G6.5ncore-PETIM in water
217696
    1aaa     N1    1   8.109   5.707  11.949  0.1687 -0.9358 -0.2610
    1aaa     C1    2   8.072   5.602  11.852  0.0250 -0.7245 -0.2066
    1aaa     H1    3   7.966   5.574  11.857 -0.3088 -0.1658 -2.6780
    1aaa     H2    4   8.068   5.641  11.749  0.7171 -0.6108 -0.1942
    1aaa     C2    5   8.230   5.782  11.905 -0.3526  0.0324  0.3090
    1aaa     H3    6   8.315   5.723  11.939  1.6263  3.3574  1.6226
    1aaa     H4    7   8.228   5.782  11.795 -0.6976  0.6615  0.3039
    1aaa     C3    8   8.108   5.669  12.091  0.8964 -0.2117 -0.0557
    1aaa     H5    9   8.185   5.594  12.112 -2.2085 -3.7706 -0.3870
    1aaa     H6   10   8.104   5.758  12.156 -3.1776 -0.4368  0.2081
    1aaa     C4   11   7.982   5.598  12.136 -0.5471  0.1709  0.1841
    1aaa     H7   12   7.896   5.657  12.101 -0.7187 -0.0362  0.2545
    1aaa     H8   13   7.971   5.507  12.076  3.2764  0.0292 -0.5271
    1aaa     C5   14   8.148   5.474  11.852 -0.5305 -0.7058  0.3796
    1aaa     H9   15   8.247   5.491  11.808 -1.2289  0.8042 -0.7118
    1aaa    H10   16   8.166   5.435  11.953  2.1297  1.3380  0.8069
    1aaa     C6   17   8.240   5.933  11.954  0.6742  0.1340  0.1665
    1aaa    H11   18   8.226   5.951  12.062  2.1952 -0.9602  0.5871
    1aaa    H12   19   8.342   5.970  11.939  0.4202  0.6053 -0.4165
    1aaa     C7   20   8.154   6.025  11.867 -0.0630 -0.1224 -0.2898
    1aaa    H13   21   8.058   5.972  11.868 -0.2660  0.2460  0.3898
    1aaa    H14   22   8.153   6.120  11.922 -0.7871  0.1411 -0.7543
    1aaa     C8   23   7.975   5.551  12.283  0.0776  0.2384  0.5216
    1aaa    H15   24   7.996   5.640  12.343  0.8013 -0.6005  1.5513
    1aaa    H16   25   7.874   5.511  12.299 -0.5148  0.5522 -2.0515
    1aaa     C9   26   8.077   5.360  11.768 -0.0101 -0.1800  0.1505
    1aaa    H17   27   8.130   5.265  11.781  1.2529  0.1718 -1.9713
    1aaa    H18   28   7.975   5.343  11.805 -0.2770  1.0547  0.0341
    2bbb     N1   29   7.900   5.942  11.369 -0.1227  0.5201 -0.3370
    2bbb     C1   30   7.963   5.838  11.282 -0.4770 -0.3471 -0.1507
    2bbb     H1   31   7.888   5.776  11.231  0.2109 -1.3276 -0.0003
    2bbb     H2   32   8.016   5.770  11.350  2.9526  2.7259  0.5613
    2bbb     C2   33   7.790   5.891  11.446 -0.0965  0.0427 -0.2968
    2bbb     H3   34   7.786   5.956  11.535  0.5823 -0.0787 -0.1686
    2bbb     H4   35   7.806   5.784  11.463  1.3147  0.1321 -0.8920
    2bbb     C3   36   7.993   6.028  11.439  0.0332  0.5151  0.0375
    2bbb     H5   37   7.945   6.123  11.468  2.1649  1.2834  1.2592
    2bbb     H6   38   8.075   6.050  11.370 -0.0732 -1.2472 -0.7023
    2bbb     C4   39   8.047   5.977  11.573  0.0969 -0.1279 -0.1886
    2bbb     H7   40   8.116   5.894  11.552 -0.7064 -0.0775 -3.6182
    2bbb     H8   41   7.978   5.943  11.650  1.5256  1.4644  1.9254
    2bbb     C5   42   8.060   5.896  11.177 -0.1842  0.1416  0.2689
    2bbb     H9   43   8.148   5.942  11.225  0.5868 -1.8070  0.8184
    2bbb    H10   44   8.003   5.974  11.125  1.3685 -0.5715 -2.7577
    2bbb     C6   45   7.658   5.903  11.366  0.0268  0.0869 -0.5407
    2bbb    H11   46   7.671   5.878  11.260  0.3317  0.5316 -0.6133
    2bbb    H12   47   7.624   6.007  11.358 -3.0151 -0.8925 -1.7264
    2bbb     C7   48   8.124   6.093  11.640  0.4752  0.0522  0.1719
    2bbb    H13   49   8.057   6.169  11.684  1.1998 -0.8242  3.0038
    2bbb    H14   50   8.181   6.148  11.564  0.5828 -0.4685 -0.1261
    2bbb     C8   51   7.551   5.807  11.423 -0.1445 -0.9124  0.6027
    2bbb    H15   52   7.598   5.712  11.451  0.4780 -0.6484  0.4668
    2bbb    H16   53   7.482   5.797  11.338  2.5947 -1.0489 -1.7633
    2bbb     C9   54   8.114   5.803  11.063 -0.2832  0.4961 -0.7316
    2bbb    H17   55   8.200   5.853  11.017  0.1686  0.4539  0.0475
    2bbb    H18   56   8.040   5.800  10.982 -0.6642  0.3705 -0.3817
    2bbb     O1   57   8.212   6.043  11.735  0.2052 -0.9241 -0.3911
    3bbb     N1   58   7.827   5.203  12.611 -0.5573  0.1035  0.2390
    3bbb     C1   59   7.883   5.192  12.745  0.1012  0.0643 -0.1191
    3bbb     H1   60   7.924   5.289  12.776  1.6113 -0.3544 -0.7154
    3bbb     H2   61   7.967   5.121  12.748  0.8504  0.9684  1.0755
    3bbb     C2   62   7.760   5.073  12.564  0.5058 -0.2704 -0.0594
    3bbb     H3   63   7.681   5.053  12.638  0.9708  1.6232  1.0331
    3bbb     H4   64   7.815   4.979  12.570  1.3831  0.3142  1.4891
    3bbb     C3   65   7.932   5.251  12.514  0.6056 -0.2548 -0.1794
    3bbb     H5   66   7.894   5.270  12.413  1.5816  2.0596 -0.1790
    3bbb     H6   67   8.010   5.176  12.497  2.4428  1.6807 -0.6722
    3bbb     C4   68   8.014   5.386  12.537 -0.3184  0.2451 -0.3974
    3bbb     H7   69   8.061   5.374  12.636 -0.9825  1.0798  0.0414
    3bbb     H8   70   7.951   5.476  12.540 -1.9708 -0.7442 -2.9788
    3bbb     C5   71   7.779   5.157  12.853  0.2671 -0.0228 -0.1217
    3bbb     H9   72   7.831   5.158  12.949  0.5439  0.1956 -0.2729
    3bbb    H10   73   7.747   5.052  12.846 -0.7588  0.3375 -1.2232
    3bbb     C6   74   7.692   5.085  12.424  0.2273  0.0233  0.4215
    3bbb    H11   75   7.769   5.110  12.351  1.3472 -1.0513  1.1894
    3bbb    H12   76   7.612   5.160  12.429  0.2017 -0.0384  1.1118
    3bbb     C7   77   8.120   5.414  12.434 -0.8921 -0.0029  0.7027
    3bbb    H13   78   8.187   5.327  12.430 -2.2384 -1.0488  0.2730
    3bbb    H14   79   8.184   5.494  12.474 -0.0990 -1.0062  1.5057
    3bbb     C8   80   7.631   4.951  12.386 -0.4022 -0.5122 -0.0476
    3bbb    H15   81   7.585   4.912  12.477 -1.1442 -1.0191 -0.6273
    3bbb    H16   82   7.712   4.884  12.357 -0.6775 -0.6665 -0.4620
    3bbb     C9   83   7.652   5.248  12.857  0.1640 -0.1687  0.6925
    3bbb    H17   84   7.610   5.256  12.756  1.0143  0.0289  0.3503
    3bbb    H18   85   7.690   5.350  12.867  2.3793 -0.7887 -0.8132
    3bbb     O1   86   8.075   5.445  12.303 -0.3358 -0.5677  0.0710
    4bbb     N1   87   7.875   5.310  11.256 -0.4932  0.6753 -1.1160
    4bbb     C1   88   7.747   5.269  11.196 -0.0423 -0.1167  0.5721
    4bbb     H1   89   7.776   5.198  11.118  1.3725  0.9855  0.0367
    4bbb     H2   90   7.699   5.356  11.149  1.8640  0.1263 -1.0451
    4bbb     C2   91   7.990   5.299  11.159  0.0395  0.3408  0.4281
    4bbb     H3   92   7.995   5.192  11.131  1.6618  0.1871  1.2433
    4bbb     H4   93   8.090   5.327  11.194  0.5894  1.9142 -2.1936
    4bbb     C3   94   7.875   5.446  11.315  0.4128 -0.5259  0.2542
    4bbb     H5   95   7.784   5.463  11.374  1.7552  2.1836  1.7412
    4bbb     H6   96   7.879   5.527  11.241  2.2585  0.1522  1.0361
    4bbb     C4   97   7.986   5.466  11.417 -0.4543 -0.1188  0.0562
    4bbb     H7   98   7.970   5.562  11.469  1.5984  1.5240 -2.1044
    4bbb     H8   99   8.087   5.483  11.376 -0.6256  1.0607  0.0845
    4bbb     C5  100   7.646   5.211  11.298  0.0267  0.3255  0.5461
    4bbb     H9  101   7.621   5.282  11.377 -0.9726  1.2752 -0.5848
    4bbb    H10  102   7.700   5.124  11.340 -1.0909  0.2240  1.8278
    4bbb     C6  103   7.963   5.387  11.030  0.1942  0.1635  0.2995
    4bbb    H11  104   7.958   5.494  11.049  0.4487  0.2033  0.1403
    4bbb    H12  105   7.869   5.349  10.987  1.5753 -0.8886 -1.9907
    4bbb     C7  106   7.992   5.356  11.520 -0.1558  0.5465 -0.0282
    4bbb    H13  107   8.026   5.267  11.466 -2.2724 -0.4858  0.2634
    4bbb    H14  108   7.891   5.338  11.559  0.0258 -1.7870 -0.5069
    4bbb     C8  109   8.084   5.360  10.937 -0.5108 -0.7763  0.0095
    4bbb    H15  110   8.169   5.409  10.987 -2.8255  2.0620  1.4181
    4bbb    H16  111   8.064   5.407  10.840 -0.4471 -1.5736 -0.4026
    4bbb     C9  112   7.522   5.170  11.218  0.0207 -0.4270 -0.1536
    4bbb    H17  113   7.555   5.091  11.150 -0.3679 -0.8468  0.1408
    4bbb    H18  114   7.497   5.252  11.150  1.7480 -1.8096 -2.5855
    4bbb     O1  115   8.076   5.403  11.624 -0.1734  0.2433  0.3060
    5bbb     N1  116   7.295   5.865  11.993  0.5814 -0.1086  0.4555
    5bbb     C1  117   7.215   5.990  11.988 -0.6723  0.0540  0.0727
    5bbb     H1  118   7.132   5.964  11.921  0.8340 -0.7252 -1.5755
    5bbb     H2  119   7.277   6.067  11.942  1.5440 -1.0957  0.9908
    5bbb     C2  120   7.420   5.859  12.069  0.0432  0.6426 -0.3024
    5bbb     H3  121   7.411   5.890  12.173  0.7063 -1.2123  0.3398
    5bbb     H4  122   7.502   5.918  12.026  1.2384 -0.6510  0.1314
    5bbb     C3  123   7.303   5.813  11.855  0.2933  0.2871  0.3797
    5bbb     H5  124   7.201   5.815  11.817 -0.6518 -1.6772  2.5217
    5bbb     H6  125   7.332   5.707  11.856  1.8929  0.6404 -1.7484
    5bbb     C4  126   7.398   5.887  11.757 -0.0982  0.3759  0.1663
    5bbb     H7  127   7.487   5.921  11.812 -0.2459  0.4194  0.3800
    5bbb     H8  128   7.363   5.983  11.717  1.3505  0.7057 -0.3765
    5bbb     C5  129   7.166   6.038  12.122  0.1393 -0.6413 -0.4212
    5bbb     H9  130   7.242   6.070  12.193  0.7694  0.7433 -1.6624
    5bbb    H10  131   7.116   5.953  12.170  1.9915 -0.0380  2.8797
    5bbb     C6  132   7.484   5.716  12.078  0.3812  0.4412 -1.0041
    5bbb    H11  133   7.514   5.691  11.976 -0.8571  1.6272 -1.6948
    5bbb    H12  134   7.409   5.642  12.111  2.0383 -0.1503  1.8215
    5bbb     C7  135   7.447   5.792  11.648 -0.5629 -0.5269  0.4421
    5bbb    H13  136   7.356   5.755  11.599 -1.5186  0.5222  1.3595
    5bbb    H14  137   7.518   5.718  11.685 -0.5354 -0.8146 -0.1748
    5bbb     C8  138   7.605   5.715  12.179  0.3955 -0.4449 -0.5257
    5bbb    H15  139   7.666   5.803  12.154 -0.7179  0.6935  0.6479
    5bbb    H16  140   7.663   5.627  12.149  1.5356 -0.1573  0.7361
    5bbb     C9  141   7.059   6.152  12.115  0.6273  0.6166 -0.4323
    5bbb    H17  142   7.029   6.179  12.217 -2.9752  0.3519 -1.3071
    5bbb    H18  143   6.975   6.115  12.055  2.0439 -1.3511 -1.3335
    5bbb     O1  144   7.494   5.876  11.541  0.1286  0.1597  0.0690
    6bbb     N1  145   8.501   5.596  10.881  0.2371  0.0382 -0.5858
    6bbb     C1  146   8.565   5.682  10.775  0.0674 -0.0562 -0.2171
    6bbb     H1  147   8.497   5.763  10.747 -1.0039  0.0709  2.4814
    6bbb     H2  148   8.602   5.624  10.689 -2.3633  0.1900 -1.5143
    6bbb     C2  149   8.450   5.467  10.832  0.3249 -0.0623  0.1227
    6bbb     H3  150   8.377   5.487  10.753  0.5461 -0.2660 -0.1368
    6bbb     H4  151   8.391   5.412  10.905 -0.3314  2.5831  1.6982
    6bbb     C3  152   8.420   5.672  10.980  0.0418 -0.3998 -0.0664
    6bbb     H5  153   8.323   5.694  10.936 -1.2497 -1.8947  1.8285
    6bbb     H6  154   8.475   5.763  11.007  0.6606 -0.1492 -2.0360
    6bbb     C4  155   8.389   5.594  11.114  0.5253 -0.2803 -0.4711
    6bbb     H7  156   8.482   5.569  11.167  0.1085  0.9169  0.8840
    6bbb     H8  157   8.352   5.495  11.082 -0.5878 -0.1990  0.5017
    6bbb     C5  158   8.689   5.745  10.837  0.2356  0.5710  0.6084
    6bbb     H9  159   8.733   5.662  10.893 -0.2248 -0.2017 -0.1490
    6bbb    H10  160   8.657   5.821  10.910 -3.2886  0.4127 -0.5811
    6bbb     C6  161   8.561   5.382  10.774  0.5040  0.3932  0.7462
    6bbb    H11  162   8.619   5.432  10.696 -0.8812  0.3687 -0.3323
    6bbb    H12  163   8.515   5.294  10.727 -0.7486  0.9766  0.8340
    6bbb     C7  164   8.275   5.665  11.199 -0.4871 -0.0331 -0.3335
    6bbb    H13  165   8.311   5.767  11.211  0.7958  0.1211 -4.2557
    6bbb    H14  166   8.264   5.616  11.297 -2.2291  1.5972  0.3468
    6bbb     C8  167   8.662   5.341  10.865 -1.0936  0.1109 -0.3344
    6bbb    H15  168   8.628   5.267  10.938 -3.2326  0.0833 -1.2853
    6bbb    H16  169   8.701   5.430  10.916  1.2413 -1.7810  1.4222
    6bbb     C9  170   8.789   5.791  10.739  0.1388 -0.3959  0.5654
    6bbb    H17  171   8.740   5.865  10.675  0.3847  1.6881  2.6413
    6bbb    H18  172   8.831   5.712  10.675 -0.9203 -0.4139 -0.1395
    6bbb     O1  173   8.154   5.671  11.126 -0.0293  0.0109  0.9383
    7bbb     N1  174   7.382   4.796  11.862 -0.2271  0.6536  0.2797
    7bbb     C1  175   7.267   4.886  11.824  0.2074  0.3294 -0.2779
    7bbb     H1  176   7.226   4.925  11.917  0.6345 -2.3708  1.1575
    7bbb     H2  177   7.191   4.820  11.780 -0.5516  0.9726  0.0458
    7bbb     C2  178   7.338   4.683  11.949 -0.4348  0.4145 -0.6241
    7bbb     H3  179   7.240   4.647  11.916 -0.8141 -2.3191  2.8783
    7bbb     H4  180   7.327   4.720  12.052 -2.6366 -1.1739 -0.2292
    7bbb     C3  181   7.504   4.871  11.914  0.8104 -0.4955  0.1111
    7bbb     H5  182   7.530   4.953  11.845  0.6099  1.2788  2.0570
    7bbb     H6  183   7.595   4.811  11.923  0.0046 -1.5166  1.8641
    7bbb     C4  184   7.483   4.948  12.041  0.2220  0.5429 -0.4208
    7bbb     H7  185   7.379   4.937  12.075  0.5394  0.6475  0.6294
    7bbb     H8  186   7.496   5.056  12.038 -0.8484  0.6883 -0.3586
    7bbb     C5  187   7.289   5.001  11.724 -0.1857  0.5434 -0.0908
    7bbb     H9  188   7.346   4.964  11.637 -0.4161  1.7451 -0.7795
    7bbb    H10  189   7.362   5.071  11.765  1.2600  0.5002 -2.3713
    7bbb     C6  190   7.434   4.565  11.936  0.4553  0.2529  0.4646
    7bbb    H11  191   7.537   4.589  11.964  0.4993 -0.4805  0.9759
    7bbb    H12  192   7.437   4.534  11.831  1.2006  1.5294  0.0879
    7bbb     C7  193   7.574   4.898  12.161 -0.2697 -0.6699  0.6387
    7bbb    H13  194   7.680   4.911  12.139 -0.6460 -0.5889 -1.3872
    7bbb    H14  195   7.563   4.790  12.180 -0.5808 -0.4029  2.0836
    7bbb     C8  196   7.393   4.437  12.012  0.5641 -0.5833 -0.2951
    7bbb    H15  197   7.460   4.353  11.990  0.3427 -0.6679 -0.6507
    7bbb    H16  198   7.293   4.420  11.971  0.7551 -1.3484 -0.4675
    7bbb     C9  199   7.164   5.072  11.693 -0.5655 -0.3740  0.5240
    7bbb    H17  200   7.182   5.165  11.637  0.1890 -0.0001  1.3565
    7bbb    H18  201   7.125   5.111  11.788 -0.4398 -0.9456  0.8128
    7bbb     O1  202   7.539   4.975  12.277  0.0719  0.3824  0.3053
    8bbb     N1  203   7.162   5.430  12.846  0.2485 -0.4139 -0.2783
    8bbb     C1  204   7.023   5.475  12.870  0.4909 -0.5161 -0.6874
    8bbb     H1  205   6.968   5.472  12.775 -0.7209 -1.9664  0.0168
    8bbb     H2  206   7.025   5.583  12.892 -1.7139 -0.9769  2.4894
    8bbb     C2  207   7.239   5.510  12.746  0.0236 -0.5704  0.5321
    8bbb     H3  208   7.347   5.508  12.766  0.3155  2.0350 -0.3987
    8bbb     H4  209   7.211   5.614  12.765 -0.5041 -1.0453  2.7304
    8bbb     C3  210   7.190   5.287  12.875 -0.3732  0.5503 -0.0021
    8bbb     H5  211   7.126   5.227  12.810 -1.6990  0.2311  1.5283
    8bbb     H6  212   7.159   5.266  12.978  0.1142  0.4442  0.1236
    8bbb     C4  213   7.344   5.242  12.853  0.7399 -0.6609 -0.4114
    8bbb     H7  214   7.381   5.283  12.759 -1.6349  1.2230 -0.6311
    8bbb     H8  215   7.342   5.132  12.851  1.5602 -0.7014  0.4797
    8bbb     C5  216   6.946   5.403  12.982  0.4056  0.2924  0.1139
    8bbb     H9  217   7.018   5.379  13.061  0.5771  0.4043 -0.0078
    8bbb    H10  218   6.904   5.307  12.952 -2.3900  1.4584 -0.0041
    8bbb     C6  219   7.204   5.470  12.600  0.8938 -0.2274 -0.3613
    8bbb    H11  220   7.095   5.478  12.587  0.7616 -2.5126 -0.9928
    8bbb    H12  221   7.235   5.367  12.577  0.6395  0.0811 -2.2607
    8bbb     C7  222   7.437   5.288  12.970 -0.2692  0.1712 -0.3446
    8bbb    H13  223   7.381   5.277  13.063  0.5479  0.0671  0.1413
    8bbb    H14  224   7.456   5.396  12.960 -0.2064  0.1624 -0.3265
    8bbb     C8  225   7.261   5.566  12.493  0.6004 -0.0617 -0.4935
    8bbb    H15  226   7.239   5.519  12.396 -0.6383 -0.5186 -0.0054
    8bbb    H16  227   7.370   5.574  12.494  0.5915  0.7035 -1.9610
    8bbb     C9  228   6.829   5.485  13.046 -0.2354  0.1170 -0.6446
    8bbb    H17  229   6.858   5.584  13.085  0.7709 -0.5013  0.2106
    8bbb    H18  230   6.782   5.438  13.133  0.1818  1.5307  0.3784
    8bbb     O1  231   7.557   5.208  12.960  0.0288  0.2149 -0.1980
    9bbb     N1  232   8.473   4.971  10.909  0.0760 -0.3262 -0.2197
    9bbb     C1  233   8.459   4.909  10.778 -0.3950 -0.5132  0.6808
    9bbb     H1  234   8.366   4.935  10.726  1.6291  0.0200 -2.9885
    9bbb     H2  235   8.457   4.800  10.783 -1.5446 -0.4709  1.3602
    9bbb     C2  236   8.606   4.969  10.976  0.0116 -0.1690 -1.1120
    9bbb     H3  237   8.594   5.001  11.080 -1.0063 -2.0719 -0.6008
    9bbb     H4  238   8.668   5.040  10.918  3.5256 -1.4348  0.8178
    9bbb     C3  239   8.362   4.947  11.002 -0.7442 -0.7602  0.0019
    9bbb     H5  240   8.389   4.989  11.100 -0.3657 -0.3992 -0.2515
    9bbb     H6  241   8.355   4.838  11.001  1.9959 -1.0532  1.7084
    9bbb     C4  242   8.230   5.006  10.956  0.2934 -0.5510 -0.7009
    9bbb     H7  243   8.147   4.970  11.017 -0.5231  0.6449 -1.0707
    9bbb     H8  244   8.206   4.971  10.855 -2.6758 -0.7967 -0.0019
    9bbb     C5  245   8.575   4.951  10.683 -0.0699  0.0287  0.6044
    9bbb     H9  246   8.673   4.905  10.701  0.4088  0.7849  0.0280
    9bbb    H10  247   8.601   5.057  10.695 -1.2342  0.1938  1.9838
    9bbb     C6  248   8.685   4.831  10.978  0.1958 -0.0489 -0.0700
    9bbb    H11  249   8.709   4.799  10.876 -0.0894 -1.5115  0.2993
    9bbb    H12  250   8.623   4.750  11.016  0.7054 -0.4045  0.0047
    9bbb     C7  251   8.235   5.166  10.953  0.2706  0.6579  0.3079
    9bbb    H13  252   8.308   5.196  10.877 -1.6658  2.2153 -1.0452
    9bbb    H14  253   8.270   5.210  11.047 -0.0053 -0.8586  1.1620
    9bbb     C8  254   8.814   4.832  11.061 -0.1366  0.4131 -0.1818
    9bbb    H15  255   8.777   4.863  11.159 -2.3587  2.7442 -1.6446
    9bbb    H16  256   8.878   4.917  11.035  0.4072  0.6259  1.7005
    9bbb     C9  257   8.519   4.945  10.539 -0.1926  0.4710 -0.8358
    9bbb    H17  258   8.447   5.027  10.529  2.0335  2.7148  0.2652
    9bbb    H18  259   8.456   4.855  10.534  0.3445  0.0434 -0.0981
    9bbb     O1  260   8.104   5.215  10.916  0.2670  0.1850 -0.0514
   10bbb     N1  261   7.157   4.730  11.221 -0.0020  0.2718 -0.1190
   10bbb     C1  262   7.032   4.684  11.157 -0.4004 -0.5694 -0.2199
   10bbb     H1  263   7.032   4.718  11.053  0.4095 -3.0473 -1.1126
   10bbb     H2  264   6.949   4.734  11.207 -0.2665  1.4193 -1.8414
   10bbb     C2  265   7.204   4.654  11.339 -0.5855 -0.0631 -0.4012
   10bbb     H3  266   7.304   4.693  11.363 -2.2328  3.8730  0.7339
   10bbb     H4  267   7.224   4.548  11.319 -0.8674 -0.5671  1.7255
   10bbb     C3  268   7.153   4.884  11.227  0.6298  0.0699  0.3170
   10bbb     H5  269   7.062   4.923  11.276 -0.3797 -1.9756  0.1803
   10bbb     H6  270   7.158   4.918  11.123  2.3731 -0.0427  0.3329
   10bbb     C4  271   7.273   4.946  11.293  0.2164 -0.0916  0.3648
   10bbb     H7  272   7.361   4.881  11.283 -0.4642 -0.9798  0.0931
   10bbb     H8  273   7.262   4.947  11.402  1.6375 -0.8112  0.5455
   10bbb     C5  274   7.010   4.526  11.155  0.3868 -0.7239 -0.5938
   10bbb     H9  275   6.967   4.498  11.252 -1.9252 -1.1451 -1.6665
   10bbb    H10  276   7.110   4.483  11.141 -0.2358 -2.0350 -1.2528
   10bbb     C6  277   7.126   4.658  11.473 -0.4182 -0.9047  0.1170
   10bbb    H11  278   7.024   4.628  11.446  0.7794 -3.5796 -1.8858
   10bbb    H12  279   7.125   4.761  11.511  2.0972 -0.1743 -1.5850
   10bbb     C7  280   7.295   5.093  11.245 -0.2331 -0.2397 -0.6903
   10bbb    H13  281   7.219   5.166  11.277 -0.7554 -0.6449 -0.9842
   10bbb    H14  282   7.303   5.095  11.135 -0.3176 -0.6709 -0.7066
   10bbb     C8  283   7.155   4.556  11.586 -0.0050 -0.9326 -0.2622
   10bbb    H15  284   7.256   4.572  11.624 -0.5932 -0.4769  1.1805
   10bbb    H16  285   7.143   4.452  11.554  1.4975 -1.3033  0.3064
   10bbb     C9  286   6.909   4.476  11.056 -0.0185 -0.2758  0.6210
   10bbb    H17  287   6.806   4.500  11.087  0.3378  0.7414  1.0514
   10bbb    H18  288   6.915   4.367  11.044 -0.5973 -0.2299 -0.1870
   10bbb     O1  289   7.414   5.131  11.307 -0.3437  0.2242  0.5717
   11bbb     N1  290   7.732   5.900  12.673 -0.2943  0.3759  0.4482
   11bbb     C1  291   7.649   5.994  12.749 -0.8304  0.0782 -0.5871
   11bbb     H1  292   7.555   6.010  12.695 -0.4033 -2.3685 -2.2326
   11bbb     H2  293   7.696   6.092  12.764 -2.2283  1.1320 -2.6257
   11bbb     C2  294   7.865   5.883  12.738 -0.3541  1.0684  0.6073
   11bbb     H3  295   7.862   5.857  12.844 -2.2143 -2.6604 -0.1702
   11bbb     H4  296   7.928   5.973  12.729 -1.2714  1.6689  0.1099
   11bbb     C3  297   7.741   5.946  12.531  0.3000 -0.3066 -0.0048
   11bbb     H5  298   7.836   5.908  12.490  0.6721 -0.2257  0.7653
   11bbb     H6  299   7.737   6.055  12.523 -0.7982 -0.4196 -1.5993
   11bbb     C4  300   7.633   5.902  12.441 -0.2263  0.3383 -0.0824
   11bbb     H7  301   7.640   5.950  12.343 -0.9087 -1.2836 -0.9529
   11bbb     H8  302   7.533   5.929  12.477 -0.4057 -0.8558  0.3593
   11bbb     C5  303   7.602   5.947  12.889  0.6834  0.4140 -0.2362
   11bbb     H9  304   7.562   6.034  12.944  0.4669 -0.9357  1.8511
   11bbb    H10  305   7.688   5.905  12.942  0.8699  1.9755  0.7584
   11bbb     C6  306   7.958   5.782  12.662 -0.0177 -0.6559  0.2420
   11bbb    H11  307   7.994   5.824  12.567 -0.7094  0.6773  0.5351
   11bbb    H12  308   7.905   5.687  12.650 -1.8821 -0.0910  2.9670
   11bbb     C7  309   7.639   5.745  12.419  0.0196  0.1199  0.1300
   11bbb    H13  310   7.603   5.693  12.509  0.7921  1.4465  1.2586
   11bbb    H14  311   7.742   5.715  12.396  1.0961  1.4120  2.7965
   11bbb     C8  312   8.078   5.740  12.747  0.0940 -0.0926 -0.3137
   11bbb    H15  313   8.125   5.668  12.679 -1.6798 -1.6145 -0.0242
   11bbb    H16  314   8.047   5.698  12.844  1.8997 -1.2088 -0.1620
   11bbb     C9  315   7.498   5.836  12.888  0.6294  0.1678 -0.5273
   11bbb    H17  316   7.541   5.735  12.887  1.1816  0.2554  2.7572
   11bbb    H18  317   7.436   5.837  12.798  0.4607 -0.5862 -0.4218
   11bbb     O1  318   7.545   5.716  12.311  0.3177  0.0334 -0.0193
   12bbb     N1  319   7.312   6.575  11.842 -0.0329  0.2074  0.6118
   12bbb     C1  320   7.278   6.716  11.859  0.2621  0.4133 -0.6556
   12bbb     H1  321   7.235   6.736  11.958  0.1543 -2.5903  0.0138
   12bbb     H2  322   7.204   6.744  11.783  1.1858  0.1841 -1.6531
   12bbb     C2  323   7.380   6.544  11.712  0.1191  0.1810  0.5175
   12bbb     H3  324   7.461   6.616  11.692 -1.3441  1.2138 -2.2758
   12bbb     H4  325   7.312   6.572  11.630 -0.1763 -1.2672  0.2376
   12bbb     C3  326   7.197   6.487  11.876 -0.2172 -0.3524  0.4557
   12bbb     H5  327   7.227   6.382  11.868  1.6288  0.0701  1.3457
   12bbb     H6  328   7.118   6.515  11.805  0.9826 -0.3210 -0.8932
   12bbb     C4  329   7.144   6.505  12.022  0.1143 -0.6304 -0.4029
   12bbb     H7  330   7.084   6.595  12.042  0.1580 -0.9466  1.3521
   12bbb     H8  331   7.231   6.509  12.089  0.1871  0.2346 -0.5434
   12bbb     C5  332   7.397   6.809  11.861 -0.6601  0.0031 -0.3660
   12bbb     H9  333   7.437   6.825  11.760  1.4722 -2.6214 -0.0534
   12bbb    H10  334   7.478   6.755  11.912 -1.3860 -0.7543 -0.0015
   12bbb     C6  335   7.440   6.408  11.695  0.1882 -0.7219 -0.5136
   12bbb    H11  336   7.357   6.339  11.712  0.0415  0.0588  2.3409
   12bbb    H12  337   7.505   6.384  11.780  1.2336 -1.3214 -1.4501
   12bbb     C7  338   7.052   6.389  12.071 -0.5283 -1.0474 -0.1860
   12bbb    H13  339   6.967   6.389  12.001 -0.3804  1.3840 -0.4680
   12bbb    H14  340   7.015   6.409  12.172 -2.1227  0.3202 -0.9839
   12bbb     C8  341   7.504   6.391  11.557 -0.6938  0.7168  0.6749
   12bbb    H15  342   7.570   6.303  11.556  0.1289  1.3214  0.3322
   12bbb    H16  343   7.572   6.475  11.540 -1.0381  1.0466  0.9090
   12bbb     C9  344   7.391   6.930  11.965  0.5735  0.7798  0.3838
   12bbb    H17  345   7.492   6.971  11.976  1.3193 -1.1333  1.1067
   12bbb    H18  346   7.360   6.902  12.066 -0.3522  0.6899  0.0886
   12bbb     O1  347   7.120   6.267  12.059 -0.2962  0.7839 -0.5109
   13bbb     N1  348   9.057   5.013  10.642  0.4760  0.5254 -0.2549
   13bbb     C1  349   9.194   5.003  10.705 -0.5291  0.3766 -0.3663
   13bbb     H1  350   9.243   5.101  10.702  0.0731  0.1382  0.9841
   13bbb     H2  351   9.260   4.936  10.649 -1.2585  0.0366 -0.8330
   13bbb     C2  352   9.078   5.068  10.503  0.3021 -0.3205 -0.6471
   13bbb     H3  353   9.137   5.159  10.517  0.9459 -0.7101 -0.8050
   13bbb     H4  354   8.980   5.091  10.459  1.0055  0.8677 -1.6583
   13bbb     C3  355   8.961   5.086  10.732 -0.6582  0.5333 -0.0504
   13bbb     H5  356   8.946   5.021  10.819  1.7300 -0.2504 -0.1603
   13bbb     H6  357   8.863   5.100  10.683 -1.5480 -0.6834  1.3062
   13bbb     C4  358   9.004   5.228  10.772 -0.0226  0.5460 -0.8595
   13bbb     H7  359   9.017   5.295  10.687  0.5227 -0.9508 -2.0120
   13bbb     H8  360   9.094   5.238  10.835 -0.5188  0.3365 -0.1063
   13bbb     C5  361   9.193   4.952  10.862 -0.4388  0.4946  0.1844
   13bbb     H9  362   9.102   4.892  10.876  0.2798  0.0075  3.7179
   13bbb    H10  363   9.180   5.033  10.934 -2.2603 -0.0147  0.4800
   13bbb     C6  364   9.166   4.990  10.401  0.4018  0.3161 -0.4657
   13bbb    H11  365   9.138   4.885  10.387 -2.0366  0.9076 -0.4504
   13bbb    H12  366   9.268   4.991  10.441 -0.3399 -1.4835  1.6433
   13bbb     C7  367   8.893   5.286  10.866 -0.4010 -0.0481  0.0301
   13bbb    H13  368   8.918   5.389  10.893  1.0532 -0.2104 -0.6031
   13bbb    H14  369   8.888   5.221  10.955 -1.1916 -0.8192 -0.5694
   13bbb     C8  370   9.159   5.057  10.261  0.5803 -0.1973  0.3268
   13bbb    H15  371   9.184   5.164  10.272  1.4643 -0.2594 -0.8824
   13bbb    H16  372   9.058   5.044  10.223  0.9261  0.5309 -0.9068
   13bbb     C9  373   9.322   4.874  10.903 -0.0899  0.4479 -0.2743
   13bbb    H17  374   9.370   4.819  10.821 -1.0188 -0.5421 -0.1718
   13bbb    H18  375   9.304   4.797  10.979  0.1563  2.0082  1.4471
   13bbb     O1  376   8.771   5.274  10.798 -0.2890  0.5550  0.3111
   14bbb     N1  377   9.177   6.148  10.596  0.1192  0.4756  0.3642
   14bbb     C1  378   9.314   6.187  10.537 -0.1549 -0.1941  0.1857
   14bbb     H1  379   9.301   6.157  10.432 -2.2036 -1.4989  0.7386
   14bbb     H2  380   9.396   6.121  10.566  0.8252  1.2279  0.7385
   14bbb     C2  381   9.058   6.233  10.560  0.4154 -0.1412 -0.1970
   14bbb     H3  382   9.079   6.330  10.607  2.0573 -0.4197 -0.3062
   14bbb     H4  383   8.960   6.200  10.596  0.0003 -1.3665 -2.2690
   14bbb     C3  384   9.187   6.102  10.736 -0.3324  0.4332  0.1894
   14bbb     H5  385   9.222   6.192  10.788 -1.2322 -0.6844  2.9225
   14bbb     H6  386   9.274   6.035  10.738 -0.7651 -0.1606 -0.4126
   14bbb     C4  387   9.058   6.047  10.794  0.2906  0.3032 -0.5291
   14bbb     H7  388   8.994   6.135  10.809  0.0903 -0.1690  1.7234
   14bbb     H8  389   9.075   5.995  10.890 -4.2510 -0.1964  0.2606
   14bbb     C5  390   9.355   6.337  10.554 -0.0752 -0.7285 -0.1931
   14bbb     H9  391   9.375   6.349  10.661  2.3602  0.3195 -0.7074
   14bbb    H10  392   9.270   6.403  10.533 -0.3309 -0.9489  0.1551
   14bbb     C6  393   9.035   6.246  10.404 -0.5843 -0.0999  0.3229
   14bbb    H11  394   9.128   6.273  10.353  0.1202 -1.4306  0.8419
   14bbb    H12  395   8.961   6.324  10.382 -0.2928 -0.6034 -3.0943
   14bbb     C7  396   8.986   5.934  10.707  0.1287 -0.9985  0.1051
   14bbb    H13  397   9.065   5.869  10.668  0.6724 -0.9961  1.1567
   14bbb    H14  398   8.919   5.976  10.631 -1.0515  0.1031  1.6958
   14bbb     C8  399   8.998   6.112  10.344  0.1018  0.1484  0.4303
   14bbb    H15  400   9.074   6.034  10.352  1.5031  1.2348 -1.4386
   14bbb    H16  401   8.979   6.131  10.237  0.2259  0.9922  0.5483
   14bbb     C9  402   9.487   6.377  10.471  0.1577 -0.0040 -0.5432
   14bbb    H17  403   9.468   6.404  10.367  0.6789  1.7682 -0.2217
   14bbb    H18  404   9.553   6.290  10.478  0.9965  0.6833  0.4286
   14bbb     O1  405   8.900   5.860  10.796  0.2192 -0.5384  0.7392
   15bbb     N1  406   6.992   4.237  12.335 -0.1719 -0.3050  0.4885
   15bbb     C1  407   6.941   4.148  12.437 -0.3743 -0.3291  1.0966
   15bbb     H1  408   6.922   4.211  12.525 -3.2580  1.9481 -0.9374
   15bbb     H2  409   7.022   4.080  12.463  0.0644  0.8116  2.9595
   15bbb     C2  410   6.899   4.346  12.293 -0.0315  0.0220 -0.0699
   15bbb     H3  411   6.800   4.304  12.313  0.6653 -1.2671  0.8283
   15bbb     H4  412   6.908   4.372  12.187 -2.6193  1.2825 -0.0662
   15bbb     C3  413   7.131   4.282  12.352  0.0236 -0.0270 -0.0144
   15bbb     H5  414   7.187   4.191  12.378 -1.1339  0.0924  3.3809
   15bbb     H6  415   7.140   4.345  12.441  0.1930 -0.8055  0.5355
   15bbb     C4  416   7.196   4.349  12.226  0.7542  0.4788 -0.9367
   15bbb     H7  417   7.152   4.449  12.214 -0.2484  0.5388  2.2291
   15bbb     H8  418   7.171   4.296  12.133 -2.0225 -2.5343  1.2776
   15bbb     C5  419   6.803   4.087  12.403 -0.0297  0.4290 -0.1931
   15bbb     H9  420   6.804   4.067  12.295 -1.0209  0.8442 -0.2900
   15bbb    H10  421   6.722   4.160  12.416  1.1819  1.9946 -1.0242
   15bbb     C6  422   6.912   4.485  12.363 -0.0977  0.3874 -0.3267
   15bbb    H11  423   6.895   4.566  12.290  2.3395  0.4785 -0.8841
   15bbb    H12  424   7.016   4.498  12.395 -0.1728  0.0606  0.0481
   15bbb     C7  425   7.354   4.350  12.239  0.3754 -0.8194 -0.8666
   15bbb    H13  426   7.405   4.257  12.213  1.0420 -0.3927 -1.1193
   15bbb    H14  427   7.387   4.366  12.342 -1.1384 -0.2240 -0.4350
   15bbb     C8  428   6.829   4.493  12.490 -0.1843 -0.3999 -0.0055
   15bbb    H15  429   6.835   4.587  12.546 -0.6211  0.5233 -1.4540
   15bbb    H16  430   6.871   4.417  12.557  2.5917 -0.0073 -1.1691
   15bbb     C9  431   6.787   3.959  12.480  0.2749  0.4947  0.5815
   15bbb    H17  432   6.778   3.981  12.587  1.6717  0.2726  0.7606
   15bbb    H18  433   6.871   3.888  12.474 -0.3590 -0.3286  1.1936
   15bbb     O1  434   7.394   4.462  12.153 -0.4073  0.0326  0.5923
   16bbb     N1  435   6.645   4.963  11.475 -1.4778  0.1544 -0.4913
   16bbb     C1  436   6.674   5.094  11.413  0.3379  0.0888  0.2299
   16bbb     H1  437   6.766   5.128  11.462 -0.2085 -0.5023  1.7262
   16bbb     H2  438   6.596   5.164  11.444 -0.6505 -0.2531 -1.3667
   16bbb     C2  439   6.508   4.901  11.462  0.2418  0.2982  0.4532
   16bbb     H3  440   6.511   4.798  11.500  1.0141  0.0984 -0.1299
   16bbb     H4  441   6.485   4.898  11.355 -2.7175  0.9141  0.9854
   16bbb     C3  442   6.696   4.954  11.613 -0.3695  0.1770  0.3128
   16bbb     H5  443   6.636   4.881  11.668 -2.2654  0.3131 -1.4560
   16bbb     H6  444   6.688   5.053  11.661  1.1209 -0.9857  3.2137
   16bbb     C4  445   6.846   4.906  11.624  1.0106  0.1799 -0.1074
   16bbb     H7  446   6.869   4.837  11.541  1.1328  0.1773 -0.0725
   16bbb     H8  447   6.856   4.847  11.716  0.2475  1.1192  0.5885
   16bbb     C5  448   6.681   5.089  11.258 -0.3527  0.2488 -0.0673
   16bbb     H9  449   6.694   5.192  11.224  1.5371  0.8092  2.1266
   16bbb    H10  450   6.582   5.055  11.225 -0.5069 -2.5716  2.8249
   16bbb     C6  451   6.403   4.994  11.523 -0.0384 -0.1945  0.3794
   16bbb    H11  452   6.314   4.983  11.459  0.2325  1.0694 -0.2536
   16bbb    H12  453   6.420   5.101  11.507  2.9311 -0.4814  1.1830
   16bbb     C7  454   6.939   5.029  11.640  0.2046  0.4290 -0.1018
   16bbb    H13  455   6.914   5.087  11.729 -0.9171  1.7852 -1.2410
   16bbb    H14  456   6.930   5.103  11.559  0.0712  1.1412  0.5540
   16bbb     C8  457   6.367   4.976  11.670  0.0629 -0.1360 -0.0910
   16bbb    H15  458   6.458   5.007  11.722  1.0217 -1.6384 -0.8277
   16bbb    H16  459   6.349   4.871  11.694  1.1333 -0.5973 -1.2168
   16bbb     C9  460   6.793   5.004  11.194 -0.3805  0.1985 -0.7025
   16bbb    H17  461   6.810   4.916  11.258  0.8719  1.2583  0.4736
   16bbb    H18  462   6.887   5.056  11.214 -1.0189  1.1308 -0.0077
   16bbb     O1  463   7.073   4.975  11.638 -0.5322 -0.3234 -0.0894
   17bbb     N1  464   7.202   6.107  12.680  0.4941  0.8703 -0.1042
   17bbb     C1  465   7.240   6.134  12.823  0.2309 -0.4806  0.4386
   17bbb     H1  466   7.347   6.156  12.833  0.7630 -1.5591 -2.0154
   17bbb     H2  467   7.218   6.041  12.877 -2.8337  0.4673  1.0392
   17bbb     C2  468   7.237   6.216  12.588  0.3313 -0.2930  0.4323
   17bbb     H3  469   7.172   6.303  12.607 -1.2801 -0.5815 -3.1022
   17bbb     H4  470   7.204   6.190  12.487 -0.4995 -0.7790  0.8133
   17bbb     C3  471   7.225   5.961  12.637 -0.1888 -0.5146  0.5030
   17bbb     H5  472   7.171   5.880  12.688 -0.9649 -1.1468 -1.2439
   17bbb     H6  473   7.329   5.942  12.664  0.0627  0.2131  0.0597
   17bbb     C4  474   7.216   5.945  12.483  0.1379 -0.8639 -0.2298
   17bbb     H7  475   7.283   6.013  12.429 -0.4010  1.7550  2.1316
   17bbb     H8  476   7.117   5.973  12.445  0.5544 -1.0000 -1.4550
   17bbb     C5  477   7.157   6.242  12.884 -0.5324 -0.0806 -0.2043
   17bbb     H9  478   7.051   6.234  12.857  0.2814  1.4038 -4.7272
   17bbb    H10  479   7.186   6.338  12.839 -1.6707  0.0343 -0.7306
   17bbb     C6  480   7.385   6.247  12.577  0.5473 -0.0866  0.0771
   17bbb    H11  481   7.438   6.152  12.565  0.9750  0.2030 -0.3718
   17bbb    H12  482   7.421   6.285  12.673 -1.8515 -0.3128  1.1505
   17bbb     C7  483   7.248   5.806  12.434  0.4631 -0.1301 -0.4464
   17bbb    H13  484   7.357   5.817  12.425  0.3707  0.6236 -0.6642
   17bbb    H14  485   7.213   5.804  12.330  1.9528 -0.8086 -0.9711
   17bbb     C8  486   7.421   6.333  12.460 -0.4808 -0.8164  0.6380
   17bbb    H15  487   7.527   6.359  12.466 -0.4782 -0.3751 -0.9570
   17bbb    H16  488   7.373   6.431  12.468  2.5542  1.1641 -2.5680
   17bbb     C9  489   7.183   6.253  13.034 -0.2552 -0.2265 -0.3034
   17bbb    H17  490   7.135   6.166  13.081 -0.2538 -0.3456 -0.5247
   17bbb    H18  491   7.140   6.347  13.072 -0.6625 -0.4125 -0.3011
   17bbb     O1  492   7.203   5.704  12.524 -0.0767  0.5280  0.1850
   18bbb     N1  493   6.364   5.793  12.783  0.2661 -0.5652 -0.0610
   18bbb     C1  494   6.237   5.862  12.829 -0.0558  0.5336 -0.2008
   18bbb     H1  495   6.181   5.787  12.887 -0.2470  1.1632  0.4492
   18bbb     H2  496   6.173   5.885  12.743 -0.6436 -1.2432 -0.2688
   18bbb     C2  497   6.353   5.741  12.641  0.3439 -0.5023  0.0322
   18bbb     H3  498   6.255   5.692  12.638 -0.4322  0.9018  1.2430
   18bbb     H4  499   6.432   5.666  12.625  3.2723  2.5977 -1.2583
   18bbb     C3  500   6.410   5.696  12.879  0.7122  1.1967  0.8852
   18bbb     H5  501   6.340   5.613  12.890  1.1664  0.6023 -0.3926
   18bbb     H6  502   6.415   5.752  12.973  1.9459  0.3875  1.3308
   18bbb     C4  503   6.543   5.624  12.847 -0.3553 -0.6929 -0.3356
   18bbb     H7  504   6.608   5.702  12.806 -0.0575 -0.6923  0.1248
   18bbb     H8  505   6.535   5.542  12.775  0.1867 -0.0134 -1.1776
   18bbb     C5  506   6.269   5.993  12.904  0.2726 -0.5434  0.0528
   18bbb     H9  507   6.299   6.069  12.831 -1.1483 -0.9939 -1.0699
   18bbb    H10  508   6.359   5.980  12.965  0.5672  2.4325  0.3817
   18bbb     C6  509   6.367   5.847  12.529 -0.1502  0.1230 -0.0109
   18bbb    H11  510   6.465   5.895  12.544  0.3678 -0.8903 -0.1204
   18bbb    H12  511   6.290   5.924  12.544  2.2302  2.2919  2.2799
   18bbb     C7  512   6.605   5.567  12.977 -0.1160  0.6357  0.0093
   18bbb    H13  513   6.537   5.492  13.021  0.7843 -0.6740 -0.7652
   18bbb    H14  514   6.610   5.653  13.044 -2.5136  0.8747 -0.0096
   18bbb     C8  515   6.365   5.789  12.388 -0.0599 -0.3418  0.5814
   18bbb    H15  516   6.263   5.754  12.364 -0.5176  1.2866  0.0303
   18bbb    H16  517   6.431   5.702  12.385  0.8715  0.3597  0.4077
   18bbb     C9  518   6.157   6.024  13.010 -1.1182  0.1377 -0.3619
   18bbb    H17  519   6.169   6.123  13.057 -0.8378  0.6540 -1.4694
   18bbb    H18  520   6.164   5.952  13.093  0.4177  1.3690  0.6426
   18bbb     O1  521   6.734   5.501  12.941  0.2786 -0.3195  0.6200
   19bbb     N1  522   9.056   4.397  11.334 -1.0584 -0.3705 -0.3131
   19bbb     C1  523   9.152   4.323  11.418 -0.2278 -0.7413 -0.4306
   19bbb     H1  524   9.201   4.407  11.470 -1.4020  1.6427 -2.9353
   19bbb     H2  525   9.231   4.274  11.361 -0.6061 -3.1647  0.9962
   19bbb     C2  526   8.933   4.442  11.393  0.1447  0.0225 -0.8074
   19bbb     H3  527   8.869   4.359  11.424  0.1013  0.3032 -0.1323
   19bbb     H4  528   8.874   4.492  11.315 -0.2605 -1.0735 -1.2303
   19bbb     C3  529   9.119   4.496  11.248 -0.8323  0.0381 -0.9992
   19bbb     H5  530   9.212   4.453  11.209  0.3759 -0.4964  2.1676
   19bbb     H6  531   9.140   4.586  11.307  1.2889 -0.1408 -1.4241
   19bbb     C4  532   9.036   4.543  11.128  0.6721  0.0836 -0.2445
   19bbb     H7  533   8.964   4.468  11.093 -0.1186 -0.0131  1.4890
   19bbb     H8  534   9.106   4.556  11.044  2.4599 -0.4927  1.0911
   19bbb     C5  535   9.092   4.215  11.509  0.6779  0.5388  0.0389
   19bbb     H9  536   9.037   4.142  11.448 -1.3817 -0.8209  3.2743
   19bbb    H10  537   9.018   4.256  11.579  0.8612  0.8816  0.0366
   19bbb     C6  538   8.947   4.537  11.516  0.6859  0.1752  0.4798
   19bbb    H11  539   8.987   4.633  11.481 -0.9371  0.5786 -0.3577
   19bbb    H12  540   9.020   4.495  11.586 -0.9757 -0.8617  1.6592
   19bbb     C7  541   8.971   4.679  11.151  0.0428 -0.2809 -0.0191
   19bbb    H13  542   9.041   4.762  11.140  0.1907 -0.1495  1.6071
   19bbb    H14  543   8.926   4.686  11.251  0.3550 -0.1351  0.1134
   19bbb     C8  544   8.816   4.555  11.593 -0.3929  0.3123 -0.4073
   19bbb    H15  545   8.734   4.610  11.545  0.1798  1.9680  0.4476
   19bbb    H16  546   8.838   4.624  11.676 -2.9404  0.7716 -0.0266
   19bbb     C9  547   9.186   4.133  11.602 -0.6831 -0.1667  0.6134
   19bbb    H17  548   9.279   4.108  11.551  0.8374 -0.5636  3.3639
   19bbb    H18  549   9.145   4.035  11.630  1.9815 -1.3335  0.7177
   19bbb     O1  550   8.872   4.700  11.054  0.0630 -0.1991 -0.1735
   20bbb     N1  551   8.589   4.673  10.164 -0.7475  0.6295 -0.2165
   20bbb     C1  552   8.661   4.540  10.168  0.0687 -0.8098  0.7092
   20bbb     H1  553   8.588   4.459  10.154 -1.4711  0.4981  0.8154
   20bbb     H2  554   8.710   4.536  10.266  0.4654  0.1299  0.5675
   20bbb     C2  555   8.474   4.693  10.075  0.2511 -0.3142  0.5021
   20bbb     H3  556   8.493   4.719   9.970 -1.3894  0.1784  0.2996
   20bbb     H4  557   8.422   4.783  10.110 -0.2175 -0.6949  0.8109
   20bbb     C3  558   8.673   4.794  10.172  0.0985 -0.5286 -0.6053
   20bbb     H5  559   8.606   4.881  10.179  0.2973 -0.4329  0.2296
   20bbb     H6  560   8.729   4.811  10.080 -1.4216  0.6526 -1.3578
   20bbb     C4  561   8.775   4.811  10.293  0.4400  0.1864 -0.2869
   20bbb     H7  562   8.834   4.902  10.279  1.8988 -0.7726 -0.6892
   20bbb     H8  563   8.842   4.723  10.292 -1.9655 -1.7664  0.2819
   20bbb     C5  564   8.765   4.509  10.056 -0.1982 -0.2109  0.8307
   20bbb     H9  565   8.797   4.404  10.058  2.6353  0.5547  2.4780
   20bbb    H10  566   8.864   4.556  10.070  1.3379 -1.2161 -4.3214
   20bbb     C6  567   8.367   4.586  10.067  0.9137 -0.2940  0.0281
   20bbb    H11  568   8.417   4.489  10.059 -0.4423 -1.0488  0.4532
   20bbb    H12  569   8.300   4.611   9.984  1.5999  2.2452  0.1439
   20bbb     C7  570   8.696   4.822  10.421  0.2085  0.2270  0.1252
   20bbb    H13  571   8.770   4.833  10.501  2.1799 -0.4154 -1.5619
   20bbb    H14  572   8.634   4.731  10.425  0.3417  0.1674  1.5059
   20bbb     C8  573   8.274   4.576  10.196 -0.7693 -0.0621  0.2345
   20bbb    H15  574   8.333   4.582  10.288 -0.8118 -0.0236  0.2590
   20bbb    H16  575   8.220   4.480  10.192  0.1859 -0.6554  1.1642
   20bbb     C9  576   8.724   4.547   9.910  0.3300 -0.7245  0.7707
   20bbb    H17  577   8.802   4.565   9.835 -1.3539  2.7856 -0.3078
   20bbb    H18  578   8.677   4.644   9.925  1.9192  0.5156 -1.6073
   20bbb     O1  579   8.613   4.945  10.428 -0.3440 -0.0774  0.3029
   21bbb     N1  580   6.666   4.507  11.865  0.2416 -0.8016  0.5076
   21bbb     C1  581   6.641   4.393  11.963 -0.3822  0.7273 -0.0437
   21bbb     H1  582   6.726   4.380  12.031 -0.0320  0.2016 -0.5715
   21bbb     H2  583   6.626   4.302  11.904 -0.8097  2.2850 -2.4449
   21bbb     C2  584   6.561   4.533  11.765  0.9546 -0.0442 -0.0457
   21bbb     H3  585   6.597   4.609  11.695 -1.2685 -0.3895 -1.6623
   21bbb     H4  586   6.467   4.572  11.806  1.4572  1.6428 -0.4382
   21bbb     C3  587   6.797   4.504  11.789  0.0534 -0.1401  0.0237
   21bbb     H5  588   6.808   4.598  11.734  2.5008  0.0069  0.6605
   21bbb     H6  589   6.793   4.423  11.714  0.6175 -1.5642  1.4684
   21bbb     C4  590   6.933   4.480  11.870  0.7852 -0.9322  0.1372
   21bbb     H7  591   6.910   4.383  11.916  1.0519 -2.1455 -2.1582
   21bbb     H8  592   6.934   4.557  11.948 -0.3057 -0.0198 -0.7220
   21bbb     C5  593   6.514   4.410  12.047  0.7051 -0.0397  0.6006
   21bbb     H9  594   6.429   4.408  11.977 -0.0611  0.8900  1.4596
   21bbb    H10  595   6.503   4.507  12.097  3.1785 -0.1370  1.4218
   21bbb     C6  596   6.524   4.407  11.687 -0.3738  0.3430  0.2791
   21bbb    H11  597   6.448   4.359  11.750 -0.5187 -1.7555 -1.3775
   21bbb    H12  598   6.604   4.334  11.670  0.0744  0.7976  0.4372
   21bbb     C7  599   7.053   4.465  11.775 -0.5786  0.2987 -0.0217
   21bbb    H13  600   7.044   4.368  11.724  0.7994 -0.0447  0.3502
   21bbb    H14  601   7.149   4.468  11.828 -1.7969  1.7010  2.2729
   21bbb     C8  602   6.463   4.444  11.547  0.0418  0.0406  0.4082
   21bbb    H15  603   6.421   4.354  11.500  0.5350  0.3866 -0.7433
   21bbb    H16  604   6.531   4.480  11.469  1.1323  1.0866  1.7974
   21bbb     C9  605   6.503   4.298  12.150 -0.4763  0.0759  0.7107
   21bbb    H17  606   6.597   4.303  12.206 -0.4320 -1.6805  0.8559
   21bbb    H18  607   6.510   4.204  12.093  2.2526 -0.3557  1.5989
   21bbb     O1  608   7.053   4.581  11.687 -0.2898  0.1224 -0.1162
   22bbb     N1  609   6.819   4.624  10.461 -0.3553  0.3089  0.3729
   22bbb     C1  610   6.886   4.515  10.376 -0.1255 -0.4981 -0.1424
   22bbb     H1  611   6.957   4.458  10.438 -2.4583 -1.8331  1.4542
   22bbb     H2  612   6.929   4.555  10.283 -0.2136  1.4593  0.6282
   22bbb     C2  613   6.712   4.708  10.391  0.5479  0.7273  0.0241
   22bbb     H3  614   6.678   4.792  10.454 -0.9123  0.4230 -0.3217
   22bbb     H4  615   6.630   4.646  10.354 -0.2418  0.0638  2.6207
   22bbb     C3  616   6.772   4.573  10.592 -0.2478  0.2824 -0.4808
   22bbb     H5  617   6.697   4.495  10.576  0.6307 -0.5609 -0.5579
   22bbb     H6  618   6.716   4.656  10.638  0.0755  0.9920 -1.3378
   22bbb     C4  619   6.891   4.538  10.680 -0.0177 -0.5205  0.0620
   22bbb     H7  620   6.959   4.623  10.693 -1.2658  0.8434 -1.7966
   22bbb     H8  621   6.959   4.460  10.644  0.7947  0.8939 -1.6304
   22bbb     C5  622   6.786   4.409  10.319 -0.3820  0.0174 -0.2663
   22bbb     H9  623   6.715   4.465  10.257  0.1357  0.3086 -0.6044
   22bbb    H10  624   6.735   4.367  10.407  0.8848  1.2857  1.1150
   22bbb     C6  625   6.771   4.781  10.269  0.5884  0.1547 -0.2000
   22bbb    H11  626   6.808   4.722  10.185 -2.3194 -0.0096 -1.4743
   22bbb    H12  627   6.852   4.848  10.302 -1.8631  2.7084  1.1341
   22bbb     C7  628   6.843   4.489  10.824 -0.2970 -0.1985 -0.7802
   22bbb    H13  629   6.829   4.380  10.824  0.3214 -0.2825 -0.5069
   22bbb    H14  630   6.749   4.532  10.860  1.4313  0.4923  3.5532
   22bbb     C8  631   6.664   4.887  10.222  0.0004 -0.1607 -0.3214
   22bbb    H15  632   6.712   4.939  10.139 -1.2111  2.1339  0.3349
   22bbb    H16  633   6.637   4.962  10.297 -2.1613 -1.0275 -0.1487
   22bbb     C9  634   6.851   4.295  10.238  0.0124 -0.2751 -0.3537
   22bbb    H17  635   6.907   4.342  10.156 -0.2558  1.8902  0.6258
   22bbb    H18  636   6.767   4.241  10.193  1.6909 -0.9703 -2.8871
   22bbb     O1  637   6.941   4.524  10.925 -0.0874 -0.1363  0.1787
   23bbb     N1  638   8.558   5.974  13.053 -0.4268 -1.1140  0.5693
   23bbb     C1  639   8.626   5.912  13.173  0.0965 -0.3758  0.2206
   23bbb     H1  640   8.611   5.804  13.167 -0.4881 -0.4843  2.4839
   23bbb     H2  641   8.579   5.941  13.268 -2.7641 -2.1159 -0.5396
   23bbb     C2  642   8.537   6.119  13.070 -0.8600 -0.1126 -0.3623
   23bbb     H3  643   8.487   6.157  12.980 -1.8047 -2.2610 -0.8116
   23bbb     H4  644   8.629   6.176  13.087 -0.6812 -0.1156 -1.3027
   23bbb     C3  645   8.443   5.891  13.023  0.1558  1.0781  0.0170
   23bbb     H5  646   8.382   5.889  13.114  0.6134 -0.1737  0.3171
   23bbb     H6  647   8.482   5.790  13.003 -1.9315 -0.0236  1.1762
   23bbb     C4  648   8.360   5.933  12.894  0.0039 -0.5880 -0.0727
   23bbb     H7  649   8.421   5.964  12.808  0.2827  1.7244  0.8995
   23bbb     H8  650   8.296   6.016  12.927 -1.6248 -1.1800 -1.5904
   23bbb     C5  651   8.777   5.947  13.183 -0.0514  1.0896 -0.3231
   23bbb     H9  652   8.785   6.056  13.183 -0.4343  1.1225 -0.6451
   23bbb    H10  653   8.837   5.913  13.097  2.3185  1.4102  1.1320
   23bbb     C6  654   8.450   6.161  13.185 -0.1084  0.2487  0.3785
   23bbb    H11  655   8.504   6.141  13.279 -2.1475 -1.5634  1.2338
   23bbb    H12  656   8.360   6.099  13.183 -0.5443  0.8934 -1.1363
   23bbb     C7  657   8.277   5.808  12.860  0.8880 -0.3955  0.0987
   23bbb    H13  658   8.241   5.772  12.957  1.5032 -0.6764  0.2268
   23bbb    H14  659   8.336   5.726  12.818  1.9814 -0.5115  1.7739
   23bbb     C8  660   8.401   6.305  13.166  0.3125  0.4337 -0.9151
   23bbb    H15  661   8.313   6.312  13.232  0.0966  0.0695 -1.1623
   23bbb    H16  662   8.352   6.321  13.069  0.3381 -0.5151 -1.0907
   23bbb     C9  663   8.844   5.883  13.308  0.5696  0.5724  0.4465
   23bbb    H17  664   8.787   5.904  13.399  2.0766  1.4034  1.2436
   23bbb    H18  665   8.939   5.937  13.319  1.2994 -0.5445 -0.1236
   23bbb     O1  666   8.175   5.847  12.769 -0.3619 -0.5473  0.2090
   24bbb     N1  667   7.072   5.682  13.306 -0.0780  0.1907  0.1179
   24bbb     C1  668   7.170   5.637  13.409  0.6255 -0.9446 -0.1491
   24bbb     H1  669   7.117   5.636  13.505 -1.7048 -0.6890 -1.3450
   24bbb     H2  670   7.252   5.708  13.422 -1.4668  1.5647  0.3049
   24bbb     C2  671   7.019   5.818  13.335 -0.7423 -0.3119 -0.0870
   24bbb     H3  672   6.950   5.854  13.258 -0.2593 -1.3930 -1.0483
   24bbb     H4  673   7.100   5.891  13.349 -0.5206 -0.0515 -2.4048
   24bbb     C3  674   7.131   5.670  13.167  0.0817  0.3294  0.7916
   24bbb     H5  675   7.054   5.712  13.102 -1.8005  0.3617  2.8989
   24bbb     H6  676   7.147   5.565  13.139  1.1878  0.2635  1.6053
   24bbb     C4  677   7.253   5.755  13.156 -0.1116  0.1688 -0.5314
   24bbb     H7  678   7.333   5.727  13.226 -1.1965 -1.5008  0.0941
   24bbb     H8  679   7.233   5.860  13.181  3.4945  0.8648 -0.0257
   24bbb     C5  680   7.237   5.503  13.380  0.3970  0.1696  0.1181
   24bbb     H9  681   7.316   5.511  13.304 -1.1163 -1.2466 -1.7159
   24bbb    H10  682   7.158   5.444  13.332  1.5546  0.2224 -2.0178
   24bbb     C6  683   6.935   5.833  13.465 -0.1437  0.9950 -0.1929
   24bbb    H11  684   6.906   5.937  13.482  1.4351  1.6140 -1.0927
   24bbb    H12  685   7.003   5.819  13.550  1.9685  0.6177 -1.8574
   24bbb     C7  686   7.311   5.750  13.014 -0.6220  0.0640 -0.2028
   24bbb    H13  687   7.242   5.784  12.936 -0.2713  1.0206 -0.1104
   24bbb    H14  688   7.353   5.651  12.993  1.4302  0.4265  1.8516
   24bbb     C8  689   6.818   5.738  13.471  0.3117 -0.3519 -0.2923
   24bbb    H15  690   6.853   5.649  13.418  0.6924 -0.5115  0.2202
   24bbb    H16  691   6.741   5.777  13.403  0.7594 -0.8533 -1.0993
   24bbb     C9  692   7.281   5.417  13.510 -0.0139 -0.5690 -0.2768
   24bbb    H17  693   7.317   5.319  13.476 -1.2893 -1.6793  1.4532
   24bbb    H18  694   7.197   5.405  13.579  0.1893 -1.6826 -0.2040
   24bbb     O1  695   7.417   5.842  13.003 -0.4844 -0.6243 -0.3756
   25bbb     N1  696   7.654   6.640  11.184  0.0726 -0.1033  0.2201
   25bbb     C1  697   7.790   6.698  11.219 -0.4821  0.0057 -0.1393
   25bbb     H1  698   7.823   6.682  11.322 -1.5250 -0.3804  0.1421
   25bbb     H2  699   7.793   6.808  11.215  3.6275  0.0513 -0.3283
   25bbb     C2  700   7.623   6.637  11.037 -0.0327 -0.3782 -0.8821
   25bbb     H3  701   7.524   6.592  11.026  0.4695 -1.4909 -1.0367
   25bbb     H4  702   7.684   6.561  10.986  0.4272  0.2859 -1.3335
   25bbb     C3  703   7.621   6.509  11.251 -0.3652 -0.7004 -0.1747
   25bbb     H5  704   7.650   6.522  11.356 -1.5503 -1.4621  0.2684
   25bbb     H6  705   7.681   6.428  11.208 -0.1071 -0.4121 -0.3722
   25bbb     C4  706   7.473   6.485  11.248  0.0751  0.6666  0.2638
   25bbb     H7  707   7.435   6.462  11.148  1.0656 -0.3856  0.1101
   25bbb     H8  708   7.413   6.568  11.288 -1.2108  0.1442 -0.5214
   25bbb     C5  709   7.899   6.648  11.124 -0.0200 -0.3017  0.0833
   25bbb     H9  710   7.877   6.658  11.017 -0.5175 -0.4258  0.1724
   25bbb    H10  711   7.910   6.540  11.138  0.3319 -0.1745  0.8710
   25bbb     C6  712   7.612   6.777  10.983 -0.1739  0.3132  0.5192
   25bbb    H11  713   7.707   6.833  10.982 -0.3972  0.7162  1.1912
   25bbb    H12  714   7.563   6.837  11.061  1.2219  0.6440  1.1886
   25bbb     C7  715   7.431   6.353  11.322 -0.0435 -0.3455 -0.5564
   25bbb    H13  716   7.518   6.288  11.306 -1.5562 -2.1160 -2.0441
   25bbb    H14  717   7.348   6.304  11.269  1.0185 -3.1589  0.2301
   25bbb     C8  718   7.535   6.789  10.856 -0.1824 -0.3162  1.2395
   25bbb    H15  719   7.519   6.896  10.839 -0.6781 -0.6977 -1.0844
   25bbb    H16  720   7.439   6.737  10.849  0.4379 -2.0016  3.8835
   25bbb     C9  721   8.039   6.716  11.146  0.1383 -0.3260  0.3133
   25bbb    H17  722   8.036   6.825  11.135  1.2213 -0.3225 -0.1206
   25bbb    H18  723   8.106   6.679  11.067 -0.8110 -2.6981  0.5605
   25bbb     O1  724   7.393   6.386  11.461  0.6426  0.6305 -0.1171
   26bbb     N1  725   7.077   6.994  11.661  0.1027 -0.1441 -0.2698
   26bbb     C1  726   6.950   7.027  11.734  0.3851  0.8364  0.0410
   26bbb     H1  727   6.869   7.052  11.664  1.1868 -0.2131 -1.3028
   26bbb     H2  728   6.961   7.114  11.799  1.3060 -0.3742  1.5681
   26bbb     C2  729   7.054   6.921  11.536 -0.0204 -0.2957 -0.3873
   26bbb     H3  730   7.020   6.984  11.452  1.5152 -0.3017 -1.0455
   26bbb     H4  731   6.974   6.851  11.561 -0.6314  0.7897  0.8248
   26bbb     C3  732   7.162   7.117  11.630 -0.4473  0.8941  0.1267
   26bbb     H5  733   7.101   7.195  11.583  1.1206  1.6616 -0.7546
   26bbb     H6  734   7.243   7.089  11.561  1.6568 -0.4340  2.9201
   26bbb     C4  735   7.233   7.182  11.746 -0.2436  0.4100 -0.1786
   26bbb     H7  736   7.152   7.211  11.814 -2.7202 -3.7824 -1.0007
   26bbb     H8  737   7.279   7.275  11.711 -3.0420  1.6621 -0.8134
   26bbb     C5  738   6.897   6.904  11.825  0.0994 -1.0079 -0.0601
   26bbb     H9  739   6.951   6.907  11.920  0.9368 -0.7806 -0.5346
   26bbb    H10  740   6.908   6.803  11.784 -0.7580 -0.7317 -1.0298
   26bbb     C6  741   7.173   6.832  11.480  0.4321 -0.4603 -0.0440
   26bbb    H11  742   7.200   6.756  11.554 -1.4603 -1.2885 -0.1490
   26bbb    H12  743   7.259   6.900  11.473 -0.2006  0.1731 -2.2676
   26bbb     C7  744   7.344   7.101  11.813  0.6387 -0.0835 -0.3923
   26bbb    H13  745   7.411   7.173  11.862 -1.7752  0.3547  2.5326
   26bbb    H14  746   7.400   7.033  11.747 -0.8225 -1.9584  0.1940
   26bbb     C8  747   7.151   6.762  11.342 -0.1744  1.0741 -0.1369
   26bbb    H15  748   7.251   6.729  11.313 -1.1673  0.3783 -3.0849
   26bbb    H16  749   7.128   6.841  11.269 -0.1566  0.3239 -0.9699
   26bbb     C9  750   6.750   6.932  11.860 -0.1713  0.2448  0.2365
   26bbb    H17  751   6.702   6.834  11.875  0.3462  0.1211  1.1462
   26bbb    H18  752   6.696   6.969  11.772 -3.9906  0.5391  2.4941
   26bbb     O1  753   7.288   7.023  11.918  0.0234 -0.0176 -0.5932
   27bbb     N1  754   9.258   4.719   9.985 -0.0203  0.5302  0.5760
   27bbb     C1  755   9.254   4.602  10.073 -0.5920 -0.2830 -0.0106
   27bbb     H1  756   9.353   4.561  10.096 -0.5858 -0.0806  0.3354
   27bbb     H2  757   9.195   4.516  10.040 -0.2486 -0.5950  0.1883
   27bbb     C2  758   9.250   4.678   9.844  0.1034  0.7576 -0.2304
   27bbb     H3  759   9.309   4.586   9.833  1.2648  1.4099  0.3279
   27bbb     H4  760   9.286   4.756   9.776 -1.1468  0.5091 -1.1998
   27bbb     C3  761   9.372   4.814  10.011  0.6302  0.5095 -0.4031
   27bbb     H5  762   9.458   4.779   9.952  1.6971  2.3072  0.0233
   27bbb     H6  763   9.402   4.817  10.116  1.4442 -1.4514 -0.5416
   27bbb     C4  764   9.349   4.955   9.965  0.4771 -0.0856  1.0354
   27bbb     H7  765   9.327   4.962   9.858 -2.1200 -1.5388  1.3796
   27bbb     H8  766   9.434   5.022   9.978 -0.7366  1.7280  0.0385
   27bbb     C5  767   9.188   4.641  10.207 -0.0544 -1.2262  0.6438
   27bbb     H9  768   9.114   4.720  10.193  1.6051  0.4283  0.8566
   27bbb    H10  769   9.272   4.693  10.255  1.6406  0.4923 -3.6950
   27bbb     C6  770   9.110   4.646   9.791  0.4300 -0.0964 -0.3857
   27bbb    H11  771   9.045   4.734   9.798 -0.9548 -0.9992 -1.3970
   27bbb    H12  772   9.074   4.562   9.851 -0.5502  1.6702  1.6549
   27bbb     C7  773   9.232   5.025  10.033 -0.6545  0.6935  0.0211
   27bbb    H13  774   9.144   4.975   9.989  0.1082 -0.6207 -0.0637
   27bbb    H14  775   9.234   5.132  10.013  1.7498  0.1852 -3.3695
   27bbb     C8  776   9.104   4.598   9.644 -0.5650 -0.3580  0.8948
   27bbb    H15  777   9.139   4.683   9.584 -0.4513 -0.0888  1.3327
   27bbb    H16  778   9.000   4.591   9.610 -0.2983  2.0844 -0.7072
   27bbb     C9  779   9.131   4.532  10.294  0.0669 -0.3958  0.2092
   27bbb    H17  780   9.221   4.476  10.322  1.2691  0.8086 -1.0888
   27bbb    H18  781   9.058   4.463  10.250  1.7441 -0.6692 -2.3436
   27bbb     O1  782   9.249   4.998  10.171  0.1096 -0.1371  0.4868
   28bbb     N1  783   9.538   4.864  11.379 -0.2109  0.2407  0.2423
   28bbb     C1  784   9.408   4.786  11.395 -0.7679  0.4429  0.4312
   28bbb     H1  785   9.384   4.726  11.307  2.7682 -3.3868  1.7226
   28bbb     H2  786   9.334   4.867  11.387 -1.3579 -0.0275  1.0228
   28bbb     C2  787   9.576   4.935  11.503  0.0974  0.4462  0.0741
   28bbb     H3  788   9.597   4.856  11.576 -0.9316 -0.0346 -0.1229
   28bbb     H4  789   9.489   4.994  11.534  0.1023 -0.3131  1.6196
   28bbb     C3  790   9.536   4.941  11.247 -0.1668  0.1608  0.9343
   28bbb     H5  791   9.638   4.978  11.233 -0.1094 -0.2591  0.1803
   28bbb     H6  792   9.467   5.026  11.249  0.8180  0.9680  1.0781
   28bbb     C4  793   9.534   4.843  11.128 -0.2116 -0.1050  0.0992
   28bbb     H7  794   9.446   4.778  11.132  1.1902 -2.0188  2.4761
   28bbb     H8  795   9.610   4.764  11.136 -0.2491 -0.0736  0.9137
   28bbb     C5  796   9.388   4.703  11.527 -1.0474  0.2890 -0.0202
   28bbb     H9  797   9.282   4.679  11.540 -0.6324 -1.0560  0.9931
   28bbb    H10  798   9.405   4.768  11.614  1.6067  0.6674 -0.7076
   28bbb     C6  799   9.702   5.026  11.486  1.4152 -0.2141 -0.5932
   28bbb    H11  800   9.671   5.111  11.424 -2.4348 -1.3776 -0.5238
   28bbb    H12  801   9.786   4.974  11.437  2.0074 -0.0211  0.2014
   28bbb     C7  802   9.549   4.922  10.998  0.0260  0.1715  0.0277
   28bbb    H13  803   9.581   4.851  10.921 -0.3884  0.3236 -0.2898
   28bbb    H14  804   9.621   5.004  11.008  0.6239 -0.0452 -2.1408
   28bbb     C8  805   9.749   5.070  11.635 -0.8563 -0.8831 -0.2139
   28bbb    H15  806   9.771   4.979  11.692 -2.5014 -1.0301  0.2499
   28bbb    H16  807   9.666   5.124  11.683  0.4896  2.5880 -1.5390
   28bbb     C9  808   9.461   4.567  11.521 -0.2716 -0.4173 -0.0945
   28bbb    H17  809   9.562   4.558  11.564 -0.5506 -3.4160  0.1919
   28bbb    H18  810   9.409   4.496  11.586  0.4212 -1.2258 -0.3897
   28bbb     O1  811   9.416   4.978  10.954 -0.1147 -0.0192  0.1895
   29bbb     N1  812   8.534   6.152  10.173  0.3073  0.4930 -0.5025
   29bbb     C1  813   8.451   6.041  10.112 -0.4224  1.2403  0.4114
   29bbb     H1  814   8.519   5.974  10.058 -2.1288  0.6207 -1.0785
   29bbb     H2  815   8.394   6.084  10.029 -1.2689 -0.1859  0.2200
   29bbb     C2  816   8.454   6.263  10.231  0.1867 -0.0023 -0.5355
   29bbb     H3  817   8.523   6.346  10.253 -1.7535  1.6805 -0.4170
   29bbb     H4  818   8.399   6.221  10.316 -1.5346 -0.6652 -1.9226
   29bbb     C3  819   8.640   6.115  10.267  0.5272  0.0718  0.8414
   29bbb     H5  820   8.599   6.083  10.364  2.7972 -0.7016  1.6018
   29bbb     H6  821   8.701   6.204  10.287 -1.9150  2.0323  0.1782
   29bbb     C4  822   8.734   6.005  10.222  0.1378 -0.0363  0.2372
   29bbb     H7  823   8.798   6.033  10.137 -1.1172  1.6011 -0.2135
   29bbb     H8  824   8.683   5.913  10.194 -3.7388  2.0915 -0.2948
   29bbb     C5  825   8.370   5.954  10.214 -0.4143 -0.0102 -0.6287
   29bbb     H9  826   8.284   6.010  10.249  0.1843  1.9095 -2.0854
   29bbb    H10  827   8.431   5.933  10.303 -0.9519  0.8403 -0.0496
   29bbb     C6  828   8.333   6.326  10.146 -0.5204 -0.3365  1.0410
   29bbb    H11  829   8.252   6.253  10.139  1.2093 -2.2694  0.0748
   29bbb    H12  830   8.363   6.333  10.041 -2.1742 -0.6651  0.5316
   29bbb     C7  831   8.822   5.951  10.331 -0.6631  0.4044 -0.3520
   29bbb    H13  832   8.894   5.885  10.281  0.7896  1.5899  0.0835
   29bbb    H14  833   8.765   5.895  10.406 -0.2415  2.1000  1.3299
   29bbb     C8  834   8.280   6.461  10.197  1.1759  0.2508 -1.2622
   29bbb    H15  835   8.254   6.444  10.303 -0.0749  0.8769 -1.4473
   29bbb    H16  836   8.190   6.484  10.138  0.9494 -2.3000 -2.0175
   29bbb     C9  837   8.316   5.831  10.140  0.0580 -0.5895  0.6096
   29bbb    H17  838   8.284   5.872  10.044  0.1458  0.4207  1.0024
   29bbb    H18  839   8.226   5.785  10.184 -0.8321 -1.5718 -2.0608
   29bbb     O1  840   8.886   6.054  10.410 -0.6626  0.0083  0.8243
   30bbb     N1  841   9.593   6.843  10.790  0.5490 -0.5851  0.0123
   30bbb     C1  842   9.734   6.884  10.797 -0.1582 -0.0685  0.0505
   30bbb     H1  843   9.773   6.903  10.696  0.0424 -1.7153 -0.2172
   30bbb     H2  844   9.792   6.797  10.832 -0.3303 -0.2738 -0.1738
   30bbb     C2  845   9.487   6.948  10.767 -0.2749 -0.4429  0.3208
   30bbb     H3  846   9.493   6.997  10.669 -2.7216 -1.1020 -0.2225
   30bbb     H4  847   9.484   7.011  10.856  0.2453 -2.3755  1.7748
   30bbb     C3  848   9.575   6.710  10.718  0.0287  0.1197 -0.9460
   30bbb     H5  849   9.473   6.671  10.727 -0.6205  2.1033  1.0895
   30bbb     H6  850   9.637   6.631  10.764 -0.4823 -0.5215 -1.3320
   30bbb     C4  851   9.620   6.720  10.569 -0.0741  0.5361 -0.2022
   30bbb     H7  852   9.727   6.703  10.556  0.2496  0.9023  1.6857
   30bbb     H8  853   9.613   6.822  10.528  0.7471  1.6096  2.1848
   30bbb     C5  854   9.776   6.989  10.898  0.0805 -0.1486 -0.5468
   30bbb     H9  855   9.722   7.079  10.866  0.2098 -0.9190 -3.1924
   30bbb    H10  856   9.883   7.007  10.885  0.0019  0.1769 -0.7541
   30bbb     C6  857   9.344   6.882  10.766 -0.4267 -0.9737 -0.1696
   30bbb    H11  858   9.318   6.816  10.682 -3.0641 -0.7498  0.3780
   30bbb    H12  859   9.278   6.967  10.750  0.9987  0.7673  2.4832
   30bbb     C7  860   9.528   6.620  10.492  0.9268  0.2615 -0.4613
   30bbb    H13  861   9.548   6.615  10.384 -0.0537 -2.1695 -0.5885
   30bbb    H14  862   9.423   6.651  10.497  1.4185  2.0906 -0.6762
   30bbb     C8  863   9.308   6.819  10.892 -1.0112 -0.1269  0.3190
   30bbb    H15  864   9.351   6.866  10.981 -2.1977  1.2351  0.2091
   30bbb    H16  865   9.352   6.719  10.904  0.4501  0.3853 -0.6070
   30bbb     C9  866   9.764   6.937  11.045  0.0171 -0.2189  0.4095
   30bbb    H17  867   9.658   6.917  11.063 -0.3945 -1.0400 -2.4894
   30bbb    H18  868   9.798   7.019  11.110  0.1292  0.5688 -0.6206
   30bbb     O1  869   9.545   6.491  10.547  0.0355  0.2708 -0.2384
   31bbb     N1  870   6.344   4.476  12.758  0.4732  0.0428  0.0961
   31bbb     C1  871   6.263   4.543  12.869 -0.3432  0.3761 -0.2589
   31bbb     H1  872   6.158   4.518  12.847 -1.0622  3.5813 -1.0577
   31bbb     H2  873   6.262   4.652  12.853 -1.2050  0.1011 -2.3879
   31bbb     C2  874   6.294   4.341  12.723  0.0013  0.4269 -0.0571
   31bbb     H3  875   6.282   4.279  12.813 -1.3536 -0.8025 -1.0321
   31bbb     H4  876   6.367   4.292  12.659 -0.0719  0.8861 -0.4978
   31bbb     C3  877   6.369   4.567  12.645 -0.6325  0.1845  0.0859
   31bbb     H5  878   6.415   4.657  12.688 -1.6009  0.2196  1.1080
   31bbb     H6  879   6.269   4.602  12.615 -0.9152 -0.5793  0.1022
   31bbb     C4  880   6.456   4.510  12.531  0.3031 -0.0303 -0.2131
   31bbb     H7  881   6.466   4.589  12.456 -1.2176  0.1158 -0.2898
   31bbb     H8  882   6.394   4.430  12.488 -0.3949  0.4842 -0.1786
   31bbb     C5  883   6.317   4.499  13.011  0.5936 -0.2609  0.4872
   31bbb     H9  884   6.329   4.391  13.001 -2.8755 -0.5849 -1.7063
   31bbb    H10  885   6.242   4.518  13.089  0.5948  0.5064  0.3118
   31bbb     C6  886   6.165   4.329  12.653  0.2818  0.8408 -0.4480
   31bbb    H11  887   6.174   4.388  12.561 -2.0633  0.8419 -0.7304
   31bbb    H12  888   6.087   4.370  12.718  1.2833 -1.0405  2.1140
   31bbb     C7  889   6.595   4.446  12.572  0.6425  0.4157 -0.1333
   31bbb    H13  890   6.571   4.339  12.567  3.0376 -0.1286 -3.4463
   31bbb    H14  891   6.633   4.478  12.670  0.1467  1.5406 -0.3013
   31bbb     C8  892   6.140   4.178  12.620  0.2701 -0.3511 -0.0152
   31bbb    H15  893   6.230   4.137  12.575 -0.6824 -1.5390 -0.8873
   31bbb    H16  894   6.060   4.159  12.548  1.3634 -3.2546 -0.5850
   31bbb     C9  895   6.444   4.577  13.055  0.0160  0.4241  0.7503
   31bbb    H17  896   6.440   4.684  13.032 -0.4383  0.0708 -0.9537
   31bbb    H18  897   6.522   4.538  12.989 -1.2690 -1.3831  0.2128
   31bbb     O1  898   6.690   4.462  12.461  0.2885 -0.4362  0.5659
   32bbb     N1  899   6.595   3.721  12.050 -0.2605  0.0538  0.0392
   32bbb     C1  900   6.620   3.631  11.934  0.2432  0.1439  0.2882
   32bbb     H1  901   6.657   3.680  11.844  1.1115 -2.7064 -1.0387
   32bbb     H2  902   6.527   3.597  11.888  1.4611 -0.9876 -1.4411
   32bbb     C2  903   6.509   3.829  12.016  0.0998 -0.0453  0.3018
   32bbb     H3  904   6.477   3.876  12.110  0.1713 -0.7732  0.6952
   32bbb     H4  905   6.420   3.794  11.962  0.4003  1.0477 -0.9482
   32bbb     C3  906   6.548   3.649  12.171 -1.0673 -0.8474 -0.0234
   32bbb     H5  907   6.609   3.560  12.189 -1.2691 -0.3589  4.0105
   32bbb     H6  908   6.449   3.605  12.153 -2.8340  2.1131  1.5854
   32bbb     C4  909   6.546   3.726  12.305  0.3891 -0.1447 -0.0745
   32bbb     H7  910   6.524   3.660  12.390 -0.0010 -1.8627 -1.4481
   32bbb     H8  911   6.477   3.811  12.311  2.0051  1.1885  0.2880
   32bbb     C5  912   6.709   3.512  11.959  0.3501  0.0394  0.7142
   32bbb     H9  913   6.725   3.464  11.861  0.6535 -2.2980  1.8312
   32bbb    H10  914   6.658   3.436  12.019 -1.2298 -0.0206 -0.6279
   32bbb     C6  915   6.577   3.939  11.934  0.1702  1.0641  0.2630
   32bbb    H11  916   6.505   4.021  11.933 -0.2560  0.7153  1.2936
   32bbb    H12  917   6.583   3.902  11.831  0.2645  1.3082  0.1819
   32bbb     C7  918   6.685   3.784  12.343 -0.0694 -0.6816  0.6407
   32bbb    H13  919   6.735   3.809  12.249  2.2288  2.7148  2.5557
   32bbb    H14  920   6.743   3.715  12.405  0.7962  0.2565  0.8984
   32bbb     C8  921   6.712   3.969  11.996 -0.6800 -0.7004  0.3630
   32bbb    H15  922   6.766   3.877  12.024  0.8133 -0.5631 -1.8445
   32bbb    H16  923   6.699   4.028  12.088 -1.1868 -1.1386  0.5801
   32bbb     C9  924   6.852   3.553  12.018  0.2055 -0.3567 -0.1881
   32bbb    H17  925   6.843   3.630  12.095 -1.0214 -2.9535  2.4615
   32bbb    H18  926   6.901   3.599  11.931  0.8819  1.8935  1.2956
   32bbb     O1  927   6.668   3.897  12.432 -0.3032  0.5240  0.0260
   33bbb     N1  928   5.862   5.156  11.702 -0.1087  0.0599  0.3000
   33bbb     C1  929   5.764   5.085  11.616 -0.0120  0.0227 -0.9463
   33bbb     H1  930   5.824   5.025  11.547  0.5420  0.9179 -1.2705
   33bbb     H2  931   5.715   5.158  11.551 -1.7210  1.0127  1.3225
   33bbb     C2  932   5.795   5.257  11.797 -0.0619  0.4170 -0.5754
   33bbb     H3  933   5.871   5.312  11.854  0.1150 -0.7589  0.3795
   33bbb     H4  934   5.744   5.201  11.877  0.9579  0.4646  0.1331
   33bbb     C3  935   5.975   5.073  11.766  0.0493  0.1872 -0.3868
   33bbb     H5  936   6.021   5.003  11.695  2.6236  0.6228  0.7530
   33bbb     H6  937   5.942   5.012  11.851  1.0928 -0.8750 -0.7036
   33bbb     C4  938   6.086   5.161  11.831  0.7580  0.6606  0.2081
   33bbb     H7  939   6.059   5.184  11.935  0.5818 -1.3849  0.6376
   33bbb     H8  940   6.091   5.256  11.776 -1.7136  0.0634 -1.1762
   33bbb     C5  941   5.667   4.995  11.697  0.3942  0.3200 -0.2659
   33bbb     H9  942   5.607   5.044  11.775 -1.3727  0.6538 -1.7691
   33bbb    H10  943   5.729   4.916  11.742  1.0320  0.9499 -0.0175
   33bbb     C6  944   5.696   5.360  11.728  0.4353  0.3831  0.1283
   33bbb    H11  945   5.597   5.312  11.719  0.1459  1.1210 -0.7554
   33bbb    H12  946   5.728   5.381  11.625  4.1488 -1.7166  0.7016
   33bbb     C7  947   6.222   5.085  11.832  0.1367 -0.0240 -0.1030
   33bbb    H13  948   6.223   4.993  11.892  1.6360 -1.2223 -1.8245
   33bbb    H14  949   6.299   5.146  11.881  0.1690 -1.9759  2.4760
   33bbb     C8  950   5.698   5.500  11.797  0.0171 -0.3798 -0.2736
   33bbb    H15  951   5.796   5.549  11.790 -0.3010  0.1981 -0.7563
   33bbb    H16  952   5.665   5.520  11.900 -0.5818  2.8212 -0.9752
   33bbb     C9  953   5.571   4.916  11.604  0.1991 -0.0294  0.0285
   33bbb    H17  954   5.616   4.871  11.515 -1.4647  0.3682 -1.0699
   33bbb    H18  955   5.491   4.981  11.566 -0.8251 -1.1252  0.2581
   33bbb     O1  956   6.256   5.067  11.697 -0.6425  0.1533 -0.0611
   34bbb     N1  957   6.510   4.959  10.700 -0.1864 -0.1846  0.6191
   34bbb     C1  958   6.444   4.835  10.646 -0.1145  0.3437  0.5562
   34bbb     H1  959   6.359   4.811  10.712 -0.1189 -1.8264 -0.1401
   34bbb     H2  960   6.509   4.747  10.646 -0.8080 -0.1871 -0.0617
   34bbb     C2  961   6.617   5.023  10.620  1.1691  0.5801 -0.0234
   34bbb     H3  962   6.578   5.030  10.518 -0.5092  2.4132  0.6905
   34bbb     H4  963   6.701   4.952  10.612  0.3280 -0.5438  0.8403
   34bbb     C3  964   6.540   4.944  10.845 -1.4467 -0.5440  0.1413
   34bbb     H5  965   6.450   4.907  10.897 -1.8032 -0.4458 -0.4038
   34bbb     H6  966   6.566   5.039  10.893 -0.3787 -0.0465 -1.3461
   34bbb     C4  967   6.653   4.850  10.876  0.6367  1.3192 -0.1153
   34bbb     H7  968   6.742   4.880  10.820  0.7579  0.2917 -0.4894
   34bbb     H8  969   6.624   4.748  10.849 -0.5054  0.9923  2.0967
   34bbb     C5  970   6.379   4.848  10.511 -0.7484  0.1652  0.3737
   34bbb     H9  971   6.439   4.903  10.438  0.7842  0.8368  2.0425
   34bbb    H10  972   6.292   4.914  10.520  1.4976  4.0683 -3.1379
   34bbb     C6  973   6.654   5.162  10.667  0.1644 -0.0598  0.5313
   34bbb    H11  974   6.675   5.164  10.775  0.8074  0.0102  0.4127
   34bbb    H12  975   6.563   5.221  10.653  0.3243  0.0674 -0.0029
   34bbb     C7  976   6.688   4.862  11.029 -0.2305 -0.5639 -0.3754
   34bbb    H13  977   6.751   4.780  11.066  1.5055  1.0472  0.4217
   34bbb    H14  978   6.597   4.851  11.090  0.2690  2.9134  1.2672
   34bbb     C8  979   6.780   5.219  10.602 -0.2903 -0.0531 -0.1755
   34bbb    H15  980   6.867   5.154  10.614  0.3300  0.3410 -2.2621
   34bbb    H16  981   6.806   5.319  10.639 -0.8342  1.2038 -2.9918
   34bbb     C9  982   6.360   4.708  10.451 -0.0580  0.6996  0.4374
   34bbb    H17  983   6.456   4.655  10.461 -0.5962 -0.1052  1.4929
   34bbb    H18  984   6.334   4.720  10.345  1.7481 -1.8018 -0.3941
   34bbb     O1  985   6.766   4.983  11.056  0.0844  0.7797  0.6239
   35bbb     N1  986   7.749   6.163  12.118 -0.5481  0.1175  0.4633
   35bbb     C1  987   7.853   6.193  12.222  0.5977 -0.4298  0.4175
   35bbb     H1  988   7.814   6.200  12.324  2.0776 -0.7893  1.0335
   35bbb     H2  989   7.891   6.295  12.212  0.4264 -0.1880  2.0002
   35bbb     C2  990   7.789   6.209  11.978  0.5423  0.5737 -0.3751
   35bbb     H3  991   7.895   6.184  11.960  0.0585 -0.3569 -2.2093
   35bbb     H4  992   7.783   6.316  11.958  1.8847  0.3283 -2.4841
   35bbb     C3  993   7.606   6.182  12.152 -0.4819  0.9512 -0.1084
   35bbb     H5  994   7.589   6.131  12.247  0.3924 -0.8453 -0.8764
   35bbb     H6  995   7.540   6.124  12.086 -0.5139  2.3173 -1.3521
   35bbb     C4  996   7.559   6.328  12.163 -0.0497  0.0293 -0.0824
   35bbb     H7  997   7.574   6.375  12.065 -2.4992 -0.9661 -1.0241
   35bbb     H8  998   7.612   6.374  12.247  2.8956 -2.9087 -0.1114
   35bbb     C5  999   7.960   6.086  12.220 -0.3232  0.5710  0.2447
   35bbb     H9 1000   8.014   6.091  12.125  0.5781  0.2912  0.7345
   35bbb    H10 1001   7.913   5.988  12.236  0.4909  0.4028  1.7920
   35bbb     C6 1002   7.707   6.134  11.862 -0.1630 -0.2239 -0.8916
   35bbb    H11 1003   7.599   6.150  11.879 -0.3393 -1.3823 -0.8702
   35bbb    H12 1004   7.728   6.027  11.864  1.1169  0.0219 -0.1669
   35bbb     C7 1005   7.410   6.335  12.210  0.7573 -0.3638  0.0006
   35bbb    H13 1006   7.351   6.295  12.126 -0.2845  1.7434 -0.3361
   35bbb    H14 1007   7.385   6.441  12.219  1.2024 -0.3764  1.5976
   35bbb     C8 1008   7.754   6.178  11.724 -0.3101 -0.2370  0.0155
   35bbb    H15 1009   7.688   6.131  11.650 -1.8800 -1.2541  1.9618
   35bbb    H16 1010   7.855   6.137  11.717 -0.0841  0.5325 -1.6153
   35bbb     C9 1011   8.065   6.093  12.333  0.3862 -0.0382  0.1685
   35bbb    H17 1012   8.014   6.090  12.430  1.5525  1.1439  0.8544
   35bbb    H18 1013   8.130   6.181  12.328  2.9498 -1.6420  2.4182
   35bbb     O1 1014   7.387   6.261  12.336 -0.3932 -0.4413  0.3458
   36bbb     N1 1015   7.558   6.026  13.394  0.0442  0.2885 -0.7199
   36bbb     C1 1016   7.670   5.928  13.424  1.0642  0.1710 -0.5457
   36bbb     H1 1017   7.664   5.916  13.533  0.2357  0.6102 -0.5338
   36bbb     H2 1018   7.767   5.977  13.414  0.6461  1.2204  0.3178
   36bbb     C2 1019   7.418   5.991  13.447  0.0125 -0.0853 -0.5566
   36bbb     H3 1020   7.374   5.905  13.395 -2.3908  0.7382  0.0143
   36bbb     H4 1021   7.359   6.083  13.436  1.3504  0.7358 -1.1531
   36bbb     C3 1022   7.559   6.070  13.246  0.2342  0.4969 -0.2370
   36bbb     H5 1023   7.509   5.996  13.182 -0.4303 -0.9098  1.7881
   36bbb     H6 1024   7.663   6.072  13.209  0.5289  0.0579  0.5280
   36bbb     C4 1025   7.508   6.213  13.229  0.7171 -1.1361 -0.1467
   36bbb     H7 1026   7.569   6.275  13.162  1.2169 -0.6276  0.7603
   36bbb     H8 1027   7.539   6.252  13.327  1.1578 -3.6831  0.8164
   36bbb     C5 1028   7.640   5.788  13.357  0.0843  0.8359  0.1260
   36bbb     H9 1029   7.533   5.781  13.336  0.2790  1.4055 -1.1454
   36bbb    H10 1030   7.657   5.702  13.423 -1.4226 -0.3557 -0.9595
   36bbb     C6 1031   7.413   5.954  13.602 -0.1948  1.0417  0.7015
   36bbb    H11 1032   7.464   6.035  13.655  0.0258  0.0869  2.0004
   36bbb    H12 1033   7.476   5.866  13.623  0.6305  1.7394  1.2432
   36bbb     C7 1034   7.357   6.226  13.200  0.1728 -0.2191  0.1704
   36bbb    H13 1035   7.327   6.314  13.259  0.4099  0.7642 -1.1378
   36bbb    H14 1036   7.304   6.137  13.237  3.0472 -1.6593  1.0894
   36bbb     C8 1037   7.283   5.911  13.657  0.7403 -0.2483 -0.4473
   36bbb    H15 1038   7.288   5.905  13.767  0.3439 -0.3303 -0.4317
   36bbb    H16 1039   7.253   5.809  13.631 -1.7615  0.0830  0.7546
   36bbb     C9 1040   7.726   5.771  13.226 -0.1391  0.1879 -0.0448
   36bbb    H17 1041   7.741   5.663  13.215  0.4227  0.5323 -4.3284
   36bbb    H18 1042   7.661   5.797  13.142 -0.1257 -1.3426 -0.5671
   36bbb     O1 1043   7.327   6.255  13.064  0.2392  0.3822 -0.0693
   37bbb     N1 1044   6.411   6.151  11.944 -0.7866 -0.0199  0.2698
   37bbb     C1 1045   6.404   6.286  11.991  0.5468 -0.5394  0.6512
   37bbb     H1 1046   6.419   6.350  11.902  0.3443 -1.9114 -0.3984
   37bbb     H2 1047   6.484   6.326  12.054  0.1148 -0.1070  0.9317
   37bbb     C2 1048   6.336   6.124  11.821  0.3602 -0.0634  0.3410
   37bbb     H3 1049   6.233   6.151  11.848  0.7096  0.3567  1.3070
   37bbb     H4 1050   6.327   6.017  11.798  1.5698  0.5782 -3.8315
   37bbb     C3 1051   6.380   6.055  12.053 -0.4101  0.5121  0.3678
   37bbb     H5 1052   6.272   6.033  12.050 -0.3934  0.4892 -0.2341
   37bbb     H6 1053   6.392   6.098  12.153 -0.7343  1.9425 -0.1826
   37bbb     C4 1054   6.437   5.917  12.041  0.2129  0.1986 -0.4816
   37bbb     H7 1055   6.547   5.920  12.040  0.3924 -1.9688  2.1119
   37bbb     H8 1056   6.402   5.869  11.949  0.8261 -0.4079 -0.4039
   37bbb     C5 1057   6.283   6.330  12.067  0.5555 -0.1000 -0.1660
   37bbb     H9 1058   6.281   6.294  12.171 -0.6519  3.3969  1.1917
   37bbb    H10 1059   6.191   6.291  12.023  1.4915 -1.0378 -1.3345
   37bbb     C6 1060   6.392   6.187  11.693  0.3209 -0.0411  0.1414
   37bbb    H11 1061   6.499   6.159  11.692  0.2819 -0.1834 -0.0275
   37bbb    H12 1062   6.368   6.293  11.703  1.1980  0.0610  1.4655
   37bbb     C7 1063   6.404   5.822  12.156  0.0490  0.7568  0.4368
   37bbb    H13 1064   6.472   5.736  12.154 -1.0482 -0.2414  2.4706
   37bbb    H14 1065   6.303   5.786  12.132  0.2587 -0.4788  1.3126
   37bbb     C8 1066   6.319   6.130  11.574 -0.9464 -0.2060 -0.3473
   37bbb    H15 1067   6.213   6.151  11.593 -1.2051 -0.0138 -1.8774
   37bbb    H16 1068   6.334   6.021  11.569 -0.7192 -0.1645 -0.6102
   37bbb     C9 1069   6.255   6.483  12.082  0.0636  0.0050 -0.0060
   37bbb    H17 1070   6.161   6.501  12.134 -1.3350  0.2703 -2.4502
   37bbb    H18 1071   6.235   6.534  11.987 -0.1337  0.4853  0.2901
   37bbb     O1 1072   6.403   5.881  12.287  0.4372  0.4697  0.1597
   38bbb     N1 1073   5.650   6.158  12.842  0.0539  0.2498 -0.5319
   38bbb     C1 1074   5.604   6.289  12.856  0.0852 -0.3105  0.2471
   38bbb     H1 1075   5.669   6.357  12.799  1.3228 -0.3886  1.4968
   38bbb     H2 1076   5.615   6.319  12.961 -1.5653  1.7217 -0.0937
   38bbb     C2 1077   5.632   6.088  12.715  0.1660  0.0863  0.6766
   38bbb     H3 1078   5.539   6.130  12.676  0.0246 -0.1775  0.7218
   38bbb     H4 1079   5.617   5.980  12.726  1.9555 -0.6930 -3.0968
   38bbb     C3 1080   5.768   6.127  12.918 -0.0462  0.0579 -0.7869
   38bbb     H5 1081   5.752   6.177  13.015 -1.8758 -1.3195 -0.3252
   38bbb     H6 1082   5.853   6.176  12.869  2.0695 -0.3767  2.1680
   38bbb     C4 1083   5.794   5.979  12.933  0.6648 -0.2556  0.4147
   38bbb     H7 1084   5.810   5.941  12.832 -0.7687  1.3544 -0.4794
   38bbb     H8 1085   5.714   5.918  12.977  0.5378  0.9635  1.9637
   38bbb     C5 1086   5.451   6.303  12.812 -0.1134 -0.0434 -0.2638
   38bbb     H9 1087   5.390   6.218  12.846  2.1527 -2.3183 -1.5309
   38bbb    H10 1088   5.436   6.311  12.704 -1.5268  2.7738  0.0512
   38bbb     C6 1089   5.744   6.113  12.614 -1.1034  0.2731  0.4157
   38bbb    H11 1090   5.824   6.042  12.641  1.0234  3.5183  3.6220
   38bbb    H12 1091   5.783   6.215  12.608 -1.7068  0.4117 -1.4484
   38bbb     C7 1092   5.915   5.946  13.014  0.2427  0.8489 -0.8184
   38bbb    H13 1093   5.924   5.840  13.039  0.4674  1.2141  0.7528
   38bbb    H14 1094   5.902   6.002  13.107 -1.5552  3.0064 -2.2471
   38bbb     C8 1095   5.713   6.087  12.468 -0.5008 -0.6273  0.0715
   38bbb    H15 1096   5.804   6.106  12.409  0.4857  1.9195  2.1872
   38bbb    H16 1097   5.657   6.176  12.437 -1.4949 -1.0338  0.6586
   38bbb     C9 1098   5.395   6.437  12.867 -0.0984 -0.3524  0.1977
   38bbb    H17 1099   5.298   6.465  12.823  0.0826 -0.6432 -0.3985
   38bbb    H18 1100   5.470   6.514  12.844 -3.2030  2.6968 -0.6193
   38bbb     O1 1101   6.029   6.009  12.938  0.3976  0.1493 -0.0564
   39bbb     N1 1102   8.787   4.092  11.930  0.0920 -0.1390 -0.1475
   39bbb     C1 1103   8.706   3.985  11.872  0.4015  0.2475 -0.3300
   39bbb     H1 1104   8.601   4.012  11.855  0.0179 -1.5634 -1.0089
   39bbb     H2 1105   8.699   3.902  11.943 -2.5252  0.0728 -0.6981
   39bbb     C2 1106   8.924   4.054  11.972  0.7356  0.7996  0.0333
   39bbb     H3 1107   8.957   4.140  12.032 -0.9714  0.7070  1.1733
   39bbb     H4 1108   8.992   4.034  11.888  0.9120 -1.0432  0.5876
   39bbb     C3 1109   8.797   4.218  11.842 -0.0799 -0.7495  0.3525
   39bbb     H5 1110   8.846   4.189  11.748  1.7788 -0.7605  1.2797
   39bbb     H6 1111   8.856   4.293  11.897 -0.0513 -0.1666 -0.4454
   39bbb     C4 1112   8.662   4.293  11.814 -0.0989  0.6120  0.3670
   39bbb     H7 1113   8.594   4.315  11.898 -1.1022  0.7015 -0.4544
   39bbb     H8 1114   8.611   4.232  11.739  0.6550  1.4448 -0.8475
   39bbb     C5 1115   8.757   3.918  11.743 -0.9000 -0.0732  1.1188
   39bbb     H9 1116   8.866   3.929  11.737 -1.1084  1.6311 -0.7711
   39bbb    H10 1117   8.724   3.980  11.658  1.7010 -1.0050 -0.6704
   39bbb     C6 1118   8.931   3.930  12.062 -0.5475 -0.9550 -0.2066
   39bbb    H11 1119   8.904   3.838  12.008 -0.9596 -1.4424  0.8033
   39bbb    H12 1120   8.858   3.942  12.144  0.5776  0.0609  0.6843
   39bbb     C7 1121   8.686   4.430  11.759  0.4950 -0.0044  0.1945
   39bbb    H13 1122   8.722   4.503  11.832  0.8155 -0.9388  0.9911
   39bbb    H14 1123   8.583   4.465  11.740  0.6865  0.0649 -0.7686
   39bbb     C8 1124   9.078   3.922  12.116 -0.1387 -0.0790 -0.3552
   39bbb    H15 1125   9.107   4.005  12.182  2.2844 -0.6750 -0.5761
   39bbb    H16 1126   9.151   3.920  12.035  0.5244 -1.3495  0.2434
   39bbb     C9 1127   8.705   3.764  11.730 -0.7743 -0.0506  0.3168
   39bbb    H17 1128   8.773   3.709  11.796  0.1300  0.9699  0.2638
   39bbb    H18 1129   8.706   3.729  11.626 -1.1383  1.0052 -0.0487
   39bbb     O1 1130   8.765   4.427  11.637  0.7236 -0.1187 -0.4790
   40bbb     N1 1131   9.184   4.482  12.027 -0.3612  0.2038 -0.3992
   40bbb     C1 1132   9.193   4.447  12.175  0.8081 -0.1739  0.1196
   40bbb     H1 1133   9.140   4.353  12.194 -0.1182  0.7448  2.4228
   40bbb     H2 1134   9.140   4.525  12.231 -3.3246 -2.5565 -0.0684
   40bbb     C2 1135   9.046   4.513  11.977  0.9651 -0.9561  0.1327
   40bbb     H3 1136   8.974   4.435  12.003  0.2860 -0.2595  0.3742
   40bbb     H4 1137   9.051   4.515  11.868  1.6689 -0.1870  0.1664
   40bbb     C3 1138   9.258   4.399  11.936 -0.0209  0.2477  0.6582
   40bbb     H5 1139   9.366   4.410  11.953  0.2987  2.0515 -2.0301
   40bbb     H6 1140   9.241   4.433  11.834  1.7554  0.7807  0.5023
   40bbb     C4 1141   9.228   4.245  11.947  0.2331  0.4295 -0.0108
   40bbb     H7 1142   9.119   4.234  11.948  0.4536 -2.6439  0.3380
   40bbb     H8 1143   9.268   4.217  12.045 -2.6810 -0.1341  1.1075
   40bbb     C5 1144   9.335   4.427  12.232  0.7602  0.0840 -0.1678
   40bbb     H9 1145   9.392   4.518  12.206  0.2755  0.2038 -0.8342
   40bbb    H10 1146   9.388   4.346  12.181 -0.0369  2.0258 -4.5417
   40bbb     C6 1147   8.979   4.642  12.024 -0.0964 -0.2087 -0.2604
   40bbb    H11 1148   8.958   4.619  12.130 -0.3151 -0.8773 -0.4444
   40bbb    H12 1149   8.882   4.650  11.974 -0.2344  1.5236  0.2077
   40bbb     C7 1150   9.276   4.163  11.825 -0.3588 -0.1998  0.4221
   40bbb    H13 1151   9.252   4.058  11.842 -0.3065 -0.5320 -1.3835
   40bbb    H14 1152   9.383   4.170  11.806 -0.5655 -1.5782 -1.4746
   40bbb     C8 1153   9.050   4.778  12.014  0.3267 -0.1255  0.2326
   40bbb    H15 1154   9.145   4.783  12.069  0.2896  0.9230  0.2236
   40bbb    H16 1155   8.991   4.853  12.069  0.4518  0.1751 -0.0389
   40bbb     C9 1156   9.329   4.412  12.389 -0.7971 -0.2451 -0.6077
   40bbb    H17 1157   9.257   4.484  12.427 -0.2593  0.5545 -1.0816
   40bbb    H18 1158   9.431   4.436  12.419 -1.0443 -1.3968  1.3015
   40bbb     O1 1159   9.213   4.215  11.710  0.0370  0.3106 -0.3982
   41bbb     N1 1160   7.817   4.735   9.974  0.6459  0.5320  0.5270
   41bbb     C1 1161   7.699   4.701  10.064 -0.2622 -0.1381  0.1085
   41bbb     H1 1162   7.627   4.784  10.063  0.7133  0.7864  1.6819
   41bbb     H2 1163   7.740   4.699  10.166  1.0924 -0.6332 -0.4288
   41bbb     C2 1164   7.785   4.747   9.824 -0.4485  0.6963  0.6317
   41bbb     H3 1165   7.730   4.840   9.804  0.6682  1.5690  1.4244
   41bbb     H4 1166   7.726   4.663   9.787  1.1402  0.1940 -0.8739
   41bbb     C3 1167   7.894   4.843  10.028 -0.1532 -0.2546  0.3479
   41bbb     H5 1168   7.834   4.932  10.054  0.4455  0.1505  0.3647
   41bbb     H6 1169   7.962   4.889   9.954  3.6276 -1.4673  2.7750
   41bbb     C4 1170   7.988   4.802  10.140  0.2842 -0.0524  0.2583
   41bbb     H7 1171   7.942   4.769  10.234  2.1613 -1.7675  0.6464
   41bbb     H8 1172   8.050   4.892  10.153 -0.4906  0.8210 -1.6740
   41bbb     C5 1173   7.641   4.565  10.044 -0.6356  0.1247  0.4011
   41bbb     H9 1174   7.583   4.573   9.951  0.9375  2.4698 -0.4588
   41bbb    H10 1175   7.580   4.542  10.132 -2.4655  1.6006 -0.3955
   41bbb     C6 1176   7.912   4.752   9.726 -0.1079  0.3561 -0.3524
   41bbb    H11 1177   7.908   4.669   9.655  1.6051 -1.2997  1.3625
   41bbb    H12 1178   8.004   4.733   9.783  0.1602 -0.3048 -0.9987
   41bbb     C7 1179   8.081   4.689  10.091 -0.6932 -0.2445 -0.2950
   41bbb    H13 1180   8.118   4.700   9.989 -1.6467 -3.0791 -1.0345
   41bbb    H14 1181   8.027   4.594  10.094  1.7782 -1.7178  1.3819
   41bbb     C8 1182   7.924   4.886   9.655  0.0105 -0.4336  0.6760
   41bbb    H15 1183   8.022   4.892   9.607  0.8380  2.1919  2.5102
   41bbb    H16 1184   7.935   4.967   9.729  1.0449  0.4141 -0.3865
   41bbb     C9 1185   7.762   4.469  10.035 -1.9053  0.5330 -0.1242
   41bbb    H17 1186   7.836   4.496  10.111 -1.6664 -0.3405 -0.0340
   41bbb    H18 1187   7.811   4.483   9.938 -0.9441  2.0219  0.5415
   41bbb     O1 1188   8.183   4.687  10.186 -0.6466  0.0838  0.5189
   42bbb     N1 1189   8.455   4.501   9.438 -0.0387  0.9585  0.0758
   42bbb     C1 1190   8.474   4.513   9.288  0.2704 -0.1766 -0.4509
   42bbb     H1 1191   8.425   4.603   9.250 -1.5440 -0.2290  1.5954
   42bbb     H2 1192   8.423   4.427   9.244  0.6437 -0.6549  0.0446
   42bbb     C2 1193   8.321   4.538   9.480  0.9133  0.4847 -0.0699
   42bbb     H3 1194   8.277   4.471   9.555  0.0145 -2.2201 -2.7920
   42bbb     H4 1195   8.248   4.517   9.401 -0.9280 -2.0419  2.1287
   42bbb     C3 1196   8.519   4.380   9.493  0.1719  0.0826 -0.2795
   42bbb     H5 1197   8.624   4.374   9.462 -0.3950  0.8497 -2.4879
   42bbb     H6 1198   8.469   4.290   9.455  3.5703 -2.5426  0.8835
   42bbb     C4 1199   8.520   4.369   9.651  0.0782 -0.2522 -0.3117
   42bbb     H7 1200   8.531   4.263   9.674  1.0812  0.1465  1.1637
   42bbb     H8 1201   8.424   4.408   9.689  0.4647  2.2035 -1.6049
   42bbb     C5 1202   8.621   4.519   9.242 -0.2613  0.0594 -0.2493
   42bbb     H9 1203   8.624   4.511   9.133 -0.5554 -0.1667 -0.2422
   42bbb    H10 1204   8.670   4.427   9.275 -1.1283 -0.3788 -0.1424
   42bbb     C6 1205   8.299   4.690   9.509 -0.1650 -1.1101 -0.1598
   42bbb    H11 1206   8.191   4.706   9.501 -0.1216 -1.2689 -1.2103
   42bbb    H12 1207   8.350   4.749   9.432  0.4921 -2.5622 -0.8773
   42bbb     C7 1208   8.632   4.454   9.701 -0.4627 -0.5656  0.3544
   42bbb    H13 1209   8.627   4.559   9.671 -1.3419 -0.8763 -0.6752
   42bbb    H14 1210   8.729   4.412   9.669 -0.9190 -1.0344 -0.4721
   42bbb     C8 1211   8.343   4.720   9.651  0.4860 -0.0976 -0.2941
   42bbb    H15 1212   8.452   4.732   9.641  0.5300 -0.8446 -0.7945
   42bbb    H16 1213   8.302   4.643   9.717 -3.4261  0.7663 -1.4643
   42bbb     C9 1214   8.692   4.643   9.298 -0.3706 -0.1760  0.2155
   42bbb    H17 1215   8.689   4.623   9.406  0.9262 -0.8113  0.1561
   42bbb    H18 1216   8.634   4.731   9.269  1.7887  0.7364 -1.6238
   42bbb     O1 1217   8.629   4.454   9.851  0.1059  0.0127 -0.4197
   43bbb     N1 1218   5.929   4.580  11.550  0.0382 -0.4798  0.0880
   43bbb     C1 1219   5.920   4.665  11.674 -0.2931 -0.4073 -0.3027
   43bbb     H1 1220   5.816   4.690  11.696  0.1537  0.8935  0.4373
   43bbb     H2 1221   5.972   4.759  11.654  0.5916 -1.0231 -0.9931
   43bbb     C2 1222   5.834   4.463  11.552 -0.3911  0.0760 -0.6141
   43bbb     H3 1223   5.856   4.400  11.638 -0.8846 -1.2720 -1.4434
   43bbb     H4 1224   5.862   4.397  11.469  0.6580  2.0907 -1.9674
   43bbb     C3 1225   6.060   4.538  11.499  0.1214  0.3073 -0.2092
   43bbb     H5 1226   6.045   4.484  11.404 -0.8631  0.4568 -0.1442
   43bbb     H6 1227   6.100   4.461  11.566 -0.2536 -0.7490 -1.1626
   43bbb     C4 1228   6.155   4.653  11.476  0.0076  0.4181 -0.1519
   43bbb     H7 1229   6.156   4.713  11.568 -0.6870 -0.5686  0.5249
   43bbb     H8 1230   6.123   4.717  11.394 -0.6671  1.0429  0.5846
   43bbb     C5 1231   5.984   4.610  11.803 -0.2399 -0.3038  0.2956
   43bbb     H9 1232   5.952   4.507  11.821 -1.4008 -0.1025 -0.4792
   43bbb    H10 1233   5.948   4.678  11.881 -0.7582  1.0700 -1.0720
   43bbb     C6 1234   5.681   4.501  11.546 -0.5675 -0.0313  0.9777
   43bbb    H11 1235   5.665   4.608  11.532 -1.9851 -0.3721 -0.1764
   43bbb    H12 1236   5.640   4.490  11.647  0.0722 -0.0417  1.2404
   43bbb     C7 1237   6.294   4.593  11.448  0.5297 -0.6275  0.0810
   43bbb    H13 1238   6.352   4.675  11.404 -1.3711 -0.6570 -2.7432
   43bbb    H14 1239   6.288   4.518  11.368  1.9060 -0.1166 -0.5353
   43bbb     C8 1240   5.605   4.423  11.437 -0.0798  0.4079 -0.3693
   43bbb    H15 1241   5.656   4.454  11.345  0.4195 -0.5291 -0.4188
   43bbb    H16 1242   5.499   4.453  11.432 -0.5743 -1.2351 -0.4688
   43bbb     C9 1243   6.142   4.617  11.825  0.3378 -0.0880  0.3245
   43bbb    H17 1244   6.190   4.698  11.769  0.8311 -0.9550 -0.5467
   43bbb    H18 1245   6.177   4.520  11.787 -1.3416 -0.8955  0.7265
   43bbb     O1 1246   6.359   4.544  11.563  0.0199  0.3640  0.5111
   44bbb     N1 1247   6.040   3.922  12.194 -0.0746 -0.1906  0.1297
   44bbb     C1 1248   5.969   3.831  12.283 -0.4853 -0.0685 -0.2134
   44bbb     H1 1249   6.050   3.773  12.330 -2.7689 -1.6179  2.0716
   44bbb     H2 1250   5.912   3.756  12.228 -2.6318  0.5128  1.0585
   44bbb     C2 1251   6.071   3.887  12.055 -0.1146  0.3406  0.1390
   44bbb     H3 1252   6.168   3.834  12.056 -0.8071 -1.2202 -2.7275
   44bbb     H4 1253   6.070   3.973  11.987 -2.2474  0.7150  0.5842
   44bbb     C3 1254   6.151   3.994  12.260  0.1593  0.8722  0.2048
   44bbb     H5 1255   6.225   3.915  12.281  0.0909  0.3731 -1.2994
   44bbb     H6 1256   6.114   4.020  12.360  0.4679  0.1939  0.5070
   44bbb     C4 1257   6.230   4.113  12.195  0.1400  0.5299  0.5617
   44bbb     H7 1258   6.165   4.193  12.159  0.1484 -0.0980 -0.9366
   44bbb     H8 1259   6.275   4.086  12.098 -1.3891  1.3164 -0.4046
   44bbb     C5 1260   5.875   3.893  12.392 -0.1354  0.3443 -0.5981
   44bbb     H9 1261   5.786   3.928  12.337 -0.4058  0.4920 -0.0710
   44bbb    H10 1262   5.919   3.982  12.439  2.1745 -0.7692 -0.5048
   44bbb     C6 1263   5.979   3.787  11.990  0.2583 -1.1191 -0.9382
   44bbb    H11 1264   5.874   3.814  12.006  0.6920 -0.5796  1.5014
   44bbb    H12 1265   5.997   3.695  12.048  2.4778  1.0715  2.1648
   44bbb     C7 1266   6.343   4.169  12.283 -0.1532  0.0091 -0.0478
   44bbb    H13 1267   6.427   4.099  12.289  0.4199  0.6890  0.1247
   44bbb    H14 1268   6.301   4.178  12.384 -1.8771  1.2804 -0.8258
   44bbb     C8 1269   5.998   3.773  11.835 -0.6778 -0.1697  0.0214
   44bbb    H15 1270   5.972   3.873  11.799 -0.7882 -0.1606  0.1256
   44bbb    H16 1271   5.929   3.699  11.791 -2.4007  2.0576 -1.2250
   44bbb     C9 1272   5.829   3.784  12.491 -0.2403  0.0405 -0.3281
   44bbb    H17 1273   5.908   3.729  12.545 -0.0949 -1.1666 -1.7092
   44bbb    H18 1274   5.761   3.837  12.559 -1.3034  0.2712 -1.5383
   44bbb     O1 1275   6.379   4.301  12.230 -0.7840  0.8918 -0.1307
   45bbb     N1 1276   6.633   4.647   9.788 -0.4098 -0.1608 -0.9979
   45bbb     C1 1277   6.555   4.519   9.780 -0.1917 -0.1395 -0.2098
   45bbb     H1 1278   6.454   4.553   9.807  0.1857  0.8575 -0.0335
   45bbb     H2 1279   6.599   4.443   9.845  3.3540  1.0910 -0.9836
   45bbb     C2 1280   6.775   4.621   9.764  0.3762 -0.0905  0.3008
   45bbb     H3 1281   6.783   4.543   9.687  2.1575 -0.2200  0.5934
   45bbb     H4 1282   6.826   4.589   9.855  1.8633 -0.3326 -0.5960
   45bbb     C3 1283   6.624   4.725   9.914 -0.0759  0.0830 -0.4483
   45bbb     H5 1284   6.680   4.817   9.897 -0.6111  0.3260 -0.9317
   45bbb     H6 1285   6.671   4.671   9.997 -1.0579 -0.4334 -0.2076
   45bbb     C4 1286   6.475   4.755   9.957 -0.2468 -0.3901 -0.2729
   45bbb     H7 1287   6.416   4.666   9.982 -0.2742 -0.3968 -0.3622
   45bbb     H8 1288   6.415   4.789   9.872  1.0841 -2.2101 -2.0050
   45bbb     C5 1289   6.550   4.448   9.641  1.1418 -0.0129 -0.3253
   45bbb     H9 1290   6.645   4.397   9.623  1.3331 -0.2985  1.3691
   45bbb    H10 1291   6.540   4.523   9.561  0.6146 -0.1585 -0.3992
   45bbb     C6 1292   6.859   4.733   9.690 -0.6644  0.0905 -0.3831
   45bbb    H11 1293   6.959   4.691   9.671 -0.6917 -0.5103  0.7374
   45bbb    H12 1294   6.862   4.819   9.758 -1.6496  0.3194 -0.6132
   45bbb     C7 1295   6.465   4.862  10.069  0.3422  0.9180  0.4692
   45bbb    H13 1296   6.362   4.880  10.103 -0.2283  0.0767 -0.7404
   45bbb    H14 1297   6.487   4.960  10.025 -4.7818  2.5248  0.8474
   45bbb     C8 1298   6.798   4.783   9.557 -0.0538 -0.3700  0.1493
   45bbb    H15 1299   6.696   4.821   9.568  0.5113  1.3159 -0.1769
   45bbb    H16 1300   6.793   4.705   9.480 -0.1779  0.4914 -0.7447
   45bbb     C9 1301   6.446   4.337   9.617  0.3620 -0.3062 -0.5450
   45bbb    H17 1302   6.483   4.250   9.672 -0.1485 -0.4793 -0.4700
   45bbb    H18 1303   6.443   4.319   9.509  0.8524  3.7574 -1.4167
   45bbb     O1 1304   6.541   4.812  10.184  0.1097  0.7065  0.2644
   46bbb     N1 1305   6.995   3.807  10.340 -0.7498 -0.2204 -0.2793
   46bbb     C1 1306   6.913   3.800  10.466  0.3786  0.4154 -0.0970
   46bbb     H1 1307   6.829   3.735  10.441  0.6480  0.4878 -1.2785
   46bbb     H2 1308   6.871   3.896  10.498  0.0690 -0.0165  0.8152
   46bbb     C2 1309   7.061   3.668  10.321 -0.5344 -0.9573  0.5358
   46bbb     H3 1310   6.987   3.587  10.322  2.3967 -3.9378  3.3406
   46bbb     H4 1311   7.134   3.645  10.399  0.6789  0.5661 -0.0978
   46bbb     C3 1312   6.922   3.853  10.221  0.2454 -0.1835  0.0168
   46bbb     H5 1313   6.841   3.782  10.199  0.3329 -0.8733  1.7318
   46bbb     H6 1314   6.987   3.862  10.134  1.4714 -0.0056  0.9293
   46bbb     C4 1315   6.865   3.994  10.241  0.3200  0.2311  0.1463
   46bbb     H7 1316   6.786   4.001  10.316 -0.8982  0.1631 -1.0949
   46bbb     H8 1317   6.812   4.027  10.150  2.2286 -0.3193 -1.2375
   46bbb     C5 1318   6.979   3.739  10.590  0.5877  0.3177 -0.1314
   46bbb     H9 1319   7.055   3.809  10.625 -0.1073  0.8181  0.4245
   46bbb    H10 1320   7.021   3.639  10.574 -0.6256 -0.8915  3.3504
   46bbb     C6 1321   7.146   3.651  10.190 -0.1773 -0.2498  0.4913
   46bbb    H11 1322   7.227   3.725  10.193 -0.9348  0.8052 -2.0981
   46bbb    H12 1323   7.092   3.672  10.097  1.7970  0.1680 -0.6159
   46bbb     C7 1324   6.983   4.096  10.265 -0.5178  0.8018 -0.4398
   46bbb    H13 1325   7.031   4.126  10.172 -1.5614 -0.1609 -1.3137
   46bbb    H14 1326   7.055   4.052  10.335  1.0073  1.3600 -1.6142
   46bbb     C8 1327   7.209   3.507  10.179  0.6326 -0.4279 -0.4795
   46bbb    H15 1328   7.253   3.488  10.081 -0.9123  0.5907 -1.4132
   46bbb    H16 1329   7.123   3.440  10.190 -1.2041  2.1003  2.1569
   46bbb     C9 1330   6.865   3.734  10.697  0.5712  0.6759  0.1244
   46bbb    H17 1331   6.819   3.834  10.701 -3.2346 -0.8740 -1.0211
   46bbb    H18 1332   6.909   3.708  10.794  2.3453 -2.1638 -1.3088
   46bbb     O1 1333   6.928   4.216  10.324  0.4309  0.3403  0.4033
   47bbb     N1 1334   8.733   6.771  13.346  0.1154 -0.9388  0.4630
   47bbb     C1 1335   8.853   6.763  13.263 -1.0378  0.0395  0.2945
   47bbb     H1 1336   8.823   6.780  13.159 -0.9799 -4.2774 -0.6129
   47bbb     H2 1337   8.896   6.662  13.272 -2.3683 -0.4054  2.2863
   47bbb     C2 1338   8.677   6.907  13.363 -0.2994  0.4474  0.7341
   47bbb     H3 1339   8.647   6.939  13.263 -0.4229 -2.0127 -0.0891
   47bbb     H4 1340   8.758   6.970  13.401 -1.5374  1.1888  2.2771
   47bbb     C3 1341   8.636   6.675  13.306 -0.7428 -0.0349  0.1634
   47bbb     H5 1342   8.614   6.697  13.201  1.7232  0.2075 -0.3762
   47bbb     H6 1343   8.543   6.686  13.363  0.5226  2.2446  1.9627
   47bbb     C4 1344   8.676   6.525  13.310  0.0171 -0.4893  0.1012
   47bbb     H7 1345   8.725   6.513  13.407 -0.8513  0.4706  0.6702
   47bbb     H8 1346   8.753   6.501  13.235 -0.5861  1.0735 -1.0644
   47bbb     C5 1347   8.978   6.850  13.303  0.0376  0.4658  0.4958
   47bbb     H9 1348   9.014   6.836  13.405  1.2920  1.3937  0.1986
   47bbb    H10 1349   8.954   6.956  13.285 -1.6043  0.0809  0.2225
   47bbb     C6 1350   8.558   6.924  13.462 -0.0577 -0.0961 -0.1686
   47bbb    H11 1351   8.559   6.840  13.533  3.9161 -0.4205 -0.3899
   47bbb    H12 1352   8.465   6.927  13.404 -1.2114  2.5460  1.5941
   47bbb     C7 1353   8.564   6.423  13.323  0.4718  0.9913 -0.0641
   47bbb    H13 1354   8.481   6.463  13.382 -0.8070 -2.8185  1.0411
   47bbb    H14 1355   8.590   6.325  13.366  0.8617  1.5087  0.9104
   47bbb     C8 1356   8.561   7.045  13.554 -0.1287  0.3648 -0.7420
   47bbb    H15 1357   8.468   7.037  13.612  0.3248 -0.2872 -0.0836
   47bbb    H16 1358   8.559   7.141  13.500  0.3951  1.1580  0.5887
   47bbb     C9 1359   9.099   6.822  13.221 -0.5649  0.0120 -0.0607
   47bbb    H17 1360   9.129   6.717  13.220  4.8903  1.2497 -1.4311
   47bbb    H18 1361   9.182   6.869  13.275  0.4305 -1.2913 -0.4148
   47bbb     O1 1362   8.504   6.405  13.196 -0.4943  0.2562  0.0735
   48bbb     N1 1363   8.757   5.331  13.242  0.1975 -0.1423 -0.0827
   48bbb     C1 1364   8.668   5.297  13.120 -0.0389 -0.2267 -0.5812
   48bbb     H1 1365   8.713   5.355  13.038  0.6027  1.5258  0.9538
   48bbb     H2 1366   8.563   5.326  13.132  0.0666 -0.1754  0.2546
   48bbb     C2 1367   8.735   5.246  13.360  0.5864  0.3579  0.2973
   48bbb     H3 1368   8.807   5.271  13.439 -0.3956 -2.0109  2.0739
   48bbb     H4 1369   8.756   5.140  13.339  0.9071 -0.1171  2.6957
   48bbb     C3 1370   8.777   5.476  13.250 -0.4986  0.3803  0.0047
   48bbb     H5 1371   8.679   5.521  13.267 -0.0013  1.0033  1.3740
   48bbb     H6 1372   8.817   5.511  13.154 -1.6776  0.0504 -0.6144
   48bbb     C4 1373   8.881   5.520  13.359 -0.0623  0.8479  0.4825
   48bbb     H7 1374   8.984   5.498  13.328 -0.6387 -1.5309  0.0504
   48bbb     H8 1375   8.849   5.463  13.447 -0.2003 -4.0081 -2.3344
   48bbb     C5 1376   8.675   5.139  13.093  0.6503  0.6490  0.6759
   48bbb     H9 1377   8.592   5.092  13.148 -0.7361  1.1196 -0.9355
   48bbb    H10 1378   8.762   5.083  13.129 -0.4367 -1.1060  0.7044
   48bbb     C6 1379   8.588   5.261  13.420 -0.4121  0.2375  0.3177
   48bbb    H11 1380   8.515   5.240  13.340  2.2765  1.1052 -2.5913
   48bbb    H12 1381   8.568   5.362  13.456  1.3436  1.0856 -0.9279
   48bbb     C7 1382   8.872   5.666  13.398  0.0553 -0.5886  0.3546
   48bbb    H13 1383   8.959   5.698  13.457  0.2109 -0.3972  0.0205
   48bbb    H14 1384   8.781   5.684  13.457  1.3277  3.4616  1.4076
   48bbb     C8 1385   8.562   5.165  13.534 -0.4508 -0.1227 -0.4309
   48bbb    H15 1386   8.468   5.189  13.586  0.9629 -1.5482  3.1280
   48bbb    H16 1387   8.634   5.184  13.615 -1.3945 -1.2168  0.7236
   48bbb     C9 1388   8.668   5.104  12.937  0.5090  0.0978  0.1614
   48bbb    H17 1389   8.563   5.113  12.906  0.8780 -1.6063 -1.7529
   48bbb    H18 1390   8.689   4.997  12.931  2.1950  0.4009  0.2116
   48bbb     O1 1391   8.863   5.746  13.274 -0.2819  0.2849 -0.3099
   49bbb     N1 1392   6.442   5.810  13.883  0.4571  0.1713  0.8978
   49bbb     C1 1393   6.467   5.762  14.022 -0.7354  0.1060 -0.3218
   49bbb     H1 1394   6.521   5.667  14.019 -1.7274 -0.5753  1.6356
   49bbb     H2 1395   6.376   5.751  14.083 -0.4010  0.8896  0.3293
   49bbb     C2 1396   6.380   5.948  13.884  0.0347  0.4218  0.2805
   49bbb     H3 1397   6.457   6.026  13.893 -0.3735  1.2727 -2.5069
   49bbb     H4 1398   6.316   5.960  13.972  1.2183 -1.4579  1.4528
   49bbb     C3 1399   6.553   5.794  13.795  0.0738 -0.3352 -0.2205
   49bbb     H5 1400   6.640   5.845  13.838  0.2091 -1.1018  0.4348
   49bbb     H6 1401   6.542   5.847  13.700 -1.8367  0.8198  0.5971
   49bbb     C4 1402   6.598   5.648  13.764  0.6155  0.1844 -0.3879
   49bbb     H7 1403   6.506   5.589  13.763  0.0278  1.0068 -2.7357
   49bbb     H8 1404   6.666   5.604  13.838  1.3182  0.5250 -0.8157
   49bbb     C5 1405   6.552   5.861  14.115  0.1178 -0.3467  0.2593
   49bbb     H9 1406   6.532   5.968  14.117 -0.8785 -0.5162 -0.2933
   49bbb    H10 1407   6.657   5.862  14.085 -0.3953  1.7138 -1.7042
   49bbb     C6 1408   6.292   5.994  13.766 -0.4359  0.3283 -0.1452
   49bbb    H11 1409   6.363   6.018  13.687  0.2453  0.6954  0.5685
   49bbb    H12 1410   6.232   6.084  13.783 -1.7264 -0.3812 -0.7407
   49bbb     C7 1411   6.661   5.633  13.624 -0.0488 -0.1068 -0.0796
   49bbb    H13 1412   6.587   5.642  13.543 -1.3956  0.6379  1.1778
   49bbb    H14 1413   6.695   5.531  13.605  1.5639 -0.0127  2.0480
   49bbb     C8 1414   6.204   5.887  13.699 -0.2905 -0.2049  0.4906
   49bbb    H15 1415   6.119   5.856  13.762 -1.6038 -0.3779 -1.3006
   49bbb    H16 1416   6.269   5.801  13.679  0.4098  0.1350  1.2138
   49bbb     C9 1417   6.532   5.822  14.266 -0.0062 -0.0868 -0.0488
   49bbb    H17 1418   6.540   5.717  14.296  0.7153  0.4251  1.7033
   49bbb    H18 1419   6.428   5.841  14.295 -0.9536 -0.5977 -2.8063
   49bbb     O1 1420   6.768   5.727  13.606 -0.3983 -0.4854 -0.4351
   50bbb     N1 1421   7.587   5.692  13.939 -0.0784  0.5414  0.5132
   50bbb     C1 1422   7.691   5.743  13.845 -0.2256  0.4532 -0.0238
   50bbb     H1 1423   7.646   5.827  13.790 -0.4967  0.1592 -0.2576
   50bbb     H2 1424   7.725   5.668  13.772  1.3916 -1.2749  2.3771
   50bbb     C2 1425   7.546   5.775  14.051  0.2912  0.0224  0.4342
   50bbb     H3 1426   7.638   5.823  14.083 -0.6527  2.7034 -0.6214
   50bbb     H4 1427   7.503   5.713  14.132 -2.8201  1.4771  0.0497
   50bbb     C3 1428   7.479   5.625  13.857 -0.0993 -0.1107 -0.0429
   50bbb     H5 1429   7.451   5.691  13.775 -2.9683 -1.2984 -0.1524
   50bbb     H6 1430   7.390   5.614  13.922 -0.4044  2.4028  0.0513
   50bbb     C4 1431   7.527   5.492  13.794 -0.1555 -0.3185  0.0935
   50bbb     H7 1432   7.552   5.418  13.871  0.9474 -0.0257  0.0362
   50bbb     H8 1433   7.610   5.507  13.723 -0.6496  0.7586 -0.2782
   50bbb     C5 1434   7.829   5.792  13.907  0.1497 -0.3755  0.1451
   50bbb     H9 1435   7.881   5.715  13.965 -1.5460 -1.8496 -0.1854
   50bbb    H10 1436   7.819   5.879  13.974  1.3260 -0.4837  0.4741
   50bbb     C6 1437   7.447   5.888  14.015  0.0318 -0.8461 -0.6219
   50bbb    H11 1438   7.344   5.852  14.020 -0.5561  0.7423 -0.6299
   50bbb    H12 1439   7.459   5.910  13.908 -0.7126  0.2572 -0.4972
   50bbb     C7 1440   7.410   5.426  13.711 -0.6707 -0.3053  0.0024
   50bbb    H13 1441   7.322   5.432  13.776  0.1788 -0.4597  1.2020
   50bbb    H14 1442   7.436   5.320  13.706  1.3035  0.1727 -1.1606
   50bbb     C8 1443   7.461   6.032  14.090  0.1174 -0.2719 -0.4356
   50bbb    H15 1444   7.374   6.098  14.088 -0.5803 -0.7236  4.2023
   50bbb    H16 1445   7.551   6.086  14.055  0.6490 -0.6754  0.2847
   50bbb     C9 1446   7.923   5.831  13.791 -0.3920  0.3355 -0.2920
   50bbb    H17 1447   8.006   5.893  13.825 -1.4036  1.9893 -0.7485
   50bbb    H18 1448   7.867   5.897  13.724 -1.2440  2.0339  1.9854
   50bbb     O1 1449   7.382   5.488  13.586  0.0949  0.1790  0.1154
   51bbb     N1 1450   7.915   6.758  10.408  0.1065  0.1449  0.1264
   51bbb     C1 1451   8.050   6.814  10.427 -0.0707  0.9082 -0.0242
   51bbb     H1 1452   8.087   6.775  10.523  2.1198 -1.7436 -1.7951
   51bbb     H2 1453   8.036   6.920  10.451 -2.2918  0.2303  2.0365
   51bbb     C2 1454   7.862   6.764  10.268  0.1540 -0.3351 -0.4132
   51bbb     H3 1455   7.775   6.697  10.261  1.9369 -3.2235  2.4643
   51bbb     H4 1456   7.941   6.731  10.199  1.6970 -1.2503  1.6704
   51bbb     C3 1457   7.825   6.801  10.521 -0.1178  0.4850  0.4233
   51bbb     H5 1458   7.804   6.908  10.506  0.2430  0.3123 -1.6861
   51bbb     H6 1459   7.871   6.792  10.619  2.6013  1.1825 -0.7019
   51bbb     C4 1460   7.685   6.731  10.513 -0.5793  0.7064  0.6813
   51bbb     H7 1461   7.697   6.626  10.541 -2.4558  0.1809 -0.3733
   51bbb     H8 1462   7.636   6.712  10.417 -1.6258 -1.8890  1.6444
   51bbb     C5 1463   8.156   6.781  10.324  0.2964 -0.3869 -0.1308
   51bbb     H9 1464   8.134   6.682  10.283 -1.8424 -0.2698  0.5842
   51bbb    H10 1465   8.245   6.766  10.386  0.3153 -1.7023 -0.4561
   51bbb     C6 1466   7.809   6.906  10.235 -0.5782  0.6530  0.0370
   51bbb    H11 1467   7.892   6.969  10.271  0.4505 -0.6152 -0.0238
   51bbb    H12 1468   7.716   6.928  10.289 -1.7276 -0.3422 -1.4677
   51bbb     C7 1469   7.584   6.786  10.613  0.0521  0.2201  0.1786
   51bbb    H13 1470   7.482   6.750  10.593 -0.2779  0.2089  1.7933
   51bbb    H14 1471   7.583   6.895  10.600 -0.4945 -0.0270 -2.5050
   51bbb     C8 1472   7.790   6.914  10.078 -0.3712 -0.2063  0.0255
   51bbb    H15 1473   7.717   6.840  10.043 -0.6979  1.0453 -2.1676
   51bbb    H16 1474   7.885   6.900  10.026  1.1260  2.8617  1.6709
   51bbb     C9 1475   8.181   6.889  10.211 -0.5463  0.6171 -0.5064
   51bbb    H17 1476   8.087   6.904  10.156 -0.1929  1.6321 -0.8677
   51bbb    H18 1477   8.246   6.834  10.142 -0.8958  0.0045 -0.3581
   51bbb     O1 1478   7.623   6.745  10.750  0.0822  0.0910  0.0905
   52bbb     N1 1479   8.122   7.091  11.440  0.1154  0.2139 -0.4560
   52bbb     C1 1480   8.240   7.133  11.523  0.0542  0.4514  0.0406
   52bbb     H1 1481   8.225   7.239  11.546  1.2999  0.8336 -0.8312
   52bbb     H2 1482   8.333   7.113  11.469 -0.4439  0.4396 -0.8317
   52bbb     C2 1483   8.084   7.159  11.315 -0.7942 -0.8978  0.1381
   52bbb     H3 1484   7.985   7.123  11.283 -0.2247 -1.5006 -1.0263
   52bbb     H4 1485   8.153   7.134  11.233 -0.1667  0.4979  0.2158
   52bbb     C3 1486   8.105   6.944  11.420 -0.4155 -0.4267  0.2192
   52bbb     H5 1487   8.011   6.914  11.372 -0.3151 -1.1217  0.4406
   52bbb     H6 1488   8.103   6.896  11.519 -1.9360  1.4254  1.1432
   52bbb     C4 1489   8.221   6.883  11.339 -0.1732 -0.0504 -0.4987
   52bbb     H7 1490   8.305   6.919  11.399 -1.7138 -1.1808  2.5597
   52bbb     H8 1491   8.229   6.931  11.241 -3.3795  0.1993 -0.7603
   52bbb     C5 1492   8.250   7.066  11.659 -0.1040 -0.2815 -0.1955
   52bbb     H9 1493   8.346   7.088  11.707  1.3641 -2.1287 -2.1179
   52bbb    H10 1494   8.258   6.958  11.645 -0.8428 -0.2704 -0.7701
   52bbb     C6 1495   8.084   7.312  11.315 -0.0726  0.6530  0.0910
   52bbb    H11 1496   8.071   7.350  11.213  0.7295 -1.3605 -0.7952
   52bbb    H12 1497   8.187   7.341  11.341 -0.8602  3.2362  0.6937
   52bbb     C7 1498   8.217   6.731  11.330 -0.2339  0.0515  0.4490
   52bbb    H13 1499   8.251   6.680  11.420  0.4818  0.8018  0.6161
   52bbb    H14 1500   8.294   6.709  11.255  0.4509 -2.8809  1.8959
   52bbb     C8 1501   7.981   7.379  11.408 -0.0696  0.4218  0.3269
   52bbb    H15 1502   7.976   7.319  11.500  1.5744 -0.6921 -0.2711
   52bbb    H16 1503   7.882   7.367  11.361 -0.2799 -0.6534  1.0143
   52bbb     C9 1504   8.133   7.102  11.760  0.0676  0.1459 -0.6087
   52bbb    H17 1505   8.037   7.091  11.707 -1.8255 -2.4873  2.9276
   52bbb    H18 1506   8.138   7.208  11.786 -0.0278  0.3379 -1.3401
   52bbb     O1 1507   8.090   6.676  11.280  0.0137 -0.5507  0.2823
   53bbb     N1 1508   6.742   6.443  11.567 -0.3000  0.0631 -0.2015
   53bbb     C1 1509   6.645   6.407  11.459  0.1115 -0.5052  0.0587
   53bbb     H1 1510   6.568   6.340  11.497  0.8985 -1.7429 -0.4425
   53bbb     H2 1511   6.701   6.347  11.386 -0.0655  0.3829 -0.8272
   53bbb     C2 1512   6.690   6.473  11.702 -0.3823 -0.0187  0.2819
   53bbb     H3 1513   6.601   6.410  11.706  0.4383 -1.4842 -1.9980
   53bbb     H4 1514   6.656   6.577  11.703 -1.1706 -0.2755  1.2938
   53bbb     C3 1515   6.866   6.521  11.534  0.5961  0.4612 -0.4541
   53bbb     H5 1516   6.916   6.536  11.631 -1.9162  0.8907  0.8596
   53bbb     H6 1517   6.838   6.619  11.493  1.5669  0.5436 -0.9672
   53bbb     C4 1518   6.961   6.447  11.437  0.1791 -0.6692  0.2153
   53bbb     H7 1519   6.914   6.420  11.342  1.4568  0.1430 -0.6760
   53bbb     H8 1520   6.989   6.352  11.484  1.8312 -1.3948 -2.0908
   53bbb     C5 1521   6.577   6.524  11.387  0.0142 -0.1609 -0.2031
   53bbb     H9 1522   6.500   6.484  11.320 -0.7260 -0.3159  0.7210
   53bbb    H10 1523   6.644   6.585  11.325 -0.8565  2.3496  1.2055
   53bbb     C6 1524   6.775   6.449  11.834 -0.1615  0.3580 -1.5200
   53bbb    H11 1525   6.866   6.507  11.848  0.8478 -1.7802  1.8576
   53bbb    H12 1526   6.810   6.347  11.856 -0.1814  0.5868 -0.3900
   53bbb     C7 1527   7.087   6.535  11.413  0.4773  0.0753  0.1006
   53bbb    H13 1528   7.165   6.480  11.359 -0.5082  1.3532 -2.7704
   53bbb    H14 1529   7.123   6.568  11.511 -2.4884 -0.2936  1.4465
   53bbb     C8 1530   6.695   6.513  11.951  0.6949 -0.4967 -0.1609
   53bbb    H15 1531   6.621   6.442  11.989  1.1266 -2.1405 -2.2220
   53bbb    H16 1532   6.644   6.605  11.919  0.9174 -0.2807  0.1028
   53bbb     C9 1533   6.492   6.630  11.472  0.1465  0.4712  0.5361
   53bbb    H17 1534   6.447   6.701  11.402  0.0389  1.4614  1.5752
   53bbb    H18 1535   6.552   6.692  11.541 -2.2081  1.0282  2.2109
   53bbb     O1 1536   7.044   6.658  11.353 -0.7164  0.0057  0.0286
   54bbb     N1 1537   6.415   7.256  12.256  0.3206 -0.3825 -0.2015
   54bbb     C1 1538   6.318   7.366  12.234 -0.5004  0.4172 -0.2078
   54bbb     H1 1539   6.287   7.401  12.333 -1.4708 -2.0762  0.4358
   54bbb     H2 1540   6.230   7.322  12.187 -0.6674  1.1514 -0.6083
   54bbb     C2 1541   6.402   7.198  12.394 -0.3529  0.3639  0.5194
   54bbb     H3 1542   6.452   7.101  12.383  1.2708  1.2039  0.1692
   54bbb     H4 1543   6.299   7.189  12.429 -1.3014 -0.3404 -2.1867
   54bbb     C3 1544   6.437   7.166  12.145  0.8031 -0.1396  0.0065
   54bbb     H5 1545   6.393   7.200  12.050  2.2068 -0.5518 -0.8143
   54bbb     H6 1546   6.374   7.077  12.162 -0.5928  0.4915 -1.5910
   54bbb     C4 1547   6.581   7.125  12.116 -0.2438  0.1221  0.6605
   54bbb     H7 1548   6.621   7.063  12.197  1.0842 -1.0741 -0.8531
   54bbb     H8 1549   6.635   7.221  12.115 -0.1159  0.0510 -1.1144
   54bbb     C5 1550   6.380   7.483  12.148  0.0124  0.2295 -0.2203
   54bbb     H9 1551   6.314   7.568  12.168  0.4741  0.2051  1.6028
   54bbb    H10 1552   6.389   7.449  12.044  1.1953  0.6441 -0.2721
   54bbb     C6 1553   6.496   7.274  12.492 -0.2571 -0.2861 -0.5961
   54bbb    H11 1554   6.488   7.245  12.598 -0.9353  3.4203  0.5052
   54bbb    H12 1555   6.454   7.375  12.498 -0.9448 -0.4420 -2.2985
   54bbb     C7 1556   6.598   7.049  11.985  0.0000 -0.0423 -0.2332
   54bbb    H13 1557   6.560   7.114  11.905  0.4308 -2.1934 -2.2933
   54bbb    H14 1558   6.537   6.958  11.981 -1.1392  0.7372 -2.1171
   54bbb     C8 1559   6.647   7.297  12.461  0.5269  0.3705 -0.5479
   54bbb    H15 1560   6.656   7.331  12.357 -1.4162  1.2948 -0.4567
   54bbb    H16 1561   6.703   7.203  12.464 -2.0650 -1.2130  1.0153
   54bbb     C9 1562   6.518   7.538  12.195 -0.2495  0.4839  0.3035
   54bbb    H17 1563   6.605   7.475  12.173  0.6097  1.7004  0.1374
   54bbb    H18 1564   6.513   7.536  12.305  1.0015  0.1554  0.3719
   54bbb     O1 1565   6.741   7.019  11.975  0.3433  0.3499  0.5547
   55bbb     N1 1566   8.896   4.288   9.316 -0.0431 -0.4371  0.2374
   55bbb     C1 1567   8.924   4.327   9.180 -0.8382 -0.1340  0.7395
   55bbb     H1 1568   9.027   4.292   9.164 -0.4644  1.7553 -1.6528
   55bbb     H2 1569   8.918   4.436   9.167 -0.9227 -0.3539 -1.4836
   55bbb     C2 1570   8.885   4.146   9.348 -0.4182  0.0465 -0.0158
   55bbb     H3 1571   8.983   4.098   9.358 -0.7998 -1.2658 -2.0802
   55bbb     H4 1572   8.837   4.088   9.268  0.3933 -0.6744  0.0075
   55bbb     C3 1573   8.974   4.371   9.421 -0.0902  0.2466  0.4665
   55bbb     H5 1574   8.919   4.394   9.513  1.0723  0.5904  1.0963
   55bbb     H6 1575   9.004   4.464   9.371 -0.0473  0.5239  1.0042
   55bbb     C4 1576   9.111   4.309   9.454 -0.1812  0.4347 -0.7154
   55bbb     H7 1577   9.153   4.258   9.367 -1.5691  0.5284 -1.4486
   55bbb     H8 1578   9.097   4.227   9.526 -3.3419  1.6882  0.2595
   55bbb     C5 1579   8.830   4.273   9.073 -0.2537 -0.3336 -0.1713
   55bbb     H9 1580   8.730   4.305   9.104  0.6460  1.8878  0.7026
   55bbb    H10 1581   8.828   4.164   9.063 -0.6024 -0.2562 -1.1438
   55bbb     C6 1582   8.799   4.125   9.479 -0.3536 -0.4388 -0.1584
   55bbb    H11 1583   8.698   4.162   9.458 -0.0355 -0.3498 -1.6370
   55bbb    H12 1584   8.839   4.179   9.565 -0.0040  1.3613 -1.3912
   55bbb     C7 1585   9.215   4.423   9.501  0.1548 -0.2045  0.7536
   55bbb    H13 1586   9.210   4.507   9.431  0.3984 -0.3430  0.5693
   55bbb    H14 1587   9.318   4.386   9.500 -0.2970 -1.4882  0.1979
   55bbb     C8 1588   8.780   3.974   9.517  0.0422  0.0690  0.4413
   55bbb    H15 1589   8.729   3.963   9.614  1.8912  0.7074  1.5228
   55bbb    H16 1590   8.883   3.939   9.524 -0.5221 -1.5353  1.3550
   55bbb     C9 1591   8.861   4.344   8.935 -0.3055 -0.5044  0.0981
   55bbb    H17 1592   8.838   4.284   8.846  1.3746 -1.6794  0.4058
   55bbb    H18 1593   8.969   4.366   8.933 -0.0984 -1.4041  0.8690
   55bbb     O1 1594   9.180   4.486   9.627 -0.0787  0.4051  0.8940
   56bbb     N1 1595   8.874   4.460  10.673 -0.5338  0.0480 -0.3704
   56bbb     C1 1596   8.740   4.452  10.602 -0.1769  0.2875 -0.0428
   56bbb     H1 1597   8.706   4.348  10.588  0.7147  0.1560 -1.5618
   56bbb     H2 1598   8.729   4.498  10.503 -2.1818 -0.2039 -0.0920
   56bbb     C2 1599   8.882   4.405  10.807  0.0103  0.4605  0.0730
   56bbb     H3 1600   8.817   4.467  10.870  0.6150  1.2738 -0.0923
   56bbb     H4 1601   8.985   4.422  10.842 -0.7595  0.2494  2.6914
   56bbb     C3 1602   8.923   4.597  10.672  0.1450  0.1318  0.4351
   56bbb     H5 1603   8.889   4.656  10.758 -0.3709  4.3465 -2.3424
   56bbb     H6 1604   8.892   4.660  10.587  0.5949 -0.5657 -0.2606
   56bbb     C4 1605   9.077   4.603  10.662  0.3690 -1.1256  0.3148
   56bbb     H7 1606   9.128   4.561  10.750  0.0908 -1.6161  0.2461
   56bbb     H8 1607   9.122   4.703  10.657 -0.4362 -0.7981 -1.1198
   56bbb     C5 1608   8.626   4.521  10.674  0.2777  0.4160  0.2329
   56bbb     H9 1609   8.637   4.630  10.677  0.3226  0.4630 -0.9319
   56bbb    H10 1610   8.618   4.476  10.774 -0.0365 -0.7833 -0.3124
   56bbb     C6 1611   8.862   4.256  10.834 -0.9028 -0.1613  0.0349
   56bbb    H11 1612   8.927   4.197  10.769  0.0610  1.5460 -0.6178
   56bbb    H12 1613   8.758   4.232  10.808 -1.0453 -0.4836  0.8930
   56bbb     C7 1614   9.124   4.520  10.537  0.0823 -0.4900 -0.0331
   56bbb    H13 1615   9.080   4.420  10.532  0.3330 -0.5697 -0.9288
   56bbb    H14 1616   9.232   4.504  10.550  0.1392  1.3700  2.2920
   56bbb     C8 1617   8.888   4.218  10.986  0.6023 -0.5659 -0.1362
   56bbb    H15 1618   8.808   4.259  11.050  0.5798  1.6935 -1.4804
   56bbb    H16 1619   8.989   4.236  11.025 -0.0520 -1.2206  2.0104
   56bbb     C9 1620   8.490   4.490  10.601 -0.0666 -0.7536  0.2166
   56bbb    H17 1621   8.457   4.389  10.631 -0.4703 -0.5675  0.4143
   56bbb    H18 1622   8.506   4.489  10.493  2.4328  1.7727  0.4560
   56bbb     O1 1623   9.090   4.585  10.416 -0.2911  0.2694  0.2917
   57bbb     N1 1624   9.862   5.521  11.747  0.1499  0.0222  0.4581
   57bbb     C1 1625   9.883   5.563  11.888  0.2878  0.0328  0.2846
   57bbb     H1 1626   9.973   5.624  11.896  0.1324  0.3109 -0.0626
   57bbb     H2 1627   9.895   5.476  11.953  0.7214  0.3578  0.6488
   57bbb     C2 1628   9.824   5.633  11.650 -0.5169 -0.4585  0.7259
   57bbb     H3 1629   9.904   5.706  11.635  0.1881 -1.3014  0.3590
   57bbb     H4 1630   9.737   5.685  11.692  0.1429 -0.4918  2.1894
   57bbb     C3 1631   9.971   5.441  11.681 -0.3883 -0.8078  0.1792
   57bbb     H5 1632  10.057   5.506  11.661 -0.8167 -0.4910 -0.6589
   57bbb     H6 1633   9.940   5.411  11.581  1.9559  0.2395 -0.9546
   57bbb     C4 1634  10.013   5.308  11.756  0.6665 -1.0545  0.3320
   57bbb     H7 1635  10.058   5.334  11.853  0.7429  1.2164 -0.2584
   57bbb     H8 1636  10.095   5.266  11.698  0.2849 -1.5243  0.1321
   57bbb     C5 1637   9.767   5.642  11.950 -0.3965  0.2501  0.6740
   57bbb     H9 1638   9.677   5.580  11.936  0.6650 -1.2963  0.4772
   57bbb    H10 1639   9.755   5.736  11.894 -1.7423  0.8093  1.8215
   57bbb     C6 1640   9.767   5.594  11.511  0.3810  0.2098 -0.7672
   57bbb    H11 1641   9.843   5.563  11.439  1.0542  0.9347 -0.3923
   57bbb    H12 1642   9.720   5.686  11.475  0.4492  2.4469  4.0315
   57bbb     C7 1643   9.895   5.208  11.765  0.2984 -0.1425  0.1405
   57bbb    H13 1644   9.813   5.269  11.805  0.2036  0.4812 -0.9483
   57bbb    H14 1645   9.907   5.120  11.829 -0.7336 -2.5651 -2.7623
   57bbb     C8 1646   9.667   5.482  11.529  0.4447  0.4531  0.3828
   57bbb    H15 1647   9.593   5.525  11.598 -0.8468 -3.2749  1.5794
   57bbb    H16 1648   9.707   5.401  11.592 -0.3860 -0.1164  0.1883
   57bbb     C9 1649   9.794   5.661  12.100  0.4296  0.2779  0.5294
   57bbb    H17 1650   9.704   5.704  12.145  0.4275  0.7141  0.1181
   57bbb    H18 1651   9.880   5.728  12.114  0.9287 -0.4471  0.9586
   57bbb     O1 1652   9.861   5.161  11.634 -0.3740  0.0955  0.9571
   58bbb     N1 1653   9.627   4.382  11.029  0.1045  0.6799 -0.6092
   58bbb     C1 1654   9.714   4.476  10.954 -0.0313 -0.5975 -0.6091
   58bbb     H1 1655   9.650   4.555  10.914  0.2550 -1.2572 -2.4460
   58bbb     H2 1656   9.752   4.433  10.861  0.1459  0.7741 -1.1902
   58bbb     C2 1657   9.524   4.315  10.950 -0.6164 -0.4105  0.0648
   58bbb     H3 1658   9.479   4.234  11.009  0.0525 -0.4545  0.5301
   58bbb     H4 1659   9.562   4.267  10.858  1.9234  3.7493 -1.3397
   58bbb     C3 1660   9.581   4.426  11.162  0.1756 -0.0689 -0.4506
   58bbb     H5 1661   9.525   4.520  11.163 -2.9520 -1.7103  2.8113
   58bbb     H6 1662   9.668   4.450  11.224 -0.3464 -2.6398  1.4273
   58bbb     C4 1663   9.494   4.325  11.246  0.3412 -0.7359  0.2127
   58bbb     H7 1664   9.541   4.226  11.242  3.6800  0.6475  0.9696
   58bbb     H8 1665   9.390   4.317  11.213  0.3741  3.5011 -1.6304
   58bbb     C5 1666   9.830   4.553  11.036  0.7609  0.1757 -0.2926
   58bbb     H9 1667   9.888   4.475  11.087  0.8728  0.4563  0.0078
   58bbb    H10 1668   9.785   4.621  11.109  1.2948  1.2789 -0.9735
   58bbb     C6 1669   9.408   4.404  10.910  0.2009 -0.1327 -0.8275
   58bbb    H11 1670   9.439   4.489  10.847 -0.1493 -0.4518 -1.4338
   58bbb    H12 1671   9.364   4.451  10.999 -2.0695  1.8558 -2.8481
   58bbb     C7 1672   9.500   4.374  11.393  0.0138  0.0870  0.1664
   58bbb    H13 1673   9.604   4.368  11.429  0.2525  0.2074 -0.4780
   58bbb    H14 1674   9.437   4.319  11.464  0.4067  1.4596  1.6395
   58bbb     C8 1675   9.304   4.314  10.849  0.5365 -0.3901 -0.3446
   58bbb    H15 1676   9.225   4.370  10.799  1.6323  0.5990 -1.0132
   58bbb    H16 1677   9.256   4.257  10.930  0.4473 -2.2727 -1.6436
   58bbb     C9 1678   9.916   4.648  10.957 -0.0084 -0.4314  0.3848
   58bbb    H17 1679   9.952   4.596  10.867 -0.1892 -0.3179  0.2464
   58bbb    H18 1680  10.006   4.674  11.014  0.8469  0.8775 -1.4320
   58bbb     O1 1681   9.451   4.507  11.392  0.2719 -0.2621  0.3693
   59bbb     N1 1682   8.764   6.777  10.075  0.0957  0.9133  0.1642
   59bbb     C1 1683   8.895   6.717  10.122 -1.5725  0.2257 -0.1661
   59bbb     H1 1684   8.898   6.607  10.118  1.2345  0.1917  0.8655
   59bbb     H2 1685   8.912   6.747  10.225 -2.0442 -0.1127  0.0149
   59bbb     C2 1686   8.763   6.923  10.086  0.2823  0.3544  0.6283
   59bbb     H3 1687   8.673   6.959  10.033  0.6834 -0.2169 -0.4821
   59bbb     H4 1688   8.846   6.966  10.029  0.1844  0.5194  0.6093
   59bbb     C3 1689   8.643   6.710  10.129  0.7042 -0.2062  0.3256
   59bbb     H5 1690   8.618   6.718  10.236 -0.4376  2.6208 -0.0506
   59bbb     H6 1691   8.651   6.602  10.114 -1.1125 -0.7893  2.8402
   59bbb     C4 1692   8.510   6.748  10.065  0.4305 -0.4328 -0.1160
   59bbb     H7 1693   8.514   6.777   9.959 -2.6644  2.2702  0.3579
   59bbb     H8 1694   8.475   6.841  10.112  0.8397 -0.8223  0.9966
   59bbb     C5 1695   9.025   6.767  10.050  0.6760 -0.0686 -0.0198
   59bbb     H9 1696   9.105   6.696  10.073 -0.1255 -0.6077  1.2474
   59bbb    H10 1697   9.042   6.863  10.101  0.7968 -0.5286  0.8322
   59bbb     C6 1698   8.775   6.977  10.229 -0.5123  0.2135  0.2532
   59bbb    H11 1699   8.871   6.936  10.263 -0.1401  0.7490 -0.1438
   59bbb    H12 1700   8.700   6.938  10.301 -0.3855 -2.1770 -0.7992
   59bbb     C7 1701   8.402   6.634  10.059 -0.0032  0.0069 -0.3620
   59bbb    H13 1702   8.440   6.556   9.991 -0.7662 -0.7167  0.0263
   59bbb    H14 1703   8.304   6.668  10.022 -1.0068 -0.2756  1.8979
   59bbb     C8 1704   8.782   7.133  10.238 -0.3026 -0.8547 -0.0773
   59bbb    H15 1705   8.875   7.168  10.191  0.9372 -1.3021  1.9186
   59bbb    H16 1706   8.790   7.171  10.341 -0.5287  1.2485 -0.7866
   59bbb     C9 1707   9.010   6.793   9.897 -0.2986 -0.3252 -0.0824
   59bbb    H17 1708   8.928   6.865   9.884  0.0762  0.1498  0.1461
   59bbb    H18 1709   8.992   6.696   9.848  0.0523 -0.6923  0.5096
   59bbb     O1 1710   8.374   6.574  10.194 -0.4361  0.0211 -0.3534
   60bbb     N1 1711   8.798   5.425  10.186  0.2779  0.7675  0.1225
   60bbb     C1 1712   8.778   5.330  10.075 -0.1767  0.7256  0.9969
   60bbb     H1 1713   8.880   5.306  10.041 -1.6959 -0.1741 -3.6421
   60bbb     H2 1714   8.726   5.378   9.991  1.0945 -1.7153 -1.3397
   60bbb     C2 1715   8.889   5.539  10.163 -0.3879 -0.1292  0.1089
   60bbb     H3 1716   8.882   5.612  10.245  0.5840  0.9562 -0.7506
   60bbb     H4 1717   8.849   5.597  10.079 -3.2845 -0.9031  0.8150
   60bbb     C3 1718   8.668   5.481  10.234  0.6917  0.5208 -0.8361
   60bbb     H5 1719   8.692   5.550  10.316  1.3141  0.6473 -1.1211
   60bbb     H6 1720   8.611   5.399  10.280  1.3221  1.4325  1.7737
   60bbb     C4 1721   8.574   5.557  10.137  0.4681  0.3202  0.4034
   60bbb     H7 1722   8.529   5.494  10.060 -1.4236  1.9639  0.0914
   60bbb     H8 1723   8.640   5.624  10.081  1.1263 -0.3362  0.3720
   60bbb     C5 1724   8.711   5.198  10.112 -0.4263 -0.7926  0.2861
   60bbb     H9 1725   8.611   5.220  10.153 -0.3532  0.3547 -0.1293
   60bbb    H10 1726   8.766   5.142  10.188 -0.7218 -1.0079  0.3427
   60bbb     C6 1727   9.037   5.514  10.141 -0.6592 -0.2920  0.3739
   60bbb    H11 1728   9.054   5.473  10.041  0.9949 -1.2108  0.9808
   60bbb    H12 1729   9.056   5.434  10.214 -1.5450 -2.6865 -1.8641
   60bbb     C7 1730   8.470   5.650  10.210 -0.4190  0.3897 -0.6965
   60bbb    H13 1731   8.530   5.704  10.284 -0.1374 -1.3308  0.3887
   60bbb    H14 1732   8.393   5.587  10.255  1.6356 -1.3931  0.5185
   60bbb     C8 1733   9.126   5.642  10.151  0.3391 -0.2947 -0.2497
   60bbb    H15 1734   9.229   5.604  10.150  1.2487  1.9426 -2.2043
   60bbb    H16 1735   9.110   5.691  10.248 -2.2462 -2.3723  0.4772
   60bbb     C9 1736   8.698   5.105   9.983 -0.1779 -0.0463 -0.1755
   60bbb    H17 1737   8.626   5.025  10.006  1.5353 -1.4450  0.5890
   60bbb    H18 1738   8.796   5.064   9.957 -0.7604 -0.5452 -1.6805
   60bbb     O1 1739   8.415   5.736  10.108 -0.5836  0.2229  0.1732
   61bbb     N1 1740   8.945   6.778  11.282  0.1182  1.3973  0.9501
   61bbb     C1 1741   8.810   6.846  11.284  0.8007 -0.2303  0.1378
   61bbb     H1 1742   8.728   6.784  11.320 -0.4598  2.2215  1.8005
   61bbb     H2 1743   8.775   6.871  11.183 -0.8748  1.7159  1.1209
   61bbb     C2 1744   9.016   6.743  11.408  0.5618  0.6510 -0.5270
   61bbb     H3 1745   9.025   6.839  11.459 -2.1483  0.8369 -0.2482
   61bbb     H4 1746   9.120   6.715  11.386  0.6013 -0.1897  0.6642
   61bbb     C3 1747   8.947   6.680  11.173  0.0759  0.0776 -0.1165
   61bbb     H5 1748   8.857   6.619  11.185  0.6943 -0.9149 -0.4798
   61bbb     H6 1749   9.027   6.607  11.186  1.4326  1.7731  1.8084
   61bbb     C4 1750   8.976   6.742  11.036 -0.0155  0.5034  0.4437
   61bbb     H7 1751   8.925   6.837  11.016  0.2842  0.8802  1.4166
   61bbb     H8 1752   8.959   6.670  10.955  1.4616 -1.7395  2.0419
   61bbb     C5 1753   8.798   6.973  11.378  0.2518  0.1964 -0.1608
   61bbb     H9 1754   8.804   6.937  11.482 -0.4799  2.8481  0.8851
   61bbb    H10 1755   8.699   7.014  11.356  0.7301  0.2651 -2.3551
   61bbb     C6 1756   8.941   6.641  11.499  0.3792  0.2098 -0.6151
   61bbb    H11 1757   8.888   6.572  11.434  0.6897  0.7942 -1.5050
   61bbb    H12 1758   8.863   6.691  11.558 -0.9918 -2.2225 -0.2542
   61bbb     C7 1759   9.130   6.762  11.027  0.2766 -0.4050  0.1489
   61bbb    H13 1760   9.177   6.669  11.061 -1.3663 -1.1360  0.5064
   61bbb    H14 1761   9.167   6.829  11.106 -0.1249 -0.0044  0.0073
   61bbb     C8 1762   9.028   6.562  11.596 -0.3732  0.5204 -0.5398
   61bbb    H15 1763   9.089   6.491  11.539 -1.6618 -0.5209 -0.6613
   61bbb    H16 1764   8.966   6.499  11.661 -0.8312  0.0119 -1.4428
   61bbb     C9 1765   8.912   7.081  11.352  1.0510  0.2308  0.4933
   61bbb    H17 1766   8.870   7.149  11.277  1.0834 -2.1901 -1.8610
   61bbb    H18 1767   8.997   7.029  11.308  0.6210  0.1723 -0.2700
   61bbb     O1 1768   9.169   6.812  10.897  0.0853 -0.5590 -0.1877
   62bbb     N1 1769  10.047   6.499  11.381 -0.1747  0.2360  0.3233
   62bbb     C1 1770  10.168   6.479  11.299  0.6328  0.0430 -0.5371
   62bbb     H1 1771  10.255   6.525  11.349  0.4137 -1.0508  0.9012
   62bbb     H2 1772  10.137   6.518  11.201  0.5387  2.3516  0.3414
   62bbb     C2 1773  10.050   6.448  11.520 -0.4537  0.2303  0.0966
   62bbb     H3 1774  10.034   6.339  11.516 -0.8053  0.2730  0.3374
   62bbb     H4 1775   9.970   6.494  11.579  0.4285  0.4577  1.1361
   62bbb     C3 1776   9.986   6.632  11.368 -0.2809 -0.6525 -0.7135
   62bbb     H5 1777  10.060   6.703  11.405 -1.3499 -0.4646  1.1951
   62bbb     H6 1778   9.898   6.635  11.434 -0.3774 -0.5903 -0.8440
   62bbb     C4 1779   9.941   6.669  11.229 -0.0456 -0.4680  0.0416
   62bbb     H7 1780   9.881   6.593  11.177  0.7314 -0.6914 -0.5478
   62bbb     H8 1781  10.029   6.675  11.164 -0.5727  2.2558 -0.5816
   62bbb     C5 1782  10.198   6.329  11.277 -0.0502 -0.5115  0.0524
   62bbb     H9 1783  10.240   6.279  11.365  0.8175 -0.7696 -0.5030
   62bbb    H10 1784  10.281   6.324  11.206 -1.2663 -3.0114 -1.2972
   62bbb     C6 1785  10.185   6.461  11.607  1.5209  0.0232 -0.6860
   62bbb    H11 1786  10.204   6.568  11.623  0.7314 -0.0562  0.9735
   62bbb    H12 1787  10.272   6.417  11.555  2.8084 -1.0800  2.1949
   62bbb     C7 1788   9.894   6.812  11.207  0.4322  0.2042 -0.1681
   62bbb    H13 1789   9.977   6.881  11.226  2.2326 -1.5936 -1.1079
   62bbb    H14 1790   9.811   6.835  11.275 -0.3923  0.2351 -1.1722
   62bbb     C8 1791  10.169   6.404  11.749 -0.2940 -0.1326  0.1767
   62bbb    H15 1792  10.172   6.294  11.746 -0.6761 -0.1360 -1.5779
   62bbb    H16 1793  10.078   6.440  11.798 -1.2362 -1.8570 -0.1954
   62bbb     C9 1794  10.095   6.241  11.202 -0.0787 -0.6498 -0.8975
   62bbb    H17 1795  10.021   6.211  11.277  1.0790  0.4399  0.7365
   62bbb    H18 1796  10.157   6.159  11.163  2.8249 -0.0786  2.0813
   62bbb     O1 1797   9.845   6.821  11.070 -0.7244  0.1910  0.5961
   63bbb     N1 1798   5.995   3.851  13.083 -0.0244 -0.5719 -0.5393
   63bbb     C1 1799   5.886   3.900  13.177  0.2070  0.1512  0.4508
   63bbb     H1 1800   5.889   4.008  13.193  1.1567  0.3174 -0.6713
   63bbb     H2 1801   5.900   3.848  13.273 -1.5876 -1.0843  0.0969
   63bbb     C2 1802   6.132   3.857  13.145 -0.1759  0.4234  0.5768
   63bbb     H3 1803   6.203   3.796  13.088 -2.2199 -0.6065 -0.9888
   63bbb     H4 1804   6.129   3.797  13.237 -1.5351 -2.5512 -1.2640
   63bbb     C3 1805   5.985   3.919  12.951 -0.6774 -0.7300  0.5428
   63bbb     H5 1806   5.994   4.027  12.969 -0.6149 -0.6930  0.2980
   63bbb     H6 1807   5.893   3.882  12.904  0.5479 -0.8952 -1.8918
   63bbb     C4 1808   6.097   3.877  12.850 -1.0400 -0.3749  0.7453
   63bbb     H7 1809   6.085   3.772  12.819 -0.7178  0.1168 -1.1345
   63bbb     H8 1810   6.199   3.891  12.889 -0.9874 -0.9669  0.8366
   63bbb     C5 1811   5.746   3.865  13.122  0.2831 -0.1019 -0.1181
   63bbb     H9 1812   5.755   3.756  13.107 -0.5394  0.0175 -1.6906
   63bbb    H10 1813   5.724   3.910  13.025 -0.6560 -0.4778 -0.0876
   63bbb     C6 1814   6.205   3.997  13.153 -0.5726  0.3678 -0.5188
   63bbb    H11 1815   6.140   4.066  13.207  2.7445  1.9194  1.8329
   63bbb    H12 1816   6.225   4.045  13.056 -0.7255  0.0932 -0.6855
   63bbb     C7 1817   6.082   3.964  12.722  0.6313 -0.1430  0.1496
   63bbb    H13 1818   5.979   3.956  12.686  0.6167 -0.0964  0.1818
   63bbb    H14 1819   6.145   3.925  12.641 -0.9117 -0.4305 -0.9622
   63bbb     C8 1820   6.338   3.979  13.235 -0.2237  0.4978  0.1670
   63bbb    H15 1821   6.384   4.076  13.255 -1.2066  1.5568 -2.3030
   63bbb    H16 1822   6.407   3.923  13.170 -0.0630  2.1411 -1.1585
   63bbb     C9 1823   5.621   3.881  13.218 -0.2508 -0.2745 -0.5986
   63bbb    H17 1824   5.655   3.847  13.317 -0.3790  2.6996  0.5618
   63bbb    H18 1825   5.541   3.826  13.167 -0.6660  0.0885 -0.3404
   63bbb     O1 1826   6.117   4.100  12.735 -0.4249  0.7185 -0.3983
   64bbb     N1 1827   6.503   4.777  13.565  0.0213 -0.3956 -1.0785
   64bbb     C1 1828   6.397   4.880  13.591  0.0816 -0.1628  0.5545
   64bbb     H1 1829   6.410   4.969  13.529  1.6906 -0.0076  1.0743
   64bbb     H2 1830   6.418   4.919  13.691 -0.6161  0.2751  0.5319
   64bbb     C2 1831   6.510   4.661  13.667 -0.4117 -0.0107  0.8530
   64bbb     H3 1832   6.597   4.601  13.636 -0.9414  0.0748 -0.8881
   64bbb     H4 1833   6.416   4.611  13.645 -0.3834  1.0129 -1.9674
   64bbb     C3 1834   6.499   4.725  13.429  0.1120  0.4482 -0.7316
   64bbb     H5 1835   6.512   4.806  13.356 -1.1876  0.1511 -1.3343
   64bbb     H6 1836   6.395   4.691  13.418 -0.3127  0.9076  1.3817
   64bbb     C4 1837   6.599   4.614  13.388 -0.1192  0.3582 -0.1198
   64bbb     H7 1838   6.568   4.521  13.437  0.6141 -0.1957 -0.6827
   64bbb     H8 1839   6.698   4.637  13.428 -0.5642 -0.3282  1.4201
   64bbb     C5 1840   6.249   4.830  13.581  0.2267  0.1718 -0.2889
   64bbb     H9 1841   6.242   4.733  13.632 -1.0421  0.2346 -0.3037
   64bbb    H10 1842   6.235   4.811  13.474 -1.2751  0.1736 -0.1191
   64bbb     C6 1843   6.517   4.704  13.817  0.2950 -0.0648  0.4352
   64bbb    H11 1844   6.525   4.619  13.886  3.1127  0.5346  0.9811
   64bbb    H12 1845   6.428   4.765  13.838  0.2746 -0.6507  2.1286
   64bbb     C7 1846   6.596   4.604  13.238  0.3646  0.5554  0.1990
   64bbb    H13 1847   6.671   4.526  13.218  1.9251  1.4786  2.0941
   64bbb    H14 1848   6.637   4.700  13.202 -0.4662  1.1750  0.8666
   64bbb     C8 1849   6.634   4.792  13.853 -0.8116 -0.3898 -0.0669
   64bbb    H15 1850   6.614   4.819  13.958 -2.0026  0.7690 -0.5606
   64bbb    H16 1851   6.630   4.883  13.793  0.1271  0.8410  1.6535
   64bbb     C9 1852   6.147   4.934  13.636  0.0401 -1.2875 -0.0236
   64bbb    H17 1853   6.183   4.973  13.732  1.0433 -1.5153 -0.2914
   64bbb    H18 1854   6.054   4.878  13.652  0.7283 -2.0530  1.5607
   64bbb     O1 1855   6.472   4.555  13.192  0.5906  0.0575 -0.1319
   65bbb     N1 1856   6.909   3.999  11.499  0.6335 -0.9225  0.0606
   65bbb     C1 1857   6.973   3.919  11.389  0.3647 -0.4245  0.5532
   65bbb     H1 1858   7.049   3.981  11.339 -0.9003  1.9305  1.3805
   65bbb     H2 1859   6.893   3.886  11.322 -1.5939 -0.9654  3.0094
   65bbb     C2 1860   6.796   4.071  11.452  0.3357  0.3189  0.0213
   65bbb     H3 1861   6.734   4.093  11.541  0.4901 -1.5304  0.6241
   65bbb     H4 1862   6.731   4.005  11.393  1.7103 -2.4520  1.4255
   65bbb     C3 1863   6.993   4.075  11.597  0.0560  0.4829  0.8205
   65bbb     H5 1864   7.034   4.170  11.563  1.0377  0.2015  1.1932
   65bbb     H6 1865   7.084   4.017  11.617 -1.3268 -2.7165 -1.2864
   65bbb     C4 1866   6.936   4.111  11.731  0.2923  0.3234 -0.5432
   65bbb     H7 1867   6.875   4.202  11.718  1.5638  1.1186 -1.1480
   65bbb     H8 1868   7.020   4.144  11.794  1.6392 -2.2591 -0.8969
   65bbb     C5 1869   7.041   3.792  11.444  0.1829 -0.0738  0.7885
   65bbb     H9 1870   7.119   3.812  11.519 -0.1691  0.7378  0.9489
   65bbb    H10 1871   7.088   3.749  11.355  2.4257  1.5974  1.0758
   65bbb     C6 1872   6.820   4.209  11.380 -0.2075  0.3690  0.1000
   65bbb    H11 1873   6.897   4.205  11.303 -0.8984  0.4049 -0.6019
   65bbb    H12 1874   6.855   4.284  11.452 -1.3533  0.9809  0.0315
   65bbb     C7 1875   6.859   3.994  11.799 -0.2120 -0.2036 -0.2590
   65bbb    H13 1876   6.925   3.924  11.851 -1.5285 -0.6169  0.9137
   65bbb    H14 1877   6.792   3.945  11.727  0.0749  1.7326 -1.9539
   65bbb     C8 1878   6.697   4.282  11.317 -0.9527 -0.0066 -0.0939
   65bbb    H15 1879   6.733   4.370  11.263 -0.3567  0.2889  0.7612
   65bbb    H16 1880   6.638   4.320  11.401  0.9149 -0.3293  1.4306
   65bbb     C9 1881   6.949   3.694  11.508  0.2588 -0.4477 -0.7254
   65bbb    H17 1882   6.857   3.682  11.450 -0.1250 -1.3144  0.0361
   65bbb    H18 1883   6.912   3.740  11.600  1.5848  0.4554 -0.6178
   65bbb     O1 1884   6.789   4.054  11.901 -0.2637  0.0509 -0.2896
   66bbb     N1 1885   7.109   3.286  12.395  0.2840 -0.0040 -0.0129
   66bbb     C1 1886   7.249   3.280  12.420 -0.2797 -0.4661  0.1162
   66bbb     H1 1887   7.289   3.184  12.385  1.5569 -0.0537  0.9287
   66bbb     H2 1888   7.264   3.294  12.527 -1.4358  0.3167  0.1953
   66bbb     C2 1889   7.030   3.242  12.508  0.2539 -0.0604  0.4090
   66bbb     H3 1890   7.080   3.153  12.548  0.7062  0.0606  0.1181
   66bbb     H4 1891   6.926   3.217  12.481 -0.0108  1.7112 -0.3764
   66bbb     C3 1892   7.069   3.224  12.269 -1.3139  0.1329  0.0513
   66bbb     H5 1893   7.094   3.118  12.262 -1.9113  0.0965 -2.5615
   66bbb     H6 1894   7.135   3.273  12.196  0.3005 -0.6290  0.9465
   66bbb     C4 1895   6.926   3.237  12.222 -0.2711 -0.0918  0.0191
   66bbb     H7 1896   6.851   3.184  12.282 -0.4052  0.7115  0.5689
   66bbb     H8 1897   6.907   3.194  12.123  0.3158  0.3586 -0.2917
   66bbb     C5 1898   7.315   3.395  12.341 -0.3767 -0.1663  0.4012
   66bbb     H9 1899   7.314   3.478  12.412 -0.5687 -1.7429  2.3508
   66bbb    H10 1900   7.261   3.423  12.250 -1.7632 -1.0161  0.9263
   66bbb     C6 1901   7.015   3.336  12.624 -0.2935 -0.7413 -0.6112
   66bbb    H11 1902   7.106   3.349  12.684 -0.5083 -0.6867 -0.2975
   66bbb    H12 1903   6.947   3.294  12.699 -0.7027  0.9179 -0.0185
   66bbb     C7 1904   6.885   3.383  12.202 -0.0415  0.3698  0.2681
   66bbb    H13 1905   6.933   3.456  12.267  0.5261 -0.3841  0.7116
   66bbb    H14 1906   6.777   3.390  12.219 -0.2167  1.9894 -1.2554
   66bbb     C8 1907   6.959   3.475  12.580  0.2888 -0.4892  0.6345
   66bbb    H15 1908   6.868   3.464  12.520 -0.5966 -0.3593  1.9275
   66bbb    H16 1909   7.032   3.509  12.504 -1.8040  1.8248 -0.4987
   66bbb     C9 1910   7.461   3.374  12.292  0.3477  0.6490 -1.0538
   66bbb    H17 1911   7.492   3.459  12.231  3.2239  2.0510  2.0706
   66bbb    H18 1912   7.457   3.286  12.226 -2.8281 -0.3924  0.3610
   66bbb     O1 1913   6.910   3.421  12.063 -0.3211 -0.5460 -0.0898
   67bbb     N1 1914   5.303   5.724  11.441 -0.4711 -0.4111 -0.3413
   67bbb     C1 1915   5.270   5.869  11.469 -0.2168 -0.1726 -0.2231
   67bbb     H1 1916   5.361   5.929  11.484 -1.8605  2.5318 -0.2675
   67bbb     H2 1917   5.216   5.865  11.564 -1.2079  1.7328 -0.6638
   67bbb     C2 1918   5.328   5.687  11.300 -0.2892  0.4936  0.2400
   67bbb     H3 1919   5.413   5.736  11.251 -0.3442 -0.1428 -0.5215
   67bbb     H4 1920   5.242   5.707  11.235  0.1057 -2.1599 -1.2463
   67bbb     C3 1921   5.401   5.660  11.535  0.4192  0.1358  0.5697
   67bbb     H5 1922   5.499   5.694  11.499  1.1621 -1.0200  1.4175
   67bbb     H6 1923   5.402   5.551  11.530  0.8177 -0.1779  4.3520
   67bbb     C4 1924   5.392   5.699  11.681  0.1264  0.7243  0.0835
   67bbb     H7 1925   5.289   5.695  11.718 -0.7765 -0.6709 -2.3770
   67bbb     H8 1926   5.427   5.802  11.694  0.3529  0.9786 -2.1376
   67bbb     C5 1927   5.181   5.936  11.355 -0.0373 -0.0613 -0.3569
   67bbb     H9 1928   5.246   5.931  11.267  0.4714  1.5359 -0.1091
   67bbb    H10 1929   5.178   6.043  11.378  0.2498 -0.1950  0.3335
   67bbb     C6 1930   5.344   5.539  11.276  0.3998  0.4143 -0.1587
   67bbb    H11 1931   5.267   5.493  11.340  0.7752 -1.5249 -1.0203
   67bbb    H12 1932   5.443   5.507  11.311 -0.2442  0.3599  1.7504
   67bbb     C7 1933   5.475   5.601  11.768  0.6499  0.1741  0.3449
   67bbb    H13 1934   5.421   5.506  11.755  1.6645 -0.1133 -2.3644
   67bbb    H14 1935   5.456   5.629  11.872  1.3727 -0.7711  0.7480
   67bbb     C8 1936   5.314   5.484  11.130  0.3426 -0.0133  0.3062
   67bbb    H15 1937   5.340   5.378  11.137 -1.8036 -0.5504  0.7043
   67bbb    H16 1938   5.382   5.534  11.060 -1.4486  3.5789  0.8696
   67bbb     C9 1939   5.043   5.872  11.338  0.8647 -0.4917 -0.6538
   67bbb    H17 1940   5.056   5.764  11.325 -0.6195 -0.5526 -1.9084
   67bbb    H18 1941   4.988   5.914  11.253  1.6554  1.4350 -0.2645
   67bbb     O1 1942   5.616   5.601  11.726 -0.2420  0.0237  0.4567
   68bbb     N1 1943   5.236   4.393  11.734 -0.4944 -0.0090  0.8873
   68bbb     C1 1944   5.318   4.352  11.853  0.7341 -0.1373 -0.4834
   68bbb     H1 1945   5.255   4.286  11.913  2.1368 -0.9645  0.1240
   68bbb     H2 1946   5.327   4.441  11.917 -3.8500  0.1509  0.0757
   68bbb     C2 1947   5.195   4.271  11.651 -0.1617 -0.4948 -0.1275
   68bbb     H3 1948   5.284   4.219  11.614  0.3099  2.3012 -3.4537
   68bbb     H4 1949   5.149   4.300  11.556 -0.2392 -1.7802 -0.5117
   68bbb     C3 1950   5.306   4.496  11.650  0.0087  0.0529  0.2505
   68bbb     H5 1951   5.239   4.512  11.565 -1.7503 -0.7036  1.4276
   68bbb     H6 1952   5.395   4.440  11.617 -1.1344 -0.2882 -2.5569
   68bbb     C4 1953   5.349   4.624  11.717 -0.5545  0.1524 -0.4040
   68bbb     H7 1954   5.439   4.597  11.773 -1.1824  1.0277  1.0963
   68bbb     H8 1955   5.281   4.654  11.798 -0.4786 -0.1915 -0.2076
   68bbb     C5 1956   5.452   4.282  11.817 -0.0801  0.3013  0.7665
   68bbb     H9 1957   5.492   4.310  11.719 -1.5608 -1.4920 -0.4063
   68bbb    H10 1958   5.438   4.175  11.799  0.5155  0.6509 -2.2828
   68bbb     C6 1959   5.093   4.166  11.718  0.0368  0.2245  0.3430
   68bbb    H11 1960   5.120   4.147  11.823  0.0897  0.2418  0.3331
   68bbb    H12 1961   5.107   4.076  11.657  0.2270  0.0007  0.7173
   68bbb     C7 1962   5.393   4.738  11.618 -0.0160 -0.0054  0.1104
   68bbb    H13 1963   5.304   4.795  11.588  0.6897  0.5939 -0.8843
   68bbb    H14 1964   5.435   4.702  11.524  2.1664 -0.7493  1.3045
   68bbb     C8 1965   4.947   4.214  11.727 -0.1658 -0.9878  0.0089
   68bbb    H15 1966   4.947   4.309  11.672  1.5261 -0.0377  1.5262
   68bbb    H16 1967   4.918   4.241  11.829 -1.3275 -1.2412 -0.2451
   68bbb     C9 1968   5.567   4.312  11.919  0.3733  0.1699  0.6079
   68bbb    H17 1969   5.659   4.276  11.872  0.2529  1.3902 -0.6153
   68bbb    H18 1970   5.559   4.266  12.018  1.7237 -1.5570 -0.0494
   68bbb     O1 1971   5.497   4.813  11.680 -0.1464 -0.4294  0.5635
   69bbb     N1 1972   6.874   5.237   9.997  0.8707 -0.2893  0.3501
   69bbb     C1 1973   6.777   5.134   9.944 -0.2511  0.6625  0.3208
   69bbb     H1 1974   6.685   5.142  10.004 -0.3519 -0.7226  0.3829
   69bbb     H2 1975   6.808   5.031   9.964  0.5042  0.9622  0.7146
   69bbb     C2 1976   6.998   5.247   9.913  0.2116 -0.0964 -0.3438
   69bbb     H3 1977   6.971   5.268   9.809 -0.9974 -0.4450 -0.1070
   69bbb     H4 1978   7.045   5.148   9.914 -0.2209 -0.3701  2.7649
   69bbb     C3 1979   6.913   5.205  10.135 -0.0368 -0.0847  0.5908
   69bbb     H5 1980   6.993   5.268  10.176  0.5733  0.4773 -1.3459
   69bbb     H6 1981   6.950   5.102  10.142 -0.8533 -0.4845 -0.6935
   69bbb     C4 1982   6.796   5.227  10.236  0.8364  0.1492  0.5589
   69bbb     H7 1983   6.705   5.167  10.217  0.9637  0.7329 -2.4011
   69bbb     H8 1984   6.762   5.330  10.224 -2.1927 -0.5945  1.8458
   69bbb     C5 1985   6.751   5.154   9.791 -0.0203 -0.5201 -0.7247
   69bbb     H9 1986   6.830   5.109   9.729 -0.6550  0.1393 -2.0586
   69bbb    H10 1987   6.755   5.261   9.770  0.7499 -0.0039  1.7365
   69bbb     C6 1988   7.094   5.357   9.957 -0.0182 -0.0433  0.4474
   69bbb    H11 1989   7.133   5.321  10.053  0.7728 -0.6386 -0.0864
   69bbb    H12 1990   7.032   5.447   9.973 -2.1981 -1.7642  2.3263
   69bbb     C7 1991   6.843   5.195  10.379  0.5188 -0.9097  0.3039
   69bbb    H13 1992   6.942   5.240  10.399  1.0075 -1.9181  0.2377
   69bbb    H14 1993   6.848   5.086  10.389  0.6044 -1.0608 -1.1752
   69bbb     C8 1994   7.211   5.377   9.856 -0.4835  0.0919 -0.1595
   69bbb    H15 1995   7.270   5.459   9.898 -0.5065 -0.9648  2.0456
   69bbb    H16 1996   7.166   5.398   9.758 -0.8063 -2.8507 -0.7274
   69bbb     C9 1997   6.617   5.100   9.745  0.1491 -0.6300 -0.0186
   69bbb    H17 1998   6.611   4.991   9.755  1.1268 -0.8279 -1.2896
   69bbb    H18 1999   6.618   5.123   9.638  0.5815  1.9129  0.4524
   69bbb     O1 2000   6.746   5.242  10.467  0.0156 -0.3643 -0.6760
   70bbb     N1 2001   5.937   4.333  10.544  0.3293  0.2043 -0.0150
   70bbb     C1 2002   5.952   4.193  10.502  0.3182 -0.2516  0.5629
   70bbb     H1 2003   6.034   4.140  10.553  2.5937  0.9764 -1.5964
   70bbb     H2 2004   5.978   4.181  10.396 -1.9114 -0.6356  0.0131
   70bbb     C2 2005   5.892   4.348  10.687  0.2452  0.1393 -0.0877
   70bbb     H3 2006   5.810   4.279  10.711  1.1520 -0.4657  1.3961
   70bbb     H4 2007   5.851   4.447  10.707 -0.9787 -0.3988  0.1372
   70bbb     C3 2008   6.044   4.426  10.492  0.0253 -0.1132 -0.7422
   70bbb     H5 2009   6.062   4.419  10.384  0.6803  0.1602 -0.6538
   70bbb     H6 2010   6.138   4.403  10.542 -0.0065 -0.1934 -0.7186
   70bbb     C4 2011   6.019   4.574  10.529 -0.3945  0.5992 -0.0647
   70bbb     H7 2012   6.004   4.590  10.637 -1.7000 -0.8604  0.0010
   70bbb     H8 2013   5.922   4.599  10.484 -0.2806 -0.4622 -0.9305
   70bbb     C5 2014   5.824   4.107  10.508  0.6359  0.0132 -0.3239
   70bbb     H9 2015   5.812   4.093  10.616  0.9737  0.7250 -0.1902
   70bbb    H10 2016   5.835   4.007  10.463  0.3230  0.3402 -1.1480
   70bbb     C6 2017   6.005   4.342  10.799 -0.3146 -0.2528  1.0616
   70bbb    H11 2018   6.071   4.429  10.789 -0.4850 -0.2746 -0.5475
   70bbb    H12 2019   6.077   4.262  10.775 -0.7307  0.1526 -1.8773
   70bbb     C7 2020   6.126   4.673  10.476  0.0345  0.1515  0.1245
   70bbb    H13 2021   6.118   4.772  10.522 -0.0021  0.9826 -1.5999
   70bbb    H14 2022   6.108   4.691  10.369  0.2315 -0.0155  0.0621
   70bbb     C8 2023   5.958   4.325  10.946 -0.9293  0.0033  0.6508
   70bbb    H15 2024   5.885   4.403  10.969 -0.1834  0.6428  0.8795
   70bbb    H16 2025   6.044   4.338  11.013  0.7446  0.0586 -1.4041
   70bbb     C9 2026   5.695   4.184  10.457  0.3629 -0.1489 -0.0193
   70bbb    H17 2027   5.701   4.200  10.349  1.1921  2.7912  0.3731
   70bbb    H18 2028   5.701   4.285  10.500 -0.9959 -0.9111  2.1191
   70bbb     O1 2029   6.252   4.624  10.509 -0.5964  0.1352 -0.6676
   71bbb     N1 2030   7.854   6.738  11.804  0.4508 -1.1236  0.2066
   71bbb     C1 2031   7.859   6.850  11.703  0.1476  0.2726 -0.9576
   71bbb     H1 2032   7.922   6.819  11.619  0.3094  0.4708 -0.9095
   71bbb     H2 2033   7.886   6.944  11.753  0.2111 -0.1772 -0.1254
   71bbb     C2 2034   7.821   6.786  11.937 -0.2220  0.8679 -0.4197
   71bbb     H3 2035   7.717   6.819  11.946 -0.5312 -0.1532 -0.1287
   71bbb     H4 2036   7.894   6.867  11.952 -0.4018  1.3868 -2.1927
   71bbb     C3 2037   7.805   6.602  11.770  0.2485 -0.2766  0.4781
   71bbb     H5 2038   7.712   6.592  11.713  0.4631  0.0465  0.0672
   71bbb     H6 2039   7.785   6.541  11.859 -0.3933 -1.0503 -0.1757
   71bbb     C4 2040   7.913   6.528  11.685  0.0759  0.5302 -0.5621
   71bbb     H7 2041   8.010   6.513  11.735 -0.6294  1.8463  1.3034
   71bbb     H8 2042   7.932   6.589  11.596  1.6899  0.0929 -0.5498
   71bbb     C5 2043   7.718   6.872  11.637 -0.0606 -0.0799  0.4777
   71bbb     H9 2044   7.654   6.929  11.705 -1.6179  0.6651 -1.5168
   71bbb    H10 2045   7.676   6.774  11.609  1.1496  0.3203 -3.3121
   71bbb     C6 2046   7.863   6.697  12.056  0.3807  0.8493 -0.3968
   71bbb    H11 2047   7.915   6.756  12.133 -1.4550  1.6537  0.2659
   71bbb    H12 2048   7.932   6.620  12.019 -0.0673  1.1935 -2.0433
   71bbb     C7 2049   7.854   6.396  11.626 -0.0297 -0.0793  0.0638
   71bbb    H13 2050   7.923   6.321  11.586 -0.9482 -2.9665  3.3652
   71bbb    H14 2051   7.778   6.422  11.551 -1.7196 -0.6862  1.4839
   71bbb     C8 2052   7.750   6.636  12.141  0.0431  0.0171 -0.0826
   71bbb    H15 2053   7.788   6.538  12.172  1.0247  0.0511 -1.1420
   71bbb    H16 2054   7.668   6.605  12.076  0.5620 -2.0904  0.2073
   71bbb     C9 2055   7.732   6.949  11.504  0.6650 -0.5888 -0.5361
   71bbb    H17 2056   7.803   6.905  11.433  3.9997  2.0231  0.8947
   71bbb    H18 2057   7.780   7.041  11.539 -1.4938  0.5016 -0.2760
   71bbb     O1 2058   7.764   6.329  11.718 -0.5951 -0.0560  0.1635
   72bbb     N1 2059   8.494   5.978  12.323  0.0464 -0.3647 -0.0773
   72bbb     C1 2060   8.561   6.007  12.191  0.0235 -0.1603  0.2445
   72bbb     H1 2061   8.605   6.107  12.188  0.6352 -0.4516 -1.1811
   72bbb     H2 2062   8.479   6.009  12.118  1.3162  0.7037 -1.2358
   72bbb     C2 2063   8.588   5.989  12.441  0.7394 -0.3597  0.3299
   72bbb     H3 2064   8.679   5.932  12.424  2.9591  3.5730 -2.7820
   72bbb     H4 2065   8.551   5.964  12.541  1.5597 -1.9908  0.2572
   72bbb     C3 2066   8.423   5.847  12.314  0.2538 -0.9296  0.1614
   72bbb     H5 2067   8.491   5.762  12.308 -0.1707 -1.2378 -0.4468
   72bbb     H6 2068   8.358   5.846  12.226  0.6987  3.3154 -0.4648
   72bbb     C4 2069   8.322   5.839  12.427 -0.5303  0.2074 -0.0376
   72bbb     H7 2070   8.374   5.819  12.522  2.5840 -0.0090 -1.6565
   72bbb     H8 2071   8.274   5.742  12.408 -0.3188 -0.3371  1.9226
   72bbb     C5 2072   8.668   5.911  12.140 -0.8003 -0.4559 -0.3706
   72bbb     H9 2073   8.626   5.810  12.137 -1.0239 -0.3725 -0.0270
   72bbb    H10 2074   8.737   5.914  12.225  0.6260  2.2634 -1.5062
   72bbb     C6 2075   8.644   6.137  12.466 -0.5269  0.5639  0.9172
   72bbb    H11 2076   8.554   6.200  12.470 -1.2281 -0.3989  0.8291
   72bbb    H12 2077   8.713   6.168  12.386  2.0921  1.0781  3.2391
   72bbb     C7 2078   8.233   5.962  12.447 -0.6530  0.2232 -0.3259
   72bbb    H13 2079   8.290   6.056  12.455  2.7353 -1.8079  1.4314
   72bbb    H14 2080   8.178   5.946  12.541 -0.2430 -2.4507 -0.4622
   72bbb     C8 2081   8.712   6.166  12.599  1.2427 -0.3050 -0.0502
   72bbb    H15 2082   8.647   6.162  12.687  1.4284  1.6339  0.2143
   72bbb    H16 2083   8.751   6.268  12.601 -1.3196  0.7472 -0.7487
   72bbb     C9 2084   8.742   5.958  12.009 -0.5354  0.7949  0.0340
   72bbb    H17 2085   8.768   5.870  11.949 -1.1027  0.7691 -0.1829
   72bbb    H18 2086   8.841   5.996  12.039 -1.0243  0.4278  2.3007
   72bbb     O1 2087   8.147   5.974  12.334  0.2960  0.0161  0.0225
   73bbb     N1 2088   6.896   6.357  13.552 -0.6546 -0.2969 -0.2355
   73bbb     C1 2089   6.749   6.360  13.592 -0.6431  0.2931  0.2750
   73bbb     H1 2090   6.690   6.440  13.544 -1.0296  0.0988  0.4227
   73bbb     H2 2091   6.746   6.378  13.700  1.8776  1.7451  0.1732
   73bbb     C2 2092   6.920   6.375  13.405 -0.5708 -0.7037  0.5211
   73bbb     H3 2093   6.873   6.294  13.347 -0.4654 -0.3334 -0.0819
   73bbb     H4 2094   7.026   6.370  13.379 -0.9625 -0.0934 -1.3275
   73bbb     C3 2095   6.975   6.252  13.613 -0.5819 -0.5086  0.7013
   73bbb     H5 2096   6.943   6.158  13.566  2.1169 -1.3102  0.2775
   73bbb     H6 2097   6.946   6.241  13.718  0.5262 -1.2137  0.9478
   73bbb     C4 2098   7.127   6.252  13.617 -0.8843  0.4573  0.0431
   73bbb     H7 2099   7.158   6.354  13.643  1.2750 -0.1902  0.1652
   73bbb     H8 2100   7.170   6.229  13.519 -0.6541 -0.7501  0.4132
   73bbb     C5 2101   6.678   6.225  13.559 -0.2271  0.3139  0.4082
   73bbb     H9 2102   6.716   6.177  13.467  0.0554  0.9639  0.1799
   73bbb    H10 2103   6.571   6.246  13.547 -0.2164 -0.0295 -0.3453
   73bbb     C6 2104   6.873   6.505  13.351  0.6984 -0.5466  0.0567
   73bbb    H11 2105   6.910   6.594  13.404 -0.4681  0.2624 -0.4256
   73bbb    H12 2106   6.764   6.517  13.361  0.7007 -1.0447  0.7747
   73bbb     C7 2107   7.179   6.128  13.702  0.4088  0.1335  0.1520
   73bbb    H13 2108   7.116   6.102  13.788  0.3338  0.8172  0.3109
   73bbb    H14 2109   7.279   6.156  13.736  0.9940  1.4717 -2.4259
   73bbb     C8 2110   6.914   6.518  13.203  0.3316  0.0679  0.0853
   73bbb    H15 2111   7.024   6.515  13.202  0.3376  0.2271  0.2196
   73bbb    H16 2112   6.866   6.603  13.152 -2.5269 -1.9754 -0.8687
   73bbb     C9 2113   6.690   6.108  13.665  0.8327 -0.6011 -0.3174
   73bbb    H17 2114   6.792   6.068  13.663  0.9993 -0.1520 -1.0189
   73bbb    H18 2115   6.620   6.028  13.641  1.2974 -0.4848 -2.1611
   73bbb     O1 2116   7.182   6.013  13.617  0.0918 -0.3472 -0.5911
   74bbb     N1 2117   7.981   6.229  13.108 -0.8845 -0.0337  0.2586
   74bbb     C1 2118   7.879   6.329  13.133  0.0018  0.0846 -0.3197
   74bbb     H1 2119   7.827   6.311  13.228  0.2923  0.0617 -0.1606
   74bbb     H2 2120   7.797   6.326  13.061 -0.6281 -1.8643  0.4265
   74bbb     C2 2121   8.071   6.255  12.993 -0.3899 -0.7499 -0.2016
   74bbb     H3 2122   8.145   6.174  12.987 -0.1823 -0.5154 -0.9221
   74bbb     H4 2123   8.119   6.353  12.997 -0.2923 -0.7801 -0.5737
   74bbb     C3 2124   7.920   6.093  13.099 -0.8578 -0.0232 -0.9508
   74bbb     H5 2125   7.845   6.091  13.019 -2.2587 -0.0248  0.3407
   74bbb     H6 2126   7.864   6.078  13.192  0.5755  1.8844  0.3173
   74bbb     C4 2127   8.022   5.970  13.097 -0.0319  0.4312 -0.2982
   74bbb     H7 2128   8.093   5.991  13.178 -1.0768 -1.1343  1.1034
   74bbb     H8 2129   8.082   5.962  13.006  2.9926  1.9036  1.4080
   74bbb     C5 2130   7.934   6.478  13.137 -0.4600  0.9153 -0.0420
   74bbb     H9 2131   7.853   6.549  13.158 -0.0277  1.6944 -0.9272
   74bbb    H10 2132   7.974   6.510  13.040  2.1517  0.3544  0.7756
   74bbb     C6 2133   7.996   6.257  12.849  0.1315 -0.1230 -0.3050
   74bbb    H11 2134   7.937   6.349  12.835 -0.2634  0.3372  3.3557
   74bbb    H12 2135   7.925   6.174  12.858  0.3568 -0.2472  0.4028
   74bbb     C7 2136   7.949   5.831  13.120  0.6538  0.0429  0.2595
   74bbb    H13 2137   8.025   5.753  13.126 -0.6521 -1.5795 -2.4345
   74bbb    H14 2138   7.884   5.819  13.032  1.2545 -1.0784 -0.0458
   74bbb     C8 2139   8.104   6.226  12.748  0.4121  0.4722  0.4257
   74bbb    H15 2140   8.050   6.211  12.653  1.5421  0.8623 -0.2924
   74bbb    H16 2141   8.155   6.130  12.765  0.1019  0.2216 -0.0084
   74bbb     C9 2142   8.045   6.495  13.250  0.2789 -0.5069 -0.7689
   74bbb    H17 2143   8.139   6.451  13.213  1.3870  0.5714  0.6474
   74bbb    H18 2144   8.014   6.445  13.342 -3.3236  2.0783 -0.3807
   74bbb     O1 2145   7.861   5.835  13.237  0.2125 -0.1858  0.1906
   75bbb     N1 2146   6.072   6.486  11.241  0.3213 -0.4453 -0.0613
   75bbb     C1 2147   6.150   6.562  11.143 -0.4677 -0.2004 -0.1188
   75bbb     H1 2148   6.084   6.613  11.071 -0.5589 -1.6298 -1.0863
   75bbb     H2 2149   6.218   6.494  11.091 -0.4100 -1.4357  1.4946
   75bbb     C2 2150   5.987   6.573  11.327  0.3627  0.2715  0.1285
   75bbb     H3 2151   6.040   6.630  11.404  3.1890 -1.1739 -0.5901
   75bbb     H4 2152   5.928   6.499  11.382  1.9382 -0.9765  0.2363
   75bbb     C3 2153   6.142   6.393  11.334 -0.3391  0.9004  0.0198
   75bbb     H5 2154   6.069   6.334  11.391 -0.0407  1.0117  0.5237
   75bbb     H6 2155   6.206   6.443  11.407  0.5240  0.8368 -0.6703
   75bbb     C4 2156   6.233   6.291  11.252  0.4362  0.5531 -0.3379
   75bbb     H7 2157   6.328   6.343  11.233  0.0152  1.0781 -1.0618
   75bbb     H8 2158   6.177   6.263  11.163 -0.5925  0.6615  0.2569
   75bbb     C5 2159   6.241   6.668  11.206  0.1149 -0.0177 -0.2847
   75bbb     H9 2160   6.302   6.615  11.280 -0.5567  0.0111  0.2994
   75bbb    H10 2161   6.184   6.739  11.267  0.0582 -0.7233  0.5004
   75bbb     C6 2162   5.877   6.652  11.247 -0.2799  0.0470  0.1543
   75bbb    H11 2163   5.848   6.595  11.158  0.8092 -1.3386  0.6441
   75bbb    H12 2164   5.913   6.748  11.207 -3.6653  1.4060  0.0548
   75bbb     C7 2165   6.269   6.159  11.329  0.4482 -0.1820  0.4052
   75bbb    H13 2166   6.334   6.100  11.263  0.3239 -1.3212  1.2718
   75bbb    H14 2167   6.184   6.096  11.359 -0.0414  0.1424 -0.2757
   75bbb     C8 2168   5.751   6.681  11.331 -0.0012 -0.8738  0.2453
   75bbb    H15 2169   5.729   6.789  11.335 -0.5236 -1.0092  1.3797
   75bbb    H16 2170   5.771   6.659  11.436 -0.8409 -2.4136  0.1129
   75bbb     C9 2171   6.329   6.745  11.106  0.6845 -0.3710  0.0353
   75bbb    H17 2172   6.390   6.820  11.157 -1.2798  1.2617  0.1019
   75bbb    H18 2173   6.267   6.792  11.029 -1.0847 -0.8477  1.1355
   75bbb     O1 2174   6.346   6.197  11.443  0.1109 -0.4434 -0.4257
   76bbb     N1 2175   6.233   6.859  12.501 -0.7347 -0.5431  0.2183
   76bbb     C1 2176   6.084   6.848  12.490 -0.2568  0.2554 -0.7889
   76bbb     H1 2177   6.034   6.877  12.584  0.1589  0.6730 -0.6965
   76bbb     H2 2178   6.058   6.743  12.469 -2.0787  0.4068  0.4205
   76bbb     C2 2179   6.272   6.787  12.625  0.8653 -0.5648  0.0961
   76bbb     H3 2180   6.381   6.775  12.619  0.7041 -1.2936 -2.2631
   76bbb     H4 2181   6.224   6.689  12.619 -0.5481  0.1144  0.0019
   76bbb     C3 2182   6.315   6.831  12.378 -0.0800 -0.3082  0.8921
   76bbb     H5 2183   6.416   6.872  12.382  0.1421 -0.9578  2.7379
   76bbb     H6 2184   6.269   6.883  12.293  1.1091 -1.2155 -0.3397
   76bbb     C4 2185   6.320   6.688  12.339  1.1576 -0.9002  0.2055
   76bbb     H7 2186   6.225   6.638  12.364  1.5684 -0.4628  3.0531
   76bbb     H8 2187   6.406   6.645  12.391  1.8799  1.7505  1.3948
   76bbb     C5 2188   6.012   6.932  12.379  0.1023 -0.0663 -0.2498
   76bbb     H9 2189   5.910   6.893  12.366  0.2489 -0.2486 -0.8926
   76bbb    H10 2190   6.060   6.912  12.282  1.8446  0.9921  0.3587
   76bbb     C6 2191   6.251   6.867  12.758  0.4509 -0.8476 -0.4832
   76bbb    H11 2192   6.302   6.823  12.844 -2.4173  0.5079  2.0747
   76bbb    H12 2193   6.144   6.881  12.774  0.7440 -0.3836  1.2047
   76bbb     C7 2194   6.345   6.685  12.187  0.3005 -0.7170 -0.2484
   76bbb    H13 2195   6.436   6.739  12.158 -0.9598  0.1522 -2.8472
   76bbb    H14 2196   6.274   6.739  12.123  1.8004 -0.7075 -1.9643
   76bbb     C8 2197   6.322   7.000  12.743 -0.3813  0.1906 -0.0664
   76bbb    H15 2198   6.269   7.062  12.669  1.8310 -0.0717 -1.9583
   76bbb    H16 2199   6.426   6.987  12.711 -0.2582  1.1061 -0.0674
   76bbb     C9 2200   6.005   7.087  12.393 -0.6520  0.1327 -0.1500
   76bbb    H17 2201   6.106   7.132  12.392 -1.3463  1.8162  0.5665
   76bbb    H18 2202   5.976   7.111  12.496  0.1927  0.5752  0.0014
   76bbb     O1 2203   6.367   6.542  12.145 -0.3199 -0.1091 -0.8020
   77bbb     N1 2204   5.337   5.649  12.356 -0.5163  0.3874 -0.3893
   77bbb     C1 2205   5.261   5.658  12.227 -0.2765 -0.1707 -0.1450
   77bbb     H1 2206   5.197   5.569  12.221 -1.8197  0.9257 -0.4864
   77bbb     H2 2207   5.331   5.651  12.143 -0.4012 -2.0783 -0.1298
   77bbb     C2 2208   5.412   5.525  12.391  0.1771  0.4024  0.7582
   77bbb     H3 2209   5.445   5.527  12.496 -1.7585 -0.9958  1.4412
   77bbb     H4 2210   5.503   5.514  12.330  2.0266 -0.2668  3.4427
   77bbb     C3 2211   5.421   5.775  12.391 -0.1816 -0.1882 -0.6394
   77bbb     H5 2212   5.484   5.758  12.479 -1.0554  0.1213  0.0597
   77bbb     H6 2213   5.363   5.864  12.419 -0.0573 -0.3284  0.0761
   77bbb     C4 2214   5.515   5.810  12.280  0.1884  0.3497 -0.7836
   77bbb     H7 2215   5.464   5.806  12.182  1.4398 -2.8142 -1.4045
   77bbb     H8 2216   5.591   5.731  12.282 -0.0843  0.0613 -1.4627
   77bbb     C5 2217   5.164   5.777  12.216  0.1652 -0.5280  0.0869
   77bbb     H9 2218   5.103   5.761  12.126  0.4667  0.6517 -0.3409
   77bbb    H10 2219   5.220   5.865  12.183 -2.7226  0.7017 -1.9624
   77bbb     C6 2220   5.326   5.392  12.377  0.2615 -0.3929  0.3643
   77bbb    H11 2221   5.388   5.302  12.394  1.0484  0.0396 -0.1604
   77bbb    H12 2222   5.298   5.384  12.271  1.8175 -0.5207 -0.0661
   77bbb     C7 2223   5.585   5.942  12.310  0.4077  0.1490  0.0227
   77bbb    H13 2224   5.518   6.028  12.297  1.7061  1.4750  1.5883
   77bbb    H14 2225   5.663   5.962  12.235  0.1100  0.2399 -0.2707
   77bbb     C8 2226   5.197   5.388  12.464  0.7669 -0.2585 -0.1419
   77bbb    H15 2227   5.137   5.307  12.421 -0.9389  1.3672 -0.9737
   77bbb    H16 2228   5.142   5.480  12.440 -0.9132 -1.0662  0.4547
   77bbb     C9 2229   5.080   5.807  12.345  0.3848  0.0952  0.2671
   77bbb    H17 2230   5.149   5.829  12.427  0.6709  0.8992 -0.1811
   77bbb    H18 2231   5.024   5.716  12.370  1.6753 -1.1979 -1.3522
   77bbb     O1 2232   5.639   5.962  12.442  0.0733 -1.2334  0.0443
   78bbb     N1 2233   5.638   6.514  13.375  0.0177  0.1422 -0.0384
   78bbb     C1 2234   5.634   6.459  13.515 -0.3944 -0.5990 -0.4408
   78bbb     H1 2235   5.733   6.468  13.562 -0.9660  2.1224  0.4195
   78bbb     H2 2236   5.614   6.351  13.510 -0.7525 -0.5092 -1.1183
   78bbb     C2 2237   5.772   6.486  13.313 -0.1131  0.2758 -0.3453
   78bbb     H3 2238   5.854   6.526  13.374  1.6641  0.9499 -3.0147
   78bbb     H4 2239   5.772   6.535  13.215 -0.5295 -0.4990 -0.7378
   78bbb     C3 2240   5.524   6.483  13.289  0.2716 -0.8486 -0.4905
   78bbb     H5 2241   5.438   6.499  13.354  1.1666 -0.5979  0.6506
   78bbb     H6 2242   5.535   6.376  13.265  2.6614 -0.3634 -1.9485
   78bbb     C4 2243   5.506   6.573  13.166 -0.3894  0.4180  0.4278
   78bbb     H7 2244   5.588   6.568  13.094 -2.0472  0.9162 -1.6000
   78bbb     H8 2245   5.512   6.677  13.202 -0.6029  0.1544  1.2649
   78bbb     C5 2246   5.551   6.532  13.617 -0.8474  0.0885 -0.2092
   78bbb     H9 2247   5.444   6.524  13.595 -0.5085 -0.7682 -1.6581
   78bbb    H10 2248   5.573   6.640  13.617 -2.2673  0.4899  3.1309
   78bbb     C6 2249   5.811   6.343  13.260 -0.1799  0.5868 -0.6100
   78bbb    H11 2250   5.778   6.331  13.156 -1.9960 -0.3328  0.0323
   78bbb    H12 2251   5.758   6.270  13.321  2.3794 -0.7434  0.1242
   78bbb     C7 2252   5.374   6.553  13.089 -0.3693 -0.6716 -0.2811
   78bbb    H13 2253   5.344   6.639  13.028  2.9977  1.2340  0.5159
   78bbb    H14 2254   5.284   6.540  13.151 -1.0278 -0.7758 -1.2380
   78bbb     C8 2255   5.962   6.301  13.270  0.9894  0.4145 -0.3563
   78bbb    H15 2256   5.970   6.210  13.208  0.1267 -1.8307  2.6082
   78bbb    H16 2257   5.989   6.283  13.375  0.6878  2.4260  0.0967
   78bbb     C9 2258   5.575   6.477  13.763  0.0897 -0.6035 -0.3058
   78bbb    H17 2259   5.502   6.534  13.823  0.5888  1.6554 -1.7003
   78bbb    H18 2260   5.672   6.507  13.805  0.5081 -2.0901 -0.1520
   78bbb     O1 2261   5.387   6.429  13.012 -0.4070 -0.2115  0.1144
   79bbb     N1 2262   9.015   3.430  12.376  0.0996  0.2379  0.0056
   79bbb     C1 2263   9.041   3.303  12.306  0.1858  0.5230 -0.0870
   79bbb     H1 2264   9.010   3.223  12.373 -0.7509  0.9660  0.0218
   79bbb     H2 2265   9.142   3.286  12.265 -0.7872  0.9200 -2.8775
   79bbb     C2 2266   9.102   3.442  12.495  0.3572  0.0646 -0.0100
   79bbb     H3 2267   9.073   3.532  12.551 -1.5312 -1.0219  0.8564
   79bbb     H4 2268   9.205   3.449  12.458  0.8012 -2.5494  0.6070
   79bbb     C3 2269   9.020   3.543  12.284  0.1185  0.3855  0.3692
   79bbb     H5 2270   9.006   3.634  12.345  0.6415  0.8268 -0.1607
   79bbb     H6 2271   8.931   3.521  12.224 -0.5247 -4.2962  2.5691
   79bbb     C4 2272   9.149   3.567  12.204 -0.2479 -0.1977 -0.1406
   79bbb     H7 2273   9.175   3.483  12.139  0.0161  0.0819 -0.3997
   79bbb     H8 2274   9.237   3.589  12.265 -0.8356  1.4695  0.1477
   79bbb     C5 2275   8.925   3.272  12.203 -0.1553 -0.7254  0.1441
   79bbb     H9 2276   8.924   3.341  12.118 -3.4137 -1.3288 -0.4486
   79bbb    H10 2277   8.832   3.295  12.256  0.0930  0.6401  0.0278
   79bbb     C6 2278   9.094   3.335  12.593 -0.0118  0.1393 -0.0230
   79bbb    H11 2279   9.127   3.244  12.542 -3.5023 -0.7314 -0.9991
   79bbb    H12 2280   8.988   3.316  12.611  0.4843 -1.2435  1.7328
   79bbb     C7 2281   9.138   3.689  12.111  0.0225 -0.2830 -0.0611
   79bbb    H13 2282   9.054   3.670  12.044 -0.4879 -0.3337  0.5825
   79bbb    H14 2283   9.230   3.704  12.053  0.1171 -0.1031  0.1331
   79bbb     C8 2284   9.175   3.363  12.718  0.2827 -0.5573 -0.1536
   79bbb    H15 2285   9.278   3.394  12.698 -1.0765  3.5437 -1.9435
   79bbb    H16 2286   9.174   3.269  12.776 -2.2238 -1.1962 -1.0850
   79bbb     C9 2287   8.926   3.126  12.138  0.8931  0.2181  0.0839
   79bbb    H17 2288   9.018   3.102  12.082  0.6022  1.4548 -0.9838
   79bbb    H18 2289   8.841   3.118  12.069  0.7458  1.1845  0.1461
   79bbb     O1 2290   9.103   3.803  12.190  0.3747 -0.3808 -0.0918
   80bbb     N1 2291   8.152   3.484  11.864 -0.4848  0.2763 -0.9001
   80bbb     C1 2292   8.109   3.348  11.898  0.0805  0.1477 -0.2148
   80bbb     H1 2293   8.003   3.363  11.924 -0.5806  0.8328 -2.9635
   80bbb     H2 2294   8.160   3.306  11.985  1.7045  0.5284 -0.9501
   80bbb     C2 2295   8.076   3.538  11.751  0.1467  0.0359  0.1379
   80bbb     H3 2296   7.980   3.491  11.726 -0.4256  1.0275  0.4049
   80bbb     H4 2297   8.138   3.529  11.661 -2.6884  0.8552 -2.0434
   80bbb     C3 2298   8.303   3.497  11.860 -0.7634 -0.5003 -0.5683
   80bbb     H5 2299   8.351   3.436  11.783  0.3097 -0.2237 -0.1349
   80bbb     H6 2300   8.348   3.466  11.955  0.7808  3.4424  0.1666
   80bbb     C4 2301   8.368   3.638  11.833  0.4645 -0.6078 -0.5410
   80bbb     H7 2302   8.339   3.696  11.922 -2.2576  0.2057 -1.8818
   80bbb     H8 2303   8.338   3.684  11.739  0.9875  2.8171  0.8295
   80bbb     C5 2304   8.108   3.245  11.784  0.0307  0.1942  0.2781
   80bbb     H9 2305   8.204   3.193  11.794  0.8607  1.6785  0.4226
   80bbb    H10 2306   8.116   3.293  11.686  1.9631 -1.2520 -0.3327
   80bbb     C6 2307   8.042   3.683  11.788 -0.2985  0.2003 -0.6502
   80bbb    H11 2308   8.038   3.739  11.694  0.8646  0.5860 -0.4799
   80bbb    H12 2309   8.119   3.724  11.854  0.5685 -0.9797 -0.9026
   80bbb     C7 2310   8.518   3.631  11.821 -0.2199  0.1514 -0.1968
   80bbb    H13 2311   8.540   3.547  11.753 -0.6112 -0.6131  0.5929
   80bbb    H14 2312   8.554   3.611  11.923 -1.4538 -0.4284  0.1516
   80bbb     C8 2313   7.898   3.678  11.854  0.2807  0.6087  0.4857
   80bbb    H15 2314   7.876   3.581  11.901  1.3837  0.5674  0.9516
   80bbb    H16 2315   7.844   3.695  11.760  1.7020  2.6258 -0.0296
   80bbb     C9 2316   7.983   3.158  11.784  0.2089 -0.0621 -0.4660
   80bbb    H17 2317   7.899   3.224  11.761 -0.7637 -0.6193  1.3174
   80bbb    H18 2318   7.978   3.105  11.880  1.7937 -0.2673 -0.4583
   80bbb     O1 2319   8.570   3.753  11.776  0.1353 -0.5346 -0.3359
   81bbb     N1 2320   9.240   5.207  11.762  0.1598  0.1399  0.1552
   81bbb     C1 2321   9.325   5.230  11.885  0.0781 -0.3940  0.0987
   81bbb     H1 2322   9.310   5.154  11.964  0.6898 -0.1051  0.4936
   81bbb     H2 2323   9.299   5.324  11.935  1.0452 -0.3205  0.4760
   81bbb     C2 2324   9.120   5.291  11.750 -0.8794 -0.4120  0.4469
   81bbb     H3 2325   9.159   5.389  11.778 -0.6702 -0.5827  0.7583
   81bbb     H4 2326   9.034   5.252  11.807 -1.2772 -0.3966 -0.1323
   81bbb     C3 2327   9.260   5.081  11.688  0.5321  0.3100 -0.4032
   81bbb     H5 2328   9.354   5.031  11.716  0.2199  0.0768  0.2621
   81bbb     H6 2329   9.272   5.110  11.583 -2.1666 -0.8832 -1.1293
   81bbb     C4 2330   9.143   4.976  11.701  0.0109  0.3659  0.4301
   81bbb     H7 2331   9.175   4.884  11.649 -0.2540  0.9860 -0.8584
   81bbb     H8 2332   9.046   4.998  11.656  0.8518  0.0743 -1.6586
   81bbb     C5 2333   9.480   5.249  11.852  0.3491 -0.1618  0.3945
   81bbb     H9 2334   9.487   5.319  11.768  0.1606 -0.9193 -0.2587
   81bbb    H10 2335   9.519   5.152  11.821 -2.5108 -0.9257 -1.1789
   81bbb     C6 2336   9.071   5.303  11.602  1.0523  0.3022 -0.7582
   81bbb    H11 2337   9.011   5.216  11.571 -2.1824  1.7084  1.1379
   81bbb    H12 2338   9.154   5.314  11.531  0.3399 -0.5079 -1.7520
   81bbb     C7 2339   9.132   4.939  11.850  0.8232  0.1110  0.2925
   81bbb    H13 2340   9.082   5.030  11.887  0.4799  0.4885 -1.0243
   81bbb    H14 2341   9.226   4.949  11.904 -1.1273  3.1388  3.6199
   81bbb     C8 2342   8.970   5.422  11.585 -0.1886 -0.1313 -0.6174
   81bbb    H15 2343   8.887   5.413  11.656  2.2626  2.1280  2.8879
   81bbb    H16 2344   8.935   5.413  11.481  0.1336 -0.9041 -0.6671
   81bbb     C9 2345   9.565   5.305  11.975 -0.2321 -0.1416  0.3916
   81bbb    H17 2346   9.534   5.409  11.991 -0.6419 -0.1753 -0.1431
   81bbb    H18 2347   9.673   5.303  11.955 -0.4792 -1.0949 -1.0808
   81bbb     O1 2348   9.054   4.822  11.874  0.1466 -0.2292 -0.4906
   82bbb     N1 2349   9.054   3.938  12.575 -0.1405 -0.3093  0.3579
   82bbb     C1 2350   9.153   3.844  12.627 -0.2202 -0.1597 -0.0591
   82bbb     H1 2351   9.101   3.759  12.674 -1.2450 -0.4166 -1.5651
   82bbb     H2 2352   9.225   3.891  12.694 -0.0558  1.6061 -1.4081
   82bbb     C2 2353   8.941   3.883  12.497 -0.1145 -0.1743  0.4925
   82bbb     H3 2354   8.913   3.787  12.543  0.0966  1.3872  4.2758
   82bbb     H4 2355   8.974   3.855  12.396  2.2545  0.0098  1.1672
   82bbb     C3 2356   9.099   4.072  12.527 -0.7434  0.0712  0.1359
   82bbb     H5 2357   9.027   4.152  12.547  0.2422  0.4932  2.4597
   82bbb     H6 2358   9.130   4.060  12.423 -0.5662 -0.0686  0.2036
   82bbb     C4 2359   9.219   4.125  12.605 -0.0835  0.4849 -0.1228
   82bbb     H7 2360   9.308   4.061  12.606 -1.0878 -0.9851 -1.1750
   82bbb     H8 2361   9.184   4.137  12.709  1.1945  0.6886  0.3031
   82bbb     C5 2362   9.237   3.785  12.517  0.3113  0.2791  0.4488
   82bbb     H9 2363   9.279   3.869  12.459  2.3456 -1.3260 -0.5833
   82bbb    H10 2364   9.184   3.723  12.444 -0.3098  2.9906 -1.5794
   82bbb     C6 2365   8.810   3.963  12.493  0.2697 -0.2268 -0.3478
   82bbb    H11 2366   8.732   3.895  12.457 -0.2178  0.2380 -0.1816
   82bbb    H12 2367   8.819   4.044  12.420 -0.1436  0.7617  0.6762
   82bbb     C7 2368   9.260   4.270  12.567 -0.2792 -0.2289 -0.0413
   82bbb    H13 2369   9.345   4.303  12.628 -0.1135  0.9923 -0.8993
   82bbb    H14 2370   9.185   4.349  12.578  1.6400  1.6772  0.0469
   82bbb     C8 2371   8.756   4.022  12.627 -0.1848  0.3784  0.0949
   82bbb    H15 2372   8.844   4.074  12.664  1.8087 -2.2409 -0.5979
   82bbb    H16 2373   8.736   3.938  12.695  2.0683  1.0340  1.6419
   82bbb     C9 2374   9.343   3.690  12.575 -0.1168 -0.3906 -0.2265
   82bbb    H17 2375   9.299   3.603  12.626  1.3264 -1.1381 -0.2110
   82bbb    H18 2376   9.405   3.744  12.647  2.2484 -1.1971 -1.5700
   82bbb     O1 2377   9.297   4.281  12.430  0.5851  0.4650 -0.4141
   83bbb     N1 2378   7.567   5.191   9.228  0.3326 -1.1222 -0.2016
   83bbb     C1 2379   7.483   5.081   9.167  0.3607  0.5116  0.2300
   83bbb     H1 2380   7.484   4.993   9.232  0.8307 -0.3180 -0.8682
   83bbb     H2 2381   7.507   5.057   9.063  0.4541 -0.6889  0.5211
   83bbb     C2 2382   7.572   5.321   9.148 -0.4931  0.2181 -0.1958
   83bbb     H3 2383   7.473   5.336   9.103 -0.9885 -0.6759  0.5554
   83bbb     H4 2384   7.651   5.297   9.075  1.2259 -1.8148  2.1447
   83bbb     C3 2385   7.698   5.137   9.275 -0.0510  0.3251  0.4208
   83bbb     H5 2386   7.777   5.211   9.294  0.0537  0.4450 -0.4681
   83bbb     H6 2387   7.738   5.081   9.190  1.2429 -0.2881  1.3806
   83bbb     C4 2388   7.686   5.053   9.405  0.3096  0.6287 -0.2203
   83bbb     H7 2389   7.657   4.952   9.372 -0.0878  1.0518 -1.2255
   83bbb     H8 2390   7.617   5.101   9.475 -0.5117 -1.1899  0.2953
   83bbb     C5 2391   7.340   5.116   9.182 -0.4504 -0.1494 -0.8055
   83bbb     H9 2392   7.311   5.212   9.138  1.6245  1.1616  0.5254
   83bbb    H10 2393   7.307   5.118   9.287 -1.2883 -2.5951 -0.9528
   83bbb     C6 2394   7.623   5.441   9.227  0.3451 -0.1027 -0.8057
   83bbb    H11 2395   7.727   5.432   9.262  0.0526  1.1461  0.4849
   83bbb    H12 2396   7.555   5.444   9.314 -0.8087 -0.8797 -1.6628
   83bbb     C7 2397   7.828   5.029   9.464 -0.4371  0.0575 -0.0877
   83bbb    H13 2398   7.879   5.116   9.509 -0.3317 -0.2752  0.4455
   83bbb    H14 2399   7.880   4.991   9.376  1.6635 -0.1086  1.1474
   83bbb     C8 2400   7.614   5.565   9.126  0.1782 -0.5398 -0.4509
   83bbb    H15 2401   7.628   5.542   9.020  1.0683 -1.1495 -0.2127
   83bbb    H16 2402   7.691   5.630   9.170 -1.1661 -0.8196  2.6017
   83bbb     C9 2403   7.242   5.015   9.121  0.2292  0.4156  0.1447
   83bbb    H17 2404   7.255   4.985   9.017 -0.5311 -2.1214  0.7130
   83bbb    H18 2405   7.145   5.065   9.127 -0.8493 -1.6090  0.1800
   83bbb     O1 2406   7.810   4.922   9.565 -0.6580 -0.3145  0.2219
   84bbb     N1 2407   7.989   4.002  10.273 -0.5015 -0.0290 -0.6819
   84bbb     C1 2408   7.911   3.875  10.272  0.5456 -0.0266  0.6694
   84bbb     H1 2409   7.810   3.912  10.252  1.7291  1.5085 -3.6791
   84bbb     H2 2410   7.911   3.832  10.372  4.1399 -2.6938 -0.2611
   84bbb     C2 2411   8.136   3.999  10.300  0.5224 -0.4649 -0.8544
   84bbb     H3 2412   8.169   4.101  10.324  1.2872 -0.9908  0.4264
   84bbb     H4 2413   8.194   3.969  10.212  2.6988  2.8478 -0.7495
   84bbb     C3 2414   7.974   4.089  10.154  0.0694  0.9417  0.4777
   84bbb     H5 2415   7.988   4.020  10.069  2.3458  2.3472 -0.3650
   84bbb     H6 2416   8.056   4.160  10.141  1.3422 -0.9050 -3.1089
   84bbb     C4 2417   7.833   4.153  10.138  0.3901 -0.2295  0.1693
   84bbb     H7 2418   7.819   4.225  10.219  1.3382  0.2735 -0.0896
   84bbb     H8 2419   7.752   4.080  10.135  1.5759 -1.5706 -0.8890
   84bbb     C5 2420   7.942   3.761  10.171 -0.6497  0.4954 -0.6766
   84bbb     H9 2421   8.050   3.772  10.154 -0.0429 -1.1264  1.6530
   84bbb    H10 2422   7.882   3.773  10.079 -1.2996 -0.5940 -0.4146
   84bbb     C6 2423   8.171   3.907  10.421 -0.5802  0.3691  0.1568
   84bbb    H11 2424   8.162   3.801  10.397 -1.3227  0.3911  0.3125
   84bbb    H12 2425   8.100   3.930  10.502 -0.8090 -1.6434  0.5737
   84bbb     C7 2426   7.812   4.241  10.009  0.4028  0.9712 -0.6588
   84bbb    H13 2427   7.777   4.170   9.934  0.0172  0.6643 -0.1933
   84bbb    H14 2428   7.909   4.287   9.986  1.3296 -0.1993  0.7548
   84bbb     C8 2429   8.315   3.931  10.472 -0.7680  0.2642  0.5250
   84bbb    H15 2430   8.336   3.890  10.572  2.8914 -1.7346 -0.8666
   84bbb    H16 2431   8.343   4.037  10.463 -0.4714  0.0145 -2.0853
   84bbb     C9 2432   7.922   3.618  10.223 -0.2075  0.5024 -0.0254
   84bbb    H17 2433   7.949   3.546  10.144  2.1749  2.8552 -1.5231
   84bbb    H18 2434   7.819   3.590  10.248  0.1492 -1.7895 -0.8884
   84bbb     O1 2435   7.714   4.337  10.036 -0.2226  0.6124 -0.3625
   85bbb     N1 2436   8.188   5.214  10.009 -0.4398  0.0787  0.5615
   85bbb     C1 2437   8.267   5.319   9.930 -0.2086 -0.0715  0.4913
   85bbb     H1 2438   8.242   5.287   9.829 -0.5275 -1.0435  0.8682
   85bbb     H2 2439   8.375   5.314   9.952 -0.1863  1.0752  0.7378
   85bbb     C2 2440   8.181   5.237  10.154  0.1237 -0.3822  0.2673
   85bbb     H3 2441   8.134   5.150  10.200 -0.5339 -0.5898 -0.7552
   85bbb     H4 2442   8.118   5.320  10.187  0.0272 -0.7676  1.0523
   85bbb     C3 2443   8.245   5.072   9.990  0.0378  0.0272 -0.9307
   85bbb     H5 2444   8.181   4.998  10.040 -0.9682 -0.0283 -2.2418
   85bbb     H6 2445   8.345   5.064  10.034  0.4987  2.3247 -1.4371
   85bbb     C4 2446   8.238   5.030   9.837 -0.1078  0.4512 -0.0880
   85bbb     H7 2447   8.298   5.098   9.775  1.3021  0.6532  1.4355
   85bbb     H8 2448   8.142   5.041   9.786  1.0562 -0.1055 -2.5833
   85bbb     C5 2449   8.220   5.467   9.957 -0.2460  0.2488 -0.3295
   85bbb     H9 2450   8.243   5.503  10.058 -1.7740  2.5447 -0.7241
   85bbb    H10 2451   8.111   5.472   9.944 -0.0859 -0.0932 -2.0504
   85bbb     C6 2452   8.320   5.242  10.223  0.3980  0.6619  0.4718
   85bbb    H11 2453   8.371   5.323  10.170  2.5300 -0.3715  0.8773
   85bbb    H12 2454   8.382   5.151  10.217  1.6395  1.4620  0.8555
   85bbb     C7 2455   8.288   4.886   9.817 -0.1825 -0.2377  0.3437
   85bbb    H13 2456   8.226   4.820   9.878  0.4332 -3.2406 -2.0767
   85bbb    H14 2457   8.390   4.880   9.857  0.2230  0.4878 -0.5283
   85bbb     C8 2458   8.301   5.289  10.366 -0.4929 -0.5169  0.1124
   85bbb    H15 2459   8.399   5.293  10.415  0.3973 -0.3355 -1.6118
   85bbb    H16 2460   8.231   5.222  10.419  0.9182 -1.9162  0.2826
   85bbb     C9 2461   8.292   5.573   9.872  0.6615 -0.1376  0.6714
   85bbb    H17 2462   8.400   5.588   9.887  0.8137 -0.3390 -0.1158
   85bbb    H18 2463   8.256   5.672   9.900  1.5712  0.8993 -1.5375
   85bbb     O1 2464   8.276   4.849   9.672  0.0731 -0.2253 -0.3113
   86bbb     N1 2465   9.193   4.765   9.034  0.1520  0.0008  0.5411
   86bbb     C1 2466   9.244   4.904   9.014 -0.3504  0.3740 -0.2220
   86bbb     H1 2467   9.284   4.927   9.113  1.1866  0.9485 -0.9404
   86bbb     H2 2468   9.161   4.973   8.992 -0.2285  0.2211 -1.2141
   86bbb     C2 2469   9.294   4.673   9.090 -0.5884 -0.1251  0.7359
   86bbb     H3 2470   9.310   4.695   9.196  1.5349 -1.3225  0.7245
   86bbb     H4 2471   9.387   4.677   9.032 -2.0236 -1.9596 -1.8968
   86bbb     C3 2472   9.053   4.745   9.080  1.6764 -0.2022 -0.3135
   86bbb     H5 2473   9.011   4.647   9.054  1.4705 -0.0941 -0.3857
   86bbb     H6 2474   8.987   4.820   9.035 -0.6081 -1.9437 -0.0472
   86bbb     C4 2475   9.044   4.762   9.234  0.6641  0.0590 -0.3476
   86bbb     H7 2476   9.092   4.858   9.257 -2.1506  1.0826  1.9334
   86bbb     H8 2477   9.102   4.679   9.277  2.2632  2.4672  2.6122
   86bbb     C5 2478   9.353   4.913   8.900  0.3270  0.0868  0.1621
   86bbb     H9 2479   9.319   4.883   8.801 -0.3925 -2.7427  1.1810
   86bbb    H10 2480   9.441   4.850   8.916  1.7241  2.1417  0.9743
   86bbb     C6 2481   9.250   4.520   9.084 -0.0784 -0.0733  0.3474
   86bbb    H11 2482   9.217   4.502   8.981  0.8851  2.0659 -0.4033
   86bbb    H12 2483   9.165   4.488   9.145  0.6748 -2.4979  0.2017
   86bbb     C7 2484   8.903   4.770   9.298 -0.5743 -0.1323 -0.0699
   86bbb    H13 2485   8.857   4.866   9.274 -0.8663 -0.5580 -1.2846
   86bbb    H14 2486   8.912   4.763   9.407  0.2183  0.9732 -0.0501
   86bbb     C8 2487   9.367   4.427   9.121 -0.3203 -0.7155 -0.1110
   86bbb    H15 2488   9.413   4.470   9.211 -0.1438 -1.6623  0.2642
   86bbb    H16 2489   9.444   4.427   9.042  0.7801 -0.4404  0.9239
   86bbb     C9 2490   9.408   5.058   8.879  0.0137 -0.0870  0.1672
   86bbb    H17 2491   9.494   5.056   8.812 -1.0306 -1.3527 -1.2060
   86bbb    H18 2492   9.445   5.093   8.976 -0.1869  0.9149 -0.1087
   86bbb     O1 2493   8.830   4.652   9.253  0.0565 -0.5397 -0.1787
   87bbb     N1 2494   5.242   4.069  11.222 -0.2898  0.6494  0.5332
   87bbb     C1 2495   5.180   4.189  11.169 -0.0839  0.4014  0.0034
   87bbb     H1 2496   5.187   4.275  11.236  1.8543 -0.6961  1.2816
   87bbb     H2 2497   5.078   4.162  11.138  0.7465  0.0226 -2.7031
   87bbb     C2 2498   5.185   3.987  11.326  0.5131  0.8419 -0.3631
   87bbb     H3 2499   5.198   4.045  11.417 -0.2563 -1.5054  1.3393
   87bbb     H4 2500   5.234   3.889  11.336  0.6008  1.0928  2.4730
   87bbb     C3 2501   5.389   4.071  11.234 -0.1199  0.1731 -0.0018
   87bbb     H5 2502   5.440   4.093  11.139 -2.4946 -1.0694 -1.6652
   87bbb     H6 2503   5.418   3.970  11.265 -1.6596  0.7026  3.6109
   87bbb     C4 2504   5.433   4.179  11.339 -0.4309 -0.3357  0.2542
   87bbb     H7 2505   5.374   4.162  11.429  0.2732 -1.5059  0.5221
   87bbb     H8 2506   5.398   4.275  11.298  1.5146  0.6932  0.8440
   87bbb     C5 2507   5.221   4.227  11.019 -0.1721  0.3194 -0.7499
   87bbb     H9 2508   5.247   4.137  10.962 -0.7955  1.9664 -3.8495
   87bbb    H10 2509   5.310   4.291  11.020  0.0738  0.0302  1.2929
   87bbb     C6 2510   5.034   3.957  11.323  0.3209  0.2155  0.9141
   87bbb    H11 2511   4.983   4.053  11.304 -1.4197 -0.2487  2.9104
   87bbb    H12 2512   4.998   3.907  11.413 -2.3757 -0.6076 -0.5011
   87bbb     C7 2513   5.585   4.195  11.360  0.2303 -1.0847  0.4718
   87bbb    H13 2514   5.621   4.244  11.268 -0.2352  4.0089  2.6707
   87bbb    H14 2515   5.638   4.099  11.373  1.6396 -0.5428 -0.8945
   87bbb     C8 2516   4.985   3.862  11.211  0.1208  0.5569  0.0899
   87bbb    H15 2517   5.037   3.766  11.223 -2.2604 -0.5369  2.5741
   87bbb    H16 2518   5.012   3.914  11.118 -2.5046  0.2206 -0.9441
   87bbb     C9 2519   5.116   4.316  10.948 -0.4510  0.0332  0.0792
   87bbb    H17 2520   5.016   4.287  10.982 -1.4016 -0.0411 -2.5374
   87bbb    H18 2521   5.112   4.294  10.841  0.7382 -0.2510  0.0781
   87bbb     O1 2522   5.624   4.283  11.463 -0.1865 -0.1697  0.1793
   88bbb     N1 2523   5.967   4.677  12.244  0.2247 -0.3092 -0.1325
   88bbb     C1 2524   5.896   4.807  12.261  0.0918 -0.0400 -0.0840
   88bbb     H1 2525   5.936   4.868  12.343  0.7138 -0.3261 -0.1722
   88bbb     H2 2526   5.788   4.790  12.268  0.1535  0.1107  1.6457
   88bbb     C2 2527   5.912   4.555  12.313  0.6438  0.0192  0.4280
   88bbb     H3 2528   5.945   4.465  12.260 -1.6478  0.1595 -1.3419
   88bbb     H4 2529   5.803   4.561  12.319  0.5530 -1.8816  1.5906
   88bbb     C3 2530   6.112   4.692  12.254 -0.2117 -0.3771  0.3833
   88bbb     H5 2531   6.152   4.695  12.356  1.9544 -2.1121 -0.3302
   88bbb     H6 2532   6.146   4.772  12.188  1.2585 -1.1866  0.1152
   88bbb     C4 2533   6.193   4.574  12.196 -0.2869 -0.0311  0.3047
   88bbb     H7 2534   6.185   4.498  12.275  0.6096  2.2008  2.7135
   88bbb     H8 2535   6.299   4.602  12.193 -0.6861  1.5874 -3.2520
   88bbb     C5 2536   5.905   4.889  12.133  0.6792  0.3953 -0.1616
   88bbb     H9 2537   5.874   4.828  12.047 -1.3175  1.7410 -0.4553
   88bbb    H10 2538   6.007   4.923  12.112  0.8881 -0.2272 -0.1974
   88bbb     C6 2539   5.965   4.546  12.464  0.1681  0.7869  0.3196
   88bbb    H11 2540   6.074   4.550  12.464  0.1665  1.1825 -0.6681
   88bbb    H12 2541   5.944   4.444  12.500 -0.7910 -0.2744 -2.8904
   88bbb     C7 2542   6.157   4.522  12.061 -0.1976 -0.6182  0.0706
   88bbb    H13 2543   6.049   4.501  12.064 -0.2924 -0.4115 -1.2588
   88bbb    H14 2544   6.217   4.432  12.043  2.0278  0.9266 -0.6799
   88bbb     C8 2545   5.898   4.657  12.549 -0.3972 -0.2159  0.1484
   88bbb    H15 2546   5.792   4.632  12.563 -0.1524 -1.2752  0.1624
   88bbb    H16 2547   5.907   4.754  12.498 -3.4306 -1.2032 -2.5908
   88bbb     C9 2548   5.813   5.019  12.126 -0.2031  0.1598  0.2086
   88bbb    H17 2549   5.709   4.987  12.117 -0.1148  0.3929 -2.3835
   88bbb    H18 2550   5.827   5.069  12.029  0.5124 -0.1359  0.1560
   88bbb     O1 2551   6.173   4.627  11.963 -0.1330 -0.2971  0.5402
   89bbb     N1 2552   6.330   3.381  11.728  0.1863  0.3378 -0.2028
   89bbb     C1 2553   6.368   3.274  11.822 -0.3010 -0.6236  0.0917
   89bbb     H1 2554   6.317   3.283  11.919 -2.5495  2.1666 -1.1914
   89bbb     H2 2555   6.476   3.275  11.843  0.0553 -1.3815 -1.5595
   89bbb     C2 2556   6.396   3.386  11.590  0.5964  0.1294 -0.3861
   89bbb     H3 2557   6.360   3.473  11.534  1.8135 -1.4403 -3.8902
   89bbb     H4 2558   6.359   3.297  11.537  3.6127 -1.3442 -0.2184
   89bbb     C3 2559   6.178   3.391  11.717 -0.8353  0.0300 -0.2138
   89bbb     H5 2560   6.135   3.355  11.812  2.1842  0.7258  1.5418
   89bbb     H6 2561   6.141   3.326  11.637  1.1534 -0.2213 -0.9659
   89bbb     C4 2562   6.140   3.543  11.696  0.1686 -0.5747 -0.2886
   89bbb     H7 2563   6.030   3.543  11.702  0.1300 -4.0332  1.2845
   89bbb     H8 2564   6.168   3.591  11.602 -1.5258  0.7696 -0.1673
   89bbb     C5 2565   6.355   3.140  11.769 -0.2496 -0.0874 -0.1305
   89bbb     H9 2566   6.434   3.132  11.693  1.1870  0.6021  1.2201
   89bbb    H10 2567   6.257   3.125  11.722 -1.1626  0.0761  1.6036
   89bbb     C6 2568   6.548   3.385  11.583  0.7366 -0.0094 -0.4927
   89bbb    H11 2569   6.573   3.287  11.626 -1.1337  0.7486  2.6270
   89bbb    H12 2570   6.585   3.471  11.641 -0.3891  0.0822  0.1058
   89bbb     C7 2571   6.190   3.624  11.818  0.1436  0.5358 -1.0528
   89bbb    H13 2572   6.298   3.636  11.806  0.2670  0.0971 -0.4022
   89bbb    H14 2573   6.158   3.598  11.919 -0.0651  2.3074 -0.6248
   89bbb     C8 2574   6.608   3.401  11.439  0.6406 -0.3620  0.9234
   89bbb    H15 2575   6.712   3.435  11.435 -0.1347  2.1497 -1.6265
   89bbb    H16 2576   6.554   3.483  11.389  2.6491 -1.2312 -3.1118
   89bbb     C9 2577   6.370   3.028  11.867  0.1766  0.2259 -0.2751
   89bbb    H17 2578   6.355   2.935  11.809 -0.7330 -0.0653  0.3995
   89bbb    H18 2579   6.288   3.026  11.940  0.6134 -2.2946  0.2340
   89bbb     O1 2580   6.138   3.755  11.801 -0.2931 -0.4057  0.5450
   90bbb     N1 2581   5.360   3.751  12.626  0.4621 -0.2669  0.0542
   90bbb     C1 2582   5.396   3.836  12.743 -0.6019 -0.4782  0.3703
   90bbb     H1 2583   5.356   3.938  12.733 -0.4408 -0.4380  0.1202
   90bbb     H2 2584   5.505   3.845  12.757 -0.4081 -1.7162 -0.2425
   90bbb     C2 2585   5.230   3.795  12.573 -0.5124 -0.2088  0.0921
   90bbb     H3 2586   5.235   3.902  12.550 -0.9120 -0.4990 -1.4544
   90bbb     H4 2587   5.151   3.783  12.648 -1.5417 -0.3406 -0.9908
   90bbb     C3 2588   5.472   3.723  12.527 -0.4527 -0.0293 -0.0700
   90bbb     H5 2589   5.511   3.818  12.488  1.3496 -1.2834 -1.5353
   90bbb     H6 2590   5.441   3.672  12.434  0.2760  1.8705 -1.4120
   90bbb     C4 2591   5.581   3.638  12.593 -0.0718  0.3155 -0.1001
   90bbb     H7 2592   5.543   3.549  12.645  2.0833  0.0700  1.1726
   90bbb     H8 2593   5.637   3.698  12.665 -0.5645  0.5214  0.1193
   90bbb     C5 2594   5.313   3.791  12.867 -0.1218  0.0525 -0.7451
   90bbb     H9 2595   5.204   3.797  12.853 -0.1638 -1.5618 -1.3830
   90bbb    H10 2596   5.333   3.853  12.955 -0.5002 -0.7275 -0.0957
   90bbb     C6 2597   5.179   3.724  12.444  0.0138  0.2260  0.1318
   90bbb    H11 2598   5.192   3.615  12.451 -2.4190 -0.0921  0.6406
   90bbb    H12 2599   5.241   3.739  12.355  1.7692 -1.2546  1.0386
   90bbb     C7 2600   5.683   3.588  12.498 -0.4072  0.2578 -0.1566
   90bbb    H13 2601   5.636   3.521  12.426  0.5677  0.5271 -1.0661
   90bbb    H14 2602   5.765   3.536  12.550 -0.1278 -0.1518 -0.9845
   90bbb     C8 2603   5.032   3.745  12.421 -0.1022  0.5222  0.3158
   90bbb    H15 2604   4.975   3.723  12.512 -1.5864  0.7105 -0.5268
   90bbb    H16 2605   4.997   3.675  12.345  0.0746 -1.3376  1.8855
   90bbb     C9 2606   5.346   3.644  12.897  1.1784 -0.3131  0.2691
   90bbb    H17 2607   5.404   3.596  12.817  0.1597  0.6820 -1.1101
   90bbb    H18 2608   5.248   3.598  12.913  0.0589  2.4845  2.1432
   90bbb     O1 2609   5.745   3.692  12.420 -0.3589  0.5015  0.7751
   91bbb     N1 2610   6.969   5.305   9.406 -0.0334 -0.1142  0.0282
   91bbb     C1 2611   7.105   5.311   9.475  0.2851  0.5962  0.3393
   91bbb     H1 2612   7.162   5.246   9.407 -0.5951 -1.3825  1.3922
   91bbb     H2 2613   7.104   5.275   9.579 -1.2822  0.5756  0.3453
   91bbb     C2 2614   6.980   5.346   9.262  0.9585 -0.0015 -0.5464
   91bbb     H3 2615   7.048   5.271   9.220  1.4897 -0.0814  0.4242
   91bbb     H4 2616   7.038   5.439   9.251 -0.2505  1.0076  1.1304
   91bbb     C3 2617   6.904   5.178   9.439  0.5694  0.0328  0.0896
   91bbb     H5 2618   6.795   5.188   9.428  0.4798  1.0257  1.5176
   91bbb     H6 2619   6.925   5.152   9.544  0.2393  0.5284  0.2842
   91bbb     C4 2620   6.966   5.055   9.360 -0.4010  0.2955 -0.1145
   91bbb     H7 2621   7.065   5.027   9.396 -0.7605  0.3320  0.9380
   91bbb     H8 2622   6.968   5.078   9.253 -0.6130 -1.1639 -0.4550
   91bbb     C5 2623   7.161   5.449   9.483  0.4298 -0.5556  0.2684
   91bbb     H9 2624   7.197   5.478   9.384 -0.5131  0.5103  0.2307
   91bbb    H10 2625   7.248   5.438   9.550 -1.2468  0.1213  2.6949
   91bbb     C6 2626   6.848   5.351   9.191 -0.9304  0.0011 -0.8615
   91bbb    H11 2627   6.777   5.423   9.233 -0.5599 -0.7657  1.1581
   91bbb    H12 2628   6.799   5.253   9.187 -0.0564 -0.5077  0.5180
   91bbb     C7 2629   6.878   4.932   9.378  0.5059 -0.1022  0.3439
   91bbb    H13 2630   6.907   4.852   9.309  0.9552  1.0759 -0.8680
   91bbb    H14 2631   6.773   4.959   9.358  0.4483  0.0937  0.8888
   91bbb     C8 2632   6.863   5.390   9.042 -0.6797 -0.5870  0.0115
   91bbb    H15 2633   6.873   5.499   9.031  2.8229 -0.9885 -2.5397
   91bbb    H16 2634   6.768   5.371   8.991 -0.6797 -0.6401  0.0310
   91bbb     C9 2635   7.080   5.563   9.545 -0.0320  0.8708 -0.6746
   91bbb    H17 2636   7.067   5.541   9.652  0.2590  1.4341 -0.5165
   91bbb    H18 2637   6.982   5.566   9.498 -1.4732 -1.5905  1.8892
   91bbb     O1 2638   6.882   4.887   9.518  0.6851  0.1666  0.7170
   92bbb     N1 2639   5.974   4.564   9.797  0.4198  0.3219  0.5141
   92bbb     C1 2640   5.996   4.612   9.935  1.1080 -0.4611 -0.6220
   92bbb     H1 2641   6.061   4.541   9.986 -0.3900 -0.5281  1.2820
   92bbb     H2 2642   5.898   4.609   9.985  1.0234  1.4306 -0.5886
   92bbb     C2 2643   5.849   4.614   9.720 -0.1494 -0.1902 -0.4503
   92bbb     H3 2644   5.843   4.556   9.627  3.0051 -1.1506 -0.1466
   92bbb     H4 2645   5.863   4.719   9.694  0.0538  0.1881  1.1063
   92bbb     C3 2646   6.100   4.558   9.720 -0.2657 -0.5580 -0.7140
   92bbb     H5 2647   6.177   4.513   9.784  0.4719 -0.4411 -1.4999
   92bbb     H6 2648   6.142   4.657   9.701 -1.3930  0.6606  2.5278
   92bbb     C4 2649   6.099   4.468   9.599 -0.4505  0.4971  0.3729
   92bbb     H7 2650   6.035   4.510   9.520  0.3532 -3.8012 -2.9630
   92bbb     H8 2651   6.036   4.381   9.620 -2.1229  1.7223  0.6103
   92bbb     C5 2652   6.064   4.752   9.939  0.2364 -0.0978  0.2107
   92bbb     H9 2653   6.011   4.831   9.885  1.1842  0.4680  0.0932
   92bbb    H10 2654   6.163   4.749   9.893  0.4498 -0.5268  0.6904
   92bbb     C6 2655   5.710   4.589   9.787 -0.6710 -0.1657 -0.5437
   92bbb    H11 2656   5.696   4.642   9.882 -2.1552  1.1279 -1.4181
   92bbb    H12 2657   5.708   4.482   9.810  0.5995  0.0613  0.7525
   92bbb     C7 2658   6.239   4.436   9.547 -0.4172  0.1954  0.3285
   92bbb    H13 2659   6.290   4.528   9.515  1.3615 -1.0823 -0.7145
   92bbb    H14 2660   6.248   4.379   9.454 -0.5171 -0.0320  0.4583
   92bbb     C8 2661   5.593   4.625   9.698 -0.2940 -0.9470  1.0046
   92bbb    H15 2662   5.601   4.585   9.596  1.5010  1.4876  0.0924
   92bbb    H16 2663   5.591   4.734   9.685  1.2545 -1.0687 -0.6590
   92bbb     C9 2664   6.075   4.798  10.092  0.5924  0.4178  0.5553
   92bbb    H17 2665   6.134   4.732  10.157 -1.4681 -1.9884  0.1752
   92bbb    H18 2666   5.971   4.792  10.128 -0.4122  1.5810 -1.8929
   92bbb     O1 2667   6.317   4.383   9.657  0.0121 -0.3292 -0.3080
   93bbb     N1 2668   7.676   3.197  10.441  0.9234  0.1775  0.0603
   93bbb     C1 2669   7.779   3.262  10.357 -0.0798 -0.2614  0.1885
   93bbb     H1 2670   7.878   3.246  10.402 -0.5048 -0.8264  0.9497
   93bbb     H2 2671   7.766   3.371  10.357 -1.7500 -0.3750  2.9111
   93bbb     C2 2672   7.673   3.237  10.583 -0.0532  0.3086 -0.0383
   93bbb     H3 2673   7.580   3.202  10.629  0.7802  0.0600  1.5326
   93bbb     H4 2674   7.682   3.345  10.597  0.5997 -0.1151  3.7048
   93bbb     C3 2675   7.540   3.206  10.378 -0.1155 -0.3713  0.3797
   93bbb     H5 2676   7.470   3.148  10.439 -0.7889 -1.8024 -1.6605
   93bbb     H6 2677   7.546   3.154  10.282 -0.0885 -1.2250  0.8326
   93bbb     C4 2678   7.487   3.351  10.356 -0.3802  0.0986  0.1916
   93bbb     H7 2679   7.554   3.404  10.287  0.7033 -2.5351 -0.9408
   93bbb     H8 2680   7.476   3.398  10.454  0.4502  0.0383  0.3203
   93bbb     C5 2681   7.791   3.215  10.213  0.3377 -0.4209 -0.2132
   93bbb     H9 2682   7.875   3.267  10.166  2.0879  0.0152  3.1456
   93bbb    H10 2683   7.700   3.245  10.159 -0.3667  0.1238  1.2270
   93bbb     C6 2684   7.789   3.161  10.653 -0.2872 -0.4578 -0.3474
   93bbb    H11 2685   7.785   3.191  10.758 -1.4828 -1.3484 -0.1205
   93bbb    H12 2686   7.883   3.208  10.621  0.2277 -1.0891  0.2305
   93bbb     C7 2687   7.359   3.355  10.281 -0.5553  0.2148 -0.4179
   93bbb    H13 2688   7.285   3.283  10.319 -1.8909  2.1888  0.9480
   93bbb    H14 2689   7.385   3.324  10.180  1.4374 -0.2066  0.1762
   93bbb     C8 2690   7.786   3.008  10.637  0.0382  0.7594 -0.1963
   93bbb    H15 2691   7.802   2.982  10.532  0.7063 -0.8739  0.2767
   93bbb    H16 2692   7.683   2.985  10.666 -0.2917  1.9076 -0.4195
   93bbb     C9 2693   7.818   3.063  10.202  0.3490  0.3073 -0.2214
   93bbb    H17 2694   7.739   3.015  10.262  0.7900 -0.1544  0.0057
   93bbb    H18 2695   7.906   3.034  10.261  0.0763  0.8365  0.4497
   93bbb     O1 2696   7.300   3.492  10.288  0.2854  0.3930  0.1320
   94bbb     N1 2697   6.387   3.775  10.566 -0.4624  0.1334 -0.9755
   94bbb     C1 2698   6.411   3.734  10.424  0.6731 -0.6102 -0.1462
   94bbb     H1 2699   6.328   3.740  10.353 -0.0477 -3.5303  0.2929
   94bbb     H2 2700   6.445   3.629  10.423  1.2693 -0.4323 -1.2601
   94bbb     C2 2701   6.262   3.729  10.632  0.1198 -0.2473  0.2413
   94bbb     H3 2702   6.252   3.766  10.735  1.9620  2.7680 -0.5522
   94bbb     H4 2703   6.265   3.620  10.637  0.0733 -0.2126  1.4854
   94bbb     C3 2704   6.509   3.761  10.654  0.2598  0.4311  0.3720
   94bbb     H5 2705   6.484   3.809  10.750 -1.6507 -1.8808  1.1195
   94bbb     H6 2706   6.603   3.807  10.620  0.9430 -0.1225  1.4295
   94bbb     C4 2707   6.541   3.616  10.689 -0.2646  0.8659  0.4416
   94bbb     H7 2708   6.554   3.558  10.596 -0.6876 -0.6083  1.2638
   94bbb     H8 2709   6.457   3.575  10.746 -1.5144  1.7530 -0.6919
   94bbb     C5 2710   6.523   3.811  10.351  0.0753  0.1804 -1.0382
   94bbb     H9 2711   6.619   3.800  10.402 -0.1202  0.9320 -0.4862
   94bbb    H10 2712   6.495   3.916  10.369 -0.8525 -0.0763 -0.9344
   94bbb     C6 2713   6.136   3.760  10.544  0.1426 -0.1936 -0.2331
   94bbb    H11 2714   6.140   3.695  10.455  1.3252  0.1225 -0.4205
   94bbb    H12 2715   6.152   3.862  10.508  2.8182  0.3725  2.2153
   94bbb     C7 2716   6.679   3.595  10.755 -0.3530  0.6788 -0.0981
   94bbb    H13 2717   6.686   3.488  10.780  1.4120  0.9318  0.5972
   94bbb    H14 2718   6.675   3.658  10.844  0.7466 -0.4771  0.8151
   94bbb     C8 2719   6.001   3.744  10.623 -0.5769 -0.0822  0.6702
   94bbb    H15 2720   5.917   3.730  10.554 -0.0427 -1.7861  0.3193
   94bbb    H16 2721   5.975   3.832  10.683 -1.4253  0.2067 -0.0829
   94bbb     C9 2722   6.549   3.784  10.208 -0.6545  0.2076  0.0761
   94bbb    H17 2723   6.626   3.853  10.171  0.4549 -0.2754  1.4275
   94bbb    H18 2724   6.457   3.794  10.149 -0.2131  0.9534 -0.5131
   94bbb     O1 2725   6.780   3.625  10.654 -0.2210 -0.0089  0.2022
   95bbb     N1 2726   8.510   6.862  14.002  0.2567 -0.0102 -0.4469
   95bbb     C1 2727   8.536   6.721  14.042 -1.2199  0.6605 -0.3709
   95bbb     H1 2728   8.506   6.656  13.960 -0.3035 -0.3980  0.1074
   95bbb     H2 2729   8.484   6.681  14.130 -1.8538 -0.5079 -1.2555
   95bbb     C2 2730   8.367   6.879  13.990  0.3296 -0.2291  0.2937
   95bbb     H3 2731   8.339   6.805  13.915 -1.2066 -0.0083  0.6180
   95bbb     H4 2732   8.342   6.977  13.947  0.6308 -0.7485 -1.0900
   95bbb     C3 2733   8.592   6.913  13.886  0.1598  0.1573 -0.2896
   95bbb     H5 2734   8.565   6.861  13.794 -0.6877  0.8233 -0.4405
   95bbb     H6 2735   8.699   6.894  13.902 -0.0657 -0.8801  0.0232
   95bbb     C4 2736   8.574   7.064  13.865 -0.3147  0.1239  0.3439
   95bbb     H7 2737   8.598   7.120  13.956  0.9544  1.1670 -0.6005
   95bbb     H8 2738   8.468   7.079  13.839 -0.2382 -1.6269 -1.1856
   95bbb     C5 2739   8.688   6.689  14.069  0.1671  0.0268 -0.4687
   95bbb     H9 2740   8.752   6.710  13.983 -0.0425  0.2450 -0.5720
   95bbb    H10 2741   8.697   6.580  14.083 -0.5013  0.0252 -0.0265
   95bbb     C6 2742   8.283   6.860  14.117 -0.4503 -0.4483  0.5609
   95bbb    H11 2743   8.285   6.954  14.174 -2.7888 -0.1251  0.2109
   95bbb    H12 2744   8.330   6.786  14.182  2.3305 -1.5260 -2.3753
   95bbb     C7 2745   8.673   7.125  13.754 -0.4467 -0.8228 -0.5245
   95bbb    H13 2746   8.773   7.130  13.799 -0.7310 -0.0809  0.0322
   95bbb    H14 2747   8.623   7.220  13.733 -0.4509 -1.1059 -1.8783
   95bbb     C8 2748   8.139   6.816  14.083  0.6649 -0.4689 -0.3074
   95bbb    H15 2749   8.141   6.726  14.021 -0.6651 -0.3377 -0.5695
   95bbb    H16 2750   8.087   6.892  14.024  0.2422 -2.0746 -2.1017
   95bbb     C9 2751   8.756   6.753  14.197  0.1250 -0.0373 -0.4923
   95bbb    H17 2752   8.781   6.859  14.188  0.9218 -0.1828 -0.1483
   95bbb    H18 2753   8.859   6.713  14.199 -0.5568 -1.9259 -1.0492
   95bbb     O1 2754   8.677   7.034  13.646 -0.1379 -0.6845 -0.4641
   96bbb     N1 2755   9.072   7.018  12.681  0.9525 -0.7662 -0.0172
   96bbb     C1 2756   9.096   7.166  12.695  0.1529  0.1588  0.7601
   96bbb     H1 2757   9.009   7.225  12.729 -2.1069  0.4529 -4.6228
   96bbb     H2 2758   9.110   7.202  12.593  0.1462  0.5176  0.8841
   96bbb     C2 2759   8.969   6.986  12.572  0.3075  0.5706 -0.5625
   96bbb     H3 2760   8.960   7.065  12.496 -1.5567 -0.1695 -1.1630
   96bbb     H4 2761   8.868   6.982  12.615  0.5310  0.5295 -0.0340
   96bbb     C3 2762   9.053   6.941  12.810  0.0162  0.2184 -0.0847
   96bbb     H5 2763   9.005   6.844  12.794  0.3215 -0.4034  2.3534
   96bbb     H6 2764   8.993   6.995  12.885 -1.0687  0.1720 -0.8980
   96bbb     C4 2765   9.188   6.898  12.871  0.2247 -0.2914  0.2745
   96bbb     H7 2766   9.251   6.982  12.903  0.9698  0.0118 -1.8483
   96bbb     H8 2767   9.242   6.835  12.799 -0.0105 -0.5900  0.3555
   96bbb     C5 2768   9.226   7.198  12.773  0.6221 -0.2238 -0.0453
   96bbb     H9 2769   9.293   7.115  12.746  1.7044  0.8892 -0.9022
   96bbb    H10 2770   9.211   7.180  12.880  0.9369  0.5673  0.1397
   96bbb     C6 2771   8.994   6.852  12.505 -0.4993  0.5220 -0.3418
   96bbb    H11 2772   8.999   6.779  12.587  0.3747  2.3914  1.3828
   96bbb    H12 2773   9.094   6.860  12.461 -0.0760  1.3983  0.7242
   96bbb     C7 2774   9.182   6.817  12.999 -0.1773 -0.4816 -0.0263
   96bbb    H13 2775   9.285   6.803  13.034 -0.3752 -1.2267  0.2600
   96bbb    H14 2776   9.135   6.720  12.978 -0.3831 -0.5968  0.9197
   96bbb     C8 2777   8.885   6.792  12.409 -0.3622 -0.4786  0.4509
   96bbb    H15 2778   8.817   6.874  12.382 -0.6834 -0.4181  1.4361
   96bbb    H16 2779   8.833   6.722  12.475 -0.6419 -0.6130  0.0922
   96bbb     C9 2780   9.286   7.337  12.739 -0.3573 -0.2197  0.5442
   96bbb    H17 2781   9.302   7.354  12.632  0.4561  0.5815  0.7755
   96bbb    H18 2782   9.391   7.338  12.774 -0.3343  0.5714  0.4713
   96bbb     O1 2783   9.092   6.877  13.091  0.0093  0.1195 -0.2515
   97bbb     N1 2784   8.583   4.659  13.296  0.0408  0.5023  0.6497
   97bbb     C1 2785   8.520   4.533  13.347  0.0603  0.5278  0.6186
   97bbb     H1 2786   8.411   4.547  13.346 -0.3091 -1.6183 -2.2283
   97bbb     H2 2787   8.535   4.519  13.455  1.1903  0.1995  0.4278
   97bbb     C2 2788   8.730   4.657  13.316 -0.4790  0.5225  0.5339
   97bbb     H3 2789   8.775   4.567  13.271 -1.0390  0.5381 -0.0560
   97bbb     H4 2790   8.753   4.650  13.423  0.7129  1.1430  0.3346
   97bbb     C3 2791   8.524   4.781  13.368 -0.3297  0.4625 -0.3263
   97bbb     H5 2792   8.414   4.781  13.367 -0.3800 -1.5367 -1.3602
   97bbb     H6 2793   8.567   4.871  13.323 -0.3865 -0.7026 -2.8749
   97bbb     C4 2794   8.569   4.793  13.522  0.5338 -0.3946  1.3303
   97bbb     H7 2795   8.674   4.786  13.550  0.8199 -0.8613  0.1864
   97bbb     H8 2796   8.516   4.710  13.571  0.6630 -1.2279  0.1005
   97bbb     C5 2797   8.563   4.400  13.265  0.5262  0.1847  0.6863
   97bbb     H9 2798   8.671   4.382  13.269  0.9517  2.0746 -0.7054
   97bbb    H10 2799   8.542   4.414  13.158 -2.4858 -0.3724  1.1035
   97bbb     C6 2800   8.802   4.782  13.255 -0.5628  0.8278  0.1048
   97bbb    H11 2801   8.769   4.877  13.297 -0.6879  0.2428  1.3915
   97bbb    H12 2802   8.780   4.784  13.148 -0.3719 -0.4514  0.0238
   97bbb     C7 2803   8.511   4.926  13.571  0.6934  0.4676  0.2966
   97bbb    H13 2804   8.532   4.944  13.677 -0.0729  1.9096  0.2294
   97bbb    H14 2805   8.402   4.937  13.566  0.6247  1.1034  2.4291
   97bbb     C8 2806   8.955   4.777  13.261 -0.2452  0.1064  0.5048
   97bbb    H15 2807   9.001   4.692  13.209  1.0401  2.2768 -2.1936
   97bbb    H16 2808   8.982   4.758  13.366  2.3483  0.3957 -0.0222
   97bbb     C9 2809   8.475   4.279  13.288 -0.9582  0.6971  0.0206
   97bbb    H17 2810   8.371   4.306  13.266 -1.3656 -0.0505  0.9794
   97bbb    H18 2811   8.477   4.249  13.393 -0.1858 -1.1214 -0.4669
   97bbb     O1 2812   8.569   5.032  13.487 -0.2997  0.0116 -0.1184
   98bbb     N1 2813   9.000   5.201  12.434  0.4329 -0.2922  0.7142
   98bbb     C1 2814   9.085   5.320  12.463 -0.0653 -0.0709  0.3162
   98bbb     H1 2815   9.029   5.393  12.524 -0.3041 -1.4440  1.8127
   98bbb     H2 2816   9.103   5.367  12.366  1.4245 -0.9309  0.1475
   98bbb     C2 2817   9.050   5.114  12.323 -0.3016 -0.1741  0.1163
   98bbb     H3 2818   8.989   5.023  12.315 -0.6827  0.0900  0.0062
   98bbb     H4 2819   9.146   5.074  12.360 -0.0103  0.1968 -0.2301
   98bbb     C3 2820   8.950   5.118  12.540 -0.5715 -0.2255 -0.6339
   98bbb     H5 2821   9.036   5.064  12.581  0.6040  1.7532 -0.3538
   98bbb     H6 2822   8.871   5.054  12.499  2.0574 -1.4666 -4.3259
   98bbb     C4 2823   8.896   5.208  12.656 -0.6932  0.2029  0.1079
   98bbb     H7 2824   8.841   5.294  12.615  0.6211  0.8140 -0.4026
   98bbb     H8 2825   8.974   5.258  12.714 -0.1964  0.0809 -0.4479
   98bbb     C5 2826   9.209   5.292  12.549  0.3305  0.5920  0.0909
   98bbb     H9 2827   9.282   5.238  12.487 -0.4882 -1.9795  1.2310
   98bbb    H10 2828   9.180   5.218  12.625  0.8478  0.9069  0.6029
   98bbb     C6 2829   9.071   5.191  12.182  0.1572  0.1366  0.0270
   98bbb    H11 2830   9.101   5.111  12.113 -1.4878 -1.3170  0.9153
   98bbb    H12 2831   9.153   5.263  12.177  0.4158 -0.2133 -1.5504
   98bbb     C7 2832   8.803   5.122  12.746 -0.4439  0.6294 -0.1381
   98bbb    H13 2833   8.868   5.036  12.765  0.2830  1.4222  1.1816
   98bbb    H14 2834   8.717   5.096  12.684 -0.8578 -0.5699  0.9200
   98bbb     C8 2835   8.948   5.270  12.126  0.1123  0.0466  0.4792
   98bbb    H15 2836   8.989   5.324  12.040  0.2580 -3.7382 -2.0673
   98bbb    H16 2837   8.905   5.338  12.201  1.6754  2.4077 -0.6421
   98bbb     C9 2838   9.276   5.421  12.604 -0.5812 -0.2202  0.1953
   98bbb    H17 2839   9.363   5.380  12.658 -0.1798 -0.0288 -0.2975
   98bbb    H18 2840   9.205   5.472  12.670 -0.2989  0.7291 -0.2146
   98bbb     O1 2841   8.764   5.183  12.865  0.4901 -0.1240 -0.4982
   99bbb     N1 2842   5.819   6.000  13.539  0.6503 -0.3201  0.2508
   99bbb     C1 2843   5.795   6.117  13.626  0.1676  0.1066 -0.0558
   99bbb     H1 2844   5.716   6.090  13.696  0.3819 -0.4022 -0.0064
   99bbb     H2 2845   5.773   6.208  13.568  1.8192 -0.3988 -1.5579
   99bbb     C2 2846   5.699   5.935  13.484  0.4411  0.0188 -0.5715
   99bbb     H3 2847   5.633   5.926  13.571  0.1700 -0.9913 -0.8767
   99bbb     H4 2848   5.720   5.830  13.460  1.9804  0.0571  0.4405
   99bbb     C3 2849   5.920   6.030  13.435 -0.3059  0.4777  0.3030
   99bbb     H5 2850   5.999   6.095  13.474 -0.8802  0.8015  0.9740
   99bbb     H6 2851   5.885   6.077  13.342  0.9448  0.1626 -0.3480
   99bbb     C4 2852   6.000   5.902  13.399  0.5594  0.2353 -0.2414
   99bbb     H7 2853   6.064   5.928  13.314  0.8625 -1.8249 -0.6902
   99bbb     H8 2854   5.930   5.825  13.364 -1.3388  1.4826  0.5864
   99bbb     C5 2855   5.916   6.141  13.722 -0.1222 -0.2600 -0.4657
   99bbb     H9 2856   6.016   6.157  13.681  0.0577 -0.2389 -0.0302
   99bbb    H10 2857   5.938   6.052  13.783 -0.1653  0.1287  0.1259
   99bbb     C6 2858   5.616   6.026  13.383 -0.3923  0.3235  0.2672
   99bbb    H11 2859   5.688   6.026  13.300 -0.2774 -0.7733  0.3414
   99bbb    H12 2860   5.604   6.128  13.421  0.3705  1.2992 -1.9050
   99bbb     C7 2861   6.066   5.844  13.521 -0.4005 -0.7342 -0.1391
   99bbb    H13 2862   6.117   5.752  13.489  0.1788 -0.8118  0.9445
   99bbb    H14 2863   5.981   5.816  13.586 -1.0096 -1.3428 -1.1753
   99bbb     C8 2864   5.482   5.960  13.349  0.5187 -0.1742  0.2725
   99bbb    H15 2865   5.445   5.935  13.449  1.3824  0.6156  0.7971
   99bbb    H16 2866   5.495   5.865  13.296 -1.3565  0.8744 -2.3044
   99bbb     C9 2867   5.878   6.265  13.820  0.5853 -0.5091  1.2293
   99bbb    H17 2868   5.786   6.239  13.876 -0.0425 -0.5262  0.2185
   99bbb    H18 2869   5.860   6.350  13.754  3.7515 -2.0736 -1.9511
   99bbb     O1 2870   6.155   5.938  13.585 -0.2559  0.1950  0.1379
  100bbb     N1 2871   6.949   5.925  14.632 -0.0323  0.1988  0.3590
  100bbb     C1 2872   6.943   6.026  14.742 -0.3108  0.0297  0.1577
  100bbb     H1 2873   6.928   5.981  14.841 -1.1595 -1.4888 -0.6269
  100bbb     H2 2874   6.864   6.102  14.734  1.8743  3.4229  5.2632
  100bbb     C2 2875   7.064   5.834  14.649  0.4215 -1.0046 -0.4151
  100bbb     H3 2876   7.046   5.773  14.738 -0.4134 -0.4274 -0.1672
  100bbb     H4 2877   7.151   5.896  14.675 -0.4035  0.5142 -1.0734
  100bbb     C3 2878   6.823   5.859  14.614  0.7650 -0.0667 -0.1243
  100bbb     H5 2879   6.797   5.790  14.695 -1.0697 -0.2653 -0.8310
  100bbb     H6 2880   6.834   5.796  14.524 -1.6606 -0.4921 -0.1883
  100bbb     C4 2881   6.694   5.946  14.584 -0.4960 -0.2845 -0.1058
  100bbb     H7 2882   6.726   6.038  14.534  0.0997 -0.0603  0.6668
  100bbb     H8 2883   6.636   5.969  14.674  0.8733 -1.4737  1.1398
  100bbb     C5 2884   7.066   6.117  14.766  0.5955 -0.0153 -0.2709
  100bbb     H9 2885   7.144   6.055  14.813 -0.2804 -0.0157  1.2446
  100bbb    H10 2886   7.049   6.188  14.848  0.9910 -1.0760  0.7745
  100bbb     C6 2887   7.096   5.731  14.541  0.2946 -0.3319 -0.0118
  100bbb    H11 2888   7.135   5.789  14.456 -0.4951  2.9309  1.6850
  100bbb    H12 2889   7.004   5.687  14.499  1.1043 -0.4726 -1.7308
  100bbb     C7 2890   6.592   5.873  14.497  0.1090  0.4568  1.3221
  100bbb    H13 2891   6.494   5.909  14.528  0.4312  3.1766 -0.4277
  100bbb    H14 2892   6.603   5.767  14.523 -0.1291 -0.0924 -0.6557
  100bbb     C8 2893   7.200   5.629  14.602  0.0813 -0.4819  0.8222
  100bbb    H15 2894   7.147   5.571  14.680 -0.4151 -3.2212 -1.4018
  100bbb    H16 2895   7.275   5.691  14.653  1.0622 -0.6704 -0.3641
  100bbb     C9 2896   7.123   6.180  14.641 -0.4809  0.3740 -0.6366
  100bbb    H17 2897   7.100   6.124  14.550 -0.1348  1.2635 -1.2873
  100bbb    H18 2898   7.231   6.167  14.655 -0.3657  0.2816 -1.5824
  100bbb     O1 2899   6.619   5.898  14.352 -0.1294 -0.1694 -0.0712
  101bbb     N1 2900   7.613   5.829  14.567 -0.0232  0.1335 -0.4908
  101bbb     C1 2901   7.539   5.823  14.698 -0.3357  0.1714 -1.1108
  101bbb     H1 2902   7.431   5.803  14.692 -0.7571  2.1372 -0.6882
  101bbb     H2 2903   7.532   5.925  14.738 -2.6270  0.3444 -1.8139
  101bbb     C2 2904   7.705   5.942  14.555  0.5026 -0.3500 -0.7395
  101bbb     H3 2905   7.657   6.033  14.592 -0.6862 -1.2362 -0.0166
  101bbb     H4 2906   7.724   5.949  14.447  2.2945 -1.9913 -0.6055
  101bbb     C3 2907   7.512   5.814  14.447 -0.9214 -0.3882  0.4391
  101bbb     H5 2908   7.459   5.718  14.444 -2.1829  0.2892  0.6259
  101bbb     H6 2909   7.577   5.815  14.358  1.5618 -4.1855  1.9453
  101bbb     C4 2910   7.411   5.933  14.443  0.4890 -0.0699  0.2374
  101bbb     H7 2911   7.451   6.019  14.498 -0.2759 -1.0022  2.3352
  101bbb     H8 2912   7.321   5.904  14.498  0.3977  0.0193  0.1375
  101bbb     C5 2913   7.596   5.722  14.798  0.4038  0.4787 -0.2286
  101bbb     H9 2914   7.702   5.748  14.810 -0.1209  1.6675  2.7614
  101bbb    H10 2915   7.585   5.621  14.757  1.2549  0.1443  0.3228
  101bbb     C6 2916   7.844   5.903  14.618  0.3519  0.0079 -0.3629
  101bbb    H11 2917   7.874   5.800  14.592  0.5131 -0.2705  0.8609
  101bbb    H12 2918   7.815   5.902  14.724  1.3633  1.9345 -0.0090
  101bbb     C7 2919   7.364   5.973  14.303  0.4913 -0.9056  0.2634
  101bbb    H13 2920   7.298   6.059  14.317  1.5930 -0.0094  0.1707
  101bbb    H14 2921   7.319   5.887  14.253 -0.9819 -0.4618  0.7970
  101bbb     C8 2922   7.955   6.007  14.589  0.0164  0.7010 -0.1964
  101bbb    H15 2923   7.921   6.107  14.619  2.4235  3.1122 -4.3973
  101bbb    H16 2924   7.957   6.016  14.479  3.4445  0.8191 -0.2382
  101bbb     C9 2925   7.540   5.738  14.939 -0.1053  0.2957 -0.4290
  101bbb    H17 2926   7.554   5.844  14.963 -2.1609  0.8023 -1.2731
  101bbb    H18 2927   7.606   5.679  15.004  0.1596  2.6879  1.6324
  101bbb     O1 2928   7.482   6.010  14.229  0.3361  0.3288 -0.3258
  102bbb     N1 2929   8.241   5.547  13.550 -0.1522 -0.4185 -0.3242
  102bbb     C1 2930   8.274   5.606  13.422  0.0282  0.2076  0.2844
  102bbb     H1 2931   8.194   5.676  13.396  0.0217 -1.4063 -5.2579
  102bbb     H2 2932   8.278   5.528  13.346  0.0561 -1.2361  1.7162
  102bbb     C2 2933   8.339   5.450  13.589 -0.0620  0.6948 -0.6461
  102bbb     H3 2934   8.434   5.501  13.568  0.9585  0.3110  2.4732
  102bbb     H4 2935   8.340   5.361  13.525  1.3375  0.1123  0.1267
  102bbb     C3 2936   8.100   5.490  13.565 -1.0627  0.0433  0.4800
  102bbb     H5 2937   8.081   5.461  13.669 -1.0163 -1.1320  0.1836
  102bbb     H6 2938   8.093   5.395  13.509 -0.9590  0.2287  0.1468
  102bbb     C4 2939   7.987   5.587  13.526  0.1453 -0.0559  0.1934
  102bbb     H7 2940   7.898   5.535  13.562  1.1236 -0.9398  1.4573
  102bbb     H8 2941   7.981   5.596  13.417  2.1471 -0.3242  0.0169
  102bbb     C5 2942   8.408   5.677  13.403  0.0669  0.4005 -0.2389
  102bbb     H9 2943   8.411   5.708  13.298  0.7600  1.6344  0.1278
  102bbb    H10 2944   8.495   5.611  13.414 -1.1198 -1.1171  0.4327
  102bbb     C6 2945   8.341   5.418  13.741 -0.7697  0.2914  0.1371
  102bbb    H11 2946   8.295   5.318  13.743 -0.8105  0.3130  2.7076
  102bbb    H12 2947   8.269   5.476  13.801 -1.5975 -0.9980  0.4228
  102bbb     C7 2948   7.989   5.730  13.583  0.2448  0.1846  0.6968
  102bbb    H13 2949   7.911   5.791  13.536 -0.7143 -1.3493  0.2273
  102bbb    H14 2950   8.091   5.767  13.573  0.5721 -0.7843  0.3438
  102bbb     C8 2951   8.485   5.426  13.790  1.1794 -0.2491 -0.3277
  102bbb    H15 2952   8.558   5.396  13.714  2.4150  0.4438  0.5617
  102bbb    H16 2953   8.498   5.352  13.871  0.4226 -0.5482 -0.4695
  102bbb     C9 2954   8.415   5.812  13.481 -0.5097  0.1475 -0.6047
  102bbb    H17 2955   8.515   5.857  13.481  0.4951 -1.9339 -1.4007
  102bbb    H18 2956   8.397   5.785  13.586 -1.5472  0.2401 -0.7496
  102bbb     O1 2957   7.954   5.704  13.720 -0.4377 -0.6861 -0.4917
  103bbb     N1 2958   7.858   7.314   9.709 -0.3119 -0.0856 -0.2725
  103bbb     C1 2959   7.818   7.437   9.778 -0.5404 -0.1146  0.3657
  103bbb     H1 2960   7.905   7.502   9.794 -1.8114  1.0880  3.1843
  103bbb     H2 2961   7.781   7.422   9.880 -0.6276 -1.7320  0.1098
  103bbb     C2 2962   7.902   7.331   9.573 -0.5449  0.2862 -0.0543
  103bbb     H3 2963   7.987   7.400   9.571 -0.6790  0.4362 -1.0125
  103bbb     H4 2964   7.819   7.382   9.523 -0.5974  1.2929  1.0359
  103bbb     C3 2965   7.948   7.237   9.793 -0.4419 -0.3658  0.3297
  103bbb     H5 2966   8.048   7.283   9.792  0.6329 -2.5618  1.0261
  103bbb     H6 2967   7.960   7.137   9.750  0.8100  1.0041 -2.8785
  103bbb     C4 2968   7.895   7.189   9.938 -0.2615 -0.5852 -0.0784
  103bbb     H7 2969   7.881   7.279   9.997  0.8692  0.2503 -1.0192
  103bbb     H8 2970   7.967   7.125   9.991  0.5459  0.1221 -0.3029
  103bbb     C5 2971   7.725   7.540   9.708 -1.1640 -0.4334 -0.4892
  103bbb     H9 2972   7.758   7.573   9.609  0.5488 -1.7150 -0.3813
  103bbb    H10 2973   7.745   7.639   9.752 -1.0611  0.5075 -2.5383
  103bbb     C6 2974   7.939   7.197   9.500  0.1928  0.5611 -0.1546
  103bbb    H11 2975   7.857   7.124   9.491  1.9598 -1.4617 -0.6110
  103bbb    H12 2976   8.028   7.155   9.549 -0.2253  0.0041  0.1337
  103bbb     C7 2977   7.766   7.108   9.926  0.0102  0.7210 -0.8656
  103bbb    H13 2978   7.784   7.023   9.859  1.0480 -0.3803  0.7283
  103bbb    H14 2979   7.682   7.171   9.895 -1.7229 -0.3848  1.3026
  103bbb     C8 2980   7.988   7.230   9.354  0.1108 -0.8734  0.6447
  103bbb    H15 2981   8.080   7.289   9.348  1.1424 -2.4708  0.3799
  103bbb    H16 2982   7.907   7.291   9.313  2.7079  1.7687 -0.9020
  103bbb     C9 2983   7.577   7.496   9.703  0.0680  0.0076  0.2680
  103bbb    H17 2984   7.574   7.387   9.713  0.8124 -0.1656 -1.0957
  103bbb    H18 2985   7.531   7.515   9.605 -3.2720 -3.2636  0.9615
  103bbb     O1 2986   7.729   7.046  10.058 -0.5730 -0.5219  0.2094
  104bbb     N1 2987   8.523   7.317  10.547 -0.1035 -0.3925  0.0033
  104bbb     C1 2988   8.657   7.321  10.623  0.7271 -0.4607  0.3581
  104bbb     H1 2989   8.693   7.423  10.645  2.4795 -1.6117  3.3932
  104bbb     H2 2990   8.732   7.261  10.571  1.6500  0.0133  1.1034
  104bbb     C2 2991   8.408   7.402  10.604 -0.0932  0.1165  0.2552
  104bbb     H3 2992   8.377   7.359  10.700 -0.6518 -2.7892 -1.1334
  104bbb     H4 2993   8.319   7.405  10.540 -0.0048  0.2112  0.1338
  104bbb     C3 2994   8.473   7.179  10.515 -0.7922 -0.0966  0.1319
  104bbb     H5 2995   8.443   7.127  10.606  2.2753 -0.0589  1.2554
  104bbb     H6 2996   8.562   7.132  10.472 -0.9024  0.6209 -0.9326
  104bbb     C4 2997   8.362   7.170  10.409 -0.0684 -0.2978 -0.8974
  104bbb     H7 2998   8.394   7.234  10.326  1.4689  0.5729  0.2966
  104bbb     H8 2999   8.265   7.206  10.446  0.1134  0.2395 -0.9180
  104bbb     C5 3000   8.666   7.265  10.766  0.2006 -0.3544 -0.1014
  104bbb     H9 3001   8.605   7.175  10.784  0.6040 -0.4709  0.7589
  104bbb    H10 3002   8.631   7.348  10.828 -2.6694 -0.6432 -1.1798
  104bbb     C6 3003   8.448   7.549  10.624 -0.3169  0.0245  0.0284
  104bbb    H11 3004   8.534   7.559  10.691 -0.5811 -3.7514  1.1764
  104bbb    H12 3005   8.368   7.600  10.679 -1.4997  0.5568 -2.0496
  104bbb     C7 3006   8.332   7.026  10.359 -0.3729 -0.6129 -0.5289
  104bbb    H13 3007   8.296   6.965  10.443  1.1436 -0.9770 -0.1160
  104bbb    H14 3008   8.424   6.988  10.314  0.3917  0.7181 -0.1470
  104bbb     C8 3009   8.469   7.628  10.492  0.0562  0.0256 -0.6170
  104bbb    H15 3010   8.389   7.605  10.420 -0.7641  3.2704 -0.9030
  104bbb    H16 3011   8.553   7.578  10.443 -1.1415 -0.5484 -2.1753
  104bbb     C9 3012   8.814   7.216  10.802  0.5692  0.1471 -0.1583
  104bbb    H17 3013   8.889   7.289  10.768  2.2888 -2.2211 -1.8026
  104bbb    H18 3014   8.819   7.128  10.736 -2.1038  0.8457 -1.4452
  104bbb     O1 3015   8.235   7.014  10.261  0.3537 -0.1974 -0.4018
  105bbb     N1 3016   8.211   7.885  11.490 -0.7455  0.1634  0.2989
  105bbb     C1 3017   8.229   7.963  11.615 -0.1625  0.5837  0.4513
  105bbb     H1 3018   8.141   7.945  11.678  0.8561 -1.0396  1.4890
  105bbb     H2 3019   8.219   8.069  11.592 -0.0314  0.5952  0.4443
  105bbb     C2 3020   8.312   7.915  11.382 -0.0944 -0.1944 -0.1151
  105bbb     H3 3021   8.266   7.875  11.290 -1.4706  1.2325 -0.0801
  105bbb     H4 3022   8.400   7.854  11.403 -1.4286 -1.3044  2.6940
  105bbb     C3 3023   8.192   7.734  11.507  0.5758  0.1219  0.0098
  105bbb     H5 3024   8.280   7.701  11.564  1.5839 -0.3215 -1.7428
  105bbb     H6 3025   8.194   7.694  11.405 -0.1406  0.5367 -0.1702
  105bbb     C4 3026   8.062   7.694  11.587  0.1610  0.0705  0.1494
  105bbb     H7 3027   7.976   7.745  11.541  0.2692  1.3429  1.2984
  105bbb     H8 3028   8.066   7.739  11.687  1.4949  1.8926 -0.6642
  105bbb     C5 3029   8.362   7.936  11.691 -0.6034  0.2979  0.3373
  105bbb     H9 3030   8.438   7.948  11.612 -2.1708 -0.2900 -1.3403
  105bbb    H10 3031   8.365   7.832  11.725 -0.6986  0.3022  0.3554
  105bbb     C6 3032   8.332   8.067  11.343  0.4903  0.0529 -0.1692
  105bbb    H11 3033   8.257   8.135  11.385  0.1010 -1.2370  1.3424
  105bbb    H12 3034   8.326   8.076  11.234 -2.5922 -4.4094 -0.6579
  105bbb     C7 3035   8.033   7.540  11.578 -0.4513  0.3307  0.0397
  105bbb    H13 3036   7.943   7.525  11.639 -0.0286  0.0559  0.6060
  105bbb    H14 3037   8.118   7.485  11.621 -0.6445  0.6103  0.7940
  105bbb     C8 3038   8.465   8.137  11.395 -0.5321 -0.1645 -0.6660
  105bbb    H15 3039   8.453   8.151  11.503  0.0811 -0.8913 -0.4956
  105bbb    H16 3040   8.473   8.243  11.368 -2.0299  0.1731  0.1104
  105bbb     C9 3041   8.394   8.038  11.806  0.3338  0.2851  0.3498
  105bbb    H17 3042   8.335   8.129  11.792  1.9158  1.3991  0.6674
  105bbb    H18 3043   8.500   8.062  11.803  0.4557 -0.3624 -1.8594
  105bbb     O1 3044   8.015   7.518  11.437 -0.7422  0.0313  0.0079
  106bbb     N1 3045   8.293   6.835  12.320 -0.5231 -0.5461 -0.2321
  106bbb     C1 3046   8.359   6.872  12.446  0.4299  0.1978 -0.6564
  106bbb     H1 3047   8.468   6.866  12.433  0.7969  0.4977  1.6777
  106bbb     H2 3048   8.315   6.805  12.522  0.1330 -0.7703 -1.6615
  106bbb     C2 3049   8.327   6.696  12.288 -0.0840  0.1943  0.2321
  106bbb     H3 3050   8.259   6.668  12.207 -1.5391  3.1187  0.3069
  106bbb     H4 3051   8.314   6.628  12.372 -0.7913 -0.0854 -0.1006
  106bbb     C3 3052   8.316   6.935  12.205  0.2054  0.0483  0.2555
  106bbb     H5 3053   8.421   6.944  12.175 -0.4127 -0.3812 -2.2893
  106bbb     H6 3054   8.301   7.039  12.236 -0.5449 -0.0951  0.3846
  106bbb     C4 3055   8.226   6.918  12.083  0.2121  0.0167 -0.0920
  106bbb     H7 3056   8.120   6.924  12.113  0.1098  0.3595 -0.5139
  106bbb     H8 3057   8.247   6.817  12.045  1.0790  1.1156 -2.7777
  106bbb     C5 3058   8.328   7.017  12.499 -0.4604 -0.3266 -0.6572
  106bbb     H9 3059   8.377   7.092  12.434 -2.0553  0.0876 -1.4497
  106bbb    H10 3060   8.374   7.026  12.598  1.0931 -0.0522 -1.3632
  106bbb     C6 3061   8.475   6.664  12.253  0.0608  0.3538  0.2074
  106bbb    H11 3062   8.543   6.680  12.338 -0.8966  1.8336  0.7469
  106bbb    H12 3063   8.521   6.733  12.182  0.9086 -1.6941 -1.3269
  106bbb     C7 3064   8.248   7.022  11.963 -0.1079  0.6602  0.1794
  106bbb    H13 3065   8.339   6.994  11.909  0.3200  2.4291 -0.0665
  106bbb    H14 3066   8.266   7.124  11.997  0.1739  0.8399 -0.4968
  106bbb     C8 3067   8.496   6.514  12.205 -0.1444 -0.1116 -1.2844
  106bbb    H15 3068   8.403   6.491  12.152 -0.9200  0.7396 -0.3502
  106bbb    H16 3069   8.505   6.428  12.272  1.1411 -2.0644 -3.8212
  106bbb     C9 3070   8.179   7.048  12.507  0.1429  0.7169 -0.4117
  106bbb    H17 3071   8.126   6.963  12.553  1.9711 -1.4070 -1.9653
  106bbb    H18 3072   8.144   7.042  12.404 -1.6579  1.5240  0.1116
  106bbb     O1 3073   8.130   7.016  11.882 -0.6156 -0.9575 -0.0459
  107bbb     N1 3074   6.809   6.799  12.483  0.1466 -0.1442  0.1607
  107bbb     C1 3075   6.812   6.672  12.568  0.0328  0.5223 -0.2242
  107bbb     H1 3076   6.858   6.697  12.665  1.3571 -0.4985 -0.5598
  107bbb     H2 3077   6.869   6.596  12.512 -0.2556 -0.8940  1.3299
  107bbb     C2 3078   6.760   6.920  12.554  0.3064 -0.3863 -0.4238
  107bbb     H3 3079   6.664   6.898  12.602 -1.5793  2.1792 -2.6965
  107bbb     H4 3080   6.748   6.991  12.471  0.3168  0.6362  0.4289
  107bbb     C3 3081   6.756   6.785  12.349  0.1836 -0.5868  0.0609
  107bbb     H5 3082   6.789   6.868  12.286 -1.5938  0.2098  0.1200
  107bbb     H6 3083   6.647   6.789  12.352  0.1840 -0.9678  0.9039
  107bbb     C4 3084   6.800   6.660  12.268  0.3591 -0.1137 -0.1309
  107bbb     H7 3085   6.766   6.568  12.316 -1.6323  0.7313  0.1812
  107bbb     H8 3086   6.910   6.658  12.262  0.4026  0.6135  0.3039
  107bbb     C5 3087   6.668   6.613  12.595 -0.1065  0.5843 -0.5113
  107bbb     H9 3088   6.625   6.602  12.495 -0.4518  0.3912 -0.3403
  107bbb    H10 3089   6.598   6.678  12.649  1.1109  1.2849  0.2786
  107bbb     C6 3090   6.842   6.976  12.672  0.1038 -0.1952 -0.6285
  107bbb    H11 3091   6.934   7.025  12.638  1.7094 -2.9335 -0.5033
  107bbb    H12 3092   6.893   6.903  12.735  0.8430  0.7447 -0.1052
  107bbb     C7 3093   6.730   6.655  12.133 -0.3646 -0.3770  0.2982
  107bbb    H13 3094   6.746   6.750  12.081  1.7851 -0.5404  0.5691
  107bbb    H14 3095   6.622   6.641  12.146  0.0371 -0.8797  4.8617
  107bbb     C8 3096   6.762   7.083  12.745  0.3264  0.7654 -0.3836
  107bbb    H15 3097   6.658   7.084  12.713  0.3188  0.4713 -0.3724
  107bbb    H16 3098   6.804   7.176  12.705  0.9962  0.3042 -0.7714
  107bbb     C9 3099   6.671   6.473  12.669  0.2866  0.4226 -0.0089
  107bbb    H17 3100   6.694   6.486  12.775 -0.5742  0.2878  0.2027
  107bbb    H18 3101   6.743   6.401  12.628 -0.7386 -0.1779 -0.8035
  107bbb     O1 3102   6.785   6.548  12.056  0.2210  0.5815 -0.5491
  108bbb     N1 3103   6.233   6.917  11.738 -0.2213  0.3679 -0.0314
  108bbb     C1 3104   6.345   6.995  11.673 -0.0569 -0.3587 -0.1274
  108bbb     H1 3105   6.410   6.937  11.606  1.5445  0.8653  0.3186
  108bbb     H2 3106   6.403   7.035  11.757 -2.3012  3.1772 -0.0651
  108bbb     C2 3107   6.130   6.996  11.811 -0.2831 -0.5874  1.0190
  108bbb     H3 3108   6.062   6.926  11.861 -4.2281 -0.1665 -3.0746
  108bbb     H4 3109   6.063   7.051  11.743 -0.9671 -1.3873  1.0372
  108bbb     C3 3110   6.284   6.804  11.824 -0.7383  0.3312  0.4460
  108bbb     H5 3111   6.198   6.751  11.868 -0.8866  0.2818  0.0981
  108bbb     H6 3112   6.345   6.848  11.904 -0.5713  0.7246  0.1052
  108bbb     C4 3113   6.371   6.699  11.751  0.7955  0.8732  0.1008
  108bbb     H7 3114   6.387   6.613  11.818  1.0105  1.1923  0.4624
  108bbb     H8 3115   6.470   6.740  11.728  0.8407  0.2279 -0.9360
  108bbb     C5 3116   6.313   7.121  11.579  0.6270 -0.5880 -0.2153
  108bbb     H9 3117   6.400   7.182  11.553 -0.4253  0.3177 -1.8350
  108bbb    H10 3118   6.249   7.189  11.635  1.5583  1.6253 -1.6875
  108bbb     C6 3119   6.178   7.087  11.918 -0.3114 -0.3774  0.2330
  108bbb    H11 3120   6.244   7.160  11.870  0.9360 -2.2419 -1.0200
  108bbb    H12 3121   6.236   7.027  11.989 -1.6804 -0.7505  1.0742
  108bbb     C7 3122   6.301   6.649  11.625  0.0334 -0.3657 -0.2323
  108bbb    H13 3123   6.266   6.726  11.555  0.0051 -0.6814 -0.5683
  108bbb    H14 3124   6.207   6.601  11.658 -0.5441  1.7516  1.4256
  108bbb     C8 3125   6.054   7.149  11.991 -0.4036 -0.5005 -0.4272
  108bbb    H15 3126   6.092   7.188  12.086  0.5614  0.0665 -1.0340
  108bbb    H16 3127   5.988   7.068  12.026 -1.1106 -0.6698 -2.0492
  108bbb     C9 3128   6.238   7.089  11.447 -0.1737 -0.1220 -0.6700
  108bbb    H17 3129   6.140   7.140  11.442 -0.9648 -1.5547 -0.4279
  108bbb    H18 3130   6.212   6.982  11.452 -3.7369  0.5918 -0.9061
  108bbb     O1 3131   6.393   6.559  11.549 -0.2798 -0.3295 -0.5605
  109bbb     N1 3132   7.088   7.464  12.715  0.4403  0.2517  0.2726
  109bbb     C1 3133   7.212   7.510  12.641 -0.3426  0.1377  0.2476
  109bbb     H1 3134   7.194   7.532  12.536 -1.2449  0.0141  0.3697
  109bbb     H2 3135   7.289   7.431  12.647 -1.5325 -0.9720  3.2515
  109bbb     C2 3136   7.103   7.410  12.848 -0.9540  0.3617 -0.8636
  109bbb     H3 3137   7.001   7.378  12.873  0.0207 -2.4824 -0.2090
  109bbb     H4 3138   7.148   7.475  12.924 -2.7480  0.6593  0.0114
  109bbb     C3 3139   6.987   7.570  12.710 -0.1641  0.3413  0.9330
  109bbb     H5 3140   7.008   7.637  12.625 -0.5623 -1.3758 -0.5712
  109bbb     H6 3141   6.980   7.635  12.798 -1.7939 -0.3967  1.3854
  109bbb     C4 3142   6.837   7.517  12.689 -0.6413  0.2724  0.7081
  109bbb     H7 3143   6.782   7.611  12.693  1.6054  1.7369 -0.4857
  109bbb     H8 3144   6.818   7.441  12.766  2.3840 -2.5472 -1.0565
  109bbb     C5 3145   7.275   7.638  12.708 -0.0419  0.4625 -0.1460
  109bbb     H9 3146   7.253   7.633  12.816  1.5667 -0.9507  0.1623
  109bbb    H10 3147   7.210   7.721  12.677  0.0781  0.5067 -0.2757
  109bbb     C6 3148   7.177   7.266  12.847 -0.3085 -0.7158  0.9804
  109bbb    H11 3149   7.263   7.267  12.780 -1.4048 -0.5734 -0.4820
  109bbb    H12 3150   7.112   7.189  12.803  0.1072 -0.5869  0.1342
  109bbb     C7 3151   6.815   7.438  12.554  0.1640  0.2323 -0.4259
  109bbb    H13 3152   6.889   7.358  12.550  0.4106  0.4646 -0.5249
  109bbb    H14 3153   6.820   7.514  12.475  0.4150  1.5093  0.7813
  109bbb     C8 3154   7.230   7.220  12.984  0.7710  0.4403 -0.3478
  109bbb    H15 3155   7.156   7.239  13.062  0.7145  0.2281 -0.3494
  109bbb    H16 3156   7.308   7.294  13.003  0.7455  0.3765  0.0118
  109bbb     C9 3157   7.421   7.670  12.677  0.7020  0.3044  0.0321
  109bbb    H17 3158   7.476   7.593  12.731  0.8128 -0.6511 -1.4074
  109bbb    H18 3159   7.450   7.768  12.719 -0.9714  0.6303  0.5137
  109bbb     O1 3160   6.683   7.386  12.569 -0.0111  0.0729 -0.1931
  110bbb     N1 3161   6.806   7.958  11.950 -0.0232 -0.0387  0.2932
  110bbb     C1 3162   6.897   7.906  11.839  0.5857  0.1870 -0.2117
  110bbb     H1 3163   6.961   7.823  11.872  0.5653 -0.2065 -1.1339
  110bbb     H2 3164   6.967   7.979  11.796  1.7002  0.3649  1.7839
  110bbb     C2 3165   6.717   8.076  11.921  0.2935 -0.6149 -0.3033
  110bbb     H3 3166   6.691   8.128  12.015  1.1047 -0.5468 -0.1048
  110bbb     H4 3167   6.624   8.040  11.876 -1.3036 -0.2805  2.4354
  110bbb     C3 3168   6.729   7.844  12.015 -1.2919  0.1584 -0.5932
  110bbb     H5 3169   6.811   7.777  12.043 -1.4005  0.4670  0.5236
  110bbb     H6 3170   6.673   7.801  11.931  1.9062  0.3757 -3.0463
  110bbb     C4 3171   6.642   7.885  12.135  0.4036  0.2088 -0.1815
  110bbb     H7 3172   6.550   7.939  12.110  1.3069  2.1075  0.3510
  110bbb     H8 3173   6.700   7.956  12.196  2.2901 -1.3927 -0.0195
  110bbb     C5 3174   6.820   7.843  11.718 -0.6519  0.2379 -0.4126
  110bbb     H9 3175   6.727   7.899  11.702 -0.3666  0.8955  0.1701
  110bbb    H10 3176   6.794   7.738  11.735 -2.3472  0.5055 -1.1459
  110bbb     C6 3177   6.779   8.187  11.831 -0.7429  0.1669 -0.3577
  110bbb    H11 3178   6.799   8.138  11.735  0.3718  0.0999 -0.1085
  110bbb    H12 3179   6.874   8.223  11.873 -1.3504  0.7728  0.5461
  110bbb     C7 3180   6.609   7.768  12.222 -0.3988  0.2359 -0.6764
  110bbb    H13 3181   6.554   7.813  12.305 -0.5898  2.0053 -1.6943
  110bbb    H14 3182   6.700   7.719  12.259 -0.3825 -0.8449 -2.0488
  110bbb     C8 3183   6.684   8.308  11.824 -0.1228 -0.5680  0.4414
  110bbb    H15 3184   6.670   8.340  11.928 -0.5203 -0.7386  0.4411
  110bbb    H16 3185   6.591   8.274  11.777 -0.5732  0.5022  0.5292
  110bbb     C9 3186   6.908   7.843  11.593  1.1294  0.3787 -0.5932
  110bbb    H17 3187   7.004   7.798  11.621  0.9137  0.6604  0.6525
  110bbb    H18 3188   6.913   7.950  11.571 -1.4993  0.4194 -1.3813
  110bbb     O1 3189   6.523   7.676  12.152 -0.4897  0.1009  0.0631
  111bbb     N1 3190   8.629   3.503   9.558  0.0596  0.7304 -0.1266
  111bbb     C1 3191   8.532   3.396   9.510 -0.5117 -0.4263  0.3123
  111bbb     H1 3192   8.489   3.352   9.601  0.1252 -0.5402  0.5703
  111bbb     H2 3193   8.602   3.321   9.470 -0.5196  0.0964 -0.7188
  111bbb     C2 3194   8.675   3.497   9.700  0.2233  0.1672  0.2666
  111bbb     H3 3195   8.758   3.567   9.715  0.3628  0.2724 -0.8903
  111bbb     H4 3196   8.721   3.402   9.727 -1.9240 -2.3677 -3.9177
  111bbb     C3 3197   8.736   3.533   9.463 -0.6054 -0.1681  0.0537
  111bbb     H5 3198   8.709   3.537   9.357 -1.0150 -0.6088  0.1363
  111bbb     H6 3199   8.823   3.468   9.472 -0.2032  0.4130  0.4663
  111bbb     C4 3200   8.784   3.680   9.466  0.2843 -0.2980 -0.1036
  111bbb     H7 3201   8.865   3.701   9.396 -1.2066  2.5677 -1.1450
  111bbb     H8 3202   8.834   3.704   9.561 -2.6849 -1.9321  2.0841
  111bbb     C5 3203   8.424   3.440   9.402  0.3235 -0.4785 -0.7345
  111bbb     H9 3204   8.349   3.361   9.388  0.9032 -1.3027  0.5920
  111bbb    H10 3205   8.474   3.458   9.306 -0.1117 -2.6245 -1.4349
  111bbb     C6 3206   8.565   3.520   9.805  0.2375  0.0544  0.5907
  111bbb    H11 3207   8.603   3.490   9.904  0.7853 -2.1035 -0.2047
  111bbb    H12 3208   8.493   3.438   9.796  0.4849 -0.1324  0.3069
  111bbb     C7 3209   8.661   3.772   9.447 -0.1054 -0.0858  0.0103
  111bbb    H13 3210   8.598   3.766   9.537  0.5329 -2.0112  0.3821
  111bbb    H14 3211   8.605   3.740   9.359  0.6955  0.7718 -0.8332
  111bbb     C8 3212   8.503   3.657   9.806  0.1532 -0.5521  0.1946
  111bbb    H15 3213   8.456   3.677   9.710  1.7438 -1.3542 -0.8066
  111bbb    H16 3214   8.587   3.727   9.812 -0.1398 -0.0758 -0.9981
  111bbb     C9 3215   8.339   3.563   9.449 -0.6186 -0.2235 -0.0739
  111bbb    H17 3216   8.417   3.640   9.451 -0.9216  0.0880 -0.0903
  111bbb    H18 3217   8.302   3.541   9.550  0.0753 -0.4560  0.1352
  111bbb     O1 3218   8.703   3.901   9.419  0.4566 -0.3503 -0.0372
  112bbb     N1 3219   8.562   4.837   8.887  0.4454  0.2382 -0.1763
  112bbb     C1 3220   8.588   4.968   8.960 -0.0806  0.8862 -0.1759
  112bbb     H1 3221   8.633   4.944   9.058  2.2592  1.6550 -0.9878
  112bbb     H2 3222   8.497   5.026   8.981 -1.1584 -1.2718  1.6313
  112bbb     C2 3223   8.418   4.792   8.884 -0.4924 -0.5221  0.3326
  112bbb     H3 3224   8.414   4.705   8.817  1.0665 -0.5469  0.2333
  112bbb     H4 3225   8.348   4.863   8.839  0.9068 -0.1689 -1.3720
  112bbb     C3 3226   8.668   4.734   8.905  0.4912 -0.7008  0.0997
  112bbb     H5 3227   8.654   4.694   9.006  2.0627  0.6647  0.9135
  112bbb     H6 3228   8.767   4.781   8.914 -0.3445  0.9029  1.2809
  112bbb     C4 3229   8.667   4.629   8.788  0.6018 -0.3295  0.3055
  112bbb     H7 3230   8.682   4.675   8.689  0.3999 -0.5448  0.1751
  112bbb     H8 3231   8.575   4.570   8.790  0.6780 -0.4917 -0.5212
  112bbb     C5 3232   8.693   5.054   8.885  0.6508  0.0908 -0.3514
  112bbb     H9 3233   8.656   5.074   8.784 -1.5508  1.3676  0.6469
  112bbb    H10 3234   8.786   4.996   8.872  0.5868 -0.6150  1.8514
  112bbb     C6 3235   8.373   4.756   9.025  0.8930  0.8605  0.0815
  112bbb    H11 3236   8.417   4.826   9.097  1.8022 -1.1568  1.5940
  112bbb    H12 3237   8.401   4.652   9.044 -2.5670 -0.5234 -1.5092
  112bbb     C7 3238   8.791   4.529   8.797  0.2044 -0.0327  0.4164
  112bbb    H13 3239   8.888   4.576   8.779 -0.9406  1.7986 -1.4149
  112bbb    H14 3240   8.766   4.456   8.719  0.6887  0.3343 -0.0932
  112bbb     C8 3241   8.220   4.767   9.033  0.8020 -0.2013 -0.5934
  112bbb    H15 3242   8.167   4.723   8.947 -1.6331  1.3878 -0.0084
  112bbb    H16 3243   8.182   4.869   9.041 -2.2536 -1.3646  3.5144
  112bbb     C9 3244   8.730   5.185   8.951  0.2342  0.3200 -1.1079
  112bbb    H17 3245   8.638   5.246   8.959 -0.0922 -0.3472  0.8102
  112bbb    H18 3246   8.803   5.252   8.904 -0.0167  0.6166 -1.0787
  112bbb     O1 3247   8.786   4.465   8.929 -0.7581 -0.4218 -0.3792
  113bbb     N1 3248   8.526   4.054  11.267  0.3170  0.7049  0.0702
  113bbb     C1 3249   8.521   3.947  11.369  0.6930  0.0223 -0.4973
  113bbb     H1 3250   8.429   3.959  11.427  0.0414  4.7373 -2.0295
  113bbb     H2 3251   8.615   3.950  11.426  1.0206  1.3161 -1.0615
  113bbb     C2 3252   8.506   4.196  11.325 -0.7470  0.4758 -0.0434
  113bbb     H3 3253   8.515   4.265  11.240 -2.7874  1.7902  0.7217
  113bbb     H4 3254   8.589   4.214  11.394  1.0327 -0.2924 -1.8667
  113bbb     C3 3255   8.637   4.051  11.161 -0.6014  0.4218 -0.6546
  113bbb     H5 3256   8.618   4.128  11.085 -1.4346  1.6085  0.7041
  113bbb     H6 3257   8.639   3.948  11.123  0.0411  0.3746 -0.4887
  113bbb     C4 3258   8.780   4.070  11.229  0.5518  0.3609  0.2736
  113bbb     H7 3259   8.774   4.010  11.321 -0.5414 -1.7361 -1.0803
  113bbb     H8 3260   8.792   4.175  11.259  0.4647  0.2453  0.7189
  113bbb     C5 3261   8.512   3.807  11.302 -0.0696  0.2806 -1.4606
  113bbb     H9 3262   8.608   3.779  11.259  1.1569 -0.0719  1.2937
  113bbb    H10 3263   8.432   3.814  11.227 -0.8020 -0.9584 -0.8483
  113bbb     C6 3264   8.365   4.217  11.384  0.1648 -0.7321 -0.4860
  113bbb    H11 3265   8.376   4.322  11.413  0.2763 -1.3791  1.9938
  113bbb    H12 3266   8.348   4.164  11.478  2.1330 -2.6257 -1.1051
  113bbb     C7 3267   8.898   4.024  11.141 -0.7857 -0.3661  0.7536
  113bbb    H13 3268   8.911   3.916  11.146 -2.1260 -0.6478 -0.7398
  113bbb    H14 3269   8.989   4.063  11.187  1.1139 -2.7574 -0.7784
  113bbb     C8 3270   8.243   4.195  11.293 -0.0515  0.2039 -0.4635
  113bbb    H15 3271   8.272   4.119  11.220  1.7748  0.3233  0.0835
  113bbb    H16 3272   8.238   4.292  11.242 -2.3765 -1.1390 -3.0373
  113bbb     C9 3273   8.469   3.695  11.413 -0.2775 -0.2470  0.1458
  113bbb    H17 3274   8.364   3.717  11.433 -0.3338 -1.6575  1.5626
  113bbb    H18 3275   8.531   3.704  11.503 -0.5303 -0.9706  0.3974
  113bbb     O1 3276   8.878   4.068  11.003  0.1856 -0.3331 -0.4629
  114bbb     N1 3277   7.956   4.804  10.602  0.8389  0.4228 -0.0036
  114bbb     C1 3278   7.833   4.815  10.521  0.0643  0.6553  0.3974
  114bbb     H1 3279   7.873   4.802  10.419  1.2564 -2.2008  1.1398
  114bbb     H2 3280   7.797   4.918  10.531  3.3750  2.2157 -1.7170
  114bbb     C2 3281   7.928   4.845  10.739 -0.2813 -0.0056 -0.4395
  114bbb     H3 3282   8.018   4.829  10.800  0.3698  1.3845 -0.9821
  114bbb     H4 3283   7.846   4.777  10.765 -0.7922  0.9237  0.4746
  114bbb     C3 3284   8.018   4.673  10.594  0.2116 -0.5439  0.7543
  114bbb     H5 3285   8.011   4.638  10.490  1.7174  0.7850  0.1607
  114bbb     H6 3286   7.970   4.597  10.657 -1.0206 -0.2740  0.1795
  114bbb     C4 3287   8.170   4.686  10.629 -0.5088  0.1122 -0.3841
  114bbb     H7 3288   8.176   4.724  10.732 -3.0132 -1.0761  0.2618
  114bbb     H8 3289   8.209   4.769  10.569  1.3361 -1.2483 -1.1756
  114bbb     C5 3290   7.716   4.713  10.545  0.2899  0.0929  0.2099
  114bbb     H9 3291   7.676   4.709  10.646  3.1911 -1.4731  1.4331
  114bbb    H10 3292   7.743   4.608  10.530 -1.0504 -0.2068 -0.2043
  114bbb     C6 3293   7.877   4.988  10.764  0.2998 -0.6052 -0.8659
  114bbb    H11 3294   7.819   5.048  10.694  0.7734  1.9180  0.7778
  114bbb    H12 3295   7.967   5.051  10.768  0.9645 -1.5846  0.6443
  114bbb     C7 3296   8.257   4.565  10.599 -0.2822 -0.0565  0.3079
  114bbb    H13 3297   8.258   4.549  10.490  1.3710 -0.2347  0.3217
  114bbb    H14 3298   8.222   4.469  10.640  0.8667 -0.1265  1.1724
  114bbb     C8 3299   7.821   5.000  10.913 -0.2121  0.2212  0.2220
  114bbb    H15 3300   7.830   5.106  10.941 -0.9295  0.3531 -0.0273
  114bbb    H16 3301   7.878   4.934  10.979  0.8278 -1.2676 -2.0396
  114bbb     C9 3302   7.600   4.736  10.436 -0.3022 -0.5482  0.3841
  114bbb    H17 3303   7.636   4.741  10.333  2.1331  2.2736  1.2361
  114bbb    H18 3304   7.559   4.837  10.450  2.1980  0.4840  0.8677
  114bbb     O1 3305   8.395   4.588  10.636 -0.1195  0.0958  0.1550
  115bbb     N1 3306   9.272   5.370  11.134 -0.5758 -0.4196 -0.8503
  115bbb     C1 3307   9.344   5.300  11.027 -0.2462 -0.5178  0.2187
  115bbb     H1 3308   9.271   5.292  10.946 -1.0487 -0.9065  0.9644
  115bbb     H2 3309   9.379   5.203  11.066 -0.7634  0.1967  2.6240
  115bbb     C2 3310   9.142   5.310  11.174 -0.0707  0.7663 -0.3462
  115bbb     H3 3311   9.153   5.231  11.250  2.3656 -0.8363 -2.2106
  115bbb     H4 3312   9.109   5.257  11.084  0.6290  0.2944 -0.3354
  115bbb     C3 3313   9.350   5.417  11.246 -0.7617  0.0662  0.5882
  115bbb     H5 3314   9.288   5.479  11.313 -0.2148  2.4038 -0.9342
  115bbb     H6 3315   9.430   5.479  11.204 -1.1297 -0.4722 -0.9827
  115bbb     C4 3316   9.415   5.303  11.326 -0.2088 -0.0962  0.5409
  115bbb     H7 3317   9.478   5.243  11.259  0.0753 -0.8264  1.4526
  115bbb     H8 3318   9.336   5.234  11.355  0.7542 -2.7512 -2.5586
  115bbb     C5 3319   9.466   5.372  10.965 -0.3343  0.8162  0.2979
  115bbb     H9 3320   9.516   5.311  10.888  2.1942 -0.0287  2.4718
  115bbb    H10 3321   9.546   5.383  11.039 -1.2291  2.5571  1.0491
  115bbb     C6 3322   9.033   5.414  11.218 -0.1437  0.4223  0.3017
  115bbb    H11 3323   9.065   5.447  11.317  0.7664  2.9441 -0.7296
  115bbb    H12 3324   8.937   5.362  11.224  0.8104 -1.7555 -1.7763
  115bbb     C7 3325   9.487   5.363  11.450 -0.1811  0.1704 -0.6603
  115bbb    H13 3326   9.519   5.282  11.518  0.1211  0.0091 -0.9880
  115bbb    H14 3327   9.419   5.418  11.516  1.4359 -1.2527  2.4375
  115bbb     C8 3328   9.033   5.536  11.116  0.1527  0.7245 -0.3654
  115bbb    H15 3329   8.994   5.502  11.020 -1.4017 -1.3035  0.9050
  115bbb    H16 3330   9.138   5.565  11.103  0.7294 -1.2269 -0.3137
  115bbb     C9 3331   9.428   5.512  10.914  0.1512  0.6567  0.3021
  115bbb    H17 3332   9.363   5.552  10.994 -1.9931 -1.5436 -0.2036
  115bbb    H18 3333   9.361   5.500  10.828 -1.1878  2.2377  1.0643
  115bbb     O1 3334   9.594   5.449  11.410  0.2536  0.2700  0.3914
  116bbb     N1 3335  10.153   5.423  12.245  0.3435 -0.7584  0.7239
  116bbb     C1 3336  10.158   5.567  12.186 -0.2551 -0.0690  0.3918
  116bbb     H1 3337  10.061   5.594  12.142 -0.1946 -1.4465 -0.6649
  116bbb     H2 3338  10.232   5.563  12.106 -0.0501 -0.0094  0.5792
  116bbb     C2 3339  10.143   5.324  12.138  0.6167  0.1835 -0.1316
  116bbb     H3 3340  10.188   5.359  12.044  0.1907  0.2264 -0.3206
  116bbb     H4 3341  10.037   5.307  12.119  0.3580  1.7921 -0.3159
  116bbb     C3 3342  10.061   5.402  12.362  0.7870 -0.2634 -0.8963
  116bbb     H5 3343  10.077   5.469  12.448 -0.9981  1.1141 -1.5739
  116bbb     H6 3344  10.085   5.305  12.407 -0.6079  0.2479  1.1280
  116bbb     C4 3345   9.907   5.398  12.339 -0.0405  0.0641 -0.1686
  116bbb     H7 3346   9.865   5.358  12.432 -0.7823 -0.6229 -0.7811
  116bbb     H8 3347   9.872   5.331  12.259 -1.1196  1.2612 -0.7247
  116bbb     C5 3348  10.210   5.679  12.281  0.1265  0.3827 -0.6892
  116bbb     H9 3349  10.310   5.651  12.314  1.0629  1.2085 -2.6531
  116bbb    H10 3350  10.143   5.688  12.367 -1.8201 -2.7300 -1.7137
  116bbb     C6 3351  10.212   5.191  12.178  0.6190  0.1602 -0.1220
  116bbb    H11 3352  10.176   5.163  12.277  1.8035  0.9097  0.5501
  116bbb    H12 3353  10.320   5.211  12.184  0.7811 -0.3473 -1.0522
  116bbb     C7 3354   9.843   5.536  12.299 -0.5419  0.0602  0.0623
  116bbb    H13 3355   9.919   5.614  12.313 -2.1859  1.7902 -0.2339
  116bbb    H14 3356   9.751   5.558  12.355  0.6707 -0.8761  2.6069
  116bbb     C8 3357  10.180   5.086  12.064  0.3592  0.2739 -0.6097
  116bbb    H15 3358  10.262   5.090  11.992  1.4902 -0.4649  0.5928
  116bbb    H16 3359  10.084   5.099  12.012  0.0134  0.2459  0.0150
  116bbb     C9 3360  10.217   5.820  12.220 -0.7339  0.5359  0.1485
  116bbb    H17 3361  10.303   5.825  12.152 -0.8522 -0.3698 -0.0704
  116bbb    H18 3362  10.257   5.896  12.288 -0.3054  1.6418 -1.2815
  116bbb     O1 3363   9.816   5.533  12.159 -0.2371  0.3293  0.1930
  117bbb     N1 3364   9.241   3.828  10.923 -0.2510  0.2872  0.0387
  117bbb     C1 3365   9.216   3.895  11.060  0.1413 -0.2554  0.2267
  117bbb     H1 3366   9.175   3.808  11.113 -0.3946 -1.1049 -1.4823
  117bbb     H2 3367   9.136   3.971  11.053 -1.5886 -2.0225 -0.1406
  117bbb     C2 3368   9.118   3.756  10.877  0.0174  0.9390 -0.3004
  117bbb     H3 3369   9.039   3.828  10.851  0.8615  1.5291 -1.3344
  117bbb     H4 3370   9.078   3.687  10.952  0.4936  0.8167 -0.1569
  117bbb     C3 3371   9.305   3.916  10.819 -0.1961 -0.1148 -0.0592
  117bbb     H5 3372   9.343   3.869  10.728 -0.4584  0.0480 -0.2540
  117bbb     H6 3373   9.391   3.956  10.874 -2.0518  1.7729  1.6780
  117bbb     C4 3374   9.208   4.035  10.770  0.6006  0.2686  0.8550
  117bbb     H7 3375   9.165   4.092  10.853 -1.3074 -0.1791  0.2203
  117bbb     H8 3376   9.127   4.002  10.705  0.7757 -0.6398  1.0871
  117bbb     C5 3377   9.332   3.956  11.132  0.6651 -0.7203 -0.2392
  117bbb     H9 3378   9.351   4.052  11.083 -0.2628 -1.0117 -1.2104
  117bbb    H10 3379   9.423   3.897  11.116  1.5129  0.1036  1.3216
  117bbb     C6 3380   9.152   3.657  10.765 -0.7585 -0.0926 -0.4701
  117bbb    H11 3381   9.069   3.589  10.785 -1.4244  0.6009 -0.8186
  117bbb    H12 3382   9.252   3.613  10.769 -1.5047 -1.8438  0.2055
  117bbb     C7 3383   9.274   4.134  10.680 -0.2400 -0.3029 -0.0170
  117bbb    H13 3384   9.201   4.204  10.636  0.5035 -0.5834 -1.7637
  117bbb    H14 3385   9.328   4.083  10.599  2.1453  1.8907  0.0963
  117bbb     C8 3386   9.116   3.710  10.628  1.0553 -0.2068  0.0213
  117bbb    H15 3387   9.185   3.780  10.579 -1.6857  2.5172 -0.2606
  117bbb    H16 3388   9.022   3.763  10.646 -0.1130 -1.8759 -0.9059
  117bbb     C9 3389   9.301   3.984  11.277 -0.0170  0.0857 -0.1191
  117bbb    H17 3390   9.259   3.894  11.324 -2.0200  0.4187 -1.1772
  117bbb    H18 3391   9.232   4.067  11.295 -0.6152  0.4047 -3.3926
  117bbb     O1 3392   9.360   4.223  10.756 -0.3959 -0.1071  0.3580
  118bbb     N1 3393   9.699   4.806  10.500  0.1887  0.0398  0.8690
  118bbb     C1 3394   9.663   4.681  10.420 -0.3389  0.6338  0.9532
  118bbb     H1 3395   9.750   4.614  10.416  0.6732  1.5023  4.5937
  118bbb     H2 3396   9.631   4.701  10.317 -1.3184 -1.8129  0.7159
  118bbb     C2 3397   9.590   4.914  10.500 -0.4837  0.5682 -0.1318
  118bbb     H3 3398   9.628   4.999  10.557  1.2687  1.3027 -2.2230
  118bbb     H4 3399   9.492   4.886  10.541  0.7909 -1.3313  1.8143
  118bbb     C3 3400   9.738   4.771  10.637 -0.4852 -0.2469  0.1873
  118bbb     H5 3401   9.795   4.678  10.643 -0.8887 -0.4733  0.6900
  118bbb     H6 3402   9.652   4.751  10.704 -0.1858  1.9508  1.3440
  118bbb     C4 3403   9.814   4.888  10.706  0.2578  0.3412  0.0172
  118bbb     H7 3404   9.751   4.969  10.745 -0.8124 -1.5908  2.6064
  118bbb     H8 3405   9.876   4.943  10.635  0.7766  0.0398  0.2292
  118bbb     C5 3406   9.532   4.609  10.473 -0.0096  0.3355  0.4948
  118bbb     H9 3407   9.439   4.665  10.458 -1.0436 -1.8053 -1.6768
  118bbb    H10 3408   9.548   4.573  10.576  0.3001 -0.6839  0.0974
  118bbb     C6 3409   9.561   4.970  10.359 -0.1106  0.3380  0.7212
  118bbb    H11 3410   9.479   5.043  10.365  0.4761  1.6250 -3.4446
  118bbb    H12 3411   9.529   4.903  10.278  1.3074  2.4221 -1.7227
  118bbb     C7 3412   9.914   4.846  10.818  0.7372  0.0334  0.3739
  118bbb    H13 3413   9.949   4.942  10.857  1.8977  0.3714 -1.4069
  118bbb    H14 3414   9.995   4.784  10.778 -0.3729 -2.0258  1.1178
  118bbb     C8 3415   9.673   5.057  10.297 -0.6210 -0.5225  0.4257
  118bbb    H15 3416   9.759   4.991  10.279  0.3448  0.5313  1.0331
  118bbb    H16 3417   9.716   5.125  10.371 -2.1378 -0.5543  1.3765
  118bbb     C9 3418   9.500   4.487  10.384 -0.0962  0.4285  0.1568
  118bbb    H17 3419   9.466   4.505  10.281 -2.7322 -2.3513  0.4155
  118bbb    H18 3420   9.406   4.448  10.425 -1.2706  2.0548 -0.8608
  118bbb     O1 3421   9.846   4.769  10.918 -0.7307  0.4122 -0.1604
  119bbb     N1 3422   8.338   7.338   9.929  0.0156 -0.6856 -0.5992
  119bbb     C1 3423   8.238   7.420  10.007 -0.2483 -0.6488  0.2553
  119bbb     H1 3424   8.158   7.435   9.934  1.4324 -0.1803 -1.5931
  119bbb     H2 3425   8.281   7.519  10.025 -1.4479  0.5598 -2.8458
  119bbb     C2 3426   8.389   7.401   9.802 -0.2464  0.1809 -0.0389
  119bbb     H3 3427   8.479   7.349   9.766 -0.2161  0.5426 -0.5001
  119bbb     H4 3428   8.426   7.502   9.829  3.5998 -1.7295  2.9951
  119bbb     C3 3429   8.444   7.280  10.022  0.4848 -0.1911 -0.1609
  119bbb     H5 3430   8.475   7.188   9.972 -1.8748 -0.5882 -1.0128
  119bbb     H6 3431   8.393   7.238  10.109  2.7060 -1.1014  0.7808
  119bbb     C4 3432   8.565   7.373  10.064  0.1291 -0.0175  0.2708
  119bbb     H7 3433   8.530   7.476  10.074 -1.5032 -0.4146 -1.0004
  119bbb     H8 3434   8.631   7.374   9.976 -3.0489 -2.0506 -2.3407
  119bbb     C5 3435   8.176   7.368  10.134  0.3134 -0.4113  0.3091
  119bbb     H9 3436   8.253   7.378  10.212  0.9973 -0.3538 -0.3647
  119bbb    H10 3437   8.146   7.263  10.123 -2.1694  0.3550 -0.8475
  119bbb     C6 3438   8.285   7.401   9.693  0.0687 -0.2322 -0.3345
  119bbb    H11 3439   8.187   7.436   9.730  0.6870  1.4680 -0.1993
  119bbb    H12 3440   8.270   7.303   9.648 -1.5465 -0.8931  1.4720
  119bbb     C7 3441   8.648   7.322  10.185 -0.6733 -0.0581  0.0063
  119bbb    H13 3442   8.605   7.341  10.285 -0.5681  0.8861 -0.1146
  119bbb    H14 3443   8.739   7.380  10.200 -1.4289  0.7244  2.0416
  119bbb     C8 3444   8.317   7.515   9.588  0.6779  0.2155 -0.1209
  119bbb    H15 3445   8.409   7.490   9.534  1.6117  0.8222  1.1244
  119bbb    H16 3446   8.337   7.615   9.629 -0.4182  1.5837 -2.7290
  119bbb     C9 3447   8.047   7.451  10.170 -0.1760 -0.2021 -0.1353
  119bbb    H17 3448   7.973   7.439  10.090 -0.1100 -1.3297 -0.0402
  119bbb    H18 3449   8.092   7.551  10.170  2.4232 -1.3063 -0.6736
  119bbb     O1 3450   8.664   7.180  10.172 -0.1110 -0.2420  0.4923
  120bbb     N1 3451   9.508   6.822  10.020 -0.4464  0.2590 -0.1199
  120bbb     C1 3452   9.590   6.893  10.124 -0.1116 -0.9294 -0.2423
  120bbb     H1 3453   9.673   6.946  10.074  0.5909 -1.3690  0.4303
  120bbb     H2 3454   9.630   6.825  10.200 -1.4583 -0.4386  0.9519
  120bbb     C2 3455   9.567   6.692   9.982 -0.3128  0.4673  0.4400
  120bbb     H3 3456   9.494   6.637   9.922  1.1923  0.4606 -1.4913
  120bbb     H4 3457   9.591   6.630  10.069 -2.0598  0.4878  0.9620
  120bbb     C3 3458   9.456   6.911   9.907  0.2593  0.2250 -0.3841
  120bbb     H5 3459   9.536   6.970   9.861  0.2697 -0.5671 -1.4236
  120bbb     H6 3460   9.384   6.982   9.950  0.7854  0.9830 -0.7437
  120bbb     C4 3461   9.377   6.836   9.798  0.3913  0.0339  0.0114
  120bbb     H7 3462   9.444   6.768   9.744  0.2141  0.2356 -0.4658
  120bbb     H8 3463   9.349   6.907   9.720 -2.9399 -0.3790  0.6978
  120bbb     C5 3464   9.501   7.003  10.196  0.4817  0.8825  0.4250
  120bbb     H9 3465   9.479   7.091  10.135  0.6648  2.5152  2.6155
  120bbb    H10 3466   9.566   7.042  10.275  0.8946  0.6943  0.1861
  120bbb     C6 3467   9.701   6.719   9.896  0.1425  0.5383 -0.3209
  120bbb    H11 3468   9.780   6.770   9.952 -0.0437 -0.1237  0.5551
  120bbb    H12 3469   9.679   6.785   9.811  0.3693 -0.0502 -0.8438
  120bbb     C7 3470   9.245   6.766   9.841 -0.2389  0.0041  0.5965
  120bbb    H13 3471   9.272   6.716   9.935  0.8585 -0.3165  0.1309
  120bbb    H14 3472   9.213   6.692   9.766  1.7054 -2.8305  2.3660
  120bbb     C8 3473   9.765   6.586   9.836  0.2913  0.1501 -0.0390
  120bbb    H15 3474   9.811   6.533   9.921  1.4318  3.1925  1.3752
  120bbb    H16 3475   9.847   6.612   9.769  0.0322  2.9913  0.6474
  120bbb     C9 3476   9.378   6.942  10.267  0.0606  0.5359  0.3449
  120bbb    H17 3477   9.413   6.854  10.322  0.6079 -0.0972 -0.9988
  120bbb    H18 3478   9.315   6.901  10.187  2.4972 -1.5329 -0.6416
  120bbb     O1 3479   9.135   6.850   9.851  0.1458 -0.2231  0.0719
  121bbb     N1 3480   8.927   5.979   9.731  0.5244  0.4492 -0.2538
  121bbb     C1 3481   9.023   5.984   9.616  0.1645 -0.1816 -0.2921
  121bbb     H1 3482   9.009   5.896   9.552  1.0816  0.6965 -1.7611
  121bbb     H2 3483   9.127   5.995   9.649  0.5583 -0.2641 -1.4587
  121bbb     C2 3484   8.784   5.952   9.690 -0.5514  0.2419  0.1061
  121bbb     H3 3485   8.793   5.874   9.613 -0.6162  0.9836 -0.6763
  121bbb     H4 3486   8.740   6.028   9.624 -0.2421  0.7438  0.4709
  121bbb     C3 3487   8.976   5.896   9.843 -0.2157  0.9258 -0.6752
  121bbb     H5 3488   8.964   5.788   9.830  0.7189  0.4678  1.7940
  121bbb     H6 3489   8.909   5.925   9.924  1.7967  2.5631  0.5012
  121bbb     C4 3490   9.126   5.912   9.897  0.4758 -0.1058  0.0557
  121bbb     H7 3491   9.159   6.017   9.901  0.4602 -0.0827 -0.3388
  121bbb     H8 3492   9.199   5.871   9.826 -0.1498 -0.5239 -0.3532
  121bbb     C5 3493   8.991   6.102   9.518  0.1739 -0.0686  0.6846
  121bbb     H9 3494   8.896   6.084   9.467  0.4218 -1.4289  0.6811
  121bbb    H10 3495   9.076   6.101   9.448 -0.0719 -1.6166  0.3823
  121bbb     C6 3496   8.676   5.917   9.789  0.1585 -0.3181 -0.4829
  121bbb    H11 3497   8.576   5.945   9.756 -0.1152 -0.7876 -0.0632
  121bbb    H12 3498   8.695   5.974   9.880 -1.3577 -0.4967 -0.0360
  121bbb     C7 3499   9.150   5.849  10.030  0.1099  0.5156  0.0621
  121bbb    H13 3500   9.100   5.915  10.102 -3.0026 -0.6115 -0.9210
  121bbb    H14 3501   9.257   5.844  10.054  0.2536 -2.4468 -0.8014
  121bbb     C8 3502   8.676   5.770   9.831 -0.0915 -0.1829  1.3086
  121bbb    H15 3503   8.586   5.750   9.890 -0.2164 -0.3853  1.0491
  121bbb    H16 3504   8.769   5.757   9.889  1.3704  2.0339 -0.3387
  121bbb     C9 3505   8.980   6.236   9.589 -0.2279 -0.1139 -0.6039
  121bbb    H17 3506   9.064   6.261   9.654  0.3433 -1.2053 -0.8888
  121bbb    H18 3507   8.900   6.218   9.662  1.3193 -0.3962  1.0936
  121bbb     O1 3508   9.091   5.722  10.036  0.3192  0.2136 -0.2514
  122bbb     N1 3509   8.504   5.218   9.405 -0.4021  0.4531  0.1654
  122bbb     C1 3510   8.592   5.338   9.394  0.3498 -0.5237  0.8022
  122bbb     H1 3511   8.697   5.310   9.379  0.9694  1.7392  0.5263
  122bbb     H2 3512   8.578   5.387   9.491  0.0620 -1.3522  1.1897
  122bbb     C2 3513   8.449   5.152   9.277  0.3100 -0.5905 -0.0277
  122bbb     H3 3514   8.533   5.103   9.229  0.0869 -1.0809  0.0761
  122bbb     H4 3515   8.409   5.235   9.217 -1.1292  0.2281  1.9428
  122bbb     C3 3516   8.543   5.121   9.506  0.0529  0.1443  0.1979
  122bbb     H5 3517   8.629   5.063   9.470  0.6868  1.0255  0.2761
  122bbb     H6 3518   8.473   5.040   9.530  0.4358 -0.7941 -1.6139
  122bbb     C4 3519   8.581   5.190   9.640  0.0042 -0.4042  0.5751
  122bbb     H7 3520   8.490   5.242   9.671 -0.4543  0.2848 -1.7483
  122bbb     H8 3521   8.669   5.253   9.623  0.5509 -0.8852  1.4724
  122bbb     C5 3522   8.546   5.441   9.282  0.0336  0.1105  0.1380
  122bbb     H9 3523   8.442   5.466   9.304  0.3416 -0.4915  2.6322
  122bbb    H10 3524   8.545   5.394   9.183 -1.6059 -1.9349  1.0582
  122bbb     C6 3525   8.339   5.043   9.294  0.1558  0.6263 -0.2270
  122bbb    H11 3526   8.377   4.952   9.342 -2.1453 -0.3012 -0.0053
  122bbb    H12 3527   8.318   5.015   9.190  0.1781 -0.4001  0.0359
  122bbb     C7 3528   8.623   5.095   9.748 -0.0791  0.4550 -0.3373
  122bbb    H13 3529   8.706   5.033   9.713 -2.3898 -1.8791 -2.1593
  122bbb    H14 3530   8.542   5.028   9.781 -0.6809  1.0149 -0.6418
  122bbb     C8 3531   8.213   5.091   9.367 -0.0394  0.5367 -0.2943
  122bbb    H15 3532   8.250   5.091   9.471  0.2532  1.4409 -0.3852
  122bbb    H16 3533   8.142   5.007   9.362 -2.6018  2.6182 -1.5554
  122bbb     C9 3534   8.632   5.572   9.274 -0.0063  0.6018  0.4053
  122bbb    H17 3535   8.729   5.541   9.233  0.3072  2.0105  0.0280
  122bbb    H18 3536   8.647   5.619   9.373  1.0004 -0.1057  0.6097
  122bbb     O1 3537   8.655   5.180   9.867 -0.2193  0.0535 -0.0409
  123bbb     N1 3538   9.376   6.900  11.923  0.2768  0.6818  0.0552
  123bbb     C1 3539   9.371   6.941  12.063 -0.5047 -0.0808 -0.2199
  123bbb     H1 3540   9.466   6.986  12.095  0.3225 -1.1679 -1.0654
  123bbb     H2 3541   9.367   6.844  12.115 -3.0216 -0.1238 -0.3902
  123bbb     C2 3542   9.384   7.012  11.824  0.0994 -0.6760  0.0831
  123bbb     H3 3543   9.285   7.059  11.834  0.7015  0.5513  0.4410
  123bbb     H4 3544   9.386   6.972  11.722  2.8271 -1.0675  0.2176
  123bbb     C3 3545   9.277   6.798  11.891 -0.0595 -0.1612 -0.1511
  123bbb     H5 3546   9.193   6.855  11.850  0.4287 -0.1085 -1.0811
  123bbb     H6 3547   9.244   6.741  11.980  0.7597  0.3365  0.4868
  123bbb     C4 3548   9.324   6.701  11.779 -0.4686 -0.1308  0.2895
  123bbb     H7 3549   9.417   6.645  11.795  0.8450  2.1239  0.9978
  123bbb     H8 3550   9.334   6.758  11.686 -1.1297 -0.2116  0.1657
  123bbb     C5 3551   9.255   7.025  12.115  0.0957 -0.3742 -0.4983
  123bbb     H9 3552   9.163   6.979  12.077  0.0886 -0.9442  0.1824
  123bbb    H10 3553   9.266   7.125  12.071 -1.2361  0.2557  0.5400
  123bbb     C6 3554   9.489   7.121  11.853 -0.0786  0.2961  0.2172
  123bbb    H11 3555   9.590   7.082  11.840  0.0113  1.2517 -2.4182
  123bbb    H12 3556   9.490   7.150  11.959 -0.5044 -0.1468  0.3546
  123bbb     C7 3557   9.214   6.597  11.751 -0.2369 -0.4162 -0.7530
  123bbb    H13 3558   9.174   6.556  11.845  0.3096  2.0538  0.6564
  123bbb    H14 3559   9.258   6.512  11.697  1.4275 -1.4783  2.0642
  123bbb     C8 3560   9.475   7.247  11.765 -0.1494 -0.1600 -0.2860
  123bbb    H15 3561   9.387   7.298  11.805  0.8624  2.5650 -1.3395
  123bbb    H16 3562   9.461   7.212  11.662  1.5842  1.3058 -1.0678
  123bbb     C9 3563   9.249   7.027  12.271  0.0261 -0.0875 -0.0648
  123bbb    H17 3564   9.234   6.921  12.294 -0.2226 -0.5086 -1.9751
  123bbb    H18 3565   9.171   7.084  12.323  0.4029 -1.1230  1.6838
  123bbb     O1 3566   9.107   6.657  11.674  0.5401 -0.0633 -0.0996
  124bbb     N1 3567   9.104   7.318  11.854 -0.4968 -0.0434  0.1365
  124bbb     C1 3568   9.048   7.299  11.987 -0.0336 -0.4619  0.1196
  124bbb     H1 3569   9.057   7.195  12.021  1.7288 -0.3893 -0.0717
  124bbb     H2 3570   8.942   7.326  11.975  0.8728  3.0627 -1.2366
  124bbb     C2 3571   9.102   7.456  11.800  0.1802  0.3640 -0.5773
  124bbb     H3 3572   9.180   7.474  11.724  1.3361  3.9283  1.2081
  124bbb     H4 3573   9.126   7.523  11.884  0.0013 -1.4240  0.9769
  124bbb     C3 3574   9.059   7.212  11.762 -0.2584 -0.6401 -0.5485
  124bbb     H5 3575   8.950   7.210  11.747 -0.5527 -1.5499  1.3800
  124bbb     H6 3576   9.072   7.110  11.802  2.6678 -0.8762 -1.8975
  124bbb     C4 3577   9.133   7.224  11.624  0.3669  0.0823 -0.5038
  124bbb     H7 3578   9.241   7.214  11.641  0.2586  2.1056  2.0692
  124bbb     H8 3579   9.115   7.320  11.574  1.5479  0.8624  0.4974
  124bbb     C5 3580   9.115   7.376  12.106  0.1264 -0.1644 -0.1258
  124bbb     H9 3581   9.112   7.484  12.088 -1.8886 -0.1794 -0.0968
  124bbb    H10 3582   9.220   7.343  12.112 -0.2293 -1.2401  0.4015
  124bbb     C6 3583   8.960   7.497  11.753 -0.4565 -0.0889 -0.2386
  124bbb    H11 3584   8.898   7.525  11.839 -0.8068 -0.1179 -0.4809
  124bbb    H12 3585   8.916   7.412  11.699  1.3834 -1.2188 -0.0384
  124bbb     C7 3586   9.087   7.114  11.525 -0.2581  0.1182  0.0124
  124bbb    H13 3587   9.069   7.022  11.581  0.3199  0.5647  0.9702
  124bbb    H14 3588   9.161   7.086  11.448 -0.7699 -3.4846  0.7074
  124bbb     C8 3589   8.969   7.616  11.657 -0.1949  0.3709  0.5032
  124bbb    H15 3590   9.022   7.587  11.565 -1.5634 -1.9529  0.3635
  124bbb    H16 3591   9.021   7.689  11.720  0.0367 -1.1826  2.1840
  124bbb     C9 3592   9.041   7.357  12.241 -0.5881  0.1057 -0.3358
  124bbb    H17 3593   9.091   7.410  12.323 -0.7029 -0.3698  0.0515
  124bbb    H18 3594   9.043   7.251  12.272 -0.9484 -0.0198 -0.7287
  124bbb     O1 3595   8.957   7.157  11.471 -0.0522  0.9944  0.6234
  125bbb     N1 3596  10.396   6.222  12.187 -0.2543 -0.7151 -0.5499
  125bbb     C1 3597  10.500   6.144  12.108  0.2615  0.7078  0.5495
  125bbb     H1 3598  10.518   6.193  12.012 -1.8556 -0.8109 -0.7127
  125bbb     H2 3599  10.453   6.051  12.074  0.1747  1.2717 -0.9307
  125bbb     C2 3600  10.364   6.158  12.314 -0.7782 -0.0384 -0.8571
  125bbb     H3 3601  10.444   6.175  12.387 -0.2641  2.3465 -1.8726
  125bbb     H4 3602  10.361   6.051  12.289 -0.9428 -0.8857  2.4043
  125bbb     C3 3603  10.413   6.370  12.188  0.0793  0.4314  0.2569
  125bbb     H5 3604  10.503   6.408  12.238 -1.3345  0.2815  3.1575
  125bbb     H6 3605  10.327   6.407  12.246  0.1255 -3.0333  2.8562
  125bbb     C4 3606  10.399   6.435  12.048 -0.5162 -0.1693  0.1903
  125bbb     H7 3607  10.490   6.417  11.989 -1.9851  1.8882 -3.0027
  125bbb     H8 3608  10.409   6.544  12.055  2.9011 -0.2502 -1.3139
  125bbb     C5 3609  10.628   6.129  12.191  0.0326 -0.5702 -0.1407
  125bbb     H9 3610  10.611   6.054  12.270  0.7992 -0.0369  0.5495
  125bbb    H10 3611  10.640   6.221  12.250 -0.7815 -1.1081  0.9139
  125bbb     C6 3612  10.235   6.206  12.377  0.1167  0.0142 -0.0843
  125bbb    H11 3613  10.154   6.210  12.303  0.3424  3.0353 -0.2915
  125bbb    H12 3614  10.252   6.304  12.422 -0.2358 -0.1178  0.3504
  125bbb     C7 3615  10.273   6.377  11.970 -0.1438 -0.0664  0.2498
  125bbb    H13 3616  10.184   6.393  12.033  1.2663  0.4417  2.1970
  125bbb    H14 3617  10.281   6.267  11.966 -0.4349 -0.1017  0.5411
  125bbb     C8 3618  10.181   6.109  12.490 -0.1601 -0.2096  0.0047
  125bbb    H15 3619  10.246   6.122  12.578 -0.6688  0.9854  0.2199
  125bbb    H16 3620  10.193   6.004  12.461  1.6177 -0.0195 -0.0663
  125bbb     C9 3621  10.761   6.098  12.111  0.3219 -0.2427 -0.4274
  125bbb    H17 3622  10.848   6.082  12.175 -0.6495 -0.5939  0.8499
  125bbb    H18 3623  10.775   6.188  12.050 -0.0469 -1.3458 -2.2430
  125bbb     O1 3624  10.276   6.443  11.838  0.3357 -0.4703 -0.2053
  126bbb     N1 3625  10.091   6.542  10.686 -0.0045 -0.1083  0.1349
  126bbb     C1 3626   9.978   6.525  10.594  0.0068 -0.5441  0.0632
  126bbb     H1 3627   9.961   6.617  10.538 -1.3748 -0.3114  0.8147
  126bbb     H2 3628   9.894   6.507  10.663 -0.2930 -1.2677 -0.4681
  126bbb     C2 3629  10.070   6.664  10.774  0.0049  0.6002  1.0932
  126bbb     H3 3630   9.975   6.658  10.829 -1.4961 -1.5278 -1.4544
  126bbb     H4 3631  10.043   6.745  10.706  0.0544  0.2477  0.6493
  126bbb     C3 3632  10.135   6.420  10.755  0.3686 -0.4809  0.1336
  126bbb     H5 3633  10.230   6.439  10.806  1.9039  0.4841 -2.8542
  126bbb     H6 3634  10.159   6.341  10.683 -1.3423 -0.4135 -0.5679
  126bbb     C4 3635  10.032   6.374  10.863  0.1411 -0.3071 -0.7776
  126bbb     H7 3636   9.960   6.319  10.801  1.3523 -0.4884 -2.0737
  126bbb     H8 3637   9.972   6.452  10.912  0.6837  0.0290 -0.6384
  126bbb     C5 3638   9.979   6.401  10.501 -0.4292  0.5267  0.5145
  126bbb     H9 3639   9.955   6.306  10.550 -1.1666  0.0813 -0.6865
  126bbb    H10 3640  10.076   6.399  10.449 -0.7778 -0.8950 -0.1247
  126bbb     C6 3641  10.181   6.710  10.873 -0.2145  0.7660  0.3498
  126bbb    H11 3642  10.278   6.703  10.822 -0.7017 -2.1317 -0.3870
  126bbb    H12 3643  10.188   6.640  10.957  0.0767  2.4262  1.7519
  126bbb     C7 3644  10.100   6.284  10.967  0.0040  0.3792 -0.9390
  126bbb    H13 3645  10.206   6.313  10.973  0.2626 -0.6381 -0.3536
  126bbb    H14 3646  10.092   6.181  10.929 -0.2742 -0.2186  0.6674
  126bbb     C8 3647  10.154   6.856  10.920  0.2638  0.4753 -0.7107
  126bbb    H15 3648  10.048   6.871  10.942  0.6510  1.3191  0.6774
  126bbb    H16 3649  10.180   6.920  10.835  2.7071 -0.1890 -0.5386
  126bbb     C9 3650   9.868   6.414  10.402  0.0177  0.6024  1.0279
  126bbb    H17 3651   9.893   6.507  10.349  0.4665  0.1338  0.4116
  126bbb    H18 3652   9.768   6.436  10.443 -0.5998  1.5598 -0.9037
  126bbb     O1 3653  10.038   6.310  11.096 -0.3752  0.0008  0.2350
  127bbb     N1 3654   6.614   3.528  13.473  0.4160 -0.2820  0.4812
  127bbb     C1 3655   6.500   3.439  13.502 -0.3148  0.4876 -0.1219
  127bbb     H1 3656   6.528   3.334  13.483 -0.8190  0.3903 -0.3525
  127bbb     H2 3657   6.421   3.461  13.428 -0.1166 -2.1740 -1.2391
  127bbb     C2 3658   6.681   3.521  13.338  0.2671 -0.2993  0.5726
  127bbb     H3 3659   6.773   3.582  13.340 -0.6994  1.2137  0.7846
  127bbb     H4 3660   6.612   3.556  13.260 -0.1710 -0.2889  0.9561
  127bbb     C3 3661   6.577   3.667  13.495 -0.0668  0.1504  0.2994
  127bbb     H5 3662   6.664   3.734  13.497  0.2480 -0.2302  3.0602
  127bbb     H6 3663   6.523   3.679  13.589 -0.8936 -1.2483  0.0214
  127bbb     C4 3664   6.476   3.731  13.396 -0.3621 -0.2168  0.2050
  127bbb     H7 3665   6.385   3.668  13.397  0.0215 -0.9053 -2.2475
  127bbb     H8 3666   6.515   3.728  13.294 -1.8483  1.7717 -0.4733
  127bbb     C5 3667   6.434   3.452  13.641 -1.1499  0.0475  0.1837
  127bbb     H9 3668   6.352   3.380  13.654 -0.2295 -0.8505  1.2286
  127bbb    H10 3669   6.384   3.550  13.646  0.4383  0.8554  1.2107
  127bbb     C6 3670   6.725   3.380  13.300  0.6240 -0.0895  0.0746
  127bbb    H11 3671   6.643   3.320  13.259  0.8338 -2.7548  3.2384
  127bbb    H12 3672   6.759   3.331  13.392 -1.7383 -0.0118  1.0703
  127bbb     C7 3673   6.428   3.872  13.434 -0.4939 -0.2339  0.3034
  127bbb    H13 3674   6.510   3.941  13.408 -1.0641  1.5608  2.8727
  127bbb    H14 3675   6.393   3.885  13.537  0.0423  0.7888  0.3697
  127bbb     C8 3676   6.833   3.377  13.194 -0.3427 -0.3203  0.3673
  127bbb    H15 3677   6.863   3.273  13.181  0.9482 -0.3866  3.0597
  127bbb    H16 3678   6.922   3.433  13.226 -0.5549  1.0427 -1.2882
  127bbb     C9 3679   6.541   3.426  13.753  0.3679 -0.3547  0.0956
  127bbb    H17 3680   6.606   3.514  13.744  0.4441 -0.4671 -0.5003
  127bbb    H18 3681   6.599   3.340  13.716  0.0396  0.9017 -3.7753
  127bbb     O1 3682   6.312   3.908  13.355  0.3453  0.6588 -0.1759
  128bbb     N1 3683   5.582   4.292  13.479  0.0979  0.2442 -0.2246
  128bbb     C1 3684   5.485   4.288  13.591  0.3423 -0.3704  0.7181
  128bbb     H1 3685   5.541   4.275  13.684  1.3815 -0.2715  0.1254
  128bbb     H2 3686   5.417   4.203  13.579 -1.4177  0.4581  3.8807
  128bbb     C2 3687   5.713   4.376  13.508  0.5137  0.1379 -0.2167
  128bbb     H3 3688   5.758   4.315  13.588 -0.5544 -2.5842 -1.5734
  128bbb     H4 3689   5.682   4.472  13.551 -0.5890 -0.4986  0.4646
  128bbb     C3 3690   5.534   4.291  13.340 -0.0970  0.0126  0.4562
  128bbb     H5 3691   5.615   4.283  13.266 -1.2073  3.3504 -1.3307
  128bbb     H6 3692   5.502   4.393  13.316  1.9266  0.5206 -0.2774
  128bbb     C4 3693   5.419   4.190  13.301  0.5859  0.3468 -0.5406
  128bbb     H7 3694   5.393   4.218  13.199  2.7206  0.3069 -1.1349
  128bbb     H8 3695   5.328   4.202  13.361 -0.9958  0.8710 -2.9420
  128bbb     C5 3696   5.396   4.408  13.615 -0.4329  0.1378 -0.4354
  128bbb     H9 3697   5.326   4.411  13.531 -0.4828  2.2432 -0.3863
  128bbb    H10 3698   5.452   4.503  13.615  1.5495 -0.9712  0.8707
  128bbb     C6 3699   5.811   4.393  13.394 -0.0027  0.1679 -0.3491
  128bbb    H11 3700   5.773   4.465  13.320  0.2834  0.1723 -0.4922
  128bbb    H12 3701   5.832   4.298  13.342 -0.4707  0.2849 -0.7579
  128bbb     C7 3702   5.469   4.044  13.302  0.0568 -0.2069  0.6820
  128bbb    H13 3703   5.389   3.974  13.274 -1.3597  0.9057  1.8205
  128bbb    H14 3704   5.484   4.024  13.409 -0.6723 -1.6201  0.5519
  128bbb     C8 3705   5.942   4.442  13.452  0.8067 -0.1791  0.0647
  128bbb    H15 3706   5.961   4.375  13.536 -0.4545 -0.7821 -0.0963
  128bbb    H16 3707   5.914   4.539  13.493 -3.4369 -1.2659  0.2740
  128bbb     C9 3708   5.317   4.404  13.750  0.0662 -0.1758 -0.1322
  128bbb    H17 3709   5.238   4.328  13.749  0.4820 -0.7311 -3.5391
  128bbb    H18 3710   5.283   4.508  13.760 -1.3521 -0.7091  0.7731
  128bbb     O1 3711   5.584   4.017  13.221 -0.2308  0.6747  0.0185
  129bbb     N1 3712   7.027   4.574  13.514 -0.6192  0.5496 -0.4228
  129bbb     C1 3713   6.995   4.459  13.423  0.0859 -0.0936 -0.5265
  129bbb     H1 3714   7.065   4.464  13.338 -1.7133 -0.0874 -2.0860
  129bbb     H2 3715   6.894   4.473  13.380  0.0257  3.3488  0.4318
  129bbb     C2 3716   7.046   4.706  13.446 -0.2291  0.2019  0.3159
  129bbb     H3 3717   7.054   4.784  13.523 -0.7190 -1.9674  2.6805
  129bbb     H4 3718   6.952   4.733  13.395  0.5157  2.4735  0.0243
  129bbb     C3 3719   6.932   4.580  13.633 -0.5977  0.2870  0.4902
  129bbb     H5 3720   6.910   4.480  13.670  0.1586 -0.6049 -1.3348
  129bbb     H6 3721   6.836   4.617  13.594 -0.3091 -1.3470 -1.9767
  129bbb     C4 3722   6.978   4.665  13.755 -0.4147  0.6692  0.2404
  129bbb     H7 3723   7.074   4.716  13.746  1.0606 -1.7318  1.3445
  129bbb     H8 3724   7.000   4.594  13.835 -0.5819 -1.9599 -1.8821
  129bbb     C5 3725   6.995   4.321  13.489 -0.1613  0.4228  0.1914
  129bbb     H9 3726   6.986   4.253  13.403 -0.4742  0.5084  0.1586
  129bbb    H10 3727   6.908   4.319  13.555  0.4346  0.0449  0.9917
  129bbb     C6 3728   7.171   4.704  13.351  0.4348 -0.0451  0.7177
  129bbb    H11 3729   7.185   4.809  13.320  2.2267 -0.1652  1.0089
  129bbb    H12 3730   7.147   4.639  13.266  0.7520 -1.5246  1.7180
  129bbb     C7 3731   6.872   4.768  13.787  0.2131 -0.1866 -0.4702
  129bbb    H13 3732   6.852   4.829  13.698  0.7551  2.8018  1.3287
  129bbb    H14 3733   6.901   4.832  13.871  0.4004 -0.3696 -0.3963
  129bbb     C8 3734   7.300   4.663  13.424  0.7741 -0.4929  0.5725
  129bbb    H15 3735   7.263   4.597  13.504 -3.7435  0.4299 -0.4996
  129bbb    H16 3736   7.373   4.615  13.358  2.2138  3.0748 -0.6572
  129bbb     C9 3737   7.125   4.279  13.566 -0.1516  0.2293  0.0014
  129bbb    H17 3738   7.152   4.355  13.640  0.3836  2.5387 -2.3906
  129bbb    H18 3739   7.206   4.279  13.491  0.3417 -0.5699  0.5192
  129bbb     O1 3740   6.751   4.709  13.826  0.0351  0.3065 -0.2985
  130bbb     N1 3741   6.119   5.420  13.761 -0.0272  0.3685 -1.2021
  130bbb     C1 3742   5.992   5.499  13.738  0.1857 -0.3111 -0.3480
  130bbb     H1 3743   5.913   5.439  13.690 -0.3200 -2.0924  2.4560
  130bbb     H2 3744   6.021   5.583  13.675 -0.6464  0.1781 -0.0976
  130bbb     C2 3745   6.222   5.492  13.843  0.1007 -0.0431  0.1158
  130bbb     H3 3746   6.167   5.517  13.935 -1.2569 -1.3567 -0.3123
  130bbb     H4 3747   6.251   5.586  13.793  0.2841 -0.2635 -0.1931
  130bbb     C3 3748   6.179   5.371  13.634  0.0470  0.6835  0.0017
  130bbb     H5 3749   6.274   5.316  13.645  0.6039  1.4194 -0.9434
  130bbb     H6 3750   6.201   5.451  13.561 -1.8954  0.4567 -0.8873
  130bbb     C4 3751   6.075   5.285  13.547 -0.3721 -0.0347  0.0431
  130bbb     H7 3752   6.133   5.253  13.459 -0.4434 -0.5824  0.1943
  130bbb     H8 3753   5.989   5.340  13.506  0.4245  1.7619  0.6637
  130bbb     C5 3754   5.927   5.559  13.867  0.5406 -0.0819 -1.1145
  130bbb     H9 3755   5.830   5.601  13.839 -0.2161 -1.1807 -0.2024
  130bbb    H10 3756   5.982   5.641  13.916 -0.5189  0.1718 -0.3235
  130bbb     C6 3757   6.341   5.399  13.905  0.0436  0.4871 -0.4176
  130bbb    H11 3758   6.373   5.468  13.985 -0.2451  1.3366 -1.0165
  130bbb    H12 3759   6.422   5.387  13.833  1.8528 -0.6155  1.6713
  130bbb     C7 3760   6.040   5.151  13.613 -0.1871  0.3407 -0.7376
  130bbb    H13 3761   5.933   5.128  13.601 -0.5344  1.9664 -0.9862
  130bbb    H14 3762   6.067   5.153  13.720 -2.2518  2.0901 -0.1835
  130bbb     C8 3763   6.286   5.265  13.961  0.6500  0.0446 -0.2143
  130bbb    H15 3764   6.248   5.202  13.880  0.7528  0.2939 -0.4566
  130bbb    H16 3765   6.204   5.290  14.029  1.3853 -0.0781  0.7480
  130bbb     C9 3766   5.906   5.447  13.976 -0.2613  0.4418  0.3216
  130bbb    H17 3767   6.002   5.417  14.019 -1.5530 -0.2189  3.0129
  130bbb    H18 3768   5.860   5.357  13.934 -0.1503 -0.1720  1.4611
  130bbb     O1 3769   6.127   5.047  13.555 -0.1152 -0.0339 -0.6070
  131bbb     N1 3770   6.726   4.148  10.789  0.3420 -0.7707  0.1708
  131bbb     C1 3771   6.595   4.201  10.737 -0.3116 -0.2204 -0.1783
  131bbb     H1 3772   6.609   4.302  10.696  0.6987 -0.9490 -1.6929
  131bbb     H2 3773   6.526   4.203  10.822  1.7108 -0.9309  1.5759
  131bbb     C2 3774   6.831   4.152  10.688  0.1002 -0.6384  0.7911
  131bbb     H3 3775   6.834   4.248  10.635  1.1603 -0.6504  0.8035
  131bbb     H4 3776   6.800   4.083  10.608 -2.5189  0.4103  0.7875
  131bbb     C3 3777   6.722   4.034  10.886 -0.2713 -0.7857  0.3661
  131bbb     H5 3778   6.825   4.000  10.902 -0.0205 -0.0188  0.3917
  131bbb     H6 3779   6.679   3.943  10.841  1.5922 -1.5533  0.0254
  131bbb     C4 3780   6.647   4.061  11.020  0.4301  0.2437  0.2436
  131bbb     H7 3781   6.655   3.964  11.071  0.1293  0.1993  0.2088
  131bbb     H8 3782   6.540   4.081  11.006  0.1563 -0.0686  1.7841
  131bbb     C5 3783   6.538   4.121  10.621  0.1872 -0.1794 -0.0468
  131bbb     H9 3784   6.538   4.013  10.642  0.0071 -0.7029 -2.4347
  131bbb    H10 3785   6.609   4.142  10.540 -0.4824 -0.0586 -0.6038
  131bbb     C6 3786   6.977   4.126  10.730 -0.3177 -0.2552  0.1443
  131bbb    H11 3787   6.979   4.019  10.752 -1.2263 -0.4613 -0.7158
  131bbb    H12 3788   7.001   4.186  10.819  1.4354  1.1617 -1.2187
  131bbb     C7 3789   6.716   4.174  11.101 -0.1482  0.6917 -0.8661
  131bbb    H13 3790   6.719   4.272  11.052 -1.3148  0.7147 -0.9252
  131bbb    H14 3791   6.816   4.134  11.121  0.0330  1.7457  0.4602
  131bbb     C8 3792   7.072   4.161  10.613 -0.1705  0.6796  1.1857
  131bbb    H15 3793   7.069   4.269  10.600 -0.8901  0.3238 -2.7822
  131bbb    H16 3794   7.024   4.111  10.528 -1.7002 -0.0320  2.4225
  131bbb     C9 3795   6.396   4.161  10.586  0.6416  0.6858 -0.6528
  131bbb    H17 3796   6.342   4.193  10.676 -1.8297  0.2652 -1.9078
  131bbb    H18 3797   6.332   4.079  10.551 -1.3345  1.3223  1.1986
  131bbb     O1 3798   6.636   4.187  11.225 -0.1819  0.1239  0.3235
  132bbb     N1 3799   7.013   3.113  11.746  0.2993  0.0498  0.3435
  132bbb     C1 3800   6.934   3.000  11.795  0.5890 -0.0865 -0.2505
  132bbb     H1 3801   6.899   3.028  11.895 -1.9511  0.7148 -1.2852
  132bbb     H2 3802   6.993   2.908  11.803  0.4445 -0.1320  0.3099
  132bbb     C2 3803   7.149   3.116  11.798  0.2053 -0.6045  0.4398
  132bbb     H3 3804   7.197   3.202  11.751 -0.3732 -0.7836 -0.5011
  132bbb     H4 3805   7.201   3.023  11.773  1.3958 -0.2866  1.5521
  132bbb     C3 3806   6.939   3.243  11.727  0.0814 -0.8803  0.0864
  132bbb     H5 3807   6.924   3.311  11.812  4.4410  2.8821 -1.7807
  132bbb     H6 3808   6.837   3.223  11.690 -0.4462  0.8930  0.4896
  132bbb     C4 3809   7.004   3.341  11.623 -0.6364 -0.4474 -0.2203
  132bbb     H7 3810   6.980   3.302  11.524 -2.4946 -0.7802  0.3329
  132bbb     H8 3811   7.112   3.356  11.639 -0.5787 -2.5886  2.0494
  132bbb     C5 3812   6.802   2.976  11.728  0.1041 -0.2215 -0.1635
  132bbb     H9 3813   6.719   3.044  11.751  1.0974  0.7632  0.5944
  132bbb    H10 3814   6.768   2.888  11.785 -1.1221  0.9419  0.9599
  132bbb     C6 3815   7.162   3.148  11.953  0.1237  0.2319  0.1130
  132bbb    H11 3816   7.110   3.077  12.017 -0.3003 -0.3244 -0.8229
  132bbb    H12 3817   7.126   3.250  11.971 -1.3472 -0.3651  0.6730
  132bbb     C7 3818   6.941   3.486  11.630 -0.5312  0.3090  0.1460
  132bbb    H13 3819   6.966   3.528  11.728  0.9827  1.2034 -0.5867
  132bbb    H14 3820   6.832   3.493  11.615 -0.3014  1.4212 -1.1379
  132bbb     C8 3821   7.310   3.147  12.005  0.1873  0.2066  0.2874
  132bbb    H15 3822   7.313   3.143  12.115  0.0291  1.6901  0.3621
  132bbb    H16 3823   7.363   3.238  11.973  1.3460  0.1288  1.8383
  132bbb     C9 3824   6.824   2.936  11.585 -0.2432 -0.0196  0.1474
  132bbb    H17 3825   6.855   3.028  11.535  2.8055  0.3041  2.3352
  132bbb    H18 3826   6.729   2.906  11.539 -0.6246 -0.6007  1.2918
  132bbb     O1 3827   7.011   3.571  11.535 -0.3631  0.6302  0.2825
  133bbb     N1 3828   7.331   3.885  12.639 -1.2989 -0.0075 -0.5338
  133bbb     C1 3829   7.375   3.849  12.506  0.1557  0.2910  0.2046
  133bbb     H1 3830   7.329   3.919  12.435  2.4818  0.7844 -0.9322
  133bbb     H2 3831   7.353   3.744  12.482 -0.8530  0.4207  0.5336
  133bbb     C2 3832   7.377   4.018  12.687 -0.5342 -0.1928 -0.3502
  133bbb     H3 3833   7.484   4.021  12.713  0.0149  2.6589 -2.3794
  133bbb     H4 3834   7.337   4.038  12.787  2.9765  1.5288  0.8758
  133bbb     C3 3835   7.191   3.857  12.658  0.4631 -0.1671  0.5757
  133bbb     H5 3836   7.129   3.926  12.599 -1.5382 -1.4438  1.0588
  133bbb     H6 3837   7.164   3.880  12.762  1.3961 -0.1827  0.8284
  133bbb     C4 3838   7.142   3.713  12.637 -0.4589  0.4605 -0.0755
  133bbb     H7 3839   7.190   3.644  12.708 -2.4793  0.8028  1.7118
  133bbb     H8 3840   7.164   3.671  12.538  1.7087 -1.8729  1.2503
  133bbb     C5 3841   7.526   3.850  12.487  0.6501  0.2885 -0.7013
  133bbb     H9 3842   7.564   3.784  12.566  1.1908 -0.6172 -1.7028
  133bbb    H10 3843   7.564   3.952  12.506  0.1299  0.3923 -0.2056
  133bbb     C6 3844   7.345   4.151  12.607  1.2922  0.3077 -0.0512
  133bbb    H11 3845   7.236   4.161  12.613  1.2930  0.8468 -0.8910
  133bbb    H12 3846   7.372   4.138  12.502  1.3039  1.1013 -0.1480
  133bbb     C7 3847   6.995   3.704  12.650 -0.1667 -0.4959  0.1380
  133bbb    H13 3848   6.939   3.730  12.559  0.4066  0.4841  0.0504
  133bbb    H14 3849   6.949   3.772  12.723 -1.7536 -0.8388 -0.5030
  133bbb     C8 3850   7.408   4.272  12.663  0.6002 -0.2416  0.1586
  133bbb    H15 3851   7.382   4.361  12.605  3.4115 -0.2770 -1.3118
  133bbb    H16 3852   7.514   4.256  12.644  0.6340  1.3637 -1.1916
  133bbb     C9 3853   7.558   3.810  12.337  0.1507 -0.6996  0.1567
  133bbb    H17 3854   7.492   3.728  12.308 -0.1596 -0.0633 -0.9977
  133bbb    H18 3855   7.658   3.765  12.333  0.3549 -0.3101  0.7109
  133bbb     O1 3856   6.957   3.571  12.686  0.3249 -0.0714 -0.0033
  134bbb     N1 3857   7.761   3.222  12.753  0.3721 -0.1563  0.4398
  134bbb     C1 3858   7.888   3.193  12.685  0.0552 -0.5387  0.0897
  134bbb     H1 3859   7.945   3.283  12.658 -0.5187  0.5308  2.2423
  134bbb     H2 3860   7.863   3.137  12.594  0.5655  0.4648 -0.6929
  134bbb     C2 3861   7.781   3.317  12.861  0.1186  0.2468 -0.6168
  134bbb     H3 3862   7.821   3.410  12.820 -1.3536  0.6396 -1.2543
  134bbb     H4 3863   7.847   3.273  12.937 -0.8133 -0.7751 -0.3681
  134bbb     C3 3864   7.651   3.269  12.654 -0.5424 -0.0195  0.4259
  134bbb     H5 3865   7.547   3.278  12.690 -0.4210  1.7045  0.4172
  134bbb     H6 3866   7.653   3.202  12.567  1.8200  0.1558  0.3012
  134bbb     C4 3867   7.682   3.404  12.586 -0.2161 -0.3939 -0.7706
  134bbb     H7 3868   7.770   3.400  12.521 -0.2166 -0.3787 -0.7715
  134bbb     H8 3869   7.700   3.484  12.659 -0.5085 -0.8228 -0.2213
  134bbb     C5 3870   7.983   3.098  12.764 -0.9538  0.3074  0.3239
  134bbb     H9 3871   7.926   3.010  12.797 -0.1224 -0.0620  0.8040
  134bbb    H10 3872   8.017   3.143  12.859  0.9471 -0.2640 -0.0606
  134bbb     C6 3873   7.648   3.371  12.929 -0.3673 -0.0000  0.1780
  134bbb    H11 3874   7.562   3.306  12.913  0.1790 -1.3062  2.2385
  134bbb    H12 3875   7.616   3.466  12.883 -2.2899 -0.2328  0.9479
  134bbb     C7 3876   7.563   3.440  12.497  0.0893 -0.4394  0.5906
  134bbb    H13 3877   7.588   3.534  12.445 -1.7856 -0.8548 -1.1829
  134bbb    H14 3878   7.474   3.456  12.560  0.4723  0.1833  0.9915
  134bbb     C8 3879   7.669   3.394  13.078 -0.1946  0.1649 -1.3971
  134bbb    H15 3880   7.750   3.466  13.094  1.5362 -2.1660  1.5743
  134bbb    H16 3881   7.694   3.298  13.127 -1.1092 -0.3043 -1.8221
  134bbb     C9 3882   8.109   3.057  12.678  0.1930  0.3252  0.1841
  134bbb    H17 3883   8.158   3.148  12.642  2.9077 -1.1559 -0.1723
  134bbb    H18 3884   8.060   2.998  12.600  2.2140 -0.3465 -0.6548
  134bbb     O1 3885   7.547   3.342  12.397 -0.0090 -0.4017 -0.3167
  135bbb     N1 3886   4.768   5.363  11.105 -0.3804  0.4244 -0.3414
  135bbb     C1 3887   4.713   5.502  11.115 -0.6974 -0.3649 -0.0885
  135bbb     H1 3888   4.607   5.494  11.143 -0.4773 -1.2324  0.5677
  135bbb     H2 3889   4.711   5.546  11.015  0.4283  1.7836  0.7799
  135bbb     C2 3890   4.708   5.273  10.998  0.0373 -0.1727 -0.4001
  135bbb     H3 3891   4.771   5.183  10.998 -0.0399 -0.4273  3.5799
  135bbb     H4 3892   4.715   5.316  10.898 -2.3685 -0.2677 -0.6598
  135bbb     C3 3893   4.912   5.352  11.099 -0.7872 -0.5139  0.1118
  135bbb     H5 3894   4.946   5.248  11.101  0.1240 -0.2489 -0.5277
  135bbb     H6 3895   4.948   5.404  11.188 -0.8318  0.2167 -0.2883
  135bbb     C4 3896   4.971   5.419  10.973 -0.1978 -0.0608  0.0527
  135bbb     H7 3897   4.934   5.522  10.964  3.2885  1.2106 -1.4975
  135bbb     H8 3898   4.935   5.362  10.886 -1.0162 -1.4071  1.2141
  135bbb     C5 3899   4.785   5.599  11.214  0.2100  0.2702  0.4624
  135bbb     H9 3900   4.888   5.619  11.180 -0.9702  0.9048 -3.2371
  135bbb    H10 3901   4.788   5.543  11.308  1.5527 -0.5401 -0.0179
  135bbb     C6 3902   4.558   5.235  11.040  0.2969 -0.8888  0.6730
  135bbb    H11 3903   4.496   5.322  11.064  0.5782 -0.9485  1.6298
  135bbb    H12 3904   4.557   5.172  11.129  1.1782 -1.9758 -0.0626
  135bbb     C7 3905   5.129   5.435  10.982  0.4523  0.0991  0.6775
  135bbb    H13 3906   5.156   5.503  10.900  3.6736  0.3345  1.7983
  135bbb    H14 3907   5.185   5.343  10.965 -0.1171 -0.1949  0.3729
  135bbb     C8 3908   4.487   5.146  10.930  0.1900 -0.4210  0.2089
  135bbb    H15 3909   4.503   5.043  10.966  0.2945 -0.9388 -1.2455
  135bbb    H16 3910   4.553   5.146  10.843  0.7883  0.2288  0.6478
  135bbb     C9 3911   4.709   5.729  11.233  0.2158  0.1841 -0.5762
  135bbb    H17 3912   4.685   5.770  11.134 -0.4852 -2.8113 -1.7256
  135bbb    H18 3913   4.781   5.803  11.271 -1.4508  1.6714 -0.1895
  135bbb     O1 3914   5.167   5.485  11.106  0.0802 -0.4091 -0.3400
  136bbb     N1 3915   4.868   6.137  11.813 -0.3045  0.4929  0.1570
  136bbb     C1 3916   4.851   6.278  11.795 -0.3863 -0.6812  0.0970
  136bbb     H1 3917   4.814   6.297  11.693  2.9064 -0.4796 -1.2008
  136bbb     H2 3918   4.944   6.336  11.805 -1.5323  1.0677  1.2062
  136bbb     C2 3919   4.924   6.089  11.945 -0.4370 -0.3292 -0.1289
  136bbb     H3 3920   4.850   6.122  12.019  1.8974 -2.3550  3.4558
  136bbb     H4 3921   5.025   6.130  11.960  0.8721 -3.4327  0.5150
  136bbb     C3 3922   4.925   6.075  11.699 -0.6372  0.0888  0.3904
  136bbb     H5 3923   4.978   5.979  11.709 -0.6157 -0.3666 -2.9647
  136bbb     H6 3924   5.000   6.139  11.652 -1.3519  0.8646  0.2744
  136bbb     C4 3925   4.819   6.047  11.593  0.2732  0.5092  0.3594
  136bbb     H7 3926   4.757   6.134  11.567  0.9373  0.2075 -2.4756
  136bbb     H8 3927   4.737   5.978  11.617 -0.0050  1.0731  1.0901
  136bbb     C5 3928   4.755   6.347  11.896  0.2552  0.8392  0.1749
  136bbb     H9 3929   4.780   6.332  12.002 -1.4868 -0.1529  0.4972
  136bbb    H10 3930   4.664   6.286  11.897  1.5873 -1.2250  0.1211
  136bbb     C6 3931   4.932   5.935  11.955  0.0876 -0.3747 -0.1657
  136bbb    H11 3932   4.977   5.920  12.054 -0.6250  0.8846  0.3682
  136bbb    H12 3933   4.995   5.892  11.876  1.6167  0.5808  0.5008
  136bbb     C7 3934   4.881   6.008  11.457 -0.6509 -0.0657  0.3450
  136bbb    H13 3935   4.930   6.098  11.419 -3.2487  0.3648 -2.3629
  136bbb    H14 3936   4.800   5.981  11.388  0.1247  0.1798 -0.6777
  136bbb     C8 3937   4.790   5.848  11.952 -0.6598 -0.3793  0.1501
  136bbb    H15 3938   4.718   5.883  11.878 -0.2209 -1.7176 -0.9452
  136bbb    H16 3939   4.746   5.863  12.051  2.2105  2.5009  1.1681
  136bbb     C9 3940   4.730   6.501  11.854 -0.6889 -0.2618 -0.0883
  136bbb    H17 3941   4.825   6.549  11.879  0.4388 -2.3127 -0.2196
  136bbb    H18 3942   4.651   6.536  11.923  0.6917 -0.1281  1.4963
  136bbb     O1 3943   4.974   5.895  11.469 -0.0889  0.5866 -0.4429
  137bbb     N1 3944   4.746   4.343  11.297  0.2759 -0.1722  0.1017
  137bbb     C1 3945   4.860   4.425  11.240  0.1925  0.5553  0.0284
  137bbb     H1 3946   4.818   4.470  11.149 -0.9231  1.7273  1.0927
  137bbb     H2 3947   4.948   4.364  11.218  0.2514  0.8228 -0.4881
  137bbb     C2 3948   4.696   4.235  11.207  0.0600  0.6755 -0.5770
  137bbb     H3 3949   4.606   4.186  11.245 -0.4999  1.3417 -1.0123
  137bbb     H4 3950   4.767   4.152  11.216 -0.5579  0.3332  1.5986
  137bbb     C3 3951   4.790   4.285  11.426 -0.3517 -0.3239 -0.7143
  137bbb     H5 3952   4.807   4.372  11.491 -2.4463  0.3094 -0.9299
  137bbb     H6 3953   4.886   4.233  11.415  0.1018 -0.1136  1.6147
  137bbb     C4 3954   4.703   4.169  11.494 -0.1870 -0.6058  0.4739
  137bbb     H7 3955   4.743   4.073  11.458 -1.4333 -0.4472 -1.4890
  137bbb     H8 3956   4.596   4.173  11.470 -0.1755 -0.1639  0.4936
  137bbb     C5 3957   4.918   4.539  11.329  0.3029 -0.4492  0.4614
  137bbb     H9 3958   4.998   4.594  11.279  0.7337 -1.0412  0.5015
  137bbb    H10 3959   4.955   4.503  11.425  1.3224  0.8848  0.5973
  137bbb     C6 3960   4.679   4.261  11.058  0.1431  0.1574 -0.1589
  137bbb    H11 3961   4.644   4.166  11.016 -0.7925  0.8191 -0.9317
  137bbb    H12 3962   4.776   4.271  11.008 -1.2615  0.9237 -2.9650
  137bbb     C7 3963   4.732   4.161  11.644 -0.2447  0.6125 -0.0861
  137bbb    H13 3964   4.663   4.088  11.687  1.2185  0.1199  1.5345
  137bbb    H14 3965   4.716   4.260  11.689  1.0334  1.7506 -1.9714
  137bbb     C8 3966   4.589   4.377  11.011  0.3619 -0.0102  0.1468
  137bbb    H15 3967   4.611   4.465  11.073 -1.0613  1.0886 -0.8417
  137bbb    H16 3968   4.484   4.351  11.029  0.2225  0.2920 -0.2108
  137bbb     C9 3969   4.812   4.652  11.356 -0.0924  0.3316 -0.3011
  137bbb    H17 3970   4.722   4.596  11.383 -0.0600  0.2363 -0.3889
  137bbb    H18 3971   4.803   4.704  11.260 -1.3110 -1.2028 -1.0563
  137bbb     O1 3972   4.866   4.112  11.665  0.2656  0.1515 -0.0529
  138bbb     N1 3973   5.382   4.670  12.208 -0.1641 -0.0092 -0.2838
  138bbb     C1 3974   5.235   4.667  12.207  0.1644  0.2881  0.6611
  138bbb     H1 3975   5.202   4.761  12.162 -0.2786  0.1119  0.6109
  138bbb     H2 3976   5.206   4.657  12.312  3.6485 -2.0103  1.6189
  138bbb     C2 3977   5.448   4.759  12.305 -0.3382  0.7773  0.1750
  138bbb     H3 3978   5.557   4.742  12.306 -0.3051  0.9537 -0.1653
  138bbb     H4 3979   5.423   4.730  12.407 -0.3263 -0.3382 -0.1291
  138bbb     C3 3980   5.427   4.686  12.073  0.0452  0.7466  0.2044
  138bbb     H5 3981   5.402   4.788  12.041  1.5499  0.3181 -2.7008
  138bbb     H6 3982   5.377   4.616  12.005  0.7485  0.9084 -0.4981
  138bbb     C4 3983   5.585   4.662  12.058 -0.2104 -0.1916 -0.2806
  138bbb     H7 3984   5.645   4.708  12.138 -0.7295 -1.4714  0.8908
  138bbb     H8 3985   5.618   4.699  11.960  0.7801 -1.0589 -0.2975
  138bbb     C5 3986   5.163   4.546  12.124  0.5316  0.0853  0.0163
  138bbb     H9 3987   5.221   4.457  12.152  0.1347 -0.1918 -0.0400
  138bbb    H10 3988   5.183   4.557  12.016 -1.4622 -0.5381 -0.4533
  138bbb     C6 3989   5.420   4.910  12.294 -0.0319  0.1896 -0.2984
  138bbb    H11 3990   5.313   4.922  12.312  0.2684  1.1590  0.9782
  138bbb    H12 3991   5.448   4.947  12.195  0.2244  1.2276  0.1505
  138bbb     C7 3992   5.615   4.511  12.066 -0.0736  0.4187  0.1603
  138bbb    H13 3993   5.553   4.462  12.142 -0.1055 -0.9404 -0.7004
  138bbb    H14 3994   5.718   4.494  12.101  0.1198  2.3249  0.6028
  138bbb     C8 3995   5.507   4.984  12.398 -0.2917  0.5114 -0.4806
  138bbb    H15 3996   5.493   5.092  12.389 -1.3880  0.6203  1.7923
  138bbb    H16 3997   5.613   4.960  12.382 -1.0825 -1.4972 -3.5793
  138bbb     C9 3998   5.012   4.517  12.157 -0.0630  0.2676 -0.4004
  138bbb    H17 3999   4.954   4.606  12.131  0.2917  0.3293 -0.9912
  138bbb    H18 4000   4.998   4.508  12.266  0.8614  0.3687 -0.2610
  138bbb     O1 4001   5.578   4.456  11.934 -0.1448 -0.1810 -0.0967
  139bbb     N1 4002   7.329   4.893   9.652  0.1130 -0.4480 -1.1234
  139bbb     C1 4003   7.223   4.817   9.727 -0.0717 -0.6857  0.0468
  139bbb     H1 4004   7.240   4.710   9.740 -1.5456 -0.8208  1.1533
  139bbb     H2 4005   7.134   4.830   9.664  0.3391 -1.8514 -0.8072
  139bbb     C2 4006   7.363   4.850   9.518 -0.3510  0.0773  0.4596
  139bbb     H3 4007   7.443   4.910   9.472 -0.0960 -0.5356  0.0984
  139bbb     H4 4008   7.273   4.869   9.458  0.0949  1.0090  0.0641
  139bbb     C3 4009   7.325   5.046   9.649 -0.4264  0.2133 -0.1277
  139bbb     H5 4010   7.224   5.078   9.678 -1.0903 -1.1914 -0.8437
  139bbb     H6 4011   7.345   5.094   9.552  1.9122  3.5529  1.7553
  139bbb     C4 4012   7.429   5.103   9.747  0.5029 -0.6994 -1.2308
  139bbb     H7 4013   7.528   5.063   9.720  1.4464  0.7100 -0.0423
  139bbb     H8 4014   7.414   5.057   9.845  0.5987 -1.0641 -1.3865
  139bbb     C5 4015   7.195   4.873   9.871  0.0031 -0.7302  0.2310
  139bbb     H9 4016   7.094   4.850   9.904 -1.3972 -0.8130 -3.6501
  139bbb    H10 4017   7.186   4.983   9.869  1.6203 -0.5508  1.1604
  139bbb     C6 4018   7.384   4.699   9.509  0.0244 -0.3684 -0.1367
  139bbb    H11 4019   7.406   4.673   9.405  0.2847 -0.0793 -0.1570
  139bbb    H12 4020   7.305   4.633   9.547  0.4542 -0.3293  0.8521
  139bbb     C7 4021   7.404   5.258   9.768 -0.2936 -0.3867 -0.1819
  139bbb    H13 4022   7.385   5.308   9.672 -0.3977  0.1715  0.1225
  139bbb    H14 4023   7.497   5.288   9.817  0.1886 -0.3578 -1.1045
  139bbb     C8 4024   7.519   4.662   9.573  0.9844  0.3224 -0.5396
  139bbb    H15 4025   7.523   4.681   9.681 -2.0809 -1.5651  0.0305
  139bbb    H16 4026   7.588   4.732   9.525 -0.7202  3.0350  0.7224
  139bbb     C9 4027   7.304   4.821   9.964 -0.3379 -0.1012 -0.2418
  139bbb    H17 4028   7.400   4.839   9.914 -0.2137 -0.9289 -0.3127
  139bbb    H18 4029   7.293   4.712   9.963  0.6318 -0.2073 -1.1250
  139bbb     O1 4030   7.290   5.259   9.858 -0.3976  0.0735 -0.0025
  140bbb     N1 4031   6.091   5.388   9.812 -0.1909 -0.0194 -0.7018
  140bbb     C1 4032   6.090   5.450   9.946 -0.0769 -0.4995  0.0863
  140bbb     H1 4033   6.159   5.534   9.936  1.0072 -1.5411 -1.7052
  140bbb     H2 4034   6.137   5.376  10.012  1.6110 -1.4578 -2.0804
  140bbb     C2 4035   5.971   5.310   9.783  0.5216  0.6775  0.2066
  140bbb     H3 4036   5.884   5.376   9.794  1.3990  1.8604  0.2435
  140bbb     H4 4037   5.967   5.235   9.863 -0.9005  0.9216  0.3901
  140bbb     C3 4038   6.217   5.330   9.766 -0.1635 -0.2990  0.1845
  140bbb     H5 4039   6.302   5.398   9.766 -0.3767 -0.0027 -1.0507
  140bbb     H6 4040   6.201   5.308   9.659  0.9424 -1.0398  0.1589
  140bbb     C4 4041   6.256   5.196   9.822 -0.5615 -0.8565  0.1475
  140bbb     H7 4042   6.165   5.134   9.817 -2.0043  1.2390 -1.2282
  140bbb     H8 4043   6.276   5.204   9.929 -0.7603  1.8120  0.0434
  140bbb     C5 4044   5.949   5.488  10.006  0.2866 -0.9452  0.0956
  140bbb     H9 4045   5.889   5.400  10.032  0.3108 -0.8487  0.4954
  140bbb    H10 4046   5.891   5.546   9.934 -1.2914 -0.3815  1.7261
  140bbb     C6 4047   5.959   5.234   9.649 -0.9020  0.1278 -0.3707
  140bbb    H11 4048   6.034   5.154   9.648  0.9377  1.7656 -1.2888
  140bbb    H12 4049   5.986   5.306   9.570  1.5107  1.2914  1.3606
  140bbb     C7 4050   6.372   5.121   9.756  0.1445  0.2736 -0.1408
  140bbb    H13 4051   6.367   5.144   9.649 -0.9820  0.2223 -0.1075
  140bbb    H14 4052   6.361   5.013   9.776  1.3197 -0.2067 -1.8307
  140bbb     C8 4053   5.813   5.194   9.626 -0.0261  0.1450  0.6850
  140bbb    H15 4054   5.807   5.129   9.537 -3.0047  0.6236  0.4490
  140bbb    H16 4055   5.754   5.284   9.607 -2.3365 -1.6470 -1.3291
  140bbb     C9 4056   5.970   5.573  10.133  0.1379 -0.5032  1.0178
  140bbb    H17 4057   6.031   5.517  10.204  2.0967 -1.3167 -1.1636
  140bbb    H18 4058   5.873   5.592  10.180  0.0920  1.0570  0.3775
  140bbb     O1 4059   6.504   5.169   9.805 -0.2538 -0.1855  0.2430
  141bbb     N1 4060   5.962   3.886  11.160  0.1077  0.2253  0.0979
  141bbb     C1 4061   6.080   3.802  11.115  0.0084 -0.5637  0.1460
  141bbb     H1 4062   6.043   3.699  11.103 -1.2878 -0.1853  0.7477
  141bbb     H2 4063   6.155   3.808  11.195  0.5526 -2.3660 -0.1765
  141bbb     C2 4064   5.891   3.813  11.266  0.1830  0.2921 -0.2241
  141bbb     H3 4065   5.880   3.707  11.239 -0.3646 -0.5195  2.7866
  141bbb     H4 4066   5.790   3.855  11.273  0.0035  0.2918 -2.2043
  141bbb     C3 4067   5.866   3.917  11.050  0.9846 -0.4514  0.9594
  141bbb     H5 4068   5.809   3.826  11.024 -2.7367  1.8731  0.2831
  141bbb     H6 4069   5.924   3.957  10.966  1.5994 -0.9810  1.1271
  141bbb     C4 4070   5.779   4.038  11.084  0.8086  0.3042  0.4902
  141bbb     H7 4071   5.711   4.019  11.167 -0.6533  3.3264  0.1203
  141bbb     H8 4072   5.710   4.040  10.998  3.3067 -1.3151 -1.7516
  141bbb     C5 4073   6.152   3.839  10.989 -0.1757  0.4492  0.2383
  141bbb     H9 4074   6.078   3.817  10.911 -0.8408  0.1867  0.9371
  141bbb    H10 4075   6.234   3.767  10.978  0.1702  0.2689  3.1616
  141bbb     C6 4076   5.965   3.808  11.398  0.4527  0.1993  0.8899
  141bbb    H11 4077   5.978   3.915  11.420 -2.4435  0.7346  0.3068
  141bbb    H12 4078   6.067   3.767  11.390  0.4057  0.0609  0.9908
  141bbb     C7 4079   5.841   4.176  11.088  0.2413 -0.7072  0.3416
  141bbb    H13 4080   5.917   4.184  11.166  1.3011  0.1546 -0.7550
  141bbb    H14 4081   5.764   4.253  11.101  3.0938  1.9990  2.5096
  141bbb     C8 4082   5.884   3.736  11.507 -0.0745  0.4333  0.4003
  141bbb    H15 4083   5.951   3.730  11.594 -0.6633  0.7141  0.8774
  141bbb    H16 4084   5.859   3.639  11.462  0.0170  0.6445 -0.1217
  141bbb     C9 4085   6.206   3.983  10.980  0.7915  0.0108 -0.4111
  141bbb    H17 4086   6.115   4.045  10.984  0.9295  0.1658  0.7144
  141bbb    H18 4087   6.256   3.992  10.883 -0.1535 -2.8203 -1.2570
  141bbb     O1 4088   5.906   4.191  10.960 -0.4990 -0.4831  0.2164
  142bbb     N1 4089   5.089   4.122  10.582 -0.6537 -0.1125 -0.1038
  142bbb     C1 4090   5.099   4.031  10.697 -0.3644  0.1200  0.5121
  142bbb     H1 4091   5.132   4.093  10.781 -0.0037  1.4605 -0.5780
  142bbb     H2 4092   5.169   3.950  10.673  1.2372  1.4057  0.6911
  142bbb     C2 4093   4.979   4.224  10.568 -0.0002  0.0644 -0.6672
  142bbb     H3 4094   4.999   4.311  10.631  1.4642 -0.1318 -0.8395
  142bbb     H4 4095   4.889   4.176  10.608  0.1393 -1.7174 -2.3277
  142bbb     C3 4096   5.221   4.189  10.560  0.1241  0.0126  0.7588
  142bbb     H5 4097   5.248   4.265  10.635 -2.1619  1.8379 -0.1258
  142bbb     H6 4098   5.216   4.254  10.472 -0.7751 -0.4443  0.4545
  142bbb     C4 4099   5.346   4.101  10.539 -0.2793  0.2175 -0.2211
  142bbb     H7 4100   5.317   4.019  10.472 -0.7732 -0.6252  0.9694
  142bbb     H8 4101   5.378   4.060  10.636  1.1249  0.7077 -0.4669
  142bbb     C5 4102   4.970   3.968  10.759 -0.8571  0.5012  0.3979
  142bbb     H9 4103   4.900   4.050  10.780 -0.6792  0.7421  0.0543
  142bbb    H10 4104   4.991   3.928  10.859  1.7326 -0.7857 -0.5654
  142bbb     C6 4105   4.955   4.274  10.427 -0.2460  0.0217 -0.0081
  142bbb    H11 4106   4.948   4.181  10.369  0.6674 -0.0378 -0.0378
  142bbb    H12 4107   5.041   4.325  10.383 -1.1836  1.8223  0.1423
  142bbb     C7 4108   5.462   4.178  10.489  0.1800  0.1083  0.1639
  142bbb    H13 4109   5.472   4.275  10.540 -1.1625  0.5759 -0.4309
  142bbb    H14 4110   5.457   4.200  10.382  0.2818  2.2532  0.5624
  142bbb     C8 4111   4.829   4.370  10.409  0.2274  0.1918  0.1243
  142bbb    H15 4112   4.864   4.464  10.364 -1.1497  1.8148  2.2295
  142bbb    H16 4113   4.795   4.400  10.509  1.3509 -1.7253  1.1473
  142bbb     C9 4114   4.902   3.861  10.669  0.3384  0.5270 -0.1986
  142bbb    H17 4115   4.876   3.921  10.581  1.2604 -0.8236 -1.4413
  142bbb    H18 4116   4.814   3.827  10.725  0.6812 -1.3868 -0.7504
  142bbb     O1 4117   5.581   4.110  10.505  0.4633  0.2175 -0.3247
  143bbb     N1 4118   7.449   7.003  12.437 -0.5898 -0.1631 -0.4464
  143bbb     C1 4119   7.365   7.101  12.361 -0.2705 -0.7049 -0.8903
  143bbb     H1 4120   7.307   7.165  12.428 -2.3920 -1.0557 -2.2657
  143bbb     H2 4121   7.283   7.045  12.315 -2.1439  0.9317  0.3123
  143bbb     C2 4122   7.558   7.063  12.513  0.2167 -0.2624 -0.3475
  143bbb     H3 4123   7.629   7.099  12.437 -0.5895  1.4150 -0.3653
  143bbb     H4 4124   7.601   6.992  12.585 -1.9500 -0.0777  1.2432
  143bbb     C3 4125   7.482   6.876  12.373  1.0850 -0.5667 -0.0065
  143bbb     H5 4126   7.520   6.895  12.272 -0.9558  1.0002 -0.5619
  143bbb     H6 4127   7.398   6.807  12.358  1.6112 -1.4714  1.0876
  143bbb     C4 4128   7.581   6.781  12.435  0.7668  0.5617 -0.0825
  143bbb     H7 4129   7.535   6.735  12.523  0.8821 -1.1199 -0.8812
  143bbb     H8 4130   7.674   6.827  12.473  0.4838 -0.9809  2.7900
  143bbb     C5 4131   7.447   7.187  12.262  0.4416  0.2031 -0.0123
  143bbb     H9 4132   7.497   7.111  12.201 -1.5659 -0.9577 -0.2850
  143bbb    H10 4133   7.528   7.245  12.308  2.8646 -3.3794  0.6667
  143bbb     C6 4134   7.528   7.188  12.597  0.2311 -0.0461 -0.1208
  143bbb    H11 4135   7.445   7.164  12.665  0.7279  1.1204  0.9470
  143bbb    H12 4136   7.484   7.274  12.546  0.5398 -0.0896 -0.4667
  143bbb     C7 4137   7.613   6.669  12.340 -0.5444  0.2318  0.0459
  143bbb    H13 4138   7.523   6.623  12.298 -1.3130  1.6040  0.1363
  143bbb    H14 4139   7.672   6.596  12.397 -0.6301  1.0882  1.2724
  143bbb     C8 4140   7.651   7.247  12.678 -0.7941  0.0394 -0.3590
  143bbb    H15 4141   7.693   7.184  12.757  1.1543 -0.4986 -1.7502
  143bbb    H16 4142   7.625   7.344  12.723  0.8159  0.5447 -0.4643
  143bbb     C9 4143   7.365   7.277  12.169 -0.0610  0.2930 -0.0874
  143bbb    H17 4144   7.296   7.218  12.107  0.6437 -1.1075  0.4121
  143bbb    H18 4145   7.440   7.319  12.100 -0.4987  0.7802 -0.2747
  143bbb     O1 4146   7.703   6.729  12.248 -0.6332 -0.0931  0.2612
  144bbb     N1 4147   7.289   7.135  11.102  0.3448 -0.1362 -1.2637
  144bbb     C1 4148   7.175   7.201  11.184  0.3440 -0.8692 -0.1141
  144bbb     H1 4149   7.156   7.127  11.263 -0.5340 -2.4528 -1.7332
  144bbb     H2 4150   7.081   7.200  11.127 -0.8502 -2.2208  1.7431
  144bbb     C2 4151   7.265   6.994  11.056 -0.2752 -0.1965  0.0860
  144bbb     H3 4152   7.252   6.925  11.140  1.5990  0.9887  1.4160
  144bbb     H4 4153   7.356   6.969  11.000 -1.5026  0.8038 -2.5508
  144bbb     C3 4154   7.429   7.146  11.153  0.5378  0.1552 -0.6305
  144bbb     H5 4155   7.460   7.249  11.172 -0.2704  0.1934  0.5770
  144bbb     H6 4156   7.499   7.112  11.075  2.2677 -0.8042  1.2545
  144bbb     C4 4157   7.452   7.077  11.295  0.8794 -0.1700 -0.1386
  144bbb     H7 4158   7.395   6.984  11.310 -1.1462  1.3118  2.0601
  144bbb     H8 4159   7.428   7.152  11.371 -1.1724 -1.2626  0.3631
  144bbb     C5 4160   7.201   7.342  11.238 -0.7855  0.4895 -0.6514
  144bbb     H9 4161   7.239   7.404  11.156  2.3871 -1.1917 -0.6257
  144bbb    H10 4162   7.279   7.338  11.315 -1.6811 -2.5744  0.2496
  144bbb     C6 4163   7.135   6.984  10.968  0.5375  0.0899  0.1555
  144bbb    H11 4164   7.144   7.055  10.884 -0.3401 -1.5860 -1.4097
  144bbb    H12 4165   7.047   7.003  11.030 -0.6696 -2.1591 -0.7451
  144bbb     C7 4166   7.596   7.034  11.321 -0.0748  0.4940 -0.1393
  144bbb    H13 4167   7.663   7.120  11.310 -1.1508  1.9040  3.2888
  144bbb    H14 4168   7.621   6.952  11.252  0.8191  0.7038 -0.0833
  144bbb     C8 4169   7.130   6.843  10.912  0.1737  0.2160 -0.3855
  144bbb    H15 4170   7.225   6.810  10.867  0.6931  0.1410  0.7295
  144bbb    H16 4171   7.054   6.834  10.833  0.1230 -0.5677 -0.2627
  144bbb     C9 4172   7.065   7.391  11.294  0.9717 -1.3331 -0.2103
  144bbb    H17 4173   7.019   7.304  11.343 -0.9383 -0.3584 -0.1992
  144bbb    H18 4174   6.995   7.394  11.210  0.9412  1.8531 -0.1896
  144bbb     O1 4175   7.600   6.967  11.452 -0.2420 -0.7719  0.9121
  145bbb     N1 4176   8.775   5.657  12.726  0.3150 -0.9029 -0.0450
  145bbb     C1 4177   8.836   5.603  12.852  0.5802 -0.2832  0.0814
  145bbb     H1 4178   8.804   5.500  12.871 -1.0613  0.4786  1.7793
  145bbb     H2 4179   8.785   5.661  12.930  0.4053  0.6010 -0.6699
  145bbb     C2 4180   8.625   5.650  12.705 -0.0616  0.2977  0.2071
  145bbb     H3 4181   8.592   5.699  12.613  0.5555 -1.3065 -0.9204
  145bbb     H4 4182   8.566   5.690  12.788 -0.7493 -0.2430 -0.0032
  145bbb     C3 4183   8.829   5.796  12.684  0.5366  0.3147 -0.8875
  145bbb     H5 4184   8.819   5.816  12.576  1.2788 -0.0222 -1.0313
  145bbb     H6 4185   8.937   5.786  12.700  0.2951  0.9794  1.4305
  145bbb     C4 4186   8.777   5.910  12.770 -0.0202 -0.0031 -0.7803
  145bbb     H7 4187   8.783   5.887  12.877  0.2217  2.9835 -0.0741
  145bbb     H8 4188   8.672   5.926  12.743 -0.1716  0.1515 -0.1350
  145bbb     C5 4189   8.989   5.617  12.861 -0.2701  0.2213  0.6561
  145bbb     H9 4190   9.025   5.619  12.758  0.1472  2.5536  0.7958
  145bbb    H10 4191   9.033   5.529  12.911 -0.3222 -0.3379 -0.2584
  145bbb     C6 4192   8.579   5.503  12.680 -0.0932 -0.5834  0.1617
  145bbb    H11 4193   8.589   5.453  12.778 -0.0618 -1.7176 -0.4000
  145bbb    H12 4194   8.658   5.463  12.616  0.3601  3.2725 -1.9744
  145bbb     C7 4195   8.860   6.034  12.741  0.5754  0.2100  0.0058
  145bbb    H13 4196   8.969   6.022  12.738  0.5627  0.1823 -0.5955
  145bbb    H14 4197   8.833   6.105  12.820 -2.0095 -0.6921  0.0264
  145bbb     C8 4198   8.431   5.492  12.632 -0.7511  0.0648  0.3886
  145bbb    H15 4199   8.419   5.568  12.555  1.3928  0.9303  0.8155
  145bbb    H16 4200   8.352   5.507  12.706  0.0398  0.4879  1.1710
  145bbb     C9 4201   9.041   5.742  12.938  0.6518  0.1583  0.5518
  145bbb    H17 4202   8.986   5.736  13.033  0.4475 -0.4783  0.3985
  145bbb    H18 4203   9.008   5.824  12.873 -0.9159 -1.1665 -0.3935
  145bbb     O1 4204   8.829   6.080  12.607  0.0356 -0.3434  0.1932
  146bbb     N1 4205   8.571   5.781  11.542 -0.3547  0.9771  0.4703
  146bbb     C1 4206   8.439   5.822  11.507 -0.0630 -0.0138  0.8690
  146bbb     H1 4207   8.369   5.845  11.588 -2.2044  0.1083 -0.9102
  146bbb     H2 4208   8.386   5.757  11.436 -0.9786 -0.2441  1.7472
  146bbb     C2 4209   8.585   5.642  11.600  0.1752 -0.1090  0.2114
  146bbb     H3 4210   8.520   5.644  11.689 -0.1804  1.2008 -0.0426
  146bbb     H4 4211   8.684   5.626  11.643 -0.0753 -1.3278  0.3754
  146bbb     C3 4212   8.654   5.888  11.608 -0.6533  0.6289 -0.4691
  146bbb     H5 4213   8.658   5.974  11.540  0.3965  0.0499 -1.1670
  146bbb     H6 4214   8.758   5.856  11.622 -0.9205  0.7827  2.3833
  146bbb     C4 4215   8.596   5.923  11.746 -0.1223  0.3422  0.0608
  146bbb     H7 4216   8.617   5.844  11.819 -2.2574  1.9847  2.7098
  146bbb     H8 4217   8.488   5.942  11.752 -0.0006  0.6585  2.3304
  146bbb     C5 4218   8.431   5.954  11.429 -0.3667  0.2026  0.5310
  146bbb     H9 4219   8.471   6.031  11.496  1.5335 -1.1715  1.0923
  146bbb    H10 4220   8.325   5.971  11.411 -0.2110 -1.2211 -2.1467
  146bbb     C6 4221   8.525   5.526  11.513  0.9427  0.1377 -0.2852
  146bbb    H11 4222   8.553   5.543  11.408  3.4173 -1.5060  0.0328
  146bbb    H12 4223   8.415   5.529  11.517  0.9761  0.2010  2.8181
  146bbb     C7 4224   8.667   6.054  11.798 -0.3455  0.0302 -0.6446
  146bbb    H13 4225   8.628   6.150  11.760 -0.3725 -0.0296 -0.7661
  146bbb    H14 4226   8.774   6.045  11.778 -0.0949  0.6442  0.3282
  146bbb     C8 4227   8.582   5.383  11.557 -0.1277  0.0534 -0.7805
  146bbb    H15 4228   8.578   5.376  11.666  1.6276 -3.1452 -0.8155
  146bbb    H16 4229   8.687   5.366  11.529 -0.3757 -0.3805 -1.4794
  146bbb     C9 4230   8.499   5.947  11.288 -0.3923  0.3934 -0.1473
  146bbb    H17 4231   8.494   5.846  11.246 -1.0507 -0.5868  2.1670
  146bbb    H18 4232   8.606   5.952  11.309 -0.3683 -0.5297 -0.0266
  146bbb     O1 4233   8.648   6.050  11.943 -0.2302 -0.4933  0.2426
  147bbb     N1 4234   6.637   6.055  13.068  0.3447 -0.3925  0.2025
  147bbb     C1 4235   6.712   5.983  12.959 -0.2372  0.6296  0.0259
  147bbb     H1 4236   6.709   6.045  12.868  1.9847  1.2397  0.2978
  147bbb     H2 4237   6.664   5.889  12.930  2.5733 -0.6400 -0.8498
  147bbb     C2 4238   6.612   5.961  13.179  0.9051 -0.2029  0.7916
  147bbb     H3 4239   6.698   5.973  13.246  2.0994 -2.2984 -0.2551
  147bbb     H4 4240   6.615   5.859  13.138 -0.0792 -0.4741  1.3655
  147bbb     C3 4241   6.693   6.186  13.108  1.2196 -0.3049  0.0956
  147bbb     H5 4242   6.788   6.170  13.159  1.7398 -3.6533 -1.6330
  147bbb     H6 4243   6.620   6.236  13.173 -0.6170  0.9675 -2.7066
  147bbb     C4 4244   6.731   6.284  12.995 -0.2635 -0.0103  0.8804
  147bbb     H7 4245   6.642   6.289  12.931  0.3904 -2.5552 -0.3537
  147bbb     H8 4246   6.811   6.240  12.935 -0.2831 -2.5592  2.5629
  147bbb     C5 4247   6.865   5.958  12.989  0.0035 -0.4738  0.6908
  147bbb     H9 4248   6.878   5.936  13.095 -1.6490 -1.3624  0.7462
  147bbb    H10 4249   6.929   6.046  12.970 -1.3474 -0.0961 -3.0693
  147bbb     C6 4250   6.482   5.987  13.250  0.0228 -1.1025  0.0602
  147bbb    H11 4251   6.404   6.009  13.175  0.7176  1.9125  0.0858
  147bbb    H12 4252   6.471   6.084  13.300 -1.3636 -1.1293 -0.1317
  147bbb     C7 4253   6.772   6.424  13.046  0.0563 -0.1156  0.4577
  147bbb    H13 4254   6.686   6.464  13.101 -0.3797  1.2665 -1.1427
  147bbb    H14 4255   6.802   6.489  12.963  1.0872 -0.7639  0.2996
  147bbb     C8 4256   6.442   5.871  13.348  0.2305 -0.2073 -0.8306
  147bbb    H15 4257   6.355   5.900  13.408 -1.8675 -3.1067 -2.2453
  147bbb    H16 4258   6.519   5.839  13.419 -0.4853 -1.1701 -0.4823
  147bbb     C9 4259   6.914   5.838  12.899 -0.0449  0.4743  0.0147
  147bbb    H17 4260   6.856   5.750  12.929 -2.9784  2.4629  0.6673
  147bbb    H18 4261   7.021   5.825  12.917  0.3590  0.3332 -2.2044
  147bbb     O1 4262   6.876   6.400  13.133 -0.4102  0.3060 -0.2619
  148bbb     N1 4263   6.904   6.249  14.147  0.4998  0.2709 -0.1108
  148bbb     C1 4264   6.927   6.392  14.137 -0.3820 -0.1328  0.5814
  148bbb     H1 4265   6.895   6.439  14.231 -0.2524  0.7055  0.2168
  148bbb     H2 4266   6.869   6.427  14.050  1.3679 -0.4593 -0.7604
  148bbb     C2 4267   6.993   6.176  14.236 -0.3058  0.5397 -0.0659
  148bbb     H3 4268   6.965   6.190  14.341 -0.0966  0.9981 -0.0712
  148bbb     H4 4269   7.097   6.207  14.220 -0.0261 -1.4410 -2.8651
  148bbb     C3 4270   6.766   6.203  14.156 -0.2747 -0.1342  0.7317
  148bbb     H5 4271   6.719   6.263  14.234  1.7803 -0.6378  2.4556
  148bbb     H6 4272   6.767   6.098  14.188  1.9962 -0.3391  0.1956
  148bbb     C4 4273   6.687   6.233  14.026 -0.2553  0.3432 -0.3826
  148bbb     H7 4274   6.690   6.339  13.999 -0.6715  0.1587 -1.2057
  148bbb     H8 4275   6.583   6.206  14.047  0.1293  0.1985  1.4210
  148bbb     C5 4276   7.067   6.444  14.085 -0.0767 -0.4472 -0.3723
  148bbb     H9 4277   7.149   6.416  14.152  1.4064  0.4124 -1.7474
  148bbb    H10 4278   7.073   6.553  14.067  0.0708 -0.5084 -0.7202
  148bbb     C6 4279   6.998   6.017  14.231  0.6171 -0.3715  0.0626
  148bbb    H11 4280   6.908   5.965  14.267 -0.1273 -0.3236 -1.6252
  148bbb    H12 4281   7.081   5.977  14.291  0.4300 -2.2611 -0.8625
  148bbb     C7 4282   6.729   6.133  13.907  0.0014  0.2133 -0.2657
  148bbb    H13 4283   6.729   6.026  13.933  3.1763 -0.0946 -1.0061
  148bbb    H14 4284   6.836   6.153  13.889 -0.3665  1.2936 -1.3850
  148bbb     C8 4285   7.012   5.978  14.080  0.2584 -0.5300  0.7320
  148bbb    H15 4286   7.109   6.012  14.042 -0.3123 -0.8683 -1.1235
  148bbb    H16 4287   6.937   6.039  14.028  0.1813 -1.0126  0.2713
  148bbb     C9 4288   7.105   6.380  13.951 -0.3611  1.0344 -0.3033
  148bbb    H17 4289   7.016   6.368  13.889  1.0329 -3.0994 -1.8722
  148bbb    H18 4290   7.141   6.277  13.968  1.0919  1.7941  1.6046
  148bbb     O1 4291   6.656   6.162  13.794  0.7637 -0.3516  0.1342
  149bbb     N1 4292   8.584   6.493  12.752  0.0245  0.2354  0.1964
  149bbb     C1 4293   8.688   6.439  12.851  0.3307 -0.4232  0.1530
  149bbb     H1 4294   8.677   6.331  12.832 -2.1748 -0.2879  0.5747
  149bbb     H2 4295   8.657   6.471  12.951 -1.2036  1.7109 -0.9488
  149bbb     C2 4296   8.581   6.644  12.732  1.0840  0.1714 -0.2134
  149bbb     H3 4297   8.512   6.662  12.648  0.2931 -0.9084  0.1810
  149bbb     H4 4298   8.681   6.681  12.708  1.9149 -1.9129 -0.2093
  149bbb     C3 4299   8.461   6.418  12.764 -0.3861 -0.2490  0.4420
  149bbb     H5 4300   8.396   6.463  12.840  0.8776  2.2499  0.1547
  149bbb     H6 4301   8.479   6.314  12.793  0.0129  0.1912  1.8409
  149bbb     C4 4302   8.379   6.437  12.635 -0.8380  0.2336  0.5568
  149bbb     H7 4303   8.438   6.416  12.545 -1.6691  0.2232  0.0048
  149bbb     H8 4304   8.349   6.542  12.634 -1.2783  0.2494  3.5753
  149bbb     C5 4305   8.829   6.495  12.828  0.1649 -0.4651 -0.1572
  149bbb     H9 4306   8.816   6.603  12.840 -2.4327 -0.5585 -1.5953
  149bbb    H10 4307   8.849   6.501  12.720  0.3628  2.5977 -0.0457
  149bbb     C6 4308   8.528   6.716  12.856  0.2901  0.0991 -0.4982
  149bbb    H11 4309   8.607   6.721  12.932 -0.6935 -0.1354  0.5630
  149bbb    H12 4310   8.441   6.666  12.900  0.9284  0.7096  1.5798
  149bbb     C7 4311   8.259   6.339  12.622 -0.1316 -0.5268  0.3006
  149bbb    H13 4312   8.302   6.245  12.585 -1.9890  0.0569 -3.7835
  149bbb    H14 4313   8.185   6.372  12.548  0.5781  0.3301 -0.0478
  149bbb     C8 4314   8.489   6.863  12.822 -0.1654  0.4944  0.4559
  149bbb    H15 4315   8.417   6.867  12.739  0.7025  1.0802 -0.2970
  149bbb    H16 4316   8.581   6.912  12.786 -0.6819  0.7796 -0.5212
  149bbb     C9 4317   8.949   6.428  12.900 -0.6372  0.2564 -0.0456
  149bbb    H17 4318   8.927   6.419  13.007 -1.9110  1.8145 -0.1368
  149bbb    H18 4319   9.023   6.509  12.897 -2.0946  1.9907  3.9134
  149bbb     O1 4320   8.194   6.334  12.747  0.4592  0.7717  0.2281
  150bbb     N1 4321   8.081   7.058  13.428 -0.4025  0.7897  0.1378
  150bbb     C1 4322   8.143   7.137  13.311 -0.0895 -0.4647 -0.2228
  150bbb     H1 4323   8.074   7.131  13.226 -1.1120  1.2181  0.4379
  150bbb     H2 4324   8.238   7.093  13.276 -0.1139 -1.3546  0.7806
  150bbb     C2 4325   7.953   7.118  13.476 -0.2298 -0.1325  0.3884
  150bbb     H3 4326   7.976   7.214  13.524  1.0729 -0.1989 -0.0618
  150bbb     H4 4327   7.915   7.065  13.564  3.6432  0.4675  2.6429
  150bbb     C3 4328   8.047   6.914  13.388  0.4737 -1.2249 -0.6524
  150bbb     H5 4329   7.972   6.915  13.308 -0.1090  2.1964 -0.2409
  150bbb     H6 4330   7.989   6.870  13.470  1.0279  0.6611  0.8378
  150bbb     C4 4331   8.173   6.832  13.352 -0.6570  0.0915 -0.2110
  150bbb     H7 4332   8.255   6.863  13.418  0.8409 -3.1366 -0.3755
  150bbb     H8 4333   8.204   6.850  13.249 -1.4924 -0.9272 -0.6552
  150bbb     C5 4334   8.160   7.293  13.334 -0.0580  0.5524  0.5928
  150bbb     H9 4335   8.057   7.330  13.346 -0.4655  0.2801 -1.6464
  150bbb    H10 4336   8.196   7.341  13.242 -0.2164 -0.3541  0.0456
  150bbb     C6 4337   7.846   7.148  13.373  0.3273 -0.2988 -0.2672
  150bbb    H11 4338   7.807   7.050  13.342 -0.2414 -0.1825  0.0745
  150bbb    H12 4339   7.892   7.206  13.292  2.0757 -1.4110 -0.1218
  150bbb     C7 4340   8.137   6.679  13.363  0.1128  0.1070 -0.0101
  150bbb    H13 4341   8.105   6.656  13.465 -0.6138  1.4000  0.0688
  150bbb    H14 4342   8.237   6.635  13.351  1.0507  1.9390  0.8155
  150bbb     C8 4343   7.730   7.227  13.441 -0.3031 -0.2318  0.7915
  150bbb    H15 4344   7.656   7.256  13.365  0.2473 -0.6336  0.0891
  150bbb    H16 4345   7.761   7.320  13.489  0.3811 -1.5192  2.9553
  150bbb     C9 4346   8.258   7.321  13.449 -0.2268 -0.0727  0.3670
  150bbb    H17 4347   8.336   7.249  13.422  0.1964  0.7016 -0.5429
  150bbb    H18 4348   8.213   7.289  13.544  1.1717 -2.4568  0.3009
  150bbb     O1 4349   8.043   6.637  13.267 -0.7169  0.3639  0.3725
  151bbb     N1 4350   5.564   6.173  11.280  0.2639  0.0451  0.0911
  151bbb     C1 4351   5.588   6.043  11.347  0.4989 -0.5769  0.0029
  151bbb     H1 4352   5.648   5.968  11.294 -0.2061 -1.8196  0.9103
  151bbb     H2 4353   5.489   6.005  11.373  1.8818 -2.5997  2.8481
  151bbb     C2 4354   5.502   6.140  11.146 -0.1404 -0.1797  0.2141
  151bbb     H3 4355   5.476   6.238  11.104  0.6941  1.0714  2.4339
  151bbb     H4 4356   5.405   6.089  11.155  0.2489 -1.2302 -1.1428
  151bbb     C3 4357   5.483   6.259  11.370 -0.1264 -0.4648 -0.2885
  151bbb     H5 4358   5.523   6.253  11.472  1.4417  0.6823 -0.7874
  151bbb     H6 4359   5.378   6.229  11.359 -0.2238  0.0395 -0.7541
  151bbb     C4 4360   5.498   6.408  11.326 -0.2073 -0.4766 -0.9734
  151bbb     H7 4361   5.445   6.475  11.396 -1.2115  1.1361 -3.1518
  151bbb     H8 4362   5.454   6.429  11.228 -1.2231 -1.6346 -0.7834
  151bbb     C5 4363   5.679   6.052  11.471  0.1743  0.3677 -0.6053
  151bbb     H9 4364   5.640   6.108  11.556 -0.2847  0.2758 -0.7535
  151bbb    H10 4365   5.775   6.096  11.440 -0.3277  1.2025 -1.0023
  151bbb     C6 4366   5.586   6.063  11.043  0.0778  0.0313 -0.4771
  151bbb    H11 4367   5.624   5.968  11.083  1.6121  0.4294 -0.9452
  151bbb    H12 4368   5.675   6.123  11.022 -0.6131  1.1630 -0.2530
  151bbb     C7 4369   5.638   6.458  11.327  0.0215 -0.4956  0.2269
  151bbb    H13 4370   5.694   6.401  11.253  0.0427 -3.0012  2.0570
  151bbb    H14 4371   5.687   6.447  11.425 -1.3813 -0.3990  0.9716
  151bbb     C8 4372   5.508   6.034  10.909 -0.0306  0.1257  0.9009
  151bbb    H15 4373   5.570   5.967  10.849 -1.5501 -1.5222  1.0770
  151bbb    H16 4374   5.504   6.128  10.852 -1.2369 -0.6859 -0.4273
  151bbb     C9 4375   5.724   5.916  11.532  0.0798  0.0061  0.3322
  151bbb    H17 4376   5.631   5.866  11.563 -0.2276 -0.8025 -1.7333
  151bbb    H18 4377   5.773   5.941  11.627  1.3848 -0.2318 -0.2599
  151bbb     O1 4378   5.634   6.601  11.294  0.4082  0.1841 -0.2589
  152bbb     N1 4379   6.729   6.356  10.944  0.3368  0.8244  0.1087
  152bbb     C1 4380   6.648   6.264  10.853 -0.6357  0.2401  0.0608
  152bbb     H1 4381   6.713   6.182  10.821  2.2240  0.6860  3.9739
  152bbb     H2 4382   6.618   6.327  10.768 -2.0779 -0.2752  0.1446
  152bbb     C2 4383   6.802   6.285  11.055  0.3549  0.7489 -0.5697
  152bbb     H3 4384   6.737   6.254  11.138 -0.3792  2.2868 -0.5384
  152bbb     H4 4385   6.882   6.349  11.094  0.3855  1.1884 -1.3352
  152bbb     C3 4386   6.641   6.466  10.997 -0.6255  0.3404  0.1163
  152bbb     H5 4387   6.705   6.530  11.059 -1.0586  0.3067  0.6006
  152bbb     H6 4388   6.567   6.426  11.067  0.0349 -0.6586  0.2664
  152bbb     C4 4389   6.587   6.559  10.898 -0.1618  0.1737  0.9696
  152bbb     H7 4390   6.516   6.523  10.822 -0.6506  0.8603  1.0925
  152bbb     H8 4391   6.667   6.590  10.829 -0.6074  0.9434  0.7785
  152bbb     C5 4392   6.523   6.189  10.918 -0.1069 -1.0355  0.7924
  152bbb     H9 4393   6.451   6.263  10.954 -0.0621 -0.9443  0.6942
  152bbb    H10 4394   6.560   6.129  11.003  2.0646 -1.9576 -0.7219
  152bbb     C6 4395   6.874   6.151  11.017  0.2533  0.0964 -1.2383
  152bbb    H11 4396   6.954   6.165  10.943  0.3042 -0.5734 -1.3183
  152bbb    H12 4397   6.819   6.062  10.982 -0.4918 -0.3556  0.9308
  152bbb     C7 4398   6.531   6.689  10.958 -0.0396  0.1477  0.6014
  152bbb    H13 4399   6.493   6.751  10.877 -2.6116  0.8712  2.2504
  152bbb    H14 4400   6.612   6.734  11.017 -1.0061  0.9461  1.3401
  152bbb     C8 4401   6.945   6.100  11.152  0.0661  0.0200 -0.2273
  152bbb    H15 4402   6.877   6.110  11.237  1.8481  1.3449  1.1239
  152bbb    H16 4403   7.033   6.162  11.171 -0.8953  0.9312  1.5113
  152bbb     C9 4404   6.456   6.100  10.813  0.5499  0.1221 -0.5044
  152bbb    H17 4405   6.527   6.025  10.775  1.1576  0.8371 -0.8208
  152bbb    H18 4406   6.426   6.160  10.727 -3.0813 -0.2331  0.3863
  152bbb     O1 4407   6.417   6.653  11.041  0.1395  0.1330 -0.4865
  153bbb     N1 4408   6.340   7.475  12.962  0.6497  0.0241  0.3825
  153bbb     C1 4409   6.411   7.588  12.906 -0.3347  0.4725  0.1820
  153bbb     H1 4410   6.343   7.635  12.833 -1.6824  0.7649  1.5824
  153bbb     H2 4411   6.494   7.538  12.853  0.9447  1.4828  1.1622
  153bbb     C2 4412   6.220   7.512  13.039  0.3906  0.0926  0.2239
  153bbb     H3 4413   6.251   7.571  13.126 -1.4567 -0.5751  1.3919
  153bbb     H4 4414   6.175   7.425  13.089  0.7097 -0.8901 -1.1265
  153bbb     C3 4415   6.421   7.376  13.034  0.3168  0.1274  0.1745
  153bbb     H5 4416   6.427   7.401  13.141  0.0552  2.1010 -0.2292
  153bbb     H6 4417   6.523   7.378  12.992 -0.4390 -0.8073 -1.8234
  153bbb     C4 4418   6.376   7.229  13.024 -0.3793  0.1118  0.3422
  153bbb     H7 4419   6.288   7.201  13.083  0.2933 -1.4959  0.6587
  153bbb     H8 4420   6.459   7.166  13.059  0.2202 -0.7926 -2.4231
  153bbb     C5 4421   6.475   7.698  12.996  0.4792 -0.4533 -0.2999
  153bbb     H9 4422   6.527   7.652  13.081  0.9728  1.8611  0.7096
  153bbb    H10 4423   6.395   7.747  13.052  0.0202  0.1520 -1.4611
  153bbb     C6 4424   6.117   7.594  12.966  0.6249  0.2253  0.5736
  153bbb    H11 4425   6.146   7.696  12.937  2.3560 -0.8792 -1.9422
  153bbb    H12 4426   6.024   7.602  13.023  0.9077 -2.0174  1.4483
  153bbb     C7 4427   6.353   7.196  12.875  0.5295 -0.7770 -0.3652
  153bbb    H13 4428   6.445   7.214  12.818  0.8572 -1.3187 -0.0179
  153bbb    H14 4429   6.270   7.265  12.855  1.4885 -0.0356 -1.9596
  153bbb     C8 4430   6.070   7.526  12.829  0.1743 -0.7463  0.0330
  153bbb    H15 4431   6.038   7.423  12.848  0.4310 -0.7271  0.5743
  153bbb    H16 4432   6.160   7.519  12.766 -0.0840 -2.2074 -0.2205
  153bbb     C9 4433   6.579   7.798  12.926 -0.9288  0.2492  0.1395
  153bbb    H17 4434   6.649   7.727  12.882  0.3856  1.9307 -0.5541
  153bbb    H18 4435   6.629   7.853  13.007  1.1566 -1.6108  0.2167
  153bbb     O1 4436   6.309   7.064  12.872  0.0645 -0.1199 -0.4274
  154bbb     N1 4437   5.619   7.495  12.125 -0.5412 -0.1092 -0.7520
  154bbb     C1 4438   5.559   7.621  12.160  0.1835 -0.2045 -0.2289
  154bbb     H1 4439   5.619   7.685  12.226 -1.1317 -0.1238  0.9181
  154bbb     H2 4440   5.478   7.595  12.229  1.7471 -0.0798  1.7494
  154bbb     C2 4441   5.537   7.409  12.039 -0.1060  1.0824  0.3446
  154bbb     H3 4442   5.605   7.326  12.014  0.2175  1.1311  1.0567
  154bbb     H4 4443   5.514   7.454  11.941 -0.4938 -2.6095 -1.4503
  154bbb     C3 4444   5.693   7.435  12.241 -0.2598  0.5688 -0.0284
  154bbb     H5 4445   5.620   7.400  12.315 -0.9814 -2.3083 -1.9162
  154bbb     H6 4446   5.763   7.507  12.284 -2.6527  1.9198  1.8216
  154bbb     C4 4447   5.774   7.313  12.202 -0.0318  0.3421  0.1018
  154bbb     H7 4448   5.830   7.333  12.110 -1.1955 -1.0188 -0.9540
  154bbb     H8 4449   5.711   7.226  12.182  1.2511 -0.4614 -0.5442
  154bbb     C5 4450   5.502   7.719  12.052 -0.4353 -0.0226 -0.3622
  154bbb     H9 4451   5.457   7.805  12.103  0.2726 -0.2271  0.6414
  154bbb    H10 4452   5.428   7.664  11.992 -0.6298 -0.8495  0.6180
  154bbb     C6 4453   5.403   7.353  12.094  0.1514 -0.4081 -0.6187
  154bbb    H11 4454   5.316   7.400  12.046  1.4777  3.3249  0.3272
  154bbb    H12 4455   5.402   7.384  12.199  0.7163 -0.9246 -0.4596
  154bbb     C7 4456   5.866   7.274  12.319 -0.2427  0.6015 -0.9941
  154bbb    H13 4457   5.806   7.260  12.409 -0.5382  0.0129 -1.2778
  154bbb    H14 4458   5.951   7.342  12.335 -0.0502  0.1687 -0.1140
  154bbb     C8 4459   5.392   7.197  12.092 -0.6989 -0.5668 -0.0214
  154bbb    H15 4460   5.314   7.170  12.165 -0.8540  1.6312  0.7009
  154bbb    H16 4461   5.483   7.161  12.143 -1.2603 -0.3282  1.1848
  154bbb     C9 4462   5.619   7.780  11.958 -0.4063 -0.8923  0.4138
  154bbb    H17 4463   5.682   7.702  11.913 -2.2321 -1.4675 -1.3169
  154bbb    H18 4464   5.686   7.838  12.022  1.2919  0.2265 -2.2314
  154bbb     O1 4465   5.923   7.147  12.288 -1.3861  0.2276 -0.4776
  155bbb     N1 4466   5.021   5.225  13.031  0.0043  0.5025 -0.4522
  155bbb     C1 4467   4.967   5.088  12.996 -0.2203 -0.1064  0.2974
  155bbb     H1 4468   5.047   5.015  12.981  0.9254  1.2186 -0.2874
  155bbb     H2 4469   4.898   5.083  12.911 -1.0078 -0.2078  0.9311
  155bbb     C2 4470   5.146   5.218  13.118 -0.7296  0.1410  0.1650
  155bbb     H3 4471   5.221   5.164  13.059  0.1608  1.7165 -0.2019
  155bbb     H4 4472   5.130   5.159  13.209 -0.0061  0.2640  0.3829
  155bbb     C3 4473   5.033   5.317  12.917 -0.5364  0.5195  0.0902
  155bbb     H5 4474   5.030   5.422  12.945  1.1224  0.9370 -1.1521
  155bbb     H6 4475   4.937   5.305  12.864 -0.6298  0.5039  0.2615
  155bbb     C4 4476   5.147   5.288  12.816  0.0732 -0.3902 -0.0094
  155bbb     H7 4477   5.141   5.191  12.765  0.2245 -0.0625 -0.6675
  155bbb     H8 4478   5.243   5.307  12.865 -0.7637  1.6770  0.9745
  155bbb     C5 4479   4.882   5.031  13.114  0.4345  0.3003 -0.1414
  155bbb     H9 4480   4.791   5.092  13.118 -0.3177 -0.7822 -0.4606
  155bbb    H10 4481   4.927   5.048  13.213  0.7455  1.2224 -0.4248
  155bbb     C6 4482   5.203   5.359  13.161 -0.3049 -0.0983 -0.5769
  155bbb    H11 4483   5.213   5.435  13.082  0.2096  1.2681  0.7364
  155bbb    H12 4484   5.303   5.354  13.206 -0.3505 -0.0327 -0.4655
  155bbb     C7 4485   5.135   5.387  12.693 -0.5267 -0.0284 -0.1859
  155bbb    H13 4486   5.151   5.486  12.737 -0.7089 -0.0231 -0.1296
  155bbb    H14 4487   5.033   5.367  12.657 -1.4579 -2.1218  3.1244
  155bbb     C8 4488   5.121   5.431  13.274 -0.0355  0.3080  0.7359
  155bbb    H15 4489   5.126   5.374  13.367  0.6005 -0.5306  0.2037
  155bbb    H16 4490   5.014   5.437  13.253 -0.1268  4.1253  1.6143
  155bbb     C9 4491   4.845   4.882  13.104 -0.3851 -0.6491  0.0148
  155bbb    H17 4492   4.786   4.875  13.012  0.0298  0.6959 -0.3706
  155bbb    H18 4493   4.783   4.865  13.192 -0.3648  2.4967  0.7447
  155bbb     O1 4494   5.242   5.370  12.603  0.4600  0.3462  0.2895
  156bbb     N1 4495   4.596   6.068  12.276 -0.3055  0.1568 -0.1435
  156bbb     C1 4496   4.642   6.202  12.219  0.4141  0.0092  0.8564
  156bbb     H1 4497   4.566   6.231  12.145  1.0862 -1.2718 -0.3802
  156bbb     H2 4498   4.734   6.193  12.161 -1.8136 -0.4624 -2.9456
  156bbb     C2 4499   4.495   6.008  12.184 -0.3736 -0.0634  0.3200
  156bbb     H3 4500   4.534   5.999  12.082  0.1492 -0.0525  0.5159
  156bbb     H4 4501   4.412   6.079  12.187 -1.3934 -1.2256  2.1304
  156bbb     C3 4502   4.710   5.981  12.314 -0.6900 -1.0043 -0.3886
  156bbb     H5 4503   4.758   5.963  12.217  1.7870  1.4793  0.2355
  156bbb     H6 4504   4.692   5.880  12.352 -1.6783 -1.3691 -1.7678
  156bbb     C4 4505   4.810   6.049  12.412  0.1776 -0.2174  0.6143
  156bbb     H7 4506   4.765   6.074  12.509  1.0694  1.8248  0.5617
  156bbb     H8 4507   4.845   6.146  12.374 -0.0356  0.2886  1.6836
  156bbb     C5 4508   4.643   6.319  12.321  1.0575 -0.2054 -0.7650
  156bbb     H9 4509   4.689   6.287  12.416  0.8306  1.2759 -0.1230
  156bbb    H10 4510   4.536   6.337  12.339  0.7093 -2.6598  0.0421
  156bbb     C6 4511   4.433   5.872  12.235  0.0703  0.6681  0.6561
  156bbb    H11 4512   4.346   5.898  12.296 -1.4108  1.6951 -1.7224
  156bbb    H12 4513   4.504   5.822  12.302 -0.8692 -0.5089  0.7974
  156bbb     C7 4514   4.913   5.948  12.448  0.2998  0.7101  0.8324
  156bbb    H13 4515   4.862   5.856  12.479  0.1294  1.0254  1.5062
  156bbb    H14 4516   4.979   5.991  12.525 -0.0338  1.6061  0.6262
  156bbb     C8 4517   4.388   5.778  12.123  0.4562 -0.0526 -0.2217
  156bbb    H15 4518   4.308   5.830  12.068  1.0754  1.6214  0.4055
  156bbb    H16 4519   4.341   5.689  12.167 -1.3127  0.6619 -0.5592
  156bbb     C9 4520   4.712   6.446  12.266 -0.1737  0.4718  0.4532
  156bbb    H17 4521   4.697   6.540  12.321 -3.5237  0.4539 -0.2432
  156bbb    H18 4522   4.660   6.466  12.171 -0.1031 -1.9229 -0.1354
  156bbb     O1 4523   4.988   5.920  12.333 -0.1211 -0.3556 -0.4095
  157bbb     N1 4524   6.253   6.736  13.436 -0.1287  0.3981 -0.3803
  157bbb     C1 4525   6.230   6.851  13.342  0.0077  0.6643 -0.4020
  157bbb     H1 4526   6.305   6.851  13.263  0.8384 -0.8707  0.3524
  157bbb     H2 4527   6.246   6.943  13.400 -1.2844  1.1906 -0.8471
  157bbb     C2 4528   6.395   6.728  13.470 -0.0874 -0.3700  0.0502
  157bbb     H3 4529   6.427   6.826  13.507 -0.2783 -0.4581  0.4551
  157bbb     H4 4530   6.456   6.701  13.382 -2.4303  1.6296 -2.3560
  157bbb     C3 4531   6.187   6.605  13.403  0.0149 -0.0594  0.1464
  157bbb     H5 4532   6.077   6.608  13.403  0.0224  1.2116  1.1827
  157bbb     H6 4533   6.207   6.533  13.484  2.3297  0.3745  0.0165
  157bbb     C4 4534   6.246   6.538  13.267 -0.4009  0.5265 -0.6779
  157bbb     H7 4535   6.354   6.520  13.277 -0.0164  3.1825  0.9270
  157bbb     H8 4536   6.230   6.603  13.181 -0.2773  0.9899 -0.3555
  157bbb     C5 4537   6.084   6.861  13.282 -0.2164 -0.0716  0.6723
  157bbb     H9 4538   6.013   6.885  13.362  2.5910 -0.0575  3.3605
  157bbb    H10 4539   6.053   6.768  13.232 -0.7004 -0.2243  1.2493
  157bbb     C6 4540   6.427   6.621  13.580 -0.0226  0.2915  0.5821
  157bbb    H11 4541   6.442   6.522  13.537  0.5495 -0.4904  2.4594
  157bbb    H12 4542   6.343   6.625  13.651 -0.1783 -0.9760  0.4872
  157bbb     C7 4543   6.178   6.401  13.247  0.1912  0.6176 -0.5630
  157bbb    H13 4544   6.201   6.335  13.331  0.0244 -0.3536 -1.2708
  157bbb    H14 4545   6.223   6.350  13.161  0.8210  2.0290 -1.1047
  157bbb     C8 4546   6.565   6.654  13.656  0.0983  0.0549  0.0799
  157bbb    H15 4547   6.559   6.757  13.695 -1.5408  0.4603 -1.1554
  157bbb    H16 4548   6.650   6.650  13.587  0.5253  2.2719  0.3964
  157bbb     C9 4549   6.064   6.969  13.174  0.0516 -0.1626 -0.2673
  157bbb    H17 4550   6.157   6.978  13.117 -1.2204  0.6391 -2.3437
  157bbb    H18 4551   6.067   7.062  13.231 -1.3784  0.1594 -0.6464
  157bbb     O1 4552   6.035   6.415  13.225  0.4171 -0.1366  0.3366
  158bbb     N1 4553   5.440   5.977  14.005 -0.0112  0.2663 -0.4977
  158bbb     C1 4554   5.567   5.900  13.973 -0.3420 -0.3187 -0.6700
  158bbb     H1 4555   5.586   5.903  13.865  1.9529 -3.0801 -0.4337
  158bbb     H2 4556   5.533   5.798  13.991 -0.5694 -0.0953  0.2263
  158bbb     C2 4557   5.405   5.987  14.145 -0.0648 -0.1578 -0.1719
  158bbb     H3 4558   5.306   6.032  14.159  0.0885 -0.4694  2.3335
  158bbb     H4 4559   5.478   6.054  14.192  1.8404 -2.0544 -0.2644
  158bbb     C3 4560   5.436   6.110  13.943 -0.6970 -0.4234  0.6416
  158bbb     H5 4561   5.522   6.167  13.979 -1.2400  0.2897  0.8232
  158bbb     H6 4562   5.343   6.158  13.976 -0.7563  2.5683 -3.1579
  158bbb     C4 4563   5.434   6.133  13.783 -0.0175 -0.0844 -0.9198
  158bbb     H7 4564   5.337   6.088  13.758 -0.5131  1.1743 -1.3435
  158bbb     H8 4565   5.513   6.079  13.731  0.3870  0.3440 -0.7531
  158bbb     C5 4566   5.698   5.944  14.056  0.4165  0.7362  0.6942
  158bbb     H9 4567   5.674   5.954  14.163 -0.2116  0.6826  0.5622
  158bbb    H10 4568   5.720   6.047  14.027  2.5232  0.7138  2.0315
  158bbb     C6 4569   5.405   5.858  14.220  0.2751  0.6502 -0.3017
  158bbb    H11 4570   5.367   5.881  14.321  1.2956  0.2526  0.1807
  158bbb    H12 4571   5.508   5.828  14.240  0.1894  0.8895  0.5709
  158bbb     C7 4572   5.438   6.280  13.738  0.2070  0.5950 -0.6544
  158bbb    H13 4573   5.350   6.332  13.778 -1.0983 -2.6006  0.9778
  158bbb    H14 4574   5.424   6.276  13.629 -0.1075  1.8710 -0.6845
  158bbb     C8 4575   5.310   5.752  14.161  0.5519 -0.3670  0.0523
  158bbb    H15 4576   5.327   5.758  14.053  1.1967 -0.2564  0.1565
  158bbb    H16 4577   5.210   5.794  14.177  0.5893 -0.9980  2.1844
  158bbb     C9 4578   5.823   5.866  14.030  0.2884  0.8457  0.7506
  158bbb    H17 4579   5.846   5.876  13.923  0.3456 -1.9451  0.4324
  158bbb    H18 4580   5.803   5.758  14.041  2.1094  0.4305  0.3153
  158bbb     O1 4581   5.570   6.337  13.774  1.2719  0.4532  0.4741
  159bbb     N1 4582   8.968   3.784  13.071 -0.4075  0.3097  0.4351
  159bbb     C1 4583   8.899   3.889  12.985 -0.0770  0.3561  0.4298
  159bbb     H1 4584   8.835   3.951  13.050  1.1502  2.0787  0.0738
  159bbb     H2 4585   8.839   3.849  12.903  0.4069 -1.2774  0.8451
  159bbb     C2 4586   8.883   3.733  13.181  0.3507 -0.0240  0.3996
  159bbb     H3 4587   8.802   3.673  13.138  2.1148 -0.5769 -2.4248
  159bbb     H4 4588   8.827   3.811  13.235 -0.7523 -0.1938 -0.4498
  159bbb     C3 4589   9.039   3.678  12.986  0.4920 -0.2011  0.1064
  159bbb     H5 4590   9.079   3.609  13.061 -2.5045 -1.1850  0.9420
  159bbb     H6 4591   9.119   3.720  12.924  0.0223  1.1139  0.3446
  159bbb     C4 4592   8.947   3.596  12.903  0.6155  0.2789  0.3306
  159bbb     H7 4593   8.912   3.650  12.814 -0.5536 -0.0590  0.5718
  159bbb     H8 4594   8.855   3.577  12.959  1.4000 -0.4462  1.4092
  159bbb     C5 4595   9.007   3.987  12.930  0.0295  0.0131  0.1944
  159bbb     H9 4596   8.951   4.057  12.867  0.3259 -0.9904 -1.2304
  159bbb    H10 4597   9.082   3.929  12.876  1.5470  0.6436  1.5563
  159bbb     C6 4598   8.957   3.653  13.287  0.4603 -0.4873 -0.2710
  159bbb    H11 4599   9.051   3.701  13.315 -0.2646  0.0104  1.4670
  159bbb    H12 4600   8.988   3.554  13.251 -0.9366 -0.5337 -1.4477
  159bbb     C7 4601   9.003   3.461  12.853 -0.6554  0.8149 -0.6352
  159bbb    H13 4602   8.930   3.428  12.778 -0.5209 -1.2222  0.0705
  159bbb    H14 4603   9.014   3.393  12.938 -0.7364  0.4800 -0.8913
  159bbb     C8 4604   8.886   3.623  13.423 -0.1696 -0.4066  0.9192
  159bbb    H15 4605   8.894   3.714  13.483  1.8118 -0.8520  1.4108
  159bbb    H16 4606   8.942   3.540  13.469  1.1462  0.0977  0.2951
  159bbb     C9 4607   9.083   4.065  13.035  0.1066  0.5722  0.4022
  159bbb    H17 4608   9.154   3.991  13.075  0.6913 -0.2735 -2.0526
  159bbb    H18 4609   9.017   4.098  13.116 -2.2098  0.9648 -1.5487
  159bbb     O1 4610   9.130   3.477  12.788  0.4751 -0.1149 -0.1688
  160bbb     N1 4611   8.573   2.704  12.036 -0.4352  0.2173 -0.2359
  160bbb     C1 4612   8.454   2.726  12.120  0.1948  0.4626 -0.2599
  160bbb     H1 4613   8.446   2.833  12.141 -0.7926  0.6304 -1.3848
  160bbb     H2 4614   8.473   2.678  12.217 -0.0692 -1.3227 -1.0439
  160bbb     C2 4615   8.561   2.763  11.900  0.6153 -0.2641 -0.2473
  160bbb     H3 4616   8.550   2.872  11.908  1.8494 -0.1010 -0.5866
  160bbb     H4 4617   8.474   2.731  11.841  0.6498 -1.7478  0.4649
  160bbb     C3 4618   8.692   2.732  12.122 -0.5792 -0.1720  0.5661
  160bbb     H5 4619   8.776   2.685  12.070 -1.0665  0.7632 -1.1327
  160bbb     H6 4620   8.680   2.686  12.221 -1.1324 -0.6505  0.2835
  160bbb     C4 4621   8.724   2.877  12.145 -0.4854 -0.0371 -0.4440
  160bbb     H7 4622   8.675   2.925  12.231  0.6102  3.8385 -1.7760
  160bbb     H8 4623   8.706   2.937  12.055 -0.0885  0.9806  0.1421
  160bbb     C5 4624   8.319   2.689  12.057 -0.4277  0.0855 -0.2714
  160bbb     H9 4625   8.299   2.761  11.977 -0.0739  1.3583  0.7539
  160bbb    H10 4626   8.236   2.686  12.129 -0.4032 -0.0173 -0.2475
  160bbb     C6 4627   8.680   2.737  11.801  0.3034  0.6970  0.7757
  160bbb    H11 4628   8.770   2.785  11.842  2.2405 -1.9916 -0.1050
  160bbb    H12 4629   8.660   2.785  11.704  2.0549 -0.5446 -0.2490
  160bbb     C7 4630   8.873   2.896  12.191 -0.3834 -0.1863 -0.0661
  160bbb    H13 4631   8.937   2.872  12.105 -0.5936 -0.4715 -0.1461
  160bbb    H14 4632   8.895   2.824  12.271  0.1110  1.0064  0.9020
  160bbb     C8 4633   8.721   2.592  11.773  0.7268  0.0336  0.1764
  160bbb    H15 4634   8.632   2.545  11.729  0.8994 -0.0833 -0.0493
  160bbb    H16 4635   8.731   2.544  11.871  0.0121  1.8615  1.1947
  160bbb     C9 4636   8.322   2.544  11.996 -0.0972  0.2451  0.8590
  160bbb    H17 4637   8.351   2.477  12.078 -1.5613 -1.0907  0.3521
  160bbb    H18 4638   8.402   2.541  11.922  1.0718 -0.8897  2.1214
  160bbb     O1 4639   8.899   3.033  12.239  0.1733  0.0397  1.0875
  161bbb     N1 4640   8.148   4.073  12.123  0.2393 -1.0114 -0.2164
  161bbb     C1 4641   8.302   4.047  12.126 -0.4952  0.3626  0.5914
  161bbb     H1 4642   8.347   4.125  12.189 -0.5578 -1.2171  2.6557
  161bbb     H2 4643   8.353   4.056  12.029  1.2958  2.6331  1.6270
  161bbb     C2 4644   8.120   4.218  12.125 -0.7531 -0.3002  0.8380
  161bbb     H3 4645   8.014   4.240  12.107 -0.2811  0.9671 -0.5681
  161bbb     H4 4646   8.170   4.268  12.041  1.6796 -1.5113  1.4823
  161bbb     C3 4647   8.080   3.987  12.021  0.7025 -0.1259 -0.1808
  161bbb     H5 4648   8.086   3.884  12.058 -0.9429 -0.3439 -0.4458
  161bbb     H6 4649   8.145   3.997  11.933 -0.3475  1.7783 -0.7948
  161bbb     C4 4650   7.928   4.015  11.991 -0.2585 -0.4317 -0.2905
  161bbb     H7 4651   7.924   4.120  11.959  1.9987  0.2262  1.3390
  161bbb     H8 4652   7.859   3.998  12.074  0.4131 -0.8457  0.1875
  161bbb     C5 4653   8.338   3.908  12.182 -0.5488 -0.2604  0.0244
  161bbb     H9 4654   8.295   3.830  12.117  1.6330 -3.1174  1.7876
  161bbb    H10 4655   8.287   3.902  12.279  1.8690 -0.6631  1.3352
  161bbb     C6 4656   8.153   4.296  12.253 -0.1058 -0.0401  0.0243
  161bbb    H11 4657   8.260   4.282  12.272  0.0589  0.9102 -0.1702
  161bbb    H12 4658   8.099   4.242  12.332  0.2003 -1.0293 -0.4285
  161bbb     C7 4659   7.888   3.914  11.883  0.3651  0.2306 -0.0950
  161bbb    H13 4660   7.951   3.927  11.794  2.1272 -1.3828  0.8537
  161bbb    H14 4661   7.784   3.926  11.848  0.2084  1.8921  0.8628
  161bbb     C8 4662   8.109   4.448  12.246 -0.2612 -0.5695 -0.2822
  161bbb    H15 4663   8.160   4.489  12.158  2.5712 -2.5840  0.2727
  161bbb    H16 4664   8.002   4.468  12.233 -0.0005  0.9221 -0.3370
  161bbb     C9 4665   8.487   3.877  12.197  0.5140  0.3382 -0.1328
  161bbb    H17 4666   8.544   3.934  12.271  2.5744 -0.1949 -1.2291
  161bbb    H18 4667   8.543   3.899  12.105  2.1325  0.4654  0.8414
  161bbb     O1 4668   7.880   3.783  11.944  0.3750  0.1449  0.1973
  162bbb     N1 4669   7.517   2.973  11.627  0.2922  0.4406 -0.1313
  162bbb     C1 4670   7.428   2.856  11.613  0.1408  0.3934  0.4590
  162bbb     H1 4671   7.322   2.887  11.613  0.3313  1.0780 -0.3999
  162bbb     H2 4672   7.439   2.786  11.697  0.1853 -2.1986 -1.5511
  162bbb     C2 4673   7.463   3.090  11.557 -0.5335 -0.2769  0.0361
  162bbb     H3 4674   7.357   3.070  11.535 -1.6980 -0.0739  4.5354
  162bbb     H4 4675   7.510   3.096  11.458  1.8469 -1.9067  0.9621
  162bbb     C3 4676   7.663   2.933  11.605  0.6979 -0.2752 -0.4568
  162bbb     H5 4677   7.677   2.910  11.499 -2.4094 -0.6747 -0.8583
  162bbb     H6 4678   7.684   2.843  11.664 -0.6051 -0.9529 -0.9960
  162bbb     C4 4679   7.767   3.036  11.648 -0.2998  0.3500 -0.1160
  162bbb     H7 4680   7.737   3.080  11.744  0.4874  0.1602  0.2313
  162bbb     H8 4681   7.786   3.110  11.569  0.3718 -0.3225 -0.6005
  162bbb     C5 4682   7.447   2.769  11.481  0.8379 -0.3133 -0.0120
  162bbb     H9 4683   7.359   2.703  11.475  0.8143 -0.3092  0.2750
  162bbb    H10 4684   7.535   2.704  11.494  2.7725  1.8993 -1.2915
  162bbb     C6 4685   7.495   3.226  11.631  0.4681  0.1174 -0.1943
  162bbb    H11 4686   7.598   3.257  11.608  0.5822 -1.7257 -2.4312
  162bbb    H12 4687   7.477   3.211  11.738  0.4335  0.5624 -0.1340
  162bbb     C7 4688   7.904   2.966  11.668  0.3100 -0.7460 -0.2886
  162bbb    H13 4689   7.918   2.902  11.580 -0.9581 -0.1299 -0.9803
  162bbb    H14 4690   7.898   2.892  11.749 -0.6211  0.0026  0.3445
  162bbb     C8 4691   7.394   3.338  11.590  0.1619 -0.1475  0.4570
  162bbb    H15 4692   7.328   3.354  11.677 -0.5845 -3.9261  0.7815
  162bbb    H16 4693   7.325   3.301  11.513 -0.2691  0.1619  0.6879
  162bbb     C9 4694   7.456   2.849  11.346 -0.6498 -0.0660 -0.1146
  162bbb    H17 4695   7.555   2.895  11.353 -2.1001  3.1576  0.8352
  162bbb    H18 4696   7.380   2.928  11.342 -0.6163 -0.0209  0.1263
  162bbb     O1 4697   8.007   3.062  11.683  0.1059 -0.1971  0.0298
  163bbb     N1 4698   9.298   5.829  11.448 -0.1661 -0.0828  0.0943
  163bbb     C1 4699   9.409   5.769  11.365 -0.1381  1.0305 -0.5994
  163bbb     H1 4700   9.417   5.662  11.385  0.7896  0.7242 -2.3846
  163bbb     H2 4701   9.502   5.805  11.412  0.2612 -0.3010 -0.3357
  163bbb     C2 4702   9.290   5.975  11.443 -0.2800 -0.1088  0.6332
  163bbb     H3 4703   9.200   6.007  11.498  0.0810  1.7612  0.1942
  163bbb     H4 4704   9.274   6.003  11.338 -1.1246  1.8632  1.2506
  163bbb     C3 4705   9.167   5.760  11.445 -0.4209 -0.1596  0.4118
  163bbb     H5 4706   9.183   5.653  11.457 -2.0426 -0.5178 -0.2762
  163bbb     H6 4707   9.127   5.758  11.342  1.4601 -1.0664 -0.3433
  163bbb     C4 4708   9.072   5.786  11.562 -0.2353 -0.1444  1.0600
  163bbb     H7 4709   9.016   5.880  11.557 -1.4697 -0.7545  2.3596
  163bbb     H8 4710   9.128   5.783  11.656  0.6421  0.0111  0.5473
  163bbb     C5 4711   9.406   5.795  11.211  0.0438 -0.3700 -0.3051
  163bbb     H9 4712   9.302   5.818  11.183  0.0345 -0.1986 -0.1325
  163bbb    H10 4713   9.432   5.708  11.149  0.5942  1.1298 -2.3060
  163bbb     C6 4714   9.410   6.049  11.499  0.9684  0.5115 -0.0616
  163bbb    H11 4715   9.494   6.033  11.431  0.2558  3.4657 -1.7906
  163bbb    H12 4716   9.434   6.009  11.598 -1.2587 -0.0504  0.3054
  163bbb     C7 4717   8.965   5.672  11.572  0.0221 -0.6078  0.7567
  163bbb    H13 4718   8.906   5.666  11.479  0.7553  0.6162  0.1857
  163bbb    H14 4719   8.898   5.691  11.657 -0.2717 -0.6668  0.5406
  163bbb     C8 4720   9.367   6.201  11.500  0.6894  0.7565 -0.1992
  163bbb    H15 4721   9.279   6.205  11.566  3.3983 -0.2596  3.8140
  163bbb    H16 4722   9.339   6.231  11.399 -0.3643  0.5604  0.0169
  163bbb     C9 4723   9.494   5.917  11.168  0.5969  0.0765 -0.4383
  163bbb    H17 4724   9.462   6.009  11.219 -1.3013  0.2528 -1.8444
  163bbb    H18 4725   9.472   5.927  11.061  1.5188 -1.4926 -0.8087
  163bbb     O1 4726   9.037   5.552  11.597  0.5557  0.0753 -0.1736
  164bbb     N1 4727   9.438   4.955  12.424 -0.0779  0.5172 -0.4872
  164bbb     C1 4728   9.511   5.042  12.523 -0.0559 -0.4476  0.0944
  164bbb     H1 4729   9.461   5.140  12.523  0.8526  0.0948 -2.4276
  164bbb     H2 4730   9.617   5.049  12.496 -0.4373 -2.0004 -1.9744
  164bbb     C2 4731   9.310   4.897  12.474  0.9217  0.1415  0.0966
  164bbb     H3 4732   9.242   4.969  12.520  1.4098  0.2132  0.7139
  164bbb     H4 4733   9.340   4.836  12.560  2.5651  1.8837  0.8177
  164bbb     C3 4734   9.440   5.007  12.287  0.8650  0.5407 -0.4030
  164bbb     H5 4735   9.357   5.078  12.294  0.6362  0.4221 -1.7686
  164bbb     H6 4736   9.416   4.925  12.219  2.3322 -0.6574  0.4665
  164bbb     C4 4737   9.583   5.050  12.248 -0.5898  0.0140  0.5387
  164bbb     H7 4738   9.650   4.965  12.264 -0.8056 -0.0433  1.1832
  164bbb     H8 4739   9.620   5.137  12.303  0.9172 -1.3364  1.7627
  164bbb     C5 4740   9.496   4.994  12.671  0.2696  0.0492 -0.0753
  164bbb     H9 4741   9.528   4.890  12.683  1.1486  0.2723 -0.4570
  164bbb    H10 4742   9.387   5.003  12.684 -0.3183 -0.1077 -3.8509
  164bbb     C6 4743   9.230   4.809  12.375 -0.9517 -0.0194  0.0619
  164bbb    H11 4744   9.305   4.734  12.344 -0.2639  1.8561 -3.2754
  164bbb    H12 4745   9.217   4.871  12.286 -0.5161  0.2230  0.1629
  164bbb     C7 4746   9.589   5.098  12.099 -0.3391  0.1335  0.2237
  164bbb    H13 4747   9.546   5.026  12.028 -2.1586  0.4626  0.9333
  164bbb    H14 4748   9.697   5.115  12.086 -0.3109 -0.6486 -0.6948
  164bbb     C8 4749   9.096   4.756  12.435 -0.4255 -0.3502 -0.5241
  164bbb    H15 4750   9.038   4.717  12.351 -0.4321 -1.6158  0.0417
  164bbb    H16 4751   9.038   4.843  12.469  1.1484  0.7123 -0.4736
  164bbb     C9 4752   9.577   5.080  12.777  0.0770 -0.6439 -1.1308
  164bbb    H17 4753   9.536   5.182  12.781  1.3972 -0.0842 -1.4293
  164bbb    H18 4754   9.679   5.098  12.741 -0.5622  0.2464 -2.6039
  164bbb     O1 4755   9.536   5.231  12.091 -0.3272  0.0109  0.3105
  165bbb     N1 4756   8.279   4.250  12.780 -0.1084 -0.0001 -0.7560
  165bbb     C1 4757   8.287   4.278  12.927 -1.1475  0.2756 -0.0084
  165bbb     H1 4758   8.389   4.279  12.968 -0.7426 -2.7961 -0.7295
  165bbb     H2 4759   8.255   4.191  12.985  4.3122 -0.7156  2.1525
  165bbb     C2 4760   8.134   4.209  12.749  0.6022 -0.4277  0.5760
  165bbb     H3 4761   8.063   4.273  12.802  0.0380  0.8129 -1.5284
  165bbb     H4 4762   8.124   4.106  12.786 -1.1144 -0.8094 -0.7757
  165bbb     C3 4763   8.384   4.148  12.742  0.4881  0.6568  0.2047
  165bbb     H5 4764   8.369   4.046  12.780  0.1818  0.6038 -0.0556
  165bbb     H6 4765   8.483   4.180  12.777  1.5279 -1.2773 -0.7817
  165bbb     C4 4766   8.406   4.122  12.585  0.2949  0.1720 -0.6419
  165bbb     H7 4767   8.428   4.214  12.529  0.1945  1.7468  1.7977
  165bbb     H8 4768   8.319   4.068  12.546  1.4687 -0.9616 -1.8146
  165bbb     C5 4769   8.226   4.404  12.970  0.0523 -0.1206  0.2835
  165bbb     H9 4770   8.230   4.416  13.079  0.2867  1.7495  0.1055
  165bbb    H10 4771   8.123   4.414  12.934  0.9195  2.7102 -1.8204
  165bbb     C6 4772   8.105   4.213  12.596  0.2584  0.1923 -0.4670
  165bbb    H11 4773   8.103   4.109  12.559  1.6123 -0.1077  0.2364
  165bbb    H12 4774   8.191   4.261  12.546  0.4924 -1.4249 -1.7172
  165bbb     C7 4775   8.518   4.029  12.560 -0.4303  0.5079 -1.1502
  165bbb    H13 4776   8.523   3.995  12.456 -0.5760 -1.7333 -0.4762
  165bbb    H14 4777   8.505   3.933  12.611  2.0253 -1.8829 -4.5956
  165bbb     C8 4778   7.969   4.279  12.565  0.5855 -0.6499 -0.4834
  165bbb    H15 4779   7.942   4.261  12.460  0.6614  1.3498 -0.9014
  165bbb    H16 4780   7.986   4.388  12.567 -0.0343 -0.5352 -1.0774
  165bbb     C9 4781   8.301   4.527  12.908 -0.4035  0.2490 -0.3164
  165bbb    H17 4782   8.300   4.530  12.799 -0.4201  1.0667 -0.2978
  165bbb    H18 4783   8.404   4.515  12.946 -1.4907 -1.6330  2.4154
  165bbb     O1 4784   8.640   4.100  12.601  0.4267  0.4197 -0.6082
  166bbb     N1 4785   9.547   3.217  12.294 -0.7777 -0.6910  0.2974
  166bbb     C1 4786   9.446   3.120  12.258 -0.0345  0.1796 -0.1113
  166bbb     H1 4787   9.502   3.038  12.211  0.5263  1.4708 -1.8113
  166bbb     H2 4788   9.372   3.159  12.188 -0.8831 -1.4977 -0.2128
  166bbb     C2 4789   9.627   3.266  12.184 -0.4103  0.1893 -0.3674
  166bbb     H3 4790   9.712   3.325  12.221 -1.0411 -0.8482  3.0395
  166bbb     H4 4791   9.563   3.329  12.120 -2.3982 -1.3786 -0.0136
  166bbb     C3 4792   9.494   3.316  12.388 -0.0030  0.3484 -0.7443
  166bbb     H5 4793   9.468   3.264  12.481 -0.2950  1.0874 -0.4014
  166bbb     H6 4794   9.397   3.347  12.347 -0.7241 -0.6862  0.1383
  166bbb     C4 4795   9.584   3.440  12.422  0.1224  0.7997  0.3198
  166bbb     H7 4796   9.583   3.499  12.329 -2.4954 -0.8715 -0.8500
  166bbb     H8 4797   9.686   3.415  12.454  0.2424  1.3075  0.3426
  166bbb     C5 4798   9.371   3.049  12.375 -0.1427  0.2349 -0.0597
  166bbb     H9 4799   9.310   3.131  12.416  0.4730  1.0684 -0.7891
  166bbb    H10 4800   9.445   3.020  12.450  2.9525  1.3002 -2.5196
  166bbb     C6 4801   9.699   3.171  12.090 -0.5574  0.2965  0.0587
  166bbb    H11 4802   9.629   3.111  12.032 -0.3697  1.7029 -1.7091
  166bbb    H12 4803   9.770   3.115  12.152  1.0408  1.8992 -0.2418
  166bbb     C7 4804   9.514   3.520  12.535  0.3754  0.3353  0.4716
  166bbb    H13 4805   9.597   3.575  12.582  1.2114  0.8342 -1.5220
  166bbb    H14 4806   9.466   3.449  12.605 -1.2771  3.1829  2.4577
  166bbb     C8 4807   9.794   3.251  11.996  0.6598  0.0139 -0.1294
  166bbb    H15 4808   9.854   3.177  11.941  1.7213 -0.1205  1.1554
  166bbb    H16 4809   9.875   3.290  12.058  0.1794 -1.2279  1.3177
  166bbb     C9 4810   9.267   2.942  12.337 -0.4355 -0.8454  0.4175
  166bbb    H17 4811   9.298   2.889  12.246  0.0041 -0.2339  0.2026
  166bbb    H18 4812   9.177   2.984  12.290 -0.7468 -1.1465  0.7489
  166bbb     O1 4813   9.421   3.619  12.473 -0.1165  0.2728  0.4812
  167bbb     N1 4814   7.083   5.856   9.173  0.2446  0.6856 -0.6296
  167bbb     C1 4815   7.065   5.985   9.250  0.7667 -0.3896 -0.0636
  167bbb     H1 4816   7.100   5.969   9.352  0.8107 -0.2542 -0.0579
  167bbb     H2 4817   6.958   6.009   9.261  0.3583 -2.2703  0.5071
  167bbb     C2 4818   6.997   5.746   9.215  0.2728  0.3223  0.0553
  167bbb     H3 4819   7.034   5.714   9.313  1.2051  0.8355 -0.1188
  167bbb     H4 4820   7.011   5.668   9.139 -2.1039 -0.1449  0.0066
  167bbb     C3 4821   7.227   5.823   9.143 -0.7239  0.3785  0.2132
  167bbb     H5 4822   7.282   5.810   9.237 -1.3651  1.5395  0.7739
  167bbb     H6 4823   7.275   5.907   9.091 -0.4908 -1.1637 -2.1823
  167bbb     C4 4824   7.265   5.699   9.046 -0.0349  0.1413 -0.3266
  167bbb     H7 4825   7.216   5.702   8.948 -2.4056  0.4472  0.7842
  167bbb     H8 4826   7.224   5.607   9.090  0.8427 -0.6649 -1.1634
  167bbb     C5 4827   7.149   6.114   9.211 -0.7037  0.0077  0.2988
  167bbb     H9 4828   7.129   6.148   9.109  0.6851 -1.2178 -0.4278
  167bbb    H10 4829   7.256   6.089   9.206 -0.8312 -1.0863  2.0533
  167bbb     C6 4830   6.844   5.778   9.226  0.2556 -0.4196 -0.2452
  167bbb    H11 4831   6.831   5.848   9.309 -0.2296 -1.6792  0.7573
  167bbb    H12 4832   6.793   5.688   9.261 -2.1762  0.1550 -1.9930
  167bbb     C7 4833   7.422   5.686   9.030 -0.9865  0.6846  0.4755
  167bbb    H13 4834   7.470   5.780   9.004 -1.0650  0.5058 -0.3250
  167bbb    H14 4835   7.435   5.620   8.943  0.9938  1.6997 -0.0478
  167bbb     C8 4836   6.771   5.833   9.100 -0.5108  0.9010  0.7654
  167bbb    H15 4837   6.803   5.771   9.015 -1.0139  0.6697  0.7444
  167bbb    H16 4838   6.813   5.931   9.076 -0.0393  0.1295 -1.9070
  167bbb     C9 4839   7.122   6.215   9.322 -0.2259  1.5274  0.2465
  167bbb    H17 4840   7.107   6.159   9.415 -2.5278 -1.5640 -1.7805
  167bbb    H18 4841   7.030   6.271   9.303 -0.9356 -0.0827 -1.3837
  167bbb     O1 4842   7.483   5.625   9.146 -0.4139  0.0660  0.0895
  168bbb     N1 4843   7.007   4.451   9.212  0.0156 -0.4219 -0.3977
  168bbb     C1 4844   6.926   4.356   9.130  0.2083 -0.5112  0.2671
  168bbb     H1 4845   6.891   4.279   9.199 -0.6188 -0.4281 -0.0490
  168bbb     H2 4846   6.984   4.296   9.059  0.2273  0.0118 -0.1720
  168bbb     C2 4847   7.097   4.386   9.315  0.5002 -0.0304 -0.3812
  168bbb     H3 4848   7.137   4.469   9.375 -0.1393  1.6778 -2.2204
  168bbb     H4 4849   7.183   4.334   9.272  1.1179  1.5455 -1.1352
  168bbb     C3 4850   7.074   4.555   9.145  0.3823 -0.2670  0.2178
  168bbb     H5 4851   7.001   4.608   9.083 -1.0572 -1.0797  1.1785
  168bbb     H6 4852   7.138   4.517   9.063 -0.7381 -1.0765 -0.3001
  168bbb     C4 4853   7.138   4.666   9.231  0.2213  0.5747  0.2062
  168bbb     H7 4854   7.231   4.620   9.267 -0.0358  0.0081  0.1626
  168bbb     H8 4855   7.073   4.687   9.317 -0.7408 -0.5481 -0.2180
  168bbb     C5 4856   6.805   4.419   9.062  0.0036 -0.4519  0.1657
  168bbb     H9 4857   6.742   4.342   9.015 -3.1430  1.8671  0.2783
  168bbb    H10 4858   6.833   4.482   8.977 -1.3631 -0.0227  0.0109
  168bbb     C6 4859   7.039   4.275   9.408  0.4331 -0.0482  0.2948
  168bbb    H11 4860   7.107   4.235   9.484 -1.2855  0.8291  2.4011
  168bbb    H12 4861   7.018   4.190   9.340  1.6158  1.4909 -2.1391
  168bbb     C7 4862   7.166   4.784   9.139 -0.3900  0.0876 -0.0272
  168bbb    H13 4863   7.066   4.819   9.111 -0.6917 -1.3453 -0.8344
  168bbb    H14 4864   7.215   4.761   9.044  0.6769 -0.0435  0.5354
  168bbb     C8 4865   6.917   4.327   9.482  0.5771  0.0832 -0.5485
  168bbb    H15 4866   6.856   4.371   9.402  1.9505  1.2818 -0.9890
  168bbb    H16 4867   6.944   4.411   9.548 -0.9834 -0.8619  1.3860
  168bbb     C9 4868   6.709   4.494   9.165  0.6474 -0.6467  1.0194
  168bbb    H17 4869   6.776   4.547   9.234 -0.5638  0.4257  1.4015
  168bbb    H18 4870   6.648   4.428   9.227 -0.1854  0.0897  0.9932
  168bbb     O1 4871   7.246   4.891   9.200 -0.5742  0.0582 -0.2676
  169bbb     N1 4872   8.793   3.652  10.182  0.4584 -0.3453  0.1401
  169bbb     C1 4873   8.775   3.504  10.203  0.0171 -0.1356  0.2102
  169bbb     H1 4874   8.672   3.473  10.182 -1.2481  3.7488 -0.1648
  169bbb     H2 4875   8.801   3.473  10.305 -0.3474  0.8592  0.6186
  169bbb     C2 4876   8.770   3.698  10.045 -0.0181  0.2457 -0.4856
  169bbb     H3 4877   8.664   3.691  10.018  0.4276 -0.8618 -2.1380
  169bbb     H4 4878   8.824   3.632   9.975 -0.6548 -1.2477  0.3754
  169bbb     C3 4879   8.729   3.725  10.290  0.6346  0.2409 -0.3869
  169bbb     H5 4880   8.786   3.819  10.291  2.8205 -1.0195  0.7215
  169bbb     H6 4881   8.744   3.669  10.383  1.5929  0.5346 -0.3516
  169bbb     C4 4882   8.583   3.751  10.279  0.0756 -0.4465  0.2830
  169bbb     H7 4883   8.529   3.655  10.278  0.2173 -0.5935 -2.6466
  169bbb     H8 4884   8.550   3.804  10.189 -1.1905 -0.5069  0.6908
  169bbb     C5 4885   8.856   3.410  10.111 -0.6707 -0.6820 -0.1532
  169bbb     H9 4886   8.962   3.425  10.134 -0.9951  0.7170  0.5584
  169bbb    H10 4887   8.836   3.435  10.006 -2.3215  0.6603  0.4419
  169bbb     C6 4888   8.821   3.840  10.017  0.0429 -0.4696  0.3927
  169bbb    H11 4889   8.917   3.862  10.065  0.3997 -0.6876 -0.2131
  169bbb    H12 4890   8.752   3.916  10.056  0.4110  0.7694 -1.2648
  169bbb     C7 4891   8.531   3.832  10.403  0.1902 -0.5881 -0.2416
  169bbb    H13 4892   8.585   3.926  10.412 -1.2571  0.2293  0.1676
  169bbb    H14 4893   8.549   3.772  10.493  2.1593  0.3425  0.0340
  169bbb     C8 4894   8.829   3.869   9.860  0.2673  0.5119  0.5366
  169bbb    H15 4895   8.726   3.864   9.823  0.1588 -0.5963  0.9653
  169bbb    H16 4896   8.878   3.778   9.824 -0.1847 -0.3388  1.9783
  169bbb     C9 4897   8.826   3.262  10.150  0.1494  0.1721 -0.2632
  169bbb    H17 4898   8.822   3.255  10.259  0.4657 -1.8934 -0.3389
  169bbb    H18 4899   8.908   3.194  10.121  1.1034  0.5955  1.3482
  169bbb     O1 4900   8.396   3.857  10.371 -0.0683 -0.2583  0.0520
  170bbb     N1 4901   8.365   3.514  10.591  0.7308  0.2320 -0.6116
  170bbb     C1 4902   8.500   3.489  10.533 -0.4470 -0.5820 -0.2941
  170bbb     H1 4903   8.563   3.572  10.570 -0.3857 -0.0220 -1.6018
  170bbb     H2 4904   8.501   3.492  10.424  0.0150  0.4310 -0.2794
  170bbb     C2 4905   8.351   3.614  10.698  0.6360 -0.0953 -0.2793
  170bbb     H3 4906   8.288   3.699  10.668 -0.0271 -0.1458  0.9126
  170bbb     H4 4907   8.447   3.662  10.724 -0.4957  1.3672  1.4109
  170bbb     C3 4908   8.253   3.516  10.491  0.3547  0.2315 -0.3189
  170bbb     H5 4909   8.263   3.426  10.429  0.1841  0.1133 -0.1738
  170bbb     H6 4910   8.265   3.606  10.428  0.0553  0.4141 -0.1169
  170bbb     C4 4911   8.111   3.525  10.540 -1.0972 -0.4767 -0.4101
  170bbb     H7 4912   8.102   3.623  10.588  1.6723 -0.1204 -0.4965
  170bbb     H8 4913   8.092   3.441  10.608  0.6558 -2.0143 -1.7115
  170bbb     C5 4914   8.560   3.361  10.588 -0.2793  0.4770 -0.5075
  170bbb     H9 4915   8.489   3.278  10.602  1.7087 -1.3846 -0.9598
  170bbb    H10 4916   8.583   3.386  10.692 -0.5336 -1.5783  0.0773
  170bbb     C6 4917   8.282   3.544  10.821  0.6573 -0.0754  0.6977
  170bbb    H11 4918   8.341   3.455  10.844  0.2234 -0.3022  0.9584
  170bbb    H12 4919   8.185   3.505  10.787  0.6805  0.5429 -0.1023
  170bbb     C7 4920   8.010   3.500  10.430 -0.2908 -0.1286  0.0111
  170bbb    H13 4921   7.908   3.480  10.464  0.3676 -0.5427  1.8495
  170bbb    H14 4922   8.035   3.405  10.381 -2.5439 -1.2997  0.9933
  170bbb     C8 4923   8.281   3.624  10.953 -0.1714 -0.6435 -0.5033
  170bbb    H15 4924   8.380   3.645  10.994 -0.1592  1.6953 -1.5744
  170bbb    H16 4925   8.207   3.574  11.018  0.9499 -2.3818 -0.4890
  170bbb     C9 4926   8.693   3.314  10.521 -0.4012 -0.0499  0.1912
  170bbb    H17 4927   8.708   3.400  10.455 -1.2602  0.7636  1.0142
  170bbb    H18 4928   8.673   3.231  10.452 -1.3280 -1.3061  1.8830
  170bbb     O1 4929   8.019   3.612  10.335 -0.3856  0.6443 -1.3583
  171bbb     N1 4930   8.070   5.792  10.662 -0.3460 -0.7150 -0.4038
  171bbb     C1 4931   7.918   5.791  10.646 -0.5248  0.2300  0.1483
  171bbb     H1 4932   7.890   5.782  10.541 -0.1360  0.2764  0.0372
  171bbb     H2 4933   7.884   5.888  10.684 -1.4485  1.0284 -2.4745
  171bbb     C2 4934   8.128   5.913  10.590 -0.3488 -0.0044 -0.5914
  171bbb     H3 4935   8.058   5.995  10.609 -1.3104 -0.9600  0.1203
  171bbb     H4 4936   8.141   5.894  10.482 -1.6387 -0.0131 -0.7553
  171bbb     C3 4937   8.135   5.666  10.647  0.6667  0.0132  0.2529
  171bbb     H5 4938   8.100   5.598  10.726 -0.6592 -1.2159 -1.3302
  171bbb     H6 4939   8.239   5.677  10.680  0.0381  0.1728  2.3629
  171bbb     C4 4940   8.129   5.608  10.510  0.3390  0.1622  0.0132
  171bbb     H7 4941   8.176   5.681  10.442  1.8697 -1.1267 -0.3771
  171bbb     H8 4942   8.027   5.585  10.477  0.5797  0.1903 -0.7906
  171bbb     C5 4943   7.844   5.681  10.728 -0.1277  0.1999  0.0435
  171bbb     H9 4944   7.899   5.667  10.821  0.1286  0.3361 -0.0853
  171bbb    H10 4945   7.840   5.582  10.682 -0.5306 -1.6234  3.7068
  171bbb     C6 4946   8.273   5.940  10.641 -0.4078  0.4359  0.3038
  171bbb    H11 4947   8.341   5.860  10.610 -1.7221 -1.1957  1.4603
  171bbb    H12 4948   8.284   5.936  10.750  1.3737  0.6669  0.1613
  171bbb     C7 4949   8.219   5.479  10.497  0.0020  0.3239  0.0190
  171bbb    H13 4950   8.193   5.393  10.560 -0.3522 -0.2674 -0.9182
  171bbb    H14 4951   8.320   5.509  10.530 -0.0855  0.3267  0.2850
  171bbb     C8 4952   8.331   6.083  10.603 -0.4697 -0.5458 -0.0380
  171bbb    H15 4953   8.265   6.162  10.640  0.2189  0.6528 -1.2835
  171bbb    H16 4954   8.332   6.106  10.496 -0.8255 -1.6506 -0.2929
  171bbb     C9 4955   7.699   5.727  10.770 -1.0916 -0.5484  0.0606
  171bbb    H17 4956   7.710   5.835  10.787 -0.4871 -0.4175 -1.0762
  171bbb    H18 4957   7.667   5.694  10.869 -0.4091 -0.4800  0.3096
  171bbb     O1 4958   8.239   5.422  10.368  0.4384  0.5956 -0.6995
  172bbb     N1 4959   8.199   5.976   9.633 -0.0467 -0.1102 -0.3554
  172bbb     C1 4960   8.165   6.079   9.736  0.3738  0.4722 -0.2921
  172bbb     H1 4961   8.112   6.156   9.679  0.7527 -0.1702 -1.5671
  172bbb     H2 4962   8.252   6.127   9.783 -1.4871  4.1000 -0.1763
  172bbb     C2 4963   8.279   6.037   9.521  0.3551 -0.1511  0.2747
  172bbb     H3 4964   8.224   6.126   9.488  1.0201  0.4427  0.7547
  172bbb     H4 4965   8.284   5.973   9.432  0.4086  0.0523  0.1314
  172bbb     C3 4966   8.265   5.847   9.687  1.0040 -0.6165 -0.5773
  172bbb     H5 4967   8.208   5.804   9.771  0.2852  0.4673 -0.4817
  172bbb     H6 4968   8.355   5.889   9.733  0.7811 -0.6737 -0.0784
  172bbb     C4 4969   8.275   5.731   9.586 -0.1285 -0.3045 -0.4438
  172bbb     H7 4970   8.327   5.766   9.496 -1.5479  1.9643 -0.4385
  172bbb     H8 4971   8.172   5.707   9.559 -0.1683  2.1803 -2.9242
  172bbb     C5 4972   8.068   6.020   9.841  0.6499  0.4161 -0.1763
  172bbb     H9 4973   8.112   5.934   9.893 -0.2470  0.5145  0.7788
  172bbb    H10 4974   7.985   5.981   9.781  0.3474  0.3265  0.2951
  172bbb     C6 4975   8.424   6.083   9.555  0.0972  0.0409  0.8112
  172bbb    H11 4976   8.487   5.997   9.580 -1.9692 -0.7896  3.6484
  172bbb    H12 4977   8.422   6.139   9.649  1.7801 -0.3107  1.0785
  172bbb     C7 4978   8.347   5.602   9.636  0.1958 -0.6125  0.2952
  172bbb    H13 4979   8.447   5.621   9.679  0.7560 -2.3114 -0.1419
  172bbb    H14 4980   8.361   5.541   9.546  0.4475  1.8977 -1.4707
  172bbb     C8 4981   8.497   6.161   9.442  0.7064  0.2308 -0.0832
  172bbb    H15 4982   8.520   6.096   9.356  2.5776  0.3062  0.3155
  172bbb    H16 4983   8.589   6.204   9.483  0.2860 -0.0817  1.2141
  172bbb     C9 4984   8.022   6.112   9.948  0.6911  0.0932 -0.5333
  172bbb    H17 4985   8.114   6.150   9.993  0.6675 -1.4058  0.8948
  172bbb    H18 4986   7.969   6.059  10.029  0.7105  0.6153 -0.1763
  172bbb     O1 4987   8.264   5.537   9.733  0.2260 -0.4443 -0.5800
  173bbb     N1 4988   9.230   3.882   9.172 -0.0693  0.2071 -0.5096
  173bbb     C1 4989   9.190   3.849   9.310  0.3535  0.7351 -0.5325
  173bbb     H1 4990   9.102   3.910   9.334  0.3787  1.0021 -1.1197
  173bbb     H2 4991   9.264   3.877   9.385 -0.0432  2.6278 -0.8105
  173bbb     C2 4992   9.147   3.823   9.054 -0.2881 -0.0745 -0.2750
  173bbb     H3 4993   9.142   3.714   9.060  1.5216 -0.1600  0.2520
  173bbb     H4 4994   9.196   3.844   8.958 -1.4338 -1.5975 -1.2291
  173bbb     C3 4995   9.273   4.022   9.150 -0.7678  0.7898 -0.1196
  173bbb     H5 4996   9.183   4.085   9.153  0.1318  2.3914 -2.7855
  173bbb     H6 4997   9.309   4.032   9.046 -1.7716 -1.4288 -0.7498
  173bbb     C4 4998   9.385   4.076   9.252 -0.2582 -0.3463  0.3602
  173bbb     H7 4999   9.471   4.008   9.256 -0.3394 -0.5270 -0.6749
  173bbb     H8 5000   9.342   4.093   9.352  0.3789 -1.3581  0.8225
  173bbb     C5 5001   9.150   3.700   9.335 -0.2159  0.0232 -0.1742
  173bbb     H9 5002   9.060   3.676   9.276  0.1491 -2.1215  0.0802
  173bbb    H10 5003   9.116   3.686   9.438  1.7087  1.7176  0.7607
  173bbb     C6 5004   8.999   3.868   9.040  0.7448  0.0113 -0.3234
  173bbb    H11 5005   9.005   3.977   9.038 -1.1893  0.2751  2.5997
  173bbb    H12 5006   8.938   3.840   9.127  0.1540  3.1046  0.3641
  173bbb     C7 5007   9.438   4.214   9.196 -0.3868 -0.0272 -0.1951
  173bbb    H13 5008   9.488   4.195   9.100 -1.4398 -0.0388 -0.7525
  173bbb    H14 5009   9.509   4.264   9.263  0.0877 -0.5871 -0.2792
  173bbb     C8 5010   8.933   3.812   8.914 -0.3183  0.1584 -0.2136
  173bbb    H15 5011   8.945   3.703   8.910 -0.0626  0.0653  2.0712
  173bbb    H16 5012   8.985   3.845   8.823  1.7081  2.1600  1.5622
  173bbb     C9 5013   9.261   3.597   9.310 -0.2639  0.0591 -0.6107
  173bbb    H17 5014   9.347   3.627   9.371 -0.8616 -0.9273  0.7555
  173bbb    H18 5015   9.293   3.609   9.205  0.4098 -0.7545 -0.5131
  173bbb     O1 5016   9.329   4.299   9.160  0.2135  0.8749 -0.5436
  174bbb     N1 5017   8.944   5.196   8.522 -0.5889  0.2110  0.6829
  174bbb     C1 5018   8.941   5.048   8.546 -0.9717 -0.2835 -0.6090
  174bbb     H1 5019   8.951   5.026   8.653 -1.2601  0.9101 -0.3265
  174bbb     H2 5020   9.031   5.007   8.499 -0.8997 -1.9203  0.8190
  174bbb     C2 5021   8.836   5.264   8.602 -0.1295 -0.4841  0.7310
  174bbb     H3 5022   8.861   5.231   8.704 -1.2724 -0.8223  0.9182
  174bbb     H4 5023   8.737   5.228   8.570 -0.4438  0.2403  0.8547
  174bbb     C3 5024   9.088   5.248   8.527  0.4770  0.0817 -0.2687
  174bbb     H5 5025   9.081   5.352   8.493  1.8151  0.8281  1.6054
  174bbb     H6 5026   9.148   5.208   8.445 -0.4402  1.1069 -1.4717
  174bbb     C4 5027   9.150   5.247   8.674  0.1203  0.1095  0.2612
  174bbb     H7 5028   9.076   5.279   8.749 -1.3621  1.4321 -1.6441
  174bbb     H8 5029   9.225   5.327   8.674 -0.1172  0.3560  1.3858
  174bbb     C5 5030   8.817   4.981   8.500  0.5443 -0.2977  0.7926
  174bbb     H9 5031   8.783   5.016   8.402 -0.2554 -1.5636  0.5899
  174bbb    H10 5032   8.733   5.001   8.569  1.1853  1.6436  1.0651
  174bbb     C6 5033   8.825   5.416   8.596  0.0878  0.1787  0.0676
  174bbb    H11 5034   8.801   5.445   8.493  1.4139 -3.1314 -1.3419
  174bbb    H12 5035   8.924   5.462   8.607  0.5131 -0.8255  0.5926
  174bbb     C7 5036   9.241   5.124   8.703 -0.0381 -0.2504  0.5005
  174bbb    H13 5037   9.318   5.116   8.626  0.2090 -0.9824  0.8077
  174bbb    H14 5038   9.186   5.029   8.704 -0.6677  0.1104  1.2492
  174bbb     C8 5039   8.733   5.477   8.704  0.0443  0.0486 -0.6784
  174bbb    H15 5040   8.732   5.587   8.700  1.1878  0.2221  1.7217
  174bbb    H16 5041   8.779   5.457   8.801  0.4003  1.1015 -0.6203
  174bbb     C9 5042   8.829   4.828   8.492 -0.3927  0.2599  0.2002
  174bbb    H17 5043   8.870   4.783   8.584  1.1061  1.6344  0.2392
  174bbb    H18 5044   8.906   4.808   8.418 -1.1615 -3.4806  0.1872
  174bbb     O1 5045   9.303   5.146   8.832  0.1491 -0.7470  0.2447
  175bbb     N1 5046   4.388   3.903  11.128 -0.0766  0.5306 -0.6711
  175bbb     C1 5047   4.328   3.862  11.256  0.4144 -0.7199 -0.2296
  175bbb     H1 5048   4.362   3.765  11.293 -1.6063 -1.1206  0.7131
  175bbb     H2 5049   4.221   3.846  11.240  0.1433  0.1016  0.6167
  175bbb     C2 5050   4.330   4.025  11.072  0.0353 -0.0318 -0.1425
  175bbb     H3 5051   4.376   4.037  10.973 -2.1685  0.3347 -1.1829
  175bbb     H4 5052   4.361   4.118  11.121 -1.4285  0.4105 -0.0104
  175bbb     C3 5053   4.537   3.916  11.129  0.5335 -0.5909  1.2701
  175bbb     H5 5054   4.578   3.994  11.195  0.7817 -1.6285  2.3791
  175bbb     H6 5055   4.568   3.943  11.028 -1.3725 -2.3284  0.1479
  175bbb     C4 5056   4.613   3.792  11.186 -0.3165 -0.1333  0.0328
  175bbb     H7 5057   4.584   3.690  11.156  2.6904 -1.2072  0.3684
  175bbb     H8 5058   4.604   3.802  11.294  0.1489  2.2505 -0.1088
  175bbb     C5 5059   4.326   3.967  11.363 -0.1850 -0.2910  0.5216
  175bbb     H9 5060   4.281   4.062  11.332  0.2859  0.6604  2.6110
  175bbb    H10 5061   4.430   4.000  11.372 -0.3551  0.6035 -0.5747
  175bbb     C6 5062   4.176   4.031  11.039  0.2686 -0.4620 -0.4209
  175bbb    H11 5063   4.118   4.002  11.128  0.0565  1.1015 -0.0308
  175bbb    H12 5064   4.160   3.963  10.954 -0.5812 -0.4047 -0.3158
  175bbb     C7 5065   4.763   3.787  11.137 -0.3086  0.0793 -0.5342
  175bbb    H13 5066   4.774   3.825  11.035  1.6493 -0.2319 -0.4843
  175bbb    H14 5067   4.798   3.683  11.142 -1.3781 -0.4021 -2.3600
  175bbb     C8 5068   4.136   4.177  10.995 -0.1985 -0.3079  0.4047
  175bbb    H15 5069   4.036   4.179  10.951  0.0177 -1.9658 -0.2233
  175bbb    H16 5070   4.208   4.210  10.919  1.2501 -2.6564  0.6570
  175bbb     C9 5071   4.255   3.913  11.490  0.2522 -0.0695  0.8228
  175bbb    H17 5072   4.158   3.884  11.448  0.8814 -1.8554  0.5039
  175bbb    H18 5073   4.241   3.988  11.569  2.0533  0.6416  0.5148
  175bbb     O1 5074   4.845   3.854  11.232  0.4321 -0.2243 -0.4940
  176bbb     N1 5075   5.039   4.926  10.935  0.6508  0.5399  0.2234
  176bbb     C1 5076   5.003   5.033  10.841 -0.1446 -0.2994 -0.1117
  176bbb     H1 5077   5.050   5.128  10.869 -1.3091  0.3482 -0.2871
  176bbb     H2 5078   4.893   5.040  10.836 -0.1832  0.3327  1.2485
  176bbb     C2 5079   5.016   4.952  11.080  0.0538 -0.0084 -0.2824
  176bbb     H3 5080   4.998   4.861  11.139 -1.3217 -0.3329 -1.1495
  176bbb     H4 5081   4.939   5.029  11.094  0.5982  0.1681  2.1114
  176bbb     C3 5082   5.006   4.793  10.894  0.2990  0.7499  0.1725
  176bbb     H5 5083   5.015   4.774  10.786 -2.8054 -0.1160 -0.0100
  176bbb     H6 5084   4.904   4.766  10.923 -0.5117  2.8860 -0.5688
  176bbb     C4 5085   5.092   4.680  10.969  0.4413  0.2158 -0.2159
  176bbb     H7 5086   5.084   4.685  11.079 -1.0203  0.2097 -0.3065
  176bbb     H8 5087   5.199   4.701  10.955  0.9832 -1.1169  1.5662
  176bbb     C5 5088   5.052   5.021  10.693 -0.3448  0.0393 -0.5079
  176bbb     H9 5089   5.036   5.116  10.642 -2.2110 -0.5212 -1.0314
  176bbb    H10 5090   4.985   4.943  10.655 -0.8220  0.5624 -0.7439
  176bbb     C6 5091   5.138   5.011  11.145 -0.3290 -0.4278 -0.3604
  176bbb    H11 5092   5.114   5.015  11.252  0.6886 -0.2209 -0.1308
  176bbb    H12 5093   5.147   5.114  11.108 -2.1449  0.7367  2.1391
  176bbb     C7 5094   5.059   4.538  10.911  0.9627 -0.4123  0.1015
  176bbb    H13 5095   5.076   4.530  10.803  0.5951 -0.0385  0.0117
  176bbb    H14 5096   4.953   4.514  10.927  1.3434 -2.4064 -0.1432
  176bbb     C8 5097   5.264   4.927  11.114 -0.2549  0.7485  0.4844
  176bbb    H15 5098   5.266   4.895  11.009  0.9335 -0.3389  0.8102
  176bbb    H16 5099   5.262   4.837  11.177 -1.5443  0.2705 -0.2107
  176bbb     C9 5100   5.194   4.974  10.678 -0.4497  0.2390 -0.0733
  176bbb    H17 5101   5.198   4.887  10.745 -1.6179  1.7043  2.0318
  176bbb    H18 5102   5.269   5.038  10.726  0.7063 -2.5355  2.1266
  176bbb     O1 5103   5.144   4.452  10.980  0.2185  0.1906 -0.3675
  177bbb     N1 5104   6.052   4.899  13.097  0.0262 -0.9864  0.8373
  177bbb     C1 5105   6.062   4.815  13.217  0.3541 -0.0950  0.0610
  177bbb     H1 5106   6.133   4.856  13.289  0.5041 -0.9221  0.3950
  177bbb     H2 5107   6.098   4.717  13.183 -1.8265 -0.9031 -0.1038
  177bbb     C2 5108   6.174   4.960  13.041  0.6915 -0.1555 -0.3467
  177bbb     H3 5109   6.148   5.018  12.952 -0.5960 -0.4817 -0.2005
  177bbb     H4 5110   6.231   4.876  13.000  0.1930  0.5258 -2.5331
  177bbb     C3 5111   5.952   4.862  12.998 -0.0995  0.2658  0.1324
  177bbb     H5 5112   5.931   4.948  12.933 -1.2644 -0.8949 -1.1041
  177bbb     H6 5113   5.853   4.838  13.038  0.3654 -3.4690 -0.5499
  177bbb     C4 5114   6.002   4.752  12.903  0.2577  0.4679 -0.6678
  177bbb     H7 5115   6.022   4.658  12.956 -0.6926  0.7009  0.1419
  177bbb     H8 5116   6.092   4.790  12.854  0.4843  1.0736  0.2020
  177bbb     C5 5117   5.934   4.783  13.294 -0.0656 -0.7396 -0.7079
  177bbb     H9 5118   5.966   4.723  13.379 -0.8628  0.0739  0.1908
  177bbb    H10 5119   5.871   4.715  13.235  0.8077 -1.9617 -0.2581
  177bbb     C6 5120   6.263   5.041  13.144  0.0219  0.5266 -0.5401
  177bbb    H11 5121   6.319   4.972  13.208 -0.7082  1.9121  1.7018
  177bbb    H12 5122   6.200   5.108  13.204  0.5062  0.6252 -0.1390
  177bbb     C7 5123   5.909   4.727  12.782 -0.1367  0.0037  0.1915
  177bbb    H13 5124   5.879   4.823  12.738 -1.3837  0.2438  1.5016
  177bbb    H14 5125   5.819   4.675  12.819 -0.1957  0.0712  0.1450
  177bbb     C8 5126   6.364   5.131  13.062  0.3341  0.5058 -0.0313
  177bbb    H15 5127   6.313   5.205  13.000  0.7159  0.8129  0.0163
  177bbb    H16 5128   6.411   5.065  12.987 -1.6116 -2.2989  1.0546
  177bbb     C9 5129   5.854   4.915  13.343 -0.8736 -0.1199  0.6825
  177bbb    H17 5130   5.843   4.973  13.251  3.3148  0.8937  0.6126
  177bbb    H18 5131   5.921   4.977  13.404 -1.2245 -0.0139  0.9667
  177bbb     O1 5132   5.967   4.649  12.674 -0.2819 -0.3396  0.1359
  178bbb     N1 5133   5.959   5.543  12.184 -0.3351  0.1042 -0.5058
  178bbb     C1 5134   5.934   5.647  12.076  0.5588 -0.1672 -0.1439
  178bbb     H1 5135   5.958   5.617  11.973 -2.5562 -0.6378 -0.8061
  178bbb     H2 5136   6.011   5.721  12.101  1.6611 -0.9814 -0.9857
  178bbb     C2 5137   6.096   5.529  12.239 -0.3630 -0.6577 -0.3372
  178bbb     H3 5138   6.094   5.454  12.319 -2.6004 -1.1206 -0.7590
  178bbb     H4 5139   6.129   5.621  12.288  3.3057 -1.7113 -0.5404
  178bbb     C3 5140   5.878   5.423  12.162  0.0615  0.0647  0.0283
  178bbb     H5 5141   5.927   5.354  12.092  0.0931 -3.1605  2.9872
  178bbb     H6 5142   5.783   5.455  12.118 -2.0146 -1.7455  2.8520
  178bbb     C4 5143   5.839   5.347  12.293  0.6269  0.2897  0.5330
  178bbb     H7 5144   5.778   5.407  12.361 -0.1791 -1.1499  1.1413
  178bbb     H8 5145   5.924   5.316  12.355  1.8552  0.9021 -0.7840
  178bbb     C5 5146   5.796   5.710  12.097 -0.0251 -0.1093  0.2114
  178bbb     H9 5147   5.792   5.762  12.194 -2.7086  2.0544 -0.9147
  178bbb    H10 5148   5.707   5.646  12.088 -0.7858  0.9743 -0.1820
  178bbb     C6 5149   6.196   5.472  12.135  0.3758 -0.0078  0.1186
  178bbb    H11 5150   6.227   5.544  12.058  0.7074 -0.6043 -0.3156
  178bbb    H12 5151   6.157   5.393  12.070  0.7419 -0.8643  0.9137
  178bbb     C7 5152   5.754   5.218  12.263  0.3815 -0.1564 -0.3820
  178bbb    H13 5153   5.693   5.244  12.176 -0.7557  3.1254  1.2329
  178bbb    H14 5154   5.684   5.191  12.343  0.1593  0.1301 -0.4795
  178bbb     C8 5155   6.332   5.432  12.187 -0.4281 -0.8679  0.1826
  178bbb    H15 5156   6.372   5.526  12.227 -1.4863 -0.2746 -0.1282
  178bbb    H16 5157   6.402   5.397  12.110  1.5097  2.2885  0.3679
  178bbb     C9 5158   5.769   5.822  11.996  0.4768 -0.2190 -0.5965
  178bbb    H17 5159   5.667   5.862  12.006  0.8554  0.6410 -0.0285
  178bbb    H18 5160   5.770   5.775  11.897  1.0428  0.3400 -0.8633
  178bbb     O1 5161   5.848   5.108  12.237 -0.0840  1.0732  0.4632
  179bbb     N1 5162   6.824   3.076  11.051 -0.2901 -1.3031  0.0783
  179bbb     C1 5163   6.815   3.021  10.910  0.4879  0.5992  0.4556
  179bbb     H1 5164   6.843   2.915  10.913  0.9932  0.5170 -3.0731
  179bbb     H2 5165   6.888   3.077  10.851  1.2607 -1.0551 -0.2038
  179bbb     C2 5166   6.952   3.053  11.122  1.1501 -0.2625  0.1346
  179bbb     H3 5167   6.963   2.944  11.131  1.1921 -0.0910  4.2695
  179bbb     H4 5168   6.939   3.088  11.225 -0.5968 -0.6451  0.0858
  179bbb     C3 5169   6.703   3.034  11.127  0.1623 -0.5775  0.2772
  179bbb     H5 5170   6.687   2.925  11.129 -0.2793 -0.5646 -1.3902
  179bbb     H6 5171   6.617   3.077  11.074 -0.9325 -0.0757  2.3425
  179bbb     C4 5172   6.680   3.082  11.266 -0.3707 -1.1482  0.1685
  179bbb     H7 5173   6.744   3.027  11.335  2.5287  1.0203 -0.6023
  179bbb     H8 5174   6.575   3.063  11.292 -0.0931 -1.0970  1.4017
  179bbb     C5 5175   6.680   3.031  10.829  0.4281 -0.6826 -0.7872
  179bbb     H9 5176   6.643   3.135  10.834 -0.6301 -1.0648 -0.3711
  179bbb    H10 5177   6.605   2.969  10.879 -0.0829  1.4854  1.3443
  179bbb     C6 5178   7.077   3.115  11.066  0.3365  0.1408  0.4235
  179bbb    H11 5179   7.049   3.218  11.042 -0.0576 -0.2866 -1.0375
  179bbb    H12 5180   7.098   3.066  10.970 -0.7051 -1.7833  1.1173
  179bbb     C7 5181   6.700   3.238  11.290  0.1477  0.0869 -0.2186
  179bbb    H13 5182   6.705   3.290  11.194 -1.3821  3.8351  1.5471
  179bbb    H14 5183   6.795   3.245  11.344  0.1222 -1.1803  0.0075
  179bbb     C8 5184   7.210   3.109  11.147 -0.8655  0.2672 -0.2293
  179bbb    H15 5185   7.248   3.008  11.126 -2.9340 -0.4958 -0.6011
  179bbb    H16 5186   7.199   3.104  11.256  2.0395 -0.0667  0.1189
  179bbb     C9 5187   6.694   2.987  10.679 -0.1405  0.2518  0.1170
  179bbb    H17 5188   6.762   2.902  10.664  1.3808  1.1604  1.5728
  179bbb    H18 5189   6.738   3.071  10.624 -2.3048 -1.2453 -4.4634
  179bbb     O1 5190   6.587   3.277  11.368 -0.0821 -0.0857  0.2737
  180bbb     N1 5191   6.782   2.794  12.266  0.2568 -0.3070 -0.0730
  180bbb     C1 5192   6.918   2.857  12.256  0.6344 -0.5379 -0.1481
  180bbb     H1 5193   6.902   2.963  12.232 -1.2075 -0.6470  0.4452
  180bbb     H2 5194   6.963   2.814  12.165 -0.7830  0.9838 -1.6595
  180bbb     C2 5195   6.704   2.851  12.386 -0.5975  0.1568  0.1665
  180bbb     H3 5196   6.687   2.957  12.365 -0.9599 -0.4247 -2.9595
  180bbb     H4 5197   6.771   2.847  12.473  2.8692  0.0318 -2.3215
  180bbb     C3 5198   6.695   2.798  12.140 -0.0304  0.7118 -0.1039
  180bbb     H5 5199   6.613   2.726  12.148 -0.4885  1.2359 -0.0431
  180bbb     H6 5200   6.748   2.761  12.052 -0.8652 -0.1381 -0.2629
  180bbb     C4 5201   6.641   2.935  12.104 -0.2843 -0.2956  0.1298
  180bbb     H7 5202   6.722   2.984  12.049  0.1127  0.2455  1.1604
  180bbb     H8 5203   6.611   3.004  12.183 -0.2356 -2.2256  1.9243
  180bbb     C5 5204   7.016   2.866  12.383  0.1096  0.5372 -0.2519
  180bbb     H9 5205   6.974   2.930  12.461  2.9972 -1.8092  3.5531
  180bbb    H10 5206   7.105   2.925  12.359 -1.4635  2.0914 -2.8353
  180bbb     C6 5207   6.570   2.774  12.424 -0.2200 -0.6720 -0.2460
  180bbb    H11 5208   6.507   2.761  12.335  0.4916 -2.7886 -0.4947
  180bbb    H12 5209   6.507   2.839  12.487 -0.7362  0.7528 -2.1240
  180bbb     C7 5210   6.523   2.909  12.011  0.2461 -0.2908 -0.8369
  180bbb    H13 5211   6.436   2.895  12.076 -0.6007 -1.8812 -2.2305
  180bbb    H14 5212   6.528   2.823  11.944 -1.5925  0.0026 -1.3908
  180bbb     C8 5213   6.583   2.629  12.472 -0.6367 -0.0538  0.3662
  180bbb    H15 5214   6.690   2.624  12.497 -1.0250 -0.9855  1.9696
  180bbb    H16 5215   6.571   2.547  12.400 -0.4051  1.2626 -1.2211
  180bbb     C9 5216   7.046   2.730  12.446  0.5020  0.2453 -0.0077
  180bbb    H17 5217   7.056   2.653  12.369  0.0453 -0.7373  0.9007
  180bbb    H18 5218   6.955   2.707  12.502  1.2212  0.8427  1.4762
  180bbb     O1 5219   6.504   3.027  11.932  0.1969  0.0519  0.1248
  181bbb     N1 5220   4.919   4.262  12.612  0.9900  0.6307 -0.1789
  181bbb     C1 5221   4.963   4.288  12.751  0.2072  0.2123 -0.3808
  181bbb     H1 5222   4.880   4.272  12.821 -0.4001  0.9762 -0.9083
  181bbb     H2 5223   4.985   4.396  12.753  1.1001  0.1042  2.8771
  181bbb     C2 5224   4.814   4.358  12.570  0.4259  0.0976  0.1992
  181bbb     H3 5225   4.808   4.350  12.461  0.1314 -1.2564  0.2915
  181bbb     H4 5226   4.843   4.460  12.594 -0.8759  0.7196 -0.7377
  181bbb     C3 5227   4.906   4.114  12.572  0.4028 -0.5484 -0.3904
  181bbb     H5 5228   4.825   4.066  12.629 -0.5448 -0.8392 -1.9391
  181bbb     H6 5229   5.001   4.060  12.588  0.5447 -0.2166 -0.0901
  181bbb     C4 5230   4.882   4.082  12.425  0.1780 -0.1313 -0.0085
  181bbb     H7 5231   4.962   4.128  12.366  1.0987 -0.5615  0.8766
  181bbb     H8 5232   4.788   4.131  12.395 -0.0001  0.8730  2.0298
  181bbb     C5 5233   5.086   4.207  12.807  0.3411 -0.2298 -0.1383
  181bbb     H9 5234   5.161   4.212  12.727  1.3671 -0.0583  0.8152
  181bbb    H10 5235   5.066   4.102  12.831 -0.1647 -0.1187 -0.0732
  181bbb     C6 5236   4.673   4.322  12.620  0.1946  0.3402 -0.3637
  181bbb    H11 5237   4.670   4.339  12.728 -0.1379  0.1149 -0.3379
  181bbb    H12 5238   4.650   4.217  12.602  2.0494  0.0884 -1.5157
  181bbb     C7 5239   4.874   3.934  12.404 -0.2244  0.4405 -0.5914
  181bbb    H13 5240   4.820   3.912  12.311 -3.0893  0.4242  0.9781
  181bbb    H14 5241   4.823   3.892  12.491 -1.0153  1.6398 -0.4498
  181bbb     C8 5242   4.567   4.419  12.557 -0.2732  0.1684 -0.0827
  181bbb    H15 5243   4.468   4.433  12.603 -0.1730  1.0097 -0.1217
  181bbb    H16 5244   4.543   4.377  12.459 -0.4261 -1.0147  0.4344
  181bbb     C9 5245   5.152   4.266  12.937  0.1028  0.8435  0.1062
  181bbb    H17 5246   5.077   4.266  13.016 -0.7983 -0.0775 -0.7281
  181bbb    H18 5247   5.172   4.373  12.923  2.1186  0.6769  1.1615
  181bbb     O1 5248   5.013   3.883  12.386 -0.7083 -0.1854 -0.4866
  182bbb     N1 5249   5.750   3.366  12.928  0.3257  0.1876  0.6783
  182bbb     C1 5250   5.856   3.457  12.988 -0.9785 -0.2135 -0.3902
  182bbb     H1 5251   5.833   3.476  13.094 -2.4831 -2.0970 -0.3323
  182bbb     H2 5252   5.859   3.555  12.937 -0.9232 -0.4814 -0.9044
  182bbb     C2 5253   5.772   3.326  12.786 -0.1752 -0.1025  0.2318
  182bbb     H3 5254   5.865   3.269  12.786 -2.3730 -4.0028  0.7108
  182bbb     H4 5255   5.773   3.419  12.727 -0.3234  0.4019  1.0038
  182bbb     C3 5256   5.615   3.434  12.929 -0.8751  0.2190  0.0033
  182bbb     H5 5257   5.540   3.377  12.873 -0.8540  0.6249 -0.4414
  182bbb     H6 5258   5.619   3.536  12.889 -0.5163 -0.1460 -0.9360
  182bbb     C4 5259   5.558   3.436  13.070  0.2363 -0.2216  0.0095
  182bbb     H7 5260   5.630   3.478  13.141 -2.1497  0.0210  2.4268
  182bbb     H8 5261   5.544   3.330  13.095 -0.7678  0.1374  1.0603
  182bbb     C5 5262   5.998   3.396  12.981  0.0742  0.3027 -0.2182
  182bbb     H9 5263   6.024   3.366  12.879  0.3732  2.6769 -0.9081
  182bbb    H10 5264   6.008   3.307  13.044  1.9212 -1.2551 -2.5466
  182bbb     C6 5265   5.679   3.221  12.729 -0.8473  0.0641  0.0411
  182bbb    H11 5266   5.587   3.273  12.700 -0.6902 -0.4957 -1.5802
  182bbb    H12 5267   5.652   3.144  12.801 -1.8694 -1.1651 -1.5828
  182bbb     C7 5268   5.415   3.505  13.078  0.4300  0.2115 -0.3385
  182bbb    H13 5269   5.388   3.515  13.184 -0.1410 -1.1861 -0.3304
  182bbb    H14 5270   5.332   3.451  13.030  0.0273  0.6081 -0.0948
  182bbb     C8 5271   5.742   3.144  12.605  0.5733 -0.1981  0.3282
  182bbb    H15 5272   5.675   3.068  12.563  0.1187  1.6336 -2.5697
  182bbb    H16 5273   5.838   3.106  12.640  1.1957  1.5379  0.5811
  182bbb     C9 5274   6.111   3.496  13.012 -0.7257 -0.5818 -0.4015
  182bbb    H17 5275   6.084   3.544  13.106 -1.9747  0.6539 -1.3405
  182bbb    H18 5276   6.112   3.590  12.954  0.4574 -0.1680  0.2604
  182bbb     O1 5277   5.412   3.643  13.025 -0.0532 -0.0822  0.2658
  183bbb     N1 5278   7.306   5.155   8.787  0.0324 -0.3877  0.2660
  183bbb     C1 5279   7.405   5.240   8.709  0.4832  0.3386  0.0455
  183bbb     H1 5280   7.351   5.277   8.621 -0.9483 -1.2730  0.1974
  183bbb     H2 5281   7.486   5.184   8.660 -0.8115  0.3328 -2.1854
  183bbb     C2 5282   7.250   5.045   8.703  0.3663 -0.1381 -0.2116
  183bbb     H3 5283   7.221   5.081   8.603  0.8411  0.7060 -0.0616
  183bbb     H4 5284   7.157   5.016   8.753  1.5209  1.7767  3.4413
  183bbb     C3 5285   7.210   5.234   8.863  0.5428  0.3989  0.1138
  183bbb     H5 5286   7.267   5.300   8.930  0.0421  1.0773 -0.1113
  183bbb     H6 5287   7.159   5.165   8.932  0.8502  0.5815  0.5226
  183bbb     C4 5288   7.101   5.302   8.785 -0.0455 -0.3241  0.2131
  183bbb     H7 5289   7.037   5.218   8.753 -2.3430  0.7459  1.7982
  183bbb     H8 5290   7.145   5.340   8.692  0.5267 -1.1737  0.1139
  183bbb     C5 5291   7.481   5.351   8.787 -0.0616 -0.2417 -0.3749
  183bbb     H9 5292   7.530   5.296   8.868 -0.5263 -0.4400 -0.2277
  183bbb    H10 5293   7.409   5.424   8.826  0.4112 -0.0927  0.2283
  183bbb     C6 5294   7.348   4.928   8.690  0.0117  1.0772  0.4179
  183bbb    H11 5295   7.355   4.870   8.783 -2.5286 -1.1188 -0.6111
  183bbb    H12 5296   7.452   4.958   8.671  0.9583 -2.5409 -1.0573
  183bbb     C7 5297   7.018   5.399   8.864 -0.3717 -0.2168  0.4298
  183bbb    H13 5298   6.941   5.451   8.807 -0.6031 -0.0080  0.9313
  183bbb    H14 5299   7.079   5.481   8.903 -0.8290  1.7468 -2.6490
  183bbb     C8 5300   7.294   4.834   8.582  0.0567 -0.0507  0.5368
  183bbb    H15 5301   7.259   4.893   8.496 -1.3736 -0.3486  0.8871
  183bbb    H16 5302   7.195   4.796   8.611  0.4972 -1.9420 -0.2316
  183bbb     C9 5303   7.592   5.426   8.704 -0.3062 -0.2758 -0.4460
  183bbb    H17 5304   7.669   5.355   8.671 -1.4618 -2.9096  2.1109
  183bbb    H18 5305   7.627   5.494   8.782 -2.1461  0.7990 -0.4997
  183bbb     O1 5306   6.971   5.329   8.973  0.6056  0.1095 -0.3589
  184bbb     N1 5307   6.970   5.894   9.953  0.1233  0.1113 -0.1085
  184bbb     C1 5308   7.092   5.891  10.039 -0.0132 -0.3173  0.3484
  184bbb     H1 5309   7.133   5.993  10.047  0.5684 -0.5453  0.3257
  184bbb     H2 5310   7.167   5.833   9.984  0.2700  2.6536 -2.7360
  184bbb     C2 5311   6.870   5.996  10.005 -0.0717 -0.3568 -0.3516
  184bbb     H3 5312   6.848   5.972  10.110  0.5486  0.7008  0.0328
  184bbb     H4 5313   6.778   5.985   9.947  0.3398  1.7225 -1.4941
  184bbb     C3 5314   7.003   5.916   9.811 -0.0069 -0.4683  0.3291
  184bbb     H5 5315   7.041   6.017   9.796  0.2057 -0.9019 -2.5164
  184bbb     H6 5316   6.905   5.911   9.762 -0.0145  0.3460  0.2541
  184bbb     C4 5317   7.093   5.809   9.742 -0.1320 -0.0399  0.7896
  184bbb     H7 5318   7.090   5.708   9.783  2.2664 -0.8277 -0.7424
  184bbb     H8 5319   7.197   5.837   9.762  0.3213 -0.4790 -0.8034
  184bbb     C5 5320   7.067   5.818  10.181  0.3490  0.1076  0.2041
  184bbb     H9 5321   7.023   5.718  10.163 -1.6664  0.9795  0.0374
  184bbb    H10 5322   6.994   5.870  10.243 -0.4113 -1.0617  0.3186
  184bbb     C6 5323   6.909   6.146  10.001  0.1699  1.1251  0.2638
  184bbb    H11 5324   6.907   6.195   9.903  1.4885  0.9555  0.1419
  184bbb    H12 5325   7.012   6.148  10.038  0.8410 -2.1794 -1.0985
  184bbb     C7 5326   7.068   5.804   9.593  0.3096 -0.1073 -0.3080
  184bbb    H13 5327   7.090   5.906   9.557  1.1040 -0.0781  0.2565
  184bbb    H14 5328   6.963   5.785   9.566  0.4081 -1.8910  0.4374
  184bbb     C8 5329   6.816   6.225  10.093  0.2820  0.2604  0.1063
  184bbb    H15 5330   6.804   6.182  10.193  0.1910  1.0133  0.4190
  184bbb    H16 5331   6.722   6.214  10.037 -0.0741 -1.1094  0.9179
  184bbb     C9 5332   7.196   5.806  10.267  0.2583 -0.3785 -0.6099
  184bbb    H17 5333   7.182   5.740  10.353  1.1041 -0.9573 -0.8932
  184bbb    H18 5334   7.227   5.903  10.306  0.8303 -0.7554 -0.1055
  184bbb     O1 5335   7.146   5.696   9.535 -0.4837  0.2348  0.0931
  185bbb     N1 5336   5.111   4.470   9.973  0.5257 -0.5976 -0.2461
  185bbb     C1 5337   5.117   4.451  10.122 -0.0198 -0.3917  0.1691
  185bbb     H1 5338   5.036   4.384  10.154 -1.1235  0.6601 -0.3635
  185bbb     H2 5339   5.094   4.546  10.171  1.7021 -1.1008  2.6129
  185bbb     C2 5340   4.984   4.529   9.928 -0.1367  0.6847  0.8364
  185bbb     H3 5341   4.904   4.473   9.978  0.5453  0.0846  1.2947
  185bbb     H4 5342   4.954   4.519   9.823  0.8169  1.9184  0.4297
  185bbb     C3 5343   5.230   4.536   9.921  0.7240  0.7189  0.1116
  185bbb     H5 5344   5.319   4.474   9.939  1.0074  1.2296  0.4843
  185bbb     H6 5345   5.256   4.622   9.984  1.0071  0.9652 -0.3304
  185bbb     C4 5346   5.225   4.579   9.771  0.2445  0.2685  0.8152
  185bbb     H7 5347   5.135   4.634   9.740  0.9612  1.0281 -0.0177
  185bbb     H8 5348   5.215   4.484   9.717 -0.3721  0.4001  0.6842
  185bbb     C5 5349   5.243   4.381  10.174 -0.5347 -0.0507 -0.1120
  185bbb     H9 5350   5.255   4.376  10.282  0.9249 -0.7662 -0.2849
  185bbb    H10 5351   5.332   4.440  10.147 -1.2227  2.4732  2.6777
  185bbb     C6 5352   4.970   4.680   9.961  0.2227  0.1194  0.8542
  185bbb    H11 5353   5.062   4.730   9.931  0.3762  0.3265  1.6417
  185bbb    H12 5354   4.957   4.685  10.070  1.8394 -1.9063  1.2187
  185bbb     C7 5355   5.349   4.641   9.720  0.1780 -0.5163  0.2590
  185bbb    H13 5356   5.359   4.744   9.755  0.8811 -0.8502  1.0834
  185bbb    H14 5357   5.349   4.647   9.610  1.8415  2.4554  0.3037
  185bbb     C8 5358   4.854   4.736   9.871 -0.4331  0.6820 -0.3080
  185bbb    H15 5359   4.762   4.705   9.924  0.1057 -0.0212  0.2479
  185bbb    H16 5360   4.870   4.702   9.768 -1.4601 -0.5477 -0.0875
  185bbb     C9 5361   5.258   4.240  10.114 -0.7262 -0.2168  0.0149
  185bbb    H17 5362   5.256   4.240  10.005  1.4137 -0.5360 -0.0549
  185bbb    H18 5363   5.171   4.183  10.150  0.4238 -1.0589  1.5633
  185bbb     O1 5364   5.474   4.575   9.764 -0.2149 -0.3905  0.4274
  186bbb     N1 5365   6.212   5.313  10.358  0.5332  0.4119 -0.3602
  186bbb     C1 5366   6.299   5.375  10.256 -0.7698  0.8649 -0.7018
  186bbb     H1 5367   6.256   5.471  10.224  0.6495  1.0404 -2.2010
  186bbb     H2 5368   6.315   5.304  10.175  1.2659 -2.1013  2.0586
  186bbb     C2 5369   6.157   5.416  10.455  0.2131  0.4830 -0.1734
  186bbb     H3 5370   6.077   5.477  10.410 -0.4144 -1.2351 -1.5113
  186bbb     H4 5371   6.239   5.484  10.482  1.2994 -1.6772  2.3631
  186bbb     C3 5372   6.111   5.222  10.308  0.1415  0.2818  0.3849
  186bbb     H5 5373   6.050   5.275  10.234  1.3828 -1.1439 -1.7740
  186bbb     H6 5374   6.048   5.194  10.394  1.0067  1.0443  1.2888
  186bbb     C4 5375   6.174   5.093  10.253  0.0483 -0.3285  0.2700
  186bbb     H7 5376   6.238   5.063  10.337  0.8984  1.9977  0.5448
  186bbb     H8 5377   6.235   5.110  10.164  0.4835 -0.0810  0.6087
  186bbb     C5 5378   6.441   5.397  10.304 -0.1964 -0.2803  0.3673
  186bbb     H9 5379   6.504   5.307  10.297  0.8023  0.4617 -0.4423
  186bbb    H10 5380   6.441   5.434  10.407  2.2155  0.3059  0.2044
  186bbb     C6 5381   6.101   5.355  10.589 -0.4913 -0.1216 -0.2481
  186bbb    H11 5382   5.997   5.330  10.563 -1.0116  2.6866 -1.2464
  186bbb    H12 5383   6.093   5.441  10.656  0.3816  0.1705 -0.5056
  186bbb     C7 5384   6.076   4.984  10.219  0.4271  0.0189 -0.3261
  186bbb    H13 5385   5.973   5.017  10.202  0.7526  0.4998 -1.4433
  186bbb    H14 5386   6.079   4.902  10.292 -0.5781  0.8298  0.6676
  186bbb     C8 5387   6.178   5.239  10.656 -0.7905 -0.2250  0.2435
  186bbb    H15 5388   6.276   5.274  10.691 -0.4107 -0.7021 -0.3160
  186bbb    H16 5389   6.202   5.162  10.582 -0.1845 -1.8912  2.0865
  186bbb     C9 5390   6.501   5.516  10.222  0.1080 -0.5855  0.1957
  186bbb    H17 5391   6.448   5.611  10.233  0.3587 -0.4547  0.2600
  186bbb    H18 5392   6.496   5.481  10.118  0.1210 -3.0150  0.9443
  186bbb     O1 5393   6.119   4.933  10.098  0.8367  0.1184  0.4027
  187bbb     N1 5394   8.069   2.776  11.131 -0.2215  0.1333 -0.1486
  187bbb     C1 5395   8.209   2.783  11.070 -0.0382 -0.3403  0.6691
  187bbb     H1 5396   8.204   2.773  10.961  1.3412  0.5127  0.4995
  187bbb     H2 5397   8.265   2.696  11.107 -1.4241 -1.8851 -0.7441
  187bbb     C2 5398   8.055   2.741  11.276  0.1832 -0.5551 -0.4114
  187bbb     H3 5399   8.057   2.843  11.316 -0.9989 -0.2835 -1.0054
  187bbb     H4 5400   8.144   2.688  11.312 -1.1912 -1.6217  1.5864
  187bbb     C3 5401   7.960   2.859  11.076  0.1685 -0.0188  0.4111
  187bbb     H5 5402   7.975   2.967  11.092 -1.2685  0.2925 -0.2236
  187bbb     H6 5403   7.864   2.825  11.116  1.3522 -2.4163  1.4292
  187bbb     C4 5404   7.955   2.854  10.916 -0.5049  0.0888 -1.0964
  187bbb     H7 5405   7.952   2.748  10.890  0.9487 -0.5199  0.9496
  187bbb     H8 5406   8.046   2.899  10.875 -1.8506  0.5180 -3.8052
  187bbb     C5 5407   8.287   2.912  11.105 -0.0411  0.0760 -0.1014
  187bbb     H9 5408   8.285   2.915  11.215 -2.0908  0.1783 -0.1058
  187bbb    H10 5409   8.240   3.002  11.064  0.8384  0.8510  0.5315
  187bbb     C6 5410   7.918   2.669  11.317  0.3173  0.0198 -0.0664
  187bbb    H11 5411   7.836   2.737  11.293  1.2594  1.0531 -0.4582
  187bbb    H12 5412   7.919   2.652  11.426 -0.5756  0.0129 -0.0559
  187bbb     C7 5413   7.836   2.931  10.861  0.2072  0.1484  0.1902
  187bbb    H13 5414   7.821   3.030  10.906  1.0946  0.1844  0.4381
  187bbb    H14 5415   7.744   2.873  10.876 -0.0234  0.4614 -0.0018
  187bbb     C8 5416   7.904   2.540  11.236 -0.2552 -0.8330 -0.5724
  187bbb    H15 5417   7.991   2.475  11.249 -0.3689 -0.6832  1.1279
  187bbb    H16 5418   7.905   2.562  11.128 -1.9124 -1.0244 -0.6552
  187bbb     C9 5419   8.425   2.898  11.042 -0.6419 -0.5373 -0.0826
  187bbb    H17 5420   8.415   2.884  10.933 -2.3037  1.9721 -0.3491
  187bbb    H18 5421   8.475   2.808  11.077  1.2316 -0.3950 -2.1594
  187bbb     O1 5422   7.878   2.942  10.726 -0.5459  0.1770  0.4315
  188bbb     N1 5423   7.852   2.711   9.799 -0.0403 -0.3614  0.6902
  188bbb     C1 5424   7.819   2.575   9.832  0.1398  0.3704  0.1084
  188bbb     H1 5425   7.903   2.506   9.833  3.5900  4.1053  3.1317
  188bbb     H2 5426   7.744   2.542   9.759  1.4705 -0.8971 -0.7435
  188bbb     C2 5427   7.928   2.711   9.670 -0.0565 -0.3191 -0.3667
  188bbb     H3 5428   8.024   2.660   9.686  1.2752  1.4308 -2.3117
  188bbb     H4 5429   7.954   2.814   9.644  4.8204 -1.1820  0.2792
  188bbb     C3 5430   7.920   2.800   9.904 -0.0162 -0.0463 -0.2007
  188bbb     H5 5431   8.016   2.748   9.917 -0.7225 -1.6618 -1.0337
  188bbb     H6 5432   7.859   2.794   9.995 -0.5838 -0.7775 -0.6167
  188bbb     C4 5433   7.929   2.946   9.865  0.4531  0.0401  0.1856
  188bbb     H7 5434   7.850   2.968   9.793  2.2701 -0.1029 -1.9470
  188bbb     H8 5435   8.022   2.957   9.808 -0.5996 -0.0564 -1.6158
  188bbb     C5 5436   7.744   2.565   9.966 -0.5538  0.2972 -0.0233
  188bbb     H9 5437   7.655   2.629   9.971 -0.7460  0.1674 -1.3761
  188bbb    H10 5438   7.802   2.598  10.053 -1.3694 -1.2050  1.1358
  188bbb     C6 5439   7.867   2.641   9.546  0.8771  0.3358 -0.0056
  188bbb    H11 5440   7.764   2.678   9.540  0.2872 -1.2342  0.0633
  188bbb    H12 5441   7.864   2.533   9.560  1.6155  0.4377  1.0729
  188bbb     C7 5442   7.928   3.034   9.992  0.1149  0.0681 -0.3727
  188bbb    H13 5443   7.946   3.139   9.965 -0.2892  0.0292 -0.8059
  188bbb    H14 5444   8.009   2.991  10.052  1.3452 -0.6304 -2.4448
  188bbb     C8 5445   7.930   2.656   9.402  0.3633  0.6958 -0.1667
  188bbb    H15 5446   7.850   2.636   9.329  0.9467 -1.1977 -0.3297
  188bbb    H16 5447   8.008   2.579   9.400 -0.5027 -0.2461  0.9471
  188bbb     C9 5448   7.706   2.421  10.007 -0.0765  0.3202  0.0834
  188bbb    H17 5449   7.795   2.371  10.047 -1.0529 -1.6602 -0.1053
  188bbb    H18 5450   7.678   2.363   9.918  0.6376 -1.7446  1.1207
  188bbb     O1 5451   7.805   3.022  10.062  0.4053 -0.1184  0.0810
  189bbb     N1 5452   5.893   3.326  11.065  0.0647 -0.2615 -0.1540
  189bbb     C1 5453   5.945   3.194  11.020  0.3305  0.4585  0.2382
  189bbb     H1 5454   5.960   3.141  11.115 -0.2139  0.2050  0.1863
  189bbb     H2 5455   6.038   3.202  10.963  0.0673 -0.6749 -0.3736
  189bbb     C2 5456   5.978   3.403  11.160  0.0789  1.0508  0.6380
  189bbb     H3 5457   5.921   3.493  11.184 -0.6117  0.7953 -0.0036
  189bbb     H4 5458   6.066   3.439  11.104 -0.9166  1.2055 -0.8815
  189bbb     C3 5459   5.832   3.411  10.961  0.6924 -0.5851  0.2767
  189bbb     H5 5460   5.806   3.510  10.998 -1.9677 -0.8129 -0.7859
  189bbb     H6 5461   5.737   3.370  10.925  0.4394  0.7176 -0.5716
  189bbb     C4 5462   5.931   3.446  10.847  0.3336 -0.8293  0.6888
  189bbb     H7 5463   5.952   3.364  10.777  1.2353  1.3560 -1.7611
  189bbb     H8 5464   6.027   3.481  10.886 -0.1348  2.0491 -0.4463
  189bbb     C5 5465   5.846   3.114  10.932  0.8151  0.5021 -0.0211
  189bbb     H9 5466   5.846   3.147  10.828  0.1288  2.6011  0.5963
  189bbb    H10 5467   5.744   3.114  10.973  0.9451  1.7799  0.3614
  189bbb     C6 5468   6.014   3.333  11.292 -0.0200 -0.5166 -0.2614
  189bbb    H11 5469   6.055   3.406  11.363 -2.4757 -1.0250  1.8251
  189bbb    H12 5470   6.097   3.262  11.283  0.9334  0.4359  0.7300
  189bbb     C7 5471   5.891   3.575  10.765 -0.3367  0.6084  0.0335
  189bbb    H13 5472   5.869   3.661  10.831  0.2541  0.7022  0.1125
  189bbb    H14 5473   5.808   3.562  10.694 -0.2176  1.5028 -0.2840
  189bbb     C8 5474   5.900   3.269  11.376  0.6404 -0.2372 -0.0333
  189bbb    H15 5475   5.859   3.197  11.304  1.8190  0.4864 -1.4956
  189bbb    H16 5476   5.821   3.341  11.399  1.4451  0.3543  0.9946
  189bbb     C9 5477   5.876   2.959  10.936 -0.2611 -0.6638 -0.0779
  189bbb    H17 5478   5.824   2.912  10.852 -0.8495 -1.1078  0.5161
  189bbb    H18 5479   5.827   2.917  11.025 -1.8330  0.9196 -0.1415
  189bbb     O1 5480   6.011   3.617  10.698  0.4475  0.4793 -0.0099
  190bbb     N1 5481   6.847   3.355  10.197 -0.0801 -0.3717 -0.5808
  190bbb     C1 5482   6.793   3.392  10.326 -0.2350  0.7292  0.4407
  190bbb     H1 5483   6.688   3.362  10.336  0.4975 -1.9937  0.5777
  190bbb     H2 5484   6.808   3.500  10.341 -2.0273  1.1563 -0.5913
  190bbb     C2 5485   6.841   3.205  10.161  0.2178 -0.0122 -1.1574
  190bbb     H3 5486   6.740   3.163  10.163  0.2938 -0.2407  1.0502
  190bbb     H4 5487   6.887   3.147  10.242  0.4891  2.0574  0.2458
  190bbb     C3 5488   6.816   3.461  10.099  0.2169 -1.0627  1.1333
  190bbb     H5 5489   6.876   3.450  10.008  1.9333  1.6559  1.8210
  190bbb     H6 5490   6.831   3.556  10.152  1.0820 -1.1100  0.9847
  190bbb     C4 5491   6.659   3.464  10.062  0.3700 -0.4898 -0.1688
  190bbb     H7 5492   6.600   3.403  10.132  0.2306  0.7929  0.8679
  190bbb     H8 5493   6.650   3.428   9.959  1.5075 -1.3895  0.0325
  190bbb     C5 5494   6.854   3.311  10.446  0.3769 -0.5253  0.2159
  190bbb     H9 5495   6.819   3.208  10.460 -1.1410 -0.0224  0.2675
  190bbb    H10 5496   6.817   3.363  10.534  0.1873  0.3158 -0.3442
  190bbb     C6 5497   6.915   3.165  10.029  0.1728 -0.4902 -0.0686
  190bbb    H11 5498   6.847   3.195   9.947  0.0758 -1.2605 -0.2818
  190bbb    H12 5499   6.912   3.056  10.016 -0.0496 -0.3885 -1.0039
  190bbb     C7 5500   6.600   3.607  10.064 -0.2454  0.0591  0.0825
  190bbb    H13 5501   6.499   3.611  10.023 -0.5742  1.2103  0.9521
  190bbb    H14 5502   6.665   3.678  10.011  0.6172 -1.3064 -0.7598
  190bbb     C8 5503   7.062   3.216  10.024 -0.5614 -0.2855 -0.6224
  190bbb    H15 5504   7.091   3.228  10.129  0.3670 -2.5574 -0.5486
  190bbb    H16 5505   7.082   3.313   9.978  0.4121 -0.1071  0.1583
  190bbb     C9 5506   7.008   3.314  10.451  0.2337 -0.1717  1.0363
  190bbb    H17 5507   7.036   3.420  10.441 -0.6168  0.1441  1.8560
  190bbb    H18 5508   7.029   3.271  10.352 -0.8526 -0.9855  1.1468
  190bbb     O1 5509   6.597   3.648  10.197 -0.2526  0.1451 -0.4979
  191ccc     C1 5510   8.043   6.663  14.264  0.5075  0.1266  0.5084
  191ccc     H1 5511   8.141   6.613  14.259  0.3954  0.0180 -2.2892
  191ccc     H2 5512   8.015   6.665  14.370  0.6652 -1.1270  0.5900
  191ccc     C2 5513   7.939   6.579  14.191 -0.3286 -0.3860  0.0811
  191ccc     H3 5514   7.958   6.596  14.084  0.7670 -0.7136  0.2118
  191ccc     H4 5515   7.841   6.627  14.202 -1.0233 -1.5920 -0.6039
  191ccc     C3 5516   7.932   6.433  14.199 -0.3306  0.1208 -0.0480
  191ccc     H5 5517   8.035   6.398  14.184 -0.3246 -0.0781  0.4370
  191ccc     H6 5518   7.871   6.398  14.116  0.2523  0.4265 -0.6137
  191ccc     N1 5519   7.889   6.381  14.331  0.4223  0.7265  1.3552
  191ccc     C4 5520   7.747   6.409  14.365 -0.2766  0.9368 -0.3149
  191ccc     H7 5521   7.730   6.517  14.375  0.3417  0.8608  2.2540
  191ccc     H8 5522   7.725   6.373  14.466  0.1815  0.5257 -0.3553
  191ccc     C5 5523   7.645   6.332  14.276  0.7067 -0.2968  0.0822
  191ccc     H9 5524   7.669   6.347  14.170 -1.3236  1.3297 -0.2143
  191ccc    H10 5525   7.657   6.226  14.299 -0.5520 -0.1737  1.4950
  191ccc     C6 5526   7.497   6.374  14.281 -0.2062 -0.5243 -0.3389
  191ccc     O1 5527   7.459   6.478  14.348  0.3741  0.7628  0.0965
  191ccc     O2 5528   7.413   6.269  14.250  0.1694 -0.2244  0.8285
  191ccc    H11 5529   7.465   6.192  14.221 -0.3302 -0.6770  1.1142
  191ccc     C7 5530   7.981   6.393  14.442  0.4679 -0.6374 -0.6656
  191ccc    H12 5531   7.988   6.491  14.490  0.3136 -0.9277 -0.0321
  191ccc    H13 5532   7.951   6.328  14.526  1.2567  0.2880  0.3641
  191ccc     C8 5533   8.122   6.340  14.417 -0.7372  0.5884  0.1722
  191ccc    H14 5534   8.115   6.237  14.382  0.8514 -0.3514  2.3876
  191ccc    H15 5535   8.168   6.399  14.337  0.3718  1.5965  1.4874
  191ccc     C9 5536   8.210   6.342  14.541  1.0787  0.6733  0.4900
  191ccc     O3 5537   8.169   6.339  14.655  0.2201  0.0424 -0.6398
  191ccc     O4 5538   8.349   6.344  14.509 -0.0875 -0.1590  0.5307
  191ccc    H16 5539   8.349   6.355  14.413 -1.6280 -1.5259  0.3287
  191ccc     O5 5540   8.054   6.796  14.205  0.1269  0.2270  0.3877
  192ccc     C1 5541   8.764   6.743  14.437  0.5571  0.2535 -0.8098
  192ccc     H1 5542   8.820   6.653  14.463 -0.9724 -0.4084  0.3325
  192ccc     H2 5543   8.838   6.823  14.424  2.2017 -1.2855 -1.3222
  192ccc     C2 5544   8.674   6.765  14.561 -0.0252  0.5073  0.2838
  192ccc     H3 5545   8.747   6.772  14.642  0.4621  1.0472 -0.1928
  192ccc     H4 5546   8.622   6.670  14.582  0.5437  0.4185  1.3149
  192ccc     C3 5547   8.566   6.878  14.564 -0.2322 -0.0291  0.3329
  192ccc     H5 5548   8.489   6.866  14.488 -0.9269  1.3462  0.7762
  192ccc     H6 5549   8.611   6.974  14.534 -0.6271  0.3683  0.9954
  192ccc     N1 5550   8.493   6.897  14.688  0.2825  0.2345  0.1017
  192ccc     C4 5551   8.575   6.949  14.805 -0.2252 -0.1210  0.1749
  192ccc     H7 5552   8.655   6.891  14.850  2.5802  2.8693 -0.5629
  192ccc     H8 5553   8.517   6.977  14.894 -0.1657  1.1463 -0.1578
  192ccc     C5 5554   8.637   7.087  14.775 -0.0178  0.8624  0.0036
  192ccc     H9 5555   8.692   7.110  14.867 -0.8791 -0.1733  0.8087
  192ccc    H10 5556   8.706   7.076  14.690  0.1519  3.4510 -0.2677
  192ccc     C6 5557   8.543   7.204  14.747  0.2677  0.1591 -0.0037
  192ccc     O1 5558   8.420   7.193  14.731  0.0151 -0.4817  0.1636
  192ccc     O2 5559   8.598   7.319  14.712 -0.4980 -0.3059  0.1202
  192ccc    H11 5560   8.680   7.317  14.765 -0.5779  0.4269  0.2845
  192ccc     C7 5561   8.411   6.783  14.723 -0.6407  0.5520  0.0132
  192ccc    H12 5562   8.396   6.722  14.633 -0.1333 -0.1662  0.3958
  192ccc    H13 5563   8.463   6.707  14.783 -0.2595 -0.5865 -1.6668
  192ccc     C8 5564   8.275   6.830  14.770 -0.6554 -0.1034  0.1690
  192ccc    H14 5565   8.288   6.893  14.859 -0.9290 -0.4883  0.4861
  192ccc    H15 5566   8.224   6.882  14.688  0.9724  0.2418 -0.6714
  192ccc     C9 5567   8.179   6.720  14.803 -0.3676  0.7686 -0.3686
  192ccc     O3 5568   8.110   6.652  14.728  0.6005 -0.4333 -0.4427
  192ccc     O4 5569   8.212   6.662  14.917 -0.3455 -0.4918  0.6526
  192ccc    H16 5570   8.284   6.717  14.953  0.4826 -0.7824 -0.5073
  192ccc     O5 5571   8.682   6.733  14.320 -0.2141  0.8359  0.5818
  193ccc     C1 5572   8.977   6.828  12.181 -0.0764 -0.8486  0.1389
  193ccc     H1 5573   9.014   6.920  12.227  0.8509 -1.4413  0.6044
  193ccc     H2 5574   9.042   6.780  12.107 -1.1217 -1.6586 -0.2922
  193ccc     C2 5575   8.845   6.854  12.111 -1.1551  0.0464 -0.6224
  193ccc     H3 5576   8.786   6.920  12.177  1.6398 -1.5780  3.9883
  193ccc     H4 5577   8.785   6.764  12.094 -0.9133  0.1028 -1.8208
  193ccc     C3 5578   8.866   6.923  11.974 -0.8538  0.6031 -0.1686
  193ccc     H5 5579   8.934   6.877  11.901 -0.5552  1.0594 -0.1852
  193ccc     H6 5580   8.912   7.020  11.995  1.0999  0.1474 -1.9474
  193ccc     N1 5581   8.742   6.946  11.897 -0.0325 -0.4663 -0.5147
  193ccc     C4 5582   8.634   7.013  11.958  0.5319 -0.6815 -0.2441
  193ccc     H7 5583   8.590   6.945  12.032 -0.7593  0.5711  0.1805
  193ccc     H8 5584   8.557   7.032  11.883 -1.0031  0.3368  1.4868
  193ccc     C5 5585   8.661   7.146  12.022 -0.5620  0.0729  0.0512
  193ccc     H9 5586   8.735   7.140  12.103 -0.8752 -0.0861  0.3292
  193ccc    H10 5587   8.706   7.218  11.952 -0.4663  0.9964  1.0370
  193ccc     C6 5588   8.539   7.209  12.082 -0.3107  0.1308  0.3281
  193ccc     O1 5589   8.509   7.192  12.198 -0.0286  0.2420 -0.1151
  193ccc     O2 5590   8.466   7.271  11.983 -0.4611  0.1247  0.0402
  193ccc    H11 5591   8.530   7.253  11.912 -1.1559 -3.4558  0.1256
  193ccc     C7 5592   8.700   6.823  11.825  0.4231  0.5524 -0.1235
  193ccc    H12 5593   8.785   6.777  11.773 -1.3624 -2.7579 -0.3905
  193ccc    H13 5594   8.662   6.752  11.899  2.6663  0.6987  1.2366
  193ccc     C8 5595   8.587   6.846  11.715 -0.1702  0.3489 -0.3860
  193ccc    H14 5596   8.488   6.873  11.754 -0.8954  1.6794 -2.9419
  193ccc    H15 5597   8.605   6.936  11.656  1.6789 -0.2456 -0.8094
  193ccc     C9 5598   8.561   6.731  11.615  0.3011  0.0913  0.6458
  193ccc     O3 5599   8.584   6.743  11.497  0.4918 -0.3184  0.5156
  193ccc     O4 5600   8.520   6.613  11.666  0.0012  0.2044 -0.1643
  193ccc    H16 5601   8.499   6.629  11.760 -2.9890  0.0268 -0.7257
  193ccc     O5 5602   8.945   6.740  12.291 -0.5161 -0.0998 -0.1261
  194ccc     C1 5603   9.157   7.557  12.709  0.2358  1.0184 -0.0222
  194ccc     H1 5604   9.143   7.648  12.767  1.6341  0.4401  1.2946
  194ccc     H2 5605   9.239   7.566  12.636  0.5068  2.3940  0.4377
  194ccc     C2 5606   9.025   7.527  12.637 -1.0745  0.4959  0.0356
  194ccc     H3 5607   9.046   7.454  12.557  1.7250 -0.1076  1.2162
  194ccc     H4 5608   8.998   7.617  12.581 -1.2427  0.6728  0.4052
  194ccc     C3 5609   8.913   7.492  12.739 -0.3255  0.4137  0.2781
  194ccc     H5 5610   8.894   7.591  12.784  0.7803  1.0851 -0.6675
  194ccc     H6 5611   8.955   7.419  12.809 -1.5622 -0.5204  0.0902
  194ccc     N1 5612   8.786   7.447  12.675 -0.4520 -0.0792 -0.0309
  194ccc     C4 5613   8.786   7.312  12.607 -0.2546  0.7664  0.6550
  194ccc     H7 5614   8.775   7.231  12.680  0.8883  0.2962  0.3316
  194ccc     H8 5615   8.882   7.297  12.555  0.8349  2.1818  2.1512
  194ccc     C5 5616   8.668   7.288  12.506  0.5728 -0.3087  0.6826
  194ccc     H9 5617   8.582   7.277  12.573 -0.4936  0.1500 -0.5572
  194ccc    H10 5618   8.655   7.374  12.439  1.8903  0.6864  1.6618
  194ccc     C6 5619   8.688   7.158  12.430  0.5978  0.0427 -0.3602
  194ccc     O1 5620   8.637   7.051  12.462  0.0892 -0.7925 -0.1209
  194ccc     O2 5621   8.795   7.162  12.353 -0.4321 -0.0225  0.0918
  194ccc    H11 5622   8.811   7.252  12.318 -2.4967  0.4633  0.2819
  194ccc     C7 5623   8.664   7.489  12.741 -0.7310  0.1326  0.2427
  194ccc    H12 5624   8.663   7.598  12.757 -0.5566  0.1509  0.1245
  194ccc    H13 5625   8.574   7.466  12.682 -0.4477  0.8867 -0.5106
  194ccc     C8 5626   8.653   7.434  12.884 -0.3075  0.0156  0.0711
  194ccc    H14 5627   8.685   7.329  12.880 -0.6886 -0.0690 -1.9082
  194ccc    H15 5628   8.710   7.489  12.959  0.0185  2.8225 -2.0927
  194ccc     C9 5629   8.507   7.441  12.934  0.2496 -0.1151  0.0424
  194ccc     O3 5630   8.426   7.357  12.910 -0.1133 -0.0626  1.0222
  194ccc     O4 5631   8.469   7.561  12.988 -0.2092 -0.0104  0.1411
  194ccc    H16 5632   8.551   7.612  12.996 -0.1819  0.0833 -0.6477
  194ccc     O5 5633   9.194   7.436  12.791  0.0605  0.6443  0.6365
  195ccc     C1 5634   9.028   5.001  13.309  0.0574  0.0126 -0.6870
  195ccc     H1 5635   8.996   5.092  13.256 -2.8407 -1.2996 -1.3915
  195ccc     H2 5636   8.952   4.984  13.387  0.6094  0.8925  0.0729
  195ccc     C2 5637   9.170   4.991  13.365  0.2327 -0.7659  0.1317
  195ccc     H3 5638   9.248   4.990  13.289  1.0979 -0.1370  0.9891
  195ccc     H4 5639   9.188   4.893  13.412  2.1560 -0.3498  0.3311
  195ccc     C3 5640   9.211   5.106  13.460  0.7759  0.0921  0.3880
  195ccc     H5 5641   9.312   5.095  13.502  0.5231 -0.4495  0.8640
  195ccc     H6 5642   9.137   5.095  13.540  2.2851  2.6400  2.2974
  195ccc     N1 5643   9.196   5.246  13.397  1.0511  0.4346  0.0750
  195ccc     C4 5644   9.210   5.356  13.494  0.6867 -1.0637 -1.0743
  195ccc     H7 5645   9.196   5.450  13.441  2.1988 -0.2188 -0.0212
  195ccc     H8 5646   9.306   5.361  13.546  1.2047 -1.1808 -2.0061
  195ccc     C5 5647   9.103   5.341  13.609  0.3818  0.1630  0.1421
  195ccc     H9 5648   9.010   5.300  13.568 -0.1297  1.3854  0.0232
  195ccc    H10 5649   9.142   5.284  13.694 -2.0057 -0.6219  0.7832
  195ccc     C6 5650   9.066   5.468  13.677 -0.4742 -0.2433 -0.9913
  195ccc     O1 5651   9.101   5.574  13.643 -0.3727 -0.1420  0.1744
  195ccc     O2 5652   8.958   5.459  13.754  0.0740  0.1685  0.5209
  195ccc    H11 5653   8.953   5.368  13.787  2.2484 -0.4376 -0.6515
  195ccc     C7 5654   9.285   5.263  13.282  0.2457  0.1615 -0.7042
  195ccc    H12 5655   9.392   5.265  13.308  0.2474  0.1301 -0.7077
  195ccc    H13 5656   9.259   5.181  13.213 -2.4594  0.5811 -0.3046
  195ccc     C8 5657   9.254   5.388  13.204 -0.2383  0.1528 -0.4140
  195ccc    H14 5658   9.150   5.420  13.201 -0.3247 -0.0978 -3.5021
  195ccc    H15 5659   9.298   5.472  13.259 -0.2880 -0.5108  0.6813
  195ccc     C9 5660   9.312   5.394  13.062 -0.5213 -0.3731 -0.2711
  195ccc     O3 5661   9.427   5.428  13.026  0.8729 -0.4658  0.2466
  195ccc     O4 5662   9.233   5.331  12.980  0.1639 -0.0398  0.3013
  195ccc    H16 5663   9.151   5.328  13.032  0.5615  1.4639  1.0680
  195ccc     O5 5664   9.016   4.901  13.216 -0.0658  0.6896 -0.1586
  196ccc     C1 5665   8.471   4.034  13.250  0.0233  0.7298  0.0022
  196ccc     H1 5666   8.514   4.005  13.347 -1.3640  0.5493  0.6045
  196ccc     H2 5667   8.362   4.041  13.265  0.1591  0.0267  1.4902
  196ccc     C2 5668   8.505   3.930  13.137  0.2773  0.5218 -1.0431
  196ccc     H3 5669   8.545   3.843  13.190 -1.5769  0.5022  0.4405
  196ccc     H4 5670   8.593   3.967  13.083  3.0668 -3.0225  0.5752
  196ccc     C3 5671   8.383   3.892  13.052  0.2594 -0.2484 -0.4504
  196ccc     H5 5672   8.361   3.967  12.975  1.0124  0.8415  0.3648
  196ccc     H6 5673   8.301   3.903  13.124  0.0410  3.2954 -1.0810
  196ccc     N1 5674   8.389   3.756  12.990 -0.2343  0.0525  1.7210
  196ccc     C4 5675   8.260   3.687  12.979 -0.4130 -0.1469 -0.7192
  196ccc     H7 5676   8.210   3.705  13.075  2.2051 -0.1457  0.7289
  196ccc     H8 5677   8.288   3.581  12.975 -1.6654 -0.5505  0.2360
  196ccc     C5 5678   8.165   3.728  12.861 -0.7855 -0.3465 -0.2718
  196ccc     H9 5679   8.122   3.827  12.881  1.2030  0.4866  0.1186
  196ccc    H10 5680   8.224   3.732  12.769  1.1920  2.1547  0.9910
  196ccc     C6 5681   8.047   3.625  12.842 -0.4693  0.3890  0.6667
  196ccc     O1 5682   8.033   3.530  12.911  0.2482 -0.2643 -0.1695
  196ccc     O2 5683   7.975   3.651  12.733  0.0503 -0.1167  0.5000
  196ccc    H11 5684   8.007   3.729  12.684  1.1935 -0.7460  0.2031
  196ccc     C7 5685   8.481   3.747  12.866 -0.1534  0.2712 -0.1302
  196ccc    H12 5686   8.431   3.792  12.779  0.7154 -1.7261 -1.7460
  196ccc    H13 5687   8.567   3.813  12.881 -0.0161 -0.0583  0.5497
  196ccc     C8 5688   8.517   3.601  12.818  0.0858 -0.9144  0.8440
  196ccc    H14 5689   8.587   3.569  12.896  2.4733  0.6506 -0.5035
  196ccc    H15 5690   8.428   3.538  12.806  0.2740 -0.9712 -0.4685
  196ccc     C9 5691   8.604   3.604  12.695 -0.0173  0.3445 -0.3191
  196ccc     O3 5692   8.623   3.697  12.625 -0.1716 -0.3222  0.6132
  196ccc     O4 5693   8.662   3.486  12.670 -0.7256 -0.3695  0.6094
  196ccc    H16 5694   8.638   3.441  12.753 -0.9701 -0.0745  0.7010
  196ccc     O5 5695   8.524   4.166  13.203 -0.2717 -0.4691 -0.3046
  197ccc     C1 5696   8.776   5.206  11.964  0.5253 -0.0506  0.5567
  197ccc     H1 5697   8.688   5.261  12.000 -0.1368  0.0916 -1.2003
  197ccc     H2 5698   8.834   5.269  11.896 -0.0543 -1.6464 -1.5200
  197ccc     C2 5699   8.742   5.072  11.889 -0.1539 -0.3157 -0.0235
  197ccc     H3 5700   8.698   5.000  11.959  0.4513  0.9727  1.7695
  197ccc     H4 5701   8.836   5.026  11.857  1.4693  1.7893  1.4188
  197ccc     C3 5702   8.645   5.080  11.771 -0.0665  0.4084  0.0449
  197ccc     H5 5703   8.677   5.164  11.709  2.7995 -0.8515 -0.3639
  197ccc     H6 5704   8.550   5.110  11.817  1.1269  1.0082  2.2579
  197ccc     N1 5705   8.616   4.961  11.686  0.3992 -0.4251  0.2476
  197ccc     C4 5706   8.743   4.932  11.609 -0.4546  0.1596  0.6115
  197ccc     H7 5707   8.745   4.830  11.569  1.0163  0.1886  0.5907
  197ccc     H8 5708   8.823   4.942  11.683 -2.1122 -0.7518  2.6323
  197ccc     C5 5709   8.772   5.022  11.488  0.2988 -0.0796 -0.1613
  197ccc     H9 5710   8.678   5.015  11.431  0.2105  3.0545 -0.5995
  197ccc    H10 5711   8.777   5.129  11.512 -0.1929  0.1188 -0.9031
  197ccc     C6 5712   8.902   4.992  11.416  0.0672 -0.3923  0.6087
  197ccc     O1 5713   8.980   4.902  11.443 -0.5463  0.3728 -0.5271
  197ccc     O2 5714   8.914   5.037  11.289 -0.1038 -0.1180 -0.3281
  197ccc    H11 5715   8.836   5.093  11.278  0.3216  0.9277  1.5563
  197ccc     C7 5716   8.564   4.842  11.757 -0.3630  1.1691  0.3517
  197ccc    H12 5717   8.558   4.759  11.686 -0.4701  2.0286 -0.6726
  197ccc    H13 5718   8.631   4.816  11.840  0.0697 -1.5143 -0.7457
  197ccc     C8 5719   8.421   4.862  11.817 -0.5270  0.5588  0.4187
  197ccc    H14 5720   8.436   4.934  11.899  1.5575 -1.0827  1.5774
  197ccc    H15 5721   8.357   4.910  11.742  0.7409  2.6787  0.6069
  197ccc     C9 5722   8.365   4.732  11.870 -0.2868 -0.1907 -0.6543
  197ccc     O3 5723   8.405   4.620  11.853  0.1152 -0.2407 -1.0633
  197ccc     O4 5724   8.245   4.755  11.930 -0.2900  0.1729  0.4305
  197ccc    H16 5725   8.233   4.851  11.917 -0.7566  0.1246  0.4745
  197ccc     O5 5726   8.859   5.166  12.078 -0.0794  0.4632  0.2506
  198ccc     C1 5727   9.436   5.468  12.405 -0.3700  0.2723  0.6510
  198ccc     H1 5728   9.527   5.479  12.465 -1.1606  1.2728  1.7169
  198ccc     H2 5729   9.429   5.364  12.370  1.8941  0.3311 -0.1618
  198ccc     C2 5730   9.435   5.558  12.284 -0.0049 -0.1738 -0.5792
  198ccc     H3 5731   9.529   5.532  12.232  0.9641  0.4767  0.7872
  198ccc     H4 5732   9.452   5.662  12.314  1.8105 -1.2648  2.6458
  198ccc     C3 5733   9.314   5.538  12.197  0.5300  0.8132 -0.1210
  198ccc     H5 5734   9.232   5.516  12.267  2.4231 -2.5913  1.2910
  198ccc     H6 5735   9.335   5.444  12.144  1.1363 -1.3347  3.5675
  198ccc     N1 5736   9.281   5.650  12.108  0.1275  0.8111 -0.1676
  198ccc     C4 5737   9.147   5.629  12.038  0.5739 -0.9694  0.1761
  198ccc     H7 5738   9.142   5.532  11.985 -1.6259 -1.5718  1.3583
  198ccc     H8 5739   9.113   5.717  11.981 -1.0694  0.5929  3.3198
  198ccc     C5 5740   9.024   5.633  12.137  0.1691  0.0866 -0.0254
  198ccc     H9 5741   9.035   5.554  12.213 -0.5094  0.7440  0.7787
  198ccc    H10 5742   9.030   5.733  12.182  1.3256 -0.1685  0.4071
  198ccc     C6 5743   8.886   5.599  12.065 -0.4219 -1.2644  0.3217
  198ccc     O1 5744   8.870   5.608  11.945  0.0963  0.5966  0.0455
  198ccc     O2 5745   8.775   5.605  12.140 -0.1822 -0.4165 -0.3830
  198ccc    H11 5746   8.798   5.576  12.230  1.3183 -1.3109 -1.0224
  198ccc     C7 5747   9.391   5.678  12.018 -0.3005 -0.7683  0.2408
  198ccc    H12 5748   9.489   5.683  12.066 -0.2006 -3.1303  0.4094
  198ccc    H13 5749   9.385   5.607  11.935 -0.8248  1.8773 -2.1251
  198ccc     C8 5750   9.354   5.812  11.951 -0.3486 -0.5910  0.0974
  198ccc    H14 5751   9.275   5.802  11.876 -0.3978 -1.3463  0.2433
  198ccc    H15 5752   9.309   5.880  12.024  1.2722  1.6327 -0.8557
  198ccc     C9 5753   9.482   5.889  11.898 -0.0229 -0.5550 -0.0298
  198ccc     O3 5754   9.571   5.919  11.976  0.3168  0.4785 -0.1901
  198ccc     O4 5755   9.526   5.839  11.777 -0.0061 -0.1213 -0.5823
  198ccc    H16 5756   9.444   5.797  11.746  0.7100 -1.2762 -0.9787
  198ccc     O5 5757   9.320   5.500  12.487 -0.0348 -0.5448  0.2867
  199ccc     C1 5758   5.423   6.081  13.144 -0.3080  0.2235  0.3024
  199ccc     H1 5759   5.385   6.182  13.127 -2.0762 -0.3546  0.6310
  199ccc     H2 5760   5.530   6.084  13.120 -0.4672  1.5908 -0.3408
  199ccc     C2 5761   5.354   5.988  13.044 -0.1214  0.7171 -0.0052
  199ccc     H3 5762   5.371   6.036  12.947  0.8003 -0.5984 -0.5260
  199ccc     H4 5763   5.245   5.987  13.056 -0.0030 -0.0060  1.2180
  199ccc     C3 5764   5.403   5.838  13.043 -0.0526 -0.4920 -0.8012
  199ccc     H5 5765   5.356   5.777  13.122  0.6592  2.2139  1.9092
  199ccc     H6 5766   5.507   5.843  13.075  0.1113  0.6151 -1.4390
  199ccc     N1 5767   5.402   5.782  12.912 -0.4531  0.2106 -0.3595
  199ccc     C4 5768   5.474   5.649  12.915 -0.7056  0.5378 -0.4559
  199ccc     H7 5769   5.410   5.573  12.963  1.0509 -0.4144  0.5140
  199ccc     H8 5770   5.561   5.651  12.982  0.6891 -0.6948 -2.1301
  199ccc     C5 5771   5.515   5.597  12.776 -0.8386 -0.3498  0.3848
  199ccc     H9 5772   5.430   5.583  12.708  0.3279 -0.1273 -1.1711
  199ccc    H10 5773   5.585   5.666  12.726 -0.5703 -0.5673  0.4639
  199ccc     C6 5774   5.582   5.462  12.784 -0.6967 -0.2655 -0.7817
  199ccc     O1 5775   5.688   5.439  12.841 -0.1280  0.4103  0.0457
  199ccc     O2 5776   5.507   5.364  12.732 -0.0440 -0.3987  0.0221
  199ccc    H11 5777   5.431   5.407  12.690  0.4644 -0.8182 -1.3679
  199ccc     C7 5778   5.274   5.787  12.835  0.3715 -0.6068 -0.8191
  199ccc    H12 5779   5.240   5.891  12.829  1.6149 -0.2018 -1.0159
  199ccc    H13 5780   5.292   5.757  12.731 -1.2860  0.4111 -1.4535
  199ccc     C8 5781   5.159   5.711  12.893 -0.6705  0.6098 -0.0437
  199ccc    H14 5782   5.183   5.605  12.911 -0.2091  0.6723 -0.2715
  199ccc    H15 5783   5.132   5.752  12.991 -0.7972  0.9595 -0.2253
  199ccc     C9 5784   5.027   5.716  12.809 -0.2744  0.0331 -0.3783
  199ccc     O3 5785   5.028   5.739  12.688  0.1288 -0.0756 -0.7339
  199ccc     O4 5786   4.925   5.643  12.859 -0.1258 -0.2585 -0.5989
  199ccc    H16 5787   4.943   5.637  12.955 -0.0740 -1.7768 -0.6866
  199ccc     O5 5788   5.385   6.039  13.276 -0.8513 -0.5354 -0.0643
  200ccc     C1 5789   6.101   6.345  13.874  1.0656  0.0231 -0.1785
  200ccc     H1 5790   6.178   6.273  13.845 -0.4468 -2.1613  0.9064
  200ccc     H2 5791   6.087   6.421  13.797 -2.8095  0.2093  0.4702
  200ccc     C2 5792   6.146   6.415  13.999 -0.4970 -0.3997  0.0026
  200ccc     H3 5793   6.250   6.447  13.990  0.1291 -2.7198 -2.0841
  200ccc     H4 5794   6.149   6.345  14.084 -0.4789 -1.1175 -0.5841
  200ccc     C3 5795   6.056   6.539  14.021  0.6127 -0.6493  0.1045
  200ccc     H5 5796   5.959   6.499  14.053  0.1171  1.7658  1.8754
  200ccc     H6 5797   6.039   6.595  13.928  0.2718 -3.5356 -1.6878
  200ccc     N1 5798   6.112   6.629  14.123  0.2999  0.0948 -0.1646
  200ccc     C4 5799   6.213   6.730  14.088 -0.6416 -0.2314 -0.7140
  200ccc     H7 5800   6.308   6.675  14.081 -1.0851 -1.1119  0.0254
  200ccc     H8 5801   6.234   6.803  14.168  1.6992 -0.6856 -0.8438
  200ccc     C5 5802   6.189   6.808  13.953  0.5058 -0.9301  0.3487
  200ccc     H9 5803   6.179   6.732  13.874  2.7778 -0.0902 -0.8359
  200ccc    H10 5804   6.101   6.872  13.956  1.6354  0.7369 -0.5687
  200ccc     C6 5805   6.308   6.894  13.909  0.4280  0.1196  0.2202
  200ccc     O1 5806   6.411   6.928  13.967  0.1718  0.4668  0.2494
  200ccc     O2 5807   6.287   6.927  13.775  0.2161 -0.2016  0.4278
  200ccc    H11 5808   6.200   6.897  13.744  0.2842  0.3025 -0.2872
  200ccc     C7 5809   6.130   6.563  14.258 -0.0311 -0.1864 -0.0975
  200ccc    H12 5810   6.212   6.493  14.273 -0.5484 -0.7400  0.2028
  200ccc    H13 5811   6.158   6.652  14.317 -0.8691 -0.0373  0.0953
  200ccc     C8 5812   6.003   6.496  14.312  1.1297  0.0697  0.3313
  200ccc    H14 5813   5.911   6.556  14.308 -0.3377 -2.1100 -1.2002
  200ccc    H15 5814   5.981   6.411  14.246  0.2651  1.2524 -0.9598
  200ccc     C9 5815   6.023   6.450  14.461 -0.2310  0.7322  0.6652
  200ccc     O3 5816   6.122   6.474  14.526 -0.0827 -0.2320  0.6012
  200ccc     O4 5817   5.929   6.356  14.500  0.1034  0.4766 -0.8095
  200ccc    H16 5818   5.857   6.367  14.435  0.5031  0.7250 -1.2154
  200ccc     O5 5819   5.976   6.285  13.908 -1.1299 -0.0215  0.3653
  201ccc     C1 5820   7.353   5.444  14.549  0.4801  0.0755  1.5737
  201ccc     H1 5821   7.426   5.481  14.622  0.3155  0.1608  1.6932
  201ccc     H2 5822   7.294   5.372  14.608  0.5391 -1.4887 -0.1719
  201ccc     C2 5823   7.413   5.373  14.427 -0.6739 -0.0072  0.4847
  201ccc     H3 5824   7.335   5.335  14.361  0.0089  0.6863 -0.7568
  201ccc     H4 5825   7.479   5.295  14.468  0.4544  0.4360 -0.4429
  201ccc     C3 5826   7.513   5.466  14.348 -0.4621  0.0337 -0.2629
  201ccc     H5 5827   7.569   5.529  14.418  1.5441 -1.8061 -0.1225
  201ccc     H6 5828   7.454   5.534  14.286 -1.0410  0.9381  1.2113
  201ccc     N1 5829   7.616   5.389  14.272  0.2213  0.0886 -0.3659
  201ccc     C4 5830   7.732   5.464  14.223  0.1879  1.0043 -0.3215
  201ccc     H7 5831   7.688   5.507  14.132 -0.6743  2.3736  0.7106
  201ccc     H8 5832   7.807   5.387  14.200  1.4087  0.7053  3.8672
  201ccc     C5 5833   7.805   5.576  14.304  0.3582 -0.0121  0.3290
  201ccc     H9 5834   7.881   5.625  14.241  0.5197  0.2777  0.7439
  201ccc    H10 5835   7.750   5.667  14.331  0.1103  0.1292 -0.6259
  201ccc     C6 5836   7.878   5.510  14.420 -0.5660  0.5794 -0.0880
  201ccc     O1 5837   7.995   5.535  14.453 -0.1101 -0.5866 -0.1164
  201ccc     O2 5838   7.820   5.407  14.481  0.0205  0.0337 -0.3747
  201ccc    H11 5839   7.752   5.398  14.413 -0.4277 -1.0449  0.1862
  201ccc     C7 5840   7.546   5.300  14.175 -0.3364 -0.3028 -0.3849
  201ccc    H12 5841   7.460   5.244  14.214 -1.6435  1.5212 -0.5192
  201ccc    H13 5842   7.511   5.370  14.098  0.5548  0.2979 -0.2604
  201ccc     C8 5843   7.633   5.189  14.110 -0.2125  0.1766  0.0502
  201ccc    H14 5844   7.725   5.232  14.067  0.6861 -1.1697  0.5732
  201ccc    H15 5845   7.668   5.127  14.194 -0.2926 -0.6630 -0.5242
  201ccc     C9 5846   7.573   5.096  14.002 -0.5337 -0.0639 -0.4018
  201ccc     O3 5847   7.492   5.130  13.917 -0.3658 -0.2643  0.2632
  201ccc     O4 5848   7.665   4.998  13.981 -1.1758  0.1013 -0.2813
  201ccc    H16 5849   7.735   5.002  14.048 -2.3019 -0.4448  0.9985
  201ccc     O5 5850   7.262   5.546  14.502  0.1253  0.2991  1.0449
  202ccc     C1 5851   6.947   6.364  14.618 -0.0492  0.5603 -0.7891
  202ccc     H1 5852   6.905   6.313  14.530  0.6325 -0.9547 -0.2829
  202ccc     H2 5853   6.887   6.336  14.706 -0.3673 -1.5988 -1.6197
  202ccc     C2 5854   6.933   6.512  14.597  1.1250 -0.2389  0.0045
  202ccc     H3 5855   6.931   6.564  14.694 -3.6105 -0.8748  0.4919
  202ccc     H4 5856   6.830   6.535  14.569  1.2321  1.1622  0.6475
  202ccc     C3 5857   7.029   6.578  14.491  0.2262  0.4040  0.5130
  202ccc     H5 5858   7.037   6.502  14.411 -1.7317 -1.0667  1.6209
  202ccc     H6 5859   7.124   6.583  14.544 -0.0675  2.6218  0.9176
  202ccc     N1 5860   6.992   6.713  14.445 -0.5104 -0.1645 -0.2668
  202ccc     C4 5861   7.026   6.808  14.559  0.2530  0.0077  1.3544
  202ccc     H7 5862   7.132   6.807  14.586  0.3880  3.4760  1.4750
  202ccc     H8 5863   6.977   6.782  14.654 -0.8921  0.5409  0.9349
  202ccc     C5 5864   6.979   6.955  14.527  0.1880 -0.2244  0.6872
  202ccc     H9 5865   7.036   7.015  14.455  0.0748  0.4519  1.1554
  202ccc    H10 5866   6.882   6.949  14.476  1.4361  0.7162 -1.9628
  202ccc     C6 5867   6.975   7.033  14.660  0.9613 -0.1114  0.1268
  202ccc     O1 5868   6.870   7.049  14.720 -0.2434 -0.4518 -0.3948
  202ccc     O2 5869   7.089   7.059  14.720  0.1109 -0.5081  0.0342
  202ccc    H11 5870   7.157   7.041  14.653 -0.5962 -2.9735 -0.1328
  202ccc     C7 5871   7.051   6.744  14.311  0.3659  0.2808  0.5682
  202ccc    H12 5872   7.018   6.667  14.239  1.0460  0.4088  0.1091
  202ccc    H13 5873   7.006   6.837  14.275 -0.4482  0.4670  2.0194
  202ccc     C8 5874   7.207   6.754  14.315  0.2864  0.0260 -1.0840
  202ccc    H14 5875   7.229   6.830  14.392  2.2355 -1.6460  0.1225
  202ccc    H15 5876   7.256   6.660  14.342  1.9012  1.0393 -0.3266
  202ccc     C9 5877   7.269   6.793  14.180 -0.9593 -0.2132  0.5168
  202ccc     O3 5878   7.213   6.766  14.079 -0.0288 -0.3447  0.6350
  202ccc     O4 5879   7.390   6.846  14.183 -0.2319 -0.4941 -0.2065
  202ccc    H16 5880   7.397   6.892  14.268  1.9382  1.8689 -1.5262
  202ccc     O5 5881   7.082   6.324  14.629 -0.3303  0.8210  0.2771
  203ccc     C1 5882   8.156   5.860  14.586  0.3869  0.2354 -0.4175
  203ccc     H1 5883   8.235   5.827  14.655  0.6984  1.7870  0.0126
  203ccc     H2 5884   8.087   5.781  14.556  0.7371 -1.0092  1.8504
  203ccc     C2 5885   8.222   5.928  14.466 -0.3688 -0.1083 -0.6761
  203ccc     H3 5886   8.269   6.020  14.502 -0.3818 -0.1148 -0.6433
  203ccc     H4 5887   8.150   5.963  14.391  1.3898  1.9780 -1.5365
  203ccc     C3 5888   8.325   5.837  14.396 -0.5460  0.1537 -0.6252
  203ccc     H5 5889   8.279   5.737  14.394  0.1221 -0.2828  2.2387
  203ccc     H6 5890   8.413   5.828  14.461 -0.6008  2.5853 -0.1153
  203ccc     N1 5891   8.353   5.900  14.270  0.0548 -0.1626 -0.1849
  203ccc     C4 5892   8.493   5.938  14.243  0.2400  1.1455  0.1316
  203ccc     H7 5893   8.510   5.985  14.146 -1.8882 -2.0903 -2.0236
  203ccc     H8 5894   8.547   5.843  14.236  0.5396  1.1553  1.8533
  203ccc     C5 5895   8.548   6.025  14.351 -0.1485 -0.0120  0.0725
  203ccc     H9 5896   8.474   6.102  14.376 -0.5042 -0.4809  0.4781
  203ccc    H10 5897   8.569   5.967  14.442  0.0026  2.6959  1.8828
  203ccc     C6 5898   8.677   6.089  14.310 -0.0685  0.9077 -0.1277
  203ccc     O1 5899   8.702   6.111  14.194 -0.3496  0.4536 -0.1288
  203ccc     O2 5900   8.762   6.135  14.402 -0.3333  0.2317  0.2254
  203ccc    H11 5901   8.722   6.098  14.484  1.5178 -0.0727  1.0369
  203ccc     C7 5902   8.272   5.854  14.154  0.0162 -0.3427 -0.1389
  203ccc    H12 5903   8.333   5.795  14.084  2.3335  1.7587 -0.0015
  203ccc    H13 5904   8.187   5.796  14.191  0.1132  0.8512  2.1270
  203ccc     C8 5905   8.213   5.976  14.072 -0.4895 -0.1337 -0.0191
  203ccc    H14 5906   8.144   5.929  14.001  0.4002 -0.2514 -0.8169
  203ccc    H15 5907   8.168   6.052  14.138 -1.1536 -0.5562  0.0315
  203ccc     C9 5908   8.309   6.061  13.988  0.2857 -0.1153 -0.6189
  203ccc     O3 5909   8.352   6.175  14.012 -0.2690 -0.4974  0.1023
  203ccc     O4 5910   8.364   5.990  13.889 -0.3160  0.1205  0.6952
  203ccc    H16 5911   8.335   5.897  13.890 -0.0060  0.0257  1.5607
  203ccc     O5 5912   8.074   5.960  14.649 -0.0896 -0.1341  0.3586
  204ccc     C1 5913   7.340   5.707  15.083 -0.0033  0.0543  0.0826
  204ccc     H1 5914   7.339   5.604  15.118  2.2760  0.0487  0.3137
  204ccc     H2 5915   7.390   5.778  15.151  0.8654 -0.0495 -0.4272
  204ccc     C2 5916   7.189   5.760  15.065 -0.1703 -0.4831 -0.1353
  204ccc     H3 5917   7.189   5.853  15.007  2.4559 -0.6903 -0.5884
  204ccc     H4 5918   7.163   5.782  15.170  1.2690 -2.4034  0.6797
  204ccc     C3 5919   7.099   5.649  14.995 -0.6381 -0.7758  0.3688
  204ccc     H5 5920   7.090   5.568  15.068 -0.7991  0.1530  1.4196
  204ccc     H6 5921   7.150   5.622  14.902 -2.0543 -0.6635 -0.4716
  204ccc     N1 5922   6.961   5.685  14.955 -0.3955 -0.5956  0.3631
  204ccc     C4 5923   6.900   5.576  14.871 -0.3355 -0.2357 -0.0315
  204ccc     H7 5924   6.977   5.538  14.803 -0.1730  1.1907 -0.6989
  204ccc     H8 5925   6.824   5.618  14.804 -0.1198  0.6383  0.2524
  204ccc     C5 5926   6.833   5.469  14.958 -0.1538  0.1061  0.7544
  204ccc     H9 5927   6.918   5.422  15.010 -0.6278 -0.3166  1.1511
  204ccc    H10 5928   6.762   5.516  15.027  0.4558  2.6692 -0.2508
  204ccc     C6 5929   6.766   5.373  14.869  1.5986 -0.9665  0.4115
  204ccc     O1 5930   6.664   5.399  14.802  0.4828  0.2007 -0.4363
  204ccc     O2 5931   6.837   5.264  14.839 -0.0129 -0.4132 -0.1258
  204ccc    H11 5932   6.928   5.280  14.871 -0.3858  0.4540  0.5659
  204ccc     C7 5933   6.880   5.739  15.064  0.3981 -0.1125 -0.0968
  204ccc    H12 5934   6.867   5.661  15.140 -1.5853 -0.6883 -0.9572
  204ccc    H13 5935   6.928   5.821  15.119 -2.2819 -0.5511  3.2010
  204ccc     C8 5936   6.749   5.816  15.023 -0.2378  0.3228  0.5064
  204ccc    H14 5937   6.781   5.904  14.965 -2.1315 -0.2117 -1.5156
  204ccc    H15 5938   6.678   5.754  14.966  0.1635  0.3155  0.0093
  204ccc     C9 5939   6.671   5.869  15.145 -0.5146 -0.0329  0.2806
  204ccc     O3 5940   6.681   5.976  15.199  0.0492  0.4433  0.5898
  204ccc     O4 5941   6.568   5.783  15.183 -0.5158  0.0610 -0.5157
  204ccc    H16 5942   6.563   5.706  15.123 -0.0282  0.4473 -1.0631
  204ccc     O5 5943   7.400   5.701  14.953 -0.3358 -0.1637 -0.4130
  205ccc     C1 5944   8.675   5.591  13.829 -1.1174  0.4117 -0.2654
  205ccc     H1 5945   8.726   5.498  13.855 -2.1803  0.0962  0.7778
  205ccc     H2 5946   8.719   5.620  13.732  1.5616 -0.9193  0.4675
  205ccc     C2 5947   8.714   5.689  13.944 -0.0356 -0.2420 -0.5743
  205ccc     H3 5948   8.821   5.667  13.960  0.1928 -0.9023 -2.7389
  205ccc     H4 5949   8.663   5.661  14.037  0.9934  1.8821  0.7147
  205ccc     C3 5950   8.684   5.843  13.912 -0.2176  0.1979  0.1443
  205ccc     H5 5951   8.717   5.904  13.997 -1.0302  0.7762  0.0555
  205ccc     H6 5952   8.575   5.859  13.906 -0.0610  0.8946 -1.0765
  205ccc     N1 5953   8.750   5.886  13.787 -0.2716 -0.5993 -0.0277
  205ccc     C4 5954   8.894   5.903  13.803 -0.1385 -0.1824  0.9411
  205ccc     H7 5955   8.941   5.811  13.840  1.3432  0.6068  1.0693
  205ccc     H8 5956   8.917   5.982  13.875  0.8035 -0.2780  0.7536
  205ccc     C5 5957   8.959   5.943  13.666 -0.5173  0.1889  0.7929
  205ccc     H9 5958   8.930   5.876  13.585  4.5447 -0.7351 -0.5525
  205ccc    H10 5959   8.921   6.043  13.640  1.1644  0.9525  1.1113
  205ccc     C6 5960   9.116   5.949  13.676 -0.3438 -0.7626 -0.4101
  205ccc     O1 5961   9.169   6.063  13.668 -0.0114  0.6220  0.4531
  205ccc     O2 5962   9.192   5.835  13.692  0.0586  0.0409  0.7340
  205ccc    H11 5963   9.132   5.761  13.676  1.4274 -0.9966  0.2154
  205ccc     C7 5964   8.677   5.997  13.723  0.1036  0.0615 -0.3158
  205ccc    H12 5965   8.712   6.008  13.620  0.7126  0.0403 -0.1163
  205ccc    H13 5966   8.572   5.967  13.724 -0.4588  1.4751  4.0437
  205ccc     C8 5967   8.686   6.135  13.796  0.4267 -0.7611 -0.0912
  205ccc    H14 5968   8.645   6.131  13.897  0.6557 -2.5406 -0.0444
  205ccc    H15 5969   8.793   6.159  13.789  0.8452 -2.8609 -3.4956
  205ccc     C9 5970   8.612   6.245  13.720  0.3350 -0.2108 -0.0092
  205ccc     O3 5971   8.644   6.277  13.609  0.0772 -0.8631  0.1670
  205ccc     O4 5972   8.554   6.334  13.800  0.0259  0.7549 -0.1850
  205ccc    H16 5973   8.534   6.289  13.884  0.1359 -1.3285 -1.2109
  205ccc     O5 5974   8.533   5.564  13.817  0.5025  0.2315  0.9841
  206ccc     C1 5975   8.285   6.031  13.516 -0.4625 -0.2101  0.1358
  206ccc     H1 5976   8.301   6.000  13.620  1.0057 -0.0965 -0.0235
  206ccc     H2 5977   8.365   6.104  13.498 -0.8088  0.5010  1.4115
  206ccc     C2 5978   8.149   6.092  13.478 -0.5794  0.7449 -0.0735
  206ccc     H3 5979   8.070   6.025  13.513  0.4708 -0.1242  0.7075
  206ccc     H4 5980   8.161   6.093  13.369  1.0310  0.2587  0.0782
  206ccc     C3 5981   8.129   6.237  13.531 -0.3452  0.0807  0.0923
  206ccc     H5 5982   8.040   6.273  13.477 -0.1774  0.7925  0.2796
  206ccc     H6 5983   8.209   6.294  13.483 -0.5665 -0.1199 -0.5283
  206ccc     N1 5984   8.134   6.267  13.671  0.4140 -0.0141  0.0936
  206ccc     C4 5985   8.059   6.171  13.755 -0.2865 -0.3431  0.1807
  206ccc     H7 5986   8.080   6.192  13.860 -0.4579  0.0371  0.1390
  206ccc     H8 5987   8.093   6.067  13.745 -0.2195 -0.3247  0.2214
  206ccc     C5 5988   7.903   6.179  13.735 -0.1501  0.4096 -0.2945
  206ccc     H9 5989   7.872   6.281  13.712 -2.4325 -0.3262 -0.6835
  206ccc    H10 5990   7.864   6.124  13.648 -3.0652  1.8710 -0.0191
  206ccc     C6 5991   7.821   6.139  13.856  0.1636 -0.2034  0.1605
  206ccc     O1 5992   7.866   6.100  13.957 -0.0676 -0.1571  0.1179
  206ccc     O2 5993   7.696   6.179  13.845  0.4053  0.1423 -0.2669
  206ccc    H11 5994   7.682   6.190  13.750 -0.6976  1.4029  0.0123
  206ccc     C7 5995   8.125   6.413  13.720 -0.1315 -0.5313 -0.7852
  206ccc    H12 5996   8.029   6.447  13.678 -0.1130  0.0834 -0.3381
  206ccc    H13 5997   8.114   6.423  13.829  0.1895  1.4203 -0.8919
  206ccc     C8 5998   8.241   6.509  13.673  0.0936 -0.2980  0.2326
  206ccc    H14 5999   8.340   6.471  13.703 -0.1222 -0.6498  0.5129
  206ccc    H15 6000   8.249   6.513  13.564 -1.3081 -0.7068  0.0919
  206ccc     C9 6001   8.218   6.652  13.726  0.1681  0.4263  0.0815
  206ccc     O3 6002   8.106   6.702  13.730 -0.4114  0.0392  0.6206
  206ccc     O4 6003   8.311   6.736  13.682 -0.1506 -0.2528 -0.5085
  206ccc    H16 6004   8.393   6.684  13.673  0.4132  0.1032  2.0174
  206ccc     O5 6005   8.309   5.910  13.437  0.1499 -0.0920  0.3878
  207ccc     C1 6006   8.080   7.009   9.316 -0.7286  0.3688 -0.0242
  207ccc     H1 6007   8.044   6.968   9.411 -0.2666 -0.9987 -0.4073
  207ccc     H2 6008   8.075   6.930   9.240 -1.1482 -1.7486  2.0570
  207ccc     C2 6009   8.233   7.045   9.322  0.5522 -0.0058  0.3788
  207ccc     H3 6010   8.297   6.959   9.342 -1.6978 -1.2681  2.7639
  207ccc     H4 6011   8.237   7.106   9.413  0.0282  0.8016 -0.1223
  207ccc     C3 6012   8.280   7.122   9.197 -0.5597 -0.2161  0.3460
  207ccc     H5 6013   8.212   7.207   9.187 -0.9511 -0.4910  0.6295
  207ccc     H6 6014   8.263   7.046   9.119  2.8631  0.6736 -1.4754
  207ccc     N1 6015   8.426   7.168   9.202 -0.1827  0.1963 -0.1340
  207ccc     C4 6016   8.517   7.051   9.195 -0.4028 -0.1091 -0.6499
  207ccc     H7 6017   8.504   6.979   9.277  2.0684 -0.9985 -0.9510
  207ccc     H8 6018   8.619   7.085   9.215 -0.6269  0.6218 -0.7002
  207ccc     C5 6019   8.508   6.981   9.058  0.2725  0.1755  0.6519
  207ccc     H9 6020   8.411   6.933   9.042  0.3541 -0.4862  2.0000
  207ccc    H10 6021   8.540   7.046   8.976  0.7175 -2.5002 -1.4747
  207ccc     C6 6022   8.606   6.871   9.060  0.0351  0.1832 -0.6059
  207ccc     O1 6023   8.620   6.800   9.157 -0.7757  0.1569  0.9680
  207ccc     O2 6024   8.652   6.847   8.940 -0.0669 -0.2336 -0.0274
  207ccc    H11 6025   8.610   6.910   8.879  0.4605 -1.2847 -1.5542
  207ccc     C7 6026   8.455   7.258   9.320 -0.4324  0.2734  0.6663
  207ccc    H12 6027   8.373   7.330   9.327  1.0834  2.2464 -0.8598
  207ccc    H13 6028   8.462   7.207   9.417  1.1934  1.2013  1.0702
  207ccc     C8 6029   8.588   7.333   9.300 -0.2021 -0.0589  0.0462
  207ccc    H14 6030   8.617   7.387   9.391 -2.8596  2.4152 -0.4374
  207ccc    H15 6031   8.673   7.264   9.285 -0.2094 -0.3731  1.3034
  207ccc     C9 6032   8.591   7.439   9.192 -0.2966 -0.8540  0.4703
  207ccc     O3 6033   8.524   7.537   9.191 -0.2667 -0.2503  1.0483
  207ccc     O4 6034   8.664   7.425   9.084  0.2495 -0.2073  0.2332
  207ccc    H16 6035   8.692   7.332   9.083 -2.0320 -0.9888  1.7451
  207ccc     O5 6036   8.006   7.119   9.264  0.1539 -0.4364 -0.3902
  208ccc     C1 6037   7.360   7.516   9.823 -0.9703 -0.3976 -0.0137
  208ccc     H1 6038   7.307   7.587   9.888  0.7590  1.0629 -0.1141
  208ccc     H2 6039   7.320   7.533   9.722 -0.5270 -1.3791 -0.3680
  208ccc     C2 6040   7.332   7.377   9.872 -0.1800 -0.4291  0.0877
  208ccc     H3 6041   7.371   7.308   9.796  3.3098 -1.7691  2.8407
  208ccc     H4 6042   7.224   7.356   9.872 -0.2602 -0.0782 -0.6354
  208ccc     C3 6043   7.395   7.337  10.006  0.6175 -0.0952 -0.1501
  208ccc     H5 6044   7.367   7.416  10.077 -0.2310  1.7025 -2.3607
  208ccc     H6 6045   7.505   7.337   9.997  0.6150 -2.9593 -0.9783
  208ccc     N1 6046   7.341   7.207  10.050  0.0128 -0.3037  0.2185
  208ccc     C4 6047   7.377   7.092   9.966  0.0926  0.2983 -0.7883
  208ccc     H7 6048   7.480   7.063   9.993 -0.3685 -0.6372  0.0064
  208ccc     H8 6049   7.357   7.115   9.861  2.0492  1.7847 -0.8988
  208ccc     C5 6050   7.283   6.973   9.999  0.5785 -0.7035  0.4336
  208ccc     H9 6051   7.304   6.941  10.102  0.2601 -1.7178  0.1985
  208ccc    H10 6052   7.181   7.013   9.993  0.5553 -0.7173  0.7338
  208ccc     C6 6053   7.308   6.855   9.908 -0.6278 -0.5637 -0.2291
  208ccc     O1 6054   7.367   6.763   9.956  0.0240 -0.0303 -0.1913
  208ccc     O2 6055   7.221   6.839   9.804  0.0471  0.2849  0.1431
  208ccc    H11 6056   7.180   6.924   9.784  0.3473  0.8867  1.9509
  208ccc     C7 6057   7.367   7.196  10.196 -0.1068  0.3670 -0.0844
  208ccc    H12 6058   7.342   7.288  10.250  1.9412  1.7002 -1.2510
  208ccc    H13 6059   7.288   7.129  10.232  0.1011  0.8012  1.2007
  208ccc     C8 6060   7.504   7.144  10.244  0.8219  0.3787 -0.4085
  208ccc    H14 6061   7.522   7.041  10.210 -1.4822 -0.1228 -0.2609
  208ccc    H15 6062   7.591   7.209  10.228  0.3279  0.7998 -1.4314
  208ccc     C9 6063   7.496   7.133  10.399  0.0274 -0.5297 -0.1727
  208ccc     O3 6064   7.438   7.046  10.458  0.3158 -0.1641  0.1527
  208ccc     O4 6065   7.522   7.253  10.461  0.0342  0.3087 -0.1561
  208ccc    H16 6066   7.553   7.315  10.392 -0.1821 -0.3393 -0.8434
  208ccc     O5 6067   7.503   7.555   9.807 -0.0405  0.2909  0.7613
  209ccc     C1 6068   8.372   7.839  10.583 -0.7682  0.2938  0.0751
  209ccc     H1 6069   8.277   7.798  10.547 -0.3612 -2.5309  1.9069
  209ccc     H2 6070   8.389   7.820  10.689  3.4552 -0.7565 -0.6210
  209ccc     C2 6071   8.375   7.991  10.551 -0.5132  0.8893 -0.5996
  209ccc     H3 6072   8.352   8.011  10.445 -1.0984  0.1217 -0.6293
  209ccc     H4 6073   8.478   8.021  10.576 -0.9274  1.3013  0.6385
  209ccc     C3 6074   8.281   8.065  10.648  0.0466  0.5725  0.3465
  209ccc     H5 6075   8.271   8.001  10.737 -1.1237 -2.9779 -2.1452
  209ccc     H6 6076   8.180   8.061  10.605  0.2043  0.7677 -0.0456
  209ccc     N1 6077   8.295   8.207  10.677 -0.3493 -0.0884 -0.4121
  209ccc     C4 6078   8.198   8.271  10.767  0.6441 -0.5031 -1.0683
  209ccc     H7 6079   8.106   8.311  10.722 -1.6562 -1.0213  2.7187
  209ccc     H8 6080   8.245   8.356  10.818 -1.0276  0.0912 -0.4471
  209ccc     C5 6081   8.156   8.176  10.888  0.3023  0.1361  0.6408
  209ccc     H9 6082   8.110   8.085  10.848  0.7134 -0.4181  1.4177
  209ccc    H10 6083   8.244   8.130  10.934  0.0606 -2.0177 -0.8936
  209ccc     C6 6084   8.064   8.243  10.991  0.3637 -0.3942 -0.4582
  209ccc     O1 6085   7.946   8.262  10.973  0.0029 -0.3287  0.1733
  209ccc     O2 6086   8.127   8.302  11.092 -0.1739 -0.1821  0.1407
  209ccc    H11 6087   8.224   8.291  11.084  0.1704  1.9046  0.7085
  209ccc     C7 6088   8.350   8.296  10.565 -0.4886  0.5380 -0.9782
  209ccc    H12 6089   8.387   8.392  10.605  0.2558  0.0950 -0.5617
  209ccc    H13 6090   8.432   8.241  10.516 -0.8053  0.2767 -1.2200
  209ccc     C8 6091   8.243   8.323  10.461  0.4575  0.2233 -0.2459
  209ccc    H14 6092   8.231   8.237  10.395  1.6059 -0.0724 -0.0906
  209ccc    H15 6093   8.148   8.345  10.510  1.2039  1.2729  0.7889
  209ccc     C9 6094   8.272   8.438  10.360  0.1211 -1.0932  0.5167
  209ccc     O3 6095   8.386   8.485  10.333  0.6655 -0.0458 -0.3291
  209ccc     O4 6096   8.158   8.471  10.287  0.1330 -0.7635  0.3526
  209ccc    H16 6097   8.090   8.423  10.338 -1.0963  0.2210 -0.2784
  209ccc     O5 6098   8.479   7.765  10.508  0.2751 -0.0202 -0.7966
  210ccc     C1 6099   8.951   7.111  10.980  0.4015 -0.7118  0.5018
  210ccc     H1 6100   8.941   7.063  11.078  1.5386 -2.5709 -0.2351
  210ccc     H2 6101   8.979   7.036  10.905  1.6000 -3.4072  3.4286
  210ccc     C2 6102   9.059   7.214  11.001  0.1422  0.4593  0.0111
  210ccc     H3 6103   9.003   7.302  11.037 -3.6312 -0.8363 -2.1551
  210ccc     H4 6104   9.108   7.236  10.905 -1.0672  1.2764 -0.4473
  210ccc     C3 6105   9.167   7.157  11.097  0.4194  0.0638 -0.4353
  210ccc     H5 6106   9.158   7.050  11.118 -0.6418  0.0570 -0.8498
  210ccc     H6 6107   9.145   7.199  11.195  0.9430 -2.2684  0.7484
  210ccc     N1 6108   9.305   7.181  11.056 -0.0003 -0.2865 -0.5233
  210ccc     C4 6109   9.399   7.101  11.141  0.3211 -0.3590  0.1902
  210ccc     H7 6110   9.491   7.083  11.084 -0.1973  1.0531 -1.1791
  210ccc     H8 6111   9.361   7.000  11.160 -2.0544  0.5187  0.4197
  210ccc     C5 6112   9.433   7.155  11.281 -0.0427 -0.3845  0.0749
  210ccc     H9 6113   9.496   7.244  11.268  0.9540 -1.1906 -0.8191
  210ccc    H10 6114   9.337   7.175  11.331  0.2386 -1.8529  1.2906
  210ccc     C6 6115   9.507   7.059  11.362 -0.3613  0.5316 -0.0080
  210ccc     O1 6116   9.457   6.969  11.431 -0.4464  0.2370 -0.2300
  210ccc     O2 6117   9.645   7.074  11.355 -0.2449  0.5104 -0.5307
  210ccc    H11 6118   9.656   7.144  11.288 -1.3129 -0.4174 -1.7304
  210ccc     C7 6119   9.333   7.326  11.031  0.0135  0.7239  0.1849
  210ccc    H12 6120   9.255   7.369  10.967 -0.7938 -1.1913 -0.1822
  210ccc    H13 6121   9.327   7.384  11.124 -0.4259  1.2099 -0.1317
  210ccc     C8 6122   9.460   7.353  10.957  0.4649  0.2072 -0.1927
  210ccc    H14 6123   9.470   7.463  10.952 -0.6315  0.4542  2.1421
  210ccc    H15 6124   9.552   7.319  11.007 -1.1036  0.4566  3.0816
  210ccc     C9 6125   9.463   7.299  10.816 -0.0978 -0.3916 -0.0271
  210ccc     O3 6126   9.373   7.249  10.751  0.1946 -0.0742  0.2858
  210ccc     O4 6127   9.584   7.314  10.749 -0.6485 -0.1501 -0.6639
  210ccc    H16 6128   9.644   7.335  10.823 -2.1600  0.2168  0.5080
  210ccc     O5 6129   8.823   7.179  10.940 -0.0029  0.4893  0.1945
  211ccc     C1 6130   8.710   8.115  11.411  0.1760 -0.3735  0.4616
  211ccc     H1 6131   8.733   8.203  11.350  0.9127 -0.7688  0.1533
  211ccc     H2 6132   8.706   8.152  11.514  1.9664  1.2444  0.0169
  211ccc     C2 6133   8.826   8.012  11.386 -0.0849 -0.3098  0.1691
  211ccc     H3 6134   8.806   7.913  11.427  0.2861 -1.2660 -1.8197
  211ccc     H4 6135   8.911   8.044  11.447  0.3852  1.0558 -1.1253
  211ccc     C3 6136   8.876   7.991  11.240  0.0865  0.1872 -0.2203
  211ccc     H5 6137   8.894   8.086  11.188  2.0130  0.2245  0.4283
  211ccc     H6 6138   8.795   7.951  11.178  1.4225 -1.4439 -0.9771
  211ccc     N1 6139   8.993   7.905  11.238 -0.1774  0.7275  0.0190
  211ccc     C4 6140   8.977   7.765  11.291 -0.2428  0.8970 -0.5423
  211ccc     H7 6141   8.875   7.730  11.270 -0.1379 -0.7912  1.3805
  211ccc     H8 6142   8.992   7.763  11.400 -0.0451 -0.7043 -0.5640
  211ccc     C5 6143   9.074   7.668  11.230  0.1364 -0.1641  0.3093
  211ccc     H9 6144   9.059   7.674  11.122  0.2245 -1.7438  0.1957
  211ccc    H10 6145   9.176   7.694  11.261 -0.6181  0.5826  2.3840
  211ccc     C6 6146   9.044   7.531  11.279 -0.3624 -0.8596  0.6737
  211ccc     O1 6147   8.941   7.469  11.271  0.3484  0.2915  0.1448
  211ccc     O2 6148   9.159   7.477  11.335 -0.0956 -0.0360 -0.0955
  211ccc    H11 6149   9.224   7.549  11.338  0.1259 -0.2741  1.6938
  211ccc     C7 6150   9.124   7.965  11.265  0.0386 -0.1390  0.2105
  211ccc    H12 6151   9.131   7.983  11.373  0.7260 -0.9434  0.3043
  211ccc    H13 6152   9.198   7.899  11.221 -2.1967 -1.6583 -1.4931
  211ccc     C8 6153   9.151   8.110  11.200  0.4596 -0.3005 -0.1459
  211ccc    H14 6154   9.083   8.129  11.116 -0.5722  1.4668  1.0444
  211ccc    H15 6155   9.127   8.183  11.277  0.6969  0.4173 -0.7431
  211ccc     C9 6156   9.295   8.129  11.164  0.3144  0.0434  0.7059
  211ccc     O3 6157   9.377   8.043  11.183  0.1143  0.4459 -0.0216
  211ccc     O4 6158   9.335   8.251  11.120 -0.0818 -0.0322  0.3302
  211ccc    H16 6159   9.255   8.304  11.127  0.2604  0.4615  0.5388
  211ccc     O5 6160   8.584   8.051  11.365 -0.7259  0.0935  0.7466
  212ccc     C1 6161   8.376   8.074  12.043  0.0631  1.0083 -0.2421
  212ccc     H1 6162   8.435   8.162  12.015  0.4254  1.4989  1.9384
  212ccc     H2 6163   8.277   8.114  12.066 -0.4993 -1.2469  1.6629
  212ccc     C2 6164   8.438   8.001  12.169 -0.2775 -0.2575 -0.5538
  212ccc     H3 6165   8.456   8.089  12.232 -1.5261  1.0404 -1.9369
  212ccc     H4 6166   8.534   7.956  12.140 -0.1321 -1.0375  1.0285
  212ccc     C3 6167   8.346   7.892  12.231 -0.3257  1.2747 -0.5116
  212ccc     H5 6168   8.360   7.803  12.169  2.8692  0.9925  0.4390
  212ccc     H6 6169   8.244   7.931  12.221 -1.1074 -1.0818 -2.9187
  212ccc     N1 6170   8.364   7.867  12.378 -0.2865 -0.6993 -0.9120
  212ccc     C4 6171   8.269   7.781  12.446 -0.7548 -0.2768 -0.4344
  212ccc     H7 6172   8.292   7.801  12.551  1.3122 -0.3247 -0.8405
  212ccc     H8 6173   8.287   7.673  12.432 -0.8664 -0.4931  0.9517
  212ccc     C5 6174   8.126   7.810  12.421  0.6486 -0.7280  0.5510
  212ccc     H9 6175   8.103   7.917  12.421  0.8688 -0.6748  1.2512
  212ccc    H10 6176   8.092   7.769  12.325 -0.5006  0.5400  0.3766
  212ccc     C6 6177   8.035   7.762  12.537 -0.3144 -0.3327 -0.0717
  212ccc     O1 6178   8.065   7.665  12.609  1.2142  0.0027  0.2780
  212ccc     O2 6179   7.909   7.793  12.520 -0.3260  0.1527 -0.1002
  212ccc    H11 6180   7.889   7.864  12.456 -3.7294 -1.5018 -1.1125
  212ccc     C7 6181   8.504   7.827  12.417 -0.3299 -0.3386 -0.5133
  212ccc    H12 6182   8.516   7.718  12.410  0.0842 -0.2107 -2.2036
  212ccc    H13 6183   8.578   7.874  12.351 -0.1220  0.9656  0.6073
  212ccc     C8 6184   8.552   7.872  12.562 -0.2245 -0.2371  1.0871
  212ccc    H14 6185   8.540   7.980  12.575  0.6605  0.2068 -1.3751
  212ccc    H15 6186   8.491   7.820  12.637 -2.9738  1.1475 -0.0398
  212ccc     C9 6187   8.700   7.838  12.580 -0.1149  0.7131 -0.6049
  212ccc     O3 6188   8.780   7.814  12.496  0.1484 -0.5993  0.9217
  212ccc     O4 6189   8.738   7.846  12.713  0.1910  0.6747  0.4591
  212ccc    H16 6190   8.661   7.886  12.758 -0.4721 -1.1766  1.0743
  212ccc     O5 6191   8.354   7.982  11.933 -0.0217  0.8237 -0.1599
  213ccc     C1 6192   8.656   6.377  12.064  0.4348 -0.1166 -0.1204
  213ccc     H1 6193   8.710   6.340  12.152  0.2995  1.9439  0.9131
  213ccc     H2 6194   8.570   6.312  12.044 -0.7309  1.5256 -0.6673
  213ccc     C2 6195   8.749   6.396  11.943 -0.0798  0.2570  0.3273
  213ccc     H3 6196   8.699   6.452  11.863  2.3765  1.3038 -0.6011
  213ccc     H4 6197   8.758   6.293  11.905 -1.8093 -0.6230  2.1522
  213ccc     C3 6198   8.889   6.465  11.977 -0.1554  0.5526 -0.2912
  213ccc     H5 6199   8.870   6.563  12.022 -0.4976 -0.0346  0.8984
  213ccc     H6 6200   8.945   6.478  11.884 -0.0063  0.1302 -0.2619
  213ccc     N1 6201   8.960   6.391  12.079 -0.3229  0.0126  0.2690
  213ccc     C4 6202   8.973   6.244  12.073 -0.6256 -0.0614  1.1091
  213ccc     H7 6203   8.873   6.201  12.082 -0.9279  0.1505 -0.7235
  213ccc     H8 6204   9.023   6.194  12.157  1.5152 -0.3913 -0.2792
  213ccc     C5 6205   9.034   6.195  11.940 -0.8392 -0.1442  0.1275
  213ccc     H9 6206   8.970   6.225  11.856  1.5695  0.9819 -1.4228
  213ccc    H10 6207   9.129   6.248  11.923  0.2583 -2.0692  0.0161
  213ccc     C6 6208   9.071   6.049  11.929 -1.0469  0.5070 -0.6854
  213ccc     O1 6209   9.076   5.968  12.024  0.5090  0.0179 -0.3503
  213ccc     O2 6210   9.078   6.005  11.801  0.1655  0.1704 -0.4730
  213ccc    H11 6211   9.097   6.087  11.752  1.4932  0.4552  0.4631
  213ccc     C7 6212   9.089   6.464  12.111  0.2822  0.6628 -0.6457
  213ccc    H12 6213   9.175   6.410  12.070  1.3028  0.2351  1.8746
  213ccc    H13 6214   9.093   6.572  12.096 -0.1767  1.1117  1.9998
  213ccc     C8 6215   9.127   6.432  12.259  0.0834 -0.4218 -0.3914
  213ccc    H14 6216   9.043   6.457  12.325  0.7821 -1.0012  0.7678
  213ccc    H15 6217   9.158   6.328  12.276 -0.0007 -0.3694  0.1086
  213ccc     C9 6218   9.243   6.518  12.303 -0.5474  0.5457 -0.2373
  213ccc     O3 6219   9.360   6.488  12.287 -0.4655  0.1860 -0.4539
  213ccc     O4 6220   9.213   6.649  12.304 -0.0250  0.4306 -0.5645
  213ccc    H16 6221   9.116   6.657  12.310  0.0273  1.5575 -0.8946
  213ccc     O5 6222   8.607   6.513  12.106 -0.0183 -0.1110 -0.6852
  214ccc     C1 6223   8.157   7.191  12.709  0.3291 -0.3513  0.5830
  214ccc     H1 6224   8.078   7.127  12.749 -0.6804  0.8240  0.5403
  214ccc     H2 6225   8.256   7.157  12.740  0.5032 -2.1779 -1.7033
  214ccc     C2 6226   8.131   7.334  12.756  0.3508 -0.2418  0.1202
  214ccc     H3 6227   8.064   7.380  12.682 -1.1224 -1.1122  0.8554
  214ccc     H4 6228   8.225   7.388  12.740  1.1938 -1.9799 -1.1237
  214ccc     C3 6229   8.076   7.346  12.900 -0.2000  0.2561 -0.3027
  214ccc     H5 6230   8.134   7.295  12.978 -2.0315  0.1235  1.0380
  214ccc     H6 6231   7.982   7.290  12.893  1.0090 -1.8488 -0.4148
  214ccc     N1 6232   8.045   7.485  12.942 -0.1544 -0.3151  0.1156
  214ccc     C4 6233   7.963   7.494  13.063  0.8105  0.3324  0.1193
  214ccc     H7 6234   7.969   7.591  13.114 -1.8587  0.0693  1.1414
  214ccc     H8 6235   8.002   7.437  13.149 -0.6790 -0.6783  0.1689
  214ccc     C5 6236   7.820   7.461  13.023  0.3312 -0.0877 -0.0502
  214ccc     H9 6237   7.798   7.462  12.916 -0.1114 -1.7757 -0.0066
  214ccc    H10 6238   7.795   7.359  13.054  0.6350 -1.1412 -2.9417
  214ccc     C6 6239   7.730   7.564  13.094 -0.5293 -0.4294 -0.3597
  214ccc     O1 6240   7.728   7.571  13.218  0.2867  0.1093 -0.5159
  214ccc     O2 6241   7.696   7.663  13.013  0.3207 -0.3151  0.1583
  214ccc    H11 6242   7.754   7.657  12.935 -1.3210  1.8712 -1.3523
  214ccc     C7 6243   8.160   7.568  12.955 -0.7033  0.3246  0.0352
  214ccc    H12 6244   8.224   7.532  13.036 -1.7689 -0.4813  0.5281
  214ccc    H13 6245   8.215   7.557  12.861 -1.7890 -1.8866 -0.4153
  214ccc     C8 6246   8.140   7.718  12.978  0.2436  0.1855 -0.2588
  214ccc    H14 6247   8.058   7.752  12.914  0.2833 -0.9436 -0.9439
  214ccc    H15 6248   8.099   7.734  13.079  0.1826 -0.9653 -0.0776
  214ccc     C9 6249   8.259   7.804  12.954 -0.0906  0.1779  0.2262
  214ccc     O3 6250   8.289   7.838  12.844 -0.6839  0.2602 -0.0653
  214ccc     O4 6251   8.330   7.820  13.060  0.5114  0.9855 -0.1522
  214ccc    H16 6252   8.279   7.775  13.129  1.0844 -1.4161 -1.1779
  214ccc     O5 6253   8.152   7.183  12.562 -0.4716  0.1398 -0.2039
  215ccc     C1 6254   6.791   7.173  12.980  0.2751  0.5165  0.5089
  215ccc     H1 6255   6.826   7.265  12.931 -0.6419  0.8387  0.4279
  215ccc     H2 6256   6.689   7.196  13.014 -0.8201  0.5480 -2.4708
  215ccc     C2 6257   6.879   7.146  13.106 -0.0407 -0.4068 -0.4275
  215ccc     H3 6258   6.948   7.231  13.095 -0.2012 -0.3001 -0.6257
  215ccc     H4 6259   6.946   7.061  13.094  0.2124 -0.2074 -0.4303
  215ccc     C3 6260   6.806   7.135  13.246  0.2826 -0.3020 -0.4645
  215ccc     H5 6261   6.782   7.239  13.274  0.4817 -0.1612 -0.8180
  215ccc     H6 6262   6.875   7.094  13.322  2.0514 -1.9035 -2.7871
  215ccc     N1 6263   6.678   7.063  13.252 -0.1046 -0.3119 -0.7874
  215ccc     C4 6264   6.663   6.931  13.185 -0.0020  0.0893  0.2530
  215ccc     H7 6265   6.645   6.863  13.269 -0.4276  0.7249  0.6803
  215ccc     H8 6266   6.753   6.907  13.128  0.5071 -0.7335  1.3754
  215ccc     C5 6267   6.545   6.919  13.081  0.0363 -0.4498  1.0528
  215ccc     H9 6268   6.446   6.929  13.127 -1.4494  0.0135 -1.9609
  215ccc    H10 6269   6.556   6.994  13.002  0.2738 -0.9390  0.6146
  215ccc     C6 6270   6.556   6.782  13.000  0.3632  0.8005 -0.0945
  215ccc     O1 6271   6.525   6.668  13.046 -0.4699  0.3914  0.0319
  215ccc     O2 6272   6.653   6.787  12.909  0.1814 -0.6986  0.1733
  215ccc    H11 6273   6.659   6.883  12.891 -1.0265 -0.4998  0.7126
  215ccc     C7 6274   6.592   7.089  13.371 -0.0550 -0.4837  0.3364
  215ccc    H12 6275   6.570   7.196  13.380  0.0683 -0.4728  0.4983
  215ccc    H13 6276   6.493   7.047  13.346  0.2927 -1.3979  0.4376
  215ccc     C8 6277   6.652   7.041  13.503  1.6048 -0.0269  0.2889
  215ccc    H14 6278   6.682   6.936  13.509  1.7623  0.0902  2.7987
  215ccc    H15 6279   6.744   7.095  13.529  1.7075 -0.4605  0.8514
  215ccc     C9 6280   6.551   7.078  13.619 -0.3613  0.5393 -0.5037
  215ccc     O3 6281   6.460   7.155  13.608 -0.1857  0.5100  0.1248
  215ccc     O4 6282   6.602   7.052  13.744  0.1263  0.2247  0.8081
  215ccc    H16 6283   6.697   7.037  13.728  0.0095 -1.1756  1.3031
  215ccc     O5 6284   6.787   7.060  12.889  0.0035  0.2202  0.1355
  216ccc     C1 6285   6.513   6.349  12.530  0.2214 -0.7722  0.8000
  216ccc     H1 6286   6.563   6.401  12.448 -0.7437  1.3440  1.4646
  216ccc     H2 6287   6.565   6.255  12.549  1.1421  0.0303  2.4761
  216ccc     C2 6288   6.357   6.341  12.503 -0.0793 -0.2338 -1.0508
  216ccc     H3 6289   6.334   6.321  12.398 -0.6898  0.1430 -0.9922
  216ccc     H4 6290   6.320   6.444  12.508  1.8928  0.7728 -4.2920
  216ccc     C3 6291   6.295   6.231  12.594 -0.1076  0.2016  0.6594
  216ccc     H5 6292   6.340   6.221  12.693  2.6347 -1.3184 -0.6222
  216ccc     H6 6293   6.328   6.134  12.555  1.2760  0.4119  1.2557
  216ccc     N1 6294   6.147   6.235  12.595 -0.2615 -1.0452  0.5447
  216ccc     C4 6295   6.072   6.217  12.467 -0.9823  0.8295  0.6596
  216ccc     H7 6296   6.084   6.312  12.414  0.3293  1.7174  2.4383
  216ccc     H8 6297   5.964   6.212  12.483 -0.9893 -2.0231  0.3732
  216ccc     C5 6298   6.120   6.089  12.391 -0.2640 -0.1551  0.6605
  216ccc     H9 6299   6.226   6.106  12.368 -0.0610  0.6895  2.1084
  216ccc    H10 6300   6.101   6.002  12.456  1.4826  0.8308  2.5837
  216ccc     C6 6301   6.039   6.073  12.264  0.3356 -0.8311 -0.3788
  216ccc     O1 6302   6.053   6.140  12.165  0.5013 -0.5201  0.1081
  216ccc     O2 6303   5.947   5.977  12.261 -0.2745  0.2809  0.1823
  216ccc    H11 6304   5.914   5.979  12.170 -1.5033 -0.8894  0.5681
  216ccc     C7 6305   6.095   6.346  12.681 -0.4059  0.5047 -0.5025
  216ccc    H12 6306   6.139   6.444  12.656 -0.5078  0.6367 -0.1710
  216ccc    H13 6307   5.989   6.362  12.661 -0.0783 -0.2529 -3.2518
  216ccc     C8 6308   6.110   6.335  12.833  1.1109 -0.2592 -0.4833
  216ccc    H14 6309   6.070   6.244  12.879  1.5106  0.4121  1.2600
  216ccc    H15 6310   6.215   6.335  12.865  1.0642 -0.4238 -0.3282
  216ccc     C9 6311   6.048   6.465  12.890  0.3390 -0.5953 -0.2368
  216ccc     O3 6312   5.927   6.481  12.892 -0.3457  1.4333  0.5131
  216ccc     O4 6313   6.131   6.568  12.894  0.3367  0.0278  0.2288
  216ccc    H16 6314   6.216   6.531  12.866  0.3060  0.1662 -0.0548
  216ccc     O5 6315   6.539   6.419  12.652 -0.0662  0.0630 -0.3178
  217ccc     C1 6316   6.039   7.385  11.911  0.0367  0.7504 -0.1257
  217ccc     H1 6317   6.079   7.406  12.011 -0.9071  1.6305  0.0788
  217ccc     H2 6318   6.119   7.379  11.836 -1.4758  3.4427 -2.1577
  217ccc     C2 6319   5.933   7.496  11.875  0.5141  0.0385 -0.0408
  217ccc     H3 6320   5.850   7.496  11.947 -2.2611 -0.1247 -3.0460
  217ccc     H4 6321   5.884   7.466  11.782 -2.0686 -0.4258  1.3797
  217ccc     C3 6322   6.007   7.635  11.845 -0.0763  0.3686  0.7828
  217ccc     H5 6323   5.936   7.708  11.805  0.4072  0.8806  0.8478
  217ccc     H6 6324   6.080   7.619  11.765 -1.0401  1.9841 -0.4776
  217ccc     N1 6325   6.069   7.696  11.961  0.1250  0.0645 -0.6018
  217ccc     C4 6326   5.982   7.714  12.082  0.1298 -0.6411  0.3850
  217ccc     H7 6327   5.912   7.630  12.089 -1.8033  0.9576  1.0980
  217ccc     H8 6328   5.912   7.796  12.061  1.5713  0.6190  0.3290
  217ccc     C5 6329   6.055   7.739  12.218 -0.2046  0.4180 -0.0818
  217ccc     H9 6330   6.094   7.644  12.256 -1.0573  0.3022  0.5411
  217ccc    H10 6331   6.144   7.803  12.213  0.6765 -0.6365  1.2569
  217ccc     C6 6332   5.967   7.791  12.329  0.0199  0.0953  0.8459
  217ccc     O1 6333   5.850   7.804  12.323  0.6674 -0.7393 -0.9515
  217ccc     O2 6334   6.034   7.804  12.443  0.1824  0.1794 -0.8367
  217ccc    H11 6335   6.127   7.777  12.433 -0.0421 -0.3594 -1.5177
  217ccc     C7 6336   6.150   7.815  11.929  0.2066  0.2451 -0.1450
  217ccc    H12 6337   6.093   7.881  11.862  2.0640  2.4178  0.3080
  217ccc    H13 6338   6.178   7.879  12.014 -0.4886  0.7408 -0.2868
  217ccc     C8 6339   6.279   7.771  11.850  0.1081 -0.4540  0.3008
  217ccc    H14 6340   6.327   7.684  11.896 -0.2795 -2.4019 -2.6936
  217ccc    H15 6341   6.257   7.738  11.748  0.2769  2.0359 -0.6069
  217ccc     C9 6342   6.381   7.883  11.834 -0.5020  0.4325 -0.3860
  217ccc     O3 6343   6.369   7.994  11.875 -0.3781 -0.3168  0.0806
  217ccc     O4 6344   6.452   7.869  11.718  0.1669 -0.5709 -0.3466
  217ccc    H16 6345   6.416   7.786  11.681  4.4179 -2.5213 -0.6577
  217ccc     O5 6346   5.982   7.252  11.911  0.6636  0.0976 -0.0658
  218ccc     C1 6347   6.266   7.095  11.210  0.1493 -0.3402 -0.0827
  218ccc     H1 6348   6.291   6.990  11.187  1.8389  0.1558 -0.6190
  218ccc     H2 6349   6.157   7.103  11.215  0.0511 -1.5758  0.2501
  218ccc     C2 6350   6.319   7.184  11.095 -0.1226  0.3276 -0.0233
  218ccc     H3 6351   6.325   7.285  11.138  0.8866  0.9688 -1.5432
  218ccc     H4 6352   6.246   7.175  11.013  0.9523 -2.4922 -0.7923
  218ccc     C3 6353   6.447   7.130  11.033 -0.0141 -0.0643 -0.4460
  218ccc     H5 6354   6.443   7.028  10.991 -0.1512 -0.0835 -0.3858
  218ccc     H6 6355   6.517   7.117  11.116 -0.1658 -0.9015 -0.4311
  218ccc     N1 6356   6.514   7.216  10.932  0.2421 -0.1758  0.0132
  218ccc     C4 6357   6.653   7.183  10.910 -0.4035 -0.0483 -0.8117
  218ccc     H7 6358   6.654   7.092  10.848 -1.2496 -0.9254  0.3943
  218ccc     H8 6359   6.711   7.152  10.998  0.6318 -1.3095 -1.8900
  218ccc     C5 6360   6.739   7.290  10.849  0.4098  0.8330 -0.3072
  218ccc     H9 6361   6.728   7.293  10.740 -0.6017 -0.7646 -0.2696
  218ccc    H10 6362   6.691   7.383  10.881 -0.3937  1.9478 -4.1686
  218ccc     C6 6363   6.886   7.285  10.900 -0.2852  0.6543  0.2727
  218ccc     O1 6364   6.920   7.338  11.002 -0.2105 -0.1430 -0.4058
  218ccc     O2 6365   6.978   7.241  10.813  0.1895  0.1223 -0.1802
  218ccc    H11 6366   6.935   7.210  10.731  0.3466 -0.9587  0.1298
  218ccc     C7 6367   6.432   7.239  10.802 -0.3260 -0.1144 -0.4470
  218ccc    H12 6368   6.326   7.257  10.819  0.1585  0.8727  1.9832
  218ccc    H13 6369   6.469   7.325  10.743  1.7063 -0.8122 -0.2750
  218ccc     C8 6370   6.438   7.127  10.696 -0.2049 -0.0119  0.4699
  218ccc    H14 6371   6.541   7.121  10.658 -0.8643 -0.1448 -1.4490
  218ccc    H15 6372   6.412   7.026  10.731  0.0731 -1.1642 -2.3304
  218ccc     C9 6373   6.341   7.173  10.585 -0.2085  0.4474  0.7431
  218ccc     O3 6374   6.230   7.215  10.606 -0.1773 -0.3661 -0.7115
  218ccc     O4 6375   6.385   7.164  10.458  0.4859 -0.8804 -0.1891
  218ccc    H16 6376   6.474   7.124  10.455  1.1459  0.5690 -0.9910
  218ccc     O5 6377   6.320   7.130  11.338 -0.0880 -0.1955  0.1116
  219ccc     C1 6378   7.192   6.974  12.979 -0.0767  0.0400 -0.0071
  219ccc     H1 6379   7.144   6.969  13.078 -1.0335 -0.9630 -0.5139
  219ccc     H2 6380   7.113   6.995  12.906 -0.5805  1.3520  0.8658
  219ccc     C2 6381   7.269   6.842  12.956 -0.0215  0.3638 -0.0009
  219ccc     H3 6382   7.337   6.854  12.870 -0.4886  1.1718 -0.2735
  219ccc     H4 6383   7.212   6.751  12.938  0.0320 -0.1404  2.1770
  219ccc     C3 6384   7.353   6.816  13.085 -0.3743  0.1711  0.2131
  219ccc     H5 6385   7.289   6.822  13.174  1.5400 -2.6884  1.9616
  219ccc     H6 6386   7.447   6.873  13.093 -1.0915  1.2770  1.1580
  219ccc     N1 6387   7.399   6.677  13.090  0.4096 -0.0741 -0.3763
  219ccc     C4 6388   7.388   6.611  13.219 -0.4239  0.2030 -0.2576
  219ccc     H7 6389   7.418   6.506  13.211  1.1369  0.6005  0.0551
  219ccc     H8 6390   7.282   6.618  13.247  0.4746  3.1944  3.1621
  219ccc     C5 6391   7.463   6.676  13.339  0.1107  1.3923 -0.7174
  219ccc     H9 6392   7.569   6.652  13.326 -0.2102 -1.5661  1.1303
  219ccc    H10 6393   7.440   6.782  13.355 -2.4973  1.1416 -2.2204
  219ccc     C6 6394   7.425   6.594  13.466 -0.2014  0.4939  0.1072
  219ccc     O1 6395   7.459   6.479  13.494 -0.1950 -0.0586  0.4945
  219ccc     O2 6396   7.315   6.645  13.521  0.3399 -0.2272  0.2833
  219ccc    H11 6397   7.274   6.695  13.448 -0.7226 -0.8176  0.4700
  219ccc     C7 6398   7.512   6.649  12.996  0.8574 -0.4088 -0.3131
  219ccc    H12 6399   7.501   6.728  12.921  0.0486 -0.4494 -0.2482
  219ccc    H13 6400   7.608   6.666  13.046  1.4761 -2.0696 -0.8605
  219ccc     C8 6401   7.496   6.512  12.931 -0.7375 -0.4641 -0.7098
  219ccc    H14 6402   7.512   6.441  13.014  1.5082 -0.5393 -1.1444
  219ccc    H15 6403   7.395   6.508  12.890 -0.3153 -1.7956 -1.6995
  219ccc     C9 6404   7.599   6.491  12.824 -0.2625 -0.0767  0.3661
  219ccc     O3 6405   7.702   6.428  12.836 -0.1442 -0.2752  1.1413
  219ccc     O4 6406   7.555   6.524  12.696  0.0544  0.2133 -0.4123
  219ccc    H16 6407   7.470   6.571  12.706 -0.6527 -0.8416 -1.2701
  219ccc     O5 6408   7.287   7.085  12.980  0.2568  0.6800 -0.2271
  220ccc     C1 6409   7.568   7.723  12.480 -0.0833  0.0165 -0.1534
  220ccc     H1 6410   7.565   7.832  12.487  2.1497  0.0381  3.2989
  220ccc     H2 6411   7.653   7.686  12.539 -1.3393  0.6893  2.2265
  220ccc     C2 6412   7.573   7.670  12.338  0.5697 -0.2407  0.2531
  220ccc     H3 6413   7.477   7.707  12.298  0.6003  0.3690  0.7163
  220ccc     H4 6414   7.571   7.561  12.326 -0.0382 -0.7593  3.7947
  220ccc     C3 6415   7.691   7.737  12.261  0.4585 -0.4768 -1.1632
  220ccc     H5 6416   7.779   7.737  12.326  2.0211 -1.3044 -3.1526
  220ccc     H6 6417   7.673   7.844  12.249  2.4946 -0.0424 -0.7382
  220ccc     N1 6418   7.712   7.670  12.139 -0.3264 -0.2473  0.0450
  220ccc     C4 6419   7.618   7.712  12.037  0.0306 -0.7646  0.8604
  220ccc     H7 6420   7.645   7.811  11.998 -1.7730 -0.0465  1.3278
  220ccc     H8 6421   7.515   7.722  12.076  0.2897 -0.6631  1.5372
  220ccc     C5 6422   7.602   7.614  11.915  0.3224 -0.3410  0.4138
  220ccc     H9 6423   7.611   7.512  11.954  0.0577  0.1319  1.7623
  220ccc    H10 6424   7.503   7.630  11.870  0.6468 -0.8442 -0.5066
  220ccc     C6 6425   7.695   7.636  11.793 -0.8546 -0.0056 -0.2177
  220ccc     O1 6426   7.786   7.724  11.793 -0.3408  0.4156 -0.2072
  220ccc     O2 6427   7.711   7.537  11.707 -0.1890 -0.2672 -0.2049
  220ccc    H11 6428   7.644   7.472  11.733 -0.2515  0.5891  1.9293
  220ccc     C7 6429   7.855   7.683  12.093  0.0149  0.8401 -0.5428
  220ccc    H12 6430   7.916   7.638  12.172 -3.9135 -0.5322  1.9886
  220ccc    H13 6431   7.872   7.628  11.999 -0.6470  0.0950 -0.2369
  220ccc     C8 6432   7.909   7.832  12.072 -0.0593 -0.1735 -0.2414
  220ccc    H14 6433   7.851   7.886  11.997 -0.3329  0.1573  0.2023
  220ccc    H15 6434   7.906   7.888  12.166  2.3293  0.3579 -0.4220
  220ccc     C9 6435   8.057   7.826  12.033 -0.1547 -0.1311 -0.5226
  220ccc     O3 6436   8.133   7.737  12.052 -0.5166  0.0699 -0.1292
  220ccc     O4 6437   8.103   7.937  11.969 -0.1920 -0.4131 -0.0677
  220ccc    H16 6438   8.193   7.907  11.948  0.0783  0.0451  0.4307
  220ccc     O5 6439   7.444   7.676  12.538  0.1211 -0.8670 -0.2598
  221ccc     C1 6440   6.846   8.499  11.812 -0.1501  0.9430 -0.1699
  221ccc     H1 6441   6.795   8.531  11.903 -2.1277 -0.5825 -0.6650
  221ccc     H2 6442   6.934   8.439  11.839 -1.6117 -1.1932  0.0707
  221ccc     C2 6443   6.874   8.627  11.725 -0.1985 -0.3217 -0.1059
  221ccc     H3 6444   6.792   8.699  11.729 -0.8740 -1.0041 -0.9987
  221ccc     H4 6445   6.881   8.600  11.618  2.2080 -0.4355  0.0141
  221ccc     C3 6446   6.999   8.718  11.761  0.3858  0.6702 -0.1957
  221ccc     H5 6447   6.980   8.775  11.852  3.1878 -1.1887  1.7115
  221ccc     H6 6448   7.028   8.787  11.681 -0.8363 -0.1823 -1.4429
  221ccc     N1 6449   7.121   8.634  11.790  0.2066 -0.0412  0.0891
  221ccc     C4 6450   7.242   8.722  11.831  0.0246  0.1004 -0.7837
  221ccc     H7 6451   7.316   8.659  11.882 -0.5548  0.7719  0.9490
  221ccc     H8 6452   7.208   8.787  11.912 -1.9236 -0.9077 -0.7318
  221ccc     C5 6453   7.316   8.793  11.723  0.0170 -0.3818  0.5790
  221ccc     H9 6454   7.351   8.734  11.638  1.3939  1.0978  0.0829
  221ccc    H10 6455   7.247   8.866  11.680  0.6480 -1.0242 -1.6244
  221ccc     C6 6456   7.432   8.874  11.778  0.6644 -0.0824 -0.1338
  221ccc     O1 6457   7.447   8.906  11.892  0.3852  0.4345 -0.7151
  221ccc     O2 6458   7.515   8.924  11.687  0.6029  0.4324 -0.0544
  221ccc    H11 6459   7.470   8.901  11.604  0.0744 -2.7497  0.9811
  221ccc     C7 6460   7.163   8.527  11.689 -0.1035  0.0720  0.1165
  221ccc    H12 6461   7.081   8.481  11.633 -0.8048  0.8698  0.4645
  221ccc    H13 6462   7.218   8.580  11.610  1.9277  1.4369  2.3010
  221ccc     C8 6463   7.249   8.423  11.756 -0.0076  0.1490 -0.8084
  221ccc    H14 6464   7.288   8.361  11.675  1.9111  0.1349  0.0888
  221ccc    H15 6465   7.336   8.462  11.810 -1.4940  0.8331  1.2414
  221ccc     C9 6466   7.173   8.322  11.841  0.3043 -0.5303  0.4055
  221ccc     O3 6467   7.119   8.228  11.786  0.6199  0.2761 -0.4048
  221ccc     O4 6468   7.193   8.341  11.975 -0.2635  0.2403 -0.4313
  221ccc    H16 6469   7.238   8.424  11.993  1.8882 -1.3854  2.4620
  221ccc     O5 6470   6.747   8.415  11.745  0.5106  1.0296 -0.1764
  222ccc     C1 6471   6.712   7.817  11.431  0.4526 -0.2412  0.3510
  222ccc     H1 6472   6.631   7.752  11.469  0.4314 -1.0325 -0.9710
  222ccc     H2 6473   6.699   7.924  11.450 -0.9333 -0.3561  0.1562
  222ccc     C2 6474   6.709   7.794  11.275  0.2564  0.1272  0.2644
  222ccc     H3 6475   6.790   7.848  11.224 -0.2494 -1.5541 -2.5743
  222ccc     H4 6476   6.609   7.820  11.238  0.5771 -1.4328 -1.9184
  222ccc     C3 6477   6.731   7.642  11.235 -0.3943  0.5911  0.1242
  222ccc     H5 6478   6.834   7.606  11.248 -1.1801 -1.7982  0.2671
  222ccc     H6 6479   6.710   7.636  11.128 -1.4565  0.7641  0.3098
  222ccc     N1 6480   6.643   7.544  11.299  0.5871 -0.2406 -0.7382
  222ccc     C4 6481   6.499   7.565  11.274 -0.3426  0.0373  1.0421
  222ccc     H7 6482   6.465   7.664  11.306 -1.4338 -0.5207  1.6420
  222ccc     H8 6483   6.436   7.505  11.341 -0.8693  1.2722  1.6686
  222ccc     C5 6484   6.458   7.547  11.131 -0.0498 -0.0621  0.0400
  222ccc     H9 6485   6.527   7.615  11.080 -1.0968  0.6073 -0.5162
  222ccc    H10 6486   6.481   7.448  11.090 -0.1920 -0.6005  1.2060
  222ccc     C6 6487   6.310   7.580  11.104 -0.3345 -0.3123 -0.0743
  222ccc     O1 6488   6.232   7.533  11.180  0.0634  0.3703 -0.3633
  222ccc     O2 6489   6.289   7.664  11.006  0.2928 -0.0508  0.5026
  222ccc    H11 6490   6.375   7.695  10.974 -0.7335  3.3782  0.6783
  222ccc     C7 6491   6.697   7.404  11.277 -0.3412  0.2050 -0.5967
  222ccc    H12 6492   6.697   7.378  11.170  0.2092 -0.6054 -0.4095
  222ccc    H13 6493   6.804   7.403  11.300 -0.2480  0.0410 -1.0238
  222ccc     C8 6494   6.626   7.285  11.348  0.2049  0.2409 -0.7740
  222ccc    H14 6495   6.604   7.306  11.454 -0.0230 -0.3686 -0.6959
  222ccc    H15 6496   6.519   7.277  11.325 -0.2026  3.0698 -0.2250
  222ccc     C9 6497   6.693   7.150  11.347 -0.1691  0.1851 -0.0685
  222ccc     O3 6498   6.816   7.141  11.334  0.0361  0.8551 -0.5218
  222ccc     O4 6499   6.617   7.042  11.348 -0.0665  0.3241  0.2438
  222ccc    H16 6500   6.527   7.077  11.337  1.0725  2.8473 -2.6350
  222ccc     O5 6501   6.847   7.778  11.481 -0.6129 -0.1746 -0.1982
  223ccc     C1 6502   8.319   3.779   9.907  0.0354 -0.0310 -0.3225
  223ccc     H1 6503   8.268   3.780   9.810 -3.6504 -1.1263  1.4276
  223ccc     H2 6504   8.246   3.763   9.987  1.3348  3.4103  1.7814
  223ccc     C2 6505   8.388   3.913   9.923 -0.3573 -0.5102 -0.5950
  223ccc     H3 6506   8.471   3.924   9.852 -0.8789 -1.4257 -1.3657
  223ccc     H4 6507   8.432   3.913  10.024  1.2379  0.3811 -1.2422
  223ccc     C3 6508   8.289   4.033   9.902 -0.0715  0.3853 -0.4055
  223ccc     H5 6509   8.216   4.021   9.983  0.2427 -0.2310 -0.2049
  223ccc     H6 6510   8.242   4.026   9.803  0.8022  0.4516 -0.8303
  223ccc     N1 6511   8.349   4.170   9.918 -0.2422  0.2171  0.2082
  223ccc     C4 6512   8.244   4.275   9.919 -0.1676 -0.3101 -0.2645
  223ccc     H7 6513   8.285   4.371   9.954 -1.4235  0.7275 -1.5348
  223ccc     H8 6514   8.169   4.259   9.997 -0.1528 -0.5910 -0.3103
  223ccc     C5 6515   8.183   4.290   9.780  0.5510 -0.5754 -0.4686
  223ccc     H9 6516   8.256   4.299   9.699  2.0310  0.1495  0.8776
  223ccc    H10 6517   8.129   4.196   9.764 -0.7885 -0.5018  2.7226
  223ccc     C6 6518   8.088   4.410   9.771 -0.3924  0.0228 -0.6208
  223ccc     O1 6519   8.067   4.492   9.858 -0.5961  0.0853 -0.5507
  223ccc     O2 6520   8.043   4.434   9.650  0.0763 -0.5492 -0.1952
  223ccc    H11 6521   8.087   4.362   9.602  2.6793  1.7648 -1.5919
  223ccc     C7 6522   8.466   4.189  10.001 -0.0293  0.0014 -1.1611
  223ccc    H12 6523   8.559   4.140   9.968  0.1518  0.4108 -1.2555
  223ccc    H13 6524   8.489   4.296   9.999  0.6753  0.2029  3.8297
  223ccc     C8 6525   8.434   4.161  10.154 -0.1313  0.1175  0.0351
  223ccc    H14 6526   8.345   4.222  10.174  0.0118  0.2547  0.2559
  223ccc    H15 6527   8.394   4.064  10.185 -1.6613  0.4210 -0.8534
  223ccc     C9 6528   8.547   4.176  10.248 -0.2793 -0.4006 -1.0082
  223ccc     O3 6529   8.662   4.156  10.233  0.1235 -0.1049  0.5577
  223ccc     O4 6530   8.509   4.252  10.349  0.2461 -0.2287 -0.0508
  223ccc    H16 6531   8.412   4.261  10.342  0.2725  0.4293  0.2996
  223ccc     O5 6532   8.412   3.669   9.915  0.8156 -0.5940  0.3346
  224ccc     C1 6533   8.145   3.714   9.358 -0.0304  0.4885 -1.1854
  224ccc     H1 6534   8.074   3.707   9.442 -0.0823 -1.2537 -1.3356
  224ccc     H2 6535   8.207   3.804   9.362  0.0908  0.3741 -0.1842
  224ccc     C2 6536   8.073   3.723   9.225  0.1607 -0.3929 -0.0375
  224ccc     H3 6537   8.019   3.628   9.231 -1.0084  0.3137  3.6132
  224ccc     H4 6538   8.153   3.716   9.150  2.0605  1.1795  1.6832
  224ccc     C3 6539   7.982   3.849   9.218 -0.3411  0.3707  0.0721
  224ccc     H5 6540   8.042   3.937   9.243  0.2457  0.0355 -0.1414
  224ccc     H6 6541   7.906   3.830   9.295 -1.4768  1.2648 -0.8009
  224ccc     N1 6542   7.914   3.868   9.092  0.1015 -0.2387 -0.7393
  224ccc     C4 6543   7.805   3.776   9.062 -0.1272 -0.2292  0.4817
  224ccc     H7 6544   7.743   3.775   9.153 -1.1400  1.2821 -0.1690
  224ccc     H8 6545   7.844   3.676   9.039 -0.3149 -0.0383 -0.6928
  224ccc     C5 6546   7.710   3.820   8.946 -0.6235 -0.0148  0.2781
  224ccc     H9 6547   7.689   3.927   8.953  1.6373  0.4575  0.4305
  224ccc    H10 6548   7.755   3.805   8.847  2.3660 -1.0612  1.6738
  224ccc     C6 6549   7.580   3.738   8.936  0.2429 -0.5033  0.0357
  224ccc     O1 6550   7.549   3.644   9.008 -0.3751  0.0049 -0.4223
  224ccc     O2 6551   7.515   3.747   8.819  0.1083  0.4355 -0.1628
  224ccc    H11 6552   7.538   3.834   8.781  0.1167  0.5337  0.0664
  224ccc     C7 6553   7.982   3.940   8.980  0.2248  0.3464  0.5627
  224ccc    H12 6554   7.906   3.993   8.921  0.4238  1.1556  1.0204
  224ccc    H13 6555   8.043   4.019   9.025 -0.6484  0.9075  0.7739
  224ccc     C8 6556   8.053   3.854   8.875 -0.0639  0.6223 -0.6746
  224ccc    H14 6557   8.128   3.795   8.930 -1.5603 -0.6378  0.0726
  224ccc    H15 6558   7.983   3.779   8.836  0.5330  0.5812 -1.7042
  224ccc     C9 6559   8.121   3.936   8.769 -0.1030  0.3126  0.1768
  224ccc     O3 6560   8.112   4.059   8.766  0.1163 -0.4070  0.1927
  224ccc     O4 6561   8.178   3.862   8.670  0.0483 -0.6409 -0.1328
  224ccc    H16 6562   8.151   3.770   8.685 -1.4128 -0.7761 -3.0368
  224ccc     O5 6563   8.232   3.594   9.355 -0.1805 -0.1175  0.5882
  225ccc     C1 6564   8.056   4.745   9.207  0.2694  0.5232 -0.3924
  225ccc     H1 6565   8.045   4.706   9.309 -0.5609  1.0405 -0.2654
  225ccc     H2 6566   8.047   4.853   9.224 -0.7617  0.5056 -0.7634
  225ccc     C2 6567   7.937   4.700   9.120  0.0536 -0.1457  0.0816
  225ccc     H3 6568   7.926   4.592   9.130 -2.9425  0.0125 -0.6437
  225ccc     H4 6569   7.968   4.713   9.015  1.8874 -1.7189  0.3633
  225ccc     C3 6570   7.812   4.783   9.147  1.3186  0.0541 -0.0896
  225ccc     H5 6571   7.842   4.888   9.148  2.4663 -0.2009 -2.5937
  225ccc     H6 6572   7.785   4.760   9.251  0.1275  0.8263 -0.2065
  225ccc     N1 6573   7.694   4.755   9.060  0.3010 -0.0621  1.4701
  225ccc     C4 6574   7.624   4.623   9.090  0.0849 -0.5595 -0.3922
  225ccc     H7 6575   7.601   4.613   9.197 -1.7904 -0.8899 -0.7889
  225ccc     H8 6576   7.691   4.539   9.074 -0.3808 -0.7992 -1.1475
  225ccc     C5 6577   7.493   4.593   9.014 -0.4038  0.4876  0.0601
  225ccc     H9 6578   7.425   4.679   9.014 -0.8757  0.2495 -3.2857
  225ccc    H10 6579   7.524   4.572   8.911  0.3819  2.0318 -0.0577
  225ccc     C6 6580   7.425   4.473   9.071 -0.6065  0.3944  0.1965
  225ccc     O1 6581   7.465   4.404   9.158 -0.0593 -0.1361  0.2681
  225ccc     O2 6582   7.337   4.413   8.980 -0.1734  0.4663 -0.0058
  225ccc    H11 6583   7.308   4.479   8.914 -1.8300 -1.4129 -1.2593
  225ccc     C7 6584   7.713   4.781   8.915 -0.6096  0.1347  0.2426
  225ccc    H12 6585   7.783   4.705   8.877 -1.4953 -0.1505 -0.8588
  225ccc    H13 6586   7.616   4.777   8.864 -0.4238 -0.1678 -0.0832
  225ccc     C8 6587   7.775   4.921   8.892  0.5443  0.3581 -0.2924
  225ccc    H14 6588   7.718   5.003   8.938  0.8616  0.5955 -0.3152
  225ccc    H15 6589   7.878   4.923   8.932  0.3098 -0.8883  0.4223
  225ccc     C9 6590   7.784   4.954   8.748  0.1472 -0.4001  0.4705
  225ccc     O3 6591   7.735   4.889   8.657 -0.4218 -0.4755  0.2527
  225ccc     O4 6592   7.819   5.082   8.726  0.3788  0.4801 -0.1413
  225ccc    H16 6593   7.829   5.111   8.818 -1.9909 -3.1509  1.4829
  225ccc     O5 6594   8.182   4.703   9.155  0.0614  0.1674  0.2705
  226ccc     C1 6595   8.923   5.129   9.096  0.5774 -0.2662  0.4482
  226ccc     H1 6596   8.945   5.071   9.186  1.0794 -0.6694  0.0665
  226ccc     H2 6597   8.955   5.071   9.009 -0.2375 -0.3038  0.1575
  226ccc     C2 6598   9.005   5.258   9.111 -0.4282  0.0840  0.6605
  226ccc     H3 6599   8.942   5.344   9.086 -1.0571 -0.2930  0.9139
  226ccc     H4 6600   9.087   5.241   9.040 -0.0930  0.3016  0.9938
  226ccc     C3 6601   9.071   5.260   9.250 -0.0374 -0.1334  0.5430
  226ccc     H5 6602   9.124   5.165   9.263 -1.4613 -1.1790 -0.8336
  226ccc     H6 6603   8.988   5.249   9.320  0.2034 -0.4879  0.7739
  226ccc     N1 6604   9.151   5.377   9.284  0.3128  0.4692  0.5286
  226ccc     C4 6605   9.294   5.381   9.231  0.3419  0.2913 -0.1007
  226ccc     H7 6606   9.340   5.468   9.278  0.9874  1.5870 -2.9534
  226ccc     H8 6607   9.292   5.410   9.125 -2.2134 -0.2090 -0.2525
  226ccc     C5 6608   9.384   5.261   9.235 -0.3601 -0.0379  0.0311
  226ccc     H9 6609   9.365   5.195   9.149 -1.6325 -0.3339  0.5178
  226ccc    H10 6610   9.487   5.298   9.223  0.1307 -0.4451  2.4777
  226ccc     C6 6611   9.387   5.190   9.360  0.3953  0.3183 -0.8407
  226ccc     O1 6612   9.341   5.078   9.374 -0.2990 -0.3728  0.8009
  226ccc     O2 6613   9.413   5.274   9.461 -0.0987 -0.4532  0.2831
  226ccc    H11 6614   9.446   5.358   9.426  1.7314 -1.0358  0.5187
  226ccc     C7 6615   9.078   5.502   9.272  0.5443  0.5371 -0.2725
  226ccc    H12 6616   9.074   5.548   9.172 -3.5185 -1.0870 -1.0150
  226ccc    H13 6617   8.971   5.486   9.289  0.6048 -1.8298 -1.5802
  226ccc     C8 6618   9.122   5.605   9.372 -0.1816 -0.5692 -0.1129
  226ccc    H14 6619   9.121   5.553   9.469 -1.4650 -0.6616 -0.1525
  226ccc    H15 6620   9.224   5.627   9.339 -0.6288 -1.7053 -2.4617
  226ccc     C9 6621   9.037   5.730   9.374  0.0241 -0.4078  0.0383
  226ccc     O3 6622   8.922   5.736   9.414  0.0124  0.2172 -0.8363
  226ccc     O4 6623   9.078   5.825   9.287  0.0170  0.2253 -0.5849
  226ccc    H16 6624   9.150   5.787   9.235  1.0839  1.7410 -0.2760
  226ccc     O5 6625   8.776   5.159   9.084  0.1101  0.3287 -0.8982
  227ccc     C1 6626   8.057   4.254  11.447  0.2564  0.0308 -0.4749
  227ccc     H1 6627   8.134   4.296  11.513  0.7338  0.6675 -1.4030
  227ccc     H2 6628   8.025   4.335  11.381  1.4561 -0.8095 -2.1648
  227ccc     C2 6629   7.945   4.174  11.508  0.0851  0.2857 -0.1293
  227ccc     H3 6630   7.890   4.236  11.580 -1.2228 -0.1524 -0.7224
  227ccc     H4 6631   7.987   4.090  11.565  0.1648 -1.1388 -2.1661
  227ccc     C3 6632   7.831   4.119  11.405 -0.4565 -0.1584 -0.1839
  227ccc     H5 6633   7.876   4.080  11.312 -3.2390  0.2994 -1.8403
  227ccc     H6 6634   7.775   4.208  11.371  0.9725  1.2228  0.9030
  227ccc     N1 6635   7.740   4.017  11.470 -0.2741 -0.4629 -0.4656
  227ccc     C4 6636   7.653   4.074  11.579  0.3723 -0.3149 -0.2289
  227ccc     H7 6637   7.720   4.126  11.649  0.2079 -1.1212  0.5458
  227ccc     H8 6638   7.590   4.002  11.632 -1.4248  1.0767 -0.3785
  227ccc     C5 6639   7.544   4.174  11.524 -0.2001 -0.4782 -0.4976
  227ccc     H9 6640   7.582   4.267  11.479 -2.1307  0.4359 -0.3274
  227ccc    H10 6641   7.476   4.117  11.459 -2.1951 -0.0585  1.1234
  227ccc     C6 6642   7.457   4.214  11.646 -0.1714  0.9514 -0.0177
  227ccc     O1 6643   7.485   4.199  11.762 -0.0848 -0.1331  0.1233
  227ccc     O2 6644   7.332   4.256  11.619  0.0001 -0.0961 -0.0790
  227ccc    H11 6645   7.323   4.259  11.522  5.3658 -2.9392 -1.1091
  227ccc     C7 6646   7.806   3.893  11.507  0.0533  0.4378  0.3669
  227ccc    H12 6647   7.888   3.915  11.576  0.3277  0.8953 -0.0985
  227ccc    H13 6648   7.728   3.850  11.572 -0.3776  0.7473  0.0610
  227ccc     C8 6649   7.835   3.797  11.389 -0.4772  0.4488  0.3480
  227ccc    H14 6650   7.736   3.780  11.344 -0.4423  1.1803 -0.0140
  227ccc    H15 6651   7.907   3.837  11.317 -0.5515 -0.5792 -0.3128
  227ccc     C9 6652   7.885   3.670  11.449  0.5855 -0.2452 -0.4430
  227ccc     O3 6653   7.811   3.600  11.516 -0.6580  0.1351 -0.1237
  227ccc     O4 6654   8.016   3.653  11.451  0.4434  0.3448  0.6772
  227ccc    H16 6655   8.061   3.732  11.418  0.7829 -1.2468 -3.1531
  227ccc     O5 6656   8.122   4.158  11.355  1.0611 -0.1058 -0.3430
  228ccc     C1 6657   8.355   3.511  11.283 -0.2126 -0.2356  1.0813
  228ccc     H1 6658   8.265   3.569  11.304  0.2298  1.3718 -1.1443
  228ccc     H2 6659   8.371   3.539  11.178  1.0160  1.2211  1.6209
  228ccc     C2 6660   8.330   3.358  11.308  0.0171 -0.3118  0.4971
  228ccc     H3 6661   8.418   3.297  11.282 -0.3629 -0.8691  0.4879
  228ccc     H4 6662   8.249   3.332  11.238 -1.0957 -0.2838  1.7441
  228ccc     C3 6663   8.289   3.330  11.451 -0.0630 -0.0537  0.1340
  228ccc     H5 6664   8.215   3.404  11.483 -0.2135  0.3919 -1.2105
  228ccc     H6 6665   8.380   3.341  11.511  0.4637  0.5867 -0.7769
  228ccc     N1 6666   8.234   3.196  11.468 -0.1001 -0.0147 -0.2330
  228ccc     C4 6667   8.336   3.087  11.472  0.5762 -0.1455  0.1927
  228ccc     H7 6668   8.423   3.119  11.531  0.0796 -1.2626  1.5773
  228ccc     H8 6669   8.367   3.075  11.368 -1.3787  1.8128 -0.6862
  228ccc     C5 6670   8.288   2.955  11.536  0.0851  0.4546  0.3371
  228ccc     H9 6671   8.248   2.967  11.637 -1.3054 -0.7087 -0.0525
  228ccc    H10 6672   8.205   2.907  11.484  1.0404 -2.0535  1.0005
  228ccc     C6 6673   8.403   2.853  11.534 -0.6604  0.1765 -0.2354
  228ccc     O1 6674   8.517   2.884  11.495 -0.1654  0.0783 -0.5189
  228ccc     O2 6675   8.383   2.734  11.597 -0.5736 -0.4819 -0.2840
  228ccc    H11 6676   8.301   2.736  11.648  0.1637 -0.7350  0.9603
  228ccc     C7 6677   8.114   3.165  11.392 -0.0471  0.4968  0.1824
  228ccc    H12 6678   8.149   3.152  11.289  2.9912  0.5333  1.1112
  228ccc    H13 6679   8.070   3.078  11.442 -1.4587  0.8725 -0.3659
  228ccc     C8 6680   8.006   3.281  11.395  0.2215 -0.0992  0.2208
  228ccc    H14 6681   7.982   3.308  11.499 -1.9444  2.1183 -0.7594
  228ccc    H15 6682   8.038   3.370  11.341 -0.9773  0.5815  0.5951
  228ccc     C9 6683   7.871   3.239  11.332  0.9693 -0.1333  0.0562
  228ccc     O3 6684   7.856   3.147  11.250  0.0525 -0.1194 -0.3123
  228ccc     O4 6685   7.770   3.329  11.350  0.4996  0.4273 -0.6069
  228ccc    H16 6686   7.803   3.394  11.414 -0.6058  3.6274 -2.9768
  228ccc     O5 6687   8.470   3.561  11.356  0.2010  0.0371 -0.4182
  229ccc     C1 6688   7.594   5.027  10.836  0.4029  0.4862  0.5207
  229ccc     H1 6689   7.622   5.133  10.847  2.7230  0.0061 -0.3568
  229ccc     H2 6690   7.618   4.989  10.736 -0.3634  0.2454  0.4172
  229ccc     C2 6691   7.447   4.993  10.865  0.1956  0.7304  0.4958
  229ccc     H3 6692   7.442   4.972  10.972  0.7468 -2.2977  0.0071
  229ccc     H4 6693   7.433   4.898  10.812  1.6576  0.6570  0.1942
  229ccc     C3 6694   7.351   5.108  10.820  0.0682  0.0640  0.0921
  229ccc     H5 6695   7.363   5.130  10.714 -1.1661  1.7557  0.2658
  229ccc     H6 6696   7.382   5.195  10.880  2.1925 -1.1093  0.8316
  229ccc     N1 6697   7.211   5.087  10.854 -0.4337  0.8121  0.0311
  229ccc     C4 6698   7.149   4.966  10.790  0.1461  0.7594 -0.7662
  229ccc     H7 6699   7.045   4.952  10.820 -0.1727  2.0299 -1.2062
  229ccc     H8 6700   7.199   4.873  10.822  1.5495  1.8540  0.3437
  229ccc     C5 6701   7.149   4.968  10.639 -0.2458  0.0653  0.7190
  229ccc     H9 6702   7.138   5.069  10.598 -1.9198 -0.4891 -0.3102
  229ccc    H10 6703   7.250   4.948  10.604 -0.0046  0.4607  1.1791
  229ccc     C6 6704   7.057   4.866  10.567 -0.6757  0.1117  0.3978
  229ccc     O1 6705   7.105   4.783  10.494  0.1711  0.1762 -0.5023
  229ccc     O2 6706   6.928   4.856  10.604  0.1208  0.2057 -0.3666
  229ccc    H11 6707   6.909   4.779  10.547  2.8422 -0.7328 -0.1653
  229ccc     C7 6708   7.134   5.211  10.857  0.5169  0.5059  0.5152
  229ccc    H12 6709   7.196   5.282  10.914  2.1613 -0.4693  0.0295
  229ccc    H13 6710   7.115   5.252  10.757  2.4847  3.8011  1.3596
  229ccc     C8 6711   6.998   5.183  10.929  0.1066 -0.4088  0.1410
  229ccc    H14 6712   6.940   5.127  10.854 -0.5854  2.7509 -1.8481
  229ccc    H15 6713   7.015   5.121  11.018  0.4013  2.2958  2.0633
  229ccc     C9 6714   6.924   5.304  10.969  0.1613 -0.4564 -0.2620
  229ccc     O3 6715   6.968   5.418  10.967  0.7818 -0.0393  0.5803
  229ccc     O4 6716   6.792   5.287  10.994 -0.3028 -0.0517  0.1559
  229ccc    H16 6717   6.787   5.190  10.999 -1.5058 -0.2552 -2.8837
  229ccc     O5 6718   7.678   4.962  10.923  0.1767 -0.7221  0.6973
  230ccc     C1 6719   7.371   4.635  10.383 -0.8942  0.2097  0.1474
  230ccc     H1 6720   7.321   4.731  10.399 -1.5031 -0.2096  0.8473
  230ccc     H2 6721   7.401   4.631  10.278  0.4314  0.4703  0.5059
  230ccc     C2 6722   7.273   4.528  10.429 -0.5945  0.1556 -1.0393
  230ccc     H3 6723   7.173   4.542  10.386 -1.3292  0.7558  0.7557
  230ccc     H4 6724   7.261   4.538  10.538 -0.1106  3.4023 -1.1696
  230ccc     C3 6725   7.311   4.381  10.397 -0.3869  0.0408 -0.1106
  230ccc     H5 6726   7.228   4.321  10.436 -1.0290 -0.5706 -2.3005
  230ccc     H6 6727   7.404   4.348  10.445 -0.2917  0.0731 -0.2736
  230ccc     N1 6728   7.327   4.360  10.253  0.6632  0.3480 -1.0444
  230ccc     C4 6729   7.209   4.381  10.172  0.6774 -0.0173 -0.3387
  230ccc     H7 6730   7.144   4.460  10.214  2.9199  0.7943  1.8473
  230ccc     H8 6731   7.147   4.291  10.167  0.6870 -0.1155  1.0373
  230ccc     C5 6732   7.241   4.420  10.024 -0.6548  0.0700  0.0223
  230ccc     H9 6733   7.315   4.500  10.016 -1.4637  0.6805 -2.0337
  230ccc    H10 6734   7.281   4.333   9.970  0.0696  0.8062 -0.6511
  230ccc     C6 6735   7.116   4.479   9.956 -0.4247 -0.7086  0.2264
  230ccc     O1 6736   7.013   4.495  10.005 -0.2120  0.3375 -0.3995
  230ccc     O2 6737   7.110   4.487   9.824  0.0918  0.0054  0.4116
  230ccc    H11 6738   7.201   4.476   9.793  0.3241  2.0242  0.2666
  230ccc     C7 6739   7.415   4.250  10.208  0.1602  0.3770  0.2926
  230ccc    H12 6740   7.461   4.267  10.110 -0.1863 -0.3482  0.0049
  230ccc    H13 6741   7.500   4.246  10.278  0.4793  1.5974  0.0028
  230ccc     C8 6742   7.350   4.109  10.209  0.0943 -0.0689 -0.3912
  230ccc    H14 6743   7.312   4.111  10.312 -1.0542  1.1176 -0.8003
  230ccc    H15 6744   7.271   4.107  10.134 -1.0160  1.7259  0.6475
  230ccc     C9 6745   7.454   4.004  10.200 -0.1830  0.3082 -0.1129
  230ccc     O3 6746   7.520   3.993  10.098 -0.0237 -0.4304  0.0700
  230ccc     O4 6747   7.457   3.917  10.302  0.2296  0.2889  0.0499
  230ccc    H16 6748   7.371   3.927  10.346  0.6946 -0.0099  1.0470
  230ccc     O5 6749   7.496   4.635  10.458 -0.4759  0.0417 -0.4762
  231ccc     C1 6750   8.974   5.777  11.127  0.6581 -0.4847  0.1874
  231ccc     H1 6751   9.073   5.821  11.143 -0.1703  1.2646  0.8037
  231ccc     H2 6752   8.947   5.778  11.021  1.2378  0.1110  0.0453
  231ccc     C2 6753   8.868   5.856  11.205  0.3951 -0.3246 -0.0985
  231ccc     H3 6754   8.889   5.857  11.312 -1.6586  0.0846  0.3355
  231ccc     H4 6755   8.774   5.801  11.192  0.3348  0.0432 -1.4336
  231ccc     C3 6756   8.861   6.007  11.155  0.0165  0.1767 -0.4017
  231ccc     H5 6757   8.775   6.055  11.203  0.1298 -1.0655  1.1471
  231ccc     H6 6758   8.836   6.006  11.048  1.6080  0.4195 -0.8003
  231ccc     N1 6759   8.978   6.095  11.177  0.1055 -0.1136 -0.1551
  231ccc     C4 6760   8.977   6.213  11.091  0.6325 -0.4453  0.4548
  231ccc     H7 6761   8.920   6.294  11.138 -0.0069  0.1620 -1.3039
  231ccc     H8 6762   8.936   6.194  10.991 -0.1975 -2.6540  1.1751
  231ccc     C5 6763   9.127   6.261  11.069  0.1479 -0.2779 -0.8203
  231ccc     H9 6764   9.180   6.296  11.158 -0.6925 -0.0684 -0.3963
  231ccc    H10 6765   9.189   6.180  11.029  3.3306  0.9158  1.2616
  231ccc     C6 6766   9.137   6.379  10.977  0.3314  0.3554  0.2432
  231ccc     O1 6767   9.050   6.408  10.900 -0.3507  0.1839  0.0046
  231ccc     O2 6768   9.257   6.438  10.954  0.0817  0.0164 -0.0544
  231ccc    H11 6769   9.323   6.395  11.012 -1.4051 -0.3239  1.4508
  231ccc     C7 6770   9.018   6.121  11.321 -0.1386  0.2914 -0.1380
  231ccc    H12 6771   9.032   6.024  11.371  2.9208 -0.9131 -2.9970
  231ccc    H13 6772   9.113   6.175  11.325 -0.0319  0.3434 -2.2653
  231ccc     C8 6773   8.903   6.197  11.395  0.5593  0.3656  0.7479
  231ccc    H14 6774   8.897   6.300  11.360  1.1542 -0.6156 -2.6637
  231ccc    H15 6775   8.807   6.147  11.379  1.8725 -1.5869 -2.0387
  231ccc     C9 6776   8.924   6.212  11.544 -0.0070 -0.2812 -0.8306
  231ccc     O3 6777   9.030   6.203  11.604 -0.3306 -0.2113  0.6678
  231ccc     O4 6778   8.830   6.291  11.599 -0.1532  0.1973 -0.4865
  231ccc    H16 6779   8.766   6.305  11.528 -0.4953  2.8863  0.2284
  231ccc     O5 6780   8.968   5.650  11.178  0.0415 -0.3108  0.2144
  232ccc     C1 6781   9.512   5.723  10.837 -0.3405  0.5732  0.5662
  232ccc     H1 6782   9.471   5.733  10.736  0.1492 -1.5198  0.1000
  232ccc     H2 6783   9.448   5.772  10.911  1.8834  1.6691  1.8634
  232ccc     C2 6784   9.643   5.799  10.833  0.1585  0.1412  1.2621
  232ccc     H3 6785   9.708   5.749  10.760  0.5826  1.2401  0.8715
  232ccc     H4 6786   9.696   5.802  10.929 -0.1662 -1.0212  1.4930
  232ccc     C3 6787   9.614   5.943  10.781  0.2577 -0.6377 -0.3608
  232ccc     H5 6788   9.534   5.989  10.841 -0.2974 -0.3506 -1.2974
  232ccc     H6 6789   9.573   5.935  10.679  0.6675  2.4495 -0.8512
  232ccc     N1 6790   9.721   6.038  10.800 -0.7008  0.4014 -0.6301
  232ccc     C4 6791   9.857   6.003  10.735  0.2145  0.4244 -0.2246
  232ccc     H7 6792   9.903   5.914  10.778  0.7815  1.3181  1.0508
  232ccc     H8 6793   9.929   6.082  10.761  2.2589 -1.6245  0.6682
  232ccc     C5 6794   9.842   5.977  10.577  0.2261 -0.8164 -0.9369
  232ccc     H9 6795   9.799   5.877  10.562  1.0793 -1.8037  2.4677
  232ccc    H10 6796   9.780   6.051  10.525 -0.2461 -1.4452 -1.2890
  232ccc     C6 6797   9.983   5.965  10.516  1.1262  0.2704 -0.5246
  232ccc     O1 6798  10.076   5.910  10.574  0.6870 -0.7496 -1.1473
  232ccc     O2 6799   9.977   5.955  10.384 -0.0170 -0.3735 -0.3824
  232ccc    H11 6800   9.886   5.986  10.370 -0.4363 -0.4794  1.7603
  232ccc     C7 6801   9.689   6.181  10.783  0.6488  0.1553  0.1366
  232ccc    H12 6802   9.766   6.230  10.722  0.4227  1.7151  1.0664
  232ccc    H13 6803   9.595   6.193  10.728 -1.2484 -1.3180  2.8032
  232ccc     C8 6804   9.671   6.265  10.913 -0.3306  0.0739  0.4152
  232ccc    H14 6805   9.742   6.229  10.988  0.2874 -0.2815 -0.3222
  232ccc    H15 6806   9.688   6.372  10.894 -1.6236  0.2596  0.1981
  232ccc     C9 6807   9.535   6.251  10.981 -0.0027  0.5509 -0.2552
  232ccc     O3 6808   9.438   6.202  10.926  0.3436  0.2568  0.0336
  232ccc     O4 6809   9.525   6.318  11.093  0.1655 -0.1014 -0.1116
  232ccc    H16 6810   9.610   6.357  11.120  0.3958 -0.4218 -0.3611
  232ccc     O5 6811   9.542   5.591  10.882 -0.5005  0.0738 -0.2334
  233ccc     C1 6812  10.050   4.904  12.180 -0.1992 -0.2388 -0.0360
  233ccc     H1 6813  10.065   4.862  12.280 -1.1332 -0.7026 -0.0829
  233ccc     H2 6814   9.977   4.985  12.189 -0.6895 -0.8238  1.6319
  233ccc     C2 6815   9.990   4.799  12.082 -0.2806  0.0073 -0.0720
  233ccc     H3 6816   9.921   4.735  12.138 -0.0005 -0.2914 -0.0638
  233ccc     H4 6817  10.066   4.731  12.042  0.1471 -0.1685  0.9937
  233ccc     C3 6818   9.910   4.863  11.969  0.0920 -0.1841 -0.4337
  233ccc     H5 6819   9.973   4.909  11.892  0.4128 -0.8959 -0.6063
  233ccc     H6 6820   9.847   4.945  12.004 -0.0208  0.0990 -1.2801
  233ccc     N1 6821   9.820   4.775  11.892  0.1606  0.0726  0.0552
  233ccc     C4 6822   9.879   4.672  11.795 -0.0840  0.6483 -0.0254
  233ccc     H7 6823   9.804   4.618  11.735  0.4488 -0.1065 -0.0258
  233ccc     H8 6824   9.934   4.601  11.857  2.3494  2.5051  0.1167
  233ccc     C5 6825   9.973   4.726  11.680  0.5054 -0.3866 -0.3077
  233ccc     H9 6826   9.898   4.759  11.607  0.9060  1.3912  0.0319
  233ccc    H10 6827  10.035   4.807  11.721  0.8718  0.0715 -1.7122
  233ccc     C6 6828  10.065   4.620  11.618  0.0734 -0.1062  0.1593
  233ccc     O1 6829  10.086   4.517  11.678  0.0563 -0.1371 -0.3874
  233ccc     O2 6830  10.162   4.679  11.553  0.2865 -0.3442  0.1450
  233ccc    H11 6831  10.131   4.764  11.516  0.9949 -0.3906 -0.5817
  233ccc     C7 6832   9.703   4.719  11.963  0.4879 -0.8442  0.4404
  233ccc    H12 6833   9.722   4.616  11.993 -1.9870 -1.6487 -0.5422
  233ccc    H13 6834   9.685   4.788  12.047 -3.4991 -2.1479  0.8573
  233ccc     C8 6835   9.577   4.725  11.872 -0.0685  0.6056 -0.4740
  233ccc    H14 6836   9.576   4.814  11.808 -1.9124  0.9341 -0.0319
  233ccc    H15 6837   9.577   4.641  11.800 -3.3142  0.8052 -0.8707
  233ccc     C9 6838   9.441   4.718  11.939 -0.4632  0.2610  1.2697
  233ccc     O3 6839   9.433   4.708  12.058  0.3429 -0.2073 -0.3785
  233ccc     O4 6840   9.340   4.685  11.849 -0.6128  0.1255 -0.0202
  233ccc    H16 6841   9.270   4.663  11.912  0.1956 -3.4330 -0.1643
  233ccc     O5 6842  10.180   4.955  12.123  0.4203  0.7837 -0.4960
  234ccc     C1 6843  10.059   5.988  12.129  0.2350 -0.6716 -0.0607
  234ccc     H1 6844  10.029   6.045  12.218 -0.6765 -0.4675 -0.4948
  234ccc     H2 6845  10.141   6.036  12.073 -0.0680  0.9581  0.8263
  234ccc     C2 6846   9.927   5.995  12.042  0.4450 -0.0789 -0.2608
  234ccc     H3 6847   9.855   5.941  12.104  1.4343 -1.1935 -0.0621
  234ccc     H4 6848   9.937   5.940  11.948 -1.1466  0.0140 -0.5054
  234ccc     C3 6849   9.870   6.143  12.025 -0.3409 -0.5612 -0.1103
  234ccc     H5 6850   9.907   6.192  12.116 -1.3855 -0.8005  0.4647
  234ccc     H6 6851   9.760   6.145  12.032 -0.2461  1.3423  2.1991
  234ccc     N1 6852   9.912   6.219  11.906  0.3296  1.0729 -0.0923
  234ccc     C4 6853   9.837   6.345  11.900  1.2416 -0.4189  0.1657
  234ccc     H7 6854   9.730   6.323  11.901  0.4293  2.9859  0.6486
  234ccc     H8 6855   9.856   6.388  11.801  1.8472 -3.0776 -0.9570
  234ccc     C5 6856   9.855   6.448  12.014  0.0347 -0.1464  0.0394
  234ccc     H9 6857   9.859   6.395  12.110  1.2288 -0.7598 -0.3468
  234ccc    H10 6858   9.953   6.497  12.013  0.4477 -0.9493  0.2336
  234ccc     C6 6859   9.759   6.571  12.023 -0.3155 -0.1070 -0.3967
  234ccc     O1 6860   9.799   6.676  12.043  0.1559 -0.2890  0.2465
  234ccc     O2 6861   9.628   6.548  12.000 -0.4487  0.3501  0.4372
  234ccc    H11 6862   9.631   6.451  11.991  0.5083  0.4643 -0.5846
  234ccc     C7 6863   9.896   6.144  11.776  0.4709 -0.4840  0.5775
  234ccc    H12 6864   9.920   6.220  11.701  2.9283 -3.4344 -1.9397
  234ccc    H13 6865   9.970   6.062  11.775  2.6386  1.3648 -0.8635
  234ccc     C8 6866   9.757   6.091  11.735 -0.5777  0.3383 -0.4053
  234ccc    H14 6867   9.737   6.013  11.810 -0.0862  1.4854  0.9500
  234ccc    H15 6868   9.671   6.159  11.739 -1.2796 -0.3958 -1.9295
  234ccc     C9 6869   9.760   6.031  11.596  0.3066  0.0287  0.3598
  234ccc     O3 6870   9.811   6.084  11.500  0.3415 -0.1679  0.0749
  234ccc     O4 6871   9.681   5.923  11.581  0.3075  0.5529 -0.2495
  234ccc    H16 6872   9.638   5.901  11.666 -0.0948 -0.2547 -0.6503
  234ccc     O5 6873  10.090   5.854  12.157 -0.5573  0.3411  0.1993
  235ccc     C1 6874   9.072   3.648  10.388 -1.2887 -0.3634  0.0609
  235ccc     H1 6875   9.031   3.563  10.333 -3.2945  0.4738  0.1613
  235ccc     H2 6876   9.006   3.736  10.386 -1.5109 -0.5343 -0.1115
  235ccc     C2 6877   9.209   3.704  10.330  0.2480  0.4419 -0.1576
  235ccc     H3 6878   9.291   3.644  10.372  0.3055  0.2330 -0.5598
  235ccc     H4 6879   9.224   3.806  10.367  1.8837  0.3215 -0.4196
  235ccc     C3 6880   9.218   3.700  10.174 -0.4694 -0.1018 -0.1524
  235ccc     H5 6881   9.117   3.692  10.131 -1.2557  1.4116  1.3044
  235ccc     H6 6882   9.259   3.608  10.130  3.0825  1.0331  0.4353
  235ccc     N1 6883   9.294   3.818  10.109  0.2916  0.4898 -0.5095
  235ccc     C4 6884   9.427   3.854  10.163 -0.5391 -0.2909 -0.3088
  235ccc     H7 6885   9.419   3.886  10.268 -0.2153  1.7546 -0.8464
  235ccc     H8 6886   9.470   3.944  10.116  0.9991 -0.0274  1.4806
  235ccc     C5 6887   9.530   3.740  10.167  0.4839 -0.0785  0.7126
  235ccc     H9 6888   9.483   3.650  10.208  0.1805 -0.7396 -1.0003
  235ccc    H10 6889   9.546   3.720  10.061 -2.5929  2.0071 -0.2909
  235ccc     C6 6890   9.657   3.774  10.235  0.1109  0.6923  0.1723
  235ccc     O1 6891   9.688   3.888  10.256 -0.0214  0.0686  0.0295
  235ccc     O2 6892   9.735   3.665  10.245  0.2346  0.4337  0.9278
  235ccc    H11 6893   9.671   3.592  10.242  1.4308 -0.7824  2.7044
  235ccc     C7 6894   9.306   3.801   9.960  0.2422  0.2646 -0.1884
  235ccc    H12 6895   9.370   3.880   9.921  0.3744  0.0549 -0.4006
  235ccc    H13 6896   9.363   3.712   9.931 -0.0545  0.4560 -1.4090
  235ccc     C8 6897   9.176   3.802   9.884  0.4562  0.2676  0.1825
  235ccc    H14 6898   9.112   3.718   9.912 -1.2414  1.4827  0.1042
  235ccc    H15 6899   9.114   3.887   9.915 -2.8456 -2.1476  0.7241
  235ccc     C9 6900   9.192   3.795   9.733 -0.1057  0.1925 -0.6169
  235ccc     O3 6901   9.284   3.740   9.670 -0.2472  0.4343  0.3215
  235ccc     O4 6902   9.102   3.873   9.671  0.4407 -0.0123  0.1124
  235ccc    H16 6903   9.038   3.916   9.730 -0.7778  1.0027 -1.8489
  235ccc     O5 6904   9.090   3.608  10.529  0.2154  0.7402  0.4950
  236ccc     C1 6905   9.521   3.911  11.385  1.3248 -0.1660  0.3512
  236ccc     H1 6906   9.470   3.827  11.434  1.9707 -2.0975 -2.0920
  236ccc     H2 6907   9.562   3.869  11.292  1.6348 -0.7951  0.7679
  236ccc     C2 6908   9.623   3.958  11.489  0.2012  0.8472  0.4975
  236ccc     H3 6909   9.682   3.875  11.529 -0.4628  0.5092  0.7796
  236ccc     H4 6910   9.563   3.997  11.571 -1.7729 -2.0092  0.5382
  236ccc     C3 6911   9.708   4.076  11.439 -0.1146  0.2122 -0.1109
  236ccc     H5 6912   9.636   4.156  11.417  0.5065  0.4124 -1.4833
  236ccc     H6 6913   9.751   4.044  11.344 -2.3218  0.4754 -1.2579
  236ccc     N1 6914   9.819   4.112  11.533 -0.6727 -0.2366  0.4277
  236ccc     C4 6915   9.764   4.180  11.647  0.3175  0.6687  0.2309
  236ccc     H7 6916   9.685   4.115  11.688  0.4778 -0.2839 -0.9078
  236ccc     H8 6917   9.730   4.281  11.625  1.0325  1.4012  2.1998
  236ccc     C5 6918   9.866   4.203  11.755  0.2767  0.4631  0.3116
  236ccc     H9 6919   9.922   4.112  11.780  0.7858  0.3419 -1.1741
  236ccc    H10 6920   9.936   4.285  11.732  0.0686  1.1862  2.0803
  236ccc     C6 6921   9.796   4.259  11.877 -0.7030  0.0178 -0.3390
  236ccc     O1 6922   9.675   4.274  11.889  0.3460  0.0226 -0.8156
  236ccc     O2 6923   9.877   4.268  11.982  0.3854  0.1759 -0.4291
  236ccc    H11 6924   9.966   4.268  11.942 -0.3396 -0.7061 -2.1658
  236ccc     C7 6925   9.925   4.190  11.464  0.1955  0.3723  0.0613
  236ccc    H12 6926  10.015   4.189  11.527  1.4029  0.5128 -1.5955
  236ccc    H13 6927   9.955   4.132  11.376 -1.4808  0.8434 -0.8689
  236ccc     C8 6928   9.897   4.334  11.414  0.0062 -0.0853  0.2288
  236ccc    H14 6929   9.812   4.318  11.347 -0.5157 -1.0258  1.0781
  236ccc    H15 6930   9.862   4.403  11.492  1.4456 -0.1435  0.9644
  236ccc     C9 6931  10.020   4.392  11.339 -0.0023 -0.2713 -0.4833
  236ccc     O3 6932  10.117   4.323  11.325  0.1621 -0.3385 -0.2362
  236ccc     O4 6933  10.008   4.515  11.303 -0.2735  0.2202 -0.1792
  236ccc    H16 6934   9.930   4.554  11.345  0.1818 -1.0126  1.9526
  236ccc     O5 6935   9.426   4.016  11.351  0.0172  0.1812  0.0782
  237ccc     C1 6936   9.539   5.227  10.169 -0.7994 -1.4710 -0.3694
  237ccc     H1 6937   9.507   5.250  10.067 -0.9808 -2.5392 -0.5686
  237ccc     H2 6938   9.442   5.207  10.218 -2.0897 -1.2032 -2.6623
  237ccc     C2 6939   9.607   5.360  10.225 -0.2604 -0.1068  0.3848
  237ccc     H3 6940   9.662   5.401  10.139 -0.4880 -0.5150  0.0399
  237ccc     H4 6941   9.690   5.349  10.296 -0.2156  2.4525  0.8190
  237ccc     C3 6942   9.520   5.476  10.285 -0.1568 -0.1001  0.5297
  237ccc     H5 6943   9.443   5.517  10.219 -0.5885  1.0165  1.6923
  237ccc     H6 6944   9.585   5.561  10.305 -1.2180  0.7442  0.4717
  237ccc     N1 6945   9.445   5.433  10.410  0.2426 -0.5626  0.3076
  237ccc     C4 6946   9.370   5.538  10.474 -0.9279 -0.7526  0.1428
  237ccc     H7 6947   9.344   5.614  10.400 -1.1570 -1.0856 -0.1218
  237ccc     H8 6948   9.437   5.585  10.547  0.1500 -0.2899 -1.1055
  237ccc     C5 6949   9.238   5.475  10.528 -0.1574 -0.5539 -0.5407
  237ccc     H9 6950   9.185   5.436  10.440 -0.4678  0.7220 -0.9423
  237ccc    H10 6951   9.247   5.389  10.596 -0.5356 -0.4956 -0.4151
  237ccc     C6 6952   9.153   5.581  10.595 -0.0658 -0.2480 -0.2505
  237ccc     O1 6953   9.205   5.668  10.661  0.1058 -0.0180  0.2129
  237ccc     O2 6954   9.030   5.545  10.613 -0.7379  0.6362 -0.1685
  237ccc    H11 6955   8.999   5.481  10.546 -0.3780  1.4333 -1.1203
  237ccc     C7 6956   9.517   5.344  10.504 -1.2652  0.3331 -0.6557
  237ccc    H12 6957   9.447   5.298  10.575  0.3592  1.0292  1.4636
  237ccc    H13 6958   9.573   5.263  10.455  1.2829  0.2763  2.1137
  237ccc     C8 6959   9.625   5.415  10.584 -0.7942 -0.2500 -0.2044
  237ccc    H14 6960   9.680   5.490  10.526 -0.8794  0.6431  0.8254
  237ccc    H15 6961   9.574   5.465  10.668 -1.7518 -1.1327 -0.2484
  237ccc     C9 6962   9.719   5.309  10.645  0.6354 -0.4758  0.3823
  237ccc     O3 6963   9.777   5.223  10.580  0.2471 -0.0347 -0.5393
  237ccc     O4 6964   9.737   5.312  10.777  0.8577 -0.0594  0.4483
  237ccc    H16 6965   9.822   5.266  10.792  1.0083 -1.0518 -2.6495
  237ccc     O5 6966   9.631   5.116  10.168  0.2526  0.0595 -0.0200
  238ccc     C1 6967   9.636   4.316  10.512  0.7166  0.4475  0.4356
  238ccc     H1 6968   9.690   4.388  10.575 -1.4972  2.2978  0.3464
  238ccc     H2 6969   9.549   4.278  10.567  0.3668 -0.5221 -0.7451
  238ccc     C2 6970   9.731   4.205  10.472 -0.8121 -0.6286  0.1553
  238ccc     H3 6971   9.795   4.252  10.396 -1.3149  4.7472  2.5605
  238ccc     H4 6972   9.678   4.128  10.415  0.2137  0.7693 -2.8921
  238ccc     C3 6973   9.804   4.153  10.596  0.4190 -1.3508  0.6943
  238ccc     H5 6974   9.866   4.230  10.643  0.2221 -1.3250  0.9157
  238ccc     H6 6975   9.884   4.083  10.570  1.2120 -0.1357 -0.2344
  238ccc     N1 6976   9.708   4.090  10.685  0.0189 -0.4591 -0.7597
  238ccc     C4 6977   9.638   3.967  10.646  0.1553 -0.0831 -0.3517
  238ccc     H7 6978   9.578   3.999  10.560 -0.6342  1.2903  0.6828
  238ccc     H8 6979   9.565   3.940  10.723 -1.9815  0.4339 -2.0826
  238ccc     C5 6980   9.733   3.847  10.620  0.4594 -0.0834  0.1234
  238ccc     H9 6981   9.801   3.870  10.536  0.3372 -0.8080 -0.1802
  238ccc    H10 6982   9.807   3.834  10.700 -0.8023  1.8521  1.7088
  238ccc     C6 6983   9.656   3.721  10.590  0.6645  0.4888  0.3964
  238ccc     O1 6984   9.534   3.704  10.604  0.2159 -0.0252  0.9399
  238ccc     O2 6985   9.736   3.617  10.574  0.0623 -0.5663 -0.2993
  238ccc    H11 6986   9.820   3.664  10.557 -0.2245  0.1884  0.3125
  238ccc     C7 6987   9.759   4.098  10.826  0.5610 -0.9003  0.9927
  238ccc    H12 6988   9.859   4.054  10.814  0.8500  0.2785 -1.4527
  238ccc    H13 6989   9.781   4.198  10.865 -0.7056 -0.4496  0.5750
  238ccc     C8 6990   9.675   4.029  10.939  0.1313  0.2176  0.3940
  238ccc    H14 6991   9.573   4.070  10.942  0.4159  1.3246 -2.4312
  238ccc    H15 6992   9.669   3.925  10.907  2.0592 -0.6162  2.4468
  238ccc     C9 6993   9.745   4.024  11.071  0.2085  0.3474 -0.1806
  238ccc     O3 6994   9.794   3.924  11.118 -0.6322  0.2668 -0.2103
  238ccc     O4 6995   9.774   4.150  11.108 -0.1585  0.2745 -0.4632
  238ccc    H16 6996   9.708   4.211  11.071 -0.3541  1.1015  1.1781
  238ccc     O5 6997   9.605   4.386  10.385  0.6716  0.1552 -0.7805
  239ccc     C1 6998   8.205   7.609   9.388  0.7553  0.0812  0.2660
  239ccc     H1 6999   8.151   7.699   9.422 -2.0688 -0.8612 -1.3193
  239ccc     H2 7000   8.306   7.637   9.356  0.1550 -1.2319 -3.2928
  239ccc     C2 7001   8.126   7.553   9.263  0.0584 -0.8358  0.2240
  239ccc     H3 7002   8.018   7.563   9.282  0.1865 -1.0510  1.0659
  239ccc     H4 7003   8.151   7.449   9.237 -2.8231 -1.5370 -0.1195
  239ccc     C3 7004   8.162   7.645   9.139 -0.1217  0.0760  0.1518
  239ccc     H5 7005   8.268   7.647   9.109  0.2327 -0.5913  1.2812
  239ccc     H6 7006   8.128   7.746   9.165  1.1147  0.3690  0.7049
  239ccc     N1 7007   8.092   7.618   9.012  0.5070  0.4320 -0.1281
  239ccc     C4 7008   8.069   7.472   8.986 -0.0080  0.3066  0.0019
  239ccc     H7 7009   7.990   7.455   8.911 -0.6706 -1.7170  1.0560
  239ccc     H8 7010   8.040   7.411   9.072  1.7774 -0.8189 -0.1413
  239ccc     C5 7011   8.192   7.398   8.936  0.7444  0.3097  0.1583
  239ccc     H9 7012   8.224   7.439   8.840 -1.4575  1.2126 -0.2295
  239ccc    H10 7013   8.279   7.406   9.003  1.8963 -1.2344 -1.0511
  239ccc     C6 7014   8.170   7.249   8.925  0.2641 -0.1572  0.3932
  239ccc     O1 7015   8.065   7.191   8.943  0.2407 -0.0519 -0.7690
  239ccc     O2 7016   8.284   7.180   8.882  0.6881 -0.5536 -0.2567
  239ccc    H11 7017   8.353   7.246   8.863  0.0954 -0.0211 -0.6090
  239ccc     C7 7018   8.124   7.710   8.907  0.3077 -0.0610 -0.6910
  239ccc    H12 7019   8.095   7.807   8.949 -1.6812 -1.2630  0.8961
  239ccc    H13 7020   8.229   7.719   8.876  0.9656 -1.2763  1.0804
  239ccc     C8 7021   8.029   7.692   8.788  0.0958 -0.3775 -0.0286
  239ccc    H14 7022   8.059   7.594   8.749  1.3239  0.7457 -2.0373
  239ccc    H15 7023   7.923   7.690   8.815 -0.4942  1.8330 -1.8232
  239ccc     C9 7024   8.053   7.790   8.675 -0.1324 -0.0559 -0.4640
  239ccc     O3 7025   8.077   7.909   8.692  0.2994 -0.3050 -0.2404
  239ccc     O4 7026   8.026   7.741   8.559 -0.4695 -0.3487 -0.5161
  239ccc    H16 7027   7.989   7.655   8.585  0.5140 -0.2152  1.4844
  239ccc     O5 7028   8.211   7.506   9.488  0.1777  0.3591 -0.6808
  240ccc     C1 7029   7.935   7.293  10.304  0.6204  0.1303  0.2375
  240ccc     H1 7030   7.849   7.305  10.236  1.1376 -2.2283 -0.9098
  240ccc     H2 7031   7.990   7.208  10.265 -0.5694 -1.1611  1.2627
  240ccc     C2 7032   7.880   7.261  10.448  0.7762 -0.2123  0.6974
  240ccc     H3 7033   7.842   7.158  10.443  0.9184 -0.2222 -0.4535
  240ccc     H4 7034   7.789   7.319  10.466 -0.7292 -1.4242 -2.2536
  240ccc     C3 7035   7.976   7.282  10.561  0.5974  0.3684  0.3270
  240ccc     H5 7036   7.958   7.381  10.605  2.3198  0.9977 -0.2808
  240ccc     H6 7037   8.079   7.283  10.523 -0.2103  3.1867 -2.0971
  240ccc     N1 7038   7.950   7.174  10.658 -0.3093  0.4633  0.6214
  240ccc     C4 7039   7.828   7.193  10.739  0.4691 -0.9317 -0.4081
  240ccc     H7 7040   7.740   7.225  10.681  1.1248  0.8349 -0.4931
  240ccc     H8 7041   7.842   7.280  10.804  0.2036 -1.2777  0.1167
  240ccc     C5 7042   7.788   7.072  10.824  0.3114 -0.3644  0.5678
  240ccc     H9 7043   7.680   7.056  10.816  0.7075 -2.3409 -1.8304
  240ccc    H10 7044   7.843   6.986  10.785 -0.9593 -1.2284  0.5966
  240ccc     C6 7045   7.824   7.080  10.969 -0.2439  0.0538 -0.8797
  240ccc     O1 7046   7.908   7.018  11.030 -0.3929 -0.2735  0.3774
  240ccc     O2 7047   7.745   7.170  11.030 -0.0792 -0.4386  0.2917
  240ccc    H11 7048   7.694   7.209  10.957  1.5694  0.5680 -0.3807
  240ccc     C7 7049   8.079   7.127  10.714  0.4412  0.6621  0.1121
  240ccc    H12 7050   8.054   7.042  10.779  0.5727 -0.9226 -1.8168
  240ccc    H13 7051   8.141   7.090  10.631 -0.7847  1.1168 -1.0344
  240ccc     C8 7052   8.151   7.233  10.806  0.4449  0.3174 -0.7441
  240ccc    H14 7053   8.156   7.331  10.757  2.7755  1.1927  1.0780
  240ccc    H15 7054   8.084   7.253  10.890  0.8179  0.8581 -0.5709
  240ccc     C9 7055   8.278   7.182  10.873  0.0182  0.3766 -0.2055
  240ccc     O3 7056   8.325   7.073  10.845 -0.1596 -0.6082  0.2594
  240ccc     O4 7057   8.350   7.280  10.940  0.2635 -0.3196 -0.3648
  240ccc    H16 7058   8.285   7.351  10.948  0.5674 -0.1963  1.6383
  240ccc     O5 7059   8.009   7.420  10.300 -0.4826 -0.0289 -0.0609
  241ccc     C1 7060   9.740   6.388   9.699  0.0666 -0.0868  0.2609
  241ccc     H1 7061   9.819   6.425   9.633  0.1103 -1.5424 -0.5417
  241ccc     H2 7062   9.779   6.316   9.771  0.9238  0.2722  0.1660
  241ccc     C2 7063   9.637   6.331   9.596 -0.3547 -0.4185 -0.4597
  241ccc     H3 7064   9.682   6.236   9.565  1.4283 -0.0999  0.9885
  241ccc     H4 7065   9.635   6.392   9.505  0.9778 -0.6187 -0.6345
  241ccc     C3 7066   9.495   6.297   9.643 -0.2630  0.4720 -0.2809
  241ccc     H5 7067   9.458   6.389   9.689  1.0166 -0.0431  1.9489
  241ccc     H6 7068   9.489   6.226   9.727  0.3024  1.1727  0.3647
  241ccc     N1 7069   9.405   6.249   9.541 -0.3034 -0.7453  0.4894
  241ccc     C4 7070   9.368   6.107   9.563  0.3086 -0.4120 -0.3979
  241ccc     H7 7071   9.286   6.089   9.493 -2.0638  1.3028  1.7386
  241ccc     H8 7072   9.323   6.088   9.661  0.3616 -1.1698 -0.5137
  241ccc     C5 7073   9.482   5.997   9.556 -0.6231 -0.4850 -0.4413
  241ccc     H9 7074   9.539   6.010   9.463  1.5815 -1.2520  0.7278
  241ccc    H10 7075   9.548   6.020   9.641  1.0020  0.3907 -1.8758
  241ccc     C6 7076   9.432   5.849   9.568 -0.0513 -0.1521  0.3033
  241ccc     O1 7077   9.342   5.807   9.503  0.5497  0.5205 -0.5237
  241ccc     O2 7078   9.473   5.781   9.684 -0.0814  0.1321  0.5336
  241ccc    H11 7079   9.544   5.836   9.722 -2.3767  1.7833  2.7727
  241ccc     C7 7080   9.293   6.347   9.513  0.1407 -0.4579  0.1507
  241ccc    H12 7081   9.217   6.305   9.446  0.8456 -0.3795 -0.7124
  241ccc    H13 7082   9.235   6.375   9.602 -0.7661 -0.7951 -0.3288
  241ccc     C8 7083   9.358   6.479   9.455  0.4118 -0.0126 -0.5894
  241ccc    H14 7084   9.433   6.514   9.528  0.2344 -0.6572 -0.0906
  241ccc    H15 7085   9.426   6.451   9.374 -0.3023 -1.1863 -0.7921
  241ccc     C9 7086   9.244   6.578   9.431 -0.2809 -0.7282  0.0700
  241ccc     O3 7087   9.197   6.645   9.515 -0.3033 -0.2790  0.0561
  241ccc     O4 7088   9.199   6.579   9.303  0.3672  0.3029  0.4236
  241ccc    H16 7089   9.247   6.517   9.245 -1.9023  0.2071 -1.4781
  241ccc     O5 7090   9.669   6.501   9.761 -0.4793 -0.3368  0.1614
  242ccc     C1 7091   9.194   7.016  10.418 -0.0506 -0.5445  0.5474
  242ccc     H1 7092   9.113   6.984  10.350  1.2462 -1.8107 -0.4411
  242ccc     H2 7093   9.213   6.928  10.480 -1.6459 -1.0737  0.3264
  242ccc     C2 7094   9.144   7.139  10.505 -0.6258  0.3436 -0.1959
  242ccc     H3 7095   9.217   7.166  10.582 -0.8659  2.0759 -0.5403
  242ccc     H4 7096   9.055   7.107  10.560  0.6455  1.7606  2.9064
  242ccc     C3 7097   9.089   7.261  10.412 -0.0434  0.6723 -0.2323
  242ccc     H5 7098   9.016   7.221  10.340  0.9670 -2.0796  0.1366
  242ccc     H6 7099   9.173   7.291  10.348  0.4636  0.3121  0.2533
  242ccc     N1 7100   9.040   7.374  10.496  0.0462 -0.1705 -0.7381
  242ccc     C4 7101   8.938   7.456  10.433 -0.6460 -0.5268  0.1946
  242ccc     H7 7102   8.899   7.530  10.503 -2.8490 -1.4339  0.0229
  242ccc     H8 7103   8.852   7.393  10.407 -1.4217  0.0263  1.3628
  242ccc     C5 7104   8.987   7.537  10.310 -0.9109  0.5774 -0.2102
  242ccc     H9 7105   9.076   7.600  10.328 -0.4919 -0.3614  1.1446
  242ccc    H10 7106   9.012   7.466  10.230  2.2597 -0.0103  1.1426
  242ccc     C6 7107   8.869   7.613  10.254 -0.7073 -0.5068 -0.2384
  242ccc     O1 7108   8.782   7.663  10.321  0.6681  0.2151 -0.1835
  242ccc     O2 7109   8.905   7.675  10.142 -0.0382 -0.0795  0.1953
  242ccc    H11 7110   8.997   7.646  10.126 -0.6004 -1.5037 -0.6937
  242ccc     C7 7111   9.140   7.460  10.571 -0.5571  0.4433 -0.0244
  242ccc    H12 7112   9.218   7.398  10.616 -0.8724 -0.6714 -0.9669
  242ccc    H13 7113   9.195   7.521  10.497 -0.7871 -0.1371 -0.6835
  242ccc     C8 7114   9.072   7.548  10.678  0.2662 -0.1466  0.1626
  242ccc    H14 7115   9.048   7.634  10.615 -0.8216 -0.7326 -0.2438
  242ccc    H15 7116   8.987   7.495  10.723 -0.1160 -0.0791 -0.4823
  242ccc     C9 7117   9.183   7.603  10.779  0.4642 -0.7695  0.2290
  242ccc     O3 7118   9.295   7.565  10.787  0.2952 -0.0355 -0.2493
  242ccc     O4 7119   9.113   7.660  10.880  0.2342  0.3441  0.0998
  242ccc    H16 7120   9.021   7.667  10.848  1.0585  1.8042 -2.1723
  242ccc     O5 7121   9.318   7.050  10.347  0.6820 -0.3952 -0.2902
  243ccc     C1 7122   8.723   5.550   9.712 -0.5066  0.5215 -0.5765
  243ccc     H1 7123   8.659   5.494   9.780  0.8099  0.3366  0.5594
  243ccc     H2 7124   8.703   5.500   9.617 -0.9940 -0.3932 -0.0012
  243ccc     C2 7125   8.876   5.541   9.752 -0.8681  0.4148 -0.0960
  243ccc     H3 7126   8.892   5.583   9.852 -0.6433  2.2911 -0.8845
  243ccc     H4 7127   8.923   5.609   9.681 -1.2692  2.6926  1.7198
  243ccc     C3 7128   8.931   5.399   9.734 -0.9191 -0.0798  0.8723
  243ccc     H5 7129   8.873   5.358   9.651  1.1827 -3.7580  0.9813
  243ccc     H6 7130   8.919   5.332   9.820  0.8576  0.4421  1.5705
  243ccc     N1 7131   9.069   5.396   9.683 -0.1981 -0.0295  0.3644
  243ccc     C4 7132   9.167   5.437   9.787  0.5474  0.7106  0.1119
  243ccc     H7 7133   9.165   5.360   9.865 -0.0037  0.0629 -0.5297
  243ccc     H8 7134   9.124   5.521   9.843  1.3010  1.2541 -0.1039
  243ccc     C5 7135   9.315   5.466   9.745  0.6613  0.5720 -0.5880
  243ccc     H9 7136   9.350   5.384   9.682 -1.8289 -0.7348 -0.3989
  243ccc    H10 7137   9.308   5.555   9.681  0.8273  0.4011 -0.8426
  243ccc     C6 7138   9.411   5.482   9.866  0.5290 -0.0858  0.0930
  243ccc     O1 7139   9.379   5.450   9.978 -0.2077 -0.1413 -0.1647
  243ccc     O2 7140   9.530   5.540   9.839 -0.6056  0.0810  0.5126
  243ccc    H11 7141   9.515   5.585   9.754 -0.2095 -0.7943 -0.0339
  243ccc     C7 7142   9.106   5.269   9.619  0.3868  0.8308 -0.0216
  243ccc    H12 7143   9.048   5.258   9.527 -0.6582  1.6105  0.5339
  243ccc    H13 7144   9.213   5.248   9.603  0.0587 -2.1810  0.9909
  243ccc     C8 7145   9.082   5.144   9.706 -0.0393 -0.5741  0.0439
  243ccc    H14 7146   9.169   5.123   9.769  0.9425 -0.1112 -1.1122
  243ccc    H15 7147   8.995   5.155   9.772 -0.2390 -2.4884  0.1595
  243ccc     C9 7148   9.042   5.030   9.607 -0.2908 -0.3924 -0.4005
  243ccc     O3 7149   8.929   5.000   9.584 -0.5249  0.3083  0.4283
  243ccc     O4 7150   9.145   4.947   9.583 -0.7270  0.5132 -0.3854
  243ccc    H16 7151   9.218   5.001   9.615  1.3894  0.3559 -4.3991
  243ccc     O5 7152   8.681   5.691   9.702 -0.1540 -0.3247  0.2787
  244ccc     C1 7153   8.930   6.471   9.546  0.0585 -0.1556 -0.3212
  244ccc     H1 7154   8.995   6.482   9.634 -1.5485  2.6385  0.6113
  244ccc     H2 7155   8.949   6.547   9.470 -1.4188  1.2398  0.6498
  244ccc     C2 7156   8.788   6.480   9.595 -0.0941  0.4526 -0.6514
  244ccc     H3 7157   8.761   6.429   9.688  2.0952 -1.2794 -0.8760
  244ccc     H4 7158   8.729   6.441   9.511  2.5842  1.1481 -3.0395
  244ccc     C3 7159   8.756   6.631   9.602 -0.2295  0.5330 -0.3132
  244ccc     H5 7160   8.753   6.677   9.502 -0.4551  2.6069  0.5870
  244ccc     H6 7161   8.844   6.682   9.643  0.3234 -2.4802  2.5771
  244ccc     N1 7162   8.632   6.674   9.666 -0.1547  0.4177  0.3038
  244ccc     C4 7163   8.634   6.819   9.691 -0.4869  0.5136 -0.3062
  244ccc     H7 7164   8.719   6.844   9.756 -0.6805  0.7816 -0.1576
  244ccc     H8 7165   8.551   6.823   9.761  0.7569 -0.7395  1.3310
  244ccc     C5 7166   8.605   6.908   9.571  0.1682  0.0234 -0.0331
  244ccc     H9 7167   8.668   6.880   9.485  2.4308  2.0721  0.8556
  244ccc    H10 7168   8.504   6.879   9.540  0.2146  1.5127 -1.7750
  244ccc     C6 7169   8.633   7.055   9.601  1.2726 -0.3783 -0.8046
  244ccc     O1 7170   8.548   7.124   9.657 -0.4834 -0.1722 -0.3969
  244ccc     O2 7171   8.752   7.101   9.576 -0.0720 -0.2171  0.2541
  244ccc    H11 7172   8.785   7.038   9.509  0.9781  2.3657 -1.8095
  244ccc     C7 7173   8.502   6.623   9.617  0.7997 -0.4563 -0.7732
  244ccc    H12 7174   8.424   6.691   9.652  1.1430  0.8463 -2.4674
  244ccc    H13 7175   8.495   6.621   9.508 -0.2557 -1.2702 -0.7091
  244ccc     C8 7176   8.472   6.483   9.682 -0.7764 -0.5128  0.5610
  244ccc    H14 7177   8.511   6.400   9.623  1.4862  0.7481  0.1475
  244ccc    H15 7178   8.519   6.479   9.781  1.8901 -0.6277 -0.6152
  244ccc     C9 7179   8.329   6.460   9.710  0.6494 -0.2882 -0.1661
  244ccc     O3 7180   8.270   6.482   9.815  0.3030 -0.2842 -0.4585
  244ccc     O4 7181   8.264   6.410   9.605  0.4161  0.6501  0.4339
  244ccc    H16 7182   8.331   6.363   9.553  0.7482  0.3706  1.1122
  244ccc     O5 7183   8.953   6.338   9.496 -0.5281 -0.3945 -0.8039
  245ccc     C1 7184   8.148   5.314   9.435  0.6120 -0.2281  0.2114
  245ccc     H1 7185   8.101   5.278   9.528  1.0879 -0.6986  0.2763
  245ccc     H2 7186   8.246   5.350   9.468  0.9396  0.1695 -1.1345
  245ccc     C2 7187   8.058   5.428   9.388 -0.0178 -0.4488 -0.4538
  245ccc     H3 7188   8.016   5.489   9.470  0.2265  1.0272 -1.4046
  245ccc     H4 7189   7.981   5.389   9.320  0.5127 -0.5431 -1.0026
  245ccc     C3 7190   8.137   5.536   9.311  0.3462 -0.0220  0.4243
  245ccc     H5 7191   8.218   5.486   9.257 -1.6325 -1.5398 -1.3406
  245ccc     H6 7192   8.189   5.596   9.386 -1.1230 -0.2673  1.6857
  245ccc     N1 7193   8.062   5.620   9.206  0.5568 -0.2639 -0.0187
  245ccc     C4 7194   7.961   5.715   9.251  0.2235 -0.3235  0.4187
  245ccc     H7 7195   7.890   5.670   9.322 -2.8770  0.8858 -1.6981
  245ccc     H8 7196   7.896   5.747   9.168 -3.0468 -2.2776  2.0339
  245ccc     C5 7197   8.017   5.841   9.308  0.0268 -0.1222 -0.1355
  245ccc     H9 7198   8.077   5.826   9.399  0.4921  2.1213 -0.0242
  245ccc    H10 7199   8.095   5.882   9.243  0.3451 -0.9651 -0.3073
  245ccc     C6 7200   7.911   5.945   9.339 -0.7004 -0.4483 -0.3302
  245ccc     O1 7201   7.804   5.959   9.280 -0.3561  0.1697 -0.0296
  245ccc     O2 7202   7.955   6.023   9.440  0.6153 -0.0306 -0.3690
  245ccc    H11 7203   8.031   5.971   9.471  0.6530 -1.7205 -2.9841
  245ccc     C7 7204   8.029   5.548   9.082  0.2648  0.0029 -1.0449
  245ccc    H12 7205   8.120   5.491   9.062  0.9455  0.6896  0.0275
  245ccc    H13 7206   7.946   5.478   9.096  0.7663 -0.0510  2.2550
  245ccc     C8 7207   7.989   5.640   8.960 -0.5150  0.0719  1.0773
  245ccc    H14 7208   7.891   5.690   8.962 -0.2977  0.5415  0.4468
  245ccc    H15 7209   8.065   5.719   8.957 -0.3926 -0.0640  0.4392
  245ccc     C9 7210   7.990   5.548   8.830  0.3718 -0.7193 -0.0843
  245ccc     O3 7211   7.907   5.466   8.796  0.2467 -0.2214 -0.0298
  245ccc     O4 7212   8.102   5.564   8.762  0.0842  0.6888 -0.1761
  245ccc    H16 7213   8.154   5.627   8.815 -1.5647  1.0535  1.0922
  245ccc     O5 7214   8.156   5.215   9.329 -0.5116  0.7055 -0.1467
  246ccc     C1 7215   8.458   5.742   9.235 -0.0040  0.3207 -0.3298
  246ccc     H1 7216   8.372   5.684   9.271  1.7492 -0.9287  2.1381
  246ccc     H2 7217   8.495   5.794   9.324 -1.7783  1.8746 -0.4251
  246ccc     C2 7218   8.408   5.834   9.119  0.3877 -0.3014  0.1404
  246ccc     H3 7219   8.301   5.815   9.114  0.2174  0.9152 -2.6081
  246ccc     H4 7220   8.449   5.797   9.024 -0.6107 -0.8064 -0.1026
  246ccc     C3 7221   8.466   5.979   9.125  0.2013  0.5056  0.4123
  246ccc     H5 7222   8.565   5.967   9.170  1.6138  1.6016 -2.2003
  246ccc     H6 7223   8.405   6.036   9.196  0.1168 -0.7400  1.3886
  246ccc     N1 7224   8.472   6.041   8.992  0.2560 -0.0273  0.3950
  246ccc     C4 7225   8.543   6.170   8.986  0.3339 -0.1353  0.2189
  246ccc     H7 7226   8.490   6.261   9.015  0.8084 -0.1575  1.2037
  246ccc     H8 7227   8.565   6.198   8.883  2.7889  1.8157  1.1688
  246ccc     C5 7228   8.680   6.167   9.055 -0.3018  0.4162 -0.2793
  246ccc     H9 7229   8.728   6.263   9.032 -0.6707  0.3651 -1.3095
  246ccc    H10 7230   8.668   6.146   9.162 -2.0436  1.3630 -0.2507
  246ccc     C6 7231   8.764   6.058   9.005 -0.1859 -0.4002 -0.7107
  246ccc     O1 7232   8.749   5.986   8.909  0.3444  0.0175 -0.2122
  246ccc     O2 7233   8.886   6.046   9.072  0.8763 -0.0985 -0.6463
  246ccc    H11 7234   8.881   6.104   9.150 -1.4585 -1.7745  0.5803
  246ccc     C7 7235   8.347   6.052   8.920 -0.0045  0.0386 -0.4427
  246ccc    H12 7236   8.378   6.080   8.818  0.8812  0.5821 -0.0298
  246ccc    H13 7237   8.319   5.947   8.905  5.1497 -1.4962 -1.3226
  246ccc     C8 7238   8.236   6.142   8.981  0.6084 -0.5276  0.3125
  246ccc    H14 7239   8.253   6.139   9.089 -0.6100  0.6623  0.5758
  246ccc    H15 7240   8.232   6.245   8.942  0.3566 -1.3393 -1.9366
  246ccc     C9 7241   8.103   6.089   8.946 -0.0546 -0.3882  0.6527
  246ccc     O3 7242   8.063   5.993   9.007  0.4297 -0.3613 -0.1495
  246ccc     O4 7243   8.046   6.142   8.834 -0.1968 -0.3375 -0.6237
  246ccc    H16 7244   8.098   6.218   8.804  0.8756 -0.5769  0.5613
  246ccc     O5 7245   8.567   5.667   9.183  0.4564  0.3143 -0.1032
  247ccc     C1 7246   9.631   7.394  11.897 -0.2814  0.5414 -0.0060
  247ccc     H1 7247   9.614   7.332  11.986  0.5872  1.3632  0.7540
  247ccc     H2 7248   9.739   7.415  11.891 -0.3634  1.0086  0.1722
  247ccc     C2 7249   9.569   7.532  11.905  0.1931 -0.1331 -0.5017
  247ccc     H3 7250   9.585   7.583  11.809 -2.5406  0.3630 -0.7880
  247ccc     H4 7251   9.621   7.595  11.978 -2.2399  1.3697  0.0704
  247ccc     C3 7252   9.416   7.548  11.946  0.1051 -0.2830 -0.1659
  247ccc     H5 7253   9.403   7.501  12.044  0.7784  0.7703  0.4455
  247ccc     H6 7254   9.354   7.499  11.869 -0.3967  0.0671  0.0120
  247ccc     N1 7255   9.365   7.685  11.954 -0.3148 -0.2120  0.1564
  247ccc     C4 7256   9.427   7.776  12.057 -0.8189 -0.0199 -0.0909
  247ccc     H7 7257   9.391   7.878  12.042  1.8228  1.0658  0.4798
  247ccc     H8 7258   9.535   7.788  12.045 -0.5139 -2.6692 -0.6484
  247ccc     C5 7259   9.399   7.718  12.197  0.2546 -0.5193  0.6024
  247ccc     H9 7260   9.443   7.618  12.211  1.2551 -0.4501 -1.6040
  247ccc    H10 7261   9.453   7.776  12.273 -1.9258  0.8026  1.2203
  247ccc     C6 7262   9.248   7.738  12.238  0.8136  0.7825  0.5946
  247ccc     O1 7263   9.173   7.819  12.187 -0.0311  0.2420 -0.1793
  247ccc     O2 7264   9.214   7.668  12.347 -0.0112  0.1801 -0.0112
  247ccc    H11 7265   9.287   7.606  12.364 -0.1382 -0.2744 -1.0438
  247ccc     C7 7266   9.379   7.737  11.813  0.2257  0.3872 -0.4634
  247ccc    H12 7267   9.487   7.758  11.804  1.3196 -3.1364  2.2748
  247ccc    H13 7268   9.344   7.663  11.741 -0.6998 -2.3569  2.5768
  247ccc     C8 7269   9.298   7.859  11.792  0.6705 -0.0342  0.0476
  247ccc    H14 7270   9.198   7.825  11.824  0.3575 -1.1562 -1.9330
  247ccc    H15 7271   9.331   7.945  11.851 -1.7081  1.5171 -0.7501
  247ccc     C9 7272   9.275   7.909  11.643 -0.5185 -0.8917  0.3560
  247ccc     O3 7273   9.311   7.847  11.546  0.0471  0.1955 -0.1275
  247ccc     O4 7274   9.211   8.025  11.631 -0.4981  0.3237  0.0373
  247ccc    H16 7275   9.199   8.063  11.719  1.4871 -0.2255  0.6042
  247ccc     O5 7276   9.593   7.327  11.775  0.6200  0.3422  0.3066
  248ccc     C1 7277   9.401   7.084  12.461 -0.2545 -0.3975  0.1881
  248ccc     H1 7278   9.497   7.137  12.467 -1.3426  1.5794  1.2510
  248ccc     H2 7279   9.319   7.148  12.497 -0.5378  0.3307 -1.6463
  248ccc     C2 7280   9.425   6.944  12.517 -0.3795  0.5192  0.0292
  248ccc     H3 7281   9.323   6.907  12.528 -0.5429  1.5180  2.1867
  248ccc     H4 7282   9.465   6.960  12.618  1.6805 -0.2604 -0.5913
  248ccc     C3 7283   9.520   6.843  12.451 -0.5437 -0.8022 -0.3867
  248ccc     H5 7284   9.598   6.905  12.405 -0.0560  0.0598  1.4707
  248ccc     H6 7285   9.464   6.786  12.377 -2.4243 -0.4884  0.7460
  248ccc     N1 7286   9.586   6.749  12.542  0.0457 -0.0811 -0.2025
  248ccc     C4 7287   9.493   6.673  12.630  0.5137  0.3857 -0.2325
  248ccc     H7 7288   9.462   6.580  12.581  0.1751  1.6958 -2.7109
  248ccc     H8 7289   9.398   6.727  12.641 -0.2914 -0.7139 -1.4123
  248ccc     C5 7290   9.560   6.643  12.758  0.6461  0.2716  0.6998
  248ccc     H9 7291   9.650   6.580  12.760 -0.0859 -0.7719  2.0963
  248ccc    H10 7292   9.575   6.737  12.812  1.5293  0.3314  0.3758
  248ccc     C6 7293   9.461   6.569  12.859  0.1230  0.0392  1.0634
  248ccc     O1 7294   9.341   6.564  12.827  0.0462 -0.0447  0.0690
  248ccc     O2 7295   9.496   6.568  12.986  0.5954  0.1378  0.2313
  248ccc    H11 7296   9.591   6.589  12.992  0.4319  0.5963  1.2644
  248ccc     C7 7297   9.681   6.665  12.464 -0.1817  0.5452 -0.1444
  248ccc    H12 7298   9.728   6.591  12.531 -0.0380  2.1712  1.6582
  248ccc    H13 7299   9.616   6.607  12.397 -0.8467 -0.0441  0.9694
  248ccc     C8 7300   9.792   6.741  12.390  0.4018 -0.2961  0.0595
  248ccc    H14 7301   9.754   6.795  12.302  1.9814 -0.9610 -1.0637
  248ccc    H15 7302   9.827   6.820  12.458 -0.2612  0.4697 -0.4764
  248ccc     C9 7303   9.909   6.654  12.343 -0.2286 -0.0652 -0.6887
  248ccc     O3 7304   9.906   6.535  12.332 -0.4134  0.5821 -0.0205
  248ccc     O4 7305  10.002   6.724  12.272 -0.2681  0.6341 -0.5203
  248ccc    H16 7306   9.979   6.818  12.285  0.3982  0.5445  1.6164
  248ccc     O5 7307   9.379   7.067  12.324 -0.5296  0.3974  0.3861
  249ccc     C1 7308   8.754   7.594  11.522 -0.0937 -0.3218  0.7879
  249ccc     H1 7309   8.809   7.580  11.428 -0.3542 -0.1681  0.6126
  249ccc     H2 7310   8.732   7.496  11.566  0.2545 -0.9209 -0.3260
  249ccc     C2 7311   8.623   7.673  11.494 -0.1436  0.0005 -0.4261
  249ccc     H3 7312   8.636   7.770  11.444  1.8390  0.4859  0.9139
  249ccc     H4 7313   8.584   7.699  11.594  1.5075  0.7220  0.0649
  249ccc     C3 7314   8.522   7.586  11.412 -0.0887  0.0942  0.3909
  249ccc     H5 7315   8.433   7.642  11.381  0.3773  0.2729 -0.6731
  249ccc     H6 7316   8.495   7.511  11.488 -0.5731 -0.0106  0.1191
  249ccc     N1 7317   8.594   7.517  11.301 -0.1285 -0.0523  0.6374
  249ccc     C4 7318   8.526   7.391  11.275 -0.2113  0.1793 -1.2165
  249ccc     H7 7319   8.431   7.404  11.222  0.3173 -1.8539 -2.7857
  249ccc     H8 7320   8.504   7.337  11.368  1.7416 -0.9142 -1.3278
  249ccc     C5 7321   8.607   7.302  11.176  0.1548  0.1717 -0.5669
  249ccc     H9 7322   8.600   7.338  11.073 -0.1870  1.7166 -0.0396
  249ccc    H10 7323   8.710   7.292  11.212 -0.0284 -1.0306 -0.3505
  249ccc     C6 7324   8.550   7.156  11.171 -0.4227  0.2507  0.3555
  249ccc     O1 7325   8.477   7.102  11.248 -0.0877  0.2770 -0.0181
  249ccc     O2 7326   8.604   7.079  11.077 -0.0918 -0.3623  0.3740
  249ccc    H11 7327   8.672   7.131  11.032  0.5607 -0.4382  1.2455
  249ccc     C7 7328   8.622   7.602  11.186  0.6555  0.4710  0.3473
  249ccc    H12 7329   8.686   7.682  11.225  1.3946 -1.2921  3.0467
  249ccc    H13 7330   8.681   7.535  11.123  2.4030 -0.3757  2.7330
  249ccc     C8 7331   8.502   7.667  11.107  0.8020  0.2528  0.1569
  249ccc    H14 7332   8.452   7.582  11.058  2.1014 -0.9115  0.7727
  249ccc    H15 7333   8.429   7.722  11.168 -0.3578 -0.3509 -0.6422
  249ccc     C9 7334   8.540   7.773  11.000 -0.0323  0.0329 -0.0279
  249ccc     O3 7335   8.656   7.793  10.971  1.1058 -0.6283 -0.5975
  249ccc     O4 7336   8.444   7.806  10.909 -0.1613  0.1993 -0.2994
  249ccc    H16 7337   8.359   7.789  10.953  0.0941  0.9990  0.5432
  249ccc     O5 7338   8.837   7.670  11.621  0.7174 -0.0643 -0.2598
  250ccc     C1 7339   8.878   7.537  12.201  0.0902 -0.2339  0.0052
  250ccc     H1 7340   8.938   7.596  12.271  4.0649 -1.5274 -1.9559
  250ccc     H2 7341   8.898   7.558  12.095 -1.2245 -1.2334 -0.4663
  250ccc     C2 7342   8.728   7.552  12.221  0.3559  0.8497 -0.0744
  250ccc     H3 7343   8.708   7.549  12.329  1.6702  1.3388  0.2021
  250ccc     H4 7344   8.673   7.464  12.185  1.4234  0.2011 -0.1563
  250ccc     C3 7345   8.680   7.685  12.155 -0.1343  0.1333  0.2766
  250ccc     H5 7346   8.735   7.769  12.200 -1.1630  1.2949 -0.5740
  250ccc     H6 7347   8.578   7.699  12.192  0.6258  0.5353  2.3878
  250ccc     N1 7348   8.692   7.687  12.009  0.6912  0.5357 -0.6182
  250ccc     C4 7349   8.717   7.810  11.943  0.4718 -0.7721  0.1759
  250ccc     H7 7350   8.633   7.871  11.978  0.0812 -2.8839  3.2375
  250ccc     H8 7351   8.700   7.791  11.836 -0.9579 -0.9441  0.4113
  250ccc     C5 7352   8.855   7.866  11.969  0.0928  0.0426 -0.5380
  250ccc     H9 7353   8.862   7.922  12.064  0.9925  4.7887 -3.0757
  250ccc    H10 7354   8.922   7.780  11.962  1.0121  0.5846  1.0747
  250ccc     C6 7355   8.879   7.978  11.871  0.6671 -0.1543 -0.1815
  250ccc     O1 7356   8.894   8.095  11.900 -0.4923 -0.6514  0.1062
  250ccc     O2 7357   8.880   7.944  11.738 -0.1700 -0.4729 -0.0069
  250ccc    H11 7358   8.894   7.848  11.732  1.0109 -0.3520  0.5874
  250ccc     C7 7359   8.601   7.591  11.944  0.5736 -0.0595  0.1745
  250ccc    H12 7360   8.621   7.599  11.836  0.1835 -0.2679  0.0856
  250ccc    H13 7361   8.626   7.489  11.976  1.8323  0.4306  0.8227
  250ccc     C8 7362   8.452   7.630  11.958 -0.5658  0.0267  0.1867
  250ccc    H14 7363   8.431   7.607  12.063  2.0176  0.2414  0.8117
  250ccc    H15 7364   8.436   7.738  11.946 -1.4640 -0.0197  0.8636
  250ccc     C9 7365   8.366   7.562  11.848 -0.0711 -0.7187 -0.5635
  250ccc     O3 7366   8.417   7.520  11.749  0.6747  0.2408  0.4619
  250ccc     O4 7367   8.227   7.580  11.854 -0.6160  0.0462 -0.2224
  250ccc    H16 7368   8.203   7.614  11.942  1.4265 -1.5430  1.0232
  250ccc     O5 7369   8.904   7.395  12.231  0.2775  0.0219 -0.1584
  251ccc     C1 7370  10.001   6.284  12.534 -0.0220 -0.2606 -0.0206
  251ccc     H1 7371  10.058   6.335  12.612  0.3811 -0.9654  0.1532
  251ccc     H2 7372  10.007   6.334  12.436 -2.8803  2.3107  0.9791
  251ccc     C2 7373   9.851   6.283  12.568  0.0377  0.1665  0.7698
  251ccc     H3 7374   9.832   6.389  12.586  1.7143  1.0813 -2.1382
  251ccc     H4 7375   9.841   6.224  12.660 -1.6646 -0.4619  0.2286
  251ccc     C3 7376   9.768   6.221  12.450 -0.6118 -0.2354  0.4423
  251ccc     H5 7377   9.826   6.132  12.422  1.2559  0.5594  1.5597
  251ccc     H6 7378   9.770   6.285  12.361  1.6733 -4.7260 -3.2454
  251ccc     N1 7379   9.631   6.192  12.482 -0.9406 -0.2830 -0.0179
  251ccc     C4 7380   9.568   6.106  12.388 -0.4963  0.5291  0.1823
  251ccc     H7 7381   9.578   6.159  12.292  0.2783  1.4317  0.7359
  251ccc     H8 7382   9.464   6.101  12.422  0.3080  0.5804  2.8245
  251ccc     C5 7383   9.619   5.959  12.376  0.5612 -0.3325  0.1521
  251ccc     H9 7384   9.558   5.904  12.304  0.0661 -0.0445  0.3520
  251ccc    H10 7385   9.722   5.952  12.336  0.1800 -1.6061 -0.6903
  251ccc     C6 7386   9.597   5.876  12.500 -0.0099  0.3969 -0.2295
  251ccc     O1 7387   9.486   5.835  12.527  0.5572 -0.2756  0.1488
  251ccc     O2 7388   9.706   5.851  12.572 -0.0281 -0.2279  0.1880
  251ccc    H11 7389   9.776   5.887  12.515 -1.1049  1.1600 -0.3360
  251ccc     C7 7390   9.548   6.316  12.530 -0.5641  0.8199  0.1429
  251ccc    H12 7391   9.605   6.372  12.604  3.1531 -2.0808 -0.2316
  251ccc    H13 7392   9.537   6.389  12.449  3.0768  2.2547  0.7408
  251ccc     C8 7393   9.415   6.278  12.607  0.2367  0.3828  0.8610
  251ccc    H14 7394   9.357   6.364  12.644 -0.1667 -0.0181  1.1727
  251ccc    H15 7395   9.346   6.226  12.541 -1.4885  0.6951  2.3392
  251ccc     C9 7396   9.452   6.207  12.726  0.6587  0.5181 -0.8538
  251ccc     O3 7397   9.518   6.266  12.812 -0.3103  0.7297 -0.1305
  251ccc     O4 7398   9.369   6.105  12.759  0.0100 -0.1352 -0.1257
  251ccc    H16 7399   9.311   6.081  12.686 -0.9229 -0.5783  0.7343
  251ccc     O5 7400  10.043   6.144  12.526  0.3594 -0.0755  0.1419
  252ccc     C1 7401  10.754   5.858  12.093  0.1468  0.5980  0.0407
  252ccc     H1 7402  10.861   5.839  12.109  0.1527  1.1873  0.7675
  252ccc     H2 7403  10.712   5.860  12.194 -1.5719 -0.2771 -0.6108
  252ccc     C2 7404  10.687   5.751  12.003 -0.4264 -0.4497 -0.8385
  252ccc     H3 7405  10.709   5.654  12.049 -0.1776 -0.0097 -0.0084
  252ccc     H4 7406  10.747   5.762  11.912  1.0469 -1.8572 -0.0957
  252ccc     C3 7407  10.539   5.773  11.974  0.8674 -0.1110 -0.7160
  252ccc     H5 7408  10.533   5.874  11.932 -0.7955  0.6317  1.1443
  252ccc     H6 7409  10.496   5.763  12.074  2.7280 -2.8491 -0.0644
  252ccc     N1 7410  10.488   5.680  11.872  0.0575 -0.2325  0.3199
  252ccc     C4 7411  10.501   5.538  11.911  0.6301  0.0007  0.1314
  252ccc     H7 7412  10.428   5.506  11.986 -0.1822 -2.3603 -1.5328
  252ccc     H8 7413  10.601   5.511  11.946  1.2676 -1.4224 -2.5105
  252ccc     C5 7414  10.487   5.443  11.788  0.2598 -0.3504 -0.1297
  252ccc     H9 7415  10.383   5.443  11.753 -0.1679  2.9471  0.7075
  252ccc    H10 7416  10.548   5.482  11.705 -0.6787  0.3164 -0.5253
  252ccc     C6 7417  10.513   5.302  11.829  0.0608  0.0613 -0.7447
  252ccc     O1 7418  10.544   5.264  11.947  0.1383 -0.4362  0.0796
  252ccc     O2 7419  10.563   5.243  11.720  0.1844  0.2317  0.4356
  252ccc    H11 7420  10.557   5.302  11.642  3.8836 -0.5846 -0.6347
  252ccc     C7 7421  10.351   5.713  11.817 -0.6547  0.3415 -0.0956
  252ccc    H12 7422  10.338   5.654  11.726  0.8152  0.0483 -0.1362
  252ccc    H13 7423  10.282   5.699  11.902  1.5815  1.8661  2.1232
  252ccc     C8 7424  10.328   5.865  11.774 -0.5050 -0.3856 -0.3085
  252ccc    H14 7425  10.342   5.927  11.863  1.3809 -2.1173  0.7033
  252ccc    H15 7426  10.405   5.905  11.706  0.6109 -1.2443  0.3987
  252ccc     C9 7427  10.188   5.893  11.722  0.4192 -0.1336  0.6482
  252ccc     O3 7428  10.085   5.840  11.767 -0.0887  0.5702  0.5183
  252ccc     O4 7429  10.176   6.005  11.644 -0.1647  0.4306  0.4349
  252ccc    H16 7430  10.262   6.043  11.621  0.5956 -2.2504 -1.6399
  252ccc     O5 7431  10.729   5.989  12.027  0.4925 -0.6098  0.0342
  253ccc     C1 7432  10.209   7.012  11.114 -0.1584 -0.5263  0.0947
  253ccc     H1 7433  10.221   7.097  11.046  1.0391 -0.7885 -0.0357
  253ccc     H2 7434  10.107   7.017  11.155 -0.6022 -0.8933 -0.9516
  253ccc     C2 7435  10.305   7.014  11.238  0.8772  0.2839 -0.2727
  253ccc     H3 7436  10.295   7.114  11.282  2.9104 -0.1708  1.3353
  253ccc     H4 7437  10.406   7.000  11.200  0.7227  1.3279 -1.1277
  253ccc     C3 7438  10.269   6.917  11.354 -0.1905  0.6479  0.6342
  253ccc     H5 7439  10.244   6.817  11.315 -0.5329  1.0088 -0.0840
  253ccc     H6 7440  10.181   6.963  11.400 -0.1191  1.0366  0.3882
  253ccc     N1 7441  10.378   6.922  11.458  0.5314  0.8293  0.2037
  253ccc     C4 7442  10.389   6.800  11.544 -0.2873 -0.2026 -0.3262
  253ccc     H7 7443  10.367   6.719  11.474 -1.8403  2.0094 -2.5639
  253ccc     H8 7444  10.306   6.805  11.617  1.0361 -1.0532  1.3113
  253ccc     C5 7445  10.525   6.780  11.614  0.4168 -0.0525 -0.1117
  253ccc     H9 7446  10.606   6.808  11.546 -1.0341 -1.9479 -2.8120
  253ccc    H10 7447  10.532   6.854  11.695 -2.9828  0.0741  0.2120
  253ccc     C6 7448  10.546   6.645  11.671  0.1339 -0.9895 -0.2483
  253ccc     O1 7449  10.535   6.617  11.792 -0.0096  0.3904  0.7600
  253ccc     O2 7450  10.583   6.560  11.576 -0.1570  0.1440 -0.0196
  253ccc    H11 7451  10.586   6.619  11.498  0.9109  1.0157  0.6547
  253ccc     C7 7452  10.415   7.051  11.521  0.1507  0.0625 -0.5226
  253ccc    H12 7453  10.507   7.039  11.580 -0.2488  0.6404  0.2266
  253ccc    H13 7454  10.427   7.131  11.447  0.0296 -0.5391 -1.2059
  253ccc     C8 7455  10.302   7.101  11.611 -0.3869  0.8084 -0.1582
  253ccc    H14 7456  10.205   7.088  11.561 -1.6745  0.7039  2.2172
  253ccc    H15 7457  10.294   7.046  11.705 -1.6309  1.0340 -0.1120
  253ccc     C9 7458  10.326   7.245  11.658  0.3810 -0.0202  0.1094
  253ccc     O3 7459  10.276   7.335  11.595 -0.6974  0.3965  0.1129
  253ccc     O4 7460  10.419   7.254  11.752 -0.1605 -0.0360  0.6326
  253ccc    H16 7461  10.451   7.167  11.783 -1.3759 -0.2842  1.2228
  253ccc     O5 7462  10.234   6.881  11.044 -0.9293 -0.0988  0.0153
  254ccc     C1 7463   9.756   6.287  10.227 -0.0477  0.5985  0.2655
  254ccc     H1 7464   9.674   6.248  10.288 -2.3697  1.3212 -2.1966
  254ccc     H2 7465   9.726   6.388  10.198 -0.8591  0.9785  2.3007
  254ccc     C2 7466   9.789   6.200  10.106  0.8091  0.4274 -0.3541
  254ccc     H3 7467   9.822   6.102  10.142  1.7102  0.5484 -0.7988
  254ccc     H4 7468   9.875   6.245  10.053  1.0759 -0.9034 -1.1016
  254ccc     C3 7469   9.664   6.194  10.011  0.5822 -0.2404  0.2413
  254ccc     H5 7470   9.701   6.141   9.923  0.7737 -1.4413  1.0215
  254ccc     H6 7471   9.626   6.289   9.972  0.4330 -0.9235 -1.3952
  254ccc     N1 7472   9.547   6.127  10.079 -0.3238 -0.4980  0.6627
  254ccc     C4 7473   9.558   5.984  10.088  0.4991 -0.4331 -0.6484
  254ccc     H7 7474   9.661   5.945  10.090  0.5580 -0.2520  1.0638
  254ccc     H8 7475   9.509   5.945   9.998 -1.2901  2.3446 -0.9892
  254ccc     C5 7476   9.490   5.928  10.216  0.1916  0.4922 -0.2647
  254ccc     H9 7477   9.391   5.972  10.233  1.1678  2.0535  1.8551
  254ccc    H10 7478   9.479   5.820  10.199 -2.6786  0.0839  3.1455
  254ccc     C6 7479   9.580   5.940  10.337  0.4409  0.0812  0.1918
  254ccc     O1 7480   9.582   6.030  10.417  0.0058  0.7305 -0.1922
  254ccc     O2 7481   9.682   5.858  10.332  0.3554  0.1105  0.0893
  254ccc    H11 7482   9.673   5.805  10.250 -2.9964 -0.6019  0.7845
  254ccc     C7 7483   9.414   6.160  10.018  0.6976 -0.3110  0.6049
  254ccc    H12 7484   9.409   6.136   9.911  2.1575 -6.1857  1.4995
  254ccc    H13 7485   9.331   6.099  10.055 -2.0750  2.0971 -1.1850
  254ccc     C8 7486   9.382   6.308  10.035 -0.3521 -0.5966 -0.2580
  254ccc    H14 7487   9.391   6.338  10.140  2.1317 -0.7933 -0.3686
  254ccc    H15 7488   9.447   6.374   9.976 -0.5367 -1.4909 -1.5169
  254ccc     C9 7489   9.235   6.337   9.993  0.2932  0.2256  0.0214
  254ccc     O3 7490   9.184   6.299   9.886 -0.3492 -0.6001 -0.1409
  254ccc     O4 7491   9.191   6.455  10.039  0.5746  0.7944  0.5293
  254ccc    H16 7492   9.235   6.477  10.123 -0.8277  0.9539  1.2581
  254ccc     O5 7493   9.866   6.289  10.322  0.0543  0.3200 -0.0198
  255ccc     C1 7494   6.862   3.478  12.967  0.7780 -0.0464 -0.4612
  255ccc     H1 7495   6.933   3.396  12.948  0.4220 -0.0530 -1.8904
  255ccc     H2 7496   6.800   3.499  12.879  0.3021 -1.7568 -0.5549
  255ccc     C2 7497   6.925   3.607  13.010  0.5038  0.1906  0.2649
  255ccc     H3 7498   6.998   3.634  12.932 -0.3465 -1.5609 -1.2196
  255ccc     H4 7499   6.983   3.596  13.102  0.7212 -1.0709  0.0040
  255ccc     C3 7500   6.817   3.716  13.025  0.5596 -0.0657 -0.9190
  255ccc     H5 7501   6.745   3.671  13.095  0.9230  0.3727 -0.2599
  255ccc     H6 7502   6.755   3.728  12.935  0.4558 -0.9660 -0.9781
  255ccc     N1 7503   6.862   3.845  13.077 -0.0129  0.1667 -0.4137
  255ccc     C4 7504   6.770   3.897  13.185  0.0097  0.2760  0.4835
  255ccc     H7 7505   6.728   3.813  13.241 -0.4994  0.1813 -0.0342
  255ccc     H8 7506   6.683   3.942  13.135  0.5017 -0.6399 -1.2613
  255ccc     C5 7507   6.836   4.008  13.273 -0.7422 -0.6058  0.3014
  255ccc     H9 7508   6.922   3.962  13.324 -1.5278 -1.1352  1.1942
  255ccc    H10 7509   6.868   4.094  13.213  0.9524  0.5576  2.7072
  255ccc     C6 7510   6.745   4.068  13.382 -0.3341 -1.1064 -0.4269
  255ccc     O1 7511   6.664   4.158  13.369 -0.2348 -0.1040 -0.1762
  255ccc     O2 7512   6.767   4.019  13.505 -0.1443  0.3582  0.0071
  255ccc    H11 7513   6.823   3.944  13.478 -0.0418  1.1745 -2.2365
  255ccc     C7 7514   6.932   3.944  12.985  0.1502  0.6025 -0.1157
  255ccc    H12 7515   6.998   4.006  13.046  2.1662 -0.7219 -0.8417
  255ccc    H13 7516   6.993   3.892  12.909  0.6351  0.0107  0.6605
  255ccc     C8 7517   6.847   4.040  12.904  0.3456  0.1374 -0.0608
  255ccc    H14 7518   6.785   3.980  12.836  2.2765  0.5421 -2.2931
  255ccc    H15 7519   6.779   4.096  12.970 -0.2207  0.2399 -0.7169
  255ccc     C9 7520   6.926   4.136  12.824 -0.3507  0.4627 -0.4828
  255ccc     O3 7521   7.032   4.104  12.768  0.0068  0.0847  0.9411
  255ccc     O4 7522   6.857   4.240  12.791 -0.0778 -0.7213 -0.3512
  255ccc    H16 7523   6.767   4.243  12.827 -0.1575  0.4996 -0.6008
  255ccc     O5 7524   6.770   3.431  13.073 -0.6315  0.2747  0.2044
  256ccc     C1 7525   6.388   3.530  13.926 -0.0603 -0.9002  0.7725
  256ccc     H1 7526   6.446   3.620  13.904  0.6803 -1.4893  0.2251
  256ccc     H2 7527   6.291   3.544  13.876 -0.8116 -1.2673  2.0665
  256ccc     C2 7528   6.362   3.510  14.077 -0.2500 -0.4356  0.3817
  256ccc     H3 7529   6.463   3.515  14.118 -0.1638 -2.3294  0.4688
  256ccc     H4 7530   6.325   3.410  14.102  0.0732 -1.2829 -2.1666
  256ccc     C3 7531   6.266   3.617  14.139 -0.0644  0.6838  0.3273
  256ccc     H5 7532   6.227   3.579  14.234 -2.7275 -0.2790 -1.0385
  256ccc     H6 7533   6.172   3.622  14.082 -0.4713 -0.0893  0.9329
  256ccc     N1 7534   6.319   3.753  14.145 -0.6684 -0.0689  0.6896
  256ccc     C4 7535   6.217   3.853  14.180  0.3737 -0.0923 -0.5370
  256ccc     H7 7536   6.247   3.918  14.263  2.3481 -1.6784  0.0839
  256ccc     H8 7537   6.129   3.798  14.217 -0.0881  0.5241 -0.7124
  256ccc     C5 7538   6.186   3.937  14.058  0.1198 -0.1186 -0.4496
  256ccc     H9 7539   6.105   4.006  14.084  0.1448 -0.6498  1.1655
  256ccc    H10 7540   6.277   3.991  14.029  0.4825  0.6654  1.9492
  256ccc     C6 7541   6.141   3.857  13.934 -0.5210  0.0973 -0.6470
  256ccc     O1 7542   6.025   3.823  13.903  0.1694 -0.1930 -0.0869
  256ccc     O2 7543   6.246   3.799  13.875 -0.0738 -0.3999  0.9530
  256ccc    H11 7544   6.325   3.843  13.912  0.3812  0.9945 -1.4977
  256ccc     C7 7545   6.456   3.769  14.205  0.0827 -0.4597  0.3519
  256ccc    H12 7546   6.535   3.716  14.151  0.1253 -1.1284  1.0602
  256ccc    H13 7547   6.478   3.876  14.194  1.3278 -0.8371 -1.1330
  256ccc     C8 7548   6.459   3.733  14.357  0.4318  0.0526  1.1523
  256ccc    H14 7549   6.391   3.801  14.409 -1.9794 -1.2423 -0.1354
  256ccc    H15 7550   6.434   3.629  14.381 -0.3056 -0.2373 -0.7208
  256ccc     C9 7551   6.599   3.753  14.414 -0.4229  0.0242  0.1735
  256ccc     O3 7552   6.680   3.665  14.415 -0.3440 -0.6197  0.6657
  256ccc     O4 7553   6.645   3.877  14.409 -0.2099 -0.1803 -0.3355
  256ccc    H16 7554   6.565   3.932  14.398 -0.3937 -0.5739 -1.1036
  256ccc     O5 7555   6.466   3.418  13.882 -0.9115  0.7386 -0.0091
  257ccc     C1 7556   6.176   4.471  13.393 -0.2180  0.6814  0.1722
  257ccc     H1 7557   6.224   4.551  13.336 -0.7025  1.1252  0.3873
  257ccc     H2 7558   6.187   4.491  13.500 -1.1995  1.5976  0.1147
  257ccc     C2 7559   6.257   4.345  13.363  0.4469 -0.1596  0.1521
  257ccc     H3 7560   6.362   4.377  13.374  0.9317 -0.8159 -2.1013
  257ccc     H4 7561   6.246   4.308  13.260  0.3234 -1.0136  0.4668
  257ccc     C3 7562   6.220   4.218  13.450  0.1258 -0.9890  0.9951
  257ccc     H5 7563   6.290   4.138  13.422  1.5855  0.4589  0.3385
  257ccc     H6 7564   6.119   4.187  13.421  0.8110 -2.3521 -0.0372
  257ccc     N1 7565   6.210   4.230  13.593  0.2136  0.1682 -0.0017
  257ccc     C4 7566   6.324   4.295  13.659 -0.4898  0.2214 -0.3024
  257ccc     H7 7567   6.300   4.310  13.765  1.5515  0.1742  0.2002
  257ccc     H8 7568   6.330   4.396  13.618 -0.8767  0.0586 -0.7673
  257ccc     C5 7569   6.454   4.211  13.645  0.0529  0.5046 -0.0672
  257ccc     H9 7570   6.448   4.113  13.694  0.1827  0.9985  0.9562
  257ccc    H10 7571   6.473   4.198  13.538  1.8080  2.3798 -0.0405
  257ccc     C6 7572   6.575   4.277  13.717 -0.3187  0.4114 -0.2978
  257ccc     O1 7573   6.560   4.363  13.800 -0.2969 -0.0816 -0.0944
  257ccc     O2 7574   6.697   4.222  13.699  0.1534  0.4770 -0.0701
  257ccc    H11 7575   6.697   4.176  13.613 -1.2733  1.3296 -0.5625
  257ccc     C7 7576   6.139   4.121  13.659 -1.0251 -0.1202 -0.3377
  257ccc    H12 7577   6.059   4.082  13.594 -1.0041  0.6388 -0.8398
  257ccc    H13 7578   6.197   4.029  13.677 -2.2899 -0.7240  0.7958
  257ccc     C8 7579   6.084   4.158  13.794  0.7388 -0.3736 -0.0025
  257ccc    H14 7580   6.029   4.068  13.825 -1.1396  0.6968 -0.1069
  257ccc    H15 7581   6.166   4.163  13.866  0.8035  0.2964 -0.1208
  257ccc     C9 7582   5.992   4.278  13.802  0.4945 -0.3558  0.5370
  257ccc     O3 7583   6.027   4.399  13.805  0.0822  0.1013  0.1814
  257ccc     O4 7584   5.860   4.246  13.830 -0.1874  0.1196 -0.4311
  257ccc    H16 7585   5.861   4.149  13.821  0.1323  0.1820 -1.1282
  257ccc     O5 7586   6.043   4.446  13.353  0.0068  0.0995  0.7552
  258ccc     C1 7587   5.513   4.470  13.906  0.0696  0.6035  0.3316
  258ccc     H1 7588   5.593   4.456  13.833 -0.9169 -2.7423 -0.2828
  258ccc     H2 7589   5.488   4.577  13.906  0.2331  0.6442  0.9456
  258ccc     C2 7590   5.565   4.427  14.046  0.3876  0.6114 -0.1379
  258ccc     H3 7591   5.592   4.321  14.043 -0.1953  0.4672 -2.3457
  258ccc     H4 7592   5.479   4.454  14.109 -0.3998  0.1134 -0.9727
  258ccc     C3 7593   5.691   4.507  14.085  0.0910 -0.4295  1.0454
  258ccc     H5 7594   5.679   4.612  14.054  4.0273  0.4129  1.7691
  258ccc     H6 7595   5.777   4.476  14.024  2.1407  3.0385  1.8864
  258ccc     N1 7596   5.723   4.508  14.220  0.2454  0.2162  0.2804
  258ccc     C4 7597   5.774   4.384  14.276 -0.5308  0.3247 -0.3538
  258ccc     H7 7598   5.699   4.305  14.265  0.2352 -0.5174  0.2647
  258ccc     H8 7599   5.804   4.386  14.382 -0.1629 -1.3227 -0.3960
  258ccc     C5 7600   5.905   4.332  14.214 -1.1139  1.3963  0.2736
  258ccc     H9 7601   5.907   4.310  14.106 -2.4553 -0.6157  0.6279
  258ccc    H10 7602   5.994   4.392  14.238 -0.9215  1.4022 -0.4108
  258ccc     C6 7603   5.941   4.193  14.258 -0.6706 -0.2660  0.1495
  258ccc     O1 7604   5.912   4.086  14.206  0.1405 -0.1287  0.0534
  258ccc     O2 7605   6.015   4.192  14.364  0.9098 -0.2067 -0.7659
  258ccc    H11 7606   6.044   4.281  14.387  0.4819  0.0544 -1.2267
  258ccc     C7 7607   5.796   4.635  14.250 -0.2764  0.6076 -0.0925
  258ccc    H12 7608   5.889   4.636  14.192  0.1834 -0.2866  0.5969
  258ccc    H13 7609   5.741   4.722  14.213  0.5812  1.4492  0.5344
  258ccc     C8 7610   5.812   4.646  14.407  0.0158  0.8231 -0.0693
  258ccc    H14 7611   5.710   4.634  14.448 -0.2038  0.1833 -0.7808
  258ccc    H15 7612   5.879   4.571  14.450  1.1742  2.3120  0.8140
  258ccc     C9 7613   5.861   4.784  14.449 -0.0034 -0.1515 -0.1548
  258ccc     O3 7614   5.892   4.878  14.378 -0.1402 -0.0765  0.1474
  258ccc     O4 7615   5.868   4.804  14.584 -0.2305 -0.6279 -0.4418
  258ccc    H16 7616   5.840   4.717  14.618 -0.5795 -1.1532 -1.9823
  258ccc     O5 7617   5.400   4.384  13.871 -0.4504  0.1626  0.3464
  259ccc     C1 7618   7.310   4.869  13.559 -0.5635 -0.4477  0.1769
  259ccc     H1 7619   7.225   4.918  13.510  0.2990 -0.5826 -1.5374
  259ccc     H2 7620   7.282   4.814  13.650  0.3178  1.7400  1.8632
  259ccc     C2 7621   7.415   4.977  13.605 -0.0064  0.5103  0.3417
  259ccc     H3 7622   7.472   4.932  13.687 -1.2878  0.6324  1.3418
  259ccc     H4 7623   7.366   5.063  13.653  1.1123  0.3957  1.7524
  259ccc     C3 7624   7.494   5.037  13.485  0.0185 -0.4634  0.2141
  259ccc     H5 7625   7.426   5.086  13.415 -0.0562  2.8676  2.3908
  259ccc     H6 7626   7.548   4.955  13.437  0.5335 -0.9161  1.5237
  259ccc     N1 7627   7.588   5.138  13.538  0.7961 -0.2762 -0.6268
  259ccc     C4 7628   7.601   5.256  13.445 -0.6392 -0.0758 -0.2106
  259ccc     H7 7629   7.667   5.325  13.499  0.8212 -1.3340 -0.3183
  259ccc     H8 7630   7.517   5.326  13.436 -2.1475 -1.9294 -1.4421
  259ccc     C5 7631   7.670   5.228  13.310  0.7007  0.2598 -0.1774
  259ccc     H9 7632   7.735   5.140  13.318 -0.2678 -0.3236  2.0948
  259ccc    H10 7633   7.599   5.197  13.232 -0.8533  1.6909  0.5906
  259ccc     C6 7634   7.751   5.345  13.253  0.2942 -0.3219 -0.9076
  259ccc     O1 7635   7.824   5.409  13.325 -0.2111 -0.3981 -0.4541
  259ccc     O2 7636   7.706   5.393  13.140  0.0546  0.2031 -0.2763
  259ccc    H11 7637   7.635   5.341  13.098 -1.0146  2.1257 -1.0140
  259ccc     C7 7638   7.708   5.084  13.597 -0.4420  0.2990 -0.1930
  259ccc    H12 7639   7.679   4.986  13.638 -0.8995  0.2271 -0.6674
  259ccc    H13 7640   7.790   5.076  13.525 -3.5561  0.1888 -4.0910
  259ccc     C8 7641   7.772   5.176  13.704 -0.6213 -0.2543 -0.2520
  259ccc    H14 7642   7.798   5.276  13.665  0.9941  0.4141  2.2701
  259ccc    H15 7643   7.710   5.200  13.791  0.9863 -0.5565  1.0322
  259ccc     C9 7644   7.908   5.123  13.754 -0.2953 -0.3435  0.0204
  259ccc     O3 7645   7.943   5.018  13.730  0.5983  0.1522  0.5592
  259ccc     O4 7646   7.984   5.200  13.836  0.1593  0.3233 -0.3543
  259ccc    H16 7647   7.929   5.280  13.839  0.4777  0.5494 -0.6743
  259ccc     O5 7648   7.375   4.780  13.474  0.0031 -0.6133 -0.3393
  260ccc     C1 7649   7.192   4.087  13.714  0.1565 -0.7293 -0.1030
  260ccc     H1 7650   7.280   4.058  13.656  0.8606  1.2911 -0.1272
  260ccc     H2 7651   7.216   4.156  13.795  3.0621  1.1364 -2.3299
  260ccc     C2 7652   7.130   3.958  13.768 -0.4383  0.3876  0.3051
  260ccc     H3 7653   7.201   3.918  13.841 -0.4404  0.1600  0.1844
  260ccc     H4 7654   7.122   3.887  13.685 -0.1319 -2.2033  2.3542
  260ccc     C3 7655   6.985   3.975  13.830  0.0332 -0.6274  0.7327
  260ccc     H5 7656   6.917   4.014  13.753 -1.9794 -0.6450  2.4060
  260ccc     H6 7657   7.007   4.041  13.915  2.1251 -0.1042 -0.1573
  260ccc     N1 7658   6.923   3.852  13.869 -0.1885 -0.1172 -0.2551
  260ccc     C4 7659   6.958   3.803  14.007  0.2555  0.1127 -0.0005
  260ccc     H7 7660   6.942   3.885  14.079  1.1814 -0.3373  0.7282
  260ccc     H8 7661   7.065   3.780  14.000  0.3031  0.1275  0.6351
  260ccc     C5 7662   6.886   3.672  14.048  0.6746  0.0890  0.2256
  260ccc     H9 7663   6.777   3.676  14.053  0.2378 -2.2939 -3.2236
  260ccc    H10 7664   6.895   3.599  13.967 -2.2639  0.6715 -0.7435
  260ccc     C6 7665   6.935   3.610  14.177  0.2606  0.0303 -0.1474
  260ccc     O1 7666   7.023   3.663  14.237  0.6964  0.1260 -0.1020
  260ccc     O2 7667   6.871   3.495  14.217  0.3003  0.2301  0.1350
  260ccc    H11 7668   6.806   3.474  14.148 -0.0392  0.7947  0.2765
  260ccc     C7 7669   6.776   3.863  13.854 -0.4266 -0.1050  0.0108
  260ccc    H12 7670   6.757   3.916  13.759 -0.1568  0.5941  0.3362
  260ccc    H13 7671   6.720   3.769  13.856 -0.1831 -0.2496  2.2036
  260ccc     C8 7672   6.716   3.953  13.966  0.3738  0.0437  0.0554
  260ccc    H14 7673   6.725   3.917  14.069 -0.8571 -2.8087 -0.7218
  260ccc    H15 7674   6.767   4.049  13.954  3.0822 -1.4857 -1.7736
  260ccc     C9 7675   6.566   3.964  13.949  0.0228  0.6898 -0.5761
  260ccc     O3 7676   6.500   3.886  13.879 -0.3422 -0.2712 -0.1275
  260ccc     O4 7677   6.523   4.087  13.963 -0.0779  0.3980 -0.1749
  260ccc    H16 7678   6.595   4.141  14.000 -0.1632  0.1200  0.3971
  260ccc     O5 7679   7.092   4.152  13.631  0.2642 -0.2047 -0.4767
  261ccc     C1 7680   6.355   5.074  14.119 -0.2383 -0.7414 -0.2068
  261ccc     H1 7681   6.446   5.052  14.178  0.0503 -1.0835 -0.7724
  261ccc     H2 7682   6.272   5.096  14.187  1.1537  0.4729  1.1937
  261ccc     C2 7683   6.326   4.953  14.033 -0.1885  0.4396  0.2037
  261ccc     H3 7684   6.419   4.931  13.980 -0.0947 -0.7571  0.8119
  261ccc     H4 7685   6.250   4.974  13.957  0.1985  1.0804 -0.0084
  261ccc     C3 7686   6.293   4.836  14.125 -0.4820  1.1022 -0.2248
  261ccc     H5 7687   6.198   4.855  14.175 -0.2424  0.7400  0.3768
  261ccc     H6 7688   6.367   4.825  14.205  1.0784 -1.0258 -1.8343
  261ccc     N1 7689   6.276   4.709  14.039 -0.1085  0.3595 -1.0661
  261ccc     C4 7690   6.271   4.585  14.118 -0.3378 -0.1275 -0.0733
  261ccc     H7 7691   6.179   4.574  14.176 -0.7294 -0.9848 -0.8398
  261ccc     H8 7692   6.361   4.592  14.180  1.5955 -2.6145 -2.3446
  261ccc     C5 7693   6.297   4.448  14.039 -0.2571 -0.1742  0.7368
  261ccc     H9 7694   6.229   4.430  13.955  0.3732  1.4698 -0.1465
  261ccc    H10 7695   6.402   4.432  14.011 -0.0524 -0.1123  1.4543
  261ccc     C6 7696   6.282   4.327  14.129  0.3898  0.4646 -0.3697
  261ccc     O1 7697   6.205   4.236  14.101 -0.0850  0.3193 -0.1757
  261ccc     O2 7698   6.358   4.325  14.242 -0.1303  0.4461  0.3248
  261ccc    H11 7699   6.405   4.409  14.231  0.3967  0.2969  1.2918
  261ccc     C7 7700   6.173   4.707  13.930  0.3710 -0.3346  0.0999
  261ccc    H12 7701   6.184   4.793  13.862 -0.5756  0.6983  1.2264
  261ccc    H13 7702   6.198   4.625  13.861 -1.1899 -0.8467  0.1205
  261ccc     C8 7703   6.019   4.704  13.968  0.0348 -0.0776  0.2422
  261ccc    H14 7704   6.005   4.599  13.995  1.8086 -1.1053 -2.3915
  261ccc    H15 7705   5.997   4.783  14.042  0.7500  0.1214  0.2527
  261ccc     C9 7706   5.914   4.725  13.867  0.2256 -0.0341 -0.2467
  261ccc     O3 7707   5.864   4.834  13.854  0.5906 -0.1328 -0.1346
  261ccc     O4 7708   5.912   4.635  13.766 -0.0317 -0.2347  0.0144
  261ccc    H16 7709   5.955   4.556  13.802  1.9247 -0.5681 -2.7354
  261ccc     O5 7710   6.384   5.193  14.049 -0.3561  0.6167  0.2297
  262ccc     C1 7711   5.789   5.453  14.193  0.2504 -0.0319 -0.0023
  262ccc     H1 7712   5.740   5.362  14.156  0.3070  0.8898 -2.5329
  262ccc     H2 7713   5.876   5.410  14.243 -0.6874 -1.7785  0.1983
  262ccc     C2 7714   5.694   5.545  14.279  0.0250 -0.5047 -0.3399
  262ccc     H3 7715   5.621   5.485  14.336 -0.8759  2.5161  2.0171
  262ccc     H4 7716   5.635   5.609  14.213  0.6924 -0.4952 -0.9325
  262ccc     C3 7717   5.762   5.642  14.383 -0.2610  0.7373  0.4630
  262ccc     H5 7718   5.846   5.695  14.334  0.7926  0.2450  1.6714
  262ccc     H6 7719   5.822   5.588  14.457 -0.8686  1.2694  1.3507
  262ccc     N1 7720   5.673   5.738  14.451 -0.0646  0.4673 -0.5099
  262ccc     C4 7721   5.758   5.827  14.535  0.3628 -0.1409 -0.0064
  262ccc     H7 7722   5.854   5.844  14.484 -0.7450 -1.0086 -2.5387
  262ccc     H8 7723   5.786   5.782  14.631 -1.1103  0.5853  0.7934
  262ccc     C5 7724   5.692   5.968  14.546 -0.4130 -0.4910 -0.1944
  262ccc     H9 7725   5.710   6.021  14.452  0.9875  1.5102  1.0987
  262ccc    H10 7726   5.586   5.966  14.574  0.2257  2.5564  3.1799
  262ccc     C6 7727   5.753   6.055  14.657  0.2508 -0.0135 -0.4405
  262ccc     O1 7728   5.841   6.025  14.735  0.0153  0.4216 -0.6209
  262ccc     O2 7729   5.704   6.179  14.664 -0.0908  0.3557  0.3353
  262ccc    H11 7730   5.634   6.177  14.596  1.3799 -0.8271 -1.2135
  262ccc     C7 7731   5.550   5.689  14.512 -0.1701  0.5632 -0.0633
  262ccc    H12 7732   5.503   5.772  14.566 -0.3721  0.8345 -0.6479
  262ccc    H13 7733   5.468   5.665  14.443 -2.7585 -0.8603  3.2489
  262ccc     C8 7734   5.576   5.577  14.622  0.7118  0.4079  0.3346
  262ccc    H14 7735   5.626   5.489  14.579  0.8163 -0.0998  1.4521
  262ccc    H15 7736   5.644   5.610  14.702  2.5762 -1.9498 -0.1736
  262ccc     C9 7737   5.447   5.521  14.679 -0.4642 -1.2861 -0.0676
  262ccc     O3 7738   5.401   5.419  14.652  0.2121  0.4840 -0.2102
  262ccc     O4 7739   5.394   5.597  14.780 -0.2461  0.3741  0.6016
  262ccc    H16 7740   5.435   5.686  14.786  0.8413 -0.1618  1.5167
  262ccc     O5 7741   5.828   5.518  14.075 -0.2880 -0.1296 -0.2163
  263ccc     C1 7742   7.291   4.170  10.729  0.2827  0.0825 -0.0686
  263ccc     H1 7743   7.301   4.278  10.710 -2.2313  0.5163  0.6933
  263ccc     H2 7744   7.257   4.161  10.833  4.0242 -3.2946  1.1461
  263ccc     C2 7745   7.426   4.093  10.735 -0.5488 -0.3758  1.2518
  263ccc     H3 7746   7.406   3.985  10.735  1.8860 -0.8963  1.0135
  263ccc     H4 7747   7.477   4.122  10.827 -0.0797  1.9067  0.3223
  263ccc     C3 7748   7.529   4.129  10.622  0.1731  0.6415  0.0580
  263ccc     H5 7749   7.553   4.235  10.633  1.8086  0.6850 -2.9196
  263ccc     H6 7750   7.483   4.113  10.524  1.2367 -0.9248 -0.2186
  263ccc     N1 7751   7.651   4.046  10.623 -0.0398  0.3319  0.3968
  263ccc     C4 7752   7.627   3.907  10.563  0.6352 -0.7866  0.2651
  263ccc     H7 7753   7.657   3.895  10.458 -2.4389 -2.6825 -0.5340
  263ccc     H8 7754   7.520   3.882  10.570  0.2547  0.3951 -0.9689
  263ccc     C5 7755   7.706   3.808  10.649  0.3250  0.4886 -0.1361
  263ccc     H9 7756   7.809   3.843  10.659  0.6278 -0.2276 -0.7057
  263ccc    H10 7757   7.667   3.805  10.752  1.2345 -0.3820  0.1997
  263ccc     C6 7758   7.702   3.663  10.595 -0.6739 -0.5220  0.2120
  263ccc     O1 7759   7.635   3.625  10.503  0.2101 -0.1399 -0.6972
  263ccc     O2 7760   7.775   3.574  10.664  0.2989 -0.0715 -0.2085
  263ccc    H11 7761   7.840   3.624  10.716  1.8223 -0.6782 -1.4526
  263ccc     C7 7762   7.771   4.107  10.558 -0.1846 -0.6473 -0.6511
  263ccc    H12 7763   7.852   4.035  10.570  0.1193 -0.2468 -0.2825
  263ccc    H13 7764   7.761   4.137  10.453  4.5975 -2.6537 -1.9401
  263ccc     C8 7765   7.824   4.229  10.648 -0.8148 -0.1900  0.0457
  263ccc    H14 7766   7.755   4.314  10.651 -1.7154 -0.9007  0.0252
  263ccc    H15 7767   7.837   4.198  10.753 -2.2706  2.6093  1.1544
  263ccc     C9 7768   7.949   4.298  10.587  0.3512  0.2243  0.3671
  263ccc     O3 7769   8.061   4.278  10.630 -0.1936 -0.0786  0.1167
  263ccc     O4 7770   7.934   4.382  10.476  0.2781  0.5338  0.5870
  263ccc    H16 7771   7.839   4.392  10.455  0.0623  0.6957  1.5994
  263ccc     O5 7772   7.205   4.109  10.637  0.1546 -0.0196  0.3915
  264ccc     C1 7773   6.345   4.237  10.350  0.3936 -0.2221 -0.2331
  264ccc     H1 7774   6.412   4.165  10.301 -2.7611 -3.7333  0.1951
  264ccc     H2 7775   6.254   4.178  10.338  0.1386  0.0132  0.4378
  264ccc     C2 7776   6.326   4.373  10.277  0.1486 -0.7451  0.2847
  264ccc     H3 7777   6.426   4.413  10.259  0.1544  0.0497  1.9362
  264ccc     H4 7778   6.275   4.438  10.349 -0.4489 -0.2960 -0.5205
  264ccc     C3 7779   6.242   4.370  10.143 -0.0411  0.0279  0.2442
  264ccc     H5 7780   6.266   4.461  10.087  0.4855 -0.9017 -1.0973
  264ccc     H6 7781   6.136   4.376  10.170  0.5729 -0.0443  2.8833
  264ccc     N1 7782   6.263   4.256  10.050  0.0606 -0.1348 -0.4560
  264ccc     C4 7783   6.156   4.238   9.945 -0.0978 -0.6461 -0.5000
  264ccc     H7 7784   6.184   4.152   9.883 -0.8165  0.1593 -1.9776
  264ccc     H8 7785   6.140   4.320   9.874 -1.4078 -0.0265  0.4659
  264ccc     C5 7786   6.018   4.208  10.011  0.6967 -0.0007  0.4555
  264ccc     H9 7787   6.036   4.120  10.074 -0.3123 -1.9897 -1.8453
  264ccc    H10 7788   5.977   4.292  10.068 -0.5321 -0.7386  0.7091
  264ccc     C6 7789   5.919   4.169   9.905 -0.0075  0.0312 -0.3559
  264ccc     O1 7790   5.889   4.052   9.888 -0.6071 -0.2692 -0.4322
  264ccc     O2 7791   5.873   4.271   9.831 -0.8843  0.3439  0.2624
  264ccc    H11 7792   5.910   4.353   9.868  0.2031  0.5679 -1.1961
  264ccc     C7 7793   6.401   4.246   9.994  0.0129 -0.1500 -0.0608
  264ccc    H12 7794   6.425   4.319   9.916 -2.8057 -1.5772 -2.4910
  264ccc    H13 7795   6.466   4.264  10.080  0.0980  2.9163 -0.6782
  264ccc     C8 7796   6.442   4.107   9.959 -0.2820 -0.4888 -0.0273
  264ccc    H14 7797   6.405   4.047  10.043  0.7702  0.4572  1.1418
  264ccc    H15 7798   6.385   4.074   9.871 -2.6243  0.2802  1.1054
  264ccc     C9 7799   6.581   4.081   9.932  0.0619  0.8699  0.2772
  264ccc     O3 7800   6.665   4.168   9.933 -0.4198 -0.4292  0.2371
  264ccc     O4 7801   6.610   3.952   9.905 -0.2350  0.3274  0.0018
  264ccc    H16 7802   6.526   3.904   9.913 -0.1956  0.3808  0.9323
  264ccc     O5 7803   6.384   4.271  10.492  0.4934  0.2443 -0.3372
  265ccc     C1 7804   7.517   3.033  11.995  0.0113  0.4229 -0.0690
  265ccc     H1 7805   7.574   3.119  11.959  1.2111  0.4491  1.7877
  265ccc     H2 7806   7.525   3.051  12.103  0.1936 -1.1949  0.2122
  265ccc     C2 7807   7.581   2.898  11.965 -0.8174  0.2684 -0.6907
  265ccc     H3 7808   7.585   2.871  11.859 -0.0999 -3.1196  0.0859
  265ccc     H4 7809   7.525   2.811  12.001 -1.4226  1.2971  1.0020
  265ccc     C3 7810   7.733   2.876  12.010  0.4064 -0.0864 -0.3690
  265ccc     H5 7811   7.798   2.949  11.961 -0.2182  1.0697  0.4683
  265ccc     H6 7812   7.759   2.782  11.959  0.3217  0.6716 -1.8554
  265ccc     N1 7813   7.762   2.876  12.153 -0.0140  0.4708  0.1180
  265ccc     C4 7814   7.902   2.861  12.178  0.6414 -0.0873 -0.1210
  265ccc     H7 7815   7.945   2.796  12.100  0.5875 -0.6452  0.3102
  265ccc     H8 7816   7.919   2.800  12.268 -1.0046  1.7738  1.5391
  265ccc     C5 7817   7.963   2.997  12.191  0.4025 -0.3207 -0.2958
  265ccc     H9 7818   7.971   3.044  12.092  1.3494 -1.1253 -0.6198
  265ccc    H10 7819   7.905   3.058  12.262  1.0096  1.0041 -0.9078
  265ccc     C6 7820   8.100   2.986  12.253 -1.2907  0.5974  0.1196
  265ccc     O1 7821   8.158   2.882  12.290  0.2909 -0.3938  0.2354
  265ccc     O2 7822   8.156   3.093  12.320 -0.1728  0.5337  0.9701
  265ccc    H11 7823   8.091   3.164  12.309 -0.3159  0.0870 -1.7580
  265ccc     C7 7824   7.680   2.779  12.237  0.0275 -0.3751  0.2146
  265ccc    H12 7825   7.719   2.794  12.338 -0.5868 -0.8796  0.5316
  265ccc    H13 7826   7.576   2.811  12.222  0.2907 -0.6266 -2.9240
  265ccc     C8 7827   7.680   2.633  12.191  0.0888 -0.0878  0.4018
  265ccc    H14 7828   7.610   2.634  12.106 -0.5678 -0.8990  0.9233
  265ccc    H15 7829   7.779   2.599  12.160  0.7995  1.4964  0.8310
  265ccc     C9 7830   7.629   2.539  12.299 -0.0361 -0.2471  0.3445
  265ccc     O3 7831   7.516   2.490  12.301  0.3418 -0.1966 -0.2654
  265ccc     O4 7832   7.705   2.527  12.405 -0.0696 -0.4603 -0.0255
  265ccc    H16 7833   7.794   2.557  12.378  0.0492  0.3160  1.1308
  265ccc     O5 7834   7.377   3.033  11.956 -0.0464  0.1528 -0.1886
  266ccc     C1 7835   6.891   2.685  11.603  0.5050 -0.4555  0.2395
  266ccc     H1 7836   6.791   2.685  11.647  0.0635 -0.3275 -0.7331
  266ccc     H2 7837   6.888   2.625  11.511  0.8218  2.2302 -1.6449
  266ccc     C2 7838   6.993   2.623  11.703 -0.1029  0.1670  0.0863
  266ccc     H3 7839   6.958   2.519  11.703  3.7462 -1.3088  1.9881
  266ccc     H4 7840   6.977   2.671  11.800  1.0973  2.0877 -0.6054
  266ccc     C3 7841   7.139   2.637  11.650 -0.5240 -0.1737 -0.7221
  266ccc     H5 7842   7.154   2.745  11.657  0.9668 -0.3438 -0.9200
  266ccc     H6 7843   7.156   2.609  11.545 -0.0812 -3.2825  0.0769
  266ccc     N1 7844   7.237   2.561  11.731  0.3556 -0.8882  0.3433
  266ccc     C4 7845   7.246   2.590  11.874  0.2073  0.7254 -0.6807
  266ccc     H7 7846   7.335   2.543  11.918 -0.0237  0.4003 -0.5599
  266ccc     H8 7847   7.166   2.533  11.922  1.3362  0.4455  0.9382
  266ccc     C5 7848   7.233   2.736  11.927 -0.3044  0.6200 -0.7918
  266ccc     H9 7849   7.327   2.784  11.895 -1.4536  2.0716 -2.1729
  266ccc    H10 7850   7.149   2.788  11.879 -1.4611 -0.0561  0.4468
  266ccc     C6 7851   7.219   2.745  12.072 -0.9205 -0.3464 -0.0644
  266ccc     O1 7852   7.181   2.654  12.142 -0.5340  0.2479  0.2386
  266ccc     O2 7853   7.228   2.873  12.117 -0.2955  0.5115 -0.3131
  266ccc    H11 7854   7.276   2.932  12.056 -0.3691 -0.7522 -1.6502
  266ccc     C7 7855   7.229   2.417  11.710 -0.3128  0.3898 -0.1275
  266ccc    H12 7856   7.313   2.369  11.761 -0.7946 -0.9247 -0.5411
  266ccc    H13 7857   7.133   2.377  11.747  0.4717 -0.7196  0.7792
  266ccc     C8 7858   7.257   2.374  11.561  0.5053 -0.4184 -0.1715
  266ccc    H14 7859   7.190   2.421  11.488  3.4872  0.1412 -2.7575
  266ccc    H15 7860   7.356   2.406  11.527  0.5850 -0.6002 -0.1115
  266ccc     C9 7861   7.256   2.224  11.537 -0.2384 -0.2741 -0.1341
  266ccc     O3 7862   7.355   2.157  11.554  0.2236  0.4463  0.2247
  266ccc     O4 7863   7.129   2.176  11.525 -0.1759  0.2477  0.0305
  266ccc    H16 7864   7.078   2.247  11.482 -1.5053 -0.2603  0.7389
  266ccc     O5 7865   6.924   2.825  11.572 -0.0805 -0.1996  0.5146
  267ccc     C1 7866   7.460   4.381  12.876  0.3560 -0.5444  0.3393
  267ccc     H1 7867   7.551   4.325  12.898  1.0760 -0.0948 -1.3188
  267ccc     H2 7868   7.475   4.473  12.818 -2.1442 -1.0907 -1.3641
  267ccc     C2 7869   7.401   4.413  13.013  0.2029  0.9760  0.2345
  267ccc     H3 7870   7.386   4.315  13.061 -0.2771  0.7003 -0.4575
  267ccc     H4 7871   7.298   4.448  13.001  0.8107  2.3648 -1.2435
  267ccc     C3 7872   7.487   4.512  13.092 -0.6487 -1.0123 -0.0460
  267ccc     H5 7873   7.588   4.467  13.091  0.9854  2.3621 -0.5200
  267ccc     H6 7874   7.456   4.523  13.196 -1.1302 -0.5763 -0.2331
  267ccc     N1 7875   7.503   4.643  13.025  0.5503  0.0193  0.6420
  267ccc     C4 7876   7.375   4.716  13.008  0.5580  0.1715 -0.1268
  267ccc     H7 7877   7.345   4.761  13.103 -1.0489 -0.6013 -0.2421
  267ccc     H8 7878   7.292   4.658  12.967  0.4461  2.1717 -3.0617
  267ccc     C5 7879   7.387   4.832  12.902  0.0872  0.4057 -0.6595
  267ccc     H9 7880   7.290   4.877  12.880  0.7595  2.8052  0.8855
  267ccc    H10 7881   7.432   4.921  12.950 -1.3511  0.1718  1.2476
  267ccc     C6 7882   7.457   4.805  12.770  0.2163 -0.6234  0.1846
  267ccc     O1 7883   7.576   4.823  12.741  0.9530 -0.0731  0.2127
  267ccc     O2 7884   7.389   4.729  12.681 -0.0971  0.2724  0.0716
  267ccc    H11 7885   7.301   4.717  12.720 -0.1625 -1.3122 -0.5093
  267ccc     C7 7886   7.623   4.719  13.053  0.1329 -0.0144 -0.2514
  267ccc    H12 7887   7.707   4.648  13.052  0.9422  0.9025  0.7489
  267ccc    H13 7888   7.640   4.799  12.980  0.8346 -1.3130 -1.5763
  267ccc     C8 7889   7.607   4.786  13.193  0.5324 -0.3907 -0.6174
  267ccc    H14 7890   7.510   4.836  13.199  1.6226  2.0469 -2.0927
  267ccc    H15 7891   7.602   4.699  13.261  0.2687 -0.6744 -0.9965
  267ccc     C9 7892   7.719   4.888  13.212 -0.2854 -0.0570 -0.1781
  267ccc     O3 7893   7.757   4.961  13.118 -0.1525  0.3429 -0.5419
  267ccc     O4 7894   7.774   4.894  13.337  0.4831  0.2241  0.4450
  267ccc    H16 7895   7.719   4.833  13.389  1.3153  0.7889  2.0958
  267ccc     O5 7896   7.375   4.291  12.802 -0.3219  0.4579 -0.1159
  268ccc     C1 7897   7.572   3.910  12.104  0.1019  0.2904 -0.0275
  268ccc     H1 7898   7.681   3.901  12.099 -0.0966 -2.0543 -2.0370
  268ccc     H2 7899   7.531   3.814  12.070  1.4180 -0.6039  0.7842
  268ccc     C2 7900   7.519   4.024  12.023 -0.5583  0.1764  0.1953
  268ccc     H3 7901   7.550   4.006  11.919 -2.9323  1.5859 -0.8604
  268ccc     H4 7902   7.572   4.114  12.053 -0.9372  1.0578 -1.6452
  268ccc     C3 7903   7.366   4.045  12.037  0.5527 -0.0903  0.3622
  268ccc     H5 7904   7.344   4.135  11.978 -0.7788 -0.6145  0.0181
  268ccc     H6 7905   7.347   4.063  12.144 -1.0371  1.1290 -0.0877
  268ccc     N1 7906   7.290   3.933  11.983 -0.4352 -0.4845 -0.2031
  268ccc     C4 7907   7.299   3.925  11.839 -0.4775  0.4672  0.8058
  268ccc     H7 7908   7.385   3.978  11.796 -0.3727 -0.3733 -0.0477
  268ccc     H8 7909   7.223   3.980  11.780  0.6052  0.8753 -0.2494
  268ccc     C5 7910   7.296   3.783  11.774 -0.1343  0.5093 -0.5855
  268ccc     H9 7911   7.212   3.725  11.815  0.2146 -0.7125 -1.5180
  268ccc    H10 7912   7.290   3.788  11.665  1.0619  0.7163 -0.6559
  268ccc     C6 7913   7.426   3.716  11.808  0.3680  0.4016  0.2235
  268ccc     O1 7914   7.527   3.764  11.769  0.5632 -0.3253  0.0780
  268ccc     O2 7915   7.420   3.603  11.884  0.1380 -0.4184  0.4534
  268ccc    H11 7916   7.338   3.614  11.935  0.1731 -0.4481  0.5150
  268ccc     C7 7917   7.148   3.937  12.033  0.2716 -0.1339  0.0736
  268ccc    H12 7918   7.107   4.033  12.000  0.5058 -0.2684 -0.6164
  268ccc    H13 7919   7.084   3.865  11.981 -1.6297  1.1379  0.5415
  268ccc     C8 7920   7.111   3.922  12.185 -0.1697  0.2725  0.1455
  268ccc    H14 7921   7.173   3.986  12.249 -2.4401  1.7920  0.9878
  268ccc    H15 7922   7.012   3.962  12.213 -0.0136 -0.2775  1.5721
  268ccc     C9 7923   7.128   3.778  12.235 -0.2417 -0.4441 -0.6229
  268ccc     O3 7924   7.048   3.702  12.278  0.0830 -0.2675 -0.1146
  268ccc     O4 7925   7.255   3.737  12.210  0.2940  0.1241 -0.8900
  268ccc    H16 7926   7.290   3.822  12.178  0.1268 -0.0259 -1.4855
  268ccc     O5 7927   7.543   3.924  12.247 -0.6546 -0.4662  0.3310
  269ccc     C1 7928   7.560   3.504  13.280 -0.1056  0.0818 -0.4416
  269ccc     H1 7929   7.527   3.422  13.345  0.8424 -0.3845 -0.5367
  269ccc     H2 7930   7.659   3.533  13.317 -0.7345 -0.3303  1.6818
  269ccc     C2 7931   7.459   3.611  13.304 -0.1123 -0.1952 -0.0281
  269ccc     H3 7932   7.371   3.603  13.238 -1.1085  0.4096  1.1780
  269ccc     H4 7933   7.502   3.711  13.287  1.7227 -0.1385  3.8310
  269ccc     C3 7934   7.396   3.629  13.448 -0.1941  0.6445 -0.0138
  269ccc     H5 7935   7.314   3.702  13.449 -0.5599  0.2518 -0.8405
  269ccc     H6 7936   7.480   3.665  13.510  1.3678  0.7464 -2.0894
  269ccc     N1 7937   7.348   3.502  13.509  0.0278 -0.3819  0.5017
  269ccc     C4 7938   7.229   3.442  13.438  0.0300 -0.5829 -0.6342
  269ccc     H7 7939   7.255   3.432  13.332  0.7510  0.2375 -0.5511
  269ccc     H8 7940   7.143   3.511  13.443  1.4171  1.1281  1.0907
  269ccc     C5 7941   7.185   3.303  13.499  0.3541  0.1618 -0.2172
  269ccc     H9 7942   7.275   3.245  13.523  0.4221 -0.1482 -1.1630
  269ccc    H10 7943   7.130   3.312  13.593  1.3295  2.1753  0.2255
  269ccc     C6 7944   7.116   3.216  13.390  0.1907  0.1041 -0.0653
  269ccc     O1 7945   7.174   3.174  13.292  0.2262  0.4579 -0.1000
  269ccc     O2 7946   6.987   3.189  13.413  0.2464  0.0631 -0.1017
  269ccc    H11 7947   6.964   3.226  13.500 -2.8537  0.4797 -0.9698
  269ccc     C7 7948   7.341   3.502  13.654  0.5003  0.1224 -1.0995
  269ccc    H12 7949   7.352   3.403  13.698  0.4288 -0.1475 -1.6826
  269ccc    H13 7950   7.432   3.554  13.687  1.8086 -2.4418 -0.3964
  269ccc     C8 7951   7.222   3.577  13.721 -0.4453 -0.2955 -0.1503
  269ccc    H14 7952   7.232   3.681  13.689  0.5143 -0.6168 -0.9546
  269ccc    H15 7953   7.122   3.544  13.690  0.1024 -1.0467 -1.1972
  269ccc     C9 7954   7.226   3.564  13.879 -0.1742 -0.3315  0.4443
  269ccc     O3 7955   7.149   3.497  13.942  0.2421  0.3396 -0.2680
  269ccc     O4 7956   7.309   3.653  13.937 -0.2804  0.4737 -0.0823
  269ccc    H16 7957   7.298   3.617  14.027  0.2449  1.4268  0.3759
  269ccc     O5 7958   7.557   3.463  13.137  0.0215 -0.1724 -0.2452
  270ccc     C1 7959   8.160   2.856  12.821  0.3503  0.4207 -0.3922
  270ccc     H1 7960   8.058   2.856  12.860  0.5187  0.0567  0.0451
  270ccc     H2 7961   8.169   2.776  12.747 -2.2983 -0.3908  0.0568
  270ccc     C2 7962   8.262   2.818  12.927 -0.5824  0.8545  0.2469
  270ccc     H3 7963   8.223   2.726  12.971 -0.4674  0.0178 -1.3229
  270ccc     H4 7964   8.254   2.900  12.999  0.1221  1.8480 -0.7832
  270ccc     C3 7965   8.407   2.806  12.867 -0.0218  0.0407  0.2785
  270ccc     H5 7966   8.445   2.903  12.833  0.1486 -0.1317 -0.0236
  270ccc     H6 7967   8.413   2.748  12.774  0.5740  0.9954 -0.2943
  270ccc     N1 7968   8.496   2.763  12.970 -0.6147  0.4180  0.0132
  270ccc     C4 7969   8.630   2.730  12.912  0.1183  0.2146 -0.2680
  270ccc     H7 7970   8.710   2.708  12.983  0.8739 -1.9631 -1.6797
  270ccc     H8 7971   8.659   2.819  12.855  0.5000  0.4139  0.2314
  270ccc     C5 7972   8.640   2.608  12.822  0.4983 -0.6225 -0.3841
  270ccc     H9 7973   8.615   2.524  12.887  1.3321 -1.8827 -1.6316
  270ccc    H10 7974   8.566   2.616  12.741  0.2595 -0.9220 -0.1940
  270ccc     C6 7975   8.771   2.588  12.744  0.3400 -0.4468  0.6410
  270ccc     O1 7976   8.861   2.666  12.734  0.3955  0.3635  0.0486
  270ccc     O2 7977   8.763   2.477  12.668  0.0361 -0.2100 -0.2190
  270ccc    H11 7978   8.678   2.440  12.698  1.1298 -0.4820  2.9031
  270ccc     C7 7979   8.510   2.850  13.090  0.5809  0.0388  0.4613
  270ccc    H12 7980   8.408   2.855  13.132  1.1975  1.6655  1.9013
  270ccc    H13 7981   8.572   2.797  13.163 -0.4331 -2.2646 -0.2775
  270ccc     C8 7982   8.544   3.000  13.080  0.0651  0.0059 -0.0502
  270ccc    H14 7983   8.654   3.005  13.083 -0.0217  2.9209  1.1946
  270ccc    H15 7984   8.499   3.047  12.991 -2.1564 -2.4532 -0.3319
  270ccc     C9 7985   8.503   3.078  13.206  0.2957 -0.5344  0.0102
  270ccc     O3 7986   8.569   3.079  13.310  0.4280  0.5743 -0.0725
  270ccc     O4 7987   8.398   3.158  13.186 -0.2614  0.5915 -0.0218
  270ccc    H16 7988   8.378   3.152  13.091 -1.3015 -3.0605  0.2807
  270ccc     O5 7989   8.195   2.982  12.760 -0.7917  0.0170 -0.5159
  271ccc     C1 7990   4.271   5.131  11.043  0.0051 -0.5547 -0.4535
  271ccc     H1 7991   4.264   5.022  11.048  0.3563 -0.5344  1.3844
  271ccc     H2 7992   4.314   5.171  11.136  1.3461 -0.9859 -0.8677
  271ccc     C2 7993   4.132   5.181  11.037  0.1975 -0.0643  0.5297
  271ccc     H3 7994   4.118   5.271  10.976 -0.0847 -0.5432 -0.1292
  271ccc     H4 7995   4.102   5.213  11.138 -2.7445  3.2376 -1.1843
  271ccc     C3 7996   4.035   5.069  10.980 -0.0932  0.4638 -0.4030
  271ccc     H5 7997   4.066   5.054  10.876  0.4054  1.5834 -0.4393
  271ccc     H6 7998   3.933   5.109  10.972  0.1659  1.3714  0.5821
  271ccc     N1 7999   4.037   4.945  11.065 -0.6389 -0.3550  0.1245
  271ccc     C4 8000   4.034   4.817  10.986  0.2760  0.2861 -0.4071
  271ccc     H7 8001   4.047   4.730  11.051 -1.6682 -1.2333 -1.9202
  271ccc     H8 8002   4.119   4.812  10.918  1.8312 -0.7440  1.5107
  271ccc     C5 8003   3.899   4.801  10.920  0.1967 -0.0512 -0.3090
  271ccc     H9 8004   3.813   4.807  10.989  0.1491 -2.0487 -0.1343
  271ccc    H10 8005   3.888   4.874  10.839  1.9522 -0.4020 -0.8957
  271ccc     C6 8006   3.890   4.668  10.859  0.5313  0.5607 -0.1348
  271ccc     O1 8007   3.854   4.571  10.920  0.4075  0.5054 -0.2468
  271ccc     O2 8008   3.922   4.653  10.727 -0.3221 -0.6182 -0.1911
  271ccc    H11 8009   3.911   4.739  10.683  1.0742  0.2696  1.0966
  271ccc     C7 8010   3.958   4.948  11.186 -0.4266 -0.0223  0.2144
  271ccc    H12 8011   3.986   5.043  11.232 -0.6605 -0.0980  0.5185
  271ccc    H13 8012   3.851   4.955  11.161 -0.6114  3.3690  1.4868
  271ccc     C8 8013   3.993   4.837  11.287  0.0858 -0.5295 -0.3427
  271ccc    H14 8014   3.968   4.740  11.242  2.3827 -1.0135 -0.7037
  271ccc    H15 8015   4.100   4.841  11.312  0.0473  1.6450 -0.3526
  271ccc     C9 8016   3.913   4.851  11.410  1.2610 -0.5942  0.4940
  271ccc     O3 8017   3.795   4.876  11.399  0.2061 -0.1754  1.0843
  271ccc     O4 8018   3.963   4.804  11.522  0.2630  0.2006  0.2269
  271ccc    H16 8019   4.046   4.757  11.501 -0.1874 -0.2293 -0.6746
  271ccc     O5 8020   4.341   5.168  10.917 -0.0779  0.6616 -0.2691
  272ccc     C1 8021   4.590   5.687  11.456  0.1591  0.0281 -0.1227
  272ccc     H1 8022   4.628   5.586  11.474  1.2661  0.5107  0.3557
  272ccc     H2 8023   4.660   5.755  11.507  0.2846 -0.8930  0.9638
  272ccc     C2 8024   4.449   5.691  11.516 -0.9626  0.5922 -0.4419
  272ccc     H3 8025   4.458   5.670  11.623  2.8954  0.3928 -0.6872
  272ccc     H4 8026   4.389   5.612  11.469 -0.6666  0.2533 -0.2540
  272ccc     C3 8027   4.380   5.832  11.514  0.3799 -0.4544 -0.8764
  272ccc     H5 8028   4.356   5.855  11.409 -0.1527  0.8030 -0.4917
  272ccc     H6 8029   4.441   5.910  11.561 -1.5753 -0.8659  2.7340
  272ccc     N1 8030   4.251   5.831  11.590 -0.0417 -0.4372 -0.1500
  272ccc     C4 8031   4.187   5.965  11.587  0.1351  0.4925 -0.6294
  272ccc     H7 8032   4.078   5.959  11.598  0.4106  0.4006  4.5113
  272ccc     H8 8033   4.214   6.013  11.493  1.7643  2.6336  0.8557
  272ccc     C5 8034   4.228   6.062  11.701  0.8630  0.1216  0.3038
  272ccc     H9 8035   4.160   6.039  11.784 -0.9198 -0.6916 -1.2746
  272ccc    H10 8036   4.326   6.036  11.741  1.0454 -1.0215 -0.7814
  272ccc     C6 8037   4.231   6.212  11.663 -0.0034 -0.3555 -0.1158
  272ccc     O1 8038   4.282   6.248  11.560 -0.1245 -0.2216  0.3572
  272ccc     O2 8039   4.201   6.293  11.759 -0.0188  0.3258  0.5435
  272ccc    H11 8040   4.150   6.244  11.826  0.0147  1.8750  1.7745
  272ccc     C7 8041   4.158   5.714  11.572 -0.1502  0.1177 -0.0834
  272ccc    H12 8042   4.138   5.705  11.465 -0.1180  2.2557 -0.3165
  272ccc    H13 8043   4.221   5.628  11.597  1.4530  1.2568 -0.0296
  272ccc     C8 8044   4.022   5.702  11.653 -0.0747 -0.0386  0.2807
  272ccc    H14 8045   4.043   5.717  11.760  1.9620  0.1705 -0.1067
  272ccc    H15 8046   3.951   5.778  11.618 -1.5340 -1.1428  0.7693
  272ccc     C9 8047   3.944   5.576  11.635 -0.2970  0.2225  0.0698
  272ccc     O3 8048   3.963   5.493  11.552 -0.0007  0.0443  0.8783
  272ccc     O4 8049   3.850   5.564  11.729 -0.5994  0.0958 -0.2615
  272ccc    H16 8050   3.836   5.648  11.775 -2.2573 -0.7243  0.8096
  272ccc     O5 8051   4.589   5.714  11.318 -0.3311  0.1024  0.3184
  273ccc     C1 8052   4.838   5.642  11.796 -0.1337 -0.0597 -0.2657
  273ccc     H1 8053   4.747   5.670  11.741  1.4838 -2.0125 -4.3577
  273ccc     H2 8054   4.929   5.689  11.758  0.2686 -0.0209  0.7211
  273ccc     C2 8055   4.856   5.488  11.810 -0.1459 -0.7656 -0.3152
  273ccc     H3 8056   4.880   5.453  11.709 -4.2610 -1.3283 -1.2757
  273ccc     H4 8057   4.766   5.435  11.844  0.3834 -2.1274 -0.9406
  273ccc     C3 8058   4.971   5.447  11.907 -0.2831  0.2080 -0.0702
  273ccc     H5 8059   4.935   5.472  12.007  2.3334  1.1582  0.7170
  273ccc     H6 8060   5.052   5.520  11.897 -1.0708  1.4584  2.0825
  273ccc     N1 8061   5.011   5.309  11.890 -0.1614  0.7450 -0.0033
  273ccc     C4 8062   5.137   5.271  11.955  1.0448 -0.0356 -0.1277
  273ccc     H7 8063   5.143   5.161  11.954  0.1512 -0.1810  2.6507
  273ccc     H8 8064   5.128   5.299  12.061 -2.3028  0.0859 -0.3359
  273ccc     C5 8065   5.269   5.313  11.889  0.3688 -0.0801 -0.3019
  273ccc     H9 8066   5.293   5.253  11.800  0.4829 -1.9550  0.9532
  273ccc    H10 8067   5.247   5.414  11.850 -2.2359 -0.2948  0.3732
  273ccc     C6 8068   5.390   5.318  11.982 -0.0744 -0.0351 -0.1579
  273ccc     O1 8069   5.420   5.416  12.049  0.6124  0.0513  0.1584
  273ccc     O2 8070   5.459   5.206  11.989 -0.5069  0.1362  0.0405
  273ccc    H11 8071   5.404   5.142  11.940 -0.4000 -0.4968  0.7327
  273ccc     C7 8072   4.901   5.207  11.895  0.7109  0.2071 -0.1054
  273ccc    H12 8073   4.831   5.235  11.816  1.0821 -0.9397 -0.8731
  273ccc    H13 8074   4.948   5.111  11.867  1.7656  0.2321  1.4130
  273ccc     C8 8075   4.827   5.198  12.028 -0.7962  0.5865 -0.3210
  273ccc    H14 8076   4.792   5.294  12.068 -1.0399 -0.0295  0.9805
  273ccc    H15 8077   4.743   5.128  12.024  0.1158 -0.5044 -1.1112
  273ccc     C9 8078   4.917   5.147  12.144  0.7530 -0.1311 -0.2806
  273ccc     O3 8079   4.977   5.215  12.223 -0.0729 -0.0331  0.2567
  273ccc     O4 8080   4.908   5.015  12.171 -0.0981  0.3159 -0.1037
  273ccc    H16 8081   4.960   5.014  12.254  3.4475 -1.2193 -2.1021
  273ccc     O5 8082   4.817   5.701  11.931  0.4992  0.0568  0.3534
  274ccc     C1 8083   4.572   6.444  11.667 -0.7177  0.0963  0.6998
  274ccc     H1 8084   4.594   6.337  11.654  1.0544  0.6034 -1.0040
  274ccc     H2 8085   4.491   6.460  11.739 -0.4863  0.5783  0.8597
  274ccc     C2 8086   4.530   6.508  11.534 -0.0934  0.4354 -0.8094
  274ccc     H3 8087   4.519   6.616  11.547  0.7174  0.4391 -0.0911
  274ccc     H4 8088   4.437   6.462  11.497 -1.3929  1.9557  0.4258
  274ccc     C3 8089   4.648   6.492  11.431 -0.0241  0.1085 -0.2474
  274ccc     H5 8090   4.733   6.549  11.470 -0.4737  0.2228  0.5869
  274ccc     H6 8091   4.615   6.540  11.339 -3.3272  0.2824  0.9059
  274ccc     N1 8092   4.689   6.350  11.398 -0.3814  0.3752 -0.0228
  274ccc     C4 8093   4.578   6.253  11.387 -0.6188 -0.5147  0.0143
  274ccc     H7 8094   4.529   6.233  11.483 -3.8315  2.5380 -0.8027
  274ccc     H8 8095   4.627   6.159  11.357  0.1098  0.2886 -1.4000
  274ccc     C5 8096   4.475   6.269  11.268  0.4423 -0.6959  0.6342
  274ccc     H9 8097   4.408   6.353  11.291  0.7239  0.5235 -2.5267
  274ccc    H10 8098   4.539   6.281  11.180  1.1856 -0.7749  1.1562
  274ccc     C6 8099   4.388   6.151  11.235  0.5633  0.0546 -0.3411
  274ccc     O1 8100   4.267   6.138  11.253 -0.3714  0.2035 -0.0556
  274ccc     O2 8101   4.450   6.063  11.160  0.7957 -0.2918  0.2717
  274ccc    H11 8102   4.546   6.070  11.176  0.8818 -1.0517  0.1407
  274ccc     C7 8103   4.804   6.340  11.304 -0.0422 -0.1928 -0.5545
  274ccc    H12 8104   4.818   6.234  11.279  0.1717 -0.2469 -0.2159
  274ccc    H13 8105   4.787   6.395  11.212  0.7057  1.4063  0.2236
  274ccc     C8 8106   4.925   6.394  11.378 -0.3200  0.1436 -0.3607
  274ccc    H14 8107   4.923   6.502  11.392  0.3056  0.1275 -0.1372
  274ccc    H15 8108   4.952   6.343  11.471  1.8994  2.4675  0.3821
  274ccc     C9 8109   5.056   6.361  11.302  0.7504 -0.2505 -0.3591
  274ccc     O3 8110   5.058   6.278  11.210  0.0614  0.3839 -0.3641
  274ccc     O4 8111   5.160   6.443  11.334  0.0916 -0.0062  0.5064
  274ccc    H16 8112   5.131   6.517  11.390  1.7549  0.4913  0.7435
  274ccc     O5 8113   4.689   6.512  11.714  0.1159  0.7227 -0.7595
  275ccc     C1 8114   4.544   4.541  10.834  0.2582  0.1102 -0.2630
  275ccc     H1 8115   4.535   4.547  10.724  1.2141  0.2049 -0.3448
  275ccc     H2 8116   4.440   4.544  10.868  0.8520 -1.5067  1.8551
  275ccc     C2 8117   4.630   4.666  10.877  0.0672 -0.1973 -0.4593
  275ccc     H3 8118   4.724   4.646  10.825 -0.3721 -1.0783 -0.9536
  275ccc     H4 8119   4.652   4.671  10.984  0.3568 -1.0625 -0.4694
  275ccc     C3 8120   4.570   4.804  10.841 -0.2620  0.1000 -0.4334
  275ccc     H5 8121   4.635   4.888  10.867 -1.0482  0.3877  0.6721
  275ccc     H6 8122   4.477   4.806  10.899  1.2694 -0.3508  2.2072
  275ccc     N1 8123   4.535   4.818  10.697  0.0926  0.3011 -0.0038
  275ccc     C4 8124   4.413   4.900  10.658 -0.7191 -0.1116  0.2231
  275ccc     H7 8125   4.429   4.918  10.551  0.1854 -0.5177  0.2739
  275ccc     H8 8126   4.422   4.997  10.707  0.0672  1.6915 -3.1458
  275ccc     C5 8127   4.279   4.839  10.694 -0.2286  0.5602 -0.0355
  275ccc     H9 8128   4.289   4.791  10.792  0.8534  1.4809  0.3299
  275ccc    H10 8129   4.203   4.917  10.696  0.1929  0.9985 -0.6801
  275ccc     C6 8130   4.217   4.726  10.614  0.5547  0.6890  0.1970
  275ccc     O1 8131   4.221   4.603  10.640 -0.2942  0.3636  0.2497
  275ccc     O2 8132   4.140   4.765  10.507  0.0887  0.5151 -0.3159
  275ccc    H11 8133   4.145   4.861  10.494 -1.6846  0.4946 -1.4002
  275ccc     C7 8134   4.647   4.837  10.608 -1.0295 -0.4025 -0.0554
  275ccc    H12 8135   4.657   4.943  10.583 -1.3402  0.0416  1.5719
  275ccc    H13 8136   4.738   4.810  10.663 -1.2723  1.5562  1.4247
  275ccc     C8 8137   4.651   4.747  10.482 -0.2343 -0.1777 -0.2181
  275ccc    H14 8138   4.662   4.641  10.507 -0.8604  0.1070  1.3475
  275ccc    H15 8139   4.566   4.773  10.419 -0.9092  1.1315  1.1819
  275ccc     C9 8140   4.772   4.764  10.403 -0.0633 -0.0091  0.9175
  275ccc     O3 8141   4.872   4.814  10.451 -0.1617  0.0651  0.4272
  275ccc     O4 8142   4.764   4.728  10.268  0.0297 -0.2996 -0.2780
  275ccc    H16 8143   4.669   4.725  10.249  0.4370 -0.2566 -2.5801
  275ccc     O5 8144   4.605   4.417  10.872 -0.4928 -0.1721 -0.1765
  276ccc     C1 8145   4.954   4.827  11.444 -0.2109  0.7464  1.0750
  276ccc     H1 8146   5.049   4.781  11.411 -0.4357 -0.6342  2.2533
  276ccc     H2 8147   4.929   4.907  11.374 -2.1680 -1.2098 -0.5863
  276ccc     C2 8148   4.980   4.890  11.581  0.0812  0.1918  0.3763
  276ccc     H3 8149   5.033   4.807  11.630 -2.5621 -2.4019 -0.9074
  276ccc     H4 8150   4.885   4.916  11.628 -0.2318  1.2860 -0.7962
  276ccc     C3 8151   5.067   5.018  11.586  0.3508 -0.7581 -0.3568
  276ccc     H5 8152   5.171   4.988  11.572  0.8459  0.5061  0.3975
  276ccc     H6 8153   5.055   5.059  11.688 -0.3648 -1.3904 -0.1756
  276ccc     N1 8154   5.039   5.128  11.484 -0.1533  0.2217 -0.0736
  276ccc     C4 8155   4.910   5.181  11.524  0.0673 -0.2611 -0.2027
  276ccc     H7 8156   4.923   5.244  11.613 -0.1760  2.2559 -1.8416
  276ccc     H8 8157   4.843   5.098  11.549 -3.1483  1.6922 -1.6222
  276ccc     C5 8158   4.843   5.261  11.411  0.1415  0.5825 -0.8048
  276ccc     H9 8159   4.894   5.350  11.372  0.3120  0.2695 -1.3129
  276ccc    H10 8160   4.839   5.206  11.316 -3.6681 -0.3716 -0.2580
  276ccc     C6 8161   4.707   5.308  11.445  0.3513 -1.1810 -0.5039
  276ccc     O1 8162   4.656   5.287  11.553  0.3866  0.6572 -0.3702
  276ccc     O2 8163   4.627   5.313  11.340  0.0591  0.0333  0.4920
  276ccc    H11 8164   4.694   5.311  11.270 -0.2661 -0.7891  0.1943
  276ccc     C7 8165   5.148   5.226  11.488 -0.1519 -0.2611 -0.0961
  276ccc    H12 8166   5.108   5.320  11.447  0.3924 -0.1355 -0.3459
  276ccc    H13 8167   5.175   5.252  11.591 -2.3555  0.1328  0.4235
  276ccc     C8 8168   5.266   5.187  11.400 -0.6283  0.1285  0.3010
  276ccc    H14 8169   5.267   5.078  11.394 -1.3607 -0.0338  2.3722
  276ccc    H15 8170   5.256   5.227  11.298 -0.6368 -0.0797  0.2198
  276ccc     C9 8171   5.402   5.228  11.450  0.0291  0.3208 -0.1597
  276ccc     O3 8172   5.427   5.292  11.549 -0.5331 -0.7618  0.2426
  276ccc     O4 8173   5.493   5.197  11.356 -0.4831 -0.0729  0.2774
  276ccc    H16 8174   5.437   5.139  11.301  0.2541 -0.2593 -0.2857
  276ccc     O5 8175   4.842   4.736  11.467  0.4726 -0.3115  0.2878
  277ccc     C1 8176   5.548   4.994  12.634 -0.3522  0.6106 -0.3271
  277ccc     H1 8177   5.633   4.925  12.631 -1.4442 -0.7415 -1.6509
  277ccc     H2 8178   5.570   5.099  12.608  1.7674  0.0378 -1.0732
  277ccc     C2 8179   5.483   4.979  12.780  0.7346  0.1954  0.3484
  277ccc     H3 8180   5.457   4.874  12.800  0.9657  0.4678  2.2882
  277ccc     H4 8181   5.389   5.035  12.776  0.9384  0.4564 -2.0390
  277ccc     C3 8182   5.567   5.028  12.903 -0.2238 -0.1850 -0.1225
  277ccc     H5 8183   5.610   5.127  12.886 -0.5433 -0.0994 -0.4487
  277ccc     H6 8184   5.654   4.962  12.911  0.5704  0.5322 -2.1778
  277ccc     N1 8185   5.499   5.017  13.036 -0.1217 -0.0718  0.2266
  277ccc     C4 8186   5.574   5.092  13.131 -0.3517  0.4135 -0.3429
  277ccc     H7 8187   5.573   5.198  13.102  1.3527  0.1878 -1.3669
  277ccc     H8 8188   5.674   5.049  13.140 -1.3677 -1.6588  2.4249
  277ccc     C5 8189   5.518   5.096  13.271 -0.5704 -0.3679  0.1334
  277ccc     H9 8190   5.411   5.119  13.268 -0.6148 -0.5721  0.1506
  277ccc    H10 8191   5.536   5.000  13.320  0.8273  0.6604  1.7828
  277ccc     C6 8192   5.576   5.211  13.349  0.3325  0.0650 -0.0510
  277ccc     O1 8193   5.512   5.312  13.377  0.3043  0.1669  0.1947
  277ccc     O2 8194   5.679   5.176  13.426 -0.0793 -0.3635  0.1069
  277ccc    H11 8195   5.683   5.081  13.410 -0.2165 -1.2954  4.3800
  277ccc     C7 8196   5.459   4.883  13.082 -0.0498  0.3485  0.0592
  277ccc    H12 8197   5.385   4.893  13.163  0.0326 -0.4995  0.2513
  277ccc    H13 8198   5.401   4.837  13.001 -2.3769  1.1962  1.1301
  277ccc     C8 8199   5.576   4.780  13.112 -0.2830  0.0203 -0.6660
  277ccc    H14 8200   5.625   4.758  13.016 -2.3560 -1.5384 -1.4587
  277ccc    H15 8201   5.661   4.829  13.161 -1.3195 -1.0068  2.3351
  277ccc     C9 8202   5.532   4.649  13.169 -0.2756  0.0157 -0.6416
  277ccc     O3 8203   5.465   4.566  13.111 -0.3065  0.7073  0.8426
  277ccc     O4 8204   5.557   4.650  13.300 -0.2410  0.4773  0.1462
  277ccc    H16 8205   5.589   4.742  13.310 -3.1891  1.4225  2.5888
  277ccc     O5 8206   5.455   4.944  12.530  0.2335  0.0299 -0.2149
  278ccc     C1 8207   4.839   4.340  12.134 -0.0768  0.1672 -0.3436
  278ccc     H1 8208   4.816   4.247  12.079  0.8637 -1.4777  1.8979
  278ccc     H2 8209   4.846   4.318  12.241  0.0622 -0.7324 -0.5229
  278ccc     C2 8210   4.728   4.444  12.112  0.5764  0.1102 -0.0109
  278ccc     H3 8211   4.759   4.524  12.044  3.7817  1.0858  2.3374
  278ccc     H4 8212   4.713   4.505  12.202 -0.2712 -0.2042  0.0703
  278ccc     C3 8213   4.595   4.374  12.078  0.8558  0.3725  0.1034
  278ccc     H5 8214   4.588   4.279  12.131  2.5961 -0.4941 -1.1211
  278ccc     H6 8215   4.603   4.356  11.970  1.5130  0.2147  0.1713
  278ccc     N1 8216   4.486   4.463  12.109  0.2212  0.0985  0.3126
  278ccc     C4 8217   4.420   4.550  11.995  0.4517 -0.6387 -0.1038
  278ccc     H7 8218   4.342   4.612  12.038  0.4446 -0.6822 -0.0529
  278ccc     H8 8219   4.371   4.483  11.923  0.9358 -1.4523  0.3024
  278ccc     C5 8220   4.527   4.628  11.915  0.0168  0.8521  0.0046
  278ccc     H9 8221   4.584   4.694  11.981  0.5517  1.4666 -1.0536
  278ccc    H10 8222   4.602   4.561  11.871  0.5793  0.7786  1.0477
  278ccc     C6 8223   4.467   4.720  11.812  0.0874  0.4537 -0.6091
  278ccc     O1 8224   4.362   4.781  11.829  0.0326  0.0547  0.4510
  278ccc     O2 8225   4.546   4.746  11.708  0.2227 -0.8995  0.4091
  278ccc    H11 8226   4.626   4.690  11.710  1.1358  0.0871 -2.6555
  278ccc     C7 8227   4.380   4.390  12.185  0.9101 -0.3773  0.5680
  278ccc    H12 8228   4.347   4.309  12.119  1.1145 -0.8698  1.0610
  278ccc    H13 8229   4.425   4.342  12.273  1.2428 -0.1415  0.5268
  278ccc     C8 8230   4.254   4.477  12.223 -0.1630 -0.0274  0.3514
  278ccc    H14 8231   4.296   4.563  12.277  0.3006  0.6380 -1.0215
  278ccc    H15 8232   4.188   4.498  12.138 -0.2561 -2.5179 -0.2813
  278ccc     C9 8233   4.163   4.399  12.316  0.1646  0.2609 -0.2760
  278ccc     O3 8234   4.187   4.286  12.361  0.5131 -0.0354  0.9194
  278ccc     O4 8235   4.032   4.433  12.326 -0.6411  0.1418  0.5578
  278ccc    H16 8236   4.018   4.520  12.286 -2.2046  0.2830  1.3124
  278ccc     O5 8237   4.966   4.400  12.086  0.0473 -0.1664 -0.1721
  279ccc     C1 8238   7.687   4.484   9.523 -0.1181  0.2340 -0.7364
  279ccc     H1 8239   7.722   4.540   9.436  0.9680  3.0015  1.2939
  279ccc     H2 8240   7.742   4.505   9.616 -3.3349 -0.6481  1.5648
  279ccc     C2 8241   7.689   4.336   9.506 -0.0165  0.0218 -0.0964
  279ccc     H3 8242   7.598   4.311   9.450 -1.4482 -0.5922  2.3725
  279ccc     H4 8243   7.667   4.291   9.604  0.3482 -0.6290 -0.3003
  279ccc     C3 8244   7.814   4.262   9.440 -0.2135 -0.2772  0.2237
  279ccc     H5 8245   7.906   4.287   9.493 -0.1525 -1.4121  0.6901
  279ccc     H6 8246   7.819   4.297   9.336 -0.1542  0.5972  0.5199
  279ccc     N1 8247   7.810   4.112   9.451 -0.8894 -0.1742  0.3827
  279ccc     C4 8248   7.847   4.076   9.593 -0.1671 -0.1175  0.1849
  279ccc     H7 8249   7.785   4.126   9.668 -0.1508  2.5296 -1.4538
  279ccc     H8 8250   7.941   4.121   9.626 -1.5112  1.9594  1.3774
  279ccc     C5 8251   7.850   3.923   9.639 -0.0920 -0.9731 -0.3124
  279ccc     H9 8252   7.747   3.886   9.649  0.2705 -1.7287  0.7658
  279ccc    H10 8253   7.899   3.864   9.561  2.4401  0.8081 -0.2141
  279ccc     C6 8254   7.922   3.897   9.773  0.2298 -0.6484 -0.0002
  279ccc     O1 8255   7.985   3.980   9.833 -0.3293 -0.0909  0.2353
  279ccc     O2 8256   7.885   3.778   9.821 -0.8637  0.2338  0.2667
  279ccc    H11 8257   7.827   3.740   9.753 -2.0204 -1.6425  2.1939
  279ccc     C7 8258   7.684   4.055   9.397  0.2530 -0.0570  0.5204
  279ccc    H12 8259   7.689   3.945   9.396 -2.2467 -0.2399  0.0633
  279ccc    H13 8260   7.604   4.085   9.467 -0.7684  0.8296 -0.9697
  279ccc     C8 8261   7.637   4.097   9.257  0.5537  0.3128 -0.0068
  279ccc    H14 8262   7.605   4.201   9.268 -0.9802  0.0415 -1.4609
  279ccc    H15 8263   7.711   4.083   9.178  0.5659 -2.0850  0.3567
  279ccc     C9 8264   7.512   4.009   9.221  0.4610 -1.0842  0.0019
  279ccc     O3 8265   7.478   3.905   9.275 -0.1428  0.8920  0.0141
  279ccc     O4 8266   7.461   4.042   9.100  0.2461  0.2994 -0.3033
  279ccc    H16 8267   7.489   4.134   9.090  0.8539  0.2495  0.7625
  279ccc     O5 8268   7.550   4.518   9.540  0.4571 -0.0106 -0.2700
  280ccc     C1 8269   7.329   5.011  10.142  0.8826  0.0414  0.2687
  280ccc     H1 8270   7.288   5.083  10.071  2.3797 -0.2342 -0.9261
  280ccc     H2 8271   7.286   5.032  10.241  1.5259 -0.5338  0.6829
  280ccc     C2 8272   7.482   5.024  10.139  0.4516 -0.2495  0.0410
  280ccc     H3 8273   7.523   4.986  10.045 -2.3588  0.3166 -1.5265
  280ccc     H4 8274   7.524   4.957  10.215 -0.7035 -1.7825 -0.6179
  280ccc     C3 8275   7.528   5.161  10.182  0.0505  0.0830  0.2600
  280ccc     H5 8276   7.505   5.173  10.288 -0.2862 -0.1909  0.2182
  280ccc     H6 8277   7.470   5.227  10.116 -0.0051 -0.2275 -0.0027
  280ccc     N1 8278   7.670   5.175  10.145 -0.6156 -1.5822 -0.1442
  280ccc     C4 8279   7.731   5.273  10.237 -0.1009  0.3166  0.0128
  280ccc     H7 8280   7.655   5.349  10.260  0.1377  0.7946 -0.7386
  280ccc     H8 8281   7.823   5.314  10.194 -0.7946  2.0423  0.0932
  280ccc     C5 8282   7.777   5.200  10.366 -0.5257 -0.3538 -0.2219
  280ccc     H9 8283   7.698   5.140  10.414  0.2656  0.7177  2.6557
  280ccc    H10 8284   7.859   5.137  10.329 -1.3468 -1.2487 -0.5615
  280ccc     C6 8285   7.842   5.284  10.475  0.0065 -0.7604  0.4224
  280ccc     O1 8286   7.769   5.362  10.539 -0.2417  0.2808  0.0121
  280ccc     O2 8287   7.953   5.230  10.527  0.1398 -0.3436  0.4845
  280ccc    H11 8288   7.970   5.147  10.478 -2.3704 -0.5082 -0.1907
  280ccc     C7 8289   7.697   5.214  10.000  0.1834 -0.0553 -0.2447
  280ccc    H12 8290   7.656   5.139   9.931 -0.5389  2.4708 -2.7283
  280ccc    H13 8291   7.649   5.309   9.976  1.9676  0.7324 -0.8666
  280ccc     C8 8292   7.855   5.225   9.969 -0.3343  0.8098 -0.1506
  280ccc    H14 8293   7.900   5.312  10.019  0.0580 -0.7985  2.5107
  280ccc    H15 8294   7.887   5.127  10.006 -0.1046  0.9126 -0.0807
  280ccc     C9 8295   7.878   5.227   9.821  0.3362 -0.6068  0.1459
  280ccc     O3 8296   7.787   5.266   9.748 -0.0298 -0.0478 -1.0153
  280ccc     O4 8297   8.003   5.236   9.792 -0.2323  0.2790 -0.1243
  280ccc    H16 8298   8.054   5.209   9.870 -1.2442  0.1073  0.5067
  280ccc     O5 8299   7.286   4.875  10.099 -0.5071 -0.3368  0.0232
  281ccc     C1 8300   5.810   5.007   9.792  0.3189 -0.2178  0.0086
  281ccc     H1 8301   5.793   4.923   9.724  0.6626  0.3436 -0.7842
  281ccc     H2 8302   5.918   5.014   9.811  0.3309  0.5209 -0.3081
  281ccc     C2 8303   5.741   4.966   9.926 -0.2589 -0.2040 -0.1196
  281ccc     H3 8304   5.788   4.875   9.967 -1.3039  0.1210  1.9536
  281ccc     H4 8305   5.636   4.935   9.914 -0.2818  0.0238 -0.4831
  281ccc     C3 8306   5.747   5.078  10.035 -0.1326  0.3416 -0.3917
  281ccc     H5 8307   5.696   5.165   9.991 -1.5531 -0.2593 -0.0019
  281ccc     H6 8308   5.852   5.100  10.055 -0.2217  0.5873 -0.1860
  281ccc     N1 8309   5.684   5.044  10.167 -0.2447 -0.0455 -0.0043
  281ccc     C4 8310   5.561   4.962  10.184  0.7871  0.1717 -0.1076
  281ccc     H7 8311   5.542   4.949  10.291 -0.3899 -0.3308 -0.3642
  281ccc     H8 8312   5.568   4.859  10.147 -1.5604 -0.4493  1.0175
  281ccc     C5 8313   5.438   5.034  10.116  0.1152 -0.6846  0.5799
  281ccc     H9 8314   5.407   5.125  10.169 -1.5109 -0.4471 -0.7146
  281ccc    H10 8315   5.458   5.062  10.012 -1.6935  0.9306  0.6220
  281ccc     C6 8316   5.316   4.945  10.129  0.8373 -0.9552 -0.0571
  281ccc     O1 8317   5.321   4.839  10.178 -0.0174 -0.1773 -0.5041
  281ccc     O2 8318   5.208   4.993  10.055 -0.5368  0.4259 -0.1605
  281ccc    H11 8319   5.220   5.087  10.032  1.3939  0.7842  1.9124
  281ccc     C7 8320   5.709   5.137  10.282  0.4614  0.1128  0.0753
  281ccc    H12 8321   5.681   5.101  10.382 -1.0949  1.9522  0.3557
  281ccc    H13 8322   5.818   5.140  10.289  0.3931  1.8041  0.9320
  281ccc     C8 8323   5.662   5.284  10.266 -0.4919  0.0095  0.1916
  281ccc    H14 8324   5.709   5.320  10.173 -0.7611 -1.9525 -0.7688
  281ccc    H15 8325   5.552   5.287  10.271 -0.6248 -1.8751 -0.5272
  281ccc     C9 8326   5.704   5.368  10.380 -0.0005 -0.1912  0.1793
  281ccc     O3 8327   5.763   5.329  10.482 -0.2750  0.0951 -0.1987
  281ccc     O4 8328   5.674   5.495  10.376  0.5194  0.2739 -0.1557
  281ccc    H16 8329   5.642   5.516  10.286 -1.3014 -3.3566 -0.5489
  281ccc     O5 8330   5.754   5.132   9.744 -0.0134 -0.0170  0.4185
  282ccc     C1 8331   6.127   5.747  10.188  0.0239 -0.7130 -0.4320
  282ccc     H1 8332   6.095   5.723  10.291 -0.7766 -0.5845 -0.6401
  282ccc     H2 8333   6.221   5.692  10.180 -0.0003 -0.9668  0.8024
  282ccc     C2 8334   6.150   5.895  10.176  0.1550 -0.7553  0.1090
  282ccc     H3 8335   6.190   5.929  10.272  0.7296  2.1944 -1.0630
  282ccc     H4 8336   6.059   5.951  10.153  1.0863  0.4279 -0.8329
  282ccc     C3 8337   6.255   5.931  10.064  0.1037  0.1699 -1.0328
  282ccc     H5 8338   6.275   6.039  10.075 -0.4414  0.0249  3.4878
  282ccc     H6 8339   6.206   5.900   9.971 -0.0065  0.6139 -1.1229
  282ccc     N1 8340   6.383   5.858  10.066  1.0884  0.4612 -0.1786
  282ccc     C4 8341   6.468   5.874   9.940 -0.5309 -0.7357 -0.4754
  282ccc     H7 8342   6.521   5.970   9.941 -3.3184  0.9218  2.2724
  282ccc     H8 8343   6.402   5.862   9.853 -0.7186 -0.0577 -0.4289
  282ccc     C5 8344   6.578   5.772   9.933 -0.4182  0.1482  0.4847
  282ccc     H9 8345   6.661   5.797  10.000 -0.8730 -0.2619  1.2128
  282ccc    H10 8346   6.540   5.670   9.951 -0.2866  0.2959  1.6400
  282ccc     C6 8347   6.641   5.777   9.792  1.0511 -0.6005  0.2918
  282ccc     O1 8348   6.629   5.865   9.708 -0.1140 -0.0761  0.4448
  282ccc     O2 8349   6.728   5.674   9.783  0.0793  0.4971  0.2382
  282ccc    H11 8350   6.721   5.627   9.867  0.7600  0.5648  0.3430
  282ccc     C7 8351   6.459   5.873  10.186  0.9409  0.5741 -0.7139
  282ccc    H12 8352   6.389   5.851  10.268 -0.5413  1.3723 -1.7273
  282ccc    H13 8353   6.536   5.795  10.192  1.0625  0.7704  1.1291
  282ccc     C8 8354   6.525   6.011  10.207 -0.0777 -0.4111 -0.3707
  282ccc    H14 8355   6.577   6.053  10.120 -1.3065  1.5056 -0.2361
  282ccc    H15 8356   6.442   6.080  10.229  0.6756  0.5070 -0.3593
  282ccc     C9 8357   6.629   6.011  10.322  0.1157  0.1534 -0.6275
  282ccc     O3 8358   6.718   5.931  10.335 -0.1538  0.0360  0.0161
  282ccc     O4 8359   6.629   6.124  10.400 -0.1198  0.3415  0.0539
  282ccc    H16 8360   6.555   6.178  10.365 -1.0637  0.8945  2.6693
  282ccc     O5 8361   6.028   5.696  10.093 -0.2684  0.1614  0.2726
  283ccc     C1 8362   5.773   3.953  11.582  0.5241  0.6060 -0.5409
  283ccc     H1 8363   5.853   3.966  11.656 -0.6761  2.5577  0.4894
  283ccc     H2 8364   5.779   4.014  11.491 -0.7314 -1.3204 -2.0156
  283ccc     C2 8365   5.634   3.983  11.650  0.0490 -0.7972 -0.1578
  283ccc     H3 8366   5.554   3.974  11.576 -0.0464  1.1762 -0.3525
  283ccc     H4 8367   5.626   4.088  11.680  0.7493 -1.2516  1.7714
  283ccc     C3 8368   5.600   3.893  11.764 -0.9071  0.6020 -0.3777
  283ccc     H5 8369   5.680   3.913  11.836  0.0281 -3.0198 -0.1752
  283ccc     H6 8370   5.615   3.786  11.741 -1.9621  0.2219  0.6102
  283ccc     N1 8371   5.470   3.911  11.822 -0.6855  0.8993  0.5560
  283ccc     C4 8372   5.473   3.890  11.967  0.8656  0.3609 -0.1178
  283ccc     H7 8373   5.565   3.939  12.002 -0.2056  3.6115 -1.4775
  283ccc     H8 8374   5.462   3.784  11.994  1.8135  0.3058  0.0875
  283ccc     C5 8375   5.371   3.972  12.051  0.0908 -1.4714 -0.3291
  283ccc     H9 8376   5.376   4.071  12.004 -1.3421 -2.1816 -2.1284
  283ccc    H10 8377   5.270   3.931  12.043 -0.8549  0.7128 -0.1986
  283ccc     C6 8378   5.410   3.987  12.197 -0.2177  0.2497  0.6055
  283ccc     O1 8379   5.490   3.915  12.257 -0.4749 -0.8283 -0.2229
  283ccc     O2 8380   5.338   4.082  12.255 -0.1888  0.5512 -0.1342
  283ccc    H11 8381   5.281   4.103  12.179  0.3881  1.0645 -0.4273
  283ccc     C7 8382   5.345   3.883  11.744  0.1855  0.4541 -0.4859
  283ccc    H12 8383   5.263   3.947  11.778  1.1875  0.4326  2.1869
  283ccc    H13 8384   5.362   3.904  11.638  0.2269  1.2079 -0.3336
  283ccc     C8 8385   5.298   3.735  11.767 -0.8152 -0.1018 -0.4904
  283ccc    H14 8386   5.376   3.665  11.734 -0.4888 -0.1835  0.4492
  283ccc    H15 8387   5.268   3.722  11.871 -1.6525  1.1983 -0.5465
  283ccc     C9 8388   5.179   3.694  11.682  1.1116  0.2228  0.0446
  283ccc     O3 8389   5.132   3.761  11.595 -0.7202 -0.1269  0.1012
  283ccc     O4 8390   5.139   3.563  11.700  0.4378  0.0021  0.6146
  283ccc    H16 8391   5.200   3.533  11.769 -1.0124 -0.9740  1.5172
  283ccc     O5 8392   5.765   3.813  11.533 -0.6829 -0.2757 -0.9384
  284ccc     C1 8393   6.292   4.158  11.133  0.7540  0.2722  0.3995
  284ccc     H1 8394   6.369   4.212  11.077  1.1691 -0.0834  0.6258
  284ccc     H2 8395   6.193   4.204  11.123 -1.9862 -5.0246 -0.1613
  284ccc     C2 8396   6.347   4.151  11.270 -0.4872 -0.1191 -0.1573
  284ccc     H3 8397   6.371   4.253  11.299  0.5883 -0.2080 -0.6977
  284ccc     H4 8398   6.433   4.084  11.258 -1.7036 -1.5364 -1.4366
  284ccc     C3 8399   6.257   4.098  11.383 -0.2722 -0.9038  0.6191
  284ccc     H5 8400   6.209   4.004  11.352 -2.8263  1.2013 -2.4683
  284ccc     H6 8401   6.178   4.174  11.386  0.2096 -0.4068  0.8170
  284ccc     N1 8402   6.317   4.074  11.519  0.1548  0.6419  0.4096
  284ccc     C4 8403   6.437   3.991  11.526  0.2081  0.3426  0.7711
  284ccc     H7 8404   6.486   4.004  11.623  1.7646 -1.2669  0.2578
  284ccc     H8 8405   6.508   4.031  11.452 -0.4822 -1.5015 -0.9795
  284ccc     C5 8406   6.419   3.836  11.501 -0.4203  0.1583  0.7617
  284ccc     H9 8407   6.372   3.795  11.591 -2.4432  1.7965  0.5388
  284ccc    H10 8408   6.366   3.816  11.408 -1.3515 -2.5099  1.7611
  284ccc     C6 8409   6.547   3.772  11.486 -0.7015  0.1668 -0.0986
  284ccc     O1 8410   6.608   3.740  11.583 -0.1995 -0.2599  0.2982
  284ccc     O2 8411   6.590   3.748  11.362 -0.1369 -0.7060 -0.1723
  284ccc    H11 8412   6.511   3.767  11.307  0.3390  1.3450 -0.2243
  284ccc     C7 8413   6.226   4.046  11.634 -1.1717 -0.1929  0.0996
  284ccc    H12 8414   6.183   3.946  11.620  1.9638 -1.7385  0.6607
  284ccc    H13 8415   6.287   4.060  11.724 -0.7880  3.5337 -0.5809
  284ccc     C8 8416   6.118   4.157  11.644 -0.5762 -0.4691  0.2887
  284ccc    H14 8417   6.170   4.250  11.618 -0.1921 -0.6169  0.5198
  284ccc    H15 8418   6.032   4.160  11.576 -1.3602  1.1573  1.3247
  284ccc     C9 8419   6.062   4.171  11.782 -0.3808 -0.0264 -0.0679
  284ccc     O3 8420   6.122   4.215  11.872 -0.0104 -0.0873 -0.4157
  284ccc     O4 8421   5.924   4.155  11.787 -0.4146  0.7529 -0.4324
  284ccc    H16 8422   5.909   4.174  11.881 -1.0280 -0.4890 -0.2563
  284ccc     O5 8423   6.288   4.022  11.089  0.1392 -0.1445  0.0722
  285ccc     C1 8424   4.618   4.387  10.285 -0.3393 -0.2587 -0.2351
  285ccc     H1 8425   4.550   4.403  10.370  1.4786  0.3036  1.1721
  285ccc     H2 8426   4.657   4.481  10.243 -1.0156 -0.9837 -2.6983
  285ccc     C2 8427   4.553   4.309  10.164 -0.8459  0.0924 -0.1491
  285ccc     H3 8428   4.459   4.360  10.139  0.2413  0.4233 -4.2586
  285ccc     H4 8429   4.524   4.207  10.192 -0.6301 -0.1739 -0.8732
  285ccc     C3 8430   4.643   4.313  10.035  0.4019 -0.4154 -0.6945
  285ccc     H5 8431   4.747   4.290  10.063  0.5681  0.7418 -0.3231
  285ccc     H6 8432   4.649   4.419  10.007  3.5401 -1.2817 -4.2205
  285ccc     N1 8433   4.605   4.224   9.924 -0.0986  0.2837  0.3045
  285ccc     C4 8434   4.461   4.250   9.889  0.1599  0.2553 -0.0923
  285ccc     H7 8435   4.436   4.356   9.878 -0.4324  0.1035 -0.2896
  285ccc     H8 8436   4.391   4.220   9.968  0.1144 -1.1722 -0.6353
  285ccc     C5 8437   4.417   4.178   9.763  0.8108 -0.1237  1.1942
  285ccc     H9 8438   4.489   4.190   9.681  0.7214  0.4633  1.1962
  285ccc    H10 8439   4.413   4.071   9.785 -1.7293 -0.0299  1.5001
  285ccc     C6 8440   4.278   4.191   9.711 -0.1704  0.0499 -1.0272
  285ccc     O1 8441   4.184   4.254   9.773 -0.2204  0.2304 -0.6619
  285ccc     O2 8442   4.252   4.115   9.601 -0.1272 -0.3200  0.0387
  285ccc    H11 8443   4.341   4.088   9.573  0.9425  1.8882  1.0954
  285ccc     C7 8444   4.644   4.082   9.945  0.5864 -0.2368  0.4003
  285ccc    H12 8445   4.601   4.040  10.036 -0.1082  0.6527  0.5023
  285ccc    H13 8446   4.615   4.024   9.856 -2.2249 -0.5837  1.4368
  285ccc     C8 8447   4.798   4.057   9.952 -0.5791  0.6069  0.3929
  285ccc    H14 8448   4.845   4.098  10.042  0.6726  0.0367  0.0224
  285ccc    H15 8449   4.817   3.949   9.958  1.0225  0.6832 -2.0161
  285ccc     C9 8450   4.868   4.110   9.830 -0.4967  0.0900 -0.2048
  285ccc     O3 8451   4.814   4.136   9.727 -0.0943  0.8144  0.0300
  285ccc     O4 8452   4.999   4.125   9.836  0.0331  0.1543  0.9544
  285ccc    H16 8453   5.025   4.068   9.911 -1.8433 -0.3378  1.2849
  285ccc     O5 8454   4.726   4.308  10.328 -0.4680  0.9910  0.4289
  286ccc     C1 8455   5.022   3.665  10.746  0.0751  0.6266  0.7291
  286ccc     H1 8456   5.092   3.700  10.822 -1.0882 -0.4748  2.3656
  286ccc     H2 8457   4.933   3.640  10.805 -1.2044  0.5214 -1.1292
  286ccc     C2 8458   5.075   3.541  10.672  0.4050  0.1707 -0.1802
  286ccc     H3 8459   5.018   3.522  10.580 -0.5225 -0.8623  0.5800
  286ccc     H4 8460   5.046   3.448  10.723  0.4668  0.1096 -0.2550
  286ccc     C3 8461   5.223   3.542  10.639 -0.1378  0.1078  0.2903
  286ccc     H5 8462   5.238   3.612  10.556 -1.5825 -0.4615 -0.4741
  286ccc     H6 8463   5.256   3.444  10.602  0.7954 -0.7708  3.1596
  286ccc     N1 8464   5.302   3.578  10.757  0.1402 -0.4876 -1.3301
  286ccc     C4 8465   5.435   3.628  10.724 -0.2033  0.3054  0.8825
  286ccc     H7 8466   5.481   3.558  10.653 -2.0544  1.0069 -1.1009
  286ccc     H8 8467   5.495   3.632  10.816  0.6962  1.6441  0.2750
  286ccc     C5 8468   5.437   3.763  10.657 -0.2958  0.0568 -0.2855
  286ccc     H9 8469   5.437   3.742  10.550 -1.8604 -2.2851  0.0971
  286ccc    H10 8470   5.346   3.823  10.674 -0.1375  0.1534  0.2566
  286ccc     C6 8471   5.557   3.844  10.710 -0.2894 -0.5230 -0.2207
  286ccc     O1 8472   5.659   3.851  10.649 -0.1334  0.1278 -0.1525
  286ccc     O2 8473   5.551   3.897  10.841 -0.3671  0.1032  1.0968
  286ccc    H11 8474   5.463   3.867  10.869  0.9061 -5.0034  0.5937
  286ccc     C7 8475   5.302   3.468  10.862 -0.2270  0.1738  0.9904
  286ccc    H12 8476   5.346   3.510  10.953 -0.8889  1.5064  0.7114
  286ccc    H13 8477   5.200   3.443  10.890 -1.3409  1.7357 -1.3539
  286ccc     C8 8478   5.383   3.335  10.815  0.3858  0.0037 -0.2169
  286ccc    H14 8479   5.323   3.281  10.742  0.3024 -1.2542  0.7454
  286ccc    H15 8480   5.484   3.361  10.782 -0.1090 -0.3263 -2.0799
  286ccc     C9 8481   5.391   3.238  10.928 -0.1864  0.1211  0.2013
  286ccc     O3 8482   5.344   3.253  11.043 -0.0408  0.4052  0.2993
  286ccc     O4 8483   5.468   3.130  10.897 -0.4051  0.1419 -0.1867
  286ccc    H16 8484   5.483   3.134  10.801 -0.8781  0.8358 -0.2373
  286ccc     O5 8485   4.985   3.750  10.643  0.2087  0.1815 -0.2554
  287ccc     C1 8486   7.743   7.394  12.498  0.0365 -0.2746  0.9428
  287ccc     H1 8487   7.658   7.375  12.431  2.1160 -1.6704 -1.4990
  287ccc     H2 8488   7.722   7.483  12.558  0.8440  1.7375 -1.5653
  287ccc     C2 8489   7.879   7.424  12.429  0.4172  0.0163 -1.0643
  287ccc     H3 8490   7.954   7.442  12.507  0.3690 -0.2017 -0.9666
  287ccc     H4 8491   7.872   7.513  12.366 -0.6505 -1.1877 -2.7495
  287ccc     C3 8492   7.910   7.327  12.314  0.8072 -0.2706 -0.3101
  287ccc     H5 8493   7.815   7.292  12.270  0.8700  0.1733 -0.8109
  287ccc     H6 8494   7.974   7.244  12.348  2.4756  0.7297 -0.8812
  287ccc     N1 8495   7.982   7.393  12.202 -0.1341  0.1698 -0.8005
  287ccc     C4 8496   7.980   7.322  12.075 -0.0642  0.2394 -0.1878
  287ccc     H7 8497   7.989   7.218  12.107 -1.6970 -0.0235 -0.5398
  287ccc     H8 8498   8.061   7.349  12.006 -2.2279 -0.5220 -3.1998
  287ccc     C5 8499   7.848   7.332  12.005  0.4901  0.2821  0.6169
  287ccc     H9 8500   7.764   7.358  12.071  0.4735  2.0617 -0.0489
  287ccc    H10 8501   7.864   7.403  11.923  0.5294  0.3039  0.6424
  287ccc     C6 8502   7.798   7.198  11.939 -0.0143 -0.3193 -0.1741
  287ccc     O1 8503   7.813   7.182  11.819  0.2968  0.5519 -0.9775
  287ccc     O2 8504   7.732   7.115  12.022 -0.5526 -0.0294  0.7699
  287ccc    H11 8505   7.756   7.150  12.110  2.1628  1.1345 -0.3164
  287ccc     C7 8506   8.120   7.446  12.232 -0.9560 -0.2447  0.0550
  287ccc    H12 8507   8.153   7.519  12.157 -0.7664  0.3655  0.7226
  287ccc    H13 8508   8.121   7.510  12.321 -0.0193  0.4397 -0.4238
  287ccc     C8 8509   8.235   7.341  12.244  0.6399  0.3198  0.4051
  287ccc    H14 8510   8.198   7.248  12.289  1.0764 -0.4622 -0.7887
  287ccc    H15 8511   8.268   7.301  12.147  1.2116  1.8013 -0.0430
  287ccc     C9 8512   8.347   7.389  12.332  0.3434  0.2645 -0.2370
  287ccc     O3 8513   8.422   7.473  12.291  0.1039 -0.3549  0.0264
  287ccc     O4 8514   8.319   7.380  12.467  0.5094 -0.1346  0.1497
  287ccc    H16 8515   8.250   7.312  12.475  0.9880 -0.3815  3.2932
  287ccc     O5 8516   7.761   7.282  12.590  1.0552 -0.3419  0.3466
  288ccc     C1 8517   7.259   7.499  12.175  0.4965 -1.0604  0.8945
  288ccc     H1 8518   7.340   7.557  12.128 -2.3631  0.9138 -2.0003
  288ccc     H2 8519   7.190   7.457  12.101  0.0073 -0.5944  1.0834
  288ccc     C2 8520   7.188   7.604  12.266 -0.5492  0.3870 -1.1710
  288ccc     H3 8521   7.256   7.634  12.347 -0.8160  0.2075 -0.8801
  288ccc     H4 8522   7.104   7.560  12.321  1.2202 -2.1871 -0.3823
  288ccc     C3 8523   7.142   7.725  12.187 -0.7523 -0.6034  0.5495
  288ccc     H5 8524   7.054   7.695  12.128 -1.0402  1.2627 -0.0220
  288ccc     H6 8525   7.223   7.758  12.120 -0.8666 -0.6936  0.3634
  288ccc     N1 8526   7.102   7.841  12.261 -0.0339 -0.1865 -0.8254
  288ccc     C4 8527   7.049   7.952  12.176  0.0126  0.5695  0.2442
  288ccc     H7 8528   7.027   8.040  12.238 -3.2654  0.6478 -0.8567
  288ccc     H8 8529   6.956   7.917  12.129  1.0509 -0.1401 -1.3700
  288ccc     C5 8530   7.143   8.007  12.071 -0.7827 -0.5922  0.0160
  288ccc     H9 8531   7.163   7.937  11.989  0.9189 -0.9809  0.7350
  288ccc    H10 8532   7.083   8.089  12.030  0.0854  1.2915  2.2753
  288ccc     C6 8533   7.273   8.063  12.132  0.5692 -0.1627 -0.3384
  288ccc     O1 8534   7.270   8.103  12.250 -0.6666  0.3899 -0.3921
  288ccc     O2 8535   7.383   8.045  12.061  0.0845 -0.0011  0.7102
  288ccc    H11 8536   7.353   8.020  11.972  0.5118  0.0663  0.5496
  288ccc     C7 8537   7.007   7.809  12.367 -0.0466  0.5013  0.0882
  288ccc    H12 8538   6.917   7.779  12.311  0.3382  1.0813 -0.8620
  288ccc    H13 8539   7.039   7.724  12.428 -0.2594 -0.7350 -1.4284
  288ccc     C8 8540   6.967   7.923  12.456  0.4491 -0.3042 -1.1362
  288ccc    H14 8541   7.049   7.962  12.518 -1.4359  1.2733  0.5125
  288ccc    H15 8542   6.928   8.013  12.406  2.8979  0.2764 -2.2046
  288ccc     C9 8543   6.866   7.870  12.555 -0.8157 -0.2759 -0.1667
  288ccc     O3 8544   6.767   7.813  12.520  0.0862  0.5801 -0.5412
  288ccc     O4 8545   6.886   7.887  12.687  0.0411  0.0673  0.4972
  288ccc    H16 8546   6.947   7.963  12.693  1.1041 -0.4938 -2.1245
  288ccc     O5 8547   7.305   7.387  12.248  0.2921 -0.1224 -0.2096
  289ccc     C1 8548   7.039   6.608  10.979 -0.0063  0.6763  0.4614
  289ccc     H1 8549   6.994   6.559  11.067 -0.5374 -1.2984 -0.8455
  289ccc     H2 8550   6.975   6.620  10.891  1.7729  2.3483 -0.6811
  289ccc     C2 8551   7.171   6.529  10.953  0.5550 -0.3862 -0.0936
  289ccc     H3 8552   7.238   6.554  11.036 -0.8665 -0.2480  1.0699
  289ccc     H4 8553   7.213   6.563  10.858 -3.1649 -0.7759 -2.0764
  289ccc     C3 8554   7.164   6.375  10.953  0.0706  0.2793  0.8992
  289ccc     H5 8555   7.117   6.337  10.862  0.8729  0.2287  0.5016
  289ccc     H6 8556   7.088   6.345  11.026  0.2047  0.0143  0.9278
  289ccc     N1 8557   7.292   6.309  10.966  0.0186  0.0151  0.6853
  289ccc     C4 8558   7.277   6.162  10.958 -0.9039 -0.2413  0.2574
  289ccc     H7 8559   7.242   6.128  10.860  1.8079 -1.8792 -0.2496
  289ccc     H8 8560   7.215   6.133  11.044  0.5840 -1.5710  0.9436
  289ccc     C5 8561   7.413   6.090  10.974 -0.1035 -0.0736 -0.4490
  289ccc     H9 8562   7.472   6.105  10.883 -0.7460  0.6391 -0.7683
  289ccc    H10 8563   7.475   6.140  11.050  1.6291 -1.5414 -0.8303
  289ccc     C6 8564   7.407   5.942  11.004  0.5101 -0.2578 -0.8502
  289ccc     O1 8565   7.296   5.889  11.017  0.0920  0.0874 -0.2726
  289ccc     O2 8566   7.523   5.881  11.035 -0.1159 -0.3559 -0.0999
  289ccc    H11 8567   7.590   5.947  11.014  0.4784 -0.3726  1.6303
  289ccc     C7 8568   7.405   6.367  10.882  0.1831  0.0825  0.3427
  289ccc    H12 8569   7.424   6.470  10.912 -0.3003  0.2318  0.1429
  289ccc    H13 8570   7.499   6.315  10.903  0.5093 -0.2129 -1.6785
  289ccc     C8 8571   7.382   6.359  10.728  0.0007 -0.2160  0.2083
  289ccc    H14 8572   7.357   6.259  10.689 -1.1679  0.0609  0.2099
  289ccc    H15 8573   7.290   6.414  10.704 -0.5357 -0.9869  0.4596
  289ccc     C9 8574   7.495   6.418  10.650  0.3200  0.4239 -0.0854
  289ccc     O3 8575   7.608   6.423  10.694  0.7447 -0.1201  0.3142
  289ccc     O4 8576   7.482   6.410  10.518  0.5917 -0.2177 -0.7856
  289ccc    H16 8577   7.385   6.396  10.513  0.2000 -1.0507  4.1723
  289ccc     O5 8578   7.089   6.747  11.015 -0.0818 -0.1918 -0.2466
  290ccc     C1 8579   7.071   7.501  11.507 -0.2082  0.1075 -0.8678
  290ccc     H1 8580   7.155   7.437  11.534 -0.1125  1.1206  1.4670
  290ccc     H2 8581   7.088   7.599  11.554  2.6399 -0.3527 -0.7957
  290ccc     C2 8582   6.938   7.450  11.567  0.2747 -0.3890 -0.3576
  290ccc     H3 8583   6.932   7.348  11.526  1.6955 -0.0579 -1.4530
  290ccc     H4 8584   6.869   7.520  11.519  1.2443  0.0281 -1.1589
  290ccc     C3 8585   6.952   7.453  11.724  0.2789  0.1340 -0.5934
  290ccc     H5 8586   7.008   7.545  11.749  0.4018  0.3690 -1.6730
  290ccc     H6 8587   7.000   7.359  11.752 -0.6819  0.3449  1.9973
  290ccc     N1 8588   6.823   7.448  11.797 -0.4684  0.1133 -0.5145
  290ccc     C4 8589   6.725   7.348  11.749  0.5871  0.6119 -0.0076
  290ccc     H7 8590   6.738   7.248  11.794  0.2984  1.0689  1.1223
  290ccc     H8 8591   6.728   7.342  11.640 -0.8342  2.0632 -0.1585
  290ccc     C5 8592   6.579   7.384  11.776  0.3203  0.0163 -0.2969
  290ccc     H9 8593   6.509   7.305  11.745 -0.2354  0.7867 -1.0488
  290ccc    H10 8594   6.565   7.388  11.885  1.4911  0.8947 -0.1503
  290ccc     C6 8595   6.536   7.517  11.714  0.3290  0.5658  0.4436
  290ccc     O1 8596   6.451   7.529  11.625 -0.1646  0.2941 -0.3183
  290ccc     O2 8597   6.565   7.623  11.789 -0.5443  0.4401  0.0902
  290ccc    H11 8598   6.608   7.590  11.869 -1.6101  1.0463  0.9412
  290ccc     C7 8599   6.826   7.467  11.945  0.1514 -0.3238  0.6342
  290ccc    H12 8600   6.867   7.567  11.958  3.8412 -1.4789 -0.9621
  290ccc    H13 8601   6.726   7.468  11.990 -1.9661  1.9257 -3.5078
  290ccc     C8 8602   6.910   7.360  12.017  0.1443  0.5215 -0.2913
  290ccc    H14 8603   6.863   7.261  12.008 -0.6462  0.6812  1.5833
  290ccc    H15 8604   7.012   7.364  11.977  0.9910 -0.1376  1.6719
  290ccc     C9 8605   6.910   7.373  12.169  0.1716 -0.4524 -0.1740
  290ccc     O3 8606   6.847   7.457  12.229 -0.2607 -0.1776 -0.1303
  290ccc     O4 8607   6.972   7.278  12.240  0.2173  0.5050  0.0022
  290ccc    H16 8608   7.013   7.215  12.178  0.6777  0.4758  0.3347
  290ccc     O5 8609   7.066   7.515  11.369 -0.1956  0.3664  0.1500
  291ccc     C1 8610   8.425   5.243  12.645  0.0891 -0.1037 -0.8568
  291ccc     H1 8611   8.530   5.215  12.632  0.9672  2.1630  0.8418
  291ccc     H2 8612   8.399   5.261  12.750  1.3122 -1.2123 -0.3400
  291ccc     C2 8613   8.331   5.131  12.588 -0.1305  0.0639  0.6751
  291ccc     H3 8614   8.229   5.171  12.593 -0.0134  0.4724 -0.1314
  291ccc     H4 8615   8.334   5.045  12.656  0.9484 -0.2648  0.2305
  291ccc     C3 8616   8.367   5.081  12.453  0.1496 -0.4872 -0.9348
  291ccc     H5 8617   8.448   5.008  12.449 -0.0798 -0.6996 -2.1127
  291ccc     H6 8618   8.399   5.166  12.390 -0.7362 -0.1439 -0.9357
  291ccc     N1 8619   8.245   5.022  12.393 -0.6395  0.5971  0.1367
  291ccc     C4 8620   8.186   4.912  12.466  0.7277  0.4958  0.0250
  291ccc     H7 8621   8.154   4.942  12.567 -1.3697  2.5033 -1.1395
  291ccc     H8 8622   8.266   4.842  12.494  0.7345 -0.3432 -1.8961
  291ccc     C5 8623   8.065   4.840  12.387 -0.2521 -0.5228  0.0284
  291ccc     H9 8624   7.998   4.914  12.342 -1.3785 -1.4571  0.1208
  291ccc    H10 8625   8.112   4.782  12.307 -0.6062  0.6573 -1.0754
  291ccc     C6 8626   7.983   4.744  12.473 -0.3790  0.1498 -0.7838
  291ccc     O1 8627   7.967   4.756  12.595 -0.3289  0.0244 -0.3279
  291ccc     O2 8628   7.893   4.674  12.400  0.4907  0.4585 -0.1227
  291ccc    H11 8629   7.901   4.719  12.314  2.6028  0.0365 -0.1850
  291ccc     C7 8630   8.242   5.019  12.243 -0.1759  1.1309 -0.0314
  291ccc    H12 8631   8.296   4.932  12.204 -2.2776  0.2854 -1.2462
  291ccc    H13 8632   8.140   5.002  12.205  1.0730 -1.3243 -2.6531
  291ccc     C8 8633   8.288   5.147  12.166 -0.3136 -0.1642 -0.0569
  291ccc    H14 8634   8.231   5.233  12.204  0.9084  0.8567 -0.4509
  291ccc    H15 8635   8.395   5.167  12.175 -0.4182  1.7544 -2.1071
  291ccc     C9 8636   8.261   5.153  12.013  0.5910 -0.5004  0.1042
  291ccc     O3 8637   8.209   5.056  11.955  0.0574 -1.0419  0.1187
  291ccc     O4 8638   8.336   5.238  11.947 -0.5482  0.4494  0.6026
  291ccc    H16 8639   8.370   5.302  12.012 -1.1028  1.2132  0.1516
  291ccc     O5 8640   8.401   5.361  12.573 -0.6834 -0.2435  0.1193
  292ccc     C1 8641   9.263   5.792  12.849 -0.2846 -0.1105  0.1799
  292ccc     H1 8642   9.219   5.766  12.751  2.1554  0.9548 -1.3018
  292ccc     H2 8643   9.265   5.899  12.871  1.0960 -0.2867  1.0059
  292ccc     C2 8644   9.407   5.735  12.849  0.5777  0.0048 -0.7126
  292ccc     H3 8645   9.465   5.776  12.766  2.5479  2.7070  1.8007
  292ccc     H4 8646   9.402   5.625  12.850  0.6047 -0.0076 -1.5162
  292ccc     C3 8647   9.471   5.779  12.980  0.6273 -0.3990 -0.7424
  292ccc     H5 8648   9.436   5.708  13.056 -1.8542 -0.9062 -2.2474
  292ccc     H6 8649   9.431   5.879  13.002  1.1896 -0.1921 -0.6390
  292ccc     N1 8650   9.620   5.800  12.978 -0.3193 -0.2973 -0.4478
  292ccc     C4 8651   9.680   5.901  13.070 -0.3717  0.9104 -0.0146
  292ccc     H7 8652   9.790   5.908  13.077 -0.4982  2.4740  0.9829
  292ccc     H8 8653   9.647   5.886  13.173 -0.4257 -0.0588 -0.1649
  292ccc     C5 8654   9.647   6.041  13.022  0.2954  1.3035 -0.0178
  292ccc     H9 8655   9.669   6.050  12.914 -0.1556  0.1993 -0.2141
  292ccc    H10 8656   9.538   6.048  13.033  0.2905 -0.7870  1.7723
  292ccc     C6 8657   9.702   6.149  13.110  0.0630 -0.6586  0.3402
  292ccc     O1 8658   9.747   6.134  13.224  0.0182  0.6854  0.2583
  292ccc     O2 8659   9.665   6.274  13.072 -0.0362 -0.0173 -0.3815
  292ccc    H11 8660   9.635   6.258  12.981  0.0588  2.4135 -0.9075
  292ccc     C7 8661   9.691   5.675  12.982  0.1962  0.5619  0.5740
  292ccc    H12 8662   9.672   5.623  13.076 -2.2412  0.1782 -0.0631
  292ccc    H13 8663   9.636   5.616  12.907 -0.6385 -1.5301  2.7176
  292ccc     C8 8664   9.836   5.675  12.933 -0.3068 -0.3093  0.5690
  292ccc    H14 8665   9.839   5.759  12.863 -0.0670 -0.7936 -0.0180
  292ccc    H15 8666   9.902   5.704  13.015  0.9872  2.2082 -1.2249
  292ccc     C9 8667   9.892   5.547  12.878  0.6873 -0.0948 -0.8288
  292ccc     O3 8668   9.922   5.534  12.761 -0.5131  0.2657  0.0079
  292ccc     O4 8669   9.928   5.454  12.973  0.4182  0.3560  0.1925
  292ccc    H16 8670   9.897   5.495  13.055 -1.0407 -0.1817 -0.0559
  292ccc     O5 8671   9.182   5.728  12.954  0.2950  0.8022  0.2667
  293ccc     C1 8672   8.367   5.265  11.542  0.3593 -0.5509 -0.8593
  293ccc     H1 8673   8.373   5.286  11.650 -0.2849 -1.8003 -0.5656
  293ccc     H2 8674   8.300   5.332  11.486 -0.7817 -2.9826 -2.5644
  293ccc     C2 8675   8.322   5.120  11.516 -0.2119 -0.2895 -0.1845
  293ccc     H3 8676   8.224   5.104  11.564  0.0505 -1.1309  0.0834
  293ccc     H4 8677   8.391   5.052  11.568  1.4213  1.3794 -0.0908
  293ccc     C3 8678   8.315   5.081  11.367  0.4909  0.4044 -0.1157
  293ccc     H5 8679   8.404   5.110  11.312  0.2314  0.8714 -0.2939
  293ccc     H6 8680   8.229   5.132  11.322  0.2153  0.8039  0.8303
  293ccc     N1 8681   8.287   4.936  11.341  0.0730  0.7786 -0.3683
  293ccc     C4 8682   8.401   4.845  11.372 -0.1444  0.1718  0.2177
  293ccc     H7 8683   8.422   4.851  11.479 -0.7322  0.0178  0.3417
  293ccc     H8 8684   8.492   4.887  11.327  0.8313 -1.1746  0.8622
  293ccc     C5 8685   8.394   4.708  11.313  1.3724  0.8030  0.4158
  293ccc     H9 8686   8.312   4.654  11.362  2.1886 -1.8287 -0.9318
  293ccc    H10 8687   8.374   4.704  11.205 -0.9345  0.7591  0.7854
  293ccc     C6 8688   8.514   4.624  11.350  0.4338 -0.0775 -0.0484
  293ccc     O1 8689   8.616   4.658  11.294 -0.6457 -0.4751 -0.1627
  293ccc     O2 8690   8.520   4.571  11.475  0.3314 -0.1182 -0.5405
  293ccc    H11 8691   8.432   4.575  11.516  0.1763  1.2269 -0.9537
  293ccc     C7 8692   8.151   4.891  11.391  0.5763  0.1123  0.4132
  293ccc    H12 8693   8.146   4.783  11.374 -0.0866  0.5104 -2.4135
  293ccc    H13 8694   8.147   4.906  11.500  2.4438 -2.8566  1.0060
  293ccc     C8 8695   8.035   4.969  11.326 -0.5478  0.1792 -0.0637
  293ccc    H14 8696   8.045   5.070  11.366 -0.5088  0.6665 -1.2687
  293ccc    H15 8697   8.045   4.968  11.217 -0.9837  1.3621 -0.1199
  293ccc     C9 8698   7.898   4.942  11.372 -0.1241  1.7016  0.3409
  293ccc     O3 8699   7.847   4.977  11.474  0.6979 -0.1242 -0.0007
  293ccc     O4 8700   7.823   4.901  11.266 -0.0233 -0.5166 -0.1083
  293ccc    H16 8701   7.881   4.867  11.196  0.6262 -2.0446  1.0873
  293ccc     O5 8702   8.501   5.276  11.500  0.3564  0.0468  0.4213
  294ccc     C1 8703   8.469   6.084  11.071 -0.1517 -0.0317 -0.6282
  294ccc     H1 8704   8.573   6.118  11.069  0.1640 -0.7972  0.9535
  294ccc     H2 8705   8.465   5.998  11.003 -0.1020  1.3476 -2.4503
  294ccc     C2 8706   8.377   6.206  11.026 -0.6582  0.0321 -0.2755
  294ccc     H3 8707   8.428   6.233  10.932 -0.7503 -0.0041 -0.3353
  294ccc     H4 8708   8.389   6.289  11.096  0.9090  0.6203 -1.1871
  294ccc     C3 8709   8.227   6.175  10.999 -0.2702 -0.1222 -0.0427
  294ccc     H5 8710   8.173   6.188  11.093 -0.8642 -1.4104 -0.1766
  294ccc     H6 8711   8.213   6.068  10.979  1.2610 -0.9475  2.7785
  294ccc     N1 8712   8.178   6.251  10.882  0.7857 -1.1206 -0.3792
  294ccc     C4 8713   8.050   6.195  10.834 -0.6553 -0.5708  0.3205
  294ccc     H7 8714   8.068   6.087  10.836 -1.0057 -0.8105 -3.0622
  294ccc     H8 8715   8.030   6.223  10.730  2.5596 -0.3782 -0.3716
  294ccc     C5 8716   7.924   6.226  10.928 -0.5015  0.2681  0.6281
  294ccc     H9 8717   7.952   6.190  11.027  1.6125 -1.2743 -0.4482
  294ccc    H10 8718   7.901   6.333  10.923 -1.1190  0.0900 -1.3043
  294ccc     C6 8719   7.793   6.145  10.889  0.1498  0.4009  0.5477
  294ccc     O1 8720   7.775   6.102  10.776 -0.3725  0.0121 -0.1253
  294ccc     O2 8721   7.726   6.092  10.989  0.1830 -0.4842  0.2222
  294ccc    H11 8722   7.755   6.144  11.066  2.2387 -0.8904 -0.2382
  294ccc     C7 8723   8.190   6.400  10.877  0.0759 -1.1329 -0.1743
  294ccc    H12 8724   8.115   6.443  10.945 -0.4219 -0.1693 -1.2877
  294ccc    H13 8725   8.288   6.433  10.913  0.4026  1.7011 -3.2103
  294ccc     C8 8726   8.192   6.469  10.738  0.0486 -0.5047 -0.1351
  294ccc    H14 8727   8.274   6.434  10.674 -0.0544 -0.4145 -0.3186
  294ccc    H15 8728   8.095   6.452  10.691 -1.2147  1.9398  1.3687
  294ccc     C9 8729   8.206   6.622  10.748 -0.3667  0.3299  0.4595
  294ccc     O3 8730   8.304   6.693  10.710  0.1183 -0.1391 -0.6104
  294ccc     O4 8731   8.097   6.682  10.781  0.0801  0.0166  0.1497
  294ccc    H16 8732   8.024   6.623  10.805 -0.6601 -0.4919 -2.9822
  294ccc     O5 8733   8.426   6.050  11.211  0.2177  0.1594  0.0331
  295ccc     C1 8734   6.351   5.639  13.320  0.1934 -0.3918 -0.0115
  295ccc     H1 8735   6.423   5.574  13.372  0.2398 -2.1481 -2.1127
  295ccc     H2 8736   6.278   5.657  13.399 -0.2787 -1.4395 -0.1823
  295ccc     C2 8737   6.269   5.558  13.220  0.5822  0.5671  0.3068
  295ccc     H3 8738   6.246   5.460  13.264  0.6243  0.7008  0.6317
  295ccc     H4 8739   6.333   5.539  13.133  1.1208 -1.6751  1.1069
  295ccc     C3 8740   6.133   5.617  13.189  0.1612 -0.2756 -0.0528
  295ccc     H5 8741   6.146   5.684  13.103  1.0679  0.1025  0.3611
  295ccc     H6 8742   6.093   5.673  13.275  0.2970 -0.4607  0.1312
  295ccc     N1 8743   6.051   5.503  13.140  0.0226 -0.5173 -1.1026
  295ccc     C4 8744   6.094   5.416  13.025  0.3638  0.7221 -0.1817
  295ccc     H7 8745   6.037   5.322  13.028  0.2183  0.7724 -1.1017
  295ccc     H8 8746   6.200   5.391  13.040 -0.3461 -2.5290  0.1796
  295ccc     C5 8747   6.074   5.489  12.884  0.9609  0.7400  0.0891
  295ccc     H9 8748   5.970   5.479  12.849  1.0885 -0.0223 -0.1047
  295ccc    H10 8749   6.095   5.596  12.893 -0.1413  1.0453 -0.7713
  295ccc     C6 8750   6.157   5.437  12.769  0.0392 -0.2353 -0.7250
  295ccc     O1 8751   6.252   5.360  12.778 -0.4211 -0.4011  0.7678
  295ccc     O2 8752   6.124   5.479  12.648  0.0604 -0.6079 -0.8374
  295ccc    H11 8753   6.053   5.543  12.665  0.2939 -0.7280  0.7558
  295ccc     C7 8754   5.904   5.535  13.139 -0.1224 -0.2969 -0.0030
  295ccc    H12 8755   5.889   5.628  13.083  0.1205 -1.2218 -1.6866
  295ccc    H13 8756   5.848   5.450  13.098 -1.7224 -0.8523  3.0571
  295ccc     C8 8757   5.851   5.552  13.282 -0.0558 -0.0690  0.2119
  295ccc    H14 8758   5.824   5.453  13.319 -2.2235 -0.3119 -1.7349
  295ccc    H15 8759   5.919   5.592  13.358  0.4679 -1.5124  0.5355
  295ccc     C9 8760   5.730   5.641  13.287  0.5907 -0.0483  0.5148
  295ccc     O3 8761   5.707   5.734  13.211 -0.7493  0.8032 -0.0946
  295ccc     O4 8762   5.642   5.608  13.380 -0.1509  0.0749  0.0460
  295ccc    H16 8763   5.669   5.522  13.417 -1.8049 -1.3846 -1.8488
  295ccc     O5 8764   6.403   5.758  13.263 -0.0901 -0.4286 -0.2173
  296ccc     C1 8765   6.911   5.727  12.676 -0.4286 -0.2198  0.1728
  296ccc     H1 8766   7.020   5.713  12.674 -0.4313 -0.4106 -2.8267
  296ccc     H2 8767   6.861   5.635  12.710 -0.0184 -0.3085  0.5487
  296ccc     C2 8768   6.876   5.753  12.530 -0.2082 -0.9330 -0.1445
  296ccc     H3 8769   6.922   5.672  12.473 -0.9591 -1.6322  0.2130
  296ccc     H4 8770   6.927   5.848  12.509 -0.2861 -0.8222  0.1671
  296ccc     C3 8771   6.733   5.751  12.489  0.3119  0.1041 -0.4398
  296ccc     H5 8772   6.671   5.809  12.558 -0.8453 -0.5069 -0.9427
  296ccc     H6 8773   6.699   5.648  12.506  1.7521 -0.2366  0.5372
  296ccc     N1 8774   6.705   5.780  12.348 -0.2095 -0.2424 -0.4023
  296ccc     C4 8775   6.763   5.912  12.309  0.2111 -0.4638  0.0160
  296ccc     H7 8776   6.736   5.930  12.205 -2.0222  2.7303  0.9815
  296ccc     H8 8777   6.871   5.926  12.319  0.0432  0.0668  1.3107
  296ccc     C5 8778   6.711   6.031  12.397  0.1512  0.0346 -0.3927
  296ccc     H9 8779   6.602   6.035  12.386 -0.1783 -1.0313  1.9175
  296ccc    H10 8780   6.730   6.032  12.505 -0.7288  0.2872 -0.2338
  296ccc     C6 8781   6.754   6.167  12.352 -0.0197 -0.3310  0.5025
  296ccc     O1 8782   6.721   6.214  12.245 -0.4036  0.6654 -0.8642
  296ccc     O2 8783   6.817   6.247  12.448  0.1226 -0.2331  0.2085
  296ccc    H11 8784   6.845   6.188  12.520  0.3306 -1.0967 -0.5658
  296ccc     C7 8785   6.742   5.676  12.246  0.1773  0.1249  0.3302
  296ccc    H12 8786   6.696   5.700  12.149 -1.6837 -1.7621  0.6818
  296ccc    H13 8787   6.852   5.674  12.243  0.2515 -1.9905  1.7825
  296ccc     C8 8788   6.703   5.534  12.289 -1.0871 -0.4054 -0.4391
  296ccc    H14 8789   6.773   5.511  12.371 -0.3155 -0.3358 -1.0711
  296ccc    H15 8790   6.602   5.537  12.331 -0.8420  2.7551  0.1648
  296ccc     C9 8791   6.704   5.431  12.181  0.1539 -0.1257 -0.5192
  296ccc     O3 8792   6.711   5.446  12.061 -0.2151 -0.0102  0.4453
  296ccc     O4 8793   6.672   5.306  12.223 -0.4891 -0.2332  0.1685
  296ccc    H16 8794   6.654   5.307  12.319  0.0982 -1.7709  0.3262
  296ccc     O5 8795   6.874   5.848  12.761 -0.6484  0.0930  0.7281
  297ccc     C1 8796   6.981   5.784  13.927 -0.3645  0.3653 -0.4968
  297ccc     H1 8797   6.899   5.817  13.862  0.5007 -0.4918 -2.0880
  297ccc     H2 8798   7.073   5.820  13.879 -1.8550  1.2303 -2.9028
  297ccc     C2 8799   6.970   5.628  13.944  0.1420 -0.5459  0.0474
  297ccc     H3 8800   6.946   5.582  13.847  1.6613 -1.4143  0.0498
  297ccc     H4 8801   6.887   5.609  14.014 -0.0410  0.0061 -0.0130
  297ccc     C3 8802   7.104   5.568  13.998  0.0829 -0.2716 -0.3315
  297ccc     H5 8803   7.122   5.623  14.091 -3.0221  0.2013  0.1086
  297ccc     H6 8804   7.188   5.599  13.935  0.2794 -0.3557 -0.1088
  297ccc     N1 8805   7.088   5.422  14.022 -0.2930 -0.3105  0.9502
  297ccc     C4 8806   7.013   5.381  14.136 -0.8503 -0.1229 -0.1154
  297ccc     H7 8807   7.028   5.273  14.148 -0.0833 -0.1199 -0.9703
  297ccc     H8 8808   6.906   5.394  14.114 -1.1840  0.1134  1.4899
  297ccc     C5 8809   7.048   5.449  14.276 -0.0275  0.0564 -0.0016
  297ccc     H9 8810   7.154   5.432  14.297 -0.1457 -0.8138 -0.0777
  297ccc    H10 8811   7.041   5.558  14.269  1.8799  0.2791  0.8879
  297ccc     C6 8812   6.969   5.386  14.389 -0.7149  0.5034  0.0300
  297ccc     O1 8813   6.897   5.292  14.371 -0.0924  0.4124 -0.3342
  297ccc     O2 8814   6.989   5.436  14.512 -0.0707  0.9046  0.4250
  297ccc    H11 8815   7.073   5.485  14.509  1.5826 -1.7771 -0.0797
  297ccc     C7 8816   7.071   5.351  13.897 -0.0711  0.1973  0.0449
  297ccc    H12 8817   6.974   5.379  13.853  1.3726  2.2706 -2.0513
  297ccc    H13 8818   7.152   5.390  13.835  0.7870  0.3304  1.2133
  297ccc     C8 8819   7.080   5.197  13.904  0.1176 -0.2442  0.1007
  297ccc    H14 8820   7.151   5.167  13.981  0.7938 -0.8235 -0.7316
  297ccc    H15 8821   6.983   5.148  13.922 -0.8802 -0.0274 -3.6731
  297ccc     C9 8822   7.124   5.130  13.774  0.0382  0.2344 -0.6222
  297ccc     O3 8823   7.118   5.186  13.672 -0.0687 -0.3985  0.4696
  297ccc     O4 8824   7.166   5.007  13.788 -0.5145 -0.1140  0.2867
  297ccc    H16 8825   7.171   5.002  13.885  0.2741  2.2512  0.4487
  297ccc     O5 8826   6.994   5.839  14.060  1.0813  0.2837  0.4894
  298ccc     C1 8827   7.345   6.465  13.959 -0.5888 -0.4001 -0.7906
  298ccc     H1 8828   7.322   6.491  14.063 -0.0487  1.9055 -1.2112
  298ccc     H2 8829   7.392   6.367  13.974 -1.6107 -0.6841  0.9363
  298ccc     C2 8830   7.442   6.572  13.904 -0.3299  0.2896  0.3040
  298ccc     H3 8831   7.397   6.672  13.910  1.1457  1.2168 -2.4664
  298ccc     H4 8832   7.449   6.556  13.796 -0.8532  1.0117  0.1559
  298ccc     C3 8833   7.587   6.578  13.974 -0.1222 -0.0290  0.3726
  298ccc     H5 8834   7.637   6.481  13.971  0.9507  0.4408  2.0531
  298ccc     H6 8835   7.567   6.593  14.081 -2.2590  0.5798 -0.0567
  298ccc     N1 8836   7.666   6.690  13.918  0.1743 -0.2595 -0.3708
  298ccc     C4 8837   7.678   6.712  13.779  0.0092  0.2666 -0.1704
  298ccc     H7 8838   7.761   6.780  13.760  0.0551  0.4992  0.8150
  298ccc     H8 8839   7.587   6.757  13.737  0.4424  3.1069  1.6798
  298ccc     C5 8840   7.716   6.581  13.703 -0.4211  0.1615 -0.1929
  298ccc     H9 8841   7.807   6.539  13.747  0.3070  1.2347 -0.6167
  298ccc    H10 8842   7.636   6.506  13.706 -1.2618  1.0305 -0.3002
  298ccc     C6 8843   7.750   6.616  13.561  0.4392  0.1225 -0.1876
  298ccc     O1 8844   7.727   6.723  13.508  0.6143 -0.6126 -0.7114
  298ccc     O2 8845   7.820   6.522  13.504 -0.6219 -0.1530  0.2456
  298ccc    H11 8846   7.865   6.576  13.436  0.4175 -1.0512  0.1807
  298ccc     C7 8847   7.641   6.820  13.992 -0.1518 -0.3423  0.4063
  298ccc    H12 8848   7.553   6.868  13.949 -0.0471  1.5218  2.1080
  298ccc    H13 8849   7.617   6.802  14.098 -2.7808  0.9082  0.0965
  298ccc     C8 8850   7.760   6.919  13.980 -0.0553  0.1301  0.1202
  298ccc    H14 8851   7.849   6.860  14.007 -0.6274 -0.2846  1.1544
  298ccc    H15 8852   7.754   6.969  13.883 -2.7231 -2.1344 -1.0248
  298ccc     C9 8853   7.752   7.030  14.085  0.0575 -0.1547 -0.3220
  298ccc     O3 8854   7.655   7.037  14.158 -0.8356  0.1176 -0.4267
  298ccc     O4 8855   7.861   7.107  14.108  0.4779 -0.0820  0.1482
  298ccc    H16 8856   7.924   7.078  14.040 -0.0511  0.3731 -0.5488
  298ccc     O5 8857   7.220   6.453  13.883 -0.1213  0.4270  0.1289
  299ccc     C1 8858   8.307   6.880  12.993 -0.3891  0.3785 -0.8297
  299ccc     H1 8859   8.328   6.786  13.046 -0.3372  1.0314  0.3310
  299ccc     H2 8860   8.290   6.965  13.060  1.0686  2.2343 -2.6596
  299ccc     C2 8861   8.193   6.873  12.890  0.3128  0.2178 -0.5123
  299ccc     H3 8862   8.215   6.941  12.807  0.7729 -0.3737 -0.8864
  299ccc     H4 8863   8.108   6.925  12.935 -1.8317 -1.7140 -2.1208
  299ccc     C3 8864   8.151   6.728  12.848 -0.5448  0.0082 -0.1769
  299ccc     H5 8865   8.116   6.664  12.930 -1.7733  1.2774  0.3169
  299ccc     H6 8866   8.236   6.675  12.803  0.1703 -0.8129  2.0198
  299ccc     N1 8867   8.039   6.729  12.752 -0.0977  0.5458  0.4916
  299ccc     C4 8868   8.011   6.596  12.689 -0.4790 -0.1972 -0.1402
  299ccc     H7 8869   7.993   6.522  12.768  1.3741 -1.4801 -0.8613
  299ccc     H8 8870   8.108   6.563  12.649 -0.3500 -0.4231  0.3490
  299ccc     C5 8871   7.897   6.589  12.586 -0.2034 -0.3316 -0.2397
  299ccc     H9 8872   7.802   6.602  12.639  0.5006  1.5763  0.6291
  299ccc    H10 8873   7.916   6.672  12.516 -0.9738 -1.0858 -1.3737
  299ccc     C6 8874   7.903   6.450  12.517  0.2613 -0.3140  0.6839
  299ccc     O1 8875   7.979   6.429  12.425 -0.5940  0.1905 -0.5637
  299ccc     O2 8876   7.798   6.367  12.541  0.1634 -0.5088  0.1700
  299ccc    H11 8877   7.747   6.404  12.615  0.2370  2.3490 -1.0802
  299ccc     C7 8878   7.921   6.822  12.776 -0.4736 -0.1780  0.5532
  299ccc    H12 8879   7.963   6.923  12.771  0.6015 -0.6682 -1.6624
  299ccc    H13 8880   7.856   6.817  12.688 -1.6001  1.1850  1.2755
  299ccc     C8 8881   7.843   6.806  12.908 -0.0647 -0.0781  0.2011
  299ccc    H14 8882   7.800   6.705  12.905  1.7868 -0.8901 -1.7413
  299ccc    H15 8883   7.911   6.807  12.993 -0.1575  1.3526  0.2881
  299ccc     C9 8884   7.736   6.913  12.924 -0.3401  0.7006 -0.2455
  299ccc     O3 8885   7.633   6.921  12.865  0.5632  0.3022  0.7431
  299ccc     O4 8886   7.783   7.018  12.997  0.0882 -0.3565 -0.0261
  299ccc    H16 8887   7.709   7.075  13.024  1.6152  0.8401  1.9015
  299ccc     O5 8888   8.434   6.926  12.933 -0.2116  0.1981  0.2036
  300ccc     C1 8889   9.117   6.254  12.874  0.8050  0.3293  0.2277
  300ccc     H1 8890   9.133   6.154  12.831  3.1657  0.1884  1.2518
  300ccc     H2 8891   9.196   6.318  12.832  0.0629  0.6176 -0.7614
  300ccc     C2 8892   9.130   6.234  13.023 -0.5321 -0.0498  0.3916
  300ccc     H3 8893   9.047   6.176  13.064  0.5610 -1.9703  0.0432
  300ccc     H4 8894   9.112   6.333  13.067 -0.9934  0.8893 -1.7845
  300ccc     C3 8895   9.268   6.167  13.060  0.2210 -0.5861 -0.4938
  300ccc     H5 8896   9.352   6.221  13.013  0.3925 -2.4976 -2.5208
  300ccc     H6 8897   9.286   6.068  13.018  1.8790 -0.6902  0.3645
  300ccc     N1 8898   9.287   6.155  13.210 -0.4626 -0.2816  0.2363
  300ccc     C4 8899   9.206   6.045  13.273  0.1865  0.1424 -0.4914
  300ccc     H7 8900   9.100   6.072  13.259  0.3814  0.5962 -1.1111
  300ccc     H8 8901   9.215   6.029  13.381 -0.8927 -3.2270 -0.7637
  300ccc     C5 8902   9.236   5.908  13.211 -0.3011 -0.1297 -0.0290
  300ccc     H9 8903   9.175   5.904  13.120  0.7023  0.2488 -0.7371
  300ccc    H10 8904   9.344   5.919  13.194 -0.0793  1.2390  1.8433
  300ccc     C6 8905   9.203   5.788  13.297  0.2761 -0.2225 -0.3555
  300ccc     O1 8906   9.246   5.776  13.408 -0.0193 -0.0261  0.5971
  300ccc     O2 8907   9.162   5.684  13.221 -0.0110  0.4429 -0.7248
  300ccc    H11 8908   9.139   5.709  13.129 -2.6295 -1.0577 -0.5715
  300ccc     C7 8909   9.277   6.283  13.285 -1.0557  0.0576  0.3672
  300ccc    H12 8910   9.171   6.311  13.292 -1.1833  0.0556 -1.3329
  300ccc    H13 8911   9.311   6.266  13.388  1.2446  0.8737 -0.2147
  300ccc     C8 8912   9.369   6.399  13.228  0.2133 -1.2348 -0.2248
  300ccc    H14 8913   9.468   6.374  13.188  0.1873  0.2006 -1.2597
  300ccc    H15 8914   9.325   6.435  13.134 -0.6694 -0.6405  0.4038
  300ccc     C9 8915   9.371   6.521  13.325 -0.1987  0.3100 -0.3537
  300ccc     O3 8916   9.272   6.587  13.350 -0.2395  0.0264 -0.5989
  300ccc     O4 8917   9.488   6.551  13.386 -0.0139 -0.5809 -0.0847
  300ccc    H16 8918   9.546   6.480  13.353  1.2013  0.6858 -0.7902
  300ccc     O5 8919   8.982   6.303  12.839  0.1495  0.7621  0.3953
  301ccc     C1 8920   7.557   7.052  13.483 -0.1492 -0.0576  1.0166
  301ccc     H1 8921   7.483   7.109  13.426  3.0907  0.2251 -3.4058
  301ccc     H2 8922   7.608   6.983  13.414 -1.4449 -1.0794  1.0372
  301ccc     C2 8923   7.497   6.979  13.604 -0.2132 -0.4847  0.7967
  301ccc     H3 8924   7.575   6.930  13.663 -0.6017 -0.3197  1.4573
  301ccc     H4 8925   7.439   6.895  13.564 -0.2774 -0.5474  1.0215
  301ccc     C3 8926   7.421   7.074  13.696  0.3961 -0.6221  0.4890
  301ccc     H5 8927   7.355   7.137  13.636  0.7165 -0.7420  0.0024
  301ccc     H6 8928   7.497   7.138  13.742  1.9352 -0.6283 -1.8458
  301ccc     N1 8929   7.330   7.006  13.790 -0.0867 -0.6921 -0.3449
  301ccc     C4 8930   7.190   7.013  13.735 -0.1119 -0.1154 -0.0799
  301ccc     H7 8931   7.182   6.986  13.629 -2.3500 -0.7859  0.2045
  301ccc     H8 8932   7.145   7.113  13.731 -0.1192 -0.1517 -3.1589
  301ccc     C5 8933   7.086   6.921  13.805 -0.7660  0.3398 -1.0064
  301ccc     H9 8934   7.137   6.824  13.806  3.6624  2.2385  3.5425
  301ccc    H10 8935   7.074   6.953  13.909  0.4908 -1.9231 -0.0928
  301ccc     C6 8936   6.950   6.909  13.740 -0.5000 -0.2861  0.1849
  301ccc     O1 8937   6.879   7.007  13.717 -0.3866  0.1941  0.8683
  301ccc     O2 8938   6.919   6.797  13.675  0.1909 -0.2788 -0.0860
  301ccc    H11 8939   6.980   6.732  13.714 -0.3498  0.5758  2.3484
  301ccc     C7 8940   7.337   7.063  13.924 -0.4404  0.5117  0.1420
  301ccc    H12 8941   7.279   7.001  13.993  0.4046  0.0623  0.4610
  301ccc    H13 8942   7.439   7.047  13.961  0.3680  1.9661 -1.3479
  301ccc     C8 8943   7.290   7.211  13.936  0.8051  0.3533  0.2386
  301ccc    H14 8944   7.360   7.280  13.888 -1.4406  2.0030 -0.8717
  301ccc    H15 8945   7.188   7.222  13.897  1.0543  0.6913 -0.3156
  301ccc     C9 8946   7.289   7.256  14.079  0.1503 -0.7073  0.5246
  301ccc     O3 8947   7.211   7.217  14.159  0.0403 -0.1866 -0.0946
  301ccc     O4 8948   7.364   7.359  14.098  0.0773  0.2761 -0.4257
  301ccc    H16 8949   7.410   7.361  14.012  2.8254 -0.5105  0.9101
  301ccc     O5 8950   7.661   7.141  13.531  0.0474 -0.4000  0.0755
  302ccc     C1 8951   8.424   7.463  13.549  0.3236 -0.0099  0.6237
  302ccc     H1 8952   8.393   7.471  13.654 -0.5853  2.4077  0.2191
  302ccc     H2 8953   8.481   7.369  13.542  0.4396  0.2000 -2.7122
  302ccc     C2 8954   8.519   7.583  13.509 -0.4443 -0.1550 -0.2929
  302ccc     H3 8955   8.601   7.597  13.581 -0.6775 -2.9623  0.6637
  302ccc     H4 8956   8.455   7.672  13.511 -1.5780 -0.9538  1.4186
  302ccc     C3 8957   8.578   7.586  13.358  0.7009  0.2891  0.3112
  302ccc     H5 8958   8.622   7.684  13.337  2.2775 -0.5212 -0.3436
  302ccc     H6 8959   8.497   7.581  13.285  1.6629  0.6646 -0.7974
  302ccc     N1 8960   8.676   7.478  13.319  0.4202  0.6076  0.0294
  302ccc     C4 8961   8.790   7.443  13.407  0.6864 -0.3277 -0.4634
  302ccc     H7 8962   8.861   7.382  13.349  0.6317  0.1172 -1.0054
  302ccc     H8 8963   8.755   7.389  13.497  0.7099  0.5622  0.0889
  302ccc     C5 8964   8.853   7.589  13.442 -0.2748  0.1854 -0.1508
  302ccc     H9 8965   8.900   7.636  13.355 -2.1071  2.1937 -0.1422
  302ccc    H10 8966   8.784   7.667  13.477  0.6211  0.8349  0.2186
  302ccc     C6 8967   8.956   7.580  13.553 -0.4096 -0.8537  0.0408
  302ccc     O1 8968   8.929   7.588  13.670 -0.1228  0.0166 -0.1574
  302ccc     O2 8969   9.084   7.545  13.522 -0.7740 -0.5486 -0.1140
  302ccc    H11 8970   9.094   7.555  13.425 -2.7414 -0.4629 -0.3608
  302ccc     C7 8971   8.603   7.361  13.274  0.5297  0.2353  0.4909
  302ccc    H12 8972   8.559   7.304  13.357 -2.0992 -0.8367 -1.4831
  302ccc    H13 8973   8.516   7.383  13.212 -0.4532 -3.0164  0.5092
  302ccc     C8 8974   8.686   7.254  13.192  0.5669  0.4207  0.3878
  302ccc    H14 8975   8.754   7.297  13.118  1.4097  0.1775  0.9980
  302ccc    H15 8976   8.749   7.191  13.256 -0.9762 -0.4991  1.0666
  302ccc     C9 8977   8.607   7.151  13.123  0.6071  0.0766  0.3588
  302ccc     O3 8978   8.492   7.116  13.146  0.0400  0.1247 -0.1809
  302ccc     O4 8979   8.675   7.078  13.027 -0.3831 -0.1802 -0.2148
  302ccc    H16 8980   8.600   7.019  13.005 -1.5198 -0.6333  3.9829
  302ccc     O5 8981   8.316   7.454  13.456  0.6836 -0.1585 -0.4510
  303ccc     C1 8982   5.346   5.847  10.978 -0.2630  0.4617  0.3544
  303ccc     H1 8983   5.396   5.772  10.916 -2.7294  0.0026 -1.2270
  303ccc     H2 8984   5.379   5.838  11.082 -1.2483  2.2155  0.8695
  303ccc     C2 8985   5.190   5.829  10.978  0.6990  0.5237  0.5958
  303ccc     H3 8986   5.143   5.918  11.021 -1.3777  1.1483 -2.6782
  303ccc     H4 8987   5.159   5.741  11.036  0.0538 -0.9099 -1.7820
  303ccc     C3 8988   5.129   5.818  10.838  0.2487 -0.2440  0.3338
  303ccc     H5 8989   5.175   5.742  10.774  3.0818  1.3208  0.3522
  303ccc     H6 8990   5.157   5.904  10.777  3.3843 -2.5576 -1.8594
  303ccc     N1 8991   4.986   5.798  10.839  0.0416 -0.2413  0.0194
  303ccc     C4 8992   4.926   5.793  10.705  0.2168 -0.1126 -0.0121
  303ccc     H7 8993   4.975   5.873  10.649  0.1410 -0.0723 -0.0214
  303ccc     H8 8994   4.821   5.824  10.712  0.3083  0.0931  0.5040
  303ccc     C5 8995   4.943   5.658  10.624  0.5003 -1.1462  0.1835
  303ccc     H9 8996   5.049   5.628  10.632  0.3765 -1.7731 -0.3972
  303ccc    H10 8997   4.886   5.586  10.683  1.2111 -0.3236  1.9563
  303ccc     C6 8998   4.910   5.674  10.476 -0.3807 -0.1278 -0.0996
  303ccc     O1 8999   4.809   5.627  10.431  0.5480 -0.3890  0.6025
  303ccc     O2 9000   4.999   5.738  10.391  0.2569 -0.9229  0.3187
  303ccc    H11 9001   5.080   5.755  10.442  0.6967  1.1147 -0.9372
  303ccc     C7 9002   4.903   5.875  10.937 -0.9436  0.3182  0.0772
  303ccc    H12 9003   4.806   5.824  10.947 -1.6052  1.4285 -0.4023
  303ccc    H13 9004   4.935   5.854  11.039  1.7570  2.8640 -0.1125
  303ccc     C8 9005   4.870   6.023  10.912  0.3098  0.7321  0.0861
  303ccc    H14 9006   4.960   6.086  10.915  2.1241 -1.7198  1.5679
  303ccc    H15 9007   4.830   6.029  10.811 -1.7634 -1.0224  0.7311
  303ccc     C9 9008   4.757   6.071  11.005  0.4056  0.4522 -0.4153
  303ccc     O3 9009   4.715   6.017  11.105  0.0415 -0.3017 -0.5449
  303ccc     O4 9010   4.721   6.199  10.983  0.3855 -0.4818  0.4724
  303ccc    H16 9011   4.773   6.233  10.908  2.0327 -1.9948  0.8526
  303ccc     O5 9012   5.368   5.977  10.914 -0.2482  0.6920 -0.1819
  304ccc     C1 9013   5.843   5.708  11.496 -0.0316 -0.1701  0.2062
  304ccc     H1 9014   5.939   5.727  11.545  0.7022 -0.3498 -1.1065
  304ccc     H2 9015   5.779   5.675  11.579  1.1545  0.2752  1.3215
  304ccc     C2 9016   5.862   5.606  11.388  0.0217  0.5703 -0.2187
  304ccc     H3 9017   5.904   5.520  11.443 -2.1144  0.8081  1.9222
  304ccc     H4 9018   5.938   5.652  11.323 -0.7440 -0.5222 -1.9796
  304ccc     C3 9019   5.726   5.577  11.314  0.3962 -0.7021  0.1246
  304ccc     H5 9020   5.678   5.666  11.271  1.3783  0.5688  1.5427
  304ccc     H6 9021   5.648   5.533  11.378 -0.4329 -0.0376 -0.4133
  304ccc     N1 9022   5.757   5.485  11.209 -0.1001 -0.4782 -0.1644
  304ccc     C4 9023   5.769   5.345  11.256 -0.0604 -0.1933 -0.7187
  304ccc     H7 9024   5.676   5.294  11.228 -0.3288  0.4616 -1.0485
  304ccc     H8 9025   5.777   5.348  11.365  1.4778  3.2003 -0.7936
  304ccc     C5 9026   5.890   5.275  11.190 -0.1525  0.6322  0.6267
  304ccc     H9 9027   5.876   5.291  11.083 -0.0400  0.3353  0.5680
  304ccc    H10 9028   5.982   5.318  11.232 -0.8596  0.5293  2.3976
  304ccc     C6 9029   5.893   5.127  11.221  0.2202 -0.0831 -0.0473
  304ccc     O1 9030   5.820   5.040  11.164  0.1388 -0.4338 -0.3496
  304ccc     O2 9031   5.964   5.099  11.332 -0.0966  0.2450 -0.5969
  304ccc    H11 9032   5.988   5.180  11.381  0.2747  0.7100 -1.5200
  304ccc     C7 9033   5.688   5.488  11.079 -0.1952  0.1649  0.4977
  304ccc    H12 9034   5.742   5.418  11.014  0.4582  1.2057 -0.0959
  304ccc    H13 9035   5.583   5.456  11.084  0.5000 -2.2301  1.4215
  304ccc     C8 9036   5.682   5.626  11.015  0.4500 -0.4471 -0.8457
  304ccc    H14 9037   5.659   5.629  10.908 -0.6694  2.0014 -0.5798
  304ccc    H15 9038   5.602   5.683  11.062  1.3906 -1.2862  1.9884
  304ccc     C9 9039   5.814   5.705  11.048  0.7493 -0.0719  1.2039
  304ccc     O3 9040   5.809   5.813  11.105 -0.3109  0.3078 -0.0635
  304ccc     O4 9041   5.915   5.677  10.962 -0.0248  0.4160 -0.1823
  304ccc    H16 9042   5.899   5.588  10.928 -0.6122  1.3851 -2.6218
  304ccc     O5 9043   5.804   5.837  11.436  0.4125  0.0130 -0.0621
  305ccc     C1 9044   7.067   5.902  11.246  0.0415 -0.9380  0.0056
  305ccc     H1 9045   7.169   5.938  11.232 -0.5860  0.8205 -0.3587
  305ccc     H2 9046   7.029   5.919  11.347 -0.9002 -1.1039 -0.3096
  305ccc     C2 9047   7.079   5.750  11.230  0.4600 -0.6377  0.2548
  305ccc     H3 9048   7.130   5.731  11.135 -0.5602 -1.1714 -0.1962
  305ccc     H4 9049   6.984   5.696  11.221 -0.3444  0.6304  0.8940
  305ccc     C3 9050   7.160   5.682  11.336  0.0671 -0.2608  0.2238
  305ccc     H5 9051   7.107   5.692  11.431 -0.4690 -2.9431  0.2829
  305ccc     H6 9052   7.263   5.716  11.351  0.6279 -1.7707 -0.0473
  305ccc     N1 9053   7.183   5.536  11.313 -0.5419 -0.0164 -0.3695
  305ccc     C4 9054   7.220   5.492  11.176  0.4318  0.2361  0.3102
  305ccc     H7 9055   7.150   5.536  11.104  1.2782  0.0382 -0.6479
  305ccc     H8 9056   7.203   5.384  11.169  1.5236  0.0150  0.7294
  305ccc     C5 9057   7.363   5.535  11.127 -0.1214  0.9148 -0.2091
  305ccc     H9 9058   7.378   5.644  11.119  3.3185  0.7593  1.8296
  305ccc    H10 9059   7.438   5.502  11.200 -1.3560 -1.3425  0.1292
  305ccc     C6 9060   7.385   5.475  10.989  0.8532  0.0320  0.6830
  305ccc     O1 9061   7.308   5.463  10.898 -0.5604  0.0781  0.0476
  305ccc     O2 9062   7.510   5.446  10.968 -0.1113 -0.5424 -0.1841
  305ccc    H11 9063   7.518   5.420  10.875  0.2279  1.0694 -0.6419
  305ccc     C7 9064   7.278   5.481  11.416  0.2248  0.4620 -0.8805
  305ccc    H12 9065   7.305   5.376  11.395 -2.2084 -0.5112  0.3712
  305ccc    H13 9066   7.370   5.540  11.421 -1.0114  2.4755  3.9957
  305ccc     C8 9067   7.210   5.483  11.553 -0.1581  0.6882  0.6213
  305ccc    H14 9068   7.179   5.585  11.578 -0.7096  0.3096  1.5530
  305ccc    H15 9069   7.124   5.414  11.560  2.1040 -2.2013  2.5940
  305ccc     C9 9070   7.289   5.427  11.666  0.2843  0.3197  0.3756
  305ccc     O3 9071   7.400   5.381  11.652  0.0021  0.0373  0.3158
  305ccc     O4 9072   7.226   5.403  11.782 -0.0147 -0.2739 -0.3691
  305ccc    H16 9073   7.138   5.443  11.768  0.1377 -0.0914 -0.8123
  305ccc     O5 9074   6.974   5.963  11.144 -0.2378  0.3650  0.3501
  306ccc     C1 9075   6.383   5.918  10.967 -0.2352  0.2646 -0.9597
  306ccc     H1 9076   6.442   5.845  10.910 -1.9459 -1.7940 -0.2662
  306ccc     H2 9077   6.443   5.935  11.057 -0.8422 -1.3961 -0.1864
  306ccc     C2 9078   6.250   5.854  11.007  0.7241 -0.3551 -0.0516
  306ccc     H3 9079   6.188   5.873  10.919 -0.7559 -1.3289  0.7518
  306ccc     H4 9080   6.212   5.925  11.082 -0.6333 -1.4632  0.3477
  306ccc     C3 9081   6.258   5.719  11.063  0.3549 -0.0318  0.0824
  306ccc     H5 9082   6.154   5.685  11.073 -0.2745  1.7459 -0.0336
  306ccc     H6 9083   6.296   5.731  11.165  0.1006  2.1782 -0.0318
  306ccc     N1 9084   6.344   5.636  10.978  0.1053  0.3020  0.1073
  306ccc     C4 9085   6.404   5.519  11.037 -0.1317 -0.5585  0.4649
  306ccc     H7 9086   6.429   5.540  11.142 -1.4823 -0.6177  0.8251
  306ccc     H8 9087   6.485   5.476  10.977 -0.6241 -0.8198 -0.0224
  306ccc     C5 9088   6.292   5.412  11.059  0.1721 -0.2982 -0.0252
  306ccc     H9 9089   6.199   5.455  11.099  1.5512  1.9288  1.0199
  306ccc    H10 9090   6.265   5.376  10.959  1.8805 -0.7797 -0.3427
  306ccc     C6 9091   6.339   5.295  11.145 -0.1792 -0.4776 -0.0345
  306ccc     O1 9092   6.410   5.211  11.098 -0.3806 -0.1439  0.1887
  306ccc     O2 9093   6.280   5.290  11.266  0.2248  0.9531  0.4135
  306ccc    H11 9094   6.240   5.377  11.285 -0.5991  0.5791  0.4274
  306ccc     C7 9095   6.295   5.610  10.838  0.0150  0.0762 -0.7392
  306ccc    H12 9096   6.207   5.545  10.842 -0.4904  0.7934  0.6533
  306ccc    H13 9097   6.267   5.704  10.789 -2.3447 -0.0183  0.3120
  306ccc     C8 9098   6.403   5.547  10.742  0.0196 -0.5130 -0.1959
  306ccc    H14 9099   6.451   5.458  10.782 -0.7216 -1.5837 -1.5797
  306ccc    H15 9100   6.353   5.505  10.654 -0.3482  0.0430 -0.2573
  306ccc     C9 9101   6.506   5.656  10.712  0.0154  1.2740 -0.0937
  306ccc     O3 9102   6.621   5.648  10.751  0.5443  0.0981 -0.1951
  306ccc     O4 9103   6.489   5.729  10.596 -0.1396 -0.2509 -0.3496
  306ccc    H16 9104   6.407   5.686  10.566  0.3704  0.0605 -2.3287
  306ccc     O5 9105   6.347   6.036  10.884  0.1048  0.5444  0.1515
  307ccc     C1 9106   5.899   7.538  12.648 -0.1534  0.4301 -0.1482
  307ccc     H1 9107   5.975   7.538  12.569  1.5631  1.0174  1.4274
  307ccc     H2 9108   5.872   7.435  12.676 -0.3188  0.5718  0.2180
  307ccc     C2 9109   5.775   7.619  12.621 -0.0757 -0.7670  0.4423
  307ccc     H3 9110   5.729   7.574  12.532 -1.3028 -1.3134  1.3297
  307ccc     H4 9111   5.805   7.723  12.600  0.0280 -0.8241  0.3067
  307ccc     C3 9112   5.673   7.611  12.739  0.2819  0.3703  0.0495
  307ccc     H5 9113   5.727   7.636  12.832  1.2230 -3.0184  0.5598
  307ccc     H6 9114   5.645   7.506  12.755  0.9254  0.1828 -0.0336
  307ccc     N1 9115   5.552   7.688  12.716 -0.5999  0.0190 -0.5966
  307ccc     C4 9116   5.472   7.647  12.599 -0.6336  0.4847 -0.2797
  307ccc     H7 9117   5.533   7.668  12.510  1.8987  0.1306  1.2602
  307ccc     H8 9118   5.378   7.704  12.598 -0.6785  0.4363  0.5742
  307ccc     C5 9119   5.435   7.499  12.606 -0.2583 -0.0589  0.0106
  307ccc     H9 9120   5.516   7.434  12.570  0.2587 -0.5543  1.9864
  307ccc    H10 9121   5.413   7.466  12.708  2.3109 -2.6637 -0.1482
  307ccc     C6 9122   5.329   7.465  12.506  0.4300  0.1333 -0.3364
  307ccc     O1 9123   5.254   7.550  12.465 -0.3078 -1.1574 -0.8355
  307ccc     O2 9124   5.336   7.341  12.458 -0.3449 -0.6228 -0.2011
  307ccc    H11 9125   5.395   7.295  12.521 -1.5254 -1.8290  0.0778
  307ccc     C7 9126   5.467   7.695  12.835  0.5482 -0.6088 -0.7951
  307ccc    H12 9127   5.367   7.736  12.816  1.4036  0.3092 -4.0088
  307ccc    H13 9128   5.455   7.597  12.882  1.9807  0.1113  1.2140
  307ccc     C8 9129   5.524   7.789  12.951  0.5312 -0.2371 -0.3555
  307ccc    H14 9130   5.584   7.726  13.018  0.3193  0.5123  0.5554
  307ccc    H15 9131   5.581   7.875  12.915 -0.0517 -0.5101 -1.9826
  307ccc     C9 9132   5.415   7.843  13.046  0.3712  0.7997  0.5476
  307ccc     O3 9133   5.297   7.835  13.020  1.1795 -0.3263  0.6084
  307ccc     O4 9134   5.459   7.929  13.137 -0.2837 -0.4572 -0.4724
  307ccc    H16 9135   5.551   7.900  13.145  0.3062  1.0733 -1.3156
  307ccc     O5 9136   5.961   7.605  12.764  0.0120 -0.4218 -0.2862
  308ccc     C1 9137   6.585   8.023  12.816 -0.3634  0.6220  0.4222
  308ccc     H1 9138   6.572   8.069  12.915 -0.9649  0.3107  0.4907
  308ccc     H2 9139   6.692   8.020  12.790 -0.6583 -0.6031 -0.7700
  308ccc     C2 9140   6.509   8.111  12.711 -0.1934  0.1171  0.1870
  308ccc     H3 9141   6.531   8.217  12.723  0.1498  0.2912 -1.6272
  308ccc     H4 9142   6.404   8.081  12.706 -0.3993  0.9099 -0.3575
  308ccc     C3 9143   6.567   8.089  12.577 -0.6286 -0.2567 -0.4735
  308ccc     H5 9144   6.553   7.984  12.548 -1.6654 -0.2532 -0.0380
  308ccc     H6 9145   6.672   8.116  12.590 -0.8000  0.0613  0.3723
  308ccc     N1 9146   6.510   8.172  12.464  0.1558  0.5737  0.2441
  308ccc     C4 9147   6.585   8.287  12.416 -0.0698 -0.0746  0.1373
  308ccc     H7 9148   6.645   8.343  12.490  0.9686  3.9887 -3.3568
  308ccc     H8 9149   6.510   8.355  12.374  1.9297  2.3583  0.2238
  308ccc     C5 9150   6.685   8.257  12.302  0.7573 -0.5446 -0.5110
  308ccc     H9 9151   6.774   8.207  12.341  1.4792  0.5655 -0.6849
  308ccc    H10 9152   6.644   8.188  12.228 -2.2419 -0.0243  0.5097
  308ccc     C6 9153   6.726   8.390  12.240  0.5314 -0.6294  0.3512
  308ccc     O1 9154   6.706   8.498  12.296  0.1014 -0.0803 -0.0846
  308ccc     O2 9155   6.813   8.382  12.135 -0.0597  0.0336 -0.1296
  308ccc    H11 9156   6.847   8.473  12.144 -1.3599  0.5314 -0.1195
  308ccc     C7 9157   6.371   8.156  12.428 -0.1464 -0.5287  0.4235
  308ccc    H12 9158   6.331   8.066  12.476 -2.0762  0.3581  0.5723
  308ccc    H13 9159   6.306   8.240  12.456  0.7843  0.5002 -0.3717
  308ccc     C8 9160   6.350   8.168  12.275  0.4149  0.7611  0.5137
  308ccc    H14 9161   6.363   8.274  12.249  1.7158  1.3104  3.1064
  308ccc    H15 9162   6.421   8.102  12.223  0.5516  2.3854 -1.4788
  308ccc     C9 9163   6.209   8.124  12.241  0.9610  0.1849  0.8752
  308ccc     O3 9164   6.135   8.058  12.312  0.0378  0.4779 -0.3515
  308ccc     O4 9165   6.163   8.179  12.130  0.4344  0.0877  0.5400
  308ccc    H16 9166   6.243   8.208  12.084  0.5161 -3.5927 -2.0315
  308ccc     O5 9167   6.526   7.886  12.828  0.1137 -0.5668  0.1482
  309ccc     C1 9168   5.349   7.018  11.939  0.1094  0.3323 -0.0570
  309ccc     H1 9169   5.247   7.001  11.976 -0.2410 -0.4100 -1.2927
  309ccc     H2 9170   5.328   6.994  11.834 -2.3447  0.8698  0.2454
  309ccc     C2 9171   5.445   6.915  12.006  0.6076  0.3056 -0.4143
  309ccc     H3 9172   5.430   6.907  12.114  0.9688 -0.3881 -0.4110
  309ccc     H4 9173   5.552   6.940  12.001  0.9128 -1.1302 -2.0156
  309ccc     C3 9174   5.436   6.771  11.954  0.8342  0.1304 -0.0270
  309ccc     H5 9175   5.334   6.735  11.974  0.6029  0.4008 -0.6996
  309ccc     H6 9176   5.508   6.717  12.017  1.2557  1.0996  0.3427
  309ccc     N1 9177   5.464   6.751  11.808 -0.1663 -0.4703  0.3116
  309ccc     C4 9178   5.439   6.611  11.767 -0.2705 -0.6202  0.5116
  309ccc     H7 9179   5.497   6.539  11.826 -1.2308 -3.2850 -1.5983
  309ccc     H8 9180   5.481   6.591  11.668  0.4246 -0.6277  0.8003
  309ccc     C5 9181   5.292   6.565  11.763  0.6456 -0.9168 -0.2934
  309ccc     H9 9182   5.255   6.551  11.865  1.0367 -0.6680 -0.1126
  309ccc    H10 9183   5.231   6.647  11.722  0.1684 -1.0395  0.1586
  309ccc     C6 9184   5.278   6.434  11.689  0.6356  0.6908  0.1007
  309ccc     O1 9185   5.361   6.350  11.664 -0.2258  0.0156 -0.0981
  309ccc     O2 9186   5.152   6.411  11.648  0.1015 -0.6491 -0.0892
  309ccc    H11 9187   5.100   6.490  11.671 -0.3094 -1.0752  0.4825
  309ccc     C7 9188   5.601   6.808  11.767 -0.1020 -0.0334  0.5053
  309ccc    H12 9189   5.626   6.901  11.820  0.6652  1.2763 -2.0256
  309ccc    H13 9190   5.684   6.736  11.774  0.5380  0.6262 -0.1959
  309ccc     C8 9191   5.592   6.851  11.617 -0.0420  0.2559 -0.7898
  309ccc    H14 9192   5.686   6.900  11.589  0.2501 -0.6828 -1.5276
  309ccc    H15 9193   5.571   6.770  11.545  0.1431 -0.9430  0.4547
  309ccc     C9 9194   5.477   6.951  11.598  0.1810  0.5296  0.1596
  309ccc     O3 9195   5.366   6.914  11.563 -0.1670 -0.2489 -0.1590
  309ccc     O4 9196   5.519   7.080  11.620 -0.3262 -0.2886 -0.8301
  309ccc    H16 9197   5.602   7.058  11.666 -1.2283 -2.4641 -0.1110
  309ccc     O5 9198   5.391   7.153  11.955  0.2574 -0.3807 -0.2616
  310ccc     C1 9199   5.682   7.919  11.763 -0.0270 -0.3657 -0.7781
  310ccc     H1 9200   5.660   8.016  11.717 -0.7057 -0.3685 -0.4771
  310ccc     H2 9201   5.775   7.938  11.819  0.1071 -2.1085 -0.3544
  310ccc     C2 9202   5.700   7.818  11.654  0.1846  0.6085  1.0375
  310ccc     H3 9203   5.620   7.825  11.579  2.5186  0.4099 -1.6464
  310ccc     H4 9204   5.685   7.717  11.694 -1.3583  0.7665  0.9212
  310ccc     C3 9205   5.837   7.847  11.584  0.9615  0.1958  0.0364
  310ccc     H5 9206   5.911   7.891  11.652 -0.2611 -0.5235  1.9169
  310ccc     H6 9207   5.838   7.930  11.512 -0.7406  0.8380  0.7084
  310ccc     N1 9208   5.887   7.721  11.532  0.4827  0.0983 -0.2055
  310ccc     C4 9209   5.802   7.669  11.429 -0.8018 -0.3824 -0.0931
  310ccc     H7 9210   5.810   7.734  11.341 -0.1343 -0.1622  0.1186
  310ccc     H8 9211   5.700   7.660  11.466 -0.0002 -0.0843  2.3483
  310ccc     C5 9212   5.844   7.524  11.387  0.1378  0.1634  0.9384
  310ccc     H9 9213   5.784   7.498  11.299  0.2632  1.8738  0.3192
  310ccc    H10 9214   5.947   7.521  11.352  0.0480  1.6803  0.4865
  310ccc     C6 9215   5.817   7.436  11.509  0.1579 -0.5569  0.1579
  310ccc     O1 9216   5.705   7.418  11.559 -0.1232 -0.4073  0.3580
  310ccc     O2 9217   5.911   7.342  11.532  0.2485  0.1275  0.1439
  310ccc    H11 9218   5.988   7.373  11.482  0.3047  0.6985  0.5819
  310ccc     C7 9219   6.031   7.731  11.512 -0.2404 -0.6787 -0.6959
  310ccc    H12 9220   6.067   7.768  11.608 -3.8293 -0.3612  0.6660
  310ccc    H13 9221   6.080   7.633  11.496 -0.7606 -0.7824 -1.7379
  310ccc     C8 9222   6.080   7.829  11.402  0.8143  0.1979 -0.4256
  310ccc    H14 9223   6.020   7.802  11.314 -2.7944  1.1530  1.5457
  310ccc    H15 9224   6.040   7.924  11.439  0.6866  0.3892 -1.0446
  310ccc     C9 9225   6.233   7.851  11.391  0.2435  0.0932 -0.4857
  310ccc     O3 9226   6.308   7.794  11.469  0.1585 -0.0251  0.0014
  310ccc     O4 9227   6.275   7.921  11.290  0.7813 -0.4543  0.4000
  310ccc    H16 9228   6.194   7.951  11.246  1.1222 -0.1701 -0.0420
  310ccc     O5 9229   5.577   7.883  11.858 -0.8485 -0.3255  0.0936
  311ccc     C1 9230   5.288   5.605  13.348  0.2712  0.1780 -0.0283
  311ccc     H1 9231   5.367   5.547  13.300 -1.8422 -1.2858 -1.9666
  311ccc     H2 9232   5.307   5.711  13.325  0.3576  0.2355  0.3143
  311ccc     C2 9233   5.274   5.583  13.497 -0.0735 -1.1803 -1.0628
  311ccc     H3 9234   5.288   5.476  13.518  0.2476 -0.5752  2.6248
  311ccc     H4 9235   5.169   5.603  13.520 -0.0887 -1.8317 -0.5316
  311ccc     C3 9236   5.367   5.669  13.584 -0.0666  0.3218 -0.1537
  311ccc     H5 9237   5.356   5.775  13.558  0.4708  0.2862 -0.5534
  311ccc     H6 9238   5.471   5.647  13.556 -0.2744 -0.2191 -0.5247
  311ccc     N1 9239   5.350   5.631  13.725  0.0172 -0.1552  0.0185
  311ccc     C4 9240   5.391   5.494  13.770 -1.1291 -0.1154 -0.2820
  311ccc     H7 9241   5.336   5.411  13.724  1.0387 -2.1699  0.6748
  311ccc     H8 9242   5.368   5.481  13.876  2.7800 -0.8115  0.6275
  311ccc     C5 9243   5.542   5.479  13.752 -0.2367  0.7726  0.7223
  311ccc     H9 9244   5.558   5.470  13.644 -2.2579  0.6625  0.3933
  311ccc    H10 9245   5.606   5.556  13.797  2.1196 -0.9745  0.5058
  311ccc     C6 9246   5.597   5.344  13.809 -0.2919 -0.2400 -0.8801
  311ccc     O1 9247   5.556   5.302  13.913  0.5403 -0.1770 -0.3800
  311ccc     O2 9248   5.702   5.290  13.748 -0.1430 -0.2408  0.1237
  311ccc    H11 9249   5.732   5.219  13.808 -1.8474 -0.2297  1.0418
  311ccc     C7 9250   5.223   5.676  13.790 -0.0883  0.0638  1.1862
  311ccc    H12 9251   5.132   5.632  13.747 -0.6916  4.1733 -2.5427
  311ccc    H13 9252   5.221   5.661  13.898  1.0614  1.3443  1.4097
  311ccc     C8 9253   5.202   5.829  13.773  0.0530  0.0790 -0.2423
  311ccc    H14 9254   5.287   5.890  13.805 -0.1588 -0.6699  1.8821
  311ccc    H15 9255   5.176   5.853  13.669 -1.3373 -2.3062 -0.5272
  311ccc     C9 9256   5.090   5.873  13.862 -0.4347  0.4871 -0.5224
  311ccc     O3 9257   4.980   5.824  13.856  0.0226 -0.2985 -0.2837
  311ccc     O4 9258   5.125   5.954  13.966  0.1071 -0.6983 -0.6414
  311ccc    H16 9259   5.221   5.969  13.961 -0.0925  0.3481 -1.8916
  311ccc     O5 9260   5.162   5.573  13.281  0.4808  0.5147 -0.7533
  312ccc     C1 9261   4.944   4.675  13.074 -0.2878  0.4178  0.1692
  312ccc     H1 9262   4.937   4.612  13.164 -1.5173 -1.2276 -1.0171
  312ccc     H2 9263   4.849   4.659  13.022 -0.7565  0.2390  1.0485
  312ccc     C2 9264   5.058   4.627  12.987 -0.4476  1.0327  0.5111
  312ccc     H3 9265   5.041   4.519  12.978  2.8999  0.2163  2.1974
  312ccc     H4 9266   5.157   4.645  13.030  1.1256 -2.2475 -1.3366
  312ccc     C3 9267   5.054   4.690  12.851 -0.2824  0.6031  1.1079
  312ccc     H5 9268   5.088   4.794  12.859 -3.1153  1.4969  3.9432
  312ccc     H6 9269   4.947   4.704  12.829 -0.1007  1.5090  0.7675
  312ccc     N1 9270   5.127   4.613  12.747  0.0677 -0.1219 -0.5867
  312ccc     C4 9271   5.080   4.639  12.612 -0.0973  0.1019  0.2601
  312ccc     H7 9272   4.970   4.637  12.608 -0.3199  3.7276  1.3129
  312ccc     H8 9273   5.106   4.550  12.552 -1.0884 -0.4840  0.6650
  312ccc     C5 9274   5.120   4.773  12.551  0.7081  0.1507 -0.3394
  312ccc     H9 9275   5.114   4.845  12.633  2.1820 -0.0081 -0.0660
  312ccc    H10 9276   5.224   4.784  12.516  0.2858  2.0619 -1.1569
  312ccc     C6 9277   5.023   4.818  12.440  0.3776 -0.3588  0.3131
  312ccc     O1 9278   4.951   4.741  12.371 -0.3002 -0.1843  0.2169
  312ccc     O2 9279   5.016   4.952  12.414  0.0190 -0.3196 -0.2168
  312ccc    H11 9280   5.085   4.987  12.473  1.2774 -2.9211  0.0071
  312ccc     C7 9281   5.277   4.610  12.764  0.2333 -0.1333  0.2477
  312ccc    H12 9282   5.308   4.712  12.789 -2.2118  0.4184  1.3241
  312ccc    H13 9283   5.298   4.553  12.856 -0.8546  0.9646  1.2027
  312ccc     C8 9284   5.359   4.533  12.661 -0.6661  0.1231  0.3322
  312ccc    H14 9285   5.337   4.568  12.559 -1.8204 -3.2919 -0.7217
  312ccc    H15 9286   5.341   4.425  12.652 -1.8420  0.4265 -1.8078
  312ccc     C9 9287   5.513   4.552  12.668 -0.1196  0.2077  0.5284
  312ccc     O3 9288   5.577   4.597  12.761  0.4810  0.1011 -0.2580
  312ccc     O4 9289   5.573   4.530  12.548  0.3146 -0.2117 -0.0885
  312ccc    H16 9290   5.505   4.495  12.488 -1.2616 -0.5088  1.7720
  312ccc     O5 9291   4.967   4.815  13.105  0.2668  0.0628  0.1845
  313ccc     C1 9292   4.472   5.680  11.905 -0.2423 -0.2547  0.4225
  313ccc     H1 9293   4.391   5.730  11.851  1.1077  1.4133 -0.1777
  313ccc     H2 9294   4.559   5.684  11.838 -0.2291  0.3867  0.4708
  313ccc     C2 9295   4.438   5.533  11.927 -0.1026  0.2431  0.4765
  313ccc     H3 9296   4.381   5.520  12.019  0.8378 -0.0437  1.0324
  313ccc     H4 9297   4.539   5.490  11.936 -0.1972  0.3471  2.3749
  313ccc     C3 9298   4.357   5.474  11.811  0.2081  0.9613 -0.2615
  313ccc     H5 9299   4.405   5.478  11.712  1.2187 -1.1476  0.0798
  313ccc     H6 9300   4.271   5.541  11.800  0.5463  2.4301  4.1267
  313ccc     N1 9301   4.316   5.328  11.845 -0.2439 -0.7148  0.4977
  313ccc     C4 9302   4.440   5.239  11.831  0.4927 -0.6503  0.2778
  313ccc     H7 9303   4.526   5.271  11.891  2.0981 -0.6681 -1.8912
  313ccc     H8 9304   4.474   5.238  11.726 -3.6069  1.3628 -1.2803
  313ccc     C5 9305   4.428   5.096  11.871  0.0808  0.2826 -0.2693
  313ccc     H9 9306   4.378   5.099  11.969 -1.2778  3.1245 -0.9414
  313ccc    H10 9307   4.365   5.041  11.800  0.8003 -2.6042  1.1783
  313ccc     C6 9308   4.562   5.023  11.864  0.4583 -0.7184  0.3465
  313ccc     O1 9309   4.652   5.051  11.793  0.3187  0.0180  0.2790
  313ccc     O2 9310   4.568   4.938  11.962  0.0493  0.1027 -0.1488
  313ccc    H11 9311   4.486   4.935  12.014 -0.0843  0.6186 -0.3272
  313ccc     C7 9312   4.203   5.279  11.766 -0.4980  0.1537  0.8236
  313ccc    H12 9313   4.172   5.175  11.783 -0.6645 -0.0706 -0.6915
  313ccc    H13 9314   4.116   5.344  11.783 -0.2213  0.8265 -0.2215
  313ccc     C8 9315   4.214   5.309  11.612 -0.1871 -0.1370  0.1640
  313ccc    H14 9316   4.198   5.416  11.593  2.7324  0.4335  0.4345
  313ccc    H15 9317   4.311   5.285  11.568 -0.3936  0.8025 -0.8344
  313ccc     C9 9318   4.107   5.232  11.546 -0.6447 -0.0936  0.1992
  313ccc     O3 9319   4.017   5.170  11.590  0.0634  0.1945 -0.3984
  313ccc     O4 9320   4.136   5.224  11.409  0.4517  0.5629  0.5703
  313ccc    H16 9321   4.209   5.285  11.387 -1.8538  2.6378 -2.1423
  313ccc     O5 9322   4.499   5.744  12.031 -0.0027  0.4899 -0.3650
  314ccc     C1 9323   4.944   6.522  12.197 -0.2309  0.0306  0.0914
  314ccc     H1 9324   4.923   6.534  12.090  0.7516  1.4719  0.0321
  314ccc     H2 9325   4.938   6.624  12.238 -4.4711 -0.4765  1.2706
  314ccc     C2 9326   5.089   6.465  12.211 -0.4033  0.2626  0.3575
  314ccc     H3 9327   5.111   6.451  12.317 -2.0696 -0.5579  0.6362
  314ccc     H4 9328   5.159   6.543  12.179 -0.1529  0.0793  0.4604
  314ccc     C3 9329   5.115   6.337  12.129 -0.4300  0.3467  0.2904
  314ccc     H5 9330   5.107   6.358  12.021  0.0588  0.6662  0.3119
  314ccc     H6 9331   5.034   6.266  12.151 -1.7331  1.3689 -0.9588
  314ccc     N1 9332   5.251   6.281  12.154 -0.6986  0.1675 -0.0885
  314ccc     C4 9333   5.292   6.171  12.070 -1.0450 -0.3772  0.2607
  314ccc     H7 9334   5.228   6.085  12.091  0.9281 -1.6458  1.4343
  314ccc     H8 9335   5.390   6.135  12.105 -0.7400  0.6821  0.5451
  314ccc     C5 9336   5.310   6.192  11.915 -0.0395 -0.4112  0.2737
  314ccc     H9 9337   5.214   6.233  11.881 -0.6336 -0.7965  1.4318
  314ccc    H10 9338   5.382   6.274  11.905  0.7552 -1.2325 -1.0566
  314ccc     C6 9339   5.357   6.066  11.833  0.2470  0.1696 -0.0931
  314ccc     O1 9340   5.363   5.955  11.882  0.6500  0.1670 -0.8393
  314ccc     O2 9341   5.363   6.080  11.698  0.3286 -0.1512  0.0762
  314ccc    H11 9342   5.336   6.171  11.679 -2.3517 -0.3857  2.0932
  314ccc     C7 9343   5.294   6.260  12.294 -0.2506  0.0254  0.4431
  314ccc    H12 9344   5.398   6.226  12.300 -0.9349 -2.4257 -0.3459
  314ccc    H13 9345   5.292   6.354  12.351  1.3306 -0.7275  1.8416
  314ccc     C8 9346   5.207   6.161  12.373  0.0395 -0.5048  0.4956
  314ccc    H14 9347   5.098   6.176  12.368  0.2689  1.6802  1.2225
  314ccc    H15 9348   5.223   6.061  12.329  1.5274 -0.3542  0.6569
  314ccc     C9 9349   5.232   6.160  12.521  0.1844 -0.1613  0.3688
  314ccc     O3 9350   5.331   6.108  12.569  0.0332  0.1031  0.2005
  314ccc     O4 9351   5.186   6.282  12.576 -0.2177 -0.3666  0.0637
  314ccc    H16 9352   5.094   6.297  12.546 -0.2825  0.5651  0.7014
  314ccc     O5 9353   4.856   6.423  12.245 -0.2482 -0.3191 -0.5389
  315ccc     C1 9354   6.693   6.600  13.854 -0.4850  0.2625 -0.2775
  315ccc     H1 9355   6.723   6.509  13.908  0.3910  0.7654  0.1113
  315ccc     H2 9356   6.791   6.624  13.811  0.7260  0.3785  2.3442
  315ccc     C2 9357   6.663   6.722  13.949  0.5002 -0.2275 -0.6985
  315ccc     H3 9358   6.561   6.716  13.990  0.9386 -0.4359  0.4005
  315ccc     H4 9359   6.669   6.808  13.881  0.4187 -1.2473 -2.0256
  315ccc     C3 9360   6.760   6.724  14.073 -0.4514 -0.1457 -0.3685
  315ccc     H5 9361   6.864   6.718  14.038  0.1104  0.9572  1.0142
  315ccc     H6 9362   6.746   6.634  14.134 -0.6534  1.7436  2.5551
  315ccc     N1 9363   6.759   6.846  14.157  0.1869 -0.0624  0.0333
  315ccc     C4 9364   6.662   6.862  14.260 -0.0432  0.4285 -0.2738
  315ccc     H7 9365   6.571   6.904  14.216 -0.3600 -0.3503 -0.3623
  315ccc     H8 9366   6.692   6.934  14.338 -3.0169  0.0702  1.3133
  315ccc     C5 9367   6.625   6.741  14.344 -0.0907  0.1238  0.0337
  315ccc     H9 9368   6.575   6.667  14.281  1.3998  0.6542 -1.8547
  315ccc    H10 9369   6.714   6.692  14.385 -0.4920 -0.0054  0.7752
  315ccc     C6 9370   6.531   6.786  14.455  0.3214 -0.3404  0.2154
  315ccc     O1 9371   6.569   6.840  14.557 -0.0936  0.5478  0.2044
  315ccc     O2 9372   6.413   6.726  14.451  0.4529  0.0167  0.0146
  315ccc    H11 9373   6.357   6.777  14.512 -0.7898 -2.1921  0.8380
  315ccc     C7 9374   6.780   6.969  14.078 -0.0400 -0.5941  0.4394
  315ccc    H12 9375   6.849   6.944  13.996  0.9599 -1.0814  1.3975
  315ccc    H13 9376   6.686   7.008  14.037  1.8606 -0.1107 -4.1076
  315ccc     C8 9377   6.839   7.095  14.156  0.1611  0.0283  0.2220
  315ccc    H14 9378   6.765   7.126  14.230  0.2320  0.0945  0.2652
  315ccc    H15 9379   6.931   7.071  14.211  1.2512  1.9298 -0.6819
  315ccc     C9 9380   6.870   7.217  14.067 -0.2642 -0.2025  0.2989
  315ccc     O3 9381   6.897   7.208  13.951 -0.1726  0.0346  0.4145
  315ccc     O4 9382   6.835   7.331  14.126  0.1176 -0.1067  0.1735
  315ccc    H16 9383   6.793   7.308  14.211 -0.6913 -1.3796 -0.5292
  315ccc     O5 9384   6.585   6.561  13.767 -0.8807 -0.4722  0.1391
  316ccc     C1 9385   5.907   6.864  13.008  0.1587 -0.4212 -0.2355
  316ccc     H1 9386   5.996   6.806  12.979 -0.1080 -1.7521  1.5029
  316ccc     H2 9387   5.850   6.790  13.065  2.8571  0.7156  4.3850
  316ccc     C2 9388   5.829   6.905  12.881 -0.5698 -0.4789 -0.5938
  316ccc     H3 9389   5.879   6.990  12.833  1.2465 -0.3313  1.4119
  316ccc     H4 9390   5.728   6.932  12.913 -0.5450 -0.0661 -0.8523
  316ccc     C3 9391   5.815   6.786  12.788 -0.4486 -0.5901 -0.1314
  316ccc     H5 9392   5.748   6.724  12.849  1.5326 -1.6597  1.0665
  316ccc     H6 9393   5.910   6.733  12.777 -0.4216 -0.2391 -1.8242
  316ccc     N1 9394   5.765   6.826  12.646  0.2205 -0.3181 -0.2772
  316ccc     C4 9395   5.642   6.914  12.643 -0.0607 -0.5336  0.1055
  316ccc     H7 9396   5.645   6.998  12.714 -1.0324 -0.1960 -0.2305
  316ccc     H8 9397   5.560   6.853  12.684  0.6534 -0.8080  1.1722
  316ccc     C5 9398   5.600   6.955  12.498 -0.3188 -0.2663 -0.2480
  316ccc     H9 9399   5.682   7.011  12.451 -0.8611  1.3785  0.6909
  316ccc    H10 9400   5.569   6.870  12.436  2.6435  0.3353 -2.8145
  316ccc     C6 9401   5.496   7.067  12.490 -0.3047  0.3684 -0.3386
  316ccc     O1 9402   5.389   7.056  12.430 -0.2531  0.0354 -0.0361
  316ccc     O2 9403   5.537   7.180  12.545 -0.6101  0.4095 -0.4349
  316ccc    H11 9404   5.627   7.172  12.581 -0.6770 -0.1781 -0.3947
  316ccc     C7 9405   5.779   6.709  12.552  0.4752  0.5297 -0.0258
  316ccc    H12 9406   5.753   6.745  12.452  1.4069  0.6618 -0.2344
  316ccc    H13 9407   5.880   6.667  12.558  0.3971  0.2999 -0.2676
  316ccc     C8 9408   5.690   6.589  12.583 -0.0574  0.6490  0.6370
  316ccc    H14 9409   5.712   6.551  12.684 -0.0973 -1.2130 -0.0153
  316ccc    H15 9410   5.590   6.631  12.597  0.1168  1.3804 -0.2740
  316ccc     C9 9411   5.698   6.485  12.471 -0.1222  0.0686  0.2633
  316ccc     O3 9412   5.805   6.451  12.416  0.2223  0.9418 -0.0649
  316ccc     O4 9413   5.575   6.447  12.428  0.3337 -0.1838  0.0382
  316ccc    H16 9414   5.507   6.484  12.488 -0.0716 -0.0347 -0.5084
  316ccc     O5 9415   5.937   6.974  13.099  0.1747 -0.3015 -0.5910
  317ccc     C1 9416   5.296   5.504  14.165  0.2878 -0.3440  0.2618
  317ccc     H1 9417   5.187   5.505  14.151  0.3245 -2.3093 -0.5095
  317ccc     H2 9418   5.343   5.475  14.070  1.4034 -0.1172  0.7379
  317ccc     C2 9419   5.340   5.389  14.260 -0.3667 -0.1697  0.2979
  317ccc     H3 9420   5.301   5.411  14.360  1.3775  3.2081  0.4037
  317ccc     H4 9421   5.449   5.379  14.266 -0.0912  1.9585 -0.2569
  317ccc     C3 9422   5.292   5.248  14.213  0.1121  0.0574 -0.2995
  317ccc     H5 9423   5.353   5.214  14.129  0.3119  1.1561 -0.6137
  317ccc     H6 9424   5.190   5.259  14.175  1.0360  1.4083 -2.5401
  317ccc     N1 9425   5.289   5.146  14.324  0.2090 -0.3570  0.2358
  317ccc     C4 9426   5.235   5.019  14.266  0.6097  0.6915 -0.9593
  317ccc     H7 9427   5.297   4.979  14.185  0.8084  0.1556 -0.5498
  317ccc     H8 9428   5.139   5.049  14.221 -0.0413 -1.6301 -1.2479
  317ccc     C5 9429   5.205   4.906  14.372 -0.7196 -0.2655  0.0703
  317ccc     H9 9430   5.300   4.873  14.415 -0.3732 -0.8916 -1.1278
  317ccc    H10 9431   5.148   4.944  14.458 -0.7837 -2.3705  1.0350
  317ccc     C6 9432   5.146   4.783  14.290 -0.6568 -0.3492  0.0528
  317ccc     O1 9433   5.214   4.693  14.247 -0.0360 -0.2892 -0.4789
  317ccc     O2 9434   5.032   4.813  14.232  0.1630  0.4160 -0.4515
  317ccc    H11 9435   4.981   4.886  14.272 -0.1301  1.9289 -3.2956
  317ccc     C7 9436   5.409   5.142  14.406  0.6505 -0.8053  0.1656
  317ccc    H12 9437   5.432   5.240  14.450 -0.7030 -0.5079  0.2560
  317ccc    H13 9438   5.381   5.081  14.493  0.3318  0.3427  0.8921
  317ccc     C8 9439   5.541   5.087  14.347 -0.2936  0.1463 -0.4234
  317ccc    H14 9440   5.543   4.978  14.358  0.5143  0.4076  3.3112
  317ccc    H15 9441   5.553   5.117  14.242 -0.8564 -0.7900 -0.7665
  317ccc     C9 9442   5.663   5.141  14.420  0.2608  1.0699 -0.2191
  317ccc     O3 9443   5.714   5.250  14.403 -0.5719 -0.0938 -0.1711
  317ccc     O4 9444   5.669   5.083  14.539 -1.0996 -0.2992 -0.3550
  317ccc    H16 9445   5.608   5.008  14.542 -1.4187 -0.0027  1.1398
  317ccc     O5 9446   5.341   5.624  14.222 -0.2280  0.6966  0.8984
  318ccc     C1 9447   5.970   6.050  14.102  0.2516  0.5972  0.2474
  318ccc     H1 9448   6.029   6.042  14.010  0.3579 -0.9940  0.4385
  318ccc     H2 9449   5.888   6.121  14.088 -2.7573 -2.8199 -1.0794
  318ccc     C2 9450   6.054   6.094  14.219  0.1535  0.3502  0.3798
  318ccc     H3 9451   5.991   6.070  14.306 -0.2486  0.3599  0.0929
  318ccc     H4 9452   6.073   6.201  14.225  0.3715  0.3570 -0.3529
  318ccc     C3 9453   6.195   6.026  14.233  1.3335  0.1809  0.0059
  318ccc     H5 9454   6.254   6.053  14.144  2.2288 -2.0654 -0.1484
  318ccc     H6 9455   6.179   5.918  14.221  1.3502  0.3705 -2.1155
  318ccc     N1 9456   6.271   6.048  14.357 -0.0692 -0.0813 -0.0391
  318ccc     C4 9457   6.210   5.996  14.485  0.5477 -0.0983  0.3930
  318ccc     H7 9458   6.116   6.051  14.503  0.4712  0.0827 -0.5095
  318ccc     H8 9459   6.269   6.016  14.575  1.5565  1.8494 -0.6270
  318ccc     C5 9460   6.196   5.845  14.489  0.1919 -0.2776 -0.2769
  318ccc     H9 9461   6.118   5.821  14.416 -0.8128  0.0829  0.6613
  318ccc    H10 9462   6.291   5.802  14.455  0.1771 -1.7486  1.4054
  318ccc     C6 9463   6.144   5.793  14.624  0.0982  0.4061  0.0133
  318ccc     O1 9464   6.121   5.864  14.721 -0.0087 -0.6126 -0.0137
  318ccc     O2 9465   6.129   5.664  14.626  0.4130 -0.0562  0.2180
  318ccc    H11 9466   6.142   5.627  14.537 -0.1269  0.1203  0.0604
  318ccc     C7 9467   6.310   6.192  14.362  0.4145 -0.7243 -0.3310
  318ccc    H12 9468   6.368   6.208  14.270 -1.2123  0.0595 -1.2615
  318ccc    H13 9469   6.228   6.262  14.346  2.2510  2.1368  1.7091
  318ccc     C8 9470   6.380   6.230  14.493  0.1770  0.5071  0.2703
  318ccc    H14 9471   6.303   6.242  14.570  0.8432 -0.4560  1.1215
  318ccc    H15 9472   6.446   6.153  14.536 -2.3448 -0.9027  1.8563
  318ccc     C9 9473   6.461   6.357  14.477  0.1347  0.3108  0.4506
  318ccc     O3 9474   6.470   6.415  14.371  0.2509  0.5032 -0.1034
  318ccc     O4 9475   6.536   6.382  14.585  0.0729  0.0027 -0.4369
  318ccc    H16 9476   6.510   6.317  14.653 -1.0003 -1.1556 -1.8993
  318ccc     O5 9477   5.916   5.917  14.125 -0.3219 -0.6778 -0.2037
  319ccc     C1 9478   8.721   3.451  13.334  0.4427  0.6230  0.0058
  319ccc     H1 9479   8.760   3.449  13.232  0.6759 -0.1388  0.1025
  319ccc     H2 9480   8.773   3.378  13.397 -0.7317 -1.9276 -1.8181
  319ccc     C2 9481   8.566   3.436  13.353  0.0441 -0.5096  0.2640
  319ccc     H3 9482   8.535   3.451  13.457  0.4627  0.8753  0.2094
  319ccc     H4 9483   8.540   3.333  13.326 -3.6882  0.7874 -1.8016
  319ccc     C3 9484   8.485   3.550  13.276 -0.5803 -0.0252  0.4648
  319ccc     H5 9485   8.488   3.535  13.167  0.2846 -2.7725  0.8058
  319ccc     H6 9486   8.539   3.643  13.298  0.0804 -0.5392  1.0469
  319ccc     N1 9487   8.350   3.563  13.334 -0.3263  0.7007 -0.3761
  319ccc     C4 9488   8.343   3.626  13.462  0.5467  0.1411 -0.8707
  319ccc     H7 9489   8.433   3.685  13.483 -0.5376  1.1564  1.2117
  319ccc     H8 9490   8.338   3.546  13.538 -0.1280 -0.7063 -1.7767
  319ccc     C5 9491   8.222   3.716  13.481 -0.4044  0.4296 -0.1536
  319ccc     H9 9492   8.240   3.778  13.569  1.8466 -0.8564  0.3800
  319ccc    H10 9493   8.205   3.785  13.398  1.1952 -1.1336 -1.8935
  319ccc     C6 9494   8.088   3.643  13.496  0.3437 -0.7960 -0.0568
  319ccc     O1 9495   8.008   3.612  13.414  0.4122 -0.4028  0.6151
  319ccc     O2 9496   8.071   3.586  13.616  0.4229 -0.5675 -0.1013
  319ccc    H11 9497   8.137   3.616  13.681 -2.4307 -0.9085  3.2492
  319ccc     C7 9498   8.276   3.436  13.322 -0.0577  0.7097 -0.0019
  319ccc    H12 9499   8.330   3.347  13.356  0.7200  0.1940 -2.3966
  319ccc    H13 9500   8.200   3.445  13.401  3.1200  2.8356  3.1298
  319ccc     C8 9501   8.210   3.420  13.181 -0.0608 -0.6267 -0.5225
  319ccc    H14 9502   8.160   3.516  13.162 -0.3441 -0.3297  1.4389
  319ccc    H15 9503   8.291   3.416  13.107  1.6120 -2.1608  1.2635
  319ccc     C9 9504   8.105   3.309  13.191  0.3142 -0.1304 -0.3654
  319ccc     O3 9505   8.018   3.299  13.274  0.2062 -0.2410  0.4255
  319ccc     O4 9506   8.082   3.228  13.091  0.3244 -0.5249 -0.1996
  319ccc    H16 9507   8.155   3.254  13.032  1.5905 -0.6371  1.2531
  319ccc     O5 9508   8.750   3.575  13.396 -0.6400  0.5231  0.0130
  320ccc     C1 9509   9.219   4.270  13.042 -0.0110 -0.6015 -0.4457
  320ccc     H1 9510   9.152   4.323  13.110 -1.7294 -0.5353 -2.1015
  320ccc     H2 9511   9.299   4.212  13.088  0.1043  0.1955  0.3786
  320ccc     C2 9512   9.268   4.375  12.940  0.0491 -0.0907  0.1491
  320ccc     H3 9513   9.186   4.399  12.871  1.2901  1.2580 -0.9372
  320ccc     H4 9514   9.343   4.320  12.882  0.4792 -0.3265  0.9235
  320ccc     C3 9515   9.326   4.494  13.006 -0.2869 -0.4579 -0.1180
  320ccc     H5 9516   9.420   4.464  13.053 -0.0450  1.3128  0.6185
  320ccc     H6 9517   9.259   4.523  13.088 -0.1786  0.7061 -0.4180
  320ccc     N1 9518   9.356   4.602  12.914  0.9727 -0.7939 -0.3999
  320ccc     C4 9519   9.242   4.677  12.857  0.4977 -0.8698 -0.5650
  320ccc     H7 9520   9.184   4.605  12.798 -0.8553  1.6870 -2.5675
  320ccc     H8 9521   9.280   4.750  12.786  2.2494 -1.1879  0.0094
  320ccc     C5 9522   9.147   4.742  12.959  0.4273 -0.0206 -0.4227
  320ccc     H9 9523   9.100   4.662  13.017  0.4864  0.3843  0.1911
  320ccc    H10 9524   9.194   4.800  13.039 -1.7602  0.8592  0.2886
  320ccc     C6 9525   9.042   4.828  12.885 -0.3124 -0.3926 -0.4504
  320ccc     O1 9526   9.052   4.872  12.774 -0.6525  0.4795  0.7721
  320ccc     O2 9527   8.938   4.864  12.963  0.4751  0.2471 -0.1582
  320ccc    H11 9528   8.957   4.843  13.056  1.1973  3.2567  0.4943
  320ccc     C7 9529   9.465   4.583  12.818 -0.0841 -0.3217  0.1229
  320ccc    H12 9530   9.436   4.495  12.760 -3.6023  0.5153  0.3965
  320ccc    H13 9531   9.461   4.661  12.741 -0.8890  0.0403  0.5085
  320ccc     C8 9532   9.611   4.568  12.869  0.0936  0.3342  0.4586
  320ccc    H14 9533   9.649   4.652  12.929  0.1818  1.2945 -0.9044
  320ccc    H15 9534   9.617   4.481  12.935  0.4561 -0.0659 -0.0921
  320ccc     C9 9535   9.712   4.531  12.759 -0.0964 -0.2985  0.2684
  320ccc     O3 9536   9.816   4.589  12.740 -0.0153 -0.1073 -0.3804
  320ccc     O4 9537   9.690   4.418  12.697 -0.2673  0.3186  0.5562
  320ccc    H16 9538   9.774   4.417  12.648 -1.2771  1.9215 -1.3698
  320ccc     O5 9539   9.147   4.175  12.964  0.2408  0.4366  0.1475
  321ccc     C1 9540   8.958   2.615  11.770 -0.4129  0.2544 -0.0403
  321ccc     H1 9541   8.931   2.674  11.858 -1.1699 -1.7413  1.1131
  321ccc     H2 9542   9.006   2.524  11.808  0.9584  1.4525  1.1810
  321ccc     C2 9543   9.058   2.681  11.668  0.4250  0.9440 -0.2403
  321ccc     H3 9544   9.063   2.612  11.583 -1.9698 -1.5070  1.4443
  321ccc     H4 9545   9.161   2.676  11.704 -0.0614 -3.5459  1.1793
  321ccc     C3 9546   9.022   2.813  11.612 -0.2123 -0.2839  0.4455
  321ccc     H5 9547   8.934   2.796  11.548 -1.8152 -0.1734  2.5042
  321ccc     H6 9548   9.094   2.846  11.537 -2.0436 -0.2372 -1.3822
  321ccc     N1 9549   8.981   2.920  11.710  0.6846  0.4603  0.1400
  321ccc     C4 9550   8.932   3.040  11.641  0.3370  0.3016  0.2217
  321ccc     H7 9551   9.008   3.048  11.562  0.2089 -0.7023 -0.0199
  321ccc     H8 9552   8.932   3.125  11.710 -3.0429  1.6815 -1.2619
  321ccc     C5 9553   8.790   3.027  11.575 -0.4438 -0.6533 -0.7115
  321ccc     H9 9554   8.779   2.935  11.517 -0.7594 -0.8306 -0.3763
  321ccc    H10 9555   8.711   3.025  11.651 -0.5159 -3.9002 -0.7135
  321ccc     C6 9556   8.756   3.138  11.489 -0.3446 -0.2835  0.1537
  321ccc     O1 9557   8.814   3.250  11.478  0.9487 -0.0983  0.2037
  321ccc     O2 9558   8.642   3.130  11.420  0.0711  0.7166  0.1532
  321ccc    H11 9559   8.604   3.045  11.449  1.6113  0.1029  0.4925
  321ccc     C7 9560   9.088   2.935  11.809  0.4308 -0.3991 -0.0148
  321ccc    H12 9561   9.059   3.012  11.881  1.1554  1.2861 -1.4624
  321ccc    H13 9562   9.108   2.844  11.867 -2.0650  0.4342  2.3832
  321ccc     C8 9563   9.216   3.000  11.753  0.4113  0.2462 -0.2441
  321ccc    H14 9564   9.246   2.945  11.663 -0.3587  0.6816 -0.7762
  321ccc    H15 9565   9.191   3.102  11.724 -0.6803 -0.4631 -1.9734
  321ccc     C9 9566   9.330   2.999  11.856  0.0783  0.6097  0.1417
  321ccc     O3 9567   9.317   2.994  11.974 -0.1688 -0.7980  0.0664
  321ccc     O4 9568   9.453   3.028  11.805  0.0308 -0.6836  0.2631
  321ccc    H16 9569   9.444   3.050  11.711  2.0612 -1.0195 -0.0412
  321ccc     O5 9570   8.840   2.581  11.698 -0.3186  0.1577 -0.4332
  322ccc     C1 9571   8.119   2.425  12.022 -0.3111 -0.2536 -0.3259
  322ccc     H1 9572   8.159   2.323  12.024  1.0171  0.2531  2.3763
  322ccc     H2 9573   8.121   2.465  12.123  0.4511  0.5450 -0.6489
  322ccc     C2 9574   7.975   2.436  11.972 -0.1025  0.0007 -0.0922
  322ccc     H3 9575   7.978   2.437  11.862  1.3554  1.3405 -0.0759
  322ccc     H4 9576   7.944   2.537  12.002  0.8867 -0.3517  2.3159
  322ccc     C3 9577   7.888   2.316  12.017  0.1411 -0.3555 -0.6858
  322ccc     H5 9578   7.883   2.314  12.126 -2.2141  1.2991 -0.6779
  322ccc     H6 9579   7.936   2.224  11.981  0.7966 -0.2230 -0.1718
  322ccc     N1 9580   7.746   2.327  11.975 -0.7838  0.4667  0.1592
  322ccc     C4 9581   7.732   2.299  11.832  0.1334 -0.0329  0.2849
  322ccc     H7 9582   7.722   2.190  11.825 -1.2162 -0.1236  2.5117
  322ccc     H8 9583   7.821   2.315  11.770  0.9273 -0.2940  1.3189
  322ccc     C5 9584   7.615   2.361  11.763  0.5344 -0.1817  0.1884
  322ccc     H9 9585   7.587   2.308  11.671  0.6948  1.6431 -0.9585
  322ccc    H10 9586   7.530   2.346  11.830  0.9990  0.0350  0.8304
  322ccc     C6 9587   7.628   2.514  11.742 -0.4804  0.0765 -0.0866
  322ccc     O1 9588   7.574   2.604  11.808  0.3183  0.8288 -0.0202
  322ccc     O2 9589   7.722   2.558  11.645  0.4273 -0.3876 -0.2056
  322ccc    H11 9590   7.763   2.473  11.623 -1.3074 -1.4774  0.5559
  322ccc     C7 9591   7.650   2.269  12.077 -0.8360  0.1302 -0.3352
  322ccc    H12 9592   7.650   2.329  12.169  0.4852  0.3201 -0.4318
  322ccc    H13 9593   7.548   2.290  12.043 -0.6246  0.0054 -1.0549
  322ccc     C8 9594   7.678   2.121  12.115 -0.4207 -0.6192  0.6847
  322ccc    H14 9595   7.697   2.063  12.024 -2.2379  2.0109 -1.5333
  322ccc    H15 9596   7.759   2.109  12.188  1.0633  0.0688 -0.7795
  322ccc     C9 9597   7.561   2.065  12.186 -0.1167  0.2813 -0.1990
  322ccc     O3 9598   7.467   2.126  12.236 -0.1764  0.5114  0.2077
  322ccc     O4 9599   7.579   1.927  12.194 -0.4539  0.1551 -0.1642
  322ccc    H16 9600   7.662   1.905  12.149 -1.0070  1.7309 -2.0452
  322ccc     O5 9601   8.191   2.517  11.935  0.1099 -0.2457 -0.2051
  323ccc     C1 9602   8.290   4.512  12.396  0.4836  0.0166  0.2376
  323ccc     H1 9603   8.305   4.586  12.476  1.5074  0.3188 -0.2114
  323ccc     H2 9604   8.309   4.412  12.436 -1.1679  0.0522  1.1963
  323ccc     C2 9605   8.382   4.549  12.278 -0.2236 -1.0214 -0.1734
  323ccc     H3 9606   8.354   4.640  12.223 -0.3690 -1.2546 -0.4828
  323ccc     H4 9607   8.375   4.471  12.202 -0.9447  1.1016 -2.3907
  323ccc     C3 9608   8.527   4.579  12.329  0.2188  0.2686  0.8343
  323ccc     H5 9609   8.560   4.491  12.386  2.6270 -0.0088 -0.8143
  323ccc     H6 9610   8.525   4.664  12.398 -3.3626  0.6275  0.4928
  323ccc     N1 9611   8.619   4.611  12.216 -0.4247  0.0793 -0.5473
  323ccc     C4 9612   8.655   4.494  12.123  0.3586  0.3743 -0.2366
  323ccc     H7 9613   8.723   4.531  12.045  0.2725  3.7169  1.0928
  323ccc     H8 9614   8.564   4.463  12.071 -0.2279  0.5261  0.6932
  323ccc     C5 9615   8.727   4.366  12.178 -0.5828 -0.3985  0.5962
  323ccc     H9 9616   8.795   4.325  12.102  0.2616  1.3527  0.3545
  323ccc    H10 9617   8.788   4.388  12.267  1.5993 -2.4871 -0.2819
  323ccc     C6 9618   8.627   4.265  12.225  0.5546 -0.1602 -0.1633
  323ccc     O1 9619   8.591   4.264  12.338  0.3148 -0.4553 -0.0020
  323ccc     O2 9620   8.622   4.157  12.155  0.5103  0.5173 -0.8249
  323ccc    H11 9621   8.702   4.165  12.100  1.7745  0.5694  0.9575
  323ccc     C7 9622   8.589   4.739  12.142 -0.2086  0.0051 -0.1551
  323ccc    H12 9623   8.673   4.756  12.073  0.1710 -0.5545  0.1682
  323ccc    H13 9624   8.492   4.730  12.091  1.1456 -0.2145 -2.8667
  323ccc     C8 9625   8.589   4.864  12.230 -0.4092 -0.3706  0.3525
  323ccc    H14 9626   8.574   4.952  12.167 -0.1363 -0.8779 -0.4294
  323ccc    H15 9627   8.513   4.848  12.308 -1.3462  0.2384 -0.4199
  323ccc     C9 9628   8.721   4.886  12.305 -0.5741 -0.1802  0.4143
  323ccc     O3 9629   8.826   4.856  12.247  0.0567  0.6676 -0.3827
  323ccc     O4 9630   8.723   4.901  12.437 -0.5874 -0.2852 -0.6184
  323ccc    H16 9631   8.631   4.897  12.472 -0.1846  0.7048  0.6420
  323ccc     O5 9632   8.156   4.520  12.360  0.8794  0.1580 -0.3371
  324ccc     C1 9633   8.628   3.682  12.241 -0.3318 -0.2771  0.1245
  324ccc     H1 9634   8.666   3.680  12.138  1.1431 -0.1519  0.6481
  324ccc     H2 9635   8.698   3.739  12.304  0.7047  0.1430 -1.3632
  324ccc     C2 9636   8.612   3.540  12.290 -0.4443  0.4837  1.4872
  324ccc     H3 9637   8.587   3.546  12.397  0.2504 -2.3406  1.8999
  324ccc     H4 9638   8.712   3.495  12.283 -0.8851 -0.3590  0.3558
  324ccc     C3 9639   8.511   3.456  12.209 -0.1492  0.1060  0.1506
  324ccc     H5 9640   8.555   3.457  12.109  2.2763  0.8154  1.1378
  324ccc     H6 9641   8.409   3.495  12.201 -0.2491 -0.5146 -2.4070
  324ccc     N1 9642   8.511   3.316  12.254  0.2076 -0.7657  0.1137
  324ccc     C4 9643   8.418   3.233  12.177 -0.1615 -0.1601  0.6712
  324ccc     H7 9644   8.319   3.275  12.154 -0.5453 -1.4653 -0.1771
  324ccc     H8 9645   8.409   3.136  12.226 -1.4529  0.6805  2.1880
  324ccc     C5 9646   8.479   3.204  12.039 -0.2268 -0.1040 -0.6340
  324ccc     H9 9647   8.469   3.292  11.974  1.9396 -0.6586 -1.8050
  324ccc    H10 9648   8.587   3.190  12.056 -0.5720 -0.3724  1.5863
  324ccc     C6 9649   8.402   3.100  11.964  0.0105  0.2697 -0.3791
  324ccc     O1 9650   8.309   3.041  12.011  0.1279  0.3748 -0.2885
  324ccc     O2 9651   8.436   3.096  11.831 -0.4520  0.7102  0.1432
  324ccc    H11 9652   8.507   3.160  11.817  0.1970 -0.3368 -1.7268
  324ccc     C7 9653   8.488   3.319  12.401  0.2098  0.0793 -0.1369
  324ccc    H12 9654   8.500   3.215  12.432  0.7904  0.1935  0.0281
  324ccc    H13 9655   8.566   3.367  12.462 -1.8727  0.5862  2.3131
  324ccc     C8 9656   8.360   3.373  12.462  0.1498 -0.2559 -0.2778
  324ccc    H14 9657   8.352   3.481  12.443 -1.9350  0.5059  3.7546
  324ccc    H15 9658   8.269   3.338  12.411 -1.0288  1.4542  0.5577
  324ccc     C9 9659   8.349   3.341  12.613 -0.2691 -0.0546 -0.5862
  324ccc     O3 9660   8.420   3.269  12.680  0.0915 -0.2943  0.8685
  324ccc     O4 9661   8.232   3.383  12.667 -0.1382 -0.1826 -0.0710
  324ccc    H16 9662   8.185   3.430  12.596 -1.2993  0.9435  1.3561
  324ccc     O5 9663   8.490   3.737  12.233  0.5613  0.2852  0.0978
  325ccc     C1 9664   7.380   3.542  11.446  0.3623 -0.0152  0.0642
  325ccc     H1 9665   7.347   3.479  11.362 -0.5255  0.4933  0.0287
  325ccc     H2 9666   7.295   3.573  11.507 -0.8069  0.0299 -1.5383
  325ccc     C2 9667   7.458   3.657  11.385 -0.3495 -0.3050  0.5542
  325ccc     H3 9668   7.556   3.627  11.346 -0.3171 -0.6367  0.8930
  325ccc     H4 9669   7.487   3.719  11.471 -1.5095 -1.6568  1.9763
  325ccc     C3 9670   7.373   3.735  11.281 -0.3722 -0.3003 -0.1520
  325ccc     H5 9671   7.289   3.770  11.342  0.7001 -1.5046  2.1022
  325ccc     H6 9672   7.341   3.668  11.201 -0.8663 -1.4155  0.9560
  325ccc     N1 9673   7.443   3.850  11.222 -0.4816  0.0070  0.3079
  325ccc     C4 9674   7.374   3.976  11.203  0.3133  0.1064  0.1212
  325ccc     H7 9675   7.448   4.057  11.204  1.3237 -0.8130  0.9066
  325ccc     H8 9676   7.312   3.995  11.292  1.3348 -0.0811  0.8816
  325ccc     C5 9677   7.282   3.981  11.078 -0.1730  0.0020  0.1325
  325ccc     H9 9678   7.344   3.978  10.988 -0.3873 -1.9352  0.0113
  325ccc    H10 9679   7.217   3.892  11.073 -0.3562  0.1921 -1.1194
  325ccc     C6 9680   7.188   4.101  11.071 -0.0819  0.0994  0.8031
  325ccc     O1 9681   7.232   4.211  11.064  0.3751  0.2940 -0.4632
  325ccc     O2 9682   7.058   4.083  11.061  0.4265 -0.4044  0.1221
  325ccc    H11 9683   7.049   3.988  11.040 -1.7003 -0.2523  0.1076
  325ccc     C7 9684   7.543   3.820  11.122 -0.1521  0.5980  0.2939
  325ccc    H12 9685   7.598   3.729  11.148  1.9466  1.6712 -0.2075
  325ccc    H13 9686   7.493   3.796  11.027 -0.2461 -3.4422  1.1696
  325ccc     C8 9687   7.641   3.937  11.117  0.4110  0.4460  0.0864
  325ccc    H14 9688   7.601   4.009  11.044 -1.3568 -1.0085 -0.4520
  325ccc    H15 9689   7.654   4.001  11.205  2.3984  2.3594 -1.4623
  325ccc     C9 9690   7.779   3.895  11.072 -0.0870  0.3710  0.3034
  325ccc     O3 9691   7.810   3.779  11.042  0.2360  1.2426  0.1587
  325ccc     O4 9692   7.850   4.001  11.052  0.3875 -0.3128 -0.2046
  325ccc    H16 9693   7.787   4.071  11.074  1.7402  1.5540 -1.8845
  325ccc     O5 9694   7.460   3.453  11.527  0.0364 -0.5183  0.0110
  326ccc     C1 9695   7.486   2.777  11.109  0.0819  0.5004  0.1727
  326ccc     H1 9696   7.462   2.876  11.068 -0.3249 -0.0390 -0.9359
  326ccc     H2 9697   7.595   2.765  11.106  0.2782  2.1803 -1.8602
  326ccc     C2 9698   7.423   2.672  11.015  0.3132  0.2846  0.3405
  326ccc     H3 9699   7.455   2.570  11.038 -2.0507 -0.6957 -0.4085
  326ccc     H4 9700   7.474   2.688  10.918 -2.3329 -0.1822 -1.2197
  326ccc     C3 9701   7.269   2.673  11.000  1.1055 -0.3171 -0.0269
  326ccc     H5 9702   7.238   2.775  11.027  1.8245  0.0505 -0.5571
  326ccc     H6 9703   7.222   2.611  11.076  2.0296  0.1674  0.9737
  326ccc     N1 9704   7.210   2.629  10.870 -0.2943  0.3714  0.0377
  326ccc     C4 9705   7.072   2.671  10.848  0.6039 -0.0456 -0.5377
  326ccc     H7 9706   7.042   2.665  10.742  1.9529  1.6816 -1.0635
  326ccc     H8 9707   7.060   2.776  10.878 -3.6585 -1.1993  2.7415
  326ccc     C5 9708   6.971   2.594  10.936 -0.8626 -0.6678  0.7926
  326ccc     H9 9709   6.971   2.490  10.902  3.2944 -0.5964  0.0335
  326ccc    H10 9710   7.004   2.577  11.039  1.3762 -1.5836 -0.0257
  326ccc     C6 9711   6.831   2.653  10.929  0.5822  0.6894  0.3278
  326ccc     O1 9712   6.777   2.696  10.822 -0.3371 -0.4979 -0.0813
  326ccc     O2 9713   6.776   2.667  11.048 -0.5663 -0.7230 -0.6508
  326ccc    H11 9714   6.835   2.616  11.106 -1.1894  1.0908  1.7353
  326ccc     C7 9715   7.248   2.493  10.830  0.8287  0.0014 -0.4342
  326ccc    H12 9716   7.356   2.475  10.823  0.9081  0.3085 -0.0142
  326ccc    H13 9717   7.205   2.429  10.908 -2.3254  1.1516 -1.0919
  326ccc     C8 9718   7.188   2.442  10.696  0.4065 -0.1984 -0.1903
  326ccc    H14 9719   7.086   2.407  10.716  0.9161 -0.7055  1.7441
  326ccc    H15 9720   7.193   2.514  10.614  1.5540 -0.1942 -0.1353
  326ccc     C9 9721   7.254   2.311  10.655 -0.7703 -0.8981 -0.2653
  326ccc     O3 9722   7.347   2.258  10.714  0.0086 -0.6603  0.6959
  326ccc     O4 9723   7.214   2.264  10.539  0.1537 -0.0522 -0.6284
  326ccc    H16 9724   7.144   2.326  10.510  1.0724  0.6147 -1.4984
  326ccc     O5 9725   7.436   2.756  11.243  0.7085  0.2879  0.1509
  327ccc     C1 9726   9.580   6.320  11.458 -0.4545  0.7878  0.0752
  327ccc     H1 9727   9.635   6.233  11.419  0.5171  1.9247 -1.1655
  327ccc     H2 9728   9.531   6.379  11.380 -1.6230  0.5884  0.6290
  327ccc     C2 9729   9.685   6.410  11.531  0.0929 -0.4625  0.7342
  327ccc     H3 9730   9.767   6.441  11.465 -0.1205  1.3360  1.2559
  327ccc     H4 9731   9.730   6.344  11.606 -1.3098 -1.3997  0.7865
  327ccc     C3 9732   9.640   6.538  11.604  0.4713 -0.2617  0.1705
  327ccc     H5 9733   9.710   6.550  11.688 -0.8162 -0.3146  1.2784
  327ccc     H6 9734   9.545   6.523  11.657  0.1608 -0.5093 -0.4425
  327ccc     N1 9735   9.640   6.661  11.525  1.0352  0.5603 -0.2570
  327ccc     C4 9736   9.634   6.788  11.604  0.6749  0.6838  0.3993
  327ccc     H7 9737   9.533   6.803  11.643  0.9352  1.3897  0.8131
  327ccc     H8 9738   9.657   6.867  11.533 -1.1608  0.2437 -0.7586
  327ccc     C5 9739   9.739   6.809  11.707 -0.0263  0.4093 -0.8968
  327ccc     H9 9740   9.720   6.899  11.766  0.1716  0.2050 -0.5134
  327ccc    H10 9741   9.728   6.726  11.779  2.0726  0.7267 -0.1428
  327ccc     C6 9742   9.885   6.819  11.653  0.1802 -0.4536  0.4372
  327ccc     O1 9743   9.967   6.741  11.695 -0.2874 -0.0916  0.0277
  327ccc     O2 9744   9.913   6.933  11.588 -0.3910 -0.2075 -0.2897
  327ccc    H11 9745   9.830   6.967  11.549 -0.4201 -1.7666 -1.7458
  327ccc     C7 9746   9.556   6.663  11.402 -1.3357 -0.3620  0.0423
  327ccc    H12 9747   9.582   6.751  11.343 -0.1464 -1.7134 -1.5686
  327ccc    H13 9748   9.589   6.589  11.328 -0.2923 -0.3620  0.4934
  327ccc     C8 9749   9.405   6.646  11.415  0.2652 -0.3965 -0.2610
  327ccc    H14 9750   9.390   6.585  11.504 -0.5129 -2.4113 -1.7039
  327ccc    H15 9751   9.355   6.744  11.425 -0.9766 -1.1354  1.1270
  327ccc     C9 9752   9.338   6.577  11.291  0.5660 -0.3433 -0.3656
  327ccc     O3 9753   9.369   6.605  11.179  0.2892 -0.1260  0.2228
  327ccc     O4 9754   9.274   6.463  11.327 -0.3950  0.1732  0.7027
  327ccc    H16 9755   9.284   6.447  11.423 -0.6709  0.8850  0.8566
  327ccc     O5 9756   9.469   6.285  11.556  0.0185  0.0216 -0.3021
  328ccc     C1 9757   9.707   6.007  11.202  0.7239  0.2929  0.1404
  328ccc     H1 9758   9.700   6.060  11.106  0.6777  0.6819  0.3578
  328ccc     H2 9759   9.684   6.073  11.286 -0.8520 -0.5055  0.3699
  328ccc     C2 9760   9.851   5.951  11.231 -0.1849 -0.3989 -0.4019
  328ccc     H3 9761   9.846   5.883  11.317 -1.9156 -0.3961 -0.4647
  328ccc     H4 9762   9.900   6.045  11.260 -1.3141  0.1842 -0.3012
  328ccc     C3 9763   9.927   5.878  11.118 -0.3625  0.2961 -1.0968
  328ccc     H5 9764   9.896   5.926  11.025  2.2685  0.1555 -2.1400
  328ccc     H6 9765   9.895   5.773  11.121  3.4145 -1.0123 -1.0053
  328ccc     N1 9766  10.075   5.899  11.124 -0.3199 -0.4063 -0.9303
  328ccc     C4 9767  10.123   5.854  10.994  0.0748  0.4844  0.3863
  328ccc     H7 9768  10.068   5.906  10.915  0.0948  3.7530  2.3721
  328ccc     H8 9769  10.097   5.748  10.977  2.2055 -0.1463  0.7226
  328ccc     C5 9770  10.269   5.880  10.962 -0.7838 -0.0286  0.3516
  328ccc     H9 9771  10.287   5.984  10.992  1.2931  0.7755 -3.0855
  328ccc    H10 9772  10.339   5.819  11.021 -1.2574  0.4387  1.4319
  328ccc     C6 9773  10.294   5.884  10.815  0.9747 -0.7747 -0.3176
  328ccc     O1 9774  10.298   5.991  10.755 -0.1460 -0.2532 -0.4387
  328ccc     O2 9775  10.315   5.762  10.758 -0.4085 -0.1387  0.2228
  328ccc    H11 9776  10.303   5.695  10.827  0.8407 -0.6892 -0.0604
  328ccc     C7 9777  10.142   5.850  11.244  0.0877 -0.1759 -0.1136
  328ccc    H12 9778  10.243   5.893  11.236 -0.0029  0.6243  2.3369
  328ccc    H13 9779  10.102   5.892  11.337 -0.5535  0.5458 -0.7007
  328ccc     C8 9780  10.144   5.692  11.251  0.5294 -1.4785  0.0126
  328ccc    H14 9781  10.047   5.662  11.293 -0.8140  1.6627 -0.5946
  328ccc    H15 9782  10.158   5.644  11.154 -2.5113 -0.3037 -1.1219
  328ccc     C9 9783  10.246   5.649  11.353  0.1885 -0.3288 -0.2683
  328ccc     O3 9784  10.322   5.724  11.412  0.2522  0.1168 -0.0980
  328ccc     O4 9785  10.269   5.521  11.350 -0.1936  0.5088 -0.0148
  328ccc    H16 9786  10.184   5.497  11.308 -0.2217 -1.1380  0.9012
  328ccc     O5 9787   9.629   5.886  11.199 -0.1648 -0.2930 -0.3645
  329ccc     C1 9788   9.033   4.588  12.605 -0.5440  0.5313 -0.1506
  329ccc     H1 9789   9.062   4.502  12.666 -2.1500  0.1446  0.1260
  329ccc     H2 9790   8.995   4.663  12.675 -0.3505 -1.0681  1.7578
  329ccc     C2 9791   8.932   4.523  12.509  0.2177  0.1938  0.4544
  329ccc     H3 9792   8.983   4.462  12.433 -1.8218 -1.0280 -0.0157
  329ccc     H4 9793   8.882   4.609  12.463  0.5563  0.7716  1.1617
  329ccc     C3 9794   8.838   4.428  12.592 -0.1330  0.2867  0.5602
  329ccc     H5 9795   8.911   4.355  12.631  0.5030 -0.1548 -1.3379
  329ccc     H6 9796   8.765   4.373  12.532  1.0724 -4.7001  3.0239
  329ccc     N1 9797   8.758   4.490  12.700  0.3705  0.0491 -0.1317
  329ccc     C4 9798   8.703   4.387  12.796  0.1429  0.0167 -0.0228
  329ccc     H7 9799   8.648   4.303  12.752 -0.4219  0.7130 -0.6713
  329ccc     H8 9800   8.630   4.441  12.857 -0.6032 -0.1172 -0.7746
  329ccc     C5 9801   8.805   4.323  12.894 -0.3532  0.1275 -0.1818
  329ccc     H9 9802   8.762   4.241  12.954  0.3319 -1.2151 -1.4571
  329ccc    H10 9803   8.892   4.282  12.842  0.3451 -1.1877  1.8874
  329ccc     C6 9804   8.875   4.422  12.986  0.1553  0.7842  0.3920
  329ccc     O1 9805   8.880   4.411  13.104  0.3891 -0.3603  0.1478
  329ccc     O2 9806   8.907   4.539  12.922 -0.3633 -0.4060  0.0155
  329ccc    H11 9807   8.879   4.510  12.833  1.8856 -0.7759 -0.6193
  329ccc     C7 9808   8.651   4.584  12.653 -0.1423  0.4966  0.2322
  329ccc    H12 9809   8.677   4.630  12.557 -0.7946  0.1161 -0.1372
  329ccc    H13 9810   8.556   4.534  12.630  0.7730  0.0064 -2.9544
  329ccc     C8 9811   8.628   4.696  12.753  0.0994  0.1814  0.4411
  329ccc    H14 9812   8.605   4.656  12.852 -2.4072  0.1187 -0.0913
  329ccc    H15 9813   8.726   4.744  12.767  1.5945 -1.8128 -2.1433
  329ccc     C9 9814   8.521   4.798  12.716  0.4975  0.1415  0.1235
  329ccc     O3 9815   8.481   4.808  12.603 -0.3739  0.3218 -0.2352
  329ccc     O4 9816   8.496   4.890  12.809  0.1971  0.1416  0.3593
  329ccc    H16 9817   8.504   4.841  12.893 -0.7565 -0.0127  0.3676
  329ccc     O5 9818   9.137   4.650  12.521  0.8200 -0.1080 -0.2303
  330ccc     C1 9819   9.468   5.006  12.995 -0.5305 -0.0521 -0.6745
  330ccc     H1 9820   9.458   5.105  13.040  0.7575  1.4190 -3.3825
  330ccc     H2 9821   9.382   4.974  12.935 -0.7593 -0.4547 -0.1462
  330ccc     C2 9822   9.499   4.894  13.101  0.0451 -0.5014  0.0818
  330ccc     H3 9823   9.544   4.803  13.061  1.3768 -0.2194  0.8676
  330ccc     H4 9824   9.401   4.865  13.141 -0.1024 -0.3976 -0.1970
  330ccc     C3 9825   9.584   4.957  13.215  0.3509  0.1889 -0.0127
  330ccc     H5 9826   9.516   5.033  13.256  0.4749 -0.4437  1.4287
  330ccc     H6 9827   9.669   5.006  13.165  1.1315 -3.0174 -2.1303
  330ccc     N1 9828   9.623   4.862  13.319 -0.3406  0.0879 -0.6058
  330ccc     C4 9829   9.688   4.924  13.432 -0.4270  0.0240  0.4189
  330ccc     H7 9830   9.650   5.026  13.445 -3.6127 -0.7065 -1.9085
  330ccc     H8 9831   9.796   4.925  13.410 -0.7654 -0.6474 -1.4817
  330ccc     C5 9832   9.669   4.847  13.563  0.6112  0.1016 -0.5071
  330ccc     H9 9833   9.720   4.750  13.564 -1.1533 -0.8549 -0.1261
  330ccc    H10 9834   9.715   4.910  13.641 -0.5695  0.3035  0.0457
  330ccc     C6 9835   9.526   4.825  13.613  0.1402  0.1855  0.2553
  330ccc     O1 9836   9.432   4.843  13.535 -0.5775 -0.7705 -0.8719
  330ccc     O2 9837   9.495   4.816  13.742 -0.2004 -0.3578  0.5784
  330ccc    H11 9838   9.398   4.813  13.745 -0.1638 -0.9187  1.4427
  330ccc     C7 9839   9.681   4.729  13.285 -0.8657 -0.1024 -0.4317
  330ccc    H12 9840   9.698   4.657  13.366 -1.8216 -1.3080 -1.2695
  330ccc    H13 9841   9.604   4.672  13.233 -0.7513  0.0840 -0.8056
  330ccc     C8 9842   9.796   4.745  13.184 -0.2650  0.4613 -0.3741
  330ccc    H14 9843   9.765   4.808  13.100 -1.8565  0.1640 -0.0437
  330ccc    H15 9844   9.884   4.798  13.223 -0.0356  3.5523 -4.5135
  330ccc     C9 9845   9.845   4.618  13.121  0.1418 -0.2997 -0.4553
  330ccc     O3 9846   9.788   4.509  13.139 -0.5524 -0.6048  0.5816
  330ccc     O4 9847   9.954   4.625  13.038 -0.0170 -0.1768  0.1320
  330ccc    H16 9848   9.986   4.716  13.051  1.4998 -0.9426  2.2150
  330ccc     O5 9849   9.586   5.012  12.905 -0.2595 -0.0772 -0.7264
  331ccc     C1 9850   7.826   4.105  12.679  0.1226 -0.1075 -0.2017
  331ccc     H1 9851   7.743   4.075  12.614 -0.3360  1.7028 -0.5205
  331ccc     H2 9852   7.907   4.035  12.659  0.0089  0.5035 -3.3494
  331ccc     C2 9853   7.778   4.089  12.824  0.7924 -0.5752 -0.1007
  331ccc     H3 9854   7.692   4.158  12.831  0.0540 -1.3078 -1.5994
  331ccc     H4 9855   7.852   4.134  12.891 -0.9745 -0.4887  1.9070
  331ccc     C3 9856   7.731   3.944  12.863 -0.3819  0.1139  0.1974
  331ccc     H5 9857   7.807   3.867  12.845 -1.0680 -0.7659  1.0343
  331ccc     H6 9858   7.654   3.914  12.791  0.4261 -0.2480 -0.5366
  331ccc     N1 9859   7.679   3.939  13.003  0.0219  0.6245  0.9525
  331ccc     C4 9860   7.535   3.971  13.021  0.3086 -0.2041 -0.0403
  331ccc     H7 9861   7.512   4.054  12.953  2.0942  0.1922 -0.2017
  331ccc     H8 9862   7.519   4.006  13.124  0.4784 -1.7110  0.5110
  331ccc     C5 9863   7.441   3.850  12.993  0.6165 -0.0153 -0.2445
  331ccc     H9 9864   7.458   3.806  12.893  0.0348  0.6613 -0.6558
  331ccc    H10 9865   7.467   3.770  13.063  1.4139 -0.4778 -1.0403
  331ccc     C6 9866   7.293   3.878  13.020 -0.4108  0.3681 -0.4826
  331ccc     O1 9867   7.243   3.987  13.040  0.0198  0.2546  0.5864
  331ccc     O2 9868   7.226   3.772  12.988  0.6921  0.4302 -0.2486
  331ccc    H11 9869   7.289   3.708  12.950  0.8725  0.6256 -0.2799
  331ccc     C7 9870   7.721   3.827  13.087 -0.0270  0.4766  0.1077
  331ccc    H12 9871   7.674   3.830  13.187 -0.4917 -4.6820  0.3104
  331ccc    H13 9872   7.700   3.731  13.039  0.0640  0.2435  0.5290
  331ccc     C8 9873   7.877   3.827  13.113  0.1395 -0.0746  0.4382
  331ccc    H14 9874   7.890   3.743  13.182 -0.4741  0.0241  0.6791
  331ccc    H15 9875   7.926   3.812  13.016 -1.2713  1.6701 -0.6147
  331ccc     C9 9876   7.928   3.956  13.173  0.0423  0.1842 -0.2502
  331ccc     O3 9877   8.026   4.015  13.131 -0.1729 -0.0926  0.0780
  331ccc     O4 9878   7.878   3.989  13.295  0.1932 -0.3434 -0.1697
  331ccc    H16 9879   7.823   3.914  13.322  0.3987  0.8418  4.3136
  331ccc     O5 9880   7.859   4.243  12.653 -0.4874  0.4543 -0.0937
  332ccc     C1 9881   8.129   4.704  12.871 -0.9530 -0.6575 -0.0754
  332ccc     H1 9882   8.172   4.711  12.770  1.7739 -2.8583  0.7881
  332ccc     H2 9883   8.049   4.629  12.873 -0.7829 -0.8349  0.2663
  332ccc     C2 9884   8.084   4.840  12.932 -0.2711 -0.4654 -0.2974
  332ccc     H3 9885   8.046   4.822  13.034 -0.3712  0.5704 -0.1397
  332ccc     H4 9886   8.003   4.884  12.873  0.0661  0.6132  0.0212
  332ccc     C3 9887   8.198   4.950  12.947 -0.4450 -0.6537  0.3962
  332ccc     H5 9888   8.230   4.986  12.848 -0.4468  2.0852  1.2898
  332ccc     H6 9889   8.285   4.902  12.994  0.4958  0.2946 -0.3151
  332ccc     N1 9890   8.153   5.066  13.019 -0.3087  0.5683  0.0875
  332ccc     C4 9891   8.228   5.183  12.998  0.5579 -0.9316 -0.3412
  332ccc     H7 9892   8.229   5.212  12.892  2.4169 -1.3694 -0.4672
  332ccc     H8 9893   8.333   5.182  13.029  1.0720  0.0592 -1.9297
  332ccc     C5 9894   8.158   5.309  13.066  0.2264  0.5068 -0.1711
  332ccc     H9 9895   8.055   5.309  13.028  0.8919 -0.7944 -2.1653
  332ccc    H10 9896   8.147   5.305  13.175  0.9945 -1.5832 -0.1251
  332ccc     C6 9897   8.238   5.432  13.040 -0.0509  0.2194 -0.1624
  332ccc     O1 9898   8.360   5.435  13.023 -0.4435 -0.1551  0.5301
  332ccc     O2 9899   8.167   5.540  12.998 -0.2044 -0.1209  0.6471
  332ccc    H11 9900   8.072   5.521  13.011 -0.7263  1.5267 -0.3275
  332ccc     C7 9901   8.129   5.040  13.161 -0.0483  0.3486 -1.1967
  332ccc    H12 9902   8.079   5.126  13.207 -0.6484 -0.2476 -0.7145
  332ccc    H13 9903   8.055   4.960  13.174  0.4823 -0.0691 -0.7348
  332ccc     C8 9904   8.251   5.022  13.252 -0.5373  0.4309  0.7068
  332ccc    H14 9905   8.298   4.927  13.223 -1.3549  0.4709 -0.8296
  332ccc    H15 9906   8.332   5.095  13.240  0.2626 -0.4141  0.7891
  332ccc     C9 9907   8.213   5.007  13.396  0.4697  0.2290 -0.4254
  332ccc     O3 9908   8.227   5.091  13.484 -0.2108 -0.5789 -0.1742
  332ccc     O4 9909   8.159   4.884  13.418 -0.2136  0.0420 -0.3560
  332ccc    H16 9910   8.155   4.836  13.334 -1.7571  1.6467 -1.2747
  332ccc     O5 9911   8.235   4.645  12.958 -0.0200 -0.1856  0.2621
  333ccc     C1 9912   9.607   3.307  11.832 -0.2112 -0.6409  0.1128
  333ccc     H1 9913   9.637   3.244  11.747  0.0089 -0.6040  0.1625
  333ccc     H2 9914   9.524   3.264  11.890 -2.5686  2.6109 -0.5641
  333ccc     C2 9915   9.553   3.429  11.750  0.1411 -0.0923  0.0923
  333ccc     H3 9916   9.546   3.396  11.646 -0.3185 -0.7729  0.3396
  333ccc     H4 9917   9.632   3.506  11.756  0.3072 -0.3262  0.9336
  333ccc     C3 9918   9.414   3.477  11.801 -0.3036  0.1561  0.5081
  333ccc     H5 9919   9.423   3.503  11.907  1.0933  1.7429  0.0532
  333ccc     H6 9920   9.333   3.404  11.798 -0.5933  0.3985 -3.4752
  333ccc     N1 9921   9.359   3.594  11.747 -0.3791 -0.3971 -0.2177
  333ccc     C4 9922   9.446   3.714  11.746 -0.4821  0.1305  0.0112
  333ccc     H7 9923   9.403   3.791  11.681 -1.1133  0.1492  0.4423
  333ccc     H8 9924   9.547   3.694  11.709  0.7199  2.2021  1.9252
  333ccc     C5 9925   9.456   3.789  11.882 -0.5888 -0.1217  0.3275
  333ccc     H9 9926   9.357   3.829  11.906  0.2104  0.3896  3.0745
  333ccc    H10 9927   9.476   3.714  11.959  0.2611  0.9259  1.1483
  333ccc     C6 9928   9.567   3.896  11.887 -0.2717  0.3968  0.6990
  333ccc     O1 9929   9.650   3.909  11.796  0.3112  0.4285 -0.4320
  333ccc     O2 9930   9.575   3.967  12.005  0.0099 -0.3740  0.1754
  333ccc    H11 9931   9.504   3.937  12.064 -1.1153  0.5017 -0.7002
  333ccc     C7 9932   9.279   3.577  11.626  0.3635  0.7697  0.8807
  333ccc    H12 9933   9.343   3.576  11.537 -0.8519 -1.0963 -0.0403
  333ccc    H13 9934   9.238   3.475  11.631  1.7894  0.2050  1.7694
  333ccc     C8 9935   9.166   3.674  11.604 -0.0978 -0.2545 -0.4115
  333ccc    H14 9936   9.208   3.767  11.565  2.1516 -0.6310  0.9480
  333ccc    H15 9937   9.092   3.645  11.528 -0.3505 -0.0236 -0.2542
  333ccc     C9 9938   9.088   3.707  11.732  0.4995  0.1808 -0.5439
  333ccc     O3 9939   9.121   3.795  11.807 -0.5329 -0.8441  0.6416
  333ccc     O4 9940   9.006   3.615  11.776 -0.0008  0.4019  0.5765
  333ccc    H16 9941   8.996   3.552  11.703 -3.4509  0.8352  0.4809
  333ccc     O5 9942   9.722   3.349  11.910  0.0189 -0.0857  0.1468
  334ccc     C1 9943   9.180   2.922  12.576 -0.0324  0.7794 -0.6595
  334ccc     H1 9944   9.200   2.847  12.653  0.7856  0.8252 -0.8175
  334ccc     H2 9945   9.222   3.022  12.592  0.8631  0.1409  1.2586
  334ccc     C2 9946   9.027   2.928  12.556  0.0194 -0.4597  0.3382
  334ccc     H3 9947   8.985   2.827  12.553 -2.2737  0.4215  0.7965
  334ccc     H4 9948   9.004   2.966  12.456  0.2036 -0.4389  0.3036
  334ccc     C3 9949   8.950   3.007  12.667  0.0109  0.4273  0.7926
  334ccc     H5 9950   8.974   3.114  12.665  1.1890  0.1973  1.7973
  334ccc     H6 9951   8.989   2.978  12.765  1.9125  0.8321  0.1851
  334ccc     N1 9952   8.804   2.991  12.675 -0.4148  0.3423  0.5427
  334ccc     C4 9953   8.737   3.032  12.544 -0.3231  0.3496  0.4094
  334ccc     H7 9954   8.793   3.003  12.454  0.0494  0.6823  0.5337
  334ccc     H8 9955   8.726   3.141  12.535 -0.2872  0.2634 -0.9001
  334ccc     C5 9956   8.598   2.960  12.529  0.4684 -0.5481  0.2102
  334ccc     H9 9957   8.537   2.974  12.619 -2.5186  2.4993 -2.0208
  334ccc    H10 9958   8.555   3.001  12.437  1.6533 -2.5808 -1.3261
  334ccc     C6 9959   8.614   2.812  12.502  0.7663  0.1134 -0.4315
  334ccc     O1 9960   8.720   2.752  12.475 -0.2416 -0.6233 -0.4801
  334ccc     O2 9961   8.501   2.741  12.501 -0.2995 -0.2205 -0.0293
  334ccc    H11 9962   8.421   2.797  12.494 -0.1258  0.1082  0.5527
  334ccc     C7 9963   8.750   3.048  12.796 -0.3567 -0.1205 -0.6005
  334ccc    H12 9964   8.640   3.039  12.794 -0.6912  2.8227  0.6447
  334ccc    H13 9965   8.787   2.990  12.882 -2.1021  0.3325  0.5157
  334ccc     C8 9966   8.789   3.192  12.834  0.6126  0.1716  0.1757
  334ccc    H14 9967   8.897   3.204  12.842  0.5539  0.2053  0.9472
  334ccc    H15 9968   8.758   3.249  12.744  2.8311  1.0172 -0.1254
  334ccc     C9 9969   8.719   3.255  12.954  0.5262  0.2755 -0.0749
  334ccc     O3 9970   8.631   3.334  12.936 -0.3232 -0.5419  0.2277
  334ccc     O4 9971   8.787   3.261  13.066 -0.2591 -0.0864 -0.6747
  334ccc    H16 9972   8.863   3.201  13.060 -1.0535 -1.1620 -0.2553
  334ccc     O5 9973   9.227   2.856  12.451 -0.2298 -0.1412  0.2805
  335ccc     C1 9974   6.550   5.714   9.096  0.6167  0.2738 -0.5097
  335ccc     H1 9975   6.571   5.669   8.999  2.5641  3.3539 -1.6814
  335ccc     H2 9976   6.570   5.641   9.176  1.0836  1.4751  0.5149
  335ccc     C2 9977   6.393   5.748   9.097  0.5540 -0.0690 -0.2057
  335ccc     H3 9978   6.324   5.667   9.072  0.9074  0.3240 -2.6658
  335ccc     H4 9979   6.374   5.817   9.014 -2.7674 -1.2657 -0.5774
  335ccc     C3 9980   6.339   5.797   9.232 -0.3470 -0.4061 -0.2068
  335ccc     H5 9981   6.230   5.807   9.229 -0.6383 -3.0473 -1.4427
  335ccc     H6 9982   6.379   5.898   9.242 -0.6260 -0.1925 -1.1216
  335ccc     N1 9983   6.386   5.724   9.353 -0.0766  0.1284 -0.1678
  335ccc     C4 9984   6.393   5.803   9.479 -0.8557  0.4774  0.7979
  335ccc     H7 9985   6.452   5.892   9.456 -0.7605  0.9627  2.7765
  335ccc     H8 9986   6.441   5.749   9.561  1.0929  1.6405  0.4924
  335ccc     C5 9987   6.254   5.847   9.522  0.1122  0.5007 -0.1046
  335ccc     H9 9988   6.207   5.898   9.437 -2.6748 -0.5016  0.7184
  335ccc    H10 9989   6.196   5.756   9.545  0.4557  0.6321  1.3691
  335ccc     C6 9990   6.248   5.936   9.642  0.1471 -0.3287  1.0885
  335ccc     O1 9991   6.322   6.031   9.657 -0.0995 -0.0997  0.0523
  335ccc     O2 9992   6.153   5.910   9.734  0.7675 -0.0491  0.1075
  335ccc    H11 9993   6.124   5.819   9.717  0.0336 -0.0630  1.3162
  335ccc     C7 9994   6.346   5.584   9.370  0.0215  0.2807  0.2554
  335ccc    H12 9995   6.238   5.575   9.389  0.0650  2.5027  2.0079
  335ccc    H13 9996   6.352   5.557   9.264  0.6204 -0.2405  0.4206
  335ccc     C8 9997   6.426   5.497   9.470  0.1595  0.2318 -0.9513
  335ccc    H14 9998   6.530   5.531   9.472  0.0664  0.5038  0.8684
  335ccc    H15 9999   6.378   5.509   9.568  1.6749  2.1467 -0.4006
  335ccc     C910000   6.429   5.349   9.437  0.0204  0.1256  0.9250
  335ccc     O310001   6.340   5.302   9.371  0.2631  0.3428  0.5980
  335ccc     O410002   6.541   5.280   9.459 -0.3854  0.9814 -0.2386
  335ccc    H1610003   6.606   5.344   9.494  1.6815 -0.9033 -0.4383
  335ccc     O510004   6.625   5.835   9.119 -0.1246  0.1487  0.9425
  336ccc     C110005   7.348   6.276   9.383 -0.2431  0.9474  0.4998
  336ccc     H110006   7.339   6.237   9.485  1.0454 -0.9668 -0.0695
  336ccc     H210007   7.400   6.199   9.325  1.5267  1.2943  1.5404
  336ccc     C210008   7.444   6.394   9.363 -0.3241  0.2742  0.4518
  336ccc     H310009   7.538   6.368   9.414 -1.7271 -4.5301  1.1469
  336ccc     H410010   7.400   6.481   9.413  1.3498  0.7224  1.2182
  336ccc     C310011   7.460   6.428   9.210  0.2828  0.4139 -0.5792
  336ccc     H510012   7.367   6.474   9.174  0.2542  1.7202  1.0217
  336ccc     H610013   7.458   6.330   9.163 -0.8962 -1.1263  2.3775
  336ccc     N110014   7.580   6.504   9.173  0.1713 -0.4556  0.4476
  336ccc     C410015   7.612   6.617   9.264  0.5412 -0.4360 -0.5029
  336ccc     H710016   7.661   6.577   9.354 -0.2175 -1.0791 -0.3649
  336ccc     H810017   7.520   6.662   9.304  1.6699  2.2867 -0.7214
  336ccc     C510018   7.690   6.738   9.196  0.1634  0.1152  0.3781
  336ccc     H910019   7.783   6.698   9.153 -0.0143  1.7539 -1.7095
  336ccc    H1010020   7.620   6.770   9.118  1.0364  0.5823 -0.2301
  336ccc     C610021   7.730   6.850   9.293  0.4276  0.0697 -0.2335
  336ccc     O110022   7.807   6.834   9.389 -1.2063  0.4103  0.0495
  336ccc     O210023   7.654   6.962   9.291 -0.6847 -0.1695 -0.1550
  336ccc    H1110024   7.589   6.953   9.219  0.2712 -2.7951 -0.7980
  336ccc     C710025   7.697   6.422   9.151 -0.1889  0.1238  0.7815
  336ccc    H1210026   7.785   6.484   9.167 -0.4489  0.1964  2.0805
  336ccc    H1310027   7.706   6.350   9.233  3.0172 -0.0055  0.4381
  336ccc     C810028   7.689   6.340   9.019  0.0035  0.6088  0.0592
  336ccc    H1410029   7.777   6.275   9.005  0.8437  1.6773  0.2303
  336ccc    H1510030   7.600   6.276   9.017  1.1045 -1.0036 -1.1155
  336ccc     C910031   7.694   6.426   8.897 -0.6015 -0.3054  0.5516
  336ccc     O310032   7.806   6.462   8.862  0.1686  0.0540  0.9583
  336ccc     O410033   7.584   6.416   8.814 -0.8279  0.1183 -0.2846
  336ccc    H1610034   7.514   6.397   8.879  2.6980 -1.0848  3.6759
  336ccc     O510035   7.222   6.307   9.325 -0.1901 -0.2417 -0.5919
  337ccc     C110036   6.824   4.216   9.686 -0.0158 -0.8789  0.1735
  337ccc     H110037   6.798   4.314   9.729  0.5343 -1.0680  0.9418
  337ccc     H210038   6.743   4.146   9.706  0.6358 -1.8328 -0.4542
  337ccc     C210039   6.948   4.171   9.757 -0.4357  0.2452 -0.1741
  337ccc     H310040   6.936   4.194   9.863 -1.9414  0.5432 -0.3805
  337ccc     H410041   7.021   4.240   9.714 -1.3143 -0.0971 -2.3820
  337ccc     C310042   6.981   4.022   9.728  0.0990  0.3326  0.0574
  337ccc     H510043   6.980   3.998   9.621  0.3530 -1.2574  0.3823
  337ccc     H610044   6.898   3.968   9.775  0.4534  0.1988  0.5322
  337ccc     N110045   7.109   3.973   9.778 -0.1194 -0.0836  0.7729
  337ccc     C410046   7.128   3.820   9.756  0.0366 -0.0474 -1.2021
  337ccc     H710047   7.221   3.781   9.799 -0.2652 -1.2635 -1.6400
  337ccc     H810048   7.140   3.800   9.649  0.6252 -1.7428 -0.8539
  337ccc     C510049   6.999   3.731   9.795 -0.3165  0.3770  0.5283
  337ccc     H910050   6.966   3.752   9.898 -0.9263 -0.0151  0.4146
  337ccc    H1010051   6.921   3.766   9.727  1.0437  0.2835 -1.1408
  337ccc     C610052   7.026   3.584   9.787  0.0649 -0.6279 -0.2274
  337ccc     O110053   7.134   3.537   9.818 -0.4389 -0.2376  0.1969
  337ccc     O210054   6.917   3.503   9.772  0.3767  0.3174  0.2538
  337ccc    H1110055   6.842   3.564   9.762  0.1464  0.3228  1.7499
  337ccc     C710056   7.224   4.047   9.736  0.4385 -0.3493  0.2240
  337ccc    H1210057   7.220   4.027   9.628 -1.4916 -1.5255  0.4780
  337ccc    H1310058   7.195   4.153   9.747 -1.9921 -0.1537 -5.0172
  337ccc     C810059   7.354   4.010   9.793 -0.4628  1.0079  0.1495
  337ccc    H1410060   7.343   4.008   9.902 -1.6593 -1.4984  0.0383
  337ccc    H1510061   7.383   3.911   9.756  1.0655  1.4778 -0.0077
  337ccc     C910062   7.453   4.118   9.766 -0.3721 -0.1853 -0.1408
  337ccc     O310063   7.458   4.171   9.661  0.4935  0.2616  0.1839
  337ccc     O410064   7.554   4.127   9.855 -0.4829  0.1470  0.4337
  337ccc    H1610065   7.516   4.069   9.923 -2.8040  3.2061  1.9707
  337ccc     O510066   6.847   4.217   9.542  0.2298 -0.1658 -0.2612
  338ccc     C110067   6.532   4.670   9.163 -0.7819 -1.0708 -0.0609
  338ccc     H110068   6.469   4.607   9.226  0.1165  0.2276  2.2451
  338ccc     H210069   6.582   4.750   9.220 -1.2305  0.0054 -1.1286
  338ccc     C210070   6.437   4.749   9.074  1.0807 -1.0005 -0.1995
  338ccc     H310071   6.385   4.673   9.015  1.0111 -0.1491 -1.2540
  338ccc     H410072   6.494   4.818   9.011 -0.9772  2.3150  1.3082
  338ccc     C310073   6.331   4.815   9.169  0.0296  0.3799 -0.3268
  338ccc     H510074   6.281   4.735   9.225  1.6416  1.6422  3.2179
  338ccc     H610075   6.260   4.853   9.094 -0.4720 -3.1878 -1.8371
  338ccc     N110076   6.388   4.908   9.271  0.4142 -0.6214 -0.2055
  338ccc     C410077   6.295   4.944   9.375 -0.6534 -0.3345 -0.2606
  338ccc     H710078   6.217   4.997   9.319  0.2603  1.2946 -0.0536
  338ccc     H810079   6.343   5.015   9.444  0.7295 -2.3015  0.8866
  338ccc     C510080   6.240   4.835   9.472 -0.8658 -0.5396  0.3437
  338ccc     H910081   6.202   4.752   9.411 -0.1725 -0.6103  0.0002
  338ccc    H1010082   6.328   4.803   9.529 -1.1082  0.5518  1.3757
  338ccc     C610083   6.126   4.879   9.560  0.8548 -0.6297 -0.5245
  338ccc     O110084   6.129   4.929   9.670  0.3229  0.5752  0.0803
  338ccc     O210085   6.006   4.859   9.498  0.4807  0.4721  0.0703
  338ccc    H1110086   6.026   4.830   9.408 -2.1243  1.5457 -0.9432
  338ccc     C710087   6.476   5.015   9.215 -0.4208 -1.1203  0.7504
  338ccc    H1210088   6.522   5.070   9.298  3.8622 -2.9044 -0.1891
  338ccc    H1310089   6.562   4.980   9.156 -0.1602 -2.0170  1.6411
  338ccc     C810090   6.394   5.108   9.116  0.4048  0.2494  0.3731
  338ccc    H1410091   6.348   5.056   9.031 -0.4096 -0.0028  0.9549
  338ccc    H1510092   6.313   5.159   9.170 -1.9435 -1.6615 -1.1634
  338ccc     C910093   6.493   5.209   9.045  0.2866  0.3681 -1.0849
  338ccc     O310094   6.592   5.177   8.988  0.1267 -0.6892  0.1642
  338ccc     O410095   6.453   5.335   9.037 -0.0868 -0.2484 -0.0469
  338ccc    H1610096   6.359   5.321   9.058  0.3280 -2.3582  0.6141
  338ccc     O510097   6.622   4.591   9.087  0.2670 -0.0614 -0.3238
  339ccc     C110098   8.847   4.118   9.872 -0.2932  0.4738  0.1260
  339ccc     H110099   8.755   4.132   9.815 -0.0009 -0.8542 -0.7253
  339ccc     H210100   8.811   4.109   9.975  2.0308 -1.4701  0.8725
  339ccc     C210101   8.926   4.244   9.842  0.2589  0.3455  0.6356
  339ccc     H310102   8.859   4.331   9.833 -0.6045 -0.2370  1.3963
  339ccc     H410103   8.958   4.232   9.737 -1.6431 -1.3197  0.1783
  339ccc     C310104   9.038   4.275   9.947 -0.2613  0.6023  0.1225
  339ccc     H510105   8.991   4.280  10.046 -1.0680  0.3133 -0.2407
  339ccc     H610106   9.084   4.373   9.928  0.2008  0.1448 -1.3237
  339ccc     N110107   9.153   4.176   9.958  0.0318 -0.9280  0.1157
  339ccc     C410108   9.234   4.166   9.836  0.3455  0.0524 -0.1077
  339ccc     H710109   9.169   4.166   9.748  1.2084  3.0554 -0.8574
  339ccc     H810110   9.285   4.070   9.843  1.6280  0.6316 -1.1428
  339ccc     C510111   9.352   4.265   9.825 -0.2760 -0.4169 -0.9142
  339ccc     H910112   9.305   4.364   9.825 -1.2611 -0.8518  0.2507
  339ccc    H1010113   9.414   4.261   9.915  0.4494  0.7598 -1.3367
  339ccc     C610114   9.431   4.229   9.702  0.3502  0.1198 -0.4482
  339ccc     O110115   9.437   4.120   9.648  0.2215  0.1650 -0.3160
  339ccc     O210116   9.525   4.323   9.674  0.3043  0.3949 -0.3062
  339ccc    H1110117   9.527   4.399   9.735  2.9786  0.4009 -0.2667
  339ccc     C710118   9.226   4.178  10.089 -0.8170 -0.1908  0.5258
  339ccc    H1210119   9.329   4.141  10.082  0.1555  2.2938  0.5584
  339ccc    H1310120   9.250   4.281  10.118  1.0200 -0.5977  0.6255
  339ccc     C810121   9.146   4.121  10.212  0.5996 -0.1046  0.3731
  339ccc    H1410122   9.075   4.200  10.240  0.4248  0.0418 -0.4471
  339ccc    H1510123   9.080   4.037  10.190 -0.1086  0.4932  0.1783
  339ccc     C910124   9.216   4.088  10.340 -0.0274 -0.3750 -0.7089
  339ccc     O310125   9.325   4.137  10.367  0.0371 -0.2348  0.0214
  339ccc     O410126   9.148   4.018  10.429  0.1432 -0.0210 -0.2709
  339ccc    H1610127   9.056   4.025  10.399 -0.1429  1.0282  0.7518
  339ccc     O510128   8.908   3.989   9.824 -0.1279 -0.3100 -0.1103
  340ccc     C110129   8.648   3.096  10.146 -0.1514 -0.1658 -0.2114
  340ccc     H110130   8.685   3.004  10.098  0.7303  0.0070  0.1173
  340ccc     H210131   8.680   3.083  10.250  1.5152 -0.3065 -0.7022
  340ccc     C210132   8.490   3.093  10.148 -0.2687  0.3534  0.5502
  340ccc     H310133   8.460   2.997  10.192 -0.9336 -0.8745 -2.3637
  340ccc     H410134   8.456   3.081  10.044  1.3323  0.2624  0.0212
  340ccc     C310135   8.431   3.219  10.214  0.3756 -0.1326  0.5168
  340ccc     H510136   8.478   3.307  10.168  1.5942 -0.8611  0.3074
  340ccc     H610137   8.471   3.221  10.316 -2.6991  0.9393  1.8340
  340ccc     N110138   8.285   3.236  10.228 -0.3660  0.2102 -0.5769
  340ccc     C410139   8.218   3.270  10.108  0.2135 -0.7280 -0.1395
  340ccc     H710140   8.109   3.279  10.122  0.0270 -2.4848 -0.2242
  340ccc     H810141   8.243   3.200  10.027  2.9486 -0.7587  0.6508
  340ccc     C510142   8.253   3.408  10.050  0.5644  0.1339  0.7823
  340ccc     H910143   8.228   3.484  10.125  1.4024  1.2815 -0.0559
  340ccc    H1010144   8.362   3.417  10.042  0.4666  1.1403  0.4526
  340ccc     C610145   8.164   3.439   9.930 -0.1423  0.3710 -0.2625
  340ccc     O110146   8.053   3.392   9.918  0.1815  0.7057  0.2844
  340ccc     O210147   8.242   3.476   9.822 -0.0276  0.0386 -0.3394
  340ccc    H1110148   8.323   3.522   9.851  0.5287 -0.8352 -0.4917
  340ccc     C710149   8.220   3.116  10.292  0.3123  0.3624 -0.1015
  340ccc    H1210150   8.110   3.125  10.290  0.0032 -2.2114  1.1117
  340ccc    H1310151   8.229   3.030  10.225 -0.6025 -0.7843  1.1924
  340ccc     C810152   8.272   3.084  10.438  0.3021 -0.2262  0.6101
  340ccc    H1410153   8.379   3.059  10.429  0.3546  0.6087 -1.8395
  340ccc    H1510154   8.266   3.180  10.490  1.0282  0.3847 -0.3895
  340ccc     C910155   8.185   2.983  10.520  0.0936  0.4899 -0.8777
  340ccc     O310156   8.090   2.924  10.469  0.2904  1.0006  0.6665
  340ccc     O410157   8.235   2.954  10.644  0.3539 -0.8594  0.4128
  340ccc    H1610158   8.297   3.027  10.660 -1.6061  1.2227 -0.9220
  340ccc     O510159   8.697   3.222  10.099 -0.4294  0.0854  0.4659
  341ccc     C110160   8.238   3.858  11.011  1.0071 -0.5937 -0.3393
  341ccc     H110161   8.203   3.819  11.108  0.3360 -1.9476 -1.1009
  341ccc     H210162   8.342   3.892  11.020  0.5190  1.1288 -0.7933
  341ccc     C210163   8.154   3.977  10.954  0.1073 -0.0445  0.1122
  341ccc     H310164   8.149   4.056  11.030  2.2911 -0.7736  1.0965
  341ccc     H410165   8.053   3.947  10.924  0.4589 -0.4391 -0.6992
  341ccc     C310166   8.234   4.037  10.835 -0.1544  0.2037 -0.3822
  341ccc     H510167   8.159   4.088  10.773  0.3021 -1.6641 -2.6152
  341ccc     H610168   8.286   3.957  10.780  1.2450 -0.3897  1.6719
  341ccc     N110169   8.342   4.128  10.876  0.8103 -0.4912 -0.3085
  341ccc     C410170   8.452   4.145  10.776  0.5139 -0.3846 -1.3857
  341ccc     H710171   8.517   4.231  10.796  0.3731 -0.6031  0.1061
  341ccc     H810172   8.408   4.167  10.678 -0.0109  0.4327 -0.9747
  341ccc     C510173   8.546   4.024  10.773  0.0951 -0.3231 -0.3381
  341ccc     H910174   8.603   4.031  10.866 -1.6296  1.7583  0.6546
  341ccc    H1010175   8.490   3.930  10.763 -0.5678  0.2504 -2.5005
  341ccc     C610176   8.642   4.034  10.654 -0.2410  0.0701 -1.1110
  341ccc     O110177   8.631   4.108  10.560  0.1547  0.1954 -0.3461
  341ccc     O210178   8.747   3.953  10.659  0.0380  0.0367  0.7702
  341ccc    H1110179   8.747   3.902  10.742 -1.0551 -0.7910  0.2905
  341ccc     C710180   8.279   4.261  10.897 -0.0342  0.0329 -0.4931
  341ccc    H1210181   8.260   4.311  10.801  0.7357  1.7297  0.2046
  341ccc    H1310182   8.192   4.253  10.962 -1.1626  1.7188 -1.7278
  341ccc     C810183   8.378   4.350  10.980  0.2919 -0.2354  0.0053
  341ccc    H1410184   8.409   4.292  11.067  0.3465 -0.0254  0.1259
  341ccc    H1510185   8.469   4.378  10.925 -0.1258 -0.7592 -0.9880
  341ccc     C910186   8.308   4.477  11.026 -0.3864 -0.6603  0.3261
  341ccc     O310187   8.216   4.486  11.109 -0.1640  0.4131 -0.0615
  341ccc     O410188   8.322   4.579  10.934  0.4172 -0.0138  0.0382
  341ccc    H1610189   8.389   4.555  10.868  0.4463 -2.0874  0.7499
  341ccc     O510190   8.232   3.750  10.913  0.4981 -0.3546  0.0056
  342ccc     C110191   8.920   3.218  10.557 -0.4491 -0.0663 -0.3531
  342ccc     H110192   8.881   3.117  10.539 -0.3010 -0.1824 -0.0254
  342ccc     H210193   8.969   3.262  10.470  0.0866  1.4393  0.6613
  342ccc     C210194   9.028   3.191  10.663  0.2074 -0.3724  0.1684
  342ccc     H310195   9.058   3.281  10.717  2.2382 -0.0414 -1.3599
  342ccc     H410196   9.119   3.150  10.617  2.0650  0.6899  2.6385
  342ccc     C310197   8.987   3.074  10.761  0.2278 -0.2176 -0.2106
  342ccc     H510198   8.943   2.992  10.703  1.0248 -1.4382  0.8691
  342ccc     H610199   8.909   3.097  10.834  0.3481 -0.2515 -0.0706
  342ccc     N110200   9.102   3.018  10.837  0.5418 -0.1117 -0.2682
  342ccc     C410201   9.094   2.870  10.877  0.1488  0.0975  0.0570
  342ccc     H710202   9.004   2.837  10.930  1.7698 -1.3991  2.0128
  342ccc     H810203   9.177   2.835  10.939  0.0531 -0.7320 -0.2645
  342ccc     C510204   9.103   2.781  10.751 -0.4186  0.5173 -0.4128
  342ccc     H910205   9.018   2.806  10.686 -0.3249 -1.6725 -1.4731
  342ccc    H1010206   9.184   2.816  10.687 -0.8705  0.3661 -1.0853
  342ccc     C610207   9.118   2.633  10.770  0.1347 -0.0877  0.0158
  342ccc     O110208   9.225   2.584  10.797  0.3944  0.5123 -0.1204
  342ccc     O210209   9.010   2.564  10.739  0.0751  0.2038 -0.1829
  342ccc    H1110210   8.938   2.627  10.727 -1.1355 -1.3540 -1.7227
  342ccc     C710211   9.120   3.109  10.956 -0.5373 -0.1803  0.6888
  342ccc    H1210212   9.114   3.216  10.934  1.4064 -0.4657 -1.6124
  342ccc    H1310213   9.043   3.080  11.029 -1.8926 -0.8865 -0.9598
  342ccc     C810214   9.264   3.099  11.019 -0.0668  0.3459 -0.0819
  342ccc    H1410215   9.312   3.000  11.016 -1.8333 -0.5405 -0.3850
  342ccc    H1510216   9.314   3.179  10.963 -0.5797  1.4896  1.0391
  342ccc     C910217   9.277   3.149  11.162  0.3895 -0.2175 -0.4752
  342ccc     O310218   9.363   3.224  11.205  0.1010 -0.7507  0.2672
  342ccc     O410219   9.180   3.111  11.249 -0.6389  0.0619 -0.0321
  342ccc    H1610220   9.124   3.051  11.197 -2.9650  1.6769  0.4507
  342ccc     O510221   8.805   3.300  10.609 -0.5196  0.8238  0.0388
  343ccc     C110222   8.545   6.214  10.653 -0.3100  0.2945 -0.2024
  343ccc     H110223   8.570   6.249  10.552 -0.4338  1.9040  0.2945
  343ccc     H210224   8.489   6.297  10.698 -2.7574 -0.6754 -1.2848
  343ccc     C210225   8.678   6.193  10.729 -0.0488  0.0850  0.3959
  343ccc     H310226   8.732   6.117  10.671 -1.0327  0.0082 -0.4487
  343ccc     H410227   8.665   6.152  10.830 -0.1168 -0.0660  0.3271
  343ccc     C310228   8.763   6.322  10.719 -0.1271  0.2088  0.0922
  343ccc     H510229   8.776   6.341  10.611 -0.4742 -0.9476 -0.1696
  343ccc     H610230   8.860   6.294  10.762 -0.7144 -1.7686  0.2444
  343ccc     N110231   8.718   6.443  10.780  0.4354  0.0328 -0.2628
  343ccc     C410232   8.701   6.432  10.924 -0.3031 -0.9986  0.3117
  343ccc     H710233   8.794   6.400  10.974 -0.8753 -1.3509  1.1681
  343ccc     H810234   8.626   6.354  10.944 -0.6762 -0.8002 -0.2714
  343ccc     C510235   8.640   6.567  10.985 -0.0297 -0.4658  0.2270
  343ccc     H910236   8.704   6.656  10.983 -2.0509  1.0828  1.0242
  343ccc    H1010237   8.555   6.583  10.917 -0.3005 -0.5655  0.5376
  343ccc     C610238   8.593   6.543  11.128  0.3106 -0.2645 -0.3325
  343ccc     O110239   8.614   6.432  11.178 -0.3031  0.3100  0.2830
  343ccc     O210240   8.476   6.602  11.159 -0.1787  0.4333 -0.2302
  343ccc    H1110241   8.463   6.675  11.096  0.6899  0.0191 -0.9107
  343ccc     C710242   8.794   6.560  10.729 -0.3849  1.2939 -0.0436
  343ccc    H1210243   8.774   6.644  10.797 -1.2686 -0.0583  1.4474
  343ccc    H1310244   8.899   6.529  10.734 -0.3700  1.5147  2.4966
  343ccc     C810245   8.753   6.606  10.589  0.7584 -0.5078 -0.4288
  343ccc    H1410246   8.767   6.529  10.511  0.5562 -0.3295 -0.6393
  343ccc    H1510247   8.645   6.623  10.581  0.5165 -1.4351  0.5952
  343ccc     C910248   8.830   6.732  10.547  0.1592  0.7983 -0.8003
  343ccc     O310249   8.938   6.726  10.492  0.3744  0.0610 -0.0772
  343ccc     O410250   8.771   6.853  10.582  0.1254  0.8121 -0.1431
  343ccc    H1610251   8.691   6.835  10.634 -0.0776 -2.0376 -1.2636
  343ccc     O510252   8.467   6.092  10.669  0.0070  0.1763  0.2687
  344ccc     C110253   7.484   5.776  10.656 -0.2681  0.5771 -0.4826
  344ccc     H110254   7.394   5.714  10.646 -0.9468  1.5941 -0.7814
  344ccc     H210255   7.478   5.848  10.739 -1.3380 -1.0267  0.8989
  344ccc     C210256   7.479   5.862  10.525 -0.3583  1.2899 -0.7658
  344ccc     H310257   7.398   5.936  10.533 -0.6863  0.8033  0.9835
  344ccc     H410258   7.453   5.793  10.444  0.3073  0.0179  0.0618
  344ccc     C310259   7.606   5.932  10.495 -0.1042 -0.1568 -0.4823
  344ccc     H510260   7.684   5.871  10.543 -1.2984 -0.4005  1.2133
  344ccc     H610261   7.599   6.031  10.541 -2.8901 -0.2068 -0.6167
  344ccc     N110262   7.619   5.958  10.348 -0.5232 -0.2835 -0.2134
  344ccc     C410263   7.519   6.056  10.290 -0.2962 -0.4892 -0.3534
  344ccc     H710264   7.525   6.150  10.345  0.8546 -0.8411  0.1537
  344ccc     H810265   7.420   6.012  10.308 -1.3839  2.3523  1.2151
  344ccc     C510266   7.529   6.061  10.136 -0.0166 -0.1491  0.1193
  344ccc     H910267   7.614   6.119  10.098 -0.4826 -0.2703 -1.1205
  344ccc    H1010268   7.544   5.962  10.091  4.2519  1.0389 -1.5531
  344ccc     C610269   7.409   6.125  10.076  0.0419 -0.0247  0.2348
  344ccc     O110270   7.313   6.155  10.141 -0.1783  0.2220  0.6232
  344ccc     O210271   7.411   6.098   9.941  0.3235 -0.0681 -0.8572
  344ccc    H1110272   7.501   6.064   9.927  0.3460 -0.2685 -0.2651
  344ccc     C710273   7.756   6.001  10.313  0.2053  0.1753 -0.5434
  344ccc    H1210274   7.821   5.916  10.335 -1.1921 -0.7642  0.1377
  344ccc    H1310275   7.773   6.006  10.205  2.7936  2.8571 -0.1347
  344ccc     C810276   7.807   6.129  10.372 -1.0352  0.0417 -0.5799
  344ccc    H1410277   7.760   6.215  10.325 -0.8412  0.2590 -0.3833
  344ccc    H1510278   7.790   6.148  10.479  0.2962  1.0209 -0.5176
  344ccc     C910279   7.960   6.137  10.352 -0.3731 -0.5965 -0.1835
  344ccc     O310280   8.030   6.079  10.273 -0.5461 -0.1968 -0.1278
  344ccc     O410281   8.020   6.237  10.417 -0.0373  0.0161 -0.5057
  344ccc    H1610282   7.955   6.294  10.463  0.4729 -0.1397  0.4305
  344ccc     O510283   7.604   5.694  10.669 -0.3417 -0.0237 -0.7199
  345ccc     C110284   8.460   6.380   9.324  0.1740  0.1267 -0.1085
  345ccc     H110285   8.533   6.430   9.388 -0.6564  0.1056  0.8765
  345ccc     H210286   8.517   6.337   9.240  2.2109 -0.3746  1.4487
  345ccc     C210287   8.341   6.471   9.287  0.1422 -0.3226  0.1044
  345ccc     H310288   8.392   6.547   9.226  1.6904  0.1958  1.9445
  345ccc     H410289   8.301   6.521   9.376 -0.7558 -0.4416 -0.2109
  345ccc     C310290   8.225   6.400   9.215  0.6858  0.2406 -0.1241
  345ccc     H510291   8.216   6.306   9.271 -0.1221  0.6433  0.4390
  345ccc     H610292   8.251   6.370   9.112  0.8966  0.6625 -0.1942
  345ccc     N110293   8.101   6.487   9.217 -1.0124 -0.3442  0.2461
  345ccc     C410294   8.034   6.491   9.345  0.1881  0.0449 -0.5254
  345ccc     H710295   7.947   6.559   9.344 -0.8778 -1.1482  2.3782
  345ccc     H810296   8.094   6.536   9.425 -2.7073  0.2772  1.6850
  345ccc     C510297   7.985   6.352   9.391 -0.2716  0.6238  0.8242
  345ccc     H910298   7.956   6.290   9.305  3.1700 -0.2974  0.1911
  345ccc    H1010299   8.068   6.294   9.432 -0.2762 -0.1697 -0.2422
  345ccc     C610300   7.870   6.369   9.489 -0.0769  0.1599 -0.0176
  345ccc     O110301   7.818   6.479   9.515  0.3030  0.9064 -0.1414
  345ccc     O210302   7.820   6.257   9.551  0.4893 -0.3602 -0.7808
  345ccc    H1110303   7.859   6.177   9.511 -0.5480 -1.1969 -0.1572
  345ccc     C710304   8.124   6.630   9.161 -0.1201  0.0099 -1.1183
  345ccc    H1210305   8.028   6.683   9.163 -0.8033 -1.2163 -0.4074
  345ccc    H1310306   8.184   6.690   9.230 -2.2562 -1.7465  2.5654
  345ccc     C810307   8.180   6.626   9.021 -0.4366 -0.1401  0.3082
  345ccc    H1410308   8.289   6.615   9.019 -0.3657 -0.3384 -3.8864
  345ccc    H1510309   8.140   6.547   8.956  0.5610 -1.1589  0.8864
  345ccc     C910310   8.147   6.757   8.945 -0.3027 -0.0199 -0.0398
  345ccc     O310311   8.055   6.836   8.964 -0.3085  0.0032  0.6491
  345ccc     O410312   8.238   6.789   8.849  0.1746  0.5207  0.3544
  345ccc    H1610313   8.200   6.864   8.800  2.1536  1.4254  0.1210
  345ccc     O510314   8.407   6.275   9.404 -0.8010  0.3591  0.0013
  346ccc     C110315   7.947   6.340   9.956 -0.4715 -0.2533 -0.1473
  346ccc     H110316   7.887   6.345  10.048 -1.1835  0.1447 -0.6201
  346ccc     H210317   8.047   6.365   9.992 -0.6212 -1.3865  1.1124
  346ccc     C210318   7.900   6.451   9.860  0.6026  0.2267 -0.1094
  346ccc     H310319   7.794   6.437   9.838  0.6444 -1.1302  0.4233
  346ccc     H410320   7.958   6.439   9.767  1.9125 -1.3439  0.8416
  346ccc     C310321   7.919   6.593   9.915 -0.0102  0.9560 -0.2278
  346ccc     H510322   8.021   6.608   9.953 -0.7018  0.6001  1.9050
  346ccc     H610323   7.857   6.594  10.006  0.7714 -2.6244  0.5072
  346ccc     N110324   7.879   6.698   9.822  0.6596 -0.2772  0.1875
  346ccc     C410325   7.738   6.685   9.779  0.5881 -0.2808 -0.7198
  346ccc     H710326   7.667   6.670   9.861 -0.3429 -0.0383 -1.4615
  346ccc     H810327   7.742   6.599   9.711 -1.7219 -2.3719  1.5363
  346ccc     C510328   7.665   6.804   9.702 -0.5245 -0.5040  0.2512
  346ccc     H910329   7.622   6.874   9.775 -1.0993 -0.1705 -0.3827
  346ccc    H1010330   7.732   6.870   9.645 -3.3087 -0.3125 -3.1465
  346ccc     C610331   7.560   6.765   9.604  0.2748 -0.4849  0.3274
  346ccc     O110332   7.515   6.658   9.585 -0.3608  0.3581 -0.5835
  346ccc     O210333   7.483   6.878   9.568  0.2766  0.1043  0.4620
  346ccc    H1110334   7.520   6.962   9.601 -0.8325  0.1657  1.6636
  346ccc     C710335   7.973   6.726   9.714  0.1861  0.4580 -0.3953
  346ccc    H1210336   8.023   6.633   9.684 -3.5395 -2.1212  0.7276
  346ccc    H1310337   7.924   6.774   9.628  2.0696  1.8705 -0.7632
  346ccc     C810338   8.081   6.826   9.771  0.1705 -0.5295  0.8193
  346ccc    H1410339   8.028   6.916   9.803 -0.6536 -0.6830 -0.0509
  346ccc    H1510340   8.128   6.794   9.865 -0.6485  2.2345  2.2798
  346ccc     C910341   8.179   6.873   9.672 -0.4794  0.0820 -0.2268
  346ccc     O310342   8.186   6.830   9.560 -0.2821 -0.6879  0.2329
  346ccc     O410343   8.255   6.976   9.701 -0.4449  0.1567 -0.2027
  346ccc    H1610344   8.242   6.989   9.797  0.3253  1.7813 -0.2781
  346ccc     O510345   7.934   6.211   9.893  0.1821 -0.1148  0.0584
  347ccc     C110346   8.713   3.754   8.981  0.4830  0.6135  0.2565
  347ccc     H110347   8.705   3.662   8.923  1.8065  0.4474  0.3129
  347ccc     H210348   8.761   3.727   9.076 -1.7027  2.6099  2.0787
  347ccc     C210349   8.575   3.818   8.999 -0.5696  0.4803  0.0133
  347ccc     H310350   8.502   3.748   9.040 -0.2196  0.8513  1.3101
  347ccc     H410351   8.531   3.841   8.901 -1.5916  3.5754  1.0635
  347ccc     C310352   8.579   3.948   9.089  0.1981  0.0248 -0.2734
  347ccc     H510353   8.648   4.027   9.056 -2.4762  2.2495 -0.9348
  347ccc     H610354   8.614   3.904   9.184 -1.8244 -0.1516  0.4311
  347ccc     N110355   8.444   4.015   9.097  0.0135  0.2603 -0.8234
  347ccc     C410356   8.434   4.066   9.246 -0.5775  0.5056 -0.1180
  347ccc     H710357   8.521   4.127   9.274 -0.6971 -0.2900  2.1690
  347ccc     H810358   8.446   3.977   9.309 -1.2621 -0.6607 -1.5897
  347ccc     C510359   8.295   4.128   9.284  0.1553  1.2513 -0.4868
  347ccc     H910360   8.308   4.235   9.264  0.6879  2.0269  3.2125
  347ccc    H1010361   8.223   4.076   9.220  2.0379 -2.7995  0.3103
  347ccc     C610362   8.258   4.116   9.434  0.6584 -0.6004  0.3904
  347ccc     O110363   8.328   4.056   9.517  0.1733 -0.0810  0.9165
  347ccc     O210364   8.162   4.207   9.476 -0.1960 -0.2706 -0.3369
  347ccc    H1110365   8.127   4.230   9.388  1.9943 -1.6243 -1.6500
  347ccc     C710366   8.402   4.108   8.989 -0.4592 -0.6971  0.0971
  347ccc    H1210367   8.394   4.047   8.899 -2.4727 -0.2077 -0.0934
  347ccc    H1310368   8.304   4.146   9.020 -0.0810 -1.5177  2.4923
  347ccc     C810369   8.497   4.224   8.955 -0.4217 -0.1343 -0.0384
  347ccc    H1410370   8.511   4.288   9.043  5.4519  0.5248 -1.0248
  347ccc    H1510371   8.599   4.189   8.936 -0.7906 -1.1587 -0.2237
  347ccc     C910372   8.466   4.320   8.837  0.8152 -0.3784 -0.8324
  347ccc     O310373   8.361   4.386   8.827 -0.0721 -0.1533  0.7276
  347ccc     O410374   8.559   4.313   8.742  0.1266 -0.2068 -0.5250
  347ccc    H1610375   8.625   4.273   8.801  0.4732 -1.7026 -1.8436
  347ccc     O510376   8.795   3.847   8.908  0.4970  0.1963  0.1223
  348ccc     C110377   9.199   3.441   9.502  0.4870 -0.3873  0.1182
  348ccc     H110378   9.289   3.475   9.554 -0.7886  1.6160  1.1282
  348ccc     H210379   9.107   3.493   9.532  0.7984  0.2672 -0.0580
  348ccc     C210380   9.180   3.289   9.530  0.0713 -0.6908 -0.0250
  348ccc     H310381   9.158   3.280   9.637 -1.8202  2.4958 -0.0227
  348ccc     H410382   9.278   3.243   9.512 -0.0876 -0.9234 -0.3177
  348ccc     C310383   9.055   3.230   9.454  0.4440 -0.2253 -0.0666
  348ccc     H510384   9.071   3.228   9.346  1.4458 -2.3324  0.0633
  348ccc     H610385   8.969   3.294   9.473  0.8048  0.8376 -1.7991
  348ccc     N110386   9.023   3.095   9.502  0.4583  0.0399  0.3279
  348ccc     C410387   9.115   2.992   9.461  0.9270  0.2949  0.0500
  348ccc     H710388   9.215   3.034   9.443 -0.5913  2.9989 -3.2725
  348ccc     H810389   9.093   2.962   9.358 -0.4172  0.5324  0.2453
  348ccc     C510390   9.122   2.871   9.566  0.4653 -0.5337 -0.2014
  348ccc     H910391   9.029   2.812   9.571  1.0795 -1.5748 -0.6969
  348ccc    H1010392   9.199   2.799   9.536 -0.9633 -1.0693 -2.8402
  348ccc     C610393   9.150   2.916   9.705 -0.4844  0.5792  0.0333
  348ccc     O110394   9.063   2.931   9.788 -0.2778 -0.2972 -0.5200
  348ccc     O210395   9.281   2.947   9.728  0.4194  1.1011  0.0386
  348ccc    H1110396   9.328   2.910   9.651 -1.9316 -1.2881 -0.3817
  348ccc     C710397   8.878   3.057   9.500 -1.1343  0.4359 -0.0825
  348ccc    H1210398   8.866   2.959   9.546  0.6312 -0.1521 -0.7678
  348ccc    H1310399   8.819   3.139   9.543 -2.0481  0.2485 -0.9351
  348ccc     C810400   8.837   3.051   9.347  0.1955  0.3476  0.4018
  348ccc    H1410401   8.860   3.143   9.293 -1.0808  0.9109  0.7778
  348ccc    H1510402   8.892   2.973   9.293  1.5137  0.8630  0.9294
  348ccc     C910403   8.684   3.033   9.336  0.1403  0.0907  0.1961
  348ccc     O310404   8.605   3.047   9.430 -0.3068 -0.0509 -0.3381
  348ccc     O410405   8.654   2.979   9.212 -0.3122 -0.5131  0.0612
  348ccc    H1610406   8.738   2.948   9.173 -0.9286 -1.2453 -0.7274
  348ccc     O510407   9.220   3.465   9.355 -0.1650  0.2239  0.3828
  349ccc     C110408   8.508   5.488   8.794  0.0646 -0.3571 -0.4424
  349ccc     H110409   8.556   5.491   8.892  1.1404 -0.2651 -0.9548
  349ccc     H210410   8.481   5.590   8.764 -0.7789  0.4459  2.6883
  349ccc     C210411   8.385   5.406   8.792  0.3720  0.2182  0.1686
  349ccc     H310412   8.346   5.419   8.690 -0.8552 -2.3220  0.2298
  349ccc     H410413   8.314   5.442   8.867  0.0555 -2.6839  1.4057
  349ccc     C310414   8.395   5.252   8.831  0.1199  0.2915 -0.1473
  349ccc     H510415   8.411   5.251   8.940 -1.2043 -2.4670  0.0796
  349ccc     H610416   8.479   5.194   8.790  1.1598 -2.1725  4.7515
  349ccc     N110417   8.279   5.167   8.802  0.7514  0.3257 -0.0305
  349ccc     C410418   8.264   5.151   8.653  1.0448 -0.0358  0.3520
  349ccc     H710419   8.358   5.153   8.597 -0.3410  1.7743 -2.1078
  349ccc     H810420   8.204   5.233   8.613  2.2839  1.9902  2.4276
  349ccc     C510421   8.202   5.010   8.619 -0.1641  0.1619 -0.7420
  349ccc     H910422   8.240   4.926   8.679  3.3999  0.9440 -1.6830
  349ccc    H1010423   8.094   5.011   8.642 -0.1694 -0.9706 -0.6639
  349ccc     C610424   8.217   4.977   8.472 -0.7898  0.3109 -0.1558
  349ccc     O110425   8.126   4.978   8.388 -0.4216 -0.0532  0.2160
  349ccc     O210426   8.333   4.918   8.435 -0.4977 -0.7929 -0.5053
  349ccc    H1110427   8.392   4.918   8.513 -2.3768 -1.7771  0.9858
  349ccc     C710428   8.145   5.216   8.853 -0.0827  0.1512 -0.2299
  349ccc    H1210429   8.121   5.315   8.814 -0.5110 -0.3400 -1.2661
  349ccc    H1310430   8.069   5.150   8.811 -0.4680 -0.7129  1.6951
  349ccc     C810431   8.131   5.198   9.008  0.4002 -0.1852  0.4405
  349ccc    H1410432   8.193   5.110   9.029 -0.1951 -0.5557  0.6739
  349ccc    H1510433   8.178   5.278   9.066 -0.3580  0.7484 -0.1989
  349ccc     C910434   7.991   5.172   9.054 -0.3459 -0.3791 -0.1916
  349ccc     O310435   7.898   5.192   8.984  0.1448  0.3236 -0.0986
  349ccc     O410436   7.986   5.107   9.168  0.1417  0.5418  0.1552
  349ccc    H1610437   8.070   5.111   9.217 -0.2982  0.6054  0.9220
  349ccc     O510438   8.603   5.429   8.695  0.1531 -0.7723  0.3590
  350ccc     C110439   8.711   4.623   8.414  1.3735  0.8839 -0.3547
  350ccc     H110440   8.795   4.595   8.349 -0.1768  0.2689 -2.2080
  350ccc     H210441   8.721   4.568   8.508  1.3338  0.2879 -0.6924
  350ccc     C210442   8.570   4.583   8.360  0.0804 -0.1682  0.4870
  350ccc     H310443   8.586   4.502   8.287 -0.5052  0.4747 -0.3789
  350ccc     H410444   8.544   4.668   8.296 -1.7982 -1.2533 -0.2756
  350ccc     C310445   8.473   4.542   8.471  0.0793  0.7196  0.7934
  350ccc     H510446   8.469   4.627   8.540 -1.1188  0.0588  1.5867
  350ccc     H610447   8.505   4.451   8.524 -1.2766 -0.1986  0.1038
  350ccc     N110448   8.335   4.517   8.412  0.0564  0.3918 -0.6820
  350ccc     C410449   8.229   4.489   8.516 -0.4651 -0.0740  0.3314
  350ccc     H710450   8.246   4.394   8.567  0.7104  0.5353  1.1395
  350ccc     H810451   8.131   4.475   8.469 -0.8792  0.3238  1.0389
  350ccc     C510452   8.205   4.604   8.615  0.0763  0.0372 -0.3264
  350ccc     H910453   8.301   4.611   8.666 -0.0880 -0.7364  0.1111
  350ccc    H1010454   8.192   4.702   8.569 -0.0902  0.4153  0.5139
  350ccc     C610455   8.085   4.580   8.702 -0.0931 -0.6840 -0.3368
  350ccc     O110456   8.076   4.506   8.793 -0.4345  0.1437 -0.4789
  350ccc     O210457   8.003   4.684   8.701 -0.1664  0.1231 -0.1165
  350ccc    H1110458   8.018   4.706   8.607 -0.4713  1.5257  0.1462
  350ccc     C710459   8.324   4.431   8.295 -0.4022 -0.0084  0.3048
  350ccc    H1210460   8.219   4.433   8.266 -0.6365 -0.9264  1.0254
  350ccc    H1310461   8.375   4.489   8.217 -1.3709  1.1316  0.4940
  350ccc     C810462   8.364   4.282   8.309  0.4535 -0.0409  0.2249
  350ccc    H1410463   8.468   4.273   8.343  0.3601 -1.1527  0.2354
  350ccc    H1510464   8.300   4.232   8.382 -0.4116  1.0877  0.2694
  350ccc     C910465   8.361   4.209   8.172 -0.1200 -0.2281 -0.2219
  350ccc     O310466   8.396   4.250   8.067 -0.2577  0.3994  0.1194
  350ccc     O410467   8.321   4.088   8.181 -0.4736  0.1196 -0.0044
  350ccc    H1610468   8.314   4.065   8.275  2.9711 -2.0476 -0.1045
  350ccc     O510469   8.701   4.766   8.453 -0.1283 -0.4848 -0.5899
  351ccc     C110470   4.122   4.412  11.075 -0.1361 -0.0773  0.0868
  351ccc     H110471   4.181   4.432  10.984  0.2968  1.0853  0.6042
  351ccc     H210472   4.020   4.449  11.060 -1.0870 -1.3498  2.8549
  351ccc     C210473   4.177   4.495  11.194  0.1873  0.2215 -0.3999
  351ccc     H310474   4.132   4.448  11.282  1.6078 -3.1772 -1.3360
  351ccc     H410475   4.144   4.599  11.180  1.4242  0.5262 -1.2600
  351ccc     C310476   4.328   4.493  11.188  0.2940  0.2772 -0.5554
  351ccc     H510477   4.356   4.537  11.091  0.8032  2.1756  0.4215
  351ccc     H610478   4.372   4.393  11.197  0.8685  0.2622 -2.7908
  351ccc     N110479   4.375   4.582  11.293  0.3431 -0.2718 -0.1484
  351ccc     C410480   4.460   4.687  11.236 -0.5812 -0.0956 -0.1954
  351ccc     H710481   4.421   4.724  11.141  1.5183 -0.0539 -1.0933
  351ccc     H810482   4.548   4.628  11.205 -0.0333  1.5580 -1.9823
  351ccc     C510483   4.501   4.805  11.327 -0.0197 -0.5126  0.3025
  351ccc     H910484   4.413   4.862  11.358 -0.1027 -0.2637 -0.3576
  351ccc    H1010485   4.542   4.773  11.423 -1.4362 -3.7285 -0.0544
  351ccc     C610486   4.612   4.889  11.256 -0.3658 -0.1203  0.6968
  351ccc     O110487   4.654   4.868  11.143  0.5527  0.3259  0.1430
  351ccc     O210488   4.647   5.004  11.315 -0.2283 -0.5503  0.0381
  351ccc    H1110489   4.591   5.011  11.395  0.9273 -0.6225  0.8837
  351ccc     C710490   4.428   4.512  11.408 -0.7932  0.0013 -0.1398
  351ccc    H1210491   4.520   4.464  11.372 -1.8089  0.2577 -3.4140
  351ccc    H1310492   4.464   4.575  11.490  0.0978 -3.0307  1.9807
  351ccc     C810493   4.341   4.394  11.460  0.3429 -0.0658  0.6408
  351ccc    H1410494   4.243   4.433  11.491  0.3173 -0.7514  1.4384
  351ccc    H1510495   4.319   4.314  11.388 -3.2415  0.7509  0.6178
  351ccc     C910496   4.401   4.322  11.582  0.3036 -0.3179  0.1444
  351ccc     O310497   4.501   4.355  11.648 -0.3800 -0.2903  0.2554
  351ccc     O410498   4.329   4.219  11.619 -0.5393  0.5134  0.0875
  351ccc    H1610499   4.245   4.218  11.569 -0.0742  0.3671 -0.7113
  351ccc     O510500   4.134   4.270  11.111  0.2170  0.7047  0.1943
  352ccc     C110501   4.434   3.817  11.625  0.3414  0.4321  0.3621
  352ccc     H110502   4.508   3.851  11.552 -1.4409  3.5359 -0.1773
  352ccc     H210503   4.424   3.878  11.715  0.6493  1.4389 -0.2696
  352ccc     C210504   4.480   3.674  11.656  0.4804  0.4003  0.0908
  352ccc     H310505   4.505   3.616  11.567 -0.2470  0.1466  0.0490
  352ccc     H410506   4.393   3.633  11.708 -1.2990  1.6208 -1.7532
  352ccc     C310507   4.605   3.686  11.748  0.1979  0.0239  0.3632
  352ccc     H510508   4.634   3.585  11.780 -1.7600 -0.2274  1.5034
  352ccc     H610509   4.575   3.735  11.841 -1.6615 -1.4770  0.6153
  352ccc     N110510   4.719   3.751  11.685 -0.9584 -0.0591 -0.4067
  352ccc     C410511   4.768   3.700  11.553 -0.1198 -0.2617 -0.1824
  352ccc     H710512   4.862   3.748  11.524 -0.6838  0.9316 -0.0972
  352ccc     H810513   4.693   3.720  11.476 -0.9866 -1.9067  0.1898
  352ccc     C510514   4.800   3.545  11.540 -0.6968 -0.6001  0.7387
  352ccc     H910515   4.871   3.520  11.621  1.5999  2.4232 -0.1625
  352ccc    H1010516   4.705   3.492  11.552 -1.3229  0.0845 -0.9510
  352ccc     C610517   4.866   3.509  11.407 -0.2308 -0.4521 -1.3122
  352ccc     O110518   4.802   3.482  11.307 -0.2051  0.0324  0.1455
  352ccc     O210519   4.992   3.547  11.405 -0.1453  0.4620  0.1544
  352ccc    H1110520   5.013   3.567  11.498  1.7151  1.0934 -0.3587
  352ccc     C710521   4.839   3.784  11.773  0.4215  0.3950 -0.3570
  352ccc    H1210522   4.902   3.700  11.804  1.8928  1.5529 -0.0993
  352ccc    H1310523   4.915   3.840  11.718  1.9068  0.2301  1.4095
  352ccc     C810524   4.800   3.876  11.894  0.1221  0.1535 -0.5616
  352ccc    H1410525   4.747   3.968  11.866  2.2464  1.8026  0.4955
  352ccc    H1510526   4.731   3.818  11.956 -0.0141  0.0089 -0.8520
  352ccc     C910527   4.921   3.909  11.979 -0.0261  0.2065 -0.1007
  352ccc     O310528   5.034   3.868  11.957 -0.2210  0.0093  0.2520
  352ccc     O410529   4.905   4.004  12.074 -0.1824  0.3995  0.6161
  352ccc    H1610530   4.811   4.025  12.063  0.2860  2.4716  0.2593
  352ccc     O510531   4.324   3.793  11.538 -0.0883  0.1282 -0.0550
  353ccc     C110532   5.511   4.939  11.109 -1.0692  0.3465  0.6594
  353ccc     H110533   5.576   5.000  11.172 -0.5758  0.9661 -0.4139
  353ccc     H210534   5.513   4.837  11.150  3.1035  0.0749  0.1827
  353ccc     C210535   5.546   4.954  10.957 -0.1560  0.8767  0.4551
  353ccc     H310536   5.462   4.904  10.908  1.2775 -0.3533 -0.8647
  353ccc     H410537   5.632   4.888  10.940 -0.7839  0.1187  0.1848
  353ccc     C310538   5.557   5.099  10.915 -0.1254 -0.9419  0.2063
  353ccc     H510539   5.651   5.140  10.954 -0.8272  1.5167 -0.5146
  353ccc     H610540   5.481   5.167  10.955  1.2403  1.4450 -1.0498
  353ccc     N110541   5.548   5.108  10.770 -0.5034 -0.3484  0.3503
  353ccc     C410542   5.635   5.027  10.685  0.2662  0.7947 -0.0726
  353ccc     H710543   5.599   5.037  10.582  0.0799  1.1983  0.0286
  353ccc     H810544   5.624   4.921  10.710 -2.3545  0.2849 -2.8024
  353ccc     C510545   5.789   5.054  10.683 -0.0960  0.3415  0.1315
  353ccc     H910546   5.812   5.158  10.656 -2.4001  0.8145 -0.2533
  353ccc    H1010547   5.818   5.035  10.787 -0.9724  0.1826  0.3631
  353ccc     C610548   5.870   4.963  10.596  0.2735 -0.1443  0.4684
  353ccc     O110549   5.826   4.859  10.547 -0.2988 -0.6377 -0.3330
  353ccc     O210550   5.999   4.999  10.578 -0.2482 -0.2384 -0.1376
  353ccc    H1110551   6.004   5.084  10.626  2.5546 -1.3412  1.8072
  353ccc     C710552   5.540   5.252  10.717  0.0626 -0.8065  0.5380
  353ccc    H1210553   5.638   5.300  10.722  0.0181 -0.6751  0.2013
  353ccc    H1310554   5.521   5.258  10.609 -2.3633 -0.4408  0.9359
  353ccc     C810555   5.420   5.330  10.783  0.8274  0.3744 -0.1152
  353ccc    H1410556   5.335   5.260  10.787  1.5348 -0.5400 -0.6105
  353ccc    H1510557   5.442   5.364  10.884  2.5965 -0.0072 -0.3359
  353ccc     C910558   5.383   5.459  10.709 -0.8978 -0.2437  0.2859
  353ccc     O310559   5.419   5.568  10.748  0.1551  0.0691  0.2290
  353ccc     O410560   5.294   5.447  10.611 -0.3951 -0.1545  0.1313
  353ccc    H1610561   5.296   5.364  10.560 -1.1339  0.6437 -1.2605
  353ccc     O510562   5.388   5.005  11.139 -0.1428  0.6778  0.2538
  354ccc     C110563   5.214   4.819  10.491  0.1833  0.1357 -0.0863
  354ccc     H110564   5.134   4.763  10.540  1.3578 -0.6562  0.9883
  354ccc     H210565   5.183   4.817  10.386 -2.5803 -2.3802  0.6459
  354ccc     C210566   5.358   4.758  10.500 -0.7443 -0.4764 -0.0364
  354ccc     H310567   5.387   4.777  10.604  1.7489  0.6475 -0.8791
  354ccc     H410568   5.415   4.814  10.426 -2.1984 -1.6887 -2.1722
  354ccc     C310569   5.358   4.605  10.475 -0.0014 -0.1364  0.0495
  354ccc     H510570   5.335   4.589  10.369 -1.5043 -1.7216  0.5683
  354ccc     H610571   5.287   4.546  10.533  1.3048  0.1550  2.0592
  354ccc     N110572   5.491   4.539  10.512  0.4805  0.1709  0.2335
  354ccc     C410573   5.538   4.542  10.650  0.0297 -0.3236  0.6532
  354ccc     H710574   5.563   4.648  10.663  0.0732 -0.1646 -0.5573
  354ccc     H810575   5.628   4.481  10.664  0.7101  0.0341 -1.6486
  354ccc     C510576   5.430   4.502  10.754  0.4425 -1.0147  0.3498
  354ccc     H910577   5.341   4.562  10.732  1.4276 -0.1611 -1.5234
  354ccc    H1010578   5.402   4.396  10.760  1.5004 -1.2758  1.0457
  354ccc     C610579   5.472   4.541  10.892  0.1465 -0.0071  0.8909
  354ccc     O110580   5.440   4.649  10.946 -0.5747 -0.0660  0.2295
  354ccc     O210581   5.523   4.452  10.970  0.1575  0.2284 -0.6648
  354ccc    H1110582   5.512   4.372  10.916  0.1332  0.3407 -0.8246
  354ccc     C710583   5.606   4.563  10.420 -0.2968 -0.4428 -0.0533
  354ccc    H1210584   5.617   4.672  10.422 -4.1678  0.0797  0.1416
  354ccc    H1310585   5.700   4.527  10.463  0.7288 -0.2206 -1.9832
  354ccc     C810586   5.596   4.517  10.276  0.4814  0.0683 -0.2589
  354ccc    H1410587   5.568   4.412  10.278  1.6094 -0.2445  0.1933
  354ccc    H1510588   5.525   4.578  10.218  0.8445 -0.0569 -0.8468
  354ccc     C910589   5.727   4.533  10.204  0.4225 -0.0192 -0.1712
  354ccc     O310590   5.806   4.615  10.248  0.2800 -0.0080 -0.5306
  354ccc     O410591   5.755   4.452  10.096 -0.1311  0.4767 -0.9601
  354ccc    H1610592   5.672   4.401  10.088 -1.0145  1.2576  1.9647
  354ccc     O510593   5.228   4.953  10.540  0.0226  0.5769 -0.0632
  355ccc     C110594   6.545   5.148  13.253  0.8180  0.1938  0.1468
  355ccc     H110595   6.610   5.230  13.284 -0.1746  0.7656  0.7905
  355ccc     H210596   6.478   5.102  13.327  0.6650 -1.2906 -0.8804
  355ccc     C210597   6.635   5.035  13.193  0.3689  0.7537  0.2229
  355ccc     H310598   6.680   5.070  13.100 -0.4936 -0.6026 -0.7460
  355ccc     H410599   6.567   4.955  13.160  0.9692  0.1267  0.4754
  355ccc     C310600   6.734   5.004  13.306  0.0321 -0.0933 -0.4286
  355ccc     H510601   6.808   4.925  13.286  0.7950  1.0449 -2.3380
  355ccc     H610602   6.678   4.971  13.395  0.1398  1.7131  0.3449
  355ccc     N110603   6.802   5.127  13.356 -0.1352  0.2394  0.3254
  355ccc     C410604   6.931   5.156  13.281 -0.2320  0.1204  0.1514
  355ccc     H710605   6.969   5.258  13.295  2.4152 -0.6473 -0.9238
  355ccc     H810606   6.912   5.153  13.173 -2.7798 -1.6449  0.5436
  355ccc     C510607   7.043   5.064  13.326  0.5075  0.0735 -0.0821
  355ccc     H910608   7.078   5.081  13.428  0.7943  0.8913 -0.3088
  355ccc    H1010609   7.004   4.962  13.314 -0.0087  0.5483 -3.7226
  355ccc     C610610   7.166   5.080  13.238 -0.4234 -0.2359 -0.2524
  355ccc     O110611   7.241   5.172  13.253  0.4301  0.1356 -0.7109
  355ccc     O210612   7.177   5.004  13.135  0.1039  0.2621  0.0644
  355ccc    H1110613   7.102   4.943  13.147  0.0269  0.8067  3.1643
  355ccc     C710614   6.828   5.134  13.504  0.2878 -1.0387 -0.4034
  355ccc    H1210615   6.857   5.038  13.549  1.3809 -1.0191 -1.0364
  355ccc    H1310616   6.895   5.211  13.544  0.2758 -2.9658  3.8590
  355ccc     C810617   6.695   5.170  13.576 -0.1203  0.4835  0.1664
  355ccc    H1410618   6.648   5.257  13.526  0.4229  0.6430 -0.0724
  355ccc    H1510619   6.629   5.083  13.568  1.8002 -0.9906 -0.2301
  355ccc     C910620   6.709   5.204  13.725  0.3010 -0.1376 -0.8784
  355ccc     O310621   6.701   5.121  13.816  0.2295 -0.6060  0.1382
  355ccc     O410622   6.695   5.327  13.755  0.1768 -0.7569  0.1905
  355ccc    H1610623   6.675   5.338  13.849  1.5417  2.6801  0.2491
  355ccc     O510624   6.461   5.207  13.142 -0.5615 -0.4051  0.0210
  356ccc     C110625   5.731   4.808  13.530  1.1336 -0.2031 -0.0565
  356ccc     H110626   5.759   4.705  13.505 -0.2253 -0.5403 -0.2537
  356ccc     H210627   5.807   4.851  13.597  0.2961  0.1987  0.6480
  356ccc     C210628   5.592   4.802  13.603 -0.4307 -0.2252 -0.3485
  356ccc     H310629   5.611   4.753  13.699  0.8428  0.1848 -0.3779
  356ccc     H410630   5.511   4.753  13.547 -1.2039  1.8994 -1.2219
  356ccc     C310631   5.534   4.939  13.632 -0.1493  0.0392  0.2616
  356ccc     H510632   5.544   4.997  13.539  0.9387 -0.9453 -0.2494
  356ccc     H610633   5.598   4.990  13.705  1.8180 -0.6477 -0.9200
  356ccc     N110634   5.399   4.928  13.693  0.7188 -0.3335 -0.4813
  356ccc     C410635   5.341   5.063  13.692  0.6251 -0.2237 -0.3717
  356ccc     H710636   5.416   5.138  13.723  1.1445  0.0407 -2.1495
  356ccc     H810637   5.260   5.057  13.766 -0.1478 -4.0542 -1.3180
  356ccc     C510638   5.276   5.110  13.559  0.3073  0.2209  0.8729
  356ccc     H910639   5.300   5.217  13.548  0.5459  0.0334 -0.7365
  356ccc    H1010640   5.316   5.064  13.468  1.3596  2.2835  0.2079
  356ccc     C610641   5.127   5.080  13.547 -0.4242 -0.8279 -0.5618
  356ccc     O110642   5.063   5.023  13.634  0.0817  0.3685 -0.0057
  356ccc     O210643   5.068   5.146  13.446 -0.2325  0.1186 -0.5277
  356ccc    H1110644   4.978   5.114  13.466  0.0923  0.0154  0.8641
  356ccc     C710645   5.397   4.865  13.831 -0.0428 -0.3017  0.1396
  356ccc    H1210646   5.296   4.822  13.839 -0.2572 -0.1189 -1.3864
  356ccc    H1310647   5.475   4.789  13.828  2.4957  2.1343 -0.6322
  356ccc     C810648   5.442   4.950  13.953 -0.1548 -0.1366 -0.5061
  356ccc    H1410649   5.530   5.013  13.934  0.9842 -0.9429  1.7671
  356ccc    H1510650   5.365   5.015  13.997 -0.7672  0.2654 -2.1001
  356ccc     C910651   5.506   4.856  14.057 -0.2604 -0.2473  0.2806
  356ccc     O310652   5.444   4.758  14.099 -0.1331 -0.2555  0.8321
  356ccc     O410653   5.636   4.879  14.075  0.0760  0.1062 -0.0145
  356ccc    H1610654   5.661   4.957  14.022  0.5623 -0.5237 -0.7437
  356ccc     O510655   5.724   4.890  13.411 -0.1453  0.5110  0.0912
  357ccc     C110656   6.304   5.180  12.224  0.0893 -0.0990 -0.1916
  357ccc     H110657   6.235   5.181  12.139  2.2614 -0.6521 -2.0588
  357ccc     H210658   6.402   5.147  12.188 -0.8948 -1.2015 -2.0174
  357ccc     C210659   6.246   5.083  12.326 -0.1039  0.4335  0.3068
  357ccc     H310660   6.232   4.982  12.287 -0.3181  0.5171  0.1678
  357ccc     H410661   6.146   5.117  12.353 -0.8631 -1.3997 -0.0531
  357ccc     C310662   6.341   5.075  12.452  0.0686  0.7025 -0.2257
  357ccc     H510663   6.354   5.174  12.497  1.8597  0.8219 -0.9243
  357ccc     H610664   6.435   5.045  12.404 -0.7096 -2.4950 -0.0022
  357ccc     N110665   6.293   4.968  12.545  0.0094  0.4694  0.2396
  357ccc     C410666   6.376   4.949  12.670  0.1356  0.4620 -0.0807
  357ccc     H710667   6.325   4.884  12.742 -0.3813  0.8684 -0.0710
  357ccc     H810668   6.390   5.049  12.712  2.7319  0.2107 -0.2084
  357ccc     C510669   6.525   4.903  12.645  0.3999 -0.2440 -0.2417
  357ccc     H910670   6.518   4.836  12.558 -2.1093  2.1207 -2.0271
  357ccc    H1010671   6.579   4.993  12.614 -0.6541  1.3439  2.2713
  357ccc     C610672   6.602   4.846  12.751 -0.3528 -0.3727 -0.0819
  357ccc     O110673   6.573   4.863  12.869 -0.4253 -0.0634  0.0065
  357ccc     O210674   6.690   4.755  12.709 -0.3185 -0.0423  0.5135
  357ccc    H1110675   6.692   4.785  12.616 -0.2481 -0.2655  0.4426
  357ccc     C710676   6.148   4.967  12.576 -0.0861 -0.0279 -0.2356
  357ccc    H1210677   6.083   4.966  12.487  1.2572  0.4146 -1.2449
  357ccc    H1310678   6.120   4.877  12.631 -0.8913 -0.5496 -1.4407
  357ccc     C810679   6.114   5.083  12.667  0.3099 -0.7766 -0.2509
  357ccc    H1410680   6.128   5.062  12.774 -0.8210  4.4110  1.1593
  357ccc    H1510681   6.159   5.178  12.639  1.8774 -1.2546  0.5013
  357ccc     C910682   5.963   5.104  12.683  0.5345  0.2947 -0.0928
  357ccc     O310683   5.879   5.082  12.596 -0.2079 -0.2106 -0.8932
  357ccc     O410684   5.928   5.179  12.784 -0.8817 -0.0482 -0.2412
  357ccc    H1610685   5.836   5.205  12.764 -1.3788 -0.6263  1.1840
  357ccc     O510686   6.312   5.324  12.280  0.2438  0.5781  0.3789
  358ccc     C110687   5.833   6.058  11.937 -0.1353  0.4199  0.2463
  358ccc     H110688   5.928   6.110  11.923  0.7983 -0.9480  1.2431
  358ccc     H210689   5.792   6.041  11.837  1.8540 -0.1461 -0.5119
  358ccc     C210690   5.733   6.136  12.019  0.3452  0.1642 -0.5704
  358ccc     H310691   5.774   6.166  12.116 -0.4694 -0.7836  0.0767
  358ccc     H410692   5.636   6.087  12.024  0.0811  0.5999 -1.2303
  358ccc     C310693   5.691   6.264  11.939 -0.0916  0.0425 -0.0591
  358ccc     H510694   5.631   6.315  12.015  1.2575 -0.4886  1.4056
  358ccc     H610695   5.629   6.244  11.851 -0.2991 -0.3124  0.1672
  358ccc     N110696   5.803   6.346  11.889  0.1630  0.3327  0.1631
  358ccc     C410697   5.764   6.431  11.778 -0.3761  0.6352  0.1737
  358ccc     H710698   5.708   6.518  11.815 -2.1228 -0.3626 -0.0199
  358ccc     H810699   5.696   6.376  11.712  1.9627  0.5855 -2.3470
  358ccc     C510700   5.892   6.470  11.695 -0.4720  0.3985 -0.8785
  358ccc     H910701   5.855   6.506  11.598 -0.3536 -1.0511 -1.4874
  358ccc    H1010702   5.943   6.552  11.747 -1.6110 -1.0532  2.8386
  358ccc     C610703   5.982   6.346  11.673 -0.0377 -0.5262  0.3225
  358ccc     O110704   6.094   6.325  11.718  0.1066  0.1889 -0.5241
  358ccc     O210705   5.923   6.254  11.598  0.4083 -0.6805  0.1418
  358ccc    H1110706   5.974   6.172  11.604 -0.0817 -1.0468 -0.6129
  358ccc     C710707   5.887   6.417  11.984  0.0345 -0.2981  0.3987
  358ccc    H1210708   5.947   6.347  12.044  2.0915  1.0992  0.0794
  358ccc    H1310709   5.964   6.469  11.927 -0.8606  0.3349 -0.2395
  358ccc     C810710   5.819   6.529  12.072  0.2524 -0.2132  0.2005
  358ccc    H1410711   5.735   6.571  12.016 -0.5480 -1.1700  0.6397
  358ccc    H1510712   5.785   6.486  12.168 -0.9088  1.6011  0.6497
  358ccc     C910713   5.913   6.641  12.104  0.1071  0.8317  1.1775
  358ccc     O310714   5.970   6.710  12.021 -0.3088 -0.2915  0.2325
  358ccc     O410715   5.942   6.655  12.234 -0.0777 -0.2492 -0.2363
  358ccc    H1610716   5.881   6.590  12.273 -4.5044  2.4204 -2.0892
  358ccc     O510717   5.862   5.932  12.003  0.1604 -0.2802 -0.0020
  359ccc     C110718   7.444   3.189  11.159 -0.6136  0.1108  0.3332
  359ccc     H110719   7.431   3.194  11.268  1.3563  0.4679  0.5787
  359ccc     H210720   7.493   3.099  11.122 -0.2065  0.7965 -0.8617
  359ccc     C210721   7.525   3.307  11.105 -0.1526  0.0325 -0.2768
  359ccc     H310722   7.614   3.306  11.168 -0.1036 -1.3375 -0.3353
  359ccc     H410723   7.467   3.399  11.119 -0.1402 -0.3751  3.2613
  359ccc     C310724   7.564   3.282  10.960  0.2468  0.7999 -0.1791
  359ccc     H510725   7.475   3.245  10.907 -0.2779 -0.2824  1.3740
  359ccc     H610726   7.628   3.194  10.962  0.3046  0.8504  0.8445
  359ccc     N110727   7.625   3.399  10.898  0.5899 -0.0369  0.0356
  359ccc     C410728   7.531   3.517  10.877 -0.8210  0.3274 -0.1082
  359ccc     H710729   7.577   3.587  10.807  1.5534 -1.2087 -0.1955
  359ccc     H810730   7.516   3.571  10.971  1.6486 -1.0783  1.2026
  359ccc     C510731   7.388   3.477  10.815 -0.2462  0.4796 -0.6172
  359ccc     H910732   7.401   3.427  10.718  1.1853 -0.9174  0.2612
  359ccc    H1010733   7.343   3.403  10.882  0.1990  0.5358 -0.2473
  359ccc     C610734   7.298   3.602  10.801  0.0188 -0.6065 -0.2542
  359ccc     O110735   7.300   3.672  10.702  0.3282  0.1041  0.6182
  359ccc     O210736   7.239   3.654  10.917 -0.2018  0.4701 -0.3078
  359ccc    H1110737   7.243   3.572  10.969 -0.8073  0.1158 -0.8164
  359ccc     C710738   7.753   3.447  10.964 -0.2069 -0.0335  0.4659
  359ccc    H1210739   7.776   3.544  10.917 -2.4967 -0.5976 -2.1131
  359ccc    H1310740   7.739   3.468  11.070 -0.2604  2.1109  0.0792
  359ccc     C810741   7.878   3.359  10.958  0.9389  0.2536 -0.4383
  359ccc    H1410742   7.848   3.255  10.977  0.9007 -0.1183 -2.3882
  359ccc    H1510743   7.918   3.355  10.856 -0.0770  0.4472 -0.8547
  359ccc     C910744   7.995   3.398  11.051  0.1325 -0.0390  0.6755
  359ccc     O310745   7.989   3.498  11.122 -0.0908 -0.1664  0.0745
  359ccc     O410746   8.097   3.313  11.047  0.4214 -0.5852  0.1032
  359ccc    H1610747   8.084   3.253  10.972 -0.0894  2.2569 -2.2666
  359ccc     O510748   7.318   3.210  11.103  0.6203  0.3189  0.1553
  360ccc     C110749   6.567   2.985  10.472 -0.2071 -0.0165 -0.5807
  360ccc     H110750   6.566   3.093  10.450 -0.2981  0.0682 -0.1806
  360ccc     H210751   6.653   2.941  10.421  1.6581  1.0264  1.4578
  360ccc     C210752   6.439   2.916  10.411 -0.7496 -0.4456  0.8460
  360ccc     H310753   6.361   2.911  10.487 -2.6709  0.1358 -0.9941
  360ccc     H410754   6.461   2.818  10.365  1.7681  0.7072 -0.6437
  360ccc     C310755   6.376   3.003  10.303  0.2757  0.1952  1.1286
  360ccc     H510756   6.335   3.093  10.352 -2.1771 -0.5455  0.5904
  360ccc     H610757   6.286   2.954  10.263 -1.1428  1.7985  2.1844
  360ccc     N110758   6.461   3.039  10.184 -0.2013 -0.1929  0.0373
  360ccc     C410759   6.416   3.144  10.092  0.0982  0.1712  0.0277
  360ccc     H710760   6.358   3.103  10.009  0.3990 -2.1816  0.8791
  360ccc     H810761   6.509   3.179  10.046 -0.1750 -1.1182 -1.6051
  360ccc     C510762   6.337   3.256  10.150  0.4497  0.0617 -0.5231
  360ccc     H910763   6.241   3.219  10.190  0.2160 -1.4830 -2.3444
  360ccc    H1010764   6.391   3.306  10.231 -0.7633  0.8131 -0.1375
  360ccc     C610765   6.305   3.366  10.062 -0.5862  0.0538 -0.6491
  360ccc     O110766   6.339   3.384   9.948  0.1561  0.7809 -0.2226
  360ccc     O210767   6.240   3.458  10.129 -0.4439 -0.5335  0.1982
  360ccc    H1110768   6.240   3.431  10.223  0.1198 -2.7235 -0.3593
  360ccc     C710769   6.521   2.933  10.105  0.1308  0.4305 -0.1503
  360ccc    H1210770   6.592   2.967  10.029 -0.3425  1.2886 -0.2199
  360ccc    H1310771   6.577   2.868  10.175 -0.5071  0.2295  0.1833
  360ccc     C810772   6.422   2.838  10.049  0.4481 -0.1097  0.1079
  360ccc    H1410773   6.362   2.809  10.136  0.8221  0.1581  0.4569
  360ccc    H1510774   6.364   2.887   9.969 -0.9684 -2.0591 -0.1578
  360ccc     C910775   6.486   2.711   9.997  0.6233  0.1095 -0.3084
  360ccc     O310776   6.523   2.620  10.068 -0.2560  0.3685  0.0885
  360ccc     O410777   6.496   2.709   9.864 -0.4439 -0.3423 -0.0248
  360ccc    H1610778   6.499   2.803   9.839  2.5291 -0.0298  1.1288
  360ccc     O510779   6.567   2.965  10.613 -0.5113 -0.4984 -0.4246
  361ccc     C110780   6.498   2.477  12.638 -0.1717  0.1259  0.0624
  361ccc     H110781   6.421   2.426  12.579 -2.1171  0.4410  2.2105
  361ccc     H210782   6.593   2.427  12.613 -1.6715 -1.6731 -2.5661
  361ccc     C210783   6.458   2.473  12.785  0.4862  0.2648 -0.1238
  361ccc     H310784   6.515   2.547  12.843 -0.0831  1.0164 -0.5131
  361ccc     H410785   6.482   2.378  12.834 -0.6250  0.5433  1.0487
  361ccc     C310786   6.308   2.505  12.807  0.4059  0.5088 -0.2466
  361ccc     H510787   6.253   2.456  12.725 -1.8088  1.6487  0.4709
  361ccc     H610788   6.281   2.608  12.781 -1.7201 -0.1729 -1.0194
  361ccc     N110789   6.245   2.467  12.939 -0.4637 -0.2827 -0.4888
  361ccc     C410790   6.095   2.449  12.945  0.4883 -0.5207  0.8400
  361ccc     H710791   6.036   2.526  12.894 -0.6537 -0.6165  1.9449
  361ccc     H810792   6.053   2.451  13.047 -0.3372 -3.0050  0.6237
  361ccc     C510793   6.053   2.311  12.894  0.3863 -0.2403 -0.0601
  361ccc     H910794   6.072   2.300  12.786  0.8074  2.6096 -0.3795
  361ccc    H1010795   6.120   2.242  12.947  1.0433  2.7308  3.4090
  361ccc     C610796   5.913   2.287  12.934  0.7403  0.0308 -0.2307
  361ccc     O110797   5.881   2.244  13.041  0.1014  0.8315 -0.0836
  361ccc     O210798   5.832   2.262  12.826 -0.4250 -0.4007 -0.6459
  361ccc    H1110799   5.753   2.216  12.857 -0.6729  0.4963  0.0999
  361ccc     C710800   6.297   2.543  13.056  0.4709  0.3547 -0.4448
  361ccc    H1210801   6.236   2.516  13.143  0.6451  0.4023 -0.3060
  361ccc    H1310802   6.400   2.519  13.088  0.5037  2.5624  1.3228
  361ccc     C810803   6.301   2.694  13.038 -0.4063 -0.2272 -0.1220
  361ccc    H1410804   6.314   2.728  12.935 -0.0577  0.1230  0.0313
  361ccc    H1510805   6.207   2.738  13.073 -0.8142 -0.5793 -0.7735
  361ccc     C910806   6.420   2.756  13.113 -0.2472  0.9043  0.4909
  361ccc     O310807   6.492   2.696  13.192 -0.2854  0.2744  0.3102
  361ccc     O410808   6.412   2.892  13.113 -0.8717 -0.2526 -0.7305
  361ccc    H1610809   6.335   2.910  13.056  0.1924  0.1855 -2.0951
  361ccc     O510810   6.507   2.610  12.591  0.0813  0.4758  0.2330
  362ccc     C110811   7.287   2.681  12.468 -0.3783 -0.9238  0.5057
  362ccc     H110812   7.300   2.572  12.464  0.9264 -0.7896  0.6727
  362ccc     H210813   7.303   2.725  12.368  0.0365  2.3808  1.9034
  362ccc     C210814   7.394   2.754  12.551  0.2830  0.4370 -0.1693
  362ccc     H310815   7.386   2.863  12.548 -1.4785  0.3180 -1.2486
  362ccc     H410816   7.488   2.738  12.496  0.6138 -0.8468  0.7144
  362ccc     C310817   7.399   2.711  12.702 -0.1726 -0.4560  0.1720
  362ccc     H510818   7.436   2.608  12.708  0.5504 -0.1511  1.4266
  362ccc     H610819   7.295   2.723  12.733 -0.5665  1.9069 -1.7484
  362ccc     N110820   7.485   2.804  12.783  0.5785  0.6066  0.0305
  362ccc     C410821   7.465   2.774  12.928 -0.1322 -0.0181 -1.0035
  362ccc     H710822   7.533   2.693  12.955 -0.4720  0.0111 -0.0276
  362ccc     H810823   7.361   2.744  12.949  0.8563 -2.2765  1.0736
  362ccc     C510824   7.494   2.897  13.016  0.1997 -0.2434  0.3429
  362ccc     H910825   7.600   2.926  13.012 -0.2130  1.5437  1.1841
  362ccc    H1010826   7.434   2.984  12.985 -1.4115 -0.3652  2.8147
  362ccc     C610827   7.455   2.864  13.165  0.4325 -0.3737  0.4763
  362ccc     O110828   7.451   2.747  13.210  0.2614 -0.2571 -0.5952
  362ccc     O210829   7.446   2.961  13.259 -0.4944  0.0748 -0.1515
  362ccc    H1110830   7.441   3.038  13.200  2.9462  1.4290  1.0782
  362ccc     C710831   7.628   2.816  12.744  0.5024 -0.8392  0.0224
  362ccc    H1210832   7.627   2.868  12.648 -1.3818  0.3353  0.6383
  362ccc    H1310833   7.685   2.881  12.812 -0.5031 -0.3326  0.3977
  362ccc     C810834   7.701   2.682  12.729 -0.2351 -0.2276  0.1326
  362ccc    H1410835   7.713   2.633  12.827 -0.3745  1.1506  0.8710
  362ccc    H1510836   7.639   2.613  12.671 -1.5582  1.3489 -0.4151
  362ccc     C910837   7.836   2.685  12.653  0.0463 -0.1609  0.0287
  362ccc     O310838   7.866   2.758  12.560 -0.1702  0.2085  0.2247
  362ccc     O410839   7.932   2.612  12.716 -0.5284 -0.4559  0.0562
  362ccc    H1610840   7.886   2.558  12.783  0.4305 -1.0576  0.2568
  362ccc     O510841   7.170   2.735  12.526 -0.0550  0.4965 -0.0010
  363ccc     C110842   4.569   4.652  12.467  0.4192 -0.1840 -0.6444
  363ccc     H110843   4.578   4.628  12.360 -1.7625 -1.1384 -0.6743
  363ccc     H210844   4.460   4.660  12.480  0.8214  1.9837  2.3199
  363ccc     C210845   4.639   4.784  12.503  0.3876 -0.2945  0.0262
  363ccc     H310846   4.747   4.778  12.484  0.2319  0.3574 -1.2183
  363ccc     H410847   4.621   4.791  12.611 -0.7229 -0.0444 -0.1575
  363ccc     C310848   4.587   4.913  12.431  0.0265  0.4417 -0.0132
  363ccc     H510849   4.478   4.913  12.447 -0.2612  3.5483 -1.3234
  363ccc     H610850   4.588   4.897  12.322 -3.5600  0.3501 -0.1546
  363ccc     N110851   4.654   5.041  12.449  0.4657 -0.3802  0.7387
  363ccc     C410852   4.623   5.128  12.332  0.2439  0.3206  0.1886
  363ccc     H710853   4.655   5.083  12.237  1.3853  0.3984  0.5129
  363ccc     H810854   4.679   5.221  12.350 -3.0261  2.3952  0.4914
  363ccc     C510855   4.473   5.162  12.314 -0.0609  0.1511 -0.8232
  363ccc     H910856   4.420   5.073  12.277  0.9605 -2.4181  3.1984
  363ccc    H1010857   4.424   5.206  12.401 -0.3683  0.1114 -0.9766
  363ccc     C610858   4.449   5.259  12.201  0.2904  0.0990  0.6796
  363ccc     O110859   4.539   5.328  12.159  0.0129 -0.6865  0.8590
  363ccc     O210860   4.321   5.293  12.184 -0.3400 -0.5370  0.1076
  363ccc    H1110861   4.273   5.237  12.248 -0.0569  0.0375  0.8401
  363ccc     C710862   4.629   5.094  12.582 -0.0491 -0.6448 -0.6379
  363ccc    H1210863   4.528   5.133  12.596  0.5742  0.7657  0.1602
  363ccc    H1310864   4.654   5.015  12.654 -1.8754  0.0018  0.7807
  363ccc     C810865   4.727   5.213  12.628  0.9788 -0.0239  0.3954
  363ccc    H1410866   4.833   5.186  12.631  1.9686  3.3816  0.1909
  363ccc    H1510867   4.712   5.298  12.560 -2.9804 -1.1294 -0.3676
  363ccc     C910868   4.686   5.249  12.772 -0.1281  0.3211  0.0668
  363ccc     O310869   4.656   5.167  12.855  0.4163 -0.0561 -0.3176
  363ccc     O410870   4.667   5.377  12.804 -0.1856 -0.0473 -1.1845
  363ccc    H1610871   4.699   5.442  12.739 -2.9958  3.7270  0.8258
  363ccc     O510872   4.626   4.550  12.560  0.0841 -0.4166 -0.3055
  364ccc     C110873   5.391   4.217  12.873 -0.2565 -0.1705  0.1420
  364ccc     H110874   5.373   4.202  12.766  3.8448  2.1266 -1.1019
  364ccc     H210875   5.433   4.318  12.876  0.8596 -0.6451  1.2914
  364ccc     C210876   5.499   4.114  12.908  0.2405 -0.1229 -0.2208
  364ccc     H310877   5.456   4.017  12.934 -0.0707  0.1212  0.1905
  364ccc     H410878   5.543   4.137  13.006  1.4100  0.6208 -0.8889
  364ccc     C310879   5.612   4.106  12.803 -0.0711 -0.1930 -0.3345
  364ccc     H510880   5.551   4.069  12.720 -2.1278  1.5593  0.3124
  364ccc     H610881   5.689   4.033  12.831  2.0310  1.9304 -0.2397
  364ccc     N110882   5.674   4.234  12.769  1.0621 -0.2542 -0.0929
  364ccc     C410883   5.761   4.230  12.649  0.8843 -0.3768 -0.7647
  364ccc     H710884   5.832   4.150  12.674 -1.4255 -2.2535  0.2687
  364ccc     H810885   5.814   4.325  12.639  1.8489 -0.9738 -1.4580
  364ccc     C510886   5.676   4.195  12.525  0.1959 -0.1590  0.0607
  364ccc     H910887   5.676   4.085  12.523  0.4954 -0.1570 -1.1524
  364ccc    H1010888   5.574   4.234  12.535 -0.5970 -2.3183  1.0422
  364ccc     C610889   5.749   4.234  12.396  0.4606 -0.7138  0.0074
  364ccc     O110890   5.868   4.215  12.379 -0.3160 -0.0737 -0.5964
  364ccc     O210891   5.668   4.278  12.301  0.5483  0.0394 -0.0373
  364ccc    H1110892   5.577   4.287  12.335  0.4322  0.0263 -0.3422
  364ccc     C710893   5.725   4.319  12.883  0.2560  0.6257  0.9690
  364ccc    H1210894   5.756   4.419  12.850 -0.5617  1.4698  2.6373
  364ccc    H1310895   5.643   4.351  12.948  0.0637  4.3797 -0.8458
  364ccc     C810896   5.854   4.259  12.950 -1.0115 -0.2458 -0.3374
  364ccc    H1410897   5.817   4.172  13.005  0.1879 -0.2467  0.5042
  364ccc    H1510898   5.927   4.220  12.878 -0.7745  0.5783 -0.5613
  364ccc     C910899   5.916   4.364  13.042 -0.0453  0.0953  0.4136
  364ccc     O310900   5.870   4.474  13.061 -0.0979 -0.1821 -0.4671
  364ccc     O410901   6.007   4.312  13.125  0.1588 -0.1317  0.1611
  364ccc    H1610902   6.013   4.379  13.196  1.4162  1.6160 -1.4894
  364ccc     O510903   5.276   4.192  12.966  0.4016 -0.3249  0.1280
  365ccc     C110904   5.836   3.216  12.378  0.3761  0.6276 -0.3405
  365ccc     H110905   5.931   3.171  12.409 -1.3950 -2.6704  0.7770
  365ccc     H210906   5.779   3.141  12.322 -0.3983  0.7441  0.2730
  365ccc     C210907   5.846   3.341  12.290  0.0003  0.7860  0.5741
  365ccc     H310908   5.873   3.422  12.359  1.8414  1.1774 -0.5205
  365ccc     H410909   5.746   3.359  12.250  0.6764  0.7321 -1.2412
  365ccc     C310910   5.965   3.341  12.186 -0.1866  0.3879  0.4517
  365ccc     H510911   5.959   3.424  12.115  0.3512  0.7332  0.7977
  365ccc     H610912   5.950   3.242  12.140 -1.4963 -1.7925  4.9451
  365ccc     N110913   6.096   3.353  12.253  0.2878  0.2898  0.7313
  365ccc     C410914   6.128   3.496  12.279 -0.0167 -0.5879  0.7110
  365ccc     H710915   6.040   3.555  12.307  0.9578  1.3434 -0.0964
  365ccc     H810916   6.172   3.541  12.189 -0.4675  1.1705  1.3193
  365ccc     C510917   6.229   3.520  12.389 -0.3960  0.1545  0.1562
  365ccc     H910918   6.308   3.445  12.387  1.3007  1.8292  0.9062
  365ccc    H1010919   6.281   3.614  12.367 -0.6074  0.4224  0.7581
  365ccc     C610920   6.170   3.525  12.536  0.0352  0.6177  0.1874
  365ccc     O110921   6.141   3.627  12.590  0.4022  0.1935  0.3004
  365ccc     O210922   6.111   3.406  12.564 -0.3344 -0.3354  0.2019
  365ccc    H1110923   6.119   3.362  12.477 -0.3431 -1.4291  0.7356
  365ccc     C710924   6.203   3.276  12.183 -0.2922 -0.8903 -0.1873
  365ccc    H1210925   6.175   3.288  12.078 -0.9634  1.7183  0.2276
  365ccc    H1310926   6.304   3.317  12.195 -0.6242  0.0514 -0.5067
  365ccc     C810927   6.206   3.124  12.225 -0.1379 -0.1591  0.3385
  365ccc    H1410928   6.105   3.081  12.214  0.5313 -1.6838 -0.1185
  365ccc    H1510929   6.269   3.076  12.150 -2.3600 -1.4334 -0.8156
  365ccc     C910930   6.265   3.096  12.362  0.4211  0.3630  0.3714
  365ccc     O310931   6.323   3.171  12.440  0.1851 -0.6570  0.2794
  365ccc     O410932   6.257   2.968  12.391 -0.2317 -0.5041  0.2551
  365ccc    H1610933   6.199   2.934  12.320  0.0105  0.9923 -0.7100
  365ccc     O510934   5.768   3.249  12.500 -0.5161  0.3799  0.7851
  366ccc     C110935   6.354   3.487  13.090 -0.0759  0.1314  0.1091
  366ccc     H110936   6.324   3.544  13.180  1.8795  0.4559  0.6020
  366ccc     H210937   6.427   3.416  13.131 -2.5958 -2.1221  1.0318
  366ccc     C210938   6.425   3.581  12.992 -0.0284 -0.0844  0.1689
  366ccc     H310939   6.530   3.597  13.018 -0.2220  0.1672  0.8241
  366ccc     H410940   6.374   3.678  12.993 -4.8654 -2.3288  0.0403
  366ccc     C310941   6.418   3.532  12.849 -0.2908  0.4524 -0.0839
  366ccc     H510942   6.316   3.521  12.811  0.3718 -3.8202 -1.0197
  366ccc     H610943   6.439   3.425  12.856  0.7607  0.5890 -0.8965
  366ccc     N110944   6.519   3.593  12.759  0.1375  0.0296  0.1446
  366ccc     C410945   6.539   3.745  12.765 -0.2844 -0.0005 -0.2510
  366ccc     H710946   6.638   3.766  12.722 -0.7701  0.0382 -1.3709
  366ccc     H810947   6.564   3.781  12.865  0.6141 -2.0203  0.3097
  366ccc     C510948   6.424   3.832  12.702  0.6092 -0.2622 -0.3704
  366ccc     H910949   6.427   3.818  12.593  0.1326 -0.4589 -0.3599
  366ccc    H1010950   6.330   3.799  12.747  1.1025 -0.5128  0.4846
  366ccc     C610951   6.449   3.980  12.741  1.0622 -0.1270 -0.3815
  366ccc     O110952   6.425   4.024  12.855  0.2141  0.5895 -0.2697
  366ccc     O210953   6.525   4.051  12.658  0.0074 -0.1711  0.5057
  366ccc    H1110954   6.536   3.992  12.581  1.0203  0.9045 -0.2148
  366ccc     C710955   6.542   3.534  12.632 -0.2934  0.4384 -0.2642
  366ccc    H1210956   6.454   3.560  12.571  0.4692  0.0370 -1.5793
  366ccc    H1310957   6.632   3.582  12.592 -1.1641  2.1860 -0.2232
  366ccc     C810958   6.565   3.382  12.631 -0.5174  0.2988  0.6562
  366ccc    H1410959   6.655   3.360  12.690  0.1803 -1.5201 -0.9850
  366ccc    H1510960   6.480   3.320  12.660 -0.9452  1.0591  1.0755
  366ccc     C910961   6.623   3.339  12.492 -0.0025 -0.3104 -0.0744
  366ccc     O310962   6.631   3.414  12.394 -0.1816  0.1434  0.4739
  366ccc     O410963   6.654   3.215  12.485 -0.3017 -0.2608  0.1880
  366ccc    H1610964   6.628   3.174  12.569 -1.3057 -1.2587 -0.5764
  366ccc     O510965   6.242   3.429  13.022  0.5454 -0.2825  0.5786
  367ccc     C110966   7.509   4.744   8.465 -0.0578  0.4814 -0.0109
  367ccc     H110967   7.484   4.768   8.361 -0.4333  0.1400 -0.0044
  367ccc     H210968   7.578   4.823   8.497  2.4854 -0.4830 -2.7145
  367ccc     C210969   7.582   4.612   8.454 -0.1128  0.0896  0.2785
  367ccc     H310970   7.663   4.631   8.382  1.3038  0.2084  1.8256
  367ccc     H410971   7.516   4.540   8.405 -0.2659 -0.3664  1.1239
  367ccc     C310972   7.638   4.560   8.584 -0.1996 -0.2695 -0.4058
  367ccc     H510973   7.567   4.568   8.668 -0.0877  1.1672 -0.4240
  367ccc     H610974   7.726   4.621   8.608  0.6545 -1.4396 -0.5217
  367ccc     N110975   7.674   4.415   8.568  0.2886 -0.3128  0.8279
  367ccc     C410976   7.665   4.327   8.691  0.0394 -0.9098 -0.4078
  367ccc     H710977   7.669   4.222   8.662 -2.5432 -0.9283 -0.9505
  367ccc     H810978   7.566   4.341   8.736  0.9500 -1.1336  1.7745
  367ccc     C510979   7.780   4.352   8.797  0.1968 -0.5503  0.1932
  367ccc     H910980   7.879   4.329   8.755  0.1969 -1.1393  0.5135
  367ccc    H1010981   7.784   4.457   8.826  0.9031 -0.3643 -0.5295
  367ccc     C610982   7.760   4.266   8.925 -0.1273  0.4256 -0.1520
  367ccc     O110983   7.656   4.213   8.959  0.3956 -0.2752 -0.2501
  367ccc     O210984   7.850   4.294   9.017 -0.2642 -0.1194  0.0609
  367ccc    H1110985   7.913   4.347   8.966  1.1635 -1.5049  0.3160
  367ccc     C710986   7.799   4.397   8.491 -0.5123  0.3307 -0.9408
  367ccc    H1210987   7.788   4.468   8.409 -2.7319 -1.0133 -1.8898
  367ccc    H1310988   7.882   4.453   8.537 -0.8602  0.7669 -0.8412
  367ccc     C810989   7.813   4.251   8.447  0.3960  0.5676  0.3510
  367ccc    H1410990   7.842   4.180   8.524  0.6048 -1.8640 -1.8312
  367ccc    H1510991   7.722   4.195   8.422  1.6652 -1.9422  1.0317
  367ccc     C910992   7.918   4.242   8.328  0.0141  0.3751 -0.1775
  367ccc     O310993   8.040   4.224   8.338 -0.3738  0.2668  0.0354
  367ccc     O410994   7.858   4.223   8.206 -0.3363 -0.6427 -0.2684
  367ccc    H1610995   7.770   4.249   8.239 -0.0005 -0.4549  0.4988
  367ccc     O510996   7.390   4.726   8.546  0.0384  0.1553  0.1661
  368ccc     C110997   7.605   5.549   8.493  0.1325  0.4267 -0.4484
  368ccc     H110998   7.587   5.657   8.484  1.2105  0.5207 -2.0677
  368ccc     H210999   7.712   5.526   8.497 -0.0407 -0.2352  0.6200
  368ccc     C211000   7.559   5.491   8.356 -0.2682  0.9389  0.1152
  368ccc     H311001   7.598   5.558   8.279 -0.3812  1.0229  0.1295
  368ccc     H411002   7.451   5.509   8.347 -0.1529  0.8546 -1.6948
  368ccc     C311003   7.597   5.345   8.339 -0.3947 -0.0347  0.7522
  368ccc     H511004   7.563   5.289   8.427 -2.1893  2.1000  1.5014
  368ccc     H611005   7.706   5.351   8.330 -0.4768 -0.5087 -0.7957
  368ccc     N111006   7.558   5.281   8.207  0.1587  0.1392  0.0301
  368ccc     C411007   7.417   5.249   8.188 -0.4719  0.2061 -0.0382
  368ccc     H711008   7.362   5.294   8.272 -0.5623 -1.1495  0.6704
  368ccc     H811009   7.397   5.142   8.171 -1.3009  0.5771 -1.5135
  368ccc     C511010   7.385   5.315   8.048  0.0299 -0.0337 -0.2451
  368ccc     H911011   7.440   5.410   8.052 -1.2549  0.7125  0.2721
  368ccc    H1011012   7.425   5.260   7.962  0.6543  0.1040 -0.0435
  368ccc     C611013   7.237   5.349   8.024 -0.2844 -0.3848  0.0841
  368ccc     O111014   7.145   5.278   8.057 -0.7385  0.1125  1.1602
  368ccc     O211015   7.220   5.480   8.004 -0.5065 -0.0893 -0.5683
  368ccc    H1111016   7.310   5.515   7.997 -0.8241  0.7040 -0.7877
  368ccc     C711017   7.649   5.161   8.174 -0.0220  0.1667 -0.2061
  368ccc    H1211018   7.630   5.130   8.071  3.0106 -0.7292 -0.6072
  368ccc    H1311019   7.754   5.193   8.183 -0.3317  1.3882 -0.7817
  368ccc     C811020   7.617   5.044   8.267  0.1890  0.8494  0.2999
  368ccc    H1411021   7.624   5.067   8.374  1.6637  2.0263 -0.0141
  368ccc    H1511022   7.520   4.999   8.241  0.9288  0.1350 -1.4270
  368ccc     C911023   7.708   4.926   8.265 -0.4578 -0.1092  0.3118
  368ccc     O311024   7.697   4.827   8.192 -0.2730 -0.6058 -0.5912
  368ccc     O411025   7.825   4.947   8.323 -0.5018  0.2281 -0.1252
  368ccc    H1611026   7.820   5.030   8.373  3.1608 -0.0737  1.0273
  368ccc     O511027   7.521   5.485   8.599  0.0795 -0.0908 -0.4315
  369ccc     C111028   6.984   6.400  10.144  0.8106 -0.2217  0.1478
  369ccc     H111029   7.014   6.369  10.245  0.0137  2.0311  1.1530
  369ccc     H211030   7.061   6.350  10.084 -0.3887 -4.7021  1.9676
  369ccc     C211031   6.985   6.556  10.143  0.5598 -0.2635 -0.6499
  369ccc     H311032   6.936   6.593  10.235  1.5676  0.8560 -0.5317
  369ccc     H411033   6.919   6.590  10.062 -0.4687  0.1013  0.3063
  369ccc     C311034   7.129   6.614  10.138 -0.7826  0.1327 -0.4455
  369ccc     H511035   7.123   6.718  10.105 -2.5335 -0.3508 -1.8014
  369ccc     H611036   7.174   6.563  10.051 -0.5096  1.3147 -1.0140
  369ccc     N111037   7.205   6.593  10.264  0.3684  0.0099  0.0363
  369ccc     C411038   7.358   6.604  10.239  0.1014 -0.4099 -0.5157
  369ccc     H711039   7.398   6.616  10.341  2.1020  1.9501 -1.4798
  369ccc     H811040   7.386   6.698  10.190 -0.6151 -0.7395 -1.5794
  369ccc     C511041   7.424   6.480  10.177 -0.6134  0.1058  0.2700
  369ccc     H911042   7.389   6.381  10.206 -2.3526 -0.3519 -2.9201
  369ccc    H1011043   7.387   6.461  10.076  0.9844 -3.4779  0.1953
  369ccc     C611044   7.578   6.475  10.176  0.0215 -0.4664 -0.1458
  369ccc     O111045   7.646   6.460  10.279  0.3302 -0.5031 -0.2022
  369ccc     O211046   7.640   6.458  10.054  0.2831 -0.3746  0.0960
  369ccc    H1111047   7.573   6.482   9.988 -0.0403  0.2785  0.6489
  369ccc     C711048   7.155   6.675  10.378  0.3367  0.1555  0.0913
  369ccc    H1211049   7.047   6.660  10.390  0.4334  0.3916  1.4297
  369ccc    H1311050   7.195   6.638  10.473  1.0269  0.6370 -0.0036
  369ccc     C811051   7.173   6.833  10.371 -0.7080  0.6242  0.1692
  369ccc    H1411052   7.271   6.865  10.335 -0.1977  0.3326  1.2489
  369ccc    H1511053   7.091   6.855  10.302 -0.6651  0.4271  0.0542
  369ccc     C911054   7.164   6.909  10.502  0.5266 -1.0108 -0.4618
  369ccc     O311055   7.217   6.868  10.603  0.2411 -0.3577 -0.8320
  369ccc     O411056   7.102   7.024  10.499 -0.6109 -0.1962  0.6931
  369ccc    H1611057   7.070   7.021  10.407  0.8245 -1.6507  0.1970
  369ccc     O511058   6.854   6.369  10.104 -0.4362  0.0298 -0.4772
  370ccc     C111059   7.271   5.623  10.124  0.0389 -0.7157 -0.5054
  370ccc     H111060   7.212   5.547  10.178  0.9242 -1.7325 -0.9265
  370ccc     H211061   7.205   5.642  10.038 -0.3092 -0.3743 -0.1657
  370ccc     C211062   7.412   5.569  10.067  0.3121 -0.1759  0.2505
  370ccc     H311063   7.406   5.467  10.027  0.3274  0.4820 -1.5221
  370ccc     H411064   7.483   5.559  10.150  0.8379  1.5813  0.0484
  370ccc     C311065   7.473   5.657   9.949  0.3554 -1.0776 -0.0672
  370ccc     H511066   7.509   5.752   9.991  2.9503 -2.0209  0.0235
  370ccc     H611067   7.389   5.670   9.880  0.6670 -0.4068 -0.3244
  370ccc     N111068   7.587   5.592   9.891 -0.1103 -0.2115  0.4424
  370ccc     C411069   7.703   5.572   9.983 -0.0908 -0.2530 -0.1912
  370ccc     H711070   7.787   5.526   9.930 -0.0303 -0.5636  0.1691
  370ccc     H811071   7.673   5.493  10.053 -2.9160  1.4942  0.7451
  370ccc     C511072   7.749   5.703  10.062  0.4173 -0.1404  0.3673
  370ccc     H911073   7.759   5.784   9.989 -0.1000  0.5366  1.0348
  370ccc    H1011074   7.685   5.751  10.137 -0.3182 -2.0093  1.0028
  370ccc     C611075   7.884   5.695  10.129  0.3361 -0.7118 -0.3615
  370ccc     O111076   7.985   5.737  10.076 -0.0951  0.0526  1.0978
  370ccc     O211077   7.889   5.596  10.222  0.1494  0.0436 -0.1796
  370ccc    H1111078   7.799   5.578  10.254  0.6542 -4.3356 -0.6770
  370ccc     C711079   7.619   5.663   9.762 -0.0547  0.4015  0.0970
  370ccc    H1211080   7.531   5.699   9.707  0.8318 -0.8446 -2.2596
  370ccc    H1311081   7.683   5.747   9.791 -1.8850  2.2057 -0.7962
  370ccc     C811082   7.684   5.572   9.653 -0.4790 -0.4749 -0.3106
  370ccc    H1411083   7.765   5.511   9.696  0.7033  1.2102 -0.0351
  370ccc    H1511084   7.613   5.500   9.610  0.6324 -0.7897 -1.6812
  370ccc     C911085   7.742   5.653   9.536  0.1234  0.7194  0.1564
  370ccc     O311086   7.676   5.670   9.437 -0.2654 -0.3653 -0.2417
  370ccc     O411087   7.844   5.727   9.569 -0.5581 -0.8645 -0.2211
  370ccc    H1611088   7.869   5.690   9.655 -2.9777  0.3762  1.1407
  370ccc     O511089   7.306   5.741  10.200  0.0306 -0.0483 -0.5385
  371ccc     C111090   4.860   4.940  10.007  0.1925  0.6529  0.1573
  371ccc     H111091   4.760   4.922  10.049  0.8925  1.0583  2.1145
  371ccc     H211092   4.942   4.916  10.075  1.3125  0.0617 -1.3509
  371ccc     C211093   4.874   5.090   9.988  0.2002 -0.1538  0.0629
  371ccc     H311094   4.817   5.121   9.900 -1.6398 -0.8961  0.9422
  371ccc     H411095   4.977   5.115   9.959  0.3671  0.5190  1.1762
  371ccc     C311096   4.819   5.165  10.104 -0.1721  0.1851 -0.2910
  371ccc     H511097   4.717   5.128  10.121  0.3325 -0.5224  1.3921
  371ccc     H611098   4.805   5.273  10.090  1.8988  0.9047  2.3874
  371ccc     N111099   4.902   5.139  10.222  0.8428 -0.2434 -0.2242
  371ccc     C411100   5.027   5.215  10.236 -0.4712 -0.4293 -0.2559
  371ccc     H711101   5.010   5.320  10.263  3.8056  0.4053 -0.1487
  371ccc     H811102   5.088   5.230  10.146  1.0800  3.0942  1.1809
  371ccc     C511103   5.123   5.159  10.346  0.6532 -0.2416  0.8655
  371ccc     H911104   5.067   5.147  10.440 -0.4888 -1.3015  0.0757
  371ccc    H1011105   5.156   5.060  10.312  0.2045 -0.1241  0.0708
  371ccc     C611106   5.246   5.229  10.374 -0.3054 -0.1301 -0.4322
  371ccc     O111107   5.283   5.329  10.314  0.3947  0.3274  0.2225
  371ccc     O211108   5.313   5.196  10.490 -0.2212  0.5259 -0.2282
  371ccc    H1111109   5.271   5.116  10.526 -0.5945  1.9101  2.6779
  371ccc     C711110   4.824   5.116  10.346 -0.7219  0.2631  0.4315
  371ccc    H1211111   4.741   5.048  10.325 -2.3965  2.3556 -0.0748
  371ccc    H1311112   4.886   5.050  10.408 -0.2969  0.0233 -0.2401
  371ccc     C811113   4.781   5.244  10.415 -0.4119  0.3451 -0.0010
  371ccc    H1411114   4.862   5.317  10.423  1.3605 -0.9573 -3.9048
  371ccc    H1511115   4.703   5.287  10.351 -0.0283 -1.2784 -1.6272
  371ccc     C911116   4.748   5.223  10.565  0.2271  0.0719 -0.2559
  371ccc     O311117   4.828   5.204  10.654 -0.3782 -0.4265 -0.3820
  371ccc     O411118   4.623   5.175  10.574  0.2003 -0.4178 -0.1829
  371ccc    H1611119   4.587   5.215  10.493  1.5318 -0.5457 -0.8649
  371ccc     O511120   4.866   4.878   9.874 -0.6842 -0.4686 -0.1291
  372ccc     C111121   5.395   4.032  10.137  0.6824  0.0267  0.1642
  372ccc     H111122   5.317   3.973  10.188  2.5778 -2.7684  0.0839
  372ccc     H211123   5.402   4.015  10.029  0.1544 -0.7964  0.2512
  372ccc     C211124   5.525   3.974  10.195  0.1567 -0.5331  0.8578
  372ccc     H311125   5.515   3.944  10.300 -0.7902  2.8636  1.8490
  372ccc     H411126   5.598   4.055  10.195 -0.6036  0.2528 -1.4632
  372ccc     C311127   5.589   3.866  10.106  0.2790  0.3226 -0.0962
  372ccc     H511128   5.634   3.907  10.015  1.4864 -1.3253 -0.2812
  372ccc     H611129   5.515   3.788  10.083  0.6023  0.4644 -1.6950
  372ccc     N111130   5.700   3.791  10.168 -0.4288 -0.2080 -0.0488
  372ccc     C411131   5.828   3.871  10.184  0.1138 -0.3777  0.5302
  372ccc     H711132   5.838   3.909  10.287  1.9020 -0.3759  0.3764
  372ccc     H811133   5.824   3.962  10.123  0.8988  1.5707  3.1992
  372ccc     C511134   5.950   3.783  10.142 -0.2558  0.1445 -0.3846
  372ccc     H911135   5.956   3.702  10.216 -0.6915  0.0837 -0.4162
  372ccc    H1011136   5.932   3.725  10.051 -0.6372 -1.1879  0.4989
  372ccc     C611137   6.077   3.862  10.146  0.2097  0.9643 -0.2450
  372ccc     O111138   6.111   3.926  10.241 -0.0511  0.1256  0.4080
  372ccc     O211139   6.124   3.865  10.024  0.2908 -0.4671 -0.3507
  372ccc    H1111140   6.059   3.809   9.976  0.2072  0.6877 -1.6571
  372ccc     C711141   5.685   3.696  10.280  0.9776  0.2224 -0.1063
  372ccc    H1211142   5.761   3.618  10.272  0.4778 -0.3521  0.7213
  372ccc    H1311143   5.703   3.750  10.374 -0.1687 -3.2047  2.2498
  372ccc     C811144   5.548   3.631  10.292  0.3719 -0.4059 -0.1884
  372ccc    H1411145   5.481   3.715  10.316 -0.0237 -1.0937  1.2223
  372ccc    H1511146   5.518   3.589  10.195 -2.3781  1.2741 -0.1552
  372ccc     C911147   5.543   3.516  10.394  0.5222 -0.0571  0.1570
  372ccc     O311148   5.640   3.479  10.462 -0.0251 -0.6284 -0.0721
  372ccc     O411149   5.419   3.457  10.389 -0.6530 -0.7823  0.2939
  372ccc    H1611150   5.360   3.529  10.360 -2.8241 -2.3930  0.4957
  372ccc     O511151   5.379   4.176  10.156  0.3681  0.2532  0.9915
  373ccc     C111152   6.169   5.060  10.844  0.0688 -0.6737 -0.0231
  373ccc     H111153   6.169   4.969  10.783 -0.7131 -2.4216  2.4135
  373ccc     H211154   6.273   5.079  10.875 -0.7831 -0.8685  3.3337
  373ccc     C211155   6.077   5.042  10.970 -0.3009  0.3583  0.2433
  373ccc     H311156   5.974   5.018  10.941  0.6267 -0.5235 -2.6434
  373ccc     H411157   6.073   5.135  11.029  0.0885  0.6244 -0.1427
  373ccc     C311158   6.140   4.940  11.064  0.1458  0.4157 -0.1360
  373ccc     H511159   6.082   4.933  11.157 -1.8805  2.6516 -1.1392
  373ccc     H611160   6.239   4.982  11.087 -0.0180  1.6829 -1.5837
  373ccc     N111161   6.165   4.801  11.012  0.7894 -0.8385 -0.0527
  373ccc     C411162   6.261   4.724  11.088  0.8489  0.8620  0.2663
  373ccc     H711163   6.217   4.683  11.181  1.9452  2.3749  1.5087
  373ccc     H811164   6.342   4.795  11.108  0.5214  0.8457  1.8092
  373ccc     C511165   6.311   4.618  10.983  0.8483 -0.1047  0.4689
  373ccc     H911166   6.242   4.534  10.969 -0.1588  0.8293 -0.3454
  373ccc    H1011167   6.320   4.661  10.882  2.3598 -1.0029  0.1902
  373ccc     C611168   6.443   4.556  11.021  0.1210  0.1868  0.0472
  373ccc     O111169   6.477   4.532  11.136 -0.4021  0.0153 -0.3458
  373ccc     O211170   6.509   4.502  10.919 -0.3417 -0.3038  0.2546
  373ccc    H1111171   6.456   4.524  10.841 -0.3309  0.1970  0.3839
  373ccc     C711172   6.035   4.736  10.965  0.3408  0.2422 -0.6415
  373ccc    H1211173   5.969   4.809  10.916 -0.1138  0.4138  0.2007
  373ccc    H1311174   6.045   4.652  10.896  2.4386  1.1764 -1.5829
  373ccc     C811175   5.951   4.682  11.080 -0.1652 -0.0432  0.1628
  373ccc    H1411176   5.994   4.584  11.106 -0.6496 -1.0015 -2.4098
  373ccc    H1511177   5.958   4.748  11.168  0.7595  1.7223 -1.1707
  373ccc     C911178   5.808   4.653  11.045  1.7062  0.6190  0.0816
  373ccc     O311179   5.761   4.618  10.940 -0.8110  0.3567 -0.1787
  373ccc     O411180   5.714   4.701  11.134  0.0573  0.6501  0.4471
  373ccc    H1611181   5.751   4.747  11.211 -1.3382 -0.0946  1.6146
  373ccc     O511182   6.110   5.170  10.767 -0.2088 -0.1900  0.1035
  374ccc     C111183   6.673   5.595  10.388  1.0123  0.1597  0.3898
  374ccc     H111184   6.648   5.702  10.394  0.5536  0.1483 -0.9048
  374ccc     H211185   6.615   5.539  10.463  2.4470  1.3860  2.5419
  374ccc     C211186   6.823   5.568  10.407  0.3353 -0.1324 -0.0780
  374ccc     H311187   6.884   5.618  10.332 -1.7087  0.6372 -1.3071
  374ccc     H411188   6.834   5.459  10.394  0.1460  0.0246 -1.7563
  374ccc     C311189   6.877   5.606  10.550 -0.3396 -0.5385 -0.7726
  374ccc     H511190   6.822   5.559  10.632  0.9765 -1.5754 -0.4411
  374ccc     H611191   6.857   5.713  10.561  0.8303 -0.4146  0.5032
  374ccc     N111192   7.024   5.600  10.575  0.2630 -0.0081  0.0104
  374ccc     C411193   7.089   5.474  10.534  0.3764  0.1074  0.5029
  374ccc     H711194   7.050   5.455  10.433 -1.0618  0.4181  0.9756
  374ccc     H811195   7.057   5.388  10.595 -3.3573  2.6810  2.5123
  374ccc     C511196   7.243   5.472  10.530 -0.1599  0.1069  0.7351
  374ccc     H911197   7.273   5.564  10.478  1.4780 -0.9103 -0.2150
  374ccc    H1011198   7.285   5.467  10.631 -2.1226 -2.4748  1.5282
  374ccc     C611199   7.294   5.350  10.450 -0.1358  0.3436  0.4845
  374ccc     O111200   7.244   5.314  10.339  0.2495 -0.1452 -0.6346
  374ccc     O211201   7.410   5.302  10.504  0.4235 -0.0938 -0.6252
  374ccc    H1111202   7.430   5.368  10.572 -0.9874  0.2854 -0.5544
  374ccc     C711203   7.069   5.642  10.707  0.2403 -0.0350  0.1286
  374ccc    H1211204   7.040   5.560  10.773 -2.8294 -1.0244 -2.2027
  374ccc    H1311205   7.179   5.650  10.701  0.3276  0.7790  2.1341
  374ccc     C811206   7.004   5.773  10.763 -0.3914  0.0675  0.3421
  374ccc    H1411207   6.895   5.767  10.770 -0.5959 -0.0440 -2.1802
  374ccc    H1511208   7.025   5.788  10.870  0.6940  1.2573 -0.0111
  374ccc     C911209   7.061   5.894  10.690  1.0553 -0.0715 -0.6836
  374ccc     O311210   7.179   5.920  10.670  0.4628  0.3713  0.4801
  374ccc     O411211   6.972   5.940  10.602 -0.1158 -0.0759 -0.0712
  374ccc    H1611212   6.885   5.913  10.637  0.4308 -0.3554  1.1000
  374ccc     O511213   6.639   5.539  10.253 -0.3032 -0.1977 -0.5251
  375ccc     C111214   7.662   2.506  11.222  0.1164 -0.3184  0.7670
  375ccc     H111215   7.650   2.614  11.237  1.8920 -0.1656  1.3874
  375ccc     H211216   7.662   2.491  11.114 -0.0883  1.3373  0.5161
  375ccc     C211217   7.551   2.428  11.294  0.1301  0.2650 -0.6477
  375ccc     H311218   7.456   2.464  11.254  0.2656 -0.2462 -1.4610
  375ccc     H411219   7.558   2.447  11.402 -0.0212  1.3888 -0.8258
  375ccc     C311220   7.537   2.273  11.271  0.2744  0.6432 -0.0308
  375ccc     H511221   7.474   2.228  11.349 -0.3326  1.1795 -0.2017
  375ccc     H611222   7.640   2.239  11.286  0.2336  0.2405 -0.6356
  375ccc     N111223   7.491   2.240  11.134 -0.0442  0.2854  0.2981
  375ccc     C411224   7.348   2.252  11.118  0.0583 -0.0710  0.7869
  375ccc     H711225   7.325   2.255  11.011  0.6600 -1.4169  0.6012
  375ccc     H811226   7.315   2.344  11.168  0.0750 -0.3665  1.3488
  375ccc     C511227   7.261   2.141  11.173 -0.2142 -0.4949  0.6645
  375ccc     H911228   7.279   2.061  11.100  0.7412 -0.1922  0.5594
  375ccc    H1011229   7.286   2.120  11.277 -3.5456  0.3250  1.7654
  375ccc     C611230   7.114   2.158  11.164 -0.2460 -0.5622 -0.9403
  375ccc     O111231   7.063   2.266  11.152 -0.3505 -0.6156 -0.5337
  375ccc     O211232   7.044   2.064  11.232 -0.0770  0.6039  0.1010
  375ccc    H1111233   7.099   1.987  11.255  0.1409  0.8393  0.3737
  375ccc     C711234   7.557   2.117  11.093 -0.8182  0.6033 -0.5401
  375ccc    H1211235   7.665   2.134  11.109 -0.6157  0.0368 -1.2339
  375ccc    H1311236   7.522   2.027  11.145  0.9214  0.4646  0.4938
  375ccc     C811237   7.554   2.084  10.939 -0.3954  0.0754 -1.0389
  375ccc    H1411238   7.452   2.053  10.917 -0.4428  0.5794 -1.5456
  375ccc    H1511239   7.572   2.172  10.877 -1.1489 -0.3412 -1.8607
  375ccc     C911240   7.639   1.965  10.904  0.6052  0.3321  0.0761
  375ccc     O311241   7.732   1.927  10.967  0.4511 -0.0337  0.2446
  375ccc     O411242   7.590   1.886  10.810 -0.2284 -0.3180 -0.2971
  375ccc    H1611243   7.506   1.927  10.781  0.0407  1.3077  1.1178
  375ccc     O511244   7.789   2.466  11.274 -0.1734  0.2265  0.2793
  376ccc     C111245   8.628   3.043  11.087  0.3842  0.6665 -0.5690
  376ccc     H111246   8.670   2.985  11.170 -1.4748 -0.0007 -0.0278
  376ccc     H211247   8.684   3.012  10.997 -0.6764 -1.0787 -0.6790
  376ccc     C211248   8.642   3.197  11.097  0.4094 -0.3432 -0.2056
  376ccc     H311249   8.601   3.237  11.190 -1.6086  1.0191 -1.5818
  376ccc     H411250   8.583   3.252  11.022 -1.1540  1.1927  2.0357
  376ccc     C311251   8.789   3.244  11.067 -0.0160 -0.7494 -0.1747
  376ccc     H511252   8.793   3.256  10.958 -1.4054  2.2833 -0.0002
  376ccc     H611253   8.846   3.157  11.102  0.3335 -0.6177 -0.4135
  376ccc     N111254   8.832   3.378  11.126 -0.1585 -0.3368  0.1578
  376ccc     C411255   8.742   3.495  11.098  0.1791  0.3104  0.9667
  376ccc     H711256   8.774   3.585  11.152  1.2663 -0.0164  0.8913
  376ccc     H811257   8.640   3.476  11.133  0.0624 -2.1694 -0.5071
  376ccc     C511258   8.744   3.534  10.949  0.1216 -0.1409  0.6864
  376ccc     H911259   8.848   3.529  10.916  0.2623 -1.2099  1.2290
  376ccc    H1011260   8.697   3.458  10.886  0.8504  1.2368 -1.6214
  376ccc     C611261   8.695   3.676  10.916 -0.0358  0.1642  0.0620
  376ccc     O111262   8.625   3.733  10.995  0.2049 -0.4082  0.5484
  376ccc     O211263   8.754   3.734  10.808  0.2922 -0.1651  0.3952
  376ccc    H1111264   8.793   3.661  10.758  3.5970 -0.1570  2.6305
  376ccc     C711265   8.976   3.400  11.112  0.0147  0.6005  0.8203
  376ccc    H1211266   9.043   3.318  11.142  0.7660 -0.3603 -2.8685
  376ccc    H1311267   9.010   3.408  11.008  0.7204 -1.8510  0.8008
  376ccc     C811268   9.029   3.527  11.179  0.0027  0.1830 -0.1952
  376ccc    H1411269   8.993   3.624  11.144  0.9209  0.6780  0.1926
  376ccc    H1511270   9.001   3.508  11.284  1.4626 -0.7730  0.0633
  376ccc     C911271   9.183   3.534  11.192 -0.2333  0.4791  0.5044
  376ccc     O311272   9.255   3.506  11.098 -0.5948  0.5591  0.2476
  376ccc     O411273   9.232   3.607  11.294 -0.3839  0.4235  0.0687
  376ccc    H1611274   9.328   3.606  11.286 -0.0812  0.5344  2.7659
  376ccc     O511275   8.489   3.028  11.074 -0.5689 -0.0985  0.2148
  377ccc     C111276   7.871   2.900   9.385 -0.4771 -0.1852 -0.1627
  377ccc     H111277   7.791   2.895   9.310 -2.1154  0.8963  1.4355
  377ccc     H211278   7.827   2.891   9.485  0.3662 -1.4236  0.1241
  377ccc     C211279   7.944   3.033   9.389 -1.2322 -0.0117 -0.2583
  377ccc     H311280   7.872   3.116   9.383 -0.9414  0.2867  0.3043
  377ccc     H411281   8.011   3.042   9.303 -1.9690 -2.3013 -1.1399
  377ccc     C311282   8.039   3.060   9.513  0.3070 -0.6316 -0.9654
  377ccc     H511283   8.097   2.967   9.518  0.0770 -0.7257  1.4526
  377ccc     H611284   7.979   3.060   9.605  1.3706  0.2141 -0.2411
  377ccc     N111285   8.140   3.169   9.503 -0.4086 -0.8343  0.0240
  377ccc     C411286   8.082   3.303   9.469  1.0002  0.6094  0.0025
  377ccc     H711287   8.043   3.310   9.367  0.6330 -1.7110 -0.0770
  377ccc     H811288   8.160   3.380   9.468 -0.2913  1.9660 -0.4213
  377ccc     C511289   7.967   3.340   9.569  0.7465 -0.2500 -0.9111
  377ccc     H911290   7.889   3.264   9.557 -0.0444 -0.0599  2.2781
  377ccc    H1011291   8.015   3.325   9.666  0.4085 -0.4247 -0.7690
  377ccc     C611292   7.920   3.486   9.549  0.3419  0.0002  0.3708
  377ccc     O111293   7.882   3.534   9.445 -0.0544 -0.8687 -0.1446
  377ccc     O211294   7.951   3.571   9.651  0.1680  0.0240  0.9033
  377ccc    H1111295   7.999   3.511   9.711  0.9483 -1.4816 -1.1201
  377ccc     C711296   8.239   3.167   9.614  0.4331 -0.5907  0.2088
  377ccc    H1211297   8.305   3.252   9.598 -1.4005  1.2828  1.9428
  377ccc    H1311298   8.196   3.187   9.713  1.8591  2.5444  0.3104
  377ccc     C811299   8.331   3.047   9.625  0.3256  0.1220 -0.4532
  377ccc    H1411300   8.278   2.954   9.646  0.6508 -0.3219 -1.4860
  377ccc    H1511301   8.370   3.034   9.523  1.3527  1.0825 -0.2085
  377ccc     C911302   8.451   3.050   9.713  0.1960 -0.1287  1.2506
  377ccc     O311303   8.499   3.147   9.763  0.6785 -0.1838 -0.1282
  377ccc     O411304   8.512   2.928   9.719  0.4309 -0.0426  0.2678
  377ccc    H1611305   8.456   2.865   9.669 -0.6626  1.1740 -0.1093
  377ccc     O511306   7.968   2.792   9.370 -0.5809 -0.1302  0.2785
  378ccc     C111307   7.511   2.296  10.121 -0.0101 -0.2992 -0.1270
  378ccc     H111308   7.420   2.321  10.178  1.2251  0.6633  1.5149
  378ccc     H211309   7.486   2.250  10.025 -0.7793 -0.1208 -0.0198
  378ccc     C211310   7.589   2.199  10.216  0.1571  0.0456 -0.2088
  378ccc     H311311   7.696   2.212  10.199  0.5856  3.9544  3.7052
  378ccc     H411312   7.564   2.096  10.188  2.3714 -0.0252 -2.2379
  378ccc     C311313   7.561   2.222  10.363  0.4853  0.4020  0.1248
  378ccc     H511314   7.453   2.207  10.377  0.3812  0.1558 -0.8907
  378ccc     H611315   7.581   2.327  10.386  0.6439  0.0903  1.5064
  378ccc     N111316   7.650   2.145  10.454  0.0867  0.3196  0.2992
  378ccc     C411317   7.682   2.198  10.590 -0.0979 -0.2328 -0.2564
  378ccc     H711318   7.763   2.139  10.635 -1.5433 -0.3847  2.3195
  378ccc     H811319   7.596   2.185  10.656  0.3415 -0.7095  0.2366
  378ccc     C511320   7.733   2.345  10.600  0.1433 -0.0724  0.1284
  378ccc     H911321   7.825   2.356  10.540 -0.2252 -0.2207 -0.4732
  378ccc    H1011322   7.651   2.414  10.575  0.2033  0.0706  0.3200
  378ccc     C611323   7.767   2.372  10.749  1.5016  0.2830  1.2580
  378ccc     O111324   7.683   2.417  10.827  0.3481  0.5312 -0.1682
  378ccc     O211325   7.879   2.316  10.786 -0.2995  0.3567 -0.1730
  378ccc    H1111326   7.907   2.270  10.705  0.9252  2.7345 -1.2007
  378ccc     C711327   7.655   1.997  10.439 -0.2637 -0.0814  0.5839
  378ccc    H1211328   7.610   1.950  10.528 -0.2773 -1.1046  0.0554
  378ccc    H1311329   7.580   1.960  10.368 -1.3017 -0.2651  1.7333
  378ccc     C811330   7.788   1.933  10.416 -0.0262  0.0956 -0.1097
  378ccc    H1411331   7.827   1.957  10.316 -0.4742  0.2972 -0.2376
  378ccc    H1511332   7.862   1.974  10.486 -1.1872 -0.9762  1.8433
  378ccc     C911333   7.784   1.785  10.432  0.4931 -0.3848  0.3673
  378ccc     O311334   7.683   1.717  10.438  0.6166 -0.2663 -0.1202
  378ccc     O411335   7.898   1.717  10.420 -0.5811 -0.1522  0.3724
  378ccc    H1611336   7.974   1.777  10.411 -0.4623  0.3461  3.5503
  378ccc     O511337   7.594   2.421  10.098  0.2724 -0.3370  0.0023
  379ccc     C111338   5.875   3.140  11.582 -0.1458 -0.1188  0.1273
  379ccc     H111339   5.841   3.052  11.526  0.2402  0.4240 -0.9802
  379ccc     H211340   5.939   3.115  11.668  0.0139  1.8175  0.6197
  379ccc     C211341   5.744   3.211  11.632 -0.2710 -0.4927 -0.1473
  379ccc     H311342   5.683   3.144  11.694  0.1300 -2.1658 -1.4959
  379ccc     H411343   5.673   3.233  11.551 -1.2963 -2.0175  0.2969
  379ccc     C311344   5.774   3.340  11.719  0.4053  0.1435  0.1814
  379ccc     H511345   5.828   3.408  11.653 -0.3893 -0.7160 -1.4215
  379ccc     H611346   5.840   3.308  11.801 -1.0201  0.1852  1.3884
  379ccc     N111347   5.646   3.396  11.766 -0.7310 -0.4026  0.2183
  379ccc     C411348   5.683   3.503  11.862  0.2892 -0.2080  0.1332
  379ccc     H711349   5.711   3.595  11.810 -1.4104 -0.6710 -1.7430
  379ccc     H811350   5.765   3.461  11.921  0.2137  0.4169  0.6982
  379ccc     C511351   5.568   3.526  11.961 -0.6840 -0.4275 -0.0169
  379ccc     H911352   5.482   3.580  11.919 -1.1269 -0.5932  0.6728
  379ccc    H1011353   5.533   3.429  11.998 -1.0091  0.1211  1.1601
  379ccc     C611354   5.621   3.600  12.090  0.7020 -0.2343 -0.0738
  379ccc     O111355   5.741   3.628  12.102  0.1781  0.1752  0.0671
  379ccc     O211356   5.530   3.623  12.190 -0.8206  0.0126 -0.0589
  379ccc    H1111357   5.588   3.668  12.255  0.7466 -0.0366 -1.3508
  379ccc     C711358   5.541   3.431  11.663  0.5112 -0.3861  0.3349
  379ccc    H1211359   5.488   3.348  11.615 -1.2381 -0.3796  2.1077
  379ccc    H1311360   5.459   3.486  11.712 -1.0687 -0.6591 -1.8227
  379ccc     C811361   5.597   3.532  11.555 -0.3449  0.3892  0.0170
  379ccc    H1411362   5.646   3.612  11.612  0.0544 -0.3083  0.6816
  379ccc    H1511363   5.676   3.485  11.495 -1.5624 -0.1310 -1.2320
  379ccc     C911364   5.494   3.599  11.461 -0.2056 -0.4770 -0.6854
  379ccc     O311365   5.382   3.567  11.431  0.0549  0.2887 -0.3851
  379ccc     O411366   5.552   3.702  11.393 -0.0802  0.5966  0.2862
  379ccc    H1611367   5.641   3.709  11.432 -0.5876 -1.2694  1.9347
  379ccc     O511368   5.962   3.218  11.500 -0.0494  0.2449  0.1308
  380ccc     C111369   6.095   2.986  10.806  0.3093  0.2206 -0.7486
  380ccc     H111370   6.054   2.924  10.725 -0.7439 -0.6756  0.4235
  380ccc     H211371   6.075   3.093  10.788 -0.6162  0.3918  1.0508
  380ccc     C211372   6.245   2.975  10.835  0.2045  0.6586 -0.0389
  380ccc     H311373   6.296   2.969  10.739  1.5404 -0.8614  0.7190
  380ccc     H411374   6.266   2.884  10.894 -1.0238 -0.7007 -1.5908
  380ccc     C311375   6.303   3.096  10.915 -0.5746  0.1646 -0.0134
  380ccc     H511376   6.412   3.082  10.920 -0.6826 -0.7011  0.1476
  380ccc     H611377   6.269   3.099  11.019  0.4425 -1.0053  0.3788
  380ccc     N111378   6.264   3.223  10.857 -0.3713  0.1410 -0.2400
  380ccc     C411379   6.279   3.332  10.955  0.0857  0.6739 -0.0340
  380ccc     H711380   6.220   3.298  11.041 -0.7021  0.0237 -0.8113
  380ccc     H811381   6.229   3.423  10.918 -2.8009 -1.6972 -2.5085
  380ccc     C511382   6.419   3.352  11.015 -0.4306  0.1143  0.5593
  380ccc     H911383   6.447   3.262  11.071 -1.6251 -0.9310 -0.4731
  380ccc    H1011384   6.503   3.354  10.944  0.1301  0.2416  1.2193
  380ccc     C611385   6.437   3.484  11.084 -0.3829  0.0989  0.1751
  380ccc     O111386   6.346   3.548  11.139  0.6553  0.2729 -0.0776
  380ccc     O211387   6.568   3.527  11.084  0.1555  0.2285  0.3267
  380ccc    H1111388   6.624   3.462  11.039 -2.2649  0.1561 -2.9959
  380ccc     C711389   6.329   3.248  10.718 -0.0797  0.0468 -0.7470
  380ccc    H1211390   6.422   3.305  10.727  0.8624 -1.7071  1.6714
  380ccc    H1311391   6.351   3.153  10.667  0.4238  0.4515 -1.3026
  380ccc     C811392   6.228   3.322  10.625 -0.5758 -0.0742 -0.4239
  380ccc    H1411393   6.146   3.259  10.588 -1.3865  1.9589 -2.3201
  380ccc    H1511394   6.181   3.400  10.686 -0.8601 -1.4867  1.2290
  380ccc     C911395   6.289   3.371  10.497 -0.1953  0.3888  0.7597
  380ccc     O311396   6.406   3.384  10.480 -0.2672  0.6920  0.5731
  380ccc     O411397   6.197   3.408  10.405 -0.1349 -0.3284  0.5800
  380ccc    H1611398   6.116   3.392  10.456 -1.0557 -1.4545 -1.1463
  380ccc     O511399   6.026   2.945  10.933  0.1281  0.1834 -0.2265
  381ccc     C111400   7.288   3.113   9.974  0.2527  0.1964  0.2413
  381ccc     H111401   7.325   3.123  10.077 -1.0324 -2.3761  1.0471
  381ccc     H211402   7.312   3.010   9.945 -0.4193  0.3290 -0.8010
  381ccc     C211403   7.355   3.216   9.883  0.5542 -0.1966 -0.1960
  381ccc     H311404   7.301   3.311   9.874  0.9661  0.2092  1.2316
  381ccc     H411405   7.352   3.174   9.782 -1.2924  2.2031 -1.2412
  381ccc     C311406   7.503   3.246   9.911 -0.8769 -0.4287 -1.1266
  381ccc     H511407   7.550   3.149   9.932 -0.2195  0.1764  0.3353
  381ccc     H611408   7.513   3.304  10.003  2.4176 -2.6835  0.1248
  381ccc     N111409   7.564   3.325   9.809 -0.0154 -0.4774 -0.7448
  381ccc     C411410   7.682   3.403   9.856 -0.1202 -0.0292 -0.1805
  381ccc     H711411   7.749   3.432   9.774 -0.1238 -0.8944 -0.4980
  381ccc     H811412   7.742   3.344   9.926  0.2433  1.1054  0.4871
  381ccc     C511413   7.641   3.533   9.932  0.3920  0.4222 -0.1666
  381ccc     H911414   7.554   3.513   9.996  0.0131  1.0419 -0.4697
  381ccc    H1011415   7.709   3.574  10.007  1.5008  0.3342 -1.1062
  381ccc     C611416   7.599   3.640   9.842 -0.4556  0.2150  0.2294
  381ccc     O111417   7.625   3.645   9.725 -0.4878  0.4271 -0.0409
  381ccc     O211418   7.529   3.736   9.904 -0.1601 -0.5223 -0.1726
  381ccc    H1111419   7.539   3.722  10.000 -0.0545 -1.4886 -0.3160
  381ccc     C711420   7.588   3.257   9.681  0.1227 -0.0213 -0.4841
  381ccc    H1211421   7.687   3.210   9.681  0.6557  0.7794  3.3709
  381ccc    H1311422   7.516   3.176   9.669 -2.0725  1.2933  2.4604
  381ccc     C811423   7.566   3.359   9.560 -0.5645 -0.5243  0.0447
  381ccc    H1411424   7.470   3.412   9.563  0.2376  1.2482 -2.1505
  381ccc    H1511425   7.638   3.442   9.570  1.4372 -2.3102  1.1552
  381ccc     C911426   7.586   3.292   9.424  0.1186 -0.0612  0.0051
  381ccc     O311427   7.632   3.178   9.408 -0.2107 -0.4685 -0.3731
  381ccc     O411428   7.558   3.373   9.323  0.0316  0.0762  0.4025
  381ccc    H1611429   7.517   3.457   9.349  2.0528  0.5670  2.3844
  381ccc     O511430   7.142   3.109   9.965 -0.0943  0.4321  0.4907
  382ccc     C111431   7.199   3.213  10.573  0.1856 -0.4392 -0.1069
  382ccc     H111432   7.226   3.176  10.473  2.4623  1.6459 -0.3598
  382ccc     H211433   7.255   3.305  10.591 -0.5597  0.4360 -2.0065
  382ccc     C211434   7.221   3.117  10.685  0.1238 -0.5659 -0.6644
  382ccc     H311435   7.209   3.171  10.780  2.3989 -1.5218  0.2445
  382ccc     H411436   7.330   3.109  10.695  0.0592  1.1851  2.8672
  382ccc     C311437   7.144   2.983  10.685  0.0450  0.4238  0.4852
  382ccc     H511438   7.037   2.994  10.664  0.4998  1.5535 -1.5387
  382ccc     H611439   7.161   2.940  10.784 -3.9238 -1.7833  0.4097
  382ccc     N111440   7.199   2.901  10.574 -0.4615 -0.9338 -0.2645
  382ccc     C411441   7.105   2.839  10.488  0.2064 -0.3549 -0.3265
  382ccc     H711442   7.014   2.809  10.542 -0.6485  2.0573 -0.3044
  382ccc     H811443   7.131   2.741  10.448 -0.3778 -1.1166  1.0707
  382ccc     C511444   7.048   2.936  10.379 -0.5248  0.5672  0.3633
  382ccc     H911445   6.994   3.018  10.427 -0.8929 -0.3381  1.5581
  382ccc    H1011446   7.130   2.976  10.318  0.4785 -1.2758  0.4298
  382ccc     C611447   6.951   2.878  10.283 -0.5586 -0.3713  0.2717
  382ccc     O111448   6.835   2.914  10.286 -0.5829  0.3822  0.3196
  382ccc     O211449   7.008   2.806  10.179  0.2058  0.1053 -0.1707
  382ccc    H1111450   7.102   2.816  10.203 -0.1713 -2.2174  2.9287
  382ccc     C711451   7.310   2.816  10.620  0.4171 -0.3859 -0.6727
  382ccc    H1211452   7.349   2.859  10.713  0.1694 -0.1961 -0.6530
  382ccc    H1311453   7.270   2.717  10.646 -0.3422  0.1486  0.2539
  382ccc     C811454   7.420   2.816  10.505  0.0826 -0.4868  0.1784
  382ccc    H1411455   7.383   2.786  10.407  1.2418  1.7016 -1.0043
  382ccc    H1511456   7.458   2.918  10.494  1.5615 -0.9933  0.3183
  382ccc     C911457   7.530   2.733  10.568  0.0570  0.4905 -0.2308
  382ccc     O311458   7.571   2.740  10.683 -0.1450  0.4046 -0.4153
  382ccc     O411459   7.568   2.623  10.490  1.0162 -0.1207  0.3960
  382ccc    H1611460   7.535   2.643  10.401  2.4275 -1.2560 -0.4332
  382ccc     O511461   7.061   3.261  10.574 -0.1075 -1.0236  0.6132
  383SOL     OW11462   0.857   4.624   7.518  0.5340 -0.0410 -0.1645
  383SOL    HW111463   0.832   4.710   7.482  1.2498  0.8514  1.3993
  383SOL    HW211464   0.952   4.620   7.507  0.4366 -0.9020 -0.7595
  384SOL     OW11465   9.573   5.506   9.427 -0.2026 -0.0617 -0.1775
  384SOL    HW111466   9.576   5.585   9.372  0.6685 -2.0122 -3.2118
  384SOL    HW211467   9.665   5.483   9.439 -0.4480 -0.6773  0.5708
  385SOL     OW11468  11.838   9.019   1.668  0.1339  0.3012  0.3163
  385SOL    HW111469  11.913   8.960   1.658 -0.9252 -1.1388  0.6574
  385SOL    HW211470  11.776   8.971   1.722 -1.3722  1.1656 -0.5768
  386SOL     OW11471  11.573   4.773   2.615 -0.3961  0.2540 -0.6982
  386SOL    HW111472  11.560   4.790   2.521  0.2857  0.6301 -0.7328
  386SOL    HW211473  11.667   4.783   2.628 -0.4572 -0.0230 -0.0097
  387SOL     OW11474   2.872  11.786   0.298  0.4383  0.1951 -0.8380
  387SOL    HW111475   2.940  11.837   0.255 -0.1946 -0.7488 -3.0854
  387SOL    HW211476   2.803  11.777   0.233 -1.8392  0.9783  1.2895
  388SOL     OW11477   9.966   8.022   5.016 -0.3642  0.2306 -0.4443
  388SOL    HW111478   9.887   8.076   5.012 -0.7201  0.0309  2.0915
  388SOL    HW211479  10.034   8.076   4.977 -1.4731  0.9357 -1.4758
  389SOL     OW11480   6.445   9.807  12.339 -0.1157 -0.3629  0.2095
  389SOL    HW111481   6.351   9.819  12.332 -0.0518  0.3776  0.4799
  389SOL    HW211482   6.467   9.745  12.269 -0.7603 -0.3154 -0.0386
  390SOL     OW11483  10.462  12.488   6.873  0.6074  0.0055 -0.4038
  390SOL    HW111484  10.513  12.545   6.816  0.7037  1.5242  1.1095
  390SOL    HW211485  10.401  12.444   6.814  1.3111  0.8178 -1.7915
  391SOL     OW11486   8.469  10.477   6.979  0.1072  0.4229 -0.1681
  391SOL    HW111487   8.536  10.539   7.005 -0.7848  1.3493 -0.0236
  391SOL    HW211488   8.448  10.429   7.059 -0.3788  1.0845  0.1057
  392SOL     OW11489   9.283   6.919   7.077  0.3845  0.0971 -0.4521
  392SOL    HW111490   9.307   6.847   7.135  1.4492 -0.2915 -1.3416
  392SOL    HW211491   9.245   6.985   7.135  1.7269 -0.1265  0.7360
  393SOL     OW11492   0.280   7.735   5.482 -0.4171  0.9623 -0.1192
  393SOL    HW111493   0.271   7.705   5.392  2.6593 -0.1465 -0.1757
  393SOL    HW211494   0.353   7.798   5.480 -1.2592  2.0734  1.3798
  394SOL     OW11495  11.908   4.662   5.091 -0.3985  0.1225  0.4983
  394SOL    HW111496  11.948   4.719   5.158 -0.9269 -0.7529  1.5928
  394SOL    HW211497  11.816   4.689   5.089 -0.4490 -0.0610  0.3594
  395SOL     OW11498   8.277  12.564   9.754  0.1639  0.1409 -0.1598
  395SOL    HW111499   8.285  12.659   9.766  0.7601 -0.1170  2.0303
  395SOL    HW211500   8.332  12.544   9.678  0.0064  1.5411 -0.6693
  396SOL     OW11501   1.895   5.101   3.270  0.4942  0.1851  0.4203
  396SOL    HW111502   1.866   5.125   3.181  0.8916  0.2806  0.3181
  396SOL    HW211503   1.829   5.038   3.299  0.6595 -0.2618 -0.1533
  397SOL     OW11504   7.746   5.924   7.810 -0.3888  0.3872 -0.1504
  397SOL    HW111505   7.769   5.894   7.898  0.6846  1.9902  0.1619
  397SOL    HW211506   7.784   6.012   7.804  0.9585 -0.2785 -2.7746
  398SOL     OW11507   8.394   6.344   5.079 -0.3816  0.2721  0.2986
  398SOL    HW111508   8.331   6.288   5.124 -1.4425  2.3549  1.5417
  398SOL    HW211509   8.429   6.289   5.008 -1.0359 -2.0477  1.6833
  399SOL     OW11510  12.114   9.109   1.005  0.1981 -0.0714  0.6464
  399SOL    HW111511  12.107   9.141   0.916  1.5523  0.0499  0.5538
  399SOL    HW211512  12.045   9.043   1.013  1.0427 -1.2573 -1.0297
  400SOL     OW11513  12.624  11.254   1.764 -0.0141  0.1450  0.3199
  400SOL    HW111514  12.687  11.307   1.716  0.3082  1.0149  1.6398
  400SOL    HW211515  12.606  11.304   1.843 -0.8299 -1.0462  0.9244
  401SOL     OW11516   6.622  10.628   9.076  0.6085  0.4943 -0.8759
  401SOL    HW111517   6.590  10.650   9.164 -0.3174  3.7832 -1.9069
  401SOL    HW211518   6.711  10.663   9.073  0.2856  1.2807 -1.5426
  402SOL     OW11519   6.540  11.866   7.793  0.1457 -0.0549 -0.6138
  402SOL    HW111520   6.552  11.847   7.886  2.1123  0.0926 -0.8052
  402SOL    HW211521   6.618  11.916   7.769 -1.5049  2.1451 -1.7674
  403SOL     OW11522   1.119  12.074   4.880  0.0694  0.2420 -0.3397
  403SOL    HW111523   1.079  12.159   4.863  0.9289  0.7898  0.2847
  403SOL    HW211524   1.213  12.089   4.869  0.2487 -0.5787 -0.0255
  404SOL     OW11525   4.839   0.642   9.600  0.1654 -0.7791 -0.2508
  404SOL    HW111526   4.826   0.547   9.593 -0.0663 -0.6729 -1.7000
  404SOL    HW211527   4.770   0.679   9.545  0.1022  0.2434  0.5054
  405SOL     OW11528   0.409   6.278  10.530 -0.2147  0.0245  0.1796
  405SOL    HW111529   0.504   6.275  10.540 -0.0917  0.3009 -0.8603
  405SOL    HW211530   0.384   6.188  10.511  0.0901  0.2898 -1.6011
  406SOL     OW11531  10.730   2.133  11.534  0.0353  0.1860 -0.6457
  406SOL    HW111532  10.689   2.055  11.570 -1.2697  0.9935 -0.3072
  406SOL    HW211533  10.812   2.142  11.583 -0.7905  0.1870  0.7849
  407SOL     OW11534   1.943   1.262   7.246 -0.4133 -0.4287 -1.1987
  407SOL    HW111535   1.964   1.241   7.155 -0.0564 -0.3096 -1.1454
  407SOL    HW211536   1.961   1.181   7.294  0.2060 -0.2413 -1.1101
  408SOL     OW11537  11.753  10.652   0.506 -0.0325 -0.3356 -0.6457
  408SOL    HW111538  11.767  10.727   0.565 -2.6679  0.9096 -1.4602
  408SOL    HW211539  11.838  10.637   0.466  1.2823  0.2972  1.6899
  409SOL     OW11540   3.662  11.450   5.283  0.5794  0.4322  0.0222
  409SOL    HW111541   3.574  11.413   5.296  0.5977  0.9704  1.8698
  409SOL    HW211542   3.652  11.507   5.206  0.4716 -2.9509 -2.7317
  410SOL     OW11543   6.912  12.929   6.335  0.0967  0.0102  0.9327
  410SOL    HW111544   6.993  12.973   6.308  0.5619 -1.8433 -0.9006
  410SOL    HW211545   6.844  12.994   6.318  0.8827  0.5053 -0.5254
  411SOL     OW11546   8.255   4.050   6.338 -0.1588  0.3043  0.0175
  411SOL    HW111547   8.292   4.135   6.315  0.1298  0.1422 -0.1314
  411SOL    HW211548   8.189   4.069   6.405 -1.5079  0.8601 -1.4274
  412SOL     OW11549   1.765  11.848   7.514 -0.3402 -0.1535 -0.3639
  412SOL    HW111550   1.704  11.879   7.447 -2.7628 -0.8269  1.4090
  412SOL    HW211551   1.734  11.760   7.536  0.1855  0.1597  1.8428
  413SOL     OW11552  12.384  10.791  10.758 -0.5578  0.3507 -0.1922
  413SOL    HW111553  12.325  10.717  10.742  0.3884 -0.3037 -0.7652
  413SOL    HW211554  12.434  10.800  10.677  0.0900  0.9266  0.2593
  414SOL     OW11555   5.005   7.915  11.373  0.9096  0.4331 -0.7053
  414SOL    HW111556   4.923   7.865  11.374  1.2924 -0.2472  1.4342
  414SOL    HW211557   4.994   7.976  11.301 -1.1396 -0.2122 -1.0182
  415SOL     OW11558   1.669   5.148   9.973 -0.0277  0.3483  0.1249
  415SOL    HW111559   1.631   5.156  10.060  0.8161  0.6637  0.4811
  415SOL    HW211560   1.615   5.204   9.917 -1.2124 -0.6778  0.2189
  416SOL     OW11561   3.704   8.676   7.933 -0.6333  0.0204  0.1461
  416SOL    HW111562   3.748   8.728   8.000 -0.6497 -0.5321  0.5916
  416SOL    HW211563   3.707   8.586   7.967  1.2877 -0.6507 -1.5356
  417SOL     OW11564   3.193   4.819   8.957 -0.1561 -0.4749  0.1812
  417SOL    HW111565   3.266   4.846   8.900  0.9879 -0.8675  1.4169
  417SOL    HW211566   3.198   4.879   9.032 -0.9805 -0.6396  0.3762
  418SOL     OW11567   0.010  10.885   2.102  0.3511  0.6005 -0.4201
  418SOL    HW111568   0.055  10.900   2.185 -1.4471  0.0926  0.7027
  418SOL    HW211569   0.053  10.807   2.065  0.4876  0.2135  0.5369
  419SOL     OW11570   7.637   3.438   8.787 -0.2992  0.0734 -0.2690
  419SOL    HW111571   7.588   3.447   8.706  0.7632 -0.6138 -1.0027
  419SOL    HW211572   7.619   3.519   8.835 -1.0501  0.4202 -1.1203
  420SOL     OW11573   8.863  11.240   5.866 -0.2269 -0.0709 -0.3852
  420SOL    HW111574   8.862  11.147   5.842  1.9407 -0.1034 -0.5749
  420SOL    HW211575   8.885  11.285   5.784 -2.9193  0.8328 -0.7004
  421SOL     OW11576   2.611   0.580   6.236 -0.2806 -0.4248 -0.5948
  421SOL    HW111577   2.704   0.601   6.243  0.2043 -2.5572  0.1837
  421SOL    HW211578   2.568   0.645   6.291  0.9233 -0.3700  0.3250
  422SOL     OW11579   0.795  12.479   4.206  0.1336  0.1346  0.3812
  422SOL    HW111580   0.779  12.405   4.265 -0.1676  0.2479  0.4403
  422SOL    HW211581   0.799  12.555   4.263  0.5115  0.1592  0.3261
  423SOL     OW11582   6.854  10.955   5.890  0.6314  0.3638  0.2388
  423SOL    HW111583   6.766  10.918   5.881  0.9062  0.0444 -1.6061
  423SOL    HW211584   6.849  11.040   5.844  0.8256  1.2095  1.7278
  424SOL     OW11585   4.464   9.936  11.966  0.5088  0.2684 -0.0797
  424SOL    HW111586   4.507   9.927  11.881  0.6335 -1.2304  0.1214
  424SOL    HW211587   4.533   9.965  12.025  0.3808  1.5020 -0.5018
  425SOL     OW11588   1.981   7.192   2.597  0.0135  0.2264 -0.0465
  425SOL    HW111589   2.068   7.225   2.573  1.2576 -2.5994  0.1804
  425SOL    HW211590   1.921   7.238   2.538  1.8515  1.0325 -1.3954
  426SOL     OW11591   4.997  12.594   4.506 -0.5605  0.2598  1.2200
  426SOL    HW111592   4.995  12.618   4.599  0.8512  1.6544  0.9315
  426SOL    HW211593   5.071  12.644   4.470 -1.5661  0.3750 -0.8175
  427SOL     OW11594   3.663   0.503   2.909  0.1494 -0.3612 -0.0960
  427SOL    HW111595   3.676   0.583   2.959  1.8059 -0.8011  0.2532
  427SOL    HW211596   3.730   0.443   2.943 -0.2110 -1.4509 -1.2441
  428SOL     OW11597   0.827  10.835   7.273 -0.2501 -0.2783 -0.0775
  428SOL    HW111598   0.878  10.901   7.226 -0.2758  0.4152  0.8190
  428SOL    HW211599   0.736  10.858   7.254 -0.2459 -1.2999 -1.3933
  429SOL     OW11600  12.096   6.560  12.774 -0.1078 -0.0552  0.4467
  429SOL    HW111601  12.136   6.522  12.852 -0.3466 -1.7549 -0.2260
  429SOL    HW211602  12.145   6.641  12.759  0.8496 -0.4074  1.5560
  430SOL     OW11603   4.641   3.882   6.109  0.4638 -0.6883  0.0551
  430SOL    HW111604   4.555   3.908   6.141  0.6396  0.7261 -0.5742
  430SOL    HW211605   4.702   3.942   6.152  0.8582  0.1577 -1.6424
  431SOL     OW11606   3.360   6.320   5.262 -0.0092  0.3838  0.0770
  431SOL    HW111607   3.402   6.383   5.321 -1.2314  0.1026  1.2821
  431SOL    HW211608   3.412   6.240   5.271  0.7330  0.7958 -0.4279
  432SOL     OW11609   2.770  11.732   3.735  0.8841 -0.7150 -0.4587
  432SOL    HW111610   2.816  11.649   3.742  2.8452  0.1797 -1.9513
  432SOL    HW211611   2.682  11.709   3.705 -0.2923 -2.5932  3.7239
  433SOL     OW11612  10.004  10.935   1.173 -0.3721 -0.1196 -0.0774
  433SOL    HW111613   9.949  10.931   1.251  0.3041  0.6339  0.4521
  433SOL    HW211614  10.029  11.027   1.165 -0.1830 -0.2418 -1.0086
  434SOL     OW11615   9.801   3.896   6.569  0.0540 -0.3755 -0.7401
  434SOL    HW111616   9.846   3.845   6.636  1.1542 -0.4477 -1.5092
  434SOL    HW211617   9.860   3.969   6.550 -0.3025 -0.2748 -1.5282
  435SOL     OW11618   9.182  12.737   4.926 -0.3656  0.1132 -0.0316
  435SOL    HW111619   9.133  12.815   4.953 -0.6487 -0.2125  0.4124
  435SOL    HW211620   9.254  12.731   4.990 -0.4863 -0.1243  0.0817
  436SOL     OW11621   1.794   4.003   9.231  0.3236 -0.0715  0.0817
  436SOL    HW111622   1.758   4.067   9.292 -0.0445  0.1070 -0.3166
  436SOL    HW211623   1.789   3.919   9.277 -2.2547 -0.3685 -0.5926
  437SOL     OW11624   8.696   5.732   7.393 -0.3694 -0.3329 -0.5819
  437SOL    HW111625   8.747   5.801   7.350 -1.6046  0.5047 -0.7254
  437SOL    HW211626   8.756   5.656   7.394  0.7075  0.4801 -1.1632
  438SOL     OW11627   6.349  12.369   8.689 -0.1423  0.4730 -0.0342
  438SOL    HW111628   6.286  12.434   8.658  0.1532  1.0558  0.5583
  438SOL    HW211629   6.431  12.394   8.647  0.5072  1.9094  1.9722
  439SOL     OW11630   6.584  12.566   5.636 -0.0969 -0.0108 -0.1720
  439SOL    HW111631   6.498  12.544   5.598 -0.1353  0.7226 -0.5277
  439SOL    HW211632   6.645  12.555   5.564 -0.4149  3.3308 -1.1349
  440SOL     OW11633   5.851  10.417   1.605 -0.0523  0.0704 -0.2367
  440SOL    HW111634   5.836  10.426   1.511  1.0279 -0.0345 -0.4373
  440SOL    HW211635   5.904  10.493   1.628  2.2261 -1.3720 -0.3358
  441SOL     OW11636   6.438  12.672   3.088  0.5542  0.0554 -0.8442
  441SOL    HW111637   6.505  12.739   3.102  1.0052 -0.9506  3.4068
  441SOL    HW211638   6.487  12.589   3.090 -0.5233 -0.5848 -0.4590
  442SOL     OW11639   3.516   9.475  10.852 -0.4453 -0.2738 -0.1578
  442SOL    HW111640   3.546   9.565  10.841  0.6381 -0.3481  1.6757
  442SOL    HW211641   3.523   9.436  10.764 -0.8787  1.3758 -0.9620
  443SOL     OW11642   0.321   5.556   5.151 -0.2187  0.1772 -0.0088
  443SOL    HW111643   0.259   5.484   5.164  0.9871 -1.1359 -1.1947
  443SOL    HW211644   0.388   5.542   5.217 -0.6057  0.9858  0.5821
  444SOL     OW11645   4.815   4.728   4.924 -0.7357 -0.3633 -0.2223
  444SOL    HW111646   4.885   4.685   4.875 -1.5270 -3.2248  0.9503
  444SOL    HW211647   4.815   4.683   5.009 -1.1738  2.5650  1.4543
  445SOL     OW11648   4.844  10.930   2.941  0.4102  0.1362 -0.1382
  445SOL    HW111649   4.824  11.009   2.991 -0.3978  0.9670 -1.6703
  445SOL    HW211650   4.900  10.879   2.998  2.7970  2.8083  0.1346
  446SOL     OW11651  12.199   0.872  12.352  0.0899 -0.4463 -0.0971
  446SOL    HW111652  12.261   0.831  12.412  1.4851  1.2316 -0.2882
  446SOL    HW211653  12.254   0.915  12.287 -1.3059  0.4569 -0.7264
  447SOL     OW11654  10.439   0.553  11.026 -0.0816 -0.2196 -0.1700
  447SOL    HW111655  10.350   0.553  11.061 -0.1079 -0.1133 -0.2380
  447SOL    HW211656  10.494   0.539  11.103 -0.1671 -0.4991 -0.1561
  448SOL     OW11657   0.444   4.202  11.377 -0.0712  0.6895  0.1753
  448SOL    HW111658   0.363   4.251  11.366 -2.0741 -2.6938 -1.6464
  448SOL    HW211659   0.477   4.189  11.288  1.5973  0.5670  0.7680
  449SOL     OW11660   6.234   2.361   3.533  0.2130  0.1416 -0.3289
  449SOL    HW111661   6.264   2.350   3.443 -0.5473 -1.8925 -0.3633
  449SOL    HW211662   6.143   2.333   3.532 -0.1597  1.2026  0.8701
  450SOL     OW11663   2.093   0.901   6.469 -0.1169  0.4069 -0.1004
  450SOL    HW111664   2.166   0.851   6.432 -1.6473 -2.1492  0.1034
  450SOL    HW211665   2.103   0.891   6.564 -0.1626  0.9121 -0.0435
  451SOL     OW11666   5.615  10.452  11.517  0.1741 -0.3300  0.0930
  451SOL    HW111667   5.647  10.514  11.451  1.8454 -1.0741  0.1577
  451SOL    HW211668   5.685  10.450  11.583  0.0837 -2.1563  0.1714
  452SOL     OW11669   3.583   5.428   4.362 -0.0750  0.0302  0.4262
  452SOL    HW111670   3.665   5.411   4.316 -0.6761 -2.5855  0.1956
  452SOL    HW211671   3.515   5.419   4.295 -0.8083 -1.7447  1.3581
  453SOL     OW11672   2.285   6.623   9.064 -0.4481  0.5635 -0.0966
  453SOL    HW111673   2.220   6.644   9.132 -1.4562  1.2632 -1.2494
  453SOL    HW211674   2.360   6.679   9.085 -0.8458  0.9616  0.2788
  454SOL     OW11675   4.970   7.392   1.374  0.3146 -0.2697 -0.3017
  454SOL    HW111676   4.940   7.310   1.334  1.6448 -1.0601  0.2333
  454SOL    HW211677   4.907   7.410   1.443  0.6198 -1.4870  0.3219
  455SOL     OW11678   2.830   5.042   6.663 -0.0851  0.5920  0.4232
  455SOL    HW111679   2.776   4.971   6.626 -0.0465 -0.0445  1.5277
  455SOL    HW211680   2.804   5.120   6.614  1.1760 -0.4582 -2.1160
  456SOL     OW11681  11.983   0.064   4.836  0.0976 -0.3150 -0.0383
  456SOL    HW111682  11.901   0.035   4.797  0.8658 -1.4387 -0.8814
  456SOL    HW211683  11.996   0.153   4.803 -1.2408  0.2478  0.8812
  457SOL     OW11684  12.721   1.379   5.997 -0.2977  0.3264  0.1376
  457SOL    HW111685  12.714   1.474   5.996  0.3571  0.3816 -0.5249
  457SOL    HW211686  12.757   1.358   6.083 -3.1727  0.4242  1.4605
  458SOL     OW11687   8.482   2.554  10.978 -0.3884 -0.1524  0.1123
  458SOL    HW111688   8.391   2.544  11.006 -0.5679 -0.0647 -0.4311
  458SOL    HW211689   8.516   2.464  10.974 -0.3886 -0.1732  0.5048
  459SOL     OW11690   3.698   4.198   0.599  0.6273  0.4235 -0.0962
  459SOL    HW111691   3.620   4.205   0.654 -0.0618  0.3944 -1.0443
  459SOL    HW211692   3.764   4.252   0.644  0.7469 -1.1987  1.8207
  460SOL     OW11693   7.658   4.614   7.115 -0.2901  0.0353 -0.1787
  460SOL    HW111694   7.599   4.689   7.121 -3.8741 -2.5654  0.7323
  460SOL    HW211695   7.629   4.566   7.038  0.9846 -1.1325  0.0276
  461SOL     OW11696   2.139   4.104  11.874 -0.1751  0.5016 -0.7119
  461SOL    HW111697   2.233   4.120  11.865 -0.2227  1.5548  0.4498
  461SOL    HW211698   2.108   4.172  11.933 -1.3239 -0.9294  0.4333
  462SOL     OW11699   2.651   9.569   9.872 -0.2921  0.3697 -0.2991
  462SOL    HW111700   2.614   9.481   9.859  0.2231 -0.1893  1.6569
  462SOL    HW211701   2.745   9.554   9.884 -0.4100  0.9285  1.7695
  463SOL     OW11702   9.697  12.189   5.547 -0.4648  0.3800  1.0133
  463SOL    HW111703   9.671  12.247   5.475 -2.3163  0.7529  1.9436
  463SOL    HW211704   9.793  12.188   5.543 -0.4812  1.5176 -0.5592
  464SOL     OW11705   4.313   3.743  10.465 -0.2444  0.0338  0.3202
  464SOL    HW111706   4.327   3.742  10.370 -2.5856  0.7388 -0.0995
  464SOL    HW211707   4.218   3.731  10.475 -0.4066  2.3529  2.4503
  465SOL     OW11708   0.446   7.329   5.106  0.0611 -0.1195 -0.2287
  465SOL    HW111709   0.462   7.260   5.170  2.3946  1.0467  0.5653
  465SOL    HW211710   0.360   7.365   5.131  0.8809  0.2917  2.3372
  466SOL     OW11711  12.264   1.548   3.326 -0.5466 -0.3785  0.0665
  466SOL    HW111712  12.348   1.516   3.360 -0.1420  1.6577  1.1433
  466SOL    HW211713  12.198   1.508   3.383 -0.2139 -0.9167  0.0810
  467SOL     OW11714   9.826   1.733   5.000  0.0088  0.2322 -0.6634
  467SOL    HW111715   9.893   1.669   5.022 -0.9798 -0.3693  0.7743
  467SOL    HW211716   9.780   1.695   4.925  1.0861  0.5379 -1.5047
  468SOL     OW11717   7.111   1.073   8.756 -0.2115 -0.2377  0.0345
  468SOL    HW111718   7.070   1.153   8.724  0.8517 -0.1362 -1.1522
  468SOL    HW211719   7.202   1.098   8.772  0.2904 -1.3518 -0.9776
  469SOL     OW11720   3.171   4.022   4.037  0.2304  0.1058 -0.3339
  469SOL    HW111721   3.242   3.973   4.077 -0.5794 -0.7633  0.0615
  469SOL    HW211722   3.207   4.051   3.953  0.0802 -3.0314 -1.6115
  470SOL     OW11723   2.946   9.598   9.884 -0.4041  0.2058  0.2490
  470SOL    HW111724   2.988   9.512   9.878  0.1989  0.1809  3.1296
  470SOL    HW211725   3.014   9.655   9.922 -1.3401  1.4963  0.0529
  471SOL     OW11726   4.737   6.280  10.014 -0.0910 -0.3063  0.4677
  471SOL    HW111727   4.679   6.249   9.944 -1.5355 -2.1687  2.3408
  471SOL    HW211728   4.701   6.366  10.038 -0.6638 -0.4319  0.0909
  472SOL     OW11729   1.632   2.944   4.157 -0.0421 -0.1188 -0.4704
  472SOL    HW111730   1.713   2.964   4.110 -0.5965 -0.5922 -1.6650
  472SOL    HW211731   1.658   2.880   4.224  0.3815 -1.2351 -1.6549
  473SOL     OW11732   0.143   0.959  12.046  0.1670  0.3198 -0.0012
  473SOL    HW111733   0.087   0.969  11.969 -0.1886  1.4468  0.3893
  473SOL    HW211734   0.186   0.874  12.033 -2.6845 -1.3101  0.3628
  474SOL     OW11735   1.088   4.831   3.609  0.0505  0.0466  0.6255
  474SOL    HW111736   1.022   4.763   3.593  0.4000 -0.0270 -0.5916
  474SOL    HW211737   1.044   4.893   3.668 -0.1627 -1.3872  2.0507
  475SOL     OW11738   7.918   2.167   9.811 -0.2311 -0.6571  0.2693
  475SOL    HW111739   7.979   2.093   9.818  0.8012  0.2101  0.7638
  475SOL    HW211740   7.944   2.225   9.882 -1.8784 -0.4200  0.6959
  476SOL     OW11741   1.548   4.994  12.531 -0.6801  0.6788  0.1276
  476SOL    HW111742   1.489   5.037  12.592  1.7417  2.1119  1.6382
  476SOL    HW211743   1.500   4.916  12.501 -2.4855  0.6363  2.8238
  477SOL     OW11744   5.348   6.571   3.778  0.3958 -0.9902  0.1793
  477SOL    HW111745   5.341   6.584   3.684 -0.6200 -1.2107  0.2215
  477SOL    HW211746   5.427   6.517   3.789  1.6056  0.5722 -0.3846
  478SOL     OW11747   5.933   1.381  11.618  0.0310 -0.1460 -0.0237
  478SOL    HW111748   6.026   1.391  11.637 -0.2081  1.1185  0.5822
  478SOL    HW211749   5.894   1.353  11.701 -0.4464  1.6124  0.3876
  479SOL     OW11750   5.871   9.755   2.874 -0.5647  0.3186 -0.3599
  479SOL    HW111751   5.911   9.671   2.898 -1.8796 -1.3611 -3.4979
  479SOL    HW211752   5.848   9.796   2.958  1.1677 -1.8925  1.3003
  480SOL     OW11753  10.504   1.549  12.592 -0.4485 -0.6563  0.7299
  480SOL    HW111754  10.429   1.517  12.540 -0.5841  2.1254 -0.9976
  480SOL    HW211755  10.576   1.554  12.529  0.1858  0.1339  1.4969
  481SOL     OW11756   5.699   2.399   8.346 -0.1319  0.0774  0.1150
  481SOL    HW111757   5.698   2.332   8.415 -0.5336  0.7597  0.7864
  481SOL    HW211758   5.646   2.470   8.381  0.1196  0.6689 -0.6768
  482SOL     OW11759   4.466   9.563   3.516 -0.3424 -0.0199 -0.8224
  482SOL    HW111760   4.431   9.567   3.605  0.6014  1.1695 -0.4932
  482SOL    HW211761   4.424   9.635   3.470  0.9887  0.8986 -0.6518
  483SOL     OW11762  12.923   4.060  11.830 -0.2958 -0.2562  0.5616
  483SOL    HW111763  12.946   4.101  11.746  0.8451  0.5168  1.2261
  483SOL    HW211764  12.957   3.970  11.822 -0.1865 -0.1865  0.1956
  484SOL     OW11765  11.812   4.506  12.415 -0.7416  0.0209 -0.2360
  484SOL    HW111766  11.750   4.511  12.488 -1.6377 -2.0235 -0.7815
  484SOL    HW211767  11.763   4.466  12.344  0.3151  1.3244 -1.7758
  485SOL     OW11768   7.485   1.416   4.675  0.0241  0.2808 -0.0401
  485SOL    HW111769   7.478   1.350   4.606 -2.6591  0.6276 -0.1935
  485SOL    HW211770   7.428   1.383   4.745  0.5703  1.2751  0.8972
  486SOL     OW11771   4.427   3.206  10.765 -0.2569  0.2164  0.3448
  486SOL    HW111772   4.486   3.271  10.727 -0.5936  0.0163 -0.5495
  486SOL    HW211773   4.482   3.156  10.825  0.4387  0.1633 -0.3223
  487SOL     OW11774   1.508   5.503   3.532  0.1696  0.4380 -0.1992
  487SOL    HW111775   1.429   5.485   3.582 -0.3162  1.3979 -0.5808
  487SOL    HW211776   1.563   5.426   3.543 -0.5658  0.0177  0.5710
  488SOL     OW11777   5.099  12.419   5.513 -0.2659  0.1464 -0.5750
  488SOL    HW111778   5.169  12.454   5.458 -0.4998 -0.1344 -1.0569
  488SOL    HW211779   5.144  12.375   5.584  0.0403  0.5587 -0.5125
  489SOL     OW11780   3.843   6.993   5.856  0.2166 -0.0342  0.0663
  489SOL    HW111781   3.838   7.035   5.942  0.2800  3.3559 -1.4305
  489SOL    HW211782   3.756   6.956   5.842 -0.3435  0.9455  0.8562
  490SOL     OW11783   6.997   7.120   5.785  0.2377  0.1291 -0.1500
  490SOL    HW111784   7.049   7.201   5.783 -1.0494  0.9956  0.2679
  490SOL    HW211785   6.908   7.148   5.761 -0.3024 -1.1061  0.3375
  491SOL     OW11786  10.865  12.612   1.510 -0.0747 -0.3954  0.0891
  491SOL    HW111787  10.800  12.667   1.554 -0.2911  0.7034 -1.5056
  491SOL    HW211788  10.878  12.654   1.425  1.9409 -1.1832 -0.0622
  492SOL     OW11789   0.533   1.829   1.022  0.2082  0.1850  0.7686
  492SOL    HW111790   0.591   1.828   0.945 -0.0520  0.7437  0.5602
  492SOL    HW211791   0.515   1.922   1.037  0.4972  0.0932  1.6953
  493SOL     OW11792   1.728   3.379   5.775 -0.1355  0.6491 -0.2365
  493SOL    HW111793   1.660   3.327   5.816  1.4914  0.0421  1.8832
  493SOL    HW211794   1.699   3.390   5.685 -2.8878  0.2534  0.5120
  494SOL     OW11795  12.973   0.477   5.269 -0.5685 -0.3603  1.3058
  494SOL    HW111796  12.896   0.513   5.224 -0.6259  2.6372  3.5274
  494SOL    HW211797  13.047   0.519   5.227 -0.3498 -0.7251  1.3234
  495SOL     OW11798  10.260   2.259   0.262 -0.3958  0.1942  0.1490
  495SOL    HW111799  10.288   2.220   0.345  0.2136 -0.6387 -0.4209
  495SOL    HW211800  10.321   2.223   0.197 -1.0510  0.5843 -0.7096
  496SOL     OW11801   4.930   5.799   5.313  0.0336  0.0913  0.1715
  496SOL    HW111802   4.953   5.888   5.290 -1.0410  0.3003 -0.1534
  496SOL    HW211803   4.939   5.796   5.409  1.1108  0.2199  0.0896
  497SOL     OW11804   7.384   8.769   0.595  0.4380 -0.0275 -0.1075
  497SOL    HW111805   7.327   8.712   0.646 -0.3917  1.1011  0.2460
  497SOL    HW211806   7.454   8.711   0.564 -1.9017 -1.9499 -2.2615
  498SOL     OW11807  11.002   5.666   4.590  0.8431  0.1369 -0.8243
  498SOL    HW111808  10.989   5.693   4.499 -0.8052  1.1453 -0.3394
  498SOL    HW211809  10.916   5.635   4.618  1.1446  0.5198  0.6027
  499SOL     OW11810   0.305   7.908  11.823  0.4769  0.0914 -0.1200
  499SOL    HW111811   0.345   7.993  11.808  2.5217 -0.7381  0.2879
  499SOL    HW211812   0.319   7.860  11.741  0.8319 -0.3974  0.2233
  500SOL     OW11813   5.386  12.408   2.186 -0.1623 -0.1858 -0.6563
  500SOL    HW111814   5.358  12.334   2.240 -0.4471  0.8776  0.7021
  500SOL    HW211815   5.318  12.414   2.118 -0.8726 -0.3382  0.0252
  501SOL     OW11816  10.587   1.613   7.994  0.4989  0.2450  0.4384
  501SOL    HW111817  10.648   1.587   7.925  0.4988  0.3902  0.3841
  501SOL    HW211818  10.560   1.702   7.971 -0.6094 -0.2248 -0.1399
  502SOL     OW11819   2.543  11.227   4.699 -0.1967  0.6658  0.3853
  502SOL    HW111820   2.547  11.257   4.790 -0.1414 -0.1812  0.6655
  502SOL    HW211821   2.454  11.248   4.671 -0.2617  0.7814  0.6796
  503SOL     OW11822   6.420  10.202   4.527  0.0751  0.2424 -0.3678
  503SOL    HW111823   6.477  10.267   4.487 -2.5544  1.5077 -2.4291
  503SOL    HW211824   6.357  10.253   4.578  0.3802 -1.0360  1.3724
  504SOL     OW11825   0.242   7.642   3.382 -0.1646 -0.4143  0.1936
  504SOL    HW111826   0.188   7.690   3.319  2.9797  0.9654 -1.6931
  504SOL    HW211827   0.181   7.580   3.423 -3.3704  1.7826 -0.8206
  505SOL     OW11828  11.004   5.294  12.759  0.1260  0.5119  0.3571
  505SOL    HW111829  11.026   5.277  12.668  0.5360  3.2910 -0.1252
  505SOL    HW211830  11.087   5.287  12.806 -0.0484 -0.6815  0.5406
  506SOL     OW11831   9.887  10.938   0.603 -0.0750 -0.1895  0.4527
  506SOL    HW111832   9.982  10.931   0.612  0.0730 -0.3866 -0.9894
  506SOL    HW211833   9.865  11.023   0.641  0.8055  0.2694 -0.0414
  507SOL     OW11834   5.922   3.767   8.905 -0.1370  0.1449 -0.0228
  507SOL    HW111835   5.957   3.852   8.932  1.1795 -0.8762  1.6788
  507SOL    HW211836   5.877   3.733   8.982 -0.5465 -0.7648 -0.6443
  508SOL     OW11837  11.893   0.042   8.855  0.5560 -0.4525 -0.3779
  508SOL    HW111838  11.925  -0.028   8.798  2.0551 -0.6234  0.6289
  508SOL    HW211839  11.951   0.116   8.838 -1.8287  1.1162 -2.4455
  509SOL     OW11840   9.660   4.235   7.323  0.3069 -0.6536 -0.1147
  509SOL    HW111841   9.610   4.196   7.395 -2.5428 -0.7753 -1.9984
  509SOL    HW211842   9.691   4.318   7.358 -0.4304 -1.0003  1.4710
  510SOL     OW11843   7.347   8.889   0.279  0.4979 -0.0761  0.2258
  510SOL    HW111844   7.316   8.963   0.226  0.2782 -0.7934 -0.6716
  510SOL    HW211845   7.280   8.878   0.346 -0.9199 -1.1980 -1.3037
  511SOL     OW11846   2.519   7.336   4.607  0.0583  0.2500 -0.3917
  511SOL    HW111847   2.445   7.285   4.573 -0.3116 -0.5998  1.5568
  511SOL    HW211848   2.481   7.395   4.672  0.9314  0.7028 -0.2683
  512SOL     OW11849   2.012   2.739   1.556 -0.2155 -0.4862 -0.3083
  512SOL    HW111850   1.971   2.676   1.614  0.2134 -2.0428 -1.5976
  512SOL    HW211851   2.060   2.798   1.614 -2.8466  0.3981  1.1215
  513SOL     OW11852  11.908   6.760   8.130 -0.3652  0.0586 -0.6535
  513SOL    HW111853  11.887   6.778   8.038  1.2070  0.9281 -0.8659
  513SOL    HW211854  11.946   6.841   8.162  1.4228 -1.0079  0.0459
  514SOL     OW11855   7.906  12.765   8.461  0.7647  0.3722  0.3864
  514SOL    HW111856   7.860  12.683   8.480 -0.8394  0.8267 -1.3349
  514SOL    HW211857   7.867  12.829   8.521  0.7533  0.2765  0.4809
  515SOL     OW11858   5.900   0.662   2.737 -0.1713 -0.0114 -0.1598
  515SOL    HW111859   5.845   0.699   2.668  0.8898  0.0156 -1.0247
  515SOL    HW211860   5.894   0.567   2.724  0.2927  0.0018 -0.5291
  516SOL     OW11861   7.920   7.041   3.483  0.3065 -0.0557 -0.3901
  516SOL    HW111862   7.981   7.030   3.410  1.0823  2.5289 -0.2225
  516SOL    HW211863   7.901   7.135   3.485 -1.3512 -0.3654  1.4369
  517SOL     OW11864   7.458   3.247   4.881  0.1797  0.5090  0.1727
  517SOL    HW111865   7.417   3.291   4.955  0.0129  1.7313 -0.6080
  517SOL    HW211866   7.385   3.211   4.830  0.3379 -1.2504  1.1071
  518SOL     OW11867   0.360  10.069   0.527  0.2555  0.5599  0.3884
  518SOL    HW111868   0.392  10.107   0.609  1.0186 -0.5479  0.6279
  518SOL    HW211869   0.364  10.141   0.464  0.1203  1.2998  1.2125
  519SOL     OW11870   7.854  12.612   3.803  0.7125  0.3248 -0.4798
  519SOL    HW111871   7.815  12.642   3.721  0.4447  0.4458 -0.3065
  519SOL    HW211872   7.862  12.691   3.856  0.7975  0.2285 -0.3504
  520SOL     OW11873   0.921   5.013  10.043  0.4395 -0.1069  0.2343
  520SOL    HW111874   0.868   5.091  10.059  0.4141 -0.3633  1.5426
  520SOL    HW211875   1.002   5.046  10.004  0.3075  0.5544  0.5020
  521SOL     OW11876  10.590   7.147   1.512 -0.4183 -0.3165 -0.3294
  521SOL    HW111877  10.502   7.179   1.494 -0.2621 -0.4424 -1.3797
  521SOL    HW211878  10.577   7.061   1.551 -0.7416 -1.0627 -2.0218
  522SOL     OW11879   2.359   4.317   2.812 -0.4105 -0.0370 -0.3130
  522SOL    HW111880   2.401   4.273   2.738  2.4052 -0.8460  1.5943
  522SOL    HW211881   2.403   4.401   2.819  0.1538 -0.4109  1.0318
  523SOL     OW11882   3.350   5.631   9.931 -0.4994 -0.1248 -0.3494
  523SOL    HW111883   3.416   5.562   9.943  0.4718  0.6391 -1.1248
  523SOL    HW211884   3.398   5.702   9.889 -1.9229  0.3046 -1.3028
  524SOL     OW11885  11.935   7.980  12.439  0.5815  0.1745  0.4897
  524SOL    HW111886  11.890   8.012  12.517 -0.6473 -0.9974  0.3034
  524SOL    HW211887  11.986   8.055  12.409  0.3081  0.9474  1.8512
  525SOL     OW11888   9.561   3.433  11.109  0.6991 -0.6392  0.2053
  525SOL    HW111889   9.584   3.393  11.025  0.2200  0.6653 -0.5760
  525SOL    HW211890   9.466   3.423  11.114  0.4918  0.8254 -0.2682
  526SOL     OW11891   2.457   8.383  12.441  0.3233 -0.2017 -0.2959
  526SOL    HW111892   2.363   8.393  12.426  0.3326 -0.4524 -0.5331
  526SOL    HW211893   2.495   8.466  12.412 -0.0510  0.8759  2.0130
  527SOL     OW11894   9.278   5.952   6.643  0.2083 -0.4589  0.1305
  527SOL    HW111895   9.244   6.034   6.679  0.0855 -1.1520  1.6615
  527SOL    HW211896   9.367   5.973   6.617  0.2345  0.1308  0.6598
  528SOL     OW11897   3.749  10.928   3.441  0.3542 -0.2024  0.1738
  528SOL    HW111898   3.707  10.946   3.526  0.6278 -1.4654  0.5939
  528SOL    HW211899   3.708  10.848   3.410  0.2556  0.2544 -0.9054
  529SOL     OW11900   8.588  11.265   2.123 -0.1711 -0.0670 -0.3332
  529SOL    HW111901   8.581  11.186   2.176  0.8337 -0.0803 -0.1934
  529SOL    HW211902   8.681  11.288   2.127 -0.6108  1.7670  0.5713
  530SOL     OW11903   1.738   9.188   2.313  0.3134  0.1546 -0.1393
  530SOL    HW111904   1.828   9.177   2.343  0.1513  1.7903  1.0537
  530SOL    HW211905   1.711   9.274   2.345 -2.1470 -0.8431  0.7418
  531SOL     OW11906   2.929  10.392  11.662  0.0367  0.2139 -0.2380
  531SOL    HW111907   2.866  10.462  11.644  1.3257  1.5242  0.2434
  531SOL    HW211908   2.904  10.359  11.749 -2.4317 -2.0408 -1.6549
  532SOL     OW11909   5.791   0.920   6.933 -0.0141  0.2446 -0.0322
  532SOL    HW111910   5.717   0.896   6.988 -1.1375  1.6826 -0.8557
  532SOL    HW211911   5.842   0.981   6.986 -1.6745  2.4801 -0.8820
  533SOL     OW11912   8.145  11.972  11.206  0.0371  0.4165 -0.5765
  533SOL    HW111913   8.100  11.914  11.267  0.0338  1.0811  0.0627
  533SOL    HW211914   8.124  12.060  11.236  0.3797  0.7534 -1.2898
  534SOL     OW11915   0.526   2.245   0.251 -0.6315 -0.0253 -0.3942
  534SOL    HW111916   0.517   2.323   0.305 -1.4903  0.1976 -0.8472
  534SOL    HW211917   0.501   2.173   0.309  1.7127 -0.2012  0.5446
  535SOL     OW11918   6.114   0.451   1.095 -0.6750 -0.2322 -0.2936
  535SOL    HW111919   6.139   0.438   1.187 -2.8035 -3.2992 -0.0012
  535SOL    HW211920   6.044   0.516   1.099 -0.9440 -0.5490  0.2918
  536SOL     OW11921  12.467   8.452   2.349 -0.0930  0.1148 -0.2452
  536SOL    HW111922  12.400   8.521   2.354  1.4942  1.8506 -1.5576
  536SOL    HW211923  12.550   8.500   2.350  1.2241 -1.9958  1.7908
  537SOL     OW11924   0.095  10.205   5.383 -0.0871 -0.7072  0.2163
  537SOL    HW111925   0.056  10.216   5.296  0.3203  1.9167  0.2826
  537SOL    HW211926   0.021  10.212   5.443  0.0649  1.9672  0.2232
  538SOL     OW11927  11.154   5.179   1.596 -0.1520  0.1214  0.0748
  538SOL    HW111928  11.059   5.164   1.589 -0.2160  0.7798 -0.5979
  538SOL    HW211929  11.171   5.180   1.690 -1.0662  1.4648  0.2546
  539SOL     OW11930   4.713   4.775   7.541 -0.0006  0.0960 -0.3015
  539SOL    HW111931   4.679   4.845   7.485 -0.1603  0.3612  0.1190
  539SOL    HW211932   4.806   4.793   7.549  0.2431 -0.5726 -1.3741
  540SOL     OW11933   8.192  11.578   9.449  0.0573  0.2818 -0.0691
  540SOL    HW111934   8.284  11.593   9.428  0.8653 -2.0125  1.5106
  540SOL    HW211935   8.183  11.610   9.539 -0.3760 -0.6080  0.2101
  541SOL     OW11936   9.675   5.107   5.751  0.0159  0.4024 -0.0533
  541SOL    HW111937   9.651   5.084   5.661  1.4514 -1.5813 -0.0006
  541SOL    HW211938   9.691   5.023   5.794  0.5484  1.3491  1.7222
  542SOL     OW11939   2.603   0.846   2.189 -0.3006  0.3018  0.6121
  542SOL    HW111940   2.657   0.783   2.141  0.1118  0.9525  0.2101
  542SOL    HW211941   2.530   0.794   2.222 -0.5157 -0.1875 -0.5955
  543SOL     OW11942   7.816   2.498   1.145  0.1141 -0.1986  0.0786
  543SOL    HW111943   7.783   2.537   1.065 -3.4950 -1.8772  0.5640
  543SOL    HW211944   7.794   2.561   1.214  1.4003  0.3405  0.0218
  544SOL     OW11945   8.886   3.481   6.889  0.6861 -0.4063 -0.0153
  544SOL    HW111946   8.946   3.413   6.920  0.8576 -0.1007  0.3287
  544SOL    HW211947   8.800   3.453   6.923  0.8683 -0.0854  0.7394
  545SOL     OW11948   9.768   9.349   4.472  0.1370  0.4279 -0.7820
  545SOL    HW111949   9.836   9.287   4.446 -0.6695 -2.1690  2.5628
  545SOL    HW211950   9.686   9.305   4.450 -0.4571 -0.0599  2.0221
  546SOL     OW11951  10.973   4.840   3.624  0.3173  0.5258 -0.3496
  546SOL    HW111952  10.977   4.895   3.702  0.4036  1.2075 -0.8260
  546SOL    HW211953  11.064   4.825   3.599  0.2896  0.3806 -0.3667
  547SOL     OW11954  12.271   5.891   6.127  0.3494  0.2868  0.9720
  547SOL    HW111955  12.179   5.901   6.102  1.2631  3.7897 -1.7446
  547SOL    HW211956  12.313   5.855   6.049  1.4511 -0.6697  1.9591
  548SOL     OW11957   1.936   3.734   8.030 -0.1286 -0.0295  0.0413
  548SOL    HW111958   1.967   3.687   7.953  0.5613  0.4849  0.0002
  548SOL    HW211959   1.845   3.705   8.040  0.4598 -1.8592  0.4083
  549SOL     OW11960   2.600  12.322   8.845  0.3643  0.1796 -0.2156
  549SOL    HW111961   2.579  12.415   8.857  1.5007  0.4760 -0.4687
  549SOL    HW211962   2.663  12.302   8.914 -1.1280 -0.8635  0.9140
  550SOL     OW11963   0.091   8.457   1.934  0.2711  0.1858  0.3737
  550SOL    HW111964   0.048   8.527   1.982 -0.8020  1.1268 -1.8212
  550SOL    HW211965   0.159   8.501   1.884 -0.4762 -0.2877 -1.1083
  551SOL     OW11966   4.687  10.247   3.916  0.1187  0.2429  0.5234
  551SOL    HW111967   4.776  10.214   3.902  0.1895  0.9004 -0.7555
  551SOL    HW211968   4.687  10.333   3.874 -0.9573  0.5143  1.0404
  552SOL     OW11969   0.570   3.570  12.891  0.3771 -0.1451 -0.6181
  552SOL    HW111970   0.649   3.595  12.938 -0.9322  2.5720  0.4075
  552SOL    HW211971   0.532   3.500  12.943  1.3614 -0.4664 -0.3158
  553SOL     OW11972   9.826  10.641   2.699  0.5250 -0.2480 -0.2510
  553SOL    HW111973   9.880  10.718   2.682  0.7448 -0.3945 -0.2078
  553SOL    HW211974   9.873  10.593   2.767 -0.9576  0.9903  1.7935
  554SOL     OW11975   8.060   2.605   0.850  0.3290 -0.4210 -0.2797
  554SOL    HW111976   8.086   2.517   0.824  2.9903  0.5575 -1.1876
  554SOL    HW211977   8.116   2.663   0.800 -3.8824  2.0731 -2.7268
  555SOL     OW11978   4.738  11.029  10.779 -0.0672 -0.3096 -0.7173
  555SOL    HW111979   4.707  11.120  10.778 -2.9140 -1.1901 -2.0483
  555SOL    HW211980   4.664  10.978  10.746  2.0448 -2.9515 -1.7035
  556SOL     OW11981   5.427  11.224   8.380 -0.5497  0.1055 -0.3493
  556SOL    HW111982   5.391  11.306   8.415  1.5267  0.8053  0.3200
  556SOL    HW211983   5.498  11.201   8.441  0.4928 -0.8731 -1.8570
  557SOL     OW11984   3.379  12.977   4.794  0.3982  0.5001  0.0298
  557SOL    HW111985   3.436  12.901   4.781 -1.2373 -0.8315  0.2764
  557SOL    HW211986   3.428  13.050   4.758  2.3297 -0.5358  0.4006
  558SOL     OW11987   6.747   1.499   8.694 -0.4755 -0.4212  0.2984
  558SOL    HW111988   6.699   1.478   8.613  1.6267 -0.2357 -1.0844
  558SOL    HW211989   6.777   1.414   8.726  0.3169 -0.3542 -0.2266
  559SOL     OW11990   4.366   7.995  12.968  0.5041 -0.1352  0.1600
  559SOL    HW111991   4.440   7.943  12.936 -0.1816 -0.7193 -0.5384
  559SOL    HW211992   4.338   8.046  12.892 -1.7270 -2.2149 -0.5509
  560SOL     OW11993  12.363   2.941   0.889  0.5376  1.0922 -0.4434
  560SOL    HW111994  12.444   2.965   0.936  0.6403  0.6455 -0.3860
  560SOL    HW211995  12.319   3.025   0.874  0.2253  1.2073  0.9638
  561SOL     OW11996   2.423   8.432  10.862 -0.4268 -0.4288  0.2759
  561SOL    HW111997   2.456   8.520  10.843  1.3420 -0.8781  1.0575
  561SOL    HW211998   2.430   8.385  10.780  0.5465 -0.3984  0.3314
  562SOL     OW11999   8.652   7.234   2.401  0.5200  0.6858  0.4536
  562SOL    HW112000   8.565   7.200   2.417 -0.0307  1.6936 -0.2294
  562SOL    HW212001   8.666   7.220   2.307  1.5049 -0.3658  0.7433
  563SOL     OW12002   9.223   5.583   7.882  0.4449 -0.2677 -0.2728
  563SOL    HW112003   9.244   5.676   7.879 -0.5091  0.0489  1.2405
  563SOL    HW212004   9.222   5.555   7.791  1.7854  0.9478 -0.6954
  564SOL     OW12005  11.194   7.329   8.523 -0.3248 -0.2395 -0.3132
  564SOL    HW112006  11.174   7.238   8.546  0.6129 -0.9450 -2.1800
  564SOL    HW212007  11.200   7.329   8.428  2.2359  1.2350 -0.2298
  565SOL     OW12008   4.924   3.724   6.613  0.3917  0.2149 -0.4506
  565SOL    HW112009   4.910   3.782   6.538  0.1641  0.6278 -0.0949
  565SOL    HW212010   4.924   3.782   6.689 -0.0594 -0.2708 -0.0648
  566SOL     OW12011   8.115  10.349   8.931  0.2169 -0.6462  0.0472
  566SOL    HW112012   8.111  10.347   8.836  1.4523  1.1564 -0.1050
  566SOL    HW212013   8.195  10.399   8.951  0.7988 -2.2135  2.0517
  567SOL     OW12014   8.003   3.678   4.933 -0.1825 -0.1550  0.5893
  567SOL    HW112015   7.928   3.622   4.952  0.0547 -0.2438  1.3141
  567SOL    HW212016   7.976   3.731   4.858 -1.5320  0.8406  1.7126
  568SOL     OW12017   4.942   2.046  11.450  0.3406  0.2461 -0.3184
  568SOL    HW112018   4.992   2.033  11.369 -0.4666 -0.1206 -0.7800
  568SOL    HW212019   4.861   2.087  11.420  0.0822  0.2087  0.3264
  569SOL     OW12020   5.285   4.483   1.525 -0.4585 -0.1320 -0.1003
  569SOL    HW112021   5.237   4.433   1.458  0.0711  0.0634 -0.6390
  569SOL    HW212022   5.217   4.516   1.583 -0.7982 -1.7861  0.4959
  570SOL     OW12023   8.395   1.368  10.684  0.5409 -0.3934 -0.3321
  570SOL    HW112024   8.490   1.358  10.675  1.0048  0.6782  2.4365
  570SOL    HW212025   8.375   1.448  10.635  1.3728  0.3149  0.4520
  571SOL     OW12026   5.151   6.761   5.258  0.4135  0.3070  0.0254
  571SOL    HW112027   5.089   6.786   5.326 -0.7488  0.7877 -1.1582
  571SOL    HW212028   5.197   6.842   5.237 -1.0759  0.8298 -1.5331
  572SOL     OW12029   9.369  10.725  12.394 -0.7283 -0.2761 -0.5268
  572SOL    HW112030   9.302  10.659  12.409 -1.1692 -0.1336 -1.7579
  572SOL    HW212031   9.434  10.682  12.338  1.2523 -1.0406  2.1722
  573SOL     OW12032   8.506   7.070   4.381  0.2256 -0.4552 -0.7064
  573SOL    HW112033   8.453   7.149   4.373 -1.2430 -1.2684  0.5350
  573SOL    HW212034   8.582   7.098   4.432  0.1277  0.3377 -0.9783
  574SOL     OW12035   4.287   7.642   6.890 -0.3591 -0.1507  0.1289
  574SOL    HW112036   4.358   7.700   6.918 -0.6512  0.0521  0.4476
  574SOL    HW212037   4.281   7.656   6.796 -0.5484  0.4692  0.2346
  575SOL     OW12038   8.169   7.903   5.406 -0.3337  0.4238 -0.1294
  575SOL    HW112039   8.105   7.864   5.346 -0.1962  0.2702 -0.1772
  575SOL    HW212040   8.156   7.855   5.488  0.8957 -0.8036 -0.6271
  576SOL     OW12041   5.350   9.730   4.497 -0.5429 -0.3065 -0.2423
  576SOL    HW112042   5.403   9.675   4.440 -0.1705 -0.7403  0.5075
  576SOL    HW212043   5.284   9.671   4.532 -2.1430  0.4132 -1.8728
  577SOL     OW12044  11.283   3.767  12.608 -0.5618  0.6244  0.0622
  577SOL    HW112045  11.188   3.755  12.604 -0.5607  0.9600 -1.2834
  577SOL    HW212046  11.312   3.706  12.676 -1.6783  0.1618  0.1352
  578SOL     OW12047  12.158   6.815   6.189 -0.2944  0.0082 -0.1665
  578SOL    HW112048  12.233   6.872   6.172 -0.1604 -0.4133 -1.0543
  578SOL    HW212049  12.094   6.872   6.232 -0.2431  0.8809 -1.2021
  579SOL     OW12050   1.117  12.869  11.693 -0.3319  0.2185 -0.0253
  579SOL    HW112051   1.092  12.933  11.759 -1.3267 -0.8872  0.7175
  579SOL    HW212052   1.208  12.849  11.713 -0.4949  0.2144  0.7666
  580SOL     OW12053   8.569   8.700   2.077 -0.3681  0.2258 -0.7101
  580SOL    HW112054   8.503   8.694   2.008 -0.8515  0.4952 -0.2757
  580SOL    HW212055   8.649   8.726   2.031 -0.8893  1.2566 -1.0719
  581SOL     OW12056   4.820   3.843   8.265  0.2216  0.0667 -0.5786
  581SOL    HW112057   4.739   3.862   8.313  0.3600 -1.7262  0.4658
  581SOL    HW212058   4.807   3.755   8.231  1.9820 -0.5380  0.2130
  582SOL     OW12059   9.125   8.834   1.063  0.0805 -0.2470 -0.3194
  582SOL    HW112060   9.141   8.742   1.083  0.6555 -0.2030 -0.5602
  582SOL    HW212061   9.174   8.850   0.982  0.1576  0.3233 -0.1640
  583SOL     OW12062  11.011   8.873   0.894  0.1950 -0.5389 -0.4356
  583SOL    HW112063  10.987   8.782   0.909 -0.1887 -0.0787  2.1040
  583SOL    HW212064  11.066   8.897   0.968  1.2676  1.0055 -1.6368
  584SOL     OW12065   7.142  12.656   9.943 -0.1431 -0.4727 -0.6107
  584SOL    HW112066   7.072  12.601   9.909 -0.6400  0.2911 -0.8545
  584SOL    HW212067   7.214  12.595   9.962 -1.2528 -1.4081  0.6874
  585SOL     OW12068   9.785   5.835   3.686 -0.2707 -0.5946  0.4183
  585SOL    HW112069   9.806   5.746   3.656 -0.3699 -0.0443 -1.4178
  585SOL    HW212070   9.810   5.891   3.613  0.6142  1.0108  1.8767
  586SOL     OW12071  10.560   9.669   4.542 -0.0525  0.0340 -0.0421
  586SOL    HW112072  10.491   9.724   4.507 -0.1638  1.5257  2.3290
  586SOL    HW212073  10.632   9.677   4.478 -1.1022  0.5395 -1.2040
  587SOL     OW12074   2.647   4.793   9.452  0.2505 -0.0182  0.7710
  587SOL    HW112075   2.610   4.804   9.364 -0.9066  1.9182  1.4200
  587SOL    HW212076   2.742   4.800   9.440  0.0787  0.6672 -0.2786
  588SOL     OW12077  12.124   1.036   1.324  0.4828 -0.1107  0.1610
  588SOL    HW112078  12.116   1.111   1.265 -0.9491  1.3755  2.1388
  588SOL    HW212079  12.096   0.961   1.271 -0.0555  1.0437 -1.2562
  589SOL     OW12080   8.811   0.932   7.836 -0.1034 -0.4602 -0.5361
  589SOL    HW112081   8.774   0.869   7.774 -4.8962  0.1624  1.2077
  589SOL    HW212082   8.821   0.884   7.917 -0.3125  0.1801 -0.1201
  590SOL     OW12083   4.879   0.025   5.059  0.2284  0.3452 -0.0642
  590SOL    HW112084   4.903   0.002   5.148  0.1990  0.5603 -0.0011
  590SOL    HW212085   4.848  -0.057   5.021  3.5834 -0.6602 -1.0123
  591SOL     OW12086   5.272   0.467   0.387  0.0875  1.0500 -0.2907
  591SOL    HW112087   5.349   0.512   0.352 -0.5290  2.1274 -0.3233
  591SOL    HW212088   5.296   0.445   0.477  1.5011 -1.3081 -1.1501
  592SOL     OW12089   8.270   2.074   6.642 -0.3574 -0.0246 -0.5912
  592SOL    HW112090   8.303   2.018   6.572  0.1135 -0.2827 -0.1742
  592SOL    HW212091   8.313   2.158   6.626  1.9302 -0.8000  0.9092
  593SOL     OW12092   9.934  11.304   1.798  0.0828  0.0597 -0.0506
  593SOL    HW112093   9.972  11.333   1.881 -0.4536 -0.1152  0.2592
  593SOL    HW212094   9.894  11.383   1.761 -0.8774 -0.1503  0.5189
  594SOL     OW12095   6.480   6.473   2.233  0.1670  0.2037 -0.1112
  594SOL    HW112096   6.397   6.518   2.251 -0.4341 -0.9178 -0.0320
  594SOL    HW212097   6.496   6.418   2.309 -0.9215 -2.3735 -1.6302
  595SOL     OW12098  10.604   3.622   7.567  0.2844  0.1419  0.2442
  595SOL    HW112099  10.510   3.637   7.559  0.6315  1.8977 -0.8697
  595SOL    HW212100  10.632   3.598   7.479  1.2802  2.3011 -0.0819
  596SOL     OW12101   3.979   7.970  10.813 -0.4003 -0.0558 -0.2953
  596SOL    HW112102   3.970   8.061  10.842  3.0567  0.5075 -0.5073
  596SOL    HW212103   3.996   7.922  10.894  1.8646  0.2764 -0.4977
  597SOL     OW12104  10.642   4.939   1.129  0.1479 -0.5174 -0.0447
  597SOL    HW112105  10.733   4.913   1.112  0.1162 -0.5802 -0.1192
  597SOL    HW212106  10.593   4.857   1.124  0.1270 -0.5292  0.2835
  598SOL     OW12107   2.267  11.227  10.117 -0.2628 -0.0270  0.3769
  598SOL    HW112108   2.324  11.304  10.124 -0.0306 -0.2742  1.3792
  598SOL    HW212109   2.194  11.257  10.063  0.1348  0.7038  0.2187
  599SOL     OW12110  12.940   1.305  10.984 -0.2811 -0.1235  0.0077
  599SOL    HW112111  12.903   1.378  10.935 -1.2979  0.4421  1.5461
  599SOL    HW212112  12.900   1.227  10.945  0.8811  0.0696 -1.7043
  600SOL     OW12113   8.623   5.439   5.724 -0.1729  0.6516  0.5675
  600SOL    HW112114   8.705   5.421   5.678  0.7631  0.8500  2.0842
  600SOL    HW212115   8.611   5.533   5.717 -0.0964  0.6647  0.6077
  601SOL     OW12116   9.998   6.050   6.515 -0.3799  0.3157  0.2325
  601SOL    HW112117   9.916   6.079   6.555  0.0349 -1.6532  2.7972
  601SOL    HW212118   9.979   5.962   6.482  1.1910 -1.3311  3.2532
  602SOL     OW12119   3.581   1.681   3.049 -0.0726 -0.0269 -0.4600
  602SOL    HW112120   3.671   1.709   3.067 -0.3537  1.3310 -0.9929
  602SOL    HW212121   3.526   1.749   3.090 -0.8933 -1.2387  0.5298
  603SOL     OW12122  10.772   9.880  10.747 -0.0847 -0.2082 -0.8475
  603SOL    HW112123  10.803   9.968  10.728 -0.8812  0.3014  0.1217
  603SOL    HW212124  10.704   9.892  10.813  0.5200 -1.6297  0.0999
  604SOL     OW12125  12.185   2.615   4.173 -0.4395 -0.0647  0.7477
  604SOL    HW112126  12.215   2.694   4.128 -0.3722 -0.5651 -0.1133
  604SOL    HW212127  12.099   2.638   4.208 -1.3231 -0.1843 -1.2029
  605SOL     OW12128   4.516  10.750  12.818 -0.2750  0.1616  0.2063
  605SOL    HW112129   4.509  10.845  12.807  0.2321  0.2298  0.4407
  605SOL    HW212130   4.514  10.715  12.729  1.6448  0.5466 -0.0382
  606SOL     OW12131   8.344  11.844   3.320 -0.4054 -0.1322 -0.0465
  606SOL    HW112132   8.320  11.882   3.236 -1.6332  0.1876  0.4257
  606SOL    HW212133   8.437  11.823   3.311 -0.8405 -1.5084 -1.9859
  607SOL     OW12134   7.382  11.800   8.787 -0.0749 -0.0675 -0.0265
  607SOL    HW112135   7.310  11.822   8.728  1.9844  1.5968 -2.1048
  607SOL    HW212136   7.411  11.884   8.822  1.6156 -0.5255 -0.2184
  608SOL     OW12137   2.635   8.537   9.650 -0.1272 -0.3187  0.0292
  608SOL    HW112138   2.703   8.499   9.594  1.1013  0.3420  1.0217
  608SOL    HW212139   2.556   8.488   9.628  0.4079 -0.3942 -1.9412
  609SOL     OW12140   2.009   7.671   4.677  0.0027  0.2673 -0.7847
  609SOL    HW112141   1.919   7.640   4.665  0.3676 -0.4846 -1.7897
  609SOL    HW212142   2.008   7.760   4.642  0.0685 -0.4415 -2.7599
  610SOL     OW12143   5.511  10.328   8.232  0.4758  0.0640  0.3496
  610SOL    HW112144   5.432  10.327   8.287 -1.3565  0.2487 -2.0872
  610SOL    HW212145   5.508  10.413   8.188  0.4079 -1.0089 -1.8793
  611SOL     OW12146  10.634   6.030  11.089  0.4766  0.3270 -0.4975
  611SOL    HW112147  10.608   5.938  11.097 -0.2352  0.6660  1.7436
  611SOL    HW212148  10.727   6.031  11.111  0.1975  0.2709  0.7561
  612SOL     OW12149  10.034   4.194   6.805  0.3253 -0.4017  0.3525
  612SOL    HW112150  10.110   4.195   6.863 -0.0906 -0.1276  0.9002
  612SOL    HW212151   9.972   4.256   6.844 -0.3966 -1.0015  0.1981
  613SOL     OW12152   9.422  10.995  11.680 -0.1201 -0.2368 -0.1436
  613SOL    HW112153   9.494  11.039  11.635 -1.7819 -0.4537 -3.2770
  613SOL    HW212154   9.465  10.939  11.745  2.3961  0.9946 -0.6090
  614SOL     OW12155   5.508   3.791   6.400 -0.3983 -0.0171  0.6086
  614SOL    HW112156   5.478   3.878   6.425 -1.2641  0.5715 -2.1674
  614SOL    HW212157   5.427   3.744   6.378  0.2678 -0.3448 -1.2828
  615SOL     OW12158   2.058  11.446   6.342  0.3376 -0.6959 -0.3091
  615SOL    HW112159   2.077  11.533   6.375  2.5574 -1.4440  0.5185
  615SOL    HW212160   1.975  11.456   6.295 -0.7587  1.2939  1.8830
  616SOL     OW12161   6.722  12.848   8.892 -0.0568  0.6177 -0.0954
  616SOL    HW112162   6.750  12.761   8.919  1.4576  1.2504  0.4699
  616SOL    HW212163   6.675  12.883   8.968  1.5772  1.2419  0.6762
  617SOL     OW12164   5.502   0.825   6.771  0.3863  0.3459  0.1103
  617SOL    HW112165   5.429   0.819   6.833  1.0612 -0.8420  0.8394
  617SOL    HW212166   5.518   0.919   6.762 -0.0869  0.5686  1.3311
  618SOL     OW12167   1.868   4.832   1.308 -0.1516 -0.4670 -0.1173
  618SOL    HW112168   1.774   4.817   1.310 -0.1432 -0.4755  0.6066
  618SOL    HW212169   1.905   4.762   1.362  0.2938 -0.6034 -0.5845
  619SOL     OW12170   5.957   6.473   8.289  0.1481  0.4568 -0.2684
  619SOL    HW112171   5.991   6.558   8.260  1.6321  0.6603  1.8279
  619SOL    HW212172   6.032   6.414   8.283 -0.5772 -0.4463 -0.6495
  620SOL     OW12173   5.616   6.790   3.114 -0.0306  0.1309 -0.5718
  620SOL    HW112174   5.523   6.769   3.125 -0.3827  1.9911  0.4265
  620SOL    HW212175   5.616   6.880   3.080  1.4113  0.1684 -0.5307
  621SOL     OW12176  10.087   8.222   7.533 -0.5527  0.3631 -0.1319
  621SOL    HW112177  10.154   8.275   7.576 -1.3109  1.3264 -0.1080
  621SOL    HW212178  10.077   8.146   7.590 -0.2335  0.7289  0.4229
  622SOL     OW12179   8.890   2.501   7.138  0.1613 -0.6754 -0.4387
  622SOL    HW112180   8.845   2.536   7.061 -0.7184 -0.2552  0.2585
  622SOL    HW212181   8.916   2.413   7.112 -1.1891 -0.9843 -0.8048
  623SOL     OW12182   1.456  10.195   9.493 -0.1962 -0.3775  0.3234
  623SOL    HW112183   1.551  10.199   9.482  0.0387 -0.5905  2.0090
  623SOL    HW212184   1.424  10.154   9.412  0.8626  1.9273 -1.3811
  624SOL     OW12185   1.137   5.712   7.111 -0.5558  0.3502  0.3616
  624SOL    HW112186   1.042   5.720   7.115 -0.5154  0.7405  0.6624
  624SOL    HW212187   1.168   5.760   7.188 -0.0124  2.3943 -1.0456
  625SOL     OW12188   3.002   9.358   0.423  0.1561  0.4675 -0.4584
  625SOL    HW112189   3.037   9.437   0.465  0.4025  0.9663 -1.5642
  625SOL    HW212190   2.976   9.302   0.496  0.8579  1.1720  0.3635
  626SOL     OW12191  10.251   1.970   1.393 -0.5637  0.0428 -0.3551
  626SOL    HW112192  10.333   2.013   1.371  0.8033 -2.8127 -1.2661
  626SOL    HW212193  10.195   1.984   1.317 -0.9494  1.8668  0.2077
  627SOL     OW12194   8.093  11.699   2.937  0.3836  0.4889 -0.3261
  627SOL    HW112195   8.119  11.610   2.961 -2.3401 -0.0612  0.9684
  627SOL    HW212196   8.084  11.745   3.021  0.8202  1.7359 -0.9288
  628SOL     OW12197  12.292   9.821  11.828 -0.4367  0.2406  0.5296
  628SOL    HW112198  12.221   9.838  11.766 -0.8221  1.0907  1.1908
  628SOL    HW212199  12.306   9.904  11.872 -1.3578 -0.7518  2.8200
  629SOL     OW12200   3.448   9.947   4.622 -1.1241 -0.9102 -0.5335
  629SOL    HW112201   3.423   9.917   4.535 -1.9090  0.0549 -0.6596
  629SOL    HW212202   3.535   9.911   4.635 -1.8208 -2.8596 -0.8359
  630SOL     OW12203   9.466  10.215   7.137  0.3842  0.7427  0.3768
  630SOL    HW112204   9.395  10.213   7.073  0.5475 -2.4481  0.1453
  630SOL    HW212205   9.429  10.260   7.213 -1.0078  1.4284 -0.6683
  631SOL     OW12206  12.516   3.322  12.349  0.1537 -0.3384 -0.3981
  631SOL    HW112207  12.451   3.366  12.293 -0.2305 -1.1639 -0.6166
  631SOL    HW212208  12.599   3.365  12.327 -0.4040  1.2589  0.4228
  632SOL     OW12209  11.730  12.515  11.262 -0.1098 -0.0202  0.0085
  632SOL    HW112210  11.655  12.550  11.215  0.9668  0.5339 -1.3649
  632SOL    HW212211  11.694  12.486  11.346 -1.6066  1.4769 -0.0560
  633SOL     OW12212  11.665   3.371   3.600  0.5193  0.9566  0.2979
  633SOL    HW112213  11.654   3.288   3.553  0.5775  0.6591  0.8035
  633SOL    HW212214  11.737   3.415   3.554  1.6609 -0.0395  1.0591
  634SOL     OW12215   4.226  12.609   7.004 -0.5670 -0.3532 -0.2486
  634SOL    HW112216   4.162  12.539   7.019  0.2101 -0.6932  1.8810
  634SOL    HW212217   4.174  12.690   7.010 -0.8660 -0.6297  1.3983
  635SOL     OW12218  11.933   6.346   1.303 -0.0112  0.0191 -0.4271
  635SOL    HW112219  11.988   6.357   1.380 -0.9026 -0.2970  0.2827
  635SOL    HW212220  11.895   6.258   1.313  0.6877 -0.4829 -1.7880
  636SOL     OW12221   0.513  12.785   1.102  0.4330  0.2051  0.4112
  636SOL    HW112222   0.554  12.753   1.022  0.7853  0.7750  0.3573
  636SOL    HW212223   0.536  12.878   1.106  0.7642  0.0992  1.3769
  637SOL     OW12224  10.843   1.977   0.629 -0.4851  0.5136 -0.0578
  637SOL    HW112225  10.875   1.918   0.697  1.8139  0.9897 -0.6118
  637SOL    HW212226  10.890   2.059   0.645 -2.1732  1.5959 -0.4456
  638SOL     OW12227   9.191   7.929   5.662  0.4459  0.5890  0.7310
  638SOL    HW112228   9.187   7.912   5.756  1.4132  0.6101  0.7829
  638SOL    HW212229   9.214   7.845   5.624 -0.2065  0.5189  0.4823
  639SOL     OW12230   6.649   2.019   4.855 -0.2740 -0.2704  0.1283
  639SOL    HW112231   6.566   2.041   4.815  0.0626  1.1685  0.1815
  639SOL    HW212232   6.671   2.095   4.909  2.3065  0.5535 -1.8802
  640SOL     OW12233   8.822  11.738   6.336 -0.5287 -0.4316 -0.2618
  640SOL    HW112234   8.756  11.804   6.315 -0.7178 -0.8846 -1.1709
  640SOL    HW212235   8.901  11.768   6.289 -0.3092 -0.3026  0.1840
  641SOL     OW12236   1.113   7.558   7.547 -0.0205 -0.4733  0.1671
  641SOL    HW112237   1.091   7.483   7.602  1.0500 -1.6059 -0.8932
  641SOL    HW212238   1.156   7.620   7.606 -1.2431 -0.5119  1.1279
  642SOL     OW12239  10.480   9.536   3.292 -0.6223  0.5504 -0.6222
  642SOL    HW112240  10.544   9.594   3.335 -1.1499  0.7278 -0.0662
  642SOL    HW212241  10.427   9.502   3.364  0.2655 -1.3755 -0.8190
  643SOL     OW12242   3.514   8.391  12.763 -0.5399  0.0016  0.1563
  643SOL    HW112243   3.561   8.353  12.689  1.7358 -0.2592  1.6237
  643SOL    HW212244   3.583   8.428  12.819 -2.3966  3.4235  0.4529
  644SOL     OW12245  12.142   4.134   7.237 -0.0394 -0.4087 -0.2843
  644SOL    HW112246  12.113   4.048   7.204  0.3782  0.0873 -2.0900
  644SOL    HW212247  12.061   4.185   7.243 -0.1725 -0.6284 -0.2121
  645SOL     OW12248   6.150   1.506   9.423 -0.6291 -0.0536  0.5845
  645SOL    HW112249   6.202   1.524   9.344  1.7175  1.6319  2.3625
  645SOL    HW212250   6.073   1.561   9.413  0.1544  0.9759 -0.0728
  646SOL     OW12251  10.127  11.972   5.470 -0.5690  0.2151  0.0110
  646SOL    HW112252  10.036  11.973   5.502 -1.0412 -1.1775 -1.2037
  646SOL    HW212253  10.163  11.890   5.502 -0.6661 -0.6220 -1.8880
  647SOL     OW12254   4.902   1.808   3.135  0.2041 -0.2506  0.0522
  647SOL    HW112255   4.892   1.903   3.139  2.0468  0.2393 -3.0454
  647SOL    HW212256   4.993   1.792   3.161  0.6449 -0.8065 -1.6693
  648SOL     OW12257   4.225   0.859   5.988 -0.1589  0.3694 -0.1799
  648SOL    HW112258   4.218   0.889   5.897 -1.0070  2.1750  0.4469
  648SOL    HW212259   4.209   0.937   6.041  2.7023 -0.0594  1.5622
  649SOL     OW12260   9.988   9.443  10.898  0.2984 -0.2530 -0.0194
  649SOL    HW112261  10.047   9.369  10.915  0.2126 -0.3784 -0.2635
  649SOL    HW212262  10.046   9.514  10.873  0.2979 -0.5896 -1.0038
  650SOL     OW12263   2.040   6.701   0.577 -0.5418 -0.0679  0.1628
  650SOL    HW112264   1.998   6.628   0.531  1.9087 -2.3539  1.3117
  650SOL    HW212265   2.070   6.759   0.507 -2.1314 -0.3477 -0.7978
  651SOL     OW12266   4.228  10.823  10.306  0.3475 -0.2013  0.0588
  651SOL    HW112267   4.166  10.844  10.235 -0.7802  1.3865  1.4152
  651SOL    HW212268   4.307  10.794  10.261 -1.4001 -2.4984 -1.7657
  652SOL     OW12269   5.221   8.226   7.470 -0.6267  0.3986 -0.1200
  652SOL    HW112270   5.300   8.280   7.471 -1.0830  1.1278 -1.7705
  652SOL    HW212271   5.254   8.136   7.480  0.0546  0.8986  4.2914
  653SOL     OW12272  11.239   7.258   6.811  0.5412 -0.0997  0.2714
  653SOL    HW112273  11.165   7.206   6.841  1.2640 -0.2874  1.8409
  653SOL    HW212274  11.316   7.213   6.847  1.3001  1.0284  0.1117
  654SOL     OW12275  10.572   3.217   6.637 -0.0272  0.1885  0.7654
  654SOL    HW112276  10.638   3.248   6.699 -0.4577  2.1174  0.3305
  654SOL    HW212277  10.620   3.156   6.580  0.4860 -1.2292  2.6196
  655SOL     OW12278   9.064   9.449   2.368  0.3424 -0.2489 -0.2745
  655SOL    HW112279   8.991   9.503   2.338  0.4890  1.1256  1.5984
  655SOL    HW212280   9.106   9.418   2.288 -0.8428  0.9441 -1.4094
  656SOL     OW12281   5.441  11.708   2.270 -0.2105 -0.1313  0.4597
  656SOL    HW112282   5.378  11.729   2.339  0.6077  2.0574  0.6184
  656SOL    HW212283   5.492  11.788   2.259  1.0191 -1.0905 -1.2909
  657SOL     OW12284   0.133   7.092   2.177  0.1840 -0.3224 -0.3295
  657SOL    HW112285   0.148   7.180   2.142  1.8170 -0.9692 -1.3656
  657SOL    HW212286   0.061   7.057   2.125  0.6949 -0.2229 -1.1200
  658SOL     OW12287   0.785  10.483   6.786 -0.2721 -0.0357  0.0223
  658SOL    HW112288   0.716  10.424   6.756 -1.5589 -0.0051  2.6422
  658SOL    HW212289   0.863  10.427   6.794 -0.6453 -0.6497 -0.5331
  659SOL     OW12290   0.686   7.511   7.444 -0.0866 -0.0914 -0.6518
  659SOL    HW112291   0.731   7.494   7.361  1.2579 -1.3109  0.2877
  659SOL    HW212292   0.734   7.584   7.483 -0.2253 -0.0362 -0.5827
  660SOL     OW12293   5.676  12.065  12.555 -0.2439 -0.5674  0.3242
  660SOL    HW112294   5.625  12.125  12.610  1.8830  0.4130  1.3352
  660SOL    HW212295   5.648  11.978  12.583 -0.0420 -0.0803  2.2018
  661SOL     OW12296   6.420   5.640   3.558  0.1527  0.3294  0.2104
  661SOL    HW112297   6.510   5.619   3.581 -0.3492  0.5882  2.6220
  661SOL    HW212298   6.417   5.736   3.559  0.0950  0.3629 -1.0540
  662SOL     OW12299  10.784   0.484   9.239 -0.2883 -0.1174  0.2109
  662SOL    HW112300  10.793   0.390   9.255 -1.2780 -0.2729 -0.0966
  662SOL    HW212301  10.735   0.490   9.157 -1.3071  0.6429  0.8474
  663SOL     OW12302   6.833   4.595   4.914 -0.1078  0.0726 -0.6234
  663SOL    HW112303   6.923   4.614   4.938  0.2209 -2.1028  0.0387
  663SOL    HW212304   6.792   4.563   4.994 -0.6717 -1.6046 -1.5277
  664SOL     OW12305   9.397   6.354   7.102  0.3598  0.3147 -0.0554
  664SOL    HW112306   9.444   6.426   7.143  0.0343  0.2525  0.4438
  664SOL    HW212307   9.466   6.298   7.066  0.7133 -0.0677  1.1558
  665SOL     OW12308  10.072   6.019   4.379  0.0205 -0.5350  0.2922
  665SOL    HW112309  10.036   6.074   4.448  0.6320  2.1166 -1.3420
  665SOL    HW212310  10.010   6.028   4.306  1.1497 -0.3334 -0.6794
  666SOL     OW12311  10.420   5.972   1.469  0.0525 -0.1915 -0.0501
  666SOL    HW112312  10.349   5.913   1.493  1.9538 -2.4436  0.3568
  666SOL    HW212313  10.440   5.950   1.378  1.5079 -1.0446  0.4403
  667SOL     OW12314   1.151   5.912   6.763  0.2735 -0.0769 -0.3064
  667SOL    HW112315   1.070   5.868   6.788 -0.6178  0.5007 -2.0349
  667SOL    HW212316   1.138   6.004   6.786  0.0401  0.1842 -1.4135
  668SOL     OW12317   6.145  10.855   7.260 -0.8788  0.2340  0.5156
  668SOL    HW112318   6.213  10.876   7.323 -0.8528  3.8637 -0.4498
  668SOL    HW212319   6.181  10.883   7.175 -2.0306 -1.6632 -0.6798
  669SOL     OW12320  10.567   7.445   8.638 -0.0313  0.4316  0.4847
  669SOL    HW112321  10.541   7.455   8.547  0.3510 -2.1583  0.0227
  669SOL    HW212322  10.651   7.490   8.645  0.2336  0.1194 -0.5925
  670SOL     OW12323   7.237   3.391   8.046  0.4444 -0.1492  0.5039
  670SOL    HW112324   7.148   3.378   8.012  0.3477 -0.1192  0.7483
  670SOL    HW212325   7.268   3.468   7.998 -0.6555  1.5336  2.3437
  671SOL     OW12326  10.237   2.429  11.822 -0.0008  0.6464 -0.3990
  671SOL    HW112327  10.265   2.393  11.906 -0.4680 -0.1367 -0.5659
  671SOL    HW212328  10.295   2.389  11.758 -0.8322 -0.2074 -0.6379
  672SOL     OW12329   5.695  10.893   9.513  0.1691 -0.0880  0.0350
  672SOL    HW112330   5.627  10.830   9.489  1.4077 -1.6409  0.4894
  672SOL    HW212331   5.650  10.956   9.570 -0.8942 -1.0228  0.2627
  673SOL     OW12332   7.770   3.759   5.804  1.1448  0.3512 -0.1240
  673SOL    HW112333   7.835   3.822   5.773 -0.3348  1.4113 -1.1741
  673SOL    HW212334   7.690   3.810   5.817 -0.0062 -1.2154 -0.6591
  674SOL     OW12335  10.389   2.587   4.672 -0.1075 -0.0250 -0.3113
  674SOL    HW112336  10.391   2.638   4.753  2.4415 -2.8646  1.6719
  674SOL    HW212337  10.431   2.643   4.607  2.7458  0.5435  1.7903
  675SOL     OW12338   4.101   4.360   6.112  0.1847  0.0212  0.5857
  675SOL    HW112339   4.063   4.447   6.121  2.2527  0.9867  0.5341
  675SOL    HW212340   4.065   4.311   6.186 -1.0464  0.8921  0.5973
  676SOL     OW12341  12.787   6.367   5.761 -0.2108 -0.1683  0.5685
  676SOL    HW112342  12.780   6.272   5.753 -3.3725  0.0734 -3.5547
  676SOL    HW212343  12.875   6.387   5.729  0.0765 -1.6522  0.3373
  677SOL     OW12344   2.779   6.554  11.603  0.3962  0.7595  0.1370
  677SOL    HW112345   2.804   6.558  11.511  1.2304  2.1090  0.3981
  677SOL    HW212346   2.852   6.594  11.650 -0.4678  1.0388  1.2911
  678SOL     OW12347   8.650   3.778   6.630  0.2602 -0.0010 -0.0014
  678SOL    HW112348   8.684   3.832   6.559  1.7931  0.5739  1.1291
  678SOL    HW212349   8.555   3.775   6.614  0.2564  2.1114 -0.7204
  679SOL     OW12350  12.513  11.308   5.105  0.2891 -0.8793  0.3791
  679SOL    HW112351  12.417  11.304   5.097  0.4010 -0.5974 -1.7837
  679SOL    HW212352  12.541  11.354   5.026  2.2237 -1.0320  0.9413
  680SOL     OW12353   5.316   3.130   6.310  0.3127  0.2572  0.0821
  680SOL    HW112354   5.244   3.077   6.342  0.2467 -0.7447 -1.6052
  680SOL    HW212355   5.392   3.100   6.360 -0.3063  0.9377  1.4829
  681SOL     OW12356   6.621  11.626   8.413  0.3542 -0.1204 -0.5412
  681SOL    HW112357   6.597  11.548   8.363  0.3157 -0.2210 -0.3678
  681SOL    HW212358   6.547  11.685   8.403  0.1407 -0.3289 -0.2179
  682SOL     OW12359   1.255   5.571   6.006 -0.5567 -0.1752 -0.5410
  682SOL    HW112360   1.313   5.604   6.075 -1.4749 -0.2734  0.3065
  682SOL    HW212361   1.265   5.476   6.010 -1.6619 -0.2780  0.4535
  683SOL     OW12362   8.673  10.488   9.061 -0.2758  0.6929  0.4970
  683SOL    HW112363   8.589  10.532   9.067 -0.0597  1.0154  1.2590
  683SOL    HW212364   8.705  10.482   9.151  0.1935 -0.0634  0.3009
  684SOL     OW12365   8.103   7.031   1.345 -0.0617  0.2527 -0.2765
  684SOL    HW112366   8.111   6.960   1.281  1.3205  0.7068 -0.6369
  684SOL    HW212367   8.075   6.987   1.425 -3.7697 -0.1025 -1.5665
  685SOL     OW12368   1.882   4.992   5.465 -0.3524  0.0586 -0.2032
  685SOL    HW112369   1.949   4.979   5.532 -0.4583 -1.9509 -0.4379
  685SOL    HW212370   1.914   4.944   5.389 -0.7806  1.3541 -1.2318
  686SOL     OW12371   3.862   0.813   0.730 -0.1444 -0.5369  0.0624
  686SOL    HW112372   3.892   0.864   0.656  0.6659  1.6129  1.7900
  686SOL    HW212373   3.783   0.858   0.761  1.7203  1.0709  2.8789
  687SOL     OW12374  11.207   1.854   3.088  0.6551 -0.3383 -0.3632
  687SOL    HW112375  11.188   1.940   3.124 -2.3381 -0.8295 -0.4762
  687SOL    HW212376  11.181   1.793   3.158  0.5891 -1.1609 -1.0897
  688SOL     OW12377   0.705   8.153   6.967 -0.0386 -0.6992  0.1551
  688SOL    HW112378   0.732   8.092   7.036 -0.8514  0.6280  1.7157
  688SOL    HW212379   0.609   8.146   6.965 -0.0210 -0.8019 -0.9455
  689SOL     OW12380  11.809   5.548   2.221  0.2556  0.0266 -0.2541
  689SOL    HW112381  11.817   5.481   2.289 -0.3201 -0.7583 -0.9342
  689SOL    HW212382  11.816   5.631   2.268  0.2473 -0.5030  0.7092
  690SOL     OW12383   2.209  12.534   2.560  0.6394  0.4400 -0.2765
  690SOL    HW112384   2.220  12.534   2.465  0.7956  3.3207 -0.3707
  690SOL    HW212385   2.294  12.564   2.594 -0.0754  1.6621  0.5514
  691SOL     OW12386  12.066  10.221   1.109  0.0200  0.3007 -0.2828
  691SOL    HW112387  11.988  10.267   1.142 -1.3613  0.2891 -3.1877
  691SOL    HW212388  12.070  10.140   1.161  0.1244  1.7807  2.1617
  692SOL     OW12389   7.975   2.384   9.108 -0.5628 -0.1300 -0.5140
  692SOL    HW112390   7.915   2.346   9.172  0.7008 -0.6133  0.4156
  692SOL    HW212391   7.961   2.479   9.115  0.6367 -0.0446  1.6573
  693SOL     OW12392   0.158   6.242   3.778 -0.3890 -0.3798 -0.2183
  693SOL    HW112393   0.167   6.322   3.830  2.8429  0.5252 -1.9260
  693SOL    HW212394   0.160   6.171   3.842 -1.9113  0.7796  1.2186
  694SOL     OW12395   9.678   2.485   9.411  0.0788  0.1674 -0.7351
  694SOL    HW112396   9.677   2.413   9.348 -0.8245 -1.0600  0.6120
  694SOL    HW212397   9.598   2.535   9.391 -0.2445 -0.2604 -0.5239
  695SOL     OW12398   1.905  10.047   1.089 -0.0049  0.0888  0.3450
  695SOL    HW112399   1.922  10.109   1.160  1.4925 -0.4160  0.4662
  695SOL    HW212400   1.817  10.014   1.106  0.2048  0.2090  1.7925
  696SOL     OW12401   0.760   4.691   4.409 -0.4177 -0.1320 -0.7993
  696SOL    HW112402   0.839   4.742   4.392 -1.6682  2.6766  1.0362
  696SOL    HW212403   0.707   4.702   4.330  0.8763 -1.9046 -1.9784
  697SOL     OW12404  11.565   8.296   5.832 -0.2941 -0.2697 -0.5897
  697SOL    HW112405  11.646   8.333   5.798 -0.5386 -0.0312 -0.9165
  697SOL    HW212406  11.592   8.244   5.907 -0.2261  2.6700  1.5594
  698SOL     OW12407  12.015   3.875   6.550  0.0531 -0.3386 -0.3307
  698SOL    HW112408  12.104   3.891   6.579  0.1144  0.7548 -1.0599
  698SOL    HW212409  12.017   3.888   6.455 -0.7234 -1.0306 -0.4572
  699SOL     OW12410   2.322   4.142  12.093 -0.1696 -0.0102 -0.2622
  699SOL    HW112411   2.362   4.162  12.178 -1.0557 -0.8289  0.3856
  699SOL    HW212412   2.238   4.189  12.095  0.8553  1.9985 -1.7560
  700SOL     OW12413   1.975  11.137  12.259 -0.0136  0.3836 -0.3381
  700SOL    HW112414   1.951  11.187  12.182  1.0206  0.6376 -0.5110
  700SOL    HW212415   2.013  11.056  12.225  0.7735  0.6485 -0.1172
  701SOL     OW12416   5.863   3.461   0.645  0.1674 -0.2008 -0.3733
  701SOL    HW112417   5.806   3.528   0.607  0.3316  0.0485 -0.1833
  701SOL    HW212418   5.818   3.432   0.724  0.8173  0.8013  0.3994
  702SOL     OW12419   8.917   0.036   0.407  0.1187 -0.3926  0.2143
  702SOL    HW112420   8.891   0.007   0.495 -0.2678  0.3262  0.3404
  702SOL    HW212421   8.974  -0.034   0.375 -0.5988 -1.1762  0.6092
  703SOL     OW12422   2.511   2.278  11.750  0.4516 -0.2653  0.2704
  703SOL    HW112423   2.440   2.342  11.748 -0.3246 -0.9391  2.5658
  703SOL    HW212424   2.582   2.319  11.701 -0.9343  1.1661 -0.6266
  704SOL     OW12425   8.550   0.222   0.513  0.2731  0.1277  0.0874
  704SOL    HW112426   8.572   0.273   0.434 -0.5922 -0.2394 -0.4048
  704SOL    HW212427   8.633   0.212   0.559  0.5002  1.9008  0.1533
  705SOL     OW12428  12.423   4.343   7.366 -0.2292 -0.0455  0.0993
  705SOL    HW112429  12.357   4.402   7.329 -0.3919  1.0314  1.9987
  705SOL    HW212430  12.468   4.396   7.432  2.0112 -1.0139 -0.5746
  706SOL     OW12431   3.942  10.313   1.648 -0.5242  0.3642  0.3083
  706SOL    HW112432   3.922  10.252   1.577 -1.4538  1.0222 -0.0134
  706SOL    HW212433   3.910  10.270   1.726 -0.7039  0.2102  0.1509
  707SOL     OW12434  12.639  10.363   6.876 -0.4437  0.0164  0.5967
  707SOL    HW112435  12.667  10.454   6.884  0.4206 -0.1127 -0.7260
  707SOL    HW212436  12.701  10.314   6.929 -1.5892  0.2633  2.2660
  708SOL     OW12437   2.802  12.640  12.859  0.1168  0.3194 -0.2235
  708SOL    HW112438   2.855  12.616  12.935  0.1038 -2.1107 -0.9033
  708SOL    HW212439   2.712  12.628  12.888  0.1038 -0.2838 -0.4904
  709SOL     OW12440   8.649   8.409   0.149  0.0837  0.2865  1.1906
  709SOL    HW112441   8.722   8.467   0.169  0.4172 -0.5401  2.4848
  709SOL    HW212442   8.572   8.454   0.185 -1.1867  3.7782 -4.5398
  710SOL     OW12443   6.335   6.019  10.536 -0.1101 -0.3447 -0.5390
  710SOL    HW112444   6.246   6.052  10.535 -0.0054 -0.0464 -1.4423
  710SOL    HW212445   6.361   6.021  10.628 -0.7606  0.3031 -0.3617
  711SOL     OW12446  10.414   1.506   1.189 -0.5102  0.2102  0.1101
  711SOL    HW112447  10.378   1.431   1.143 -0.8290  1.5259 -1.9473
  711SOL    HW212448  10.440   1.567   1.119  0.8650  1.5018  1.6493
  712SOL     OW12449   3.959  11.331  11.212  0.2997 -0.3941  0.0723
  712SOL    HW112450   3.995  11.419  11.205 -1.7362  0.5026  0.1898
  712SOL    HW212451   4.024  11.282  11.262  1.3468  1.0941  0.2332
  713SOL     OW12452   1.702   2.334   1.884 -0.0572  0.3533 -0.0182
  713SOL    HW112453   1.792   2.342   1.853 -0.1802  0.7172 -0.2829
  713SOL    HW212454   1.705   2.364   1.975  0.0897  0.3509 -0.0211
  714SOL     OW12455   8.038   0.564   9.972 -0.3663 -0.1434  0.3153
  714SOL    HW112456   8.095   0.628  10.014 -0.9213 -0.1751  1.1387
  714SOL    HW212457   8.012   0.504  10.042 -0.3264 -0.9368 -0.3205
  715SOL     OW12458   4.365   2.645   1.863  0.0409 -0.2558  0.0437
  715SOL    HW112459   4.340   2.569   1.916  0.1009 -0.6367 -0.4765
  715SOL    HW212460   4.379   2.715   1.928 -0.1676 -0.6397  0.5113
  716SOL     OW12461   9.669   0.446   5.563 -0.3385  0.2828 -0.0867
  716SOL    HW112462   9.580   0.412   5.574 -0.4848  1.0417  1.2195
  716SOL    HW212463   9.717   0.375   5.521 -1.9337  0.4235 -2.3324
  717SOL     OW12464   0.290   3.331   7.015  0.3421 -0.2860  0.0877
  717SOL    HW112465   0.195   3.321   7.022  0.4296 -1.1402  0.2402
  717SOL    HW212466   0.314   3.392   7.084 -0.2906  1.3500 -1.0595
  718SOL     OW12467  12.855   0.534   4.073 -0.5413 -0.1075  0.1388
  718SOL    HW112468  12.783   0.473   4.087  0.3012 -1.0868  0.2837
  718SOL    HW212469  12.831   0.612   4.124 -0.9839 -0.8379  1.0680
  719SOL     OW12470   6.720   6.269   7.407 -0.2540 -0.1926  0.0425
  719SOL    HW112471   6.632   6.304   7.419 -0.0272  0.5140 -0.3216
  719SOL    HW212472   6.750   6.248   7.495 -0.2910  0.7940  0.2964
  720SOL     OW12473  12.357   7.218  10.095  0.6539 -0.5500  0.3249
  720SOL    HW112474  12.323   7.239  10.008  2.7588  0.0424 -0.4078
  720SOL    HW212475  12.340   7.297  10.147  0.2854 -0.5273  0.1719
  721SOL     OW12476  11.226  11.342   5.547  0.0093  0.2993 -0.7592
  721SOL    HW112477  11.253  11.273   5.487  2.4479 -0.0783  0.6700
  721SOL    HW212478  11.249  11.423   5.502  0.0511  0.0848 -1.1289
  722SOL     OW12479   5.670   1.662   5.717 -0.0279  0.1219  0.4231
  722SOL    HW112480   5.715   1.670   5.802  0.9869  0.5687 -0.1457
  722SOL    HW212481   5.599   1.727   5.722  0.9750  1.2582  0.3560
  723SOL     OW12482  10.547   4.027  11.498  0.7233  0.0601  0.3972
  723SOL    HW112483  10.549   3.970  11.421  2.2734  1.5684 -0.7725
  723SOL    HW212484  10.479   4.092  11.478  0.4425 -0.1175  0.7597
  724SOL     OW12485   0.599   6.954   8.893  0.5341  0.5896 -0.0204
  724SOL    HW112486   0.688   6.967   8.859  1.6365  2.5437  3.2013
  724SOL    HW212487   0.601   6.866   8.931 -0.7138 -1.6346 -4.3784
  725SOL     OW12488   8.557   2.625  10.708  0.4428 -0.3795 -0.2333
  725SOL    HW112489   8.591   2.542  10.675 -0.0302 -0.2898 -0.9517
  725SOL    HW212490   8.528   2.606  10.797 -2.0214 -1.6500 -1.2081
  726SOL     OW12491   3.123   7.226   1.682  0.1062  0.4956 -0.4097
  726SOL    HW112492   3.036   7.219   1.644  0.8975 -0.5199 -2.1992
  726SOL    HW212493   3.134   7.319   1.701 -1.2746  0.6661 -0.3589
  727SOL     OW12494  10.661   9.074   6.564 -0.2593 -0.6485 -0.3606
  727SOL    HW112495  10.573   9.111   6.565  0.1096  0.3146 -1.4376
  727SOL    HW212496  10.678   9.050   6.655 -1.1075  0.4310  0.1061
  728SOL     OW12497   5.937   1.994   1.415 -0.1436  0.1568 -0.2563
  728SOL    HW112498   5.984   1.930   1.469 -0.5962 -1.4140 -1.6257
  728SOL    HW212499   5.850   1.997   1.455 -0.0691  0.0444 -0.0787
  729SOL     OW12500   3.347  12.357   1.454  0.5811 -0.1312  0.6717
  729SOL    HW112501   3.334  12.396   1.367  1.5724 -1.6892 -0.2129
  729SOL    HW212502   3.400  12.422   1.501 -1.6685  1.6925  0.9001
  730SOL     OW12503   5.396  12.880   5.416  0.5357 -0.2605 -0.2820
  730SOL    HW112504   5.300  12.889   5.420  0.4740 -0.2069 -1.5018
  730SOL    HW212505   5.426  12.962   5.375  1.0006 -0.7356 -0.9046
  731SOL     OW12506   1.718   6.204   6.847 -0.2542  0.2266  0.4373
  731SOL    HW112507   1.648   6.262   6.875 -0.0095  0.9066 -0.3035
  731SOL    HW212508   1.673   6.130   6.806 -0.5828  1.5651 -1.8081
  732SOL     OW12509   5.250   6.313   8.636 -0.3000  0.0793 -0.6007
  732SOL    HW112510   5.174   6.300   8.693 -0.2960 -1.4617 -0.9082
  732SOL    HW212511   5.279   6.402   8.655 -2.0307  0.6185 -0.2977
  733SOL     OW12512   1.448   1.277   3.843 -0.4128  0.2110  0.3159
  733SOL    HW112513   1.388   1.285   3.769 -0.8292 -1.5544  0.4103
  733SOL    HW212514   1.416   1.201   3.892  2.2864 -1.2724 -0.0407
  734SOL     OW12515   1.114   9.194  11.698 -0.4848  0.3951  0.3221
  734SOL    HW112516   1.147   9.182  11.609  1.7420 -0.6961  1.1868
  734SOL    HW212517   1.166   9.267  11.733  0.8743 -1.1022  1.6076
  735SOL     OW12518   7.117   8.474  12.571 -0.1161  0.0538  0.3417
  735SOL    HW112519   7.211   8.468  12.589 -0.1337 -0.8707  0.1417
  735SOL    HW212520   7.112   8.487  12.476 -0.2211 -1.4606  0.1115
  736SOL     OW12521  12.809  10.919  12.334  0.3157  0.2139 -0.1429
  736SOL    HW112522  12.895  10.948  12.364  0.0657  0.0077  0.8378
  736SOL    HW212523  12.754  10.998  12.337  0.2572  0.1658  0.0868
  737SOL     OW12524  11.261  12.029   6.013 -0.1922 -0.3388 -0.4004
  737SOL    HW112525  11.304  12.046   6.097  0.6428 -0.3625 -0.8107
  737SOL    HW212526  11.333  12.011   5.953 -0.7080  0.7921 -1.3929
  738SOL     OW12527   1.273   2.424  10.128 -0.1334 -0.6408  0.2726
  738SOL    HW112528   1.186   2.445  10.096 -0.0553 -0.6493  0.0576
  738SOL    HW212529   1.320   2.508  10.127 -0.0308 -0.7025  0.0590
  739SOL     OW12530   6.375   0.808   4.841  0.1979  0.0786 -0.1462
  739SOL    HW112531   6.361   0.716   4.821  0.0986  0.3558 -1.4342
  739SOL    HW212532   6.343   0.855   4.764  0.2065  1.1938  0.5073
  740SOL     OW12533   2.177   3.789   3.689 -0.0046  0.1962  0.2363
  740SOL    HW112534   2.250   3.824   3.639  0.4423 -1.3654 -0.2462
  740SOL    HW212535   2.183   3.832   3.774  0.4848  1.2848 -0.3181
  741SOL     OW12536   0.124  12.623   4.521  0.4007 -0.6789  0.1869
  741SOL    HW112537   0.105  12.679   4.596 -0.6785 -1.1134  0.2649
  741SOL    HW212538   0.058  12.554   4.526  0.8478 -1.1833 -0.6844
  742SOL     OW12539   4.028   8.682   6.121 -0.1546  0.2389 -0.4916
  742SOL    HW112540   4.061   8.708   6.207 -0.0831 -1.0553 -0.1103
  742SOL    HW212541   4.093   8.620   6.088 -0.1384  0.7854 -1.5265
  743SOL     OW12542   7.731  11.164   4.546 -0.0908  0.1157 -0.4248
  743SOL    HW112543   7.823  11.149   4.524  0.1017  0.3871  0.1585
  743SOL    HW212544   7.697  11.078   4.569  0.4486  0.2243  0.8811
  744SOL     OW12545  10.910   4.826  12.494  0.4529 -0.6955  0.6281
  744SOL    HW112546  10.995   4.784  12.487  0.4424 -0.6986  0.5241
  744SOL    HW212547  10.853   4.776  12.436  1.0984  1.1931 -1.7978
  745SOL     OW12548   7.527   7.938   1.649  0.1720 -0.1797 -0.0534
  745SOL    HW112549   7.565   7.890   1.722 -0.1246 -0.1771  0.1000
  745SOL    HW212550   7.596   7.937   1.582  0.5924  0.1523  0.3655
  746SOL     OW12551   4.173   2.420   9.569  0.1934  0.1135 -0.2373
  746SOL    HW112552   4.246   2.482   9.568  1.6247 -1.4099 -2.7973
  746SOL    HW212553   4.176   2.380   9.482  0.2235 -4.4444  1.6021
  747SOL     OW12554  11.125   4.685   5.081 -0.0512  0.8033  0.4362
  747SOL    HW112555  11.190   4.615   5.090  0.5469  1.3740  0.6329
  747SOL    HW212556  11.058   4.664   5.146  0.5363  0.8555  1.0685
  748SOL     OW12557   5.437   0.042   4.536 -0.8230  0.2765  0.3480
  748SOL    HW112558   5.444  -0.027   4.470  1.2594  0.9182 -0.1927
  748SOL    HW212559   5.485   0.116   4.498 -2.2863  1.7694  1.2563
  749SOL     OW12560   2.316   0.309  10.927  0.4643 -0.1926 -0.0691
  749SOL    HW112561   2.368   0.380  10.963 -0.1081  0.0150  0.3495
  749SOL    HW212562   2.225   0.332  10.947  0.2377 -0.7801 -0.3844
  750SOL     OW12563   8.633   3.384   6.948 -0.2475 -0.7260  0.1475
  750SOL    HW112564   8.571   3.393   6.875 -1.8970  0.5066  1.6100
  750SOL    HW212565   8.578   3.364   7.023  1.5532 -3.7199  0.8422
  751SOL     OW12566   8.988   3.211   7.630 -0.8292 -0.6455 -0.2684
  751SOL    HW112567   9.033   3.249   7.555 -0.3025 -3.0263 -1.2579
  751SOL    HW212568   8.896   3.230   7.614 -0.5784  0.4580 -0.5297
  752SOL     OW12569   9.578  10.770   0.341  0.5417  0.3762  1.1286
  752SOL    HW112570   9.671  10.793   0.351  1.5054 -1.2009 -2.5682
  752SOL    HW212571   9.568  10.689   0.391  1.3997  0.1067  0.8879
  753SOL     OW12572   3.924   1.654   2.693  0.5385  0.2315 -0.0446
  753SOL    HW112573   3.974   1.679   2.615 -0.1837 -1.0308 -0.9399
  753SOL    HW212574   3.879   1.734   2.720  1.0231  0.7437 -0.7500
  754SOL     OW12575  12.699  10.563  12.470 -0.8856 -0.5796  0.0903
  754SOL    HW112576  12.610  10.528  12.460 -0.8299 -1.2045  1.5526
  754SOL    HW212577  12.686  10.657  12.481 -1.4612 -0.7760  1.2351
  755SOL     OW12578   1.194   0.289  11.686 -0.5147 -0.2237 -0.2350
  755SOL    HW112579   1.208   0.282  11.592 -3.3151  0.0854 -0.7547
  755SOL    HW212580   1.162   0.378  11.699 -0.2225 -0.2848  1.0270
  756SOL     OW12581   3.777  11.272  12.465  0.2057 -0.0176  0.3463
  756SOL    HW112582   3.744  11.351  12.422  1.1035 -0.0729 -0.5018
  756SOL    HW212583   3.775  11.292  12.558  2.1500  1.7552  0.0748
  757SOL     OW12584   6.950   8.635   5.871 -0.2869 -0.2306  0.1470
  757SOL    HW112585   7.008   8.580   5.819 -0.8854 -0.6676 -0.0646
  757SOL    HW212586   7.009   8.686   5.927  0.3698  0.3023 -1.0002
  758SOL     OW12587  10.703   9.284   9.866 -0.0908 -0.2764  0.2445
  758SOL    HW112588  10.760   9.310   9.793  1.0136  2.8210  1.9917
  758SOL    HW212589  10.615   9.287   9.830  0.3682  1.8516 -0.8717
  759SOL     OW12590   6.146  10.419   9.006  0.2535 -0.3761  0.1749
  759SOL    HW112591   6.132  10.324   9.011  0.8399 -0.4876 -0.2289
  759SOL    HW212592   6.240  10.429   8.994  0.2036  0.2637  0.2774
  760SOL     OW12593   5.534   2.349   7.955  0.4632 -0.0028 -0.0112
  760SOL    HW112594   5.544   2.268   7.904 -1.6041  0.1606 -0.7953
  760SOL    HW212595   5.623   2.373   7.981  1.5829 -0.3698 -3.1172
  761SOL     OW12596   0.686   2.754   7.230 -0.1023  0.5941 -0.2196
  761SOL    HW112597   0.685   2.815   7.156  0.0954 -0.0121 -0.7320
  761SOL    HW212598   0.693   2.667   7.190 -0.5119  0.2212  0.4949
  762SOL     OW12599  12.410   5.043   2.807  0.0111  0.0362 -0.1106
  762SOL    HW112600  12.317   5.054   2.789  0.3397  0.8518 -1.4721
  762SOL    HW212601  12.448   5.129   2.787  0.9320 -0.0119  1.3032
  763SOL     OW12602   8.511   7.299   2.724  0.3697 -0.1629 -0.0907
  763SOL    HW112603   8.496   7.379   2.775 -0.4071 -0.0251 -0.5180
  763SOL    HW212604   8.563   7.328   2.649  0.8176 -0.2168  0.1981
  764SOL     OW12605   3.937   6.600  11.098  0.2488  0.5830  0.2298
  764SOL    HW112606   4.027   6.630  11.107  0.7198 -0.1525 -1.7103
  764SOL    HW212607   3.899   6.655  11.030 -0.9294  1.1500  1.2908
  765SOL     OW12608   7.948   5.164   7.295  0.5361  0.1445  0.0057
  765SOL    HW112609   7.908   5.145   7.379 -0.0037  1.5985  0.1037
  765SOL    HW212610   8.001   5.086   7.275 -3.3102 -2.5805 -0.7764
  766SOL     OW12611   7.524   1.884   7.815 -0.0706  0.5426 -0.5642
  766SOL    HW112612   7.501   1.892   7.907 -0.9914  1.0438 -0.8262
  766SOL    HW212613   7.616   1.911   7.811  0.1976 -0.2156  0.3095
  767SOL     OW12614   2.729  12.626   5.861  0.0738  0.4796 -0.6255
  767SOL    HW112615   2.655  12.625   5.922  1.8348  2.4650  1.7407
  767SOL    HW212616   2.742  12.535   5.837 -2.2480 -0.0698 -0.0412
  768SOL     OW12617   8.699   3.561   0.678 -0.7364 -0.2476 -0.4186
  768SOL    HW112618   8.720   3.559   0.585 -0.7401 -1.6648 -0.4135
  768SOL    HW212619   8.631   3.628   0.686  2.6388  3.5511 -0.6042
  769SOL     OW12620   4.269   1.942   3.531 -0.0086 -0.4094 -0.6870
  769SOL    HW112621   4.293   1.974   3.444  0.9872 -0.5924 -0.4885
  769SOL    HW212622   4.313   2.001   3.592 -1.0154 -0.0412 -0.2831
  770SOL     OW12623   3.842  12.952  10.917  0.6516 -0.0332 -0.3715
  770SOL    HW112624   3.795  12.912  10.990 -1.0194  1.0908 -0.7643
  770SOL    HW212625   3.908  13.008  10.959 -0.2587  0.5677  0.2937
  771SOL     OW12626   4.741   7.234   7.881  0.3619 -0.2074 -0.3534
  771SOL    HW112627   4.663   7.259   7.831 -0.2866 -2.1879 -0.4279
  771SOL    HW212628   4.814   7.265   7.829 -0.3373 -0.8010 -1.7330
  772SOL     OW12629   1.008   6.814   7.543 -0.2112  0.6816  0.3994
  772SOL    HW112630   1.031   6.858   7.461 -0.4541 -1.4575 -0.9046
  772SOL    HW212631   1.084   6.828   7.599  0.9173  0.3912 -0.9895
  773SOL     OW12632  11.405   0.026   4.421 -0.5207  0.0425  0.3637
  773SOL    HW112633  11.418  -0.068   4.436  0.1605 -0.2676 -1.7861
  773SOL    HW212634  11.332   0.030   4.359 -1.2399  1.0091  1.2547
  774SOL     OW12635   2.597  11.107   7.549 -0.5053 -1.1140  0.1838
  774SOL    HW112636   2.599  11.202   7.545  0.7321 -1.0437  1.3367
  774SOL    HW212637   2.674  11.084   7.602 -0.3706 -2.7867 -0.6613
  775SOL     OW12638   0.428  11.590  12.315 -0.4830  0.9695 -1.1023
  775SOL    HW112639   0.519  11.615  12.331 -0.4131 -0.6872  1.7164
  775SOL    HW212640   0.379  11.630  12.386 -1.1895 -1.8566  0.1256
  776SOL     OW12641  12.835   4.622   8.690  0.1115 -0.0703  0.1901
  776SOL    HW112642  12.903   4.615   8.757  0.5960 -1.5345 -0.4007
  776SOL    HW212643  12.873   4.579   8.613 -1.2576 -0.4035 -0.3357
  777SOL     OW12644   1.018   6.448  11.333  0.4592  0.3527  0.2371
  777SOL    HW112645   1.080   6.378  11.349 -1.4844 -1.5051  0.0459
  777SOL    HW212646   0.947   6.407  11.284 -0.8960  2.3825  0.3589
  778SOL     OW12647   7.705  12.833  11.885 -0.4128  0.1253 -0.2586
  778SOL    HW112648   7.691  12.850  11.978 -0.4518 -0.7115 -0.1009
  778SOL    HW212649   7.637  12.883  11.841  0.2448  1.3626  0.0832
  779SOL     OW12650  10.195   4.124   8.793 -0.0427 -0.2082  0.2196
  779SOL    HW112651  10.183   4.081   8.708  0.2141 -0.0569  0.1040
  779SOL    HW212652  10.287   4.110   8.814  0.1762  0.7094 -0.0629
  780SOL     OW12653   3.640   2.253   2.747 -0.2347 -0.3847  0.1291
  780SOL    HW112654   3.701   2.275   2.676  0.2008  0.8281  0.8594
  780SOL    HW212655   3.695   2.213   2.814 -0.4522 -0.4553  0.2664
  781SOL     OW12656  10.136   0.514   2.679 -0.0037 -0.3213  0.0783
  781SOL    HW112657  10.225   0.480   2.666  0.6712  0.8841  1.2994
  781SOL    HW212658  10.139   0.603   2.644 -1.0815 -0.6555 -0.9270
  782SOL     OW12659   4.943   8.915   1.711  0.0258  0.2226 -0.0109
  782SOL    HW112660   4.971   8.872   1.791 -2.4090  1.2654  1.5158
  782SOL    HW212661   4.891   8.849   1.665  1.1817 -0.2833 -0.6217
  783SOL     OW12662   2.712   7.619   8.749  0.5627  0.1088 -0.7228
  783SOL    HW112663   2.666   7.555   8.695  1.7495 -0.3849 -1.1995
  783SOL    HW212664   2.687   7.597   8.839  1.3915 -1.4360 -0.8308
  784SOL     OW12665   7.752   1.564   7.932 -0.2569 -0.1823 -0.1662
  784SOL    HW112666   7.825   1.539   7.988  0.9663  3.5150  0.1568
  784SOL    HW212667   7.677   1.570   7.991  0.3719  0.9293  0.5444
  785SOL     OW12668   7.934   1.311   4.222  0.5211 -0.7048 -0.2795
  785SOL    HW112669   7.968   1.282   4.137  1.3573  0.1294 -0.2391
  785SOL    HW212670   7.986   1.388   4.245 -2.2988  1.5769 -0.8954
  786SOL     OW12671   6.783   4.935   7.488  0.6483  0.2235 -0.3479
  786SOL    HW112672   6.759   5.020   7.522  1.9014  0.1665  0.7429
  786SOL    HW212673   6.827   4.954   7.405 -0.7120  0.4864 -1.0392
  787SOL     OW12674   8.003   7.912   4.053  0.3542 -0.3778 -0.1193
  787SOL    HW112675   7.983   7.863   4.133 -0.1515  0.0162 -0.0007
  787SOL    HW212676   8.085   7.874   4.022 -0.2595 -1.6141 -0.2837
  788SOL     OW12677   9.962   0.193  10.838 -0.2114 -0.2667  0.0169
  788SOL    HW112678  10.005   0.190  10.753 -3.8333  0.8817 -2.0871
  788SOL    HW212679   9.904   0.117  10.839 -0.0620 -0.4003  1.6172
  789SOL     OW12680   2.038   0.101   7.562 -0.3888  0.5101 -0.1106
  789SOL    HW112681   2.124   0.140   7.579  0.0438  0.0617 -1.1600
  789SOL    HW212682   2.026   0.038   7.634  0.9425 -0.6481 -0.8326
  790SOL     OW12683  11.210   6.838   5.154  0.2974 -0.8522  0.3007
  790SOL    HW112684  11.221   6.812   5.246  0.7459  0.2985  0.5816
  790SOL    HW212685  11.132   6.894   5.154  0.6674 -0.3345  0.0913
  791SOL     OW12686   3.250   9.472  11.761  0.2862  0.4881  0.4000
  791SOL    HW112687   3.156   9.457  11.763  0.1383  1.0104 -1.0370
  791SOL    HW212688   3.272   9.471  11.667  1.6901  0.4561  0.7111
  792SOL     OW12689   7.556   5.119   3.712 -0.0400  0.4656  0.8545
  792SOL    HW112690   7.525   5.100   3.800 -3.3261  2.1449  0.2326
  792SOL    HW212691   7.651   5.124   3.720 -0.1735 -0.0973  4.1204
  793SOL     OW12692   7.674   4.323   4.123 -0.3522  0.1962  0.6303
  793SOL    HW112693   7.683   4.267   4.047  0.5561 -2.1071  2.3044
  793SOL    HW212694   7.748   4.384   4.116  0.7714 -1.1315  0.5231
  794SOL     OW12695   2.023   6.921   4.451 -0.0536 -0.1454 -0.2464
  794SOL    HW112696   2.093   6.928   4.385 -0.3967  0.0704 -0.5873
  794SOL    HW212697   1.995   7.012   4.466  1.2886  0.0334  1.5793
  795SOL     OW12698  12.567   9.691   4.804  0.6793 -0.2173 -0.4546
  795SOL    HW112699  12.481   9.726   4.825  0.1867 -2.2390  1.1954
  795SOL    HW212700  12.625   9.727   4.871  0.7676 -0.2748 -0.4993
  796SOL     OW12701   4.125   2.179   6.712  0.7044 -0.1016 -0.3450
  796SOL    HW112702   4.036   2.186   6.747  1.4635 -0.8724  1.9211
  796SOL    HW212703   4.116   2.126   6.633 -0.8792  0.1226 -0.3463
  797SOL     OW12704   9.520   9.617   4.376 -0.4396  0.5761  0.2216
  797SOL    HW112705   9.467   9.665   4.313  2.5537  1.9258 -1.4454
  797SOL    HW212706   9.560   9.684   4.431 -0.6987 -0.4305  1.7283
  798SOL     OW12707   3.364   5.241   8.072  0.5305  0.0282 -0.3840
  798SOL    HW112708   3.385   5.312   8.010 -2.1149 -0.0547 -1.4801
  798SOL    HW212709   3.325   5.173   8.017 -2.7365  0.2989  1.3702
  799SOL     OW12710   0.415   0.965   0.135 -0.0381 -0.2896 -0.1334
  799SOL    HW112711   0.470   0.970   0.058  0.9080  1.6093  0.6089
  799SOL    HW212712   0.395   1.056   0.157 -1.7983 -0.8470  0.8138
  800SOL     OW12713   3.765   0.183  10.435 -0.0805 -0.0428  0.0306
  800SOL    HW112714   3.722   0.269  10.433  0.4750  0.2300 -1.4588
  800SOL    HW212715   3.756   0.154  10.526 -2.0927  0.6593  0.1049
  801SOL     OW12716  12.846  10.933   9.695 -0.6537  0.1721 -0.2683
  801SOL    HW112717  12.807  10.976   9.619 -0.8783  1.7496  0.6994
  801SOL    HW212718  12.811  10.844   9.694 -1.6892  0.5841 -1.2566
  802SOL     OW12719   0.059   6.785   8.557  0.2681  0.0526 -0.7409
  802SOL    HW112720   0.150   6.776   8.585  0.1704  1.0367 -0.0663
  802SOL    HW212721   0.022   6.849   8.617  0.3074  3.0633 -3.6089
  803SOL     OW12722   5.314   5.002  11.885  0.2679  0.2256  0.3140
  803SOL    HW112723   5.238   4.947  11.903  0.7375 -0.4948  0.1083
  803SOL    HW212724   5.360   4.958  11.814  0.1899  1.3366 -0.4491
  804SOL     OW12725  11.781   7.492   6.385 -0.1174  0.1489 -0.4201
  804SOL    HW112726  11.786   7.487   6.289  2.1017  3.5732 -0.6620
  804SOL    HW212727  11.708   7.550   6.402 -0.3644 -0.2737 -0.0119
  805SOL     OW12728  10.985  11.758  11.570 -0.2696  0.4876  0.3005
  805SOL    HW112729  11.020  11.793  11.488 -1.1126  0.7091  0.0220
  805SOL    HW212730  10.936  11.680  11.543  1.0191 -0.5403  0.8354
  806SOL     OW12731   3.516  10.231   5.081 -0.3433 -0.2509 -0.5405
  806SOL    HW112732   3.601  10.223   5.037 -0.9026 -0.6546 -1.5710
  806SOL    HW212733   3.459  10.170   5.034 -0.9434 -0.7878  0.8177
  807SOL     OW12734   1.254   7.502   0.526 -0.1753 -0.5680 -0.3279
  807SOL    HW112735   1.202   7.463   0.597  0.2258  0.5291  0.6015
  807SOL    HW212736   1.190   7.518   0.456 -0.5520 -1.7977 -0.2899
  808SOL     OW12737   6.755   5.512   9.997 -0.8451 -0.5960  0.0341
  808SOL    HW112738   6.775   5.418   9.992  0.7501 -0.4834  2.3375
  808SOL    HW212739   6.702   5.520  10.076 -1.8175  0.3546 -0.6933
  809SOL     OW12740   8.587   7.829   2.217  0.0942  0.0881 -0.5317
  809SOL    HW112741   8.493   7.846   2.225 -0.1282 -0.3097 -2.0395
  809SOL    HW212742   8.626   7.916   2.206 -0.4172  0.0857 -2.6243
  810SOL     OW12743   6.185   9.638  10.473  0.1733  0.1062 -0.0435
  810SOL    HW112744   6.195   9.655  10.379  0.7113  1.3987  0.2267
  810SOL    HW212745   6.094   9.660  10.492  0.3848  1.0228 -0.0452
  811SOL     OW12746   4.892   2.145   2.247  0.5079  0.4915 -0.7323
  811SOL    HW112747   4.917   2.085   2.317 -1.5486  0.4372  0.0335
  811SOL    HW212748   4.804   2.117   2.222  0.3732  1.8383 -1.8809
  812SOL     OW12749   6.195   8.557  10.744 -0.2632 -0.1439 -0.6399
  812SOL    HW112750   6.270   8.530  10.690  1.1134  0.1319  1.0248
  812SOL    HW212751   6.205   8.505  10.824  0.0401  2.2020  0.9323
  813SOL     OW12752  11.515  10.092   8.723  0.3974  0.0438 -0.7114
  813SOL    HW112753  11.530  10.178   8.684  0.0904 -1.0700 -3.5300
  813SOL    HW212754  11.603  10.055   8.732  0.5069  0.4903  0.2200
  814SOL     OW12755  10.936   6.928   0.641 -0.0378  0.6802 -0.3339
  814SOL    HW112756  10.940   6.852   0.700  0.4973  0.3882 -0.7348
  814SOL    HW212757  11.008   6.984   0.671  0.4528  0.3720 -0.9150
  815SOL     OW12758   6.101   3.871   5.586  0.2636 -0.5159  0.1513
  815SOL    HW112759   6.017   3.876   5.542  0.4480 -1.2118 -0.3009
  815SOL    HW212760   6.110   3.955   5.631 -0.4533 -0.2548 -0.1809
  816SOL     OW12761   7.817  11.098   3.454  0.3008 -0.3827  0.2226
  816SOL    HW112762   7.868  11.020   3.474  0.0079 -0.8734 -0.8630
  816SOL    HW212763   7.733  11.084   3.497  0.4813 -0.3598  0.5815
  817SOL     OW12764   2.877   2.990  11.625  0.1633  0.3565 -0.2803
  817SOL    HW112765   2.781   2.991  11.624  0.0359 -1.9463  1.0184
  817SOL    HW212766   2.901   2.926  11.558  0.7703  0.6652 -0.3597
  818SOL     OW12767  11.984   4.359   9.202 -0.1372  0.1615 -0.0287
  818SOL    HW112768  12.047   4.297   9.239  1.3488  1.4482 -0.3198
  818SOL    HW212769  12.027   4.444   9.209 -1.6603  1.0254 -0.6900
  819SOL     OW12770   8.634   1.489   4.690  0.0698 -0.1145 -0.5133
  819SOL    HW112771   8.714   1.539   4.709 -0.9358  1.6266 -0.6241
  819SOL    HW212772   8.663   1.398   4.684  1.9235  0.3884  0.1402
  820SOL     OW12773   4.361  11.013  11.748 -0.3092 -0.4602  0.1765
  820SOL    HW112774   4.410  11.091  11.723 -1.5709  0.3411  0.1265
  820SOL    HW212775   4.275  11.025  11.707 -1.0674 -1.0834  1.5321
  821SOL     OW12776   7.582  10.406   2.818  0.3761  0.0981 -0.4857
  821SOL    HW112777   7.556  10.435   2.906 -2.0540 -0.6047 -0.8896
  821SOL    HW212778   7.565  10.482   2.762 -0.0547 -0.1070 -0.6366
  822SOL     OW12779   7.727   7.885   4.953 -0.2230 -0.0869 -0.0816
  822SOL    HW112780   7.723   7.921   4.865  3.8672 -1.8740 -1.1997
  822SOL    HW212781   7.785   7.943   5.001  1.2446 -1.5657  0.0090
  823SOL     OW12782   3.173   9.340  10.769  0.5867  0.0101  0.4648
  823SOL    HW112783   3.114   9.403  10.728  0.2596 -0.0607  0.8246
  823SOL    HW212784   3.155   9.257  10.726 -0.4606 -0.2809  1.4123
  824SOL     OW12785   0.461   1.100   7.061 -0.5709  0.1888 -0.3536
  824SOL    HW112786   0.415   1.103   6.977 -1.2837  0.9506  0.0424
  824SOL    HW212787   0.410   1.158   7.118  0.6681  0.7673  0.2180
  825SOL     OW12788   7.258   8.153   3.243 -0.3824 -0.4656  0.0000
  825SOL    HW112789   7.344   8.131   3.280 -1.1823 -0.5886  1.8946
  825SOL    HW212790   7.272   8.234   3.196  0.8753 -0.7267 -0.1129
  826SOL     OW12791   6.919   5.150   6.991 -0.7740 -0.1326  0.1278
  826SOL    HW112792   6.837   5.193   7.015  0.9386  1.5026  3.8345
  826SOL    HW212793   6.933   5.084   7.059  0.3200 -1.4858 -1.2996
  827SOL     OW12794  11.965   0.427  11.920 -0.1880 -0.3977 -0.6835
  827SOL    HW112795  11.949   0.406  11.828 -0.6506 -1.4248 -0.3737
  827SOL    HW212796  12.021   0.357  11.952  1.7102  1.0173 -0.6809
  828SOL     OW12797   4.699   9.992   8.883 -0.6964  0.0830 -0.4192
  828SOL    HW112798   4.680   9.900   8.869  0.1326  0.2091 -2.9018
  828SOL    HW212799   4.654  10.037   8.811 -0.5840  1.5540  0.3824
  829SOL     OW12800   5.562  12.279   7.277  0.0037  0.4527 -0.3500
  829SOL    HW112801   5.574  12.214   7.347 -0.2001  1.8953  1.1018
  829SOL    HW212802   5.569  12.229   7.196 -0.3551 -1.4068  0.7028
  830SOL     OW12803   6.736   1.634   7.703 -0.1820  0.7251 -0.1118
  830SOL    HW112804   6.808   1.629   7.766 -0.4265  1.8334  0.2670
  830SOL    HW212805   6.773   1.600   7.621  1.6465  3.7681 -0.6898
  831SOL     OW12806   3.307  12.591   6.092 -0.3792 -0.1538 -0.0350
  831SOL    HW112807   3.274  12.679   6.107 -1.7357 -0.7684  0.7861
  831SOL    HW212808   3.400  12.595   6.118 -0.6915  0.7663  1.0099
  832SOL     OW12809   9.039   8.236  12.312  0.1428 -0.5594  0.9404
  832SOL    HW112810   8.952   8.261  12.342  0.1788  1.3072 -0.3619
  832SOL    HW212811   9.098   8.265  12.382 -0.0711  0.7647  0.6079
  833SOL     OW12812  11.489   9.418   2.903 -0.1595  0.0211  0.6077
  833SOL    HW112813  11.558   9.402   2.968  0.3902  1.1664  0.3387
  833SOL    HW212814  11.443   9.496   2.936 -1.4244 -0.7923  0.8426
  834SOL     OW12815   9.128   9.816  10.666  0.4411 -0.1283 -0.2676
  834SOL    HW112816   9.158   9.891  10.615  0.1268  0.3039  0.1788
  834SOL    HW212817   9.161   9.832  10.754  0.1421 -0.3815 -0.1098
  835SOL     OW12818   5.238   2.546   6.478  0.1961 -0.1830 -0.2987
  835SOL    HW112819   5.324   2.586   6.470  0.7301 -1.2143  0.1266
  835SOL    HW212820   5.255   2.452   6.486 -0.9966 -0.4575 -0.7673
  836SOL     OW12821   7.368   7.127   2.070 -0.2455  0.6535 -0.0429
  836SOL    HW112822   7.289   7.154   2.117 -0.7874  1.1420 -1.2168
  836SOL    HW212823   7.402   7.054   2.122 -0.8869  1.1015  1.0463
  837SOL     OW12824   8.818   7.764   1.397 -0.4090 -0.3099  0.1581
  837SOL    HW112825   8.791   7.693   1.456 -0.1246 -0.8708 -0.3795
  837SOL    HW212826   8.863   7.720   1.325 -1.3647  0.3086 -0.8501
  838SOL     OW12827  10.063   7.816   6.548  0.6132  0.4071 -0.1911
  838SOL    HW112828  10.048   7.890   6.489 -1.6257  0.5696  0.4960
  838SOL    HW212829  10.007   7.833   6.623  1.3163 -1.1730  0.7482
  839SOL     OW12830   9.114  11.338  12.291  0.1421 -0.2050 -0.0317
  839SOL    HW112831   9.145  11.306  12.375 -0.2423  1.5310  0.8171
  839SOL    HW212832   9.138  11.270  12.229 -0.3785 -1.9451  1.5967
  840SOL     OW12833   3.256   7.763   1.531 -0.0649 -0.6638  0.1245
  840SOL    HW112834   3.272   7.807   1.447  0.2545  2.0031  1.4727
  840SOL    HW212835   3.185   7.813   1.571 -0.2102 -1.8773  1.4765
  841SOL     OW12836  11.291   9.901   5.108 -0.4654 -0.6189 -0.4323
  841SOL    HW112837  11.384   9.884   5.117 -0.0544 -0.2534 -3.0543
  841SOL    HW212838  11.263   9.843   5.037 -1.5085  1.4455 -1.8034
  842SOL     OW12839   7.565  12.347   5.805  0.1886  0.6100 -0.0936
  842SOL    HW112840   7.498  12.347   5.737  1.9518  0.3233 -1.9414
  842SOL    HW212841   7.627  12.279   5.777  1.3301  0.9766  1.4299
  843SOL     OW12842  12.283   5.222  11.533  0.6452 -0.1182 -0.3929
  843SOL    HW112843  12.339   5.232  11.456  0.7339 -0.1076 -0.3268
  843SOL    HW212844  12.209   5.170  11.503  0.4840  0.2168 -0.5834
  844SOL     OW12845  10.246   0.323  10.635 -0.1615  0.0368 -0.1373
  844SOL    HW112846  10.302   0.285  10.704 -0.4144  0.1629  0.1412
  844SOL    HW212847  10.307   0.352  10.568  0.3129  2.3055  1.1767
  845SOL     OW12848   6.119   2.102   3.578 -0.0551  0.1195  0.5188
  845SOL    HW112849   6.183   2.117   3.509 -0.2486 -1.1861  0.0324
  845SOL    HW212850   6.035   2.123   3.538 -0.2764 -1.5898 -0.0118
  846SOL     OW12851   5.984  12.823  11.218 -0.4358  0.4729 -0.2519
  846SOL    HW112852   6.034  12.763  11.164  0.5342  1.1265 -0.1180
  846SOL    HW212853   5.993  12.908  11.175 -0.9763  0.7104  0.0804
  847SOL     OW12854   6.883   7.125  10.607  0.0595  0.1262 -0.7058
  847SOL    HW112855   6.967   7.105  10.565 -0.1809  0.9619 -1.6114
  847SOL    HW212856   6.843   7.040  10.621  0.3939 -0.2096 -1.6823
  848SOL     OW12857   2.475   4.180   3.702  0.0555  0.2150  0.5411
  848SOL    HW112858   2.569   4.187   3.684 -0.2707 -1.3479 -2.3790
  848SOL    HW212859   2.449   4.268   3.727  2.2924  0.6414  1.6785
  849SOL     OW12860   1.768   4.734   7.650 -0.0562 -0.4782 -0.4820
  849SOL    HW112861   1.680   4.718   7.686 -0.6964 -1.6051 -2.4031
  849SOL    HW212862   1.820   4.761   7.726 -1.2523 -2.8692  1.3292
  850SOL     OW12863   5.544   4.269   4.119  0.1059 -0.0274  0.0130
  850SOL    HW112864   5.626   4.264   4.168 -0.7855  1.7826  1.8461
  850SOL    HW212865   5.570   4.293   4.030  1.5173  2.7286  1.0546
  851SOL     OW12866   0.924   5.754  11.828 -0.7545  0.7218 -0.4378
  851SOL    HW112867   0.933   5.662  11.853 -0.0897  1.2917  1.7062
  851SOL    HW212868   0.970   5.761  11.744  0.1080 -0.7035 -0.1223
  852SOL     OW12869   4.945   7.596   9.515 -0.2558  0.3940 -0.7065
  852SOL    HW112870   4.901   7.675   9.483 -1.0288  0.1568 -0.2554
  852SOL    HW212871   4.898   7.573   9.595 -0.1871 -0.6561 -0.9523
  853SOL     OW12872   3.554   5.162  12.658  0.1852  0.1725 -0.5368
  853SOL    HW112873   3.605   5.224  12.606  2.2983  1.3949  2.6961
  853SOL    HW212874   3.616   5.093  12.683 -0.7216 -0.3608  0.3699
  854SOL     OW12875   9.599  10.514   1.087  0.8205 -0.1494  0.2689
  854SOL    HW112876   9.652  10.528   1.165 -0.6667  0.0760  1.2739
  854SOL    HW212877   9.650  10.554   1.016  0.1199  4.0641  1.8367
  855SOL     OW12878  11.983  10.696   5.798 -0.3769 -0.3433 -0.3003
  855SOL    HW112879  11.920  10.735   5.859 -0.1103 -0.0849 -0.1901
  855SOL    HW212880  12.069  10.717   5.835 -0.2303 -1.2381 -0.1158
  856SOL     OW12881   3.355   9.994   4.029 -0.0853 -0.2360  0.2298
  856SOL    HW112882   3.410  10.067   4.058  0.4179 -0.7308  0.5523
  856SOL    HW212883   3.417   9.922   4.016 -0.4468 -0.3363 -1.0262
  857SOL     OW12884   2.744   5.381   3.135 -0.1257 -0.1129  0.7570
  857SOL    HW112885   2.724   5.435   3.211  0.6454  1.2769  0.0094
  857SOL    HW212886   2.658   5.354   3.102 -0.4748 -0.8116  2.1347
  858SOL     OW12887   5.727   4.900   6.769 -0.0275 -0.1032 -0.0997
  858SOL    HW112888   5.683   4.963   6.825  0.5543  0.2868 -0.0794
  858SOL    HW212889   5.818   4.928   6.767  0.3124 -1.1387  0.1920
  859SOL     OW12890   0.546   8.040   5.282  0.2192  0.0228  0.3246
  859SOL    HW112891   0.495   8.017   5.205  0.1407 -0.4419  0.5123
  859SOL    HW212892   0.633   8.060   5.248 -0.1692  1.1291 -0.0275
  860SOL     OW12893   9.991   8.899   0.369 -0.3254  0.0561  0.3554
  860SOL    HW112894   9.935   8.860   0.437 -1.7333  0.6696 -0.3963
  860SOL    HW212895   9.929   8.923   0.299  0.9573  0.3570 -0.7114
  861SOL     OW12896   5.325   5.462   3.013 -0.2512  0.0528 -0.6450
  861SOL    HW112897   5.233   5.442   2.999 -0.2517  0.6286 -1.5613
  861SOL    HW212898   5.360   5.476   2.925  0.7501 -0.3203 -0.3204
  862SOL     OW12899   3.987   8.137   2.066 -0.5894 -0.6770 -0.2822
  862SOL    HW112900   3.936   8.096   1.996  1.9114 -0.9183 -2.0810
  862SOL    HW212901   3.994   8.228   2.040  1.9978 -1.1386 -1.5324
  863SOL     OW12902  10.813   4.260   4.601 -0.3074 -0.2021 -0.0402
  863SOL    HW112903  10.748   4.286   4.536  0.2002 -1.3685 -1.0572
  863SOL    HW212904  10.817   4.165   4.595  0.7289 -0.2317  0.7497
  864SOL     OW12905   9.406  10.749   0.598  0.6257 -1.0232  0.1280
  864SOL    HW112906   9.362  10.776   0.679  1.0352 -0.1670  0.0830
  864SOL    HW212907   9.496  10.778   0.610  0.6884 -0.8882 -0.6281
  865SOL     OW12908   3.887   2.465   4.149 -0.1912  0.3372 -0.1253
  865SOL    HW112909   3.957   2.411   4.185 -0.3043  0.6524  0.5948
  865SOL    HW212910   3.929   2.549   4.130 -0.4075  0.5851  0.4786
  866SOL     OW12911   3.316   2.501   1.857  0.1938 -0.4801  0.0302
  866SOL    HW112912   3.400   2.511   1.812 -0.4265 -1.9058 -1.5712
  866SOL    HW212913   3.279   2.589   1.859  0.7260 -0.2061 -1.3358
  867SOL     OW12914   1.680   4.503  11.121  0.4624  0.5117 -0.2786
  867SOL    HW112915   1.749   4.455  11.076  0.9744 -1.4966  2.3912
  867SOL    HW212916   1.610   4.438  11.133 -1.2533  2.0324 -1.3818
  868SOL     OW12917   8.513   1.103   8.910  1.0018 -0.5923 -0.0240
  868SOL    HW112918   8.568   1.066   8.979  0.6479 -0.6969  0.2084
  868SOL    HW212919   8.478   1.026   8.864  1.6310 -0.5147 -0.6391
  869SOL     OW12920   9.519   5.392   8.117  0.0633  0.3338  0.0474
  869SOL    HW112921   9.533   5.318   8.176 -1.7836 -0.7576 -0.8044
  869SOL    HW212922   9.427   5.413   8.126  0.5561  2.6094  0.2838
  870SOL     OW12923   1.497   6.968   8.290  0.0773 -0.7926  0.2829
  870SOL    HW112924   1.531   6.918   8.215 -0.9023  1.5928 -1.9250
  870SOL    HW212925   1.404   6.977   8.272  0.0004  0.7044  1.2571
  871SOL     OW12926   0.217   4.709  10.342  0.4560  0.4941  0.8292
  871SOL    HW112927   0.153   4.767  10.383  0.7057  1.1486  0.3053
  871SOL    HW212928   0.168   4.661  10.275  0.1784 -0.1493  1.4788
  872SOL     OW12929   2.391   7.022   8.449  0.3879  0.6326  0.2777
  872SOL    HW112930   2.395   6.993   8.358 -1.4605  1.2568 -0.0430
  872SOL    HW212931   2.337   6.956   8.493  2.3021 -0.3617  1.2647
  873SOL     OW12932  10.621   1.732   3.756  0.2516 -0.8627 -0.1538
  873SOL    HW112933  10.567   1.698   3.827  0.3196  0.0989  0.3725
  873SOL    HW212934  10.604   1.826   3.754  2.9681 -0.2331  1.0343
  874SOL     OW12935   2.733   2.387  11.651  0.4551  0.5402  0.2879
  874SOL    HW112936   2.780   2.470  11.639  1.4813 -0.0942 -0.1488
  874SOL    HW212937   2.782   2.342  11.720  1.3710 -0.7286 -1.1302
  875SOL     OW12938   0.200   2.100   5.871  0.1843  0.0579  0.0606
  875SOL    HW112939   0.226   2.161   5.939  1.3959  0.9785 -1.1699
  875SOL    HW212940   0.282   2.072   5.831 -0.5150  0.5806 -1.8608
  876SOL     OW12941  10.262   5.075  10.960  0.4538  0.2083  0.1232
  876SOL    HW112942  10.309   5.008  11.009  0.5659  0.2255  0.0404
  876SOL    HW212943  10.313   5.155  10.975  0.3578  0.2601  0.1673
  877SOL     OW12944   0.675   8.572   3.797  0.1093  0.1870  0.2452
  877SOL    HW112945   0.608   8.627   3.838  0.2351 -0.6963  1.7348
  877SOL    HW212946   0.670   8.593   3.704 -1.1867  1.2532  0.5212
  878SOL     OW12947  10.367   8.398  10.933 -0.1046  0.1977  0.4753
  878SOL    HW112948  10.459   8.387  10.958  0.0767 -1.7281 -0.8025
  878SOL    HW212949  10.370   8.404  10.837 -1.3002  0.4426  0.4457
  879SOL     OW12950   5.348   6.920   4.174  0.3718 -0.3470 -0.2693
  879SOL    HW112951   5.368   7.009   4.145  0.0893 -0.3791 -0.5655
  879SOL    HW212952   5.301   6.881   4.101 -1.2310 -0.1051  0.5879
  880SOL     OW12953   8.509   6.251   6.315  0.4356 -0.0054 -0.1520
  880SOL    HW112954   8.440   6.213   6.260  1.6248 -1.7612 -0.5256
  880SOL    HW212955   8.474   6.336   6.342 -1.7290 -0.6903 -0.5803
  881SOL     OW12956  10.040   4.705   1.265 -0.0730  0.1058  0.9223
  881SOL    HW112957  10.095   4.675   1.337  1.4592 -1.4575 -0.7648
  881SOL    HW212958   9.971   4.638   1.258 -1.1144  1.0458  1.8221
  882SOL     OW12959   0.030   7.158   4.661 -0.1115 -0.0717  0.2177
  882SOL    HW112960   0.036   7.122   4.573 -1.6314  0.1938 -0.0231
  882SOL    HW212961   0.006   7.083   4.716  2.1024 -0.5225  0.6773
  883SOL     OW12962   2.117  11.134   7.206  0.1817  0.6273 -0.1341
  883SOL    HW112963   2.136  11.210   7.152  0.0499  1.1915  0.5956
  883SOL    HW212964   2.186  11.135   7.273 -0.7704  1.0650  0.8624
  884SOL     OW12965   5.643  12.106   4.639 -0.0965  0.3419  0.5070
  884SOL    HW112966   5.567  12.080   4.692 -1.3002 -0.5686 -1.5669
  884SOL    HW212967   5.606  12.136   4.556  1.7778  0.8394 -0.2028
  885SOL     OW12968   3.173   5.823   4.790  0.1281  0.1217 -0.3556
  885SOL    HW112969   3.184   5.737   4.750  1.2045  0.2417 -0.3574
  885SOL    HW212970   3.259   5.864   4.782  0.4663  0.0990  2.2286
  886SOL     OW12971   0.646   4.066   5.606  0.0082 -0.2256  0.0233
  886SOL    HW112972   0.664   4.159   5.592  0.0484 -0.0885  0.9515
  886SOL    HW212973   0.683   4.022   5.529  1.8848  0.3063  0.5702
  887SOL     OW12974   4.509   8.783  12.315 -0.2608  0.4279  0.2356
  887SOL    HW112975   4.434   8.734  12.280 -0.8359  0.4250  1.4223
  887SOL    HW212976   4.546   8.726  12.382  0.8936  0.3845 -0.4245
  888SOL     OW12977  12.403  11.683   9.788  0.1446  0.0438  0.2133
  888SOL    HW112978  12.479  11.643   9.832  0.6017  0.7920  0.1232
  888SOL    HW212979  12.341  11.611   9.777  1.1421 -0.7540 -0.3764
  889SOL     OW12980   7.794  10.381   5.562 -0.1675  0.8131  0.1112
  889SOL    HW112981   7.874  10.342   5.525 -1.6393 -0.3154 -2.1141
  889SOL    HW212982   7.818  10.472   5.578  2.2552 -0.0150  1.8551
  890SOL     OW12983   5.309   2.822   9.755 -0.3019 -0.0419 -0.1288
  890SOL    HW112984   5.344   2.787   9.673 -0.4349 -0.0925 -0.1653
  890SOL    HW212985   5.222   2.855   9.732 -0.2634  0.1164 -0.0489
  891SOL     OW12986  12.818  10.044  11.413 -0.7009  0.4332  0.2351
  891SOL    HW112987  12.911  10.061  11.401 -0.4711 -0.0714  1.2023
  891SOL    HW212988  12.814   9.957  11.452 -1.7047 -0.5726 -1.8952
  892SOL     OW12989   3.468  10.339   0.889 -0.1815 -0.0795  0.0198
  892SOL    HW112990   3.442  10.402   0.955 -2.1102  2.3998 -2.8429
  892SOL    HW212991   3.386  10.303   0.856  0.7242 -1.4939 -0.8454
  893SOL     OW12992  10.044  10.954   0.176  0.0952  0.0082  0.0874
  893SOL    HW112993  10.129  10.944   0.221 -0.5243 -2.2703  0.9285
  893SOL    HW212994  10.067  10.982   0.088  1.6004  1.0290  0.7519
  894SOL     OW12995   8.433   8.640   6.030  0.2103 -0.1616  0.3532
  894SOL    HW112996   8.448   8.647   6.124  0.0419  1.0421  0.3089
  894SOL    HW212997   8.408   8.728   6.004  0.2367 -0.4917 -0.8209
  895SOL     OW12998   1.938   7.158   6.428 -0.2313 -0.3857 -0.6566
  895SOL    HW112999   1.946   7.148   6.523  0.1075  0.1382 -0.6266
  895SOL    HW213000   1.847   7.134   6.409 -0.7759  1.0458  0.0045
  896SOL     OW13001  10.362  11.730   3.134  0.1042  0.0351  0.1104
  896SOL    HW113002  10.290  11.676   3.101  1.0508 -0.1934 -1.7308
  896SOL    HW213003  10.352  11.729   3.229 -0.9864 -1.8399  0.0184
  897SOL     OW13004  10.417   1.378  10.275 -0.6306  0.4003  0.1121
  897SOL    HW113005  10.465   1.316  10.330 -0.0145 -0.1082 -0.9640
  897SOL    HW213006  10.326   1.350  10.281 -0.1673 -1.8411 -1.8178
  898SOL     OW13007   9.192  10.278  12.430 -0.0433  0.0816 -0.4231
  898SOL    HW113008   9.129  10.207  12.419  0.0594 -0.2031  0.6786
  898SOL    HW213009   9.235  10.286  12.345  0.8302 -2.0186 -0.2331
  899SOL     OW13010   3.267   2.988   1.166 -0.3410  0.5119 -0.3551
  899SOL    HW113011   3.184   2.948   1.190 -0.7677  1.0951 -0.8237
  899SOL    HW213012   3.317   2.992   1.248 -0.6566 -0.1066 -0.1297
  900SOL     OW13013   5.287   1.124   7.028 -0.0114 -0.3320  0.1771
  900SOL    HW113014   5.353   1.056   7.022 -0.3072 -0.7780  1.5243
  900SOL    HW213015   5.306   1.184   6.956  1.1224 -1.0819 -0.1594
  901SOL     OW13016   1.001   8.687   2.275  0.3924  0.0388  0.0501
  901SOL    HW113017   1.077   8.641   2.237 -0.1803 -1.5033  0.7002
  901SOL    HW213018   0.933   8.620   2.281 -0.4892  0.9879  1.0370
  902SOL     OW13019  12.579   7.824   5.333 -0.6309 -0.2897 -0.0531
  902SOL    HW113020  12.597   7.738   5.297  0.1089 -0.6045  0.9936
  902SOL    HW213021  12.511   7.861   5.277 -1.1123 -1.6380 -0.3811
  903SOL     OW13022   7.115   8.169  10.310  0.2961 -0.8133  0.3987
  903SOL    HW113023   7.054   8.224  10.262  0.9932 -2.5034 -2.6819
  903SOL    HW213024   7.070   8.085  10.320  0.9550 -1.1255  0.8495
  904SOL     OW13025   3.505   7.863  12.039  0.7009 -0.5096 -0.1094
  904SOL    HW113026   3.417   7.847  12.004  1.1559 -2.1651 -0.5954
  904SOL    HW213027   3.489   7.904  12.124 -0.5426 -0.5744 -0.2816
  905SOL     OW13028   9.736   8.691   5.526 -0.2333 -0.0362  0.1951
  905SOL    HW113029   9.711   8.645   5.445 -0.4795 -0.7114  0.6510
  905SOL    HW213030   9.666   8.754   5.539  0.3133  0.7761 -0.6581
  906SOL     OW13031   6.125   9.897  10.682  0.6983 -0.1650  0.3601
  906SOL    HW113032   6.202   9.849  10.713  0.8186  1.6018  3.1959
  906SOL    HW213033   6.076   9.834  10.630  2.3477 -2.3877  1.3485
  907SOL     OW13034   8.725   0.862   3.445 -0.5725  0.4079 -0.1059
  907SOL    HW113035   8.775   0.928   3.494  1.6719  0.4932 -2.3053
  907SOL    HW213036   8.651   0.910   3.408  0.5322  1.5570 -0.9255
  908SOL     OW13037   5.930   2.282   5.217  0.0496 -0.0588  0.0300
  908SOL    HW113038   5.999   2.291   5.283  1.1492 -2.6078 -0.6371
  908SOL    HW213039   5.954   2.345   5.149  1.4829 -0.5542  0.0345
  909SOL     OW13040   6.774   0.080   9.311 -0.3684  0.6185  0.3439
  909SOL    HW113041   6.849   0.033   9.347  0.7906  2.6327  0.7077
  909SOL    HW213042   6.724   0.108   9.388 -0.6591  0.6125  0.1593
  910SOL     OW13043   3.914  11.263   2.615  0.0605  0.2856  0.0926
  910SOL    HW113044   3.919  11.275   2.710 -0.8193 -0.4521  0.2437
  910SOL    HW213045   3.875  11.345   2.583 -0.5081  0.1676  0.4699
  911SOL     OW13046   8.523  11.415   2.709  0.0400  0.2660  0.0107
  911SOL    HW113047   8.598  11.371   2.670  0.4277 -1.3075  2.3251
  911SOL    HW213048   8.516  11.497   2.661  2.8376  0.1808 -0.7198
  912SOL     OW13049  12.676   6.522   9.746  0.2315 -0.1470  0.5334
  912SOL    HW113050  12.645   6.523   9.837  0.7505 -1.0155  0.7402
  912SOL    HW213051  12.674   6.429   9.722  0.1128  0.0766 -0.3402
  913SOL     OW13052   6.701   6.471   4.186 -0.1840 -0.8395 -0.1814
  913SOL    HW113053   6.646   6.458   4.108  1.0816 -1.9627 -0.9192
  913SOL    HW213054   6.753   6.549   4.166 -1.9915  0.7245  0.8540
  914SOL     OW13055  10.730  10.010   5.808  0.1489 -0.0554 -0.6214
  914SOL    HW113056  10.790   9.937   5.792 -0.6002 -0.3392 -2.3988
  914SOL    HW213057  10.786  10.087   5.809  0.5051 -0.1413 -3.7453
  915SOL     OW13058   3.794   7.061   6.119  0.3362 -0.3924  0.4206
  915SOL    HW113059   3.760   7.125   6.182  1.2091 -0.9505  1.4919
  915SOL    HW213060   3.887   7.053   6.141  0.2078 -2.1735  0.4434
  916SOL     OW13061  12.328   3.263  11.390 -0.8191 -0.3793 -0.5570
  916SOL    HW113062  12.332   3.284  11.483  0.6596 -1.0008 -0.4618
  916SOL    HW213063  12.341   3.348  11.346 -1.2045 -0.1376 -0.2142
  917SOL     OW13064   5.925   4.100   4.023  0.4494  0.2812 -0.7302
  917SOL    HW113065   5.921   4.113   3.928 -0.9233  0.7496 -0.6272
  917SOL    HW213066   6.016   4.075   4.040  0.4771 -0.7752 -2.2830
  918SOL     OW13067   4.629   1.453   2.238 -0.1612  0.0328 -0.2520
  918SOL    HW113068   4.564   1.386   2.216  0.2387 -0.5249  0.2262
  918SOL    HW213069   4.647   1.497   2.156 -0.2447 -0.6165 -0.6236
  919SOL     OW13070  12.225   1.081   6.041  0.0625 -0.5682 -0.4734
  919SOL    HW113071  12.195   1.030   6.116 -1.1270  1.1243  0.2633
  919SOL    HW213072  12.304   1.125   6.073  0.8462 -1.5648 -0.9739
  920SOL     OW13073   1.181   7.410   9.800 -0.2344  0.1486 -0.0701
  920SOL    HW113074   1.226   7.329   9.822 -0.6688  0.1452  0.8396
  920SOL    HW213075   1.093   7.399   9.835 -1.5863 -0.5870 -3.3584
  921SOL     OW13076   0.816  10.690   6.935 -0.1209  0.3267  0.2591
  921SOL    HW113077   0.817  10.621   6.868 -0.4525  0.2358  0.3441
  921SOL    HW213078   0.890  10.670   6.991  0.8233  1.0161 -0.6955
  922SOL     OW13079   7.212   1.534  12.189 -0.4873 -0.6715 -0.2163
  922SOL    HW113080   7.255   1.497  12.266 -0.5322 -0.6895 -0.1994
  922SOL    HW213081   7.146   1.593  12.225  1.1723  1.3106 -0.2505
  923SOL     OW13082   7.022   1.733   5.446 -0.0720  0.5450 -0.5374
  923SOL    HW113083   7.100   1.738   5.500 -0.5925  0.1986  0.2659
  923SOL    HW213084   6.971   1.811   5.470 -0.8245 -0.1956  0.3051
  924SOL     OW13085   0.473   7.482   9.099 -0.2681 -0.3827 -0.2590
  924SOL    HW113086   0.517   7.408   9.056 -0.3457 -0.2684 -0.5348
  924SOL    HW213087   0.391   7.444   9.133  0.7741 -1.0064  1.7291
  925SOL     OW13088  11.090  11.114   5.692 -0.2442 -0.2871 -0.2807
  925SOL    HW113089  11.163  11.060   5.660  1.0885  1.2147  0.0647
  925SOL    HW213090  11.113  11.203   5.664 -3.0319  0.0077 -2.0365
  926SOL     OW13091   7.762   9.741   4.148 -0.4758  0.0924 -0.4925
  926SOL    HW113092   7.687   9.730   4.206  0.2645 -1.3799  0.2461
  926SOL    HW213093   7.798   9.653   4.139  2.8492  1.0756  1.4943
  927SOL     OW13094   9.304   8.872  11.802 -0.2167  0.5292 -0.1358
  927SOL    HW113095   9.373   8.862  11.867  0.3772  1.6292 -0.5623
  927SOL    HW213096   9.347   8.852  11.718 -0.7455 -0.0175 -0.2860
  928SOL     OW13097   6.396   1.813  11.063 -0.1779  0.1142 -0.1913
  928SOL    HW113098   6.420   1.829  11.155 -0.1181  1.5810 -0.4267
  928SOL    HW213099   6.382   1.719  11.058  0.6977 -0.1237  1.1155
  929SOL     OW13100   7.776   5.355   5.574 -0.5991 -0.3131 -0.7912
  929SOL    HW113101   7.738   5.292   5.636 -0.3722 -0.6477 -0.9894
  929SOL    HW213102   7.710   5.363   5.505 -1.1702  0.6139 -0.1473
  930SOL     OW13103   3.971   8.198   2.558 -0.2107 -0.3358 -0.2081
  930SOL    HW113104   3.887   8.243   2.551  0.0431  0.1131 -0.4895
  930SOL    HW213105   3.980   8.151   2.475  0.4736  0.8179 -0.8208
  931SOL     OW13106   9.608   9.159   6.563  0.1311 -0.1253  0.0515
  931SOL    HW113107   9.557   9.088   6.524  1.2207 -1.6871  1.3083
  931SOL    HW213108   9.685   9.167   6.507  0.8715 -1.2035  0.8725
  932SOL     OW13109   2.838   0.134  11.879  0.4124  0.5677  0.2081
  932SOL    HW113110   2.785   0.212  11.864  1.0630  1.1566  0.8806
  932SOL    HW213111   2.849   0.129  11.974 -2.8364 -2.5638  0.6298
  933SOL     OW13112   3.650   4.940   1.343 -0.1878 -0.0484 -0.0572
  933SOL    HW113113   3.685   4.858   1.308  0.8960 -0.2456  1.3820
  933SOL    HW213114   3.728   4.992   1.362 -0.8146  0.7064  0.4717
  934SOL     OW13115   3.395   6.980   1.050 -0.2244  0.3799 -0.4235
  934SOL    HW113116   3.462   6.916   1.025  1.5598  2.3720 -1.0530
  934SOL    HW213117   3.326   6.928   1.091  0.3823 -2.1168 -2.3346
  935SOL     OW13118   6.341   3.614   3.739 -0.4776  0.3064 -0.3444
  935SOL    HW113119   6.374   3.537   3.693 -0.2537 -1.5543  2.6150
  935SOL    HW213120   6.416   3.674   3.743  0.5971 -1.0397  0.6094
  936SOL     OW13121   1.524   4.509   2.468  0.2549 -0.4839  0.0793
  936SOL    HW113122   1.458   4.476   2.529  1.3574  0.1751  1.7017
  936SOL    HW213123   1.588   4.438   2.461  0.0897 -0.5880 -0.3774
  937SOL     OW13124   3.365   4.131   1.513  0.1509  0.6842  0.0550
  937SOL    HW113125   3.298   4.073   1.550  0.6864 -0.0884 -0.1697
  937SOL    HW213126   3.360   4.210   1.567 -0.0455  0.1188  0.8837
  938SOL     OW13127   5.279   7.278   0.665  0.4671  0.5486  0.3084
  938SOL    HW113128   5.202   7.330   0.687 -0.3019 -0.8508  1.0032
  938SOL    HW213129   5.282   7.279   0.569 -1.4278 -0.7831  0.1845
  939SOL     OW13130   2.285  10.036   8.705 -0.7046  0.6370 -0.3313
  939SOL    HW113131   2.238  10.040   8.622  1.1256 -2.0514 -1.6060
  939SOL    HW213132   2.377  10.048   8.682 -0.1804  0.1218  1.3344
  940SOL     OW13133  10.541   3.120   1.754  0.1932  0.3133 -0.4473
  940SOL    HW113134  10.557   3.196   1.699  0.3104  0.3072 -0.4207
  940SOL    HW213135  10.619   3.066   1.745  0.1072  0.1923 -0.4720
  941SOL     OW13136   9.874   5.055   6.896  0.4425 -0.6169 -0.4375
  941SOL    HW113137   9.896   5.060   6.803  0.6732 -0.3309 -0.3690
  941SOL    HW213138   9.827   4.972   6.905 -1.9859  0.5770 -1.3035
  942SOL     OW13139   0.204   6.531   2.635  0.6712 -0.0643  0.4021
  942SOL    HW113140   0.155   6.494   2.708 -0.8271  1.8903  0.4670
  942SOL    HW213141   0.262   6.596   2.675  0.4349  0.4341 -0.0383
  943SOL     OW13142  11.294   3.969   3.580  0.0794 -0.3392 -0.1673
  943SOL    HW113143  11.375   3.998   3.622 -0.5130  1.8105 -0.4086
  943SOL    HW213144  11.236   3.948   3.653  0.8925 -2.1951  0.0109
  944SOL     OW13145   7.749  10.712   2.348  0.0206 -0.6823 -0.3034
  944SOL    HW113146   7.811  10.732   2.418  2.5703  0.1334 -2.6114
  944SOL    HW213147   7.674  10.673   2.393  1.3989 -0.0202  2.8562
  945SOL     OW13148   3.777   6.202   4.862 -0.2240  0.2047  0.4543
  945SOL    HW113149   3.719   6.193   4.787  1.5000  0.9261 -1.0585
  945SOL    HW213150   3.726   6.251   4.927 -1.3879  0.5726 -0.7068
  946SOL     OW13151   1.509  11.378  10.548 -0.1756  0.0772 -0.5390
  946SOL    HW113152   1.552  11.455  10.586  0.0435  0.0742 -0.7740
  946SOL    HW213153   1.568  11.351  10.477  0.6964 -1.3951  0.6890
  947SOL     OW13154  11.722  11.086  12.133 -0.1964 -0.7090 -0.0308
  947SOL    HW113155  11.637  11.064  12.096  0.3483 -1.6253 -0.7715
  947SOL    HW213156  11.733  11.180  12.114 -0.7110 -0.7588 -0.5801
  948SOL     OW13157   4.856  11.572   1.811 -0.8198  1.3192 -0.0514
  948SOL    HW113158   4.858  11.547   1.903 -2.1092 -0.2394 -0.4105
  948SOL    HW213159   4.772  11.539   1.779  0.5456 -0.1734 -2.3239
  949SOL     OW13160   5.558   8.557   1.468  0.0833  0.0801  0.3587
  949SOL    HW113161   5.472   8.518   1.454 -0.3802  1.1845  0.0377
  949SOL    HW213162   5.595   8.566   1.380  0.3505 -0.0108  0.4620
  950SOL     OW13163   9.004   1.115   0.108 -0.0746 -0.1549  0.0099
  950SOL    HW113164   8.959   1.097   0.191  0.4048 -0.6843  0.1634
  950SOL    HW213165   9.036   1.205   0.118  0.1612 -0.2863  0.4929
  951SOL     OW13166   5.825   6.863   9.595  0.1478  0.2406 -0.5484
  951SOL    HW113167   5.843   6.945   9.641  0.2629 -1.1923  2.1723
  951SOL    HW213168   5.833   6.795   9.663 -0.3566 -1.9934 -2.5871
  952SOL     OW13169   1.714   9.401   1.076  0.0081  0.2175  0.2350
  952SOL    HW113170   1.777   9.329   1.083  0.5923  0.6887 -0.0771
  952SOL    HW213171   1.659   9.377   1.001 -1.6036 -1.2601  1.7914
  953SOL     OW13172  11.655  10.471   7.954  0.6251 -0.0974  0.1489
  953SOL    HW113173  11.657  10.511   8.041  1.0106  1.9121 -0.7142
  953SOL    HW213174  11.743  10.435   7.941  0.7001 -0.0061  0.4173
  954SOL     OW13175   9.077   1.834   7.389 -0.6787  0.1464 -0.5148
  954SOL    HW113176   8.994   1.863   7.351 -0.0777 -0.6942 -2.6524
  954SOL    HW213177   9.054   1.792   7.471 -2.2265  0.9339 -0.5223
  955SOL     OW13178   6.878  12.028   1.763  0.4498  0.0390  1.0234
  955SOL    HW113179   6.970  12.046   1.780  1.0048 -3.4915  2.4595
  955SOL    HW213180   6.847  11.984   1.841 -2.8674  2.0530  1.0306
  956SOL     OW13181   4.481  12.734  12.910 -0.1779  0.1874  0.0031
  956SOL    HW113182   4.519  12.788  12.979  0.3666 -0.4970  0.2565
  956SOL    HW213183   4.399  12.703  12.947  0.1965 -0.3244  0.4295
  957SOL     OW13184   6.813   6.418   8.709  0.2825  0.4510 -0.3606
  957SOL    HW113185   6.889   6.363   8.690  0.2034  0.1220  0.2572
  957SOL    HW213186   6.822   6.441   8.801  0.2567  1.3936 -0.5778
  958SOL     OW13187  12.281   1.366  11.299  0.0461  0.0822  0.0733
  958SOL    HW113188  12.342   1.349  11.227 -1.4753 -0.2516 -1.1889
  958SOL    HW213189  12.335   1.359  11.378  1.8536  0.8446 -1.0279
  959SOL     OW13190  10.508  10.407  11.785  0.1614 -0.0010 -0.0454
  959SOL    HW113191  10.423  10.405  11.827 -0.6495 -0.3542 -1.6229
  959SOL    HW213192  10.499  10.349  11.709  1.0584  1.7568 -1.5925
  960SOL     OW13193  10.520  12.766  11.819 -0.3622  0.7298  0.0649
  960SOL    HW113194  10.558  12.689  11.777 -1.4344  0.2428 -0.0442
  960SOL    HW213195  10.591  12.801  11.874  0.3647  0.1076 -0.4597
  961SOL     OW13196   8.472   6.441   8.184 -0.1083  0.0573  0.2912
  961SOL    HW113197   8.399   6.422   8.244  0.1075 -0.1402  0.4931
  961SOL    HW213198   8.533   6.493   8.237 -0.9121  1.7762 -0.3833
  962SOL     OW13199   9.019  10.846  12.228  0.2493  0.7050  0.5601
  962SOL    HW113200   8.968  10.923  12.255  1.2882  0.9407  1.9670
  962SOL    HW213201   9.085  10.879  12.168 -0.5643  0.5650 -0.4363
  963SOL     OW13202  10.859  12.631  12.892  0.1805 -0.2831  0.7429
  963SOL    HW113203  10.815  12.561  12.843 -1.3926 -0.1496  1.8733
  963SOL    HW213204  10.952  12.615  12.878 -0.1803 -1.3270 -0.7656
  964SOL     OW13205   5.839   7.048  10.291 -0.2077  0.2579 -0.0645
  964SOL    HW113206   5.867   7.057  10.382  1.8034 -1.0908 -0.4701
  964SOL    HW213207   5.913   7.081  10.240 -1.2218  0.8069 -1.2436
  965SOL     OW13208   5.190   0.837   5.611 -0.2044  0.1760 -0.0849
  965SOL    HW113209   5.239   0.855   5.692 -0.0292 -0.6237 -0.0107
  965SOL    HW213210   5.229   0.757   5.576  0.9684  1.4561 -1.9417
  966SOL     OW13211   9.012   4.890   2.087  0.2727  0.1189  0.4464
  966SOL    HW113212   9.017   4.979   2.050  1.3163  0.5291  1.5038
  966SOL    HW213213   8.922   4.882   2.118  0.3092  1.0212  0.8183
  967SOL     OW13214   1.203   7.786   6.040  0.1577  0.6294  0.7837
  967SOL    HW113215   1.214   7.869   6.086  2.3026  0.5593  0.4848
  967SOL    HW213216   1.283   7.737   6.058  1.2724  0.6720 -3.0534
  968SOL     OW13217   8.293   3.584   8.104 -0.1071 -0.2347 -0.1710
  968SOL    HW113218   8.296   3.650   8.035 -0.5645 -1.0415 -0.9962
  968SOL    HW213219   8.228   3.521   8.073 -1.0925 -0.0889  1.4893
  969SOL     OW13220  11.956   1.746  11.744 -0.6724  0.3423 -0.4764
  969SOL    HW113221  12.008   1.742  11.824  0.0226  1.6827 -0.8324
  969SOL    HW213222  11.931   1.655  11.727  1.5695 -0.3748 -0.3069
  970SOL     OW13223   1.656   8.102   6.177  1.1258  0.0252 -0.3733
  970SOL    HW113224   1.713   8.129   6.105  1.3064  0.3918 -0.0979
  970SOL    HW213225   1.621   8.184   6.211  0.7664 -0.1716 -0.2692
  971SOL     OW13226  10.647   4.826   4.796  0.2304  0.4296  0.3259
  971SOL    HW113227  10.606   4.752   4.839 -1.2749  1.6949  1.1706
  971SOL    HW213228  10.738   4.825   4.825  0.4322 -1.4857 -0.2819
  972SOL     OW13229   9.187   6.059   6.324  0.3971  0.4263  0.4970
  972SOL    HW113230   9.192   5.991   6.256  1.0079  0.2575  0.7033
  972SOL    HW213231   9.272   6.055   6.368 -0.5425 -0.5488  2.3334
  973SOL     OW13232   8.604   1.339   6.037  0.6539  0.0795 -0.4191
  973SOL    HW113233   8.678   1.278   6.027 -0.3581 -1.3651  0.5203
  973SOL    HW213234   8.645   1.422   6.059  2.0776 -0.3120 -1.4310
  974SOL     OW13235   6.350   8.616   6.887  0.1132 -0.2661  0.3126
  974SOL    HW113236   6.282   8.677   6.917  0.2982  0.4226 -0.6460
  974SOL    HW213237   6.318   8.530   6.914  0.1586  0.2857  2.2754
  975SOL     OW13238   8.420  12.564   8.799  0.0472 -0.3310  0.1659
  975SOL    HW113239   8.431  12.473   8.827 -2.3122 -1.3222 -1.7190
  975SOL    HW213240   8.325  12.579   8.804  0.3978  2.1724  0.7042
  976SOL     OW13241   3.313  12.325   9.283 -0.8625 -0.1186  0.1036
  976SOL    HW113242   3.272  12.407   9.254  0.2245 -0.0145 -1.2400
  976SOL    HW213243   3.269  12.304   9.365  0.3982  3.0476  1.7515
  977SOL     OW13244  12.558   3.847  12.224 -0.3576  0.0035  0.3403
  977SOL    HW113245  12.631   3.854  12.286  0.3140 -0.5071 -0.3634
  977SOL    HW213246  12.532   3.937  12.208 -0.1078  0.1747  0.8655
  978SOL     OW13247   4.890   8.872  10.698  0.2253  0.9636 -0.6624
  978SOL    HW113248   4.844   8.799  10.739  1.2964  1.0373  0.7204
  978SOL    HW213249   4.931   8.833  10.620 -0.0279  0.3260 -0.4867
  979SOL     OW13250  12.361   3.044   5.722  0.1743  0.1183 -0.6075
  979SOL    HW113251  12.317   2.980   5.778  1.8909 -1.1677 -0.6505
  979SOL    HW213252  12.356   3.007   5.634 -0.0110  0.7294 -0.8584
  980SOL     OW13253   0.074   8.606  12.253 -0.0831  0.8971  0.0538
  980SOL    HW113254   0.087   8.564  12.338 -0.4459 -0.4994 -0.5563
  980SOL    HW213255   0.089   8.699  12.270  0.3734  0.5814  1.5277
  981SOL     OW13256   4.902  11.850   1.529 -0.1798  0.2669 -0.5892
  981SOL    HW113257   4.956  11.786   1.483  1.0949  1.2928 -0.5960
  981SOL    HW213258   4.814  11.838   1.493  0.2459 -0.7750 -1.3250
  982SOL     OW13259   2.007  11.453   4.016  0.0007 -0.1088 -0.3605
  982SOL    HW113260   1.998  11.513   4.090 -0.2593 -0.1939 -0.3232
  982SOL    HW213261   1.953  11.491   3.947  0.3056  0.0122 -0.5382
  983SOL     OW13262   8.931   8.610   8.232 -0.3455  0.1972  0.0644
  983SOL    HW113263   8.878   8.687   8.251  0.0455  0.3545  0.5374
  983SOL    HW213264   8.962   8.623   8.143 -0.3102  0.5720  0.1322
  984SOL     OW13265  11.225   6.572   8.786  0.0776 -0.4482 -0.1164
  984SOL    HW113266  11.208   6.570   8.880  1.0313 -0.4075  0.0674
  984SOL    HW213267  11.240   6.664   8.766 -0.2935 -0.4359 -0.3382
  985SOL     OW13268   3.626   2.006   8.820  0.3836 -0.6572 -0.2617
  985SOL    HW113269   3.588   1.955   8.892  0.8111  0.3327  0.6995
  985SOL    HW213270   3.711   1.966   8.804  0.0588 -1.2269 -0.6124
  986SOL     OW13271   1.103   5.590   3.165  0.1419 -0.6713 -0.1552
  986SOL    HW113272   1.038   5.530   3.128 -1.2151 -0.3604  1.5982
  986SOL    HW213273   1.061   5.626   3.242  1.3766  1.6620 -0.4909
  987SOL     OW13274   4.916   5.094   1.064  0.7889  0.9391  0.1415
  987SOL    HW113275   4.934   5.004   1.039 -1.6060  0.1228  1.1242
  987SOL    HW213276   4.865   5.130   0.991  0.4102  0.9974  0.4309
  988SOL     OW13277  12.456   0.276   4.244  0.0403 -0.5450  0.1380
  988SOL    HW113278  12.398   0.217   4.195 -0.0512 -1.0839  0.8900
  988SOL    HW213279  12.485   0.225   4.319  1.8217 -0.4238 -0.4253
  989SOL     OW13280   3.668   2.300   4.114  0.1350 -0.5446 -0.2601
  989SOL    HW113281   3.718   2.238   4.166 -0.5493 -1.1613 -0.3268
  989SOL    HW213282   3.733   2.364   4.085  0.5021 -0.0865  1.4648
  990SOL     OW13283   4.267  11.959   2.597  0.6270 -0.6183 -0.0330
  990SOL    HW113284   4.253  11.871   2.564  0.2612 -0.7926  0.5643
  990SOL    HW213285   4.267  12.014   2.519  0.1557 -1.0629 -0.3572
  991SOL     OW13286   5.809  10.627  10.639 -0.2499 -0.1946 -0.0237
  991SOL    HW113287   5.722  10.591  10.656 -1.4499  2.0092 -1.0366
  991SOL    HW213288   5.833  10.671  10.720  0.1140 -1.0964  0.3744
  992SOL     OW13289  12.386   0.708   2.350 -0.4209  0.2853 -0.4676
  992SOL    HW113290  12.352   0.649   2.418 -0.6063  0.1704 -0.6596
  992SOL    HW213291  12.481   0.690   2.349 -0.3238  0.7215  0.1780
  993SOL     OW13292   0.737   5.837  12.247  0.0648 -0.3113  0.8720
  993SOL    HW113293   0.816   5.816  12.198  0.3562  1.5210  0.4737
  993SOL    HW213294   0.666   5.797  12.197  0.4571  0.6731 -0.5383
  994SOL     OW13295   3.573  11.720  12.524 -0.1438  0.1036  0.3053
  994SOL    HW113296   3.660  11.733  12.560 -0.3873  1.1634  0.5444
  994SOL    HW213297   3.558  11.797  12.469 -0.7463 -0.2908 -0.0919
  995SOL     OW13298   5.925  11.093   8.572  0.9114 -0.3405 -0.1061
  995SOL    HW113299   5.862  11.136   8.514 -1.8940  0.1447  2.9788
  995SOL    HW213300   5.922  11.000   8.547 -0.5496 -0.2088 -0.5081
  996SOL     OW13301   2.303   3.535   1.774 -0.3734  0.0163 -0.6109
  996SOL    HW113302   2.369   3.590   1.732  1.9624 -0.8209  1.6932
  996SOL    HW213303   2.270   3.588   1.846  1.7234 -1.3043  1.4792
  997SOL     OW13304   6.287   0.298  11.810 -0.9722 -0.2164 -0.9842
  997SOL    HW113305   6.314   0.217  11.767  0.8417 -0.0077 -0.3455
  997SOL    HW213306   6.249   0.270  11.893 -1.6309 -0.4617 -1.3602
  998SOL     OW13307   2.934  10.341  11.387  0.1350  0.0780 -0.5217
  998SOL    HW113308   2.958  10.351  11.479 -1.5161  1.5486 -0.1864
  998SOL    HW213309   3.017  10.341  11.339  1.0745 -1.6721  1.0040
  999SOL     OW13310   2.091   6.603  11.925  0.1043 -0.7131 -0.2312
  999SOL    HW113311   2.049   6.544  11.863 -0.1254  0.2328 -0.9950
  999SOL    HW213312   2.025   6.620  11.991 -0.0727 -0.7358 -0.4022
 1000SOL     OW13313   3.756   9.988   3.485 -0.0510  0.4259 -0.2447
 1000SOL    HW113314   3.758   9.902   3.442  1.1223  0.9204 -1.2191
 1000SOL    HW213315   3.744   9.967   3.578  0.0630 -0.7877 -0.4768
 1001SOL     OW13316   2.322   6.092   2.584  0.0295  0.2209  0.0635
 1001SOL    HW113317   2.417   6.085   2.579  0.1556  2.1312 -2.9812
 1001SOL    HW213318   2.291   6.002   2.591  2.0417 -0.6240 -1.0646
 1002SOL     OW13319   7.418   3.670   4.002  0.2487  0.1088  0.0827
 1002SOL    HW113320   7.341   3.727   4.002 -0.6724 -1.0314  2.1423
 1002SOL    HW213321   7.383   3.582   4.015  1.9080 -0.3686  1.7923
 1003SOL     OW13322  11.126   8.580   5.044  0.5207 -0.4212 -0.3843
 1003SOL    HW113323  11.212   8.586   5.084  0.8680 -0.0763 -1.1632
 1003SOL    HW213324  11.071   8.539   5.111  1.3601 -0.9490 -0.0052
 1004SOL     OW13325  10.334   4.021   6.478  0.1324 -0.4470  0.2170
 1004SOL    HW113326  10.297   4.098   6.521 -0.5114 -0.2299 -0.7005
 1004SOL    HW213327  10.420   4.049   6.448  0.3817 -0.4508  0.9209
 1005SOL     OW13328  10.991   9.180   8.323 -0.0368  0.1335  1.1989
 1005SOL    HW113329  10.919   9.160   8.384 -2.0104  0.3813 -0.9125
 1005SOL    HW213330  10.955   9.246   8.264  1.8393  0.0299 -0.1468
 1006SOL     OW13331   7.953   6.414   1.856  0.0726 -0.1835 -0.6672
 1006SOL    HW113332   8.028   6.454   1.811 -0.3730 -0.7762 -1.9927
 1006SOL    HW213333   7.915   6.485   1.908  2.6059 -0.2914  1.5282
 1007SOL     OW13334   1.195  11.437   0.469 -0.6071 -0.0350 -0.0336
 1007SOL    HW113335   1.203  11.400   0.381  0.1039 -0.8678  0.3663
 1007SOL    HW213336   1.120  11.392   0.508  0.4140 -1.2881  0.5435
 1008SOL     OW13337   8.083  10.381   5.433 -0.2809 -0.2229  0.6949
 1008SOL    HW113338   8.094  10.448   5.366 -1.2041 -1.2101 -0.4820
 1008SOL    HW213339   8.173  10.355   5.454  0.0948 -2.2230 -2.6341
 1009SOL     OW13340   9.822  12.655  11.784 -0.1420  0.7360 -0.3971
 1009SOL    HW113341   9.793  12.717  11.851  1.5116 -0.1512  1.2379
 1009SOL    HW213342   9.783  12.688  11.703 -1.1246  2.6273  0.7582
 1010SOL     OW13343   0.204   3.491   3.867  0.2342 -0.0299 -0.4123
 1010SOL    HW113344   0.233   3.579   3.845  0.8283 -0.5498 -1.8913
 1010SOL    HW213345   0.232   3.477   3.957  0.3839  1.1749 -0.2574
 1011SOL     OW13346   0.015  11.682   5.314  0.3319  0.2041  0.4907
 1011SOL    HW113347   0.004  11.605   5.259  4.0300  1.2252 -2.0710
 1011SOL    HW213348  -0.032  11.752   5.269 -1.4084 -0.0709  1.7916
 1012SOL     OW13349   7.665  10.036   1.828 -0.0932 -0.3378 -0.8465
 1012SOL    HW113350   7.717  10.034   1.908  1.0085 -2.9368 -1.5268
 1012SOL    HW213351   7.705  10.105   1.775  1.0643 -0.5723 -0.3164
 1013SOL     OW13352   0.354   4.457   9.089  0.5311 -0.3092 -0.2262
 1013SOL    HW113353   0.410   4.383   9.114 -2.0951 -1.4652  3.0419
 1013SOL    HW213354   0.322   4.491   9.173 -0.8196  2.5669 -1.7852
 1014SOL     OW13355  12.434   7.691   3.585  0.1743  0.6233  0.5194
 1014SOL    HW113356  12.516   7.715   3.629 -0.9607  1.1288  2.4989
 1014SOL    HW213357  12.381   7.651   3.654 -2.0257  2.1909 -0.1365
 1015SOL     OW13358   6.625   1.076   1.172 -1.0843 -0.1426 -0.0491
 1015SOL    HW113359   6.712   1.061   1.134 -0.7566  2.3554 -0.4588
 1015SOL    HW213360   6.644   1.109   1.260 -1.4987  2.0795 -0.7469
 1016SOL     OW13361   3.598   9.957  12.717  0.0455 -0.4658 -0.2004
 1016SOL    HW113362   3.589   9.863  12.736  1.3347 -0.6107 -0.2084
 1016SOL    HW213363   3.509   9.991  12.721 -0.3640 -1.5597  0.5137
 1017SOL     OW13364   1.439   7.017   3.067  0.0134  0.0413 -0.4718
 1017SOL    HW113365   1.427   7.038   3.159 -0.9991  0.8050 -0.7631
 1017SOL    HW213366   1.465   7.099   3.026 -1.8237  0.3027 -1.2375
 1018SOL     OW13367   1.909   2.351   3.325 -0.0126 -0.0716  0.2717
 1018SOL    HW113368   1.979   2.392   3.377  0.4896  0.7720 -1.0188
 1018SOL    HW213369   1.955   2.293   3.264 -0.5912 -0.9925  0.6853
 1019SOL     OW13370   3.133  11.184  11.437  0.0123 -0.0649  0.0030
 1019SOL    HW113371   3.131  11.262  11.492  1.3284  1.6179 -2.1655
 1019SOL    HW213372   3.085  11.209  11.358  1.1788 -1.1562 -1.0979
 1020SOL     OW13373   8.118   9.984   0.168  0.2168 -0.0879 -0.1971
 1020SOL    HW113374   8.135  10.077   0.184  1.5743 -0.5677  1.5117
 1020SOL    HW213375   8.154   9.968   0.081 -0.9124  1.1762 -0.9283
 1021SOL     OW13376  12.694  10.417  10.501  0.3265  0.0694  0.2428
 1021SOL    HW113377  12.773  10.445  10.548 -1.0810  1.4619  1.9394
 1021SOL    HW213378  12.653  10.499  10.472  0.3672 -0.6899 -2.2120
 1022SOL     OW13379  10.604   8.279   5.741 -0.0342 -0.1052  0.1704
 1022SOL    HW113380  10.653   8.305   5.819  0.2118  0.7032 -0.2371
 1022SOL    HW213381  10.517   8.256   5.774  0.6037 -1.6044  0.9020
 1023SOL     OW13382   6.611  11.930  11.668 -0.2897 -0.2399 -0.1686
 1023SOL    HW113383   6.519  11.940  11.646 -1.1140 -0.4629  2.7100
 1023SOL    HW213384   6.625  11.836  11.671 -0.9081 -0.3211  2.4411
 1024SOL     OW13385   2.320   8.974  12.023 -0.4967 -0.1381 -0.2355
 1024SOL    HW113386   2.338   8.900  12.081  0.2109 -0.0363 -0.3115
 1024SOL    HW213387   2.398   9.029  12.030  0.7604 -1.3633 -3.1792
 1025SOL     OW13388   2.067   8.896  12.673  0.2174  0.0565  0.0908
 1025SOL    HW113389   2.102   8.979  12.640 -0.7139  0.6790  0.6180
 1025SOL    HW213390   2.123   8.875  12.748  1.5916 -0.7502 -1.1062
 1026SOL     OW13391   9.111   6.461  12.612 -0.1225 -0.1783 -0.1015
 1026SOL    HW113392   9.061   6.438  12.690  1.4201 -0.8286  0.7550
 1026SOL    HW213393   9.164   6.536  12.639 -0.2170  0.1503 -0.8114
 1027SOL     OW13394   3.973   8.483  12.293  0.4198 -0.1182 -0.3888
 1027SOL    HW113395   4.043   8.417  12.297 -0.1120 -0.6167  2.2132
 1027SOL    HW213396   3.893   8.432  12.304 -0.1222  0.7967 -0.0701
 1028SOL     OW13397   0.080  11.598  10.869  0.0221 -0.0887 -0.4407
 1028SOL    HW113398   0.083  11.615  10.963  4.9033 -1.6992  0.0186
 1028SOL    HW213399   0.126  11.673  10.830  0.8585 -0.9387 -1.1265
 1029SOL     OW13400   3.795   0.793   1.642 -0.3973 -0.0846  0.4669
 1029SOL    HW113401   3.789   0.853   1.716 -1.6568 -0.1434  0.4319
 1029SOL    HW213402   3.795   0.850   1.565  1.1398 -0.0109  0.4921
 1030SOL     OW13403   7.040   7.292   3.160  0.5692 -0.2176  0.1027
 1030SOL    HW113404   7.127   7.297   3.199  0.3960 -2.2364  0.8702
 1030SOL    HW213405   7.001   7.214   3.199 -0.8213 -0.5151 -1.7705
 1031SOL     OW13406  12.115   9.116   2.399  0.4683 -0.0150  0.7879
 1031SOL    HW113407  12.199   9.106   2.355  0.4345  0.6163  0.5695
 1031SOL    HW213408  12.134   9.170   2.476  0.0421  1.1972  0.0495
 1032SOL     OW13409   3.873   0.522  12.020 -0.6408  0.4522 -0.0990
 1032SOL    HW113410   3.949   0.470  12.048 -0.4772  0.5430 -0.3655
 1032SOL    HW213411   3.813   0.457  11.982  0.5309  0.6757 -2.5457
 1033SOL     OW13412   5.142   5.857   3.822 -0.3014  0.5269  0.2456
 1033SOL    HW113413   5.200   5.929   3.798 -1.2755  0.7328 -1.7302
 1033SOL    HW213414   5.146   5.797   3.747  0.9093 -1.8221  2.0388
 1034SOL     OW13415   2.972   0.162   8.486 -0.0671  0.0219  0.0640
 1034SOL    HW113416   2.880   0.138   8.477  0.0823 -0.2771 -0.7500
 1034SOL    HW213417   2.986   0.166   8.581 -1.0227  0.5238  0.2001
 1035SOL     OW13418   0.771   7.696  10.717  0.0746 -0.4290 -0.1495
 1035SOL    HW113419   0.752   7.623  10.657  0.9423 -0.0012 -0.9673
 1035SOL    HW213420   0.859   7.678  10.749  1.6252  1.7701 -2.7385
 1036SOL     OW13421  12.553   6.329   3.302  0.5867  0.6020 -0.2261
 1036SOL    HW113422  12.492   6.401   3.289 -1.7315 -1.2177 -0.2727
 1036SOL    HW213423  12.604   6.326   3.221 -1.5234  0.2700 -1.6341
 1037SOL     OW13424   5.285   7.146  11.276 -0.4979 -0.0177 -0.2162
 1037SOL    HW113425   5.370   7.180  11.302 -0.7557  1.2999 -0.9635
 1037SOL    HW213426   5.301   7.103  11.192 -1.0297  3.0719 -2.0599
 1038SOL     OW13427   0.338   0.618   7.381 -0.4009 -0.0892  0.2434
 1038SOL    HW113428   0.374   0.673   7.312 -1.8756  1.9748  0.9958
 1038SOL    HW213429   0.248   0.600   7.353 -0.3393 -1.0476  0.6283
 1039SOL     OW13430   1.778  10.733   9.561 -0.0172  0.1253  0.7022
 1039SOL    HW113431   1.705  10.790   9.536  0.6998  0.7501 -0.0064
 1039SOL    HW213432   1.787  10.672   9.489  0.9100  0.8030  0.2247
 1040SOL     OW13433  10.541  12.877   6.719  0.1864 -0.8646 -0.1691
 1040SOL    HW113434  10.530  12.794   6.674  3.2695 -0.5712 -1.6562
 1040SOL    HW213435  10.500  12.942   6.662  1.8555 -0.8258 -1.3761
 1041SOL     OW13436   7.899   4.027   2.280 -0.3461  0.1802 -0.1436
 1041SOL    HW113437   7.854   4.026   2.364  1.1027  0.2398  0.6688
 1041SOL    HW213438   7.912   3.935   2.258  0.2247  0.1611  0.2473
 1042SOL     OW13439  11.888   7.522   9.238 -0.4475 -0.5571  0.2614
 1042SOL    HW113440  11.866   7.452   9.300 -1.4689 -0.8596 -0.4051
 1042SOL    HW213441  11.853   7.601   9.279 -2.2527 -0.9309 -0.4418
 1043SOL     OW13442   6.488   2.626   5.884  0.1251  0.0041  0.1643
 1043SOL    HW113443   6.413   2.684   5.901  0.7427  0.7212  0.4677
 1043SOL    HW213444   6.457   2.539   5.911 -0.3806  0.4033  0.9085
 1044SOL     OW13445   4.104  12.570   0.993 -0.5221 -0.0068 -0.1043
 1044SOL    HW113446   4.094  12.494   0.936  0.0417  0.8142 -1.3588
 1044SOL    HW213447   4.026  12.569   1.049 -0.2022 -1.8454  0.3435
 1045SOL     OW13448   8.287   3.112   5.466  0.5222  0.1040 -0.2261
 1045SOL    HW113449   8.319   3.032   5.425 -0.8698  0.7904 -2.9015
 1045SOL    HW213450   8.192   3.108   5.455  0.3282  1.6201  0.5518
 1046SOL     OW13451   4.337   4.588  10.331 -0.6378  0.0932 -0.0909
 1046SOL    HW113452   4.323   4.594  10.426 -3.2265 -0.0873 -0.3657
 1046SOL    HW213453   4.258   4.543  10.299  0.7407 -0.9491 -2.2146
 1047SOL     OW13454   9.277  10.183  11.221  1.0891 -0.0739 -0.1423
 1047SOL    HW113455   9.247  10.104  11.175  0.4091 -0.5811  1.1369
 1047SOL    HW213456   9.199  10.216  11.265  1.0388  2.0800 -1.6631
 1048SOL     OW13457   0.892   4.332   4.566  0.2057 -0.7102 -0.1111
 1048SOL    HW113458   0.953   4.274   4.613  2.2889  1.8438  0.5623
 1048SOL    HW213459   0.948   4.397   4.524 -2.0450  2.2231  1.0984
 1049SOL     OW13460   5.629  11.053   3.059 -0.9437 -0.7327  0.1685
 1049SOL    HW113461   5.613  11.094   2.974  0.3405 -2.0583 -0.7725
 1049SOL    HW213462   5.542  11.033   3.094 -1.4878 -0.4046 -0.9652
 1050SOL     OW13463   6.745  12.391  10.406  0.0576  0.7060 -0.4144
 1050SOL    HW113464   6.805  12.409  10.335  1.7883 -0.1724  0.7575
 1050SOL    HW213465   6.660  12.423  10.375  0.8781  0.9119 -2.5788
 1051SOL     OW13466   4.010   0.949  11.459  0.1077  0.3667  0.1696
 1051SOL    HW113467   3.958   0.898  11.397 -0.0347 -0.6866  1.1183
 1051SOL    HW213468   4.024   1.033  11.415  0.8208 -0.6590 -1.6961
 1052SOL     OW13469   4.817   7.456  12.779 -0.8684 -0.1693 -0.2629
 1052SOL    HW113470   4.815   7.550  12.799 -0.0914 -0.3056  0.5408
 1052SOL    HW213471   4.730   7.425  12.804 -1.7630  0.6149 -2.1708
 1053SOL     OW13472   4.370   0.556   7.433 -0.0280  0.0334  0.4304
 1053SOL    HW113473   4.290   0.601   7.461 -0.7758 -0.7020 -0.4823
 1053SOL    HW213474   4.439   0.622   7.446 -0.8995  0.9916  0.3775
 1054SOL     OW13475   2.611   9.948   8.718 -0.0642  0.6792 -0.1036
 1054SOL    HW113476   2.662  10.020   8.755  0.0995  0.3232  0.3732
 1054SOL    HW213477   2.638   9.944   8.626 -1.0657  2.0973 -0.4955
 1055SOL     OW13478   9.207   0.794   0.196 -0.0609 -0.4465 -0.3338
 1055SOL    HW113479   9.226   0.863   0.133  2.6423 -1.5068 -0.8242
 1055SOL    HW213480   9.181   0.840   0.276  2.2143  1.2226 -0.4725
 1056SOL     OW13481  11.144   8.595   4.721 -0.2328 -0.1194  0.0711
 1056SOL    HW113482  11.165   8.590   4.814 -0.6140 -1.6509  0.1033
 1056SOL    HW213483  11.136   8.504   4.693  2.0232  0.2199 -1.9786
 1057SOL     OW13484  12.510  12.244   1.521 -0.4896  0.8783 -0.0087
 1057SOL    HW113485  12.548  12.157   1.535 -0.1434  1.1607  0.8215
 1057SOL    HW213486  12.532  12.293   1.599 -0.5052  1.7872 -0.5614
 1058SOL     OW13487  10.945  10.893   3.604  0.2494 -0.0579  0.3975
 1058SOL    HW113488  10.871  10.846   3.566 -0.1631 -0.7411  1.9408
 1058SOL    HW213489  10.921  10.905   3.696  2.3471 -0.9317  1.1154
 1059SOL     OW13490   0.437   6.711   1.914  0.1275 -0.8188  0.1990
 1059SOL    HW113491   0.500   6.650   1.955 -0.6193 -0.4449  1.9959
 1059SOL    HW213492   0.382   6.741   1.987  0.4963  2.0817 -0.6012
 1060SOL     OW13493   5.151   9.248   3.926  0.1847 -0.0609  0.5038
 1060SOL    HW113494   5.137   9.301   3.848 -0.7366  0.8763  1.2695
 1060SOL    HW213495   5.088   9.281   3.990 -0.9305 -2.5904  0.8212
 1061SOL     OW13496   9.416   7.770   4.254 -0.4829  0.3049 -0.1945
 1061SOL    HW113497   9.365   7.690   4.245 -0.9209  0.7068 -1.6100
 1061SOL    HW213498   9.434   7.797   4.164  1.5982  0.5922  0.2467
 1062SOL     OW13499   1.102   7.108   5.617  0.5697  0.3584  0.0348
 1062SOL    HW113500   1.188   7.099   5.576  0.2963  2.5642 -1.1938
 1062SOL    HW213501   1.098   7.200   5.644 -1.5730  0.4388 -0.3770
 1063SOL     OW13502   9.324   2.485   7.638  0.0046  0.5758 -0.0725
 1063SOL    HW113503   9.416   2.508   7.651 -0.1357  0.4471  1.2271
 1063SOL    HW213504   9.281   2.510   7.720 -1.0417  0.2139 -0.4954
 1064SOL     OW13505  12.453   9.867   4.464 -0.1416 -0.4020 -0.0373
 1064SOL    HW113506  12.404   9.832   4.390 -0.8873 -0.2028  0.3452
 1064SOL    HW213507  12.407   9.833   4.541  0.8668 -0.9400  0.3418
 1065SOL     OW13508   0.910   0.213   8.226 -0.0461  0.3258 -0.1509
 1065SOL    HW113509   0.929   0.123   8.254  0.5812  0.3923 -0.3501
 1065SOL    HW213510   0.973   0.267   8.275 -1.0174  0.7621  0.6643
 1066SOL     OW13511   5.307   4.007   1.698 -0.1689  0.3962  0.0398
 1066SOL    HW113512   5.327   3.919   1.730  0.0905  0.6625  0.6087
 1066SOL    HW213513   5.232   3.994   1.639  0.8160 -0.4173 -1.0823
 1067SOL     OW13514   8.820   9.163  11.860  0.2026 -0.0016 -0.4171
 1067SOL    HW113515   8.868   9.234  11.903  2.0926 -1.1909 -0.4080
 1067SOL    HW213516   8.848   9.084  11.906 -1.9074 -0.7659 -0.3774
 1068SOL     OW13517   0.058   3.323  10.899 -0.1029  0.0949  0.4813
 1068SOL    HW113518   0.047   3.340  10.805  0.5074  1.1435  0.5805
 1068SOL    HW213519  -0.010   3.376  10.941 -0.4918 -0.5121  0.6353
 1069SOL     OW13520   4.678   2.360  12.386  1.0787 -0.0926 -0.5030
 1069SOL    HW113521   4.686   2.265  12.378 -1.4088 -0.6443  1.7796
 1069SOL    HW213522   4.752   2.395  12.338  2.1650 -3.1878 -1.3129
 1070SOL     OW13523   2.065   3.804  12.359  0.4379 -0.2064  0.5973
 1070SOL    HW113524   2.047   3.836  12.271  0.4093  1.0158  1.0153
 1070SOL    HW213525   1.982   3.812  12.405  0.1093 -2.1149  0.3973
 1071SOL     OW13526  10.408  10.273   2.363  0.0280  0.4408  0.2622
 1071SOL    HW113527  10.450  10.209   2.305 -0.1152  0.3916  0.2119
 1071SOL    HW213528  10.462  10.351   2.356  0.2882  0.2757  0.4411
 1072SOL     OW13529  12.730   4.662   1.779  0.2789 -0.3032 -0.0980
 1072SOL    HW113530  12.634   4.666   1.773  0.3275  1.6863 -0.4853
 1072SOL    HW213531  12.755   4.596   1.714 -0.7728  0.1842 -1.0387
 1073SOL     OW13532   8.785   6.380   8.393  0.3896  0.0345  0.2350
 1073SOL    HW113533   8.808   6.299   8.347 -0.7357  0.0687 -0.4200
 1073SOL    HW213534   8.859   6.396   8.452  1.3423 -0.6249 -0.7489
 1074SOL     OW13535  11.866   9.220  10.686  0.4479  0.1766  0.1045
 1074SOL    HW113536  11.848   9.277  10.761  2.3068 -0.0115  0.7254
 1074SOL    HW213537  11.805   9.147  10.697  0.9515 -0.0416  1.6539
 1075SOL     OW13538   0.904   9.816   1.525 -0.1431 -0.2318  0.4283
 1075SOL    HW113539   0.873   9.796   1.437 -0.2121  1.5424  0.0075
 1075SOL    HW213540   0.957   9.740   1.550 -1.1535 -1.3091 -0.6246
 1076SOL     OW13541   9.295  12.866   9.868 -0.6051  0.6323  0.4267
 1076SOL    HW113542   9.390  12.867   9.877 -0.6239  0.6144  0.6317
 1076SOL    HW213543   9.267  12.783   9.908 -0.8510  1.3878  1.8987
 1077SOL     OW13544   1.561   4.011   0.662 -0.3593  0.1925  0.5199
 1077SOL    HW113545   1.545   3.952   0.589  0.8900 -1.1343  1.2505
 1077SOL    HW213546   1.475   4.045   0.685 -1.3346 -2.1519  0.6962
 1078SOL     OW13547  11.080   7.158   4.697  0.4242  0.1281  0.6830
 1078SOL    HW113548  11.166   7.133   4.732  0.2466  1.1566  1.9250
 1078SOL    HW213549  11.018   7.131   4.764 -0.3106 -1.0453 -0.4213
 1079SOL     OW13550   8.176   4.779   1.224 -0.0583 -0.8358 -0.1338
 1079SOL    HW113551   8.091   4.774   1.267  0.8842  1.3575  2.2261
 1079SOL    HW213552   8.161   4.836   1.148 -0.4834  0.5028  0.9269
 1080SOL     OW13553   0.472   3.278   9.412  0.8879  0.0724 -0.2031
 1080SOL    HW113554   0.490   3.308   9.323  1.5665  0.3950  0.0337
 1080SOL    HW213555   0.511   3.190   9.415  1.1419  0.1884 -0.1273
 1081SOL     OW13556   3.144   5.249   9.379  0.4524  0.3082  0.7450
 1081SOL    HW113557   3.144   5.167   9.328 -0.7979 -1.1883  2.9583
 1081SOL    HW213558   3.061   5.291   9.356  0.2753  0.0556  0.9188
 1082SOL     OW13559   4.605   6.000   0.900 -0.4452  0.1405 -0.5766
 1082SOL    HW113560   4.543   6.045   0.958 -1.3534 -0.8712 -0.7360
 1082SOL    HW213561   4.686   5.996   0.951 -1.0990 -0.3407  0.4602
 1083SOL     OW13562   9.230  11.155  11.832 -0.4687 -0.6498  0.1382
 1083SOL    HW113563   9.225  11.250  11.827  0.5293 -0.5402  0.8806
 1083SOL    HW213564   9.286  11.130  11.759 -0.7034 -0.6702 -0.0374
 1084SOL     OW13565  10.263   7.946   3.374 -0.3995  0.0372 -0.0040
 1084SOL    HW113566  10.297   7.873   3.321 -1.3593 -1.0967  0.9047
 1084SOL    HW213567  10.244   7.907   3.459 -2.0399  1.0811  0.1455
 1085SOL     OW13568  12.127  10.693   8.743  0.2230  0.9153  0.1413
 1085SOL    HW113569  12.180  10.770   8.723  0.3421  1.2340  1.6087
 1085SOL    HW213570  12.171  10.651   8.816  0.3252 -0.7432 -0.8079
 1086SOL     OW13571  12.979   4.137   4.002  0.9729 -0.2549 -0.2510
 1086SOL    HW113572  13.006   4.189   3.926  0.8491  0.6281  0.2954
 1086SOL    HW213573  12.889   4.110   3.981  0.3795  1.2455  0.2016
 1087SOL     OW13574   6.914  11.870   7.100  0.2728 -0.1609  0.1874
 1087SOL    HW113575   7.007  11.881   7.078 -0.0180  2.0845 -0.1541
 1087SOL    HW213576   6.877  11.825   7.024  0.9300 -0.3870 -0.0050
 1088SOL     OW13577   8.435   3.542   5.805 -0.1216  0.0503  0.5102
 1088SOL    HW113578   8.471   3.459   5.772 -0.3052 -0.0791  0.6338
 1088SOL    HW213579   8.350   3.519   5.841 -0.1108  0.2688  0.6776
 1089SOL     OW13580   6.657   4.740   1.973 -0.1011 -0.2527  0.2856
 1089SOL    HW113581   6.590   4.769   2.035  0.2526  1.6852 -0.1697
 1089SOL    HW213582   6.722   4.810   1.974  1.6000 -1.7724  0.2011
 1090SOL     OW13583   0.362   0.791   2.064 -0.2459 -0.1307  0.6267
 1090SOL    HW113584   0.272   0.762   2.083 -0.5374  0.4193  0.1169
 1090SOL    HW213585   0.360   0.886   2.077  0.0709 -0.0189 -0.0927
 1091SOL     OW13586   0.427   5.689   5.672 -0.4061  0.0763 -0.3827
 1091SOL    HW113587   0.522   5.699   5.672 -0.3344 -0.5775 -0.4624
 1091SOL    HW213588   0.397   5.744   5.745 -0.1676  1.9870 -1.6658
 1092SOL     OW13589   4.504   9.602   5.893  0.4366  0.4033  0.2465
 1092SOL    HW113590   4.412   9.580   5.884  0.3898  0.9043 -0.5760
 1092SOL    HW213591   4.549   9.547   5.828  0.8305 -0.4851  1.2409
 1093SOL     OW13592   1.470   0.999   9.335 -0.9270 -0.5970 -0.8975
 1093SOL    HW113593   1.525   0.996   9.256 -0.8198 -0.3448 -0.8325
 1093SOL    HW213594   1.511   0.936   9.394 -0.0842  0.3286 -0.4526
 1094SOL     OW13595  12.406   6.346   1.463  0.2696  0.1104  0.2916
 1094SOL    HW113596  12.398   6.405   1.538 -2.7106 -0.4401  0.5387
 1094SOL    HW213597  12.366   6.393   1.390 -0.5415 -0.8811  0.0707
 1095SOL     OW13598   0.634  10.513   0.117  0.5706 -0.5251 -0.1567
 1095SOL    HW113599   0.660  10.557   0.198  0.4064 -1.0115  0.1588
 1095SOL    HW213600   0.709  10.527   0.058  0.3626  0.5222 -0.2074
 1096SOL     OW13601   5.468  10.662   8.194  0.3598  0.6226  0.2154
 1096SOL    HW113602   5.455  10.739   8.139  1.6872  1.9390  1.6860
 1096SOL    HW213603   5.390  10.658   8.249  0.9160  1.7460  1.0984
 1097SOL     OW13604   3.733   9.598   0.017  0.8524  0.5099 -0.3477
 1097SOL    HW113605   3.646   9.625  -0.013  0.5800  1.6127  1.3049
 1097SOL    HW213606   3.746   9.646   0.100  3.3499  0.9715 -0.9260
 1098SOL     OW13607   0.068   6.886   6.197 -0.2725  0.0938  0.2585
 1098SOL    HW113608   0.062   6.809   6.254 -0.3047  1.1104  1.7014
 1098SOL    HW213609   0.156   6.881   6.159 -1.1081 -1.9007 -1.5997
 1099SOL     OW13610  12.450   1.734   3.514  0.0058  0.1547  0.6798
 1099SOL    HW113611  12.475   1.643   3.506  0.2694  0.2454  0.4636
 1099SOL    HW213612  12.505   1.780   3.450 -1.0586  0.2856 -0.1856
 1100SOL     OW13613  11.562  11.663   8.920 -0.1843  0.2961 -0.2155
 1100SOL    HW113614  11.631  11.652   8.855  0.3211 -1.4455  0.5714
 1100SOL    HW213615  11.558  11.758   8.935  2.7004  0.3980  0.3854
 1101SOL     OW13616   7.196   0.898  12.558  0.3580  0.0224 -0.0842
 1101SOL    HW113617   7.143   0.977  12.558 -0.1060 -0.2892 -0.3441
 1101SOL    HW213618   7.286   0.929  12.572  0.1981  0.6070 -0.3493
 1102SOL     OW13619   7.301   5.058   4.375 -0.2739  0.0028  0.4635
 1102SOL    HW113620   7.320   5.113   4.300  0.4572  0.9162  1.2968
 1102SOL    HW213621   7.258   4.981   4.338  1.4485 -0.2897 -1.0498
 1103SOL     OW13622  10.688   4.466   7.799 -0.1117 -0.1015 -0.3606
 1103SOL    HW113623  10.605   4.499   7.767 -0.3533 -0.7283 -0.3895
 1103SOL    HW213624  10.729   4.542   7.841 -0.2144  0.4803 -1.2832
 1104SOL     OW13625   2.684  11.369   1.429 -0.0436  0.3122 -0.0217
 1104SOL    HW113626   2.755  11.425   1.397 -0.7157  1.6031  0.6793
 1104SOL    HW213627   2.618  11.372   1.360  0.4019 -0.5896 -0.5072
 1105SOL     OW13628   6.231   1.283   5.090  0.0128  0.2185  0.1693
 1105SOL    HW113629   6.163   1.326   5.039  0.8064  2.1600  0.6559
 1105SOL    HW213630   6.214   1.311   5.180  1.1810  0.3728  0.3520
 1106SOL     OW13631   1.149   2.908   1.484 -0.4015  0.2004  0.4517
 1106SOL    HW113632   1.067   2.872   1.450 -0.2256 -0.4447  0.6948
 1106SOL    HW213633   1.151   2.998   1.451 -1.4058  0.3626  0.7699
 1107SOL     OW13634   1.068   3.918   8.562 -0.2208  0.3912 -0.6576
 1107SOL    HW113635   1.029   3.834   8.539 -0.5804  0.2218  0.5080
 1107SOL    HW213636   1.009   3.984   8.524 -0.5956  0.1226 -0.5450
 1108SOL     OW13637   7.628   9.761  12.532 -0.3149  0.4915  0.1025
 1108SOL    HW113638   7.597   9.844  12.494 -0.0797  0.8971  0.7805
 1108SOL    HW213639   7.698   9.787  12.592 -0.4924 -0.1668  0.6017
 1109SOL     OW13640   1.409   2.001   3.776  0.1243 -0.0374  0.2486
 1109SOL    HW113641   1.327   2.051   3.769 -1.1861 -2.0417  0.3519
 1109SOL    HW213642   1.396   1.944   3.852  1.6259 -0.4059  0.2649
 1110SOL     OW13643  10.349   3.021   3.144  1.1202 -0.3282  0.5769
 1110SOL    HW113644  10.393   3.090   3.094 -0.9972  0.5465 -0.2321
 1110SOL    HW213645  10.362   2.941   3.093 -0.1360  0.3585 -0.9171
 1111SOL     OW13646   1.628   6.752   8.832 -0.1014  0.4713  0.1201
 1111SOL    HW113647   1.645   6.687   8.764  0.1603  1.0724 -0.4069
 1111SOL    HW213648   1.645   6.707   8.914 -1.4802 -0.6121 -0.1492
 1112SOL     OW13649   2.087  10.871  12.146  0.3839  0.0107 -0.1116
 1112SOL    HW113650   2.137  10.796  12.112  0.0068 -1.0066  1.4623
 1112SOL    HW213651   1.996  10.844  12.138  0.1745  0.9038 -0.8215
 1113SOL     OW13652  10.031   6.118   4.103  0.2429  0.4215  0.5899
 1113SOL    HW113653  10.034   6.030   4.066 -0.4724  0.2603  0.9050
 1113SOL    HW213654  10.115   6.157   4.078 -0.4143  0.5158 -1.6876
 1114SOL     OW13655   4.105   8.943  10.198  0.1586  0.4676 -0.3748
 1114SOL    HW113656   4.195   8.977  10.198  1.3285 -2.3071 -1.3431
 1114SOL    HW213657   4.058   9.001  10.138  1.7919  0.9059 -1.3002
 1115SOL     OW13658  11.619   1.925   7.240 -0.1372  0.0248  0.1848
 1115SOL    HW113659  11.550   1.888   7.295 -1.1375  0.8874 -0.4250
 1115SOL    HW213660  11.684   1.959   7.301 -0.4219 -0.5030  0.7885
 1116SOL     OW13661   5.252   6.220   9.846 -0.2927  0.2459  0.1012
 1116SOL    HW113662   5.166   6.244   9.881 -0.3500 -0.4918  0.4968
 1116SOL    HW213663   5.258   6.266   9.763 -1.2519 -0.0095 -0.1230
 1117SOL     OW13664   3.073  12.590  11.415 -0.5141  0.0323  0.3918
 1117SOL    HW113665   3.140  12.643  11.458  1.6094 -1.5704 -0.7730
 1117SOL    HW213666   3.046  12.528  11.482 -0.7308  0.5628  0.8100
 1118SOL     OW13667  12.797  12.708   4.901  0.0087  0.1791 -0.4208
 1118SOL    HW113668  12.739  12.644   4.861 -2.5736  3.1384 -1.8788
 1118SOL    HW213669  12.853  12.738   4.830  0.5653  0.1920  0.0167
 1119SOL     OW13670  12.540   3.329   9.919 -0.0455 -0.1808 -0.4004
 1119SOL    HW113671  12.459   3.362   9.958  0.4579  1.3820 -0.5899
 1119SOL    HW213672  12.529   3.234   9.917 -1.1797 -0.1209  1.0965
 1120SOL     OW13673   0.757   2.319  12.264  0.0343 -0.3432 -0.3727
 1120SOL    HW113674   0.729   2.231  12.291 -0.3760  0.5467  2.4122
 1120SOL    HW213675   0.850   2.322  12.284 -0.5833  0.8666  2.9357
 1121SOL     OW13676   8.586   2.446   2.016  0.8242 -0.2136  0.1529
 1121SOL    HW113677   8.621   2.470   1.930  0.4457 -2.2203 -0.6011
 1121SOL    HW213678   8.645   2.487   2.078  1.2216  1.1182 -1.0504
 1122SOL     OW13679   6.548  10.881  11.847  0.1859 -0.5764  0.1253
 1122SOL    HW113680   6.473  10.847  11.796 -0.2036 -0.1840  0.4273
 1122SOL    HW213681   6.623  10.832  11.814  0.0249  0.0265 -1.1954
 1123SOL     OW13682   2.687   3.427   6.854  0.1495 -0.1848 -0.6850
 1123SOL    HW113683   2.728   3.374   6.786  0.2214  1.4967 -2.0495
 1123SOL    HW213684   2.751   3.496   6.872  0.5504 -1.1337  1.8806
 1124SOL     OW13685   5.500  10.871   7.316 -0.0554 -1.2686 -0.3572
 1124SOL    HW113686   5.537  10.867   7.404 -1.2952 -0.5571  0.2119
 1124SOL    HW213687   5.567  10.915   7.264  1.0491 -2.4305  0.0115
 1125SOL     OW13688   6.273   7.231   4.040  0.2327  0.2695  0.3432
 1125SOL    HW113689   6.269   7.146   4.084  1.1757 -0.9331 -1.7604
 1125SOL    HW213690   6.181   7.259   4.033  0.0587  1.0819  3.9125
 1126SOL     OW13691  12.390   7.852   2.777 -0.1550  0.1590  0.9712
 1126SOL    HW113692  12.322   7.906   2.736  1.0548  0.4785 -0.7281
 1126SOL    HW213693  12.464   7.911   2.787  0.8259 -0.8847  0.1128
 1127SOL     OW13694  12.131   2.332   5.864 -0.0608 -0.4343  0.1658
 1127SOL    HW113695  12.173   2.334   5.778  1.4934 -0.5786  0.8830
 1127SOL    HW213696  12.074   2.255   5.861  0.5104 -0.8477 -0.4942
 1128SOL     OW13697   6.524   5.294   6.946 -0.0731  0.3768 -0.5029
 1128SOL    HW113698   6.566   5.375   6.972  0.4221 -0.5400  1.8465
 1128SOL    HW213699   6.442   5.292   6.996 -0.1774 -0.4377 -0.6798
 1129SOL     OW13700   2.506   6.527  12.709  0.0230 -0.5000 -0.2799
 1129SOL    HW113701   2.411   6.526  12.722 -0.0472  1.3400 -0.4359
 1129SOL    HW213702   2.535   6.610  12.748  1.3570 -0.3459 -1.5221
 1130SOL     OW13703   7.014   5.866   6.296 -0.2866 -0.1606  0.2567
 1130SOL    HW113704   7.081   5.823   6.243 -0.6246 -0.5546  0.1437
 1130SOL    HW213705   7.001   5.808   6.371 -0.6892 -0.2269  0.1418
 1131SOL     OW13706  10.864   8.680   5.179 -0.0976  0.0097  0.1299
 1131SOL    HW113707  10.838   8.593   5.208  0.5244 -0.6539 -1.2496
 1131SOL    HW213708  10.789   8.712   5.129 -0.0874  0.0283  0.1263
 1132SOL     OW13709  12.592   2.393   3.254 -0.3563 -0.2405  0.0308
 1132SOL    HW113710  12.574   2.478   3.293  0.0986 -0.2056  0.1662
 1132SOL    HW213711  12.637   2.413   3.172 -3.0664 -0.2255 -1.5605
 1133SOL     OW13712  12.238   0.861   3.104  0.1524 -0.1270  0.1425
 1133SOL    HW113713  12.204   0.793   3.162  0.4368  1.5779  2.4610
 1133SOL    HW213714  12.245   0.819   3.019 -2.5526 -2.1149  0.7658
 1134SOL     OW13715   9.045  11.837   0.492  0.4044 -0.4552  0.4836
 1134SOL    HW113716   8.956  11.856   0.465  1.5811  1.5706 -2.5888
 1134SOL    HW213717   9.054  11.876   0.579 -1.6772 -0.7639  0.8700
 1135SOL     OW13718   5.260  11.929   4.645  0.0315 -0.4829 -0.5423
 1135SOL    HW113719   5.282  12.022   4.638  1.4742 -0.6855  0.8775
 1135SOL    HW213720   5.310  11.898   4.720 -0.3807 -2.4356 -1.0295
 1136SOL     OW13721   5.149   1.503  11.984 -0.0422 -0.5697 -0.3518
 1136SOL    HW113722   5.218   1.513  12.050 -0.3583  1.8247 -0.2948
 1136SOL    HW213723   5.068   1.500  12.035 -0.1850 -0.2256 -0.5555
 1137SOL     OW13724  11.927   4.108   8.128  0.7682  0.6482 -0.1392
 1137SOL    HW113725  11.991   4.078   8.065 -0.0998  2.1414 -1.8398
 1137SOL    HW213726  11.860   4.040   8.130  2.7481 -1.4489  2.4489
 1138SOL     OW13727   4.987   8.122   1.209 -0.1019 -0.1283 -0.0714
 1138SOL    HW113728   5.036   8.042   1.230 -0.6547 -0.4537 -0.0200
 1138SOL    HW213729   4.918   8.125   1.275  0.4840  0.9066  0.5334
 1139SOL     OW13730   1.723   9.391   3.212 -0.4488 -0.3220 -0.3616
 1139SOL    HW113731   1.658   9.323   3.195  0.1554 -0.9546 -0.1777
 1139SOL    HW213732   1.704   9.420   3.302 -0.0026 -1.0534 -0.0206
 1140SOL     OW13733   0.958   4.435  11.023 -0.4561  0.3267 -0.5142
 1140SOL    HW113734   0.922   4.499  11.084 -0.3737 -0.2641  0.1782
 1140SOL    HW213735   1.053   4.439  11.036 -0.4171  0.4151 -0.8252
 1141SOL     OW13736   0.712  10.188   3.128  0.4280  0.5297 -0.1120
 1141SOL    HW113737   0.778  10.169   3.195 -0.8318  0.4534  1.1605
 1141SOL    HW213738   0.741  10.137   3.052 -0.0756 -2.5095  1.5513
 1142SOL     OW13739  10.709   5.516   7.380 -0.5639 -0.4059 -0.9374
 1142SOL    HW113740  10.641   5.499   7.315 -0.0469 -0.5033 -1.4689
 1142SOL    HW213741  10.761   5.588   7.342 -0.7044  0.0548 -0.2789
 1143SOL     OW13742   3.861  10.224   3.030 -0.8111 -0.0311 -0.7906
 1143SOL    HW113743   3.956  10.221   3.018 -0.9489 -2.1025 -1.9174
 1143SOL    HW213744   3.848  10.259   3.118  1.0422 -0.7715 -0.1834
 1144SOL     OW13745   6.097  11.516   7.563 -0.4905  0.5389  0.0388
 1144SOL    HW113746   6.033  11.573   7.604 -0.9250  0.0773  0.0117
 1144SOL    HW213747   6.164  11.503   7.631 -0.2077  1.3484 -0.0727
 1145SOL     OW13748  10.436   9.072   8.258 -0.1497  0.2647 -0.1065
 1145SOL    HW113749  10.362   9.012   8.261 -1.0677  1.2215 -1.8654
 1145SOL    HW213750  10.453   9.085   8.164  1.7566  0.6768  0.2355
 1146SOL     OW13751   8.702   9.808   5.361  0.2789  0.4451 -0.2966
 1146SOL    HW113752   8.793   9.792   5.387 -1.0690 -3.2775  3.2092
 1146SOL    HW213753   8.683   9.742   5.295 -0.7330 -1.4150  1.7287
 1147SOL     OW13754   7.459  12.495   4.957 -0.5918  0.3297  0.0813
 1147SOL    HW113755   7.391  12.434   4.929  0.0718 -0.3094 -0.1690
 1147SOL    HW213756   7.504  12.520   4.876  0.7145 -0.7821  0.4253
 1148SOL     OW13757   1.907   0.520   8.729  0.2486 -0.1075  0.7231
 1148SOL    HW113758   1.904   0.454   8.660  3.1493 -0.7316  1.0587
 1148SOL    HW213759   1.860   0.480   8.803 -1.4047 -0.1248 -0.3036
 1149SOL     OW13760   0.449   5.886   5.443  0.4901  0.1588 -0.4071
 1149SOL    HW113761   0.492   5.849   5.366 -0.1503  0.3738 -0.8750
 1149SOL    HW213762   0.401   5.812   5.481  1.2416 -0.0794  0.1108
 1150SOL     OW13763  12.634  10.341   3.525  0.0814 -0.0926  0.8068
 1150SOL    HW113764  12.730  10.349   3.530  0.1407 -0.0524 -0.1449
 1150SOL    HW213765  12.609  10.404   3.457 -0.4101 -1.4275 -0.2954
 1151SOL     OW13766   6.868   0.228  11.251  0.1084 -0.2142  0.1251
 1151SOL    HW113767   6.854   0.232  11.156 -0.5828 -1.6938  0.1407
 1151SOL    HW213768   6.947   0.280  11.265  1.0349 -1.1128 -1.4485
 1152SOL     OW13769  11.169   9.924   0.816  0.1058 -0.2113  0.3832
 1152SOL    HW113770  11.217  10.001   0.785 -1.5949  0.9950  0.5907
 1152SOL    HW213771  11.089   9.923   0.764  1.2786 -3.5402 -1.6124
 1153SOL     OW13772  11.704   0.954  11.193 -0.1844  0.0496  0.3162
 1153SOL    HW113773  11.688   0.862  11.174  1.5642 -0.0672 -0.8521
 1153SOL    HW213774  11.773   0.980  11.131 -1.8388  2.6218 -0.6318
 1154SOL     OW13775  11.843   9.938   4.932  0.2207 -0.0892  0.1003
 1154SOL    HW113776  11.804  10.017   4.970 -1.2931 -0.9575  0.4207
 1154SOL    HW213777  11.777   9.905   4.871  0.6741 -1.2875  0.2255
 1155SOL     OW13778   7.895   7.401   1.608  0.3175 -0.3034  0.1102
 1155SOL    HW113779   7.980   7.383   1.648 -0.4944  1.5482  2.9119
 1155SOL    HW213780   7.831   7.365   1.670 -1.0065 -0.2621 -1.1684
 1156SOL     OW13781  10.362   3.469   5.808 -0.0546  0.3076  0.3409
 1156SOL    HW113782  10.398   3.526   5.740 -2.9143  0.0150 -1.6092
 1156SOL    HW213783  10.304   3.526   5.859 -0.2928 -0.1193  0.5578
 1157SOL     OW13784   6.408  10.128  12.653 -0.0431  0.3503 -0.4267
 1157SOL    HW113785   6.416  10.060  12.719 -1.8187 -0.0773 -0.5856
 1157SOL    HW213786   6.358  10.197  12.696 -1.9163 -0.2639 -1.4672
 1158SOL     OW13787  12.585   1.813   9.906  0.5929  0.7400 -0.0527
 1158SOL    HW113788  12.671   1.772   9.904  0.6342  0.7851  0.5950
 1158SOL    HW213789  12.601   1.905   9.883  0.8311  0.9217  0.7933
 1159SOL     OW13790   7.400  11.709   5.227  0.5117 -0.3692 -0.3111
 1159SOL    HW113791   7.407  11.644   5.158 -1.2262 -0.1035 -0.7902
 1159SOL    HW213792   7.314  11.693   5.266  1.8127 -1.1668  2.4972
 1160SOL     OW13793   0.867   5.094   8.080 -0.0079  0.1781  0.6068
 1160SOL    HW113794   0.791   5.108   8.024  0.0786 -0.1748  0.3928
 1160SOL    HW213795   0.918   5.027   8.033  1.2909  1.6288 -0.1257
 1161SOL     OW13796   5.207   1.990   5.012 -0.1958  1.2130  0.6174
 1161SOL    HW113797   5.150   1.948   4.947 -0.6843  1.1373  1.0854
 1161SOL    HW213798   5.280   1.929   5.022 -0.3007  1.0503  0.4026
 1162SOL     OW13799   9.753  10.231  12.185  0.3586  0.4671  0.0715
 1162SOL    HW113800   9.789  10.144  12.200  1.1626  0.1694 -2.9192
 1162SOL    HW213801   9.824  10.291  12.211  0.1962  0.2029  1.1486
 1163SOL     OW13802  12.616   7.180   2.241 -0.6522 -0.6000  0.0764
 1163SOL    HW113803  12.637   7.254   2.298 -0.7007 -1.3189  1.0353
 1163SOL    HW213804  12.526   7.198   2.212 -0.0467  0.6442 -1.1858
 1164SOL     OW13805   9.990   3.598   8.675 -0.5415  0.0229 -0.5635
 1164SOL    HW113806   9.900   3.621   8.698 -1.2976  0.7755 -3.7414
 1164SOL    HW213807  10.043   3.632   8.747 -2.6147  1.5645  0.3276
 1165SOL     OW13808   8.763   8.389   2.946 -0.4260  0.1420  0.6997
 1165SOL    HW113809   8.732   8.382   2.856 -0.5058 -0.4612  0.7735
 1165SOL    HW213810   8.703   8.451   2.988 -0.9697 -0.3055  0.5941
 1166SOL     OW13811   3.748   1.866   7.627 -0.2179  0.3335 -0.0535
 1166SOL    HW113812   3.766   1.798   7.692  1.0414  0.6929 -0.0145
 1166SOL    HW213813   3.718   1.818   7.549  0.7497 -0.2775 -0.0575
 1167SOL     OW13814   0.004   4.093   2.194 -0.3884 -0.4801 -0.1391
 1167SOL    HW113815   0.033   4.159   2.131  2.0737 -1.1580  0.1852
 1167SOL    HW213816  -0.078   4.128   2.229  0.1507  1.7567 -0.9472
 1168SOL     OW13817   2.127   3.151  10.639 -0.1139  0.5160  0.3725
 1168SOL    HW113818   2.213   3.177  10.604  0.1494 -0.2188  0.4659
 1168SOL    HW213819   2.132   3.056  10.647 -1.0628  0.4265  0.0472
 1169SOL     OW13820   6.403  11.310   2.460 -0.0668 -0.5378  0.5068
 1169SOL    HW113821   6.456  11.388   2.442 -1.3245  0.5779  1.4341
 1169SOL    HW213822   6.419  11.252   2.385  1.8727  0.0505  0.4159
 1170SOL     OW13823   7.111   4.065   3.908 -0.0968  0.0818  0.4596
 1170SOL    HW113824   7.172   4.006   3.863 -0.0611  0.5659 -0.1449
 1170SOL    HW213825   7.165   4.137   3.940 -0.2567  0.1912  0.4859
 1171SOL     OW13826  11.119   8.433   2.916  0.0627 -1.0251  0.3637
 1171SOL    HW113827  11.090   8.410   3.005  0.2011  1.2376  1.0564
 1171SOL    HW213828  11.063   8.506   2.891  2.6415  1.0174  0.2325
 1172SOL     OW13829  10.992   9.341   4.864  0.0962 -0.3657  0.2587
 1172SOL    HW113830  10.979   9.247   4.872  0.7423 -0.4288  0.6489
 1172SOL    HW213831  11.026   9.353   4.775  0.9081 -0.6155  0.5245
 1173SOL     OW13832   2.858   1.337   7.908  0.0700  0.1138  0.2864
 1173SOL    HW113833   2.932   1.278   7.921  1.2887  0.8833 -2.5181
 1173SOL    HW213834   2.781   1.282   7.924  1.1916 -1.2954  1.1001
 1174SOL     OW13835   2.064   7.974  10.786 -1.1626 -0.4528 -0.0662
 1174SOL    HW113836   2.109   7.946  10.865  1.9639  1.0434 -1.1589
 1174SOL    HW213837   1.979   8.004  10.816 -1.4190 -3.0158  2.2089
 1175SOL     OW13838   5.050  10.629   4.109 -0.0340 -0.0304  0.1291
 1175SOL    HW113839   5.089  10.715   4.094  0.5588 -0.5265 -1.3759
 1175SOL    HW213840   5.109  10.568   4.066 -0.6534 -1.1633  0.8329
 1176SOL     OW13841   4.692   3.733  10.015  0.0887 -0.6402  0.2941
 1176SOL    HW113842   4.763   3.712  10.075  0.2103 -1.9277 -0.2725
 1176SOL    HW213843   4.735   3.755   9.933 -0.0729  1.2270  0.6652
 1177SOL     OW13844  11.103   3.177  10.578 -0.6164  0.7152  0.7473
 1177SOL    HW113845  11.144   3.126  10.649  0.5643  1.4668  0.6330
 1177SOL    HW213846  11.092   3.114  10.507 -0.2343  0.3395  1.0134
 1178SOL     OW13847   0.429   5.689   0.589  0.5942 -0.1351  0.3559
 1178SOL    HW113848   0.521   5.704   0.610  0.5759 -0.7839  0.9555
 1178SOL    HW213849   0.428   5.603   0.547  0.5406  0.8563 -1.7869
 1179SOL     OW13850  12.220   9.725   7.122 -0.0677 -0.4197  0.6637
 1179SOL    HW113851  12.232   9.729   7.027 -1.3560 -0.7064  0.4725
 1179SOL    HW213852  12.258   9.807   7.154 -0.9384  0.3601 -0.2583
 1180SOL     OW13853   1.864   7.984   1.141 -0.2652 -0.1456 -0.2071
 1180SOL    HW113854   1.868   7.985   1.045  1.3173 -1.8058 -0.2164
 1180SOL    HW213855   1.954   8.002   1.169 -0.1032 -2.2707  0.8689
 1181SOL     OW13856   2.031   6.499   7.370 -0.0369 -0.1204  0.5419
 1181SOL    HW113857   1.991   6.581   7.400 -1.4962 -0.1712 -1.1462
 1181SOL    HW213858   2.012   6.437   7.440 -1.3723  0.3182  0.6042
 1182SOL     OW13859   2.516   4.784   0.637  0.3662  0.3084 -0.3776
 1182SOL    HW113860   2.486   4.826   0.717  1.4367  0.2838  0.0491
 1182SOL    HW213861   2.496   4.847   0.568  0.4735  0.8242  0.0545
 1183SOL     OW13862   9.584   7.691   4.620  0.1738  0.1164 -0.4182
 1183SOL    HW113863   9.546   7.766   4.666 -0.1381  0.3462 -1.0334
 1183SOL    HW213864   9.677   7.712   4.613  0.3080 -0.1392  0.5134
 1184SOL     OW13865   3.517   5.708   4.433 -0.1143 -0.4189  0.6821
 1184SOL    HW113866   3.494   5.711   4.526  1.8629 -1.0877  1.2409
 1184SOL    HW213867   3.524   5.614   4.413  0.2426 -0.2640  0.0488
 1185SOL     OW13868  12.631   8.579   3.749  0.1932  0.5152 -0.5374
 1185SOL    HW113869  12.620   8.571   3.843  0.2707  1.0486 -0.4816
 1185SOL    HW213870  12.693   8.509   3.726  0.2651  0.4633 -0.1778
 1186SOL     OW13871  10.973   3.045  12.478  0.1765 -0.2660  0.0841
 1186SOL    HW113872  10.977   3.102  12.555  0.0405 -1.1563  0.7699
 1186SOL    HW213873  10.914   3.090  12.418 -0.7650 -0.1771  1.0420
 1187SOL     OW13874   8.943   7.139   1.582 -0.1426 -0.1036 -0.1792
 1187SOL    HW113875   8.908   7.149   1.493  1.6390  4.2287 -0.6061
 1187SOL    HW213876   9.033   7.109   1.568 -0.1389 -0.2873  0.2341
 1188SOL     OW13877   3.263   2.393  11.246 -0.5268 -0.2980  0.1914
 1188SOL    HW113878   3.190   2.398  11.307  0.5728 -1.8196  1.7468
 1188SOL    HW213879   3.277   2.484  11.218 -1.9581  0.2491  1.1254
 1189SOL     OW13880   8.381   5.841   7.822 -0.0481  0.0583  0.2252
 1189SOL    HW113881   8.416   5.781   7.757 -1.5271 -0.9722  0.3299
 1189SOL    HW213882   8.457   5.893   7.850  0.9595 -0.6971 -0.9853
 1190SOL     OW13883   1.988   7.983   4.288 -0.1781 -0.2157 -0.1094
 1190SOL    HW113884   2.037   7.992   4.370 -0.7177  0.5784  0.1448
 1190SOL    HW213885   2.015   8.059   4.236 -2.0002  0.9132  0.5143
 1191SOL     OW13886   5.789   9.890   4.002 -0.2344 -0.1963  0.6228
 1191SOL    HW113887   5.818   9.933   4.083  0.5108  0.7668 -0.1299
 1191SOL    HW213888   5.868   9.851   3.966 -0.2620  0.6533 -0.3887
 1192SOL     OW13889  11.834   6.290   5.192  0.7911 -0.0271  0.1857
 1192SOL    HW113890  11.918   6.309   5.150  1.4943  0.8553  1.8883
 1192SOL    HW213891  11.856   6.275   5.284 -0.4412 -3.7779  0.0269
 1193SOL     OW13892   2.904   3.470  10.026 -0.1100 -0.1259  0.2075
 1193SOL    HW113893   2.950   3.548   9.996 -1.2067  0.5089  0.1147
 1193SOL    HW213894   2.967   3.399  10.014  1.4790  0.9401  1.7275
 1194SOL     OW13895   3.290   1.608  10.307  0.2080  0.4055 -0.2446
 1194SOL    HW113896   3.247   1.634  10.225 -0.7965  0.5257  0.3175
 1194SOL    HW213897   3.326   1.690  10.342 -1.0169  0.6906  0.3883
 1195SOL     OW13898   4.582   3.284  10.420 -0.2628 -0.1530  0.1592
 1195SOL    HW113899   4.539   3.364  10.450  1.7876  0.7033  1.0217
 1195SOL    HW213900   4.556   3.276  10.328 -1.3152  0.9195  0.3333
 1196SOL     OW13901   7.585   5.687   5.564 -0.3357 -0.0582  0.1024
 1196SOL    HW113902   7.601   5.626   5.492  0.6926  0.2953  0.0084
 1196SOL    HW213903   7.647   5.758   5.549  0.3426 -0.2679  1.6655
 1197SOL     OW13904   3.682   3.306   9.966  0.7795 -0.3013 -0.6346
 1197SOL    HW113905   3.598   3.261   9.961  0.3628  0.3729  0.1147
 1197SOL    HW213906   3.726   3.268  10.042 -0.2286  1.5643  0.9850
 1198SOL     OW13907   7.531   4.411   6.959 -0.4825  0.3996 -0.2009
 1198SOL    HW113908   7.471   4.471   6.914  0.7739  1.5441 -0.4120
 1198SOL    HW213909   7.530   4.332   6.906 -1.8339  0.3638 -0.1667
 1199SOL     OW13910   1.055  12.516   6.321 -0.0595 -0.0433 -0.8075
 1199SOL    HW113911   1.099  12.431   6.326 -1.1339 -0.5776  0.0832
 1199SOL    HW213912   0.966  12.495   6.293 -0.3291  0.7863 -0.5996
 1200SOL     OW13913   6.865   3.224   5.867  0.0306 -0.2223  0.5074
 1200SOL    HW113914   6.911   3.153   5.912 -0.6016 -0.6810  0.4478
 1200SOL    HW213915   6.851   3.290   5.935  1.8176  0.4649  0.2622
 1201SOL     OW13916   5.847   0.345   3.971  0.4659 -0.1571  0.2315
 1201SOL    HW113917   5.785   0.323   4.041 -1.7287  3.2760 -0.3716
 1201SOL    HW213918   5.864   0.438   3.983 -0.2041  0.6690 -3.8640
 1202SOL     OW13919   7.351  11.460   5.558  0.3265  0.5775  0.4016
 1202SOL    HW113920   7.388  11.385   5.511  0.1295  1.1462 -0.6869
 1202SOL    HW213921   7.415  11.530   5.545 -1.2314  1.6996 -1.8398
 1203SOL     OW13922   9.491   2.662   9.006 -0.0833 -0.3098 -0.0624
 1203SOL    HW113923   9.476   2.695   8.918 -0.6895 -0.2286  0.0715
 1203SOL    HW213924   9.554   2.724   9.044  0.7064 -0.7268 -0.6627
 1204SOL     OW13925   9.197   0.025  11.227  0.1000 -0.3360  0.0642
 1204SOL    HW113926   9.217   0.119  11.220  1.7756 -0.4731  1.8402
 1204SOL    HW213927   9.149   0.017  11.309  0.5419 -1.0793  0.2655
 1205SOL     OW13928   5.812   7.613  10.901  0.0939  0.1649  0.1770
 1205SOL    HW113929   5.898   7.617  10.859 -0.1522  1.1976 -0.2498
 1205SOL    HW213930   5.753   7.656  10.839 -0.4568  0.7882  1.1169
 1206SOL     OW13931  10.492   1.119   3.909 -0.4905 -0.3413 -0.0602
 1206SOL    HW113932  10.463   1.129   4.000 -1.4144  2.3121 -0.5529
 1206SOL    HW213933  10.417   1.083   3.863  0.4277 -3.0668  0.3761
 1207SOL     OW13934   8.214   0.687   6.105 -0.1075  0.2435 -0.1630
 1207SOL    HW113935   8.215   0.747   6.031  1.3075 -1.7961 -1.9189
 1207SOL    HW213936   8.162   0.613   6.075 -0.2602 -0.2533  1.2404
 1208SOL     OW13937   6.714  11.794  11.021 -0.1380  0.5984  0.0557
 1208SOL    HW113938   6.798  11.761  10.989  0.5713  1.8363  0.5433
 1208SOL    HW213939   6.652  11.775  10.951  0.7061  0.3255 -0.6315
 1209SOL     OW13940  10.975   9.181   8.722  0.2618  0.2706 -0.2210
 1209SOL    HW113941  10.913   9.113   8.697 -0.2652  0.5306  0.3742
 1209SOL    HW213942  11.060   9.135   8.725 -0.1762 -0.5278  0.8133
 1210SOL     OW13943   4.145  10.271   4.273 -0.0278 -0.2735 -0.4220
 1210SOL    HW113944   4.147  10.367   4.281  0.1782 -0.3771  1.4038
 1210SOL    HW213945   4.055  10.247   4.295  0.4319 -0.5843  1.3150
 1211SOL     OW13946   5.623   5.471   2.425 -0.2048  0.0735  0.5195
 1211SOL    HW113947   5.592   5.561   2.426 -0.1076  0.1143  0.1348
 1211SOL    HW213948   5.672   5.461   2.507  0.3196  0.5559  0.2684
 1212SOL     OW13949   1.778   6.108   2.405 -0.4774  0.0002  0.2776
 1212SOL    HW113950   1.694   6.070   2.378 -0.0671 -2.4339  2.0181
 1212SOL    HW213951   1.769   6.119   2.500  0.7950  0.7864  0.3298
 1213SOL     OW13952   4.434   4.643   4.849  0.1689 -0.0963 -0.4245
 1213SOL    HW113953   4.514   4.642   4.796  0.9020 -1.4958  0.6121
 1213SOL    HW213954   4.379   4.576   4.810  0.1381 -0.1779 -0.2424
 1214SOL     OW13955   9.837   1.742   0.771 -0.1640 -0.2015 -0.4101
 1214SOL    HW113956   9.808   1.677   0.835  0.5013 -1.0899 -0.9897
 1214SOL    HW213957   9.782   1.819   0.788 -1.2558 -1.0517  0.0144
 1215SOL     OW13958   3.108   7.525   1.506  0.4654  0.1355  0.3409
 1215SOL    HW113959   3.025   7.540   1.552  0.0221  0.5738 -0.5782
 1215SOL    HW213960   3.155   7.608   1.514 -0.4452  0.8925 -1.6367
 1216SOL     OW13961  12.396   3.834   0.266  0.7179 -0.0565  0.1526
 1216SOL    HW113962  12.314   3.883   0.267  0.1950 -0.8668 -1.1947
 1216SOL    HW213963  12.402   3.797   0.354 -0.5904 -0.3496  0.1374
 1217SOL     OW13964   9.603   1.102   5.111  0.5980 -0.1932  0.6650
 1217SOL    HW113965   9.649   1.098   5.028  1.0730  0.0959  0.9088
 1217SOL    HW213966   9.622   1.190   5.145 -0.7545  0.2237  0.4176
 1218SOL     OW13967   9.966   2.791  11.365 -0.1000 -0.9037  0.3918
 1218SOL    HW113968   9.966   2.771  11.459  0.0172 -2.4418  0.1039
 1218SOL    HW213969   9.901   2.860  11.354  1.7628  1.2464  1.9499
 1219SOL     OW13970   5.853   7.224   3.690 -0.0915 -0.4674 -0.0804
 1219SOL    HW113971   5.922   7.178   3.738  0.3150 -1.0044 -1.1573
 1219SOL    HW213972   5.772   7.200   3.735  0.0187 -2.8467 -1.0368
 1220SOL     OW13973  11.690   5.815  12.194 -0.2881  0.3826  0.3112
 1220SOL    HW113974  11.736   5.895  12.221  0.1632  0.4822 -0.7181
 1220SOL    HW213975  11.598   5.834  12.210 -0.1329  0.8917  0.6138
 1221SOL     OW13976   9.252  12.453  11.711  0.1312 -0.1195 -0.4105
 1221SOL    HW113977   9.254  12.497  11.626 -2.1504  0.7262 -0.0994
 1221SOL    HW213978   9.309  12.505  11.767  0.1370  0.4503 -0.9374
 1222SOL     OW13979   0.133  12.024   6.400 -0.0225  0.3333 -0.3096
 1222SOL    HW113980   0.188  12.002   6.476  0.1726 -0.1299 -0.5775
 1222SOL    HW213981   0.045  12.031   6.436  0.2042  1.0805  0.1274
 1223SOL     OW13982  11.453   9.355   9.857 -0.4494 -0.1066  0.0075
 1223SOL    HW113983  11.503   9.279   9.827  1.5245  0.9309  0.4663
 1223SOL    HW213984  11.483   9.370   9.946 -0.3668  1.5133 -0.2520
 1224SOL     OW13985   9.591   5.917   6.539  0.8405 -0.1760 -0.5574
 1224SOL    HW113986   9.656   5.876   6.596  2.2730  0.9661 -1.2852
 1224SOL    HW213987   9.569   5.850   6.474 -1.0278 -1.5965  1.3915
 1225SOL     OW13988   8.794  11.924   4.518  0.0311 -0.2051 -0.1414
 1225SOL    HW113989   8.810  11.891   4.430 -0.1714 -2.1564  0.4977
 1225SOL    HW213990   8.721  11.985   4.508  0.4494  0.1174 -1.3986
 1226SOL     OW13991   0.645   9.226   7.801  0.0314 -0.4308 -0.1634
 1226SOL    HW113992   0.613   9.317   7.801  0.2428 -0.3556 -0.1451
 1226SOL    HW213993   0.593   9.182   7.868  1.9166  0.3861  1.9443
 1227SOL     OW13994   9.322   4.962   5.038  0.0049  0.5933 -0.6125
 1227SOL    HW113995   9.280   4.932   4.958  3.6956  1.0102 -2.9388
 1227SOL    HW213996   9.312   5.057   5.036  0.3561  0.6300 -0.7838
 1228SOL     OW13997  10.597   3.298   5.292 -0.1056  0.0052  0.1820
 1228SOL    HW113998  10.541   3.363   5.334 -1.6555 -2.4408  2.1928
 1228SOL    HW213999  10.686   3.320   5.319 -0.2975  2.4455 -0.9503
 1229SOL     OW14000  12.500   5.520   2.749  0.2224  0.3502 -0.6339
 1229SOL    HW114001  12.448   5.444   2.775 -0.7124  0.7511 -1.2618
 1229SOL    HW214002  12.546   5.547   2.829  0.3376 -0.6834 -0.3394
 1230SOL     OW14003  12.922  10.818   5.755  0.5004  0.6759 -0.3824
 1230SOL    HW114004  12.936  10.753   5.824 -3.1712  0.6202  0.5219
 1230SOL    HW214005  12.926  10.902   5.801 -1.4429  0.6631 -0.1079
 1231SOL     OW14006   5.552   5.553  10.141 -0.8075 -0.4040 -0.3045
 1231SOL    HW114007   5.557   5.549  10.046 -0.1388 -1.9232 -0.2391
 1231SOL    HW214008   5.463   5.581  10.159 -0.5747  1.1708 -1.3664
 1232SOL     OW14009   3.933   6.434   6.688  0.0768  0.0567 -0.7226
 1232SOL    HW114010   3.893   6.512   6.726 -0.2651 -0.1772 -0.6009
 1232SOL    HW214011   3.974   6.390   6.763  0.1452  0.0408 -0.7684
 1233SOL     OW14012   1.709  12.661   4.803 -0.3193  0.2169 -0.0203
 1233SOL    HW114013   1.751  12.687   4.721  1.8458 -0.4644  0.8042
 1233SOL    HW214014   1.673  12.574   4.786 -1.5634  0.8497 -0.7674
 1234SOL     OW14015   7.627  11.706   7.798  0.1671 -0.2451  0.1309
 1234SOL    HW114016   7.607  11.694   7.706 -0.0722 -0.4769  0.2125
 1234SOL    HW214017   7.707  11.655   7.812  0.3837  0.0489 -0.0177
 1235SOL     OW14018   7.085  11.045   2.889 -0.7431  0.3864  0.0625
 1235SOL    HW114019   7.045  11.013   2.970 -1.4707 -0.6105 -0.6569
 1235SOL    HW214020   7.012  11.084   2.841 -0.3347  0.9033 -0.1438
 1236SOL     OW14021   1.343   6.788   5.672  0.2316 -0.8423  0.1289
 1236SOL    HW114022   1.297   6.812   5.752  1.6728  0.6835  0.5481
 1236SOL    HW214023   1.339   6.866   5.617 -1.0646 -1.9777 -1.5126
 1237SOL     OW14024   1.292   8.404  11.228  0.6287 -0.0525 -0.3556
 1237SOL    HW114025   1.253   8.439  11.148 -1.7023 -1.9067 -0.1598
 1237SOL    HW214026   1.226   8.343  11.261  2.9295 -1.8387  1.2041
 1238SOL     OW14027  10.430   3.565  12.747  0.2966  0.2892 -0.3356
 1238SOL    HW114028  10.366   3.506  12.785 -0.5280  1.2341 -0.2273
 1238SOL    HW214029  10.515   3.532  12.778 -0.3116  0.8983  2.1489
 1239SOL     OW14030  12.011   7.534   7.610  0.1787 -0.3012  0.7111
 1239SOL    HW114031  11.935   7.583   7.579 -0.1622 -1.8807 -1.1107
 1239SOL    HW214032  12.083   7.565   7.555  0.1407 -1.2029  0.1433
 1240SOL     OW14033  11.192  11.291   2.721 -0.0795 -0.2625 -0.7729
 1240SOL    HW114034  11.169  11.251   2.637 -1.7665  0.3500 -0.6469
 1240SOL    HW214035  11.152  11.234   2.786  0.8034 -0.4622 -0.3875
 1241SOL     OW14036   0.237   7.227   1.342  0.0354 -0.3859  0.0468
 1241SOL    HW114037   0.220   7.143   1.384 -1.2722  0.3134  0.9676
 1241SOL    HW214038   0.156   7.248   1.297  0.5277  0.1538 -0.6135
 1242SOL     OW14039   0.477  10.758   6.247 -0.3944 -0.3962  0.2878
 1242SOL    HW114040   0.495  10.839   6.201 -0.0932 -1.0797 -0.8348
 1242SOL    HW214041   0.439  10.700   6.181  0.6935 -1.6335  0.7117
 1243SOL     OW14042  12.387   4.523   3.158 -0.7146  0.1711  0.1849
 1243SOL    HW114043  12.341   4.443   3.181  1.3680 -0.9763  0.5411
 1243SOL    HW214044  12.383   4.577   3.237 -0.0276 -0.6125  0.7598
 1244SOL     OW14045   7.355   9.314  11.593  0.1935 -0.6487  0.1701
 1244SOL    HW114046   7.301   9.388  11.621  0.2673 -0.1131 -1.0614
 1244SOL    HW214047   7.443   9.334  11.625  0.1088 -0.4519  0.2814
 1245SOL     OW14048   7.077   1.818   8.893  0.1341 -0.1211  0.2116
 1245SOL    HW114049   7.100   1.843   8.983 -0.3224  2.3730 -0.2823
 1245SOL    HW214050   7.036   1.732   8.901  0.1638  0.0209  2.3738
 1246SOL     OW14051   1.345   3.315   8.354  0.2904  0.7617 -0.1090
 1246SOL    HW114052   1.272   3.280   8.303  0.3298  4.1551 -2.8905
 1246SOL    HW214053   1.304   3.375   8.416  0.5667  2.2870 -1.3316
 1247SOL     OW14054   7.225  11.796   4.641  0.4226 -0.0324 -0.5703
 1247SOL    HW114055   7.249  11.714   4.685  0.9455  0.6409  0.4251
 1247SOL    HW214056   7.133  11.810   4.665  0.8823  0.6658  0.8892
 1248SOL     OW14057   1.359  11.753   3.268 -0.0605 -0.1174 -0.6153
 1248SOL    HW114058   1.401  11.688   3.213  0.7000 -0.4277  0.3080
 1248SOL    HW214059   1.279  11.710   3.300 -0.6923  0.1913 -1.7307
 1249SOL     OW14060   1.847  12.547  10.223  0.0789 -0.3570 -0.4079
 1249SOL    HW114061   1.884  12.635  10.228  0.1886 -0.4067 -0.3397
 1249SOL    HW214062   1.866  12.518  10.134 -0.3977 -0.1179 -0.5879
 1250SOL     OW14063   3.268  10.649   9.815  0.1659  0.0151  0.2403
 1250SOL    HW114064   3.300  10.559   9.804  1.5464  0.5047  0.1036
 1250SOL    HW214065   3.286  10.669   9.907  0.2704  0.3194  0.1517
 1251SOL     OW14066   3.260  11.818   6.121  0.4826  0.2319 -0.1096
 1251SOL    HW114067   3.285  11.789   6.208 -2.5008 -0.2909  0.6766
 1251SOL    HW214068   3.211  11.745   6.084  2.4581  0.0814 -2.6649
 1252SOL     OW14069   6.057  10.162   9.062  0.3293  0.2851 -0.2301
 1252SOL    HW114070   6.090  10.083   9.018  0.9830  0.6979 -0.4852
 1252SOL    HW214071   6.110  10.169   9.142  0.6626  0.7859 -0.4935
 1253SOL     OW14072  11.258  10.120   1.640 -0.0261  0.0019 -0.3507
 1253SOL    HW114073  11.303  10.041   1.666 -2.8573 -1.7282 -0.2613
 1253SOL    HW214074  11.195  10.092   1.574 -1.7079  1.9912  0.2733
 1254SOL     OW14075   8.174   9.153  11.818  0.2282 -0.0733  0.4679
 1254SOL    HW114076   8.188   9.107  11.900  0.5885  0.2191  0.5758
 1254SOL    HW214077   8.219   9.237  11.830  1.1333 -0.4150 -0.3850
 1255SOL     OW14078  11.441   5.710   6.366  0.3568 -0.4141  0.5116
 1255SOL    HW114079  11.445   5.660   6.285 -3.6304 -0.9222  0.3916
 1255SOL    HW214080  11.415   5.798   6.340  0.6210 -0.1364  1.1474
 1256SOL     OW14081   0.640   6.899   2.760  0.5569  0.1602 -0.5121
 1256SOL    HW114082   0.618   6.990   2.739  1.9093  0.5569 -0.3129
 1256SOL    HW214083   0.652   6.899   2.855 -1.2602 -0.6655 -0.2373
 1257SOL     OW14084  11.227   3.556   7.406 -0.0977 -0.9381  0.5734
 1257SOL    HW114085  11.284   3.622   7.365  0.4857 -1.0587  1.1687
 1257SOL    HW214086  11.156   3.543   7.343 -0.4754  0.6025  0.6516
 1258SOL     OW14087   4.810   7.838   9.828 -0.5838  0.1029 -0.1075
 1258SOL    HW114088   4.796   7.869   9.918 -1.3785  0.7974 -0.4602
 1258SOL    HW214089   4.747   7.887   9.776 -1.0953 -1.2982 -0.8497
 1259SOL     OW14090  11.032   0.124   6.657 -0.3755  0.1904 -0.1852
 1259SOL    HW114091  11.101   0.177   6.617  0.8858 -0.0781  1.5202
 1259SOL    HW214092  10.975   0.187   6.700 -0.8379  0.3592 -1.0101
 1260SOL     OW14093   0.175   8.505   5.127  0.2911  0.3268  0.4383
 1260SOL    HW114094   0.221   8.452   5.192  0.7894  1.7255  1.2689
 1260SOL    HW214095   0.206   8.594   5.142  0.1009  0.7594 -1.4663
 1261SOL     OW14096   2.619   4.729  10.147  0.6440 -0.0629 -0.1727
 1261SOL    HW114097   2.543   4.787  10.137  1.2562  0.5473 -1.5254
 1261SOL    HW214098   2.637   4.698  10.058  2.3298  0.2435  0.0441
 1262SOL     OW14099   5.572   2.138   4.133 -0.2638 -0.7354 -0.5184
 1262SOL    HW114100   5.502   2.076   4.152 -0.7208  0.4698  2.3496
 1262SOL    HW214101   5.637   2.087   4.084 -1.0602 -3.2208  0.8090
 1263SOL     OW14102   9.960   7.664   8.087  0.0982  0.6132 -0.2486
 1263SOL    HW114103  10.006   7.691   8.007 -0.4062  0.4188 -0.6138
 1263SOL    HW214104   9.911   7.742   8.114  0.1219  0.6231 -0.2337
 1264SOL     OW14105   9.823   8.062  12.839  0.1984 -0.5250  0.0180
 1264SOL    HW114106   9.808   8.019  12.923 -1.3313  0.4478  0.2887
 1264SOL    HW214107   9.834   8.155  12.861 -1.3458 -0.0824 -0.9158
 1265SOL     OW14108   0.203   8.360  12.438 -0.0531 -0.0528  0.2806
 1265SOL    HW114109   0.258   8.435  12.415  1.5712 -0.2250  3.1354
 1265SOL    HW214110   0.158   8.387  12.518 -1.6015 -1.1524 -0.1860
 1266SOL     OW14111   9.974   1.258   8.396  0.1784 -0.1172  0.4974
 1266SOL    HW114112  10.056   1.215   8.372  0.6158  1.2150 -0.5796
 1266SOL    HW214113  10.001   1.344   8.429 -0.7708  0.2993  0.2309
 1267SOL     OW14114  11.752   4.801   9.693 -1.2908  0.2155 -0.4699
 1267SOL    HW114115  11.767   4.708   9.677 -0.6297  0.0318  1.0008
 1267SOL    HW214116  11.825   4.845   9.651 -0.9365 -0.0342 -0.1186
 1268SOL     OW14117   4.768   2.198   9.774 -0.2208  0.4471 -0.3045
 1268SOL    HW114118   4.859   2.177   9.752 -0.5841  0.5435 -2.0584
 1268SOL    HW214119   4.774   2.254   9.852  1.0304 -1.9319  1.4553
 1269SOL     OW14120   1.791  11.002  10.764  0.1591  0.2095  0.0682
 1269SOL    HW114121   1.765  11.085  10.724  0.3039  0.0557 -0.3495
 1269SOL    HW214122   1.774  10.936  10.697  2.3350  0.1891 -0.5268
 1270SOL     OW14123  11.208   8.996   7.416 -0.6925  0.0107  0.0407
 1270SOL    HW114124  11.302   8.992   7.396 -0.6507  2.6295 -0.6242
 1270SOL    HW214125  11.200   9.068   7.478 -2.4844  1.3315 -1.6124
 1271SOL     OW14126  12.615   8.016  11.067  0.0676 -0.2455 -0.4078
 1271SOL    HW114127  12.652   8.063  10.991  0.6422 -0.9090 -0.5516
 1271SOL    HW214128  12.601   8.084  11.132  0.9364  0.1295 -0.5968
 1272SOL     OW14129  10.613   2.373   2.429 -0.7822 -0.2219  0.0662
 1272SOL    HW114130  10.704   2.385   2.456 -0.5810 -0.8975 -0.3032
 1272SOL    HW214131  10.603   2.431   2.354 -1.0382  0.8471  0.8989
 1273SOL     OW14132  11.687   7.459   8.166 -0.4619  0.1036  0.6320
 1273SOL    HW114133  11.691   7.478   8.072 -1.5025  0.7257  0.7127
 1273SOL    HW214134  11.698   7.364   8.171 -0.6212  0.0417 -0.1287
 1274SOL     OW14135   6.901  10.573   7.381  0.2712  0.1255 -0.0520
 1274SOL    HW114136   6.871  10.599   7.468  1.9809 -0.2689  0.6989
 1274SOL    HW214137   6.917  10.656   7.335 -1.9274  0.3492 -0.5195
 1275SOL     OW14138  11.408   0.008   5.982 -0.4113  0.5868  0.7885
 1275SOL    HW114139  11.468   0.040   6.049 -0.3025 -1.5846  1.8051
 1275SOL    HW214140  11.384   0.086   5.932  1.0508  1.9476  2.1072
 1276SOL     OW14141  10.887   3.489   8.978  0.3425 -0.9090 -0.2200
 1276SOL    HW114142  10.795   3.493   9.002 -0.2607 -1.0912 -2.2975
 1276SOL    HW214143  10.922   3.416   9.028 -0.3292 -0.1546  1.4383
 1277SOL     OW14144   9.415  11.405  12.775  0.1309  0.8666 -0.5121
 1277SOL    HW114145   9.418  11.389  12.870 -0.9170  2.4049 -0.1742
 1277SOL    HW214146   9.474  11.480  12.762 -0.5373  1.3392 -0.8957
 1278SOL     OW14147  11.675  11.137   0.600 -0.0745  0.1841 -0.5146
 1278SOL    HW114148  11.635  11.109   0.682  1.1133  0.0932  0.0574
 1278SOL    HW214149  11.612  11.113   0.533 -1.2320  0.6043  0.4028
 1279SOL     OW14150   5.048   7.334  11.577  0.3393  0.0566  0.0748
 1279SOL    HW114151   5.043   7.260  11.516 -4.0112  0.8628 -0.8912
 1279SOL    HW214152   4.971   7.387  11.556  1.0300  2.7361  3.4405
 1280SOL     OW14153   4.497   3.615   4.913 -0.0199  0.1256 -0.1865
 1280SOL    HW114154   4.434   3.654   4.974 -0.8209 -1.0875 -0.2077
 1280SOL    HW214155   4.549   3.556   4.967  0.8363  0.8088 -0.2526
 1281SOL     OW14156   2.478   4.729  12.323  0.4069  0.2982 -0.0931
 1281SOL    HW114157   2.539   4.698  12.390  2.1912  3.2294 -0.2119
 1281SOL    HW214158   2.520   4.707  12.240  1.0373  1.7000 -0.1751
 1282SOL     OW14159   4.965  12.960   2.572  0.8612 -0.6602  0.3539
 1282SOL    HW114160   4.999  13.029   2.515 -0.0411 -0.2904  0.2493
 1282SOL    HW214161   4.968  12.997   2.660 -0.4926 -0.1177  0.1923
 1283SOL     OW14162   9.093   6.989   5.563 -0.0466 -0.1408 -0.3946
 1283SOL    HW114163   9.037   6.959   5.491 -0.3694 -0.2499 -0.1032
 1283SOL    HW214164   9.114   7.079   5.541 -1.1650  0.2320 -0.0172
 1284SOL     OW14165   0.486   2.743   6.782  0.0477 -0.1888 -0.2161
 1284SOL    HW114166   0.429   2.701   6.717 -0.3481 -0.0982  0.0680
 1284SOL    HW214167   0.433   2.814   6.818  0.2066 -0.3315  0.3128
 1285SOL     OW14168   7.465   7.609   6.957 -0.1823 -0.5775  0.6397
 1285SOL    HW114169   7.483   7.637   7.047 -2.9591 -0.1956  1.1638
 1285SOL    HW214170   7.472   7.689   6.905 -0.4095 -0.4326  0.8307
 1286SOL     OW14171  11.576   0.471   6.612  0.0801 -0.2992 -0.1742
 1286SOL    HW114172  11.550   0.491   6.702  0.8719 -2.1383  0.5278
 1286SOL    HW214173  11.529   0.535   6.558 -1.5126 -0.0247  1.4348
 1287SOL     OW14174   6.103   9.380   2.150 -0.8312  0.1063 -0.2343
 1287SOL    HW114175   6.057   9.307   2.191  0.7433 -1.2484 -0.7807
 1287SOL    HW214176   6.195   9.367   2.174 -0.3662  1.3017 -1.2654
 1288SOL     OW14177  11.099   7.194  11.307 -0.6976  0.2826  0.3246
 1288SOL    HW114178  11.045   7.128  11.350  1.2431 -1.1891  0.5896
 1288SOL    HW214179  11.134   7.247  11.378  0.9984 -0.9806  0.4835
 1289SOL     OW14180   2.931   9.920   5.897 -0.4506  0.2975  0.1361
 1289SOL    HW114181   2.918  10.005   5.940 -0.0436  0.6795 -0.4691
 1289SOL    HW214182   2.927   9.940   5.803 -4.0123 -0.9254 -0.1147
 1290SOL     OW14183   6.826   5.470   7.968 -0.2431 -0.2647  0.0799
 1290SOL    HW114184   6.900   5.457   7.908 -0.6783 -2.5498 -0.0494
 1290SOL    HW214185   6.851   5.426   8.048 -0.7248  0.5682  0.7089
 1291SOL     OW14186   3.630   3.654   9.730  0.3123  0.0840 -0.0743
 1291SOL    HW114187   3.688   3.676   9.803  0.0556 -0.5033  0.3169
 1291SOL    HW214188   3.675   3.583   9.684  0.4728  0.4528 -0.4882
 1292SOL     OW14189   9.328  11.599  10.662 -0.2379 -0.1104 -0.0284
 1292SOL    HW114190   9.235  11.610  10.639 -0.2576 -2.0229 -1.0917
 1292SOL    HW214191   9.361  11.688  10.673 -1.3990  0.7923 -3.0051
 1293SOL     OW14192   2.929  12.094   4.711 -0.0949 -0.1784 -0.3760
 1293SOL    HW114193   2.927  12.105   4.807 -0.4434 -0.6569 -0.3224
 1293SOL    HW214194   2.838  12.109   4.684 -0.1893 -0.9788 -0.5197
 1294SOL     OW14195   2.906   2.415   3.130 -0.1387 -0.1636 -0.4143
 1294SOL    HW114196   2.868   2.503   3.128  2.8523  1.4556  2.8694
 1294SOL    HW214197   2.835   2.359   3.161 -2.1227  0.9554 -2.5931
 1295SOL     OW14198   9.273   3.239   4.680  0.1320  0.3885  0.1122
 1295SOL    HW114199   9.245   3.318   4.727 -0.4940 -0.1682  0.7054
 1295SOL    HW214200   9.207   3.174   4.702  0.0464 -0.0034 -1.2561
 1296SOL     OW14201   3.062   0.989   8.312  0.0701  0.1751 -0.4264
 1296SOL    HW114202   3.057   1.074   8.355  0.4398  0.5092 -1.0297
 1296SOL    HW214203   3.132   0.998   8.248  0.0082 -0.5363 -0.6063
 1297SOL     OW14204   0.251   3.224  11.681  0.1341  0.0080 -0.6596
 1297SOL    HW114205   0.295   3.217  11.596 -0.2868 -0.4134 -0.8443
 1297SOL    HW214206   0.206   3.308  11.677  1.1668  0.5970 -0.3488
 1298SOL     OW14207   1.233   2.203   0.203  0.7902  0.1713 -0.5032
 1298SOL    HW114208   1.267   2.188   0.292  1.2293 -0.3633 -0.7561
 1298SOL    HW214209   1.309   2.188   0.146  0.1464 -1.0491 -1.0813
 1299SOL     OW14210  11.592   1.775   2.364 -0.6310 -0.4554  0.3805
 1299SOL    HW114211  11.504   1.804   2.387 -0.2612  0.6028  0.5132
 1299SOL    HW214212  11.578   1.692   2.318 -1.5463 -1.3080  2.0926
 1300SOL     OW14213   1.712   1.742   3.000 -0.2993 -0.0162 -0.2318
 1300SOL    HW114214   1.687   1.651   2.980  1.2704 -0.5263 -0.0388
 1300SOL    HW214215   1.676   1.759   3.086 -0.1530 -0.6580 -0.0382
 1301SOL     OW14216  10.928   5.736  10.039 -0.2281 -0.6752  0.5354
 1301SOL    HW114217  11.003   5.779  10.080 -0.6829  1.0706 -0.4055
 1301SOL    HW214218  10.962   5.703   9.956 -0.1089 -1.3692  0.8504
 1302SOL     OW14219   0.759   7.149   4.928 -0.7700  0.2999  0.7157
 1302SOL    HW114220   0.738   7.068   4.976 -1.4066 -0.0143 -0.0766
 1302SOL    HW214221   0.809   7.119   4.852  1.6105  0.9344  1.9498
 1303SOL     OW14222   0.393   3.476   1.187 -0.3288  0.1388 -0.3073
 1303SOL    HW114223   0.431   3.435   1.109  1.1734 -1.5192  1.2044
 1303SOL    HW214224   0.369   3.564   1.159  1.0944 -0.0650 -2.3843
 1304SOL     OW14225   5.480   7.846   3.831  0.2038  0.1068  0.4585
 1304SOL    HW114226   5.575   7.857   3.826  0.2399  0.0084  0.9005
 1304SOL    HW214227   5.456   7.808   3.746  0.9098 -2.4007  1.3083
 1305SOL     OW14228   8.179   8.183   5.577  0.5251 -0.1100 -0.6565
 1305SOL    HW114229   8.250   8.159   5.518  2.3463  1.2744  0.8271
 1305SOL    HW214230   8.223   8.219   5.654 -1.7923  0.2857  0.5825
 1306SOL     OW14231   3.901   3.366  12.408  0.4989  0.1334 -0.3801
 1306SOL    HW114232   3.846   3.359  12.486 -0.7814  0.5532 -1.1971
 1306SOL    HW214233   3.840   3.349  12.335  0.8201  3.2407 -1.5085
 1307SOL     OW14234   4.983  12.107   6.614  0.4089 -0.0869 -0.1436
 1307SOL    HW114235   4.984  12.016   6.645 -1.6388  0.2520  1.0846
 1307SOL    HW214236   4.935  12.154   6.682  0.6591  1.7587 -1.2102
 1308SOL     OW14237   1.872   8.348   7.472 -0.0897  0.0907 -0.1005
 1308SOL    HW114238   1.894   8.271   7.523 -0.3136  0.6974  0.9434
 1308SOL    HW214239   1.946   8.359   7.411 -0.0561 -0.9220 -0.2608
 1309SOL     OW14240   9.728   2.409  12.508  0.6345  0.3701  0.0475
 1309SOL    HW114241   9.679   2.363  12.577  1.0677 -0.6111 -0.2686
 1309SOL    HW214242   9.717   2.354  12.431  0.2069  1.4295 -0.6638
 1310SOL     OW14243   1.138   2.862   5.890 -0.2853 -0.0739  0.5173
 1310SOL    HW114244   1.048   2.896   5.892  0.4888  2.2060  3.0057
 1310SOL    HW214245   1.143   2.802   5.964  0.2457 -0.2261  0.3612
 1311SOL     OW14246   9.010  10.001   5.557  0.2097 -0.4873  0.0604
 1311SOL    HW114247   9.046   9.916   5.531 -0.8725 -0.9249 -0.0751
 1311SOL    HW214248   8.976   9.988   5.645  1.3014  0.2173  0.6160
 1312SOL     OW14249   1.043  11.913   0.011 -0.5165  0.0702 -0.2386
 1312SOL    HW114250   1.025  11.986  -0.049 -1.5585 -0.9178 -1.1973
 1312SOL    HW214251   0.957  11.876   0.029 -0.2314  0.3188  1.9184
 1313SOL     OW14252   1.184   0.142   0.969 -0.1303 -0.1697  0.3600
 1313SOL    HW114253   1.257   0.102   0.922  0.9210  1.6180  0.3522
 1313SOL    HW214254   1.170   0.226   0.924 -1.5105 -0.0184  1.0130
 1314SOL     OW14255   4.102   0.064   4.285 -0.6904 -0.3517 -0.4371
 1314SOL    HW114256   4.082  -0.019   4.328 -0.7169  0.8903  2.1055
 1314SOL    HW214257   4.197   0.070   4.287 -0.7014 -0.1991 -0.3397
 1315SOL     OW14258   4.115  11.290  12.668 -0.6844 -0.5683 -0.4890
 1315SOL    HW114259   4.031  11.287  12.712  0.5156 -2.0864  1.8665
 1315SOL    HW214260   4.109  11.225  12.598 -1.4452 -0.6496 -0.3448
 1316SOL     OW14261   8.668   0.204   1.298 -0.7438 -0.1555  0.0982
 1316SOL    HW114262   8.639   0.162   1.379  0.9017  0.8056  1.2259
 1316SOL    HW214263   8.720   0.138   1.253 -0.5501 -0.2619  0.4784
 1317SOL     OW14264   3.786  12.131  11.189  0.3851 -0.1786 -0.1969
 1317SOL    HW114265   3.699  12.168  11.205 -0.5501 -1.7581 -1.3849
 1317SOL    HW214266   3.845  12.188  11.238 -1.4582 -0.0141  1.9956
 1318SOL     OW14267  11.798   7.368  11.433 -0.2147 -0.0601  0.4268
 1318SOL    HW114268  11.793   7.455  11.471 -1.5646  0.2495 -0.3811
 1318SOL    HW214269  11.760   7.310  11.499 -0.5869  0.1682  0.4152
 1319SOL     OW14270   7.521   1.958  12.746  0.1762  0.4230  0.4804
 1319SOL    HW114271   7.595   1.952  12.807 -0.7423 -0.8798  1.4991
 1319SOL    HW214272   7.491   2.049  12.755  1.7210  1.0230 -0.0674
 1320SOL     OW14273   2.239  10.816   7.745 -0.0706  0.2344 -0.1110
 1320SOL    HW114274   2.219  10.890   7.802  1.7862  0.1019  0.7682
 1320SOL    HW214275   2.183  10.745   7.778  1.2000  0.0653  1.8137
 1321SOL     OW14276   1.941   3.752   6.493 -0.0481 -0.2852  0.0127
 1321SOL    HW114277   2.012   3.689   6.479 -1.0611 -1.3580 -0.5238
 1321SOL    HW214278   1.957   3.822   6.430  1.0466 -0.0288  0.5541
 1322SOL     OW14279   2.401   6.355   4.116 -0.3275  0.0143 -0.1400
 1322SOL    HW114280   2.490   6.349   4.152  0.0840  1.1561 -0.9262
 1322SOL    HW214281   2.398   6.441   4.075 -1.2259 -0.7044 -1.6327
 1323SOL     OW14282  11.155   0.087   4.319  0.3621  0.1158  0.1798
 1323SOL    HW114283  11.113   0.108   4.236  0.4163 -1.2438 -0.2116
 1323SOL    HW214284  11.083   0.074   4.380  0.3339  2.2538  0.6826
 1324SOL     OW14285   2.006   5.703  11.436 -0.1065  0.2737  0.2810
 1324SOL    HW114286   2.071   5.768  11.408  0.1252 -0.7140 -1.5949
 1324SOL    HW214287   2.051   5.650  11.501 -0.6629  2.6246  2.7947
 1325SOL     OW14288   9.765   5.037   8.837 -0.5508  0.4573  0.2964
 1325SOL    HW114289   9.844   4.983   8.841 -1.5752 -1.2407 -1.0811
 1325SOL    HW214290   9.794   5.118   8.795  0.3595 -0.3775 -0.7435
 1326SOL     OW14291   9.568  11.699   7.887  0.5954 -0.3197 -0.1501
 1326SOL    HW114292   9.636  11.653   7.936  0.5249  0.2517  0.5089
 1326SOL    HW214293   9.565  11.786   7.928 -1.9607 -0.9724  1.2335
 1327SOL     OW14294   3.755   2.736   1.540 -0.1888 -0.4507  0.3880
 1327SOL    HW114295   3.691   2.770   1.478  0.9893 -0.0392 -0.6560
 1327SOL    HW214296   3.812   2.811   1.559 -0.5883 -0.5394  2.0843
 1328SOL     OW14297   2.978  11.428   7.374  0.0860 -0.0627 -0.2030
 1328SOL    HW114298   2.941  11.340   7.368 -1.6142  0.6502 -1.2413
 1328SOL    HW214299   2.988  11.444   7.468  0.1635 -1.2585  0.0036
 1329SOL     OW14300   4.831   9.783   9.220 -0.3272 -0.4065 -0.0505
 1329SOL    HW114301   4.896   9.727   9.260 -0.2891 -2.0989 -2.2602
 1329SOL    HW214302   4.764   9.795   9.287  1.7821  0.6821  1.9732
 1330SOL     OW14303   8.040   3.078   5.711  0.3568  0.4129 -0.2222
 1330SOL    HW114304   8.038   3.044   5.622  1.6376 -0.4895  0.0551
 1330SOL    HW214305   7.993   3.161   5.706 -1.4268 -0.6007 -1.2753
 1331SOL     OW14306   5.141   2.572   8.934  0.2647 -0.0529  0.4291
 1331SOL    HW114307   5.132   2.499   8.873  1.7219  0.2110 -0.1258
 1331SOL    HW214308   5.145   2.531   9.021  2.4175 -0.7786  0.0435
 1332SOL     OW14309   8.515   6.873   4.702  0.2975 -0.2292 -0.0730
 1332SOL    HW114310   8.607   6.850   4.716  0.7057  0.9327 -0.6636
 1332SOL    HW214311   8.496   6.938   4.770  0.5084  0.9609 -1.1117
 1333SOL     OW14312   9.104  11.364   8.149  0.1380  0.0088 -0.1130
 1333SOL    HW114313   9.120  11.309   8.226 -0.3291 -0.0528 -0.0561
 1333SOL    HW214314   9.108  11.453   8.183 -0.5447 -0.0307  0.0798
 1334SOL     OW14315   0.430  10.532   9.447  0.0070 -0.0672 -0.6990
 1334SOL    HW114316   0.491  10.576   9.506  0.5956  0.9467 -2.0123
 1334SOL    HW214317   0.379  10.602   9.407 -3.7366 -0.9706  2.0203
 1335SOL     OW14318   3.803  12.339   9.978  0.5989  0.0210  0.6770
 1335SOL    HW114319   3.872  12.273   9.977  0.2827 -0.3801  2.2698
 1335SOL    HW214320   3.788  12.356  10.071  1.3625  3.1145  0.3305
 1336SOL     OW14321   2.222   8.750   3.464 -0.3239  0.7742  0.2889
 1336SOL    HW114322   2.308   8.712   3.446 -0.5258  0.5289 -0.1657
 1336SOL    HW214323   2.174   8.742   3.382  0.1323  3.3890 -0.2975
 1337SOL     OW14324  11.090   0.430   2.174  0.0138 -0.3738 -0.6121
 1337SOL    HW114325  11.055   0.479   2.248 -0.5056 -0.4766 -0.7899
 1337SOL    HW214326  11.185   0.442   2.181 -0.0797  0.3276 -0.4219
 1338SOL     OW14327   9.787   5.615   3.066  0.7076 -0.1985 -0.1792
 1338SOL    HW114328   9.714   5.619   3.128  0.5682 -0.0634 -0.3521
 1338SOL    HW214329   9.837   5.538   3.092  1.0060  0.2144  0.5100
 1339SOL     OW14330   2.702   7.739   9.675 -0.4977 -0.3865  0.0743
 1339SOL    HW114331   2.658   7.662   9.639  0.9917 -0.7162 -1.1524
 1339SOL    HW214332   2.648   7.813   9.648 -1.8073 -0.9436  1.0475
 1340SOL     OW14333   8.139   0.272   8.284  0.2627 -0.1396 -0.0757
 1340SOL    HW114334   8.107   0.342   8.340 -0.6146 -0.9267  0.4468
 1340SOL    HW214335   8.112   0.297   8.195 -0.6078 -0.1139  0.1883
 1341SOL     OW14336   6.603   1.789   7.028  0.2199 -0.3021 -0.3967
 1341SOL    HW114337   6.643   1.837   6.955  1.4544 -0.0367  0.4301
 1341SOL    HW214338   6.572   1.707   6.988  1.0137 -0.2326 -1.1933
 1342SOL     OW14339   6.496  11.866   7.316 -0.0477  0.1168  0.0187
 1342SOL    HW114340   6.544  11.941   7.279  0.3602 -0.2288 -0.1607
 1342SOL    HW214341   6.506  11.797   7.250 -0.6359 -0.0167  0.0720
 1343SOL     OW14342   3.989  11.394   9.901 -1.1552  0.5465 -0.2993
 1343SOL    HW114343   3.956  11.481   9.926 -1.1946  1.0758 -2.0263
 1343SOL    HW214344   3.928  11.365   9.834 -0.4503 -0.2959 -0.5858
 1344SOL     OW14345   6.878   8.550   3.742  0.2911 -0.4929 -0.2290
 1344SOL    HW114346   6.939   8.611   3.700 -0.1334 -0.0879 -0.2678
 1344SOL    HW214347   6.799   8.555   3.688 -1.0290  1.5886  1.7442
 1345SOL     OW14348   4.417   0.328  12.648  0.5952  0.0944 -0.0643
 1345SOL    HW114349   4.415   0.404  12.706  0.6634  0.5177 -0.6073
 1345SOL    HW214350   4.506   0.295  12.655  0.2383 -0.6617  1.0881
 1346SOL     OW14351  12.335  10.936  10.998  0.3990 -0.4023 -0.6937
 1346SOL    HW114352  12.325  10.879  10.922  1.2648 -0.5323 -0.7135
 1346SOL    HW214353  12.423  10.918  11.031 -0.1868 -0.8648  0.7485
 1347SOL     OW14354  10.866  12.217   5.492 -1.2056 -0.5418 -0.4078
 1347SOL    HW114355  10.792  12.251   5.542  0.7993  0.9041  1.7985
 1347SOL    HW214356  10.908  12.295   5.455  0.7784 -0.9729  0.7624
 1348SOL     OW14357   3.825   3.320  10.390 -0.2211  0.1296 -0.3924
 1348SOL    HW114358   3.918   3.343  10.392 -0.0441 -0.5457 -0.8506
 1348SOL    HW214359   3.816   3.262  10.315 -0.8119 -0.6646  0.2810
 1349SOL     OW14360   3.904   7.483   3.786 -0.1306 -0.5687 -0.5467
 1349SOL    HW114361   3.850   7.430   3.845  2.0544  1.0397  3.2413
 1349SOL    HW214362   3.852   7.562   3.770  0.3161  0.3036  1.8357
 1350SOL     OW14363  11.627   0.177   8.274  0.0141 -0.2712 -0.1433
 1350SOL    HW114364  11.601   0.223   8.194  0.0915 -0.7976 -0.4740
 1350SOL    HW214365  11.577   0.095   8.273  1.0078 -0.8913 -0.3435
 1351SOL     OW14366  11.026   5.434   5.160  0.3287 -0.0100 -0.0435
 1351SOL    HW114367  11.022   5.529   5.167 -2.3710 -0.0447 -0.0996
 1351SOL    HW214368  11.006   5.416   5.068  0.4009 -0.6524  0.0594
 1352SOL     OW14369   5.810   0.546   7.308  0.5250  0.3041 -0.3690
 1352SOL    HW114370   5.867   0.550   7.385 -1.0852 -0.7100  0.9399
 1352SOL    HW214371   5.868   0.568   7.234  2.3605  0.2566  0.9798
 1353SOL     OW14372   0.583   5.954   7.587 -0.1358  0.0435  0.2926
 1353SOL    HW114373   0.506   5.899   7.573  0.3265 -0.1048 -1.9672
 1353SOL    HW214374   0.636   5.906   7.651 -2.0625  0.3685  2.2349
 1354SOL     OW14375  10.085   6.757   2.675  0.0457  0.0725  0.1652
 1354SOL    HW114376  10.093   6.800   2.589 -0.2482  0.6937  0.4405
 1354SOL    HW214377  10.149   6.801   2.730 -0.4633  0.3729  0.5298
 1355SOL     OW14378   0.990   6.093  11.223  0.0875 -0.5839  0.6013
 1355SOL    HW114379   0.913   6.044  11.253 -0.9253  0.8946  0.5291
 1355SOL    HW214380   1.041   6.109  11.303  0.2415 -1.4123  0.6782
 1356SOL     OW14381   9.756  10.781  10.385  0.2585  0.6490  0.3763
 1356SOL    HW114382   9.784  10.867  10.416  0.1157  1.3294 -1.2933
 1356SOL    HW214383   9.745  10.792  10.290 -0.8724 -0.9048  0.2914
 1357SOL     OW14384  10.488   2.177   2.567  0.6052 -0.0172 -0.8011
 1357SOL    HW114385  10.393   2.173   2.553  0.4691 -0.9813  0.2075
 1357SOL    HW214386  10.517   2.252   2.517 -0.5197 -0.4215 -2.1065
 1358SOL     OW14387   3.131   4.199   8.873 -0.8044  0.0208 -0.0399
 1358SOL    HW114388   3.221   4.207   8.843 -1.1386  2.3721 -0.6080
 1358SOL    HW214389   3.078   4.235   8.801 -2.0881 -0.0494  0.8292
 1359SOL     OW14390   6.174   2.588   5.200  0.4019  0.1580  0.2184
 1359SOL    HW114391   6.121   2.556   5.126 -0.6209  0.4914  0.7928
 1359SOL    HW214392   6.245   2.637   5.158  1.1211 -1.5182 -0.6220
 1360SOL     OW14393   7.153  10.660  10.860  0.4577 -0.3472  0.2033
 1360SOL    HW114394   7.086  10.722  10.831  1.2343 -0.1484 -1.2783
 1360SOL    HW214395   7.225  10.715  10.892  1.0892 -0.4334 -0.9818
 1361SOL     OW14396   0.642  12.727  12.001  0.2451  0.3848  0.4164
 1361SOL    HW114397   0.727  12.724  11.956 -0.2430 -0.1203 -0.4836
 1361SOL    HW214398   0.578  12.734  11.931 -0.6038 -1.3990  0.9552
 1362SOL     OW14399   3.061   1.166   7.903 -0.1621 -0.5713  0.7312
 1362SOL    HW114400   3.076   1.084   7.856  1.5808  0.4894 -0.7153
 1362SOL    HW214401   3.126   1.227   7.867 -1.7475  1.6285  1.3325
 1363SOL     OW14402   1.512   1.226   3.270  0.4279 -0.6428 -0.6017
 1363SOL    HW114403   1.504   1.321   3.275  0.7174 -0.6663  1.3674
 1363SOL    HW214404   1.573   1.210   3.199 -0.3783  0.5822 -1.6077
 1364SOL     OW14405   1.245   1.340   6.662 -0.1225 -0.2532  0.0572
 1364SOL    HW114406   1.284   1.262   6.623  0.2026  0.2310 -0.5938
 1364SOL    HW214407   1.320   1.397   6.680 -0.2498 -0.5051  1.5009
 1365SOL     OW14408   2.245   2.590   2.407 -0.0331  0.2870  0.6763
 1365SOL    HW114409   2.173   2.653   2.410 -1.0106 -0.8064  0.8179
 1365SOL    HW214410   2.221   2.522   2.471  0.8252 -0.4056  0.2902
 1366SOL     OW14411   4.168   3.542  12.467 -0.2573 -0.3279  0.3564
 1366SOL    HW114412   4.095   3.482  12.450  0.4207 -1.0916  0.0833
 1366SOL    HW214413   4.241   3.485  12.492  0.2804  0.4183  0.5196
 1367SOL     OW14414   8.898  10.904   1.111  0.2937 -0.2245 -0.0954
 1367SOL    HW114415   8.932  10.815   1.101 -0.6634 -0.6220  0.1002
 1367SOL    HW214416   8.831  10.897   1.180  1.0318  0.8714  0.7863
 1368SOL     OW14417   2.874   7.037   0.958 -0.4422  0.0770  0.0474
 1368SOL    HW114418   2.829   7.017   1.039 -2.8622 -0.2488 -1.2785
 1368SOL    HW214419   2.944   6.973   0.952 -1.1364 -0.8145  1.1660
 1369SOL     OW14420  12.612   3.331   8.987 -0.1523  0.2796  0.4584
 1369SOL    HW114421  12.630   3.360   8.898 -0.2732 -0.3992  0.2064
 1369SOL    HW214422  12.691   3.353   9.037 -0.0165  0.5008  0.1460
 1370SOL     OW14423  10.357   5.054   5.047  0.4867  0.0841 -0.7366
 1370SOL    HW114424  10.346   4.982   5.108 -1.3986  0.6580 -0.3364
 1370SOL    HW214425  10.343   5.015   4.961  3.2560 -0.7505 -0.9170
 1371SOL     OW14426   2.453   9.063   3.826  0.9847  0.3144  0.3641
 1371SOL    HW114427   2.409   9.023   3.751 -1.0731 -0.3977  1.8660
 1371SOL    HW214428   2.425   9.155   3.825 -0.0983  0.0086  0.9533
 1372SOL     OW14429   1.957   0.653   7.438 -0.8795  0.1083  0.1205
 1372SOL    HW114430   2.021   0.585   7.460 -1.0610  0.5046  1.9949
 1372SOL    HW214431   1.941   0.699   7.520 -1.3002  1.9849 -0.9539
 1373SOL     OW14432  10.799   8.374   8.790  0.7793  0.3237 -0.2968
 1373SOL    HW114433  10.879   8.323   8.800  1.2447  1.2530  1.1364
 1373SOL    HW214434  10.782   8.375   8.696  1.2627 -1.6447 -0.4457
 1374SOL     OW14435   3.845   8.877   7.179  0.3574 -0.7048 -0.2141
 1374SOL    HW114436   3.823   8.955   7.230 -0.4001 -0.8584 -0.2923
 1374SOL    HW214437   3.824   8.804   7.237  0.2200 -0.8637 -0.4617
 1375SOL     OW14438   3.158   5.403  10.393  0.2093  0.0776  0.1790
 1375SOL    HW114439   3.133   5.475  10.335 -0.6645 -0.9320 -0.7334
 1375SOL    HW214440   3.207   5.445  10.464 -1.9854  1.8365  0.7496
 1376SOL     OW14441  10.188   6.422   1.707 -0.5790  0.5626 -0.3391
 1376SOL    HW114442  10.254   6.466   1.761 -0.1966  0.3666 -0.6433
 1376SOL    HW214443  10.230   6.340   1.680 -0.6693  0.7783 -1.1458
 1377SOL     OW14444   4.200   9.059   1.645 -0.0929  0.4055 -0.4684
 1377SOL    HW114445   4.294   9.041   1.645  0.1211  1.4750 -0.7568
 1377SOL    HW214446   4.194   9.154   1.637 -1.1830  0.4541  0.7553
 1378SOL     OW14447   9.402   7.450   4.058  0.5917 -0.3855  0.5610
 1378SOL    HW114448   9.360   7.410   4.134  1.2486 -0.9451  0.6456
 1378SOL    HW214449   9.473   7.503   4.095  0.1431  0.3420  0.4056
 1379SOL     OW14450   8.792   7.140   4.802  0.4273 -0.2119 -0.5839
 1379SOL    HW114451   8.835   7.088   4.734 -1.3774  0.3747 -2.2381
 1379SOL    HW214452   8.813   7.093   4.883  1.1733 -1.9450 -1.7038
 1380SOL     OW14453  12.873   2.189   1.657 -0.1908 -0.3791 -0.0916
 1380SOL    HW114454  12.822   2.222   1.583  1.4203  1.5905 -0.4311
 1380SOL    HW214455  12.929   2.121   1.619  2.3825  2.2389 -1.4101
 1381SOL     OW14456  10.891   2.272   2.823  0.4157  0.2013 -0.1027
 1381SOL    HW114457  10.802   2.236   2.821  0.4043  0.1400  0.7959
 1381SOL    HW214458  10.946   2.202   2.788  0.2158 -0.1465  0.2536
 1382SOL     OW14459  12.374   6.007   0.593  0.2759  0.2041 -0.1422
 1382SOL    HW114460  12.431   6.025   0.519 -0.4909 -2.6865 -1.5744
 1382SOL    HW214461  12.426   5.952   0.651 -0.2037 -0.3723 -0.2407
 1383SOL     OW14462   0.336   8.915   6.223  0.0430  0.4777  0.5006
 1383SOL    HW114463   0.310   8.878   6.307  0.1720 -3.8742 -1.0861
 1383SOL    HW214464   0.426   8.885   6.210  0.2372  1.5470 -0.9675
 1384SOL     OW14465   7.619   3.647   1.317 -0.5909  1.0411  0.6268
 1384SOL    HW114466   7.653   3.691   1.240 -1.5513  0.0145 -0.4143
 1384SOL    HW214467   7.696   3.603   1.355 -0.4464 -0.1461 -0.9315
 1385SOL     OW14468   8.721  10.745  11.273  0.4551 -0.3933 -0.0481
 1385SOL    HW114469   8.634  10.707  11.282  0.2806 -0.4278 -1.5609
 1385SOL    HW214470   8.768  10.716  11.351 -0.6536 -1.0255  0.4080
 1386SOL     OW14471   3.082   3.865   1.311  0.1233 -0.2358 -0.2795
 1386SOL    HW114472   3.128   3.852   1.394 -2.5028 -1.9928  1.0520
 1386SOL    HW214473   3.022   3.938   1.328 -2.1986 -2.1637  0.3381
 1387SOL     OW14474  10.695  12.753   3.508  0.6069  0.2759 -0.0101
 1387SOL    HW114475  10.645  12.832   3.489  0.0558 -0.0589  0.0198
 1387SOL    HW214476  10.643  12.707   3.575  1.4284  0.3787  0.7253
 1388SOL     OW14477   1.591  12.108   0.932  0.9680  0.4434 -0.2715
 1388SOL    HW114478   1.667  12.155   0.966  0.0064  0.7493  1.5574
 1388SOL    HW214479   1.522  12.174   0.928  0.0569 -0.4105  0.7414
 1389SOL     OW14480   4.352   3.494  10.286 -0.4624  0.2480 -0.0130
 1389SOL    HW114481   4.386   3.502  10.375  0.0012  1.6934 -0.2904
 1389SOL    HW214482   4.391   3.413  10.253  0.6648  0.5333  0.5609
 1390SOL     OW14483   6.529  12.579   4.685  0.3897  0.1564  0.0167
 1390SOL    HW114484   6.454  12.639   4.685  0.4011  0.2215  1.8477
 1390SOL    HW214485   6.558  12.577   4.776  1.4384 -1.3468 -0.3174
 1391SOL     OW14486   5.194   9.546   2.521 -1.0905 -0.2116 -0.4043
 1391SOL    HW114487   5.286   9.525   2.536 -0.9401  1.8637  2.3634
 1391SOL    HW214488   5.153   9.461   2.503  1.0796 -1.4144 -0.0821
 1392SOL     OW14489   1.760   4.613   5.246 -0.1154  0.1049 -0.1341
 1392SOL    HW114490   1.722   4.525   5.246  2.3786 -1.2222 -3.9205
 1392SOL    HW214491   1.833   4.608   5.308  1.1471 -1.1965 -1.6350
 1393SOL     OW14492  11.248   6.701   1.687  0.3331 -0.0911 -0.2999
 1393SOL    HW114493  11.259   6.795   1.702 -1.4838  0.0657  0.2887
 1393SOL    HW214494  11.154   6.686   1.694  0.6170 -2.0287 -0.0193
 1394SOL     OW14495   5.743   1.168   7.202 -0.1010  0.3384 -0.6323
 1394SOL    HW114496   5.803   1.236   7.234  0.1540  0.7622 -1.9792
 1394SOL    HW214497   5.789   1.086   7.218  0.6038  0.6285 -1.1332
 1395SOL     OW14498   6.683   3.459   4.872 -0.0648  0.2210  0.0412
 1395SOL    HW114499   6.687   3.456   4.968  0.9342  0.9595  0.0320
 1395SOL    HW214500   6.608   3.403   4.850 -1.2964  1.2496  1.3404
 1396SOL     OW14501   3.594  12.807   0.394 -0.8181 -0.0538 -0.8904
 1396SOL    HW114502   3.668  12.866   0.377 -0.2963 -0.5108 -0.2776
 1396SOL    HW214503   3.632  12.736   0.447 -2.1022  0.6689  1.1028
 1397SOL     OW14504   8.290   3.622   0.803  0.6467  0.1426  0.2631
 1397SOL    HW114505   8.303   3.527   0.805 -1.3652 -0.3139 -2.7744
 1397SOL    HW214506   8.344   3.655   0.875  2.2655 -3.1712  0.7389
 1398SOL     OW14507   6.902   1.817   5.970 -0.2301 -0.0075 -0.5860
 1398SOL    HW114508   6.918   1.751   6.037 -0.9419 -0.5872 -0.9718
 1398SOL    HW214509   6.971   1.805   5.906  0.9164  1.0565  0.4004
 1399SOL     OW14510   2.210   5.158   7.812  0.2201  0.0745 -0.3864
 1399SOL    HW114511   2.270   5.106   7.757  1.8310  1.0405  0.3985
 1399SOL    HW214512   2.227   5.249   7.786 -1.6858  0.3410 -0.8695
 1400SOL     OW14513  11.170   5.537   5.502 -0.5774 -0.6477  0.1565
 1400SOL    HW114514  11.254   5.490   5.501  0.2144  0.7198 -0.0748
 1400SOL    HW214515  11.154   5.559   5.410 -0.8632 -0.3352  0.2805
 1401SOL     OW14516   5.283  11.838  11.829  0.4298  0.9860  0.0390
 1401SOL    HW114517   5.192  11.809  11.831  1.2884 -1.9628 -0.1664
 1401SOL    HW214518   5.302  11.864  11.919 -0.8610  2.7033 -0.1284
 1402SOL     OW14519   2.142  11.841   1.742  0.0986  0.1266  0.1465
 1402SOL    HW114520   2.061  11.872   1.700  0.3324  0.1622 -0.2843
 1402SOL    HW214521   2.191  11.799   1.671  0.6762  0.5224  0.3084
 1403SOL     OW14522   6.292  10.151   5.669 -0.1321  0.5432  0.3522
 1403SOL    HW114523   6.343  10.095   5.728 -0.7258 -0.2628  0.1137
 1403SOL    HW214524   6.357  10.188   5.609  0.2686  0.1076  0.5112
 1404SOL     OW14525  11.069   0.993   7.381 -0.0955 -0.5527  0.4653
 1404SOL    HW114526  10.984   0.966   7.416 -0.4856  0.0028 -0.0206
 1404SOL    HW214527  11.051   1.014   7.289 -0.0548  2.3146  1.0258
 1405SOL     OW14528   5.848  10.962   2.738  0.1018  0.1602 -0.1982
 1405SOL    HW114529   5.915  11.016   2.781 -1.0541  2.3471 -0.9745
 1405SOL    HW214530   5.886  10.942   2.652  0.2055  0.4569 -0.2235
 1406SOL     OW14531   9.785   9.527   0.562  0.0480 -0.1188  0.4384
 1406SOL    HW114532   9.879   9.512   0.568  0.1404  0.5485  0.7174
 1406SOL    HW214533   9.750   9.491   0.644  0.0778 -0.2523  0.3918
 1407SOL     OW14534   8.877   2.204   7.389  0.3043 -0.1148  0.4584
 1407SOL    HW114535   8.816   2.277   7.396 -1.8755 -1.9673  2.3227
 1407SOL    HW214536   8.944   2.222   7.455  0.3870  0.6697  0.1735
 1408SOL     OW14537   7.042   7.100  10.241 -0.4460 -0.6725 -0.0391
 1408SOL    HW114538   7.050   7.125  10.149  1.8901  3.1358  0.9620
 1408SOL    HW214539   6.959   7.140  10.269  0.6062  1.4691  0.2423
 1409SOL     OW14540  10.673   4.942   3.115 -0.0052 -0.2124 -0.2715
 1409SOL    HW114541  10.756   4.903   3.142 -0.1336  0.0236  0.4675
 1409SOL    HW214542  10.652   5.005   3.183  0.7761  2.0396 -1.9978
 1410SOL     OW14543   3.727  12.514   5.398 -0.4771 -0.3238  0.1190
 1410SOL    HW114544   3.649  12.518   5.343 -0.4252  1.1369  0.1000
 1410SOL    HW214545   3.784  12.583   5.363 -0.2113  0.2543  1.6265
 1411SOL     OW14546  12.271  12.809   5.776 -0.0044 -0.7670 -0.5200
 1411SOL    HW114547  12.236  12.807   5.687 -0.8169  0.6995 -0.2757
 1411SOL    HW214548  12.194  12.811   5.832  0.4863 -0.1925  0.1555
 1412SOL     OW14549   4.803  11.173   0.804  0.3825  0.2725  0.0696
 1412SOL    HW114550   4.839  11.104   0.748  0.6547  0.0047  0.5616
 1412SOL    HW214551   4.868  11.243   0.802  2.1234 -1.0496  2.6627
 1413SOL     OW14552   6.494   5.178   1.774  0.3332  0.5699 -0.2793
 1413SOL    HW114553   6.581   5.213   1.795 -0.8053  2.5722  1.4554
 1413SOL    HW214554   6.436   5.214   1.841 -2.0443  0.1143 -1.9467
 1414SOL     OW14555  11.484   1.168  12.523  0.1000  0.0757  0.1000
 1414SOL    HW114556  11.500   1.147  12.615  0.6566 -0.3621 -0.0908
 1414SOL    HW214557  11.515   1.258  12.513  0.3023  0.0281  0.2807
 1415SOL     OW14558  12.095   4.190   4.426  0.3731  0.2909  0.0463
 1415SOL    HW114559  12.076   4.283   4.436 -1.1008  0.1493 -1.0965
 1415SOL    HW214560  12.047   4.148   4.498 -1.3867  0.1945 -1.1319
 1416SOL     OW14561  12.258   0.514  10.925  0.0539  0.3545  0.2994
 1416SOL    HW114562  12.321   0.506  10.853 -0.4342  0.7419 -0.1775
 1416SOL    HW214563  12.204   0.435  10.919  0.6188 -0.0827  0.8405
 1417SOL     OW14564   9.394   2.287  12.925 -0.2960  0.0636  0.1649
 1417SOL    HW114565   9.405   2.235  13.005  2.0059 -0.2608 -0.2745
 1417SOL    HW214566   9.395   2.378  12.955 -0.3852 -0.0688  0.5786
 1418SOL     OW14567  11.797   3.397  11.730  0.5975 -0.0940  0.3382
 1418SOL    HW114568  11.777   3.357  11.645  1.1942 -0.3012  0.2896
 1418SOL    HW214569  11.743   3.476  11.732 -0.1646 -0.6060  0.1939
 1419SOL     OW14570   7.465  12.890   6.009  0.1223  0.3423  0.0634
 1419SOL    HW114571   7.553  12.918   5.985  0.2911  1.1122  1.4458
 1419SOL    HW214572   7.477  12.807   6.055  0.1963  0.7229  0.7415
 1420SOL     OW14573  12.396  10.053  10.856 -0.0820 -0.0699  0.1269
 1420SOL    HW114574  12.450  10.081  10.930  2.9400 -0.2464 -1.8182
 1420SOL    HW214575  12.364   9.966  10.881 -0.1240  0.3706  1.6689
 1421SOL     OW14576   5.488   0.164  10.969  0.2109 -0.6956 -0.1682
 1421SOL    HW114577   5.515   0.246  11.011 -1.2903 -0.8051  1.1015
 1421SOL    HW214578   5.415   0.189  10.913 -0.1701 -1.1517  0.1237
 1422SOL     OW14579   0.367   5.704   1.989 -0.3894 -0.2891 -0.4112
 1422SOL    HW114580   0.403   5.656   2.063  1.4146  1.1555 -0.2870
 1422SOL    HW214581   0.304   5.765   2.027  0.4648  0.3837 -0.0380
 1423SOL     OW14582   6.783   1.575  11.829 -0.5187  0.0444  0.2280
 1423SOL    HW114583   6.778   1.644  11.763  0.3028 -0.6037 -0.5456
 1423SOL    HW214584   6.783   1.493  11.778 -0.3164 -0.4827  1.0547
 1424SOL     OW14585   1.708   3.421   3.828  0.1687  0.1629  0.1348
 1424SOL    HW114586   1.710   3.336   3.783  1.3548  0.9298 -1.3294
 1424SOL    HW214587   1.800   3.448   3.830 -0.1181  1.1006  1.2284
 1425SOL     OW14588   1.609   1.923   6.889 -0.0144 -0.1951 -0.3725
 1425SOL    HW114589   1.581   2.011   6.863 -0.0344 -0.2354 -0.4873
 1425SOL    HW214590   1.689   1.938   6.939  1.1958 -0.2488 -2.1873
 1426SOL     OW14591   0.152   0.086   0.202 -0.2578  0.5508 -0.2156
 1426SOL    HW114592   0.094   0.068   0.277  0.9175 -0.1916  0.5451
 1426SOL    HW214593   0.133   0.015   0.141 -1.0256  1.0056 -0.5251
 1427SOL     OW14594  12.084   2.263   6.131 -0.2406 -0.1742  0.0930
 1427SOL    HW114595  11.990   2.279   6.136 -0.2949 -0.5884  0.4331
 1427SOL    HW214596  12.105   2.274   6.038 -0.8191 -1.1432 -0.1691
 1428SOL     OW14597   7.159   9.858   6.212  0.2494  0.1588  0.6299
 1428SOL    HW114598   7.176   9.949   6.236  0.2627  0.7076 -1.2609
 1428SOL    HW214599   7.204   9.807   6.279  1.6823  1.5549  0.8016
 1429SOL     OW14600   1.720   2.863  10.545 -0.5823 -0.0702 -0.5328
 1429SOL    HW114601   1.631   2.892  10.565 -0.5652  0.1019 -0.7025
 1429SOL    HW214602   1.761   2.852  10.631 -0.9385 -0.7093 -0.4318
 1430SOL     OW14603   7.428   2.570   3.922 -0.4372 -0.9892 -0.8556
 1430SOL    HW114604   7.454   2.574   3.830  0.8390 -0.9282 -0.5230
 1430SOL    HW214605   7.507   2.540   3.967 -0.5115  0.5842  0.4108
 1431SOL     OW14606   3.744   5.340  10.609 -0.9298 -0.3189 -0.1992
 1431SOL    HW114607   3.687   5.269  10.577 -1.3649  0.3776 -1.0151
 1431SOL    HW214608   3.699   5.420  10.582  1.6357  0.3223 -3.2730
 1432SOL     OW14609   0.142   8.192   9.600 -0.4738 -0.0979 -0.1026
 1432SOL    HW114610   0.090   8.170   9.677 -2.6156  0.3850 -1.3381
 1432SOL    HW214611   0.160   8.109   9.558 -0.5068 -0.2365  0.1549
 1433SOL     OW14612  12.562   7.050   6.666 -0.6605  0.4385 -0.2189
 1433SOL    HW114613  12.468   7.054   6.646 -0.4456  0.6730 -1.2702
 1433SOL    HW214614  12.573   6.968   6.715 -1.1328 -0.6791 -1.8692
 1434SOL     OW14615   9.994   4.217   3.929 -0.7872  0.3121 -0.6865
 1434SOL    HW114616   9.937   4.181   3.861 -1.0113  1.4744 -1.1421
 1434SOL    HW214617  10.031   4.141   3.973 -1.1003 -0.4552 -1.7302
 1435SOL     OW14618   5.627   1.095   2.307 -0.1324 -0.0668 -0.2861
 1435SOL    HW114619   5.558   1.162   2.310 -0.4118 -0.3643  0.0570
 1435SOL    HW214620   5.583   1.015   2.335  0.4057 -0.2196  0.1317
 1436SOL     OW14621   0.427  10.311   2.816 -0.3147 -0.3400  0.4528
 1436SOL    HW114622   0.353  10.370   2.833  0.1626 -0.2401  2.4145
 1436SOL    HW214623   0.499  10.348   2.868  0.6124 -1.4449 -0.0125
 1437SOL     OW14624  11.844   6.012  10.817  0.3806 -0.4470 -0.2391
 1437SOL    HW114625  11.889   6.085  10.772 -0.2040  0.4420  0.5838
 1437SOL    HW214626  11.859   5.937  10.760 -0.8021  0.7449 -2.2374
 1438SOL     OW14627   3.401  12.179  11.969  0.1170  0.3042  0.1291
 1438SOL    HW114628   3.371  12.119  11.901  0.3989 -0.9376  1.0506
 1438SOL    HW214629   3.333  12.247  11.973 -0.1181  0.1537 -1.0722
 1439SOL     OW14630   5.536   9.079   7.866  0.2912 -0.6618  0.0458
 1439SOL    HW114631   5.625   9.076   7.831 -0.1276 -1.8489 -0.9978
 1439SOL    HW214632   5.544   9.045   7.954  0.7150 -1.8792 -0.4437
 1440SOL     OW14633   6.307  10.253   7.203  0.2675 -0.4294  0.6548
 1440SOL    HW114634   6.313  10.158   7.194  1.2195 -0.2945 -0.3620
 1440SOL    HW214635   6.361  10.287   7.132  0.9187  0.8720  1.7355
 1441SOL     OW14636   2.029   4.361   9.117 -0.1973 -0.2796 -0.5564
 1441SOL    HW114637   2.018   4.385   9.209  3.4715 -1.2839  0.3107
 1441SOL    HW214638   2.097   4.420   9.085  1.0389 -2.1307 -1.5529
 1442SOL     OW14639  12.591   0.205   0.801  0.2074 -0.6290 -0.0016
 1442SOL    HW114640  12.608   0.283   0.748 -0.1273  0.6115  1.6379
 1442SOL    HW214641  12.500   0.213   0.827  0.4625 -1.0201  1.0545
 1443SOL     OW14642   0.056   0.727   4.239 -0.2867 -0.2264  0.3498
 1443SOL    HW114643   0.100   0.754   4.158  1.3758 -1.8480  0.6341
 1443SOL    HW214644  -0.037   0.724   4.216  0.2011 -1.3196 -1.7443
 1444SOL     OW14645   3.812   5.464   1.958  0.0570 -0.2318  0.2699
 1444SOL    HW114646   3.787   5.550   1.925  2.5750 -0.0097 -1.2714
 1444SOL    HW214647   3.760   5.403   1.905 -1.0032  0.2730  0.6915
 1445SOL     OW14648   6.669   7.438   4.881 -0.2943  0.2502  0.6768
 1445SOL    HW114649   6.685   7.373   4.949 -0.9413  0.6898  1.2610
 1445SOL    HW214650   6.684   7.522   4.924  0.7616  0.4981 -0.1324
 1446SOL     OW14651  12.360   9.534   0.711  0.2786  0.2888 -0.1615
 1446SOL    HW114652  12.321   9.617   0.687 -0.2271  0.3591  0.8488
 1446SOL    HW214653  12.346   9.527   0.805 -2.5192 -2.3858 -0.6223
 1447SOL     OW14654   4.504   0.182   5.897 -0.5472 -0.4696 -0.4804
 1447SOL    HW114655   4.422   0.134   5.912  0.2653 -2.1639 -1.2086
 1447SOL    HW214656   4.478   0.274   5.898 -2.3783 -0.9421 -0.2093
 1448SOL     OW14657   9.928   0.168   4.466 -0.7929 -0.0209  0.2249
 1448SOL    HW114658  10.011   0.121   4.462 -1.0520 -0.6605  1.6072
 1448SOL    HW214659   9.952   0.260   4.450  0.0827 -0.2883 -0.0650
 1449SOL     OW14660   5.475   4.253   6.651 -0.4590 -0.2860 -0.0464
 1449SOL    HW114661   5.524   4.284   6.727 -1.9165  2.7311 -0.2171
 1449SOL    HW214662   5.521   4.290   6.576 -0.1226 -1.6819 -0.5627
 1450SOL     OW14663   7.719   7.865   1.450  0.1033 -0.0941 -0.5043
 1450SOL    HW114664   7.781   7.882   1.379  1.3837  0.4124  0.6917
 1450SOL    HW214665   7.772   7.825   1.519 -1.5877 -3.0713 -0.7621
 1451SOL     OW14666   4.265   2.525  11.100 -0.4567  0.1503  0.4312
 1451SOL    HW114667   4.311   2.474  11.167 -1.0823 -0.9628  0.0516
 1451SOL    HW214668   4.179   2.485  11.095 -1.0053  1.3279  0.1626
 1452SOL     OW14669   2.612  10.994  12.693  0.5176 -0.2002 -0.3053
 1452SOL    HW114670   2.678  10.943  12.741  1.2137  0.3320 -0.6869
 1452SOL    HW214671   2.528  10.961  12.727  0.9797  0.2499  1.3922
 1453SOL     OW14672  11.934   2.159  10.813 -0.2378 -0.0124  0.1884
 1453SOL    HW114673  11.951   2.136  10.904 -1.1443  0.8954  0.6037
 1453SOL    HW214674  11.912   2.075  10.771  3.5481 -1.0697 -0.0777
 1454SOL     OW14675   7.777   6.003   6.054  0.2498 -0.5168 -0.1404
 1454SOL    HW114676   7.750   5.924   6.100 -0.9216  0.8861  1.7600
 1454SOL    HW214677   7.751   6.075   6.113 -2.0103  1.5024 -3.2746
 1455SOL     OW14678   4.328   2.968   6.679  0.0988 -0.3027 -0.4457
 1455SOL    HW114679   4.380   2.977   6.600  1.4019  1.1723  0.5357
 1455SOL    HW214680   4.295   2.878   6.675  1.6789 -0.8741 -1.7302
 1456SOL     OW14681  10.679   1.918   7.190 -0.4258  0.2339 -0.4170
 1456SOL    HW114682  10.615   1.965   7.137 -2.0699 -1.5112 -0.0342
 1456SOL    HW214683  10.649   1.930   7.280 -1.2515 -2.0220 -0.3479
 1457SOL     OW14684  12.320   2.758   6.640 -1.1649  0.0226 -0.3826
 1457SOL    HW114685  12.406   2.718   6.645 -0.9821  0.3037 -1.1774
 1457SOL    HW214686  12.287   2.755   6.730  0.1066  0.8579  0.1487
 1458SOL     OW14687   2.494   8.687  12.950  0.4780 -0.1459 -0.1098
 1458SOL    HW114688   2.539   8.746  13.011  1.3495 -2.6163  1.8109
 1458SOL    HW214689   2.406   8.725  12.942  1.8600  3.1628 -1.6227
 1459SOL     OW14690   5.481   2.703   1.565 -0.3830 -0.5725 -0.0108
 1459SOL    HW114691   5.453   2.716   1.474 -0.7740  1.2363  0.3229
 1459SOL    HW214692   5.430   2.768   1.615  0.9194 -0.4984  1.2806
 1460SOL     OW14693   8.944   6.512   2.526  0.3523 -0.1547 -0.3391
 1460SOL    HW114694   8.966   6.597   2.565 -1.2850  0.1173  0.0658
 1460SOL    HW214695   9.028   6.467   2.518  1.1780  1.2604  0.0057
 1461SOL     OW14696   7.791   7.592   9.082 -0.7663 -0.0117 -0.5214
 1461SOL    HW114697   7.767   7.654   9.150 -0.6785 -1.2159  0.6498
 1461SOL    HW214698   7.884   7.607   9.067 -0.8079  0.3231 -0.4424
 1462SOL     OW14699   4.959  11.112   6.910  0.6087 -0.1076  0.6356
 1462SOL    HW114700   5.050  11.135   6.888  0.1813  0.4183 -0.6745
 1462SOL    HW214701   4.952  11.130   7.004  1.4398  1.3099  0.4500
 1463SOL     OW14702  10.677   8.199  10.174 -0.3062 -0.3114  0.1724
 1463SOL    HW114703  10.646   8.279  10.132  0.5811  0.1135  0.2850
 1463SOL    HW214704  10.771   8.214  10.186  0.6078 -2.6395 -2.7578
 1464SOL     OW14705   3.896   2.059   1.175  0.1502 -0.2374 -0.4139
 1464SOL    HW114706   3.937   2.116   1.110 -1.9404  3.3440  1.0533
 1464SOL    HW214707   3.950   2.071   1.254  0.3083 -1.2281 -0.3615
 1465SOL     OW14708   3.266  10.492  12.904 -0.2612  0.0901  0.0841
 1465SOL    HW114709   3.349  10.532  12.931  0.6115 -1.0947 -0.7390
 1465SOL    HW214710   3.230  10.456  12.985  1.0703 -1.1833  0.1562
 1466SOL     OW14711  10.410   4.517   1.964 -0.2936  0.6908 -0.5147
 1466SOL    HW114712  10.390   4.609   1.979 -0.1913  0.5527  0.6115
 1466SOL    HW214713  10.503   4.509   1.981  0.2743  0.8323 -3.1677
 1467SOL     OW14714   2.873   9.024   6.472 -0.0209  0.2052 -0.4641
 1467SOL    HW114715   2.780   9.040   6.459 -0.0443 -0.2387 -0.8550
 1467SOL    HW214716   2.877   8.945   6.526  0.1387 -0.4005 -1.3447
 1468SOL     OW14717   1.465   4.147   9.888 -0.5823 -0.0361  0.3486
 1468SOL    HW114718   1.389   4.090   9.873 -0.3529 -0.8457  2.0916
 1468SOL    HW214719   1.539   4.087   9.894 -0.2670  0.4638  1.7224
 1469SOL     OW14720  10.212   6.367   4.758 -0.1888  0.0304 -0.3902
 1469SOL    HW114721  10.195   6.280   4.792  1.5861  0.4280  1.7426
 1469SOL    HW214722  10.308   6.374   4.756 -0.2802  1.9150 -0.4828
 1470SOL     OW14723   7.934   3.731   8.312 -0.5060  0.2811  0.1208
 1470SOL    HW114724   7.954   3.824   8.303 -2.1692  0.7051  0.5131
 1470SOL    HW214725   7.935   3.697   8.222  1.4162  0.3599  0.0845
 1471SOL     OW14726   3.203   6.615   7.577  0.1781  0.2505  0.0054
 1471SOL    HW114727   3.165   6.556   7.642 -1.4364 -0.4700 -1.5091
 1471SOL    HW214728   3.168   6.585   7.494 -1.4356  3.8216 -0.8020
 1472SOL     OW14729   1.251   3.207   3.506  0.3000  0.5773  0.1858
 1472SOL    HW114730   1.234   3.286   3.455 -0.3304 -0.1678 -0.8082
 1472SOL    HW214731   1.292   3.238   3.586  1.9305  1.7561 -1.0337
 1473SOL     OW14732  10.475   3.790   1.427  0.7091  0.0882 -0.4680
 1473SOL    HW114733  10.423   3.835   1.361  0.1011 -0.2414 -0.2281
 1473SOL    HW214734  10.462   3.841   1.507  0.3711 -0.2591 -0.2987
 1474SOL     OW14735   2.709   0.434   9.290  0.1101 -0.0207 -0.2304
 1474SOL    HW114736   2.791   0.389   9.272  0.5956 -0.1808  2.0848
 1474SOL    HW214737   2.641   0.369   9.270  0.6765 -0.7935  0.3023
 1475SOL     OW14738   9.925   9.698   6.770  0.3230 -0.6911  0.4930
 1475SOL    HW114739   9.898   9.739   6.688 -1.5231  0.6924  1.7130
 1475SOL    HW214740   9.938   9.606   6.748  1.3317 -0.0916 -1.6337
 1476SOL     OW14741  10.930  11.571  10.036 -0.1247 -1.1051  0.6801
 1476SOL    HW114742  10.996  11.565  10.105  0.0228 -1.0131  0.5474
 1476SOL    HW214743  10.848  11.549  10.080 -0.6087  2.2068  1.7338
 1477SOL     OW14744   7.095  10.801   8.268  0.0142  0.6622  0.1363
 1477SOL    HW114745   7.080  10.707   8.273 -1.1280  0.7028 -1.7364
 1477SOL    HW214746   7.166  10.810   8.204  0.4165  1.0607  0.6339
 1478SOL     OW14747   9.186   6.713   3.123  0.0826 -0.1718 -0.2296
 1478SOL    HW114748   9.180   6.809   3.122 -0.9912 -0.2269 -0.0151
 1478SOL    HW214749   9.133   6.687   3.199  0.6644 -0.9216 -0.0703
 1479SOL     OW14750   4.377   7.461   1.757  0.2255  0.1076  0.0853
 1479SOL    HW114751   4.287   7.490   1.742  1.1707  1.7781 -3.3990
 1479SOL    HW214752   4.369   7.367   1.775 -2.1489 -0.0183 -1.1732
 1480SOL     OW14753   9.901   5.007   1.211  0.1602  0.0457 -0.0310
 1480SOL    HW114754   9.842   5.052   1.150 -0.3608 -3.0550 -2.1168
 1480SOL    HW214755   9.844   4.945   1.257  1.2312 -0.5812  0.4931
 1481SOL     OW14756   4.888   1.502   8.704  0.6019  0.1814  0.0249
 1481SOL    HW114757   4.910   1.463   8.619 -1.1382 -1.2675  0.1743
 1481SOL    HW214758   4.798   1.532   8.694  0.8980  1.4622  0.8976
 1482SOL     OW14759   6.384   6.342   8.761  0.3469  0.1189 -0.5281
 1482SOL    HW114760   6.437   6.413   8.797  0.3868  0.6858 -1.6778
 1482SOL    HW214761   6.439   6.264   8.771  0.8695  0.4832 -0.5122
 1483SOL     OW14762   0.145  10.895  10.542  0.0769 -0.5065 -0.1493
 1483SOL    HW114763   0.215  10.944  10.587  0.8547 -1.1621 -0.6227
 1483SOL    HW214764   0.182  10.808  10.529 -1.0383 -1.0261  0.0634
 1484SOL     OW14765   0.658   5.632   0.405 -0.6105  0.1908  1.0345
 1484SOL    HW114766   0.680   5.725   0.411 -0.9508  0.2816  0.9244
 1484SOL    HW214767   0.700   5.602   0.325 -2.2339  0.7602 -0.1031
 1485SOL     OW14768  12.533   5.316  11.305  0.1340  0.2469 -0.2007
 1485SOL    HW114769  12.508   5.342  11.217 -2.9330  0.4809  0.6338
 1485SOL    HW214770  12.560   5.225  11.297 -1.0647 -0.0327 -1.2287
 1486SOL     OW14771   1.598  11.091  10.998  0.9199  0.1386 -0.4699
 1486SOL    HW114772   1.592  11.179  11.035 -0.3574  1.0603 -2.6368
 1486SOL    HW214773   1.668  11.097  10.933  0.1529 -0.1248 -1.3436
 1487SOL     OW14774   2.067   4.589  10.821 -0.2666  0.2374 -0.1695
 1487SOL    HW114775   2.109   4.663  10.776 -1.7509  2.5761  1.9992
 1487SOL    HW214776   2.104   4.591  10.910 -0.8132 -1.2637  0.1245
 1488SOL     OW14777   1.883   2.148   7.552 -0.3913 -0.2717  0.2418
 1488SOL    HW114778   1.832   2.077   7.513  0.4871 -1.0552  0.4864
 1488SOL    HW214779   1.933   2.185   7.479 -1.9815  1.1283 -0.1888
 1489SOL     OW14780   9.781   7.016   5.831 -0.1135  0.2007  0.5010
 1489SOL    HW114781   9.777   6.930   5.790 -0.8031  0.0761  0.8179
 1489SOL    HW214782   9.791   6.997   5.924  1.4591  0.4798  0.4179
 1490SOL     OW14783  12.257  10.810   8.234  0.2009 -0.6138  0.0991
 1490SOL    HW114784  12.346  10.843   8.216  0.2363 -1.0949 -0.6693
 1490SOL    HW214785  12.268  10.715   8.238 -0.3228 -0.6932 -0.2789
 1491SOL     OW14786   6.506   6.135   6.625  0.4784  0.8073  0.3685
 1491SOL    HW114787   6.470   6.163   6.541  1.1364  1.1585  0.1915
 1491SOL    HW214788   6.597   6.166   6.623  0.6373  0.3962  1.0092
 1492SOL     OW14789   6.409   2.147   7.352  0.1544 -0.2351  0.0164
 1492SOL    HW114790   6.326   2.194   7.347 -0.0694 -0.7023 -0.7816
 1492SOL    HW214791   6.387   2.056   7.333  0.8658 -0.3366 -0.3627
 1493SOL     OW14792   0.683   0.896   8.834  0.3456  0.5775 -0.0053
 1493SOL    HW114793   0.636   0.825   8.791  1.8277 -1.1221  1.0023
 1493SOL    HW214794   0.617   0.941   8.887 -0.5526 -0.3237 -0.3328
 1494SOL     OW14795   0.682   3.287   7.135  0.0178  0.3442 -0.0121
 1494SOL    HW114796   0.711   3.249   7.052 -0.4074  0.4903 -0.2309
 1494SOL    HW214797   0.612   3.228   7.164 -1.0137  1.2301 -0.6158
 1495SOL     OW14798   4.167   9.036   9.266  0.1645  0.6752  0.0706
 1495SOL    HW114799   4.147   9.129   9.275 -1.1200  0.4006  0.2987
 1495SOL    HW214800   4.092   8.991   9.306  0.7045 -0.4582 -0.1381
 1496SOL     OW14801   7.475   6.748   2.519 -0.4458 -0.5040 -0.3019
 1496SOL    HW114802   7.483   6.703   2.435 -0.1911 -1.6482  0.3217
 1496SOL    HW214803   7.482   6.679   2.584  0.3400  0.4799  0.6985
 1497SOL     OW14804   1.174   0.824   0.632  0.2106  0.0147 -0.8680
 1497SOL    HW114805   1.159   0.780   0.715 -2.5875  0.8782 -0.7973
 1497SOL    HW214806   1.260   0.793   0.602  1.4509 -0.0886  2.4346
 1498SOL     OW14807   9.823   8.495   3.875 -0.3219  0.5806 -0.2243
 1498SOL    HW114808   9.895   8.511   3.813  0.7150  1.6518  1.2029
 1498SOL    HW214809   9.746   8.532   3.831  0.2247  0.5910 -1.2170
 1499SOL     OW14810   4.054   7.479   5.747 -0.3019  0.2584 -0.2642
 1499SOL    HW114811   3.992   7.414   5.715  0.2603 -0.2420 -0.3395
 1499SOL    HW214812   4.042   7.555   5.689  0.5687 -0.5567 -1.5488
 1500SOL     OW14813   3.502   4.211  11.222 -0.0615  0.1342  0.1113
 1500SOL    HW114814   3.489   4.139  11.283  2.7877 -1.0728 -0.5411
 1500SOL    HW214815   3.432   4.201  11.158 -1.4131 -0.2748  1.5788
 1501SOL     OW14816   3.046   4.722   5.583 -0.8349 -0.1828  0.1962
 1501SOL    HW114817   3.129   4.767   5.564 -1.6156  0.9042 -0.7604
 1501SOL    HW214818   3.072   4.634   5.609  0.5590 -0.3364 -1.5442
 1502SOL     OW14819   2.948  10.605   0.645 -0.2160  0.3081  0.2332
 1502SOL    HW114820   2.964  10.596   0.739 -1.1716  2.2998  0.6321
 1502SOL    HW214821   2.945  10.515   0.612  2.2042 -0.3919  1.7121
 1503SOL     OW14822   5.584   5.569   5.260 -0.1022 -0.2317 -0.1076
 1503SOL    HW114823   5.538   5.644   5.297  0.1847 -0.5719  0.9828
 1503SOL    HW214824   5.608   5.516   5.336  1.9454 -0.1429 -0.6250
 1504SOL     OW14825  12.047   6.758  11.679  0.0397 -0.6767 -0.1649
 1504SOL    HW114826  12.007   6.816  11.614  1.2034 -0.2654 -0.5439
 1504SOL    HW214827  12.096   6.817  11.737  0.9164 -1.2408 -0.3187
 1505SOL     OW14828   1.683   5.503   7.549 -0.2899 -0.6406  0.5126
 1505SOL    HW114829   1.596   5.538   7.571 -0.7888 -0.3989 -1.5552
 1505SOL    HW214830   1.740   5.580   7.549 -0.9006 -0.0977 -1.7224
 1506SOL     OW14831   1.537   9.036  10.066  0.7560 -0.6192 -0.0072
 1506SOL    HW114832   1.569   9.118  10.104  1.9399 -1.6306  1.2817
 1506SOL    HW214833   1.499   9.062   9.982 -0.4308  1.4766  1.0814
 1507SOL     OW14834   1.574  11.956  10.956 -0.1544  0.1353  0.2226
 1507SOL    HW114835   1.600  11.865  10.944 -2.6370 -0.7306  0.7577
 1507SOL    HW214836   1.503  11.970  10.894 -0.2345  1.5157  0.5741
 1508SOL     OW14837   4.357  12.607   3.645 -0.3330 -0.5832  0.2780
 1508SOL    HW114838   4.401  12.525   3.623 -0.2118 -0.6402  0.7210
 1508SOL    HW214839   4.389  12.628   3.733 -0.1315  0.0935  0.0488
 1509SOL     OW14840   6.544   4.977   5.432  0.2169  0.4793 -0.4064
 1509SOL    HW114841   6.613   4.912   5.420 -0.2077 -0.2988  1.0870
 1509SOL    HW214842   6.576   5.033   5.502  0.7755  2.2206 -1.9705
 1510SOL     OW14843   5.360   0.429   6.995  0.2957 -0.0219  0.0117
 1510SOL    HW114844   5.298   0.493   6.961 -0.2653 -0.0306  0.9593
 1510SOL    HW214845   5.311   0.382   7.063  0.2090 -2.4872 -1.6187
 1511SOL     OW14846   7.950  11.605   7.598 -0.3785  0.1258 -0.4625
 1511SOL    HW114847   8.013  11.574   7.662  0.1431 -0.1913 -1.1238
 1511SOL    HW214848   7.983  11.574   7.514 -0.2213  1.8313 -1.0699
 1512SOL     OW14849   4.721   2.390   4.578  0.3906 -0.0604  0.1388
 1512SOL    HW114850   4.750   2.479   4.561  1.2650 -0.1466  1.0498
 1512SOL    HW214851   4.796   2.348   4.620 -0.3115 -0.9617  0.5332
 1513SOL     OW14852  10.928   9.534   5.045  0.3309  0.1169  0.1425
 1513SOL    HW114853  10.963   9.475   4.979  0.2811  0.7451 -0.4532
 1513SOL    HW214854  11.005   9.566   5.092  0.2621 -1.7464  1.6484
 1514SOL     OW14855   5.793   0.803   8.129  0.0802  0.9345  0.4269
 1514SOL    HW114856   5.862   0.738   8.139 -1.3131 -0.5485  0.7439
 1514SOL    HW214857   5.823   0.859   8.057  1.3050 -0.0543  0.1345
 1515SOL     OW14858   0.509   6.936   2.372  0.3296 -0.5100  0.1604
 1515SOL    HW114859   0.541   6.850   2.399  0.6194 -0.6151 -0.4853
 1515SOL    HW214860   0.584   6.995   2.384 -0.1390 -0.1427  1.4907
 1516SOL     OW14861   7.827   7.147   2.659  0.4001 -0.1835  0.3282
 1516SOL    HW114862   7.810   7.164   2.751  0.7058 -0.0588  0.3626
 1516SOL    HW214863   7.763   7.081   2.634  0.3784 -0.2844  0.6544
 1517SOL     OW14864  11.032   9.357   3.963  0.2113  0.5511 -0.4222
 1517SOL    HW114865  11.019   9.354   3.868  1.8261  1.8773 -0.7273
 1517SOL    HW214866  11.058   9.447   3.981 -0.2814  0.3793  1.3278
 1518SOL     OW14867   4.491   7.637  10.714  0.6403 -0.0268 -0.2098
 1518SOL    HW114868   4.470   7.703  10.648 -1.0921  0.2186  0.5429
 1518SOL    HW214869   4.456   7.556  10.678  0.7073 -0.1038 -0.0986
 1519SOL     OW14870   3.465   1.767   9.640  0.9311 -0.0512  0.4896
 1519SOL    HW114871   3.403   1.694   9.639 -0.8776  1.3568 -1.4637
 1519SOL    HW214872   3.535   1.740   9.580 -0.4566  0.3026 -1.3832
 1520SOL     OW14873   1.581   0.367   2.195  0.7281  0.3041  0.0127
 1520SOL    HW114874   1.636   0.443   2.213  0.5024  0.6979 -0.9234
 1520SOL    HW214875   1.492   0.395   2.217  0.8967 -0.4621  1.9209
 1521SOL     OW14876   9.286   6.245   2.354  0.3547  0.5010 -0.1661
 1521SOL    HW114877   9.228   6.213   2.285  0.2265  0.8730 -0.2327
 1521SOL    HW214878   9.237   6.232   2.435  0.1094  0.9722 -0.2385
 1522SOL     OW14879   2.803  10.373   4.978 -0.7123 -0.2350 -0.3452
 1522SOL    HW114880   2.747  10.414   4.912 -0.8228  1.0893  0.5283
 1522SOL    HW214881   2.760  10.394   5.061  1.0016  0.7003  0.3496
 1523SOL     OW14882   6.685   2.143  11.653 -0.1121  0.1958  0.2667
 1523SOL    HW114883   6.708   2.140  11.560  3.4788 -0.0527  1.0321
 1523SOL    HW214884   6.694   2.235  11.678  0.7408  0.0024  0.7175
 1524SOL     OW14885   0.486   0.154   7.185 -0.2130  0.4978 -0.2325
 1524SOL    HW114886   0.562   0.150   7.242  1.6097  1.0671 -2.4880
 1524SOL    HW214887   0.509   0.218   7.117 -1.4172 -1.5320 -2.7352
 1525SOL     OW14888  11.710  10.298   6.226 -0.3645 -0.1921  0.8476
 1525SOL    HW114889  11.776  10.229   6.225  0.0745  0.2004 -1.0463
 1525SOL    HW214890  11.760  10.379   6.218 -1.0106  0.1767  0.4992
 1526SOL     OW14891   7.516   7.618  10.833  0.2821  0.2326  0.3384
 1526SOL    HW114892   7.574   7.564  10.888  0.6290 -1.8589 -1.9140
 1526SOL    HW214893   7.574   7.680  10.789  0.7513 -1.2193 -1.1768
 1527SOL     OW14894   5.467  10.349  10.071  0.1517  0.0314  0.8487
 1527SOL    HW114895   5.436  10.440  10.070 -0.0030  0.0052  1.9111
 1527SOL    HW214896   5.427  10.309   9.994  2.3413  1.5222 -1.2371
 1528SOL     OW14897  10.488   9.636   1.360  0.1073  1.0363  0.2705
 1528SOL    HW114898  10.542   9.645   1.439  0.0453  1.6975  0.2371
 1528SOL    HW214899  10.456   9.546   1.364  0.2452  1.0121  0.9146
 1529SOL     OW14900   3.488   3.851  10.927 -0.2034 -0.3180 -0.3604
 1529SOL    HW114901   3.402   3.893  10.932 -0.6753 -1.2961 -0.0006
 1529SOL    HW214902   3.525   3.882  10.844 -1.0771 -0.2120 -0.7219
 1530SOL     OW14903   2.408   7.263   9.718  0.5132  0.2276  0.1391
 1530SOL    HW114904   2.369   7.281   9.804  0.8238  0.5448  0.2143
 1530SOL    HW214905   2.435   7.171   9.723 -1.1742 -0.3158 -0.2898
 1531SOL     OW14906   1.218   1.592   9.273 -0.1502  0.1033 -0.1206
 1531SOL    HW114907   1.236   1.676   9.314  1.3849 -1.1722  2.0543
 1531SOL    HW214908   1.216   1.610   9.179 -0.2272  2.5940  0.3082
 1532SOL     OW14909   8.850   1.579   4.184 -0.4449  0.1092  0.0566
 1532SOL    HW114910   8.783   1.554   4.120 -0.4778 -0.4092  0.2894
 1532SOL    HW214911   8.883   1.662   4.151  0.2405 -0.6175 -1.2016
 1533SOL     OW14912   3.131   1.939   2.849  0.1505  0.4872  0.7301
 1533SOL    HW114913   3.043   1.905   2.832  0.5208 -1.1798  1.9058
 1533SOL    HW214914   3.161   1.970   2.764 -0.1751 -2.3866 -0.5661
 1534SOL     OW14915   6.506   4.443   2.082 -0.2873 -0.2667 -0.4297
 1534SOL    HW114916   6.559   4.463   2.005 -0.4177  1.7127 -0.0562
 1534SOL    HW214917   6.483   4.528   2.119 -1.8503 -1.1189  0.7137
 1535SOL     OW14918   3.416   7.990  12.274  0.4624  0.0168  0.3427
 1535SOL    HW114919   3.372   8.070  12.304 -0.8995 -0.9985  1.1821
 1535SOL    HW214920   3.491   7.981  12.332  0.7448  0.7818  0.1097
 1536SOL     OW14921   7.516   1.811   2.139 -0.2437  0.0049  0.1285
 1536SOL    HW114922   7.438   1.813   2.193 -0.5260 -1.0282 -0.2287
 1536SOL    HW214923   7.577   1.871   2.183 -0.9326  0.1955  0.8490
 1537SOL     OW14924   6.666  11.430  12.452 -0.0884 -0.2123 -0.0275
 1537SOL    HW114925   6.637  11.373  12.523  0.6289  0.1644  0.5777
 1537SOL    HW214926   6.585  11.456  12.408 -0.6181  0.2108  1.1585
 1538SOL     OW14927  12.115   1.594   4.621  0.5209  0.4489 -0.4029
 1538SOL    HW114928  12.137   1.681   4.586 -1.0072  0.3274 -1.7750
 1538SOL    HW214929  12.052   1.613   4.691 -1.1789  0.4073 -1.8625
 1539SOL     OW14930  11.396   6.203  10.372  0.2396 -0.4366 -0.5354
 1539SOL    HW114931  11.420   6.180  10.462  1.4849  1.3151 -0.3677
 1539SOL    HW214932  11.301   6.201  10.371  0.1532  0.5955  1.1746
 1540SOL     OW14933   7.116   9.260   0.097 -0.1772  0.7589 -0.4885
 1540SOL    HW114934   7.190   9.199   0.098 -0.8997 -0.1514  1.5162
 1540SOL    HW214935   7.137   9.321   0.026  0.6614 -1.6816 -2.5278
 1541SOL     OW14936   5.726   2.981   7.990 -0.3885  0.1326  0.6440
 1541SOL    HW114937   5.714   2.897   7.947  0.1987 -0.2071  1.1182
 1541SOL    HW214938   5.669   2.978   8.067 -2.2666  1.1678 -0.6513
 1542SOL     OW14939   2.287   3.222   6.515 -0.0418  0.0631  0.5402
 1542SOL    HW114940   2.331   3.287   6.460 -0.4719  0.0364  0.1556
 1542SOL    HW214941   2.299   3.254   6.605  1.1419 -0.1832  0.4866
 1543SOL     OW14942  11.798   6.850   4.449 -0.5345 -0.1659 -0.0043
 1543SOL    HW114943  11.730   6.917   4.443  0.2963  0.5665 -1.8343
 1543SOL    HW214944  11.853   6.864   4.373  1.1042 -1.3916  0.8814
 1544SOL     OW14945   6.718  10.069   5.694 -0.2127  0.7276  0.1573
 1544SOL    HW114946   6.651  10.001   5.689  0.9121 -0.3263 -1.7544
 1544SOL    HW214947   6.727  10.087   5.788 -0.3163 -2.0171  0.7767
 1545SOL     OW14948   3.976  10.836   5.517  0.5925  0.2390  0.2235
 1545SOL    HW114949   3.946  10.784   5.591 -0.6769 -0.0090 -0.4246
 1545SOL    HW214950   4.064  10.805   5.499 -0.2904 -2.1052 -0.4634
 1546SOL     OW14951   3.633   6.550   3.306 -0.4185 -0.2426 -0.3493
 1546SOL    HW114952   3.554   6.600   3.287 -2.1219 -2.8058 -0.5221
 1546SOL    HW214953   3.631   6.537   3.401 -1.1288 -1.6478 -0.5311
 1547SOL     OW14954   7.211   2.960   1.117 -0.8781 -0.2172 -0.0669
 1547SOL    HW114955   7.186   2.968   1.209 -0.3147  0.3982  0.0317
 1547SOL    HW214956   7.304   2.979   1.115 -0.3993 -2.3486 -0.4611
 1548SOL     OW14957   7.729   0.457   5.309  0.2970  0.1840  0.3326
 1548SOL    HW114958   7.645   0.502   5.305  0.1640  0.0984  1.7351
 1548SOL    HW214959   7.734   0.422   5.398  1.1004 -1.2247 -0.2304
 1549SOL     OW14960   1.280   5.944   9.906 -0.4445  0.3852  0.3108
 1549SOL    HW114961   1.335   6.013   9.867  3.0028 -1.4273  1.5080
 1549SOL    HW214962   1.299   5.949   9.999 -0.3521 -1.9300  0.4645
 1550SOL     OW14963   4.238  12.473   1.269 -0.1538  0.1706 -0.3469
 1550SOL    HW114964   4.240  12.428   1.185  1.6442 -0.9958  0.2550
 1550SOL    HW214965   4.303  12.543   1.260  1.7067 -1.3109  0.6914
 1551SOL     OW14966   6.198   2.720   5.824 -0.6576 -0.4429 -0.0064
 1551SOL    HW114967   6.182   2.635   5.783  0.6657 -0.5049 -0.4389
 1551SOL    HW214968   6.154   2.783   5.766 -2.3208 -0.8654  0.7401
 1552SOL     OW14969   3.909   1.369   5.856 -0.0234  0.1817  0.7382
 1552SOL    HW114970   3.843   1.362   5.925 -0.6142  1.9106  0.4093
 1552SOL    HW214971   3.977   1.308   5.881  0.1985  1.3792  3.3436
 1553SOL     OW14972   1.084   2.848   6.802 -0.3457 -0.4243 -0.1942
 1553SOL    HW114973   1.014   2.782   6.799 -0.2962 -0.4603 -0.6871
 1553SOL    HW214974   1.059   2.907   6.873 -1.0522 -0.2481 -0.5754
 1554SOL     OW14975  10.526   3.621   7.988  0.3420  0.1728  0.6141
 1554SOL    HW114976  10.574   3.584   7.914  1.5977  1.2316  0.8820
 1554SOL    HW214977  10.576   3.594   8.065  0.2235  0.8676  0.9355
 1555SOL     OW14978   7.382  12.069   1.017 -0.0946  0.2668  0.2219
 1555SOL    HW114979   7.388  11.988   1.069 -1.0335 -0.1570 -0.3133
 1555SOL    HW214980   7.433  12.049   0.938 -2.2290 -0.7138 -1.0090
 1556SOL     OW14981   9.116   2.840   5.720  0.2274  0.2847 -0.2574
 1556SOL    HW114982   9.176   2.915   5.720 -0.3516  0.7658 -0.5374
 1556SOL    HW214983   9.169   2.766   5.749  0.6500  0.9396  0.7162
 1557SOL     OW14984   3.187   6.044   8.740  0.3011 -0.1009  0.6048
 1557SOL    HW114985   3.093   6.059   8.731  0.2075 -1.5097 -1.6206
 1557SOL    HW214986   3.227   6.128   8.719 -0.4069 -0.5839 -3.4628
 1558SOL     OW14987   0.879  12.502  11.998 -0.1830 -0.1432 -0.2272
 1558SOL    HW114988   0.885  12.576  11.938  1.1291 -1.1146 -1.3706
 1558SOL    HW214989   0.914  12.428  11.948 -2.0510 -1.6965  0.6487
 1559SOL     OW14990   6.894  10.455   9.789 -1.1075 -0.9053 -0.7146
 1559SOL    HW114991   6.957  10.509   9.742  1.7219 -2.4872  1.0167
 1559SOL    HW214992   6.919  10.463   9.881 -0.4260 -5.1226 -0.3570
 1560SOL     OW14993   0.896   3.802   1.990  0.7733 -0.3367  0.4508
 1560SOL    HW114994   0.936   3.888   1.977  0.7319 -0.2587  0.8224
 1560SOL    HW214995   0.967   3.740   1.978  0.6839 -0.2857 -0.3921
 1561SOL     OW14996  10.265   3.052   7.055  0.6660 -0.3886  0.4146
 1561SOL    HW114997  10.176   3.074   7.081  1.1526  0.6734  1.2610
 1561SOL    HW214998  10.255   3.004   6.973 -0.6297  0.4081  0.0807
 1562SOL     OW14999   0.051  10.238  10.795 -0.2947  0.3624  0.2562
 1562SOL    HW115000  -0.044  10.241  10.790 -0.2526  2.5488 -0.1135
 1562SOL    HW215001   0.073  10.305  10.860  0.9793 -0.4433  0.6828
 1563SOL     OW15002   8.296   3.520   5.213  0.0701 -0.0105 -0.4207
 1563SOL    HW115003   8.379   3.560   5.185  1.1208 -1.7994 -0.0066
 1563SOL    HW215004   8.321   3.436   5.252 -1.9510 -0.6264 -0.3148
 1564SOL     OW15005   6.925  10.429   5.191 -0.0790  0.2707  0.2808
 1564SOL    HW115006   7.003  10.483   5.182  0.5584 -0.6207  0.2752
 1564SOL    HW215007   6.936  10.384   5.274 -0.7265  0.3429  0.4110
 1565SOL     OW15008   0.624  11.101   5.816 -0.1655 -0.1878 -0.5076
 1565SOL    HW115009   0.651  11.012   5.837  0.7279  0.4237  1.1639
 1565SOL    HW215010   0.704  11.143   5.782  0.0661  0.6105  0.9579
 1566SOL     OW15011   5.018   0.552   8.827  0.5528 -0.0802  0.4572
 1566SOL    HW115012   5.074   0.618   8.868  0.2319  0.0804  0.6375
 1566SOL    HW215013   4.981   0.596   8.750 -0.4117  0.2693  1.1032
 1567SOL     OW15014   8.498   3.536   7.873 -0.2693  0.6422  0.0050
 1567SOL    HW115015   8.505   3.571   7.962 -2.4093  3.1881 -0.6961
 1567SOL    HW215016   8.518   3.611   7.817 -0.8663 -0.3914 -1.6507
 1568SOL     OW15017   1.133  10.527  10.860  0.0760  0.2882  0.2218
 1568SOL    HW115018   1.181  10.606  10.836 -2.2816  2.5838  2.3619
 1568SOL    HW215019   1.166  10.504  10.946  0.0455 -0.4514  0.0386
 1569SOL     OW15020   5.029   5.825   8.895 -0.3685 -0.0888  0.2369
 1569SOL    HW115021   5.113   5.780   8.885 -0.7997 -0.9443  0.4083
 1569SOL    HW215022   4.976   5.766   8.948 -0.0499  1.8094  2.8860
 1570SOL     OW15023   8.638   6.288   7.435  0.0573  0.6244  1.1092
 1570SOL    HW115024   8.681   6.210   7.470  0.9998  1.2934  1.4835
 1570SOL    HW215025   8.592   6.326   7.510  0.4318  0.9743  1.1638
 1571SOL     OW15026   4.753  11.739   4.889 -0.4308  0.3980 -0.1779
 1571SOL    HW115027   4.668  11.749   4.845  0.3086 -0.9431 -2.0755
 1571SOL    HW215028   4.739  11.668   4.952 -0.4560 -0.6992 -1.3730
 1572SOL     OW15029   2.296  10.710   4.860  0.4076  0.0576 -0.3949
 1572SOL    HW115030   2.360  10.751   4.803  0.6138  2.4099  1.3499
 1572SOL    HW215031   2.346  10.678   4.935 -0.3433  2.5737  1.3477
 1573SOL     OW15032   1.632  10.185   1.096  0.2558 -0.3702 -0.0832
 1573SOL    HW115033   1.588  10.226   1.170  0.8571 -1.0670  0.6834
 1573SOL    HW215034   1.676  10.257   1.050 -0.7290  0.1676 -0.2119
 1574SOL     OW15035  12.134   8.956   5.486  0.6264  0.1032 -0.2163
 1574SOL    HW115036  12.098   9.029   5.435 -1.1619 -0.7048 -0.1744
 1574SOL    HW215037  12.068   8.940   5.553 -0.4636 -3.3329 -1.8800
 1575SOL     OW15038  12.908   6.711   5.222  0.4036  0.1447 -0.2439
 1575SOL    HW115039  12.876   6.641   5.164  0.5630  0.6137 -0.9031
 1575SOL    HW215040  12.829   6.743   5.266  0.2173  0.1032 -0.5487
 1576SOL     OW15041   7.956  12.760  10.713  0.2111  0.0762  0.1633
 1576SOL    HW115042   8.016  12.808  10.769 -0.6271 -0.0844  1.2359
 1576SOL    HW215043   7.957  12.670  10.747 -0.0713 -0.0983 -0.2718
 1577SOL     OW15044   8.440   5.318   6.623  0.0680 -0.3625  0.5463
 1577SOL    HW115045   8.436   5.283   6.712  0.4252  2.3106  1.7299
 1577SOL    HW215046   8.517   5.376   6.624 -0.3300  0.2614 -1.2830
 1578SOL     OW15047  12.565   9.500   7.728  0.4789  0.9258 -0.1338
 1578SOL    HW115048  12.502   9.429   7.716  0.9250  0.1394  1.8200
 1578SOL    HW215049  12.511   9.578   7.736 -0.2233  0.3725  0.7352
 1579SOL     OW15050   2.775  11.568   4.450  0.3062  0.9075 -0.4926
 1579SOL    HW115051   2.741  11.479   4.459 -0.3282  1.1798 -0.0801
 1579SOL    HW215052   2.848  11.560   4.389  1.3278 -0.1765  0.7875
 1580SOL     OW15053  11.493  10.254  10.648  0.5568  0.4878 -0.1307
 1580SOL    HW115054  11.585  10.228  10.646  0.6325  0.7104  0.2981
 1580SOL    HW215055  11.489  10.334  10.597  0.3258 -0.3305 -1.4421
 1581SOL     OW15056   5.020   5.385   6.806 -0.7395  1.0266  0.1597
 1581SOL    HW115057   5.109   5.404   6.837  1.6920 -3.4136 -2.9090
 1581SOL    HW215058   4.995   5.462   6.755  1.4993  2.2467  0.7629
 1582SOL     OW15059   2.527   3.996   3.375  0.3302 -0.3019  0.1811
 1582SOL    HW115060   2.574   3.969   3.296 -0.3842 -1.9919  0.2985
 1582SOL    HW215061   2.588   4.054   3.421  2.0804 -1.9585  0.0415
 1583SOL     OW15062   6.672  11.046   9.466 -0.3317  0.5160  0.3524
 1583SOL    HW115063   6.578  11.027   9.465 -0.6575  1.5767  2.7899
 1583SOL    HW215064   6.709  10.980   9.525 -0.0678  1.9174  1.8028
 1584SOL     OW15065   3.415   7.593   1.242 -0.1044  0.2672  0.0199
 1584SOL    HW115066   3.447   7.535   1.172  0.6065  0.8526 -0.1563
 1584SOL    HW215067   3.331   7.624   1.209 -0.7437 -1.0383  0.3411
 1585SOL     OW15068   5.912   8.714   5.105  0.0822 -0.5329 -0.0156
 1585SOL    HW115069   5.984   8.758   5.058  1.6020 -2.2429  0.6160
 1585SOL    HW215070   5.868   8.662   5.038 -0.4947  0.3639 -0.3622
 1586SOL     OW15071   1.730   3.676   2.575  0.0636  0.6992 -0.5485
 1586SOL    HW115072   1.688   3.608   2.627  0.2510 -0.0901 -1.4011
 1586SOL    HW215073   1.714   3.757   2.624 -1.5910  0.2963 -0.3459
 1587SOL     OW15074   6.636   9.445   5.464  0.2706  0.9250  0.1455
 1587SOL    HW115075   6.543   9.426   5.451 -0.0105  0.2807  2.6744
 1587SOL    HW215076   6.678   9.360   5.472  1.2548  1.1874 -1.5688
 1588SOL     OW15077   3.248   8.678   0.502 -0.4895  0.5752 -0.0027
 1588SOL    HW115078   3.326   8.630   0.530 -1.1010  0.1631  1.0447
 1588SOL    HW215079   3.196   8.687   0.582 -0.4491  2.9141 -0.1668
 1589SOL     OW15080   9.329   9.506  12.813 -0.9589 -0.0169 -0.0653
 1589SOL    HW115081   9.342   9.600  12.799 -0.6340 -0.2036 -1.0814
 1589SOL    HW215082   9.395   9.482  12.878  0.5120  0.0258 -1.4957
 1590SOL     OW15083   8.946  10.200   3.661 -0.2509  0.2622 -0.4325
 1590SOL    HW115084   8.856  10.222   3.683 -0.3445  1.3459 -1.7404
 1590SOL    HW215085   8.941  10.113   3.623 -0.4727 -0.4088  1.0535
 1591SOL     OW15086   2.849   6.574   6.173 -0.2367  0.2188 -0.6127
 1591SOL    HW115087   2.910   6.585   6.100  1.0606 -3.2553 -0.2318
 1591SOL    HW215088   2.763   6.567   6.131  0.6461 -3.4733 -2.1760
 1592SOL     OW15089   4.834  10.496   2.780  0.1526  0.1596 -0.0822
 1592SOL    HW115090   4.825  10.560   2.708 -0.4305  0.4625  0.2500
 1592SOL    HW215091   4.928  10.490   2.794  0.3641 -0.7507 -1.6243
 1593SOL     OW15092   0.698  12.805   0.394 -0.2223  0.2309 -0.1543
 1593SOL    HW115093   0.613  12.839   0.365 -0.5238 -1.6621 -1.6948
 1593SOL    HW215094   0.677  12.722   0.437  0.7699  0.2669  0.4295
 1594SOL     OW15095   3.504   1.650   4.128 -0.3665  0.1224  0.4676
 1594SOL    HW115096   3.427   1.698   4.098 -0.0317  0.9835  0.9466
 1594SOL    HW215097   3.542   1.706   4.196  1.5165  0.4165 -0.7655
 1595SOL     OW15098   7.268  10.652   0.802 -0.4298  0.3284  0.5742
 1595SOL    HW115099   7.288  10.558   0.804  1.1466  0.6506  1.7164
 1595SOL    HW215100   7.330  10.688   0.738 -0.0697  0.7769  1.1648
 1596SOL     OW15101   3.330   0.426  11.625  0.2607 -0.5830 -0.1148
 1596SOL    HW115102   3.407   0.466  11.665 -0.9650  0.6116  1.1940
 1596SOL    HW215103   3.351   0.333  11.618  2.3019 -0.1112 -1.0345
 1597SOL     OW15104   4.734   5.992   2.524 -0.1598 -0.0855 -0.1838
 1597SOL    HW115105   4.708   6.034   2.443 -0.0945  0.7977  0.2392
 1597SOL    HW215106   4.690   5.907   2.523 -1.4514  0.5716 -0.3954
 1598SOL     OW15107   7.392   9.042   2.964  0.0580  0.4341  0.1438
 1598SOL    HW115108   7.375   8.974   2.898 -0.3602 -0.1772  0.8702
 1598SOL    HW215109   7.437   9.111   2.915 -0.9235  0.3344 -0.9653
 1599SOL     OW15110  10.225   4.386   5.826 -0.1257  0.5672  0.0401
 1599SOL    HW115111  10.197   4.381   5.918  1.3956 -1.5561  0.4715
 1599SOL    HW215112  10.158   4.339   5.778 -1.4275  2.4863 -0.1508
 1600SOL     OW15113   4.880   9.083   3.468 -0.4397  0.5487 -0.0568
 1600SOL    HW115114   4.918   9.170   3.456 -0.3872  0.4228 -0.9242
 1600SOL    HW215115   4.787   9.094   3.447 -0.0711  0.0152 -2.2875
 1601SOL     OW15116   5.216   7.915  12.247 -0.0701  0.8316 -0.2719
 1601SOL    HW115117   5.159   7.840  12.230  0.5188  0.5406 -1.0119
 1601SOL    HW215118   5.189   7.946  12.333 -0.3248 -0.2256  0.0398
 1602SOL     OW15119  10.880   0.845   9.026  0.2541 -0.7369 -0.7302
 1602SOL    HW115120  10.913   0.935   9.036  0.0222 -0.7819  0.6630
 1602SOL    HW215121  10.958   0.792   9.010  0.5914 -0.5001  0.0695
 1603SOL     OW15122   2.134   3.905   4.233 -0.2585 -0.4425  0.2140
 1603SOL    HW115123   2.143   3.997   4.206  1.9458  0.0455  2.2566
 1603SOL    HW215124   2.044   3.899   4.265 -0.4256  1.0372  0.1190
 1604SOL     OW15125  10.510   6.185  11.277  0.3084  0.5669  0.2623
 1604SOL    HW115126  10.570   6.259  11.269  0.2481  0.4228 -2.3995
 1604SOL    HW215127  10.552   6.115  11.226  0.2338 -1.1986  2.4601
 1605SOL     OW15128   9.755   7.379   5.476  0.1104  0.1221 -0.9655
 1605SOL    HW115129   9.673   7.427   5.477  0.1680  0.2352 -1.6135
 1605SOL    HW215130   9.819   7.441   5.440  0.6715  0.3389  0.3548
 1606SOL     OW15131   7.829  10.286   0.029 -0.5238 -0.2902  0.2054
 1606SOL    HW115132   7.841  10.203   0.075  0.9691  0.1013  0.5767
 1606SOL    HW215133   7.771  10.337   0.085  0.3321 -0.2659  1.0893
 1607SOL     OW15134   9.905  10.992   4.921 -0.4410 -0.2148  0.8514
 1607SOL    HW115135   9.902  10.989   5.017 -1.3645  0.0990  0.8372
 1607SOL    HW215136   9.975  10.930   4.898  1.0996  1.0854  1.7905
 1608SOL     OW15137   3.019  10.051  12.316 -0.0878 -0.4202 -0.6587
 1608SOL    HW115138   3.096   9.995  12.307  0.7308  0.9112 -2.4901
 1608SOL    HW215139   3.051  10.129  12.362 -0.2415  0.2648 -1.6803
 1609SOL     OW15140  11.285   8.468  10.402  0.5439  0.4666 -0.2948
 1609SOL    HW115141  11.370   8.493  10.364  1.4720  0.7040  1.7792
 1609SOL    HW215142  11.268   8.381  10.366  1.9698  0.1657 -0.3215
 1610SOL     OW15143   5.903  11.085   0.325 -0.4643  0.6977 -0.5548
 1610SOL    HW115144   5.878  11.006   0.277  1.5630 -0.8293  0.7512
 1610SOL    HW215145   5.963  11.131   0.266 -0.0501  0.1978 -0.5285
 1611SOL     OW15146   2.562   2.757   9.351 -0.0948 -0.3387 -0.5889
 1611SOL    HW115147   2.500   2.772   9.281  2.1395 -1.3040 -2.9499
 1611SOL    HW215148   2.568   2.841   9.397 -2.0734  0.1344 -1.1190
 1612SOL     OW15149   7.999   3.044   3.884  0.2721  0.2252 -0.4162
 1612SOL    HW115150   8.073   2.997   3.845  0.4915 -0.0261  0.3010
 1612SOL    HW215151   8.011   3.135   3.857  2.8967  0.9453  2.6309
 1613SOL     OW15152   4.780   5.183   6.083 -0.0719  0.3267 -0.2063
 1613SOL    HW115153   4.700   5.145   6.048 -0.4296  0.5982  0.3122
 1613SOL    HW215154   4.840   5.187   6.008  0.3103 -2.0957 -0.1059
 1614SOL     OW15155   7.990   4.161   4.051 -0.1475 -0.0677 -0.1519
 1614SOL    HW115156   7.909   4.141   4.004 -0.3964 -1.0435  0.6573
 1614SOL    HW215157   8.018   4.245   4.015 -2.7007  1.4455  1.0802
 1615SOL     OW15158   1.292   7.688   4.322  0.2300  0.3880  0.5054
 1615SOL    HW115159   1.333   7.756   4.374 -1.0944  1.5202  0.1338
 1615SOL    HW215160   1.202   7.684   4.354  1.0487 -3.6969  2.9866
 1616SOL     OW15161   4.013  11.786   2.821  0.0713  0.4504 -0.6235
 1616SOL    HW115162   4.039  11.821   2.736 -0.9753 -0.1717 -1.2365
 1616SOL    HW215163   4.067  11.708   2.832 -1.0076 -0.4750 -1.5840
 1617SOL     OW15164   9.003   2.730  10.401  0.4656  0.9687 -0.1617
 1617SOL    HW115165   8.914   2.716  10.433  1.0535  0.1657  1.2296
 1617SOL    HW215166   9.009   2.825  10.387 -0.7286  0.9788 -0.6918
 1618SOL     OW15167   1.699   4.432  12.860 -0.3500  0.5842  0.0461
 1618SOL    HW115168   1.792   4.435  12.885 -0.0020 -0.0021 -1.1581
 1618SOL    HW215169   1.666   4.351  12.898 -0.3614  0.7560  0.4101
 1619SOL     OW15170   2.510   3.197   0.052 -0.3751  0.0778  0.0387
 1619SOL    HW115171   2.567   3.264   0.090  1.2156 -1.2281  0.0786
 1619SOL    HW215172   2.540   3.115   0.092 -2.3354 -0.6633  0.0713
 1620SOL     OW15173  11.869  10.038   2.289  0.1768  0.2416 -0.1466
 1620SOL    HW115174  11.960  10.015   2.272  0.2127 -0.6399  1.0698
 1620SOL    HW215175  11.873  10.121   2.336  0.3791  0.1077  0.0775
 1621SOL     OW15176   8.868   3.178   5.281 -0.0178  0.1540 -0.6369
 1621SOL    HW115177   8.790   3.138   5.320  0.1101 -0.3220 -0.8553
 1621SOL    HW215178   8.834   3.253   5.232 -0.4619 -0.5395 -1.4430
 1622SOL     OW15179   8.858   1.896   7.996  0.5530 -0.3041  0.1789
 1622SOL    HW115180   8.837   1.866   8.085 -0.2815  0.1093  0.1315
 1622SOL    HW215181   8.930   1.839   7.968  0.1780 -1.0780  0.7450
 1623SOL     OW15182   1.573   2.834  10.848 -0.3369 -0.0310 -0.3084
 1623SOL    HW115183   1.548   2.765  10.910  0.4500  0.6623  0.8211
 1623SOL    HW215184   1.668   2.829  10.844 -0.4028 -0.8388 -2.4347
 1624SOL     OW15185   4.168   2.066   9.891 -0.1892 -0.1566 -0.2327
 1624SOL    HW115186   4.186   2.041   9.800 -1.0568  0.6408 -0.6397
 1624SOL    HW215187   4.254   2.075   9.931  0.1937 -1.6936 -0.6401
 1625SOL     OW15188   5.865   8.417   7.664  0.1108 -0.1429 -0.0286
 1625SOL    HW115189   5.856   8.324   7.682 -0.9794 -0.2645 -1.1124
 1625SOL    HW215190   5.916   8.422   7.583  0.8176  0.2370  0.4279
 1626SOL     OW15191   4.741   0.217   4.922 -0.5366 -0.4373 -0.0217
 1626SOL    HW115192   4.667   0.247   4.974 -1.1708 -3.1573  0.7935
 1626SOL    HW215193   4.784   0.152   4.976  2.0958  0.5347 -0.7715
 1627SOL     OW15194  11.253  11.305   4.325 -0.4189 -0.1528 -0.9550
 1627SOL    HW115195  11.212  11.381   4.284 -0.6178 -0.4936 -1.4016
 1627SOL    HW215196  11.185  11.238   4.322 -0.4090 -0.2104 -0.1344
 1628SOL     OW15197   3.132   3.783   4.218  0.2133 -0.3527 -0.4985
 1628SOL    HW115198   3.228   3.789   4.216  0.1848  0.2703 -0.1931
 1628SOL    HW215199   3.114   3.706   4.271  0.5442 -0.5497 -0.6654
 1629SOL     OW15200   3.064   6.586   4.703  0.2160 -0.0924 -0.1199
 1629SOL    HW115201   3.156   6.592   4.681  0.1967 -1.6843 -0.7263
 1629SOL    HW215202   3.057   6.508   4.758 -0.9121 -0.6244 -0.9769
 1630SOL     OW15203   2.735   9.515   0.071 -0.6200  0.3148  0.4105
 1630SOL    HW115204   2.766   9.446   0.130 -0.2692  0.0202 -0.1068
 1630SOL    HW215205   2.697   9.581   0.129 -0.5337 -0.0974  0.9447
 1631SOL     OW15206  11.907  10.597   9.043 -0.0565  0.1684  0.1333
 1631SOL    HW115207  11.829  10.553   9.011 -0.9659  1.3776  0.6134
 1631SOL    HW215208  11.949  10.533   9.100 -0.7358 -0.4594 -0.0561
 1632SOL     OW15209  11.169  10.197   1.030 -0.1884  0.4517  0.1276
 1632SOL    HW115210  11.222  10.277   1.037  0.6249 -0.2469  2.6044
 1632SOL    HW215211  11.217  10.143   0.967 -0.1330  1.4191 -0.6998
 1633SOL     OW15212   1.017   7.505   5.493 -0.4238  0.5010  0.0040
 1633SOL    HW115213   1.078   7.565   5.449  0.7926  0.5426  1.6467
 1633SOL    HW215214   0.973   7.459   5.422 -0.3329  2.3118 -1.2772
 1634SOL     OW15215   7.177   7.667   5.371  0.0240  0.4762  0.3566
 1634SOL    HW115216   7.092   7.707   5.390 -0.2094  1.4612 -2.3966
 1634SOL    HW215217   7.161   7.608   5.298  1.1333 -1.9215  1.9500
 1635SOL     OW15218   8.812   7.381   1.897  0.0246 -0.0314 -0.1497
 1635SOL    HW115219   8.875   7.355   1.964  0.1003 -0.2938 -0.3204
 1635SOL    HW215220   8.764   7.454   1.936 -0.1085 -0.3506  0.2915
 1636SOL     OW15221   1.093   2.895  11.827 -0.0336  0.1384  0.2921
 1636SOL    HW115222   1.174   2.867  11.870  0.8647 -2.2031 -2.5605
 1636SOL    HW215223   1.064   2.818  11.778 -1.7569  2.0563 -1.9748
 1637SOL     OW15224  12.136  11.682   6.469  0.0528  0.0908  0.0307
 1637SOL    HW115225  12.127  11.625   6.392 -0.6975  1.1140 -0.6571
 1637SOL    HW215226  12.047  11.692   6.503  0.1586  0.9201  0.0923
 1638SOL     OW15227   8.748   1.551   5.716 -0.1642 -0.4080 -0.1789
 1638SOL    HW115228   8.790   1.569   5.632  2.4409 -1.2203  0.8447
 1638SOL    HW215229   8.761   1.457   5.729 -1.1714 -0.4236  0.8076
 1639SOL     OW15230   4.269   5.416   2.737  0.3665 -0.2323  0.1115
 1639SOL    HW115231   4.252   5.507   2.712  0.0273 -0.8343 -2.1404
 1639SOL    HW215232   4.188   5.369   2.713  0.8552 -1.2479  0.3998
 1640SOL     OW15233   1.339   9.941   4.381 -0.0396  0.4555  0.2451
 1640SOL    HW115234   1.277   9.925   4.311 -0.2921 -0.2596  0.6300
 1640SOL    HW215235   1.366  10.033   4.369  0.0121  0.3046 -0.8476
 1641SOL     OW15236  12.026  12.512   1.781 -0.3483  0.3078 -0.1307
 1641SOL    HW115237  11.963  12.440   1.782 -0.4950  0.4310 -0.2901
 1641SOL    HW215238  12.054  12.521   1.872  1.7170 -1.7333 -0.4747
 1642SOL     OW15239   7.258   7.575   8.971 -0.2841  0.3337 -0.0006
 1642SOL    HW115240   7.348   7.565   9.002 -0.2283 -0.0528 -0.2872
 1642SOL    HW215241   7.263   7.645   8.906 -0.4027  1.1533  0.8515
 1643SOL     OW15242   6.269   7.335   5.058 -0.5789  0.1854 -0.0342
 1643SOL    HW115243   6.244   7.428   5.054 -1.0781  0.2462  2.7845
 1643SOL    HW215244   6.339   7.331   5.123  1.0142 -1.1796 -1.7182
 1644SOL     OW15245   1.677   8.866   0.137 -0.2452  0.5288 -0.2495
 1644SOL    HW115246   1.713   8.955   0.132  3.5905 -0.7676  0.9055
 1644SOL    HW215247   1.728   8.816   0.074 -0.8319 -1.2986  0.6583
 1645SOL     OW15248   1.550   9.801   8.718  0.0676 -0.0996 -0.3780
 1645SOL    HW115249   1.490   9.872   8.695 -0.5788 -0.4714  0.1427
 1645SOL    HW215250   1.558   9.749   8.639  0.9891  0.8467 -0.9488
 1646SOL     OW15251  11.277   9.638   2.956  0.2370  0.0187 -0.1944
 1646SOL    HW115252  11.238   9.595   3.032 -0.9639  0.0837 -0.7540
 1646SOL    HW215253  11.262   9.731   2.971  2.8518  0.3379  1.0270
 1647SOL     OW15254   0.567   9.254   1.432  0.3657  0.1010  0.4333
 1647SOL    HW115255   0.655   9.286   1.452 -0.2393  0.8123  2.1321
 1647SOL    HW215256   0.547   9.193   1.503 -0.0618 -1.0435 -0.6169
 1648SOL     OW15257   9.005  10.985   9.788  0.5474  0.1260  0.1032
 1648SOL    HW115258   9.017  10.997   9.882 -0.4868  1.7202  0.0799
 1648SOL    HW215259   9.027  11.070   9.750 -1.5632  0.3472 -0.7991
 1649SOL     OW15260  10.658   8.808   0.544  0.3977 -0.0080  0.5224
 1649SOL    HW115261  10.734   8.866   0.541 -0.2703  0.9162  1.0247
 1649SOL    HW215262  10.675   8.749   0.617  1.9024 -1.6645 -1.0535
 1650SOL     OW15263   2.959   1.411   1.066 -0.2100  0.3968 -0.0353
 1650SOL    HW115264   2.991   1.323   1.045 -1.1826  0.2574 -0.9971
 1650SOL    HW215265   3.023   1.470   1.028 -1.2027  0.1287 -2.2491
 1651SOL     OW15266   3.162  10.255   2.374  0.1307 -0.6494  0.0017
 1651SOL    HW115267   3.192  10.302   2.452  0.1731 -0.8583  0.1132
 1651SOL    HW215268   3.225  10.183   2.364  0.4426 -0.3063 -0.5399
 1652SOL     OW15269   9.028   2.439   1.133  0.7273  0.2608 -0.3068
 1652SOL    HW115270   9.069   2.471   1.213 -0.3787  0.6272  0.1253
 1652SOL    HW215271   8.935   2.457   1.144  0.4108 -0.7267 -1.1862
 1653SOL     OW15272   7.033   8.107   7.542 -0.2853 -0.3079 -0.1738
 1653SOL    HW115273   7.004   8.024   7.581 -3.4454  0.2677 -0.9539
 1653SOL    HW215274   7.022   8.094   7.448  1.7326  0.1859 -0.5112
 1654SOL     OW15275   6.413  11.447  12.761  0.2263  0.4007  0.2243
 1654SOL    HW115276   6.418  11.384  12.689 -1.0557  0.6255 -0.0862
 1654SOL    HW215277   6.420  11.393  12.840 -0.2532 -0.0691 -0.0490
 1655SOL     OW15278   6.006   1.812   7.068  0.0075 -0.3898 -0.5943
 1655SOL    HW115279   5.972   1.881   7.125  1.0604  0.5785 -1.0953
 1655SOL    HW215280   5.954   1.819   6.988  1.6818  1.4925 -1.5963
 1656SOL     OW15281  11.701   3.455   5.120 -0.5111 -0.8277 -0.2237
 1656SOL    HW115282  11.786   3.485   5.090  0.4050 -1.7583  1.3174
 1656SOL    HW215283  11.642   3.474   5.047  1.1263 -0.7823 -1.5996
 1657SOL     OW15284   1.472   3.074   3.410  0.0371 -0.0875 -0.4702
 1657SOL    HW115285   1.441   2.983   3.403 -0.5107  0.0348  0.1964
 1657SOL    HW215286   1.395   3.123   3.438  0.7332  0.2851  0.9255
 1658SOL     OW15287   5.382   8.854   1.336  0.2257  0.3863 -0.1265
 1658SOL    HW115288   5.364   8.867   1.243  1.5488  1.4425 -0.2624
 1658SOL    HW215289   5.453   8.790   1.338 -1.1849 -1.2430  0.2738
 1659SOL     OW15290   2.042   2.860   2.536  0.2612 -0.1030  0.1626
 1659SOL    HW115291   2.121   2.836   2.585  0.3971 -2.9587 -1.2269
 1659SOL    HW215292   1.986   2.782   2.542 -0.5290  0.1478 -2.5125
 1660SOL     OW15293   3.576   0.869  10.854 -0.7754  0.4511  0.2951
 1660SOL    HW115294   3.560   0.804  10.785  1.1218 -0.6295  0.8184
 1660SOL    HW215295   3.491   0.912  10.866 -2.2228 -2.1470  0.1718
 1661SOL     OW15296  12.759   6.975  11.549  0.1133 -0.6985  0.1057
 1661SOL    HW115297  12.665   6.960  11.545 -0.1061  0.6812 -0.5169
 1661SOL    HW215298  12.769   7.044  11.615  0.6374 -0.4931 -0.1864
 1662SOL     OW15299   1.431   5.368   6.450  0.3799  0.3336 -0.1559
 1662SOL    HW115300   1.508   5.387   6.504 -0.2333 -0.6098  1.1284
 1662SOL    HW215301   1.363   5.426   6.485  0.3500  0.7496 -0.8969
 1663SOL     OW15302  12.721   6.243   5.034 -0.4291  0.1620 -0.1810
 1663SOL    HW115303  12.656   6.197   4.981 -1.6744  1.1212  0.4637
 1663SOL    HW215304  12.725   6.193   5.115  0.0445 -0.1915 -0.4142
 1664SOL     OW15305  10.346   2.829   1.147  0.0079  0.3576  0.2374
 1664SOL    HW115306  10.342   2.747   1.098 -0.6733  0.4146  0.1926
 1664SOL    HW215307  10.274   2.823   1.211 -0.3897  1.1411 -0.1237
 1665SOL     OW15308   4.312   4.187   5.114  0.1838  0.2463 -0.0504
 1665SOL    HW115309   4.326   4.105   5.066  1.9256  0.4307  0.0809
 1665SOL    HW215310   4.343   4.255   5.055 -1.6938  0.8892 -0.3429
 1666SOL     OW15311   4.706   6.670   8.566  0.3721  0.5861 -0.3275
 1666SOL    HW115312   4.663   6.598   8.518 -0.0198 -0.0851  0.9951
 1666SOL    HW215313   4.664   6.669   8.652  0.3934  2.3883 -0.2683
 1667SOL     OW15314  12.358   5.151   0.853 -0.4289  0.5605 -0.4947
 1667SOL    HW115315  12.446   5.138   0.819  0.0395 -0.5189  1.0303
 1667SOL    HW215316  12.300   5.132   0.780  0.5584 -0.4771 -1.0259
 1668SOL     OW15317   6.408  10.797   7.058 -0.0110  0.7041 -0.1299
 1668SOL    HW115318   6.500  10.774   7.048 -0.1782 -0.8544  1.4028
 1668SOL    HW215319   6.399  10.818   7.151 -1.2535  0.6385 -0.2206
 1669SOL     OW15320   6.407   0.846  10.782 -0.1330  0.1823  0.8208
 1669SOL    HW115321   6.423   0.776  10.845 -1.9941 -1.0929 -0.0385
 1669SOL    HW215322   6.454   0.817  10.703  1.6297  1.4477  1.3416
 1670SOL     OW15323  12.085   0.319   9.437 -0.3454 -0.1209 -0.2447
 1670SOL    HW115324  12.043   0.364   9.510 -0.1925 -0.5015  0.0841
 1670SOL    HW215325  12.039   0.351   9.359  0.8333  1.8258 -0.1954
 1671SOL     OW15326   6.381   0.446   7.186 -0.0064 -0.2536 -0.0831
 1671SOL    HW115327   6.369   0.472   7.095 -0.2182 -0.9179 -0.2487
 1671SOL    HW215328   6.450   0.379   7.183 -0.7706 -1.0637  0.1053
 1672SOL     OW15329   5.321  11.543   2.083 -0.5551  0.6679 -0.3486
 1672SOL    HW115330   5.262  11.491   2.138  0.5645  0.6617  0.8943
 1672SOL    HW215331   5.357  11.609   2.143  0.3561  0.9577 -1.1946
 1673SOL     OW15332   6.755   1.290   7.313  0.2899  0.1972  0.3748
 1673SOL    HW115333   6.790   1.233   7.245  0.4634  1.4660 -0.6247
 1673SOL    HW215334   6.673   1.324   7.277  0.1040  0.4548  1.0178
 1674SOL     OW15335   0.612   9.544   5.675  0.0579  0.5170 -0.1054
 1674SOL    HW115336   0.676   9.597   5.627  0.0946 -1.0272 -1.8805
 1674SOL    HW215337   0.532   9.550   5.623 -0.0039 -0.9325 -0.2144
 1675SOL     OW15338  11.530   8.042   1.914 -0.2349 -0.9086  0.0750
 1675SOL    HW115339  11.560   7.953   1.896 -0.7679 -1.0925  0.0941
 1675SOL    HW215340  11.476   8.065   1.838 -0.0738 -0.5900  0.0534
 1676SOL     OW15341   2.321   4.121   8.978 -0.2414  0.4142  0.6510
 1676SOL    HW115342   2.324   4.200   8.924 -1.2970 -1.7681 -2.9423
 1676SOL    HW215343   2.230   4.114   9.005 -0.6106 -0.5032 -0.7211
 1677SOL     OW15344  10.879  10.795   5.581 -0.0711 -0.3455 -0.0823
 1677SOL    HW115345  10.934  10.778   5.657 -0.0316 -1.9462 -0.4222
 1677SOL    HW215346  10.900  10.724   5.520  0.2201  1.1265 -1.7874
 1678SOL     OW15347  12.480   5.927  11.274 -0.1241 -0.6617 -0.1767
 1678SOL    HW115348  12.541   5.961  11.209  1.0303 -1.1595  0.6251
 1678SOL    HW215349  12.531   5.865  11.325 -0.8617  0.0985  1.5593
 1679SOL     OW15350  10.151  11.946   4.519  0.1889  0.2133  0.1152
 1679SOL    HW115351  10.228  11.956   4.575  0.7095 -3.0107  0.1660
 1679SOL    HW215352  10.147  12.028   4.469  1.1212  2.2060  3.0375
 1680SOL     OW15353   5.691   9.539   7.246  0.2561 -0.2225 -0.1919
 1680SOL    HW115354   5.605   9.497   7.248  0.4961 -0.7084  0.4210
 1680SOL    HW215355   5.674   9.631   7.270  0.0530 -0.6116  1.2718
 1681SOL     OW15356   7.570   2.006   3.711  0.1115 -0.1077 -0.3845
 1681SOL    HW115357   7.562   2.091   3.668 -0.1744  0.4307  0.7235
 1681SOL    HW215358   7.571   2.025   3.804 -1.4004 -1.4246 -0.0570
 1682SOL     OW15359   0.015  10.670   0.508 -0.3813  0.7943 -0.4046
 1682SOL    HW115360  -0.071  10.641   0.477 -0.5921 -0.7668  1.4104
 1682SOL    HW215361   0.056  10.710   0.432 -1.3562 -1.5846 -2.3329
 1683SOL     OW15362   2.346   1.412   8.142  0.2950 -0.1235 -0.7668
 1683SOL    HW115363   2.401   1.354   8.195 -2.5085 -1.9747  0.3601
 1683SOL    HW215364   2.362   1.384   8.052  0.5352 -1.2244 -0.3969
 1684SOL     OW15365   5.230   5.299   8.118  0.3639  0.2447  0.3290
 1684SOL    HW115366   5.221   5.324   8.026  0.8998 -0.3888  0.0947
 1684SOL    HW215367   5.142   5.305   8.154  0.5096  2.8921  0.4142
 1685SOL     OW15368   1.052   9.485   8.042 -0.7853 -0.4839  0.7478
 1685SOL    HW115369   1.072   9.558   7.982  1.3129 -0.2437  1.6575
 1685SOL    HW215370   1.063   9.522   8.129  2.8604 -2.3703  1.2825
 1686SOL     OW15371   4.703   0.793   4.980 -0.1041 -0.5961  0.6702
 1686SOL    HW115372   4.782   0.817   4.931 -0.6940  0.0167  0.0110
 1686SOL    HW215373   4.729   0.714   5.028  0.9872 -0.2723  0.6583
 1687SOL     OW15374  11.839   3.659   5.614  0.0500  0.4191 -0.3197
 1687SOL    HW115375  11.751   3.656   5.652 -0.3312  1.7147 -1.0564
 1687SOL    HW215376  11.826   3.630   5.523  0.0681  2.1788 -0.9193
 1688SOL     OW15377   6.508  10.892  12.262  0.6213 -0.0186  0.7045
 1688SOL    HW115378   6.482  10.958  12.197  1.6503 -0.2254  0.0561
 1688SOL    HW215379   6.437  10.828  12.262  0.1489  0.4966  0.5117
 1689SOL     OW15380   4.762   7.913  11.113 -0.0611  0.5052 -0.0982
 1689SOL    HW115381   4.763   7.817  11.108 -1.9665  0.4329  0.0022
 1689SOL    HW215382   4.783   7.933  11.204  1.6626  0.2728 -0.4147
 1690SOL     OW15383   6.153   8.457   3.494  0.2954 -0.1161 -0.6493
 1690SOL    HW115384   6.201   8.540   3.490 -1.1858  0.7909 -0.3661
 1690SOL    HW215385   6.065   8.481   3.522  0.3832 -2.0291  1.6788
 1691SOL     OW15386  11.594   3.195  12.302 -0.7218  0.1463  0.4316
 1691SOL    HW115387  11.677   3.162  12.336 -1.0452  0.1697  1.2790
 1691SOL    HW215388  11.614   3.225  12.214  0.2331  0.4127  0.7304
 1692SOL     OW15389   9.450   9.317   1.915 -0.5780  0.3203  0.1470
 1692SOL    HW115390   9.465   9.289   2.006 -0.9006 -3.3098 -0.7657
 1692SOL    HW215391   9.506   9.259   1.863 -0.0806  2.5890 -2.0351
 1693SOL     OW15392   8.528   1.770   6.205 -0.3217 -0.2025  0.4991
 1693SOL    HW115393   8.477   1.811   6.135 -0.4079 -0.2013  0.5620
 1693SOL    HW215394   8.463   1.750   6.273 -0.6123 -2.0593 -0.2567
 1694SOL     OW15395  10.742   6.254  11.467  0.3280  0.2339  0.0502
 1694SOL    HW115396  10.827   6.244  11.509 -0.4070  0.5157  1.6810
 1694SOL    HW215397  10.685   6.192  11.514 -0.1648 -0.7021 -1.6854
 1695SOL     OW15398  10.384   7.828   4.898  0.6535 -0.1235  0.0972
 1695SOL    HW115399  10.466   7.835   4.948  0.2970 -1.3542  0.9342
 1695SOL    HW215400  10.315   7.849   4.962  0.3014  0.6365 -0.5242
 1696SOL     OW15401   4.839  10.887   9.803  0.6961  0.0925  0.4335
 1696SOL    HW115402   4.900  10.961   9.809  1.1009 -0.2510  0.6028
 1696SOL    HW215403   4.803  10.879   9.892  0.8571 -0.0864  0.4825
 1697SOL     OW15404   3.293   9.369  11.009 -0.1384  0.0787 -0.8407
 1697SOL    HW115405   3.224   9.357  10.944 -0.8044 -1.7532  0.1302
 1697SOL    HW215406   3.370   9.394  10.958 -0.6066 -1.4444 -2.3711
 1698SOL     OW15407  10.277  12.609   1.862  0.7125  0.1361  0.1664
 1698SOL    HW115408  10.276  12.516   1.840  0.3796  0.4967 -1.4792
 1698SOL    HW215409  10.191  12.641   1.835  0.0016  0.5541  2.6486
 1699SOL     OW15410   0.737   8.590   8.736  0.6029 -0.5814  0.4987
 1699SOL    HW115411   0.821   8.550   8.710  1.3181  1.5343 -0.6968
 1699SOL    HW215412   0.673   8.521   8.721  2.0211 -2.0209  0.7049
 1700SOL     OW15413   3.798   0.029   0.381 -0.0968  0.8881 -0.0379
 1700SOL    HW115414   3.873   0.002   0.328 -2.6959  0.6430 -4.0342
 1700SOL    HW215415   3.817   0.120   0.404  2.3327  0.1846  1.0408
 1701SOL     OW15416   0.594  12.518   1.464  0.2200 -0.0418  0.0034
 1701SOL    HW115417   0.505  12.520   1.499  0.4222 -1.2761  0.6574
 1701SOL    HW215418   0.597  12.440   1.409  0.3503  1.0660 -1.6130
 1702SOL     OW15419  10.013   8.507   1.730 -0.1709  0.2840 -0.5815
 1702SOL    HW115420  10.099   8.503   1.688 -0.1256 -0.4148 -0.4219
 1702SOL    HW215421  10.011   8.433   1.790 -1.0147  0.0911 -0.8268
 1703SOL     OW15422  10.450   8.772   3.801  0.5708  0.0449 -0.0492
 1703SOL    HW115423  10.461   8.715   3.877  2.3514 -0.8754 -0.9354
 1703SOL    HW215424  10.535   8.816   3.791  0.5091 -0.1397 -1.6972
 1704SOL     OW15425   2.538  10.209   2.770 -0.6092 -0.0627 -0.5890
 1704SOL    HW115426   2.604  10.237   2.706 -0.1840  0.5926  0.1100
 1704SOL    HW215427   2.502  10.291   2.804 -1.6246 -0.4164 -0.7922
 1705SOL     OW15428   2.264   9.499  10.669 -0.2825 -0.3234 -0.3222
 1705SOL    HW115429   2.216   9.504  10.752 -2.1954  0.0046 -1.4144
 1705SOL    HW215430   2.220   9.432  10.618  0.8148 -0.4544 -1.1449
 1706SOL     OW15431   2.150   2.529   3.761  0.0469  0.0085 -0.2980
 1706SOL    HW115432   2.121   2.557   3.848 -1.2047  0.2719 -0.7872
 1706SOL    HW215433   2.106   2.589   3.701  0.3533 -0.6215 -1.1562
 1707SOL     OW15434   8.846   3.084   3.899 -0.1122 -0.4195 -0.4696
 1707SOL    HW115435   8.754   3.057   3.908 -0.6931  0.6110 -2.6651
 1707SOL    HW215436   8.856   3.157   3.960 -0.5027 -1.0443  0.3650
 1708SOL     OW15437   4.515  11.151  11.079 -0.1390  0.2911 -0.4413
 1708SOL    HW115438   4.431  11.107  11.068  0.5087 -0.9868 -0.4299
 1708SOL    HW215439   4.511  11.226  11.019 -0.6808 -0.6623 -1.6440
 1709SOL     OW15440   5.636   7.355   2.190  0.3564 -0.0945  0.4328
 1709SOL    HW115441   5.598   7.425   2.137 -1.3740 -1.3613 -0.0950
 1709SOL    HW215442   5.669   7.292   2.126 -2.0556 -1.8053  0.7327
 1710SOL     OW15443  10.818  10.553   6.631  0.2903  0.6835 -0.1275
 1710SOL    HW115444  10.742  10.561   6.573 -0.4377 -0.5543  0.6077
 1710SOL    HW215445  10.893  10.573   6.575 -0.4626  0.4239 -1.2695
 1711SOL     OW15446   2.443  11.389   1.591 -0.3326 -0.3585  0.3080
 1711SOL    HW115447   2.519  11.427   1.635 -0.6506  0.5626  0.0772
 1711SOL    HW215448   2.478  11.347   1.513  0.1051 -1.1228  0.8999
 1712SOL     OW15449   1.927   7.769   2.631 -0.0713 -0.6653 -0.5030
 1712SOL    HW115450   1.974   7.848   2.657  1.4575 -0.4611 -3.4647
 1712SOL    HW215451   1.853   7.801   2.578 -1.7216 -1.1438  1.3772
 1713SOL     OW15452   2.252   8.151  11.177  0.6541 -0.6392  0.6756
 1713SOL    HW115453   2.313   8.225  11.176 -1.1774  0.9864  1.6043
 1713SOL    HW215454   2.286   8.093  11.245  1.3491  0.0609  0.9454
 1714SOL     OW15455   5.856   7.483   4.059  0.1888  0.6226  0.1655
 1714SOL    HW115456   5.844   7.429   4.137  0.0908 -0.1886 -0.3967
 1714SOL    HW215457   5.881   7.569   4.093  0.3871  0.2173  1.0796
 1715SOL     OW15458   0.867   2.578   8.516 -0.0637 -0.2621 -0.1295
 1715SOL    HW115459   0.890   2.671   8.524  0.3677 -0.4640  1.4164
 1715SOL    HW215460   0.774   2.575   8.536 -0.0772 -0.1511 -0.1741
 1716SOL     OW15461   0.584   1.912  10.480 -0.1070  0.7392  0.4060
 1716SOL    HW115462   0.651   1.849  10.506  0.5665  1.6798  0.9984
 1716SOL    HW215463   0.559   1.955  10.562 -2.5225 -0.5928  0.4734
 1717SOL     OW15464   7.756  11.940   1.207 -0.0576 -0.1474  0.8145
 1717SOL    HW115465   7.753  12.026   1.166 -0.4162  0.0769  1.2963
 1717SOL    HW215466   7.798  11.955   1.292  2.9434 -0.9985 -0.3822
 1718SOL     OW15467  10.215  11.139   6.292 -0.1708 -0.1615  1.1896
 1718SOL    HW115468  10.210  11.159   6.386  1.7014  2.8130  0.7681
 1718SOL    HW215469  10.250  11.050   6.289 -0.0029 -0.2237  3.3062
 1719SOL     OW15470  12.547   5.690   9.652 -0.5824 -0.0538  0.0807
 1719SOL    HW115471  12.502   5.618   9.609 -0.4619  0.4393 -0.9084
 1719SOL    HW215472  12.606   5.647   9.714  0.1597 -0.8671 -1.1350
 1720SOL     OW15473  11.027   9.492   1.642  0.3262 -0.3136 -0.0746
 1720SOL    HW115474  11.004   9.520   1.553 -0.0468  0.6011  0.2926
 1720SOL    HW215475  11.123   9.497   1.644  0.2992  0.4546 -0.1938
 1721SOL     OW15476   3.467  11.831  10.141 -0.4509 -0.0714 -0.1042
 1721SOL    HW115477   3.531  11.785  10.086  1.0207  0.4458  1.1123
 1721SOL    HW215478   3.382  11.799  10.110  0.3581 -0.4612 -2.0513
 1722SOL     OW15479   5.418  10.855   7.788 -0.0729  0.1546  0.2070
 1722SOL    HW115480   5.357  10.783   7.805 -0.2930  0.0280 -1.0046
 1722SOL    HW215481   5.374  10.908   7.722  0.5715  0.7920  0.2804
 1723SOL     OW15482   4.999   4.181   9.108  0.8523  0.4134 -0.1068
 1723SOL    HW115483   5.073   4.242   9.108  1.2474 -0.0468 -0.8380
 1723SOL    HW215484   5.033   4.103   9.151  0.6498  0.3613 -0.0438
 1724SOL     OW15485   9.507   9.444  10.285 -0.0416 -0.4864 -0.0726
 1724SOL    HW115486   9.506   9.474  10.194 -1.2771  0.6648  0.2853
 1724SOL    HW215487   9.415   9.435  10.308  0.2610 -0.7320  1.0801
 1725SOL     OW15488  10.629  12.371   2.558  0.3969  0.1846  0.1386
 1725SOL    HW115489  10.698  12.306   2.547  0.1019  0.3050 -3.5823
 1725SOL    HW215490  10.656  12.445   2.504 -0.8023  1.9368  1.7788
 1726SOL     OW15491   6.741   4.853   2.646 -0.1429 -0.4944 -0.0592
 1726SOL    HW115492   6.778   4.776   2.604  0.1839  0.6420 -1.9334
 1726SOL    HW215493   6.657   4.822   2.682 -0.5390 -1.4697 -1.7224
 1727SOL     OW15494   7.215   3.383   8.876  0.8604  0.1841  0.4227
 1727SOL    HW115495   7.276   3.329   8.926  0.3752 -0.1606  0.6513
 1727SOL    HW215496   7.157   3.320   8.833 -0.7421  0.5385  1.9801
 1728SOL     OW15497  11.461  10.948  12.308  1.0798  0.2292  0.4169
 1728SOL    HW115498  11.483  10.939  12.400  2.8204  0.5221  0.0588
 1728SOL    HW215499  11.544  10.969  12.265  0.2625  0.3505 -1.1824
 1729SOL     OW15500   9.068  11.481   1.181 -0.0554 -0.4467  0.3967
 1729SOL    HW115501   9.110  11.406   1.223  1.2996 -0.0756 -0.2400
 1729SOL    HW215502   9.046  11.451   1.093 -1.4192 -0.7191  0.8029
 1730SOL     OW15503   1.476   5.716   9.875  0.6924  0.4412 -0.1859
 1730SOL    HW115504   1.456   5.800   9.918 -0.1359  0.4199 -0.5169
 1730SOL    HW215505   1.571   5.710   9.879  0.6337  0.2414  2.0305
 1731SOL     OW15506   4.420   8.579   0.863 -0.2933  0.0175 -0.4552
 1731SOL    HW115507   4.460   8.665   0.876 -2.1552  1.0405 -1.1200
 1731SOL    HW215508   4.465   8.522   0.926  1.6823  1.2093 -0.6905
 1732SOL     OW15509   1.581   8.771  10.424  0.2258  0.4103 -0.1456
 1732SOL    HW115510   1.542   8.813  10.348  0.7904  0.2120 -0.5618
 1732SOL    HW215511   1.658   8.824  10.444  0.0075  0.5376  0.3765
 1733SOL     OW15512  12.258  10.503   3.326 -0.0735  0.2256  0.4049
 1733SOL    HW115513  12.284  10.593   3.346 -0.9821  0.2789  1.4079
 1733SOL    HW215514  12.337  10.451   3.341  0.7298  0.9405 -1.0938
 1734SOL     OW15515   3.006   6.920   6.069 -0.7402 -0.4804 -0.3119
 1734SOL    HW115516   2.958   6.838   6.069 -1.9921  0.1814  1.3590
 1734SOL    HW215517   3.038   6.930   5.980 -2.8987 -1.4474 -1.2664
 1735SOL     OW15518   6.296   2.204   4.154 -0.7042 -0.1644 -0.3101
 1735SOL    HW115519   6.339   2.138   4.100 -0.6963  0.1356 -0.6802
 1735SOL    HW215520   6.350   2.283   4.142 -2.4683  0.8323 -2.4603
 1736SOL     OW15521   3.343   8.404   1.700  0.4264 -0.0185  0.0556
 1736SOL    HW115522   3.405   8.351   1.650  1.6058 -0.0222  1.4537
 1736SOL    HW215523   3.379   8.493   1.697  1.6183 -0.3340  2.4252
 1737SOL     OW15524   3.293  11.696   7.836  0.2112 -0.2560 -0.1894
 1737SOL    HW115525   3.359  11.672   7.772 -1.0439  2.7354 -2.8517
 1737SOL    HW215526   3.336  11.761   7.892  0.3485 -0.3983 -0.1303
 1738SOL     OW15527   0.032   0.878  12.711  0.7117  0.1128 -0.2207
 1738SOL    HW115528   0.083   0.935  12.769  2.2514 -0.3408 -1.0860
 1738SOL    HW215529  -0.015   0.819  12.770 -0.3276  1.7253  0.6701
 1739SOL     OW15530   6.419  11.386   9.515  0.1794  0.3271 -1.0583
 1739SOL    HW115531   6.446  11.358   9.428  3.4614 -0.2066  0.0104
 1739SOL    HW215532   6.456  11.474   9.525 -1.4899  1.0332 -0.6994
 1740SOL     OW15533   6.448   8.751   1.939 -0.1336 -0.3665 -0.6755
 1740SOL    HW115534   6.502   8.749   1.860 -1.1161 -1.6930 -1.3594
 1740SOL    HW215535   6.374   8.808   1.916 -0.6413 -1.0920 -0.8965
 1741SOL     OW15536   9.656   2.560   9.826  0.5616  0.0807  0.0909
 1741SOL    HW115537   9.594   2.557   9.900 -2.4889  0.8498 -2.2120
 1741SOL    HW215538   9.634   2.484   9.773  2.7689 -0.5195 -0.0320
 1742SOL     OW15539   3.500   5.044   3.331 -0.5885 -0.1502 -0.4147
 1742SOL    HW115540   3.534   4.958   3.359  0.7574  0.2960 -0.5785
 1742SOL    HW215541   3.574   5.084   3.285 -1.5238  0.7055 -1.2002
 1743SOL     OW15542   6.783   4.125   4.650  0.0326 -0.4619  0.0422
 1743SOL    HW115543   6.713   4.186   4.673 -1.7920 -2.1384 -0.7545
 1743SOL    HW215544   6.790   4.067   4.727  1.8978  0.7792  0.8850
 1744SOL     OW15545   5.745   3.607   9.407  0.2687 -0.4172  0.1236
 1744SOL    HW115546   5.826   3.632   9.452 -1.3716  0.7131  2.7475
 1744SOL    HW215547   5.683   3.592   9.478 -1.4234 -2.9560 -1.7182
 1745SOL     OW15548   8.218   0.042   4.719 -0.2925 -0.0904  0.3261
 1745SOL    HW115549   8.154   0.105   4.685 -0.1602 -0.4933 -0.6998
 1745SOL    HW215550   8.172  -0.001   4.791 -0.8426  0.2744  0.2024
 1746SOL     OW15551   0.744   3.875   1.349  0.0930 -0.2141 -0.0143
 1746SOL    HW115552   0.720   3.799   1.402  0.7467  0.0228  0.6399
 1746SOL    HW215553   0.666   3.894   1.297 -0.5876 -0.4207  0.9084
 1747SOL     OW15554   5.913  12.788   3.488  0.0970  0.4632  0.5033
 1747SOL    HW115555   5.929  12.713   3.545 -1.9937  1.2988  2.3534
 1747SOL    HW215556   5.861  12.753   3.415 -0.2838 -0.0366  1.0031
 1748SOL     OW15557   5.407   6.247   2.192 -0.0850 -0.6223 -0.5220
 1748SOL    HW115558   5.468   6.182   2.227  1.0619  0.3857 -0.5818
 1748SOL    HW215559   5.326   6.234   2.243  0.6956 -0.9239  0.6847
 1749SOL     OW15560   4.019   5.725   0.661 -0.6570 -0.0500  0.2465
 1749SOL    HW115561   4.108   5.760   0.656 -0.5503 -0.2099  0.9410
 1749SOL    HW215562   3.992   5.714   0.570  0.5552 -1.3506  0.0230
 1750SOL     OW15563   9.686   0.209  10.282 -0.2834  0.0269 -0.2015
 1750SOL    HW115564   9.659   0.187  10.193  0.7873  2.2754 -1.1585
 1750SOL    HW215565   9.763   0.265  10.270 -1.4097  2.2135  2.0448
 1751SOL     OW15566  11.581  11.462   5.216 -0.6598  0.0025 -0.3441
 1751SOL    HW115567  11.502  11.409   5.231 -0.6907  0.4582  1.3312
 1751SOL    HW215568  11.644  11.402   5.177 -0.8720 -1.1725  1.0380
 1752SOL     OW15569   8.233  11.413   2.191 -0.4610 -0.8007 -0.4691
 1752SOL    HW115570   8.242  11.496   2.144 -0.5897 -0.3516  0.2856
 1752SOL    HW215571   8.298  11.418   2.261 -0.6911 -1.1989 -0.2265
 1753SOL     OW15572  11.724   6.548   2.139 -0.0127 -0.1588  0.7691
 1753SOL    HW115573  11.755   6.520   2.053 -0.2733 -0.8187  0.8810
 1753SOL    HW215574  11.751   6.640   2.147 -1.0928  0.2991 -0.5473
 1754SOL     OW15575   5.201   5.948   7.170 -0.6571 -0.2382 -0.3927
 1754SOL    HW115576   5.213   5.854   7.160  2.8243  0.0897 -0.2744
 1754SOL    HW215577   5.211   5.983   7.081  1.6453  0.2439 -0.0064
 1755SOL     OW15578   4.684  10.516   6.745  0.9213 -0.3695  0.1233
 1755SOL    HW115579   4.647  10.429   6.756  0.1417  0.0781  1.1388
 1755SOL    HW215580   4.761  10.517   6.802  1.4443 -0.6740 -0.5613
 1756SOL     OW15581   1.248   7.891   6.936 -0.2960  0.2084  0.2563
 1756SOL    HW115582   1.172   7.874   6.992 -0.0189 -0.3646  0.4691
 1756SOL    HW215583   1.216   7.878   6.847 -1.1128  2.5032  0.1493
 1757SOL     OW15584   1.988   4.606   8.771 -0.2199 -0.0099 -0.1079
 1757SOL    HW115585   2.055   4.671   8.752 -0.3744 -0.0237 -0.7269
 1757SOL    HW215586   2.036   4.523   8.777 -0.0706  0.1073  0.3192
 1758SOL     OW15587   6.095   2.843   1.203  0.5104  0.0599  0.3020
 1758SOL    HW115588   6.038   2.797   1.141  1.0101  0.0933 -0.1877
 1758SOL    HW215589   6.084   2.935   1.182  0.2518  0.1123  0.6443
 1759SOL     OW15590   2.993  12.190   2.496  0.4921 -0.0272  0.4829
 1759SOL    HW115591   2.971  12.248   2.569  0.0134  0.7388 -0.2414
 1759SOL    HW215592   3.087  12.199   2.485  0.5086  0.1420  0.7755
 1760SOL     OW15593   6.572  12.283   9.254 -0.0453 -0.4848  0.0469
 1760SOL    HW115594   6.537  12.250   9.171 -0.1285  1.5580 -0.7797
 1760SOL    HW215595   6.495  12.310   9.304  0.1190  2.2593 -1.0104
 1761SOL     OW15596  11.341  10.830   3.711  0.0965 -0.4616  0.1553
 1761SOL    HW115597  11.424  10.782   3.707  1.1195  1.3284 -1.1260
 1761SOL    HW215598  11.362  10.910   3.759 -0.2465  1.1230 -2.1710
 1762SOL     OW15599   0.360   9.472   1.972 -0.2211 -0.4096  0.3683
 1762SOL    HW115600   0.315   9.537   1.918 -0.2341 -0.2710  0.5449
 1762SOL    HW215601   0.338   9.388   1.932  2.0417 -0.1824 -1.5499
 1763SOL     OW15602  11.749   3.720   3.951 -0.2777  0.7581 -0.5704
 1763SOL    HW115603  11.724   3.628   3.952  0.4597  0.5490  0.0140
 1763SOL    HW215604  11.795   3.733   4.034 -1.9418  2.1110  0.2008
 1764SOL     OW15605   9.200  11.935   0.297  0.7979 -0.0833  0.0807
 1764SOL    HW115606   9.205  12.030   0.297 -0.8063  0.0621 -1.4644
 1764SOL    HW215607   9.156  11.913   0.378  0.5658  0.5432  0.1298
 1765SOL     OW15608   0.723  12.145   2.542  0.2610 -0.3986 -0.4385
 1765SOL    HW115609   0.741  12.137   2.448  2.3486  1.6613 -0.3086
 1765SOL    HW215610   0.770  12.071   2.581 -1.1235 -1.6241 -1.0215
 1766SOL     OW15611   4.173   8.658   4.506  0.0471  0.2794 -0.5404
 1766SOL    HW115612   4.085   8.624   4.526  0.2865  0.5559  1.1770
 1766SOL    HW215613   4.159   8.718   4.433 -0.9991 -0.5623 -1.0686
 1767SOL     OW15614   1.854   5.558   0.159  0.2245  0.1111 -0.3664
 1767SOL    HW115615   1.804   5.495   0.108  0.1302  0.0019 -0.1410
 1767SOL    HW215616   1.812   5.642   0.142  1.3169  0.3712 -1.9174
 1768SOL     OW15617   1.874   1.469   3.144 -0.2976  0.5276  1.0986
 1768SOL    HW115618   1.901   1.417   3.219  1.2734 -0.8192 -0.3231
 1768SOL    HW215619   1.923   1.551   3.153 -1.2558  0.9940  2.2864
 1769SOL     OW15620   1.271   7.459   4.572  0.2653  0.0472 -0.1498
 1769SOL    HW115621   1.249   7.442   4.663  1.6385  0.1758  0.2295
 1769SOL    HW215622   1.285   7.373   4.533  1.4205  0.0440  0.2385
 1770SOL     OW15623   8.975   0.682   5.923 -0.0122  0.3464  0.2392
 1770SOL    HW115624   9.023   0.718   5.997  0.0584 -0.1809  0.4536
 1770SOL    HW215625   8.989   0.587   5.928  1.6849  0.4284 -1.5833
 1771SOL     OW15626   9.605   7.982   3.448 -0.1878 -0.4783  0.5637
 1771SOL    HW115627   9.575   7.892   3.460  1.5148 -1.2048 -0.2971
 1771SOL    HW215628   9.659   8.000   3.525 -1.6260  0.3393  1.4295
 1772SOL     OW15629  11.788   0.863   1.978  0.0818  0.3174  0.0741
 1772SOL    HW115630  11.759   0.839   2.066 -1.1208  2.3250  0.2861
 1772SOL    HW215631  11.717   0.835   1.921  1.0990 -1.4911 -0.4075
 1773SOL     OW15632   5.629   1.547  11.978 -0.5789  0.4890  0.3461
 1773SOL    HW115633   5.618   1.543  11.883  0.2831 -0.9365  0.2782
 1773SOL    HW215634   5.673   1.630  11.994 -1.3839  1.0909 -0.4071
 1774SOL     OW15635   2.839   9.300   0.219 -0.0259  0.3915  0.4752
 1774SOL    HW115636   2.897   9.324   0.291  1.5028  2.0491 -1.1844
 1774SOL    HW215637   2.787   9.227   0.253  3.1359 -1.3374  2.0420
 1775SOL     OW15638   4.027   2.295   1.524 -0.0375  0.6005 -0.0089
 1775SOL    HW115639   3.975   2.357   1.473 -0.4991 -0.8447 -1.3872
 1775SOL    HW215640   4.107   2.283   1.473  0.5552  0.9091  0.8266
 1776SOL     OW15641   7.589   5.961   4.365  0.1515 -0.1139  0.1593
 1776SOL    HW115642   7.670   5.943   4.412 -1.4579 -1.2079  2.7248
 1776SOL    HW215643   7.618   5.990   4.278  3.2458 -2.3120  0.2700
 1777SOL     OW15644   5.749   7.094   7.860  0.2627  0.4925  0.5114
 1777SOL    HW115645   5.771   7.092   7.953  1.2540 -1.9369  0.2899
 1777SOL    HW215646   5.779   7.180   7.831 -0.1169  1.3314  2.4067
 1778SOL     OW15647  10.035   0.630   1.253 -0.7947  0.2101 -0.1109
 1778SOL    HW115648  10.108   0.591   1.206  0.1599  0.1182  1.3671
 1778SOL    HW215649  10.074   0.702   1.303 -2.0964  1.5308 -0.9047
 1779SOL     OW15650   8.127   2.828   0.354 -0.0094  0.3166  0.5799
 1779SOL    HW115651   8.150   2.735   0.351 -2.3965 -0.3086  0.2295
 1779SOL    HW215652   8.093   2.847   0.267 -0.7792  1.1845  1.0535
 1780SOL     OW15653   8.459   1.683   7.230 -0.0211 -0.1359 -0.6128
 1780SOL    HW115654   8.419   1.747   7.171 -0.1839  0.3780  0.0411
 1780SOL    HW215655   8.550   1.712   7.238  0.2405 -0.7393 -1.3302
 1781SOL     OW15656   5.592   2.280  10.175  0.3559  0.0047  0.0244
 1781SOL    HW115657   5.501   2.282  10.145 -0.0364 -1.8103  0.9676
 1781SOL    HW215658   5.608   2.369  10.207 -1.3448  0.1800  0.5106
 1782SOL     OW15659   2.801   2.518   1.411  0.4825  0.4596  0.1134
 1782SOL    HW115660   2.761   2.498   1.495  0.3324 -1.6849 -0.4198
 1782SOL    HW215661   2.895   2.518   1.428  0.4356  0.5196  0.3725
 1783SOL     OW15662   4.646   5.761   0.101  0.3635  0.2322  0.4133
 1783SOL    HW115663   4.705   5.715   0.161 -0.8398 -2.3620 -0.2446
 1783SOL    HW215664   4.703   5.819   0.051  2.0723 -0.9096  0.9630
 1784SOL     OW15665   5.698   4.568   4.023  0.0537  0.5560  0.2270
 1784SOL    HW115666   5.751   4.618   3.960 -0.3955 -0.2373 -0.8253
 1784SOL    HW215667   5.745   4.485   4.033 -0.3218  0.3440  0.2667
 1785SOL     OW15668   1.226  11.002   9.011 -0.1766  0.2054 -0.1179
 1785SOL    HW115669   1.300  10.941   9.007 -0.5435 -0.2256 -0.5250
 1785SOL    HW215670   1.205  11.009   9.104 -0.8251 -1.1566 -0.1292
 1786SOL     OW15671   6.788   4.350   2.324 -0.0359  0.6976  0.1748
 1786SOL    HW115672   6.857   4.385   2.268 -1.0607  2.1123 -0.2553
 1786SOL    HW215673   6.833   4.289   2.382  1.2857  0.3222 -1.2007
 1787SOL     OW15674  10.977   7.206  12.235 -0.1970  0.3899  0.4946
 1787SOL    HW115675  10.945   7.257  12.161  0.6016 -0.6312 -0.5958
 1787SOL    HW215676  11.024   7.269  12.289 -1.7422  1.3745  0.7436
 1788SOL     OW15677   9.889   7.759   5.052  0.5349 -0.5040  0.0862
 1788SOL    HW115678   9.916   7.845   5.083 -2.9866  0.1526  1.7786
 1788SOL    HW215679   9.910   7.760   4.958 -2.3567  3.6913 -0.8275
 1789SOL     OW15680   6.255  10.962   1.631 -0.1737 -0.3238  0.2623
 1789SOL    HW115681   6.215  11.044   1.659 -0.2693 -0.1288 -0.4230
 1789SOL    HW215682   6.346  10.969   1.661 -0.3148 -0.2092  0.6783
 1790SOL     OW15683  10.972   9.373   6.476  0.5404 -0.5197  0.2499
 1790SOL    HW115684  11.066   9.353   6.478  0.3472 -1.4608  0.2431
 1790SOL    HW215685  10.941   9.355   6.564 -0.1670 -3.0426 -0.4205
 1791SOL     OW15686  10.540   0.327   1.771 -0.2337  0.2883 -0.6698
 1791SOL    HW115687  10.624   0.304   1.731 -0.4015 -0.3869 -0.6407
 1791SOL    HW215688  10.542   0.285   1.857  0.2493  1.9768  0.1943
 1792SOL     OW15689  10.591  10.039   5.579 -0.3630 -0.5183  0.5430
 1792SOL    HW115690  10.554  10.121   5.611  0.4206 -0.6331  1.7965
 1792SOL    HW215691  10.647  10.008   5.650  0.1603 -1.6222 -0.3129
 1793SOL     OW15692   4.840  11.338   1.443 -0.0560 -0.0242 -0.0861
 1793SOL    HW115693   4.895  11.328   1.520  1.4972 -1.1792 -1.2724
 1793SOL    HW215694   4.860  11.261   1.389 -2.6580 -0.3619 -0.7112
 1794SOL     OW15695  12.947  11.371  10.767  0.3203  0.3879 -0.0097
 1794SOL    HW115696  12.973  11.295  10.819 -1.9240 -0.7924 -0.4732
 1794SOL    HW215697  12.987  11.445  10.811 -0.4393 -0.6796  2.6906
 1795SOL     OW15698  10.549  10.837  12.298  0.0644  0.6408 -0.6994
 1795SOL    HW115699  10.456  10.852  12.285 -0.3022 -1.0755 -0.2806
 1795SOL    HW215700  10.563  10.746  12.271  1.0764 -0.0187  1.7489
 1796SOL     OW15701  10.201   5.219   4.808  0.1540 -0.6200  0.0003
 1796SOL    HW115702  10.296   5.210   4.816  0.6656  1.7341 -2.1482
 1796SOL    HW215703  10.181   5.179   4.723 -0.3616  0.8659 -0.6153
 1797SOL     OW15704   2.346   6.188   9.396 -0.2583 -0.0370  0.0391
 1797SOL    HW115705   2.430   6.143   9.389 -0.5988 -0.4908 -1.9635
 1797SOL    HW215706   2.368   6.281   9.404  0.5110  0.1191 -2.8515
 1798SOL     OW15707   2.220  12.488   8.560  0.3532  0.0693  0.0217
 1798SOL    HW115708   2.201  12.445   8.643  1.3170 -0.1026  0.1541
 1798SOL    HW215709   2.300  12.448   8.528  0.4966  0.7733 -0.5466
 1799SOL     OW15710   7.790   0.705   1.300  0.1139  0.2951 -0.1329
 1799SOL    HW115711   7.724   0.707   1.369  0.0305 -1.4736 -0.1116
 1799SOL    HW215712   7.846   0.631   1.323  0.8300  0.4581 -1.2840
 1800SOL     OW15713   5.806   1.317   3.691  0.1751 -0.1127 -0.4785
 1800SOL    HW115714   5.725   1.280   3.654 -0.2620 -0.5622  0.8742
 1800SOL    HW215715   5.777   1.367   3.767  1.1950 -0.6818  0.3126
 1801SOL     OW15716   5.690  11.616  10.623 -0.1051 -0.1937  0.3406
 1801SOL    HW115717   5.679  11.707  10.594 -1.9365 -0.5209 -0.1264
 1801SOL    HW215718   5.725  11.623  10.712  2.4717  0.8855 -0.6560
 1802SOL     OW15719   1.222  10.687   7.403  0.4318 -0.0598 -0.6649
 1802SOL    HW115720   1.304  10.638   7.389 -0.8751 -2.4669 -0.4467
 1802SOL    HW215721   1.225  10.758   7.338  1.5712 -1.6003 -2.4052
 1803SOL     OW15722   3.408  12.211   1.782 -0.1831 -0.5493  0.2629
 1803SOL    HW115723   3.454  12.179   1.705  0.0515 -0.9703  0.5725
 1803SOL    HW215724   3.359  12.135   1.815 -4.8833  0.7862 -2.6312
 1804SOL     OW15725   7.823  11.259   7.928 -0.2949 -0.0850  0.3067
 1804SOL    HW115726   7.915  11.279   7.947 -0.3557  0.2695  0.2414
 1804SOL    HW215727   7.809  11.293   7.839 -1.2165  2.4000  1.3070
 1805SOL     OW15728  10.643  10.512   7.630 -0.1575 -0.3308 -0.2767
 1805SOL    HW115729  10.678  10.427   7.604  1.3249  0.1362  0.0978
 1805SOL    HW215730  10.687  10.575   7.573  0.5963  0.3901  1.0522
 1806SOL     OW15731   5.981   0.081   0.539 -0.1856 -0.2174  0.1566
 1806SOL    HW115732   5.890   0.053   0.544  0.1628 -1.1587  1.6502
 1806SOL    HW215733   6.027   0.007   0.500 -0.3170  1.0346 -2.6525
 1807SOL     OW15734   4.357   2.938  10.694 -0.1004  0.0189 -0.2656
 1807SOL    HW115735   4.372   3.033  10.694 -1.0345  0.1807  0.5786
 1807SOL    HW215736   4.333   2.918  10.784 -0.6923 -0.8937 -0.6185
 1808SOL     OW15737   6.878  11.201   4.180 -0.5499 -0.1309  0.6836
 1808SOL    HW115738   6.919  11.281   4.216  0.6346 -1.3236  2.1352
 1808SOL    HW215739   6.843  11.228   4.096 -1.4061  2.2761  1.7084
 1809SOL     OW15740   6.679   8.107   5.244  0.6409  0.4533  0.8541
 1809SOL    HW115741   6.710   8.097   5.334  2.9399  2.5717  0.3937
 1809SOL    HW215742   6.755   8.090   5.189 -0.9189 -1.6881 -0.8461
 1810SOL     OW15743   9.076   7.258   8.849  0.5662 -0.3197 -0.0856
 1810SOL    HW115744   9.121   7.296   8.924  2.0894  0.5461 -1.3516
 1810SOL    HW215745   9.025   7.330   8.813  3.0146  0.5616 -2.1593
 1811SOL     OW15746   7.955   0.544   3.588 -0.3482  0.1810  0.4721
 1811SOL    HW115747   7.922   0.551   3.498 -1.7149  0.9472  0.9913
 1811SOL    HW215748   7.968   0.635   3.615  0.7292 -0.0709  0.8323
 1812SOL     OW15749   9.647   2.829  10.127 -0.4888 -0.8472 -0.1848
 1812SOL    HW115750   9.724   2.857  10.076  0.4522  1.5934  2.3025
 1812SOL    HW215751   9.670   2.742  10.158  0.9797 -0.4852 -0.1399
 1813SOL     OW15752   3.526  12.935   9.401 -0.5494  0.7929  0.1476
 1813SOL    HW115753   3.583  13.000   9.442  1.6423 -0.7593 -0.2271
 1813SOL    HW215754   3.467  12.907   9.471  2.2590 -0.8691  2.0753
 1814SOL     OW15755   3.395   5.131   3.998 -0.1172  0.8582 -0.7466
 1814SOL    HW115756   3.405   5.039   4.023 -0.7190  0.9776 -0.0581
 1814SOL    HW215757   3.416   5.132   3.904 -2.0836 -0.3483 -1.2538
 1815SOL     OW15758   0.979   8.211   3.407  0.2122 -0.3875  0.0752
 1815SOL    HW115759   1.027   8.280   3.362  0.0753 -0.3152  0.0381
 1815SOL    HW215760   0.986   8.135   3.349  1.2604 -0.7150  0.6166
 1816SOL     OW15761  10.638   6.614   7.377 -0.2979  0.6674 -0.1616
 1816SOL    HW115762  10.617   6.521   7.385 -0.4333  0.6227 -0.9677
 1816SOL    HW215763  10.629   6.648   7.466  2.2518 -0.5874  0.6748
 1817SOL     OW15764   6.574   9.003   1.177  0.0415 -0.1605 -0.2061
 1817SOL    HW115765   6.593   9.056   1.100  2.4214 -1.1724 -0.3844
 1817SOL    HW215766   6.503   8.945   1.149  1.4506 -1.1279 -1.9774
 1818SOL     OW15767  11.022  12.533   5.159 -0.1836 -0.6511 -0.1427
 1818SOL    HW115768  10.952  12.589   5.193 -0.9407 -2.5216  1.5794
 1818SOL    HW215769  11.099  12.558   5.209 -0.8413 -2.0229  1.6374
 1819SOL     OW15770   4.576   7.667   8.999  0.5400  0.4509 -0.3626
 1819SOL    HW115771   4.591   7.577   8.970 -0.0819  0.4834 -0.8121
 1819SOL    HW215772   4.492   7.664   9.045  0.5237  0.7989 -0.3662
 1820SOL     OW15773   8.155  10.511   9.923 -0.1162  0.2058  0.2333
 1820SOL    HW115774   8.215  10.583   9.905 -1.7270  1.3059 -1.1448
 1820SOL    HW215775   8.206  10.432   9.906  1.4332  1.0350  0.8642
 1821SOL     OW15776   0.960   1.022   2.753  0.3746 -0.2642  0.9026
 1821SOL    HW115777   1.018   1.089   2.790  3.0227 -1.0268 -1.5273
 1821SOL    HW215778   0.901   1.071   2.696  1.6159  0.1988 -0.0584
 1822SOL     OW15779   9.347   3.695   6.036  0.4480  0.7338 -0.5168
 1822SOL    HW115780   9.312   3.618   6.081 -0.7544  1.3852 -0.2931
 1822SOL    HW215781   9.270   3.740   6.001  0.8755  2.9809  1.1973
 1823SOL     OW15782   5.374   9.573  10.835 -0.7433  0.2983 -0.3410
 1823SOL    HW115783   5.298   9.600  10.783 -0.8805  2.2929  0.7898
 1823SOL    HW215784   5.359   9.612  10.921  1.7416  1.0945 -0.2032
 1824SOL     OW15785  10.104   7.170   5.865 -0.0071 -0.2602 -0.0973
 1824SOL    HW115786  10.198   7.159   5.847  0.3817 -0.1860  1.7148
 1824SOL    HW215787  10.061   7.146   5.783  1.5855 -0.5024 -0.8973
 1825SOL     OW15788   5.335   9.560   7.652  0.1661  0.0907  0.2952
 1825SOL    HW115789   5.282   9.605   7.718 -0.8674 -1.5382  0.6207
 1825SOL    HW215790   5.348   9.472   7.687 -0.1456 -0.7208 -1.5278
 1826SOL     OW15791   8.316  12.565   1.223 -0.1942  0.0354 -0.4222
 1826SOL    HW115792   8.311  12.546   1.129  0.0485  1.6659 -0.7878
 1826SOL    HW215793   8.225  12.574   1.250 -0.2522 -0.0711 -0.5758
 1827SOL     OW15794   0.051   6.141   6.752  0.4783  0.3821 -0.1543
 1827SOL    HW115795   0.052   6.176   6.663  0.8168 -0.0345 -0.3131
 1827SOL    HW215796   0.129   6.179   6.793  1.4875 -1.0623 -0.6707
 1828SOL     OW15797   5.078   2.385   3.090 -0.4199  0.7212  0.0222
 1828SOL    HW115798   5.095   2.291   3.085  0.4881  0.9267 -1.4612
 1828SOL    HW215799   4.992   2.395   3.049 -0.1028  0.6260 -0.6828
 1829SOL     OW15800   6.593  10.388  11.123  0.2232 -0.5377  0.2493
 1829SOL    HW115801   6.636  10.344  11.196  1.1656  1.3755  0.8946
 1829SOL    HW215802   6.637  10.352  11.045  0.8614 -0.8586  0.7480
 1830SOL     OW15803   5.093  11.031   8.300 -0.2099 -0.0416  0.1546
 1830SOL    HW115804   5.103  11.106   8.358 -4.4066 -0.4458  1.6896
 1830SOL    HW215805   5.063  11.069   8.217  0.7436  0.1467 -0.1183
 1831SOL     OW15806   1.619   4.121  12.148 -0.0513 -0.2555 -0.1921
 1831SOL    HW115807   1.583   4.210  12.147 -0.6768 -0.5044 -1.2042
 1831SOL    HW215808   1.568   4.076  12.215 -0.9310 -0.3153 -0.8840
 1832SOL     OW15809   4.020  12.306   5.002  0.2768  0.5969  0.6589
 1832SOL    HW115810   4.071  12.348   4.933  0.2536  0.4038  0.5251
 1832SOL    HW215811   4.086  12.280   5.067  0.4452 -0.3499  0.1300
 1833SOL     OW15812   2.832  10.268  12.592 -0.0803 -0.4967  0.1753
 1833SOL    HW115813   2.921  10.252  12.560 -0.0788 -1.9039  0.8055
 1833SOL    HW215814   2.842  10.276  12.687 -0.6108 -0.4709  0.2332
 1834SOL     OW15815   1.570  10.795   1.776 -0.1289 -0.1385  0.4454
 1834SOL    HW115816   1.483  10.756   1.768  0.2001 -0.7098 -0.4367
 1834SOL    HW215817   1.618  10.763   1.700  0.5699  0.9223  0.4227
 1835SOL     OW15818   2.106   7.349   4.428  0.8136  0.1324  0.2829
 1835SOL    HW115819   2.130   7.420   4.487 -0.6064 -0.5421  1.7517
 1835SOL    HW215820   2.085   7.393   4.345  0.3698  1.3961  1.0278
 1836SOL     OW15821   1.721  12.200   7.673 -0.4968  0.0019  0.4325
 1836SOL    HW115822   1.697  12.140   7.744  0.3058 -0.5350  0.2720
 1836SOL    HW215823   1.805  12.237   7.700  0.3322 -0.9787 -0.6584
 1837SOL     OW15824   1.382   6.822  12.349 -0.0371  0.0501  0.0850
 1837SOL    HW115825   1.477   6.806  12.347 -0.0098  0.2629 -1.0759
 1837SOL    HW215826   1.374   6.915  12.367  0.0321  0.3416 -1.2911
 1838SOL     OW15827   4.112   0.236   2.506 -0.5409  0.3575 -0.0153
 1838SOL    HW115828   4.188   0.179   2.510  0.3799  1.4930 -0.5454
 1838SOL    HW215829   4.149   0.324   2.498 -1.9128  0.9900  0.3238
 1839SOL     OW15830   0.730   9.472   9.437 -0.0938 -0.1109 -0.0893
 1839SOL    HW115831   0.729   9.410   9.510  1.4768 -0.6412 -0.4772
 1839SOL    HW215832   0.705   9.420   9.361 -4.9824  1.0582  0.3399
 1840SOL     OW15833   4.684   0.926   7.173  0.1697  0.2669  0.2510
 1840SOL    HW115834   4.707   0.909   7.082  1.6839  0.4942  0.5648
 1840SOL    HW215835   4.746   0.874   7.223 -1.0532 -0.3701  1.1782
 1841SOL     OW15836  12.551   5.443  12.697 -0.1984  0.1480 -0.3022
 1841SOL    HW115837  12.528   5.507  12.765 -1.1763  1.9257 -2.1791
 1841SOL    HW215838  12.632   5.477  12.659  0.1621 -0.6503 -0.2669
 1842SOL     OW15839   8.567   0.409   0.833 -0.0611  0.1134 -0.2736
 1842SOL    HW115840   8.492   0.362   0.867  2.5158 -1.9362  3.2659
 1842SOL    HW215841   8.609   0.347   0.773 -0.5973  0.9035 -1.5141
 1843SOL     OW15842  10.276   0.877   6.815 -0.1414  0.4295  0.1040
 1843SOL    HW115843  10.280   0.782   6.821 -0.6578  0.4483  0.9217
 1843SOL    HW215844  10.253   0.895   6.724  2.1827 -0.1395 -0.6616
 1844SOL     OW15845   9.143   0.467  11.892  0.2989 -0.2350  0.2005
 1844SOL    HW115846   9.116   0.458  11.983 -1.4022  0.9189 -0.1460
 1844SOL    HW215847   9.074   0.424  11.842 -2.4161  4.5831 -0.8329
 1845SOL     OW15848   8.288   4.225   2.868 -0.6668 -0.3421  0.4767
 1845SOL    HW115849   8.317   4.298   2.922 -0.8993  0.7684 -0.8645
 1845SOL    HW215850   8.324   4.243   2.781 -0.7735 -1.7983  0.1022
 1846SOL     OW15851   9.007   0.388  11.644 -0.3356  0.4986 -0.2454
 1846SOL    HW115852   9.065   0.348  11.579 -2.5528 -2.6260 -0.5521
 1846SOL    HW215853   8.942   0.436  11.593 -0.9478 -0.3245 -0.2598
 1847SOL     OW15854   5.284   0.908  11.201 -0.0399 -0.6887  0.3620
 1847SOL    HW115855   5.262   0.850  11.273 -1.8639 -1.0407 -0.4272
 1847SOL    HW215856   5.281   0.852  11.123 -0.7918  0.2344 -0.2897
 1848SOL     OW15857   9.814   3.186   9.613  0.7001  0.1149  0.4500
 1848SOL    HW115858   9.812   3.269   9.565  0.5368  0.8907  1.7360
 1848SOL    HW215859   9.797   3.211   9.704 -0.0165 -1.4142  0.7647
 1849SOL     OW15860   0.353   8.512   4.604  0.1451  0.1500 -0.1167
 1849SOL    HW115861   0.279   8.528   4.545  0.5992  1.4417 -0.3645
 1849SOL    HW215862   0.312   8.488   4.687 -0.5506  0.5067 -0.3423
 1850SOL     OW15863   4.224   0.584   4.830 -0.4884 -0.2518 -0.3610
 1850SOL    HW115864   4.310   0.621   4.849 -1.2540  1.5387 -0.1151
 1850SOL    HW215865   4.177   0.592   4.913 -1.4085  0.3896 -0.9214
 1851SOL     OW15866   2.040   8.327   9.260 -0.3520 -0.2439 -0.2076
 1851SOL    HW115867   1.951   8.292   9.253 -0.1420 -1.0634  1.0174
 1851SOL    HW215868   2.083   8.271   9.324  0.7486  0.7851 -0.0165
 1852SOL     OW15869   5.883  10.875   6.406 -0.0374 -0.4906 -0.3445
 1852SOL    HW115870   5.932  10.844   6.483  1.3916  1.6084 -0.3516
 1852SOL    HW215871   5.792  10.854   6.427  0.3713 -0.5126  1.6578
 1853SOL     OW15872   6.591   2.001  10.048  0.2088  0.1776 -0.2420
 1853SOL    HW115873   6.623   2.041  10.129  0.6025 -1.3228  0.3944
 1853SOL    HW215874   6.670   1.973  10.002 -0.0546 -0.4617 -0.3247
 1854SOL     OW15875   0.683   2.024   1.249  0.6391 -0.9730  0.1235
 1854SOL    HW115876   0.729   2.107   1.256  1.9598 -1.7890  1.9224
 1854SOL    HW215877   0.740   1.969   1.195  1.1670 -1.5623  1.2448
 1855SOL     OW15878  11.402   6.765   1.202 -0.2966 -0.0150 -0.8066
 1855SOL    HW115879  11.459   6.841   1.186  0.0015  0.2454  1.2013
 1855SOL    HW215880  11.327   6.780   1.146 -0.4654  2.0769 -0.1165
 1856SOL     OW15881  12.934   9.787   9.356 -0.0643  0.4679  0.2315
 1856SOL    HW115882  12.951   9.729   9.282 -0.2386  0.9856 -0.2219
 1856SOL    HW215883  12.933   9.729   9.433 -1.1966 -0.2698 -0.3109
 1857SOL     OW15884   7.606   7.713   1.907  0.0121  0.1819  0.2826
 1857SOL    HW115885   7.668   7.644   1.930 -2.2968 -2.2441 -0.2406
 1857SOL    HW215886   7.543   7.713   1.978 -1.0638  0.4118 -0.6461
 1858SOL     OW15887   3.649   4.113  11.876  0.1153 -0.0254 -0.0974
 1858SOL    HW115888   3.651   4.021  11.849 -3.1928 -0.3665  0.3544
 1858SOL    HW215889   3.605   4.112  11.961  0.6073  1.9635  0.2461
 1859SOL     OW15890   6.876   9.712   3.895 -0.8234 -0.0016  0.3776
 1859SOL    HW115891   6.860   9.756   3.812 -0.6149  1.3197  1.0033
 1859SOL    HW215892   6.966   9.736   3.918 -0.2368 -1.8308  0.1365
 1860SOL     OW15893   5.945   5.841  10.468 -0.0777  0.4795  0.2199
 1860SOL    HW115894   5.892   5.848  10.389 -1.8174 -1.6304  1.0876
 1860SOL    HW215895   5.881   5.824  10.538  1.5927 -0.0278  1.6867
 1861SOL     OW15896   0.142   5.218   1.598  0.3933  0.8261  0.1628
 1861SOL    HW115897   0.218   5.163   1.579  0.3024  1.4082 -2.1167
 1861SOL    HW215898   0.173   5.307   1.587 -0.4612  1.0889 -0.1694
 1862SOL     OW15899   8.615  10.976   7.703  0.0515  0.2112  0.2201
 1862SOL    HW115900   8.706  10.975   7.671 -0.5008  0.5906 -1.4195
 1862SOL    HW215901   8.563  11.002   7.627 -1.5041 -0.6003  0.9748
 1863SOL     OW15902  11.349   9.425  10.984 -0.2498  0.5925  0.0001
 1863SOL    HW115903  11.385   9.469  11.061 -0.3834 -0.3058  0.5913
 1863SOL    HW215904  11.325   9.338  11.015  0.8097 -0.2157 -1.3287
 1864SOL     OW15905  10.841   0.341   4.292 -0.4522  0.3673  0.3651
 1864SOL    HW115906  10.869   0.292   4.214 -1.4480 -0.2311  0.3557
 1864SOL    HW215907  10.918   0.390   4.319  0.5187 -1.0176  0.2157
 1865SOL     OW15908   4.726   2.545   7.287 -0.3965 -0.1823  0.3057
 1865SOL    HW115909   4.654   2.484   7.270 -0.1461 -0.7908  1.3492
 1865SOL    HW215910   4.804   2.490   7.293  0.3378  0.5547 -1.6742
 1866SOL     OW15911   3.459   8.290   5.188  0.0629  0.1695  0.0234
 1866SOL    HW115912   3.448   8.203   5.226  1.3225  0.9647  2.4579
 1866SOL    HW215913   3.372   8.313   5.156 -0.0014 -2.5129 -2.1195
 1867SOL     OW15914   0.004   5.533   8.929  0.1632  0.5785  0.4209
 1867SOL    HW115915  -0.008   5.582   8.848 -0.3241  0.1780  0.2462
 1867SOL    HW215916  -0.059   5.571   8.990  0.0456  0.4195  0.3988
 1868SOL     OW15917   7.858  12.371   2.540 -0.2526  0.1896  0.6502
 1868SOL    HW115918   7.840  12.374   2.446  1.0217 -1.8717  0.2928
 1868SOL    HW215919   7.951  12.392   2.548  0.4286 -2.5496  1.0735
 1869SOL     OW15920  10.776   1.466   2.152  0.0217 -0.3293  0.2153
 1869SOL    HW115921  10.712   1.507   2.094 -0.2653 -0.7497  0.2261
 1869SOL    HW215922  10.758   1.502   2.239  1.7647  1.8662 -0.2421
 1870SOL     OW15923   8.595   8.478   6.621 -0.1374  0.1705  0.2146
 1870SOL    HW115924   8.607   8.435   6.705 -0.7209 -1.4862 -0.5173
 1870SOL    HW215925   8.681   8.474   6.579 -0.3080 -0.7902 -0.0636
 1871SOL     OW15926   7.755   3.459   7.287  0.8237  0.0337 -0.1382
 1871SOL    HW115927   7.739   3.545   7.248 -0.2463 -0.5603 -1.0705
 1871SOL    HW215928   7.809   3.413   7.223 -0.8235 -0.8962 -0.9575
 1872SOL     OW15929   5.560   2.199   2.021 -0.6077  0.2082 -0.3737
 1872SOL    HW115930   5.471   2.233   2.034 -1.3987 -1.7425 -0.3737
 1872SOL    HW215931   5.550   2.104   2.025  1.1041 -0.1565 -2.7035
 1873SOL     OW15932   2.772   5.427  12.874 -0.0300  0.8995  0.0787
 1873SOL    HW115933   2.749   5.345  12.830 -0.6934  1.7022 -1.1293
 1873SOL    HW215934   2.729   5.421  12.960  0.9596 -0.5255  0.5021
 1874SOL     OW15935   0.646   5.020  12.964  0.3147  0.0681 -0.3106
 1874SOL    HW115936   0.690   5.059  12.888 -1.0105 -0.3116 -1.3003
 1874SOL    HW215937   0.667   4.927  12.959 -0.0160 -0.0032 -0.3848
 1875SOL     OW15938  11.296  12.477   6.204 -0.0494  0.2266 -0.4548
 1875SOL    HW115939  11.266  12.485   6.114  1.0537  0.3025 -0.8376
 1875SOL    HW215940  11.250  12.401   6.239 -1.3095  0.8390 -0.7235
 1876SOL     OW15941  12.089   6.677   9.599 -0.7684 -0.0375 -0.0381
 1876SOL    HW115942  12.096   6.719   9.685 -1.2309 -0.7760  0.3632
 1876SOL    HW215943  12.000   6.644   9.595 -0.4802 -0.7922 -0.4465
 1877SOL     OW15944   3.871   0.577   7.569 -0.8871  0.7266 -0.8062
 1877SOL    HW115945   3.818   0.511   7.525 -0.2970  0.1850 -0.7235
 1877SOL    HW215946   3.890   0.642   7.501  0.4600 -0.3674 -1.5154
 1878SOL     OW15947  12.054   5.297   4.671  0.1003  0.0279  0.1039
 1878SOL    HW115948  11.997   5.344   4.611 -0.5345  0.0051  0.6918
 1878SOL    HW215949  12.093   5.228   4.617 -0.9788 -0.4102 -0.1326
 1879SOL     OW15950  10.746   0.283   8.550 -0.6111 -0.2257 -0.3705
 1879SOL    HW115951  10.833   0.324   8.551 -0.4347 -0.5943 -0.0201
 1879SOL    HW215952  10.765   0.189   8.545 -1.0160 -0.2470 -1.7322
 1880SOL     OW15953   4.474  12.864   4.103 -0.5786 -0.0489 -0.2815
 1880SOL    HW115954   4.542  12.815   4.149 -0.5028  1.2753  1.1163
 1880SOL    HW215955   4.408  12.882   4.170 -1.0021  0.9882 -0.9478
 1881SOL     OW15956   0.730  10.855   2.711 -0.5471 -0.2788 -0.4062
 1881SOL    HW115957   0.686  10.782   2.754 -0.7667  0.4453  0.6462
 1881SOL    HW215958   0.746  10.918   2.782  1.0547  0.0204 -0.9792
 1882SOL     OW15959   1.144   8.913  10.237  0.1548 -0.3201 -0.1762
 1882SOL    HW115960   1.105   8.965  10.308  2.3430 -0.5980  1.3205
 1882SOL    HW215961   1.101   8.828  10.245  1.0014 -0.6479  1.4965
 1883SOL     OW15962   5.384   0.864   7.042 -0.2192 -0.1639  0.2827
 1883SOL    HW115963   5.475   0.838   7.054 -0.9043 -1.9264  2.3227
 1883SOL    HW215964   5.345   0.856   7.129 -2.2233  1.0186 -0.4321
 1884SOL     OW15965   0.338   2.784   8.241  0.0867 -0.4125 -0.1862
 1884SOL    HW115966   0.396   2.859   8.225  2.3085 -2.0862 -0.5363
 1884SOL    HW215967   0.263   2.799   8.185  0.9003  1.1154 -0.9266
 1885SOL     OW15968   4.381  12.468   2.974 -0.0344 -0.6089  0.0561
 1885SOL    HW115969   4.408  12.456   3.065  0.7281  1.7369  0.2214
 1885SOL    HW215970   4.315  12.537   2.977  0.9252  0.4183 -1.2457
 1886SOL     OW15971   6.785   3.934   7.411 -0.0519  0.4413  0.9046
 1886SOL    HW115972   6.773   4.029   7.399  1.3718  0.4634 -0.7700
 1886SOL    HW215973   6.867   3.926   7.459  1.1946  0.0893 -1.1322
 1887SOL     OW15974   0.865   2.914  12.622  0.6118 -0.2032 -0.8629
 1887SOL    HW115975   0.795   2.961  12.667  3.1219  1.6906  1.4014
 1887SOL    HW215976   0.850   2.932  12.529 -1.2930  0.9785 -0.3953
 1888SOL     OW15977   5.176   8.312   0.925 -0.5232  0.6089 -0.6530
 1888SOL    HW115978   5.155   8.391   0.875  0.2521  0.7822 -0.7111
 1888SOL    HW215979   5.232   8.261   0.867  0.4183  0.8307  0.0432
 1889SOL     OW15980   1.067  12.169   1.734 -0.6948 -0.3166 -0.1157
 1889SOL    HW115981   1.062  12.196   1.826 -0.2998 -1.2300  0.1874
 1889SOL    HW215982   0.977  12.175   1.703 -0.4450  3.0247 -0.6029
 1890SOL     OW15983   8.996   0.065  10.933 -0.3282 -0.0454 -0.3528
 1890SOL    HW115984   8.901   0.050  10.923 -0.1494 -1.1964 -0.5070
 1890SOL    HW215985   9.007   0.159  10.922 -1.3255 -0.0309 -1.4812
 1891SOL     OW15986  11.518   3.370   6.363 -0.3346 -0.0896  0.7094
 1891SOL    HW115987  11.488   3.339   6.277 -0.1553  0.3994  0.4687
 1891SOL    HW215988  11.599   3.321   6.379  1.6931  2.3610 -1.0758
 1892SOL     OW15989   4.036   5.580   9.082 -0.3843 -0.4158 -0.2483
 1892SOL    HW115990   3.956   5.597   9.130 -0.6123  1.2322 -1.1629
 1892SOL    HW215991   4.101   5.560   9.150 -1.1319  0.0160  0.6083
 1893SOL     OW15992   2.296   6.996   6.491 -0.0378 -0.9134  0.2591
 1893SOL    HW115993   2.336   6.910   6.504  3.5508  0.6162  0.6131
 1893SOL    HW215994   2.258   6.991   6.404  3.7889 -1.7600 -1.6085
 1894SOL     OW15995   0.143   4.604   9.439  0.3753  0.0479 -0.6319
 1894SOL    HW115996   0.199   4.667   9.486 -0.6014  0.5449 -0.1162
 1894SOL    HW215997   0.135   4.641   9.351  1.6300 -0.5216 -1.0099
 1895SOL     OW15998   9.580   4.792   9.683  0.1141 -0.1341 -0.0630
 1895SOL    HW115999   9.675   4.787   9.669  0.3361 -0.5275  1.4840
 1895SOL    HW216000   9.561   4.885   9.688  0.4088 -0.0532 -0.3893
 1896SOL     OW16001   1.141  12.665   7.970 -0.1398  0.7410 -0.5016
 1896SOL    HW116002   1.209  12.704   8.026  0.1232  0.1195 -0.3805
 1896SOL    HW216003   1.109  12.738   7.917  1.4296  0.8178 -1.3891
 1897SOL     OW16004  10.096   6.183   2.962 -0.2256 -0.1583 -0.7672
 1897SOL    HW116005  10.126   6.273   2.978 -0.8283 -0.4590  2.9906
 1897SOL    HW216006  10.162   6.145   2.904  1.0196  2.1637 -0.9729
 1898SOL     OW16007   6.789   4.064   6.243  0.0685  0.5175 -0.4010
 1898SOL    HW116008   6.768   4.156   6.259 -2.0876 -0.0415  0.2617
 1898SOL    HW216009   6.715   4.031   6.192 -0.7966 -1.5906  2.0243
 1899SOL     OW16010   5.345   2.161   8.081  0.8410 -0.1051  0.1266
 1899SOL    HW116011   5.402   2.107   8.136  0.8438 -0.7971 -0.5340
 1899SOL    HW216012   5.398   2.237   8.059  1.2686 -0.4054  0.0971
 1900SOL     OW16013  12.389   4.410   4.862  0.2844  0.7506 -0.1306
 1900SOL    HW116014  12.389   4.456   4.778 -3.3557  0.5975 -0.3896
 1900SOL    HW216015  12.379   4.318   4.839 -0.7241  0.7067  0.4012
 1901SOL     OW16016   5.736   6.151   5.063  0.2269  0.5255 -0.3351
 1901SOL    HW116017   5.672   6.207   5.020 -1.5621 -0.8792  0.3498
 1901SOL    HW216018   5.766   6.201   5.138 -0.9928  0.7823  0.0026
 1902SOL     OW16019   8.638  11.051   3.018  0.1971  0.0753 -0.1086
 1902SOL    HW116020   8.563  10.997   3.045  1.6249 -0.8328  2.4109
 1902SOL    HW216021   8.626  11.133   3.065 -0.1348  0.6416 -1.1595
 1903SOL     OW16022   4.634   9.245   4.146  0.0268 -0.4706 -0.1886
 1903SOL    HW116023   4.570   9.297   4.195 -0.3625  0.8735 -2.0176
 1903SOL    HW216024   4.580   9.184   4.095  0.1205  0.7642 -1.8464
 1904SOL     OW16025   7.075   4.353   5.870 -0.2913  0.0747  0.4268
 1904SOL    HW116026   7.145   4.317   5.924 -1.3458 -0.4478  1.4842
 1904SOL    HW216027   7.037   4.422   5.924 -0.1670  0.8473 -0.4280
 1905SOL     OW16028   1.659   3.104   1.998 -0.3223  0.0763 -0.1743
 1905SOL    HW116029   1.585   3.044   1.991  0.0419 -0.3005 -0.9834
 1905SOL    HW216030   1.709   3.090   1.917 -0.1349  1.3481 -0.2966
 1906SOL     OW16031  10.702   0.203  12.070  0.7733  0.1927  0.2062
 1906SOL    HW116032  10.649   0.136  12.112  0.0363 -0.1136 -1.1664
 1906SOL    HW216033  10.770   0.155  12.024  0.3428  0.3841 -0.6428
 1907SOL     OW16034   2.991   8.373   8.584  0.1815  0.1003 -0.0652
 1907SOL    HW116035   2.956   8.284   8.580 -1.4199  0.5853  1.7780
 1907SOL    HW216036   2.964   8.413   8.502  0.8424 -1.0611 -0.8789
 1908SOL     OW16037   7.332   8.326   7.024  0.7847  0.2221  0.6036
 1908SOL    HW116038   7.283   8.352   7.102  1.4312 -0.2041  1.1622
 1908SOL    HW216039   7.390   8.256   7.054 -0.0328 -1.0231 -0.5953
 1909SOL     OW16040  11.293   7.761   8.366  0.5035 -0.0450  0.5724
 1909SOL    HW116041  11.329   7.684   8.323  1.3049  0.5527  0.1654
 1909SOL    HW216042  11.356   7.781   8.436 -0.6467 -0.8546  1.9081
 1910SOL     OW16043   5.979   4.512   4.538 -0.3716 -0.0503  0.2896
 1910SOL    HW116044   6.048   4.520   4.471 -1.1069 -1.4155 -0.6791
 1910SOL    HW216045   5.901   4.547   4.495 -1.0948 -1.9328  0.0004
 1911SOL     OW16046  11.954   0.493   1.318  0.5362 -0.3152 -0.0851
 1911SOL    HW116047  11.913   0.534   1.243 -1.0753  0.9112  1.3869
 1911SOL    HW216048  12.004   0.420   1.282 -1.0256 -0.4066 -2.2088
 1912SOL     OW16049   4.064   6.834   6.185  0.8735  0.0001  0.5218
 1912SOL    HW116050   4.069   6.923   6.221  2.2694 -0.4565  1.5203
 1912SOL    HW216051   4.083   6.777   6.259 -1.7255 -1.2602  0.3128
 1913SOL     OW16052   5.540  10.542  10.424 -0.4003 -0.4689 -0.0923
 1913SOL    HW116053   5.611  10.587  10.379  0.6077 -0.1770  1.6951
 1913SOL    HW216054   5.468  10.605  10.422  0.0245  0.0217 -0.2415
 1914SOL     OW16055   7.277   1.279   7.495 -0.1838 -0.2803  0.6721
 1914SOL    HW116056   7.250   1.331   7.571 -0.7794 -2.9724  2.4400
 1914SOL    HW216057   7.371   1.295   7.487 -0.3889  1.1982  1.0229
 1915SOL     OW16058   9.471   9.262   9.381  0.1014 -0.3003  0.2596
 1915SOL    HW116059   9.437   9.281   9.293  0.6490  0.4796  0.2033
 1915SOL    HW216060   9.500   9.347   9.414  0.6248 -0.7180  0.8898
 1916SOL     OW16061   1.216   4.496  11.079  0.2659 -0.0508 -0.0123
 1916SOL    HW116062   1.239   4.546  11.157 -0.4338  0.2294  0.0196
 1916SOL    HW216063   1.235   4.554  11.006 -1.7191  0.7870  0.0656
 1917SOL     OW16064   3.997   9.490   3.167 -0.3493 -0.4640 -0.5197
 1917SOL    HW116065   4.008   9.448   3.253 -1.8781 -0.0364 -0.0822
 1917SOL    HW216066   4.038   9.576   3.177 -2.0359  0.2953  0.4050
 1918SOL     OW16067   3.893   9.626   4.562  0.0303  0.5771  0.1111
 1918SOL    HW116068   3.844   9.707   4.581 -1.0752 -0.5959  2.9613
 1918SOL    HW216069   3.958   9.620   4.632 -0.4308 -1.3353  0.4498
 1919SOL     OW16070  12.000   3.133  10.310 -0.0487 -0.1480  0.4065
 1919SOL    HW116071  12.001   3.222  10.345 -1.1668 -0.3556  1.0161
 1919SOL    HW216072  11.922   3.129  10.255  0.4860 -0.4912 -0.3535
 1920SOL     OW16073   0.376   4.197   0.211 -0.0448 -0.3156  0.3546
 1920SOL    HW116074   0.353   4.271   0.266 -0.4444  0.9345 -1.3982
 1920SOL    HW216075   0.460   4.221   0.171 -1.3407  0.4042 -2.1352
 1921SOL     OW16076   1.782  11.820  12.280 -0.0274  0.8465  0.5471
 1921SOL    HW116077   1.785  11.800  12.186  0.0761 -0.1190  0.7453
 1921SOL    HW216078   1.873  11.816  12.308 -0.0489  1.2284  0.6792
 1922SOL     OW16079   8.016   2.041  12.121  0.1112  0.1631  0.0183
 1922SOL    HW116080   8.008   2.007  12.031 -4.6607  0.3051  0.1202
 1922SOL    HW216081   8.025   1.963  12.175 -3.0709 -0.5745 -0.3118
 1923SOL     OW16082  12.591  12.763   2.455  1.0388 -0.2432 -0.3470
 1923SOL    HW116083  12.584  12.744   2.549  1.5210  0.3702 -0.1835
 1923SOL    HW216084  12.661  12.705   2.425  0.0386 -1.3606 -0.5948
 1924SOL     OW16085   7.656   1.872  11.861  0.2266  0.3152 -0.0884
 1924SOL    HW116086   7.619   1.956  11.833 -0.0061  0.0377 -0.6336
 1924SOL    HW216087   7.586   1.832  11.913  0.4708  0.6089  0.4788
 1925SOL     OW16088   1.359  10.550  11.582 -0.4693 -0.1261 -0.5429
 1925SOL    HW116089   1.274  10.556  11.626  0.1767  2.8021  0.5599
 1925SOL    HW216090   1.416  10.508  11.647  0.0984  2.7717  1.0240
 1926SOL     OW16091   0.025   3.579   8.093 -0.2461 -0.2114 -0.0527
 1926SOL    HW116092   0.070   3.501   8.061 -1.2380 -0.1853 -1.6467
 1926SOL    HW216093   0.076   3.607   8.169  0.3923 -2.1266  0.2777
 1927SOL     OW16094  11.455   0.449   4.462 -0.5661 -0.5747 -0.5598
 1927SOL    HW116095  11.424   0.447   4.371  1.4930 -0.4717 -1.3120
 1927SOL    HW216096  11.465   0.357   4.486  2.3756 -0.6669 -1.7733
 1928SOL     OW16097   9.157   3.344   1.365  0.0123 -0.2564  0.3472
 1928SOL    HW116098   9.169   3.347   1.460  1.5236  1.9922  0.1559
 1928SOL    HW216099   9.089   3.409   1.347  0.5890  0.2157 -0.1885
 1929SOL     OW16100  10.664   1.067   1.367 -0.4738 -0.0201 -0.2610
 1929SOL    HW116101  10.632   0.977   1.358  1.2684 -0.6670 -0.3528
 1929SOL    HW216102  10.746   1.068   1.318 -0.1942  1.4797  0.1974
 1930SOL     OW16103   5.162   0.238   6.514 -0.0557  0.1179  0.3333
 1930SOL    HW116104   5.112   0.312   6.548  0.6596 -0.1215  2.0055
 1930SOL    HW216105   5.195   0.193   6.592  0.1061 -1.5720 -0.6547
 1931SOL     OW16106   0.128   7.672  11.115  0.0838  0.7706  0.0356
 1931SOL    HW116107   0.218   7.642  11.125  0.5928  1.8654 -0.9653
 1931SOL    HW216108   0.136   7.757  11.070 -1.2330  2.5528  2.8727
 1932SOL     OW16109   9.734   3.008   6.557  0.6312 -0.0007  0.0846
 1932SOL    HW116110   9.700   3.096   6.542  0.0173  0.1819  2.3272
 1932SOL    HW216111   9.760   2.978   6.469 -0.2559  1.9246 -0.9027
 1933SOL     OW16112   3.680   8.708   6.081 -0.3543 -0.7073 -0.3334
 1933SOL    HW116113   3.752   8.754   6.039 -0.2087 -0.1581  0.4901
 1933SOL    HW216114   3.714   8.619   6.095 -0.5710 -1.0265 -1.7579
 1934SOL     OW16115   9.862  11.499   3.186  0.6310 -0.8694 -0.1009
 1934SOL    HW116116   9.918  11.421   3.185  2.0228  0.0360  1.2475
 1934SOL    HW216117   9.819  11.496   3.272 -1.3500 -1.4801 -1.0665
 1935SOL     OW16118   5.045   1.729   8.740  0.0617 -0.1985  0.2885
 1935SOL    HW116119   4.989   1.651   8.739  0.3042 -0.3729  0.3025
 1935SOL    HW216120   5.124   1.701   8.786  1.0240 -0.5520 -1.4951
 1936SOL     OW16121  10.593   2.577  12.792  0.1697 -0.3755 -0.0407
 1936SOL    HW116122  10.573   2.661  12.750  0.2105  0.3066  1.2601
 1936SOL    HW216123  10.522   2.519  12.764  0.4525 -0.0976 -1.4242
 1937SOL     OW16124   2.676   8.450   4.369 -0.3921 -0.0421  1.3465
 1937SOL    HW116125   2.611   8.417   4.306 -1.2648  0.7520  1.8000
 1937SOL    HW216126   2.671   8.546   4.359  0.5296  0.0326  1.5818
 1938SOL     OW16127  12.024   2.740   8.931  0.0642  0.2063 -0.1615
 1938SOL    HW116128  12.108   2.771   8.898  0.0955  0.3381  0.0430
 1938SOL    HW216129  12.037   2.730   9.025  0.5730 -2.0278 -0.4109
 1939SOL     OW16130  10.151  12.267   3.006 -0.3627 -0.0291  0.5597
 1939SOL    HW116131  10.132  12.179   3.040 -0.2961 -0.6796 -0.9885
 1939SOL    HW216132  10.131  12.261   2.913  1.6227  0.9962  0.0125
 1940SOL     OW16133   5.430  12.360   0.697 -0.5334  0.2302  0.2297
 1940SOL    HW116134   5.469  12.407   0.771 -0.9724  1.2135 -0.1544
 1940SOL    HW216135   5.352  12.318   0.733 -0.0675 -0.3423  0.6038
 1941SOL     OW16136   8.489   6.338   5.355  0.7677 -0.0601 -0.1855
 1941SOL    HW116137   8.533   6.347   5.441 -0.3891 -1.8178  0.6359
 1941SOL    HW216138   8.409   6.390   5.364  0.5117 -0.4698 -0.1046
 1942SOL     OW16139   4.546   3.908   8.274  0.1560 -0.7044 -0.1687
 1942SOL    HW116140   4.472   3.949   8.320  0.1289  0.8629 -1.5370
 1942SOL    HW216141   4.557   3.960   8.195  0.8657 -2.7014 -1.4526
 1943SOL     OW16142   3.822   3.643   4.492 -0.4062  0.3965 -0.2864
 1943SOL    HW116143   3.728   3.659   4.491 -0.2188  1.7781 -2.6111
 1943SOL    HW216144   3.833   3.559   4.447 -0.5124  0.1148  0.2000
 1944SOL     OW16145   5.886   5.191   6.113 -0.2722  0.0079  0.4764
 1944SOL    HW116146   5.888   5.278   6.072 -1.8481 -0.0979  0.0779
 1944SOL    HW216147   5.972   5.181   6.153  1.5143  0.0333 -2.9609
 1945SOL     OW16148   6.861   8.904   6.999  0.3427  0.4252 -0.7229
 1945SOL    HW116149   6.823   8.940   6.919 -1.3079  0.8963  0.2268
 1945SOL    HW216150   6.951   8.938   7.000  0.5990 -0.0858 -2.6527
 1946SOL     OW16151   4.358  10.051   0.961  0.0225 -0.2789  0.4627
 1946SOL    HW116152   4.363  10.083   1.051 -0.3219 -1.4617  0.9267
 1946SOL    HW216153   4.265  10.052   0.939  0.0236 -0.7871  0.4240
 1947SOL     OW16154   4.652   2.216   8.602 -0.1321 -0.2313  0.2309
 1947SOL    HW116155   4.696   2.245   8.682  0.2540  1.3147 -0.4966
 1947SOL    HW216156   4.657   2.292   8.544 -0.0223 -1.4625 -1.4185
 1948SOL     OW16157   2.648   5.771   0.160  0.4397 -0.0255 -0.0423
 1948SOL    HW116158   2.580   5.740   0.100  0.7049 -1.1862  0.2220
 1948SOL    HW216159   2.672   5.693   0.211  0.2161  0.9199  1.5787
 1949SOL     OW16160  11.585   7.584   3.653 -0.3693  0.1718 -0.0704
 1949SOL    HW116161  11.536   7.590   3.735 -1.3770  0.6666 -0.6949
 1949SOL    HW216162  11.582   7.673   3.617  0.2628  0.0128 -0.5402
 1950SOL     OW16163  10.073   8.485  11.999 -0.2058  0.5216  0.6543
 1950SOL    HW116164  10.156   8.441  12.017 -0.0274  1.0856  1.2195
 1950SOL    HW216165  10.095   8.552  11.934 -0.5822 -0.5609 -0.6548
 1951SOL     OW16166   1.050   5.131   5.014  0.2648 -0.3706 -0.3601
 1951SOL    HW116167   1.064   5.092   4.927  0.1931 -2.3707  0.4751
 1951SOL    HW216168   0.976   5.191   5.001  0.2949 -0.5858 -1.6983
 1952SOL     OW16169   0.363   9.079   2.475 -0.3014 -0.2287  0.3658
 1952SOL    HW116170   0.327   9.013   2.416 -1.3745 -0.7031  1.5094
 1952SOL    HW216171   0.443   9.039   2.509  0.4386  0.1356 -0.9006
 1953SOL     OW16172   5.051  12.629   7.948  0.0796 -0.2647 -0.1499
 1953SOL    HW116173   5.076  12.709   7.995 -0.6461  0.4324 -0.9207
 1953SOL    HW216174   5.000  12.579   8.012 -1.7376  1.1154 -0.4378
 1954SOL     OW16175   2.953   5.346   1.524  0.1885  0.2204 -0.0209
 1954SOL    HW116176   2.997   5.420   1.482 -1.9330  0.7874 -1.3610
 1954SOL    HW216177   2.887   5.387   1.581 -0.3013 -0.6378  0.0356
 1955SOL     OW16178   4.128   8.807   4.280 -0.3321 -0.7564  0.2512
 1955SOL    HW116179   4.149   8.897   4.304  0.8744 -0.9541  0.0091
 1955SOL    HW216180   4.032   8.805   4.272 -0.3564  0.5386  0.0881
 1956SOL     OW16181   1.837  11.814   6.886 -0.1341 -0.1390 -0.3480
 1956SOL    HW116182   1.770  11.759   6.927  2.0151 -1.4396  1.6535
 1956SOL    HW216183   1.883  11.855   6.959  1.0956  0.9347 -1.6700
 1957SOL     OW16184   6.432   3.510   2.073 -0.9076 -0.6578 -0.5470
 1957SOL    HW116185   6.415   3.594   2.031  0.3177  0.3847  0.9166
 1957SOL    HW216186   6.347   3.484   2.110 -1.0466  0.5942  0.0639
 1958SOL     OW16187   4.341  12.039   1.123 -0.1190  0.3824 -0.0504
 1958SOL    HW116188   4.356  12.069   1.213  1.7239 -3.1579  1.0353
 1958SOL    HW216189   4.429  12.018   1.090 -0.9920 -1.2703 -1.5007
 1959SOL     OW16190   1.695   5.534  12.735  0.0703 -0.3390  0.4278
 1959SOL    HW116191   1.666   5.625  12.744 -0.7128 -0.4841 -0.5337
 1959SOL    HW216192   1.782   5.540  12.696 -1.0487 -0.0335 -2.2180
 1960SOL     OW16193  10.062  11.000  12.227 -0.3879  0.1972  0.2768
 1960SOL    HW116194  10.096  11.051  12.153 -0.6921 -2.1738 -1.6289
 1960SOL    HW216195   9.966  11.005  12.217 -0.4900  1.1943  1.5316
 1961SOL     OW16196   2.134   9.304  10.549 -0.0445 -0.6055  0.3040
 1961SOL    HW116197   2.194   9.247  10.501 -2.1551 -2.1925 -0.6142
 1961SOL    HW216198   2.081   9.244  10.601 -0.9609  0.7307  0.9650
 1962SOL     OW16199   4.125   4.655   8.402  0.0195 -0.1887 -0.2780
 1962SOL    HW116200   4.031   4.673   8.401 -0.3006 -1.4684 -2.5738
 1962SOL    HW216201   4.131   4.562   8.423  0.9478  0.3142  1.8484
 1963SOL     OW16202   6.489   3.073   0.545 -0.1493 -0.1022 -0.0499
 1963SOL    HW116203   6.437   3.106   0.472 -2.4151  0.7133  1.7907
 1963SOL    HW216204   6.577   3.062   0.509 -0.8261  1.5990 -2.5124
 1964SOL     OW16205   4.571  10.606  12.579 -0.4691 -0.3613  0.1412
 1964SOL    HW116206   4.603  10.610  12.489  1.8449  0.2865  0.9361
 1964SOL    HW216207   4.599  10.520  12.611  1.1506  0.4704  1.0535
 1965SOL     OW16208   6.967   1.505   4.936  0.1338 -0.5257 -0.1545
 1965SOL    HW116209   6.979   1.484   4.843 -0.8864 -1.8507 -0.0202
 1965SOL    HW216210   7.054   1.495   4.974  0.7711  1.0200 -1.1295
 1966SOL     OW16211   4.472   6.103   8.758  0.5174  0.0571  0.3315
 1966SOL    HW116212   4.501   6.179   8.708  0.9568  0.2860  0.9254
 1966SOL    HW216213   4.395   6.071   8.710  1.0242  0.1661 -0.5854
 1967SOL     OW16214   0.708   7.965  10.693  0.1121  0.4286  0.1540
 1967SOL    HW116215   0.726   7.874  10.718  1.3126  1.2194  2.4647
 1967SOL    HW216216   0.627   7.986  10.739  0.4105  0.8417  0.4910
 1968SOL     OW16217   9.000   2.577   5.093  0.0906 -0.3477  0.1440
 1968SOL    HW116218   9.069   2.636   5.125 -0.5374  0.8752 -0.6772
 1968SOL    HW216219   8.960   2.541   5.172 -0.8533  1.9185  0.7612
 1969SOL     OW16220   7.165   0.228   8.277  0.0504 -0.5364  0.2615
 1969SOL    HW116221   7.193   0.162   8.341 -0.3284 -0.4636  0.5043
 1969SOL    HW216222   7.246   0.273   8.252  0.3048 -1.0655  0.1272
 1970SOL     OW16223   4.096   2.563  10.221  0.3624 -0.4984  0.5832
 1970SOL    HW116224   4.095   2.488  10.280  0.4275  0.0970  1.3678
 1970SOL    HW216225   4.112   2.526  10.134 -0.2121 -1.4420  0.8667
 1971SOL     OW16226   9.603   1.245   0.579  0.0587  0.1436 -0.0701
 1971SOL    HW116227   9.595   1.182   0.507 -1.5165 -0.6565  0.7528
 1971SOL    HW216228   9.619   1.191   0.656 -0.9315  0.7480  0.5803
 1972SOL     OW16229   2.138   7.355   8.876 -0.3607 -0.5548  0.1445
 1972SOL    HW116230   2.201   7.392   8.814  1.2778 -0.5962  1.6939
 1972SOL    HW216231   2.139   7.415   8.950 -2.2903 -0.4961  0.1762
 1973SOL     OW16232   3.548   7.872   1.209  0.0750  0.1241 -0.0690
 1973SOL    HW116233   3.510   7.784   1.204 -1.3950  0.7630 -0.7090
 1973SOL    HW216234   3.475   7.928   1.235  1.0905  1.1042  0.7376
 1974SOL     OW16235   4.709   6.418  12.878  0.0510 -0.0536  0.6465
 1974SOL    HW116236   4.681   6.505  12.848 -0.5199  0.0237  1.3626
 1974SOL    HW216237   4.689   6.418  12.972 -0.0759 -1.0115  0.6257
 1975SOL     OW16238   7.299   8.987   6.412 -0.0826  0.0593 -0.0635
 1975SOL    HW116239   7.374   8.934   6.438 -0.0864 -0.1721 -0.5084
 1975SOL    HW216240   7.268   9.027   6.493  0.5633  0.2094  0.1138
 1976SOL     OW16241   0.166   5.872   6.093 -0.0994  0.0063  0.2569
 1976SOL    HW116242   0.123   5.946   6.050 -0.0406 -0.6490 -0.9775
 1976SOL    HW216243   0.146   5.884   6.186 -0.0302  1.5962  0.0968
 1977SOL     OW16244  12.922  12.106   6.009  0.3627  0.1723 -0.1919
 1977SOL    HW116245  12.980  12.142   6.076  0.9014 -0.0230 -0.5437
 1977SOL    HW216246  12.854  12.173   5.997  0.8243  0.6517 -0.1702
 1978SOL     OW16247   4.370   2.186   4.497  0.1228  0.4666 -0.1590
 1978SOL    HW116248   4.325   2.225   4.572  1.4159  0.3763  0.6743
 1978SOL    HW216249   4.303   2.130   4.457 -1.1015  1.8007 -0.0948
 1979SOL     OW16250   5.673  11.821   2.455  0.0455 -0.2026 -0.1538
 1979SOL    HW116251   5.751  11.859   2.416  1.0461 -1.7990  0.1991
 1979SOL    HW216252   5.627  11.895   2.495  1.6027  0.7056  0.0186
 1980SOL     OW16253   2.070   1.266  11.902 -0.3603  0.2123 -0.4446
 1980SOL    HW116254   2.006   1.196  11.916 -0.8882  0.4812 -1.4319
 1980SOL    HW216255   2.017   1.346  11.897  0.0892  0.4886 -0.8869
 1981SOL     OW16256   7.131   7.399   4.626 -0.1818  0.7525  0.2687
 1981SOL    HW116257   7.068   7.336   4.590  0.6555  0.2138 -0.2907
 1981SOL    HW216258   7.096   7.484   4.600 -0.3711  0.4309 -0.5645
 1982SOL     OW16259   2.024   1.098   4.189  0.3300  0.0663  0.0241
 1982SOL    HW116260   2.029   1.142   4.104  1.9932  0.6239  0.3749
 1982SOL    HW216261   1.963   1.153   4.240  1.2149  1.1387 -0.0347
 1983SOL     OW16262   5.544   0.621   2.633  0.8396  0.4461 -0.8887
 1983SOL    HW116263   5.596   0.541   2.639  0.9072  0.3598 -2.2653
 1983SOL    HW216264   5.473   0.599   2.573  0.3659  1.1618 -0.6040
 1984SOL     OW16265   1.375  11.173   0.024 -0.1918  0.5135 -0.1303
 1984SOL    HW116266   1.296  11.124   0.001 -0.2132  0.4767  0.0229
 1984SOL    HW216267   1.355  11.213   0.108  0.5674 -0.8897  0.7528
 1985SOL     OW16268   7.474   1.991   8.063  0.0131 -0.4532 -0.0691
 1985SOL    HW116269   7.451   1.994   8.156  0.5566 -1.7454  0.1263
 1985SOL    HW216270   7.494   2.082   8.041  0.8593 -0.2594  1.3428
 1986SOL     OW16271  12.335   6.397   0.107  0.1069 -0.0762 -0.5730
 1986SOL    HW116272  12.295   6.320   0.068  1.5100 -0.7262 -0.8023
 1986SOL    HW216273  12.355   6.372   0.197 -0.5847  0.4689 -0.2551
 1987SOL     OW16274  12.122  10.068   4.508 -0.0044 -0.3689 -0.3263
 1987SOL    HW116275  12.106   9.983   4.467  1.6041 -0.1766 -1.4891
 1987SOL    HW216276  12.097  10.057   4.599  0.1005 -2.0776 -0.4783
 1988SOL     OW16277   6.218  11.250   3.936  0.4814  0.1763  0.0759
 1988SOL    HW116278   6.198  11.339   3.965 -0.7208 -0.5691  1.6804
 1988SOL    HW216279   6.283  11.218   3.999  0.0489 -0.4780  0.1940
 1989SOL     OW16280   4.232   2.736   3.451  0.1283 -0.8205 -0.1889
 1989SOL    HW116281   4.312   2.720   3.501  1.2573 -1.0405 -1.9721
 1989SOL    HW216282   4.257   2.799   3.384 -0.7831 -2.0060 -1.7129
 1990SOL     OW16283   7.658   4.969   5.960 -0.4731 -0.7319  0.5353
 1990SOL    HW116284   7.735   4.949   5.908 -1.6674 -1.2459 -1.1092
 1990SOL    HW216285   7.688   5.032   6.025  1.1762 -0.4453 -0.4685
 1991SOL     OW16286   9.877   3.383   3.677 -0.3513  0.3005 -0.7774
 1991SOL    HW116287   9.912   3.372   3.765 -1.1512  1.8095 -0.2125
 1991SOL    HW216288   9.941   3.342   3.619  0.6558  0.0973  0.4404
 1992SOL     OW16289   5.928   3.568   2.155  0.0942 -0.2898 -0.8395
 1992SOL    HW116290   5.986   3.492   2.147 -1.2246 -1.2812 -1.3253
 1992SOL    HW216291   5.841   3.531   2.165 -0.2235  1.1076  2.9201
 1993SOL     OW16292  11.109   9.420   7.482  0.1812 -0.1952 -0.1457
 1993SOL    HW116293  11.142   9.387   7.399 -0.7156  0.1896 -0.6788
 1993SOL    HW216294  11.042   9.484   7.457  0.5513  0.6271  0.8647
 1994SOL     OW16295  10.230   5.242   3.959 -0.7912  0.2738 -0.1080
 1994SOL    HW116296  10.257   5.334   3.966 -0.6294  0.1417  1.2887
 1994SOL    HW216297  10.311   5.192   3.968 -0.9838 -0.0255 -0.0124
 1995SOL     OW16298  12.390   4.566  10.476  0.5579 -0.4913  0.0406
 1995SOL    HW116299  12.415   4.491  10.423 -1.5021 -0.5646 -0.9332
 1995SOL    HW216300  12.390   4.532  10.566 -1.3111 -2.0224 -0.4663
 1996SOL     OW16301   5.839   0.409   0.701  0.0451 -0.2278  0.4409
 1996SOL    HW116302   5.825   0.385   0.609 -1.5146  0.2334  0.5271
 1996SOL    HW216303   5.920   0.364   0.725  0.1632 -0.8493 -0.9845
 1997SOL     OW16304   3.718   9.016   1.735  0.5129  0.3795 -0.4561
 1997SOL    HW116305   3.768   9.097   1.747 -1.1780  1.2753  1.1589
 1997SOL    HW216306   3.627   9.044   1.733 -0.0998 -1.4376 -0.3812
 1998SOL     OW16307   0.204   5.132   6.399  0.2972 -0.0804  0.1887
 1998SOL    HW116308   0.130   5.072   6.411  2.1900 -2.7494 -0.4611
 1998SOL    HW216309   0.226   5.123   6.306  1.7718  0.1922  0.4896
 1999SOL     OW16310   9.569   7.190   0.378  0.4291  0.4227  0.0873
 1999SOL    HW116311   9.628   7.264   0.395  0.0574  1.3142 -2.1334
 1999SOL    HW216312   9.509   7.223   0.311 -2.6517 -0.4296  2.1858
 2000SOL     OW16313  10.425   0.648   4.270  0.3102 -0.1689 -0.8002
 2000SOL    HW116314  10.440   0.617   4.359  1.2897 -0.2938 -0.9968
 2000SOL    HW216315  10.357   0.591   4.236 -1.0901  0.7660  0.3184
 2001SOL     OW16316   7.551  11.082   0.092 -0.7443  0.1476  1.0221
 2001SOL    HW116317   7.585  10.996   0.115 -1.9570 -0.7037 -0.2263
 2001SOL    HW216318   7.606  11.112   0.020 -0.9279 -0.0280  0.8062
 2002SOL     OW16319   5.718   1.191   0.592 -0.1801  0.2388  0.1476
 2002SOL    HW116320   5.682   1.280   0.585  1.0006  0.7553  0.3283
 2002SOL    HW216321   5.675   1.142   0.523 -1.7993  0.6125  0.8386
 2003SOL     OW16322   5.134   3.613   5.129 -0.5778 -0.5053 -0.4630
 2003SOL    HW116323   5.123   3.529   5.085  1.5269 -0.8867 -0.3454
 2003SOL    HW216324   5.138   3.591   5.222 -2.2736  0.0137 -0.2223
 2004SOL     OW16325   3.998  10.407  11.751  0.1881  0.7167 -0.1926
 2004SOL    HW116326   3.928  10.447  11.701  0.1339 -0.1939 -0.8754
 2004SOL    HW216327   3.953  10.347  11.811  0.1717  2.5470  1.7285
 2005SOL     OW16328   2.945   7.987   1.106  0.2905  0.3085 -0.8354
 2005SOL    HW116329   2.924   7.929   1.032 -0.1413  0.5784 -0.9269
 2005SOL    HW216330   2.911   7.941   1.182  0.1395  0.3396 -0.8833
 2006SOL     OW16331   2.084   0.820   9.730  0.1508  0.3723  0.1350
 2006SOL    HW116332   2.134   0.768   9.668  0.1652  1.2070 -0.5657
 2006SOL    HW216333   2.060   0.899   9.682 -0.1837  0.8522  1.0595
 2007SOL     OW16334   5.489   3.808   6.880  0.8789  0.4357 -0.2085
 2007SOL    HW116335   5.509   3.824   6.788  0.2587 -0.7674 -0.5835
 2007SOL    HW216336   5.552   3.861   6.929  1.2304  1.0677 -1.3213
 2008SOL     OW16337   7.764   4.640   3.699  0.3050  0.6228 -0.1771
 2008SOL    HW116338   7.790   4.729   3.724 -2.1183  1.3597  0.0404
 2008SOL    HW216339   7.708   4.611   3.771 -1.4019  0.1568 -1.6157
 2009SOL     OW16340   7.400   9.232  10.207 -0.2699  0.0531  0.2567
 2009SOL    HW116341   7.310   9.238  10.174 -0.7266  0.2673  1.4775
 2009SOL    HW216342   7.391   9.245  10.302  1.0341 -0.0913  0.4114
 2010SOL     OW16343  10.949   8.158   5.478 -0.6032 -0.3298 -0.4923
 2010SOL    HW116344  11.041   8.178   5.492 -1.3070  1.3057  2.6102
 2010SOL    HW216345  10.936   8.073   5.521 -0.4565 -0.9079 -1.5464
 2011SOL     OW16346   5.553   4.326  10.001 -0.1835  0.3491 -0.3129
 2011SOL    HW116347   5.537   4.315   9.908 -0.6413  0.7203 -0.2854
 2011SOL    HW216348   5.477   4.284  10.043 -0.7108  1.4104 -0.1555
 2012SOL     OW16349   6.516   3.615   8.204  0.4754 -0.1621 -0.2633
 2012SOL    HW116350   6.593   3.559   8.193  0.5126 -1.0551  3.4380
 2012SOL    HW216351   6.441   3.555   8.191  0.2487  0.5819 -3.2567
 2013SOL     OW16352  11.991  12.018   6.259 -0.0085 -0.1202 -0.1306
 2013SOL    HW116353  12.084  11.996   6.254  0.1912  0.6023  0.2914
 2013SOL    HW216354  11.975  12.068   6.179  0.1066  0.2583  0.0813
 2014SOL     OW16355   7.277   6.271   9.755 -0.7219  0.5452 -0.0901
 2014SOL    HW116356   7.294   6.222   9.836 -0.7526  0.1958 -0.2955
 2014SOL    HW216357   7.364   6.292   9.721 -0.6562 -1.2748 -1.1577
 2015SOL     OW16358   2.658   2.420   1.628 -0.1342 -0.2926 -0.2116
 2015SOL    HW116359   2.688   2.381   1.710 -0.5999 -1.5988 -0.6371
 2015SOL    HW216360   2.562   2.417   1.634 -0.2013  1.4491  0.0332
 2016SOL     OW16361   6.215  10.058   8.313  0.6822  0.2620  0.2777
 2016SOL    HW116362   6.269  10.069   8.235  0.1957 -0.1754 -0.1352
 2016SOL    HW216363   6.202  10.146   8.347  0.8505  0.4634 -0.1738
 2017SOL     OW16364   8.964   0.027   6.803 -0.4765 -0.5278 -0.2357
 2017SOL    HW116365   8.950  -0.066   6.786 -0.3951 -0.6474  0.3272
 2017SOL    HW216366   8.894   0.071   6.756 -1.7896 -1.0057  1.2117
 2018SOL     OW16367   1.842   1.727   5.568  0.2242  0.4762  0.0663
 2018SOL    HW116368   1.885   1.661   5.622 -0.5637  0.8988  1.2302
 2018SOL    HW216369   1.869   1.811   5.606  0.7081  0.8243 -1.0089
 2019SOL     OW16370   2.694   8.598   9.193  0.3013  0.6503  0.0453
 2019SOL    HW116371   2.604   8.567   9.203 -0.6132  3.2321  0.7345
 2019SOL    HW216372   2.743   8.522   9.162 -2.1056 -0.8424 -0.3294
 2020SOL     OW16373   4.518   5.923   4.634 -0.2431  0.1356  0.5322
 2020SOL    HW116374   4.590   5.942   4.694 -1.4491  0.2446  1.9776
 2020SOL    HW216375   4.537   5.977   4.557  1.9652 -0.9087  0.2542
 2021SOL     OW16376   2.216   2.789   1.752 -0.7914  0.3703 -0.8580
 2021SOL    HW116377   2.253   2.718   1.804 -1.3243 -0.3645 -1.4454
 2021SOL    HW216378   2.192   2.856   1.815  0.6260  0.4509 -0.3872
 2022SOL     OW16379   6.571  10.778   6.556  0.2595 -0.6723  0.5566
 2022SOL    HW116380   6.481  10.781   6.523  0.1196 -1.1182  0.8857
 2022SOL    HW216381   6.616  10.850   6.512 -0.3334 -0.2737  0.5972
 2023SOL     OW16382   4.013   4.640   6.102 -0.0529 -0.0518  0.0054
 2023SOL    HW116383   3.939   4.653   6.161  1.0792  2.3272  1.0524
 2023SOL    HW216384   4.023   4.724   6.057  2.0952 -0.2193  0.0494
 2024SOL     OW16385   2.247   8.061   5.483  0.1467  0.7067 -0.0885
 2024SOL    HW116386   2.337   8.040   5.510 -0.1221 -1.2281 -0.5866
 2024SOL    HW216387   2.239   8.155   5.502  1.4132  0.4285  2.3556
 2025SOL     OW16388   4.564   9.054   9.232  0.8419 -0.5716 -0.2357
 2025SOL    HW116389   4.519   8.976   9.264  0.3994  0.2655  1.3073
 2025SOL    HW216390   4.493   9.112   9.204  1.0831 -0.2068 -0.0974
 2026SOL     OW16391   1.543   2.925   0.002 -0.3960 -0.1497  0.6497
 2026SOL    HW116392   1.485   2.887   0.068  0.1383 -0.9463  0.6847
 2026SOL    HW216393   1.490   2.990  -0.043 -1.6519 -1.5730 -0.0061
 2027SOL     OW16394   9.675  12.374   0.515  0.2683  0.1228 -0.0870
 2027SOL    HW116395   9.619  12.417   0.580 -0.0708  0.5166 -0.6332
 2027SOL    HW216396   9.649  12.413   0.432  1.5284  0.4741 -0.3295
 2028SOL     OW16397   4.138  10.754   3.773 -0.1457  0.6919  0.0152
 2028SOL    HW116398   4.066  10.815   3.788 -0.5118  0.0856  0.8226
 2028SOL    HW216399   4.128  10.688   3.842  0.3403 -0.1759 -0.7203
 2029SOL     OW16400   5.403   7.304   5.373  0.7108  0.0283 -0.5664
 2029SOL    HW116401   5.363   7.365   5.436 -1.5806  0.1874 -2.0865
 2029SOL    HW216402   5.425   7.227   5.426  2.0690  1.4259  1.0590
 2030SOL     OW16403   2.821  10.369   4.066  0.1407  0.0957 -0.3976
 2030SOL    HW116404   2.789  10.453   4.099  0.0402 -0.3429  0.6679
 2030SOL    HW216405   2.748  10.309   4.078  0.3549 -0.2406 -0.7510
 2031SOL     OW16406   4.135   8.838  12.025  0.0066  0.1836 -0.5604
 2031SOL    HW116407   4.181   8.764  12.064  1.8936  1.5903  0.0557
 2031SOL    HW216408   4.111   8.808  11.937  0.5975 -1.1944 -0.2795
 2032SOL     OW16409   4.563  10.690   0.377  0.1746 -0.5791 -0.6123
 2032SOL    HW116410   4.537  10.641   0.299  0.1900  0.4599 -1.3080
 2032SOL    HW216411   4.524  10.777   0.364  3.3000  0.8808 -1.4133
 2033SOL     OW16412   7.527   7.708  10.046  0.8925  0.0102  0.1227
 2033SOL    HW116413   7.502   7.650   9.974 -0.0940  1.3691 -0.6804
 2033SOL    HW216414   7.622   7.702  10.050  0.9564 -0.2204 -1.2053
 2034SOL     OW16415   1.016   9.738  12.339  0.0013  0.4396 -0.0002
 2034SOL    HW116416   1.051   9.801  12.402 -0.9086  1.0579 -0.0916
 2034SOL    HW216417   1.087   9.676  12.325  0.1689  0.1604  1.7915
 2035SOL     OW16418   2.432   3.033  12.222  0.2483  0.5019  0.2532
 2035SOL    HW116419   2.466   3.123  12.214  2.4807 -0.3235 -0.3345
 2035SOL    HW216420   2.445   3.012  12.315  1.6086  0.1225 -0.0086
 2036SOL     OW16421   0.304   4.390   9.548  0.3495 -0.0419 -0.0176
 2036SOL    HW116422   0.237   4.414   9.611 -0.1030 -1.9338  0.3018
 2036SOL    HW216423   0.310   4.464   9.489 -0.8969  0.8048  0.8712
 2037SOL     OW16424   9.826  12.043  10.138  0.0679  0.3833  0.5234
 2037SOL    HW116425   9.865  12.130  10.148 -1.4620  1.3019 -1.0359
 2037SOL    HW216426   9.873  12.005  10.063  0.2050  0.1735  0.7157
 2038SOL     OW16427   0.398   6.259   1.856  0.0329 -0.0168  0.1525
 2038SOL    HW116428   0.489   6.286   1.860  0.0268  0.6070 -2.2889
 2038SOL    HW216429   0.375   6.265   1.764 -2.1406 -1.3638  0.5236
 2039SOL     OW16430   8.228   1.611   5.501 -0.0729  0.1624  0.4624
 2039SOL    HW116431   8.217   1.529   5.549 -0.9716  0.5556  0.9546
 2039SOL    HW216432   8.323   1.620   5.490  0.0388 -0.8898  0.4750
 2040SOL     OW16433   3.272   6.568   2.994  0.2602 -0.0981  0.0907
 2040SOL    HW116434   3.198   6.625   2.972  0.1936 -0.1546  0.1704
 2040SOL    HW216435   3.340   6.628   3.024 -0.0166 -0.1084  0.7537
 2041SOL     OW16436   9.536   0.242   8.185 -0.4129 -0.0890  0.2461
 2041SOL    HW116437   9.490   0.244   8.269  0.0785 -0.7861  0.5448
 2041SOL    HW216438   9.468   0.261   8.120 -0.7847  0.5509  0.7975
 2042SOL     OW16439   7.212   7.922   7.627  0.2585  0.3449 -0.1976
 2042SOL    HW116440   7.258   7.966   7.556  0.7459  0.9150  0.4644
 2042SOL    HW216441   7.228   7.828   7.612 -1.2563  0.3044 -1.9416
 2043SOL     OW16442   6.724   9.043   6.766  0.2884  0.2161  0.2864
 2043SOL    HW116443   6.742   9.125   6.812 -0.1229  0.8458 -0.6449
 2043SOL    HW216444   6.693   9.070   6.680  0.5022 -0.9336 -0.1696
 2044SOL     OW16445   0.572   8.157   0.004 -0.4601 -0.3144  0.2386
 2044SOL    HW116446   0.667   8.158  -0.009 -0.2067  1.5369  1.8190
 2044SOL    HW216447   0.535   8.159  -0.084  0.9876  0.8578 -0.3765
 2045SOL     OW16448   7.781   9.422   7.797  0.0203 -0.2749 -0.3731
 2045SOL    HW116449   7.698   9.383   7.824  0.9981 -1.4148  1.1904
 2045SOL    HW216450   7.841   9.402   7.869  1.7780  0.1083 -1.6639
 2046SOL     OW16451   7.135   8.448   2.093 -0.3799  0.5676 -0.2501
 2046SOL    HW116452   7.081   8.424   2.018 -0.9426  0.7403  0.0867
 2046SOL    HW216453   7.095   8.402   2.167 -0.3268  1.0371  0.0773
 2047SOL     OW16454   0.029   5.616   7.465  0.0934  0.2444  0.3177
 2047SOL    HW116455   0.009   5.605   7.372 -0.4026  2.1113  0.1568
 2047SOL    HW216456   0.058   5.707   7.473  0.5840 -0.0175  1.9209
 2048SOL     OW16457  11.720   6.220   9.165  0.0834 -0.1574  0.4050
 2048SOL    HW116458  11.743   6.197   9.075 -3.0979  1.5537 -0.9909
 2048SOL    HW216459  11.666   6.148   9.196 -0.2636  0.0603  0.3061
 2049SOL     OW16460   3.457   4.864   8.476 -0.1958 -0.1786  0.5837
 2049SOL    HW116461   3.463   4.958   8.493 -1.0948  0.2163 -1.0686
 2049SOL    HW216462   3.548   4.834   8.471  0.1834  1.1056 -1.2386
 2050SOL     OW16463  10.483   8.978   5.038 -0.7264 -0.4698 -0.0274
 2050SOL    HW116464  10.537   9.051   5.069 -1.1465 -0.6532  1.1895
 2050SOL    HW216465  10.455   9.005   4.950 -0.1414  0.4263  0.0450
 2051SOL     OW16466   5.372   7.322   5.091  0.1721  0.0565 -0.2678
 2051SOL    HW116467   5.384   7.257   5.022  0.0384  1.3889 -1.6182
 2051SOL    HW216468   5.373   7.272   5.172 -0.7820 -1.7347 -1.2828
 2052SOL     OW16469  12.167   7.369  11.516 -0.3863 -0.2358  0.3564
 2052SOL    HW116470  12.260   7.364  11.495 -0.8068 -1.0666 -1.4706
 2052SOL    HW216471  12.164   7.417  11.599  1.6480 -0.1075  0.4045
 2053SOL     OW16472   8.040   9.850  10.595  0.3913  0.7079 -0.6324
 2053SOL    HW116473   8.050   9.761  10.559 -0.7005  0.1974  0.2644
 2053SOL    HW216474   8.084   9.846  10.680 -1.5654  0.3378  0.4173
 2054SOL     OW16475   9.664   9.482   6.231 -0.0409  0.6356 -0.1030
 2054SOL    HW116476   9.719   9.560   6.227  0.9448  0.0379  1.2210
 2054SOL    HW216477   9.694   9.427   6.158 -1.7275  2.0442 -1.9849
 2055SOL     OW16478  11.820   3.660   7.343  0.5666 -0.6703  0.0391
 2055SOL    HW116479  11.791   3.569   7.334 -0.5476 -0.3736  0.4702
 2055SOL    HW216480  11.916   3.655   7.344  0.6112 -2.2424  3.7330
 2056SOL     OW16481   0.805   8.353  11.172 -0.1728  0.3886 -0.1254
 2056SOL    HW116482   0.839   8.313  11.092  0.4322  1.1058 -0.2449
 2056SOL    HW216483   0.771   8.438  11.144 -2.9038 -0.6048 -0.1675
 2057SOL     OW16484  12.308   2.448   9.795  0.6021  0.2707  0.0651
 2057SOL    HW116485  12.271   2.473   9.711  0.4243  0.3160  0.1565
 2057SOL    HW216486  12.284   2.519   9.854  2.4425  1.2719 -0.2907
 2058SOL     OW16487   0.588   0.080  10.692  0.9419  0.9163  0.8114
 2058SOL    HW116488   0.562   0.165  10.655  0.9636  0.2848 -0.7173
 2058SOL    HW216489   0.682   0.074  10.675  0.6662 -0.0685 -0.5324
 2059SOL     OW16490   8.262  11.942   5.244 -0.5363 -0.2829  0.0063
 2059SOL    HW116491   8.317  11.914   5.317 -0.8582  0.8566  0.6980
 2059SOL    HW216492   8.237  12.032   5.265 -2.3054 -0.6150 -0.5003
 2060SOL     OW16493   1.462   0.478  10.466 -0.1527 -0.5705  0.4387
 2060SOL    HW116494   1.546   0.495  10.424  0.7633 -2.6253  1.3132
 2060SOL    HW216495   1.437   0.562  10.505  1.8912 -0.0860  0.8278
 2061SOL     OW16496   7.513   7.777   9.427  0.0092  0.4134 -0.0229
 2061SOL    HW116497   7.460   7.697   9.424 -1.3730  1.2994 -2.1446
 2061SOL    HW216498   7.525   7.794   9.520 -1.9145 -0.8404  0.5246
 2062SOL     OW16499  12.098  12.812   6.541  0.3728 -0.1674  0.2012
 2062SOL    HW116500  12.075  12.899   6.508  1.9294  0.6687  1.2048
 2062SOL    HW216501  12.023  12.785   6.594  0.4999  1.2453  1.1293
 2063SOL     OW16502  12.012   2.374   3.108  0.0623  0.7872  0.4632
 2063SOL    HW116503  11.955   2.361   3.033  1.4279  0.8352 -0.6239
 2063SOL    HW216504  11.972   2.445   3.157  0.0386  1.9355 -1.1555
 2064SOL     OW16505  12.305   3.173   6.560 -0.0247  0.1951 -0.6210
 2064SOL    HW116506  12.230   3.199   6.507 -1.3785  1.8587  1.8801
 2064SOL    HW216507  12.331   3.253   6.605  3.0983 -0.4231 -1.1462
 2065SOL     OW16508   0.637   0.937   0.810  0.6569  0.4573 -0.5658
 2065SOL    HW116509   0.724   0.962   0.778  1.1546  0.6844  0.8710
 2065SOL    HW216510   0.601   1.019   0.845  0.4271  0.0957  0.0601
 2066SOL     OW16511   8.276   9.927  12.946  0.5592 -0.3283 -0.3026
 2066SOL    HW116512   8.312  10.009  12.913 -0.8887  2.0335  3.3333
 2066SOL    HW216513   8.195   9.914  12.896  0.0538  1.3130  0.0415
 2067SOL     OW16514  10.418  12.364   5.409  0.5743 -0.4398  0.1338
 2067SOL    HW116515  10.436  12.428   5.340  1.0609 -0.0807  0.5873
 2067SOL    HW216516  10.504  12.329   5.432  0.3952 -0.6702  0.4577
 2068SOL     OW16517   7.423  11.582  11.310  0.4336 -0.2332 -0.0137
 2068SOL    HW116518   7.363  11.598  11.238  0.0380 -0.6307  0.2216
 2068SOL    HW216519   7.390  11.637  11.381 -0.5525 -1.5538  0.5931
 2069SOL     OW16520   2.303   6.682   5.165 -0.2846  0.5338  0.3944
 2069SOL    HW116521   2.303   6.662   5.072 -1.4213  0.3592  0.4205
 2069SOL    HW216522   2.323   6.599   5.207 -0.8099  0.3723  0.3364
 2070SOL     OW16523   1.417  11.914  10.456 -0.4230  0.2209 -0.0012
 2070SOL    HW116524   1.459  11.986  10.410  1.5745 -1.7152 -1.4073
 2070SOL    HW216525   1.323  11.928  10.442 -0.1073  2.4345 -0.2866
 2071SOL     OW16526  12.758   1.635   0.824  0.4564  0.4528 -0.1209
 2071SOL    HW116527  12.696   1.634   0.751 -0.1174  0.6609  0.3578
 2071SOL    HW216528  12.707   1.666   0.899  0.7990 -0.6091  0.5830
 2072SOL     OW16529   9.545   0.894   4.061 -0.0214  0.3804 -0.3444
 2072SOL    HW116530   9.550   0.820   4.122 -0.2453 -1.1734 -2.1167
 2072SOL    HW216531   9.505   0.965   4.112  1.0225 -0.4054  1.6804
 2073SOL     OW16532   1.116   4.920   2.775 -0.3628 -0.1761  0.2927
 2073SOL    HW116533   1.143   4.833   2.805 -2.4031 -0.6944  0.8510
 2073SOL    HW216534   1.192   4.976   2.790  0.9958 -1.8443 -0.0620
 2074SOL     OW16535   2.566  11.064  12.276 -0.3083  0.2805  0.3964
 2074SOL    HW116536   2.629  11.124  12.236 -1.3872 -0.5075 -2.8055
 2074SOL    HW216537   2.485  11.114  12.283 -0.2314  0.2899  1.2919
 2075SOL     OW16538   3.738   5.789   8.955 -0.5950 -0.4020  0.2408
 2075SOL    HW116539   3.817   5.738   8.935  0.3732  0.4489  1.6990
 2075SOL    HW216540   3.681   5.775   8.879  0.7595 -1.4152 -0.6482
 2076SOL     OW16541   2.270   9.968   0.749  0.4656 -0.1752 -0.2164
 2076SOL    HW116542   2.269  10.064   0.751  0.8964 -0.1256 -1.5553
 2076SOL    HW216543   2.195   9.945   0.695 -1.7112 -0.7618  2.7590
 2077SOL     OW16544  12.096   4.015   1.517  0.0908 -0.1578  0.4201
 2077SOL    HW116545  12.014   3.995   1.563  0.6624 -0.4629  1.3368
 2077SOL    HW216546  12.154   4.049   1.585  0.4104  1.0225 -0.4023
 2078SOL     OW16547   1.099   9.632   6.765  0.0763  0.0244 -0.1783
 2078SOL    HW116548   1.037   9.653   6.835  0.6877 -1.5396  0.8818
 2078SOL    HW216549   1.176   9.685   6.784  0.1052 -0.1242  0.1125
 2079SOL     OW16550   1.531  10.598   2.276  0.5541 -0.8102  0.6866
 2079SOL    HW116551   1.499  10.559   2.195  1.3334  0.8466 -0.4799
 2079SOL    HW216552   1.473  10.673   2.291  0.3312 -1.1707  1.7708
 2080SOL     OW16553  12.551   7.829   1.522  0.3465  0.3046 -0.3177
 2080SOL    HW116554  12.462   7.825   1.557 -0.1493 -0.9042 -1.6392
 2080SOL    HW216555  12.548   7.897   1.455  0.5305  0.5149 -0.1178
 2081SOL     OW16556   7.863  12.028  10.220 -0.1739  0.3698  0.4320
 2081SOL    HW116557   7.903  12.104  10.178  0.2644  0.1556  0.4516
 2081SOL    HW216558   7.773  12.055  10.239  0.0763  1.0018  0.7506
 2082SOL     OW16559  10.574  12.641  11.365  0.0137  0.1348  0.1081
 2082SOL    HW116560  10.486  12.607  11.349 -0.5858  0.5393  2.2367
 2082SOL    HW216561  10.612  12.582  11.429  1.4511 -0.1968 -0.9935
 2083SOL     OW16562   1.480   1.666   0.894  0.6484  0.2112 -0.0451
 2083SOL    HW116563   1.523   1.606   0.955  3.2135  0.9029 -1.0552
 2083SOL    HW216564   1.522   1.650   0.810  0.0560  2.0995 -0.7690
 2084SOL     OW16565   0.400   2.987   0.820  0.1521  0.0605  0.1495
 2084SOL    HW116566   0.389   2.892   0.827  0.7275 -0.0411 -0.2412
 2084SOL    HW216567   0.475   3.006   0.877 -0.4784  0.4005  0.8819
 2085SOL     OW16568  10.155   4.960   2.087  0.0985  0.9577  0.3776
 2085SOL    HW116569  10.075   4.907   2.089  1.3047 -0.9625  0.1085
 2085SOL    HW216570  10.130   5.040   2.042 -1.7634  0.5634  0.6364
 2086SOL     OW16571   4.966   6.663   4.727  0.8579  0.6868 -0.4114
 2086SOL    HW116572   5.011   6.583   4.754  0.9056  0.5188 -0.9921
 2086SOL    HW216573   4.953   6.711   4.809  0.8964  0.1225 -0.0710
 2087SOL     OW16574  10.195  11.925   7.118  0.0819  0.0174  0.8733
 2087SOL    HW116575  10.227  11.965   7.200  1.3047  0.9221 -0.0032
 2087SOL    HW216576  10.263  11.863   7.094 -0.7433 -0.9745  1.0256
 2088SOL     OW16577   0.746   3.529   1.476  0.1844  0.0659 -0.1209
 2088SOL    HW116578   0.815   3.493   1.419  1.9451 -0.1873  2.0247
 2088SOL    HW216579   0.743   3.469   1.550 -0.2403  1.7046  1.2505
 2089SOL     OW16580   5.254   8.960   2.646 -0.0509  0.3192 -0.1841
 2089SOL    HW116581   5.262   8.986   2.738 -0.0972  0.6777 -0.2796
 2089SOL    HW216582   5.163   8.982   2.623 -0.0778  0.1122 -0.2817
 2090SOL     OW16583   5.877   7.131   1.254  0.2046 -0.2829 -0.2073
 2090SOL    HW116584   5.837   7.074   1.188 -1.4966  0.7564 -0.1501
 2090SOL    HW216585   5.823   7.211   1.252  1.6531  0.7663  0.6857
 2091SOL     OW16586   6.043   4.030   7.775 -0.3828  0.3256 -0.4853
 2091SOL    HW116587   6.060   3.936   7.778 -2.0025  0.0019  1.6664
 2091SOL    HW216588   5.951   4.037   7.748 -0.4497  1.2449 -0.0711
 2092SOL     OW16589   4.459  12.085  11.593  0.3034 -0.5584  0.7274
 2092SOL    HW116590   4.517  12.009  11.604 -1.0439 -1.9033 -0.8531
 2092SOL    HW216591   4.380  12.062  11.642 -0.3732 -0.4982 -0.3111
 2093SOL     OW16592  12.495  11.045   3.941  0.0693  0.3462 -0.1132
 2093SOL    HW116593  12.495  11.098   4.021  0.1198 -0.0522  0.1567
 2093SOL    HW216594  12.462  11.104   3.873  1.9489  1.3332 -0.2387
 2094SOL     OW16595  11.995  11.937   3.972  0.6311  0.8060  0.4019
 2094SOL    HW116596  11.987  12.032   3.967 -1.4400  0.6863  0.6405
 2094SOL    HW216597  12.086  11.922   3.999  1.0275  2.6951  0.2511
 2095SOL     OW16598   0.173   8.802   6.030 -0.1338 -0.3994 -0.1643
 2095SOL    HW116599   0.224   8.855   6.091 -2.0191  0.9949  0.2953
 2095SOL    HW216600   0.153   8.861   5.957  0.4064 -1.4591 -1.2109
 2096SOL     OW16601  11.222   3.812   8.136  0.5465 -0.4225  0.1079
 2096SOL    HW116602  11.129   3.813   8.117  0.1692  1.1399  1.8187
 2096SOL    HW216603  11.241   3.721   8.159 -0.6233 -0.6887  0.0569
 2097SOL     OW16604   0.346   4.539   6.525  0.4915 -0.4514 -0.2666
 2097SOL    HW116605   0.270   4.590   6.498 -0.1531 -0.7809  0.8728
 2097SOL    HW216606   0.416   4.605   6.536 -0.5363  0.3696  1.9758
 2098SOL     OW16607  12.281  11.834   9.236  0.0449  0.0768  0.3837
 2098SOL    HW116608  12.200  11.865   9.277  0.0157  1.0066 -0.3430
 2098SOL    HW216609  12.302  11.753   9.282  0.5537  1.5544  2.9655
 2099SOL     OW16610   7.745   7.770   9.266  0.0318 -0.2738 -0.1083
 2099SOL    HW116611   7.802   7.846   9.275  0.2568 -0.5916  1.5043
 2099SOL    HW216612   7.660   7.799   9.299 -0.3928 -0.1952 -1.2362
 2100SOL     OW16613  11.289   8.569  11.105 -0.0024 -0.0565  0.2834
 2100SOL    HW116614  11.272   8.663  11.111  0.0453 -0.0117 -0.1945
 2100SOL    HW216615  11.356   8.551  11.171  1.4828  0.6241 -0.9773
 2101SOL     OW16616   4.710  12.338   9.868  0.0039 -0.2925  0.8351
 2101SOL    HW116617   4.730  12.324   9.775 -0.6274  1.6708  0.3575
 2101SOL    HW216618   4.795  12.352   9.909  0.2517 -0.6815  0.4592
 2102SOL     OW16619   5.350  10.871   0.017 -0.3921  0.4890  0.1388
 2102SOL    HW116620   5.348  10.865  -0.078 -2.3440 -0.9400  0.2021
 2102SOL    HW216621   5.308  10.955   0.037 -0.2683  0.6414 -0.2308
 2103SOL     OW16622   7.558   3.940   8.001 -0.1924 -0.3521  0.4841
 2103SOL    HW116623   7.586   3.911   8.088 -1.8192 -1.9525  0.5324
 2103SOL    HW216624   7.577   3.866   7.944  1.2959  0.8556 -0.6847
 2104SOL     OW16625  10.824   7.556  10.982  0.5994 -0.1846 -0.3205
 2104SOL    HW116626  10.877   7.635  10.973  0.8694 -0.2818  0.3510
 2104SOL    HW216627  10.886   7.490  11.014  0.5066 -0.8191 -1.3809
 2105SOL     OW16628   2.004   1.466   6.452 -0.0338 -0.1410 -0.1800
 2105SOL    HW116629   2.032   1.376   6.432  0.3725 -0.0767  0.0911
 2105SOL    HW216630   2.001   1.509   6.366  0.6460 -0.1704 -0.2271
 2106SOL     OW16631  12.396   5.459   5.480  0.2639  0.0884  0.5143
 2106SOL    HW116632  12.329   5.429   5.541  0.1129  1.6808  1.1709
 2106SOL    HW216633  12.377   5.412   5.399 -3.4492  2.4047 -0.2207
 2107SOL     OW16634  11.556   8.879   4.753 -0.1797  0.0281 -0.7203
 2107SOL    HW116635  11.530   8.852   4.841  0.1748 -1.3118 -1.0028
 2107SOL    HW216636  11.549   8.974   4.754 -1.3877 -0.0424  0.3665
 2108SOL     OW16637   7.863   3.734   2.347 -0.7447  0.0881 -0.1674
 2108SOL    HW116638   7.836   3.676   2.275 -2.6307  0.9973 -0.2715
 2108SOL    HW216639   7.799   3.717   2.416  1.2161 -0.9697  1.4452
 2109SOL     OW16640   6.624   1.027   4.904 -0.2671 -0.0310  0.8209
 2109SOL    HW116641   6.658   1.012   4.817 -0.5237 -0.3041  0.7643
 2109SOL    HW216642   6.538   1.067   4.890  0.1064  0.8447  0.9618
 2110SOL     OW16643  12.201   3.405   7.154 -0.4980  0.0173 -0.0181
 2110SOL    HW116644  12.132   3.428   7.217 -0.4610 -1.7283  0.7110
 2110SOL    HW216645  12.256   3.341   7.200  0.0092 -0.6940 -1.5390
 2111SOL     OW16646   1.330   9.315   3.129  0.1660 -0.2845 -0.1271
 2111SOL    HW116647   1.391   9.253   3.169  0.5084 -0.0498 -0.2757
 2111SOL    HW216648   1.378   9.351   3.054  2.0090  3.8228  2.6565
 2112SOL     OW16649   3.415   9.839   2.963 -0.1596  0.7210 -0.3912
 2112SOL    HW116650   3.422   9.873   3.052  1.4988  0.1074 -0.2568
 2112SOL    HW216651   3.328   9.865   2.934 -0.8407  0.6798  1.5079
 2113SOL     OW16652  11.713   9.204   1.042 -1.0399 -0.1293 -0.2837
 2113SOL    HW116653  11.667   9.174   1.120  1.8171 -2.1429  0.8245
 2113SOL    HW216654  11.687   9.144   0.973 -0.1531 -1.2598  0.3353
 2114SOL     OW16655   0.059   6.772   2.708 -0.0337  0.2591  0.0284
 2114SOL    HW116656   0.060   6.705   2.639  0.0849 -0.3555  0.6174
 2114SOL    HW216657  -0.029   6.767   2.745  0.0831  0.1929  0.2983
 2115SOL     OW16658   4.150   6.429   1.839 -0.3370 -0.0196  0.2445
 2115SOL    HW116659   4.196   6.388   1.912  0.3304  1.9358  0.9843
 2115SOL    HW216660   4.065   6.454   1.875 -0.6982 -0.6239 -0.1692
 2116SOL     OW16661   2.104   3.644   0.926  0.0417 -0.6986  0.0999
 2116SOL    HW116662   2.058   3.648   0.842  2.2249  1.4697 -1.1211
 2116SOL    HW216663   2.171   3.577   0.913  1.6540  0.9744 -0.6991
 2117SOL     OW16664   0.386  12.674   8.769  0.1927  0.2124  0.0799
 2117SOL    HW116665   0.360  12.584   8.788 -1.3465  0.8375  1.2206
 2117SOL    HW216666   0.453  12.694   8.835  2.6183 -0.9039 -1.8877
 2118SOL     OW16667   2.439   6.357   7.325 -0.5998  0.1136 -0.2648
 2118SOL    HW116668   2.517   6.406   7.298 -0.3189 -1.2787 -2.1419
 2118SOL    HW216669   2.403   6.408   7.397  2.4587  0.3891  1.1891
 2119SOL     OW16670  12.545   2.166   5.238 -0.0707 -0.1980 -0.8211
 2119SOL    HW116671  12.454   2.167   5.270  0.4087  0.5119  0.6176
 2119SOL    HW216672  12.552   2.245   5.185 -0.2191 -0.1042 -0.7036
 2120SOL     OW16673   0.070   4.786   9.204 -0.2807 -0.1952 -0.0461
 2120SOL    HW116674   0.007   4.857   9.190 -0.2425  0.1646  1.4317
 2120SOL    HW216675   0.155   4.824   9.182 -0.3441 -0.0215  0.0053
 2121SOL     OW16676  12.034   7.292   4.216  0.2640 -0.5632 -0.3595
 2121SOL    HW116677  12.022   7.198   4.206  1.0444 -0.8335  0.9499
 2121SOL    HW216678  11.955   7.322   4.262  0.1052 -0.6131 -0.6008
 2122SOL     OW16679   0.695   4.376   8.950 -0.3123 -0.1359  0.3095
 2122SOL    HW116680   0.645   4.415   8.878  1.3830  0.6919 -0.4938
 2122SOL    HW216681   0.756   4.445   8.977  1.9764 -1.7741 -0.3402
 2123SOL     OW16682   4.466  10.785  10.150 -0.6441  0.0586  0.3064
 2123SOL    HW116683   4.553  10.794  10.111  0.4650  1.6676  2.8772
 2123SOL    HW216684   4.407  10.777  10.076  1.5755 -0.1164 -1.5588
 2124SOL     OW16685   2.881   1.512   3.071 -0.1774 -0.0167 -0.4932
 2124SOL    HW116686   2.800   1.537   3.115 -0.5078 -1.6978 -0.0832
 2124SOL    HW216687   2.937   1.479   3.141 -0.0519 -1.0765 -1.0622
 2125SOL     OW16688   2.691   7.796   6.844  0.2214 -0.2534  0.8417
 2125SOL    HW116689   2.629   7.723   6.845  1.4111 -1.3014  0.3315
 2125SOL    HW216690   2.738   7.789   6.927  0.3343 -0.0449  0.7967
 2126SOL     OW16691  10.097   0.407   8.241 -0.3903 -0.1219 -0.6390
 2126SOL    HW116692  10.040   0.366   8.305 -0.5725 -2.4235 -2.1634
 2126SOL    HW216693  10.185   0.399   8.277 -0.7605  2.0784  1.0086
 2127SOL     OW16694   2.642  12.845   0.361  0.5030 -0.9226  0.6573
 2127SOL    HW116695   2.567  12.866   0.417  0.5070  0.4578  0.1778
 2127SOL    HW216696   2.675  12.930   0.332  1.0288 -1.5841 -0.7563
 2128SOL     OW16697   8.941  12.713   1.318  0.3464 -0.1011  0.0244
 2128SOL    HW116698   8.895  12.655   1.257 -1.6196  0.5598  0.7953
 2128SOL    HW216699   8.976  12.783   1.263 -2.5518  1.2185 -0.3452
 2129SOL     OW16700   1.591   4.080   5.913 -0.3061 -0.6968 -0.1428
 2129SOL    HW116701   1.629   4.157   5.870  2.0009 -1.6562  0.0665
 2129SOL    HW216702   1.497   4.087   5.895 -0.0770  1.7424 -0.7723
 2130SOL     OW16703   6.674  12.062   3.339 -0.8038 -0.2805  0.0905
 2130SOL    HW116704   6.761  12.092   3.313 -1.7675  2.0576 -0.7546
 2130SOL    HW216705   6.685  11.969   3.357  1.5143 -0.4314 -1.6148
 2131SOL     OW16706   1.618   0.970  11.116  0.2066  0.3693  0.2619
 2131SOL    HW116707   1.673   1.008  11.185  0.6226  1.0476 -0.4337
 2131SOL    HW216708   1.600   1.042  11.057 -0.5126 -0.1096 -0.1195
 2132SOL     OW16709  11.264   6.337   2.295  0.2677 -0.1485  0.6712
 2132SOL    HW116710  11.354   6.309   2.312  0.6738  0.9907  0.4720
 2132SOL    HW216711  11.271   6.431   2.280 -1.1622  0.2592  2.2461
 2133SOL     OW16712  11.851  12.696   1.269 -0.1532  0.0118  0.0741
 2133SOL    HW116713  11.904  12.762   1.224  0.4367 -0.5092 -0.0249
 2133SOL    HW216714  11.893  12.686   1.355  1.5443 -2.2282 -0.9029
 2134SOL     OW16715   6.483   4.165   8.828 -0.4274  0.2621  0.0022
 2134SOL    HW116716   6.543   4.095   8.851 -2.4553 -1.2190  1.1398
 2134SOL    HW216717   6.461   4.149   8.736  1.0616  0.9856 -0.5063
 2135SOL     OW16718   5.052   1.795   6.277  0.9764  0.0991  0.1228
 2135SOL    HW116719   5.051   1.763   6.187 -0.5624  1.3590 -0.3564
 2135SOL    HW216720   5.128   1.853   6.280  1.0566  0.0278 -0.3574
 2136SOL     OW16721   9.592   5.463   1.459 -0.1474 -0.4256  0.1928
 2136SOL    HW116722   9.599   5.384   1.405  1.5090 -0.7692  0.8366
 2136SOL    HW216723   9.649   5.445   1.534  0.9889  1.7170 -0.0840
 2137SOL     OW16724   1.559   0.997   2.002 -0.1628  0.9089  0.3766
 2137SOL    HW116725   1.551   0.950   2.085 -3.6869  0.1725 -0.1978
 2137SOL    HW216726   1.554   0.928   1.936 -1.1169  1.7435 -0.4438
 2138SOL     OW16727   0.977   8.608   0.235 -0.4495  0.2995  0.3306
 2138SOL    HW116728   1.044   8.666   0.197 -0.1326  0.9248  1.7604
 2138SOL    HW216729   0.902   8.665   0.250 -0.6119  0.0380  0.5136
 2139SOL     OW16730   5.230   3.709   1.271  0.5465 -0.1246  0.7583
 2139SOL    HW116731   5.245   3.782   1.332 -2.7330  0.2771  1.2676
 2139SOL    HW216732   5.204   3.751   1.189  2.6040 -0.7263 -0.2726
 2140SOL     OW16733   0.767   9.040   6.965  0.3575 -0.4773 -0.5425
 2140SOL    HW116734   0.858   9.032   6.937  0.8961 -1.3218  1.3524
 2140SOL    HW216735   0.724   8.961   6.931 -0.0794  0.5771 -2.6603
 2141SOL     OW16736   3.750  12.525   2.899  0.2799  0.1758  0.3413
 2141SOL    HW116737   3.796  12.607   2.918  1.4999 -0.8588  2.1164
 2141SOL    HW216738   3.718  12.495   2.984 -0.2430 -1.1588 -0.2908
 2142SOL     OW16739   5.367   6.643   3.482  0.1784  0.2279  0.2744
 2142SOL    HW116740   5.447   6.692   3.498  1.3238 -0.4081 -2.7368
 2142SOL    HW216741   5.398   6.557   3.450 -1.7305 -1.0202  1.5856
 2143SOL     OW16742   8.918   9.339   2.849  0.0649 -0.2479  0.5942
 2143SOL    HW116743   8.892   9.345   2.757  3.3643  1.2827 -0.4215
 2143SOL    HW216744   8.846   9.379   2.897 -0.9463  0.6753 -1.5408
 2144SOL     OW16745  11.902   7.099   7.999  0.3238  0.1357  0.2157
 2144SOL    HW116746  11.904   7.004   7.983  0.7087  0.5366 -2.6018
 2144SOL    HW216747  11.991   7.128   7.979 -0.1990  1.2771 -0.5404
 2145SOL     OW16748   0.196   3.734   1.107 -0.4067 -0.1227 -0.0734
 2145SOL    HW116749   0.144   3.733   1.187  0.1617 -0.9967  0.2984
 2145SOL    HW216750   0.239   3.820   1.107 -1.0550  0.2080  0.1232
 2146SOL     OW16751   0.426   2.304   6.940  0.0686 -0.4600  0.3051
 2146SOL    HW116752   0.338   2.341   6.934 -0.3430 -1.4960 -0.2194
 2146SOL    HW216753   0.484   2.381   6.942 -0.6212  0.2977 -2.8733
 2147SOL     OW16754   1.871   8.974   2.084 -0.4134 -0.1766 -0.4606
 2147SOL    HW116755   1.839   8.957   1.996 -2.9085 -0.9639  0.5295
 2147SOL    HW216756   1.809   9.037   2.121 -0.6342 -1.4243  1.4166
 2148SOL     OW16757   4.842   5.755   3.510 -0.2006  0.1373  0.5289
 2148SOL    HW116758   4.914   5.698   3.485  0.0393  0.8279 -0.4020
 2148SOL    HW216759   4.857   5.773   3.603  1.3903  1.0501  0.1387
 2149SOL     OW16760   8.321  11.391  11.766 -0.7355  0.2886  0.0300
 2149SOL    HW116761   8.385  11.462  11.768 -2.7386  2.2118  0.5739
 2149SOL    HW216762   8.271  11.406  11.686 -1.9690  0.2698  0.7745
 2150SOL     OW16763   3.264   9.181   2.463 -0.0004 -0.1941 -0.5093
 2150SOL    HW116764   3.299   9.235   2.392  1.1882  1.5645  1.2645
 2150SOL    HW216765   3.286   9.230   2.543 -2.3173 -1.4563  1.0320
 2151SOL     OW16766   6.560  10.996   8.390  0.1136 -0.0525  0.2534
 2151SOL    HW116767   6.486  11.034   8.439  0.2721 -0.1283  0.5570
 2151SOL    HW216768   6.621  11.069   8.379 -0.3618  0.2166 -0.7126
 2152SOL     OW16769   7.983   8.523   2.041 -0.2405  0.8497 -0.1370
 2152SOL    HW116770   7.987   8.435   2.077 -0.3013  0.1990 -1.6627
 2152SOL    HW216771   8.055   8.570   2.084  1.0724 -0.5188 -0.7446
 2153SOL     OW16772   0.673   8.158  11.305 -0.0318 -0.2356 -0.1164
 2153SOL    HW116773   0.753   8.210  11.299 -0.0825 -0.0531  0.6428
 2153SOL    HW216774   0.602   8.221  11.291 -0.0418 -0.5040 -1.4051
 2154SOL     OW16775   0.521  11.524   8.146 -0.1740  0.1286  0.2478
 2154SOL    HW116776   0.506  11.592   8.080  1.5480  0.0915 -0.2124
 2154SOL    HW216777   0.529  11.573   8.228  2.3072  0.6672 -0.2514
 2155SOL     OW16778  10.169   2.196   8.756 -0.7237 -0.6038  0.1639
 2155SOL    HW116779  10.237   2.261   8.771 -0.7653 -0.0716 -1.7248
 2155SOL    HW216780  10.094   2.227   8.806 -0.6198  0.6095 -0.4143
 2156SOL     OW16781   1.701   8.066   0.346  0.7576  0.4052 -0.4492
 2156SOL    HW116782   1.749   8.027   0.419 -0.1823 -0.5941 -0.3298
 2156SOL    HW216783   1.726   8.013   0.270  0.3647  0.3054 -0.5113
 2157SOL     OW16784   8.830   7.429   2.731  0.3169 -0.0026  0.2554
 2157SOL    HW116785   8.772   7.454   2.659  0.3948  0.3816  0.3204
 2157SOL    HW216786   8.918   7.446   2.697  0.4466 -1.3318 -0.1324
 2158SOL     OW16787   7.587   5.922   2.787 -0.4030  0.5067 -0.4815
 2158SOL    HW116788   7.592   5.990   2.721 -1.8789  0.8655 -0.2570
 2158SOL    HW216789   7.496   5.892   2.784  0.1640 -1.3792 -0.4907
 2159SOL     OW16790   0.025   0.966   1.491  0.4147  0.2857 -0.5500
 2159SOL    HW116791   0.019   0.896   1.556  0.5807  0.5046 -0.2975
 2159SOL    HW216792  -0.023   1.039   1.529  1.2229  0.6928 -0.2960
 2160SOL     OW16793  10.819   2.109   5.775 -0.0904 -0.3023 -0.3828
 2160SOL    HW116794  10.875   2.082   5.701  1.0889  1.3511 -0.1461
 2160SOL    HW216795  10.843   2.201   5.790 -2.1851  0.1547  0.3950
 2161SOL     OW16796  10.498   5.104   3.613  0.2970  0.0952  0.3962
 2161SOL    HW116797  10.545   5.022   3.594  1.1256 -0.0335  2.5805
 2161SOL    HW216798  10.409   5.089   3.582  0.6829 -1.2610 -0.1311
 2162SOL     OW16799   3.394   6.937   7.284 -0.0139  0.3378  0.3357
 2162SOL    HW116800   3.442   6.981   7.354 -0.9840  0.5877  0.8521
 2162SOL    HW216801   3.394   6.999   7.211  1.4927 -0.1466 -0.1106
 2163SOL     OW16802   3.852   1.821   6.198 -0.3591  0.4115  0.0599
 2163SOL    HW116803   3.861   1.849   6.107 -0.6577 -2.8158 -1.0732
 2163SOL    HW216804   3.929   1.767   6.214 -1.1017 -0.3406  1.2126
 2164SOL     OW16805   8.401   8.494   2.946 -0.1016  0.4471  0.2872
 2164SOL    HW116806   8.462   8.565   2.966 -0.6749  0.7883  0.8475
 2164SOL    HW216807   8.323   8.513   2.999 -0.9078  0.3079 -0.8164
 2165SOL     OW16808   0.127   3.921   6.663 -0.2008 -0.3082 -0.1200
 2165SOL    HW116809   0.140   3.995   6.723  0.4544  0.5274 -1.2597
 2165SOL    HW216810   0.215   3.894   6.638 -0.4666  0.4256 -1.9782
 2166SOL     OW16811   0.418   9.720   2.249  0.8710 -0.2679  0.6615
 2166SOL    HW116812   0.338   9.730   2.198  0.7047  0.1804  1.0109
 2166SOL    HW216813   0.434   9.625   2.250  0.7959 -0.2990 -0.0959
 2167SOL     OW16814   8.091   7.232   5.103 -0.3458 -0.0202  0.1738
 2167SOL    HW116815   8.102   7.256   5.195 -1.2842 -2.1524  0.9030
 2167SOL    HW216816   8.180   7.213   5.072 -0.1490 -0.4869  1.0041
 2168SOL     OW16817   4.672   0.074   9.343 -0.3806  0.2294  0.7658
 2168SOL    HW116818   4.699  -0.004   9.391  0.1764  0.5161  0.9361
 2168SOL    HW216819   4.581   0.089   9.369 -0.9769 -1.2030 -0.3990
 2169SOL     OW16820   6.107   2.681   1.432 -0.2624  0.8629  0.1055
 2169SOL    HW116821   6.105   2.717   1.343 -0.7375  0.0194 -0.2310
 2169SOL    HW216822   6.048   2.606   1.429  3.0407 -1.9363 -0.0423
 2170SOL     OW16823   0.631   2.601   4.162  0.2636 -0.4407 -0.4125
 2170SOL    HW116824   0.551   2.654   4.170 -0.1613 -0.9465 -1.1480
 2170SOL    HW216825   0.698   2.662   4.132  0.7469  0.4881  2.3273
 2171SOL     OW16826   3.220   7.174   5.121  0.3330 -0.1746  0.0359
 2171SOL    HW116827   3.143   7.228   5.139  0.5775  0.5699 -1.0225
 2171SOL    HW216828   3.286   7.204   5.184  0.2925  0.3862 -0.1869
 2172SOL     OW16829  11.441   9.660   8.584 -0.6624 -0.4846  0.2400
 2172SOL    HW116830  11.445   9.574   8.627  0.7353 -0.6205 -0.1341
 2172SOL    HW216831  11.352   9.664   8.549 -0.8071 -1.7131  0.4056
 2173SOL     OW16832   8.771   1.481   1.294 -0.0389  0.3424 -0.1525
 2173SOL    HW116833   8.841   1.419   1.315 -0.9373 -0.5444  0.3720
 2173SOL    HW216834   8.807   1.567   1.316  0.5773 -0.1778  0.9957
 2174SOL     OW16835  12.745  10.919   0.669  0.3150  0.0827 -0.2096
 2174SOL    HW116836  12.835  10.947   0.658  0.9719 -1.8171 -0.1298
 2174SOL    HW216837  12.692  10.996   0.648  1.9538  1.5304  0.7231
 2175SOL     OW16838  11.490   2.017   9.696  0.1986  0.4284 -0.0469
 2175SOL    HW116839  11.465   1.927   9.718  0.1229  0.3266 -0.5515
 2175SOL    HW216840  11.558   2.038   9.760 -1.1844  0.7379  1.3944
 2176SOL     OW16841  11.116   4.089   2.391  0.3452 -0.6862 -0.7605
 2176SOL    HW116842  11.060   4.160   2.424 -0.2509 -1.7887  0.7034
 2176SOL    HW216843  11.059   4.013   2.386  0.8686 -1.0179 -2.7334
 2177SOL     OW16844   3.963   2.591  11.950  0.2444  0.1401 -0.1264
 2177SOL    HW116845   3.967   2.511  11.898 -1.1194 -0.7984  1.1256
 2177SOL    HW216846   4.050   2.631  11.940  0.7576 -1.1654 -1.2413
 2178SOL     OW16847   5.442   3.808   0.595 -0.0619 -0.4151 -0.2092
 2178SOL    HW116848   5.378   3.863   0.551  0.0154  1.1625  1.5260
 2178SOL    HW216849   5.394   3.767   0.667  0.1800 -1.7037 -0.7466
 2179SOL     OW16850   4.268   1.010   7.798  0.3088 -0.2783  0.0849
 2179SOL    HW116851   4.295   1.045   7.712 -1.1171 -0.2402 -0.3807
 2179SOL    HW216852   4.203   1.073   7.829 -0.4739 -1.2041  0.3769
 2180SOL     OW16853   8.386  11.190   4.773 -0.1600  0.1445 -0.1201
 2180SOL    HW116854   8.405  11.212   4.682 -0.0408 -0.3125 -0.2105
 2180SOL    HW216855   8.307  11.137   4.768 -0.5708  0.7260  0.1124
 2181SOL     OW16856   8.055   7.165   7.748  0.0666 -0.1327  0.3366
 2181SOL    HW116857   8.090   7.213   7.823  0.7265 -0.6919  0.3895
 2181SOL    HW216858   8.105   7.084   7.745 -0.4980 -0.4727 -0.2339
 2182SOL     OW16859   1.087  10.543   9.379 -0.5045  0.1509 -0.0709
 2182SOL    HW116860   1.119  10.456   9.402  0.4838  0.5618  0.1262
 2182SOL    HW216861   0.994  10.541   9.404 -0.3786 -0.6737  0.3787
 2183SOL     OW16862   2.739   4.551   4.955  0.2700  0.3271 -0.2871
 2183SOL    HW116863   2.823   4.585   4.986 -0.0585  2.0658 -1.1458
 2183SOL    HW216864   2.750   4.543   4.860  0.3857 -2.2939 -0.1136
 2184SOL     OW16865  10.427   9.957   7.341 -0.0523  0.1970  0.1636
 2184SOL    HW116866  10.423   9.909   7.258  1.5980 -0.4785  0.4320
 2184SOL    HW216867  10.366  10.029   7.330 -1.3427 -1.0016 -0.8964
 2185SOL     OW16868   4.252   5.383   6.226 -0.2847  0.7441  0.3696
 2185SOL    HW116869   4.265   5.474   6.250  0.4308  0.6012  0.5439
 2185SOL    HW216870   4.173   5.356   6.274 -0.5959  1.3122  0.1805
 2186SOL     OW16871   5.240  11.255   5.743  0.4286  0.5616 -0.5659
 2186SOL    HW116872   5.148  11.271   5.721  1.0317  1.3118 -2.7714
 2186SOL    HW216873   5.290  11.307   5.680  2.3972 -1.3826 -0.7657
 2187SOL     OW16874  12.934   8.371   5.233 -0.1552  0.0968 -0.5278
 2187SOL    HW116875  12.893   8.444   5.280  0.7688 -0.0249  0.4939
 2187SOL    HW216876  13.000   8.413   5.177  0.2326  0.0745 -0.0945
 2188SOL     OW16877   0.852   1.871   9.166 -0.6140  0.3600 -0.1796
 2188SOL    HW116878   0.901   1.874   9.248 -0.4157 -0.9446 -0.2300
 2188SOL    HW216879   0.810   1.957   9.160 -1.3514  0.1736  1.7263
 2189SOL     OW16880   8.402   0.275   1.886 -0.0744  0.0385  0.3597
 2189SOL    HW116881   8.456   0.196   1.886  0.9453  0.7170  0.8516
 2189SOL    HW216882   8.350   0.268   1.806 -0.0181 -1.1430  0.4147
 2190SOL     OW16883   1.221   2.455   9.464 -0.1042  0.0045  0.2418
 2190SOL    HW116884   1.230   2.461   9.369 -0.0453  0.5121  0.2812
 2190SOL    HW216885   1.149   2.393   9.477  0.3879 -0.6542 -0.1205
 2191SOL     OW16886   0.966   2.427   6.166  0.1278  0.3977  0.2292
 2191SOL    HW116887   1.052   2.389   6.145 -0.0571  0.5387 -0.8294
 2191SOL    HW216888   0.916   2.419   6.085 -0.7540  0.6222  0.7442
 2192SOL     OW16889   6.882   0.443   4.688  0.0110  0.0635 -0.1371
 2192SOL    HW116890   6.854   0.527   4.723 -0.8373 -0.0766 -0.4662
 2192SOL    HW216891   6.802   0.402   4.656  0.7145  0.1379 -2.1446
 2193SOL     OW16892   3.803  11.315  12.739  0.1543 -0.1260 -0.0030
 2193SOL    HW116893   3.782  11.397  12.783 -1.1375 -0.4426 -0.0071
 2193SOL    HW216894   3.743  11.251  12.777 -0.0193 -0.7029 -1.2271
 2194SOL     OW16895  11.961   9.658   7.227 -0.1904  0.2755  0.7952
 2194SOL    HW116896  12.056   9.667   7.219  0.0191 -0.5308  1.9756
 2194SOL    HW216897  11.926   9.742   7.200  0.7776  0.2203 -0.7734
 2195SOL     OW16898   1.682   4.776  12.729  0.1271 -0.3925  0.2959
 2195SOL    HW116899   1.777   4.784  12.727 -0.0462  2.9099  0.8317
 2195SOL    HW216900   1.652   4.822  12.650 -1.0716  0.8468  1.4199
 2196SOL     OW16901   6.039  12.268   0.739 -0.0569 -0.4976 -0.5813
 2196SOL    HW116902   6.103  12.206   0.705  0.6502 -0.7459  1.0713
 2196SOL    HW216903   6.021  12.327   0.666 -0.3153 -2.2773 -2.0244
 2197SOL     OW16904   8.969   0.711  12.008 -0.3901 -0.2585 -0.5557
 2197SOL    HW116905   8.950   0.767  11.933 -1.7317 -0.2641 -0.2441
 2197SOL    HW216906   9.064   0.720  12.021 -0.3680  0.8680 -1.3420
 2198SOL     OW16907   2.488  11.324   3.165 -0.0926 -0.6786  0.4473
 2198SOL    HW116908   2.464  11.415   3.145  1.8849  0.0274  1.0227
 2198SOL    HW216909   2.457  11.275   3.089  0.0368  0.7009 -0.5511
 2199SOL     OW16910   2.212   2.808   0.505  0.0572  0.0379  0.3786
 2199SOL    HW116911   2.269   2.867   0.455 -0.7085 -0.7683 -1.5562
 2199SOL    HW216912   2.212   2.727   0.454 -1.4359 -0.5491  1.2598
 2200SOL     OW16913   7.652   8.285   6.142 -0.7190 -0.3105 -0.0358
 2200SOL    HW116914   7.641   8.337   6.062  0.8881  0.6728  0.3206
 2200SOL    HW216915   7.645   8.349   6.213 -1.1538 -1.0079  0.5635
 2201SOL     OW16916   3.119   3.284   7.451 -0.8522  0.3729  0.0544
 2201SOL    HW116917   3.041   3.311   7.500 -0.9977  1.0111 -0.5271
 2201SOL    HW216918   3.112   3.329   7.368  1.1332  2.0060  0.7129
 2202SOL     OW16919   2.643   1.122  10.688  0.8039 -0.3068 -0.2615
 2202SOL    HW116920   2.575   1.060  10.659 -0.3023  0.4090  0.6814
 2202SOL    HW216921   2.713   1.066  10.721  0.3212 -1.0745 -0.4845
 2203SOL     OW16922   2.266   6.651   4.218  0.0800 -0.6832  0.1146
 2203SOL    HW116923   2.190   6.598   4.243 -1.8515  1.5846 -0.5467
 2203SOL    HW216924   2.279   6.630   4.125 -1.6478  0.9667 -0.5660
 2204SOL     OW16925   3.937  11.964   2.452  0.0413  0.1996  0.3021
 2204SOL    HW116926   3.993  11.887   2.462 -0.6605 -0.2627  0.6810
 2204SOL    HW216927   3.861  11.933   2.404  0.4616  1.0087 -0.9646
 2205SOL     OW16928   2.288   2.163  10.274  0.3866 -0.1994 -0.1683
 2205SOL    HW116929   2.208   2.116  10.298  1.0091 -1.0405  0.2925
 2205SOL    HW216930   2.321   2.198  10.357  0.1298  0.7575 -0.4554
 2206SOL     OW16931   7.723  12.917   3.374  0.7124 -0.2534 -0.1039
 2206SOL    HW116932   7.808  12.945   3.409  0.7175 -0.8341  0.3736
 2206SOL    HW216933   7.726  12.941   3.282  0.8354  1.0149  0.2075
 2207SOL     OW16934  11.980   1.725   3.902  0.1686  0.1270 -0.3691
 2207SOL    HW116935  11.958   1.632   3.910  1.7097 -0.3141 -0.9910
 2207SOL    HW216936  12.072   1.726   3.875  1.0846  1.8742  2.4504
 2208SOL     OW16937   0.096  12.517   6.926  0.2145  0.0495 -0.7377
 2208SOL    HW116938   0.033  12.588   6.941 -0.6118 -1.0301  1.2963
 2208SOL    HW216939   0.043  12.447   6.887  0.4563 -0.3724 -0.3098
 2209SOL     OW16940   5.777   7.575   9.040 -0.2812  0.5172  0.3574
 2209SOL    HW116941   5.726   7.603   9.116 -0.6636  1.4369 -0.2233
 2209SOL    HW216942   5.735   7.494   9.011  0.4065 -0.3415  1.6302
 2210SOL     OW16943   7.350  12.804   6.838 -0.6217 -0.4117 -0.1075
 2210SOL    HW116944   7.434  12.849   6.840 -1.0426  0.3703  0.8275
 2210SOL    HW216945   7.332  12.788   6.746 -0.3542  1.1254 -0.4373
 2211SOL     OW16946   8.476   1.879   9.196  0.7537  0.2826 -0.1336
 2211SOL    HW116947   8.422   1.845   9.269  1.7935 -0.9937  0.0789
 2211SOL    HW216948   8.436   1.963   9.175 -0.0785  0.3169  1.3769
 2212SOL     OW16949   5.742   2.683   4.850 -0.0788  0.4110 -0.3028
 2212SOL    HW116950   5.650   2.698   4.870 -0.0918 -1.1145  0.9605
 2212SOL    HW216951   5.743   2.665   4.756 -1.3191 -1.1702 -0.0524
 2213SOL     OW16952  11.018   0.519   4.406 -0.3132  0.4491 -0.0305
 2213SOL    HW116953  10.957   0.579   4.364 -0.3234 -0.2885 -1.1208
 2213SOL    HW216954  10.988   0.513   4.496 -0.8878  1.3222 -0.1504
 2214SOL     OW16955  12.407  12.279   2.523  0.2682  0.0969  0.2350
 2214SOL    HW116956  12.367  12.262   2.438  1.5823 -0.9218 -0.2202
 2214SOL    HW216957  12.338  12.260   2.587 -0.3623 -0.3483 -0.5683
 2215SOL     OW16958   3.348  10.225  12.055 -0.3468  0.3022  0.3390
 2215SOL    HW116959   3.261  10.231  12.016  0.5197  0.5347 -1.6553
 2215SOL    HW216960   3.335  10.255  12.145 -2.3748  0.0227  0.1931
 2216SOL     OW16961   7.948   1.909   4.692  0.1111  0.4047  0.2906
 2216SOL    HW116962   7.857   1.925   4.665  0.3516  1.8905  0.3062
 2216SOL    HW216963   7.986   1.996   4.700  1.3684 -0.1854  0.9035
 2217SOL     OW16964   2.215   1.990   0.527 -0.3302  0.1502 -0.5299
 2217SOL    HW116965   2.166   1.908   0.539 -1.4814  1.0829  1.5787
 2217SOL    HW216966   2.293   1.980   0.581  0.2419 -0.0496 -1.3599
 2218SOL     OW16967   4.534   0.962   8.953 -0.8204 -0.5402  0.1900
 2218SOL    HW116968   4.467   0.983   8.888  0.2161 -1.1833 -1.1142
 2218SOL    HW216969   4.558   0.871   8.935 -1.3470 -1.1370  2.2511
 2219SOL     OW16970  10.649   5.780   8.062 -0.1908 -0.1491  0.3342
 2219SOL    HW116971  10.660   5.685   8.054  0.4481  0.0102 -0.9104
 2219SOL    HW216972  10.717   5.806   8.124 -0.2645 -0.4799  0.5583
 2220SOL     OW16973   7.253  11.447   4.262  0.0826 -1.1151  0.4945
 2220SOL    HW116974   7.170  11.455   4.309 -0.4325 -0.2678 -0.5200
 2220SOL    HW216975   7.320  11.458   4.330 -0.6374 -0.0026  1.0569
 2221SOL     OW16976   3.729   4.704   1.217  0.0747 -0.2809 -0.4477
 2221SOL    HW116977   3.655   4.685   1.159  0.3825 -1.6530 -0.4304
 2221SOL    HW216978   3.733   4.628   1.276  1.7402 -0.4344 -0.7110
 2222SOL     OW16979   4.945  10.508   0.639  0.0762 -0.2054  0.5048
 2222SOL    HW116980   4.894  10.589   0.636  1.6407  0.8299 -2.8212
 2222SOL    HW216981   4.909  10.455   0.567  1.3066 -0.9935  0.4457
 2223SOL     OW16982   2.724   2.418   9.466 -0.2857 -0.0539 -0.2042
 2223SOL    HW116983   2.740   2.465   9.384 -0.5878  0.1951 -0.1243
 2223SOL    HW216984   2.750   2.328   9.448 -1.3544 -0.2454 -0.9254
 2224SOL     OW16985   0.269   9.341  11.202  0.2085  0.2125 -0.2657
 2224SOL    HW116986   0.248   9.405  11.134 -1.1705  0.2551  0.1614
 2224SOL    HW216987   0.185   9.299  11.221  1.0570 -1.6672 -0.4628
 2225SOL     OW16988   7.171  10.026   9.648  0.4843 -0.2405  0.4434
 2225SOL    HW116989   7.242  10.088   9.669  0.1492 -0.0473  1.0186
 2225SOL    HW216990   7.116  10.025   9.726  0.0501 -0.6716  0.1370
 2226SOL     OW16991   1.469   1.982   5.015 -0.2851  0.1610  0.0828
 2226SOL    HW116992   1.528   1.909   4.996  0.0951  0.0483  1.5989
 2226SOL    HW216993   1.458   2.026   4.931  0.8866 -0.6091 -0.5020
 2227SOL     OW16994  10.884   0.448   3.180 -0.2008 -0.5181  0.0828
 2227SOL    HW116995  10.790   0.436   3.186 -0.7661  2.6705 -0.4573
 2227SOL    HW216996  10.917   0.433   3.268 -1.0229 -2.5555  0.0884
 2228SOL     OW16997   6.733   8.205   3.639  0.6654 -0.4747  0.3305
 2228SOL    HW116998   6.654   8.155   3.658  0.2533  0.5898  1.5488
 2228SOL    HW216999   6.762   8.237   3.725  1.5795  0.3780 -0.2735
 2229SOL     OW17000   3.526  11.469   8.702 -0.3354 -0.0423 -0.6430
 2229SOL    HW117001   3.611  11.466   8.747  0.6224  0.8524 -2.2921
 2229SOL    HW217002   3.493  11.379   8.707 -0.1088 -0.0559  1.4786
 2230SOL     OW17003  10.303   3.624  10.508  0.2471  0.5454 -0.0059
 2230SOL    HW117004  10.301   3.605  10.414  2.2150  0.3788 -0.0532
 2230SOL    HW217005  10.319   3.539  10.549  1.6632  0.9194  0.2900
 2231SOL     OW17006   2.507  10.441   0.676 -0.6349  0.5791 -0.1569
 2231SOL    HW117007   2.417  10.474   0.675 -0.9085  0.0569  1.8782
 2231SOL    HW217008   2.562  10.519   0.678 -1.1356  0.9184  0.7196
 2232SOL     OW17009   1.654   1.475   2.947 -0.1155 -0.1040 -0.5751
 2232SOL    HW117010   1.581   1.414   2.945 -1.1409  0.7686  2.9230
 2232SOL    HW217011   1.706   1.447   3.022  0.4408  2.1146 -0.0613
 2233SOL     OW17012   0.555  10.312   6.421  0.6468 -0.5083 -0.4287
 2233SOL    HW117013   0.463  10.292   6.403 -0.0859  1.8339  0.3425
 2233SOL    HW217014   0.582  10.368   6.349  0.6294  0.9367  0.6362
 2234SOL     OW17015   3.132   7.135   8.754  0.1964 -0.5182 -0.0272
 2234SOL    HW117016   3.220   7.148   8.791  0.2748  0.5694 -0.5365
 2234SOL    HW217017   3.097   7.059   8.800  1.0455 -0.3957  0.8524
 2235SOL     OW17018  12.533   1.278   6.682  0.3196 -0.3806 -0.0681
 2235SOL    HW117019  12.576   1.337   6.744 -0.1326 -0.7313  0.5957
 2235SOL    HW217020  12.537   1.192   6.724 -0.9840 -0.4299  0.0041
 2236SOL     OW17021   8.530   0.839   0.236 -0.2072 -0.0691  0.2881
 2236SOL    HW117022   8.526   0.743   0.241 -1.2136  0.0185  1.4881
 2236SOL    HW217023   8.532   0.868   0.327  0.8419  1.0413 -0.0663
 2237SOL     OW17024  12.443  12.156   2.270 -0.5678  0.5527  0.0398
 2237SOL    HW117025  12.535  12.135   2.285 -0.9667  0.5531  3.0781
 2237SOL    HW217026  12.397  12.073   2.284 -1.1825  0.9253  0.2682
 2238SOL     OW17027   9.489  10.240   4.914  0.1198  0.5397 -0.6796
 2238SOL    HW117028   9.510  10.153   4.878  0.3861  0.2426  0.1675
 2238SOL    HW217029   9.496  10.229   5.009  1.6511  1.8573 -0.5866
 2239SOL     OW17030   3.255   3.353   4.083  0.2158 -0.2953  0.0713
 2239SOL    HW117031   3.254   3.275   4.140  0.7539 -0.4098 -0.0716
 2239SOL    HW217032   3.342   3.352   4.042 -0.0601 -0.0450 -0.5264
 2240SOL     OW17033   2.132   9.525  10.896 -0.4231  0.2589  0.7225
 2240SOL    HW117034   2.132   9.620  10.907  0.5071  0.3017  0.4844
 2240SOL    HW217035   2.073   9.493  10.964 -0.4095  0.9795  1.0890
 2241SOL     OW17036  12.742   4.359   1.976 -0.0572 -0.2976 -0.6861
 2241SOL    HW117037  12.794   4.424   1.928  0.9316 -1.5183 -1.3118
 2241SOL    HW217038  12.679   4.412   2.025  1.4888  1.2294 -0.2263
 2242SOL     OW17039   2.790   2.580  12.041 -0.3381 -0.0422 -0.6675
 2242SOL    HW117040   2.696   2.587  12.029 -0.4282  1.9310  0.7628
 2242SOL    HW217041   2.801   2.555  12.133  0.5397 -0.0726 -0.7684
 2243SOL     OW17042   2.445   3.975   6.300  0.1590 -0.3320 -0.5251
 2243SOL    HW117043   2.501   4.047   6.329  0.6438 -0.5196 -0.9910
 2243SOL    HW217044   2.495   3.931   6.232 -1.2391  0.5371 -2.1931
 2244SOL     OW17045   6.736   7.783   6.981 -0.7179  0.1751 -0.6448
 2244SOL    HW117046   6.702   7.778   6.891 -1.2906  1.9850 -0.5839
 2244SOL    HW217047   6.659   7.764   7.036 -0.1033 -2.1345 -0.4925
 2245SOL     OW17048   8.096   5.176   5.278 -0.1659 -0.1394  0.4429
 2245SOL    HW117049   8.135   5.254   5.238 -2.0831  0.1048 -1.1397
 2245SOL    HW217050   8.089   5.113   5.207 -0.9074 -0.8332  1.1064
 2246SOL     OW17051   9.049  12.005   1.529  0.2799 -0.6265  0.0649
 2246SOL    HW117052   8.994  12.006   1.450  2.1111  1.6204 -1.3067
 2246SOL    HW217053   9.089  11.918   1.529 -0.1706 -0.8547 -1.1920
 2247SOL     OW17054   0.805  10.262   5.025  0.8379 -0.1942 -0.0375
 2247SOL    HW117055   0.787  10.332   4.963  2.3343  1.3080  1.1242
 2247SOL    HW217056   0.900  10.251   5.022  1.0743  0.4669  2.4509
 2248SOL     OW17057   5.305  12.578   1.020 -0.1931  0.0058  0.0767
 2248SOL    HW117058   5.393  12.539   1.022  0.3575  0.4996 -4.2106
 2248SOL    HW217059   5.252  12.514   0.973 -1.4277  0.9075  0.2050
 2249SOL     OW17060   3.443   2.712   4.029  0.3912  0.5803  0.6300
 2249SOL    HW117061   3.389   2.791   4.021  0.9270  0.8060 -1.0655
 2249SOL    HW217062   3.506   2.733   4.099  0.1766  1.4380  0.5755
 2250SOL     OW17063  12.171  10.555  12.345  0.2556  0.1561  0.6285
 2250SOL    HW117064  12.257  10.514  12.335  0.3591  0.4835  0.0897
 2250SOL    HW217065  12.191  10.647  12.366  0.0524  0.3683 -0.0666
 2251SOL     OW17066   3.091  10.182   9.427 -0.0524 -0.3438  1.1917
 2251SOL    HW117067   3.084  10.198   9.521  3.4187  0.8603  1.3663
 2251SOL    HW217068   3.178  10.146   9.414 -0.6778 -1.1675 -1.5333
 2252SOL     OW17069   9.084   4.460   4.343 -0.5584  0.3067  0.0002
 2252SOL    HW117070   9.081   4.410   4.261 -1.3940  0.0560  0.1680
 2252SOL    HW217071   9.025   4.534   4.327 -0.2228  0.6067  0.1541
 2253SOL     OW17072   0.241   1.759   6.502  0.5867 -0.3647  0.0518
 2253SOL    HW117073   0.309   1.696   6.525  1.9231  0.8965 -0.3210
 2253SOL    HW217074   0.194   1.775   6.583  2.4555  0.7322  0.9921
 2254SOL     OW17075   8.697   4.893   1.063  0.3548  0.9475  0.2369
 2254SOL    HW117076   8.615   4.910   1.017 -0.2207  0.8497  1.1993
 2254SOL    HW217077   8.679   4.816   1.117  0.8949  1.2672  0.8900
 2255SOL     OW17078   1.480   8.233   6.655  0.5586 -0.1225  0.0324
 2255SOL    HW117079   1.512   8.318   6.687 -0.5358 -0.0206  0.8904
 2255SOL    HW217080   1.442   8.253   6.569  0.4484  0.2247  0.1603
 2256SOL     OW17081   7.625   5.296   4.992 -0.1049  0.1090  0.0856
 2256SOL    HW117082   7.648   5.241   5.067  0.9183  2.3538  1.5026
 2256SOL    HW217083   7.555   5.247   4.947  0.8186 -2.3619  1.1702
 2257SOL     OW17084   2.250  11.408  11.853  0.1155 -0.1920  0.2384
 2257SOL    HW117085   2.343  11.429  11.864  0.6676 -1.2153 -1.8637
 2257SOL    HW217086   2.226  11.453  11.772 -0.3016 -2.5355 -1.0251
 2258SOL     OW17087   4.068   3.774  10.056 -0.3870 -0.8427 -0.1706
 2258SOL    HW117088   4.088   3.689  10.017  0.0443  0.4362 -3.0169
 2258SOL    HW217089   3.990   3.804  10.010  0.4651  1.0213 -0.5137
 2259SOL     OW17090   1.911  11.237   2.253 -0.8572  0.3204  0.2084
 2259SOL    HW117091   1.962  11.219   2.332 -1.0930 -2.7040 -0.2174
 2259SOL    HW217092   1.820  11.228   2.282 -0.9848  0.6311 -0.1018
 2260SOL     OW17093   3.582  10.815   7.043 -0.4283  0.2840 -0.0458
 2260SOL    HW117094   3.577  10.810   7.139  2.6060  1.6468  0.3090
 2260SOL    HW217095   3.496  10.844   7.016 -1.8069 -1.4470  2.1126
 2261SOL     OW17096  10.772   6.613   4.787  0.0414 -0.3937 -0.2368
 2261SOL    HW117097  10.826   6.689   4.764 -0.0348  0.0333  0.9557
 2261SOL    HW217098  10.804   6.585   4.873 -3.0567  1.2587  1.6125
 2262SOL     OW17099   0.061   3.320  12.101 -0.2589  0.6730 -0.4556
 2262SOL    HW117100   0.131   3.258  12.078 -1.0955 -1.3871  2.0571
 2262SOL    HW217101   0.031   3.355  12.017  2.4875  0.2058 -1.7397
 2263SOL     OW17102  12.802   8.036   6.824  0.2248 -0.5656  0.2282
 2263SOL    HW117103  12.809   7.952   6.779 -1.5282 -1.4127  1.4347
 2263SOL    HW217104  12.777   8.098   6.755 -2.4361 -1.8335 -0.0783
 2264SOL     OW17105   5.970  10.129  12.077  0.2566 -0.1751  0.8017
 2264SOL    HW117106   6.046  10.153  12.130  0.6442  1.2719 -0.3688
 2264SOL    HW217107   5.908  10.093  12.141  0.8465  1.1638  2.1932
 2265SOL     OW17108   8.011  12.593   9.615  0.5300  0.0546  1.0739
 2265SOL    HW117109   8.055  12.630   9.691 -0.7233  3.1261  0.4938
 2265SOL    HW217110   8.052  12.638   9.540  0.7977 -1.8615  0.0169
 2266SOL     OW17111   1.623   6.720  12.377 -0.2892 -0.6450 -0.3058
 2266SOL    HW117112   1.621   6.628  12.401  0.3256 -0.9382 -1.3017
 2266SOL    HW217113   1.697   6.756  12.426 -0.6277 -0.6368  0.2048
 2267SOL     OW17114   8.886  11.766   0.131 -0.2362  0.5990  0.4069
 2267SOL    HW117115   8.974  11.730   0.146 -0.1320  0.7656  0.1960
 2267SOL    HW217116   8.857  11.794   0.218  0.5045  1.8740  0.2603
 2268SOL     OW17117   1.900  12.480   3.633  0.3820  0.1726  0.0283
 2268SOL    HW117118   1.972  12.513   3.686  0.2274 -0.6655  0.7787
 2268SOL    HW217119   1.916  12.516   3.546  2.2217 -0.7363 -0.0619
 2269SOL     OW17120   5.651  11.192   5.289 -0.1667  0.9331  0.5422
 2269SOL    HW117121   5.585  11.174   5.356  0.9204 -0.3018  1.3418
 2269SOL    HW217122   5.733  11.201   5.338  0.5111  0.9411 -0.5488
 2270SOL     OW17123   7.102   1.512   2.305  0.2572 -0.0187  0.0024
 2270SOL    HW117124   7.055   1.586   2.343 -1.0391 -0.1433 -1.2870
 2270SOL    HW217125   7.104   1.447   2.376  0.6360  0.8887  0.8532
 2271SOL     OW17126   0.983   3.591   1.798 -0.1371  0.2563  0.5294
 2271SOL    HW117127   1.002   3.649   1.724  0.6719 -2.1043 -1.2402
 2271SOL    HW217128   0.889   3.574   1.792  0.2696 -1.7124 -1.4694
 2272SOL     OW17129   9.942  11.763  11.527  0.2326 -0.4966 -0.3250
 2272SOL    HW117130   9.864  11.803  11.567  0.8422 -0.4349  0.8304
 2272SOL    HW217131   9.947  11.804  11.441 -1.1483 -0.6809 -0.5182
 2273SOL     OW17132   7.480   1.418   0.027 -0.1445 -0.4714 -0.0684
 2273SOL    HW117133   7.505   1.509   0.007  2.1714 -0.9894  0.1557
 2273SOL    HW217134   7.409   1.399  -0.034 -1.2753  1.7317  0.4351
 2274SOL     OW17135  12.576   4.814   0.139 -0.0719  0.4582  0.1164
 2274SOL    HW117136  12.597   4.792   0.229  0.9521  0.4377 -0.1073
 2274SOL    HW217137  12.486   4.846   0.141 -0.3738 -0.4367  0.9870
 2275SOL     OW17138   3.525   3.251   1.911  0.0919 -0.3879 -0.4728
 2275SOL    HW117139   3.477   3.192   1.853 -0.3736 -1.9255  1.3518
 2275SOL    HW217140   3.466   3.263   1.986  1.3366  0.1355  0.4579
 2276SOL     OW17141  11.073   5.820   3.354  0.1025 -0.0818 -0.0154
 2276SOL    HW117142  11.069   5.873   3.274 -2.7923 -0.2590 -0.0798
 2276SOL    HW217143  11.088   5.731   3.323  1.7311  0.1910 -0.1167
 2277SOL     OW17144  10.047   3.194   7.094 -0.2636 -0.3785  0.1226
 2277SOL    HW117145  10.111   3.264   7.081 -1.4440  0.4720 -1.5990
 2277SOL    HW217146   9.970   3.239   7.130 -1.1251 -0.6994 -1.2337
 2278SOL     OW17147  11.699   0.611  11.478  0.3077 -0.0895  0.8097
 2278SOL    HW117148  11.678   0.641  11.390 -1.2202 -2.3347  0.3256
 2278SOL    HW217149  11.712   0.517  11.469 -0.8944 -0.5630  3.1260
 2279SOL     OW17150   7.463   9.720  10.088 -0.2427 -0.9461  0.1646
 2279SOL    HW117151   7.448   9.628  10.066 -1.1149 -1.5481  2.8266
 2279SOL    HW217152   7.528   9.717  10.158  0.2263  0.5260 -0.1937
 2280SOL     OW17153  10.368  11.843   5.209 -0.4843  0.1667 -0.2857
 2280SOL    HW117154  10.331  11.902   5.275 -1.6934 -0.0176 -0.7892
 2280SOL    HW217155  10.304  11.773   5.199  0.7756 -1.0835  0.0465
 2281SOL     OW17156  11.450   4.255   9.592  0.4482 -0.4390 -0.0976
 2281SOL    HW117157  11.415   4.274   9.505  1.4548  0.7321 -0.2775
 2281SOL    HW217158  11.380   4.209   9.637 -0.7814  0.5889 -0.9090
 2282SOL     OW17159  10.311   0.534   3.691  0.0135 -0.1927 -0.7266
 2282SOL    HW117160  10.360   0.615   3.700  0.1330 -0.3578  0.2225
 2282SOL    HW217161  10.358   0.484   3.624  2.2156 -1.0943  1.3771
 2283SOL     OW17162   2.533   1.740  11.785  0.1700 -0.1175 -0.1989
 2283SOL    HW117163   2.454   1.792  11.767  0.2717  0.1650  0.1481
 2283SOL    HW217164   2.507   1.681  11.856  0.0198 -0.6322 -0.6731
 2284SOL     OW17165   4.124   7.908   8.705 -0.1459 -0.0753 -0.2865
 2284SOL    HW117166   4.200   7.856   8.732  1.3594  1.7491 -0.7290
 2284SOL    HW217167   4.065   7.905   8.780  0.8718 -0.6570  0.5243
 2285SOL     OW17168   0.681   3.975  12.077 -0.1677  0.0995  0.1652
 2285SOL    HW117169   0.773   3.950  12.074  0.2854  1.7525 -0.8227
 2285SOL    HW217170   0.657   3.993  11.987 -0.9491  1.4293  0.6122
 2286SOL     OW17171   7.869   0.548   3.250 -0.5625  0.2417  0.2616
 2286SOL    HW117172   7.786   0.561   3.205  0.1041 -2.0808 -1.8798
 2286SOL    HW217173   7.863   0.459   3.286  0.6389  0.4238  0.9671
 2287SOL     OW17174   3.042  12.670   2.163 -0.3822 -0.5362  0.2764
 2287SOL    HW117175   3.084  12.628   2.238 -0.8028  0.1438  0.9012
 2287SOL    HW217176   3.115  12.710   2.114 -0.2382  0.2463  1.1066
 2288SOL     OW17177  10.038   8.082   0.177  0.0716  0.4476 -0.2134
 2288SOL    HW117178  10.086   8.140   0.237  0.1343  3.1571 -2.6295
 2288SOL    HW217179  10.103   8.019   0.147  0.2672 -0.3520  1.7399
 2289SOL     OW17180   4.603  10.137  10.180  0.3368 -0.1939  0.5959
 2289SOL    HW117181   4.688  10.103  10.208  0.1131 -1.4184 -0.0960
 2289SOL    HW217182   4.549  10.058  10.167 -0.6751  0.5182  0.3266
 2290SOL     OW17183   3.398   2.452   1.450  0.1340 -0.3997  0.0149
 2290SOL    HW117184   3.458   2.482   1.382 -1.5519 -0.3549 -1.5113
 2290SOL    HW217185   3.446   2.382   1.495  0.3241 -2.3236 -2.9623
 2291SOL     OW17186   4.336   5.082   2.434  0.1851  0.5930 -0.2960
 2291SOL    HW117187   4.275   5.153   2.452 -0.6853  0.4096 -2.3281
 2291SOL    HW217188   4.421   5.116   2.464 -0.6529  1.3677  1.3225
 2292SOL     OW17189   2.632   5.833   2.084 -0.5955 -0.4082 -0.2163
 2292SOL    HW117190   2.683   5.906   2.051 -1.0197 -0.5158 -1.1534
 2292SOL    HW217191   2.691   5.757   2.078  0.2654  0.0212  1.8979
 2293SOL     OW17192   7.924   1.723   9.685  0.1011  0.1947  0.6336
 2293SOL    HW117193   7.880   1.662   9.744 -0.4949  0.5048  0.5241
 2293SOL    HW217194   7.984   1.668   9.634 -0.1954 -0.2491  0.7541
 2294SOL     OW17195  10.181  11.597  12.531 -0.1944 -0.8075  0.5683
 2294SOL    HW117196  10.179  11.663  12.601  0.1144  1.3992 -1.3603
 2294SOL    HW217197  10.274  11.579  12.518 -0.1223  0.1883 -0.4429
 2295SOL     OW17198  11.108   9.682   5.207  0.3111 -0.1819  0.3670
 2295SOL    HW117199  11.130   9.726   5.125  0.2070 -2.0743 -0.7399
 2295SOL    HW217200  11.193   9.660   5.247  0.3613  0.5824  0.6885
 2296SOL     OW17201   5.923   8.759   1.327  0.2248  0.0794  0.0574
 2296SOL    HW117202   6.014   8.751   1.357  0.2184  1.1590  0.4452
 2296SOL    HW217203   5.916   8.851   1.301 -0.5009 -0.2275 -0.8608
 2297SOL     OW17204   5.248   2.283   0.890 -0.5773 -0.2706  0.6286
 2297SOL    HW117205   5.164   2.258   0.853 -1.3970  0.7262  1.7669
 2297SOL    HW217206   5.248   2.379   0.890 -1.0818 -0.1438  4.0585
 2298SOL     OW17207   2.331   9.807   5.199  0.4609 -0.5243 -0.3919
 2298SOL    HW117208   2.272   9.744   5.157  0.9801 -1.6036  0.4209
 2298SOL    HW217209   2.296   9.893   5.176 -1.7827 -1.1207  0.5495
 2299SOL     OW17210   5.192   9.977   3.543  1.2182  0.2913 -0.0803
 2299SOL    HW117211   5.243   9.992   3.464 -0.4385 -1.4909 -1.6241
 2299SOL    HW217212   5.246   9.919   3.596  2.1665  1.1479 -0.0807
 2300SOL     OW17213  12.080   3.464   3.267  0.5357 -0.4524  0.0323
 2300SOL    HW117214  12.042   3.387   3.309  0.5937 -2.7889 -3.7315
 2300SOL    HW217215  12.174   3.446   3.263  0.8622  0.8704  0.9214
 2301SOL     OW17216  10.989   1.432  11.884  0.0259  0.4457 -0.4138
 2301SOL    HW117217  11.079   1.398  11.889 -0.2839 -0.5150 -1.0374
 2301SOL    HW217218  10.943   1.369  11.829 -0.7239  1.6296 -1.1678
 2302SOL     OW17219  11.260   1.564   9.884  0.3860  0.4701  0.6617
 2302SOL    HW117220  11.168   1.560   9.858  0.4518 -1.1254  0.5900
 2302SOL    HW217221  11.306   1.587   9.803  0.2221 -0.6911  0.2155
 2303SOL     OW17222   1.546  10.933   3.899  0.3661 -0.1059  0.2833
 2303SOL    HW117223   1.512  10.984   3.972  0.4997  0.9216 -0.3574
 2303SOL    HW217224   1.579  10.998   3.837  0.7143 -0.9741 -0.4682
 2304SOL     OW17225   7.690   7.278   5.468  0.4684  0.2513 -0.7051
 2304SOL    HW117226   7.602   7.260   5.501  0.6654  0.3670 -0.1063
 2304SOL    HW217227   7.697   7.226   5.388  0.8551 -2.0330  0.7136
 2305SOL     OW17228   8.546  12.091   9.787 -0.6015  0.2681 -0.2288
 2305SOL    HW117229   8.524  11.998   9.779 -2.1980  0.4514  1.2044
 2305SOL    HW217230   8.622  12.092   9.846 -1.2639 -0.1012  0.6567
 2306SOL     OW17231   1.806   2.786   0.587  0.0392 -0.4616  0.0098
 2306SOL    HW117232   1.790   2.880   0.590 -1.0245 -0.6009 -0.7805
 2306SOL    HW217233   1.814   2.761   0.679  0.1824  0.3732  0.2348
 2307SOL     OW17234   8.434   2.851   8.639 -0.0679  0.2223 -0.2333
 2307SOL    HW117235   8.461   2.834   8.548 -1.4671 -1.3699 -0.4002
 2307SOL    HW217236   8.478   2.933   8.662 -0.9042  1.5458 -2.8941
 2308SOL     OW17237   9.278   3.482   0.677  0.3924  0.0961 -0.3865
 2308SOL    HW117238   9.327   3.563   0.661  0.6589  0.0745  0.2879
 2308SOL    HW217239   9.247   3.491   0.767 -0.4311 -0.1113 -0.6498
 2309SOL     OW17240   7.194   7.814   2.203 -0.0279 -0.3739  0.5123
 2309SOL    HW117241   7.220   7.899   2.168 -0.5551  0.1778  1.4261
 2309SOL    HW217242   7.121   7.833   2.262  0.4381 -1.3469  1.4349
 2310SOL     OW17243   0.738   0.761   0.270  0.3112 -0.0651 -0.2773
 2310SOL    HW117244   0.797   0.835   0.257 -1.5785  1.6910  0.6619
 2310SOL    HW217245   0.711   0.767   0.362 -0.0437 -1.8399 -0.2187
 2311SOL     OW17246   0.600   4.011   4.264  0.5717  0.0857 -0.0393
 2311SOL    HW117247   0.532   3.943   4.272  1.7764 -0.9124  3.8632
 2311SOL    HW217248   0.558   4.081   4.214 -2.9609 -0.9445  1.1901
 2312SOL     OW17249  11.240   7.483   6.617 -0.0920  0.7207 -0.1714
 2312SOL    HW117250  11.162   7.523   6.578 -1.2989 -2.0354 -0.8434
 2312SOL    HW217251  11.206   7.429   6.688  1.2004 -0.5610 -0.4863
 2313SOL     OW17252   7.804   5.612   6.750  0.2498  0.2764 -0.9779
 2313SOL    HW117253   7.751   5.543   6.790  0.0272  1.0547  0.1207
 2313SOL    HW217254   7.743   5.685   6.737  1.1260  1.4123  0.8664
 2314SOL     OW17255   1.834   6.773  11.139  0.5474 -0.3536 -0.3524
 2314SOL    HW117256   1.896   6.726  11.082  0.1544 -0.9253 -0.3131
 2314SOL    HW217257   1.756   6.718  11.141  1.1280 -1.2050  2.0889
 2315SOL     OW17258   4.337   5.979  10.500  0.1380  0.1209  0.6785
 2315SOL    HW117259   4.376   6.009  10.582 -0.2517  2.9883 -0.0470
 2315SOL    HW217260   4.253   6.025  10.496  0.7457  1.2065 -1.8995
 2316SOL     OW17261   0.296  11.576   8.619  0.6091  0.0048 -0.2611
 2316SOL    HW117262   0.217  11.532   8.585  0.5707 -0.5832  0.5739
 2316SOL    HW217263   0.368  11.519   8.592  0.8332  0.8349 -1.5291
 2317SOL     OW17264   0.381   5.209   5.276 -0.1354  0.3001 -0.4660
 2317SOL    HW117265   0.411   5.296   5.305 -1.6171  0.4562  0.7912
 2317SOL    HW217266   0.455   5.151   5.292  0.9595  1.3471 -1.5263
 2318SOL     OW17267  12.140   4.356  12.985  0.2920  0.0655  0.6220
 2318SOL    HW117268  12.205   4.401  12.931 -0.8829 -1.0038 -1.8128
 2318SOL    HW217269  12.060   4.408  12.975  0.2671  0.3886  2.1790
 2319SOL     OW17270  10.935   3.869   5.056 -0.0016  0.7643 -0.3184
 2319SOL    HW117271  10.891   3.809   4.996 -1.3657  0.8270  0.5658
 2319SOL    HW217272  10.889   3.953   5.043  0.8555  1.2216 -0.4341
 2320SOL     OW17273   1.360   9.404   1.299 -0.6256  0.7129 -0.0629
 2320SOL    HW117274   1.453   9.426   1.303 -0.3329 -0.5455  0.5099
 2320SOL    HW217275   1.348   9.366   1.212 -0.2894 -0.3797  0.3503
 2321SOL     OW17276   0.248  12.631  12.012 -0.1391 -0.0705 -0.4259
 2321SOL    HW117277   0.233  12.552  12.065 -0.5325  0.7091  0.6495
 2321SOL    HW217278   0.163  12.649  11.973 -0.3281  0.4496  0.2170
 2322SOL     OW17279   4.468   0.136   3.092 -0.1949  0.2570  0.1568
 2322SOL    HW117280   4.532   0.109   3.158 -0.4991  0.2693  0.4589
 2322SOL    HW217281   4.386   0.146   3.141 -0.9323 -1.8075 -0.5641
 2323SOL     OW17282   3.620  12.763  11.024  0.2189 -0.2738 -0.1339
 2323SOL    HW117283   3.641  12.674  10.994 -1.4959  0.0421 -2.6132
 2323SOL    HW217284   3.570  12.751  11.104 -0.0181 -1.5583 -0.4580
 2324SOL     OW17285   0.739  11.800  11.187 -0.1650  0.0041 -0.3568
 2324SOL    HW117286   0.800  11.822  11.258  0.2736 -0.9391 -0.4197
 2324SOL    HW217287   0.753  11.867  11.121 -1.1663  1.3869  0.7768
 2325SOL     OW17288   0.463   1.855   9.728  0.2713 -0.0901 -0.6266
 2325SOL    HW117289   0.433   1.765   9.741 -1.8373  0.7767  1.2929
 2325SOL    HW217290   0.546   1.859   9.775 -0.6273 -0.5658  1.1067
 2326SOL     OW17291   1.470   9.441   4.071 -0.2028  0.5591 -0.5473
 2326SOL    HW117292   1.426   9.526   4.067  1.3013  1.3675 -0.6692
 2326SOL    HW217293   1.535   9.445   4.001 -0.6737 -1.0493 -1.1131
 2327SOL     OW17294   5.509  12.975  11.162 -0.2957 -0.3212  0.6593
 2327SOL    HW117295   5.487  13.037  11.092  1.6018 -1.7721 -1.3633
 2327SOL    HW217296   5.430  12.922  11.172 -1.1733  0.9721  0.8533
 2328SOL     OW17297   4.362   7.581   4.656 -0.0471  0.4995  0.3013
 2328SOL    HW117298   4.354   7.633   4.576  1.9136 -1.4091 -1.2883
 2328SOL    HW217299   4.327   7.637   4.725 -1.1997  2.5121 -1.7666
 2329SOL     OW17300   2.835  11.991   9.797  0.2265 -0.1781  0.1749
 2329SOL    HW117301   2.908  12.050   9.780  1.0074 -1.3473 -0.6746
 2329SOL    HW217302   2.833  11.981   9.892  1.4303 -0.4309  0.1861
 2330SOL     OW17303   6.929  12.496   8.454 -0.0836  0.2429  0.1700
 2330SOL    HW117304   7.005  12.462   8.406  0.1198  0.6450  0.2069
 2330SOL    HW217305   6.964  12.518   8.541 -0.2398  0.4508  0.1789
 2331SOL     OW17306   3.790   0.345   5.649 -0.0398 -0.1728 -0.2596
 2331SOL    HW117307   3.783   0.436   5.620 -1.0929  0.2009  1.0570
 2331SOL    HW217308   3.748   0.294   5.580 -0.0845  0.4087 -0.6696
 2332SOL     OW17309   3.800  11.694  11.132 -0.3241  0.4582 -0.3981
 2332SOL    HW117310   3.877  11.689  11.075 -0.7842  1.0428 -1.0939
 2332SOL    HW217311   3.727  11.713  11.072 -1.4018 -2.1841 -0.0702
 2333SOL     OW17312   5.402   1.170  11.850  0.2116  0.1407  0.5205
 2333SOL    HW117313   5.325   1.226  11.837 -0.4401 -0.7379  0.5136
 2333SOL    HW217314   5.446   1.208  11.926  1.5584  2.5877 -1.3358
 2334SOL     OW17315   2.482   2.561  12.008  0.0528  0.6267 -0.5273
 2334SOL    HW117316   2.509   2.622  11.939  2.4641 -1.5722 -1.7136
 2334SOL    HW217317   2.392   2.537  11.985 -0.1558  2.0494 -1.2793
 2335SOL     OW17318   1.284  11.748   2.839  0.7164  0.1850  0.1323
 2335SOL    HW117319   1.368  11.794   2.840  0.1708  1.2111  0.9833
 2335SOL    HW217320   1.235  11.787   2.912 -1.9037  2.2581 -2.5077
 2336SOL     OW17321   8.856  10.648   2.330  0.2757 -0.0134  0.4012
 2336SOL    HW117322   8.854  10.724   2.271  2.2340  0.3451  0.7274
 2336SOL    HW217323   8.771  10.650   2.374  0.1985  1.9252  0.2782
 2337SOL     OW17324  11.233   1.423   4.410 -0.4055 -0.5690 -0.8031
 2337SOL    HW117325  11.165   1.490   4.421 -1.5595 -2.1190  3.3423
 2337SOL    HW217326  11.207   1.375   4.331 -1.4654  1.6816 -1.9197
 2338SOL     OW17327   2.760   1.309   3.810 -0.0303 -0.5414  0.3318
 2338SOL    HW117328   2.717   1.241   3.758 -0.3011  0.0077 -0.1803
 2338SOL    HW217329   2.820   1.262   3.868 -0.6477 -1.2581  0.4059
 2339SOL     OW17330   6.244  10.411  10.976 -0.0109 -0.0431 -0.5302
 2339SOL    HW117331   6.229  10.321  10.946  1.1965  0.2923 -2.2329
 2339SOL    HW217332   6.331  10.434  10.943  0.7333  0.9587  1.9093
 2340SOL     OW17333   2.248   8.953  11.492 -0.0933  0.3608  0.4655
 2340SOL    HW117334   2.297   9.026  11.531 -1.0584  1.0118  0.5064
 2340SOL    HW217335   2.157   8.969  11.518 -0.7214  0.5694 -1.6794
 2341SOL     OW17336   2.516   6.918  12.442  0.5153  0.0659 -0.5999
 2341SOL    HW117337   2.519   6.944  12.350 -3.0842 -0.3978 -0.9773
 2341SOL    HW217338   2.478   6.830  12.442  2.3358 -0.8256  1.2907
 2342SOL     OW17339   3.060  12.518   7.862  0.0338  0.5549  0.2369
 2342SOL    HW117340   3.091  12.605   7.840 -1.3119  1.4255  1.5788
 2342SOL    HW217341   2.964  12.525   7.858 -0.2122 -0.0182  3.1927
 2343SOL     OW17342   3.154   8.064   8.729 -0.3266  0.0173 -0.1982
 2343SOL    HW117343   3.243   8.093   8.708 -0.7891  0.1572 -2.1907
 2343SOL    HW217344   3.118   8.134   8.783  0.5751  0.2470  0.1122
 2344SOL     OW17345   5.648  12.699   4.517  0.1665 -0.6025  0.5705
 2344SOL    HW117346   5.615  12.609   4.511  1.6450 -1.1792  0.8439
 2344SOL    HW217347   5.676  12.720   4.427 -1.4897  0.1364  0.1868
 2345SOL     OW17348   0.673  12.641  12.793  0.2954 -0.0348  0.1792
 2345SOL    HW117349   0.708  12.719  12.752  0.5229  0.2280  0.8511
 2345SOL    HW217350   0.580  12.641  12.770  0.4333  0.0681 -0.3776
 2346SOL     OW17351   3.542   7.017  12.382 -0.2029 -0.2370  0.2311
 2346SOL    HW117352   3.558   7.008  12.476 -1.4150  1.7197  0.6685
 2346SOL    HW217353   3.455   6.978  12.369  1.0130 -2.9104 -0.6084
 2347SOL     OW17354  11.714   0.988  10.061 -0.5762  0.1731  0.1184
 2347SOL    HW117355  11.786   0.941  10.103 -0.8220  0.5334  0.9615
 2347SOL    HW217356  11.701   0.942   9.978 -0.0723 -0.5469  0.4251
 2348SOL     OW17357   7.785   2.069   9.426 -0.1757  0.6251  0.1881
 2348SOL    HW117358   7.695   2.100   9.414 -0.2783  0.1982 -0.1724
 2348SOL    HW217359   7.775   1.976   9.447  0.1608  0.6861  0.6288
 2349SOL     OW17360   9.757   9.269   1.010 -0.0014  0.3814 -0.1469
 2349SOL    HW117361   9.805   9.340   1.052 -0.2889  0.1648  0.5600
 2349SOL    HW217362   9.797   9.189   1.046 -0.0761  0.1872 -0.4849
 2350SOL     OW17363   2.431   7.588   5.266  0.3905 -0.3800  0.2367
 2350SOL    HW117364   2.419   7.606   5.359 -0.6277  0.7881 -0.0870
 2350SOL    HW217365   2.375   7.512   5.250  1.6798 -1.4992  0.8360
 2351SOL     OW17366   8.784  10.633   8.855  0.0818 -0.0709  0.4281
 2351SOL    HW117367   8.737  10.716   8.860  0.3627  0.2091 -1.1989
 2351SOL    HW217368   8.732  10.572   8.908 -0.8978  0.7689  0.4497
 2352SOL     OW17369   3.415   9.779   9.456 -0.0824  0.3730  0.2188
 2352SOL    HW117370   3.386   9.701   9.410 -2.4776  1.3162 -0.0141
 2352SOL    HW217371   3.384   9.767   9.546  1.3399  0.1942  0.7201
 2353SOL     OW17372   5.119   3.542   4.070 -0.0068  0.2538  0.2413
 2353SOL    HW117373   5.062   3.613   4.098  0.2914  0.6851 -0.2209
 2353SOL    HW217374   5.194   3.546   4.129  0.6445  1.1925 -0.5996
 2354SOL     OW17375   7.217   3.266   2.175  0.3604 -0.7416  0.1638
 2354SOL    HW117376   7.171   3.341   2.212 -0.6077 -1.0450 -0.3928
 2354SOL    HW217377   7.204   3.195   2.238 -1.4549 -1.3144 -0.7824
 2355SOL     OW17378   4.501   7.803   6.982 -0.2381  0.5551 -0.0506
 2355SOL    HW117379   4.594   7.781   6.976  0.0237  1.3538  0.8103
 2355SOL    HW217380   4.499   7.882   7.035 -1.2677  1.6517 -1.6526
 2356SOL     OW17381   3.425   5.075  10.154  0.0099 -0.4843  0.2683
 2356SOL    HW117382   3.472   5.139  10.207  0.1503 -1.1343  0.9430
 2356SOL    HW217383   3.482   4.998  10.153  0.8083  0.0345 -2.2179
 2357SOL     OW17384   6.512   1.111   6.780 -0.1640 -0.2779  0.4043
 2357SOL    HW117385   6.580   1.128   6.714 -0.4264 -3.6771 -0.9199
 2357SOL    HW217386   6.435   1.085   6.730 -1.1838 -0.5074  2.0146
 2358SOL     OW17387  11.568   2.205   6.166  0.1465  0.0965 -0.0103
 2358SOL    HW117388  11.507   2.201   6.092  0.1602 -1.4277  0.0342
 2358SOL    HW217389  11.520   2.253   6.234  0.3018  1.9198 -1.1209
 2359SOL     OW17390   9.825   9.941  10.863 -0.3569 -0.7438  0.5560
 2359SOL    HW117391   9.888   9.941  10.935  0.3969 -0.9389 -0.0834
 2359SOL    HW217392   9.878   9.957  10.785 -1.0564 -1.2496 -0.0386
 2360SOL     OW17393   7.086   1.789  11.064  0.0031 -0.3781  0.3121
 2360SOL    HW117394   7.111   1.798  11.156 -0.4829  0.5678  0.3641
 2360SOL    HW217395   7.000   1.830  11.058 -0.7211 -1.8948 -0.2442
 2361SOL     OW17396  11.597  12.869   9.312 -0.2597  0.5442  0.1184
 2361SOL    HW117397  11.602  12.789   9.258  0.6297  0.1744  0.7261
 2361SOL    HW217398  11.565  12.838   9.396  1.9767  0.4502  1.0063
 2362SOL     OW17399   1.783   4.555   3.345 -0.7803 -0.1247  0.2606
 2362SOL    HW117400   1.794   4.613   3.270  1.0131  1.2020  1.4535
 2362SOL    HW217401   1.771   4.468   3.307  2.2260  0.1334 -1.6276
 2363SOL     OW17402   4.978   3.944   7.792  0.5531  0.8811  0.2065
 2363SOL    HW117403   4.998   3.972   7.703  1.9746 -0.3193  0.1195
 2363SOL    HW217404   5.013   3.855   7.799 -1.3838  0.1234  1.3225
 2364SOL     OW17405  12.301  10.916   0.960  0.2073  0.3291 -0.2882
 2364SOL    HW117406  12.297  10.968   1.040  0.3457  1.0395 -0.7403
 2364SOL    HW217407  12.395  10.908   0.942  0.3611 -2.0828  1.0545
 2365SOL     OW17408   5.774   9.263   0.305 -0.7197  0.3596  0.0523
 2365SOL    HW117409   5.696   9.247   0.252 -1.1915 -0.4134  0.9424
 2365SOL    HW217410   5.743   9.258   0.395 -0.2443  3.1834  0.4740
 2366SOL     OW17411  10.132   0.127   3.452  0.6557  0.1025 -0.1492
 2366SOL    HW117412  10.170   0.186   3.388  0.0456 -1.0058 -1.5915
 2366SOL    HW217413  10.116   0.046   3.404  1.1947 -1.1609  1.6895
 2367SOL     OW17414   6.754   0.166   6.330 -0.6028  0.2304  0.7837
 2367SOL    HW117415   6.750   0.258   6.357 -0.4177  0.1154  1.2095
 2367SOL    HW217416   6.711   0.165   6.245  1.2440  1.0687 -0.2280
 2368SOL     OW17417   1.047   2.059  12.060 -0.1711  0.2914  0.0075
 2368SOL    HW117418   1.103   2.020  11.994 -0.9387 -1.0661  0.1324
 2368SOL    HW217419   1.102   2.066  12.138 -0.0043 -0.4811 -0.0401
 2369SOL     OW17420   1.569   0.573  12.425  0.1535  0.4191  0.5734
 2369SOL    HW117421   1.594   0.519  12.500 -0.3575 -0.2728  0.2514
 2369SOL    HW217422   1.566   0.662  12.461  0.8415  0.2239  1.1476
 2370SOL     OW17423   5.264   9.364   6.756  0.3313 -0.1054 -0.3327
 2370SOL    HW117424   5.317   9.434   6.795  2.6966 -0.7311 -2.1865
 2370SOL    HW217425   5.192   9.410   6.713  1.2938  1.1441 -0.6792
 2371SOL     OW17426   0.897   3.099  10.216 -0.2343  0.5865 -0.6339
 2371SOL    HW117427   0.850   3.178  10.190 -0.3259  0.1854 -1.7419
 2371SOL    HW217428   0.889   3.097  10.311 -2.5005  0.5382 -0.7653
 2372SOL     OW17429   4.802   8.675  12.250 -0.2574  0.2393  0.1751
 2372SOL    HW117430   4.770   8.681  12.160  0.7429 -0.0404 -0.2144
 2372SOL    HW217431   4.726   8.697  12.304 -1.0952 -0.4169 -0.7011
 2373SOL     OW17432   8.041   0.355  10.492 -0.5106 -0.0320  0.0846
 2373SOL    HW117433   8.101   0.328  10.423 -3.2164 -3.8844 -1.1288
 2373SOL    HW217434   8.073   0.310  10.570 -0.4021 -0.0333  0.0396
 2374SOL     OW17435   4.169   4.753   2.609 -0.2025  0.3811  0.1949
 2374SOL    HW117436   4.194   4.705   2.529  0.1162  0.4858  0.2277
 2374SOL    HW217437   4.248   4.750   2.663 -0.5201  0.0219  0.6487
 2375SOL     OW17438   9.807   8.671   0.250 -0.1854 -0.2270  0.0559
 2375SOL    HW117439   9.813   8.753   0.201  0.0577  0.1035  0.6232
 2375SOL    HW217440   9.746   8.691   0.322 -0.2346 -0.5849  0.1151
 2376SOL     OW17441   0.267   1.581   8.827 -0.2695 -0.0528 -0.0634
 2376SOL    HW117442   0.343   1.636   8.844 -0.1587  0.6463 -2.4757
 2376SOL    HW217443   0.303   1.500   8.790 -0.6364 -0.2521  0.0032
 2377SOL     OW17444   5.744   3.134   0.082 -0.0365  0.2878  0.2155
 2377SOL    HW117445   5.763   3.156   0.174 -0.1190 -0.8671  0.5168
 2377SOL    HW217446   5.750   3.218   0.037  1.3594  0.6742  1.0374
 2378SOL     OW17447  10.416   9.930   3.131 -0.3577  0.8201  0.0016
 2378SOL    HW117448  10.488   9.992   3.125  1.1692 -0.9153 -0.4919
 2378SOL    HW217449  10.358   9.967   3.198  1.4597  1.8157  1.0876
 2379SOL     OW17450   3.786  11.495  10.798 -0.6940  0.2677 -0.2308
 2379SOL    HW117451   3.860  11.435  10.792 -0.2139  0.9615 -1.5525
 2379SOL    HW217452   3.722  11.449  10.852  0.4899 -0.5473  0.5167
 2380SOL     OW17453   1.624   2.209   7.221  0.3008  0.2942 -0.0768
 2380SOL    HW117454   1.600   2.256   7.301  1.3943  1.1633 -0.2409
 2380SOL    HW217455   1.565   2.133   7.220  0.2382  0.2826  1.5263
 2381SOL     OW17456   6.107   4.549   7.458  0.9087  0.4239  0.0407
 2381SOL    HW117457   6.106   4.554   7.362  0.4215  0.9125  0.0681
 2381SOL    HW217458   6.189   4.590   7.483  1.6405 -0.8304 -0.2217
 2382SOL     OW17459   3.756   4.703   9.843 -0.0876 -0.0782  0.0009
 2382SOL    HW117460   3.690   4.733   9.780  1.7564  2.9200 -0.7014
 2382SOL    HW217461   3.810   4.641   9.794 -1.6264 -1.7457  0.2777
 2383SOL     OW17462   1.589   9.112   6.974  0.1514 -0.2140 -0.4037
 2383SOL    HW117463   1.649   9.157   7.033  0.5928 -0.2515 -0.8218
 2383SOL    HW217464   1.642   9.043   6.934 -0.4733 -1.0115  0.1116
 2384SOL     OW17465   1.235   6.090   0.215 -0.4543 -0.0784  0.3724
 2384SOL    HW117466   1.284   6.039   0.150 -1.4384 -1.3563  0.6198
 2384SOL    HW217467   1.240   6.180   0.182  0.8624 -0.3863 -0.3441
 2385SOL     OW17468   9.003   0.704   1.532 -0.2242 -0.1322  0.4423
 2385SOL    HW117469   9.007   0.800   1.535 -0.0350 -0.1306  0.1434
 2385SOL    HW217470   9.050   0.681   1.453 -0.4015 -0.4685  0.4362
 2386SOL     OW17471   4.976   8.176   4.203  0.1700  0.1824 -0.1748
 2386SOL    HW117472   5.033   8.152   4.276 -3.1820  0.2253  2.7301
 2386SOL    HW217473   4.996   8.111   4.135  3.5860  0.2689  0.5938
 2387SOL     OW17474   3.877   2.919   5.531  1.0809 -0.2023  0.2750
 2387SOL    HW117475   3.934   2.968   5.591  2.1979 -0.4587 -0.5437
 2387SOL    HW217476   3.911   2.829   5.535  1.8265 -0.0380 -1.4730
 2388SOL     OW17477   9.342  12.458  12.327 -0.1182 -0.4145 -0.0392
 2388SOL    HW117478   9.345  12.427  12.237 -0.2426  0.6919 -0.4374
 2388SOL    HW217479   9.404  12.402  12.374 -0.2564 -1.1804 -0.7459
 2389SOL     OW17480   5.365  11.443   4.886 -0.2930  0.3408 -0.3460
 2389SOL    HW117481   5.357  11.414   4.977 -0.1606  2.1570  0.2960
 2389SOL    HW217482   5.360  11.363   4.834  0.9424 -0.9008  1.3322
 2390SOL     OW17483  10.706   7.754   5.432 -0.1595 -0.4920  0.2994
 2390SOL    HW117484  10.690   7.772   5.525 -0.3681  1.6516 -0.1005
 2390SOL    HW217485  10.619   7.757   5.392  0.0256 -0.4420 -0.1053
 2391SOL     OW17486   9.682  12.695   8.263  0.4041  0.1557  0.6470
 2391SOL    HW117487   9.669  12.779   8.309 -0.2291 -0.0981  0.9436
 2391SOL    HW217488   9.743  12.716   8.192 -0.2245  0.9991  0.3414
 2392SOL     OW17489   2.476   5.037   9.270 -0.1951 -0.2738  0.0494
 2392SOL    HW117490   2.526   5.046   9.350  0.4953 -3.4037  0.0877
 2392SOL    HW217491   2.393   4.998   9.297 -0.9281  0.8442 -0.5144
 2393SOL     OW17492   2.587   2.294  12.007  0.3411 -0.4274  0.1839
 2393SOL    HW117493   2.544   2.379  12.002  0.1599 -0.4338  1.4940
 2393SOL    HW217494   2.555   2.247  11.930  0.4868  0.6928 -0.5859
 2394SOL     OW17495  12.910  10.397   3.829  0.1908 -0.0210 -0.0152
 2394SOL    HW117496  12.832  10.450   3.847 -0.4853  0.2397 -3.1848
 2394SOL    HW217497  12.940  10.369   3.916 -2.0260  1.8271  1.4745
 2395SOL     OW17498   2.923   5.098  12.146  0.6655  0.0986 -0.2801
 2395SOL    HW117499   2.911   5.192  12.133 -0.6878 -0.0495 -0.3195
 2395SOL    HW217500   3.013   5.089  12.177  0.0364  1.6931  2.3902
 2396SOL     OW17501   6.831   2.599  10.489  0.6117 -0.2979 -0.1701
 2396SOL    HW117502   6.749   2.624  10.530 -0.0317 -1.7405 -0.5106
 2396SOL    HW217503   6.822   2.626  10.397  0.9524  0.4829  0.0198
 2397SOL     OW17504   5.204  12.937  11.732 -0.0469 -0.1827  0.2680
 2397SOL    HW117505   5.178  12.995  11.660  1.0792 -0.2481 -0.2205
 2397SOL    HW217506   5.140  12.866  11.730 -0.0744 -0.1449 -0.6301
 2398SOL     OW17507   6.886  11.770  10.392 -0.2357  0.0510  0.1720
 2398SOL    HW117508   6.938  11.726  10.325 -0.4987  1.2129 -0.8381
 2398SOL    HW217509   6.853  11.700  10.447  2.4952 -0.7003  0.9448
 2399SOL     OW17510  10.986   2.121   8.672  0.4929  0.1954  0.1238
 2399SOL    HW117511  11.073   2.098   8.639  0.1896 -1.5007  0.4155
 2399SOL    HW217512  10.945   2.037   8.693  0.0201  1.0314  3.1398
 2400SOL     OW17513  12.641   4.393  11.900 -0.0716  0.1353  0.6708
 2400SOL    HW117514  12.633   4.298  11.888  3.1082 -0.1795  0.1399
 2400SOL    HW217515  12.731   4.405  11.932 -0.0271  3.0373 -0.2997
 2401SOL     OW17516   4.799  11.016   7.585  0.5191  0.6106  0.0231
 2401SOL    HW117517   4.811  11.019   7.679 -0.7380 -3.1054  0.4613
 2401SOL    HW217518   4.883  11.043   7.548  2.5895 -2.1889  2.3250
 2402SOL     OW17519   5.287   0.015   4.093  0.3439  0.4610 -0.3334
 2402SOL    HW117520   5.238   0.093   4.067 -2.1766 -0.2341  1.9046
 2402SOL    HW217521   5.271  -0.047   4.021 -1.2575  0.6232 -0.1676
 2403SOL     OW17522   5.439   1.494  12.400 -0.1320  0.2202  0.2815
 2403SOL    HW117523   5.343   1.495  12.393 -0.0371  0.1404 -1.4092
 2403SOL    HW217524   5.459   1.565  12.460 -1.3406 -1.1069  2.3988
 2404SOL     OW17525  11.004   9.948   2.506  0.5355  0.2364 -0.2845
 2404SOL    HW117526  10.990   9.938   2.600  0.6003  0.6425 -0.2285
 2404SOL    HW217527  11.034   9.862   2.477 -0.6424 -0.2281 -0.1535
 2405SOL     OW17528  11.135   6.040   0.979 -0.5029  0.2663  0.4061
 2405SOL    HW117529  11.076   6.062   0.907 -0.0485 -1.4877 -0.5424
 2405SOL    HW217530  11.158   5.948   0.965  2.4971  0.8630  0.7129
 2406SOL     OW17531   2.668   0.089  10.081 -0.2243  0.1105 -0.0757
 2406SOL    HW117532   2.697   0.121   9.996  1.6530 -1.5382 -0.1368
 2406SOL    HW217533   2.598   0.026  10.061 -0.7558  0.7578 -0.2756
 2407SOL     OW17534   8.973   6.347   8.911  0.3614 -0.3586  0.2785
 2407SOL    HW117535   8.982   6.387   8.997  0.4291 -0.0486  0.1268
 2407SOL    HW217536   8.888   6.377   8.879 -0.4558 -1.8303  0.9422
 2408SOL     OW17537   5.327   5.459   3.637 -0.2620  0.3815  0.1123
 2408SOL    HW117538   5.388   5.511   3.585 -0.7465  1.3900  0.5160
 2408SOL    HW217539   5.270   5.417   3.572  1.0019 -0.7856 -0.2774
 2409SOL     OW17540   8.471  10.262  10.948  0.2766  0.0018  0.6055
 2409SOL    HW117541   8.492  10.340  10.897  1.4529 -0.2579  0.6641
 2409SOL    HW217542   8.415  10.210  10.890  0.7667  0.1786 -0.0362
 2410SOL     OW17543   6.473   6.248   9.066 -0.1769  0.2815  0.9839
 2410SOL    HW117544   6.524   6.298   9.129  0.2300 -0.9009  1.6239
 2410SOL    HW217545   6.383   6.277   9.079  0.0680  0.9254  1.2593
 2411SOL     OW17546  11.844   9.023   1.279  0.5594 -0.3306 -0.0066
 2411SOL    HW117547  11.860   9.117   1.274 -0.9483 -0.0957 -0.7586
 2411SOL    HW217548  11.885   8.988   1.199 -0.3596 -0.0695 -0.6081
 2412SOL     OW17549   8.288   2.301   2.798 -0.2905  0.0544  0.2320
 2412SOL    HW117550   8.291   2.397   2.803 -0.1175 -0.0200  2.0919
 2412SOL    HW217551   8.351   2.279   2.730 -0.3202  1.2562 -0.2136
 2413SOL     OW17552   6.450  10.413   5.130 -0.4979  0.4757  0.1949
 2413SOL    HW117553   6.533  10.460   5.126 -0.7579  0.8827 -0.5330
 2413SOL    HW217554   6.419  10.427   5.220 -0.4159  1.4406  0.0858
 2414SOL     OW17555   7.948   2.537   3.407  0.3090 -0.0904 -0.3398
 2414SOL    HW117556   7.933   2.515   3.499  0.8100  1.5810  0.1802
 2414SOL    HW217557   8.038   2.507   3.390 -0.3023 -1.7780 -0.7617
 2415SOL     OW17558   5.483   3.442   3.189  0.4775 -0.3654 -0.1626
 2415SOL    HW117559   5.524   3.527   3.206 -1.0405  0.3999 -0.1671
 2415SOL    HW217560   5.421   3.430   3.260  0.3693 -1.2758 -0.3997
 2416SOL     OW17561   0.957   9.937   8.664  0.4066  0.2826  0.0863
 2416SOL    HW117562   1.036   9.987   8.685 -0.2122  1.9731 -1.3415
 2416SOL    HW217563   0.986   9.875   8.596  0.8643 -0.3264  0.8234
 2417SOL     OW17564   3.550  12.709   3.252 -0.5518 -0.0225 -0.1220
 2417SOL    HW117565   3.495  12.720   3.329  1.7670  1.5563  1.4122
 2417SOL    HW217566   3.570  12.799   3.223 -0.2408 -0.5689 -1.7462
 2418SOL     OW17567  10.893  10.739   9.718 -0.7403 -0.6419  0.1327
 2418SOL    HW117568  10.900  10.833   9.705  0.7609 -0.7285  0.0924
 2418SOL    HW217569  10.869  10.729   9.810  0.4565 -0.2163  0.5153
 2419SOL     OW17570   2.520  12.710   8.360  0.0538  0.2283  0.2507
 2419SOL    HW117571   2.469  12.785   8.389 -0.2201  0.1068  0.0880
 2419SOL    HW217572   2.549  12.668   8.441  0.4175  0.6516  0.3382
 2420SOL     OW17573   4.671   2.138   3.784  0.3541  0.3639  1.1425
 2420SOL    HW117574   4.638   2.200   3.718  0.3234  1.6039  2.2737
 2420SOL    HW217575   4.601   2.130   3.848  0.3549 -0.8862  1.0100
 2421SOL     OW17576   6.933   1.664   9.271 -0.7064 -0.0756 -0.0928
 2421SOL    HW117577   6.857   1.711   9.236 -0.9327 -0.3834 -0.0266
 2421SOL    HW217578   6.900   1.575   9.286 -1.1276  0.4639  2.5565
 2422SOL     OW17579  10.853   5.790   7.211  0.0410 -0.3226 -0.0570
 2422SOL    HW117580  10.821   5.836   7.133  1.6584  0.5220 -0.2551
 2422SOL    HW217581  10.786   5.807   7.277 -0.0125  1.2942 -0.4864
 2423SOL     OW17582   2.228   4.055   6.145 -0.2070  0.1273  0.1898
 2423SOL    HW117583   2.283   4.069   6.222  0.5348  0.5851 -0.4155
 2423SOL    HW217584   2.284   4.009   6.083 -0.9353 -0.6274  0.0765
 2424SOL     OW17585   5.209  12.972   8.926  0.0170  0.1943  0.1189
 2424SOL    HW117586   5.130  12.919   8.939  0.0034  0.5808  1.7731
 2424SOL    HW217587   5.183  13.041   8.866 -0.5031 -0.4952 -0.4681
 2425SOL     OW17588   0.809  11.909  12.541  0.0441 -0.7346  0.3191
 2425SOL    HW117589   0.895  11.877  12.568  0.8695  3.0154  2.9264
 2425SOL    HW217590   0.818  11.925  12.447  1.8530 -1.3851  0.3442
 2426SOL     OW17591   2.271   6.075   5.528  0.0520  0.3531  0.6162
 2426SOL    HW117592   2.238   5.997   5.573  2.1293 -1.6720 -1.0579
 2426SOL    HW217593   2.219   6.081   5.448  0.3045  0.2687  0.4421
 2427SOL     OW17594   7.992   8.303  11.433 -0.6534  0.1106  0.4613
 2427SOL    HW117595   8.040   8.334  11.356 -1.0981  1.8076  0.8156
 2427SOL    HW217596   7.981   8.209  11.418  2.1366 -0.2456  0.0442
 2428SOL     OW17597   8.490   3.935   5.600 -0.0379 -0.6033  0.7678
 2428SOL    HW117598   8.538   4.015   5.621 -0.0166  0.4267 -2.5838
 2428SOL    HW217599   8.557   3.869   5.587  0.4500  0.2675 -1.6677
 2429SOL     OW17600  12.642  11.095   4.404  1.0658  0.4238 -0.5209
 2429SOL    HW117601  12.616  11.186   4.422  1.7632  1.0757 -2.4615
 2429SOL    HW217602  12.694  11.070   4.480 -0.4104  1.0983  0.7559
 2430SOL     OW17603   8.329   2.683   9.696  0.1574  0.1277 -0.3458
 2430SOL    HW117604   8.295   2.597   9.717  0.1946 -0.0401 -0.9566
 2430SOL    HW217605   8.270   2.717   9.629  0.1240  0.5933 -0.0897
 2431SOL     OW17606  11.883   5.254   1.916  0.0211  0.1363 -0.1568
 2431SOL    HW117607  11.795   5.243   1.879  1.1452 -0.0146 -3.0493
 2431SOL    HW217608  11.874   5.227   2.007 -2.8402 -0.1841 -0.4331
 2432SOL     OW17609   9.038   8.665   1.625 -0.3982  0.5014 -0.7585
 2432SOL    HW117610   9.120   8.647   1.579 -0.3708  0.7479 -0.8037
 2432SOL    HW217611   9.064   8.714   1.703 -0.2127 -1.6108  0.6033
 2433SOL     OW17612   5.325   3.658   3.620  0.4255 -0.2049 -0.6033
 2433SOL    HW117613   5.235   3.683   3.641 -0.2615 -0.1114 -3.2602
 2433SOL    HW217614   5.376   3.685   3.696 -1.8263 -0.7132  1.2040
 2434SOL     OW17615   2.161   9.962   3.428 -0.0323 -0.4807  0.0337
 2434SOL    HW117616   2.093  10.016   3.390  1.8975  2.1757  0.1118
 2434SOL    HW217617   2.218   9.938   3.355  0.2598 -0.6709  0.3137
 2435SOL     OW17618   1.326   8.096   7.234  0.2489  0.5835 -0.2149
 2435SOL    HW117619   1.321   8.118   7.141 -0.7446  2.3351  0.2079
 2435SOL    HW217620   1.419   8.079   7.250  0.5494  1.0629 -1.3530
 2436SOL     OW17621   6.145   1.698  11.369 -0.2816 -0.1516 -0.2452
 2436SOL    HW117622   6.175   1.788  11.364  0.0201 -0.2392 -0.0941
 2436SOL    HW217623   6.052   1.704  11.388 -0.1620  0.1304  0.2707
 2437SOL     OW17624  12.332   7.206   3.809  0.5132  0.2034  0.2905
 2437SOL    HW117625  12.298   7.296   3.812  0.9679  0.3604  0.7467
 2437SOL    HW217626  12.414   7.213   3.760  0.0552 -0.1299 -0.5498
 2438SOL     OW17627   3.673   4.352   7.513  0.0121  0.4463 -0.0609
 2438SOL    HW117628   3.685   4.381   7.423 -1.4892 -2.9971 -1.5476
 2438SOL    HW217629   3.719   4.268   7.518  0.7358  0.8827  2.6931
 2439SOL     OW17630  12.252   0.463   1.998  0.2880  0.1261  0.1860
 2439SOL    HW117631  12.226   0.555   2.002  0.9687  0.3468 -0.2481
 2439SOL    HW217632  12.341   0.465   1.962  0.0195 -0.7497 -0.5634
 2440SOL     OW17633   2.125   1.941   5.023  0.0844  0.4829 -0.2052
 2440SOL    HW117634   2.030   1.955   5.025  0.2542  2.0527 -1.2647
 2440SOL    HW217635   2.135   1.846   5.032 -1.5362  0.3416  0.6605
 2441SOL     OW17636   6.549   0.618   2.895  0.2130  0.0737 -0.1180
 2441SOL    HW117637   6.477   0.638   2.955  0.1502 -2.1905  0.6573
 2441SOL    HW217638   6.613   0.572   2.948  1.4110  0.4164 -1.2135
 2442SOL     OW17639   4.785  10.932   0.425  0.2965  0.1831 -0.9999
 2442SOL    HW117640   4.720  10.878   0.471 -0.8161  0.4132 -2.2669
 2442SOL    HW217641   4.734  10.999   0.381  1.5577  1.4928 -0.5506
 2443SOL     OW17642   8.971   7.016   4.645 -0.0231  0.0015 -0.2487
 2443SOL    HW117643   9.033   6.972   4.587  0.6817 -0.5110  0.8395
 2443SOL    HW217644   9.027   7.067   4.704 -0.4263 -1.9256  1.9675
 2444SOL     OW17645   4.348  12.201   4.787 -0.3468 -0.1522  0.7954
 2444SOL    HW117646   4.296  12.150   4.849  0.4464  0.4846  2.0397
 2444SOL    HW217647   4.422  12.233   4.839 -0.3960  1.5774 -0.1411
 2445SOL     OW17648  12.922   4.811  11.087  0.0743 -0.6885  0.7762
 2445SOL    HW117649  12.958   4.737  11.038 -0.5557 -0.3752 -0.1800
 2445SOL    HW217650  12.831   4.787  11.102 -0.4020  0.2941 -0.3925
 2446SOL     OW17651   4.593  11.288   9.745 -0.1315 -0.1847 -0.6256
 2446SOL    HW117652   4.619  11.311   9.656  1.0341 -0.7450 -0.4394
 2446SOL    HW217653   4.556  11.200   9.737  0.0013 -0.2469 -0.5487
 2447SOL     OW17654   9.270   9.730   9.191 -0.0610 -0.0590 -0.7980
 2447SOL    HW117655   9.276   9.656   9.252 -2.2528 -0.3825 -0.9019
 2447SOL    HW217656   9.309   9.696   9.110  2.1329  0.1136  0.0938
 2448SOL     OW17657  10.820   2.747   6.397 -0.1069  0.2124  0.0841
 2448SOL    HW117658  10.778   2.783   6.319 -0.8931 -0.2998  0.2587
 2448SOL    HW217659  10.872   2.673   6.364  0.7909  0.9248 -0.1494
 2449SOL     OW17660   9.375  11.812   0.115  0.0251  0.0862  0.1848
 2449SOL    HW117661   9.317  11.855   0.178 -1.3316 -0.4091 -0.6848
 2449SOL    HW217662   9.317  11.763   0.058  1.3771 -1.2811 -0.1008
 2450SOL     OW17663   2.528   4.251   8.105 -0.1052 -0.0376 -0.3198
 2450SOL    HW117664   2.614   4.232   8.142 -0.3462  0.2191  0.3962
 2450SOL    HW217665   2.472   4.180   8.136 -0.7753  1.2156  1.5234
 2451SOL     OW17666   1.361  10.243   8.763  0.6777  0.0337 -0.1554
 2451SOL    HW117667   1.445  10.280   8.789 -0.1806  0.8482  1.6978
 2451SOL    HW217668   1.296  10.293   8.813 -0.7028 -2.4112  0.6836
 2452SOL     OW17669   1.928   3.488   0.370  0.0676  0.8108 -0.4308
 2452SOL    HW117670   2.017   3.455   0.368 -0.1080  0.3648 -1.7848
 2452SOL    HW217671   1.927   3.550   0.443  0.6558 -1.3911  1.5704
 2453SOL     OW17672   7.240   6.210   3.473 -0.1509 -0.4231 -0.1484
 2453SOL    HW117673   7.225   6.301   3.446  0.0934 -0.5503 -0.7430
 2453SOL    HW217674   7.336   6.203   3.479 -0.1213 -0.8934 -1.0376
 2454SOL     OW17675  12.263   3.146   6.191  0.3195 -0.4552  0.6531
 2454SOL    HW117676  12.168   3.133   6.193  0.3776 -0.9382  0.4095
 2454SOL    HW217677  12.298   3.063   6.158  0.8304 -0.2972  0.7886
 2455SOL     OW17678   0.624   2.471   0.769  0.4643 -0.0174 -0.5851
 2455SOL    HW117679   0.714   2.486   0.798 -0.0696  0.8678  0.7255
 2455SOL    HW217680   0.613   2.529   0.694  1.3850 -1.1594 -1.6524
 2456SOL     OW17681   0.134  12.205   6.184 -0.1120 -0.1754  0.2076
 2456SOL    HW117682   0.212  12.171   6.139  0.9306 -1.5618  2.8114
 2456SOL    HW217683   0.131  12.155   6.266 -3.8266 -0.2261  0.2041
 2457SOL     OW17684   5.497  11.842   6.549 -0.2848  0.4396 -0.3466
 2457SOL    HW117685   5.485  11.770   6.487 -0.8086  1.5079 -1.5313
 2457SOL    HW217686   5.418  11.839   6.604 -0.4611  0.3080 -0.6024
 2458SOL     OW17687   6.820   1.384   9.368  0.4746 -0.0151  0.2207
 2458SOL    HW117688   6.819   1.365   9.274  0.6062  0.4533  0.1218
 2458SOL    HW217689   6.728   1.390   9.392  0.4280  1.0984 -0.1446
 2459SOL     OW17690   7.188   9.924   7.981 -0.1798  0.3535 -0.5906
 2459SOL    HW117691   7.179   9.841   8.028 -0.3555 -0.1543 -1.5184
 2459SOL    HW217692   7.244   9.904   7.906  1.9099  1.6228  0.5093
 2460SOL     OW17693   9.450  11.192   2.464 -0.1427 -0.7204 -0.4017
 2460SOL    HW117694   9.361  11.224   2.482  0.2296 -0.8146  1.8728
 2460SOL    HW217695   9.437  11.115   2.409 -1.4377 -0.4808 -0.4713
 2461SOL     OW17696   4.453  10.213   1.919 -0.3239 -0.4930 -0.4036
 2461SOL    HW117697   4.380  10.195   1.860 -1.1549  1.4980 -0.0616
 2461SOL    HW217698   4.413  10.254   1.996  1.0720  0.0388  0.0717
 2462SOL     OW17699  12.547   3.109   2.914  0.8788 -0.4045  0.6111
 2462SOL    HW117700  12.529   3.144   2.827  0.3094 -0.6464  0.6293
 2462SOL    HW217701  12.620   3.162   2.946 -0.5458  1.4245  1.0079
 2463SOL     OW17702   0.494   0.680   1.283 -0.1733 -0.7057 -0.1631
 2463SOL    HW117703   0.578   0.705   1.322 -0.1936 -0.7102 -0.1154
 2463SOL    HW217704   0.459   0.761   1.245 -0.6274 -0.4706  0.7226
 2464SOL     OW17705   2.546   7.804   2.034 -0.1307 -0.7721  0.4205
 2464SOL    HW117706   2.522   7.856   1.958  0.7792 -1.6393 -0.4895
 2464SOL    HW217707   2.626   7.846   2.067  0.0615 -1.0088  0.2621
 2465SOL     OW17708   8.692   1.236   9.945 -0.6125 -0.4728 -0.2143
 2465SOL    HW117709   8.776   1.281   9.942 -0.8744  0.1793  1.1766
 2465SOL    HW217710   8.713   1.144   9.927  0.6819 -0.6420  1.7903
 2466SOL     OW17711  10.353  10.717   9.317 -0.3723  0.4900  0.3509
 2466SOL    HW117712  10.357  10.650   9.250  0.1406  1.7059 -0.8777
 2466SOL    HW217713  10.429  10.701   9.372  0.1262  0.4725 -0.3364
 2467SOL     OW17714   3.999   6.307   5.517 -0.0888 -0.6626  0.2140
 2467SOL    HW117715   3.960   6.307   5.605  0.4008 -1.6122  0.4524
 2467SOL    HW217716   3.989   6.396   5.486 -1.8298 -0.7077  0.5428
 2468SOL     OW17717   1.275   8.651   6.877 -0.5974  0.5341 -0.1827
 2468SOL    HW117718   1.186   8.615   6.881 -0.5928  0.1244 -2.6397
 2468SOL    HW217719   1.271   8.719   6.811  0.4752  2.0339  1.2208
 2469SOL     OW17720   9.680  11.109   9.788  0.2171 -0.1663 -0.3978
 2469SOL    HW117721   9.710  11.145   9.872 -0.5028 -0.2797 -0.0760
 2469SOL    HW217722   9.753  11.057   9.756  1.8843  2.6962 -1.6003
 2470SOL     OW17723   0.852   1.704   1.230 -0.2074 -0.7468 -0.3257
 2470SOL    HW117724   0.880   1.762   1.159  0.7432 -1.6975 -0.7547
 2470SOL    HW217725   0.758   1.692   1.216 -0.0109 -1.0453 -1.5244
 2471SOL     OW17726   3.154   2.463   6.357  0.1531 -0.0409  0.1850
 2471SOL    HW117727   3.115   2.397   6.301  0.4933 -0.2588  0.2007
 2471SOL    HW217728   3.169   2.418   6.440  1.7136 -0.3702 -0.2442
 2472SOL     OW17729   1.235   2.768   4.590  0.0553 -0.2534  0.1627
 2472SOL    HW117730   1.327   2.769   4.562 -0.1517  0.1993 -0.5062
 2472SOL    HW217731   1.191   2.828   4.531 -0.3352  1.0316  1.7097
 2473SOL     OW17732   8.279  11.337   3.584  0.1232 -0.0061 -0.3987
 2473SOL    HW117733   8.257  11.269   3.520  1.1487 -1.8380  1.0796
 2473SOL    HW217734   8.327  11.290   3.652 -0.2916  1.9962  1.3563
 2474SOL     OW17735  11.026   1.060  10.381  0.0872 -0.0947 -0.3436
 2474SOL    HW117736  10.994   0.975  10.412  0.3526 -0.2742 -0.5543
 2474SOL    HW217737  11.120   1.046  10.367  0.1688  0.2890 -0.1958
 2475SOL     OW17738   1.302   1.968   2.095 -0.5210 -0.2462  0.5007
 2475SOL    HW117739   1.207   1.961   2.084 -0.6577 -0.8972  1.8635
 2475SOL    HW217740   1.336   1.883   2.065 -0.4182 -0.2174  0.5353
 2476SOL     OW17741  10.982  10.534   8.319  0.0867 -0.2987 -0.3392
 2476SOL    HW117742  10.972  10.440   8.334 -0.0166 -0.1237  0.7365
 2476SOL    HW217743  11.076  10.547   8.312  0.2182 -0.2708  1.1115
 2477SOL     OW17744   0.144   1.883   0.185  0.0787 -0.2045  0.7400
 2477SOL    HW117745   0.144   1.858   0.092 -1.9981 -2.1390  1.1647
 2477SOL    HW217746   0.104   1.970   0.187  0.4046 -0.0203 -0.1772
 2478SOL     OW17747  12.083   7.168  10.334  0.1608 -0.1313 -0.2022
 2478SOL    HW117748  12.053   7.101  10.273  0.4879  0.2977 -0.8450
 2478SOL    HW217749  12.168   7.195  10.300  0.5003 -0.1164  0.6299
 2479SOL     OW17750   5.222  12.704   7.699  0.1471  0.1320  0.2539
 2479SOL    HW117751   5.293  12.640   7.695  0.0512 -0.2058  2.4670
 2479SOL    HW217752   5.178  12.685   7.782 -0.9179  1.9925  0.1628
 2480SOL     OW17753   7.919   4.313   3.651 -0.2118  0.1170 -0.0278
 2480SOL    HW117754   7.868   4.267   3.584  0.0588 -0.6981  0.3179
 2480SOL    HW217755   7.923   4.252   3.724  2.5629 -0.5140 -0.5912
 2481SOL     OW17756   8.438   4.479   1.954  0.5748  0.3769  0.4805
 2481SOL    HW117757   8.464   4.423   1.880 -0.3578 -1.2698  1.3332
 2481SOL    HW217758   8.520   4.493   2.003  1.1590  1.3180 -0.7209
 2482SOL     OW17759   0.370   2.640   3.178 -0.4220 -0.5286  0.2760
 2482SOL    HW117760   0.417   2.567   3.140 -0.4961 -1.2599  1.5339
 2482SOL    HW217761   0.278   2.617   3.168 -0.4572 -0.3258  0.1340
 2483SOL     OW17762   6.388   7.425   0.496  0.3696  0.0024 -0.0340
 2483SOL    HW117763   6.323   7.368   0.454 -0.5868  0.7513  0.3878
 2483SOL    HW217764   6.401   7.386   0.583 -0.5358  0.5770  0.3815
 2484SOL     OW17765   6.521   8.836   4.955 -0.3110  0.1515 -1.0262
 2484SOL    HW117766   6.457   8.789   4.902 -1.2795  2.0899 -1.6654
 2484SOL    HW217767   6.605   8.798   4.930 -0.9408 -0.3977 -2.4102
 2485SOL     OW17768   1.814  11.738  12.034 -0.5682 -0.4378  0.3506
 2485SOL    HW117769   1.906  11.713  12.043 -0.3104 -0.0079 -0.9208
 2485SOL    HW217770   1.793  11.720  11.943 -0.8433  2.2947 -0.2276
 2486SOL     OW17771   6.358  12.604   4.144 -0.2855  0.5441  0.7254
 2486SOL    HW117772   6.347  12.658   4.066  0.4370 -1.2250 -0.6834
 2486SOL    HW217773   6.289  12.633   4.204 -1.5447  1.2558 -0.9902
 2487SOL     OW17774   2.698   9.162   5.730  0.1485 -0.2057  0.7091
 2487SOL    HW117775   2.752   9.083   5.727 -0.5273 -0.6569  0.1642
 2487SOL    HW217776   2.624   9.143   5.672 -0.1705  0.7169  0.7990
 2488SOL     OW17777   8.413   3.048   8.347  0.5060  0.4783 -0.4340
 2488SOL    HW117778   8.360   3.070   8.270 -0.1057 -0.4010 -0.2750
 2488SOL    HW217779   8.400   3.122   8.406 -1.0572  0.0246 -0.1493
 2489SOL     OW17780   9.987   3.850   9.140 -0.2613  0.1697 -0.1178
 2489SOL    HW117781  10.033   3.858   9.224  0.8126 -1.3670 -0.5110
 2489SOL    HW217782   9.895   3.865   9.162  0.1329  1.0169  1.1119
 2490SOL     OW17783   8.692   9.354   6.982 -0.3658 -0.0062 -0.3891
 2490SOL    HW117784   8.728   9.265   6.991 -1.0693 -0.4700 -1.8375
 2490SOL    HW217785   8.767   9.406   6.953 -0.4339 -0.6433 -1.8338
 2491SOL     OW17786   5.786   9.758   1.949 -0.1924 -0.1708  0.4623
 2491SOL    HW117787   5.722   9.729   2.014  1.9565 -1.1372  2.3004
 2491SOL    HW217788   5.820   9.677   1.912 -0.3038  0.3429 -0.8054
 2492SOL     OW17789   3.967   6.858   0.201 -0.0376  0.0305  0.2669
 2492SOL    HW117790   3.952   6.780   0.254  0.0652  0.1647  0.4947
 2492SOL    HW217791   3.967   6.930   0.264 -0.8040  0.2919 -0.0222
 2493SOL     OW17792   6.970   9.369   9.748 -0.3244  0.1347  0.5138
 2493SOL    HW117793   7.035   9.347   9.681  0.1903 -0.6925  1.2719
 2493SOL    HW217794   6.913   9.292   9.753 -1.1609  0.7037  0.1228
 2494SOL     OW17795  10.334   7.544  10.188  0.1957  0.3741 -0.1374
 2494SOL    HW117796  10.427   7.521  10.184 -0.1173 -0.8616 -1.1223
 2494SOL    HW217797  10.330   7.634  10.157  0.8743 -0.2881 -2.3944
 2495SOL     OW17798   5.868  11.165  12.140 -0.8087  0.6580  0.7521
 2495SOL    HW117799   5.832  11.165  12.051 -0.9940  0.9567  0.8270
 2495SOL    HW217800   5.941  11.103  12.136  0.7860  2.5152 -0.2481
 2496SOL     OW17801   6.575   3.217   8.361 -0.1455  0.1594 -0.3535
 2496SOL    HW117802   6.530   3.221   8.276  1.2589  0.0114 -1.1478
 2496SOL    HW217803   6.648   3.279   8.352 -2.0207  2.9575  2.0898
 2497SOL     OW17804   6.801   9.444   0.575 -0.6125  0.3593  0.3211
 2497SOL    HW117805   6.710   9.474   0.579  0.1122  2.7124  0.6194
 2497SOL    HW217806   6.837   9.488   0.498  0.3669 -0.3505  0.3527
 2498SOL     OW17807   3.213  12.896   3.158  0.2215  0.2351  0.4907
 2498SOL    HW117808   3.305  12.902   3.133  0.4114  1.4347  1.3806
 2498SOL    HW217809   3.187  12.807   3.134  1.3599  0.1650 -0.5857
 2499SOL     OW17810   9.318   3.141   3.567  0.1570  0.0168  0.0575
 2499SOL    HW117811   9.394   3.119   3.622 -0.6174 -0.2506  1.0531
 2499SOL    HW217812   9.289   3.056   3.533  0.2002  0.1023 -0.1937
 2500SOL     OW17813  10.744   0.852   2.599 -0.5781 -0.2838  0.0376
 2500SOL    HW117814  10.811   0.796   2.637  0.1215  1.8189  2.1764
 2500SOL    HW217815  10.661   0.819   2.635 -0.1182  0.3815  1.7926
 2501SOL     OW17816   6.725   0.601  11.472  0.5577 -0.0516  0.8270
 2501SOL    HW117817   6.698   0.607  11.564  0.6613 -0.0448  0.8577
 2501SOL    HW217818   6.727   0.507  11.454  1.1017 -0.0789  1.0022
 2502SOL     OW17819  11.132   3.598   4.034  0.0883  0.3379 -0.0568
 2502SOL    HW117820  11.085   3.651   4.099 -0.8148 -2.1926  1.4875
 2502SOL    HW217821  11.209   3.650   4.012  0.6981  1.1804  3.4182
 2503SOL     OW17822   8.932  10.249   5.493  0.3848  0.1744 -0.0973
 2503SOL    HW117823   8.953  10.160   5.519  1.5355  0.2469 -0.6966
 2503SOL    HW217824   8.878  10.239   5.415 -0.7531  0.0017  0.6867
 2504SOL     OW17825   5.154   0.263   5.532  0.0302 -0.2136  0.2568
 2504SOL    HW117826   5.121   0.173   5.527 -4.3942  1.2533 -1.6350
 2504SOL    HW217827   5.237   0.261   5.485 -0.2618 -3.1916 -0.3038
 2505SOL     OW17828   1.283   7.279   2.104  0.4344  0.2463  0.9553
 2505SOL    HW117829   1.222   7.221   2.149  1.3295 -0.2751  1.5398
 2505SOL    HW217830   1.367   7.233   2.108  0.8888  0.9832  0.2564
 2506SOL     OW17831  10.753   5.791   6.345  0.1241  0.0478  0.0394
 2506SOL    HW117832  10.832   5.750   6.379 -1.0051 -2.0829  0.3039
 2506SOL    HW217833  10.736   5.746   6.262 -0.9711  0.2095  0.1539
 2507SOL     OW17834   3.831   9.956  11.512 -0.2669 -0.5923 -0.7563
 2507SOL    HW117835   3.863   9.885  11.456  0.9427 -0.1070 -0.7106
 2507SOL    HW217836   3.832  10.033  11.456 -0.7569 -0.4454 -0.5652
 2508SOL     OW17837  10.819  11.575   2.748  0.1889 -0.3391 -0.2151
 2508SOL    HW117838  10.745  11.517   2.733 -0.5257  0.6600 -0.6945
 2508SOL    HW217839  10.883  11.552   2.681 -1.2184  1.2225 -2.2102
 2509SOL     OW17840   7.834   8.764   8.054 -0.1158 -0.3076 -0.2887
 2509SOL    HW117841   7.789   8.740   8.135  1.1093  0.8181  0.7722
 2509SOL    HW217842   7.888   8.688   8.033 -0.3335 -0.5482  0.0119
 2510SOL     OW17843   3.654   3.030   2.451  0.1661 -0.3865 -0.1859
 2510SOL    HW117844   3.669   2.936   2.439 -1.7508 -0.6357 -0.9740
 2510SOL    HW217845   3.684   3.069   2.369  0.0466 -0.4293 -0.2503
 2511SOL     OW17846   3.832  10.683   8.736 -0.0072  0.0608 -0.2034
 2511SOL    HW117847   3.847  10.589   8.729  0.3021  0.0985 -0.0390
 2511SOL    HW217848   3.765  10.692   8.804  2.2521  0.1495  2.1504
 2512SOL     OW17849   6.712   6.087  11.987 -0.3042 -0.0483 -0.0865
 2512SOL    HW117850   6.621   6.116  11.983 -0.5234 -0.4500  1.4573
 2512SOL    HW217851   6.751   6.141  12.055 -0.2247 -1.9705  1.4853
 2513SOL     OW17852   6.886   2.115   2.191  0.2848 -0.4452  0.3226
 2513SOL    HW117853   6.940   2.157   2.258  1.6318 -0.3705 -0.7520
 2513SOL    HW217854   6.949   2.074   2.132 -0.8616 -0.6960 -0.7749
 2514SOL     OW17855   4.367   8.194   3.780 -0.2767 -0.4230 -0.4168
 2514SOL    HW117856   4.420   8.155   3.710  0.4934  0.1502 -0.1674
 2514SOL    HW217857   4.377   8.288   3.766  0.6313 -0.2830  0.9977
 2515SOL     OW17858   4.982   2.623   1.881 -0.5067 -0.4866 -0.3699
 2515SOL    HW117859   5.005   2.672   1.802  1.3571 -0.1087  0.3628
 2515SOL    HW217860   4.973   2.690   1.949  0.6774 -1.0124  0.3304
 2516SOL     OW17861   9.820  11.606   6.008  0.0102  0.1219  0.3564
 2516SOL    HW117862   9.888  11.666   6.037 -1.6826  1.9708  0.6993
 2516SOL    HW217863   9.748  11.662   5.981 -1.9188 -1.7633  1.3177
 2517SOL     OW17864   7.516  11.430   1.983 -0.7623  0.1219  0.0592
 2517SOL    HW117865   7.565  11.360   2.024  1.5545  1.9392  0.6012
 2517SOL    HW217866   7.537  11.424   1.890 -1.5800 -0.6064 -0.0978
 2518SOL     OW17867   4.137  11.057   0.627  0.2491  0.1203 -0.5844
 2518SOL    HW117868   4.172  11.040   0.714 -0.1041 -1.5637 -0.7391
 2518SOL    HW217869   4.134  11.152   0.620 -0.2924  0.2855  1.4614
 2519SOL     OW17870  12.668   5.588   4.395 -0.5231  0.0934  0.7125
 2519SOL    HW117871  12.737   5.527   4.369  0.4775  0.5916  2.0919
 2519SOL    HW217872  12.612   5.595   4.318  1.9427  1.0508 -1.1306
 2520SOL     OW17873  12.217  12.856   5.089 -0.2956 -0.0655 -0.1003
 2520SOL    HW117874  12.210  12.949   5.112 -0.7408 -0.5855  2.1372
 2520SOL    HW217875  12.292  12.825   5.140 -1.8734 -1.5038  1.4938
 2521SOL     OW17876   4.778   2.687   2.744  0.1265 -0.3640 -0.0145
 2521SOL    HW117877   4.868   2.712   2.763 -0.0160  0.2712 -0.1489
 2521SOL    HW217878   4.726   2.732   2.811 -0.1489 -0.1715 -0.3561
 2522SOL     OW17879   1.654   7.738   9.121 -0.0483  0.2693 -0.3757
 2522SOL    HW117880   1.570   7.722   9.165 -1.9304 -0.0627 -3.7580
 2522SOL    HW217881   1.695   7.807   9.174 -1.8122 -0.4254  2.1163
 2523SOL     OW17882   0.616   7.698  11.409 -0.9949  0.3546  0.1019
 2523SOL    HW117883   0.562   7.776  11.400 -1.2195  0.4310  1.7657
 2523SOL    HW217884   0.559   7.633  11.450 -0.3517 -0.1748  0.1892
 2524SOL     OW17885   0.245   4.297   5.095  0.0457  0.3620  0.0941
 2524SOL    HW117886   0.279   4.385   5.110 -0.9668  0.7048  0.4958
 2524SOL    HW217887   0.301   4.239   5.147  1.5517  0.5815 -1.2043
 2525SOL     OW17888   4.740   1.785  12.058 -0.0745  0.1436  1.4086
 2525SOL    HW117889   4.755   1.748  12.145  0.4248  0.8800  1.6419
 2525SOL    HW217890   4.648   1.768  12.040 -0.3148  0.4522  2.3094
 2526SOL     OW17891  10.951   2.340   6.671 -0.0732  0.1455 -0.2048
 2526SOL    HW117892  11.021   2.400   6.644  0.6751 -0.4610  0.3392
 2526SOL    HW217893  10.872   2.375   6.629  0.2914  1.6593  0.2944
 2527SOL     OW17894   7.350   9.081   3.351 -0.6690  0.1217 -0.0639
 2527SOL    HW117895   7.387   9.139   3.417 -0.1469 -1.5754  1.2166
 2527SOL    HW217896   7.259   9.067   3.379  0.1444 -2.3904  1.7482
 2528SOL     OW17897   9.101  11.287  11.234  0.5948  0.3772  0.1100
 2528SOL    HW117898   9.024  11.235  11.255  1.3908 -1.4753 -1.2861
 2528SOL    HW217899   9.111  11.346  11.309 -0.9197 -0.7999  1.3165
 2529SOL     OW17900   1.465   2.991   8.387 -0.4159 -0.4591  0.2180
 2529SOL    HW117901   1.509   3.045   8.453  2.0198 -1.9093 -0.0885
 2529SOL    HW217902   1.373   2.991   8.413 -0.0967  1.7636  1.6173
 2530SOL     OW17903   2.499   1.835   6.650  0.3492  0.1392 -0.3409
 2530SOL    HW117904   2.510   1.928   6.629  2.9795  0.7192  2.8508
 2530SOL    HW217905   2.566   1.791   6.598  1.9900  0.6575  1.2307
 2531SOL     OW17906  11.035   7.983   2.677 -0.4364  0.0020 -0.4551
 2531SOL    HW117907  11.064   8.065   2.717 -0.5798  1.0358 -2.3217
 2531SOL    HW217908  11.021   7.923   2.750 -0.5779  1.7210  0.9787
 2532SOL     OW17909   8.084  11.983   9.889 -0.0850 -0.0111 -0.2266
 2532SOL    HW117910   8.104  11.922   9.959 -0.9700 -0.3417 -0.2419
 2532SOL    HW217911   8.135  11.953   9.815 -0.1919 -0.4808 -0.1118
 2533SOL     OW17912   5.724   9.611  10.734  0.3507  0.5354  0.1310
 2533SOL    HW117913   5.697   9.630  10.824 -2.4517  2.3403 -0.9511
 2533SOL    HW217914   5.652   9.560  10.698  1.5985 -0.4712 -1.0476
 2534SOL     OW17915  10.023   1.633   7.061 -0.3572  0.2405  0.3542
 2534SOL    HW117916   9.967   1.573   7.110 -0.8476  0.6349  0.2830
 2534SOL    HW217917   9.984   1.635   6.974  0.5351 -0.4928 -0.0841
 2535SOL     OW17918   9.670  12.574   9.380  0.0048 -0.0164 -0.1840
 2535SOL    HW117919   9.648  12.564   9.287  1.0142 -0.9875 -0.3404
 2535SOL    HW217920   9.663  12.485   9.416  0.9310  0.1128  0.3503
 2536SOL     OW17921   1.904   9.601   9.206 -0.2095 -0.4367 -0.7147
 2536SOL    HW117922   1.976   9.548   9.171  0.1762 -1.1439  1.0246
 2536SOL    HW217923   1.931   9.691   9.191  0.3821 -0.7096 -1.3315
 2537SOL     OW17924  10.917   3.314  11.708  0.1668  0.1548 -0.0928
 2537SOL    HW117925  10.942   3.405  11.725  2.3057 -0.3084 -0.5225
 2537SOL    HW217926  10.837   3.321  11.655 -1.4323  1.7082  2.2912
 2538SOL     OW17927   3.311   0.121  11.090  0.0828 -0.1843 -0.3303
 2538SOL    HW117928   3.278   0.053  11.031  0.4546 -0.2588 -0.4554
 2538SOL    HW217929   3.392   0.152  11.048  0.7133 -0.7055  0.4664
 2539SOL     OW17930   3.364   0.689   6.488 -0.0554  0.4545  0.2174
 2539SOL    HW117931   3.377   0.616   6.549 -1.8915 -1.3652 -1.4427
 2539SOL    HW217932   3.347   0.764   6.545  0.1601 -0.7434  1.9552
 2540SOL     OW17933   4.683   2.042   1.860 -0.0295 -0.2956 -0.5314
 2540SOL    HW117934   4.621   2.052   1.932 -0.8161  1.2058 -1.3640
 2540SOL    HW217935   4.750   2.108   1.877  0.2106 -0.4778 -0.7596
 2541SOL     OW17936   6.102   3.000  11.419 -0.5705  0.4897  0.7063
 2541SOL    HW117937   6.067   3.018  11.332  2.6257  1.1211 -0.5788
 2541SOL    HW217938   6.069   3.072  11.474 -0.7956  1.3663 -0.5425
 2542SOL     OW17939   0.768   4.321   8.085 -0.3470  0.2171  0.0119
 2542SOL    HW117940   0.687   4.360   8.052 -0.9910 -1.4277 -0.4766
 2542SOL    HW217941   0.738   4.252   8.146  0.7095  0.1575  0.4915
 2543SOL     OW17942   1.981   2.631  11.680 -0.3366 -0.3749  0.0196
 2543SOL    HW117943   2.052   2.665  11.625  0.4821 -0.1922  1.1660
 2543SOL    HW217944   1.963   2.544  11.644 -0.5743  0.1627 -1.2158
 2544SOL     OW17945   5.823  12.849   8.148  0.0090 -0.2277  0.1849
 2544SOL    HW117946   5.846  12.923   8.091  1.2522 -0.2838  0.5988
 2544SOL    HW217947   5.796  12.780   8.087 -1.7949  0.7320 -0.1875
 2545SOL     OW17948   6.867  11.417  11.953 -0.1523  0.0562 -0.2056
 2545SOL    HW117949   6.876  11.492  12.011 -1.6232 -0.8869  1.3085
 2545SOL    HW217950   6.918  11.348  11.994 -2.0286 -0.9226  0.5847
 2546SOL     OW17951   9.256   6.407   5.655 -0.3278  0.2923 -0.2767
 2546SOL    HW117952   9.210   6.389   5.737 -2.6100 -0.6633 -1.6474
 2546SOL    HW217953   9.216   6.487   5.622  0.3122  0.4667 -0.6418
 2547SOL     OW17954  12.387   3.980   8.728 -0.3731 -0.3268 -0.0637
 2547SOL    HW117955  12.459   4.012   8.673  0.1188 -0.4474  0.5042
 2547SOL    HW217956  12.376   4.047   8.795  0.7101 -1.3407  1.1726
 2548SOL     OW17957   5.773  12.928  10.358 -0.2362  0.1181  0.2086
 2548SOL    HW117958   5.804  12.959  10.273 -0.6630  0.8866  0.3269
 2548SOL    HW217959   5.685  12.964  10.367 -1.2471 -2.1046 -0.1527
 2549SOL     OW17960   0.925  11.373   1.684 -0.3122  0.4002 -0.5650
 2549SOL    HW117961   0.860  11.374   1.614  0.0628  0.2432 -0.9163
 2549SOL    HW217962   0.912  11.288   1.727  0.5235 -0.1939 -1.4540
 2550SOL     OW17963   8.914   8.811   0.596  0.3235  0.3334 -0.1444
 2550SOL    HW117964   8.955   8.882   0.645  0.6265  0.9236 -1.2310
 2550SOL    HW217965   8.847   8.855   0.543  0.2021 -0.2582 -0.4854
 2551SOL     OW17966   9.116   3.034   8.701  0.4382  0.0660 -0.2867
 2551SOL    HW117967   9.030   3.054   8.739  0.5581 -2.8682  1.9161
 2551SOL    HW217968   9.098   2.969   8.633  0.9134 -1.3400  0.8764
 2552SOL     OW17969   2.577   4.742   9.160  0.1366 -0.4426  0.6271
 2552SOL    HW117970   2.520   4.733   9.084 -1.5002 -0.8490  1.8466
 2552SOL    HW217971   2.638   4.811   9.135 -0.5989 -0.2869 -0.9057
 2553SOL     OW17972   2.573  12.661   0.065  0.1363 -0.0684 -0.1129
 2553SOL    HW117973   2.496  12.718   0.071  0.5073  0.8394 -2.7257
 2553SOL    HW217974   2.634  12.696   0.130 -1.3221 -0.3467  1.4860
 2554SOL     OW17975   7.383   4.982   5.229  0.5623 -0.5022 -0.1147
 2554SOL    HW117976   7.355   5.050   5.168  0.5960 -0.8672 -0.5386
 2554SOL    HW217977   7.420   5.030   5.303  0.5084 -0.0592 -0.3750
 2555SOL     OW17978   0.737   6.634   4.914 -0.5052  0.0127  0.2297
 2555SOL    HW117979   0.661   6.668   4.961 -0.9018 -0.1319 -0.2996
 2555SOL    HW217980   0.702   6.564   4.859  0.2141 -0.9145  0.9177
 2556SOL     OW17981   2.921  12.063   2.821 -0.1079 -0.1174  0.0551
 2556SOL    HW117982   2.878  11.981   2.797  0.9888 -0.8384  0.4812
 2556SOL    HW217983   2.873  12.094   2.898 -2.1460  0.9908 -1.5652
 2557SOL     OW17984   0.091   8.686   2.369  0.2813  0.2859 -0.0800
 2557SOL    HW117985   0.048   8.602   2.351 -1.0385  1.0392 -0.5989
 2557SOL    HW217986   0.168   8.663   2.421  1.3083 -1.4885 -2.2362
 2558SOL     OW17987   1.979   1.404   9.338  0.1543 -0.0370  0.2641
 2558SOL    HW117988   1.997   1.491   9.303  1.1116 -0.2949  0.0915
 2558SOL    HW217989   1.891   1.384   9.307 -0.3742  1.1533  0.8941
 2559SOL     OW17990   4.343   5.769   0.957 -0.1092  0.0052  0.1098
 2559SOL    HW117991   4.382   5.853   0.983  1.7104 -0.1795 -1.7795
 2559SOL    HW217992   4.400   5.703   0.997  1.7665 -0.2730 -2.7706
 2560SOL     OW17993  11.927   6.376  11.138  0.0949  0.4381  0.1116
 2560SOL    HW117994  11.946   6.353  11.047  1.1306  0.1143  0.4011
 2560SOL    HW217995  11.997   6.335  11.189 -0.2045  1.0159  1.0134
 2561SOL     OW17996   4.985   0.643   3.751  0.2549 -0.0027 -0.1816
 2561SOL    HW117997   5.049   0.699   3.707  0.2768  1.5839  1.7302
 2561SOL    HW217998   4.908   0.646   3.695  0.8871  0.4474 -1.0493
 2562SOL     OW17999   4.189  10.194   3.689  0.1487  0.2929  0.2419
 2562SOL    HW118000   4.137  10.226   3.615  2.3206  1.3490 -0.8948
 2562SOL    HW218001   4.132  10.206   3.765 -1.2443  1.4437 -0.9298
 2563SOL     OW18002   8.495   2.716   4.461  0.3972 -0.1448 -0.1029
 2563SOL    HW118003   8.430   2.755   4.519  0.4110  1.0266 -0.8479
 2563SOL    HW218004   8.575   2.765   4.480  0.1348  1.0484 -1.8933
 2564SOL     OW18005  11.380   3.414   1.579  0.0721  0.5654 -0.1995
 2564SOL    HW118006  11.408   3.488   1.525 -0.9948  1.5899  0.6012
 2564SOL    HW218007  11.407   3.337   1.529  0.2527  1.4803 -1.5790
 2565SOL     OW18008   6.405   6.107   3.071 -0.2114  0.3196 -0.3949
 2565SOL    HW118009   6.474   6.080   3.132 -1.0119 -0.4263  0.2059
 2565SOL    HW218010   6.356   6.174   3.119 -0.3351  0.3370 -0.5445
 2566SOL     OW18011   3.082   2.033   3.741 -0.2191  0.3181 -0.3119
 2566SOL    HW118012   3.143   2.094   3.783  1.2332 -0.7506 -0.8260
 2566SOL    HW218013   3.132   1.993   3.670 -0.9234 -1.9393  0.3862
 2567SOL     OW18014   2.132  10.935   0.531  0.0737 -0.4087 -0.2241
 2567SOL    HW118015   2.219  10.897   0.521  0.0470 -1.0939  1.6649
 2567SOL    HW218016   2.079  10.892   0.464  0.8026 -1.3126 -0.2446
 2568SOL     OW18017   0.309   1.595   9.555  0.2040  0.1949  0.1890
 2568SOL    HW118018   0.235   1.538   9.573  1.3928 -1.2929  0.5822
 2568SOL    HW218019   0.270   1.679   9.529 -1.6074 -0.9066 -0.8381
 2569SOL     OW18020   2.242   5.305   4.221  0.0919 -0.5208 -0.1144
 2569SOL    HW118021   2.285   5.363   4.284 -2.1675  0.2614  0.7980
 2569SOL    HW218022   2.152   5.337   4.216 -1.3782 -4.0266  0.6300
 2570SOL     OW18023   3.572   0.088   1.516 -0.2393 -0.1788  0.6664
 2570SOL    HW118024   3.658   0.064   1.480 -0.1683 -1.8519  1.8551
 2570SOL    HW218025   3.522   0.007   1.517 -2.2698  0.9381 -0.9286
 2571SOL     OW18026   4.407   2.853   2.061  0.3339 -0.4106 -0.1561
 2571SOL    HW118027   4.443   2.826   2.146  1.4897 -2.0505 -1.1203
 2571SOL    HW218028   4.424   2.947   2.057  1.9010 -0.6294  0.6809
 2572SOL     OW18029   5.352   7.385  11.497 -0.1144 -1.3960  0.0196
 2572SOL    HW118030   5.257   7.380  11.508 -0.2640  0.2450 -0.1310
 2572SOL    HW218031   5.385   7.404  11.585 -0.1781  0.2025 -0.2606
 2573SOL     OW18032   3.302   7.680   6.112  0.4081  0.1511 -0.2303
 2573SOL    HW118033   3.370   7.613   6.102 -0.3574 -0.4650 -1.6215
 2573SOL    HW218034   3.258   7.658   6.194  1.1478 -0.1158  0.1069
 2574SOL     OW18035  12.057  11.916  10.360  0.3335 -0.4610 -0.1789
 2574SOL    HW118036  12.047  11.900  10.266  0.8179  0.6307 -0.4268
 2574SOL    HW218037  12.067  12.010  10.368 -2.0695 -0.2413  1.2119
 2575SOL     OW18038   3.811   8.489  11.617  0.1368 -0.0554 -0.5123
 2575SOL    HW118039   3.821   8.507  11.524 -1.6408  0.6771 -0.5915
 2575SOL    HW218040   3.795   8.394  11.622  1.4827 -0.3216 -0.8061
 2576SOL     OW18041   9.794  11.531  12.619  0.1503 -0.1391  0.0465
 2576SOL    HW118042   9.778  11.438  12.634 -1.5154  0.0819 -0.2128
 2576SOL    HW218043   9.826  11.535  12.528 -2.4330 -0.2473 -0.9487
 2577SOL     OW18044  12.720  10.699  11.681  0.4196 -0.3992  0.0426
 2577SOL    HW118045  12.677  10.777  11.645 -0.3826 -0.4456  0.8819
 2577SOL    HW218046  12.707  10.632  11.613  0.8874  0.1160 -0.5674
 2578SOL     OW18047   8.993  11.588  11.376  0.1404 -0.3462 -0.5459
 2578SOL    HW118048   8.922  11.527  11.353  0.2056  0.2657 -2.5488
 2578SOL    HW218049   9.051  11.537  11.433  0.8596 -2.6327 -3.1476
 2579SOL     OW18050   9.347   2.207   2.092  0.1074  0.5397 -0.2379
 2579SOL    HW118051   9.314   2.293   2.064  1.3674  1.5602  1.2380
 2579SOL    HW218052   9.303   2.190   2.175  0.9017  0.4451  0.1780
 2580SOL     OW18053   3.446   3.800   8.233 -0.0516 -0.3030  0.3310
 2580SOL    HW118054   3.382   3.761   8.174 -0.1969  1.8406 -1.0454
 2580SOL    HW218055   3.531   3.770   8.200 -0.2360 -1.9442  1.2494
 2581SOL     OW18056   6.729   0.974   7.224 -0.2133 -0.4346 -0.0867
 2581SOL    HW118057   6.675   0.902   7.190 -1.3203 -0.3604  1.3766
 2581SOL    HW218058   6.733   0.957   7.318 -1.6273  2.1009  0.5321
 2582SOL     OW18059   7.569   3.969   2.097  0.6059 -0.3677 -0.1831
 2582SOL    HW118060   7.641   3.909   2.118  0.0976 -0.6872  0.7245
 2582SOL    HW218061   7.611   4.051   2.075  1.2605 -0.5028  0.5104
 2583SOL     OW18062   4.178   7.880   3.078  0.0245  0.3927 -0.1201
 2583SOL    HW118063   4.176   7.865   2.984 -0.6192  0.9049 -0.1954
 2583SOL    HW218064   4.242   7.951   3.090  1.3554 -0.7692  0.0134
 2584SOL     OW18065  10.142   4.675   1.874 -0.6934 -0.5485  0.1357
 2584SOL    HW118066  10.154   4.754   1.821  1.1931 -1.6246 -1.1669
 2584SOL    HW218067  10.150   4.603   1.811 -0.7538 -1.8167  1.5317
 2585SOL     OW18068   7.818   0.252   7.423 -0.3104  0.3082 -0.5922
 2585SOL    HW118069   7.729   0.224   7.401  0.1001 -0.8785 -0.7797
 2585SOL    HW218070   7.859   0.175   7.462  0.1019  1.3359  1.1170
 2586SOL     OW18071   6.709   1.271   3.630 -0.5136  0.2495 -0.2767
 2586SOL    HW118072   6.652   1.259   3.555 -1.7400 -0.2450  0.7049
 2586SOL    HW218073   6.660   1.328   3.689  0.9875  1.7384 -0.4061
 2587SOL     OW18074   6.014   0.781   6.877  0.7070  0.0394 -0.0245
 2587SOL    HW118075   5.928   0.817   6.900  1.0579  0.0309  1.3719
 2587SOL    HW218076   6.073   0.857   6.876  0.6648  0.0787 -1.1935
 2588SOL     OW18077   1.972   4.045   2.265 -0.3100  0.2624 -0.1032
 2588SOL    HW118078   2.022   4.122   2.293 -1.9047  1.8419 -1.3419
 2588SOL    HW218079   1.965   4.056   2.170  0.3243 -2.0312 -0.4719
 2589SOL     OW18080   1.882   5.096   5.145  0.8127  0.3057  0.6048
 2589SOL    HW118081   1.925   5.010   5.143  0.7003  0.2099  1.6776
 2589SOL    HW218082   1.901   5.129   5.232  0.4486  1.1731  0.3565
 2590SOL     OW18083   4.598   6.229   9.115 -0.0740 -0.3065 -0.1293
 2590SOL    HW118084   4.546   6.246   9.194  1.1793 -1.3762  0.9630
 2590SOL    HW218085   4.689   6.235   9.144  0.4202 -0.6583 -1.5260
 2591SOL     OW18086   0.494   6.245   3.398  0.4549  0.1550 -0.0252
 2591SOL    HW118087   0.480   6.162   3.353  0.0449  0.7261 -0.9853
 2591SOL    HW218088   0.566   6.286   3.351  0.1546  0.6766 -0.0357
 2592SOL     OW18089   2.386   2.852   2.474  0.8720  0.0639  0.3645
 2592SOL    HW118090   2.425   2.795   2.539  0.7152 -0.2749  0.1644
 2592SOL    HW218091   2.355   2.793   2.405 -1.2422  0.1674  1.1415
 2593SOL     OW18092  12.022   2.905   5.573  0.2632 -0.4006 -0.9387
 2593SOL    HW118093  12.006   2.819   5.535  0.9344 -2.5171  3.0773
 2593SOL    HW218094  12.104   2.934   5.533  1.1167 -2.6059 -0.9117
 2594SOL     OW18095  11.216   7.004  12.804 -0.5068  0.0779  0.3522
 2594SOL    HW118096  11.309   7.028  12.809 -0.3089 -0.7934  1.2945
 2594SOL    HW218097  11.208   6.929  12.863 -1.7965  0.0785  0.2014
 2595SOL     OW18098   1.813   7.455   6.567  0.8655  0.2714  0.7209
 2595SOL    HW118099   1.727   7.421   6.592  0.7074  0.1633  0.0574
 2595SOL    HW218100   1.844   7.394   6.500  0.7149  1.2617 -0.2643
 2596SOL     OW18101   8.448   4.858   3.738 -0.1384  0.6122  0.0349
 2596SOL    HW118102   8.365   4.863   3.691 -0.2425 -0.1908  0.1148
 2596SOL    HW218103   8.477   4.949   3.747 -0.9007  0.8799 -0.1813
 2597SOL     OW18104   1.653   2.648   6.202  0.3493  0.0846 -0.2079
 2597SOL    HW118105   1.674   2.741   6.203  0.6984  0.0199  1.0818
 2597SOL    HW218106   1.734   2.604   6.229 -0.3145 -0.4471  1.0071
 2598SOL     OW18107   2.185   6.506   5.601 -0.3676 -0.3461  0.0037
 2598SOL    HW118108   2.235   6.570   5.652 -2.0045  0.7952  0.2893
 2598SOL    HW218109   2.191   6.425   5.651  2.4136 -0.7084 -0.7701
 2599SOL     OW18110   3.523   4.550   0.742  0.5624 -0.0109 -0.8221
 2599SOL    HW118111   3.552   4.465   0.776  2.4802  1.5294  1.7319
 2599SOL    HW218112   3.603   4.603   0.740 -0.8027  2.1260 -1.0196
 2600SOL     OW18113   0.175   1.044  12.892  0.0527 -0.5088  0.7966
 2600SOL    HW118114   0.249   1.056  12.834 -1.9091 -0.7599 -1.9468
 2600SOL    HW218115   0.178   1.120  12.951  1.7358  0.1287 -0.0464
 2601SOL     OW18116   2.743  12.249   3.608  0.1594  0.6077 -0.3740
 2601SOL    HW118117   2.673  12.187   3.630 -0.6192  1.4141 -0.4915
 2601SOL    HW218118   2.696  12.325   3.572  0.9471  1.9460  1.2773
 2602SOL     OW18119   3.808   2.556   8.730  0.9142  0.1953  0.4383
 2602SOL    HW118120   3.754   2.629   8.698  0.2907 -0.1725  0.6205
 2602SOL    HW218121   3.747   2.503   8.782  1.4308 -0.2953  0.5477
 2603SOL     OW18122  11.830   7.344   1.870 -0.2087 -0.1294 -0.6554
 2603SOL    HW118123  11.907   7.398   1.890 -0.3937  0.7402 -2.0782
 2603SOL    HW218124  11.795   7.318   1.955  0.7306  0.8161  0.0447
 2604SOL     OW18125   5.356   2.238   5.845  0.1400 -0.1360 -0.3227
 2604SOL    HW118126   5.295   2.310   5.827  0.7950  0.7359  0.8286
 2604SOL    HW218127   5.425   2.249   5.779  0.8759  1.0808  0.6062
 2605SOL     OW18128   4.429   8.086   5.672  0.4081  0.0284 -0.7097
 2605SOL    HW118129   4.346   8.039   5.675  0.3542  0.1424 -0.2968
 2605SOL    HW218130   4.486   8.032   5.617 -0.0523  0.1375 -1.3079
 2606SOL     OW18131   1.089  11.342   0.854 -0.0272 -0.1726 -0.2520
 2606SOL    HW118132   1.046  11.412   0.805  0.3345  0.0327 -0.2763
 2606SOL    HW218133   1.092  11.376   0.944 -0.4079 -0.4167 -0.1460
 2607SOL     OW18134   7.726   1.284  11.606 -0.0336 -0.1625 -0.1542
 2607SOL    HW118135   7.726   1.191  11.581  0.2751  0.2815 -1.9737
 2607SOL    HW218136   7.817   1.302  11.629  0.0907 -0.1285 -0.6469
 2608SOL     OW18137  11.066   0.001   9.030 -0.1609  0.0329 -0.2484
 2608SOL    HW118138  11.071   0.071   9.095 -0.6456 -0.6734  0.5685
 2608SOL    HW218139  11.083  -0.079   9.080  1.7629 -0.3421 -1.3983
 2609SOL     OW18140  11.785   1.022  12.374  0.5329 -0.0708  0.1649
 2609SOL    HW118141  11.716   0.960  12.399  0.0589  0.7408  0.9693
 2609SOL    HW218142  11.849   0.970  12.327  0.2173 -1.1926  0.9463
 2610SOL     OW18143   2.935   7.167  11.367 -0.7139  0.6337  0.2079
 2610SOL    HW118144   2.912   7.136  11.454  2.4720 -0.7287  0.7164
 2610SOL    HW218145   2.935   7.088  11.313  0.7178  0.8522 -0.1588
 2611SOL     OW18146   2.590   3.538   8.571  0.2265  0.6995 -0.1549
 2611SOL    HW118147   2.592   3.453   8.615  0.4724  0.5870 -0.3809
 2611SOL    HW218148   2.681   3.566   8.568  0.1318  1.0274  0.0257
 2612SOL     OW18149   2.766   3.653   7.010 -0.3006 -0.4502 -0.2088
 2612SOL    HW118150   2.836   3.717   7.020  0.3128 -0.8939 -1.4240
 2612SOL    HW218151   2.687   3.697   7.042  0.1486  0.8405 -0.8390
 2613SOL     OW18152   9.931   5.303   4.554 -0.3379  0.1651 -0.0671
 2613SOL    HW118153  10.008   5.246   4.548 -0.9636 -0.8710  1.2392
 2613SOL    HW218154   9.860   5.245   4.583 -1.1133  1.5094  0.8538
 2614SOL     OW18155   1.295   2.969   2.650 -0.4101 -0.6133  0.7142
 2614SOL    HW118156   1.298   2.940   2.742 -1.9733 -0.3364  0.8706
 2614SOL    HW218157   1.213   3.016   2.642 -0.4172 -0.8521 -0.9112
 2615SOL     OW18158   0.609   2.466   2.330  0.7259  0.5026 -0.1467
 2615SOL    HW118159   0.600   2.402   2.259 -0.5600  0.6018 -0.1013
 2615SOL    HW218160   0.703   2.471   2.346  0.9915  0.0108 -1.4167
 2616SOL     OW18161   4.348   3.738  10.193  0.5341 -0.5083 -0.7361
 2616SOL    HW118162   4.275   3.736  10.132  0.5097 -1.0212 -0.6934
 2616SOL    HW218163   4.352   3.649  10.229 -0.0908  0.0369  0.7637
 2617SOL     OW18164   0.665  12.625   9.605  0.1231 -0.3118 -0.1668
 2617SOL    HW118165   0.589  12.677   9.633  0.5716  0.5083 -0.4590
 2617SOL    HW218166   0.720  12.618   9.683  0.8527  1.0626 -0.5287
 2618SOL     OW18167   5.475   5.962   6.909  0.0002 -0.5005  0.5356
 2618SOL    HW118168   5.529   5.884   6.923  1.7410  0.6062  0.2759
 2618SOL    HW218169   5.493   6.017   6.986 -0.0096  0.2955 -0.0254
 2619SOL     OW18170   7.757   5.410   2.349 -0.4052  0.1925 -0.3891
 2619SOL    HW118171   7.719   5.351   2.283 -0.9353  0.2767 -0.1618
 2619SOL    HW218172   7.692   5.479   2.359  0.3133  0.9515 -0.8181
 2620SOL     OW18173   1.402  12.521  11.907 -0.3769 -0.6589 -0.4038
 2620SOL    HW118174   1.390  12.615  11.895 -1.6938 -0.8593 -0.9216
 2620SOL    HW218175   1.380  12.484  11.821  1.6106 -1.3534 -0.6704
 2621SOL     OW18176   2.216   5.081  11.253  0.3224  0.3813 -0.1035
 2621SOL    HW118177   2.300   5.042  11.277  0.5014  1.2824  0.8086
 2621SOL    HW218178   2.157   5.054  11.323 -1.2387 -3.4639 -2.6042
 2622SOL     OW18179   0.321   2.227   8.997 -0.2730 -0.5346  0.1150
 2622SOL    HW118180   0.328   2.322   8.994  0.5358 -0.6163 -2.5413
 2622SOL    HW218181   0.328   2.205   9.090  5.6503  1.5736  0.5302
 2623SOL     OW18182  12.156   3.418   8.877 -0.4774 -0.5329  0.8509
 2623SOL    HW118183  12.200   3.500   8.897  1.8455 -1.7190  0.9690
 2623SOL    HW218184  12.082   3.415   8.937  1.0634  0.1992  2.9189
 2624SOL     OW18185  12.022   6.098   8.968  1.0868  0.0751  0.3157
 2624SOL    HW118186  12.090   6.100   8.901  0.1931  1.6907 -0.5924
 2624SOL    HW218187  11.941   6.114   8.922  0.4948  1.7293  1.8016
 2625SOL     OW18188   2.323   4.467   0.076 -0.1358 -0.0002  0.1892
 2625SOL    HW118189   2.285   4.452   0.162 -1.5033 -1.3479 -0.5896
 2625SOL    HW218190   2.366   4.384   0.054 -1.7749 -0.5106 -1.3269
 2626SOL     OW18191   2.750   2.490   7.883 -0.4253  0.4488 -0.6574
 2626SOL    HW118192   2.727   2.507   7.791 -2.0378  2.1185 -0.0016
 2626SOL    HW218193   2.743   2.575   7.925  2.1932  0.0990  0.6829
 2627SOL     OW18194  10.431  10.581   1.359  0.2361  0.0898 -0.2056
 2627SOL    HW118195  10.482  10.539   1.429  1.0995  0.2273 -0.7362
 2627SOL    HW218196  10.374  10.512   1.327  0.2542 -0.1369  0.2356
 2628SOL     OW18197   5.966  11.872   3.424 -0.5242  0.0213 -0.1670
 2628SOL    HW118198   5.929  11.960   3.427  0.6123  0.4840  1.5912
 2628SOL    HW218199   6.035  11.877   3.357 -0.2817  0.5489  0.1207
 2629SOL     OW18200   2.343   2.558   6.836 -0.3959  0.9679 -0.4386
 2629SOL    HW118201   2.378   2.613   6.905  0.3611  0.5009 -0.4441
 2629SOL    HW218202   2.392   2.476   6.843  0.1680  1.1503 -1.9521
 2630SOL     OW18203   0.666   3.946   6.603  0.0882  0.1501  0.1635
 2630SOL    HW118204   0.672   3.993   6.520  0.1961 -0.4997 -0.2031
 2630SOL    HW218205   0.622   4.007   6.663  0.0538  0.6366 -0.3565
 2631SOL     OW18206   3.250   1.832  12.303 -0.0948 -0.3014  0.0307
 2631SOL    HW118207   3.219   1.746  12.332 -1.4228  0.1456  0.0235
 2631SOL    HW218208   3.244   1.887  12.381 -1.1811  0.2576 -0.4169
 2632SOL     OW18209   2.434   5.841   8.078 -0.1928 -0.3719 -0.0600
 2632SOL    HW118210   2.497   5.914   8.081  2.3271 -2.4279  0.2744
 2632SOL    HW218211   2.432   5.808   8.167  0.8864 -2.3967 -0.7321
 2633SOL     OW18212   8.444  10.608   8.054 -0.1524  0.1041  0.2430
 2633SOL    HW118213   8.507  10.553   8.100 -0.2687 -1.9034 -1.7617
 2633SOL    HW218214   8.496  10.679   8.016  0.6104 -0.4902  0.1551
 2634SOL     OW18215  10.384   1.003   5.552 -0.0255 -0.1651 -0.4308
 2634SOL    HW118216  10.425   0.986   5.467 -0.5447 -0.5232 -0.6136
 2634SOL    HW218217  10.322   0.932   5.563 -2.0142  1.3874 -1.0605
 2635SOL     OW18218   2.739   0.701   5.933 -0.3253  0.0736  0.4891
 2635SOL    HW118219   2.702   0.613   5.927 -0.6217  0.0782  1.8329
 2635SOL    HW218220   2.801   0.697   6.006 -0.8081  1.1042  0.9949
 2636SOL     OW18221   0.242   3.502   9.912 -0.3087 -0.1287 -0.3205
 2636SOL    HW118222   0.232   3.407   9.913 -1.8173  0.0156  0.2897
 2636SOL    HW218223   0.195   3.532   9.989 -0.6390  1.1799 -1.0027
 2637SOL     OW18224   4.060  12.408   7.041  0.3063  0.3215  0.2253
 2637SOL    HW118225   4.014  12.434   6.961 -0.9940 -4.8749 -1.1151
 2637SOL    HW218226   3.999  12.430   7.111 -0.9077  0.3430 -0.7848
 2638SOL     OW18227   6.657   1.280   0.086 -0.2686 -0.0142 -0.0975
 2638SOL    HW118228   6.604   1.210   0.048  1.0451 -1.6595  0.9785
 2638SOL    HW218229   6.739   1.278   0.036 -0.2165  0.7848 -0.0627
 2639SOL     OW18230  10.394  12.190   3.862  0.0898 -0.3558  0.5280
 2639SOL    HW118231  10.431  12.115   3.909  1.0233 -0.4237 -0.2898
 2639SOL    HW218232  10.361  12.153   3.780  0.8110  0.1582 -0.0045
 2640SOL     OW18233  11.482  11.086   1.057  0.2189 -0.0157 -0.8559
 2640SOL    HW118234  11.515  11.081   1.147  0.3527 -0.1476 -0.9137
 2640SOL    HW218235  11.433  11.005   1.044  0.5489 -0.1902 -1.0411
 2641SOL     OW18236  11.861  11.573   7.622 -0.2590  0.5122 -0.6124
 2641SOL    HW118237  11.765  11.582   7.624 -0.4354 -1.1288 -0.4905
 2641SOL    HW218238  11.888  11.591   7.712 -0.3731  1.6625 -0.7997
 2642SOL     OW18239   5.994  12.520   0.222  0.1660  0.0761 -0.6291
 2642SOL    HW118240   5.993  12.427   0.200  3.1861  0.0571 -1.1354
 2642SOL    HW218241   5.919  12.556   0.176 -0.9569 -2.0370 -0.6101
 2643SOL     OW18242   5.199   7.704   4.129 -0.3488  0.1869  0.6915
 2643SOL    HW118243   5.266   7.689   4.063  0.8281 -1.4093  2.1858
 2643SOL    HW218244   5.192   7.622   4.176 -0.0761  1.6593  3.5121
 2644SOL     OW18245   7.973   2.105   3.261 -0.1618 -0.4902 -0.1573
 2644SOL    HW118246   7.941   2.188   3.298  0.2395 -0.3132 -0.1949
 2644SOL    HW218247   7.997   2.127   3.171 -1.8723 -1.0981 -0.8063
 2645SOL     OW18248   1.665   6.233  10.503  0.6809  0.2115 -0.1396
 2645SOL    HW118249   1.673   6.159  10.563  0.5650  1.7441  1.8508
 2645SOL    HW218250   1.706   6.202  10.422  2.3744 -1.3735  1.2335
 2646SOL     OW18251   3.950   4.896  12.398  0.6333  0.0407  0.4188
 2646SOL    HW118252   3.893   4.889  12.322  1.9984  0.1270 -0.6576
 2646SOL    HW218253   3.928   4.981  12.437 -0.1495 -0.0517  0.1945
 2647SOL     OW18254   0.011   5.495   1.391 -0.0765 -0.0749 -0.2503
 2647SOL    HW118255  -0.054   5.473   1.458 -0.9573  0.5128 -0.8886
 2647SOL    HW218256   0.095   5.481   1.434 -0.6140 -1.0443  0.5407
 2648SOL     OW18257   4.862  11.879   6.213  0.0378 -0.3810 -0.2280
 2648SOL    HW118258   4.870  11.894   6.307  0.2265 -0.7035 -0.1916
 2648SOL    HW218259   4.767  11.879   6.198 -0.0080  2.4044 -0.5037
 2649SOL     OW18260   1.399  10.868   2.384  0.8817 -0.3438 -0.4255
 2649SOL    HW118261   1.474  10.918   2.416  0.9854  0.0105 -1.2103
 2649SOL    HW218262   1.375  10.812   2.458  0.8433  0.7638  0.4225
 2650SOL     OW18263   2.617  10.454   0.944 -0.0010  0.0607  0.5253
 2650SOL    HW118264   2.562  10.447   0.866  0.1561 -1.1917  0.5115
 2650SOL    HW218265   2.699  10.411   0.919  0.1968  0.0115  1.2427
 2651SOL     OW18266   6.091   9.999   0.561  0.0006  0.4151 -0.6985
 2651SOL    HW118267   6.043  10.042   0.491  0.1190  1.1996 -0.3040
 2651SOL    HW218268   6.059  10.040   0.641  0.3150 -0.0420 -0.3334
 2652SOL     OW18269   0.008   8.902   7.698  0.4115  0.3056  0.1163
 2652SOL    HW118270  -0.047   8.826   7.716 -0.4816  0.5564 -1.3668
 2652SOL    HW218271   0.056   8.878   7.619  1.7028  0.4837  0.8244
 2653SOL     OW18272   9.198   1.917   4.290 -0.2804  0.2011 -0.4925
 2653SOL    HW118273   9.226   1.866   4.214 -0.0975 -0.3262 -0.0790
 2653SOL    HW218274   9.192   1.853   4.361 -1.1003  0.5665 -0.2180
 2654SOL     OW18275   5.817  10.547   5.432 -0.2308  0.0548 -0.1024
 2654SOL    HW118276   5.823  10.464   5.386  0.1057  0.8494 -1.5379
 2654SOL    HW218277   5.723  10.560   5.446 -0.5898  0.8628 -2.6723
 2655SOL     OW18278  10.083  11.021   8.706 -0.5880 -0.1463 -0.2432
 2655SOL    HW118279  10.078  10.940   8.655  0.6593 -0.0798 -0.4976
 2655SOL    HW218280   9.995  11.032   8.742 -0.6502 -1.9039  0.2388
 2656SOL     OW18281   1.747   3.270   1.549 -0.0529 -0.3478  0.1983
 2656SOL    HW118282   1.780   3.217   1.477  0.7568  0.1056  0.2218
 2656SOL    HW218283   1.653   3.278   1.532  0.0790 -0.4940 -0.6391
 2657SOL     OW18284   2.039   1.061   1.569  0.4120  0.0986  0.0150
 2657SOL    HW118285   2.003   1.096   1.651 -1.0742 -0.8417 -0.1829
 2657SOL    HW218286   2.102   1.126   1.540  1.2212  0.2942  2.0768
 2658SOL     OW18287   5.765  10.828  10.897  0.7404 -0.7577  0.6718
 2658SOL    HW118288   5.690  10.856  10.844  2.6622  0.0160 -1.7595
 2658SOL    HW218289   5.752  10.873  10.981 -1.5988 -0.8289  0.4170
 2659SOL     OW18290   8.852   9.107   9.454  0.2270  0.1513  0.1333
 2659SOL    HW118291   8.867   9.181   9.513 -1.3441  0.1042  0.6310
 2659SOL    HW218292   8.807   9.145   9.379  1.2181  0.0198 -0.5455
 2660SOL     OW18293   6.907   3.067   9.367  0.3586 -0.1986  0.0176
 2660SOL    HW118294   6.930   3.108   9.450  0.4546  2.2945 -1.1590
 2660SOL    HW218295   6.956   3.116   9.301 -2.7218  0.6174 -1.9059
 2661SOL     OW18296   1.040  11.834   0.322 -0.2595  0.1688  0.0972
 2661SOL    HW118297   0.947  11.847   0.339 -0.4984 -1.5765  0.2917
 2661SOL    HW218298   1.054  11.872   0.235 -1.3942 -0.4928 -0.3880
 2662SOL     OW18299   3.236  12.783   2.383  0.9431 -0.5859 -0.1162
 2662SOL    HW118300   3.268  12.840   2.453 -0.5056 -0.0034  0.1195
 2662SOL    HW218301   3.154  12.824   2.355 -0.0012 -2.3992 -0.1504
 2663SOL     OW18302  10.404   0.546  12.864  0.2926  0.2765  0.1575
 2663SOL    HW118303  10.384   0.600  12.787  1.0497  1.1113  0.5246
 2663SOL    HW218304  10.487   0.504  12.844 -0.2200 -0.6436 -0.0607
 2664SOL     OW18305  12.223   8.320  12.925 -0.2618  0.3410  0.2021
 2664SOL    HW118306  12.252   8.375  12.998  0.2496 -0.5141  0.6513
 2664SOL    HW218307  12.215   8.232  12.962  3.0491 -0.7968 -1.4148
 2665SOL     OW18308  11.534   8.413   4.710 -0.5592  0.1065 -0.0507
 2665SOL    HW118309  11.487   8.331   4.693  0.8159 -0.4842 -1.2260
 2665SOL    HW218310  11.594   8.422   4.636 -0.1359  1.7984  0.4465
 2666SOL     OW18311   3.138   6.606  12.861 -0.2419  0.2497 -0.3287
 2666SOL    HW118312   3.058   6.579  12.816  0.6952  0.2117 -2.0682
 2666SOL    HW218313   3.110   6.675  12.922 -1.6240  0.0432 -0.7078
 2667SOL     OW18314   0.397   4.550   5.168 -0.5797  0.1269  0.5198
 2667SOL    HW118315   0.385   4.612   5.096 -0.5507 -1.4955 -0.9390
 2667SOL    HW218316   0.486   4.567   5.199  0.2738 -0.6545 -1.3649
 2668SOL     OW18317  10.476  11.636   8.594 -0.0287  0.5068  0.2139
 2668SOL    HW118318  10.458  11.730   8.594 -1.4607  0.2575  0.7703
 2668SOL    HW218319  10.422  11.602   8.522 -0.0746  0.0143  0.4806
 2669SOL     OW18320   6.808   7.615   2.262  0.0973 -0.4921 -0.2412
 2669SOL    HW118321   6.761   7.535   2.238 -1.8693  0.8469 -1.1502
 2669SOL    HW218322   6.885   7.617   2.206 -0.6302 -1.0063 -1.2732
 2670SOL     OW18323   1.165   9.694   1.810 -0.2155 -0.1209 -0.0767
 2670SOL    HW118324   1.119   9.675   1.729  1.0733 -1.5074 -0.5436
 2670SOL    HW218325   1.108   9.660   1.879 -1.4507  1.3208 -0.3325
 2671SOL     OW18326   8.347  10.319   0.634  0.4436 -0.1156  0.3799
 2671SOL    HW118327   8.332  10.225   0.626  2.2964 -0.4783  0.5844
 2671SOL    HW218328   8.431  10.326   0.680  1.0399  1.6028 -0.8438
 2672SOL     OW18329   0.604   2.831  10.894  0.0739  0.1755 -0.2825
 2672SOL    HW118330   0.641   2.814  10.981 -0.5132  2.1652  0.4187
 2672SOL    HW218331   0.647   2.911  10.864  0.6154 -0.7322 -2.0757
 2673SOL     OW18332   2.716   8.412   1.006 -0.2308  0.2326  0.0622
 2673SOL    HW118333   2.673   8.452   1.082  1.2952  1.7436  0.1790
 2673SOL    HW218334   2.804   8.448   1.007 -0.3202  0.7051 -2.7148
 2674SOL     OW18335  10.231   9.769   2.271 -0.0119 -0.4633  0.5388
 2674SOL    HW118336  10.138   9.750   2.264  0.0270 -0.0516 -2.2295
 2674SOL    HW218337  10.274   9.706   2.213  1.5013 -0.7896  1.9169
 2675SOL     OW18338  12.138   4.724   6.709 -0.0274  0.0634 -0.5307
 2675SOL    HW118339  12.200   4.797   6.703  0.1880  0.1216  1.5959
 2675SOL    HW218340  12.109   4.709   6.619 -0.0644  2.7448 -1.0276
 2676SOL     OW18341   5.608   6.859   6.380 -0.5935  0.2396 -0.6823
 2676SOL    HW118342   5.620   6.766   6.360 -2.5364 -0.2011  0.0061
 2676SOL    HW218343   5.632   6.904   6.299 -0.1471 -0.8890 -1.2021
 2677SOL     OW18344  12.224   9.768   2.148 -0.0046  0.2794 -0.1555
 2677SOL    HW118345  12.242   9.838   2.086  0.1878 -0.2330 -0.6860
 2677SOL    HW218346  12.305   9.761   2.200 -0.7205  1.7787  1.2404
 2678SOL     OW18347   1.676  12.698   3.668 -0.8176  0.2121  0.2295
 2678SOL    HW118348   1.702  12.646   3.743  1.2658  0.2482 -0.4083
 2678SOL    HW218349   1.592  12.737   3.693 -0.0834  0.3971  2.6053
 2679SOL     OW18350   4.818  12.795  11.049  0.1708 -0.1606  0.5426
 2679SOL    HW118351   4.899  12.744  11.040  0.6906  0.7432 -0.0623
 2679SOL    HW218352   4.748  12.731  11.037  0.7966 -0.9338  0.9416
 2680SOL     OW18353   1.572   0.069   1.619  0.1185  0.3737 -0.4264
 2680SOL    HW118354   1.640   0.017   1.662 -0.1884 -0.5126 -0.9714
 2680SOL    HW218355   1.546   0.134   1.685  0.1284 -0.5169  0.4860
 2681SOL     OW18356   1.038   5.428  12.475 -0.1033 -0.4756  0.0230
 2681SOL    HW118357   0.956   5.380  12.468  0.5280 -1.5580 -0.2150
 2681SOL    HW218358   1.036   5.491  12.403 -0.5927 -0.6997 -0.1613
 2682SOL     OW18359   5.109  10.836  12.387 -0.2541 -0.0824  0.0745
 2682SOL    HW118360   5.039  10.771  12.392  1.4454 -2.1465 -1.0030
 2682SOL    HW218361   5.138  10.847  12.477 -1.8159  0.6420  0.4973
 2683SOL     OW18362   8.363   0.334   1.301  0.2987 -0.0248 -0.0512
 2683SOL    HW118363   8.361   0.417   1.253  0.4246 -1.7010 -3.2586
 2683SOL    HW218364   8.456   0.318   1.317  0.4207 -0.3472 -1.0290
 2684SOL     OW18365   9.376  11.978  11.164 -0.8397 -0.4727 -0.2338
 2684SOL    HW118366   9.340  12.031  11.235 -1.2192 -1.2452  0.1674
 2684SOL    HW218367   9.323  11.898  11.164 -1.7967  0.0837 -2.3310
 2685SOL     OW18368   3.460   8.194   6.581  0.4925 -0.6237  0.5013
 2685SOL    HW118369   3.484   8.256   6.650 -0.5156  0.2032  0.1348
 2685SOL    HW218370   3.370   8.216   6.558  0.9248 -0.5905 -1.3670
 2686SOL     OW18371   0.916  12.755   5.048 -0.3778  0.4524 -0.0168
 2686SOL    HW118372   0.960  12.750   5.133 -0.6257 -1.5220  0.0489
 2686SOL    HW218373   0.826  12.729   5.066 -0.0006 -1.8305 -1.1128
 2687SOL     OW18374   9.920  11.424   5.851  0.2697  0.4235  0.5259
 2687SOL    HW118375   9.873  11.484   5.909 -0.2614  0.9899 -0.4644
 2687SOL    HW218376   9.888  11.337   5.876  0.4270  0.6059  1.4119
 2688SOL     OW18377   1.935   6.037   9.065 -0.2768 -0.3068 -0.0869
 2688SOL    HW118378   1.918   6.117   9.014 -2.9563 -0.5474  0.3044
 2688SOL    HW218379   1.987   6.067   9.139 -0.5875  0.9520 -0.3451
 2689SOL     OW18380   6.101   1.133   5.877  0.1218 -0.2448  0.4465
 2689SOL    HW118381   6.148   1.137   5.794 -0.0316  0.1236  0.3801
 2689SOL    HW218382   6.065   1.220   5.890 -1.0802 -0.6922  0.1950
 2690SOL     OW18383   2.726   2.788  10.398  0.2558 -0.0756  0.8502
 2690SOL    HW118384   2.700   2.835  10.477  1.0895  0.2145  0.9564
 2690SOL    HW218385   2.643   2.761  10.358 -0.2519  1.8227  0.5620
 2691SOL     OW18386   8.624   0.256  12.689 -0.2521  0.1658  0.1127
 2691SOL    HW118387   8.718   0.273  12.688 -0.2604  0.2186  0.2054
 2691SOL    HW218388   8.584   0.341  12.669 -0.2997  0.3132  0.8224
 2692SOL     OW18389   0.677   0.341  11.002 -0.2658 -0.4032 -0.6889
 2692SOL    HW118390   0.742   0.294  11.054 -0.4207 -0.2601 -0.3642
 2692SOL    HW218391   0.723   0.361  10.920 -0.4997 -1.9362 -1.2133
 2693SOL     OW18392   2.294   5.726   6.427 -0.0088 -0.5665 -0.0966
 2693SOL    HW118393   2.229   5.755   6.491  0.7654  3.2811 -0.8253
 2693SOL    HW218394   2.376   5.721   6.477 -0.2626 -2.7188  0.2157
 2694SOL     OW18395  10.200   2.260  12.145 -0.5127  0.0960 -0.0701
 2694SOL    HW118396  10.178   2.194  12.079  0.3623 -0.4111  0.1291
 2694SOL    HW218397  10.134   2.249  12.213  1.1108 -2.4377  1.2496
 2695SOL     OW18398  11.150   6.828  10.499  0.7069 -0.0146  0.6253
 2695SOL    HW118399  11.191   6.783  10.573 -1.1046  0.1939  1.8320
 2695SOL    HW218400  11.220   6.880  10.460  2.3651 -2.2275  0.4603
 2696SOL     OW18401   3.174   7.394  10.333  0.9012  0.3525  0.5808
 2696SOL    HW118402   3.188   7.488  10.324 -1.6208  0.8059  0.8035
 2696SOL    HW218403   3.135   7.367  10.250  0.4054 -0.2319  0.9935
 2697SOL     OW18404   3.813   3.828   7.092  0.0730  1.0393 -0.1921
 2697SOL    HW118405   3.736   3.877   7.062 -1.2173  0.0214  1.2971
 2697SOL    HW218406   3.784   3.737   7.096  1.1283  0.7190  1.0452
 2698SOL     OW18407   5.778   1.493   6.058  0.2464 -0.1971  0.5841
 2698SOL    HW118408   5.771   1.585   6.031 -0.5234 -0.6010 -0.7048
 2698SOL    HW218409   5.782   1.496   6.153 -1.2919  1.0971  0.6515
 2699SOL     OW18410  10.417  11.425   6.866  0.3566 -0.3208  0.0341
 2699SOL    HW118411  10.329  11.446   6.832  0.3463 -1.6764 -0.8538
 2699SOL    HW218412  10.401  11.375   6.946  0.3824  2.7232  2.0978
 2700SOL     OW18413   1.454   5.388   2.286  0.0083 -0.4668  0.1742
 2700SOL    HW118414   1.421   5.333   2.357  0.4480  0.4198  1.0904
 2700SOL    HW218415   1.385   5.385   2.220 -0.9899 -0.3084  1.1721
 2701SOL     OW18416   7.109   3.422   2.902 -0.3321  0.1438  0.2081
 2701SOL    HW118417   7.132   3.343   2.951  0.5502 -0.2941 -0.8785
 2701SOL    HW218418   7.020   3.404   2.870  0.3729 -1.0424 -1.2080
 2702SOL     OW18419  10.720  11.965   1.382  0.6311 -0.0595 -0.1070
 2702SOL    HW118420  10.810  11.993   1.397  0.2370  1.5125 -0.4988
 2702SOL    HW218421  10.672  11.993   1.460  0.0973  1.0597 -0.8035
 2703SOL     OW18422   1.695   2.893   6.379  0.1309 -0.4467 -0.5747
 2703SOL    HW118423   1.671   2.844   6.458  1.0525 -1.1480 -0.7160
 2703SOL    HW218424   1.613   2.932   6.350  0.1268  1.7621  1.9948
 2704SOL     OW18425   3.984   5.454   7.277  0.0477  0.3186  0.9808
 2704SOL    HW118426   4.061   5.441   7.333 -0.0115 -2.4874  0.5285
 2704SOL    HW218427   3.912   5.412   7.324 -0.6178  0.4039  0.0673
 2705SOL     OW18428   5.040   0.233   4.965 -0.1097 -0.3197  0.3067
 2705SOL    HW118429   4.974   0.169   4.990 -0.9273  0.9521  1.5510
 2705SOL    HW218430   5.117   0.211   5.018 -0.1921 -0.6191  0.2997
 2706SOL     OW18431   2.649  10.661   0.510 -0.0626  0.1079  0.7114
 2706SOL    HW118432   2.689  10.728   0.454  0.6821  0.1993  1.3292
 2706SOL    HW218433   2.565  10.641   0.468 -0.5420  1.8153  0.7876
 2707SOL     OW18434   6.076   9.938   9.528  0.3146 -0.2381  0.3455
 2707SOL    HW118435   6.055  10.000   9.598 -0.0857  0.1338 -0.0972
 2707SOL    HW218436   6.016   9.865   9.542 -0.5965  0.3617 -0.3013
 2708SOL     OW18437   8.683   9.353   2.234 -0.3593  0.0422 -0.5015
 2708SOL    HW118438   8.613   9.312   2.182  1.1176 -1.4214 -1.4586
 2708SOL    HW218439   8.699   9.290   2.305 -1.1774  1.2099  0.7565
 2709SOL     OW18440   6.376   6.057   4.004 -0.0266  0.1442 -0.5673
 2709SOL    HW118441   6.319   6.070   4.080 -0.4024  1.8412 -1.1052
 2709SOL    HW218442   6.465   6.061   4.040 -0.1508 -2.3316  0.2452
 2710SOL     OW18443   2.549   6.978   0.845 -0.1087 -0.2155  0.4184
 2710SOL    HW118444   2.461   6.968   0.808  0.4903 -0.6413 -0.9801
 2710SOL    HW218445   2.569   7.071   0.834  0.1276 -0.3689 -0.5278
 2711SOL     OW18446   2.784   6.428   6.544  0.2448  0.6758  0.1427
 2711SOL    HW118447   2.798   6.369   6.470 -0.2524 -0.7538  1.1493
 2711SOL    HW218448   2.817   6.380   6.620 -0.3538  1.6184  1.0330
 2712SOL     OW18449   9.983   5.364   2.244 -0.4433  0.0616 -0.1104
 2712SOL    HW118450  10.004   5.274   2.268  1.0398  0.4323  0.0636
 2712SOL    HW218451   9.968   5.408   2.327  1.8649  0.6674  0.0450
 2713SOL     OW18452   2.510   6.504   2.496  0.0425 -0.1434 -0.3547
 2713SOL    HW118453   2.602   6.500   2.525 -0.2555 -1.8555  0.5072
 2713SOL    HW218454   2.514   6.484   2.403  0.7107  2.0884 -0.8790
 2714SOL     OW18455   1.228   6.541   7.645 -0.6827  0.7110 -0.0490
 2714SOL    HW118456   1.276   6.621   7.622  0.8186 -0.5734 -1.7020
 2714SOL    HW218457   1.167   6.529   7.572  0.1740 -0.4197 -0.6059
 2715SOL     OW18458   1.833   5.224   3.026  0.1315  0.5295 -0.3868
 2715SOL    HW118459   1.755   5.281   3.020  0.5016  1.4920  2.6250
 2715SOL    HW218460   1.906   5.282   3.005  0.1834 -0.1066 -2.1122
 2716SOL     OW18461   9.417   1.730   0.307 -0.0325 -0.1320  0.0690
 2716SOL    HW118462   9.503   1.713   0.345 -0.4421  1.7942  2.0569
 2716SOL    HW218463   9.428   1.811   0.258 -0.8630  0.5581  0.9914
 2717SOL     OW18464   1.136   6.268   9.622 -0.0555  0.2087  0.2634
 2717SOL    HW118465   1.125   6.349   9.572  2.4624  0.4560 -0.0122
 2717SOL    HW218466   1.208   6.223   9.579 -0.2935 -1.3911  1.4580
 2718SOL     OW18467   5.139   4.733   6.674  0.0893 -0.4821  0.0970
 2718SOL    HW118468   5.048   4.763   6.679  0.2281 -0.1223  0.5180
 2718SOL    HW218469   5.179   4.763   6.756  0.8980  0.3751 -0.5888
 2719SOL     OW18470   2.976   1.394   3.330  0.4690 -0.0621  0.4441
 2719SOL    HW118471   3.029   1.394   3.410  0.2648  0.6313  0.5921
 2719SOL    HW218472   2.886   1.398   3.362  0.4121  1.4781  0.2002
 2720SOL     OW18473   7.488   9.513   0.914  0.0392  0.3314  0.2919
 2720SOL    HW118474   7.498   9.578   0.844  1.0350  1.2353  1.2337
 2720SOL    HW218475   7.573   9.513   0.959 -0.8874  0.5094  2.1320
 2721SOL     OW18476  10.226   4.791   3.889  0.2805  0.4205  0.4486
 2721SOL    HW118477  10.305   4.829   3.927  0.2947 -0.3676  1.2363
 2721SOL    HW218478  10.168   4.775   3.963 -0.3600  0.3741 -0.0470
 2722SOL     OW18479   1.055   7.271  11.513  0.3267  0.2808 -0.0360
 2722SOL    HW118480   1.004   7.204  11.467  1.8754 -1.0669  0.1079
 2722SOL    HW218481   1.069   7.234  11.600  1.0680  0.8651  0.1048
 2723SOL     OW18482   5.794   8.145   7.322 -0.0812 -0.4658  0.1801
 2723SOL    HW118483   5.872   8.137   7.267 -0.2428 -0.1981 -0.0935
 2723SOL    HW218484   5.779   8.057   7.356  0.3203 -0.5249  0.2070
 2724SOL     OW18485   8.106   4.498   6.386  0.2212  0.4999 -0.1620
 2724SOL    HW118486   8.018   4.468   6.362 -0.0010  0.1330  1.0299
 2724SOL    HW218487   8.110   4.485   6.481  2.4581 -1.9840 -0.4732
 2725SOL     OW18488  11.215   4.018   9.119  0.0362 -0.0388  0.1194
 2725SOL    HW118489  11.198   3.985   9.031  2.2709  0.8288 -0.7349
 2725SOL    HW218490  11.228   4.113   9.107  1.3394 -0.0432  1.1918
 2726SOL     OW18491   6.561  10.016   0.244 -0.1492  0.0263 -0.1021
 2726SOL    HW118492   6.467  10.008   0.226 -0.1656  0.8252 -0.3794
 2726SOL    HW218493   6.599   9.937   0.206 -0.7908 -0.6609  0.6350
 2727SOL     OW18494  12.818   4.946   6.803 -0.1916  0.8088 -0.2931
 2727SOL    HW118495  12.829   4.851   6.798  2.2125  1.0465 -0.5833
 2727SOL    HW218496  12.878   4.974   6.872  0.4700  2.2822 -1.4057
 2728SOL     OW18497   7.596   2.839   1.441  0.1227 -0.1061  0.1308
 2728SOL    HW118498   7.590   2.931   1.414  0.3730 -0.0516  0.2547
 2728SOL    HW218499   7.547   2.834   1.522 -0.1394 -0.1457 -0.0295
 2729SOL     OW18500  12.293   5.446   4.023  0.4192 -0.0034 -0.2516
 2729SOL    HW118501  12.229   5.433   3.953  1.4343 -2.4514 -0.8493
 2729SOL    HW218502  12.366   5.492   3.980  1.1033 -1.6293 -0.9126
 2730SOL     OW18503   1.429   3.137   5.203  0.7266  0.0075  0.3379
 2730SOL    HW118504   1.353   3.090   5.236  0.3769 -0.1869 -0.6880
 2730SOL    HW218505   1.464   3.080   5.134  1.2789  0.4988  0.1969
 2731SOL     OW18506   4.863   1.899   9.991 -0.6366  0.4535  0.7955
 2731SOL    HW118507   4.854   1.969  10.056 -2.5620  0.2394  0.8129
 2731SOL    HW218508   4.802   1.831  10.020 -0.0423 -0.5102 -0.1439
 2732SOL     OW18509   4.200   1.862  12.958 -0.0045 -1.4235 -0.1601
 2732SOL    HW118510   4.232   1.951  12.943 -2.0030 -0.7802 -0.9665
 2732SOL    HW218511   4.276   1.806  12.944  0.9900  0.0719 -1.0036
 2733SOL     OW18512   2.269   1.567  10.816  0.0663  0.1396  0.0059
 2733SOL    HW118513   2.347   1.622  10.806  0.4116 -0.1974  0.7874
 2733SOL    HW218514   2.285   1.492  10.759 -0.2263  0.6376 -0.7529
 2734SOL     OW18515  11.709   3.047  10.430 -0.1872  0.3607 -0.7596
 2734SOL    HW118516  11.744   2.990  10.499  0.5721  0.9677 -0.6277
 2734SOL    HW218517  11.766   3.031  10.354 -0.1134  0.7636 -0.7944
 2735SOL     OW18518   1.175   9.321   3.817 -0.3351  0.3063  0.0900
 2735SOL    HW118519   1.174   9.383   3.744  0.0027  0.4063  0.1725
 2735SOL    HW218520   1.118   9.361   3.883  0.7525  1.0656  0.5909
 2736SOL     OW18521  10.154  10.766   2.669  0.1566  0.4150  0.2129
 2736SOL    HW118522  10.203  10.834   2.715  2.2533 -0.0886 -1.1154
 2736SOL    HW218523  10.154  10.692   2.729  0.9286  0.4678  0.2841
 2737SOL     OW18524   7.325   4.850  12.412  0.0165  0.6015 -0.1981
 2737SOL    HW118525   7.384   4.897  12.354 -1.5964  3.3343  0.1670
 2737SOL    HW218526   7.376   4.835  12.492  1.0855  0.2219 -0.9358
 2738SOL     OW18527   0.098   7.884  10.963 -0.0004 -0.5477  0.0241
 2738SOL    HW118528   0.130   7.844  10.882  0.6965 -0.7290  0.3728
 2738SOL    HW218529   0.115   7.977  10.952  0.1351 -0.5777 -0.0268
 2739SOL     OW18530   2.049  11.315  11.996 -0.3002  0.1573 -0.3296
 2739SOL    HW118531   1.968  11.357  11.967  1.0474  3.3505  0.1378
 2739SOL    HW218532   2.115  11.343  11.933  0.7573 -1.2493  0.0834
 2740SOL     OW18533   3.081   9.824   3.244  1.2721 -0.1990  0.3586
 2740SOL    HW118534   3.004   9.817   3.301  0.0321  1.2855 -1.0469
 2740SOL    HW218535   3.116   9.735   3.241  0.3914 -0.6580  2.0546
 2741SOL     OW18536  10.265  10.817   0.875  0.1205  0.3532 -0.0306
 2741SOL    HW118537  10.318  10.884   0.919  1.7475 -0.5660 -0.4838
 2741SOL    HW218538  10.328  10.748   0.852 -1.3879 -1.0619 -0.1228
 2742SOL     OW18539   1.457  12.787   8.727 -0.0342 -0.2169 -0.3513
 2742SOL    HW118540   1.493  12.858   8.780 -2.0334 -0.8625  2.0600
 2742SOL    HW218541   1.378  12.824   8.688 -0.6730 -0.8592  0.3056
 2743SOL     OW18542   4.181   7.136   2.373 -0.3392  0.0206  0.2699
 2743SOL    HW118543   4.224   7.211   2.414 -0.0761  0.6078 -1.0229
 2743SOL    HW218544   4.111   7.113   2.434 -1.6101  2.4941 -0.0884
 2744SOL     OW18545  12.601   9.463   3.816 -0.3582 -0.2503 -0.3055
 2744SOL    HW118546  12.609   9.475   3.910 -0.7838 -0.4391 -0.2430
 2744SOL    HW218547  12.691   9.471   3.783 -0.3927  1.4340 -0.0827
 2745SOL     OW18548  10.050  12.859  12.139 -0.5195  0.1480  0.0281
 2745SOL    HW118549   9.962  12.861  12.177 -0.4228  1.0200  0.2139
 2745SOL    HW218550  10.077  12.951  12.135  0.4446 -0.1219  0.0993
 2746SOL     OW18551   2.639   9.136   7.219 -0.0323  0.3694  0.1220
 2746SOL    HW118552   2.551   9.104   7.201 -0.1816 -1.2042  2.9286
 2746SOL    HW218553   2.676   9.156   7.133 -3.0297  0.9656 -1.1572
 2747SOL     OW18554   8.243  12.292  11.110 -0.2038  0.1971  0.4925
 2747SOL    HW118555   8.227  12.363  11.049  3.0285 -1.0510 -2.1236
 2747SOL    HW218556   8.171  12.230  11.096  0.9134 -0.5144 -3.0131
 2748SOL     OW18557   4.411   2.727   5.848  0.9107  0.0273  0.4405
 2748SOL    HW118558   4.362   2.695   5.772  1.6011  0.4475 -0.2026
 2748SOL    HW218559   4.372   2.682   5.923  1.3280 -1.6913 -0.3263
 2749SOL     OW18560   1.704  11.383  12.250  0.3826 -0.1459 -0.5766
 2749SOL    HW118561   1.716  11.417  12.339 -0.5434  0.5416 -0.7070
 2749SOL    HW218562   1.725  11.456  12.193  0.6907 -0.5027 -0.9310
 2750SOL     OW18563  10.980   9.317   2.705  0.1194  0.2022 -0.4035
 2750SOL    HW118564  10.889   9.301   2.729  0.1360  1.6859  0.7906
 2750SOL    HW218565  11.028   9.310   2.787  1.2560 -1.4524 -1.1552
 2751SOL     OW18566   9.249   7.970  12.573 -0.2010  0.0423  0.7743
 2751SOL    HW118567   9.230   8.019  12.653  1.7146 -1.1739  2.0845
 2751SOL    HW218568   9.166   7.967  12.526 -0.5170  4.3256  0.6183
 2752SOL     OW18569   4.611  11.856   1.453 -0.2690 -0.3126  0.8120
 2752SOL    HW118570   4.564  11.790   1.505 -0.3758 -0.5467  0.4176
 2752SOL    HW218571   4.597  11.829   1.362 -0.9232  0.6532  0.6083
 2753SOL     OW18572   0.638   4.340   9.446 -0.1134 -0.5296 -0.6134
 2753SOL    HW118573   0.591   4.294   9.515 -1.6971  1.6225 -0.1606
 2753SOL    HW218574   0.601   4.306   9.364 -1.6016  0.2087 -0.2821
 2754SOL     OW18575   8.754   2.977   4.698 -0.0514 -0.1037 -0.6588
 2754SOL    HW118576   8.827   2.917   4.688  0.8063  0.5066  1.4643
 2754SOL    HW218577   8.754   3.029   4.618  2.0182  0.0749 -0.5736
 2755SOL     OW18578  11.272   1.569  11.414 -0.2125  0.0842  0.2567
 2755SOL    HW118579  11.254   1.636  11.480  1.5712 -1.1526  2.1453
 2755SOL    HW218580  11.355   1.596  11.375 -1.7141  1.3310 -2.3358
 2756SOL     OW18581  11.775   3.194   4.261  0.4669  0.0053 -0.2239
 2756SOL    HW118582  11.793   3.177   4.168  1.5391  1.1913 -0.2664
 2756SOL    HW218583  11.767   3.289   4.266 -1.6663 -0.1664  0.5778
 2757SOL     OW18584  12.807   6.600   4.390 -0.2514  0.4724  0.3400
 2757SOL    HW118585  12.804   6.620   4.483 -0.1070 -0.1616  0.4856
 2757SOL    HW218586  12.898   6.617   4.364  0.2112 -1.2064  0.7544
 2758SOL     OW18587  11.267  11.328   3.105  0.5668 -0.1651  0.5274
 2758SOL    HW118588  11.306  11.274   3.037  0.0283  1.1730 -0.9033
 2758SOL    HW218589  11.182  11.353   3.070  0.0779  0.1943  1.8976
 2759SOL     OW18590   5.953   8.277   5.809  1.0181  0.3585 -0.0153
 2759SOL    HW118591   5.943   8.187   5.777 -2.2351  0.3444  0.6385
 2759SOL    HW218592   6.031   8.310   5.765  0.2340 -1.5975 -3.2125
 2760SOL     OW18593   2.910   7.678   6.131  0.3495 -0.3039  0.4203
 2760SOL    HW118594   2.827   7.672   6.180  0.3187  0.6441  0.5031
 2760SOL    HW218595   2.947   7.590   6.135  0.1170 -0.3552  1.7583
 2761SOL     OW18596   5.485   4.292   9.760 -0.2547 -0.5467  0.4190
 2761SOL    HW118597   5.491   4.384   9.734 -0.2475 -0.7106 -0.1792
 2761SOL    HW218598   5.400   4.264   9.727  0.0842 -0.9687 -0.1089
 2762SOL     OW18599  10.967   1.300   3.113 -0.2687 -0.4943  0.7369
 2762SOL    HW118600  11.050   1.347   3.110 -0.4915  0.0132  1.9787
 2762SOL    HW218601  10.901   1.368   3.117 -0.6229 -0.8824  1.9872
 2763SOL     OW18602  10.411  11.450   5.055 -1.0095 -0.3483  0.3247
 2763SOL    HW118603  10.354  11.514   5.098 -3.1419 -1.2193 -1.0529
 2763SOL    HW218604  10.407  11.373   5.111 -1.7691 -0.6346 -0.1082
 2764SOL     OW18605   5.873   2.349   9.952  0.6275 -0.4796  0.5736
 2764SOL    HW118606   5.780   2.352   9.930  0.0418 -2.3438  2.5243
 2764SOL    HW218607   5.891   2.435   9.991 -0.3800 -0.2536  0.5526
 2765SOL     OW18608  12.415   8.828   1.122 -0.0748  0.2706  0.1058
 2765SOL    HW118609  12.328   8.863   1.105  0.0458  0.5226 -0.0034
 2765SOL    HW218610  12.411   8.737   1.092 -0.7038 -0.1377  1.3768
 2766SOL     OW18611   8.959   7.865   6.579 -0.2088 -0.3550  0.3400
 2766SOL    HW118612   8.951   7.771   6.566 -1.1846 -0.1473 -0.7315
 2766SOL    HW218613   8.869   7.895   6.593  0.0093  0.4934  0.0124
 2767SOL     OW18614  12.822   2.343   4.935 -0.5873 -0.1636  0.8207
 2767SOL    HW118615  12.757   2.392   4.985 -0.5047 -1.3603  2.1436
 2767SOL    HW218616  12.847   2.271   4.992  1.6851  0.0823  0.2139
 2768SOL     OW18617  10.094  12.025  10.967  0.2119 -0.3353  0.1849
 2768SOL    HW118618  10.066  12.072  10.889  0.1457  0.8099  0.8811
 2768SOL    HW218619  10.040  12.061  11.038 -1.5359 -3.0647  0.4210
 2769SOL     OW18620  10.232  12.900   9.100  0.1526  0.0413  0.9098
 2769SOL    HW118621  10.201  12.931   9.185 -2.4529  0.5216 -0.1270
 2769SOL    HW218622  10.202  12.967   9.038  0.7432 -1.0094 -0.5562
 2770SOL     OW18623   0.144  12.074   1.419 -0.7138  0.6932 -0.6724
 2770SOL    HW118624   0.179  11.997   1.464  1.8170  1.9068 -0.3676
 2770SOL    HW218625   0.078  12.040   1.359  1.5088 -1.9426 -1.7986
 2771SOL     OW18626   5.961   7.402   2.137  0.4042 -0.2013  0.2324
 2771SOL    HW118627   5.969   7.365   2.225 -0.2088 -0.0208  0.3660
 2771SOL    HW218628   5.905   7.340   2.090  0.8544 -0.3773 -0.0802
 2772SOL     OW18629  11.747   0.336   9.101  0.5119 -0.7407  0.4265
 2772SOL    HW118630  11.715   0.254   9.063 -1.6954 -0.1258  0.8251
 2772SOL    HW218631  11.743   0.399   9.029 -0.4660 -0.3536  0.8087
 2773SOL     OW18632   2.622   2.755  11.256 -0.0101 -0.2213 -0.0416
 2773SOL    HW118633   2.678   2.795  11.189  1.1781  0.4696  1.2992
 2773SOL    HW218634   2.667   2.674  11.279 -0.2699 -0.3253  0.1016
 2774SOL     OW18635  12.631   5.590   7.178  0.7912  0.0634  0.2399
 2774SOL    HW118636  12.557   5.557   7.126  0.3429 -0.8352  1.3965
 2774SOL    HW218637  12.594   5.662   7.229  1.4020  1.4214 -1.1597
 2775SOL     OW18638   6.830   1.153   7.998 -0.1258  0.0187 -0.5990
 2775SOL    HW118639   6.764   1.196   8.053  1.4779 -0.2246  1.6740
 2775SOL    HW218640   6.817   1.059   8.013  0.1111 -0.0637 -0.8938
 2776SOL     OW18641  12.818   4.644  11.415  0.5440 -0.6404  0.3464
 2776SOL    HW118642  12.899   4.654  11.364 -0.1986 -0.7528 -0.9038
 2776SOL    HW218643  12.803   4.550  11.418 -1.8717 -0.5948 -3.4071
 2777SOL     OW18644   2.856   2.993  10.009 -0.3253  0.1249 -0.6741
 2777SOL    HW118645   2.882   2.914  10.057 -0.8072 -0.3211 -1.1445
 2777SOL    HW218646   2.766   3.010  10.037  0.2028  1.2998  0.4533
 2778SOL     OW18647   1.155   6.799   2.517  0.5672  0.4637  0.5804
 2778SOL    HW118648   1.247   6.778   2.530  0.4370 -0.0016  0.7860
 2778SOL    HW218649   1.108   6.721   2.547  0.1655  0.1065 -0.8992
 2779SOL     OW18650   8.298   3.261   2.848  0.2722  0.1417 -0.2713
 2779SOL    HW118651   8.203   3.248   2.857  0.0694  1.5785 -0.0521
 2779SOL    HW218652   8.336   3.176   2.868 -1.0741 -1.1020 -2.6870
 2780SOL     OW18653   7.504   1.077   7.423 -0.2194 -0.5430  0.2578
 2780SOL    HW118654   7.439   1.035   7.367 -0.8135 -0.7958  1.1268
 2780SOL    HW218655   7.534   1.008   7.481 -1.3086  0.2440  1.8039
 2781SOL     OW18656   1.376   8.043   6.437 -0.1794  0.2696 -0.4221
 2781SOL    HW118657   1.461   8.082   6.413 -0.6283  1.0740 -0.7551
 2781SOL    HW218658   1.328   8.115   6.478  0.1985 -0.8029  2.1190
 2782SOL     OW18659  11.446  12.470  12.098 -0.1889 -0.1221  0.1665
 2782SOL    HW118660  11.487  12.539  12.150 -0.1870  0.7057 -0.9041
 2782SOL    HW218661  11.355  12.498  12.087 -0.5329 -0.9468  0.8234
 2783SOL     OW18662   1.732   1.103  10.041  0.0457  0.2551 -0.3664
 2783SOL    HW118663   1.822   1.084  10.015  0.4317  2.3231 -0.6547
 2783SOL    HW218664   1.680   1.083   9.963  0.6635  2.0072 -1.2833
 2784SOL     OW18665   5.382  10.905   3.128 -0.0710 -0.4696 -0.3394
 2784SOL    HW118666   5.383  10.863   3.042 -1.7476 -0.6931 -0.2837
 2784SOL    HW218667   5.321  10.853   3.180  1.5483 -0.8640  1.3017
 2785SOL     OW18668  12.017   7.203  10.598 -0.9392  0.3130 -0.7652
 2785SOL    HW118669  11.928   7.231  10.620 -1.9364 -1.3924 -2.3160
 2785SOL    HW218670  12.016   7.193  10.502  1.3435  1.5322 -0.9816
 2786SOL     OW18671   9.241   0.201   5.097  0.6062 -0.2756 -0.8770
 2786SOL    HW118672   9.245   0.261   5.023  0.9387 -0.6538 -1.1690
 2786SOL    HW218673   9.330   0.166   5.104  0.8187  0.4562  0.2828
 2787SOL     OW18674   5.120   4.975   8.465  0.4211 -0.1506  0.4994
 2787SOL    HW118675   5.172   5.049   8.497 -1.1279  1.0618  0.3440
 2787SOL    HW218676   5.032   4.992   8.500 -0.1954 -1.3678 -0.4245
 2788SOL     OW18677   6.410  10.929   9.455  0.1697 -0.3513  1.0020
 2788SOL    HW118678   6.339  10.877   9.416 -0.7831  0.7343  1.2304
 2788SOL    HW218679   6.378  10.951   9.542  0.7214  0.2617  1.0557
 2789SOL     OW18680   6.053   9.575   6.784 -0.0243 -0.0412 -0.2551
 2789SOL    HW118681   6.117   9.525   6.733  0.7491 -0.5790  1.2069
 2789SOL    HW218682   5.970   9.559   6.738  0.7692  0.1790 -1.8190
 2790SOL     OW18683  12.549   4.574   2.927 -0.3226  0.4017  0.2232
 2790SOL    HW118684  12.498   4.641   2.881 -0.0177  1.0120  0.7471
 2790SOL    HW218685  12.494   4.547   3.000 -0.4104  0.1420  0.0607
 2791SOL     OW18686  11.815   6.510   3.576  0.3163 -0.5543  0.1616
 2791SOL    HW118687  11.766   6.504   3.493  3.1560  0.2004 -1.7316
 2791SOL    HW218688  11.790   6.595   3.612  2.5923  1.4843 -2.5796
 2792SOL     OW18689   3.225  12.019  11.825 -0.0567 -0.3834  0.2245
 2792SOL    HW118690   3.173  11.939  11.828 -0.3055 -0.2488 -0.2975
 2792SOL    HW218691   3.168  12.083  11.782  0.1697  0.0490  0.5609
 2793SOL     OW18692  12.359  12.630   3.244  0.1584  0.1126  0.4187
 2793SOL    HW118693  12.285  12.635   3.185  1.1936  1.7896 -0.8179
 2793SOL    HW218694  12.414  12.561   3.207  0.3440  0.5071 -0.0564
 2794SOL     OW18695   6.735  12.337   1.365 -0.1279 -0.2036  0.1758
 2794SOL    HW118696   6.790  12.304   1.294 -0.7133 -1.2320  0.1755
 2794SOL    HW218697   6.781  12.312   1.445  0.0027 -0.0009  0.1627
 2795SOL     OW18698   9.297   4.833   7.741 -0.0516 -0.2260  0.1304
 2795SOL    HW118699   9.211   4.813   7.702 -0.0986 -0.0532  0.1463
 2795SOL    HW218700   9.284   4.817   7.835  0.0240 -0.5114  0.0948
 2796SOL     OW18701   3.833   6.306   4.308  0.0595  0.1507 -0.0733
 2796SOL    HW118702   3.800   6.331   4.394  2.3430 -0.1026  0.9438
 2796SOL    HW218703   3.855   6.389   4.265  0.5219  0.2122  0.2787
 2797SOL     OW18704   1.311   5.117   1.193 -0.2070 -0.6838  0.3956
 2797SOL    HW118705   1.255   5.113   1.270 -0.7811  1.4539  0.1450
 2797SOL    HW218706   1.399   5.097   1.227 -0.4433  0.2261  1.6190
 2798SOL     OW18707   7.559   0.027  11.736 -0.4289  0.8525 -0.0596
 2798SOL    HW118708   7.565   0.038  11.642  1.1238 -0.8249 -0.2072
 2798SOL    HW218709   7.560   0.116  11.771 -0.4515  1.4768 -1.5710
 2799SOL     OW18710   4.128   5.797   1.338  0.0991 -0.1120 -0.1403
 2799SOL    HW118711   4.203   5.739   1.321  0.1036 -0.8176  1.9099
 2799SOL    HW218712   4.168   5.876   1.376 -0.0951  0.0820 -0.3441
 2800SOL     OW18713   1.175   4.920  12.287  0.0282 -0.6247 -0.4920
 2800SOL    HW118714   1.153   4.969  12.366 -1.1876 -0.1755 -1.0779
 2800SOL    HW218715   1.090   4.900  12.248  0.6364  0.6966 -2.6068
 2801SOL     OW18716   8.851   5.881   3.743  0.2735 -0.2939  0.4973
 2801SOL    HW118717   8.885   5.900   3.656 -0.7387 -2.5784 -0.4754
 2801SOL    HW218718   8.823   5.966   3.777 -0.0303  0.5689 -1.7330
 2802SOL     OW18719   9.218   5.323   5.987  0.3849 -0.2935  0.3881
 2802SOL    HW118720   9.125   5.314   5.969  0.5416  0.1878 -0.7904
 2802SOL    HW218721   9.254   5.235   5.978  0.4086 -0.1141 -1.5154
 2803SOL     OW18722   7.028   0.579   3.938  0.1391  0.0915 -0.0663
 2803SOL    HW118723   7.123   0.567   3.945  0.1767  0.2363 -0.3259
 2803SOL    HW218724   7.017   0.661   3.890 -0.1185  0.1130  0.0260
 2804SOL     OW18725   9.948  12.577  10.147 -0.5687  0.4619  0.5229
 2804SOL    HW118726   9.955  12.592  10.052  0.1224  0.9689  0.6488
 2804SOL    HW218727  10.004  12.643  10.186 -0.9569  0.3399  1.3048
 2805SOL     OW18728   8.043  12.264   8.058  0.2271 -0.6995 -0.0942
 2805SOL    HW118729   8.093  12.340   8.090 -1.7352  0.2994  0.8063
 2805SOL    HW218730   7.963  12.302   8.022  0.0568 -2.2395 -1.4481
 2806SOL     OW18731   3.951   2.258   3.935  0.1602 -0.0863  0.0459
 2806SOL    HW118732   4.043   2.283   3.934  0.6250 -1.4759 -2.8448
 2806SOL    HW218733   3.903   2.341   3.928  1.1412  0.6583  1.7484
 2807SOL     OW18734  10.213   8.823   0.185  0.4113 -0.0482  0.0477
 2807SOL    HW118735  10.139   8.856   0.236  0.0183  1.4678 -1.4064
 2807SOL    HW218736  10.173   8.779   0.110  0.9940 -0.1892 -0.1869
 2808SOL     OW18737   4.497   6.614   1.976 -0.3113  0.2052 -0.5454
 2808SOL    HW118738   4.543   6.596   2.058 -0.8065  1.1256 -0.0572
 2808SOL    HW218739   4.500   6.530   1.929  0.1072 -0.2969  0.3410
 2809SOL     OW18740   4.242  12.836  10.496 -0.0591  0.4163  0.2156
 2809SOL    HW118741   4.282  12.844  10.409 -0.3012  0.7265  0.1298
 2809SOL    HW218742   4.172  12.773  10.484  1.5602 -1.5880  0.7880
 2810SOL     OW18743   0.302  10.540   4.925 -0.4014 -0.2255  0.5013
 2810SOL    HW118744   0.355  10.620   4.923  0.5047 -0.7791  1.4706
 2810SOL    HW218745   0.258  10.543   5.010 -0.8921 -0.4449  0.2604
 2811SOL     OW18746   2.040   9.980   1.899 -0.2691 -0.7280 -0.7740
 2811SOL    HW118747   2.063  10.059   1.850  1.1326 -0.4890  0.1913
 2811SOL    HW218748   2.066   9.908   1.843  0.4314 -0.4681 -0.7914
 2812SOL     OW18749   3.108   8.465   8.239 -0.0135  0.0898 -0.3860
 2812SOL    HW118750   3.187   8.512   8.264  0.7596 -1.5008  0.2704
 2812SOL    HW218751   3.138   8.397   8.179 -1.1178  0.4449 -1.3788
 2813SOL     OW18752  12.769   7.513   5.053  0.1775 -0.4254 -0.2690
 2813SOL    HW118753  12.703   7.495   5.120  1.1701  0.4330  0.9701
 2813SOL    HW218754  12.740   7.461   4.977  0.1897 -3.1997  1.4798
 2814SOL     OW18755   2.462  11.182   2.144  0.2179  0.4452  0.1195
 2814SOL    HW118756   2.500  11.249   2.088  1.8801 -0.1111  0.5284
 2814SOL    HW218757   2.367  11.188   2.128  0.6092  0.0955 -2.9811
 2815SOL     OW18758   4.245   2.255   1.346  0.6478  0.2748 -0.6614
 2815SOL    HW118759   4.232   2.279   1.254 -0.4508  1.9087 -0.1473
 2815SOL    HW218760   4.331   2.290   1.368  1.8980 -2.0157 -1.5716
 2816SOL     OW18761   0.587  12.807   8.907 -0.0081 -0.2334  0.2883
 2816SOL    HW118762   0.632  12.776   8.829 -1.1199 -0.1951 -0.4035
 2816SOL    HW218763   0.608  12.901   8.911 -1.9177  0.3472 -1.4478
 2817SOL     OW18764   1.866  10.192  12.328 -0.1045 -0.0813  0.0259
 2817SOL    HW118765   1.806  10.255  12.289 -0.6328  0.8978  2.2749
 2817SOL    HW218766   1.891  10.231  12.412  0.7316 -2.1992  0.8303
 2818SOL     OW18767   7.806   3.483   1.425 -0.4860 -0.0884  0.1527
 2818SOL    HW118768   7.822   3.399   1.468 -0.2180 -0.3521 -0.4646
 2818SOL    HW218769   7.893   3.517   1.404 -0.5809  0.4692  0.6324
 2819SOL     OW18770   2.148  10.883   7.068 -0.4081 -0.0563  0.2857
 2819SOL    HW118771   2.175  10.940   6.996  1.2789  0.0609  0.9709
 2819SOL    HW218772   2.138  10.942   7.143  1.6147 -0.6290  1.0671
 2820SOL     OW18773   9.881  12.732   4.001 -0.1772 -0.3316  0.1732
 2820SOL    HW118774   9.899  12.645   3.965 -1.1339 -0.9555  1.1551
 2820SOL    HW218775   9.832  12.776   3.932  0.9618 -0.2753 -0.6373
 2821SOL     OW18776   9.266   1.113  10.519  0.7403  0.1302 -0.0127
 2821SOL    HW118777   9.295   1.161  10.597 -0.0928 -1.3794  1.2890
 2821SOL    HW218778   9.240   1.181  10.457  1.4721  1.3767  0.9908
 2822SOL     OW18779   4.511  11.562   0.587  0.7613 -0.0127 -0.6052
 2822SOL    HW118780   4.463  11.482   0.609 -0.3479  0.6102 -0.7002
 2822SOL    HW218781   4.565  11.580   0.664  1.1753 -0.9439 -0.6592
 2823SOL     OW18782  12.369   9.884   8.260  0.5852 -0.2566 -0.0182
 2823SOL    HW118783  12.385   9.884   8.354  0.1237  0.9757  0.0675
 2823SOL    HW218784  12.320   9.803   8.245  1.9092 -1.2142  0.5549
 2824SOL     OW18785  11.332   7.510  11.371 -0.1239  0.3105  0.1867
 2824SOL    HW118786  11.343   7.572  11.443 -2.0877  1.0514 -0.0988
 2824SOL    HW218787  11.251   7.463  11.392 -1.1838  1.0888 -1.8779
 2825SOL     OW18788   3.795   8.913  11.413 -0.2302  0.4259 -0.1057
 2825SOL    HW118789   3.844   8.834  11.436 -0.7903  0.2729  0.5809
 2825SOL    HW218790   3.704   8.892  11.434 -0.3505  1.3463  0.3283
 2826SOL     OW18791   1.797   5.602   7.046  0.0082  0.4660  0.4249
 2826SOL    HW118792   1.879   5.640   7.077 -0.4874  1.8603  0.1262
 2826SOL    HW218793   1.741   5.599   7.124  0.2077 -0.1525  0.5534
 2827SOL     OW18794   4.334   6.529   2.454  0.8310 -0.1435  0.1698
 2827SOL    HW118795   4.351   6.473   2.378  2.5363 -0.7025  0.9108
 2827SOL    HW218796   4.240   6.520   2.470  0.5564 -0.4965 -1.4810
 2828SOL     OW18797   2.832   4.419   8.887 -0.0239  0.2039  0.2618
 2828SOL    HW118798   2.887   4.414   8.965 -0.4897  0.6935  0.6286
 2828SOL    HW218799   2.743   4.431   8.921 -0.6932 -2.6369 -0.2410
 2829SOL     OW18800   4.482  12.632   5.173  0.0215 -0.4236  0.2200
 2829SOL    HW118801   4.389  12.651   5.175  0.4741  2.8110 -2.0367
 2829SOL    HW218802   4.498  12.600   5.084  0.9765 -1.6323  0.8061
 2830SOL     OW18803   8.486  12.335  11.643 -0.0847 -0.3953  0.3141
 2830SOL    HW118804   8.547  12.266  11.618  0.0257  0.1229 -0.9453
 2830SOL    HW218805   8.542  12.405  11.677  0.2208  0.5968 -2.0274
 2831SOL     OW18806  12.388  11.321   4.154 -0.5021 -0.8916  0.5492
 2831SOL    HW118807  12.479  11.333   4.125 -0.3070  1.3466  1.8428
 2831SOL    HW218808  12.335  11.364   4.087 -0.6090 -1.9136 -0.0393
 2832SOL     OW18809   2.113  12.291   6.435  0.5299  0.1389  0.5792
 2832SOL    HW118810   2.036  12.258   6.481  0.5272  0.0537  0.5150
 2832SOL    HW218811   2.185  12.280   6.497  1.1668 -3.0674 -0.5390
 2833SOL     OW18812   9.976   0.969   5.111 -0.5607  0.4486 -0.2481
 2833SOL    HW118813   9.945   1.057   5.131 -0.6118  0.9193 -2.1749
 2833SOL    HW218814   9.897   0.915   5.114 -0.2559 -0.0085  2.9197
 2834SOL     OW18815   2.461   5.453   8.551 -0.3335  0.0463  0.0246
 2834SOL    HW118816   2.455   5.439   8.645 -1.1803  1.7018  0.2661
 2834SOL    HW218817   2.399   5.391   8.513 -1.9826  1.1567  0.7947
 2835SOL     OW18818   6.951   0.492   7.900 -0.0338 -0.2749  0.3618
 2835SOL    HW118819   6.926   0.413   7.948  0.7693 -0.2391  0.8564
 2835SOL    HW218820   7.042   0.508   7.926  0.5530 -0.4382 -1.4277
 2836SOL     OW18821   6.001   9.131   2.242 -0.6965 -0.2228 -0.0916
 2836SOL    HW118822   5.993   9.058   2.181 -1.8989 -1.0572  0.9944
 2836SOL    HW218823   6.018   9.089   2.326 -1.0186  0.7638  0.4777
 2837SOL     OW18824  10.808   2.498   3.168 -0.0686 -0.5635 -0.3045
 2837SOL    HW118825  10.833   2.413   3.205  1.8265  0.4413  0.9177
 2837SOL    HW218826  10.891   2.545   3.159 -1.2490  2.0160  1.2935
 2838SOL     OW18827   2.523   6.252   5.272  0.6183 -0.2279 -0.2025
 2838SOL    HW118828   2.540   6.181   5.209  0.5683 -1.1940  0.8510
 2838SOL    HW218829   2.542   6.214   5.357 -3.7497 -0.5021  0.8771
 2839SOL     OW18830   2.032   7.578   9.564  0.0932 -0.4226 -0.5847
 2839SOL    HW118831   2.062   7.626   9.487 -0.2979 -0.8623 -1.0152
 2839SOL    HW218832   1.965   7.636   9.602  1.3910  0.5247  0.3390
 2840SOL     OW18833   1.137   4.498   4.552 -0.2619  0.5562 -0.4391
 2840SOL    HW118834   1.164   4.586   4.579  1.3463 -0.3298  1.0932
 2840SOL    HW218835   1.213   4.462   4.506 -0.2632 -0.5769  0.3776
 2841SOL     OW18836   9.526  11.899   9.148 -0.3484 -0.3193 -0.8775
 2841SOL    HW118837   9.438  11.875   9.179  0.1225 -0.4048  0.4534
 2841SOL    HW218838   9.538  11.847   9.069 -0.9280 -1.4467 -0.2557
 2842SOL     OW18839   2.496   4.252   5.524  0.4317  0.3440 -0.3147
 2842SOL    HW118840   2.403   4.237   5.507  0.2461  1.3564 -0.2646
 2842SOL    HW218841   2.520   4.184   5.587 -0.5247  0.6828  0.4348
 2843SOL     OW18842  12.067  12.905   4.029 -0.4311 -0.2899  0.0108
 2843SOL    HW118843  11.985  12.952   4.042 -0.0356  0.2429  0.6159
 2843SOL    HW218844  12.071  12.844   4.103  0.3330  0.5847  0.7023
 2844SOL     OW18845   4.913   6.548   7.204  0.2678  0.0593  0.0438
 2844SOL    HW118846   4.829   6.594   7.203  0.8416  1.1381  0.0752
 2844SOL    HW218847   4.976   6.613   7.236  1.1894 -0.6034 -0.3612
 2845SOL     OW18848   4.662   7.217  10.060  0.0200  0.5094  0.1042
 2845SOL    HW118849   4.753   7.245  10.070  0.1153  0.0277  0.6738
 2845SOL    HW218850   4.648   7.157  10.134 -0.9215  1.0039  0.3385
 2846SOL     OW18851   5.310   0.793  11.454  0.0606 -0.3843 -0.3220
 2846SOL    HW118852   5.399   0.772  11.425 -0.2804  0.3361 -1.9861
 2846SOL    HW218853   5.323   0.846  11.533  1.0801 -0.8083 -0.1883
 2847SOL     OW18854   1.567  10.251   8.274 -0.0982  0.3925 -0.0426
 2847SOL    HW118855   1.505  10.209   8.335  1.2949  0.2570  1.3349
 2847SOL    HW218856   1.533  10.230   8.187 -2.7882  1.5179  0.6347
 2848SOL     OW18857  12.973   0.069   1.289  0.0408 -0.5211  0.2695
 2848SOL    HW118858  12.999   0.118   1.211  1.9448 -1.0839  0.4986
 2848SOL    HW218859  12.991   0.129   1.362  1.0320 -1.0202  0.4506
 2849SOL     OW18860   7.281   6.537   2.778  0.1911 -0.2266  0.0224
 2849SOL    HW118861   7.374   6.538   2.755  0.6789 -0.2485  1.8057
 2849SOL    HW218862   7.245   6.616   2.737  1.0626 -0.0548 -0.4371
 2850SOL     OW18863  11.714   7.695  11.384  0.4681 -0.3087 -0.3417
 2850SOL    HW118864  11.687   7.750  11.457 -0.6790 -1.3761  0.0538
 2850SOL    HW218865  11.810   7.694  11.389  0.4046 -0.3334  1.1042
 2851SOL     OW18866   3.017   1.694  12.081  0.4404 -0.3761  0.2100
 2851SOL    HW118867   3.050   1.695  11.992 -0.6636 -2.0621 -0.2676
 2851SOL    HW218868   3.075   1.753  12.129  0.3373  1.5036 -1.8341
 2852SOL     OW18869   9.635   0.820   0.867 -0.7765  0.3868 -0.2854
 2852SOL    HW118870   9.636   0.752   0.800 -0.3925 -0.4258  0.5222
 2852SOL    HW218871   9.652   0.902   0.820  0.6255 -0.3084 -1.0174
 2853SOL     OW18872  10.169   5.551   3.233 -0.2281  0.3677  0.0064
 2853SOL    HW118873  10.130   5.573   3.148 -1.0043  1.3569  0.5949
 2853SOL    HW218874  10.178   5.456   3.231 -0.6114  0.3339 -1.0219
 2854SOL     OW18875  12.213   3.506   2.971  0.6531  0.2257  0.2311
 2854SOL    HW118876  12.196   3.563   2.896 -0.5482  0.1802  0.4463
 2854SOL    HW218877  12.308   3.496   2.972  0.6852 -0.0795 -1.5200
 2855SOL     OW18878   9.245   4.100   2.048  0.4728 -0.6411 -0.1601
 2855SOL    HW118879   9.202   4.027   2.094 -1.1205 -0.7410 -1.7160
 2855SOL    HW218880   9.175   4.163   2.032  1.0530 -0.4236 -2.0643
 2856SOL     OW18881  12.734   1.621   3.741  0.4215  0.4282  0.9988
 2856SOL    HW118882  12.721   1.653   3.831 -1.0475  1.1736  0.5601
 2856SOL    HW218883  12.724   1.699   3.686 -3.1679 -0.5874 -0.0978
 2857SOL     OW18884   7.611   9.916   4.893 -0.2179  0.5521  0.0503
 2857SOL    HW118885   7.527   9.937   4.853  0.0499 -1.1856 -1.5837
 2857SOL    HW218886   7.616   9.820   4.887  1.0279  0.4572  1.9020
 2858SOL     OW18887   9.186   8.236   7.215  0.1419 -0.0584 -0.3223
 2858SOL    HW118888   9.205   8.159   7.162 -1.9338 -0.4306 -0.6423
 2858SOL    HW218889   9.237   8.307   7.176  0.1455 -0.7419 -1.6061
 2859SOL     OW18890   5.083   3.825   5.919  0.1653 -0.4620 -0.2877
 2859SOL    HW118891   5.114   3.757   5.860 -0.5594 -1.1273  0.0725
 2859SOL    HW218892   4.993   3.799   5.941  0.6237 -0.5903  1.6091
 2860SOL     OW18893   6.074   9.849  12.100  0.3594  0.4629  0.2348
 2860SOL    HW118894   6.048   9.937  12.073 -1.1304  0.2556  0.8876
 2860SOL    HW218895   6.093   9.858  12.193  1.0494  0.2587  0.1168
 2861SOL     OW18896   0.902  10.564  12.832  0.1798 -0.1696 -0.6182
 2861SOL    HW118897   0.885  10.477  12.867 -0.6497  0.2471  0.0499
 2861SOL    HW218898   0.832  10.578  12.768 -0.8744  0.7506  0.6713
 2862SOL     OW18899   6.852   9.114   8.836 -0.6158 -0.2377 -0.0056
 2862SOL    HW118900   6.884   9.033   8.875 -0.5717 -0.2995 -0.1696
 2862SOL    HW218901   6.895   9.118   8.751  1.8821  1.5193  1.2104
 2863SOL     OW18902   0.832   6.471   3.053 -0.1439 -0.0067 -0.5692
 2863SOL    HW118903   0.809   6.476   2.960  2.0992  1.2374 -1.1439
 2863SOL    HW218904   0.918   6.428   3.054  0.2851  0.8100  0.8153
 2864SOL     OW18905   0.166   2.929   9.773  0.0348 -0.0308  0.4050
 2864SOL    HW118906   0.142   2.896   9.687 -1.4031  0.3369  0.6270
 2864SOL    HW218907   0.174   3.023   9.762  0.1969 -0.0188  0.6026
 2865SOL     OW18908   4.501  10.494   7.717  0.2570  0.1496  0.1536
 2865SOL    HW118909   4.587  10.486   7.674  0.5400  0.8880  0.5476
 2865SOL    HW218910   4.439  10.459   7.654  0.8510 -0.3650 -0.1549
 2866SOL     OW18911  11.229  11.820   1.392 -0.5480 -0.3860  0.1535
 2866SOL    HW118912  11.214  11.817   1.298 -0.3913  1.2353  0.0504
 2866SOL    HW218913  11.323  11.803   1.402 -0.3855  0.3663 -0.0620
 2867SOL     OW18914   5.760  11.351   6.369 -0.3975  0.4230  0.2139
 2867SOL    HW118915   5.802  11.316   6.291  1.1935  0.5961  0.9460
 2867SOL    HW218916   5.715  11.429   6.339 -1.4746 -0.5790 -0.8790
 2868SOL     OW18917   4.097   5.675  10.890 -0.7096 -0.1869  0.1899
 2868SOL    HW118918   4.036   5.623  10.943 -0.2922  0.4325  1.3249
 2868SOL    HW218919   4.091   5.763  10.927  0.3414  0.0367 -0.1404
 2869SOL     OW18920   8.990   5.045   7.234 -0.2585  0.1602 -0.0509
 2869SOL    HW118921   8.947   4.995   7.303  1.4881 -2.1038 -0.4793
 2869SOL    HW218922   8.962   5.003   7.153  0.4932  0.4644 -0.4812
 2870SOL     OW18923   2.368   5.592   0.481  0.0054  0.6619  0.0940
 2870SOL    HW118924   2.304   5.643   0.431  0.1483  0.5153 -0.2442
 2870SOL    HW218925   2.350   5.614   0.572 -0.2509  0.9452 -0.0217
 2871SOL     OW18926   2.082   6.253   0.244 -0.3702  0.2714 -0.0064
 2871SOL    HW118927   2.172   6.249   0.211 -0.5628 -1.4199 -0.4214
 2871SOL    HW218928   2.086   6.317   0.315  1.7596 -1.5792  1.7050
 2872SOL     OW18929   2.775   0.853  12.448  0.2233 -0.2986 -0.3883
 2872SOL    HW118930   2.696   0.898  12.417  0.2516  0.2403  0.2874
 2872SOL    HW218931   2.825   0.833  12.369  0.9642  2.2584 -0.6526
 2873SOL     OW18932   6.077   9.875   3.923  0.3930 -0.0943  0.5381
 2873SOL    HW118933   6.106   9.785   3.917  1.3195  0.1985  0.4825
 2873SOL    HW218934   6.075   9.894   4.017 -0.6826 -0.4451  0.5916
 2874SOL     OW18935   7.315   2.737   3.137 -0.5543  0.2285 -0.1722
 2874SOL    HW118936   7.331   2.644   3.150 -2.9453 -0.2525 -0.0669
 2874SOL    HW218937   7.365   2.780   3.206 -0.4083 -1.0753  0.5702
 2875SOL     OW18938  12.938   8.712   3.756  0.0314 -0.3559  0.1997
 2875SOL    HW118939  12.999   8.781   3.728 -1.1543  1.6372  2.1423
 2875SOL    HW218940  12.899   8.680   3.675  0.3820  1.5410 -0.7914
 2876SOL     OW18941  12.727   5.408   6.679 -0.1201 -0.1031 -0.3089
 2876SOL    HW118942  12.703   5.466   6.751  0.9932  0.4480 -0.3648
 2876SOL    HW218943  12.697   5.453   6.601  0.0895  0.0400 -0.3044
 2877SOL     OW18944  10.451   6.654   6.148  0.1383  0.5889  0.3989
 2877SOL    HW118945  10.522   6.682   6.207  1.4318  0.1726 -0.9125
 2877SOL    HW218946  10.464   6.706   6.069  1.3517 -2.0968 -1.3132
 2878SOL     OW18947   7.038   3.971   4.998  0.0512 -0.0404  0.7906
 2878SOL    HW118948   7.111   4.008   4.948 -0.1700  0.4828  0.8382
 2878SOL    HW218949   7.037   3.878   4.975  0.9561 -0.1278  1.0694
 2879SOL     OW18950  11.071   2.087   2.748 -0.4384  0.0695 -0.1953
 2879SOL    HW118951  11.160   2.104   2.720 -0.2376  1.0297  0.9738
 2879SOL    HW218952  11.032   2.039   2.674  0.8812  0.0439 -0.9114
 2880SOL     OW18953   7.618  11.290  12.502 -0.4039  0.2481  0.0910
 2880SOL    HW118954   7.686  11.293  12.435  0.3802 -1.5644  0.7676
 2880SOL    HW218955   7.554  11.355  12.473  0.4331  0.2748 -1.8368
 2881SOL     OW18956   2.208   3.995   5.412 -0.2392 -0.2926 -0.0821
 2881SOL    HW118957   2.164   3.951   5.339 -0.5421 -2.6455  1.4038
 2881SOL    HW218958   2.158   3.969   5.490  1.0765  0.7140  1.1624
 2882SOL     OW18959   0.292   6.530   7.169 -0.1138 -0.0104  0.0614
 2882SOL    HW118960   0.285   6.476   7.248  2.0494 -0.1153  0.2447
 2882SOL    HW218961   0.203   6.532   7.133 -1.2051  0.1402  2.5507
 2883SOL     OW18962  11.186   2.530  11.894 -0.1848  0.0809  0.1588
 2883SOL    HW118963  11.091   2.522  11.895 -0.2621  0.5922  2.1432
 2883SOL    HW218964  11.203   2.615  11.855 -0.5660  0.0930  0.0162
 2884SOL     OW18965  12.711  12.846   4.336  0.5150  0.3208  0.4017
 2884SOL    HW118966  12.641  12.860   4.273 -0.8323 -3.1352  0.9031
 2884SOL    HW218967  12.774  12.792   4.290  0.6431 -0.3174  1.3121
 2885SOL     OW18968  12.560  10.242   9.989  0.1045 -0.7282  0.3005
 2885SOL    HW118969  12.588  10.273   9.903 -2.1507 -1.9709 -0.9835
 2885SOL    HW218970  12.557  10.321  10.043 -2.2147  0.8461 -1.8853
 2886SOL     OW18971   2.051   3.508   2.299 -0.1346  0.6048  0.1741
 2886SOL    HW118972   2.099   3.583   2.264  1.8528 -0.7585 -0.1734
 2886SOL    HW218973   2.082   3.499   2.389  0.0229 -0.0918  0.0564
 2887SOL     OW18974   3.435  11.463   8.186  0.1401 -0.3673 -0.1000
 2887SOL    HW118975   3.524  11.496   8.184 -0.4914  1.5018  0.2894
 2887SOL    HW218976   3.438  11.387   8.245  1.8082 -1.5763 -1.6543
 2888SOL     OW18977   6.530   9.594  12.168  0.5555 -0.3104 -0.4064
 2888SOL    HW118978   6.468   9.581  12.096 -0.9320  1.2179  0.5132
 2888SOL    HW218979   6.616   9.587  12.126 -0.2450 -0.2262 -2.1927
 2889SOL     OW18980   1.742  11.941   0.783 -0.3482  0.5940  0.6407
 2889SOL    HW118981   1.691  12.005   0.833 -0.2994  0.9786  0.2134
 2889SOL    HW218982   1.737  11.973   0.693 -0.0402  0.1747  0.4723
 2890SOL     OW18983   2.374   8.510   3.628 -0.3690  1.0423  0.4685
 2890SOL    HW118984   2.333   8.454   3.694  0.1793 -0.4290 -0.3845
 2890SOL    HW218985   2.333   8.484   3.545  0.9561  0.8028 -0.1473
 2891SOL     OW18986   6.212   1.925   2.167 -0.5462  0.0925 -0.0533
 2891SOL    HW118987   6.276   1.953   2.101 -0.1825 -1.5730 -0.4573
 2891SOL    HW218988   6.127   1.946   2.130 -0.3319 -0.5995 -0.9593
 2892SOL     OW18989   3.937   3.503   0.369  0.4605  0.3924 -0.1558
 2892SOL    HW118990   3.889   3.453   0.302 -0.0848  0.7658 -0.0447
 2892SOL    HW218991   3.884   3.580   0.384  0.7657  0.4858  0.4584
 2893SOL     OW18992   0.947  11.768   9.663 -0.1227 -0.2595 -0.0871
 2893SOL    HW118993   1.020  11.825   9.688  1.0348 -0.7711 -2.1135
 2893SOL    HW218994   0.888  11.826   9.614  0.9008 -0.6825 -1.8758
 2894SOL     OW18995  11.801   5.769   5.597  0.4649 -0.0806  0.5330
 2894SOL    HW118996  11.838   5.717   5.668 -0.6666  0.9235  1.9012
 2894SOL    HW218997  11.812   5.860   5.625  0.4550  0.3577 -0.8133
 2895SOL     OW18998   1.459   1.106  12.196  0.0305  1.1302 -0.5848
 2895SOL    HW118999   1.434   1.015  12.178  2.5511  0.3060 -0.2973
 2895SOL    HW219000   1.377   1.149  12.218 -1.0493 -1.5034  1.0211
 2896SOL     OW19001   9.210   2.873   3.565 -0.3073  0.5033  0.3750
 2896SOL    HW119002   9.157   2.796   3.547 -0.8010  1.2826 -1.7902
 2896SOL    HW219003   9.156   2.925   3.625 -1.2370  0.4826 -0.4284
 2897SOL     OW19004   3.464   1.199   9.961  0.1335  1.0515 -0.2033
 2897SOL    HW119005   3.485   1.146   9.884 -2.8115 -0.0257 -0.3753
 2897SOL    HW219006   3.535   1.180  10.023  0.3331 -1.4110 -1.0786
 2898SOL     OW19007   6.940  11.156   4.806  0.0589 -0.5629  0.5022
 2898SOL    HW119008   6.923  11.065   4.783  1.4287 -1.0233  1.1634
 2898SOL    HW219009   6.857  11.201   4.792 -0.0623 -1.4188 -2.1064
 2899SOL     OW19010  10.577   7.383  12.717 -0.3377 -0.2436 -0.5159
 2899SOL    HW119011  10.553   7.460  12.769 -1.1039 -0.4115 -0.6074
 2899SOL    HW219012  10.672   7.386  12.712 -0.3504  0.6383 -0.4142
 2900SOL     OW19013  10.452   2.927   0.127  0.7015  0.6103 -0.0251
 2900SOL    HW119014  10.547   2.941   0.133  1.0858 -1.7648  0.3587
 2900SOL    HW219015  10.443   2.846   0.077 -1.1802  1.1563 -0.6569
 2901SOL     OW19016   9.870   5.612   9.739 -0.3927  0.4293 -0.3322
 2901SOL    HW119017   9.835   5.670   9.671  1.3687 -0.5150 -2.1437
 2901SOL    HW219018   9.836   5.525   9.717  1.6705 -0.2179 -1.1743
 2902SOL     OW19019   4.556   8.441   4.966 -0.4195 -0.0601  0.1454
 2902SOL    HW119020   4.504   8.361   4.972 -2.6997  1.0975 -2.3185
 2902SOL    HW219021   4.592   8.440   4.878  2.1603  0.2259  1.0895
 2903SOL     OW19022  11.016   4.910  11.074 -0.4749 -0.0805 -0.2055
 2903SOL    HW119023  10.929   4.870  11.075 -0.0928 -1.0013  1.7916
 2903SOL    HW219024  11.067   4.858  11.137  1.2538  1.0092 -0.6314
 2904SOL     OW19025   1.326   1.613  10.710 -0.8137  0.5128  0.2800
 2904SOL    HW119026   1.407   1.592  10.662 -1.4742 -4.5387  0.7419
 2904SOL    HW219027   1.271   1.657  10.646  1.8210  3.3517 -0.3044
 2905SOL     OW19028   5.814  10.933   7.733  0.0622  0.0763  0.8086
 2905SOL    HW119029   5.774  10.890   7.809 -0.3769  0.2198  0.6637
 2905SOL    HW219030   5.853  11.013   7.769  2.2955 -1.1861  1.3686
 2906SOL     OW19031   0.256   7.377   9.227 -0.0423  0.0578 -0.5025
 2906SOL    HW119032   0.304   7.391   9.309  0.2612  2.7342 -1.0409
 2906SOL    HW219033   0.219   7.289   9.235 -1.0453  0.6670  3.0148
 2907SOL     OW19034   2.194   3.707   2.215  0.4489 -0.2526 -0.4334
 2907SOL    HW119035   2.170   3.703   2.122  1.3349 -0.7445 -0.6542
 2907SOL    HW219036   2.252   3.783   2.222  3.6198 -2.3956 -1.1213
 2908SOL     OW19037   8.316  10.127  10.038 -0.3331  0.1540 -0.4387
 2908SOL    HW119038   8.356  10.190  10.099  0.4580 -1.6579  1.0435
 2908SOL    HW219039   8.339  10.160   9.951  2.9796  0.2105  0.2991
 2909SOL     OW19040  10.067   1.065   1.551 -0.0734 -0.2151 -0.0373
 2909SOL    HW119041  10.015   1.000   1.503 -0.5857 -1.0283  1.5328
 2909SOL    HW219042  10.128   1.013   1.602  0.8085  0.6509 -0.1878
 2910SOL     OW19043  12.014   5.859   5.099  0.5470 -0.1825 -0.6031
 2910SOL    HW119044  12.075   5.933   5.103 -1.0855  1.2483 -0.9978
 2910SOL    HW219045  11.998   5.836   5.190  1.7713 -0.6859 -0.4984
 2911SOL     OW19046   3.040   5.208   4.816  0.0182  0.5259 -0.1010
 2911SOL    HW119047   3.077   5.296   4.819  0.7135  0.2167  0.9488
 2911SOL    HW219048   3.026   5.184   4.907 -0.5184 -0.3118 -0.3870
 2912SOL     OW19049   5.138   3.271   2.574 -0.1066  0.0564  0.7961
 2912SOL    HW119050   5.056   3.317   2.555 -0.1950 -0.8215 -1.1402
 2912SOL    HW219051   5.206   3.323   2.531  0.2712  0.2906  1.6441
 2913SOL     OW19052   8.160  11.045   5.150 -0.0738 -0.1190  0.0952
 2913SOL    HW119053   8.240  11.079   5.190 -0.5338  0.7328  0.2986
 2913SOL    HW219054   8.139  11.106   5.079 -1.7693  0.9643  1.4538
 2914SOL     OW19055   3.773   9.073   4.050  0.1770  0.8443  0.1827
 2914SOL    HW119056   3.732   8.989   4.033  1.0582  0.4699 -0.1440
 2914SOL    HW219057   3.707   9.122   4.100 -0.5942  0.2125 -0.1898
 2915SOL     OW19058   2.980   1.896   1.922  0.0534 -0.1424 -0.0859
 2915SOL    HW119059   3.007   1.845   1.846  0.8912  1.2006 -0.7089
 2915SOL    HW219060   3.009   1.843   1.997  1.5672 -0.2669 -0.7243
 2916SOL     OW19061   8.863   8.902   7.798  0.1993 -0.2324  0.2506
 2916SOL    HW119062   8.812   8.953   7.735  0.1573  0.9086  1.1842
 2916SOL    HW219063   8.822   8.816   7.797 -1.6635  0.5944  0.8331
 2917SOL     OW19064  11.138   3.837   0.131  0.0907 -0.0050 -0.0080
 2917SOL    HW119065  11.160   3.819   0.222 -2.6167  0.0317  0.7492
 2917SOL    HW219066  11.133   3.750   0.090 -0.5205 -0.1574  0.3780
 2918SOL     OW19067   2.298   8.727  11.363 -0.0241  0.1167 -0.4231
 2918SOL    HW119068   2.217   8.683  11.338 -0.0430 -0.0165 -0.1354
 2918SOL    HW219069   2.269   8.806  11.408  0.0078  0.1916 -0.5334
 2919SOL     OW19070   6.728   3.759   2.732 -0.5096 -0.2169  0.3748
 2919SOL    HW119071   6.648   3.790   2.690  0.3228  1.1269 -0.2995
 2919SOL    HW219072   6.713   3.772   2.825 -0.6691  1.1262  0.1848
 2920SOL     OW19073   3.651  12.282   3.716 -0.2738  0.5053 -0.0677
 2920SOL    HW119074   3.684  12.193   3.703 -0.6416  0.4875 -0.8949
 2920SOL    HW219075   3.722  12.327   3.761 -0.5756 -0.5533  1.5777
 2921SOL     OW19076   4.970   7.076  12.131 -0.1178 -0.3418 -0.1255
 2921SOL    HW119077   4.891   7.024  12.114 -0.3651  0.2161 -0.7332
 2921SOL    HW219078   4.983   7.127  12.051  1.3296 -1.0123 -0.3407
 2922SOL     OW19079   5.592   8.816   9.624  0.4242  0.2919 -0.0639
 2922SOL    HW119080   5.678   8.838   9.660 -0.0567  2.1145  0.0884
 2922SOL    HW219081   5.575   8.885   9.559 -1.5826  0.9425  1.0645
 2923SOL     OW19082   9.399  12.177   3.029  0.4649  0.4123  0.0251
 2923SOL    HW119083   9.491  12.199   3.043  0.1974  1.3675  0.3294
 2923SOL    HW219084   9.387  12.187   2.934  1.0171 -1.1377 -0.2416
 2924SOL     OW19085  10.376   8.176   3.434 -0.2691 -0.1268 -0.4419
 2924SOL    HW119086  10.326   8.098   3.410 -0.4882 -0.7357  1.8484
 2924SOL    HW219087  10.315   8.229   3.485 -1.1380  3.0993 -4.2593
 2925SOL     OW19088   5.701  12.599   8.939 -0.0236  0.0134  0.1051
 2925SOL    HW119089   5.680  12.613   8.847 -0.7300  0.3065  0.3095
 2925SOL    HW219090   5.686  12.505   8.953  1.4544 -0.3346 -0.4173
 2926SOL     OW19091  10.815   4.018   2.386 -0.3448 -0.2335 -0.0172
 2926SOL    HW119092  10.829   4.103   2.344  1.5989  0.7616  2.3654
 2926SOL    HW219093  10.721   4.002   2.377 -0.5307  1.4620 -1.7781
 2927SOL     OW19094   2.481   0.078  12.850  0.0189 -0.3297 -0.0168
 2927SOL    HW119095   2.502   0.004  12.794  0.1724  0.7274 -1.4106
 2927SOL    HW219096   2.565   0.122  12.865  0.0488 -0.8180  1.4118
 2928SOL     OW19097   5.557   6.646   1.065  0.2827  0.4221  0.1152
 2928SOL    HW119098   5.503   6.663   1.142 -0.0987 -1.7862  0.3897
 2928SOL    HW219099   5.501   6.669   0.991 -0.1456  0.5033  0.4584
 2929SOL     OW19100   7.928   9.686  12.331  0.0301 -0.6213  0.1137
 2929SOL    HW119101   7.893   9.665  12.418  0.8010 -0.8375  0.3863
 2929SOL    HW219102   7.860   9.656  12.270 -0.3687 -0.7933  0.6290
 2930SOL     OW19103   1.634   4.785  11.097 -0.3155  0.6695 -0.4247
 2930SOL    HW119104   1.541   4.795  11.079 -0.2949 -0.9783 -1.6431
 2930SOL    HW219105   1.643   4.694  11.128  0.8599  0.8636 -0.1475
 2931SOL     OW19106   9.304   1.195  11.087  0.3461  0.1178 -0.2559
 2931SOL    HW119107   9.213   1.170  11.102  0.4514  0.0785  0.3469
 2931SOL    HW219108   9.352   1.161  11.163  0.8723  0.1032 -0.5847
 2932SOL     OW19109  11.332  10.780   5.763 -0.7604  0.1213  0.0335
 2932SOL    HW119110  11.361  10.859   5.717 -0.0138 -0.2207 -0.0967
 2932SOL    HW219111  11.325  10.713   5.695 -0.3366 -0.2047  0.3034
 2933SOL     OW19112  12.550   2.399   9.313  0.2310  0.1053 -0.7441
 2933SOL    HW119113  12.466   2.442   9.298  0.5799  2.0784  2.0995
 2933SOL    HW219114  12.614   2.470   9.315  1.4631 -0.9675  0.2494
 2934SOL     OW19115   8.114   8.634   9.936  0.3876 -0.1233  0.5052
 2934SOL    HW119116   8.207   8.617   9.925  0.1792 -0.8613 -0.2881
 2934SOL    HW219117   8.074   8.547   9.934 -0.4813  0.2732 -0.9230
 2935SOL     OW19118   3.302  10.363  10.566 -0.3022  0.4374 -0.1596
 2935SOL    HW119119   3.269  10.284  10.524  1.9590 -0.5722 -0.1939
 2935SOL    HW219120   3.318  10.337  10.657 -1.0479  1.3527  0.2540
 2936SOL     OW19121   0.355  10.139   5.329 -0.2166 -0.5137  0.3353
 2936SOL    HW119122   0.265  10.158   5.357  0.1234 -0.2123  1.2504
 2936SOL    HW219123   0.400  10.223   5.333  0.2058 -0.7343  0.2731
 2937SOL     OW19124  12.533   3.870   3.642  0.3348 -0.4441 -0.2761
 2937SOL    HW119125  12.491   3.854   3.726 -1.5880  3.4377 -0.2757
 2937SOL    HW219126  12.588   3.947   3.657  0.4606 -0.0550 -2.3921
 2938SOL     OW19127  12.016   6.003   6.907  0.0015 -0.1142  0.0426
 2938SOL    HW119128  11.961   5.966   6.839  0.1853 -1.2780  0.5109
 2938SOL    HW219129  12.061   5.928   6.945  1.5778  0.7580 -0.0262
 2939SOL     OW19130   1.712   9.938  10.510 -0.0439  0.3802 -0.2717
 2939SOL    HW119131   1.662  10.015  10.535 -0.8355 -0.3221  0.3677
 2939SOL    HW219132   1.792   9.943  10.562 -1.1013 -0.3893  1.5058
 2940SOL     OW19133   8.897   6.035   7.861  0.0951  0.3245 -0.1890
 2940SOL    HW119134   8.954   5.977   7.811 -0.0624 -0.5132  0.5752
 2940SOL    HW219135   8.954   6.105   7.891  1.2074 -1.4525  2.1285
 2941SOL     OW19136   0.284  12.633   1.097 -0.1371 -0.0858  0.2118
 2941SOL    HW119137   0.334  12.606   1.020 -0.4977  1.7091 -0.7071
 2941SOL    HW219138   0.347  12.681   1.150  0.2847 -1.8745  1.4265
 2942SOL     OW19139   6.321  12.336   4.098  0.6991  0.0471 -0.1459
 2942SOL    HW119140   6.357  12.425   4.091 -0.0772  0.2702 -1.7721
 2942SOL    HW219141   6.258  12.342   4.170  0.8224  0.7583 -0.0851
 2943SOL     OW19142   6.856  11.450   4.302 -0.0815  0.7855  0.5679
 2943SOL    HW119143   6.796  11.524   4.313  1.2954  2.3675 -1.7193
 2943SOL    HW219144   6.935  11.476   4.351 -0.4421 -0.3547  1.8279
 2944SOL     OW19145   4.316   8.849   8.617  0.0343  0.2201  0.2946
 2944SOL    HW119146   4.405   8.839   8.651  0.2804 -0.5785 -0.5709
 2944SOL    HW219147   4.274   8.765   8.635 -0.4866  0.5178  0.4974
 2945SOL     OW19148   0.298   7.303   2.625  0.5487  0.0578 -0.3853
 2945SOL    HW119149   0.298   7.340   2.537 -2.4680 -2.1645 -1.4914
 2945SOL    HW219150   0.374   7.244   2.626  0.5850  0.0597 -1.5355
 2946SOL     OW19151  11.368   4.109  10.620 -0.2796  0.2570 -0.5186
 2946SOL    HW119152  11.301   4.119  10.552 -1.0127 -1.0070 -0.0178
 2946SOL    HW219153  11.414   4.029  10.597 -1.3209 -0.8584  1.0972
 2947SOL     OW19154   2.605   7.467   5.917 -0.1942 -0.2528 -0.2488
 2947SOL    HW119155   2.597   7.375   5.893  0.7888 -0.4505  0.1052
 2947SOL    HW219156   2.693   7.474   5.954 -0.8513  0.4903  1.2484
 2948SOL     OW19157   9.190  12.551  10.589  0.1529  0.4661  0.5866
 2948SOL    HW119158   9.256  12.511  10.646  0.0054  1.2668  1.3437
 2948SOL    HW219159   9.233  12.558  10.503  0.7553  0.2005  0.8600
 2949SOL     OW19160  10.447   2.390   1.830 -0.3323  0.2322 -0.2335
 2949SOL    HW119161  10.515   2.401   1.896 -1.4880  1.1615  0.8589
 2949SOL    HW219162  10.375   2.445   1.860 -1.7840 -1.1321 -1.0571
 2950SOL     OW19163  10.941   5.590  10.282  0.1096  0.6686  0.5027
 2950SOL    HW119164  10.930   5.603  10.188  0.4550 -0.1411  0.3412
 2950SOL    HW219165  10.919   5.498  10.297 -3.3264  1.5378  1.7631
 2951SOL     OW19166   2.783   5.850  11.349 -0.0442 -0.8958 -0.2426
 2951SOL    HW119167   2.797   5.761  11.381  0.5256 -1.7169 -2.5745
 2951SOL    HW219168   2.737   5.839  11.266  0.6730  0.9331 -0.9417
 2952SOL     OW19169   1.973  12.365   9.139 -0.0072  0.1928  0.5232
 2952SOL    HW119170   2.066  12.344   9.131 -0.0131  0.4352 -0.2410
 2952SOL    HW219171   1.927  12.283   9.117 -0.0167  0.7615 -1.8334
 2953SOL     OW19172   1.317   2.494   7.283  0.4209  0.0783  0.0118
 2953SOL    HW119173   1.274   2.409   7.298 -0.0247  0.4347  0.8227
 2953SOL    HW219174   1.267   2.555   7.337 -0.4433  1.2219 -1.9647
 2954SOL     OW19175   5.736  10.726   0.574 -0.7000  0.7666  0.1126
 2954SOL    HW119176   5.719  10.671   0.650 -0.9986 -0.4382 -0.7855
 2954SOL    HW219177   5.820  10.696   0.541 -0.7367  1.0364 -0.2307
 2955SOL     OW19178  11.991   3.386   0.487 -0.3698 -0.2640  0.5982
 2955SOL    HW119179  11.988   3.290   0.496  1.9677 -0.4273  0.1425
 2955SOL    HW219180  12.084   3.407   0.479 -0.8543  2.0278  0.2517
 2956SOL     OW19181   2.297   8.807   8.128  0.1088 -0.1223  0.7639
 2956SOL    HW119182   2.299   8.723   8.081 -0.8832  0.7635 -0.9622
 2956SOL    HW219183   2.390   8.831   8.136  0.3493  0.4556 -2.3204
 2957SOL     OW19184   4.152   5.948   3.860 -0.0367  0.8624  0.2671
 2957SOL    HW119185   4.192   5.985   3.939  1.7836  2.9232 -1.4973
 2957SOL    HW219186   4.190   5.861   3.853  0.4973  1.0106  1.1486
 2958SOL     OW19187   0.990   4.288   9.054 -0.2085  0.1139 -0.5132
 2958SOL    HW119188   0.905   4.271   9.015 -0.2061 -0.9252 -0.0980
 2958SOL    HW219189   1.052   4.284   8.981 -0.3201 -0.8356 -0.5645
 2959SOL     OW19190   3.997   1.904   7.038 -0.3136 -0.1703 -0.2110
 2959SOL    HW119191   4.075   1.956   7.057  0.6794 -2.2014  1.7223
 2959SOL    HW219192   3.955   1.950   6.965  2.2881  1.4040 -0.8589
 2960SOL     OW19193   6.149   2.375   6.957  0.2856  0.0950 -0.3969
 2960SOL    HW119194   6.218   2.365   6.891  0.1582  0.6647 -0.6267
 2960SOL    HW219195   6.081   2.314   6.930 -0.5627  1.5933 -1.8707
 2961SOL     OW19196   1.465   0.660  10.818 -0.8632  0.1386 -0.2678
 2961SOL    HW119197   1.448   0.681  10.909 -1.2589  0.5466 -0.4315
 2961SOL    HW219198   1.554   0.625  10.817 -0.0183  2.1505 -0.0180
 2962SOL     OW19199  11.242   6.372   8.576  0.5193 -0.0406  0.6365
 2962SOL    HW119200  11.333   6.366   8.548  0.4997  0.3263  0.4831
 2962SOL    HW219201  11.240   6.447   8.635  0.5697 -0.8449  1.6751
 2963SOL     OW19202   5.262   2.257  11.521 -0.5786 -0.0594 -0.3620
 2963SOL    HW119203   5.212   2.201  11.580 -2.8006  1.1579 -0.9449
 2963SOL    HW219204   5.265   2.342  11.565 -0.4062  0.2929 -1.0259
 2964SOL     OW19205   0.866   6.449   9.260  0.5992 -0.1706  0.5637
 2964SOL    HW119206   0.777   6.468   9.291  0.3351 -1.0353  0.3676
 2964SOL    HW219207   0.921   6.459   9.337  0.0398 -1.6427  1.2070
 2965SOL     OW19208   6.242   6.851   5.554 -0.4062  0.0259 -0.3727
 2965SOL    HW119209   6.173   6.786   5.569  1.1111 -1.6688 -0.3697
 2965SOL    HW219210   6.241   6.864   5.459  1.1247 -2.2374 -0.7643
 2966SOL     OW19211   5.135   4.095   2.332 -0.3754 -0.1485  0.8873
 2966SOL    HW119212   5.117   4.133   2.246  1.5421  2.3400  1.4764
 2966SOL    HW219213   5.228   4.073   2.330 -0.1226  0.6308  2.5315
 2967SOL     OW19214   9.936   8.862  11.871 -0.0411  0.0688  0.2580
 2967SOL    HW119215   9.902   8.952  11.874  1.8020  0.7791  2.5867
 2967SOL    HW219216   9.908   8.829  11.785 -3.2747  1.8179  0.4708
 2968SOL     OW19217  10.522   1.875  10.952 -0.0796  0.5826 -0.4186
 2968SOL    HW119218  10.434   1.849  10.926 -0.0939  1.5630 -1.4033
 2968SOL    HW219219  10.561   1.912  10.873  1.8691 -1.4372 -0.5046
 2969SOL     OW19220  11.113   8.946   9.411  0.1082  0.7720 -0.1629
 2969SOL    HW119221  11.187   8.886   9.420  0.5412  1.3395  0.1619
 2969SOL    HW219222  11.042   8.892   9.375  0.9175  0.4025 -1.2576
 2970SOL     OW19223   2.362  11.382   4.241 -0.1219 -0.3426  0.2475
 2970SOL    HW119224   2.359  11.426   4.156  1.1145 -0.2500  0.2284
 2970SOL    HW219225   2.292  11.316   4.237 -2.3018  1.8373  0.4436
 2971SOL     OW19226  12.021   3.772  12.033 -0.4870  0.1794 -0.1887
 2971SOL    HW119227  12.035   3.678  12.038 -0.6794  0.0936 -1.0849
 2971SOL    HW219228  12.101   3.810  12.068  0.3715 -0.3201 -1.5535
 2972SOL     OW19229   4.105   0.457   0.324  0.2972 -0.6145  0.0027
 2972SOL    HW119230   4.052   0.486   0.249  0.6680  2.0522  0.6813
 2972SOL    HW219231   4.075   0.510   0.397  1.8656 -1.1767  1.1118
 2973SOL     OW19232   2.966  12.283   8.005 -0.3815 -0.4691  0.6466
 2973SOL    HW119233   2.995  12.363   7.961 -2.9792 -0.8884 -2.1421
 2973SOL    HW219234   3.046  12.231   8.014  0.6376  0.3808 -2.2124
 2974SOL     OW19235   4.574   3.182   5.402  0.4555 -0.0894  0.2729
 2974SOL    HW119236   4.615   3.267   5.384  0.8088  0.0791  1.7240
 2974SOL    HW219237   4.484   3.205   5.427 -0.2018 -0.3615 -1.7131
 2975SOL     OW19238   1.338   9.840   6.521  0.4601 -0.6829 -0.8580
 2975SOL    HW119239   1.310   9.749   6.532  0.7726 -0.7057 -0.1798
 2975SOL    HW219240   1.300   9.885   6.596  0.9071 -0.4021 -0.7973
 2976SOL     OW19241   5.754   4.529   4.343 -0.0815 -0.6947 -0.4367
 2976SOL    HW119242   5.661   4.531   4.323 -0.1762 -2.1217 -0.2934
 2976SOL    HW219243   5.794   4.590   4.281 -1.0274 -0.6485 -1.0171
 2977SOL     OW19244   0.770   1.446   7.815 -0.2289  0.2514 -0.0580
 2977SOL    HW119245   0.844   1.398   7.853  0.7136  2.7886  1.5805
 2977SOL    HW219246   0.762   1.411   7.726  1.6292 -1.4864  0.3719
 2978SOL     OW19247  12.254   9.583   8.988 -0.3390 -0.7548 -0.3184
 2978SOL    HW119248  12.207   9.620   9.062  0.5639 -1.4121  0.6141
 2978SOL    HW219249  12.198   9.513   8.956  0.1379 -1.8081  1.0476
 2979SOL     OW19250   9.020  12.752   5.942 -1.1628 -0.1891  0.0926
 2979SOL    HW119251   9.084  12.705   5.995 -1.5085 -0.1936  0.5081
 2979SOL    HW219252   8.936  12.735   5.984 -1.0344  3.3910  2.2015
 2980SOL     OW19253  11.296   9.869   3.279  0.2713 -0.4787 -0.3781
 2980SOL    HW119254  11.319   9.782   3.312  0.4143 -0.4793 -0.4764
 2980SOL    HW219255  11.373   9.896   3.228  1.4964  0.9528  2.0328
 2981SOL     OW19256   9.042   7.614   6.605 -0.5876  0.6426  0.3025
 2981SOL    HW119257   9.132   7.602   6.575 -0.4077 -1.0196  1.3528
 2981SOL    HW219258   9.023   7.534   6.655 -2.4209  1.2540  0.6497
 2982SOL     OW19259  10.357  12.484  12.014 -0.5686 -0.0837 -0.2107
 2982SOL    HW119260  10.337  12.410  12.072  0.4236  0.1476  0.4519
 2982SOL    HW219261  10.274  12.533  12.009 -1.5423 -1.7625 -1.5064
 2983SOL     OW19262   4.315  11.152   5.583 -0.6297 -0.3919  0.2335
 2983SOL    HW119263   4.230  11.136   5.542 -0.3715  1.1044 -0.9752
 2983SOL    HW219264   4.298  11.222   5.646 -0.1644  0.4228 -0.5346
 2984SOL     OW19265   1.038   8.557  10.562  0.1919 -0.3756  0.0152
 2984SOL    HW119266   1.046   8.628  10.499 -1.2959 -0.5281 -0.3737
 2984SOL    HW219267   1.116   8.503  10.548  0.7968  0.5864 -0.4103
 2985SOL     OW19268   3.267   1.145  12.557  0.8802  0.3260  0.0305
 2985SOL    HW119269   3.353   1.119  12.589  1.5666  1.8223 -0.5018
 2985SOL    HW219270   3.272   1.241  12.551 -0.2830  0.3239 -1.5232
 2986SOL     OW19271  10.600   5.697   1.730  0.5422 -0.0843  0.4927
 2986SOL    HW119272  10.579   5.725   1.641 -0.6460 -0.3049  0.6857
 2986SOL    HW219273  10.677   5.641   1.720 -0.5277 -1.4246 -0.6183
 2987SOL     OW19274   0.806   1.724  10.588  0.1559  0.0971 -0.1308
 2987SOL    HW119275   0.878   1.737  10.650 -0.1949  2.2826 -0.1028
 2987SOL    HW219276   0.845   1.735  10.502  0.0481  0.2456 -0.1610
 2988SOL     OW19277  12.527   7.546   6.538 -0.2852 -0.5984  0.2844
 2988SOL    HW119278  12.512   7.462   6.581 -2.0861 -0.5131 -0.0942
 2988SOL    HW219279  12.505   7.530   6.446 -0.5958  0.2767  0.1980
 2989SOL     OW19280   3.834  11.760  12.580 -0.2480  0.1636  0.1806
 2989SOL    HW119281   3.916  11.783  12.537  0.4666 -0.7411  0.9990
 2989SOL    HW219282   3.851  11.777  12.673 -1.1731  0.4753  0.2951
 2990SOL     OW19283  12.980   8.814   2.847  0.1615 -0.0151 -0.2748
 2990SOL    HW119284  13.035   8.850   2.777  0.7121  1.0654  0.6769
 2990SOL    HW219285  12.956   8.889   2.900  1.3754 -1.0080  1.8119
 2991SOL     OW19286   8.651   5.135   3.974  0.1278  0.4502  0.3869
 2991SOL    HW119287   8.665   5.227   3.951  0.9732 -0.0409 -1.2266
 2991SOL    HW219288   8.628   5.093   3.891 -3.1102 -0.3290  1.5271
 2992SOL     OW19289  11.742   1.751  11.988 -0.1463 -0.4750 -0.1426
 2992SOL    HW119290  11.703   1.838  11.983 -0.5881 -0.5240  1.8195
 2992SOL    HW219291  11.835   1.765  11.967  0.0656  0.7131  1.4163
 2993SOL     OW19292   2.997   8.521   4.737  0.3790  0.1503  0.2569
 2993SOL    HW119293   2.981   8.534   4.643  1.5223  1.4388  0.2096
 2993SOL    HW219294   2.922   8.561   4.780  0.0007 -0.1713 -0.1026
 2994SOL     OW19295  12.500   1.897   7.595 -0.1028 -0.3864  0.0584
 2994SOL    HW119296  12.469   1.845   7.669 -2.2753 -1.4117 -1.4635
 2994SOL    HW219297  12.442   1.974   7.595 -0.0503 -0.3464 -0.5258
 2995SOL     OW19298  11.283   1.520   5.243  0.0988  0.2314 -0.0733
 2995SOL    HW119299  11.278   1.462   5.167 -0.2355 -0.6925  0.6314
 2995SOL    HW219300  11.371   1.556   5.240 -0.1362  0.7507 -1.2829
 2996SOL     OW19301  12.298   0.437  12.456 -0.3167 -0.0500 -0.1004
 2996SOL    HW119302  12.373   0.496  12.448 -0.8545  0.4681 -1.8429
 2996SOL    HW219303  12.238   0.466  12.387 -1.6448 -1.1365  0.5630
 2997SOL     OW19304  12.540  10.433   7.914 -0.3957 -0.1314 -0.2184
 2997SOL    HW119305  12.478  10.417   7.985 -1.2233 -1.1814 -1.1289
 2997SOL    HW219306  12.609  10.369   7.927 -0.3006 -0.0070 -0.1011
 2998SOL     OW19307  11.573   2.073  12.548  0.1280 -0.4619 -0.3510
 2998SOL    HW119308  11.576   2.156  12.502  1.8684  0.8478  1.9093
 2998SOL    HW219309  11.525   2.092  12.629  2.0841 -1.0965  1.0453
 2999SOL     OW19310  11.351  10.084   3.707  0.0328 -0.3064  0.3957
 2999SOL    HW119311  11.261  10.107   3.728 -0.9302 -2.0865 -1.4516
 2999SOL    HW219312  11.358  10.099   3.612  2.5772  2.4265  0.8635
 3000SOL     OW19313   3.575   4.430   2.643 -0.2780 -0.2408 -0.4368
 3000SOL    HW119314   3.508   4.371   2.678  0.1919  0.0908  1.1064
 3000SOL    HW219315   3.533   4.516   2.640  0.1111  0.0111  0.7461
 3001SOL     OW19316   6.621   7.970   5.990 -0.5228 -0.0769  0.7219
 3001SOL    HW119317   6.675   8.044   6.019 -0.8987  0.5634 -0.1626
 3001SOL    HW219318   6.533   7.990   6.022 -0.8880  0.5112 -0.5881
 3002SOL     OW19319  11.194  11.530   4.175 -0.1151  0.0503 -0.2139
 3002SOL    HW119320  11.109  11.525   4.132 -0.0080 -0.2437 -0.4042
 3002SOL    HW219321  11.207  11.622   4.194  0.6020  0.4525 -2.3984
 3003SOL     OW19322   9.195   2.192   3.685 -0.1365 -0.0140  0.1111
 3003SOL    HW119323   9.184   2.099   3.667  0.0919  0.1312 -0.7923
 3003SOL    HW219324   9.268   2.219   3.630 -0.0026  0.6402  0.5984
 3004SOL     OW19325   9.834   7.725   3.133  0.5596  0.6216  0.2890
 3004SOL    HW119326   9.877   7.791   3.188 -1.2071  0.8029  1.5352
 3004SOL    HW219327   9.744   7.757   3.124  0.2798 -0.4512 -1.0557
 3005SOL     OW19328  11.656   0.144  12.645  0.2784 -0.2330 -0.3942
 3005SOL    HW119329  11.610   0.094  12.712 -0.4480  0.1882 -0.5620
 3005SOL    HW219330  11.599   0.138  12.568  2.1967 -2.7376 -1.7686
 3006SOL     OW19331   3.096  11.848   0.142 -0.0134 -0.4637 -0.1365
 3006SOL    HW119332   3.102  11.760   0.106  1.2160 -0.1417 -0.7835
 3006SOL    HW219333   3.165  11.897   0.097  0.0869  0.5384  1.0499
 3007SOL     OW19334  10.189   1.058   2.079  0.0583 -0.2332 -0.0548
 3007SOL    HW119335  10.166   0.970   2.109  0.4451 -0.1255  0.5668
 3007SOL    HW219336  10.281   1.051   2.053  0.0259 -0.0621 -0.2229
 3008SOL     OW19337   1.577   9.099   2.126 -0.3379  0.0130 -0.2423
 3008SOL    HW119338   1.624   9.126   2.205  0.7213 -1.5530 -0.2951
 3008SOL    HW219339   1.561   9.181   2.079  0.0104  0.8514  1.0544
 3009SOL     OW19340   7.287   7.375   8.259 -0.6078  0.2242 -0.2356
 3009SOL    HW119341   7.286   7.355   8.353  0.7055  0.4192 -0.1628
 3009SOL    HW219342   7.243   7.459   8.252 -2.2918 -0.5957 -0.0203
 3010SOL     OW19343   2.575  11.702   9.890  0.3976 -0.0652  0.3872
 3010SOL    HW119344   2.504  11.648   9.855 -0.1319  0.2853  0.8865
 3010SOL    HW219345   2.648  11.687   9.831  0.2697 -1.3400  0.5272
 3011SOL     OW19346   3.213  12.133   3.930 -0.5427  0.1414  0.3819
 3011SOL    HW119347   3.195  12.205   3.990  1.3888  0.4569  0.6451
 3011SOL    HW219348   3.294  12.158   3.886 -0.7415 -1.1034 -0.7746
 3012SOL     OW19349   5.319   9.079   2.860 -0.4562  0.6085  0.6782
 3012SOL    HW119350   5.400   9.117   2.827 -0.1985 -0.7021 -0.2952
 3012SOL    HW219351   5.336   9.064   2.953  0.6931 -0.2498  0.3636
 3013SOL     OW19352   3.671   4.457   9.064 -0.2933  0.2376 -0.3639
 3013SOL    HW119353   3.710   4.495   8.986  2.1879 -1.4952 -0.1076
 3013SOL    HW219354   3.722   4.492   9.137  0.5003 -1.6283  0.0463
 3014SOL     OW19355   2.353   7.655   7.282  0.3403 -0.5032  1.0082
 3014SOL    HW119356   2.407   7.632   7.207 -0.9917  1.3581 -0.5969
 3014SOL    HW219357   2.289   7.584   7.289  0.1710 -0.4466  0.0710
 3015SOL     OW19358  10.755   3.071  10.278  0.1090 -0.1723  0.0420
 3015SOL    HW119359  10.719   3.160  10.280 -1.7299 -0.8483 -1.0770
 3015SOL    HW219360  10.740   3.037  10.366 -0.4056  0.1524  0.0811
 3016SOL     OW19361   3.905   8.090   0.583  0.0690  0.3353 -0.5590
 3016SOL    HW119362   3.966   8.163   0.592  0.2261  0.0401  1.1383
 3016SOL    HW219363   3.827   8.119   0.631  0.4359 -0.9032  0.8448
 3017SOL     OW19364   8.231  10.803   1.539 -0.2989 -0.1743 -0.1369
 3017SOL    HW119365   8.244  10.758   1.456  0.7135  1.6371 -1.0096
 3017SOL    HW219366   8.150  10.853   1.528  0.2233  0.6484 -0.3292
 3018SOL     OW19367   6.324  10.792  12.597  0.3069  0.2529  0.0621
 3018SOL    HW119368   6.256  10.757  12.539 -1.3846  1.4784  1.2161
 3018SOL    HW219369   6.349  10.717  12.651 -1.5301  0.1679  0.8827
 3019SOL     OW19370   1.512   2.073   5.627 -0.0700 -0.5461 -0.5429
 3019SOL    HW119371   1.429   2.108   5.594 -0.2086  0.0021  0.3496
 3019SOL    HW219372   1.494   1.981   5.646 -0.7921 -0.1965  0.5995
 3020SOL     OW19373  11.147   7.448   9.526 -0.7174 -0.6492 -0.3707
 3020SOL    HW119374  11.072   7.495   9.562 -1.1146 -1.6839  0.2120
 3020SOL    HW219375  11.216   7.513   9.518 -0.7311 -0.3010  1.9337
 3021SOL     OW19376   2.065  12.585   0.695 -0.0637  0.0292  0.4862
 3021SOL    HW119377   2.103  12.532   0.624 -0.3010 -0.0097  0.3897
 3021SOL    HW219378   2.084  12.535   0.774 -1.4403 -0.8609  0.2799
 3022SOL     OW19379   8.320   5.566   6.927  0.1364  0.0372 -0.6839
 3022SOL    HW119380   8.337   5.629   6.857 -0.0595  0.5414 -0.2849
 3022SOL    HW219381   8.345   5.612   7.007 -0.8716 -0.0563 -0.3019
 3023SOL     OW19382   3.866  10.923  11.259 -0.2989 -0.0143  0.0737
 3023SOL    HW119383   3.848  10.963  11.344 -0.5340  0.6079 -0.2637
 3023SOL    HW219384   3.822  10.980  11.195 -0.4967 -0.7142 -0.4328
 3024SOL     OW19385  11.774   9.254   7.886 -0.5655  0.7688 -0.1443
 3024SOL    HW119386  11.743   9.195   7.817 -1.3260 -0.1285  0.9255
 3024SOL    HW219387  11.697   9.271   7.940  0.3721 -0.1601  1.6172
 3025SOL     OW19388   5.312  12.771   2.732 -0.8755 -0.4294 -0.6231
 3025SOL    HW119389   5.365  12.790   2.654 -0.8650  0.6887 -0.3584
 3025SOL    HW219390   5.281  12.856   2.761 -1.8501 -0.9587 -0.0744
 3026SOL     OW19391  12.657   6.002   9.990  0.2749  0.1931 -0.2423
 3026SOL    HW119392  12.723   6.035  10.052  0.3232 -0.1447 -0.1139
 3026SOL    HW219393  12.635   5.915  10.022  0.9093 -0.3261 -1.1675
 3027SOL     OW19394   8.579   1.626   3.521 -0.0256 -0.1653 -0.4770
 3027SOL    HW119395   8.560   1.708   3.475  0.8495 -0.5329 -1.5275
 3027SOL    HW219396   8.643   1.581   3.465 -0.6167 -1.6457 -0.0037
 3028SOL     OW19397   5.046   3.657   3.317  0.0732 -0.1602 -0.0721
 3028SOL    HW119398   4.998   3.733   3.287  0.9804  1.2372  1.7939
 3028SOL    HW219399   5.106   3.636   3.245 -1.2622 -0.1485 -1.2360
 3029SOL     OW19400   7.576  10.240   5.720 -0.2283 -0.2488  0.3813
 3029SOL    HW119401   7.560  10.152   5.686 -0.5301  0.4352 -1.3579
 3029SOL    HW219402   7.669  10.257   5.699 -0.3715  0.1119  0.0094
 3030SOL     OW19403   3.159  12.256   4.659 -0.4888 -0.1409  0.8882
 3030SOL    HW119404   3.210  12.180   4.687  0.7618  0.9874  1.7926
 3030SOL    HW219405   3.073  12.220   4.637  0.8035 -2.1956 -1.2437
 3031SOL     OW19406  12.684   3.513   5.412 -0.4256 -0.2847 -0.4535
 3031SOL    HW119407  12.604   3.512   5.464 -0.2101 -1.4295 -0.1048
 3031SOL    HW219408  12.714   3.604   5.415 -0.8812 -0.1549  0.7134
 3032SOL     OW19409  10.934   5.400   3.026 -0.2979  0.6893 -0.2984
 3032SOL    HW119410  10.882   5.352   3.092 -1.0196  1.6529 -0.1480
 3032SOL    HW219411  10.964   5.478   3.072 -0.5116  1.1998 -1.0165
 3033SOL     OW19412  10.620   2.042   4.244 -0.1920  0.1763  0.0881
 3033SOL    HW119413  10.535   1.998   4.242 -0.7251  1.1501  0.4313
 3033SOL    HW219414  10.642   2.045   4.337  0.7712 -1.0551 -0.0710
 3034SOL     OW19415  10.972   8.913  10.349 -0.5702  0.2855  0.2765
 3034SOL    HW119416  10.892   8.860  10.349  1.1335 -2.4511 -0.6673
 3034SOL    HW219417  10.969   8.960  10.266 -1.0692  0.0430  0.1491
 3035SOL     OW19418   6.975  10.295  11.941 -0.3446 -0.1692  0.1717
 3035SOL    HW119419   7.043  10.331  11.998 -0.0345 -0.8097  0.2173
 3035SOL    HW219420   7.023  10.241  11.878 -0.8820 -1.5493  0.9067
 3036SOL     OW19421   2.980   0.771   0.190 -0.8566  0.0108  0.0409
 3036SOL    HW119422   2.894   0.731   0.174 -1.2434  1.2471 -1.0821
 3036SOL    HW219423   3.023   0.771   0.104  0.5864 -1.2242  0.7070
 3037SOL     OW19424   1.425   7.795   8.914 -1.0885  0.6515 -0.7223
 3037SOL    HW119425   1.501   7.768   8.966 -1.2353 -1.4519 -1.4985
 3037SOL    HW219426   1.462   7.833   8.834 -0.8776  1.4804 -0.2451
 3038SOL     OW19427   1.671  10.759   8.751  0.1232  0.3091 -0.4970
 3038SOL    HW119428   1.694  10.844   8.712 -1.1691  1.2097  0.6001
 3038SOL    HW219429   1.713  10.694   8.695  2.6721  1.7172 -0.3746
 3039SOL     OW19430   6.627   1.450   8.465  0.6610  0.0790  0.7024
 3039SOL    HW119431   6.708   1.438   8.415  1.7425  1.0785  2.1196
 3039SOL    HW219432   6.584   1.524   8.422  0.1313 -0.8913 -0.4787
 3040SOL     OW19433  11.642  10.530   9.408 -0.3660  0.4527  0.0849
 3040SOL    HW119434  11.576  10.461   9.415  0.3001 -0.2258 -0.1561
 3040SOL    HW219435  11.726  10.484   9.419  0.1591  1.0285 -1.2493
 3041SOL     OW19436   0.851   8.836   2.109 -0.0759 -0.4687 -0.2064
 3041SOL    HW119437   0.760   8.863   2.126 -0.8634 -1.5736 -2.3151
 3041SOL    HW219438   0.871   8.775   2.180 -0.7285  0.2899  0.6536
 3042SOL     OW19439  10.296  11.253   7.729  0.2049  0.2319  0.6243
 3042SOL    HW119440  10.323  11.221   7.815 -2.0124  0.3433  1.4270
 3042SOL    HW219441  10.213  11.208   7.712 -0.5998  1.9956 -0.3668
 3043SOL     OW19442   4.664  12.803  12.543  0.1489 -0.1151 -0.3159
 3043SOL    HW119443   4.629  12.748  12.473  2.6804 -1.2394 -0.8056
 3043SOL    HW219444   4.711  12.873  12.497  0.3730  0.1350  0.2815
 3044SOL     OW19445   0.022   7.137   8.637 -0.1597 -0.3049  0.1806
 3044SOL    HW119446   0.002   7.056   8.684  1.2949 -0.3978  0.6987
 3044SOL    HW219447   0.110   7.123   8.602 -0.1623  0.7972 -0.2962
 3045SOL     OW19448  10.137   7.319   0.393 -0.0551 -0.1779  0.1036
 3045SOL    HW119449  10.094   7.400   0.419 -1.3041 -0.0465 -2.0712
 3045SOL    HW219450  10.116   7.310   0.300 -0.4210 -3.2702  0.3779
 3046SOL     OW19451   9.997  12.940   6.189 -0.2513  0.6863 -0.2721
 3046SOL    HW119452   9.916  12.919   6.142 -1.8753  0.5922  2.3467
 3046SOL    HW219453  10.003  13.035   6.186 -0.7111  0.7255 -0.1744
 3047SOL     OW19454   4.460  11.126   4.976  0.0616 -0.4931 -0.2922
 3047SOL    HW119455   4.515  11.107   5.052  0.0528 -0.4857 -0.2838
 3047SOL    HW219456   4.407  11.201   5.004  2.6407  1.9890 -1.5265
 3048SOL     OW19457   0.820  10.426   4.548  0.9001 -0.7091  0.6250
 3048SOL    HW119458   0.765  10.471   4.483  2.1566  0.2474  0.1930
 3048SOL    HW219459   0.776  10.342   4.561 -0.8239  0.1214  0.5205
 3049SOL     OW19460   2.960   9.929   2.171 -0.0593  0.0683 -0.1035
 3049SOL    HW119461   2.904   9.948   2.247  0.5424 -0.6497  0.5460
 3049SOL    HW219462   2.900   9.900   2.103 -0.4722 -1.0682  0.7041
 3050SOL     OW19463   4.647   0.279   4.048 -0.4245  0.3069  0.2600
 3050SOL    HW119464   4.743   0.275   4.047 -0.3925 -0.0637 -2.4779
 3050SOL    HW219465   4.623   0.248   4.135  1.9543  1.3168  1.3573
 3051SOL     OW19466  12.006   9.818   1.620 -0.1301  0.4227  0.3126
 3051SOL    HW119467  12.083   9.871   1.635  0.4468 -0.3662  0.2180
 3051SOL    HW219468  12.036   9.728   1.632 -0.7012  0.0240 -1.0562
 3052SOL     OW19469   0.464   8.848   8.431  0.7638 -0.5937  0.0908
 3052SOL    HW119470   0.491   8.821   8.343 -2.1142  0.1599 -1.1273
 3052SOL    HW219471   0.489   8.940   8.436 -1.8024  0.2599 -1.2471
 3053SOL     OW19472   2.224   1.060   5.169 -0.4117  0.2685 -0.1103
 3053SOL    HW119473   2.138   1.065   5.128  0.1966  0.9634 -1.3829
 3053SOL    HW219474   2.207   1.043   5.261 -1.9106  0.7957 -0.2783
 3054SOL     OW19475   0.218   4.617   3.677  0.5104 -0.0731  0.6241
 3054SOL    HW119476   0.161   4.540   3.675  1.7903 -1.0319 -0.9465
 3054SOL    HW219477   0.283   4.597   3.743  0.9181 -0.4037  0.1254
 3055SOL     OW19478   2.996  11.164   0.791  0.0303  0.8622 -0.5858
 3055SOL    HW119479   2.980  11.076   0.757 -3.5153  1.6384 -1.2967
 3055SOL    HW219480   3.041  11.209   0.719  1.1916 -0.0934 -0.4967
 3056SOL     OW19481   2.787   9.461   4.214  0.2526  0.0180 -0.1873
 3056SOL    HW119482   2.832   9.513   4.279 -0.2934  1.3606 -0.8367
 3056SOL    HW219483   2.698   9.449   4.249  0.3386 -0.3855 -0.0973
 3057SOL     OW19484   3.554   1.817   4.341  0.1639 -0.0237  0.0965
 3057SOL    HW119485   3.497   1.893   4.341  1.4146  0.9473 -0.7897
 3057SOL    HW219486   3.642   1.852   4.327  1.0288 -1.4634  1.4987
 3058SOL     OW19487   3.805   5.521   6.130 -0.3194  0.4324 -0.2523
 3058SOL    HW119488   3.728   5.569   6.160  0.1639  0.5271  0.9015
 3058SOL    HW219489   3.792   5.431   6.161  0.8196  0.8290  1.5692
 3059SOL     OW19490   3.034   0.062   0.463  1.0751  0.2499  0.2453
 3059SOL    HW119491   3.128   0.073   0.451  0.9735 -0.2454 -1.2566
 3059SOL    HW219492   3.023   0.051   0.558  2.3957  1.3017  0.5615
 3060SOL     OW19493  12.623   5.224   5.089  0.7283 -0.4358  0.2498
 3060SOL    HW119494  12.601   5.232   4.997  1.6800 -1.0963 -0.0551
 3060SOL    HW219495  12.592   5.305   5.129  0.5115 -0.0444 -0.6892
 3061SOL     OW19496   4.097   3.890  12.660  0.4723  0.4099  0.0467
 3061SOL    HW119497   4.158   3.892  12.586 -0.5140  1.9205 -0.7655
 3061SOL    HW219498   4.011   3.888  12.619 -0.0697 -1.0618  1.1834
 3062SOL     OW19499   2.697  10.966   7.270  0.4292  0.0700  0.6989
 3062SOL    HW119500   2.637  10.936   7.338 -0.5420  0.4509  0.0134
 3062SOL    HW219501   2.642  11.004   7.202  1.1570 -2.2017 -1.3394
 3063SOL     OW19502  11.593  12.088   8.468 -0.2172  0.3857  0.7124
 3063SOL    HW119503  11.615  12.033   8.543  2.0256 -0.6608 -0.6082
 3063SOL    HW219504  11.522  12.041   8.424 -0.2345  0.0187  1.1296
 3064SOL     OW19505   6.207   1.401   3.901  0.0299 -0.3120 -0.0126
 3064SOL    HW119506   6.181   1.342   3.831  0.4682 -0.1618 -0.3108
 3064SOL    HW219507   6.206   1.488   3.861  1.8161 -0.3886 -0.2940
 3065SOL     OW19508  12.259   0.328  12.126 -0.3863  0.3925 -0.1221
 3065SOL    HW119509  12.230   0.272  12.054 -1.1182 -0.2116  0.6212
 3065SOL    HW219510  12.239   0.417  12.097 -2.8340  0.0169  0.2672
 3066SOL     OW19511   5.256  10.745   1.915 -0.6971  0.6274 -0.1653
 3066SOL    HW119512   5.268  10.825   1.965  0.9090 -0.1850  0.8477
 3066SOL    HW219513   5.162  10.739   1.901 -0.9505  2.1048  0.7125
 3067SOL     OW19514   8.145   2.392   6.335  0.0454  0.7884  0.0957
 3067SOL    HW119515   8.152   2.480   6.373 -0.5612 -0.4148  3.3896
 3067SOL    HW219516   8.052   2.380   6.316 -0.1346  0.3801  1.1356
 3068SOL     OW19517  12.806   9.194   4.580  0.2402  0.3443 -0.5838
 3068SOL    HW119518  12.892   9.218   4.614  0.4464  0.1340 -0.9457
 3068SOL    HW219519  12.809   9.220   4.488  0.4902 -1.0985 -1.0006
 3069SOL     OW19520   8.683  12.652   1.922 -0.1214  0.1636  0.2428
 3069SOL    HW119521   8.623  12.617   1.988 -0.1630 -2.2104 -0.9780
 3069SOL    HW219522   8.631  12.654   1.842  0.9938 -0.4844 -0.5058
 3070SOL     OW19523   1.200   8.678   9.653  0.5056  0.4100  0.1555
 3070SOL    HW119524   1.248   8.596   9.664 -1.1436 -0.4536  1.3084
 3070SOL    HW219525   1.209   8.723   9.737  1.3782  1.4278 -0.4600
 3071SOL     OW19526   1.356   8.000  10.922  0.0356  0.0139 -0.1009
 3071SOL    HW119527   1.422   8.058  10.959  0.0812  0.0644 -0.2607
 3071SOL    HW219528   1.401   7.953  10.852 -0.2958  0.6327 -0.7594
 3072SOL     OW19529   9.514  10.382   2.927 -0.1058  0.0619 -0.0780
 3072SOL    HW119530   9.602  10.348   2.944 -0.0683 -0.3619 -1.0400
 3072SOL    HW219531   9.475  10.392   3.014  1.0849  0.8160  0.3966
 3073SOL     OW19532   0.187   2.702   1.633 -0.2788  0.4271 -0.4215
 3073SOL    HW119533   0.143   2.619   1.651  0.1457  0.1447 -0.6570
 3073SOL    HW219534   0.273   2.677   1.599  0.8883  0.9455  1.9489
 3074SOL     OW19535   3.449  11.549  10.963  0.6789 -0.2039 -0.0288
 3074SOL    HW119536   3.370  11.544  11.016 -1.9761  1.0414 -3.5069
 3074SOL    HW219537   3.486  11.634  10.983 -1.3106  1.0429 -1.3154
 3075SOL     OW19538   7.962  11.380  11.584  0.6236 -0.1237  0.1498
 3075SOL    HW119539   7.888  11.358  11.528  2.4624 -0.7137 -2.2238
 3075SOL    HW219540   7.956  11.318  11.657 -1.8925  0.7233  0.7763
 3076SOL     OW19541  10.708  12.875   0.680  0.1460  0.4758  0.1893
 3076SOL    HW119542  10.738  12.893   0.769 -0.2949  1.2383  0.1894
 3076SOL    HW219543  10.638  12.810   0.691  0.3326  0.3010  0.3635
 3077SOL     OW19544   2.621  10.803   5.632  0.1269 -0.2230 -0.4633
 3077SOL    HW119545   2.641  10.709   5.634  0.5999 -0.1146  0.6293
 3077SOL    HW219546   2.652  10.833   5.547 -0.4264 -1.1374 -0.9987
 3078SOL     OW19547   3.158   4.548  11.656  0.2155  0.2752 -0.2711
 3078SOL    HW119548   3.113   4.467  11.631  0.9666 -0.0546 -0.5844
 3078SOL    HW219549   3.236   4.551  11.600  1.8357 -0.3529  1.8081
 3079SOL     OW19550   2.448   4.890   0.019  0.1116  0.0186  0.0872
 3079SOL    HW119551   2.417   4.813  -0.029 -1.8367  1.1531 -0.5652
 3079SOL    HW219552   2.372   4.918   0.071  0.8529  1.3570  0.4928
 3080SOL     OW19553   2.786  10.204   8.059  0.7083  0.0805 -0.4067
 3080SOL    HW119554   2.799  10.130   7.999 -0.2485  0.8052 -1.5714
 3080SOL    HW219555   2.741  10.270   8.005 -1.2100  0.3507  1.4009
 3081SOL     OW19556   1.116   2.289   5.110  0.2341  0.2318  0.4406
 3081SOL    HW119557   1.082   2.373   5.079 -1.1452 -1.3932 -2.9908
 3081SOL    HW219558   1.200   2.279   5.064  0.3694 -0.2854  0.7909
 3082SOL     OW19559   5.372   9.565   1.671 -0.6565  0.4069  0.4784
 3082SOL    HW119560   5.340   9.640   1.622  0.4467 -1.1201 -2.8898
 3082SOL    HW219561   5.309   9.496   1.652  0.4993 -0.5795  0.0906
 3083SOL     OW19562   3.346  10.909  12.235 -0.2762 -0.4121  0.6283
 3083SOL    HW119563   3.251  10.914  12.225 -0.2870  1.4074  1.1631
 3083SOL    HW219564   3.368  10.985  12.289  1.4873 -0.8243  0.5555
 3084SOL     OW19565   1.076   4.521   6.491  0.4943  0.7808  0.0907
 3084SOL    HW119566   1.105   4.593   6.548 -0.2168 -0.2036  1.7613
 3084SOL    HW219567   1.074   4.444   6.548 -0.0160 -0.3147 -1.3369
 3085SOL     OW19568   7.356   0.688   2.588 -0.0440 -0.4754  0.0975
 3085SOL    HW119569   7.372   0.689   2.493 -0.6192 -2.0680 -0.0464
 3085SOL    HW219570   7.351   0.781   2.612 -1.8204 -0.0083 -1.7563
 3086SOL     OW19571   0.990   9.511   4.838 -0.3172 -0.1691  0.5111
 3086SOL    HW119572   0.950   9.472   4.916 -1.5055 -0.6437 -0.3243
 3086SOL    HW219573   0.918   9.526   4.778  0.4664  1.0396 -0.1648
 3087SOL     OW19574   6.233   1.035  11.149 -0.1192 -0.0517 -0.0576
 3087SOL    HW119575   6.294   1.039  11.222  1.3427 -1.1468 -1.1531
 3087SOL    HW219576   6.289   1.041  11.071 -1.4626 -0.4807 -1.0974
 3088SOL     OW19577   6.286  10.673   3.997 -0.5204  0.0212 -0.3944
 3088SOL    HW119578   6.366  10.620   3.998 -0.3104  0.3340 -0.1939
 3088SOL    HW219579   6.303  10.740   3.930  0.3517  1.5165  1.2235
 3089SOL     OW19580   1.949   4.064   5.025 -0.1274  0.2736  0.2024
 3089SOL    HW119581   1.945   4.128   5.095  1.4900 -0.6009  1.1656
 3089SOL    HW219582   2.014   4.100   4.963  0.6659 -0.3185  0.6668
 3090SOL     OW19583   2.008   7.740   5.257  0.4516 -0.0260 -0.7379
 3090SOL    HW119584   1.970   7.695   5.332  2.3462  0.8258  0.8254
 3090SOL    HW219585   2.080   7.684   5.229 -1.2258 -1.1772 -3.0849
 3091SOL     OW19586   4.508   1.786   2.562 -0.3914  0.2132  0.1240
 3091SOL    HW119587   4.414   1.774   2.575 -0.7411  1.0767 -1.3771
 3091SOL    HW219588   4.542   1.699   2.542 -0.5450 -0.4008  2.3192
 3092SOL     OW19589  12.335   0.726   4.375  0.0672  0.2034  0.2327
 3092SOL    HW119590  12.253   0.689   4.407 -0.6432  1.8097  0.3899
 3092SOL    HW219591  12.395   0.651   4.368 -1.5928 -1.1195 -0.5116
 3093SOL     OW19592  11.225  11.309  11.371  0.0547  0.4364 -0.5266
 3093SOL    HW119593  11.219  11.280  11.462 -0.2961 -0.6574 -0.8778
 3093SOL    HW219594  11.156  11.260  11.326 -0.5966  1.8976 -1.1538
 3094SOL     OW19595   4.009   5.202   9.186 -0.1571  0.2684  0.4021
 3094SOL    HW119596   3.941   5.193   9.120  0.3515  1.2248 -0.2815
 3094SOL    HW219597   4.086   5.162   9.147 -0.3093 -0.8586  1.1952
 3095SOL     OW19598   1.220   8.721   0.164  0.6985 -0.1488 -0.1076
 3095SOL    HW119599   1.287   8.787   0.179 -1.6284  1.8266  2.9554
 3095SOL    HW219600   1.258   8.640   0.197  2.2742  0.4581 -0.3759
 3096SOL     OW19601   8.447   9.561   7.268 -0.5436 -0.0510  0.3786
 3096SOL    HW119602   8.429   9.647   7.306 -2.1723  0.5994 -1.7021
 3096SOL    HW219603   8.442   9.501   7.342 -0.4410  1.5010  1.6979
 3097SOL     OW19604   2.589   2.022   6.453 -0.1501 -0.3960  0.0302
 3097SOL    HW119605   2.661   2.066   6.406 -1.9374  1.1676 -1.4276
 3097SOL    HW219606   2.585   1.935   6.415  2.4274 -1.4121  1.8204
 3098SOL     OW19607   3.770   8.899   8.105 -0.5201  0.4614  0.4520
 3098SOL    HW119608   3.851   8.951   8.102 -0.1846 -0.0840 -0.1832
 3098SOL    HW219609   3.700   8.963   8.090 -0.2905  1.0992  1.9617
 3099SOL     OW19610  12.509  11.768   8.385  0.5363 -0.4561  0.7760
 3099SOL    HW119611  12.571  11.744   8.316  1.7302  0.3492  1.5248
 3099SOL    HW219612  12.545  11.849   8.422 -1.7231  0.8649  0.3026
 3100SOL     OW19613   7.159   2.207   3.491  0.0300  0.3210  0.1194
 3100SOL    HW119614   7.197   2.132   3.537  0.0004  0.1719 -0.0961
 3100SOL    HW219615   7.189   2.197   3.401  1.9640  1.8335  0.5166
 3101SOL     OW19616   4.379   9.607   1.745  0.5170 -0.6710  0.3064
 3101SOL    HW119617   4.337   9.523   1.766 -1.0310  0.2642  1.0877
 3101SOL    HW219618   4.325   9.643   1.674  0.6529  0.0688  0.5774
 3102SOL     OW19619  10.748   2.854   7.453 -0.6556 -0.0803  0.3243
 3102SOL    HW119620  10.736   2.948   7.468 -1.5023 -0.0756 -0.3043
 3102SOL    HW219621  10.734   2.814   7.539 -0.8692  0.3217  0.4783
 3103SOL     OW19622   2.933   2.307   5.901  0.0564  0.4020  0.1638
 3103SOL    HW119623   2.915   2.222   5.941  0.1850 -0.1958 -0.9892
 3103SOL    HW219624   2.886   2.304   5.817 -0.7675  1.8775  0.5415
 3104SOL     OW19625  12.221   3.552   1.571 -0.3777 -0.3795 -0.2970
 3104SOL    HW119626  12.265   3.511   1.497 -0.5708  0.3677 -0.8338
 3104SOL    HW219627  12.289   3.601   1.616 -0.0868 -1.4863  0.5094
 3105SOL     OW19628   8.371   6.785   2.918  0.0468 -0.0909  0.0686
 3105SOL    HW119629   8.457   6.814   2.889  0.5068 -0.5837  0.9070
 3105SOL    HW219630   8.364   6.817   3.008 -0.7203  0.0970 -0.0507
 3106SOL     OW19631   3.492   0.252   9.840 -0.5379  0.0197  0.7768
 3106SOL    HW119632   3.439   0.331   9.827 -1.6688 -0.4336  2.3309
 3106SOL    HW219633   3.572   0.269   9.791 -1.1559  1.7207  0.2749
 3107SOL     OW19634   1.861   0.601   9.221 -0.2222 -0.2290  0.3042
 3107SOL    HW119635   1.940   0.549   9.211  0.2890  0.8478 -1.7227
 3107SOL    HW219636   1.808   0.582   9.144 -0.1704  1.9265 -0.3276
 3108SOL     OW19637   3.626  10.314  12.339 -0.3041 -0.1523  0.2462
 3108SOL    HW119638   3.650  10.231  12.297 -1.8620 -1.0110  0.9484
 3108SOL    HW219639   3.532  10.323  12.322 -0.2646  1.1894  0.6668
 3109SOL     OW19640   2.105  12.614   3.790  0.3472  0.2261  0.1028
 3109SOL    HW119641   2.112  12.707   3.813  1.0588  0.6366 -1.6117
 3109SOL    HW219642   2.131  12.568   3.870  0.6222  1.4972  0.7851
 3110SOL     OW19643   8.136  11.051   7.408 -0.6692  0.5565  0.0741
 3110SOL    HW119644   8.116  11.024   7.319  0.9021 -0.1970 -0.0959
 3110SOL    HW219645   8.082  10.994   7.463  0.3311 -0.8826 -0.3619
 3111SOL     OW19646   8.569  11.091   6.011  0.3133 -0.0261  0.2416
 3111SOL    HW119647   8.500  11.156   6.003 -1.0543 -1.0912  2.5520
 3111SOL    HW219648   8.650  11.140   5.995 -0.7375  1.9646  0.7391
 3112SOL     OW19649  12.003   3.177   8.794 -0.5869 -0.2281  0.0182
 3112SOL    HW119650  12.035   3.210   8.878 -0.2548 -1.8085  0.5295
 3112SOL    HW219651  12.079   3.137   8.753 -0.9830 -0.3617 -0.6007
 3113SOL     OW19652   3.734   6.702  10.190 -0.7366  0.3105 -0.2943
 3113SOL    HW119653   3.679   6.629  10.163 -0.9567  0.1869  0.4760
 3113SOL    HW219654   3.772   6.735  10.108  0.7492 -1.7386 -0.4938
 3114SOL     OW19655   0.092   9.348   8.201 -0.8368  0.3215  0.5242
 3114SOL    HW119656   0.003   9.373   8.178 -1.3705 -1.4333  0.5609
 3114SOL    HW219657   0.141   9.358   8.119 -1.0953  1.0781  0.4533
 3115SOL     OW19658  10.462   3.409  11.859 -0.0219 -0.4562  0.1834
 3115SOL    HW119659  10.409   3.443  11.787  0.8722  1.7951  0.5260
 3115SOL    HW219660  10.410   3.426  11.937  1.2940  2.1903  0.5709
 3116SOL     OW19661   1.950   5.295  12.531  0.1202 -0.0127 -0.2548
 3116SOL    HW119662   1.968   5.247  12.449  0.5284 -0.5892  0.1659
 3116SOL    HW219663   1.857   5.281  12.546 -0.1697  0.8799 -1.1111
 3117SOL     OW19664   9.167   3.035   3.200 -0.0782  0.0576 -0.4141
 3117SOL    HW119665   9.248   2.986   3.207  1.1742  2.2389  1.5889
 3117SOL    HW219666   9.098   2.970   3.216  1.4714 -1.1642  1.8841
 3118SOL     OW19667   0.499   5.515   5.358  0.0061 -0.2767  0.7277
 3118SOL    HW119668   0.560   5.568   5.306 -0.9055  1.4876  1.3779
 3118SOL    HW219669   0.531   5.522   5.448 -0.8957  0.3080  1.0119
 3119SOL     OW19670   2.976  10.722   0.402 -0.0990  0.4114 -1.0685
 3119SOL    HW119671   2.894  10.770   0.408 -0.3779 -0.0061 -1.4711
 3119SOL    HW219672   2.976  10.665   0.480  0.8172  1.9247  0.1021
 3120SOL     OW19673   6.466   9.031   0.606  0.0704  0.0912  0.3851
 3120SOL    HW119674   6.384   9.068   0.640 -0.7721 -0.8289 -0.5588
 3120SOL    HW219675   6.454   8.936   0.614  0.5042 -0.0923 -0.9835
 3121SOL     OW19676   5.061   6.399   3.246  0.1540 -0.0359 -0.1574
 3121SOL    HW119677   4.992   6.449   3.291  0.9005 -1.1966  2.4838
 3121SOL    HW219678   5.031   6.308   3.252  0.1520 -0.2290 -2.4088
 3122SOL     OW19679   3.684   8.456   6.440  0.0324 -0.0331  0.1269
 3122SOL    HW119680   3.716   8.543   6.416  1.0471 -0.0854  1.1944
 3122SOL    HW219681   3.662   8.415   6.357 -0.4569  1.2385 -0.3976
 3123SOL     OW19682   5.886   7.421   4.675  0.2776 -0.6036 -0.7805
 3123SOL    HW119683   5.975   7.410   4.641  0.4855 -1.4100 -0.0179
 3123SOL    HW219684   5.872   7.516   4.675  0.9467 -0.4954 -1.3742
 3124SOL     OW19685   4.009   1.781   9.345  0.4419  0.1834  0.4712
 3124SOL    HW119686   4.054   1.826   9.273 -1.3414 -0.7553 -1.3045
 3124SOL    HW219687   4.009   1.689   9.319 -0.3852 -0.1530  1.6056
 3125SOL     OW19688   0.775   5.489   0.178 -0.0526  0.0440 -0.6416
 3125SOL    HW119689   0.831   5.415   0.152  1.7604  1.0155  0.2532
 3125SOL    HW219690   0.771   5.545   0.101 -0.0370 -0.1804 -0.8060
 3126SOL     OW19691   4.138   7.601   7.250 -0.1758  0.4273 -0.5062
 3126SOL    HW119692   4.061   7.653   7.269 -0.1213  0.0427  0.8500
 3126SOL    HW219693   4.211   7.662   7.259 -0.3175  0.8468 -2.0169
 3127SOL     OW19694  11.111   5.921  11.612 -0.0085  0.1309 -0.0057
 3127SOL    HW119695  11.184   5.859  11.619 -1.0626 -1.0761  0.6911
 3127SOL    HW219696  11.128   5.985  11.680  1.1873  0.7554 -0.8409
 3128SOL     OW19697   6.714   1.394   4.973  0.2991  0.3369 -0.2013
 3128SOL    HW119698   6.754   1.309   4.990 -1.0568 -0.0900  1.0890
 3128SOL    HW219699   6.788   1.454   4.966  1.2340 -0.4618  1.8463
 3129SOL     OW19700   8.471   1.602   5.679 -0.6988 -0.4183 -0.6428
 3129SOL    HW119701   8.561   1.574   5.690 -0.4102 -0.0683 -1.9517
 3129SOL    HW219702   8.421   1.549   5.742  0.2833 -1.3155 -0.5936
 3130SOL     OW19703  11.576  11.965   9.351  0.2081  0.1202  0.1597
 3130SOL    HW119704  11.536  11.878   9.342 -0.1063  0.0536  1.9660
 3130SOL    HW219705  11.503  12.023   9.371  0.7451  0.3318  1.5681
 3131SOL     OW19706   3.625   4.594  11.081  0.2698 -0.3887  0.1264
 3131SOL    HW119707   3.654   4.587  11.172  0.0103 -1.0695  0.1671
 3131SOL    HW219708   3.700   4.563  11.030  1.1071  1.7159 -0.0246
 3132SOL     OW19709   0.661   0.009   7.999 -0.4730 -0.0612  0.1044
 3132SOL    HW119710   0.698   0.074   7.939 -0.9500 -0.2504 -0.4006
 3132SOL    HW219711   0.658   0.054   8.084 -1.3333  0.7855 -0.3517
 3133SOL     OW19712  12.535  11.509   3.937  0.2915 -0.3210  0.2710
 3133SOL    HW119713  12.502  11.595   3.911 -2.1733 -0.2222  3.2063
 3133SOL    HW219714  12.471  11.447   3.901 -0.3110 -0.5365  1.6333
 3134SOL     OW19715  10.750   9.982   7.693  0.1978 -0.6712 -0.0316
 3134SOL    HW119716  10.825   9.986   7.753  0.5065 -0.7626 -0.4052
 3134SOL    HW219717  10.699  10.060   7.714  1.3762  0.4177 -1.0219
 3135SOL     OW19718  12.356   8.380   3.489  0.5062  0.0825 -0.2797
 3135SOL    HW119719  12.282   8.433   3.520 -0.3205 -0.9986 -0.3561
 3135SOL    HW219720  12.316   8.314   3.432  1.3903 -1.2151  0.5675
 3136SOL     OW19721   2.074   1.491  10.423 -0.1334 -0.0801 -0.5577
 3136SOL    HW119722   2.068   1.579  10.386 -0.3967 -0.3377 -1.1464
 3136SOL    HW219723   1.985   1.456  10.416 -0.4416  0.2318  1.2929
 3137SOL     OW19724   6.020   1.861   5.345 -0.4097 -0.4657 -0.2827
 3137SOL    HW119725   6.041   1.859   5.439  2.3223  1.1658 -0.7535
 3137SOL    HW219726   6.078   1.795   5.307 -0.7120 -0.3436 -0.9524
 3138SOL     OW19727  12.122   0.083   2.992  0.0923 -0.6356  0.0151
 3138SOL    HW119728  12.117   0.178   3.007 -0.4192 -0.7600  0.6911
 3138SOL    HW219729  12.214   0.061   3.006  0.1168 -0.3137  0.3905
 3139SOL     OW19730   5.145   2.895  12.293  0.1614 -0.2745  0.2734
 3139SOL    HW119731   5.144   2.853  12.207 -0.5808  0.7177 -0.2258
 3139SOL    HW219732   5.057   2.931  12.303  1.0940  2.2071  0.1411
 3140SOL     OW19733   2.288   4.687   5.738 -0.4582  0.0030  0.2465
 3140SOL    HW119734   2.227   4.624   5.700 -0.6124  0.0475  0.4168
 3140SOL    HW219735   2.374   4.660   5.706 -0.5045 -0.3987  0.4488
 3141SOL     OW19736   4.508   2.653   0.353 -0.6493  0.1535 -0.1760
 3141SOL    HW119737   4.522   2.643   0.447  2.1399 -0.0204 -0.5269
 3141SOL    HW219738   4.596   2.663   0.316 -1.6189 -0.2025 -2.8286
 3142SOL     OW19739   0.122   7.025   7.275 -0.2183 -0.3413 -0.2109
 3142SOL    HW119740   0.159   6.955   7.222  0.0811 -0.2595 -0.1088
 3142SOL    HW219741   0.100   7.094   7.212 -0.5203 -0.5265 -0.3121
 3143SOL     OW19742   4.624   3.108   6.615  0.4415  0.1082  0.2644
 3143SOL    HW119743   4.610   3.147   6.529  1.3922  0.7494  0.3843
 3143SOL    HW219744   4.625   3.182   6.675 -0.9194 -0.3933  0.9440
 3144SOL     OW19745   2.174  11.461   7.810 -0.5652 -0.1227 -0.3133
 3144SOL    HW119746   2.223  11.448   7.729 -0.4857  0.6002 -0.3891
 3144SOL    HW219747   2.135  11.548   7.801 -0.8560 -0.1865  0.2684
 3145SOL     OW19748  12.309   2.274  12.383  0.2704  0.4406  0.3660
 3145SOL    HW119749  12.306   2.360  12.425 -0.2271  1.0354 -0.8389
 3145SOL    HW219750  12.323   2.293  12.290  0.0277 -0.7780  0.0630
 3146SOL     OW19751   6.672   0.986   6.441  0.0586  0.2016  0.4644
 3146SOL    HW119752   6.681   1.005   6.348  1.3651  0.5866  0.6477
 3146SOL    HW219753   6.579   0.971   6.454  0.0843 -1.9415 -1.2951
 3147SOL     OW19754   1.669   8.068   3.131 -0.1237  0.0025  0.0969
 3147SOL    HW119755   1.648   8.161   3.129  1.7799  0.4701 -0.7097
 3147SOL    HW219756   1.735   8.057   3.063 -0.4017 -1.9847  0.0769
 3148SOL     OW19757   5.972   2.627   6.323  0.2330 -0.1919  0.1667
 3148SOL    HW119758   5.996   2.590   6.238 -0.7862  2.3015 -1.3344
 3148SOL    HW219759   6.054   2.663   6.357  0.1604  1.4825 -1.2767
 3149SOL     OW19760   5.467   4.594   6.928 -0.8758  0.0879 -0.0575
 3149SOL    HW119761   5.419   4.526   6.880  1.7271 -2.8347  1.1560
 3149SOL    HW219762   5.445   4.579   7.019  1.0562 -0.3373  0.3812
 3150SOL     OW19763   2.807   8.714  12.460 -0.3040  0.0530  0.2463
 3150SOL    HW119764   2.863   8.654  12.410  0.0482  0.1917  0.4716
 3150SOL    HW219765   2.769   8.658  12.529  0.6979  0.2519  0.9920
 3151SOL     OW19766   2.510  11.436  11.833 -0.4923 -0.2558  0.3635
 3151SOL    HW119767   2.582  11.448  11.895 -1.8444  1.8959  1.6817
 3151SOL    HW219768   2.516  11.512  11.775 -1.4399 -0.2505  0.2579
 3152SOL     OW19769   2.645   8.154   9.053  0.0993 -0.4608  0.1641
 3152SOL    HW119770   2.672   8.102   8.977 -0.9391 -1.1482  0.2385
 3152SOL    HW219771   2.674   8.103   9.128 -2.0182 -1.6362  0.2630
 3153SOL     OW19772   1.706  10.163   5.272 -0.4693  0.2381  0.0083
 3153SOL    HW119773   1.621  10.120   5.275  0.0250 -0.7194  1.3427
 3153SOL    HW219774   1.749  10.138   5.354  0.4461  2.0721  0.1513
 3154SOL     OW19775   9.158  11.557   3.497 -0.0595  0.0080 -0.8300
 3154SOL    HW119776   9.188  11.621   3.432 -0.4880  1.6227  0.5049
 3154SOL    HW219777   9.175  11.599   3.582 -3.4768 -0.1143  0.0610
 3155SOL     OW19778   9.430   2.740   6.616 -0.4251  0.3326  0.8787
 3155SOL    HW119779   9.452   2.797   6.690  0.1586 -0.7103  1.5320
 3155SOL    HW219780   9.335   2.751   6.605 -0.1213  2.7158 -0.1374
 3156SOL     OW19781   5.667   2.006   9.657 -0.5437 -0.1841  0.2032
 3156SOL    HW119782   5.747   2.024   9.608  0.0393 -1.4088  0.6630
 3156SOL    HW219783   5.598   2.003   9.591  0.2187 -1.7701 -0.5744
 3157SOL     OW19784   7.571  10.969   2.335  0.0592  0.7043  0.3238
 3157SOL    HW119785   7.498  10.914   2.309  1.9357 -1.4242 -0.8434
 3157SOL    HW219786   7.579  10.957   2.429  0.1918 -0.7831  0.1443
 3158SOL     OW19787   3.405   2.244   6.374  0.3888  0.3366  0.5466
 3158SOL    HW119788   3.421   2.159   6.415  1.6441 -0.3092 -1.1985
 3158SOL    HW219789   3.321   2.232   6.328  2.1334 -1.2104 -2.5635
 3159SOL     OW19790   1.819   3.585   4.493 -0.4258 -0.1696 -0.2830
 3159SOL    HW119791   1.806   3.671   4.532  2.4530  0.4254 -0.3905
 3159SOL    HW219792   1.785   3.524   4.558 -2.2006  0.9963 -0.0462
 3160SOL     OW19793  12.037   5.676   7.466 -0.0697  0.0009  0.1584
 3160SOL    HW119794  11.946   5.676   7.435 -0.5780  1.3086  1.5064
 3160SOL    HW219795  12.040   5.606   7.532 -0.7322  1.3100  1.6578
 3161SOL     OW19796   1.713  12.216   2.609 -0.4273 -0.2668 -0.4256
 3161SOL    HW119797   1.771  12.145   2.636  0.7849  1.3691  1.6046
 3161SOL    HW219798   1.629  12.174   2.592  0.9317 -2.5301 -2.1483
 3162SOL     OW19799   2.085   4.482   1.506  0.3627 -0.7843 -0.2342
 3162SOL    HW119800   2.036   4.564   1.509 -0.0223 -1.0110 -0.2744
 3162SOL    HW219801   2.177   4.509   1.508  0.2326 -0.3930  0.6809
 3163SOL     OW19802  12.119   1.327   2.588 -0.5588 -0.1605  0.5371
 3163SOL    HW119803  12.214   1.321   2.588 -0.5895 -1.0077  1.4682
 3163SOL    HW219804  12.099   1.409   2.542  0.6784  0.9128  1.8209
 3164SOL     OW19805  10.375   9.071   6.818 -0.0219 -0.0397 -0.2408
 3164SOL    HW119806  10.400   9.141   6.878 -0.3375 -1.1067  1.1929
 3164SOL    HW219807  10.304   9.108   6.766 -1.0773  0.3265  1.3862
 3165SOL     OW19808  11.570  11.954   5.648 -0.8655  0.2496  0.4044
 3165SOL    HW119809  11.554  11.868   5.607 -1.7042  0.2987  0.6165
 3165SOL    HW219810  11.566  12.016   5.575 -0.3914  0.1249  0.2702
 3166SOL     OW19811   9.320  10.605   4.694 -0.5211 -0.4336 -0.0285
 3166SOL    HW119812   9.345  10.517   4.665 -1.7480 -1.3622  1.4972
 3166SOL    HW219813   9.227  10.612   4.670 -0.9304 -0.3305  1.4770
 3167SOL     OW19814   3.717   7.897   0.144 -0.2069  0.3199 -0.1809
 3167SOL    HW119815   3.657   7.823   0.148  0.5822 -0.2756  1.7671
 3167SOL    HW219816   3.793   7.870   0.196  1.2921  1.4610 -1.6618
 3168SOL     OW19817   8.323   6.131   6.128  0.1800 -0.1484  0.0555
 3168SOL    HW119818   8.305   6.224   6.113 -0.6352 -0.2466  0.3520
 3168SOL    HW219819   8.250   6.086   6.085 -0.0520 -0.5938  0.9097
 3169SOL     OW19820   5.348   7.508   6.589 -0.3267 -0.4660  0.0745
 3169SOL    HW119821   5.367   7.512   6.683 -1.1344  0.1763  0.2220
 3169SOL    HW219822   5.258   7.541   6.581 -1.7884 -4.0943 -0.4889
 3170SOL     OW19823   1.297   2.583  12.616  0.2083 -0.1273 -0.1928
 3170SOL    HW119824   1.312   2.669  12.656  1.6847  0.0455 -1.0371
 3170SOL    HW219825   1.207   2.560  12.641  0.1981  1.1154  1.0350
 3171SOL     OW19826   3.920   4.429   1.597 -0.1377  0.1087  0.2074
 3171SOL    HW119827   4.014   4.423   1.579 -0.1614 -1.5760  0.4217
 3171SOL    HW219828   3.879   4.384   1.522 -0.5407 -2.1605  1.6808
 3172SOL     OW19829   6.653  10.594   2.433  0.0191  0.3274 -0.5941
 3172SOL    HW119830   6.571  10.638   2.414 -0.3796 -1.1245 -2.5340
 3172SOL    HW219831   6.637  10.503   2.408  1.5723 -0.4305  0.9653
 3173SOL     OW19832   0.908   0.699  12.448 -0.3090  0.0593  0.1648
 3173SOL    HW119833   0.873   0.784  12.476 -0.5943  0.4156 -1.1945
 3173SOL    HW219834   0.899   0.643  12.525 -0.8053  1.0639  0.8618
 3174SOL     OW19835   2.993  11.050   8.888 -0.3467 -0.0030  0.6145
 3174SOL    HW119836   3.068  11.070   8.833  0.5540  2.7864  2.5859
 3174SOL    HW219837   2.950  10.977   8.845  0.5652  1.5559 -3.4333
 3175SOL     OW19838   0.293   9.970  11.725 -0.0419  0.1907  0.4175
 3175SOL    HW119839   0.251   9.951  11.809 -0.4788 -1.9860 -0.2459
 3175SOL    HW219840   0.283   9.890  11.674  1.3231  1.0347 -1.2760
 3176SOL     OW19841   3.932  11.508  10.198 -0.3126 -0.5571  0.1420
 3176SOL    HW119842   3.836  11.503  10.193 -0.3453 -0.5832  0.8266
 3176SOL    HW219843   3.956  11.446  10.266  0.1093  0.3065  0.7985
 3177SOL     OW19844   3.093   6.391   6.161 -0.0168  0.2720  0.3589
 3177SOL    HW119845   3.161   6.409   6.225 -1.9078  0.0094  2.5972
 3177SOL    HW219846   3.044   6.473   6.154  0.0079  0.2170 -0.5854
 3178SOL     OW19847   0.957   5.771  12.121 -0.2712 -0.4174  0.4962
 3178SOL    HW119848   0.948   5.759  12.026  0.2409  2.4793 -0.0214
 3178SOL    HW219849   1.051   5.769  12.137 -0.3350 -5.2661  1.8053
 3179SOL     OW19850   0.008   1.625   8.589  0.1450  0.0502  0.2587
 3179SOL    HW119851   0.026   1.534   8.565  2.2646  0.0714  1.5217
 3179SOL    HW219852   0.085   1.674   8.559  0.0943  1.0236  1.6032
 3180SOL     OW19853   2.418  11.568   7.189 -0.0716  0.3776  0.3852
 3180SOL    HW119854   2.363  11.497   7.222  1.0377 -0.9671 -0.5509
 3180SOL    HW219855   2.447  11.538   7.103  0.8069  1.7727  0.1554
 3181SOL     OW19856  12.517   0.093   8.171  0.2408  0.2896  0.4207
 3181SOL    HW119857  12.447   0.158   8.167 -1.0463 -1.0508 -0.0090
 3181SOL    HW219858  12.514   0.060   8.261  0.9929  0.9188  0.6818
 3182SOL     OW19859   9.795   0.582   8.607  0.7121 -0.3485  0.4750
 3182SOL    HW119860   9.706   0.615   8.595  0.6851 -0.4086  0.5056
 3182SOL    HW219861   9.848   0.632   8.545  0.2869 -1.8581 -1.1938
 3183SOL     OW19862   9.002   2.100   4.382  0.2042  0.8129 -0.1227
 3183SOL    HW119863   9.078   2.046   4.361  0.9817  1.5057  0.8021
 3183SOL    HW219864   8.944   2.042   4.430  0.4353  0.4480 -0.2824
 3184SOL     OW19865   6.159  12.797  11.454 -0.1031 -0.7198 -0.3965
 3184SOL    HW119866   6.128  12.842  11.375  0.7879 -0.8752 -0.8486
 3184SOL    HW219867   6.111  12.714  11.455 -1.2924 -0.0487  0.1039
 3185SOL     OW19868  12.552   1.644  11.484  0.8130 -0.2645 -1.0076
 3185SOL    HW119869  12.560   1.550  11.468 -1.0342 -0.6047 -0.1077
 3185SOL    HW219870  12.472   1.653  11.536  1.9598  1.6185  0.5588
 3186SOL     OW19871   5.217   5.724   9.690  0.4008  0.3828  0.2975
 3186SOL    HW119872   5.202   5.669   9.613 -0.3181  1.5856 -0.4568
 3186SOL    HW219873   5.149   5.697   9.752 -0.1897  0.6516 -0.2161
 3187SOL     OW19874   6.345  10.461  11.309  0.0969 -0.6017  0.0520
 3187SOL    HW119875   6.250  10.459  11.300  0.0644  1.1724 -0.4014
 3187SOL    HW219876   6.378  10.448  11.219  0.1613  1.5695 -0.3066
 3188SOL     OW19877   2.141  12.776   6.387 -0.3399 -0.3918 -0.5825
 3188SOL    HW119878   2.073  12.732   6.336 -0.8952 -1.7012  1.1792
 3188SOL    HW219879   2.129  12.869   6.368 -2.3104 -0.6382 -0.7325
 3189SOL     OW19880  11.409   4.565   0.422 -0.6895  0.2181 -0.0912
 3189SOL    HW119881  11.347   4.636   0.407  0.5852  1.0393 -1.8849
 3189SOL    HW219882  11.457   4.591   0.501 -0.4608  1.1987 -0.5421
 3190SOL     OW19883  12.071   4.721  11.130 -0.0265  0.6040 -0.2356
 3190SOL    HW119884  12.133   4.733  11.058 -0.3834 -0.1454 -0.6788
 3190SOL    HW219885  12.116   4.663  11.191  0.3607  1.4111  0.2610
 3191SOL     OW19886   3.384   1.504   1.555 -0.1510  0.3004 -0.0958
 3191SOL    HW119887   3.422   1.561   1.622  1.6161 -0.2023 -0.6133
 3191SOL    HW219888   3.311   1.461   1.599 -0.4355  1.6314  0.8243
 3192SOL     OW19889   4.438   1.650   4.372  0.0508  0.1869  0.1987
 3192SOL    HW119890   4.494   1.716   4.412  0.8998 -0.7697  0.6257
 3192SOL    HW219891   4.472   1.567   4.404 -0.3224 -0.5230 -1.1757
 3193SOL     OW19892   5.428   9.004   0.487  0.3898 -0.0776 -0.3579
 3193SOL    HW119893   5.438   8.994   0.392  1.2790  0.1554 -0.2965
 3193SOL    HW219894   5.336   9.025   0.499  0.5779  1.4884 -1.3246
 3194SOL     OW19895  10.973   8.282   9.701  0.2958  0.6022  0.3897
 3194SOL    HW119896  10.965   8.249   9.791 -0.0309 -1.6518 -0.4109
 3194SOL    HW219897  11.067   8.278   9.683  0.2227 -0.2679  0.1773
 3195SOL     OW19898   4.916   3.618   1.534  0.0391 -0.0376  0.1038
 3195SOL    HW119899   4.908   3.565   1.614  0.0205 -0.1187  0.0476
 3195SOL    HW219900   4.847   3.683   1.543 -0.0832 -0.1612  0.0663
 3196SOL     OW19901   5.060  11.255   9.969 -0.5241 -0.3791 -0.0459
 3196SOL    HW119902   4.977  11.244   9.921 -1.9472 -0.3466  2.2303
 3196SOL    HW219903   5.089  11.165   9.986  0.6228 -0.4006 -1.9011
 3197SOL     OW19904   1.120   4.324   5.553 -0.1633  0.0938 -0.0508
 3197SOL    HW119905   1.104   4.415   5.526  1.4234  0.5733  0.5473
 3197SOL    HW219906   1.170   4.331   5.634 -0.5620 -1.3307  0.3394
 3198SOL     OW19907   6.634  11.261   5.908  0.3582 -0.0031 -0.5427
 3198SOL    HW119908   6.667  11.238   5.994 -1.3284 -0.6724 -0.0230
 3198SOL    HW219909   6.545  11.224   5.906  1.1148 -2.0294 -3.3889
 3199SOL     OW19910   3.481   0.493   9.681  0.6264 -0.0566  0.3313
 3199SOL    HW119911   3.460   0.573   9.730 -0.9683 -0.4725  0.3714
 3199SOL    HW219912   3.434   0.502   9.598  0.4600 -0.9266  0.3183
 3200SOL     OW19913   9.363   8.140   9.173 -0.2831 -0.3852 -0.1577
 3200SOL    HW119914   9.350   8.047   9.159  1.4027 -0.9076  1.3782
 3200SOL    HW219915   9.391   8.147   9.265  0.4429  1.5268 -0.4746
 3201SOL     OW19916  11.713   4.957   4.481 -0.2115  0.0630  0.3335
 3201SOL    HW119917  11.743   4.874   4.518 -0.1078  0.1138  0.3636
 3201SOL    HW219918  11.792   5.013   4.480 -0.2762  0.1541  0.2967
 3202SOL     OW19919  11.879   6.188   1.695 -0.7449 -0.0323  0.0967
 3202SOL    HW119920  11.953   6.181   1.755 -1.0109  1.0200  0.5708
 3202SOL    HW219921  11.839   6.101   1.696  1.5393 -1.1988 -1.6112
 3203SOL     OW19922   4.999   0.028   1.729  0.4681  0.2704  0.1381
 3203SOL    HW119923   5.065   0.096   1.714  0.5171  0.0321 -0.8098
 3203SOL    HW219924   4.974  -0.001   1.641  0.3545 -0.8499  0.5148
 3204SOL     OW19925   8.121   6.395  12.139 -0.1553  0.1184  0.3216
 3204SOL    HW119926   8.093   6.436  12.220  0.7014  0.9013  0.2374
 3204SOL    HW219927   8.166   6.315  12.166  0.2573  0.4512  0.6343
 3205SOL     OW19928  12.922   5.663   7.929 -0.1343  0.1342 -0.1900
 3205SOL    HW119929  12.973   5.744   7.926  0.2695 -0.1346 -0.7492
 3205SOL    HW219930  12.839   5.686   7.888  0.6517 -0.1912 -2.0525
 3206SOL     OW19931   5.055  10.515   1.257  0.3968  0.1988  0.2517
 3206SOL    HW119932   4.967  10.480   1.246  0.5656 -0.4461  0.8333
 3206SOL    HW219933   5.106  10.476   1.186 -0.0828  1.7108 -0.9801
 3207SOL     OW19934   8.132   0.183  12.955 -0.0706  0.0494  0.4765
 3207SOL    HW119935   8.105   0.209  12.866 -1.9866 -1.7116  0.4468
 3207SOL    HW219936   8.201   0.118  12.941  0.2300  0.4049  0.3058
 3208SOL     OW19937  10.056   9.394  12.134  0.1396 -0.0250  0.0841
 3208SOL    HW119938   9.993   9.466  12.131  0.1065  0.0928  2.1177
 3208SOL    HW219939  10.140   9.435  12.112 -0.4117 -0.2135 -2.7830
 3209SOL     OW19940   1.973   1.438  12.152  0.2772  0.5078 -0.1580
 3209SOL    HW119941   1.927   1.513  12.190  2.3181  0.3578  3.0509
 3209SOL    HW219942   2.066   1.459  12.164  0.9960 -1.0317 -2.4578
 3210SOL     OW19943   2.652   6.765  10.639  0.2954  0.2413  0.2125
 3210SOL    HW119944   2.607   6.688  10.605 -0.7212  1.1314 -0.5296
 3210SOL    HW219945   2.716   6.787  10.571  0.1179  0.4377  0.1057
 3211SOL     OW19946   9.843  10.857   0.341  0.4625 -0.1693  0.4356
 3211SOL    HW119947   9.871  10.896   0.423  0.0203  3.1734 -0.8513
 3211SOL    HW219948   9.921  10.858   0.286  0.6541 -2.0193  0.5928
 3212SOL     OW19949   6.225  10.219   3.126 -0.4010  0.3832  0.2813
 3212SOL    HW119950   6.153  10.272   3.092 -1.2255 -0.8441  0.0411
 3212SOL    HW219951   6.193  10.186   3.210  0.1574  0.3793  0.4982
 3213SOL     OW19952  12.703  11.965   5.796  0.6433  0.0405 -0.6231
 3213SOL    HW119953  12.689  12.056   5.770  2.5566  1.0652  1.4980
 3213SOL    HW219954  12.746  11.925   5.721  1.1701  1.3491 -1.0573
 3214SOL     OW19955   8.824   5.527   4.680  0.4268 -0.7543  0.0275
 3214SOL    HW119956   8.912   5.489   4.670 -0.1178 -1.8849 -0.5860
 3214SOL    HW219957   8.764   5.457   4.656 -0.6305  0.4526 -1.0425
 3215SOL     OW19958   5.469   5.396   9.578 -0.2413  0.2567 -0.1444
 3215SOL    HW119959   5.499   5.352   9.498  1.5551  0.2361  0.5003
 3215SOL    HW219960   5.462   5.488   9.554  0.9242  0.3463 -0.1723
 3216SOL     OW19961   6.368  11.300   1.572  0.9163 -0.0429 -0.1570
 3216SOL    HW119962   6.360  11.270   1.481 -0.2485 -0.7754  0.1665
 3216SOL    HW219963   6.289  11.267   1.615  0.7638  1.4839  0.7995
 3217SOL     OW19964   8.451   8.106   1.288 -0.0938  0.0889 -0.1987
 3217SOL    HW119965   8.478   8.039   1.351  2.9822  1.5089  0.1994
 3217SOL    HW219966   8.484   8.074   1.204 -0.4870  0.1315 -0.3701
 3218SOL     OW19967   3.522   6.497  12.225  0.5067  0.1345 -0.6301
 3218SOL    HW119968   3.499   6.502  12.318 -0.6194  1.3057 -0.9289
 3218SOL    HW219969   3.575   6.575  12.210  0.4196  0.1181 -1.0244
 3219SOL     OW19970  10.832   4.130   8.929  0.1488 -0.3309  0.0828
 3219SOL    HW119971  10.808   4.051   8.977  2.2362 -1.9977 -1.3613
 3219SOL    HW219972  10.921   4.112   8.897  1.7658  3.6210  1.7179
 3220SOL     OW19973   0.227   0.158  11.970  0.0734 -0.0318 -0.3064
 3220SOL    HW119974   0.205   0.229  11.910  0.8422  1.2665  0.8880
 3220SOL    HW219975   0.321   0.166  11.983 -0.1027 -0.1910  1.1907
 3221SOL     OW19976   8.378   1.741   8.544 -0.0733  0.3502  0.1804
 3221SOL    HW119977   8.444   1.743   8.613  1.3316  1.1805 -1.1373
 3221SOL    HW219978   8.388   1.824   8.499 -2.1007  0.5330 -0.0221
 3222SOL     OW19979   9.720   8.687   2.089  0.3299 -0.0291  0.3755
 3222SOL    HW119980   9.709   8.656   2.179  1.0486 -1.4740 -0.0016
 3222SOL    HW219981   9.630   8.693   2.055  0.1024 -0.4340  0.8903
 3223SOL     OW19982  12.943  11.774   8.357  0.3887  0.0097 -0.0436
 3223SOL    HW119983  12.886  11.765   8.281 -1.6120 -3.3154  1.6083
 3223SOL    HW219984  13.026  11.736   8.329 -0.1699 -0.7391 -0.7338
 3224SOL     OW19985   2.124  10.836   9.180  0.5370  0.6953 -0.4532
 3224SOL    HW119986   2.082  10.922   9.174 -2.0088 -0.2480  1.9226
 3224SOL    HW219987   2.177  10.841   9.260 -1.9654 -0.7061  1.4414
 3225SOL     OW19988  10.616   0.115   2.659 -0.2795  0.4004 -0.2756
 3225SOL    HW119989  10.549   0.060   2.699 -2.2592  1.6358 -1.7000
 3225SOL    HW219990  10.679   0.053   2.622 -1.1534 -0.8347  0.2486
 3226SOL     OW19991   2.263   0.704   6.244 -0.2287  0.6453 -0.1677
 3226SOL    HW119992   2.204   0.769   6.208 -2.0357  0.8928  2.8878
 3226SOL    HW219993   2.334   0.755   6.284  0.0175  0.5462 -0.4709
 3227SOL     OW19994   8.661  10.701   6.291  0.0764 -0.2619 -0.6085
 3227SOL    HW119995   8.675  10.691   6.197  0.0186  1.0369 -0.7764
 3227SOL    HW219996   8.649  10.795   6.303 -0.5021 -0.4797  0.6242
 3228SOL     OW19997   5.329   9.564  12.959  0.5778  0.1686  0.2279
 3228SOL    HW119998   5.340   9.483  13.008  0.8918 -1.2018 -1.9453
 3228SOL    HW219999   5.235   9.569  12.941  0.7491 -0.7364 -1.1340
 3229SOL     OW20000   1.717   6.403  12.855 -0.5497 -0.0820  0.9637
 3229SOL    HW120001   1.789   6.396  12.917 -1.0038 -0.0866  1.5024
 3229SOL    HW220002   1.759   6.419  12.771  0.0229  1.6776  1.5338
 3230SOL     OW20003   1.591   3.408   6.527 -0.7812  0.1611 -0.8751
 3230SOL    HW120004   1.591   3.314   6.544  2.9122 -0.0508 -1.2845
 3230SOL    HW220005   1.599   3.415   6.432 -0.0009  0.8205 -0.7712
 3231SOL     OW20006   4.457   3.504   2.434  0.2230 -0.0540  0.5776
 3231SOL    HW120007   4.428   3.451   2.508  0.2975  0.0903  0.7120
 3231SOL    HW220008   4.428   3.593   2.455  0.0247 -0.0560  0.3155
 3232SOL     OW20009  10.840   8.339   2.669 -0.1613 -0.1371 -0.0272
 3232SOL    HW120010  10.914   8.288   2.637 -0.4105 -0.2791 -0.3800
 3232SOL    HW220011  10.879   8.416   2.710  0.1264  0.5724 -1.5632
 3233SOL     OW20012   9.340  11.587   8.057 -0.8143  0.0392  0.2369
 3233SOL    HW120013   9.376  11.675   8.064  1.3612 -0.7325 -0.4799
 3233SOL    HW220014   9.299  11.584   7.971  1.3372 -0.3616 -0.8248
 3234SOL     OW20015   9.861   7.933   5.508 -0.0266  0.0007 -0.3020
 3234SOL    HW120016   9.835   7.882   5.431 -0.2412 -0.7145  0.2361
 3234SOL    HW220017   9.864   7.869   5.579  1.1942  0.4609  0.0725
 3235SOL     OW20018   1.067   3.455  10.295 -0.3891  0.5354  0.1308
 3235SOL    HW120019   1.048   3.455  10.389  1.4846  1.5535  0.5623
 3235SOL    HW220020   0.989   3.418  10.255 -0.7051 -1.2894  2.2002
 3236SOL     OW20021   6.683   5.423  11.622 -0.5320 -0.2846 -0.1243
 3236SOL    HW120022   6.602   5.376  11.600  0.0051 -1.6536  0.7141
 3236SOL    HW220023   6.741   5.406  11.548 -0.5985 -0.2918 -0.1751
 3237SOL     OW20024   9.034   9.900   9.217 -0.3392  0.6558  0.5122
 3237SOL    HW120025   9.054   9.938   9.131 -2.6847 -0.0488 -0.4435
 3237SOL    HW220026   9.102   9.833   9.230  2.6194  3.5765  1.2908
 3238SOL     OW20027   5.355   5.256   3.365 -0.2752 -0.7239 -0.1769
 3238SOL    HW120028   5.428   5.209   3.405  0.4178  0.6992  0.2885
 3238SOL    HW220029   5.379   5.265   3.273  0.4391  0.2300  0.0814
 3239SOL     OW20030   3.953   2.198   0.953 -0.6421  0.1986  0.2187
 3239SOL    HW120031   3.977   2.245   0.873  0.7172 -0.9920 -0.1218
 3239SOL    HW220032   3.928   2.111   0.922  0.7282 -0.5502  1.1306
 3240SOL     OW20033  12.136   5.057   1.798 -0.3596  0.0081  0.1695
 3240SOL    HW120034  12.169   5.103   1.721  0.4380 -1.5878 -0.4751
 3240SOL    HW220035  12.053   5.018   1.769 -0.5279  0.1900  0.4033
 3241SOL     OW20036   5.301   3.677   8.328 -0.0653 -0.0125 -0.4443
 3241SOL    HW120037   5.364   3.744   8.352  0.3329 -0.7366  0.6055
 3241SOL    HW220038   5.222   3.726   8.304  0.0642  0.8336  0.7449
 3242SOL     OW20039   9.726  12.224   1.189 -0.2823  0.0549 -0.0788
 3242SOL    HW120040   9.674  12.145   1.177  0.0539 -0.7748  3.1620
 3242SOL    HW220041   9.812  12.202   1.152 -0.1917 -1.1196  0.7948
 3243SOL     OW20042   2.988   6.126   0.855  0.3386 -0.1519  0.2410
 3243SOL    HW120043   3.075   6.162   0.874  0.5435 -0.5333  0.0387
 3243SOL    HW220044   2.975   6.141   0.761 -0.3814  1.1045  0.5174
 3244SOL     OW20045   1.005   3.366   8.720 -0.0864  0.1897  0.1971
 3244SOL    HW120046   1.013   3.364   8.815  1.1577  1.4267  0.1574
 3244SOL    HW220047   0.913   3.345   8.702 -0.2888 -0.2187  1.6535
 3245SOL     OW20048   4.190   1.624   6.713  0.0822  0.6272 -0.1661
 3245SOL    HW120049   4.182   1.614   6.808 -0.8494 -3.6766 -0.4875
 3245SOL    HW220050   4.104   1.655   6.685 -1.9818 -3.9532  0.1217
 3246SOL     OW20051   0.331  12.583  11.085 -0.0439 -0.2222  0.7045
 3246SOL    HW120052   0.246  12.588  11.042 -1.0607  1.7382  2.6919
 3246SOL    HW220053   0.347  12.490  11.098 -0.8861 -0.7243 -1.4833
 3247SOL     OW20054   4.950  10.344   7.375 -0.4645  0.0445  0.1273
 3247SOL    HW120055   5.021  10.408   7.367  2.5708 -2.9447  0.6129
 3247SOL    HW220056   4.934  10.338   7.470 -1.3409  0.5972  0.0291
 3248SOL     OW20057   0.412  12.025  10.717 -0.2015  0.1933  0.4761
 3248SOL    HW120058   0.399  12.012  10.811 -1.3359 -0.7177  0.2130
 3248SOL    HW220059   0.467  12.103  10.711  0.2196  0.0320  1.9066
 3249SOL     OW20060   0.509   9.665   8.332 -0.3670 -0.1556 -0.2206
 3249SOL    HW120061   0.495   9.673   8.426 -0.1253 -0.3488 -0.1687
 3249SOL    HW220062   0.436   9.713   8.293  0.1878  0.9530  0.0733
 3250SOL     OW20063   0.383   8.031   7.221  0.0208  0.3575 -0.4912
 3250SOL    HW120064   0.314   8.086   7.259  0.4365 -0.7180  2.0233
 3250SOL    HW220065   0.462   8.055   7.268  0.2054 -2.3370  0.8120
 3251SOL     OW20066  10.754  12.063   6.244  0.4305  0.2255  0.5232
 3251SOL    HW120067  10.786  12.007   6.173  0.2419  0.4175  0.2853
 3251SOL    HW220068  10.701  12.004   6.298 -1.2967  0.5327 -0.7174
 3252SOL     OW20069   5.604   9.989  11.104 -0.1067  0.0790 -0.1304
 3252SOL    HW120070   5.584  10.044  11.180 -2.3912 -1.4368  0.4530
 3252SOL    HW220071   5.590   9.899  11.134 -0.3641 -0.6073 -2.1361
 3253SOL     OW20072   2.515  10.866   4.796  0.5603  0.1228  0.1935
 3253SOL    HW120073   2.573  10.871   4.720 -0.8552  3.4339 -0.8333
 3253SOL    HW220074   2.545  10.937   4.854 -0.4403 -0.2324  1.1799
 3254SOL     OW20075   6.608  12.862   9.512  0.5484 -0.5601 -0.0778
 3254SOL    HW120076   6.564  12.813   9.442  1.9002 -0.1892 -1.2112
 3254SOL    HW220077   6.696  12.824   9.516  0.4365 -0.7286  1.6043
 3255SOL     OW20078   7.107   5.710   6.526  0.1564 -0.2714 -0.0710
 3255SOL    HW120079   7.165   5.665   6.588  1.2128 -0.6039 -1.2574
 3255SOL    HW220080   7.166   5.745   6.460 -0.9506 -0.0239 -0.9540
 3256SOL     OW20081  11.409  10.800   9.443 -0.1895  0.1139 -0.3122
 3256SOL    HW120082  11.462  10.780   9.520  0.0675  1.6790 -0.0455
 3256SOL    HW220083  11.443  10.884   9.412 -1.2258  0.1908 -1.2952
 3257SOL     OW20084  11.647   8.394   9.105  0.0907 -0.2803 -0.0897
 3257SOL    HW120085  11.705   8.462   9.071  0.7076 -1.1568 -0.8474
 3257SOL    HW220086  11.676   8.314   9.061 -0.2051 -1.1539  1.2541
 3258SOL     OW20087   9.476  12.905  11.405 -0.1030 -0.3599 -0.4165
 3258SOL    HW120088   9.395  12.904  11.456 -0.4061  0.2002 -0.8724
 3258SOL    HW220089   9.456  12.855  11.327 -0.0427 -0.1300 -0.5804
 3259SOL     OW20090   6.712   6.563   8.334 -0.5804 -0.5714 -0.0646
 3259SOL    HW120091   6.633   6.548   8.282  0.2720 -1.7404 -1.0668
 3259SOL    HW220092   6.758   6.634   8.288 -0.0601 -1.2812 -0.6552
 3260SOL     OW20093   3.117   3.932   7.699 -0.2173  0.1643 -0.4093
 3260SOL    HW120094   3.150   3.954   7.786 -0.3568 -0.3218 -0.2272
 3260SOL    HW220095   3.191   3.892   7.655  0.1593  1.3544 -0.8880
 3261SOL     OW20096   6.332   3.439   5.375  0.0433  0.0393  0.2699
 3261SOL    HW120097   6.318   3.520   5.424  1.4732  0.9930 -0.8274
 3261SOL    HW220098   6.290   3.455   5.291 -0.4772 -0.7468  0.3671
 3262SOL     OW20099   4.446  10.545   8.972  0.1234 -0.3244  0.3335
 3262SOL    HW120100   4.420  10.598   8.897 -0.9086  0.2610  1.0894
 3262SOL    HW220101   4.510  10.598   9.019  1.0483 -0.8445 -0.3190
 3263SOL     OW20102   2.023   5.262   9.765 -0.0292 -0.1374 -0.6062
 3263SOL    HW120103   2.087   5.195   9.740 -0.2079 -0.6625  0.3306
 3263SOL    HW220104   1.938   5.221   9.748 -0.1765 -0.7801  1.4697
 3264SOL     OW20105   7.644   6.775   4.990 -0.6486  0.2919  0.2162
 3264SOL    HW120106   7.575   6.791   4.925  0.4979  1.3311 -0.7937
 3264SOL    HW220107   7.706   6.717   4.945  0.1853  1.0664  0.3489
 3265SOL     OW20108   5.172   8.602  11.188 -0.0806 -0.0224  0.5938
 3265SOL    HW120109   5.214   8.522  11.220 -0.4459 -1.1868 -1.6800
 3265SOL    HW220110   5.082   8.577  11.171 -0.6697  1.3685  1.4887
 3266SOL     OW20111   2.438   2.588   5.209 -0.2098  0.0885 -0.4140
 3266SOL    HW120112   2.507   2.645   5.243  0.6595 -0.2417 -1.5353
 3266SOL    HW220113   2.406   2.540   5.285  1.2161 -0.1594  0.0721
 3267SOL     OW20114  11.799   8.214   2.227 -0.5217  0.1355  0.4516
 3267SOL    HW120115  11.779   8.212   2.320 -0.2249  1.1824  0.5470
 3267SOL    HW220116  11.854   8.136   2.213  0.1970  0.4722  1.3302
 3268SOL     OW20117   6.883  11.656   1.115  0.6854 -0.1717 -0.2557
 3268SOL    HW120118   6.958  11.715   1.111  0.3746  0.1654 -1.1280
 3268SOL    HW220119   6.911  11.579   1.066  0.5251 -0.1196 -0.4277
 3269SOL     OW20120  12.864  11.777   8.635  0.5334 -0.3497 -0.2694
 3269SOL    HW120121  12.888  11.820   8.717  0.7632 -1.1871  0.1131
 3269SOL    HW220122  12.910  11.826   8.567 -0.5466  1.0638 -0.0418
 3270SOL     OW20123   3.781   8.460   6.130  0.3665  0.6108 -0.4935
 3270SOL    HW120124   3.735   8.386   6.169 -0.5542 -0.1004 -2.7553
 3270SOL    HW220125   3.869   8.458   6.168  0.1189 -1.1941  0.0380
 3271SOL     OW20126   5.726   4.788   6.164  0.0859  0.1144  0.2133
 3271SOL    HW120127   5.721   4.771   6.070 -0.9936  1.2483  0.0397
 3271SOL    HW220128   5.818   4.808   6.180  0.4275 -0.8648 -0.4422
 3272SOL     OW20129  12.508   9.459  11.739 -0.3886  0.0244 -0.0936
 3272SOL    HW120130  12.428   9.509  11.757  0.1451  0.7524  0.2931
 3272SOL    HW220131  12.578   9.510  11.780  0.2197 -0.8428 -0.0371
 3273SOL     OW20132   2.493   7.335   9.283 -0.1413 -0.0106  0.3679
 3273SOL    HW120133   2.403   7.366   9.290 -0.6166 -1.4876  1.1731
 3273SOL    HW220134   2.543   7.395   9.337 -0.8141  0.1974  0.7711
 3274SOL     OW20135  10.111   2.834   4.659  0.5779 -0.3286  0.1827
 3274SOL    HW120136  10.179   2.888   4.619  0.1466 -0.6218 -0.9791
 3274SOL    HW220137  10.052   2.813   4.587 -0.4850 -0.4792  1.0721
 3275SOL     OW20138   5.396   9.986  10.683  0.2433  0.3558  0.0175
 3275SOL    HW120139   5.492   9.993  10.682  0.4041 -1.3947 -1.2664
 3275SOL    HW220140   5.366  10.071  10.650  1.4586  0.1248 -1.8531
 3276SOL     OW20141   9.890  12.045   8.728  0.1703  0.2003 -0.0496
 3276SOL    HW120142   9.944  12.049   8.807  0.1462  2.2079 -0.0842
 3276SOL    HW220143   9.800  12.038   8.761  0.2879 -1.3133  0.0294
 3277SOL     OW20144   3.492   8.506  10.865 -0.4896 -0.0441 -0.2985
 3277SOL    HW120145   3.453   8.476  10.783  1.6695  1.3029 -1.9588
 3277SOL    HW220146   3.524   8.426  10.906 -1.6054 -0.7529 -0.7533
 3278SOL     OW20147   4.420   7.654  11.428 -0.0963  0.1396 -0.2068
 3278SOL    HW120148   4.397   7.746  11.424  1.7475  0.7148  1.0097
 3278SOL    HW220149   4.338   7.609  11.448 -0.8684  1.6172  0.0720
 3279SOL     OW20150   6.455   1.128   3.125  0.0191  0.1659 -0.4973
 3279SOL    HW120151   6.490   1.045   3.156 -0.2563  0.0818 -0.4041
 3279SOL    HW220152   6.446   1.117   3.030  0.1512  0.1523 -0.5072
 3280SOL     OW20153   8.669  12.515   0.065 -0.8531 -0.3261  0.1293
 3280SOL    HW120154   8.675  12.453  -0.008 -1.2818  1.3520 -1.4206
 3280SOL    HW220155   8.605  12.476   0.124 -2.0399 -0.8224 -1.4057
 3281SOL     OW20156   2.338  12.438   4.684 -0.5983  0.2157  0.5208
 3281SOL    HW120157   2.359  12.354   4.726  1.8104  1.2587  1.5761
 3281SOL    HW220158   2.381  12.433   4.598  1.4638  1.0932  1.4157
 3282SOL     OW20159   8.944   0.495   4.286 -0.0750 -0.2621  0.6117
 3282SOL    HW120160   8.965   0.586   4.263 -1.8478  0.1974  0.6499
 3282SOL    HW220161   8.865   0.475   4.236  0.5244 -1.9581  0.2632
 3283SOL     OW20162   6.263   7.026   9.636 -0.0778 -0.0283 -0.3202
 3283SOL    HW120163   6.197   7.050   9.571 -0.5242 -0.5825 -0.0843
 3283SOL    HW220164   6.277   6.932   9.623 -0.8441 -0.3466  0.9529
 3284SOL     OW20165   6.640  10.209  10.022  0.1769  0.0874  0.8763
 3284SOL    HW120166   6.668  10.207   9.931  1.5629  1.8093  1.2034
 3284SOL    HW220167   6.546  10.190  10.019  0.1710  0.2460 -0.9101
 3285SOL     OW20168   7.809   8.696   4.783  0.1784 -0.3918  0.2667
 3285SOL    HW120169   7.837   8.611   4.749 -0.2946 -0.7302  0.7023
 3285SOL    HW220170   7.881   8.724   4.839 -0.1231 -1.0254  0.9901
 3286SOL     OW20171  11.713   9.371   7.520  0.2044  0.5168  0.0784
 3286SOL    HW120172  11.635   9.369   7.576 -0.1994 -0.8636 -0.4905
 3286SOL    HW220173  11.750   9.458   7.533  0.5290  0.0438  3.0286
 3287SOL     OW20174   2.962   6.655   6.425  0.3559  0.5181  0.0757
 3287SOL    HW120175   3.037   6.605   6.455  0.1866 -0.1269 -0.5485
 3287SOL    HW220176   2.929   6.607   6.349  0.6604  1.9743 -1.0311
 3288SOL     OW20177   8.213  10.853   2.010  0.1950  0.2594 -0.8154
 3288SOL    HW120178   8.224  10.780   1.949  1.3874  1.2535 -1.8504
 3288SOL    HW220179   8.297  10.899   2.007 -0.8219  2.2077 -0.9031
 3289SOL     OW20180   8.200   5.820   4.129  0.8040  0.1888  0.4212
 3289SOL    HW120181   8.248   5.902   4.131  0.5960  0.3229  0.0196
 3289SOL    HW220182   8.129   5.832   4.193  2.0014 -0.4617  1.9582
 3290SOL     OW20183   5.120   7.117   3.659  0.1798 -0.1071  0.5071
 3290SOL    HW120184   5.209   7.087   3.673  1.4262  2.6035 -0.8317
 3290SOL    HW220185   5.081   7.118   3.747  1.6834 -0.6682  1.2107
 3291SOL     OW20186   6.974  12.463   9.651  0.3466  0.3698  0.3019
 3291SOL    HW120187   7.019  12.393   9.699  0.7230  1.5899  1.7899
 3291SOL    HW220188   6.912  12.500   9.714 -0.4698  0.8227 -0.7379
 3292SOL     OW20189   8.406   0.690   6.674  0.0426  0.5100 -0.2461
 3292SOL    HW120190   8.433   0.722   6.588 -0.0643  0.6915 -0.2128
 3292SOL    HW220191   8.483   0.700   6.729  1.2115 -2.6622 -1.0948
 3293SOL     OW20192   7.651   0.013   9.251 -0.1398  0.1482  0.2434
 3293SOL    HW120193   7.679  -0.078   9.262  0.2694  0.1827 -0.4467
 3293SOL    HW220194   7.588   0.027   9.321 -0.1412 -0.6403  0.4132
 3294SOL     OW20195   4.992   1.997   8.795  0.7411  0.8878  0.1067
 3294SOL    HW120196   5.017   1.910   8.763  0.3384 -0.2000  2.5147
 3294SOL    HW220197   5.074   2.045   8.801  1.1855  0.1200  0.2558
 3295SOL     OW20198   2.410   0.374   7.560 -0.0704  0.1753 -0.0517
 3295SOL    HW120199   2.474   0.418   7.505  1.5001 -0.0708  1.4921
 3295SOL    HW220200   2.399   0.287   7.521  0.7414  0.1254 -0.1782
 3296SOL     OW20201   8.096   2.655   4.233 -0.3303  0.4180 -0.1607
 3296SOL    HW120202   8.137   2.572   4.259  0.4570  1.1511  1.0884
 3296SOL    HW220203   8.137   2.677   4.150  1.1606  0.6290  0.5829
 3297SOL     OW20204  11.146   4.299   5.237 -0.1713  0.0176  0.3212
 3297SOL    HW120205  11.127   4.269   5.148 -0.2509  0.4275  0.1986
 3297SOL    HW220206  11.195   4.380   5.225 -0.0889  0.0185  0.6509
 3298SOL     OW20207  11.119   1.686   6.032  0.4237 -0.4886  0.1502
 3298SOL    HW120208  11.119   1.699   6.127  0.8056 -0.9328  0.2175
 3298SOL    HW220209  11.191   1.624   6.016  0.2166 -0.5973 -0.4021
 3299SOL     OW20210   7.873   6.468  10.479 -0.1093  0.2662 -0.3911
 3299SOL    HW120211   7.927   6.542  10.451 -2.8569  2.2764 -0.8318
 3299SOL    HW220212   7.802   6.465  10.415 -1.6827 -0.8113  1.2979
 3300SOL     OW20213  11.867   3.137  12.393  0.5426  0.6953  0.6851
 3300SOL    HW120214  11.935   3.139  12.460  0.5666  0.4030  0.6690
 3300SOL    HW220215  11.841   3.045  12.387  0.1319  0.8077  0.7039
 3301SOL     OW20216   1.021  10.004   8.301 -0.3248 -0.1467  0.1613
 3301SOL    HW120217   1.031  10.090   8.260 -0.6116 -1.1001 -2.0289
 3301SOL    HW220218   1.106   9.985   8.340 -0.4776  1.4164  1.3658
 3302SOL     OW20219   5.336   5.050   2.817 -0.1953  0.5780 -0.5399
 3302SOL    HW120220   5.338   5.133   2.771 -0.1670  0.6559 -0.3980
 3302SOL    HW220221   5.243   5.037   2.838 -0.0428  1.1622  0.5078
 3303SOL     OW20222  12.088   7.464  10.466 -0.2501  0.5400 -0.3255
 3303SOL    HW120223  12.070   7.460  10.372  1.6868  1.1974 -0.7684
 3303SOL    HW220224  12.082   7.373  10.495 -0.6931  0.3070 -1.1139
 3304SOL     OW20225  10.304   9.669   9.302  0.0664 -0.2724  0.2506
 3304SOL    HW120226  10.338   9.589   9.341  1.5875  0.5482  0.6934
 3304SOL    HW220227  10.354   9.679   9.221 -0.6621 -0.1644 -0.1931
 3305SOL     OW20228   6.705   9.052   9.087 -0.2161  0.1918  0.6664
 3305SOL    HW120229   6.730   9.129   9.036  0.5929 -0.1552  0.5154
 3305SOL    HW220230   6.641   9.084   9.150  1.7492  1.4855  2.1237
 3306SOL     OW20231  12.728   9.266   6.497 -0.7904  0.1242  0.4100
 3306SOL    HW120232  12.774   9.186   6.471  0.0185  0.4853  0.7055
 3306SOL    HW220233  12.794   9.318   6.542 -0.8609  1.6733 -1.1600
 3307SOL     OW20234   9.488   6.490   3.729 -0.3048 -0.2506 -0.1576
 3307SOL    HW120235   9.516   6.518   3.642 -0.5064  1.6646  0.3443
 3307SOL    HW220236   9.561   6.513   3.786  0.5208 -2.9838  0.0200
 3308SOL     OW20237   5.560  11.563  10.919  0.1135  0.5112 -0.0147
 3308SOL    HW120238   5.654  11.563  10.901  0.3740  1.4280  1.1449
 3308SOL    HW220239   5.552  11.617  10.998 -1.3186 -0.0789  0.2701
 3309SOL     OW20240   2.872   6.321   8.054  0.5079 -0.2865  0.6904
 3309SOL    HW120241   2.882   6.242   8.107 -0.7333 -0.3093  0.9063
 3309SOL    HW220242   2.852   6.289   7.966 -0.1611 -0.2194  0.8136
 3310SOL     OW20243  11.841   7.609   3.916 -0.2635  0.1093  0.3671
 3310SOL    HW120244  11.750   7.623   3.889  0.0167  0.1822 -0.5804
 3310SOL    HW220245  11.862   7.520   3.888  0.1956  0.3688 -0.1489
 3311SOL     OW20246   7.684  11.671  11.290  0.3184  0.1708 -0.5415
 3311SOL    HW120247   7.590  11.653  11.284  0.6241 -1.1725 -2.2328
 3311SOL    HW220248   7.721  11.592  11.329  0.4862  1.8703  3.0590
 3312SOL     OW20249   7.347   5.511   2.395 -0.1347 -0.8471  0.4037
 3312SOL    HW120250   7.349   5.417   2.411  1.0350 -0.6815  1.4224
 3312SOL    HW220251   7.358   5.550   2.482 -1.7660  0.2627  0.1557
 3313SOL     OW20252   0.765   1.042   5.164 -0.3115 -0.1514  0.2150
 3313SOL    HW120253   0.703   1.043   5.237  1.5206 -2.9408  2.0135
 3313SOL    HW220254   0.768   0.950   5.137  0.6371  0.4775 -2.0083
 3314SOL     OW20255   5.377   3.876   9.404  0.8645 -0.0228  0.5289
 3314SOL    HW120256   5.458   3.919   9.376  0.5716  1.0526  1.2691
 3314SOL    HW220257   5.311   3.945   9.404 -0.2928 -1.0553 -0.8813
 3315SOL     OW20258  11.234   3.551   8.110 -0.6138 -0.6380  0.2745
 3315SOL    HW120259  11.248   3.509   8.025  0.1459 -0.1942  0.1751
 3315SOL    HW220260  11.272   3.489   8.173 -0.3781 -0.5578  0.2126
 3316SOL     OW20261   8.896   6.535   8.135  0.2664  0.2469  0.2643
 3316SOL    HW120262   8.902   6.601   8.204  0.0365  1.5577 -0.9320
 3316SOL    HW220263   8.863   6.457   8.180  0.8166  0.8382  1.7672
 3317SOL     OW20264  12.639   4.847   9.242  0.2837 -0.2796  0.1890
 3317SOL    HW120265  12.620   4.873   9.332 -0.8841 -1.7052  0.3926
 3317SOL    HW220266  12.596   4.914   9.189 -1.0205 -0.6598  0.7092
 3318SOL     OW20267   2.555   3.731  11.552  0.1159  0.0487 -0.4844
 3318SOL    HW120268   2.498   3.766  11.621 -0.1622 -2.2704  0.5652
 3318SOL    HW220269   2.497   3.721  11.477  0.0878  1.2728 -0.6489
 3319SOL     OW20270  12.512   3.296   6.215  0.5630 -0.3084 -0.0632
 3319SOL    HW120271  12.461   3.375   6.195  0.2260 -0.7851 -1.1558
 3319SOL    HW220272  12.446   3.228   6.229  0.8386 -0.3138  1.3323
 3320SOL     OW20273  12.981   4.807   2.719  0.0936 -0.2606 -0.4316
 3320SOL    HW120274  13.021   4.722   2.697 -0.3645 -0.5525 -0.1545
 3320SOL    HW220275  12.932   4.831   2.641 -0.4184 -0.6338 -0.2247
 3321SOL     OW20276   7.329  10.144   0.789  0.1192 -0.5974  0.1694
 3321SOL    HW120277   7.371  10.098   0.716  0.0462  0.8994 -0.8850
 3321SOL    HW220278   7.337  10.085   0.863  0.4832 -2.0513 -0.9806
 3322SOL     OW20279  11.506   5.508  11.834 -0.1214  0.2309 -0.4271
 3322SOL    HW120280  11.486   5.564  11.909 -0.1910 -0.2362 -0.0945
 3322SOL    HW220281  11.461   5.550  11.760 -1.2061 -0.0690  0.0548
 3323SOL     OW20282   0.307   7.112   2.981  0.4361  0.1480  0.4902
 3323SOL    HW120283   0.283   7.027   2.946  0.4315  0.0028  0.8366
 3323SOL    HW220284   0.239   7.171   2.950  0.9794  0.2295 -0.5890
 3324SOL     OW20285   4.970  11.574   4.326  0.0503  0.8025  0.6364
 3324SOL    HW120286   4.877  11.590   4.340 -0.0009  0.3821  0.7944
 3324SOL    HW220287   4.983  11.592   4.233 -1.2789 -3.9503 -0.7650
 3325SOL     OW20288   0.276  10.144  11.115 -0.5447  0.2549  0.6542
 3325SOL    HW120289   0.277  10.081  11.043 -1.9774 -0.3904  1.1551
 3325SOL    HW220290   0.352  10.200  11.099  0.8925 -1.6948  0.2796
 3326SOL     OW20291  12.099   9.686   9.199  0.5438 -0.2124 -0.1171
 3326SOL    HW120292  12.046   9.633   9.259  0.8432 -0.2926  0.0798
 3326SOL    HW220293  12.086   9.776   9.229 -1.1669  0.0079 -1.3765
 3327SOL     OW20294   7.549   5.185   6.270  0.7499  0.6256  0.5646
 3327SOL    HW120295   7.631   5.145   6.241  0.4347  0.8619 -0.7044
 3327SOL    HW220296   7.539   5.156   6.361  0.8605 -1.6475 -0.0891
 3328SOL     OW20297   0.766   6.075   0.961  0.1035  0.1249  0.3640
 3328SOL    HW120298   0.723   6.045   0.881 -0.0225 -1.0687  0.8640
 3328SOL    HW220299   0.697   6.072   1.028  0.9862 -2.0769  1.2396
 3329SOL     OW20300   1.984   7.804   7.890 -0.0929 -0.2749 -0.3489
 3329SOL    HW120301   1.914   7.866   7.870 -0.2626 -0.3824 -0.0855
 3329SOL    HW220302   2.031   7.794   7.807 -0.2080  0.0238 -0.4515
 3330SOL     OW20303   3.749   7.597   3.346 -0.1872  0.5504  0.6900
 3330SOL    HW120304   3.743   7.611   3.251 -1.0147 -0.0251  0.6447
 3330SOL    HW220305   3.760   7.502   3.355  1.4112  0.7571  1.1235
 3331SOL     OW20306   6.769  10.269   5.489 -0.2092 -0.3518 -0.7540
 3331SOL    HW120307   6.748  10.217   5.567 -1.6235 -0.0008 -0.8740
 3331SOL    HW220308   6.853  10.234   5.460  1.0007  0.3542  1.6333
 3332SOL     OW20309   7.625   8.321   1.769  0.6402  0.2747  0.0330
 3332SOL    HW120310   7.697   8.266   1.741 -0.6151 -1.4591  0.0279
 3332SOL    HW220311   7.577   8.341   1.689 -0.7165 -1.3862  0.3633
 3333SOL     OW20312   7.208   6.961  12.601  0.5451 -0.0955  0.2170
 3333SOL    HW120313   7.161   7.044  12.594 -2.7374 -1.8943 -1.4949
 3333SOL    HW220314   7.289   6.976  12.551 -0.5036  1.7268 -1.0651
 3334SOL     OW20315  12.020  10.425   6.516  0.1978 -0.2627  0.1223
 3334SOL    HW120316  11.928  10.442   6.538 -0.2164 -1.7993 -0.3041
 3334SOL    HW220317  12.069  10.474   6.582 -0.9101  0.8475  0.1645
 3335SOL     OW20318   9.011   0.525   9.931 -0.7320 -0.4114 -0.0645
 3335SOL    HW120319   9.059   0.450   9.897  0.8613  0.2568  0.6249
 3335SOL    HW220320   8.920   0.509   9.905 -0.4322 -2.5381  0.0232
 3336SOL     OW20321  10.939  12.502   3.760  0.5735  0.7241 -0.1875
 3336SOL    HW120322  10.960  12.471   3.672  0.2894  1.9983 -0.7327
 3336SOL    HW220323  10.843  12.498   3.764  0.5663  0.9753 -0.0698
 3337SOL     OW20324   6.218   0.145   9.391 -0.0063 -0.5734 -0.4676
 3337SOL    HW120325   6.287   0.183   9.338  0.6563  0.2027  0.9001
 3337SOL    HW220326   6.189   0.216   9.448 -1.7692 -0.9470 -0.8286
 3338SOL     OW20327  10.120   1.985   4.113  0.5409  0.0060 -0.9360
 3338SOL    HW120328  10.074   2.054   4.067  1.6007  1.1468 -0.3357
 3338SOL    HW220329  10.067   1.906   4.098 -0.7646  0.9643 -1.4981
 3339SOL     OW20330   6.334   2.108  11.107 -0.0905 -0.0563 -0.3089
 3339SOL    HW120331   6.246   2.084  11.136 -0.8354  0.8275 -1.7305
 3339SOL    HW220332   6.367   2.030  11.063 -1.0414  0.2838 -1.6755
 3340SOL     OW20333   7.166   8.889   7.416 -0.3057  0.0799  0.4821
 3340SOL    HW120334   7.073   8.882   7.396 -0.2787 -1.1572  0.7067
 3340SOL    HW220335   7.183   8.983   7.418 -1.8576  0.3749  1.8364
 3341SOL     OW20336   1.846   1.680  12.142 -0.1542  0.1573 -0.4076
 3341SOL    HW120337   1.882   1.648  12.060  0.2399 -1.2473  0.2850
 3341SOL    HW220338   1.763   1.721  12.118  0.3697  0.5605 -1.6003
 3342SOL     OW20339  11.699   2.419  12.633 -0.0692 -0.0242 -0.8131
 3342SOL    HW120340  11.636   2.365  12.681  0.5694 -1.9490 -2.0224
 3342SOL    HW220341  11.777   2.420  12.690  0.5843 -2.0570 -1.5965
 3343SOL     OW20342   8.595   1.181   4.135  0.3538 -0.1611 -0.0780
 3343SOL    HW120343   8.609   1.126   4.058 -0.9190  0.2977 -0.6621
 3343SOL    HW220344   8.683   1.210   4.160  0.9801 -1.8952 -0.1553
 3344SOL     OW20345   5.055   3.412   4.616  0.1217 -0.4394  0.8670
 3344SOL    HW120346   5.136   3.460   4.634  0.7413 -0.9453 -0.4474
 3344SOL    HW220347   5.080   3.348   4.549 -2.4929  2.9379 -3.8822
 3345SOL     OW20348   6.085  12.435  11.673 -0.1085  0.2392 -0.3962
 3345SOL    HW120349   6.080  12.417  11.579 -1.3029 -2.3983  0.0755
 3345SOL    HW220350   5.995  12.459  11.697  0.3365  1.5705 -0.0159
 3346SOL     OW20351  11.605   7.777   2.211  1.2372 -0.0820  0.1517
 3346SOL    HW120352  11.585   7.869   2.226  1.0399 -0.1544  0.3349
 3346SOL    HW220353  11.562   7.731   2.284 -0.7560 -0.5502 -1.2203
 3347SOL     OW20354   3.177   7.461   1.815  0.9160  0.4566 -0.3119
 3347SOL    HW120355   3.184   7.555   1.830  0.2548  0.6165 -0.9648
 3347SOL    HW220356   3.129   7.428   1.891  2.5893  0.3745  0.7586
 3348SOL     OW20357   7.439   5.308   5.644 -0.3131 -0.4512 -0.2046
 3348SOL    HW120358   7.388   5.366   5.701 -0.5726 -0.2121 -0.6735
 3348SOL    HW220359   7.518   5.288   5.695 -0.6216 -0.3913  0.3107
 3349SOL     OW20360   6.293  11.706   7.725  0.0555 -0.3817  0.0946
 3349SOL    HW120361   6.322  11.694   7.634 -1.2777 -2.3349 -0.1489
 3349SOL    HW220362   6.360  11.760   7.765  1.5622 -0.8688 -1.6222
 3350SOL     OW20363   6.423   9.859  11.422  0.6271  0.1890 -0.2841
 3350SOL    HW120364   6.450   9.948  11.399  0.5601  0.7821  1.7480
 3350SOL    HW220365   6.505   9.812  11.436  0.6578  0.0323 -0.9708
 3351SOL     OW20366   3.563   0.711  10.526  0.2672  0.8538 -0.6901
 3351SOL    HW120367   3.599   0.777  10.467  0.2017 -1.6863 -3.8168
 3351SOL    HW220368   3.489   0.673  10.478  0.2326 -1.4073  0.9727
 3352SOL     OW20369  10.884   6.736   2.399 -0.5502  0.3048 -0.6725
 3352SOL    HW120370  10.860   6.829   2.396 -1.7578 -0.0103 -1.2625
 3352SOL    HW220371  10.870   6.705   2.310 -0.7944 -0.5961 -0.3279
 3353SOL     OW20372   7.962   0.612   9.103 -0.0620 -0.0469  0.0276
 3353SOL    HW120373   8.010   0.695   9.098  0.1505 -0.2236 -1.0068
 3353SOL    HW220374   8.022   0.547   9.068 -1.4688 -0.0732 -2.5512
 3354SOL     OW20375   5.707  10.599  11.290  0.3416 -0.5559  0.4189
 3354SOL    HW120376   5.746  10.672  11.338 -0.0088 -0.5970  0.7730
 3354SOL    HW220377   5.774  10.572  11.228  0.2913  0.3835 -0.0460
 3355SOL     OW20378   4.022   9.382  12.329 -0.2312 -0.0111  0.8467
 3355SOL    HW120379   4.106   9.345  12.302 -0.5852 -1.3760  1.5199
 3355SOL    HW220380   4.046   9.453  12.389  0.4589  0.5996 -0.1342
 3356SOL     OW20381  11.267   2.557   3.976  0.4261 -0.4850  0.6111
 3356SOL    HW120382  11.230   2.498   3.910  0.1885  0.0447  0.2618
 3356SOL    HW220383  11.218   2.536   4.056 -1.5893  1.0829 -0.1383
 3357SOL     OW20384   8.482  10.618   5.473 -0.0371 -0.4421  0.0235
 3357SOL    HW120385   8.562  10.598   5.522  0.5453  1.1112 -0.2450
 3357SOL    HW220386   8.484  10.556   5.399 -0.8556 -2.7160  1.7946
 3358SOL     OW20387   8.117  10.503   6.411  0.2935  0.3486 -0.0490
 3358SOL    HW120388   8.022  10.499   6.424  0.0288  0.5998 -1.7183
 3358SOL    HW220389   8.144  10.584   6.455 -0.0534 -0.3290  1.4783
 3359SOL     OW20390   1.766   0.185   8.439 -0.0789 -0.1362  0.2658
 3359SOL    HW120391   1.741   0.099   8.402  0.1079 -0.5853  1.1618
 3359SOL    HW220392   1.688   0.214   8.485 -0.3993  0.5503 -0.6703
 3360SOL     OW20393   3.519   1.520   8.150  0.0785  0.6992  0.3643
 3360SOL    HW120394   3.516   1.513   8.246 -0.1756 -0.7953  0.2757
 3360SOL    HW220395   3.428   1.513   8.122  0.0727  1.8947  0.0299
 3361SOL     OW20396  10.362   9.750  11.519  0.2895  0.2261 -0.6194
 3361SOL    HW120397  10.281   9.717  11.481  1.0333  0.1162 -2.1827
 3361SOL    HW220398  10.337   9.780  11.607 -1.4609  0.3645 -1.1344
 3362SOL     OW20399  12.021   6.965   6.350  0.2291  0.1546  0.8589
 3362SOL    HW120400  12.015   6.985   6.443  0.2934  0.6506  0.7555
 3362SOL    HW220401  12.036   7.049   6.307 -0.5168  0.0299  0.3308
 3363SOL     OW20402   2.144   4.267   6.925 -0.2999  0.7070  0.5402
 3363SOL    HW120403   2.215   4.205   6.906  0.1054  0.7882  1.7113
 3363SOL    HW220404   2.145   4.275   7.020  0.2951  3.2592  0.3909
 3364SOL     OW20405   9.639   4.276  12.198  0.3676  0.0772 -0.5067
 3364SOL    HW120406   9.653   4.252  12.107 -0.1938 -0.3304 -0.4865
 3364SOL    HW220407   9.583   4.207  12.234 -0.9432  1.1787 -0.3417
 3365SOL     OW20408  10.090  10.945   5.624 -0.1248 -0.5180  0.1231
 3365SOL    HW120409  10.045  11.020   5.585 -1.4725 -0.4949  1.6145
 3365SOL    HW220410  10.131  10.900   5.550 -1.0775  0.5048 -1.0681
 3366SOL     OW20411   2.764   5.568  10.444 -0.3541 -0.2014  0.1561
 3366SOL    HW120412   2.735   5.623  10.517 -0.6928 -0.0931 -0.0594
 3366SOL    HW220413   2.720   5.604  10.367 -0.1713 -0.4513 -0.0691
 3367SOL     OW20414   4.292   2.374   2.374  0.4423  0.2672 -0.4131
 3367SOL    HW120415   4.335   2.388   2.459  0.6937  0.0371 -0.5008
 3367SOL    HW220416   4.355   2.322   2.324  0.9199  1.5746 -1.2441
 3368SOL     OW20417   9.113  12.962   4.666 -0.3509  0.1607  0.1617
 3368SOL    HW120418   9.179  12.893   4.663  0.4990  0.9643 -0.0665
 3368SOL    HW220419   9.030  12.917   4.651  0.3493 -0.6061 -1.7039
 3369SOL     OW20420   2.519   8.730   6.665 -0.4066 -0.1343 -0.3820
 3369SOL    HW120421   2.539   8.643   6.700 -0.2182  0.1692  0.2810
 3369SOL    HW220422   2.494   8.781   6.742  1.7085  1.0353 -0.3878
 3370SOL     OW20423   9.019  11.247   0.418 -0.0335  0.6583  0.0492
 3370SOL    HW120424   8.982  11.229   0.332  0.6996 -0.6760 -0.0143
 3370SOL    HW220425   8.947  11.231   0.479  0.3169 -1.8527 -0.0747
 3371SOL     OW20426  11.852   5.996   4.058 -0.4374 -0.1371 -0.6195
 3371SOL    HW120427  11.784   5.983   4.124  0.0873  0.3358  0.0158
 3371SOL    HW220428  11.910   6.063   4.095  0.3476 -0.4923 -1.1804
 3372SOL     OW20429   3.017   5.496   3.171 -0.1107 -0.4195  0.3399
 3372SOL    HW120430   2.968   5.430   3.123  0.1402 -1.1018  0.9945
 3372SOL    HW220431   3.074   5.537   3.106 -0.7382 -0.3871 -0.2005
 3373SOL     OW20432  10.832   1.935  10.890  0.5990 -0.1152  0.3840
 3373SOL    HW120433  10.823   1.880  10.968  0.5519 -0.1954  0.3216
 3373SOL    HW220434  10.910   1.987  10.907  1.2684 -0.9548 -0.0138
 3374SOL     OW20435   1.775   4.047   6.097  0.0645  0.6906  0.8838
 3374SOL    HW120436   1.697   4.055   6.043  0.7641 -1.0104 -0.4874
 3374SOL    HW220437   1.747   3.995   6.172  0.3498 -2.3894 -0.9424
 3375SOL     OW20438   8.545  11.569  12.231 -0.1841  0.2204  0.5445
 3375SOL    HW120439   8.619  11.567  12.291  0.8117 -0.7130 -0.6506
 3375SOL    HW220440   8.527  11.477  12.211 -1.8958  0.4095  1.0493
 3376SOL     OW20441   5.083   1.874   5.929  0.5660  0.3612  0.1086
 3376SOL    HW120442   5.131   1.798   5.961  0.4923 -0.4619 -1.6728
 3376SOL    HW220443   5.147   1.923   5.877  0.1147  0.5309 -0.2930
 3377SOL     OW20444   8.368   3.753  12.468  0.1258  0.2761 -0.0271
 3377SOL    HW120445   8.456   3.784  12.490 -0.7077  2.9506 -0.1066
 3377SOL    HW220446   8.372   3.735  12.374  0.3503  1.4484 -0.2594
 3378SOL     OW20447   2.289  12.584   4.270  0.0112  0.2931 -0.3322
 3378SOL    HW120448   2.201  12.590   4.307 -0.2708  1.5204 -1.1374
 3378SOL    HW220449   2.341  12.541   4.338 -0.7506  1.4550  1.0419
 3379SOL     OW20450   3.336  11.767   4.309  0.5798  0.3139  0.5749
 3379SOL    HW120451   3.306  11.855   4.330 -0.9343 -0.3074  1.0886
 3379SOL    HW220452   3.273  11.708   4.351 -0.2805 -1.0170 -2.2984
 3380SOL     OW20453  10.723  10.772   3.481  0.1553  0.7161 -0.2288
 3380SOL    HW120454  10.645  10.730   3.518 -0.5646  2.2443  0.0712
 3380SOL    HW220455  10.769  10.702   3.436 -2.1773  0.0253 -1.7006
 3381SOL     OW20456   0.596  10.893  12.052 -0.2940 -0.3067  0.4747
 3381SOL    HW120457   0.656  10.853  11.989  0.2364  0.2245  0.6339
 3381SOL    HW220458   0.571  10.822  12.110  0.1351 -0.5472  0.3677
 3382SOL     OW20459   4.553  12.021   4.233  0.0735 -0.0296  0.2713
 3382SOL    HW120460   4.548  11.968   4.312  3.3507 -1.8521 -0.5555
 3382SOL    HW220461   4.601  12.099   4.258  2.8234 -1.4730 -0.1693
 3383SOL     OW20462   6.170  11.981  10.468  0.2096  0.1087 -0.8699
 3383SOL    HW120463   6.158  12.054  10.528 -0.4420 -0.9451  0.3091
 3383SOL    HW220464   6.195  12.022  10.385  3.2440  1.5167  0.6008
 3384SOL     OW20465   9.038   8.689   2.575  0.3761 -0.1697 -0.6960
 3384SOL    HW120466   9.129   8.718   2.563  0.6070  0.2572  1.5724
 3384SOL    HW220467   9.046   8.608   2.626 -0.5158 -0.5024 -1.0684
 3385SOL     OW20468   3.245   0.280   4.468  0.1789  0.3147 -0.1684
 3385SOL    HW120469   3.298   0.360   4.461  0.0258  0.4081 -0.2476
 3385SOL    HW220470   3.182   0.299   4.537  0.1871  0.2368 -0.1393
 3386SOL     OW20471   1.521  12.679   7.372  0.0905 -0.4665 -0.5153
 3386SOL    HW120472   1.493  12.626   7.298  1.5769 -1.5094 -0.3852
 3386SOL    HW220473   1.542  12.615   7.441 -1.4375  0.4720  0.9054
 3387SOL     OW20474  11.556  11.268   3.978 -0.4467  0.3483  0.0841
 3387SOL    HW120475  11.521  11.304   4.060 -0.6809  0.1832  0.0576
 3387SOL    HW220476  11.486  11.212   3.945  0.5471 -1.5735  1.0412
 3388SOL     OW20477  11.456  10.444  12.432 -0.4392  0.1096 -0.8687
 3388SOL    HW120478  11.428  10.530  12.400  2.8207  1.0381 -1.6340
 3388SOL    HW220479  11.442  10.447  12.527  1.4390  2.3477 -0.5874
 3389SOL     OW20480  10.862   9.791   6.244 -0.2275  0.0388 -0.5076
 3389SOL    HW120481  10.793   9.812   6.307 -2.1397 -2.6938 -1.4877
 3389SOL    HW220482  10.941   9.780   6.298 -1.2050  0.3912  1.0589
 3390SOL     OW20483  12.138   8.374  11.196 -0.5209 -0.7889  0.2331
 3390SOL    HW120484  12.085   8.382  11.275 -1.5448 -2.2063 -0.2636
 3390SOL    HW220485  12.178   8.460  11.184 -0.0931 -0.6446  2.4457
 3391SOL     OW20486   0.706   1.394   2.406 -0.3067 -0.4796 -0.7068
 3391SOL    HW120487   0.724   1.476   2.359  0.6553 -0.6033 -0.5799
 3391SOL    HW220488   0.769   1.332   2.369 -1.5144 -1.3743 -1.3215
 3392SOL     OW20489   8.503  11.841   1.974 -0.3949  0.7217 -0.8319
 3392SOL    HW120490   8.470  11.791   1.899  0.2063  0.0759 -0.6720
 3392SOL    HW220491   8.553  11.778   2.025 -0.0363  1.3729 -0.3629
 3393SOL     OW20492   9.109   3.806   5.950  0.0271 -0.7095  0.4362
 3393SOL    HW120493   9.084   3.841   5.864  1.1401  0.2184  0.4659
 3393SOL    HW220494   9.026   3.795   5.996 -0.5251 -0.4513 -0.4667
 3394SOL     OW20495  12.235   3.642   3.988  0.3208 -0.1675  0.1546
 3394SOL    HW120496  12.160   3.630   4.046 -0.1961  2.0692  0.0162
 3394SOL    HW220497  12.306   3.668   4.047  0.6512 -0.9570  0.1201
 3395SOL     OW20498   5.273   6.316   5.017  0.1656 -0.8865 -0.4714
 3395SOL    HW120499   5.266   6.240   5.075  1.1252 -0.6462 -0.0219
 3395SOL    HW220500   5.341   6.371   5.058 -0.3885  0.1275 -0.8750
 3396SOL     OW20501   3.301   1.678   2.558 -0.0556 -0.0919 -0.2726
 3396SOL    HW120502   3.206   1.667   2.559 -0.0777  0.1495  0.2149
 3396SOL    HW220503   3.333   1.624   2.630  0.3571 -1.6906 -1.5748
 3397SOL     OW20504   5.398   0.358   1.849 -0.0065 -0.1833  0.7850
 3397SOL    HW120505   5.387   0.452   1.869 -1.3420 -0.1908  0.1963
 3397SOL    HW220506   5.457   0.356   1.774  0.2678  0.1743  0.9896
 3398SOL     OW20507   9.026   7.798   8.477 -0.0385 -0.3679  0.7764
 3398SOL    HW120508   8.956   7.754   8.524  0.1175 -1.7460 -0.2350
 3398SOL    HW220509   9.092   7.817   8.544 -0.8751 -0.0582  1.5309
 3399SOL     OW20510   6.208   7.079   9.899  0.0282 -0.2063  0.2151
 3399SOL    HW120511   6.219   7.045   9.811  0.0113 -1.1798  0.5773
 3399SOL    HW220512   6.261   7.159   9.901  2.3963 -1.6768  0.1613
 3400SOL     OW20513   3.332   5.821   9.612 -0.0969 -0.5965  0.0153
 3400SOL    HW120514   3.273   5.746   9.610 -0.1080 -0.5778 -1.0697
 3400SOL    HW220515   3.315   5.867   9.530 -0.9894  1.3088  1.1882
 3401SOL     OW20516   9.410   7.771  12.917  0.4011  0.1389  0.2797
 3401SOL    HW120517   9.438   7.840  12.976  0.5974 -1.8680  2.7151
 3401SOL    HW220518   9.492   7.733  12.883  0.3005  0.9180 -0.8795
 3402SOL     OW20519   1.407   3.392  12.317 -0.5602  0.0639 -0.6317
 3402SOL    HW120520   1.412   3.304  12.355  0.1178  0.4167  0.1321
 3402SOL    HW220521   1.365   3.379  12.232 -0.6675 -0.9683 -0.4350
 3403SOL     OW20522   5.864   4.560   3.709  0.6205  0.2822  0.4291
 3403SOL    HW120523   5.848   4.469   3.683 -1.2351  0.2616  1.4639
 3403SOL    HW220524   5.952   4.580   3.676  2.5131 -2.9179  3.0056
 3404SOL     OW20525   1.698  11.747   3.019 -0.4933  0.6259  0.7291
 3404SOL    HW120526   1.617  11.701   3.042 -1.2330  1.8366  0.6386
 3404SOL    HW220527   1.685  11.775   2.928  0.3598  0.1732  0.4520
 3405SOL     OW20528   0.802   4.813  12.290 -0.1436 -0.0065  0.3300
 3405SOL    HW120529   0.726   4.758  12.271 -0.1343  0.5576 -1.5232
 3405SOL    HW220530   0.771   4.873  12.358 -0.8274 -0.8538  0.7885
 3406SOL     OW20531   1.338   0.952   8.219 -0.2976  0.1121 -0.2519
 3406SOL    HW120532   1.271   0.928   8.284 -0.2857  0.6882 -0.0200
 3406SOL    HW220533   1.326   1.046   8.206  0.0847  0.1083 -0.6498
 3407SOL     OW20534   1.392   3.071   4.829  0.7404 -0.4345  0.5861
 3407SOL    HW120535   1.428   3.070   4.740 -3.3011 -0.4566 -1.2734
 3407SOL    HW220536   1.438   3.001   4.874  1.3090 -2.0595 -2.2860
 3408SOL     OW20537   4.551   3.023   9.358  0.5368 -0.2496  0.5241
 3408SOL    HW120538   4.482   3.006   9.294  1.9567 -0.8833 -0.9003
 3408SOL    HW220539   4.504   3.058   9.434 -1.4626 -1.6547  0.0340
 3409SOL     OW20540   5.630   3.198  10.356  0.6596 -0.0337 -0.1528
 3409SOL    HW120541   5.576   3.276  10.358  2.8412  1.7518 -2.9428
 3409SOL    HW220542   5.684   3.208  10.278  2.8627 -3.1379  0.7637
 3410SOL     OW20543   3.742   4.796   6.804 -0.7063  0.1172 -0.6115
 3410SOL    HW120544   3.821   4.820   6.755 -0.4804 -0.0899 -0.3521
 3410SOL    HW220545   3.759   4.826   6.893  0.4551 -2.7121  0.2385
 3411SOL     OW20546   0.595   1.528  11.017 -0.1293 -0.1469 -0.0383
 3411SOL    HW120547   0.586   1.435  11.041 -1.9162 -0.1482 -0.5635
 3411SOL    HW220548   0.575   1.530  10.924  1.1882  0.6174 -0.3219
 3412SOL     OW20549   5.215   0.916   4.544 -0.4931 -0.0132  0.2154
 3412SOL    HW120550   5.165   0.981   4.496 -0.8334  0.9318  1.7985
 3412SOL    HW220551   5.182   0.832   4.512  1.1541  0.4443 -3.1454
 3413SOL     OW20552   2.989  10.422   2.633  0.0066 -0.0988  0.1518
 3413SOL    HW120553   2.962  10.331   2.636 -0.7077  0.0865 -0.3279
 3413SOL    HW220554   3.084  10.420   2.638 -0.0604 -0.7934  1.4928
 3414SOL     OW20555   7.885  10.409   7.017  0.2352 -0.3009 -0.5573
 3414SOL    HW120556   7.973  10.446   7.007  0.1890 -0.1043 -0.2636
 3414SOL    HW220557   7.884  10.372   7.105 -0.2100  0.3443 -0.2851
 3415SOL     OW20558   1.664   1.860  10.913  0.1436 -0.3167  0.6130
 3415SOL    HW120559   1.570   1.845  10.899  0.0493  0.4451  0.4064
 3415SOL    HW220560   1.685   1.808  10.990  0.0548 -2.3398 -0.6506
 3416SOL     OW20561   8.659  11.317   6.351  0.5521 -0.5168  0.1389
 3416SOL    HW120562   8.691  11.378   6.284 -1.0116 -1.8214 -1.9273
 3416SOL    HW220563   8.724  11.246   6.351  0.4561 -0.6071 -0.1611
 3417SOL     OW20564   9.465   6.164   2.658 -0.3054  0.2421 -0.0998
 3417SOL    HW120565   9.508   6.207   2.584 -0.8713  0.4087 -0.3352
 3417SOL    HW220566   9.537   6.122   2.706 -0.0291 -0.5363 -1.1705
 3418SOL     OW20567   2.224   7.498   1.722 -0.0880 -0.4479 -0.0066
 3418SOL    HW120568   2.163   7.485   1.795 -0.7646 -0.4900 -0.5726
 3418SOL    HW220569   2.179   7.461   1.646  1.3967 -2.2173 -0.1120
 3419SOL     OW20570   1.112   5.072  12.864  0.0623 -0.1053  0.4633
 3419SOL    HW120571   1.156   5.103  12.784  0.5563  0.2315  0.8577
 3419SOL    HW220572   1.108   4.977  12.853  0.9569 -0.1549  0.4364
 3420SOL     OW20573   5.737   9.077  10.865 -0.1677  0.3036  0.2881
 3420SOL    HW120574   5.805   9.123  10.816 -0.6746  1.9133  1.0481
 3420SOL    HW220575   5.682   9.146  10.901 -1.0845 -0.9137  1.3012
 3421SOL     OW20576   6.501   7.742   4.719 -0.0381 -0.1581  0.4301
 3421SOL    HW120577   6.533   7.669   4.666  1.8957 -1.1885  2.7757
 3421SOL    HW220578   6.406   7.733   4.718  0.1033 -2.0982 -0.2062
 3422SOL     OW20579   3.108   5.319   8.688  0.1853 -0.4146 -0.3184
 3422SOL    HW120580   3.128   5.375   8.613  2.3050 -2.3494 -1.3165
 3422SOL    HW220581   3.130   5.230   8.659 -0.2725 -1.4233  2.1433
 3423SOL     OW20582   1.070   1.085   9.814  0.2490  0.2234 -0.5046
 3423SOL    HW120583   1.141   1.144   9.789 -0.3032  0.8781 -0.5440
 3423SOL    HW220584   0.995   1.115   9.763 -0.2371 -0.0278  0.0589
 3424SOL     OW20585   1.089  12.629   3.779 -0.2555  0.2373 -0.7070
 3424SOL    HW120586   1.037  12.572   3.836  1.6875 -2.2974 -1.2776
 3424SOL    HW220587   1.172  12.639   3.824 -0.2059  1.8877 -1.1108
 3425SOL     OW20588  10.983   3.339   9.237 -0.0789 -0.3239 -0.0676
 3425SOL    HW120589  11.078   3.329   9.248 -0.0725  0.3517  0.5821
 3425SOL    HW220590  10.954   3.382   9.318 -0.9441 -0.5348 -0.2571
 3426SOL     OW20591   4.935   5.160   4.695 -0.6106  0.4644  0.5145
 3426SOL    HW120592   4.895   5.143   4.780 -0.9851 -1.9140 -0.0881
 3426SOL    HW220593   5.002   5.092   4.685  2.2839  3.0797  0.5969
 3427SOL     OW20594  11.806  11.640   6.291  0.8828 -0.1116  0.6174
 3427SOL    HW120595  11.728  11.589   6.265 -0.5904  1.9634  0.7149
 3427SOL    HW220596  11.873  11.614   6.227 -0.9838  0.6884 -1.8545
 3428SOL     OW20597   0.479   8.608   1.095  0.0799  0.5331 -0.2991
 3428SOL    HW120598   0.517   8.631   1.180  1.1543  0.2600 -0.6971
 3428SOL    HW220599   0.392   8.648   1.096  0.8589  2.2609  0.1102
 3429SOL     OW20600   2.740   8.457   4.641 -0.0411  0.0267  0.6553
 3429SOL    HW120601   2.729   8.448   4.546 -1.5259 -1.7932  0.9388
 3429SOL    HW220602   2.701   8.542   4.662  0.4377  0.5160 -0.3619
 3430SOL     OW20603   9.508   9.387   9.076 -0.1926 -0.0886 -0.3172
 3430SOL    HW120604   9.437   9.336   9.038 -1.0174  0.2197  0.7755
 3430SOL    HW220605   9.574   9.390   9.007  0.0826 -2.9420 -0.2975
 3431SOL     OW20606  12.750   3.104   7.904  0.5361 -0.2603  0.1220
 3431SOL    HW120607  12.833   3.062   7.881  0.3395 -1.4461  1.4671
 3431SOL    HW220608  12.711   3.046   7.968 -1.2081  0.4400 -0.2565
 3432SOL     OW20609   9.951   4.156   0.327 -0.4741 -0.2127 -0.7320
 3432SOL    HW120610   9.978   4.129   0.415  1.8129 -1.9695 -1.8631
 3432SOL    HW220611   9.946   4.074   0.277 -0.7491  0.8297 -2.5019
 3433SOL     OW20612  12.837  11.526   6.922 -0.0878 -0.1360  0.2242
 3433SOL    HW120613  12.837  11.529   7.018  0.0105  0.7615  0.2101
 3433SOL    HW220614  12.773  11.592   6.896  0.6868  0.4189 -0.3352
 3434SOL     OW20615  11.520   8.048   2.181  0.3098 -0.2618  0.0324
 3434SOL    HW120616  11.526   8.043   2.086  0.3069 -0.7590  0.0587
 3434SOL    HW220617  11.541   8.140   2.201  0.6921 -0.2477 -0.4137
 3435SOL     OW20618   1.293   6.291   0.884  0.2343  0.3241 -0.3320
 3435SOL    HW120619   1.308   6.378   0.846 -1.0110  0.4792 -0.5194
 3435SOL    HW220620   1.219   6.304   0.943  0.2570 -0.5454 -0.1016
 3436SOL     OW20621   4.468   0.823   4.047  0.0586  0.1647 -0.7330
 3436SOL    HW120622   4.389   0.874   4.068 -0.2074 -0.2690 -0.6620
 3436SOL    HW220623   4.477   0.763   4.121  0.2370 -0.0455 -0.9263
 3437SOL     OW20624   3.000   6.282  12.393  0.1157  0.7756 -0.3258
 3437SOL    HW120625   3.078   6.226  12.390 -1.1462 -1.1905  1.0932
 3437SOL    HW220626   2.938   6.241  12.333 -0.6316  0.9461  0.3043
 3438SOL     OW20627   8.584   4.450   3.201  0.0916  0.0347  0.7684
 3438SOL    HW120628   8.523   4.518   3.229  0.3635  0.6383 -0.0624
 3438SOL    HW220629   8.571   4.443   3.107  1.5259  0.4148  0.5126
 3439SOL     OW20630   8.096  12.210   3.140 -0.1425 -0.4335  0.0653
 3439SOL    HW120631   8.002  12.206   3.120 -0.3823  2.2584  0.1949
 3439SOL    HW220632   8.100  12.255   3.225  1.2746  1.2921 -0.8497
 3440SOL     OW20633   4.193   9.351   6.352  0.4449  0.1475  0.2733
 3440SOL    HW120634   4.202   9.391   6.266  1.0488  0.0999  0.3118
 3440SOL    HW220635   4.160   9.422   6.408 -0.7340 -0.0350 -0.1665
 3441SOL     OW20636   1.097   5.990   3.019 -0.2068 -0.1478  0.0653
 3441SOL    HW120637   1.010   6.004   3.055  0.6916  1.9151  1.6819
 3441SOL    HW220638   1.155   6.039   3.077  2.0426 -1.3842 -0.9978
 3442SOL     OW20639   6.638   6.066   4.061  0.0146  0.3331 -0.3462
 3442SOL    HW120640   6.664   6.149   4.021  1.2160  0.4170  0.5795
 3442SOL    HW220641   6.720   6.025   4.087 -0.6239 -0.7450  0.0131
 3443SOL     OW20642   6.625  12.806   5.784  0.2027 -0.1405 -0.4035
 3443SOL    HW120643   6.599  12.744   5.716  0.4550 -0.8647  0.1468
 3443SOL    HW220644   6.720  12.809   5.779  0.2065 -0.0109 -0.2418
 3444SOL     OW20645   7.488   3.672   3.245 -0.1842 -0.0451 -0.2170
 3444SOL    HW120646   7.426   3.688   3.173 -0.8277 -0.4439  0.2408
 3444SOL    HW220647   7.452   3.597   3.291  0.3199  0.1052  0.4310
 3445SOL     OW20648  10.138   2.862   6.396 -0.2767 -0.2665  0.5130
 3445SOL    HW120649  10.176   2.817   6.471 -0.5761  0.6789  1.2511
 3445SOL    HW220650  10.211   2.876   6.336  0.1285 -0.3001  0.9967
 3446SOL     OW20651  11.802   7.221   8.835  0.3182  0.1975  0.3118
 3446SOL    HW120652  11.857   7.299   8.849  1.4257 -0.6548  0.8294
 3446SOL    HW220653  11.852   7.167   8.774 -0.7002  0.1187 -0.4821
 3447SOL     OW20654   8.758   8.681   5.918  0.2491 -0.1539  0.3879
 3447SOL    HW120655   8.697   8.716   5.983 -2.6756  1.1810 -2.7127
 3447SOL    HW220656   8.785   8.758   5.868  3.2843 -0.9814  0.6105
 3448SOL     OW20657   1.755   6.552   5.041  0.0114  0.4970  0.7285
 3448SOL    HW120658   1.834   6.584   5.085  0.3724  0.1468  0.3514
 3448SOL    HW220659   1.720   6.630   4.997  0.1205  0.6675  0.9407
 3449SOL     OW20660   1.109   9.679   8.649  0.5337  0.1974 -0.4519
 3449SOL    HW120661   1.057   9.622   8.592  1.9420  0.1596 -1.7623
 3449SOL    HW220662   1.188   9.627   8.669 -0.0803  0.0383  1.9291
 3450SOL     OW20663  10.705   9.974  11.325  0.3379  0.2350  0.3776
 3450SOL    HW120664  10.650   9.898  11.347  0.1778  0.5346  1.0627
 3450SOL    HW220665  10.786   9.936  11.293  1.1715 -0.3189  2.8668
 3451SOL     OW20666   2.463   8.030   5.666  0.7746  0.2723  0.0061
 3451SOL    HW120667   2.415   7.992   5.739 -0.3848 -0.3814 -1.0570
 3451SOL    HW220668   2.489   8.117   5.697 -2.5478  1.3817  0.1018
 3452SOL     OW20669  11.809   7.219   9.963  0.0795  0.2037 -0.9210
 3452SOL    HW120670  11.781   7.129   9.979 -1.6813  1.1647  2.1978
 3452SOL    HW220671  11.903   7.218   9.982 -0.3199 -0.6014  1.3340
 3453SOL     OW20672  11.608   1.435   0.189 -0.2874  0.1928  0.1577
 3453SOL    HW120673  11.541   1.409   0.125  0.8418  0.7593 -1.2997
 3453SOL    HW220674  11.684   1.381   0.167  0.6839  1.6361 -0.1309
 3454SOL     OW20675   7.522   1.111  11.991 -0.1275  0.3831 -0.5925
 3454SOL    HW120676   7.504   1.023  12.024 -0.2904  0.5392 -0.2472
 3454SOL    HW220677   7.472   1.168  12.050  0.2684  0.7275 -0.5902
 3455SOL     OW20678   5.996   6.491  10.855  0.4504 -0.0935 -0.0362
 3455SOL    HW120679   5.920   6.510  10.910 -1.4127 -1.6193 -1.9278
 3455SOL    HW220680   6.023   6.403  10.881  0.7812 -0.0569 -0.2480
 3456SOL     OW20681   9.685   2.335   7.139 -0.5281 -0.3359 -0.0468
 3456SOL    HW120682   9.724   2.396   7.075 -2.8463  1.8016  0.4276
 3456SOL    HW220683   9.671   2.389   7.217 -3.1650 -1.2834  0.2273
 3457SOL     OW20684   6.634  12.597   1.993  0.0146  0.1939 -0.3761
 3457SOL    HW120685   6.613  12.570   2.082 -1.2150 -0.2637 -0.7965
 3457SOL    HW220686   6.605  12.688   1.988  0.6683  0.4232 -0.1276
 3458SOL     OW20687   3.613   3.909   3.451 -0.2011 -0.2154 -0.2702
 3458SOL    HW120688   3.521   3.893   3.473 -1.0406  1.1069 -2.4399
 3458SOL    HW220689   3.662   3.845   3.501 -2.5150 -2.7068 -0.9798
 3459SOL     OW20690   5.342   2.510   0.271 -0.2517 -0.2529  0.3875
 3459SOL    HW120691   5.276   2.445   0.249  1.0805 -1.0250 -1.5534
 3459SOL    HW220692   5.424   2.473   0.238  1.0505  1.0454  1.9826
 3460SOL     OW20693  11.509  11.454   2.069 -0.5181  0.0108 -0.1997
 3460SOL    HW120694  11.540  11.519   2.133 -0.5651 -0.2988  0.1413
 3460SOL    HW220695  11.531  11.492   1.984  0.4653 -0.0245  0.0233
 3461SOL     OW20696   4.235  12.159   1.587 -0.2948  0.6581  0.7471
 3461SOL    HW120697   4.287  12.201   1.655  1.1085 -1.4100  1.0510
 3461SOL    HW220698   4.145  12.165   1.618  0.2163  0.6000  2.3391
 3462SOL     OW20699  12.816   3.001  11.637 -0.2707 -0.7605  0.2777
 3462SOL    HW120700  12.874   3.057  11.586 -1.2071  0.2650  0.3165
 3462SOL    HW220701  12.807   2.922  11.584 -1.3668  0.3493 -1.2701
 3463SOL     OW20702   6.088   8.124   2.121  0.1723 -0.1367  0.1204
 3463SOL    HW120703   6.003   8.130   2.079  0.9931  1.2251 -1.4778
 3463SOL    HW220704   6.112   8.031   2.115 -0.5603 -0.2771 -0.7432
 3464SOL     OW20705   2.384   0.064   9.916 -0.4562  0.0136  0.3210
 3464SOL    HW120706   2.350   0.142   9.960 -0.2700  0.5446 -0.4535
 3464SOL    HW220707   2.398   0.092   9.826 -0.8617 -1.0638 -0.0936
 3465SOL     OW20708   6.100  11.629  12.858 -0.3465 -0.0168  0.1605
 3465SOL    HW120709   6.121  11.625  12.951  2.4391  0.4806 -0.3498
 3465SOL    HW220710   6.087  11.538  12.832 -0.6206 -0.2032  0.9401
 3466SOL     OW20711  12.907   5.523   7.185 -0.4253 -0.1268  0.1299
 3466SOL    HW120712  12.903   5.429   7.168  1.4730 -0.3486  0.7708
 3466SOL    HW220713  12.815   5.548   7.198 -0.9898 -1.8245 -0.2941
 3467SOL     OW20714   1.312   2.856   0.090  0.2667 -0.0526 -0.0297
 3467SOL    HW120715   1.276   2.875   0.004 -0.9374 -0.7878  0.2972
 3467SOL    HW220716   1.258   2.784   0.124  0.9790 -0.0511  1.1679
 3468SOL     OW20717   7.736  10.147   2.781  0.1052 -0.1323 -0.1713
 3468SOL    HW120718   7.671  10.185   2.839 -0.6395  0.0611 -1.1139
 3468SOL    HW220719   7.686  10.113   2.707  0.9636 -1.0053 -0.3811
 3469SOL     OW20720   9.233   6.796   0.565 -0.2591  0.1443 -0.8721
 3469SOL    HW120721   9.220   6.711   0.524  0.5978 -1.3999  1.8053
 3469SOL    HW220722   9.301   6.838   0.512  0.1279 -1.3158 -1.5878
 3470SOL     OW20723  11.010   7.664   7.111  0.0246 -0.3361  0.0114
 3470SOL    HW120724  10.923   7.627   7.097 -0.4150  0.1681  1.2324
 3470SOL    HW220725  11.024   7.657   7.205  0.5572  1.1664  0.0769
 3471SOL     OW20726   8.794   2.212  10.816 -0.3259  0.3847  0.2051
 3471SOL    HW120727   8.755   2.126  10.804  0.7547 -0.1763  0.5612
 3471SOL    HW220728   8.875   2.195  10.865 -1.2777  1.8558  2.4670
 3472SOL     OW20729   7.283   1.807  10.865  0.0218 -0.3357 -0.3086
 3472SOL    HW120730   7.203   1.778  10.910  0.8111 -0.9022  0.7684
 3472SOL    HW220731   7.320   1.727  10.828  0.3813 -0.1623 -0.3232
 3473SOL     OW20732   8.947   4.727   1.322 -0.1134 -0.3398 -0.6037
 3473SOL    HW120733   8.899   4.683   1.252 -0.2531  0.4222 -1.0061
 3473SOL    HW220734   8.881   4.778   1.368 -0.0164 -0.8207  0.0703
 3474SOL     OW20735   9.553  11.947   5.519  1.0187 -0.5041  0.5300
 3474SOL    HW120736   9.583  11.908   5.437 -1.2026 -0.2953 -0.4564
 3474SOL    HW220737   9.628  11.997   5.551  1.8614 -0.3849 -1.5143
 3475SOL     OW20738  11.670  12.061   3.317 -0.0573  0.5127 -0.5705
 3475SOL    HW120739  11.665  11.965   3.323  0.1834  0.4795 -0.8151
 3475SOL    HW220740  11.740  12.085   3.378 -0.4130  0.5760 -0.1864
 3476SOL     OW20741  12.222   6.376   3.377 -0.2553  0.0041  0.1361
 3476SOL    HW120742  12.273   6.327   3.442  1.0750  0.5473 -0.4680
 3476SOL    HW220743  12.286   6.432   3.332 -1.4728  1.1420 -0.2699
 3477SOL     OW20744  12.385   9.458   7.075  0.1213 -0.6974  0.9150
 3477SOL    HW120745  12.302   9.484   7.036  0.8570  0.0844 -0.2118
 3477SOL    HW220746  12.417   9.538   7.119  2.3487  0.4873 -2.4742
 3478SOL     OW20747   0.377   8.420   4.160 -0.5335 -0.2015  0.2744
 3478SOL    HW120748   0.406   8.497   4.209  1.0854 -1.7061  1.7804
 3478SOL    HW220749   0.301   8.388   4.209 -0.8678  0.0720 -0.0469
 3479SOL     OW20750   9.871   2.077   4.399  0.1268 -0.3961 -0.3380
 3479SOL    HW120751   9.944   2.135   4.378  0.4219 -1.3750 -2.1603
 3479SOL    HW220752   9.813   2.131   4.452  2.3441  0.2836  1.5943
 3480SOL     OW20753  12.285  12.835   0.107  0.1475 -0.0723 -0.5201
 3480SOL    HW120754  12.291  12.804   0.017 -1.4001 -0.0415 -0.6657
 3480SOL    HW220755  12.201  12.802   0.138 -0.7005  2.3081 -0.0597
 3481SOL     OW20756   6.396   3.560   9.727 -0.2380  0.1212 -0.0776
 3481SOL    HW120757   6.334   3.519   9.787 -0.0594  1.3744  1.0077
 3481SOL    HW220758   6.356   3.548   9.640 -1.6346  0.2436  0.5157
 3482SOL     OW20759   3.392  12.142   6.180 -0.1284  0.4932  0.0708
 3482SOL    HW120760   3.436  12.192   6.111 -0.1162  1.4840  0.7804
 3482SOL    HW220761   3.441  12.060   6.184  0.8897  1.0709 -0.0121
 3483SOL     OW20762   8.805  12.042   3.473 -0.2071 -0.5285 -0.0899
 3483SOL    HW120763   8.788  11.968   3.415 -0.1085  1.1504 -2.4110
 3483SOL    HW220764   8.831  12.113   3.414 -0.8206  1.5288  1.9677
 3484SOL     OW20765   2.374   7.406  10.854 -0.4590 -0.1044 -0.1376
 3484SOL    HW120766   2.401   7.322  10.819 -3.8065 -1.6257  0.5143
 3484SOL    HW220767   2.356   7.460  10.777  0.1689 -0.5116 -0.5783
 3485SOL     OW20768   7.867   3.910   0.810 -0.5745 -0.2991 -0.1167
 3485SOL    HW120769   7.952   3.941   0.840 -0.3353 -0.5218 -0.5419
 3485SOL    HW220770   7.812   3.988   0.809 -0.6100 -0.2981  0.9390
 3486SOL     OW20771   2.045   4.993   2.387  0.3873 -0.1783 -0.2538
 3486SOL    HW120772   1.951   4.986   2.403  0.6870 -0.7080  1.5691
 3486SOL    HW220773   2.071   4.904   2.363  0.2957  0.1568 -1.6304
 3487SOL     OW20774   4.989   4.983   6.443  0.3895 -0.3092  0.5166
 3487SOL    HW120775   5.061   4.938   6.399 -0.9252 -3.1300  1.0405
 3487SOL    HW220776   4.948   4.915   6.497 -3.3205  0.8540 -0.5760
 3488SOL     OW20777  12.090   8.154   4.660  0.1098 -0.3920  0.1887
 3488SOL    HW120778  12.148   8.104   4.604  0.2443  1.8898 -1.8774
 3488SOL    HW220779  12.144   8.178   4.735  1.1774 -0.1765 -0.6247
 3489SOL     OW20780   2.450   8.444  12.729 -0.0918 -0.6740 -0.3710
 3489SOL    HW120781   2.363   8.483  12.738 -0.2987 -1.1471 -0.2916
 3489SOL    HW220782   2.453   8.413  12.638 -0.6359 -2.1281  0.0805
 3490SOL     OW20783   9.365   6.272   5.362 -0.2523 -0.5100  0.6327
 3490SOL    HW120784   9.285   6.221   5.375  0.6813 -1.5574  2.7582
 3490SOL    HW220785   9.429   6.209   5.328  0.3325 -0.2775  1.2775
 3491SOL     OW20786   2.218  11.103  12.071 -0.0104  0.0378  0.0066
 3491SOL    HW120787   2.150  11.040  12.092 -0.5609  0.4988 -0.3426
 3491SOL    HW220788   2.173  11.169  12.017  0.7549  0.2455 -0.3901
 3492SOL     OW20789   7.606  12.039  12.401  0.3541 -0.1065 -0.2557
 3492SOL    HW120790   7.594  12.128  12.433 -1.0310  0.0605 -1.1878
 3492SOL    HW220791   7.701  12.027  12.400  0.5693  0.0270  3.4026
 3493SOL     OW20792  12.171   3.146   7.942  0.1745  0.0140 -0.8050
 3493SOL    HW120793  12.078   3.127   7.956  0.8707 -2.8974  0.6278
 3493SOL    HW220794  12.199   3.082   7.877  1.4417 -0.0337 -0.2345
 3494SOL     OW20795   0.212   5.520   6.552 -0.0492  0.2580  0.0021
 3494SOL    HW120796   0.161   5.562   6.482  1.3873 -0.4396 -1.5342
 3494SOL    HW220797   0.151   5.514   6.625 -1.3288  1.9039 -0.8483
 3495SOL     OW20798   9.807   5.202   8.625 -0.0407 -0.1207  0.1367
 3495SOL    HW120799   9.851   5.195   8.540 -0.1662 -0.3837  0.0922
 3495SOL    HW220800   9.751   5.125   8.629  0.3841 -0.4004  0.7068
 3496SOL     OW20801   8.096   7.103   2.936 -0.2956  0.0159 -1.0658
 3496SOL    HW120802   8.163   7.089   3.002 -2.4195 -0.9451  1.0364
 3496SOL    HW220803   8.103   7.196   2.914  0.5427  0.3476  0.4619
 3497SOL     OW20804  12.583   2.772   5.880 -0.1643 -0.2705 -0.1019
 3497SOL    HW120805  12.493   2.799   5.901 -0.2647  0.2019 -1.0978
 3497SOL    HW220806  12.597   2.802   5.791  0.9895 -0.3601  0.0351
 3498SOL     OW20807   2.656   8.457   8.184  0.4356 -0.5271  1.0799
 3498SOL    HW120808   2.739   8.495   8.155  0.9373  0.0241  3.0469
 3498SOL    HW220809   2.673   8.429   8.274 -1.3164 -1.0296  1.2970
 3499SOL     OW20810   7.791  12.360   3.524 -0.4995  0.0643  0.1537
 3499SOL    HW120811   7.851  12.383   3.595 -0.3697 -2.4611  0.9792
 3499SOL    HW220812   7.813  12.269   3.503 -2.6366 -0.2543 -0.9902
 3500SOL     OW20813   5.542   9.012  11.451  0.1723 -0.1455  0.2333
 3500SOL    HW120814   5.534   9.019  11.546 -0.2368 -0.4438  0.2216
 3500SOL    HW220815   5.633   8.987  11.436  0.7292  1.6010  0.4599
 3501SOL     OW20816   6.782   3.445   5.531  0.3986 -0.2504  0.7715
 3501SOL    HW120817   6.711   3.383   5.548  0.6576 -0.6972  0.2693
 3501SOL    HW220818   6.743   3.531   5.543  0.5143 -0.4864  3.4789
 3502SOL     OW20819  11.821  11.847   4.143 -0.4621 -0.0236  0.1336
 3502SOL    HW120820  11.876  11.877   4.071 -1.0197  2.7328  0.7560
 3502SOL    HW220821  11.878  11.852   4.220 -1.8601  4.8644  1.1574
 3503SOL     OW20822   2.560   3.329   7.078  0.7883  0.0289  0.2414
 3503SOL    HW120823   2.609   3.386   7.019  0.1037 -1.0382 -1.4152
 3503SOL    HW220824   2.614   3.250   7.085 -0.2702 -0.8416 -0.9779
 3504SOL     OW20825  10.680   6.769   0.537  0.0585  0.0010  0.6666
 3504SOL    HW120826  10.668   6.817   0.619 -1.3212 -0.3943  0.7211
 3504SOL    HW220827  10.592   6.746   0.509  0.5093  0.1469 -0.9652
 3505SOL     OW20828  11.813   5.283   1.273 -0.2972  0.0971  0.2623
 3505SOL    HW120829  11.878   5.310   1.337  0.8021 -0.0648 -0.7429
 3505SOL    HW220830  11.732   5.327   1.299  0.7256  1.9802  0.3552
 3506SOL     OW20831   7.944  12.068   8.267 -0.2094  0.3980 -0.1662
 3506SOL    HW120832   7.993  12.133   8.218  2.2798 -2.2665 -1.4697
 3506SOL    HW220833   8.009  12.027   8.324 -1.8534 -0.4507  1.1802
 3507SOL     OW20834  12.911   8.981   6.078  0.7430  0.3216  0.0207
 3507SOL    HW120835  12.986   9.038   6.097  0.4515  1.0691 -0.9925
 3507SOL    HW220836  12.934   8.937   5.997  0.7123 -0.5892  0.4949
 3508SOL     OW20837   9.830   9.953  12.224  0.0273  0.3430 -0.1703
 3508SOL    HW120838   9.839   9.864  12.259 -0.3393  0.7095  0.8751
 3508SOL    HW220839   9.740   9.957  12.191  0.6031 -0.2592 -1.9679
 3509SOL     OW20840   1.360   0.906   2.714 -0.5932  0.1137  0.4982
 3509SOL    HW120841   1.454   0.913   2.733 -0.6654 -1.6086  1.8183
 3509SOL    HW220842   1.354   0.829   2.657 -1.2308  0.0476  0.6558
 3510SOL     OW20843  12.035   7.983  12.041 -0.3363  0.0712  0.7449
 3510SOL    HW120844  12.037   7.888  12.053  0.5920  0.0651  0.5794
 3510SOL    HW220845  11.942   8.005  12.042 -0.5268 -0.7297  1.6415
 3511SOL     OW20846   1.958   8.060  10.299 -0.2862 -0.4237 -0.4178
 3511SOL    HW120847   1.959   8.145  10.343 -0.6044 -0.5228 -0.2201
 3511SOL    HW220848   1.975   8.081  10.207 -2.0665  0.0337 -0.6708
 3512SOL     OW20849   3.397  12.271   3.755 -0.9285 -0.6109 -0.2539
 3512SOL    HW120850   3.391  12.364   3.779  0.2331 -0.1831 -1.4872
 3512SOL    HW220851   3.491  12.256   3.743 -1.0435 -2.1017  0.4201
 3513SOL     OW20852  11.172  12.081  12.642  0.3282 -0.0190  1.0196
 3513SOL    HW120853  11.261  12.100  12.610  0.5445 -1.4639  0.6761
 3513SOL    HW220854  11.136  12.022  12.576 -2.3990  3.5220 -1.0064
 3514SOL     OW20855   5.407  11.960   0.059 -0.8137  0.2098  0.1193
 3514SOL    HW120856   5.489  11.920   0.030  1.0003  2.4762  1.6156
 3514SOL    HW220857   5.344  11.939  -0.009  0.7103 -2.4955 -0.6169
 3515SOL     OW20858   5.728   4.425   3.138 -0.1627 -0.4894 -0.4615
 3515SOL    HW120859   5.706   4.517   3.127 -0.1830 -0.2712  1.1627
 3515SOL    HW220860   5.807   4.413   3.085  1.5380  1.2079  1.5272
 3516SOL     OW20861   0.058   7.024  12.653 -0.2125 -0.4771  0.3774
 3516SOL    HW120862  -0.002   6.953  12.632  0.4040 -1.1173  0.7654
 3516SOL    HW220863   0.144   6.992  12.628  0.2907 -0.5105  2.0438
 3517SOL     OW20864   0.833   7.323  12.134  0.6149  0.2564  0.4969
 3517SOL    HW120865   0.754   7.324  12.080  1.5301 -1.0741 -0.9323
 3517SOL    HW220866   0.838   7.234  12.168 -0.0875  1.1162  3.1191
 3518SOL     OW20867   5.399   4.050   2.394 -0.4622 -0.2903  0.2801
 3518SOL    HW120868   5.481   4.001   2.397  0.2721  0.6911 -1.8280
 3518SOL    HW220869   5.388   4.083   2.483  1.3674 -0.5395  0.6422
 3519SOL     OW20870   3.272  12.407   0.894  0.0645 -0.2664 -0.1959
 3519SOL    HW120871   3.305  12.320   0.872  1.1734 -0.1397  0.8576
 3519SOL    HW220872   3.197  12.419   0.836  0.6214 -1.4250 -1.2177
 3520SOL     OW20873   8.107   9.880   6.409 -0.0298  0.2595 -0.1387
 3520SOL    HW120874   8.167   9.842   6.345  1.1090  0.0320  1.0159
 3520SOL    HW220875   8.156   9.953   6.447 -0.4672  0.0799  0.8140
 3521SOL     OW20876   9.221  11.986   4.582  0.3614  0.1461 -0.2578
 3521SOL    HW120877   9.237  11.898   4.550  0.7086 -0.0652  0.4827
 3521SOL    HW220878   9.179  12.031   4.508 -2.6564 -1.4667  0.2887
 3522SOL     OW20879   1.768  10.081   5.895  0.5509 -0.4254  0.1468
 3522SOL    HW120880   1.817  10.006   5.861  0.6298 -0.7093  0.8559
 3522SOL    HW220881   1.757  10.140   5.820  1.1544 -0.7969 -0.2364
 3523SOL     OW20882   4.693   7.853   2.731 -0.6801 -0.0042  0.1497
 3523SOL    HW120883   4.788   7.849   2.718 -0.3049  1.5794  1.9429
 3523SOL    HW220884   4.662   7.917   2.667 -0.7284 -1.2442 -1.1134
 3524SOL     OW20885   0.263   1.819  10.576 -0.2499 -0.6022 -0.3531
 3524SOL    HW120886   0.272   1.726  10.594 -1.2084 -0.4885  0.8261
 3524SOL    HW220887   0.317   1.862  10.642 -0.5147 -0.2962 -0.3344
 3525SOL     OW20888   7.097   4.205   2.700 -0.1111  0.2379 -0.3779
 3525SOL    HW120889   7.126   4.231   2.788 -1.0000 -1.0724  0.3452
 3525SOL    HW220890   7.097   4.109   2.703  0.9479  0.1370 -2.1952
 3526SOL     OW20891   7.677   0.134   9.947  0.2065 -0.5524 -0.3637
 3526SOL    HW120892   7.745   0.092   9.895  0.8327  0.8027 -0.6862
 3526SOL    HW220893   7.665   0.220   9.907 -0.9180 -0.3459  0.3584
 3527SOL     OW20894   8.862  11.480   4.404 -0.6958 -0.0314  0.4201
 3527SOL    HW120895   8.932  11.530   4.361 -1.6659  1.1624  0.1608
 3527SOL    HW220896   8.908  11.415   4.457  0.5397 -0.8861 -1.6295
 3528SOL     OW20897   7.067  10.790  11.758 -0.0540 -0.3686  0.3056
 3528SOL    HW120898   7.136  10.765  11.820 -1.4835  0.8572  2.5256
 3528SOL    HW220899   7.112  10.841  11.691  1.6102 -2.0440  0.0655
 3529SOL     OW20900  11.856   0.793   6.701 -0.8617  0.1755 -0.2375
 3529SOL    HW120901  11.860   0.717   6.644  1.5256 -1.4631  1.8742
 3529SOL    HW220902  11.838   0.757   6.788  0.9030  1.8799  0.9421
 3530SOL     OW20903  12.980   2.486  11.903  0.4971 -0.2877  0.4378
 3530SOL    HW120904  13.032   2.566  11.903  0.0283  0.1030 -2.1040
 3530SOL    HW220905  13.039   2.418  11.936  1.3018  0.8417  1.4020
 3531SOL     OW20906   2.355   1.461   4.935 -0.0926 -0.1708 -0.3322
 3531SOL    HW120907   2.387   1.382   4.977  0.7303 -0.8439 -2.1382
 3531SOL    HW220908   2.432   1.516   4.925 -0.4709  0.4271 -0.0306
 3532SOL     OW20909   7.688   3.807   7.445  0.7267  0.0124 -0.5449
 3532SOL    HW120910   7.752   3.815   7.375  1.3937  0.7124  0.1220
 3532SOL    HW220911   7.739   3.774   7.520 -0.0853 -1.2949 -0.5379
 3533SOL     OW20912   1.102   7.540   8.111  0.0131 -0.1098 -0.2781
 3533SOL    HW120913   1.103   7.450   8.145  0.7713  0.9512  2.9096
 3533SOL    HW220914   1.012   7.569   8.122  0.2119  0.1616  0.7317
 3534SOL     OW20915   4.578   0.700   5.353 -0.3211 -0.3623 -0.0363
 3534SOL    HW120916   4.642   0.771   5.352 -1.1476  0.4125  0.3788
 3534SOL    HW220917   4.594   0.652   5.272  0.9861 -0.3827  0.2131
 3535SOL     OW20918   0.926   8.027   9.766 -0.1235  0.0818 -0.2339
 3535SOL    HW120919   0.859   8.004   9.830  0.4242  1.1962  0.7724
 3535SOL    HW220920   0.987   7.953   9.768  0.9608  0.9492  2.0414
 3536SOL     OW20921   7.769   6.945   7.192 -0.0192  0.0204 -0.0621
 3536SOL    HW120922   7.734   6.947   7.281  0.3018 -1.7489  0.1354
 3536SOL    HW220923   7.800   7.034   7.177  0.2393  0.2717  1.7301
 3537SOL     OW20924  12.848   7.066   6.113 -0.1292  0.7721  0.0744
 3537SOL    HW120925  12.894   6.985   6.136  2.0243  1.6415 -0.8896
 3537SOL    HW220926  12.804   7.092   6.193  0.4252 -0.5401  0.8384
 3538SOL     OW20927  10.295   5.413  10.224  0.1040  0.7412  0.0970
 3538SOL    HW120928  10.250   5.436  10.143 -0.3408  1.0783  0.4295
 3538SOL    HW220929  10.316   5.321  10.215 -0.4770  0.6303 -0.1578
 3539SOL     OW20930  12.723   9.435  12.704  0.0840 -0.6693  0.4539
 3539SOL    HW120931  12.811   9.448  12.740  0.0495 -1.4439  0.8306
 3539SOL    HW220932  12.665   9.479  12.766  0.1854 -0.3183  0.3032
 3540SOL     OW20933  10.429   4.653  10.745  0.2134 -0.1858  0.4822
 3540SOL    HW120934  10.474   4.574  10.776 -0.1406 -0.2050  0.9696
 3540SOL    HW220935  10.412   4.703  10.825 -0.3997 -0.0631  0.2847
 3541SOL     OW20936   8.678   5.417   6.355  0.0430 -0.2191  0.1469
 3541SOL    HW120937   8.756   5.445   6.403  0.4069 -1.4212  0.2904
 3541SOL    HW220938   8.638   5.499   6.325  0.4718  0.5046  1.4460
 3542SOL     OW20939  10.762   3.066   0.724 -0.2386 -0.0404  0.6668
 3542SOL    HW120940  10.831   3.099   0.782  2.8772 -1.1563 -2.0717
 3542SOL    HW220941  10.732   3.144   0.677  0.1315  0.2933  0.9651
 3543SOL     OW20942   9.923  11.457   9.191  0.5872  0.1932  0.4477
 3543SOL    HW120943   9.941  11.489   9.103  0.8190  0.1482  0.4802
 3543SOL    HW220944   9.943  11.364   9.187  0.4009  0.1501  0.4931
 3544SOL     OW20945   1.081   7.380   7.744  0.0418  0.2997  0.0536
 3544SOL    HW120946   1.006   7.397   7.802 -0.6924  1.4283 -1.1560
 3544SOL    HW220947   1.148   7.342   7.801 -1.4317 -0.7264  1.1754
 3545SOL     OW20948  10.105  12.608  12.029 -0.3667 -0.0064 -0.1245
 3545SOL    HW120949  10.038  12.607  11.961 -2.4617 -1.7846  1.8018
 3545SOL    HW220950  10.101  12.697  12.065 -0.1346  0.5465 -1.3951
 3546SOL     OW20951   9.968   3.427   1.647  0.3097 -0.1259  0.0315
 3546SOL    HW120952  10.028   3.395   1.714 -0.6996  1.2655  1.6907
 3546SOL    HW220953  10.023   3.480   1.589  0.7087  1.2736  1.6240
 3547SOL     OW20954  11.636  10.261   4.412  0.3594 -0.0280 -0.0444
 3547SOL    HW120955  11.616  10.219   4.328  0.2497 -0.2416  0.0892
 3547SOL    HW220956  11.602  10.201   4.478  0.5937  0.0616  0.1588
 3548SOL     OW20957   7.877  10.247   1.946  0.1262 -0.2125  0.7108
 3548SOL    HW120958   7.914  10.251   2.034 -0.9814  2.3870  1.1584
 3548SOL    HW220959   7.950  10.267   1.888  0.2632  1.2468  1.3299
 3549SOL     OW20960   9.947   4.677   4.690  0.5584  0.7222  0.3627
 3549SOL    HW120961   9.869   4.622   4.691 -0.0837  1.6164  0.2523
 3549SOL    HW220962  10.009   4.633   4.748  0.5316 -0.7850 -0.6882
 3550SOL     OW20963   8.865   2.191   9.896  0.0022 -0.2502  0.6601
 3550SOL    HW120964   8.804   2.209   9.825  1.7701 -1.5053 -1.3083
 3550SOL    HW220965   8.914   2.273   9.907  0.7787 -0.4848 -0.7494
 3551SOL     OW20966  12.730   3.217   2.477 -0.0032 -0.3232  0.3507
 3551SOL    HW120967  12.812   3.177   2.506 -1.7432 -2.0865  3.3644
 3551SOL    HW220968  12.748   3.311   2.474  1.8954 -0.5797  1.9041
 3552SOL     OW20969  10.075   7.743   2.405 -0.1550 -0.0056 -0.1950
 3552SOL    HW120970  10.114   7.656   2.417 -0.0400  0.1666  0.8519
 3552SOL    HW220971   9.985   7.725   2.379  0.0438 -0.4278 -0.6117
 3553SOL     OW20972   9.166   0.369   8.356  0.4697 -0.5230  0.2586
 3553SOL    HW120973   9.214   0.406   8.282  0.7165 -0.5038  0.4292
 3553SOL    HW220974   9.074   0.390   8.338  0.5549 -0.3085  0.0804
 3554SOL     OW20975   3.695  11.878  11.568 -0.3332 -0.0256  0.3371
 3554SOL    HW120976   3.758  11.812  11.594  1.5396  1.3755 -0.3875
 3554SOL    HW220977   3.721  11.903  11.479 -1.6671  0.8776  0.1609
 3555SOL     OW20978   7.511   7.056   6.076 -0.2479 -0.3366  0.1424
 3555SOL    HW120979   7.430   7.093   6.109  0.6519  0.3010  1.7906
 3555SOL    HW220980   7.486   6.972   6.038 -1.6653 -0.1478  0.6101
 3556SOL     OW20981   1.880   8.987   3.879  0.4746 -0.0006  0.7039
 3556SOL    HW120982   1.869   9.080   3.902  0.2993 -0.1860  1.3850
 3556SOL    HW220983   1.813   8.971   3.812  1.3833  0.6969 -0.4167
 3557SOL     OW20984   5.028  12.973   0.670  0.6412 -0.2311  0.2919
 3557SOL    HW120985   5.091  12.904   0.650  0.1408 -0.5130 -0.3823
 3557SOL    HW220986   5.076  13.054   0.652  1.3701 -0.3675  1.5036
 3558SOL     OW20987  11.385   2.804   7.228 -0.7303 -0.3461  0.5432
 3558SOL    HW120988  11.461   2.859   7.209 -1.4484  0.3389 -0.4562
 3558SOL    HW220989  11.413   2.715   7.206  0.4249 -0.4230  2.1203
 3559SOL     OW20990   8.250  12.370   9.962  0.7084  0.4787  0.0325
 3559SOL    HW120991   8.176  12.320   9.930  1.8867 -0.9828 -0.5423
 3559SOL    HW220992   8.242  12.456   9.919 -0.1398  0.0303 -0.7276
 3560SOL     OW20993   9.047   3.800   4.093  0.3903 -0.4783  0.3390
 3560SOL    HW120994   9.081   3.734   4.033 -0.9620 -0.0233 -0.9706
 3560SOL    HW220995   9.116   3.866   4.099 -0.9010  1.6858 -4.1866
 3561SOL     OW20996   8.438  12.538   2.457 -0.9145  0.4460  0.0451
 3561SOL    HW120997   8.529  12.510   2.457 -0.8023  0.7678 -0.7520
 3561SOL    HW220998   8.388  12.458   2.438 -0.6503  0.6066 -1.4667
 3562SOL     OW20999   7.146   8.061   0.910  0.1923 -0.3141 -0.6397
 3562SOL    HW121000   7.234   8.096   0.926 -0.4310  1.7017 -1.4233
 3562SOL    HW221001   7.162   7.971   0.881  1.8855 -0.5199  0.7535
 3563SOL     OW21002   0.829   7.923   1.624  0.2608  0.6972  0.0651
 3563SOL    HW121003   0.757   7.984   1.641 -1.0897 -0.7899  0.0333
 3563SOL    HW221004   0.803   7.843   1.670  0.2826 -0.9548 -2.5695
 3564SOL     OW21005   7.116   6.491   9.135  0.0531 -0.5201  0.3885
 3564SOL    HW121006   7.159   6.489   9.050  2.1129  1.0407  1.3125
 3564SOL    HW221007   7.157   6.420   9.185 -0.4279 -0.7752  0.4330
 3565SOL     OW21008   4.124   5.040   7.334 -0.0030  0.0646  0.1326
 3565SOL    HW121009   4.129   5.039   7.430  0.0780 -0.8404  0.1275
 3565SOL    HW221010   4.209   5.006   7.305  1.3424  3.4891 -0.3608
 3566SOL     OW21011   5.706  11.566   2.552  0.2159 -0.2790  0.1401
 3566SOL    HW121012   5.703  11.578   2.457  1.1744 -0.9395  0.0135
 3566SOL    HW221013   5.682  11.652   2.587  1.7716  0.5644 -0.7178
 3567SOL     OW21014  12.483   1.145   9.548 -0.6675 -0.2060 -0.7230
 3567SOL    HW121015  12.577   1.130   9.558 -0.3604  1.4894 -0.7153
 3567SOL    HW221016  12.441   1.070   9.590  0.6763  0.1580  1.3926
 3568SOL     OW21017   7.805   9.115   1.954  0.1033  0.2668 -0.0833
 3568SOL    HW121018   7.748   9.049   1.994  0.8729  0.6316  1.7116
 3568SOL    HW221019   7.763   9.135   1.870 -1.1393 -1.1402  0.1557
 3569SOL     OW21020   0.894   1.841   4.547  0.3394 -0.4888  0.5981
 3569SOL    HW121021   0.842   1.762   4.559  0.9292 -0.6949  2.0468
 3569SOL    HW221022   0.854   1.906   4.605  0.0156  0.2054 -0.3881
 3570SOL     OW21023  11.877  11.591   7.091  0.3191  0.7218  0.0016
 3570SOL    HW121024  11.845  11.553   7.172 -0.5344  0.5810 -0.3924
 3570SOL    HW221025  11.971  11.602   7.105  1.1142 -3.5572 -0.6213
 3571SOL     OW21026   1.271  12.712   9.036  0.4754  0.1065 -0.6315
 3571SOL    HW121027   1.284  12.698   9.129 -0.5289  0.5995 -0.4094
 3571SOL    HW221028   1.329  12.648   8.994 -1.3978 -2.3568  0.3196
 3572SOL     OW21029   2.406   9.524   1.688 -0.3257  0.2774 -0.1163
 3572SOL    HW121030   2.428   9.431   1.689  4.4198  1.1613  1.0184
 3572SOL    HW221031   2.392   9.544   1.595  0.7528 -1.1708 -0.6256
 3573SOL     OW21032  12.740   6.883   6.397 -0.1594 -0.0967  0.3977
 3573SOL    HW121033  12.734   6.836   6.314  0.5748 -0.8874  0.7695
 3573SOL    HW221034  12.651   6.884   6.431 -0.3162 -0.5480  0.0103
 3574SOL     OW21035   9.965   0.846   6.527  0.6988 -0.4442 -0.1368
 3574SOL    HW121036  10.051   0.888   6.536  0.7521 -0.1598 -1.6308
 3574SOL    HW221037   9.907   0.918   6.502 -0.0813 -0.5610  1.2627
 3575SOL     OW21038   5.348   4.839   2.199 -0.5784 -0.5662 -1.1013
 3575SOL    HW121039   5.276   4.831   2.261  1.0005 -1.3785  0.7212
 3575SOL    HW221040   5.325   4.914   2.144 -1.6693  0.7125  0.9954
 3576SOL     OW21041   8.009   1.847  11.259 -0.2424  0.5887  0.1065
 3576SOL    HW121042   8.061   1.877  11.184 -0.5123 -0.5762 -0.5678
 3576SOL    HW221043   8.072   1.801  11.315 -0.3473  0.0836 -0.1915
 3577SOL     OW21044   4.624   6.645   8.829  0.2394  0.5124  0.3661
 3577SOL    HW121045   4.549   6.587   8.847  0.7948 -0.8558 -1.4140
 3577SOL    HW221046   4.692   6.615   8.890  0.0834  0.1563  0.3713
 3578SOL     OW21047   2.346  10.142   7.108 -0.1354 -0.9052  0.3597
 3578SOL    HW121048   2.271  10.164   7.054  0.0731  0.7002  0.6592
 3578SOL    HW221049   2.384  10.064   7.068  0.7560  0.9022 -2.6040
 3579SOL     OW21050  12.796   2.737  11.733  0.2512 -0.1299 -0.2150
 3579SOL    HW121051  12.779   2.812  11.792 -2.2670 -1.4195  0.8642
 3579SOL    HW221052  12.738   2.668  11.766  0.7114 -1.7838 -2.6610
 3580SOL     OW21053   9.325  12.370   0.865  0.7031 -0.1968  0.1002
 3580SOL    HW121054   9.418  12.363   0.887  0.3505  0.2738  1.9179
 3580SOL    HW221055   9.279  12.335   0.941 -0.6402  1.2438  0.0070
 3581SOL     OW21056   6.403  10.804   3.392  0.1358  0.6941 -0.1134
 3581SOL    HW121057   6.338  10.750   3.436 -1.9765  2.2274 -1.2079
 3581SOL    HW221058   6.406  10.771   3.302  0.6174  0.8683 -0.1673
 3582SOL     OW21059   7.244   9.498   7.173  0.1177  0.6609 -1.2183
 3582SOL    HW121060   7.293   9.536   7.245  1.9109 -1.3309 -1.2992
 3582SOL    HW221061   7.300   9.511   7.096  0.3929 -1.2820 -1.3880
 3583SOL     OW21062   7.072   6.363   2.854 -0.4012  0.0543  0.2764
 3583SOL    HW121063   7.071   6.312   2.773 -0.6849 -2.4412  1.7481
 3583SOL    HW221064   6.989   6.411   2.853 -0.7520 -0.5485 -0.5333
 3584SOL     OW21065   6.310   0.036   2.915  0.0995  0.3152  0.3081
 3584SOL    HW121066   6.309   0.118   2.865  0.0702 -0.5469 -1.1724
 3584SOL    HW221067   6.398   0.001   2.903 -0.1485 -0.2920  0.2053
 3585SOL     OW21068   3.977   4.947   5.977  0.7690 -0.3060 -0.0838
 3585SOL    HW121069   4.014   5.025   5.935 -0.2895 -0.2900 -1.0298
 3585SOL    HW221070   4.015   4.947   6.065  1.3534  0.8705 -0.3146
 3586SOL     OW21071   4.469   7.129   8.645  0.3473  0.3622  0.5276
 3586SOL    HW121072   4.498   7.051   8.692 -1.2591  0.2601  1.4114
 3586SOL    HW221073   4.451   7.098   8.556  2.8540  0.4445 -0.0903
 3587SOL     OW21074   0.977   5.652   3.401  0.2737 -0.4465 -0.0928
 3587SOL    HW121075   0.989   5.650   3.496 -1.2034  1.7889  0.2257
 3587SOL    HW221076   0.888   5.622   3.386 -0.1210  0.8434 -0.5534
 3588SOL     OW21077   7.983   2.443   1.966 -0.0328  0.2331  0.0671
 3588SOL    HW121078   7.889   2.433   1.952  0.1344  0.9223 -1.7037
 3588SOL    HW221079   8.023   2.421   1.882  1.3364  0.8419  0.5256
 3589SOL     OW21080   5.149   0.740   0.067 -0.1549 -0.4792 -0.2123
 3589SOL    HW121081   5.060   0.769   0.089  0.2044 -0.7216  1.8272
 3589SOL    HW221082   5.136   0.666   0.008 -1.2923 -0.2659 -0.2529
 3590SOL     OW21083   0.182   0.552   4.794 -0.2624  0.1801  0.2446
 3590SOL    HW121084   0.138   0.484   4.845 -0.3108  0.0741  0.0618
 3590SOL    HW221085   0.234   0.504   4.730 -0.2106  0.3138  0.1865
 3591SOL     OW21086   9.707  10.779   3.545  0.0066  0.2640  0.7625
 3591SOL    HW121087   9.646  10.841   3.585  2.1769  2.1439  1.3864
 3591SOL    HW221088   9.736  10.724   3.617  1.5075  1.5767  1.2225
 3592SOL     OW21089  11.675   1.004   5.446  0.1198  0.2751  0.3324
 3592SOL    HW121090  11.710   0.919   5.472 -0.4556 -0.0238  0.1369
 3592SOL    HW221091  11.743   1.042   5.391 -0.2566 -0.7078 -0.8372
 3593SOL     OW21092  11.720   8.061  10.469 -0.8999  0.0590 -0.1148
 3593SOL    HW121093  11.674   8.002  10.528 -0.0111 -0.5505 -0.0131
 3593SOL    HW221094  11.807   8.070  10.508  0.0635 -1.1786 -1.8508
 3594SOL     OW21095  10.845  12.574   0.391  0.4136 -0.0516 -0.3877
 3594SOL    HW121096  10.939  12.581   0.376  0.6076 -2.0243 -0.3469
 3594SOL    HW221097  10.805  12.610   0.311  1.2816 -1.9468 -1.7429
 3595SOL     OW21098  10.458  10.532   9.117  0.2676  0.1460  0.0334
 3595SOL    HW121099  10.544  10.571   9.137  1.7779 -0.7927 -3.7427
 3595SOL    HW221100  10.473  10.438   9.117 -0.6767 -0.0303 -0.8813
 3596SOL     OW21101  10.439   6.625   0.205  0.3519  0.0685 -0.0111
 3596SOL    HW121102  10.526   6.624   0.244  0.2508 -2.2353  0.2508
 3596SOL    HW221103  10.454   6.618   0.111  0.4622 -2.7051  0.1562
 3597SOL     OW21104   0.391  12.047   5.574 -0.7725  0.3692 -0.1164
 3597SOL    HW121105   0.345  11.963   5.563  2.2179 -1.4931  0.4800
 3597SOL    HW221106   0.444  12.055   5.495 -1.1406  1.8370 -0.2324
 3598SOL     OW21107  10.217   3.900   4.567  0.0719 -0.0573  0.2505
 3598SOL    HW121108  10.268   3.980   4.584  2.3802 -1.2383 -0.5832
 3598SOL    HW221109  10.140   3.908   4.623  0.9297  2.0821  1.2528
 3599SOL     OW21110  10.860   6.438   6.830 -0.0014  0.2947  0.0829
 3599SOL    HW121111  10.952   6.416   6.846  0.0844  1.6164  1.5743
 3599SOL    HW221112  10.858   6.533   6.826 -1.3781  0.3027  0.5014
 3600SOL     OW21113   7.576   9.010  10.359  0.2525  0.0634  0.1449
 3600SOL    HW121114   7.592   9.104  10.358 -0.6787  0.2556 -2.1252
 3600SOL    HW221115   7.652   8.972  10.316  0.4094 -0.2008  0.6423
 3601SOL     OW21116   2.415   6.064  12.396 -0.1661  0.1245 -0.5989
 3601SOL    HW121117   2.367   6.046  12.315 -1.8068  0.3301  0.2891
 3601SOL    HW221118   2.388   5.996  12.457 -1.7451  1.9359  0.8696
 3602SOL     OW21119   0.704   2.365   9.336  0.3551  0.4912 -0.9009
 3602SOL    HW121120   0.628   2.371   9.394  0.8313  3.0323 -0.4016
 3602SOL    HW221121   0.720   2.455   9.308  3.2127  0.0664 -0.9414
 3603SOL     OW21122   7.519   0.776   8.007 -0.2948  0.6795  0.1038
 3603SOL    HW121123   7.482   0.731   7.931 -2.0650  1.8328  0.2454
 3603SOL    HW221124   7.581   0.838   7.970 -0.5879  0.7069 -0.3476
 3604SOL     OW21125  11.742   4.254   9.620 -0.2261  0.1379  0.1489
 3604SOL    HW121126  11.751   4.283   9.529 -0.8134  0.3052  0.1420
 3604SOL    HW221127  11.649   4.232   9.629 -0.6787  2.2954  1.3378
 3605SOL     OW21128   7.522  10.894   5.317 -0.0852 -0.2085 -0.1052
 3605SOL    HW121129   7.542  10.897   5.411  1.9838 -0.9185 -0.4615
 3605SOL    HW221130   7.453  10.828   5.310  0.0133 -0.4433  0.8795
 3606SOL     OW21131  11.578   4.688   8.161 -0.0854 -0.2689 -0.7618
 3606SOL    HW121132  11.516   4.694   8.234 -0.7089 -1.3009 -1.1742
 3606SOL    HW221133  11.626   4.770   8.163  1.1402 -0.9432  1.8920
 3607SOL     OW21134   4.828   0.151  12.157  0.0161 -0.0770 -0.4761
 3607SOL    HW121135   4.864   0.198  12.082 -0.4254  1.0521 -0.0092
 3607SOL    HW221136   4.778   0.217  12.205 -0.5026 -1.0000  0.2938
 3608SOL     OW21137   4.784  10.376  12.179 -0.1115  0.2344  0.8070
 3608SOL    HW121138   4.765  10.388  12.086  0.8524  0.1327  0.5791
 3608SOL    HW221139   4.773  10.463  12.218  0.1819  0.4351  0.4509
 3609SOL     OW21140   6.470   9.775  10.449  0.1578 -0.2017 -0.2508
 3609SOL    HW121141   6.381   9.741  10.445 -0.5549  1.6389 -1.8686
 3609SOL    HW221142   6.470   9.848  10.388  2.5744  0.3695  0.3291
 3610SOL     OW21143  11.822   7.402   7.334  0.3262 -0.0362 -0.2620
 3610SOL    HW121144  11.908   7.362   7.318  0.7047  1.0557 -1.0319
 3610SOL    HW221145  11.797   7.370   7.421  0.9361 -1.3524 -0.5377
 3611SOL     OW21146   2.598   0.396   5.316 -0.3919 -0.1044  0.5563
 3611SOL    HW121147   2.571   0.487   5.322  0.9901  0.3931 -0.5020
 3611SOL    HW221148   2.666   0.394   5.249 -0.8497 -2.0188  0.0649
 3612SOL     OW21149   6.372   0.288   5.140  0.3448 -0.0714 -0.4836
 3612SOL    HW121150   6.381   0.240   5.223 -1.5685  0.6133  0.1638
 3612SOL    HW221151   6.352   0.378   5.166  3.6909  1.1708 -1.6777
 3613SOL     OW21152  10.846  11.684   6.964 -0.0484  0.1802  0.1461
 3613SOL    HW121153  10.931  11.642   6.970  1.6107  3.1607 -0.6601
 3613SOL    HW221154  10.787  11.615   6.933  2.0786 -1.8987  0.4586
 3614SOL     OW21155   1.339   2.950   7.426 -0.7656 -0.1050 -0.2167
 3614SOL    HW121156   1.327   2.896   7.504 -0.5323 -0.1098 -0.1863
 3614SOL    HW221157   1.252   2.949   7.384 -0.9309  0.0266  0.1200
 3615SOL     OW21158   0.988  11.563   6.144  0.2522 -0.0640  0.0422
 3615SOL    HW121159   1.080  11.586   6.160 -0.2759  1.6023  0.9733
 3615SOL    HW221160   0.991  11.503   6.070  2.0911  0.0215 -0.0072
 3616SOL     OW21161   0.647   5.409   1.390 -0.1526  0.0106  0.1945
 3616SOL    HW121162   0.683   5.490   1.352  1.3602 -0.3426  0.7809
 3616SOL    HW221163   0.649   5.425   1.484 -1.9526  0.1046  0.2506
 3617SOL     OW21164   4.939   8.625   9.620  0.3631 -0.4303  0.1263
 3617SOL    HW121165   4.978   8.670   9.545  0.8712 -1.7247 -0.4102
 3617SOL    HW221166   4.994   8.548   9.633 -0.9398 -1.3317  0.5140
 3618SOL     OW21167  11.564  10.520  11.662 -0.3060 -0.2053  0.5222
 3618SOL    HW121168  11.633  10.509  11.726 -0.2065 -1.6298  0.2170
 3618SOL    HW221169  11.560  10.435  11.617 -0.1804  0.8162 -1.5325
 3619SOL     OW21170  11.889   2.903   5.818 -0.3216 -0.0011 -0.4047
 3619SOL    HW121171  11.810   2.945   5.782  0.3292  1.0081 -0.7023
 3619SOL    HW221172  11.951   2.904   5.746 -0.0890 -0.9639 -0.2239
 3620SOL     OW21173   5.312  12.115  12.264  0.3279  0.1848  0.2551
 3620SOL    HW121174   5.316  12.169  12.185 -0.0927 -0.2595 -0.0787
 3620SOL    HW221175   5.279  12.174  12.332 -0.2281  0.3335 -0.1317
 3621SOL     OW21176   9.938  11.797   4.652 -0.2633 -0.2935  0.3060
 3621SOL    HW121177  10.016  11.821   4.602 -0.0454  0.3707  0.9472
 3621SOL    HW221178   9.958  11.710   4.687  0.5078  0.1753  1.0737
 3622SOL     OW21179   1.215   0.974   4.402  0.3225 -0.3982 -0.0425
 3622SOL    HW121180   1.158   1.045   4.429 -1.2545 -1.9498  0.9191
 3622SOL    HW221181   1.274   1.013   4.338  0.0439  1.9290  1.0334
 3623SOL     OW21182   7.244   0.522   2.783 -0.3262 -0.4147  0.3565
 3623SOL    HW121183   7.306   0.449   2.785 -0.7104 -0.7334  1.0986
 3623SOL    HW221184   7.279   0.581   2.716  0.1178 -1.1637 -0.0849
 3624SOL     OW21185  11.734   2.242   4.945  0.6038  0.1569  0.0857
 3624SOL    HW121186  11.701   2.189   4.872  0.8410  0.3019 -0.1281
 3624SOL    HW221187  11.803   2.296   4.906 -0.0935  1.1278  0.1311
 3625SOL     OW21188   6.127   9.033   0.653  0.5445 -0.0219 -0.0848
 3625SOL    HW121189   6.142   9.127   0.646  0.6072  0.1803  2.0783
 3625SOL    HW221190   6.032   9.024   0.649  0.5115  0.1875  0.1996
 3626SOL     OW21191  12.602   8.255   6.114  0.1128  0.4583  0.5871
 3626SOL    HW121192  12.668   8.186   6.128  0.0008  0.2757  0.2267
 3626SOL    HW221193  12.633   8.301   6.036 -0.1007  0.4787  0.5161
 3627SOL     OW21194  11.453  11.635  12.650  0.1348 -0.2691  0.3943
 3627SOL    HW121195  11.394  11.646  12.724 -0.4519  1.7101 -0.2894
 3627SOL    HW221196  11.399  11.657  12.573  1.2168 -0.4028 -0.4326
 3628SOL     OW21197  12.650   7.348   1.891  0.0844 -0.1789  0.0202
 3628SOL    HW121198  12.641   7.395   1.808  0.1949 -0.8271 -0.3681
 3628SOL    HW221199  12.601   7.401   1.954 -0.4938  0.0178 -0.5844
 3629SOL     OW21200   9.123   3.076   7.842 -0.0411  0.0816  0.1518
 3629SOL    HW121201   9.058   3.092   7.774  0.4066  0.6651 -0.1565
 3629SOL    HW221202   9.207   3.087   7.797  0.2840 -1.0162  0.4512
 3630SOL     OW21203   3.859  12.252  10.647  0.6539  0.1469 -0.1507
 3630SOL    HW121204   3.892  12.324  10.702  0.0677  0.0822  0.2866
 3630SOL    HW221205   3.827  12.295  10.568  0.4814  0.3503  0.0286
 3631SOL     OW21206   5.435   9.475  11.666 -0.6786 -0.3937 -0.5525
 3631SOL    HW121207   5.405   9.479  11.575 -1.9626  0.2529 -0.1250
 3631SOL    HW221208   5.416   9.385  11.693  0.2601 -0.7657 -1.0883
 3632SOL     OW21209   3.285   1.064   2.852  0.0608  0.2186  0.1693
 3632SOL    HW121210   3.333   0.982   2.839  2.0970  1.2533  0.7713
 3632SOL    HW221211   3.346   1.133   2.824 -1.3195  1.5881  0.3714
 3633SOL     OW21212   0.828  10.050  12.654  0.4902 -0.4850 -0.2648
 3633SOL    HW121213   0.757  10.107  12.628 -0.4568 -0.5226  2.0125
 3633SOL    HW221214   0.896  10.063  12.588  0.2722  3.1463  0.0634
 3634SOL     OW21215  10.399   0.643   5.145 -0.2637 -0.0311  0.0264
 3634SOL    HW121216  10.407   0.695   5.225 -1.0218 -2.2985  1.6884
 3634SOL    HW221217  10.363   0.559   5.175  0.1952 -1.2573 -2.6014
 3635SOL     OW21218   6.019   9.447   4.327  0.5727 -0.2955 -0.0048
 3635SOL    HW121219   6.015   9.508   4.401  1.5844 -0.7576  0.4592
 3635SOL    HW221220   5.962   9.485   4.261  0.9536  1.0115  0.3823
 3636SOL     OW21221  10.714   8.660   9.414  0.3220 -0.3265  0.0665
 3636SOL    HW121222  10.734   8.599   9.486 -1.9508 -0.2924  0.8113
 3636SOL    HW221223  10.629   8.630   9.381 -0.7051  2.2099  0.2447
 3637SOL     OW21224  11.366   6.287   6.445 -0.4469  0.0567  0.7552
 3637SOL    HW121225  11.413   6.298   6.363 -1.1664  1.2587  0.4795
 3637SOL    HW221226  11.374   6.372   6.489 -0.1882 -0.5272  1.8687
 3638SOL     OW21227  12.381  12.753   7.507  0.2280  0.3139 -0.6419
 3638SOL    HW121228  12.446  12.789   7.448  0.3040  0.1792 -0.6406
 3638SOL    HW221229  12.392  12.802   7.589 -0.3567  0.9919 -0.9617
 3639SOL     OW21230   3.648   2.943   7.886 -0.5305  0.4809  1.1461
 3639SOL    HW121231   3.558   2.919   7.866 -0.0647 -0.9595  0.6152
 3639SOL    HW221232   3.690   2.951   7.801  0.5042 -1.7447  1.3676
 3640SOL     OW21233   4.338   7.347   9.241  0.2359  0.1669  0.5283
 3640SOL    HW121234   4.359   7.295   9.318 -0.7315  0.8886  1.2986
 3640SOL    HW221235   4.316   7.282   9.174 -2.8775 -0.4721  2.0163
 3641SOL     OW21236   5.916   6.939   2.041  0.2609 -0.1839 -0.0444
 3641SOL    HW121237   6.004   6.907   2.025  0.8440 -0.2006  2.7723
 3641SOL    HW221238   5.860   6.882   1.988  1.7395 -1.9269  0.1769
 3642SOL     OW21239   1.308  11.207   4.468 -0.0207 -0.4705 -0.7092
 3642SOL    HW121240   1.334  11.135   4.526  0.3636 -0.1511 -0.4791
 3642SOL    HW221241   1.252  11.263   4.522  1.4976  0.5972 -0.1737
 3643SOL     OW21242   0.941   3.715  10.853 -0.3377  0.6124 -0.8597
 3643SOL    HW121243   0.921   3.754  10.768 -2.5622  1.2878 -0.1073
 3643SOL    HW221244   0.917   3.782  10.917  1.1514  0.0739  0.3374
 3644SOL     OW21245  10.363  10.067   9.068  0.6908  0.0600  0.4221
 3644SOL    HW121246  10.421  10.135   9.105  2.2966 -0.5146 -0.8880
 3644SOL    HW221247  10.423  10.007   9.024 -0.9105 -0.8462 -0.5964
 3645SOL     OW21248   2.176   1.808  11.921 -0.0023  0.2094  0.2235
 3645SOL    HW121249   2.225   1.831  11.843  0.6495  0.1409  0.6072
 3645SOL    HW221250   2.101   1.757  11.889 -0.0355  0.6446 -0.3937
 3646SOL     OW21251   0.996   2.052   0.225 -0.0466 -0.2392 -0.0577
 3646SOL    HW121252   1.005   2.025   0.133  1.4171 -2.4019  0.6328
 3646SOL    HW221253   1.074   2.105   0.242  0.8311 -1.6534  0.4675
 3647SOL     OW21254  10.824   4.930   1.590 -0.2180  0.1582 -0.0753
 3647SOL    HW121255  10.789   5.012   1.624  1.7693  0.7956  0.5745
 3647SOL    HW221256  10.887   4.902   1.656  0.7992 -0.6851 -1.3713
 3648SOL     OW21257   4.732  10.166  12.353 -0.1005 -0.5348 -0.0225
 3648SOL    HW121258   4.755  10.228  12.284 -0.6037 -1.5214 -1.1234
 3648SOL    HW221259   4.654  10.121  12.320 -0.9560 -0.3653  1.6338
 3649SOL     OW21260   7.009   5.041   5.370 -0.5199 -0.1411  0.0788
 3649SOL    HW121261   7.049   5.127   5.356  0.7731 -0.7541 -0.0990
 3649SOL    HW221262   7.021   5.025   5.464 -2.3997  0.6390  0.5035
 3650SOL     OW21263   7.339   5.426   4.001 -0.0983 -0.6542  0.1329
 3650SOL    HW121264   7.334   5.513   4.041 -0.9399  0.0660 -1.4396
 3650SOL    HW221265   7.260   5.420   3.947  0.5578 -1.9309 -0.7323
 3651SOL     OW21266  12.046   1.813   2.170 -0.0899 -0.3324  0.1693
 3651SOL    HW121267  12.025   1.742   2.110 -2.4952 -0.1136  0.6477
 3651SOL    HW221268  12.007   1.890   2.131  0.6786  0.3382  0.6881
 3652SOL     OW21269   3.563   7.933   0.942  0.4894  0.1991 -0.0283
 3652SOL    HW121270   3.477   7.974   0.936  0.1281 -0.4003  0.8972
 3652SOL    HW221271   3.575   7.917   1.035  1.4067 -0.1554 -0.2004
 3653SOL     OW21272   9.833   6.870   6.332  0.5995 -0.1334 -0.4763
 3653SOL    HW121273   9.803   6.894   6.245  0.5863 -0.4402 -0.5563
 3653SOL    HW221274   9.866   6.781   6.322 -2.5557 -1.5530  0.5553
 3654SOL     OW21275   1.371   3.543   6.661  0.5410  0.1609 -0.0967
 3654SOL    HW121276   1.376   3.637   6.676 -0.8158  0.5646 -1.8056
 3654SOL    HW221277   1.456   3.519   6.624  0.4905  0.9761 -0.7659
 3655SOL     OW21278  10.002  12.209   8.997 -0.3657 -0.5979 -0.3134
 3655SOL    HW121279   9.910  12.227   9.013  0.2157  1.9592  0.6073
 3655SOL    HW221280  10.045  12.223   9.082  0.8199 -2.5458 -0.5128
 3656SOL     OW21281   4.702   3.640  12.632  0.1439  0.1390 -0.8081
 3656SOL    HW121282   4.728   3.574  12.568  0.5353  0.2649 -0.7769
 3656SOL    HW221283   4.619   3.674  12.598 -1.1188 -1.7415  0.1594
 3657SOL     OW21284   1.434  10.493  11.848  0.3922  0.0348  0.6975
 3657SOL    HW121285   1.357  10.487  11.904  0.6114  1.2422  1.1457
 3657SOL    HW221286   1.479  10.573  11.876  0.5006  0.6926 -1.2116
 3658SOL     OW21287   6.434   0.803  11.358  0.1718  0.0850  0.8577
 3658SOL    HW121288   6.378   0.784  11.433 -2.3881 -0.2211 -0.9956
 3658SOL    HW221289   6.465   0.718  11.328 -0.9772 -0.0832  0.0634
 3659SOL     OW21290   5.389   1.822   7.875 -0.2397 -0.0319 -0.0805
 3659SOL    HW121291   5.375   1.765   7.799 -0.5561 -0.0727  0.0061
 3659SOL    HW221292   5.388   1.911   7.838  1.1890 -0.1078 -0.3549
 3660SOL     OW21293  10.741   1.476   2.485 -0.0485  0.0649 -0.1139
 3660SOL    HW121294  10.813   1.415   2.469 -0.4948 -0.9238  1.4166
 3660SOL    HW221295  10.778   1.542   2.543 -0.1640 -0.0056  0.0400
 3661SOL     OW21296   0.636   0.677   5.405  0.0551  0.2222  0.0363
 3661SOL    HW121297   0.651   0.698   5.497  2.8181 -1.8155  0.1838
 3661SOL    HW221298   0.717   0.701   5.361 -0.6504 -0.2449 -1.6097
 3662SOL     OW21299  11.354   6.937   6.053 -0.0169  0.2987 -0.0723
 3662SOL    HW121300  11.389   7.010   6.105  1.2430  1.4350 -2.3580
 3662SOL    HW221301  11.274   6.911   6.099  0.1156  2.3543  1.4667
 3663SOL     OW21302   6.545  12.371   1.650  0.3312  0.2944 -0.4191
 3663SOL    HW121303   6.460  12.400   1.682  1.3137 -0.1463  2.9709
 3663SOL    HW221304   6.588  12.451   1.618 -0.2747  1.0198  0.5550
 3664SOL     OW21305   3.837  11.524   2.543 -0.4792  0.1270 -0.1625
 3664SOL    HW121306   3.816  11.511   2.635  0.6845  0.1324  0.1268
 3664SOL    HW221307   3.871  11.613   2.538  1.3805 -0.5419 -0.1928
 3665SOL     OW21308   0.346   3.338   9.065  0.1911 -0.3408 -0.1106
 3665SOL    HW121309   0.346   3.318   8.972  0.0175  0.4821 -0.2925
 3665SOL    HW221310   0.437   3.325   9.093  1.0199  2.4863 -1.0964
 3666SOL     OW21311   0.768   3.831   7.557  0.3293  0.0527  0.3547
 3666SOL    HW121312   0.706   3.759   7.544  0.8729 -0.5895  1.1888
 3666SOL    HW221313   0.787   3.828   7.651  2.6783 -0.6688 -0.0911
 3667SOL     OW21314   9.761   1.901   4.185 -0.3216  0.1817 -0.5582
 3667SOL    HW121315   9.789   1.955   4.258  1.0962 -0.1224 -0.8369
 3667SOL    HW221316   9.729   1.963   4.120  1.0598  0.7010 -0.7764
 3668SOL     OW21317  11.123   8.551   5.473 -0.1316 -0.3005 -0.0552
 3668SOL    HW121318  11.072   8.536   5.394 -1.1971 -1.0847  0.7542
 3668SOL    HW221319  11.077   8.503   5.542  1.1513 -0.2156  0.9138
 3669SOL     OW21320   4.121   3.534  11.829 -0.2497 -0.7178 -0.7031
 3669SOL    HW121321   4.106   3.504  11.919  1.5815  0.5930  0.1204
 3669SOL    HW221322   4.051   3.494  11.778 -0.9780 -2.0173  1.1940
 3670SOL     OW21323   8.439  10.988   2.015 -0.3194 -0.1825 -0.3783
 3670SOL    HW121324   8.472  10.957   2.099 -0.1053 -2.6743 -1.3046
 3670SOL    HW221325   8.453  11.083   2.017 -0.2501 -0.1779  2.3205
 3671SOL     OW21326   6.313   9.451   3.702  0.0892 -0.1281 -0.2459
 3671SOL    HW121327   6.280   9.524   3.649  0.3883  1.0164  1.0756
 3671SOL    HW221328   6.271   9.373   3.665 -2.1040  0.9635 -0.2492
 3672SOL     OW21329   5.234   3.895   7.993 -0.1984  0.3533 -0.3310
 3672SOL    HW121330   5.230   3.830   7.922  0.8295 -0.0007 -0.0745
 3672SOL    HW221331   5.249   3.978   7.949  2.8491 -0.1616 -0.4494
 3673SOL     OW21332   7.658   9.764   3.845 -0.2048  0.2849  0.4572
 3673SOL    HW121333   7.663   9.683   3.894  2.2265  0.0748 -0.0193
 3673SOL    HW221334   7.649   9.833   3.911  1.2562 -0.1278  1.1140
 3674SOL     OW21335   3.511  12.345   4.573  0.2332 -0.2641  0.4959
 3674SOL    HW121336   3.454  12.341   4.650  1.3552 -0.4498  1.3475
 3674SOL    HW221337   3.558  12.261   4.573 -0.1058 -0.4704 -0.6876
 3675SOL     OW21338   7.426  11.864   1.849  0.2873 -0.1070  0.0130
 3675SOL    HW121339   7.476  11.928   1.899  1.5680 -0.1178 -1.1966
 3675SOL    HW221340   7.344  11.910   1.827 -0.4402 -0.2056  2.2889
 3676SOL     OW21341   6.102   3.399   0.763 -0.1497 -0.2531  0.0694
 3676SOL    HW121342   6.023   3.445   0.735  1.1459  3.4723  1.8182
 3676SOL    HW221343   6.159   3.402   0.687 -1.2401 -2.0496 -0.8770
 3677SOL     OW21344   3.407   5.958   0.723  0.0974 -0.5676  0.0312
 3677SOL    HW121345   3.316   5.927   0.723  0.5943 -2.0909  0.4854
 3677SOL    HW221346   3.433   5.955   0.815  0.2462  1.0269  0.0567
 3678SOL     OW21347   6.247   4.060   8.330  0.1394  0.2553  0.0283
 3678SOL    HW121348   6.326   4.032   8.284 -0.0083 -1.6773  0.8428
 3678SOL    HW221349   6.196   4.108   8.265  0.4064 -1.4694 -1.5047
 3679SOL     OW21350   7.169   8.723   2.406  0.3557  0.7587  0.2217
 3679SOL    HW121351   7.229   8.654   2.434  1.6358  1.6356 -0.2913
 3679SOL    HW221352   7.158   8.710   2.312 -0.8300  0.2005  0.4099
 3680SOL     OW21353   1.074   6.693  11.233 -0.3690 -0.1287  0.0298
 3680SOL    HW121354   1.057   6.600  11.248  0.4077 -0.1691  0.6709
 3680SOL    HW221355   1.070   6.733  11.320 -2.1118  0.6897 -0.3766
 3681SOL     OW21356   4.399   0.992   8.197  0.1691  0.5017  0.2477
 3681SOL    HW121357   4.419   0.971   8.288 -0.7743  1.0356  0.5877
 3681SOL    HW221358   4.482   1.026   8.162  1.1851 -1.7727  0.2366
 3682SOL     OW21359   8.700  11.199  11.833 -0.3091  0.3443 -0.2490
 3682SOL    HW121360   8.708  11.289  11.864 -0.2437  0.2086  0.1339
 3682SOL    HW221361   8.607  11.188  11.817 -0.3993  0.2884  0.2955
 3683SOL     OW21362   7.067   0.944   1.146  0.8074  0.1638 -0.6714
 3683SOL    HW121363   7.038   0.854   1.134  1.1600 -0.1955  0.9783
 3683SOL    HW221364   7.013   0.977   1.218 -0.5620  1.8789 -2.3505
 3684SOL     OW21365   2.741   7.988  10.212 -0.4122  0.1488 -0.3118
 3684SOL    HW121366   2.773   7.902  10.241  0.2696  0.4052 -0.2844
 3684SOL    HW221367   2.799   8.050  10.256 -0.4237  0.5959 -0.9356
 3685SOL     OW21368   2.631   0.179   3.809  0.3867  0.0540  0.8028
 3685SOL    HW121369   2.687   0.195   3.734  1.5898 -0.9520  1.4419
 3685SOL    HW221370   2.546   0.216   3.784  0.7065 -0.3772 -1.0944
 3686SOL     OW21371   0.905   7.270   6.959  0.1319  0.1601  0.4731
 3686SOL    HW121372   0.939   7.353   6.994 -1.2402  0.9656 -0.0429
 3686SOL    HW221373   0.955   7.256   6.879 -0.7055  1.3405 -0.2848
 3687SOL     OW21374   6.055   9.946   3.018 -0.8017  0.5378 -0.3517
 3687SOL    HW121375   6.050   9.851   3.017 -1.8437  0.5891 -0.4344
 3687SOL    HW221376   6.148   9.965   3.005 -0.6617 -0.4513 -0.8755
 3688SOL     OW21377   9.109   1.197   7.677  0.5045 -0.2783  0.4217
 3688SOL    HW121378   9.018   1.199   7.706  0.8002  0.9207  1.3367
 3688SOL    HW221379   9.103   1.182   7.582 -0.7554  1.7610  0.1088
 3689SOL     OW21380  10.073   3.081   1.181 -0.0863  0.0790 -0.1248
 3689SOL    HW121381  10.143   3.015   1.181 -0.7091 -0.6270 -1.5270
 3689SOL    HW221382  10.045   3.086   1.090  0.8181  3.2771 -0.3365
 3690SOL     OW21383   5.858   6.409   3.668  0.5820  0.1657  0.6410
 3690SOL    HW121384   5.856   6.368   3.582 -3.2657  0.3870  0.4601
 3690SOL    HW221385   5.891   6.497   3.652  1.5725 -0.3551 -0.2680
 3691SOL     OW21386  12.885   9.657   0.371 -0.1837 -0.8186 -0.0236
 3691SOL    HW121387  12.978   9.638   0.358  0.1369 -0.0178  0.8832
 3691SOL    HW221388  12.885   9.724   0.440 -1.3522  0.3080 -1.0606
 3692SOL     OW21389   2.964   8.699   5.568 -0.0470 -0.3817 -0.4726
 3692SOL    HW121390   2.945   8.619   5.617  0.7163 -1.0477 -1.2485
 3692SOL    HW221391   3.055   8.720   5.590 -0.2437  0.2988 -0.2602
 3693SOL     OW21392   3.414   2.462   7.206  0.2937 -0.2183 -0.0171
 3693SOL    HW121393   3.330   2.437   7.245 -0.5091  2.9027  0.5383
 3693SOL    HW221394   3.477   2.453   7.278  0.3519 -1.8015 -0.2207
 3694SOL     OW21395  12.965   8.480   7.770 -0.0669  0.0144  0.2816
 3694SOL    HW121396  12.917   8.407   7.731  0.9245 -0.3842 -0.2173
 3694SOL    HW221397  12.911   8.557   7.751  0.1415 -0.2377 -1.4783
 3695SOL     OW21398   6.622  11.948   8.951  0.4395 -0.5534 -0.0326
 3695SOL    HW121399   6.635  12.035   8.914 -0.0788 -0.8684 -0.9941
 3695SOL    HW221400   6.642  11.888   8.879 -1.4379 -1.1660 -0.1100
 3696SOL     OW21401   0.343   4.417   6.073 -0.0083  0.0286  0.3332
 3696SOL    HW121402   0.423   4.468   6.059 -0.3311  0.0776 -1.7059
 3696SOL    HW221403   0.281   4.480   6.110 -0.3257  1.1470 -1.9353
 3697SOL     OW21404   7.309   7.124  10.694  0.3455  0.4919 -0.2057
 3697SOL    HW121405   7.378   7.059  10.681  1.4696  1.4295  0.9089
 3697SOL    HW221406   7.230   7.081  10.662  1.6364 -0.0595 -2.9753
 3698SOL     OW21407  10.106   2.550   1.504 -0.2115 -0.1298  0.0022
 3698SOL    HW121408  10.039   2.532   1.438 -0.2069  1.7455 -0.5769
 3698SOL    HW221409  10.068   2.620   1.558  0.1996 -0.9292  1.3957
 3699SOL     OW21410   4.509   1.261   1.450 -0.0362  0.0956 -0.3778
 3699SOL    HW121411   4.493   1.272   1.356 -0.1843  2.7213 -0.1161
 3699SOL    HW221412   4.597   1.224   1.456 -0.8249 -2.1323 -1.5472
 3700SOL     OW21413  10.287   7.910   1.328 -0.1515 -0.4429  0.2757
 3700SOL    HW121414  10.342   7.976   1.370  0.2404 -1.2841  1.0862
 3700SOL    HW221415  10.227   7.881   1.396 -2.5551  1.3951 -0.9013
 3701SOL     OW21416  12.104   3.432   9.735 -0.1109  0.0542 -0.2903
 3701SOL    HW121417  12.144   3.513   9.703  2.5644 -1.2734 -0.6117
 3701SOL    HW221418  12.096   3.443   9.829  1.7649  0.1342 -0.1134
 3702SOL     OW21419   8.604   4.980   1.721  0.1023  0.0012 -0.4108
 3702SOL    HW121420   8.541   4.911   1.739 -1.4056  1.1572 -1.0436
 3702SOL    HW221421   8.552   5.052   1.684  1.3154  2.1275  1.7086
 3703SOL     OW21422  10.354  12.419  12.444  0.4032 -0.4326 -0.3557
 3703SOL    HW121423  10.319  12.334  12.418  0.8142 -1.2480  1.5991
 3703SOL    HW221424  10.323  12.431  12.534  1.2673  0.9906 -0.2167
 3704SOL     OW21425   6.102   7.108   6.145 -0.0343 -0.0006  0.2856
 3704SOL    HW121426   6.139   7.195   6.161  2.4771 -0.9300  0.0154
 3704SOL    HW221427   6.094   7.102   6.050  1.2346 -0.5653  0.1945
 3705SOL     OW21428   4.105   9.571   4.429  0.4284  0.3727 -0.2112
 3705SOL    HW121429   4.151   9.655   4.433  0.5284  0.2918  0.4045
 3705SOL    HW221430   4.017   9.590   4.462  0.6729  0.0924  0.6313
 3706SOL     OW21431  12.908  11.812   1.335 -0.3656 -0.2743  0.4069
 3706SOL    HW121432  12.909  11.804   1.431  0.2235  0.1058  0.4402
 3706SOL    HW221433  13.000  11.800   1.310 -0.3683  0.5335 -0.0250
 3707SOL     OW21434   4.966   3.443   4.961 -0.1787 -0.1205 -0.0350
 3707SOL    HW121435   4.914   3.472   4.886 -0.0255  0.3498  0.0337
 3707SOL    HW221436   5.056   3.444   4.929 -0.2570 -1.6144 -0.3666
 3708SOL     OW21437   0.202   4.628   2.847  0.3084  0.2520 -0.1295
 3708SOL    HW121438   0.263   4.582   2.905 -1.7305 -1.0017  1.1222
 3708SOL    HW221439   0.216   4.721   2.867 -0.2761 -0.1293  2.3771
 3709SOL     OW21440   8.426   9.097   7.506 -0.5310  0.0856  0.9425
 3709SOL    HW121441   8.514   9.092   7.468 -1.0638  1.1618 -0.5163
 3709SOL    HW221442   8.425   9.028   7.573  0.9264 -0.9187 -0.0100
 3710SOL     OW21443   5.904   5.842   5.467 -0.3332 -0.1866  0.0175
 3710SOL    HW121444   5.912   5.747   5.469  0.4918 -0.1217  0.0050
 3710SOL    HW221445   5.945   5.871   5.549  0.2681  0.2097 -0.4138
 3711SOL     OW21446   0.553   2.481   3.043  0.9848 -0.3597 -0.0787
 3711SOL    HW121447   0.501   2.402   3.030 -1.4519  1.3518 -1.6242
 3711SOL    HW221448   0.585   2.503   2.955  2.0766  0.1284  0.4150
 3712SOL     OW21449   4.572  11.541   9.857  0.0566 -0.1605  0.1492
 3712SOL    HW121450   4.522  11.543   9.939 -0.4763 -0.0720 -0.1700
 3712SOL    HW221451   4.561  11.452   9.824  1.9580 -0.8231  1.1775
 3713SOL     OW21452   6.552   2.821  12.752 -0.1099  0.6880 -0.0109
 3713SOL    HW121453   6.630   2.803  12.805 -1.0733  1.1060  1.5869
 3713SOL    HW221454   6.546   2.746  12.693  0.9503  0.1845  0.4866
 3714SOL     OW21455   0.330   2.109   4.832 -0.4752  0.1800 -0.4136
 3714SOL    HW121456   0.326   2.034   4.892  0.4795  0.5954  0.1999
 3714SOL    HW221457   0.401   2.088   4.771 -2.3863 -0.9162 -2.4104
 3715SOL     OW21458   9.011  11.297   5.362  0.7209  0.1804  0.0840
 3715SOL    HW121459   8.917  11.281   5.354  0.6431 -1.1816  2.7025
 3715SOL    HW221460   9.052  11.224   5.315  0.5523  1.1507 -1.6689
 3716SOL     OW21461   2.893   4.569  12.407  0.0191 -0.3347 -0.0124
 3716SOL    HW121462   2.827   4.637  12.417 -1.3663 -1.5831 -0.3578
 3716SOL    HW221463   2.845   4.492  12.375  1.9388 -0.7471 -2.1935
 3717SOL     OW21464   7.351   5.687   4.099  0.0860 -0.2081  0.5337
 3717SOL    HW121465   7.284   5.726   4.155  2.5523  1.4015  2.5876
 3717SOL    HW221466   7.402   5.761   4.068  0.6650 -1.3400 -1.3667
 3718SOL     OW21467   3.382  11.055   5.765 -0.6491  0.0068 -0.8582
 3718SOL    HW121468   3.336  11.103   5.833 -2.2234 -0.7127 -1.3740
 3718SOL    HW221469   3.467  11.098   5.759 -0.2360 -0.2473  1.9069
 3719SOL     OW21470   7.573   4.211   6.800  0.3382 -0.6238  0.2224
 3719SOL    HW121471   7.513   4.187   6.729 -1.8604  0.3798  1.6367
 3719SOL    HW221472   7.569   4.138   6.861  0.0238 -0.2637  0.6374
 3720SOL     OW21473   7.979   2.484  12.353  0.1796 -0.0400  0.0230
 3720SOL    HW121474   8.051   2.537  12.386  1.2152 -0.3537 -1.5982
 3720SOL    HW221475   8.005   2.394  12.372  0.1227 -0.1397 -0.3450
 3721SOL     OW21476   5.161   9.652  10.692  0.1752 -0.4114 -0.2291
 3721SOL    HW121477   5.111   9.684  10.618  1.6260  1.3097 -0.5304
 3721SOL    HW221478   5.097   9.608  10.747 -1.7066  1.7359 -0.5578
 3722SOL     OW21479   5.637  10.944  10.481  0.1013  0.0103  0.1740
 3722SOL    HW121480   5.581  10.979  10.413 -1.1755  0.7947  1.5629
 3722SOL    HW221481   5.581  10.882  10.529  0.6864  0.1321  1.0364
 3723SOL     OW21482  11.110  10.693   9.979 -0.0898 -0.5328 -0.4212
 3723SOL    HW121483  11.147  10.780   9.967  0.2596 -0.0739  3.0778
 3723SOL    HW221484  11.017  10.703   9.958  0.1787  0.3273 -1.2747
 3724SOL     OW21485  10.730  12.014   5.040 -0.6100  0.0476  0.0369
 3724SOL    HW121486  10.825  12.017   5.024 -1.2114  1.5964 -4.4603
 3724SOL    HW221487  10.717  11.933   5.089  2.8710 -0.9676 -0.4462
 3725SOL     OW21488   1.416   2.704   4.246 -0.0450 -0.4377 -0.0695
 3725SOL    HW121489   1.425   2.783   4.193 -1.9501  0.2475  0.5393
 3725SOL    HW221490   1.381   2.638   4.186  1.4005 -0.8196 -0.5397
 3726SOL     OW21491   1.172   1.130  11.586  0.6705  0.2529  0.1185
 3726SOL    HW121492   1.131   1.216  11.582  0.5316  0.2765  1.5270
 3726SOL    HW221493   1.099   1.069  11.598  0.7757 -0.0578 -0.7816
 3727SOL     OW21494  10.797  10.650  10.848 -0.0057  0.5076  0.1372
 3727SOL    HW121495  10.774  10.626  10.938 -0.5816 -1.6740 -0.5460
 3727SOL    HW221496  10.728  10.709  10.820 -0.8205 -0.2475  0.5251
 3728SOL     OW21497   5.851   0.860   4.874  0.0824  0.0774 -0.2501
 3728SOL    HW121498   5.930   0.832   4.828  0.5619 -0.5537  0.9320
 3728SOL    HW221499   5.831   0.788   4.933 -2.0130 -0.2613 -1.2740
 3729SOL     OW21500   4.821   3.358   2.476  0.0203 -0.6510  0.2331
 3729SOL    HW121501   4.795   3.338   2.566 -2.0441  1.0133  0.0726
 3729SOL    HW221502   4.797   3.279   2.426  1.8446 -1.8808  1.1571
 3730SOL     OW21503   2.079  11.113  12.526  0.0709  0.9348 -0.2302
 3730SOL    HW121504   2.024  11.103  12.448 -0.2550 -0.1920  0.1232
 3730SOL    HW221505   2.028  11.073  12.596  0.9870  0.6245  0.2727
 3731SOL     OW21506   0.803   8.286   7.571 -0.4499 -0.6385 -0.2943
 3731SOL    HW121507   0.787   8.366   7.621  1.1449  0.1843 -1.0310
 3731SOL    HW221508   0.718   8.243   7.568 -0.9496  0.0667  1.7430
 3732SOL     OW21509   2.729  11.256   7.052 -0.1050  0.6135 -0.5261
 3732SOL    HW121510   2.732  11.161   7.068  0.0660  0.6437 -0.3779
 3732SOL    HW221511   2.776  11.267   6.969 -0.4414  0.5291 -0.7320
 3733SOL     OW21512   1.974   1.837  12.342 -0.0104  0.1614 -0.2196
 3733SOL    HW121513   2.058   1.844  12.297 -0.7686  2.2214 -1.4755
 3733SOL    HW221514   1.919   1.786  12.284 -0.3529  0.9990 -0.6547
 3734SOL     OW21515   9.483   0.271   2.416  0.2803 -0.0519 -0.4265
 3734SOL    HW121516   9.475   0.176   2.429 -0.6108  0.1272  0.4920
 3734SOL    HW221517   9.478   0.307   2.505  0.1896  0.8804 -0.8028
 3735SOL     OW21518  12.065   7.025  12.439  0.4208 -0.7632 -0.7126
 3735SOL    HW121519  12.159   7.021  12.457  0.5343 -1.4802 -1.4124
 3735SOL    HW221520  12.058   6.999  12.347 -0.5437 -1.5844 -0.4151
 3736SOL     OW21521  12.606   3.447   7.537  0.1880  0.0362 -0.1156
 3736SOL    HW121522  12.611   3.456   7.442  0.4267  0.4237 -0.0672
 3736SOL    HW221523  12.574   3.358   7.551  1.7234 -0.6178 -0.5290
 3737SOL     OW21524   2.121   8.664  11.929 -0.8690  0.4573 -0.5570
 3737SOL    HW121525   2.212   8.662  11.899 -0.0191  0.5551  1.7796
 3737SOL    HW221526   2.114   8.590  11.990 -1.4753  2.0538  1.4435
 3738SOL     OW21527   9.866   0.220   3.327  0.1671 -0.3281 -0.7417
 3738SOL    HW121528   9.872   0.297   3.383  0.5561 -1.2337  0.5213
 3738SOL    HW221529   9.882   0.253   3.239  0.3183  1.0219 -0.2373
 3739SOL     OW21530   8.055   7.467   0.806  0.4413 -0.0124 -0.6513
 3739SOL    HW121531   8.074   7.558   0.782 -0.8990  0.3491 -0.4189
 3739SOL    HW221532   8.041   7.470   0.901  1.5005 -0.6705 -0.4646
 3740SOL     OW21533  11.703   8.774   4.417  0.3539  0.2870  0.2273
 3740SOL    HW121534  11.755   8.810   4.345  0.0406 -0.0922 -0.1990
 3740SOL    HW221535  11.749   8.801   4.496  1.8893 -1.0484 -0.1523
 3741SOL     OW21536   5.114   5.411   3.444 -0.4288  0.2495  0.1833
 3741SOL    HW121537   5.172   5.378   3.375 -0.3270 -1.3303  0.9649
 3741SOL    HW221538   5.027   5.414   3.404 -0.2833 -0.1524 -0.1712
 3742SOL     OW21539  10.751   7.600   0.024 -0.9209 -0.4057  0.1049
 3742SOL    HW121540  10.827   7.654   0.045 -1.1299 -0.3174  0.6460
 3742SOL    HW221541  10.786   7.511   0.020 -1.0036 -0.5428  1.6762
 3743SOL     OW21542   5.341   3.376   9.180 -0.0843  0.2333 -0.4331
 3743SOL    HW121543   5.321   3.469   9.188 -0.5007  0.0799  0.4845
 3743SOL    HW221544   5.275   3.342   9.120 -0.3561  0.4123 -0.2405
 3744SOL     OW21545  10.214   3.613   8.863  0.5071 -0.2926  0.1996
 3744SOL    HW121546  10.224   3.592   8.956 -0.9769  0.7048  0.6181
 3744SOL    HW221547  10.268   3.690   8.850 -0.2024  0.2734  0.5334
 3745SOL     OW21548   4.919   6.154   5.791  0.0572  0.0798  0.1088
 3745SOL    HW121549   4.896   6.073   5.835 -0.0168  0.4506  0.7660
 3745SOL    HW221550   5.015   6.153   5.788  0.0392 -0.4276 -0.6590
 3746SOL     OW21551   1.473   7.317   0.474  0.5621  0.0149  0.1910
 3746SOL    HW121552   1.399   7.376   0.462  0.0745 -0.7400 -0.6463
 3746SOL    HW221553   1.549   7.367   0.445  0.1746  0.2878 -0.3716
 3747SOL     OW21554   3.577  10.804   7.419  0.0482 -0.0977 -0.1873
 3747SOL    HW121555   3.612  10.745   7.352 -0.6719 -2.7126  1.5698
 3747SOL    HW221556   3.638  10.796   7.492 -0.1689  1.2387  0.1551
 3748SOL     OW21557  10.115   5.743   6.680  0.2126  0.2757 -0.0733
 3748SOL    HW121558  10.082   5.676   6.620  1.9343 -0.0836 -0.6758
 3748SOL    HW221559  10.123   5.698   6.764  1.5018 -0.3730 -0.5087
 3749SOL     OW21560   7.608   6.146   7.453  0.1086 -0.0771  0.5804
 3749SOL    HW121561   7.701   6.123   7.447  0.7252  2.2504  0.3285
 3749SOL    HW221562   7.602   6.233   7.414 -2.3488 -0.4950 -0.1533
 3750SOL     OW21563   3.248   4.950   6.848  0.9214  0.3159  0.0445
 3750SOL    HW121564   3.339   4.980   6.854  0.6365  1.0844  0.6589
 3750SOL    HW221565   3.236   4.897   6.927  0.2537  1.8826  1.0401
 3751SOL     OW21566   7.457   5.223   6.855 -0.2678 -0.5973 -0.6150
 3751SOL    HW121567   7.471   5.181   6.939  0.7987  0.3516 -0.2961
 3751SOL    HW221568   7.362   5.231   6.847 -0.3652  0.4890  1.1240
 3752SOL     OW21569   3.405   0.831   2.744 -0.3148 -0.0632  0.3043
 3752SOL    HW121570   3.486   0.831   2.693 -0.0197 -0.2572  0.7659
 3752SOL    HW221571   3.363   0.748   2.722 -0.8183  0.4155 -0.5968
 3753SOL     OW21572   9.537  10.197  11.523  0.2408 -0.6113 -0.0556
 3753SOL    HW121573   9.518  10.291  11.524 -0.4452 -0.7103 -1.6283
 3753SOL    HW221574   9.456  10.156  11.553  0.3136 -0.7286 -0.0194
 3754SOL     OW21575   4.720   9.783   4.973  0.2714  0.3064  0.0934
 3754SOL    HW121576   4.714   9.751   5.063  0.2641  0.5220  0.1700
 3754SOL    HW221577   4.673   9.717   4.921 -0.0693  0.3842  0.2980
 3755SOL     OW21578   5.917  12.025   2.757 -0.0215 -0.1019  0.1596
 3755SOL    HW121579   5.891  11.937   2.783 -0.7321  0.3726  1.1531
 3755SOL    HW221580   5.916  12.075   2.839  0.8426  0.7150 -0.3120
 3756SOL     OW21581   6.657   0.427   4.223 -0.1824 -0.7119  0.0988
 3756SOL    HW121582   6.675   0.520   4.233 -1.0281 -0.4042 -0.9862
 3756SOL    HW221583   6.715   0.399   4.151 -1.0815 -0.6256 -0.6836
 3757SOL     OW21584   3.410   3.214  12.633  0.3020 -0.0341  0.7482
 3757SOL    HW121585   3.370   3.156  12.569  0.2530 -0.7767  1.4287
 3757SOL    HW221586   3.503   3.215  12.610  0.0397  1.0237 -0.3240
 3758SOL     OW21587  11.973   3.266   3.651  0.2047 -0.4612  0.4833
 3758SOL    HW121588  12.035   3.325   3.693  0.1828 -0.5951  0.7097
 3758SOL    HW221589  11.999   3.264   3.559 -0.6588  1.0319  0.1610
 3759SOL     OW21590   0.037  12.004   0.009  0.0985 -0.3149  0.0632
 3759SOL    HW121591   0.025  11.967  -0.079  0.7866 -0.8264  0.1744
 3759SOL    HW221592   0.102  11.946   0.050  0.6023  0.5637  0.5195
 3760SOL     OW21593  11.575   8.036  12.292 -0.0540  0.1037 -0.1874
 3760SOL    HW121594  11.595   8.004  12.380  0.9920 -1.0374 -0.8103
 3760SOL    HW221595  11.526   8.117  12.307  0.1805 -0.0117  1.4352
 3761SOL     OW21596   9.899  10.668   3.168  0.7975 -0.2154 -0.1654
 3761SOL    HW121597   9.821  10.638   3.123  1.1641 -0.0187 -0.9426
 3761SOL    HW221598   9.872  10.746   3.217  0.5672 -0.0108 -0.6212
 3762SOL     OW21599   7.904   5.581   5.610  0.4857 -0.2651 -0.0247
 3762SOL    HW121600   7.861   5.496   5.599 -0.4937 -0.2120  2.5862
 3762SOL    HW221601   7.968   5.566   5.679 -0.1901  1.2299  0.9851
 3763SOL     OW21602   6.575  12.527   3.809  0.1363  0.4742 -0.2878
 3763SOL    HW121603   6.623  12.530   3.726 -1.5687 -0.4250 -1.3690
 3763SOL    HW221604   6.503  12.466   3.793 -1.0822  1.3828  1.4119
 3764SOL     OW21605  12.048   8.329  11.648 -0.4661  0.5863 -0.3138
 3764SOL    HW121606  12.088   8.245  11.627 -0.0236  0.9813 -1.0951
 3764SOL    HW221607  11.976   8.307  11.706 -0.4510 -0.3505 -0.6264
 3765SOL     OW21608  10.131   4.566   6.559  0.0320  0.3873  0.1889
 3765SOL    HW121609  10.083   4.504   6.504  1.3774 -0.5624  0.0542
 3765SOL    HW221610  10.075   4.578   6.636 -1.6112  1.3024 -1.0973
 3766SOL     OW21611   2.131   9.872   1.324  0.4587  0.6692 -0.1726
 3766SOL    HW121612   2.067   9.862   1.395 -0.1103  0.8422 -0.6521
 3766SOL    HW221613   2.082   9.915   1.254  0.6169 -0.7802 -1.2124
 3767SOL     OW21614   3.366   8.626  12.855 -0.0491 -0.7326  0.6539
 3767SOL    HW121615   3.334   8.624  12.946 -0.7012  1.0967  0.4995
 3767SOL    HW221616   3.431   8.556  12.852 -0.0787 -0.9031  2.5113
 3768SOL     OW21617   7.861   4.978   1.165 -0.0954  0.0784 -0.0189
 3768SOL    HW121618   7.883   4.888   1.188  1.1627  0.2916 -0.3297
 3768SOL    HW221619   7.910   5.032   1.227 -1.9476  0.5700  1.1103
 3769SOL     OW21620   0.266   7.834   7.879 -0.3410  0.1323 -0.1352
 3769SOL    HW121621   0.356   7.833   7.910 -0.4335 -1.4747  0.1936
 3769SOL    HW221622   0.215   7.864   7.955 -0.3641 -1.9411  0.7559
 3770SOL     OW21623   0.323   4.784   8.412 -0.2282 -0.1039 -0.2988
 3770SOL    HW121624   0.239   4.821   8.440 -0.4030 -0.8872  0.2321
 3770SOL    HW221625   0.357   4.740   8.490 -0.2353 -1.4484 -1.0369
 3771SOL     OW21626   3.363   3.369   6.222  0.4827  0.3279  0.2305
 3771SOL    HW121627   3.298   3.374   6.292  1.0463  2.2285  0.6999
 3771SOL    HW221628   3.312   3.364   6.142 -0.1869 -0.9605  0.7202
 3772SOL     OW21629  12.455   3.717   1.360  0.2613 -0.4265 -0.2246
 3772SOL    HW121630  12.443   3.628   1.327  1.9255 -0.8224  0.1445
 3772SOL    HW221631  12.469   3.706   1.454 -1.6113  0.4418  0.1995
 3773SOL     OW21632   8.904   0.133  10.519 -0.2084 -0.3423 -0.6135
 3773SOL    HW121633   8.921   0.226  10.507  0.2143 -0.2856  0.4147
 3773SOL    HW221634   8.990   0.094  10.535 -0.4316 -0.8440 -0.6124
 3774SOL     OW21635   3.023  11.046   9.729 -0.3377  0.5351 -0.5313
 3774SOL    HW121636   3.061  11.080   9.648  1.9310  0.1994  0.3268
 3774SOL    HW221637   3.000  10.955   9.709 -2.3546  1.1991 -1.5383
 3775SOL     OW21638   8.275   3.129   7.117  0.0228 -0.0703 -0.4959
 3775SOL    HW121639   8.209   3.062   7.130 -0.6290  0.7457  0.5250
 3775SOL    HW221640   8.329   3.096   7.045 -0.2398 -1.6995  0.0151
 3776SOL     OW21641  11.736   4.139   4.842 -0.3848  0.0220 -0.1372
 3776SOL    HW121642  11.706   4.160   4.931 -0.0342 -1.3374  0.3189
 3776SOL    HW221643  11.671   4.180   4.785  1.1995  3.9654  0.5595
 3777SOL     OW21644   8.049   5.984   5.980  0.0426 -0.0692  0.2402
 3777SOL    HW121645   7.957   6.011   5.976 -0.0399 -0.1003  1.5633
 3777SOL    HW221646   8.047   5.897   6.020  0.6806  0.2025  0.8927
 3778SOL     OW21647   5.913   7.768   8.885 -0.0263 -0.4554  0.2948
 3778SOL    HW121648   5.928   7.811   8.969 -0.7944 -0.2726  0.3484
 3778SOL    HW221649   5.865   7.688   8.908 -1.7666  0.4191 -0.0788
 3779SOL     OW21650   6.379  12.876  12.181  0.3635 -0.2125 -0.2316
 3779SOL    HW121651   6.347  12.797  12.138  1.0969 -1.2425  1.0540
 3779SOL    HW221652   6.323  12.886  12.258  1.3014 -0.4387  0.4999
 3780SOL     OW21653   0.886  10.535   7.358 -0.2256 -0.1113 -0.0112
 3780SOL    HW121654   0.844  10.616   7.329 -1.2475 -0.7948 -0.5398
 3780SOL    HW221655   0.881  10.477   7.281  1.6852 -0.2546 -0.0859
 3781SOL     OW21656   9.214  12.469   2.328 -0.0083 -0.0464 -0.5056
 3781SOL    HW121657   9.168  12.385   2.319  0.5055 -0.4772  0.6068
 3781SOL    HW221658   9.305  12.448   2.309  0.1613  0.1952  0.0234
 3782SOL     OW21659   5.440   9.434   7.300 -0.3560 -0.2945 -0.0349
 3782SOL    HW121660   5.402   9.355   7.338  0.0959 -0.2452  0.5369
 3782SOL    HW221661   5.378   9.503   7.322 -0.5661 -0.4260 -0.2105
 3783SOL     OW21662   2.905   6.847   7.227  0.0182  0.3710  0.2378
 3783SOL    HW121663   2.903   6.810   7.138 -0.4639 -1.4224  0.9485
 3783SOL    HW221664   2.823   6.896   7.233  0.2606  0.8822 -0.4415
 3784SOL     OW21665   8.818  10.700  12.397  0.3584  0.5630  0.1009
 3784SOL    HW121666   8.754  10.728  12.332  1.6814  1.2554 -0.9470
 3784SOL    HW221667   8.899  10.743  12.371  0.8486  1.2209  2.4525
 3785SOL     OW21668   8.507   5.709   7.580  0.0755  0.3426  0.1732
 3785SOL    HW121669   8.426   5.746   7.545 -1.1551 -2.7083 -0.4796
 3785SOL    HW221670   8.573   5.725   7.513 -0.8143 -0.0957 -0.8182
 3786SOL     OW21671   2.386   0.151  11.142 -0.3127  0.5856  0.1658
 3786SOL    HW121672   2.345   0.192  11.066  0.6837 -1.5147 -1.6182
 3786SOL    HW221673   2.419   0.224  11.194 -2.0385  2.1420 -0.7893
 3787SOL     OW21674  11.671   8.810  11.525  0.3599 -0.2696 -0.1996
 3787SOL    HW121675  11.740   8.749  11.497  0.1977 -1.2910  1.4612
 3787SOL    HW221676  11.610   8.755  11.575 -0.2623  1.1132  0.6084
 3788SOL     OW21677   0.028   1.164   9.796 -0.3756 -0.0383 -0.2325
 3788SOL    HW121678  -0.046   1.221   9.777  0.4359  1.1827  0.1436
 3788SOL    HW221679   0.076   1.209   9.865  1.1376 -0.4061 -0.9863
 3789SOL     OW21680   8.602   8.049   5.169 -0.4156 -0.4415 -0.7541
 3789SOL    HW121681   8.536   8.117   5.161 -0.3638 -0.6120 -3.7185
 3789SOL    HW221682   8.557   7.977   5.214 -0.9182  0.9163  1.0269
 3790SOL     OW21683   3.162   8.999   5.345 -0.2480  0.1257 -0.2600
 3790SOL    HW121684   3.243   8.953   5.368 -1.3187 -1.0294  1.4744
 3790SOL    HW221685   3.100   8.929   5.325 -1.5116  0.8415  0.9771
 3791SOL     OW21686   8.356  12.963   1.494 -0.0643  0.3145 -0.0791
 3791SOL    HW121687   8.302  12.884   1.506 -0.0839  0.3150 -0.1661
 3791SOL    HW221688   8.375  12.965   1.401 -2.0186  1.6805 -0.5072
 3792SOL     OW21689   3.210   4.185   9.592 -0.2714 -0.1832  0.2402
 3792SOL    HW121690   3.207   4.176   9.688 -2.1985  1.1380  0.3491
 3792SOL    HW221691   3.213   4.279   9.577  0.1231 -0.3801 -1.0212
 3793SOL     OW21692   3.286   0.882   8.098  0.4871 -0.5812  0.4439
 3793SOL    HW121693   3.262   0.800   8.054  1.8994 -1.9590  2.0604
 3793SOL    HW221694   3.306   0.943   8.027  0.3055 -1.9284 -0.8121
 3794SOL     OW21695   2.941   5.465   5.278  0.1280  0.2111 -0.1067
 3794SOL    HW121696   2.911   5.452   5.188 -1.3854  0.6477  0.3104
 3794SOL    HW221697   2.880   5.529   5.314  0.6388 -0.0594  1.2671
 3795SOL     OW21698   4.444   1.751   9.742  0.2845  0.2686 -0.1396
 3795SOL    HW121699   4.439   1.705   9.658 -1.4757  1.3934 -0.7116
 3795SOL    HW221700   4.486   1.835   9.722 -1.9799  1.4241 -0.3980
 3796SOL     OW21701  12.832   8.823   9.170 -0.4444 -0.6164  0.3370
 3796SOL    HW121702  12.851   8.897   9.227 -1.5466 -1.2722  1.6314
 3796SOL    HW221703  12.904   8.762   9.184 -0.3327 -0.4564  0.4564
 3797SOL     OW21704   5.456   1.441   4.523  0.2408  0.3736 -0.1204
 3797SOL    HW121705   5.468   1.421   4.431  0.7363  0.3634 -0.0571
 3797SOL    HW221706   5.508   1.376   4.569  1.2306  1.2948  0.1132
 3798SOL     OW21707   9.435   7.759  10.496  0.7627 -0.1258 -0.2143
 3798SOL    HW121708   9.426   7.684  10.437 -0.4506  1.2056 -1.8429
 3798SOL    HW221709   9.513   7.741  10.547  2.0101 -1.3001 -2.4016
 3799SOL     OW21710   4.485   4.343   3.718 -0.4245 -0.3587  0.2753
 3799SOL    HW121711   4.565   4.390   3.694 -0.2803 -1.6074 -1.9489
 3799SOL    HW221712   4.449   4.393   3.791  2.2604  0.3638  1.2365
 3800SOL     OW21713   8.931  12.680  12.627  0.4762  0.5594 -0.1134
 3800SOL    HW121714   8.858  12.735  12.598 -0.4660 -0.8798 -0.6076
 3800SOL    HW221715   8.940  12.699  12.720 -1.6223 -0.3571  0.3399
 3801SOL     OW21716   3.330   9.002   8.934  0.1980 -0.3123  0.0209
 3801SOL    HW121717   3.314   8.975   9.024 -2.3655 -1.1085 -0.6134
 3801SOL    HW221718   3.382   9.082   8.943 -1.4872  0.6457  2.2941
 3802SOL     OW21719   2.056   9.152   3.514  0.2154  0.4115  0.0371
 3802SOL    HW121720   1.992   9.081   3.511 -0.1262  0.5352  2.4473
 3802SOL    HW221721   2.037   9.205   3.437 -1.5114 -0.4660 -0.1742
 3803SOL     OW21722   3.130  12.209   9.050 -0.2733 -0.4150  0.3196
 3803SOL    HW121723   3.120  12.114   9.043 -0.2318 -0.3575 -0.7658
 3803SOL    HW221724   3.202  12.221   9.111 -2.2443 -0.9887  2.9674
 3804SOL     OW21725   8.544   0.787  12.287 -0.3706  0.5362 -0.2775
 3804SOL    HW121726   8.563   0.786  12.381  1.0018  1.9882 -0.4999
 3804SOL    HW221727   8.627   0.812  12.246 -1.4751  2.0935 -1.7159
 3805SOL     OW21728   2.206   7.978   3.535 -0.4387  0.5087  0.0202
 3805SOL    HW121729   2.162   7.905   3.491  1.1957 -1.1075  0.9400
 3805SOL    HW221730   2.252   8.024   3.465  1.2536 -1.3880 -0.1974
 3806SOL     OW21731  10.223   9.358   4.065 -0.0404 -0.1523  0.7618
 3806SOL    HW121732  10.291   9.367   3.999 -1.1631  1.5728 -0.2527
 3806SOL    HW221733  10.257   9.293   4.127  1.3701 -1.2903 -1.0947
 3807SOL     OW21734   6.573  11.968   8.652 -0.7884  0.2893 -0.4185
 3807SOL    HW121735   6.646  11.921   8.692  0.5668  1.4868 -1.3482
 3807SOL    HW221736   6.542  11.911   8.582 -0.4746 -0.0589 -0.2744
 3808SOL     OW21737  10.084   8.467  11.243  0.4569 -0.3809 -0.2289
 3808SOL    HW121738  10.098   8.444  11.152 -0.8873  1.5679 -0.9889
 3808SOL    HW221739  10.172   8.480  11.279  0.9630  1.7185 -2.0683
 3809SOL     OW21740  11.374   0.682  11.790  0.7925 -0.3131  0.7226
 3809SOL    HW121741  11.369   0.591  11.820  2.0441 -0.1508  1.4724
 3809SOL    HW221742  11.401   0.732  11.867  0.3479  0.6732  0.2604
 3810SOL     OW21743   2.024   5.491  10.259  0.6294  0.2821  0.0084
 3810SOL    HW121744   2.097   5.472  10.200 -0.0498  1.6977 -1.3575
 3810SOL    HW221745   1.964   5.418  10.246  0.6510  0.3990 -0.8088
 3811SOL     OW21746   6.275   9.753   9.503 -0.1289 -0.2409  0.2797
 3811SOL    HW121747   6.215   9.827   9.512  1.4067  0.7988  2.9498
 3811SOL    HW221748   6.220   9.675   9.512 -1.1230  0.6704  3.0543
 3812SOL     OW21749   2.236   5.025   5.210 -0.6033 -0.2904  0.5983
 3812SOL    HW121750   2.259   4.970   5.136  0.7282  0.9332  0.0435
 3812SOL    HW221751   2.261   4.974   5.287 -1.2159 -1.2239  0.1893
 3813SOL     OW21752   4.725  12.285   8.232 -0.1846  0.4376  0.0957
 3813SOL    HW121753   4.761  12.254   8.149  0.6594  0.7417  0.3312
 3813SOL    HW221754   4.635  12.253   8.234  0.1278 -0.4939 -0.4502
 3814SOL     OW21755   2.140   2.849   3.878  0.5393 -0.4014  0.2040
 3814SOL    HW121756   2.195   2.926   3.892  1.0368 -0.3459 -1.7329
 3814SOL    HW221757   2.133   2.841   3.783 -0.1130 -2.3335  0.3564
 3815SOL     OW21758   8.949   4.837   5.906 -0.2640 -0.4379  0.1725
 3815SOL    HW121759   8.967   4.927   5.932  2.0530 -0.4558 -1.1299
 3815SOL    HW221760   8.980   4.784   5.980  2.7352 -0.3126 -0.8730
 3816SOL     OW21761   2.900   6.467   0.566 -0.1956  0.6355 -0.0929
 3816SOL    HW121762   2.812   6.479   0.603  0.1883 -0.6674  1.3306
 3816SOL    HW221763   2.959   6.508   0.629  0.2753  0.7701 -0.6169
 3817SOL     OW21764  11.690   1.465   3.072 -0.1978 -0.2013  0.8315
 3817SOL    HW121765  11.715   1.411   3.147  0.8089  0.4361  0.9725
 3817SOL    HW221766  11.672   1.551   3.110 -1.2149 -0.2698  0.5342
 3818SOL     OW21767  11.689   5.938   9.924  0.2610 -0.0715 -0.1839
 3818SOL    HW121768  11.722   5.881   9.854  1.5218 -0.3259  0.5901
 3818SOL    HW221769  11.714   5.894  10.005 -2.6811 -0.6514  0.5050
 3819SOL     OW21770   5.705  12.568   9.863  0.0157  0.3044  0.5144
 3819SOL    HW121771   5.716  12.663   9.857  0.8866  0.1227 -1.8862
 3819SOL    HW221772   5.792  12.534   9.880  0.3322 -0.1898 -1.7646
 3820SOL     OW21773   3.279   1.550   3.851  0.2391  0.0716  0.0276
 3820SOL    HW121774   3.291   1.569   3.758  2.7140  0.9121  0.4259
 3820SOL    HW221775   3.311   1.629   3.895  1.7229 -1.3319  1.6014
 3821SOL     OW21776   8.097   0.682   3.170 -0.5817 -0.4612  0.0132
 3821SOL    HW121777   8.099   0.648   3.080 -0.8464 -0.8710  0.1641
 3821SOL    HW221778   8.014   0.652   3.206 -1.2992  1.1989 -0.1770
 3822SOL     OW21779   5.079   1.893   0.140 -0.1070 -0.2241  0.0211
 3822SOL    HW121780   5.167   1.888   0.101 -0.7608  0.4446 -1.6154
 3822SOL    HW221781   5.030   1.949   0.080 -1.5274 -0.1992  1.1795
 3823SOL     OW21782   2.677  10.048   5.274  0.6864  0.2396 -0.0966
 3823SOL    HW121783   2.581  10.057   5.278  0.7682  0.8955  0.7041
 3823SOL    HW221784   2.709  10.112   5.337  1.5861 -1.3826  1.1605
 3824SOL     OW21785   9.887  11.887   8.085  0.4909  0.6623 -0.3386
 3824SOL    HW121786   9.815  11.932   8.041 -0.1657  1.1383  1.1659
 3824SOL    HW221787   9.852  11.800   8.106  0.0433  1.1653  1.0992
 3825SOL     OW21788   6.691   5.486   1.257  0.0272  0.3638 -0.2482
 3825SOL    HW121789   6.662   5.494   1.347 -0.5008 -1.0965 -0.2578
 3825SOL    HW221790   6.732   5.570   1.237 -0.2789  0.8792  1.1835
 3826SOL     OW21791   6.532   2.147   6.761 -0.1378 -0.0019  0.6574
 3826SOL    HW121792   6.537   2.132   6.855  4.0494  1.9797  0.9547
 3826SOL    HW221793   6.502   2.064   6.725 -0.2028 -1.3711  3.5879
 3827SOL     OW21794   1.231  10.457   7.256 -0.2037  0.0764 -0.5984
 3827SOL    HW121795   1.322  10.484   7.264  0.4520 -2.2729  0.9427
 3827SOL    HW221796   1.181  10.521   7.307  0.9222  0.0008  0.6503
 3828SOL     OW21797  10.719   7.660   7.067  0.6789 -0.3160  0.4339
 3828SOL    HW121798  10.717   7.708   6.984 -0.5296  2.0758  1.7098
 3828SOL    HW221799  10.649   7.595   7.059  0.5309 -0.0661 -0.3931
 3829SOL     OW21800  11.726   3.913   1.364 -0.0820 -0.3551  0.7738
 3829SOL    HW121801  11.748   3.985   1.306 -0.7250 -0.1071  0.8270
 3829SOL    HW221802  11.746   3.946   1.452  1.8382 -1.0822  0.6505
 3830SOL     OW21803  10.215   0.791   8.992 -0.1530  0.3766  0.4233
 3830SOL    HW121804  10.288   0.774   9.052 -1.3532  0.7864  2.0812
 3830SOL    HW221805  10.218   0.886   8.977 -0.1288  0.3425  0.2153
 3831SOL     OW21806   7.823   6.771   7.534 -0.1431 -0.2851  0.2474
 3831SOL    HW121807   7.812   6.683   7.570 -1.9054 -0.1567  0.1120
 3831SOL    HW221808   7.767   6.826   7.589  2.1882  1.1152  1.4169
 3832SOL     OW21809   6.781   1.220   1.812  0.2896 -0.3238  0.2222
 3832SOL    HW121810   6.770   1.277   1.888 -0.3550  1.2989 -1.0396
 3832SOL    HW221811   6.876   1.206   1.807  0.4119  0.1986  0.8474
 3833SOL     OW21812   7.291  10.612   4.331  0.1315  0.8242  0.1402
 3833SOL    HW121813   7.269  10.535   4.278 -1.4239  2.0341 -1.0824
 3833SOL    HW221814   7.386  10.621   4.324  0.2132 -0.3997 -0.4933
 3834SOL     OW21815   3.920  10.255  12.374  0.3803 -0.5109 -0.0697
 3834SOL    HW121816   3.880  10.283  12.292  1.2934 -1.0790 -0.7360
 3834SOL    HW221817   3.921  10.334  12.429 -1.0739 -0.3554 -0.2486
 3835SOL     OW21818   8.565   9.153  11.623 -0.2664 -0.2991  0.4462
 3835SOL    HW121819   8.563   9.092  11.697  1.5122  1.3997  2.0220
 3835SOL    HW221820   8.656   9.150  11.592 -0.3536  0.8974  0.0210
 3836SOL     OW21821   7.972   9.037   6.783 -0.3850  0.9587 -0.3538
 3836SOL    HW121822   8.045   9.078   6.737 -0.9051  1.0901 -1.0947
 3836SOL    HW221823   7.946   8.964   6.727  0.5715 -0.4718  0.9821
 3837SOL     OW21824  11.540   3.088   6.634  0.4550 -0.8060  0.4632
 3837SOL    HW121825  11.497   3.171   6.654 -1.5297 -1.7271  0.2278
 3837SOL    HW221826  11.614   3.113   6.578  1.3168  0.9893  2.2615
 3838SOL     OW21827  12.788  11.899   1.111 -0.1627  0.1367 -0.9081
 3838SOL    HW121828  12.833  11.875   1.192 -1.8788  0.4048  0.1711
 3838SOL    HW221829  12.859  11.914   1.048  1.2934  1.0909  0.8469
 3839SOL     OW21830   6.607   1.736   3.460 -0.1772  0.0205 -0.5122
 3839SOL    HW121831   6.560   1.731   3.543 -0.5232  0.5714 -0.6677
 3839SOL    HW221832   6.670   1.664   3.463  0.2377  0.4077  0.4802
 3840SOL     OW21833   5.620   8.815   5.032 -0.1196 -0.1943 -0.2949
 3840SOL    HW121834   5.667   8.818   4.949  2.8624  0.7762  1.3023
 3840SOL    HW221835   5.563   8.892   5.030  2.0807  1.5055 -0.3104
 3841SOL     OW21836   2.555   8.623  12.307 -0.6081 -0.3327 -0.1312
 3841SOL    HW121837   2.587   8.577  12.229  0.1090  1.4679 -0.9535
 3841SOL    HW221838   2.634   8.650  12.353 -0.9154  1.7468 -0.7181
 3842SOL     OW21839   9.206   7.797   3.738  0.1340  0.0274  0.0136
 3842SOL    HW121840   9.183   7.730   3.673  1.3765 -0.3836 -0.0182
 3842SOL    HW221841   9.240   7.870   3.687  0.1049  0.1267  0.1367
 3843SOL     OW21842   2.345   4.671   9.971 -0.4040 -0.5414  0.1901
 3843SOL    HW121843   2.349   4.590  10.021  1.0894 -0.5677  0.0590
 3843SOL    HW221844   2.298   4.647   9.891 -0.6699 -1.0728  0.4956
 3844SOL     OW21845   0.665  12.218   4.346  0.0928  0.0001  0.4699
 3844SOL    HW121846   0.652  12.229   4.440 -0.3433 -0.1340  0.4271
 3844SOL    HW221847   0.634  12.130   4.327  1.2318 -0.4099  0.3846
 3845SOL     OW21848  11.374   7.726  12.565  0.1038  0.0447  0.1056
 3845SOL    HW121849  11.414   7.741  12.651 -0.3953 -1.9787  0.7596
 3845SOL    HW221850  11.448   7.725  12.505  0.9830 -2.2261  1.0977
 3846SOL     OW21851   0.869   9.530  10.706 -0.0076  0.6033  0.0386
 3846SOL    HW121852   0.843   9.590  10.636 -0.7697 -0.5414 -0.6984
 3846SOL    HW221853   0.911   9.457  10.660 -0.2724 -0.0396  0.7945
 3847SOL     OW21854   6.017   2.721   0.613 -0.2901 -0.4802  0.2207
 3847SOL    HW121855   6.066   2.667   0.551 -0.6586  0.3999 -0.8748
 3847SOL    HW221856   6.082   2.751   0.676  0.3551 -0.2907 -0.5280
 3848SOL     OW21857  10.063   8.851  12.113  0.1926 -0.5780 -0.3852
 3848SOL    HW121858  10.066   8.761  12.144  0.6552 -0.0131  1.3342
 3848SOL    HW221859  10.016   8.846  12.030  0.3707 -2.4120 -0.4267
 3849SOL     OW21860   0.702   1.592   5.167  0.1296  0.4685  0.5385
 3849SOL    HW121861   0.698   1.503   5.133 -0.8867  0.2994  1.0672
 3849SOL    HW221862   0.714   1.647   5.089  2.0276 -0.1917  0.3186
 3850SOL     OW21863   8.065   1.192  12.887  0.1564  0.5363 -0.1108
 3850SOL    HW121864   8.062   1.105  12.847 -1.4456  0.8846 -0.8202
 3850SOL    HW221865   8.145   1.192  12.938  0.0757 -1.4352  0.0790
 3851SOL     OW21866  12.589   1.018   2.157 -0.2210  0.2678  0.2731
 3851SOL    HW121867  12.566   1.098   2.204  3.3825  0.5452  1.8504
 3851SOL    HW221868  12.632   1.049   2.077  1.4529 -0.0026  1.0273
 3852SOL     OW21869   9.336   9.220   6.928  0.2070  0.3298  0.4612
 3852SOL    HW121870   9.265   9.157   6.913  1.8985 -1.4594 -0.5893
 3852SOL    HW221871   9.291   9.303   6.945 -2.1255 -0.8278  0.4484
 3853SOL     OW21872   5.375  12.292   2.806  0.9780  0.2483 -0.1005
 3853SOL    HW121873   5.467  12.269   2.822  1.1092  0.4122 -0.6177
 3853SOL    HW221874   5.368  12.382   2.837  0.9779  0.2205 -0.0195
 3854SOL     OW21875   9.827  12.525   4.685  0.1589  0.3777 -0.1209
 3854SOL    HW121876   9.747  12.530   4.737 -0.2775  3.1735 -0.9096
 3854SOL    HW221877   9.797  12.492   4.600  0.1712 -0.2027  0.0916
 3855SOL     OW21878   9.426   3.515   7.681  0.2146 -0.0213 -0.5041
 3855SOL    HW121879   9.363   3.557   7.741 -1.2997 -0.7300 -1.5236
 3855SOL    HW221880   9.371   3.475   7.613  1.8483  0.2511 -2.0502
 3856SOL     OW21881  11.160  12.282  10.788  0.3728 -0.0458  0.1678
 3856SOL    HW121882  11.213  12.355  10.756 -0.6388  0.7133  0.1727
 3856SOL    HW221883  11.165  12.216  10.719 -1.0730  1.2268 -1.2453
 3857SOL     OW21884   3.469  11.430  11.815 -0.0678 -0.0191  0.1494
 3857SOL    HW121885   3.395  11.483  11.786  0.1720  0.0982 -0.2542
 3857SOL    HW221886   3.437  11.340  11.811 -0.0765  0.0033 -0.3787
 3858SOL     OW21887   3.710   8.394  12.328 -0.4921  0.2998 -0.0442
 3858SOL    HW121888   3.689   8.331  12.397 -1.1355 -1.3002 -1.6347
 3858SOL    HW221889   3.682   8.478  12.363 -1.1031 -0.5158  1.5045
 3859SOL     OW21890   3.608   8.494   0.230  0.1634 -0.4377  0.6897
 3859SOL    HW121891   3.568   8.548   0.161 -1.7337 -0.9619  1.3247
 3859SOL    HW221892   3.566   8.409   0.221  1.0095 -0.9607  1.5560
 3860SOL     OW21893   0.280   9.733  10.302  0.4683 -0.1573  0.5766
 3860SOL    HW121894   0.359   9.778  10.332  1.0058 -1.0971  0.6167
 3860SOL    HW221895   0.211   9.799  10.305  1.1576  0.5477  0.9960
 3861SOL     OW21896  12.350   7.542   5.430  0.4884  0.5285  0.2780
 3861SOL    HW121897  12.435   7.582   5.414  0.4958 -0.1035 -1.3779
 3861SOL    HW221898  12.368   7.448   5.436 -0.1433  0.3340 -0.6387
 3862SOL     OW21899   7.980   8.427  10.005  0.8020  0.1258  0.0038
 3862SOL    HW121900   7.894   8.408  10.042  0.3570 -0.7430 -1.4020
 3862SOL    HW221901   8.041   8.412  10.078 -0.1422 -0.1268  0.7677
 3863SOL     OW21902   1.201   8.232   8.431  0.8418  0.3009  0.0750
 3863SOL    HW121903   1.173   8.319   8.402  0.8040  0.4073  0.4146
 3863SOL    HW221904   1.209   8.181   8.351 -2.6397 -0.4485  0.0429
 3864SOL     OW21905   8.826  10.373   3.990 -0.3196  0.7236 -0.6119
 3864SOL    HW121906   8.789  10.307   3.931  1.9444 -1.8669  0.6522
 3864SOL    HW221907   8.819  10.335   4.077 -1.3961  3.4139  0.5857
 3865SOL     OW21908   0.678  10.763   8.481  0.1561  0.5521 -0.1760
 3865SOL    HW121909   0.742  10.764   8.552 -0.1715 -2.0394  0.2513
 3865SOL    HW221910   0.731  10.767   8.401  0.7848 -0.3544  0.1882
 3866SOL     OW21911  10.125  10.588   3.567 -0.2435 -0.0156 -0.8672
 3866SOL    HW121912  10.126  10.522   3.637 -0.7425 -1.1119 -1.8564
 3866SOL    HW221913  10.047  10.567   3.516  0.0336  0.8639 -1.6725
 3867SOL     OW21914   8.899  11.981   5.591  0.0882 -0.4554 -0.6252
 3867SOL    HW121915   8.977  12.037   5.591  0.5614 -1.1108 -0.6375
 3867SOL    HW221916   8.903  11.934   5.674  0.2271 -1.2160 -1.0623
 3868SOL     OW21917  10.469  10.846   4.286 -0.3345  0.4969  0.5204
 3868SOL    HW121918  10.426  10.931   4.298  0.5226  0.7713  1.8502
 3868SOL    HW221919  10.555  10.857   4.327  0.3481 -0.5808 -0.5617
 3869SOL     OW21920   8.379   2.836   7.405 -0.3099 -0.4916  0.7416
 3869SOL    HW121921   8.469   2.809   7.420  0.8073  2.2517 -0.2811
 3869SOL    HW221922   8.348   2.865   7.492  1.0705  1.7501  0.5729
 3870SOL     OW21923   8.415   6.056   3.043  0.3281  0.1160 -1.1030
 3870SOL    HW121924   8.490   5.997   3.033  1.1876  0.7435  1.0160
 3870SOL    HW221925   8.343   6.000   3.069  0.8504 -0.1630 -0.2213
 3871SOL     OW21926   9.552   9.882   8.298  1.0044  0.1455  0.2832
 3871SOL    HW121927   9.541   9.907   8.206  2.6127  2.2963  0.6132
 3871SOL    HW221928   9.478   9.824   8.315 -1.8579  2.9998 -1.2241
 3872SOL     OW21929   9.013   7.567   5.627  0.2321 -0.2088 -0.5789
 3872SOL    HW121930   8.970   7.482   5.612  0.4223 -0.1925 -1.2660
 3872SOL    HW221931   9.104   7.544   5.643  0.2718 -0.1376 -0.7071
 3873SOL     OW21932  12.951  10.564   3.371 -0.3484  0.4185  0.6145
 3873SOL    HW121933  13.045  10.543   3.369 -0.0600  1.5924  0.9420
 3873SOL    HW221934  12.917  10.513   3.444  0.4102  1.3350  1.6569
 3874SOL     OW21935  10.503   1.772  10.250 -0.3771  0.0677 -0.0509
 3874SOL    HW121936  10.440   1.767  10.177  1.1471 -0.1525 -1.4032
 3874SOL    HW221937  10.519   1.865  10.262 -0.2475  0.0828 -0.3420
 3875SOL     OW21938   7.717   2.526   6.920  0.1031  0.1979 -0.5178
 3875SOL    HW121939   7.623   2.514   6.928  0.3712 -1.5231  0.6892
 3875SOL    HW221940   7.741   2.583   6.994 -0.0294  1.0990 -1.1471
 3876SOL     OW21941  11.180   8.368  11.392 -0.0243  0.1617 -0.1671
 3876SOL    HW121942  11.250   8.339  11.334  0.1962 -1.3491  0.8002
 3876SOL    HW221943  11.225   8.407  11.467 -0.2964  1.4897 -0.6640
 3877SOL     OW21944   3.209   2.963   3.119  0.3241 -0.4509  0.5852
 3877SOL    HW121945   3.200   2.871   3.095  1.5306 -1.0211  2.1371
 3877SOL    HW221946   3.296   2.987   3.088 -0.1458  0.3094 -0.1779
 3878SOL     OW21947   3.913   7.374   8.195 -0.1181 -0.1691  0.0356
 3878SOL    HW121948   3.846   7.357   8.129 -0.4370  1.4880 -0.1176
 3878SOL    HW221949   3.986   7.412   8.145 -0.7743  2.1199  0.6934
 3879SOL     OW21950  11.726  11.267  12.947 -0.4777 -0.3850 -0.3534
 3879SOL    HW121951  11.749  11.292  12.858  1.6418  0.2497  0.3116
 3879SOL    HW221952  11.631  11.279  12.951 -0.4327  1.0097 -2.0840
 3880SOL     OW21953  12.234  10.073   3.522  0.3230  0.5483 -0.1297
 3880SOL    HW121954  12.325  10.050   3.505 -0.3870 -1.5299 -1.4468
 3880SOL    HW221955  12.238  10.164   3.551  2.9463  0.0714  1.4068
 3881SOL     OW21956   7.245   5.422   6.597  1.0138 -0.1997  0.1615
 3881SOL    HW121957   7.247   5.421   6.501  1.2903 -0.6619  0.1688
 3881SOL    HW221958   7.251   5.330   6.622 -1.5214 -0.3244  0.5941
 3882SOL     OW21959   9.078   6.639   2.266  0.2427  0.5315  0.6838
 3882SOL    HW121960   9.150   6.601   2.215  2.1911  1.8097  2.3087
 3882SOL    HW221961   8.999   6.607   2.224  1.7539 -1.6568 -0.6829
 3883SOL     OW21962   5.239   0.242   6.104  0.1757  0.1645  0.3106
 3883SOL    HW121963   5.192   0.160   6.118  1.9225 -0.9371  0.0321
 3883SOL    HW221964   5.190   0.286   6.035 -0.6960 -0.7239  0.3406
 3884SOL     OW21965   9.603   4.326   6.266  0.5073  0.5232 -0.4392
 3884SOL    HW121966   9.556   4.402   6.298 -0.4954 -0.6401  1.0023
 3884SOL    HW221967   9.692   4.336   6.301  0.4249  1.1055 -0.3919
 3885SOL     OW21968  10.936  12.016   7.919  0.8660 -0.1077  0.2625
 3885SOL    HW121969  10.885  12.057   7.849 -0.3429 -1.5059  0.2671
 3885SOL    HW221970  10.872  11.998   7.988  1.3035 -2.0380  0.2192
 3886SOL     OW21971   9.228   1.091   0.400  0.1156  0.4025  0.1902
 3886SOL    HW121972   9.304   1.068   0.347  0.7977 -0.3076  1.4294
 3886SOL    HW221973   9.193   1.171   0.359 -0.1306 -0.7570 -2.0301
 3887SOL     OW21974   8.432  10.564   9.369  0.1751  0.1464 -0.2679
 3887SOL    HW121975   8.526  10.582   9.372  0.0026  1.7703 -2.2734
 3887SOL    HW221976   8.425  10.469   9.365  1.7824  0.0383 -1.0895
 3888SOL     OW21977  12.433   1.164  10.028  0.1468  0.1858  0.4671
 3888SOL    HW121978  12.418   1.070  10.027 -0.3436  0.2643 -0.0667
 3888SOL    HW221979  12.415   1.192   9.938  0.0479  0.8255  0.6820
 3889SOL     OW21980   2.536   1.520   9.622  0.0733  0.0543 -0.5061
 3889SOL    HW121981   2.581   1.509   9.538  0.9138 -0.0939 -0.0475
 3889SOL    HW221982   2.468   1.453   9.622  1.0693 -0.9907 -0.4300
 3890SOL     OW21983   4.772   9.957   7.668  0.1325  0.2725 -0.9950
 3890SOL    HW121984   4.833  10.011   7.718 -0.5325 -0.1672  0.3300
 3890SOL    HW221985   4.687   9.999   7.681 -0.0465  0.1935 -1.8439
 3891SOL     OW21986   5.426   0.270   7.824 -0.5876  0.9591  0.1468
 3891SOL    HW121987   5.506   0.237   7.865 -0.8954  1.4069  1.1133
 3891SOL    HW221988   5.360   0.205   7.845 -0.4595  0.5116 -0.7823
 3892SOL     OW21989   9.869   6.507   7.523 -0.8846  0.0268 -0.0485
 3892SOL    HW121990   9.802   6.460   7.472  0.0249 -1.5055  0.1318
 3892SOL    HW221991   9.869   6.464   7.608 -0.1049  0.4280  0.1583
 3893SOL     OW21992   6.732   9.766   1.158  0.2209  0.3942  1.0655
 3893SOL    HW121993   6.664   9.786   1.222 -1.1948 -0.3180 -0.1739
 3893SOL    HW221994   6.685   9.734   1.081  2.0553 -2.8788  1.1213
 3894SOL     OW21995   4.306   6.312   6.568 -0.1714  0.1183  0.2998
 3894SOL    HW121996   4.375   6.266   6.615 -0.3151  0.5249  0.9199
 3894SOL    HW221997   4.350   6.349   6.491  0.0471 -0.6145  0.0647
 3895SOL     OW21998   0.538   2.713   5.962  0.1262 -0.1169 -0.0966
 3895SOL    HW121999   0.568   2.751   6.045  0.1635  1.9945 -1.0075
 3895SOL    HW222000   0.558   2.620   5.970  1.1506  0.2061  1.8213
 3896SOL     OW22001   6.457   2.025  12.866 -0.5476  0.1114  0.1493
 3896SOL    HW122002   6.464   2.043  12.772  1.7287 -0.2088  0.2206
 3896SOL    HW222003   6.504   2.097  12.908 -1.8738  0.4589  1.1109
 3897SOL     OW22004   0.859   8.318   5.366  0.2501  0.2694 -0.3261
 3897SOL    HW122005   0.933   8.275   5.322  0.2595 -0.3483  0.2780
 3897SOL    HW222006   0.826   8.252   5.427 -0.4726  0.7275 -0.2171
 3898SOL     OW22007  12.617   7.427  10.778  0.3664 -0.1322 -0.1339
 3898SOL    HW122008  12.706   7.405  10.750  0.8063 -0.1961  1.2434
 3898SOL    HW222009  12.629   7.483  10.854 -0.7800 -0.0033 -0.0333
 3899SOL     OW22010  11.883   6.659  11.127 -0.3823 -0.8692  0.2314
 3899SOL    HW122011  11.871   6.564  11.126 -1.6173 -0.7374  0.9571
 3899SOL    HW222012  11.974   6.672  11.100  0.1203 -2.3120  1.1274
 3900SOL     OW22013  11.452   6.575   2.237  0.6462  0.2505  0.6052
 3900SOL    HW122014  11.543   6.564   2.210 -0.1714 -3.0653 -1.4649
 3900SOL    HW222015  11.455   6.568   2.333  2.4947 -0.9802  0.5289
 3901SOL     OW22016   5.489   1.908   1.949  1.2486 -0.5643 -0.3556
 3901SOL    HW122017   5.484   1.853   1.871  1.4652 -1.4457  0.2345
 3901SOL    HW222018   5.434   1.864   2.014  2.9607 -1.1803  0.7533
 3902SOL     OW22019   1.172   7.177  12.903  0.1104 -0.1161  0.0070
 3902SOL    HW122020   1.140   7.120  12.973  1.1923  0.0641  0.6817
 3902SOL    HW222021   1.102   7.240  12.889 -0.5421 -0.7828  0.2065
 3903SOL     OW22022  12.773   9.060   7.264  0.3111  0.0512  0.5485
 3903SOL    HW122023  12.819   9.108   7.195  0.9364  1.1652  1.7040
 3903SOL    HW222024  12.840   9.041   7.329 -0.5086  0.0807  1.4167
 3904SOL     OW22025   6.059   8.049   6.491  0.0148  0.7195  0.6655
 3904SOL    HW122026   6.051   8.082   6.401 -0.0972 -1.4356 -0.1625
 3904SOL    HW222027   6.127   8.104   6.530 -0.6936  2.4156 -0.3552
 3905SOL     OW22028  11.749  12.817   6.506 -0.6214 -0.0403 -0.3802
 3905SOL    HW122029  11.654  12.826   6.513 -0.6241  2.2962 -2.1885
 3905SOL    HW222030  11.761  12.742   6.447 -1.2080 -1.6816  1.4764
 3906SOL     OW22031   2.017  11.925  10.111 -0.0767 -0.5585 -0.5394
 3906SOL    HW122032   2.099  11.875  10.108  0.0195 -0.3780 -0.9624
 3906SOL    HW222033   1.956  11.874  10.057 -0.1053 -0.4471 -0.6120
 3907SOL     OW22034   7.173  11.377   0.104 -0.1265  0.0392  0.0454
 3907SOL    HW122035   7.214  11.400   0.187 -0.1449  1.4334 -0.2923
 3907SOL    HW222036   7.081  11.362   0.126 -0.2683  1.0430  0.2131
 3908SOL     OW22037   3.536   4.053   2.649  0.8492 -0.6562  0.4683
 3908SOL    HW122038   3.571   3.964   2.659  2.8454 -0.3133 -2.3271
 3908SOL    HW222039   3.536   4.068   2.554 -1.6243  1.5352  0.7212
 3909SOL     OW22040   7.751  12.762   4.435 -0.3705  0.2586 -0.1912
 3909SOL    HW122041   7.719  12.794   4.519 -1.1017  2.8035 -1.3715
 3909SOL    HW222042   7.824  12.820   4.413  1.3302 -1.7780 -0.3461
 3910SOL     OW22043   7.876  10.323   6.372 -0.8380 -0.4650 -0.1415
 3910SOL    HW122044   7.868  10.406   6.418 -0.6684 -0.5267  0.0014
 3910SOL    HW222045   7.800  10.272   6.400 -0.2849 -0.8256  0.7519
 3911SOL     OW22046   6.108  11.844   8.651 -0.3722 -0.0844 -0.3199
 3911SOL    HW122047   6.130  11.912   8.587 -0.4876  0.0469 -0.2220
 3911SOL    HW222048   6.016  11.859   8.671 -0.9418 -1.4684 -1.7401
 3912SOL     OW22049  12.503   2.673   2.313  0.3748  0.1235 -0.1577
 3912SOL    HW122050  12.486   2.641   2.401 -1.4106  2.3739  0.4439
 3912SOL    HW222051  12.597   2.691   2.310  0.4755 -0.1435  1.2406
 3913SOL     OW22052  12.288   7.299   7.046 -0.5577  0.5335 -0.1081
 3913SOL    HW122053  12.330   7.215   7.027 -0.9911  0.2376  0.2171
 3913SOL    HW222054  12.333   7.362   6.990 -1.9796 -0.3409 -2.3876
 3914SOL     OW22055   4.286   4.423   5.522 -0.4258  0.1098 -0.1191
 3914SOL    HW122056   4.317   4.481   5.452 -0.9233  1.6342  0.8785
 3914SOL    HW222057   4.216   4.372   5.482  0.5112 -0.3411 -1.2236
 3915SOL     OW22058   0.729   2.086   7.504 -0.3156  0.3290 -0.0114
 3915SOL    HW122059   0.723   2.030   7.582 -0.0585  1.5852  0.9378
 3915SOL    HW222060   0.643   2.080   7.463 -0.1834 -1.0374 -0.1383
 3916SOL     OW22061   2.949   3.463  11.139 -0.2985  0.8985  0.0218
 3916SOL    HW122062   2.914   3.387  11.186  0.1845  0.5994 -0.0912
 3916SOL    HW222063   2.890   3.535  11.162 -0.4377  0.6146  0.5769
 3917SOL     OW22064  10.109   4.125   4.247  0.1403  0.0859  0.2734
 3917SOL    HW122065  10.084   4.196   4.306  1.3027  0.4776  0.3254
 3917SOL    HW222066  10.054   4.051   4.273  0.6728  0.2287  1.9119
 3918SOL     OW22067   5.001  10.897   4.585  0.0529 -0.3097 -0.0747
 3918SOL    HW122068   4.927  10.860   4.536  0.3904  0.4432 -1.2114
 3918SOL    HW222069   5.021  10.979   4.539  0.8688  0.0575  0.9019
 3919SOL     OW22070   2.398   1.028   3.538  0.1333  0.5463 -0.2324
 3919SOL    HW122071   2.437   1.010   3.452 -0.8946  0.7831 -0.7700
 3919SOL    HW222072   2.308   1.056   3.518 -0.9817 -1.8234  1.0194
 3920SOL     OW22073   7.345   9.291   5.523  0.5738 -0.2477 -0.3074
 3920SOL    HW122074   7.314   9.215   5.474  1.6823 -0.1162 -1.2536
 3920SOL    HW222075   7.421   9.323   5.474  0.0666  1.5544 -0.0082
 3921SOL     OW22076   8.039   3.095   3.585  0.4582 -0.2075  0.6545
 3921SOL    HW122077   8.068   3.006   3.569 -0.2504 -0.2967 -0.2210
 3921SOL    HW222078   8.118   3.143   3.610  0.8632 -1.0387  0.9796
 3922SOL     OW22079   5.361   1.639   8.103  0.4119  0.0361 -0.1364
 3922SOL    HW122080   5.353   1.676   8.015  0.5811 -1.9992 -1.0524
 3922SOL    HW222081   5.387   1.713   8.158 -0.6136  1.5438 -1.6089
 3923SOL     OW22082   9.287  10.557   2.165  0.1737 -0.3500 -0.1116
 3923SOL    HW122083   9.222  10.578   2.098  1.1119  0.4578 -0.8019
 3923SOL    HW222084   9.237  10.515   2.235 -0.6060 -3.0592 -2.1161
 3924SOL     OW22085   5.726  11.199   6.589  0.1919 -0.0883 -0.0522
 3924SOL    HW122086   5.782  11.236   6.521 -1.9122 -0.5961 -2.1596
 3924SOL    HW222087   5.646  11.250   6.586  0.3129  0.4637  2.7531
 3925SOL     OW22088   0.960   2.105   5.832  0.7529  0.4145 -1.0796
 3925SOL    HW122089   0.972   2.078   5.922  1.9304  0.8155 -1.0954
 3925SOL    HW222090   0.971   2.025   5.780 -0.2637  0.1202 -0.8635
 3926SOL     OW22091   5.341   2.494   2.338  0.0036 -0.1978  0.1262
 3926SOL    HW122092   5.412   2.557   2.331  0.2640 -0.6302 -1.7332
 3926SOL    HW222093   5.354   2.452   2.423  1.9857 -0.2738 -0.1692
 3927SOL     OW22094   2.303   0.024   3.914 -0.1008  0.1737 -0.0337
 3927SOL    HW122095   2.321   0.110   3.877 -1.2799 -0.1533 -1.4284
 3927SOL    HW222096   2.258   0.042   3.997 -0.0949  0.8937 -0.1859
 3928SOL     OW22097   7.873  10.220  12.600 -0.1896 -0.6193 -0.8545
 3928SOL    HW122098   7.798  10.259  12.645  0.2205 -0.0824 -0.6221
 3928SOL    HW222099   7.866  10.126  12.618 -0.1286 -0.4339  0.1945
 3929SOL     OW22100   5.996   8.860   9.003  0.3563 -0.6443  0.2397
 3929SOL    HW122101   5.988   8.855   8.908 -1.8876 -3.0639  0.4350
 3929SOL    HW222102   5.988   8.769   9.032 -1.1489  0.2179  2.8379
 3930SOL     OW22103   9.678   3.646   2.248 -0.4739 -0.6385  0.3548
 3930SOL    HW122104   9.754   3.697   2.221 -0.9748  0.6035  1.1957
 3930SOL    HW222105   9.691   3.631   2.342 -1.6734  0.4153  0.7288
 3931SOL     OW22106   7.556  10.629  11.906 -0.5363 -0.2959  0.3471
 3931SOL    HW122107   7.603  10.557  11.864  0.6341  0.1319  0.8739
 3931SOL    HW222108   7.522  10.591  11.987 -1.7933 -0.8084 -0.3943
 3932SOL     OW22109   0.970   2.446   7.260  0.0706 -0.0082 -0.0675
 3932SOL    HW122110   0.952   2.420   7.350  2.5988  1.0845  0.8368
 3932SOL    HW222111   1.047   2.395   7.235  0.4132  0.9234 -0.9984
 3933SOL     OW22112  12.748   4.341   1.629 -0.6917 -0.5205 -0.2471
 3933SOL    HW122113  12.689   4.395   1.577 -0.6886  0.1860  0.4661
 3933SOL    HW222114  12.835   4.364   1.598 -0.7458 -1.0493 -0.8125
 3934SOL     OW22115   1.346   1.955   5.912  1.0412  0.2790 -0.5746
 3934SOL    HW122116   1.324   2.035   5.865 -1.7578  1.2072  1.9603
 3934SOL    HW222117   1.391   1.985   5.991 -0.9885 -0.3812  0.9484
 3935SOL     OW22118   4.461   1.199   2.095  0.3783  0.0040  0.1328
 3935SOL    HW122119   4.531   1.143   2.128  0.1228 -0.4332 -0.0617
 3935SOL    HW222120   4.442   1.167   2.007 -0.7172 -0.5096  0.5316
 3936SOL     OW22121   9.326  12.240   3.852 -0.2464 -0.2979 -0.0169
 3936SOL    HW122122   9.335  12.335   3.851 -1.0567 -0.2124 -0.1867
 3936SOL    HW222123   9.306  12.217   3.762  0.0390 -0.6442  0.0060
 3937SOL     OW22124   0.566   9.296   5.795  0.2533 -0.0616 -0.3035
 3937SOL    HW122125   0.568   9.313   5.889 -0.2491 -0.1740 -0.2665
 3937SOL    HW222126   0.575   9.382   5.754 -0.1037  0.0574 -0.1420
 3938SOL     OW22127   9.203  12.367   4.234 -0.2290 -0.5098 -0.0944
 3938SOL    HW122128   9.140  12.297   4.252  0.0166 -0.8279 -0.4409
 3938SOL    HW222129   9.178  12.399   4.147 -0.1931 -0.3245 -0.0372
 3939SOL     OW22130   8.201   9.080   8.882 -0.1317 -0.0889  0.4983
 3939SOL    HW122131   8.203   8.989   8.912  0.4129  0.1897  1.3486
 3939SOL    HW222132   8.119   9.088   8.833  0.0749 -1.1664 -0.0390
 3940SOL     OW22133  11.717   5.374  11.915  0.8036  0.8484  0.2382
 3940SOL    HW122134  11.634   5.395  11.873  1.9163  1.3838 -1.8669
 3940SOL    HW222135  11.764   5.458  11.917  0.9283  0.7719  2.3515
 3941SOL     OW22136   3.727   6.536   1.233  0.1776 -0.1159 -0.2104
 3941SOL    HW122137   3.670   6.608   1.261 -0.6117 -1.2600  1.2925
 3941SOL    HW222138   3.769   6.568   1.153 -1.1758  1.4816 -0.3404
 3942SOL     OW22139   4.418  11.062   2.734 -0.0309 -0.0386 -0.1201
 3942SOL    HW122140   4.484  11.109   2.682 -0.1457  0.1232 -0.1226
 3942SOL    HW222141   4.467  11.026   2.808  0.2308 -0.7387 -0.6324
 3943SOL     OW22142  12.092   7.587   6.231 -0.1764 -0.0090 -0.2150
 3943SOL    HW122143  12.056   7.675   6.241 -1.7251 -0.4584 -1.3811
 3943SOL    HW222144  12.099   7.553   6.320 -0.6595  0.8722  0.1677
 3944SOL     OW22145   6.306   0.721   7.236 -0.3618 -0.4176 -0.2736
 3944SOL    HW122146   6.334   0.631   7.220  1.7388 -0.2657  1.8691
 3944SOL    HW222147   6.335   0.739   7.326 -0.2350  2.5456 -0.8049
 3945SOL     OW22148  11.774   3.370  10.071 -0.5110 -0.6750  0.3546
 3945SOL    HW122149  11.701   3.433  10.070  0.9389  1.0997 -0.7362
 3945SOL    HW222150  11.780   3.339   9.980  2.6524  2.5045 -0.7393
 3946SOL     OW22151   9.239   8.555   3.995 -0.6379  0.1932  0.5462
 3946SOL    HW122152   9.242   8.636   3.945 -0.1001  0.1234  0.4557
 3946SOL    HW222153   9.251   8.582   4.086 -0.4212  0.2124  0.5126
 3947SOL     OW22154   4.705  11.140   4.858 -0.3966  0.0843  0.4194
 3947SOL    HW122155   4.714  11.056   4.812 -0.5941 -0.2024  0.8871
 3947SOL    HW222156   4.613  11.142   4.885 -0.9594  1.4374 -1.4352
 3948SOL     OW22157  10.273   4.727   8.465 -0.2104  0.4417 -0.5661
 3948SOL    HW122158  10.288   4.636   8.439 -0.3304  0.2847 -0.0863
 3948SOL    HW222159  10.178   4.733   8.474 -0.2757  0.8478 -1.4447
 3949SOL     OW22160   8.336   4.486   2.994 -0.3369  0.0540 -0.1517
 3949SOL    HW122161   8.313   4.525   2.910  0.9908  0.9647 -0.1296
 3949SOL    HW222162   8.326   4.558   3.057 -0.9945 -0.5286  0.4250
 3950SOL     OW22163  10.546   8.001   5.439 -0.2441  0.0325 -0.2440
 3950SOL    HW122164  10.607   8.069   5.411  0.4087 -0.8367 -1.0309
 3950SOL    HW222165  10.540   8.011   5.534 -1.0537  1.8813 -0.4506
 3951SOL     OW22166  12.007  11.226  11.813 -0.3275  0.2473  0.3852
 3951SOL    HW122167  12.030  11.186  11.730  1.0334  0.2080  0.7562
 3951SOL    HW222168  12.091  11.258  11.848 -0.6190 -1.0754  2.4400
 3952SOL     OW22169   5.103   9.576   4.694 -0.2805 -0.2955  0.0993
 3952SOL    HW122170   5.044   9.501   4.684 -0.3034 -0.2609 -0.0332
 3952SOL    HW222171   5.186   9.538   4.721 -0.4315 -0.3240  0.5335
 3953SOL     OW22172   2.385   5.665   3.332  0.3670  0.8841 -0.0190
 3953SOL    HW122173   2.442   5.680   3.407  1.2511 -1.4134 -0.1627
 3953SOL    HW222174   2.438   5.690   3.256  0.5692  0.3548 -0.0526
 3954SOL     OW22175   0.823   6.014   3.059 -0.3661 -0.4701  0.0297
 3954SOL    HW122176   0.802   6.055   2.975 -1.1591 -0.2300  0.3301
 3954SOL    HW222177   0.746   5.959   3.078  1.3983 -3.6642 -1.2542
 3955SOL     OW22178   9.049   9.151   4.795  0.6235  0.0429 -0.4868
 3955SOL    HW122179   9.098   9.209   4.737 -0.5084  0.9193 -0.6008
 3955SOL    HW222180   9.007   9.088   4.736  2.9974 -1.8589 -0.2677
 3956SOL     OW22181  10.155   8.915   2.779 -0.5870  0.2391 -0.1402
 3956SOL    HW122182  10.109   8.920   2.863  0.1163  2.3991  0.1908
 3956SOL    HW222183  10.217   8.843   2.789 -0.7707  0.2332  1.0798
 3957SOL     OW22184   6.324   5.220   8.731  0.0496  0.2489  0.4745
 3957SOL    HW122185   6.340   5.315   8.727 -0.5297  0.5284  2.7859
 3957SOL    HW222186   6.229   5.213   8.735  0.0950 -0.4278  0.3287
 3958SOL     OW22187   8.856   3.448   2.922  0.1665 -0.2905  0.0394
 3958SOL    HW122188   8.907   3.389   2.977  2.2800 -0.5534 -2.0104
 3958SOL    HW222189   8.882   3.535   2.951  0.8303 -0.4215 -0.1298
 3959SOL     OW22190   6.332   3.592   7.073 -1.0915 -0.3339 -0.6307
 3959SOL    HW122191   6.295   3.511   7.109  1.0691 -1.5172 -0.9077
 3959SOL    HW222192   6.394   3.622   7.140 -1.1067  0.5355 -0.9902
 3960SOL     OW22193   5.107   3.146   4.976 -0.4442 -0.0919 -0.0740
 3960SOL    HW122194   5.053   3.067   4.971 -1.6929  0.7646 -0.9017
 3960SOL    HW222195   5.194   3.114   4.997 -0.8421 -1.7300 -0.7272
 3961SOL     OW22196   7.324  10.084   5.925 -0.6210 -0.0797 -0.0178
 3961SOL    HW122197   7.243  10.135   5.928  0.3687  2.0702 -3.3437
 3961SOL    HW222198   7.389  10.142   5.965 -0.3424 -0.9303  0.7847
 3962SOL     OW22199   5.422   5.494   8.131  0.1623 -0.1632 -0.1436
 3962SOL    HW122200   5.342   5.449   8.157  0.6082 -0.6066  0.4761
 3962SOL    HW222201   5.398   5.540   8.050  0.0303 -2.5416 -1.5507
 3963SOL     OW22202   6.232   8.796   1.307  0.8367  0.0236  0.7455
 3963SOL    HW122203   6.294   8.754   1.368  0.2571 -1.2005  0.5248
 3963SOL    HW222204   6.225   8.734   1.235  0.5512  0.8895  0.0137
 3964SOL     OW22205  11.693  11.618   8.039  0.4508  0.1083  0.1462
 3964SOL    HW122206  11.771  11.587   8.086 -0.9668 -1.2018  1.7469
 3964SOL    HW222207  11.660  11.541   7.993 -0.3778  0.4352  0.1736
 3965SOL     OW22208   0.846   9.976   0.435  0.2285 -0.1663  0.1193
 3965SOL    HW122209   0.809   9.896   0.399 -0.1443  0.2759 -0.4899
 3965SOL    HW222210   0.900  10.012   0.365 -1.6144  1.4331 -0.5680
 3966SOL     OW22211  10.199   2.060   9.580  0.0850  0.1697  0.2905
 3966SOL    HW122212  10.288   2.093   9.566  0.3518 -0.6003  0.1397
 3966SOL    HW222213  10.193   1.984   9.522 -0.4403 -0.1879  0.8124
 3967SOL     OW22214   0.340  10.324   1.066  0.0001  0.0748  0.3499
 3967SOL    HW122215   0.425  10.290   1.037  0.4212  1.2379  0.1672
 3967SOL    HW222216   0.282  10.308   0.992  1.0422  2.9012 -1.2563
 3968SOL     OW22217   1.013   4.499   0.392  0.0252  0.6549  0.2895
 3968SOL    HW122218   0.953   4.430   0.364  1.0735 -0.2744  0.3070
 3968SOL    HW222219   0.961   4.551   0.454 -0.7418 -0.1657  0.3578
 3969SOL     OW22220   0.143   5.515   5.433  0.3783 -1.0814 -0.0294
 3969SOL    HW122221   0.137   5.608   5.413  0.2408 -0.8122  1.1745
 3969SOL    HW222222   0.165   5.473   5.349 -0.2876 -0.0616 -0.7255
 3970SOL     OW22223  12.270   5.753   5.063  0.0608 -0.1481  0.0485
 3970SOL    HW122224  12.185   5.722   5.035  0.7137 -0.8772 -1.2091
 3970SOL    HW222225  12.255   5.844   5.091 -0.7087  0.5692 -2.4873
 3971SOL     OW22226   2.414   5.144   0.671  0.3366 -0.3853  0.0143
 3971SOL    HW122227   2.414   5.156   0.576 -0.4293 -2.6054 -0.3127
 3971SOL    HW222228   2.506   5.150   0.696  0.5636  0.1106 -0.8742
 3972SOL     OW22229  10.883   9.757  11.645  0.6878  0.3152 -0.5690
 3972SOL    HW122230  10.920   9.750  11.733  1.6140 -0.8060 -1.0174
 3972SOL    HW222231  10.857   9.667  11.623 -1.2382  0.8556 -0.7481
 3973SOL     OW22232   2.916  11.699   0.541  0.0327 -0.3547  0.1490
 3973SOL    HW122233   2.889  11.733   0.456  0.4200  0.4075  0.3187
 3973SOL    HW222234   2.865  11.619   0.553 -0.7083  0.0314 -0.3872
 3974SOL     OW22235  10.635   8.510  12.754  0.1936  0.0577  0.2798
 3974SOL    HW122236  10.589   8.578  12.705 -0.1419  0.1662  0.7373
 3974SOL    HW222237  10.603   8.520  12.844  1.7348  0.6895  0.7903
 3975SOL     OW22238   6.102  12.873  11.714 -0.4439 -0.5703 -0.2886
 3975SOL    HW122239   6.111  12.850  11.621  1.3475 -0.9700 -0.0503
 3975SOL    HW222240   6.009  12.893  11.725 -0.9434 -1.8147 -1.8805
 3976SOL     OW22241   9.331  10.605   1.726 -0.4300 -0.1510 -0.2604
 3976SOL    HW122242   9.259  10.652   1.768 -0.2420 -1.0500  1.1498
 3976SOL    HW222243   9.320  10.514   1.754  1.3488 -0.2807  0.1360
 3977SOL     OW22244  12.716  11.892  10.216 -0.0535  0.0457 -0.5397
 3977SOL    HW122245  12.697  11.979  10.253 -0.8945 -0.1313 -0.5211
 3977SOL    HW222246  12.785  11.856  10.272 -0.1469  0.4479 -0.1560
 3978SOL     OW22247   7.355  12.704   1.952  0.3253  0.3896 -0.2425
 3978SOL    HW122248   7.387  12.763   2.021  1.7631 -0.3278 -0.2672
 3978SOL    HW222249   7.303  12.639   1.999 -1.0855  1.5162 -0.1896
 3979SOL     OW22250  10.833   7.617   0.980 -0.3620  0.1288  0.4867
 3979SOL    HW122251  10.779   7.634   1.058 -0.1145 -2.4011  1.3166
 3979SOL    HW222252  10.785   7.550   0.932  1.3016 -1.1357  0.4897
 3980SOL     OW22253   9.739   4.712   9.054  0.8990 -0.2823 -0.2791
 3980SOL    HW122254   9.831   4.735   9.059  0.2594  3.0470 -1.1066
 3980SOL    HW222255   9.695   4.775   9.110 -0.8502 -2.6660  1.2308
 3981SOL     OW22256  10.067  12.419   2.558 -0.3118  0.4025 -0.3792
 3981SOL    HW122257  10.133  12.485   2.536 -0.2948  0.2935 -0.6639
 3981SOL    HW222258  10.094  12.342   2.509  0.7450 -0.4285  1.4043
 3982SOL     OW22259   0.711   8.919   0.835 -0.3089  0.6572 -0.3706
 3982SOL    HW122260   0.755   8.841   0.868 -1.5881  0.0061 -0.1540
 3982SOL    HW222261   0.699   8.974   0.913 -0.0700  0.7585 -0.4014
 3983SOL     OW22262   2.149   6.732   1.088  0.0872  0.0030 -0.5166
 3983SOL    HW122263   2.231   6.766   1.124  0.0013 -0.1858 -0.1319
 3983SOL    HW222264   2.159   6.741   0.994  1.4202 -1.9148 -0.6165
 3984SOL     OW22265   1.981  10.483   1.077  0.4681  0.1225 -0.7215
 3984SOL    HW122266   2.014  10.564   1.115  0.1858  1.0789 -2.4111
 3984SOL    HW222267   1.906  10.459   1.132  0.6680  0.8882 -0.0942
 3985SOL     OW22268   3.970   1.281  12.487 -0.1778  0.3146  1.2222
 3985SOL    HW122269   3.940   1.286  12.577  0.0735 -0.8440  1.3850
 3985SOL    HW222270   3.981   1.187  12.470 -0.3763  0.5013 -0.0610
 3986SOL     OW22271   0.328   3.365   0.936 -0.1243 -0.2566 -0.0719
 3986SOL    HW122272   0.311   3.454   0.905  0.5916  0.2783  1.0264
 3986SOL    HW222273   0.250   3.316   0.911  0.1214  0.2763 -2.1027
 3987SOL     OW22274   1.296  12.232  11.102  0.7821 -0.3241 -0.1364
 3987SOL    HW122275   1.232  12.163  11.119  0.6139 -0.2240 -0.3718
 3987SOL    HW222276   1.368  12.212  11.162  0.1703  0.0546  0.7416
 3988SOL     OW22277  10.109   5.243   6.214 -0.2872 -0.0538  0.6197
 3988SOL    HW122278  10.107   5.339   6.218 -3.5190 -0.0191  0.6090
 3988SOL    HW222279  10.142   5.216   6.299  3.8861  0.9277 -0.4202
 3989SOL     OW22280   4.525   3.246   8.295  0.2171 -0.2208 -0.5073
 3989SOL    HW122281   4.459   3.310   8.322  1.0128  1.1218 -1.6511
 3989SOL    HW222282   4.583   3.238   8.371 -0.8516 -0.9245  0.2698
 3990SOL     OW22283   9.981   8.614   5.571 -0.0092  0.1338 -0.3934
 3990SOL    HW122284   9.996   8.568   5.489 -0.2199  0.0085 -0.3618
 3990SOL    HW222285   9.890   8.641   5.568 -0.1452 -0.2738 -0.0005
 3991SOL     OW22286   8.847  10.076   6.496 -0.3718  0.1394 -0.1550
 3991SOL    HW122287   8.768  10.093   6.547  0.2274 -0.0253  0.8469
 3991SOL    HW222288   8.840   9.984   6.472 -0.2345 -0.0170  0.3892
 3992SOL     OW22289   6.925   4.619   2.559 -0.0491 -0.0919  0.1293
 3992SOL    HW122290   6.845   4.619   2.506  0.4476  1.0657 -0.6501
 3992SOL    HW222291   6.993   4.586   2.500  0.4287  0.8282  0.1479
 3993SOL     OW22292  10.429   5.040   7.961  0.1802  0.1005 -0.4678
 3993SOL    HW122293  10.336   5.051   7.978  0.2605 -0.7869  0.6452
 3993SOL    HW222294  10.434   5.026   7.866 -0.6651  1.4481 -0.7397
 3994SOL     OW22295   6.758  11.114   8.704 -0.5423  0.4822  0.0042
 3994SOL    HW122296   6.833  11.169   8.680 -1.0195  1.2236  0.1800
 3994SOL    HW222297   6.763  11.108   8.800  1.2542 -2.3211 -0.1608
 3995SOL     OW22298   4.228   4.949  12.947  0.2583 -0.1442 -0.1665
 3995SOL    HW122299   4.312   4.955  12.993 -0.3822 -0.6530  1.1108
 3995SOL    HW222300   4.217   4.856  12.928 -0.6191 -0.2572  0.8501
 3996SOL     OW22301  11.954   4.418   2.528  0.4706  0.1538  0.1158
 3996SOL    HW122302  12.001   4.354   2.581  0.5260  0.5596  0.5591
 3996SOL    HW222303  11.979   4.503   2.564  0.4960  0.4313 -0.5541
 3997SOL     OW22304   9.762   3.433   1.483  0.0588 -0.6470  0.1414
 3997SOL    HW122305   9.781   3.399   1.395  2.2036  2.2398 -0.6794
 3997SOL    HW222306   9.841   3.415   1.533 -0.6915 -1.2011  1.1506
 3998SOL     OW22307  11.411   3.067   4.591  0.2719  0.3407 -0.1290
 3998SOL    HW122308  11.360   2.999   4.548 -0.9378  0.1602  1.5375
 3998SOL    HW222309  11.351   3.141   4.598 -0.5047 -0.4677  3.4857
 3999SOL     OW22310  12.982   5.312   6.431 -0.4878 -0.2259 -0.2139
 3999SOL    HW122311  12.912   5.297   6.494 -0.6944 -1.5410 -0.7464
 3999SOL    HW222312  13.040   5.237   6.440  1.1757  1.0878  0.6004
 4000SOL     OW22313   0.333  11.920  12.255 -0.2472  0.0500  0.4399
 4000SOL    HW122314   0.246  11.932  12.293 -0.8016 -2.2732  0.1137
 4000SOL    HW222315   0.392  11.967  12.313 -1.5025 -0.1109  1.9213
 4001SOL     OW22316   5.377   6.947   6.478 -0.1620 -0.1668 -0.0904
 4001SOL    HW122317   5.353   6.907   6.394 -0.6373 -1.7388  0.7583
 4001SOL    HW222318   5.473   6.955   6.474  0.0628 -2.2771  0.0407
 4002SOL     OW22319   3.094   3.665  10.255  0.2224  0.6975  0.1362
 4002SOL    HW122320   3.035   3.738  10.235  1.0564  0.8234 -2.1537
 4002SOL    HW222321   3.123   3.634  10.169  1.0627 -1.3808  1.1054
 4003SOL     OW22322   2.206   7.842   8.059  0.4480  0.1357 -0.5799
 4003SOL    HW122323   2.270   7.878   7.997  0.6508 -0.2546 -0.6008
 4003SOL    HW222324   2.137   7.806   8.003 -0.1630  1.2183 -0.5455
 4004SOL     OW22325   5.860  12.099   5.025  0.4167 -0.1887  0.3747
 4004SOL    HW122326   5.895  12.083   4.937 -0.3713 -0.5640  0.1207
 4004SOL    HW222327   5.817  12.184   5.017 -0.6824 -0.7525  0.0586
 4005SOL     OW22328  11.424   5.473  11.095  0.4044 -0.3705  0.4936
 4005SOL    HW122329  11.488   5.408  11.122  0.6854  1.0762  3.8982
 4005SOL    HW222330  11.468   5.557  11.106 -0.7490  0.5270 -1.2530
 4006SOL     OW22331   6.359   8.586   4.367 -0.0515  0.4589  0.4992
 4006SOL    HW122332   6.287   8.617   4.312  0.4800  0.2420 -0.3299
 4006SOL    HW222333   6.419   8.542   4.307  0.6321  0.3651  1.2253
 4007SOL     OW22334  12.541   0.898   7.934 -0.2792 -0.2009  0.0222
 4007SOL    HW122335  12.462   0.883   7.882  0.7577 -1.5880 -1.2459
 4007SOL    HW222336  12.540   0.828   8.000 -0.7726  0.6007  0.8953
 4008SOL     OW22337   4.813   5.661   1.864 -0.0683  0.0298  0.3468
 4008SOL    HW122338   4.841   5.571   1.850  0.3866  0.2731 -0.3271
 4008SOL    HW222339   4.720   5.653   1.886 -0.2128 -0.5512 -0.4358
 4009SOL     OW22340   9.774   3.399   7.160  0.0248 -0.3704  0.4282
 4009SOL    HW122341   9.812   3.459   7.096 -0.5234 -1.3228 -0.8525
 4009SOL    HW222342   9.726   3.455   7.220  1.0465  0.6013  0.3674
 4010SOL     OW22343  12.572   0.281   9.619 -0.0438  0.2534 -0.0651
 4010SOL    HW122344  12.509   0.313   9.684 -0.2941  0.4999 -0.4243
 4010SOL    HW222345  12.655   0.278   9.665 -0.7978 -2.9805  1.3735
 4011SOL     OW22346   5.536   0.265   4.393  0.2718 -0.2316 -0.0983
 4011SOL    HW122347   5.610   0.265   4.332 -1.6121 -0.9111 -2.5601
 4011SOL    HW222348   5.477   0.332   4.359 -0.6934 -0.3580  1.2429
 4012SOL     OW22349  10.724  11.133   1.104 -0.0046 -0.3815 -0.1044
 4012SOL    HW122350  10.798  11.094   1.057 -0.5550  0.3100 -1.6040
 4012SOL    HW222351  10.653  11.068   1.095  0.1685 -0.6862  0.6439
 4013SOL     OW22352   2.236   5.133   3.188  0.3094  0.2342 -0.0425
 4013SOL    HW122353   2.182   5.062   3.223 -0.7842  0.6029 -0.9014
 4013SOL    HW222354   2.228   5.124   3.093  0.1647  1.4672 -0.1698
 4014SOL     OW22355  10.970   2.632   4.138 -0.0622  0.4246  0.8207
 4014SOL    HW122356  10.959   2.637   4.043 -0.5043 -0.0451  0.8425
 4014SOL    HW222357  11.025   2.556   4.152 -1.2054 -0.3912  1.0121
 4015SOL     OW22358   1.355   4.811  11.478  0.2158  0.0732 -0.2364
 4015SOL    HW122359   1.375   4.842  11.389 -0.8189 -0.3079 -0.6173
 4015SOL    HW222360   1.404   4.870  11.535 -0.0021  1.0420 -1.0217
 4016SOL     OW22361   5.697   5.159   2.921 -0.1203  0.6482 -0.1638
 4016SOL    HW122362   5.777   5.201   2.953  0.0686  1.0330 -1.0933
 4016SOL    HW222363   5.670   5.213   2.847 -1.1139  0.3802 -0.0054
 4017SOL     OW22364   3.989  11.684   1.113  0.5872 -0.3153  0.0989
 4017SOL    HW122365   4.036  11.639   1.043  0.6758 -0.7888  0.4556
 4017SOL    HW222366   4.040  11.763   1.130 -0.0866  0.4194 -1.1819
 4018SOL     OW22367   8.544   2.160   6.120 -0.2151 -0.1656  0.3816
 4018SOL    HW122368   8.512   2.144   6.209  0.5754 -0.4953  0.6146
 4018SOL    HW222369   8.633   2.125   6.120 -0.5221 -0.9826 -0.8035
 4019SOL     OW22370   8.823   1.433   0.603  0.1374 -0.4964  0.4603
 4019SOL    HW122371   8.850   1.442   0.695 -0.4500 -1.5145  0.7593
 4019SOL    HW222372   8.732   1.404   0.608  0.0983 -0.5591 -0.4522
 4020SOL     OW22373   5.172   5.254   5.247  0.2956 -0.3020  0.2933
 4020SOL    HW122374   5.257   5.298   5.236  0.6400 -1.4597 -2.2915
 4020SOL    HW222375   5.129   5.262   5.163 -1.0234 -2.0761  0.7297
 4021SOL     OW22376   4.761  10.059   0.035  0.2463 -0.0662 -0.1883
 4021SOL    HW122377   4.718  10.142   0.016 -2.1805 -1.1878 -0.0183
 4021SOL    HW222378   4.854  10.080   0.039 -0.2153  2.4515 -1.0222
 4022SOL     OW22379   0.322  10.984   0.858  0.4290 -0.2283  0.2940
 4022SOL    HW122380   0.310  10.901   0.811  1.6357 -0.6557  0.6839
 4022SOL    HW222381   0.367  10.959   0.939 -0.1599  0.6904  0.9185
 4023SOL     OW22382   3.228   4.932  11.641 -0.4675  0.8080 -0.6065
 4023SOL    HW122383   3.156   4.918  11.580 -1.1163  1.2414  0.0486
 4023SOL    HW222384   3.298   4.971  11.587 -0.6436  0.2113 -1.2805
 4024SOL     OW22385   5.948  11.125   7.497 -0.2745  0.2197  0.1555
 4024SOL    HW122386   5.967  11.114   7.590  2.7677 -1.8600 -0.5864
 4024SOL    HW222387   5.885  11.056   7.477  0.6461 -0.6811  0.2954
 4025SOL     OW22388   2.452  10.490  11.006 -0.5107  0.1793  0.4799
 4025SOL    HW122389   2.523  10.467  10.946 -0.5498  0.8811  0.1432
 4025SOL    HW222390   2.408  10.563  10.963 -1.1476  0.0541  0.9099
 4026SOL     OW22391   8.191   3.557   6.565  0.0831 -0.8496 -0.6644
 4026SOL    HW122392   8.174   3.508   6.485  0.8070  0.3957 -1.6161
 4026SOL    HW222393   8.258   3.621   6.541 -0.0677 -0.0825  0.7997
 4027SOL     OW22394  12.541   1.853   1.926 -0.7878  0.1599  0.0336
 4027SOL    HW122395  12.540   1.845   1.831  0.0873 -1.3886  0.1219
 4027SOL    HW222396  12.538   1.948   1.943 -0.3804  0.4714 -1.5340
 4028SOL     OW22397   6.944  10.413  11.287 -0.1597 -0.1123 -0.5088
 4028SOL    HW122398   6.920  10.322  11.268  1.1373 -0.6703  0.3838
 4028SOL    HW222399   7.008  10.435  11.220  0.8326 -0.4698  0.2929
 4029SOL     OW22400  12.491   5.960   3.941 -0.0825 -0.7582 -0.2057
 4029SOL    HW122401  12.510   5.939   3.849  1.5717  1.5131 -0.4536
 4029SOL    HW222402  12.536   5.892   3.991  0.6792 -0.8878 -1.0447
 4030SOL     OW22403  11.736   9.776   2.903  0.5420  0.1800  0.0445
 4030SOL    HW122404  11.658   9.732   2.870  0.9804  0.0684 -0.8957
 4030SOL    HW222405  11.802   9.761   2.835  1.8870 -1.1396  1.5569
 4031SOL     OW22406   5.549   0.020   1.971  0.0517 -0.0457 -0.0580
 4031SOL    HW122407   5.464   0.025   2.015  0.6685  1.2843  1.0757
 4031SOL    HW222408   5.531   0.037   1.879 -0.8774  0.4793  0.2189
 4032SOL     OW22409  10.867  10.211   3.454  0.0474 -0.5599  0.1779
 4032SOL    HW122410  10.801  10.273   3.423  2.0690  0.7593 -1.8321
 4032SOL    HW222411  10.876  10.148   3.383  0.5801 -1.0420  0.6604
 4033SOL     OW22412   1.551  12.115   2.244  0.5472 -0.1481 -0.3772
 4033SOL    HW122413   1.629  12.125   2.191  1.5207 -1.0518  0.8240
 4033SOL    HW222414   1.487  12.073   2.186  1.9541 -2.1806 -0.5559
 4034SOL     OW22415   9.146   2.304   5.643  0.1342 -0.6003  0.1842
 4034SOL    HW122416   9.188   2.328   5.560 -0.1631  0.7689  0.4077
 4034SOL    HW222417   9.069   2.360   5.648  1.7818  1.7098  2.8084
 4035SOL     OW22418  10.657   2.008   0.271 -0.2792 -0.0984 -0.0331
 4035SOL    HW122419  10.701   2.089   0.246 -0.2207  0.0123  0.4302
 4035SOL    HW222420  10.618   2.026   0.356  0.4242 -0.8108  0.4585
 4036SOL     OW22421   8.337   9.375   9.833 -0.0191  0.2326 -0.3425
 4036SOL    HW122422   8.254   9.369   9.879  1.0619  1.1617  1.8584
 4036SOL    HW222423   8.321   9.440   9.764 -0.8788  1.1562  0.6865
 4037SOL     OW22424   5.384   3.089   9.247  0.2597  0.3058  0.4150
 4037SOL    HW122425   5.445   3.070   9.176 -1.4230 -0.5206 -0.8650
 4037SOL    HW222426   5.368   3.183   9.240  2.2865  0.8029  1.5768
 4038SOL     OW22427   1.895   6.547   6.906  0.0198  0.0267 -0.2100
 4038SOL    HW122428   1.899   6.548   6.810  1.8437 -0.5909 -0.1816
 4038SOL    HW222429   1.875   6.637   6.930  1.4057  0.6104 -1.1415
 4039SOL     OW22430   0.369   3.068   6.978  0.1873 -0.2095 -0.3720
 4039SOL    HW122431   0.358   3.161   7.000  2.6786 -0.2450  1.5077
 4039SOL    HW222432   0.341   3.022   7.056 -1.0535 -1.0838 -1.3063
 4040SOL     OW22433   1.843   7.944   4.864 -0.2005 -0.1874  0.4047
 4040SOL    HW122434   1.863   7.864   4.914  0.4560 -1.9474 -2.4166
 4040SOL    HW222435   1.760   7.974   4.899  0.2072 -1.3035  2.5017
 4041SOL     OW22436  12.102  11.492   2.386  0.2827 -0.2323 -0.4477
 4041SOL    HW122437  12.160  11.426   2.348 -0.5308 -2.2838  1.6178
 4041SOL    HW222438  12.015  11.468   2.356  0.0047  0.0212  0.1366
 4042SOL     OW22439  12.331   5.425   5.196 -0.1760 -0.1414  0.3731
 4042SOL    HW122440  12.240   5.453   5.197  0.4218  1.9985  0.2441
 4042SOL    HW222441  12.361   5.442   5.107  0.8704  1.1449  0.9266
 4043SOL     OW22442   1.799   6.966   2.523 -0.5331 -0.0535 -0.8857
 4043SOL    HW122443   1.875   7.020   2.501 -0.5165  0.5208  0.5078
 4043SOL    HW222444   1.829   6.876   2.508  0.7095  0.1093  0.3636
 4044SOL     OW22445   5.927   5.989   8.330 -0.1573  0.0496 -0.8007
 4044SOL    HW122446   5.989   5.965   8.261 -0.4220 -1.0699 -0.6624
 4044SOL    HW222447   5.863   6.045   8.286 -0.4692 -0.8550 -1.5387
 4045SOL     OW22448   9.259   7.314   2.007  0.1299 -0.0255  0.3953
 4045SOL    HW122449   9.303   7.334   1.924  1.1396  1.0308  1.1709
 4045SOL    HW222450   9.177   7.271   1.980  0.9336 -0.7025 -1.1154
 4046SOL     OW22451   9.542   7.731   3.824 -0.5394 -0.1298 -0.4063
 4046SOL    HW122452   9.612   7.794   3.807 -3.1807  3.2504  0.1806
 4046SOL    HW222453   9.515   7.701   3.738  1.1302 -0.9793 -0.6681
 4047SOL     OW22454   8.885  12.240   3.290  0.2909  0.1365  0.0820
 4047SOL    HW122455   8.892  12.327   3.329  0.8195  0.6146 -1.0664
 4047SOL    HW222456   8.835  12.253   3.209 -2.5600 -1.1566  1.4597
 4048SOL     OW22457   4.613   6.973  10.239  0.5892 -0.2453  0.1561
 4048SOL    HW122458   4.619   6.897  10.297 -0.8968 -1.1775 -0.8215
 4048SOL    HW222459   4.532   6.958  10.189  0.4712  1.8020 -0.3370
 4049SOL     OW22460   1.074   2.363   6.951  0.0348  0.4114 -0.1297
 4049SOL    HW122461   0.983   2.350   6.923  0.2748 -2.8096  0.2369
 4049SOL    HW222462   1.119   2.283   6.925  2.8618  1.9167 -0.3535
 4050SOL     OW22463  11.728   8.915  11.985 -0.2283 -0.2241  0.2507
 4050SOL    HW122464  11.770   8.945  11.905  0.0039  1.9923  1.1315
 4050SOL    HW222465  11.640   8.888  11.958 -0.6136  1.7147 -0.6117
 4051SOL     OW22466   7.287   6.571   3.770 -0.2452 -0.2312 -0.2259
 4051SOL    HW122467   7.220   6.554   3.704 -1.9011  2.4379  0.6337
 4051SOL    HW222468   7.245   6.552   3.853  0.7274 -0.3549  0.2556
 4052SOL     OW22469   1.827   5.969   4.992  0.4211  0.5540  0.4258
 4052SOL    HW122470   1.861   6.000   4.908 -2.3904  2.2338 -0.1961
 4052SOL    HW222471   1.760   6.032   5.016 -0.2064 -0.9472  3.0161
 4053SOL     OW22472   7.089   3.974   8.225 -0.4389 -0.3664  0.2504
 4053SOL    HW122473   7.075   3.887   8.187 -1.2129 -0.3852  0.5498
 4053SOL    HW222474   7.037   3.973   8.306 -0.0692  0.2118  0.4999
 4054SOL     OW22475   3.464   6.414   2.135 -0.1715  0.2540  0.1102
 4054SOL    HW122476   3.497   6.358   2.205  1.1208  1.4436  0.4927
 4054SOL    HW222477   3.410   6.356   2.081  0.1847 -1.0669  1.1323
 4055SOL     OW22478   2.739   6.189   7.404 -0.2130  0.5017  0.1700
 4055SOL    HW122479   2.733   6.114   7.463  1.1472  0.3334  0.1371
 4055SOL    HW222480   2.732   6.151   7.316 -1.7441  0.6956  0.1798
 4056SOL     OW22481   4.011  12.891   8.445  0.3809 -0.2294  0.0211
 4056SOL    HW122482   3.984  12.941   8.368  0.7853  2.2267  1.3446
 4056SOL    HW222483   3.951  12.919   8.514  0.4895 -1.8029  0.8008
 4057SOL     OW22484   1.470   3.756   8.715 -0.6894  0.3343 -0.4950
 4057SOL    HW122485   1.408   3.718   8.777 -0.4397  1.5285  0.5318
 4057SOL    HW222486   1.426   3.833   8.680 -0.4362  0.2328 -1.0581
 4058SOL     OW22487   6.675   0.125   0.746 -0.3192  0.2247 -0.4230
 4058SOL    HW122488   6.621   0.159   0.817 -0.1211  0.0789 -0.2028
 4058SOL    HW222489   6.763   0.155   0.766 -0.2236 -0.0161 -0.4831
 4059SOL     OW22490   6.478   3.627   6.306 -0.5883  0.1930 -0.2298
 4059SOL    HW122491   6.473   3.713   6.349 -0.1040  0.4153 -0.6047
 4059SOL    HW222492   6.399   3.623   6.252 -0.9100  0.1531  0.2365
 4060SOL     OW22493   4.372   1.648   0.293  0.4918  0.0325 -0.4044
 4060SOL    HW122494   4.428   1.719   0.326 -0.6032  0.1815  1.2833
 4060SOL    HW222495   4.396   1.572   0.347  1.5473 -0.8893 -2.0956
 4061SOL     OW22496   7.312  10.340   5.307  0.2685 -0.2249 -0.1146
 4061SOL    HW122497   7.341  10.382   5.388  0.2713 -0.1888 -0.1338
 4061SOL    HW222498   7.370  10.264   5.297  0.7080  0.1477 -0.4351
 4062SOL     OW22499   9.934   4.853   0.971  0.4676  0.3177 -0.3206
 4062SOL    HW122500   9.948   4.877   1.062 -2.7638  2.8145 -0.2821
 4062SOL    HW222501   9.864   4.788   0.973  1.6712 -1.0701 -1.0186
 4063SOL     OW22502   1.398   7.357  10.493 -0.7760 -0.1236  0.1014
 4063SOL    HW122503   1.390   7.410  10.414  0.1681 -0.5328 -0.2766
 4063SOL    HW222504   1.386   7.267  10.463  1.3795 -0.4621  0.0804
 4064SOL     OW22505  10.523   5.430   9.852  0.0042 -0.9327 -0.3969
 4064SOL    HW122506  10.484   5.376   9.783  2.1814  0.2205 -2.7258
 4064SOL    HW222507  10.450   5.480   9.887 -1.7286 -3.8453  0.4653
 4065SOL     OW22508  11.061   1.223   6.995  0.0167 -0.3757 -0.2600
 4065SOL    HW122509  11.046   1.268   7.078 -1.4642  0.9223 -1.1689
 4065SOL    HW222510  11.150   1.247   6.970 -0.0108  0.3495  0.3111
 4066SOL     OW22511   9.151   2.699   6.578  0.2457  0.1612 -0.1975
 4066SOL    HW122512   9.088   2.687   6.506  0.7933  0.2435 -0.7016
 4066SOL    HW222513   9.145   2.618   6.628  0.4727 -0.2511 -0.8311
 4067SOL     OW22514  11.227   2.448   6.159  0.0378  0.5164  0.2322
 4067SOL    HW122515  11.208   2.527   6.210  1.1381  0.2622  1.0756
 4067SOL    HW222516  11.255   2.480   6.074  0.8217  1.0666  0.6866
 4068SOL     OW22517   7.625  11.687   6.061  0.5245 -0.1154  0.7888
 4068SOL    HW122518   7.680  11.688   6.139  1.1307 -0.7563  0.3815
 4068SOL    HW222519   7.583  11.601   6.062 -0.4620  0.3487  1.0739
 4069SOL     OW22520   1.382   3.346   3.093  0.2999 -0.3271  0.1091
 4069SOL    HW122521   1.353   3.420   3.147  0.3753 -1.2146  1.3963
 4069SOL    HW222522   1.329   3.272   3.121 -0.9949 -0.4505 -2.3633
 4070SOL     OW22523   9.642   4.226   8.517  0.3561 -0.0357  0.8563
 4070SOL    HW122524   9.607   4.180   8.440  2.1847  1.2436 -0.8282
 4070SOL    HW222525   9.633   4.162   8.588 -4.2351 -0.2339  0.4503
 4071SOL     OW22526  11.897   2.264   8.638 -0.3711  0.0121  0.4463
 4071SOL    HW122527  11.870   2.191   8.583 -0.4303 -0.7362  1.4382
 4071SOL    HW222528  11.815   2.309   8.659 -0.2937  0.6059 -0.4780
 4072SOL     OW22529   3.430   1.686  12.042 -0.5205 -0.0576  0.2825
 4072SOL    HW122530   3.511   1.666  12.090 -0.6912 -0.1472  0.5340
 4072SOL    HW222531   3.392   1.600  12.023  0.0746 -0.0700 -0.9316
 4073SOL     OW22532   7.990   7.032   4.337  0.1573  0.0485  0.8098
 4073SOL    HW122533   8.073   7.071   4.310 -0.1687 -1.1369 -2.4275
 4073SOL    HW222534   8.003   6.938   4.322 -1.2905 -0.3317  1.7678
 4074SOL     OW22535  11.128   8.401   7.306  0.0154  0.0351  0.1844
 4074SOL    HW122536  11.126   8.430   7.215  3.2607  1.0171  0.3236
 4074SOL    HW222537  11.117   8.306   7.301 -0.6523  0.1643 -1.1371
 4075SOL     OW22538   2.232   1.157   9.817 -0.5758 -0.7035 -0.6222
 4075SOL    HW122539   2.309   1.138   9.870 -0.6613  1.1495  0.2286
 4075SOL    HW222540   2.158   1.147   9.876 -0.8380 -0.6353 -0.9331
 4076SOL     OW22541   0.794   4.573   0.568  0.0596 -0.2538 -0.1800
 4076SOL    HW122542   0.818   4.497   0.621  0.4414  0.6688  1.0195
 4076SOL    HW222543   0.711   4.602   0.605 -0.2712 -0.2966 -0.8803
 4077SOL     OW22544   9.923   1.811  10.097  0.0146  0.2782 -0.3885
 4077SOL    HW122545   9.969   1.733  10.129  0.4918  0.4746 -0.5866
 4077SOL    HW222546   9.843   1.777  10.057 -0.7947  0.0468  1.3265
 4078SOL     OW22547   2.900   7.062   6.711 -0.3614  0.5372 -0.2235
 4078SOL    HW122548   2.850   7.005   6.653 -1.1667  0.0254  0.9391
 4078SOL    HW222549   2.838   7.089   6.779  0.5848  1.0009  0.4976
 4079SOL     OW22550   0.776   3.264  10.927 -0.1759  0.5955 -0.5605
 4079SOL    HW122551   0.841   3.330  10.903 -0.6015  0.8980 -0.8724
 4079SOL    HW222552   0.799   3.240  11.017  1.7745 -0.9446 -1.3883
 4080SOL     OW22553   1.661   1.577   1.800  0.7956  0.7062 -0.4814
 4080SOL    HW122554   1.716   1.564   1.878 -0.8934  0.2921  0.7075
 4080SOL    HW222555   1.674   1.497   1.748  1.1253  0.4997 -0.0906
 4081SOL     OW22556   4.018   8.550  12.033  0.2483  0.7366 -0.5042
 4081SOL    HW122557   4.021   8.645  12.033 -0.4449  0.7657 -0.0572
 4081SOL    HW222558   3.971   8.527  12.113  0.1713  0.0305 -0.7428
 4082SOL     OW22559   4.672   5.386   4.682  0.2517 -0.1404  0.4544
 4082SOL    HW122560   4.671   5.293   4.707  0.3361 -0.1087  0.5730
 4082SOL    HW222561   4.671   5.433   4.765 -1.5247 -0.0144  0.4079
 4083SOL     OW22562  12.290   8.345   2.651  0.6069  0.3284  0.0316
 4083SOL    HW122563  12.217   8.401   2.626  1.3880  0.9833 -0.8432
 4083SOL    HW222564  12.252   8.280   2.710 -0.5303  1.0989  0.1639
 4084SOL     OW22565   1.508  10.288   6.745 -0.8647 -0.9061  0.0889
 4084SOL    HW122566   1.537  10.201   6.717  0.1970 -0.2246 -1.0433
 4084SOL    HW222567   1.459  10.322   6.670  1.4459  0.6874 -0.8173
 4085SOL     OW22568   3.491   5.193   2.249  0.0021  0.0740  0.5899
 4085SOL    HW122569   3.443   5.218   2.170  1.2268 -0.4504 -0.3291
 4085SOL    HW222570   3.423   5.159   2.308 -0.8039 -0.3746 -0.5694
 4086SOL     OW22571   0.887  12.350   6.567  0.4515 -0.6047 -0.4108
 4086SOL    HW122572   0.817  12.381   6.625  0.7791 -1.3723  0.4173
 4086SOL    HW222573   0.889  12.255   6.581  1.3560 -0.6456 -0.7644
 4087SOL     OW22574   9.844   3.442   5.497  0.2772  0.0656  0.9347
 4087SOL    HW122575   9.772   3.432   5.435  0.9179  1.5896 -0.1023
 4087SOL    HW222576   9.919   3.468   5.443  1.2648 -0.1369  2.1567
 4088SOL     OW22577   9.390   9.919  10.155  0.1341 -0.3397 -0.1779
 4088SOL    HW122578   9.442   9.916  10.235 -0.7730  0.3380  0.4565
 4088SOL    HW222579   9.299   9.908  10.185 -0.2691  0.4659 -1.0485
 4089SOL     OW22580   6.352  10.327  11.913  0.4739  0.0558  0.2321
 4089SOL    HW122581   6.391  10.245  11.883  0.8550 -0.0642  1.0166
 4089SOL    HW222582   6.425  10.389  11.914  0.5007  0.0279  0.9786
 4090SOL     OW22583   5.324   9.837  11.407 -0.4269 -0.2905 -0.1161
 4090SOL    HW122584   5.255   9.898  11.383 -1.8119 -0.4482  2.9568
 4090SOL    HW222585   5.279   9.766  11.452  1.6515 -0.6551  1.5567
 4091SOL     OW22586   7.948   1.743   4.234 -0.5872  0.2049 -0.7346
 4091SOL    HW122587   8.030   1.791   4.224 -0.4683  0.0439 -0.5420
 4091SOL    HW222588   7.887   1.806   4.271  0.2848 -0.4536  2.0674
 4092SOL     OW22589  11.558  12.187  12.764 -0.3213 -0.8378 -0.4735
 4092SOL    HW122590  11.536  12.100  12.798  0.8798 -0.9618  0.0468
 4092SOL    HW222591  11.524  12.248  12.830  0.8661 -1.0284  0.3530
 4093SOL     OW22592   4.738  11.037  10.344 -0.1812 -0.3582  0.2948
 4093SOL    HW122593   4.827  11.049  10.377  0.6967 -1.4138 -1.5052
 4093SOL    HW222594   4.705  11.125  10.329  2.3249  0.1764 -3.2902
 4094SOL     OW22595   6.457   2.104  12.605  0.5643 -0.0202  0.6059
 4094SOL    HW122596   6.366   2.075  12.602  0.6439 -0.2338  0.1768
 4094SOL    HW222597   6.474   2.137  12.517  0.6160  0.9108  0.9514
 4095SOL     OW22598  10.243   9.071   1.953  0.0001  0.4685 -0.1037
 4095SOL    HW122599  10.259   9.036   2.041  0.0376  2.1722  0.6127
 4095SOL    HW222600  10.330   9.085   1.917  0.0034  0.9459  0.0869
 4096SOL     OW22601   2.045   1.442   3.735  0.1384 -0.1468  0.0492
 4096SOL    HW122602   2.137   1.465   3.730 -0.1926  0.9833 -1.9852
 4096SOL    HW222603   2.032   1.377   3.666 -0.5784 -0.2861  0.3002
 4097SOL     OW22604   4.840   6.053  10.125  0.5554 -0.6124 -0.0490
 4097SOL    HW122605   4.924   6.077  10.164  0.9230  0.5170 -1.4640
 4097SOL    HW222606   4.807   6.133  10.086 -0.2491 -1.4736 -1.2228
 4098SOL     OW22607   8.064   9.654   6.120  0.6628  0.2228  0.3673
 4098SOL    HW122608   7.975   9.685   6.137  0.4620 -0.6722  1.0207
 4098SOL    HW222609   8.076   9.581   6.180  2.0417  0.6711  0.6813
 4099SOL     OW22610   2.959   2.026  12.342 -0.2833 -0.3915  0.2520
 4099SOL    HW122611   2.998   1.940  12.355 -1.4599 -0.7583  1.5290
 4099SOL    HW222612   2.910   2.019  12.260 -0.4917 -0.9712  0.4297
 4100SOL     OW22613  10.805   9.735   9.151  0.8076 -0.4083 -0.3498
 4100SOL    HW122614  10.808   9.709   9.059  1.5838  2.1048 -1.1092
 4100SOL    HW222615  10.881   9.692   9.190  1.1819 -0.5290 -1.1808
 4101SOL     OW22616   1.506   2.870   2.534 -0.5259 -0.4663  0.1380
 4101SOL    HW122617   1.518   2.907   2.447  0.5449  1.8115  1.1785
 4101SOL    HW222618   1.432   2.917   2.570  0.2695  0.0458  1.1536
 4102SOL     OW22619   3.676   7.377   6.588 -0.5668 -0.3687  0.0912
 4102SOL    HW122620   3.770   7.399   6.587 -0.1517 -1.4643  3.2974
 4102SOL    HW222621   3.633   7.459   6.610 -0.1333 -0.3349  0.8408
 4103SOL     OW22622  10.967   9.677   4.576 -0.2292  0.8080  0.1548
 4103SOL    HW122623  11.055   9.714   4.582 -0.2316  0.7646  0.5223
 4103SOL    HW222624  10.979   9.594   4.531 -0.2359  1.2858 -0.7587
 4104SOL     OW22625  10.837   4.689  12.247  0.7062  0.3457  0.5305
 4104SOL    HW122626  10.758   4.636  12.252  1.6887 -1.2581  0.0377
 4104SOL    HW222627  10.807   4.780  12.257 -1.3698 -0.0831 -1.1882
 4105SOL     OW22628  10.859   2.769   1.137 -0.5670  0.0336  0.2896
 4105SOL    HW122629  10.896   2.857   1.146 -0.0852 -0.2147  0.7790
 4105SOL    HW222630  10.858   2.733   1.226  0.8124 -1.0853 -0.1139
 4106SOL     OW22631   1.572   4.174   1.731  0.3459 -0.2309 -0.4799
 4106SOL    HW122632   1.506   4.239   1.706  0.1390 -1.2140 -2.7578
 4106SOL    HW222633   1.537   4.091   1.697  1.3530 -1.2727  0.9450
 4107SOL     OW22634  11.724   6.353   0.552 -0.1885 -0.4498 -0.7338
 4107SOL    HW122635  11.673   6.419   0.506  0.9764 -0.4316 -2.0404
 4107SOL    HW222636  11.720   6.276   0.496 -0.1888 -0.9992 -0.0018
 4108SOL     OW22637   9.262  10.764  11.298  0.6602  0.0694  0.5956
 4108SOL    HW122638   9.281  10.841  11.245  0.6251 -1.5162 -1.8764
 4108SOL    HW222639   9.318  10.774  11.375 -0.9277  3.5765  1.5142
 4109SOL     OW22640   0.224   6.526  12.000 -0.3570  0.0334  0.1272
 4109SOL    HW122641   0.310   6.521  11.959 -0.5817  0.3866 -0.3973
 4109SOL    HW222642   0.222   6.613  12.041 -0.0053 -0.4423  1.1967
 4110SOL     OW22643   9.920   2.244   8.182  0.0449  0.0918 -0.3164
 4110SOL    HW122644   9.885   2.160   8.154 -0.4400 -0.1355  0.9062
 4110SOL    HW222645   9.948   2.287   8.101 -0.6261 -0.8265 -1.0532
 4111SOL     OW22646   4.515   9.607   8.010 -0.8876 -0.2050  0.0476
 4111SOL    HW122647   4.602   9.639   7.984 -0.9315  0.8775  1.1311
 4111SOL    HW222648   4.527   9.513   8.020  0.2889 -0.0269  0.5572
 4112SOL     OW22649   1.215  10.964   1.042  0.2401  0.0145  0.1288
 4112SOL    HW122650   1.162  10.899   0.995 -0.6107 -0.8854  2.1945
 4112SOL    HW222651   1.236  11.030   0.976  2.0452 -2.7958 -2.3940
 4113SOL     OW22652   7.433   8.474   1.566  0.0425 -0.4742 -0.6819
 4113SOL    HW122653   7.408   8.391   1.609  0.6686  0.1276  0.9381
 4113SOL    HW222654   7.350   8.519   1.551 -0.2003 -0.6796 -0.0112
 4114SOL     OW22655   0.734   5.627  12.940  0.4571 -0.1955 -0.2076
 4114SOL    HW122656   0.733   5.559  12.873 -0.9865 -1.3401  0.9142
 4114SOL    HW222657   0.650   5.672  12.930  0.9255  0.7133 -0.2108
 4115SOL     OW22658  12.427   2.445   2.173 -0.1039  0.4365  0.0242
 4115SOL    HW122659  12.486   2.514   2.203 -0.4565  0.8963 -0.2939
 4115SOL    HW222660  12.385   2.412   2.252  2.2453 -1.5456  0.5547
 4116SOL     OW22661   5.051  10.016   5.854 -0.3588  0.4159 -0.0655
 4116SOL    HW122662   5.042   9.948   5.920  0.3314  1.6422  1.3685
 4116SOL    HW222663   4.973  10.008   5.799 -2.6615  1.3484  2.8386
 4117SOL     OW22664   4.789   1.186   3.762 -0.4141  0.3338 -0.0759
 4117SOL    HW122665   4.729   1.258   3.779  0.4634  1.1792 -0.4930
 4117SOL    HW222666   4.752   1.112   3.810 -1.8428  0.8056 -0.4308
 4118SOL     OW22667  12.500   6.673   4.828 -0.3543 -0.1269  0.0610
 4118SOL    HW122668  12.474   6.764   4.817  0.4289  0.0921 -0.0151
 4118SOL    HW222669  12.489   6.657   4.922  0.1998  0.2619  0.1920
 4119SOL     OW22670   9.079   9.753   8.276  0.1126  0.3900  0.0300
 4119SOL    HW122671   9.038   9.670   8.301  0.7338  0.0990  0.1090
 4119SOL    HW222672   9.025   9.785   8.204 -0.1188 -0.0971 -0.0227
 4120SOL     OW22673   7.400  10.325  10.136  0.2102 -0.1419 -0.2186
 4120SOL    HW122674   7.427  10.241  10.173 -0.5880 -0.1885  0.2892
 4120SOL    HW222675   7.481  10.373  10.123  0.6078 -0.6594  0.3016
 4121SOL     OW22676  10.515   9.124   3.515 -0.0699  0.4062 -0.5198
 4121SOL    HW122677  10.454   9.194   3.493  2.3607  2.5484 -0.9471
 4121SOL    HW222678  10.519   9.124   3.610  0.1404  1.0612 -0.5266
 4122SOL     OW22679   9.313  11.455   0.257  0.0595 -0.0297  0.9459
 4122SOL    HW122680   9.344  11.375   0.300  0.5709 -1.5644 -2.0024
 4122SOL    HW222681   9.356  11.526   0.304  1.6633 -1.6487  2.0615
 4123SOL     OW22682   3.963  10.660  11.867 -0.4242 -0.4508 -0.2917
 4123SOL    HW122683   3.871  10.679  11.848 -1.2355 -2.9966  0.7254
 4123SOL    HW222684   3.978  10.573  11.832  0.8634 -1.1280  1.7636
 4124SOL     OW22685   8.217   3.470   5.947  0.4343  0.0086  0.1364
 4124SOL    HW122686   8.123   3.473   5.963  0.3735  1.2154 -0.3268
 4124SOL    HW222687   8.256   3.489   6.033  0.1992  1.5506 -0.0686
 4125SOL     OW22688   3.301   1.282   8.724 -0.1973 -0.3136  0.0586
 4125SOL    HW122689   3.303   1.355   8.662  1.4651 -0.3379  0.0215
 4125SOL    HW222690   3.339   1.318   8.804 -0.9536 -0.6898  0.5968
 4126SOL     OW22691   4.023   6.306   6.952  0.4243  0.0007  0.2588
 4126SOL    HW122692   3.951   6.283   7.012  2.1373  0.5206  2.6685
 4126SOL    HW222693   4.044   6.397   6.974  2.2778 -0.3625  0.1645
 4127SOL     OW22694   3.905   3.804  12.039  0.0165 -0.7209  0.2515
 4127SOL    HW122695   3.900   3.731  12.101  1.9429 -1.2328 -0.1553
 4127SOL    HW222696   3.890   3.763  11.953  0.4911 -0.5392  0.0817
 4128SOL     OW22697   6.192   0.652   2.295  0.0743 -0.4032  0.3367
 4128SOL    HW122698   6.272   0.669   2.346 -0.8871 -0.6645  2.0240
 4128SOL    HW222699   6.136   0.727   2.312 -0.7858 -1.1230  0.7535
 4129SOL     OW22700  10.761  10.732   7.495  0.2152 -0.2108 -0.1044
 4129SOL    HW122701  10.684  10.788   7.480  1.1395  0.8546 -0.9950
 4129SOL    HW222702  10.806  10.774   7.569  1.0613  0.4130 -0.9550
 4130SOL     OW22703   1.075  10.788   6.063  0.3069  0.3934 -0.0241
 4130SOL    HW122704   1.165  10.802   6.034 -0.2634  2.7114 -0.9172
 4130SOL    HW222705   1.048  10.872   6.100 -0.8786 -0.8201  2.1082
 4131SOL     OW22706  12.589   8.833  10.877 -0.5985  0.5568  0.5178
 4131SOL    HW122707  12.544   8.914  10.903 -2.5331  0.1323 -1.2337
 4131SOL    HW222708  12.552   8.811  10.792  0.5014 -1.7335  0.5482
 4132SOL     OW22709  12.892  12.819   0.169 -0.3569 -0.3896  0.0163
 4132SOL    HW122710  12.833  12.893   0.154 -1.4359 -1.1163  0.4711
 4132SOL    HW222711  12.951  12.819   0.094 -1.1455  0.1761 -0.6244
 4133SOL     OW22712   9.877  10.654   0.172  0.0735 -0.9581 -0.8841
 4133SOL    HW122713   9.846  10.720   0.235 -0.6779 -0.9762 -1.2203
 4133SOL    HW222714   9.841  10.571   0.205  0.0360 -1.0291 -1.1027
 4134SOL     OW22715   1.811   3.141   3.993 -0.4741  0.1118  0.3055
 4134SOL    HW122716   1.790   3.226   4.031  1.1901  0.6364  0.0968
 4134SOL    HW222717   1.880   3.159   3.930 -0.8265 -1.2536 -0.5005
 4135SOL     OW22718   0.934   0.795  12.135  0.7684  0.7742  0.4201
 4135SOL    HW122719   0.871   0.862  12.110  0.0149 -0.3020 -0.7199
 4135SOL    HW222720   1.010   0.813  12.080 -0.1347 -0.3711 -1.3114
 4136SOL     OW22721   5.603  12.838   9.040 -0.4895  0.2413 -0.1693
 4136SOL    HW122722   5.545  12.850   8.965  0.1378  1.4071 -0.4794
 4136SOL    HW222723   5.652  12.759   9.020 -0.7553  0.2058 -0.7001
 4137SOL     OW22724  11.299  12.133   3.329 -0.3431  0.1266 -0.6075
 4137SOL    HW122725  11.379  12.186   3.326 -0.9445  1.2432  1.2939
 4137SOL    HW222726  11.264  12.138   3.240  1.1986  0.3886 -1.2333
 4138SOL     OW22727   8.387   3.704   1.342 -0.1906  0.1491 -0.2081
 4138SOL    HW122728   8.390   3.646   1.266 -0.9079  0.1506 -0.2406
 4138SOL    HW222729   8.462   3.677   1.395  2.4573  2.3649 -2.4975
 4139SOL     OW22730   1.809   1.588   7.824 -0.3407  0.2076 -0.7150
 4139SOL    HW122731   1.836   1.666   7.776 -0.7105  1.2909  0.7685
 4139SOL    HW222732   1.842   1.602   7.912  0.8029 -1.9889 -0.7308
 4140SOL     OW22733   3.217   9.647  10.223 -0.0472  0.2456  0.8493
 4140SOL    HW122734   3.228   9.596  10.143  0.6914  0.4729  0.8055
 4140SOL    HW222735   3.206   9.581  10.292 -2.6774  0.0192  0.3428
 4141SOL     OW22736   3.474   7.538   0.463  0.4292 -0.0703  0.0587
 4141SOL    HW122737   3.558   7.529   0.419  0.8101 -0.0151  0.7574
 4141SOL    HW222738   3.467   7.462   0.520  0.9807  0.9471  1.5670
 4142SOL     OW22739   1.054  10.785   0.774 -0.1479  0.5360 -0.1143
 4142SOL    HW122740   1.031  10.736   0.694 -1.2933  0.5160  0.2075
 4142SOL    HW222741   1.139  10.749   0.800 -1.2221 -1.8278  0.4864
 4143SOL     OW22742  11.222   4.498  10.331  0.4143 -0.5145  0.6564
 4143SOL    HW122743  11.147   4.538  10.289  0.3216 -1.0134  0.3368
 4143SOL    HW222744  11.215   4.405  10.309  0.8564 -0.6383  1.0257
 4144SOL     OW22745   1.269  11.411  11.301 -0.1340 -0.1600 -0.2442
 4144SOL    HW122746   1.218  11.351  11.247 -1.8277 -0.9304  2.0757
 4144SOL    HW222747   1.329  11.355  11.350 -0.0379  0.2903  0.1699
 4145SOL     OW22748   2.976   8.791   7.404 -0.5705  0.0996  0.6935
 4145SOL    HW122749   3.072   8.796   7.412 -0.1273 -1.6571 -2.0892
 4145SOL    HW222750   2.945   8.878   7.432  1.9243  1.1211  0.5607
 4146SOL     OW22751   3.119   3.906  11.667  0.5279 -0.4185 -0.5705
 4146SOL    HW122752   3.141   3.976  11.728  0.1807  0.0688 -0.9994
 4146SOL    HW222753   3.204   3.870  11.641  0.6573 -2.3653  2.1323
 4147SOL     OW22754  11.240   1.301   6.621 -0.3010  0.1564  0.9464
 4147SOL    HW122755  11.290   1.381   6.604  0.1346 -0.2979  0.0388
 4147SOL    HW222756  11.293   1.231   6.585 -1.4539 -0.3697  0.2057
 4148SOL     OW22757   1.457   3.452   1.214  0.9249 -0.1589  0.3069
 4148SOL    HW122758   1.407   3.521   1.257  2.3849  0.6781  0.7614
 4148SOL    HW222759   1.424   3.451   1.124  0.0846  0.3422  0.5966
 4149SOL     OW22760   5.360   9.171   6.447 -0.0870  0.1018  0.3947
 4149SOL    HW122761   5.361   9.167   6.351 -3.3581 -1.9067  0.3089
 4149SOL    HW222762   5.448   9.201   6.470  0.1307  2.9851 -3.2634
 4150SOL     OW22763   6.037   0.785   0.568 -0.4535  0.1642 -0.0731
 4150SOL    HW122764   6.099   0.763   0.637 -0.1594  0.0081 -0.3804
 4150SOL    HW222765   5.957   0.811   0.614 -0.5747 -0.8410  0.3092
 4151SOL     OW22766   3.066   5.575   1.428 -0.2876 -0.5610  0.2602
 4151SOL    HW122767   3.091   5.608   1.514  0.9383  0.4391 -0.4489
 4151SOL    HW222768   3.135   5.605   1.369 -1.4615 -0.6023 -1.2095
 4152SOL     OW22769   4.963   1.186   0.444  0.1289  0.2833 -0.1846
 4152SOL    HW122770   4.980   1.093   0.432  0.9106  0.5181 -1.0489
 4152SOL    HW222771   4.982   1.203   0.536 -0.7549 -0.5463  0.1709
 4153SOL     OW22772   3.740   9.924   0.487 -0.3910 -0.0852 -0.4635
 4153SOL    HW122773   3.684   9.854   0.522 -0.1555 -0.9903 -1.8017
 4153SOL    HW222774   3.685  10.002   0.492 -0.8179 -0.4299  0.6673
 4154SOL     OW22775   5.004   7.593   3.307  0.0930  0.0071  0.7305
 4154SOL    HW122776   5.006   7.677   3.261  0.5956 -0.7816 -0.7216
 4154SOL    HW222777   5.092   7.584   3.344 -0.4700  0.8995  2.4057
 4155SOL     OW22778  11.884  12.149   8.057 -0.2808  0.1255 -0.4008
 4155SOL    HW122779  11.910  12.202   8.132 -1.0681 -0.9628  0.7040
 4155SOL    HW222780  11.910  12.060   8.081  2.3074  0.0946 -2.8106
 4156SOL     OW22781   8.944  11.046   9.096  0.1794  0.1118 -0.3048
 4156SOL    HW122782   8.977  11.056   9.185  1.8394 -0.8121 -0.7714
 4156SOL    HW222783   8.994  10.973   9.060  0.9492  1.6915 -2.6447
 4157SOL     OW22784   8.109   2.217  10.901 -0.0193  0.2885 -0.0805
 4157SOL    HW122785   8.133   2.300  10.941  0.1127  1.7129 -2.8482
 4157SOL    HW222786   8.014   2.217  10.900 -0.0267  0.0792  0.5341
 4158SOL     OW22787   1.363   1.011   2.996  0.6692  0.2763  0.1410
 4158SOL    HW122788   1.360   0.946   2.927 -1.1719  0.2625  0.1798
 4158SOL    HW222789   1.422   0.975   3.062  3.2612  0.7382 -1.8037
 4159SOL     OW22790  11.959   9.236   9.522 -0.8400  0.1467 -0.4036
 4159SOL    HW122791  11.953   9.259   9.430 -2.5018  0.7388 -0.1935
 4159SOL    HW222792  12.046   9.198   9.533  0.1587  1.9380 -1.7786
 4160SOL     OW22793   7.622  10.914  11.202  0.4375 -0.3548 -0.0119
 4160SOL    HW122794   7.710  10.881  11.217  1.4361  1.5426 -1.3027
 4160SOL    HW222795   7.607  10.901  11.109  0.0859  0.9594 -0.1593
 4161SOL     OW22796   9.378   6.555   3.029 -0.1402  0.0486 -0.3817
 4161SOL    HW122797   9.373   6.565   2.934 -2.6619 -0.0953 -0.3391
 4161SOL    HW222798   9.306   6.608   3.062  0.8805  0.3234  1.5049
 4162SOL     OW22799   7.804  11.371   9.166 -0.1932 -0.5291 -0.4516
 4162SOL    HW122800   7.817  11.453   9.213  1.6416 -0.6168 -0.7393
 4162SOL    HW222801   7.878  11.365   9.107  0.3323 -2.9048  0.3256
 4163SOL     OW22802   9.170   9.370   9.512 -0.1877 -0.3478 -0.1038
 4163SOL    HW122803   9.229   9.347   9.584  1.0306  0.9019 -0.6389
 4163SOL    HW222804   9.152   9.288   9.468  0.7892 -0.8348  0.3690
 4164SOL     OW22805   7.045   7.539   3.673 -0.3661 -0.5342  0.0609
 4164SOL    HW122806   7.030   7.445   3.680  2.0166 -0.9051  1.0442
 4164SOL    HW222807   6.991   7.566   3.598 -1.6394 -2.5221  0.1805
 4165SOL     OW22808   6.409  10.206   9.377 -0.3590 -0.3834 -0.1801
 4165SOL    HW122809   6.473  10.259   9.330  0.0334 -1.8010 -1.3182
 4165SOL    HW222810   6.427  10.222   9.470 -0.3156  1.4860 -0.4705
 4166SOL     OW22811   8.764   9.819   3.177  0.3839 -0.2018 -0.2578
 4166SOL    HW122812   8.733   9.783   3.260  0.7704  0.1225  0.0297
 4166SOL    HW222813   8.685   9.857   3.137  0.4280  0.7914  0.5624
 4167SOL     OW22814   2.482   9.971   5.893 -0.3216  0.4223 -0.3116
 4167SOL    HW122815   2.528   9.887   5.899 -0.7040  0.0584 -2.0262
 4167SOL    HW222816   2.540  10.027   5.843 -1.2763  0.2536 -1.6718
 4168SOL     OW22817  11.340  10.881  12.902 -0.1449 -0.0285  0.0562
 4168SOL    HW122818  11.341  10.830  12.821  0.7847 -0.3605  0.2576
 4168SOL    HW222819  11.428  10.918  12.908 -0.5404  0.8794  0.3715
 4169SOL     OW22820   4.766   0.201  10.268 -0.9179  0.2021  0.6313
 4169SOL    HW122821   4.783   0.250  10.188 -0.9513 -0.7322  0.0378
 4169SOL    HW222822   4.714   0.260  10.322 -2.2261  0.2757 -0.6769
 4170SOL     OW22823   4.792   1.064   1.900 -0.5782  0.4359  0.0751
 4170SOL    HW122824   4.728   1.083   1.968 -0.5683 -0.3523  0.3045
 4170SOL    HW222825   4.856   1.135   1.907 -0.2218  0.0101  1.3189
 4171SOL     OW22826   0.928   8.172   8.634 -0.0785 -0.1052 -0.5399
 4171SOL    HW122827   0.898   8.084   8.609  0.3650 -0.5719  0.5101
 4171SOL    HW222828   0.857   8.208   8.686 -0.8173  0.6958 -2.0568
 4172SOL     OW22829  12.884   8.281   0.890  0.2662 -0.1181 -0.4594
 4172SOL    HW122830  12.929   8.286   0.806  1.8903  0.9443  0.4299
 4172SOL    HW222831  12.932   8.214   0.939  0.1202  0.1665  0.0755
 4173SOL     OW22832   2.710   0.041   7.317 -0.1756 -0.3969 -0.2288
 4173SOL    HW122833   2.777   0.059   7.250 -0.8292  2.5577 -0.1972
 4173SOL    HW222834   2.744   0.083   7.396 -1.2877 -0.3828  0.2478
 4174SOL     OW22835   6.863   3.361   8.635  0.2002 -0.2451  0.3511
 4174SOL    HW122836   6.888   3.286   8.690  0.4862  1.0411  2.0470
 4174SOL    HW222837   6.917   3.352   8.557 -1.3265 -2.9980 -0.5479
 4175SOL     OW22838   4.706   4.833   0.619 -0.2445 -0.0723 -0.0213
 4175SOL    HW122839   4.699   4.920   0.657  1.7006  0.7197 -1.3104
 4175SOL    HW222840   4.656   4.838   0.538 -0.9003 -0.4730  0.3453
 4176SOL     OW22841   8.051  11.526  12.984  0.3092 -0.4669 -0.1899
 4176SOL    HW122842   7.982  11.471  13.019  1.3967 -2.1849 -0.6030
 4176SOL    HW222843   8.132  11.488  13.019  1.0584  1.5671  0.3951
 4177SOL     OW22844   1.146   2.624   0.123 -0.6786 -0.1464  0.0603
 4177SOL    HW122845   1.093   2.576   0.059 -2.3218  1.3934  0.2069
 4177SOL    HW222846   1.084   2.682   0.167  1.0735  1.4818  0.4866
 4178SOL     OW22847   4.912   3.066  11.952  0.1095 -0.0669 -0.2102
 4178SOL    HW122848   4.921   3.091  11.861  0.5908 -1.4721 -0.5745
 4178SOL    HW222849   4.835   3.009  11.954  1.1989 -1.5855 -0.1142
 4179SOL     OW22850  10.948   3.595   8.032 -0.5480 -0.6903  0.3325
 4179SOL    HW122851  11.032   3.569   8.071 -0.4991 -1.5527 -0.3248
 4179SOL    HW222852  10.938   3.687   8.057 -1.0683 -1.4467  3.3366
 4180SOL     OW22853   8.762  11.809   4.983  0.1323 -0.4138  0.2822
 4180SOL    HW122854   8.677  11.768   4.964 -1.1671  1.6492  1.1999
 4180SOL    HW222855   8.754  11.839   5.074  1.6957  0.2250  0.2416
 4181SOL     OW22856   3.274   8.328   0.203 -0.3792  0.1228 -0.1073
 4181SOL    HW122857   3.291   8.260   0.138  1.0887 -0.2357  0.6109
 4181SOL    HW222858   3.203   8.292   0.257  0.1508 -0.6941  0.0593
 4182SOL     OW22859   8.495   0.371  11.970  0.0369 -0.3981  0.4552
 4182SOL    HW122860   8.461   0.449  12.014  0.6984  0.3206 -0.2645
 4182SOL    HW222861   8.477   0.299  12.030  0.7175  0.5101  1.7885
 4183SOL     OW22862  11.364   3.203   0.428 -0.0820  0.0878  0.2106
 4183SOL    HW122863  11.298   3.272   0.441 -0.5063  0.0184 -1.3583
 4183SOL    HW222864  11.437   3.228   0.485 -1.3083  0.3493  1.7252
 4184SOL     OW22865  12.450   4.334  10.059 -0.3176 -0.1632 -0.3518
 4184SOL    HW122866  12.523   4.339   9.997  0.1478 -2.2932 -0.0324
 4184SOL    HW222867  12.372   4.334  10.003  0.1229 -4.8367 -1.3411
 4185SOL     OW22868   4.517   6.914  11.195  0.2563 -0.3877  0.2973
 4185SOL    HW122869   4.532   6.824  11.165  2.3349  0.2878 -0.9307
 4185SOL    HW222870   4.443   6.945  11.143  0.1211 -1.0933  0.0593
 4186SOL     OW22871   0.517   7.791   0.888 -0.0582  0.5579 -0.2306
 4186SOL    HW122872   0.572   7.719   0.856 -0.5226 -0.4933  1.2322
 4186SOL    HW222873   0.577   7.849   0.934 -0.1421 -0.6276  1.4361
 4187SOL     OW22874   8.437   1.023   1.557  0.0979 -0.0614 -0.0082
 4187SOL    HW122875   8.352   1.030   1.514 -1.0554 -1.4509  1.8762
 4187SOL    HW222876   8.444   0.931   1.583  1.0371  0.5100  2.0089
 4188SOL     OW22877   1.571   1.596   0.662  0.0233 -0.2202  0.0543
 4188SOL    HW122878   1.518   1.566   0.588 -1.4842  0.8870  0.6148
 4188SOL    HW222879   1.660   1.572   0.640 -0.6948 -2.0917 -0.9906
 4189SOL     OW22880   9.881   2.309   1.055  0.0179 -0.0699  0.6791
 4189SOL    HW122881   9.922   2.307   0.968 -1.1032 -0.4207  0.1418
 4189SOL    HW222882   9.937   2.251   1.108  0.3864 -0.3167  0.0417
 4190SOL     OW22883   2.976   6.435   5.773 -0.1568  0.5145 -0.8905
 4190SOL    HW122884   3.054   6.388   5.744  0.6856  2.2349 -1.5556
 4190SOL    HW222885   2.929   6.456   5.692 -1.8275 -1.2638 -0.4570
 4191SOL     OW22886  10.857   3.772   9.304 -0.0733  0.1515 -0.2798
 4191SOL    HW122887  10.939   3.744   9.343 -0.4052 -1.0626 -0.4099
 4191SOL    HW222888  10.795   3.701   9.324 -0.7537  0.4336 -1.2765
 4192SOL     OW22889   8.470   4.884   7.032  0.1473  0.4689 -0.3096
 4192SOL    HW122890   8.508   4.871   7.119 -0.6002 -2.6811 -0.3332
 4192SOL    HW222891   8.545   4.908   6.977  0.9662  0.5662  0.7999
 4193SOL     OW22892  10.225   1.505   5.196 -0.3293  0.1263 -0.9012
 4193SOL    HW122893  10.276   1.545   5.267  0.1453 -1.1912 -0.4853
 4193SOL    HW222894  10.227   1.571   5.126  1.1995  0.4706 -0.5697
 4194SOL     OW22895   3.023  12.481   9.844  0.0446  0.0610  0.2386
 4194SOL    HW122896   2.994  12.547   9.907 -0.2718  0.7379 -0.5995
 4194SOL    HW222897   3.113  12.506   9.823 -0.6629  1.3600 -1.4734
 4195SOL     OW22898   0.083   9.721   4.058  0.4518  0.1657  0.6876
 4195SOL    HW122899   0.014   9.698   4.119 -1.1983  1.2947 -0.6497
 4195SOL    HW222900   0.098   9.815   4.073  0.1347  0.4222 -0.5007
 4196SOL     OW22901   5.066   9.562   8.567 -0.2347 -0.3172 -0.3635
 4196SOL    HW122902   5.087   9.653   8.590  0.8196 -0.5971 -0.1896
 4196SOL    HW222903   5.112   9.547   8.485  2.0622 -1.5763  1.0586
 4197SOL     OW22904   5.167  12.566   4.864 -0.5102 -0.1999  0.0470
 4197SOL    HW122905   5.093  12.601   4.814 -1.3137 -0.3531  1.0827
 4197SOL    HW222906   5.238  12.559   4.801 -0.5977  2.3828 -0.4395
 4198SOL     OW22907   7.128  10.154   6.322 -0.0037 -0.1271  0.2607
 4198SOL    HW122908   7.177  10.224   6.280  0.0546 -1.5146 -2.1735
 4198SOL    HW222909   7.037  10.170   6.296 -0.2568  0.0109  1.1863
 4199SOL     OW22910   3.419   3.048   2.974 -0.2288 -0.1963  0.1100
 4199SOL    HW122911   3.513   3.055   2.963 -0.2338 -0.1450  0.1021
 4199SOL    HW222912   3.390   2.994   2.900 -0.3089  0.4316 -0.3288
 4200SOL     OW22913  11.026   7.207   4.422  0.5624 -0.1436  0.0967
 4200SOL    HW122914  10.936   7.181   4.403 -0.0923  1.2636  1.1092
 4200SOL    HW222915  11.041   7.174   4.511  1.5565 -1.5618 -0.5554
 4201SOL     OW22916   4.078   4.464   3.563 -0.0994 -0.1759  0.0152
 4201SOL    HW122917   4.146   4.490   3.625 -0.8511 -1.7955  1.6312
 4201SOL    HW222918   3.999   4.456   3.616 -0.4857 -2.9810 -0.7916
 4202SOL     OW22919   0.335   0.701   7.659 -0.1950 -0.0814  0.1130
 4202SOL    HW122920   0.363   0.791   7.644 -0.2330 -0.0520  0.2133
 4202SOL    HW222921   0.326   0.663   7.572  0.4703 -0.1872  0.0831
 4203SOL     OW22922   2.750   5.372  11.864 -0.0795  0.2155  0.1230
 4203SOL    HW122923   2.791   5.418  11.791  0.0814  1.4351  0.9507
 4203SOL    HW222924   2.764   5.430  11.939  0.0530 -1.1600  1.1927
 4204SOL     OW22925   4.152   6.885   9.758  0.3368  0.2245 -0.1920
 4204SOL    HW122926   4.202   6.833   9.820 -0.8604 -0.5569  0.1424
 4204SOL    HW222927   4.130   6.965   9.806  0.9016  0.4025 -0.2153
 4205SOL     OW22928   2.182   5.799   5.941 -0.0431 -0.3186 -0.1347
 4205SOL    HW122929   2.221   5.827   6.024 -0.1622 -2.1748  0.5993
 4205SOL    HW222930   2.255   5.795   5.880  0.2261  0.0700  0.1616
 4206SOL     OW22931   2.659   4.176   7.496 -0.2287 -0.4634  0.2471
 4206SOL    HW122932   2.733   4.160   7.437 -0.1293  3.1423 -0.8658
 4206SOL    HW222933   2.700   4.192   7.581  0.0578 -0.7255  0.1607
 4207SOL     OW22934   1.543   1.708   1.597 -0.0053  0.1072  0.9563
 4207SOL    HW122935   1.470   1.648   1.584 -1.5611  1.3394  3.3569
 4207SOL    HW222936   1.600   1.663   1.660  0.2619  0.0340  0.6690
 4208SOL     OW22937   6.412   3.553   9.118  0.3324 -0.7036  0.5593
 4208SOL    HW122938   6.493   3.579   9.162  0.6843 -2.2004  0.8260
 4208SOL    HW222939   6.359   3.633   9.116  1.9637  0.4134  0.0113
 4209SOL     OW22940   6.854  12.745   7.918 -0.3148  0.0551  0.3887
 4209SOL    HW122941   6.919  12.676   7.931 -0.0918  0.1713 -0.1212
 4209SOL    HW222942   6.774  12.698   7.893  0.3612  0.0762 -2.0317
 4210SOL     OW22943   9.229   2.343   6.556 -0.1644  0.2924 -0.3455
 4210SOL    HW122944   9.242   2.260   6.602  0.5283  1.9134  2.6235
 4210SOL    HW222945   9.314   2.387   6.561 -0.5073  1.2010 -1.8827
 4211SOL     OW22946  10.659   2.142   1.740  0.4443  0.1479 -0.1858
 4211SOL    HW122947  10.753   2.126   1.739  0.2000 -1.4562  0.2262
 4211SOL    HW222948  10.635   2.145   1.832  0.2848  2.1161 -0.2302
 4212SOL     OW22949   5.174  10.077   2.037 -0.4320 -0.2075  0.6935
 4212SOL    HW122950   5.217  10.047   1.958 -0.7119  3.3706 -1.0220
 4212SOL    HW222951   5.144   9.997   2.080  1.9426 -2.4401 -1.4430
 4213SOL     OW22952   1.099   1.783   8.113  0.2704 -0.1275  0.5111
 4213SOL    HW122953   1.075   1.708   8.168  0.1315 -0.5308 -0.0879
 4213SOL    HW222954   1.182   1.758   8.074  0.2924  0.0926  0.4180
 4214SOL     OW22955   4.692   7.041   3.994 -0.0393 -0.0723 -0.8208
 4214SOL    HW122956   4.711   6.951   3.968 -1.4710 -0.3712 -0.9216
 4214SOL    HW222957   4.616   7.033   4.052 -0.1032  1.0584 -0.7302
 4215SOL     OW22958   4.802   0.556  12.548 -0.1127  0.1654 -0.1697
 4215SOL    HW122959   4.813   0.599  12.633  0.9208  1.8248 -1.0764
 4215SOL    HW222960   4.881   0.504  12.537  0.7416  1.5731 -0.9572
 4216SOL     OW22961   7.641  11.850  10.772  0.0091 -0.4527  0.1210
 4216SOL    HW122962   7.681  11.931  10.804  0.5539 -0.5922 -0.1753
 4216SOL    HW222963   7.680  11.837  10.685  0.1648 -1.1862  0.2904
 4217SOL     OW22964   1.835   1.860   2.762  0.4042  0.2194 -0.0187
 4217SOL    HW122965   1.902   1.795   2.742 -1.3719 -1.2360 -1.5331
 4217SOL    HW222966   1.798   1.831   2.845 -0.4404 -0.8050 -0.7312
 4218SOL     OW22967  10.470   7.893   7.275  0.7984 -0.1243 -0.0099
 4218SOL    HW122968  10.416   7.967   7.302  1.1263 -0.1492  0.7452
 4218SOL    HW222969  10.481   7.841   7.355  0.8673 -0.7982 -0.4498
 4219SOL     OW22970   1.706  10.495  11.051  0.8839  0.0144 -0.0516
 4219SOL    HW122971   1.656  10.475  10.973  2.1134  2.2159 -1.5065
 4219SOL    HW222972   1.789  10.449  11.039  0.6504 -0.5838  0.5493
 4220SOL     OW22973   2.449   2.403   9.561  0.1708 -0.2323 -0.0302
 4220SOL    HW122974   2.441   2.431   9.652  1.0040  0.0170 -0.0220
 4220SOL    HW222975   2.542   2.382   9.550  0.2223  0.3936 -0.9925
 4221SOL     OW22976   5.768   3.958   8.186  0.0653  0.1939  0.0991
 4221SOL    HW122977   5.851   3.935   8.145  1.4944  2.3600  1.5577
 4221SOL    HW222978   5.702   3.941   8.119  1.8650 -0.0751 -1.6740
 4222SOL     OW22979   6.510   2.621   8.422  0.3148  0.9762 -0.2499
 4222SOL    HW122980   6.439   2.597   8.363  0.4918 -0.0812 -0.0424
 4222SOL    HW222981   6.542   2.538   8.458  3.7920  1.0177 -2.7302
 4223SOL     OW22982  10.364  10.400   5.184 -0.0096  0.0582  0.3608
 4223SOL    HW122983  10.423  10.406   5.259  0.7830  0.9251 -0.3093
 4223SOL    HW222984  10.286  10.448   5.211  0.7547  1.4474  0.2178
 4224SOL     OW22985  12.513   9.657   3.650  0.1896  0.8216  0.5376
 4224SOL    HW122986  12.418   9.647   3.657  0.2111  0.4413  0.3227
 4224SOL    HW222987  12.548   9.574   3.683  0.3862  0.2542 -1.0007
 4225SOL     OW22988   2.195   5.823   3.594  0.2635  0.0322  0.2677
 4225SOL    HW122989   2.283   5.845   3.563  0.4138 -0.0338  0.6467
 4225SOL    HW222990   2.148   5.906   3.595  1.0754  0.5085  2.4970
 4226SOL     OW22991   6.179   7.293   6.819  0.7091  0.3829  0.4008
 4226SOL    HW122992   6.138   7.312   6.734 -1.3784 -2.8390  0.5078
 4226SOL    HW222993   6.260   7.248   6.797 -0.4120 -1.5544 -0.0192
 4227SOL     OW22994  12.902   0.285  11.171 -0.3174 -0.6609 -0.0596
 4227SOL    HW122995  12.851   0.215  11.131 -2.1383  1.0163 -0.8628
 4227SOL    HW222996  12.906   0.262  11.264  0.5726 -2.6131 -0.5320
 4228SOL     OW22997  12.361   4.450   8.583 -0.2117  0.0891  0.2931
 4228SOL    HW122998  12.432   4.484   8.636  1.2329 -0.8225 -0.9722
 4228SOL    HW222999  12.350   4.514   8.513 -1.3822  0.7464  1.0371
 4229SOL     OW23000   8.148   4.689   0.634 -0.1772 -0.3889  0.4929
 4229SOL    HW123001   8.162   4.774   0.594 -0.2799 -0.4727  0.2772
 4229SOL    HW223002   8.118   4.633   0.562  0.2857 -0.7101  0.5453
 4230SOL     OW23003   1.340   9.560   0.976  0.3828 -0.3736  0.0061
 4230SOL    HW123004   1.362   9.583   0.886  1.6530 -0.8224  0.1818
 4230SOL    HW223005   1.246   9.576   0.983 -0.1323 -2.1014 -1.9480
 4231SOL     OW23006   1.880   4.221  11.665 -0.4609  0.3410 -0.0280
 4231SOL    HW123007   1.861   4.308  11.629 -0.7151  0.8603  1.2861
 4231SOL    HW223008   1.830   4.218  11.747 -1.0477 -1.3444 -0.4089
 4232SOL     OW23009   1.225   5.180   1.505 -0.0623  0.2664 -0.3518
 4232SOL    HW123010   1.272   5.129   1.572 -0.0762 -0.1662 -0.6650
 4232SOL    HW223011   1.259   5.269   1.515  0.2457  0.1199 -0.0494
 4233SOL     OW23012   4.311   6.642   1.243  0.0615  0.3420  0.4366
 4233SOL    HW123013   4.239   6.613   1.187 -1.1430  2.6759  0.6369
 4233SOL    HW223014   4.275   6.637   1.332  1.5610 -2.2305  0.9857
 4234SOL     OW23015   2.439  10.749  10.219  0.3527 -0.2289  0.6462
 4234SOL    HW123016   2.486  10.741  10.136 -1.1599  0.6967 -0.3467
 4234SOL    HW223017   2.434  10.843  10.235  0.5297 -0.3873  1.7495
 4235SOL     OW23018  12.366  10.044   1.176  0.3026 -0.2985  0.2969
 4235SOL    HW123019  12.312  10.084   1.108 -2.0458 -1.6578  1.2356
 4235SOL    HW223020  12.366   9.950   1.156 -1.2702 -0.8876  2.5781
 4236SOL     OW23021   0.541   5.111   6.131  0.2734  0.3796 -0.1671
 4236SOL    HW123022   0.456   5.070   6.147 -0.5124  1.4831 -1.3287
 4236SOL    HW223023   0.594   5.042   6.090 -0.0800 -0.2825  0.4723
 4237SOL     OW23024   8.709   7.952   4.931 -0.2452  0.2881 -0.2821
 4237SOL    HW123025   8.689   8.000   5.011  2.7839  0.2259  0.6662
 4237SOL    HW223026   8.638   7.974   4.870 -0.9367  2.9557  1.3371
 4238SOL     OW23027  12.038   6.046  12.845  0.0656 -0.2487  0.0275
 4238SOL    HW123028  11.953   6.005  12.829  0.4086 -1.0324  0.1398
 4238SOL    HW223029  12.099   5.999  12.788  0.2171  1.1677 -1.0079
 4239SOL     OW23030   4.666   8.442   4.713  0.3183 -0.0929  0.2721
 4239SOL    HW123031   4.635   8.389   4.639  0.1127  0.1607  0.1788
 4239SOL    HW223032   4.633   8.530   4.696  1.1401  0.1975  0.1297
 4240SOL     OW23033  12.929   7.283   7.197  0.0104 -0.0950 -0.3380
 4240SOL    HW123034  13.011   7.325   7.225 -1.1598  1.3463  1.1427
 4240SOL    HW223035  12.884   7.262   7.279 -1.0015 -1.0819 -1.1225
 4241SOL     OW23036  12.070   6.210  10.165 -0.0656 -0.4431 -0.4737
 4241SOL    HW123037  12.035   6.137  10.217  2.0332 -1.1265  0.0821
 4241SOL    HW223038  12.056   6.183  10.075 -0.8222 -0.7485 -0.2777
 4242SOL     OW23039   5.502   8.532  12.887  0.5310  0.1380 -0.6903
 4242SOL    HW123040   5.424   8.497  12.844  1.9708 -1.1522 -2.4416
 4242SOL    HW223041   5.472   8.611  12.931 -2.1589 -1.3657  0.4211
 4243SOL     OW23042   5.662  10.831  12.189 -0.2168  0.0035 -0.3595
 4243SOL    HW123043   5.617  10.756  12.151 -0.1942  0.3787 -1.1485
 4243SOL    HW223044   5.644  10.903  12.129 -0.8996  0.8324  0.7931
 4244SOL     OW23045   9.500   9.713  10.699  0.5742 -0.3103  0.1419
 4244SOL    HW123046   9.551   9.783  10.658  0.5078  1.2019  2.4230
 4244SOL    HW223047   9.535   9.633  10.662  1.7582  0.8697 -1.4161
 4245SOL     OW23048  11.357   0.833   0.132  0.1464  0.3865 -0.0287
 4245SOL    HW123049  11.444   0.857   0.164 -0.2717  0.0106  1.4927
 4245SOL    HW223050  11.316   0.916   0.108  0.7619  0.6089 -0.3084
 4246SOL     OW23051   1.434   1.249   6.186 -0.1829 -0.5134 -0.3738
 4246SOL    HW123052   1.387   1.255   6.269  0.3974  1.1773 -0.1421
 4246SOL    HW223053   1.405   1.325   6.136  0.8787 -0.4728 -0.9630
 4247SOL     OW23054   6.238  11.015   6.619  0.5872  0.4851 -0.7417
 4247SOL    HW123055   6.247  11.069   6.541 -2.0758 -1.7400 -2.7529
 4247SOL    HW223056   6.256  10.926   6.590 -0.6259 -0.4381  1.1000
 4248SOL     OW23057   0.817  11.241   5.205 -0.4805  0.2784 -0.5208
 4248SOL    HW123058   0.784  11.174   5.146 -0.3304  1.0240 -1.4646
 4248SOL    HW223059   0.870  11.298   5.150 -0.0779  0.8047  0.3957
 4249SOL     OW23060   4.312   5.614   0.313  0.0599  0.7444  0.2301
 4249SOL    HW123061   4.248   5.684   0.305 -1.9009 -1.0010 -0.2891
 4249SOL    HW223062   4.368   5.624   0.236 -3.2872 -1.0906 -2.7258
 4250SOL     OW23063   0.724   7.008   7.818  0.2369  0.2644  0.2293
 4250SOL    HW123064   0.749   7.075   7.881  1.2077 -0.9488  1.1973
 4250SOL    HW223065   0.782   6.934   7.837 -0.5394 -0.7204 -1.0316
 4251SOL     OW23066  12.749   7.240   4.303  0.0217  0.0451  0.5074
 4251SOL    HW123067  12.769   7.307   4.238  0.8132  0.1973  0.8875
 4251SOL    HW223068  12.834   7.198   4.320 -0.1541  0.0799  1.5054
 4252SOL     OW23069  11.445   4.694   8.374  0.5570  0.2872  0.4111
 4252SOL    HW123070  11.505   4.701   8.448 -0.9746  1.8018  1.6052
 4252SOL    HW223071  11.358   4.702   8.414 -0.3609 -0.0207 -1.4435
 4253SOL     OW23072   8.407   4.286   7.081  0.1146  0.0476  0.1422
 4253SOL    HW123073   8.320   4.286   7.121 -0.4005 -1.3384 -0.8830
 4253SOL    HW223074   8.421   4.377   7.054 -0.5654  0.4913  1.2440
 4254SOL     OW23075  10.944   8.242   0.650 -0.1549 -0.0445 -0.0413
 4254SOL    HW123076  10.946   8.189   0.570  0.8070  0.2844 -0.2397
 4254SOL    HW223077  11.030   8.284   0.654  0.2886 -1.0251  1.8164
 4255SOL     OW23078   8.253  11.098   1.707 -0.4697  0.1440  0.0715
 4255SOL    HW123079   8.211  11.119   1.790  0.3296  0.0317  0.5134
 4255SOL    HW223080   8.322  11.036   1.729  0.0895  0.5100 -0.6003
 4256SOL     OW23081   3.386  11.942  10.963 -0.8070 -0.2942 -0.5748
 4256SOL    HW123082   3.304  11.898  10.943 -1.5041  0.3119  0.8043
 4256SOL    HW223083   3.360  12.029  10.993  0.3148 -0.1610  0.0834
 4257SOL     OW23084   9.437  11.885   3.809  0.0760 -0.6548 -0.0724
 4257SOL    HW123085   9.457  11.920   3.896  0.7069  0.1382 -0.5345
 4257SOL    HW223086   9.420  11.962   3.755  0.5165 -1.1029 -0.8650
 4258SOL     OW23087   8.811  11.107   1.794  0.1492 -0.4234 -0.1862
 4258SOL    HW123088   8.806  11.122   1.888 -4.4309  0.7714 -0.3579
 4258SOL    HW223089   8.856  11.184   1.759 -0.5520  0.5003  0.8913
 4259SOL     OW23090  11.794  11.023   3.680  0.7618  0.5138  0.5176
 4259SOL    HW123091  11.704  10.988   3.674  0.0242  2.4765 -0.7719
 4259SOL    HW223092  11.831  11.006   3.593  1.1346  0.9744  0.5885
 4260SOL     OW23093   2.066   9.976   8.246 -0.4159 -0.2922 -0.1829
 4260SOL    HW123094   2.107  10.019   8.171  1.4214  2.8580  2.3463
 4260SOL    HW223095   2.000  10.039   8.276 -0.8651 -1.3045  1.0075
 4261SOL     OW23096   6.348   7.315   9.869 -0.4903  0.6808 -0.4193
 4261SOL    HW123097   6.348   7.392   9.927 -2.2871  0.9835 -0.7600
 4261SOL    HW223098   6.437   7.312   9.833  1.9286 -1.3259  4.6031
 4262SOL     OW23099   1.967   2.890  11.969 -0.3819  0.0630  0.3453
 4262SOL    HW123100   2.042   2.858  12.018 -0.9550  0.5080  1.5608
 4262SOL    HW223101   2.003   2.955  11.909 -0.0049  1.7451  2.2968
 4263SOL     OW23102   8.020   8.815   3.129 -0.1286  0.6190  0.1859
 4263SOL    HW123103   8.002   8.906   3.105 -0.9282 -0.1460 -2.5589
 4263SOL    HW223104   7.935   8.771   3.121  0.3145 -0.4508  1.0940
 4264SOL     OW23105  11.836   0.544  12.796  0.0684  0.4081  0.1916
 4264SOL    HW123106  11.802   0.600  12.725 -1.2063 -1.1012 -0.4506
 4264SOL    HW223107  11.867   0.465  12.751  0.4130 -0.0491  1.2127
 4265SOL     OW23108   5.740  10.874   8.066 -0.2556 -0.2874 -0.4839
 4265SOL    HW123109   5.727  10.884   8.160  0.0131  0.2592 -0.5026
 4265SOL    HW223110   5.786  10.790   8.057  2.1916  0.8993  0.1044
 4266SOL     OW23111   6.711   1.168   9.026 -0.5894 -0.0244  0.0089
 4266SOL    HW123112   6.748   1.096   9.077 -1.2438  0.4140  1.1091
 4266SOL    HW223113   6.617   1.158   9.035 -0.6834  1.1661  0.4489
 4267SOL     OW23114   9.029  11.741  11.800  0.1656  0.2045 -0.0138
 4267SOL    HW123115   9.073  11.738  11.885  0.9038 -0.2628 -0.3890
 4267SOL    HW223116   9.051  11.827  11.764 -0.1269  0.3919  0.2570
 4268SOL     OW23117   9.608   8.603   8.335 -0.1626 -0.0571  0.6905
 4268SOL    HW123118   9.518   8.613   8.303  0.3446  1.5754 -0.3725
 4268SOL    HW223119   9.604   8.629   8.427 -0.9077 -0.7234  0.8511
 4269SOL     OW23120   2.589   6.824   7.024  0.0732  0.3720  0.8393
 4269SOL    HW123121   2.664   6.847   6.969 -1.2785 -0.1229 -1.3223
 4269SOL    HW223122   2.565   6.905   7.068  1.9229  0.5079  1.6943
 4270SOL     OW23123  11.372   3.161   2.491  0.2947  0.0638  0.0131
 4270SOL    HW123124  11.439   3.192   2.430 -0.3333  1.0369 -0.1984
 4270SOL    HW223125  11.420   3.143   2.572  1.0662 -0.8505 -0.6179
 4271SOL     OW23126   6.396   1.905   0.151 -0.3014 -0.0674  0.2807
 4271SOL    HW123127   6.399   1.977   0.214 -0.9279  1.5937 -1.5093
 4271SOL    HW223128   6.400   1.947   0.065 -0.3152 -2.1985 -0.8421
 4272SOL     OW23129   0.930   9.067   8.244  0.5629 -0.4807  0.1788
 4272SOL    HW123130   0.980   9.119   8.181 -1.3510 -0.1548 -1.1475
 4272SOL    HW223131   0.839   9.094   8.231  0.0156 -0.8235  2.7007
 4273SOL     OW23132   1.225   2.023  11.852 -0.2258 -0.6306 -0.8314
 4273SOL    HW123133   1.234   2.095  11.790 -0.0563 -0.8319 -1.0433
 4273SOL    HW223134   1.311   2.019  11.895 -0.9463  0.8206  0.8692
 4274SOL     OW23135   4.322  10.356  12.518  0.3530  0.3014 -0.1377
 4274SOL    HW123136   4.307  10.322  12.430 -0.4803 -0.6305  0.3460
 4274SOL    HW223137   4.263  10.431  12.525 -0.6576 -0.4799  0.0912
 4275SOL     OW23138   4.464  10.201   8.173 -0.2318  0.4694 -0.2123
 4275SOL    HW123139   4.469  10.260   8.098 -1.7641  0.7884 -0.1025
 4275SOL    HW223140   4.387  10.231   8.222 -1.3247 -1.8160 -0.3587
 4276SOL     OW23141   9.549   2.518  11.443 -0.2307 -0.4379  0.2721
 4276SOL    HW123142   9.642   2.517  11.468 -0.4846 -0.6608  1.2248
 4276SOL    HW223143   9.526   2.425  11.434 -0.5825 -0.4162  0.8954
 4277SOL     OW23144  12.520   8.834   8.535 -0.2833 -0.3495  0.3981
 4277SOL    HW123145  12.592   8.842   8.598 -0.4338  1.4503  0.3877
 4277SOL    HW223146  12.486   8.745   8.548  2.2722 -1.4711  0.0219
 4278SOL     OW23147   2.175   4.269   2.996 -0.3799 -0.1274  0.4655
 4278SOL    HW123148   2.241   4.270   2.927  0.5515 -0.6254  1.3244
 4278SOL    HW223149   2.196   4.192   3.049 -0.9497  0.3483  1.4243
 4279SOL     OW23150   4.926   0.163   3.860  0.2299 -0.0157  0.4599
 4279SOL    HW123151   4.968   0.200   3.938  1.9350  0.0032 -0.4206
 4279SOL    HW223152   4.873   0.091   3.894  1.1562 -0.1924  1.6343
 4280SOL     OW23153   3.236   2.122   5.200 -0.5228  0.0540  0.1146
 4280SOL    HW123154   3.177   2.071   5.144  0.0783 -0.9653  0.3766
 4280SOL    HW223155   3.273   2.188   5.142 -2.4648  1.2231  0.1043
 4281SOL     OW23156   4.948   6.053   4.406 -0.8726  0.1474  0.5118
 4281SOL    HW123157   4.918   6.141   4.383 -1.4309 -0.4119 -1.0227
 4281SOL    HW223158   4.908   6.035   4.490 -2.8496  0.4072 -0.3205
 4282SOL     OW23159  10.166   6.108   0.283  1.0569  0.1482 -0.3410
 4282SOL    HW123160  10.254   6.139   0.262  1.0350  0.0944 -0.5127
 4282SOL    HW223161  10.145   6.149   0.367  0.5257  1.6505 -1.1722
 4283SOL     OW23162  10.860   0.321   6.734  0.2217 -0.6019  0.5336
 4283SOL    HW123163  10.821   0.282   6.812 -0.9046 -0.3082  0.1441
 4283SOL    HW223164  10.786   0.364   6.690  0.8474 -0.6906 -0.6371
 4284SOL     OW23165   9.145   1.241  10.120  0.6091  0.0215  0.4931
 4284SOL    HW123166   9.095   1.178  10.068 -1.0736 -0.4096  2.4633
 4284SOL    HW223167   9.084   1.268  10.189  2.9640 -0.2660  2.8565
 4285SOL     OW23168   9.449   5.091   7.690  0.1736  0.0160 -0.5727
 4285SOL    HW123169   9.404   5.096   7.774  0.9744  1.0689 -0.1821
 4285SOL    HW223170   9.397   5.029   7.639 -0.6243 -0.2453  0.5068
 4286SOL     OW23171   7.303   0.037   5.121 -0.4273  0.0155 -0.3216
 4286SOL    HW123172   7.343   0.023   5.207 -0.8217  1.8846  0.2239
 4286SOL    HW223173   7.377   0.045   5.061 -0.1524 -3.2936 -0.6160
 4287SOL     OW23174  10.923   9.543   8.383  0.0127  0.3181 -0.0731
 4287SOL    HW123175  10.936   9.485   8.458 -1.0637  0.4690  0.2507
 4287SOL    HW223176  10.934   9.487   8.307 -0.4396 -0.1903  0.2271
 4288SOL     OW23177   8.105   8.064   3.775 -0.2345 -0.4176 -0.0241
 4288SOL    HW123178   8.047   8.089   3.704  0.6874  0.5504 -0.4629
 4288SOL    HW223179   8.053   8.075   3.854 -0.6121  0.5602 -0.4004
 4289SOL     OW23180  11.589   3.930   2.649 -0.0315 -0.0156  0.3680
 4289SOL    HW123181  11.675   3.970   2.640  0.3295 -0.6307  1.0106
 4289SOL    HW223182  11.532   4.001   2.680  0.1446  0.4871 -0.4327
 4290SOL     OW23183   6.516  12.685   9.320  0.5004  0.2679 -0.3040
 4290SOL    HW123184   6.501  12.690   9.225 -0.5078  0.2937 -0.1591
 4290SOL    HW223185   6.436  12.646   9.355  1.1251 -0.3524  0.4806
 4291SOL     OW23186   1.184  10.031   9.459  0.1701  0.0564 -0.5813
 4291SOL    HW123187   1.090  10.022   9.443  0.3017 -1.9547 -0.4725
 4291SOL    HW223188   1.192  10.028   9.555  0.1046  3.9259 -0.2768
 4292SOL     OW23189  12.018  11.583   2.111  0.0265 -0.4020 -0.3231
 4292SOL    HW123190  12.060  11.628   2.038  0.3841  1.3340  0.8799
 4292SOL    HW223191  12.072  11.505   2.125  2.2982  1.1863  0.4751
 4293SOL     OW23192   9.853   1.589  11.591 -0.0149 -0.0194 -0.3334
 4293SOL    HW123193   9.808   1.674  11.587 -0.2542 -0.1704 -0.8377
 4293SOL    HW223194   9.908   1.587  11.513  0.2408 -0.1924 -0.1519
 4294SOL     OW23195   1.715   9.763   1.629 -0.4214  0.1796 -0.3501
 4294SOL    HW123196   1.717   9.847   1.675  0.7077 -0.8715  1.6663
 4294SOL    HW223197   1.750   9.781   1.542 -0.3169  1.8054  0.0059
 4295SOL     OW23198   6.134   0.574  10.165 -0.3084  0.6286 -0.0498
 4295SOL    HW123199   6.188   0.509  10.119  0.1913  0.7732  0.3197
 4295SOL    HW223200   6.140   0.652  10.111 -2.1310 -0.0434 -1.2961
 4296SOL     OW23201   9.260   5.304   4.963 -0.3503 -0.2895 -0.5186
 4296SOL    HW123202   9.250   5.386   5.011  0.1642 -0.7724  0.4488
 4296SOL    HW223203   9.338   5.316   4.910 -0.9297  0.2530 -1.2812
 4297SOL     OW23204  11.170   1.174  12.799 -0.2294 -0.0718  0.1203
 4297SOL    HW123205  11.085   1.208  12.829  0.0330 -0.7576  1.7091
 4297SOL    HW223206  11.201   1.240  12.737 -1.6455  0.4899 -0.0362
 4298SOL     OW23207   5.872   7.186   6.601 -0.0104 -0.3417 -0.3342
 4298SOL    HW123208   5.908   7.148   6.681 -0.9811  3.7915  2.3805
 4298SOL    HW223209   5.946   7.232   6.561  0.4104 -2.1887 -1.8059
 4299SOL     OW23210   4.240   5.203   9.588 -0.4844  0.5482  0.1538
 4299SOL    HW123211   4.298   5.277   9.606  0.1078  0.5116 -1.4904
 4299SOL    HW223212   4.160   5.243   9.555 -0.3267  0.4805 -0.3149
 4300SOL     OW23213   8.914   4.275   4.481 -0.1875  0.4336 -0.2739
 4300SOL    HW123214   8.967   4.350   4.453  1.9345 -1.5225 -2.0099
 4300SOL    HW223215   8.954   4.246   4.563 -1.6775  1.7427  0.9698
 4301SOL     OW23216   2.536  12.114   7.980  0.2687  0.0154 -0.3178
 4301SOL    HW123217   2.625  12.138   7.955  0.4577 -1.7198 -1.5321
 4301SOL    HW223218   2.507  12.055   7.910 -2.0902  1.0398 -0.2951
 4302SOL     OW23219   2.870   2.625   9.603 -0.3661  0.3049 -0.2251
 4302SOL    HW123220   2.859   2.563   9.531  0.1404  0.9747 -0.8861
 4302SOL    HW223221   2.780   2.644   9.631 -0.5177 -2.1418  1.2541
 4303SOL     OW23222   6.246  11.494   7.914  0.5059 -0.0276 -0.2380
 4303SOL    HW123223   6.289  11.550   7.849 -1.2314 -0.2758 -1.6873
 4303SOL    HW223224   6.181  11.552   7.954  1.2363 -0.0175  0.9760
 4304SOL     OW23225   1.744   3.302   3.040 -0.1528  0.1225  0.0309
 4304SOL    HW123226   1.732   3.391   3.072  1.1699  1.0938 -2.0322
 4304SOL    HW223227   1.821   3.270   3.086 -0.2205  0.2700  0.2511
 4305SOL     OW23228   6.312   4.379   7.083 -0.3596  0.0882  0.1758
 4305SOL    HW123229   6.377   4.322   7.041  1.8277  2.0395  0.7492
 4305SOL    HW223230   6.269   4.322   7.147  0.1904 -1.4774 -0.7899
 4306SOL     OW23231   4.818   6.765   2.904 -0.1004  0.2252 -0.1191
 4306SOL    HW123232   4.810   6.814   2.823  0.5228 -0.2251 -0.4606
 4306SOL    HW223233   4.818   6.673   2.877 -0.8101  0.0386  0.4720
 4307SOL     OW23234   5.342   1.083   9.900 -0.3522  0.4483 -0.3312
 4307SOL    HW123235   5.427   1.044   9.917 -1.1384 -1.2766 -0.1308
 4307SOL    HW223236   5.346   1.169   9.942  1.0182  0.0754  0.3482
 4308SOL     OW23237   3.154   3.565   4.870  0.1557  0.5143 -0.6299
 4308SOL    HW123238   3.121   3.529   4.952  0.4340  1.3593 -0.1418
 4308SOL    HW223239   3.086   3.625   4.840  0.8983  1.7218  0.0192
 4309SOL     OW23240   7.628   7.850  10.742  1.0668 -0.0901  0.4806
 4309SOL    HW123241   7.691   7.875  10.810 -0.9409  1.6844  1.8040
 4309SOL    HW223242   7.663   7.887  10.661  1.8053  0.7291  1.1616
 4310SOL     OW23243   8.335   0.782   4.934  0.2338 -0.3111 -0.4704
 4310SOL    HW123244   8.319   0.827   5.017  0.5078  1.4167 -1.3077
 4310SOL    HW223245   8.250   0.747   4.908  0.0456 -0.4281  0.2897
 4311SOL     OW23246   3.209  11.594   2.811 -0.1436 -0.1706  0.1375
 4311SOL    HW123247   3.177  11.504   2.804  0.9093 -0.5020 -0.7463
 4311SOL    HW223248   3.258  11.596   2.893  1.7249 -1.0687 -0.8938
 4312SOL     OW23249  12.112   1.949   0.210 -0.2091 -0.2596  1.1422
 4312SOL    HW123250  12.045   1.881   0.214 -1.1897  0.6430  0.5515
 4312SOL    HW223251  12.110   1.979   0.119 -0.2943  1.0451  1.5552
 4313SOL     OW23252  12.817   6.287   1.287  0.1137  0.0484 -0.5224
 4313SOL    HW123253  12.894   6.246   1.248 -0.3244 -0.8131 -0.5249
 4313SOL    HW223254  12.820   6.378   1.258  0.0777 -0.4363 -2.1484
 4314SOL     OW23255   5.534   2.170   6.809 -0.8462 -0.3793  0.0001
 4314SOL    HW123256   5.544   2.207   6.897 -1.0322 -0.7999  0.2074
 4314SOL    HW223257   5.439   2.167   6.795 -0.8177 -0.3285 -0.2101
 4315SOL     OW23258  10.562  11.569   3.284  0.2281  0.5632  0.1384
 4315SOL    HW123259  10.515  11.633   3.336  0.3746  1.0393 -0.3067
 4315SOL    HW223260  10.493  11.522   3.236 -0.2180 -1.8872  2.8629
 4316SOL     OW23261   0.420  12.180   6.876 -0.5426  0.0285  0.3409
 4316SOL    HW123262   0.436  12.235   6.799  0.6840 -0.3819  0.2777
 4316SOL    HW223263   0.503  12.181   6.923 -1.6047  1.2084  2.2904
 4317SOL     OW23264   6.414   9.185   5.986 -0.1805  0.0200  0.0777
 4317SOL    HW123265   6.455   9.269   5.971  0.6905  0.0263  2.1223
 4317SOL    HW223266   6.328   9.192   5.945  0.0461  1.7345 -0.1581
 4318SOL     OW23267   6.541   0.600   4.506  0.0369 -0.0290 -0.1825
 4318SOL    HW123268   6.595   0.639   4.437 -0.3305 -0.5749 -0.7933
 4318SOL    HW223269   6.453   0.631   4.487 -0.6292 -2.5889 -1.8491
 4319SOL     OW23270   3.786   6.414   9.358 -0.6953 -0.1513 -0.5560
 4319SOL    HW123271   3.877   6.441   9.346  0.2327 -2.1473  1.3075
 4319SOL    HW223272   3.779   6.331   9.311 -0.9612 -0.9827  0.8962
 4320SOL     OW23273   5.782   8.105  12.411 -0.1511 -0.1260  0.1835
 4320SOL    HW123274   5.754   8.196  12.421 -0.0123 -0.2871  2.5926
 4320SOL    HW223275   5.700   8.055  12.411 -0.1523 -0.1865  1.9053
 4321SOL     OW23276   5.800  10.503   7.316  0.4866  0.6797 -0.0253
 4321SOL    HW123277   5.790  10.544   7.231 -1.3273  0.6603  0.1480
 4321SOL    HW223278   5.873  10.550   7.357 -0.4610  2.6359 -0.4656
 4322SOL     OW23279  10.531  12.710   3.256 -0.2989  0.0093 -0.0191
 4322SOL    HW123280  10.597  12.696   3.188 -2.0084  2.1730 -2.2991
 4322SOL    HW223281  10.558  12.791   3.299 -0.5151 -0.0712  0.2711
 4323SOL     OW23282   6.434  10.143   7.803  0.6802 -0.0433  0.9122
 4323SOL    HW123283   6.428  10.051   7.775 -1.6788  0.4808 -0.5690
 4323SOL    HW223284   6.509  10.178   7.754  0.4889 -0.7622  0.0683
 4324SOL     OW23285   7.269   9.948   5.706  0.0534 -0.0606 -0.4579
 4324SOL    HW123286   7.281   9.982   5.795 -1.5719  1.2244 -0.6749
 4324SOL    HW223287   7.348   9.973   5.659  0.8062 -0.5000  0.5338
 4325SOL     OW23288   4.163  10.657  10.772 -0.0209 -0.5953  0.2631
 4325SOL    HW123289   4.093  10.592  10.777  0.1149 -1.1554 -2.9557
 4325SOL    HW223290   4.142  10.708  10.694  1.1417  1.7912  1.3919
 4326SOL     OW23291   1.694   7.734   2.486 -0.3109 -0.1657 -0.4961
 4326SOL    HW123292   1.743   7.775   2.415 -2.1068  1.9014 -0.6162
 4326SOL    HW223293   1.606   7.721   2.452  0.0408 -4.1039 -0.3890
 4327SOL     OW23294   5.691   1.763   3.574 -0.0955 -0.0588  0.1016
 4327SOL    HW123295   5.634   1.686   3.583 -1.1005  0.8736  2.5592
 4327SOL    HW223296   5.755   1.755   3.645  1.5780 -0.0044 -1.3359
 4328SOL     OW23297   6.700  11.272   9.312  0.2495 -0.1790 -0.4940
 4328SOL    HW123298   6.627  11.334   9.305  1.8422  2.0429  1.1140
 4328SOL    HW223299   6.669  11.205   9.373 -0.1546  1.2516  0.9184
 4329SOL     OW23300   9.473   8.318  10.597 -0.3793  0.1539  0.1845
 4329SOL    HW123301   9.390   8.321  10.549 -0.6325  0.2417  0.6275
 4329SOL    HW223302   9.450   8.288  10.685  0.0114  0.5019  0.4132
 4330SOL     OW23303  10.332   7.053   1.354 -0.5645 -0.6693  0.1144
 4330SOL    HW123304  10.415   7.006   1.339  0.1895  0.6039  0.1050
 4330SOL    HW223305  10.309   7.088   1.269  0.3524  1.2456  0.6030
 4331SOL     OW23306  11.295  12.127   1.844 -0.1317  0.2764  0.2644
 4331SOL    HW123307  11.282  12.213   1.884 -1.9254 -0.4831  1.4573
 4331SOL    HW223308  11.287  12.066   1.917 -1.3018 -1.0460 -0.9159
 4332SOL     OW23309   4.192   1.233   0.774  0.3069  0.1294 -0.3960
 4332SOL    HW123310   4.238   1.162   0.729  0.1222  0.5293 -1.2252
 4332SOL    HW223311   4.102   1.203   0.781  0.5709 -0.4433  0.7919
 4333SOL     OW23312  12.616   6.390   8.931 -0.2199  0.4714  0.2084
 4333SOL    HW123313  12.677   6.406   8.859 -1.7269 -0.7536 -1.4352
 4333SOL    HW223314  12.668   6.343   8.997  0.8867  0.5127 -0.6092
 4334SOL     OW23315  11.628   2.900   4.033  0.7614 -0.0008  0.9961
 4334SOL    HW123316  11.541   2.862   4.034  2.0652 -3.3155 -0.2288
 4334SOL    HW223317  11.649   2.914   4.126 -0.3632 -0.9478  1.4132
 4335SOL     OW23318   4.259   5.851   0.683  0.1521 -0.5531  0.3744
 4335SOL    HW123319   4.307   5.838   0.765 -1.1040  2.3453  1.7106
 4335SOL    HW223320   4.226   5.940   0.689 -1.4060 -0.8195 -2.5996
 4336SOL     OW23321   9.409  10.039   6.286  0.5687 -0.4756 -0.2091
 4336SOL    HW123322   9.370   9.957   6.318  1.5656 -0.8684  0.0339
 4336SOL    HW223323   9.334  10.095   6.266 -0.1913 -1.9681 -1.8085
 4337SOL     OW23324  11.696   8.609   8.200  0.4948  0.0465  0.5490
 4337SOL    HW123325  11.763   8.613   8.269  1.3840 -2.2299 -0.0678
 4337SOL    HW223326  11.679   8.516   8.190 -1.8896  0.5167 -0.2200
 4338SOL     OW23327   1.381   6.345   6.584 -0.2254 -0.3025 -0.2288
 4338SOL    HW123328   1.459   6.398   6.566 -0.9420  0.4166 -1.3296
 4338SOL    HW223329   1.391   6.268   6.529  0.5639 -1.1049  0.9864
 4339SOL     OW23330  11.118   5.477   5.947 -0.4568 -0.0514 -0.3061
 4339SOL    HW123331  11.195   5.433   5.910  2.1936  3.3668  0.5787
 4339SOL    HW223332  11.084   5.529   5.874 -1.0178 -0.3997 -0.2958
 4340SOL     OW23333   5.317   6.933  12.953  0.1519 -0.1652 -0.2354
 4340SOL    HW123334   5.369   6.936  13.033 -0.2576  1.2884  0.0160
 4340SOL    HW223335   5.226   6.932  12.984 -0.0050 -1.1214 -0.6819
 4341SOL     OW23336   9.433   1.665   6.042  0.2633  0.6939 -0.3160
 4341SOL    HW123337   9.380   1.646   5.965  0.8360 -0.0974 -0.5351
 4341SOL    HW223338   9.483   1.743   6.017  0.3452  0.5246 -0.7008
 4342SOL     OW23339  10.684   9.660   3.444  0.1640  0.2503  0.0421
 4342SOL    HW123340  10.732   9.736   3.477 -0.0342  1.4301 -2.1746
 4342SOL    HW223341  10.753   9.600   3.414  0.2949  0.1363  0.5575
 4343SOL     OW23342  11.497   5.485   7.707  0.4817 -0.6567  0.5899
 4343SOL    HW123343  11.531   5.406   7.664 -0.0982 -0.2348 -0.7046
 4343SOL    HW223344  11.533   5.482   7.795  0.8113 -2.1556  0.4297
 4344SOL     OW23345   8.665  11.183   3.557 -0.0424 -0.1683  0.2164
 4344SOL    HW123346   8.595  11.227   3.508 -2.2951 -0.3781  2.9156
 4344SOL    HW223347   8.725  11.253   3.581 -0.9416  0.5913  0.3164
 4345SOL     OW23348   4.876  12.015   2.551  0.7962 -0.1214 -0.1633
 4345SOL    HW123349   4.852  12.107   2.555 -0.1749 -0.3275 -0.9226
 4345SOL    HW223350   4.794  11.968   2.567  1.3516 -0.8613  0.6214
 4346SOL     OW23351   3.003   7.886   5.270  0.0534  0.5140  0.3096
 4346SOL    HW123352   2.973   7.830   5.198 -0.7556  2.6372 -1.0818
 4346SOL    HW223353   3.098   7.892   5.259  0.1129 -0.3263  0.3142
 4347SOL     OW23354   2.748  10.760   7.689  0.3714  0.1617  0.5564
 4347SOL    HW123355   2.803  10.728   7.760 -0.3369  3.2252  2.7020
 4347SOL    HW223356   2.663  10.777   7.730 -0.6344  0.3600 -1.4609
 4348SOL     OW23357  11.674   5.436   9.926  0.0556 -0.6090 -0.6931
 4348SOL    HW123358  11.700   5.420  10.017  0.5521 -0.6773 -0.8398
 4348SOL    HW223359  11.600   5.378   9.912 -1.9947  1.5252  0.5530
 4349SOL     OW23360   6.202   0.500  10.788  0.0253 -0.1537 -0.1981
 4349SOL    HW123361   6.298   0.501  10.778  0.2355  1.0388  1.6271
 4349SOL    HW223362   6.178   0.592  10.797 -1.4431 -0.3639 -1.5999
 4350SOL     OW23363  12.769  10.545  10.752  0.4708 -0.0094 -0.3496
 4350SOL    HW123364  12.842  10.571  10.809  0.2189  0.6981 -0.3503
 4350SOL    HW223365  12.768  10.609  10.682 -0.9119  0.7191  0.3012
 4351SOL     OW23366   9.747   7.303   8.563 -0.1877  0.0980 -0.5116
 4351SOL    HW123367   9.716   7.394   8.559 -0.5200 -0.0051 -0.2807
 4351SOL    HW223368   9.696   7.258   8.495 -0.1775  0.0374 -0.4790
 4352SOL     OW23369   2.453  12.495   7.005 -0.4869  0.0094 -0.4995
 4352SOL    HW123370   2.501  12.559   7.057  0.4405 -0.7032 -0.4511
 4352SOL    HW223371   2.513  12.420   6.997 -1.2695 -0.5716 -1.1473
 4353SOL     OW23372   7.028   6.657   9.315  0.6275  0.1829 -0.0181
 4353SOL    HW123373   7.096   6.654   9.382  1.4536  1.3038 -0.7876
 4353SOL    HW223374   7.068   6.617   9.238  0.7133  1.5798 -0.7200
 4354SOL     OW23375   6.133   7.182   8.673 -0.0791 -0.1987 -0.0542
 4354SOL    HW123376   6.212   7.188   8.728  0.1045 -1.1378 -0.2069
 4354SOL    HW223377   6.112   7.273   8.653  1.6667  0.0377 -1.0127
 4355SOL     OW23378   8.716   2.078   8.378  0.1193 -0.1808 -0.4829
 4355SOL    HW123379   8.704   2.139   8.306  0.9323  0.7216  0.1162
 4355SOL    HW223380   8.783   2.016   8.348 -0.2980 -0.4430 -0.8792
 4356SOL     OW23381   5.122   0.074  11.994  0.2575 -0.1496 -0.7659
 4356SOL    HW123382   5.035   0.056  11.959  0.4605  0.7180 -1.7535
 4356SOL    HW223383   5.179   0.012  11.949  0.1993 -0.4934 -0.3654
 4357SOL     OW23384   1.297   1.439  12.387 -0.0254  0.4421 -0.0091
 4357SOL    HW123385   1.391   1.451  12.393 -0.1590  1.0289  1.4494
 4357SOL    HW223386   1.261   1.528  12.397 -0.7354  0.2442 -0.6524
 4358SOL     OW23387  11.807   6.508   5.538  0.0081 -0.9129  0.0353
 4358SOL    HW123388  11.809   6.419   5.504  0.3579 -0.7961 -0.2589
 4358SOL    HW223389  11.785   6.498   5.631 -1.0853 -1.2228 -0.2404
 4359SOL     OW23390   5.233   1.861  12.010  0.4024 -0.6858 -0.2068
 4359SOL    HW123391   5.173   1.848  12.084 -0.7184 -0.5061 -1.0533
 4359SOL    HW223392   5.211   1.790  11.949 -1.2015  1.1403 -1.9303
 4360SOL     OW23393   7.843   3.239   1.240  0.1644 -0.1721 -0.4434
 4360SOL    HW123394   7.908   3.290   1.192 -0.3137 -0.4864 -1.4683
 4360SOL    HW223395   7.850   3.150   1.204  0.0375 -0.5036  0.3282
 4361SOL     OW23396   8.207  12.730   6.326  0.0624 -0.0419 -0.5300
 4361SOL    HW123397   8.295  12.701   6.304  0.6077  1.1581 -0.0052
 4361SOL    HW223398   8.185  12.681   6.406  0.4970  0.0973 -0.3216
 4362SOL     OW23399   1.519   9.644  11.011 -0.1978 -0.2896 -0.6773
 4362SOL    HW123400   1.491   9.590  11.085  0.0806 -1.5373 -1.4584
 4362SOL    HW223401   1.464   9.616  10.938  0.6240 -0.2204 -1.3348
 4363SOL     OW23402   7.777   0.507  10.906 -0.5874 -0.2548 -0.2577
 4363SOL    HW123403   7.691   0.548  10.896 -0.8849 -1.0353 -1.1833
 4363SOL    HW223404   7.820   0.521  10.822 -0.1924 -0.6909 -0.1354
 4364SOL     OW23405   8.512   1.664   9.944  0.0080 -0.1045  0.5248
 4364SOL    HW123406   8.529   1.595   9.879  0.7540 -0.0131  0.6112
 4364SOL    HW223407   8.433   1.635   9.990  1.9118 -2.4513  2.5831
 4365SOL     OW23408   2.065   8.968   4.881  0.1462  0.5013 -0.2470
 4365SOL    HW123409   2.073   8.876   4.908 -1.5753  0.3739 -0.0747
 4365SOL    HW223410   2.137   8.981   4.820 -0.1438 -1.2619 -1.0329
 4366SOL     OW23411   2.939  11.278   0.026 -0.0007 -0.0540 -0.4038
 4366SOL    HW123412   2.897  11.321   0.100  1.4584  1.0119 -0.1513
 4366SOL    HW223413   2.982  11.201   0.064 -0.3822 -0.2730 -0.4018
 4367SOL     OW23414   2.815  12.676   1.811 -0.2534  0.7352  0.4536
 4367SOL    HW123415   2.906  12.649   1.818  0.3518  2.5726  0.2462
 4367SOL    HW223416   2.790  12.656   1.721 -0.2591 -0.3157  0.6789
 4368SOL     OW23417   2.227  11.335   6.535  0.0359 -0.8429 -0.4331
 4368SOL    HW123418   2.200  11.363   6.448 -1.0659 -0.8606 -0.1145
 4368SOL    HW223419   2.258  11.245   6.524  3.1097  0.2008 -1.3763
 4369SOL     OW23420  12.246   7.215   9.125  0.6880 -0.2901 -0.1355
 4369SOL    HW123421  12.245   7.310   9.130  0.8315 -0.2998  0.0751
 4369SOL    HW223422  12.189   7.186   9.196 -0.4754 -0.3302 -1.0620
 4370SOL     OW23423   8.455  12.540   3.702  0.6806 -0.3125  0.2037
 4370SOL    HW123424   8.432  12.565   3.791 -0.2234  0.7411 -0.3005
 4370SOL    HW223425   8.531  12.483   3.712 -0.1372 -1.2082  1.7222
 4371SOL     OW23426   5.354   3.349   2.380  0.2599 -0.2421 -0.4038
 4371SOL    HW123427   5.423   3.284   2.394  0.9975  0.6593  0.3435
 4371SOL    HW223428   5.402   3.429   2.356 -0.5558  0.2914 -0.2820
 4372SOL     OW23429   4.582   9.879   4.701 -0.0027 -0.0339  0.3056
 4372SOL    HW123430   4.645   9.913   4.764  0.0310  1.5068 -0.5166
 4372SOL    HW223431   4.625   9.802   4.663  0.2240 -0.6067  1.6843
 4373SOL     OW23432   9.613   6.322   5.034 -0.3686  0.7297  0.1808
 4373SOL    HW123433   9.554   6.265   4.985  0.5376  1.1055 -1.4260
 4373SOL    HW223434   9.688   6.266   5.055 -0.0676  0.9734 -0.2360
 4374SOL     OW23435   8.685  12.340  12.825  0.6881 -0.0770  0.2119
 4374SOL    HW123436   8.613  12.379  12.775  0.2227  0.1018  0.9995
 4374SOL    HW223437   8.763  12.358  12.773  0.1615 -0.2831 -0.6601
 4375SOL     OW23438  12.230   4.839   7.896 -0.2070  0.3141  0.4139
 4375SOL    HW123439  12.203   4.756   7.936 -0.7835  0.3578  0.1211
 4375SOL    HW223440  12.324   4.844   7.913 -0.3976  0.2213  1.5632
 4376SOL     OW23441   9.668   9.828   2.001 -0.1817  0.2650 -0.3081
 4376SOL    HW123442   9.744   9.793   1.955  0.1606 -1.3781  1.4026
 4376SOL    HW223443   9.594   9.809   1.943  0.4433 -0.0435 -1.0152
 4377SOL     OW23444   0.904  11.676   1.165  0.5882 -0.2448  0.0329
 4377SOL    HW123445   0.986  11.686   1.117  1.0964  0.3561  0.9950
 4377SOL    HW223446   0.865  11.596   1.130  1.5743 -0.5314 -0.4416
 4378SOL     OW23447   4.472   5.683   7.746  0.2327  0.0544  0.8284
 4378SOL    HW123448   4.526   5.605   7.755  1.8006  1.1797  1.4502
 4378SOL    HW223449   4.495   5.738   7.820 -0.2615  1.4549 -0.0056
 4379SOL     OW23450   0.281   7.325   5.521 -0.3103  0.0851 -0.6053
 4379SOL    HW123451   0.368   7.314   5.559  0.6803  3.3723 -1.5345
 4379SOL    HW223452   0.226   7.355   5.594 -0.1832 -0.2168 -0.3869
 4380SOL     OW23453   6.724   1.692   9.076 -0.2077 -0.3086  0.0943
 4380SOL    HW123454   6.799   1.672   9.021 -1.1498 -1.5599 -0.7896
 4380SOL    HW223455   6.648   1.657   9.028 -1.5641  2.2070  0.2407
 4381SOL     OW23456   4.603   9.745   8.825 -0.2358  0.4566 -0.0561
 4381SOL    HW123457   4.674   9.751   8.761 -0.8612 -0.1215 -0.8332
 4381SOL    HW223458   4.533   9.699   8.778 -1.2713  1.3635  0.5529
 4382SOL     OW23459   2.741   7.561   4.839  0.2681  0.1757  0.8589
 4382SOL    HW123460   2.784   7.503   4.776 -0.6537 -0.2478  0.5983
 4382SOL    HW223461   2.767   7.649   4.812  0.8864 -0.0653  0.6480
 4383SOL     OW23462  10.322   3.293   6.055  0.5468 -0.5821  0.2216
 4383SOL    HW123463  10.394   3.268   5.997 -0.0838  0.2655 -0.9525
 4383SOL    HW223464  10.357   3.366   6.106  0.4103  0.0358 -0.5713
 4384SOL     OW23465  12.851   9.156   8.896  0.0156  0.0103  0.0200
 4384SOL    HW123466  12.817   9.182   8.810 -1.6412  0.2693  0.7120
 4384SOL    HW223467  12.944   9.139   8.881 -0.7188 -2.7192 -2.4727
 4385SOL     OW23468  11.517  11.177   9.015 -0.1141  0.0337 -0.4207
 4385SOL    HW123469  11.476  11.246   9.067 -1.5700 -0.6786 -0.5708
 4385SOL    HW223470  11.581  11.223   8.960  0.5498  0.9618  1.0550
 4386SOL     OW23471   0.297   3.868  10.223  0.1948 -0.3614  0.4217
 4386SOL    HW123472   0.347   3.925  10.282  0.1231 -0.3591  0.4803
 4386SOL    HW223473   0.363   3.813  10.182  0.1100 -1.4511  1.6691
 4387SOL     OW23474   7.709   6.728   6.489 -0.2795  0.6771  0.1188
 4387SOL    HW123475   7.721   6.820   6.467 -0.4280  0.3207 -1.6259
 4387SOL    HW223476   7.775   6.710   6.555  0.5615  1.7515 -0.3962
 4388SOL     OW23477   1.302   6.939   4.744  0.4632 -0.1452 -0.0594
 4388SOL    HW123478   1.298   6.871   4.811  1.2792  0.6940  0.8621
 4388SOL    HW223479   1.223   6.991   4.758 -0.3612 -1.0684 -1.0045
 4389SOL     OW23480   7.535  10.897   1.130  0.1822  0.6388 -0.1336
 4389SOL    HW123481   7.448  10.875   1.096  0.9543  0.2482 -1.9797
 4389SOL    HW223482   7.524  10.898   1.225 -1.2115 -2.1968 -0.1598
 4390SOL     OW23483   3.763   6.048  12.214  0.1567 -0.4247 -0.4279
 4390SOL    HW123484   3.740   6.115  12.279  0.1805  0.3962 -1.2564
 4390SOL    HW223485   3.858   6.041  12.220  0.1009 -0.8217  0.0739
 4391SOL     OW23486   7.199   1.199   6.396  0.4569  0.3885  0.5121
 4391SOL    HW123487   7.165   1.279   6.356  1.6021 -0.1810 -1.8070
 4391SOL    HW223488   7.292   1.199   6.375  0.4467 -1.6530  0.2146
 4392SOL     OW23489  11.026   1.313   9.943  0.1967  0.0645  0.1453
 4392SOL    HW123490  11.109   1.315   9.991  0.4553 -2.3153 -0.0981
 4392SOL    HW223491  10.959   1.318  10.010  0.5589 -0.8747  0.5943
 4393SOL     OW23492  10.263   4.776   4.395 -0.0547  0.4229  0.0571
 4393SOL    HW123493  10.227   4.778   4.483 -0.4340 -0.9966 -0.0379
 4393SOL    HW223494  10.201   4.827   4.342 -0.3412  0.4697  0.4344
 4394SOL     OW23495  11.436  10.428   2.096 -0.0979 -0.4133  0.2923
 4394SOL    HW123496  11.394  10.489   2.035 -0.1417 -1.0473 -0.3245
 4394SOL    HW223497  11.402  10.342   2.071 -1.8671 -0.4919  2.6480
 4395SOL     OW23498   6.474   2.515   5.016  0.0312 -0.2340  0.4187
 4395SOL    HW123499   6.513   2.533   5.102  0.9338  1.5761 -0.3244
 4395SOL    HW223500   6.390   2.473   5.037  1.5028 -2.6679  2.0976
 4396SOL     OW23501   3.765   7.349   1.739  0.1064  0.5551 -0.2998
 4396SOL    HW123502   3.759   7.404   1.662  1.7048 -0.0891 -0.9361
 4396SOL    HW223503   3.710   7.274   1.720  0.5723  0.3536 -0.8772
 4397SOL     OW23504   0.280   2.514   4.632  0.0194  1.1215 -0.5633
 4397SOL    HW123505   0.289   2.464   4.714  0.4653  0.4123 -1.0301
 4397SOL    HW223506   0.208   2.574   4.649  0.2813  1.1746  0.4462
 4398SOL     OW23507   1.833   3.171   5.511  0.2311 -0.7611  0.6250
 4398SOL    HW123508   1.744   3.156   5.541  0.0318 -0.2509  0.2981
 4398SOL    HW223509   1.836   3.135   5.423 -0.0424  0.4082  0.1169
 4399SOL     OW23510   0.243  10.023  10.258 -0.6333 -0.3999  0.3234
 4399SOL    HW123511   0.335   9.995  10.260 -0.5547 -0.1612  2.4021
 4399SOL    HW223512   0.216  10.008  10.168  1.3485 -0.7919 -0.2683
 4400SOL     OW23513   9.081   0.415   5.216  0.0298 -0.6895 -0.0888
 4400SOL    HW123514   9.176   0.404   5.211  0.3308  1.3325  0.1210
 4400SOL    HW223515   9.045   0.327   5.205  1.9087 -1.4338 -0.6018
 4401SOL     OW23516   5.710   4.377   9.117  0.0302  0.0248  0.2690
 4401SOL    HW123517   5.683   4.296   9.074 -0.7918  0.3042  0.2446
 4401SOL    HW223518   5.788   4.353   9.166  1.3842 -0.1500 -1.8713
 4402SOL     OW23519  11.009   4.637   7.385  0.0124  0.3481  0.3333
 4402SOL    HW123520  11.098   4.629   7.418 -0.4970 -2.8365  1.2330
 4402SOL    HW223521  10.987   4.729   7.398  2.4002  0.7723  2.0284
 4403SOL     OW23522   0.814   8.147   0.776  0.6885 -0.7332  0.0379
 4403SOL    HW123523   0.809   8.066   0.827 -0.3372 -0.3663  0.5285
 4403SOL    HW223524   0.862   8.122   0.697  0.7979 -1.7051  0.3983
 4404SOL     OW23525   1.055   8.389   0.380  0.2617  0.0585 -0.1197
 4404SOL    HW123526   1.121   8.449   0.416 -0.0895  0.6697 -0.4797
 4404SOL    HW223527   1.015   8.438   0.309  0.3192 -0.8058 -0.7550
 4405SOL     OW23528   0.612   6.320  12.921  0.2323  0.8478  0.2021
 4405SOL    HW123529   0.564   6.307  13.003  1.2624  2.0855  1.0407
 4405SOL    HW223530   0.547   6.306  12.853 -0.5633 -0.6125  1.1992
 4406SOL     OW23531  10.898   8.002  10.112 -0.0810 -0.5024  0.2109
 4406SOL    HW123532  10.955   7.933  10.146  2.1840  2.4084  2.8334
 4406SOL    HW223533  10.840   8.024  10.184 -1.1789 -0.0076 -0.7802
 4407SOL     OW23534   1.752   4.323   1.323 -0.0485 -0.1939 -0.3379
 4407SOL    HW123535   1.770   4.323   1.229 -0.1969  0.4744 -0.3701
 4407SOL    HW223536   1.827   4.277   1.362 -0.1413 -0.7504 -0.8060
 4408SOL     OW23537   9.172  10.335  10.819  0.2043 -0.4655  0.0921
 4408SOL    HW123538   9.113  10.391  10.869  0.6292 -1.1375  1.3912
 4408SOL    HW223539   9.117  10.263  10.789 -0.0542 -0.0540 -0.4551
 4409SOL     OW23540  11.725   4.447   6.969  0.2065  0.0352  0.0697
 4409SOL    HW123541  11.682   4.529   6.942 -0.1036 -0.0427  0.3242
 4409SOL    HW223542  11.804   4.476   7.014  0.2470  0.1877 -0.0944
 4410SOL     OW23543   2.724   5.837  10.977 -0.1190 -0.1465 -0.2894
 4410SOL    HW123544   2.677   5.914  10.945  1.1315  0.8047  0.0623
 4410SOL    HW223545   2.663   5.795  11.038 -0.5722  0.9880  0.0712
 4411SOL     OW23546   9.238  12.412   3.179 -0.4172  0.3482 -0.0297
 4411SOL    HW123547   9.289  12.343   3.220 -2.9796 -1.6467  0.0811
 4411SOL    HW223548   9.261  12.408   3.086  0.4307  0.2880  0.1779
 4412SOL     OW23549   5.643   8.401  11.784  0.3074 -0.3223  0.3922
 4412SOL    HW123550   5.667   8.437  11.699  1.2431 -0.7974  0.4342
 4412SOL    HW223551   5.722   8.355  11.813  0.0579 -0.0353  1.5831
 4413SOL     OW23552   4.976  12.608  10.348  0.8651  0.2392 -0.2337
 4413SOL    HW123553   4.886  12.576  10.338  1.4271 -1.2896 -0.6863
 4413SOL    HW223554   4.969  12.680  10.411 -0.9204  1.3385 -1.5661
 4414SOL     OW23555  10.211   4.403   3.893 -0.1026 -0.1225 -0.3917
 4414SOL    HW123556  10.147   4.333   3.900  1.4100 -1.4671  0.9908
 4414SOL    HW223557  10.240   4.400   3.802 -2.2830  0.8603 -1.1903
 4415SOL     OW23558  11.126   5.169  12.090  0.5402  0.0921 -0.2418
 4415SOL    HW123559  11.172   5.200  12.012  0.2858 -2.9949 -1.7492
 4415SOL    HW223560  11.191   5.175  12.160  1.4333  1.0186 -1.1158
 4416SOL     OW23561  12.892   1.919   0.617 -0.2118  0.4297 -0.0432
 4416SOL    HW123562  12.913   1.836   0.575 -2.4141 -0.1625 -0.0904
 4416SOL    HW223563  12.951   1.924   0.692 -1.1029 -1.9551  0.8823
 4417SOL     OW23564   6.939  10.232   6.890 -0.1909 -0.5743  0.6686
 4417SOL    HW123565   6.920  10.147   6.852 -1.4809 -0.4792  1.0514
 4417SOL    HW223566   6.987  10.279   6.822 -0.5502 -1.1720 -0.0018
 4418SOL     OW23567   0.264   5.442   1.538  0.0658  0.1709 -0.4104
 4418SOL    HW123568   0.335   5.490   1.495 -1.0007 -0.2695 -2.8666
 4418SOL    HW223569   0.277   5.458   1.631  2.8506  0.8115 -0.8174
 4419SOL     OW23570  11.593   6.154   3.115  0.1103  0.0253 -0.5062
 4419SOL    HW123571  11.677   6.126   3.078  0.4747 -1.5209  1.2950
 4419SOL    HW223572  11.544   6.072   3.125 -0.8377  0.6708  0.2535
 4420SOL     OW23573   6.516   3.343   6.205  0.2865 -0.3030  0.4218
 4420SOL    HW123574   6.501   3.422   6.258 -0.4760  1.0645 -1.7230
 4420SOL    HW223575   6.565   3.373   6.129 -0.2841 -1.8345 -0.6131
 4421SOL     OW23576   9.229   9.154   7.224  0.0762  0.3374 -0.3582
 4421SOL    HW123577   9.219   9.093   7.297 -0.1578  0.4895 -0.2608
 4421SOL    HW223578   9.322   9.151   7.203  0.1715  0.4070  0.0455
 4422SOL     OW23579   8.195  10.905  12.202  0.3407  0.3495  0.2269
 4422SOL    HW123580   8.242  10.947  12.274 -0.0308  2.0566 -0.4938
 4422SOL    HW223581   8.103  10.911  12.226  0.2361  0.6351 -0.2446
 4423SOL     OW23582  11.423   9.253   8.493 -0.3384  0.0148  0.5869
 4423SOL    HW123583  11.381   9.302   8.423 -1.0230  0.0010  0.9727
 4423SOL    HW223584  11.428   9.163   8.461  0.5376  0.2384  0.0473
 4424SOL     OW23585   0.732   9.478  11.098 -0.5045 -0.4103 -0.0161
 4424SOL    HW123586   0.761   9.568  11.111  0.9569 -0.5818 -1.6967
 4424SOL    HW223587   0.742   9.437  11.184  1.0812  0.4411  0.2457
 4425SOL     OW23588   3.094   3.765   8.603  0.2564  0.0277  0.2195
 4425SOL    HW123589   3.066   3.856   8.612 -1.6673 -0.5705  0.6885
 4425SOL    HW223590   3.066   3.723   8.685  1.5262 -0.9124  0.2108
 4426SOL     OW23591   1.867   9.415  10.743  0.3334 -0.1348 -0.6585
 4426SOL    HW123592   1.940   9.454  10.792  0.4792 -1.1047 -0.0735
 4426SOL    HW223593   1.813   9.489  10.718  1.1272  0.5352 -0.4405
 4427SOL     OW23594   0.376   8.669   2.785 -0.1533 -0.2758  0.2120
 4427SOL    HW123595   0.288   8.657   2.821 -0.7768 -1.1331 -1.5099
 4427SOL    HW223596   0.434   8.634   2.853 -1.2921 -1.8699  0.4185
 4428SOL     OW23597   0.842   4.540   0.885 -0.1930 -0.0050 -1.0182
 4428SOL    HW123598   0.839   4.494   0.969  1.3652 -0.6771 -1.3010
 4428SOL    HW223599   0.827   4.471   0.820  0.9263  0.0874 -1.3853
 4429SOL     OW23600   6.576   8.916   0.857 -0.2591 -0.0785  0.5942
 4429SOL    HW123601   6.510   8.896   0.924 -3.6680  0.1159 -2.4231
 4429SOL    HW223602   6.622   8.992   0.892 -1.7845 -0.0369  2.7684
 4430SOL     OW23603   0.639  12.583   8.706  0.2744 -0.1150  0.2194
 4430SOL    HW123604   0.574  12.538   8.652 -0.5314  1.1992  0.0390
 4430SOL    HW223605   0.673  12.516   8.765  0.2257 -1.2852 -1.0465
 4431SOL     OW23606   7.869   9.636   0.679 -0.4656 -0.0420  0.1615
 4431SOL    HW123607   7.844   9.623   0.770 -0.7814  0.0165  0.0860
 4431SOL    HW223608   7.805   9.585   0.629 -0.5085  0.2077 -0.0427
 4432SOL     OW23609   0.031   6.977   5.149 -0.0083 -0.4745 -0.0986
 4432SOL    HW123610   0.002   6.890   5.178  1.4992 -2.1770 -3.1424
 4432SOL    HW223611   0.053   6.965   5.056  0.5870  3.1265 -0.5742
 4433SOL     OW23612   3.466   7.252  12.242 -0.4669 -0.2389  0.0651
 4433SOL    HW123613   3.450   7.322  12.306  1.6645 -0.0026  0.4262
 4433SOL    HW223614   3.484   7.175  12.296 -0.2549 -0.4387 -0.2907
 4434SOL     OW23615   3.483   1.423   8.407 -1.4674  0.1153  0.0114
 4434SOL    HW123616   3.446   1.334   8.408  0.9928 -1.0014  0.8519
 4434SOL    HW223617   3.553   1.420   8.473  0.0617  2.0628 -1.4084
 4435SOL     OW23618   1.841  10.053   4.711  0.3963 -0.3417 -0.7476
 4435SOL    HW123619   1.780   9.985   4.739  0.3051 -0.6181 -1.5893
 4435SOL    HW223620   1.813  10.075   4.622  0.2786  0.9630 -0.4175
 4436SOL     OW23621   1.753   9.690   5.412  0.1326  0.3543  0.2063
 4436SOL    HW123622   1.696   9.676   5.336  1.1077  0.6813 -0.6084
 4436SOL    HW223623   1.703   9.656   5.486 -0.2151 -1.4646 -0.8038
 4437SOL     OW23624   2.426   8.675   0.462 -0.2894  0.0943  0.1826
 4437SOL    HW123625   2.503   8.620   0.476  0.2993  0.3502 -1.7397
 4437SOL    HW223626   2.366   8.651   0.532  0.1380 -2.6484 -0.2866
 4438SOL     OW23627   7.476   0.339  12.559 -0.5444  0.0527 -0.1647
 4438SOL    HW123628   7.411   0.407  12.540  0.3943  0.5609 -1.7132
 4438SOL    HW223629   7.506   0.359  12.648 -0.7955  1.2447 -0.3268
 4439SOL     OW23630   3.619   9.915  12.445  0.2102 -0.4339 -0.2235
 4439SOL    HW123631   3.707   9.951  12.447 -0.4504  1.2904 -0.5593
 4439SOL    HW223632   3.581   9.938  12.530 -0.0246 -0.8923 -0.2010
 4440SOL     OW23633   5.772   8.019   6.523 -0.1928  0.4841  0.1572
 4440SOL    HW123634   5.867   8.030   6.528  0.2583 -0.8103 -2.9695
 4440SOL    HW223635   5.739   8.105   6.496  0.4369  0.3490 -1.1206
 4441SOL     OW23636  11.340   3.769   1.239  0.1320 -0.0205  0.6600
 4441SOL    HW123637  11.270   3.823   1.277 -1.1017 -0.3088 -1.0917
 4441SOL    HW223638  11.389   3.830   1.183  0.5791 -0.0882  0.9695
 4442SOL     OW23639   6.123   2.315   9.850  0.2433 -0.2610  0.0062
 4442SOL    HW123640   6.050   2.348   9.902 -0.0646 -1.3785  0.3143
 4442SOL    HW223641   6.119   2.365   9.768  0.8525  1.6501  1.0931
 4443SOL     OW23642  11.179  10.839   9.119  0.6948 -0.3150 -0.6908
 4443SOL    HW123643  11.192  10.757   9.071  0.1466 -1.2809  0.7363
 4443SOL    HW223644  11.093  10.870   9.091  1.3746  0.4221 -2.0911
 4444SOL     OW23645   2.428  11.648   0.044  0.0613 -0.3643  0.1712
 4444SOL    HW123646   2.340  11.611   0.039  0.1128 -0.3986 -0.8381
 4444SOL    HW223647   2.485  11.578   0.012  0.3095  0.1029 -0.4239
 4445SOL     OW23648   1.774  11.721   5.938 -0.2502  0.3086 -0.0892
 4445SOL    HW123649   1.705  11.784   5.918 -0.4759  0.3162  0.6872
 4445SOL    HW223650   1.838  11.733   5.868 -2.6682 -2.2307 -3.0030
 4446SOL     OW23651   0.589  12.975  11.166  0.2409  0.5027 -0.2684
 4446SOL    HW123652   0.580  13.043  11.233 -0.5582 -1.5197  1.8225
 4446SOL    HW223653   0.534  12.904  11.197  2.1852 -1.6913 -1.5444
 4447SOL     OW23654   6.267  10.233  12.982  0.2236  0.9021  0.9538
 4447SOL    HW123655   6.360  10.224  12.961 -0.3999  0.0247 -1.8022
 4447SOL    HW223656   6.242  10.148  13.019 -0.0580  0.0786 -1.0240
 4448SOL     OW23657   6.707   8.247   8.075 -0.6166  0.0333  0.0300
 4448SOL    HW123658   6.778   8.292   8.028 -0.9071  0.8226  0.3318
 4448SOL    HW223659   6.736   8.247   8.167 -0.7025 -0.2515  0.0594
 4449SOL     OW23660   8.334   0.965   2.463  0.1426 -0.2350  0.3526
 4449SOL    HW123661   8.327   1.034   2.529 -0.1904 -0.2713  0.3583
 4449SOL    HW223662   8.326   0.884   2.513  3.2137 -0.4274  0.7483
 4450SOL     OW23663   8.400   0.294   6.356  0.1475  0.5030 -0.3613
 4450SOL    HW123664   8.491   0.298   6.383  0.1832 -1.2955 -0.0946
 4450SOL    HW223665   8.351   0.319   6.434  0.2559 -4.5798  1.7325
 4451SOL     OW23666  12.778   0.083  12.406  0.1658 -0.1691  0.1296
 4451SOL    HW123667  12.857   0.062  12.456 -0.0358  0.4363  0.7194
 4451SOL    HW223668  12.779   0.179  12.400  0.2958 -0.2404 -1.2166
 4452SOL     OW23669   0.150   6.960   7.797  0.3018  0.2102  0.0017
 4452SOL    HW123670   0.197   6.934   7.718 -1.0121 -3.7147  0.2992
 4452SOL    HW223671   0.060   6.933   7.781 -0.2268  0.2720  2.4379
 4453SOL     OW23672  12.576   5.217   6.890  0.1496  0.5479 -0.5199
 4453SOL    HW123673  12.494   5.178   6.861  0.6190 -0.4346 -0.5532
 4453SOL    HW223674  12.616   5.253   6.811  1.2143 -1.7316 -1.0944
 4454SOL     OW23675   6.511   8.048  10.982 -0.0928  0.2699  0.4464
 4454SOL    HW123676   6.437   8.074  11.037 -0.3768  0.7435 -0.1462
 4454SOL    HW223677   6.510   8.111  10.910  0.5675 -0.0477  0.1551
 4455SOL     OW23678  12.905   7.928   5.924 -0.0098  0.4034  0.0135
 4455SOL    HW123679  12.932   8.004   5.872 -1.1757  0.2914 -0.8048
 4455SOL    HW223680  12.986   7.896   5.964  0.4209  2.4848  0.9659
 4456SOL     OW23681   5.224   7.976   9.540  0.3572  0.0379  0.5958
 4456SOL    HW123682   5.156   7.948   9.478 -1.0758  1.1981  1.5673
 4456SOL    HW223683   5.203   7.930   9.621  0.5158  0.6531  0.9954
 4457SOL     OW23684  10.718  11.989   9.940 -0.1434  0.4396 -0.4622
 4457SOL    HW123685  10.703  11.906   9.987 -0.7988  0.1772 -1.1130
 4457SOL    HW223686  10.811  12.006   9.950 -0.0148 -0.3456 -0.2601
 4458SOL     OW23687   0.042   9.996   6.775  0.0046  0.2416  1.0758
 4458SOL    HW123688   0.087  10.039   6.847  0.1087  1.1383  0.4921
 4458SOL    HW223689   0.056   9.903   6.790  2.1970  0.4801  0.8494
 4459SOL     OW23690   9.445   7.165   0.928 -0.0597 -0.4591 -0.1418
 4459SOL    HW123691   9.421   7.156   0.836  1.2728  0.4123 -0.6032
 4459SOL    HW223692   9.419   7.254   0.951  0.5561 -0.3079  0.0043
 4460SOL     OW23693   5.605  12.104   5.547  0.3279 -0.1643  0.2870
 4460SOL    HW123694   5.607  12.142   5.635  0.6613 -0.3866  0.3764
 4460SOL    HW223695   5.538  12.155   5.501  0.3387  0.1292  0.5890
 4461SOL     OW23696   5.879   0.924   8.719  0.3996  0.5845 -0.5971
 4461SOL    HW123697   5.911   0.937   8.808  0.9566  1.0485 -0.8526
 4461SOL    HW223698   5.899   0.833   8.699 -2.5954 -0.5154  0.8556
 4462SOL     OW23699  12.847   6.864  10.200 -0.0483  0.1334  0.9484
 4462SOL    HW123700  12.795   6.926  10.148  0.4929 -0.7902 -0.7718
 4462SOL    HW223701  12.916   6.918  10.240 -0.1711  0.7921  0.2853
 4463SOL     OW23702   2.300  12.922   2.555 -0.4561 -0.4279 -0.1773
 4463SOL    HW123703   2.365  12.920   2.485 -1.1907  0.5055 -0.9091
 4463SOL    HW223704   2.272  12.831   2.564 -0.7024 -0.4952 -1.4392
 4464SOL     OW23705   2.458  12.952   0.638 -0.0660 -0.2356 -0.2723
 4464SOL    HW123706   2.480  13.043   0.618  2.6248 -0.9192 -0.8644
 4464SOL    HW223707   2.512  12.931   0.715 -0.3732 -1.4088 -0.3557
 4465SOL     OW23708  11.650  12.570   9.819 -0.5908 -0.4197 -0.5586
 4465SOL    HW123709  11.582  12.509   9.848  0.7318 -2.2086 -0.9873
 4465SOL    HW223710  11.703  12.585   9.897 -0.6184 -0.2186 -0.5781
 4466SOL     OW23711   2.953  10.115   5.125 -0.3966  0.2349 -0.1048
 4466SOL    HW123712   2.891  10.051   5.089 -0.0205 -0.4191  0.3939
 4466SOL    HW223713   2.963  10.180   5.055 -2.0733  0.6760  0.0089
 4467SOL     OW23714   8.761   1.518   3.065 -0.0289  0.6900 -0.5012
 4467SOL    HW123715   8.760   1.443   3.124 -1.4587  0.3138 -0.9524
 4467SOL    HW223716   8.761   1.480   2.977  1.4624  1.2378 -0.7651
 4468SOL     OW23717  12.429   0.417   7.387  0.2362  0.4409 -0.5168
 4468SOL    HW123718  12.495   0.423   7.318  0.6727 -0.9697 -0.2478
 4468SOL    HW223719  12.447   0.334   7.431 -1.9022 -0.1467 -0.6371
 4469SOL     OW23720   4.430  10.642   0.630  0.7732  0.0434 -0.1066
 4469SOL    HW123721   4.350  10.693   0.622  0.8373  0.2184  0.3393
 4469SOL    HW223722   4.461  10.631   0.540 -0.5446 -1.3035 -0.4299
 4470SOL     OW23723   3.762   5.426   0.247  0.1099 -0.4076 -0.0019
 4470SOL    HW123724   3.843   5.390   0.283  0.1745  1.4610  1.9337
 4470SOL    HW223725   3.791   5.484   0.177  0.3388 -0.6356 -0.1011
 4471SOL     OW23726  11.961   8.873   9.439  0.2397  0.8065  0.0538
 4471SOL    HW123727  12.000   8.820   9.508 -1.5195  0.2312  0.6691
 4471SOL    HW223728  12.035   8.907   9.389  1.4818 -3.6896 -1.5674
 4472SOL     OW23729  10.173   6.276   5.656 -0.1375  0.1061 -0.2527
 4472SOL    HW123730  10.185   6.224   5.736 -0.2076  0.6328  0.1032
 4472SOL    HW223731  10.108   6.226   5.605  0.1454 -0.3958 -0.1310
 4473SOL     OW23732   4.506   1.934  11.139 -0.2911 -0.0534  0.0346
 4473SOL    HW123733   4.587   1.887  11.159 -0.3023  0.4717  1.4445
 4473SOL    HW223734   4.490   1.916  11.047  1.5319 -0.0257 -0.3276
 4474SOL     OW23735  10.185   8.235   4.335  0.2077  0.1970  0.1887
 4474SOL    HW123736  10.090   8.238   4.345  0.0678 -1.7119 -0.0706
 4474SOL    HW223737  10.208   8.317   4.292 -1.4992  0.1491 -0.9248
 4475SOL     OW23738   4.240   4.732   8.667  0.8136 -0.4569 -0.0062
 4475SOL    HW123739   4.264   4.654   8.717  0.2192 -0.2183  0.6816
 4475SOL    HW223740   4.144   4.731   8.667  0.7623 -1.1375 -2.2500
 4476SOL     OW23741   5.918   9.943   2.203  0.4866  0.7131 -0.6394
 4476SOL    HW123742   5.849   9.991   2.158  1.0626  0.1491 -2.1939
 4476SOL    HW223743   5.969   9.902   2.133  1.9732  0.5277  0.4919
 4477SOL     OW23744   0.730   3.765  11.218 -0.0753  0.0724  0.2610
 4477SOL    HW123745   0.749   3.681  11.259  1.3258  0.1060 -0.2832
 4477SOL    HW223746   0.778   3.829  11.270  2.2586  0.0525 -1.6968
 4478SOL     OW23747   3.300   1.552  11.207  0.8251 -0.2796 -0.3680
 4478SOL    HW123748   3.249   1.610  11.150  0.7433  0.8183  0.7829
 4478SOL    HW223749   3.272   1.464  11.183 -0.5714  0.2422 -0.7353
 4479SOL     OW23750   7.666   6.223   4.785 -0.2604  0.3440  0.3828
 4479SOL    HW123751   7.613   6.303   4.778  0.4829  0.8076 -0.0919
 4479SOL    HW223752   7.609   6.154   4.751 -1.2739  0.4870  1.6838
 4480SOL     OW23753   5.134  10.965  11.337 -0.6649  0.0821  0.0440
 4480SOL    HW123754   5.121  10.915  11.418  1.8317  0.4244  0.7369
 4480SOL    HW223755   5.075  10.924  11.274  0.6863 -3.3242  0.7716
 4481SOL     OW23756   4.086  10.327   6.021  0.5174  0.6965 -0.4978
 4481SOL    HW123757   4.175  10.333   6.055  0.2860  1.6886 -0.0159
 4481SOL    HW223758   4.096  10.295   5.931  1.3585  0.8136 -0.4517
 4482SOL     OW23759   4.728   2.938   7.450  0.1875  0.4674  0.1000
 4482SOL    HW123760   4.753   2.877   7.520  0.0843  0.5355  0.1984
 4482SOL    HW223761   4.673   2.886   7.391  1.5968 -0.0301 -0.8123
 4483SOL     OW23762  12.715   3.112   9.333 -0.2955  0.4117  0.4801
 4483SOL    HW123763  12.632   3.121   9.286 -1.0649  0.0516  1.7265
 4483SOL    HW223764  12.776   3.167   9.284 -1.0121 -0.0676 -1.0255
 4484SOL     OW23765   6.706   3.374   1.074 -0.1256 -0.3215 -0.0712
 4484SOL    HW123766   6.770   3.305   1.057 -1.2247 -1.0194 -1.5510
 4484SOL    HW223767   6.637   3.359   1.010 -1.0138  1.3841  0.4353
 4485SOL     OW23768   4.597  11.304  11.372  0.0755  0.4314 -0.5949
 4485SOL    HW123769   4.662  11.274  11.436 -0.2579 -0.3805 -0.6279
 4485SOL    HW223770   4.575  11.226  11.321 -1.6344  0.4580  0.0427
 4486SOL     OW23771   2.821   1.957   1.582 -0.1407 -0.2073 -0.3979
 4486SOL    HW123772   2.791   1.904   1.656 -0.8020  1.3900  0.5221
 4486SOL    HW223773   2.887   2.016   1.619  0.2131 -0.0279 -1.2816
 4487SOL     OW23774   8.720   0.224   9.165 -0.3291 -0.1735 -0.0992
 4487SOL    HW123775   8.802   0.196   9.205 -1.4027  0.2198  2.5726
 4487SOL    HW223776   8.666   0.146   9.165 -0.1510 -0.3194 -1.4365
 4488SOL     OW23777  11.661   2.444   8.715 -0.3312 -0.8253 -0.3376
 4488SOL    HW123778  11.642   2.538   8.715 -1.7929 -1.0810  0.9383
 4488SOL    HW223779  11.733   2.434   8.777 -0.4967 -0.5965 -0.1079
 4489SOL     OW23780   4.655  12.941  10.111  0.2796 -0.2002  0.0351
 4489SOL    HW123781   4.732  12.994  10.090  0.6790 -1.1977 -1.1191
 4489SOL    HW223782   4.582  13.002  10.107  0.7694  0.3521 -0.8717
 4490SOL     OW23783  11.776   1.834   5.027  0.3432  0.2816 -0.4120
 4490SOL    HW123784  11.777   1.817   4.933 -0.4644  1.2823 -0.6130
 4490SOL    HW223785  11.728   1.760   5.065 -0.7442  0.6919 -0.9674
 4491SOL     OW23786   6.447  12.935  11.445 -0.5440 -0.4545 -0.2565
 4491SOL    HW123787   6.542  12.941  11.433 -0.6741 -0.7922 -1.6359
 4491SOL    HW223788   6.431  12.842  11.460 -0.8940 -0.9215 -2.9305
 4492SOL     OW23789   7.761   9.926  10.297 -0.5759 -0.3029  0.1385
 4492SOL    HW123790   7.809   9.977  10.363  0.4551 -1.9106  0.6835
 4492SOL    HW223791   7.762   9.982  10.219  1.3494  0.1576  0.4333
 4493SOL     OW23792   3.090  12.663   3.519 -0.2697 -0.4943  0.7084
 4493SOL    HW123793   3.114  12.662   3.427 -0.6841 -0.8076  0.6012
 4493SOL    HW223794   3.072  12.571   3.541 -1.3315 -0.2845  0.7832
 4494SOL     OW23795   1.146  12.730   9.881  0.0359 -0.7077  0.4796
 4494SOL    HW123796   1.201  12.809   9.886 -0.9692  0.2187 -1.8885
 4494SOL    HW223797   1.123  12.712   9.972  0.4001  1.6773  1.1194
 4495SOL     OW23798  12.702   7.919  12.908  0.8095  0.7749  0.1567
 4495SOL    HW123799  12.613   7.935  12.874  0.3434  2.0967  1.8577
 4495SOL    HW223800  12.687   7.880  12.994  1.9136  0.2516  0.1203
 4496SOL     OW23801   5.633   2.461   9.856  0.2224 -0.7982  0.3197
 4496SOL    HW123802   5.599   2.372   9.844 -0.2970 -0.4346 -1.0386
 4496SOL    HW223803   5.556   2.517   9.852  0.4782 -0.3105  1.7550
 4497SOL     OW23804  10.525  10.631   7.852  0.0383 -0.1495  0.0889
 4497SOL    HW123805  10.552  10.598   7.766 -2.3821 -0.9364 -0.4224
 4497SOL    HW223806  10.450  10.686   7.835  0.1623  0.5600  1.6278
 4498SOL     OW23807   9.730   8.996   4.097  0.3697  0.5027 -0.1932
 4498SOL    HW123808   9.685   8.954   4.023  0.5498  0.2506 -0.1610
 4498SOL    HW223809   9.681   8.966   4.174  0.7733 -0.0130 -0.1336
 4499SOL     OW23810  11.329   3.960   5.242 -0.0117  0.5846 -0.5847
 4499SOL    HW123811  11.355   3.868   5.242  0.1190  0.6166 -1.6186
 4499SOL    HW223812  11.411   4.008   5.231 -0.1479  0.8100 -0.6263
 4500SOL     OW23813  11.639   0.130   8.970  0.0125 -0.5690  0.2520
 4500SOL    HW123814  11.723   0.092   8.944  1.2579  2.3390 -0.3458
 4500SOL    HW223815  11.603   0.168   8.890  0.3873  2.1833  1.2748
 4501SOL     OW23816   5.725   5.764  10.647 -0.1552  0.7347 -0.4082
 4501SOL    HW123817   5.761   5.812  10.722 -1.8908 -1.7458  2.1962
 4501SOL    HW223818   5.634   5.792  10.643 -0.5529 -0.5262 -0.3834
 4502SOL     OW23819  11.996   5.957   9.238 -0.7359 -0.7521 -0.0683
 4502SOL    HW123820  11.990   5.983   9.146  0.0665 -0.4669 -0.0482
 4502SOL    HW223821  11.931   5.888   9.248 -0.4264 -1.1862 -0.9880
 4503SOL     OW23822   3.236   0.256   8.965  0.1069  0.4093 -0.3263
 4503SOL    HW123823   3.305   0.319   8.986 -0.1663 -0.0755  2.4161
 4503SOL    HW223824   3.165   0.277   9.026 -0.9802 -1.0322 -1.0284
 4504SOL     OW23825  10.093   5.311   5.306 -0.3704  0.1966 -0.0101
 4504SOL    HW123826  10.057   5.225   5.331 -1.9109  1.3008  1.8270
 4504SOL    HW223827  10.076   5.317   5.212 -4.9701  0.4730  0.6000
 4505SOL     OW23828  11.261  12.009   5.549  0.4951  0.2605  0.2655
 4505SOL    HW123829  11.341  12.059   5.537  0.1484  0.9848  0.8912
 4505SOL    HW223830  11.242  11.973   5.462  1.4825  0.0878  0.1119
 4506SOL     OW23831  10.397   4.020   5.869 -0.4646 -0.0632 -0.6850
 4506SOL    HW123832  10.395   4.108   5.908 -0.2521  0.1037 -1.0437
 4506SOL    HW223833  10.325   4.021   5.806  0.5949  0.4557 -1.9456
 4507SOL     OW23834   0.776   5.761   4.610 -0.0393 -0.1312  0.5005
 4507SOL    HW123835   0.762   5.853   4.590 -1.4070 -0.8075 -2.1655
 4507SOL    HW223836   0.699   5.736   4.662 -0.0944  0.0341  0.4992
 4508SOL     OW23837   8.535   6.193   3.267 -0.8733 -0.2261 -0.0581
 4508SOL    HW123838   8.481   6.141   3.207 -1.6829  1.1752 -0.5720
 4508SOL    HW223839   8.620   6.200   3.222 -1.6728  1.3884 -1.4379
 4509SOL     OW23840   3.406   5.048   4.453  0.3591  0.0273 -0.2455
 4509SOL    HW123841   3.318   5.023   4.426  0.6521  0.4618 -1.6953
 4509SOL    HW223842   3.393   5.121   4.513 -0.3128 -0.9181  0.7990
 4510SOL     OW23843  10.632   5.609  11.222 -0.3317  0.6883 -0.2317
 4510SOL    HW123844  10.678   5.525  11.221 -2.1077 -0.3696  0.7891
 4510SOL    HW223845  10.640   5.640  11.312 -0.4463  1.1762 -0.3865
 4511SOL     OW23846   0.438   4.121   1.301  0.2371 -0.1038  0.1417
 4511SOL    HW123847   0.492   4.200   1.292  0.8547 -0.3849  1.3052
 4511SOL    HW223848   0.474   4.060   1.236  1.2739 -0.2601  0.8540
 4512SOL     OW23849  11.184   8.254   5.909 -0.1709 -0.3144 -0.0097
 4512SOL    HW123850  11.220   8.285   5.826 -0.5033  1.0546  0.3342
 4512SOL    HW223851  11.094   8.229   5.888 -0.7140  1.3532  0.1787
 4513SOL     OW23852  10.792   0.779   3.771  0.0325  0.2041 -0.1778
 4513SOL    HW123853  10.817   0.741   3.855 -0.8166 -0.3561 -0.1585
 4513SOL    HW223854  10.768   0.869   3.791  0.2413  0.1971  0.1064
 4514SOL     OW23855   1.802   5.961  11.264  0.4455 -0.0465  0.2362
 4514SOL    HW123856   1.821   6.033  11.324 -0.0825  1.2611 -1.1047
 4514SOL    HW223857   1.713   5.934  11.287  0.1368  0.6405 -0.1300
 4515SOL     OW23858   2.968   5.811   8.149  0.2635 -0.3889  0.3597
 4515SOL    HW123859   2.906   5.841   8.215 -1.7795  1.8160 -2.2837
 4515SOL    HW223860   2.960   5.716   8.150 -2.7743 -0.2430  0.6423
 4516SOL     OW23861   5.501   6.631   6.117  0.5334 -0.0283  0.1549
 4516SOL    HW123862   5.421   6.596   6.076 -0.2577  0.0323  1.5808
 4516SOL    HW223863   5.473   6.712   6.160  1.3158 -0.0870  0.8061
 4517SOL     OW23864   0.852   3.113   1.177  0.0609 -0.1969  0.4608
 4517SOL    HW123865   0.857   3.029   1.223 -1.5422 -0.5488  0.0725
 4517SOL    HW223866   0.898   3.098   1.095 -2.8962 -1.7984 -1.0621
 4518SOL     OW23867  12.387   9.623   7.373  0.8627 -0.0382 -0.1132
 4518SOL    HW123868  12.356   9.691   7.432  0.4473 -1.2351  1.0689
 4518SOL    HW223869  12.340   9.544   7.398  1.7493 -0.9162 -1.0861
 4519SOL     OW23870  11.634  12.604   7.893 -0.2038 -0.6053 -0.6754
 4519SOL    HW123871  11.622  12.651   7.811  0.8557 -1.8550 -1.5791
 4519SOL    HW223872  11.677  12.523   7.868  0.1610 -1.0020  1.1312
 4520SOL     OW23873   3.203   4.867   1.284  0.8208  0.0228  0.7184
 4520SOL    HW123874   3.291   4.854   1.320 -0.0132 -0.1112  2.8761
 4520SOL    HW223875   3.218   4.898   1.195  3.0341 -1.2387  0.5680
 4521SOL     OW23876   5.156  11.594   5.473 -0.6000  0.2688 -0.0937
 4521SOL    HW123877   5.178  11.627   5.560 -0.1351  0.7692 -0.3986
 4521SOL    HW223878   5.212  11.643   5.414 -0.8724 -0.1144 -0.6744
 4522SOL     OW23879   4.287   6.098   0.433  0.4642 -0.4353 -0.0026
 4522SOL    HW123880   4.270   6.190   0.411  0.9790 -0.2726  0.2509
 4522SOL    HW223881   4.342   6.102   0.511  1.2069 -0.9341 -0.4780
 4523SOL     OW23882   3.652   1.565   2.664  0.3357  0.3173  0.3865
 4523SOL    HW123883   3.680   1.474   2.655  0.9224  0.3545  1.5807
 4523SOL    HW223884   3.721   1.605   2.717 -1.2845  0.7662  2.2443
 4524SOL     OW23885  12.093   0.488   3.506  0.3256 -0.6969 -0.7514
 4524SOL    HW123886  12.090   0.454   3.596  2.3529 -1.2448 -0.8402
 4524SOL    HW223887  12.028   0.436   3.458 -0.3147 -0.8460  0.2439
 4525SOL     OW23888   1.859  10.764   7.628 -0.5324  0.2337  0.6023
 4525SOL    HW123889   1.874  10.859   7.626 -0.1706  0.1964 -2.2337
 4525SOL    HW223890   1.946  10.725   7.625 -0.7227 -0.1541 -0.1464
 4526SOL     OW23891   2.152   3.065   8.081 -0.3112 -0.6187  0.0061
 4526SOL    HW123892   2.164   3.086   7.988 -0.4488 -0.1468  0.0890
 4526SOL    HW223893   2.059   3.044   8.088 -0.4011 -0.2082  0.1130
 4527SOL     OW23894  10.433   7.723   0.430  0.3393 -0.1170 -0.0489
 4527SOL    HW123895  10.440   7.632   0.456 -0.6297 -0.5560 -1.2352
 4527SOL    HW223896  10.475   7.727   0.344  2.3559  1.0307  0.9188
 4528SOL     OW23897   3.818   8.088   2.307 -0.0243  0.2759 -0.2142
 4528SOL    HW123898   3.871   8.091   2.227  1.2799 -1.0175  0.5578
 4528SOL    HW223899   3.758   8.014   2.293 -0.0350  0.2705 -0.1401
 4529SOL     OW23900  10.927   5.695  11.185  0.3101  0.1134 -0.3334
 4529SOL    HW123901  10.956   5.785  11.172 -0.1871  0.2708 -0.3896
 4529SOL    HW223902  10.847   5.703  11.237 -0.3849 -0.2159 -1.3127
 4530SOL     OW23903   8.868   6.165   4.530 -0.0243 -0.4834  0.1702
 4530SOL    HW123904   8.848   6.111   4.453  1.6163 -0.2713 -0.4483
 4530SOL    HW223905   8.855   6.255   4.499  1.3857 -0.3581 -0.1389
 4531SOL     OW23906   8.819   5.743   1.936 -0.4001 -0.5536 -0.1642
 4531SOL    HW123907   8.767   5.715   2.011  0.1723  0.1067  0.4944
 4531SOL    HW223908   8.841   5.834   1.954  1.6964 -1.0382  0.0078
 4532SOL     OW23909   0.047   7.437   6.361  0.3610 -0.3203  0.1527
 4532SOL    HW123910  -0.044   7.461   6.373  1.0783  2.6463  0.4146
 4532SOL    HW223911   0.061   7.441   6.266  0.3198 -0.2670  0.1489
 4533SOL     OW23912   1.152   4.829   9.531 -0.2406  0.5522  0.3364
 4533SOL    HW123913   1.074   4.778   9.547  1.0026 -1.7311 -0.4524
 4533SOL    HW223914   1.224   4.765   9.531  1.3341  2.1770 -1.3154
 4534SOL     OW23915   7.147  11.000  10.143  0.0153 -0.5440 -0.3014
 4534SOL    HW123916   7.065  10.962  10.174 -0.2579  0.7558  0.6431
 4534SOL    HW223917   7.120  11.079  10.095  0.7689  1.2644  2.0636
 4535SOL     OW23918  10.430   0.574   1.813  0.8369  0.1489 -0.7651
 4535SOL    HW123919  10.522   0.596   1.797  0.7737  0.3438 -0.8700
 4535SOL    HW223920  10.425   0.480   1.800  1.2765 -0.0639  0.4725
 4536SOL     OW23921  10.435  10.259   4.740 -0.4789 -0.2443  0.1641
 4536SOL    HW123922  10.383  10.287   4.816 -0.1615 -0.9534  0.6639
 4536SOL    HW223923  10.524  10.249   4.775 -0.1347  0.3395 -0.5316
 4537SOL     OW23924  10.576   0.610   5.454 -0.1334 -0.1302  0.2307
 4537SOL    HW123925  10.528   0.609   5.537  0.4119  1.0089  0.5869
 4537SOL    HW223926  10.514   0.646   5.391 -0.0509  0.4955  0.4978
 4538SOL     OW23927   6.532   1.156   0.903  0.2057  0.0151 -0.2272
 4538SOL    HW123928   6.525   1.096   0.977 -0.0344  2.5804  2.0074
 4538SOL    HW223929   6.614   1.132   0.859 -0.2596 -2.3378  0.0848
 4539SOL     OW23930   3.901   7.940  10.272  0.2572  0.1826  0.1520
 4539SOL    HW123931   3.833   7.878  10.299 -1.8025  2.0220 -0.5223
 4539SOL    HW223932   3.912   7.998  10.348  2.1276 -0.9066  0.7616
 4540SOL     OW23933  10.981  11.224   0.780 -0.4260 -0.3681  0.6353
 4540SOL    HW123934  10.946  11.312   0.795 -0.1344 -0.0388 -0.5275
 4540SOL    HW223935  11.016  11.197   0.865  0.7478  1.2159  0.6993
 4541SOL     OW23936   6.643   8.124   9.683 -0.2262  0.4478 -0.0110
 4541SOL    HW123937   6.719   8.079   9.720 -0.0655 -0.7627 -1.6855
 4541SOL    HW223938   6.568   8.077   9.719 -0.0613 -2.0673 -2.5410
 4542SOL     OW23939   1.337  12.510   7.863  0.1980 -0.0559 -0.1124
 4542SOL    HW123940   1.258  12.535   7.910  1.3775  0.8432  1.4864
 4542SOL    HW223941   1.308  12.440   7.803 -1.8179  0.4240  0.2274
 4543SOL     OW23942   6.032   6.522   9.338 -0.2492 -0.4706  0.2495
 4543SOL    HW123943   6.045   6.437   9.297 -0.9094 -1.5642  2.1499
 4543SOL    HW223944   5.999   6.501   9.425  2.0151  1.6319  1.7587
 4544SOL     OW23945   2.117   2.656   0.713 -0.0609  0.2222  0.6117
 4544SOL    HW123946   2.143   2.700   0.794  1.9121 -0.8527  0.6199
 4544SOL    HW223947   2.129   2.723   0.645 -0.8712  0.8583  1.0742
 4545SOL     OW23948   3.667   1.739  11.081 -0.3082 -0.4089 -0.3236
 4545SOL    HW123949   3.637   1.830  11.071 -1.0175 -0.2866  2.1862
 4545SOL    HW223950   3.734   1.728  11.013 -1.6470  1.3059 -2.0478
 4546SOL     OW23951   3.802  12.033  12.544 -0.2645  0.2720 -0.2756
 4546SOL    HW123952   3.772  11.942  12.540  1.4117 -0.2662 -1.3112
 4546SOL    HW223953   3.732  12.083  12.502 -0.9790 -0.5907 -0.1385
 4547SOL     OW23954   0.168   2.267  10.022 -0.3208 -0.0131 -0.8896
 4547SOL    HW123955   0.076   2.275   9.994 -0.5529 -0.2245 -0.1968
 4547SOL    HW223956   0.202   2.195   9.969 -0.3319  0.5462 -1.6930
 4548SOL     OW23957   2.669   5.509   1.030 -0.0774 -0.0120  0.4543
 4548SOL    HW123958   2.577   5.488   1.043 -0.1951  0.2391  0.0523
 4548SOL    HW223959   2.708   5.502   1.117 -0.1061 -1.8914  0.3479
 4549SOL     OW23960   4.162   1.685  11.344  0.2411  0.2331 -0.0043
 4549SOL    HW123961   4.254   1.705  11.330  0.2251 -0.5753 -1.4249
 4549SOL    HW223962   4.161   1.595  11.377 -0.0244  0.4027  0.4662
 4550SOL     OW23963   4.701  12.777   5.738 -0.6759 -0.1509 -0.6319
 4550SOL    HW123964   4.614  12.789   5.700 -1.5090 -0.6197  1.0299
 4550SOL    HW223965   4.688  12.715   5.809  1.0726 -0.3961 -0.4825
 4551SOL     OW23966   5.146   6.877  12.196  0.1374  0.4308 -0.2315
 4551SOL    HW123967   5.121   6.964  12.167  1.4718  0.6793 -0.7153
 4551SOL    HW223968   5.120   6.819  12.125  0.8834  0.6816 -0.7223
 4552SOL     OW23969   5.808   9.372  12.119 -0.1283 -0.5990 -0.0830
 4552SOL    HW123970   5.763   9.320  12.185 -0.0532 -0.2198  0.2691
 4552SOL    HW223971   5.895   9.387  12.155  0.1788 -1.0534 -0.6166
 4553SOL     OW23972   9.954   3.276   4.194  0.2950 -0.2595 -0.3569
 4553SOL    HW123973   9.884   3.337   4.219  0.0426 -0.5633 -0.3231
 4553SOL    HW223974   9.909   3.194   4.174  0.9380 -1.8898  3.9536
 4554SOL     OW23975   3.986   2.598   2.176  0.3488  0.8483 -0.0719
 4554SOL    HW123976   4.081   2.592   2.167  0.4553  0.7130  1.0345
 4554SOL    HW223977   3.971   2.687   2.208  0.1034  0.8371 -0.1547
 4555SOL     OW23978   1.714   7.050  11.463  0.1643 -0.1374  0.5475
 4555SOL    HW123979   1.747   6.976  11.514 -2.1678 -0.7577  1.2765
 4555SOL    HW223980   1.686   7.011  11.380  2.5568  0.6266 -0.6887
 4556SOL     OW23981  12.393   4.743   2.482  0.3850 -0.2302 -0.8658
 4556SOL    HW123982  12.432   4.766   2.397  3.6282 -0.7839  0.3304
 4556SOL    HW223983  12.431   4.659   2.504 -0.2949 -0.0485  1.2186
 4557SOL     OW23984   7.205   0.855   0.212  0.5509  0.2042  0.2860
 4557SOL    HW123985   7.138   0.877   0.276  0.0121 -1.1824  0.2359
 4557SOL    HW223986   7.206   0.759   0.210  1.2899  0.2075 -1.0086
 4558SOL     OW23987   5.219   9.230  12.788 -0.6969  0.8621  0.3432
 4558SOL    HW123988   5.125   9.222  12.779 -0.6265  0.4458 -0.0343
 4558SOL    HW223989   5.242   9.309  12.740 -0.6482  0.0547 -1.0063
 4559SOL     OW23990  11.105   6.860   6.736  0.1789  0.0902  0.6568
 4559SOL    HW123991  11.189   6.841   6.777 -0.3575  0.2034  1.8426
 4559SOL    HW223992  11.128   6.892   6.648  1.2664 -2.4685 -0.1080
 4560SOL     OW23993  10.330  10.275   0.369  1.0948  0.8819  0.1685
 4560SOL    HW123994  10.333  10.184   0.339  0.5190  0.6838  0.7060
 4560SOL    HW223995  10.294  10.323   0.295 -0.8666  0.3088  0.7085
 4561SOL     OW23996   4.593   0.357   1.471 -0.5662  0.1461  0.0997
 4561SOL    HW123997   4.599   0.288   1.537  1.2564 -0.3458 -0.5006
 4561SOL    HW223998   4.577   0.437   1.520 -1.3490 -0.5006  0.9330
 4562SOL     OW23999   1.425   2.538   0.164  0.6494  0.4975 -0.2630
 4562SOL    HW124000   1.340   2.572   0.137  1.8207  1.5538 -3.0169
 4562SOL    HW224001   1.453   2.597   0.235 -0.5688  0.5896  0.1545
 4563SOL     OW24002  10.275   5.552   4.329  0.0333  0.2835  0.3086
 4563SOL    HW124003  10.317   5.519   4.409 -0.1588 -1.3240 -0.2237
 4563SOL    HW224004  10.307   5.642   4.321  1.2406 -0.0139  1.3731
 4564SOL     OW24005   1.778  11.924   7.192 -0.1125  0.1238  0.5990
 4564SOL    HW124006   1.735  11.979   7.126 -0.8677 -1.2564 -0.0902
 4564SOL    HW224007   1.824  11.987   7.248 -0.2160  1.3993 -0.6710
 4565SOL     OW24008   8.642   5.171   2.999 -0.0132 -0.0057 -0.1501
 4565SOL    HW124009   8.699   5.094   3.004 -0.8777 -0.7470 -1.3608
 4565SOL    HW224010   8.611   5.172   2.908 -3.0054 -0.4176  0.7679
 4566SOL     OW24011   5.944   1.732   7.595  0.2008 -0.7811 -0.0009
 4566SOL    HW124012   5.915   1.694   7.678 -0.1019 -1.5032 -0.4216
 4566SOL    HW224013   5.919   1.824   7.600 -2.8104 -1.4737 -0.5909
 4567SOL     OW24014   7.134   8.604   0.748 -0.7730  0.8293  0.2412
 4567SOL    HW124015   7.096   8.641   0.668  0.2111  0.8409 -0.2412
 4567SOL    HW224016   7.117   8.510   0.741 -0.2242  0.7613 -0.2521
 4568SOL     OW24017   1.039   4.767   4.354  0.3334  0.5297  0.0147
 4568SOL    HW124018   1.093   4.769   4.433  0.5072 -0.2539 -0.0741
 4568SOL    HW224019   1.034   4.859   4.325 -1.4815  1.1657  2.0947
 4569SOL     OW24020   9.569   0.490   5.945 -0.0458 -0.2836 -0.4717
 4569SOL    HW124021   9.615   0.407   5.959 -0.9600 -0.4122  2.4834
 4569SOL    HW224022   9.507   0.471   5.874  1.2733 -1.4167 -1.3880
 4570SOL     OW24023   5.547   7.199   6.240 -0.0200 -0.0847 -0.0034
 4570SOL    HW124024   5.453   7.204   6.258  0.1654  1.9446  0.6816
 4570SOL    HW224025   5.570   7.286   6.208  1.7549 -0.3429  0.4639
 4571SOL     OW24026   8.639   9.801   1.943  0.1214 -0.1270 -0.3114
 4571SOL    HW124027   8.704   9.740   1.909 -0.4200 -0.4792 -0.7516
 4571SOL    HW224028   8.573   9.745   1.985 -0.3008  0.1570 -0.5792
 4572SOL     OW24029   1.175   6.274   6.148  0.3477  0.2480 -0.0406
 4572SOL    HW124030   1.138   6.239   6.229  2.1355  2.1557  1.6955
 4572SOL    HW224031   1.182   6.198   6.090  2.4042 -2.0108  2.8651
 4573SOL     OW24032   8.426  10.338   8.444  0.1850  0.1654  0.1423
 4573SOL    HW124033   8.390  10.335   8.355  3.3539 -0.7386 -1.2690
 4573SOL    HW224034   8.505  10.284   8.439  0.8436  0.6437  3.3816
 4574SOL     OW24035   2.806   5.342   4.706 -0.2123  0.1542 -0.2470
 4574SOL    HW124036   2.764   5.277   4.650 -0.5525  0.9955 -1.0086
 4574SOL    HW224037   2.896   5.312   4.715  0.0102  0.2968 -1.7586
 4575SOL     OW24038   0.979   4.997   0.968  0.2108 -0.0204  0.4978
 4575SOL    HW124039   0.911   4.955   0.916  1.1363  0.1311 -0.8955
 4575SOL    HW224040   0.936   5.072   1.009 -0.5603 -0.1978  0.0305
 4576SOL     OW24041  12.963   8.399   6.741 -0.0653 -0.0550 -0.3549
 4576SOL    HW124042  12.992   8.433   6.656  0.7133  0.2769  0.0338
 4576SOL    HW224043  13.005   8.313   6.747 -1.1350 -0.6311 -0.8469
 4577SOL     OW24044  10.765   1.860   8.252  0.0663 -0.5356 -0.3546
 4577SOL    HW124045  10.716   1.940   8.234 -0.2185 -0.3686  1.0366
 4577SOL    HW224046  10.771   1.816   8.168 -0.4407  0.5766 -0.9991
 4578SOL     OW24047   0.340   8.208   5.168 -0.1803  0.0577 -0.0901
 4578SOL    HW124048   0.379   8.207   5.256  0.5972  2.1667 -0.3689
 4578SOL    HW224049   0.415   8.222   5.110 -0.6918 -1.3129 -1.1391
 4579SOL     OW24050  12.355  11.750   0.864 -0.3532 -0.2682  0.2602
 4579SOL    HW124051  12.354  11.844   0.843  2.2961 -0.1903  0.2027
 4579SOL    HW224052  12.288  11.713   0.807 -0.8329  1.4525 -0.3707
 4580SOL     OW24053   6.963   0.225   5.904  0.2180 -0.2633  0.2281
 4580SOL    HW124054   6.907   0.149   5.921  0.5433 -0.4517  0.4716
 4580SOL    HW224055   6.907   0.285   5.854 -0.9018  0.4447  2.2038
 4581SOL     OW24056   2.780   3.735  10.532  0.5521 -0.3221  0.2793
 4581SOL    HW124057   2.799   3.746  10.439 -1.3203  1.8646  0.0882
 4581SOL    HW224058   2.697   3.779  10.546  0.7814 -0.5506  3.0271
 4582SOL     OW24059   0.043  11.286   5.352 -0.5151  0.6864 -0.4163
 4582SOL    HW124060   0.088  11.345   5.413  0.6018  0.6336 -1.1713
 4582SOL    HW224061  -0.038  11.333   5.330 -1.0386  0.6250  1.2152
 4583SOL     OW24062   1.819   2.184   4.386 -0.0177  0.5816 -0.0265
 4583SOL    HW124063   1.887   2.148   4.329  1.1862  2.1464  0.3445
 4583SOL    HW224064   1.863   2.197   4.470 -0.3071  3.0322 -0.1963
 4584SOL     OW24065   7.331   5.689   3.082  0.1440  0.9841  0.9025
 4584SOL    HW124066   7.271   5.615   3.081  0.9603  0.2736 -1.0704
 4584SOL    HW224067   7.275   5.767   3.082 -0.7559  0.3424  0.5288
 4585SOL     OW24068   2.737  11.305   4.517  0.2529  0.0577 -0.3712
 4585SOL    HW124069   2.690  11.274   4.440  0.0374  2.6480 -1.3653
 4585SOL    HW224070   2.673  11.301   4.588 -0.5796  0.7306 -1.0642
 4586SOL     OW24071   8.158  12.460   8.681 -0.5383 -0.4697 -0.9716
 4586SOL    HW124072   8.209  12.440   8.603 -1.5373 -2.3050 -1.2229
 4586SOL    HW224073   8.135  12.552   8.673  0.0310 -0.4387 -2.4480
 4587SOL     OW24074  10.014   6.645   8.603 -0.2474  0.0143  0.0006
 4587SOL    HW124075  10.081   6.709   8.579  0.7027 -0.2600  1.7104
 4587SOL    HW224076  10.054   6.560   8.584 -0.5251 -0.1216  0.0174
 4588SOL     OW24077  11.633   7.425  12.556  0.2071 -0.3616 -0.5421
 4588SOL    HW124078  11.639   7.351  12.495  1.7935 -0.5257 -0.2324
 4588SOL    HW224079  11.674   7.394  12.636 -1.7443 -0.0981  0.6203
 4589SOL     OW24080   6.728   9.173   9.343  0.0547  0.7706 -0.5025
 4589SOL    HW124081   6.645   9.164   9.389  0.8520  0.3181  0.8803
 4589SOL    HW224082   6.757   9.083   9.327  0.2834  0.9259 -1.0018
 4590SOL     OW24083  10.290   8.288   9.551 -0.7216  0.0609 -0.3643
 4590SOL    HW124084  10.315   8.233   9.477  1.6807  1.1671 -0.4734
 4590SOL    HW224085  10.366   8.346   9.564 -1.7600  1.0162  1.8987
 4591SOL     OW24086   3.981   4.499   0.484  0.1732  0.1862 -0.2304
 4591SOL    HW124087   3.943   4.569   0.430 -0.0735  0.6597  0.5471
 4591SOL    HW224088   4.074   4.521   0.490  0.2356  0.0390 -0.5916
 4592SOL     OW24089   3.753   3.458  11.457 -0.4687 -0.1246  0.1735
 4592SOL    HW124090   3.711   3.403  11.391  0.4197 -2.7996  1.6743
 4592SOL    HW224091   3.681   3.508  11.496 -1.0926  1.0462 -2.2567
 4593SOL     OW24092   5.196   9.491  12.456 -0.3697  0.2562  0.2018
 4593SOL    HW124093   5.289   9.501  12.480 -0.3265 -1.2579  0.7441
 4593SOL    HW224094   5.166   9.581  12.442  0.8387  0.8793  1.3331
 4594SOL     OW24095   6.258   5.763   3.770  0.6079  0.4027  0.3687
 4594SOL    HW124096   6.239   5.696   3.704 -2.6720  2.0249 -0.5504
 4594SOL    HW224097   6.344   5.796   3.746  0.8583 -1.1889 -1.1654
 4595SOL     OW24098  12.968   1.483   0.727 -0.0055  0.0304  0.2977
 4595SOL    HW124099  12.880   1.512   0.752  0.8126  1.5360  1.5914
 4595SOL    HW224100  13.026   1.524   0.791  1.7835  0.2900 -1.3829
 4596SOL     OW24101   4.437   5.098   4.369  0.2775  0.3478  0.2898
 4596SOL    HW124102   4.345   5.115   4.389  0.7213  1.9704  1.1410
 4596SOL    HW224103   4.456   5.014   4.411 -0.6256  0.3696  0.7635
 4597SOL     OW24104   7.033   2.168   1.611 -0.3165  0.3859  0.1552
 4597SOL    HW124105   6.963   2.127   1.560 -0.1056 -0.1535  0.2847
 4597SOL    HW224106   6.988   2.227   1.671 -0.7522 -0.6989  0.9228
 4598SOL     OW24107  12.051   1.951   1.567  0.4594 -0.8977  0.1181
 4598SOL    HW124108  12.021   1.860   1.567  0.9621 -1.0746 -1.4206
 4598SOL    HW224109  11.985   1.998   1.516  0.6070 -0.5172  0.2749
 4599SOL     OW24110   2.769   0.872   8.191 -0.0878  0.6425  0.3712
 4599SOL    HW124111   2.841   0.823   8.231 -0.1493 -0.8611 -1.2394
 4599SOL    HW224112   2.690   0.824   8.217 -0.1479 -0.1758 -1.2076
 4600SOL     OW24113   3.698   5.207   5.001 -0.0807 -0.4686  0.1465
 4600SOL    HW124114   3.653   5.291   4.994 -0.1877 -0.5390 -0.0166
 4600SOL    HW224115   3.757   5.217   5.075 -1.3217 -0.8267  1.2201
 4601SOL     OW24116   2.334   2.608   4.321  0.5689 -0.0619 -0.3825
 4601SOL    HW124117   2.373   2.647   4.399  0.3242  1.5077 -0.9904
 4601SOL    HW224118   2.393   2.538   4.295  1.3181  0.2428  0.4801
 4602SOL     OW24119   8.800   0.629   3.010 -0.0499 -0.1979  0.1712
 4602SOL    HW124120   8.849   0.705   3.040  0.9436 -1.5845  2.3670
 4602SOL    HW224121   8.709   0.659   3.004  0.2326  1.0286  1.5523
 4603SOL     OW24122   9.893   4.507   1.642 -0.5103  0.1402 -0.4338
 4603SOL    HW124123   9.979   4.489   1.680  0.8522  0.3174 -3.1678
 4603SOL    HW224124   9.858   4.579   1.695  1.7312  1.1240 -0.1688
 4604SOL     OW24125  11.797   8.765   0.094  0.4129 -0.5020  0.0463
 4604SOL    HW124126  11.874   8.739   0.045  0.5860  1.2275 -0.6647
 4604SOL    HW224127  11.732   8.786   0.027  0.0209  0.0803  0.6027
 4605SOL     OW24128   0.234  10.227   0.134 -0.2099 -0.0952  0.5287
 4605SOL    HW124129   0.150  10.222   0.179  0.1868  1.6618  1.5543
 4605SOL    HW224130   0.281  10.298   0.178  1.4243 -0.3690 -0.6722
 4606SOL     OW24131   5.227  12.568   9.363 -0.7898 -0.3249 -0.0242
 4606SOL    HW124132   5.149  12.618   9.339 -0.2658  1.7125  2.1564
 4606SOL    HW224133   5.298  12.608   9.312 -0.7638 -0.5518 -0.1689
 4607SOL     OW24134   4.747   0.174  10.958  0.1083  0.4690 -0.2609
 4607SOL    HW124135   4.666   0.136  10.991 -0.6062  0.3550 -2.0250
 4607SOL    HW224136   4.740   0.166  10.863  2.1934  0.4640 -0.4614
 4608SOL     OW24137  11.445   3.230   3.986 -0.4589 -0.2177 -0.3622
 4608SOL    HW124138  11.385   3.231   3.911 -0.6928 -1.0888 -0.2022
 4608SOL    HW224139  11.528   3.197   3.950 -0.3556  0.0680 -0.3874
 4609SOL     OW24140   8.856   2.882   9.044  0.9569 -0.5153  0.2097
 4609SOL    HW124141   8.928   2.824   9.065  2.1456 -0.1648 -2.4473
 4609SOL    HW224142   8.781   2.824   9.031  0.6460 -0.8703  3.1003
 4610SOL     OW24143   3.483  10.989   9.501 -0.2298 -0.0963  0.4077
 4610SOL    HW124144   3.502  10.937   9.423 -0.3731 -0.5278  0.6583
 4610SOL    HW224145   3.460  10.925   9.568 -0.2918  0.2827  0.7549
 4611SOL     OW24146   0.552   6.838   0.636  0.8842 -0.2791 -0.0808
 4611SOL    HW124147   0.538   6.829   0.541  4.0602 -0.0130 -0.6821
 4611SOL    HW224148   0.564   6.932   0.650 -0.0031 -0.2685  0.6873
 4612SOL     OW24149   0.605   9.758  10.851  0.0491 -0.3594  0.1004
 4612SOL    HW124150   0.681   9.706  10.878 -0.0094  0.1594  1.3554
 4612SOL    HW224151   0.611   9.762  10.755  0.6275 -1.7779  0.0613
 4613SOL     OW24152   5.238   9.391   8.712  0.3430  0.4195 -0.0889
 4613SOL    HW124153   5.182   9.446   8.658  1.7324  2.2261  0.2239
 4613SOL    HW224154   5.308   9.362   8.652  0.0031 -0.4556 -0.0789
 4614SOL     OW24155   7.504   7.757  11.172  0.5370  0.1977  0.2306
 4614SOL    HW124156   7.569   7.706  11.220 -1.5329 -1.5915  1.3206
 4614SOL    HW224157   7.440   7.692  11.142  0.5707  1.5079 -3.1706
 4615SOL     OW24158   1.321   0.563  12.067  0.0964 -0.2233  0.4902
 4615SOL    HW124159   1.413   0.541  12.079  0.4870  1.4169  0.7445
 4615SOL    HW224160   1.293   0.511  11.992  0.1502 -3.6323  2.5833
 4616SOL     OW24161   3.487   4.839  12.870 -0.4353  0.3462  0.5663
 4616SOL    HW124162   3.410   4.896  12.874 -0.7464 -0.1077  1.4292
 4616SOL    HW224163   3.555   4.893  12.829 -1.4858  0.4220 -1.1960
 4617SOL     OW24164   4.615   6.515  10.434 -0.1759  0.1387 -0.1299
 4617SOL    HW124165   4.633   6.428  10.399 -0.7026 -0.7641  1.7153
 4617SOL    HW224166   4.524   6.532  10.411  0.1035  0.4920 -1.0205
 4618SOL     OW24167   8.471   5.745   1.937  0.1395 -0.5776  0.3115
 4618SOL    HW124168   8.483   5.658   1.975 -0.3639 -0.2153  1.3486
 4618SOL    HW224169   8.444   5.799   2.011  0.3198  0.4340 -0.3472
 4619SOL     OW24170   7.844  11.594   4.982 -0.0780 -0.2149  0.2860
 4619SOL    HW124171   7.810  11.511   5.014 -0.2135 -0.2296  0.1062
 4619SOL    HW224172   7.908  11.570   4.915 -2.2489 -0.1695 -1.9655
 4620SOL     OW24173  11.140  12.897   7.198  0.2537 -0.3288 -0.0611
 4620SOL    HW124174  11.221  12.922   7.241  1.1837 -2.4859 -0.4465
 4620SOL    HW224175  11.162  12.819   7.147 -2.0863 -1.0508 -0.1017
 4621SOL     OW24176  10.259   7.187   6.896  0.3728 -0.3174  0.4104
 4621SOL    HW124177  10.233   7.175   6.804 -0.3680  1.2595  0.3758
 4621SOL    HW224178  10.242   7.280   6.913  3.5890  0.2501  1.1828
 4622SOL     OW24179   4.465   4.570   8.121  0.3871 -0.0715 -0.2386
 4622SOL    HW124180   4.390   4.511   8.116 -0.1106  0.3772  1.2653
 4622SOL    HW224181   4.536   4.516   8.155  0.2772 -0.1052 -0.0616
 4623SOL     OW24182  11.191  10.630  12.537  0.1622 -0.1120  0.1490
 4623SOL    HW124183  11.181  10.671  12.452 -1.4133 -1.2301 -0.2552
 4623SOL    HW224184  11.178  10.536  12.521  1.4631 -0.5504  1.3715
 4624SOL     OW24185  12.498   9.284   7.251  0.2331  0.0573  0.0440
 4624SOL    HW124186  12.440   9.343   7.203 -0.2268  1.0153  1.7020
 4624SOL    HW224187  12.488   9.200   7.206  0.7128  1.1304 -2.2221
 4625SOL     OW24188   8.648  11.787   8.335 -0.4337  0.5753  0.6633
 4625SOL    HW124189   8.558  11.775   8.366  0.0370 -1.3635  1.3938
 4625SOL    HW224190   8.644  11.769   8.241 -1.0081  1.7466  0.4435
 4626SOL     OW24191   9.630   4.952   1.727 -0.4846 -0.3086  0.3715
 4626SOL    HW124192   9.653   5.034   1.771  2.0099 -0.2794 -0.8456
 4626SOL    HW224193   9.557   4.976   1.669 -0.2902  0.8695  0.5953
 4627SOL     OW24194   9.262   2.404  11.312 -0.0040 -0.3531  0.6404
 4627SOL    HW124195   9.215   2.460  11.249 -1.9364 -0.3458  1.9974
 4627SOL    HW224196   9.322   2.464  11.357  1.9124 -0.4885 -1.5745
 4628SOL     OW24197   0.755   9.858   3.649  0.0541  0.7260  0.2413
 4628SOL    HW124198   0.746   9.799   3.574 -0.1159  0.2319  0.6440
 4628SOL    HW224199   0.695   9.930   3.630 -1.9389 -0.6241  1.0680
 4629SOL     OW24200   2.674   4.431   9.226  0.3964 -0.5667  0.3243
 4629SOL    HW124201   2.580   4.435   9.205  0.8664  0.3919 -1.8130
 4629SOL    HW224202   2.697   4.339   9.217 -0.1444 -0.6637 -0.0912
 4630SOL     OW24203   5.747  12.355  11.008  0.7335 -0.1056 -0.4316
 4630SOL    HW124204   5.759  12.345  11.102  0.5668 -2.1729 -0.5962
 4630SOL    HW224205   5.836  12.369  10.974  0.8457  0.1769 -0.0275
 4631SOL     OW24206   7.199   2.521   9.437  0.0418  0.1928 -0.1390
 4631SOL    HW124207   7.279   2.572   9.423  0.8161 -1.1578 -0.7860
 4631SOL    HW224208   7.191   2.466   9.359  0.7348 -2.6254  1.6509
 4632SOL     OW24209  11.622   2.945   7.081  0.3965 -0.0344 -0.3374
 4632SOL    HW124210  11.641   3.037   7.062 -1.3865  0.1285 -1.5453
 4632SOL    HW224211  11.702   2.899   7.054  1.1968  1.1020 -0.0070
 4633SOL     OW24212   8.862   5.191   7.566  0.5567 -0.4148  0.0014
 4633SOL    HW124213   8.930   5.124   7.571 -0.1851 -1.0927  1.2894
 4633SOL    HW224214   8.802   5.171   7.637 -0.8377  0.3722 -0.9051
 4634SOL     OW24215   1.477  12.913   2.662 -0.0306 -0.1757  0.0366
 4634SOL    HW124216   1.504  12.943   2.576  0.2775  0.4328  0.3396
 4634SOL    HW224217   1.402  12.968   2.684  0.2393  0.0538  0.3946
 4635SOL     OW24218   2.502   8.403   1.778 -0.1548 -0.2633  0.0633
 4635SOL    HW124219   2.591   8.369   1.789 -0.4244 -0.7747  0.7398
 4635SOL    HW224220   2.492   8.469   1.846 -0.4087 -0.4574  0.2195
 4636SOL     OW24221   1.761  11.488   3.601  0.4381 -0.7272 -0.0060
 4636SOL    HW124222   1.686  11.494   3.660  0.3709 -0.4081 -0.1185
 4636SOL    HW224223   1.733  11.536   3.523  0.6859 -0.7747 -0.1237
 4637SOL     OW24224  11.922  12.458   6.303  0.6922 -0.1126  0.0173
 4637SOL    HW124225  11.953  12.548   6.297  0.1743  0.0830  0.1575
 4637SOL    HW224226  11.980  12.408   6.245  3.0681 -0.2877  2.3807
 4638SOL     OW24227   4.024   6.906   9.355 -0.4514 -0.3519  0.0553
 4638SOL    HW124228   4.094   6.880   9.414  0.2423  0.0896 -0.5505
 4638SOL    HW224229   4.047   6.866   9.271 -0.9726 -0.2747 -0.1312
 4639SOL     OW24230   8.865   0.763  11.310  0.2983  0.0803  0.7384
 4639SOL    HW124231   8.951   0.731  11.338  0.6476  0.7798  0.4927
 4639SOL    HW224232   8.861   0.853  11.342 -0.0750  0.2645  0.1974
 4640SOL     OW24233   4.150   2.960   5.164 -0.0282  0.4706  0.1650
 4640SOL    HW124234   4.209   3.029   5.193  1.5830 -1.1185  0.8179
 4640SOL    HW224235   4.179   2.938   5.076  0.5969 -0.5404  0.6114
 4641SOL     OW24236  11.174   4.439  10.688 -0.2057 -0.3069 -0.0012
 4641SOL    HW124237  11.257   4.453  10.733 -1.3077 -1.2474  2.5044
 4641SOL    HW224238  11.121   4.516  10.711 -0.8322 -0.8694  0.4822
 4642SOL     OW24239   0.674   5.947   2.568 -0.2088  0.2121 -0.5345
 4642SOL    HW124240   0.745   5.952   2.503  1.4935  2.3107  1.3176
 4642SOL    HW224241   0.716   5.913   2.647 -1.6250  0.0638  0.1871
 4643SOL     OW24242   1.790   1.061   0.409 -0.0179 -0.2960 -0.2452
 4643SOL    HW124243   1.851   1.098   0.472  0.1907  0.3206 -0.8015
 4643SOL    HW224244   1.710   1.112   0.420  0.4464  0.7090 -1.3941
 4644SOL     OW24245   3.144   9.344   8.404  0.3272  0.3417  0.4111
 4644SOL    HW124246   3.082   9.413   8.427 -0.6738 -0.0658 -0.9489
 4644SOL    HW224247   3.137   9.280   8.475 -1.5076 -0.1427 -0.1494
 4645SOL     OW24248  11.861  11.310   8.582 -0.1763 -0.5632 -0.0148
 4645SOL    HW124249  11.940  11.262   8.562  0.6499  1.8353 -3.3077
 4645SOL    HW224250  11.885  11.402   8.570 -3.0863  0.3551  0.3458
 4646SOL     OW24251   4.777   7.950  12.677  0.0025  0.2685 -0.8006
 4646SOL    HW124252   4.806   7.912  12.593  1.3532  1.9506 -1.1461
 4646SOL    HW224253   4.840   7.917  12.741 -1.9960 -2.4097 -0.0074
 4647SOL     OW24254  10.928   5.494   0.011  0.3911  0.1785 -0.5423
 4647SOL    HW124255  10.982   5.486  -0.067  0.3379 -2.1785 -0.4023
 4647SOL    HW224256  10.857   5.430  -0.001 -0.5314  0.9004  0.7182
 4648SOL     OW24257   1.068   6.696   8.382 -0.2652  0.0619 -0.0223
 4648SOL    HW124258   0.974   6.683   8.368 -0.2023  0.9366 -1.4404
 4648SOL    HW224259   1.078   6.695   8.477 -1.9667  1.5786  0.2246
 4649SOL     OW24260  12.046  11.204   6.782 -0.4886  0.7924  0.3870
 4649SOL    HW124261  11.968  11.259   6.788 -0.8117  0.2533  1.2778
 4649SOL    HW224262  12.013  11.117   6.764  0.1098  1.1565 -3.0974
 4650SOL     OW24263   4.635   1.060   8.046 -0.1924 -0.1113 -0.2180
 4650SOL    HW124264   4.697   0.992   8.020  0.8800  0.4437  0.8212
 4650SOL    HW224265   4.690   1.134   8.073 -1.3286  1.2719 -1.5453
 4651SOL     OW24266   4.646   5.067   0.734  0.3901 -0.0112  0.1579
 4651SOL    HW124267   4.567   5.117   0.712  0.1167 -0.1364  0.8318
 4651SOL    HW224268   4.704   5.132   0.774  0.7142  0.1224 -0.5120
 4652SOL     OW24269  10.433   5.925   5.803 -0.2387  0.1685 -0.6644
 4652SOL    HW124270  10.515   5.906   5.759  0.2139 -0.3471  0.3548
 4652SOL    HW224271  10.388   5.987   5.746  0.9098  0.5476 -1.1827
 4653SOL     OW24272   6.018   5.300  11.509  0.0800 -0.0864 -0.3892
 4653SOL    HW124273   6.094   5.345  11.547 -0.1842 -0.7355  0.9719
 4653SOL    HW224274   5.968   5.270  11.585 -0.4920 -1.4318 -1.2700
 4654SOL     OW24275   3.693  10.642  12.000  0.8028  0.0347 -0.2912
 4654SOL    HW124276   3.691  10.723  12.051  0.1123  0.2680 -0.6761
 4654SOL    HW224277   3.606  10.636  11.961 -0.2246 -2.4160  2.1019
 4655SOL     OW24278   4.469   2.656   9.773  0.3838  0.2085  0.0468
 4655SOL    HW124279   4.549   2.700   9.746  0.3644 -0.3838 -1.0540
 4655SOL    HW224280   4.412   2.662   9.696 -1.1739  1.8191  1.2455
 4656SOL     OW24281   2.332  11.591  10.791 -0.0687  0.7396  0.1333
 4656SOL    HW124282   2.368  11.506  10.764 -0.8311  0.7623 -0.9986
 4656SOL    HW224283   2.398  11.655  10.765 -0.8772  0.7824 -1.9374
 4657SOL     OW24284  11.443  11.669   6.524 -0.3896  0.1262 -0.6370
 4657SOL    HW124285  11.457  11.643   6.433 -0.8742  1.1695 -1.0222
 4657SOL    HW224286  11.462  11.763   6.526 -0.3728  0.1171  0.3486
 4658SOL     OW24287   3.496   7.175   3.643  1.0441  0.2958 -0.0417
 4658SOL    HW124288   3.523   7.167   3.551  0.0708  0.6268 -0.3644
 4658SOL    HW224289   3.414   7.126   3.649  1.0662  0.3341  0.6396
 4659SOL     OW24290  12.850   8.061   0.689 -0.1585  0.5288  0.3734
 4659SOL    HW124291  12.940   8.036   0.669 -0.6536 -1.2254  0.1357
 4659SOL    HW224292  12.804   8.056   0.605 -1.2557 -2.3721  1.0274
 4660SOL     OW24293  11.841   1.606   6.070  0.0807  0.2860  0.3167
 4660SOL    HW124294  11.916   1.602   6.010  0.7763 -1.6284  1.2526
 4660SOL    HW224295  11.765   1.590   6.014  0.6134 -0.3305 -0.2443
 4661SOL     OW24296   5.797   6.545   6.640 -0.2835  0.7501  0.0796
 4661SOL    HW124297   5.800   6.500   6.555 -2.1036  2.1051 -0.7766
 4661SOL    HW224298   5.834   6.632   6.622  1.2103  0.3913  1.2009
 4662SOL     OW24299  11.444  12.381   3.871 -0.3143 -0.2862 -0.1386
 4662SOL    HW124300  11.501  12.402   3.944 -0.3208  0.1718 -0.2592
 4662SOL    HW224301  11.443  12.461   3.818 -0.3576 -0.5912 -0.6051
 4663SOL     OW24302   7.467   3.282   7.972  0.2560 -0.3899 -0.0035
 4663SOL    HW124303   7.396   3.335   8.008  0.4163 -1.4415  1.9941
 4663SOL    HW224304   7.432   3.250   7.889 -2.1788 -1.8408  1.4212
 4664SOL     OW24305   3.234   6.507  10.461  0.1654  0.1403  0.4237
 4664SOL    HW124306   3.195   6.470  10.382  1.2086 -0.0923  0.0022
 4664SOL    HW224307   3.246   6.431  10.519  0.4217  0.1391  0.3688
 4665SOL     OW24308   2.642   5.584  12.009 -0.1473  0.2585 -0.6575
 4665SOL    HW124309   2.614   5.524  12.079 -0.8374  0.8722 -0.3891
 4665SOL    HW224310   2.711   5.636  12.049 -0.5269  0.5947 -0.4257
 4666SOL     OW24311   1.125   4.213   3.460  0.6692  0.1271  0.3729
 4666SOL    HW124312   1.111   4.120   3.478  0.8228 -0.3109 -1.5264
 4666SOL    HW224313   1.080   4.259   3.530  0.5251 -1.3839  1.3050
 4667SOL     OW24314   7.261   0.897  10.941 -0.1448  0.1827 -0.0492
 4667SOL    HW124315   7.182   0.866  10.896 -1.8551  2.4601  1.1932
 4667SOL    HW224316   7.241   0.886  11.034  1.7032 -0.6842  0.2897
 4668SOL     OW24317  12.588   0.108   7.108  0.3093  0.2670 -0.0404
 4668SOL    HW124318  12.587   0.195   7.068  1.0630  0.2890 -0.0264
 4668SOL    HW224319  12.600   0.048   7.034  1.2586  0.2797  0.0859
 4669SOL     OW24320   1.057   5.688   5.507 -0.8532  0.3702  0.4916
 4669SOL    HW124321   1.134   5.739   5.482 -1.4992  1.1039 -0.0684
 4669SOL    HW224322   1.085   5.596   5.501  0.2138  0.6481  1.1360
 4670SOL     OW24323   9.268   3.333  10.031 -0.1105 -0.4488  0.4355
 4670SOL    HW124324   9.280   3.239  10.043  2.4283 -0.2913 -0.2787
 4670SOL    HW224325   9.184   3.341   9.986  0.4260 -2.5315 -1.1064
 4671SOL     OW24326  10.860   9.426   5.983 -0.1307 -0.0461 -0.0917
 4671SOL    HW124327  10.910   9.494   6.029 -0.8118  0.4881 -0.1260
 4671SOL    HW224328  10.925   9.377   5.934  0.0785  2.7134 -2.8465
 4672SOL     OW24329   1.733  10.519   0.600  0.2665  0.3082  0.1055
 4672SOL    HW124330   1.729  10.441   0.656 -2.5927  0.2145 -0.0560
 4672SOL    HW224331   1.761  10.486   0.515 -2.1266 -0.8762 -0.3034
 4673SOL     OW24332   8.127  10.153   8.610  0.4275 -0.1897  0.1969
 4673SOL    HW124333   8.117  10.244   8.638  0.3152  0.1236 -0.8149
 4673SOL    HW224334   8.109  10.155   8.516  0.6759 -1.2168  0.1171
 4674SOL     OW24335   3.321   0.176   6.034  0.0897 -0.3114 -0.2364
 4674SOL    HW124336   3.331   0.081   6.035  3.3351 -0.2376 -3.5760
 4674SOL    HW224337   3.247   0.191   5.976 -0.9232 -0.7345  0.9003
 4675SOL     OW24338   4.091   1.347   4.693  0.5355 -0.2221  0.4418
 4675SOL    HW124339   4.091   1.276   4.628  0.7015  0.4781 -0.3462
 4675SOL    HW224340   4.021   1.323   4.754 -0.9897  0.0438 -1.1004
 4676SOL     OW24341   8.417   5.490   1.096 -0.2891 -0.5341 -0.1479
 4676SOL    HW124342   8.493   5.468   1.150 -1.2552  0.7818  1.8698
 4676SOL    HW224343   8.451   5.489   1.006  2.7735  2.1380  0.7547
 4677SOL     OW24344  10.734   8.753  10.473 -0.0548  0.7949 -0.3226
 4677SOL    HW124345  10.772   8.736  10.559  0.1201 -1.5967 -0.8158
 4677SOL    HW224346  10.651   8.797  10.491 -0.0935  0.1721  1.0827
 4678SOL     OW24347   5.439  10.617   4.880  0.0817 -0.1956 -0.3089
 4678SOL    HW124348   5.357  10.663   4.862  0.8171  1.8708  1.1420
 4678SOL    HW224349   5.429  10.586   4.970  1.0005  0.4410  0.0312
 4679SOL     OW24350   9.235   1.337   9.706 -0.1889  0.4874  0.6161
 4679SOL    HW124351   9.269   1.420   9.675  0.0395 -0.3042 -1.3760
 4679SOL    HW224352   9.311   1.291   9.742  0.1705  0.1811 -0.5055
 4680SOL     OW24353  10.469   8.104   2.900 -0.0387  0.2966  0.0361
 4680SOL    HW124354  10.442   8.126   2.989 -0.0544 -1.5660  0.5453
 4680SOL    HW224355  10.388   8.080   2.855 -0.1983  2.3447 -0.8859
 4681SOL     OW24356  10.179  11.952  11.506 -0.0578 -0.3349 -0.0407
 4681SOL    HW124357  10.136  11.900  11.438  0.7949  0.5450 -1.2938
 4681SOL    HW224358  10.107  11.997  11.550 -0.6473 -1.1506 -0.1313
 4682SOL     OW24359   7.304   9.904   0.547  0.0733  0.1096 -0.2909
 4682SOL    HW124360   7.276   9.817   0.576  0.0214  0.8117  1.8945
 4682SOL    HW224361   7.224   9.946   0.516 -0.2042 -0.0395  0.2128
 4683SOL     OW24362   3.185   0.156   4.007 -0.0924  0.3670 -0.3000
 4683SOL    HW124363   3.156   0.226   4.066  0.0999  0.4295 -0.2808
 4683SOL    HW224364   3.103   0.116   3.977 -0.2289 -1.9595  2.7230
 4684SOL     OW24365   3.359   3.209  10.284 -0.0224  0.1893  0.6640
 4684SOL    HW124366   3.413   3.170  10.354 -0.6376 -2.6878 -0.3042
 4684SOL    HW224367   3.282   3.152  10.279 -0.2639  0.6081 -1.9492
 4685SOL     OW24368   8.012   5.159   6.996 -0.2548 -0.1104 -0.1682
 4685SOL    HW124369   7.924   5.191   7.013 -0.2411 -0.0225 -0.2639
 4685SOL    HW224370   8.028   5.095   7.066  0.0187  0.6681  0.4984
 4686SOL     OW24371   3.843   1.248   4.311  0.2422  0.1574  0.1166
 4686SOL    HW124372   3.928   1.250   4.268  0.5215 -1.3827  0.5590
 4686SOL    HW224373   3.780   1.267   4.241  0.9038  0.9016 -0.2910
 4687SOL     OW24374   7.472   6.160   2.336 -0.3843  0.3760  0.4924
 4687SOL    HW124375   7.497   6.246   2.300 -0.6962 -0.1945 -1.1880
 4687SOL    HW224376   7.393   6.136   2.287  0.3287 -1.3667  0.1490
 4688SOL     OW24377   5.837   6.591   5.576  0.4165 -0.0667 -0.0279
 4688SOL    HW124378   5.923   6.607   5.536  0.5235 -0.1263  0.1745
 4688SOL    HW224379   5.838   6.498   5.598  0.7654  0.1763  1.0504
 4689SOL     OW24380   4.522   6.790   9.207 -0.7285 -0.4831 -0.6964
 4689SOL    HW124381   4.598   6.848   9.206 -0.9162 -0.1771 -3.2446
 4689SOL    HW224382   4.466   6.822   9.136 -2.9267 -1.1550  0.6301
 4690SOL     OW24383   4.162   9.681   1.585  0.0627  0.4081 -0.0862
 4690SOL    HW124384   4.098   9.731   1.636  1.0337  1.4644  0.1505
 4690SOL    HW224385   4.131   9.590   1.590 -3.4289  1.2279 -3.0209
 4691SOL     OW24386   2.910   4.256  12.642  0.1457 -0.1034 -0.1748
 4691SOL    HW124387   2.880   4.319  12.707 -1.0213 -0.9954  0.1937
 4691SOL    HW224388   2.849   4.182  12.650  1.4624 -1.2895 -0.5818
 4692SOL     OW24389   9.397   8.329   6.860 -0.5425  0.0673 -0.4671
 4692SOL    HW124390   9.406   8.373   6.776  2.3428 -1.2056 -0.9314
 4692SOL    HW224391   9.486   8.304   6.884 -1.7296 -3.8944  0.5750
 4693SOL     OW24392   6.880  10.687   5.005  0.3970 -0.3302 -0.3555
 4693SOL    HW124393   6.936  10.616   5.035  0.2385 -1.0573 -1.6958
 4693SOL    HW224394   6.796  10.646   4.986 -0.0120  0.4005 -0.1903
 4694SOL     OW24395  10.617   4.781   0.358 -0.0265  0.3724  0.1721
 4694SOL    HW124396  10.677   4.774   0.433  0.2207  1.9391  0.1621
 4694SOL    HW224397  10.628   4.871   0.328 -0.7721  0.0197 -1.2195
 4695SOL     OW24398   0.877   5.099   5.944 -0.6895 -0.4237  0.4795
 4695SOL    HW124399   0.955   5.146   5.914 -1.1273  0.0194  0.0251
 4695SOL    HW224400   0.896   5.078   6.036  0.3720 -1.1883  0.1103
 4696SOL     OW24401  10.282   8.537  10.268 -0.9042 -0.1143  0.6805
 4696SOL    HW124402  10.369   8.505  10.291  0.0382  2.2319  0.6861
 4696SOL    HW224403  10.287   8.555  10.174 -1.7117 -0.9014  0.4808
 4697SOL     OW24404   9.468   2.239  11.678 -0.2690  1.1451 -0.2100
 4697SOL    HW124405   9.556   2.209  11.655 -0.4672  1.1306 -0.9858
 4697SOL    HW224406   9.482   2.315  11.735  0.2412 -0.1550  1.5037
 4698SOL     OW24407  11.060   1.693   5.244 -0.1017 -0.1994 -0.0924
 4698SOL    HW124408  11.139   1.641   5.260 -0.9035 -1.4670 -0.1424
 4698SOL    HW224409  10.991   1.629   5.229 -1.3573  0.8610  0.8742
 4699SOL     OW24410   7.764   1.229  10.366  0.2012 -0.3763 -0.1143
 4699SOL    HW124411   7.838   1.288  10.375  0.4854 -0.9228  1.4096
 4699SOL    HW224412   7.688   1.287  10.355  0.5099  0.2859  1.0665
 4700SOL     OW24413   9.473   6.221   8.252  0.1019 -0.1519 -0.0322
 4700SOL    HW124414   9.427   6.237   8.170 -1.4713 -1.2362  0.5659
 4700SOL    HW224415   9.402   6.205   8.315  1.2942 -2.0670  0.9230
 4701SOL     OW24416   3.397   4.670   5.135 -0.0360 -0.4991  0.6248
 4701SOL    HW124417   3.425   4.732   5.202 -2.7014 -0.4194  1.7852
 4701SOL    HW224418   3.464   4.602   5.135  1.8315  1.2306  0.8506
 4702SOL     OW24419   0.242   0.022  12.284  0.0703  0.2591 -1.0958
 4702SOL    HW124420   0.290   0.105  12.281  1.3604 -0.3290  0.9059
 4702SOL    HW224421   0.310  -0.045  12.273 -0.7539 -0.5500 -1.3374
 4703SOL     OW24422   1.661   1.951   0.785 -0.0027  0.0292  0.3293
 4703SOL    HW124423   1.597   2.008   0.743 -1.4840  0.0897  2.4925
 4703SOL    HW224424   1.631   1.945   0.876  2.1691 -1.2830  1.0237
 4704SOL     OW24425   8.492   2.090   6.402  0.4162  0.7024 -0.0167
 4704SOL    HW124426   8.459   2.000   6.396  0.0545  0.8114  0.3394
 4704SOL    HW224427   8.587   2.080   6.392  0.4382  0.2143  0.6151
 4705SOL     OW24428   8.240   0.059   9.855  0.5052 -0.7795 -0.2507
 4705SOL    HW124429   8.223   0.105   9.938  2.4640 -0.7491  0.1852
 4705SOL    HW224430   8.225  -0.033   9.875  2.6173 -0.9755  0.6886
 4706SOL     OW24431   2.102   3.112   4.742 -0.4826  0.1653 -0.0745
 4706SOL    HW124432   2.194   3.126   4.719 -1.0090  1.4438 -1.6026
 4706SOL    HW224433   2.071   3.197   4.774 -1.7903  0.5524 -2.1632
 4707SOL     OW24434   1.480   4.123   2.951  0.8623  0.0183  0.0294
 4707SOL    HW124435   1.573   4.111   2.934  0.9920  1.0720 -0.1213
 4707SOL    HW224436   1.439   4.120   2.865  0.8174  0.0036  0.0514
 4708SOL     OW24437   6.866   2.124  12.391  0.3508 -0.8758  0.1203
 4708SOL    HW124438   6.888   2.205  12.437 -0.3794  0.0182 -1.0495
 4708SOL    HW224439   6.818   2.153  12.314 -2.1797 -2.5587  0.9457
 4709SOL     OW24440   1.360   6.166   4.739  0.0192 -0.0646 -0.6487
 4709SOL    HW124441   1.377   6.169   4.833  0.5587  2.3497 -0.7613
 4709SOL    HW224442   1.422   6.228   4.701  0.5016 -1.6839 -2.7592
 4710SOL     OW24443   6.162  11.880   5.708 -0.4112 -0.3691  0.3929
 4710SOL    HW124444   6.207  11.873   5.623 -1.4163  0.3311 -0.2207
 4710SOL    HW224445   6.153  11.789   5.738 -0.5249 -0.6676 -0.5157
 4711SOL     OW24446   1.696   8.340  10.753  0.0073 -0.1793 -0.1928
 4711SOL    HW124447   1.644   8.318  10.676  1.2110 -0.8499 -0.8472
 4711SOL    HW224448   1.779   8.372  10.717  0.5094 -0.3076  0.8265
 4712SOL     OW24449  12.987  10.722   2.496  0.2285  0.8858 -0.6526
 4712SOL    HW124450  12.974  10.663   2.421  0.7164  1.0761 -0.8922
 4712SOL    HW224451  12.904  10.720   2.543 -0.1992  1.0353 -1.3895
 4713SOL     OW24452   9.974   8.847   7.467 -0.3044  0.1120 -0.3498
 4713SOL    HW124453  10.017   8.791   7.531  0.5074  0.1602 -0.8349
 4713SOL    HW224454   9.885   8.859   7.501  0.1142  0.1649  0.7739
 4714SOL     OW24455   6.685   2.784   6.160  0.2363 -0.4866  0.0182
 4714SOL    HW124456   6.707   2.877   6.159 -0.0872 -0.4111 -0.5284
 4714SOL    HW224457   6.714   2.752   6.075 -2.3459 -0.2326 -1.0464
 4715SOL     OW24458   4.652  10.884   6.953  0.4705 -0.0043 -0.0497
 4715SOL    HW124459   4.662  10.968   6.997  0.4821 -0.0666  0.0695
 4715SOL    HW224460   4.636  10.906   6.861 -1.1225  0.1725  0.2463
 4716SOL     OW24461   6.990   6.627   3.859 -0.3293 -0.0430  0.5261
 4716SOL    HW124462   6.997   6.542   3.903 -0.0816 -0.1032  0.3695
 4716SOL    HW224463   6.898   6.653   3.873 -0.2080  0.0340  1.2552
 4717SOL     OW24464   2.648  10.317   4.743 -0.4964  0.5646 -0.6616
 4717SOL    HW124465   2.714  10.249   4.729 -1.4543 -0.7884  1.0157
 4717SOL    HW224466   2.600  10.321   4.660 -0.7874 -1.2522 -0.6234
 4718SOL     OW24467   1.619   7.194  12.385  0.1298  0.3595 -0.3087
 4718SOL    HW124468   1.620   7.279  12.340 -2.0707 -0.3167 -1.8104
 4718SOL    HW224469   1.630   7.216  12.477  0.0283  2.2531 -0.6970
 4719SOL     OW24470  11.121   8.088   7.083 -1.1137 -0.3361 -0.0846
 4719SOL    HW124471  11.056   8.123   7.022 -2.5147 -2.3387  0.1802
 4719SOL    HW224472  11.177   8.032   7.029 -1.6128 -1.1528  0.2290
 4720SOL     OW24473   6.303   8.720   3.832  0.6336  0.7405  0.0269
 4720SOL    HW124474   6.260   8.640   3.862 -1.6951  1.3352 -1.4433
 4720SOL    HW224475   6.396   8.704   3.848  0.1903 -1.9194  0.5234
 4721SOL     OW24476   1.364   0.727   9.944  0.1319  0.1377 -0.8563
 4721SOL    HW124477   1.392   0.705   9.855 -0.7835 -0.0429 -1.1101
 4721SOL    HW224478   1.337   0.818   9.939  2.7446  1.0232 -0.0911
 4722SOL     OW24479   8.337  11.818   4.176 -0.1410 -0.1169 -0.0119
 4722SOL    HW124480   8.247  11.787   4.183 -0.8498  1.5704 -0.9267
 4722SOL    HW224481   8.385  11.744   4.140 -1.1107 -1.1171  0.6724
 4723SOL     OW24482  12.416   6.538   1.691  0.2383 -0.1457  0.3062
 4723SOL    HW124483  12.382   6.626   1.699  0.5295 -0.0840  0.8827
 4723SOL    HW224484  12.416   6.503   1.780  0.6767 -0.5159  0.1680
 4724SOL     OW24485  11.458   1.095   9.888 -0.5643 -0.4936  0.0533
 4724SOL    HW124486  11.541   1.047   9.876  0.2806  0.9154  0.0947
 4724SOL    HW224487  11.471   1.178   9.842 -0.6569  1.2232  2.8869
 4725SOL     OW24488   6.658   7.274   3.516  0.2351  0.0060  0.1122
 4725SOL    HW124489   6.600   7.347   3.538 -0.6657 -0.8294  0.5725
 4725SOL    HW224490   6.648   7.262   3.422  0.2984  0.3984  0.0551
 4726SOL     OW24491   9.766   4.905   4.727  0.5321  0.3278 -0.1905
 4726SOL    HW124492   9.736   4.879   4.814 -0.1288  0.4808 -0.3712
 4726SOL    HW224493   9.836   4.842   4.706 -1.8274 -2.1687 -1.1537
 4727SOL     OW24494  12.213   7.059   4.445  0.1204  0.2015  0.0632
 4727SOL    HW124495  12.284   7.094   4.391  0.2839  1.7212  1.1984
 4727SOL    HW224496  12.226   6.964   4.444  1.6053  0.3867 -0.4895
 4728SOL     OW24497   0.520   3.089  12.073  0.3879  0.2893  0.4330
 4728SOL    HW124498   0.440   3.089  12.125  0.6486  0.6045  0.8385
 4728SOL    HW224499   0.571   3.163  12.107  0.0244  1.2882 -1.0731
 4729SOL     OW24500   5.223   6.059   0.489 -0.0452  0.7095  0.0804
 4729SOL    HW124501   5.300   6.051   0.433 -0.6357  0.5616 -0.7392
 4729SOL    HW224502   5.165   6.119   0.442 -1.0244 -0.2821 -0.0311
 4730SOL     OW24503   4.475   8.996   2.736  0.1466 -0.0125 -0.1234
 4730SOL    HW124504   4.393   9.044   2.723 -0.2457 -0.8684 -0.9368
 4730SOL    HW224505   4.476   8.975   2.830 -0.3667  0.3452 -0.0326
 4731SOL     OW24506  11.916  11.890   5.118  0.5548 -0.3592 -0.3598
 4731SOL    HW124507  11.836  11.863   5.071 -0.3889  3.0631 -0.9906
 4731SOL    HW224508  11.890  11.893   5.210 -0.6806  2.3030 -0.7096
 4732SOL     OW24509   4.218  10.479   2.361 -0.0052 -0.2346 -0.1146
 4732SOL    HW124510   4.176  10.412   2.414 -0.5695  0.4053  0.2692
 4732SOL    HW224511   4.202  10.561   2.409  1.0488  0.1166 -0.3415
 4733SOL     OW24512  12.810  11.625   0.028 -0.9618  0.3490 -0.2747
 4733SOL    HW124513  12.812  11.655  -0.063 -0.6666 -0.3318 -0.4957
 4733SOL    HW224514  12.724  11.653   0.060 -0.7496  1.3178 -0.5028
 4734SOL     OW24515  10.484   4.426   2.278 -0.2810  0.1573  0.3776
 4734SOL    HW124516  10.520   4.477   2.352 -2.3099 -0.9945  2.2511
 4734SOL    HW224517  10.403   4.471   2.255 -0.2909 -0.2145 -0.3421
 4735SOL     OW24518   5.620   1.542  11.699 -0.2579  0.3863  0.6626
 4735SOL    HW124519   5.579   1.624  11.671  0.6382 -0.5142 -4.1792
 4735SOL    HW224520   5.710   1.547  11.665 -0.2856 -2.6722 -0.1432
 4736SOL     OW24521   2.181   7.907   8.646  0.2865  0.0605  0.0304
 4736SOL    HW124522   2.167   7.837   8.583 -0.5774 -1.2251  1.6006
 4736SOL    HW224523   2.094   7.941   8.665  0.3902 -0.4294  1.4670
 4737SOL     OW24524   4.943   8.856   8.329  0.5814  0.3373 -0.0921
 4737SOL    HW124525   4.959   8.882   8.238  2.3293  1.7143  0.5354
 4737SOL    HW224526   4.863   8.902   8.353 -0.2297 -0.5226 -1.1033
 4738SOL     OW24527  10.748  10.232  11.424 -0.0613  0.0923  0.0674
 4738SOL    HW124528  10.756  10.145  11.384  1.0993 -0.1796  0.8448
 4738SOL    HW224529  10.837  10.268  11.422 -0.8461  2.1674 -2.1400
 4739SOL     OW24530   4.744   5.459   9.566 -0.4038 -0.1027 -0.5783
 4739SOL    HW124531   4.794   5.406   9.628 -0.6487  0.0742 -0.2267
 4739SOL    HW224532   4.782   5.439   9.481  0.2200 -0.0245 -0.3236
 4740SOL     OW24533  10.022   9.970   3.220 -0.3884 -0.1734  0.4230
 4740SOL    HW124534   9.983   9.884   3.202 -2.4804  0.7915 -0.0581
 4740SOL    HW224535   9.956  10.015   3.273  0.0649  1.5708 -0.4085
 4741SOL     OW24536   2.953   3.327  10.651  0.5696 -0.1186  0.7827
 4741SOL    HW124537   2.982   3.416  10.628  0.2468 -0.5299 -1.3534
 4741SOL    HW224538   2.914   3.293  10.571  0.5191 -2.1428  1.6238
 4742SOL     OW24539  12.802  11.479  11.181  0.4861  0.4436  0.5082
 4742SOL    HW124540  12.785  11.480  11.087  0.3392  2.4091  0.5266
 4742SOL    HW224541  12.897  11.485  11.188  0.5767 -0.7546  0.4997
 4743SOL     OW24542   8.266   9.530   8.073  0.0472  0.0282  0.1821
 4743SOL    HW124543   8.303   9.469   8.010 -2.1396 -1.5534  0.3189
 4743SOL    HW224544   8.211   9.588   8.020  0.2278  0.3519  0.3446
 4744SOL     OW24545  12.833   5.031   2.832  0.0565 -0.0195  0.4742
 4744SOL    HW124546  12.866   5.036   2.922 -0.5357  0.5120  0.6725
 4744SOL    HW224547  12.885   4.962   2.791  1.7492  1.1147  0.6234
 4745SOL     OW24548   2.503   1.841  12.176 -0.0518 -0.5197  0.5987
 4745SOL    HW124549   2.474   1.932  12.185 -0.9706 -0.8612  1.2693
 4745SOL    HW224550   2.595   1.847  12.151 -0.3422  0.5969 -0.2495
 4746SOL     OW24551  12.634   8.278  12.518 -0.1499 -0.0378 -0.1016
 4746SOL    HW124552  12.671   8.311  12.600 -1.7249  0.9219  0.2696
 4746SOL    HW224553  12.606   8.189  12.537 -0.1993  0.0656  0.3068
 4747SOL     OW24554  12.950   8.813   4.569  0.1366 -0.1856  0.1703
 4747SOL    HW124555  12.986   8.724   4.562  0.0824 -0.4268  2.2034
 4747SOL    HW224556  12.920   8.834   4.481  0.0486 -2.2342 -0.3449
 4748SOL     OW24557   3.897   4.157   8.597  0.5636  0.2074 -0.3166
 4748SOL    HW124558   3.966   4.215   8.628 -0.2443  1.0989 -0.1740
 4748SOL    HW224559   3.890   4.175   8.504  1.1725 -0.5876 -0.5358
 4749SOL     OW24560   2.715   8.739   1.498 -0.2940  0.1067 -0.3649
 4749SOL    HW124561   2.719   8.655   1.453 -0.9737 -0.6883  0.9763
 4749SOL    HW224562   2.651   8.726   1.568  0.2101  1.4807  0.4016
 4750SOL     OW24563   6.462  10.685   0.413  0.7646 -0.0096 -0.3270
 4750SOL    HW124564   6.432  10.705   0.325  1.1614 -0.6425 -0.6169
 4750SOL    HW224565   6.543  10.636   0.400  1.5258  0.9952  0.4146
 4751SOL     OW24566   5.972   1.318   0.425 -0.1185  0.1722 -0.3099
 4751SOL    HW124567   5.886   1.296   0.387 -1.5310  2.3210  1.4040
 4751SOL    HW224568   5.970   1.413   0.435  1.8778  0.1117  1.1581
 4752SOL     OW24569   8.866   1.256   4.508 -0.5499  0.8231 -0.1599
 4752SOL    HW124570   8.816   1.243   4.589 -1.0923 -0.2493 -0.6353
 4752SOL    HW224571   8.957   1.241   4.533 -0.8256 -0.7488  0.0470
 4753SOL     OW24572   0.705   7.061   2.058 -0.7420  0.0845  0.2627
 4753SOL    HW124573   0.742   7.149   2.048 -0.0048 -0.2740 -0.2658
 4753SOL    HW224574   0.631   7.060   1.998 -0.1830  0.0484 -0.4428
 4754SOL     OW24575  10.067   1.323  10.789 -0.1238  0.3938 -0.1132
 4754SOL    HW124576  10.067   1.321  10.885  1.4965 -0.7943 -0.1019
 4754SOL    HW224577  10.092   1.235  10.763 -0.0670  0.8279 -1.6410
 4755SOL     OW24578   2.245   4.171  12.771 -0.6758  0.1286 -0.4845
 4755SOL    HW124579   2.208   4.130  12.693 -0.5823  1.3158 -1.1785
 4755SOL    HW224580   2.202   4.127  12.844 -1.3300 -0.4832 -1.2170
 4756SOL     OW24581   3.018  11.917  10.609 -0.5829 -0.6566  0.0042
 4756SOL    HW124582   3.113  11.908  10.595 -0.5739 -1.6930  0.5733
 4756SOL    HW224583   2.979  11.879  10.531 -0.5235 -0.9029  0.0923
 4757SOL     OW24584   4.218  12.500   4.323  0.0146  0.3152  0.0199
 4757SOL    HW124585   4.312  12.502   4.304 -0.1868  1.3394 -0.9900
 4757SOL    HW224586   4.198  12.407   4.338  1.1868  0.0934  0.2684
 4758SOL     OW24587  10.062   0.576   6.437  0.0617  0.5048 -0.5652
 4758SOL    HW124588  10.154   0.574   6.410 -0.4024  0.5560 -2.2226
 4758SOL    HW224589  10.045   0.667   6.462  0.4031  0.5277 -0.4106
 4759SOL     OW24590   6.000   2.887   8.962 -0.4501 -0.1472 -0.0626
 4759SOL    HW124591   6.017   2.918   8.873 -0.9706  0.5397  0.0729
 4759SOL    HW224592   6.029   2.958   9.018 -1.6760  0.1433  0.2477
 4760SOL     OW24593   7.644   8.636   3.669  0.0116  0.1735 -0.6500
 4760SOL    HW124594   7.668   8.568   3.606 -3.0375 -1.6775  0.0200
 4760SOL    HW224595   7.670   8.600   3.754  0.8422  1.0985 -0.4899
 4761SOL     OW24596  11.772   0.296   4.140 -0.1451 -0.6642  0.4817
 4761SOL    HW124597  11.770   0.386   4.108 -0.2283 -0.5814  0.7124
 4761SOL    HW224598  11.709   0.295   4.213 -0.5693 -1.0507  0.1169
 4762SOL     OW24599   2.698   4.265   1.792  0.0629 -0.2952  0.1215
 4762SOL    HW124600   2.645   4.324   1.739  1.6774 -0.6405 -1.9836
 4762SOL    HW224601   2.777   4.250   1.741  2.1091 -0.0646  2.9737
 4763SOL     OW24602   5.922   9.705   7.725  0.3547 -0.2004 -0.5268
 4763SOL    HW124603   5.872   9.674   7.649 -0.8709  0.6400 -0.0963
 4763SOL    HW224604   5.856   9.741   7.784  1.5280  1.8778 -0.3681
 4764SOL     OW24605   1.512   8.472  11.001 -0.3115 -0.4074  0.3477
 4764SOL    HW124606   1.519   8.378  10.986 -1.2257 -0.6919  1.4986
 4764SOL    HW224607   1.588   8.509  10.957 -1.3671 -1.3658 -2.5430
 4765SOL     OW24608   6.924  12.473   5.649  0.0408  0.2687  0.3131
 4765SOL    HW124609   6.954  12.430   5.729 -0.8554  1.6474  1.4161
 4765SOL    HW224610   6.863  12.410   5.610 -0.6425  0.1703  1.4865
 4766SOL     OW24611  12.357   2.556   8.375 -0.6627 -0.5652 -0.0945
 4766SOL    HW124612  12.425   2.535   8.439  0.3126  0.9896 -0.5473
 4766SOL    HW224613  12.339   2.649   8.390 -1.1694 -0.4377 -1.3805
 4767SOL     OW24614   7.674  11.188   3.206 -0.0610 -0.1117 -0.2945
 4767SOL    HW124615   7.739  11.159   3.271  1.5831 -0.0088 -1.8261
 4767SOL    HW224616   7.685  11.128   3.132 -2.4723 -0.7530 -0.2380
 4768SOL     OW24617   2.186  10.729   6.030 -0.4114  0.2839  0.0643
 4768SOL    HW124618   2.252  10.671   6.069 -1.1191  0.0481  0.9324
 4768SOL    HW224619   2.106  10.676   6.027 -0.9647  1.0872  0.5085
 4769SOL     OW24620   0.902   4.238  11.477  0.2233  0.1840  0.0445
 4769SOL    HW124621   0.893   4.264  11.385  1.8172  1.0547  0.0956
 4769SOL    HW224622   0.990   4.266  11.501 -0.0989 -0.1972  1.8021
 4770SOL     OW24623   4.471  10.658   2.828  0.3567  0.0846 -0.0309
 4770SOL    HW124624   4.445  10.734   2.880  0.3215 -1.2255  1.9756
 4770SOL    HW224625   4.400  10.595   2.838  0.3194 -0.2231 -1.7675
 4771SOL     OW24626   5.943  10.154   6.052  0.0867 -0.2668  0.1981
 4771SOL    HW124627   5.936  10.117   5.964 -2.2205 -1.3420  0.7561
 4771SOL    HW224628   5.871  10.114   6.100  1.7452 -0.3057  2.8205
 4772SOL     OW24629   4.478   1.537   1.539 -0.2302  0.4029  0.0838
 4772SOL    HW124630   4.522   1.456   1.565  0.8273  0.7770 -0.4899
 4772SOL    HW224631   4.385   1.514   1.537  0.1486 -1.2774 -1.6438
 4773SOL     OW24632   3.507   7.267   8.674  0.0222 -0.6366 -0.1560
 4773SOL    HW124633   3.496   7.179   8.711 -0.6109 -0.7906 -0.6902
 4773SOL    HW224634   3.504   7.325   8.750 -1.7174 -0.9082  0.0134
 4774SOL     OW24635   8.695   2.269   4.186  0.4287 -0.1112 -0.4946
 4774SOL    HW124636   8.699   2.231   4.098 -1.5835  0.2199 -0.7859
 4774SOL    HW224637   8.784   2.301   4.202  1.0633 -0.9635 -2.0373
 4775SOL     OW24638  12.796   4.363   3.630  0.4149  0.0111 -0.0599
 4775SOL    HW124639  12.878   4.344   3.675  0.2287  0.3378  0.4313
 4775SOL    HW224640  12.792   4.459   3.628  0.2255 -0.0031 -0.4190
 4776SOL     OW24641   8.926  11.647  12.064  0.3597 -0.6794 -0.4280
 4776SOL    HW124642   8.933  11.741  12.080  1.2349 -0.8981  0.5729
 4776SOL    HW224643   9.005  11.609  12.103  1.2739 -1.5900 -2.9276
 4777SOL     OW24644   4.388   8.908  12.665  0.0580  0.0684  0.3151
 4777SOL    HW124645   4.324   8.934  12.730 -0.3112  2.5095 -0.9088
 4777SOL    HW224646   4.394   8.983  12.605  4.0999  0.0330  0.4055
 4778SOL     OW24647  11.524   4.476  10.118 -0.2824  0.0974  0.1311
 4778SOL    HW124648  11.585   4.438  10.055 -1.4602  0.3646 -1.2336
 4778SOL    HW224649  11.551   4.440  10.203  1.3168 -0.3134 -0.5193
 4779SOL     OW24650   0.053   0.258   9.872  0.2565  0.5901  0.5852
 4779SOL    HW124651   0.149   0.253   9.863  0.4265 -1.1163  2.6962
 4779SOL    HW224652   0.022   0.264   9.782  2.3669  2.5702 -0.1271
 4780SOL     OW24653   1.701  11.012   0.975  0.4183 -0.7085  0.2581
 4780SOL    HW124654   1.681  11.105   0.979 -0.6132 -0.9423  1.6741
 4780SOL    HW224655   1.631  10.971   1.026  1.5403 -2.1438  0.7097
 4781SOL     OW24656   9.670   0.822  12.033  0.3943  0.6822  0.1845
 4781SOL    HW124657   9.718   0.766  12.094  0.5607  0.1235 -0.4429
 4781SOL    HW224658   9.693   0.788  11.947 -3.3850 -1.6151 -0.1692
 4782SOL     OW24659   9.738  12.604   6.718 -0.3767  0.1808 -0.1604
 4782SOL    HW124660   9.691  12.597   6.635  0.4830  1.2959 -0.7666
 4782SOL    HW224661   9.824  12.639   6.694 -1.4941  4.7997  1.5393
 4783SOL     OW24662  12.279   1.094   6.593  0.1014 -0.5257  0.1918
 4783SOL    HW124663  12.353   1.147   6.562 -0.7732 -0.7232 -2.4409
 4783SOL    HW224664  12.209   1.157   6.610  0.3043 -0.5074  1.0399
 4784SOL     OW24665   0.630   0.228  11.608  0.0540  0.5065 -0.4869
 4784SOL    HW124666   0.571   0.162  11.644 -2.2418  2.5014 -0.3610
 4784SOL    HW224667   0.666   0.272  11.685 -0.9692  1.5070 -0.5660
 4785SOL     OW24668  11.503   8.205   9.805  0.5349  0.7827  0.1968
 4785SOL    HW124669  11.511   8.207   9.900  1.8509 -0.5337  0.1649
 4785SOL    HW224670  11.411   8.225   9.788  0.0134 -0.0499  1.8068
 4786SOL     OW24671   1.563   7.083   5.072  0.2905  0.1551  0.3734
 4786SOL    HW124672   1.504   7.067   4.998  1.9832  1.6603 -1.4280
 4786SOL    HW224673   1.615   7.159   5.045 -0.1240  1.8343  3.8616
 4787SOL     OW24674   7.704   0.471   1.119  0.2912  0.0433 -0.2104
 4787SOL    HW124675   7.756   0.487   1.041 -0.3336 -0.8199 -0.8195
 4787SOL    HW224676   7.736   0.388   1.154  1.0538  0.7585  0.8812
 4788SOL     OW24677   5.679   5.797   6.212 -0.2759 -0.2740  0.3620
 4788SOL    HW124678   5.745   5.790   6.143 -0.3918  0.4263  0.1721
 4788SOL    HW224679   5.681   5.889   6.238  0.5693 -0.7435  2.0911
 4789SOL     OW24680   5.778  12.713   0.420  0.0757  0.2170  0.3160
 4789SOL    HW124681   5.740  12.640   0.469  0.6718 -1.0384 -0.9807
 4789SOL    HW224682   5.718  12.727   0.347  0.8864 -0.2638 -0.4767
 4790SOL     OW24683   8.007   2.849   2.853 -0.1643  0.5437 -0.0764
 4790SOL    HW124684   7.930   2.800   2.881  0.2716  0.0296  0.2398
 4790SOL    HW224685   7.990   2.939   2.880  1.3064 -0.2640  4.2818
 4791SOL     OW24686   7.699  12.216   0.570  0.1693  0.1644 -0.8876
 4791SOL    HW124687   7.792  12.197   0.582  0.1848  0.3966 -0.6235
 4791SOL    HW224688   7.666  12.143   0.518  0.5001  0.0818 -0.9825
 4792SOL     OW24689  11.723   2.528   5.851 -0.0424  0.2960  0.1738
 4792SOL    HW124690  11.800   2.487   5.889  0.1439  1.0308  0.5974
 4792SOL    HW224691  11.756   2.584   5.782 -0.2022  0.5265  0.2808
 4793SOL     OW24692   4.134   7.433   4.544 -0.3211 -0.2316 -0.2763
 4793SOL    HW124693   4.170   7.434   4.455  0.9777  1.3608  0.2055
 4793SOL    HW224694   4.198   7.482   4.596 -1.6067 -0.1517  1.3178
 4794SOL     OW24695   7.045   9.565  11.792  0.0396  0.3723  0.7453
 4794SOL    HW124696   7.016   9.639  11.845 -0.3768  1.1063 -0.4651
 4794SOL    HW224697   6.976   9.553  11.727 -1.0736 -2.5928  2.2879
 4795SOL     OW24698  12.692   2.907   3.828 -0.7042 -0.1928  0.7107
 4795SOL    HW124699  12.747   2.966   3.879 -0.7463  0.0938  0.4262
 4795SOL    HW224700  12.712   2.820   3.863  2.5127 -0.5662 -1.5679
 4796SOL     OW24701   2.337   0.645  10.970 -0.0736 -0.1412 -0.1538
 4796SOL    HW124702   2.344   0.712  11.039  0.9186 -1.7167  1.3499
 4796SOL    HW224703   2.243   0.632  10.958 -0.3303 -1.6658  2.8156
 4797SOL     OW24704  12.960   9.708   5.029 -0.7917  0.2340 -0.6287
 4797SOL    HW124705  12.931   9.798   5.016 -0.1261  0.7340  1.0389
 4797SOL    HW224706  12.965   9.698   5.124 -0.0410 -1.3003 -0.7962
 4798SOL     OW24707   2.663  12.773   9.842  0.3141  0.3966  0.1980
 4798SOL    HW124708   2.742  12.821   9.816 -0.5463  0.3490 -2.9116
 4798SOL    HW224709   2.695  12.688   9.872  1.4753  0.0684 -1.8026
 4799SOL     OW24710   5.637   7.799   4.901  0.0033 -0.0502 -0.0490
 4799SOL    HW124711   5.726   7.773   4.879  0.4507  0.7000  0.8155
 4799SOL    HW224712   5.636   7.804   4.996 -1.1007 -0.5154 -0.0253
 4800SOL     OW24713   3.926   4.070   3.977  0.6782  0.0315 -0.3999
 4800SOL    HW124714   3.881   4.088   3.895 -1.4351 -0.8635  0.4818
 4800SOL    HW224715   3.932   4.155   4.021  3.4662  0.8727 -2.1401
 4801SOL     OW24716   6.512   6.277   2.418  0.4086  0.3978 -0.2116
 4801SOL    HW124717   6.474   6.296   2.505  2.6218  1.2761  0.6215
 4801SOL    HW224718   6.452   6.212   2.380 -1.9091  1.7067  0.9864
 4802SOL     OW24719  12.721  10.345   1.086  0.4675 -0.2536 -0.2853
 4802SOL    HW124720  12.696  10.270   1.141 -0.2334  1.6093  2.1022
 4802SOL    HW224721  12.659  10.341   1.013 -1.8786 -0.1347  1.5648
 4803SOL     OW24722  11.024   9.475   7.869  0.2908 -0.0757  0.6964
 4803SOL    HW124723  11.113   9.508   7.862  0.1021  0.5873  1.2684
 4803SOL    HW224724  10.992   9.472   7.779  1.3237 -1.5867  0.3561
 4804SOL     OW24725   3.579   4.081   4.641  0.1875  0.1711 -0.0376
 4804SOL    HW124726   3.661   4.041   4.611  0.9204  1.5353  0.0673
 4804SOL    HW224727   3.543   4.018   4.703  1.1685 -0.4550 -0.0833
 4805SOL     OW24728   3.280   5.005  12.942  0.1786 -0.0706  0.2253
 4805SOL    HW124729   3.264   5.084  12.995 -0.4376  0.1869 -0.3234
 4805SOL    HW224730   3.210   5.006  12.876  2.3624  1.0092 -2.2484
 4806SOL     OW24731  10.252   5.062  12.505 -0.1901 -0.2270  0.2046
 4806SOL    HW124732  10.260   5.104  12.591  0.7996  2.3405 -1.0470
 4806SOL    HW224733  10.312   4.987  12.509 -1.9896 -1.6965  2.5028
 4807SOL     OW24734  12.311   9.238   4.052 -0.1201 -0.5529  0.2273
 4807SOL    HW124735  12.231   9.202   4.092  0.2062 -1.2112  0.2945
 4807SOL    HW224736  12.303   9.217   3.959 -0.3455 -0.0137  0.1217
 4808SOL     OW24737  11.978  11.323   0.055  0.9338  0.5880 -0.5224
 4808SOL    HW124738  11.892  11.295   0.025  0.5651  0.6695  0.4121
 4808SOL    HW224739  12.035  11.249   0.035  0.4311  0.1035 -0.2029
 4809SOL     OW24740   0.437  10.597  10.168  0.1188 -0.0635 -0.0781
 4809SOL    HW124741   0.425  10.615  10.075  0.3262  0.8601  0.0607
 4809SOL    HW224742   0.438  10.502  10.174  0.8462 -0.1412 -1.1237
 4810SOL     OW24743   3.627   6.836   5.793 -0.2477  0.5374  0.2030
 4810SOL    HW124744   3.534   6.815   5.793 -0.0680 -0.5597 -2.3528
 4810SOL    HW224745   3.670   6.757   5.826 -0.2034  1.2421  1.9288
 4811SOL     OW24746   4.769  10.977  11.473  0.7460 -0.3517 -0.2313
 4811SOL    HW124747   4.795  11.064  11.505 -0.2831 -0.1866  0.2070
 4811SOL    HW224748   4.752  10.989  11.380 -1.7025  0.5214  0.2517
 4812SOL     OW24749   8.275   2.568   8.511 -0.1804 -0.0532 -0.1664
 4812SOL    HW124750   8.335   2.577   8.585 -1.0494  1.7416  0.3828
 4812SOL    HW224751   8.303   2.488   8.467  1.1752 -0.4695  1.3520
 4813SOL     OW24752   0.297   5.162  12.292 -0.5211 -0.1262  0.3040
 4813SOL    HW124753   0.272   5.171  12.200 -1.0310  1.3687  0.5507
 4813SOL    HW224754   0.341   5.244  12.312 -0.2899 -0.4984  1.3565
 4814SOL     OW24755   7.593   1.075  10.647  0.6483  0.3331 -0.3334
 4814SOL    HW124756   7.503   1.048  10.629  0.9003 -0.5733 -0.2858
 4814SOL    HW224757   7.608   1.051  10.738  1.3326 -0.6816 -0.6975
 4815SOL     OW24758   6.158   1.595  12.491  0.2770  0.2619 -0.5871
 4815SOL    HW124759   6.199   1.636  12.567  0.4489  1.2445 -1.1943
 4815SOL    HW224760   6.127   1.668  12.438 -0.8732 -0.4348 -0.9109
 4816SOL     OW24761  10.895   8.442   2.397 -0.4023 -0.2315 -0.5035
 4816SOL    HW124762  10.947   8.386   2.455  1.9422  1.7054 -0.5670
 4816SOL    HW224763  10.948   8.522   2.387 -2.8833  1.4071 -1.5891
 4817SOL     OW24764   8.773   9.721   4.101 -0.1189  0.5957  0.6974
 4817SOL    HW124765   8.791   9.815   4.094 -2.5709  1.1193  0.4295
 4817SOL    HW224766   8.833   9.680   4.040  0.7738  2.0296  0.5825
 4818SOL     OW24767   6.981   1.947   1.783 -0.5043  0.2721  0.0469
 4818SOL    HW124768   6.955   1.880   1.720  0.4013  0.3267 -0.4028
 4818SOL    HW224769   7.019   2.016   1.730 -1.6526  1.2639  0.4897
 4819SOL     OW24770   0.280   0.004   9.686  0.6760 -0.3957 -0.1151
 4819SOL    HW124771   0.360  -0.045   9.706  0.4964 -0.6486 -0.0187
 4819SOL    HW224772   0.260  -0.020   9.595  0.9403 -0.0106 -0.2778
 4820SOL     OW24773   8.813   3.835   4.865  0.0761 -0.1431 -0.1545
 4820SOL    HW124774   8.785   3.834   4.957  1.7048  0.0930  0.3912
 4820SOL    HW224775   8.741   3.875   4.818 -0.7984 -0.2675  1.0318
 4821SOL     OW24776  10.890   8.540   4.874 -0.0739 -0.0978  0.3727
 4821SOL    HW124777  10.842   8.621   4.893 -0.9479 -0.8379  1.4459
 4821SOL    HW224778  10.968   8.545   4.929 -0.0572  0.0736  0.3346
 4822SOL     OW24779   2.291  10.091  12.488 -0.1558 -0.4692  0.1041
 4822SOL    HW124780   2.238  10.091  12.408  0.0277 -1.4964 -0.0299
 4822SOL    HW224781   2.306  10.184  12.506  0.3170 -0.2217 -1.4047
 4823SOL     OW24782  12.118   3.551  10.531  0.1113 -0.8548  0.1774
 4823SOL    HW124783  12.173   3.613  10.483 -0.7864 -1.2627 -1.4505
 4823SOL    HW224784  12.064   3.606  10.588  0.3788 -0.2553 -0.1423
 4824SOL     OW24785  12.004   7.275  12.381 -0.1582  0.0498  0.5018
 4824SOL    HW124786  12.044   7.188  12.372  2.0817  1.0774 -0.1857
 4824SOL    HW224787  12.065   7.323  12.438 -1.6501  1.0344  1.3265
 4825SOL     OW24788   0.182   7.563  12.482  0.1786  0.9389  0.0249
 4825SOL    HW124789   0.159   7.526  12.567  1.0299 -0.1960 -0.2158
 4825SOL    HW224790   0.102   7.555  12.429  0.0285  0.4674  0.3246
 4826SOL     OW24791   6.526   1.005   8.418 -0.0388 -0.2149 -0.0780
 4826SOL    HW124792   6.533   0.915   8.384  0.1596 -0.1817 -0.1263
 4826SOL    HW224793   6.474   0.996   8.497 -1.1476 -0.1950 -0.7823
 4827SOL     OW24794   3.680   0.026   0.001 -0.0452  0.3442 -0.1604
 4827SOL    HW124795   3.757  -0.007   0.047 -0.0343 -1.0171 -1.0846
 4827SOL    HW224796   3.616   0.043   0.069  0.8526  0.9032  0.5688
 4828SOL     OW24797   5.847   6.532   8.571  0.4052  0.0021 -0.4723
 4828SOL    HW124798   5.918   6.519   8.508  0.3129 -0.0042 -0.5740
 4828SOL    HW224799   5.802   6.448   8.574 -1.2353  0.7352 -2.3967
 4829SOL     OW24800   3.512   4.217   1.011  0.0934 -0.2693 -0.0347
 4829SOL    HW124801   3.459   4.254   1.081 -0.8098 -2.6511  0.6441
 4829SOL    HW224802   3.463   4.140   0.982  1.0954 -0.1072 -2.4150
 4830SOL     OW24803   1.791   4.807   2.762 -0.1513 -0.3035 -0.1577
 4830SOL    HW124804   1.813   4.883   2.708 -1.6656 -0.4238 -1.0104
 4830SOL    HW224805   1.699   4.821   2.786  0.3438 -0.5261  1.9759
 4831SOL     OW24806  11.205   4.678   3.264  0.4418 -0.0675  0.7688
 4831SOL    HW124807  11.194   4.753   3.322 -0.9127 -0.1957  0.7028
 4831SOL    HW224808  11.119   4.637   3.260  0.2772  0.3450 -1.8838
 4832SOL     OW24809   6.963   0.441   2.790  0.3001  0.9914 -0.1261
 4832SOL    HW124810   7.036   0.494   2.822  1.5983 -0.8914  0.2576
 4832SOL    HW224811   7.004   0.377   2.732 -1.1702  0.3812 -0.5424
 4833SOL     OW24812  10.784   6.264   3.878  0.2184 -0.0635  0.1328
 4833SOL    HW124813  10.846   6.247   3.807  1.1249 -0.9044  1.1156
 4833SOL    HW224814  10.719   6.322   3.838  0.8257 -0.3390 -1.3266
 4834SOL     OW24815  11.059   1.233   6.406  0.4085 -0.3237 -0.1204
 4834SOL    HW124816  11.145   1.274   6.396  1.8980 -2.6182  1.9043
 4834SOL    HW224817  11.012   1.289   6.468  1.2755 -0.1181  0.3643
 4835SOL     OW24818   5.152   3.682   7.849 -0.4309 -0.4447 -0.5291
 4835SOL    HW124819   5.125   3.624   7.920  1.6058  0.1248  0.8128
 4835SOL    HW224820   5.215   3.630   7.798 -0.1774 -0.0998 -0.5708
 4836SOL     OW24821   8.808   5.058   4.378 -0.1927  0.1943  0.0409
 4836SOL    HW124822   8.803   5.010   4.296  0.3822  0.3408 -0.0860
 4836SOL    HW224823   8.718   5.057   4.413 -0.2102 -0.8346 -0.0258
 4837SOL     OW24824   0.919   1.947  12.448 -0.2732  0.1215 -0.4807
 4837SOL    HW124825   0.978   2.020  12.466 -0.0119 -0.1816 -0.0766
 4837SOL    HW224826   0.841   1.987  12.411 -0.3403  0.6561  0.2269
 4838SOL     OW24827   5.845   4.540   4.767 -0.7386 -0.0778 -0.0703
 4838SOL    HW124828   5.898   4.507   4.695  1.2309 -1.2709  1.7803
 4838SOL    HW224829   5.897   4.612   4.804  0.5415 -2.1813  2.6699
 4839SOL     OW24830   9.796  10.727   9.666 -0.4610  0.3762  0.3829
 4839SOL    HW124831   9.775  10.701   9.577  0.8267  2.3892 -0.5748
 4839SOL    HW224832   9.763  10.655   9.720 -1.5249 -0.7671 -1.6603
 4840SOL     OW24833   4.563   2.212  10.517 -0.2266 -0.6524 -0.0363
 4840SOL    HW124834   4.562   2.303  10.545  0.6579 -0.1564 -1.4751
 4840SOL    HW224835   4.473   2.194  10.489 -0.6983 -0.6275  1.3873
 4841SOL     OW24836   4.543   5.171   8.638 -0.1448  0.3398 -0.3067
 4841SOL    HW124837   4.569   5.147   8.549  0.3019 -0.1231 -0.0567
 4841SOL    HW224838   4.616   5.222   8.673  0.0581 -0.2028  0.0839
 4842SOL     OW24839   9.957  11.652   8.317 -0.0428 -0.0946  0.4822
 4842SOL    HW124840  10.003  11.584   8.367 -0.3513 -0.6094  0.0729
 4842SOL    HW224841   9.938  11.720   8.382 -1.6719 -1.3581  1.4174
 4843SOL     OW24842  10.447   1.863   5.584 -0.2046  0.9663 -0.1411
 4843SOL    HW124843  10.409   1.922   5.520 -1.5531 -0.3631 -0.6194
 4843SOL    HW224844  10.484   1.921   5.651 -1.1612  2.3452 -0.7608
 4844SOL     OW24845   5.496   2.079   6.347  0.0813 -0.3290  0.1045
 4844SOL    HW124846   5.487   2.118   6.260  0.3836  0.7853  0.5577
 4844SOL    HW224847   5.577   2.117   6.382  0.9363 -2.1395  0.1842
 4845SOL     OW24848  11.086   8.356  11.032  0.1846  0.2174 -0.5287
 4845SOL    HW124849  11.051   8.359  11.121 -0.6553 -2.0261 -0.7210
 4845SOL    HW224850  11.158   8.418  11.033 -0.1856  0.7044  1.5425
 4846SOL     OW24851   2.072   9.298   9.997 -0.1641  0.1288  0.2581
 4846SOL    HW124852   2.064   9.207  10.026 -1.3042  0.0845 -0.1583
 4846SOL    HW224853   2.162   9.322  10.020  0.1955 -1.1354  0.2774
 4847SOL     OW24854   5.061   1.347  12.254 -0.3452  0.2585  0.1915
 4847SOL    HW124855   5.056   1.442  12.269  0.6183  0.3658 -0.0538
 4847SOL    HW224856   4.973   1.321  12.230 -1.7188  0.3617  4.3425
 4848SOL     OW24857   4.389  10.741  11.230 -0.0781 -0.9916  0.2340
 4848SOL    HW124858   4.478  10.724  11.200 -0.3548 -0.0479 -1.2576
 4848SOL    HW224859   4.399  10.797  11.306  0.5990 -0.7802 -0.0080
 4849SOL     OW24860   0.052   7.939   9.330  0.2756 -0.3984 -0.0921
 4849SOL    HW124861   0.023   8.020   9.288 -1.4103  0.6757  2.8613
 4849SOL    HW224862   0.024   7.870   9.270  1.8349  1.1065 -2.7418
 4850SOL     OW24863   6.724   3.833   8.023  0.2372  0.5892  0.1619
 4850SOL    HW124864   6.695   3.754   7.978  2.6280 -0.4572  0.2927
 4850SOL    HW224865   6.691   3.823   8.112 -2.2156  1.3624 -0.6023
 4851SOL     OW24866   7.057   1.133  12.614 -0.1031  0.2019 -0.1067
 4851SOL    HW124867   6.977   1.158  12.567 -0.6030 -0.9764  0.0824
 4851SOL    HW224868   7.120   1.202  12.593 -0.9391  0.7562 -0.8605
 4852SOL     OW24869  11.757   6.124   0.056 -0.4069  0.2040  0.4201
 4852SOL    HW124870  11.780   6.188  -0.011 -3.0861  1.1753  0.2973
 4852SOL    HW224871  11.751   6.041   0.010 -2.0394  0.8297 -0.5964
 4853SOL     OW24872  11.497   0.711  10.457  0.5408  0.2792  0.7717
 4853SOL    HW124873  11.532   0.735  10.543  0.6247 -0.2421  0.8899
 4853SOL    HW224874  11.488   0.794  10.410  1.8384  0.4360  0.7672
 4854SOL     OW24875   7.691   1.181  11.274  0.4307 -0.2311 -0.6071
 4854SOL    HW124876   7.700   1.261  11.326  2.1653 -1.1090  0.5635
 4854SOL    HW224877   7.701   1.209  11.184 -1.9024  1.2446 -0.4825
 4855SOL     OW24878   7.447   0.962   9.465  0.3020  0.4361  0.4761
 4855SOL    HW124879   7.452   1.003   9.551  0.0333  0.4632  0.4816
 4855SOL    HW224880   7.509   1.010   9.411  1.5596 -0.5116  1.0218
 4856SOL     OW24881   7.914   2.927   1.365 -0.3641 -0.0295  0.3933
 4856SOL    HW124882   7.832   2.889   1.398 -0.5909 -1.5968 -1.7976
 4856SOL    HW224883   7.895   2.950   1.274  0.9706  1.8079  0.5285
 4857SOL     OW24884   0.520  10.967  10.449  0.6857 -0.3313 -0.5094
 4857SOL    HW124885   0.530  10.913  10.370 -0.4791 -1.6307  0.1955
 4857SOL    HW224886   0.584  10.930  10.510 -0.2814 -1.1194  0.0577
 4858SOL     OW24887  11.164   2.358  10.058 -0.0201 -0.2102 -0.0013
 4858SOL    HW124888  11.169   2.348   9.963 -2.0296 -1.5743 -0.0273
 4858SOL    HW224889  11.155   2.453  10.071  2.0459  0.1890 -0.9986
 4859SOL     OW24890  12.965   1.950  10.952 -0.5687 -0.0880 -0.2145
 4859SOL    HW124891  12.919   1.939  10.869  0.0624 -0.9536 -0.4610
 4859SOL    HW224892  12.989   2.043  10.953 -2.0298  0.3210 -0.2092
 4860SOL     OW24893   1.717  11.869   3.676  0.4635  0.0871  0.3633
 4860SOL    HW124894   1.701  11.878   3.582  0.0390  0.3822  0.4634
 4860SOL    HW224895   1.719  11.958   3.709 -0.9403 -0.0515  0.8861
 4861SOL     OW24896   6.761  10.213   9.771  0.5350  0.6693 -0.0657
 4861SOL    HW124897   6.784  10.167   9.690  1.0030  1.7622 -0.5715
 4861SOL    HW224898   6.812  10.294   9.769  0.9709  0.4858  1.5901
 4862SOL     OW24899   2.039   7.810   3.368  0.0093  0.2651 -0.2842
 4862SOL    HW124900   2.087   7.764   3.299  0.0278 -0.4118  0.1713
 4862SOL    HW224901   1.948   7.810   3.339  0.0013 -0.1116 -0.2618
 4863SOL     OW24902   7.548   0.180   1.785  0.4503 -0.4954 -0.7148
 4863SOL    HW124903   7.549   0.089   1.756 -0.8336 -0.1636 -1.9316
 4863SOL    HW224904   7.510   0.176   1.873  0.6020 -1.1562 -0.6719
 4864SOL     OW24905   7.702  11.416  12.131 -0.4169  0.1801  0.6846
 4864SOL    HW124906   7.646  11.485  12.096 -0.4048  0.3026  0.9079
 4864SOL    HW224907   7.651  11.336  12.122 -0.2964  0.1614  0.0947
 4865SOL     OW24908  12.204   9.301   1.176  0.3546 -0.5747 -0.1641
 4865SOL    HW124909  12.162   9.273   1.257  1.1722  1.2764  0.9713
 4865SOL    HW224910  12.154   9.257   1.106 -3.0704  0.9676  1.0829
 4866SOL     OW24911   4.080  12.156   6.763  0.2982 -0.0356 -0.4735
 4866SOL    HW124912   4.150  12.218   6.741 -0.4027  1.1176  0.3867
 4866SOL    HW224913   4.125  12.077   6.791  1.4130  1.4645  2.4195
 4867SOL     OW24914   1.898   5.082   7.449  0.1798 -0.0106 -0.3406
 4867SOL    HW124915   1.962   5.017   7.420 -0.4476  0.0505 -1.9972
 4867SOL    HW224916   1.899   5.076   7.544  1.7088 -0.9064 -0.3749
 4868SOL     OW24917   2.241  12.331  11.947  0.5572 -0.1927  0.4682
 4868SOL    HW124918   2.266  12.246  11.910  1.9627  0.1645  0.5603
 4868SOL    HW224919   2.316  12.388  11.930 -0.0005  0.7921  1.2189
 4869SOL     OW24920  12.747   2.956   2.613  0.1185  0.0176 -0.2553
 4869SOL    HW124921  12.734   3.007   2.533 -1.3257 -0.1291 -0.1332
 4869SOL    HW224922  12.815   3.004   2.660  2.4751 -0.9601 -2.4138
 4870SOL     OW24923   8.367   9.307   7.024  0.1583 -0.5717 -0.5052
 4870SOL    HW124924   8.372   9.396   6.987  0.5586 -0.4440 -0.1459
 4870SOL    HW224925   8.402   9.316   7.112 -0.9196 -0.8541 -0.0334
 4871SOL     OW24926   3.159  12.084   7.983  0.9180 -0.2494 -0.0369
 4871SOL    HW124927   3.146  12.032   7.903 -1.8872 -1.9632  1.4033
 4871SOL    HW224928   3.160  12.019   8.054 -1.6111  1.4795  1.7341
 4872SOL     OW24929   4.548   5.113   2.199  0.0673 -0.4636  0.0631
 4872SOL    HW124930   4.553   5.206   2.176  0.1399 -0.3783  0.4043
 4872SOL    HW224931   4.454   5.094   2.199  0.0524 -0.3906 -0.0196
 4873SOL     OW24932  11.344   9.756   6.162 -0.1987  0.2991  0.3471
 4873SOL    HW124933  11.369   9.807   6.238 -0.2436  1.3890 -0.3406
 4873SOL    HW224934  11.289   9.816   6.111 -2.2561 -1.2201  0.6641
 4874SOL     OW24935  12.752   8.312   8.420  0.1737 -0.1045 -0.0208
 4874SOL    HW124936  12.712   8.399   8.422  0.5312  0.0575  0.7931
 4874SOL    HW224937  12.790   8.302   8.508 -0.6062 -1.4417  0.1806
 4875SOL     OW24938   9.231  12.849  11.526  0.0457 -0.1879  0.5368
 4875SOL    HW124939   9.144  12.864  11.490 -0.2158 -0.8795  0.8684
 4875SOL    HW224940   9.220  12.856  11.621  0.2185 -0.8888  0.6153
 4876SOL     OW24941   6.188   5.117   4.109  0.2102  0.2455  0.3384
 4876SOL    HW124942   6.161   5.129   4.018  3.0366 -0.8188 -0.7370
 4876SOL    HW224943   6.266   5.062   4.104  0.0894 -0.3967  3.4820
 4877SOL     OW24944   4.058   9.282   9.285  0.0065  0.1368 -0.9309
 4877SOL    HW124945   4.064   9.298   9.379  1.6390  0.1239 -1.0053
 4877SOL    HW224946   3.997   9.349   9.253  0.2716  0.8260 -0.0302
 4878SOL     OW24947   3.439   5.378   5.719 -0.6094 -0.0298 -0.0362
 4878SOL    HW124948   3.513   5.355   5.663  0.7095  2.4251  0.5688
 4878SOL    HW224949   3.470   5.357   5.808 -2.0636 -2.3559 -0.0030
 4879SOL     OW24950  10.732   2.354   1.119  0.0742 -0.2818 -0.7031
 4879SOL    HW124951  10.696   2.405   1.191 -0.8136 -1.2491 -0.4345
 4879SOL    HW224952  10.725   2.411   1.043  1.4621  0.9407  0.0257
 4880SOL     OW24953   4.568  12.607   2.840  0.0560 -0.0084 -0.4756
 4880SOL    HW124954   4.527  12.562   2.914  0.3555 -1.4519 -1.1478
 4880SOL    HW224955   4.650  12.559   2.825  0.5496  0.9719 -1.0285
 4881SOL     OW24956  12.159   5.951  10.408  0.4788  0.1110  0.0426
 4881SOL    HW124957  12.218   5.876  10.422 -0.6622 -0.7001  0.6023
 4881SOL    HW224958  12.193   6.019  10.466  0.7900 -0.3833  0.4493
 4882SOL     OW24959   6.584  10.657   4.270 -0.2076  0.2785 -0.1630
 4882SOL    HW124960   6.586  10.747   4.237  0.5109  0.1235 -0.5589
 4882SOL    HW224961   6.570  10.603   4.192 -0.7051  0.0471  0.0835
 4883SOL     OW24962  11.444   6.783  12.362  0.1280  0.1717  0.0360
 4883SOL    HW124963  11.353   6.810  12.365  0.2986  1.0666 -1.4270
 4883SOL    HW224964  11.445   6.706  12.306  0.4158  1.0067 -1.1431
 4884SOL     OW24965   5.825   4.138   2.835  0.1406  0.0223  0.1155
 4884SOL    HW124966   5.905   4.114   2.883  0.5287 -1.0129 -1.0069
 4884SOL    HW224967   5.813   4.231   2.856  0.4303 -0.3074  1.9815
 4885SOL     OW24968   9.760   7.866   8.155  0.1160  0.7015 -0.0110
 4885SOL    HW124969   9.681   7.819   8.129 -0.9780  2.0263  0.8069
 4885SOL    HW224970   9.747   7.955   8.121 -0.0909  1.7273  2.5148
 4886SOL     OW24971   8.364   4.670   4.003 -0.0085 -0.2350  0.0908
 4886SOL    HW124972   8.290   4.610   4.008 -0.6579  0.4191 -1.0966
 4886SOL    HW224973   8.325   4.757   4.018  0.2291  0.2646 -1.8686
 4887SOL     OW24974   2.342   0.523   1.246  0.4938  0.0694 -0.1701
 4887SOL    HW124975   2.371   0.498   1.158 -0.1717  1.5378 -0.8227
 4887SOL    HW224976   2.407   0.587   1.274 -1.0256  1.9993 -0.9034
 4888SOL     OW24977  11.201  11.851   7.444 -0.1910  0.1334 -0.3334
 4888SOL    HW124978  11.213  11.946   7.446 -3.1361  0.6163 -0.5930
 4888SOL    HW224979  11.107  11.839   7.455  0.0141 -2.7470 -0.9974
 4889SOL     OW24980   6.528   3.268   2.613 -0.2560 -0.5729  0.4102
 4889SOL    HW124981   6.445   3.315   2.617 -0.6430 -1.2803  0.9829
 4889SOL    HW224982   6.504   3.180   2.583  0.5557 -0.2064 -1.5175
 4890SOL     OW24983  12.687   1.684   7.370  0.2891  0.7270  0.2408
 4890SOL    HW124984  12.753   1.647   7.429  0.3557 -2.2841 -1.5163
 4890SOL    HW224985  12.612   1.625   7.377 -1.0359  2.2973 -0.1295
 4891SOL     OW24986  10.454   8.169   1.001 -0.3510 -0.3385  0.0145
 4891SOL    HW124987  10.449   8.256   0.960  0.8380  0.0797  0.6983
 4891SOL    HW224988  10.404   8.179   1.083  0.9600  0.1572  0.7922
 4892SOL     OW24989  12.237   5.947   3.330  0.5486  0.1611 -0.3934
 4892SOL    HW124990  12.195   5.877   3.280  0.0918 -1.1818  1.7602
 4892SOL    HW224991  12.164   5.999   3.365  0.7752 -0.2194  0.6597
 4893SOL     OW24992  12.667   2.002   8.470 -0.2141 -0.1675 -0.1014
 4893SOL    HW124993  12.661   2.057   8.549 -1.6699 -2.2126  1.3325
 4893SOL    HW224994  12.761   1.991   8.456  0.0867  0.3768  1.2571
 4894SOL     OW24995   0.517   2.908  11.340  0.4486  0.1583  0.6026
 4894SOL    HW124996   0.498   2.945  11.427  0.9662  0.6211  0.5271
 4894SOL    HW224997   0.605   2.939  11.320  0.2162  0.3099 -0.2206
 4895SOL     OW24998   8.050   9.470   9.691 -0.2426  0.1385 -0.5258
 4895SOL    HW124999   8.143   9.482   9.674  0.0195  2.1202  1.7534
 4895SOL    HW225000   8.014   9.559   9.693 -2.1820 -0.5663 -1.2152
 4896SOL     OW25001   9.537  12.756  10.580  0.2204 -0.7941  0.4958
 4896SOL    HW125002   9.484  12.728  10.655  1.6938  0.2508  1.9994
 4896SOL    HW225003   9.499  12.839  10.553  0.1660 -0.7799  0.6151
 4897SOL     OW25004   4.001   7.244   6.479  0.3892 -0.0545  0.2091
 4897SOL    HW125005   3.938   7.174   6.495  0.5609 -0.1418  0.5200
 4897SOL    HW225006   3.990   7.267   6.387 -0.6110  0.4273  0.4296
 4898SOL     OW25007   0.430   3.330   5.394 -0.0046 -0.4970 -0.1376
 4898SOL    HW125008   0.477   3.337   5.310 -1.2381 -2.0386 -1.0032
 4898SOL    HW225009   0.435   3.418   5.431 -0.4028  0.5532 -2.3788
 4899SOL     OW25010   3.649   5.215   3.172 -0.3761 -0.3526 -0.1966
 4899SOL    HW125011   3.586   5.201   3.101  0.1532 -0.3462 -0.6797
 4899SOL    HW225012   3.733   5.226   3.127 -0.3302  1.7289  0.3064
 4900SOL     OW25013   6.425  11.136   8.653 -0.3382 -0.5334 -1.1406
 4900SOL    HW125014   6.332  11.157   8.666 -0.0176  1.4232 -1.7980
 4900SOL    HW225015   6.443  11.069   8.719 -1.2934  1.8045  1.7080
 4901SOL     OW25016   0.443   1.444   0.338  0.1134  0.1665 -0.2177
 4901SOL    HW125017   0.375   1.436   0.405 -0.7353  0.6088 -1.0048
 4901SOL    HW225018   0.514   1.491   0.382 -0.6443  0.9300  0.2314
 4902SOL     OW25019   1.564  10.075   0.838  0.0130  0.9646 -0.0391
 4902SOL    HW125020   1.599  10.110   0.920 -2.1797 -1.0542  1.9106
 4902SOL    HW225021   1.477  10.116   0.831 -0.4667 -0.1046 -0.4606
 4903SOL     OW25022   8.393  12.555   5.378  0.4536 -0.9570  0.6149
 4903SOL    HW125023   8.323  12.585   5.319 -0.0713 -1.5629  0.9191
 4903SOL    HW225024   8.380  12.607   5.458  1.4840  0.2372  0.0345
 4904SOL     OW25025   3.398   6.860   0.652  0.0722  0.3338  0.3977
 4904SOL    HW125026   3.362   6.947   0.669  0.4843  0.6929 -0.5096
 4904SOL    HW225027   3.341   6.801   0.701 -1.0434  0.9922 -0.0622
 4905SOL     OW25028   0.066  11.344   7.564 -0.5479  0.1080  0.0148
 4905SOL    HW125029   0.131  11.311   7.502 -1.5332  1.0086 -1.5339
 4905SOL    HW225030   0.111  11.415   7.610  0.4569 -1.0885  0.9825
 4906SOL     OW25031   6.894   6.242   7.993 -0.2027 -0.2296  0.3663
 4906SOL    HW125032   6.818   6.185   7.983  1.1209 -2.2082  1.1312
 4906SOL    HW225033   6.881   6.285   8.078  0.2139 -1.6703  1.1772
 4907SOL     OW25034   2.190   3.080   8.360  0.1001 -0.4811  0.3431
 4907SOL    HW125035   2.173   3.059   8.268 -0.2624 -1.7117  0.6680
 4907SOL    HW225036   2.114   3.132   8.388 -0.1305 -0.7020  0.1308
 4908SOL     OW25037   9.446   6.314  12.086 -0.3264 -0.5404  0.1820
 4908SOL    HW125038   9.423   6.384  12.147 -0.3297 -0.0488 -0.3775
 4908SOL    HW225039   9.399   6.237  12.119  0.7630 -0.6283  1.5915
 4909SOL     OW25040   2.167  11.894   5.718  0.3139  0.1633  0.2191
 4909SOL    HW125041   2.179  11.955   5.791 -0.8019  1.7925 -0.8761
 4909SOL    HW225042   2.137  11.813   5.758 -2.0713  1.5715  1.4916
 4910SOL     OW25043   5.052   6.279   9.446 -0.0450 -0.0980 -0.2014
 4910SOL    HW125044   4.985   6.310   9.506  0.4421  1.7539 -0.5424
 4910SOL    HW225045   5.069   6.354   9.388  1.3625 -0.9519 -0.9588
 4911SOL     OW25046   2.558   3.774   6.752 -0.2015  0.8586 -0.1600
 4911SOL    HW125047   2.509   3.711   6.805  0.1800 -2.1663 -3.1079
 4911SOL    HW225048   2.493   3.840   6.728 -1.4632 -0.1096  0.4631
 4912SOL     OW25049   6.279   6.814   8.400  0.4788 -0.7657 -1.1089
 4912SOL    HW125050   6.359   6.866   8.408  0.3143 -0.6525  0.0004
 4912SOL    HW225051   6.308   6.723   8.405  0.5141 -0.7184 -0.3259
 4913SOL     OW25052   6.687  10.865   6.145 -0.1785  0.0172  0.7667
 4913SOL    HW125053   6.641  10.781   6.146 -0.2424  0.0005 -0.9895
 4913SOL    HW225054   6.621  10.927   6.113  0.1709  0.5547  1.0763
 4914SOL     OW25055  11.019   2.427  10.527  0.3482 -0.2411 -0.4054
 4914SOL    HW125056  11.020   2.374  10.448 -1.3369  0.0791 -0.6886
 4914SOL    HW225057  10.927   2.450  10.539  0.5966 -0.0762  1.5214
 4915SOL     OW25058   3.906  11.520   5.355 -0.2048 -0.1588  0.2708
 4915SOL    HW125059   3.828  11.483   5.313  0.5895  0.0683 -1.5129
 4915SOL    HW225060   3.888  11.614   5.361 -0.4235 -0.2251  0.6986
 4916SOL     OW25061   3.081   7.116   7.196 -0.7647  0.1562  0.0918
 4916SOL    HW125062   3.056   7.024   7.195  0.4379 -0.2087  1.2713
 4916SOL    HW225063   3.065   7.145   7.285 -1.8472  1.3271 -0.4487
 4917SOL     OW25064   5.596   0.524   1.074 -0.2885 -0.3511  0.1953
 4917SOL    HW125065   5.595   0.528   0.978  0.7975 -0.6673  0.1508
 4917SOL    HW225066   5.631   0.437   1.094  0.0361 -0.0721  0.8709
 4918SOL     OW25067   1.996   2.458   1.873 -0.5595 -0.2277 -0.2515
 4918SOL    HW125068   2.082   2.450   1.832 -0.8902 -0.1826 -0.9702
 4918SOL    HW225069   2.015   2.475   1.966  0.2125  0.8119 -0.5863
 4919SOL     OW25070   4.105   1.680   6.269  0.1923 -0.5617 -0.0161
 4919SOL    HW125071   4.102   1.587   6.244 -0.2211 -0.1679 -1.5614
 4919SOL    HW225072   4.195   1.706   6.249  0.3205 -0.6390  0.4586
 4920SOL     OW25073  10.341   3.504   5.168 -0.2639 -0.1422 -0.0414
 4920SOL    HW125074  10.330   3.486   5.261  0.5098  0.0110  0.0881
 4920SOL    HW225075  10.336   3.600   5.161 -2.2128 -0.2386 -0.4282
 4921SOL     OW25076   9.686   0.556  11.455  0.2854  0.2777 -0.2438
 4921SOL    HW125077   9.746   0.506  11.510 -0.5638  0.4133  0.8542
 4921SOL    HW225078   9.732   0.567  11.372  0.8968 -1.4635 -0.1670
 4922SOL     OW25079   7.494   0.399   9.976  0.8309 -0.2148  0.3103
 4922SOL    HW125080   7.509   0.437   9.888  0.4173  0.6001  0.5787
 4922SOL    HW225081   7.400   0.383   9.979  0.8877 -0.5010  0.5069
 4923SOL     OW25082   8.550   1.805   3.799 -0.0412 -0.1432 -0.7278
 4923SOL    HW125083   8.517   1.764   3.719 -1.4121 -0.1690 -0.1687
 4923SOL    HW225084   8.582   1.891   3.770  1.5309 -0.9947 -1.6551
 4924SOL     OW25085   3.427   3.053   2.605 -0.0132 -0.5481  0.4675
 4924SOL    HW125086   3.435   3.140   2.644 -0.3999  0.1921 -1.0171
 4924SOL    HW225087   3.503   3.046   2.547  0.7672 -1.7838  1.5741
 4925SOL     OW25088   8.322   7.462   1.820  0.2666  0.7950  0.1758
 4925SOL    HW125089   8.376   7.393   1.780 -1.0173  0.0476 -0.3214
 4925SOL    HW225090   8.381   7.503   1.884  0.5494 -2.1105  2.0092
 4926SOL     OW25091   4.143   9.606   9.286 -0.1600  0.7551 -0.3217
 4926SOL    HW125092   4.142   9.627   9.193 -1.6165  1.2114 -0.2298
 4926SOL    HW225093   4.206   9.668   9.324  0.7032  0.3320 -1.0324
 4927SOL     OW25094   2.538   7.879  10.334 -0.0485 -0.1721  0.3976
 4927SOL    HW125095   2.606   7.932  10.294  0.4211 -1.9455 -1.2778
 4927SOL    HW225096   2.484   7.850  10.261  1.0595 -3.8360  0.8575
 4928SOL     OW25097   0.963   7.687   8.951 -0.2883  0.0036  0.5412
 4928SOL    HW125098   0.904   7.643   9.012 -0.7123  1.2288  1.0472
 4928SOL    HW225099   0.933   7.660   8.865  1.2407 -2.9407  0.8165
 4929SOL     OW25100   2.820   1.120   1.522 -0.0643  0.4316 -0.0049
 4929SOL    HW125101   2.910   1.152   1.517  0.0352  0.0539 -0.7004
 4929SOL    HW225102   2.820   1.059   1.596  1.0844 -2.0849 -1.9018
 4930SOL     OW25103   8.539   0.685   2.976  0.6071 -0.4511 -0.1428
 4930SOL    HW125104   8.471   0.720   2.919 -0.3979  1.5965  2.1429
 4930SOL    HW225105   8.504   0.603   3.008 -1.1788  0.8700  1.4886
 4931SOL     OW25106  10.486   7.849   8.668  0.4573 -0.2913  0.2400
 4931SOL    HW125107  10.472   7.773   8.612  2.2085 -0.6549  0.2322
 4931SOL    HW225108  10.464   7.924   8.613 -1.7833 -0.7436  0.4026
 4932SOL     OW25109   8.000  10.520  12.518  0.0876  0.4644 -0.5355
 4932SOL    HW125110   7.912  10.490  12.493  0.5790  0.5373 -2.4806
 4932SOL    HW225111   7.994  10.534  12.612 -1.9339  0.2608 -0.5877
 4933SOL     OW25112  12.963   9.384  12.847  0.0837  0.2939 -0.9371
 4933SOL    HW125113  13.038   9.348  12.801  0.7585 -0.3838  0.5990
 4933SOL    HW225114  13.001   9.429  12.923 -1.0325  0.1346 -0.2589
 4934SOL     OW25115  11.910  12.726   4.792 -0.2578  0.5999  0.3820
 4934SOL    HW125116  11.959  12.702   4.713 -1.6038 -1.7691  0.1806
 4934SOL    HW225117  11.853  12.797   4.763 -1.5943 -1.0035 -1.2083
 4935SOL     OW25118   1.727   4.929   0.391 -0.2353  0.4057  0.3599
 4935SOL    HW125119   1.669   4.879   0.449  0.0703  0.2601  0.5469
 4935SOL    HW225120   1.807   4.877   0.388  0.9257  1.9140  2.3234
 4936SOL     OW25121   9.242   8.008   5.150 -0.5255 -0.1530 -0.4168
 4936SOL    HW125122   9.246   8.104   5.144 -1.7804 -0.1082 -0.9108
 4936SOL    HW225123   9.334   7.980   5.152 -0.1393  1.0455 -0.5034
 4937SOL     OW25124   3.463   7.183   9.626 -0.3934 -0.5603  0.4441
 4937SOL    HW125125   3.470   7.260   9.570  0.0070 -1.9132 -1.4617
 4937SOL    HW225126   3.548   7.177   9.670 -0.2696 -0.1862  0.2624
 4938SOL     OW25127  10.667   9.118   7.336  0.6183 -0.0993 -0.3884
 4938SOL    HW125128  10.593   9.097   7.279 -0.4705  0.2919  0.8470
 4938SOL    HW225129  10.688   9.209   7.315 -0.1558  0.2278  0.2244
 4939SOL     OW25130   1.005   9.332  12.385  0.0718 -0.4312 -0.4100
 4939SOL    HW125131   0.910   9.320  12.387  0.0692 -0.9511 -2.0762
 4939SOL    HW225132   1.036   9.281  12.460 -0.9234 -0.5539 -0.0536
 4940SOL     OW25133   5.697  11.176   1.181 -0.4200 -0.2119  0.3941
 4940SOL    HW125134   5.759  11.229   1.231 -1.7075  0.7239  1.0885
 4940SOL    HW225135   5.673  11.231   1.106  0.3943 -1.0175 -0.4843
 4941SOL     OW25136  12.901   6.803  11.252 -0.3086  0.0009 -0.1599
 4941SOL    HW125137  12.822   6.821  11.303 -1.5060 -1.7275 -1.3355
 4941SOL    HW225138  12.972   6.831  11.309 -1.7449  2.6705  0.5038
 4942SOL     OW25139  11.245  11.712   0.143  1.0053  0.4206 -0.1126
 4942SOL    HW125140  11.219  11.793   0.098  0.2892 -0.6036 -1.6406
 4942SOL    HW225141  11.325  11.735   0.190  0.8304  2.0033 -0.5368
 4943SOL     OW25142   6.002  11.515  10.669  0.2575  0.1927 -0.5037
 4943SOL    HW125143   5.907  11.519  10.682  0.3983  1.3722  0.1728
 4943SOL    HW225144   6.039  11.578  10.730  1.4737 -0.0411 -0.9581
 4944SOL     OW25145   4.032   1.528   9.248  0.3872  0.8966  0.2363
 4944SOL    HW125146   4.077   1.454   9.208 -0.3918  0.7801 -0.4329
 4944SOL    HW225147   3.958   1.489   9.294  0.3818  1.1904  0.4812
 4945SOL     OW25148   9.136  10.162   5.848  0.2054  0.1719 -0.4315
 4945SOL    HW125149   9.067  10.098   5.827  2.4256 -2.5381 -0.0368
 4945SOL    HW225150   9.130  10.172   5.943  1.6658 -1.8512 -0.0555
 4946SOL     OW25151  11.924   4.587   0.641 -0.6680  0.4696  0.4015
 4946SOL    HW125152  11.923   4.620   0.731 -0.8184  0.6860  0.3213
 4946SOL    HW225153  11.895   4.661   0.588 -0.3488  0.4157  0.1483
 4947SOL     OW25154  10.642  10.433   5.007 -0.2404 -0.1806 -0.1811
 4947SOL    HW125155  10.631  10.399   5.096 -1.5409 -1.0065 -0.6258
 4947SOL    HW225156  10.560  10.480   4.989  0.1246  0.2103 -0.8462
 4948SOL     OW25157   9.373   0.996  10.277  0.4714  0.4431  0.5543
 4948SOL    HW125158   9.402   0.906  10.291 -0.3691  0.0449 -0.1407
 4948SOL    HW225159   9.306   1.011  10.344 -1.7992 -0.6328 -1.3180
 4949SOL     OW25160   9.161   1.190   1.133  0.0305 -0.1116  0.3753
 4949SOL    HW125161   9.112   1.156   1.059 -1.1008  2.0365  0.0530
 4949SOL    HW225162   9.206   1.267   1.098  0.9616 -0.1111  1.5008
 4950SOL     OW25163  11.185   4.337   0.335 -0.0589  0.0662  0.2034
 4950SOL    HW125164  11.120   4.269   0.353 -2.0597  1.8464  0.1383
 4950SOL    HW225165  11.254   4.323   0.401 -1.1413 -1.0791  1.1437
 4951SOL     OW25166   7.321   4.723   7.724  0.2150  0.2402  0.1129
 4951SOL    HW125167   7.242   4.679   7.690 -0.5218  1.1080  0.6550
 4951SOL    HW225168   7.349   4.668   7.797  0.2690 -0.2173 -0.2482
 4952SOL     OW25169  10.036   2.996   1.443 -0.1324  0.3563 -0.6543
 4952SOL    HW125170   9.964   3.057   1.458  0.7705  1.8212 -1.9593
 4952SOL    HW225171  10.064   3.013   1.353  0.1420 -2.0405 -1.0977
 4953SOL     OW25172   4.764   0.954  11.978 -0.5539 -0.2790 -0.2283
 4953SOL    HW125173   4.691   0.973  11.918  0.5784  1.9261 -0.9836
 4953SOL    HW225174   4.835   1.010  11.949  0.5110 -0.1512  2.3591
 4954SOL     OW25175  11.237   8.973  11.664  0.4605  0.0059  0.1375
 4954SOL    HW125176  11.321   8.989  11.622  0.5837 -0.2723  0.2727
 4954SOL    HW225177  11.173   9.015  11.607  0.7016  0.3112  0.0897
 4955SOL     OW25178  12.436   0.915  12.036 -0.5423 -0.2489  0.1832
 4955SOL    HW125179  12.529   0.923  12.018 -1.0033 -0.4270 -2.7600
 4955SOL    HW225180  12.418   0.821  12.030 -1.0277 -0.1464 -0.0901
 4956SOL     OW25181   1.512   6.112   5.307  0.6777 -0.2476  0.3343
 4956SOL    HW125182   1.440   6.066   5.263  1.8014 -1.9392  0.1521
 4956SOL    HW225183   1.568   6.142   5.236  0.5496  0.3755  0.4973
 4957SOL     OW25184   3.673   3.810   8.996  0.2451 -0.2496 -0.3191
 4957SOL    HW125185   3.737   3.763   9.049  0.4576  0.6293  0.2246
 4957SOL    HW225186   3.596   3.816   9.052  0.2239  0.0628 -0.3837
 4958SOL     OW25187  12.729   2.803  11.410 -0.4903 -0.0305 -0.0326
 4958SOL    HW125188  12.695   2.771  11.326  0.9129  0.0107 -0.6377
 4958SOL    HW225189  12.704   2.736  11.474 -2.4340  0.4047 -0.2823
 4959SOL     OW25190   1.120   3.861   5.434 -0.1599 -0.3090  0.2484
 4959SOL    HW125191   1.162   3.778   5.457 -1.0325 -0.5888  0.8917
 4959SOL    HW225192   1.085   3.847   5.347 -0.7719 -0.8139  0.5676
 4960SOL     OW25193   1.898   4.664   1.591  0.0629 -0.6126 -0.1879
 4960SOL    HW125194   1.842   4.586   1.590 -1.1424  0.2358 -0.4966
 4960SOL    HW225195   1.885   4.702   1.678 -0.2658 -0.1116 -0.4529
 4961SOL     OW25196   2.363   8.387  11.857 -0.3925 -0.1630 -0.4001
 4961SOL    HW125197   2.389   8.479  11.845  0.6653 -0.2706  0.8504
 4961SOL    HW225198   2.377   8.371  11.950  0.4819 -1.9172 -0.8078
 4962SOL     OW25199   6.734  10.832   0.169  0.4370  0.4924 -0.4010
 4962SOL    HW125200   6.712  10.917   0.207  0.1113  0.2507 -0.0526
 4962SOL    HW225201   6.759  10.778   0.243  1.6427  0.5813 -0.7213
 4963SOL     OW25202  10.708  12.221   3.827  0.0888 -0.3629 -0.5642
 4963SOL    HW125203  10.803  12.213   3.823  0.0787 -0.3487 -0.8133
 4963SOL    HW225204  10.683  12.260   3.744 -0.2817 -1.7607 -1.1385
 4964SOL     OW25205   2.632  10.272   1.163  0.1450  0.3034 -0.0567
 4964SOL    HW125206   2.617  10.338   1.095 -0.4662  0.3657  0.1372
 4964SOL    HW225207   2.727  10.260   1.163  0.1531  0.2753 -0.9482
 4965SOL     OW25208   8.745   6.081   7.549  0.2924 -0.0044  0.1653
 4965SOL    HW125209   8.801   6.056   7.477 -0.2019  0.7257 -0.4889
 4965SOL    HW225210   8.779   6.032   7.624  1.5671  0.1494 -0.2847
 4966SOL     OW25211   8.732   3.191   8.566  0.0099 -1.1317 -0.3468
 4966SOL    HW125212   8.725   3.100   8.535 -1.3630 -1.5925  1.1881
 4966SOL    HW225213   8.661   3.237   8.521 -0.6703 -1.3325  0.4979
 4967SOL     OW25214   3.429   6.845   0.052 -0.1884 -0.3452 -0.5635
 4967SOL    HW125215   3.406   6.807   0.137 -1.2433 -0.2843 -0.8117
 4967SOL    HW225216   3.525   6.853   0.054 -0.0636 -1.7839  0.0059
 4968SOL     OW25217   0.247   0.546   5.214  0.7208 -0.0304  0.3692
 4968SOL    HW125218   0.255   0.616   5.279  1.8777  1.3008 -1.1123
 4968SOL    HW225219   0.251   0.592   5.130 -0.6523 -1.6968 -0.6678
 4969SOL     OW25220   1.800   0.621  12.264  0.3967  0.5519 -0.4829
 4969SOL    HW125221   1.887   0.582  12.276  0.2466  0.2864 -0.2592
 4969SOL    HW225222   1.760   0.619  12.351 -0.0620  0.1268 -0.7020
 4970SOL     OW25223   5.233   1.127   2.397  0.2694 -0.1053  0.5451
 4970SOL    HW125224   5.235   1.220   2.420 -1.2679  0.6739 -2.0916
 4970SOL    HW225225   5.169   1.089   2.457 -1.9779  1.3705 -0.7952
 4971SOL     OW25226   5.232   1.799   5.282 -0.0474 -0.3399 -0.1460
 4971SOL    HW125227   5.198   1.740   5.348  0.9082 -0.9084 -0.1389
 4971SOL    HW225228   5.324   1.772   5.270  0.6241  1.5549  0.3375
 4972SOL     OW25229  10.150   7.661   7.384  0.6565 -0.7637 -0.2463
 4972SOL    HW125230  10.144   7.576   7.427 -0.8562 -1.5484 -1.8554
 4972SOL    HW225231  10.075   7.710   7.417 -0.0392 -1.0759 -1.3075
 4973SOL     OW25232   1.781   0.871   8.320 -0.2494  0.9630 -0.1000
 4973SOL    HW125233   1.806   0.963   8.331 -0.3062  0.9779 -0.0948
 4973SOL    HW225234   1.799   0.831   8.406  1.2183  0.6259 -0.5340
 4974SOL     OW25235  12.004   1.130   5.853 -0.2780  0.4098 -0.5622
 4974SOL    HW125236  12.058   1.141   5.775  1.1338 -0.4062  0.2597
 4974SOL    HW225237  12.066   1.111   5.923 -1.5040  1.1987  0.7927
 4975SOL     OW25238  11.725  12.398   7.013  0.5399 -0.4509  0.3381
 4975SOL    HW125239  11.648  12.369   6.962  1.0737 -0.5492 -0.4370
 4975SOL    HW225240  11.696  12.395   7.104 -0.5056 -0.1000  0.0323
 4976SOL     OW25241   0.702   6.173   8.368  0.0281 -0.1752 -0.5371
 4976SOL    HW125242   0.659   6.093   8.397  0.9991 -0.5870 -0.1737
 4976SOL    HW225243   0.631   6.232   8.343 -0.7032 -1.0432 -0.5174
 4977SOL     OW25244   7.178  11.528   0.741 -0.2109 -0.0388  0.3673
 4977SOL    HW125245   7.232  11.567   0.672  0.3406 -0.6118  0.4642
 4977SOL    HW225246   7.090  11.524   0.703  0.0408 -0.1359 -0.2174
 4978SOL     OW25247   4.648   9.944   2.580  0.1470 -0.4250  0.2124
 4978SOL    HW125248   4.710   9.931   2.651  0.2832 -1.9069 -0.1475
 4978SOL    HW225249   4.566   9.969   2.623  0.1369 -1.6402  0.9372
 4979SOL     OW25250   4.951   6.444  10.344  0.1152 -0.2783 -0.0754
 4979SOL    HW125251   4.991   6.363  10.311  0.6038 -0.1709  0.2329
 4979SOL    HW225252   5.000   6.464  10.424 -0.2323  0.1327  0.0392
 4980SOL     OW25253   7.089   2.083   9.250 -0.4449  0.3592  0.5950
 4980SOL    HW125254   7.103   2.171   9.215  0.7653  0.8561  2.1800
 4980SOL    HW225255   7.013   2.091   9.307 -0.2916  0.3944  0.7945
 4981SOL     OW25256   8.418   8.774   3.368 -0.3478  0.8135  0.0170
 4981SOL    HW125257   8.333   8.812   3.347 -0.4480 -0.0281 -1.2014
 4981SOL    HW225258   8.474   8.800   3.295  0.0481  0.1410  0.0810
 4982SOL     OW25259   8.147   9.030   7.606 -0.1483 -0.5031  0.1391
 4982SOL    HW125260   8.190   9.115   7.612  0.3728 -0.5269 -2.0681
 4982SOL    HW225261   8.215   8.971   7.574 -0.5114 -1.7687  1.5884
 4983SOL     OW25262   8.528   9.310   8.179  0.6925  0.5990  0.3226
 4983SOL    HW125263   8.479   9.299   8.261 -0.7376 -0.3196 -0.6208
 4983SOL    HW225264   8.549   9.221   8.152 -1.0640  0.6918 -1.5787
 4984SOL     OW25265  12.721   7.201   9.995 -0.0018  0.5010  0.7250
 4984SOL    HW125266  12.718   7.293  10.024 -3.3945  0.8260 -0.2505
 4984SOL    HW225267  12.746   7.206   9.903  1.5068  0.2350  1.0893
 4985SOL     OW25268  12.749  10.301  10.835  0.1659  0.5566  0.1618
 4985SOL    HW125269  12.740  10.390  10.800 -0.1806 -0.0492 -1.3771
 4985SOL    HW225270  12.684  10.250  10.787  1.3973 -0.8331 -0.0892
 4986SOL     OW25271   8.522   7.195   6.538 -0.2557 -0.0238 -0.0913
 4986SOL    HW125272   8.489   7.142   6.611  1.7198 -1.6407 -0.2790
 4986SOL    HW225273   8.610   7.222   6.567 -0.4508  1.4759 -0.8516
 4987SOL     OW25274   5.046   0.546   7.945  0.6019  0.2861  0.0312
 4987SOL    HW125275   5.039   0.630   7.991 -0.9120 -0.0150  0.3835
 4987SOL    HW225276   5.138   0.520   7.957  0.3914  0.4723  2.4401
 4988SOL     OW25277   1.528   4.318   8.498 -0.0288  0.0648  0.0209
 4988SOL    HW125278   1.623   4.307   8.502  0.0254  0.6369  0.3562
 4988SOL    HW225279   1.514   4.394   8.443 -0.3183 -0.3313 -0.4621
 4989SOL     OW25280   7.398   8.752   7.366 -0.5233 -0.1862 -0.1506
 4989SOL    HW125281   7.367   8.672   7.407 -1.4071  0.0412 -0.3547
 4989SOL    HW225282   7.332   8.818   7.386 -0.2767  0.2701 -0.7601
 4990SOL     OW25283  11.020   1.959  12.812 -0.2043  0.3515 -0.0691
 4990SOL    HW125284  10.973   1.947  12.894  2.0551 -3.5486  0.9555
 4990SOL    HW225285  10.981   1.895  12.752  0.0225  1.1602 -1.1105
 4991SOL     OW25286   4.841   4.306   0.511  0.1650  0.3048  0.1872
 4991SOL    HW125287   4.846   4.265   0.598 -0.5374 -0.2144 -0.0055
 4991SOL    HW225288   4.754   4.346   0.509 -0.0940 -0.2707 -0.5242
 4992SOL     OW25289   5.214  10.072   0.469 -0.1351 -0.0007 -0.0831
 4992SOL    HW125290   5.127  10.089   0.432 -0.0866 -0.8086 -0.5953
 4992SOL    HW225291   5.197  10.039   0.557 -0.3841 -0.8863 -0.4585
 4993SOL     OW25292   4.065   2.358   2.530  0.1619  0.3595  0.2165
 4993SOL    HW125293   4.155   2.383   2.547  0.2461  1.5582 -1.6704
 4993SOL    HW225294   4.060   2.265   2.553  1.8117  0.3337  0.5362
 4994SOL     OW25295   7.812   8.246   3.707 -0.0553  0.3856 -0.4459
 4994SOL    HW125296   7.858   8.303   3.769  0.2769 -0.9690  0.6136
 4994SOL    HW225297   7.760   8.188   3.763 -2.1935  1.0969 -1.5650
 4995SOL     OW25298   3.482   5.237  12.915  0.2025 -0.0186  0.3936
 4995SOL    HW125299   3.567   5.223  12.957  0.7106 -1.1063 -0.9384
 4995SOL    HW225300   3.479   5.172  12.845 -1.3053  0.6832 -0.2274
 4996SOL     OW25301   0.814   5.125   5.681  0.6511  0.0900  0.0702
 4996SOL    HW125302   0.849   5.159   5.764  0.6521 -0.5018  0.3186
 4996SOL    HW225303   0.782   5.038   5.703  2.9197 -1.1081 -1.0938
 4997SOL     OW25304   0.687  11.424  11.346  0.0837  0.2641  0.4203
 4997SOL    HW125305   0.595  11.402  11.358  0.3030 -0.6636  0.4315
 4997SOL    HW225306   0.696  11.446  11.254 -0.4283  1.7490  0.7012
 4998SOL     OW25307   4.982   6.086   8.592  0.5620 -0.6488 -0.3717
 4998SOL    HW125308   5.049   6.116   8.654  0.5124 -0.4265 -0.4253
 4998SOL    HW225309   4.930   6.163   8.574  0.5969 -0.7065 -0.7221
 4999SOL     OW25310  11.022   9.999   4.341  0.1794  0.1662  0.0497
 4999SOL    HW125311  11.040  10.021   4.433  0.2178  3.0150 -0.5471
 4999SOL    HW225312  11.100  10.027   4.293 -1.2735  2.2839 -1.2414
 5000SOL     OW25313   2.407   3.033   0.577 -0.1141 -0.0206  0.1210
 5000SOL    HW125314   2.321   3.073   0.563 -0.2875 -0.2573  0.4789
 5000SOL    HW225315   2.415   3.029   0.673  0.7609  0.9911  0.1105
 5001SOL     OW25316  10.342   8.469   4.326 -0.1378 -0.5473  0.2463
 5001SOL    HW125317  10.425   8.516   4.328 -0.4475 -0.0076  0.7627
 5001SOL    HW225318  10.297   8.495   4.406 -0.8912 -0.6661 -0.1203
 5002SOL     OW25319   0.957  10.663   5.459 -0.0274 -0.2508  0.2473
 5002SOL    HW125320   0.865  10.675   5.482 -0.7478  0.8970 -2.7468
 5002SOL    HW225321   1.002  10.734   5.504 -0.9743  0.4860  0.0745
 5003SOL     OW25322  12.402   8.199   2.441 -1.1173 -0.1200 -0.1916
 5003SOL    HW125323  12.362   8.232   2.522 -1.4612 -0.5201 -0.1963
 5003SOL    HW225324  12.430   8.278   2.395  0.8143  0.0732  1.1789
 5004SOL     OW25325   0.397   3.685   3.461  0.3818  0.4092 -0.8710
 5004SOL    HW125326   0.461   3.614   3.462 -4.4119 -4.4919 -0.6060
 5004SOL    HW225327   0.397   3.717   3.371  1.2059 -1.5306 -1.5986
 5005SOL     OW25328   9.662  11.322   4.146 -0.1222 -0.8194 -0.0003
 5005SOL    HW125329   9.742  11.273   4.128 -0.3700 -1.2626  0.0718
 5005SOL    HW225330   9.650  11.316   4.241 -0.1360 -0.5869  0.0141
 5006SOL     OW25331  10.661  10.581   4.659 -0.0928 -0.3545  0.2832
 5006SOL    HW125332  10.695  10.626   4.737  0.3034 -0.2924  0.0766
 5006SOL    HW225333  10.580  10.629   4.638  0.8879  1.0021 -0.5894
 5007SOL     OW25334   4.736   9.004   8.443  0.2768  0.2237 -0.2607
 5007SOL    HW125335   4.788   9.085   8.446 -1.5680  1.4457  0.9135
 5007SOL    HW225336   4.686   9.012   8.362 -2.5375  2.1091  1.5025
 5008SOL     OW25337   8.230   5.921   2.847  0.1398 -0.2191 -0.1597
 5008SOL    HW125338   8.151   5.958   2.807 -0.5191 -2.3755 -1.0064
 5008SOL    HW225339   8.301   5.956   2.794 -0.3738  0.4892 -0.4008
 5009SOL     OW25340   5.239   4.614   4.276  0.0860  0.6275 -0.0188
 5009SOL    HW125341   5.319   4.629   4.226  0.4543  0.3592  0.4925
 5009SOL    HW225342   5.243   4.677   4.348 -0.3989  0.9480 -0.2686
 5010SOL     OW25343   1.594  11.162   6.000  0.4962  0.3425  0.0093
 5010SOL    HW125344   1.687  11.160   6.023  0.3979 -0.3556  0.3523
 5010SOL    HW225345   1.587  11.105   5.924  0.1776 -0.4457  0.6214
 5011SOL     OW25346   9.344   7.416   6.768 -0.0695  0.4784  0.3256
 5011SOL    HW125347   9.435   7.431   6.794  0.8376 -1.1409 -1.6995
 5011SOL    HW225348   9.296   7.418   6.850  2.0681 -0.5310  1.7001
 5012SOL     OW25349   0.725   8.787   7.882 -0.6016 -0.5160  0.3820
 5012SOL    HW125350   0.790   8.852   7.857 -1.7439  0.3186 -0.5093
 5012SOL    HW225351   0.752   8.759   7.970  0.2531  0.7073  0.5360
 5013SOL     OW25352  10.057   4.283   7.253  0.0388  0.3894 -0.1510
 5013SOL    HW125353  10.040   4.304   7.345 -1.4378 -2.6880  0.4038
 5013SOL    HW225354  10.119   4.350   7.224  0.8420  1.2422  3.1606
 5014SOL     OW25355  11.885   0.502   2.305 -0.1575 -0.0057  0.0926
 5014SOL    HW125356  11.806   0.468   2.345 -0.6994  0.9597 -0.1148
 5014SOL    HW225357  11.933   0.425   2.275 -0.9680 -0.6020  0.3044
 5015SOL     OW25358   7.246   1.836   0.771  0.0677  0.5453 -0.5546
 5015SOL    HW125359   7.223   1.830   0.863  0.8308  1.2384 -0.3093
 5015SOL    HW225360   7.329   1.789   0.764  0.2042  0.8232 -0.8157
 5016SOL     OW25361   9.163  12.801   3.928  0.1076 -0.0710 -0.0389
 5016SOL    HW125362   9.130  12.713   3.910  1.0210 -0.3002 -0.6973
 5016SOL    HW225363   9.249  12.803   3.885 -0.7163  1.8046 -1.7489
 5017SOL     OW25364   4.811  11.910   1.784  0.0057  0.1500  0.3936
 5017SOL    HW125365   4.862  11.865   1.851  1.2670  1.0907  0.1134
 5017SOL    HW225366   4.847  11.877   1.701  0.3436  0.9830  0.1931
 5018SOL     OW25367   4.182   0.417   7.177  0.1621  0.2140  0.5708
 5018SOL    HW125368   4.208   0.347   7.118  1.4215  0.9031  0.2743
 5018SOL    HW225369   4.264   0.446   7.218 -0.3697  1.3002  0.9139
 5019SOL     OW25370   6.861   0.857  11.049 -0.3270  0.0794 -0.4404
 5019SOL    HW125371   6.890   0.898  11.130 -0.2465 -1.2728  0.2485
 5019SOL    HW225372   6.787   0.911  11.020 -1.2731 -0.2005  1.3024
 5020SOL     OW25373  11.973   2.344   9.154  0.1437  0.6062  0.3096
 5020SOL    HW125374  12.065   2.327   9.136 -0.0870  0.6581 -0.9963
 5020SOL    HW225375  11.954   2.293   9.233  1.3861  0.9383  0.8537
 5021SOL     OW25376   1.516   6.929   6.226 -0.3872 -0.4885  0.3494
 5021SOL    HW125377   1.527   6.939   6.132 -2.4167 -2.8433 -0.2457
 5021SOL    HW225378   1.595   6.882   6.254  0.0699 -0.0798 -0.2259
 5022SOL     OW25379  11.090   7.058   3.296  0.0628  0.1976  0.0646
 5022SOL    HW125380  11.055   6.980   3.340 -1.1096  1.1964  0.9780
 5022SOL    HW225381  11.183   7.059   3.321 -0.2007 -0.2041  1.1344
 5023SOL     OW25382   5.377   1.404   1.536  0.4660  0.3880 -0.0934
 5023SOL    HW125383   5.370   1.492   1.500  0.8374  2.3061  3.9420
 5023SOL    HW225384   5.310   1.400   1.604  1.9265 -1.5841  1.3735
 5024SOL     OW25385   3.887   0.280   9.001 -0.1002  0.5527  0.6466
 5024SOL    HW125386   3.820   0.275   9.069 -0.7787 -2.4585 -0.0884
 5024SOL    HW225387   3.969   0.290   9.049 -0.4740 -2.2303  2.0545
 5025SOL     OW25388   1.141   6.602  12.674 -0.2964 -0.0433  0.0362
 5025SOL    HW125389   1.158   6.635  12.586 -2.6049  0.8251 -0.1644
 5025SOL    HW225390   1.051   6.568  12.670 -0.3992 -0.1390  2.0137
 5026SOL     OW25391   0.890   7.897   8.576  0.3971 -0.1705 -0.8323
 5026SOL    HW125392   0.862   7.906   8.667  0.7291 -0.2207 -0.7269
 5026SOL    HW225393   0.808   7.888   8.527  0.0891  2.0453 -0.7991
 5027SOL     OW25394  10.213  10.814   8.032  0.1120 -0.0572  0.0880
 5027SOL    HW125395  10.230  10.738   7.977 -0.9673  0.3943 -0.9333
 5027SOL    HW225396  10.119  10.830   8.022 -0.7603 -1.5157  4.1519
 5028SOL     OW25397   5.730  11.865   6.314  0.8716  0.3057  0.1794
 5028SOL    HW125398   5.695  11.845   6.227  0.5056 -0.7999  0.5693
 5028SOL    HW225399   5.800  11.801   6.327  2.7227  2.1152 -0.3495
 5029SOL     OW25400   2.937   1.534  10.717  0.8707  0.1924 -0.3307
 5029SOL    HW125401   2.979   1.466  10.770  0.7051  2.2123  2.6191
 5029SOL    HW225402   2.880   1.581  10.778 -0.2825  1.9797 -2.6116
 5030SOL     OW25403  12.457   8.523   7.633 -0.0010 -0.3157  0.0156
 5030SOL    HW125404  12.430   8.438   7.669  0.7160 -0.9633 -0.9234
 5030SOL    HW225405  12.465   8.580   7.710 -1.8179 -0.6941  0.5315
 5031SOL     OW25406   3.383   5.759   3.776 -0.2081 -0.3529  0.2456
 5031SOL    HW125407   3.302   5.736   3.732  1.1433  0.9027 -3.2487
 5031SOL    HW225408   3.451   5.709   3.731  1.1877 -0.3099  2.1386
 5032SOL     OW25409   6.805   2.613   1.117  0.7105 -0.2283  0.2538
 5032SOL    HW125410   6.734   2.631   1.055 -0.0954  0.4867  1.3468
 5032SOL    HW225411   6.873   2.676   1.095  0.4858 -0.0631  0.0284
 5033SOL     OW25412  12.818   1.296  11.369 -0.2940  0.3413  0.3850
 5033SOL    HW125413  12.748   1.339  11.418  0.0566  2.7627 -1.0749
 5033SOL    HW225414  12.780   1.280  11.283  0.3740 -0.0549  0.1618
 5034SOL     OW25415   1.025   1.058   7.705 -0.2361 -0.2057 -0.1433
 5034SOL    HW125416   1.003   0.974   7.664  2.8146 -0.1881 -2.1659
 5034SOL    HW225417   1.112   1.043   7.743  0.1187  1.8800 -0.0518
 5035SOL     OW25418  11.695   9.681  12.121  0.1208  0.3639 -0.8846
 5035SOL    HW125419  11.782   9.646  12.102  0.1937 -1.5273  2.1934
 5035SOL    HW225420  11.708   9.775  12.129  2.1417  0.0402  0.3432
 5036SOL     OW25421   1.402  11.986   7.672  0.1968 -0.1711 -0.1848
 5036SOL    HW125422   1.450  12.008   7.591  1.1383 -2.9504 -0.4887
 5036SOL    HW225423   1.471  11.967   7.736 -0.5389 -0.5298  0.5141
 5037SOL     OW25424   9.287   0.383   0.357 -0.4066  0.2319 -0.3832
 5037SOL    HW125425   9.351   0.315   0.376 -2.0547 -1.5662 -0.9154
 5037SOL    HW225426   9.258   0.364   0.267 -2.1365  0.5681  0.0698
 5038SOL     OW25427   9.416   7.106   1.256  0.8049  0.3156 -0.0340
 5038SOL    HW125428   9.419   7.020   1.297  0.1631 -0.6402 -1.8914
 5038SOL    HW225429   9.507   7.137   1.259  0.8254  0.1982  1.8099
 5039SOL     OW25430   2.865   6.327   6.001 -0.0654  0.5813 -0.2199
 5039SOL    HW125431   2.948   6.335   6.048 -0.0697  2.1844 -0.4451
 5039SOL    HW225432   2.875   6.383   5.924 -1.1587  0.3448 -0.5611
 5040SOL     OW25433  12.568   6.481   7.455  0.3396 -0.6079  0.0199
 5040SOL    HW125434  12.541   6.550   7.394 -1.2310 -0.8382  0.4186
 5040SOL    HW225435  12.572   6.402   7.401 -4.0032 -1.4666  0.6041
 5041SOL     OW25436   8.371   7.267   4.935  0.5090 -0.9473 -0.1683
 5041SOL    HW125437   8.461   7.300   4.930 -0.2617  1.6807  1.1427
 5041SOL    HW225438   8.325   7.310   4.863  0.0567 -1.3838 -0.1462
 5042SOL     OW25439  11.020   5.188   4.052 -0.4198  0.3950  0.2152
 5042SOL    HW125440  11.085   5.147   4.110 -0.6161  0.6937  0.6503
 5042SOL    HW225441  11.070   5.218   3.977 -0.0878  0.4244  0.4479
 5043SOL     OW25442  12.723   7.489   3.807 -0.0811 -0.2505 -0.1340
 5043SOL    HW125443  12.735   7.412   3.752 -1.0682  0.5166 -1.5074
 5043SOL    HW225444  12.634   7.481   3.841  0.6925 -0.9683  1.8207
 5044SOL     OW25445  12.233  11.906   4.086 -0.5315 -0.0353  0.2028
 5044SOL    HW125446  12.326  11.927   4.079 -0.2132 -0.7449  1.7994
 5044SOL    HW225447  12.231  11.827   4.140 -2.0344 -0.4031 -0.3500
 5045SOL     OW25448   2.329   1.969   4.320 -0.4202  0.5397  0.1852
 5045SOL    HW125449   2.404   1.924   4.359 -0.2416  1.3814  0.8457
 5045SOL    HW225450   2.361   2.003   4.237 -1.0004 -1.8946 -1.1457
 5046SOL     OW25451   0.709   0.237  12.714  0.1078 -0.0356 -0.4060
 5046SOL    HW125452   0.652   0.292  12.768  0.6026  0.5693 -0.4896
 5046SOL    HW225453   0.760   0.187  12.777  1.1071  1.1001 -0.2796
 5047SOL     OW25454   8.373   8.897   7.701 -0.0008 -0.1250 -0.1198
 5047SOL    HW125455   8.340   8.807   7.691 -1.5909  0.5518 -1.3232
 5047SOL    HW225456   8.353   8.920   7.792 -1.6590 -0.2337 -0.4254
 5048SOL     OW25457   9.479   7.042   4.364 -0.4695  0.1891  0.4541
 5048SOL    HW125458   9.532   7.119   4.385 -0.2310  0.0275  0.4462
 5048SOL    HW225459   9.498   6.979   4.434 -0.2943 -0.0436  0.2004
 5049SOL     OW25460   6.493  11.105   0.978  0.3912 -0.4074  0.4882
 5049SOL    HW125461   6.543  11.148   1.046 -0.2516 -0.4934  1.0215
 5049SOL    HW225462   6.413  11.075   1.021  1.0534 -2.6758  0.2979
 5050SOL     OW25463   8.428  11.715   5.590 -0.0268  0.1522 -0.0568
 5050SOL    HW125464   8.500  11.666   5.630  0.7496 -1.2458 -2.8529
 5050SOL    HW225465   8.363  11.648   5.569  0.3328  0.4546 -2.4849
 5051SOL     OW25466   8.555  12.762   8.933  0.4303 -0.2690  0.5949
 5051SOL    HW125467   8.521  12.717   8.857  1.2646 -0.6682  0.4448
 5051SOL    HW225468   8.578  12.693   8.995  0.8107 -0.0148  0.7497
 5052SOL     OW25469   7.750   8.999  11.811 -0.0352  0.0859 -0.2930
 5052SOL    HW125470   7.734   8.983  11.904  0.2146  0.3328 -0.2057
 5052SOL    HW225471   7.664   8.988  11.770 -0.2990  0.7042  0.0699
 5053SOL     OW25472   3.027   8.116   5.421  0.2714 -0.0862  0.1852
 5053SOL    HW125473   3.000   8.045   5.362  1.0688 -1.5748  1.5267
 5053SOL    HW225474   3.068   8.181   5.364  1.5872 -1.7683 -0.8691
 5054SOL     OW25475   3.405   1.835   3.645 -0.0954  0.0308 -0.1055
 5054SOL    HW125476   3.494   1.864   3.624  0.4166 -0.0488  1.7652
 5054SOL    HW225477   3.360   1.915   3.673  0.3562 -0.4011  1.9671
 5055SOL     OW25478  10.135   6.685   2.074  0.1018  0.0682  0.2421
 5055SOL    HW125479  10.118   6.723   1.987  2.2974  1.5088  0.3691
 5055SOL    HW225480  10.198   6.615   2.057  0.1709  0.0415  0.6103
 5056SOL     OW25481   1.636   1.830   7.997  0.1993  0.7157 -0.0030
 5056SOL    HW125482   1.548   1.855   8.025  0.0406 -0.6170  0.8056
 5056SOL    HW225483   1.686   1.824   8.079  0.4871 -0.4965 -0.2450
 5057SOL     OW25484   2.272   5.791   9.949 -0.1911  0.5722  0.1767
 5057SOL    HW125485   2.261   5.718  10.010 -0.2016  0.7807  0.4226
 5057SOL    HW225486   2.367   5.803   9.943 -0.0899 -0.5192 -1.1160
 5058SOL     OW25487   8.507   8.254   8.545 -0.8525 -0.4680  0.1001
 5058SOL    HW125488   8.495   8.233   8.453  0.3286 -0.9652  0.0396
 5058SOL    HW225489   8.509   8.349   8.549  1.4346 -0.4253 -0.7477
 5059SOL     OW25490  11.871   8.541   1.916 -0.3166  0.1179 -0.4863
 5059SOL    HW125491  11.788   8.556   1.872  0.1056  2.1303 -0.7031
 5059SOL    HW225492  11.889   8.624   1.962  0.6144 -0.9517  1.1764
 5060SOL     OW25493  11.396   6.533   7.479 -0.3180  0.7476 -0.5524
 5060SOL    HW125494  11.312   6.539   7.434  1.0789  2.7948 -3.1622
 5060SOL    HW225495  11.461   6.540   7.409  2.0871 -0.8936  1.3392
 5061SOL     OW25496   5.277   8.907   5.575 -0.1214 -0.3277  0.1089
 5061SOL    HW125497   5.367   8.939   5.582  0.2489 -0.9430 -1.3375
 5061SOL    HW225498   5.280   8.845   5.502 -1.4442 -1.3686  0.8995
 5062SOL     OW25499   8.814   1.087  10.263  0.0727 -0.3442  0.4268
 5062SOL    HW125500   8.882   1.052  10.204  1.0630 -1.7310  2.2988
 5062SOL    HW225501   8.848   1.174  10.288  0.2520 -0.2698 -0.0466
 5063SOL     OW25502  12.329  10.170   8.302  0.1457 -0.1412 -0.5358
 5063SOL    HW125503  12.402  10.199   8.357 -0.1195  0.5490 -0.5384
 5063SOL    HW225504  12.366  10.100   8.248  0.7883  0.1433 -0.4758
 5064SOL     OW25505   8.346  12.487   4.269 -0.7064  0.0281  0.5974
 5064SOL    HW125506   8.327  12.448   4.355  1.6247  1.4698  1.8880
 5064SOL    HW225507   8.329  12.416   4.207 -0.3612 -1.8075  2.4601
 5065SOL     OW25508   7.886   0.253   1.534  0.0224 -0.2225  0.5908
 5065SOL    HW125509   7.871   0.269   1.627  1.3531  0.2870  0.7336
 5065SOL    HW225510   7.925   0.166   1.530 -0.5596 -0.4846  0.4430
 5066SOL     OW25511  10.325   9.343   3.773 -0.3360 -0.8766 -0.2128
 5066SOL    HW125512  10.302   9.350   3.680 -1.9391 -1.1569  0.1267
 5066SOL    HW225513  10.256   9.288   3.810 -0.0074 -0.3447  1.2396
 5067SOL     OW25514   6.210   9.818   0.368 -0.4240  0.2832 -0.1718
 5067SOL    HW125515   6.118   9.793   0.377  0.0257 -1.6790 -0.6407
 5067SOL    HW225516   6.245   9.814   0.456 -1.3570  3.7650  0.4983
 5068SOL     OW25517   5.710   7.576   2.803 -0.0788 -0.4970  0.4429
 5068SOL    HW125518   5.640   7.640   2.792  0.6069 -0.0060 -1.3373
 5068SOL    HW225519   5.755   7.603   2.883  1.7773  2.9065 -1.5455
 5069SOL     OW25520   2.785   6.639   4.700 -0.0492  0.0322  0.0823
 5069SOL    HW125521   2.873   6.604   4.691 -0.7007 -1.5184 -0.6508
 5069SOL    HW225522   2.744   6.584   4.766 -0.2515  1.2472  1.0114
 5070SOL     OW25523   6.783   8.171   6.071 -0.4920  0.8289 -0.2880
 5070SOL    HW125524   6.779   8.173   6.167 -1.4984 -0.0032 -0.2900
 5070SOL    HW225525   6.789   8.263   6.045 -0.0421  1.0528  0.5798
 5071SOL     OW25526  12.486   7.447   6.263  0.3474 -0.2119 -0.2809
 5071SOL    HW125527  12.487   7.366   6.314  0.7350 -0.9206 -1.3847
 5071SOL    HW225528  12.435   7.425   6.184  0.4559  0.6205 -0.5873
 5072SOL     OW25529   5.088   8.271   7.725 -0.1413 -0.0640  0.2690
 5072SOL    HW125530   5.116   8.272   7.633  1.5578  1.0674  0.7475
 5072SOL    HW225531   5.160   8.228   7.771  0.4309  1.9758  1.4180
 5073SOL     OW25532   4.984   3.472  12.856  0.2841 -0.2862 -0.4765
 5073SOL    HW125533   5.008   3.381  12.840 -0.4966 -0.7058  0.5866
 5073SOL    HW225534   4.893   3.478  12.829 -0.0597 -0.1776  0.6345
 5074SOL     OW25535   4.171   8.031   5.722  0.0199 -0.1001  0.0483
 5074SOL    HW125536   4.142   8.083   5.797 -1.6270 -2.5399  1.2363
 5074SOL    HW225537   4.166   7.940   5.752  1.1567 -1.0854 -2.4384
 5075SOL     OW25538  12.020   8.400   0.528  0.1201 -0.3798 -0.1181
 5075SOL    HW125539  11.960   8.337   0.568  0.9188 -0.4482  1.0159
 5075SOL    HW225540  12.101   8.351   0.515 -0.2202 -0.4713 -2.2415
 5076SOL     OW25541  11.590  12.675   3.457  0.2519  0.7054  0.3453
 5076SOL    HW125542  11.635  12.652   3.539 -1.6068 -1.7907  0.7979
 5076SOL    HW225543  11.557  12.763   3.472  1.0287  0.7884  1.7700
 5077SOL     OW25544   4.792   9.790   8.656  0.2384  0.1990  0.4695
 5077SOL    HW125545   4.760   9.744   8.578 -1.0081  0.3507  0.8649
 5077SOL    HW225546   4.809   9.879   8.625  2.2742 -0.3795 -0.2038
 5078SOL     OW25547   8.761  12.586   1.154 -0.3649 -0.4777 -0.1678
 5078SOL    HW125548   8.726  12.550   1.073 -0.6607 -0.5248 -0.0209
 5078SOL    HW225549   8.722  12.673   1.162 -0.2682 -0.4376 -0.1196
 5079SOL     OW25550  12.388   6.566   6.889  0.1191 -0.1792 -0.1199
 5079SOL    HW125551  12.317   6.571   6.826  0.3750 -1.2307 -0.5143
 5079SOL    HW225552  12.458   6.521   6.843  0.1316 -1.4367  1.0574
 5080SOL     OW25553   0.075  11.533   6.663  0.0760 -0.3292 -0.1918
 5080SOL    HW125554   0.110  11.543   6.751  1.1729  1.5730 -0.8064
 5080SOL    HW225555   0.140  11.480   6.617  0.4232  0.2352 -0.3577
 5081SOL     OW25556   1.794   5.071  12.778 -0.1514 -0.1087  0.0230
 5081SOL    HW125557   1.861   5.014  12.740 -0.3711 -1.0930  1.0523
 5081SOL    HW225558   1.749   5.109  12.703  1.6130  0.6596 -0.6900
 5082SOL     OW25559   4.009   2.889   2.267 -0.1019 -0.0815  0.2006
 5082SOL    HW125560   4.102   2.881   2.285  0.0476  2.0295  0.6637
 5082SOL    HW225561   4.001   2.969   2.215 -1.8133  0.9492  1.8918
 5083SOL     OW25562  10.692   4.747   9.970 -0.2245 -0.0872  0.6061
 5083SOL    HW125563  10.738   4.779   9.892  2.1513 -0.0921  1.8887
 5083SOL    HW225564  10.741   4.785  10.043 -2.7539  0.4272  2.1324
 5084SOL     OW25565  11.942   1.957   9.650  0.1263 -0.0009  1.1235
 5084SOL    HW125566  11.975   1.961   9.740 -2.3193 -0.9254  2.1550
 5084SOL    HW225567  12.020   1.944   9.597  1.4207 -3.2489  3.4693
 5085SOL     OW25568   5.681   8.750   0.117 -0.0091 -0.0040  0.0781
 5085SOL    HW125569   5.722   8.710   0.040  0.0196 -0.3280  0.2610
 5085SOL    HW225570   5.634   8.826   0.083  2.4177  1.6232  0.0942
 5086SOL     OW25571   3.802   9.283   8.177  0.2668 -0.1997  0.5526
 5086SOL    HW125572   3.812   9.336   8.098 -1.1063  0.4659  0.7916
 5086SOL    HW225573   3.732   9.221   8.155  0.7015 -0.8024  0.8510
 5087SOL     OW25574   8.850   8.501   9.074  0.0255  0.0802  0.5648
 5087SOL    HW125575   8.906   8.424   9.063 -0.9490 -0.7686  1.3526
 5087SOL    HW225576   8.853   8.520   9.167  0.0736  0.8745  0.4116
 5088SOL     OW25577   8.567   1.025   7.130 -0.6435  0.4158  0.4759
 5088SOL    HW125578   8.486   1.023   7.081 -0.4865 -0.5304  0.2289
 5088SOL    HW225579   8.567   0.944   7.181  1.2987 -0.9393 -1.4831
 5089SOL     OW25580  10.722   6.955  12.799  0.4609 -0.0251 -0.0942
 5089SOL    HW125581  10.789   7.023  12.796 -0.5064  0.9793 -0.0162
 5089SOL    HW225582  10.703   6.936  12.707 -0.1966  0.8070 -0.1504
 5090SOL     OW25583   8.949  11.335   1.675 -0.0932  0.1924 -1.0748
 5090SOL    HW125584   8.906  11.416   1.700  1.5111  1.1511 -1.3163
 5090SOL    HW225585   8.900  11.304   1.599 -0.4087  1.2055 -1.2900
 5091SOL     OW25586   5.933   0.255   3.280  0.1214 -0.4052  0.0719
 5091SOL    HW125587   5.920   0.297   3.195  0.5824 -2.4442 -1.0422
 5091SOL    HW225588   5.987   0.178   3.262  1.4047 -0.1614  2.4211
 5092SOL     OW25589  11.641   7.971   5.561 -0.1123  0.0426 -0.1545
 5092SOL    HW125590  11.703   8.007   5.624  1.0322 -2.4015  0.2339
 5092SOL    HW225591  11.674   7.999   5.476 -0.1361  1.1486  0.1911
 5093SOL     OW25592   7.494   6.781   7.822  0.3164 -0.1505 -0.0940
 5093SOL    HW125593   7.483   6.704   7.766  1.1211 -0.5515  0.2821
 5093SOL    HW225594   7.532   6.746   7.902 -1.4456  0.3068  1.0046
 5094SOL     OW25595   2.987   0.125   3.032  0.0480  0.3958  0.0866
 5094SOL    HW125596   2.934   0.130   2.953 -2.4378 -0.0527  1.6286
 5094SOL    HW225597   3.050   0.055   3.014 -0.1148  0.6455 -1.6495
 5095SOL     OW25598   7.059  11.037  10.468  0.1901  0.3277 -0.2688
 5095SOL    HW125599   7.024  10.967  10.413  1.2067  0.2549 -0.8328
 5095SOL    HW225600   7.146  11.008  10.492  0.2922  1.0076  0.2245
 5096SOL     OW25601   7.515   3.224   2.436 -0.1496 -0.3556  0.4277
 5096SOL    HW125602   7.552   3.138   2.416  2.3772  0.8410 -0.3924
 5096SOL    HW225603   7.536   3.278   2.360 -0.6403  1.3080  1.4263
 5097SOL     OW25604   1.555   9.413   5.276  0.2581  0.0111 -0.0881
 5097SOL    HW125605   1.504   9.332   5.268 -3.0039  1.9783 -0.6367
 5097SOL    HW225606   1.575   9.419   5.369  0.7601 -1.5122 -0.0730
 5098SOL     OW25607  11.586   9.035   6.825  0.1929  0.3474  0.3020
 5098SOL    HW125608  11.522   8.977   6.867 -0.9531  3.3640  3.1265
 5098SOL    HW225609  11.664   9.028   6.879  0.3547  0.7309  0.1228
 5099SOL     OW25610   6.103   2.967   8.715  0.6828  0.3875 -0.0480
 5099SOL    HW125611   6.105   3.054   8.674  0.6148 -0.1515 -1.2079
 5099SOL    HW225612   6.180   2.922   8.681  0.1653 -0.3637 -0.2463
 5100SOL     OW25613   7.494   7.192   2.778  0.3358  0.4430  0.1103
 5100SOL    HW125614   7.519   7.285   2.783  0.7209  0.3715 -0.3863
 5100SOL    HW225615   7.433   7.189   2.704 -2.4632  0.8914  2.2526
 5101SOL     OW25616  10.711   2.394   5.093 -0.8311 -0.0770  0.8738
 5101SOL    HW125617  10.676   2.420   5.007  1.0024  0.0535  0.1283
 5101SOL    HW225618  10.736   2.476   5.135  0.4391 -0.2826  0.5456
 5102SOL     OW25619   1.980   1.176   0.558 -0.5255  0.3456  0.0206
 5102SOL    HW125620   2.070   1.202   0.537 -0.6197 -0.1914 -1.1260
 5102SOL    HW225621   1.973   1.189   0.652  0.9982 -0.3027  0.2604
 5103SOL     OW25622   9.505   1.511   6.940  0.0134 -0.4863 -0.2414
 5103SOL    HW125623   9.439   1.461   6.987 -0.7685  0.4892 -0.2509
 5103SOL    HW225624   9.455   1.562   6.875  0.5898  1.2271  0.5900
 5104SOL     OW25625  12.404  12.874   0.387 -0.4430  0.2263  0.1993
 5104SOL    HW125626  12.338  12.805   0.380 -0.3638  0.2477 -0.8312
 5104SOL    HW225627  12.418  12.904   0.297  3.4034 -2.0397 -0.1498
 5105SOL     OW25628  12.727   5.045   1.312 -0.5570 -0.3851 -0.2913
 5105SOL    HW125629  12.777   5.063   1.232  0.1865  2.6037  0.7080
 5105SOL    HW225630  12.792   5.050   1.382 -2.0204  3.1342  1.0097
 5106SOL     OW25631   6.305   3.136   4.307  0.4297  0.1751  0.1216
 5106SOL    HW125632   6.287   3.163   4.397  0.5871 -2.3264  0.9816
 5106SOL    HW225633   6.383   3.186   4.282  0.7677  0.4516  1.6207
 5107SOL     OW25634  10.971   2.266   5.062  0.7368 -0.0141 -0.1273
 5107SOL    HW125635  10.897   2.307   5.106 -0.7416 -2.7369  0.0831
 5107SOL    HW225636  10.978   2.312   4.978 -2.5682 -0.9623 -1.0607
 5108SOL     OW25637  11.450   8.733   8.032  0.3530  0.7270 -0.2136
 5108SOL    HW125638  11.526   8.711   8.085 -1.0528  0.5102  1.8322
 5108SOL    HW225639  11.411   8.809   8.076 -0.9083  0.5131 -0.9035
 5109SOL     OW25640   2.791   6.284   6.321  0.0838 -0.4294  0.4433
 5109SOL    HW125641   2.696   6.276   6.337 -0.2182 -1.4296 -1.6160
 5109SOL    HW225642   2.797   6.345   6.248  1.0969  0.0330  0.8991
 5110SOL     OW25643   4.774   3.306   0.645 -0.0357  0.5935 -1.0750
 5110SOL    HW125644   4.754   3.259   0.564  0.4393 -2.5496  0.5112
 5110SOL    HW225645   4.869   3.305   0.650 -0.0815  0.1045 -0.1359
 5111SOL     OW25646   3.565   1.616   1.344 -0.5020 -0.0628 -0.1520
 5111SOL    HW125647   3.575   1.705   1.376 -1.4663 -0.4008  1.1837
 5111SOL    HW225648   3.511   1.573   1.410  2.4740 -2.5265  0.8965
 5112SOL     OW25649  12.161   1.826   2.426  0.3976 -0.7298 -0.0409
 5112SOL    HW125650  12.098   1.840   2.356  0.6422 -0.4369 -0.2075
 5112SOL    HW225651  12.246   1.828   2.382  0.5697 -0.2336  0.3043
 5113SOL     OW25652  10.362   7.518  10.915 -0.6472  0.1439  0.0361
 5113SOL    HW125653  10.424   7.554  10.979 -2.7550  2.9411  0.6947
 5113SOL    HW225654  10.303   7.464  10.968 -2.2493  2.2702  0.5309
 5114SOL     OW25655  12.699   2.707  10.802  1.1078  0.3512 -0.2525
 5114SOL    HW125656  12.613   2.720  10.844  0.2323 -1.8365 -1.1839
 5114SOL    HW225657  12.713   2.786  10.751 -0.7699  0.4582 -0.6943
 5115SOL     OW25658   8.743   7.725   9.809  0.0422 -0.5127 -1.0008
 5115SOL    HW125659   8.674   7.790   9.815 -1.0123 -1.6395 -0.4860
 5115SOL    HW225660   8.824   7.776   9.805 -0.8060  0.8358 -1.6955
 5116SOL     OW25661  10.690   3.874   1.908  0.3319  0.6101  0.3596
 5116SOL    HW125662  10.696   3.781   1.884 -0.8335  0.5239  0.3274
 5116SOL    HW225663  10.656   3.872   1.998  1.8230  0.9875  0.9553
 5117SOL     OW25664   4.729   6.614   7.836  0.1450 -0.0135  0.3741
 5117SOL    HW125665   4.798   6.591   7.898  0.2978 -0.7647 -0.0670
 5117SOL    HW225666   4.657   6.646   7.892  0.2330 -0.7898  0.9547
 5118SOL     OW25667  10.499  12.657   8.641 -0.0466 -0.0181  0.3928
 5118SOL    HW125668  10.522  12.740   8.683 -1.6366  1.2747 -1.1207
 5118SOL    HW225669  10.535  12.664   8.552  0.1314 -1.1287  0.3609
 5119SOL     OW25670   0.481  12.058   7.458  0.8191 -0.8522  0.3563
 5119SOL    HW125671   0.506  12.135   7.509  0.0508 -1.2040  1.3018
 5119SOL    HW225672   0.515  11.984   7.508  0.0883 -1.2014  0.3579
 5120SOL     OW25673  10.217   0.219   9.609 -0.5606 -0.5015 -0.0202
 5120SOL    HW125674  10.298   0.270   9.605 -1.0227  0.1793 -2.6484
 5120SOL    HW225675  10.246   0.129   9.622  0.5261 -0.0904  0.5377
 5121SOL     OW25676  10.146   9.923   3.870  0.3215 -0.0779  0.5916
 5121SOL    HW125677  10.221   9.863   3.871  0.5623  0.1909  2.4310
 5121SOL    HW225678  10.184  10.010   3.871 -0.0419  0.1198 -0.6985
 5122SOL     OW25679   9.621   8.684   4.143 -0.2787  0.4262  0.1066
 5122SOL    HW125680   9.594   8.647   4.227 -0.7684 -2.0401 -1.0622
 5122SOL    HW225681   9.717   8.687   4.148 -0.2880  0.0155  0.6575
 5123SOL     OW25682  11.061   5.213   3.346 -0.0086  0.1494 -0.4001
 5123SOL    HW125683  11.138   5.270   3.344  0.7317 -0.8091  0.0860
 5123SOL    HW225684  10.994   5.265   3.390  0.3432  1.0053 -0.8508
 5124SOL     OW25685   9.304   1.971   7.386 -0.5073 -0.0353  0.1865
 5124SOL    HW125686   9.263   2.031   7.325  0.5929  0.2082 -0.3410
 5124SOL    HW225687   9.232   1.918   7.420 -1.1688 -0.0195 -1.1455
 5125SOL     OW25688   3.051   9.458   8.050  0.3721  0.7472  0.3697
 5125SOL    HW125689   3.085   9.527   8.106 -2.3031  0.6022  2.3806
 5125SOL    HW225690   2.965   9.491   8.022  0.5500 -0.3108 -1.5590
 5126SOL     OW25691   8.040   1.251  11.909  0.6307  0.1764  0.0852
 5126SOL    HW125692   8.124   1.292  11.932  0.8665 -0.8364  1.1416
 5126SOL    HW225693   8.062   1.191  11.839  0.3718  1.4582 -1.1330
 5127SOL     OW25694   2.713   8.142   8.683 -0.2186  0.3221 -0.0104
 5127SOL    HW125695   2.714   8.048   8.701 -2.8133  0.2493  0.1854
 5127SOL    HW225696   2.797   8.160   8.641  0.3199 -2.0889 -0.0806
 5128SOL     OW25697   9.175   4.066   8.565 -0.2853  0.2171  0.5636
 5128SOL    HW125698   9.239   4.082   8.635 -1.3825 -0.7268  1.8263
 5128SOL    HW225699   9.140   3.979   8.584 -1.0823  0.2193 -0.8023
 5129SOL     OW25700   0.810   5.387   9.634 -0.4231 -0.0885 -0.4021
 5129SOL    HW125701   0.881   5.393   9.570 -0.2228 -0.6566 -0.2367
 5129SOL    HW225702   0.845   5.431   9.712 -0.6683  0.6064 -0.6683
 5130SOL     OW25703   9.174  12.330  12.703  0.0965  0.1553  0.0870
 5130SOL    HW125704   9.081  12.338  12.681  0.5168 -0.5556 -2.2591
 5130SOL    HW225705   9.205  12.420  12.712 -0.7085  0.4059  0.5010
 5131SOL     OW25706  12.166  12.786   2.872  0.3622  0.8264  0.1499
 5131SOL    HW125707  12.135  12.872   2.845  0.2623  0.7486  0.0151
 5131SOL    HW225708  12.243  12.804   2.925 -0.1083  1.0487  0.7825
 5132SOL     OW25709   7.175  11.702   7.180 -0.4605 -0.1337 -0.3348
 5132SOL    HW125710   7.160  11.642   7.108 -2.3531  0.1343 -0.2096
 5132SOL    HW225711   7.094  11.700   7.231  1.1913 -1.2069  2.4768
 5133SOL     OW25712   6.742   8.236   6.336  0.1407 -0.2184  0.2943
 5133SOL    HW125713   6.666   8.204   6.288  0.2245  0.1695 -0.1025
 5133SOL    HW225714   6.755   8.172   6.405 -1.4883  0.4970  1.3423
 5134SOL     OW25715   2.407   8.210   2.495 -0.3641  0.0053 -0.1040
 5134SOL    HW125716   2.369   8.172   2.415 -1.0328  1.8211 -0.7130
 5134SOL    HW225717   2.500   8.187   2.490  0.2063  2.2806 -2.8895
 5135SOL     OW25718   6.841   1.091   9.253 -0.0400  0.2539  0.1335
 5135SOL    HW125719   6.883   1.128   9.176 -0.6141 -0.9017 -0.7777
 5135SOL    HW225720   6.902   1.108   9.324  0.3962  1.5581 -0.5220
 5136SOL     OW25721   2.192   6.307   2.909 -0.0254  0.3218 -0.0926
 5136SOL    HW125722   2.102   6.284   2.932  0.4203 -0.2635  1.1878
 5136SOL    HW225723   2.229   6.342   2.990  0.8681  0.6436 -0.6275
 5137SOL     OW25724   6.870   1.128   3.420 -0.0137 -0.3436  0.2070
 5137SOL    HW125725   6.795   1.174   3.382 -1.4215 -2.2158  0.6061
 5137SOL    HW225726   6.931   1.119   3.347  0.4566  2.3105  0.1668
 5138SOL     OW25727   4.551   8.729   2.666  0.4395 -0.2665  0.4741
 5138SOL    HW125728   4.527   8.644   2.700  0.9311 -0.8206 -0.5038
 5138SOL    HW225729   4.480   8.787   2.692  0.3208 -0.8768  1.5275
 5139SOL     OW25730   0.763  11.808   3.380 -0.3195  0.2496 -0.6412
 5139SOL    HW125731   0.849  11.840   3.353 -0.5271  1.2617 -0.1528
 5139SOL    HW225732   0.772  11.796   3.475 -0.8857  0.9474 -0.4922
 5140SOL     OW25733   0.493  12.507   4.902 -0.4426 -0.1368  0.0177
 5140SOL    HW125734   0.463  12.497   4.993 -1.7140  0.1049 -0.3634
 5140SOL    HW225735   0.484  12.600   4.884 -2.5741 -0.4951 -1.1182
 5141SOL     OW25736   3.250   3.451   6.611  0.2907  0.1885 -0.0555
 5141SOL    HW125737   3.185   3.493   6.667  1.6241  0.7504  1.1336
 5141SOL    HW225738   3.199   3.398   6.549 -1.2923  1.1513  0.3960
 5142SOL     OW25739  11.474   5.499  12.367 -0.0302  0.6933 -0.0307
 5142SOL    HW125740  11.552   5.492  12.423 -0.3908  0.9017  0.5165
 5142SOL    HW225741  11.451   5.592  12.371  0.3697  0.8491 -1.1374
 5143SOL     OW25742  12.269   7.931   4.919 -0.4435  0.3628 -0.2981
 5143SOL    HW125743  12.269   7.910   5.012 -0.5974  1.5505 -0.0135
 5143SOL    HW225744  12.356   7.968   4.903  0.0920 -1.1126 -0.9482
 5144SOL     OW25745   5.285  10.365   7.582 -0.6204  0.1972  0.0357
 5144SOL    HW125746   5.312  10.294   7.640 -2.0658 -0.4910 -0.0966
 5144SOL    HW225747   5.363  10.420   7.573 -0.1190 -0.1357  1.9420
 5145SOL     OW25748   7.537  11.173   2.682  0.3076 -0.5029 -0.0665
 5145SOL    HW125749   7.456  11.190   2.731  0.4818 -0.1161  0.0969
 5145SOL    HW225750   7.542  11.078   2.676 -0.0242 -0.5385  0.1524
 5146SOL     OW25751   7.142   7.444   2.194 -0.2426 -0.1861 -0.4637
 5146SOL    HW125752   7.088   7.373   2.230 -0.4279  0.5542  0.7440
 5146SOL    HW225753   7.089   7.481   2.123 -0.2740 -1.0379 -0.8976
 5147SOL     OW25754   7.831  10.304  11.700 -0.0637  0.4033  0.0055
 5147SOL    HW125755   7.756  10.358  11.677  0.4589  1.0577 -0.1762
 5147SOL    HW225756   7.907  10.358  11.680  0.4460  0.1212  1.1197
 5148SOL     OW25757   2.263   7.102   9.940  0.2981 -0.2382  0.1380
 5148SOL    HW125758   2.345   7.053   9.942  0.6240  0.2813 -0.2365
 5148SOL    HW225759   2.265   7.156  10.019  0.1001 -0.5559  0.3661
 5149SOL     OW25760   3.842   8.068   1.838 -0.0118 -0.1255 -0.6008
 5149SOL    HW125761   3.904   8.122   1.788  0.4890 -0.2570 -0.1364
 5149SOL    HW225762   3.830   7.990   1.785 -1.5637  0.8694 -1.7945
 5150SOL     OW25763  12.685   6.680   8.905  1.1644  0.9095  0.0878
 5150SOL    HW125764  12.675   6.763   8.951 -1.4641  1.1951 -0.8166
 5150SOL    HW225765  12.608   6.629   8.931  2.1671 -0.8429 -0.2247
 5151SOL     OW25766   7.406   9.820  11.479 -0.1978  0.3625  0.1593
 5151SOL    HW125767   7.364   9.855  11.557 -0.8320  0.3169 -0.1529
 5151SOL    HW225768   7.490   9.786  11.509 -0.4524  0.3161  0.8225
 5152SOL     OW25769   2.353   9.291   9.878 -0.0062  0.6900 -0.1611
 5152SOL    HW125770   2.320   9.348   9.809  1.0552  3.3140  1.3555
 5152SOL    HW225771   2.443   9.322   9.893  0.4738 -1.1376  1.0352
 5153SOL     OW25772   1.786   3.038   0.679  0.4109 -0.4850  0.1447
 5153SOL    HW125773   1.735   3.039   0.760  0.3935  1.4264  0.1428
 5153SOL    HW225774   1.758   3.117   0.632  1.2001 -0.9967 -1.2421
 5154SOL     OW25775  11.584   5.582   4.842 -0.3819 -0.3429  0.1189
 5154SOL    HW125776  11.624   5.501   4.874  1.4966  0.8158  0.9116
 5154SOL    HW225777  11.537   5.617   4.917  1.2751  0.7241  0.7185
 5155SOL     OW25778   4.689   9.240  12.978 -0.3192 -0.4147  0.3966
 5155SOL    HW125779   4.705   9.308  13.043 -0.9088  0.1158  0.0043
 5155SOL    HW225780   4.764   9.181  12.985  0.6888  0.7913  0.0965
 5156SOL     OW25781   1.695   1.174   0.052  0.0379  0.0838 -0.4175
 5156SOL    HW125782   1.722   1.174  -0.040 -0.4323 -0.4603 -0.5610
 5156SOL    HW225783   1.731   1.093   0.088 -0.8533 -0.3396 -0.4544
 5157SOL     OW25784   2.132   8.725   6.036  0.3533  0.1123  0.1711
 5157SOL    HW125785   2.042   8.745   6.009 -0.0075 -0.0647  1.1914
 5157SOL    HW225786   2.149   8.786   6.108  1.0732  0.1611 -0.0278
 5158SOL     OW25787   6.293   4.669   6.903  0.1044  0.1831 -0.1619
 5158SOL    HW125788   6.276   4.576   6.921 -0.9369  0.6116  1.2852
 5158SOL    HW225789   6.221   4.695   6.846 -1.2767  0.7437  1.7432
 5159SOL     OW25790   7.129   9.360   8.191  0.1871 -0.2749 -0.2373
 5159SOL    HW125791   7.153   9.443   8.233  0.2452 -1.6791  2.7875
 5159SOL    HW225792   7.151   9.372   8.099  2.6328  2.1635  0.5426
 5160SOL     OW25793   7.494  11.351   7.676 -0.2236  0.3619  0.3002
 5160SOL    HW125794   7.586  11.340   7.650 -0.7469 -0.2455 -1.3876
 5160SOL    HW225795   7.490  11.312   7.763  1.1168  0.4129  0.4153
 5161SOL     OW25796   3.978   0.276   1.843  0.0958 -0.3151 -0.1883
 5161SOL    HW125797   3.900   0.236   1.806  0.9550 -1.5905 -0.7152
 5161SOL    HW225798   3.988   0.358   1.796 -0.4025 -0.6020 -0.8052
 5162SOL     OW25799   7.713   0.031   3.118  0.0888 -0.0108  0.3497
 5162SOL    HW125800   7.782   0.092   3.094  1.2348 -0.8822  1.3069
 5162SOL    HW225801   7.661   0.020   3.038  1.0138  0.7034 -0.3719
 5163SOL     OW25802   9.292   8.871   8.950  0.3134 -0.0216 -0.3430
 5163SOL    HW125803   9.202   8.840   8.960 -0.4675  2.5981  1.9671
 5163SOL    HW225804   9.343   8.818   9.011  0.1307 -0.6718 -0.7456
 5164SOL     OW25805   2.191   6.753   8.274 -0.1408 -0.2176 -0.1987
 5164SOL    HW125806   2.157   6.805   8.201  0.9213  1.7862  0.6229
 5164SOL    HW225807   2.142   6.785   8.350  1.0741  0.1927  0.4435
 5165SOL     OW25808   0.166   3.947   7.596 -0.4958 -0.0594  0.0289
 5165SOL    HW125809   0.072   3.958   7.583 -0.7086 -1.3933  0.3049
 5165SOL    HW225810   0.201   4.037   7.593 -1.9426  0.5917  1.3591
 5166SOL     OW25811  11.959  10.242   5.359 -0.7820 -0.2510  0.1962
 5166SOL    HW125812  11.865  10.243   5.343 -1.2802  3.2797  2.3117
 5166SOL    HW225813  11.967  10.246   5.455  1.4528  1.0017  0.0267
 5167SOL     OW25814  12.734   3.644   9.281  0.0785  0.4714  0.3016
 5167SOL    HW125815  12.726   3.625   9.375 -2.0569 -0.6400 -0.0512
 5167SOL    HW225816  12.668   3.711   9.264 -1.0496 -0.8470 -0.7557
 5168SOL     OW25817   8.211   8.120   1.868  0.2132 -0.6069  0.8471
 5168SOL    HW125818   8.176   8.204   1.840  0.7059 -0.5942  0.2333
 5168SOL    HW225819   8.143   8.057   1.846  0.1741 -0.4664  0.5639
 5169SOL     OW25820   6.644   4.660  12.276 -0.2186  0.1512 -0.1305
 5169SOL    HW125821   6.678   4.733  12.328 -0.0640 -0.4178  0.5636
 5169SOL    HW225822   6.662   4.582  12.328  1.6549 -0.6600 -1.8394
 5170SOL     OW25823  10.083   1.658  12.917 -0.2367 -0.0520  0.9774
 5170SOL    HW125824  10.040   1.572  12.912 -0.8869  0.1562  2.4066
 5170SOL    HW225825  10.170   1.638  12.951  1.8275 -0.7371 -3.9754
 5171SOL     OW25826   1.125   4.327   0.587  0.4256  0.4108  0.1506
 5171SOL    HW125827   1.096   4.406   0.543 -0.4888  0.7700  1.3235
 5171SOL    HW225828   1.089   4.335   0.676 -0.4958 -1.7313  0.0358
 5172SOL     OW25829   1.553  12.272  11.255  0.0751 -0.7663 -0.1269
 5172SOL    HW125830   1.533  12.362  11.281 -1.0825 -1.3243  1.0801
 5172SOL    HW225831   1.648  12.264  11.266  0.1541  0.2239  0.0078
 5173SOL     OW25832   3.923  10.005  12.536  0.0596 -0.5415 -0.5037
 5173SOL    HW125833   3.924  10.031  12.628  0.9882 -0.7102 -0.4522
 5173SOL    HW225834   3.906  10.085  12.488 -0.1600 -0.4027 -0.1956
 5174SOL     OW25835   6.365   3.447   7.344 -0.3247 -0.2962 -0.1153
 5174SOL    HW125836   6.363   3.389   7.420  1.0830  1.7055  1.5558
 5174SOL    HW225837   6.458   3.460   7.326 -0.6250 -0.0834 -1.7181
 5175SOL     OW25838   6.300   6.870   6.298  0.5460 -0.1529 -0.2240
 5175SOL    HW125839   6.257   6.792   6.262  1.1755 -0.8493  0.4986
 5175SOL    HW225840   6.231   6.915   6.346  0.0809 -0.0489 -0.9800
 5176SOL     OW25841   2.077  11.611   1.122 -0.1057 -0.1943  0.4725
 5176SOL    HW125842   2.000  11.569   1.159  0.6016 -1.4567  0.5991
 5176SOL    HW225843   2.044  11.659   1.046 -0.7352 -2.6660 -0.9371
 5177SOL     OW25844   5.082  11.493   9.147  0.2745 -0.4838  0.1105
 5177SOL    HW125845   5.111  11.419   9.200 -1.2846 -0.8111  0.5486
 5177SOL    HW225846   5.087  11.568   9.207 -1.4593 -0.8480  0.7624
 5178SOL     OW25847   8.752  10.268  12.427  0.5255 -0.0480  0.4872
 5178SOL    HW125848   8.684  10.293  12.490  0.6291  0.2352  0.4889
 5178SOL    HW225849   8.704  10.231  12.354  0.2822  1.1599  0.0099
 5179SOL     OW25850  11.391   8.201   8.813 -0.4832 -0.2394 -0.2883
 5179SOL    HW125851  11.457   8.143   8.775 -0.6960 -0.3245 -0.5273
 5179SOL    HW225852  11.353   8.150   8.884  1.6757  0.8108  1.7642
 5180SOL     OW25853   1.618   8.247  12.028 -0.1833  0.4020  0.0153
 5180SOL    HW125854   1.653   8.331  11.996 -2.2188  1.9392  1.5465
 5180SOL    HW225855   1.668   8.229  12.107 -1.5155  1.6545  1.1975
 5181SOL     OW25856   1.392   1.252  10.499 -0.4444  0.0439  0.0182
 5181SOL    HW125857   1.310   1.294  10.474 -0.1491  0.9574  0.5403
 5181SOL    HW225858   1.459   1.292  10.444 -0.4345 -1.2707 -0.9775
 5182SOL     OW25859   9.872  12.126   8.437  0.1759  0.4009  0.2166
 5182SOL    HW125860   9.865  12.110   8.531  0.3451  0.4510  0.2380
 5182SOL    HW225861   9.864  12.221   8.428  0.3193  0.4116  0.1968
 5183SOL     OW25862   8.732  12.236  11.681  0.7131  0.2907 -0.2896
 5183SOL    HW125863   8.785  12.199  11.752  0.6660 -1.1444 -0.9520
 5183SOL    HW225864   8.789  12.300  11.640  0.9691  0.6809  0.6437
 5184SOL     OW25865   2.598  10.436   2.570 -0.2373  0.3537 -0.0947
 5184SOL    HW125866   2.535  10.415   2.501 -0.0683  2.4295 -0.9488
 5184SOL    HW225867   2.571  10.521   2.603  1.3085  0.6734  0.4587
 5185SOL     OW25868   3.409   2.993   4.010 -0.0473  0.0861  0.4791
 5185SOL    HW125869   3.324   3.011   4.049 -0.2995  0.2949 -0.1518
 5185SOL    HW225870   3.452   3.078   4.003  0.6719 -0.1437  1.8003
 5186SOL     OW25871  11.098   9.765   9.712 -0.1844 -1.0502  0.0568
 5186SOL    HW125872  11.019   9.813   9.688 -0.5724 -0.9963  1.3674
 5186SOL    HW225873  11.067   9.685   9.755  0.4526 -0.8390  0.9499
 5187SOL     OW25874   1.350   3.882   4.390  0.4756 -0.2917  0.0158
 5187SOL    HW125875   1.261   3.896   4.359  0.4842 -1.5810 -0.6739
 5187SOL    HW225876   1.361   3.943   4.462 -0.6383  0.5512 -0.5072
 5188SOL     OW25877   6.317  11.244   9.750 -0.0419  0.3681 -0.2440
 5188SOL    HW125878   6.315  11.311   9.819 -0.3192  1.5293 -1.3431
 5188SOL    HW225879   6.376  11.281   9.684  1.1997 -1.2708 -0.1276
 5189SOL     OW25880   4.498   5.361   2.821 -0.5928 -0.2517 -0.0282
 5189SOL    HW125881   4.413   5.383   2.783 -0.8808  1.2402  1.3426
 5189SOL    HW225882   4.507   5.421   2.895  1.6835 -0.3232 -0.1692
 5190SOL     OW25883   9.251  11.621   2.663  0.1410  0.3257 -0.3573
 5190SOL    HW125884   9.203  11.694   2.624  1.2348  1.5347  0.4867
 5190SOL    HW225885   9.255  11.555   2.593 -1.9210  0.5285 -0.7347
 5191SOL     OW25886   9.954   5.155   1.959  0.5131  0.2475 -0.2425
 5191SOL    HW125887   9.989   5.102   1.887  1.6802 -0.5978  0.9100
 5191SOL    HW225888  10.018   5.226   1.969  0.8863 -0.1983  0.5960
 5192SOL     OW25889   5.576   2.828   4.327 -0.4368  0.6669  0.6563
 5192SOL    HW125890   5.585   2.735   4.348  2.6845  0.7783  0.3619
 5192SOL    HW225891   5.559   2.831   4.233 -0.0607  0.3849  0.5788
 5193SOL     OW25892   1.239   8.350   4.109  0.0287  0.4182  0.2732
 5193SOL    HW125893   1.238   8.315   4.020  0.0704  2.8389 -0.7467
 5193SOL    HW225894   1.329   8.333   4.140  0.7294  1.5620 -1.0258
 5194SOL     OW25895   3.893   7.562   9.980  0.0770 -0.4061  0.0393
 5194SOL    HW125896   3.940   7.643   9.961  0.7871 -0.6219  0.8050
 5194SOL    HW225897   3.892   7.514   9.897 -1.1109  0.7442 -0.6520
 5195SOL     OW25898   9.582  12.833  12.784  0.1111  0.2742  0.1175
 5195SOL    HW125899   9.614  12.900  12.724 -0.9827 -0.5251 -1.4374
 5195SOL    HW225900   9.493  12.860  12.805  0.0643 -0.0859  0.3962
 5196SOL     OW25901  12.927   8.532   9.079 -0.1206 -0.3327  0.9585
 5196SOL    HW125902  12.922   8.477   9.157  0.9492 -1.4846  0.2447
 5196SOL    HW225903  13.020   8.549   9.067 -0.0491 -1.9111 -1.2082
 5197SOL     OW25904   0.589  12.391   5.542  0.3444 -0.3505  0.8292
 5197SOL    HW125905   0.496  12.387   5.563  0.1698  0.6423  0.3374
 5197SOL    HW225906   0.615  12.480   5.565  0.6248  0.1104 -1.0803
 5198SOL     OW25907  10.964  12.349   2.790  0.3656 -0.1068  0.3901
 5198SOL    HW125908  11.015  12.382   2.716 -1.4394 -0.3211 -1.0356
 5198SOL    HW225909  11.024  12.291   2.837  1.9750  1.1097 -0.0917
 5199SOL     OW25910   5.835   4.563   7.545 -0.3988 -0.0657  0.1244
 5199SOL    HW125911   5.786   4.560   7.463  1.2041 -4.2073 -0.9274
 5199SOL    HW225912   5.926   4.569   7.518  0.0840 -0.1722  1.6606
 5200SOL     OW25913   2.542   5.282   4.129  0.1255  0.4387 -0.1814
 5200SOL    HW125914   2.547   5.257   4.037  0.3536  0.8841 -0.2920
 5200SOL    HW225915   2.452   5.260   4.155  0.1837 -0.0645 -0.3956
 5201SOL     OW25916  11.310  10.749   8.350  0.3707  0.1108 -0.0049
 5201SOL    HW125917  11.374  10.713   8.412  0.7948  0.7074 -0.0882
 5201SOL    HW225918  11.362  10.774   8.274 -0.2895 -1.7466 -1.1455
 5202SOL     OW25919  12.194   8.264  10.510 -0.6831  0.7170  0.1229
 5202SOL    HW125920  12.172   8.357  10.499  1.0581  1.0970 -0.3510
 5202SOL    HW225921  12.283   8.256  10.476 -1.2687 -1.3995 -1.0589
 5203SOL     OW25922   7.871   9.171   1.549 -0.4444 -0.2141 -0.0272
 5203SOL    HW125923   7.941   9.108   1.563 -0.1328  0.5794  2.4596
 5203SOL    HW225924   7.907   9.254   1.580 -2.2822  0.3228  0.8436
 5204SOL     OW25925   1.157  12.554   3.513  0.2786 -0.4050  0.7842
 5204SOL    HW125926   1.156  12.593   3.600 -0.2899 -2.0538  1.5514
 5204SOL    HW225927   1.071  12.515   3.502 -0.6372  1.9943 -1.6336
 5205SOL     OW25928   4.959   4.914   0.883  0.5110 -0.0981  0.4233
 5205SOL    HW125929   4.997   4.953   0.805  0.1385 -0.5440  0.0109
 5205SOL    HW225930   4.998   4.826   0.888 -2.0731 -1.4674 -1.3015
 5206SOL     OW25931   8.747  11.334   5.315 -0.9027 -0.1174  0.5673
 5206SOL    HW125932   8.737  11.293   5.229 -1.6952  0.9558  0.1215
 5206SOL    HW225933   8.660  11.369   5.335 -0.4732  0.5369  1.3286
 5207SOL     OW25934   3.984  12.654   7.857 -0.6709 -0.5638  0.3254
 5207SOL    HW125935   4.029  12.738   7.867  0.4738 -0.8127 -1.9949
 5207SOL    HW225936   3.997  12.610   7.941  0.1007  0.9121  1.0284
 5208SOL     OW25937   2.647   2.518   7.636 -0.0122 -0.2314 -0.5836
 5208SOL    HW125938   2.568   2.560   7.601 -0.8304 -1.9007 -0.8394
 5208SOL    HW225939   2.650   2.433   7.591  2.2407  0.0237 -0.9831
 5209SOL     OW25940   8.705   1.060   1.148  0.1638  0.1443  0.0977
 5209SOL    HW125941   8.629   1.031   1.097  0.3565  1.6691 -1.1264
 5209SOL    HW225942   8.670   1.079   1.235 -0.4855 -0.9345  0.0929
 5210SOL     OW25943   2.753   6.496   7.481 -0.4660 -0.0913 -0.0329
 5210SOL    HW125944   2.844   6.519   7.463 -0.5160  0.0924 -0.0436
 5210SOL    HW225945   2.755   6.400   7.490  0.1304  0.0918  2.2526
 5211SOL     OW25946   2.069   3.732  12.028  0.0555 -0.1091  0.6107
 5211SOL    HW125947   2.037   3.642  12.031  1.6097 -0.7133  0.0917
 5211SOL    HW225948   2.164   3.724  12.023  0.2220  1.5709  0.2918
 5212SOL     OW25949   4.470   2.061   5.070  0.3379 -0.3904  0.2578
 5212SOL    HW125950   4.429   2.003   5.135  0.9141 -1.9795 -0.7245
 5212SOL    HW225951   4.564   2.046   5.081  0.4906  0.2483 -0.1261
 5213SOL     OW25952   3.980   1.602   8.537 -0.2917  0.2632  0.6808
 5213SOL    HW125953   3.989   1.623   8.444  0.5891 -2.6242  0.0017
 5213SOL    HW225954   4.065   1.624   8.575  0.4690 -1.5135  0.0783
 5214SOL     OW25955   5.804   5.335   9.190 -1.0080  0.0949 -0.2503
 5214SOL    HW125956   5.845   5.302   9.111 -0.4864 -1.0526  0.4710
 5214SOL    HW225957   5.875   5.378   9.238 -0.6549 -1.6077  0.8473
 5215SOL     OW25958   3.989   3.126  12.848 -0.4973  0.2713 -0.5081
 5215SOL    HW125959   4.014   3.211  12.883  1.4408 -0.8797  1.1255
 5215SOL    HW225960   3.970   3.073  12.925 -0.7406 -1.0499 -1.4429
 5216SOL     OW25961   8.685   0.220   2.371 -0.1871  0.5692 -0.0137
 5216SOL    HW125962   8.712   0.221   2.279  2.1681 -1.2616  0.5564
 5216SOL    HW225963   8.628   0.144   2.379  0.0787  0.3867  0.1539
 5217SOL     OW25964   9.696  12.720   5.528  0.9532  0.6205  0.0473
 5217SOL    HW125965   9.729  12.680   5.447 -0.0288 -0.0357 -0.0393
 5217SOL    HW225966   9.687  12.646   5.588  3.3544  1.2930  1.3964
 5218SOL     OW25967   8.065  11.247   9.945  0.1868  0.2443  0.2016
 5218SOL    HW125968   8.061  11.154   9.969  0.1462  0.1926  0.0012
 5218SOL    HW225969   8.007  11.254   9.869  0.5600  0.3408 -0.0762
 5219SOL     OW25970   3.443   1.634   3.308 -0.1164 -0.7439 -0.8258
 5219SOL    HW125971   3.414   1.719   3.275 -0.2024  0.1225  1.3472
 5219SOL    HW225972   3.429   1.574   3.234 -0.5869  0.9940 -2.2223
 5220SOL     OW25973   8.494   7.965   6.872  0.7007  0.4358  0.2190
 5220SOL    HW125974   8.579   8.007   6.877  0.8800 -0.0038  1.2291
 5220SOL    HW225975   8.509   7.885   6.821  0.9841  0.1704  0.7077
 5221SOL     OW25976   2.742   5.390   0.812 -0.0201  0.4666  0.2699
 5221SOL    HW125977   2.733   5.436   0.895 -0.8320 -1.1123  1.1137
 5221SOL    HW225978   2.708   5.451   0.747 -0.0565  1.4537  1.1805
 5222SOL     OW25979   0.186   1.392   3.930  0.3376  0.4388 -0.2353
 5222SOL    HW125980   0.141   1.329   3.985  1.6206  0.2286  0.5999
 5222SOL    HW225981   0.115   1.435   3.880 -0.6361 -0.8726 -0.0312
 5223SOL     OW25982   2.951   6.657   9.978 -0.3514 -0.5389  0.6275
 5223SOL    HW125983   3.032   6.625   9.938 -0.4739  0.5487 -0.5739
 5223SOL    HW225984   2.882   6.635   9.915 -0.6434  0.6236  0.5120
 5224SOL     OW25985   7.567   1.421  12.095  0.3684  0.1901  0.0443
 5224SOL    HW125986   7.630   1.476  12.143  1.4049 -0.6724 -0.2788
 5224SOL    HW225987   7.611   1.400  12.013 -0.2244 -0.6790 -0.0642
 5225SOL     OW25988   9.574  10.226   5.349  0.1022  0.1188 -0.6130
 5225SOL    HW125989   9.586  10.315   5.316 -1.0848  0.9307  1.0186
 5225SOL    HW225990   9.521  10.183   5.282  0.1796  0.8205 -1.1376
 5226SOL     OW25991   5.539  11.262   0.692 -0.2382  0.2961 -0.6668
 5226SOL    HW125992   5.628  11.241   0.666 -0.6293  0.7265 -2.5284
 5226SOL    HW225993   5.512  11.332   0.632 -1.4891  0.8828  0.5098
 5227SOL     OW25994  12.637  12.117   9.410 -0.1117  0.0347 -0.1799
 5227SOL    HW125995  12.580  12.157   9.476 -1.9670  0.3680 -1.8848
 5227SOL    HW225996  12.717  12.170   9.412 -0.1520  0.0952  1.6853
 5228SOL     OW25997  10.483   9.272   9.694  0.6146 -0.6290  0.1355
 5228SOL    HW125998  10.544   9.221   9.642  0.4383 -1.8389  1.0638
 5228SOL    HW225999  10.402   9.273   9.643  1.2764  0.6848 -0.9340
 5229SOL     OW26000   5.453   6.559   9.090 -0.0234 -0.1614  0.8628
 5229SOL    HW126001   5.396   6.624   9.049  1.0925  0.3414  0.0554
 5229SOL    HW226002   5.396   6.512   9.150 -1.2699  0.3713  0.1416
 5230SOL     OW26003   4.683   8.435   3.549  0.3234  0.0138  0.4114
 5230SOL    HW126004   4.733   8.510   3.582  1.2966 -1.3821  2.2473
 5230SOL    HW226005   4.632   8.405   3.624 -0.5174 -0.8374 -0.4693
 5231SOL     OW26006   1.911   9.508   7.861 -0.0767 -0.2398  0.1683
 5231SOL    HW126007   1.962   9.448   7.916  1.0495  0.1239 -0.4446
 5231SOL    HW226008   1.917   9.470   7.773 -0.4071  0.1107 -0.0060
 5232SOL     OW26009   8.109   7.994   6.214  0.2767 -0.2687 -0.4603
 5232SOL    HW126010   8.153   8.000   6.129  2.1625  0.9604  0.5386
 5232SOL    HW226011   8.169   7.944   6.269  1.0931  2.3799  1.2581
 5233SOL     OW26012   7.494   0.907   1.720 -0.2654 -0.2322  0.1306
 5233SOL    HW126013   7.518   0.828   1.671 -0.1021  0.5359 -1.0526
 5233SOL    HW226014   7.576   0.955   1.730 -0.3204 -0.3024  1.0556
 5234SOL     OW26015   2.909   9.701   6.445  0.2947  0.1415 -0.1897
 5234SOL    HW126016   2.945   9.694   6.357 -1.3321  1.1068 -0.9789
 5234SOL    HW226017   2.975   9.749   6.495  1.2815 -0.5231 -0.8297
 5235SOL     OW26018   5.159   7.419   8.729  0.0578 -0.6764  0.3875
 5235SOL    HW126019   5.218   7.437   8.802  1.0312  0.2452 -0.5840
 5235SOL    HW226020   5.078   7.464   8.753  0.5179  0.0062  0.7072
 5236SOL     OW26021  12.022   1.194   6.608  0.0526 -0.0637 -0.7469
 5236SOL    HW126022  12.035   1.281   6.570  0.2299 -1.2996 -3.8216
 5236SOL    HW226023  11.931   1.172   6.588  0.1156 -0.7486 -0.3225
 5237SOL     OW26024   4.117   4.412   7.711  0.1896 -0.2881 -0.1806
 5237SOL    HW126025   4.137   4.427   7.803 -2.1386  0.5511  0.2633
 5237SOL    HW226026   4.116   4.317   7.702 -1.9941 -0.4880  1.3321
 5238SOL     OW26027   3.944   3.959   6.317 -0.4041  0.3145  0.1665
 5238SOL    HW126028   3.996   3.911   6.381 -0.8599  0.8895  0.9995
 5238SOL    HW226029   3.871   3.900   6.296  0.1212 -0.1511 -0.3572
 5239SOL     OW26030   4.290   0.242   0.370  0.2382  0.2884  0.1512
 5239SOL    HW126031   4.288   0.234   0.466 -2.8396 -1.0706  0.1122
 5239SOL    HW226032   4.224   0.309   0.351 -3.0045 -2.8973 -1.0339
 5240SOL     OW26033  10.841  11.095   6.600 -0.0366  0.0777  0.0749
 5240SOL    HW126034  10.894  11.050   6.666  1.3798 -1.7403 -2.1604
 5240SOL    HW226035  10.814  11.026   6.540  0.1596  1.8419 -2.1707
 5241SOL     OW26036  12.926   5.460  12.101 -0.2506  0.6409 -0.2328
 5241SOL    HW126037  12.941   5.378  12.147 -0.7564  1.6191  1.7649
 5241SOL    HW226038  12.999   5.517  12.126 -0.7123  1.3083 -0.3636
 5242SOL     OW26039  10.380  11.798   8.890  0.0428 -0.2621  0.0567
 5242SOL    HW126040  10.312  11.736   8.919  0.0491 -0.0896  0.4339
 5242SOL    HW226041  10.331  11.873   8.856  0.0428 -0.2342  0.1185
 5243SOL     OW26042  12.494   6.194   6.562 -0.2800 -0.3086  0.4183
 5243SOL    HW126043  12.429   6.254   6.523  1.7819  1.3063 -0.7534
 5243SOL    HW226044  12.450   6.109   6.562 -2.0534  0.5015 -1.2616
 5244SOL     OW26045   5.909   2.124  12.154  0.3593 -0.3051 -0.1267
 5244SOL    HW126046   5.848   2.068  12.202  0.6801  0.7173  1.5201
 5244SOL    HW226047   5.902   2.210  12.196  0.1551  0.8516 -2.3429
 5245SOL     OW26048   8.279   1.855   5.302 -0.6280  0.1099  0.4619
 5245SOL    HW126049   8.273   1.823   5.212 -1.0746 -0.6037  0.7388
 5245SOL    HW226050   8.195   1.832   5.341 -0.3156  0.1348  1.1479
 5246SOL     OW26051  11.533  12.145   1.638 -0.6196  0.5476  0.0453
 5246SOL    HW126052  11.609  12.176   1.688 -0.6205  0.1005  0.3255
 5246SOL    HW226053  11.469  12.119   1.704  0.1597 -2.0234 -0.1091
 5247SOL     OW26054   7.737  11.306  11.429  0.9020 -0.7135 -0.3559
 5247SOL    HW126055   7.660  11.252  11.408  0.9594 -0.2782 -1.7767
 5247SOL    HW226056   7.775  11.327  11.344  1.9279  0.0599  0.2792
 5248SOL     OW26057   5.229   6.550  10.572 -0.0618 -0.0922 -0.1326
 5248SOL    HW126058   5.230   6.576  10.480  0.1442  1.3970  0.2711
 5248SOL    HW226059   5.304   6.491  10.582  0.3342  0.3060 -0.7508
 5249SOL     OW26060   4.284  10.575   4.083 -0.3085  0.1081  0.6944
 5249SOL    HW126061   4.359  10.539   4.130  0.4697  0.8708  0.0724
 5249SOL    HW226062   4.215  10.582   4.149  0.1293 -0.6993  1.2526
 5250SOL     OW26063  10.879   9.835   3.990  0.4457  0.3319  0.2178
 5250SOL    HW126064  10.863   9.801   4.078 -0.6416 -0.3829 -0.2339
 5250SOL    HW226065  10.972   9.856   3.989  0.1895  1.8969  2.0570
 5251SOL     OW26066   0.608   2.556  12.259 -0.3630 -0.5482  0.5517
 5251SOL    HW126067   0.555   2.558  12.179 -2.7807 -0.1120  2.0695
 5251SOL    HW226068   0.647   2.468  12.259 -0.0322 -0.4452 -1.2262
 5252SOL     OW26069   4.633   3.441  12.193  0.2046 -0.1264  0.2209
 5252SOL    HW126070   4.665   3.434  12.283  0.4916  0.7212  0.1963
 5252SOL    HW226071   4.637   3.352  12.159  0.8690 -0.3201  0.7879
 5253SOL     OW26072   4.640   0.031  12.359 -0.0301 -0.6373 -0.3111
 5253SOL    HW126073   4.653   0.094  12.429  0.8303 -1.5687  0.3865
 5253SOL    HW226074   4.702   0.057  12.291 -2.1428  1.4162 -1.6254
 5254SOL     OW26075   3.191   9.747   0.340 -0.0754 -0.6330  0.2984
 5254SOL    HW126076   3.136   9.705   0.406 -0.2012 -0.3916  0.3504
 5254SOL    HW226077   3.129   9.783   0.277 -0.0576  0.8749  1.0967
 5255SOL     OW26078   4.091   5.609   3.414 -0.0045 -0.5466  0.1702
 5255SOL    HW126079   4.025   5.636   3.350  0.5926  1.0556  0.1809
 5255SOL    HW226080   4.086   5.675   3.483  0.6132 -1.2258  0.8850
 5256SOL     OW26081   3.016  10.637   5.939 -0.5732  0.0654  0.2472
 5256SOL    HW126082   2.975  10.723   5.936  1.0994  0.8990 -1.7520
 5256SOL    HW226083   2.986  10.593   5.859  1.2898  0.2207 -0.6011
 5257SOL     OW26084   9.096   9.668   3.516 -1.2920 -0.6699 -0.6826
 5257SOL    HW126085   9.064   9.624   3.437  0.6239 -3.4931 -0.0249
 5257SOL    HW226086   9.180   9.704   3.490 -0.2193 -2.3994  0.2009
 5258SOL     OW26087   0.534   4.360  12.206 -0.0485 -0.2709 -0.3298
 5258SOL    HW126088   0.548   4.391  12.295  0.0954  0.0517 -0.4636
 5258SOL    HW226089   0.616   4.381  12.160 -1.2389  2.5685 -1.3937
 5259SOL     OW26090   7.359   1.693   0.419  0.6311  0.1994 -0.1288
 5259SOL    HW126091   7.288   1.685   0.483  1.2310 -0.9963  0.3972
 5259SOL    HW226092   7.314   1.717   0.337 -0.1118  2.1549  0.7725
 5260SOL     OW26093   2.635   9.760   3.301  0.0605 -0.0871  0.0107
 5260SOL    HW126094   2.595   9.840   3.336 -1.3349 -0.5923 -0.3361
 5260SOL    HW226095   2.594   9.750   3.215 -0.6149 -1.7406  0.4941
 5261SOL     OW26096   0.907   0.962  12.802 -0.1898  0.8393 -0.7511
 5261SOL    HW126097   0.888   1.045  12.845  0.4950  1.5090 -1.7088
 5261SOL    HW226098   0.986   0.930  12.845  0.2396  1.2896 -1.1934
 5262SOL     OW26099   5.278   5.141   9.285  0.1349  0.4620 -0.2774
 5262SOL    HW126100   5.236   5.191   9.214  0.3027  1.0302  0.0129
 5262SOL    HW226101   5.214   5.074   9.309  0.3918 -0.2630 -1.5144
 5263SOL     OW26102  12.201   7.578  11.684  0.2551  0.2975 -0.0899
 5263SOL    HW126103  12.249   7.544  11.759  0.2981  1.3957  0.4011
 5263SOL    HW226104  12.150   7.651  11.719 -0.6318  0.0825 -0.9005
 5264SOL     OW26105   3.999  10.758   7.183  1.0852 -0.1299  0.0739
 5264SOL    HW126106   3.938  10.701   7.136 -1.2595  0.9633  1.5497
 5264SOL    HW226107   4.025  10.707   7.260  0.3756  0.0992  0.4819
 5265SOL     OW26108   7.273   1.611   6.189  0.4985  0.5728  0.3665
 5265SOL    HW126109   7.319   1.611   6.273  0.5173 -0.3814  0.3674
 5265SOL    HW226110   7.339   1.639   6.125  1.2144 -1.1001  0.3165
 5266SOL     OW26111   6.528  12.542   9.877  0.4788 -0.0679  0.4746
 5266SOL    HW126112   6.452  12.504   9.834 -0.3526  0.2988  1.5506
 5266SOL    HW226113   6.491  12.594   9.949  1.6313  1.7308 -0.1555
 5267SOL     OW26114   0.502   4.083   8.873 -0.3183  0.2879 -0.1278
 5267SOL    HW126115   0.503   4.016   8.941 -0.1513  1.4610  1.0752
 5267SOL    HW226116   0.415   4.121   8.878  0.1263  1.2695  0.3411
 5268SOL     OW26117  10.740   2.511   0.898 -0.3016 -0.4163  0.1899
 5268SOL    HW126118  10.670   2.567   0.864  0.7928  0.6849 -0.3512
 5268SOL    HW226119  10.816   2.569   0.904  0.3949 -1.3922  1.4471
 5269SOL     OW26120   6.315   6.066   2.378  0.4071 -1.2514  0.4955
 5269SOL    HW126121   6.275   6.088   2.294  1.9161 -2.5793 -0.6262
 5269SOL    HW226122   6.257   6.104   2.443 -1.0037 -0.5062 -1.1390
 5270SOL     OW26123   7.465   3.541   4.628 -0.6291 -0.2175 -0.4155
 5270SOL    HW126124   7.444   3.565   4.718 -2.4078  3.4545 -1.5788
 5270SOL    HW226125   7.499   3.622   4.589 -1.0807 -1.2928 -3.3282
 5271SOL     OW26126   8.644  11.029   0.917  0.3863 -0.5124 -0.6943
 5271SOL    HW126127   8.624  11.123   0.918 -0.7481 -0.7464 -0.4509
 5271SOL    HW226128   8.701  11.017   0.993 -0.3914 -0.2063 -0.0497
 5272SOL     OW26129   4.341   0.202   4.739 -0.1925  0.3147 -0.3159
 5272SOL    HW126130   4.259   0.252   4.743 -1.8942 -2.1724  4.7133
 5272SOL    HW226131   4.399   0.249   4.800  0.7518 -0.0590 -0.9174
 5273SOL     OW26132  10.352   2.793   6.922 -0.4146  0.0189 -0.5712
 5273SOL    HW126133  10.266   2.765   6.956 -0.1516 -0.5122 -0.3283
 5273SOL    HW226134  10.331   2.842   6.842 -0.8262 -2.5047 -2.1281
 5274SOL     OW26135   1.424   4.513   7.273  0.6110 -0.2153  0.7226
 5274SOL    HW126136   1.441   4.580   7.340  1.2929 -0.2140  0.5603
 5274SOL    HW226137   1.491   4.528   7.207 -0.8135  0.5762 -0.5950
 5275SOL     OW26138  11.441   7.022   4.137  0.3493  0.1413  0.4588
 5275SOL    HW126139  11.420   7.085   4.068  1.2683  1.2955  1.1926
 5275SOL    HW226140  11.508   6.966   4.099 -0.5055 -0.4576 -0.2159
 5276SOL     OW26141   0.663   1.368   1.180  0.1743 -0.2458 -0.2344
 5276SOL    HW126142   0.594   1.335   1.238 -0.2187 -0.0688 -0.6024
 5276SOL    HW226143   0.655   1.463   1.184 -0.8478 -0.2342 -1.7484
 5277SOL     OW26144   6.203   4.313   7.582 -0.4552  0.1126  0.0726
 5277SOL    HW126145   6.155   4.364   7.516  0.0019 -0.7805 -1.0006
 5277SOL    HW226146   6.255   4.377   7.630 -0.3165  0.7246 -0.8688
 5278SOL     OW26147   3.258   1.013  12.939  0.3125  0.5760 -0.4502
 5278SOL    HW126148   3.275   1.023  12.845  2.2045  1.8072 -0.0264
 5278SOL    HW226149   3.234   1.100  12.969 -0.6824  0.1070  0.1693
 5279SOL     OW26150   1.900   3.192   9.573  0.0091 -0.5606  0.1456
 5279SOL    HW126151   1.987   3.214   9.609 -0.1419 -0.1141  0.2378
 5279SOL    HW226152   1.906   3.098   9.554  1.2243 -0.1452 -1.8383
 5280SOL     OW26153   1.783   6.982   1.658 -0.4252  0.0393 -0.3443
 5280SOL    HW126154   1.872   7.002   1.627 -0.3038  1.6917  0.9038
 5280SOL    HW226155   1.796   6.933   1.739 -0.6971 -1.0829 -0.9607
 5281SOL     OW26156   0.675   3.647   3.522 -0.1401 -0.3974 -0.4272
 5281SOL    HW126157   0.734   3.675   3.592  1.1275  0.8161 -1.9139
 5281SOL    HW226158   0.719   3.673   3.441 -2.3126 -0.2226 -1.6391
 5282SOL     OW26159   9.021   5.211   1.704  0.3570  0.7045 -0.3446
 5282SOL    HW126160   8.992   5.135   1.755  0.1033  0.0811 -1.3847
 5282SOL    HW226161   8.940   5.257   1.682  0.3576  0.4134 -1.0097
 5283SOL     OW26162   7.462   0.797   2.344  0.4574 -0.3623  0.3108
 5283SOL    HW126163   7.426   0.881   2.371 -2.0164 -0.6494 -1.7056
 5283SOL    HW226164   7.460   0.799   2.248 -1.8387 -3.4731  0.1474
 5284SOL     OW26165  10.538   7.401   5.835 -0.1879 -0.1363 -0.5745
 5284SOL    HW126166  10.488   7.411   5.916  0.0756 -0.6308 -0.3460
 5284SOL    HW226167  10.475   7.367   5.771 -0.0432 -1.2583 -0.1486
 5285SOL     OW26168   0.661   0.198   0.355  0.4117 -0.5283 -0.4278
 5285SOL    HW126169   0.566   0.188   0.350  0.1041  1.5039  0.5235
 5285SOL    HW226170   0.686   0.152   0.436  0.1152 -0.3111 -0.2122
 5286SOL     OW26171   8.273   2.512   1.974  0.1125  0.4147 -0.0696
 5286SOL    HW126172   8.178   2.521   1.977 -0.0072 -0.0220 -1.6546
 5286SOL    HW226173   8.294   2.449   2.043 -0.7136  0.7552  0.4949
 5287SOL     OW26174  10.895  10.367  11.766 -0.3739  0.2398 -0.6322
 5287SOL    HW126175  10.839  10.399  11.696 -0.8623 -1.7614 -1.2100
 5287SOL    HW226176  10.944  10.294  11.727  4.0946  2.9306 -0.7403
 5288SOL     OW26177   3.098  11.512  10.493  0.1925 -0.1923 -0.3332
 5288SOL    HW126178   3.157  11.573  10.538 -1.0552  1.1186 -0.3994
 5288SOL    HW226179   3.112  11.428  10.537  0.6312  0.5521  1.0050
 5289SOL     OW26180  12.360   2.697   7.837  0.5672  1.2568 -0.7404
 5289SOL    HW126181  12.348   2.615   7.788 -3.6436  0.7243  0.8180
 5289SOL    HW226182  12.404   2.670   7.918 -1.3344  0.3221  0.0372
 5290SOL     OW26183   0.771   9.351   8.019 -0.2043  0.1552 -0.2907
 5290SOL    HW126184   0.777   9.342   7.924 -0.2696  1.7485 -0.4649
 5290SOL    HW226185   0.812   9.435   8.038  0.9215 -0.6749  1.2366
 5291SOL     OW26186   0.130  10.369   7.630  0.3448  0.2680 -0.2231
 5291SOL    HW126187   0.189  10.325   7.568  0.8806  0.9457 -0.1978
 5291SOL    HW226188   0.067  10.301   7.655  0.2264 -0.0720 -1.3731
 5292SOL     OW26189   6.518   5.830  11.649 -1.0414  0.7508  0.1863
 5292SOL    HW126190   6.531   5.880  11.568  0.1981  0.1227 -0.0307
 5292SOL    HW226191   6.595   5.850  11.702 -0.5071 -0.9113  0.0934
 5293SOL     OW26192   1.882   3.520   1.154 -0.1817  0.4030  0.0189
 5293SOL    HW126193   1.890   3.607   1.115  0.9976  0.3786  0.1634
 5293SOL    HW226194   1.966   3.506   1.199 -0.9877 -0.1411  1.4041
 5294SOL     OW26195  10.827   8.451  10.068 -0.2707 -0.7145  0.4679
 5294SOL    HW126196  10.871   8.369  10.051 -0.1659 -0.4426 -0.6168
 5294SOL    HW226197  10.818   8.454  10.164 -0.8655 -2.2743  0.4835
 5295SOL     OW26198   7.108   3.506   7.519  0.2675  0.1008  0.8668
 5295SOL    HW126199   7.055   3.569   7.566  2.4198  0.3225  3.2344
 5295SOL    HW226200   7.061   3.423   7.529 -1.9976  0.9962 -1.3025
 5296SOL     OW26201   5.737  10.395   2.428  0.1967 -0.0172 -0.2367
 5296SOL    HW126202   5.796  10.339   2.378  0.5111 -0.0093  0.1206
 5296SOL    HW226203   5.781  10.407   2.512  1.0784  2.3714 -0.9704
 5297SOL     OW26204   1.063   5.890   5.703 -0.5134  0.0339  0.5443
 5297SOL    HW126205   0.994   5.862   5.763 -0.1659 -1.9597  0.0914
 5297SOL    HW226206   1.077   5.814   5.645 -0.0748  1.4703 -1.3546
 5298SOL     OW26207   8.057   2.209  12.359 -0.4672 -0.6028 -0.1669
 5298SOL    HW126208   8.031   2.175  12.273 -1.5778 -1.5027  0.4918
 5298SOL    HW226209   8.152   2.197  12.362 -0.0918  1.3539 -2.0567
 5299SOL     OW26210   7.450   8.030   8.010 -0.1506 -0.2431  0.8481
 5299SOL    HW126211   7.475   7.992   8.094 -0.4227  0.2298  1.1505
 5299SOL    HW226212   7.486   8.119   8.011 -0.2553 -0.1916  0.5125
 5300SOL     OW26213   7.774   4.705   0.768  0.0503 -0.2806  0.2734
 5300SOL    HW126214   7.726   4.730   0.846 -0.0330  0.5404 -0.0262
 5300SOL    HW226215   7.853   4.759   0.770 -0.4869  0.5954 -0.7791
 5301SOL     OW26216   0.959   1.520   9.832 -0.0717  0.3056  0.3157
 5301SOL    HW126217   1.018   1.454   9.870  0.3394 -0.2811 -1.2866
 5301SOL    HW226218   0.874   1.499   9.871  0.4226  0.0288  1.2793
 5302SOL     OW26219  11.493  12.631  10.592  0.0126 -0.6315 -0.3926
 5302SOL    HW126220  11.537  12.557  10.635 -2.4580 -1.4772  0.8341
 5302SOL    HW226221  11.544  12.707  10.620  1.3940 -1.6412 -0.0107
 5303SOL     OW26222   8.834   0.979   3.046 -0.2879 -0.1794 -0.4063
 5303SOL    HW126223   8.872   1.028   2.973 -0.8963  0.2841 -0.4197
 5303SOL    HW226224   8.748   1.019   3.060 -0.7570 -1.1805 -0.3480
 5304SOL     OW26225   3.168  10.068   3.135 -0.2611 -0.2942 -0.7291
 5304SOL    HW126226   3.118   9.990   3.161  0.8588 -0.8434 -0.1466
 5304SOL    HW226227   3.104  10.139   3.136 -0.8739 -0.8234  0.7847
 5305SOL     OW26228   5.688  10.991   7.495  0.3418  0.1274  0.1783
 5305SOL    HW126229   5.608  11.041   7.505 -0.0208 -0.1986 -0.9770
 5305SOL    HW226230   5.697  10.943   7.577 -1.8151 -1.4890 -0.4347
 5306SOL     OW26231  12.142  10.343   4.564  0.0614  0.3024  0.6473
 5306SOL    HW126232  12.147  10.250   4.542  1.8188  0.8822 -1.8285
 5306SOL    HW226233  12.048  10.360   4.576 -0.4326 -1.4863 -0.3221
 5307SOL     OW26234   0.323   0.243   9.856  0.4782 -0.0313 -0.5027
 5307SOL    HW126235   0.350   0.158   9.820 -1.1225 -0.7997 -0.0035
 5307SOL    HW226236   0.359   0.307   9.795 -0.7879 -1.2006 -2.6087
 5308SOL     OW26237   9.187   8.811   8.178 -0.2438 -0.1582 -0.0982
 5308SOL    HW126238   9.095   8.820   8.202  0.1557  2.7856  0.7255
 5308SOL    HW226239   9.230   8.887   8.218  2.0628  0.1040 -2.7642
 5309SOL     OW26240  10.096   0.691   8.235 -0.4799 -0.1898  0.2089
 5309SOL    HW126241  10.126   0.750   8.166  1.5159  0.0070  1.1609
 5309SOL    HW226242  10.085   0.607   8.192 -1.4004  0.4069 -0.7636
 5310SOL     OW26243  10.796   4.955   3.420  0.0417  0.4939  0.0037
 5310SOL    HW126244  10.830   4.907   3.496 -0.2339  0.1283 -0.0985
 5310SOL    HW226245  10.856   4.932   3.349 -1.5114 -1.8116 -0.6911
 5311SOL     OW26246  11.442  12.940  10.223 -0.1484  0.2890 -0.4041
 5311SOL    HW126247  11.357  12.897  10.226 -0.6466  1.3175  0.8484
 5311SOL    HW226248  11.496  12.881  10.169 -1.7555 -0.1348 -1.6299
 5312SOL     OW26249  11.058   2.461   1.199 -0.6234  0.1967 -0.2665
 5312SOL    HW126250  11.040   2.417   1.116 -0.2001  0.1841 -0.3556
 5312SOL    HW226251  11.076   2.552   1.175 -1.4446  0.4130 -0.0881
 5313SOL     OW26252   1.137   1.673  10.526 -0.7004 -0.1985 -0.2171
 5313SOL    HW126253   1.059   1.709  10.482 -1.0121  0.1457  0.5975
 5313SOL    HW226254   1.108   1.587  10.559 -1.6097  1.0011  2.3908
 5314SOL     OW26255   6.219   2.659   3.278 -0.0119 -0.0665 -0.5747
 5314SOL    HW126256   6.193   2.658   3.185 -1.4870 -0.3820 -0.1932
 5314SOL    HW226257   6.145   2.700   3.322 -0.8424 -2.8493  0.8438
 5315SOL     OW26258  11.639   8.937   1.446  0.0972  0.5110  0.3926
 5315SOL    HW126259  11.727   8.965   1.419  0.0328  0.0254 -0.3330
 5315SOL    HW226260  11.651   8.907   1.536  1.5275 -3.1464 -0.8107
 5316SOL     OW26261   0.427   8.283  12.782  0.2931  0.5658  0.3932
 5316SOL    HW126262   0.405   8.362  12.732  1.9810  0.1329 -1.1450
 5316SOL    HW226263   0.415   8.211  12.720  2.0248 -0.0339  0.6968
 5317SOL     OW26264   5.064   1.075   5.834  0.0521 -0.3151  0.5216
 5317SOL    HW126265   5.110   1.159   5.826  1.2486 -0.6234  3.0332
 5317SOL    HW226266   4.994   1.092   5.896 -0.6876 -0.8383 -0.1527
 5318SOL     OW26267   2.289   4.268   9.335  0.2532  0.5242  0.3071
 5318SOL    HW126268   2.260   4.177   9.347 -2.8434  1.3208 -0.2996
 5318SOL    HW226269   2.231   4.319   9.391  1.8428  2.1846  0.5271
 5319SOL     OW26270  10.883   6.896   4.134  0.1750  0.4639 -0.2319
 5319SOL    HW126271  10.844   6.930   4.215 -0.5703  2.1001 -1.2261
 5319SOL    HW226272  10.953   6.958   4.114  0.6111 -0.1535 -0.6495
 5320SOL     OW26273  11.549   6.318   8.188 -0.2576  0.6898  1.1241
 5320SOL    HW126274  11.520   6.403   8.154  0.1576  2.0326  3.8705
 5320SOL    HW226275  11.639   6.311   8.157 -0.5232  0.8931  0.2700
 5321SOL     OW26276   1.756   4.015   7.914 -0.5988 -0.8714 -0.0597
 5321SOL    HW126277   1.749   4.077   7.842 -3.9958  1.0043  1.6481
 5321SOL    HW226278   1.830   4.046   7.966 -0.3162 -0.1635 -0.8649
 5322SOL     OW26279  11.736   4.174  12.541  0.2037  0.2051 -0.6318
 5322SOL    HW126280  11.669   4.197  12.476 -0.3182  0.9585  0.1577
 5322SOL    HW226281  11.688   4.160  12.622  0.9039 -0.2399 -0.2810
 5323SOL     OW26282   4.879   4.752   6.639 -0.0118 -0.2467 -0.3181
 5323SOL    HW126283   4.908   4.682   6.581  0.8573 -1.0305  1.0081
 5323SOL    HW226284   4.786   4.735   6.652 -0.1203 -0.3039 -1.1332
 5324SOL     OW26285   8.736   4.317   3.560 -0.1542 -0.2999 -0.0896
 5324SOL    HW126286   8.652   4.344   3.523 -1.4738 -2.5141  1.0629
 5324SOL    HW226287   8.785   4.282   3.485 -1.3769 -1.4784 -0.3678
 5325SOL     OW26288   8.347   2.301  12.909  0.0522  0.1476 -0.2013
 5325SOL    HW126289   8.350   2.372  12.974  1.4216  1.0249 -1.1600
 5325SOL    HW226290   8.274   2.324  12.852  1.7048  1.9909 -1.7272
 5326SOL     OW26291   7.625   2.601   2.473  0.5586  0.1182  1.1023
 5326SOL    HW126292   7.676   2.680   2.490 -0.7144  0.7782  2.0821
 5326SOL    HW226293   7.567   2.594   2.549  0.0087 -1.2361  0.5791
 5327SOL     OW26294   0.336   7.742   2.788  0.0570  0.2315 -0.1446
 5327SOL    HW126295   0.355   7.699   2.871  3.0634  0.8755 -0.3832
 5327SOL    HW226296   0.415   7.793   2.769 -0.8848  0.8148 -2.9530
 5328SOL     OW26297   5.140  11.130   1.060 -0.2184  0.0164 -1.2075
 5328SOL    HW126298   5.044  11.132   1.058 -0.2733  0.6285  0.6584
 5328SOL    HW226299   5.166  11.199   1.000 -1.0268  1.8345  0.4359
 5329SOL     OW26300   7.045   1.949   3.035  0.2261 -0.2852 -0.0215
 5329SOL    HW126301   7.030   1.862   2.997  0.1126 -1.1089  1.8140
 5329SOL    HW226302   6.968   2.000   3.010 -0.6716 -1.3296  0.5326
 5330SOL     OW26303   8.549   8.773  10.746 -0.2928  0.4519  0.0289
 5330SOL    HW126304   8.522   8.704  10.686 -0.1412  0.5391 -0.1420
 5330SOL    HW226305   8.555   8.851  10.691  0.8347  0.3244 -0.0517
 5331SOL     OW26306   0.842   9.555  11.517  0.1191 -0.0919 -0.1837
 5331SOL    HW126307   0.890   9.606  11.581  0.8386 -0.6085 -0.2937
 5331SOL    HW226308   0.776   9.508  11.568 -0.8825  1.3082 -0.1483
 5332SOL     OW26309   2.621   7.962   2.420  0.1578  0.1106 -0.3078
 5332SOL    HW126310   2.526   7.959   2.411 -0.0028  0.2954  1.0985
 5332SOL    HW226311   2.654   7.928   2.337 -1.1383 -0.3243 -0.6690
 5333SOL     OW26312   7.426   2.465   0.868  1.1945  0.3179 -0.3993
 5333SOL    HW126313   7.331   2.454   0.861  1.1706 -0.1527  0.5563
 5333SOL    HW226314   7.449   2.522   0.795 -0.0700  1.9009  0.3737
 5334SOL     OW26315   8.251   4.920   4.077 -0.1849 -0.0629  0.4468
 5334SOL    HW126316   8.248   5.015   4.063 -0.0745 -0.1887 -0.4777
 5334SOL    HW226317   8.248   4.910   4.173  0.7029  0.9030  0.6008
 5335SOL     OW26318   8.644  12.360  12.510 -0.2130  0.0238 -0.3970
 5335SOL    HW126319   8.577  12.293  12.513 -0.8274  0.6476  0.1537
 5335SOL    HW226320   8.638  12.397  12.422 -1.4776  0.9328  0.0346
 5336SOL     OW26321   6.407   1.386   3.216 -0.2413 -0.1384 -0.1851
 5336SOL    HW126322   6.318   1.377   3.250 -0.2195 -1.6982 -0.4806
 5336SOL    HW226323   6.419   1.310   3.160  2.1260 -1.3106  1.7422
 5337SOL     OW26324   6.373   7.787   2.404 -0.1514  0.6983  0.3623
 5337SOL    HW126325   6.369   7.829   2.491  1.3073 -0.3994  0.9906
 5337SOL    HW226326   6.456   7.815   2.368  1.4442 -2.4263  1.2781
 5338SOL     OW26327   4.329   5.368  10.016  0.0077 -0.3911  0.3413
 5338SOL    HW126328   4.263   5.378   9.947 -0.1701  0.2227  0.5839
 5338SOL    HW226329   4.378   5.450  10.013  0.4276 -0.6373  0.5059
 5339SOL     OW26330   3.570   5.165   9.694 -0.8263  0.2529 -0.3817
 5339SOL    HW126331   3.494   5.133   9.646 -0.5209  0.4558 -1.0212
 5339SOL    HW226332   3.620   5.086   9.714 -1.3856  0.0818  0.3722
 5340SOL     OW26333   9.249   2.692   8.510 -0.5565 -0.4746  0.2292
 5340SOL    HW126334   9.298   2.721   8.433  1.0211 -0.8550  1.0257
 5340SOL    HW226335   9.299   2.727   8.584 -1.8886 -0.3233  1.0948
 5341SOL     OW26336   4.541   8.047   3.163  0.1792 -0.3274 -0.6905
 5341SOL    HW126337   4.587   8.130   3.148 -0.9204  0.6581  0.9990
 5341SOL    HW226338   4.574   7.988   3.095  0.8228  1.5653 -2.1041
 5342SOL     OW26339  12.033  10.547   3.192  0.3275 -0.0141  0.0004
 5342SOL    HW126340  12.026  10.642   3.181  1.4906  0.0753 -0.1170
 5342SOL    HW226341  12.116  10.534   3.238 -0.6878 -0.8878  1.6842
 5343SOL     OW26342  12.039   9.813   5.097  0.2240 -0.3182  0.2524
 5343SOL    HW126343  11.986   9.840   5.022 -3.1274  0.7069  2.7430
 5343SOL    HW226344  12.027   9.883   5.161  1.3868 -2.0063  2.4595
 5344SOL     OW26345   6.344   1.658   4.203  0.3688  0.7203 -0.7040
 5344SOL    HW126346   6.320   1.750   4.187  0.0819  0.7477 -0.1467
 5344SOL    HW226347   6.291   1.608   4.142  0.4393  0.9205 -0.9298
 5345SOL     OW26348  11.572   6.930   1.062 -0.5286 -0.1544 -0.3717
 5345SOL    HW126349  11.584   6.998   0.996  0.2587 -0.4646 -0.5591
 5345SOL    HW226350  11.647   6.871   1.050  0.2484  0.3761  1.5079
 5346SOL     OW26351   2.514   6.823   5.399  0.1065  0.1683  0.2180
 5346SOL    HW126352   2.516   6.917   5.384  1.7419 -0.0053 -0.8612
 5346SOL    HW226353   2.566   6.786   5.328 -2.1499 -1.7515 -0.5943
 5347SOL     OW26354   3.254  10.240   4.276  0.3663  0.5224  0.9839
 5347SOL    HW126355   3.179  10.182   4.262  0.0599  0.9407  0.8559
 5347SOL    HW226356   3.309  10.193   4.338 -0.0904  0.2833  1.2187
 5348SOL     OW26357  12.500  11.719   3.297  0.3416  0.3062  0.4994
 5348SOL    HW126358  12.545  11.635   3.284  1.1851  1.0853 -2.3661
 5348SOL    HW226359  12.416  11.708   3.252 -0.2291  0.5114  1.4839
 5349SOL     OW26360   4.696   0.432  10.739  0.1805  0.3187  0.4946
 5349SOL    HW126361   4.754   0.494  10.782  0.7803 -0.4414  0.8217
 5349SOL    HW226362   4.755   0.363  10.708 -0.4270  0.0860 -0.1597
 5350SOL     OW26363   1.861   1.818  11.599  0.0489 -0.5484  0.3834
 5350SOL    HW126364   1.915   1.843  11.524 -0.7270  2.0330  0.5832
 5350SOL    HW226365   1.779   1.787  11.561 -0.0628  0.0291  0.1538
 5351SOL     OW26366   5.856   1.310  11.873 -0.3133 -0.0902 -0.8835
 5351SOL    HW126367   5.787   1.245  11.882 -1.8854  1.5141 -1.0110
 5351SOL    HW226368   5.868   1.346  11.961 -1.4362  1.3654 -1.2857
 5352SOL     OW26369   2.936   9.781   4.286 -0.8115 -0.1417 -0.2784
 5352SOL    HW126370   2.933   9.853   4.223 -1.3897  0.2914  0.2348
 5352SOL    HW226371   2.863   9.798   4.345 -0.9131 -1.1205 -0.1136
 5353SOL     OW26372   4.273   7.842   3.866  0.2606 -0.0881 -0.1271
 5353SOL    HW126373   4.255   7.822   3.958 -1.3808  0.2740 -0.3326
 5353SOL    HW226374   4.368   7.841   3.859  0.4745  1.2813  1.8960
 5354SOL     OW26375   3.266   4.304   0.759 -0.5418  0.1238  0.2728
 5354SOL    HW126376   3.304   4.217   0.744 -0.5339 -0.0976  1.4424
 5354SOL    HW226377   3.313   4.337   0.836 -2.3176  0.0386  1.4653
 5355SOL     OW26378   1.681   4.042   0.974  0.1296 -0.2103  0.2235
 5355SOL    HW126379   1.692   4.012   0.883 -0.7651 -0.0062  0.0430
 5355SOL    HW226380   1.670   4.137   0.967  0.6836 -0.1155  0.6035
 5356SOL     OW26381   6.005   2.837  10.403  0.7446 -0.4872  0.4501
 5356SOL    HW126382   6.086   2.809  10.359  0.4919 -0.5261  0.0025
 5356SOL    HW226383   5.988   2.924  10.367 -0.2212 -1.0813 -0.5969
 5357SOL     OW26384   8.987   6.006   7.122 -0.1701 -0.5695 -0.2324
 5357SOL    HW126385   8.972   5.996   7.028  0.4058 -3.6442 -0.0758
 5357SOL    HW226386   9.067   6.059   7.128  1.1118 -2.2489 -1.5838
 5358SOL     OW26387   4.936  10.967   0.630  0.6086  0.1772  0.1291
 5358SOL    HW126388   5.016  11.017   0.616  0.5319  0.2526 -0.0478
 5358SOL    HW226389   4.892  10.968   0.545 -0.8354  2.3061  0.8258
 5359SOL     OW26390   1.073   8.967   0.094  0.1324 -0.4224 -0.1550
 5359SOL    HW126391   1.088   8.883   0.138  1.4497 -0.1029  0.0358
 5359SOL    HW226392   1.084   9.032   0.163  0.3386 -0.0248 -0.5620
 5360SOL     OW26393   2.751   6.220   4.910  0.4573 -0.3527 -0.2473
 5360SOL    HW126394   2.843   6.203   4.887  0.5854 -0.5204  0.3606
 5360SOL    HW226395   2.708   6.135   4.903  0.5462 -0.4501  0.3304
 5361SOL     OW26396   3.073   1.521   7.907 -0.1657 -0.1878  0.4655
 5361SOL    HW126397   3.037   1.609   7.891 -0.9462 -0.3202  1.3920
 5361SOL    HW226398   2.998   1.463   7.898  0.4303 -0.8136 -0.5280
 5362SOL     OW26399   4.721   0.293   9.024  0.4867 -0.0179 -0.3143
 5362SOL    HW126400   4.740   0.323   9.113 -1.6672 -0.0595  0.2104
 5362SOL    HW226401   4.678   0.208   9.036 -2.0138  1.0236 -1.1726
 5363SOL     OW26402   4.625   5.846   1.412 -1.1846  0.4186  0.1414
 5363SOL    HW126403   4.532   5.856   1.432 -1.4411  0.3471 -0.9344
 5363SOL    HW226404   4.670   5.867   1.494 -2.1309  0.8182  0.5747
 5364SOL     OW26405   8.008   1.022  11.108 -0.8527 -0.4707 -0.7166
 5364SOL    HW126406   8.056   0.942  11.090 -1.8385 -1.5446  1.1598
 5364SOL    HW226407   7.918   0.993  11.123 -2.0984  1.3930 -3.5661
 5365SOL     OW26408  12.163  11.152   3.455  0.1919 -0.4608 -0.5922
 5365SOL    HW126409  12.237  11.208   3.477 -2.3156  1.9019  2.7340
 5365SOL    HW226410  12.156  11.090   3.528 -1.6203  0.0014 -0.3207
 5366SOL     OW26411  11.873   6.568  12.515  0.3312  0.6428  0.0026
 5366SOL    HW126412  11.885   6.613  12.432  0.1094 -0.5347 -0.6938
 5366SOL    HW226413  11.949   6.594  12.568  1.0755  0.5227 -0.9839
 5367SOL     OW26414   0.071  10.885  11.092 -0.1900  0.2450  0.2185
 5367SOL    HW126415   0.084  10.883  11.187  2.1092  2.3242  0.0678
 5367SOL    HW226416   0.154  10.918  11.058 -1.1221  0.0223 -2.5083
 5368SOL     OW26417   5.500   8.087   6.707  0.0146 -0.0773 -0.2890
 5368SOL    HW126418   5.492   7.993   6.689  2.4078 -0.2119 -0.9447
 5368SOL    HW226419   5.480   8.095   6.801  2.1412 -1.6669  0.3964
 5369SOL     OW26420   3.423   3.951   4.196 -0.1758 -0.3761 -0.3837
 5369SOL    HW126421   3.456   4.035   4.161 -0.8077 -0.3985 -1.0677
 5369SOL    HW226422   3.485   3.928   4.264  1.0009 -0.2104 -1.3547
 5370SOL     OW26423  10.569  12.456  10.070  0.4182 -0.1917  0.3737
 5370SOL    HW126424  10.546  12.368  10.039  1.7960 -0.6873  0.6946
 5370SOL    HW226425  10.630  12.490  10.004 -0.1591  0.5709  0.2139
 5371SOL     OW26426   1.576   7.336   1.369 -0.0336  0.0023  0.2264
 5371SOL    HW126427   1.542   7.248   1.352  0.1838 -0.2295  0.9520
 5371SOL    HW226428   1.504   7.394   1.343 -0.6577 -0.4435  0.8894
 5372SOL     OW26429   4.436  11.153   4.331 -0.3529  0.7039 -0.3040
 5372SOL    HW126430   4.410  11.173   4.241  2.3286 -1.2679 -1.6668
 5372SOL    HW226431   4.410  11.062   4.343  2.2711 -0.1273 -0.3980
 5373SOL     OW26432   1.841   1.777   2.390  0.0021  0.0347 -0.2879
 5373SOL    HW126433   1.822   1.862   2.350  0.1145 -0.0757 -0.5719
 5373SOL    HW226434   1.795   1.781   2.474 -0.0615  0.3450 -0.3333
 5374SOL     OW26435   2.888   5.681   2.040 -0.1341  0.3411 -0.1271
 5374SOL    HW126436   2.923   5.597   2.069 -2.5451 -0.1303  1.7093
 5374SOL    HW226437   2.932   5.746   2.095  0.6618  0.1700 -0.5464
 5375SOL     OW26438  10.513   1.633   3.467  0.2554 -0.4211 -0.0499
 5375SOL    HW126439  10.540   1.725   3.459 -0.8160 -0.1947 -1.5715
 5375SOL    HW226440  10.505   1.618   3.561  1.5286  0.7148  0.2601
 5376SOL     OW26441   0.273   7.694   1.714 -0.2118  0.3526  0.1870
 5376SOL    HW126442   0.293   7.602   1.697  0.1245  0.3943  0.3302
 5376SOL    HW226443   0.202   7.715   1.655 -1.2250 -0.3751  1.1010
 5377SOL     OW26444   7.824  10.423   7.517 -0.2778 -0.3740 -0.7877
 5377SOL    HW126445   7.758  10.436   7.585  1.2004  0.9927  0.4956
 5377SOL    HW226446   7.857  10.511   7.500  1.7105 -1.0720 -0.8126
 5378SOL     OW26447   0.597  10.064   9.010  0.0732 -0.6053  0.2807
 5378SOL    HW126448   0.656  10.136   9.032 -0.7464 -0.1310  0.9681
 5378SOL    HW226449   0.568  10.030   9.095  0.3915 -1.7064 -0.0368
 5379SOL     OW26450  11.827   3.025   0.286  0.3827 -0.4407  0.5961
 5379SOL    HW126451  11.849   3.104   0.334 -2.6067  1.4078 -0.8160
 5379SOL    HW226452  11.904   2.969   0.296  1.3029  1.2125  4.4537
 5380SOL     OW26453   0.247   2.257  10.300 -0.4787  0.0277 -0.2991
 5380SOL    HW126454   0.248   2.237  10.206  1.6381  2.6935 -0.9879
 5380SOL    HW226455   0.260   2.173  10.343 -1.5722 -1.2838 -2.3682
 5381SOL     OW26456   2.729   0.026   9.460 -0.2104 -0.4224  0.4066
 5381SOL    HW126457   2.795  -0.044   9.458  0.2034 -0.0204 -1.5382
 5381SOL    HW226458   2.648  -0.019   9.485  0.7457 -0.9025  2.9670
 5382SOL     OW26459   1.337   7.822   1.150 -0.3429  0.3383 -0.0891
 5382SOL    HW126460   1.427   7.824   1.116  0.2173 -1.7642  1.1486
 5382SOL    HW226461   1.287   7.778   1.081  0.1390 -0.9182  0.3342
 5383SOL     OW26462   6.894   7.662   3.474 -0.0060 -0.5751  0.3274
 5383SOL    HW126463   6.870   7.616   3.393 -2.3233  0.7486  0.1856
 5383SOL    HW226464   6.813   7.666   3.525  0.1464  2.8742  0.5360
 5384SOL     OW26465   1.426   7.004   0.752  0.0055 -0.9143 -0.2317
 5384SOL    HW126466   1.405   7.005   0.659 -1.1170  0.4945  0.0015
 5384SOL    HW226467   1.521   7.018   0.756  0.1779 -1.7139 -1.1603
 5385SOL     OW26468  11.005   3.554  11.794  0.2838 -0.1576 -0.1224
 5385SOL    HW126469  11.097   3.579  11.803 -0.3383  1.9553  1.0353
 5385SOL    HW226470  10.961   3.634  11.765 -1.3794 -0.8058  0.4936
 5386SOL     OW26471  12.313   7.054   1.730 -0.4466  0.4269 -0.2397
 5386SOL    HW126472  12.245   7.037   1.664 -0.1037  0.7144 -0.6751
 5386SOL    HW226473  12.287   7.136   1.771  0.4893  1.4198 -1.5485
 5387SOL     OW26474   7.308   4.363   2.605  0.1658  0.6501  0.0400
 5387SOL    HW126475   7.270   4.449   2.588  0.9876  1.0969  0.4023
 5387SOL    HW226476   7.235   4.311   2.639 -0.5491  0.9177 -1.0394
 5388SOL     OW26477  11.125   4.307   1.829 -0.2390  0.0366  0.3017
 5388SOL    HW126478  11.073   4.250   1.886 -1.0654 -0.2573 -0.7123
 5388SOL    HW226479  11.079   4.391   1.831 -0.4938 -0.0848 -0.2165
 5389SOL     OW26480   8.722  10.532   6.479 -0.5341 -0.2174  0.1091
 5389SOL    HW126481   8.702  10.604   6.419  1.4714 -0.2195 -0.6299
 5389SOL    HW226482   8.730  10.455   6.423 -0.0790 -0.5047  0.5612
 5390SOL     OW26483   3.251   7.123   5.594  0.2070  0.0144 -0.2602
 5390SOL    HW126484   3.159   7.147   5.580 -0.3827 -2.2408 -0.7122
 5390SOL    HW226485   3.300   7.202   5.570 -1.6574  2.2801  2.7328
 5391SOL     OW26486   9.164   8.005   7.715 -0.4470 -0.0310  0.2161
 5391SOL    HW126487   9.097   8.001   7.784 -1.3376  1.5254 -0.5177
 5391SOL    HW226488   9.121   7.968   7.638  0.2899 -1.0351  0.2570
 5392SOL     OW26489   0.519   0.757   3.811 -0.3786 -0.4975  0.1435
 5392SOL    HW126490   0.555   0.845   3.797 -2.4707  0.5695  1.0360
 5392SOL    HW226491   0.490   0.730   3.724 -0.1759 -0.0993 -0.0560
 5393SOL     OW26492   8.483   7.354   1.445 -0.3013  0.4821 -0.5860
 5393SOL    HW126493   8.527   7.316   1.369 -0.9497 -1.0899 -0.2128
 5393SOL    HW226494   8.419   7.288   1.471 -0.3871  1.1831  1.0715
 5394SOL     OW26495  10.485   9.381   0.300  0.3980  0.7713 -0.5243
 5394SOL    HW126496  10.553   9.318   0.323  0.5119  0.8139 -0.7410
 5394SOL    HW226497  10.475   9.372   0.205  0.0885  0.7515 -0.4907
 5395SOL     OW26498   4.972  10.135  12.254  0.1130  0.1482  0.5625
 5395SOL    HW126499   4.949  10.208  12.196  0.7397  0.7103  1.0104
 5395SOL    HW226500   4.891  10.116  12.301 -0.4360 -0.3782 -0.5400
 5396SOL     OW26501   9.302   5.009   3.541 -0.6950  0.6370  0.1054
 5396SOL    HW126502   9.237   4.982   3.606  0.7671 -0.6646  1.1253
 5396SOL    HW226503   9.294   4.943   3.471 -0.8124  0.7718 -0.0077
 5397SOL     OW26504  12.093   7.538  11.270 -0.2181 -0.4438  0.0229
 5397SOL    HW126505  12.106   7.476  11.342 -0.5212 -1.5160 -0.8056
 5397SOL    HW226506  12.146   7.614  11.293  0.3253 -1.0952  0.9857
 5398SOL     OW26507  10.891   3.548  10.159 -0.0658  0.3127 -0.1875
 5398SOL    HW126508  10.828   3.476  10.149  1.0232 -0.3745 -3.2691
 5398SOL    HW226509  10.977   3.506  10.155  0.6117  1.5453  0.7387
 5399SOL     OW26510  12.437   8.537   6.814  0.4404 -1.0040 -0.1123
 5399SOL    HW126511  12.480   8.454   6.796  1.6332 -0.9043  1.9657
 5399SOL    HW226512  12.492   8.603   6.771  0.6220 -1.1278 -0.0701
 5400SOL     OW26513   0.846   8.310   6.816  0.4417  0.3213  1.0876
 5400SOL    HW126514   0.893   8.230   6.792  0.2468  0.1155  1.3874
 5400SOL    HW226515   0.774   8.280   6.870  0.1663  0.6709  0.9190
 5401SOL     OW26516   8.275   7.335   8.177 -0.5052 -0.6793  0.1869
 5401SOL    HW126517   8.335   7.302   8.110  1.6692  2.2842  0.4882
 5401SOL    HW226518   8.202   7.372   8.126  0.1726 -0.1930 -0.4503
 5402SOL     OW26519   8.078   3.782   5.241  0.2177  0.3304 -0.2591
 5402SOL    HW126520   8.144   3.805   5.306  0.5531  1.5654 -1.0084
 5402SOL    HW226521   7.997   3.772   5.290  0.6593  0.2843  0.4705
 5403SOL     OW26522   4.767   7.962   0.082 -0.4134  0.8106 -0.2843
 5403SOL    HW126523   4.766   7.880   0.131 -0.8682  1.2851  0.5350
 5403SOL    HW226524   4.739   8.028   0.146 -0.3694  1.5528 -1.0128
 5404SOL     OW26525   4.503   2.393   1.823 -0.2324  0.0551 -0.4677
 5404SOL    HW126526   4.475   2.481   1.799  1.3484  0.6367 -0.3125
 5404SOL    HW226527   4.594   2.404   1.851 -0.6314 -1.2707  1.5887
 5405SOL     OW26528   9.406   7.285   0.199  0.1690  0.0263  0.1281
 5405SOL    HW126529   9.413   7.356   0.135 -0.0317  0.1115  0.2012
 5405SOL    HW226530   9.313   7.268   0.206  0.2586 -0.7430 -0.4284
 5406SOL     OW26531   4.270   2.731   4.303 -0.5070 -0.1680  0.0278
 5406SOL    HW126532   4.342   2.709   4.361 -0.5967 -0.4026  0.0549
 5406SOL    HW226533   4.218   2.795   4.352  0.2319  0.7834 -0.4023
 5407SOL     OW26534   2.856   8.433   5.381  0.2040  0.1383  0.1311
 5407SOL    HW126535   2.908   8.502   5.340 -0.6201  0.2039 -0.8549
 5407SOL    HW226536   2.852   8.457   5.473  1.1840  0.5894  0.0644
 5408SOL     OW26537  11.035   0.079   3.478 -0.3066 -0.0379  0.1640
 5408SOL    HW126538  11.082   0.163   3.478  0.9853 -0.7196 -0.6920
 5408SOL    HW226539  11.079   0.028   3.546  0.3368 -0.7358 -0.7448
 5409SOL     OW26540   5.853  10.944   3.171 -0.3780  0.3784  0.8780
 5409SOL    HW126541   5.780  10.977   3.120 -0.6495 -1.8609 -0.3574
 5409SOL    HW226542   5.861  10.852   3.144  3.1768  0.6092  0.5530
 5410SOL     OW26543  10.516  11.717  12.447  0.2398  0.2538  0.0583
 5410SOL    HW126544  10.460  11.734  12.371 -0.3219 -0.8340  0.2124
 5410SOL    HW226545  10.501  11.792  12.505 -0.2523  0.4878 -0.3626
 5411SOL     OW26546   1.117   3.496   4.291  0.3800 -0.1404 -0.0115
 5411SOL    HW126547   1.208   3.520   4.275  0.0485  0.8003 -0.5785
 5411SOL    HW226548   1.085   3.461   4.208 -0.5375  2.1322 -0.7010
 5412SOL     OW26549   8.451   4.170   3.612 -0.5291  0.6096 -0.1578
 5412SOL    HW126550   8.512   4.158   3.540 -0.5768  2.1728 -0.5112
 5412SOL    HW226551   8.380   4.223   3.575 -1.6736 -0.4185  0.4716
 5413SOL     OW26552   1.934   5.221   6.153 -0.5240  0.5104  0.5492
 5413SOL    HW126553   1.895   5.233   6.066 -0.3119  1.9710  0.6385
 5413SOL    HW226554   1.859   5.214   6.212 -0.7038  2.4066  0.6036
 5414SOL     OW26555   4.595   6.680  12.822 -0.1583 -0.5909 -0.3974
 5414SOL    HW126556   4.587   6.774  12.834 -0.6010 -0.7200  0.3651
 5414SOL    HW226557   4.637   6.670  12.736 -1.5710  0.2634 -1.2109
 5415SOL     OW26558   1.338   7.974   4.152  0.4539  0.0675 -0.1874
 5415SOL    HW126559   1.412   7.988   4.211  1.1919  0.3427 -1.1549
 5415SOL    HW226560   1.375   7.928   4.077 -0.6071 -0.9024 -0.1517
 5416SOL     OW26561   7.760   8.575   9.094  0.1394  0.5235 -0.6664
 5416SOL    HW126562   7.849   8.574   9.058  0.2540 -0.3105 -0.3760
 5416SOL    HW226563   7.704   8.583   9.017  0.4887  2.6523 -0.7584
 5417SOL     OW26564   8.852   1.617   3.737 -0.2457 -0.1744  0.0412
 5417SOL    HW126565   8.912   1.606   3.664 -0.7041 -0.2883 -0.3191
 5417SOL    HW226566   8.766   1.627   3.697 -0.6609 -1.3366  0.5926
 5418SOL     OW26567  11.014   5.579   7.108 -0.4918  0.5134  0.2946
 5418SOL    HW126568  10.966   5.656   7.137  0.9838  1.7510 -0.3624
 5418SOL    HW226569  11.050   5.541   7.188 -1.5447  0.2740  0.6621
 5419SOL     OW26570   6.912   0.484   5.172  0.2731 -0.0656  0.4222
 5419SOL    HW126571   6.989   0.485   5.229  1.2891 -2.1692 -0.8008
 5419SOL    HW226572   6.871   0.399   5.189 -1.4623  0.7760  0.6059
 5420SOL     OW26573  12.747  10.639   6.945 -0.0159  0.0835 -0.3962
 5420SOL    HW126574  12.840  10.664   6.948 -0.1517  0.8411 -1.5023
 5420SOL    HW226575  12.704  10.700   7.005  0.1028  0.2304 -0.4603
 5421SOL     OW26576   7.469   9.483   6.512 -0.4859 -0.8220  0.2324
 5421SOL    HW126577   7.513   9.538   6.447 -1.0282 -0.1988  0.3852
 5421SOL    HW226578   7.469   9.537   6.591  0.5501 -1.7363  0.8786
 5422SOL     OW26579   4.898  11.722   9.687 -0.1294 -0.1157 -1.0548
 5422SOL    HW126580   4.965  11.740   9.752 -0.6695 -0.6467 -0.3419
 5422SOL    HW226581   4.943  11.670   9.620 -0.2001 -1.8910  0.2297
 5423SOL     OW26582  11.268   2.593   3.585  0.0700 -0.1000  0.4272
 5423SOL    HW126583  11.297   2.685   3.588  0.1510 -0.0287 -1.1695
 5423SOL    HW226584  11.349   2.543   3.572 -0.1652 -0.1703 -0.9557
 5424SOL     OW26585   8.163  12.074   8.448 -0.0415 -0.0439  0.6662
 5424SOL    HW126586   8.155  12.003   8.511 -0.1038 -0.8001 -0.1825
 5424SOL    HW226587   8.177  12.152   8.502  1.9707 -0.9594  1.5628
 5425SOL     OW26588   4.325  11.520  10.307 -0.6522  0.3064  0.0644
 5425SOL    HW126589   4.345  11.535  10.399  2.2222  2.6091 -0.7796
 5425SOL    HW226590   4.259  11.586  10.286 -0.5601  0.4551  0.2367
 5426SOL     OW26591   0.038  12.823   1.163 -0.1276  0.1439  0.0124
 5426SOL    HW126592   0.062  12.854   1.075  0.2084 -0.4594 -0.1094
 5426SOL    HW226593   0.008  12.902   1.208  1.1302  0.7397 -0.1535
 5427SOL     OW26594   6.354   5.892   4.937  0.0767 -0.0083 -0.0736
 5427SOL    HW126595   6.281   5.870   4.879 -0.3052  0.8752  0.0516
 5427SOL    HW226596   6.343   5.835   5.013 -0.0596 -0.3922 -0.3804
 5428SOL     OW26597   0.536   9.049   4.750 -0.1716  0.4301  0.0147
 5428SOL    HW126598   0.620   9.010   4.727 -0.6464  0.5859 -2.3125
 5428SOL    HW226599   0.559   9.132   4.792  0.8406  0.0882  0.1590
 5429SOL     OW26600  11.577   4.698   1.022 -0.3982 -0.0323  0.1892
 5429SOL    HW126601  11.662   4.693   0.978 -0.1450  2.3231  0.2513
 5429SOL    HW226602  11.517   4.729   0.955 -0.9796 -0.6286  0.4234
 5430SOL     OW26603   2.552  12.198   9.764 -0.4086  0.2707  0.1596
 5430SOL    HW126604   2.543  12.122   9.822 -0.5507  0.4146  0.3302
 5430SOL    HW226605   2.588  12.267   9.821 -1.1217  0.5938  0.2305
 5431SOL     OW26606   3.880   7.984   7.000 -0.4660 -0.4092 -0.4351
 5431SOL    HW126607   3.817   8.004   6.931 -0.9394 -1.3753 -0.2969
 5431SOL    HW226608   3.834   8.005   7.081  0.5603  2.0210 -0.4207
 5432SOL     OW26609   4.696   6.969   6.762  0.2834 -0.1027 -0.1161
 5432SOL    HW126610   4.778   7.011   6.736 -0.3511  2.4454  1.6106
 5432SOL    HW226611   4.645   6.964   6.682  1.1843  0.5888 -0.7509
 5433SOL     OW26612  11.183   8.545   9.237 -0.3736  0.3633  0.3721
 5433SOL    HW126613  11.252   8.511   9.180  1.6473  0.2907  2.6975
 5433SOL    HW226614  11.123   8.590   9.178  1.8670  0.7681 -1.7555
 5434SOL     OW26615   9.459   2.479   6.542  0.3368 -0.1898  0.4135
 5434SOL    HW126616   9.550   2.465   6.514  0.3292 -0.0817  0.3365
 5434SOL    HW226617   9.447   2.574   6.538  0.3634 -0.1630  0.8611
 5435SOL     OW26618   0.850   7.958   5.792  0.1276  0.1141  0.3190
 5435SOL    HW126619   0.904   8.033   5.817 -0.7283  0.8175  0.1106
 5435SOL    HW226620   0.865   7.948   5.698  2.5013 -1.8517  0.7855
 5436SOL     OW26621  11.314   7.543   7.781 -0.3214 -0.6569  0.0707
 5436SOL    HW126622  11.408   7.562   7.784 -0.1953 -1.3664  0.8000
 5436SOL    HW226623  11.273   7.629   7.776  0.3592 -0.3318 -0.1235
 5437SOL     OW26624   9.993   7.869  10.179  0.1068  0.0850  0.0790
 5437SOL    HW126625   9.919   7.925  10.200 -0.3591 -0.4057 -0.2460
 5437SOL    HW226626  10.016   7.826  10.261  0.2338  0.4686  0.2472
 5438SOL     OW26627   8.708  12.262   6.039  0.0267  0.2048  0.4014
 5438SOL    HW126628   8.766  12.188   6.023 -0.0328  0.4582 -1.1983
 5438SOL    HW226629   8.721  12.284   6.131  1.5739 -0.4949  0.3839
 5439SOL     OW26630   6.124   8.732   6.966  0.0883  0.6187  0.3566
 5439SOL    HW126631   6.161   8.738   7.054 -2.6068 -1.5249  1.7958
 5439SOL    HW226632   6.067   8.809   6.958  1.3551  1.5347 -0.0993
 5440SOL     OW26633   8.348   0.677   2.153 -0.1732  0.5195  0.0672
 5440SOL    HW126634   8.336   0.582   2.147 -1.0009  0.5090  1.5281
 5440SOL    HW226635   8.385   0.691   2.240 -1.8343  1.6597  0.6441
 5441SOL     OW26636   8.330   3.771   1.039  0.2654  0.1481 -0.2771
 5441SOL    HW126637   8.411   3.795   1.084 -0.4572  0.3175  0.9797
 5441SOL    HW226638   8.298   3.853   1.002  1.3467 -0.1451 -2.0071
 5442SOL     OW26639   7.680   1.609   3.053 -0.1384 -0.3527  0.1042
 5442SOL    HW126640   7.590   1.599   3.022 -0.1112  3.1264 -1.6002
 5442SOL    HW226641   7.676   1.684   3.113  1.7717  0.7459 -1.0480
 5443SOL     OW26642   4.808   7.602   0.801 -0.0340  0.4934 -0.4337
 5443SOL    HW126643   4.853   7.648   0.731  1.0552 -1.1388 -0.8566
 5443SOL    HW226644   4.864   7.614   0.878  0.3858 -0.2904 -0.6050
 5444SOL     OW26645   7.950   2.159  12.982 -0.4041 -0.0540 -0.5070
 5444SOL    HW126646   8.014   2.144  13.051 -2.3962 -1.3857  1.1368
 5444SOL    HW226647   7.921   2.072  12.956 -1.4461  0.5176 -1.3412
 5445SOL     OW26648   0.443  12.844   4.883  0.0071 -0.2574  0.7710
 5445SOL    HW126649   0.437  12.925   4.831 -1.1070 -1.2147 -0.6793
 5445SOL    HW226650   0.370  12.791   4.853  1.2003 -2.1619  1.0618
 5446SOL     OW26651   8.315   9.067  10.231  0.3326 -0.1602 -0.3478
 5446SOL    HW126652   8.322   9.156  10.264 -0.6982 -0.8772  2.0138
 5446SOL    HW226653   8.221   9.053  10.219  0.4617 -1.0142 -0.4373
 5447SOL     OW26654   6.003   4.830   8.757  0.8791 -0.3366 -0.7408
 5447SOL    HW126655   6.067   4.849   8.688  0.5322  0.5444 -0.8317
 5447SOL    HW226656   5.920   4.862   8.722  0.9923  1.8601  0.7929
 5448SOL     OW26657   2.320  12.023   6.970  0.4263  0.2478  0.3985
 5448SOL    HW126658   2.298  11.950   6.913  0.3157  0.4347  0.1998
 5448SOL    HW226659   2.340  11.983   7.054 -1.0063  0.0824  0.6842
 5449SOL     OW26660   8.832   1.177   1.784  0.0241  0.4026  0.7351
 5449SOL    HW126661   8.765   1.229   1.828 -1.5276 -0.9284  0.0355
 5449SOL    HW226662   8.863   1.115   1.852 -0.4154  0.1437  0.7008
 5450SOL     OW26663   3.621  11.265   4.384  0.1992 -0.1703 -0.0908
 5450SOL    HW126664   3.538  11.297   4.421  0.6743  0.3527  0.5500
 5450SOL    HW226665   3.681  11.340   4.392  0.7004 -0.5031 -0.6614
 5451SOL     OW26666  11.218   8.707   7.825 -0.1066 -0.4173  0.5200
 5451SOL    HW126667  11.172   8.788   7.800 -0.9191 -1.1407 -0.3928
 5451SOL    HW226668  11.208   8.650   7.749  2.7847 -0.4418  0.0347
 5452SOL     OW26669   1.241   8.193   3.836  0.1375  0.5306 -0.5597
 5452SOL    HW126670   1.182   8.126   3.872  0.9223  0.8578  1.4785
 5452SOL    HW226671   1.197   8.223   3.756 -2.6300  0.9514  0.9936
 5453SOL     OW26672  11.685   2.134   6.849  0.5636 -0.1121  0.1893
 5453SOL    HW126673  11.772   2.132   6.810  0.0066 -2.2417 -1.1173
 5453SOL    HW226674  11.642   2.055   6.816 -2.3858  1.5842 -0.4106
 5454SOL     OW26675   8.969  12.606   4.218 -0.0521 -0.2813 -0.0056
 5454SOL    HW126676   9.048  12.652   4.188  0.6170 -1.8712 -0.7850
 5454SOL    HW226677   8.916  12.675   4.259  0.4372  1.4284 -2.0093
 5455SOL     OW26678   2.291   2.080  11.394 -0.3525  0.4420  0.0700
 5455SOL    HW126679   2.352   2.138  11.350  0.5711  0.5299  1.3851
 5455SOL    HW226680   2.232   2.139  11.442 -0.2980  0.3347  0.2738
 5456SOL     OW26681   7.944  11.737   3.391 -0.1031 -0.4891 -0.3064
 5456SOL    HW126682   7.876  11.681   3.428  0.5243 -0.9338  0.2261
 5456SOL    HW226683   7.996  11.763   3.467 -0.0338  0.3355 -0.6288
 5457SOL     OW26684   1.923   5.569   9.226 -0.3235 -0.0813 -0.3541
 5457SOL    HW126685   2.004   5.602   9.266 -1.8818  2.9338  0.5877
 5457SOL    HW226686   1.919   5.613   9.141 -1.6193  0.9122  0.1953
 5458SOL     OW26687  12.782   0.656   5.889 -0.1515 -0.3697 -0.0355
 5458SOL    HW126688  12.848   0.716   5.854  0.3032  0.4134  2.0673
 5458SOL    HW226689  12.736   0.625   5.811  2.5338 -0.8225 -1.5788
 5459SOL     OW26690   3.880   1.139   1.932 -0.6846 -0.1824  0.1664
 5459SOL    HW126691   3.917   1.135   2.020 -0.9300  2.3020  0.4471
 5459SOL    HW226692   3.950   1.178   1.879 -1.1436 -0.0888 -0.3758
 5460SOL     OW26693   6.359  11.388   4.439  0.1947 -0.7863  0.3458
 5460SOL    HW126694   6.329  11.390   4.348  0.5453  2.0606  0.1958
 5460SOL    HW226695   6.452  11.365   4.434  0.6529  0.9991 -0.2595
 5461SOL     OW26696   2.674  11.935   5.341 -0.0562  0.3668 -0.6037
 5461SOL    HW126697   2.759  11.891   5.351 -0.5099 -0.0819  1.6681
 5461SOL    HW226698   2.611  11.876   5.382 -1.0998  1.8150 -0.0279
 5462SOL     OW26699   9.401   0.549  12.229 -0.3351  0.5182  0.0284
 5462SOL    HW126700   9.391   0.578  12.320 -0.2264  1.6359 -0.2900
 5462SOL    HW226701   9.349   0.612  12.178  0.4333  0.5344 -0.7645
 5463SOL     OW26702   9.854  10.781  11.351 -0.2948  0.0475 -0.2416
 5463SOL    HW126703   9.878  10.728  11.274 -0.9438 -0.4808 -0.0835
 5463SOL    HW226704   9.763  10.805  11.336 -0.2694  0.3718  0.1200
 5464SOL     OW26705  11.200   9.225   9.003  0.7504 -0.6158  0.3180
 5464SOL    HW126706  11.293   9.201   8.999  0.3921 -2.5516  1.8828
 5464SOL    HW226707  11.165   9.202   8.917  1.3206 -1.8553  0.4034
 5465SOL     OW26708  11.154   8.303   6.261 -0.3004 -0.0831  0.2601
 5465SOL    HW126709  11.104   8.380   6.290 -0.4727 -0.2834  0.5124
 5465SOL    HW226710  11.100   8.263   6.193 -0.0843  0.1687 -0.0561
 5466SOL     OW26711   5.630   1.975   2.380  0.0056  0.7113  0.3036
 5466SOL    HW126712   5.620   1.962   2.474  0.4960  2.6481  0.6659
 5466SOL    HW226713   5.608   2.067   2.366  0.8779  0.7066 -1.3331
 5467SOL     OW26714   8.657   2.734   7.249  0.0866  0.1580  0.1609
 5467SOL    HW126715   8.709   2.664   7.208  2.2225  1.8789 -0.3019
 5467SOL    HW226716   8.604   2.690   7.315  0.0406 -2.1008 -1.3059
 5468SOL     OW26717   9.132   9.147   8.071  0.2130  0.6518  0.1612
 5468SOL    HW126718   9.169   9.080   8.014  0.1318 -1.2551  2.2162
 5468SOL    HW226719   9.039   9.148   8.049  0.3248  0.5722 -0.3319
 5469SOL     OW26720   9.180   9.670   0.840 -0.8343 -0.8275 -0.0511
 5469SOL    HW126721   9.149   9.739   0.781 -0.3135 -2.0156 -1.8047
 5469SOL    HW226722   9.261   9.639   0.799 -0.9534 -2.3317  0.7806
 5470SOL     OW26723  10.637   8.131   8.293 -0.2882  0.6968  0.1364
 5470SOL    HW126724  10.555   8.122   8.244 -0.7257  1.5913  0.6738
 5470SOL    HW226725  10.677   8.045   8.288 -3.3520 -1.2218  3.4711
 5471SOL     OW26726   2.552  10.193   0.569 -0.6830 -0.0239 -0.0419
 5471SOL    HW126727   2.559  10.284   0.599  0.4584  0.4378 -1.5830
 5471SOL    HW226728   2.588  10.141   0.641  0.1389  0.8844  0.2181
 5472SOL     OW26729   6.215   8.335   1.501 -0.0285 -0.1036  0.0745
 5472SOL    HW126730   6.132   8.358   1.461 -0.1327  0.0737  0.3908
 5472SOL    HW226731   6.193   8.310   1.591  0.5108  2.1418  0.8881
 5473SOL     OW26732   3.709   4.766   3.127  0.7870 -0.0759 -0.5254
 5473SOL    HW126733   3.791   4.777   3.174  0.3220  0.8645  0.0905
 5473SOL    HW226734   3.643   4.758   3.195  0.0590  1.6180 -0.9900
 5474SOL     OW26735  11.402   5.309  12.550  0.7773 -0.1439 -0.3448
 5474SOL    HW126736  11.401   5.400  12.520  1.1068  0.1258  0.4388
 5474SOL    HW226737  11.398   5.257  12.469 -0.2192  0.5555 -0.7657
 5475SOL     OW26738   6.106  11.835  11.925 -0.2113 -0.0087 -0.3591
 5475SOL    HW126739   6.072  11.875  11.845  1.8440 -0.0460 -1.2938
 5475SOL    HW226740   6.030  11.832  11.983 -1.2939  1.8692 -1.5610
 5476SOL     OW26741   4.951   8.033   3.805  0.1228  0.6321 -0.2128
 5476SOL    HW126742   4.999   8.009   3.884  0.1505  0.5219 -0.2634
 5476SOL    HW226743   4.952   7.954   3.751  1.7790  1.2530 -1.1749
 5477SOL     OW26744   2.122  10.357   1.376 -0.4612 -0.2126 -0.0046
 5477SOL    HW126745   2.124  10.452   1.388  0.8847 -0.3853  1.5227
 5477SOL    HW226746   2.198  10.338   1.322 -1.5710 -0.3126 -1.5886
 5478SOL     OW26747  12.825   5.196   6.188  0.5470 -0.5947  0.1573
 5478SOL    HW126748  12.877   5.275   6.173 -0.5671  0.0478 -0.4640
 5478SOL    HW226749  12.841   5.142   6.111  0.8290 -0.6993  0.2897
 5479SOL     OW26750   4.072   6.069  12.210 -0.0086 -0.4193 -0.8537
 5479SOL    HW126751   4.075   5.984  12.255 -1.0672 -2.3644 -4.1535
 5479SOL    HW226752   4.124   6.127  12.266 -0.3604 -2.8158  2.2651
 5480SOL     OW26753   7.312  12.398   9.971 -0.3078 -0.5103 -0.2493
 5480SOL    HW126754   7.361  12.317   9.985 -0.8228 -0.4858  2.1377
 5480SOL    HW226755   7.260  12.381   9.892  0.1099 -2.2434 -0.2011
 5481SOL     OW26756   1.316   6.075   7.019  0.8461  0.4102  0.3048
 5481SOL    HW126757   1.260   6.113   6.952 -1.4254 -0.1625  1.7668
 5481SOL    HW226758   1.339   5.989   6.985 -1.0075 -0.2291  0.5717
 5482SOL     OW26759   5.586   8.256   4.024 -0.3000 -0.0127  0.2143
 5482SOL    HW126760   5.547   8.252   4.112 -1.8693  0.5757 -0.4175
 5482SOL    HW226761   5.525   8.207   3.969  0.2120  0.3608 -0.6949
 5483SOL     OW26762   8.785  10.877   2.206 -0.8680 -0.2456 -0.3682
 5483SOL    HW126763   8.873  10.916   2.207 -0.5431 -0.9630 -0.6580
 5483SOL    HW226764   8.731  10.941   2.160 -0.4517  0.1066 -0.3716
 5484SOL     OW26765   2.051   1.173   6.743  0.1536  0.5209 -0.0507
 5484SOL    HW126766   2.029   1.262   6.771  0.9282  0.3005  1.3936
 5484SOL    HW226767   1.968   1.136   6.714 -0.3655  1.4002  0.2684
 5485SOL     OW26768   1.652  10.443  11.308  0.0995  0.1700  0.4418
 5485SOL    HW126769   1.658  10.476  11.219  0.4575 -1.4659 -0.1736
 5485SOL    HW226770   1.735  10.397  11.323 -0.7873 -1.3798  0.8310
 5486SOL     OW26771   1.615   9.913   1.985  0.0555  0.0346  0.0949
 5486SOL    HW126772   1.529   9.878   1.960 -0.5775  1.5000  0.1211
 5486SOL    HW226773   1.630   9.879   2.074 -0.8606  0.3838  0.3927
 5487SOL     OW26774   8.314   1.437   9.447  0.9124 -0.2461  0.1804
 5487SOL    HW126775   8.331   1.350   9.483  2.3792 -0.2185 -0.4053
 5487SOL    HW226776   8.359   1.438   9.363 -0.3345  0.5833 -0.5126
 5488SOL     OW26777   2.800   3.497   6.034  0.1035 -0.5385 -0.2129
 5488SOL    HW126778   2.873   3.559   6.037 -0.5534  0.2397  0.0247
 5488SOL    HW226779   2.804   3.460   5.945 -0.7085  1.3869 -1.1237
 5489SOL     OW26780  10.749  10.423   1.326  0.2484  0.7644  0.8043
 5489SOL    HW126781  10.716  10.449   1.411  2.2999 -0.0733  1.9457
 5489SOL    HW226782  10.813  10.491   1.303 -1.9089  2.2626 -1.2573
 5490SOL     OW26783   1.048   6.670  10.816  0.1865 -0.2416 -0.3871
 5490SOL    HW126784   1.039   6.592  10.870 -1.6511  0.5760  0.5775
 5490SOL    HW226785   0.967   6.719  10.831  1.4473  2.0506 -0.6088
 5491SOL     OW26786   8.519   4.191   4.954  0.3086  0.0034 -0.0878
 5491SOL    HW126787   8.527   4.140   5.035 -1.0559 -1.9304 -1.0906
 5491SOL    HW226788   8.600   4.243   4.951  0.4728  0.0230  2.3961
 5492SOL     OW26789   0.368   4.752   4.481 -0.3311 -0.3345 -0.6261
 5492SOL    HW126790   0.369   4.661   4.453 -1.5603 -0.2530 -1.0023
 5492SOL    HW226791   0.460   4.773   4.500  0.0158 -1.5110 -0.9510
 5493SOL     OW26792   1.932   2.790   7.322 -0.0458  0.0576 -0.1445
 5493SOL    HW126793   1.988   2.837   7.384  0.9359  1.0502 -1.7009
 5493SOL    HW226794   1.865   2.855   7.298  0.6353  0.3285 -1.4282
 5494SOL     OW26795   9.344   4.564   4.244  0.5113  0.2284  0.7391
 5494SOL    HW126796   9.340   4.528   4.332  1.7174 -2.0749 -0.0691
 5494SOL    HW226797   9.434   4.597   4.236  0.0991  1.3841  0.6918
 5495SOL     OW26798  12.495   0.324  11.969 -0.0661  0.1826 -0.1789
 5495SOL    HW126799  12.424   0.274  12.008  0.0203  0.5625  0.4748
 5495SOL    HW226800  12.573   0.300  12.020  0.0090  0.8412  0.0247
 5496SOL     OW26801   0.999   5.908   9.613  0.3036  0.6880  0.1653
 5496SOL    HW126802   0.983   5.866   9.698  0.8233 -0.7653 -0.4204
 5496SOL    HW226803   1.093   5.896   9.599  0.1392  0.5309 -0.8166
 5497SOL     OW26804   1.524   9.111   8.375  0.1635  0.2430 -0.1418
 5497SOL    HW126805   1.480   9.125   8.292  0.2640  0.0656 -0.2263
 5497SOL    HW226806   1.616   9.130   8.358 -0.0737  2.0540  0.3995
 5498SOL     OW26807   7.073   1.873   5.028 -0.1422 -0.3082 -0.4033
 5498SOL    HW126808   7.055   1.872   4.934  0.1298 -0.1478 -0.4602
 5498SOL    HW226809   7.114   1.958   5.043 -1.1930  0.1294  0.0604
 5499SOL     OW26810   2.686  10.797  12.099  0.2622 -0.3674  0.2910
 5499SOL    HW126811   2.731  10.880  12.084  0.5329 -0.4336  0.7026
 5499SOL    HW226812   2.695  10.749  12.017 -1.0408  0.5341 -0.4007
 5500SOL     OW26813   0.631   7.477   3.496 -0.3208  0.4085  0.2890
 5500SOL    HW126814   0.568   7.460   3.425 -0.1052  1.3253 -0.1380
 5500SOL    HW226815   0.632   7.572   3.505 -1.4910  0.2746  2.5940
 5501SOL     OW26816   1.989   5.966   2.334 -0.5355 -0.6399 -0.1243
 5501SOL    HW126817   1.937   6.045   2.351  0.3688  0.1394 -0.8448
 5501SOL    HW226818   2.029   5.945   2.418 -0.4095 -0.0532 -0.0364
 5502SOL     OW26819   4.329   5.929   3.547 -0.4652 -0.1072  0.1408
 5502SOL    HW126820   4.249   5.882   3.570 -0.2579 -0.3445  0.4023
 5502SOL    HW226821   4.301   6.018   3.528 -0.4732  0.7136  3.3694
 5503SOL     OW26822   3.545   3.499   9.356 -0.3298 -0.6603 -0.3517
 5503SOL    HW126823   3.527   3.448   9.435 -1.9622  0.2591 -0.1013
 5503SOL    HW226824   3.580   3.582   9.387 -0.3082 -0.5652 -0.6236
 5504SOL     OW26825   7.277  10.400   0.994  0.1506  0.2653  0.0874
 5504SOL    HW126826   7.346  10.381   1.058  1.4962  1.1041 -1.0631
 5504SOL    HW226827   7.304  10.353   0.915 -1.7237 -1.1134  0.2146
 5505SOL     OW26828   9.107   9.380   7.361  0.2863 -1.1192 -0.2864
 5505SOL    HW126829   9.179   9.396   7.422 -0.6156 -0.8548  0.7500
 5505SOL    HW226830   9.129   9.298   7.318  0.4359 -1.8688  1.1731
 5506SOL     OW26831  11.807   6.798   1.929  0.7297 -0.0551 -0.0995
 5506SOL    HW126832  11.726   6.777   1.882  0.9545  0.5514 -0.7774
 5506SOL    HW226833  11.781   6.798   2.021  0.3753 -1.6625 -0.1707
 5507SOL     OW26834   6.927   8.675   3.064  0.0034 -0.0768 -0.2507
 5507SOL    HW126835   7.018   8.703   3.064 -0.5719  2.0581 -1.6348
 5507SOL    HW226836   6.898   8.684   3.155  0.6833  0.9702 -0.1346
 5508SOL     OW26837   3.720   4.159   3.507 -0.0218  0.0045  0.1060
 5508SOL    HW126838   3.671   4.085   3.472 -3.4947  1.8633  0.5170
 5508SOL    HW226839   3.740   4.213   3.431  1.0972 -0.5397 -0.0076
 5509SOL     OW26840  12.395   5.613  10.024 -0.3273  0.6573  0.4899
 5509SOL    HW126841  12.339   5.686  10.047  0.5263  1.0881  1.2619
 5509SOL    HW226842  12.335   5.540  10.008 -1.2661  1.7489 -1.3118
 5510SOL     OW26843   7.392   4.132   8.628  0.5547 -0.3807  0.6443
 5510SOL    HW126844   7.335   4.090   8.692  0.2478  0.6615  1.0880
 5510SOL    HW226845   7.346   4.212   8.604  1.9078  0.6186  1.2005
 5511SOL     OW26846   5.042   1.776   6.550 -0.0759  0.6062 -0.0381
 5511SOL    HW126847   5.081   1.696   6.585  0.7346  1.0265  0.0432
 5511SOL    HW226848   5.022   1.755   6.458 -1.8339 -0.3671  0.5184
 5512SOL     OW26849   1.456   8.127   5.373 -0.4719 -0.3305 -0.3007
 5512SOL    HW126850   1.461   8.066   5.300 -0.8467  1.1106 -1.5749
 5512SOL    HW226851   1.472   8.073   5.450  1.9515 -1.5556 -1.5601
 5513SOL     OW26852   2.302   2.854   7.361 -0.0034  0.2533 -0.5429
 5513SOL    HW126853   2.326   2.884   7.448  1.8345 -1.3676 -0.4022
 5513SOL    HW226854   2.365   2.898   7.303  0.6903 -0.8558 -0.6706
 5514SOL     OW26855   0.579   5.565  10.230 -0.1415 -0.1215  0.3433
 5514SOL    HW126856   0.527   5.563  10.310 -0.6527 -0.8826  0.0121
 5514SOL    HW226857   0.578   5.474  10.199 -0.1740  0.2071 -0.6613
 5515SOL     OW26858   1.285   1.024   6.587 -0.5219 -0.2784 -0.0331
 5515SOL    HW126859   1.313   0.933   6.575 -1.9401 -0.5551 -1.5875
 5515SOL    HW226860   1.268   1.032   6.681  0.1694 -1.4315  0.2084
 5516SOL     OW26861   0.169   6.076  12.198  0.0512 -0.7014 -0.0238
 5516SOL    HW126862   0.136   5.999  12.153 -1.0309 -0.0441 -0.3822
 5516SOL    HW226863   0.168   6.146  12.132 -1.2903  0.2025  0.9090
 5517SOL     OW26864   3.709  12.960   7.455  0.1668  0.4871  0.7412
 5517SOL    HW126865   3.650  12.961   7.531 -1.6398  0.5039 -0.6128
 5517SOL    HW226866   3.721  12.867   7.435  0.3107  0.4954  0.7878
 5518SOL     OW26867   5.527  12.821  10.654 -0.0865  0.4499  0.1481
 5518SOL    HW126868   5.583  12.835  10.730  1.9244  1.5460 -1.4487
 5518SOL    HW226869   5.482  12.905  10.642 -0.4061  0.2763  0.1187
 5519SOL     OW26870   1.435   1.784   0.007  0.5034  0.5878 -0.5927
 5519SOL    HW126871   1.420   1.711   0.067 -0.5128 -0.1263 -1.6793
 5519SOL    HW226872   1.504   1.836   0.050  0.0245 -0.0413  1.0322
 5520SOL     OW26873   4.363   8.959  11.494  0.4287  0.3743 -0.3472
 5520SOL    HW126874   4.281   8.930  11.454 -1.2414  4.6909 -0.5890
 5520SOL    HW226875   4.428   8.950  11.425 -0.5588 -0.1433 -1.2332
 5521SOL     OW26876  11.491   1.873   1.097 -0.5348  0.2164 -0.0729
 5521SOL    HW126877  11.536   1.876   1.012  0.3204 -0.5267  0.3334
 5521SOL    HW226878  11.404   1.840   1.077 -0.0945 -0.6843 -0.5826
 5522SOL     OW26879  12.255   1.194  11.585  0.1300  0.0152  0.0856
 5522SOL    HW126880  12.290   1.269  11.632  0.5194 -0.0914 -0.0324
 5522SOL    HW226881  12.264   1.121  11.646  1.8353 -0.3905 -0.6014
 5523SOL     OW26882   8.799   1.937   7.653  0.1275  0.4948 -0.5564
 5523SOL    HW126883   8.869   1.873   7.640  1.2033  2.0365 -3.2490
 5523SOL    HW226884   8.747   1.931   7.573  0.8474  3.5204 -1.3905
 5524SOL     OW26885  10.175   5.960   1.329 -0.3523  0.1200  0.3675
 5524SOL    HW126886  10.176   5.884   1.387  1.9847 -1.0085 -1.0221
 5524SOL    HW226887  10.100   5.945   1.271 -1.1137 -0.0610  1.3611
 5525SOL     OW26888   8.638   5.852   7.051 -0.0395 -0.1554  0.2738
 5525SOL    HW126889   8.677   5.822   6.970 -3.1925  0.4538 -1.6491
 5525SOL    HW226890   8.557   5.801   7.060 -1.4306  2.0199  1.2182
 5526SOL     OW26891   6.046   9.430   4.801  0.0259 -0.0055 -0.1339
 5526SOL    HW126892   6.049   9.519   4.765  1.9516 -1.4354 -4.0164
 5526SOL    HW226893   6.124   9.423   4.855  0.0099  0.5345 -0.0308
 5527SOL     OW26894  10.514   9.566   3.816  0.0716  0.5000 -0.2201
 5527SOL    HW126895  10.551   9.479   3.802 -2.0722 -0.2830 -1.6555
 5527SOL    HW226896  10.431   9.565   3.768 -1.2240  2.5238  1.7364
 5528SOL     OW26897  12.532   4.584   9.190 -0.0178 -0.4621  0.3253
 5528SOL    HW126898  12.576   4.666   9.213 -1.0677 -0.0466  0.9731
 5528SOL    HW226899  12.474   4.567   9.264  0.3531 -1.9285  0.3005
 5529SOL     OW26900   9.369  12.518  11.959  0.2989 -0.4489 -0.1270
 5529SOL    HW126901   9.363  12.449  12.026 -2.3408  0.9135  1.2312
 5529SOL    HW226902   9.330  12.595  12.001  0.2340  1.0008 -2.6481
 5530SOL     OW26903   3.407   0.313   5.611 -0.5196 -0.1053 -0.2620
 5530SOL    HW126904   3.413   0.222   5.641  0.2006  1.1221  4.0609
 5530SOL    HW226905   3.313   0.334   5.618 -0.5239 -0.1801 -0.0912
 5531SOL     OW26906   8.982   1.565  11.646 -0.1823 -0.2024 -0.6843
 5531SOL    HW126907   8.974   1.646  11.695  0.2076  0.8374 -2.2475
 5531SOL    HW226908   8.906   1.513  11.673  1.1651 -0.6782  2.6328
 5532SOL     OW26909   4.898   3.156   2.701  0.0586  0.1234  0.1397
 5532SOL    HW126910   4.951   3.209   2.760 -0.5751  2.7459 -1.5095
 5532SOL    HW226911   4.808   3.175   2.727 -0.2427  1.5708 -1.7823
 5533SOL     OW26912   8.518   6.076   4.303 -0.3446 -0.2121  0.3243
 5533SOL    HW126913   8.476   6.134   4.366  0.2935  1.5527 -0.7952
 5533SOL    HW226914   8.520   6.126   4.221  0.5129 -1.7072 -0.6259
 5534SOL     OW26915   3.404   8.500   2.022 -0.1683  1.0779  0.0518
 5534SOL    HW126916   3.486   8.536   1.987  0.4078 -0.1568  0.0760
 5534SOL    HW226917   3.408   8.407   2.001  0.9409 -0.1348  4.5220
 5535SOL     OW26918  11.481   9.125  12.484  0.0166  0.4252 -0.1234
 5535SOL    HW126919  11.512   9.168  12.564  0.8673  0.0086 -0.2196
 5535SOL    HW226920  11.477   9.195  12.419 -0.5138  0.7335  0.2277
 5536SOL     OW26921   1.419   6.259   1.520  0.3065  0.1565  0.1990
 5536SOL    HW126922   1.346   6.321   1.529 -0.1711 -0.5460  1.4177
 5536SOL    HW226923   1.453   6.275   1.432 -2.3364 -0.5992 -1.0720
 5537SOL     OW26924   1.003   1.964   5.328 -0.2744 -0.3764 -0.3149
 5537SOL    HW126925   1.071   1.952   5.262  0.1901  0.5631 -0.0274
 5537SOL    HW226926   0.963   1.878   5.337 -0.1127 -0.5987 -1.5575
 5538SOL     OW26927   9.408   3.334   9.221 -0.4119  0.0615  0.4371
 5538SOL    HW126928   9.475   3.397   9.195 -0.5724 -0.2497 -0.7914
 5538SOL    HW226929   9.334   3.388   9.250 -0.2835  0.4264  0.0916
 5539SOL     OW26930   6.663   1.794   5.403  0.1691  0.3590  0.3472
 5539SOL    HW126931   6.657   1.755   5.315  1.9162 -2.3509  1.3122
 5539SOL    HW226932   6.742   1.848   5.400  0.3494  0.0950  0.2940
 5540SOL     OW26933  12.750  10.427   0.031 -0.4147 -0.2376 -0.3354
 5540SOL    HW126934  12.675  10.431   0.092 -0.2597 -0.4669 -0.1275
 5540SOL    HW226935  12.823  10.464   0.080 -0.1431 -0.9780 -0.1537
 5541SOL     OW26936  10.901   4.709   8.235 -0.4587 -0.9383  0.0266
 5541SOL    HW126937  10.837   4.778   8.217  0.3565 -0.3116 -0.5645
 5541SOL    HW226938  10.870   4.667   8.315 -0.7071  0.4325  0.6647
 5542SOL     OW26939   4.128   1.515   0.692 -0.1962  0.1234 -0.5423
 5542SOL    HW126940   4.172   1.429   0.700 -0.5836 -0.0926 -0.7301
 5542SOL    HW226941   4.163   1.565   0.766  1.4418  0.4383 -1.4781
 5543SOL     OW26942  10.174   8.802   3.192  0.4476  0.6771  0.2066
 5543SOL    HW126943  10.164   8.872   3.257 -1.1987 -0.6361  1.4833
 5543SOL    HW226944  10.088   8.795   3.151  0.5090 -0.7169  0.2751
 5544SOL     OW26945  11.303   7.626  10.963  0.0546  0.5196  0.4369
 5544SOL    HW126946  11.359   7.676  11.023 -1.4091  0.6196  1.7614
 5544SOL    HW226947  11.296   7.540  11.002 -0.2318  0.3197 -0.0471
 5545SOL     OW26948  12.607   5.295  12.303  0.3569  0.1256 -0.1172
 5545SOL    HW126949  12.543   5.295  12.375  0.6002 -0.0179  0.1044
 5545SOL    HW226950  12.637   5.385  12.298  0.6491  0.0489  0.2436
 5546SOL     OW26951   6.162   6.414   7.267 -0.3115 -0.8723 -0.3469
 5546SOL    HW126952   6.181   6.366   7.347 -1.4753 -1.3634 -0.3434
 5546SOL    HW226953   6.165   6.347   7.198 -0.0788 -0.5978 -0.6031
 5547SOL     OW26954   6.070   4.276   5.283 -0.2931 -0.2615 -0.0884
 5547SOL    HW126955   6.020   4.336   5.228 -0.2625 -0.7663 -0.6829
 5547SOL    HW226956   6.081   4.323   5.366 -1.1618  0.1251 -0.1808
 5548SOL     OW26957   2.446  11.195   2.431  0.0843 -0.3306  0.6009
 5548SOL    HW126958   2.490  11.200   2.346  0.9508  0.1546  1.0681
 5548SOL    HW226959   2.378  11.129   2.419 -1.2057  1.2006 -1.0870
 5549SOL     OW26960   2.578   8.081   7.546  0.0223  0.8566 -0.0210
 5549SOL    HW126961   2.613   8.061   7.633 -1.0661  1.9793  0.7053
 5549SOL    HW226962   2.608   8.170   7.528  1.7025  0.0381 -1.5915
 5550SOL     OW26963   3.642   0.387   1.295  0.2532 -0.2152  0.1168
 5550SOL    HW126964   3.729   0.366   1.262  0.3120 -1.0827  0.8022
 5550SOL    HW226965   3.657   0.461   1.355  0.2337  0.9207 -1.2108
 5551SOL     OW26966   0.112   3.977   2.855 -0.1821  0.0822 -0.5831
 5551SOL    HW126967   0.060   3.997   2.933  0.1940  1.0093 -0.5604
 5551SOL    HW226968   0.073   3.896   2.820 -0.2411 -0.4484  0.6588
 5552SOL     OW26969   6.152  10.824   6.217 -0.1965  0.3406 -0.0262
 5552SOL    HW126970   6.184  10.810   6.128  0.1800 -0.7571  0.2638
 5552SOL    HW226971   6.081  10.760   6.227  0.8392 -0.7045  0.9856
 5553SOL     OW26972  12.110   7.464   5.102 -0.5834  0.3377  0.0339
 5553SOL    HW126973  12.167   7.459   5.025  0.8223 -2.2762  1.1255
 5553SOL    HW226974  12.129   7.550   5.139  1.6308  0.1170 -0.4386
 5554SOL     OW26975  11.545  12.406   5.210  0.2733 -0.0916 -0.0221
 5554SOL    HW126976  11.541  12.378   5.301 -2.3093  0.6990  0.1962
 5554SOL    HW226977  11.466  12.369   5.170  0.4325  1.0457 -1.4860
 5555SOL     OW26978  12.882   8.885   5.607 -0.4558  0.5681 -0.1161
 5555SOL    HW126979  12.950   8.849   5.664 -0.9206  0.1583  0.1916
 5555SOL    HW226980  12.807   8.827   5.619 -0.2436 -0.1595 -1.9497
 5556SOL     OW26981   8.220  12.065   1.813  0.1748  0.3339 -0.3576
 5556SOL    HW126982   8.218  11.982   1.765 -1.5761  0.4204 -0.5097
 5556SOL    HW226983   8.218  12.039   1.905 -2.5800  0.1470 -0.3969
 5557SOL     OW26984   7.735  12.157   5.731 -0.2201 -0.4993  0.2063
 5557SOL    HW126985   7.754  12.101   5.656 -0.0268  0.6427 -0.6306
 5557SOL    HW226986   7.810  12.215   5.738 -0.0885 -0.7851  1.5040
 5558SOL     OW26987   7.227   1.237   2.259  0.1224 -0.0687  0.3249
 5558SOL    HW126988   7.184   1.247   2.343  0.7737 -1.2598  0.8186
 5558SOL    HW226989   7.195   1.154   2.225 -1.7030  1.2920 -1.5855
 5559SOL     OW26990   0.543   6.757  12.875 -0.3254  0.5934  0.1959
 5559SOL    HW126991   0.624   6.808  12.882  1.3440 -1.6143 -1.5243
 5559SOL    HW226992   0.548   6.694  12.946 -1.6448  1.7394  1.3740
 5560SOL     OW26993   7.760  10.680   0.620  0.1298 -0.0021 -0.0811
 5560SOL    HW126994   7.835  10.727   0.656 -0.1188  0.0152  0.4269
 5560SOL    HW226995   7.686  10.711   0.672 -0.1183 -0.5475 -0.1062
 5561SOL     OW26996  11.081   8.916   7.717  0.4026  0.1134 -0.4260
 5561SOL    HW126997  11.006   8.928   7.659  1.0082 -0.8567 -1.4324
 5561SOL    HW226998  11.138   8.992   7.699 -0.1120  0.6107  0.0124
 5562SOL     OW26999   8.118   8.848  10.953  0.1519 -0.3938 -0.0759
 5562SOL    HW127000   8.157   8.909  11.015  0.2959 -1.9041  1.3963
 5562SOL    HW227001   8.176   8.850  10.877 -0.5772  2.2392 -0.6571
 5563SOL     OW27002   6.708   7.355   9.344  0.3086  0.5001  0.0939
 5563SOL    HW127003   6.764   7.278   9.329 -1.5139 -0.4709 -2.5173
 5563SOL    HW227004   6.619   7.320   9.342 -0.5417  2.5310  0.2102
 5564SOL     OW27005   3.184   3.073   9.313 -0.1388 -0.2210 -0.5313
 5564SOL    HW127006   3.218   3.150   9.359 -4.2061  1.7632 -0.4086
 5564SOL    HW227007   3.153   3.015   9.383 -0.5065 -0.2157 -0.6900
 5565SOL     OW27008   3.210   1.457   2.801  0.2212 -0.2827 -0.1331
 5565SOL    HW127009   3.268   1.528   2.830 -0.2279  0.5576 -1.2251
 5565SOL    HW227010   3.122   1.489   2.819  0.0416 -1.5038  1.3968
 5566SOL     OW27011   8.089   5.524   1.742 -0.3171 -0.0300  0.4052
 5566SOL    HW127012   8.055   5.535   1.654 -1.1820 -0.5354  0.6629
 5566SOL    HW227013   8.102   5.429   1.751 -0.0650  0.0356  0.7602
 5567SOL     OW27014   5.725   9.229   8.661  0.3082 -0.8693 -0.1836
 5567SOL    HW127015   5.703   9.168   8.731  0.3078  1.9441  2.4826
 5567SOL    HW227016   5.787   9.290   8.701  0.9572  0.4281 -2.9249
 5568SOL     OW27017   7.121   4.414   3.732 -0.0125  0.1734  0.0453
 5568SOL    HW127018   7.026   4.417   3.727  0.0285  2.0619 -0.3007
 5568SOL    HW227019   7.146   4.497   3.771  1.6181  1.0440 -2.6045
 5569SOL     OW27020   6.908   0.960  10.127  0.2820 -0.5406  0.0101
 5569SOL    HW127021   6.895   0.982  10.219  0.7728  0.3558 -0.1253
 5569SOL    HW227022   6.885   1.039  10.080  1.1671 -0.6066 -0.5539
 5570SOL     OW27023  11.670  10.910   5.151  0.7162 -0.1386 -0.2241
 5570SOL    HW127024  11.668  10.983   5.089 -0.9959 -0.2871 -0.3879
 5570SOL    HW227025  11.743  10.931   5.209 -0.3315  2.2906  0.3599
 5571SOL     OW27026   4.038  11.404   7.423 -0.4700 -0.1358 -0.2481
 5571SOL    HW127027   3.955  11.394   7.469 -0.1177 -1.1087  0.2193
 5571SOL    HW227028   4.030  11.486   7.374 -1.2495  0.3822  0.7198
 5572SOL     OW27029   0.146   5.014   1.881 -0.2226 -0.0609 -0.2700
 5572SOL    HW127030   0.154   5.109   1.882  3.7907 -0.1068  3.6393
 5572SOL    HW227031   0.098   4.993   1.961 -0.9543 -1.4031 -1.0269
 5573SOL     OW27032   9.501   3.554   5.247  0.0479 -0.2107 -0.2126
 5573SOL    HW127033   9.576   3.507   5.212 -0.1143 -0.4107 -0.2939
 5573SOL    HW227034   9.533   3.643   5.262  0.1162 -0.1147 -0.8937
 5574SOL     OW27035   9.626   4.018   3.054 -0.3717 -0.4946 -0.0055
 5574SOL    HW127036   9.620   3.949   2.987 -1.1550 -1.3468  0.8964
 5574SOL    HW227037   9.589   4.095   3.012 -2.4521 -1.4392 -0.0684
 5575SOL     OW27038   3.128   5.635   1.674 -0.0198 -0.3640 -0.1059
 5575SOL    HW127039   3.206   5.687   1.654  0.1792 -0.8043 -0.4968
 5575SOL    HW227040   3.150   5.590   1.756  1.0080 -2.1346 -1.2690
 5576SOL     OW27041  10.296   8.359  12.105  0.2169 -1.0330  0.4102
 5576SOL    HW127042  10.386   8.330  12.094  0.6280  0.6123 -0.9708
 5576SOL    HW227043  10.286   8.370  12.200  1.4222 -1.3607  0.5938
 5577SOL     OW27044   2.722   4.280  10.788 -0.2818  0.1612  0.4785
 5577SOL    HW127045   2.626   4.280  10.788 -0.3450  0.4381 -2.1089
 5577SOL    HW227046   2.745   4.232  10.868 -2.5638 -0.2351  0.9920
 5578SOL     OW27047   4.112   1.219   7.892 -0.2204 -0.3201  0.4513
 5578SOL    HW127048   4.108   1.220   7.797 -1.4931 -2.5024  0.4146
 5578SOL    HW227049   4.045   1.282   7.920  0.0062  0.1625 -0.0785
 5579SOL     OW27050  12.278   3.298   5.025  0.0312  0.1532  0.4250
 5579SOL    HW127051  12.334   3.240   4.973 -1.7551 -1.2910  0.0167
 5579SOL    HW227052  12.292   3.270   5.116 -0.3471 -0.5255  0.2828
 5580SOL     OW27053   9.215  11.418   3.833 -0.2257 -0.4172  0.2945
 5580SOL    HW127054   9.307  11.394   3.844 -0.2563 -0.0076  1.8127
 5580SOL    HW227055   9.196  11.402   3.741  1.2201 -1.0025  0.0712
 5581SOL     OW27056   4.894   5.826   5.602  0.2901  0.7162  0.2133
 5581SOL    HW127057   4.868   5.764   5.671 -0.0480  0.4390 -0.1592
 5581SOL    HW227058   4.814   5.875   5.584  0.3405  0.6887 -0.0828
 5582SOL     OW27059   1.749   9.516   8.100 -0.2689 -0.3407 -0.0252
 5582SOL    HW127060   1.791   9.537   8.017  0.6361 -1.9993 -0.0316
 5582SOL    HW227061   1.781   9.584   8.160  0.3475 -0.0498 -0.6646
 5583SOL     OW27062   4.714   2.425   2.607 -0.4969  0.5253  0.0439
 5583SOL    HW127063   4.730   2.499   2.666  1.8834 -1.0586  1.5690
 5583SOL    HW227064   4.798   2.410   2.565  0.1644 -3.2440  2.2587
 5584SOL     OW27065   3.624   9.410   7.103  0.3614  0.7440 -0.2640
 5584SOL    HW127066   3.587   9.363   7.029 -1.6102  1.4295  0.2124
 5584SOL    HW227067   3.593   9.500   7.092  0.7507  1.0480  0.9164
 5585SOL     OW27068  11.059   9.141   0.305 -0.0713 -0.1872 -0.5232
 5585SOL    HW127069  11.046   9.151   0.211  2.7728 -0.0383 -0.9671
 5585SOL    HW227070  11.049   9.229   0.341 -1.0537 -0.2299 -0.6652
 5586SOL     OW27071  12.140   4.296   8.519 -0.1019 -0.3423  0.3803
 5586SOL    HW127072  12.219   4.340   8.549 -0.3154  0.6350 -0.4222
 5586SOL    HW227073  12.150   4.291   8.424 -0.3036 -1.6313  0.4088
 5587SOL     OW27074   9.348   4.604   4.948  0.1184 -0.1878 -0.8030
 5587SOL    HW127075   9.440   4.577   4.947  0.3380  0.4599  0.5382
 5587SOL    HW227076   9.302   4.529   4.910  1.0034 -1.3322  0.2961
 5588SOL     OW27077  12.813   6.592   2.467 -0.0219 -0.1780 -0.5877
 5588SOL    HW127078  12.767   6.661   2.514  2.7437 -0.0432  2.2543
 5588SOL    HW227079  12.802   6.515   2.523  0.4122 -0.9880 -1.5949
 5589SOL     OW27080   0.359  11.192   1.328 -0.6689 -0.1840 -0.0474
 5589SOL    HW127081   0.407  11.272   1.307  1.9797 -1.0515  2.0827
 5589SOL    HW227082   0.340  11.199   1.422 -1.5365 -1.4712 -0.0974
 5590SOL     OW27083   8.426  12.552   4.864 -0.0485  0.3431 -0.0359
 5590SOL    HW127084   8.430  12.504   4.781 -0.6933  0.1567  0.0368
 5590SOL    HW227085   8.336  12.586   4.867 -0.0954  0.1572  0.6867
 5591SOL     OW27086  11.943   6.086   3.326 -0.6258 -0.2465 -0.7271
 5591SOL    HW127087  11.927   6.171   3.284  0.1442 -1.0046 -2.6896
 5591SOL    HW227088  11.938   6.023   3.254  1.0262 -1.6150  0.3035
 5592SOL     OW27089   4.400   0.282   2.676 -0.5405  0.1886  0.3310
 5592SOL    HW127090   4.372   0.216   2.739 -1.2278 -0.5341 -0.6834
 5592SOL    HW227091   4.496   0.284   2.683 -0.5702 -0.3666  0.9116
 5593SOL     OW27092   7.207  11.424  12.268 -0.2617 -0.2606 -0.5835
 5593SOL    HW127093   7.209  11.503  12.213 -0.0567  2.0936  2.4845
 5593SOL    HW227094   7.286  11.432  12.322 -1.6531 -1.0314  1.6960
 5594SOL     OW27095   5.511   2.785   2.376 -0.6243 -0.0213  0.1563
 5594SOL    HW127096   5.443   2.772   2.310 -2.7366 -1.2164  2.4236
 5594SOL    HW227097   5.592   2.793   2.325 -2.4808  2.7570 -2.7735
 5595SOL     OW27098   3.294   8.565   0.983  0.0016 -0.2618 -0.2346
 5595SOL    HW127099   3.363   8.537   0.923  0.3805 -2.1582  1.0022
 5595SOL    HW227100   3.314   8.656   1.002  1.2213 -0.3205 -1.1556
 5596SOL     OW27101   6.828   1.582  10.184  0.0139  0.2008  0.1610
 5596SOL    HW127102   6.910   1.588  10.234 -0.7524  0.3787  1.4554
 5596SOL    HW227103   6.764   1.550  10.248 -0.4787 -2.0891 -1.3830
 5597SOL     OW27104  11.476   1.035  11.279  0.3742  0.3273 -0.0186
 5597SOL    HW127105  11.493   1.119  11.323  0.3505  0.1276  0.3809
 5597SOL    HW227106  11.563   1.004  11.254  0.2943  0.9937 -1.1632
 5598SOL     OW27107   0.932  12.889   9.470 -0.0320  0.0050  0.0148
 5598SOL    HW127108   1.020  12.862   9.499  1.2074  2.6359 -0.9939
 5598SOL    HW227109   0.938  12.894   9.375  0.1074  4.0735  0.0631
 5599SOL     OW27110   0.075   8.540  12.847  0.2088  0.9104 -0.3324
 5599SOL    HW127111   0.032   8.618  12.881  1.0259  0.0831  2.9625
 5599SOL    HW227112   0.167   8.551  12.870  0.4203 -0.7834 -0.1987
 5600SOL     OW27113  12.667   2.707   6.322 -0.2066 -0.1380 -0.3969
 5600SOL    HW127114  12.736   2.642   6.312 -0.2233 -0.3854  0.9449
 5600SOL    HW227115  12.713   2.790   6.332 -0.0471 -0.3796  1.1173
 5601SOL     OW27116   2.401   7.507   9.574  0.0456  0.1246 -0.1884
 5601SOL    HW127117   2.488   7.509   9.534 -0.2026 -0.9652 -0.8499
 5601SOL    HW227118   2.399   7.423   9.621  0.0907  1.0804  1.6117
 5602SOL     OW27119   5.991  11.102   8.966  0.4701 -0.0003  0.5556
 5602SOL    HW127120   6.039  11.125   9.046 -0.4776 -0.7472  1.3557
 5602SOL    HW227121   5.974  11.186   8.924 -0.7787  0.6107  2.1694
 5603SOL     OW27122   0.553   9.395   8.394  0.3507 -0.2936  0.1691
 5603SOL    HW127123   0.542   9.483   8.357 -1.0830 -1.1944 -1.6967
 5603SOL    HW227124   0.576   9.411   8.486  1.4675  2.0198 -0.4241
 5604SOL     OW27125   2.835   7.517   1.925  0.1483  0.4283 -0.3923
 5604SOL    HW127126   2.889   7.590   1.894  1.6246 -0.9646 -1.3082
 5604SOL    HW227127   2.893   7.468   1.983 -1.8325  1.6540  2.8587
 5605SOL     OW27128  10.636   5.533   5.651 -0.5527 -0.7149  1.0985
 5605SOL    HW127129  10.606   5.502   5.566 -1.7820 -0.5296  1.4467
 5605SOL    HW227130  10.674   5.618   5.633 -0.6436 -0.7555  0.7044
 5606SOL     OW27131   2.098   0.455   3.077 -0.3363  0.4675 -0.3351
 5606SOL    HW127132   2.029   0.425   3.018 -0.7852 -0.1785  0.5020
 5606SOL    HW227133   2.065   0.436   3.165  1.5169 -1.2337  0.0743
 5607SOL     OW27134   4.301   3.442   6.185 -0.4044  0.6740 -0.0970
 5607SOL    HW127135   4.369   3.414   6.123 -0.5343  0.3358 -0.0914
 5607SOL    HW227136   4.241   3.368   6.189 -0.1688  0.5081  0.7543
 5608SOL     OW27137   1.526   5.888   1.170  0.0227 -0.2568 -0.3049
 5608SOL    HW127138   1.599   5.901   1.230 -1.4467 -0.0548  1.5204
 5608SOL    HW227139   1.541   5.953   1.101  0.9702  0.5416  0.6080
 5609SOL     OW27140   6.415   6.192   8.405 -0.4428 -0.3711  0.0147
 5609SOL    HW127141   6.410   6.098   8.422  1.5517 -0.6059 -0.3499
 5609SOL    HW227142   6.480   6.224   8.467 -0.7354  0.6805 -0.2057
 5610SOL     OW27143   3.205   2.639   7.522  0.0872  0.2856 -0.7105
 5610SOL    HW127144   3.275   2.628   7.458 -1.0659  1.3481 -2.2339
 5610SOL    HW227145   3.248   2.627   7.607  2.2466  1.4498 -1.5414
 5611SOL     OW27146  11.726   4.575   0.279  0.1827 -0.2331  0.4573
 5611SOL    HW127147  11.669   4.640   0.320  0.5653  0.2889  0.1783
 5611SOL    HW227148  11.686   4.557   0.194 -0.0963 -0.6089  0.6627
 5612SOL     OW27149   7.762  12.854   0.520  0.1328 -0.4807  0.3517
 5612SOL    HW127150   7.747  12.782   0.458  0.3320  0.5375 -0.9123
 5612SOL    HW227151   7.857  12.864   0.521  0.0272  2.0647 -2.2918
 5613SOL     OW27152   6.890   6.650   4.165 -0.3584  0.1339  0.2769
 5613SOL    HW127153   6.981   6.623   4.153 -0.2935  0.3778  0.2157
 5613SOL    HW227154   6.891   6.745   4.152 -0.6603  0.1086  0.0492
 5614SOL     OW27155  10.156  12.139   0.798  0.0505 -0.2349  0.4302
 5614SOL    HW127156  10.068  12.147   0.833  0.0604 -0.1757  0.4406
 5614SOL    HW227157  10.214  12.147   0.874  0.1333  1.2356  0.2437
 5615SOL     OW27158   0.729   6.118   8.773 -0.4870 -0.0996 -0.1976
 5615SOL    HW127159   0.822   6.110   8.792 -0.3292  0.3765 -0.7309
 5615SOL    HW227160   0.685   6.082   8.850  0.1246 -2.4394 -0.8573
 5616SOL     OW27161   3.775   9.667   3.648  0.3808  0.5369  0.1645
 5616SOL    HW127162   3.734   9.731   3.706  2.6418  1.6120  0.6859
 5616SOL    HW227163   3.869   9.681   3.659  0.9174 -0.6112 -2.2647
 5617SOL     OW27164  10.753   2.461   6.557 -0.1768 -0.0396 -0.5385
 5617SOL    HW127165  10.789   2.488   6.472  0.0697 -0.8876 -0.7144
 5617SOL    HW227166  10.661   2.489   6.554 -0.0402  0.3911 -0.8743
 5618SOL     OW27167   0.457   6.905   6.480 -0.3124 -0.0912  0.3752
 5618SOL    HW127168   0.372   6.899   6.523 -0.4213  4.0332  1.1126
 5618SOL    HW227169   0.438   6.944   6.395  0.8322  2.2201  1.0923
 5619SOL     OW27170   7.141   3.953   2.765 -0.6976 -0.0734 -0.1835
 5619SOL    HW127171   7.080   3.880   2.751 -0.6239  0.2828 -2.7494
 5619SOL    HW227172   7.227   3.911   2.768 -0.7788 -0.2354 -0.0708
 5620SOL     OW27173   8.429   9.700  12.955  0.2943  0.4934  0.3761
 5620SOL    HW127174   8.374   9.778  12.948  1.7309  1.4157 -3.6171
 5620SOL    HW227175   8.518   9.733  12.940  1.5772 -1.4292  3.0203
 5621SOL     OW27176   0.845   6.331   4.616  0.2828 -0.4310  0.0347
 5621SOL    HW127177   0.874   6.359   4.530  0.3726  0.7475  0.4251
 5621SOL    HW227178   0.854   6.236   4.615  1.9369 -0.3027 -0.6529
 5622SOL     OW27179   2.612  12.769   1.524  0.0122  0.0266  0.4070
 5622SOL    HW127180   2.570  12.757   1.439 -1.6091  0.3114  1.1304
 5622SOL    HW227181   2.704  12.747   1.509 -0.0711  0.8321 -1.6045
 5623SOL     OW27182   8.493   1.887  11.831  0.1810 -0.1890 -0.1856
 5623SOL    HW127183   8.418   1.880  11.890  1.0801  0.6976  1.1199
 5623SOL    HW227184   8.569   1.876  11.888  1.1110  1.4462 -1.0571
 5624SOL     OW27185   1.722  11.644   2.718  0.0630 -0.1672  0.2806
 5624SOL    HW127186   1.802  11.696   2.724  0.5161 -0.6259 -1.2278
 5624SOL    HW227187   1.675  11.680   2.642 -0.7960 -0.4033  0.6780
 5625SOL     OW27188  12.820   2.316   7.389  0.1100 -0.5603  0.3771
 5625SOL    HW127189  12.727   2.303   7.412 -0.2611  0.1227 -0.6561
 5625SOL    HW227190  12.822   2.308   7.294  1.2303 -1.1609  0.4445
 5626SOL     OW27191   8.343   7.869   7.560 -0.1733 -0.2063  0.3555
 5626SOL    HW127192   8.392   7.787   7.553  0.3506  0.1757 -0.6099
 5626SOL    HW227193   8.396   7.925   7.616 -0.0400 -0.1772  0.2002
 5627SOL     OW27194   9.269  10.027   5.357  0.3903 -0.2084 -0.0359
 5627SOL    HW127195   9.257  10.048   5.450  0.6288  0.3633 -0.1267
 5627SOL    HW227196   9.198   9.966   5.337  1.0134 -1.2331  0.7960
 5628SOL     OW27197   8.687   1.996   7.070 -0.3259 -0.1805 -0.8814
 5628SOL    HW127198   8.717   1.972   6.983 -3.2869  0.5740 -2.2490
 5628SOL    HW227199   8.593   1.976   7.069 -0.9697  2.2424  1.2337
 5629SOL     OW27200   5.519   3.229   3.036 -0.0548 -0.4677 -0.0380
 5629SOL    HW127201   5.500   3.311   3.082 -1.4918 -0.7984  0.0111
 5629SOL    HW227202   5.505   3.161   3.103 -1.0801 -0.8784 -0.6463
 5630SOL     OW27203   2.610   1.726   2.914 -0.3994  0.2731 -0.1130
 5630SOL    HW127204   2.611   1.630   2.922  0.1915  0.1619 -1.3122
 5630SOL    HW227205   2.543   1.754   2.977  0.4396 -0.8103  1.3323
 5631SOL     OW27206   2.529   9.828   5.003  0.2497  0.4759  0.5775
 5631SOL    HW127207   2.467   9.855   4.935  0.7717 -0.5866 -0.3528
 5631SOL    HW227208   2.479   9.833   5.085 -1.4967 -1.5619 -0.2727
 5632SOL     OW27209   5.434   1.672   2.899 -0.0406  0.7368 -0.3200
 5632SOL    HW127210   5.469   1.585   2.914 -0.4477  1.0036  2.5986
 5632SOL    HW227211   5.339   1.661   2.903 -0.1462  1.1598 -1.2004
 5633SOL     OW27212   8.406   1.945   6.035  0.0127  0.0644 -0.3461
 5633SOL    HW127213   8.482   2.000   6.053 -0.4261 -0.2619  3.0620
 5633SOL    HW227214   8.333   1.992   6.075 -1.4601 -0.1867 -2.5693
 5634SOL     OW27215   8.419  12.077   4.231  0.1683  0.0934  0.4435
 5634SOL    HW127216   8.393  11.989   4.205 -1.4038 -0.2689  2.9197
 5634SOL    HW227217   8.491  12.064   4.293 -1.0028  0.3978  1.9247
 5635SOL     OW27218   1.563   6.869   0.508 -0.1598  0.5431  0.4801
 5635SOL    HW127219   1.635   6.830   0.557 -0.0749  0.5688  0.3768
 5635SOL    HW227220   1.529   6.797   0.455  1.8254  1.2070 -1.8948
 5636SOL     OW27221   6.064  11.540   9.545 -0.4425  0.4799 -0.2887
 5636SOL    HW127222   6.041  11.453   9.578  1.8882  0.5118  1.6807
 5636SOL    HW227223   6.149  11.559   9.585  1.0355  2.0174 -3.7670
 5637SOL     OW27224  10.060   8.134  12.068 -0.2799  0.2754 -0.4960
 5637SOL    HW127225  10.079   8.219  12.029 -2.5964 -0.0320 -2.5955
 5637SOL    HW227226  10.127   8.075  12.032  0.1697  0.8362 -0.5847
 5638SOL     OW27227   0.078   6.997   8.120 -0.3076  0.2147  0.1047
 5638SOL    HW127228  -0.015   7.021   8.111 -0.3110  0.3586  0.4799
 5638SOL    HW227229   0.124   7.062   8.067 -0.3331  0.9491  0.9550
 5639SOL     OW27230   9.191   1.279   3.658  0.3329  0.5448  0.5976
 5639SOL    HW127231   9.267   1.312   3.706  1.4543  0.1998 -0.8663
 5639SOL    HW227232   9.138   1.235   3.724  2.2170 -0.6004  1.4105
 5640SOL     OW27233   1.573   3.717  12.932  0.3796 -0.2506 -0.1915
 5640SOL    HW127234   1.666   3.696  12.947  0.9657  0.8997 -1.8903
 5640SOL    HW227235   1.536   3.726  13.019  1.9502 -0.4243  0.5277
 5641SOL     OW27236   3.723  10.938   9.098 -0.0259  0.3950  0.2553
 5641SOL    HW127237   3.806  10.954   9.053  0.7933 -2.6822  0.4863
 5641SOL    HW227238   3.657  10.973   9.038  1.2761  0.2709 -1.3328
 5642SOL     OW27239   5.242   2.465  12.313  0.5519 -0.4420  0.0668
 5642SOL    HW127240   5.241   2.465  12.409 -0.9609  0.6173  0.0833
 5642SOL    HW227241   5.331   2.489  12.290  0.3095  1.8377  1.2635
 5643SOL     OW27242   6.118   9.551   7.783 -0.3950  0.4295  0.4078
 5643SOL    HW127243   6.038   9.599   7.760 -1.3936 -1.3956 -0.1447
 5643SOL    HW227244   6.172   9.615   7.829 -2.1226  1.7634  0.6832
 5644SOL     OW27245   1.450   3.409   5.184  0.2654 -0.0870  0.0847
 5644SOL    HW127246   1.356   3.425   5.180  0.1244 -0.9084 -3.0745
 5644SOL    HW227247   1.460   3.315   5.171  1.5203 -0.3225  2.2942
 5645SOL     OW27248  11.310   5.053   2.055 -0.0826 -0.2656  0.1829
 5645SOL    HW127249  11.400   5.074   2.082 -0.1670  0.3740 -0.0128
 5645SOL    HW227250  11.265   5.033   2.136  0.3453 -1.0144  0.2432
 5646SOL     OW27251   6.087   9.996   1.151 -0.2350  0.2523  0.7670
 5646SOL    HW127252   6.009   9.996   1.096 -0.4645 -0.7428  1.0639
 5646SOL    HW227253   6.056  10.026   1.237 -0.3394 -0.2814  0.9245
 5647SOL     OW27254   4.748   6.149   5.364  0.3125  0.3761  0.1212
 5647SOL    HW127255   4.699   6.071   5.389  0.6768  0.2719  0.5121
 5647SOL    HW227256   4.693   6.191   5.298  0.6179 -0.7847 -0.9104
 5648SOL     OW27257  11.697   7.281   7.553  0.6369 -0.5398 -0.0184
 5648SOL    HW127258  11.686   7.315   7.642  0.0861  1.3889 -0.7746
 5648SOL    HW227259  11.628   7.215   7.544 -2.3964  2.4068 -0.4078
 5649SOL     OW27260   3.334   7.155   4.304 -0.0208 -0.6012  0.3334
 5649SOL    HW127261   3.362   7.217   4.236 -2.3442 -1.0173 -1.1230
 5649SOL    HW227262   3.348   7.201   4.386  0.4588  0.9494 -0.5811
 5650SOL     OW27263   8.190   1.376   3.376 -0.5991  0.4890 -0.2887
 5650SOL    HW127264   8.184   1.460   3.330 -2.2453  0.1268 -0.7954
 5650SOL    HW227265   8.276   1.378   3.418 -0.7427  2.5832  0.0173
 5651SOL     OW27266   0.353   3.594   9.126 -0.3719  0.4678 -0.3301
 5651SOL    HW127267   0.268   3.597   9.170  0.1490 -0.0040  0.7404
 5651SOL    HW227268   0.365   3.502   9.103 -0.2438  0.5684 -0.6668
 5652SOL     OW27269   7.209   7.694  10.191 -0.6648  0.0852  0.3491
 5652SOL    HW127270   7.145   7.680  10.122 -1.3088  1.6121  0.6142
 5652SOL    HW227271   7.171   7.653  10.269 -0.0869 -1.3420 -0.0792
 5653SOL     OW27272   8.392   3.433   2.639  0.2894  0.2663 -0.1151
 5653SOL    HW127273   8.376   3.384   2.720  0.6522  0.8073  0.2931
 5653SOL    HW227274   8.308   3.432   2.593  0.2395 -0.5460 -0.0080
 5654SOL     OW27275   3.676   4.915   2.895  0.1798  0.5409  0.0482
 5654SOL    HW127276   3.627   4.833   2.888  1.4356 -0.4792  1.9453
 5654SOL    HW227277   3.724   4.906   2.978  0.9607  2.8793 -0.0882
 5655SOL     OW27278   3.877   4.987   1.704 -0.2636 -0.1306 -0.2192
 5655SOL    HW127279   3.852   5.072   1.668 -0.2463 -0.3446 -0.7303
 5655SOL    HW227280   3.899   4.934   1.628 -2.1804 -1.2246 -0.0541
 5656SOL     OW27281   8.144   8.684   2.497  0.1513  0.1444  0.2085
 5656SOL    HW127282   8.111   8.658   2.583 -0.9624 -0.7244 -0.4397
 5656SOL    HW227283   8.199   8.611   2.469 -0.7694 -0.3323 -0.4544
 5657SOL     OW27284   3.463   1.283   2.820 -0.3821 -0.6723 -0.4226
 5657SOL    HW127285   3.437   1.374   2.839  0.3828 -0.6673  0.7055
 5657SOL    HW227286   3.555   1.289   2.794 -0.5798 -1.0362 -1.2224
 5658SOL     OW27287  12.929   1.548  12.821 -0.0246 -0.6163 -0.3592
 5658SOL    HW127288  12.836   1.527  12.834  0.5371 -1.5001  3.9870
 5658SOL    HW227289  12.969   1.467  12.791 -0.2583 -1.1324  0.6874
 5659SOL     OW27290  11.613   5.928   6.218 -0.1197 -0.5042 -0.1707
 5659SOL    HW127291  11.531   5.974   6.236 -0.6110 -0.1762 -2.8674
 5659SOL    HW227292  11.672   5.995   6.185  0.6840 -1.0468  0.1252
 5660SOL     OW27293   4.902  10.898   3.394  0.4830  0.8644  0.1566
 5660SOL    HW127294   4.883  10.990   3.410 -0.5570  0.5255  0.9973
 5660SOL    HW227295   4.990  10.898   3.355  0.1438  2.2616 -0.6949
 5661SOL     OW27296   0.928   9.123   7.405 -0.0944  0.0007  0.1487
 5661SOL    HW127297   0.953   9.035   7.433  0.9068  0.4469  0.7002
 5661SOL    HW227298   0.996   9.149   7.343  0.0093  0.6425  0.5193
 5662SOL     OW27299   3.436   2.297   4.234 -0.0488 -0.2187  0.5350
 5662SOL    HW127300   3.518   2.299   4.185  0.3343 -1.7301  1.0579
 5662SOL    HW227301   3.375   2.348   4.181 -0.3021 -3.4512 -2.7171
 5663SOL     OW27302  10.259   4.837   4.657 -0.3720  0.6588  0.4621
 5663SOL    HW127303  10.317   4.896   4.706  0.1461  0.4857  0.0602
 5663SOL    HW227304  10.201   4.800   4.724 -1.2502  2.2371  0.6220
 5664SOL     OW27305   5.785   0.215   9.079  0.2788  0.2720 -0.5608
 5664SOL    HW127306   5.694   0.191   9.099  0.0017  2.1953  0.7257
 5664SOL    HW227307   5.835   0.135   9.094 -1.0458 -0.5077 -0.1595
 5665SOL     OW27308  10.491   8.850  10.543  0.1082  0.5812 -0.2928
 5665SOL    HW127309  10.432   8.857  10.617 -0.3452 -0.8493 -0.4797
 5665SOL    HW227310  10.455   8.910  10.477  0.3675  1.6602  0.5295
 5666SOL     OW27311  12.131   8.555   7.170 -0.7066 -0.3233 -0.3889
 5666SOL    HW127312  12.162   8.630   7.119 -0.8760 -1.5676 -2.4460
 5666SOL    HW227313  12.073   8.593   7.235  2.5505  1.7446  1.5473
 5667SOL     OW27314   5.669   2.892   6.680 -0.0253  0.1663 -0.3098
 5667SOL    HW127315   5.709   2.948   6.746 -2.4600 -0.1347  1.5653
 5667SOL    HW227316   5.685   2.803   6.711 -1.0483  0.0156 -0.1797
 5668SOL     OW27317   6.615  11.659   1.098  0.2433  0.4792 -0.0537
 5668SOL    HW127318   6.709  11.654   1.116  0.4412 -2.6474 -1.3386
 5668SOL    HW227319   6.573  11.619   1.174 -0.2510  3.0819  1.1479
 5669SOL     OW27320   1.104   4.216   3.817 -0.5538 -0.0592  0.2991
 5669SOL    HW127321   1.192   4.182   3.833 -0.4973 -0.0291  0.0635
 5669SOL    HW227322   1.110   4.310   3.837 -0.9283 -0.3317  1.7842
 5670SOL     OW27323   8.967   5.116   3.536  0.2730 -0.3641  0.6462
 5670SOL    HW127324   8.950   5.110   3.630  0.0071  3.3234  0.9541
 5670SOL    HW227325   9.048   5.166   3.529 -0.6646  1.0180 -1.0782
 5671SOL     OW27326   6.936   9.935   0.115  0.0496 -0.1115 -0.3277
 5671SOL    HW127327   6.962  10.014   0.163  0.6386 -1.2146  1.2384
 5671SOL    HW227328   7.003   9.925   0.048 -0.1456  0.8232 -0.6843
 5672SOL     OW27329   6.605   6.231   8.157  0.1565 -0.0862  0.2454
 5672SOL    HW127330   6.607   6.204   8.249 -1.9995 -1.4570 -0.0286
 5672SOL    HW227331   6.605   6.326   8.160  0.2628 -0.1033  1.6623
 5673SOL     OW27332   4.946   6.796   3.372 -0.4764 -0.5857  0.4022
 5673SOL    HW127333   4.861   6.756   3.390 -0.8548  0.4862  1.0354
 5673SOL    HW227334   4.934   6.843   3.290 -0.3641 -0.8095  0.2574
 5674SOL     OW27335  12.123   9.935   5.602  0.5613 -0.1874  0.1992
 5674SOL    HW127336  12.205   9.951   5.556 -0.6335  0.2000 -1.9843
 5674SOL    HW227337  12.090   9.853   5.564 -1.1724  0.9054 -0.8304
 5675SOL     OW27338  12.653   2.581   6.863 -0.3484 -0.0659 -0.7410
 5675SOL    HW127339  12.613   2.497   6.888  1.2446 -0.8887 -0.8118
 5675SOL    HW227340  12.656   2.577   6.767  0.3867 -0.2711 -0.7173
 5676SOL     OW27341   7.401   7.919   7.323  0.1252 -0.4366 -0.0660
 5676SOL    HW127342   7.343   7.993   7.303  0.4049 -0.5753 -1.5114
 5676SOL    HW227343   7.466   7.954   7.384 -0.6690  0.0793  0.5031
 5677SOL     OW27344   4.456  12.668   8.634  0.2767  0.2935  0.4590
 5677SOL    HW127345   4.484  12.628   8.552 -0.0121  0.4360  0.2864
 5677SOL    HW227346   4.419  12.596   8.685 -0.9769  0.4638 -0.1773
 5678SOL     OW27347   9.596   4.419   1.247  0.7009  0.6390 -0.2184
 5678SOL    HW127348   9.596   4.413   1.152  0.8850  1.1588 -0.2590
 5678SOL    HW227349   9.689   4.414   1.271  0.6654  0.6492 -0.0798
 5679SOL     OW27350  11.773   4.244  11.138  0.1073 -0.0988  0.1704
 5679SOL    HW127351  11.861   4.231  11.173 -0.1248  1.1410  1.2851
 5679SOL    HW227352  11.759   4.338  11.140 -2.2042 -0.3695  2.5439
 5680SOL     OW27353   4.844   1.844  11.617  0.3183  0.3079 -0.4877
 5680SOL    HW127354   4.898   1.901  11.563 -0.1282  1.3551  0.1526
 5680SOL    HW227355   4.851   1.881  11.705 -0.7089 -0.0883 -0.2342
 5681SOL     OW27356   8.992  10.814   4.504  0.6325  0.7925 -0.3229
 5681SOL    HW127357   8.997  10.882   4.571 -0.2928  0.1816  0.3920
 5681SOL    HW227358   8.971  10.734   4.553  2.4999 -0.1914 -1.0361
 5682SOL     OW27359   0.295  12.621   5.596 -0.1000  0.3824  0.3906
 5682SOL    HW127360   0.264  12.532   5.611 -2.2610  1.0951  0.5265
 5682SOL    HW227361   0.323  12.621   5.504  1.1658 -0.7488  0.7577
 5683SOL     OW27362   1.518   6.475  12.502  0.3500  0.3287 -0.2831
 5683SOL    HW127363   1.527   6.390  12.544 -1.7556  0.1063 -0.1778
 5683SOL    HW227364   1.476   6.457  12.418 -0.0595  1.2400 -0.2862
 5684SOL     OW27365   2.431   4.267   2.347 -0.1773  0.1007  0.4556
 5684SOL    HW127366   2.358   4.294   2.403 -0.5318 -3.3261  1.9292
 5684SOL    HW227367   2.390   4.236   2.267 -0.1133  0.5327  0.2566
 5685SOL     OW27368   4.611   4.637   7.222  0.0186 -0.3823 -0.5557
 5685SOL    HW127369   4.531   4.628   7.273  0.8004 -0.0680  0.7779
 5685SOL    HW227370   4.616   4.556   7.171 -0.7058 -0.7779 -0.0159
 5686SOL     OW27371  12.684   1.416  12.900 -0.2049  0.5189 -0.1715
 5686SOL    HW127372  12.601   1.387  12.937  1.2040 -0.9206  2.1369
 5686SOL    HW227373  12.730   1.335  12.878  0.9683  1.2418 -0.4769
 5687SOL     OW27374   1.617   8.244   5.677  0.4971 -1.1112  0.5890
 5687SOL    HW127375   1.568   8.261   5.757  0.5654  0.8305  0.2607
 5687SOL    HW227376   1.551   8.226   5.611 -0.0504  2.8265 -0.1797
 5688SOL     OW27377   6.482   8.399   7.310 -0.3100 -0.3658 -0.3893
 5688SOL    HW127378   6.491   8.493   7.325  0.2607 -0.3178 -1.0062
 5688SOL    HW227379   6.436   8.367   7.387 -0.0317  0.3315  0.0772
 5689SOL     OW27380   5.435   0.742   7.477 -0.2312  0.0324  0.3126
 5689SOL    HW127381   5.339   0.748   7.472 -0.2531 -1.0858 -1.3764
 5689SOL    HW227382   5.457   0.665   7.424  1.6195  0.3535  0.5526
 5690SOL     OW27383   9.209   0.321   4.097  0.0271 -0.1109  0.1688
 5690SOL    HW127384   9.198   0.227   4.115 -0.3885  0.2167  1.8210
 5690SOL    HW227385   9.230   0.359   4.182  0.7040  1.2355 -0.5708
 5691SOL     OW27386   4.963   8.318   6.191 -0.2012 -0.3385  0.0221
 5691SOL    HW127387   5.027   8.254   6.223 -0.6475  0.4083  2.7205
 5691SOL    HW227388   4.887   8.266   6.165 -0.5790 -1.0071  2.2139
 5692SOL     OW27389   4.323   1.984   1.545 -0.7428 -0.2908  0.5564
 5692SOL    HW127390   4.312   2.068   1.590 -1.0762  0.0125 -0.0743
 5692SOL    HW227391   4.290   2.000   1.456 -0.9733 -1.1396  0.4812
 5693SOL     OW27392   9.519   1.534   6.249 -0.1050  0.1337  0.5071
 5693SOL    HW127393   9.531   1.442   6.227 -0.6273  0.1259  0.2362
 5693SOL    HW227394   9.482   1.573   6.170  1.4728  0.8940  0.1005
 5694SOL     OW27395   4.415   0.365   4.506  0.0042  0.2336 -0.0751
 5694SOL    HW127396   4.338   0.423   4.505  0.1551  0.4425 -1.1770
 5694SOL    HW227397   4.392   0.295   4.567 -1.3930 -0.1243 -0.9607
 5695SOL     OW27398   3.828   7.799   4.454  0.1136  0.7530  0.2341
 5695SOL    HW127399   3.841   7.707   4.477  0.7943  0.9814  0.8221
 5695SOL    HW227400   3.735   7.806   4.437  0.0315 -0.0205  0.3019
 5696SOL     OW27401   1.848   1.743   6.605  0.3879 -0.0075  0.0407
 5696SOL    HW127402   1.786   1.815   6.591 -0.5063 -0.2399  2.3074
 5696SOL    HW227403   1.807   1.689   6.673  1.1523 -2.5485 -1.3595
 5697SOL     OW27404   7.728  10.406  12.132  0.0947 -0.3992 -0.1379
 5697SOL    HW127405   7.681  10.323  12.130 -0.1943 -0.2442 -2.8085
 5697SOL    HW227406   7.660  10.473  12.123  0.5934 -0.0793 -1.8897
 5698SOL     OW27407   0.115   6.345   2.049  0.0099  0.2057 -0.6251
 5698SOL    HW127408   0.055   6.375   2.117 -0.0531 -0.8627 -0.1906
 5698SOL    HW227409   0.101   6.406   1.976 -0.9747  0.4880 -0.2205
 5699SOL     OW27410   4.558   5.513   3.606 -0.0904 -0.0601  0.4275
 5699SOL    HW127411   4.552   5.418   3.610  2.0106 -0.2253  0.7928
 5699SOL    HW227412   4.648   5.530   3.576 -1.1299  1.7806 -1.9986
 5700SOL     OW27413  10.582   2.186   9.180 -0.0740  0.1549  0.4300
 5700SOL    HW127414  10.642   2.173   9.253  0.8102  0.5831 -0.2030
 5700SOL    HW227415  10.624   2.253   9.126 -1.5009  1.0388  0.3774
 5701SOL     OW27416   5.004  10.647   5.142 -0.3667 -0.3940 -0.1746
 5701SOL    HW127417   5.060  10.723   5.123 -0.5694 -0.4223 -0.9340
 5701SOL    HW227418   4.915  10.682   5.138 -0.4110 -0.2338  1.5652
 5702SOL     OW27419   5.359   4.220   3.838 -0.2176  0.2705  0.8604
 5702SOL    HW127420   5.426   4.154   3.852  0.9531  1.2740  0.2346
 5702SOL    HW227421   5.329   4.205   3.748 -0.0355  0.5030  0.7588
 5703SOL     OW27422   7.983   7.395   4.019 -0.0088 -0.1081  0.2949
 5703SOL    HW127423   7.938   7.440   4.090 -0.2798 -0.7683  0.5525
 5703SOL    HW227424   7.927   7.319   4.000  1.7420 -1.8336  1.6638
 5704SOL     OW27425  12.669   6.479   2.014 -0.2102 -0.4358  0.1594
 5704SOL    HW127426  12.689   6.437   1.930  1.8659 -1.5037  1.1113
 5704SOL    HW227427  12.743   6.538   2.030  0.9108 -2.2613  2.4271
 5705SOL     OW27428  11.304   8.709  10.132 -0.1571  0.0785 -0.3821
 5705SOL    HW127429  11.350   8.679  10.054 -0.0663  0.6232 -0.5444
 5705SOL    HW227430  11.219   8.665  10.128 -0.6166  0.9969 -1.4333
 5706SOL     OW27431  10.006   8.796   4.972  0.4532 -0.1729 -0.0688
 5706SOL    HW127432  10.014   8.790   5.067  0.0600  0.1962 -0.0096
 5706SOL    HW227433  10.095   8.817   4.942  0.6363 -0.5617  0.1908
 5707SOL     OW27434   2.238  12.246   7.912 -0.5028 -0.6890  0.1900
 5707SOL    HW127435   2.174  12.239   7.983 -0.8428 -0.1735 -0.0546
 5707SOL    HW227436   2.233  12.162   7.866  0.7065 -1.5607  1.5753
 5708SOL     OW27437   8.273   0.574   3.650  0.4183  0.4428 -0.1179
 5708SOL    HW127438   8.312   0.582   3.737  0.9364  0.7230 -0.3703
 5708SOL    HW227439   8.186   0.613   3.659  0.0474 -0.4999  0.5344
 5709SOL     OW27440  10.842   6.360  12.563 -0.1111  0.2928 -0.3518
 5709SOL    HW127441  10.893   6.383  12.641  0.9437  0.2887 -1.0275
 5709SOL    HW227442  10.822   6.267  12.573  1.0647 -0.0034 -0.6587
 5710SOL     OW27443   9.561   6.448   5.494 -0.1508 -0.3256  0.0320
 5710SOL    HW127444   9.513   6.443   5.412  0.6049  2.0707 -0.6469
 5710SOL    HW227445   9.494   6.454   5.562 -0.8512  1.6415 -0.7797
 5711SOL     OW27446   6.721   2.717   8.176  0.1760 -0.6855  0.3589
 5711SOL    HW127447   6.694   2.629   8.203 -0.1658  0.1730  3.1627
 5711SOL    HW227448   6.816   2.717   8.183  0.3843 -1.4335 -1.8673
 5712SOL     OW27449   4.700   7.406  10.756 -0.2855  0.0291  0.2172
 5712SOL    HW127450   4.742   7.362  10.830 -0.3960 -1.7697 -0.7123
 5712SOL    HW227451   4.616   7.361  10.746 -0.1544  0.0461 -1.1497
 5713SOL     OW27452   8.517  11.580  11.720 -0.1924 -0.8840 -0.2750
 5713SOL    HW127453   8.559  11.570  11.635 -0.0343 -0.2103 -0.2820
 5713SOL    HW227454   8.589  11.603  11.779 -0.3915 -0.7613 -0.0788
 5714SOL     OW27455   9.021   4.604   3.174  0.1176  0.2793 -0.5593
 5714SOL    HW127456   9.029   4.576   3.265 -2.2405  0.7384 -0.1434
 5714SOL    HW227457   9.109   4.634   3.151  1.1020 -1.1057  1.1008
 5715SOL     OW27458   8.210   8.574  11.329  0.0744  0.0780 -0.5960
 5715SOL    HW127459   8.128   8.591  11.281 -0.5429 -1.0832  0.0266
 5715SOL    HW227460   8.230   8.657  11.372 -0.4937  0.5206 -1.1638
 5716SOL     OW27461  10.610   3.526   3.283 -0.7450 -0.1652  0.1226
 5716SOL    HW127462  10.635   3.434   3.282 -1.3390 -0.3435  0.9470
 5716SOL    HW227463  10.691   3.572   3.308 -1.3769 -0.8382  3.9368
 5717SOL     OW27464   4.192   3.231   4.915 -0.0059  0.1280  0.3556
 5717SOL    HW127465   4.229   3.143   4.907 -0.0042  0.1870 -0.4258
 5717SOL    HW227466   4.188   3.248   5.009 -2.4016 -1.7335  0.7047
 5718SOL     OW27467  11.456  10.513   5.877  0.3369  0.1807  0.2187
 5718SOL    HW127468  11.548  10.492   5.860  0.4912  0.2094  0.9554
 5718SOL    HW227469  11.451  10.608   5.863  0.6602  0.3458  1.1189
 5719SOL     OW27470   4.696   2.560   4.252 -0.2282  0.1423 -0.2426
 5719SOL    HW127471   4.663   2.637   4.206  1.2991  1.8941  1.4527
 5719SOL    HW227472   4.618   2.512   4.279 -1.2252  1.4329 -0.7688
 5720SOL     OW27473   4.512   8.407  11.270  0.4746  0.0037  0.5643
 5720SOL    HW127474   4.513   8.496  11.304  1.2336 -0.3971  1.6345
 5720SOL    HW227475   4.540   8.417  11.179  2.2516  0.7019  1.1408
 5721SOL     OW27476   2.481  10.899   2.106 -0.1506  0.2361  0.5454
 5721SOL    HW127477   2.525  10.893   2.021 -0.1921  1.1144  0.4485
 5721SOL    HW227478   2.492  10.991   2.131 -1.2085  0.2707  0.9063
 5722SOL     OW27479   2.143  12.841   5.403  0.4267  0.0683  0.0851
 5722SOL    HW127480   2.054  12.850   5.437  1.5319  4.8080  2.5862
 5722SOL    HW227481   2.132  12.841   5.307 -2.3123  2.2371  0.2517
 5723SOL     OW27482   3.142   3.693   9.726 -0.2911 -0.3517 -0.1781
 5723SOL    HW127483   3.208   3.637   9.685  1.0468  0.7248  0.4744
 5723SOL    HW227484   3.065   3.683   9.669  0.3788 -1.6874 -0.9042
 5724SOL     OW27485   8.922   1.484  10.676 -0.3648  0.3336  0.1415
 5724SOL    HW127486   9.001   1.431  10.694 -1.0804 -0.5579  0.7597
 5724SOL    HW227487   8.952   1.552  10.616  0.7920 -0.2450  0.0349
 5725SOL     OW27488   3.491  10.065   9.761  0.1637 -0.5427  0.3093
 5725SOL    HW127489   3.424  10.132   9.748 -0.5258 -1.3409 -0.3604
 5725SOL    HW227490   3.464  10.019   9.841 -0.7502 -1.5926 -0.5672
 5726SOL     OW27491   0.839   2.349   5.912  0.2248  0.3928  0.6326
 5726SOL    HW127492   0.907   2.293   5.873 -0.8121 -0.0477 -0.6122
 5726SOL    HW227493   0.826   2.419   5.848 -1.5652 -0.3855  0.1012
 5727SOL     OW27494   1.567   0.859   8.735 -0.8983 -0.0583  0.0859
 5727SOL    HW127495   1.531   0.867   8.647 -1.0455 -0.6111  0.0914
 5727SOL    HW227496   1.491   0.866   8.793 -0.7825  0.4635  0.1785
 5728SOL     OW27497   7.260   9.025   6.137 -0.0011  0.4778  0.7273
 5728SOL    HW127498   7.351   9.012   6.109 -0.6427 -0.0182 -1.3385
 5728SOL    HW227499   7.265   9.030   6.232  2.3938  2.2577  0.6063
 5729SOL     OW27500  11.315  12.670   6.403  0.1194  0.3277  0.3222
 5729SOL    HW127501  11.294  12.605   6.336  1.2019  2.4273 -2.2298
 5729SOL    HW227502  11.231  12.690   6.445 -1.0744  0.6008 -2.0381
 5730SOL     OW27503   4.227   2.799   2.651  0.3153  0.1358 -0.1117
 5730SOL    HW127504   4.140   2.765   2.668  1.5225 -2.1944  2.1079
 5730SOL    HW227505   4.243   2.779   2.559 -0.2592 -2.6615  0.3050
 5731SOL     OW27506   3.942   4.683   4.051  0.7761 -0.7143 -0.5986
 5731SOL    HW127507   4.006   4.733   4.001  1.3971 -1.1812 -0.2922
 5731SOL    HW227508   3.912   4.744   4.119  1.2802 -0.6507 -0.4280
 5732SOL     OW27509   5.549   1.504   7.685 -0.2620 -0.0049  0.0734
 5732SOL    HW127510   5.540   1.481   7.592  1.9063  0.5112 -0.3210
 5732SOL    HW227511   5.485   1.448   7.729 -0.5870 -1.0669 -1.6204
 5733SOL     OW27512  11.832   8.028   8.316 -0.0572 -0.1735  0.3146
 5733SOL    HW127513  11.890   8.018   8.240  0.7344  0.8999  0.7594
 5733SOL    HW227514  11.744   8.026   8.279  0.3299  1.1651 -0.7533
 5734SOL     OW27515   1.401   2.564   2.781  0.2044 -0.4387  0.1997
 5734SOL    HW127516   1.488   2.530   2.760 -0.0673  0.0750 -1.9829
 5734SOL    HW227517   1.416   2.657   2.797  0.1096 -0.4153  0.1527
 5735SOL     OW27518   4.389   8.982   8.393 -0.5403  0.4722 -0.4678
 5735SOL    HW127519   4.412   8.910   8.334  1.1179 -0.2973  1.0309
 5735SOL    HW227520   4.371   8.940   8.477 -0.7227  1.7190  0.1428
 5736SOL     OW27521   9.033   7.964   4.422  0.0517 -0.1660  0.5086
 5736SOL    HW127522   9.125   7.939   4.423 -0.4556 -2.2447  1.5129
 5736SOL    HW227523   8.989   7.894   4.469 -2.0642  0.7827  0.0636
 5737SOL     OW27524  12.790   9.744   1.409 -0.2357 -0.2791  0.3678
 5737SOL    HW127525  12.884   9.752   1.423 -0.1553 -0.5015 -0.0398
 5737SOL    HW227526  12.751   9.788   1.485  0.1767  1.8969 -0.6009
 5738SOL     OW27527  11.896   6.079  12.125 -0.3321  0.2118  0.1174
 5738SOL    HW127528  11.807   6.072  12.093 -0.4131  0.6880  0.2427
 5738SOL    HW227529  11.905   6.169  12.154  0.3834  0.3383 -0.4615
 5739SOL     OW27530   2.254   4.442   4.763 -0.1355 -0.1335  0.4738
 5739SOL    HW127531   2.159   4.453   4.775 -0.2540 -1.2394  0.6133
 5739SOL    HW227532   2.264   4.416   4.672  0.4554  4.3575 -1.0258
 5740SOL     OW27533   3.492  10.409   1.681 -0.2468  0.4316  0.5743
 5740SOL    HW127534   3.493  10.412   1.777  1.5883 -0.2346  0.6004
 5740SOL    HW227535   3.534  10.490   1.654 -1.3903  0.9560  0.2846
 5741SOL     OW27536   2.206   6.381  10.444 -0.0110 -0.8658  0.7649
 5741SOL    HW127537   2.278   6.322  10.466  0.5927 -0.9435 -1.1904
 5741SOL    HW227538   2.244   6.469  10.449  0.4274 -0.9381 -0.8362
 5742SOL     OW27539  12.884   4.173   8.604 -0.5319  0.7841  0.3518
 5742SOL    HW127540  12.863   4.080   8.614  1.1474  0.5162  2.3186
 5742SOL    HW227541  12.800   4.217   8.601 -1.3636 -0.7409  0.2233
 5743SOL     OW27542  12.819   2.377  11.023  0.1231  0.0693 -0.0942
 5743SOL    HW127543  12.750   2.394  10.958 -1.2836  0.8051  1.5034
 5743SOL    HW227544  12.837   2.463  11.061 -1.9717 -0.7891  3.1968
 5744SOL     OW27545   8.673   1.749   1.172  0.0746  0.4455  0.0236
 5744SOL    HW127546   8.666   1.718   1.082 -0.6029  0.4023  0.0824
 5744SOL    HW227547   8.766   1.769   1.184  0.0803  1.0035 -0.8647
 5745SOL     OW27548   3.070   4.149  11.370  0.3049  0.5482  0.0187
 5745SOL    HW127549   3.075   4.054  11.380  1.0417  0.6405  0.6408
 5745SOL    HW227550   3.153   4.181  11.405  0.0646  1.4243 -0.1877
 5746SOL     OW27551  10.829   8.463  11.362 -0.4534  0.5264  0.2339
 5746SOL    HW127552  10.795   8.545  11.397  1.6601  0.8585  1.6711
 5746SOL    HW227553  10.920   8.482  11.340 -0.1788 -1.2144 -0.2775
 5747SOL     OW27554   1.707  10.296   5.707 -0.0453  0.8286 -0.2321
 5747SOL    HW127555   1.708  10.350   5.628  1.1099 -0.5272 -1.1951
 5747SOL    HW227556   1.689  10.358   5.778 -1.1423  2.0895 -1.5269
 5748SOL     OW27557   3.721   7.799   3.524 -0.3269  0.6974  0.2577
 5748SOL    HW127558   3.716   7.763   3.613  2.5363  0.4073  0.3890
 5748SOL    HW227559   3.743   7.724   3.469  0.8179  1.3788 -0.2364
 5749SOL     OW27560   9.376   6.661   2.558 -0.2481 -0.0355  0.1993
 5749SOL    HW127561   9.362   6.580   2.607  1.9698 -1.2155 -0.9513
 5749SOL    HW227562   9.391   6.633   2.468 -1.0687  1.8193 -0.5645
 5750SOL     OW27563  12.221  10.235   1.639 -0.1413 -0.6216 -0.8138
 5750SOL    HW127564  12.127  10.247   1.635 -0.0449  0.6226  0.0725
 5750SOL    HW227565  12.253  10.312   1.686  1.3952 -0.6326 -1.7786
 5751SOL     OW27566   2.181  10.689   2.957 -0.1802 -0.1315 -0.0850
 5751SOL    HW127567   2.238  10.759   2.926 -0.2267  0.4837  1.1592
 5751SOL    HW227568   2.094  10.715   2.928 -0.4483  1.2065  1.7211
 5752SOL     OW27569  12.357   4.424   1.633 -0.0299 -0.0250  0.3644
 5752SOL    HW127570  12.314   4.508   1.654  0.9944  0.5890  0.0473
 5752SOL    HW227571  12.442   4.449   1.596 -0.9809 -1.1027 -2.8743
 5753SOL     OW27572   2.638  11.278   5.368  0.2319 -0.0044  0.2673
 5753SOL    HW127573   2.703  11.342   5.337 -0.5145  1.4125  1.4786
 5753SOL    HW227574   2.557  11.303   5.323  0.1482 -0.7454 -0.0076
 5754SOL     OW27575   6.624  11.747   2.448 -0.1200 -0.3678  0.2712
 5754SOL    HW127576   6.567  11.817   2.479  1.4908  0.4829  1.4920
 5754SOL    HW227577   6.661  11.709   2.528 -0.2067 -1.9777 -0.4137
 5755SOL     OW27578   3.273   2.336  12.551 -0.1423  0.1201  0.1511
 5755SOL    HW127579   3.326   2.395  12.605 -0.2227  1.3394 -1.0461
 5755SOL    HW227580   3.337   2.280  12.506 -0.0977 -1.3936  1.9661
 5756SOL     OW27581   5.897  11.235   7.261  0.3382 -0.1648  0.9264
 5756SOL    HW127582   5.916  11.190   7.343  1.2652 -1.8942 -0.1905
 5756SOL    HW227583   5.971  11.294   7.248  1.2503 -1.4036  0.3374
 5757SOL     OW27584  12.001   4.579   4.187  0.0128 -0.0480  0.4096
 5757SOL    HW127585  12.021   4.640   4.116 -1.1338  1.3582  1.2325
 5757SOL    HW227586  11.922   4.616   4.228 -0.2352 -1.6601  1.4527
 5758SOL     OW27587  12.347   1.257   0.763  0.2637  0.3842  0.0436
 5758SOL    HW127588  12.299   1.180   0.733  0.7400 -0.0164  0.2931
 5758SOL    HW227589  12.316   1.328   0.707 -0.8211  0.1968  0.3750
 5759SOL     OW27590   2.291   3.257   2.763 -0.7195 -0.3559 -0.5246
 5759SOL    HW127591   2.290   3.200   2.840 -1.4085  1.4839  0.8970
 5759SOL    HW227592   2.349   3.212   2.701 -1.2947 -2.6104  0.4654
 5760SOL     OW27593   1.232   5.754  12.132 -0.0920 -0.0088 -0.1297
 5760SOL    HW127594   1.271   5.819  12.074  1.1631  0.4168  1.1245
 5760SOL    HW227595   1.285   5.758  12.211 -2.0871 -0.1324  1.2953
 5761SOL     OW27596   4.711   0.812   0.523  0.1109 -0.3295 -0.6714
 5761SOL    HW127597   4.645   0.881   0.538 -0.2544 -0.7210 -0.4513
 5761SOL    HW227598   4.659   0.732   0.512  0.3845 -0.2268 -3.2377
 5762SOL     OW27599   5.932   6.771   9.941  0.3302  0.3462 -0.0990
 5762SOL    HW127600   5.966   6.681   9.942  0.3370  0.3123  2.1653
 5762SOL    HW227601   5.919   6.792  10.033 -0.1098  2.5259 -0.6140
 5763SOL     OW27602   6.200   3.063   3.569 -0.0977 -0.7075  0.0896
 5763SOL    HW127603   6.247   3.065   3.652 -1.0983  0.8572  0.6578
 5763SOL    HW227604   6.109   3.045   3.593 -0.4705  0.1442 -0.6118
 5764SOL     OW27605  12.493   5.632   3.027  0.7112  0.0046  0.0269
 5764SOL    HW127606  12.552   5.663   3.096  0.8704  0.6379 -0.3856
 5764SOL    HW227607  12.443   5.562   3.068  1.4174 -0.2224  0.5282
 5765SOL     OW27608   6.529   4.714   2.729 -0.7784  0.4419  0.0934
 5765SOL    HW127609   6.525   4.702   2.824  3.0089  1.7486  0.5890
 5765SOL    HW227610   6.548   4.626   2.695  1.4701  0.4869  1.0265
 5766SOL     OW27611   5.052   7.926   9.335 -0.1071  0.1756  0.5484
 5766SOL    HW127612   4.962   7.893   9.338 -0.4431  1.1145  1.0715
 5766SOL    HW227613   5.050   7.998   9.272  0.7358 -1.0625 -0.9569
 5767SOL     OW27614  11.196  12.471   0.188  0.4461 -0.4322 -0.9934
 5767SOL    HW127615  11.199  12.547   0.130 -0.6481 -1.1943 -2.0922
 5767SOL    HW227616  11.181  12.508   0.275 -1.0427  0.5594 -1.6438
 5768SOL     OW27617   8.162   0.862   5.875  0.7559 -0.2601 -0.4626
 5768SOL    HW127618   8.180   0.869   5.781  2.8289  1.5588  0.0016
 5768SOL    HW227619   8.104   0.935   5.894  1.3002  0.0784 -0.1140
 5769SOL     OW27620   1.385   6.227   8.466  0.1907  0.1683  0.3264
 5769SOL    HW127621   1.411   6.161   8.529 -1.7116 -0.2854  0.6967
 5769SOL    HW227622   1.433   6.205   8.386 -0.2833 -1.5778  0.4855
 5770SOL     OW27623  11.788  12.517  11.885 -0.2621 -0.1987  0.2936
 5770SOL    HW127624  11.738  12.593  11.914  0.3065  0.1887  0.2715
 5770SOL    HW227625  11.816  12.539  11.796 -1.5724 -1.1742 -0.3998
 5771SOL     OW27626   2.217   6.588   3.287  0.2227  0.4627 -0.6800
 5771SOL    HW127627   2.137   6.632   3.258 -0.5282  0.9922  1.9757
 5771SOL    HW227628   2.268   6.657   3.329  0.7566 -0.4468  0.2037
 5772SOL     OW27629   1.688   2.027  10.328 -0.6193 -0.3528  0.1161
 5772SOL    HW127630   1.689   2.075  10.411 -0.0897 -0.6028  0.2607
 5772SOL    HW227631   1.687   1.935  10.354 -0.6064 -0.4294 -0.1539
 5773SOL     OW27632   6.517   6.588   2.760 -0.3712 -0.2859  0.2124
 5773SOL    HW127633   6.423   6.573   2.758 -0.3371 -0.5408  0.5066
 5773SOL    HW227634   6.526   6.681   2.783 -0.5402 -0.4318  0.8798
 5774SOL     OW27635   0.724   8.340   2.987  0.3825  0.4898 -0.1602
 5774SOL    HW127636   0.780   8.335   3.065 -0.9878  0.8864  0.8982
 5774SOL    HW227637   0.699   8.249   2.970  0.2219  0.4573  0.2305
 5775SOL     OW27638   4.711   0.496   7.069  0.1025 -0.0587 -0.7750
 5775SOL    HW127639   4.628   0.486   7.116  0.1706 -0.5444 -0.7563
 5775SOL    HW227640   4.726   0.411   7.027  0.2622  0.2309 -1.3182
 5776SOL     OW27641   2.546   7.675   2.380  0.6300 -0.3927  0.2492
 5776SOL    HW127642   2.605   7.656   2.307  0.1559 -0.3196 -0.1633
 5776SOL    HW227643   2.587   7.635   2.456  2.0539  1.0508  0.2945
 5777SOL     OW27644   4.767   7.143   0.626 -0.0084  0.0240 -0.1686
 5777SOL    HW127645   4.720   7.211   0.673 -0.4277  0.0863 -0.6718
 5777SOL    HW227646   4.824   7.102   0.692 -1.6596 -0.8675  0.7512
 5778SOL     OW27647   2.753   3.687  12.501  0.1227  0.0580  0.7433
 5778SOL    HW127648   2.823   3.628  12.531  3.1741  2.6455 -0.7334
 5778SOL    HW227649   2.769   3.769  12.548  0.2470  1.7415 -1.9929
 5779SOL     OW27650   8.278   9.317  10.330 -0.4941 -0.6572  0.7282
 5779SOL    HW127651   8.268   9.412  10.320 -1.6633 -0.8285  0.0308
 5779SOL    HW227652   8.289   9.303  10.424  0.1106  0.1938  0.7958
 5780SOL     OW27653   3.678   4.698  10.381  0.0167 -0.0436  0.0508
 5780SOL    HW127654   3.678   4.731  10.291 -0.9733  0.5217  0.2429
 5780SOL    HW227655   3.611   4.630  10.381 -0.4716  0.4267  0.5137
 5781SOL     OW27656  10.855   4.434   0.464 -0.5518  0.4787 -0.1807
 5781SOL    HW127657  10.907   4.398   0.393  1.4833  1.0065  0.9383
 5781SOL    HW227658  10.764   4.420   0.438  0.1308 -1.4101 -1.7805
 5782SOL     OW27659   6.207  11.049   7.950 -0.3874 -0.0791  0.3408
 5782SOL    HW127660   6.179  10.957   7.948 -1.1555  0.1564 -0.1471
 5782SOL    HW227661   6.245  11.061   8.038 -0.7001 -0.7359  0.5712
 5783SOL     OW27662  11.373  12.000   8.058  0.5639  0.4071  0.1819
 5783SOL    HW127663  11.318  12.056   8.003 -0.4761 -1.0611 -0.3259
 5783SOL    HW227664  11.435  11.959   7.998  0.8000  0.3977  0.4285
 5784SOL     OW27665   5.546   8.942  12.409 -0.1293  0.3944  0.0379
 5784SOL    HW127666   5.591   8.860  12.427 -1.6400 -0.3060  0.8332
 5784SOL    HW227667   5.475   8.918  12.350 -0.7240  1.0713  0.4594
 5785SOL     OW27668   0.421   8.130   0.902  0.1956  0.2055 -0.4356
 5785SOL    HW127669   0.455   8.219   0.914  0.3753  0.1907 -0.8138
 5785SOL    HW227670   0.416   8.119   0.807 -1.1611  0.3116 -0.3840
 5786SOL     OW27671  10.959  11.252   6.401  0.1217 -0.1221  0.1624
 5786SOL    HW127672  10.877  11.249   6.450 -0.4513  1.0542 -0.6765
 5786SOL    HW227673  10.989  11.161   6.399 -0.1225 -0.2952  2.1547
 5787SOL     OW27674  10.686   5.134   9.646 -0.5531  0.1280 -0.4280
 5787SOL    HW127675  10.628   5.062   9.669 -1.2963  1.2004  1.3292
 5787SOL    HW227676  10.709   5.173   9.731  0.5123  1.4105 -1.2739
 5788SOL     OW27677  10.370   0.902   8.010  0.4969  0.6895  0.3916
 5788SOL    HW127678  10.282   0.868   8.028  0.2945  1.4440  0.8854
 5788SOL    HW227679  10.422   0.874   8.085  0.3678  1.2964  0.7201
 5789SOL     OW27680   7.007   1.873   4.748  0.1423 -0.3268  0.2080
 5789SOL    HW127681   6.918   1.841   4.741 -0.0860  0.4608 -0.7296
 5789SOL    HW227682   6.998   1.968   4.750  1.0230 -0.1626 -1.5138
 5790SOL     OW27683  10.315   8.271   6.743 -0.2034  0.3555  0.6937
 5790SOL    HW127684  10.261   8.279   6.822 -1.9693 -0.3345 -0.3783
 5790SOL    HW227685  10.275   8.333   6.681 -0.0039 -0.4374 -0.2493
 5791SOL     OW27686  10.978  11.209   8.047 -0.4381  0.3363 -0.0383
 5791SOL    HW127687  10.920  11.250   8.111  1.2068 -0.6237  2.2149
 5791SOL    HW227688  11.017  11.282   7.999  0.0934  1.2754  1.7424
 5792SOL     OW27689  11.486  11.764   3.095  0.2973  0.9941  0.2405
 5792SOL    HW127690  11.565  11.758   3.148 -1.4324 -2.4371  2.8110
 5792SOL    HW227691  11.488  11.685   3.040 -0.6509  1.6374 -0.7629
 5793SOL     OW27692  12.535   7.714   5.055  0.0852 -0.4426  0.7527
 5793SOL    HW127693  12.506   7.629   5.025 -0.2756  0.2770 -1.0546
 5793SOL    HW227694  12.455   7.767   5.061  0.4924  0.2897  0.0189
 5794SOL     OW27695   0.795   3.104   6.138 -0.4927 -0.2958  0.0985
 5794SOL    HW127696   0.868   3.165   6.126 -0.6278 -0.4428 -1.7982
 5794SOL    HW227697   0.785   3.096   6.233 -0.6840  2.9266  0.4697
 5795SOL     OW27698   9.669   8.648   3.024  0.3752  0.0993  0.1572
 5795SOL    HW127699   9.693   8.558   3.001 -1.2852 -1.3239  3.3777
 5795SOL    HW227700   9.575   8.653   3.006  0.4348  1.2032  0.0600
 5796SOL     OW27701  11.489   2.378   9.320 -0.2940  0.3296  0.8611
 5796SOL    HW127702  11.543   2.374   9.399  0.4645 -1.3904  0.3276
 5796SOL    HW227703  11.552   2.391   9.249 -0.7288 -0.1683  0.3703
 5797SOL     OW27704   6.563  12.373  10.771 -0.3698  0.3922  0.0225
 5797SOL    HW127705   6.581  12.286  10.735  1.4769  0.5524  0.4830
 5797SOL    HW227706   6.624  12.430  10.724 -0.1504  1.1088  1.1698
 5798SOL     OW27707   4.911  12.963  12.500  0.1856  0.1065  0.2300
 5798SOL    HW127708   4.901  12.920  12.415  2.1806  0.3889 -0.2151
 5798SOL    HW227709   4.952  13.047  12.480 -0.6864  0.8352  1.3710
 5799SOL     OW27710   9.774   3.508   8.858  0.1021  0.4973  0.3105
 5799SOL    HW127711   9.732   3.423   8.858  0.4108  0.3145 -1.2238
 5799SOL    HW227712   9.821   3.512   8.942  1.3251 -1.4838 -0.2040
 5800SOL     OW27713   2.516   2.088   8.231  0.0907 -0.1296 -0.4516
 5800SOL    HW127714   2.579   2.133   8.288 -0.7565 -0.7393  1.0022
 5800SOL    HW227715   2.473   2.159   8.183  1.4843  0.3314 -1.0875
 5801SOL     OW27716  11.165   2.519   6.514 -0.0116 -0.3027  0.2551
 5801SOL    HW127717  11.246   2.479   6.544  0.6738  0.9597  0.1514
 5801SOL    HW227718  11.139   2.467   6.438  1.3617  0.0185 -0.4654
 5802SOL     OW27719   4.092   7.661   2.044 -0.1246  0.3214 -0.2462
 5802SOL    HW127720   4.177   7.679   2.003  0.5629 -0.4308  0.7882
 5802SOL    HW227721   4.077   7.736   2.101 -2.1190  2.4913 -3.2680
 5803SOL     OW27722   1.998   3.807   2.750  0.0712  0.0264  0.6374
 5803SOL    HW127723   1.931   3.868   2.720  0.5976  0.6906  0.7757
 5803SOL    HW227724   2.080   3.857   2.744  0.8520 -1.3405 -1.3413
 5804SOL     OW27725  12.598   0.896  11.624 -0.2474  0.7364 -0.3342
 5804SOL    HW127726  12.601   0.840  11.547  1.1059 -1.1172  0.9707
 5804SOL    HW227727  12.650   0.973  11.600  0.3196  0.0989 -1.1950
 5805SOL     OW27728  10.271   0.370   6.670 -0.0998 -0.1811  0.2951
 5805SOL    HW127729  10.295   0.304   6.735 -0.6927 -0.9292 -0.2227
 5805SOL    HW227730  10.230   0.320   6.599 -1.0747  0.7958  0.1387
 5806SOL     OW27731   0.983   3.974   9.879  0.1701  0.2293 -0.0543
 5806SOL    HW127732   0.900   4.006   9.844 -0.6236 -0.9837  0.6458
 5806SOL    HW227733   0.961   3.937   9.964  1.6245  0.8084  0.6145
 5807SOL     OW27734   5.069   5.910   1.610  0.0766  0.2273  0.3135
 5807SOL    HW127735   5.114   5.829   1.586  0.0271  0.2362  0.1856
 5807SOL    HW227736   5.056   5.956   1.526  1.8936  1.3031  0.5710
 5808SOL     OW27737   2.513   1.643  12.422 -0.6567  0.0458 -0.2615
 5808SOL    HW127738   2.503   1.699  12.345 -0.6598  2.1660  1.2009
 5808SOL    HW227739   2.435   1.659  12.474 -0.6164 -1.2945  0.2491
 5809SOL     OW27740   0.027   8.196   1.315 -0.5085  0.3427  0.0520
 5809SOL    HW127741   0.016   8.113   1.268 -3.1698  0.6134  0.0324
 5809SOL    HW227742   0.089   8.246   1.262 -0.1834 -0.9801 -0.8636
 5810SOL     OW27743   9.171   3.289  11.477  0.2031 -0.4348 -0.0927
 5810SOL    HW127744   9.257   3.261  11.510  1.1271 -1.7479 -3.2721
 5810SOL    HW227745   9.159   3.239  11.396 -2.2214  1.9015 -1.3168
 5811SOL     OW27746   8.387   3.246   4.607 -0.5824 -0.5303  0.2071
 5811SOL    HW127747   8.461   3.287   4.653 -0.8100  0.2436 -0.0975
 5811SOL    HW227748   8.313   3.257   4.666 -0.3373 -1.8420  0.7753
 5812SOL     OW27749   6.642  11.571   1.508  0.3606  0.0709 -0.2441
 5812SOL    HW127750   6.583  11.525   1.448 -2.2429  3.1077 -0.2796
 5812SOL    HW227751   6.636  11.663   1.481  3.2662  0.8428  1.3840
 5813SOL     OW27752   1.008   1.362  11.584  0.3612  0.4037  0.1885
 5813SOL    HW127753   0.913   1.371  11.591  0.3552  0.7754 -0.2955
 5813SOL    HW227754   1.041   1.390  11.669 -0.0019 -0.4550  0.6251
 5814SOL     OW27755   8.755  12.219   1.502  0.6730 -0.2961  0.1078
 5814SOL    HW127756   8.814  12.151   1.468  0.8128 -0.4285  0.6085
 5814SOL    HW227757   8.791  12.242   1.587  1.4130  1.3914 -0.6222
 5815SOL     OW27758  11.921  10.748  10.399  0.3400  0.2594 -0.1396
 5815SOL    HW127759  11.971  10.688  10.344  0.3593  2.1127 -2.2715
 5815SOL    HW227760  11.967  10.831  10.393 -1.1322  1.1729  0.5713
 5816SOL     OW27761   3.499   7.314   3.892 -0.5252  0.7696 -0.0070
 5816SOL    HW127762   3.416   7.351   3.863 -0.8416 -0.3684 -0.6089
 5816SOL    HW227763   3.514   7.240   3.834 -0.4647 -0.7267  1.8343
 5817SOL     OW27764  11.758   9.046   9.562  0.0052  0.9325  0.0037
 5817SOL    HW127765  11.816   8.983   9.520  0.6094  0.3141  1.6904
 5817SOL    HW227766  11.811   9.125   9.572 -0.1185  1.0580 -0.2895
 5818SOL     OW27767   6.129  12.746   2.747 -0.2916 -0.1672  0.3987
 5818SOL    HW127768   6.151  12.699   2.827  0.5863 -0.2785  0.0999
 5818SOL    HW227769   6.168  12.693   2.677  2.1837  1.7948  0.1367
 5819SOL     OW27770   2.095   6.083   1.357 -0.3410  0.0685 -0.3724
 5819SOL    HW127771   2.161   6.149   1.377 -0.6577 -0.3938  2.7079
 5819SOL    HW227772   2.022   6.103   1.416 -0.9921 -2.1736 -0.3002
 5820SOL     OW27773   8.179   9.951   7.551  0.5373 -0.0804 -0.8033
 5820SOL    HW127774   8.178  10.010   7.626 -2.9000  0.7395 -1.3407
 5820SOL    HW227775   8.162  10.008   7.476  3.6426 -0.9054 -2.2926
 5821SOL     OW27776   7.049  11.927   0.092  0.8164 -0.4178  0.3465
 5821SOL    HW127777   7.011  11.951   0.176 -0.4637  0.2121 -0.3714
 5821SOL    HW227778   7.006  11.845   0.068  0.1054  0.1411 -0.3351
 5822SOL     OW27779   5.786   0.107  12.246 -0.0405  0.1685 -0.2392
 5822SOL    HW127780   5.740   0.142  12.322 -0.2789  0.1539 -0.3742
 5822SOL    HW227781   5.879   0.120  12.265 -0.0152 -1.3432  0.8038
 5823SOL     OW27782   2.784   2.213   9.191 -0.2632 -0.3415  0.0621
 5823SOL    HW127783   2.716   2.232   9.125 -0.1332  0.7013  0.2171
 5823SOL    HW227784   2.862   2.258   9.158  0.0744 -0.6512  0.4318
 5824SOL     OW27785   1.772   8.096   6.559 -0.8517  0.2382  0.1795
 5824SOL    HW127786   1.711   8.169   6.549  0.3512  1.4280  1.1176
 5824SOL    HW227787   1.859   8.136   6.552 -0.1634 -1.3169 -0.5597
 5825SOL     OW27788   7.769  10.469  12.401  0.1271  0.0085  0.1444
 5825SOL    HW127789   7.677  10.451  12.420  0.2167  0.6045  1.2545
 5825SOL    HW227790   7.772  10.485  12.307 -0.5074 -2.1842 -0.2925
 5826SOL     OW27791   0.174   9.797   2.404 -0.3500 -0.0250  0.3356
 5826SOL    HW127792   0.117   9.850   2.348 -1.0934 -1.4205 -0.2856
 5826SOL    HW227793   0.124   9.717   2.420 -0.3377  0.4572  3.3712
 5827SOL     OW27794   5.659   4.082   4.677 -0.0921 -0.0089  0.3982
 5827SOL    HW127795   5.648   4.020   4.750  0.9234  0.8754  1.3478
 5827SOL    HW227796   5.718   4.149   4.712  1.1499 -0.0216 -1.5356
 5828SOL     OW27797   2.439  12.763   6.298  0.1552  0.5055  0.1806
 5828SOL    HW127798   2.394  12.770   6.382  1.8709  0.1414  1.1840
 5828SOL    HW227799   2.532  12.770   6.321  0.7771 -1.6203 -1.4435
 5829SOL     OW27800   5.548   0.406  12.323  0.2144 -0.4709 -0.1357
 5829SOL    HW127801   5.459   0.440  12.329  0.6016  0.9178 -1.6509
 5829SOL    HW227802   5.550   0.356  12.242  0.6062 -1.1613  0.2957
 5830SOL     OW27803   6.301   5.572   4.681 -0.0835 -0.2637 -0.1491
 5830SOL    HW127804   6.290   5.506   4.611 -1.6572  0.2688 -0.4498
 5830SOL    HW227805   6.268   5.528   4.759 -1.4245  0.2224 -0.4083
 5831SOL     OW27806   9.743   0.645   2.354  0.5587 -0.5344 -0.3388
 5831SOL    HW127807   9.821   0.599   2.387  1.6111  1.8022  0.6613
 5831SOL    HW227808   9.775   0.696   2.280 -0.2234 -0.1601 -0.4244
 5832SOL     OW27809   8.611   2.561   2.429 -0.0574 -0.3378  0.1103
 5832SOL    HW127810   8.680   2.529   2.488  0.3836  0.7036  0.1689
 5832SOL    HW227811   8.590   2.485   2.374  0.8494 -0.7879  0.3645
 5833SOL     OW27812  12.973   0.860   9.231  0.2748  0.7909 -0.3104
 5833SOL    HW127813  12.896   0.848   9.287 -0.5266  0.7984 -1.3733
 5833SOL    HW227814  13.046   0.829   9.284 -0.8674 -2.9418 -0.5831
 5834SOL     OW27815  11.151   1.709   8.915 -0.3373 -0.0408 -0.2030
 5834SOL    HW127816  11.128   1.657   8.992 -1.6742  0.5870 -0.1475
 5834SOL    HW227817  11.162   1.798   8.948 -2.5104  0.5631 -0.8957
 5835SOL     OW27818   3.297  10.355   6.101 -0.5447  0.4361 -0.2874
 5835SOL    HW127819   3.241  10.296   6.049 -0.3364 -0.0889  0.0840
 5835SOL    HW227820   3.240  10.429   6.121 -0.9098  0.2114 -0.4718
 5836SOL     OW27821   7.322   0.684   8.706 -0.3730  0.7015 -0.1207
 5836SOL    HW127822   7.401   0.738   8.706 -0.2975  0.6511 -1.5548
 5836SOL    HW227823   7.337   0.619   8.774  0.4505  1.2192  0.2124
 5837SOL     OW27824  10.233   2.770  10.994  0.4069 -0.1871  1.0332
 5837SOL    HW127825  10.147   2.740  11.022 -0.5362  0.8579 -0.6162
 5837SOL    HW227826  10.216   2.838  10.929  2.4485 -2.0431 -1.6512
 5838SOL     OW27827   7.349   8.417   8.758  0.1368 -0.2750 -0.2570
 5838SOL    HW127828   7.293   8.342   8.740 -0.1008  0.4792 -3.1965
 5838SOL    HW227829   7.297   8.493   8.733  1.3657  0.6695 -0.0657
 5839SOL     OW27830   9.993   5.417   8.960  0.0338 -0.5504 -0.2337
 5839SOL    HW127831  10.026   5.410   9.050  0.5285 -0.9385 -0.4387
 5839SOL    HW227832  10.005   5.329   8.924  0.7862 -0.1444 -0.9972
 5840SOL     OW27833   4.076  11.150   3.848  0.3756 -0.0609  0.4610
 5840SOL    HW127834   4.119  11.236   3.846  0.4981 -0.0901 -2.0993
 5840SOL    HW227835   4.134  11.094   3.797 -0.6988 -1.1419  0.3951
 5841SOL     OW27836   3.765  12.317   9.290 -0.1637  0.5924  0.1536
 5841SOL    HW127837   3.680  12.331   9.249 -0.2717  2.2582  0.8602
 5841SOL    HW227838   3.788  12.402   9.327  1.6355  0.0762  0.3202
 5842SOL     OW27839   7.845  10.512  10.938 -0.2625 -0.3910  0.8265
 5842SOL    HW127840   7.852  10.482  10.848  1.1868  0.1802  0.7184
 5842SOL    HW227841   7.934  10.543  10.960 -0.9929  1.1139  1.8452
 5843SOL     OW27842   5.370   8.845  12.206  0.3528  0.3695 -0.3621
 5843SOL    HW127843   5.278   8.855  12.183  0.3524  2.2894  0.3254
 5843SOL    HW227844   5.415   8.835  12.122 -0.4811 -0.8618 -0.6905
 5844SOL     OW27845  11.025   1.345  11.472  0.1053  0.6543 -0.4551
 5844SOL    HW127846  10.954   1.315  11.529 -0.3553  0.9178 -0.8803
 5844SOL    HW227847  11.026   1.440  11.483 -0.2144  0.7476 -1.1302
 5845SOL     OW27848   2.509  12.601   6.546 -0.0733  0.4004  0.3309
 5845SOL    HW127849   2.573  12.550   6.495 -0.4492  0.2499  0.0064
 5845SOL    HW227850   2.551  12.686   6.558 -0.5244  0.9259 -1.4363
 5846SOL     OW27851  12.848  12.282   9.436  0.1067 -0.3049 -0.0445
 5846SOL    HW127852  12.938  12.275   9.405  0.1129  1.8852 -0.7143
 5846SOL    HW227853  12.815  12.362   9.395 -2.0767 -0.9261  0.3799
 5847SOL     OW27854  12.669   9.767   5.105 -0.1076 -0.2716 -0.1884
 5847SOL    HW127855  12.651   9.809   5.189  1.4832 -0.2477  0.1638
 5847SOL    HW227856  12.735   9.822   5.064 -0.0849 -0.8720 -0.9883
 5848SOL     OW27857   9.722   5.251   2.951  0.0263 -0.3716 -0.3129
 5848SOL    HW127858   9.657   5.185   2.974  0.9978 -1.2315  0.0446
 5848SOL    HW227859   9.760   5.278   3.034  0.0555  0.2080 -0.5106
 5849SOL     OW27860  11.188   9.376   8.379 -0.3012  0.8534 -0.1530
 5849SOL    HW127861  11.160   9.402   8.467 -3.0173  1.4358 -1.1038
 5849SOL    HW227862  11.127   9.307   8.354 -0.4436  1.6183 -2.0748
 5850SOL     OW27863   1.730   5.246   6.348 -0.1306 -0.4085  0.2003
 5850SOL    HW127864   1.719   5.226   6.441 -0.2831 -1.9395 -0.1157
 5850SOL    HW227865   1.648   5.216   6.308 -0.1798  0.4933 -0.4120
 5851SOL     OW27866   3.069   5.684   7.272  0.2253 -0.4305 -0.1246
 5851SOL    HW127867   3.058   5.613   7.335 -0.1412 -0.4079 -0.1576
 5851SOL    HW227868   3.116   5.645   7.199 -1.3009 -1.0605 -0.8241
 5852SOL     OW27869   3.175   3.670  12.815 -0.1235  0.8153 -1.2097
 5852SOL    HW127870   3.203   3.613  12.743 -0.5827  0.4703 -1.1159
 5852SOL    HW227871   3.173   3.758  12.777 -0.6684  0.5891 -1.7006
 5853SOL     OW27872   5.878  11.236  10.828  0.3158 -0.5187 -0.1048
 5853SOL    HW127873   5.865  11.190  10.745 -1.7143 -2.6761  1.2949
 5853SOL    HW227874   5.821  11.191  10.890 -0.8322  3.1080  1.7533
 5854SOL     OW27875   1.162   9.411   6.269  0.1868  0.1298 -0.5589
 5854SOL    HW127876   1.161   9.318   6.294  0.0687  0.9435  2.9741
 5854SOL    HW227877   1.254   9.429   6.248  0.6753 -0.2972  1.0839
 5855SOL     OW27878  10.491  12.781   5.941  0.6551  0.2939  0.4602
 5855SOL    HW127879  10.407  12.770   5.987  1.5203 -1.1095  1.7998
 5855SOL    HW227880  10.540  12.842   5.995  1.0581 -0.0581  0.4932
 5856SOL     OW27881   8.009  11.136  11.317  0.2687 -0.4552  0.7933
 5856SOL    HW127882   7.938  11.197  11.301  0.0887 -1.1282 -1.1769
 5856SOL    HW227883   7.988  11.097  11.402 -0.9954  0.3195  0.8599
 5857SOL     OW27884   9.061  10.403   4.817 -0.6205 -0.2747 -0.0219
 5857SOL    HW127885   9.089  10.311   4.823 -0.8190 -0.4119 -1.0458
 5857SOL    HW227886   9.101  10.444   4.894  0.7269 -0.8962 -0.3461
 5858SOL     OW27887   5.484  11.543   4.645 -0.3093  0.0439  0.3422
 5858SOL    HW127888   5.428  11.610   4.607  0.5301 -0.4117 -1.8325
 5858SOL    HW227889   5.452  11.533   4.735 -2.7489  0.7956 -0.3801
 5859SOL     OW27890   5.853   1.183   0.838  0.0832  0.3246 -0.5640
 5859SOL    HW127891   5.810   1.161   0.921  1.7179 -1.4218 -0.1149
 5859SOL    HW227892   5.784   1.172   0.773 -0.4325 -1.5880  0.2183
 5860SOL     OW27893   8.128  10.738   3.073 -0.3696  0.5056  0.0013
 5860SOL    HW127894   8.174  10.811   3.113 -0.8468  0.0210  1.5057
 5860SOL    HW227895   8.091  10.689   3.147 -0.0954 -1.2326 -0.9530
 5861SOL     OW27896  10.302   4.432  12.151  0.7423  0.3102  0.3273
 5861SOL    HW127897  10.208   4.450  12.144  0.9771  0.8512 -2.3402
 5861SOL    HW227898  10.340   4.516  12.179  0.6589  0.7847 -0.9381
 5862SOL     OW27899   3.027  12.594   6.330  0.4284 -0.2053 -0.6571
 5862SOL    HW127900   2.986  12.518   6.370  0.4381  0.8967  1.6031
 5862SOL    HW227901   3.114  12.598   6.370  0.3350  1.1051 -0.5356
 5863SOL     OW27902  11.509   3.618  10.702  0.6667 -0.4338  0.3629
 5863SOL    HW127903  11.562   3.569  10.765  0.2962 -1.9593 -0.4341
 5863SOL    HW227904  11.465   3.550  10.651 -1.6539  0.7620  0.6376
 5864SOL     OW27905  12.279   4.239  12.300 -0.1702  0.1922  0.5021
 5864SOL    HW127906  12.372   4.218  12.287 -0.2315 -0.2533  0.7632
 5864SOL    HW227907  12.232   4.165  12.260 -0.4396  0.9057 -0.5443
 5865SOL     OW27908   5.669   2.332  10.525 -0.1735 -0.0503  0.2298
 5865SOL    HW127909   5.747   2.278  10.531 -0.1121  0.1150  1.0338
 5865SOL    HW227910   5.653   2.363  10.614 -2.1227 -1.4176  0.4221
 5866SOL     OW27911   1.140   1.799   9.896  0.1840 -0.2801  0.1895
 5866SOL    HW127912   1.222   1.831   9.859 -0.5504  1.2838 -0.1520
 5866SOL    HW227913   1.143   1.826   9.988  0.6875 -1.5582  0.5802
 5867SOL     OW27914  12.268   4.341   3.630  0.0967  0.0857  0.5640
 5867SOL    HW127915  12.259   4.283   3.706 -1.1599  0.1747  0.5041
 5867SOL    HW227916  12.180   4.348   3.594  0.6005  0.3579 -0.6874
 5868SOL     OW27917   5.770   0.766   1.680 -0.1062  0.2382  0.3549
 5868SOL    HW127918   5.735   0.677   1.687 -0.3875  0.4780  2.8067
 5868SOL    HW227919   5.865   0.755   1.680 -0.1370 -0.0492  1.0550
 5869SOL     OW27920   1.349  12.333   2.838 -0.5591  0.3510  0.0165
 5869SOL    HW127921   1.354  12.275   2.762 -3.0598  0.2345 -0.1366
 5869SOL    HW227922   1.354  12.421   2.802 -0.2150  0.2769 -0.1191
 5870SOL     OW27923   1.516   8.477   6.803 -0.2236  0.5308 -0.0961
 5870SOL    HW127924   1.573   8.542   6.761 -0.5334  1.0147  0.2100
 5870SOL    HW227925   1.434   8.524   6.817 -0.6781 -0.1381 -0.4696
 5871SOL     OW27926  11.524   2.083   8.891  0.2731 -0.4676  0.0981
 5871SOL    HW127927  11.570   2.060   8.972 -0.8584  0.0851  0.9092
 5871SOL    HW227928  11.441   2.035   8.895  0.2676 -0.5671 -0.8281
 5872SOL     OW27929   4.765   0.628   2.238 -0.3207 -0.5038 -0.3206
 5872SOL    HW127930   4.732   0.542   2.211 -1.1268  0.1593 -1.5374
 5872SOL    HW227931   4.703   0.690   2.199  0.7840  0.6588 -0.2607
 5873SOL     OW27932   1.395   3.379  12.899  0.1046 -0.0064 -0.0297
 5873SOL    HW127933   1.383   3.420  12.984 -0.5508 -0.5618  0.1594
 5873SOL    HW227934   1.471   3.423  12.861 -0.7935  1.6477 -0.0130
 5874SOL     OW27935  11.620   5.126  11.505 -0.8297  0.0280 -0.0628
 5874SOL    HW127936  11.612   5.035  11.534  0.5829 -0.1077 -0.0430
 5874SOL    HW227937  11.531   5.161  11.511 -1.2318 -1.0904  0.7767
 5875SOL     OW27938   8.713   4.073   1.314  0.7542 -0.4670 -0.0683
 5875SOL    HW127939   8.711   4.165   1.342  1.2469 -0.1574 -0.9978
 5875SOL    HW227940   8.703   4.023   1.395 -0.2016  0.4031  0.3815
 5876SOL     OW27941  12.430   0.359   5.795 -0.4414  0.3748 -0.0658
 5876SOL    HW127942  12.404   0.441   5.836  0.0249  1.4612 -1.8025
 5876SOL    HW227943  12.349   0.327   5.754 -0.3959  0.5489 -0.2971
 5877SOL     OW27944   5.171   5.600   8.292  0.3081 -0.2637 -0.3305
 5877SOL    HW127945   5.094   5.543   8.292  0.6776 -0.8198 -1.9709
 5877SOL    HW227946   5.145   5.677   8.242 -0.0455  0.8652  1.5079
 5878SOL     OW27947   1.531   9.702   5.112  0.0246  0.0036  0.0231
 5878SOL    HW127948   1.561   9.615   5.086 -1.7122 -0.3027 -1.1226
 5878SOL    HW227949   1.466   9.686   5.180  0.5520  0.5016  0.6606
 5879SOL     OW27950   2.771   7.577   0.853 -0.4377  0.1742  0.2073
 5879SOL    HW127951   2.718   7.505   0.887 -0.5248  0.3768  0.5022
 5879SOL    HW227952   2.855   7.536   0.829  0.6103  0.4398  3.1072
 5880SOL     OW27953  11.786   5.730  12.439  0.0495 -0.3360 -0.2766
 5880SOL    HW127954  11.867   5.777  12.456  0.1979 -0.8839  0.5834
 5880SOL    HW227955  11.768   5.745  12.346  0.8868  0.1597 -0.3633
 5881SOL     OW27956  11.133   6.187  12.076  0.0731 -0.7087  0.6522
 5881SOL    HW127957  11.082   6.257  12.036  1.3329 -0.1067  0.0640
 5881SOL    HW227958  11.158   6.223  12.162  1.2066 -0.1919  0.1174
 5882SOL     OW27959   5.822  10.752   5.689 -0.4089  0.0816  0.4150
 5882SOL    HW127960   5.731  10.771   5.711 -0.4112 -0.5388  0.9636
 5882SOL    HW227961   5.820  10.666   5.647 -0.5975  1.7812 -3.4897
 5883SOL     OW27962   4.552   4.944   0.382 -0.2062 -0.1350 -0.4634
 5883SOL    HW127963   4.547   4.875   0.317 -1.3757  0.6886 -1.2891
 5883SOL    HW227964   4.463   4.979   0.387 -0.2199 -0.3293  1.7620
 5884SOL     OW27965  10.052   3.610   9.361 -0.0485  0.2095 -0.4856
 5884SOL    HW127966   9.979   3.565   9.403 -0.8371 -0.1191 -2.1209
 5884SOL    HW227967  10.029   3.703   9.367 -0.0521  0.1783 -0.0163
 5885SOL     OW27968   6.787   0.260   2.895 -0.3579 -0.6013 -0.5868
 5885SOL    HW127969   6.855   0.325   2.881  1.0057 -1.4566  1.5893
 5885SOL    HW227970   6.722   0.305   2.949 -2.0039  0.4327 -3.2182
 5886SOL     OW27971   0.002   9.276  10.625 -0.0244 -0.4449 -0.3547
 5886SOL    HW127972   0.072   9.210  10.634 -0.9110 -1.3201  0.3154
 5886SOL    HW227973   0.001   9.296  10.531  3.7470  2.5710 -0.0248
 5887SOL     OW27974  10.989  12.571   5.755  0.1356  0.2357  0.2015
 5887SOL    HW127975  10.959  12.485   5.783 -1.4708  0.5455 -0.4687
 5887SOL    HW227976  10.925  12.632   5.791  2.0277  1.3555  1.9037
 5888SOL     OW27977   9.262   0.127   5.483 -0.4946 -0.7939  0.1819
 5888SOL    HW127978   9.312   0.108   5.404  0.3521 -2.8648  1.1346
 5888SOL    HW227979   9.185   0.070   5.476 -2.2793  1.5757 -0.7534
 5889SOL     OW27980   2.064   8.665  10.430 -0.5113 -0.6699  0.0719
 5889SOL    HW127981   1.995   8.671  10.497 -0.1079  0.0353  0.4422
 5889SOL    HW227982   2.145   8.685  10.477 -0.4077  1.5986 -0.9174
 5890SOL     OW27983   8.716   6.559   3.603 -0.2047  1.3025 -0.4795
 5890SOL    HW127984   8.753   6.630   3.654  1.0511  0.0163  0.4797
 5890SOL    HW227985   8.681   6.601   3.525  1.8640  2.8005 -0.6815
 5891SOL     OW27986  11.345   6.985   4.585 -0.7403  0.0807  0.7047
 5891SOL    HW127987  11.416   7.037   4.622 -0.4642  0.3062 -0.1062
 5891SOL    HW227988  11.307   7.042   4.518 -0.6590 -0.6215  0.0454
 5892SOL     OW27989   2.088   4.830   5.905 -0.0699 -0.6222  0.0953
 5892SOL    HW127990   1.999   4.833   5.870 -0.5554  0.1254  1.3302
 5892SOL    HW227991   2.140   4.795   5.834 -1.3932 -1.3143 -0.5723
 5893SOL     OW27992  12.250  10.723   5.875 -0.2951 -0.1292  0.6642
 5893SOL    HW127993  12.274  10.630   5.874  0.7632  0.1311  0.4967
 5893SOL    HW227994  12.325  10.767   5.835 -0.9344  0.7686  0.4252
 5894SOL     OW27995   3.000  10.848  10.388  0.1901 -0.0828 -0.2578
 5894SOL    HW127996   3.047  10.930  10.407  1.5425 -0.8803  0.0165
 5894SOL    HW227997   2.979  10.812  10.474 -0.2185 -0.1187 -0.3741
 5895SOL     OW27998   7.493   6.936   6.314  0.0634 -0.2103 -0.1215
 5895SOL    HW127999   7.519   6.995   6.243 -0.1053  1.3859  1.0986
 5895SOL    HW228000   7.527   6.978   6.394 -1.2470 -1.0606  0.9185
 5896SOL     OW28001  11.038   3.371   3.570 -0.4809 -0.3691  0.4181
 5896SOL    HW128002  10.974   3.423   3.618 -0.6898 -0.4785  0.2596
 5896SOL    HW228003  11.107   3.433   3.547 -1.2020  0.0650 -0.6388
 5897SOL     OW28004   9.588   9.269   5.927 -0.3040 -0.0094  0.3057
 5897SOL    HW128005   9.614   9.220   5.849 -0.5659 -0.4449  0.4899
 5897SOL    HW228006   9.628   9.222   6.000 -1.7529 -0.8259  0.6202
 5898SOL     OW28007   1.835   2.340  10.959  0.0804 -0.1035  0.2556
 5898SOL    HW128008   1.903   2.277  10.984 -0.8447 -0.8463  0.9687
 5898SOL    HW228009   1.857   2.364  10.869 -0.1850 -2.3268 -0.4730
 5899SOL     OW28010   7.048  10.537   3.295  0.3052 -0.2663  0.1500
 5899SOL    HW128011   7.036  10.526   3.201  1.4786 -0.6260  0.0205
 5899SOL    HW228012   7.001  10.464   3.335  1.3579 -1.2141 -0.2779
 5900SOL     OW28013   9.251   0.084  12.118 -0.2383 -0.1473  0.2244
 5900SOL    HW128014   9.182   0.098  12.053 -1.0783 -0.6382  0.9862
 5900SOL    HW228015   9.292   0.170  12.128 -0.5220  0.0765 -0.4828
 5901SOL     OW28016   2.434   6.158   1.232 -0.4381 -0.0054 -0.5902
 5901SOL    HW128017   2.440   6.188   1.323 -1.1678 -0.7079 -0.2957
 5901SOL    HW228018   2.506   6.097   1.222 -2.4087 -2.7493  0.6752
 5902SOL     OW28019   2.639   3.974  12.760 -0.1464  0.1182 -0.3449
 5902SOL    HW128020   2.670   4.048  12.812 -1.0701  0.5318 -0.3692
 5902SOL    HW228021   2.572   3.932  12.815  0.4311 -0.7602 -0.2923
 5903SOL     OW28022   1.463   0.217   4.515 -0.2968  0.1917 -0.2083
 5903SOL    HW128023   1.477   0.147   4.578 -1.6533  0.5280  0.5112
 5903SOL    HW228024   1.454   0.172   4.431 -1.3159 -0.5334  0.2704
 5904SOL     OW28025   3.003  10.830   6.496 -0.1431 -0.3556 -0.3491
 5904SOL    HW128026   3.089  10.799   6.469  0.2028  0.3179 -0.0249
 5904SOL    HW228027   2.983  10.781   6.575 -0.5243 -1.2708 -0.9874
 5905SOL     OW28028   3.187   3.916   6.477 -0.4684  0.7037 -0.3397
 5905SOL    HW128029   3.168   3.828   6.445  0.6964  0.8834 -1.6171
 5905SOL    HW228030   3.107   3.965   6.459 -0.9017  0.0621 -0.2078
 5906SOL     OW28031   2.824   0.730   2.510 -0.4974 -0.1468 -0.3032
 5906SOL    HW128032   2.878   0.661   2.472 -2.2739 -1.4668 -0.5560
 5906SOL    HW228033   2.735   0.709   2.481 -1.2790  1.4369  0.8240
 5907SOL     OW28034   5.460   9.983   4.120 -0.6304 -0.4183  0.3961
 5907SOL    HW128035   5.473   9.935   4.201 -1.7041  0.9238  1.4165
 5907SOL    HW228036   5.449   9.915   4.053  2.9430 -1.5830  0.8002
 5908SOL     OW28037  11.905   9.602   3.283  0.2182  0.0592 -0.4334
 5908SOL    HW128038  11.964   9.640   3.218 -0.1955  1.1613 -0.1708
 5908SOL    HW228039  11.835   9.665   3.293  0.4207  0.0633  1.3078
 5909SOL     OW28040  12.275   1.680   5.461  0.0795  0.1161  0.1296
 5909SOL    HW128041  12.252   1.615   5.395  0.3037 -0.3919  0.5480
 5909SOL    HW228042  12.222   1.658   5.537  1.8914 -1.0685  1.0996
 5910SOL     OW28043  11.451   1.290   8.273  0.1107 -0.6927  0.1447
 5910SOL    HW128044  11.478   1.331   8.355  0.0926 -1.8027  0.7231
 5910SOL    HW228045  11.399   1.214   8.300  1.0769 -1.7494 -0.8495
 5911SOL     OW28046   4.847   9.368  11.377  0.1018  0.1825  0.6139
 5911SOL    HW128047   4.929   9.386  11.423  1.6110 -0.5385 -1.6355
 5911SOL    HW228048   4.802   9.452  11.375  0.7621  0.5973  1.8497
 5912SOL     OW28049   6.469   7.327   8.090 -0.1325 -0.1444  0.0721
 5912SOL    HW128050   6.469   7.345   7.996 -0.4399  1.0699  0.2809
 5912SOL    HW228051   6.382   7.354   8.119  0.1936  0.1467  0.8103
 5913SOL     OW28052   2.047   4.437   3.149 -0.3225  0.0956 -0.3599
 5913SOL    HW128053   2.125   4.399   3.109 -0.7297 -0.6878 -0.4386
 5913SOL    HW228054   2.055   4.531   3.133  0.2681 -0.0447 -0.9469
 5914SOL     OW28055  10.337  12.891  11.985  0.1021 -0.3553 -0.1097
 5914SOL    HW128056  10.385  12.837  11.922  1.3765 -0.5219  0.9609
 5914SOL    HW228057  10.245  12.866  11.973  0.5850 -2.2397 -0.1403
 5915SOL     OW28058   9.732   7.988   6.744 -0.5437 -0.1188  0.0253
 5915SOL    HW128059   9.789   7.911   6.750 -0.2707  0.0580 -0.2577
 5915SOL    HW228060   9.676   7.972   6.669 -0.1949  0.1454 -0.2985
 5916SOL     OW28061  12.927   8.969   0.152  0.0493  0.4788 -0.3736
 5916SOL    HW128062  12.836   8.997   0.150  0.3038  1.3134 -0.6976
 5916SOL    HW228063  12.944   8.948   0.244 -0.7646 -0.7205 -0.4816
 5917SOL     OW28064   2.102  11.136   8.696 -0.6387 -0.2983  0.2593
 5917SOL    HW128065   2.132  11.153   8.785 -0.3831 -0.5894  0.2307
 5917SOL    HW228066   2.102  11.222   8.654  0.6754 -0.3570  0.1039
 5918SOL     OW28067   3.435  11.434  10.229 -0.1840 -0.0569 -0.1197
 5918SOL    HW128068   3.345  11.454  10.204  0.2164  0.4761 -1.2019
 5918SOL    HW228069   3.428  11.393  10.315 -1.5797 -1.3797 -0.8269
 5919SOL     OW28070   9.983  12.870   9.427  0.1860  0.3859  0.4117
 5919SOL    HW128071  10.073  12.895   9.406  0.4892 -0.2906  0.8906
 5919SOL    HW228072   9.990  12.782   9.463 -0.6867  0.2705  0.3184
 5920SOL     OW28073  12.826   7.172  10.931  0.3814  0.1067 -0.0711
 5920SOL    HW128074  12.882   7.174  11.008  0.1705  0.1048  0.0852
 5920SOL    HW228075  12.741   7.205  10.962  0.1441 -0.3956 -0.1742
 5921SOL     OW28076   9.404   3.562   4.458 -0.3049 -0.1238 -0.5578
 5921SOL    HW128077   9.363   3.647   4.444  1.3353  0.4755 -2.1513
 5921SOL    HW228078   9.431   3.563   4.550 -0.3013  1.0789 -0.5544
 5922SOL     OW28079  11.625   7.161   5.373 -0.2363 -0.1882 -0.2901
 5922SOL    HW128080  11.673   7.141   5.293 -1.2961 -0.5972 -0.8389
 5922SOL    HW228081  11.574   7.082   5.391  0.2838 -0.2567  1.0177
 5923SOL     OW28082   2.516   8.866   3.155  0.0595  0.4163 -0.2492
 5923SOL    HW128083   2.521   8.816   3.237  0.0352  0.0952 -0.4444
 5923SOL    HW228084   2.429   8.907   3.158 -0.0411  0.2037 -0.2315
 5924SOL     OW28085   0.727   6.372  10.452  0.0198 -0.4052 -0.4839
 5924SOL    HW128086   0.745   6.459  10.489  0.4394 -1.0337  0.8711
 5924SOL    HW228087   0.687   6.390  10.367 -0.7058  1.1236  0.1317
 5925SOL     OW28088  11.339   8.394  11.617 -0.0012  0.3083 -0.4267
 5925SOL    HW128089  11.296   8.414  11.701 -0.0617 -0.5906 -0.2351
 5925SOL    HW228090  11.333   8.299  11.609 -2.8554  0.5370 -2.9506
 5926SOL     OW28091   7.635   9.582  10.661 -0.2392 -0.0377  0.3972
 5926SOL    HW128092   7.562   9.608  10.718  0.1756 -0.1923  0.9988
 5926SOL    HW228093   7.665   9.664  10.621 -1.0176 -0.0258 -0.1951
 5927SOL     OW28094  10.693  11.581   1.186 -0.0582  0.0846  0.2581
 5927SOL    HW128095  10.757  11.650   1.205  0.0049  0.4963 -1.3173
 5927SOL    HW228096  10.741  11.499   1.196 -0.0369  0.2651  1.7877
 5928SOL     OW28097   4.874  11.620  11.435  0.5101 -0.1694 -0.3858
 5928SOL    HW128098   4.898  11.612  11.528  1.7621  0.1388 -0.6572
 5928SOL    HW228099   4.780  11.607  11.433  0.5599 -0.8726  0.8524
 5929SOL     OW28100   0.000   8.312   8.285 -0.6276 -0.6368 -0.1340
 5929SOL    HW128101  -0.060   8.331   8.357  0.6229 -0.0283  0.7925
 5929SOL    HW228102  -0.039   8.356   8.210 -1.0269  0.2976  0.5896
 5930SOL     OW28103   7.283   7.574   1.876  0.5223 -0.0010  0.7246
 5930SOL    HW128104   7.292   7.669   1.866 -0.9929  0.1106  0.0919
 5930SOL    HW228105   7.342   7.552   1.948  0.0616  1.5879  1.6555
 5931SOL     OW28106  10.109   5.226   8.213 -0.4314 -0.5609 -0.2669
 5931SOL    HW128107  10.188   5.260   8.254 -2.1582  2.7521  0.7607
 5931SOL    HW228108  10.086   5.291   8.146 -1.2920 -2.4304 -1.9120
 5932SOL     OW28109  10.634   8.076   7.128  0.2409 -0.3132 -0.4456
 5932SOL    HW128110  10.597   8.070   7.040  1.2533 -1.1761 -0.8242
 5932SOL    HW228111  10.603   7.997   7.173  1.6766 -1.1053 -0.8026
 5933SOL     OW28112  11.932  12.124   0.993 -0.1534 -0.5366  0.3955
 5933SOL    HW128113  11.957  12.144   1.083  0.2262 -1.4328  0.5055
 5933SOL    HW228114  11.843  12.088   1.000 -0.3149 -0.1441  0.3556
 5934SOL     OW28115   2.813  11.750   9.273  0.0734  0.7528  0.5537
 5934SOL    HW128116   2.757  11.675   9.293  0.0574  0.4644 -0.5175
 5934SOL    HW228117   2.812  11.803   9.353 -1.2576  0.4594  0.7563
 5935SOL     OW28118   6.117   6.806   5.816 -0.1830  0.3685  0.2691
 5935SOL    HW128119   6.182   6.841   5.878 -0.0539 -0.7825  0.7954
 5935SOL    HW228120   6.130   6.711   5.818 -2.3723  0.0404  0.9155
 5936SOL     OW28121   9.410   5.619   0.846  0.4297 -0.4805 -0.0716
 5936SOL    HW128122   9.366   5.636   0.762  0.3209 -0.7616 -0.0709
 5936SOL    HW228123   9.396   5.700   0.896 -0.8047 -0.8647  0.2457
 5937SOL     OW28124   8.018   4.882   6.639  0.5618  0.2690  0.4062
 5937SOL    HW128125   8.054   4.892   6.551 -2.1209  1.6219 -0.6451
 5937SOL    HW228126   8.011   4.972   6.672 -1.8722  0.1207  0.4609
 5938SOL     OW28127   2.018   1.203   6.364 -0.2221 -0.0586 -0.1565
 5938SOL    HW128128   2.080   1.138   6.398 -0.7974  0.1985  1.4844
 5938SOL    HW228129   1.996   1.171   6.276  0.6843 -1.2396  0.0157
 5939SOL     OW28130   9.080   7.040   8.673  0.4298 -0.5514 -0.0189
 5939SOL    HW128131   9.070   7.120   8.725 -0.7995 -0.6590 -0.0570
 5939SOL    HW228132   9.089   6.970   8.737  3.2018 -0.2438  0.0265
 5940SOL     OW28133   0.287   9.167   3.543  0.0480  0.6317 -0.0092
 5940SOL    HW128134   0.231   9.241   3.519 -1.1165 -0.5964 -1.2664
 5940SOL    HW228135   0.273   9.155   3.636 -0.9957  0.9987 -0.1031
 5941SOL     OW28136  10.716  12.537   7.452 -0.3899 -0.0185  0.5958
 5941SOL    HW128137  10.663  12.601   7.405  0.8050  0.3412 -0.2867
 5941SOL    HW228138  10.757  12.484   7.384  0.5116 -0.1947  1.2541
 5942SOL     OW28139   4.238   6.643  10.964 -0.1482 -0.0741  0.5368
 5942SOL    HW128140   4.167   6.688  10.919  0.2044  0.9547  0.9814
 5942SOL    HW228141   4.295   6.611  10.894 -1.0257 -0.8935  0.1814
 5943SOL     OW28142   5.654   2.134   2.967 -0.3885 -0.2133  0.4697
 5943SOL    HW128143   5.629   2.050   3.004  1.9717 -1.4068 -0.4010
 5943SOL    HW228144   5.734   2.158   3.014 -1.3638  1.9018  1.1404
 5944SOL     OW28145   5.964   9.389   1.584 -0.2771 -0.4622 -0.2192
 5944SOL    HW128146   6.028   9.321   1.603 -0.8097 -0.7400  0.6404
 5944SOL    HW228147   5.926   9.411   1.669 -2.0516 -1.0384 -0.8112
 5945SOL     OW28148   4.448   8.026   1.504  0.0461  0.3339 -0.2512
 5945SOL    HW128149   4.482   7.945   1.542  0.6262  1.1135  0.9641
 5945SOL    HW228150   4.458   8.015   1.410  2.0708 -0.1705 -0.0082
 5946SOL     OW28151   7.383   4.403   5.139  0.2085 -0.1045 -0.3429
 5946SOL    HW128152   7.468   4.427   5.175  0.1291 -0.2375 -0.0681
 5946SOL    HW228153   7.325   4.399   5.215  0.3171 -1.6017 -0.3217
 5947SOL     OW28154   6.796   1.082   8.524  0.2115 -0.0689  0.0733
 5947SOL    HW128155   6.835   0.996   8.532  0.8139  0.2930  1.1319
 5947SOL    HW228156   6.721   1.069   8.466  0.4522 -1.2409  0.0081
 5948SOL     OW28157   7.523   9.905   5.393 -0.0179  0.2523 -0.2484
 5948SOL    HW128158   7.472   9.825   5.391  0.9540 -0.3956  0.0687
 5948SOL    HW228159   7.522   9.933   5.484 -1.7125  1.5327 -0.6098
 5949SOL     OW28160   3.153  11.050  10.781  0.0155  0.2953 -0.3325
 5949SOL    HW128161   3.212  11.076  10.851 -1.6168 -0.1214  1.2538
 5949SOL    HW228162   3.184  11.098  10.704  2.6574 -0.2497  0.3184
 5950SOL     OW28163  12.117   1.909  11.585  0.0470 -0.3702  0.0118
 5950SOL    HW128164  12.054   1.860  11.638 -0.0682 -1.1678 -0.8431
 5950SOL    HW228165  12.063   1.959  11.523  0.2230 -0.3462 -0.1218
 5951SOL     OW28166   6.376   4.228   6.549 -0.2012 -0.0608 -0.6349
 5951SOL    HW128167   6.386   4.139   6.516  2.2709 -0.4172  0.7745
 5951SOL    HW228168   6.333   4.218   6.634 -0.2402  0.1155 -0.6333
 5952SOL     OW28169   1.894   5.552   0.426  0.4635 -0.1535 -0.5135
 5952SOL    HW128170   1.881   5.548   0.332  1.7516  1.4184 -0.8150
 5952SOL    HW228171   1.932   5.639   0.441  0.7299 -0.5489  1.3925
 5953SOL     OW28172   8.828  12.534  10.459  0.1983  0.4093 -0.5986
 5953SOL    HW128173   8.853  12.452  10.416 -0.3248 -0.1034  0.0335
 5953SOL    HW228174   8.910  12.569  10.493  0.3315 -0.3174 -0.1208
 5954SOL     OW28175  10.073   9.598   3.859 -0.0554 -0.6380 -0.1120
 5954SOL    HW128176  10.124   9.643   3.926  0.1083 -0.4832 -0.3379
 5954SOL    HW228177  10.136   9.580   3.789 -0.3273 -0.3687 -0.4284
 5955SOL     OW28178   6.454   0.027   6.466 -0.2394  0.6464 -0.8162
 5955SOL    HW128179   6.383   0.028   6.531 -0.2846  0.6462 -0.8649
 5955SOL    HW228180   6.425  -0.038   6.401 -0.5942  1.2573 -1.2825
 5956SOL     OW28181   2.369   9.051   2.204 -0.1630  0.3710  0.8788
 5956SOL    HW128182   2.397   9.119   2.265 -3.0597  0.8046  1.8909
 5956SOL    HW228183   2.278   9.034   2.227 -1.6266  0.8379 -3.5279
 5957SOL     OW28184   4.090   7.122   6.220 -0.0563 -0.2170 -0.5130
 5957SOL    HW128185   4.066   7.191   6.158  0.1411  0.0208 -0.3238
 5957SOL    HW228186   4.181   7.140   6.243 -0.5038  0.4324  0.8058
 5958SOL     OW28187   5.424   6.156   1.879 -0.2144 -0.1648 -0.1945
 5958SOL    HW128188   5.340   6.176   1.921  0.7264 -0.3569  1.8802
 5958SOL    HW228189   5.480   6.230   1.901  0.8993 -1.2198  0.6376
 5959SOL     OW28190   4.457  11.060   9.299  0.0488  0.2305 -0.1406
 5959SOL    HW128191   4.542  11.099   9.318  0.1413 -0.4493  0.8740
 5959SOL    HW228192   4.460  11.041   9.205  1.2707 -0.3840  0.0102
 5960SOL     OW28193   3.274   4.014  10.564  0.4737  0.1419 -0.2609
 5960SOL    HW128194   3.189   3.981  10.593  0.0914 -0.0784 -1.5684
 5960SOL    HW228195   3.285   3.977  10.476  3.0161 -1.8242  0.7596
 5961SOL     OW28196   0.198   6.819   9.792  0.1377 -0.1257  0.1332
 5961SOL    HW128197   0.170   6.858   9.709  0.1811 -0.4934 -0.0618
 5961SOL    HW228198   0.129   6.756   9.813  0.3108 -0.3062  0.1748
 5962SOL     OW28199   7.879  10.474   6.592 -0.4448 -0.1628 -0.1486
 5962SOL    HW128200   7.880  10.406   6.659  1.3288  2.6887  3.0550
 5962SOL    HW228201   7.792  10.514   6.600 -0.7755 -0.7657 -0.6498
 5963SOL     OW28202   1.940   7.507   6.180  0.2342 -0.3358  0.0732
 5963SOL    HW128203   1.980   7.437   6.233 -0.9459  0.6650  2.4363
 5963SOL    HW228204   2.012   7.566   6.160  0.6572 -0.5378  0.9392
 5964SOL     OW28205   3.653  10.151   5.749  0.0557  0.1382 -0.1787
 5964SOL    HW128206   3.687  10.176   5.663 -4.7713  3.7054 -1.5105
 5964SOL    HW228207   3.626  10.060   5.739  0.9381  0.0274 -1.9346
 5965SOL     OW28208  10.874   0.551  10.959  0.4889 -0.4844  0.0898
 5965SOL    HW128209  10.885   0.546  11.054 -0.8083 -0.8371  0.2479
 5965SOL    HW228210  10.796   0.497  10.942  0.2746  0.1735 -1.0828
 5966SOL     OW28211   6.173  11.669   3.041 -0.3417  0.3035  0.2948
 5966SOL    HW128212   6.222  11.743   3.006 -0.2016  0.1105  0.0883
 5966SOL    HW228213   6.187  11.674   3.136  1.8453 -0.9961  0.0982
 5967SOL     OW28214   8.336   9.375  11.835 -0.2452  0.1401 -0.3917
 5967SOL    HW128215   8.331   9.401  11.927 -0.3126  0.5396 -0.5064
 5967SOL    HW228216   8.430   9.376  11.815 -0.2200 -0.0680 -0.2984
 5968SOL     OW28217   4.052   9.011  12.391  0.3283 -0.2798  0.4587
 5968SOL    HW128218   4.080   8.923  12.417  1.3181 -0.2493 -0.4342
 5968SOL    HW228219   4.054   9.061  12.472  1.8472 -0.5638  0.6302
 5969SOL     OW28220  11.865  12.109  12.909 -0.3074 -0.7780  0.4770
 5969SOL    HW128221  11.822  12.023  12.911 -2.0558  0.0374 -0.0739
 5969SOL    HW228222  11.936  12.098  12.846 -1.9502 -1.2340 -1.4167
 5970SOL     OW28223   3.030   6.187   2.563 -0.1888 -0.3282  0.1301
 5970SOL    HW128224   2.965   6.121   2.585  1.4628 -1.4306  2.0738
 5970SOL    HW228225   2.993   6.270   2.593 -1.4290 -0.6505 -0.4688
 5971SOL     OW28226   7.546   8.279   0.337  0.1140 -0.0372 -0.3939
 5971SOL    HW128227   7.512   8.331   0.410  0.9005  0.1644 -0.1686
 5971SOL    HW228228   7.547   8.189   0.370  1.1567  0.1518  0.0993
 5972SOL     OW28229   6.086   4.991   7.871 -0.0401 -0.2411 -0.2796
 5972SOL    HW128230   6.029   4.914   7.872  0.2385 -0.4470  0.3984
 5972SOL    HW228231   6.165   4.962   7.826  0.2978 -0.5334  0.4845
 5973SOL     OW28232   9.797   4.442   8.468  0.4785  0.2736  0.4155
 5973SOL    HW128233   9.884   4.418   8.500 -0.2789 -0.4661  2.0475
 5973SOL    HW228234   9.739   4.376   8.507 -0.8774  1.0293 -0.2677
 5974SOL     OW28235   2.886   7.680   8.314 -0.3969 -0.2509 -0.4476
 5974SOL    HW128236   2.903   7.608   8.374  3.4874 -0.3857 -1.4637
 5974SOL    HW228237   2.876   7.639   8.228 -0.3659  0.2766 -0.7103
 5975SOL     OW28238  10.119   8.670   7.643 -0.0772 -0.0929 -1.0826
 5975SOL    HW128239  10.100   8.645   7.733  0.8777 -1.1325 -1.1561
 5975SOL    HW228240  10.213   8.661   7.634 -0.3579 -2.1281 -2.7842
 5976SOL     OW28241   6.754   1.985   2.868  0.1464  0.1647 -0.1271
 5976SOL    HW128242   6.764   2.070   2.910 -0.2640 -1.0151  2.5657
 5976SOL    HW228243   6.660   1.966   2.872  0.3770 -0.9427  0.4501
 5977SOL     OW28244  11.896   4.874   0.500  0.2891  0.1109  0.4255
 5977SOL    HW128245  11.888   4.955   0.551 -0.4522  1.2260 -1.3452
 5977SOL    HW228246  11.958   4.896   0.430  0.6329 -1.0942  0.3350
 5978SOL     OW28247   4.708   1.100   2.143 -0.0760 -0.1123  0.3619
 5978SOL    HW128248   4.689   1.017   2.187  0.3285 -0.2569  0.2731
 5978SOL    HW228249   4.773   1.143   2.199  0.1838 -0.1416  0.0866
 5979SOL     OW28250   3.666   1.249  10.409  0.5184  0.3891 -0.2119
 5979SOL    HW128251   3.669   1.242  10.313  0.5821 -0.4602 -0.1550
 5979SOL    HW228252   3.595   1.312  10.426  0.1988  0.1985 -0.8059
 5980SOL     OW28253  10.798   9.798   0.602 -0.1487 -0.1794 -0.5554
 5980SOL    HW128254  10.721   9.853   0.615 -0.7694 -1.1737  0.1358
 5980SOL    HW228255  10.789   9.729   0.668  0.8813 -0.8020 -1.0444
 5981SOL     OW28256   7.510   0.254   9.209  0.1234  0.0767  0.1876
 5981SOL    HW128257   7.483   0.191   9.275 -0.6386  0.3335  0.1304
 5981SOL    HW228258   7.603   0.236   9.194 -0.0335 -0.8709  0.3382
 5982SOL     OW28259   2.474   8.758   3.675 -0.1145  0.3669 -0.0663
 5982SOL    HW128260   2.462   8.668   3.647  0.1309  0.7991 -1.6507
 5982SOL    HW228261   2.388   8.786   3.707 -0.1196 -0.4948  0.7153
 5983SOL     OW28262   4.737   7.475   0.417 -0.2812  0.4209 -0.6211
 5983SOL    HW128263   4.716   7.441   0.504 -1.4006 -2.1903 -1.7922
 5983SOL    HW228264   4.832   7.485   0.417 -0.1197 -0.8251  0.5030
 5984SOL     OW28265   4.972   6.686   0.129  0.1842 -0.0190  0.3549
 5984SOL    HW128266   4.960   6.603   0.176  0.6428  0.6971  1.7858
 5984SOL    HW228267   4.909   6.745   0.170 -0.6284  0.1709 -1.1294
 5985SOL     OW28268   1.416   3.275   5.442  0.0129  0.2906  0.2387
 5985SOL    HW128269   1.430   3.252   5.350 -1.2401 -0.2322  0.1713
 5985SOL    HW228270   1.322   3.286   5.450  0.0329 -0.3798  1.6366
 5986SOL     OW28271   1.683   3.632   8.022  0.3062 -0.3788  0.3408
 5986SOL    HW128272   1.697   3.565   8.089 -0.8942 -1.7850 -0.7633
 5986SOL    HW228273   1.664   3.583   7.942 -0.8036  1.2776 -0.4732
 5987SOL     OW28274   7.119   0.127  12.587  0.3486 -0.4878  0.0471
 5987SOL    HW128275   7.105   0.052  12.645 -1.5554 -0.9179 -0.8735
 5987SOL    HW228276   7.192   0.102  12.531  0.7290 -0.9962  0.7547
 5988SOL     OW28277   1.624   1.653   9.670 -0.7685  0.1246 -0.2010
 5988SOL    HW128278   1.564   1.655   9.745  0.9238 -0.5124  1.2446
 5988SOL    HW228279   1.670   1.737   9.675 -0.9100  0.2415 -0.7817
 5989SOL     OW28280   1.813   2.718   1.372 -0.3394  0.3043  0.1615
 5989SOL    HW128281   1.879   2.663   1.329 -0.6624  0.4173 -0.4793
 5989SOL    HW228282   1.852   2.739   1.457  0.1848 -0.1445  0.0397
 5990SOL     OW28283   7.814   5.400   7.195 -0.5173 -0.2986 -0.0360
 5990SOL    HW128284   7.824   5.461   7.269 -0.5043  2.3456 -2.0392
 5990SOL    HW228285   7.878   5.331   7.212 -0.4648  0.2296  2.3407
 5991SOL     OW28286   2.604  10.169   2.240  0.3885  0.7555  0.1633
 5991SOL    HW128287   2.695  10.198   2.244  1.0416 -1.1258  0.0607
 5991SOL    HW228288   2.578  10.186   2.149  1.5041 -0.9915 -0.5382
 5992SOL     OW28289   9.770  10.422   8.880  0.1487  0.9126 -0.1400
 5992SOL    HW128290   9.714  10.406   8.956 -0.0237 -0.6893 -0.5604
 5992SOL    HW228291   9.713  10.406   8.804  1.1275 -0.8342 -0.5739
 5993SOL     OW28292   5.702   6.298   7.277  0.0747 -0.4600 -0.1922
 5993SOL    HW128293   5.735   6.305   7.366  0.1003  0.1912 -0.2454
 5993SOL    HW228294   5.761   6.354   7.225 -1.2025  0.8989 -0.2554
 5994SOL     OW28295   0.837   9.417   5.056  0.5965 -0.3896  0.5476
 5994SOL    HW128296   0.777   9.489   5.036  1.4015  0.1020 -0.1706
 5994SOL    HW228297   0.811   9.387   5.143 -0.7852 -0.2935  0.1901
 5995SOL     OW28298  10.099   5.984  12.769 -0.4449  0.2011  0.1602
 5995SOL    HW128299  10.101   6.045  12.695  1.2361  0.4296  0.3591
 5995SOL    HW228300  10.089   5.898  12.727  3.5109 -0.0238 -0.6974
 5996SOL     OW28301   3.724   5.964   0.369 -0.6268 -0.5840  0.5410
 5996SOL    HW128302   3.759   5.887   0.324  0.0428 -0.1348  0.2894
 5996SOL    HW228303   3.763   5.960   0.457  1.7761  1.0355 -0.3700
 5997SOL     OW28304   7.071   3.124   0.026  0.1336  0.8072 -0.4538
 5997SOL    HW128305   7.104   3.036   0.006 -2.3039 -0.7748  1.7448
 5997SOL    HW228306   7.110   3.146   0.111 -0.3974  1.2026 -0.3090
 5998SOL     OW28307   4.624   2.834  11.497  0.2438 -0.4029  0.2815
 5998SOL    HW128308   4.693   2.898  11.479  0.5927  0.4967  3.9942
 5998SOL    HW228309   4.669   2.751  11.507  0.4064 -0.3565 -0.0662
 5999SOL     OW28310   7.890   8.290   0.000 -0.0005 -0.1158 -0.3607
 5999SOL    HW128311   7.923   8.207   0.035 -1.0347 -0.4194 -0.0522
 5999SOL    HW228312   7.795   8.276  -0.007 -0.1587  0.9760 -0.4825
 6000SOL     OW28313  11.813   4.907   4.864 -0.0749  0.1194  0.3095
 6000SOL    HW128314  11.866   4.932   4.788 -3.6121  1.2332 -2.0456
 6000SOL    HW228315  11.822   4.812   4.869  0.1940 -0.0044 -1.6367
 6001SOL     OW28316   0.752   9.238  12.358 -0.4786  0.6241 -0.2316
 6001SOL    HW128317   0.679   9.241  12.296 -1.0710 -1.1934  0.3183
 6001SOL    HW228318   0.724   9.296  12.430 -0.0907  2.1858 -1.2906
 6002SOL     OW28319   5.231  11.149   6.839  0.0610 -0.0827 -0.6365
 6002SOL    HW128320   5.282  11.221   6.875  0.2068  0.1631 -1.3190
 6002SOL    HW228321   5.260  11.072   6.890 -1.9279  0.6820  1.8639
 6003SOL     OW28322  12.015   2.628  10.911 -0.5735 -0.5660  0.4077
 6003SOL    HW128323  12.033   2.551  10.857  0.4116 -0.5413  0.6909
 6003SOL    HW228324  11.929   2.610  10.949 -0.4167 -1.4606  0.3631
 6004SOL     OW28325  11.041   7.361   5.047 -0.3314  0.4265 -0.5642
 6004SOL    HW128326  11.026   7.456   5.050 -1.3564  0.2504  0.1597
 6004SOL    HW228327  11.086   7.341   5.129 -0.2696  0.2528 -0.6393
 6005SOL     OW28328   7.482  12.598   1.642 -0.6621 -0.8030 -0.3696
 6005SOL    HW128329   7.513  12.542   1.713 -1.4467 -1.0723 -0.2393
 6005SOL    HW228330   7.550  12.590   1.574  0.4213 -0.0314  0.5813
 6006SOL     OW28331   0.201  12.710   7.595 -0.0953 -0.4441 -0.9303
 6006SOL    HW128332   0.121  12.756   7.621 -0.1008  0.3414 -2.2374
 6006SOL    HW228333   0.187  12.620   7.625 -1.5844 -0.3825 -1.3262
 6007SOL     OW28334   0.135   6.622  11.399 -0.0828  0.6587  0.1942
 6007SOL    HW128335   0.195   6.595  11.329  3.3051  1.5787  2.5372
 6007SOL    HW228336   0.152   6.562  11.471 -0.8389  1.9048  1.4750
 6008SOL     OW28337   1.322   5.214   2.454 -0.2630 -0.8284 -0.3549
 6008SOL    HW128338   1.259   5.169   2.398 -1.3594  0.1669  0.0557
 6008SOL    HW228339   1.275   5.290   2.487  0.2501 -1.5431  2.2067
 6009SOL     OW28340   5.953   2.913   6.394  0.0645  0.2638 -0.5325
 6009SOL    HW128341   5.915   2.853   6.329 -0.4437 -0.2328  0.2132
 6009SOL    HW228342   6.037   2.872   6.417  1.2185  1.4686 -2.3354
 6010SOL     OW28343   3.856   8.227   1.063 -0.0656 -0.2985  0.3139
 6010SOL    HW128344   3.763   8.249   1.065  0.0815  0.5827 -1.3285
 6010SOL    HW228345   3.862   8.155   1.000  0.3687 -0.3116  0.3698
 6011SOL     OW28346  10.341   7.989   7.627  0.0717  0.7729  0.2033
 6011SOL    HW128347  10.253   7.976   7.661 -1.1391  1.1653 -2.5205
 6011SOL    HW228348  10.399   7.956   7.696 -2.2198 -0.7549  1.5141
 6012SOL     OW28349   0.481  11.717   6.583 -0.0836  0.0585  0.4297
 6012SOL    HW128350   0.498  11.627   6.609 -1.8672 -0.1906  0.8701
 6012SOL    HW228351   0.493  11.717   6.488 -2.0431 -1.1903  0.1137
 6013SOL     OW28352   1.659   2.174   5.407 -0.3424 -0.3531  0.0038
 6013SOL    HW128353   1.627   2.137   5.490  1.5386  0.3302  1.0828
 6013SOL    HW228354   1.693   2.260   5.430 -0.1518  0.0260 -1.5755
 6014SOL     OW28355   9.522   6.593   9.128 -0.7125 -0.2122  0.1927
 6014SOL    HW128356   9.582   6.557   9.063 -0.4167  0.0707  0.3022
 6014SOL    HW228357   9.578   6.613   9.203 -0.8208  0.6797  0.0474
 6015SOL     OW28358   0.024   3.096  12.932  0.3013 -0.1342 -0.5608
 6015SOL    HW128359   0.024   3.169  12.871 -0.1634 -0.0320 -0.4444
 6015SOL    HW228360  -0.027   3.028  12.888 -0.6667  0.2010  0.0046
 6016SOL     OW28361  11.105   1.162   4.833  0.3720 -0.4898  0.3143
 6016SOL    HW128362  11.031   1.212   4.799  1.2924  0.3920 -0.4664
 6016SOL    HW228363  11.177   1.183   4.773  0.9754 -2.2015  0.3943
 6017SOL     OW28364   0.468   8.492   2.998  0.6838 -0.3909  0.4198
 6017SOL    HW128365   0.556   8.464   2.973  0.7274 -1.0919  1.3129
 6017SOL    HW228366   0.470   8.500   3.093  0.1639  0.9788  0.3383
 6018SOL     OW28367   4.016   2.611   7.715  0.1682 -0.5683  0.7819
 6018SOL    HW128368   3.978   2.583   7.798  2.1646 -1.1076  1.5545
 6018SOL    HW228369   3.998   2.540   7.654 -0.8514 -0.3933  0.8590
 6019SOL     OW28370   6.139  11.052   8.735 -0.0751  0.0626  0.2019
 6019SOL    HW128371   6.061  11.055   8.679  0.6218 -0.2385 -0.8221
 6019SOL    HW228372   6.197  10.989   8.691  1.2344  1.1744  0.2873
 6020SOL     OW28373   1.836   0.767   9.563  1.1638 -0.2154  0.0599
 6020SOL    HW128374   1.850   0.678   9.529  1.4394 -0.7648  1.5215
 6020SOL    HW228375   1.875   0.765   9.651 -1.5920  0.3864  1.4022
 6021SOL     OW28376   2.602   7.706  10.928 -0.0564 -0.1148 -0.2073
 6021SOL    HW128377   2.650   7.657  10.861  0.5819 -0.8793  0.7770
 6021SOL    HW228378   2.665   7.772  10.958 -0.0168 -0.3707  0.2771
 6022SOL     OW28379  11.373  12.720   5.724 -0.3720  0.5548  0.1327
 6022SOL    HW128380  11.306  12.698   5.658 -0.6736  0.8032  0.3512
 6022SOL    HW228381  11.342  12.802   5.762  0.0265  0.6363  0.2845
 6023SOL     OW28382  10.480   4.685  11.534  0.6509 -0.2835 -0.9423
 6023SOL    HW128383  10.425   4.651  11.605  1.3316 -0.2471 -0.3937
 6023SOL    HW228384  10.559   4.632  11.538  1.2321  0.5778 -0.8441
 6024SOL     OW28385   8.799   1.937   6.382 -0.2117 -0.8167  0.0515
 6024SOL    HW128386   8.892   1.939   6.405 -0.5391 -0.1762  1.3655
 6024SOL    HW228387   8.763   1.867   6.436 -0.7598 -0.1163  0.6004
 6025SOL     OW28388   4.924  10.623   6.567  0.2285 -0.2329 -0.0541
 6025SOL    HW128389   4.893  10.541   6.605  0.2035 -1.3911 -2.3976
 6025SOL    HW228390   5.019  10.623   6.584  0.0545 -0.1629  0.9563
 6026SOL     OW28391   3.283   0.974   9.612  0.4529 -0.4799 -0.7108
 6026SOL    HW128392   3.286   1.061   9.653 -1.4110  0.5965 -2.6392
 6026SOL    HW228393   3.365   0.967   9.563  0.3029  0.5305 -1.1241
 6027SOL     OW28394   5.842   8.137  12.066  0.5342 -0.0053 -0.0625
 6027SOL    HW128395   5.926   8.164  12.104  0.8030  0.2066 -0.7899
 6027SOL    HW228396   5.822   8.054  12.111  1.0675  0.0036  0.2113
 6028SOL     OW28397   4.440   9.050  10.477 -0.3619  0.0712 -0.0600
 6028SOL    HW128398   4.509   8.993  10.443  1.2157  1.3204  0.8795
 6028SOL    HW228399   4.413   9.103  10.402 -0.4909 -0.5951 -0.4888
 6029SOL     OW28400   9.756   4.421   9.466 -0.2784 -0.1403 -0.4982
 6029SOL    HW128401   9.742   4.515   9.479  0.1434 -0.0944 -0.3822
 6029SOL    HW228402   9.743   4.408   9.372  2.8224  0.6126 -1.1547
 6030SOL     OW28403  11.650  11.935   9.946 -0.2397  0.4043 -0.4533
 6030SOL    HW128404  11.637  12.000  10.014 -3.0986 -2.0650  1.6490
 6030SOL    HW228405  11.731  11.890   9.970  0.3599  1.4692 -0.4491
 6031SOL     OW28406   0.918   3.928  11.034 -0.1179  0.0439  0.3866
 6031SOL    HW128407   0.883   3.882  11.110 -0.1575  1.1366  1.0651
 6031SOL    HW228408   0.983   3.988  11.071  1.2430 -0.7550 -0.6758
 6032SOL     OW28409   4.277   4.458   4.700 -0.7247  0.0638 -0.1090
 6032SOL    HW128410   4.239   4.458   4.612  0.3753 -0.8700 -0.6119
 6032SOL    HW228411   4.233   4.386   4.745  0.3878 -1.0271 -0.6957
 6033SOL     OW28412   5.478   8.852   3.201  0.4717  0.0100  0.0236
 6033SOL    HW128413   5.573   8.862   3.192  0.7725 -0.0469  2.3962
 6033SOL    HW228414   5.445   8.942   3.205  0.4867  0.0286 -0.2487
 6034SOL     OW28415   2.802   1.649   9.966  0.2639  0.2348 -0.4299
 6034SOL    HW128416   2.823   1.557   9.982  0.9775  0.3618 -0.5882
 6034SOL    HW228417   2.708   1.651   9.953  0.2835 -0.5170 -0.6878
 6035SOL     OW28418   5.950   0.395   7.823 -0.2909 -0.2919  0.7796
 6035SOL    HW128419   5.903   0.359   7.899  0.0337 -0.0146  1.1126
 6035SOL    HW228420   5.985   0.318   7.779 -3.0350 -0.7687 -0.8337
 6036SOL     OW28421   3.768  10.589   2.550  0.5332  0.4026  0.0179
 6036SOL    HW128422   3.764  10.681   2.521 -0.0273  0.3977  0.0829
 6036SOL    HW228423   3.799  10.542   2.473  0.4039  0.5859 -0.1496
 6037SOL     OW28424   7.874   9.231   2.288  0.2233 -0.4534  0.7138
 6037SOL    HW128425   7.781   9.245   2.310 -0.3888 -2.4828 -0.3403
 6037SOL    HW228426   7.874   9.218   2.193  1.4716 -1.2999  0.8196
 6038SOL     OW28427  11.595   1.088  10.447  0.4971 -0.3816  0.6276
 6038SOL    HW128428  11.572   1.078  10.539  0.3534 -0.0871  0.6261
 6038SOL    HW228429  11.512   1.079  10.400  0.8343 -2.5282  0.3550
 6039SOL     OW28430  10.107   8.317   0.606  0.1703  0.0279 -0.3970
 6039SOL    HW128431  10.123   8.294   0.515  0.4889 -0.0624 -0.3185
 6039SOL    HW228432  10.076   8.236   0.646 -1.7704  0.4885 -0.8373
 6040SOL     OW28433   1.830  10.961   8.653 -0.0095 -0.0450  0.1829
 6040SOL    HW128434   1.827  10.956   8.557 -0.2024  0.3931  0.1631
 6040SOL    HW228435   1.897  11.027   8.671 -0.6643  0.6045  0.3208
 6041SOL     OW28436   3.943   5.974   2.140  0.2117 -0.3811 -0.6060
 6041SOL    HW128437   4.003   6.047   2.155 -1.4147  0.7372  0.8115
 6041SOL    HW228438   3.969   5.907   2.202 -0.4552  0.4312  0.5975
 6042SOL     OW28439   9.169   1.986   7.840 -0.0085 -0.0433  0.1439
 6042SOL    HW128440   9.219   2.042   7.781  0.3003 -1.3529 -0.8800
 6042SOL    HW228441   9.149   2.042   7.915  1.5650  1.0026 -0.1646
 6043SOL     OW28442   7.797   8.080   6.690  0.2077 -0.1113  0.0397
 6043SOL    HW128443   7.879   8.127   6.706  0.3676 -0.5817  0.6479
 6043SOL    HW228444   7.775   8.041   6.774  0.9313 -2.4689 -0.7811
 6044SOL     OW28445   8.706  10.200   3.787 -0.3847 -0.2042 -0.2593
 6044SOL    HW128446   8.700  10.112   3.822  0.3526 -0.0486  0.2805
 6044SOL    HW228447   8.653  10.199   3.708 -1.3865 -0.7958  0.4079
 6045SOL     OW28448  12.463   5.770   1.290 -0.2757 -0.4346  0.0501
 6045SOL    HW128449  12.416   5.723   1.359  0.9248 -0.1623  1.0904
 6045SOL    HW228450  12.530   5.708   1.261  0.2126  0.0153  0.2176
 6046SOL     OW28451  11.837  11.295   0.289 -0.3972 -0.9380  0.2088
 6046SOL    HW128452  11.882  11.335   0.214  0.2451  0.8360  1.4690
 6046SOL    HW228453  11.744  11.302   0.268 -0.3043  1.2271  0.3289
 6047SOL     OW28454   3.935   1.498   4.447 -0.2287 -0.3179  0.1501
 6047SOL    HW128455   4.016   1.452   4.426  0.2864  0.8102 -0.4079
 6047SOL    HW228456   3.866   1.435   4.429  0.4283 -0.6882 -1.1884
 6048SOL     OW28457   7.586   3.796   6.725 -0.4455  0.6213  0.0120
 6048SOL    HW128458   7.570   3.721   6.667  2.4695 -0.7282  0.7664
 6048SOL    HW228459   7.658   3.844   6.683  0.2469  0.8506  1.4146
 6049SOL     OW28460  10.325   7.600   2.629 -0.4580  0.1183  0.7838
 6049SOL    HW128461  10.398   7.548   2.662 -0.4485  0.8296  1.9488
 6049SOL    HW228462  10.247   7.556   2.661 -0.5344 -0.3489 -0.0212
 6050SOL     OW28463   5.913   6.368  10.005  0.0547 -0.2527 -0.1112
 6050SOL    HW128464   5.837   6.396  10.056  0.9278  0.5284  0.8070
 6050SOL    HW228465   5.880   6.298   9.948 -0.7822 -1.7465  2.1072
 6051SOL     OW28466   5.485   0.890   5.676  0.7173  0.4707  0.7274
 6051SOL    HW128467   5.511   0.809   5.632  2.0410  0.7401  0.9826
 6051SOL    HW228468   5.491   0.957   5.608 -2.5708  0.0724 -0.1111
 6052SOL     OW28469  11.776  10.965   8.058  0.3628  0.2873 -0.4891
 6052SOL    HW128470  11.772  11.058   8.081  0.3869  0.1662  0.0212
 6052SOL    HW228471  11.702  10.926   8.104  0.1236  0.1138 -1.0139
 6053SOL     OW28472   7.035   4.716   7.232 -0.6303 -0.3277 -0.0489
 6053SOL    HW128473   7.029   4.650   7.163  2.5922 -0.7206 -0.0817
 6053SOL    HW228474   7.108   4.772   7.207 -2.0765  2.1880  0.9491
 6054SOL     OW28475   6.745  12.050  10.991  0.5078  0.3485  0.5212
 6054SOL    HW128476   6.722  11.960  11.011  1.0196  0.1965  0.4295
 6054SOL    HW228477   6.718  12.063  10.900 -2.1332  1.1381  1.3278
 6055SOL     OW28478  10.070   7.469   3.789 -0.1404  0.4513  0.4154
 6055SOL    HW128479  10.137   7.427   3.842 -1.1514  1.3923  2.5910
 6055SOL    HW228480  10.031   7.399   3.738  0.3033 -0.7034  1.6062
 6056SOL     OW28481   6.705   5.917  10.623 -0.0446 -0.1321 -0.3916
 6056SOL    HW128482   6.676   5.958  10.541 -0.8188 -0.9433 -0.5434
 6056SOL    HW228483   6.650   5.839  10.631 -1.1680  0.7777  1.7358
 6057SOL     OW28484  11.102   1.559  12.679  0.6127 -0.0012  0.1492
 6057SOL    HW128485  11.139   1.512  12.754 -0.5399  1.0624  1.4456
 6057SOL    HW228486  11.029   1.504  12.650  1.3052 -0.6115 -0.4798
 6058SOL     OW28487   2.482   5.997   3.303 -0.7725 -0.5441  0.0828
 6058SOL    HW128488   2.497   5.915   3.257 -0.3628 -0.1749 -0.4429
 6058SOL    HW228489   2.443   5.971   3.387  1.6640 -1.4795  1.0190
 6059SOL     OW28490   4.528   3.148   1.617  0.1288  0.1262 -0.0701
 6059SOL    HW128491   4.569   3.064   1.594  0.1573  0.1268 -0.0218
 6059SOL    HW228492   4.436   3.136   1.595  0.2872  0.3844 -0.8818
 6060SOL     OW28493   3.182  11.957   9.059 -0.4363  0.3098 -0.0097
 6060SOL    HW128494   3.230  11.905   8.995  1.3077 -0.6437  1.9303
 6060SOL    HW228495   3.131  11.893   9.109 -2.0072  1.0612 -0.5781
 6061SOL     OW28496   8.901   7.949   5.950  0.2879 -0.3421  0.1782
 6061SOL    HW128497   8.829   7.920   6.005 -2.3431  1.2105 -2.2254
 6061SOL    HW228498   8.906   7.883   5.880  1.2196 -0.4045  0.2830
 6062SOL     OW28499   9.611  10.090  12.694  0.1506 -0.3974  0.0557
 6062SOL    HW128500   9.669  10.153  12.653  0.0173 -1.1727 -1.3994
 6062SOL    HW228501   9.669  10.022  12.729  0.2443  0.1011  0.8986
 6063SOL     OW28502   5.776   7.399   1.222 -0.1088 -0.4134 -0.4860
 6063SOL    HW128503   5.844   7.433   1.164 -1.0197  1.4977 -0.5019
 6063SOL    HW228504   5.782   7.451   1.301 -1.6365 -0.0727 -0.5541
 6064SOL     OW28505   6.077   7.653  10.799 -0.3006  0.0540  0.1723
 6064SOL    HW128506   6.098   7.647  10.706  0.5066 -1.4490  0.4185
 6064SOL    HW228507   6.115   7.574  10.838  0.8222  1.4127  2.0546
 6065SOL     OW28508  12.954   8.278   7.357  0.9709  0.6154 -0.0461
 6065SOL    HW128509  12.891   8.208   7.375  0.1599  1.1848 -0.5582
 6065SOL    HW228510  12.923   8.316   7.274  3.3118 -0.5593 -1.5549
 6066SOL     OW28511   7.408  11.414  11.711  0.1961  0.3286 -0.1708
 6066SOL    HW128512   7.368  11.482  11.765  1.7585  1.4086 -0.3096
 6066SOL    HW228513   7.334  11.363  11.677 -0.9375  1.1926  0.9281
 6067SOL     OW28514   3.066  11.466   6.544  0.0405 -0.1580 -0.0313
 6067SOL    HW128515   3.045  11.540   6.601 -0.1765 -0.2493  0.0067
 6067SOL    HW228516   2.993  11.460   6.483 -0.3988 -0.9155  0.5468
 6068SOL     OW28517  12.775  10.745   5.070  0.0554  0.4335 -0.7995
 6068SOL    HW128518  12.849  10.801   5.044  0.5146  0.4202  0.4439
 6068SOL    HW228519  12.702  10.806   5.082  0.3321  0.6706 -0.2902
 6069SOL     OW28520   3.059   3.681   7.027 -0.4200 -0.3943  0.1752
 6069SOL    HW128521   3.120   3.734   6.974  0.4857 -0.7747  0.8179
 6069SOL    HW228522   2.992   3.743   7.055 -0.5305 -0.0344 -0.8176
 6070SOL     OW28523  12.108  12.606   9.065 -0.2340  0.2852 -0.3408
 6070SOL    HW128524  12.191  12.648   9.044  0.5561  0.1669  2.2555
 6070SOL    HW228525  12.076  12.653   9.142 -2.2286 -0.1738 -0.8243
 6071SOL     OW28526  12.428  11.230   8.192 -0.0625 -0.1097 -0.0791
 6071SOL    HW128527  12.346  11.191   8.163  1.4907 -2.1413 -2.0545
 6071SOL    HW228528  12.447  11.298   8.127 -0.2962  0.5677  0.5449
 6072SOL     OW28529   6.476   2.465   3.612  0.0524  0.3291  0.3668
 6072SOL    HW128530   6.458   2.531   3.545  2.6072 -1.1351 -1.9678
 6072SOL    HW228531   6.408   2.399   3.599  0.1179  0.3943 -0.3632
 6073SOL     OW28532   3.124   7.118   7.761  0.1323 -0.5349  0.5395
 6073SOL    HW128533   3.183   7.176   7.712 -1.6819  1.4189  0.5415
 6073SOL    HW228534   3.152   7.030   7.737  1.9204  0.3359 -0.8018
 6074SOL     OW28535   7.310   5.662   8.660  0.2836  0.1577  0.1163
 6074SOL    HW128536   7.346   5.574   8.647  1.9381  0.8299 -0.1821
 6074SOL    HW228537   7.382   5.712   8.699 -0.4486  1.5008 -0.1743
 6075SOL     OW28538   0.123   9.523   9.839  0.0449 -0.0708  0.0521
 6075SOL    HW128539   0.069   9.461   9.888  0.3181  0.2870  0.8211
 6075SOL    HW228540   0.111   9.607   9.884  0.4382  0.2330 -0.3907
 6076SOL     OW28541   3.994   6.508  10.053  0.2459 -0.5674  1.0344
 6076SOL    HW128542   3.963   6.571   9.987 -0.1338 -1.0260  0.7729
 6076SOL    HW228543   3.922   6.445  10.061  0.9964 -1.4868  0.6354
 6077SOL     OW28544   0.427   4.646   6.820 -0.2302  0.1753 -0.0398
 6077SOL    HW128545   0.413   4.726   6.769  1.0342 -0.2479 -1.1050
 6077SOL    HW228546   0.377   4.579   6.773 -0.7120  0.1841  0.4509
 6078SOL     OW28547  12.974   0.510  11.528  0.2049 -0.2592  0.1160
 6078SOL    HW128548  12.911   0.560  11.580 -0.1770 -1.0036  0.3962
 6078SOL    HW228549  12.929   0.427  11.509  0.8393 -0.5263 -0.2830
 6079SOL     OW28550  11.046   8.052   9.385  0.3222 -1.0582  0.3293
 6079SOL    HW128551  10.993   8.131   9.393  1.2796 -0.5106  1.5065
 6079SOL    HW228552  11.117   8.077   9.326  0.6394 -1.0256  0.7215
 6080SOL     OW28553   6.002   4.926   9.027  0.1967  0.2466  1.1938
 6080SOL    HW128554   6.019   4.862   9.096 -0.7040 -3.0630 -1.3564
 6080SOL    HW228555   6.031   4.883   8.947 -0.0222  3.3126 -0.6982
 6081SOL     OW28556   8.248   6.970   2.261 -0.0281  0.0611  0.2694
 6081SOL    HW128557   8.208   7.036   2.318 -1.2053 -1.4626  1.3226
 6081SOL    HW228558   8.205   6.982   2.177 -1.2638 -0.2053  0.8308
 6082SOL     OW28559   4.982  11.614   2.319 -0.5070 -0.5589  0.2354
 6082SOL    HW128560   4.985  11.518   2.317  0.6134 -0.5311 -0.4975
 6082SOL    HW228561   5.074  11.641   2.325 -0.8068  0.4705  0.3950
 6083SOL     OW28562   1.432   1.373   0.937 -0.3858 -0.7476  0.4064
 6083SOL    HW128563   1.354   1.324   0.965 -0.5704  0.0316  1.2822
 6083SOL    HW228564   1.398   1.458   0.908  0.0306 -0.8040 -0.2860
 6084SOL     OW28565   1.429   7.736   2.410  0.2229  0.5949 -0.0243
 6084SOL    HW128566   1.379   7.670   2.361  1.1593 -1.2895  1.4046
 6084SOL    HW228567   1.366   7.775   2.469  0.1699 -1.1521  1.1631
 6085SOL     OW28568   2.201   3.474   8.812  0.7379 -0.1294  0.0553
 6085SOL    HW128569   2.173   3.566   8.810 -1.9687 -0.8385  1.2962
 6085SOL    HW228570   2.245   3.461   8.728  1.5157  2.3691 -0.0012
 6086SOL     OW28571   4.245   6.711   4.463  0.2772 -0.6273 -0.3012
 6086SOL    HW128572   4.287   6.651   4.402  0.6660 -0.4389 -0.2231
 6086SOL    HW228573   4.246   6.796   4.418  0.2945 -0.5498 -0.1554
 6087SOL     OW28574   4.383   3.279   9.129  0.9304  0.1499 -0.0508
 6087SOL    HW128575   4.414   3.356   9.176 -0.1696 -0.0184  0.9981
 6087SOL    HW228576   4.313   3.244   9.184  0.4252 -0.7587 -1.2328
 6088SOL     OW28577   3.585  12.128  12.159  0.5849  0.1593  0.5090
 6088SOL    HW128578   3.518  12.146  12.093 -0.0962 -0.6607  0.9574
 6088SOL    HW228579   3.661  12.180  12.131 -0.5040  1.7911  0.4682
 6089SOL     OW28580   0.719   8.786  11.367  0.0681  0.2011 -0.4432
 6089SOL    HW128581   0.710   8.782  11.462 -1.6071 -0.8542 -0.6145
 6089SOL    HW228582   0.642   8.834  11.337  0.6063  0.5725 -1.2737
 6090SOL     OW28583   3.039   5.885   2.155  0.3798  0.5863  0.4036
 6090SOL    HW128584   3.121   5.915   2.116  0.7474  0.4032  1.0176
 6090SOL    HW228585   3.002   5.963   2.197  0.9080  0.3880  1.2635
 6091SOL     OW28586   2.238  10.884   9.453 -0.1717 -0.5436 -0.0094
 6091SOL    HW128587   2.183  10.826   9.505  1.0592 -2.5533 -0.8699
 6091SOL    HW228588   2.305  10.915   9.515 -0.8730  0.0805  0.4660
 6092SOL     OW28589  11.661  11.272  10.740  0.3243  0.0466  0.2314
 6092SOL    HW128590  11.632  11.236  10.824 -0.0062 -0.5975 -0.1528
 6092SOL    HW228591  11.607  11.350  10.727  0.7620  0.4675  0.8743
 6093SOL     OW28592  10.272   7.300   5.283  0.4991  0.3657 -0.6482
 6093SOL    HW128593  10.350   7.259   5.321  0.9096  0.1314 -1.7120
 6093SOL    HW228594  10.282   7.393   5.305  1.2287  0.3816 -1.0065
 6094SOL     OW28595  12.329   6.698   5.642 -0.2522  0.0882 -0.0286
 6094SOL    HW128596  12.253   6.754   5.655 -0.1104  0.4834 -0.8814
 6094SOL    HW228597  12.375   6.700   5.727 -3.7010 -4.1339  2.3500
 6095SOL     OW28598   1.970   3.467   9.199  0.5006  0.2196 -0.6165
 6095SOL    HW128599   2.042   3.448   9.139  0.8966 -0.2680 -0.0045
 6095SOL    HW228600   1.902   3.405   9.176 -0.1824  1.4044 -1.9318
 6096SOL     OW28601   7.726  10.044   8.582  0.6809  0.7800  0.1583
 6096SOL    HW128602   7.734  10.126   8.533  3.6324  0.5681  0.1244
 6096SOL    HW228603   7.697  10.071   8.669 -0.4237  1.5947 -0.4251
 6097SOL     OW28604   0.423  11.348  10.117  0.3337 -0.3338  0.2470
 6097SOL    HW128605   0.473  11.409  10.063  0.9947 -0.0418  1.1639
 6097SOL    HW228606   0.370  11.403  10.173  0.9497 -0.5797  1.0968
 6098SOL     OW28607   4.495   3.800   5.156 -0.2295  0.4325  1.0556
 6098SOL    HW128608   4.544   3.848   5.090 -0.3901  0.9514  1.3060
 6098SOL    HW228609   4.420   3.857   5.177 -1.7283 -0.9163 -0.3108
 6099SOL     OW28610   8.316   1.250  11.929  0.5139  0.0687 -0.0588
 6099SOL    HW128611   8.382   1.180  11.925  1.7693  1.2546 -2.0566
 6099SOL    HW228612   8.353   1.320  11.876 -2.0718  1.0834 -0.6544
 6100SOL     OW28613   2.303   9.554   4.558  0.1833  0.2686  0.2792
 6100SOL    HW128614   2.330   9.530   4.469 -0.9726  0.0962 -0.0384
 6100SOL    HW228615   2.383   9.547   4.610  0.8131  0.0930 -0.6904
 6101SOL     OW28616   7.754   3.032   1.697 -0.3396  0.5112  0.5323
 6101SOL    HW128617   7.713   2.946   1.710 -0.2551  0.2737 -0.6086
 6101SOL    HW228618   7.832   3.029   1.752  0.4048 -0.7089 -0.5134
 6102SOL     OW28619   8.215   8.874   4.978 -0.1894  0.1407  0.4729
 6102SOL    HW128620   8.206   8.936   4.905  0.7193  0.3533  0.5316
 6102SOL    HW228621   8.304   8.841   4.970 -0.4662 -0.7152  0.8059
 6103SOL     OW28622   3.036   4.392   9.870  0.1669 -0.1813 -0.2434
 6103SOL    HW128623   3.019   4.330   9.941  0.6505  1.5938  1.5393
 6103SOL    HW228624   3.129   4.380   9.850  0.6092  0.7911  1.0384
 6104SOL     OW28625   5.169   8.726   9.261 -0.4312 -0.3717  0.4300
 6104SOL    HW128626   5.155   8.648   9.207 -0.3077 -1.3076  1.6943
 6104SOL    HW228627   5.236   8.699   9.324  0.2491  1.0486  0.3453
 6105SOL     OW28628   8.432   1.486   8.098  0.0134  0.5089  0.1255
 6105SOL    HW128629   8.345   1.447   8.099 -0.5231  1.6544 -0.4047
 6105SOL    HW228630   8.452   1.504   8.190  0.7986 -2.0648  0.5469
 6106SOL     OW28631  11.733   5.968   4.815 -0.3137 -0.5841  0.0079
 6106SOL    HW128632  11.724   6.054   4.856 -1.9415 -1.7033  2.1881
 6106SOL    HW228633  11.665   5.966   4.748  0.2174  0.0627 -0.5703
 6107SOL     OW28634   3.155   0.515   7.715  0.0727 -0.6587 -0.4610
 6107SOL    HW128635   3.220   0.479   7.655  1.1057 -0.2904  0.4045
 6107SOL    HW228636   3.073   0.513   7.666  1.0715  0.6535 -2.2974
 6108SOL     OW28637   0.285   9.322   8.901 -0.3228  0.4266  0.7049
 6108SOL    HW128638   0.286   9.377   8.980  0.0847  1.1297  0.2217
 6108SOL    HW228639   0.283   9.385   8.829  1.7290 -0.1148  0.0941
 6109SOL     OW28640   8.874   3.170   3.390  0.1639  0.4669 -0.3222
 6109SOL    HW128641   8.897   3.149   3.480 -0.7525  0.1409 -0.1470
 6109SOL    HW228642   8.789   3.214   3.397  0.0734  0.4200 -1.0318
 6110SOL     OW28643   9.143   2.726  10.011  0.2577  0.1625 -0.1226
 6110SOL    HW128644   9.205   2.688  10.074  0.4070  0.7655  0.1082
 6110SOL    HW228645   9.196   2.743   9.933 -0.1085 -1.3610 -0.7296
 6111SOL     OW28646  10.126  12.942   6.527  0.0053  0.0730 -0.2205
 6111SOL    HW128647  10.087  12.875   6.470 -0.5272 -0.4095  0.6963
 6111SOL    HW228648  10.108  13.025   6.483 -2.4481 -0.0840  0.3650
 6112SOL     OW28649   8.261   6.697   4.208 -0.7405 -0.2730  0.1301
 6112SOL    HW128650   8.284   6.733   4.294  2.4482 -0.6585 -0.4182
 6112SOL    HW228651   8.268   6.603   4.219 -1.6928 -0.3956 -0.2401
 6113SOL     OW28652   7.773   4.078  12.304 -0.3366  0.2016 -0.0073
 6113SOL    HW128653   7.757   4.166  12.339  0.1106 -0.3651  1.6915
 6113SOL    HW228654   7.688   4.035  12.309 -0.5903  0.5565 -0.9772
 6114SOL     OW28655   7.015   5.187   5.091  0.3611  0.3334 -0.1191
 6114SOL    HW128656   6.984   5.120   5.151 -1.0559  0.1664 -0.9770
 6114SOL    HW228657   7.042   5.139   5.013  2.8335  0.4841  0.5721
 6115SOL     OW28658  10.176   3.555   6.819 -0.5156 -0.1713 -0.5069
 6115SOL    HW128659  10.226   3.517   6.892  1.0471  1.1544 -0.8555
 6115SOL    HW228660  10.219   3.522   6.740  1.4909  2.9192 -0.8398
 6116SOL     OW28661   9.993   6.150  12.978 -0.2326 -0.5249  0.7349
 6116SOL    HW128662  10.005   6.126  13.069 -0.8376 -1.2498  0.6302
 6116SOL    HW228663  10.018   6.072  12.928  1.9467  0.4657  0.1568
 6117SOL     OW28664   6.156   1.471  12.877 -0.5258 -0.0482 -0.3948
 6117SOL    HW128665   6.232   1.445  12.824  0.3439  0.0038  0.7801
 6117SOL    HW228666   6.105   1.391  12.887  1.3280 -1.0949  1.9005
 6118SOL     OW28667  11.506   5.652   6.831  0.1855 -0.5910 -0.0872
 6118SOL    HW128668  11.591   5.669   6.871 -0.3783 -0.2537  1.0024
 6118SOL    HW228669  11.443   5.698   6.887 -0.9294 -2.5355  0.3649
 6119SOL     OW28670   9.313   8.505   7.134 -0.3442 -0.3711 -0.0854
 6119SOL    HW128671   9.391   8.547   7.169 -0.2763 -1.9231  1.8180
 6119SOL    HW228672   9.333   8.489   7.042 -0.0244  2.7772 -0.6822
 6120SOL     OW28673   0.924   6.479   7.821 -0.0502  0.4001  0.3255
 6120SOL    HW128674   0.943   6.471   7.914  1.5530  0.7746  0.0571
 6120SOL    HW228675   0.963   6.400   7.782  1.9531  1.6634 -0.3661
 6121SOL     OW28676   9.696   5.733   8.025 -0.0327 -0.3169  0.1867
 6121SOL    HW128677   9.742   5.802   7.978  1.0223 -0.1626  1.3840
 6121SOL    HW228678   9.629   5.780   8.075  0.6828 -0.1338  0.9985
 6122SOL     OW28679   0.003   5.042  11.533  0.2430  0.0091 -0.2176
 6122SOL    HW128680   0.044   4.981  11.595 -1.3414 -0.8981 -0.0173
 6122SOL    HW228681   0.009   5.127  11.576  0.7810 -0.3045  0.3503
 6123SOL     OW28682   1.943   1.631   8.112  0.0819  0.1804  0.0985
 6123SOL    HW128683   1.925   1.714   8.155 -0.6254  0.5659 -0.8945
 6123SOL    HW228684   2.034   1.612   8.133  0.9168  2.2468 -1.3362
 6124SOL     OW28685  12.145   6.270   4.382  0.6045 -0.2637  0.0488
 6124SOL    HW128686  12.173   6.221   4.305  1.8490 -1.0095  0.9400
 6124SOL    HW228687  12.214   6.334   4.396 -0.3922  0.9476 -0.3546
 6125SOL     OW28688   7.326  11.408   8.127 -0.0537 -0.1531 -0.5638
 6125SOL    HW128689   7.418  11.408   8.101 -0.3145  0.7255 -1.5534
 6125SOL    HW228690   7.321  11.345   8.198  1.0999 -1.0681 -1.2678
 6126SOL     OW28691   2.520   1.336   3.134 -0.7678 -0.1389 -0.4894
 6126SOL    HW128692   2.425   1.336   3.125 -0.8465 -2.0963 -0.0487
 6126SOL    HW228693   2.537   1.377   3.219 -1.3223 -1.1205  0.1072
 6127SOL     OW28694   0.153   9.109   6.178  0.2530 -0.5474 -0.0933
 6127SOL    HW128695   0.222   9.055   6.216  1.5359  0.6777 -0.5970
 6127SOL    HW228696   0.196   9.158   6.108 -1.3788 -0.5417 -1.1467
 6128SOL     OW28697   5.353   6.988   5.220  0.2962 -1.0826 -0.0893
 6128SOL    HW128698   5.411   7.002   5.294 -0.4390  0.7725  0.1946
 6128SOL    HW228699   5.397   7.030   5.146 -1.1051  1.3544  0.3652
 6129SOL     OW28700   0.208   8.571   7.049 -0.4897 -1.3207 -0.1874
 6129SOL    HW128701   0.228   8.613   7.133 -0.3768  0.2306 -0.9508
 6129SOL    HW228702   0.195   8.479   7.071  0.3773 -1.1084  1.4070
 6130SOL     OW28703  10.695   5.441   5.051 -0.1386  0.7231  0.0563
 6130SOL    HW128704  10.635   5.378   5.090 -0.6970  0.5450 -1.0307
 6130SOL    HW228705  10.708   5.409   4.961  0.5372  1.4889 -0.1333
 6131SOL     OW28706  11.261  12.704   7.038 -0.0641 -0.6465 -0.2916
 6131SOL    HW128707  11.320  12.636   7.070  0.5261 -0.7137 -1.4922
 6131SOL    HW228708  11.295  12.727   6.952 -0.8593  0.4488 -0.3334
 6132SOL     OW28709   0.237   9.570   4.751  0.1057 -0.2709 -0.1546
 6132SOL    HW128710   0.155   9.520   4.742  0.5311 -1.0749  0.3074
 6132SOL    HW228711   0.267   9.549   4.840 -0.1240  1.4711  0.3747
 6133SOL     OW28712   2.544  12.210   7.329 -0.2979  0.2133  0.3745
 6133SOL    HW128713   2.586  12.167   7.403 -0.7682 -3.0159 -1.0520
 6133SOL    HW228714   2.608  12.203   7.258 -0.6249  1.4205 -0.0620
 6134SOL     OW28715   1.733   0.563   7.700  0.1378  0.0109  0.1708
 6134SOL    HW128716   1.643   0.571   7.730 -0.1081  0.2032 -0.5938
 6134SOL    HW228717   1.731   0.591   7.609  0.7986 -0.8739 -0.1355
 6135SOL     OW28718   7.920   2.410   7.440  0.2768  0.3014  0.6253
 6135SOL    HW128719   8.009   2.431   7.469  0.0193  1.3357  0.6994
 6135SOL    HW228720   7.866   2.481   7.475 -0.4308  0.2123 -0.2613
 6136SOL     OW28721  12.621   6.474   0.127  0.4268  0.1931  0.6457
 6136SOL    HW128722  12.687   6.445   0.190 -0.6363  0.6073  1.9903
 6136SOL    HW228723  12.541   6.429   0.154 -0.5041  1.8892  0.8138
 6137SOL     OW28724  11.393   5.643   3.409 -0.1369 -0.1763  0.3656
 6137SOL    HW128725  11.300   5.632   3.429  0.0717 -0.4768  1.2138
 6137SOL    HW228726  11.435   5.563   3.441  0.5310  0.3228  0.7712
 6138SOL     OW28727  11.012  10.788  12.955 -0.0124 -0.0764 -0.1520
 6138SOL    HW128728  10.916  10.793  12.961  0.0978  1.3390  0.8982
 6138SOL    HW228729  11.036  10.857  12.893  0.2235 -2.1224 -2.5437
 6139SOL     OW28730   5.336   0.489   7.974  0.0986 -0.4052 -0.0001
 6139SOL    HW128731   5.320   0.439   8.054 -0.7464 -0.0129  0.0882
 6139SOL    HW228732   5.337   0.423   7.905 -1.5284 -0.5300  0.0472
 6140SOL     OW28733  10.721   0.226   3.398  0.4715  0.1357  0.3800
 6140SOL    HW128734  10.736   0.235   3.492  2.3913  2.4070 -0.0505
 6140SOL    HW228735  10.805   0.251   3.358 -1.0971  1.9792 -2.0032
 6141SOL     OW28736   5.262   3.389  11.883 -0.0474  0.2844 -0.0932
 6141SOL    HW128737   5.189   3.405  11.943  0.4762 -0.1024  0.6714
 6141SOL    HW228738   5.269   3.293  11.880  0.7611  0.3154  0.2817
 6142SOL     OW28739   1.667   6.300   6.462  0.0761 -0.0478 -0.2804
 6142SOL    HW128740   1.595   6.290   6.400  0.8268  0.5880 -1.2962
 6142SOL    HW228741   1.702   6.212   6.473  1.2240  0.0896 -2.4027
 6143SOL     OW28742   5.118  10.557   7.316  0.5636  0.3544  0.0684
 6143SOL    HW128743   5.092  10.649   7.312  1.8983  0.7321 -3.4167
 6143SOL    HW228744   5.189  10.554   7.379 -2.4843  0.6558  3.9364
 6144SOL     OW28745   5.961   6.322   5.630 -0.0825 -0.1873  0.0562
 6144SOL    HW128746   6.012   6.384   5.577  1.1633 -1.1484  0.0743
 6144SOL    HW228747   5.969   6.239   5.584  0.3882 -0.8818  1.3199
 6145SOL     OW28748   2.167   2.159   1.735 -0.3996  0.2008 -0.0048
 6145SOL    HW128749   2.077   2.127   1.735 -0.3544 -0.0257  1.8148
 6145SOL    HW228750   2.221   2.080   1.736 -0.1824  0.3365 -0.8947
 6146SOL     OW28751   3.324   5.548  10.611 -0.2499 -0.1693 -0.1035
 6146SOL    HW128752   3.411   5.588  10.610  1.0228 -2.7448 -1.5155
 6146SOL    HW228753   3.306   5.533  10.704  1.1110 -0.2006  0.1743
 6147SOL     OW28754   4.715   3.215  10.653 -0.1353 -0.3956  0.6635
 6147SOL    HW128755   4.675   3.229  10.567 -1.1268 -1.2499  0.9736
 6147SOL    HW228756   4.698   3.296  10.701  0.9471  0.3314 -0.1190
 6148SOL     OW28757   4.070   5.875   0.038 -0.6059  0.6183  0.3670
 6148SOL    HW128758   4.045   5.894  -0.052  3.2032  0.0127 -0.9836
 6148SOL    HW228759   4.095   5.783   0.038  0.1513  0.7857  1.8295
 6149SOL     OW28760   1.822  11.760   9.567  0.3337  0.3204 -0.2778
 6149SOL    HW128761   1.858  11.816   9.497 -0.3012  4.1789  2.1726
 6149SOL    HW228762   1.727  11.766   9.556  0.2330 -1.1210 -0.4468
 6150SOL     OW28763   3.928   3.115   7.043  0.2192  0.6013 -0.3571
 6150SOL    HW128764   3.889   3.137   6.958 -1.3555 -0.5015  0.0280
 6150SOL    HW228765   4.013   3.077   7.021  0.5650  1.8195 -1.3151
 6151SOL     OW28766   9.881  11.689   8.988 -0.0641 -0.4999 -0.4233
 6151SOL    HW128767   9.846  11.769   8.949  0.4755 -0.2101 -0.3258
 6151SOL    HW228768   9.804  11.645   9.024 -0.3532  0.0457 -0.3524
 6152SOL     OW28769   9.308   4.158   4.714 -0.3598  0.6932  0.1512
 6152SOL    HW128770   9.362   4.199   4.781  0.9958 -1.2620  0.3220
 6152SOL    HW228771   9.360   4.163   4.634 -0.2139 -0.5533  0.1538
 6153SOL     OW28772  12.221   2.042   3.837 -0.5052  0.0219  0.2395
 6153SOL    HW128773  12.220   2.101   3.762 -0.3041  0.3690  0.5049
 6153SOL    HW228774  12.284   1.973   3.814  1.1762  1.2611  0.9303
 6154SOL     OW28775  12.802   7.498   6.578 -0.5204 -0.1630 -0.8533
 6154SOL    HW128776  12.790   7.424   6.636  0.7478  1.3339  1.4891
 6154SOL    HW228777  12.714   7.517   6.544 -1.3707 -0.9229  0.8173
 6155SOL     OW28778   0.857  11.311   6.166 -0.3311 -0.1457 -0.1870
 6155SOL    HW128779   0.803  11.233   6.161 -1.7648  0.7720  0.4015
 6155SOL    HW228780   0.825  11.368   6.096  1.0273 -0.2368 -0.9333
 6156SOL     OW28781   5.582   0.324  12.038 -0.2442  0.1416  0.1562
 6156SOL    HW128782   5.659   0.375  12.015 -0.2684  0.3351  0.4969
 6156SOL    HW228783   5.570   0.263  11.965  1.5191 -1.3987  1.0475
 6157SOL     OW28784   4.493   8.475   2.739  0.1329  0.1890  0.0188
 6157SOL    HW128785   4.551   8.416   2.692  0.6509  1.1935 -0.6331
 6157SOL    HW228786   4.405   8.449   2.712  0.3814  0.0693 -0.6796
 6158SOL     OW28787  11.812   7.361   9.459 -0.3342 -0.5562  0.2247
 6158SOL    HW128788  11.826   7.370   9.553 -0.1792  0.7380  0.0977
 6158SOL    HW228789  11.723   7.328   9.450  0.4837 -3.1742  0.8746
 6159SOL     OW28790   2.621   0.722  12.678  0.0275  0.5879  0.0884
 6159SOL    HW128791   2.656   0.642  12.639 -2.5764  0.8694 -3.2142
 6159SOL    HW228792   2.666   0.793  12.633 -0.4157  0.9648  0.2353
 6160SOL     OW28793   9.315   3.858   2.705  0.1843 -0.5268  0.6118
 6160SOL    HW128794   9.407   3.865   2.679  0.1897  0.8956  0.9478
 6160SOL    HW228795   9.266   3.871   2.624  0.2679 -0.4412  0.5748
 6161SOL     OW28796  11.320   9.494   5.794  0.4807  0.3699 -0.1392
 6161SOL    HW128797  11.375   9.425   5.833  0.1591  0.2904  0.1780
 6161SOL    HW228798  11.383   9.559   5.761  0.8053 -0.3098 -0.8916
 6162SOL     OW28799   7.699   6.311   4.239  0.2586  0.1920  0.4152
 6162SOL    HW128800   7.621   6.365   4.252 -1.0968 -0.8395 -2.5986
 6162SOL    HW228801   7.691   6.278   4.150  3.4494 -1.1571  0.4964
 6163SOL     OW28802   6.749   8.008   5.492 -0.0201 -0.5599 -0.4152
 6163SOL    HW128803   6.693   7.971   5.560 -0.6355 -0.9798 -1.1362
 6163SOL    HW228804   6.798   8.077   5.537  0.0226 -1.2214  0.5828
 6164SOL     OW28805  11.836  12.404   0.533 -0.1075  0.0201  0.3971
 6164SOL    HW128806  11.894  12.416   0.609 -1.5992 -1.2020  1.8170
 6164SOL    HW228807  11.869  12.325   0.491 -0.0495 -0.0427  0.5568
 6165SOL     OW28808   3.622   0.863   2.986  0.0125  0.2464 -0.1437
 6165SOL    HW128809   3.625   0.806   3.062  0.9000 -0.6826 -0.8392
 6165SOL    HW228810   3.529   0.877   2.969 -0.2906 -1.9602 -0.6233
 6166SOL     OW28811   2.886   0.116  12.138 -0.2467  0.4685  0.6647
 6166SOL    HW128812   2.902   0.160  12.222  0.0817 -0.2961  1.0148
 6166SOL    HW228813   2.972   0.111  12.096 -0.2540  0.0521  0.6900
 6167SOL     OW28814   2.800   2.483  12.311  0.0246 -0.3024  0.5087
 6167SOL    HW128815   2.729   2.472  12.374 -1.7433 -1.4390 -1.5285
 6167SOL    HW228816   2.853   2.403  12.321 -0.2673 -0.4959  0.5198
 6168SOL     OW28817   8.256   2.926   3.140  0.1213 -0.1160 -0.2091
 6168SOL    HW128818   8.322   2.955   3.078 -0.2204  2.2336  0.4119
 6168SOL    HW228819   8.305   2.883   3.210  1.1135  1.8324  0.3817
 6169SOL     OW28820   0.709   9.708   6.865  0.0803  0.0433  0.4051
 6169SOL    HW128821   0.645   9.647   6.902 -1.2643  0.4291 -1.1732
 6169SOL    HW228822   0.788   9.693   6.917 -0.6614 -1.9163  1.0904
 6170SOL     OW28823  12.194   1.207   8.437 -0.0521  0.0252 -0.3515
 6170SOL    HW128824  12.283   1.173   8.450 -0.0456  0.0916 -0.2127
 6170SOL    HW228825  12.145   1.133   8.401 -0.2242 -0.3624  0.6494
 6171SOL     OW28826   9.840   0.488   0.859  0.2245  0.3109 -0.0566
 6171SOL    HW128827   9.757   0.476   0.907  0.1781  0.1793 -0.1696
 6171SOL    HW228828   9.898   0.530   0.923  0.6235 -1.1774  0.6015
 6172SOL     OW28829   4.742  12.439  11.436 -0.7725  0.1773 -0.2763
 6172SOL    HW128830   4.667  12.498  11.438 -1.1156 -0.2042 -1.4828
 6172SOL    HW228831   4.727  12.379  11.509 -0.7694  1.1294  0.5307
 6173SOL     OW28832  12.679   3.664   2.772 -0.1797 -0.2118  0.3159
 6173SOL    HW128833  12.771   3.689   2.774 -0.2445 -0.0465  1.4841
 6173SOL    HW228834  12.633   3.747   2.756 -0.2286  0.0269  1.5953
 6174SOL     OW28835   5.891  10.053   0.748  0.2509  0.3273  0.7394
 6174SOL    HW128836   5.800  10.060   0.720  0.7433 -0.8589 -1.2873
 6174SOL    HW228837   5.887  10.065   0.843 -1.8734  1.3465  0.5798
 6175SOL     OW28838   0.232  11.870   9.614  0.3552  0.4378  0.0889
 6175SOL    HW128839   0.264  11.895   9.701  0.8549 -3.5105  1.2772
 6175SOL    HW228840   0.266  11.781   9.602 -3.4686 -0.9432 -2.1731
 6176SOL     OW28841   0.932   4.876   7.951  0.0393  0.4399  0.0381
 6176SOL    HW128842   0.847   4.839   7.974  1.1840 -2.4589  0.0281
 6176SOL    HW228843   0.917   4.920   7.867 -1.6502  0.9177  0.5503
 6177SOL     OW28844   4.365   4.136   9.261  0.1716  0.3123  0.0270
 6177SOL    HW128845   4.338   4.056   9.218 -0.3380 -0.5299  1.8213
 6177SOL    HW228846   4.386   4.196   9.189  1.0655 -1.5517 -1.3675
 6178SOL     OW28847   0.835   6.429   6.304 -0.2675  1.5154  0.5459
 6178SOL    HW128848   0.833   6.387   6.390  0.1740  0.0458 -0.1282
 6178SOL    HW228849   0.902   6.381   6.255 -1.5446  1.3037 -1.1082
 6179SOL     OW28850   9.970   2.329   4.650 -0.0697  0.3279 -0.3598
 6179SOL    HW128851   9.999   2.325   4.559  1.3326 -0.9032  0.0984
 6179SOL    HW228852   9.921   2.410   4.656  2.0169  1.7922 -1.6172
 6180SOL     OW28853   4.802  10.963   2.653  0.3879  0.4202  0.2075
 6180SOL    HW128854   4.803  10.951   2.748  1.4503  1.1792  0.3055
 6180SOL    HW228855   4.732  11.026   2.637 -1.2934 -1.3543  0.2443
 6181SOL     OW28856   2.799   0.431   3.897 -0.4247  0.2731 -0.3625
 6181SOL    HW128857   2.802   0.395   3.809  0.9009  0.9293 -0.6165
 6181SOL    HW228858   2.770   0.358   3.952 -2.2809  0.1257 -1.4379
 6182SOL     OW28859   4.068   3.798   6.539  0.0731 -0.0273  0.5260
 6182SOL    HW128860   4.160   3.824   6.549  0.1648 -0.0126 -0.3256
 6182SOL    HW228861   4.072   3.712   6.498 -0.2672 -0.8249  2.0822
 6183SOL     OW28862  12.352   7.380  10.741  0.0455  0.0826 -0.1884
 6183SOL    HW128863  12.344   7.375  10.646 -0.8606 -2.6940 -0.0566
 6183SOL    HW228864  12.447   7.384  10.757  0.2114  0.4611 -1.2130
 6184SOL     OW28865   0.910   9.011   5.979 -0.6053 -0.4484 -0.3176
 6184SOL    HW128866   0.839   9.054   5.931  1.1589  0.6518 -2.0532
 6184SOL    HW228867   0.899   9.042   6.069 -0.4982  2.2603 -1.1454
 6185SOL     OW28868   7.536   0.044   4.964 -0.2911 -0.0356  0.3304
 6185SOL    HW128869   7.569   0.130   4.936  3.7553 -1.6964 -0.7497
 6185SOL    HW228870   7.493   0.009   4.886  0.2633  0.0902 -0.0444
 6186SOL     OW28871   5.156  11.609   1.210 -0.9517  0.2822  0.2480
 6186SOL    HW128872   5.170  11.692   1.165 -2.1754  0.2646 -0.1979
 6186SOL    HW228873   5.217  11.548   1.169 -2.7699 -0.0161 -2.2495
 6187SOL     OW28874   4.360   1.842  11.557 -0.4121 -0.3471  0.3242
 6187SOL    HW128875   4.374   1.835  11.463  0.9932  0.1352  0.4665
 6187SOL    HW228876   4.362   1.936  11.575 -0.3303 -0.4492  0.8774
 6188SOL     OW28877  10.917   4.182  10.370 -0.0625 -0.5962  0.2877
 6188SOL    HW128878  10.834   4.164  10.326 -0.7943  0.5233  1.1595
 6188SOL    HW228879  10.909   4.140  10.455  0.5472 -1.0518  0.1273
 6189SOL     OW28880   7.010   6.573   0.754  0.2957  0.0691 -0.5127
 6189SOL    HW128881   7.084   6.536   0.802  1.0047  0.7664 -1.0465
 6189SOL    HW228882   6.969   6.499   0.710  0.4742 -0.3692  0.0593
 6190SOL     OW28883   0.412   1.182  11.726  0.4844  0.1109  0.0701
 6190SOL    HW128884   0.474   1.224  11.666  0.5820 -1.1512 -0.7409
 6190SOL    HW228885   0.333   1.169  11.674  0.0130  0.4130  0.6878
 6191SOL     OW28886   0.942   0.453   2.763  0.6861  0.1247  0.0037
 6191SOL    HW128887   0.938   0.437   2.857  0.9928 -0.0760 -0.0162
 6191SOL    HW228888   0.894   0.380   2.724  0.5420  0.2186  0.0077
 6192SOL     OW28889   9.696   7.158   4.948 -0.0338 -0.0437 -0.6381
 6192SOL    HW128890   9.679   7.187   5.038 -2.0251 -0.2787 -0.8909
 6192SOL    HW228891   9.742   7.232   4.907 -0.2854  0.5925  0.2036
 6193SOL     OW28892   8.607   8.915  11.761 -0.2244 -0.2803  0.5038
 6193SOL    HW128893   8.652   8.872  11.833 -0.5948 -0.3778  0.6773
 6193SOL    HW228894   8.619   8.856  11.687 -0.5619 -0.5880  0.6931
 6194SOL     OW28895  10.557   0.045   4.391 -0.0682  0.2716  0.1751
 6194SOL    HW128896  10.567  -0.040   4.434 -0.7690  0.1662  0.1386
 6194SOL    HW228897  10.616   0.104   4.439  1.2425 -0.4749 -0.4843
 6195SOL     OW28898   3.931   8.416  10.483 -0.3522 -0.4562  0.7698
 6195SOL    HW128899   4.012   8.371  10.506  0.4025  0.2949 -0.3375
 6195SOL    HW228900   3.947   8.507  10.509 -0.9152 -0.3430  0.7207
 6196SOL     OW28901   6.189   1.113   4.255  0.3206 -0.5587 -0.0529
 6196SOL    HW128902   6.219   1.063   4.179  1.4020  0.7265 -0.4930
 6196SOL    HW228903   6.134   1.182   4.217  0.5223 -0.1670  0.3744
 6197SOL     OW28904   9.905   2.289   1.407  0.6128  0.7482  0.2924
 6197SOL    HW128905   9.875   2.266   1.495  1.3014 -0.2237  0.2843
 6197SOL    HW228906  10.000   2.289   1.413  0.6630  0.7329 -0.4426
 6198SOL     OW28907   8.532   8.154   4.786 -0.0078  0.2581 -0.2240
 6198SOL    HW128908   8.454   8.150   4.842  0.2615  0.4179  0.1701
 6198SOL    HW228909   8.590   8.216   4.831  0.1475  0.5129 -0.7676
 6199SOL     OW28910  10.692   2.118  12.154  0.1108 -0.6644 -0.1214
 6199SOL    HW128911  10.612   2.066  12.150 -0.1703 -0.1568 -2.5176
 6199SOL    HW228912  10.662   2.208  12.140  0.8352 -0.0806  1.7762
 6200SOL     OW28913   3.761   1.115   2.975  0.0757  0.0807  0.3080
 6200SOL    HW128914   3.699   1.042   2.973  1.5250 -1.2342 -2.4532
 6200SOL    HW228915   3.846   1.074   2.959  1.2367  2.1772  0.7872
 6201SOL     OW28916   3.522   7.771  11.202 -0.2745  0.1595  0.4935
 6201SOL    HW128917   3.614   7.745  11.208  0.3430  1.5732 -1.5009
 6201SOL    HW228918   3.511   7.796  11.110 -2.5786  0.3583  0.7693
 6202SOL     OW28919  10.341   1.650   6.192 -0.2508 -0.4280  0.1064
 6202SOL    HW128920  10.431   1.648   6.223 -0.2816  1.5064  0.4351
 6202SOL    HW228921  10.289   1.617   6.265 -0.0317  1.1188  0.9988
 6203SOL     OW28922  12.423  11.617   8.104  0.1593  0.1271 -0.3918
 6203SOL    HW128923  12.483  11.596   8.175 -1.5693 -0.3194  1.0142
 6203SOL    HW228924  12.343  11.647   8.147 -0.9329 -0.0655 -2.1440
 6204SOL     OW28925   8.549  10.512  10.854  0.2401  0.0514  0.1206
 6204SOL    HW128926   8.515  10.587  10.804  0.9615 -0.3948 -1.0994
 6204SOL    HW228927   8.594  10.552  10.928 -1.0540  0.7285  0.5850
 6205SOL     OW28928   8.372   8.868   6.923 -0.3607 -0.5878 -0.2811
 6205SOL    HW128929   8.358   8.885   6.830 -1.3614 -0.4266 -0.1185
 6205SOL    HW228930   8.442   8.803   6.926  1.0985  0.8811 -1.0513
 6206SOL     OW28931   2.028   7.447  11.410 -0.5789 -0.5581 -0.2055
 6206SOL    HW128932   1.984   7.364  11.430 -0.7649 -1.2894 -3.1857
 6206SOL    HW228933   1.975   7.485  11.340  0.4501  1.2848 -0.0193
 6207SOL     OW28934   2.088   1.746   1.270  0.2338 -0.5903 -0.1587
 6207SOL    HW128935   2.136   1.720   1.191  0.2928 -2.1726  0.3733
 6207SOL    HW228936   2.086   1.667   1.324 -0.2026  0.3464  1.2352
 6208SOL     OW28937   7.427  12.636  12.053  0.0878  0.0635 -0.1370
 6208SOL    HW128938   7.474  12.558  12.024 -0.1512 -0.1010 -0.0851
 6208SOL    HW228939   7.459  12.652  12.142 -2.3594 -2.0461  1.2888
 6209SOL     OW28940   9.733   3.643   4.515 -0.1405 -0.0917  0.1085
 6209SOL    HW128941   9.717   3.692   4.434 -0.9336  0.5987  0.6664
 6209SOL    HW228942   9.823   3.612   4.507  0.4331  1.5779 -0.1955
 6210SOL     OW28943   2.778   4.053   6.601  0.6774 -0.2034  0.1211
 6210SOL    HW128944   2.779   3.966   6.640  1.0841 -1.3585 -2.3086
 6210SOL    HW228945   2.702   4.096   6.640  0.1868 -1.8031  1.0023
 6211SOL     OW28946  12.886   4.088   7.143  0.1123 -0.1358 -0.6398
 6211SOL    HW128947  12.809   4.118   7.093 -1.2868  0.2396  1.6097
 6211SOL    HW228948  12.854   4.013   7.193  0.4530  1.4231  2.1270
 6212SOL     OW28949   0.763   5.522   5.520  0.3101  0.2869 -0.1730
 6212SOL    HW128950   0.803   5.495   5.603 -2.3791  0.0577  1.1561
 6212SOL    HW228951   0.752   5.617   5.529  1.8769  0.6020 -1.1971
 6213SOL     OW28952   6.638   0.419  12.280  0.0079  0.7029 -0.5772
 6213SOL    HW128953   6.689   0.498  12.261  0.8086 -0.2865 -3.0247
 6213SOL    HW228954   6.575   0.414  12.207 -0.5731 -0.4812 -0.0200
 6214SOL     OW28955   5.514   1.172  12.470 -0.1824 -0.0333 -0.2766
 6214SOL    HW128956   5.593   1.126  12.440 -0.6269 -0.6364 -0.5564
 6214SOL    HW228957   5.476   1.208  12.390 -0.0020  0.5566 -0.0952
 6215SOL     OW28958   5.629   0.784   4.428  0.0322  0.0203  0.3021
 6215SOL    HW128959   5.566   0.854   4.410 -0.8753 -0.8681 -0.0546
 6215SOL    HW228960   5.592   0.736   4.502  0.4638 -0.3042  0.3146
 6216SOL     OW28961  12.857   9.759   7.013  0.7315  0.0487 -0.0004
 6216SOL    HW128962  12.904   9.822   7.068  2.3007 -1.8701  1.0043
 6216SOL    HW228963  12.766   9.765   7.042  1.1234  0.7631  1.1634
 6217SOL     OW28964   4.958   1.862   5.675 -0.1066  0.3480  0.5784
 6217SOL    HW128965   4.974   1.772   5.646  2.6326  0.7293  0.6614
 6217SOL    HW228966   4.964   1.858   5.770 -3.2987  0.1368  0.8921
 6218SOL     OW28967   8.017  12.224   1.907  0.3721  0.1389  0.1035
 6218SOL    HW128968   7.951  12.258   1.847 -0.7093 -2.2067 -0.1384
 6218SOL    HW228969   8.069  12.164   1.854 -0.3345 -1.6430  1.3359
 6219SOL     OW28970   5.122  10.451   7.054  0.0219  0.3782 -0.0933
 6219SOL    HW128971   5.172  10.370   7.065  0.7810  0.7267 -0.8581
 6219SOL    HW228972   5.126  10.493   7.139 -2.7837 -1.6705  1.2130
 6220SOL     OW28973   1.714   8.295   8.299 -0.5337  0.4329  0.5519
 6220SOL    HW128974   1.689   8.203   8.306 -1.0131  0.5499  0.4155
 6220SOL    HW228975   1.807   8.292   8.277 -0.7421 -0.0396 -0.3332
 6221SOL     OW28976  12.442   6.660   5.382  0.1011 -0.2362 -0.0254
 6221SOL    HW128977  12.530   6.698   5.382  0.4889 -1.1108 -0.4741
 6221SOL    HW228978  12.415   6.662   5.474  0.6690 -0.1415  0.1420
 6222SOL     OW28979  12.961   4.462   9.581 -0.3999 -0.0888 -0.1062
 6222SOL    HW128980  13.001   4.525   9.522 -1.1230 -0.2410 -0.7896
 6222SOL    HW228981  13.028   4.443   9.646 -0.0461  1.0970 -0.1059
 6223SOL     OW28982  12.164   7.226   5.806  0.2761 -0.3968 -0.3523
 6223SOL    HW128983  12.161   7.227   5.710  0.0550 -0.9108 -0.3516
 6223SOL    HW228984  12.153   7.318   5.830  0.4916 -0.2439 -0.8227
 6224SOL     OW28985  12.929   9.683   4.293  0.3533  0.3492  0.4571
 6224SOL    HW128986  12.932   9.598   4.338  0.8405 -0.2156 -0.5885
 6224SOL    HW228987  13.008   9.728   4.323  2.3646 -1.2440 -2.0271
 6225SOL     OW28988   5.930   6.367   4.532  0.7573 -0.2695 -0.4012
 6225SOL    HW128989   5.885   6.307   4.472 -0.2039  0.2336 -0.2006
 6225SOL    HW228990   6.020   6.334   4.535  0.8187 -0.3378 -2.0625
 6226SOL     OW28991   0.546   8.278   3.831  0.4652 -0.6088  0.5355
 6226SOL    HW128992   0.470   8.292   3.774 -0.9338  0.2123  2.4952
 6226SOL    HW228993   0.598   8.357   3.822  1.0320 -1.1023 -0.6852
 6227SOL     OW28994   0.922  11.441   8.346 -0.3129 -0.0679  0.3942
 6227SOL    HW128995   0.897  11.439   8.254 -0.4424  0.8723  0.3971
 6227SOL    HW228996   0.896  11.356   8.380 -1.3444  0.0068 -0.1642
 6228SOL     OW28997   3.802   0.591   9.629  0.0575 -0.6683 -0.9210
 6228SOL    HW128998   3.745   0.618   9.701  1.2960  0.6844 -0.4003
 6228SOL    HW228999   3.766   0.635   9.552  0.8067  0.8159 -0.4547
 6229SOL     OW29000   4.923   6.916  10.037 -0.3294  0.1148 -0.1291
 6229SOL    HW129001   4.886   6.842  10.086 -0.8755  0.5425  0.1281
 6229SOL    HW229002   4.908   6.991  10.095  1.7345  0.1910  0.3743
 6230SOL     OW29003   7.833   9.814   5.534  0.7013  0.3399 -0.3481
 6230SOL    HW129004   7.885   9.885   5.572 -0.6496  1.0518  0.2245
 6230SOL    HW229005   7.827   9.749   5.604  0.1244  0.6396 -0.1115
 6231SOL     OW29006   0.683   2.172   7.867 -0.1203  0.1991  0.0829
 6231SOL    HW129007   0.773   2.196   7.888  0.2188 -0.1632 -0.9087
 6231SOL    HW229008   0.691   2.095   7.810 -1.1173 -0.9509  1.4422
 6232SOL     OW29009   7.040   8.696   9.313  0.4499  0.3981 -0.7776
 6232SOL    HW129010   7.135   8.682   9.320  0.1486 -0.9260  1.2977
 6232SOL    HW229011   7.002   8.609   9.318 -0.9664  1.0410  0.5558
 6233SOL     OW29012   9.235   2.783   1.486  0.3324  0.0926 -0.0360
 6233SOL    HW129013   9.279   2.839   1.423  0.9230 -0.4447 -0.1078
 6233SOL    HW229014   9.266   2.815   1.571 -0.3068  0.6827 -0.0112
 6234SOL     OW29015   0.488   6.699   5.974 -0.4629  0.3213  0.4898
 6234SOL    HW129016   0.425   6.632   6.000  0.5227 -1.1698 -0.7653
 6234SOL    HW229017   0.554   6.698   6.044 -0.1669 -0.4502  0.2147
 6235SOL     OW29018   2.715   2.145   9.503 -0.3289 -0.2966 -0.3999
 6235SOL    HW129019   2.797   2.098   9.509 -0.0734 -0.1324 -2.0840
 6235SOL    HW229020   2.665   2.098   9.436 -2.0924 -1.0517  1.3532
 6236SOL     OW29021   9.954   9.178   5.577 -0.0540 -0.0710 -0.1469
 6236SOL    HW129022   9.881   9.236   5.597  0.0179  0.3432 -1.0321
 6236SOL    HW229023  10.026   9.236   5.552  1.0277 -0.4053  1.9680
 6237SOL     OW29024   4.411   8.378   7.160  0.4724  0.3132 -0.2111
 6237SOL    HW129025   4.397   8.358   7.068 -2.7343  0.4917  0.1162
 6237SOL    HW229026   4.371   8.465   7.172 -0.8342 -0.4677  1.6353
 6238SOL     OW29027   1.657  11.158   2.030 -0.0199  0.2908 -0.3795
 6238SOL    HW129028   1.585  11.192   2.083 -0.5763 -0.6078 -0.5311
 6238SOL    HW229029   1.721  11.229   2.027 -0.9046  1.1096 -0.2493
 6239SOL     OW29030   7.745   4.238  11.085 -0.1176  0.0445  0.5727
 6239SOL    HW129031   7.832   4.267  11.113  1.8234 -1.1538 -3.5448
 6239SOL    HW229032   7.707   4.314  11.040 -1.4039  0.6045  2.4538
 6240SOL     OW29033  10.238  10.662   8.721 -0.7833 -0.0871  0.2169
 6240SOL    HW129034  10.310  10.631   8.666  0.0295 -1.2780  1.8547
 6240SOL    HW229035  10.173  10.696   8.659 -0.1201 -1.7438 -1.4897
 6241SOL     OW29036  10.606   9.719  12.298 -0.2264 -0.6381 -0.0813
 6241SOL    HW129037  10.606   9.738  12.204 -0.2830 -1.3620 -0.2301
 6241SOL    HW229038  10.674   9.653  12.310 -0.5899 -0.9517  0.2981
 6242SOL     OW29039   4.575   1.340   3.131 -0.3873 -0.1456 -0.0947
 6242SOL    HW129040   4.598   1.433   3.134 -2.8341  0.5193  1.2450
 6242SOL    HW229041   4.487   1.339   3.093  0.5466 -2.2197 -2.5422
 6243SOL     OW29042   5.854   0.189  11.492 -0.4092  0.1364 -0.6374
 6243SOL    HW129043   5.907   0.261  11.525 -0.2241 -0.6943  1.0424
 6243SOL    HW229044   5.764   0.218  11.504 -0.4122 -0.7406  2.3700
 6244SOL     OW29045   5.240  11.816   3.654 -0.0847 -0.1371  0.6425
 6244SOL    HW129046   5.250  11.909   3.634 -0.2822  0.2434  2.1711
 6244SOL    HW229047   5.246  11.772   3.570  0.9803  1.1841 -0.0010
 6245SOL     OW29048   4.955   9.126   4.787 -0.1222 -0.1971 -0.3074
 6245SOL    HW129049   5.014   9.107   4.861 -1.7614  0.8233  1.3381
 6245SOL    HW229050   4.999   9.197   4.740  0.4152 -0.0787  0.3424
 6246SOL     OW29051  10.907   0.047   5.076  0.0248 -0.1725  0.0279
 6246SOL    HW129052  10.905   0.083   4.988  0.5910 -0.4822 -0.1135
 6246SOL    HW229053  10.993   0.007   5.085  0.0023 -0.0869  0.7477
 6247SOL     OW29054   1.677   1.493   4.107 -0.1940 -0.2304  0.0227
 6247SOL    HW129055   1.764   1.506   4.145 -0.1327 -2.2802  0.7504
 6247SOL    HW229056   1.694   1.470   4.016 -0.0301  0.1050 -0.0330
 6248SOL     OW29057   7.706   9.895   8.169  0.2119 -0.2787  0.0804
 6248SOL    HW129058   7.667   9.974   8.208 -2.0457 -1.7592  1.0198
 6248SOL    HW229059   7.696   9.909   8.074  0.7182  0.9527  0.1855
 6249SOL     OW29060  11.508   1.104   0.831 -0.3140  0.2387  0.1734
 6249SOL    HW129061  11.579   1.169   0.827 -1.1208  1.3254  2.1091
 6249SOL    HW229062  11.432   1.150   0.796 -0.9697  0.5064  1.8590
 6250SOL     OW29063   6.723   3.120   2.142  0.0796 -0.2154  0.0079
 6250SOL    HW129064   6.729   3.207   2.184  0.2458  0.2613 -0.9796
 6250SOL    HW229065   6.794   3.070   2.183 -0.2837 -0.0315  0.8954
 6251SOL     OW29066   3.474   3.469   6.813  0.1422  0.1439 -0.4860
 6251SOL    HW129067   3.502   3.408   6.745  2.2847  1.3811 -0.8187
 6251SOL    HW229068   3.407   3.522   6.772 -0.1612 -0.5343 -0.8944
 6252SOL     OW29069  12.271   6.792  12.682 -0.4774  0.0762 -0.2526
 6252SOL    HW129070  12.341   6.826  12.738 -0.8726  0.8619 -0.2098
 6252SOL    HW229071  12.314   6.769  12.600 -0.0565 -0.1255  0.0213
 6253SOL     OW29072   2.029   1.777  12.940  0.1129 -0.2768  0.0908
 6253SOL    HW129073   2.034   1.803  13.032  1.7469 -1.7373  0.4804
 6253SOL    HW229074   1.937   1.788  12.916 -0.6404 -1.2755  2.3392
 6254SOL     OW29075   8.870   8.596   9.376 -0.2883  0.6864 -0.1618
 6254SOL    HW129076   8.855   8.549   9.458 -1.4113 -0.1787 -0.8320
 6254SOL    HW229077   8.874   8.688   9.402  0.0045  0.3876  0.9303
 6255SOL     OW29078   0.268   0.728   5.018 -0.1935 -0.7475 -0.0422
 6255SOL    HW129079   0.350   0.771   4.995  0.0544 -0.8387  0.6422
 6255SOL    HW229080   0.229   0.703   4.935  0.3579 -0.4895 -0.3780
 6256SOL     OW29081   7.596   4.815   3.287  0.1266  0.3182 -0.2180
 6256SOL    HW129082   7.655   4.749   3.323  2.7121  1.4365 -2.0685
 6256SOL    HW229083   7.574   4.871   3.362 -0.0945 -1.1838  0.8727
 6257SOL     OW29084   8.771  10.250   4.978 -0.0437  0.5268 -0.3179
 6257SOL    HW129085   8.773  10.265   4.884  0.1408 -0.4216 -0.4709
 6257SOL    HW229086   8.678  10.239   4.999 -0.2475  2.2034 -0.1217
 6258SOL     OW29087   9.254   3.178   2.502 -0.5231  0.3590 -0.0290
 6258SOL    HW129088   9.311   3.184   2.426  2.2920 -0.9175  1.8041
 6258SOL    HW229089   9.266   3.262   2.547 -0.8937  0.4724 -0.1377
 6259SOL     OW29090   4.199   8.117  11.507 -0.0362  0.1544 -0.1563
 6259SOL    HW129091   4.228   8.148  11.593 -1.4580  0.3234  0.2897
 6259SOL    HW229092   4.123   8.062  11.526  0.9266 -1.6229 -1.1404
 6260SOL     OW29093  10.115  11.257  11.497  0.1947 -0.7516 -0.3132
 6260SOL    HW129094  10.040  11.201  11.476 -0.4066  0.1866 -0.7349
 6260SOL    HW229095  10.085  11.346  11.478  0.3143 -0.0001  2.5569
 6261SOL     OW29096   9.030   4.923   7.857 -0.1639 -0.0109 -0.2847
 6261SOL    HW129097   8.978   4.993   7.896 -0.2512 -0.4798  0.4609
 6261SOL    HW229098   9.079   4.886   7.931  0.3456 -0.3330 -0.7762
 6262SOL     OW29099   0.587  11.920  10.003 -0.2334 -0.2500  0.0600
 6262SOL    HW129100   0.564  11.830  10.025 -0.0605 -0.0367  1.1453
 6262SOL    HW229101   0.538  11.938   9.922 -0.2748 -1.3038 -0.1606
 6263SOL     OW29102  12.048  11.936   8.227  0.1809 -0.2759  0.0399
 6263SOL    HW129103  12.131  11.984   8.225  0.4144 -0.6752  0.1853
 6263SOL    HW229104  12.002  11.970   8.303  0.3326 -0.2605  0.1243
 6264SOL     OW29105   4.389  11.195   9.524 -0.1807  0.0803 -0.2208
 6264SOL    HW129106   4.396  11.279   9.479  0.9088  0.0089 -0.1925
 6264SOL    HW229107   4.417  11.130   9.460  3.0876  0.1169  0.9984
 6265SOL     OW29108   1.367   3.401   9.028  0.1821 -0.1195  0.6404
 6265SOL    HW129109   1.410   3.367   8.949  1.9367  0.9095  1.1053
 6265SOL    HW229110   1.421   3.371   9.100 -0.7323 -0.0448  1.3680
 6266SOL     OW29111   7.476  12.884   1.759 -0.3805  0.4266 -0.1271
 6266SOL    HW129112   7.418  12.851   1.828 -1.2477 -0.5156 -1.2752
 6266SOL    HW229113   7.517  12.806   1.722  0.7972  0.9951 -0.0928
 6267SOL     OW29114   2.049   9.219   5.151  0.4691 -1.1065  0.6029
 6267SOL    HW129115   2.063   9.219   5.056 -1.3592  0.0963  0.2857
 6267SOL    HW229116   2.075   9.131   5.178 -0.2870 -1.9692 -1.2468
 6268SOL     OW29117   1.903   1.474   0.779 -0.5061  0.0779 -0.5364
 6268SOL    HW129118   1.873   1.478   0.688 -0.7567  0.6638 -0.4297
 6268SOL    HW229119   1.865   1.552   0.820 -0.2951 -0.1221  0.0400
 6269SOL     OW29120   3.150  11.518   1.024 -0.1732  0.7925 -0.4637
 6269SOL    HW129121   3.099  11.596   1.047 -1.4029 -0.1600  0.1633
 6269SOL    HW229122   3.139  11.510   0.930  0.6038  1.7922 -0.6610
 6270SOL     OW29123   9.137  11.010   0.513  0.4429  0.3985  0.1644
 6270SOL    HW129124   9.058  10.982   0.560  0.4422  1.5562  0.8913
 6270SOL    HW229125   9.109  11.087   0.463  0.8548  0.1597 -0.4398
 6271SOL     OW29126   6.762   5.282   7.186  0.6829  0.7653  0.1643
 6271SOL    HW129127   6.688   5.238   7.228 -0.1900  0.2880 -1.7503
 6271SOL    HW229128   6.839   5.249   7.232 -0.0879 -1.2621  0.1357
 6272SOL     OW29129   6.419  10.616   8.326  0.2094  0.4891  0.1624
 6272SOL    HW129130   6.467  10.651   8.401  0.3694 -1.2749  0.9407
 6272SOL    HW229131   6.336  10.664   8.327 -0.6112 -0.7895  2.6906
 6273SOL     OW29132   0.066   1.663  11.287 -0.1674 -0.2615  0.0161
 6273SOL    HW129133   0.046   1.579  11.246 -0.7800  0.0502 -0.3432
 6273SOL    HW229134  -0.005   1.676  11.350 -0.7440  0.5339 -0.7749
 6274SOL     OW29135   8.251   3.029   1.900 -0.1719  0.4784 -0.3723
 6274SOL    HW129136   8.215   3.105   1.855  0.1139  1.0437  0.3181
 6274SOL    HW229137   8.340   3.020   1.865  0.1202  1.0379  0.1971
 6275SOL     OW29138   8.696   1.044   3.903 -0.0647 -0.0420 -0.3455
 6275SOL    HW129139   8.778   0.995   3.915  0.8603  1.0703 -1.7207
 6275SOL    HW229140   8.723   1.123   3.856 -2.0699 -0.0985 -1.6926
 6276SOL     OW29141   0.272   7.384  11.308 -0.1130 -0.3275  0.5076
 6276SOL    HW129142   0.185   7.343  11.307 -0.3111  0.0928  0.5887
 6276SOL    HW229143   0.332   7.313  11.283 -0.7674  0.0696 -2.6547
 6277SOL     OW29144   1.654   1.767   8.382  0.2329  0.5966 -0.0796
 6277SOL    HW129145   1.641   1.842   8.440 -0.2165  1.3861 -1.1695
 6277SOL    HW229146   1.739   1.783   8.340  1.0589 -0.5012  1.0979
 6278SOL     OW29147  11.209   3.351   6.523 -0.3527  0.1937 -0.2381
 6278SOL    HW129148  11.274   3.370   6.455 -2.3342  1.6425 -1.8703
 6278SOL    HW229149  11.256   3.300   6.589  2.6617  2.0831 -0.7937
 6279SOL     OW29150   3.974   7.453   2.397  0.3572  0.0834 -0.1345
 6279SOL    HW129151   3.956   7.546   2.407  0.5484  0.0455  0.7145
 6279SOL    HW229152   4.065   7.448   2.368  0.0237  0.1800 -1.2464
 6280SOL     OW29153   7.125   7.957   0.540 -0.2571  0.3854  0.2565
 6280SOL    HW129154   7.127   8.026   0.474 -0.3861 -0.7537 -0.9846
 6280SOL    HW229155   7.196   7.898   0.515 -3.4643 -2.8900 -2.1460
 6281SOL     OW29156   9.745   0.309   9.460 -0.0305  0.1785 -0.2908
 6281SOL    HW129157   9.836   0.287   9.444 -0.2692 -0.9077 -0.2502
 6281SOL    HW229158   9.747   0.374   9.530  0.6851 -0.2975  0.1358
 6282SOL     OW29159   7.140   1.011   9.995  0.2721 -0.1589  0.3233
 6282SOL    HW129160   7.101   1.050   9.917 -0.5638 -1.1676  0.2067
 6282SOL    HW229161   7.070   0.955  10.031 -0.1173  1.8688  2.9938
 6283SOL     OW29162  10.848  12.117  12.740 -1.2757 -0.3655 -0.2160
 6283SOL    HW129163  10.897  12.040  12.767  1.4484  0.8701 -1.2275
 6283SOL    HW229164  10.862  12.122  12.645 -1.6737  1.1506 -0.2193
 6284SOL     OW29165   4.221   0.713   0.897 -0.4328  0.4345 -0.0486
 6284SOL    HW129166   4.259   0.746   0.979 -2.4854 -0.4619  1.3374
 6284SOL    HW229167   4.127   0.723   0.908 -0.8677 -1.4612 -1.5299
 6285SOL     OW29168   7.779   3.216   7.819  0.3235  0.2898  0.0718
 6285SOL    HW129169   7.873   3.200   7.813  0.3121  0.2481  0.0089
 6285SOL    HW229170   7.741   3.165   7.748  0.2125 -0.0153  0.3457
 6286SOL     OW29171  10.449  11.016  10.859  0.0234  0.1376  0.3084
 6286SOL    HW129172  10.476  11.093  10.908  1.7849  0.8316 -1.6051
 6286SOL    HW229173  10.420  11.050  10.774  1.6820 -1.3152 -0.9109
 6287SOL     OW29174   3.793   8.302   0.786  0.1099  0.4957  0.9414
 6287SOL    HW129175   3.776   8.377   0.728 -0.6696 -0.2350  0.1994
 6287SOL    HW229176   3.867   8.330   0.839 -1.2220  2.4775  1.8734
 6288SOL     OW29177  11.985   4.029   9.171  0.0301  0.3362  0.2045
 6288SOL    HW129178  11.944   4.094   9.113 -0.3649  0.0953  0.2065
 6288SOL    HW229179  11.943   4.043   9.256 -0.0387  0.0982  0.2109
 6289SOL     OW29180   9.508   7.783   8.310  0.1328  0.3331  0.2869
 6289SOL    HW129181   9.472   7.871   8.298  0.1254  0.4780  1.3390
 6289SOL    HW229182   9.515   7.748   8.221  0.5726  1.5709 -0.1884
 6290SOL     OW29183   1.626   6.700   3.111  0.1380 -0.5885 -0.3467
 6290SOL    HW129184   1.531   6.686   3.111 -0.3489  1.8645  1.7668
 6290SOL    HW229185   1.639   6.779   3.059  0.4526  1.2551  2.3042
 6291SOL     OW29186   1.359  12.087   6.266  0.5851  0.3792  0.5906
 6291SOL    HW129187   1.402  12.094   6.351  2.2865 -0.7357 -0.1273
 6291SOL    HW229188   1.278  12.137   6.276  0.7539  0.2997  2.8363
 6292SOL     OW29189   4.708   8.811   5.448 -0.7546  0.3148  0.1673
 6292SOL    HW129190   4.672   8.770   5.369 -1.2204  1.1393 -0.0638
 6292SOL    HW229191   4.799   8.781   5.451 -1.3191 -1.4731  0.5384
 6293SOL     OW29192   1.604   0.117   0.350  0.6529 -0.2421  0.0349
 6293SOL    HW129193   1.527   0.171   0.368  0.1904 -1.4098  1.8524
 6293SOL    HW229194   1.570   0.044   0.297  0.7752 -0.0935 -0.2519
 6294SOL     OW29195   4.135  11.434   8.791  0.6354  0.1222  0.9518
 6294SOL    HW129196   4.056  11.464   8.745  0.8220  0.1794  0.6666
 6294SOL    HW229197   4.151  11.502   8.857  1.6815  1.2428 -0.4054
 6295SOL     OW29198   6.369   0.515   0.957 -0.2453  0.1138 -0.1781
 6295SOL    HW129199   6.294   0.471   0.996 -0.8493  0.3409 -1.0435
 6295SOL    HW229200   6.422   0.543   1.031 -0.6087 -0.7454  0.4232
 6296SOL     OW29201  10.394   5.383   9.545  0.8563 -0.0871 -0.4050
 6296SOL    HW129202  10.471   5.418   9.500 -0.0178  0.5791 -1.4215
 6296SOL    HW229203  10.324   5.386   9.480 -0.6167  1.4937  1.1359
 6297SOL     OW29204   6.565   1.409   1.321 -0.4949  0.3570 -0.5738
 6297SOL    HW129205   6.530   1.498   1.317  1.9006  1.4909  1.1529
 6297SOL    HW229206   6.616   1.407   1.401  2.4564 -1.4289 -2.2998
 6298SOL     OW29207   3.318   5.064   5.574 -0.0292 -0.3265 -0.1891
 6298SOL    HW129208   3.411   5.086   5.577 -0.0462 -0.3589  0.7899
 6298SOL    HW229209   3.276   5.143   5.538  0.2243  0.2379  0.7182
 6299SOL     OW29210   3.666  11.888  10.964 -0.6487  0.2327 -0.0449
 6299SOL    HW129211   3.571  11.895  10.963 -0.7214 -0.0997  1.6481
 6299SOL    HW229212   3.696  11.962  10.910 -1.8689 -1.6293 -3.5712
 6300SOL     OW29213  11.921   6.179   2.569 -0.1944 -0.6581 -0.2162
 6300SOL    HW129214  12.011   6.184   2.601 -0.0293 -1.0156 -0.6139
 6300SOL    HW229215  11.914   6.090   2.535 -1.1521 -1.1559  1.1792
 6301SOL     OW29216   3.991   2.665   4.745 -0.1700 -0.4883  0.4163
 6301SOL    HW129217   4.064   2.726   4.737  0.8619 -1.6096  0.9917
 6301SOL    HW229218   3.980   2.629   4.657  1.3055 -1.7578  0.6987
 6302SOL     OW29219   3.738   9.183   6.945 -0.0663  0.1718 -0.4280
 6302SOL    HW129220   3.654   9.152   6.913 -1.2661  1.7698  0.9343
 6302SOL    HW229221   3.744   9.274   6.913  0.1102  0.7769  1.2188
 6303SOL     OW29222   9.562   3.056   2.518  0.4674 -0.2442 -0.0357
 6303SOL    HW129223   9.512   3.000   2.577  0.7829  0.6804  1.1646
 6303SOL    HW229224   9.499   3.083   2.451 -0.3787  0.0776  0.8655
 6304SOL     OW29225   9.640   7.236   3.176 -0.6149  0.0999  0.2839
 6304SOL    HW129226   9.625   7.323   3.138  1.4809 -0.7032 -2.7667
 6304SOL    HW229227   9.689   7.254   3.256  0.4156  1.7665 -0.6528
 6305SOL     OW29228   9.667   6.949   1.797  0.0709 -0.1636  0.6979
 6305SOL    HW129229   9.583   6.910   1.776  1.3583 -2.2377 -1.0426
 6305SOL    HW229230   9.729   6.907   1.737  2.0933  2.5186  0.6894
 6306SOL     OW29231   3.984   5.382  10.500 -0.1006 -0.1662  0.8059
 6306SOL    HW129232   3.901   5.368  10.544 -0.0814 -3.4296  0.0592
 6306SOL    HW229233   4.031   5.445  10.555 -1.9731 -0.3270  2.6928
 6307SOL     OW29234  12.936   6.605  11.604 -0.0628  0.4164  0.3332
 6307SOL    HW129235  12.963   6.604  11.512  0.2214  2.5582  0.3466
 6307SOL    HW229236  12.840   6.602  11.600 -0.0415 -0.6464  0.0513
 6308SOL     OW29237   2.375   9.108   6.009  0.6139 -0.2687 -0.4980
 6308SOL    HW129238   2.285   9.115   6.040  0.5008 -0.2144 -0.8297
 6308SOL    HW229239   2.387   9.185   5.953  1.4619  0.7397  1.0101
 6309SOL     OW29240  11.100   5.639   6.784 -0.2741  0.8820  0.3780
 6309SOL    HW129241  11.141   5.726   6.780 -2.6915  2.1564  1.0526
 6309SOL    HW229242  11.147   5.595   6.855  1.8729  1.0796 -0.8285
 6310SOL     OW29243   1.136   5.353  10.555  0.0770  0.0175  0.1430
 6310SOL    HW129244   1.084   5.281  10.519 -0.6784  0.8828 -0.5441
 6310SOL    HW229245   1.220   5.346  10.511 -0.2180 -0.0533 -0.4202
 6311SOL     OW29246  10.961  11.732   7.384  0.1626  0.0139 -0.1556
 6311SOL    HW129247  10.935  11.641   7.370  1.8905 -0.4744 -0.3928
 6311SOL    HW229248  10.917  11.757   7.466 -1.1689 -0.6721 -0.6351
 6312SOL     OW29249  12.872   5.315   1.896  0.2060 -0.4119 -0.2829
 6312SOL    HW129250  12.846   5.265   1.974 -0.8165 -0.7506 -0.8157
 6312SOL    HW229251  12.826   5.398   1.905  1.1888  0.0959  0.1502
 6313SOL     OW29252   1.055   6.423  11.900 -0.6567 -0.3254  0.5062
 6313SOL    HW129253   1.113   6.355  11.932 -0.8388 -0.7184  0.0172
 6313SOL    HW229254   1.111   6.500  11.889 -0.3743 -0.5053  0.6993
 6314SOL     OW29255  10.235  10.020   0.178  0.4719 -0.3227 -0.4809
 6314SOL    HW129256  10.165  10.078   0.207  1.7277  1.0353 -0.0586
 6314SOL    HW229257  10.260  10.052   0.091  0.5349 -0.8380 -0.6616
 6315SOL     OW29258   5.690  10.446   4.531 -0.4214 -0.5616  0.0401
 6315SOL    HW129259   5.717  10.356   4.516  3.8672  0.1824  1.9670
 6315SOL    HW229260   5.668  10.449   4.625 -2.2131  0.1190 -0.3574
 6316SOL     OW29261   4.429   5.178  10.382 -0.4872  0.1859 -0.3297
 6316SOL    HW129262   4.405   5.124  10.307 -1.6298 -0.5043  0.4932
 6316SOL    HW229263   4.357   5.166  10.444 -0.4315  2.1479  0.1586
 6317SOL     OW29264  10.689   9.025  11.334  0.0708  0.0098  0.0492
 6317SOL    HW129265  10.633   9.062  11.266  0.4984 -0.4767 -0.5762
 6317SOL    HW229266  10.643   9.045  11.416  0.8157  2.9095 -0.1360
 6318SOL     OW29267  11.903  12.530   5.292 -0.1658  0.5909  0.0765
 6318SOL    HW129268  11.928  12.576   5.212 -0.7794  0.7700 -0.0186
 6318SOL    HW229269  11.912  12.595   5.361  1.8750  0.0121  0.4151
 6319SOL     OW29270   8.540   2.609   3.060 -0.5418  0.0016 -0.4051
 6319SOL    HW129271   8.553   2.654   2.976 -1.0560 -0.1914 -0.5963
 6319SOL    HW229272   8.569   2.519   3.044 -0.6212 -0.0301 -0.3711
 6320SOL     OW29273   8.107   9.602  10.517  0.0381  0.5954  0.3190
 6320SOL    HW129274   8.100   9.518  10.562 -1.0526  0.7054  0.3793
 6320SOL    HW229275   8.196   9.603  10.483  0.9429  0.5324  2.5085
 6321SOL     OW29276   7.344   6.969   4.629  0.0312  0.0394 -0.2829
 6321SOL    HW129277   7.270   6.941   4.574  0.0322  0.7556 -0.6661
 6321SOL    HW229278   7.356   7.061   4.607 -0.1574  0.4279  1.1515
 6322SOL     OW29279   5.861  10.150   3.767  0.0592 -0.2003  0.1156
 6322SOL    HW129280   5.896  10.201   3.839  0.3767  0.8190 -0.7357
 6322SOL    HW229281   5.831  10.068   3.807  0.0797  0.4100  1.4049
 6323SOL     OW29282   7.240   4.091   5.828 -0.2199 -0.6314 -0.1241
 6323SOL    HW129283   7.287   4.064   5.907  1.5616 -0.7129 -1.1656
 6323SOL    HW229284   7.149   4.067   5.845  0.6715 -4.2423  0.4024
 6324SOL     OW29285   5.193   7.501   5.224  0.0142 -0.3713  0.6302
 6324SOL    HW129286   5.197   7.457   5.309  0.4566 -2.5162 -0.4445
 6324SOL    HW229287   5.236   7.441   5.164  0.6295  1.5627 -0.9508
 6325SOL     OW29288   6.612   3.202   9.187 -0.4321  0.3846 -0.0070
 6325SOL    HW129289   6.522   3.233   9.201 -0.9743 -1.9480  2.2436
 6325SOL    HW229290   6.634   3.154   9.266  2.3889 -0.2067 -1.0315
 6326SOL     OW29291  10.932  10.428   0.129 -0.0488 -0.0840 -0.3513
 6326SOL    HW129292  10.946  10.339   0.097  1.5784  0.1547 -0.4401
 6326SOL    HW229293  10.982  10.432   0.210 -0.5135  0.6044 -0.0933
 6327SOL     OW29294   0.918  10.240   6.033 -0.1312  0.0431  0.4079
 6327SOL    HW129295   0.900  10.299   6.106  1.5507 -0.8029  1.6025
 6327SOL    HW229296   0.988  10.283   5.984 -0.7293  0.2491 -0.2790
 6328SOL     OW29297   1.105   2.185   1.718 -0.8094  1.0520  0.1128
 6328SOL    HW129298   1.177   2.127   1.740  0.6034  2.6758 -0.0621
 6328SOL    HW229299   1.078   2.157   1.630  2.4840  3.0293 -1.7293
 6329SOL     OW29300   4.665  10.544  10.354  0.1623  0.4291 -0.4170
 6329SOL    HW129301   4.728  10.615  10.367 -0.2920  0.6754  0.5555
 6329SOL    HW229302   4.591  10.567  10.410 -0.0809 -0.6979 -0.2491
 6330SOL     OW29303   4.883   9.511   2.379  0.0062 -0.7573  0.2198
 6330SOL    HW129304   4.881   9.570   2.454  3.3061  0.3259 -0.3625
 6330SOL    HW229305   4.938   9.438   2.407  1.8958  0.0064 -1.2423
 6331SOL     OW29306   2.869   0.898  10.588 -0.5531  0.7724 -0.3833
 6331SOL    HW129307   2.919   0.866  10.663 -0.7589  0.2538 -0.4623
 6331SOL    HW229308   2.801   0.832  10.575 -0.7355  1.0406 -0.8069
 6332SOL     OW29309  12.614   0.443   2.967 -0.4316 -0.1743 -0.0568
 6332SOL    HW129310  12.696   0.477   2.930 -0.7285  0.2555 -0.3266
 6332SOL    HW229311  12.602   0.492   3.048  0.7541 -1.8332  1.1827
 6333SOL     OW29312   8.115   9.172   1.131  0.4469  0.7347 -0.6090
 6333SOL    HW129313   8.120   9.265   1.109 -0.1226  0.7463 -0.7148
 6333SOL    HW229314   8.041   9.139   1.080  1.3645 -0.0382 -1.4626
 6334SOL     OW29315   0.808   3.227  12.011  0.0421 -0.6329  0.0311
 6334SOL    HW129316   0.752   3.260  12.081  0.0172 -0.6594  0.0237
 6334SOL    HW229317   0.837   3.142  12.043  0.3160 -0.4907  0.1605
 6335SOL     OW29318  10.425  12.317   0.074 -0.9117 -0.5695 -0.2919
 6335SOL    HW129319  10.405  12.372   0.150 -1.1622 -0.1042 -0.6906
 6335SOL    HW229320  10.468  12.376   0.012 -2.1336 -0.5579 -1.1526
 6336SOL     OW29321   1.022   8.404  11.308 -0.1918 -0.3638 -0.0070
 6336SOL    HW129322   0.938   8.358  11.309 -1.0528  1.1368  1.1606
 6336SOL    HW229323   1.001   8.492  11.278  0.5080  0.7496  2.5245
 6337SOL     OW29324   6.496   7.703  12.611  0.5320 -0.4813  0.5615
 6337SOL    HW129325   6.513   7.768  12.679  1.7414  0.8340 -0.9450
 6337SOL    HW229326   6.568   7.641  12.619  0.8066 -0.1931  0.3296
 6338SOL     OW29327  11.304  10.412   4.168 -0.2523  0.1035 -0.3083
 6338SOL    HW129328  11.363  10.338   4.183 -1.2298 -0.8112 -0.8443
 6338SOL    HW229329  11.349  10.487   4.209  2.1236 -0.1481 -2.2100
 6339SOL     OW29330   9.837   6.358   5.522 -0.3450  0.3314  0.0403
 6339SOL    HW129331   9.773   6.412   5.477  1.8769  2.2739 -0.9646
 6339SOL    HW229332   9.918   6.408   5.519  1.0581 -1.6065  2.0539
 6340SOL     OW29333  12.146   2.902   1.426 -0.2981  0.4805 -0.0803
 6340SOL    HW129334  12.199   2.971   1.466 -1.0565  0.4584  1.0021
 6340SOL    HW229335  12.117   2.848   1.499  0.0689 -0.8634 -0.8843
 6341SOL     OW29336   9.853   9.006   1.059 -0.3011 -0.0922 -0.4995
 6341SOL    HW129337   9.936   8.962   1.042 -1.0467 -1.5720 -0.5617
 6341SOL    HW229338   9.824   8.971   1.143 -1.2538 -0.2846 -0.8878
 6342SOL     OW29339   0.721   0.138   9.436 -0.3122  0.2836 -0.3311
 6342SOL    HW129340   0.808   0.134   9.395 -1.0741  1.0949 -2.1117
 6342SOL    HW229341   0.723   0.218   9.488 -0.5279  1.2531 -1.7515
 6343SOL     OW29342   5.607   5.517   4.244  0.7685 -0.6904  0.2755
 6343SOL    HW129343   5.636   5.526   4.154  1.9073 -1.6505  0.5211
 6343SOL    HW229344   5.523   5.562   4.247 -0.1268 -2.1189 -1.6731
 6344SOL     OW29345  10.893   3.392  11.294  0.5719  0.0495  0.2684
 6344SOL    HW129346  10.870   3.442  11.215  0.8100  0.0640  0.2071
 6344SOL    HW229347  10.875   3.301  11.270  0.3722  0.0816  0.2954
 6345SOL     OW29348   4.531   4.861   5.310 -0.1642 -0.0073 -0.0423
 6345SOL    HW129349   4.541   4.792   5.244  0.4780  2.3512 -2.5873
 6345SOL    HW229350   4.613   4.859   5.359 -0.6260 -1.7647  0.7509
 6346SOL     OW29351   3.185   3.347   1.300 -0.3288 -0.0275 -0.0477
 6346SOL    HW129352   3.269   3.362   1.344 -1.0718 -1.5501  2.1056
 6346SOL    HW229353   3.191   3.396   1.218  1.0179  3.3921  1.8902
 6347SOL     OW29354   9.550   9.826   5.121 -0.0960 -0.1327 -0.0589
 6347SOL    HW129355   9.491   9.792   5.053 -0.5566 -1.5714  1.0194
 6347SOL    HW229356   9.635   9.789   5.100  0.3614  1.4656 -1.2691
 6348SOL     OW29357   1.474  12.201   0.558  0.7718 -0.1954  0.0887
 6348SOL    HW129358   1.475  12.251   0.639  0.5665 -0.7593  0.4503
 6348SOL    HW229359   1.385  12.165   0.554  0.8977 -0.4850 -0.1825
 6349SOL     OW29360   7.907   1.856  12.755 -0.0434  0.1001  0.5066
 6349SOL    HW129361   7.907   1.940  12.710 -0.4243  0.9097  1.9535
 6349SOL    HW229362   7.999   1.829  12.755 -0.0597 -0.0312 -0.8951
 6350SOL     OW29363   4.283   2.920  10.416  0.0246 -0.0677 -0.7650
 6350SOL    HW129364   4.273   2.996  10.360  0.5942 -1.0565 -2.2852
 6350SOL    HW229365   4.335   2.951  10.490 -1.2629  1.4202 -0.4381
 6351SOL     OW29366   8.518   7.847   8.013 -0.2036  0.2697  0.3977
 6351SOL    HW129367   8.463   7.907   7.963 -0.7775 -0.9123 -0.4394
 6351SOL    HW229368   8.472   7.837   8.097 -0.9201 -0.1776 -0.0399
 6352SOL     OW29369   0.317   8.816   9.648  0.3776  0.2173  0.2143
 6352SOL    HW129370   0.291   8.837   9.737 -1.8932 -0.8132 -0.1342
 6352SOL    HW229371   0.409   8.791   9.655  0.4560  0.9148  2.1269
 6353SOL     OW29372   4.920  12.285   8.976 -0.4664  0.3361  0.1365
 6353SOL    HW129373   4.907  12.379   8.962 -2.0157 -0.0186 -1.1216
 6353SOL    HW229374   4.958  12.279   9.063 -1.7166  2.0545  0.8625
 6354SOL     OW29375   6.895  12.335   2.572  0.1387 -0.1770 -0.3374
 6354SOL    HW129376   6.970  12.356   2.516  1.1141  1.0759  1.3299
 6354SOL    HW229377   6.911  12.245   2.601  0.5942 -0.1855 -0.6050
 6355SOL     OW29378   1.632   3.028  12.161  0.0560  0.1332 -0.4873
 6355SOL    HW129379   1.647   3.058  12.251 -0.7951  1.5073 -0.7648
 6355SOL    HW229380   1.719   3.029  12.121  0.4713 -0.6770  0.3624
 6356SOL     OW29381   7.295   6.640  12.653  0.0715  0.2207 -0.3938
 6356SOL    HW129382   7.274   6.728  12.622  1.0260  0.4599 -0.3972
 6356SOL    HW229383   7.251   6.581  12.591  2.0098  0.6735 -2.3021
 6357SOL     OW29384   1.449   6.481   8.813 -0.6146  0.2533 -0.1645
 6357SOL    HW129385   1.421   6.568   8.843 -3.1003 -0.1979 -0.9199
 6357SOL    HW229386   1.443   6.484   8.718 -1.2258 -0.8746 -0.1847
 6358SOL     OW29387   2.705   3.268   2.006 -0.9666 -0.7257  0.1280
 6358SOL    HW129388   2.793   3.282   1.970 -0.5148  1.0197  1.7417
 6358SOL    HW229389   2.647   3.316   1.946 -0.4540  0.5337  0.5961
 6359SOL     OW29390   0.733   1.306   5.076  0.6507  0.0634 -0.6074
 6359SOL    HW129391   0.664   1.298   5.010 -0.2477  1.7787  0.0379
 6359SOL    HW229392   0.745   1.217   5.109 -2.1512 -0.1679  0.0823
 6360SOL     OW29393  11.368   7.855  10.450 -0.5568  0.0906  0.1130
 6360SOL    HW129394  11.329   7.772  10.476 -0.9520 -0.1694 -1.2255
 6360SOL    HW229395  11.419   7.883  10.526  1.0829 -2.2653 -0.0264
 6361SOL     OW29396   4.038   0.514  10.301  0.1648  0.4464  0.1648
 6361SOL    HW129397   3.958   0.555  10.334  0.3011  0.2758  0.7271
 6361SOL    HW229398   4.094   0.587  10.276 -1.1336  0.5849 -2.7385
 6362SOL     OW29399   0.009   7.885   3.764  0.0312  0.1112  0.2738
 6362SOL    HW129400   0.031   7.793   3.750  1.0133  0.2395  0.8689
 6362SOL    HW229401  -0.069   7.883   3.820  0.5428 -0.3659  0.9860
 6363SOL     OW29402   2.983   1.773   6.620 -0.7476 -0.1353 -0.1989
 6363SOL    HW129403   2.971   1.863   6.589  1.6727  0.3417  0.0347
 6363SOL    HW229404   3.019   1.783   6.708 -0.0115 -1.3185 -0.3470
 6364SOL     OW29405   8.442   4.316   4.091 -0.1931  0.4446  0.3812
 6364SOL    HW129406   8.373   4.330   4.156  0.6144 -0.9781  1.5796
 6364SOL    HW229407   8.419   4.234   4.048 -1.3298  1.8925 -2.0140
 6365SOL     OW29408   5.200   3.236   0.379 -0.2977  0.3744  0.0350
 6365SOL    HW129409   5.238   3.158   0.420 -0.3477 -0.4378 -1.4094
 6365SOL    HW229410   5.157   3.203   0.300 -1.4010  1.7067  0.0486
 6366SOL     OW29411   8.308   2.861   7.659 -0.2958  0.4210 -0.8822
 6366SOL    HW129412   8.280   2.952   7.667 -1.1453  0.5695 -4.1920
 6366SOL    HW229413   8.232   2.810   7.689 -0.3647  0.7926 -0.4205
 6367SOL     OW29414   0.816   9.721  11.138 -0.1914 -0.1078  0.6625
 6367SOL    HW129415   0.817   9.787  11.207 -0.6928  0.0781  0.4995
 6367SOL    HW229416   0.822   9.771  11.056  0.3146 -0.3201  0.5670
 6368SOL     OW29417   1.130   3.320   2.175  0.4368 -0.1786  0.2107
 6368SOL    HW129418   1.222   3.341   2.160  0.1187  0.6153 -0.7469
 6368SOL    HW229419   1.089   3.329   2.089 -0.3750 -1.4471  0.4336
 6369SOL     OW29420   0.715  10.021  12.371 -0.3344  0.1173 -0.0707
 6369SOL    HW129421   0.684   9.947  12.319 -0.2596 -0.6385  0.9303
 6369SOL    HW229422   0.810  10.017  12.363 -0.3661  1.1042 -1.3304
 6370SOL     OW29423   8.722   5.509  11.188 -0.1553  0.3073  0.0756
 6370SOL    HW129424   8.816   5.526  11.199  0.2188 -1.7780  0.3380
 6370SOL    HW229425   8.704   5.537  11.098  0.7741  0.4408 -0.0818
 6371SOL     OW29426   0.075   0.028   2.766 -0.7298 -0.3042  0.6271
 6371SOL    HW129427   0.006   0.076   2.720  0.1831  0.4399  0.0075
 6371SOL    HW229428   0.066   0.054   2.857 -1.6438 -0.6885  0.6616
 6372SOL     OW29429   8.397   5.339   3.369 -0.1197  0.1350 -0.2529
 6372SOL    HW129430   8.438   5.375   3.447 -2.1201 -0.7451  1.2976
 6372SOL    HW229431   8.470   5.312   3.314  1.3935 -0.5557  1.9538
 6373SOL     OW29432   2.135  12.604   5.571  0.2200 -0.8358  0.1667
 6373SOL    HW129433   2.155  12.673   5.507  2.5317 -3.1578 -1.8187
 6373SOL    HW229434   2.052  12.568   5.542 -1.1246  1.1198  1.3434
 6374SOL     OW29435   8.600   2.327   2.998 -0.0041 -0.2903 -0.3161
 6374SOL    HW129436   8.642   2.243   3.020  0.3811 -0.1311 -0.4294
 6374SOL    HW229437   8.507   2.306   2.989  0.0694 -0.6771 -0.1883
 6375SOL     OW29438   9.766   9.823   9.212 -0.2019 -0.0224 -0.3159
 6375SOL    HW129439   9.758   9.887   9.282  1.1238 -0.6235  0.4043
 6375SOL    HW229440   9.682   9.828   9.165 -0.1151  2.2655 -0.3255
 6376SOL     OW29441   8.726   1.216   4.730  0.0498 -0.4518 -0.2691
 6376SOL    HW129442   8.725   1.121   4.714  1.5114 -0.5976  0.3532
 6376SOL    HW229443   8.753   1.225   4.821  0.5955  0.5887 -0.5178
 6377SOL     OW29444  10.419   8.743   7.270 -0.2859  0.0409 -0.2336
 6377SOL    HW129445  10.400   8.714   7.360 -1.9083 -0.8979 -0.8396
 6377SOL    HW229446  10.362   8.819   7.257  1.1547  1.2144  0.0487
 6378SOL     OW29447   9.438  10.058   5.149 -0.0733  0.0776 -0.5180
 6378SOL    HW129448   9.473   9.969   5.143  0.1456  0.1970 -1.0924
 6378SOL    HW229449   9.368  10.052   5.214  0.9298 -0.1903  0.5551
 6379SOL     OW29450   9.292   9.056   0.277  0.6150 -0.3773  0.0411
 6379SOL    HW129451   9.244   9.013   0.348  2.0005  2.6488  3.0654
 6379SOL    HW229452   9.226   9.108   0.231  0.1580 -0.1179  0.9737
 6380SOL     OW29453   5.271  10.913  11.970  0.2023  0.6137 -0.4178
 6380SOL    HW129454   5.252  10.978  11.902 -0.0667  1.3738  0.3637
 6380SOL    HW229455   5.366  10.902  11.966  0.3335  1.5635 -0.1267
 6381SOL     OW29456   9.787   4.840   9.417  0.6047 -0.0609  0.4137
 6381SOL    HW129457   9.815   4.866   9.504 -0.2463  0.2822  0.5931
 6381SOL    HW229458   9.868   4.818   9.371  1.5180  3.3042  0.0989
 6382SOL     OW29459   0.328   6.230   6.573  0.1206 -0.1004 -0.1438
 6382SOL    HW129460   0.422   6.243   6.558  0.2525  0.6527  1.1114
 6382SOL    HW229461   0.286   6.260   6.493  0.9689 -0.7044 -0.8237
 6383SOL     OW29462   3.603   5.893   2.030  0.4345  0.5406  0.4279
 6383SOL    HW129463   3.684   5.861   2.070  0.6848  1.2480  0.4969
 6383SOL    HW229464   3.622   5.983   2.004  0.1116  0.2840 -0.8061
 6384SOL     OW29465   7.687   7.940  12.753 -0.3736 -0.7527 -1.0094
 6384SOL    HW129466   7.729   7.854  12.741  1.0435 -0.3571  0.7611
 6384SOL    HW229467   7.744   8.001  12.707  0.0077 -0.4565 -0.1673
 6385SOL     OW29468  12.714   3.492  10.227 -0.5645 -0.4178 -0.7876
 6385SOL    HW129469  12.779   3.519  10.163 -0.9438  0.2622 -0.8912
 6385SOL    HW229470  12.686   3.405  10.198 -0.5423 -0.2266 -1.3981
 6386SOL     OW29471  12.171   8.090  11.590 -0.3540 -0.0811 -0.5122
 6386SOL    HW129472  12.118   8.011  11.574 -3.4051  0.8247  3.5303
 6386SOL    HW229473  12.250   8.058  11.633 -0.4266 -1.0438 -1.0593
 6387SOL     OW29474  11.856   3.769  12.495 -0.2193  0.0372  0.3285
 6387SOL    HW129475  11.781   3.738  12.547  1.7644 -2.1592  2.0577
 6387SOL    HW229476  11.880   3.695  12.440 -0.2657  1.2801 -1.4562
 6388SOL     OW29477   9.670   7.149   1.278 -0.2501  0.1123 -0.8325
 6388SOL    HW129478   9.744   7.126   1.222  0.6841  2.2678 -0.5555
 6388SOL    HW229479   9.689   7.237   1.309 -1.6083 -0.3242  1.4966
 6389SOL     OW29480   0.846  11.301   3.762 -0.1714 -0.0199  0.3244
 6389SOL    HW129481   0.926  11.265   3.724  0.1084  0.6409  0.2705
 6389SOL    HW229482   0.870  11.327   3.850  0.6486  3.2928 -0.7375
 6390SOL     OW29483   8.221   9.528  12.391 -0.3411  0.0601  0.2466
 6390SOL    HW129484   8.126   9.543  12.392 -0.0931  2.0363 -0.8551
 6390SOL    HW229485   8.230   9.434  12.375 -2.0999 -0.3885  1.6083
 6391SOL     OW29486   9.834   8.194  10.121  0.4005  0.5147  0.2549
 6391SOL    HW129487   9.773   8.131  10.159  0.4164  0.2149 -0.1994
 6391SOL    HW229488   9.910   8.191  10.179  0.4129  0.0864  0.2233
 6392SOL     OW29489   1.160  10.260   9.284  0.0513  0.5190  0.1317
 6392SOL    HW129490   1.174  10.173   9.321  0.8420  0.3021 -0.6433
 6392SOL    HW229491   1.248  10.292   9.263 -0.2564  1.3655  0.1020
 6393SOL     OW29492   2.973   7.926   6.182 -0.0126 -0.3051  0.1573
 6393SOL    HW129493   2.945   7.840   6.150  1.7593 -1.2472  0.9569
 6393SOL    HW229494   3.021   7.964   6.108  0.2362 -0.5310  0.2021
 6394SOL     OW29495   2.966   6.548   8.718  0.9229 -0.2706 -0.2955
 6394SOL    HW129496   2.921   6.486   8.775 -1.8190 -0.1997 -2.1508
 6394SOL    HW229497   2.973   6.503   8.634  0.4070  1.2684 -1.2135
 6395SOL     OW29498   7.523   8.226   5.518  0.0295 -0.2177 -0.0780
 6395SOL    HW129499   7.449   8.184   5.474  0.1505 -0.8100  0.2621
 6395SOL    HW229500   7.594   8.224   5.454 -0.6526  1.6803 -0.9324
 6396SOL     OW29501  10.042   2.062   6.140 -0.6807  0.2906 -0.8057
 6396SOL    HW129502  10.099   2.051   6.216 -0.3130 -1.1251 -1.2385
 6396SOL    HW229503  10.102   2.082   6.068 -1.1170  2.7283 -0.5733
 6397SOL     OW29504   8.427   9.173   8.734  0.3066  0.2546  1.0416
 6397SOL    HW129505   8.340   9.141   8.756  0.5642 -1.6474 -0.4013
 6397SOL    HW229506   8.453   9.227   8.808 -1.4605 -0.4366  2.2217
 6398SOL     OW29507   4.118   2.230   2.990  0.4785 -0.2724  0.1257
 6398SOL    HW129508   4.166   2.175   2.929 -0.3790 -0.7772 -0.1213
 6398SOL    HW229509   4.180   2.297   3.018  0.8031  0.1321 -1.5048
 6399SOL     OW29510   8.938   9.286   0.569 -0.0688  0.3360 -0.3959
 6399SOL    HW129511   8.991   9.344   0.624  1.6690 -0.3678 -1.2416
 6399SOL    HW229512   8.848   9.303   0.595  0.6033  1.1633  1.5419
 6400SOL     OW29513   4.006   5.227   7.822  0.1426  0.1126 -0.0193
 6400SOL    HW129514   4.087   5.258   7.863 -0.2869 -1.2972  1.9794
 6400SOL    HW229515   4.003   5.133   7.841 -0.5755 -0.4519 -2.5231
 6401SOL     OW29516   9.463  12.720   7.777 -0.2456 -0.0106 -0.2641
 6401SOL    HW129517   9.377  12.681   7.767  0.0572 -0.8154  0.2079
 6401SOL    HW229518   9.469  12.742   7.870  1.1941 -2.7732  0.4008
 6402SOL     OW29519   6.239   1.794   2.927 -0.6842 -0.6766  0.1634
 6402SOL    HW129520   6.187   1.756   2.857 -1.5158  2.6448 -1.2292
 6402SOL    HW229521   6.184   1.865   2.962  2.0144  1.6534  0.0280
 6403SOL     OW29522   5.211  12.942   7.224  0.0588  0.0179  0.1978
 6403SOL    HW129523   5.245  12.898   7.302  1.3734 -1.5789 -1.2144
 6403SOL    HW229524   5.122  12.907   7.215 -0.0077  0.0068  0.8028
 6404SOL     OW29525   6.481   9.632   6.943 -0.4530  0.2646  0.4053
 6404SOL    HW129526   6.530   9.680   7.010 -1.3050  0.9215  0.5813
 6404SOL    HW229527   6.479   9.542   6.975  0.6339  0.2233  0.3873
 6405SOL     OW29528   6.171   3.338   4.488  0.2446  0.2247  0.2816
 6405SOL    HW129529   6.141   3.374   4.572 -0.5855 -1.1751  0.6064
 6405SOL    HW229530   6.171   3.414   4.429  0.1661  1.0955  1.3588
 6406SOL     OW29531   1.013   2.529   5.061  0.0886 -0.0584 -0.0939
 6406SOL    HW129532   0.925   2.553   5.033  1.1355  0.6211 -3.1260
 6406SOL    HW229533   1.049   2.610   5.096  0.2444  0.2687 -0.9830
 6407SOL     OW29534   2.159   4.441  12.752 -0.9802 -0.1319 -0.0313
 6407SOL    HW129535   2.231   4.501  12.733 -1.0864 -0.0010 -0.0177
 6407SOL    HW229536   2.203   4.359  12.776 -0.7733  0.4485  1.7741
 6408SOL     OW29537  11.463   1.483   6.361 -0.1336 -0.2147 -0.5173
 6408SOL    HW129538  11.413   1.561   6.336 -1.3069 -1.2225 -1.4299
 6408SOL    HW229539  11.430   1.460   6.448  0.0763  0.1916 -0.3302
 6409SOL     OW29540   3.268   3.361   7.784  0.1392 -0.0056 -0.4842
 6409SOL    HW129541   3.245   3.274   7.752  1.1458 -0.6426  0.4674
 6409SOL    HW229542   3.196   3.417   7.754 -1.7899 -1.5741  0.9105
 6410SOL     OW29543   5.123   9.147  11.482  0.2612  0.0169  0.0364
 6410SOL    HW129544   5.144   9.070  11.430 -1.6153 -0.1882 -0.4667
 6410SOL    HW229545   5.028   9.156  11.476  0.2490  1.3771  1.4877
 6411SOL     OW29546  10.895   8.671   5.724 -0.5444  0.5300 -0.6723
 6411SOL    HW129547  10.809   8.702   5.697 -0.6450  0.6136 -0.2552
 6411SOL    HW229548  10.892   8.576   5.708 -1.2212  0.3038  0.6816
 6412SOL     OW29549   2.190   6.922   5.104  0.5583 -0.1593  0.0095
 6412SOL    HW129550   2.237   6.846   5.140  0.5454 -0.2752 -0.2151
 6412SOL    HW229551   2.218   6.995   5.158  1.1367 -0.1984 -0.2346
 6413SOL     OW29552  10.407   4.355   6.082 -0.4808  0.1498  0.5722
 6413SOL    HW129553  10.461   4.427   6.049 -1.4047  0.8478  0.5427
 6413SOL    HW229554  10.453   4.325   6.161  0.3274  0.2408  0.1404
 6414SOL     OW29555  10.996   1.006   6.214 -0.2562 -0.3646 -0.6049
 6414SOL    HW129556  11.005   0.946   6.288  0.4441 -1.9763 -1.9332
 6414SOL    HW229557  11.041   1.085   6.242 -0.5893 -0.6905  0.9418
 6415SOL     OW29558   3.217   9.238   3.283 -0.4147  0.3087  0.7652
 6415SOL    HW129559   3.172   9.293   3.219  0.4509 -1.6471 -1.6945
 6415SOL    HW229560   3.303   9.221   3.244 -0.3240 -2.0064  1.8084
 6416SOL     OW29561   5.469   5.800   4.511 -0.0782  0.4982  0.3095
 6416SOL    HW129562   5.484   5.858   4.436 -1.5403 -0.5490 -0.8681
 6416SOL    HW229563   5.381   5.822   4.542  0.9443  1.7199  2.5320
 6417SOL     OW29564   7.636  10.798   8.671 -0.3683  0.3575  0.2625
 6417SOL    HW129565   7.557  10.808   8.617  0.8139  0.0066 -1.6099
 6417SOL    HW229566   7.659  10.887   8.696  0.3333  0.8270 -1.8098
 6418SOL     OW29567   0.542   1.950   4.215 -0.4078 -0.1789  0.2729
 6418SOL    HW129568   0.550   2.040   4.183 -0.1501 -0.2011  0.2769
 6418SOL    HW229569   0.462   1.917   4.173  0.9273 -0.8534 -1.9217
 6419SOL     OW29570   2.853   1.217   4.185  0.0745 -0.4209  0.1240
 6419SOL    HW129571   2.790   1.287   4.201  1.5485  0.4409  2.8616
 6419SOL    HW229572   2.809   1.137   4.213 -1.7614 -0.7772 -3.3791
 6420SOL     OW29573   1.304  12.375  10.863  0.0380  0.0330  0.3728
 6420SOL    HW129574   1.309  12.322  10.943  0.5248 -0.7558 -0.1682
 6420SOL    HW229575   1.353  12.455  10.884  1.9897 -1.0715  0.1821
 6421SOL     OW29576   1.427   2.697  11.520 -0.6032  0.0855  0.2904
 6421SOL    HW129577   1.454   2.640  11.592  1.0893  0.5195  0.0412
 6421SOL    HW229578   1.425   2.640  11.443  0.3303  0.1943  0.1813
 6422SOL     OW29579  11.990   0.924   9.698  0.0445  0.5024 -0.1706
 6422SOL    HW129580  12.050   0.854   9.724  0.7582  0.9610 -0.5562
 6422SOL    HW229581  11.913   0.878   9.663  0.5578 -0.0935 -0.5412
 6423SOL     OW29582   3.105   5.633  10.231 -0.3113  0.1463 -0.7093
 6423SOL    HW129583   3.023   5.678  10.254  0.3665  0.6977  0.7631
 6423SOL    HW229584   3.173   5.697  10.249  0.6007 -1.0726  0.3639
 6424SOL     OW29585   9.854   2.818   8.210 -0.0136 -0.0562  0.0573
 6424SOL    HW129586   9.938   2.849   8.175 -0.0715  0.3744  0.2956
 6424SOL    HW229587   9.826   2.751   8.148  0.1719  0.2867 -0.4043
 6425SOL     OW29588   3.866  12.903   4.979 -0.1320 -0.0813  0.3215
 6425SOL    HW129589   3.905  12.858   4.904 -0.6651 -0.1055  0.0542
 6425SOL    HW229590   3.918  12.875   5.054  1.7248  1.4976 -0.2763
 6426SOL     OW29591   4.083   4.810   6.789 -0.5947  0.1524 -0.4541
 6426SOL    HW129592   4.155   4.756   6.822 -0.7910 -1.3366 -2.2701
 6426SOL    HW229593   4.089   4.891   6.839  1.8669 -0.2055 -0.0217
 6427SOL     OW29594   4.747   7.776  10.101  0.3319 -0.0214  0.0611
 6427SOL    HW129595   4.819   7.765  10.164 -0.6261 -0.7734  1.0708
 6427SOL    HW229596   4.729   7.687  10.070  1.3230  0.4269 -1.9360
 6428SOL     OW29597   9.330  11.143   9.954  0.2541 -0.4111  0.5609
 6428SOL    HW129598   9.342  11.222   9.901 -0.1067 -0.9308 -0.3284
 6428SOL    HW229599   9.272  11.170  10.025 -2.6064 -0.5526 -1.5336
 6429SOL     OW29600   2.476   8.843   1.074 -0.4687  0.0658  0.0698
 6429SOL    HW129601   2.516   8.763   1.110 -0.6050  0.8185  1.9976
 6429SOL    HW229602   2.428   8.812   0.997  0.2053 -1.5633  0.2439
 6430SOL     OW29603   4.114   0.939   6.440 -0.0619 -0.1102 -0.2028
 6430SOL    HW129604   4.142   0.865   6.387  2.1915 -0.1664  0.9462
 6430SOL    HW229605   4.093   0.901   6.525  3.0371  0.6690  1.0367
 6431SOL     OW29606   2.101   1.819   6.318  0.2229  0.0770 -0.1223
 6431SOL    HW129607   2.108   1.758   6.244 -2.0353 -0.4751  0.0490
 6431SOL    HW229608   2.091   1.905   6.278 -1.4232 -0.2673 -0.5288
 6432SOL     OW29609   0.861   7.357   5.305  0.7858 -0.2033  0.0435
 6432SOL    HW129610   0.794   7.396   5.249  0.8096  0.0009  0.1570
 6432SOL    HW229611   0.918   7.308   5.245 -0.9104 -2.5223  0.1861
 6433SOL     OW29612   2.417   7.880   4.424 -0.3535  0.0566 -0.5425
 6433SOL    HW129613   2.399   7.845   4.511 -0.2744 -1.0427 -0.9474
 6433SOL    HW229614   2.330   7.896   4.386 -0.4381 -0.9834 -0.8341
 6434SOL     OW29615  12.690   3.867   6.811  0.3199  0.2422 -0.1400
 6434SOL    HW129616  12.673   3.780   6.776  1.7452 -0.3386  0.5421
 6434SOL    HW229617  12.606   3.896   6.846 -0.3678 -0.4894 -1.1465
 6435SOL     OW29618   9.832  11.374  12.005 -0.4936  0.3402  0.3415
 6435SOL    HW129619   9.818  11.409  11.917 -1.0551 -1.1448 -0.1919
 6435SOL    HW229620   9.796  11.441  12.063 -1.4371  0.7158 -0.6304
 6436SOL     OW29621   9.803   2.160   1.671 -0.1459 -0.1182  0.0271
 6436SOL    HW129622   9.799   2.065   1.662 -0.8536 -0.0802 -0.1403
 6436SOL    HW229623   9.721   2.183   1.714  0.2285  0.3747  0.4869
 6437SOL     OW29624  10.341   1.368   0.512 -0.0096 -0.1767  0.0256
 6437SOL    HW129625  10.397   1.444   0.524  1.9660 -1.4278 -0.6646
 6437SOL    HW229626  10.393   1.295   0.547 -1.7373 -1.2463  0.4776
 6438SOL     OW29627   4.221  12.196   8.091 -0.2001 -0.7493  0.1638
 6438SOL    HW129628   4.207  12.285   8.060 -0.0775 -1.5739 -2.5830
 6438SOL    HW229629   4.133  12.161   8.103 -0.2483 -0.2720  1.3233
 6439SOL     OW29630   9.708   4.620  10.062  0.5361 -0.9282  0.0496
 6439SOL    HW129631   9.781   4.597  10.119 -0.4674 -1.2225  1.2626
 6439SOL    HW229632   9.727   4.710  10.034  0.7193 -0.5166  1.4167
 6440SOL     OW29633   9.131   1.496   2.208 -0.1014  0.1845 -0.0401
 6440SOL    HW129634   9.176   1.580   2.209 -0.2560  0.2752  1.4993
 6440SOL    HW229635   9.200   1.431   2.218 -0.1366  0.2296  0.5234
 6441SOL     OW29636   0.053   5.072  10.264  0.1463  0.4440  0.2788
 6441SOL    HW129637   0.065   5.081  10.169 -0.7555 -0.7700  0.0213
 6441SOL    HW229638   0.022   4.982  10.276 -0.9365  0.9503  1.5983
 6442SOL     OW29639   3.266   2.023   7.523  0.0344  0.6192 -0.0218
 6442SOL    HW129640   3.229   2.069   7.599 -3.0185  0.8954 -1.4991
 6442SOL    HW229641   3.291   1.937   7.556 -1.6066  0.5893  1.2616
 6443SOL     OW29642   2.723   4.032   0.065  0.6422 -0.0253 -0.2501
 6443SOL    HW129643   2.660   4.052   0.134  1.3088  0.9495  0.1170
 6443SOL    HW229644   2.697   3.947   0.031 -1.5556  0.8626 -0.9037
 6444SOL     OW29645   8.921   1.053   2.032 -0.6065 -0.7702 -0.2896
 6444SOL    HW129646   8.847   1.088   2.081  0.2011  0.3515  0.1502
 6444SOL    HW229647   8.952   0.979   2.085  1.2034  1.3375  1.7754
 6445SOL     OW29648   6.286   2.095   7.823  0.3858  0.0886  0.1888
 6445SOL    HW129649   6.332   2.085   7.739 -0.2158  0.4126 -0.1908
 6445SOL    HW229650   6.326   2.172   7.863  0.7396 -0.1227  0.2399
 6446SOL     OW29651   1.934  12.921   9.188  0.1499  0.1419 -0.0014
 6446SOL    HW129652   1.979  12.926   9.272 -0.6257 -2.3063  0.6412
 6446SOL    HW229653   1.931  13.011   9.156  4.5563  0.6043  0.3531
 6447SOL     OW29654   3.175   7.200  12.916  0.2574  0.0463  0.0412
 6447SOL    HW129655   3.160   7.107  12.933 -0.1592 -0.2414 -1.7200
 6447SOL    HW229656   3.259   7.203  12.870  0.8194  0.6781  1.0591
 6448SOL     OW29657   0.537   6.803   5.022 -0.9730  0.6085  0.2988
 6448SOL    HW129658   0.481   6.807   5.099  0.3013  0.9241  1.2399
 6448SOL    HW229659   0.619   6.844   5.050 -0.1100 -0.2463 -0.9028
 6449SOL     OW29660   4.769  10.028   6.988 -0.0471 -1.0929 -0.2388
 6449SOL    HW129661   4.766  10.004   7.081 -0.9609 -0.8785 -0.2035
 6449SOL    HW229662   4.837   9.971   6.951 -1.3341 -2.9373  0.0709
 6450SOL     OW29663   7.713   3.003   4.482  0.3934  0.1607  0.3853
 6450SOL    HW129664   7.765   3.069   4.435  1.1531 -0.9866 -0.4188
 6450SOL    HW229665   7.723   3.026   4.575 -0.8599  2.2598  0.0701
 6451SOL     OW29666   7.038  10.309   5.393  0.2249  0.2297  0.8452
 6451SOL    HW129667   7.058  10.265   5.475  0.4590 -2.0666 -0.3644
 6451SOL    HW229668   7.121  10.312   5.346 -0.7702 -3.9948 -1.7157
 6452SOL     OW29669   3.743   5.741   6.937 -0.4156  0.9279  0.5984
 6452SOL    HW129670   3.814   5.735   6.873  0.7667 -1.9902  2.0022
 6452SOL    HW229671   3.676   5.681   6.905 -0.5724  0.7571  1.2299
 6453SOL     OW29672   3.243  10.800   8.857  0.3433  0.1353 -0.0716
 6453SOL    HW129673   3.179  10.810   8.928 -1.2898  1.8806 -1.6896
 6453SOL    HW229674   3.231  10.710   8.827 -0.7811  0.1781  0.2018
 6454SOL     OW29675   0.673   8.420  12.524  0.0628  0.8952  0.1251
 6454SOL    HW129676   0.711   8.444  12.608 -1.9330  0.9719  1.0658
 6454SOL    HW229677   0.711   8.335  12.504 -0.7332  0.0268  2.0211
 6455SOL     OW29678  11.944  12.420   0.918 -0.3494 -0.1625  0.0502
 6455SOL    HW129679  11.953  12.453   1.007 -1.8398  0.0158  0.1601
 6455SOL    HW229680  11.948  12.324   0.928 -0.5710 -0.1443  0.3216
 6456SOL     OW29681  10.119   9.735   8.777  0.2762  0.6660  0.3719
 6456SOL    HW129682  10.204   9.696   8.756 -0.0351  0.4889 -0.6198
 6456SOL    HW229683  10.140   9.803   8.841  1.1126  0.3486  0.4557
 6457SOL     OW29684   6.591  10.672   5.800 -0.2817 -0.4078  0.2539
 6457SOL    HW129685   6.538  10.670   5.720  1.2022  0.9403 -0.8326
 6457SOL    HW229686   6.604  10.765   5.818  1.1134 -0.6945  0.8755
 6458SOL     OW29687   3.187   8.947   3.620  0.1455 -0.3777  0.5189
 6458SOL    HW129688   3.263   8.922   3.568  2.2549  1.4229  2.5340
 6458SOL    HW229689   3.132   8.998   3.560  0.9897 -0.8583 -0.7046
 6459SOL     OW29690  12.186   4.268   5.660 -0.2266 -0.8141  0.4930
 6459SOL    HW129691  12.276   4.238   5.645 -0.7305 -2.6474  0.8904
 6459SOL    HW229692  12.161   4.227   5.743 -1.5242 -0.5571  0.2494
 6460SOL     OW29693   8.621   3.962   3.091  0.4851 -0.0334  0.5375
 6460SOL    HW129694   8.599   3.873   3.063 -0.1253 -1.0002  3.6668
 6460SOL    HW229695   8.715   3.969   3.078  0.3244 -0.5029 -1.1941
 6461SOL     OW29696   8.198   2.244   4.395  0.2072  0.2181 -0.6849
 6461SOL    HW129697   8.156   2.187   4.460 -1.3724  1.7117 -0.3412
 6461SOL    HW229698   8.264   2.292   4.445  0.1245  0.1824 -0.5397
 6462SOL     OW29699  11.848   1.872   4.749 -0.2717  0.3882  0.4946
 6462SOL    HW129700  11.782   1.859   4.681 -0.3582  1.6007  0.3197
 6462SOL    HW229701  11.928   1.895   4.702 -0.2382  0.8743  0.7787
 6463SOL     OW29702   2.287   8.369   5.325  0.2649  0.0025 -0.2695
 6463SOL    HW129703   2.280   8.417   5.407 -0.8325 -1.2299  0.3881
 6463SOL    HW229704   2.205   8.387   5.279  1.6464  2.3125 -2.0924
 6464SOL     OW29705   6.029   3.319   8.874  0.0555  0.1284 -0.2123
 6464SOL    HW129706   6.086   3.393   8.853  1.5953 -0.6824  0.9371
 6464SOL    HW229707   6.037   3.261   8.798  1.5188 -0.3918  0.3062
 6465SOL     OW29708   9.753   6.266   8.466 -0.1161 -0.6493 -0.1582
 6465SOL    HW129709   9.770   6.281   8.559 -0.2025 -0.4598 -0.1718
 6465SOL    HW229710   9.680   6.203   8.466 -0.0316 -0.7468 -0.0973
 6466SOL     OW29711   1.507   0.911   0.869  0.2101  0.0620  0.2592
 6466SOL    HW129712   1.467   0.913   0.956 -1.3473  0.1426 -0.4338
 6466SOL    HW229713   1.527   0.819   0.854 -0.0775 -0.0336  0.4484
 6467SOL     OW29714  10.345   2.026   1.976  0.1888 -0.1522  0.4134
 6467SOL    HW129715  10.315   2.081   2.049  0.3334  1.0587 -0.4034
 6467SOL    HW229716  10.266   1.983   1.945 -0.5561  1.9807 -0.8659
 6468SOL     OW29717  11.225   7.221   2.853  0.3899  0.2666 -0.4882
 6468SOL    HW129718  11.131   7.228   2.838  0.4367 -0.9187 -1.5160
 6468SOL    HW229719  11.235   7.221   2.948 -0.6927 -0.0258 -0.3713
 6469SOL     OW29720  12.008   3.223  12.184 -0.2711  0.2163 -0.2730
 6469SOL    HW129721  11.978   3.201  12.272 -0.3480  1.5980  0.0604
 6469SOL    HW229722  11.929   3.220  12.130 -0.0737 -1.6484 -0.5489
 6470SOL     OW29723   2.568   5.504   1.298 -0.0571 -0.0509 -0.2498
 6470SOL    HW129724   2.510   5.519   1.224 -0.5899  0.0913  0.1897
 6470SOL    HW229725   2.596   5.592   1.326  0.9036 -0.1457 -0.8685
 6471SOL     OW29726  11.082   3.333   4.306  0.0568 -0.3094  0.3752
 6471SOL    HW129727  11.089   3.268   4.376  0.9054  1.6323  2.1970
 6471SOL    HW229728  11.045   3.410   4.349  1.7209  1.3496 -1.0385
 6472SOL     OW29729   8.331   0.455   7.245 -0.6789  0.7777  0.1006
 6472SOL    HW129730   8.371   0.382   7.294  0.9055  0.5090 -1.4766
 6472SOL    HW229731   8.247   0.420   7.215 -0.0924 -0.3183 -0.3492
 6473SOL     OW29732   1.011   4.240  12.067 -0.3584 -0.1907 -0.2055
 6473SOL    HW129733   1.003   4.194  12.150 -2.2851 -1.5325 -1.0824
 6473SOL    HW229734   0.969   4.183  12.002 -1.8509  2.2430 -1.5422
 6474SOL     OW29735   1.427   0.770  11.078 -0.1179 -0.4804 -0.3324
 6474SOL    HW129736   1.348   0.796  11.125 -0.7063  0.4798 -1.7916
 6474SOL    HW229737   1.486   0.845  11.085  0.7253 -1.2120  0.7950
 6475SOL     OW29738   7.889   9.348  11.116  0.0685 -0.3531 -0.4577
 6475SOL    HW129739   7.884   9.424  11.058  1.1769 -0.7895 -1.1771
 6475SOL    HW229740   7.912   9.275  11.057 -1.4269 -1.3434  0.1361
 6476SOL     OW29741  12.268  11.216   2.331  0.5079 -0.1146 -0.1241
 6476SOL    HW129742  12.364  11.216   2.326  0.6596  1.2013  1.9640
 6476SOL    HW229743  12.248  11.175   2.415 -0.7754 -0.0913 -0.3984
 6477SOL     OW29744   0.377   8.445   2.172 -0.1345  0.3630  0.1331
 6477SOL    HW129745   0.422   8.364   2.195  1.3689  0.4463 -2.1709
 6477SOL    HW229746   0.284   8.420   2.166  0.3905 -1.4256 -1.3650
 6478SOL     OW29747   4.714  11.994  11.350  0.2080  0.4923  0.4815
 6478SOL    HW129748   4.680  12.020  11.264  1.4573 -2.7910 -1.1453
 6478SOL    HW229749   4.637  11.961  11.397 -0.0331 -0.4609 -0.5415
 6479SOL     OW29750   7.745   2.654   4.495 -0.3476 -0.2889 -0.8406
 6479SOL    HW129751   7.777   2.743   4.478 -0.7386 -0.3189 -1.8124
 6479SOL    HW229752   7.804   2.598   4.444  1.5276 -0.8603  1.7530
 6480SOL     OW29753   3.073   9.773  12.727 -0.4251 -0.8815  0.1833
 6480SOL    HW129754   3.057   9.697  12.671  1.0352 -1.4293  0.4747
 6480SOL    HW229755   3.104   9.736  12.809  1.7134  0.0325 -0.1375
 6481SOL     OW29756   9.787   2.201   5.961 -0.5651  0.5617 -0.8697
 6481SOL    HW129757   9.723   2.163   6.022 -0.4801  0.1090 -1.0561
 6481SOL    HW229758   9.862   2.141   5.965 -0.1735  1.0580 -0.6939
 6482SOL     OW29759   4.681   6.520  10.696  0.3298  0.3816  0.2665
 6482SOL    HW129760   4.757   6.464  10.711 -0.9478 -1.4268  0.2964
 6482SOL    HW229761   4.657   6.504  10.604  2.5186  4.2861 -1.2433
 6483SOL     OW29762   5.413   4.040   5.434  0.3814 -0.4979 -0.0809
 6483SOL    HW129763   5.334   3.990   5.451 -0.6727  1.4445  1.0018
 6483SOL    HW229764   5.384   4.113   5.378  0.9060  1.3889  1.9566
 6484SOL     OW29765   0.460  10.101   5.075  0.1489 -0.0421 -0.3328
 6484SOL    HW129766   0.435  10.029   5.133 -1.1670  0.1777 -0.5815
 6484SOL    HW229767   0.461  10.178   5.130  0.0266 -0.0091 -0.3772
 6485SOL     OW29768   1.900  11.549   8.858 -0.0532 -0.8813 -0.1728
 6485SOL    HW129769   1.832  11.558   8.792 -0.2514  2.1727  0.2986
 6485SOL    HW229770   1.884  11.464   8.898 -0.1766 -2.6559 -3.6688
 6486SOL     OW29771  12.877   6.469   9.479 -0.2430 -0.1587 -0.0707
 6486SOL    HW129772  12.793   6.471   9.433  0.5388  1.3209 -1.5240
 6486SOL    HW229773  12.901   6.376   9.479 -1.6900 -0.5718  0.0656
 6487SOL     OW29774   9.342   9.300   3.725 -0.2979 -0.5592  0.2211
 6487SOL    HW129775   9.354   9.241   3.651 -1.7608 -2.5860  1.4983
 6487SOL    HW229776   9.275   9.362   3.695 -0.8348 -1.3191 -0.1949
 6488SOL     OW29777   3.781  11.144  11.109 -0.2569 -0.2319  0.0676
 6488SOL    HW129778   3.835  11.209  11.154 -0.1662 -0.8741  0.9228
 6488SOL    HW229779   3.773  11.176  11.020  0.4508  0.5386  0.2728
 6489SOL     OW29780   5.780   3.992   0.911  0.0844  0.0165 -0.7820
 6489SOL    HW129781   5.700   3.998   0.860 -0.6539 -0.4523  0.2800
 6489SOL    HW229782   5.801   3.898   0.912 -1.0729 -0.2830  1.4386
 6490SOL     OW29783   0.968   3.988   4.593 -0.6645 -0.0409 -0.0683
 6490SOL    HW129784   0.965   4.056   4.660  1.2663  0.6476 -0.6077
 6490SOL    HW229785   0.964   3.905   4.641 -0.2033  0.4502  0.8383
 6491SOL     OW29786  11.394   4.541  10.801 -0.3238 -0.4531  0.6040
 6491SOL    HW129787  11.389   4.556  10.895 -1.1988 -2.1569  0.8758
 6491SOL    HW229788  11.462   4.474  10.791  0.3162  0.2710 -0.0750
 6492SOL     OW29789   6.154  11.198   1.681 -0.0221 -0.3011 -0.1214
 6492SOL    HW129790   6.092  11.270   1.667 -0.4416 -0.9659 -2.1114
 6492SOL    HW229791   6.112  11.142   1.746 -0.8935 -0.0519 -0.4518
 6493SOL     OW29792   7.599   2.808   7.063  0.3772 -0.4322 -0.2054
 6493SOL    HW129793   7.526   2.780   7.009 -2.2092  1.7509  1.8819
 6493SOL    HW229794   7.623   2.894   7.029  0.5921 -0.2489  0.3921
 6494SOL     OW29795   2.954   0.377   0.349  0.6547 -0.0757 -0.5550
 6494SOL    HW129796   2.924   0.396   0.437  2.6565  0.4969  0.0662
 6494SOL    HW229797   3.001   0.456   0.322  0.0550 -0.2305 -2.1593
 6495SOL     OW29798   3.880   5.506   3.197 -0.0662 -0.3839 -0.3321
 6495SOL    HW129799   3.876   5.578   3.134  1.7262 -1.0565 -1.2917
 6495SOL    HW229800   3.889   5.428   3.143  1.6670 -0.9689  0.7250
 6496SOL     OW29801   1.395  12.861  11.655  0.6083  0.4294  0.5344
 6496SOL    HW129802   1.337  12.918  11.604  1.6088  0.4617 -0.5877
 6496SOL    HW229803   1.458  12.921  11.695  1.7038  0.1329 -0.7013
 6497SOL     OW29804   0.899   3.765   4.250 -0.1839 -0.4167  0.4047
 6497SOL    HW129805   0.848   3.843   4.227  1.0177  0.3656  0.3381
 6497SOL    HW229806   0.987   3.783   4.217  0.4573 -1.1930  1.6241
 6498SOL     OW29807   3.659   4.368   2.399 -0.3670  0.1552 -0.0230
 6498SOL    HW129808   3.617   4.421   2.332  0.1698  1.0971  0.3597
 6498SOL    HW229809   3.621   4.399   2.481  1.5889  1.5924  0.4026
 6499SOL     OW29810   8.480   7.595   2.002 -0.5003  0.5948  0.1296
 6499SOL    HW129811   8.437   7.667   2.048 -0.3987  0.4105  0.5234
 6499SOL    HW229812   8.568   7.627   1.984 -0.5590  0.6897  0.0116
 6500SOL     OW29813   4.313   2.923   3.981  0.6646  0.6747  0.7605
 6500SOL    HW129814   4.321   2.976   3.901 -2.2851  1.1233  0.6333
 6500SOL    HW229815   4.280   2.839   3.951 -0.8686  0.9836  1.4809
 6501SOL     OW29816   5.586   9.139   2.972  0.0479  0.0276 -0.0220
 6501SOL    HW129817   5.559   9.229   2.986  0.4118 -0.0979  1.6207
 6501SOL    HW229818   5.654   9.145   2.905 -1.1410  0.7547 -1.2177
 6502SOL     OW29819   9.029   0.479   8.914 -0.7318 -0.0409  0.3528
 6502SOL    HW129820   8.943   0.482   8.956 -1.2312  0.4228 -0.6741
 6502SOL    HW229821   9.089   0.458   8.985 -1.7941 -1.2609  0.9309
 6503SOL     OW29822  10.593   3.954   7.278 -0.6745 -0.1421 -0.6722
 6503SOL    HW129823  10.619   3.864   7.294  2.9059  1.1810  2.2253
 6503SOL    HW229824  10.544   3.979   7.357 -2.1671  0.3869 -1.7063
 6504SOL     OW29825   3.257  10.823  12.780 -0.3666  0.1071  0.3349
 6504SOL    HW129826   3.240  10.820  12.875 -1.4569  1.0799  0.2083
 6504SOL    HW229827   3.322  10.892  12.770  0.8391 -0.9858  0.4875
 6505SOL     OW29828  10.767   2.980   1.641 -0.1188 -0.0494 -0.4260
 6505SOL    HW129829  10.849   2.948   1.678  0.1184 -0.9513 -1.6678
 6505SOL    HW229830  10.791   3.059   1.593 -0.2730  0.5979  0.5253
 6506SOL     OW29831  12.773   2.158  11.620  0.5385  0.3329 -0.4244
 6506SOL    HW129832  12.723   2.168  11.539  0.5386  2.7653 -0.1898
 6506SOL    HW229833  12.711   2.180  11.690  1.0642  0.1599  0.1042
 6507SOL     OW29834  10.495   0.943   9.203 -0.1232  0.7042  0.3465
 6507SOL    HW129835  10.485   0.870   9.142  1.6119  0.1122  0.7295
 6507SOL    HW229836  10.492   0.903   9.290  3.0289  0.6953  0.5533
 6508SOL     OW29837  10.064   2.937   7.830 -0.4395  0.2586 -0.2959
 6508SOL    HW129838  10.092   2.928   7.921 -0.0287 -0.0679 -0.4499
 6508SOL    HW229839   9.990   2.998   7.833 -0.0583  0.7055  0.1891
 6509SOL     OW29840   1.164   5.759  11.659  0.8521  0.3850  0.2579
 6509SOL    HW129841   1.217   5.680  11.661  0.9366  0.4155 -0.4998
 6509SOL    HW229842   1.146   5.774  11.566 -0.5984  0.2938  0.4952
 6510SOL     OW29843  12.306  12.707  12.181 -0.2499 -0.0009 -0.1558
 6510SOL    HW129844  12.388  12.703  12.132 -0.4652 -2.5517 -0.4060
 6510SOL    HW229845  12.325  12.664  12.264 -0.5865  2.0331  1.0523
 6511SOL     OW29846   3.664   5.805  10.947 -0.0193  0.3941 -0.0942
 6511SOL    HW129847   3.700   5.800  10.859  1.4321 -2.1215  0.5432
 6511SOL    HW229848   3.715   5.874  10.990  0.2648  0.6191 -0.7740
 6512SOL     OW29849   5.554   3.141  11.930 -0.0004  0.0600  0.0573
 6512SOL    HW129850   5.570   3.210  11.866  0.5285 -0.0844  0.0286
 6512SOL    HW229851   5.520   3.187  12.006 -3.4572 -0.0313 -1.2677
 6513SOL     OW29852   1.861   9.671   3.531 -0.4431  0.1880  0.4993
 6513SOL    HW129853   1.822   9.613   3.465  1.5331 -0.9333  0.2633
 6513SOL    HW229854   1.868   9.617   3.609 -0.9190  0.9075  1.0456
 6514SOL     OW29855  12.357   8.254  12.709 -0.7247 -0.7591 -0.0464
 6514SOL    HW129856  12.411   8.329  12.686 -0.1465 -1.2120 -0.1943
 6514SOL    HW229857  12.321   8.276  12.795  1.1787 -1.2064  0.9335
 6515SOL     OW29858   2.555   9.542   3.786 -0.1011 -0.3047  0.4949
 6515SOL    HW129859   2.479   9.490   3.757 -1.0526  1.5412 -0.5127
 6515SOL    HW229860   2.600   9.565   3.705 -0.3640  1.3670  0.7852
 6516SOL     OW29861   5.653  12.042  11.066  0.1587 -0.2423  0.2139
 6516SOL    HW129862   5.577  12.003  11.110  0.5979 -1.6977 -0.2603
 6516SOL    HW229863   5.679  12.115  11.122 -0.3162 -1.0211  1.4855
 6517SOL     OW29864   2.063   5.796  12.474 -0.7271  0.1129 -0.1583
 6517SOL    HW129865   1.990   5.735  12.460 -0.8795  0.1016  0.6461
 6517SOL    HW229866   2.094   5.776  12.562 -0.1483  0.5429 -0.2623
 6518SOL     OW29867   3.895   8.548   1.271 -0.2113 -0.4965 -0.7962
 6518SOL    HW129868   3.969   8.572   1.326 -0.7092 -1.0574  0.1468
 6518SOL    HW229869   3.934   8.502   1.196  0.4860  0.4843 -1.0459
 6519SOL     OW29870   0.822   9.263   4.785  0.0301  0.3297 -0.2280
 6519SOL    HW129871   0.825   9.169   4.763 -1.0226 -0.1358  1.4271
 6519SOL    HW229872   0.827   9.307   4.701 -0.8608 -1.2565 -1.1739
 6520SOL     OW29873   5.884   2.683   2.119 -0.2350  0.3143 -0.1295
 6520SOL    HW129874   5.893   2.603   2.067  1.0450 -0.0500  0.5967
 6520SOL    HW229875   5.881   2.651   2.210  0.3997  1.0904  0.1706
 6521SOL     OW29876   9.979  12.122   1.120 -0.2134  0.5086 -0.0198
 6521SOL    HW129877  10.047  12.059   1.144  1.3939  1.1634 -2.4986
 6521SOL    HW229878   9.932  12.081   1.048 -0.1828  1.4876 -0.6119
 6522SOL     OW29879   1.166   8.832  12.504 -0.0576 -0.6145 -0.5149
 6522SOL    HW129880   1.129   8.822  12.417 -1.0701  0.5811 -0.2463
 6522SOL    HW229881   1.147   8.922  12.529  1.2941 -0.5580  0.4659
 6523SOL     OW29882   3.678   9.052   3.529  0.4452  0.1240 -0.1588
 6523SOL    HW129883   3.685   9.003   3.447 -0.9482 -1.4675  0.6135
 6523SOL    HW229884   3.638   9.136   3.503  0.4667 -0.1561 -1.1642
 6524SOL     OW29885   6.999   0.595   8.511  0.6183 -0.6266  0.5869
 6524SOL    HW129886   6.993   0.535   8.437 -0.7789  0.1584  0.0250
 6524SOL    HW229887   7.075   0.650   8.491 -0.5964  0.5728 -1.0961
 6525SOL     OW29888  11.490   4.510  11.719  0.1432  0.3393 -0.3697
 6525SOL    HW129889  11.421   4.565  11.680 -0.2933  1.5771  1.9555
 6525SOL    HW229890  11.550   4.572  11.760  1.2887 -0.8299 -0.2055
 6526SOL     OW29891   1.783   5.192   9.557 -0.0650  0.3324 -0.0647
 6526SOL    HW129892   1.714   5.131   9.533  0.7120 -1.7665  2.5376
 6526SOL    HW229893   1.860   5.162   9.510 -0.3480  1.2527 -1.1592
 6527SOL     OW29894   0.862  12.304  10.948 -0.2059 -0.0081 -0.5867
 6527SOL    HW129895   0.840  12.375  11.007 -1.4813 -2.2825  1.8747
 6527SOL    HW229896   0.936  12.260  10.990  0.9035  0.1210 -2.3223
 6528SOL     OW29897   1.685  10.869  11.343 -0.0835  0.3099 -0.2930
 6528SOL    HW129898   1.630  10.824  11.278 -1.1363  0.2527  0.6134
 6528SOL    HW229899   1.751  10.915  11.290 -0.5821 -0.1744 -1.3747
 6529SOL     OW29900   4.486   6.401   8.905  0.4996 -0.0028  0.1863
 6529SOL    HW129901   4.519   6.383   8.992  0.8235 -1.9704 -0.2975
 6529SOL    HW229902   4.455   6.316   8.873 -2.4841  1.2227 -0.4548
 6530SOL     OW29903   9.348   3.366  10.279  0.0877 -0.1147  0.1291
 6530SOL    HW129904   9.330   3.399  10.191 -0.9348  3.6479  1.5414
 6530SOL    HW229905   9.443   3.374  10.288  0.1820 -0.3592 -0.5400
 6531SOL     OW29906   7.653  10.764   7.334  0.1644  0.0253  0.1138
 6531SOL    HW129907   7.610  10.681   7.315  1.5102 -0.8858  0.8765
 6531SOL    HW229908   7.675  10.800   7.247 -0.2692 -0.4936 -0.2150
 6532SOL     OW29909   5.400  11.425   5.596  0.0709  0.1129 -0.0879
 6532SOL    HW129910   5.488  11.392   5.609 -0.0111 -0.6470 -1.3624
 6532SOL    HW229911   5.399  11.509   5.642  0.8710 -0.7239  1.5310
 6533SOL     OW29912  12.171   3.309   4.224  0.0171  0.2930 -0.6064
 6533SOL    HW129913  12.263   3.312   4.248  0.4106 -0.8072 -1.8640
 6533SOL    HW229914  12.145   3.401   4.220  1.3231  0.6607 -1.1876
 6534SOL     OW29915   7.120   4.015   6.856  0.5257  0.0810  0.5361
 6534SOL    HW129916   7.191   3.963   6.820  0.3788  0.8094 -0.8985
 6534SOL    HW229917   7.065   4.036   6.781 -0.2105  1.0704  1.3135
 6535SOL     OW29918   7.011  10.411   3.633 -0.0816 -0.4894  0.5917
 6535SOL    HW129919   6.964  10.464   3.697 -1.1966  0.4758 -0.9346
 6535SOL    HW229920   6.954  10.336   3.617  0.7366 -1.3418  1.5452
 6536SOL     OW29921   7.080   7.336   6.069 -0.0125  0.0192 -0.1985
 6536SOL    HW129922   7.162   7.376   6.040  0.3194  0.4386  1.2216
 6536SOL    HW229923   7.015   7.369   6.007  0.6524  0.8512 -0.4889
 6537SOL     OW29924   8.024   7.402   6.258 -0.2112  0.6894 -0.4667
 6537SOL    HW129925   8.002   7.495   6.259  0.5144  0.8822 -1.3360
 6537SOL    HW229926   8.119   7.400   6.249 -0.4004 -0.1257 -2.8577
 6538SOL     OW29927   6.806   3.456   4.154 -0.3566 -0.1989  0.4209
 6538SOL    HW129928   6.888   3.493   4.184 -1.5332  0.8221  2.5700
 6538SOL    HW229929   6.742   3.526   4.165 -1.5437 -0.9609 -1.1969
 6539SOL     OW29930   6.338   1.079   4.498  0.5059  0.2550 -0.0450
 6539SOL    HW129931   6.292   1.101   4.416 -0.8769  2.1101  1.1467
 6539SOL    HW229932   6.401   1.150   4.510  2.6875 -1.4273 -0.8207
 6540SOL     OW29933   7.280   2.808  10.125 -0.0967  0.2870  0.2618
 6540SOL    HW129934   7.259   2.783  10.035  0.1877  0.5936  0.1111
 6540SOL    HW229935   7.361   2.858  10.118  0.6042 -0.7320  0.8285
 6541SOL     OW29936   4.037   9.349   8.527 -0.2986  0.2824  0.1731
 6541SOL    HW129937   4.073   9.312   8.446  0.3838 -1.3828  1.1928
 6541SOL    HW229938   4.000   9.274   8.573 -2.3121  1.4704  0.6225
 6542SOL     OW29939   5.161  10.707   4.855  0.0202 -0.0055  0.3299
 6542SOL    HW129940   5.092  10.661   4.807 -0.2365 -0.1575  0.8344
 6542SOL    HW229941   5.116  10.780   4.897  0.0642 -0.3914  1.0672
 6543SOL     OW29942   0.624   1.010   3.772 -0.4040  0.2962 -0.1500
 6543SOL    HW129943   0.656   1.087   3.724  1.0086 -0.9143 -1.2149
 6543SOL    HW229944   0.591   1.046   3.855  0.3234  2.0388 -0.5771
 6544SOL     OW29945   0.671   4.481   4.547  0.0011 -0.4365 -0.0234
 6544SOL    HW129946   0.720   4.554   4.508 -0.0774  0.2849  1.1615
 6544SOL    HW229947   0.730   4.406   4.539  0.9108  0.1923  0.4649
 6545SOL     OW29948   3.534   0.926  12.914  0.6114 -0.2147 -0.1206
 6545SOL    HW129949   3.459   0.953  12.968  0.3380  0.0095 -0.6025
 6545SOL    HW229950   3.596   0.999  12.923  1.4750 -1.1066  1.5608
 6546SOL     OW29951   7.575   5.766   4.853  0.4952 -0.1132  0.0560
 6546SOL    HW129952   7.634   5.694   4.877 -1.4171 -0.9480  2.6775
 6546SOL    HW229953   7.493   5.723   4.830 -0.1317  1.1769 -0.1879
 6547SOL     OW29954   3.785   2.816   3.404  0.2817  0.0604 -0.4451
 6547SOL    HW129955   3.856   2.756   3.429  1.5164  1.0608 -1.3770
 6547SOL    HW229956   3.774   2.873   3.480 -0.4702 -0.9262  0.2097
 6548SOL     OW29957   4.711   3.993   7.809  0.1491 -0.3201 -0.0947
 6548SOL    HW129958   4.796   3.951   7.799  1.1667  1.0194  2.2930
 6548SOL    HW229959   4.675   3.996   7.720  3.9831  1.9779 -1.7807
 6549SOL     OW29960   7.157   4.761   5.241 -0.0521  0.2545 -0.0580
 6549SOL    HW129961   7.241   4.806   5.253  0.0805  0.4736 -1.6921
 6549SOL    HW229962   7.097   4.807   5.301  0.5378  1.3470 -0.2750
 6550SOL     OW29963   3.119   3.977   9.817  0.1018  0.1656 -0.6932
 6550SOL    HW129964   3.023   3.966   9.819  0.1087  0.1576 -0.2035
 6550SOL    HW229965   3.152   3.889   9.797  0.0536 -0.1726  0.6067
 6551SOL     OW29966  12.581   5.730   2.051 -0.1062  0.7235 -0.2366
 6551SOL    HW129967  12.509   5.702   2.107 -0.4334 -0.3417 -1.1554
 6551SOL    HW229968  12.574   5.825   2.049 -0.2837  0.7727  1.2479
 6552SOL     OW29969   9.144   3.814   6.792  0.4184 -0.8844 -0.3158
 6552SOL    HW129970   9.049   3.805   6.800  0.4723 -2.5483 -1.1600
 6552SOL    HW229971   9.178   3.727   6.815  1.7710 -0.2349  0.2462
 6553SOL     OW29972   3.877   6.903   8.038 -0.1085  0.2509 -0.2465
 6553SOL    HW129973   3.963   6.905   8.078 -0.3407  0.9885  0.2294
 6553SOL    HW229974   3.817   6.886   8.110 -0.4583  0.8459 -0.3905
 6554SOL     OW29975   9.160   6.220   3.563 -0.0175  0.5220 -0.0272
 6554SOL    HW129976   9.188   6.251   3.649  0.6961  3.0052 -1.0831
 6554SOL    HW229977   9.083   6.272   3.543  0.5863  0.9205 -1.4163
 6555SOL     OW29978   0.506   1.089   6.104 -0.0958  0.2633 -0.1674
 6555SOL    HW129979   0.531   1.175   6.137  1.0695 -0.4233  0.8319
 6555SOL    HW229980   0.579   1.031   6.130 -1.9644 -1.5384  1.3864
 6556SOL     OW29981   8.334   3.834   7.674 -0.3310 -0.2184  0.2668
 6556SOL    HW129982   8.419   3.791   7.669 -0.5771 -0.7644  0.6628
 6556SOL    HW229983   8.342   3.910   7.616 -0.0974 -1.1303 -0.9292
 6557SOL     OW29984   9.752  10.692   5.526  0.1205 -0.2391 -0.0810
 6557SOL    HW129985   9.680  10.681   5.588  0.3687  0.5758  0.3579
 6557SOL    HW229986   9.825  10.726   5.578  0.1496  1.0458 -0.9089
 6558SOL     OW29987  10.244   6.776  12.974  0.0804  0.3569  0.2840
 6558SOL    HW129988  10.241   6.808  13.064 -0.5938 -0.1229  0.4425
 6558SOL    HW229989  10.329   6.803  12.941  0.9179 -0.7023  1.5174
 6559SOL     OW29990   6.385   2.780   1.193 -0.3585  0.2284  0.5782
 6559SOL    HW129991   6.427   2.865   1.177 -0.0766 -0.4311 -2.9518
 6559SOL    HW229992   6.292   2.796   1.176 -0.7768  0.3619  2.6749
 6560SOL     OW29993   9.406   7.364   2.913  0.0811  0.6252 -0.4374
 6560SOL    HW129994   9.337   7.342   2.851  0.5177  0.9951 -1.0622
 6560SOL    HW229995   9.466   7.289   2.911 -0.1243  0.4529 -0.1487
 6561SOL     OW29996   1.832   1.426  11.891 -0.7937 -0.6560 -0.3978
 6561SOL    HW129997   1.783   1.359  11.844 -0.5417 -0.8657 -0.3651
 6561SOL    HW229998   1.816   1.407  11.984  0.6009 -1.6989 -0.3350
 6562SOL     OW29999   3.417   4.387   9.043 -0.1553  0.1821 -0.4792
 6562SOL    HW130000   3.510   4.407   9.034 -0.0765 -0.2385 -0.6524
 6562SOL    HW230001   3.378   4.467   9.077  0.3152  0.2770 -0.1550
 6563SOL     OW30002  10.303  12.239   0.319 -0.1474 -0.7961 -0.1439
 6563SOL    HW130003  10.223  12.252   0.268 -0.4175  0.0300  0.4768
 6563SOL    HW230004  10.334  12.327   0.338  0.5408 -1.1052  0.2186
 6564SOL     OW30005   5.259   9.553   5.042 -0.0486  1.0277  0.0294
 6564SOL    HW130006   5.260   9.490   4.970 -0.1693  0.8771  0.1583
 6564SOL    HW230007   5.312   9.626   5.011 -0.5232  1.1862 -0.4110
 6565SOL     OW30008   2.198  12.233  12.553 -0.3220 -0.1880  0.0592
 6565SOL    HW130009   2.140  12.204  12.624 -0.5632 -0.4024 -0.2203
 6565SOL    HW230010   2.190  12.164  12.487  2.3265 -1.6486  1.1132
 6566SOL     OW30011   4.904   3.346   2.099 -0.0411  0.0907 -0.5744
 6566SOL    HW130012   4.904   3.427   2.150  0.8078 -1.0047  1.2608
 6566SOL    HW230013   4.981   3.299   2.130  0.3739 -0.7548 -2.7427
 6567SOL     OW30014   3.465   0.526   8.275 -0.3355 -0.0258 -0.3403
 6567SOL    HW130015   3.506   0.536   8.361  0.4501 -1.0418 -0.5851
 6567SOL    HW230016   3.451   0.616   8.245 -1.0867  0.3549  1.0573
 6568SOL     OW30017   6.421   3.403   7.951 -0.1902 -0.8589  0.3598
 6568SOL    HW130018   6.403   3.409   8.045  0.6556  1.0032  0.4325
 6568SOL    HW230019   6.368   3.473   7.912 -0.0657 -1.2275 -0.4947
 6569SOL     OW30020   2.672   2.377   6.147 -0.0298 -0.1101 -0.2976
 6569SOL    HW130021   2.747   2.428   6.176 -0.5745  0.2021  0.6416
 6569SOL    HW230022   2.652   2.410   6.059 -0.2114  1.1394  0.1887
 6570SOL     OW30023   3.056  12.464  12.236 -0.1321 -0.2976 -0.6483
 6570SOL    HW130024   2.975  12.439  12.191 -0.6580  1.2425 -0.6042
 6570SOL    HW230025   3.026  12.493  12.323  0.3850  0.8060 -0.8246
 6571SOL     OW30026  12.128   0.288   1.237 -0.1528 -0.0242  0.2996
 6571SOL    HW130027  12.223   0.281   1.226 -0.1677 -0.5875  0.4821
 6571SOL    HW230028  12.094   0.287   1.148  0.0477  0.8188  0.2065
 6572SOL     OW30029  11.154   6.996   2.358  0.0549  0.3818  0.0644
 6572SOL    HW130030  11.170   6.998   2.452 -1.2762  1.8153  0.2889
 6572SOL    HW230031  11.238   6.968   2.320  0.5865 -0.2804  1.6482
 6573SOL     OW30032   1.496   4.593  10.033  0.0089 -0.0338 -0.3856
 6573SOL    HW130033   1.550   4.516  10.048 -1.3431 -0.4418  3.4482
 6573SOL    HW230034   1.406   4.562  10.039 -0.6066  1.4954 -1.0629
 6574SOL     OW30035   3.362   3.544   9.660  0.2239  0.2034 -0.1769
 6574SOL    HW130036   3.369   3.492   9.741 -0.6854  2.4821  1.4884
 6574SOL    HW230037   3.453   3.561   9.635  0.5408  0.2823  0.9655
 6575SOL     OW30038   9.008   4.356   5.368 -0.5706  0.3264  0.0414
 6575SOL    HW130039   9.071   4.401   5.311 -0.2499 -1.1096 -0.8268
 6575SOL    HW230040   8.950   4.310   5.307 -1.6897  0.6220  0.8586
 6576SOL     OW30041  10.825   3.797   7.540 -0.2810 -0.4153  0.3844
 6576SOL    HW130042  10.740   3.752   7.533 -1.5163  2.0882 -2.8522
 6576SOL    HW230043  10.839   3.836   7.454  3.9434 -0.1638  0.9875
 6577SOL     OW30044   9.296   8.244   7.796  0.3785  0.2211  0.3025
 6577SOL    HW130045   9.299   8.149   7.811  0.0615  0.1986  0.2171
 6577SOL    HW230046   9.237   8.255   7.722 -2.8386  0.7507  2.7130
 6578SOL     OW30047   1.553   7.685   3.001  0.4029 -0.6774 -0.5255
 6578SOL    HW130048   1.478   7.672   2.941 -0.1298 -0.3112  0.0467
 6578SOL    HW230049   1.619   7.727   2.947 -0.0262 -0.4693 -0.9002
 6579SOL     OW30050   4.363   4.990   4.836  0.0393  0.0040  0.1441
 6579SOL    HW130051   4.443   4.975   4.786 -0.5625  0.5407 -1.0249
 6579SOL    HW230052   4.333   4.902   4.860  0.5933 -0.2354 -0.0193
 6580SOL     OW30053   7.328   0.120   7.546 -0.1921 -0.4195  0.6766
 6580SOL    HW130054   7.241   0.117   7.585 -0.6129  0.1706 -0.2089
 6580SOL    HW230055   7.322   0.063   7.470  0.1340 -0.1890  0.4785
 6581SOL     OW30056   3.386   1.076   4.132 -0.3889 -0.4071 -0.1444
 6581SOL    HW130057   3.300   1.109   4.108 -0.1168  1.0884  0.7410
 6581SOL    HW230058   3.383   1.068   4.228 -0.2298 -2.4830 -0.2598
 6582SOL     OW30059   3.431   6.710  10.371 -0.1747 -0.2350 -0.6553
 6582SOL    HW130060   3.439   6.685  10.279 -0.1246 -0.6269 -0.5490
 6582SOL    HW230061   3.351   6.666  10.400  0.5815 -1.3326 -0.1380
 6583SOL     OW30062   2.256   5.348  12.138  0.5835  0.6132 -0.4641
 6583SOL    HW130063   2.343   5.363  12.176  1.2147 -1.0418 -1.1611
 6583SOL    HW230064   2.197   5.347  12.213  1.6706 -1.6251  0.4568
 6584SOL     OW30065   1.299  11.152   6.399  0.8384 -0.4443  0.4737
 6584SOL    HW130066   1.224  11.192   6.355 -1.1557 -2.5301  1.7723
 6584SOL    HW230067   1.351  11.114   6.329  0.5890  0.8098 -0.4269
 6585SOL     OW30068  12.230   6.682   2.627  0.0346 -0.1395 -0.1715
 6585SOL    HW130069  12.290   6.629   2.575 -1.9701 -2.5337 -0.2840
 6585SOL    HW230070  12.278   6.702   2.707  1.3790 -0.9441 -0.7489
 6586SOL     OW30071   9.247   8.315   3.836 -0.7982  0.1150 -0.7673
 6586SOL    HW130072   9.177   8.348   3.780 -1.4684  0.9768  0.5112
 6586SOL    HW230073   9.265   8.387   3.897  0.3853 -0.5223 -0.3312
 6587SOL     OW30074  12.349   7.904   2.053  0.5039 -0.0456 -0.1949
 6587SOL    HW130075  12.311   7.870   1.972  1.5344 -1.0263 -0.2836
 6587SOL    HW230076  12.295   7.866   2.122  0.0720  0.2094 -0.3848
 6588SOL     OW30077   7.645   8.293   0.754  0.0635  0.1524 -0.2497
 6588SOL    HW130078   7.714   8.330   0.810  0.3813  0.1627 -0.6458
 6588SOL    HW230079   7.690   8.271   0.672 -0.6152  1.0981 -0.8897
 6589SOL     OW30080  12.354   1.239   3.374 -0.2157 -0.6273  0.3032
 6589SOL    HW130081  12.412   1.315   3.368 -0.9771 -0.1388 -1.9744
 6589SOL    HW230082  12.370   1.203   3.461  1.6900  0.9154  0.6596
 6590SOL     OW30083  11.134   6.078   2.250 -0.0305  0.5809 -0.1173
 6590SOL    HW130084  11.091   6.105   2.331 -0.0842  0.2135 -0.0197
 6590SOL    HW230085  11.183   6.155   2.222 -2.3269  1.7158 -1.3220
 6591SOL     OW30086   7.575  11.158  10.037  0.5544  0.3305  0.5019
 6591SOL    HW130087   7.543  11.140  10.125 -0.5918 -2.4492 -0.3641
 6591SOL    HW230088   7.498  11.188   9.989  0.9501  0.8799  0.2085
 6592SOL     OW30089   6.572   4.649   6.824 -0.4756  0.4741 -0.5977
 6592SOL    HW130090   6.484   4.686   6.817 -0.4403  0.5021 -0.9289
 6592SOL    HW230091   6.630   4.720   6.794 -0.2568  0.8259  0.6228
 6593SOL     OW30092   6.499  12.454   4.323  0.4710  1.1244  0.0546
 6593SOL    HW130093   6.465  12.485   4.239 -0.4432  1.7484  0.6316
 6593SOL    HW230094   6.430  12.477   4.386  1.4326  1.2905  1.0744
 6594SOL     OW30095  12.089   4.897   5.176 -0.2214 -0.6377  0.2894
 6594SOL    HW130096  12.156   4.829   5.176 -0.7111 -1.1851  1.9497
 6594SOL    HW230097  12.127   4.969   5.125  0.7893 -1.6916 -0.4892
 6595SOL     OW30098  12.534   2.599   3.006 -0.0584  0.1339  0.6255
 6595SOL    HW130099  12.552   2.665   2.939 -2.1695 -0.8746 -1.0554
 6595SOL    HW230100  12.610   2.542   3.005  0.2772  0.5793 -0.3951
 6596SOL     OW30101   1.791  12.539  12.560 -0.1522  0.2014 -0.0393
 6596SOL    HW130102   1.708  12.578  12.586 -0.3358 -0.2792  0.1131
 6596SOL    HW230103   1.815  12.585  12.479  0.1943  1.3742  0.7068
 6597SOL     OW30104   1.875   0.824   1.557  0.4888 -0.1848  0.1493
 6597SOL    HW130105   1.829   0.798   1.478 -1.4925 -0.2534  1.2617
 6597SOL    HW230106   1.898   0.916   1.542  0.8409 -0.4209 -0.8065
 6598SOL     OW30107   2.201  11.539  11.025  0.0741  0.2594 -0.4412
 6598SOL    HW130108   2.199  11.629  11.057  1.4814 -0.0986  0.7455
 6598SOL    HW230109   2.257  11.543  10.947 -1.1294  0.6599 -1.3026
 6599SOL     OW30110  10.513   3.436  11.285  0.2384  0.3627 -0.6138
 6599SOL    HW130111  10.472   3.349  11.277 -0.4840  0.6342  0.0660
 6599SOL    HW230112  10.561   3.446  11.203  2.3643 -1.7044  0.2630
 6600SOL     OW30113   0.665   4.777   7.992  0.2667  0.3486 -0.4452
 6600SOL    HW130114   0.605   4.798   7.921 -0.3081 -1.9561 -0.7265
 6600SOL    HW230115   0.611   4.782   8.071 -0.4651 -2.0127 -0.7265
 6601SOL     OW30116  10.724   9.381  11.275 -0.2301 -0.0123 -0.4611
 6601SOL    HW130117  10.683   9.314  11.221 -1.0785 -1.0566  1.3806
 6601SOL    HW230118  10.775   9.332  11.340  3.0931  1.2262 -1.8930
 6602SOL     OW30119   3.592   0.631   4.750  0.4349  0.2501  0.2662
 6602SOL    HW130120   3.500   0.608   4.766  1.0805 -1.4739  1.7905
 6602SOL    HW230121   3.594   0.727   4.757 -1.3489  0.3960 -0.5626
 6603SOL     OW30122   6.634   1.017   2.780  0.5270 -0.0525 -0.4794
 6603SOL    HW130123   6.552   1.056   2.808  0.8256 -0.0123  0.3502
 6603SOL    HW230124   6.670   1.079   2.716  1.4872  1.5973  1.5645
 6604SOL     OW30125   1.220   1.301   6.340  0.4325 -0.2019 -0.3644
 6604SOL    HW130126   1.131   1.280   6.366  0.4172  0.3199  0.0182
 6604SOL    HW230127   1.213   1.384   6.294  0.8657  0.4213  0.6719
 6605SOL     OW30128   3.021   3.871   4.695 -0.2312  0.0828 -0.0029
 6605SOL    HW130129   2.943   3.861   4.748  0.1653  1.1856  0.8323
 6605SOL    HW230130   3.049   3.961   4.709  1.6886 -0.5236  0.4329
 6606SOL     OW30131   3.108  11.266   3.596 -0.1474 -0.4836 -0.0050
 6606SOL    HW130132   3.070  11.335   3.543 -0.4860  0.0349  0.8831
 6606SOL    HW230133   3.062  11.186   3.568  0.4302 -0.4089 -1.2118
 6607SOL     OW30134   2.473   4.073   4.936  0.4296  0.1406 -0.3243
 6607SOL    HW130135   2.526   4.153   4.927  3.7302 -1.5354  2.2435
 6607SOL    HW230136   2.441   4.075   5.026  0.5272 -1.3588 -0.2297
 6608SOL     OW30137  12.228   3.009  12.203  0.3120  0.3607 -0.0722
 6608SOL    HW130138  12.250   2.996  12.110  1.0415 -0.9480  0.2646
 6608SOL    HW230139  12.145   3.056  12.201  1.3498  2.2894 -1.3825
 6609SOL     OW30140   5.747   2.129   0.528  0.0749 -0.0911 -0.3814
 6609SOL    HW130141   5.689   2.094   0.596 -0.9223  1.6418 -0.2862
 6609SOL    HW230142   5.832   2.137   0.570  0.9095 -3.9857 -0.9003
 6610SOL     OW30143  11.032   9.078   5.394  0.3565  0.1194  0.5770
 6610SOL    HW130144  11.061   9.166   5.370 -0.0650 -0.0915 -0.8070
 6610SOL    HW230145  11.012   9.084   5.487  3.0312  0.7323  1.1872
 6611SOL     OW30146   6.913   1.941   1.302  0.1116  0.7593 -0.2764
 6611SOL    HW130147   6.828   1.904   1.277  1.2665 -1.4227 -1.1710
 6611SOL    HW230148   6.928   1.908   1.390  0.3999  0.4676 -0.4352
 6612SOL     OW30149   9.602  10.332  12.980  0.0018  1.2410 -0.0983
 6612SOL    HW130150   9.565  10.257  13.026 -1.5597  1.2241 -1.2814
 6612SOL    HW230151   9.694  10.334  13.008 -0.6089  0.6499  2.1668
 6613SOL     OW30152  12.638  10.125   1.233  0.4392 -0.1183  0.3057
 6613SOL    HW130153  12.654  10.108   1.327 -1.1943  0.9598  0.8084
 6613SOL    HW230154  12.546  10.104   1.220  0.8917 -1.2651 -1.3426
 6614SOL     OW30155  12.580   4.543   8.754  0.2995  0.0935  0.1506
 6614SOL    HW130156  12.674   4.560   8.757  0.4149 -0.6367  1.5712
 6614SOL    HW230157  12.540   4.625   8.783  0.4336  0.6786 -1.2404
 6615SOL     OW30158   1.707   5.800   3.858 -0.4134  0.0749 -0.2000
 6615SOL    HW130159   1.787   5.850   3.842 -1.1560  1.8101  1.2225
 6615SOL    HW230160   1.656   5.810   3.778 -0.2433  1.0006 -0.1993
 6616SOL     OW30161   9.874  12.956   9.161 -0.1855 -0.5095  0.1132
 6616SOL    HW130162   9.878  12.880   9.218 -0.3268 -0.6010  0.0026
 6616SOL    HW230163   9.789  12.996   9.179 -1.3582 -1.9508 -1.7998
 6617SOL     OW30164   0.340  10.100   2.634 -0.4941  0.0326 -0.4067
 6617SOL    HW130165   0.417  10.099   2.691 -0.0019  0.3556 -1.0524
 6617SOL    HW230166   0.294  10.180   2.659  0.8607  1.3556 -1.9103
 6618SOL     OW30167  11.760  12.452   3.796  0.4323 -0.3375 -0.2156
 6618SOL    HW130168  11.794  12.530   3.839 -1.5158  1.0313 -1.0263
 6618SOL    HW230169  11.770  12.470   3.702 -1.6382 -0.2335 -0.4640
 6619SOL     OW30170   3.760   2.065   9.600 -0.2592  0.2247  0.4925
 6619SOL    HW130171   3.789   2.124   9.530 -0.8803 -0.3803 -0.3074
 6619SOL    HW230172   3.687   2.111   9.641  0.3461  0.7463  0.9981
 6620SOL     OW30173  10.657   6.556   8.496 -0.0750 -0.2391 -0.1430
 6620SOL    HW130174  10.701   6.610   8.430 -0.2708 -0.6614 -0.6371
 6620SOL    HW230175  10.725   6.536   8.560 -0.2946  1.5924  0.7233
 6621SOL     OW30176   2.011   7.690   1.570  0.5809  0.0964  0.3389
 6621SOL    HW130177   2.082   7.672   1.509 -0.8310 -0.6134 -1.1539
 6621SOL    HW230178   1.966   7.766   1.533 -0.5268 -0.5774  0.2687
 6622SOL     OW30179   1.903   1.295   4.575  0.1934 -0.3092  0.9470
 6622SOL    HW130180   1.967   1.366   4.576  2.1535 -1.8087 -1.6245
 6622SOL    HW230181   1.938   1.230   4.636 -1.0633  0.4151  2.5237
 6623SOL     OW30182  12.221   6.443   8.687 -0.6167 -0.1560  0.2712
 6623SOL    HW130183  12.133   6.480   8.700 -1.0233 -1.0036 -0.0329
 6623SOL    HW230184  12.278   6.520   8.678 -1.5482  0.4169 -1.0697
 6624SOL     OW30185   2.603   5.357   5.769 -0.4893  0.0716  0.1912
 6624SOL    HW130186   2.642   5.290   5.713 -0.9259 -0.1822  0.1933
 6624SOL    HW230187   2.662   5.362   5.844 -0.5929 -0.4933  0.3130
 6625SOL     OW30188   5.831  11.688  11.607  0.0475  0.2487 -0.1616
 6625SOL    HW130189   5.780  11.763  11.575  0.4604 -0.0294 -1.5279
 6625SOL    HW230190   5.813  11.686  11.701  1.5204  3.2502  0.3018
 6626SOL     OW30191   5.968  11.503   2.378 -0.2895 -0.3080  0.5988
 6626SOL    HW130192   5.885  11.550   2.376 -0.2164 -0.1899 -0.6745
 6626SOL    HW230193   6.027  11.556   2.324  1.0435  0.3382  2.5532
 6627SOL     OW30194   2.201   0.267   2.509  0.3522 -0.2293  0.2596
 6627SOL    HW130195   2.114   0.303   2.489  1.3668  1.4735 -1.4530
 6627SOL    HW230196   2.200   0.179   2.472 -0.5016 -0.0778 -0.1027
 6628SOL     OW30197  11.313   6.551  10.413 -0.6745  0.1222 -0.0020
 6628SOL    HW130198  11.291   6.474  10.464  0.7991 -1.1373 -1.1686
 6628SOL    HW230199  11.232   6.574  10.367 -1.7903  0.7841  2.1746
 6629SOL     OW30200   3.674   1.171   5.743  0.2079  0.0309  0.0871
 6629SOL    HW130201   3.708   1.222   5.669  0.5933  0.3267  0.4628
 6629SOL    HW230202   3.752   1.149   5.794 -0.1519  0.6952  0.9470
 6630SOL     OW30203  10.431   4.536   9.752 -0.1709  0.1238  0.8945
 6630SOL    HW130204  10.439   4.450   9.794 -0.3754 -0.3926 -0.0991
 6630SOL    HW230205  10.509   4.543   9.697 -0.7082  0.0764  0.1089
 6631SOL     OW30206   6.674   4.652   8.731 -0.2457 -0.0442  0.3839
 6631SOL    HW130207   6.711   4.564   8.720  2.7470  1.1792 -0.3773
 6631SOL    HW230208   6.712   4.684   8.813 -1.3063  0.5769  0.6548
 6632SOL     OW30209   4.312  12.058   9.308 -0.1533 -0.1009 -0.4549
 6632SOL    HW130210   4.392  12.025   9.348 -0.5465  0.1233  0.5253
 6632SOL    HW230211   4.297  12.001   9.232  1.3513  0.3364 -1.1098
 6633SOL     OW30212   3.147   4.700   1.538 -0.3512 -0.4698 -0.5138
 6633SOL    HW130213   3.059   4.715   1.503 -0.6069  1.9995  0.9625
 6633SOL    HW230214   3.204   4.755   1.483 -0.3995  1.3484  1.1466
 6634SOL     OW30215  12.596   1.976   4.523 -0.3533 -0.1736 -1.0512
 6634SOL    HW130216  12.644   2.048   4.565  0.3223 -0.9494 -0.4511
 6634SOL    HW230217  12.639   1.897   4.556  0.3661 -0.8246 -3.3907
 6635SOL     OW30218   3.453  12.351   5.342 -0.1510 -0.4782 -0.4755
 6635SOL    HW130219   3.448  12.352   5.437 -0.7811  2.0781 -0.4531
 6635SOL    HW230220   3.413  12.434   5.315  1.7754 -0.2031 -2.8450
 6636SOL     OW30221  10.991   2.595   2.307 -0.2317  0.1745 -0.2653
 6636SOL    HW130222  11.044   2.664   2.348 -1.6009  0.2173  1.5440
 6636SOL    HW230223  11.056   2.539   2.263  1.4352 -0.0006  2.1759
 6637SOL     OW30224   1.047   3.157   6.799 -0.2497  0.2696  0.5043
 6637SOL    HW130225   1.050   3.121   6.888  1.0804 -1.1886 -0.0918
 6637SOL    HW230226   1.112   3.227   6.799  1.9376 -1.6504 -0.0567
 6638SOL     OW30227   0.089   3.844   2.101  0.0122  0.7632  0.2937
 6638SOL    HW130228   0.043   3.924   2.125  0.9701  1.2381  0.6272
 6638SOL    HW230229   0.046   3.775   2.152 -1.9785  0.7397 -1.3186
 6639SOL     OW30230   8.626   5.531   8.269  0.2020 -0.6646  0.0148
 6639SOL    HW130231   8.546   5.524   8.216  0.4093 -2.8011 -0.0745
 6639SOL    HW230232   8.692   5.482   8.219  0.9531 -0.9162  1.2268
 6640SOL     OW30233   2.247   0.949  10.812  0.3206  0.0376  0.1770
 6640SOL    HW130234   2.156   0.926  10.797  0.3980 -0.0509 -0.1711
 6640SOL    HW230235   2.263   0.924  10.904  0.2026 -0.6406  0.0231
 6641SOL     OW30236   5.991   1.447   3.509  0.3951 -0.4461 -0.6017
 6641SOL    HW130237   6.063   1.395   3.545  0.3491 -0.6054 -0.7414
 6641SOL    HW230238   5.919   1.435   3.571  0.4180 -0.4652 -0.5789
 6642SOL     OW30239   7.615   1.939   9.196 -0.0805  0.1769 -0.2077
 6642SOL    HW130240   7.599   1.857   9.243  0.1835  0.1502 -0.1651
 6642SOL    HW230241   7.690   1.920   9.140 -0.5022  0.1501 -0.7849
 6643SOL     OW30242   2.487   7.783  11.505 -0.1073 -0.7361  0.7861
 6643SOL    HW130243   2.542   7.714  11.469 -0.6363 -1.6072  1.6164
 6643SOL    HW230244   2.530   7.864  11.479  1.4685 -1.3928  1.2657
 6644SOL     OW30245   5.021   9.208  10.549 -0.1551  0.3404  0.4083
 6644SOL    HW130246   4.994   9.137  10.608  1.1826  0.5383  1.3167
 6644SOL    HW230247   4.946   9.221  10.491 -1.0991 -0.6252  1.3566
 6645SOL     OW30248   1.291   4.935   2.347 -0.1045  0.3135 -0.2266
 6645SOL    HW130249   1.212   4.967   2.391 -0.3571  1.3124 -1.3424
 6645SOL    HW230250   1.332   4.876   2.410 -0.6415  1.3986  1.1754
 6646SOL     OW30251   9.107   8.923   5.903  0.3471 -0.2896 -0.3365
 6646SOL    HW130252   9.067   9.003   5.869 -0.0587  0.6011  2.0780
 6646SOL    HW230253   9.178   8.952   5.959 -0.0269 -1.5718  0.8742
 6647SOL     OW30254   5.731   4.626   1.774  0.5645 -0.0037  0.0072
 6647SOL    HW130255   5.721   4.632   1.869 -1.2213  1.1249 -0.1981
 6647SOL    HW230256   5.651   4.581   1.745  0.8072  0.2014 -1.0152
 6648SOL     OW30257  10.433   4.506   7.728  0.3448 -0.2638 -0.1399
 6648SOL    HW130258  10.421   4.592   7.687 -0.2895 -0.7564 -1.0350
 6648SOL    HW230259  10.373   4.506   7.802 -0.2868 -0.2330 -0.6406
 6649SOL     OW30260   2.314  12.538   6.183  0.1530  0.6206  0.1251
 6649SOL    HW130261   2.357  12.614   6.224 -0.6662  0.2473  1.7692
 6649SOL    HW230262   2.335  12.465   6.241 -0.3388 -0.1163 -0.6107
 6650SOL     OW30263   3.046   7.412   5.879  0.1517  0.2683  0.1043
 6650SOL    HW130264   3.039   7.503   5.851  2.3672  1.0416  1.8039
 6650SOL    HW230265   3.131   7.406   5.921 -0.6540 -2.1910  1.5921
 6651SOL     OW30266  10.321  10.139   1.916  0.0832  0.4127 -0.0423
 6651SOL    HW130267  10.405  10.151   1.959  0.4005 -0.5071 -0.3743
 6651SOL    HW230268  10.295  10.049   1.939 -0.6718  0.5949 -0.1635
 6652SOL     OW30269  11.580   5.320  12.755  0.0900  0.1907  1.0899
 6652SOL    HW130270  11.520   5.310  12.681  2.4674 -0.2067 -0.9032
 6652SOL    HW230271  11.610   5.231  12.774  1.5700  0.5695  0.6564
 6653SOL     OW30272   7.309   5.059   3.314 -0.3802 -0.1515 -0.5787
 6653SOL    HW130273   7.394   5.025   3.342 -0.6720  0.2976  0.9418
 6653SOL    HW230274   7.267   4.984   3.271  1.4562  0.1186 -3.0324
 6654SOL     OW30275   4.964   1.750   1.694 -0.1311  0.0357  0.4181
 6654SOL    HW130276   5.014   1.688   1.640  0.6371  2.1017 -1.3932
 6654SOL    HW230277   4.873   1.738   1.665 -0.2068 -1.1920  1.1057
 6655SOL     OW30278  10.324   9.422   8.778 -0.0213  0.7786  0.0263
 6655SOL    HW130279  10.287   9.449   8.862 -4.0313  1.0336 -1.5638
 6655SOL    HW230280  10.356   9.333   8.793  0.1150  1.1278  1.9834
 6656SOL     OW30281   6.914   6.955   8.505 -0.0457 -0.3631 -0.1138
 6656SOL    HW130282   6.891   6.868   8.538 -1.8888  0.6188  1.3480
 6656SOL    HW230283   6.919   7.010   8.583 -0.1883  1.1213 -1.1085
 6657SOL     OW30284   2.834   8.892   9.659 -0.1304  0.0586 -0.5537
 6657SOL    HW130285   2.877   8.831   9.719  0.0364  1.0091  0.3243
 6657SOL    HW230286   2.869   8.869   9.572 -1.6726 -2.4798 -0.6053
 6658SOL     OW30287   2.833  12.162  12.820 -0.4562 -0.2102 -0.2100
 6658SOL    HW130288   2.839  12.068  12.840  1.8774  0.2488  1.7965
 6658SOL    HW230289   2.750  12.189  12.858 -0.2047 -1.1281  1.0873
 6659SOL     OW30290   9.935   2.657  12.275 -0.0103  0.0686  0.2428
 6659SOL    HW130291   9.858   2.653  12.332 -1.0920  2.1437 -0.9500
 6659SOL    HW230292   9.965   2.748  12.280  0.9929 -0.1611 -1.0426
 6660SOL     OW30293   4.196   1.953   4.428 -0.1529 -0.0954 -0.0781
 6660SOL    HW130294   4.171   1.932   4.518  1.8809  0.3295  0.6455
 6660SOL    HW230295   4.152   1.887   4.375  1.0976 -2.4030  1.5469
 6661SOL     OW30296  10.438  12.015   5.584 -0.8143  0.3275  0.2190
 6661SOL    HW130297  10.505  12.054   5.528 -2.0404  0.7405 -1.0176
 6661SOL    HW230298  10.440  11.921   5.563  0.5923  0.0364  1.5325
 6662SOL     OW30299  12.980   4.974   6.369 -0.1893 -0.4484 -0.4060
 6662SOL    HW130300  12.944   5.016   6.291 -0.3387  2.1632  0.9489
 6662SOL    HW230301  12.911   4.915   6.399 -0.9882  0.1338 -1.0544
 6663SOL     OW30302   7.380   0.852   4.418  0.8339  0.5672 -0.0267
 6663SOL    HW130303   7.410   0.807   4.497  0.6173 -0.2324 -0.3912
 6663SOL    HW230304   7.454   0.906   4.392  1.2517  0.1091  0.1947
 6664SOL     OW30305   3.384   9.566   1.322 -0.1245  0.2660  0.0513
 6664SOL    HW130306   3.462   9.574   1.266  0.7282 -2.2242  0.7404
 6664SOL    HW230307   3.400   9.628   1.393 -0.0921  1.7230 -1.1506
 6665SOL     OW30308   7.825  12.927   6.671 -0.0632  0.0304 -0.0517
 6665SOL    HW130309   7.873  12.852   6.635  3.5916  1.6109  1.0717
 6665SOL    HW230310   7.820  12.989   6.598 -0.3703 -0.0896 -0.1364
 6666SOL     OW30311  10.022   5.524   6.472  0.1830  0.1014  0.5239
 6666SOL    HW130312  10.082   5.492   6.539  0.4677 -1.0023 -0.2329
 6666SOL    HW230313   9.967   5.449   6.451 -0.8168  0.8212  0.4915
 6667SOL     OW30314   2.051  10.290  12.060  0.5723 -0.4177  0.5432
 6667SOL    HW130315   2.060  10.228  11.987  0.2439  0.9113 -0.6626
 6667SOL    HW230316   2.138  10.328  12.069  0.6844 -0.7921  1.0448
 6668SOL     OW30317  10.912   7.947  12.902 -0.6436  0.4465  0.7276
 6668SOL    HW130318  10.997   7.990  12.905  0.5724 -1.7354 -0.0740
 6668SOL    HW230319  10.900   7.910  12.990 -0.8716  0.9448  0.9065
 6669SOL     OW30320   5.096   2.297   8.076  0.3120  0.6581  0.3706
 6669SOL    HW130321   5.143   2.214   8.081 -1.4439 -0.4347 -0.1960
 6669SOL    HW230322   5.152   2.353   8.022 -0.2924 -1.5687 -2.8813
 6670SOL     OW30323  12.556   5.500   7.618  0.0754  0.4081 -0.3332
 6670SOL    HW130324  12.529   5.579   7.571  0.2254  1.6671  1.5362
 6670SOL    HW230325  12.651   5.508   7.625  0.2178 -0.5440 -1.1194
 6671SOL     OW30326   5.059   9.199   2.840 -0.3798  0.1419 -0.1586
 6671SOL    HW130327   5.121   9.128   2.822  0.8922  1.3194 -0.6498
 6671SOL    HW230328   4.973   9.162   2.821  0.2900 -1.1327 -0.8141
 6672SOL     OW30329   0.476   4.754   1.023  0.4841  0.1014  0.2983
 6672SOL    HW130330   0.470   4.659   1.030  1.2896  0.1178  1.7383
 6672SOL    HW230331   0.535   4.779   1.095 -0.9158  1.8294  0.9193
 6673SOL     OW30332  12.986   7.730   2.529  0.1237  0.0386 -0.1886
 6673SOL    HW130333  12.951   7.663   2.470  0.5142  0.8575 -1.3851
 6673SOL    HW230334  13.076   7.744   2.499  1.1680 -1.1558  2.0555
 6674SOL     OW30335   1.780   9.780   9.385 -0.0611 -0.3269  0.1542
 6674SOL    HW130336   1.862   9.830   9.387 -0.1053 -0.2658  0.9178
 6674SOL    HW230337   1.797   9.708   9.325  0.9539 -0.9803  1.1889
 6675SOL     OW30338  11.143  11.335   9.566 -0.6713  0.1719  0.0442
 6675SOL    HW130339  11.162  11.273   9.637 -0.0448  0.7736  0.4076
 6675SOL    HW230340  11.199  11.305   9.494  2.1109  2.1080  1.1989
 6676SOL     OW30341   1.101   4.702   8.496 -0.0571 -0.1605  0.3137
 6676SOL    HW130342   1.103   4.641   8.570 -0.1190  0.8707  1.1814
 6676SOL    HW230343   1.146   4.780   8.527  2.1184 -0.5698 -1.5678
 6677SOL     OW30344   2.530   0.646   4.924 -0.5534 -0.4149 -0.0364
 6677SOL    HW130345   2.472   0.660   4.999 -1.6458 -1.3637 -0.6746
 6677SOL    HW230346   2.478   0.593   4.863 -1.3173  3.6000 -3.3397
 6678SOL     OW30347  12.918   0.603   8.267  0.4947  0.0986  0.3143
 6678SOL    HW130348  12.860   0.596   8.191  0.2939 -0.4343  0.5114
 6678SOL    HW230349  12.955   0.690   8.261  0.1353  0.2235 -0.1520
 6679SOL     OW30350   9.668   4.569   4.713  0.1503 -0.2167 -0.4085
 6679SOL    HW130351   9.656   4.656   4.674  1.9739  0.5793  0.6916
 6679SOL    HW230352   9.629   4.577   4.800  1.5770 -0.0199  0.2356
 6680SOL     OW30353   8.009   2.161   4.665  0.4510  0.1117  0.2676
 6680SOL    HW130354   7.959   2.175   4.584  0.9614  1.6869  0.2081
 6680SOL    HW230355   7.998   2.242   4.715  1.6781 -0.1142  0.9472
 6681SOL     OW30356   5.740   0.961   6.147  0.4829  0.1227 -0.6507
 6681SOL    HW130357   5.781   0.987   6.065 -1.9562  2.6921 -1.2117
 6681SOL    HW230358   5.701   1.042   6.181 -0.6102 -1.3387  1.8584
 6682SOL     OW30359  12.649   3.811   4.245 -0.3746  0.0814  0.2193
 6682SOL    HW130360  12.683   3.751   4.312  0.4764 -0.6010 -0.7998
 6682SOL    HW230361  12.631   3.892   4.293  1.6173  0.0942  1.0290
 6683SOL     OW30362   8.991   9.577   3.968 -0.0206  0.3352  0.3543
 6683SOL    HW130363   9.013   9.526   3.890  0.3432 -0.1042  0.7358
 6683SOL    HW230364   9.071   9.625   3.989 -0.8625  2.4981 -1.0383
 6684SOL     OW30365   0.355   5.372   6.131  0.4729  0.1825  0.3531
 6684SOL    HW130366   0.416   5.304   6.160  0.8803  1.0576  1.6210
 6684SOL    HW230367   0.411   5.441   6.094  0.1287  0.2709 -0.0165
 6685SOL     OW30368   3.759   4.408   9.870 -0.1118 -0.2632  0.0571
 6685SOL    HW130369   3.704   4.342   9.914  0.1296  0.2270  1.1251
 6685SOL    HW230370   3.790   4.364   9.791 -2.4828 -0.3801 -0.9032
 6686SOL     OW30371   4.118   2.982  12.650 -0.4834  0.2416 -0.0970
 6686SOL    HW130372   4.063   3.017  12.720  3.1512  1.5180  2.3699
 6686SOL    HW230373   4.091   3.031  12.572 -1.6751  1.9902  1.3437
 6687SOL     OW30374  10.506   0.989   0.518  0.0519  0.3751 -0.4616
 6687SOL    HW130375  10.461   0.922   0.570  2.7402 -2.3661 -1.3449
 6687SOL    HW230376  10.492   0.963   0.427  2.4362 -0.0301 -0.7857
 6688SOL     OW30377  10.996   4.617   6.325  0.2574  0.2645 -0.1152
 6688SOL    HW130378  11.064   4.684   6.335 -1.0230  1.7698 -0.9522
 6688SOL    HW230379  10.918   4.667   6.300 -1.3285 -1.3341  1.4020
 6689SOL     OW30380   0.329   9.098  11.539 -0.2237 -0.6283  0.2395
 6689SOL    HW130381   0.385   9.060  11.607  0.6006 -0.3560 -0.2695
 6689SOL    HW230382   0.340   9.041  11.464 -2.2766 -1.7757  0.7406
 6690SOL     OW30383   1.163   6.822   9.107 -0.1289 -0.1696 -0.2611
 6690SOL    HW130384   1.216   6.861   9.176  0.0698  0.5088 -0.7902
 6690SOL    HW230385   1.074   6.823   9.143 -0.0157  0.1029  0.0215
 6691SOL     OW30386   3.482   3.409   7.306  0.1332  0.7089 -0.2874
 6691SOL    HW130387   3.525   3.393   7.390  2.2377 -0.3566 -1.4614
 6691SOL    HW230388   3.462   3.321   7.272 -3.2735  1.1443  0.2323
 6692SOL     OW30389   3.230   1.295   9.157 -0.2808 -0.1180  0.5878
 6692SOL    HW130390   3.302   1.247   9.117  0.0195  0.0520  0.9291
 6692SOL    HW230391   3.151   1.248   9.127 -0.0995  0.2949 -0.6103
 6693SOL     OW30392  10.538  11.035   5.400  0.4708  0.0980 -0.6657
 6693SOL    HW130393  10.534  11.011   5.492  1.1468  0.2183 -0.6010
 6693SOL    HW230394  10.548  10.952   5.354 -1.7117 -0.1571 -0.7889
 6694SOL     OW30395   7.410   6.321   7.249 -0.3482 -0.0025  0.0445
 6694SOL    HW130396   7.416   6.226   7.243  1.7729 -0.0776  1.8606
 6694SOL    HW230397   7.330   6.337   7.300 -1.4254 -0.7058 -1.3798
 6695SOL     OW30398   7.735   0.352  12.411  0.8594  0.0640  0.4567
 6695SOL    HW130399   7.745   0.447  12.410  0.2918  0.1313 -0.7605
 6695SOL    HW230400   7.652   0.337  12.456  0.8863  0.1478  0.5355
 6696SOL     OW30401   4.148   1.281   2.518  0.0228 -0.1752  0.1065
 6696SOL    HW130402   4.237   1.255   2.543 -0.7613 -0.4368  2.9321
 6696SOL    HW230403   4.149   1.279   2.422  2.6648 -1.4543  0.0653
 6697SOL     OW30404   6.623   1.895   8.608  0.1624  0.4328 -0.1395
 6697SOL    HW130405   6.548   1.836   8.604 -0.2699  1.0048 -0.7641
 6697SOL    HW230406   6.695   1.841   8.640 -0.7033  0.0636  1.2621
 6698SOL     OW30407   0.558   0.051  12.221 -0.2824  0.0150 -0.6717
 6698SOL    HW130408   0.528  -0.040  12.212 -0.6149  0.2497 -2.2585
 6698SOL    HW230409   0.563   0.065  12.315  2.1618 -2.4134 -0.3188
 6699SOL     OW30410   6.993  11.907  11.299  0.4072 -0.0171  0.2966
 6699SOL    HW130411   6.987  11.813  11.281 -0.2022  0.3429 -1.6236
 6699SOL    HW230412   7.029  11.945  11.218  0.1589  1.4567  0.8432
 6700SOL     OW30413   0.493   0.737   0.925  0.1280  0.0666 -0.0510
 6700SOL    HW130414   0.440   0.784   0.989  1.1904  0.6440  0.4284
 6700SOL    HW230415   0.540   0.805   0.877 -1.1476 -0.3035 -1.9522
 6701SOL     OW30416  12.354   3.858   3.410  0.4100 -0.5866  0.1271
 6701SOL    HW130417  12.349   3.954   3.411  0.1252 -0.6031  0.4489
 6701SOL    HW230418  12.371   3.834   3.501 -1.7656 -0.9405  0.4970
 6702SOL     OW30419   7.219  12.083   8.514  0.0182 -0.2840 -0.1130
 6702SOL    HW130420   7.151  12.099   8.449 -0.4649 -0.4245  0.3507
 6702SOL    HW230421   7.187  12.008   8.564  0.1205  0.1717  0.6454
 6703SOL     OW30422  10.491   7.426   3.183 -0.0743 -0.7820  0.2951
 6703SOL    HW130423  10.571   7.373   3.176  0.5645  0.1587  0.1699
 6703SOL    HW230424  10.446   7.411   3.100 -0.6228 -2.2183  0.8321
 6704SOL     OW30425   5.416  10.183  10.979 -0.2887  0.1016  0.1633
 6704SOL    HW130426   5.404  10.210  11.071 -0.1203  1.1007 -0.0936
 6704SOL    HW230427   5.481  10.113  10.983 -1.0878 -0.6261  0.9107
 6705SOL     OW30428  12.358  10.138   2.883  0.6146  0.0436 -0.1552
 6705SOL    HW130429  12.392  10.117   2.970 -0.2480 -0.1728  0.1328
 6705SOL    HW230430  12.400  10.074   2.825  2.4924  1.2291 -0.1842
 6706SOL     OW30431   4.553   8.319  12.350 -0.4225  0.3548 -0.0069
 6706SOL    HW130432   4.540   8.226  12.368  0.0419  0.3032  0.0760
 6706SOL    HW230433   4.466   8.351  12.326 -0.8026  0.1334  1.0061
 6707SOL     OW30434   0.173   4.759   6.184  0.6110  0.1900 -0.2609
 6707SOL    HW130435   0.124   4.706   6.122  2.1946 -1.7282  0.0282
 6707SOL    HW230436   0.136   4.738   6.269  0.5126  0.4084 -0.2487
 6708SOL     OW30437   5.267   0.626   2.579  0.3345 -0.5465 -0.3153
 6708SOL    HW130438   5.222   0.704   2.610 -0.5486 -0.6421 -1.3169
 6708SOL    HW230439   5.274   0.570   2.656  2.0922  0.9834  0.7327
 6709SOL     OW30440  10.743  10.567   0.006  0.3515 -0.3697 -0.0901
 6709SOL    HW130441  10.664  10.596   0.050 -0.0266 -0.4970 -0.6811
 6709SOL    HW230442  10.792  10.518   0.073 -0.4166 -0.9266  0.0755
 6710SOL     OW30443   5.325   0.263  10.783  0.2277  0.1020 -0.1150
 6710SOL    HW130444   5.376   0.323  10.729 -1.1235  1.9674  0.5984
 6710SOL    HW230445   5.251   0.238  10.727 -0.3627  0.8330  0.3298
 6711SOL     OW30446   7.203   1.956  12.822  0.1301 -0.0404 -0.5236
 6711SOL    HW130447   7.230   1.878  12.871 -0.8647  0.5281  1.0298
 6711SOL    HW230448   7.269   2.022  12.843 -0.3372  0.2258  0.1483
 6712SOL     OW30449   3.909  10.922   8.280  0.3693 -0.3717 -0.0893
 6712SOL    HW130450   3.830  10.974   8.292  1.3728  0.9013  1.2770
 6712SOL    HW230451   3.976  10.966   8.332  2.0325 -1.3489 -1.2817
 6713SOL     OW30452   2.510  11.968   5.114 -0.4889  0.6520 -0.3911
 6713SOL    HW130453   2.564  11.959   5.192 -2.3985  0.3585  0.9591
 6713SOL    HW230454   2.526  11.888   5.064 -1.1979 -0.3590  0.9803
 6714SOL     OW30455  10.086   1.193   2.450 -0.4603  0.2308 -0.2477
 6714SOL    HW130456  10.028   1.252   2.401 -1.2851 -0.2527  0.1247
 6714SOL    HW230457  10.158   1.249   2.479 -0.3194  0.6740 -1.4020
 6715SOL     OW30458   7.341  12.390   9.022 -0.0517  0.4209  0.1921
 6715SOL    HW130459   7.302  12.429   9.100 -1.1665 -1.1847  0.4895
 6715SOL    HW230460   7.266  12.361   8.970  0.7071 -1.6246  0.1689
 6716SOL     OW30461   0.498  11.999   4.156 -0.4212  0.6503 -0.3127
 6716SOL    HW130462   0.528  12.024   4.069  1.2587  1.6372  0.5083
 6716SOL    HW230463   0.413  12.041   4.166 -0.5323  0.6978 -1.3874
 6717SOL     OW30464  10.558   5.916   0.425 -0.4442 -0.0537 -0.1470
 6717SOL    HW130465  10.628   5.881   0.480  0.5252  1.0136 -0.6453
 6717SOL    HW230466  10.509   5.975   0.482 -1.3196 -1.2550  0.3619
 6718SOL     OW30467   0.066  12.428   9.920 -0.1787  0.2873 -0.1275
 6718SOL    HW130468   0.059  12.443  10.014  0.4446  1.6765 -0.2713
 6718SOL    HW230469   0.076  12.334   9.911  1.8594  0.3060  1.3663
 6719SOL     OW30470   4.575   9.045   1.597 -0.7329 -0.6317 -0.4119
 6719SOL    HW130471   4.654   9.098   1.600 -2.5816  2.4776  3.0773
 6719SOL    HW230472   4.569   9.006   1.685 -2.1124 -2.3849 -1.2193
 6720SOL     OW30473   1.917  10.944   3.585  0.0104 -0.2087  0.1914
 6720SOL    HW130474   1.829  10.907   3.580  0.1901 -0.4846 -2.8415
 6720SOL    HW230475   1.912  11.025   3.534  1.1636  0.6615  1.3763
 6721SOL     OW30476   5.804   3.770   4.903  0.1835  0.3122 -0.1343
 6721SOL    HW130477   5.752   3.732   4.974 -0.7969  1.0878 -0.4114
 6721SOL    HW230478   5.816   3.862   4.930  1.4742  0.1297 -0.0449
 6722SOL     OW30479   1.738   6.921   0.212  0.3984 -0.3187 -0.2627
 6722SOL    HW130480   1.708   7.002   0.252  1.0508  0.4691 -1.3279
 6722SOL    HW230481   1.663   6.862   0.217 -0.6486  0.9114 -0.9968
 6723SOL     OW30482   7.514  10.926   4.454 -0.0872  0.2486 -0.1273
 6723SOL    HW130483   7.501  10.960   4.543  0.6910 -0.6445  0.3486
 6723SOL    HW230484   7.607  10.943   4.435  0.4766 -1.9749  0.3315
 6724SOL     OW30485  10.685   4.593   3.382  0.0187 -0.0369 -0.7437
 6724SOL    HW130486  10.706   4.676   3.425  0.6826 -0.3047 -0.5498
 6724SOL    HW230487  10.674   4.616   3.290  1.3743  0.0758 -0.8875
 6725SOL     OW30488   2.743   8.906  10.046 -0.2085  0.0505 -0.4571
 6725SOL    HW130489   2.801   8.852   9.994  0.4375 -1.3623  1.6040
 6725SOL    HW230490   2.786   8.913  10.131 -2.0830  0.6618  0.5104
 6726SOL     OW30491   9.170   6.285   7.668  0.3862  0.0464 -0.1127
 6726SOL    HW130492   9.149   6.235   7.747  1.0446 -0.6495 -0.3680
 6726SOL    HW230493   9.087   6.323   7.641 -0.0497 -0.5878  0.3160
 6727SOL     OW30494   3.693   8.816  12.073 -0.2901  0.3191  0.7796
 6727SOL    HW130495   3.752   8.776  12.010 -0.6783 -0.1723  0.7202
 6727SOL    HW230496   3.737   8.806  12.157 -0.7087 -0.9165  0.8736
 6728SOL     OW30497   8.143   8.193   8.118 -0.5123 -0.2247 -0.5711
 6728SOL    HW130498   8.074   8.259   8.116 -1.3906 -1.1110 -0.3787
 6728SOL    HW230499   8.220   8.239   8.152 -0.9532  0.8221 -0.9784
 6729SOL     OW30500   3.881   9.428   9.885 -0.4460 -0.8475 -0.2198
 6729SOL    HW130501   3.879   9.461   9.795 -1.4393  2.2730  0.8256
 6729SOL    HW230502   3.803   9.465   9.926  1.3380  0.1151  2.6118
 6730SOL     OW30503   3.861  11.056  10.384 -0.2477 -0.0252 -0.0177
 6730SOL    HW130504   3.932  11.032  10.325  0.0971  1.8241 -0.4351
 6730SOL    HW230505   3.824  10.973  10.413  0.0165 -0.9994 -2.2924
 6731SOL     OW30506   1.185  12.803   2.036 -0.9161 -0.5090  0.2353
 6731SOL    HW130507   1.112  12.795   2.097 -0.8873 -0.2431  0.3069
 6731SOL    HW230508   1.188  12.719   1.990 -1.9811 -0.1142 -0.5849
 6732SOL     OW30509  12.728   4.033   1.360 -0.3350 -0.4941 -0.5560
 6732SOL    HW130510  12.690   3.991   1.283  2.4445 -1.2551 -1.6644
 6732SOL    HW230511  12.782   4.104   1.325  0.1918 -0.2140  0.7575
 6733SOL     OW30512   8.977   1.992   0.905  0.0053  0.2517 -0.6480
 6733SOL    HW130513   8.982   1.905   0.945  0.1233 -0.0879 -1.3800
 6733SOL    HW230514   8.973   2.052   0.979 -0.4363 -0.3952 -0.1295
 6734SOL     OW30515   7.056  10.648   1.807  0.0978  0.7696  0.1755
 6734SOL    HW130516   7.091  10.578   1.752  1.9203  0.2408  1.8705
 6734SOL    HW230517   7.131  10.704   1.825 -1.0950  2.5848 -0.2292
 6735SOL     OW30518   1.214   1.510  10.938  0.2881 -0.2160  0.3847
 6735SOL    HW130519   1.234   1.528  10.846  3.5066 -1.0917  0.7745
 6735SOL    HW230520   1.296   1.475  10.973 -0.5636  0.9057  3.8343
 6736SOL     OW30521   9.436  12.392   7.753 -0.2047 -0.2465 -0.1590
 6736SOL    HW130522   9.347  12.359   7.752  0.1688 -1.3380  0.5267
 6736SOL    HW230523   9.456  12.405   7.846  0.2282  0.3173 -0.3248
 6737SOL     OW30524   9.218   6.795   5.082  1.0213 -0.0718 -0.1938
 6737SOL    HW130525   9.227   6.739   5.159 -0.6248  1.8205  1.4726
 6737SOL    HW230526   9.295   6.851   5.085  0.9273  0.0441  0.1305
 6738SOL     OW30527   3.575   2.323   0.584 -0.4355  0.3551 -0.8691
 6738SOL    HW130528   3.619   2.248   0.544  0.7626 -0.2043  1.3630
 6738SOL    HW230529   3.484   2.295   0.595 -0.1216 -0.5634 -0.5627
 6739SOL     OW30530  10.052   7.139   7.989 -0.2506 -0.2485 -0.0584
 6739SOL    HW130531  10.102   7.218   8.006  0.3730 -0.6228 -0.1104
 6739SOL    HW230532  10.111   7.084   7.937 -0.6402 -0.7819  0.0485
 6740SOL     OW30533   9.372   0.205   8.904 -0.1466 -0.1115 -0.3209
 6740SOL    HW130534   9.280   0.179   8.915  0.2313 -0.3816  3.4148
 6740SOL    HW230535   9.420   0.122   8.900  0.0597  0.0258 -0.6858
 6741SOL     OW30536  11.718   2.911  12.505 -0.1356 -0.1554 -0.4265
 6741SOL    HW130537  11.769   2.854  12.563 -0.4585 -0.7378 -0.7096
 6741SOL    HW230538  11.627   2.889  12.524 -0.2337 -0.9883 -1.7800
 6742SOL     OW30539   3.222   0.528  11.054  0.3678  0.6729  0.4235
 6742SOL    HW130540   3.141   0.483  11.028  1.0686 -0.7509  0.5811
 6742SOL    HW230541   3.240   0.495  11.142  0.8863  1.3110  0.5566
 6743SOL     OW30542   7.936   7.851   5.245  0.6750 -0.3046 -0.6839
 6743SOL    HW130543   7.862   7.792   5.227  0.0401 -0.0008  0.7870
 6743SOL    HW230544   7.910   7.933   5.204  0.1716 -0.2002 -0.1787
 6744SOL     OW30545  10.186   6.587   5.758  0.2970 -0.2774  0.1464
 6744SOL    HW130546  10.245   6.528   5.805  0.8876 -0.6307 -1.0143
 6744SOL    HW230547  10.220   6.674   5.777  0.6193 -0.4251  0.2591
 6745SOL     OW30548   0.322  12.191   4.080 -0.0957  0.0334  0.2504
 6745SOL    HW130549   0.274  12.202   3.998 -0.2234 -0.7952  0.2053
 6745SOL    HW230550   0.341  12.280   4.109 -0.4639  0.3409 -0.4351
 6746SOL     OW30551   3.603  12.057  12.974 -0.1813  0.5482  0.3880
 6746SOL    HW130552   3.616  12.148  13.001 -2.3931  0.8333  0.6999
 6746SOL    HW230553   3.633  12.005  13.048  0.6100  1.0400  0.4210
 6747SOL     OW30554  10.689   9.619   5.889 -0.5024  0.2845  0.3941
 6747SOL    HW130555  10.725   9.534   5.916  0.0655  0.6643  0.8716
 6747SOL    HW230556  10.767   9.673   5.874 -0.8439  0.5208 -0.5946
 6748SOL     OW30557   1.223   6.877  10.707 -0.0784 -0.1984 -0.6896
 6748SOL    HW130558   1.203   6.945  10.771  0.5111  0.4003 -1.1346
 6748SOL    HW230559   1.199   6.795  10.751  0.8376  0.1506  0.5238
 6749SOL     OW30560   2.320   5.627   8.886 -0.0890 -0.5164 -0.1434
 6749SOL    HW130561   2.322   5.532   8.877 -0.3319 -0.5457  0.1016
 6749SOL    HW230562   2.411   5.654   8.871  0.0477 -0.8201  0.1115
 6750SOL     OW30563   6.487  12.726  10.181  0.1463 -0.0661  0.1419
 6750SOL    HW130564   6.531  12.737  10.265  1.7139  0.9733 -0.7568
 6750SOL    HW230565   6.554  12.749  10.116 -1.2679 -0.0310 -1.3615
 6751SOL     OW30566   4.876   8.659   8.511 -0.0842  0.0993 -0.6701
 6751SOL    HW130567   4.891   8.703   8.595  3.5538  0.6142 -1.4170
 6751SOL    HW230568   4.878   8.730   8.446  0.3080 -0.5986 -1.4461
 6752SOL     OW30569   5.827  10.704  11.769  0.0607 -0.1017 -0.1320
 6752SOL    HW130570   5.828  10.609  11.757 -0.2890  0.0407 -1.3575
 6752SOL    HW230571   5.916  10.725  11.797 -0.0009 -0.8401  0.6980
 6753SOL     OW30572   4.594  10.762   9.020 -0.5206  0.3583 -0.2690
 6753SOL    HW130573   4.680  10.790   9.050  0.0615 -0.8531 -0.7355
 6753SOL    HW230574   4.537  10.838   9.035  0.7102  1.3316 -0.3631
 6754SOL     OW30575  11.049  10.174   6.098 -0.3720 -0.1723  0.3331
 6754SOL    HW130576  11.069  10.086   6.068 -0.5559  0.1386 -0.7441
 6754SOL    HW230577  11.110  10.231   6.050  0.6152  0.1982  1.9391
 6755SOL     OW30578   8.785   7.920   3.105 -0.3290  0.3121 -0.2501
 6755SOL    HW130579   8.791   8.015   3.120  0.0066 -0.0527  2.3370
 6755SOL    HW230580   8.700   7.908   3.063 -0.5552  1.7005 -0.2528
 6756SOL     OW30581  12.966   5.594   5.987 -0.5570  0.2681 -0.0618
 6756SOL    HW130582  13.003   5.560   6.069 -2.6244 -0.7169  0.5369
 6756SOL    HW230583  12.943   5.515   5.937  1.1076  0.8425 -1.8709
 6757SOL     OW30584   1.979   4.514  11.787  0.0541 -0.6675  0.3196
 6757SOL    HW130585   2.074   4.522  11.783 -0.0227  0.6628  0.4886
 6757SOL    HW230586   1.949   4.540  11.700 -0.2226  0.6522  0.7897
 6758SOL     OW30587   2.992  12.389   5.688 -0.2534 -0.5969 -0.4189
 6758SOL    HW130588   2.950  12.363   5.606  0.8479 -2.1985 -0.5109
 6758SOL    HW230589   2.924  12.378   5.754 -1.3974  1.4561 -1.1700
 6759SOL     OW30590  11.020   8.328   3.151  0.0391 -0.5593  0.1591
 6759SOL    HW130591  10.947   8.343   3.212  1.0934 -1.7627  1.8267
 6759SOL    HW230592  10.996   8.249   3.104  0.1015 -0.7751  0.4815
 6760SOL     OW30593   3.456   4.281  11.723 -0.0368  0.0375  0.2129
 6760SOL    HW130594   3.547   4.253  11.732 -0.0039 -0.8593 -2.3105
 6760SOL    HW230595   3.450   4.360  11.777  1.9332 -0.4913  1.2860
 6761SOL     OW30596   3.865   4.274  12.168 -0.6473 -0.6361 -0.0281
 6761SOL    HW130597   3.918   4.194  12.166 -0.2233 -0.3505 -0.3872
 6761SOL    HW230598   3.903   4.326  12.239  0.3031  0.0642 -1.0174
 6762SOL     OW30599  12.459   9.519   2.109  0.6126 -0.2915 -0.3244
 6762SOL    HW130600  12.456   9.603   2.155  0.3395 -0.3675 -0.1973
 6762SOL    HW230601  12.525   9.468   2.156  1.1552  0.0352 -0.7223
 6763SOL     OW30602   3.873   6.919   2.227  0.1066 -0.6350 -0.0570
 6763SOL    HW130603   3.906   6.993   2.177  1.3311 -1.6906 -0.8649
 6763SOL    HW230604   3.821   6.959   2.297  2.4491  1.1123  0.8195
 6764SOL     OW30605   1.400   4.262  10.175 -0.4377  0.1769  0.1393
 6764SOL    HW130606   1.339   4.334  10.192 -0.0797  0.4287  0.3675
 6764SOL    HW230607   1.404   4.256  10.080  1.4711  2.1519  0.0143
 6765SOL     OW30608   2.631   4.225   4.198 -0.5359  0.1342 -0.1103
 6765SOL    HW130609   2.582   4.175   4.132  0.1144  0.9851 -1.2664
 6765SOL    HW230610   2.716   4.182   4.203 -0.8417 -0.3828  0.7357
 6766SOL     OW30611   3.731   9.523   8.920 -0.3178 -0.6130 -0.3545
 6766SOL    HW130612   3.730   9.428   8.926  1.1962 -0.5680  1.4433
 6766SOL    HW230613   3.705   9.542   8.830 -5.1110 -2.5084  0.3600
 6767SOL     OW30614   7.601   8.384  12.303 -0.3273  0.1115  0.1385
 6767SOL    HW130615   7.648   8.463  12.328  0.6574  0.3570 -2.2249
 6767SOL    HW230616   7.665   8.331  12.255 -2.0424 -0.0949 -2.1589
 6768SOL     OW30617   5.837   4.175   1.627 -0.5004 -0.5447 -0.1988
 6768SOL    HW130618   5.794   4.191   1.543  1.4042 -0.2264 -1.1572
 6768SOL    HW230619   5.861   4.262   1.659  0.1504 -0.7589 -0.0831
 6769SOL     OW30620   1.353   8.336   6.439 -0.0645  0.1314  0.4766
 6769SOL    HW130621   1.325   8.336   6.348  1.4044 -0.1128 -0.0104
 6769SOL    HW230622   1.292   8.394   6.484 -0.6527  0.4523 -0.7145
 6770SOL     OW30623  11.790   9.405   4.685 -0.7410  0.2735  0.0316
 6770SOL    HW130624  11.828   9.453   4.612 -0.5509  1.2327  0.7338
 6770SOL    HW230625  11.749   9.328   4.646 -0.7549  0.8405 -1.0932
 6771SOL     OW30626   7.261   2.757   6.557  0.1189 -0.5257  0.3254
 6771SOL    HW130627   7.241   2.844   6.592  0.2171 -0.7082  0.8453
 6771SOL    HW230628   7.176   2.714   6.549  0.2006 -0.9380  1.5647
 6772SOL     OW30629   7.120  11.272   6.383  0.0698  0.1350  0.0092
 6772SOL    HW130630   7.182  11.233   6.321  0.4347  1.5364 -0.5490
 6772SOL    HW230631   7.038  11.224   6.369  0.6923 -0.8894 -0.1475
 6773SOL     OW30632   7.036   5.485   4.236 -0.1143  0.0476 -0.3709
 6773SOL    HW130633   7.031   5.396   4.201 -0.7705 -0.4370  0.8848
 6773SOL    HW230634   6.962   5.531   4.197 -0.1837 -0.1555 -0.4771
 6774SOL     OW30635   5.355  11.898  12.100 -0.1676  0.1548 -0.2521
 6774SOL    HW130636   5.429  11.841  12.121  0.6183  1.0922 -0.3621
 6774SOL    HW230637   5.356  11.965  12.169 -0.9721  0.1351 -0.2088
 6775SOL     OW30638   5.014   8.190   9.211  0.3807  0.1044  0.0573
 6775SOL    HW130639   4.967   8.246   9.148 -0.5361 -0.4214  0.2640
 6775SOL    HW230640   4.947   8.164   9.274  0.6375 -1.7508 -0.3870
 6776SOL     OW30641   8.513   9.374   7.909  0.2795  0.0942  0.1596
 6776SOL    HW130642   8.598   9.413   7.889  0.0821  0.1936 -0.4965
 6776SOL    HW230643   8.512   9.368   8.005  0.9182  0.3243  0.1895
 6777SOL     OW30644   5.823  11.921   8.646 -0.4666 -0.3229  0.0395
 6777SOL    HW130645   5.787  11.884   8.726 -0.2782 -0.3214  0.1248
 6777SOL    HW230646   5.792  12.012   8.645 -1.2788 -0.5977 -0.3819
 6778SOL     OW30647   5.218   2.684  11.460 -0.0234  0.4610 -0.8868
 6778SOL    HW130648   5.282   2.726  11.517 -0.4391 -1.2360  0.9298
 6778SOL    HW230649   5.264   2.608  11.424 -1.2117 -1.4607  1.3484
 6779SOL     OW30650   9.216  10.820  10.466  0.0563 -0.1201  0.0877
 6779SOL    HW130651   9.220  10.911  10.494 -0.8569  0.1358 -0.5777
 6779SOL    HW230652   9.289  10.811  10.404  2.1710 -0.7210  2.4802
 6780SOL     OW30653   2.355   5.024   4.501 -0.1194  0.0149  0.6322
 6780SOL    HW130654   2.352   4.933   4.529  0.4262 -0.7695 -1.6298
 6780SOL    HW230655   2.444   5.053   4.522  1.0424 -1.2551 -2.0439
 6781SOL     OW30656   6.896   9.371   4.895 -0.1404  0.3266 -0.1769
 6781SOL    HW130657   6.942   9.302   4.847  1.7664  0.5673  1.1868
 6781SOL    HW230658   6.808   9.335   4.909  1.3370 -2.8337  2.2693
 6782SOL     OW30659   5.796  12.872   1.685 -0.0008  0.0206  0.3703
 6782SOL    HW130660   5.821  12.817   1.759  0.3815 -0.9507 -0.4645
 6782SOL    HW230661   5.706  12.899   1.705  0.1806 -0.0173  1.2995
 6783SOL     OW30662  11.616   8.326   8.052 -0.2388 -0.6082  0.0733
 6783SOL    HW130663  11.691   8.269   8.035  1.2497  1.2887  0.0095
 6783SOL    HW230664  11.595   8.312   8.144  1.2656  0.0165  0.5428
 6784SOL     OW30665   9.237   0.422   6.542 -0.0649 -0.3003 -0.6565
 6784SOL    HW130666   9.237   0.485   6.614  1.4736 -0.6567 -0.3049
 6784SOL    HW230667   9.204   0.341   6.581  0.8397 -0.5131 -0.3228
 6785SOL     OW30668   5.966   5.849   8.072  0.0334  0.5539  0.1995
 6785SOL    HW130669   6.021   5.869   7.997  1.5411 -0.2640  1.0157
 6785SOL    HW230670   5.894   5.797   8.037  0.9669 -0.2182 -0.6387
 6786SOL     OW30671   5.979   1.842   1.050 -0.1496 -0.7944  0.6489
 6786SOL    HW130672   6.010   1.859   0.961 -1.2485  3.0649  0.8541
 6786SOL    HW230673   6.058   1.825   1.100  0.5684 -2.0225 -0.8141
 6787SOL     OW30674   4.708  10.074   3.566 -0.8947  0.2721 -1.0397
 6787SOL    HW130675   4.765  10.130   3.618 -2.5532  0.6474  0.4711
 6787SOL    HW230676   4.767  10.030   3.504  0.7658  1.8472 -0.6516
 6788SOL     OW30677   6.913   4.790   8.428  0.2418  0.2237  0.5920
 6788SOL    HW130678   6.818   4.779   8.417  0.2862  0.5883 -0.2701
 6788SOL    HW230679   6.926   4.885   8.419  0.9149 -0.0169 -1.3413
 6789SOL     OW30680   2.319   4.148   4.239 -0.1779  0.2749  0.3682
 6789SOL    HW130681   2.332   4.243   4.240  1.8401  0.0255  0.4415
 6789SOL    HW230682   2.373   4.117   4.167 -0.1643 -0.9105  0.8719
 6790SOL     OW30683   1.078   5.829   2.794 -0.3818  0.1026 -0.0630
 6790SOL    HW130684   1.095   5.738   2.817  3.5354  0.3585 -1.1121
 6790SOL    HW230685   1.089   5.877   2.876 -0.7063 -0.2193  0.1701
 6791SOL     OW30686   5.505  12.394   8.806  0.8962 -0.2745 -0.2073
 6791SOL    HW130687   5.444  12.327   8.775 -0.6536  0.6228  0.7700
 6791SOL    HW230688   5.515  12.375   8.900 -0.6099  1.5489  0.3947
 6792SOL     OW30689   8.927   0.590   1.755  0.2104 -0.1137 -0.4268
 6792SOL    HW130690   8.898   0.672   1.795 -0.8089  0.2618 -1.8546
 6792SOL    HW230691   8.939   0.611   1.663  1.8709 -1.1079 -0.4955
 6793SOL     OW30692   3.241   1.533   6.059  0.0330  0.2589  0.5019
 6793SOL    HW130693   3.285   1.506   6.139 -2.0589  0.5582  1.8223
 6793SOL    HW230694   3.217   1.451   6.016  1.3491  0.0965  0.0303
 6794SOL     OW30695   7.270   2.873   9.606  0.5279  0.3422  0.1184
 6794SOL    HW130696   7.297   2.818   9.532  1.1296  1.9075 -0.8596
 6794SOL    HW230697   7.252   2.958   9.568  0.5690  1.1205  1.7518
 6795SOL     OW30698  10.099   1.455   4.638  0.1387  0.4825  0.0337
 6795SOL    HW130699  10.055   1.403   4.705 -0.0289  0.8495  0.2076
 6795SOL    HW230700  10.089   1.403   4.558 -1.8787  1.2170 -0.2443
 6796SOL     OW30701   3.722   8.310   4.059 -0.2830  0.3053  0.4083
 6796SOL    HW130702   3.809   8.281   4.085 -0.0900  0.6814  0.1943
 6796SOL    HW230703   3.665   8.234   4.073  0.3567 -0.4328 -0.9161
 6797SOL     OW30704  10.947   1.478   1.896  0.0153 -0.0118 -0.0576
 6797SOL    HW130705  10.866   1.528   1.886 -1.1100 -1.9384 -1.2681
 6797SOL    HW230706  11.014   1.535   1.860 -0.8839  1.4120  0.4408
 6798SOL     OW30707   7.725   7.604   4.868 -0.0678 -0.5697 -0.2863
 6798SOL    HW130708   7.729   7.698   4.884  0.3805 -0.4590 -0.9918
 6798SOL    HW230709   7.809   7.583   4.827 -0.2576 -1.2299 -0.3505
 6799SOL     OW30710  11.781   7.199   8.216  0.2786  0.0697 -0.1627
 6799SOL    HW130711  11.869   7.227   8.240  1.0680 -1.5166 -0.9933
 6799SOL    HW230712  11.792   7.157   8.130 -1.8823  2.8551 -1.9704
 6800SOL     OW30713   3.572   5.902  12.119  0.5105 -0.1383 -0.3903
 6800SOL    HW130714   3.554   5.937  12.032 -1.5711  0.7726  0.3412
 6800SOL    HW230715   3.647   5.953  12.150  0.4758  0.3920 -1.1571
 6801SOL     OW30716  10.877   0.798  12.172  0.2994 -0.0483 -0.4322
 6801SOL    HW130717  10.849   0.864  12.235  0.6380 -0.3499  0.0457
 6801SOL    HW230718  10.880   0.844  12.088  1.0331  0.6814 -0.0193
 6802SOL     OW30719   7.993   5.617   1.987 -0.3017  0.0788  0.0411
 6802SOL    HW130720   8.027   5.706   1.982 -0.6899  0.2818  0.9046
 6802SOL    HW230721   8.035   5.571   1.914 -0.0119  0.9349 -0.3403
 6803SOL     OW30722   7.654   8.031   3.799  0.0503  0.0285 -0.3587
 6803SOL    HW130723   7.608   8.006   3.720 -0.3193  0.2697 -0.2211
 6803SOL    HW230724   7.719   7.961   3.812  1.4358  0.9505 -1.9334
 6804SOL     OW30725  10.273  11.971   2.904 -0.1242 -0.5093  0.7237
 6804SOL    HW130726  10.340  11.916   2.864 -1.8681 -1.4833 -1.0246
 6804SOL    HW230727  10.257  12.040   2.840 -0.6047 -0.1189  1.2533
 6805SOL     OW30728   9.806   1.520   8.960  0.2147  0.2881 -0.0095
 6805SOL    HW130729   9.727   1.548   9.006  0.1992  1.0030 -0.4675
 6805SOL    HW230730   9.850   1.461   9.022 -1.6919 -1.7830 -0.5081
 6806SOL     OW30731   0.796   4.320   9.853 -0.3085  0.4536  0.0790
 6806SOL    HW130732   0.765   4.351   9.938  0.8579 -0.1659  0.7541
 6806SOL    HW230733   0.746   4.239   9.838  0.1298  0.0773  0.6112
 6807SOL     OW30734   4.540   7.372   2.778 -0.5072 -0.3249 -0.0615
 6807SOL    HW130735   4.495   7.387   2.861 -0.4826  0.3708 -0.1651
 6807SOL    HW230736   4.550   7.277   2.772  1.1161 -0.2960  1.6036
 6808SOL     OW30737   4.039   8.247   9.227 -0.6524  0.0658 -0.2403
 6808SOL    HW130738   4.005   8.162   9.201 -0.1174 -0.2742  0.1535
 6808SOL    HW230739   3.986   8.310   9.179 -1.4622 -0.4692 -0.0642
 6809SOL     OW30740  12.881   7.438   9.158  0.0955 -0.5000  0.4681
 6809SOL    HW130741  12.887   7.354   9.202 -0.3600 -0.4169  0.7065
 6809SOL    HW230742  12.798   7.475   9.189 -0.5889 -0.7403 -0.9960
 6810SOL     OW30743  11.050  10.246  11.227  0.3665 -0.0044  0.4206
 6810SOL    HW130744  11.005  10.330  11.234  0.6970  0.0460  3.0806
 6810SOL    HW230745  11.143  10.268  11.222  0.4785 -0.1769  1.4816
 6811SOL     OW30746   4.075   1.168   5.936  0.6501  0.0568  0.2601
 6811SOL    HW130747   4.000   1.123   5.975  0.1319 -0.0510 -0.8376
 6811SOL    HW230748   4.105   1.110   5.867  1.7308  0.1267  0.6494
 6812SOL     OW30749  12.950  12.093   2.960  0.1696  0.2140  0.8235
 6812SOL    HW130750  13.010  12.030   2.999  1.0436  1.4017  1.4261
 6812SOL    HW230751  12.995  12.177   2.966 -1.0133  0.9260  0.1162
 6813SOL     OW30752   2.531   1.346  11.796  0.4908  0.4537 -0.1889
 6813SOL    HW130753   2.599   1.405  11.829  1.3221 -0.6232  0.0858
 6813SOL    HW230754   2.553   1.261  11.834 -2.6352  0.5610  2.2020
 6814SOL     OW30755   0.894   4.239   3.012  0.0572  0.4356 -0.0628
 6814SOL    HW130756   0.881   4.326   2.974 -5.7021  0.2131  0.6039
 6814SOL    HW230757   0.939   4.255   3.094 -0.0501  2.6638 -0.3750
 6815SOL     OW30758  12.960  11.280  10.163 -0.0957  1.0798  0.2339
 6815SOL    HW130759  12.991  11.339  10.232 -2.4223  0.3044  2.0818
 6815SOL    HW230760  12.937  11.199  10.210  0.9838 -0.5789 -1.9126
 6816SOL     OW30761  12.865   7.930  12.562 -0.6129 -0.7636  0.2047
 6816SOL    HW130762  12.958   7.908  12.556 -0.4381  0.0638 -0.4346
 6816SOL    HW230763  12.856   7.976  12.646 -0.4355 -0.8278  0.2581
 6817SOL     OW30764   5.742   5.567   3.440 -0.2260 -0.4186  0.3733
 6817SOL    HW130765   5.768   5.539   3.527 -1.0553 -0.3071  0.6674
 6817SOL    HW230766   5.824   5.587   3.395  0.3072 -2.1377  0.5410
 6818SOL     OW30767   2.324   3.852   0.977  0.7084  0.2372  0.3325
 6818SOL    HW130768   2.324   3.877   1.070  0.7319 -0.8930  0.6560
 6818SOL    HW230769   2.237   3.815   0.963  0.8498  0.0309  0.0098
 6819SOL     OW30770   6.371   5.436  12.516 -0.0846 -0.1531 -0.3782
 6819SOL    HW130771   6.295   5.429  12.574  0.2757 -0.6836  0.0493
 6819SOL    HW230772   6.341   5.397  12.433  0.1628 -1.8172  0.2611
 6820SOL     OW30773  10.118   2.784   1.270  0.2021 -0.3973  0.4843
 6820SOL    HW130774  10.056   2.711   1.259 -2.8000  2.1983 -1.2460
 6820SOL    HW230775  10.102   2.816   1.359  0.1722 -0.6530  0.5721
 6821SOL     OW30776   0.406   2.735   0.917  0.3076 -0.1786  0.0254
 6821SOL    HW130777   0.336   2.727   0.981  0.6671  1.9308  0.7558
 6821SOL    HW230778   0.486   2.744   0.969  0.8803 -0.5755 -0.7556
 6822SOL     OW30779   9.847   2.580  11.937 -0.2920  0.4113 -0.5707
 6822SOL    HW130780   9.762   2.610  11.970 -0.1640  0.6437 -0.4488
 6822SOL    HW230781   9.879   2.521  12.005  0.6985  2.1236  0.5064
 6823SOL     OW30782   8.517  11.475   0.512 -0.6726 -0.0319 -0.0863
 6823SOL    HW130783   8.594  11.530   0.526  1.5413 -2.8687 -0.1204
 6823SOL    HW230784   8.445  11.522   0.554  1.0640  2.6920  0.0601
 6824SOL     OW30785   3.173   8.038   1.771 -0.4675 -0.6069  0.0197
 6824SOL    HW130786   3.263   8.045   1.803 -0.7592  1.7389  0.5620
 6824SOL    HW230787   3.180   8.043   1.676  0.0811 -2.8773 -0.1203
 6825SOL     OW30788   4.306   8.423   5.553  0.0576 -0.2503  0.2168
 6825SOL    HW130789   4.284   8.493   5.492 -1.4005 -0.9653 -0.1212
 6825SOL    HW230790   4.241   8.429   5.622 -1.5982 -2.6614 -0.9934
 6826SOL     OW30791  10.035   1.225  12.913  0.4768 -0.7580  0.0349
 6826SOL    HW130792  10.078   1.258  12.992  2.5828  0.6232 -1.5683
 6826SOL    HW230793  10.067   1.136  12.903 -1.1724 -1.5938  1.5976
 6827SOL     OW30794   7.958   5.099   3.966  0.6587  0.8551  0.2321
 6827SOL    HW130795   7.891   5.155   4.003 -0.1824 -0.6787  1.1569
 6827SOL    HW230796   8.040   5.134   4.000  0.0170  0.3595  2.4716
 6828SOL     OW30797   1.198   4.877   3.359  0.5724 -0.4541  0.6286
 6828SOL    HW130798   1.148   4.851   3.436 -0.1912  0.0130  0.3009
 6828SOL    HW230799   1.255   4.948   3.390  0.1945 -0.1993  0.7393
 6829SOL     OW30800   8.694  11.379  12.557  0.1240 -0.0659 -0.2771
 6829SOL    HW130801   8.783  11.412  12.567  0.0269  0.0213  0.3007
 6829SOL    HW230802   8.639  11.443  12.604 -0.3219  0.2845 -1.2351
 6830SOL     OW30803  10.903   7.911   7.858 -0.3343 -0.7741 -0.1099
 6830SOL    HW130804  10.852   7.972   7.806 -1.2790 -1.2613  0.2257
 6830SOL    HW230805  10.875   7.926   7.949 -0.6059 -1.7140 -0.0264
 6831SOL     OW30806   3.858   1.166   8.194  0.2264  0.1393  0.1049
 6831SOL    HW130807   3.952   1.169   8.180  0.1143  0.3412 -0.6276
 6831SOL    HW230808   3.834   1.254   8.223  0.4030 -0.1803  1.2741
 6832SOL     OW30809  10.624  12.666   6.360 -0.4451 -0.0203  0.5880
 6832SOL    HW130810  10.548  12.650   6.304  0.4871 -1.3913 -0.3432
 6832SOL    HW230811  10.653  12.754   6.337 -0.1804 -0.5032 -0.9768
 6833SOL     OW30812   6.019   0.002   4.027  0.0971  0.2848  0.0859
 6833SOL    HW130813   6.032   0.079   4.083 -1.2811  0.5441  0.0858
 6833SOL    HW230814   5.951   0.029   3.966  0.1679 -0.6859 -0.4335
 6834SOL     OW30815  12.670   3.351   5.166 -0.2149  0.0419 -0.2828
 6834SOL    HW130816  12.580   3.317   5.172 -0.3514  0.6088  1.1771
 6834SOL    HW230817  12.673   3.422   5.230  1.1188  0.4133 -0.7322
 6835SOL     OW30818  11.219   8.523   8.126  0.0920 -0.2932  0.3546
 6835SOL    HW130819  11.232   8.434   8.161 -0.2738 -0.1816  0.7919
 6835SOL    HW230820  11.217   8.579   8.204  1.2618  0.2263  0.0302
 6836SOL     OW30821   3.911   4.113   5.603 -0.0704  0.2579  0.2770
 6836SOL    HW130822   3.840   4.093   5.665  0.2750 -1.2691  0.2085
 6836SOL    HW230823   3.929   4.030   5.559  1.4867  0.7120 -0.0031
 6837SOL     OW30824   8.714   9.287   8.869 -0.0151  0.0263  0.1733
 6837SOL    HW130825   8.681   9.321   8.952 -0.0244 -1.4636  0.8154
 6837SOL    HW230826   8.646   9.309   8.805  1.0000  3.2179  0.0277
 6838SOL     OW30827   2.694   2.590   5.937 -0.0818  0.3599 -0.2559
 6838SOL    HW130828   2.740   2.609   6.019 -1.0293 -0.8574  0.5838
 6838SOL    HW230829   2.632   2.662   5.927 -0.3679  0.2098  0.4059
 6839SOL     OW30830  11.753   9.983   3.050  0.2241  0.0037 -0.0061
 6839SOL    HW130831  11.660  10.006   3.049  0.4083  1.0131 -2.6079
 6839SOL    HW230832  11.759   9.901   3.001  0.6855 -0.2180  0.4088
 6840SOL     OW30833   7.278   7.849   1.850  0.0543 -0.2154 -0.4308
 6840SOL    HW130834   7.195   7.871   1.807  0.6576  1.6917 -0.7123
 6840SOL    HW230835   7.292   7.920   1.912  3.0559  1.3884 -2.6795
 6841SOL     OW30836  10.260  12.866   7.230 -0.0561 -0.3930  0.3707
 6841SOL    HW130837  10.282  12.817   7.150 -0.3934 -0.0677  0.0714
 6841SOL    HW230838  10.168  12.844   7.246 -0.6058  1.1186 -0.4993
 6842SOL     OW30839  12.734   9.640   2.284  0.5100  0.0692  0.1728
 6842SOL    HW130840  12.643   9.630   2.312  0.3431  1.5972  0.2203
 6842SOL    HW230841  12.735   9.606   2.194 -0.3211  0.9192 -0.1710
 6843SOL     OW30842   9.585  11.421  12.323  0.0428  0.1267  0.1579
 6843SOL    HW130843   9.672  11.411  12.360 -0.5162 -1.8365  1.0491
 6843SOL    HW230844   9.526  11.410  12.398 -0.9993 -0.0384 -0.6714
 6844SOL     OW30845   3.844   0.520   2.226  0.0593 -0.0501  0.0598
 6844SOL    HW130846   3.792   0.449   2.263 -0.2213 -0.7988 -1.6539
 6844SOL    HW230847   3.798   0.544   2.145  0.4364  1.7545  0.3360
 6845SOL     OW30848  10.917   1.583   2.828 -0.0367  0.6810 -0.4620
 6845SOL    HW130849  10.996   1.617   2.869  0.1675  2.3812 -2.1196
 6845SOL    HW230850  10.895   1.647   2.761 -2.0621 -0.4418 -0.9669
 6846SOL     OW30851   5.205   4.069   6.005  0.3054  0.1086 -0.3033
 6846SOL    HW130852   5.161   3.985   5.994  1.2017 -0.4232  0.1120
 6846SOL    HW230853   5.276   4.052   6.066  0.9357  1.0068 -0.7553
 6847SOL     OW30854   1.183   9.056   6.044 -0.7339 -0.1369  0.4763
 6847SOL    HW130855   1.099   9.034   6.002 -1.1439  1.9277  0.1050
 6847SOL    HW230856   1.228   9.112   5.980  0.8629 -1.0402  0.7641
 6848SOL     OW30857  10.193   8.915   7.018  0.4675  0.2372 -0.4486
 6848SOL    HW130858  10.142   8.913   7.099  1.0113  0.7759 -0.0871
 6848SOL    HW230859  10.127   8.922   6.949  0.0284  0.4471 -0.0183
 6849SOL     OW30860   7.266   7.390   1.384  0.0482 -0.2375 -0.3014
 6849SOL    HW130861   7.187   7.430   1.420 -0.1601  0.8551 -1.8928
 6849SOL    HW230862   7.242   7.364   1.296  1.0442 -1.2761 -0.2924
 6850SOL     OW30863   7.351   3.579   6.769 -0.0370  0.7966 -0.0390
 6850SOL    HW130864   7.375   3.640   6.699 -1.8847  1.4405 -0.1454
 6850SOL    HW230865   7.288   3.626   6.823 -1.1658 -0.8393  0.1455
 6851SOL     OW30866   7.143   0.489   3.227  0.4012 -0.0358 -0.3324
 6851SOL    HW130867   7.126   0.575   3.187  1.9723 -0.2882 -1.7020
 6851SOL    HW230868   7.239   0.483   3.228  0.5575  0.1589  4.1473
 6852SOL     OW30869  10.100  12.006   3.120 -0.0646 -0.5500 -0.0547
 6852SOL    HW130870  10.062  11.923   3.148  0.8013 -0.9613 -0.0904
 6852SOL    HW230871  10.160  11.983   3.050  1.2426 -0.0697  0.8723
 6853SOL     OW30872   3.423   4.817   1.456  0.0312 -0.9205  0.3537
 6853SOL    HW130873   3.442   4.739   1.509 -1.2644 -1.3891  0.1827
 6853SOL    HW230874   3.509   4.852   1.433  0.6506 -0.9018  2.4595
 6854SOL     OW30875   8.855   7.910   6.217  0.3527 -0.0182  0.4370
 6854SOL    HW130876   8.761   7.928   6.217  0.2527 -0.4746 -0.9544
 6854SOL    HW230877   8.896   7.997   6.224 -0.1681  0.3177 -0.5476
 6855SOL     OW30878   4.352  11.904   1.700  0.2615  0.4288  0.0051
 6855SOL    HW130879   4.399  11.987   1.704  0.5377  0.2724  0.0808
 6855SOL    HW230880   4.407  11.849   1.643 -0.5106  0.6709 -0.9970
 6856SOL     OW30881  12.200   2.178  10.498 -0.1434  0.0239 -0.0561
 6856SOL    HW130882  12.188   2.120  10.423 -0.6075 -0.0911  0.1002
 6856SOL    HW230883  12.120   2.231  10.499 -1.0332 -1.2602  1.4689
 6857SOL     OW30884   8.278  12.809  10.039 -0.4645 -0.4011  0.2851
 6857SOL    HW130885   8.346  12.748  10.067 -0.8805 -1.3487 -0.6872
 6857SOL    HW230886   8.318  12.896  10.050  1.2017 -0.9494 -0.9889
 6858SOL     OW30887   5.721   6.058   6.043 -0.3333  0.3573  0.3662
 6858SOL    HW130888   5.637   6.033   6.003  0.5275 -1.3395 -0.4715
 6858SOL    HW230889   5.753   6.129   5.988 -0.3581 -0.2609 -0.4750
 6859SOL     OW30890  12.687   5.673   0.250  0.6326 -0.0939 -0.1200
 6859SOL    HW130891  12.769   5.722   0.237 -0.0208  1.2998  0.7994
 6859SOL    HW230892  12.636   5.727   0.310 -0.0263 -2.0682  1.1818
 6860SOL     OW30893   3.758   6.662   7.980 -0.2453 -0.0218  0.0349
 6860SOL    HW130894   3.789   6.642   7.891  3.0362 -1.3062  1.3177
 6860SOL    HW230895   3.799   6.745   8.001 -0.8884  0.2000  0.4547
 6861SOL     OW30896   2.229   3.113   7.832  0.0592 -0.5308  0.2172
 6861SOL    HW130897   2.308   3.162   7.855 -0.2182 -0.2379  0.5650
 6861SOL    HW230898   2.159   3.178   7.838 -0.2444 -0.8532  0.1771
 6862SOL     OW30899   1.209   3.932   0.386  0.2533 -0.4124  0.6962
 6862SOL    HW130900   1.117   3.909   0.374  0.0710  0.8362 -0.6790
 6862SOL    HW230901   1.238   3.960   0.299  1.6335  0.2497  1.3327
 6863SOL     OW30902   4.233   9.745   2.942 -0.0902  0.0716  0.6213
 6863SOL    HW130903   4.172   9.729   2.870 -1.6888  1.6234  1.5604
 6863SOL    HW230904   4.178   9.772   3.015  1.6250  0.1459  1.9476
 6864SOL     OW30905   4.333   3.919   3.399  0.6347 -0.1133  0.4914
 6864SOL    HW130906   4.327   4.009   3.430  1.2890 -0.2980  1.1884
 6864SOL    HW230907   4.314   3.924   3.305  1.9909  0.9381  0.2525
 6865SOL     OW30908  11.387   0.420  12.732  0.9271 -0.3861 -0.1073
 6865SOL    HW130909  11.348   0.467  12.658  1.0803  0.2477  0.2069
 6865SOL    HW230910  11.420   0.338  12.694  1.6943  0.2707 -0.8975
 6866SOL     OW30911   9.057  10.701   0.861 -0.8503  0.7228  0.4899
 6866SOL    HW130912   9.016  10.645   0.927  1.3403 -0.3183  1.0506
 6866SOL    HW230913   9.022  10.670   0.777 -1.4079  0.0744  0.9590
 6867SOL     OW30914   9.129   0.517  10.394  0.0261 -0.1199 -0.0931
 6867SOL    HW130915   9.122   0.422  10.383 -1.4852 -0.3937  2.3266
 6867SOL    HW230916   9.039   0.548  10.394  0.5274  1.4886 -1.6506
 6868SOL     OW30917  11.342   3.855   6.508  0.0609  0.2977 -0.0373
 6868SOL    HW130918  11.350   3.805   6.589 -1.5631  0.3634  0.1937
 6868SOL    HW230919  11.349   3.789   6.439 -2.3118 -0.3695  0.2706
 6869SOL     OW30920  11.088   4.016  10.095  0.3219  0.4304  0.8691
 6869SOL    HW130921  11.049   3.931  10.115 -2.6385  0.6641 -2.8240
 6869SOL    HW230922  11.153   3.997  10.027 -0.8903  1.0542 -0.5374
 6870SOL     OW30923   7.594   3.014   6.551 -0.0401  0.2029 -0.1617
 6870SOL    HW130924   7.596   2.944   6.616 -0.5786  0.3442  0.0054
 6870SOL    HW230925   7.595   3.095   6.602 -0.0786  0.3167 -0.3406
 6871SOL     OW30926  12.446   5.473   9.508 -0.8441  0.3769 -0.0010
 6871SOL    HW130927  12.384   5.497   9.439 -1.1968  0.1034  0.2185
 6871SOL    HW230928  12.531   5.469   9.464 -0.7745  1.9596 -0.0683
 6872SOL     OW30929  12.767   9.872   4.658  0.0865  0.1099  0.0979
 6872SOL    HW130930  12.760   9.888   4.564  0.4254  0.0860  0.0669
 6872SOL    HW230931  12.733   9.784   4.671  0.2391  0.0319 -0.0323
 6873SOL     OW30932   9.852  10.627   4.599 -0.4293 -0.0964  0.2372
 6873SOL    HW130933   9.908  10.575   4.656 -1.6728 -0.7218  0.9131
 6873SOL    HW230934   9.801  10.563   4.549 -0.4123  0.4659 -0.5302
 6874SOL     OW30935   2.850   5.970   3.585 -0.0336  0.3956 -0.2407
 6874SOL    HW130936   2.802   6.001   3.509  2.0794  2.1849 -0.9676
 6874SOL    HW230937   2.892   5.889   3.556 -0.9172 -0.0747 -0.2485
 6875SOL     OW30938   0.919   1.125  12.312 -0.5150 -0.4088 -0.1814
 6875SOL    HW130939   0.870   1.206  12.296 -0.7450 -0.3796  0.6087
 6875SOL    HW230940   0.890   1.065  12.243 -0.2888  0.2036 -0.8154
 6876SOL     OW30941   1.878   7.846  12.656 -0.6403 -0.5012 -0.5740
 6876SOL    HW130942   1.868   7.883  12.744 -2.5985 -1.6061 -0.2733
 6876SOL    HW230943   1.973   7.833  12.646  0.0411  3.0745 -0.1318
 6877SOL     OW30944   5.324   5.045   5.728 -0.5537 -0.2660 -0.1189
 6877SOL    HW130945   5.322   5.126   5.677 -0.6212 -0.7439 -0.8828
 6877SOL    HW230946   5.415   5.037   5.757 -0.9184  1.0638  1.5909
 6878SOL     OW30947   0.407   5.593   7.025 -0.2758 -0.5697  0.1941
 6878SOL    HW130948   0.369   5.587   6.938  0.2546  0.1712 -0.1008
 6878SOL    HW230949   0.399   5.686   7.049  3.4225  0.2029 -0.8881
 6879SOL     OW30950   6.413   4.924   1.892 -0.5211  0.7486  0.1212
 6879SOL    HW130951   6.446   4.960   1.974 -0.0654 -0.0091  0.2822
 6879SOL    HW230952   6.435   4.990   1.826  0.5411  0.6576  0.3664
 6880SOL     OW30953   1.276   1.262   5.223 -0.2482 -0.2989  0.1863
 6880SOL    HW130954   1.227   1.248   5.304  0.2160 -1.4423  0.2959
 6880SOL    HW230955   1.260   1.354   5.200  1.1919  0.6732  2.6584
 6881SOL     OW30956   1.623  10.138  11.506  0.2080 -0.1127 -0.0369
 6881SOL    HW130957   1.590  10.105  11.422  0.1258  0.5627 -0.2767
 6881SOL    HW230958   1.651  10.059  11.553  1.2092 -0.4326 -1.1121
 6882SOL     OW30959   1.461  12.021   8.943  0.4785 -0.0364 -0.2562
 6882SOL    HW130960   1.518  12.001   9.018 -0.0262 -1.2749 -0.1802
 6882SOL    HW230961   1.375  12.035   8.981 -0.1850 -2.4260 -0.6833
 6883SOL     OW30962   2.096   6.873  12.718 -0.1293  0.3975  0.1388
 6883SOL    HW130963   2.132   6.838  12.637  1.4215 -2.8676  2.0441
 6883SOL    HW230964   2.021   6.818  12.738 -0.4132  1.0619  1.0045
 6884SOL     OW30965  12.093  12.212   9.906  0.0134  0.7285 -0.1881
 6884SOL    HW130966  12.051  12.135   9.869 -0.7484 -0.7751  3.4426
 6884SOL    HW230967  12.184  12.187   9.920 -0.0050  0.8316  0.1278
 6885SOL     OW30968   7.439  12.916   1.198 -0.2639  0.3257 -0.4965
 6885SOL    HW130969   7.384  12.849   1.238  1.9386 -0.6585  1.0716
 6885SOL    HW230970   7.436  12.896   1.104 -0.4390 -1.3797 -0.1598
 6886SOL     OW30971  12.983   3.441   6.518 -0.4621 -0.3602 -0.1970
 6886SOL    HW130972  12.906   3.444   6.461 -0.8087  0.8071  0.3061
 6886SOL    HW230973  12.947   3.424   6.605 -0.1198 -0.1717 -0.0194
 6887SOL     OW30974  11.929   4.197   5.207  0.2075  0.0716 -0.2668
 6887SOL    HW130975  11.866   4.133   5.173 -0.5025  1.8606 -2.5628
 6887SOL    HW230976  11.875   4.260   5.255  0.3215  1.0385 -1.3541
 6888SOL     OW30977   5.344   9.880   9.391 -0.1656  0.0847  0.2067
 6888SOL    HW130978   5.249   9.891   9.379  0.2112  2.1183 -1.4117
 6888SOL    HW230979   5.371   9.956   9.442  0.7225  0.0450 -0.1892
 6889SOL     OW30980  11.770   1.963   0.244  0.0735 -0.0640 -0.1790
 6889SOL    HW130981  11.709   2.010   0.300 -0.3207 -0.1429 -0.5409
 6889SOL    HW230982  11.827   1.916   0.305 -0.4411 -0.2670  0.1542
 6890SOL     OW30983   2.934   5.668   6.878 -0.3474 -0.1491 -0.1413
 6890SOL    HW130984   3.005   5.665   6.941 -2.2543  1.3913  2.2642
 6890SOL    HW230985   2.914   5.576   6.859  0.9005 -0.6286  0.7312
 6891SOL     OW30986   2.126   4.959   1.634 -0.5290  0.7099 -0.0363
 6891SOL    HW130987   2.049   4.977   1.688  0.5067  0.6960  1.5060
 6891SOL    HW230988   2.170   5.043   1.626 -0.6452  0.6988 -0.8267
 6892SOL     OW30989   2.768   1.356   5.595 -0.0225  0.0752 -0.2973
 6892SOL    HW130990   2.753   1.431   5.651 -0.6112  0.3317 -0.7902
 6892SOL    HW230991   2.843   1.380   5.541  0.8842 -0.3778  0.7151
 6893SOL     OW30992   3.335   0.947   6.614  0.4667  0.1955 -0.4496
 6893SOL    HW130993   3.360   0.941   6.706 -0.8396  0.2934 -0.0635
 6893SOL    HW230994   3.256   1.000   6.614  0.7632  0.6747 -1.7005
 6894SOL     OW30995   8.748   7.860   4.205  0.1604  1.1781  0.7555
 6894SOL    HW130996   8.672   7.909   4.235  0.5209  1.5352  1.1104
 6894SOL    HW230997   8.822   7.920   4.220  0.3550  1.3924 -0.8711
 6895SOL     OW30998   7.975  10.914   4.204  0.1978  0.0354 -0.1411
 6895SOL    HW130999   7.939  10.904   4.116  1.0285  1.9045 -0.7541
 6895SOL    HW231000   8.036  10.841   4.213  0.5813  0.1691 -1.3857
 6896SOL     OW31001  12.649  10.379   9.773 -0.0022  0.1283 -0.4584
 6896SOL    HW131002  12.741  10.356   9.758  0.5602  0.5070  1.8797
 6896SOL    HW231003  12.609  10.377   9.687  2.8353  2.7450 -2.0619
 6897SOL     OW31004   7.904  12.400   8.790  0.3820 -0.0562 -0.7360
 6897SOL    HW131005   7.996  12.395   8.765  0.3915  1.7898 -1.2552
 6897SOL    HW231006   7.905  12.438   8.878  0.1139  0.8772 -1.1228
 6898SOL     OW31007   9.317   6.880   9.325  0.3319  1.0229  0.5968
 6898SOL    HW131008   9.411   6.864   9.317  0.4050  2.3048 -2.3277
 6898SOL    HW231009   9.286   6.811   9.383  2.5551 -1.6146 -1.1116
 6899SOL     OW31010   2.910  10.030   4.150 -0.3193  0.2418 -0.1210
 6899SOL    HW131011   2.829  10.003   4.107  0.0833 -0.3932 -0.5033
 6899SOL    HW231012   2.972  10.044   4.078  0.1121  0.0111  0.1997
 6900SOL     OW31013  11.443  10.477   3.427  0.5409  0.0674  0.4970
 6900SOL    HW131014  11.450  10.565   3.391  2.9288  0.1745  1.0018
 6900SOL    HW231015  11.379  10.484   3.497 -0.2501  1.0684 -0.2895
 6901SOL     OW31016   3.196   3.750   8.358  0.2208  0.0974  0.2360
 6901SOL    HW131017   3.170   3.750   8.450  0.2583 -0.5009  0.2521
 6901SOL    HW231018   3.286   3.781   8.359  1.2435 -2.6082  0.7339
 6902SOL     OW31019  10.138   1.411  12.031  0.3024 -0.0071  0.3946
 6902SOL    HW131020  10.154   1.453  11.946 -1.2509  1.3655  0.7226
 6902SOL    HW231021  10.203   1.341  12.036  2.7691  2.0518 -0.4219
 6903SOL     OW31022   4.467  12.832  10.900  0.7682 -0.5550  0.0665
 6903SOL    HW131023   4.383  12.868  10.871  1.0831  0.0844 -0.0545
 6903SOL    HW231024   4.505  12.900  10.956  1.9420 -0.1467 -1.1820
 6904SOL     OW31025   5.568   0.423   8.244  0.1692 -0.5460 -0.3259
 6904SOL    HW131026   5.491   0.417   8.299 -0.2335 -0.3098 -0.8585
 6904SOL    HW231027   5.640   0.391   8.299 -0.3459 -0.9984  0.0843
 6905SOL     OW31028   6.232  11.573   5.821 -1.1076 -0.1994 -0.3375
 6905SOL    HW131029   6.292  11.598   5.891  1.4000  0.0870 -2.4610
 6905SOL    HW231030   6.283  11.515   5.765 -3.5864 -1.8684 -1.0667
 6906SOL     OW31031   3.534  10.507   1.939 -0.4146  0.2455 -0.2608
 6906SOL    HW131032   3.570  10.583   1.894 -2.0894  1.4946  0.4017
 6906SOL    HW231033   3.493  10.543   2.018 -1.9352 -1.2102 -0.3225
 6907SOL     OW31034   1.787   7.828   2.882 -0.5768  0.1695  0.8311
 6907SOL    HW131035   1.822   7.757   2.828 -1.9424 -0.6388  0.9742
 6907SOL    HW231036   1.776   7.901   2.821 -0.2223 -0.0959  0.4444
 6908SOL     OW31037   4.287   6.694   9.352  0.4325 -0.2664  0.0201
 6908SOL    HW131038   4.360   6.750   9.324  0.5769 -0.0572  0.7945
 6908SOL    HW231039   4.324   6.606   9.354  0.2029 -0.4033 -1.2117
 6909SOL     OW31040   9.001   2.632   2.284  0.4856 -0.0108  0.3532
 6909SOL    HW131041   8.973   2.704   2.340 -0.0991 -1.2552  1.7414
 6909SOL    HW231042   9.044   2.674   2.209  0.9379  1.7165  1.5357
 6910SOL     OW31043   1.813  10.995   4.096  0.3808 -0.2182  0.1129
 6910SOL    HW131044   1.783  10.953   4.177  1.7839 -1.1942  0.1548
 6910SOL    HW231045   1.779  11.085   4.102 -3.1724 -1.3978 -0.2466
 6911SOL     OW31046  12.311  11.739   0.458  0.2103 -0.0186 -0.8091
 6911SOL    HW131047  12.336  11.828   0.434  1.4544  0.0212  0.5091
 6911SOL    HW231048  12.392  11.699   0.490  0.2206 -2.3533 -3.3288
 6912SOL     OW31049   6.322  12.741   5.020  0.0178 -0.5895  0.2607
 6912SOL    HW131050   6.294  12.828   5.049  0.5534  0.6435 -2.5531
 6912SOL    HW231051   6.240  12.692   5.009 -0.5066  0.3885 -0.3921
 6913SOL     OW31052   4.766  11.708   2.405 -0.3190 -0.3221 -0.4078
 6913SOL    HW131053   4.717  11.698   2.323 -1.2165  0.1313  0.0609
 6913SOL    HW231054   4.854  11.675   2.384 -1.4876 -3.8237 -0.5159
 6914SOL     OW31055   7.791   5.960   8.910  0.1100 -0.1818 -0.2717
 6914SOL    HW131056   7.825   5.930   8.826 -0.1637  0.8945 -0.7813
 6914SOL    HW231057   7.868   5.989   8.958  0.2439 -0.5914 -0.2382
 6915SOL     OW31058   4.537   6.049   7.291  0.4033  0.4144 -0.4098
 6915SOL    HW131059   4.624   6.088   7.279  0.2858  0.6720 -0.4404
 6915SOL    HW231060   4.477   6.113   7.251  0.2920 -0.2882 -1.4093
 6916SOL     OW31061   2.747  10.867   0.392 -0.8452 -0.2870  0.3010
 6916SOL    HW131062   2.680  10.875   0.323 -0.5604  0.1590  0.0678
 6916SOL    HW231063   2.749  10.954   0.432  0.0005 -0.1254 -0.0787
 6917SOL     OW31064   8.034   5.884   5.243  0.0413  0.0403 -0.7065
 6917SOL    HW131065   8.043   5.809   5.302  1.7408  0.6852 -0.0835
 6917SOL    HW231066   7.971   5.942   5.286  0.2295 -0.1275 -0.1993
 6918SOL     OW31067   3.653   2.599   9.153 -0.0878 -0.2968 -0.0546
 6918SOL    HW131068   3.709   2.564   9.084 -0.7577 -0.3382 -0.5896
 6918SOL    HW231069   3.637   2.690   9.127 -0.6812 -0.4307 -0.1869
 6919SOL     OW31070  11.227  11.744   5.668  0.1228 -0.0855 -0.2363
 6919SOL    HW131071  11.216  11.838   5.653 -0.0495 -0.2566 -1.3060
 6919SOL    HW231072  11.143  11.715   5.703  0.3954  0.2644  0.7357
 6920SOL     OW31073   5.253   2.059   3.410 -0.2168 -0.2633 -0.0088
 6920SOL    HW131074   5.195   2.106   3.470 -0.9965 -0.8617 -0.2809
 6920SOL    HW231075   5.269   2.120   3.339 -0.9403 -0.2705 -0.1848
 6921SOL     OW31076   8.773   2.220   6.813  0.3949  0.3455 -0.6412
 6921SOL    HW131077   8.850   2.193   6.763  0.0593  1.0399 -1.5564
 6921SOL    HW231078   8.732   2.288   6.760 -0.3860  0.5855  0.2378
 6922SOL     OW31079   2.092   5.426   5.999  0.5481  0.1207  0.7025
 6922SOL    HW131080   2.045   5.492   5.949  1.5828  0.3095 -0.0578
 6922SOL    HW231081   2.183   5.436   5.972  0.9254 -0.6893  1.6206
 6923SOL     OW31082   2.754   9.389   3.923  0.4207  0.4000  0.2999
 6923SOL    HW131083   2.793   9.476   3.918 -1.3827  1.2808  0.7954
 6923SOL    HW231084   2.678   9.392   3.866 -0.5379 -0.3422  1.4724
 6924SOL     OW31085  12.344   0.938   8.294  0.5655 -0.0336  0.3537
 6924SOL    HW131086  12.312   0.970   8.210 -2.4463 -1.3587  0.8578
 6924SOL    HW231087  12.426   0.892   8.273 -0.9060 -1.7437 -2.1957
 6925SOL     OW31088   8.657   2.477   0.320 -0.8029 -0.0292  0.3746
 6925SOL    HW131089   8.658   2.553   0.378 -1.0481  0.7744 -0.6377
 6925SOL    HW231090   8.719   2.416   0.360  0.3297  1.1980  0.5854
 6926SOL     OW31091   2.351   5.837   6.156 -0.6766  0.1489 -0.5274
 6926SOL    HW131092   2.414   5.909   6.149 -1.4815  0.8720 -0.6094
 6926SOL    HW231093   2.345   5.820   6.250 -0.5161  0.2330 -0.5012
 6927SOL     OW31094   5.333  11.096  12.577  0.0756 -0.3896 -0.3092
 6927SOL    HW131095   5.255  11.130  12.534  0.6215 -0.1308 -1.1152
 6927SOL    HW231096   5.349  11.011  12.535  1.2103  0.3249 -1.4107
 6928SOL     OW31097   9.674   6.227   3.448  0.2272  0.0810  0.3061
 6928SOL    HW131098   9.714   6.193   3.368  1.3965  0.9039  0.5158
 6928SOL    HW231099   9.668   6.152   3.507 -0.9900 -0.6153 -0.6642
 6929SOL     OW31100   4.285   4.997   0.442 -0.0692 -0.1410  0.3745
 6929SOL    HW131101   4.219   4.941   0.401  0.0941 -0.2230  0.2209
 6929SOL    HW231102   4.303   5.065   0.377 -0.6302  0.3797  0.7556
 6930SOL     OW31103  10.872   5.093  12.950 -1.2592  0.1176 -0.1083
 6930SOL    HW131104  10.896   5.171  12.899  1.2623 -0.4411  0.0765
 6930SOL    HW231105  10.921   5.102  13.031 -0.6249 -1.7999 -0.2308
 6931SOL     OW31106  12.258   9.750   6.150 -0.3982  0.1022  0.6322
 6931SOL    HW131107  12.303   9.722   6.070 -1.5262 -1.1220  0.3881
 6931SOL    HW231108  12.328   9.780   6.208  0.4795  0.6164 -0.6474
 6932SOL     OW31109   3.394   6.819   0.381  0.2967  0.0021 -0.4731
 6932SOL    HW131110   3.400   6.822   0.476 -0.4244  0.5309 -0.4404
 6932SOL    HW231111   3.349   6.899   0.357  0.4576 -0.1359 -1.2649
 6933SOL     OW31112  12.121   5.977   0.248  0.2289  0.2352 -1.0725
 6933SOL    HW131113  12.205   5.934   0.266  1.8046  2.6977 -2.0094
 6933SOL    HW231114  12.058   5.906   0.246  1.8153 -1.4940  2.1739
 6934SOL     OW31115  11.745   4.897   1.246 -1.1921  0.4600  0.4547
 6934SOL    HW131116  11.826   4.937   1.278 -1.3352  0.4402  0.8443
 6934SOL    HW231117  11.724   4.947   1.167 -0.7086  0.3550  0.2573
 6935SOL     OW31118  11.449   0.330   3.492 -0.5423  0.4355 -0.0480
 6935SOL    HW131119  11.452   0.401   3.428 -0.7128  1.5344  1.1303
 6935SOL    HW231120  11.357   0.324   3.517 -0.5565 -0.3281 -0.2519
 6936SOL     OW31121   0.741   0.195   0.085 -0.0335  0.3088  0.2372
 6936SOL    HW131122   0.772   0.285   0.093  0.3159  0.3826 -1.5284
 6936SOL    HW231123   0.713   0.171   0.174  1.3673  1.5877  1.0711
 6937SOL     OW31124   7.352   9.318  10.473  0.0321 -0.1237 -0.3560
 6937SOL    HW131125   7.316   9.406  10.486 -0.9942 -0.5924  0.0898
 6937SOL    HW231126   7.430   9.316  10.528 -0.3619  0.2683  0.2342
 6938SOL     OW31127  11.560   7.551  11.773 -0.0028 -0.0320  0.0336
 6938SOL    HW131128  11.519   7.495  11.838  1.7784 -2.0214 -0.4664
 6938SOL    HW231129  11.559   7.499  11.692  0.1532  1.3505 -0.8911
 6939SOL     OW31130   4.748   6.530   0.576  0.4291 -0.2211  0.1676
 6939SOL    HW131131   4.829   6.541   0.625 -0.1364 -0.9579  1.3156
 6939SOL    HW231132   4.734   6.435   0.572  0.4649 -0.1907 -1.4752
 6940SOL     OW31133   2.710  11.830   1.366  0.2653 -0.0960 -0.0841
 6940SOL    HW131134   2.699  11.738   1.340  0.4178  0.0253 -0.5849
 6940SOL    HW231135   2.705  11.828   1.462 -0.1616 -0.5707 -0.1065
 6941SOL     OW31136   5.568  12.299   0.461  0.2383 -0.3369  0.2219
 6941SOL    HW131137   5.534  12.288   0.550 -2.9092  0.8027 -0.7062
 6941SOL    HW231138   5.630  12.371   0.467 -0.6190  0.3355  1.3661
 6942SOL     OW31139   0.528   0.990   2.292  0.0082  0.8632  0.8545
 6942SOL    HW131140   0.606   0.999   2.347  1.3861 -1.0037 -0.6707
 6942SOL    HW231141   0.554   1.028   2.207 -1.6211  2.4716  1.0107
 6943SOL     OW31142   5.610   7.765   9.768  0.2648  0.5290 -0.4031
 6943SOL    HW131143   5.690   7.727   9.806 -0.2266 -0.8399 -0.6772
 6943SOL    HW231144   5.641   7.840   9.717  1.4742 -0.3707 -1.0597
 6944SOL     OW31145  10.137   5.723  12.697  0.2323 -0.5641  0.2827
 6944SOL    HW131146  10.226   5.688  12.698  0.0365 -1.1876 -1.4662
 6944SOL    HW231147  10.081   5.647  12.679 -0.5824 -0.0516  0.5908
 6945SOL     OW31148  10.759   8.295  12.664  0.2568  0.3581  0.3998
 6945SOL    HW131149  10.745   8.303  12.570  0.6547 -0.5880  0.2486
 6945SOL    HW231150  10.728   8.378  12.700 -0.9551  0.2922 -0.4358
 6946SOL     OW31151   7.273   0.933   6.910 -0.6737 -0.0941  0.2284
 6946SOL    HW131152   7.266   1.027   6.926 -3.2054  0.1209 -1.4003
 6946SOL    HW231153   7.281   0.925   6.815 -3.2827 -1.4832  0.0047
 6947SOL     OW31154   8.345   5.766   3.027 -0.0170 -0.1469  0.7764
 6947SOL    HW131155   8.288   5.823   2.974  0.3229 -0.0033  0.5645
 6947SOL    HW231156   8.316   5.781   3.117  0.9119  1.3485  0.8742
 6948SOL     OW31157   3.349   2.263   9.373  0.0735 -0.2956  0.4328
 6948SOL    HW131158   3.377   2.195   9.434 -0.3886 -0.6263  0.2834
 6948SOL    HW231159   3.282   2.311   9.420  0.2024 -0.1192  0.4356
 6949SOL     OW31160   2.359  11.401   4.531  0.0585  0.0308  0.5779
 6949SOL    HW131161   2.362  11.495   4.515  1.3201  0.4661  2.9835
 6949SOL    HW231162   2.346  11.363   4.444 -1.3748  2.4252 -0.3602
 6950SOL     OW31163   2.469  12.241  10.109  0.2727 -0.3767 -0.0859
 6950SOL    HW131164   2.482  12.147  10.097  3.0953 -0.1909  0.7909
 6950SOL    HW231165   2.467  12.253  10.204  2.1137  0.6207 -0.1295
 6951SOL     OW31166   2.928   1.143  12.269  0.4464 -0.3038  0.3660
 6951SOL    HW131167   2.969   1.119  12.352 -0.5920 -2.8635  0.2414
 6951SOL    HW231168   2.851   1.194  12.294  1.4978  1.1414  0.7909
 6952SOL     OW31169  11.036  10.445  10.891 -0.2301 -0.0024 -0.2006
 6952SOL    HW131170  10.979  10.369  10.904  1.0866 -0.9588  0.1938
 6952SOL    HW231171  11.002  10.486  10.811 -2.3008  0.2698  0.7572
 6953SOL     OW31172   9.136   1.616   1.064 -0.0006  0.0930 -0.3131
 6953SOL    HW131173   9.145   1.676   0.990  0.3421 -0.8265 -1.0362
 6953SOL    HW231174   9.224   1.584   1.079  0.0577  0.7798  0.9597
 6954SOL     OW31175   2.135  12.764  12.801 -0.2150 -0.4179 -0.6652
 6954SOL    HW131176   2.083  12.843  12.785  0.5316  0.3273  0.4646
 6954SOL    HW231177   2.191  12.756  12.724  1.6477  1.7546  0.3438
 6955SOL     OW31178   8.903  11.276  11.660  0.3718  0.0395  0.5101
 6955SOL    HW131179   8.853  11.206  11.702  2.6949 -0.6177  2.3692
 6955SOL    HW231180   8.918  11.340  11.729  0.4017  1.1847 -0.5290
 6956SOL     OW31181   4.537  11.638   2.701 -0.0087 -0.1149 -0.4716
 6956SOL    HW131182   4.480  11.646   2.624  0.1789  0.4429 -0.5589
 6956SOL    HW231183   4.497  11.696   2.766  0.3281  0.1084 -0.4581
 6957SOL     OW31184   4.090  11.219   8.249 -0.2907  0.4297 -0.3943
 6957SOL    HW131185   4.073  11.201   8.341  1.7214 -0.1629 -0.1040
 6957SOL    HW231186   4.151  11.151   8.222 -1.7380 -0.1374 -2.5225
 6958SOL     OW31187   4.911   2.921   3.248 -0.5524 -0.7179 -0.0034
 6958SOL    HW131188   4.892   3.013   3.264  0.4651 -0.7763  1.8855
 6958SOL    HW231189   4.978   2.922   3.180 -0.4349 -0.0480  0.1175
 6959SOL     OW31190   9.072  10.189  11.939  0.2165  0.6511 -0.0672
 6959SOL    HW131191   9.029  10.141  11.868  0.5216 -1.4515  1.1167
 6959SOL    HW231192   9.000  10.233  11.984 -0.2811 -0.0521 -0.1587
 6960SOL     OW31193   1.141   3.092  10.684 -0.1234  0.2336  0.5905
 6960SOL    HW131194   1.220   3.052  10.721  0.5190 -0.3910 -1.3299
 6960SOL    HW231195   1.074   3.024  10.690 -0.3740  0.5634  1.6923
 6961SOL     OW31196   3.520   4.200  12.793  0.1156 -0.9078  0.4566
 6961SOL    HW131197   3.565   4.246  12.864 -2.1138  1.4527  0.4844
 6961SOL    HW231198   3.440   4.166  12.833 -1.6453  1.2566 -0.9828
 6962SOL     OW31199   4.905   0.213   9.342 -0.4379 -0.9733 -0.2599
 6962SOL    HW131200   4.823   0.168   9.322 -0.4321 -0.6615 -1.0449
 6962SOL    HW231201   4.883   0.306   9.335 -0.9653 -0.7036  3.3155
 6963SOL     OW31202   0.865  11.196  12.453  0.1762 -0.1210  0.5990
 6963SOL    HW131203   0.797  11.159  12.508  1.0630 -2.4551  0.2548
 6963SOL    HW231204   0.946  11.180  12.501  0.7719 -0.3760 -0.4529
 6964SOL     OW31205   4.336   5.826  12.551  0.2460  0.4596 -0.0430
 6964SOL    HW131206   4.409   5.767  12.533 -0.3165  0.1044 -1.2954
 6964SOL    HW231207   4.370   5.914  12.532 -0.2898  0.1283 -3.1214
 6965SOL     OW31208   6.467   8.239   5.521  0.2779 -0.9060 -0.0079
 6965SOL    HW131209   6.549   8.212   5.481  1.7954  1.1117  1.5229
 6965SOL    HW231210   6.438   8.314   5.468 -1.1736 -2.1814 -1.1295
 6966SOL     OW31211   2.922   6.878   4.831  0.2538  0.8431 -0.3392
 6966SOL    HW131212   2.979   6.862   4.755  1.2379 -1.7357  0.8412
 6966SOL    HW231213   2.852   6.814   4.823 -0.3370  1.3962  0.2910
 6967SOL     OW31214   3.901   8.374   8.774  0.1163 -0.5330 -0.7009
 6967SOL    HW131215   3.966   8.380   8.843 -1.3678 -1.1050  0.8243
 6967SOL    HW231216   3.931   8.302   8.718  1.3275 -0.0714 -0.6581
 6968SOL     OW31217  12.449  12.623  11.204  0.7003 -0.3725 -0.0818
 6968SOL    HW131218  12.401  12.594  11.127  1.3171 -1.0688 -0.2191
 6968SOL    HW231219  12.515  12.555  11.218  1.4869  0.4347  0.2330
 6969SOL     OW31220   0.594   4.593   9.662  0.1456 -0.4859 -0.8350
 6969SOL    HW131221   0.525   4.562   9.603  0.6248  0.1855 -1.7753
 6969SOL    HW231222   0.565   4.566   9.749 -1.0400 -0.6838 -1.2715
 6970SOL     OW31223   1.957   0.889   4.700  0.3659  0.0773  0.0772
 6970SOL    HW131224   1.936   0.899   4.607 -0.9852 -1.3004  0.1998
 6970SOL    HW231225   1.991   0.975   4.726 -1.1222  1.1260 -1.2197
 6971SOL     OW31226   3.939   9.886  12.959  0.2470  0.2007 -0.0445
 6971SOL    HW131227   3.970   9.830  13.030 -0.3932 -0.5260 -0.3272
 6971SOL    HW231228   3.974   9.847  12.879  0.2799  0.5390 -0.1962
 6972SOL     OW31229  12.317   1.176   3.622  0.2397  0.4961 -0.3664
 6972SOL    HW131230  12.352   1.090   3.644  0.5000  1.2199  2.5262
 6972SOL    HW231231  12.222   1.167   3.632  0.4076  1.2216  3.4873
 6973SOL     OW31232   3.799   3.429   9.715  0.0202 -0.5556 -0.3780
 6973SOL    HW131233   3.757   3.378   9.784 -0.6837  1.3250  0.6394
 6973SOL    HW231234   3.875   3.468   9.757  1.5730 -2.1033 -1.6137
 6974SOL     OW31235   2.468   8.475   8.822 -0.2408 -0.0077 -0.3006
 6974SOL    HW131236   2.429   8.547   8.871 -0.6608  0.7429 -1.6880
 6974SOL    HW231237   2.409   8.401   8.838 -0.5217  0.2966  0.0997
 6975SOL     OW31238   3.133   8.337   2.202  0.1614 -0.0937  0.1605
 6975SOL    HW131239   3.214   8.307   2.162  0.5683  1.0747  0.0856
 6975SOL    HW231240   3.112   8.418   2.157 -0.3492  0.3006  1.0728
 6976SOL     OW31241   3.316   7.404   9.895 -0.1634 -0.3671 -0.0155
 6976SOL    HW131242   3.307   7.359   9.979 -3.9570  1.5067  0.8063
 6976SOL    HW231243   3.241   7.374   9.843  0.4486  0.7008 -1.6079
 6977SOL     OW31244  10.346   2.163  10.054 -0.4721 -0.2210 -0.0056
 6977SOL    HW131245  10.310   2.101   9.991 -2.3358  1.5298 -0.7480
 6977SOL    HW231246  10.291   2.153  10.132 -1.7466  1.4564 -0.6421
 6978SOL     OW31247   4.497   4.979   0.007 -0.1924  0.5431  0.3270
 6978SOL    HW131248   4.566   4.938   0.059  0.8255 -0.3489 -1.6326
 6978SOL    HW231249   4.539   5.056  -0.032 -0.3741  0.1897 -0.5975
 6979SOL     OW31250   0.793   8.492   0.074  0.0470 -0.1666 -0.1515
 6979SOL    HW131251   0.862   8.521   0.134  1.5707  0.4296 -2.0784
 6979SOL    HW231252   0.727   8.561   0.077  1.7598  1.6441 -1.6850
 6980SOL     OW31253   2.486  11.564  10.500 -0.5943 -0.3450  0.0329
 6980SOL    HW131254   2.450  11.477  10.481 -3.0015  0.1599  1.7622
 6980SOL    HW231255   2.420  11.625  10.468  0.5914  0.8388 -0.2284
 6981SOL     OW31256  10.748   3.910   9.088  0.0378  0.2156 -0.0381
 6981SOL    HW131257  10.788   3.861   9.160 -1.1707 -1.4875 -0.4603
 6981SOL    HW231258  10.655   3.888   9.093 -0.3218  1.3714 -1.1359
 6982SOL     OW31259   4.409  12.340   2.749  0.0725 -1.0839  0.4582
 6982SOL    HW131260   4.419  12.409   2.815  0.8958  1.0466 -1.7110
 6982SOL    HW231261   4.333  12.289   2.777 -1.8693  1.9622  1.1745
 6983SOL     OW31262   2.886  10.238   0.293 -0.2947 -0.2602 -0.8142
 6983SOL    HW131263   2.908  10.262   0.383 -1.9388 -0.1116 -0.4157
 6983SOL    HW231264   2.969  10.207   0.255  0.4838 -0.0454  0.6469
 6984SOL     OW31265   4.795  10.747   0.730 -0.0356 -0.3971  0.8525
 6984SOL    HW131266   4.832  10.802   0.661 -1.6076 -0.1345  0.1807
 6984SOL    HW231267   4.720  10.797   0.763 -1.1971 -1.8801  0.5873
 6985SOL     OW31268   6.611   2.012   7.848  0.6141  0.6698 -0.2148
 6985SOL    HW131269   6.537   2.004   7.908 -0.6477 -1.3933 -1.9167
 6985SOL    HW231270   6.572   2.035   7.764  1.6409 -1.8230 -1.4835
 6986SOL     OW31271   8.376  12.590  11.904 -0.2364 -0.4894 -0.6997
 6986SOL    HW131272   8.428  12.603  11.825  1.3021  1.4394  0.5317
 6986SOL    HW231273   8.363  12.678  11.939 -1.7887 -1.1985  0.6647
 6987SOL     OW31274  11.286  12.547   0.908 -0.6683  0.0719 -0.1641
 6987SOL    HW131275  11.380  12.566   0.913 -0.5277  0.4823 -2.6394
 6987SOL    HW231276  11.282  12.454   0.886 -0.7267  0.3507 -1.4439
 6988SOL     OW31277  10.974   7.091  12.933  0.5073 -0.2109 -0.4858
 6988SOL    HW131278  10.966   7.007  12.977 -3.2130 -0.4864 -1.3961
 6988SOL    HW231279  11.028   7.073  12.855  0.9509 -1.3739  0.0730
 6989SOL     OW31280  11.809  10.821   5.988 -0.0865 -0.0725  0.2578
 6989SOL    HW131281  11.844  10.803   6.075 -1.5786 -3.6473  0.2746
 6989SOL    HW231282  11.715  10.806   5.996 -0.3018 -0.2204 -1.9190
 6990SOL     OW31283   4.823   4.636   5.226  0.1155 -0.1156  0.2143
 6990SOL    HW131284   4.778   4.557   5.253  2.0425 -1.2632  0.2771
 6990SOL    HW231285   4.909   4.631   5.268  1.4623  0.3864 -2.2650
 6991SOL     OW31286   2.626  10.253  11.129  0.7535  0.1177 -0.0138
 6991SOL    HW131287   2.625  10.212  11.215  0.9335  2.2380  1.0391
 6991SOL    HW231288   2.559  10.205  11.080  0.2171 -0.7324  1.4813
 6992SOL     OW31289  12.676  12.209   8.614 -0.3605  0.0799 -0.2486
 6992SOL    HW131290  12.765  12.217   8.649 -0.4189 -1.8655  0.4582
 6992SOL    HW231291  12.623  12.184   8.690 -1.2638 -0.1100 -0.9339
 6993SOL     OW31292   6.059  11.180   2.736  0.3874 -0.1144  0.0968
 6993SOL    HW131293   6.053  11.257   2.792 -0.9609 -2.1575  3.0477
 6993SOL    HW231294   6.063  11.215   2.647 -2.6117  3.3487  1.0695
 6994SOL     OW31295   9.687   2.471   1.166  0.1996 -0.1419  0.1353
 6994SOL    HW131296   9.732   2.423   1.096  1.9385  0.8176  0.5356
 6994SOL    HW231297   9.742   2.457   1.243 -0.2713  0.9596  0.6878
 6995SOL     OW31298   3.798   3.959   4.550 -0.0074  0.2004  0.2572
 6995SOL    HW131299   3.883   3.993   4.521 -0.0620 -0.8651 -1.2687
 6995SOL    HW231300   3.819   3.883   4.603  0.0034 -0.5568 -0.8007
 6996SOL     OW31301   0.210   2.989   0.605  0.5205  0.3634  0.1698
 6996SOL    HW131302   0.175   3.078   0.603  0.8406  0.4777 -0.8586
 6996SOL    HW231303   0.286   2.994   0.663  0.8262  0.8712 -0.2691
 6997SOL     OW31304  11.410  11.769  11.356 -0.0952  0.0012 -0.4342
 6997SOL    HW131305  11.394  11.809  11.442  1.5616 -1.3359  0.5809
 6997SOL    HW231306  11.505  11.777  11.344 -0.3300  0.3551 -2.2723
 6998SOL     OW31307  12.861   3.097   3.939  0.1794  0.0804 -0.4418
 6998SOL    HW131308  12.863   3.135   4.027 -0.9688  0.7026 -0.6705
 6998SOL    HW231309  12.921   3.151   3.888  0.2513  0.1948 -0.2347
 6999SOL     OW31310   2.030   7.078   7.432 -0.2537  0.2761  0.3914
 6999SOL    HW131311   1.954   7.034   7.472 -0.9164  1.8541  0.9452
 6999SOL    HW231312   2.037   7.038   7.345 -1.1697 -0.5300  0.6664
 7000SOL     OW31313  10.622   2.596   0.511  0.3297  0.5550  0.3230
 7000SOL    HW131314  10.591   2.604   0.421 -2.3276 -2.1223  0.8095
 7000SOL    HW231315  10.716   2.582   0.504  0.0785 -0.3129 -2.1182
 7001SOL     OW31316   2.794   3.984   7.839  0.2253 -0.0289  0.0312
 7001SOL    HW131317   2.782   3.893   7.866 -0.7586  0.0324 -0.1722
 7001SOL    HW231318   2.868   3.981   7.778  1.1344 -0.4698  1.1251
 7002SOL     OW31319  11.650  12.580   9.536  0.1049 -0.1816 -0.8639
 7002SOL    HW131320  11.656  12.547   9.626  0.7057 -1.1881 -1.2543
 7002SOL    HW231321  11.566  12.624   9.532 -0.0729 -0.4125  0.1085
 7003SOL     OW31322  11.397   2.999   3.340  0.3158  0.4265  0.2155
 7003SOL    HW131323  11.330   2.952   3.390  0.7617 -0.1225  0.3201
 7003SOL    HW231324  11.353   3.024   3.258  0.0969 -0.2830  0.1085
 7004SOL     OW31325  11.522  11.869   7.498 -0.2073  0.6319 -0.2807
 7004SOL    HW131326  11.480  11.880   7.583 -0.4693  0.5785 -0.4016
 7004SOL    HW231327  11.451  11.883   7.435 -0.2332 -0.3331 -0.4657
 7005SOL     OW31328   8.114  10.589  11.006 -0.3180  0.0494  0.3694
 7005SOL    HW131329   8.096  10.672  11.049  3.1009  0.4634  1.2705
 7005SOL    HW231330   8.192  10.555  11.049  0.0652 -2.2490 -1.8574
 7006SOL     OW31331   8.743  10.097   9.529  0.1067 -0.2117  0.0823
 7006SOL    HW131332   8.656  10.062   9.548 -0.3249  0.6249 -0.2981
 7006SOL    HW231333   8.761  10.068   9.439 -0.0351  0.1265 -0.0541
 7007SOL     OW31334   1.804   8.008   7.997  0.6517  0.5817 -0.6651
 7007SOL    HW131335   1.866   7.964   8.054 -0.6473  1.9252  1.9429
 7007SOL    HW231336   1.728   7.949   7.994  0.3443  0.9404 -0.1676
 7008SOL     OW31337  12.240  10.457   9.933  0.3141 -0.4248  0.5308
 7008SOL    HW131338  12.165  10.482   9.987  0.3307 -1.6070  1.1484
 7008SOL    HW231339  12.275  10.539   9.900  0.4605  0.3878  2.5561
 7009SOL     OW31340   6.860   9.286   3.512  0.2163 -0.1967 -0.4438
 7009SOL    HW131341   6.894   9.363   3.466  0.8624 -0.4037 -0.3256
 7009SOL    HW231342   6.931   9.260   3.571 -0.1070 -0.7108 -0.2730
 7010SOL     OW31343   0.664  10.186   1.843  0.2304  0.2171 -0.5139
 7010SOL    HW131344   0.582  10.179   1.794  0.6139 -1.1767 -1.0069
 7010SOL    HW231345   0.729  10.144   1.787  0.5642 -2.0931  1.4428
 7011SOL     OW31346  10.170  12.195   9.643 -0.3104 -0.0278  0.5452
 7011SOL    HW131347  10.225  12.197   9.722  1.7832 -0.4304 -0.8053
 7011SOL    HW231348  10.137  12.106   9.638  1.0098 -0.5164  0.0842
 7012SOL     OW31349   0.753  12.589   0.057 -0.0623 -0.0622 -0.5715
 7012SOL    HW131350   0.670  12.572   0.102 -0.0286  0.6171 -0.2444
 7012SOL    HW231351   0.729  12.606  -0.034 -0.2416 -0.2598 -0.5621
 7013SOL     OW31352   8.481   5.700   2.282  0.3164  0.6812  0.3150
 7013SOL    HW131353   8.455   5.688   2.374  0.1904 -0.9731  0.0972
 7013SOL    HW231354   8.398   5.708   2.235  0.3607  0.9156  0.2793
 7014SOL     OW31355   7.339  10.376   5.743 -0.4645  0.1103  0.4847
 7014SOL    HW131356   7.355  10.427   5.822  0.9076  2.2488 -1.0448
 7014SOL    HW231357   7.416  10.320   5.733 -0.4379  0.1529  0.4500
 7015SOL     OW31358   7.786  12.115   6.322 -0.1966 -0.0253 -0.0746
 7015SOL    HW131359   7.765  12.094   6.231  0.3056 -2.7237  0.3449
 7015SOL    HW231360   7.880  12.102   6.329  0.0982  2.0743  0.4291
 7016SOL     OW31361  10.709   8.912   1.035  0.4056  0.3618 -0.3310
 7016SOL    HW131362  10.754   8.837   0.997  0.2828  0.0069  0.2166
 7016SOL    HW231363  10.616   8.893   1.022  0.3899  1.1052 -1.4848
 7017SOL     OW31364   1.923   5.286   9.194  0.3144 -0.8158  0.1286
 7017SOL    HW131365   2.000   5.277   9.250  1.7636  0.6038 -1.5051
 7017SOL    HW231366   1.895   5.376   9.207  0.4833 -0.5642 -1.1381
 7018SOL     OW31367   6.308  11.048  10.530  0.2366 -0.0611  0.1437
 7018SOL    HW131368   6.398  11.018  10.520  0.2865 -0.1156  0.7505
 7018SOL    HW231369   6.295  11.057  10.624 -0.1806  0.6007  0.0295
 7019SOL     OW31370   1.181   6.741   1.104 -0.3218 -0.0795  0.0808
 7019SOL    HW131371   1.272   6.753   1.133  0.1729 -1.5058 -0.7760
 7019SOL    HW231372   1.136   6.705   1.181  0.0545 -0.2034  0.2477
 7020SOL     OW31373   5.701   9.401  12.938 -0.0394  0.4807 -0.0801
 7020SOL    HW131374   5.789   9.370  12.957  0.0402  0.3558 -0.6121
 7020SOL    HW231375   5.698   9.491  12.970 -0.2464 -0.0337  1.4245
 7021SOL     OW31376   8.392   1.711   1.533  0.5028  0.3198 -0.1400
 7021SOL    HW131377   8.433   1.762   1.603  0.2332  0.3789 -0.0263
 7021SOL    HW231378   8.447   1.633   1.525 -0.0628 -0.1942  0.8535
 7022SOL     OW31379   2.165   4.910   8.007 -0.3215  0.0950  0.0616
 7022SOL    HW131380   2.216   4.977   7.962  0.3630 -0.6224 -0.2479
 7022SOL    HW231381   2.226   4.838   8.022 -1.3284 -0.9621 -0.7028
 7023SOL     OW31382  12.003   3.223   9.974 -0.0813 -0.2452  0.3250
 7023SOL    HW131383  11.936   3.222  10.042 -1.9323  1.1276 -1.3654
 7023SOL    HW231384  12.057   3.300   9.995 -0.2295 -0.2109  0.5863
 7024SOL     OW31385   3.504   4.337  12.487  0.6481 -0.2335 -0.4529
 7024SOL    HW131386   3.509   4.284  12.567 -1.5114 -0.4029 -0.3708
 7024SOL    HW231387   3.500   4.273  12.416 -1.4464 -0.2314 -0.3876
 7025SOL     OW31388   1.908   2.069   0.164  0.1308  0.3036  0.9097
 7025SOL    HW131389   1.946   1.981   0.168 -2.3037 -0.8893 -0.0472
 7025SOL    HW231390   1.982   2.127   0.147  1.5699 -1.7939 -0.3708
 7026SOL     OW31391   5.266   9.375   3.048 -0.1992 -0.1051  0.3708
 7026SOL    HW131392   5.255   9.323   2.969  1.6093 -0.2815  0.1889
 7026SOL    HW231393   5.310   9.455   3.019  0.3323 -0.0965  1.1472
 7027SOL     OW31394   9.415   1.170   1.863  0.2501 -0.3304 -0.5742
 7027SOL    HW131395   9.383   1.080   1.858  1.3763 -1.0044  2.4117
 7027SOL    HW231396   9.479   1.177   1.792  0.1582 -1.8773 -0.8505
 7028SOL     OW31397  10.547  10.047   9.350  0.0249  0.3634 -0.7112
 7028SOL    HW131398  10.580   9.957   9.351 -1.2994 -0.1626 -1.4592
 7028SOL    HW231399  10.626  10.101   9.346  0.8320 -0.8137 -1.7220
 7029SOL     OW31400   0.937   2.754   6.493  0.2556  0.1976  0.5089
 7029SOL    HW131401   1.021   2.759   6.448 -0.5535  0.5367 -0.9973
 7029SOL    HW231402   0.911   2.845   6.506 -1.2633  0.1395 -1.7413
 7030SOL     OW31403   7.205  10.655   2.383 -0.6698  0.1326 -0.3682
 7030SOL    HW131404   7.275  10.711   2.348  0.3408 -0.7195  0.2151
 7030SOL    HW231405   7.206  10.577   2.328  1.2621 -1.4392  1.6932
 7031SOL     OW31406   3.423   1.981   4.731 -0.1040  0.4090  0.3557
 7031SOL    HW131407   3.384   2.028   4.658  0.4853  0.7487  0.2521
 7031SOL    HW231408   3.514   1.966   4.705  0.1381  0.6056  1.0419
 7032SOL     OW31409   9.510  10.636   8.440 -0.0167 -0.3616  0.6546
 7032SOL    HW131410   9.491  10.708   8.380  2.3707  0.6409  0.9775
 7032SOL    HW231411   9.501  10.557   8.385 -1.0974  0.2677 -0.1183
 7033SOL     OW31412   3.299   8.729   1.944 -0.0703  0.5264 -0.3246
 7033SOL    HW131413   3.312   8.642   1.982  0.5419  0.4960 -0.5871
 7033SOL    HW231414   3.317   8.717   1.851  3.9295  1.6634  0.1193
 7034SOL     OW31415   5.401  11.439   3.674  0.5099 -0.0830  0.3677
 7034SOL    HW131416   5.350  11.509   3.635 -0.3664 -0.4948  0.7268
 7034SOL    HW231417   5.350  11.360   3.656  1.9501 -0.7643 -0.8502
 7035SOL     OW31418   4.564   1.340  10.789 -0.0280  0.1306  0.3341
 7035SOL    HW131419   4.468   1.334  10.796 -0.0909  0.5985 -0.1372
 7035SOL    HW231420   4.580   1.361  10.697  0.5323  0.0252  0.4088
 7036SOL     OW31421  10.247   6.899   1.836  0.3850  0.1835 -0.1866
 7036SOL    HW131422  10.218   6.966   1.773 -1.8859 -1.7227 -1.3169
 7036SOL    HW231423  10.336   6.877   1.807 -0.1705  0.1873 -2.0638
 7037SOL     OW31424   1.442   9.625   4.334  0.0524  0.3770  0.2831
 7037SOL    HW131425   1.436   9.529   4.327  3.3138  0.2095 -2.0575
 7037SOL    HW231426   1.482   9.640   4.420  0.2883 -0.3888  0.3145
 7038SOL     OW31427   7.315   0.383   5.148 -0.2820  0.7728  0.4968
 7038SOL    HW131428   7.256   0.452   5.177 -0.6029  0.9128 -0.4481
 7038SOL    HW231429   7.285   0.304   5.192 -0.0282  1.1931  1.4421
 7039SOL     OW31430  11.035   0.146   7.318 -0.2032  0.9793 -0.5998
 7039SOL    HW131431  11.046   0.063   7.271 -1.5033 -0.0688  0.8296
 7039SOL    HW231432  11.123   0.170   7.346  0.3485  0.7227 -2.0264
 7040SOL     OW31433   1.473  12.862  12.903  0.1564  0.2213  1.1199
 7040SOL    HW131434   1.437  12.922  12.837  0.2873  1.2281  1.9381
 7040SOL    HW231435   1.428  12.779  12.887  0.9880  0.1165 -0.9419
 7041SOL     OW31436   4.072   5.166   5.842 -0.3092 -0.9137  0.0248
 7041SOL    HW131437   4.113   5.249   5.868 -0.5749 -0.6820 -0.2754
 7041SOL    HW231438   4.089   5.160   5.748 -1.0819 -0.7321 -0.1394
 7042SOL     OW31439   2.585   5.826   5.388  0.0271  0.5687  0.2057
 7042SOL    HW131440   2.563   5.900   5.331 -0.2210  0.3550  0.0217
 7042SOL    HW231441   2.628   5.764   5.330  0.5418  0.7103  0.4304
 7043SOL     OW31442   3.025   9.335   9.840 -0.2556  0.5089 -0.1186
 7043SOL    HW131443   2.960   9.282   9.886  1.1407 -2.2563 -1.1411
 7043SOL    HW231444   3.049   9.283   9.763  1.8110  2.2853 -0.7780
 7044SOL     OW31445   1.651   1.787   3.282 -0.1173  0.2998  0.3250
 7044SOL    HW131446   1.721   1.839   3.320 -1.9942  2.0188  1.6466
 7044SOL    HW231447   1.614   1.739   3.356  1.3114 -2.8268 -0.7817
 7045SOL     OW31448   9.375   0.581   4.851 -0.2376  0.5025 -0.2875
 7045SOL    HW131449   9.302   0.519   4.855 -1.3466  1.7440 -0.5670
 7045SOL    HW231450   9.349   0.652   4.910  1.4464  0.2896  0.7733
 7046SOL     OW31451  10.235   9.829   6.438  1.1268  0.3033  0.1887
 7046SOL    HW131452  10.246   9.865   6.526  0.1494 -1.5935  1.1473
 7046SOL    HW231453  10.293   9.753   6.436  1.2839  0.4268 -0.9074
 7047SOL     OW31454  10.302   7.692   8.024 -0.2987 -0.6956 -0.5458
 7047SOL    HW131455  10.260   7.708   7.940 -2.5416 -1.2109  0.3994
 7047SOL    HW231456  10.322   7.779   8.058  0.0174 -0.4633 -1.3178
 7048SOL     OW31457   4.864  12.335   7.359  0.1173  0.5192  0.1158
 7048SOL    HW131458   4.910  12.407   7.403  1.0661  1.0199 -1.6357
 7048SOL    HW231459   4.915  12.258   7.381  1.4658  0.9748 -1.2312
 7049SOL     OW31460  12.697   2.251   5.446  0.6985 -0.1845 -0.3330
 7049SOL    HW131461  12.660   2.228   5.361 -0.9567 -0.0388  0.3024
 7049SOL    HW231462  12.786   2.280   5.427  0.5343 -0.6352 -1.9380
 7050SOL     OW31463   0.059   9.743   5.302  0.1072  0.0125  0.0943
 7050SOL    HW131464   0.141   9.782   5.332 -0.4828 -0.7247  2.9931
 7050SOL    HW231465  -0.009   9.802   5.335 -0.5964  0.5632 -2.1868
 7051SOL     OW31466   7.979  11.348   1.365  0.2586 -0.1350  0.6656
 7051SOL    HW131467   7.978  11.273   1.305  2.0277  0.0423  0.3423
 7051SOL    HW231468   7.920  11.323   1.435 -1.8014 -0.3999 -1.0594
 7052SOL     OW31469  12.269   0.871  12.824  0.0035  0.0031  0.6581
 7052SOL    HW131470  12.240   0.794  12.774 -1.5166  0.2961  1.0275
 7052SOL    HW231471  12.315   0.925  12.760  0.3274 -0.8009  0.1930
 7053SOL     OW31472   8.789   4.852   1.504 -0.3783 -0.5384 -0.2300
 7053SOL    HW131473   8.830   4.800   1.574  2.1864  0.2107 -1.0646
 7053SOL    HW231474   8.722   4.903   1.548  0.1087 -1.2461  1.4090
 7054SOL     OW31475   6.135   1.162  11.885 -0.0955 -0.3262  0.6181
 7054SOL    HW131476   6.051   1.131  11.851 -0.1900  0.8434 -0.2785
 7054SOL    HW231477   6.114   1.200  11.970 -0.0790 -2.0769  1.4380
 7055SOL     OW31478   8.865   6.408   4.900  0.1866 -0.7971  0.3150
 7055SOL    HW131479   8.947   6.359   4.895  0.8778  0.3972 -0.7542
 7055SOL    HW231480   8.807   6.365   4.837  1.3163  0.6148 -1.8013
 7056SOL     OW31481   6.645   7.564   3.340 -0.3497 -0.2440 -0.5743
 7056SOL    HW131482   6.598   7.648   3.346 -2.4668 -1.4285  1.0241
 7056SOL    HW231483   6.595   7.513   3.276  0.5708 -0.4946 -1.1042
 7057SOL     OW31484   8.014  12.806   7.288  0.5497  0.1334  0.2518
 7057SOL    HW131485   8.072  12.865   7.240 -0.6437  1.2788  0.1616
 7057SOL    HW231486   8.014  12.725   7.236  0.5738  0.7775 -0.7913
 7058SOL     OW31487   6.722   3.961   3.762  0.2603 -0.0447  0.2353
 7058SOL    HW131488   6.780   3.891   3.731 -1.2034 -0.8563 -0.8284
 7058SOL    HW231489   6.680   3.994   3.682 -1.8981 -0.5866  1.0589
 7059SOL     OW31490   1.667   3.040   3.124 -0.1299 -0.0849  0.0672
 7059SOL    HW131491   1.727   3.096   3.076 -0.6429 -1.6157 -2.5793
 7059SOL    HW231492   1.589   3.093   3.138  0.8093  1.0616  1.1945
 7060SOL     OW31493  10.666   3.687   2.535 -0.3817 -0.4509  0.1538
 7060SOL    HW131494  10.663   3.690   2.631 -2.2878 -2.6716  0.2515
 7060SOL    HW231495  10.751   3.648   2.515  0.1375  0.2646  0.9009
 7061SOL     OW31496   8.554  12.634   1.348  0.2070  0.0988  0.1415
 7061SOL    HW131497   8.477  12.607   1.298 -1.6972  1.4615  2.1661
 7061SOL    HW231498   8.580  12.717   1.308  1.6138 -1.0419 -1.4657
 7062SOL     OW31499  10.868   0.736  11.802 -0.1055 -0.4506 -0.3209
 7062SOL    HW131500  10.879   0.645  11.830  0.4330 -0.0308  0.9250
 7062SOL    HW231501  10.787   0.765  11.845 -0.0388 -0.2225 -0.3463
 7063SOL     OW31502   0.320   8.723   7.294 -0.0996 -0.0166 -0.3537
 7063SOL    HW131503   0.403   8.764   7.316 -0.4941  0.2811  0.6174
 7063SOL    HW231504   0.339   8.629   7.297  0.9253  0.0176 -3.0611
 7064SOL     OW31505   1.623   1.362   1.637 -0.9268  0.2144  0.2909
 7064SOL    HW131506   1.540   1.388   1.597 -1.9811  0.1585  2.3232
 7064SOL    HW231507   1.670   1.317   1.566 -0.9322  3.5335 -2.0582
 7065SOL     OW31508   8.857   7.916   2.025 -0.7390 -0.2788  0.4156
 7065SOL    HW131509   8.855   7.880   1.936  0.2304  0.1830  0.1912
 7065SOL    HW231510   8.813   8.001   2.017  1.3393  0.8191 -0.1615
 7066SOL     OW31511   9.781   4.081   3.762 -0.6958 -0.1450  0.3278
 7066SOL    HW131512   9.719   4.034   3.818  0.4517 -0.6562  1.2124
 7066SOL    HW231513   9.847   4.015   3.739 -0.5315  0.3593 -0.6929
 7067SOL     OW31514   1.366   7.073  12.376 -0.3617 -0.2175  0.2857
 7067SOL    HW131515   1.342   7.142  12.438 -0.3919 -1.7511  2.0764
 7067SOL    HW231516   1.453   7.097  12.345  0.2362 -0.0683  1.9790
 7068SOL     OW31517   9.453   6.071   2.197  0.1584 -0.1127  0.2059
 7068SOL    HW131518   9.442   6.151   2.249 -3.0255 -0.4516  0.2155
 7068SOL    HW231519   9.434   6.000   2.258  0.2805 -0.7331 -0.4722
 7069SOL     OW31520   3.727  11.124   8.254 -0.2020  0.4344 -0.9028
 7069SOL    HW131521   3.776  11.184   8.198 -2.1405 -0.8072 -4.2093
 7069SOL    HW231522   3.669  11.181   8.305 -0.5936  1.5501 -2.4957
 7070SOL     OW31523   6.426   9.827   8.277  0.0620 -0.6172 -0.1194
 7070SOL    HW131524   6.425   9.758   8.211 -1.0704  0.5440 -1.3643
 7070SOL    HW231525   6.396   9.905   8.231 -2.3152 -0.0903  2.0945
 7071SOL     OW31526   1.777  10.831  11.615  0.1219  0.6579 -0.0918
 7071SOL    HW131527   1.755  10.826  11.522  0.1678 -0.7065 -0.0571
 7071SOL    HW231528   1.753  10.920  11.641  0.6866  1.2744 -1.5434
 7072SOL     OW31529   5.066  10.044  12.579 -0.2080  0.3073  0.1921
 7072SOL    HW131530   5.056   9.969  12.638 -0.9222 -0.5112 -0.9283
 7072SOL    HW231531   5.013  10.113  12.619  2.2473  1.0535  2.4566
 7073SOL     OW31532   6.023  11.423  12.670  0.3478  0.0370 -0.3549
 7073SOL    HW131533   6.070  11.486  12.615 -0.4791  0.2004 -0.8881
 7073SOL    HW231534   5.930  11.441  12.654  0.0492 -2.2788 -1.6394
 7074SOL     OW31535   3.281   2.755   3.761 -0.2305 -0.0103  0.0843
 7074SOL    HW131536   3.251   2.702   3.835 -0.5332  0.3041  0.1908
 7074SOL    HW231537   3.206   2.811   3.739 -0.7802 -1.3255 -1.6140
 7075SOL     OW31538   2.581   3.072  10.402  0.2824 -0.1150 -0.5026
 7075SOL    HW131539   2.559   3.013  10.329  1.8601  0.1404 -1.2287
 7075SOL    HW231540   2.586   3.015  10.478 -0.4909 -0.5406 -0.7573
 7076SOL     OW31541   4.191   9.561  11.183 -0.3701 -0.1666  0.4695
 7076SOL    HW131542   4.180   9.495  11.115 -4.3081  0.8136 -0.0837
 7076SOL    HW231543   4.184   9.512  11.265  1.3892 -0.9591  0.1876
 7077SOL     OW31544   2.503  10.837  10.687 -0.2832  0.2022 -0.0248
 7077SOL    HW131545   2.534  10.800  10.769 -3.0832 -1.5216  0.3845
 7077SOL    HW231546   2.515  10.767  10.623 -2.0384 -0.1034 -0.0870
 7078SOL     OW31547  12.216   3.981   6.234  0.7528 -0.0281 -0.1485
 7078SOL    HW131548  12.310   3.982   6.250  0.9322 -0.1122 -1.1620
 7078SOL    HW231549  12.191   3.889   6.242  0.8246 -0.0570 -0.2593
 7079SOL     OW31550  11.014   8.020   6.239  0.2709 -0.4193 -0.2308
 7079SOL    HW131551  11.014   7.924   6.244 -1.0058 -0.4185  4.1655
 7079SOL    HW231552  10.932   8.041   6.194 -0.1652 -1.4269  0.0636
 7080SOL     OW31553   0.872  10.034   9.470  0.0939  0.3236  0.2153
 7080SOL    HW131554   0.814  10.026   9.395 -1.1941 -1.9024  1.3711
 7080SOL    HW231555   0.817  10.016   9.546  1.8763  0.0062  1.5057
 7081SOL     OW31556   2.877   6.598   5.528 -0.0052 -0.0056 -0.0829
 7081SOL    HW131557   2.851   6.555   5.446 -1.8415  0.0558  0.4443
 7081SOL    HW231558   2.929   6.673   5.500  1.9854 -1.6422 -1.0800
 7082SOL     OW31559   6.520  10.021  10.333  0.2016 -0.3006 -0.2800
 7082SOL    HW131560   6.441  10.068  10.307  0.5595  0.4144 -0.1053
 7082SOL    HW231561   6.590  10.065  10.286  0.9717  1.4841  2.3086
 7083SOL     OW31562  12.972  10.321   1.137 -0.2127 -0.4430  0.1511
 7083SOL    HW131563  12.986  10.401   1.188  1.5813  1.1278 -2.5200
 7083SOL    HW231564  12.886  10.334   1.097 -0.7617 -0.7680  1.2038
 7084SOL     OW31565   2.676  12.163   5.482  0.2422 -0.4968  0.2903
 7084SOL    HW131566   2.595  12.203   5.449  1.3724  0.2415 -1.8317
 7084SOL    HW231567   2.680  12.078   5.440  0.8940 -0.2303 -0.2206
 7085SOL     OW31568   9.672   1.836   4.559  0.3705 -0.0322 -0.2695
 7085SOL    HW131569   9.708   1.749   4.578 -0.0344 -0.0091  0.6547
 7085SOL    HW231570   9.599   1.818   4.500 -0.5589 -0.4792  0.9677
 7086SOL     OW31571  12.766   8.043   9.922  0.3672  0.1842 -0.7295
 7086SOL    HW131572  12.838   8.002   9.875  0.4344 -1.0546  0.3909
 7086SOL    HW231573  12.703   8.066   9.853  0.6230 -1.2257 -1.4810
 7087SOL     OW31574   1.672   4.007  10.885 -0.1369  0.3993  0.6735
 7087SOL    HW131575   1.627   3.981  10.805  1.2707  0.8051 -0.3037
 7087SOL    HW231576   1.715   3.926  10.915  1.7207  0.8116 -0.6577
 7088SOL     OW31577  10.950  12.926   3.248  0.0643 -0.0285  0.4728
 7088SOL    HW131578  10.945  12.978   3.328 -1.3082  1.2219 -0.3646
 7088SOL    HW231579  10.925  12.987   3.178  1.7381 -0.9366 -1.0016
 7089SOL     OW31580   6.730   9.092   1.700  0.6341  0.2038  0.0903
 7089SOL    HW131581   6.733   9.039   1.781  1.5589 -0.8526 -0.6033
 7089SOL    HW231582   6.820   9.119   1.686  0.7397 -0.7995 -1.3330
 7090SOL     OW31583   2.070   9.183   6.316 -0.2785  0.1776 -0.2044
 7090SOL    HW131584   2.148   9.232   6.290  0.5596 -0.4226  1.0372
 7090SOL    HW231585   2.078   9.176   6.412  0.1193 -3.0595 -0.3574
 7091SOL     OW31586   3.582  10.796   2.786  0.3477 -0.4893 -0.0279
 7091SOL    HW131587   3.593  10.875   2.733  0.3023 -0.4960 -0.0479
 7091SOL    HW231588   3.511  10.818   2.846 -0.6363 -1.0029 -0.9658
 7092SOL     OW31589  12.366   0.704   9.454  0.5567  0.4560 -0.9327
 7092SOL    HW131590  12.391   0.612   9.459  0.8623  0.4571 -2.0888
 7092SOL    HW231591  12.353   0.720   9.360 -1.1261  1.1649 -0.6013
 7093SOL     OW31592   6.777   8.638  11.009  0.1860  0.2413  0.0653
 7093SOL    HW131593   6.759   8.626  11.102  0.2000 -0.4078 -0.0082
 7093SOL    HW231594   6.814   8.554  10.982  1.8632  1.0151 -0.1270
 7094SOL     OW31595  12.624   3.474   4.691 -0.2991  0.7634 -0.1807
 7094SOL    HW131596  12.543   3.426   4.670 -0.6487  0.9336  0.7584
 7094SOL    HW231597  12.688   3.406   4.711 -0.6477  0.6717  0.6274
 7095SOL     OW31598   6.203   1.932   9.026  0.4711  0.2495  0.9059
 7095SOL    HW131599   6.220   1.931   8.932 -1.9676  1.2270  0.3489
 7095SOL    HW231600   6.266   1.995   9.061  0.1746  1.3633 -0.4357
 7096SOL     OW31601   9.880   3.184   8.795 -0.1749  0.3365 -0.3518
 7096SOL    HW131602   9.919   3.271   8.784  0.2548  0.7565  3.2516
 7096SOL    HW231603   9.795   3.191   8.752  0.7708  1.7598 -2.1303
 7097SOL     OW31604   9.392   8.859   4.830  0.2118 -0.1796  0.1061
 7097SOL    HW131605   9.376   8.788   4.892 -1.0666 -1.5548 -1.6908
 7097SOL    HW231606   9.354   8.936   4.872  0.1004 -0.8832  1.3660
 7098SOL     OW31607   7.979   5.930   6.942 -0.3000  0.0383 -0.5154
 7098SOL    HW131608   8.027   5.892   7.015  0.7362  1.6639 -0.3115
 7098SOL    HW231609   7.899   5.877   6.936  0.0215 -0.7046  1.1792
 7099SOL     OW31610   4.119  11.772   6.039 -0.4936  0.1628  0.6975
 7099SOL    HW131611   4.195  11.717   6.017 -0.3061  0.3167  0.9438
 7099SOL    HW231612   4.057  11.712   6.079 -0.7863 -0.0946 -0.1299
 7100SOL     OW31613   4.834  10.392  11.147  0.3675  0.8693  0.1132
 7100SOL    HW131614   4.890  10.466  11.171  0.1351  1.3765 -0.8419
 7100SOL    HW231615   4.773  10.383  11.219  2.1676 -0.2135  1.5789
 7101SOL     OW31616  11.128   3.287   2.446 -0.1276  0.0346  0.2918
 7101SOL    HW131617  11.217   3.255   2.459  0.3485  0.7598 -0.9448
 7101SOL    HW231618  11.072   3.211   2.462  0.8322 -0.8531 -0.4288
 7102SOL     OW31619  10.758  10.891   4.199 -0.2681  0.0044 -0.1155
 7102SOL    HW131620  10.850  10.915   4.185 -0.5539  1.8335  0.7874
 7102SOL    HW231621  10.758  10.845   4.283 -0.4335  2.2098  1.1690
 7103SOL     OW31622   4.609   3.418  10.780 -0.2279  0.3442  0.2904
 7103SOL    HW131623   4.580   3.507  10.761  1.2977  0.5891 -1.0999
 7103SOL    HW231624   4.659   3.426  10.862  0.7873  0.9871 -0.3703
 7104SOL     OW31625   5.068   6.805   7.958  0.4864 -0.6136  0.0528
 7104SOL    HW131626   5.154   6.831   7.924  0.8868 -2.9408 -0.9014
 7104SOL    HW231627   5.009   6.818   7.884  0.7310 -2.4368 -0.5122
 7105SOL     OW31628   1.715  11.094  12.197 -0.2541 -0.0679  0.2241
 7105SOL    HW131629   1.698  11.169  12.140 -1.1696 -0.0548  0.4925
 7105SOL    HW231630   1.798  11.116  12.241 -0.1541  0.4643 -0.2182
 7106SOL     OW31631   2.945   0.923   7.503  0.0369  0.0467 -0.4439
 7106SOL    HW131632   2.879   0.993   7.497  1.3410  1.2457 -1.4134
 7106SOL    HW231633   2.984   0.920   7.415  1.2779 -0.6314  0.1145
 7107SOL     OW31634   4.061   2.505   8.758  0.0262 -0.1955  0.4716
 7107SOL    HW131635   4.098   2.504   8.670 -1.0070  2.3811 -0.0609
 7107SOL    HW231636   3.966   2.508   8.744 -0.3965 -3.3287  1.7753
 7108SOL     OW31637   0.537   4.958  11.650 -0.2934 -0.2462 -0.1201
 7108SOL    HW131638   0.565   4.925  11.564 -1.2261 -1.6133  0.0696
 7108SOL    HW231639   0.610   4.936  11.708  0.3938  0.7924 -0.5643
 7109SOL     OW31640   1.997   8.316   1.219 -0.1138  0.5128 -0.5335
 7109SOL    HW131641   1.915   8.364   1.225  0.3456  1.1449  1.7015
 7109SOL    HW231642   2.058   8.365   1.275  1.1835 -1.0933 -0.4449
 7110SOL     OW31643  12.647   1.742   0.474 -0.4126  0.2321  0.2942
 7110SOL    HW131644  12.637   1.711   0.384  1.3672 -0.2215  0.2188
 7110SOL    HW231645  12.684   1.667   0.521  0.2709  0.9980  1.0048
 7111SOL     OW31646   2.137   3.749   4.556 -0.2922  0.3023 -0.1643
 7111SOL    HW131647   2.051   3.766   4.519 -0.4109  0.2038  0.0642
 7111SOL    HW231648   2.188   3.712   4.484 -0.1018  1.4014 -0.6035
 7112SOL     OW31649   2.168  10.786   0.141 -0.1544  0.0995 -0.2857
 7112SOL    HW131650   2.123  10.870   0.147  0.6537  0.6318 -1.3229
 7112SOL    HW231651   2.188  10.776   0.048 -0.5504 -1.4211 -0.2387
 7113SOL     OW31652   0.668  11.199  10.397  0.4019 -0.2999 -0.6217
 7113SOL    HW131653   0.632  11.114  10.374 -1.2633  0.8625 -2.7197
 7113SOL    HW231654   0.592  11.249  10.430  0.0926  1.8899 -4.1763
 7114SOL     OW31655   7.954   4.285   6.073 -0.5235  0.2806  0.3364
 7114SOL    HW131656   7.974   4.256   6.162  3.4841  0.2528 -0.3807
 7114SOL    HW231657   7.959   4.205   6.020  2.5516  0.9131 -0.5258
 7115SOL     OW31658   2.626   4.732   5.938  0.6257 -0.4095 -0.3088
 7115SOL    HW131659   2.577   4.730   5.856 -0.1258 -1.8580  0.1300
 7115SOL    HW231660   2.562   4.707   6.005  1.7026 -1.3544  0.4217
 7116SOL     OW31661  12.337   0.484  10.546  0.5155 -0.4093 -0.0973
 7116SOL    HW131662  12.363   0.541  10.474 -0.6978 -1.3102 -1.3066
 7116SOL    HW231663  12.395   0.408  10.538  0.5620 -0.3855  0.0239
 7117SOL     OW31664   3.614   6.078   4.363 -0.0940 -0.5046 -0.4493
 7117SOL    HW131665   3.639   6.150   4.305  0.1449 -0.6034 -0.4703
 7117SOL    HW231666   3.539   6.037   4.319  1.2535 -1.7735 -1.6917
 7118SOL     OW31667   0.210  12.030   7.173  0.4126  0.3452 -0.1351
 7118SOL    HW131668   0.145  12.076   7.226  0.8077  1.1128 -0.2925
 7118SOL    HW231669   0.292  12.075   7.192  0.7263  0.0111 -0.6739
 7119SOL     OW31670   2.302   2.899   8.786  0.3360 -0.3012 -0.2652
 7119SOL    HW131671   2.330   2.965   8.850 -0.0402  0.5324 -0.9503
 7119SOL    HW231672   2.260   2.831   8.839 -0.4492  0.6276  0.3422
 7120SOL     OW31673   6.545  10.793   7.950 -0.2396  0.3936 -0.2869
 7120SOL    HW131674   6.450  10.803   7.956 -0.1328  0.9105  0.7590
 7120SOL    HW231675   6.557  10.706   7.911 -1.1372  0.2632 -0.3048
 7121SOL     OW31676  10.803   3.252   6.784 -0.0306 -0.3141  0.2305
 7121SOL    HW131677  10.864   3.290   6.720 -0.5317 -1.3409 -0.8899
 7121SOL    HW231678  10.853   3.182   6.826 -0.1258 -0.5210  0.0005
 7122SOL     OW31679   2.858   4.870   0.137 -0.6214 -0.6576  0.3970
 7122SOL    HW131680   2.891   4.826   0.059 -1.6675 -0.2120 -0.3341
 7122SOL    HW231681   2.910   4.835   0.209 -0.8629 -2.4509 -0.2571
 7123SOL     OW31682  11.629  12.331   0.203  0.8503 -0.4552 -0.2850
 7123SOL    HW131683  11.596  12.394   0.267  1.1525 -0.1950 -0.3837
 7123SOL    HW231684  11.624  12.246   0.247  1.7066 -0.1963  0.3290
 7124SOL     OW31685   0.114   0.251   4.664  0.0563 -0.1123 -0.3837
 7124SOL    HW131686   0.060   0.200   4.724 -0.4505 -0.1242 -0.8446
 7124SOL    HW231687   0.054   0.277   4.593  0.1759  1.4785  0.0443
 7125SOL     OW31688   1.081  12.727   9.244 -0.2216  0.2527 -0.0768
 7125SOL    HW131689   1.117  12.676   9.171  0.8931 -0.0988  0.6845
 7125SOL    HW231690   1.158  12.754   9.294 -0.9585  0.4151  1.0135
 7126SOL     OW31691  12.900   2.337   1.089 -0.1241 -0.2258 -0.4668
 7126SOL    HW131692  12.885   2.363   1.179 -0.4571  2.2874 -1.1478
 7126SOL    HW231693  12.992   2.309   1.087 -0.6646 -2.2729  0.9896
 7127SOL     OW31694   8.089   5.582   6.764  0.6187 -0.4282  0.3539
 7127SOL    HW131695   8.102   5.549   6.853  1.5736 -1.1182 -0.0138
 7127SOL    HW231696   7.995   5.593   6.755  0.3309 -2.2197  0.8148
 7128SOL     OW31697   5.644  10.786   5.150 -0.7690 -0.1797  0.4578
 7128SOL    HW131698   5.608  10.754   5.067  0.9835 -0.6413 -0.1749
 7128SOL    HW231699   5.651  10.880   5.138  0.4653 -0.3591 -0.3539
 7129SOL     OW31700   8.542  11.834   2.630  0.2538  0.0992  0.3798
 7129SOL    HW131701   8.624  11.836   2.681  1.1974 -1.0921 -0.9747
 7129SOL    HW231702   8.479  11.793   2.689  1.2730 -1.0950  0.7131
 7130SOL     OW31703   9.163   7.521   7.476 -0.2583  0.0396  0.2193
 7130SOL    HW131704   9.168   7.586   7.406  0.4558  0.4109  0.6061
 7130SOL    HW231705   9.071   7.525   7.506 -0.7749 -0.6786 -1.1902
 7131SOL     OW31706   0.490  11.273   5.987  0.2119  0.0613  0.5297
 7131SOL    HW131707   0.414  11.236   6.032 -0.1231  0.3055  0.1742
 7131SOL    HW231708   0.527  11.200   5.938 -0.3250  0.1406 -0.0071
 7132SOL     OW31709   4.315   4.932   7.119  0.6222  0.6398  0.3315
 7132SOL    HW131710   4.377   4.943   7.047 -0.5042  0.8921 -0.6188
 7132SOL    HW231711   4.230   4.953   7.082 -0.3005 -1.3957  1.1251
 7133SOL     OW31712   1.367   2.678   9.562 -0.4512 -0.0911 -0.1851
 7133SOL    HW131713   1.329   2.592   9.547 -1.0625  0.5209 -2.4428
 7133SOL    HW231714   1.461   2.667   9.544 -0.5023 -0.3100 -0.3155
 7134SOL     OW31715   4.461  12.371   5.860 -0.1270  0.0736 -0.2247
 7134SOL    HW131716   4.548  12.379   5.900  1.8593 -1.8273 -3.7610
 7134SOL    HW231717   4.440  12.459   5.830  2.1184  0.0366 -2.0966
 7135SOL     OW31718  11.178   4.721   4.221  0.1423 -0.2350  0.0420
 7135SOL    HW131719  11.199   4.641   4.269  0.3228  0.0281  0.4055
 7135SOL    HW231720  11.083   4.717   4.209  0.3129 -1.1980 -1.2019
 7136SOL     OW31721  12.408   3.876  11.517 -0.1374  0.6064  0.1134
 7136SOL    HW131722  12.394   3.865  11.611  1.2341  2.3659  0.5746
 7136SOL    HW231723  12.342   3.939  11.490 -1.2566 -0.7233 -0.3796
 7137SOL     OW31724  10.804   1.756   2.182  0.1048  0.4567  0.2993
 7137SOL    HW131725  10.730   1.703   2.154  0.5960 -0.3033  0.4109
 7137SOL    HW231726  10.830   1.803   2.103 -0.2666  0.4475  0.1698
 7138SOL     OW31727   9.072   4.894   2.383  0.1627 -0.4388 -0.2751
 7138SOL    HW131728   9.087   4.843   2.304 -0.8676 -0.4685 -0.4616
 7138SOL    HW231729   9.055   4.983   2.351  0.3122 -0.3302 -0.0540
 7139SOL     OW31730  10.383   3.527   1.414 -0.0026  0.0857 -0.4354
 7139SOL    HW131731  10.326   3.545   1.339 -0.5694  2.2591  0.4213
 7139SOL    HW231732  10.445   3.601   1.415  1.6870 -1.2795 -0.2787
 7140SOL     OW31733   2.676   4.251   6.911 -0.3503 -0.2225 -0.1587
 7140SOL    HW131734   2.647   4.183   6.850 -0.1060  0.9101 -1.5634
 7140SOL    HW231735   2.597   4.302   6.929 -0.8683 -1.6629  2.0213
 7141SOL     OW31736   7.513  11.278  12.767 -0.0881 -0.9399  0.4797
 7141SOL    HW131737   7.419  11.268  12.748 -0.3268  0.9170  0.5096
 7141SOL    HW231738   7.552  11.297  12.682 -0.6837  4.1071  1.0170
 7142SOL     OW31739   1.410   1.554   3.961 -0.3108  0.0464 -0.7528
 7142SOL    HW131740   1.451   1.467   3.960 -0.3341  0.0390 -1.2001
 7142SOL    HW231741   1.475   1.611   3.921 -0.3633  0.2065 -0.6092
 7143SOL     OW31742   8.255   4.302  10.403 -0.5114  0.0459  0.2479
 7143SOL    HW131743   8.172   4.324  10.363  0.3320  2.3870 -0.3936
 7143SOL    HW231744   8.237   4.299  10.497 -1.4217  0.0361  0.0734
 7144SOL     OW31745   1.911   1.160   1.157 -0.1703 -0.0332 -0.1051
 7144SOL    HW131746   1.878   1.244   1.190 -1.3374  0.0583 -1.3697
 7144SOL    HW231747   1.996   1.181   1.119  0.1027  0.3230  0.6803
 7145SOL     OW31748  10.930   4.215  10.001  0.6582 -0.2898 -0.0214
 7145SOL    HW131749  10.991   4.272   9.954  0.9515  0.0057  0.6927
 7145SOL    HW231750  10.984   4.142  10.031  0.7974  0.2381  1.0731
 7146SOL     OW31751   0.708  12.173   6.962 -0.0473 -0.0311  0.2396
 7146SOL    HW131752   0.728  12.134   7.047 -0.5390 -1.7745 -0.4097
 7146SOL    HW231753   0.718  12.267   6.976 -0.8704 -0.2099  2.4202
 7147SOL     OW31754   6.919  10.085  10.965  0.3296  0.1242  0.0205
 7147SOL    HW131755   6.899   9.992  10.965  0.6513  0.0482 -0.9851
 7147SOL    HW231756   7.001  10.093  11.014  0.6893 -0.2064 -0.5312
 7148SOL     OW31757  10.360  12.449   3.811  0.1234  0.0394 -0.3527
 7148SOL    HW131758  10.266  12.462   3.824  0.1969  0.8484 -0.6159
 7148SOL    HW231759  10.372  12.354   3.816 -0.6960 -0.0604 -0.2505
 7149SOL     OW31760   9.738   4.148   6.001 -0.3372  0.1905 -0.4374
 7149SOL    HW131761   9.777   4.137   6.088 -1.8487  1.6880  0.4750
 7149SOL    HW231762   9.770   4.072   5.951  0.8032 -0.5408  1.3069
 7150SOL     OW31763   2.341   8.039   7.858 -0.3246 -0.3809  0.6982
 7150SOL    HW131764   2.436   8.043   7.866 -0.2885 -1.1184  0.6164
 7150SOL    HW231765   2.323   8.058   7.766 -0.1914 -1.3733  0.4681
 7151SOL     OW31766   8.613  11.501   5.952 -0.4460 -0.6986  0.5482
 7151SOL    HW131767   8.590  11.430   5.892 -2.5217 -0.8429  1.4182
 7151SOL    HW231768   8.605  11.580   5.899  1.7349 -1.0227 -0.3873
 7152SOL     OW31769   4.082   7.615   8.396  0.2915 -0.3942  0.4705
 7152SOL    HW131770   4.024   7.644   8.466 -0.7673  0.0332 -0.5516
 7152SOL    HW231771   4.127   7.538   8.432 -1.8432 -1.5154  0.8672
 7153SOL     OW31772  11.358   7.510   6.883 -0.1788 -0.1055  0.0999
 7153SOL    HW131773  11.297   7.440   6.860  0.1001  0.1185 -1.4243
 7153SOL    HW231774  11.305   7.589   6.882 -0.8385 -0.3769  3.3004
 7154SOL     OW31775   7.420   9.866   8.635 -0.2087  0.2621 -0.3264
 7154SOL    HW131776   7.510   9.864   8.667 -0.3767  1.0412  0.2062
 7154SOL    HW231777   7.421   9.931   8.565 -0.5712  1.0168  0.3595
 7155SOL     OW31778   2.934   5.129   5.091 -0.0951  0.0940 -0.2898
 7155SOL    HW131779   2.975   5.074   5.158  1.1960 -0.0936 -1.2058
 7155SOL    HW231780   2.854   5.162   5.133  0.2432 -0.6994  1.0374
 7156SOL     OW31781   9.086   5.681   1.333 -0.2731 -0.4028 -0.1958
 7156SOL    HW131782   9.133   5.654   1.411  0.5210 -1.0595 -0.8844
 7156SOL    HW231783   9.014   5.619   1.325  0.4588 -1.2052 -0.7410
 7157SOL     OW31784  10.309   1.185   7.915  0.2363  0.2013 -0.4275
 7157SOL    HW131785  10.336   1.102   7.952 -0.9591  0.1376  0.3429
 7157SOL    HW231786  10.365   1.250   7.957  0.1281 -0.0570  0.1162
 7158SOL     OW31787   1.631  10.679   4.999  0.0045 -0.0326 -0.0830
 7158SOL    HW131788   1.697  10.616   4.969 -0.3999  0.5004 -2.3318
 7158SOL    HW231789   1.621  10.739   4.925 -0.9887  1.5644  1.2848
 7159SOL     OW31790  10.369  12.599   4.364  0.1187 -0.2621  0.1752
 7159SOL    HW131791  10.318  12.623   4.441  0.0759  0.0923  0.0391
 7159SOL    HW231792  10.308  12.611   4.291  0.8458  1.6960 -0.1623
 7160SOL     OW31793  10.259   8.368  12.352  0.1589 -0.0202  0.3728
 7160SOL    HW131794  10.332   8.395  12.409 -0.2977 -0.5050  1.2129
 7160SOL    HW231795  10.229   8.285  12.390 -1.5977  0.7621  0.7543
 7161SOL     OW31796   1.151  12.635   4.614 -0.3412  0.1433  0.9221
 7161SOL    HW131797   1.158  12.638   4.709 -1.7003  1.3642  1.0135
 7161SOL    HW231798   1.116  12.721   4.589  1.7770  0.5757 -0.8644
 7162SOL     OW31799   2.866   0.528   7.909 -0.1385  0.8328  0.4881
 7162SOL    HW131800   2.803   0.597   7.930 -0.3312  0.1384  2.3242
 7162SOL    HW231801   2.951   0.566   7.932 -0.0687  1.0509 -0.1088
 7163SOL     OW31802   2.995   4.638  10.538 -0.6297  0.0430  0.4831
 7163SOL    HW131803   2.908   4.622  10.574 -0.2123  0.3357  1.6521
 7163SOL    HW231804   3.000   4.581  10.461 -2.6383  1.5994 -0.9002
 7164SOL     OW31805  11.569   2.897   5.300  0.8472 -0.2149 -0.1640
 7164SOL    HW131806  11.628   2.927   5.231 -0.3676  0.3274 -1.0093
 7164SOL    HW231807  11.482   2.899   5.260  0.2041 -0.6979  1.1316
 7165SOL     OW31808  10.968   9.007   5.028 -0.0019 -0.3904 -0.6531
 7165SOL    HW131809  10.966   8.928   5.082 -1.8898  0.9402  1.4307
 7165SOL    HW231810  11.050   9.050   5.053 -0.7670  0.1215  1.1381
 7166SOL     OW31811   3.501  11.450  12.445  0.2284 -0.0730 -0.0578
 7166SOL    HW131812   3.523  11.542  12.463 -0.2274  0.1963 -0.8420
 7166SOL    HW231813   3.484  11.447  12.351 -2.1245 -0.4559  0.3120
 7167SOL     OW31814   5.853   7.449   0.624  0.2570 -0.0380 -0.0278
 7167SOL    HW131815   5.888   7.410   0.544  1.7992 -1.1479  1.1386
 7167SOL    HW231816   5.920   7.511   0.652  0.1359 -0.2962  0.8650
 7168SOL     OW31817   2.552   8.043  11.486  0.0862  0.7818 -0.5025
 7168SOL    HW131818   2.551   8.088  11.401  0.5129  0.8020 -0.4995
 7168SOL    HW231819   2.501   8.100  11.543 -1.7492 -0.1230 -1.1822
 7169SOL     OW31820   2.666   7.660  12.220  0.6165  0.3073  0.3708
 7169SOL    HW131821   2.679   7.730  12.284  2.2154 -0.4331  0.8961
 7169SOL    HW231822   2.748   7.610  12.220  0.2712 -0.3744 -1.4680
 7170SOL     OW31823   3.426   1.345   5.767 -0.6360  0.0504 -0.5794
 7170SOL    HW131824   3.521   1.352   5.759 -0.4090 -2.5264 -1.3359
 7170SOL    HW231825   3.402   1.404   5.838  1.5830  0.4610 -0.1175
 7171SOL     OW31826  10.763   8.521   7.059 -0.1896 -0.3153  0.3155
 7171SOL    HW131827  10.672   8.517   7.030 -0.2035  1.0440  0.1366
 7171SOL    HW231828  10.777   8.437   7.104  0.0775 -2.9345 -4.0954
 7172SOL     OW31829  11.865   1.711   8.294  0.0213  0.4344  0.4103
 7172SOL    HW131830  11.952   1.682   8.267  1.3082  0.5010  3.8817
 7172SOL    HW231831  11.813   1.630   8.301  0.0379  0.3018 -0.8451
 7173SOL     OW31832  11.700  11.429   0.566 -0.1518  0.3196  0.3116
 7173SOL    HW131833  11.716  11.335   0.571  0.0633  0.3910  1.0929
 7173SOL    HW231834  11.645  11.440   0.489  0.0821 -0.4091  0.0347
 7174SOL     OW31835  11.990   5.851   6.664  0.0868 -0.3194 -0.2564
 7174SOL    HW131836  11.903   5.875   6.696  0.0661 -1.0088  0.2214
 7174SOL    HW231837  11.983   5.856   6.568  0.1097  1.6283 -0.2051
 7175SOL     OW31838   4.837   0.039   9.684  0.1337  0.0268  0.0515
 7175SOL    HW131839   4.855   0.010   9.594 -1.0317  0.2629 -0.2702
 7175SOL    HW231840   4.752   0.000   9.705  0.1912  0.3476  0.8924
 7176SOL     OW31841   3.526   7.845  12.874 -0.3080  0.3145 -0.1612
 7176SOL    HW131842   3.537   7.797  12.956 -1.3509 -0.1995 -0.3061
 7176SOL    HW231843   3.533   7.937  12.899  0.2005  0.1314  0.3706
 7177SOL     OW31844  10.059   9.558   9.591 -0.0234  0.4873 -0.0544
 7177SOL    HW131845   9.996   9.620   9.627  1.6221  1.7654  0.7406
 7177SOL    HW231846  10.119   9.612   9.539  0.2604 -0.7369 -1.0586
 7178SOL     OW31847   8.637   2.816   1.439  0.0234 -0.3271  0.1380
 7178SOL    HW131848   8.614   2.780   1.353  0.2555  0.3594 -0.2217
 7178SOL    HW231849   8.561   2.870   1.463  0.5291  0.6073 -0.2915
 7179SOL     OW31850   4.985   6.889  10.510  0.2104  0.4491  0.5773
 7179SOL    HW131851   4.972   6.914  10.601 -0.0527 -1.4245  1.0999
 7179SOL    HW231852   4.897   6.870  10.477  0.5026 -1.3660  0.7413
 7180SOL     OW31853   3.951   3.157   1.766 -0.6298  0.2642  0.0742
 7180SOL    HW131854   3.923   3.076   1.723  1.6047  0.2018 -1.4873
 7180SOL    HW231855   4.046   3.145   1.779  0.0285  3.0497 -1.3266
 7181SOL     OW31856   4.179   4.341   1.133  0.1630  0.7091 -0.3851
 7181SOL    HW131857   4.209   4.422   1.174  0.2643  0.0251  0.9430
 7181SOL    HW231858   4.145   4.289   1.205 -1.0700  0.0587 -1.3798
 7182SOL     OW31859   6.168   8.399  11.001  0.4949 -0.4261 -0.0224
 7182SOL    HW131860   6.261   8.398  11.022  0.5376 -0.8168 -0.2164
 7182SOL    HW231861   6.132   8.470  11.054  0.9756  0.0008 -0.2635
 7183SOL     OW31862   6.574  12.008   1.122  0.0624  0.3190 -0.0552
 7183SOL    HW131863   6.595  12.015   1.029 -0.4474 -1.5922 -0.3690
 7183SOL    HW231864   6.653  11.972   1.162 -0.1341 -0.0302  0.0244
 7184SOL     OW31865  12.481   1.396   8.057 -0.1192  0.3393 -0.0276
 7184SOL    HW131866  12.451   1.319   8.010  0.3161 -1.1325  1.9840
 7184SOL    HW231867  12.476   1.467   7.992 -1.5666 -1.1224 -1.6183
 7185SOL     OW31868   5.419   6.631   6.900  0.1449 -0.3092  0.1024
 7185SOL    HW131869   5.395   6.649   6.991 -0.7518  0.5009 -0.2790
 7185SOL    HW231870   5.456   6.713   6.869  2.3908 -1.1662  0.3085
 7186SOL     OW31871   7.171   3.553  12.004  0.3159 -0.2065 -0.4113
 7186SOL    HW131872   7.185   3.596  12.088  1.2823 -0.0507 -0.6362
 7186SOL    HW231873   7.089   3.506  12.014  0.5699 -0.4350  0.7227
 7187SOL     OW31874   2.188   1.619  12.814  0.1223  0.5340  0.0189
 7187SOL    HW131875   2.126   1.556  12.776 -1.6153  0.4873  2.6537
 7187SOL    HW231876   2.134   1.676  12.868  2.2171  1.4452  1.2884
 7188SOL     OW31877   9.704   1.923   7.032  0.1474  0.2428  0.1308
 7188SOL    HW131878   9.749   1.962   7.106 -1.3913  1.4464  0.4755
 7188SOL    HW231879   9.676   1.837   7.064  0.9779  0.0406  0.3467
 7189SOL     OW31880   2.632   7.834  12.568 -0.4783  0.6411  0.1175
 7189SOL    HW131881   2.711   7.852  12.619  0.4036  0.7730 -1.2531
 7189SOL    HW231882   2.606   7.746  12.595  1.0222 -0.0271 -0.4944
 7190SOL     OW31883  10.044  10.219   6.755  0.1799  0.4596  0.1614
 7190SOL    HW131884  10.075  10.148   6.811  0.0544  0.9579  0.8801
 7190SOL    HW231885  10.008  10.283   6.816 -0.9632  0.5314 -0.5673
 7191SOL     OW31886   4.310   0.955   3.744  0.0001 -0.5353 -0.4993
 7191SOL    HW131887   4.316   0.877   3.798 -0.0887  0.5281  1.1013
 7191SOL    HW231888   4.239   0.935   3.682 -0.6081 -1.3945  0.4370
 7192SOL     OW31889   1.120   0.916   8.660  0.0939  0.1153  0.3356
 7192SOL    HW131890   1.202   0.946   8.699  0.2118  1.5336 -0.8788
 7192SOL    HW231891   1.053   0.939   8.724  0.6237 -1.0848  1.3514
 7193SOL     OW31892   1.984  11.190  11.190 -0.1859 -0.6820 -0.2121
 7193SOL    HW131893   1.929  11.146  11.126 -1.8019 -0.4262  0.9269
 7193SOL    HW231894   1.999  11.277  11.153 -1.6027 -0.3306 -0.0387
 7194SOL     OW31895   8.450   4.462   5.909 -0.3804 -0.5370 -0.3299
 7194SOL    HW131896   8.400   4.537   5.879  1.3668  0.0871 -1.9037
 7194SOL    HW231897   8.407   4.386   5.869 -0.8412 -0.1550 -0.5627
 7195SOL     OW31898   9.617   9.505   1.691  0.0103 -0.0185 -0.3621
 7195SOL    HW131899   9.625   9.442   1.764  0.4454 -0.8761 -1.1291
 7195SOL    HW231900   9.529   9.490   1.657 -0.1268  0.2525 -0.1256
 7196SOL     OW31901   2.141   0.630   8.773 -0.0147  0.3512  0.1620
 7196SOL    HW131902   2.054   0.591   8.768  0.1155  0.0816 -0.0411
 7196SOL    HW231903   2.188   0.594   8.698 -0.0432  1.2715 -0.3194
 7197SOL     OW31904   8.054   5.744   7.149  0.3084 -0.2548 -0.1173
 7197SOL    HW131905   8.150   5.752   7.152  0.2277  0.5623  0.7674
 7197SOL    HW231906   8.039   5.656   7.115  1.3682 -0.2001 -0.7772
 7198SOL     OW31907   3.681   0.980   1.818  0.5091 -0.2846  0.1331
 7198SOL    HW131908   3.745   1.029   1.870  0.8096 -0.7592  0.2190
 7198SOL    HW231909   3.607   1.040   1.808 -0.2090 -0.6903  2.3984
 7199SOL     OW31910  11.660   9.885   0.251  0.5497 -0.0610 -0.4477
 7199SOL    HW131911  11.568   9.912   0.244  0.2828 -0.9704 -0.5845
 7199SOL    HW231912  11.710   9.959   0.216  0.0001  1.3201  1.4928
 7200SOL     OW31913   9.438   8.261   0.546  0.4127  0.0398 -0.5637
 7200SOL    HW131914   9.359   8.315   0.553  0.8384  0.6244 -0.1727
 7200SOL    HW231915   9.509   8.320   0.570  0.7399 -1.1164  1.4839
 7201SOL     OW31916   4.954   6.503  12.900 -0.2964 -0.0041 -0.2043
 7201SOL    HW131917   4.861   6.492  12.885 -0.7768  0.8688  1.8404
 7201SOL    HW231918   4.961   6.587  12.946  1.5860  0.3284 -0.9782
 7202SOL     OW31919   0.565   5.736  12.051 -0.2871 -0.5131 -0.2976
 7202SOL    HW131920   0.500   5.673  12.084  0.4114 -0.4458  1.2959
 7202SOL    HW231921   0.603   5.693  11.975 -0.7176 -1.4814  0.0095
 7203SOL     OW31922   9.960  11.210   0.267 -0.8800  0.7385 -0.2654
 7203SOL    HW131923   9.942  11.126   0.226 -1.0873  0.6709 -0.0338
 7203SOL    HW231924   9.888  11.223   0.328  0.2730  0.0659  1.3033
 7204SOL     OW31925   5.055   6.823   1.541  0.1430 -0.5318 -0.0938
 7204SOL    HW131926   5.014   6.754   1.594  0.6002 -0.4492  0.3716
 7204SOL    HW231927   5.055   6.900   1.598 -2.5826  0.5830 -1.4252
 7205SOL     OW31928   1.515  12.117  10.298 -0.2731  0.1365 -0.4782
 7205SOL    HW131929   1.570  12.151  10.369 -1.1622  0.4558  0.0715
 7205SOL    HW231930   1.572  12.118  10.222  0.3118  1.0660 -0.0559
 7206SOL     OW31931  12.274  11.098   9.563  0.1324 -0.0557 -0.7843
 7206SOL    HW131932  12.229  11.100   9.478  0.2214 -3.4024 -1.0409
 7206SOL    HW231933  12.325  11.017   9.561  0.1500 -0.2418  2.4818
 7207SOL     OW31934   3.311   1.115   7.150  0.0009  0.0547 -0.5942
 7207SOL    HW131935   3.253   1.072   7.088 -0.1498 -2.0864  0.9238
 7207SOL    HW231936   3.354   1.043   7.196  3.0241  1.5359 -0.8390
 7208SOL     OW31937   0.821   3.434   7.976  0.5978 -0.1560  0.1351
 7208SOL    HW131938   0.906   3.400   8.002  1.1790  1.9378  1.1005
 7208SOL    HW231939   0.835   3.527   7.960 -1.4938  0.2256  0.2141
 7209SOL     OW31940   9.891   9.733   3.259 -0.5298 -0.4497 -0.2709
 7209SOL    HW131941   9.859   9.740   3.349  0.8499 -2.1787  0.4294
 7209SOL    HW231942   9.928   9.645   3.254  2.2374  0.6757 -1.5586
 7210SOL     OW31943   6.486   1.643  12.436 -0.0876  0.2622 -0.2061
 7210SOL    HW131944   6.424   1.575  12.411 -2.3409  1.8450  0.6428
 7210SOL    HW231945   6.491   1.701  12.360 -0.8575  0.9402  0.2494
 7211SOL     OW31946  12.005   6.534   9.856  0.0075 -0.2947 -0.2195
 7211SOL    HW131947  12.013   6.484   9.775 -2.6374  0.0213 -0.7840
 7211SOL    HW231948  11.993   6.469   9.924  2.6280 -0.5805  0.0690
 7212SOL     OW31949   4.693   2.093   1.568  0.3336  0.2957  0.5959
 7212SOL    HW131950   4.740   2.016   1.538 -0.4725  0.1386 -0.3250
 7212SOL    HW231951   4.683   2.080   1.663  0.1630 -0.7515  0.4447
 7213SOL     OW31952   6.224   6.302  10.413  0.1099  0.1180  0.3563
 7213SOL    HW131953   6.172   6.367  10.366 -1.2286 -1.9780 -1.2822
 7213SOL    HW231954   6.160   6.237  10.444  1.5967 -2.7064 -1.9509
 7214SOL     OW31955   8.613  12.099   2.659  0.3009 -0.4159  0.1499
 7214SOL    HW131956   8.578  12.182   2.626  0.3392 -0.1599  0.7411
 7214SOL    HW231957   8.560  12.032   2.617 -0.7664 -0.0391  0.8679
 7215SOL     OW31958  11.691  12.403  10.119  0.3657  0.4323 -0.3524
 7215SOL    HW131959  11.638  12.455  10.179  0.5751 -1.2330  1.3668
 7215SOL    HW231960  11.773  12.387  10.166 -0.3887 -2.9527  0.0496
 7216SOL     OW31961   9.066   2.141   1.762 -0.0105 -0.1186  0.1792
 7216SOL    HW131962   9.157   2.121   1.783  0.1407  0.8480  0.5123
 7216SOL    HW231963   9.059   2.236   1.775 -0.9834 -0.1345 -0.1476
 7217SOL     OW31964   4.579   0.596   7.680  0.0995  0.9964  0.6283
 7217SOL    HW131965   4.548   0.512   7.648  0.9074  0.2402  1.7584
 7217SOL    HW231966   4.615   0.640   7.603 -1.6432  0.9575 -0.2606
 7218SOL     OW31967   2.592  11.784   4.427 -0.2442 -0.0868  0.0502
 7218SOL    HW131968   2.666  11.725   4.442 -0.2395 -0.3359 -0.9467
 7218SOL    HW231969   2.631  11.862   4.388 -0.5325 -0.3300 -0.7405
 7219SOL     OW31970   3.044   9.467  11.358 -0.3687  0.0107  0.6784
 7219SOL    HW131971   2.948   9.474  11.359 -0.3642  0.2088  0.1076
 7219SOL    HW231972   3.061   9.384  11.315 -0.2859 -0.0990  0.9234
 7220SOL     OW31973  12.544  10.539   1.246 -0.0444  0.0832  0.3658
 7220SOL    HW131974  12.460  10.495   1.261  0.5520 -1.1237  0.3085
 7220SOL    HW231975  12.569  10.512   1.158  1.1811 -0.9538  0.9937
 7221SOL     OW31976   6.990   3.991   3.621 -0.6674  0.4709  0.0857
 7221SOL    HW131977   7.057   3.990   3.553 -0.4318  1.0009  0.3026
 7221SOL    HW231978   7.037   4.016   3.701 -1.3290  2.1665 -0.0064
 7222SOL     OW31979   0.405   9.696   4.349  0.2659 -0.6541 -0.7010
 7222SOL    HW131980   0.460   9.643   4.407  3.2074  1.4542 -1.3125
 7222SOL    HW231981   0.397   9.644   4.269 -0.2178 -1.7910  0.0721
 7223SOL     OW31982   9.892   6.464  12.944  0.6621 -0.0643  0.3544
 7223SOL    HW131983   9.987   6.480  12.942  0.4712  1.2225 -2.3952
 7223SOL    HW231984   9.884   6.369  12.935  1.6650 -0.2570  1.2217
 7224SOL     OW31985   6.730  11.782  12.760 -0.3242  0.6809 -0.1886
 7224SOL    HW131986   6.637  11.769  12.778 -0.1597 -0.9288 -0.3513
 7224SOL    HW231987   6.737  11.874  12.734 -1.8216  0.8927  0.0775
 7225SOL     OW31988  12.613   8.687   8.243 -0.3640 -0.2447  0.1407
 7225SOL    HW131989  12.608   8.780   8.218 -1.6894 -0.4900 -0.6387
 7225SOL    HW231990  12.687   8.682   8.302  1.0877  0.9365 -1.4685
 7226SOL     OW31991   7.875  12.078   6.842 -0.2835  0.1174  0.4648
 7226SOL    HW131992   7.907  12.152   6.790 -0.2914  0.4168  0.8890
 7226SOL    HW231993   7.952  12.048   6.890 -0.6105  0.7910  1.4276
 7227SOL     OW31994   3.031   3.517   9.113 -0.5087 -0.6970 -0.4337
 7227SOL    HW131995   3.015   3.509   9.207 -0.0955 -0.0591 -0.3064
 7227SOL    HW231996   3.117   3.557   9.107 -0.6329 -0.5231 -1.0853
 7228SOL     OW31997   6.621   4.547   1.201  0.0777 -0.0450 -0.1190
 7228SOL    HW131998   6.678   4.524   1.128  0.5171 -0.2400  0.2801
 7228SOL    HW231999   6.643   4.638   1.221 -0.1048  0.0363 -0.2798
 7229SOL     OW32000  12.059   0.259  10.945  0.0292  0.1986  0.4330
 7229SOL    HW132001  12.038   0.312  10.868  1.5522 -0.8053 -0.7296
 7229SOL    HW232002  11.974   0.229  10.977 -0.6272  0.4375 -1.0081
 7230SOL     OW32003   0.361   9.256  10.304  0.5474 -0.5503  0.0591
 7230SOL    HW132004   0.334   9.275  10.394  0.8708 -0.5923  0.1672
 7230SOL    HW232005   0.308   9.315  10.251  0.4083 -0.4695  0.2829
 7231SOL     OW32006   4.892   7.964   5.957  0.0557 -0.3400 -0.0806
 7231SOL    HW132007   4.837   7.889   5.936  2.1911 -2.0414  0.0710
 7231SOL    HW232008   4.899   7.962   6.053  1.0580 -0.6762 -0.1518
 7232SOL     OW32009  10.723   4.005   4.155 -0.9066  0.2923  0.2627
 7232SOL    HW132010  10.709   3.910   4.156  2.5828 -0.3737  1.2346
 7232SOL    HW232011  10.691   4.034   4.241 -0.4193 -0.3188  0.6605
 7233SOL     OW32012  10.729   5.608   9.574 -0.2498  0.1251  0.0236
 7233SOL    HW132013  10.660   5.628   9.637  0.0662 -0.5817  0.6023
 7233SOL    HW232014  10.682   5.576   9.496 -0.6119  0.4767  0.0969
 7234SOL     OW32015   5.437   1.675   8.830 -0.3048 -0.0095 -0.0779
 7234SOL    HW132016   5.412   1.620   8.904  1.6511 -2.2738 -0.9357
 7234SOL    HW232017   5.428   1.765   8.861 -1.8143 -0.8351  2.0634
 7235SOL     OW32018   9.702   0.270  11.588 -0.1575  0.3407 -0.0174
 7235SOL    HW132019   9.712   0.195  11.529  1.0469  1.6224 -1.5310
 7235SOL    HW232020   9.781   0.323  11.573 -0.1980  1.1107  2.2053
 7236SOL     OW32021   2.425  10.122   5.286  0.3053 -0.2123  0.2760
 7236SOL    HW132022   2.414  10.085   5.374  2.1752 -1.7221 -0.0564
 7236SOL    HW232023   2.354  10.084   5.235  1.1777 -2.0636  0.3677
 7237SOL     OW32024   7.407  11.032   4.706  0.1189 -0.7523  0.4837
 7237SOL    HW132025   7.382  11.088   4.633  1.6191 -0.7201 -0.0199
 7237SOL    HW232026   7.323  11.001   4.742 -0.6787  0.5044 -0.2299
 7238SOL     OW32027   0.289   1.837   6.012  0.1269  0.3454  0.0400
 7238SOL    HW132028   0.305   1.914   6.066  0.8305  1.7426 -1.9949
 7238SOL    HW232029   0.311   1.866   5.923 -0.9977 -1.7871 -1.0125
 7239SOL     OW32030  11.536   4.776   3.801  0.2817  0.6328  0.1097
 7239SOL    HW132031  11.482   4.841   3.847  2.0722  1.4821  1.1251
 7239SOL    HW232032  11.617   4.823   3.780  0.8132 -0.7100 -0.9973
 7240SOL     OW32033   5.857  10.549   5.128 -0.1582  0.0130  0.1729
 7240SOL    HW132034   5.836  10.632   5.170 -1.9774 -0.4892  0.3272
 7240SOL    HW232035   5.828  10.482   5.190 -0.0194 -0.7353 -0.5528
 7241SOL     OW32036   4.856   2.362   5.040  0.0525  0.5956 -0.2150
 7241SOL    HW132037   4.903   2.391   5.118 -0.6985  2.2016 -0.3280
 7241SOL    HW232038   4.879   2.427   4.973 -1.0907  0.5194 -0.6924
 7242SOL     OW32039  10.190   3.732  11.831 -0.1914  0.3293 -0.3457
 7242SOL    HW132040  10.179   3.681  11.751 -1.4231  2.6679 -1.7854
 7242SOL    HW232041  10.171   3.671  11.902  0.3537 -1.6682 -1.8531
 7243SOL     OW32042   7.985   8.745   4.998  0.6569  0.2159  0.0254
 7243SOL    HW132043   7.939   8.805   5.057 -0.3308 -1.9751  1.6239
 7243SOL    HW232044   8.072   8.784   4.988 -0.1534  2.2457  0.3945
 7244SOL     OW32045   4.936  11.818   4.484  0.1060  0.0232 -0.6589
 7244SOL    HW132046   4.920  11.739   4.536 -1.3253  0.7949  0.1517
 7244SOL    HW232047   4.996  11.790   4.415  0.8782 -1.3917  0.5251
 7245SOL     OW32048   8.545  12.938   2.361  0.1601  0.0640  0.2989
 7245SOL    HW132049   8.469  12.880   2.364 -0.7465  1.2387  1.2424
 7245SOL    HW232050   8.588  12.924   2.445 -0.1019  0.7898  0.5577
 7246SOL     OW32051   7.811   3.582   1.766  0.6933 -0.2313  0.2554
 7246SOL    HW132052   7.768   3.506   1.806 -0.2742 -0.0564 -0.4150
 7246SOL    HW232053   7.817   3.560   1.673  0.3747  0.5102  0.0480
 7247SOL     OW32054   1.692   0.572  10.341  0.1177  0.0741  0.1384
 7247SOL    HW132055   1.753   0.614  10.402 -1.2983  2.3834  0.1057
 7247SOL    HW232056   1.635   0.643  10.313 -2.3962 -1.8927 -0.0686
 7248SOL     OW32057   3.058   9.677   8.442  0.0156 -0.1580  0.2480
 7248SOL    HW132058   3.117   9.664   8.368 -0.8121 -2.1956 -0.1218
 7248SOL    HW232059   3.109   9.653   8.518  0.2029 -0.2035  0.1084
 7249SOL     OW32060   0.232  11.484  10.550 -0.4422  0.5782 -0.2987
 7249SOL    HW132061   0.166  11.424  10.516 -0.8456  0.6460  0.3444
 7249SOL    HW232062   0.194  11.518  10.631  0.0844  1.1563 -0.2848
 7250SOL     OW32063   0.004   9.184   6.407 -0.1223 -0.6465 -0.3081
 7250SOL    HW132064   0.021   9.279   6.409  2.3532 -1.0204 -0.7698
 7250SOL    HW232065   0.008   9.161   6.315 -0.9209 -1.1885 -0.2143
 7251SOL     OW32066   0.636  11.581   8.430 -0.2502  0.0599 -0.6228
 7251SOL    HW132067   0.652  11.560   8.523  0.9261 -1.5611 -1.1386
 7251SOL    HW232068   0.723  11.603   8.396 -0.8837  2.1746 -1.0440
 7252SOL     OW32069   3.541   3.206   1.020 -0.1287  0.9419 -0.1952
 7252SOL    HW132070   3.604   3.261   0.974 -0.1174  0.6792 -0.4966
 7252SOL    HW232071   3.539   3.124   0.971 -0.1605  0.6775  0.2369
 7253SOL     OW32072   9.544  12.481   7.528 -0.2813  0.6328  0.1619
 7253SOL    HW132073   9.510  12.453   7.613 -1.4035  0.9901 -0.1411
 7253SOL    HW232074   9.521  12.409   7.469  1.4988 -0.1290  0.3490
 7254SOL     OW32075   1.495   3.941  11.957  0.1085  0.0110 -0.0282
 7254SOL    HW132076   1.438   3.981  12.022 -1.5873  0.1019 -1.5089
 7254SOL    HW232077   1.545   4.014  11.921  0.5689  0.0537  0.6777
 7255SOL     OW32078   8.298  11.596   9.732  0.0360 -0.1036  0.2786
 7255SOL    HW132079   8.221  11.583   9.788 -0.2175 -0.6655 -0.2040
 7255SOL    HW232080   8.346  11.514   9.737  0.6908  0.2930  0.6918
 7256SOL     OW32081   6.545   3.382   9.514  0.0859 -0.3499  0.6415
 7256SOL    HW132082   6.495   3.359   9.436 -0.3438 -2.0583  1.3619
 7256SOL    HW232083   6.565   3.475   9.503 -1.3919 -0.1334 -0.7018
 7257SOL     OW32084   1.527   7.827  10.719 -0.5496  0.3984 -0.2457
 7257SOL    HW132085   1.520   7.911  10.674  0.8383  0.1915 -0.8864
 7257SOL    HW232086   1.560   7.766  10.653  0.6102 -0.1306  0.7727
 7258SOL     OW32087   5.996   2.541  12.075 -0.5683 -0.4430 -0.2419
 7258SOL    HW132088   6.080   2.495  12.082 -1.3207 -1.9125 -0.4986
 7258SOL    HW232089   5.976   2.540  11.981 -0.6476  0.3713 -0.2462
 7259SOL     OW32090  11.633   2.030   1.285  0.0365 -0.3838 -0.1351
 7259SOL    HW132091  11.693   1.976   1.336  0.0798 -0.0652  0.1613
 7259SOL    HW232092  11.605   1.975   1.212 -0.7795 -1.1948  0.7656
 7260SOL     OW32093  10.587  11.279  11.624  0.3897 -0.5877  0.3902
 7260SOL    HW132094  10.564  11.371  11.617  1.2468 -0.3777  0.2540
 7260SOL    HW232095  10.521  11.234  11.571  0.3693  0.0141 -0.1075
 7261SOL     OW32096   4.361  11.019   7.950 -0.1269 -0.3529  0.1778
 7261SOL    HW132097   4.309  11.092   7.918  1.3670  0.2943 -0.8579
 7261SOL    HW232098   4.419  10.996   7.877  0.8060 -1.2767  1.1641
 7262SOL     OW32099  10.068   7.933   7.675 -0.3376  0.7253  0.6813
 7262SOL    HW132100   9.997   7.958   7.734 -0.1545 -0.0749  1.2660
 7262SOL    HW232101  10.026   7.873   7.612 -0.5298  1.5641 -0.0024
 7263SOL     OW32102   8.012  11.952   2.882  0.7621  0.0830 -0.5257
 7263SOL    HW132103   8.096  11.995   2.867  0.8990  0.3293  0.8088
 7263SOL    HW232104   8.032  11.859   2.883  1.4841  0.1881  2.0901
 7264SOL     OW32105   3.907   3.411  11.660  0.2834  0.0394  0.0924
 7264SOL    HW132106   3.927   3.324  11.623 -1.2364 -0.3032  0.0368
 7264SOL    HW232107   3.849   3.451  11.596  1.7119  1.5108 -0.3419
 7265SOL     OW32108   3.754   1.341   4.786 -0.0861  0.8179  0.3791
 7265SOL    HW132109   3.694   1.342   4.861 -0.2711  2.5779  0.2423
 7265SOL    HW232110   3.799   1.257   4.793 -0.5366  0.6840  2.1168
 7266SOL     OW32111   0.054   4.919   8.561  0.0123 -0.0889 -0.2045
 7266SOL    HW132112   0.043   4.853   8.493 -0.0840 -0.4772  0.1794
 7266SOL    HW232113   0.070   4.868   8.641  0.4158  0.3661  0.0075
 7267SOL     OW32114  11.536   3.085   8.542 -0.4220  0.2845 -0.2145
 7267SOL    HW132115  11.584   3.168   8.540 -1.6751  1.0110 -1.5447
 7267SOL    HW232116  11.578   3.032   8.474  0.8977 -0.5265  1.1623
 7268SOL     OW32117   6.179   5.788   2.105 -0.2755  0.1222  0.4000
 7268SOL    HW132118   6.236   5.737   2.163 -1.7226  0.9128  2.6495
 7268SOL    HW232119   6.199   5.879   2.126 -0.5712  0.4529 -0.6662
 7269SOL     OW32120  12.207  10.994   4.781  0.1860 -0.0599  0.1792
 7269SOL    HW132121  12.280  10.943   4.745 -0.1345 -1.0865  0.9200
 7269SOL    HW232122  12.166  11.034   4.705  0.5884 -0.7343 -0.4051
 7270SOL     OW32123   3.265  11.595   0.150  0.3572 -0.4405 -0.6509
 7270SOL    HW132124   3.298  11.674   0.107 -3.5119  1.4009 -0.6966
 7270SOL    HW232125   3.208  11.554   0.085 -1.5309 -0.4753  0.9070
 7271SOL     OW32126   0.925   8.438   3.638 -0.1873 -0.4375  0.2319
 7271SOL    HW132127   0.872   8.409   3.713  1.8171 -0.2271  1.8320
 7271SOL    HW232128   0.911   8.372   3.571  1.4058 -3.2415  2.4428
 7272SOL     OW32129   3.356   0.543  12.430 -0.1451 -0.3334 -0.2455
 7272SOL    HW132130   3.298   0.605  12.386 -0.6754 -0.9210 -0.3888
 7272SOL    HW232131   3.391   0.489  12.360 -0.1431 -0.5797 -0.0545
 7273SOL     OW32132   0.659   3.447   6.067  0.1294 -0.4815 -0.2616
 7273SOL    HW132133   0.606   3.470   5.990 -0.1839  2.1993  0.6423
 7273SOL    HW232134   0.742   3.493   6.053 -0.3052  0.9002  1.4085
 7274SOL     OW32135   0.741  10.310  11.606 -0.2042  0.1614 -0.0197
 7274SOL    HW132136   0.757  10.277  11.518  1.0274 -1.2162  0.6837
 7274SOL    HW232137   0.823  10.353  11.630 -1.5042  3.2867 -0.6315
 7275SOL     OW32138   6.908   1.165   7.492  0.5460 -0.1089  0.2108
 7275SOL    HW132139   6.853   1.150   7.568  1.1120 -0.5736  0.5430
 7275SOL    HW232140   6.857   1.223   7.436 -1.1500 -2.0653 -0.4222
 7276SOL     OW32141   8.072   1.537   3.625  0.0048 -0.4483 -0.7250
 7276SOL    HW132142   8.089   1.553   3.717 -0.7934  1.8547 -0.9114
 7276SOL    HW232143   8.151   1.494   3.593  1.1574  0.6015  0.5845
 7277SOL     OW32144   1.187   1.683  11.417 -0.1546 -0.6907  0.1854
 7277SOL    HW132145   1.172   1.598  11.376  0.4613 -1.0611  0.7030
 7277SOL    HW232146   1.100   1.716  11.439 -0.6123  0.0296 -2.3781
 7278SOL     OW32147   4.923   7.379   4.396 -0.2231 -0.1966 -0.3509
 7278SOL    HW132148   4.983   7.322   4.444 -1.0869 -2.8564 -2.1935
 7278SOL    HW232149   4.836   7.347   4.419 -0.9630  2.3030  0.7232
 7279SOL     OW32150   5.274  10.200   9.126 -0.3930 -0.2510 -1.1176
 7279SOL    HW132151   5.305  10.134   9.188 -2.1504 -0.6784 -0.6347
 7279SOL    HW232152   5.261  10.152   9.045 -1.0759 -0.3732 -0.9397
 7280SOL     OW32153  10.956  12.912  10.072  0.1968 -0.5607 -0.2365
 7280SOL    HW132154  10.924  12.993  10.111  0.4404  0.8256 -2.7703
 7280SOL    HW232155  11.019  12.878  10.136 -1.0375  0.3808  1.5605
 7281SOL     OW32156   2.758  11.870  11.286 -0.1348 -0.0659  0.7254
 7281SOL    HW132157   2.709  11.846  11.207 -1.0658  0.3829  1.1434
 7281SOL    HW232158   2.829  11.926  11.254 -0.2395 -0.2491  0.1564
 7282SOL     OW32159  11.644   5.243  10.693 -0.3066 -0.1551 -0.1585
 7282SOL    HW132160  11.715   5.190  10.658  0.1165 -0.2606  0.8279
 7282SOL    HW232161  11.571   5.182  10.703 -0.4918 -0.0829 -1.0172
 7283SOL     OW32162   6.775   6.830   8.271  0.0908  1.1402 -0.2595
 7283SOL    HW132163   6.834   6.865   8.338  0.4118  0.8322 -0.3777
 7283SOL    HW232164   6.825   6.838   8.189 -0.2414  1.3761 -0.4387
 7284SOL     OW32165   1.506   3.167  12.480 -0.0359  0.2973 -0.0396
 7284SOL    HW132166   1.419   3.172  12.519  0.5632 -1.7296  1.7001
 7284SOL    HW232167   1.566   3.178  12.553  1.1998  0.7827 -1.0864
 7285SOL     OW32168   1.072   4.201   8.463 -0.0754 -0.2611  0.6562
 7285SOL    HW132169   1.029   4.217   8.379  3.0248  1.0665 -0.8603
 7285SOL    HW232170   1.154   4.158   8.440 -0.1392 -2.0493  3.2962
 7286SOL     OW32171  12.602  11.009   3.378  0.0736  0.4937  0.3870
 7286SOL    HW132172  12.616  10.923   3.418  1.0513  0.6510  0.3972
 7286SOL    HW232173  12.623  10.997   3.286 -2.9764 -0.0734 -0.3499
 7287SOL     OW32174  10.129   8.499   7.360  0.2021 -0.2651 -0.1108
 7287SOL    HW132175  10.141   8.574   7.419 -0.7502 -1.7965  2.1771
 7287SOL    HW232176  10.212   8.451   7.366  0.8975  0.6537 -1.7570
 7288SOL     OW32177   1.265  12.571   8.717 -0.3208  0.1490 -0.3133
 7288SOL    HW132178   1.209  12.613   8.783 -2.0053  2.0061 -2.7292
 7288SOL    HW232179   1.348  12.617   8.724 -0.2905 -0.0301  0.8004
 7289SOL     OW32180   9.851  12.514   1.786  0.1674  0.7728  0.0070
 7289SOL    HW132181   9.853  12.599   1.832 -0.5955  0.5889  0.4083
 7289SOL    HW232182   9.789  12.527   1.714  1.5871  1.1497 -1.1893
 7290SOL     OW32183  10.446   5.418  12.306 -0.6611  0.7850 -0.1665
 7290SOL    HW132184  10.351   5.407  12.305 -0.4725 -1.1506  0.0146
 7290SOL    HW232185  10.481   5.329  12.303  1.1993  1.4905 -2.4741
 7291SOL     OW32186   9.994   4.917   6.284 -0.1110 -0.4182 -0.4937
 7291SOL    HW132187   9.942   4.852   6.331  0.8876 -0.3533  0.7568
 7291SOL    HW232188  10.077   4.874   6.266  0.0130  0.0172 -1.0098
 7292SOL     OW32189   2.273  10.076   1.565 -0.2966  0.4472 -0.2537
 7292SOL    HW132190   2.292  10.065   1.472 -0.9444 -0.4725 -0.2841
 7292SOL    HW232191   2.280   9.988   1.602 -0.2703  0.7707  0.5274
 7293SOL     OW32192   2.809   2.735   2.138  0.5629 -0.0263  0.1316
 7293SOL    HW132193   2.844   2.716   2.051 -2.9244  0.4573 -1.5357
 7293SOL    HW232194   2.776   2.650   2.169 -1.3598  0.3919 -0.6465
 7294SOL     OW32195   8.732  12.924   1.979  0.2020 -0.6376  0.3847
 7294SOL    HW132196   8.801  12.986   1.955  0.1371 -0.3748  0.8672
 7294SOL    HW232197   8.774  12.838   1.974 -0.1486 -0.7252 -1.9136
 7295SOL     OW32198   6.113   3.775   7.198  0.0997  0.5591 -0.2497
 7295SOL    HW132199   6.160   3.726   7.129  0.5201  1.5767 -0.7135
 7295SOL    HW232200   6.176   3.779   7.270 -1.0543 -2.2796  1.0745
 7296SOL     OW32201  12.784   7.943   4.784  0.0142 -0.2128 -0.1627
 7296SOL    HW132202  12.807   7.854   4.812 -1.5495 -0.3207  0.8446
 7296SOL    HW232203  12.762   7.934   4.692 -3.6010 -1.6531  0.6649
 7297SOL     OW32204   9.116   6.084   1.709  0.4257 -0.2237  0.1482
 7297SOL    HW132205   9.123   6.060   1.617  0.1055  1.6512 -0.4046
 7297SOL    HW232206   9.163   6.167   1.715 -1.1919  0.6469  1.2710
 7298SOL     OW32207   3.325   5.860   4.301  0.1519 -0.1813  0.2262
 7298SOL    HW132208   3.403   5.819   4.340  0.4859  1.7938  1.7806
 7298SOL    HW232209   3.269   5.786   4.278  1.3796 -1.5754  1.4434
 7299SOL     OW32210   0.303   9.140   9.265 -0.1446 -0.2449 -0.0016
 7299SOL    HW132211   0.297   9.068   9.328  0.7973 -1.0747 -0.8209
 7299SOL    HW232212   0.311   9.097   9.180  1.5514  0.7830 -0.4145
 7300SOL     OW32213   6.429  10.430   2.984 -0.2601 -0.2101  0.0029
 7300SOL    HW132214   6.342  10.421   3.023  0.6962 -1.3181  2.0707
 7300SOL    HW232215   6.413  10.438   2.890 -2.5668 -0.7601  0.2871
 7301SOL     OW32216   7.786   0.934  11.211  0.5417 -0.0271 -0.4527
 7301SOL    HW132217   7.747   1.020  11.228 -0.0586 -0.2049 -0.9010
 7301SOL    HW232218   7.731   0.873  11.260 -0.1902 -0.3542 -1.6296
 7302SOL     OW32219  10.826  10.642   2.711  0.2427  0.1675 -0.1455
 7302SOL    HW132220  10.791  10.584   2.778  1.6620  0.3439  0.8034
 7302SOL    HW232221  10.769  10.718   2.712 -0.4922 -0.3738 -0.0352
 7303SOL     OW32222   1.041   7.523   3.463 -0.0423  0.1958 -0.0101
 7303SOL    HW132223   1.090   7.601   3.491 -0.2027  0.2440  0.1405
 7303SOL    HW232224   1.070   7.454   3.523  0.5371 -0.0100 -0.5104
 7304SOL     OW32225   9.002   9.600  12.342  1.0564  0.0785  0.1411
 7304SOL    HW132226   8.996   9.646  12.426 -3.9777 -1.3375  0.8853
 7304SOL    HW232227   9.057   9.523  12.361 -0.1910 -0.3780  2.3223
 7305SOL     OW32228   2.623   8.176   1.092  0.0346 -0.4503  0.1990
 7305SOL    HW132229   2.648   8.263   1.060  0.5573  0.4139  2.7570
 7305SOL    HW232230   2.698   8.120   1.072 -0.1191 -0.2624 -1.0387
 7306SOL     OW32231   9.978   1.396   3.467  0.4280  0.5089  0.5313
 7306SOL    HW132232   9.911   1.348   3.517  0.2336 -1.4677 -1.4793
 7306SOL    HW232233  10.061   1.369   3.506  0.2125  0.1325  0.7373
 7307SOL     OW32234   8.742   3.227   1.413 -0.6694 -0.0206  0.0913
 7307SOL    HW132235   8.724   3.151   1.469  0.9512 -0.4061  0.1421
 7307SOL    HW232236   8.713   3.302   1.465 -1.9580 -0.5602  0.1884
 7308SOL     OW32237   1.465   5.882   2.885  0.0280 -0.7376  0.0534
 7308SOL    HW132238   1.429   5.795   2.899 -0.9095 -0.3041  0.4134
 7308SOL    HW232239   1.408   5.921   2.818  0.2716 -0.3014  0.0951
 7309SOL     OW32240   8.970   5.903   2.260 -0.1026  0.5852 -0.2415
 7309SOL    HW132241   8.886   5.947   2.245 -0.0688  0.5476 -0.5424
 7309SOL    HW232242   8.998   5.935   2.346 -1.0001 -0.3240  0.4111
 7310SOL     OW32243   0.261  11.902   0.933  0.4907  0.1855 -0.4616
 7310SOL    HW132244   0.289  11.936   0.848  2.3971 -0.7865 -0.2755
 7310SOL    HW232245   0.240  11.981   0.984 -0.0738  0.8083 -1.6065
 7311SOL     OW32246   8.065   3.656   7.359  0.0668 -0.3271 -0.2949
 7311SOL    HW132247   8.078   3.586   7.295  2.2116  0.5247 -0.8994
 7311SOL    HW232248   7.992   3.707   7.326  1.2646  0.2231 -2.2401
 7312SOL     OW32249   1.923   5.603  10.656  0.5091 -0.3395 -0.7029
 7312SOL    HW132250   1.871   5.642  10.726  1.7430  0.2898 -0.1028
 7312SOL    HW232251   1.864   5.541  10.613 -0.3832 -0.4697  0.6672
 7313SOL     OW32252   3.664  10.257  11.587  0.8999  0.0984 -0.6282
 7313SOL    HW132253   3.705  10.218  11.664  0.3871  0.3704 -0.2194
 7313SOL    HW232254   3.721  10.330  11.564  1.2141 -0.1613 -0.6932
 7314SOL     OW32255   6.139   3.189   9.524  0.0222 -0.0972  0.2802
 7314SOL    HW132256   6.044   3.188   9.534 -0.7223  5.0095 -2.4356
 7314SOL    HW232257   6.156   3.145   9.441 -0.3972  0.9870 -0.4096
 7315SOL     OW32258   4.600  12.701   2.266  0.0878 -0.1945  0.1149
 7315SOL    HW132259   4.616  12.703   2.361 -0.3135 -0.3378  0.1878
 7315SOL    HW232260   4.584  12.609   2.246 -0.7461 -0.0493  0.0719
 7316SOL     OW32261   6.760   5.401   4.388 -0.3580  0.2894  0.1038
 7316SOL    HW132262   6.812   5.323   4.371 -0.5883  0.1237  0.1463
 7316SOL    HW232263   6.709   5.380   4.466 -1.6929 -0.1843 -0.8529
 7317SOL     OW32264   3.353   6.900   4.627 -0.1598  0.3679  0.5330
 7317SOL    HW132265   3.401   6.833   4.675 -2.9143 -1.0172  1.6102
 7317SOL    HW232266   3.369   6.880   4.534 -0.5076 -1.5316  0.8399
 7318SOL     OW32267   6.163   7.824   2.105  0.0279  0.2591 -0.1351
 7318SOL    HW132268   6.166   7.729   2.088  1.1018  0.6101 -2.1744
 7318SOL    HW232269   6.158   7.831   2.200 -2.7076 -1.8827  0.0296
 7319SOL     OW32270   6.769   6.909  10.677 -0.2644 -0.3592 -0.4548
 7319SOL    HW132271   6.803   6.890  10.765 -0.1506 -0.1855 -0.4609
 7319SOL    HW232272   6.756   6.823  10.637 -0.9843 -0.4605 -0.0146
 7320SOL     OW32273   8.193  12.680   5.890  0.3252 -0.0838  0.2529
 7320SOL    HW132274   8.157  12.731   5.963  0.1545 -0.3875  0.3819
 7320SOL    HW232275   8.180  12.589   5.916  1.1401 -0.2046  0.2807
 7321SOL     OW32276   7.055   9.376  12.239  0.0597 -0.4795  0.0846
 7321SOL    HW132277   7.051   9.371  12.144 -0.1170  0.1894  0.0565
 7321SOL    HW232278   6.970   9.344  12.269  0.4421 -1.5587  0.0594
 7322SOL     OW32279  10.980   7.463   2.177 -0.1483 -0.1041 -0.0931
 7322SOL    HW132280  10.924   7.505   2.111 -1.1051  0.3208  0.9482
 7322SOL    HW232281  11.053   7.427   2.127  0.2820  2.0732 -1.1346
 7323SOL     OW32282   0.043   0.889  12.453 -0.0373 -0.3232  0.1098
 7323SOL    HW132283   0.057   0.903  12.547  3.0562 -1.3024 -0.0730
 7323SOL    HW232284  -0.040   0.932  12.434  0.2212  1.6802  2.8911
 7324SOL     OW32285   0.712  12.740   4.751 -0.2475 -0.0727 -0.1877
 7324SOL    HW132286   0.728  12.658   4.798  0.3431  0.1480  0.0037
 7324SOL    HW232287   0.636  12.778   4.794 -0.7700 -0.7076 -0.5306
 7325SOL     OW32288   0.872   1.051   4.103 -0.1751 -0.4472 -0.3130
 7325SOL    HW132289   0.777   1.052   4.118 -0.1638 -1.5735 -0.0745
 7325SOL    HW232290   0.901   0.969   4.143  0.9121 -0.0790 -0.3359
 7326SOL     OW32291   5.896   9.636  12.931 -0.7495 -0.1640  0.6582
 7326SOL    HW132292   5.978   9.608  12.891 -0.6225 -0.6732  1.2547
 7326SOL    HW232293   5.903   9.609  13.023 -1.2303  0.5487  0.9160
 7327SOL     OW32294  11.970   8.001   6.815 -0.1251 -0.1293  0.0420
 7327SOL    HW132295  12.053   8.036   6.849 -0.8009 -0.1261  1.8193
 7327SOL    HW232296  11.969   8.026   6.723  2.5414 -1.4175 -0.4360
 7328SOL     OW32297   0.895   5.229   7.436  0.4018 -0.5506  0.7881
 7328SOL    HW132298   0.806   5.211   7.467 -0.6211 -0.1762 -1.7469
 7328SOL    HW232299   0.898   5.324   7.426  1.1876 -0.5388  1.0519
 7329SOL     OW32300   9.732   5.950   7.865 -0.1500 -0.3028  0.1727
 7329SOL    HW132301   9.672   6.011   7.822 -1.7582 -1.7665  0.2697
 7329SOL    HW232302   9.819   5.987   7.847 -1.0154  1.7344 -0.1850
 7330SOL     OW32303   5.004   6.781   3.862 -0.1632  0.4670  0.4186
 7330SOL    HW132304   5.035   6.759   3.774  2.5557 -0.5370  1.5011
 7330SOL    HW232305   5.000   6.876   3.864  2.0931  0.6198 -0.1410
 7331SOL     OW32306  10.004   6.417   1.966  0.6745  0.2600 -0.2054
 7331SOL    HW132307  10.028   6.502   2.004  0.8913 -0.6463  1.7862
 7331SOL    HW232308  10.068   6.355   2.002  1.4194 -0.5684 -2.7608
 7332SOL     OW32309  12.708  12.956  11.749 -0.0244 -0.4333  0.3343
 7332SOL    HW132310  12.764  12.944  11.826  0.6040 -1.2843 -0.2390
 7332SOL    HW232311  12.670  12.870  11.733 -0.8232 -0.0622  0.1856
 7333SOL     OW32312  11.708   6.322   6.809 -0.0721 -0.2139 -0.1325
 7333SOL    HW132313  11.664   6.273   6.740  1.0761 -0.6824 -0.5596
 7333SOL    HW232314  11.641   6.382   6.842 -0.7382 -0.1998 -1.4323
 7334SOL     OW32315   0.733  12.890   0.683  0.1262 -0.5029 -0.1667
 7334SOL    HW132316   0.718  12.984   0.681 -1.1785 -0.6774  0.6765
 7334SOL    HW232317   0.725  12.863   0.591  0.4208  0.1852 -0.4003
 7335SOL     OW32318   9.411   1.781   4.457  0.5952  0.1046  0.3647
 7335SOL    HW132319   9.448   1.703   4.414  1.5834  1.7571 -1.9993
 7335SOL    HW232320   9.425   1.852   4.394 -1.8567  1.8875  1.6526
 7336SOL     OW32321   3.112   9.175   8.988 -0.0235  0.0472  0.1126
 7336SOL    HW132322   3.173   9.101   8.982 -0.7743 -0.5474 -0.3705
 7336SOL    HW232323   3.099   9.188   9.081 -0.0442 -0.5653  0.1955
 7337SOL     OW32324   8.830   0.852   9.484  0.4360 -0.2964 -0.3358
 7337SOL    HW132325   8.898   0.915   9.461  1.0840 -0.2964  1.3987
 7337SOL    HW232326   8.751   0.884   9.440  1.3265  0.2682 -1.5553
 7338SOL     OW32327   4.789  11.700   9.191 -0.1533 -0.4204  0.2485
 7338SOL    HW132328   4.836  11.770   9.146 -0.8904  1.2858  2.0330
 7338SOL    HW232329   4.858  11.638   9.215  0.8004  0.6361  0.3319
 7339SOL     OW32330   0.237   2.845   3.101 -0.3861  0.4873 -0.5069
 7339SOL    HW132331   0.260   2.885   3.185 -1.0528  0.7532 -0.4386
 7339SOL    HW232332   0.271   2.756   3.107 -0.8967  0.3270  0.2821
 7340SOL     OW32333   6.146  11.888   7.882 -1.2369 -0.3506 -0.2630
 7340SOL    HW132334   6.155  11.893   7.787 -1.1248  0.2740 -0.2205
 7340SOL    HW232335   6.074  11.947   7.904  0.1359  1.2127  0.2393
 7341SOL     OW32336  12.549  10.558   5.920 -0.3204 -0.6965 -0.2340
 7341SOL    HW132337  12.534  10.612   5.998  2.6866 -1.6933  1.1932
 7341SOL    HW232338  12.461  10.543   5.885 -1.6202  1.6153  1.6663
 7342SOL     OW32339   3.409   5.056   9.477  0.0885 -0.3435  0.4578
 7342SOL    HW132340   3.355   5.118   9.428  0.8127  0.3763  0.5447
 7342SOL    HW232341   3.364   5.046   9.561  0.6893  1.2220  1.0254
 7343SOL     OW32342   8.537   3.462   1.207 -0.0360 -0.9910  0.1285
 7343SOL    HW132343   8.575   3.480   1.293 -0.9511 -0.7529  0.4947
 7343SOL    HW232344   8.564   3.373   1.187  0.8305 -0.7749  0.3115
 7344SOL     OW32345   9.170   9.852   6.054 -0.2703  0.6186 -0.1725
 7344SOL    HW132346   9.228   9.797   6.106 -0.2517 -0.4987 -1.3170
 7344SOL    HW232347   9.103   9.882   6.115  0.2932  0.1346  0.6906
 7345SOL     OW32348   3.754   1.771   9.995 -0.3605  0.0514 -0.0828
 7345SOL    HW132349   3.739   1.865  10.003  0.1144  0.1263 -0.0871
 7345SOL    HW232350   3.812   1.749  10.068 -0.0255 -0.1395 -0.4029
 7346SOL     OW32351   9.976   2.713   4.435 -0.6556 -0.4450  0.3306
 7346SOL    HW132352   9.971   2.644   4.501  1.7049 -2.6238 -1.5588
 7346SOL    HW232353   9.944   2.672   4.355 -0.0827  0.9401 -0.6500
 7347SOL     OW32354  10.074   2.745   0.228  0.0195  0.3915  0.0681
 7347SOL    HW132355  10.099   2.653   0.231 -1.2635  0.0354  1.6709
 7347SOL    HW232356  10.138   2.789   0.283  0.3341  0.3802 -0.2866
 7348SOL     OW32357   3.351   5.365   1.958 -0.4557  0.2348  0.1244
 7348SOL    HW132358   3.348   5.274   1.986 -1.4270 -0.0026 -0.6788
 7348SOL    HW232359   3.393   5.362   1.872  2.2171  0.9144  1.3049
 7349SOL     OW32360   5.452   1.080   1.054  0.1437 -0.5001  0.1383
 7349SOL    HW132361   5.450   1.136   0.976  1.8761  1.2220  1.2591
 7349SOL    HW232362   5.425   1.137   1.126 -0.4309 -1.7959  0.9961
 7350SOL     OW32363   8.868  10.604   1.722 -0.1899  0.5388  0.2234
 7350SOL    HW132364   8.837  10.588   1.811  0.2478  0.1853  0.3180
 7350SOL    HW232365   8.909  10.691   1.727  0.2816  0.3045  0.4931
 7351SOL     OW32366   7.898   8.856   6.199  0.7252 -0.0048  0.0396
 7351SOL    HW132367   7.910   8.776   6.250 -1.2256 -1.1771 -1.1845
 7351SOL    HW232368   7.915   8.830   6.109 -1.6092  0.4312 -0.6100
 7352SOL     OW32369  11.523   4.601   4.859 -0.2783  0.3243  0.5340
 7352SOL    HW132370  11.453   4.643   4.810  0.6923  0.8142 -0.4588
 7352SOL    HW232371  11.485   4.518   4.889 -1.5117  0.9175  0.6665
 7353SOL     OW32372   5.172   9.084   3.115  0.0387  0.4413  0.1155
 7353SOL    HW132373   5.208   9.123   3.195  0.4170  0.6352 -0.1491
 7353SOL    HW232374   5.086   9.124   3.105 -0.0026  0.4293  0.4188
 7354SOL     OW32375   6.670   2.655   4.750  0.0764 -0.3793 -0.5049
 7354SOL    HW132376   6.760   2.676   4.726  0.3657  0.8214  1.4030
 7354SOL    HW232377   6.666   2.559   4.744  1.5122 -0.4651 -0.5278
 7355SOL     OW32378   6.896   9.633   2.175  0.7570  0.0109  0.1122
 7355SOL    HW132379   6.955   9.700   2.207  0.6779  0.1012  0.0691
 7355SOL    HW232380   6.816   9.644   2.227  1.1503 -0.7978  0.9150
 7356SOL     OW32381   1.574   6.112   9.311  0.0309 -0.4180 -0.0979
 7356SOL    HW132382   1.524   6.048   9.260 -0.2536  0.8066 -1.4294
 7356SOL    HW232383   1.664   6.077   9.312 -0.0142 -0.6078 -1.2289
 7357SOL     OW32384  11.291   0.179  10.274  0.2254 -0.4253  0.7755
 7357SOL    HW132385  11.349   0.103  10.270 -0.2161 -0.8658  2.0548
 7357SOL    HW232386  11.223   0.153  10.336 -0.6253  0.5597  0.2781
 7358SOL     OW32387   2.511   4.531   4.799  0.0118 -0.3097 -0.3144
 7358SOL    HW132388   2.530   4.543   4.892 -1.8422 -0.2135  0.0855
 7358SOL    HW232389   2.424   4.490   4.797  0.5208 -1.4252 -1.9883
 7359SOL     OW32390   3.674   8.796  12.668  0.1765  0.2271 -0.6735
 7359SOL    HW132391   3.676   8.849  12.588 -0.3151 -0.4783 -1.1709
 7359SOL    HW232392   3.716   8.714  12.642  0.4594  0.1757 -0.0632
 7360SOL     OW32393   9.597   0.022   3.826  0.4137  0.2325  0.4958
 7360SOL    HW132394   9.506   0.047   3.840 -0.0327 -0.8974 -0.1740
 7360SOL    HW232395   9.629   0.083   3.760 -0.1705  0.0184  0.0048
 7361SOL     OW32396   3.675   9.214  10.217  0.8043  0.3718 -0.3126
 7361SOL    HW132397   3.581   9.198  10.219  0.5450  1.7701 -0.2512
 7361SOL    HW232398   3.704   9.173  10.136  0.1509 -0.1295 -0.2989
 7362SOL     OW32399   1.326   4.431  12.675 -0.4861 -0.1139 -0.0511
 7362SOL    HW132400   1.413   4.395  12.656 -1.2830 -0.7947 -2.9755
 7362SOL    HW232401   1.276   4.356  12.707 -0.7069 -0.4276 -1.0745
 7363SOL     OW32402   1.363   0.189   7.905  0.6098 -0.0671  1.2522
 7363SOL    HW132403   1.358   0.147   7.819  1.9239  1.9406  0.1111
 7363SOL    HW232404   1.272   0.194   7.935 -0.1951  1.3698 -1.1703
 7364SOL     OW32405   4.647   8.009   5.526  0.8602 -0.3668 -0.2157
 7364SOL    HW132406   4.698   7.947   5.579  1.3642 -0.5584 -0.9060
 7364SOL    HW232407   4.663   7.982   5.435 -0.9536 -0.7937 -0.4436
 7365SOL     OW32408   3.109   1.932   8.093 -1.0217  0.2682  0.0402
 7365SOL    HW132409   3.061   2.015   8.099 -0.3621  0.8632 -1.9736
 7365SOL    HW232410   3.060   1.882   8.027 -2.2368 -1.6022  2.2152
 7366SOL     OW32411   7.951  12.963   4.401 -0.1808 -0.3567  0.0411
 7366SOL    HW132412   8.021  12.972   4.335  1.0385  0.6787  1.4097
 7366SOL    HW232413   7.937  13.052   4.432 -1.9133 -0.6026  0.0512
 7367SOL     OW32414   5.129   8.137   2.374 -0.0336 -0.2006 -0.3029
 7367SOL    HW132415   5.043   8.119   2.411 -0.7244  1.0431 -1.1875
 7367SOL    HW232416   5.154   8.221   2.412  0.7657 -0.5180 -0.1118
 7368SOL     OW32417  11.165   1.535   2.521  0.3708 -0.0243  0.6359
 7368SOL    HW132418  11.111   1.605   2.483  0.2753 -0.8464 -0.7889
 7368SOL    HW232419  11.102   1.474   2.559  0.0171 -1.9340 -2.6086
 7369SOL     OW32420   9.095   6.815   8.167 -0.3004 -0.4044 -0.2750
 7369SOL    HW132421   9.020   6.795   8.223  0.9396  0.4400  1.7934
 7369SOL    HW232422   9.171   6.806   8.224  1.2166 -1.1880 -2.2964
 7370SOL     OW32423   0.574   0.181   3.598 -0.4642  0.3930  0.1134
 7370SOL    HW132424   0.605   0.246   3.661 -0.7776 -0.1924  0.8883
 7370SOL    HW232425   0.493   0.217   3.562 -1.5749 -0.2989  1.8072
 7371SOL     OW32426   0.715   0.931   4.884 -0.0325 -0.1708 -0.1084
 7371SOL    HW132427   0.718   0.859   4.822  1.1811 -0.1572 -0.0794
 7371SOL    HW232428   0.752   1.006   4.837  0.6279 -0.0858  0.5135
 7372SOL     OW32429   4.331   5.587   6.415  0.5046  0.2144  0.7228
 7372SOL    HW132430   4.317   5.679   6.390 -1.6005 -0.7672 -2.2755
 7372SOL    HW232431   4.294   5.581   6.503 -0.1523  2.0694  0.6261
 7373SOL     OW32432   2.016  10.056   6.385 -0.3955  0.8839 -0.4321
 7373SOL    HW132433   2.033   9.976   6.335  0.2887  0.4193  0.5147
 7373SOL    HW232434   2.094  10.110   6.370 -0.7453  1.2806 -0.8651
 7374SOL     OW32435  10.977   3.721   7.116 -0.1925 -0.2439 -0.3375
 7374SOL    HW132436  11.055   3.729   7.061 -0.0882 -1.1675 -0.3426
 7374SOL    HW232437  10.920   3.661   7.067 -0.1653 -0.9589  0.4836
 7375SOL     OW32438   2.259   4.901   9.449 -0.7571 -0.0367 -0.0415
 7375SOL    HW132439   2.311   4.874   9.525  1.5186  0.5260 -1.2873
 7375SOL    HW232440   2.253   4.822   9.396 -0.5332  0.0823 -0.2438
 7376SOL     OW32441   0.247   5.034   9.819  0.2381 -0.1066 -0.5001
 7376SOL    HW132442   0.329   5.082   9.831  1.1866 -1.7278 -0.1429
 7376SOL    HW232443   0.237   5.026   9.724 -0.1209  1.0421 -0.5801
 7377SOL     OW32444  12.843   9.445   8.088  0.4123 -0.0414  0.0092
 7377SOL    HW132445  12.832   9.533   8.053  2.5507  0.6688  0.9501
 7377SOL    HW232446  12.754   9.411   8.095 -0.3406  0.9138 -3.0558
 7378SOL     OW32447  11.128   2.552   1.869  0.6591 -0.4323  0.5211
 7378SOL    HW132448  11.190   2.572   1.799  0.4667 -0.4868  0.3353
 7378SOL    HW232449  11.150   2.613   1.939 -0.6817  1.2545 -0.4649
 7379SOL     OW32450   3.827   2.498   3.508  0.1622 -0.1525  0.3699
 7379SOL    HW132451   3.889   2.567   3.484  0.7896 -0.4302  1.1501
 7379SOL    HW232452   3.823   2.442   3.431 -0.3781  0.7556 -0.2875
 7380SOL     OW32453  12.925  10.149   2.397  0.3903  0.7176 -0.0197
 7380SOL    HW132454  12.928  10.062   2.359 -0.7555  0.6480  0.0111
 7380SOL    HW232455  12.937  10.135   2.491  1.9129  0.7675 -0.1875
 7381SOL     OW32456   1.966   5.194  11.696 -0.1780 -0.0615 -0.3576
 7381SOL    HW132457   1.963   5.100  11.710  0.5748 -0.1177 -0.5160
 7381SOL    HW232458   1.890   5.213  11.642 -0.8044 -0.4482  0.3674
 7382SOL     OW32459  12.018  11.750   5.862  0.2519  0.3194  0.0203
 7382SOL    HW132460  11.970  11.811   5.919 -3.5762 -1.4634 -0.9749
 7382SOL    HW232461  12.019  11.667   5.910  0.6680 -0.1666 -0.7980
 7383SOL     OW32462   3.875   7.054   7.092 -0.6902  0.5870  0.2218
 7383SOL    HW132463   3.841   7.100   7.169  1.9706  3.2468  0.0354
 7383SOL    HW232464   3.945   6.998   7.127 -0.7267  0.3669 -0.0597
 7384SOL     OW32465  12.249   7.363   8.511  0.1293 -0.8147  0.0185
 7384SOL    HW132466  12.192   7.356   8.434  0.9898  1.4659 -0.9123
 7384SOL    HW232467  12.326   7.310   8.489  0.4254 -0.0806 -0.7996
 7385SOL     OW32468   5.566   7.213   7.572 -0.4561 -0.5613  0.9300
 7385SOL    HW132469   5.495   7.148   7.570 -2.4238  1.4880  0.2033
 7385SOL    HW232470   5.593   7.222   7.481  0.2508 -0.7775  1.1106
 7386SOL     OW32471   6.820   6.974   8.855  0.4829 -0.2635 -0.3427
 7386SOL    HW132472   6.861   7.027   8.923 -2.3929  1.7130  0.0495
 7386SOL    HW232473   6.814   6.886   8.894 -0.9594  0.7709  2.0191
 7387SOL     OW32474   6.876   2.645   3.980 -0.4041  0.3320  0.0274
 7387SOL    HW132475   6.891   2.691   3.897 -0.5704  0.2299 -0.0582
 7387SOL    HW232476   6.785   2.665   4.002 -0.7001 -0.5493 -0.3711
 7388SOL     OW32477   3.231   8.212   5.971 -0.5397  1.0537 -0.6917
 7388SOL    HW132478   3.194   8.227   6.058 -0.6406  0.0372 -0.5381
 7388SOL    HW232479   3.268   8.123   5.976 -0.1733  1.1442 -1.5588
 7389SOL     OW32480   5.474   4.749   2.918  0.4202  0.0900  0.0273
 7389SOL    HW132481   5.445   4.766   2.829  0.1080  1.1701  0.3112
 7389SOL    HW232482   5.569   4.757   2.914  0.3266  1.4434  0.0230
 7390SOL     OW32483   0.761   6.005   7.046  0.4747  0.3923 -0.1354
 7390SOL    HW132484   0.849   6.024   7.078 -0.6639  0.9206  2.9651
 7390SOL    HW232485   0.721   5.951   7.114 -1.6489  0.2289 -1.4138
 7391SOL     OW32486   5.420   4.207   4.864 -0.2709 -0.4473 -0.9666
 7391SOL    HW132487   5.464   4.264   4.927 -1.9623 -0.3476  0.1840
 7391SOL    HW232488   5.468   4.124   4.869 -0.5365 -0.5379  0.7174
 7392SOL     OW32489   0.036  10.696  11.718 -0.0637  0.4582 -0.6946
 7392SOL    HW132490   0.058  10.784  11.749  0.8049 -0.7615  2.5655
 7392SOL    HW232491  -0.052  10.680  11.752  0.4549 -0.5318  0.2169
 7393SOL     OW32492  10.956   3.010   1.119  0.2267 -0.2687 -0.5752
 7393SOL    HW132493  10.938   3.055   1.036 -4.2176  0.9281  0.7394
 7393SOL    HW232494  10.994   3.078   1.175  0.4393 -0.2314 -0.7652
 7394SOL     OW32495   6.509   2.371   9.598  0.0253 -0.5612  0.2051
 7394SOL    HW132496   6.478   2.453   9.638 -2.3441 -0.0494 -2.3700
 7394SOL    HW232497   6.548   2.399   9.515 -0.2081 -1.9924 -0.4037
 7395SOL     OW32498   6.361   3.307   8.502 -0.2417 -0.7654 -0.0291
 7395SOL    HW132499   6.359   3.401   8.483 -1.9617 -0.7866 -0.1507
 7395SOL    HW232500   6.442   3.275   8.462  1.6103  1.0542  2.0491
 7396SOL     OW32501   1.393   9.667  12.558  0.1362  0.1670  0.2014
 7396SOL    HW132502   1.443   9.601  12.509  1.5848  0.9680  0.5313
 7396SOL    HW232503   1.450   9.690  12.631  0.2726  2.6741 -0.5914
 7397SOL     OW32504   1.186   6.205   9.126 -0.0657 -0.9361 -0.5019
 7397SOL    HW132505   1.090   6.210   9.126 -0.1020 -0.6949  1.7544
 7397SOL    HW232506   1.206   6.117   9.157  0.4073 -0.4115  0.7504
 7398SOL     OW32507  10.320   2.926   8.652 -0.1011 -0.7291  0.2354
 7398SOL    HW132508  10.264   2.889   8.720 -0.5148 -0.7427 -0.1096
 7398SOL    HW232509  10.268   2.997   8.615  0.5566  0.0023  0.6784
 7399SOL     OW32510   4.948   9.808   7.244 -0.2088  0.2517  0.3050
 7399SOL    HW132511   5.006   9.875   7.281 -0.6493  0.2421  1.0336
 7399SOL    HW232512   5.005   9.755   7.189  0.6289 -0.1998  1.5673
 7400SOL     OW32513   7.159  12.151  10.614  0.0182 -0.1560 -1.1141
 7400SOL    HW132514   7.067  12.179  10.621  0.3328  0.9920 -1.3819
 7400SOL    HW232515   7.158  12.059  10.641 -0.8721  0.4252  1.0857
 7401SOL     OW32516   6.542   1.338   4.453  0.2362  0.1760  0.1360
 7401SOL    HW132517   6.481   1.411   4.459 -1.0484 -0.8468 -0.0774
 7401SOL    HW232518   6.588   1.351   4.370  0.7306  1.2581  0.5630
 7402SOL     OW32519  11.842   1.358   4.833 -0.2123 -0.4141 -0.0083
 7402SOL    HW132520  11.815   1.378   4.744 -1.1482  0.6471  0.4767
 7402SOL    HW232521  11.881   1.440   4.864  1.2658 -1.1511  0.1585
 7403SOL     OW32522   3.918   2.996   3.716 -0.3290  0.0541  0.4515
 7403SOL    HW132523   3.960   2.911   3.699 -0.1110  0.4635 -1.2713
 7403SOL    HW232524   3.838   2.975   3.764 -0.0737 -1.0867  0.3982
 7404SOL     OW32525   2.023  11.532   8.277 -0.2682  0.0589 -0.6687
 7404SOL    HW132526   2.024  11.598   8.208  1.0759 -0.6389 -1.3705
 7404SOL    HW232527   2.085  11.563   8.342 -0.6840  0.1683 -0.3248
 7405SOL     OW32528   0.819   3.548  12.468  0.5705 -0.0480  0.5392
 7405SOL    HW132529   0.797   3.456  12.459  0.0974  0.2021 -1.4165
 7405SOL    HW232530   0.901   3.558  12.420  0.7364  0.5049  0.9263
 7406SOL     OW32531   0.950  10.274   5.681  0.7058 -0.4186  0.1308
 7406SOL    HW132532   1.023  10.336   5.684  2.6953 -2.6288  2.9639
 7406SOL    HW232533   0.991  10.188   5.669 -0.9994 -2.0346  3.9353
 7407SOL     OW32534   5.729   5.394   7.929  0.4471  0.0764 -0.1713
 7407SOL    HW132535   5.704   5.377   8.020 -2.1121 -0.1255 -0.8317
 7407SOL    HW232536   5.707   5.313   7.883  0.6182  0.5734 -1.1523
 7408SOL     OW32537   0.143   8.735  12.005 -0.8829  0.1623  0.1909
 7408SOL    HW132538   0.067   8.697  12.049  1.3257 -1.8436  2.6048
 7408SOL    HW232539   0.151   8.823  12.041 -1.5045  0.0316  0.6622
 7409SOL     OW32540   8.590   5.301   7.909  0.1445 -0.1598 -0.3184
 7409SOL    HW132541   8.648   5.331   7.979 -0.1567 -0.0927 -0.0897
 7409SOL    HW232542   8.548   5.381   7.877  1.7438  0.0698 -1.9447
 7410SOL     OW32543   0.334   1.230   0.175 -0.4225 -0.3109 -0.0400
 7410SOL    HW132544   0.379   1.265   0.251  3.2630 -1.4226 -1.4760
 7410SOL    HW232545   0.316   1.306   0.120 -0.2458  0.1740  0.5682
 7411SOL     OW32546   2.339   1.655   2.318  0.3588  0.0659  0.9412
 7411SOL    HW132547   2.252   1.692   2.307  0.6270  0.7700  1.1717
 7411SOL    HW232548   2.336   1.614   2.405  0.1681 -0.1882  0.8195
 7412SOL     OW32549   8.478   1.142   3.521 -0.2822 -0.6344 -0.5625
 7412SOL    HW132550   8.423   1.218   3.502  0.3223 -0.7234 -3.1090
 7412SOL    HW232551   8.436   1.070   3.473  0.5094 -1.3380 -0.2178
 7413SOL     OW32552   3.468   2.950  11.296  0.1312  0.0205  0.0129
 7413SOL    HW132553   3.539   2.962  11.359 -0.4511  0.8537  0.5422
 7413SOL    HW232554   3.502   2.983  11.214  1.2347 -1.9368 -0.3808
 7414SOL     OW32555   9.898   9.395   3.118 -0.2397  0.2795 -0.3634
 7414SOL    HW132556   9.962   9.433   3.179  2.0341  0.3363 -2.6282
 7414SOL    HW232557   9.822   9.452   3.124  0.9425  1.8311  0.4534
 7415SOL     OW32558   5.056   5.050   3.037  0.0046 -0.1502 -0.2614
 7415SOL    HW132559   5.111   4.971   3.033  0.4987  0.2530 -2.1023
 7415SOL    HW232560   4.981   5.024   3.091  0.4975 -1.6577 -0.2523
 7416SOL     OW32561  10.389   2.786  12.467 -0.0437  0.5399  0.2393
 7416SOL    HW132562  10.471   2.811  12.423  0.0588  1.1328  0.7629
 7416SOL    HW232563  10.325   2.850  12.437 -0.0152  0.8413  0.8014
 7417SOL     OW32564   7.371   0.584   3.046 -0.4046  0.0808 -0.2166
 7417SOL    HW132565   7.303   0.606   2.982 -1.1586 -0.5529  0.3483
 7417SOL    HW232566   7.421   0.514   3.005 -1.9460 -1.5180  0.5487
 7418SOL     OW32567   5.150  10.552   1.517 -0.2396 -0.4395  0.4197
 7418SOL    HW132568   5.070  10.502   1.534 -1.3720  0.7792 -0.9816
 7418SOL    HW232569   5.136  10.590   1.430  2.5827 -1.5009 -0.6020
 7419SOL     OW32570  11.031   1.976   7.259 -0.0313 -0.0479 -0.0082
 7419SOL    HW132571  10.963   1.912   7.238  0.2641  0.4363 -2.7952
 7419SOL    HW232572  10.983   2.055   7.282 -0.6084  0.7489 -3.3835
 7420SOL     OW32573   8.858   1.837  10.254  0.8327 -0.1570  0.6307
 7420SOL    HW132574   8.854   1.834  10.158  0.0329 -0.3332  0.6583
 7420SOL    HW232575   8.801   1.910  10.278  1.1072 -0.0532  0.9713
 7421SOL     OW32576   8.222   3.308   4.828 -0.0486  0.5252  0.0549
 7421SOL    HW132577   8.130   3.287   4.846  0.2466  1.1856  2.9116
 7421SOL    HW232578   8.270   3.258   4.893  1.6176  0.4909 -1.1560
 7422SOL     OW32579   8.853   8.506   6.113  0.0107 -0.0532 -0.1220
 7422SOL    HW132580   8.817   8.543   6.032  0.2631 -1.2643 -0.8070
 7422SOL    HW232581   8.873   8.415   6.091 -1.4568 -0.8965  1.7669
 7423SOL     OW32582   0.434   7.419   3.316  0.3379 -0.3513  0.2091
 7423SOL    HW132583   0.359   7.477   3.330  0.7110  0.9520 -2.5053
 7423SOL    HW232584   0.396   7.341   3.275  0.2596 -0.5404  0.6326
 7424SOL     OW32585   8.566   1.095  12.486 -0.3931  0.2138  0.1569
 7424SOL    HW132586   8.563   1.000  12.490  0.6539  0.0811 -1.4054
 7424SOL    HW232587   8.659   1.116  12.488 -0.5575  1.1188 -0.8525
 7425SOL     OW32588   8.380   8.728   0.638 -0.1877 -0.2894  0.0157
 7425SOL    HW132589   8.298   8.728   0.588  0.0253 -0.9814 -0.3529
 7425SOL    HW232590   8.440   8.781   0.586  0.0980 -1.1844 -0.5943
 7426SOL     OW32591  11.125   4.463   4.345 -0.1889 -0.5087  0.1561
 7426SOL    HW132592  11.037   4.496   4.365  0.4941  0.7105  1.2828
 7426SOL    HW232593  11.131   4.382   4.396 -0.2548  0.0069  1.0040
 7427SOL     OW32594   4.926  12.097   8.506  0.5337  0.0799  0.6454
 7427SOL    HW132595   4.941  12.189   8.483 -0.1179 -0.0239 -0.2518
 7427SOL    HW232596   5.013  12.058   8.509  0.7299  0.3697 -0.6123
 7428SOL     OW32597   8.281   0.919  10.385 -0.1134 -0.4198  0.4866
 7428SOL    HW132598   8.290   0.884  10.297  0.0709 -1.7512  1.0186
 7428SOL    HW232599   8.346   0.990  10.389 -0.8705  0.4025 -0.7729
 7429SOL     OW32600   9.274   8.997  12.153 -0.2461  0.3129  0.6382
 7429SOL    HW132601   9.303   9.036  12.070 -3.8343 -0.0577 -0.9592
 7429SOL    HW232602   9.226   8.918  12.127 -1.1547 -0.0386  3.1062
 7430SOL     OW32603   0.071   9.759   1.425  0.3895 -0.2407 -0.8356
 7430SOL    HW132604   0.152   9.808   1.435  0.3166 -0.1624 -0.6364
 7430SOL    HW232605   0.070   9.698   1.498  0.2882 -0.2689 -0.8601
 7431SOL     OW32606   2.203  11.876   5.373 -0.0853 -0.2890 -0.6743
 7431SOL    HW132607   2.230  11.939   5.306  0.6386 -0.3254 -0.4325
 7431SOL    HW232608   2.129  11.917   5.417  0.7978  0.7123 -0.0700
 7432SOL     OW32609  11.124   5.633  12.490  0.4492  0.0191 -0.2643
 7432SOL    HW132610  11.085   5.638  12.403 -0.0097 -0.6494 -0.1101
 7432SOL    HW232611  11.051   5.652  12.550  1.0642  1.8677 -0.0496
 7433SOL     OW32612   8.248   8.330   7.194 -0.1349 -0.1563  0.7440
 7433SOL    HW132613   8.225   8.266   7.127  0.4596  0.4834 -0.0810
 7433SOL    HW232614   8.179   8.396   7.189  0.4658  0.4254  0.0447
 7434SOL     OW32615  10.988   4.583   7.107  0.6318 -0.3300 -0.1806
 7434SOL    HW132616  10.977   4.603   7.200 -1.0956  0.2927 -0.4730
 7434SOL    HW232617  10.936   4.503   7.094  1.0258 -0.5223 -0.5699
 7435SOL     OW32618   7.948   3.482   5.404 -0.2871  0.6495  0.1686
 7435SOL    HW132619   7.945   3.573   5.433 -0.8436  0.5713  0.3626
 7435SOL    HW232620   7.997   3.485   5.322  1.9560  0.7736  1.4270
 7436SOL     OW32621   7.011   7.259   0.581 -0.0252 -0.0017 -0.0329
 7436SOL    HW132622   7.093   7.276   0.628 -0.9927  0.9675  1.4066
 7436SOL    HW232623   6.963   7.199   0.637 -0.9777  0.7385 -0.0198
 7437SOL     OW32624   0.627  11.038   1.551 -0.0584 -0.4030 -0.1656
 7437SOL    HW132625   0.561  11.068   1.613  0.9505  1.0803  0.2473
 7437SOL    HW232626   0.580  10.978   1.493 -1.7242  0.5000  0.1813
 7438SOL     OW32627   4.435   3.884   2.846  0.0130 -0.3284  0.5044
 7438SOL    HW132628   4.511   3.844   2.889 -0.4662 -2.3136 -0.3806
 7438SOL    HW232629   4.470   3.924   2.766  0.6099  1.7818  1.7401
 7439SOL     OW32630   7.226   0.736   8.457 -0.0034  0.3318 -0.4347
 7439SOL    HW132631   7.256   0.716   8.546 -2.0075 -1.8940 -0.1726
 7439SOL    HW232632   7.289   0.692   8.401  0.4020  0.4533 -0.0827
 7440SOL     OW32633   9.141   9.263  11.629  0.5652 -0.0831  0.3031
 7440SOL    HW132634   9.143   9.182  11.580 -1.8904 -0.3137  0.4672
 7440SOL    HW232635   9.085   9.322  11.578  0.3056  0.6516  1.3799
 7441SOL     OW32636  11.850   4.133   7.570  0.4510 -0.3507  0.3399
 7441SOL    HW132637  11.902   4.213   7.564  0.0474 -0.0800  0.3791
 7441SOL    HW232638  11.821   4.118   7.480 -1.3334  0.8219  0.6562
 7442SOL     OW32639   7.637  12.617   3.994  0.4508 -0.5245  0.3094
 7442SOL    HW132640   7.728  12.622   4.023  0.5143  1.4071 -0.0476
 7442SOL    HW232641   7.586  12.625   4.075  0.6329  0.8312  0.3198
 7443SOL     OW32642  10.080   8.764  11.327  0.2568 -0.0421 -0.1485
 7443SOL    HW132643  10.174   8.773  11.345  0.1903 -0.0426  0.2178
 7443SOL    HW232644  10.065   8.669  11.327  0.1295 -0.0307  0.5136
 7444SOL     OW32645  11.558  10.352   8.659 -0.2452 -0.0106 -0.2427
 7444SOL    HW132646  11.647  10.357   8.625 -1.0224  1.0250 -2.3356
 7444SOL    HW232647  11.555  10.419   8.728  0.9478 -1.0716  0.9021
 7445SOL     OW32648  12.906  12.439   4.420  0.2618  0.1498 -0.0377
 7445SOL    HW132649  12.894  12.524   4.377 -1.5307  0.6176  1.2440
 7445SOL    HW232650  12.915  12.376   4.349  1.1643  1.3359 -1.0239
 7446SOL     OW32651   9.170  11.483   4.390 -0.0107 -0.6770 -0.1135
 7446SOL    HW132652   9.252  11.475   4.342  0.1706 -0.9287  0.2293
 7446SOL    HW232653   9.154  11.395   4.424 -0.1316 -0.5012  0.2903
 7447SOL     OW32654   7.778  12.830  11.523 -0.1969  0.3676  0.1713
 7447SOL    HW132655   7.814  12.882  11.595  1.2623 -0.4731  0.0970
 7447SOL    HW232656   7.755  12.746  11.563 -0.9507  0.4694 -0.0331
 7448SOL     OW32657   3.429   3.593   2.312  0.7756 -0.4253  0.4605
 7448SOL    HW132658   3.521   3.611   2.295  0.4468  1.0453  0.1557
 7448SOL    HW232659   3.428   3.503   2.346  2.2203 -0.7497 -0.3024
 7449SOL     OW32660   7.267   7.425   4.924  0.6921 -0.2799 -0.0749
 7449SOL    HW132661   7.362   7.422   4.930  0.8717  0.8613 -1.8273
 7449SOL    HW232662   7.249   7.449   4.834 -1.3280 -2.6380 -0.4092
 7450SOL     OW32663   3.546   0.019   4.064 -0.2771 -0.2881 -0.0731
 7450SOL    HW132664   3.502  -0.004   4.145 -2.4017  0.0878 -1.0520
 7450SOL    HW232665   3.524   0.111   4.049  0.8769 -0.0730 -0.6074
 7451SOL     OW32666   3.319   3.131   6.517  0.9226 -0.3978  0.4143
 7451SOL    HW132667   3.388   3.192   6.543  0.1916  0.6838 -0.0898
 7451SOL    HW232668   3.254   3.137   6.587  0.8499 -0.5993  0.3647
 7452SOL     OW32669   4.431   7.168   9.459  0.0875 -0.4782 -0.0848
 7452SOL    HW132670   4.526   7.175   9.470 -0.1034  1.5194  0.6740
 7452SOL    HW232671   4.398   7.158   9.548 -0.4498 -1.1130 -0.3440
 7453SOL     OW32672  11.039  12.002  10.990 -0.3419  0.0843  0.0976
 7453SOL    HW132673  11.014  11.910  10.999  0.0462  0.0150  0.5075
 7453SOL    HW232674  10.977  12.038  10.926 -0.3093 -0.5302 -0.2893
 7454SOL     OW32675   3.752   9.057  12.195  0.0838  0.1681 -0.0511
 7454SOL    HW132676   3.810   9.064  12.119  1.1019 -1.8877  0.4480
 7454SOL    HW232677   3.664   9.053  12.157  0.6545 -2.5170 -1.3532
 7455SOL     OW32678   3.645   1.651   9.425  0.7070 -0.2155 -0.0341
 7455SOL    HW132679   3.732   1.625   9.456  1.0326  0.0923 -0.6644
 7455SOL    HW232680   3.646   1.630   9.331 -0.5281 -1.8693  0.2744
 7456SOL     OW32681  11.010  10.647   4.319  0.0251 -0.2108  0.6316
 7456SOL    HW132682  11.071  10.632   4.392  0.1784 -0.1789  0.5105
 7456SOL    HW232683  11.062  10.694   4.254  0.4470 -1.8688 -0.3004
 7457SOL     OW32684   6.590   9.962   7.212  0.3510  0.3113  0.0973
 7457SOL    HW132685   6.516   9.990   7.157  0.0779  0.5670  0.5848
 7457SOL    HW232686   6.549   9.933   7.293  0.7844  0.3493  0.3317
 7458SOL     OW32687   8.591   6.644   7.247  0.0763 -0.2462  0.0279
 7458SOL    HW132688   8.568   6.558   7.213 -0.7787 -1.4438  3.3478
 7458SOL    HW232689   8.555   6.705   7.182 -1.9781 -2.3262 -0.9385
 7459SOL     OW32690   5.453  10.258   1.230 -0.0820 -0.6045  0.2869
 7459SOL    HW132691   5.518  10.313   1.185  1.0785 -2.0159  0.1350
 7459SOL    HW232692   5.471  10.170   1.197 -1.0818 -1.2538  1.4157
 7460SOL     OW32693  11.032   8.697   3.588 -0.1775  0.1536 -0.4724
 7460SOL    HW132694  11.101   8.642   3.626 -1.7041 -0.6911  1.2283
 7460SOL    HW232695  10.992   8.642   3.521 -0.9751 -0.4211  0.4569
 7461SOL     OW32696   1.885   4.201   3.661  0.3126  0.0861  0.5600
 7461SOL    HW132697   1.923   4.277   3.617  2.6221 -0.6465  1.1093
 7461SOL    HW232698   1.922   4.125   3.616 -1.1285 -0.7309  0.6792
 7462SOL     OW32699  11.146   1.470   0.208 -0.2836 -0.0108 -0.1478
 7462SOL    HW132700  11.101   1.551   0.231 -1.3632 -0.7272  0.3454
 7462SOL    HW232701  11.212   1.460   0.276 -0.2513  0.3757 -0.1184
 7463SOL     OW32702  12.449   9.915   5.908 -0.2180 -0.0773  0.2790
 7463SOL    HW132703  12.410   9.872   5.984  0.3695  1.3703  1.4771
 7463SOL    HW232704  12.384   9.981   5.882 -0.8747 -1.2589 -1.1797
 7464SOL     OW32705  11.139   7.513   1.168 -0.4167 -0.1623 -0.2013
 7464SOL    HW132706  11.150   7.446   1.235 -1.7695  1.0057  1.2837
 7464SOL    HW232707  11.216   7.570   1.178  0.9652 -1.6398 -1.7634
 7465SOL     OW32708   4.172   1.665   4.344 -0.0538 -0.1792  0.4065
 7465SOL    HW132709   4.128   1.581   4.336 -0.3318  0.1597 -3.6329
 7465SOL    HW232710   4.265   1.644   4.348 -0.0634 -0.7242 -1.5189
 7466SOL     OW32711   1.490   7.355   7.957 -0.1604  0.0815 -0.1348
 7466SOL    HW132712   1.586   7.354   7.946 -0.2497  1.6207 -1.4628
 7466SOL    HW232713   1.465   7.445   7.936 -2.0121 -0.5375 -0.7665
 7467SOL     OW32714   7.327   7.992   0.217 -0.0529  0.0981  0.0054
 7467SOL    HW132715   7.259   8.049   0.253  0.8617  0.8892  0.5118
 7467SOL    HW232716   7.304   7.984   0.124 -2.3141 -1.7836  0.6243
 7468SOL     OW32717  11.471   4.328   7.880  0.3276  0.2862 -0.1323
 7468SOL    HW132718  11.378   4.329   7.904  0.4867 -3.6493  1.3775
 7468SOL    HW232719  11.508   4.403   7.926 -1.8442  1.1530  0.3295
 7469SOL     OW32720   5.180   9.201   9.901  0.0556  0.1999 -0.6599
 7469SOL    HW132721   5.106   9.246   9.860 -0.7127  1.4752  1.9021
 7469SOL    HW232722   5.239   9.271   9.928 -0.0782 -0.4031  1.4212
 7470SOL     OW32723  10.975   6.114  12.936 -0.4062 -0.6847 -0.4248
 7470SOL    HW132724  10.887   6.101  12.901 -1.3899  0.6009  1.4313
 7470SOL    HW232725  10.991   6.208  12.928  0.2289 -0.7001  0.4964
 7471SOL     OW32726   4.965  11.371   5.702 -0.1820  0.2521 -0.6061
 7471SOL    HW132727   4.934  11.462   5.710 -0.6231  0.2119 -1.7265
 7471SOL    HW232728   4.920  11.325   5.773 -0.4443  0.7810 -0.4198
 7472SOL     OW32729   4.893  12.538   4.770 -0.1784  0.2361 -0.0577
 7472SOL    HW132730   4.840  12.580   4.838 -0.8252  1.1011 -1.0624
 7472SOL    HW232731   4.858  12.450   4.763 -1.0835  0.6084 -0.2830
 7473SOL     OW32732   3.012   5.241   2.549  0.1188 -0.3812 -0.0697
 7473SOL    HW132733   2.984   5.193   2.627 -0.7006  1.4903  0.8309
 7473SOL    HW232734   3.078   5.303   2.581 -0.2830  0.4613 -0.8324
 7474SOL     OW32735   4.500   1.987   6.244  0.6112  0.1568 -0.6273
 7474SOL    HW132736   4.506   1.923   6.315  1.9636  0.2676 -0.6247
 7474SOL    HW232737   4.562   1.957   6.178 -0.0043  0.5296 -1.3938
 7475SOL     OW32738   5.758  11.127   7.939 -0.3545 -0.4383  0.3998
 7475SOL    HW132739   5.681  11.183   7.945 -1.2976 -1.5287 -0.7907
 7475SOL    HW232740   5.745  11.061   8.007 -0.0857 -0.1792  0.7024
 7476SOL     OW32741   0.098   0.289   9.242  0.0437  0.0382 -0.1099
 7476SOL    HW132742   0.071   0.201   9.267  0.7303  0.0583  0.7658
 7476SOL    HW232743   0.179   0.276   9.192 -0.2341  0.1267 -0.5818
 7477SOL     OW32744   2.286   0.913  11.728  0.5003 -0.1294 -0.4368
 7477SOL    HW132745   2.327   0.998  11.714 -1.0469  0.5887 -0.8240
 7477SOL    HW232746   2.202   0.918  11.681 -0.6765 -1.0230  1.4288
 7478SOL     OW32747   6.261  12.922  12.430  0.2242 -0.3401 -0.2783
 7478SOL    HW132748   6.175  12.882  12.435 -0.6669  1.2858 -1.3940
 7478SOL    HW232749   6.305  12.898  12.512 -1.7579 -0.2001  0.8779
 7479SOL     OW32750   6.922  12.934   5.059 -0.4760  0.1671 -0.4428
 7479SOL    HW132751   6.954  13.020   5.087 -2.4477  0.3707  1.4143
 7479SOL    HW232752   6.864  12.953   4.985 -0.3395  0.3467 -0.5055
 7480SOL     OW32753   4.172   9.987   5.493  0.5788  0.1006  0.1761
 7480SOL    HW132754   4.152   9.895   5.514 -0.2968  0.5645  1.4656
 7480SOL    HW232755   4.101  10.014   5.436  0.8450 -0.0182 -0.2156
 7481SOL     OW32756   1.310   8.207   2.507 -0.2091 -0.2601  0.2960
 7481SOL    HW132757   1.289   8.242   2.594 -0.3177 -1.1097  0.6196
 7481SOL    HW232758   1.233   8.229   2.454 -0.3088 -0.0724  0.5150
 7482SOL     OW32759   0.412   0.956   8.955 -0.1599  0.3661  0.0381
 7482SOL    HW132760   0.416   0.867   8.989  5.9883  0.2080 -0.0046
 7482SOL    HW232761   0.398   0.944   8.861 -1.4789 -0.2932  0.2884
 7483SOL     OW32762   6.010   1.989   6.423  0.0839 -0.2412 -0.4581
 7483SOL    HW132763   6.084   2.045   6.446 -0.4801  1.2039 -1.9217
 7483SOL    HW232764   6.021   1.972   6.329 -0.6757 -1.1968 -0.3866
 7484SOL     OW32765   3.780  10.398  12.043 -0.1061 -0.3416  0.7362
 7484SOL    HW132766   3.735  10.481  12.029 -1.4799 -1.2158 -0.3175
 7484SOL    HW232767   3.718  10.332  12.012  1.1068 -1.7393  1.1805
 7485SOL     OW32768   5.930   1.610   0.565  0.0338  0.0451 -0.3103
 7485SOL    HW132769   5.850   1.662   0.568  1.2012  1.9396 -0.5946
 7485SOL    HW232770   5.928   1.559   0.646 -0.4498  1.6175  0.7072
 7486SOL     OW32771   5.934   3.512   8.239 -0.4848 -0.5190  0.0219
 7486SOL    HW132772   5.872   3.585   8.242 -1.0473 -0.8639 -1.8216
 7486SOL    HW232773   6.005   3.539   8.297 -0.5521  1.6221 -0.7822
 7487SOL     OW32774   4.749   0.998   8.720  0.7879  0.2168  0.3006
 7487SOL    HW132775   4.778   0.927   8.663  3.7783 -0.2755  2.2261
 7487SOL    HW232776   4.695   0.955   8.786 -2.2417  0.7171 -1.6293
 7488SOL     OW32777   5.801  11.392   7.604  0.1349  1.2132 -0.1442
 7488SOL    HW132778   5.889  11.370   7.574  0.5064  0.5412  1.3563
 7488SOL    HW232779   5.743  11.355   7.537  0.9666  0.9960 -0.7602
 7489SOL     OW32780   0.629   0.688   7.514 -0.1676  0.0621  0.0537
 7489SOL    HW132781   0.576   0.608   7.511 -0.4124 -0.0257  3.2507
 7489SOL    HW232782   0.659   0.693   7.605 -0.3459  3.7274  0.0503
 7490SOL     OW32783   5.532  11.155   2.759 -0.0663 -0.6787 -0.7338
 7490SOL    HW132784   5.588  11.221   2.719 -1.7648  0.7037 -0.9351
 7490SOL    HW232785   5.554  11.074   2.712  0.8977  0.0670 -1.6126
 7491SOL     OW32786  12.104  12.400   0.182  0.0614 -0.4146  0.1945
 7491SOL    HW132787  12.082  12.447   0.102 -1.1419  0.6621  1.1216
 7491SOL    HW232788  12.128  12.468   0.245 -0.4187 -1.1232  1.1812
 7492SOL     OW32789   8.505   9.108   9.429  0.1797 -0.3943 -0.8186
 7492SOL    HW132790   8.551   9.182   9.468 -1.7261  0.7469 -0.5921
 7492SOL    HW232791   8.548   9.031   9.465  1.9324  0.5836 -0.7001
 7493SOL     OW32792  11.351   2.594  12.547 -0.8680  0.5283 -0.3735
 7493SOL    HW132793  11.329   2.501  12.541  1.3759 -0.3321  2.3991
 7493SOL    HW232794  11.422   2.606  12.484  0.4973 -0.3113  0.9409
 7494SOL     OW32795   5.469   0.092   8.169  0.2784  0.7312  0.2021
 7494SOL    HW132796   5.484   0.001   8.194 -0.5037  0.4415 -0.3514
 7494SOL    HW232797   5.501   0.098   8.080 -2.2885  0.2080 -0.8533
 7495SOL     OW32798   2.480   7.329   6.469  0.2712  0.3058 -0.4591
 7495SOL    HW132799   2.398   7.360   6.508  0.5886  1.0352 -0.3741
 7495SOL    HW232800   2.475   7.233   6.477 -1.0341  0.2725 -1.3617
 7496SOL     OW32801   7.079   0.297   2.589  0.8462  0.1991  0.0660
 7496SOL    HW132802   7.130   0.356   2.533  0.4251  1.0929  0.5993
 7496SOL    HW232803   7.012   0.260   2.532 -0.3437  2.0263  0.2001
 7497SOL     OW32804   8.336  12.819  10.313  0.1965  0.0481 -0.5580
 7497SOL    HW132805   8.243  12.835  10.301  0.0920 -0.3965 -0.3585
 7497SOL    HW232806   8.345  12.723  10.313  0.5257  0.0716  0.3528
 7498SOL     OW32807   6.672   7.584   8.211 -0.9421  0.2418 -0.1127
 7498SOL    HW132808   6.689   7.537   8.130 -0.0820 -0.0626  0.2387
 7498SOL    HW232809   6.586   7.624   8.198 -1.2293 -0.5832 -0.8065
 7499SOL     OW32810  12.908  12.974   9.004 -0.0864 -0.3589 -0.0689
 7499SOL    HW132811  12.878  13.020   9.083 -0.2947  1.5237 -1.1869
 7499SOL    HW232812  12.999  12.953   9.022 -0.1509 -0.0385  0.7091
 7500SOL     OW32813  12.498   9.487   2.420  0.9514 -0.5913 -0.1729
 7500SOL    HW132814  12.545   9.471   2.503  1.1371 -0.3096 -0.2231
 7500SOL    HW232815  12.406   9.474   2.442  0.9055  0.4726  0.3239
 7501SOL     OW32816   4.134  11.667  10.133  0.3798 -0.5617 -0.0854
 7501SOL    HW132817   4.131  11.687  10.039  0.8054 -0.3433 -0.0527
 7501SOL    HW232818   4.064  11.603  10.146 -0.0021 -0.2332 -0.4652
 7502SOL     OW32819   8.412   4.030   6.908  0.3304 -0.4433  0.7885
 7502SOL    HW132820   8.386   3.980   6.985 -2.2278 -1.0437 -0.3688
 7502SOL    HW232821   8.411   4.121   6.937  0.1149 -0.7033  1.6392
 7503SOL     OW32822   5.041   0.825   9.601 -0.4625 -0.1648  0.8214
 7503SOL    HW132823   4.983   0.759   9.638 -0.7591 -1.5071 -1.7528
 7503SOL    HW232824   5.125   0.781   9.593 -0.5022 -0.0525 -0.3735
 7504SOL     OW32825   0.300   8.753   4.935 -0.3063  0.2053  0.0349
 7504SOL    HW132826   0.342   8.817   4.993  0.3073 -0.8357  0.7761
 7504SOL    HW232827   0.333   8.775   4.848 -0.8984  1.5222  0.1207
 7505SOL     OW32828  10.551   3.795   2.121 -0.4174 -0.1230  0.4664
 7505SOL    HW132829  10.572   3.828   2.208  1.8714  1.1031 -0.4309
 7505SOL    HW232830  10.595   3.711   2.116  1.1740  0.6963 -0.1037
 7506SOL     OW32831  11.901   4.075   9.759  0.3557  1.0406 -0.1322
 7506SOL    HW132832  11.854   4.134   9.700  1.7910  2.3591 -0.0107
 7506SOL    HW232833  11.884   4.110   9.846  1.2997  1.3699 -0.0690
 7507SOL     OW32834   9.102   2.400   8.998  0.2900  0.1420  0.2406
 7507SOL    HW132835   9.087   2.306   9.008  0.2571  0.0513 -0.5518
 7507SOL    HW232836   9.029   2.431   8.944  1.0525  0.3405 -0.7152
 7508SOL     OW32837   1.899   4.865   1.013 -0.1759 -0.0854  0.0912
 7508SOL    HW132838   1.908   4.827   1.101  2.0085  0.0955  0.0011
 7508SOL    HW232839   1.833   4.934   1.023  0.7076  0.5699  1.8282
 7509SOL     OW32840  12.051   1.361   4.419 -0.2521 -0.3981  0.4838
 7509SOL    HW132841  12.120   1.424   4.440 -0.2169 -0.5771  0.9166
 7509SOL    HW232842  12.079   1.280   4.462 -0.1243 -0.8105 -0.3526
 7510SOL     OW32843  12.523   6.534   2.901  0.0947 -0.3243  0.4877
 7510SOL    HW132844  12.565   6.461   2.854  2.4682  1.2335  0.0019
 7510SOL    HW232845  12.587   6.560   2.967 -0.6151  1.3872  0.5560
 7511SOL     OW32846   6.052   8.573  10.052  0.2266  0.6048  0.6223
 7511SOL    HW132847   6.019   8.530  10.131  3.3017 -2.3495  0.5309
 7511SOL    HW232848   6.071   8.502   9.991  0.2360  2.6058 -1.9059
 7512SOL     OW32849  10.510   9.061  11.542 -0.1296  0.0343 -0.2102
 7512SOL    HW132850  10.417   9.051  11.560 -0.4727  2.4374 -0.3233
 7512SOL    HW232851  10.550   9.078  11.627 -0.0849  0.7470 -0.3666
 7513SOL     OW32852   4.372   7.439  10.558  0.1841  0.1949 -0.3440
 7513SOL    HW132853   4.429   7.460  10.484 -0.1765  0.4981 -0.5404
 7513SOL    HW232854   4.284   7.461  10.528 -0.0846 -0.6075 -0.1706
 7514SOL     OW32855  10.962   9.401   4.451 -0.0208 -0.0311  0.3696
 7514SOL    HW132856  11.028   9.332   4.453 -0.1165 -0.1340  0.0617
 7514SOL    HW232857  10.927   9.399   4.362 -1.0751 -0.5867  0.7785
 7515SOL     OW32858   2.437   6.962   0.297 -0.3560 -0.2923  0.4689
 7515SOL    HW132859   2.421   6.988   0.206  0.7439 -0.0009  0.3443
 7515SOL    HW232860   2.499   6.889   0.291 -0.0521 -0.0850  0.9884
 7516SOL     OW32861   2.210  11.103   6.933 -0.2963 -0.4357  0.2923
 7516SOL    HW132862   2.282  11.110   6.871 -2.5434  3.4538 -2.3268
 7516SOL    HW232863   2.210  11.186   6.981 -1.2782 -1.5661  2.3856
 7517SOL     OW32864  11.241   6.910   6.496  0.1825  0.2342  0.0279
 7517SOL    HW132865  11.213   6.981   6.438  0.8322 -0.1954 -0.8186
 7517SOL    HW232866  11.333   6.930   6.515 -0.3023  0.9979  1.8537
 7518SOL     OW32867   9.247   3.248   6.325  0.2780 -0.0612  0.0036
 7518SOL    HW132868   9.287   3.229   6.410  1.6722  2.0087 -0.1080
 7518SOL    HW232869   9.154   3.234   6.339  0.6368 -1.3258  1.3933
 7519SOL     OW32870   3.030  10.044   4.860 -0.2260 -0.5272 -0.7463
 7519SOL    HW132871   3.032   9.953   4.888  0.2899  0.4360  2.7659
 7519SOL    HW232872   3.123  10.070   4.859 -0.3941  0.0660 -1.3564
 7520SOL     OW32873   8.562   7.120   2.942  0.0604 -0.0215 -0.1366
 7520SOL    HW132874   8.613   7.046   2.910 -0.6954 -0.3721 -0.5585
 7520SOL    HW232875   8.551   7.177   2.866  1.0720  0.7992  0.3043
 7521SOL     OW32876   8.156   7.001   8.701 -0.4917  0.0504 -0.5374
 7521SOL    HW132877   8.166   7.037   8.790 -0.4650 -2.1634  0.4140
 7521SOL    HW232878   8.221   7.047   8.649  0.7617  0.1173  1.0135
 7522SOL     OW32879   5.131   2.453   5.924 -0.5735 -0.8229 -0.3149
 7522SOL    HW132880   5.121   2.468   6.018 -1.4575 -0.1751 -0.5003
 7522SOL    HW232881   5.050   2.409   5.898 -0.7340 -0.1800 -0.9322
 7523SOL     OW32882   3.243  12.311   5.810 -0.2234 -0.3295 -0.1872
 7523SOL    HW132883   3.210  12.260   5.884  0.9472  0.7055  1.1096
 7523SOL    HW232884   3.165  12.342   5.765 -1.1557  1.5631  2.4366
 7524SOL     OW32885   6.188   2.216   4.433  0.2787 -0.7400 -0.3127
 7524SOL    HW132886   6.251   2.209   4.362 -0.2595 -1.3035 -0.7471
 7524SOL    HW232887   6.197   2.306   4.465  1.4964 -0.9014 -0.1747
 7525SOL     OW32888  11.095   2.893   6.356 -0.0781 -0.1598  0.0170
 7525SOL    HW132889  11.058   2.877   6.269 -1.5042 -1.5839  0.8323
 7525SOL    HW232890  11.078   2.986   6.373  0.7031  0.2650 -1.4179
 7526SOL     OW32891   4.717  11.408   2.846  0.4256 -0.1934 -0.1827
 7526SOL    HW132892   4.772  11.447   2.914 -1.7831 -0.9066  2.1760
 7526SOL    HW232893   4.639  11.464   2.843 -0.5544 -1.5367 -0.4253
 7527SOL     OW32894   3.341  12.616   3.099 -0.1461  0.4704 -0.4999
 7527SOL    HW132895   3.364  12.535   3.055  0.5454 -1.3001  2.8160
 7527SOL    HW232896   3.424  12.662   3.112  0.2694 -0.8343  2.0807
 7528SOL     OW32897   4.199   8.657   9.408 -0.1272  0.1580  0.1133
 7528SOL    HW132898   4.279   8.667   9.460 -1.5190  1.1432  2.1763
 7528SOL    HW232899   4.141   8.727   9.438 -1.4163  0.1551 -2.0989
 7529SOL     OW32900   6.758  10.379   7.003  0.3332 -0.7353 -1.2138
 7529SOL    HW132901   6.772  10.472   6.983  0.0617 -0.2653  0.6575
 7529SOL    HW232902   6.828  10.334   6.957  3.1617  0.7931  1.2664
 7530SOL     OW32903   3.187   8.587   6.923  0.4652 -0.0423 -0.4893
 7530SOL    HW132904   3.256   8.631   6.873  1.1382  0.9335  1.2246
 7530SOL    HW232905   3.213   8.596   7.014 -0.2337 -2.6008  0.0507
 7531SOL     OW32906   5.502  12.685  10.410 -0.4478  0.4182 -0.7109
 7531SOL    HW132907   5.575  12.712  10.355  0.9725  0.2280  1.0161
 7531SOL    HW232908   5.522  12.719  10.497 -3.0193  1.3796 -0.4107
 7532SOL     OW32909   0.127  10.511   0.819 -0.1051 -0.2245  0.1518
 7532SOL    HW132910   0.178  10.463   0.754 -1.8612 -0.4613 -1.1306
 7532SOL    HW232911   0.116  10.450   0.892  1.2104 -0.2456  0.3532
 7533SOL     OW32912   7.788  12.358   9.433 -0.1617 -0.2308 -0.2912
 7533SOL    HW132913   7.705  12.334   9.390 -0.7513  0.7829  0.2469
 7533SOL    HW232914   7.777  12.450   9.456  1.3135  0.0389 -0.6154
 7534SOL     OW32915   1.657   7.649  10.563  0.1435  0.1493  0.4170
 7534SOL    HW132916   1.684   7.560  10.542  1.7247  0.7027 -0.0940
 7534SOL    HW232917   1.740   7.697  10.574 -0.6405  1.7518 -0.2407
 7535SOL     OW32918  12.933   3.154   7.266  0.2200 -0.0227 -0.2143
 7535SOL    HW132919  12.965   3.199   7.187 -0.1483 -1.9855 -1.5548
 7535SOL    HW232920  12.838   3.153   7.254  0.1094  0.2502  0.6120
 7536SOL     OW32921   1.468   3.646  12.702  0.1383 -0.1788 -0.3604
 7536SOL    HW132922   1.469   3.739  12.679 -0.2398  0.2079  1.0960
 7536SOL    HW232923   1.514   3.642  12.786 -0.5037 -1.2088 -0.0473
 7537SOL     OW32924   4.692   6.279  10.339  0.3203  0.2361 -0.5681
 7537SOL    HW132925   4.649   6.210  10.290  0.9095 -0.3497 -0.2781
 7537SOL    HW232926   4.750   6.322  10.276 -1.6966  1.9900 -1.3507
 7538SOL     OW32927  11.465   6.931   9.717  0.2904  0.0473 -0.5788
 7538SOL    HW132928  11.405   7.003   9.738  1.1394  0.1773  1.7429
 7538SOL    HW232929  11.408   6.855   9.705 -0.4214  0.0323  2.1749
 7539SOL     OW32930   1.531   3.918   3.646  0.0826 -1.2616 -0.2236
 7539SOL    HW132931   1.547   3.960   3.561  0.2362  1.7186  1.1371
 7539SOL    HW232932   1.619   3.897   3.678  0.1525 -0.7908 -0.0930
 7540SOL     OW32933   7.176   8.177   1.873  0.8241  0.2574  0.0129
 7540SOL    HW132934   7.169   8.175   1.778  1.2433 -2.4325 -0.0438
 7540SOL    HW232935   7.089   8.203   1.903 -0.3057 -2.0163 -1.0911
 7541SOL     OW32936   5.764   3.597   2.523 -0.4339 -0.1129  0.3354
 7541SOL    HW132937   5.745   3.681   2.566 -0.0713  1.0086 -1.5949
 7541SOL    HW232938   5.841   3.615   2.470  0.3191 -2.0040  0.7232
 7542SOL     OW32939   3.086  12.819  12.707 -0.1181  0.3168 -0.4383
 7542SOL    HW132940   3.059  12.826  12.799  0.1854 -0.5573 -0.2666
 7542SOL    HW232941   3.118  12.906  12.685 -2.1417  1.1306 -0.3696
 7543SOL     OW32942   9.424   4.268   3.793  0.3554  0.0316 -0.2863
 7543SOL    HW132943   9.481   4.316   3.733 -1.0120 -0.6017 -2.1946
 7543SOL    HW232944   9.411   4.183   3.750 -1.0880 -0.2467  0.6565
 7544SOL     OW32945   8.200   8.364   9.409 -0.6301 -0.1716 -0.3041
 7544SOL    HW132946   8.275   8.319   9.369 -1.5040  0.7512 -3.2299
 7544SOL    HW232947   8.127   8.303   9.396 -1.1230  0.5678 -1.0794
 7545SOL     OW32948   9.763   0.328   0.204  0.2008 -0.2961  0.5106
 7545SOL    HW132949   9.852   0.349   0.177  0.3600  1.0057  1.9175
 7545SOL    HW232950   9.707   0.389   0.156  0.0903 -0.8349 -0.0579
 7546SOL     OW32951   3.666   5.968   3.105  0.2232  0.1009 -0.2998
 7546SOL    HW132952   3.675   6.061   3.126 -0.0504  0.3935 -1.3666
 7546SOL    HW232953   3.720   5.956   3.027 -0.7922 -0.3226 -0.9623
 7547SOL     OW32954   0.107   1.044   2.913 -0.0440 -0.3028 -0.5904
 7547SOL    HW132955   0.177   1.027   2.849 -0.4188 -0.5080 -0.9556
 7547SOL    HW232956   0.123   0.981   2.983 -0.2968 -0.8728 -1.0302
 7548SOL     OW32957   8.925   6.966   6.265 -0.1607 -0.0412  0.1808
 7548SOL    HW132958   9.019   6.971   6.284 -0.2470  2.0595  0.3762
 7548SOL    HW232959   8.921   6.943   6.172  0.6013  0.8579 -0.0950
 7549SOL     OW32960   2.929   3.259   4.618 -0.6416  0.1524 -0.2715
 7549SOL    HW132961   2.872   3.203   4.670 -3.1481  0.5768 -2.3567
 7549SOL    HW232962   2.877   3.281   4.540  2.1593  1.1205 -2.0357
 7550SOL     OW32963   6.929   4.002   6.590  0.4307 -0.4102 -0.3191
 7550SOL    HW132964   6.951   3.958   6.508  0.3212  1.6397 -1.4983
 7550SOL    HW232965   6.861   4.065   6.566 -0.4571 -0.5654  1.5833
 7551SOL     OW32966   6.668   9.191   3.693 -0.3016 -0.2485 -0.2651
 7551SOL    HW132967   6.741   9.211   3.635 -0.8283 -0.4301 -1.0062
 7551SOL    HW232968   6.693   9.228   3.778 -0.3537  1.7221 -1.0692
 7552SOL     OW32969   3.876   3.038   4.518  0.0272  0.1468 -0.0890
 7552SOL    HW132970   3.916   3.033   4.605  1.1462  1.9260 -0.4316
 7552SOL    HW232971   3.799   2.982   4.523  2.1030 -2.8258  0.8595
 7553SOL     OW32972   1.782   4.311   9.802  0.4818  0.1459  0.3592
 7553SOL    HW132973   1.702   4.300   9.854 -0.3275 -0.9568 -1.0242
 7553SOL    HW232974   1.753   4.358   9.724  1.1519 -0.3373 -0.1982
 7554SOL     OW32975   5.846   7.959   2.322 -0.4078  0.5181 -0.2013
 7554SOL    HW132976   5.810   8.045   2.303 -1.7251  0.0502  0.0314
 7554SOL    HW232977   5.822   7.905   2.247  0.7924  0.4403 -0.5540
 7555SOL     OW32978   3.232  12.730  11.606 -0.7651 -0.1639  0.3842
 7555SOL    HW132979   3.328  12.727  11.608 -0.4240  3.6260 -1.4221
 7555SOL    HW232980   3.209  12.798  11.669 -2.2236 -0.4781  0.2297
 7556SOL     OW32981   9.691   5.573   0.659 -0.6834  0.0361  0.3561
 7556SOL    HW132982   9.606   5.590   0.617 -1.8538 -0.3960  2.3935
 7556SOL    HW232983   9.695   5.637   0.730  0.9072  0.3098  0.0434
 7557SOL     OW32984   7.605  11.794   8.626  0.6403 -0.3129  0.1738
 7557SOL    HW132985   7.640  11.869   8.674  0.3460  0.4415 -0.7530
 7557SOL    HW232986   7.528  11.767   8.676  2.2892 -1.8112  2.0813
 7558SOL     OW32987   7.224  10.697   7.584 -0.5666  0.6351 -0.1782
 7558SOL    HW132988   7.279  10.670   7.658 -1.6149 -1.6099 -0.1408
 7558SOL    HW232989   7.137  10.709   7.621 -0.8378  0.7465 -0.8361
 7559SOL     OW32990  12.652   0.609   1.562 -0.0902  0.7062  0.0551
 7559SOL    HW132991  12.605   0.673   1.616  1.4343  3.0967 -1.2668
 7559SOL    HW232992  12.608   0.613   1.477 -1.0629 -1.3668  0.4064
 7560SOL     OW32993  10.314   1.455  11.769  0.2256 -0.8332  0.0378
 7560SOL    HW132994  10.327   1.522  11.702 -0.4268 -0.5879  0.1459
 7560SOL    HW232995  10.233   1.411  11.743 -1.0778  0.4945  1.6447
 7561SOL     OW32996   5.669   7.837   2.657  0.1212 -0.0114  0.1265
 7561SOL    HW132997   5.619   7.868   2.582  1.1733  0.3873 -0.4385
 7561SOL    HW232998   5.732   7.775   2.619 -0.6910 -1.3935  0.9778
 7562SOL     OW32999   6.942   8.360   3.270 -0.7965  0.4204 -0.2282
 7562SOL    HW133000   6.903   8.273   3.260 -2.3529  1.2382 -1.8424
 7562SOL    HW233001   6.868   8.417   3.291 -0.3166  1.8020 -2.0125
 7563SOL     OW33002  10.918   9.417   0.846  0.2646 -0.3574  1.4175
 7563SOL    HW133003  10.865   9.489   0.812  0.0630 -0.7955  0.7896
 7563SOL    HW233004  10.875   9.338   0.813  0.9200 -0.7405  1.4719
 7564SOL     OW33005   2.742   7.760   0.664  0.4539  0.0570 -0.1471
 7564SOL    HW133006   2.760   7.701   0.737 -0.0985  0.0032 -0.0499
 7564SOL    HW233007   2.676   7.820   0.698 -0.8969 -0.8671 -1.0575
 7565SOL     OW33008  10.807   4.882   2.639  0.6690  0.3165  0.0375
 7565SOL    HW133009  10.875   4.841   2.692 -0.8118 -2.6026 -0.1170
 7565SOL    HW233010  10.781   4.960   2.688  1.6981 -0.4389  1.8416
 7566SOL     OW33011   6.846  12.726   9.577 -0.2409 -0.2192  0.0411
 7566SOL    HW133012   6.925  12.677   9.553 -1.0101 -0.5666 -2.0658
 7566SOL    HW233013   6.782  12.658   9.598 -0.4324 -0.0122  0.1210
 7567SOL     OW33014   3.912   0.308   3.631 -0.0480 -0.0382 -0.2848
 7567SOL    HW133015   3.988   0.295   3.687 -0.0546 -1.0608 -0.5068
 7567SOL    HW233016   3.841   0.260   3.674 -1.0994  2.3907  0.9164
 7568SOL     OW33017   7.332   4.676   4.165 -0.2259 -0.4159 -0.3929
 7568SOL    HW133018   7.420   4.705   4.188 -0.3358  0.7959 -1.4206
 7568SOL    HW233019   7.277   4.754   4.174 -0.4919 -0.1374 -3.3653
 7569SOL     OW33020  11.602   1.191   8.953 -0.3924  0.9428  0.7490
 7569SOL    HW133021  11.676   1.245   8.925  0.3842 -0.6093 -0.3152
 7569SOL    HW233022  11.639   1.134   9.021 -0.7754  0.5971  0.6686
 7570SOL     OW33023  12.044   4.295   2.300  0.3233 -0.5158  0.1651
 7570SOL    HW133024  11.967   4.246   2.270  1.7013 -4.1375  1.8516
 7570SOL    HW233025  12.016   4.335   2.382 -0.0533 -1.0434  0.3004
 7571SOL     OW33026   1.233   0.454   8.080 -0.1525 -0.2960  0.1824
 7571SOL    HW133027   1.317   0.414   8.105 -0.5851 -1.0303  0.4971
 7571SOL    HW233028   1.185   0.383   8.036 -1.0948 -0.2518  1.1075
 7572SOL     OW33029   2.277  10.782  10.836 -0.7961 -0.2559 -0.1228
 7572SOL    HW133030   2.203  10.798  10.778 -0.3238  1.9696 -0.1779
 7572SOL    HW233031   2.354  10.807  10.785 -0.3374  1.2682  1.2315
 7573SOL     OW33032   2.142   0.238   2.015  0.4666 -0.0848  0.0456
 7573SOL    HW133033   2.088   0.253   1.938 -1.5448  2.5422  1.8203
 7573SOL    HW233034   2.210   0.306   2.012  1.3967 -0.9863 -0.1833
 7574SOL     OW33035   1.583   6.040   4.458  0.0545  0.4122 -0.2743
 7574SOL    HW133036   1.559   6.118   4.407  0.5006 -0.0771 -1.2610
 7574SOL    HW233037   1.677   6.050   4.474 -0.3929  1.4669  2.0821
 7575SOL     OW33038   9.612   7.723   9.903  0.4409  0.4048 -0.0819
 7575SOL    HW133039   9.547   7.664   9.865 -0.7076  0.9534  0.9769
 7575SOL    HW233040   9.637   7.681   9.986 -0.2069  1.2628  0.5631
 7576SOL     OW33041   4.979   8.084  11.148  0.0863 -0.3472 -0.1429
 7576SOL    HW133042   4.998   8.155  11.086 -1.3151 -0.0857 -0.2990
 7576SOL    HW233043   4.916   8.029  11.102 -1.2218  0.0274  1.1610
 7577SOL     OW33044   4.257   3.457  12.984  0.3790 -0.1021  0.3423
 7577SOL    HW133045   4.315   3.473  12.909  0.5572 -0.1222  0.4727
 7577SOL    HW233046   4.287   3.519  13.050  0.5266 -0.3968  0.5567
 7578SOL     OW33047   7.852   0.319   5.095 -0.2447 -0.3532  0.5182
 7578SOL    HW133048   7.943   0.298   5.118 -0.3834  0.6956  2.2168
 7578SOL    HW233049   7.824   0.381   5.162 -1.6580  0.7646 -1.0227
 7579SOL     OW33050   7.403  11.968   3.575 -0.2728 -1.2180 -0.5692
 7579SOL    HW133051   7.414  11.993   3.667  1.0407 -1.1299 -0.7209
 7579SOL    HW233052   7.339  12.030   3.541 -0.8353 -1.3000  0.3043
 7580SOL     OW33053  11.901   4.999   9.364 -0.0407  0.5247 -0.4087
 7580SOL    HW133054  11.904   4.916   9.317 -0.7650  0.9335 -1.1985
 7580SOL    HW233055  11.948   4.982   9.446 -0.3532 -0.7107 -0.4758
 7581SOL     OW33056   2.961   6.662   1.723 -0.5242  0.3058  0.9202
 7581SOL    HW133057   3.023   6.611   1.776 -0.3394 -0.5734 -0.1155
 7581SOL    HW233058   3.010   6.682   1.643 -1.6847 -0.7525 -0.0923
 7582SOL     OW33059  11.439   8.925   1.040 -0.1791 -0.0089 -0.3284
 7582SOL    HW133060  11.489   8.843   1.035  1.4474  0.9609 -0.6885
 7582SOL    HW233061  11.475   8.970   1.116 -2.9707 -0.7690  1.5815
 7583SOL     OW33062   8.765   4.263   4.958 -0.1640 -0.0109  0.0893
 7583SOL    HW133063   8.847   4.214   4.953  1.2739  1.6579  3.4718
 7583SOL    HW233064   8.790   4.348   4.995 -3.3215  0.9195  0.4235
 7584SOL     OW33065   4.985   2.270  11.088  0.1291 -0.1146 -0.1551
 7584SOL    HW133066   4.931   2.285  11.010  0.6952  1.6305 -0.2611
 7584SOL    HW233067   4.963   2.181  11.116 -1.9935  0.1328 -0.8207
 7585SOL     OW33068   7.944   2.126   0.473  0.4066 -0.2205 -0.4964
 7585SOL    HW133069   8.036   2.153   0.474  0.4359 -0.3085  0.3613
 7585SOL    HW233070   7.902   2.183   0.538 -0.1439 -0.1739 -0.8904
 7586SOL     OW33071   4.977   8.912   4.214  0.1362  0.0712 -0.5883
 7586SOL    HW133072   5.014   8.856   4.282 -1.5444  0.6307  0.8527
 7586SOL    HW233073   5.032   8.895   4.137  1.8415 -0.8828  0.7650
 7587SOL     OW33074   3.744   9.248   8.630 -0.2902  0.0952 -0.5618
 7587SOL    HW133075   3.764   9.245   8.723 -0.1220  1.4334 -0.5355
 7587SOL    HW233076   3.772   9.163   8.596  0.0472 -0.2354  0.5215
 7588SOL     OW33077   4.336   8.365   1.105  0.0519  0.3640 -0.3577
 7588SOL    HW133078   4.360   8.424   1.176 -1.3469  1.2148 -0.5554
 7588SOL    HW233079   4.419   8.335   1.070  0.7980  1.8103  0.0878
 7589SOL     OW33080   4.915  12.874   4.694 -0.6499  1.1411  0.1604
 7589SOL    HW133081   4.867  12.859   4.775  0.3146 -1.0830  0.3944
 7589SOL    HW233082   4.973  12.948   4.713  0.5732 -0.2175  2.0137
 7590SOL     OW33083   7.889  12.595   6.156  0.0474  0.1743 -0.8027
 7590SOL    HW133084   7.850  12.654   6.092  0.2661 -0.3912 -1.4682
 7590SOL    HW233085   7.847  12.619   6.239  0.0050  1.1382 -1.0865
 7591SOL     OW33086   7.662   5.804   5.286 -0.9237  0.0762 -0.1999
 7591SOL    HW133087   7.684   5.850   5.367 -2.8612  0.7986 -0.0263
 7591SOL    HW233088   7.660   5.873   5.219  1.3854 -0.6228 -1.0603
 7592SOL     OW33089  11.879  12.530   2.572  0.1593  0.4568 -0.7517
 7592SOL    HW133090  11.855  12.615   2.534  0.7703  0.7109 -0.5813
 7592SOL    HW233091  11.949  12.551   2.635  0.8851 -0.2657 -1.3021
 7593SOL     OW33092   8.187  11.641   2.556 -0.1918 -0.2766 -0.3452
 7593SOL    HW133093   8.258  11.590   2.517 -0.4949 -0.6198 -0.4483
 7593SOL    HW233094   8.211  11.649   2.648  1.3318  1.8624 -0.8416
 7594SOL     OW33095   8.022   1.041   6.233 -0.5315  0.9068 -0.6210
 7594SOL    HW133096   8.067   0.985   6.295 -1.0202  0.1477 -0.9451
 7594SOL    HW233097   7.938   1.061   6.275  0.1811  2.5579  0.1137
 7595SOL     OW33098  12.879   3.983   0.151  0.4067  0.0379 -0.4338
 7595SOL    HW133099  12.964   4.025   0.137  0.5864 -0.3013 -0.3553
 7595SOL    HW233100  12.820   4.056   0.168  1.1969  0.1805  2.1964
 7596SOL     OW33101   2.827   6.619   0.940  0.2181 -0.1828  0.2541
 7596SOL    HW133102   2.891   6.640   1.008  1.4668 -0.8477 -0.6532
 7596SOL    HW233103   2.821   6.524   0.942  0.7813 -0.2651 -0.9675
 7597SOL     OW33104   3.934   2.217   8.831 -0.2605 -0.0244  0.5524
 7597SOL    HW133105   3.899   2.141   8.784  1.2676 -1.6723  1.9289
 7597SOL    HW233106   3.859   2.276   8.840 -1.1291 -0.6396 -1.9031
 7598SOL     OW33107  11.987   7.546   0.090  0.2310 -0.8793 -0.3906
 7598SOL    HW133108  12.024   7.575   0.174 -1.2419  1.1888 -0.3730
 7598SOL    HW233109  12.006   7.618   0.030 -1.3241 -0.9987 -1.0640
 7599SOL     OW33110   3.585   9.182  12.006  0.3913 -0.1381  0.8262
 7599SOL    HW133111   3.523   9.243  12.045 -1.7676 -0.4894 -1.7954
 7599SOL    HW233112   3.652   9.239  11.966 -0.1117  0.4002  0.7336
 7600SOL     OW33113   4.052   4.817   3.615  0.4177  0.0553 -0.1837
 7600SOL    HW133114   4.042   4.911   3.635  0.3734  0.0769 -0.3100
 7600SOL    HW233115   3.979   4.776   3.661 -1.2234  0.3730 -2.3518
 7601SOL     OW33116   9.795   6.210   4.309 -0.0511 -0.2051  0.4154
 7601SOL    HW133117   9.791   6.117   4.332  1.4071 -0.0016  1.6376
 7601SOL    HW233118   9.834   6.211   4.221 -0.1059 -0.7549  0.3792
 7602SOL     OW33119   8.032  11.429   3.878 -0.1927 -0.1595  0.0912
 7602SOL    HW133120   7.991  11.480   3.947  1.1813  1.2063 -0.0534
 7602SOL    HW233121   8.126  11.442   3.891  0.1119 -0.5866 -1.5020
 7603SOL     OW33122   8.918   7.572   1.205  0.4373 -0.0201  0.0191
 7603SOL    HW133123   8.862   7.518   1.150  0.4885  0.0618 -0.1141
 7603SOL    HW233124   8.956   7.636   1.145  2.3721 -1.3962 -0.3223
 7604SOL     OW33125  10.623   4.648   2.811 -0.0495 -0.0566 -0.2303
 7604SOL    HW133126  10.564   4.579   2.780  0.8141  0.0492 -2.1937
 7604SOL    HW233127  10.595   4.726   2.764  2.5619 -0.3229 -2.4667
 7605SOL     OW33128  10.609  10.340   0.845 -0.3897  0.4155  0.4715
 7605SOL    HW133129  10.704  10.331   0.834 -0.6542 -2.6339 -0.1707
 7605SOL    HW233130  10.598  10.364   0.937  0.9841 -2.1036  1.3882
 7606SOL     OW33131   7.757   7.783  11.003  0.3388  0.2169 -0.3927
 7606SOL    HW133132   7.800   7.803  11.085  0.2979  2.5172 -0.8644
 7606SOL    HW233133   7.666   7.766  11.027  0.3411  0.8139  0.0668
 7607SOL     OW33134   6.852   9.721   9.490  0.3530  0.3481 -0.6533
 7607SOL    HW133135   6.783   9.779   9.457  1.0628  1.4278 -0.3224
 7607SOL    HW233136   6.928   9.742   9.435  0.7140 -0.0271 -0.2989
 7608SOL     OW33137   2.625  12.409   9.927 -0.3889  0.0708 -0.0116
 7608SOL    HW133138   2.667  12.463   9.994  0.1068 -0.6901  0.3108
 7608SOL    HW233139   2.543  12.381   9.967 -0.9839  1.1566 -0.4529
 7609SOL     OW33140   1.828   6.011  10.368 -0.5185  0.5424  0.2019
 7609SOL    HW133141   1.890   5.942  10.344 -1.1280  0.3847 -0.9944
 7609SOL    HW233142   1.876   6.066  10.430  0.5145 -0.0613 -0.0377
 7610SOL     OW33143   5.984   1.444   2.921 -0.2987 -0.0745  0.1013
 7610SOL    HW133144   5.931   1.507   2.970  1.2137  0.7403  0.7635
 7610SOL    HW233145   5.921   1.381   2.888 -1.7592  1.2290  0.2597
 7611SOL     OW33146   0.986  11.276   0.550 -0.0010  0.0477 -0.7575
 7611SOL    HW133147   0.914  11.269   0.613  1.3407 -1.6148  0.7005
 7611SOL    HW233148   1.045  11.204   0.572  1.7364  0.8626 -2.3991
 7612SOL     OW33149   4.242   9.842   7.005  0.1120 -0.1605 -0.2585
 7612SOL    HW133150   4.225   9.750   7.023 -1.5570  0.5905  2.6183
 7612SOL    HW233151   4.337   9.848   6.999  0.2700 -1.9978 -0.2200
 7613SOL     OW33152  11.973   7.108   0.126 -0.1954  0.2430  0.2683
 7613SOL    HW133153  12.015   7.165   0.062  0.1783 -1.5346 -1.1575
 7613SOL    HW233154  12.016   7.128   0.209 -0.1474  2.0542 -0.1490
 7614SOL     OW33155  10.082   9.007   7.982  0.0561 -0.4162 -0.2376
 7614SOL    HW133156  10.071   9.008   7.887 -1.4165 -1.0221 -0.0971
 7614SOL    HW233157   9.997   9.035   8.016  0.6655  0.1210  0.9097
 7615SOL     OW33158   8.820   1.384  12.723 -0.0025 -0.1380  0.1655
 7615SOL    HW133159   8.913   1.382  12.744 -0.1463 -0.8613  0.7803
 7615SOL    HW233160   8.792   1.473  12.745  0.5443  0.0842 -0.0357
 7616SOL     OW33161  11.064   4.746   9.058 -0.8442  0.6732 -0.3616
 7616SOL    HW133162  11.052   4.708   9.145  1.3193  0.3223 -0.1496
 7616SOL    HW233163  11.058   4.841   9.073 -1.3627  0.5878  0.0023
 7617SOL     OW33164   2.101  12.318   3.344  0.4515 -0.0825  0.9376
 7617SOL    HW133165   2.132  12.397   3.389  2.5989 -1.2087  1.5806
 7617SOL    HW233166   2.172  12.254   3.356 -0.7055 -1.7474 -0.5634
 7618SOL     OW33167  11.281   2.637  12.842 -0.0959 -0.2242 -0.0397
 7618SOL    HW133168  11.291   2.593  12.758  0.7977  0.7887 -0.4871
 7618SOL    HW233169  11.328   2.581  12.904  1.4315  0.2942 -0.6831
 7619SOL     OW33170   9.910   2.423  12.181  0.2563  0.1162 -0.1237
 7619SOL    HW133171   9.903   2.376  12.264 -1.5801  0.3945 -0.0761
 7619SOL    HW233172   9.921   2.514  12.206 -2.9126  0.5919 -0.0491
 7620SOL     OW33173   3.013   6.232  10.043  0.5758  0.2832  0.3180
 7620SOL    HW133174   2.976   6.320  10.037 -1.1523 -0.2195  2.3274
 7620SOL    HW233175   2.938   6.174  10.028  1.5512 -0.8591 -0.3240
 7621SOL     OW33176   6.386  11.083   3.243 -0.4145  0.6030  0.3562
 7621SOL    HW133177   6.297  11.068   3.277 -0.2117  0.5717  0.8717
 7621SOL    HW233178   6.378  11.064   3.149 -1.0871  1.1653  0.2919
 7622SOL     OW33179   1.907  11.609   1.768  0.1499 -0.4508 -0.3915
 7622SOL    HW133180   1.964  11.544   1.811  1.3388  1.3814  0.9271
 7622SOL    HW233181   1.958  11.638   1.692 -0.5156 -1.2280 -1.1610
 7623SOL     OW33182  11.525   1.302   4.736  0.1479  0.1912  0.6057
 7623SOL    HW133183  11.585   1.373   4.715 -0.5617  0.1166 -2.0527
 7623SOL    HW233184  11.580   1.224   4.739  0.4307  0.3505 -0.1716
 7624SOL     OW33185   0.138   4.075   0.127  0.4969  0.2477  0.9311
 7624SOL    HW133186   0.161   4.084   0.034  1.3644  1.5257  1.2342
 7624SOL    HW233187   0.210   4.118   0.173  0.6882 -1.4094  2.2734
 7625SOL     OW33188   3.351  11.578   3.036  0.3358  0.5735 -0.0387
 7625SOL    HW133189   3.408  11.655   3.038  2.0016 -0.6176  0.9720
 7625SOL    HW233190   3.330  11.562   3.128 -1.5698  0.8815 -0.3706
 7626SOL     OW33191   6.084  11.995   1.202  0.0820 -0.2679 -0.0551
 7626SOL    HW133192   6.139  11.923   1.233  0.9728  0.2610 -0.3380
 7626SOL    HW233193   6.054  12.039   1.282  1.4631  0.4312  0.1246
 7627SOL     OW33194   6.807   4.837   5.656 -0.1363 -0.4771 -0.1114
 7627SOL    HW133195   6.736   4.876   5.708  0.3614  0.5934 -0.2048
 7627SOL    HW233196   6.877   4.902   5.659  0.5790 -1.2124 -0.6106
 7628SOL     OW33197   8.067   2.489   8.681 -0.1576  0.7749  0.3247
 7628SOL    HW133198   8.092   2.528   8.765  0.2905 -1.0352  1.0845
 7628SOL    HW233199   8.140   2.509   8.622  0.1005  0.9902  0.7151
 7629SOL     OW33200   6.305  11.483   9.987  0.2963 -0.1457  0.0051
 7629SOL    HW133201   6.227  11.534  10.011  1.0547  1.3331 -0.5625
 7629SOL    HW233202   6.354  11.540   9.928  2.4795 -0.5055  1.3817
 7630SOL     OW33203   7.120   1.474  10.949  0.5521  0.8304 -0.1952
 7630SOL    HW133204   7.171   1.439  10.876 -0.3529 -0.7269 -0.1191
 7630SOL    HW233205   7.178   1.465  11.025  1.0712  1.4067 -0.5070
 7631SOL     OW33206  10.109   2.278   7.437  0.4351  0.1297  0.0654
 7631SOL    HW133207  10.186   2.306   7.487 -0.0117  0.8410  0.3751
 7631SOL    HW233208  10.050   2.242   7.503  1.2988 -2.3659 -0.4030
 7632SOL     OW33209   6.235   8.584   7.776  0.0032  0.2412  0.1566
 7632SOL    HW133210   6.200   8.606   7.690 -2.1211 -3.7543 -0.2204
 7632SOL    HW233211   6.167   8.610   7.838  0.8391  1.6211  0.5478
 7633SOL     OW33212  11.378   1.416   2.388  0.1520 -0.6386 -0.1861
 7633SOL    HW133213  11.292   1.453   2.408 -0.3054 -1.4617 -0.5825
 7633SOL    HW233214  11.423   1.484   2.339 -0.2842 -0.2117  0.0022
 7634SOL     OW33215   7.713   1.867   0.193  0.2125 -0.0950 -0.1752
 7634SOL    HW133216   7.801   1.881   0.228  0.0106  0.5681  0.0712
 7634SOL    HW233217   7.666   1.947   0.214 -0.0357  0.1511 -1.6204
 7635SOL     OW33218   9.774   6.023   0.477 -0.2527  0.6426  0.1046
 7635SOL    HW133219   9.745   6.092   0.418  0.1351  1.1324  0.4742
 7635SOL    HW233220   9.863   6.049   0.502  0.2588 -0.4733 -0.4845
 7636SOL     OW33221   3.362   3.060   5.814  0.2690  0.0867  0.3631
 7636SOL    HW133222   3.361   3.149   5.779 -0.3336  0.4869  1.3475
 7636SOL    HW233223   3.349   3.004   5.738 -0.9658  0.9317 -0.0820
 7637SOL     OW33224   1.841   3.161   8.374  0.3124 -0.5224  0.6073
 7637SOL    HW133225   1.748   3.155   8.353  0.6425  0.1444 -1.1493
 7637SOL    HW233226   1.843   3.164   8.470 -1.3036 -3.0859  0.8117
 7638SOL     OW33227   9.526   1.292   9.676  0.5159  0.1565 -0.3674
 7638SOL    HW133228   9.548   1.203   9.647 -0.8891 -0.0648 -0.8110
 7638SOL    HW233229   9.586   1.348   9.626  0.2835 -0.4354 -1.3469
 7639SOL     OW33230   5.904  12.748  10.830 -0.5121 -0.3682  0.2582
 7639SOL    HW133231   5.904  12.750  10.734  2.1812 -1.9638  0.1177
 7639SOL    HW233232   5.940  12.662  10.852 -1.2158 -0.0916  2.7221
 7640SOL     OW33233   2.369   2.399   1.440 -0.0801  0.1967 -0.0926
 7640SOL    HW133234   2.459   2.389   1.408  0.1710  0.3852  0.5406
 7640SOL    HW233235   2.319   2.334   1.390  0.3906  0.1350 -0.4996
 7641SOL     OW33236   2.603   8.081   5.191  0.3562 -0.2109 -0.8926
 7641SOL    HW133237   2.592   8.005   5.249  1.5177  0.5766  0.4168
 7641SOL    HW233238   2.573   8.155   5.244  2.5319  0.6843 -0.8217
 7642SOL     OW33239   1.252   5.002   0.935 -0.4424 -0.6912 -0.2288
 7642SOL    HW133240   1.159   4.990   0.914 -0.7681  1.6924 -0.4038
 7642SOL    HW233241   1.252   5.041   1.022  0.1875  1.7974 -1.2616
 7643SOL     OW33242   1.200   8.335  11.975 -0.1287 -0.5184  0.4885
 7643SOL    HW133243   1.109   8.304  11.968  0.6835 -2.8589 -0.5321
 7643SOL    HW233244   1.216   8.381  11.892 -0.0656 -1.0558  0.1971
 7644SOL     OW33245  10.253  12.728   6.940  0.0025 -0.1446  0.5593
 7644SOL    HW133246  10.280  12.655   6.885 -0.6544 -0.4679  0.6519
 7644SOL    HW233247  10.250  12.803   6.881  0.1618 -0.3007  0.3492
 7645SOL     OW33248  10.436   3.949   3.921 -0.1036  0.7858  0.1445
 7645SOL    HW133249  10.467   3.863   3.892  0.8244  0.9910  0.4761
 7645SOL    HW233250  10.476   4.010   3.859 -1.4056  0.9339 -0.5768
 7646SOL     OW33251   0.597   2.541   8.512  0.0633 -0.0021 -0.1675
 7646SOL    HW133252   0.520   2.504   8.555  0.8321 -0.1568  1.1500
 7646SOL    HW233253   0.594   2.508   8.423 -0.4486 -1.4585  0.3654
 7647SOL     OW33254   3.468   4.779   6.591  0.8790 -0.3978  0.2829
 7647SOL    HW133255   3.387   4.819   6.561  0.8925 -0.0471  0.6938
 7647SOL    HW233256   3.534   4.807   6.528  0.9974  0.7112  0.8670
 7648SOL     OW33257   4.233   7.747   4.117 -0.1993 -0.3296  0.2216
 7648SOL    HW133258   4.195   7.734   4.204  1.2164  0.4528  0.9811
 7648SOL    HW233259   4.325   7.765   4.133 -0.0857  0.7494 -1.3915
 7649SOL     OW33260   4.028   4.121   9.261 -0.2681 -0.6552 -0.5808
 7649SOL    HW133261   4.120   4.142   9.275 -0.0495 -1.3742 -0.8910
 7649SOL    HW233262   4.022   4.027   9.281 -1.2309 -0.3133  0.9268
 7650SOL     OW33263   6.234   9.661   0.634  0.1430 -0.7031 -0.3613
 7650SOL    HW133264   6.186   9.615   0.565 -0.2017 -0.3442 -0.3627
 7650SOL    HW233265   6.221   9.606   0.712 -1.5497  0.1509  0.0012
 7651SOL     OW33266   4.640   9.321  10.197 -0.0338  0.4959  0.0395
 7651SOL    HW133267   4.693   9.253  10.157 -2.1543 -0.5462 -1.1476
 7651SOL    HW233268   4.652   9.309  10.291 -0.3839 -1.5852 -0.1409
 7652SOL     OW33269   7.712  11.455   0.646  0.0982  0.1318  0.1168
 7652SOL    HW133270   7.767  11.446   0.724 -0.8845  0.7152  0.9012
 7652SOL    HW233271   7.772  11.440   0.573  0.9983 -0.6357  0.9799
 7653SOL     OW33272   2.258   9.648   2.069  0.2351  0.9659  0.3668
 7653SOL    HW133273   2.230   9.563   2.035  1.6530  0.3364  0.7274
 7653SOL    HW233274   2.223   9.711   2.007  1.3055 -0.0385 -1.3275
 7654SOL     OW33275  11.961   2.718   4.353 -0.0833 -0.4403  0.0187
 7654SOL    HW133276  11.899   2.789   4.342 -0.2175 -0.5588  0.0005
 7654SOL    HW233277  11.984   2.720   4.446 -0.7031 -0.8759  0.1892
 7655SOL     OW33278  11.469   3.776   4.205  0.0313 -0.0694  0.0112
 7655SOL    HW133279  11.474   3.710   4.136 -0.4848  2.2883 -2.5053
 7655SOL    HW233280  11.560   3.789   4.233  0.2598 -1.0595 -0.2517
 7656SOL     OW33281   6.032   8.088  11.234  0.3992 -0.2861  0.6872
 7656SOL    HW133282   6.024   8.179  11.260  1.3648  0.1236 -0.3842
 7656SOL    HW233283   5.948   8.066  11.195  0.2451  0.2096  0.7370
 7657SOL     OW33284  12.315   1.371   1.495  0.1715 -0.0632  0.1854
 7657SOL    HW133285  12.307   1.451   1.443 -1.7656 -0.3021  0.0444
 7657SOL    HW233286  12.405   1.343   1.483  1.1175  2.4520  0.7927
 7658SOL     OW33287   6.990   7.619   4.842 -0.1634 -0.2097  0.0420
 7658SOL    HW133288   7.036   7.535   4.844  2.8890  1.3303  0.7393
 7658SOL    HW233289   6.939   7.617   4.761 -1.0291 -3.0748  0.5474
 7659SOL     OW33290   5.130  12.043  11.519 -0.1274  0.8999  0.5356
 7659SOL    HW133291   5.077  11.982  11.468 -0.6202 -0.6472  2.7395
 7659SOL    HW233292   5.081  12.054  11.601  0.9771  2.6832  1.0166
 7660SOL     OW33293   1.011   4.015   7.203  0.1139  0.3559  0.4151
 7660SOL    HW133294   0.930   3.979   7.239  1.1125 -2.4101  0.1304
 7660SOL    HW233295   1.017   3.977   7.115  1.1973  1.3329  0.0461
 7661SOL     OW33296   9.920   9.164   8.451  1.3697 -0.4254  0.0819
 7661SOL    HW133297   9.855   9.232   8.431  2.2952  0.3124 -0.4494
 7661SOL    HW233298   9.878   9.083   8.424  0.3293 -0.0610  0.5344
 7662SOL     OW33299   5.421   4.619  11.248 -0.9089 -0.2666 -0.2775
 7662SOL    HW133300   5.513   4.629  11.224 -0.6899 -1.1242  0.1696
 7662SOL    HW233301   5.374   4.625  11.165 -0.5796  1.4075 -0.3837
 7663SOL     OW33302   9.070   7.572   9.588  0.1826  0.6368 -0.6822
 7663SOL    HW133303   9.124   7.629   9.535  1.3539 -1.2651 -1.6347
 7663SOL    HW233304   8.980   7.600   9.570  0.6217  0.9311 -2.6088
 7664SOL     OW33305   8.145   2.670   7.481  0.1453  1.0341  0.2095
 7664SOL    HW133306   8.056   2.700   7.465 -0.0621  0.0312 -0.5792
 7664SOL    HW233307   8.200   2.729   7.428  0.0470  2.1878  1.3434
 7665SOL     OW33308   8.527  10.796   0.423 -0.3483  0.4087 -0.1202
 7665SOL    HW133309   8.436  10.779   0.446  0.1619 -0.3900  1.4539
 7665SOL    HW233310   8.570  10.710   0.429  0.4257  0.6938 -1.2666
 7666SOL     OW33311  12.108   7.767  11.861 -0.2533 -0.1653  0.6801
 7666SOL    HW133312  12.047   7.841  11.862  1.6062  1.4643  0.0744
 7666SOL    HW233313  12.182   7.797  11.913  1.2372 -0.9525 -0.8907
 7667SOL     OW33314   9.309   4.955   4.420  0.4540 -0.5620  0.4321
 7667SOL    HW133315   9.215   4.949   4.436  0.4117  0.9252  0.8926
 7667SOL    HW233316   9.348   4.949   4.507  0.7028  0.0582  0.3663
 7668SOL     OW33317   1.915   7.470   2.156 -0.1348  0.4669  0.6673
 7668SOL    HW133318   1.822   7.493   2.147 -0.4505 -0.9540  0.0135
 7668SOL    HW233319   1.916   7.400   2.223 -0.0622 -2.1827 -1.8891
 7669SOL     OW33320   0.870   8.351  10.537  0.2378  0.2287  0.5942
 7669SOL    HW133321   0.911   8.272  10.571  0.8422 -0.1773 -1.0006
 7669SOL    HW233322   0.926   8.423  10.567  0.8390 -0.1269  0.3264
 7670SOL     OW33323  11.896  10.740  11.870 -0.2030  0.6311 -0.2438
 7670SOL    HW133324  11.839  10.763  11.943 -2.2651  0.0446 -1.5928
 7670SOL    HW233325  11.868  10.653  11.843  1.5492  0.1946 -0.7905
 7671SOL     OW33326  12.539   8.785  10.611  0.4570 -0.1505 -0.0934
 7671SOL    HW133327  12.524   8.728  10.536 -1.6363  1.6838 -1.1830
 7671SOL    HW233328  12.608   8.845  10.582 -0.5246  0.7175 -0.7091
 7672SOL     OW33329   4.602   4.347   8.209 -0.3665  0.0786 -0.2625
 7672SOL    HW133330   4.635   4.305   8.289 -0.0187 -0.5047 -0.7071
 7672SOL    HW233331   4.649   4.304   8.138 -2.0686 -0.7865 -0.9232
 7673SOL     OW33332   8.988  11.061   2.683  0.4019  0.2423 -0.1096
 7673SOL    HW133333   8.975  11.110   2.601 -1.7331 -2.2470 -1.4159
 7673SOL    HW233334   8.919  11.094   2.741 -0.1956 -0.2755 -0.5168
 7674SOL     OW33335   5.618   8.246  12.936 -0.0926  0.0647  0.4484
 7674SOL    HW133336   5.597   8.339  12.943  0.1851  0.0764  1.1045
 7674SOL    HW233337   5.576   8.219  12.854 -1.3505  0.4510  0.9363
 7675SOL     OW33338   9.498  11.055   7.669  0.0786  0.0973 -0.6306
 7675SOL    HW133339   9.577  11.009   7.639  0.5415  0.4904 -0.0403
 7675SOL    HW233340   9.530  11.139   7.701 -0.4138 -0.2274  0.7721
 7676SOL     OW33341  11.160   8.609   7.590  0.5460 -0.2872  0.2845
 7676SOL    HW133342  11.113   8.657   7.521 -2.6281 -1.8133  1.1944
 7676SOL    HW233343  11.187   8.527   7.548  0.2320 -0.4402  0.3798
 7677SOL     OW33344   5.298  12.502   9.787 -0.0429  0.3991 -0.0883
 7677SOL    HW133345   5.374  12.450   9.762  0.6429  1.0616  0.5552
 7677SOL    HW233346   5.285  12.481   9.880 -0.3944  0.5952 -0.0925
 7678SOL     OW33347   2.455   6.657  12.392  0.0268 -0.7452  0.0625
 7678SOL    HW133348   2.391   6.622  12.455 -0.1254 -0.1866  0.2215
 7678SOL    HW233349   2.426   6.624  12.307 -0.6469 -0.2449  0.0968
 7679SOL     OW33350   2.054   0.820   1.756 -0.1379  0.5018 -0.4929
 7679SOL    HW133351   2.135   0.832   1.706  0.4430 -2.2861 -0.4122
 7679SOL    HW233352   1.987   0.805   1.689  0.0288 -0.1499 -0.5226
 7680SOL     OW33353   6.153   9.917   8.886 -0.0637 -0.3482  0.3848
 7680SOL    HW133354   6.133  10.000   8.842 -0.3480 -0.1215  0.9347
 7680SOL    HW233355   6.069   9.872   8.890  0.1124 -0.7165 -0.0144
 7681SOL     OW33356  10.519   8.495   7.730  0.3473 -0.2788  0.0759
 7681SOL    HW133357  10.528   8.402   7.750 -0.3237  0.0494  2.1095
 7681SOL    HW233358  10.609   8.526   7.716  0.9700 -0.5457  2.9246
 7682SOL     OW33359  12.944  12.866  10.229  0.0038 -0.4483 -0.0718
 7682SOL    HW133360  12.871  12.876  10.167  1.2653 -1.6056 -1.8386
 7682SOL    HW233361  13.010  12.816  10.180  1.2286 -1.0704  2.1031
 7683SOL     OW33362   3.376  11.801   4.727 -0.1054  0.3342  0.0888
 7683SOL    HW133363   3.472  11.800   4.724 -0.0190 -0.5014  1.9085
 7683SOL    HW233364   3.351  11.718   4.686 -0.0254  0.3625 -0.0185
 7684SOL     OW33365   8.519  12.235  10.366 -0.1417 -0.2003 -0.2661
 7684SOL    HW133366   8.491  12.217  10.456  1.9993  0.0773  0.4976
 7684SOL    HW233367   8.441  12.217  10.314 -2.0392  1.3708  1.7860
 7685SOL     OW33368   7.732   1.855   5.492  0.4277 -0.0491 -0.3085
 7685SOL    HW133369   7.676   1.777   5.491 -0.4795  0.5533 -2.1070
 7685SOL    HW233370   7.821   1.820   5.488  0.0610 -1.0133 -0.3653
 7686SOL     OW33371  11.132   4.347   3.570 -0.1160 -0.5503  0.0999
 7686SOL    HW133372  11.129   4.330   3.664 -0.2772 -0.2822  0.1445
 7686SOL    HW233373  11.210   4.300   3.539  0.0244 -0.5095  0.3927
 7687SOL     OW33374  12.832   2.592   4.463 -0.6259  0.0740  0.5692
 7687SOL    HW133375  12.913   2.630   4.429 -1.0859  2.2296  1.7139
 7687SOL    HW233376  12.861   2.524   4.525  0.2682 -0.0690  0.0087
 7688SOL     OW33377   1.865   2.035   1.703  0.6951  0.6292  0.1131
 7688SOL    HW133378   1.855   2.107   1.641  0.1989 -0.4080 -1.0737
 7688SOL    HW233379   1.835   1.958   1.654  0.6857 -0.2932  1.5214
 7689SOL     OW33380   1.397  11.788   6.270 -0.3978  0.2265 -0.5799
 7689SOL    HW133381   1.350  11.787   6.354 -0.1133 -0.8761 -0.4192
 7689SOL    HW233382   1.408  11.881   6.250  0.5349  0.5444  1.1878
 7690SOL     OW33383   1.383  11.923  10.767  0.8051 -0.3519  0.2552
 7690SOL    HW133384   1.424  11.952  10.686  0.3847  1.2862  0.5941
 7690SOL    HW233385   1.327  11.849  10.740  1.2858 -0.3514 -0.7969
 7691SOL     OW33386   6.359  10.617   6.851 -0.3894  0.0437  0.7685
 7691SOL    HW133387   6.445  10.589   6.819 -0.2887  0.8932  0.2575
 7691SOL    HW233388   6.376  10.699   6.897 -1.1216  1.1701 -0.8353
 7692SOL     OW33389   8.514  12.116   8.209 -0.2191 -0.0347  0.0195
 7692SOL    HW133390   8.500  12.057   8.283 -2.2205 -0.5596 -0.7147
 7692SOL    HW233391   8.585  12.173   8.238  1.6993 -2.6413  0.8084
 7693SOL     OW33392  10.898   6.527   0.935 -0.5766  0.4249  0.2808
 7693SOL    HW133393  10.904   6.440   0.895  0.7044  0.7286 -0.2522
 7693SOL    HW233394  10.804   6.546   0.936 -0.7390  0.0493 -1.8770
 7694SOL     OW33395   6.442   2.496   1.155 -0.5976  0.3410  0.1629
 7694SOL    HW133396   6.376   2.480   1.223  0.4732  0.5533  1.2800
 7694SOL    HW233397   6.448   2.591   1.149  0.2126  0.3373  0.6998
 7695SOL     OW33398   1.110  11.009   1.430 -0.9124  0.0893 -0.3201
 7695SOL    HW133399   1.137  11.074   1.365 -2.0080  0.2227 -0.6747
 7695SOL    HW233400   1.065  10.941   1.379  0.1396 -0.9255  0.0555
 7696SOL     OW33401   1.532  11.149   5.440  0.5831 -0.2403  0.2177
 7696SOL    HW133402   1.579  11.103   5.370  0.1927  0.6068 -0.6293
 7696SOL    HW233403   1.591  11.221   5.464 -0.4765  1.1896 -1.2675
 7697SOL     OW33404   3.961  11.732   4.772 -0.1329  0.4508 -0.3141
 7697SOL    HW133405   4.008  11.811   4.745  0.1993  0.1283 -0.6753
 7697SOL    HW233406   4.026  11.662   4.766 -0.0234  0.3716  1.3630
 7698SOL     OW33407  11.831   3.958   2.995  0.6472  0.1462 -0.3766
 7698SOL    HW133408  11.802   3.866   2.994 -0.1422  0.3762  0.6035
 7698SOL    HW233409  11.802   3.992   2.910  0.0173 -0.2331 -0.3236
 7699SOL     OW33410   6.778   5.404   5.756 -0.7280  0.1222 -0.0116
 7699SOL    HW133411   6.808   5.479   5.704 -0.3863 -0.3561 -0.5084
 7699SOL    HW233412   6.703   5.438   5.805  0.5771  1.3442  1.2487
 7700SOL     OW33413  11.270  12.963   1.014  0.3414 -0.2860 -0.7920
 7700SOL    HW133414  11.194  12.962   1.073 -0.0711  2.5255 -1.1501
 7700SOL    HW233415  11.343  12.992   1.068 -0.2866  3.5250 -1.7480
 7701SOL     OW33416   9.327   0.922   1.841  0.0534 -0.1071 -0.2630
 7701SOL    HW133417   9.280   0.870   1.775  0.2808 -0.0044 -0.5063
 7701SOL    HW233418   9.408   0.875   1.857  0.3287  0.2459 -0.5937
 7702SOL     OW33419   8.039   7.595   1.435 -0.8078  0.0962  0.2522
 7702SOL    HW133420   7.981   7.518   1.437 -0.7475 -0.0766 -2.1366
 7702SOL    HW233421   8.120   7.563   1.395  0.8522  0.4707  3.0267
 7703SOL     OW33422   9.058   6.449   7.950  0.2463 -0.2533  0.2408
 7703SOL    HW133423   9.067   6.516   7.883  2.3757  1.5855  2.1508
 7703SOL    HW233424   8.980   6.474   7.999  0.7173  0.5756  0.5993
 7704SOL     OW33425   0.762   5.002  11.011 -0.2130 -0.4796 -0.1804
 7704SOL    HW133426   0.729   5.083  11.050  1.3728  0.1123  0.0204
 7704SOL    HW233427   0.698   4.936  11.036 -1.4937  0.6801 -0.2534
 7705SOL     OW33428   2.457   3.993   8.228  0.2449 -0.0496  0.4233
 7705SOL    HW133429   2.368   3.978   8.196 -0.3497  1.9779  1.0306
 7705SOL    HW233430   2.509   3.926   8.183 -1.5978 -1.4603  0.2577
 7706SOL     OW33431   8.598   1.905   5.293  0.1210  0.0094  0.4265
 7706SOL    HW133432   8.657   1.863   5.230  0.7365  1.5316 -0.0609
 7706SOL    HW233433   8.525   1.844   5.301  0.1344 -0.3552 -1.5944
 7707SOL     OW33434   0.989   1.043   1.768 -0.2557  0.5545 -0.3269
 7707SOL    HW133435   0.988   0.985   1.844  1.1894 -0.6036 -1.1438
 7707SOL    HW233436   1.082   1.063   1.754 -0.3439 -0.2278 -2.4753
 7708SOL     OW33437   8.963  12.612   7.416 -0.1217 -0.9990  0.1635
 7708SOL    HW133438   8.887  12.588   7.470 -0.4708 -0.7937 -0.2331
 7708SOL    HW233439   8.933  12.687   7.365  0.5002 -0.6246  0.3440
 7709SOL     OW33440   6.222   9.409   9.930  0.5001 -0.0745  0.1540
 7709SOL    HW133441   6.144   9.355   9.938  0.3615 -0.0897 -1.1417
 7709SOL    HW233442   6.284   9.355   9.880  0.3136  0.9877 -1.2809
 7710SOL     OW33443  11.475  11.849   1.544  0.4607 -0.4738  0.1946
 7710SOL    HW133444  11.476  11.754   1.556  0.1705 -0.5469 -0.3457
 7710SOL    HW233445  11.567  11.872   1.528  0.1991 -1.0839 -2.7249
 7711SOL     OW33446  12.279   7.815   3.407  0.1136  0.2039  0.1070
 7711SOL    HW133447  12.342   7.788   3.474  1.8075 -0.7480 -1.7626
 7711SOL    HW233448  12.195   7.780   3.438  1.0884 -1.4221  1.0820
 7712SOL     OW33449   6.889   5.804   6.643 -0.0365 -0.5672  0.4783
 7712SOL    HW133450   6.824   5.745   6.606 -0.5134 -0.0902  0.5470
 7712SOL    HW233451   6.973   5.772   6.610 -0.4469 -0.1353 -1.0376
 7713SOL     OW33452  10.292   2.716   3.941 -0.3781  0.1622 -0.4474
 7713SOL    HW133453  10.268   2.625   3.929 -2.6304  0.7352 -0.7166
 7713SOL    HW233454  10.262   2.737   4.030  0.1868  0.6297 -0.3582
 7714SOL     OW33455  12.025   2.354   5.064 -0.4643 -0.1788 -0.0406
 7714SOL    HW133456  12.102   2.351   5.007 -0.8261 -0.0920 -0.5493
 7714SOL    HW233457  12.000   2.263   5.076 -1.8792 -0.1442 -2.1355
 7715SOL     OW33458   8.720   8.679   0.128 -0.3280 -0.0951 -0.3388
 7715SOL    HW133459   8.694   8.708   0.215 -0.4533  1.1796 -0.7741
 7715SOL    HW233460   8.808   8.716   0.115  0.4628 -1.7864 -0.0718
 7716SOL     OW33461   2.604   6.466   1.196 -0.6913  0.0296  0.2756
 7716SOL    HW133462   2.635   6.438   1.282 -2.1395 -1.4565  0.3707
 7716SOL    HW233463   2.663   6.423   1.134 -1.4048 -1.3382  0.4961
 7717SOL     OW33464   0.858   6.254   2.593  0.1546  0.2647  0.0433
 7717SOL    HW133465   0.842   6.164   2.563 -1.9643  0.2504  0.9998
 7717SOL    HW233466   0.953   6.261   2.598  0.3951 -1.6416 -0.8890
 7718SOL     OW33467  12.982   0.870   3.848  0.0771 -0.0999  0.6877
 7718SOL    HW133468  13.028   0.833   3.923 -0.1541 -1.1096  0.3441
 7718SOL    HW233469  12.935   0.796   3.809  0.8679  0.2238 -0.9632
 7719SOL     OW33470   5.174   5.963   7.549  0.4500  0.2017 -0.6173
 7719SOL    HW133471   5.195   5.943   7.459 -0.3665  0.3967 -0.8659
 7719SOL    HW233472   5.097   5.909   7.569  1.8326 -1.4292  0.6467
 7720SOL     OW33473  12.150  11.698   1.913 -0.1352  0.0856 -0.0369
 7720SOL    HW133474  12.215  11.634   1.886 -0.3066  0.0260 -0.3220
 7720SOL    HW233475  12.111  11.729   1.831  0.4813  1.1290  0.0440
 7721SOL     OW33476   5.579   8.115   0.676  0.0541  0.0212  0.4039
 7721SOL    HW133477   5.572   8.144   0.585 -0.7734 -2.0431 -0.2505
 7721SOL    HW233478   5.492   8.083   0.698  0.4306 -0.1794  1.6728
 7722SOL     OW33479   7.663   4.306   0.601  0.1082  0.6145  0.2513
 7722SOL    HW133480   7.720   4.348   0.666  1.7619 -0.5542 -0.3816
 7722SOL    HW233481   7.575   4.312   0.639  0.7105  1.9576  1.5299
 7723SOL     OW33482  12.174   9.349   6.402  0.4429 -0.0546 -0.6816
 7723SOL    HW133483  12.121   9.428   6.389 -0.5383 -0.9594 -2.5615
 7723SOL    HW233484  12.217   9.334   6.318  1.5444 -0.8867 -0.0058
 7724SOL     OW33485   0.803   3.361   4.473 -0.3196  0.0514 -0.2230
 7724SOL    HW133486   0.786   3.454   4.485  3.2088  0.8166 -0.1820
 7724SOL    HW233487   0.784   3.345   4.380 -0.7456  0.8373 -0.2840
 7725SOL     OW33488   7.597   1.477   9.697 -1.1068 -0.3581  0.1970
 7725SOL    HW133489   7.679   1.523   9.712 -0.7316 -0.2411 -1.8680
 7725SOL    HW233490   7.542   1.499   9.773  0.6288 -0.1846  1.4538
 7726SOL     OW33491   7.070   0.733  11.651 -0.5416 -0.2689 -0.1002
 7726SOL    HW133492   7.120   0.801  11.696 -0.9855 -0.5409  0.8238
 7726SOL    HW233493   7.020   0.690  11.720 -0.4074 -1.4190 -0.7012
 7727SOL     OW33494   1.691   7.388  10.473 -0.4043 -0.3517 -0.1401
 7727SOL    HW133495   1.721   7.391  10.383  0.1939 -0.8669  0.0383
 7727SOL    HW233496   1.602   7.355  10.468  0.1169 -1.7872 -0.4355
 7728SOL     OW33497  11.695   2.300   0.659  0.2091 -0.4504  0.1066
 7728SOL    HW133498  11.725   2.389   0.680  1.2262 -0.8678  0.4793
 7728SOL    HW233499  11.628   2.282   0.724  0.3770 -0.1588  0.3654
 7729SOL     OW33500   9.760   0.981   5.792  0.2863  0.1049  0.0844
 7729SOL    HW133501   9.808   0.983   5.709  0.2964 -0.0245  0.0866
 7729SOL    HW233502   9.775   0.893   5.826  1.9029  0.7350  1.1661
 7730SOL     OW33503  10.909   3.931   3.180 -0.6932  0.2959 -0.0239
 7730SOL    HW133504  10.968   3.886   3.120 -1.3809  0.3965 -0.7826
 7730SOL    HW233505  10.952   3.924   3.266  0.4463  0.4276 -0.5708
 7731SOL     OW33506   5.158  11.524   8.203 -0.0878 -0.1916 -0.0641
 7731SOL    HW133507   5.160  11.454   8.268  1.2771  1.3737  1.7315
 7731SOL    HW233508   5.249  11.553   8.197 -0.4487  0.7435 -1.5154
 7732SOL     OW33509  10.340   0.900   6.102  0.6089  0.7278  0.0682
 7732SOL    HW133510  10.367   0.930   6.189 -1.3798  1.4376  0.4989
 7732SOL    HW233511  10.329   0.980   6.052  1.4641  0.3330 -0.7745
 7733SOL     OW33512   7.768   2.965   8.612 -0.4809  0.4089 -0.0876
 7733SOL    HW133513   7.832   2.900   8.582 -2.2285 -1.7862  0.7138
 7733SOL    HW233514   7.800   2.991   8.698 -0.5192 -0.5051  0.2144
 7734SOL     OW33515   5.462   5.985   5.887  0.2150 -0.3180 -0.3910
 7734SOL    HW133516   5.422   5.898   5.893  1.4054 -0.7986  1.3319
 7734SOL    HW233517   5.407   6.039   5.944  1.7699 -0.9380  1.8328
 7735SOL     OW33518   4.167   5.030   5.551  0.1825 -0.5715 -0.2324
 7735SOL    HW133519   4.090   4.990   5.591  0.7992 -1.3130  0.2557
 7735SOL    HW233520   4.227   4.957   5.535  1.8773  0.2287  1.9010
 7736SOL     OW33521   9.609   2.171   6.536  0.0075 -0.2084 -0.5358
 7736SOL    HW133522   9.637   2.098   6.592  0.5850  1.3447  1.3004
 7736SOL    HW233523   9.519   2.188   6.563 -0.9960 -1.7410 -2.6772
 7737SOL     OW33524   2.443   0.791   9.406  0.2393  0.5032  0.1793
 7737SOL    HW133525   2.376   0.858   9.398 -0.8244 -0.3948  1.2240
 7737SOL    HW233526   2.483   0.806   9.491 -1.2084 -1.1962  1.2262
 7738SOL     OW33527   4.061   9.535  12.593  0.0514  0.2843  0.1689
 7738SOL    HW133528   4.147   9.498  12.612  0.4888  0.9590 -0.4837
 7738SOL    HW233529   4.010   9.518  12.673  1.3920  1.7248  1.3822
 7739SOL     OW33530   5.276   0.728  10.981 -0.6742  1.0181 -0.0244
 7739SOL    HW133531   5.241   0.639  10.991 -1.7461  1.4910  0.6053
 7739SOL    HW233532   5.316   0.728  10.894 -1.4288  0.1785 -0.3909
 7740SOL     OW33533  10.724  12.376   1.290  0.0672  0.1331  0.2786
 7740SOL    HW133534  10.742  12.370   1.383 -1.4392 -0.5591  0.5464
 7740SOL    HW233535  10.694  12.466   1.277 -0.4872 -0.0010  0.6134
 7741SOL     OW33536   8.150   5.992   3.501  0.5658 -0.0765  0.0836
 7741SOL    HW133537   8.099   6.054   3.449 -1.8043 -2.5925 -0.8704
 7741SOL    HW233538   8.123   6.008   3.591  1.6920  1.6842  0.1511
 7742SOL     OW33539   3.709   8.375   9.983  0.3529 -0.1096  0.3375
 7742SOL    HW133540   3.670   8.309   9.925  0.3693  0.6111 -0.5237
 7742SOL    HW233541   3.774   8.419   9.928 -0.3401  1.2813  0.5825
 7743SOL     OW33542   8.774   8.839  11.094  0.1245 -0.0258  0.8413
 7743SOL    HW133543   8.690   8.841  11.139  0.0726  0.7973  0.7357
 7743SOL    HW233544   8.824   8.769  11.137 -0.8476 -0.9693  0.4604
 7744SOL     OW33545   5.049  10.361  10.140 -0.1905 -0.2658  0.3308
 7744SOL    HW133546   4.966  10.353  10.187 -0.4173 -0.1620 -0.0484
 7744SOL    HW233547   5.108  10.299  10.184 -1.2179 -2.3209 -1.0635
 7745SOL     OW33548   9.370  10.143   8.393 -0.1279 -0.2045 -0.1805
 7745SOL    HW133549   9.385  10.116   8.303 -0.8982  1.9056 -1.0105
 7745SOL    HW233550   9.297  10.089   8.423 -0.3398 -0.4315 -1.0714
 7746SOL     OW33551  10.023   6.614   4.127 -0.4584 -0.2001  0.2796
 7746SOL    HW133552  10.098   6.652   4.174 -1.3571  2.5137 -0.2776
 7746SOL    HW233553  10.063   6.553   4.065  1.2202  0.3657  0.7286
 7747SOL     OW33554   1.524  11.552   3.089  0.5184 -0.1627 -0.0172
 7747SOL    HW133555   1.552  11.498   3.163  2.9442 -0.8061 -1.2990
 7747SOL    HW233556   1.487  11.489   3.027 -1.0461  0.3151  0.3814
 7748SOL     OW33557   7.178  12.161   2.086  0.5065 -0.8862 -0.1739
 7748SOL    HW133558   7.150  12.073   2.113  2.7767 -1.4002  0.7156
 7748SOL    HW233559   7.138  12.220   2.149 -2.5203 -0.9792 -1.7951
 7749SOL     OW33560   3.732   8.070  12.754 -0.1152 -0.3095 -0.1275
 7749SOL    HW133561   3.718   7.981  12.721  1.1625 -0.5648 -0.0618
 7749SOL    HW233562   3.805   8.061  12.816 -0.8612  0.5704  0.9016
 7750SOL     OW33563   6.848   7.821  10.071  0.0571  0.0766  0.1634
 7750SOL    HW133564   6.779   7.834  10.006  0.4640  0.5397 -0.1892
 7750SOL    HW233565   6.830   7.736  10.110 -0.2588 -0.1554 -0.4840
 7751SOL     OW33566   8.715  12.595   0.495  0.1381 -0.1512  0.1912
 7751SOL    HW133567   8.690  12.512   0.454  0.3664 -0.1594  0.0646
 7751SOL    HW233568   8.800  12.577   0.535 -1.2522 -0.9357  3.0078
 7752SOL     OW33569   6.033   1.731   2.725 -0.7860 -0.3923  0.4634
 7752SOL    HW133570   6.011   1.722   2.632 -1.6284 -1.9203  0.7745
 7752SOL    HW233571   6.006   1.820   2.747 -1.0529 -0.1823 -0.6402
 7753SOL     OW33572  12.706   7.181  12.415  0.5538 -0.1434 -0.0607
 7753SOL    HW133573  12.746   7.094  12.422  0.1747 -0.2630  0.7796
 7753SOL    HW233574  12.698   7.196  12.321  1.7437 -0.4853 -0.2320
 7754SOL     OW33575   8.839   0.789  11.754 -0.1138 -0.7561  0.2008
 7754SOL    HW133576   8.761   0.845  11.753  0.3923  0.0432  2.0119
 7754SOL    HW233577   8.804   0.700  11.760 -0.9122 -0.3678  1.7722
 7755SOL     OW33578   8.425   4.910   1.005  0.0002 -0.5993 -0.3202
 7755SOL    HW133579   8.365   4.950   0.942 -0.7319 -0.6759  0.3095
 7755SOL    HW233580   8.392   4.821   1.016  1.0668 -1.0978 -1.0078
 7756SOL     OW33581  12.816   9.722  12.564 -0.2508 -1.0723  0.1472
 7756SOL    HW133582  12.772   9.711  12.648 -0.5177 -2.7184 -0.1748
 7756SOL    HW233583  12.905   9.688  12.580  0.9562  2.0145  0.7374
 7757SOL     OW33584   8.044   3.191   5.059 -0.3323 -0.5912  0.0770
 7757SOL    HW133585   8.023   3.133   4.985 -2.7686 -0.7856  0.8249
 7757SOL    HW233586   8.113   3.145   5.107 -0.3269 -1.5566 -0.8211
 7758SOL     OW33587   5.353   8.525   8.121  0.5109  0.3153  0.0538
 7758SOL    HW133588   5.352   8.613   8.082  1.5137  0.0652 -0.5856
 7758SOL    HW233589   5.264   8.492   8.107  0.2414  1.0661 -0.0822
 7759SOL     OW33590  11.292   7.022  11.553  0.4822  0.0377  0.3370
 7759SOL    HW133591  11.238   6.990  11.480 -0.6251  0.9495  0.7149
 7759SOL    HW233592  11.377   6.982  11.539 -0.0574 -0.8008 -0.7596
 7760SOL     OW33593   0.151   6.248  11.510  0.4774  0.0667  0.1004
 7760SOL    HW133594   0.235   6.207  11.492  0.4129 -1.6629  3.1026
 7760SOL    HW233595   0.174   6.333  11.548  0.8597 -0.0742  0.1920
 7761SOL     OW33596  12.426   3.993   0.669 -0.3946 -0.9049 -0.3569
 7761SOL    HW133597  12.371   3.917   0.656 -0.7082 -0.6681 -0.4211
 7761SOL    HW233598  12.374   4.053   0.723 -0.5410 -0.3315 -1.1072
 7762SOL     OW33599   9.801  10.236   2.769 -0.1007  0.3696  0.4022
 7762SOL    HW133600   9.781  10.282   2.851  1.7360  0.3624  0.8904
 7762SOL    HW233601   9.734  10.168   2.763  0.2910 -0.2448  2.3941
 7763SOL     OW33602   8.814   8.992   8.880  0.0262 -0.1896  0.2394
 7763SOL    HW133603   8.739   9.051   8.869 -0.7388 -1.3746 -1.2962
 7763SOL    HW233604   8.794   8.943   8.960 -0.5562 -0.0831  0.1631
 7764SOL     OW33605   4.875   7.623  11.031  0.4068  0.1237 -0.2028
 7764SOL    HW133606   4.888   7.529  11.028  0.2667  0.1121 -2.9455
 7764SOL    HW233607   4.782   7.635  11.010  1.0336  0.8953 -2.9284
 7765SOL     OW33608   6.737   3.484   7.463  0.3307  0.2809 -0.3906
 7765SOL    HW133609   6.708   3.399   7.497 -0.3833  0.2856 -0.9816
 7765SOL    HW233610   6.830   3.470   7.444  0.1004 -0.5382 -0.9896
 7766SOL     OW33611  12.143  12.288   7.218 -0.3703 -0.6154 -0.1207
 7766SOL    HW133612  12.079  12.359   7.209  0.3788  0.0173 -0.5521
 7766SOL    HW233613  12.096  12.210   7.189 -0.5264  0.0750 -1.8211
 7767SOL     OW33614   3.597  10.102   2.485  0.2019  0.4000  0.6791
 7767SOL    HW133615   3.596  10.008   2.467 -0.4917  0.2413  1.5108
 7767SOL    HW233616   3.561  10.111   2.573 -0.8210  1.5300  0.1849
 7768SOL     OW33617  12.630   2.214  10.666  0.2632  0.1396 -0.2312
 7768SOL    HW133618  12.535   2.224  10.671  0.3083  2.0644 -1.8129
 7768SOL    HW233619  12.665   2.283  10.722  0.7773 -0.8485  0.7141
 7769SOL     OW33620   1.972   5.928   7.358  0.2939 -0.2215 -0.2389
 7769SOL    HW133621   1.961   5.840   7.322 -0.0428 -0.5012  0.5448
 7769SOL    HW233622   2.013   5.977   7.286  1.5593 -1.2944 -0.2952
 7770SOL     OW33623   2.391  10.122   7.537 -0.2022  0.4126  0.5855
 7770SOL    HW133624   2.461  10.080   7.487 -0.0532  0.4531  0.7582
 7770SOL    HW233625   2.353  10.186   7.477 -0.1911  0.2839  0.4418
 7771SOL     OW33626   3.562   6.724   5.334  0.3243  0.0983  0.1532
 7771SOL    HW133627   3.554   6.630   5.346  1.0578  0.2093  1.9205
 7771SOL    HW233628   3.500   6.761   5.397 -0.2843  0.8170 -0.8389
 7772SOL     OW33629   4.410   2.877   5.551  0.1284  0.2384 -0.6484
 7772SOL    HW133630   4.348   2.948   5.538  0.1020  0.4401  0.4992
 7772SOL    HW233631   4.356   2.800   5.571  0.1952  0.1266 -0.8975
 7773SOL     OW33632   1.204   6.044   1.464  0.1795 -0.4050 -0.0757
 7773SOL    HW133633   1.269   6.085   1.520  0.3443 -1.2298  0.3505
 7773SOL    HW233634   1.222   6.079   1.377  0.9956 -0.3913  0.0912
 7774SOL     OW33635  12.227   7.175   2.404  0.4063  0.1874  0.2722
 7774SOL    HW133636  12.254   7.091   2.440  1.4329 -0.8543 -2.5812
 7774SOL    HW233637  12.190   7.222   2.478 -1.1676 -3.1329  1.8361
 7775SOL     OW33638   5.374   9.994  11.686 -0.4878 -0.0977  0.4529
 7775SOL    HW133639   5.457  10.041  11.680 -0.1816 -0.7662 -1.0376
 7775SOL    HW233640   5.339   9.995  11.597 -1.0198 -1.6997  0.6097
 7776SOL     OW33641  12.693   0.528   5.168 -0.5775 -0.4083 -0.3603
 7776SOL    HW133642  12.670   0.555   5.079 -0.8691  0.9691  0.0995
 7776SOL    HW233643  12.620   0.473   5.196 -0.9074 -0.1318 -0.6661
 7777SOL     OW33644   8.966   3.500   1.468  0.1042 -0.8010  0.1295
 7777SOL    HW133645   8.881   3.487   1.509 -0.1874 -0.1407 -0.2403
 7777SOL    HW233646   9.012   3.562   1.524 -0.5536  0.6286 -0.8534
 7778SOL     OW33647   0.469  11.264   8.053  0.1725 -0.3175  0.4795
 7778SOL    HW133648   0.486  11.356   8.074 -0.9932  0.1665 -0.5601
 7778SOL    HW233649   0.533  11.215   8.106 -1.6209  0.8393  4.0638
 7779SOL     OW33650   9.296   0.012   1.068 -0.5492 -0.1899  0.0499
 7779SOL    HW133651   9.351   0.013   0.989 -2.0824  0.7269 -1.0668
 7779SOL    HW233652   9.268   0.103   1.078  0.6869 -0.0045  2.4952
 7780SOL     OW33653   5.193  10.154   3.909 -0.2674  0.4413 -0.1794
 7780SOL    HW133654   5.233  10.124   3.827 -2.1340 -0.3918 -0.8549
 7780SOL    HW233655   5.244  10.111   3.978  0.0124 -0.5968 -1.0014
 7781SOL     OW33656   9.502  10.262   1.120  0.1003 -0.1624  0.0052
 7781SOL    HW133657   9.477  10.240   1.031 -0.3998 -1.7163  0.5029
 7781SOL    HW233658   9.525  10.355   1.116  0.6205 -0.3397 -1.8357
 7782SOL     OW33659   4.896   0.250   8.833  0.6618  0.3866  0.1590
 7782SOL    HW133660   4.841   0.237   8.910 -0.2467 -0.3462 -0.5953
 7782SOL    HW233661   4.862   0.190   8.768  2.7236 -0.5225 -0.1761
 7783SOL     OW33662   7.218  12.163   7.152  0.2932 -0.1262  0.2382
 7783SOL    HW133663   7.279  12.130   7.086  0.0875  1.2403 -0.6671
 7783SOL    HW233664   7.202  12.254   7.127  0.1369  0.4089  2.1226
 7784SOL     OW33665   2.023   1.829   5.311  0.0808  0.0080 -0.5751
 7784SOL    HW133666   1.945   1.883   5.298 -0.4845 -0.9627 -1.3295
 7784SOL    HW233667   2.094   1.881   5.272 -0.0166  1.2448  0.7936
 7785SOL     OW33668   3.732   0.262  12.866  0.3849 -0.1731 -0.4494
 7785SOL    HW133669   3.812   0.228  12.826  1.8967 -0.6243  2.6915
 7785SOL    HW233670   3.697   0.188  12.916 -1.0194  0.5493 -0.3128
 7786SOL     OW33671   9.375  12.441   5.669 -0.2839 -0.2162 -0.0375
 7786SOL    HW133672   9.279  12.444   5.671 -0.4157 -2.6651  0.1874
 7786SOL    HW233673   9.397  12.428   5.576 -0.1981 -0.3134 -0.0037
 7787SOL     OW33674  12.919   3.451   8.432 -0.0614  1.0015  0.3799
 7787SOL    HW133675  12.979   3.524   8.417 -0.6493  1.2730 -0.7539
 7787SOL    HW233676  12.952   3.381   8.375 -0.9383  1.2378 -0.4444
 7788SOL     OW33677   9.506   8.356   7.873 -0.1540 -0.2917  0.3531
 7788SOL    HW133678   9.419   8.323   7.852 -0.7077 -0.1567  2.2274
 7788SOL    HW233679   9.498   8.390   7.962  1.2879  1.6751 -0.1754
 7789SOL     OW33680  11.462   3.564   1.348 -0.2755  0.1254 -0.0915
 7789SOL    HW133681  11.542   3.597   1.389  0.3834 -1.0989 -0.3257
 7789SOL    HW233682  11.437   3.632   1.286 -0.1121  1.0627  0.8463
 7790SOL     OW33683   3.005   6.005   7.899  0.1932  0.0932  1.0122
 7790SOL    HW133684   3.016   5.979   7.991 -0.3163  1.9043  1.6518
 7790SOL    HW233685   2.998   5.923   7.851  0.1470 -0.9067  2.6360
 7791SOL     OW33686   0.508  10.854   9.164  0.0050  0.7425 -0.4077
 7791SOL    HW133687   0.571  10.782   9.159  0.1325  0.7733  0.5288
 7791SOL    HW233688   0.423  10.812   9.161  0.0003  0.1844  3.0990
 7792SOL     OW33689   1.266   2.710   7.777 -0.4274 -0.1230  0.4253
 7792SOL    HW133690   1.234   2.638   7.831 -0.0863  0.3292  1.2605
 7792SOL    HW233691   1.217   2.786   7.808  2.3356  0.8906  2.7555
 7793SOL     OW33692  10.632  11.835   6.914  0.3257  0.2329 -0.2186
 7793SOL    HW133693  10.718  11.794   6.907  0.4431  0.5916 -1.0888
 7793SOL    HW233694  10.634  11.881   6.998 -0.0008 -1.8967  1.0321
 7794SOL     OW33695   6.722   9.877  12.071  0.0820  0.2815 -0.1329
 7794SOL    HW133696   6.724   9.899  11.977 -0.0113  1.6308  0.1573
 7794SOL    HW233697   6.643   9.920  12.104 -0.0110 -0.3837  0.5204
 7795SOL     OW33698   6.492   7.505   9.579 -0.7023  0.5962  0.0145
 7795SOL    HW133699   6.402   7.513   9.550 -0.2939  2.5081 -0.8265
 7795SOL    HW233700   6.545   7.521   9.501  0.3789  0.3874  0.6768
 7796SOL     OW33701   2.387   7.725   9.827 -0.4435  0.5050 -0.1986
 7796SOL    HW133702   2.419   7.791   9.765  0.0824  0.4724  0.0347
 7796SOL    HW233703   2.449   7.653   9.821  0.7683  1.2785  1.7478
 7797SOL     OW33704  10.336   7.620   6.072 -0.0994 -0.2944 -0.3826
 7797SOL    HW133705  10.318   7.661   5.988  0.2750  2.5191  0.8099
 7797SOL    HW233706  10.334   7.526   6.054 -0.0266  0.2128 -3.4960
 7798SOL     OW33707   4.322   2.648   8.047 -0.4765 -0.0322  0.5971
 7798SOL    HW133708   4.325   2.564   8.001 -1.1566  0.4617 -0.3820
 7798SOL    HW233709   4.408   2.687   8.030 -0.4414 -0.1921  0.4034
 7799SOL     OW33710   5.586   7.233  12.843 -0.5482  0.0786  0.2259
 7799SOL    HW133711   5.535   7.227  12.924 -0.5435 -2.5917  0.1182
 7799SOL    HW233712   5.524   7.209  12.774 -1.2263  4.5812 -1.0252
 7800SOL     OW33713   8.714   5.239  12.330  0.5734  0.1720  0.1785
 7800SOL    HW133714   8.720   5.202  12.242  0.2943  1.4060 -0.3860
 7800SOL    HW233715   8.803   5.232  12.365  0.3133 -1.9994  0.5397
 7801SOL     OW33716  11.858   1.169   7.609  0.0538  0.1960 -0.6085
 7801SOL    HW133717  11.895   1.189   7.522  1.6430  1.2305  0.2415
 7801SOL    HW233718  11.848   1.255   7.650 -0.2544 -0.3110  0.3991
 7802SOL     OW33719  10.023   2.867   3.208  0.0313  0.1475 -0.1417
 7802SOL    HW133720  10.096   2.835   3.155 -0.9141  0.9274 -2.0003
 7802SOL    HW233721  10.050   2.955   3.235  0.7688 -0.4779  1.2293
 7803SOL     OW33722   7.226  10.373   9.702 -0.4263 -0.5316 -0.1590
 7803SOL    HW133723   7.293  10.307   9.718 -0.3953 -0.1169  1.5816
 7803SOL    HW233724   7.250  10.446   9.758 -1.2419  0.4144 -1.0117
 7804SOL     OW33725   3.464  10.077   7.171 -0.1815 -0.0924 -0.3082
 7804SOL    HW133726   3.375  10.075   7.205 -0.4465  2.1702 -0.7066
 7804SOL    HW233727   3.494  10.166   7.188  2.0537 -0.8316 -0.1047
 7805SOL     OW33728   7.782   9.921   2.149  0.6537 -0.0714  0.2954
 7805SOL    HW133729   7.751   9.831   2.138  0.6822 -0.0730  0.2301
 7805SOL    HW233730   7.877   9.912   2.156  0.5971 -0.1217  1.0831
 7806SOL     OW33731  10.498  11.762  12.834 -0.5750 -0.3582 -0.4415
 7806SOL    HW133732  10.539  11.758  12.920  0.8071 -1.7171 -1.1134
 7806SOL    HW233733  10.404  11.760  12.852 -0.3331  0.4665  1.0575
 7807SOL     OW33734   2.176   0.640   9.538  0.3427  0.1743  0.1193
 7807SOL    HW133735   2.167   0.673   9.448 -1.4787 -0.1126  0.1547
 7807SOL    HW233736   2.101   0.581   9.549  1.3623 -0.9503  1.3569
 7808SOL     OW33737   2.101   9.810  10.845 -0.4784  0.2953  0.2071
 7808SOL    HW133738   2.151   9.853  10.776  0.3764  0.4093  0.8844
 7808SOL    HW233739   2.012   9.805  10.810  0.0343 -0.1239 -1.1216
 7809SOL     OW33740   1.539  12.475   7.577 -0.1871 -0.8211  0.0876
 7809SOL    HW133741   1.461  12.436   7.616  2.0614 -2.3944  3.5621
 7809SOL    HW233742   1.607  12.409   7.590  2.6074  2.0027  1.0561
 7810SOL     OW33743   8.807   0.431   6.186  0.4213 -0.3205  0.4972
 7810SOL    HW133744   8.899   0.407   6.199  1.0858  0.5850 -1.9076
 7810SOL    HW233745   8.790   0.498   6.252  0.7606 -2.0396  2.4173
 7811SOL     OW33746  11.753   0.748  12.104  0.6227  0.2217  0.1401
 7811SOL    HW133747  11.761   0.659  12.136 -0.6882  0.0393  0.0135
 7811SOL    HW233748  11.826   0.795  12.145  0.7012 -0.6586  1.0534
 7812SOL     OW33749   3.820   1.448  11.436  0.1986  0.3304  0.1411
 7812SOL    HW133750   3.840   1.462  11.529 -2.1525 -0.5222  0.8647
 7812SOL    HW233751   3.850   1.527  11.393 -3.9712  3.7267  2.6055
 7813SOL     OW33752  10.654   6.140   4.900 -0.1145 -0.0531  0.1851
 7813SOL    HW133753  10.695   6.123   4.815 -1.6812  1.9188 -1.0561
 7813SOL    HW233754  10.727   6.164   4.957  0.7898  0.5121 -1.1487
 7814SOL     OW33755  10.171  12.171   8.611 -0.5617  0.0360  0.0489
 7814SOL    HW133756  10.246  12.204   8.561 -0.3179  1.6399  1.3734
 7814SOL    HW233757  10.142  12.246   8.663 -1.1216 -1.4027  1.9241
 7815SOL     OW33758   0.965  10.682   4.833 -0.3123 -0.2612 -0.4219
 7815SOL    HW133759   1.021  10.730   4.895  0.1064 -2.3364  0.8889
 7815SOL    HW233760   0.884  10.732   4.832 -0.3352 -0.1340  1.8574
 7816SOL     OW33761  10.909   6.446   8.572 -0.2168  0.5182  0.5323
 7816SOL    HW133762  10.898   6.407   8.659 -0.7056  0.7609  0.5792
 7816SOL    HW233763  10.957   6.380   8.522 -1.8552 -0.5624  0.3242
 7817SOL     OW33764   9.629   5.156   9.798 -0.0105 -0.5074  0.3186
 7817SOL    HW133765   9.670   5.223   9.744 -0.9883  1.5366  1.9569
 7817SOL    HW233766   9.700   5.122   9.853  0.1733  0.5085  0.7297
 7818SOL     OW33767   9.594  10.993   7.025 -0.2056 -0.0203  0.6643
 7818SOL    HW133768   9.634  11.003   6.939  0.0044 -0.5437  0.6978
 7818SOL    HW233769   9.501  11.010   7.011  0.1188  2.0859  0.7492
 7819SOL     OW33770  11.199   2.730   5.658 -0.1961  0.1658 -0.3233
 7819SOL    HW133771  11.242   2.685   5.585  0.1900 -1.7257  1.0077
 7819SOL    HW233772  11.116   2.762   5.620  0.4087  0.0642 -1.8051
 7820SOL     OW33773   0.981   4.417  10.515 -0.0183  0.1152  0.3707
 7820SOL    HW133774   0.956   4.509  10.507 -0.9458 -0.0583  1.0769
 7820SOL    HW233775   0.960   4.394  10.605 -1.0707 -1.1500 -0.1622
 7821SOL     OW33776  11.563   5.981   3.969 -0.0086 -0.0025  0.4165
 7821SOL    HW133777  11.521   6.014   4.048  0.2512 -0.8699  0.9237
 7821SOL    HW233778  11.653   5.963   3.995  0.3622  0.6749 -0.3507
 7822SOL     OW33779   1.164  11.500   4.518 -0.1341 -0.9216  0.2304
 7822SOL    HW133780   1.222  11.576   4.509  1.2395 -2.0740 -0.9830
 7822SOL    HW233781   1.077  11.534   4.494  0.4766  0.2445 -0.4179
 7823SOL     OW33782   4.392   0.912   6.709 -0.4855 -0.6773 -0.0043
 7823SOL    HW133783   4.354   0.970   6.775  1.7699 -0.7326  1.4595
 7823SOL    HW233784   4.406   0.829   6.755  0.6391 -0.8891 -0.6733
 7824SOL     OW33785   0.240   4.892   1.005 -0.7110  0.1229 -0.1134
 7824SOL    HW133786   0.318   4.838   0.997 -0.8255  0.1001 -1.2454
 7824SOL    HW233787   0.227   4.903   1.099  0.1597 -0.5820  0.0936
 7825SOL     OW33788   8.440   5.006   1.426 -0.0892 -0.4335  0.2724
 7825SOL    HW133789   8.437   5.060   1.506  1.1761 -0.6019  0.4550
 7825SOL    HW233790   8.436   5.070   1.355  0.8043 -0.1237  0.4867
 7826SOL     OW33791   0.987   7.516   7.087 -0.1449  0.3316  0.1994
 7826SOL    HW133792   1.079   7.516   7.113 -0.3956  0.3692  1.1184
 7826SOL    HW233793   0.982   7.579   7.014  0.4459  0.7753  0.5396
 7827SOL     OW33794   4.794   4.861   1.738 -0.0558  0.0059 -0.1231
 7827SOL    HW133795   4.812   4.798   1.668  1.5397 -0.3670  0.5723
 7827SOL    HW233796   4.820   4.946   1.701  1.3038 -0.2605  0.1653
 7828SOL     OW33797   1.564   0.605   0.899 -0.7279  0.2422  0.2246
 7828SOL    HW133798   1.632   0.550   0.861 -0.0561  1.6405 -0.6808
 7828SOL    HW233799   1.559   0.577   0.990 -0.6896 -1.5572 -0.2811
 7829SOL     OW33800   7.989   6.406   4.854 -0.2259 -0.1578  0.3469
 7829SOL    HW133801   8.055   6.450   4.801  1.7235 -0.7463  2.1146
 7829SOL    HW233802   7.985   6.317   4.819  0.3111 -0.2519  0.5002
 7830SOL     OW33803   9.832   8.462   8.339  0.0387  0.1983  0.5285
 7830SOL    HW133804   9.752   8.514   8.327  0.1305  0.2574  0.1449
 7830SOL    HW233805   9.879   8.507   8.409 -0.0645  0.4113  0.4627
 7831SOL     OW33806  10.486   6.246   5.094 -0.5172  0.1584 -0.2377
 7831SOL    HW133807  10.538   6.213   5.021 -1.2412 -1.4486 -0.0870
 7831SOL    HW233808  10.405   6.194   5.091 -0.7536  0.3728  1.4168
 7832SOL     OW33809   9.325  12.865  10.745  0.0731 -0.0372 -0.0965
 7832SOL    HW133810   9.383  12.802  10.789 -0.7779  0.3529  1.6759
 7832SOL    HW233811   9.277  12.907  10.816  0.1764  2.2118 -1.2669
 7833SOL     OW33812  11.521   5.209   5.359  0.0495 -0.0135 -0.1218
 7833SOL    HW133813  11.539   5.182   5.269  1.5341 -2.6854  0.8420
 7833SOL    HW233814  11.533   5.129   5.410 -1.1599  1.3166  2.4248
 7834SOL     OW33815   2.475   5.256  10.933 -0.5049  0.1844 -0.3083
 7834SOL    HW133816   2.388   5.215  10.929 -0.6852  0.6377 -1.2913
 7834SOL    HW233817   2.478   5.297  11.019 -1.5344  0.7382 -0.5240
 7835SOL     OW33818   1.453   5.037  11.619  0.3442 -0.1868 -0.5866
 7835SOL    HW133819   1.540   5.034  11.658  0.1282 -0.9136 -0.1598
 7835SOL    HW233820   1.426   5.129  11.627  0.6182 -0.1760  0.2801
 7836SOL     OW33821   9.733   9.104   4.669 -0.0661  0.0540  0.1026
 7836SOL    HW133822   9.800   9.167   4.643  0.1646 -0.0475  0.4414
 7836SOL    HW233823   9.770   9.061   4.746 -0.1430 -0.6231 -0.2303
 7837SOL     OW33824   1.206  11.933   1.687  0.5301  0.6369  0.5295
 7837SOL    HW133825   1.246  11.937   1.600 -0.6601  1.7808  0.0139
 7837SOL    HW233826   1.161  12.016   1.698  1.7311  1.0874  2.8077
 7838SOL     OW33827  10.338   3.299   4.052 -0.3231  0.4315 -0.0884
 7838SOL    HW133828  10.299   3.219   4.018 -0.1005  0.4783 -0.4660
 7838SOL    HW233829  10.358   3.351   3.974  0.2799  0.5058  0.1070
 7839SOL     OW33830  12.099  11.678  12.359 -0.0811  0.1936 -0.6547
 7839SOL    HW133831  12.018  11.642  12.323 -0.1041 -3.1337  2.1952
 7839SOL    HW233832  12.085  11.680  12.454  1.9982  2.8830 -0.2741
 7840SOL     OW33833   1.934  10.369  12.540  0.3531  0.0846 -0.0809
 7840SOL    HW133834   2.015  10.421  12.544 -0.0044  0.5914  1.0544
 7840SOL    HW233835   1.909  10.358  12.632  0.1884 -1.7595 -0.3096
 7841SOL     OW33836   4.227   2.734  12.162 -0.2489 -0.4772  0.2411
 7841SOL    HW133837   4.220   2.760  12.070  1.6272 -0.3886  0.0763
 7841SOL    HW233838   4.153   2.776  12.205 -1.8465 -1.4577 -1.4121
 7842SOL     OW33839  12.566  12.148   1.943 -0.0551 -0.1352 -0.5945
 7842SOL    HW133840  12.649  12.185   1.912  0.3902  1.3284  2.0751
 7842SOL    HW233841  12.504  12.220   1.935 -0.4507 -0.4303 -0.1858
 7843SOL     OW33842   4.570   4.633   1.750  0.0283  0.2844  0.5224
 7843SOL    HW133843   4.616   4.709   1.786  0.7186 -0.1042  0.4723
 7843SOL    HW233844   4.616   4.558   1.787  0.9269 -0.1401 -1.3653
 7844SOL     OW33845  10.474   5.540   5.398  0.5311  0.0295  0.3012
 7844SOL    HW133846  10.392   5.536   5.447 -0.5794  3.1293 -1.0628
 7844SOL    HW233847  10.452   5.507   5.311  0.7408  0.8487 -0.0652
 7845SOL     OW33848   5.254   8.382  12.844  0.0835 -0.5997  0.2081
 7845SOL    HW133849   5.277   8.348  12.758  0.0582  0.7497 -0.3568
 7845SOL    HW233850   5.231   8.304  12.895  1.6873 -1.5923 -0.4906
 7846SOL     OW33851  12.602   0.380  10.550 -0.3978 -0.0473  0.4609
 7846SOL    HW133852  12.655   0.425  10.484 -1.4589 -0.4278 -0.6943
 7846SOL    HW233853  12.647   0.297  10.564  0.0291  0.1857  0.4958
 7847SOL     OW33854   1.501   9.403  11.519  0.4321 -0.0230 -0.3355
 7847SOL    HW133855   1.456   9.431  11.439  0.2463  1.1170  0.1624
 7847SOL    HW233856   1.592   9.426  11.504  0.2114  1.3187  0.2541
 7848SOL     OW33857   9.695   1.653   4.113 -0.1464  0.3243  0.0547
 7848SOL    HW133858   9.705   1.747   4.131  2.1673 -0.1635  1.8750
 7848SOL    HW233859   9.624   1.625   4.171 -0.5586  0.8770 -0.1746
 7849SOL     OW33860  10.153   4.608   7.433 -0.3522  0.0965  0.3294
 7849SOL    HW133861  10.164   4.679   7.370  1.9880 -1.1693 -0.8190
 7849SOL    HW233862  10.222   4.622   7.497  0.6091 -1.4689 -0.3026
 7850SOL     OW33863   2.049  11.931   4.943 -0.5921 -0.1924 -0.3250
 7850SOL    HW133864   2.129  11.956   4.989  0.8162 -1.9226 -1.6911
 7850SOL    HW233865   2.029  11.844   4.975 -1.7456  0.0806 -0.2693
 7851SOL     OW33866   6.969  11.128   9.984  0.5358 -0.6075 -0.2664
 7851SOL    HW133867   6.914  11.174  10.047  2.3903  1.6166 -0.1243
 7851SOL    HW233868   6.960  11.178   9.903  1.5208 -0.8251 -0.5197
 7852SOL     OW33869   8.372  10.931  10.450 -0.4608  0.2551 -0.1348
 7852SOL    HW133870   8.454  10.977  10.467  0.5019 -1.9140  1.7682
 7852SOL    HW233871   8.304  10.996  10.464  0.8312  2.4985 -3.0666
 7853SOL     OW33872   4.203   7.946   1.591  0.2824  0.0644 -0.1624
 7853SOL    HW133873   4.178   7.888   1.519  0.6559 -1.4488  0.8915
 7853SOL    HW233874   4.285   7.986   1.562  0.2382 -0.2457 -0.7240
 7854SOL     OW33875   8.702   3.471   2.092  0.5445 -0.1492 -0.0137
 7854SOL    HW133876   8.624   3.517   2.124  0.1456 -0.4608 -0.5298
 7854SOL    HW233877   8.689   3.464   1.998  0.9015 -0.7633 -0.0225
 7855SOL     OW33878   6.067   7.691   0.326  0.4874  0.1047 -0.2738
 7855SOL    HW133879   6.081   7.774   0.280  1.1465  0.7138  0.9742
 7855SOL    HW233880   6.123   7.697   0.404  1.0144 -1.7637 -0.4584
 7856SOL     OW33881   0.379  10.401   4.715  0.3763 -0.0357 -0.1851
 7856SOL    HW133882   0.362  10.454   4.792 -3.4363  0.3482 -1.1119
 7856SOL    HW233883   0.422  10.322   4.749 -1.8544 -0.2384  2.4940
 7857SOL     OW33884   0.756   9.681  12.466 -0.1583  0.4254 -0.0202
 7857SOL    HW133885   0.693   9.714  12.402 -0.4972  0.1959  0.1919
 7857SOL    HW233886   0.839   9.678  12.419  0.0399  2.1937  0.1204
 7858SOL     OW33887   8.570   9.969  10.437 -0.8273 -0.3535 -0.3937
 7858SOL    HW133888   8.476   9.982  10.451 -0.8088 -0.4343 -0.1836
 7858SOL    HW233889   8.609   9.993  10.521 -0.5839  0.5175 -0.7502
 7859SOL     OW33890   4.945   7.855  12.863 -0.0950 -0.1086  0.2848
 7859SOL    HW133891   5.022   7.798  12.867  0.9478  0.9393 -2.2995
 7859SOL    HW233892   4.925   7.876  12.954  0.3072 -3.4080  1.2568
 7860SOL     OW33893   7.138   4.888   2.056 -0.2636 -0.5496  0.0236
 7860SOL    HW133894   7.107   4.863   1.969 -1.0096 -2.1641  0.7113
 7860SOL    HW233895   7.230   4.863   2.057  0.2274  1.0718 -0.8537
 7861SOL     OW33896   0.511  12.432  12.962 -0.0826  0.5888  0.2136
 7861SOL    HW133897   0.586  12.376  12.947  0.2409  0.5557  1.7464
 7861SOL    HW233898   0.435  12.376  12.946  0.2297  0.0872  0.4872
 7862SOL     OW33899   9.875   4.769   7.241  0.1757  0.2427  0.3029
 7862SOL    HW133900   9.892   4.702   7.307 -2.5195  1.0688  1.9965
 7862SOL    HW233901   9.829   4.723   7.171 -0.2852  0.0378  0.7412
 7863SOL     OW33902   6.243   3.368   3.868  0.3898 -0.2278  0.0247
 7863SOL    HW133903   6.270   3.450   3.828  2.5371 -1.0906 -0.4790
 7863SOL    HW233904   6.151   3.358   3.845  0.2549  1.7084 -0.4187
 7864SOL     OW33905   3.113   0.680   3.490  0.6323 -0.0952 -0.0870
 7864SOL    HW133906   3.158   0.760   3.464 -0.5838  1.3605  1.9172
 7864SOL    HW233907   3.080   0.642   3.408 -0.4085  2.5229 -0.9824
 7865SOL     OW33908   4.949   9.460   9.837 -0.3586  0.1741  0.0676
 7865SOL    HW133909   5.009   9.492   9.769  0.1636 -0.0505  0.4105
 7865SOL    HW233910   4.943   9.366   9.821 -0.0511  0.0823  0.4613
 7866SOL     OW33911   3.684   9.258   6.207  0.2491 -0.1134 -0.3534
 7866SOL    HW133912   3.633   9.249   6.287 -0.8208  0.7425 -0.9008
 7866SOL    HW233913   3.719   9.171   6.190  0.1314 -0.3989  0.7985
 7867SOL     OW33914   3.676   9.820   5.954 -0.0247  0.5738  0.3408
 7867SOL    HW133915   3.683   9.746   5.893  1.3014  0.4699  0.5796
 7867SOL    HW233916   3.584   9.844   5.953 -0.0912  0.3521 -1.4516
 7868SOL     OW33917   7.405  10.130   7.244  0.0259 -0.2521  0.8119
 7868SOL    HW133918   7.329  10.164   7.196 -1.2630 -0.2778  2.7091
 7868SOL    HW233919   7.481  10.162   7.195 -1.1864  1.3449 -0.1111
 7869SOL     OW33920   4.039   5.591  12.426  0.0373 -0.1831 -0.4911
 7869SOL    HW133921   4.029   5.496  12.418  0.0025 -0.2610  0.3718
 7869SOL    HW233922   4.043   5.607  12.520  3.8497  0.2917 -0.5849
 7870SOL     OW33923   2.651   2.269  11.425  0.2372  0.0899 -0.5798
 7870SOL    HW133924   2.663   2.179  11.457  0.5201  0.0366 -0.8266
 7870SOL    HW233925   2.695   2.323  11.491 -1.2587  0.1887  0.3972
 7871SOL     OW33926   4.177  10.152   9.512  0.1681 -0.0875 -0.3024
 7871SOL    HW133927   4.147  10.061   9.518 -1.5984  0.5671  2.6622
 7871SOL    HW233928   4.109  10.196   9.461  0.0396 -0.0812 -0.1272
 7872SOL     OW33929   5.534  12.090   4.030 -0.2704  0.4556 -0.1482
 7872SOL    HW133930   5.477  12.096   4.107 -1.6674 -1.3163 -0.9802
 7872SOL    HW233931   5.621  12.069   4.066 -0.6398  0.8406  1.0014
 7873SOL     OW33932   1.314   5.692   0.380 -0.0933 -0.4318 -0.2004
 7873SOL    HW133933   1.266   5.773   0.367 -2.0633 -1.8369 -2.3504
 7873SOL    HW233934   1.393   5.702   0.328  0.3152  0.5490  0.5677
 7874SOL     OW33935   9.505   8.648   4.404 -0.1609 -0.1981  0.1296
 7874SOL    HW133936   9.490   8.711   4.474  1.0414  0.3484 -0.0869
 7874SOL    HW233937   9.495   8.563   4.446 -0.2761  0.1265  0.7727
 7875SOL     OW33938   1.630   6.590   9.066 -0.3642 -0.2082  0.3919
 7875SOL    HW133939   1.637   6.608   9.159 -0.0673  0.2142  0.2937
 7875SOL    HW233940   1.576   6.511   9.060  2.3221 -2.2916  1.1184
 7876SOL     OW33941   8.820   1.281   8.084 -0.0727  0.4371  0.3627
 7876SOL    HW133942   8.731   1.253   8.103 -0.3583  1.6978  0.9568
 7876SOL    HW233943   8.869   1.258   8.163 -0.3394  1.6914  0.9144
 7877SOL     OW33944   3.327   9.909  12.683 -0.4912  0.1432  0.5894
 7877SOL    HW133945   3.302   9.824  12.718  1.8458 -0.3186  1.2936
 7877SOL    HW233946   3.244   9.952  12.663 -1.8452 -1.0823  3.1171
 7878SOL     OW33947   7.259   3.942   6.494 -0.1395 -0.0155 -0.1397
 7878SOL    HW133948   7.198   3.948   6.421 -1.0292  0.7344  0.6454
 7878SOL    HW233949   7.214   3.888   6.559  0.3845 -0.1588  0.1134
 7879SOL     OW33950  10.224  11.537  10.380 -0.2238 -0.4489  0.4481
 7879SOL    HW133951  10.157  11.592  10.421  0.2336  1.3679 -1.0738
 7879SOL    HW233952  10.273  11.597  10.324  1.9487 -1.9619  0.6219
 7880SOL     OW33953   0.765  12.851  12.665 -0.1447 -0.3025  0.0106
 7880SOL    HW133954   0.801  12.935  12.695 -0.7900  0.0488 -0.1727
 7880SOL    HW233955   0.827  12.820  12.599 -0.0981  0.2160 -0.1911
 7881SOL     OW33956  10.343   9.342  12.237 -0.1723 -0.7879  0.1738
 7881SOL    HW133957  10.286   9.266  12.224 -0.7312 -0.4597  0.6091
 7881SOL    HW233958  10.420   9.325  12.183  0.4348 -2.4063  1.4687
 7882SOL     OW33959   1.116  12.854  11.414 -0.2542 -0.4667 -0.5244
 7882SOL    HW133960   1.124  12.854  11.510 -3.8249  0.1165 -0.0642
 7882SOL    HW233961   1.134  12.944  11.388 -1.0031 -0.1950 -0.1363
 7883SOL     OW33962  11.148   8.459  11.813 -0.1731 -0.2117  0.3617
 7883SOL    HW133963  11.072   8.510  11.786  0.8250 -0.2695 -3.1639
 7883SOL    HW233964  11.112   8.387  11.865 -2.6763 -0.6463 -1.7532
 7884SOL     OW33965   1.283   2.199  11.379  0.2858  0.3566 -1.0710
 7884SOL    HW133966   1.207   2.257  11.389 -0.3032 -0.4837 -0.5128
 7884SOL    HW233967   1.286   2.181  11.285 -0.1429  0.4883 -1.1165
 7885SOL     OW33968   4.730   0.080   2.164 -0.7317 -0.1984 -0.4495
 7885SOL    HW133969   4.724  -0.010   2.134  0.9256  0.0125 -1.5314
 7885SOL    HW233970   4.698   0.132   2.091  0.8319  0.1991 -0.8795
 7886SOL     OW33971   2.513   9.810   9.916 -0.1009 -0.2871  0.0610
 7886SOL    HW133972   2.550   9.884   9.868  1.3258  0.9282  2.7752
 7886SOL    HW233973   2.585   9.746   9.921 -0.1817 -0.3409  0.6496
 7887SOL     OW33974   6.998   5.489   7.741  0.1473  0.2174  0.6683
 7887SOL    HW133975   7.081   5.528   7.714  1.0995 -0.9487  1.7816
 7887SOL    HW233976   6.940   5.502   7.667  1.0550  1.8310  0.1979
 7888SOL     OW33977   6.905   8.931   7.359 -0.0275  0.0129  0.1939
 7888SOL    HW133978   6.855   8.988   7.301  0.0574  1.6535  1.6409
 7888SOL    HW233979   6.841   8.868   7.392 -0.7544  0.9387  0.5995
 7889SOL     OW33980   1.131   3.057  10.058  0.0775 -0.0418 -0.1069
 7889SOL    HW133981   1.052   3.050  10.111 -0.2968 -0.7097 -0.7274
 7889SOL    HW233982   1.169   3.142  10.081 -1.2596  0.6663 -0.3959
 7890SOL     OW33983   2.985   2.348   7.917  0.2146 -0.5503  0.1620
 7890SOL    HW133984   2.999   2.368   8.009 -1.1126  2.1160 -0.1121
 7890SOL    HW233985   2.928   2.418   7.886  2.4745  0.0055 -3.2589
 7891SOL     OW33986  11.374  12.655   1.665 -0.2796 -0.0661  0.4021
 7891SOL    HW133987  11.410  12.604   1.738 -0.7109 -1.4270 -0.3169
 7891SOL    HW233988  11.289  12.616   1.648 -0.5190  0.7562 -0.3203
 7892SOL     OW33989  11.414   5.054   8.104 -0.2116  0.1203  0.1103
 7892SOL    HW133990  11.334   5.099   8.130  0.5232  1.6190 -0.1469
 7892SOL    HW233991  11.389   5.005   8.025 -0.8634  0.6124  0.0062
 7893SOL     OW33992   7.826  10.161   3.871  0.8424  0.1608 -0.2957
 7893SOL    HW133993   7.792  10.231   3.926 -1.0057  0.1662 -1.3550
 7893SOL    HW233994   7.822  10.083   3.927 -0.2876  0.3086 -0.1309
 7894SOL     OW33995   3.906   8.154   0.215 -0.1426  0.0012 -0.4904
 7894SOL    HW133996   3.914   8.130   0.308  0.3742  0.0432 -0.5196
 7894SOL    HW233997   3.869   8.076   0.173  0.9538 -0.5380 -0.4805
 7895SOL     OW33998   3.294   2.079   3.532 -0.6987 -0.1239 -0.2345
 7895SOL    HW133999   3.285   2.082   3.437  0.8744 -0.0534 -0.4027
 7895SOL    HW234000   3.272   2.167   3.561 -1.7152 -0.2906 -0.4707
 7896SOL     OW34001  12.626   2.120   8.717 -0.4916 -0.0950 -0.3612
 7896SOL    HW134002  12.679   2.075   8.782  0.7894 -0.8498 -1.8620
 7896SOL    HW234003  12.536   2.113   8.750  0.2188  0.8677  2.0538
 7897SOL     OW34004  12.208   7.783   3.084  0.2557 -0.2265 -0.0884
 7897SOL    HW134005  12.130   7.729   3.098 -2.3033  3.0824 -0.5367
 7897SOL    HW234006  12.257   7.775   3.166 -1.1488 -1.4573  0.6776
 7898SOL     OW34007  11.600  10.723   9.131 -0.2126 -0.4272  0.6564
 7898SOL    HW134008  11.563  10.660   9.069  1.1446 -0.3922 -0.2375
 7898SOL    HW234009  11.642  10.669   9.198  0.7668 -0.5087  0.0035
 7899SOL     OW34010   6.451   7.383   7.304  0.5024 -0.8984  0.5776
 7899SOL    HW134011   6.477   7.441   7.232 -0.0821  0.7661  1.6632
 7899SOL    HW234012   6.461   7.295   7.267  1.4983 -0.1504 -1.1003
 7900SOL     OW34013   3.659   9.610   4.350  0.4078 -0.0503 -0.0603
 7900SOL    HW134014   3.722   9.622   4.421  0.6583  0.3871 -0.3510
 7900SOL    HW234015   3.708   9.630   4.270  0.4973 -1.8507 -0.4900
 7901SOL     OW34016   1.188   1.654   2.611 -0.2172  0.2418 -0.7414
 7901SOL    HW134017   1.256   1.588   2.596  0.1752 -0.0030  1.6596
 7901SOL    HW234018   1.105   1.607   2.602  0.0362 -0.3123 -0.2205
 7902SOL     OW34019   8.821   9.791   6.475 -0.0653  0.1464 -0.0713
 7902SOL    HW134020   8.806   9.785   6.380  0.5235 -1.7609 -0.0723
 7902SOL    HW234021   8.907   9.752   6.488 -0.3503 -0.0583  1.3159
 7903SOL     OW34022   8.855  10.199   3.158  0.5572  0.2471  0.6187
 7903SOL    HW134023   8.884  10.198   3.067  1.2901 -2.5894  0.8070
 7903SOL    HW234024   8.765  10.167   3.155  1.1534 -1.5962  0.9786
 7904SOL     OW34025   2.194  11.197   8.938  0.0837 -0.2477 -0.1123
 7904SOL    HW134026   2.283  11.202   8.905  0.1660 -0.9455 -0.0142
 7904SOL    HW234027   2.203  11.165   9.028 -0.3489 -2.2420 -0.7189
 7905SOL     OW34028   8.778  12.046  12.490 -0.1023  0.3691 -0.0379
 7905SOL    HW134029   8.811  12.128  12.454 -0.5202  0.0612 -1.1328
 7905SOL    HW234030   8.700  12.072  12.540  0.1404  0.7175  0.1674
 7906SOL     OW34031   0.425   7.420  12.483 -0.8230  0.0340 -0.2020
 7906SOL    HW134032   0.390   7.349  12.538 -2.2363  2.1734  1.8434
 7906SOL    HW234033   0.351   7.479  12.471  0.3724  1.3160 -1.6809
 7907SOL     OW34034   7.000   0.281   8.556  0.3433  0.5353  0.2903
 7907SOL    HW134035   7.081   0.331   8.569  0.3387  0.6392 -0.0563
 7907SOL    HW234036   7.029   0.199   8.515  0.2903  0.5053  0.3123
 7908SOL     OW34037   3.665  11.955   4.309  0.1410  0.0475 -0.0605
 7908SOL    HW134038   3.692  11.867   4.336  1.5284  1.0393  2.0646
 7908SOL    HW234039   3.726  11.979   4.240  0.7323 -0.1176  0.3926
 7909SOL     OW34040   3.361  10.530   0.487 -0.0604  0.2147 -0.1915
 7909SOL    HW134041   3.305  10.455   0.508  0.3255  0.2517  1.0523
 7909SOL    HW234042   3.441  10.514   0.536 -0.1915  1.7255  0.5926
 7910SOL     OW34043   4.310   4.076   1.472  0.3364 -0.1971  0.2700
 7910SOL    HW134044   4.373   4.104   1.538  0.2612 -0.3941  0.4246
 7910SOL    HW234045   4.225   4.089   1.513  0.2706  0.1609  0.0260
 7911SOL     OW34046  11.946   8.430   6.438 -0.6292  0.8871  0.0810
 7911SOL    HW134047  12.029   8.473   6.455  0.3520 -0.1852 -1.6999
 7911SOL    HW234048  11.884   8.501   6.424  0.9186  1.8116 -2.7137
 7912SOL     OW34049   4.187  12.628   2.258  0.5034  0.3329  0.2778
 7912SOL    HW134050   4.163  12.699   2.317 -2.2076 -1.0790  1.0385
 7912SOL    HW234051   4.175  12.548   2.310  1.4764 -0.8030 -1.1513
 7913SOL     OW34052   0.339  10.109   8.842 -0.0595 -0.1643  0.3927
 7913SOL    HW134053   0.421  10.081   8.882 -0.0508  1.0380  1.2512
 7913SOL    HW234054   0.274  10.045   8.871  0.1109  0.2291  1.6850
 7914SOL     OW34055   5.098   4.896   3.875 -0.1078 -0.0932 -0.3329
 7914SOL    HW134056   5.152   4.867   3.949 -1.8963 -0.8720  0.7253
 7914SOL    HW234057   5.157   4.891   3.800  0.8153 -2.7481  0.4339
 7915SOL     OW34058  11.843   7.715   8.081 -0.4124 -0.0961  0.7839
 7915SOL    HW134059  11.810   7.783   8.022  0.1088 -0.4266  0.0887
 7915SOL    HW234060  11.849   7.636   8.027 -0.1670 -0.4727  1.3441
 7916SOL     OW34061   7.123   4.167   1.343 -0.5863 -0.0439 -0.2028
 7916SOL    HW134062   7.028   4.173   1.338 -0.5776  1.4349  0.7727
 7916SOL    HW234063   7.141   4.073   1.350 -1.8057 -0.5256 -2.4979
 7917SOL     OW34064  11.735   4.872  10.761  0.1956 -0.7493  0.1123
 7917SOL    HW134065  11.681   4.868  10.682  0.0207 -1.0889  0.2456
 7917SOL    HW234066  11.798   4.801  10.751  0.4842 -0.4885  0.0570
 7918SOL     OW34067  10.106   0.196   2.366  0.1901  0.4789  0.0373
 7918SOL    HW134068  10.083   0.182   2.274  0.4864 -2.2499  0.3182
 7918SOL    HW234069  10.023   0.220   2.408  0.0821  1.9004 -0.9258
 7919SOL     OW34070   9.680   1.473   6.666 -0.2586  0.2077  0.4811
 7919SOL    HW134071   9.660   1.561   6.697  0.3795  0.5492 -0.0390
 7919SOL    HW234072   9.659   1.416   6.740 -2.2411  0.6048  0.2697
 7920SOL     OW34073  12.367  12.153  11.574 -0.3933 -0.0683  0.0283
 7920SOL    HW134074  12.358  12.156  11.479  0.0753 -1.0305 -0.0583
 7920SOL    HW234075  12.412  12.234  11.597  0.5210 -0.3662 -0.6947
 7921SOL     OW34076   8.424   9.243   5.175 -0.1211  0.2404 -0.5213
 7921SOL    HW134077   8.513   9.228   5.144  0.3790  2.1920 -0.1391
 7921SOL    HW234078   8.422   9.206   5.263  0.2859  0.1234 -0.5616
 7922SOL     OW34079   3.138   9.544   3.172 -0.0759  0.5319  0.5845
 7922SOL    HW134080   3.151   9.607   3.101 -0.8753  0.1675  0.1040
 7922SOL    HW234081   3.106   9.465   3.129  0.1840  0.0427  1.2683
 7923SOL     OW34082   4.075  12.594   5.952  0.7181 -0.7062 -0.0640
 7923SOL    HW134083   4.096  12.504   5.979  0.8180 -0.7535 -0.2988
 7923SOL    HW234084   4.041  12.585   5.863  1.3351 -0.4435 -0.3335
 7924SOL     OW34085   0.373   0.819   8.406  0.6207  0.3197  0.5331
 7924SOL    HW134086   0.340   0.790   8.321  1.0412 -1.0406  0.8043
 7924SOL    HW234087   0.438   0.753   8.430 -0.3258  0.0117  2.4502
 7925SOL     OW34088   7.021  11.526   8.443 -0.4121  0.1613  0.0169
 7925SOL    HW134089   7.060  11.598   8.492  0.9128  0.9166 -2.0394
 7925SOL    HW234090   7.048  11.447   8.491  0.0471  0.8929  0.9993
 7926SOL     OW34091   1.583   1.848   9.116 -0.1099 -0.0301  0.3717
 7926SOL    HW134092   1.593   1.793   9.194  1.4978 -0.0315  0.1823
 7926SOL    HW234093   1.600   1.790   9.043  1.1822  0.5950  0.1526
 7927SOL     OW34094   7.259   3.816   3.123 -0.0287  0.2785 -0.0857
 7927SOL    HW134095   7.172   3.817   3.163 -0.1769 -1.7296 -0.2647
 7927SOL    HW234096   7.251   3.754   3.051  1.8624 -0.8744  0.6447
 7928SOL     OW34097   2.459   9.205  11.458 -0.6089 -0.0259  0.1674
 7928SOL    HW134098   2.423   9.237  11.541  0.3904 -1.9576  1.4066
 7928SOL    HW234099   2.553   9.224  11.464 -0.6238  0.5090 -0.8989
 7929SOL     OW34100   2.771   2.111   2.820 -0.1678  0.2494 -0.5342
 7929SOL    HW134101   2.734   2.139   2.736  0.0538  2.3746  0.0261
 7929SOL    HW234102   2.838   2.177   2.840 -0.6339  0.1379  1.6075
 7930SOL     OW34103  10.998   6.098   8.287 -0.2853 -0.1546  0.2604
 7930SOL    HW134104  11.070   6.161   8.289 -0.7988  0.4450  0.0978
 7930SOL    HW234105  11.017   6.038   8.359 -0.0468  0.4717  0.7308
 7931SOL     OW34106   2.934   9.523   1.041  0.1358 -0.0289 -0.3217
 7931SOL    HW134107   2.889   9.447   1.003  0.7372  0.1355 -1.3917
 7931SOL    HW234108   3.004   9.485   1.093 -0.1150 -0.2356 -0.1302
 7932SOL     OW34109   4.004   9.957   9.169 -0.6970  0.1826  0.8812
 7932SOL    HW134110   4.090   9.962   9.126 -1.0241 -0.2264  0.1558
 7932SOL    HW234111   3.962   9.881   9.129 -1.2818  0.1979  1.4513
 7933SOL     OW34112   5.003   2.646   6.421  0.2448 -0.0643  1.0900
 7933SOL    HW134113   5.085   2.627   6.467  2.2423  1.5284 -1.5216
 7933SOL    HW234114   5.000   2.583   6.349 -0.3609  0.4309  0.6726
 7934SOL     OW34115   0.789   3.103   3.822  0.2580 -0.0843 -0.2138
 7934SOL    HW134116   0.821   3.059   3.901  2.5446  2.1535  0.2448
 7934SOL    HW234117   0.853   3.083   3.755  0.9745  1.8601 -0.1712
 7935SOL     OW34118   3.218   3.108   7.631 -0.1431 -1.0224 -0.1565
 7935SOL    HW134119   3.301   3.074   7.597  0.3971  0.2320 -0.1593
 7935SOL    HW234120   3.178   3.153   7.557  0.5156  0.7669  0.5170
 7936SOL     OW34121   5.069  10.325   2.377 -0.0411 -0.0824  0.2043
 7936SOL    HW134122   5.002  10.295   2.438 -0.7206 -0.1728 -0.5674
 7936SOL    HW234123   5.058  10.420   2.374 -0.7126 -0.1634 -0.5431
 7937SOL     OW34124   7.494  10.923   5.591  0.3716 -0.1767  0.2069
 7937SOL    HW134125   7.516  10.961   5.676  1.3272 -0.4361  0.0896
 7937SOL    HW234126   7.401  10.943   5.578 -0.0816 -1.0871  1.8138
 7938SOL     OW34127   3.256   8.932   9.793 -0.6982 -0.2948 -0.1167
 7938SOL    HW134128   3.245   8.843   9.826  2.0699 -0.6193  0.1252
 7938SOL    HW234129   3.236   8.925   9.699  0.5237 -1.4510 -0.3177
 7939SOL     OW34130   5.153   9.334   5.361  0.2323  0.1620  0.1756
 7939SOL    HW134131   5.105   9.288   5.292  1.7707 -0.2308 -0.6658
 7939SOL    HW234132   5.110   9.420   5.367 -0.3841 -0.0673 -0.7491
 7940SOL     OW34133  10.831   4.424  10.163  0.1251  0.0103 -0.1758
 7940SOL    HW134134  10.906   4.477  10.190  0.7146 -0.5114 -0.7495
 7940SOL    HW234135  10.869   4.346  10.124 -0.7261 -0.4233 -0.1693
 7941SOL     OW34136  12.767   1.033   2.817 -0.4969  0.3780 -0.6031
 7941SOL    HW134137  12.752   0.943   2.848  0.7240  0.1703 -0.5568
 7941SOL    HW234138  12.692   1.051   2.760 -0.2920 -1.0237 -1.3789
 7942SOL     OW34139   5.527   9.645   9.546  0.1545  0.4339 -0.4613
 7942SOL    HW134140   5.559   9.719   9.495 -0.5731 -0.3170 -2.0983
 7942SOL    HW234141   5.509   9.577   9.480 -0.4540 -0.7183  0.8496
 7943SOL     OW34142  11.950   2.134   2.762  0.0685  0.1289 -0.3428
 7943SOL    HW134143  11.932   2.040   2.766  0.3684  0.0362 -1.0101
 7943SOL    HW234144  11.900   2.171   2.835  0.1802 -0.5830  0.1097
 7944SOL     OW34145  12.165   0.712   9.919  0.0385 -0.8310  0.6607
 7944SOL    HW134146  12.236   0.667   9.964 -0.5312 -0.2837  2.1660
 7944SOL    HW234147  12.170   0.680   9.828  1.7517 -1.3067  0.8920
 7945SOL     OW34148  12.969  11.166   9.562 -0.3531 -0.1614  0.3413
 7945SOL    HW134149  12.930  11.106   9.499  0.0927  0.9157 -1.0320
 7945SOL    HW234150  12.926  11.146   9.645 -1.7446 -0.9092 -0.5253
 7946SOL     OW34151  10.069  11.427   2.028  0.0469  0.0696  0.3148
 7946SOL    HW134152  10.105  11.376   2.101  0.9983 -0.3141 -0.4028
 7946SOL    HW234153  10.135  11.494   2.011 -0.4020  0.4651  0.1256
 7947SOL     OW34154  12.558  12.660   6.034 -0.3046 -0.4813 -0.6037
 7947SOL    HW134155  12.569  12.754   6.020 -2.4023 -0.3552 -1.7479
 7947SOL    HW234156  12.615  12.640   6.108  1.0465  1.4602 -1.0532
 7948SOL     OW34157   0.631   9.353   2.473  0.2190 -0.0594  0.0213
 7948SOL    HW134158   0.588   9.328   2.555  1.1156 -1.8763  0.0090
 7948SOL    HW234159   0.568   9.409   2.429 -1.3038 -0.9967  0.8892
 7949SOL     OW34160  11.965   0.702  11.433  0.2216  0.3789  0.4853
 7949SOL    HW134161  12.044   0.704  11.487  0.3509  1.0108  0.2911
 7949SOL    HW234162  11.907   0.639  11.475 -0.0924  1.5868  1.9418
 7950SOL     OW34163   7.543   4.249   3.698  0.2894  0.3820  0.4582
 7950SOL    HW134164   7.458   4.248   3.653  0.5219 -1.1274  0.0177
 7950SOL    HW234165   7.534   4.319   3.762 -1.1202  0.5803  0.0890
 7951SOL     OW34166   9.602  11.651   9.563 -0.1622  0.4077  0.0847
 7951SOL    HW134167   9.632  11.638   9.473 -1.4343  1.4053 -0.5119
 7951SOL    HW234168   9.675  11.694   9.607  1.1411 -1.6142  0.0491
 7952SOL     OW34169   4.176  12.271  11.740  0.3114 -0.3187 -0.2666
 7952SOL    HW134170   4.261  12.303  11.770  0.7155 -0.8434 -0.8075
 7952SOL    HW234171   4.131  12.242  11.820  0.0627  1.2522  0.1828
 7953SOL     OW34172   0.299   7.636   0.592 -0.5263  0.3073 -0.6169
 7953SOL    HW134173   0.286   7.659   0.684 -2.0363 -0.0608 -0.7137
 7953SOL    HW234174   0.382   7.587   0.591 -0.7039 -0.0461  0.6031
 7954SOL     OW34175   3.860   3.126   5.981  0.2383 -0.7064  0.0559
 7954SOL    HW134176   3.765   3.136   5.968  0.3483  0.5827  0.0606
 7954SOL    HW234177   3.888   3.211   6.014  1.8144 -0.1059 -2.5442
 7955SOL     OW34178  10.315  11.293   6.558  0.0727  0.4604 -0.6539
 7955SOL    HW134179  10.269  11.375   6.543 -1.0737  0.1641  1.0244
 7955SOL    HW234180  10.392  11.317   6.609  0.4947  0.6366 -1.3513
 7956SOL     OW34181  11.534   9.308   5.869  0.7408 -0.3582 -0.1549
 7956SOL    HW134182  11.511   9.252   5.944  1.5116  1.5828  1.6474
 7956SOL    HW234183  11.626   9.329   5.883  1.0155 -0.3003 -1.9317
 7957SOL     OW34184   4.678   1.936  10.514  0.5027 -0.1237 -0.5312
 7957SOL    HW134185   4.635   2.021  10.510  0.1587 -0.3120 -0.9323
 7957SOL    HW234186   4.763   1.950  10.472 -0.1881 -0.3445 -2.0804
 7958SOL     OW34187  12.738   0.616  10.004  0.2153  0.3675  0.0709
 7958SOL    HW134188  12.796   0.542   9.984 -1.9943 -1.2426 -0.8157
 7958SOL    HW234189  12.693   0.634   9.922  0.1989  2.2914  0.4532
 7959SOL     OW34190   4.193  11.556   3.546 -0.2511 -0.3689  0.2248
 7959SOL    HW134191   4.198  11.640   3.500  1.0865 -0.2764  0.4918
 7959SOL    HW234192   4.284  11.537   3.570 -0.8777 -0.4154  2.8334
 7960SOL     OW34193   7.183   3.483   5.555  0.0765  0.1126 -0.0358
 7960SOL    HW134194   7.120   3.414   5.571  0.7139 -0.2440  1.0352
 7960SOL    HW234195   7.223   3.500   5.641  0.9300  0.8096 -0.5497
 7961SOL     OW34196   3.358  12.401  12.651 -0.0710 -0.1228  0.5454
 7961SOL    HW134197   3.308  12.471  12.694 -2.5443 -1.1780 -0.4229
 7961SOL    HW234198   3.440  12.397  12.700 -0.7989  1.9061  2.0808
 7962SOL     OW34199  11.107   7.728   9.951  0.0111 -0.1917 -0.4803
 7962SOL    HW134200  11.048   7.653   9.952  0.7665 -0.8061  1.1075
 7962SOL    HW234201  11.175   7.706  10.015  1.4574  0.9018 -1.5804
 7963SOL     OW34202   2.996   6.488  11.113  0.1530 -0.1525  0.1819
 7963SOL    HW134203   3.071   6.531  11.072  0.3276 -1.3558 -0.8100
 7963SOL    HW234204   3.004   6.396  11.089  0.2734 -0.9690  2.9898
 7964SOL     OW34205   1.368   6.271   8.164  0.0061 -0.2609 -0.1247
 7964SOL    HW134206   1.310   6.321   8.221  2.0035  1.6477  0.3697
 7964SOL    HW234207   1.362   6.315   8.079  1.5190  0.6854  0.2230
 7965SOL     OW34208   7.624   2.550   4.138  0.0137 -0.8739  0.0153
 7965SOL    HW134209   7.612   2.641   4.110 -2.2035 -0.9457  0.5544
 7965SOL    HW234210   7.711   2.549   4.178 -0.6935  1.5646  1.8579
 7966SOL     OW34211  11.098   0.592   4.698 -0.0827 -0.2368  0.1743
 7966SOL    HW134212  11.003   0.588   4.691 -0.1365  0.2891  0.5260
 7966SOL    HW234213  11.115   0.676   4.741  0.5778  0.0851 -0.6769
 7967SOL     OW34214  10.129   8.666  11.792 -0.1205 -0.3696 -0.6688
 7967SOL    HW134215  10.199   8.691  11.852  0.9617 -1.2097 -1.5533
 7967SOL    HW234216  10.069   8.740  11.793  0.0842 -0.1842  1.1083
 7968SOL     OW34217   5.280   5.301   2.177  0.1959 -0.6971 -0.6136
 7968SOL    HW134218   5.263   5.357   2.101  1.8705  0.1751 -0.3903
 7968SOL    HW234219   5.238   5.218   2.154 -3.3579  0.8729 -0.4676
 7969SOL     OW34220  12.634   0.394   0.594  0.1219 -0.1175  0.2652
 7969SOL    HW134221  12.590   0.309   0.589  0.9677 -0.5887  0.6166
 7969SOL    HW234222  12.669   0.408   0.507 -1.7115  0.8316 -0.3723
 7970SOL     OW34223   9.570   7.712   7.095 -0.2302 -0.3522  0.3341
 7970SOL    HW134224   9.485   7.689   7.060  0.6235 -4.5046  0.4739
 7970SOL    HW234225   9.558   7.714   7.190 -0.1849 -0.9633  0.3546
 7971SOL     OW34226   9.511   4.341   2.179  0.2969 -0.5765  0.1065
 7971SOL    HW134227   9.585   4.402   2.182  0.5783 -0.9370  0.7308
 7971SOL    HW234228   9.478   4.348   2.090  1.2203 -0.5616 -0.2486
 7972SOL     OW34229  11.143   5.484   1.584 -0.0319 -0.2483  0.6066
 7972SOL    HW134230  11.156   5.392   1.561  0.6173 -0.0572  0.1809
 7972SOL    HW234231  11.055   5.505   1.551  0.3641 -0.3414 -0.5431
 7973SOL     OW34232   6.013   1.906  12.931  0.0983 -0.0345  0.1115
 7973SOL    HW134233   6.083   1.933  12.871 -1.3048 -1.4134 -2.2863
 7973SOL    HW234234   6.051   1.832  12.980  0.2098 -1.1806 -1.6096
 7974SOL     OW34235   8.796   4.158   3.780 -0.1526 -0.3610 -0.3545
 7974SOL    HW134236   8.736   4.084   3.769 -0.9696  0.0916  0.8834
 7974SOL    HW234237   8.764   4.224   3.719 -0.9403 -0.1238  0.2965
 7975SOL     OW34238  10.684  11.479   6.843  0.5268 -0.5518  0.1358
 7975SOL    HW134239  10.594  11.480   6.875  0.6509  1.7694  0.6269
 7975SOL    HW234240  10.680  11.430   6.761 -1.8350  1.9258 -1.4185
 7976SOL     OW34241   8.713  10.151   7.504  0.4295  0.2648 -0.1780
 7976SOL    HW134242   8.648  10.093   7.542  1.4931 -0.3611  0.7575
 7976SOL    HW234243   8.706  10.137   7.410 -0.3777 -0.2281 -0.0528
 7977SOL     OW34244  10.685  10.692  11.101 -0.3426 -0.4687 -0.0638
 7977SOL    HW134245  10.693  10.761  11.166 -2.0603 -0.5567  0.2974
 7977SOL    HW234246  10.698  10.611  11.150 -2.2395 -0.5707  0.3656
 7978SOL     OW34247   7.108  11.041   8.387  0.0825  0.2661 -0.2093
 7978SOL    HW134248   7.040  11.082   8.334  0.0886  1.1799  0.4787
 7978SOL    HW234249   7.107  10.949   8.359  0.0197  0.6986 -1.7098
 7979SOL     OW34250  11.679   7.674   5.156  0.1947  0.1058 -0.7767
 7979SOL    HW134251  11.675   7.767   5.136 -1.4312 -0.0976 -1.6075
 7979SOL    HW234252  11.745   7.666   5.225  1.1958  1.7047 -1.5064
 7980SOL     OW34253   1.904   6.970   8.624 -0.6183 -0.1316  0.0141
 7980SOL    HW134254   1.857   6.992   8.705 -3.8186 -1.6122 -1.2331
 7980SOL    HW234255   1.880   7.040   8.563  0.4109  0.0940 -0.1420
 7981SOL     OW34256   1.367   5.289  11.573  0.2996  0.4419 -0.0333
 7981SOL    HW134257   1.397   5.380  11.575  0.4832  0.4208 -1.1860
 7981SOL    HW234258   1.277   5.295  11.541 -0.0330  0.2829  0.8403
 7982SOL     OW34259   8.694   4.610   7.084 -0.9891 -0.6294  0.0989
 7982SOL    HW134260   8.703   4.662   7.004 -0.7697 -0.6694  0.0992
 7982SOL    HW234261   8.716   4.521   7.057 -0.1628 -0.5119  0.3785
 7983SOL     OW34262  12.122  12.224   8.590  0.1385  0.6695 -0.4180
 7983SOL    HW134263  12.031  12.254   8.595 -0.8022 -1.9800 -0.0264
 7983SOL    HW234264  12.168  12.276   8.656 -1.1633  1.8268 -0.3847
 7984SOL     OW34265   8.485   4.840   5.484  0.9407  0.7926  0.3976
 7984SOL    HW134266   8.466   4.747   5.468  0.8396  0.5157  1.9480
 7984SOL    HW234267   8.467   4.883   5.400 -1.8851 -0.1641  0.4051
 7985SOL     OW34268   9.602   6.550   1.958  0.1797  0.0577  0.0211
 7985SOL    HW134269   9.571   6.609   2.027 -1.8441  0.0503 -0.8050
 7985SOL    HW234270   9.666   6.601   1.909  1.3250  0.2070  1.6134
 7986SOL     OW34271   2.037   2.573  10.521 -0.2808 -0.1280 -0.2229
 7986SOL    HW134272   1.990   2.548  10.600 -0.9407  0.6104 -0.3734
 7986SOL    HW234273   1.975   2.627  10.472  0.6151  0.6221 -0.5570
 7987SOL     OW34274   4.089   6.283  10.310 -0.4233  0.3240 -0.4716
 7987SOL    HW134275   4.131   6.224  10.247 -0.1555 -0.3275  0.3004
 7987SOL    HW234276   4.157   6.347  10.331  0.2107 -0.7105  0.7525
 7988SOL     OW34277  12.024   6.462   2.104 -0.1850 -0.0296 -0.1041
 7988SOL    HW134278  11.989   6.394   2.163 -0.8700 -0.2520 -0.7598
 7988SOL    HW234279  11.984   6.444   2.019  0.1240  0.8207 -0.4439
 7989SOL     OW34280   0.604   0.715  12.739 -0.5329  0.5607  0.0216
 7989SOL    HW134281   0.579   0.772  12.666  1.0665  0.1369 -0.9008
 7989SOL    HW234282   0.698   0.702  12.728 -0.0551  1.2216  2.7041
 7990SOL     OW34283   2.224   1.304   5.998 -0.0921 -0.4298 -0.1862
 7990SOL    HW134284   2.310   1.262   5.991 -0.3294 -0.6653 -2.4537
 7990SOL    HW234285   2.170   1.240   6.045  0.3696 -1.3349 -0.8538
 7991SOL     OW34286   7.873   8.699   7.454  0.4605 -0.1335 -0.2454
 7991SOL    HW134287   7.937   8.755   7.411 -0.6258  0.5630 -1.0026
 7991SOL    HW234288   7.803   8.758   7.481 -0.3509 -1.0091 -0.3714
 7992SOL     OW34289   7.843   7.723   0.461  0.6655  0.5002 -0.4995
 7992SOL    HW134290   7.775   7.705   0.397 -0.5913  1.5358  0.4896
 7992SOL    HW234291   7.896   7.644   0.463  0.6510  0.3649 -2.6569
 7993SOL     OW34292  10.866  10.142  12.202 -0.1137  0.3635  0.6630
 7993SOL    HW134293  10.946  10.089  12.210 -0.6402 -0.5194  0.2536
 7993SOL    HW234294  10.826  10.112  12.120 -1.2931  0.1868  1.2864
 7994SOL     OW34295   7.762   9.681  12.127 -0.2039  0.5567  0.0207
 7994SOL    HW134296   7.689   9.742  12.115 -1.4294 -0.7741  0.4023
 7994SOL    HW234297   7.746   9.612  12.062  1.7989  1.1713 -1.2158
 7995SOL     OW34298   8.727   0.436   3.520 -0.4085 -0.2103  0.2597
 7995SOL    HW134299   8.708   0.375   3.591  0.3624  1.1178  1.6573
 7995SOL    HW234300   8.746   0.380   3.445  0.4215 -1.7164  1.5286
 7996SOL     OW34301   2.489   6.836   9.017 -0.4529  0.2661  0.0420
 7996SOL    HW134302   2.424   6.861   8.951  0.1534 -0.5476 -0.8784
 7996SOL    HW234303   2.556   6.904   9.011  0.4032 -0.6628 -1.3373
 7997SOL     OW34304   6.077   5.885  11.834 -0.6498 -0.1817 -0.0731
 7997SOL    HW134305   6.116   5.798  11.832  0.6227  0.1738  3.3082
 7997SOL    HW234306   6.008   5.879  11.900  1.0345  1.8351  2.0455
 7998SOL     OW34307   0.834   3.070  11.540  0.5918  0.8115 -0.0058
 7998SOL    HW134308   0.868   3.141  11.594  2.3762 -0.1504  0.2374
 7998SOL    HW234309   0.741   3.066  11.561  1.4398 -0.8378  4.7011
 7999SOL     OW34310  10.724   1.381   9.293 -0.2482  0.0605 -0.2226
 7999SOL    HW134311  10.736   1.302   9.242  0.5846 -1.5568  2.2818
 7999SOL    HW234312  10.668   1.355   9.366 -1.4590  2.2553 -0.2718
 8000SOL     OW34313   7.181   0.377   2.024 -0.1609  0.2494 -0.1767
 8000SOL    HW134314   7.229   0.427   2.090  1.2400  1.5117 -2.0489
 8000SOL    HW234315   7.121   0.440   1.985  0.9663  0.3135 -1.9273
 8001SOL     OW34316   0.961  12.315   2.840 -0.3841 -0.9329 -0.2125
 8001SOL    HW134317   0.981  12.387   2.900 -2.0153 -0.4997 -0.1466
 8001SOL    HW234318   0.953  12.358   2.754 -1.3711 -1.0268 -0.1706
 8002SOL     OW34319  12.079   7.472   0.371  0.1739 -0.4015  0.3239
 8002SOL    HW134320  12.045   7.560   0.379 -0.3446 -0.6569  0.9923
 8002SOL    HW234321  12.146   7.465   0.439 -0.2245 -0.7151  0.6953
 8003SOL     OW34322  11.144   2.400   4.185 -0.7576  0.4628 -0.5868
 8003SOL    HW134323  11.181   2.342   4.118 -0.4299 -0.5385  0.4309
 8003SOL    HW234324  11.102   2.341   4.247 -2.5156  1.4822 -0.7557
 8004SOL     OW34325   7.891   1.498   1.202 -0.1589 -0.2710 -0.0945
 8004SOL    HW134326   7.957   1.545   1.151  2.1805 -0.6332  2.3537
 8004SOL    HW234327   7.869   1.558   1.273 -2.1399 -0.3692 -0.5876
 8005SOL     OW34328   7.115  11.968   3.019 -0.1476 -0.1789 -0.0917
 8005SOL    HW134329   7.106  12.061   3.040  0.1025 -0.3392  0.7816
 8005SOL    HW234330   7.035  11.928   3.052  0.1373 -0.3997  0.3480
 8006SOL     OW34331   7.293   3.039  12.751 -0.5785  0.1206  0.0403
 8006SOL    HW134332   7.200   3.016  12.752 -0.8673  1.1739 -0.4782
 8006SOL    HW234333   7.339   2.955  12.745 -1.4787 -0.4322  0.6153
 8007SOL     OW34334   8.551   5.182   5.162 -0.0061 -0.2520 -0.2907
 8007SOL    HW134335   8.487   5.116   5.135 -0.1078  0.3019 -1.4597
 8007SOL    HW234336   8.617   5.133   5.211  0.4171 -1.4029 -1.9488
 8008SOL     OW34337   9.037   9.531   7.743 -0.0262 -0.4777  0.0105
 8008SOL    HW134338   9.106   9.595   7.723  0.4625 -0.2560  2.1620
 8008SOL    HW234339   8.955   9.580   7.732  0.2739  0.0289  0.0175
 8009SOL     OW34340   2.773  12.620   1.028  0.1336  0.1512 -0.2832
 8009SOL    HW134341   2.805  12.661   1.109  0.8758 -0.8637 -0.0504
 8009SOL    HW234342   2.679  12.610   1.043  0.0158  1.2835 -0.1438
 8010SOL     OW34343   5.912   3.336  10.417 -0.2814  0.1309  0.1458
 8010SOL    HW134344   5.919   3.371  10.329  2.0753  1.1243  0.6424
 8010SOL    HW234345   5.849   3.394  10.461 -1.3540 -0.2824 -0.8043
 8011SOL     OW34346   9.383   0.297  11.629 -0.3193  0.1648 -0.2520
 8011SOL    HW134347   9.369   0.361  11.699  0.3912  1.4350 -1.2157
 8011SOL    HW234348   9.478   0.284  11.629 -0.4358 -0.7370 -0.2227
 8012SOL     OW34349   2.425   5.332   2.284  0.4175 -0.0715  0.2036
 8012SOL    HW134350   2.431   5.352   2.190 -2.6789  0.0554 -0.0746
 8012SOL    HW234351   2.421   5.236   2.287  0.2921 -0.0667  0.1899
 8013SOL     OW34352  12.320   1.006  11.777 -0.6731 -0.0373  0.4329
 8013SOL    HW134353  12.345   1.030  11.866 -1.5437 -1.2090  1.0229
 8013SOL    HW234354  12.387   0.944  11.749 -0.2276  0.5664  0.1446
 8014SOL     OW34355  12.427   5.358   3.123 -0.0164  0.1859  0.1288
 8014SOL    HW134356  12.512   5.356   3.166  0.8959 -1.8788 -1.5617
 8014SOL    HW234357  12.365   5.328   3.190  1.1711 -1.7738  0.4395
 8015SOL     OW34358  10.786  12.092   3.371  0.1150 -0.4078 -0.7723
 8015SOL    HW134359  10.816  12.150   3.301  0.0510 -0.3535 -0.7546
 8015SOL    HW234360  10.865  12.045   3.399  0.1794 -0.2839 -0.7435
 8016SOL     OW34361  11.739   4.506  10.605 -0.8599 -0.2723 -0.3067
 8016SOL    HW134362  11.733   4.480  10.697 -1.7424  2.5272  0.5044
 8016SOL    HW234363  11.669   4.570  10.593 -0.3213 -0.0414 -2.7561
 8017SOL     OW34364   5.696   1.611  11.370 -0.6141 -0.0668  0.2181
 8017SOL    HW134365   5.761   1.549  11.338  0.3835  0.5621  0.9565
 8017SOL    HW234366   5.687   1.675  11.299 -0.3318 -0.0915  0.1569
 8018SOL     OW34367   5.005   1.722   2.248 -0.0805  0.7428  0.6248
 8018SOL    HW134368   4.989   1.815   2.261  0.9946  0.8684  1.1064
 8018SOL    HW234369   5.030   1.689   2.334 -1.3798 -0.2070  0.6787
 8019SOL     OW34370   7.091   6.596   4.788  0.0263 -0.0353 -0.5057
 8019SOL    HW134371   7.122   6.549   4.865  1.3988 -0.7401 -1.4534
 8019SOL    HW234372   7.078   6.686   4.818  3.3823  0.4247 -0.1053
 8020SOL     OW34373   4.321  11.958   8.137  0.3443  0.0920 -0.8392
 8020SOL    HW134374   4.300  12.043   8.099 -1.2062  0.2224  0.2031
 8020SOL    HW234375   4.245  11.903   8.116  0.5946 -0.5520 -0.1195
 8021SOL     OW34376  11.217   3.757   1.624 -0.2243  0.1671 -1.0607
 8021SOL    HW134377  11.203   3.682   1.566 -0.5241  0.2774 -1.1314
 8021SOL    HW234378  11.135   3.806   1.621  0.1916  0.8528 -1.5317
 8022SOL     OW34379   4.349  12.674   7.911  0.0955 -0.9498 -0.1743
 8022SOL    HW134380   4.348  12.719   7.827 -1.1892  0.0787  0.3610
 8022SOL    HW234381   4.354  12.744   7.977 -3.6112 -1.3482  0.7371
 8023SOL     OW34382  12.714  12.330  12.587 -0.3408 -0.4315 -0.9292
 8023SOL    HW134383  12.746  12.320  12.676 -1.8642  0.9560 -0.1674
 8023SOL    HW234384  12.784  12.376  12.540 -0.4726  1.0247  0.2332
 8024SOL     OW34385   5.556   6.342   4.930 -0.5306  0.1207  0.4393
 8024SOL    HW134386   5.484   6.291   4.894  0.5295 -1.7083  0.7740
 8024SOL    HW234387   5.517   6.427   4.950 -1.9140  0.1193 -1.9048
 8025SOL     OW34388   3.669   0.174   9.165 -0.1253  0.2832  0.6637
 8025SOL    HW134389   3.584   0.218   9.165 -1.7211 -2.5017  1.6943
 8025SOL    HW234390   3.716   0.213   9.239 -0.6912  1.5188  0.3929
 8026SOL     OW34391  10.012   9.922  12.025 -0.0559  0.3363 -0.5447
 8026SOL    HW134392  10.086   9.903  12.082 -0.1146  0.2168 -0.5054
 8026SOL    HW234393   9.953   9.975  12.079 -0.3414 -0.1910 -0.3241
 8027SOL     OW34394   2.089   4.747   4.530  0.5780  0.1686  0.6671
 8027SOL    HW134395   2.035   4.727   4.607 -0.8998  0.3938 -0.2820
 8027SOL    HW234396   2.027   4.755   4.458  1.9863 -0.6737 -0.7054
 8028SOL     OW34397  12.200   0.186   1.874 -0.0205 -0.0192 -0.0344
 8028SOL    HW134398  12.224   0.276   1.894 -2.1795  0.6188 -0.0737
 8028SOL    HW234399  12.105   0.188   1.864 -0.2958 -2.5496  1.2599
 8029SOL     OW34400  12.475   3.874   3.914 -0.1046  0.1767  0.7328
 8029SOL    HW134401  12.430   3.935   3.972 -0.4095 -0.5197  1.2571
 8029SOL    HW234402  12.496   3.799   3.970 -2.3729 -1.4886 -0.4759
 8030SOL     OW34403  11.867   5.304   0.946 -0.2637  0.6739  0.2452
 8030SOL    HW134404  11.881   5.260   0.862 -0.4426  0.2540  0.4328
 8030SOL    HW234405  11.773   5.297   0.963  0.2635 -4.0169  2.9837
 8031SOL     OW34406   8.172  12.504   8.095 -0.3463 -0.4821  0.3907
 8031SOL    HW134407   8.262  12.475   8.110  0.1681 -0.0367 -1.5433
 8031SOL    HW234408   8.162  12.581   8.151 -0.0904 -1.4603  1.8313
 8032SOL     OW34409   1.281  10.220  11.402  0.3636 -0.0979  0.3338
 8032SOL    HW134410   1.363  10.267  11.388  0.3941 -0.5395 -1.1932
 8032SOL    HW234411   1.275  10.159  11.329 -1.6365  0.3895  0.0012
 8033SOL     OW34412   2.467   4.770   3.899  0.0811 -0.1681 -0.2744
 8033SOL    HW134413   2.454   4.825   3.975  1.9427  0.6092 -0.4573
 8033SOL    HW234414   2.505   4.689   3.934 -5.5730 -3.0310  0.4476
 8034SOL     OW34415  11.544   3.694   4.880 -0.0726 -0.3420 -0.2838
 8034SOL    HW134416  11.511   3.652   4.960  1.6696 -0.0352  0.6545
 8034SOL    HW234417  11.558   3.785   4.905  3.0498 -0.7945 -0.0364
 8035SOL     OW34418  12.233   2.321   5.581  0.5088  0.0787 -0.3209
 8035SOL    HW134419  12.309   2.379   5.572  1.4006 -1.0884 -0.6201
 8035SOL    HW234420  12.186   2.332   5.498  0.6625  0.3882 -0.3704
 8036SOL     OW34421   3.763   0.372   8.377  0.3491 -0.1865  0.4336
 8036SOL    HW134422   3.777   0.456   8.333  0.6769 -0.7927 -0.6481
 8036SOL    HW234423   3.844   0.356   8.426 -0.0230  0.4958  1.3092
 8037SOL     OW34424   0.461   3.502   2.646 -0.1744  0.1003  0.5986
 8037SOL    HW134425   0.457   3.597   2.661  2.9611  0.5094 -0.5053
 8037SOL    HW234426   0.478   3.494   2.553  1.7957 -1.4198  1.0373
 8038SOL     OW34427   8.885   3.050   4.190 -0.1882  0.2606 -0.1483
 8038SOL    HW134428   8.957   3.027   4.249 -0.5629  2.8024  1.4550
 8038SOL    HW234429   8.898   3.143   4.171 -1.7056  0.1836 -1.7910
 8039SOL     OW34430   5.660   3.401   9.987  0.2875  0.1369 -0.1141
 8039SOL    HW134431   5.687   3.414   9.896  0.8777  2.9672  0.3926
 8039SOL    HW234432   5.566   3.422   9.987 -0.0644 -1.2977 -0.2786
 8040SOL     OW34433  12.636   0.402   1.735 -0.0759  0.0998  0.0404
 8040SOL    HW134434  12.542   0.407   1.754  0.1987  1.5112  1.1786
 8040SOL    HW234435  12.652   0.475   1.675  0.4307  0.4124  0.5448
 8041SOL     OW34436   6.177  11.640   1.983  0.1687 -0.0130  0.1960
 8041SOL    HW134437   6.210  11.622   2.071 -1.3881  2.7890  1.5090
 8041SOL    HW234438   6.254  11.662   1.932  1.0975 -1.6153  0.8453
 8042SOL     OW34439   9.832   2.119   7.193 -0.0549  0.5211 -0.2618
 8042SOL    HW134440   9.811   2.208   7.164  2.2986  1.1824 -0.1421
 8042SOL    HW234441   9.904   2.130   7.255  0.7400 -1.5186 -0.7442
 8043SOL     OW34442   0.537   9.841   0.736 -0.2377  0.0102 -0.0036
 8043SOL    HW134443   0.614   9.895   0.755  0.5894 -1.6716  1.7408
 8043SOL    HW234444   0.499   9.881   0.658  1.2767  2.0666  0.2229
 8044SOL     OW34445   1.246   5.497  11.194  0.3524  0.5395  0.0497
 8044SOL    HW134446   1.233   5.402  11.190  1.4508  0.2552  1.8869
 8044SOL    HW234447   1.163   5.534  11.163 -0.7668 -1.0418  0.9712
 8045SOL     OW34448   0.588   3.468   0.554 -0.7495 -0.1087 -0.3557
 8045SOL    HW134449   0.679   3.499   0.550 -1.2254  1.2416 -1.5169
 8045SOL    HW234450   0.539   3.543   0.587 -1.5004 -0.7257 -0.0424
 8046SOL     OW34451   4.960   0.566   6.080  0.1758 -0.7524 -0.2900
 8046SOL    HW134452   4.927   0.480   6.053 -1.2524  0.3279 -2.1783
 8046SOL    HW234453   5.052   0.551   6.101 -0.0001 -2.7049 -0.7590
 8047SOL     OW34454  11.004   2.081   0.926 -0.3330 -0.9566 -0.3022
 8047SOL    HW134455  11.053   1.999   0.931  0.3916 -0.4901  0.9351
 8047SOL    HW234456  10.938   2.073   0.995 -1.0831 -1.0078 -1.0226
 8048SOL     OW34457   2.294   0.142   6.154 -0.0221  0.1700 -0.1809
 8048SOL    HW134458   2.226   0.096   6.203  1.4740 -0.6055  1.2588
 8048SOL    HW234459   2.311   0.087   6.078 -0.3871 -0.0936 -0.0734
 8049SOL     OW34460   7.487   0.297   4.873 -0.0615 -0.0765 -0.5232
 8049SOL    HW134461   7.513   0.360   4.806  1.9690  0.2174  0.4593
 8049SOL    HW234462   7.447   0.350   4.942  1.1341  0.0923  0.0559
 8050SOL     OW34463  10.813   0.011   8.039  0.3742 -0.0669 -0.4663
 8050SOL    HW134464  10.750  -0.059   8.058  2.0182 -1.1490  1.2908
 8050SOL    HW234465  10.854  -0.015   7.956  0.1649 -0.5730 -0.4148
 8051SOL     OW34466   0.037  12.906   3.456 -0.0721 -0.5416 -0.0783
 8051SOL    HW134467   0.025  12.980   3.396  0.9179 -1.4176 -1.4108
 8051SOL    HW234468  -0.033  12.845   3.432  0.6278 -1.1103 -0.7042
 8052SOL     OW34469   4.961  12.972   7.520 -0.2602 -0.1902 -0.3463
 8052SOL    HW134470   5.049  12.948   7.491 -1.0412 -1.2963 -1.9681
 8052SOL    HW234471   4.947  13.060   7.487 -0.0596 -0.3228 -0.7859
 8053SOL     OW34472   4.528   8.927   6.046  0.3933 -0.4484  0.3448
 8053SOL    HW134473   4.619   8.953   6.034  0.4170 -1.0296 -0.8066
 8053SOL    HW234474   4.516   8.925   6.141  1.3804  0.2931  0.4934
 8054SOL     OW34475   7.957   2.524   8.107  0.1960  0.6573 -0.8335
 8054SOL    HW134476   7.883   2.547   8.051 -0.2074  2.7044  0.4308
 8054SOL    HW234477   7.990   2.608   8.140  1.5098 -0.3540  0.6163
 8055SOL     OW34478  10.325   6.573   3.820  0.4719  0.2237  0.0780
 8055SOL    HW134479  10.238   6.553   3.787  0.0451  1.7464  0.2327
 8055SOL    HW234480  10.374   6.491   3.810 -1.0361 -0.7221  0.2400
 8056SOL     OW34481   1.088   8.474   7.731  0.0861  0.4053 -0.3761
 8056SOL    HW134482   1.149   8.417   7.776 -0.4682  0.5850  0.6401
 8056SOL    HW234483   1.078   8.550   7.789 -2.0284 -0.1728  0.1321
 8057SOL     OW34484  11.010   8.771   7.392 -0.5635  0.2216 -0.0149
 8057SOL    HW134485  11.033   8.857   7.426  0.4317 -0.0950  0.1549
 8057SOL    HW234486  10.976   8.787   7.304 -2.0730  0.9404  0.6642
 8058SOL     OW34487   0.332  12.408   9.428 -0.2014  0.2245  0.3774
 8058SOL    HW134488   0.275  12.447   9.495 -0.9141  0.0007 -0.0837
 8058SOL    HW234489   0.416  12.398   9.472 -0.0135  2.1612  0.5678
 8059SOL     OW34490   0.059   0.185   9.579  0.1212  0.2269 -0.1148
 8059SOL    HW134491   0.089   0.269   9.546 -0.0812  0.4979  0.3781
 8059SOL    HW234492   0.139   0.141   9.609 -0.0097  1.3980  2.2297
 8060SOL     OW34493   0.136  10.354  12.009  0.1267 -0.0785  0.3875
 8060SOL    HW134494   0.224  10.391  12.012 -0.0505  0.5945 -1.6526
 8060SOL    HW234495   0.087  10.405  12.075 -0.4967  4.6435 -3.1930
 8061SOL     OW34496  12.088   4.208  10.612 -0.9971 -0.2587  0.3319
 8061SOL    HW134497  12.095   4.270  10.684  0.7324 -1.3160  1.1380
 8061SOL    HW234498  12.108   4.123  10.651  0.3908 -0.8242 -1.4667
 8062SOL     OW34499   4.690   0.536   3.934  0.1630  0.7561  0.0839
 8062SOL    HW134500   4.632   0.469   3.969  0.6633 -0.6044 -1.5328
 8062SOL    HW234501   4.633   0.592   3.882  0.1356 -0.0849 -0.8224
 8063SOL     OW34502   7.562   8.730   3.295  0.2689 -0.5300 -0.9110
 8063SOL    HW134503   7.541   8.817   3.263 -0.4027 -0.4322 -0.2326
 8063SOL    HW234504   7.657   8.722   3.283  0.5343  0.7392  0.0839
 8064SOL     OW34505   8.284   8.141   6.984  0.2389  0.1423 -0.2525
 8064SOL    HW134506   8.363   8.095   7.011 -0.1483 -0.8538 -0.7606
 8064SOL    HW234507   8.314   8.202   6.916  0.6643  0.2419  0.0196
 8065SOL     OW34508   0.562   3.048  11.588  0.2631 -0.2825 -0.0382
 8065SOL    HW134509   0.521   3.134  11.596 -0.9687 -0.8469 -0.0355
 8065SOL    HW234510   0.554   3.009  11.675  1.3742 -0.1755  0.1265
 8066SOL     OW34511   0.567   4.857   3.312  0.6890 -0.0408  0.6927
 8066SOL    HW134512   0.575   4.811   3.228  3.5318 -2.8412  2.2852
 8066SOL    HW234513   0.606   4.943   3.295  0.7687 -0.3686 -0.9668
 8067SOL     OW34514   8.510   1.245   2.472 -0.2046  0.4258  0.3110
 8067SOL    HW134515   8.423   1.225   2.438 -0.2166  0.3516  0.3836
 8067SOL    HW234516   8.526   1.336   2.449  0.4039 -0.0394 -1.2288
 8068SOL     OW34517  12.603   1.457   2.893 -0.1888  0.2251  0.1290
 8068SOL    HW134518  12.569   1.383   2.943  2.3801 -1.5918 -0.6075
 8068SOL    HW234519  12.586   1.435   2.802  0.6952  0.4430 -0.1054
 8069SOL     OW34520   3.805   1.867  12.472  0.4751  0.2642  0.4579
 8069SOL    HW134521   3.783   1.960  12.479 -0.3856  0.0156  1.1561
 8069SOL    HW234522   3.730   1.828  12.428  0.2270 -0.3282  1.3994
 8070SOL     OW34523   3.532   2.550  10.119  0.0281 -0.3287  0.4825
 8070SOL    HW134524   3.533   2.456  10.101  0.6909 -0.3907  0.7771
 8070SOL    HW234525   3.457   2.563  10.177 -1.2235 -0.3594 -1.0679
 8071SOL     OW34526  11.986   3.970   5.366  0.0472 -0.5173 -0.0662
 8071SOL    HW134527  12.022   3.919   5.293 -4.1336 -0.7105 -2.2762
 8071SOL    HW234528  11.974   4.058   5.330 -0.9781 -0.3047  0.7471
 8072SOL     OW34529  10.920   5.690   9.378 -0.2624  0.0318 -0.0941
 8072SOL    HW134530  10.893   5.772   9.336 -0.1954 -0.1216 -0.4375
 8072SOL    HW234531  10.858   5.678   9.450  0.4437  1.0048  0.7060
 8073SOL     OW34532   2.985  11.243   4.467 -0.4887  0.1790 -0.3578
 8073SOL    HW134533   2.898  11.274   4.493 -0.1420  0.6926  0.2245
 8073SOL    HW234534   2.973  11.150   4.449 -1.3956  0.4756 -1.3986
 8074SOL     OW34535  10.483  10.604   0.109  0.1149 -0.7027 -0.2755
 8074SOL    HW134536  10.432  10.539   0.158 -1.8751  2.1586  1.7893
 8074SOL    HW234537  10.417  10.661   0.070  1.7806  0.0546 -2.2028
 8075SOL     OW34538  12.238  10.606   0.848  0.4745  0.0037 -0.5040
 8075SOL    HW134539  12.224  10.664   0.773 -0.5531 -0.2642 -0.5334
 8075SOL    HW234540  12.163  10.623   0.906  0.0504 -1.3963 -0.5927
 8076SOL     OW34541  10.228   7.595   5.221 -0.2625  0.5119 -0.1005
 8076SOL    HW134542  10.300   7.651   5.251 -0.8447  0.5938  1.2215
 8076SOL    HW234543  10.241   7.588   5.127  0.0508  2.5860 -0.2611
 8077SOL     OW34544  12.744  12.279  10.313  0.4153 -0.4186  0.1819
 8077SOL    HW134545  12.787  12.350  10.266  0.4039 -0.0237  0.7479
 8077SOL    HW234546  12.757  12.301  10.406  0.3668 -1.1261  0.3650
 8078SOL     OW34547   4.463   2.237   7.111 -0.5529 -0.1626  0.0965
 8078SOL    HW134548   4.526   2.295   7.070  1.0417 -0.9567  1.3315
 8078SOL    HW234549   4.496   2.224   7.200 -1.5870 -1.8855  0.2768
 8079SOL     OW34550  11.367   4.476   7.052 -0.1616 -0.2252  0.0663
 8079SOL    HW134551  11.343   4.407   7.114  0.3837 -0.5550 -0.0828
 8079SOL    HW234552  11.296   4.476   6.987 -0.5530 -0.1171  0.4944
 8080SOL     OW34553   0.197   8.854   8.528  0.2833 -0.7355 -0.0021
 8080SOL    HW134554   0.291   8.845   8.515  0.0739  0.1509 -2.9298
 8080SOL    HW234555   0.160   8.848   8.440 -2.0235  2.6671  0.5293
 8081SOL     OW34556   8.152   3.635   7.636 -0.2766 -0.5690  0.7513
 8081SOL    HW134557   8.215   3.706   7.645 -0.2701 -0.3034 -1.1492
 8081SOL    HW234558   8.122   3.639   7.546  0.5835 -3.6803  0.1956
 8082SOL     OW34559   0.595   2.887   4.412  0.5562  0.7296 -0.2912
 8082SOL    HW134560   0.539   2.870   4.488  0.9904 -1.8855 -0.4788
 8082SOL    HW234561   0.682   2.857   4.438  0.1925 -3.0104 -2.5924
 8083SOL     OW34562   7.422   3.734   5.266  0.0552 -0.3439  0.0117
 8083SOL    HW134563   7.469   3.757   5.346  1.1616  2.8364 -1.4020
 8083SOL    HW234564   7.490   3.723   5.200 -0.9367 -1.0953 -0.9130
 8084SOL     OW34565  12.571   8.209  11.911  0.6653 -0.0533 -0.6427
 8084SOL    HW134566  12.660   8.175  11.919  1.6045  2.5096  0.8346
 8084SOL    HW234567  12.558   8.222  11.817  1.4895 -1.2619 -0.9456
 8085SOL     OW34568   9.508   5.388   3.408  0.3686  0.4117  0.1136
 8085SOL    HW134569   9.521   5.293   3.404  0.3601  0.4535 -1.5646
 8085SOL    HW234570   9.428   5.403   3.358  0.9473  1.4009 -0.5433
 8086SOL     OW34571   6.623   1.810   3.161 -0.2799  0.5355 -0.0094
 8086SOL    HW134572   6.601   1.774   3.247 -0.8493  1.4809  0.2500
 8086SOL    HW234573   6.661   1.896   3.179  0.6736  0.2669 -0.6483
 8087SOL     OW34574   8.255  10.845   7.741  0.5773 -0.2098 -0.1109
 8087SOL    HW134575   8.343  10.867   7.710 -0.0957 -0.0554 -2.0531
 8087SOL    HW234576   8.254  10.750   7.746  0.5461 -0.2856 -1.2024
 8088SOL     OW34577   4.593   2.621   6.662  0.2937 -0.2478  0.1411
 8088SOL    HW134578   4.592   2.546   6.602 -0.7271  0.2007 -0.4344
 8088SOL    HW234579   4.564   2.695   6.608 -0.9221  0.1229  1.2351
 8089SOL     OW34580   0.753   5.501  11.261 -0.5514  0.0484 -0.1621
 8089SOL    HW134581   0.694   5.493  11.336 -2.2237  0.1145 -1.3876
 8089SOL    HW234582   0.808   5.423  11.265 -0.2581  0.3157  1.4040
 8090SOL     OW34583   3.840   6.173  10.368  0.0015 -0.2710  0.3864
 8090SOL    HW134584   3.924   6.216  10.352  0.7008 -2.0633 -1.1604
 8090SOL    HW234585   3.804   6.219  10.443  2.4523  0.4366  1.2306
 8091SOL     OW34586   0.670   9.204  10.509  0.4794 -0.6512 -0.5308
 8091SOL    HW134587   0.590   9.240  10.548 -0.5914 -0.6197 -2.6278
 8091SOL    HW234588   0.692   9.129  10.565  0.7174  1.0677  1.8076
 8092SOL     OW34589  11.034   6.610  11.050  0.3230  0.2439  0.2116
 8092SOL    HW134590  11.073   6.601  10.963 -3.5412 -1.3109 -1.5740
 8092SOL    HW234591  11.030   6.705  11.064  0.6888  0.5384 -1.4749
 8093SOL     OW34592   5.137   2.064   4.624 -0.4482  0.1110 -0.4738
 8093SOL    HW134593   5.186   2.098   4.699  0.0645 -0.1432 -0.6870
 8093SOL    HW234594   5.187   1.987   4.596 -1.7730 -1.0216  0.2084
 8094SOL     OW34595   3.299   9.335   7.868 -0.1252  0.6124  0.2052
 8094SOL    HW134596   3.333   9.339   7.958  0.0468 -0.4320  0.1991
 8094SOL    HW234597   3.206   9.358   7.877 -0.4099 -0.6618  0.8511
 8095SOL     OW34598   3.636   4.133   8.331  0.4459 -0.1731 -0.4041
 8095SOL    HW134599   3.599   4.064   8.386 -2.5199 -0.2421 -2.2466
 8095SOL    HW234600   3.577   4.138   8.256  1.3800  3.3660 -1.0999
 8096SOL     OW34601   4.122   3.065   9.852 -0.6683  0.0609  0.3560
 8096SOL    HW134602   4.034   3.090   9.879 -0.3244  0.6889  0.9291
 8096SOL    HW234603   4.133   2.976   9.885 -0.5055  0.5695  1.7471
 8097SOL     OW34604   5.882   5.696   9.001  0.2296 -0.3373  0.1251
 8097SOL    HW134605   5.950   5.737   8.948  1.2872  0.3364  1.8964
 8097SOL    HW234606   5.801   5.738   8.972  1.2203  3.1710  1.7833
 8098SOL     OW34607  10.434   5.786   6.937 -0.3863 -0.1325  0.0002
 8098SOL    HW134608  10.507   5.730   6.907 -0.8455 -0.1366 -1.1834
 8098SOL    HW234609  10.473   5.842   7.004  0.1388 -1.7064  1.0567
 8099SOL     OW34610   7.667   1.449   5.346  0.2302  0.1878  0.6222
 8099SOL    HW134611   7.686   1.500   5.426  0.1156  0.7297  0.3099
 8099SOL    HW234612   7.738   1.473   5.286 -0.2373  0.5474  0.2116
 8100SOL     OW34613  12.297   3.921  12.787 -0.2902 -0.0627  0.2345
 8100SOL    HW134614  12.207   3.902  12.760 -0.9876  0.9793  1.6986
 8100SOL    HW234615  12.328   3.839  12.826 -0.9415 -0.1485  0.5778
 8101SOL     OW34616  10.840   4.582   5.024 -0.0673  0.0737  0.0705
 8101SOL    HW134617  10.861   4.593   5.117 -1.1665  0.1652  0.3196
 8101SOL    HW234618  10.847   4.487   5.010 -1.4489 -0.1434  0.6561
 8102SOL     OW34619   1.707   8.409   7.267  0.1151  0.4480 -0.4641
 8102SOL    HW134620   1.771   8.390   7.335 -0.1193 -0.8506 -0.5855
 8102SOL    HW234621   1.759   8.426   7.189  0.3421  0.5816 -0.2830
 8103SOL     OW34622  10.694   5.412  12.149 -0.5986  0.1672 -0.3037
 8103SOL    HW134623  10.673   5.321  12.128  0.0645  0.2682 -1.4947
 8103SOL    HW234624  10.610   5.452  12.171 -0.8840 -0.7490  0.3032
 8104SOL     OW34625   3.146  11.069  10.409  0.3161  0.7034 -0.6814
 8104SOL    HW134626   3.145  11.151  10.457 -0.0557  0.3526 -0.0812
 8104SOL    HW234627   3.115  11.092  10.321 -0.8301  1.0096 -0.2002
 8105SOL     OW34628   9.949   7.301   6.824 -0.0772 -0.0452  0.1458
 8105SOL    HW134629   9.996   7.310   6.907  0.0460  0.4428  0.0276
 8105SOL    HW234630  10.018   7.293   6.758 -0.1299  1.1406 -0.0822
 8106SOL     OW34631   9.026  12.248  11.337 -0.1162 -0.5913 -0.2998
 8106SOL    HW134632   9.026  12.206  11.251  0.7580  1.7393 -1.5246
 8106SOL    HW234633   9.072  12.331  11.323  0.2876 -0.2546  2.4923
 8107SOL     OW34634   3.709   5.877   1.551 -0.2487 -0.4175  0.0419
 8107SOL    HW134635   3.804   5.888   1.550 -0.3018  1.1250 -3.4525
 8107SOL    HW234636   3.691   5.830   1.632  3.3358  0.3466  1.4721
 8108SOL     OW34637  10.943   6.666   1.183  0.2365  0.0966  0.1815
 8108SOL    HW134638  10.944   6.610   1.106 -2.0780 -0.6273  0.6170
 8108SOL    HW234639  11.006   6.625   1.243 -0.2123 -1.1011 -0.1369
 8109SOL     OW34640  11.043   7.082   6.898 -0.0308 -0.3346  0.0583
 8109SOL    HW134641  11.025   7.049   6.810 -0.6380 -0.7677  0.3385
 8109SOL    HW234642  10.959   7.113   6.930  0.4889  1.3045 -0.1057
 8110SOL     OW34643   7.751  11.115   6.122  0.0329  0.1408 -0.4600
 8110SOL    HW134644   7.700  11.182   6.168 -0.4427 -1.2519  1.1100
 8110SOL    HW234645   7.832  11.160   6.098  0.0267  1.1123  1.1890
 8111SOL     OW34646  11.595   0.986   8.744 -0.2081  0.4206  0.6930
 8111SOL    HW134647  11.585   1.070   8.789 -0.6015  0.2341  0.9578
 8111SOL    HW234648  11.674   0.947   8.782  0.9755  1.4135 -0.6298
 8112SOL     OW34649  12.944   1.966   6.479  0.3942  0.4128  0.1428
 8112SOL    HW134650  12.966   1.881   6.441  0.6792  0.3869  0.3660
 8112SOL    HW234651  12.849   1.962   6.494  0.6347 -0.4636  1.6247
 8113SOL     OW34652   8.161  12.556   8.940 -0.0648  0.0703  0.4624
 8113SOL    HW134653   8.118  12.621   8.996 -0.1040 -0.7541  1.4179
 8113SOL    HW234654   8.237  12.527   8.990  0.9182  0.5996 -0.6835
 8114SOL     OW34655  10.180   2.545  10.159  0.4686  0.2942 -0.0378
 8114SOL    HW134656  10.112   2.554  10.226 -0.4397  0.1734 -0.9294
 8114SOL    HW234657  10.157   2.609  10.092  1.6598  0.7750 -0.0113
 8115SOL     OW34658   4.163   0.569   3.413  0.6091 -0.0120  0.4378
 8115SOL    HW134659   4.135   0.594   3.324 -0.4563 -1.0407  0.4550
 8115SOL    HW234660   4.254   0.542   3.403  0.4823 -0.1769 -0.3594
 8116SOL     OW34661   6.033   1.137   4.603 -0.4823 -0.3397 -0.3131
 8116SOL    HW134662   6.042   1.222   4.559  0.5388 -0.1429  0.2451
 8116SOL    HW234663   5.976   1.086   4.545  2.3838 -0.7982 -2.9773
 8117SOL     OW34664   9.039   9.125   9.721  0.2387 -0.0027 -0.0549
 8117SOL    HW134665   9.126   9.093   9.746  0.2585 -0.4457 -0.6824
 8117SOL    HW234666   9.036   9.116   9.626 -0.6317 -0.3446 -0.0036
 8118SOL     OW34667   2.462   0.169  10.280  0.4389 -1.0702 -0.0283
 8118SOL    HW134668   2.550   0.149  10.249  0.3593 -2.6451  0.6309
 8118SOL    HW234669   2.475   0.207  10.367  0.5041 -0.3284 -0.3601
 8119SOL     OW34670   0.190   3.145  11.372  0.0888 -0.0683 -0.2042
 8119SOL    HW134671   0.118   3.200  11.341 -0.0757 -0.6233 -0.8097
 8119SOL    HW234672   0.269   3.194  11.349  0.0790 -1.3437 -3.3613
 8120SOL     OW34673  12.620   3.409   7.241  0.4667  0.3213  0.3017
 8120SOL    HW134674  12.673   3.396   7.163 -0.6136  0.8973 -0.5520
 8120SOL    HW234675  12.609   3.504   7.248 -1.2310  0.1998 -0.1171
 8121SOL     OW34676  12.121  12.951  11.347 -0.0689  0.4328 -0.0414
 8121SOL    HW134677  12.033  12.931  11.315 -0.3546  2.6097 -0.8062
 8121SOL    HW234678  12.171  12.871  11.331 -1.1892  0.0996 -2.3454
 8122SOL     OW34679   2.693   1.542   7.959 -0.0147 -0.0839 -0.1380
 8122SOL    HW134680   2.767   1.488   7.931 -0.7721 -1.6130  0.7102
 8122SOL    HW234681   2.694   1.616   7.898  1.2335 -0.8834 -1.1628
 8123SOL     OW34682   2.595   4.431   7.470  0.0021 -0.2415 -0.1326
 8123SOL    HW134683   2.606   4.342   7.501  2.8910  0.2561  0.6460
 8123SOL    HW234684   2.649   4.484   7.529  0.6843  1.5994 -2.2334
 8124SOL     OW34685  12.219   2.670   2.484  0.0496  0.1163  0.1353
 8124SOL    HW134686  12.224   2.609   2.411 -1.0208 -2.3097  1.9845
 8124SOL    HW234687  12.297   2.651   2.537 -0.1240  0.5749  0.5662
 8125SOL     OW34688   9.741   1.937   6.268 -0.7204 -0.1011 -0.0919
 8125SOL    HW134689   9.801   1.894   6.208 -1.0884  0.6727 -1.0226
 8125SOL    HW234690   9.794   1.958   6.345  0.4405  1.3631 -1.2463
 8126SOL     OW34691   6.927  12.469  10.745 -0.1474  0.0211  0.3967
 8126SOL    HW134692   6.900  12.395  10.691  0.3799 -0.7285  1.1352
 8126SOL    HW234693   6.861  12.537  10.728  0.7496  0.3391 -2.2346
 8127SOL     OW34694   2.918  12.333   2.721  0.1779 -0.0338  0.1460
 8127SOL    HW134695   2.902  12.256   2.775  0.7137 -0.2996 -0.0687
 8127SOL    HW234696   2.921  12.406   2.783 -0.3527 -0.1794  0.3461
 8128SOL     OW34697   2.121  10.972   5.201  0.4067 -0.1002 -0.0230
 8128SOL    HW134698   2.088  10.897   5.251 -1.6559  0.1279 -0.9650
 8128SOL    HW234699   2.140  10.936   5.115 -2.7549  0.7674 -1.2200
 8129SOL     OW34700  10.419   2.397   8.784 -0.1007  0.6214 -0.3340
 8129SOL    HW134701  10.440   2.484   8.817  0.9126  0.2512  0.0314
 8129SOL    HW234702  10.419   2.341   8.861  2.0980 -0.2142 -0.8622
 8130SOL     OW34703   2.934   9.746  11.263  0.2455  0.0104 -0.1601
 8130SOL    HW134704   2.938   9.664  11.313 -2.5300 -0.1467 -0.0656
 8130SOL    HW234705   3.020   9.753  11.221  0.9389 -2.3551  0.7298
 8131SOL     OW34706   1.357   5.085   3.420 -0.2824 -0.0776  0.4415
 8131SOL    HW134707   1.433   5.122   3.465 -1.4974  1.0474  1.6444
 8131SOL    HW234708   1.300   5.159   3.403 -0.3608 -0.6235 -2.1037
 8132SOL     OW34709   1.223  11.645   8.655  0.2818 -0.5454  0.2383
 8132SOL    HW134710   1.226  11.558   8.694  1.1701  0.6390  3.0879
 8132SOL    HW234711   1.133  11.657   8.626 -0.3314 -1.6954  1.6041
 8133SOL     OW34712   1.216   4.252   4.277  0.1358  0.0825  0.2917
 8133SOL    HW134713   1.179   4.188   4.337  0.2932 -0.3138 -0.0359
 8133SOL    HW234714   1.141   4.305   4.249  0.1775  0.7934  1.4663
 8134SOL     OW34715   3.272  12.085   0.044 -0.0813 -0.0318  0.2496
 8134SOL    HW134716   3.221  12.137   0.107  1.7842  2.2961  0.0037
 8134SOL    HW234717   3.248  12.122  -0.041  0.1443 -0.6160 -0.0687
 8135SOL     OW34718  11.103   8.351   0.067  0.6178 -0.1523  0.5614
 8135SOL    HW134719  11.175   8.413   0.084 -0.2816  0.2073  3.7309
 8135SOL    HW234720  11.026   8.392   0.106 -0.5593 -2.1521  0.4786
 8136SOL     OW34721   9.765   1.751   0.217  0.0524  0.1698  0.2789
 8136SOL    HW134722   9.709   1.823   0.245 -3.1045 -2.0676  0.2749
 8136SOL    HW234723   9.736   1.677   0.270  0.9622 -1.8169 -1.8554
 8137SOL     OW34724   0.575   9.626   8.602  0.4092  0.0374  0.0627
 8137SOL    HW134725   0.642   9.562   8.627  0.4274 -0.4196 -1.1127
 8137SOL    HW234726   0.614   9.711   8.625  1.2098 -0.2535 -0.1846
 8138SOL     OW34727   0.234   2.621  11.937 -0.1049  0.0152 -0.0151
 8138SOL    HW134728   0.253   2.614  11.844 -0.3478  0.9105 -0.1403
 8138SOL    HW234729   0.259   2.711  11.960  0.5532 -0.3893  0.9237
 8139SOL     OW34730   2.474   3.666   5.738 -0.1450  0.1738 -0.6879
 8139SOL    HW134731   2.489   3.574   5.714 -0.7378 -0.2892  0.6114
 8139SOL    HW234732   2.557   3.695   5.776  0.3295  0.4646 -1.9201
 8140SOL     OW34733  11.258   1.282  11.613  0.5345 -0.2172  0.1388
 8140SOL    HW134734  11.275   1.199  11.569 -2.3096 -2.2014  2.3753
 8140SOL    HW234735  11.201   1.330  11.552  0.4454 -0.8516 -0.2840
 8141SOL     OW34736   4.510  11.442   1.031  0.1673 -0.0006 -0.2998
 8141SOL    HW134737   4.554  11.434   1.116  0.7409 -1.0390 -0.6737
 8141SOL    HW234738   4.427  11.485   1.051  0.8910  1.0376  0.5741
 8142SOL     OW34739   0.700   1.129   0.344  0.0450  0.0231  0.3128
 8142SOL    HW134740   0.621   1.077   0.328 -0.1804  0.0976  1.1125
 8142SOL    HW234741   0.680   1.178   0.424  0.2309  1.3890 -0.4518
 8143SOL     OW34742   5.657   3.418   0.856  0.1915 -0.4001  0.7190
 8143SOL    HW134743   5.643   3.324   0.858  0.3429 -0.4094  1.4152
 8143SOL    HW234744   5.589   3.451   0.796  1.8565 -1.2240 -1.8023
 8144SOL     OW34745   4.083  12.779   2.459 -0.2022  0.1766  0.0187
 8144SOL    HW134746   4.147  12.843   2.489  0.4583 -0.9611  1.1536
 8144SOL    HW234747   4.042  12.746   2.539  0.2138 -1.5418 -0.4263
 8145SOL     OW34748   8.369  10.579   4.353 -1.0819  0.1613 -0.0252
 8145SOL    HW134749   8.464  10.574   4.345 -1.0887  1.1340 -0.9922
 8145SOL    HW234750   8.352  10.566   4.446  0.2011  2.4532  0.6055
 8146SOL     OW34751   7.911  12.399   4.244 -0.0655 -0.3957  0.4848
 8146SOL    HW134752   7.838  12.350   4.206  0.1033 -0.0299 -0.3440
 8146SOL    HW234753   7.916  12.369   4.335 -0.5523 -1.2179  0.2492
 8147SOL     OW34754   2.465   0.798   6.382  0.1717 -0.5621  0.0143
 8147SOL    HW134755   2.503   0.886   6.379 -0.3293 -0.3750 -2.1116
 8147SOL    HW234756   2.438   0.788   6.473  0.0547  1.5738  0.2744
 8148SOL     OW34757   3.114  12.242  12.878 -0.2543  0.1440  0.7812
 8148SOL    HW134758   3.139  12.304  12.809 -3.6184  2.2699  1.2292
 8148SOL    HW234759   3.039  12.195  12.842 -0.6828 -0.2805  2.1750
 8149SOL     OW34760   2.583   9.645  12.450 -0.5337 -0.0103 -0.3584
 8149SOL    HW134761   2.621   9.624  12.365 -0.7521  2.4533 -1.1402
 8149SOL    HW234762   2.657   9.671  12.504 -0.5837  0.1859 -0.3828
 8150SOL     OW34763  11.116  11.376   7.549  0.1452 -0.7456 -0.0041
 8150SOL    HW134764  11.140  11.460   7.588  1.0612 -1.1723  0.3707
 8150SOL    HW234765  11.052  11.339   7.610  0.0403 -0.4982  0.0359
 8151SOL     OW34766  11.154   1.974   1.325  0.0680 -0.0359 -1.1169
 8151SOL    HW134767  11.073   1.971   1.374 -0.2626  0.2497 -1.6363
 8151SOL    HW234768  11.182   1.883   1.318 -1.2841 -0.3816 -2.6745
 8152SOL     OW34769   0.095  10.880   4.090 -0.1463  0.6472 -0.0287
 8152SOL    HW134770   0.167  10.837   4.044 -1.0483  0.7959 -1.6290
 8152SOL    HW234771   0.128  10.968   4.109 -0.1160  0.9330 -1.3310
 8153SOL     OW34772   3.556   3.851  11.743  0.1087  0.0024  0.3554
 8153SOL    HW134773   3.497   3.891  11.807  2.6274  0.3281  2.6341
 8153SOL    HW234774   3.578   3.765  11.780  1.3174  0.0214 -0.2567
 8154SOL     OW34775  11.265   0.457   0.851  0.5493  0.1369  0.1859
 8154SOL    HW134776  11.334   0.445   0.785 -0.4172 -0.3759 -0.7610
 8154SOL    HW234777  11.239   0.368   0.874  1.3392  0.2853  1.8021
 8155SOL     OW34778   4.162   6.087   8.179 -0.1850  0.3302 -0.0672
 8155SOL    HW134779   4.223   6.044   8.119 -0.1255  1.6608 -0.9965
 8155SOL    HW234780   4.154   6.026   8.252  0.4641 -0.9155 -0.9909
 8156SOL     OW34781   0.396   2.982   2.214  0.2168  0.4333  0.6003
 8156SOL    HW134782   0.354   2.933   2.143 -1.2544  1.5936  0.6251
 8156SOL    HW234783   0.462   2.922   2.248 -0.6768 -1.0520 -0.1721
 8157SOL     OW34784   2.440   7.614   1.595 -0.4092 -0.1325  0.1386
 8157SOL    HW134785   2.371   7.566   1.641  0.3735 -1.4111  0.0514
 8157SOL    HW234786   2.423   7.706   1.615 -1.6399 -0.4733  0.7913
 8158SOL     OW34787   1.354  11.666   0.489 -0.0768  0.0387 -0.6966
 8158SOL    HW134788   1.328  11.715   0.567  0.5767  0.4850 -0.7470
 8158SOL    HW234789   1.292  11.593   0.484 -1.1507  0.9359 -0.6986
 8159SOL     OW34790   9.134   7.404   2.807 -0.0535  0.3707  0.0836
 8159SOL    HW134791   9.158   7.450   2.726 -0.5197  1.2235  0.4213
 8159SOL    HW234792   9.095   7.472   2.862  2.4424  0.3823  2.0123
 8160SOL     OW34793   8.868  10.906   0.260 -0.2542  0.2601 -0.0379
 8160SOL    HW134794   8.916  10.988   0.252 -1.5026  1.0588  0.3662
 8160SOL    HW234795   8.784  10.923   0.216  0.0642 -1.3290 -1.3941
 8161SOL     OW34796   9.176  10.554   3.785 -0.2756 -0.2930  0.2283
 8161SOL    HW134797   9.268  10.580   3.782 -0.8139  1.9295  1.1847
 8161SOL    HW234798   9.167  10.504   3.866 -0.3315  1.4498  1.3389
 8162SOL     OW34799   4.353   3.966   3.123 -0.2426 -0.1903 -0.4689
 8162SOL    HW134800   4.331   4.053   3.092 -0.3975 -0.5841 -1.4977
 8162SOL    HW234801   4.448   3.960   3.113 -0.5064 -1.1672 -3.2867
 8163SOL     OW34802   1.348   0.394  10.206  0.5090 -0.1826  0.0675
 8163SOL    HW134803   1.385   0.404  10.294  1.4480  0.8544 -0.4289
 8163SOL    HW234804   1.309   0.479  10.187 -1.4492 -0.9735  0.2233
 8164SOL     OW34805   9.601  10.658   5.942 -0.6046 -0.0404 -0.6675
 8164SOL    HW134806   9.678  10.678   5.997 -2.0083  2.4734  0.5667
 8164SOL    HW234807   9.573  10.572   5.972  0.1839  0.1642  0.7740
 8165SOL     OW34808   4.532   2.754   3.132 -0.3411 -0.3924 -0.2472
 8165SOL    HW134809   4.623   2.731   3.113 -0.3834  0.1533 -1.1458
 8165SOL    HW234810   4.485   2.671   3.129 -0.1127 -0.4918 -1.2027
 8166SOL     OW34811  10.987   2.599   3.879  0.1899 -0.3210  0.5001
 8166SOL    HW134812  10.974   2.652   3.800 -1.3495 -0.9218  0.3188
 8166SOL    HW234813  10.951   2.513   3.856  0.1113 -0.6333  1.7268
 8167SOL     OW34814   6.376   0.402   6.482 -0.0545 -0.7657  0.0131
 8167SOL    HW134815   6.294   0.383   6.527 -0.1268  0.0389  0.2467
 8167SOL    HW234816   6.365   0.363   6.395 -1.1991  0.3887 -0.3977
 8168SOL     OW34817  10.141   8.273   1.822 -0.6213  0.3389 -0.6083
 8168SOL    HW134818  10.173   8.332   1.890  2.2287  0.3790 -1.8169
 8168SOL    HW234819  10.118   8.192   1.868  0.5701  0.6019  0.5198
 8169SOL     OW34820   7.516   2.730   7.541 -0.6266  0.4065 -0.3147
 8169SOL    HW134821   7.531   2.658   7.602  2.9139  0.5528 -0.8346
 8169SOL    HW234822   7.460   2.692   7.473 -0.0618 -1.4191  0.1880
 8170SOL     OW34823   5.550   9.846  11.992  0.0863  0.0422  0.4682
 8170SOL    HW134824   5.588   9.924  12.034  2.9753  0.1494 -2.0020
 8170SOL    HW234825   5.457   9.865  11.986  0.3322  2.1982  2.1930
 8171SOL     OW34826   6.350   7.506   3.333  0.2519  0.3513 -0.2166
 8171SOL    HW134827   6.355   7.601   3.339 -1.6982  0.4232  1.7045
 8171SOL    HW234828   6.363   7.476   3.423  0.2746 -1.1559 -0.6913
 8172SOL     OW34829  12.143   1.017   1.765  0.2726  0.3208  0.2401
 8172SOL    HW134830  12.143   1.080   1.838  1.3956 -0.2783  0.7823
 8172SOL    HW234831  12.234   1.013   1.737  0.2163 -1.0211  0.1792
 8173SOL     OW34832  12.678   5.007   2.475  0.0214  0.3631  0.2807
 8173SOL    HW134833  12.727   4.925   2.478 -0.1425  0.2888  1.9137
 8173SOL    HW234834  12.613   4.999   2.545 -0.7949  1.4031 -0.3257
 8174SOL     OW34835   7.477   0.119   2.873  0.3156  0.7521  0.3368
 8174SOL    HW134836   7.566   0.086   2.856  0.6953  0.5766  2.4141
 8174SOL    HW234837   7.423   0.076   2.807  1.5067 -0.4908  0.1138
 8175SOL     OW34838  12.271   8.020   4.480 -0.7161  0.2085 -0.1675
 8175SOL    HW134839  12.283   7.956   4.409  0.7885  1.2114 -0.8635
 8175SOL    HW234840  12.358   8.032   4.518 -1.6501 -1.0858  2.6316
 8176SOL     OW34841   3.104   1.449   1.748 -0.0627  0.1953  0.1506
 8176SOL    HW134842   3.064   1.420   1.830  0.9314 -0.0674  0.5571
 8176SOL    HW234843   3.163   1.378   1.724  0.1990  0.5955 -0.4108
 8177SOL     OW34844   4.940  12.087  11.713 -0.3094 -0.3506 -0.4593
 8177SOL    HW134845   4.907  12.154  11.773 -0.0766 -1.1051  0.5347
 8177SOL    HW234846   4.892  12.007  11.737  1.9172 -1.3965  0.7865
 8178SOL     OW34847  10.378   6.577   9.466 -0.0258  0.3862 -0.6294
 8178SOL    HW134848  10.452   6.523   9.437  0.5915  1.0977 -0.4019
 8178SOL    HW234849  10.417   6.643   9.522 -0.8576  0.7180 -0.4288
 8179SOL     OW34850  10.951  12.789   8.491  0.1488  0.1012  0.8808
 8179SOL    HW134851  10.860  12.791   8.519  0.4877 -0.9815  2.2016
 8179SOL    HW234852  10.974  12.696   8.492  1.1043  0.3059 -0.0334
 8180SOL     OW34853   0.581   5.255   4.324  0.3142  0.3484 -0.3879
 8180SOL    HW134854   0.593   5.280   4.416  0.8345  0.0049 -0.3599
 8180SOL    HW234855   0.664   5.278   4.282 -0.0096  0.7268 -0.8251
 8181SOL     OW34856  11.026  11.399   3.032 -0.0921  0.0473 -0.3669
 8181SOL    HW134857  11.023  11.495   3.040  0.2922 -0.0450  1.2348
 8181SOL    HW234858  10.941  11.375   2.995  0.3759  1.0910 -2.2938
 8182SOL     OW34859   0.171   4.018   3.740 -0.0773  0.3756 -0.4453
 8182SOL    HW134860   0.149   4.111   3.749 -1.8507  0.0102 -0.4898
 8182SOL    HW234861   0.179   4.004   3.646 -1.4791  0.1865 -0.5672
 8183SOL     OW34862   7.118  10.207   4.792 -0.1313 -0.0964 -0.3594
 8183SOL    HW134863   7.128  10.191   4.886  0.3565 -2.3892 -0.7258
 8183SOL    HW234864   7.052  10.143   4.764  0.3479 -0.0432 -1.6977
 8184SOL     OW34865   5.841   6.295   3.991  0.0620  0.2521  0.7566
 8184SOL    HW134866   5.872   6.275   3.903  0.3814  0.6790  0.7661
 8184SOL    HW234867   5.921   6.301   4.044 -0.1826 -1.0394  1.3055
 8185SOL     OW34868   2.843   6.441   2.367 -0.1332 -0.1233 -0.7991
 8185SOL    HW134869   2.874   6.458   2.456  0.6354 -0.8660 -0.9192
 8185SOL    HW234870   2.883   6.510   2.314  1.0588 -0.8699 -0.8965
 8186SOL     OW34871   1.114  10.291   0.054 -0.5471 -0.5802  0.2226
 8186SOL    HW134872   1.175  10.222   0.026 -0.9336 -0.7783 -0.1377
 8186SOL    HW234873   1.040  10.284  -0.006 -1.0906 -0.5700  0.8800
 8187SOL     OW34874  11.952   4.951   7.181 -0.1818 -0.3409  0.4704
 8187SOL    HW134875  11.892   4.910   7.119  0.7522  0.4474 -1.0276
 8187SOL    HW234876  11.901   4.963   7.261 -2.1308  0.6093 -0.8459
 8188SOL     OW34877   1.720   9.250   8.691 -0.4330  0.2639  0.0262
 8188SOL    HW134878   1.696   9.158   8.680 -0.1378  0.1602  0.2442
 8188SOL    HW234879   1.791   9.264   8.628  0.2467  0.0583  0.7266
 8189SOL     OW34880   3.184   6.255   7.270 -0.4158 -0.0737  0.7832
 8189SOL    HW134881   3.144   6.216   7.348 -0.2751 -0.0390  0.8724
 8189SOL    HW234882   3.112   6.300   7.227 -0.4762 -0.0214  0.9387
 8190SOL     OW34883   2.904   8.653   3.425  0.0063 -0.6413  0.3056
 8190SOL    HW134884   2.957   8.684   3.352  0.2092 -0.6303  0.4577
 8190SOL    HW234885   2.896   8.730   3.483 -1.1503 -0.3000 -0.2783
 8191SOL     OW34886   3.118   4.892  10.102 -0.2263  0.1796 -0.0078
 8191SOL    HW134887   3.071   4.975  10.093 -0.1647  0.1674 -0.4819
 8191SOL    HW234888   3.134   4.883  10.196  0.6990  1.2172 -0.0493
 8192SOL     OW34889   7.799   4.531   2.767  0.1933  0.0154  0.5232
 8192SOL    HW134890   7.822   4.610   2.718 -0.6487 -0.6559 -1.0039
 8192SOL    HW234891   7.707   4.517   2.748  0.7066 -2.2458 -0.5888
 8193SOL     OW34892   4.195   8.154   9.426 -0.2168 -0.0434  0.6095
 8193SOL    HW134893   4.282   8.184   9.397  0.5250 -2.4103  0.2075
 8193SOL    HW234894   4.137   8.173   9.352  0.3889 -0.3320  0.0538
 8194SOL     OW34895   7.885  11.062  10.198 -0.0569 -0.0936  0.5627
 8194SOL    HW134896   7.936  11.026  10.271 -0.0893 -0.3517  0.4556
 8194SOL    HW234897   7.799  11.079  10.235  0.0548  0.1860  0.7000
 8195SOL     OW34898   3.924  12.487  11.058  0.7399  0.4755 -0.0955
 8195SOL    HW134899   3.954  12.423  11.123 -0.1553  0.6534  0.5030
 8195SOL    HW234900   3.973  12.567  11.078  0.1863  0.6466  0.6218
 8196SOL     OW34901  11.755  12.980   1.026  1.3252  0.3527 -0.1246
 8196SOL    HW134902  11.765  12.948   0.937  2.4323 -1.8606  0.7141
 8196SOL    HW234903  11.840  12.961   1.068  0.7702  1.1499  1.4376
 8197SOL     OW34904   1.182  12.040   6.045  0.2218  0.0606 -0.0815
 8197SOL    HW134905   1.188  12.126   6.002 -2.9403  0.4077 -0.0821
 8197SOL    HW234906   1.247  12.044   6.115  1.5458  1.6513 -1.3019
 8198SOL     OW34907  11.241  11.397   6.856 -0.5767  0.3120  0.3971
 8198SOL    HW134908  11.255  11.448   6.776  1.3173 -2.0822 -0.9355
 8198SOL    HW234909  11.305  11.432   6.918 -0.0258  0.2741 -0.1405
 8199SOL     OW34910   5.393   1.177   4.187  0.6294  0.2161  0.2132
 8199SOL    HW134911   5.321   1.164   4.125  2.1022  0.3906 -1.6281
 8199SOL    HW234912   5.375   1.263   4.225 -1.2951 -0.6809  1.4871
 8200SOL     OW34913   7.660   2.167   0.951 -0.4466  0.0460  0.3477
 8200SOL    HW134914   7.577   2.123   0.933  0.3873 -0.7453 -2.0506
 8200SOL    HW234915   7.713   2.102   0.996 -0.5715 -0.0074  0.4180
 8201SOL     OW34916   1.220   7.536   9.537 -0.1837  0.1633  0.1816
 8201SOL    HW134917   1.303   7.507   9.500  0.7790  1.6845  1.0100
 8201SOL    HW234918   1.208   7.483   9.616 -0.7475 -1.0435 -0.6955
 8202SOL     OW34919  11.484   9.483   7.298 -0.6854 -0.2095 -0.3813
 8202SOL    HW134920  11.460   9.571   7.270  1.5430  1.0377  1.2528
 8202SOL    HW234921  11.580   9.484   7.300 -0.4481 -3.4625 -2.5119
 8203SOL     OW34922   6.238  11.473   1.339 -0.0236  0.3613  0.0359
 8203SOL    HW134923   6.159  11.423   1.359 -0.9597  1.6393 -0.2618
 8203SOL    HW234924   6.233  11.550   1.397 -0.3134  1.6918 -1.6588
 8204SOL     OW34925   1.680  11.672  11.792  0.5428 -0.2885 -0.1977
 8204SOL    HW134926   1.721  11.734  11.732 -1.9001 -0.1540 -1.8866
 8204SOL    HW234927   1.587  11.695  11.791  0.0946 -1.6796  1.9982
 8205SOL     OW34928   6.365   1.497   6.607  0.0571  0.2892 -0.2157
 8205SOL    HW134929   6.374   1.572   6.548  1.7902 -0.9485 -1.6622
 8205SOL    HW234930   6.340   1.425   6.549  0.1928 -0.6351  0.8399
 8206SOL     OW34931   6.935   7.929   7.733 -0.1297  0.3252 -0.1035
 8206SOL    HW134932   6.917   7.944   7.826 -0.9194  0.7453 -0.3183
 8206SOL    HW234933   7.029   7.911   7.729 -0.2414 -0.5814  0.8875
 8207SOL     OW34934   4.100   0.267   5.572 -1.1645 -0.4176 -0.6482
 8207SOL    HW134935   4.175   0.320   5.601 -0.0652 -1.9720 -0.5093
 8207SOL    HW234936   4.037   0.273   5.643 -0.9817  0.5186 -0.5500
 8208SOL     OW34937  10.002   9.238   4.648 -0.2846 -0.2912  0.2200
 8208SOL    HW134938  10.083   9.273   4.685  0.3433 -2.6668  1.2909
 8208SOL    HW234939  10.005   9.262   4.556  0.5882  1.4624  0.6655
 8209SOL     OW34940   1.829   2.145   8.111  0.1588 -0.2672  0.0620
 8209SOL    HW134941   1.743   2.185   8.123  1.0930  1.6387  0.9047
 8209SOL    HW234942   1.845   2.151   8.017  0.3087  1.5373  0.1648
 8210SOL     OW34943   0.855   0.047  10.585 -0.0167 -0.2361  0.0211
 8210SOL    HW134944   0.896   0.133  10.594  1.1939 -0.9030  1.5612
 8210SOL    HW234945   0.927  -0.011  10.561 -0.4820 -1.0704  0.5905
 8211SOL     OW34946   5.221   9.981   6.366 -0.0649  0.3421  0.0043
 8211SOL    HW134947   5.230   9.947   6.454  0.3955 -0.3159 -0.2928
 8211SOL    HW234948   5.287  10.050   6.359  0.6604 -0.3569 -0.1806
 8212SOL     OW34949   5.879   3.660   7.557 -0.2931 -0.3517 -0.2456
 8212SOL    HW134950   5.798   3.615   7.579  0.1597 -0.7452  0.6669
 8212SOL    HW234951   5.945   3.591   7.554  0.4845  0.2465  1.5519
 8213SOL     OW34952  11.302   1.984   6.504  0.1105  0.3581 -0.0404
 8213SOL    HW134953  11.207   1.975   6.498  0.2735 -1.0212 -0.9552
 8213SOL    HW234954  11.317   2.017   6.593 -1.2580  1.4260 -0.1737
 8214SOL     OW34955   9.800   7.724   2.407  0.0178 -0.2965 -0.0841
 8214SOL    HW134956   9.751   7.671   2.344 -0.7266  1.9638 -1.5408
 8214SOL    HW234957   9.783   7.682   2.491 -4.2871  0.1228 -0.5083
 8215SOL     OW34958  11.774   9.923   2.022 -0.5803  0.1450  0.1041
 8215SOL    HW134959  11.830   9.846   2.032  0.5946  0.9730  0.1333
 8215SOL    HW234960  11.792   9.976   2.099 -0.4280  1.0248 -0.5260
 8216SOL     OW34961   6.102   1.145  12.652  0.7058 -0.5452 -0.8446
 8216SOL    HW134962   6.113   1.221  12.594  0.2601 -0.8496 -1.3457
 8216SOL    HW234963   6.022   1.102  12.619 -0.9829  0.5906  1.4596
 8217SOL     OW34964   3.114  11.977   6.601 -0.2814 -0.2015 -0.1259
 8217SOL    HW134965   3.131  12.071   6.595 -1.6745  0.1727  1.1307
 8217SOL    HW234966   3.201  11.936   6.598  0.2903  1.0410 -1.5613
 8218SOL     OW34967   8.617   6.858   2.863  0.0539 -0.1401  0.1033
 8218SOL    HW134968   8.657   6.862   2.776  0.4646 -0.4381  0.2751
 8218SOL    HW234969   8.682   6.812   2.917 -1.0594 -1.7830  0.1027
 8219SOL     OW34970  10.541   0.746   6.912 -0.2974 -0.5495 -0.1308
 8219SOL    HW134971  10.609   0.738   6.846  0.1187 -3.0227  0.5167
 8219SOL    HW234972  10.463   0.708   6.872 -1.1830  1.6354 -0.6116
 8220SOL     OW34973   1.693   7.433   2.544  0.7335 -0.1328 -0.0050
 8220SOL    HW134974   1.728   7.402   2.628 -1.3852 -0.6539  0.7663
 8220SOL    HW234975   1.706   7.528   2.547 -1.3365  0.1803  2.0256
 8221SOL     OW34976   2.380   4.722   7.366 -0.6375  0.2022 -0.1278
 8221SOL    HW134977   2.417   4.645   7.409 -1.4292  0.2021  0.5979
 8221SOL    HW234978   2.333   4.768   7.436 -3.6658 -0.8273 -1.3175
 8222SOL     OW34979  10.709  10.842   4.468 -0.1809  0.2389 -0.6578
 8222SOL    HW134980  10.797  10.842   4.506 -0.5656  0.3921  0.2700
 8222SOL    HW234981  10.659  10.901   4.524 -0.9217  0.0195 -1.0738
 8223SOL     OW34982  12.286   0.434   3.264 -0.3933 -0.5181  0.0059
 8223SOL    HW134983  12.322   0.347   3.280  0.7248 -0.1307 -0.2538
 8223SOL    HW234984  12.230   0.423   3.187  1.1198 -0.7013 -1.1205
 8224SOL     OW34985   5.096   8.520   0.780 -0.3922  0.1968  0.0383
 8224SOL    HW134986   5.150   8.599   0.774  0.5022 -0.1589  2.3167
 8224SOL    HW234987   5.050   8.516   0.696 -0.0379  2.8029 -0.3660
 8225SOL     OW34988   5.937   1.113   5.107 -0.0204  0.1211  0.2360
 8225SOL    HW134989   5.909   1.165   5.032 -2.2337  0.3706  1.1510
 8225SOL    HW234990   5.914   1.023   5.085  1.0345 -0.0890 -0.0982
 8226SOL     OW34991   2.743   9.983  10.980  0.2906  0.0385  0.3455
 8226SOL    HW134992   2.722   9.891  10.995 -2.0372  0.4856  0.2460
 8226SOL    HW234993   2.769  10.017  11.065  2.7337 -1.0068  0.0980
 8227SOL     OW34994   3.378   8.518   9.572  0.3138 -0.0149  0.4031
 8227SOL    HW134995   3.438   8.565   9.631 -1.3815  0.0032  2.2235
 8227SOL    HW234996   3.347   8.444   9.625  0.7837 -1.6160 -1.4450
 8228SOL     OW34997   0.537   0.963   7.814 -0.1251 -0.5220  0.4397
 8228SOL    HW134998   0.536   0.981   7.719 -1.6831  0.8162  0.6652
 8228SOL    HW234999   0.600   1.026   7.849 -0.4403 -0.1984  0.4276
 8229SOL     OW35000   6.246   5.999   5.686 -0.9445 -0.0258  0.6267
 8229SOL    HW135001   6.337   6.029   5.690 -0.6733 -0.7108 -0.1340
 8229SOL    HW235002   6.216   6.025   5.599 -1.7179  0.8327  1.1343
 8230SOL     OW35003  11.632   0.727   0.494  0.7181  0.4463  0.1522
 8230SOL    HW135004  11.686   0.800   0.525  0.1316 -0.1167  2.7126
 8230SOL    HW235005  11.683   0.649   0.516 -0.9023 -0.0828  2.3514
 8231SOL     OW35006   3.194  10.734   1.872  0.1635  0.2472  0.0460
 8231SOL    HW135007   3.251  10.731   1.948  0.8021  1.7062 -0.3527
 8231SOL    HW235008   3.191  10.643   1.841 -0.1937 -0.3999  1.8347
 8232SOL     OW35009   9.369   8.569   3.475  0.0385 -0.2527 -0.1472
 8232SOL    HW135010   9.433   8.506   3.442  0.7177  0.9299 -1.1937
 8232SOL    HW235011   9.344   8.620   3.398 -1.7119 -0.2653  0.3657
 8233SOL     OW35012   4.848   1.007   2.809  0.0070 -0.4241 -0.3972
 8233SOL    HW135013   4.837   0.912   2.819 -0.6905 -0.3265 -0.1882
 8233SOL    HW235014   4.943   1.019   2.802  0.2995 -0.9362  1.8636
 8234SOL     OW35015   8.289   7.077   3.840  0.5263  0.0875  0.2047
 8234SOL    HW135016   8.204   7.095   3.880  0.2969  0.8604 -0.6060
 8234SOL    HW235017   8.310   6.988   3.868 -0.2889  0.0874  0.8570
 8235SOL     OW35018   4.942   2.851   4.039 -0.0744 -0.2729 -0.4575
 8235SOL    HW135019   4.971   2.822   3.953  0.5475  1.3260 -0.8023
 8235SOL    HW235020   4.931   2.945   4.031  0.3394 -0.0378  1.3142
 8236SOL     OW35021  11.930   9.121  10.239  0.4941 -0.1322 -0.2102
 8236SOL    HW135022  11.854   9.131  10.296  0.0658  0.8966 -0.9386
 8236SOL    HW235023  12.003   9.159  10.289  0.7678 -1.9704  0.8861
 8237SOL     OW35024   4.548  12.580   0.339 -0.0010  0.2826  0.3438
 8237SOL    HW135025   4.534  12.486   0.349 -1.8528  0.3795 -0.8254
 8237SOL    HW235026   4.635  12.595   0.375 -0.4007 -1.5621  2.3035
 8238SOL     OW35027   6.673   1.563   6.073 -0.9484  0.1544  0.0751
 8238SOL    HW135028   6.766   1.568   6.092 -0.6269  0.4813 -1.4228
 8238SOL    HW235029   6.630   1.599   6.150  0.2007  0.6825  0.4834
 8239SOL     OW35030   6.918   1.847   6.804 -0.3200 -0.0327 -0.0622
 8239SOL    HW135031   6.958   1.849   6.891  0.0284 -0.7466 -0.1973
 8239SOL    HW235032   6.986   1.810   6.747 -0.7016  0.0164 -0.5568
 8240SOL     OW35033   3.652   4.914   7.678 -0.2677  0.2400 -0.0180
 8240SOL    HW135034   3.695   4.846   7.626 -1.4295 -0.1505 -0.4791
 8240SOL    HW235035   3.704   4.918   7.759 -1.0102 -2.2048  0.6507
 8241SOL     OW35036   0.554   9.918   6.273  0.7527 -0.3685  0.2320
 8241SOL    HW135037   0.521   9.912   6.362  0.1248 -0.4028 -0.0036
 8241SOL    HW235038   0.486   9.878   6.219  0.0554  1.7226 -0.5210
 8242SOL     OW35039  11.900   9.697   2.099  0.1496 -0.1325 -0.3928
 8242SOL    HW135040  11.959   9.699   2.175  1.8603 -0.1217 -1.6515
 8242SOL    HW235041  11.957   9.672   2.026 -1.2291  0.8252 -1.8601
 8243SOL     OW35042   6.929   2.480   3.705  0.0605 -0.3957  0.1488
 8243SOL    HW135043   6.978   2.447   3.781  0.2578 -0.4488  0.0000
 8243SOL    HW235044   6.909   2.571   3.726 -0.4786 -0.6019  0.5594
 8244SOL     OW35045   5.214   3.631  10.290 -0.2167  0.0150  0.3541
 8244SOL    HW135046   5.206   3.673  10.205 -1.0020 -1.7139 -0.4906
 8244SOL    HW235047   5.158   3.682  10.348  0.0910  1.0366 -0.2296
 8245SOL     OW35048   8.927   8.428  11.361 -0.0070  0.2913 -0.4063
 8245SOL    HW135049   8.934   8.394  11.451  0.3785 -1.0134 -0.9051
 8245SOL    HW235050   9.013   8.413  11.323 -0.1922  0.7702 -1.0252
 8246SOL     OW35051   5.190   0.453  11.835 -0.0150  0.4156 -0.0941
 8246SOL    HW135052   5.155   0.474  11.921 -0.7276  0.2648 -0.3410
 8246SOL    HW235053   5.275   0.498  11.832 -0.5241  1.4374  0.2259
 8247SOL     OW35054   0.025   9.861  10.758 -0.0692 -0.6277 -0.3502
 8247SOL    HW135055  -0.001   9.892  10.671 -0.1299  1.3708  0.3194
 8247SOL    HW235056   0.116   9.834  10.748  0.8668  2.2789 -0.4939
 8248SOL     OW35057  12.271   1.401   5.903  0.3222 -0.6855  0.0589
 8248SOL    HW135058  12.309   1.474   5.854 -1.8203  1.5565  1.5000
 8248SOL    HW235059  12.337   1.379   5.969  0.7062  0.4562  0.0704
 8249SOL     OW35060   6.464   5.278  11.665 -0.3521 -0.2428  0.5603
 8249SOL    HW135061   6.498   5.283  11.754 -0.2311  0.6980  0.4711
 8249SOL    HW235062   6.420   5.193  11.661 -1.8497  0.3916  2.0528
 8250SOL     OW35063   0.253   0.079   6.962  0.5559  0.1876  0.3218
 8250SOL    HW135064   0.220   0.047   7.046  0.3649  1.4781  0.7564
 8250SOL    HW235065   0.180   0.069   6.902  0.5642 -0.3673  0.3995
 8251SOL     OW35066   1.599   3.349   9.963 -0.4780 -0.3376  0.3673
 8251SOL    HW135067   1.654   3.385  10.033  1.0431 -0.7625 -0.5705
 8251SOL    HW235068   1.510   3.376   9.987  0.1048  0.3036  1.9720
 8252SOL     OW35069   6.765   4.859  12.458  0.0284 -0.4087  0.1357
 8252SOL    HW135070   6.853   4.851  12.495  0.1792  0.2178 -0.0743
 8252SOL    HW235071   6.774   4.922  12.386 -0.0177 -2.4218 -1.7417
 8253SOL     OW35072  11.220  10.841   3.456  0.1967  0.0198 -0.3627
 8253SOL    HW135073  11.246  10.819   3.546  2.2591  1.7427 -0.4739
 8253SOL    HW235074  11.126  10.857   3.463  0.4961  1.3042  1.7928
 8254SOL     OW35075  10.815   9.990  12.633  0.0584 -0.3166 -0.0087
 8254SOL    HW135076  10.751   9.922  12.614 -0.4139  0.2863 -0.6153
 8254SOL    HW235077  10.893   9.964  12.583  0.6436 -1.5749  1.5156
 8255SOL     OW35078   2.098   1.001   7.357  0.3552  0.2494 -0.5694
 8255SOL    HW135079   2.031   0.936   7.336  0.6451  0.1846 -1.3218
 8255SOL    HW235080   2.146   0.964   7.431 -0.4506  0.3141  0.0081
 8256SOL     OW35081   6.056   2.418   0.726 -0.7840  0.2062  0.6205
 8256SOL    HW135082   6.020   2.330   0.715 -1.0216  0.3636  0.0946
 8256SOL    HW235083   6.085   2.421   0.817 -0.5585 -0.4982  0.5801
 8257SOL     OW35084   4.180   1.893   9.160  0.5841  0.1737  0.3429
 8257SOL    HW135085   4.272   1.875   9.141  0.1244 -1.8993 -0.1553
 8257SOL    HW235086   4.174   1.988   9.162  2.4782  0.3678 -0.8836
 8258SOL     OW35087   5.048  10.573  11.491  0.3426  0.4848  0.0049
 8258SOL    HW135088   5.092  10.493  11.461  1.7331  1.4295 -0.6009
 8258SOL    HW235089   5.088  10.592  11.576  1.9104  1.8687 -0.9699
 8259SOL     OW35090   7.758   0.351   1.773 -0.2196  0.2730 -0.1084
 8259SOL    HW135091   7.748   0.397   1.856  2.5542  0.4233  0.2260
 8259SOL    HW235092   7.690   0.284   1.775 -0.8938  0.9474  1.7987
 8260SOL     OW35093   8.040   9.997   8.856 -0.6519 -0.0411 -0.1246
 8260SOL    HW135094   8.083   9.922   8.815  1.3713  0.6022  0.6781
 8260SOL    HW235095   8.061  10.071   8.799  0.1308  0.4415  0.7599
 8261SOL     OW35096   5.177   3.951   8.485 -0.5268 -0.2439 -0.7367
 8261SOL    HW135097   5.214   3.889   8.549 -1.3694 -0.1412 -0.1241
 8261SOL    HW235098   5.170   3.901   8.404  0.4049 -0.4301 -0.7132
 8262SOL     OW35099   1.205   6.475   1.953 -0.1352  0.3446  0.3577
 8262SOL    HW135100   1.140   6.518   2.008  0.3149 -1.2092  2.2081
 8262SOL    HW235101   1.265   6.545   1.928  0.0862  0.9887  2.5192
 8263SOL     OW35102   4.156  12.585  11.361 -0.0119  0.4586  0.4471
 8263SOL    HW135103   4.229  12.582  11.299 -0.7462 -0.1300 -0.4136
 8263SOL    HW235104   4.160  12.501  11.407  0.4517  0.8410  1.1274
 8264SOL     OW35105   9.945   4.162   1.615 -0.2636  0.8008 -0.1176
 8264SOL    HW135106   9.936   4.214   1.695  0.8960  2.2365 -0.8593
 8264SOL    HW235107  10.038   4.137   1.613  0.3893  2.9307 -2.1842
 8265SOL     OW35108   3.142   3.794   3.753  0.3169  0.3592  0.3731
 8265SOL    HW135109   3.094   3.756   3.826  1.4274  0.4758  1.1910
 8265SOL    HW235110   3.085   3.782   3.677  0.7738 -3.3830  0.4384
 8266SOL     OW35111   5.256   5.218   6.547  0.2457 -0.0262  0.1418
 8266SOL    HW135112   5.179   5.182   6.591 -0.6366 -1.4980 -2.3730
 8266SOL    HW235113   5.226   5.299   6.507  0.2336 -0.1765 -0.1548
 8267SOL     OW35114  11.954   1.401   9.566  0.1679 -0.3215  0.4143
 8267SOL    HW135115  12.004   1.326   9.597 -1.0564 -0.4975  2.0968
 8267SOL    HW235116  11.864   1.369   9.559 -0.3214  0.8854  0.8587
 8268SOL     OW35117  12.179   3.796   1.312  0.3175 -0.1862  0.7752
 8268SOL    HW135118  12.264   3.755   1.326  0.4077 -0.3907 -0.2713
 8268SOL    HW235119  12.186   3.881   1.354  1.2654  0.0551  0.1663
 8269SOL     OW35120  11.868   2.193  11.088  0.3386 -0.5002  0.3722
 8269SOL    HW135121  11.917   2.131  11.143 -0.3728 -0.2789  1.2767
 8269SOL    HW235122  11.901   2.279  11.113  1.0370 -0.4728 -0.5953
 8270SOL     OW35123   9.257   0.345   9.792 -0.2387 -0.3803 -0.0137
 8270SOL    HW135124   9.202   0.295   9.852 -1.5423 -0.1190 -0.9493
 8270SOL    HW235125   9.270   0.286   9.717  1.4010 -0.7193  0.5082
 8271SOL     OW35126   6.704   1.394  12.092  0.4007  0.7166  0.3410
 8271SOL    HW135127   6.750   1.390  12.008  1.8422  0.7093  1.0905
 8271SOL    HW235128   6.684   1.487  12.104 -0.1664  0.6668 -0.1838
 8272SOL     OW35129   3.331  10.678   1.538  0.1047  0.4858 -0.4400
 8272SOL    HW135130   3.417  10.696   1.577  0.5103  2.0195 -1.9392
 8272SOL    HW235131   3.286  10.762   1.538 -1.2964 -0.2231 -0.0294
 8273SOL     OW35132   1.287  12.484  12.537 -0.2707  0.6128 -0.1504
 8273SOL    HW135133   1.262  12.548  12.603  2.1184  0.3038  1.1651
 8273SOL    HW235134   1.351  12.530  12.482  0.9612 -0.4086  0.3940
 8274SOL     OW35135   4.117   0.697   7.202 -0.3261  0.4656 -0.6137
 8274SOL    HW135136   4.211   0.710   7.190 -0.3325  1.0296 -0.0900
 8274SOL    HW235137   4.106   0.602   7.198  0.4817  0.2789  0.7302
 8275SOL     OW35138  11.740   1.238   2.341 -0.0100  0.7562 -0.3630
 8275SOL    HW135139  11.790   1.168   2.383 -0.5730  1.2926  1.2542
 8275SOL    HW235140  11.701   1.196   2.264  0.7639 -0.3437 -0.1818
 8276SOL     OW35141   6.519  11.292   3.947 -0.3259  0.6992  0.2594
 8276SOL    HW135142   6.482  11.233   4.013  1.0726 -0.3373  0.1683
 8276SOL    HW235143   6.481  11.378   3.968 -1.0875  0.1008  1.4615
 8277SOL     OW35144   4.982   3.374   1.157  0.4360  0.1658  0.4953
 8277SOL    HW135145   5.038   3.406   1.227 -0.8053  0.2942  1.4679
 8277SOL    HW235146   4.971   3.449   1.099 -0.9409  1.0246  1.7779
 8278SOL     OW35147   2.101   7.994   9.447  0.3405 -0.3729 -0.5239
 8278SOL    HW135148   2.170   7.929   9.461  0.5772 -0.3007 -1.3006
 8278SOL    HW235149   2.051   7.960   9.373 -0.6802 -0.5905  0.2406
 8279SOL     OW35150   4.741   8.844  10.388 -0.1590 -0.0666  0.0897
 8279SOL    HW135151   4.761   8.835  10.295 -0.8174 -0.0536 -0.0549
 8279SOL    HW235152   4.650   8.815  10.396 -0.6252  1.4603  0.4696
 8280SOL     OW35153   1.253   2.463   1.791 -0.5024 -0.7039  0.3182
 8280SOL    HW135154   1.249   2.371   1.818 -0.2756 -0.7569  0.1787
 8280SOL    HW235155   1.347   2.480   1.780 -0.4498 -0.1308  1.4790
 8281SOL     OW35156   6.274  12.227   6.733  0.3288  0.2549 -0.1086
 8281SOL    HW135157   6.364  12.249   6.707 -0.1739  1.5041 -0.9199
 8281SOL    HW235158   6.220  12.287   6.681 -1.0093 -0.9107 -0.0915
 8282SOL     OW35159   4.760  11.960   3.510 -0.5337  0.2325 -0.1636
 8282SOL    HW135160   4.831  12.000   3.560 -0.4628  0.7636 -0.6811
 8282SOL    HW235161   4.692  12.027   3.508  0.4651  1.3220 -3.0044
 8283SOL     OW35162   6.707   9.553  12.373  0.5885 -0.3123  0.3213
 8283SOL    HW135163   6.636   9.574  12.313  1.3721  1.6479  0.0020
 8283SOL    HW235164   6.687   9.600  12.453 -0.4336 -2.8944  1.6881
 8284SOL     OW35165   1.576   2.743   8.433 -0.1392  0.0480 -0.0446
 8284SOL    HW135166   1.663   2.761   8.398 -0.0322 -0.7008 -0.1827
 8284SOL    HW235167   1.529   2.826   8.426  0.1887  0.1614 -1.0606
 8285SOL     OW35168  12.592  10.001   3.829  0.3676  0.2381  0.2428
 8285SOL    HW135169  12.519   9.960   3.876  1.1564 -0.1435  1.1900
 8285SOL    HW235170  12.558  10.085   3.800 -1.5027 -1.2701 -2.2902
 8286SOL     OW35171   8.130   7.164   2.430 -0.4236  0.3959  0.6056
 8286SOL    HW135172   8.043   7.127   2.446 -0.0392 -0.5762  0.5242
 8286SOL    HW235173   8.164   7.186   2.516 -1.4855  2.5693  0.5292
 8287SOL     OW35174   2.347   5.937  12.640 -0.0685 -0.3807 -0.2422
 8287SOL    HW135175   2.430   5.966  12.675 -0.1096  0.3335 -0.7222
 8287SOL    HW235176   2.316   5.870  12.702 -0.8784  1.8867  1.9364
 8288SOL     OW35177  12.799  12.177   9.729 -0.0614  0.2404 -0.6943
 8288SOL    HW135178  12.820  12.208   9.641  1.8133 -0.2625 -0.4538
 8288SOL    HW235179  12.730  12.237   9.759  2.3275  3.3258 -0.8336
 8289SOL     OW35180   1.836  12.259   1.672  0.4599 -0.3943 -0.2131
 8289SOL    HW135181   1.794  12.312   1.605 -0.0725  1.0180  1.1815
 8289SOL    HW235182   1.909  12.312   1.703  1.0484 -1.2683 -0.0771
 8290SOL     OW35183   9.605   4.539   4.985  0.2565  0.4400 -0.4133
 8290SOL    HW135184   9.685   4.582   5.017 -0.1252 -0.1728  1.5121
 8290SOL    HW235185   9.637   4.462   4.939  0.8145  0.6558 -0.3952
 8291SOL     OW35186  10.703   5.065   5.661  0.3451 -0.0018  0.3806
 8291SOL    HW135187  10.752   5.058   5.744  0.8720  0.6386  0.1338
 8291SOL    HW235188  10.613   5.044   5.685  0.3561  0.8639  1.2760
 8292SOL     OW35189   2.652   2.044   3.488  0.2393  0.5613 -0.0886
 8292SOL    HW135190   2.648   2.111   3.421  0.5031  1.1437  0.4698
 8292SOL    HW235191   2.740   2.005   3.479 -0.6296 -1.1523 -1.7659
 8293SOL     OW35192   4.226   9.909  11.825  0.1097  0.1956 -0.3306
 8293SOL    HW135193   4.164   9.982  11.833 -1.1275 -0.8090 -0.4082
 8293SOL    HW235194   4.305   9.939  11.870 -0.9770  0.9266  1.1864
 8294SOL     OW35195   4.354   9.250   3.812 -0.7978 -0.1759  0.5336
 8294SOL    HW135196   4.387   9.181   3.869  2.4098 -0.1473 -1.0406
 8294SOL    HW235197   4.397   9.330   3.844 -0.0707  0.0731 -0.9576
 8295SOL     OW35198   4.743   0.533   2.757 -0.2139  0.5180  0.0565
 8295SOL    HW135199   4.715   0.534   2.666 -0.5807 -2.4291  0.0383
 8295SOL    HW235200   4.701   0.455   2.794  2.3560 -0.1299  1.9070
 8296SOL     OW35201   3.766   1.137   7.369 -0.7474  0.1799  0.0615
 8296SOL    HW135202   3.732   1.116   7.282 -0.4963 -0.8273  0.1932
 8296SOL    HW235203   3.861   1.134   7.359 -0.6485  2.6246 -0.2209
 8297SOL     OW35204   3.111   0.758   5.653 -0.7221 -0.0813  0.0197
 8297SOL    HW135205   3.027   0.711   5.652 -1.0670  0.4620  1.3209
 8297SOL    HW235206   3.089   0.846   5.682  0.2000  0.3128 -0.4299
 8298SOL     OW35207  11.606  11.839   7.906 -0.2131  0.3340 -0.2578
 8298SOL    HW135208  11.614  11.747   7.931 -0.2842  0.5432  0.5535
 8298SOL    HW235209  11.693  11.876   7.922 -0.1914  0.4210 -0.5602
 8299SOL     OW35210   1.303   7.671  12.207 -0.0191  0.3598  0.0354
 8299SOL    HW135211   1.211   7.693  12.218 -0.0885  0.7464 -1.1500
 8299SOL    HW235212   1.349   7.729  12.268 -0.3568  2.3155 -1.4824
 8300SOL     OW35213   3.965   9.218   0.392 -0.6305 -0.5984  0.3921
 8300SOL    HW135214   3.905   9.185   0.459 -0.4761 -1.2091  0.2415
 8300SOL    HW235215   3.908   9.257   0.326 -0.8207 -0.5529  0.5819
 8301SOL     OW35216  12.027   8.320   0.888 -0.1419 -0.1018 -0.0559
 8301SOL    HW135217  12.067   8.234   0.888  0.4741  0.1774  0.0905
 8301SOL    HW235218  11.936   8.305   0.913  0.3289 -0.5450  1.4865
 8302SOL     OW35219   9.701  11.252  10.061 -0.0433 -0.2803  0.1381
 8302SOL    HW135220   9.681  11.180  10.120  0.8529 -0.6622 -0.0113
 8302SOL    HW235221   9.680  11.331  10.112 -0.0063 -0.6204  0.6864
 8303SOL     OW35222   7.007   9.133   8.619 -0.5249  0.6895  0.0355
 8303SOL    HW135223   6.985   9.211   8.568  0.5766 -0.0905 -1.6979
 8303SOL    HW235224   7.097   9.147   8.647 -0.9084  0.8206  1.3089
 8304SOL     OW35225   7.886  12.695   2.187  0.4826 -0.3887 -0.0589
 8304SOL    HW135226   7.974  12.687   2.148  0.2927 -3.2260 -0.1194
 8304SOL    HW235227   7.902  12.691   2.282  0.4498 -0.6235 -0.0625
 8305SOL     OW35228   4.608   8.090   1.975  0.2868 -0.1490  0.0719
 8305SOL    HW135229   4.532   8.053   1.930 -0.0684  0.0839  0.4751
 8305SOL    HW235230   4.642   8.156   1.915 -0.0776  0.0348  0.0670
 8306SOL     OW35231   7.254  12.757   4.207 -0.7341 -0.2828 -0.4109
 8306SOL    HW135232   7.257  12.834   4.150 -1.2886 -0.0191 -0.0932
 8306SOL    HW235233   7.168  12.719   4.193 -1.3195  0.4198  1.0372
 8307SOL     OW35234   8.849   9.581   2.275  0.1535  0.1291  0.0312
 8307SOL    HW135235   8.786   9.623   2.333  0.8734 -2.0757  2.5704
 8307SOL    HW235236   8.799   9.513   2.230  0.0751  0.4456 -0.3734
 8308SOL     OW35237  10.266   3.383   7.637  0.2220 -0.2026  0.7281
 8308SOL    HW135238  10.252   3.468   7.678  0.2952 -0.6324  1.6695
 8308SOL    HW235239  10.355   3.359   7.661  0.7601  0.1406 -0.8322
 8309SOL     OW35240   0.856   7.894   2.782 -0.4782 -0.6925 -0.2438
 8309SOL    HW135241   0.761   7.907   2.777 -0.4294  1.7414  2.4074
 8309SOL    HW235242   0.875   7.886   2.876  2.0862  0.8478 -0.5290
 8310SOL     OW35243  11.645  10.606   0.174 -0.4126 -0.0292 -0.2566
 8310SOL    HW135244  11.578  10.648   0.228 -0.6621 -0.9352  0.1748
 8310SOL    HW235245  11.619  10.624   0.084  0.1730  1.7656 -0.1018
 8311SOL     OW35246  11.759   7.350  10.460  0.1786 -0.8903 -0.0860
 8311SOL    HW135247  11.765   7.425  10.401 -0.3875  0.1598  1.1339
 8311SOL    HW235248  11.739   7.276  10.404 -0.3664  0.0789 -1.2015
 8312SOL     OW35249   6.926   7.921   6.753 -0.4593 -0.0434 -0.8085
 8312SOL    HW135250   7.019   7.898   6.763 -0.7194 -0.3080  1.7595
 8312SOL    HW235251   6.885   7.841   6.720 -0.0263 -0.5472 -0.1746
 8313SOL     OW35252   4.848   0.153   0.405  1.3522 -0.3555  0.0151
 8313SOL    HW135253   4.862   0.220   0.339 -2.1833  1.2112  0.6170
 8313SOL    HW235254   4.821   0.201   0.484  1.9536 -2.3390  1.5355
 8314SOL     OW35255   5.118   2.201   9.084 -0.1915 -0.3905 -0.4407
 8314SOL    HW135256   5.113   2.160   9.170 -1.3183 -0.5090 -0.5599
 8314SOL    HW235257   5.028   2.206   9.053  0.0476  0.9233 -1.0216
 8315SOL     OW35258  12.573   5.694   8.556  0.4943  0.4938  0.0784
 8315SOL    HW135259  12.565   5.732   8.643 -2.6739  0.2418 -0.0084
 8315SOL    HW235260  12.495   5.641   8.545  1.2031 -0.1697 -2.6303
 8316SOL     OW35261   3.663   0.614   2.644  0.0329  0.3042 -0.2357
 8316SOL    HW135262   3.670   0.569   2.729 -1.2936 -1.0428 -0.7918
 8316SOL    HW235263   3.752   0.615   2.610  0.3454 -0.4804  0.5131
 8317SOL     OW35264   0.961  12.885  10.157 -0.1586 -0.0679  0.1868
 8317SOL    HW135265   0.870  12.866  10.136  0.0859 -0.9338 -0.1063
 8317SOL    HW235266   0.976  12.973  10.122 -1.0162  0.2798  0.6774
 8318SOL     OW35267   1.628  11.622   3.419  0.2164  0.0585 -0.1522
 8318SOL    HW135268   1.544  11.644   3.380  0.2025 -1.7034 -1.2130
 8318SOL    HW235269   1.682  11.701   3.407 -0.6067  0.4591 -1.4212
 8319SOL     OW35270   1.941   9.243  10.315  0.2854  0.1797 -0.2153
 8319SOL    HW135271   1.960   9.307  10.384  0.2320  0.4296 -0.4275
 8319SOL    HW235272   2.011   9.179  10.320 -0.0926 -0.1891  0.5274
 8320SOL     OW35273   7.162   5.707   8.357  0.0347  0.3107  0.1117
 8320SOL    HW135274   7.101   5.732   8.287 -0.5590 -0.3151  0.3880
 8320SOL    HW235275   7.120   5.738   8.437 -0.4162 -0.9540  0.4013
 8321SOL     OW35276   7.171   9.737   4.832 -0.2383 -0.2149 -0.6508
 8321SOL    HW135277   7.239   9.682   4.871 -0.9090 -1.4265 -1.1269
 8321SOL    HW235278   7.195   9.744   4.740 -0.0568  0.4546 -0.5539
 8322SOL     OW35279  12.341   0.363   3.954 -0.4033  0.1810 -0.5530
 8322SOL    HW135280  12.412   0.326   3.902 -0.9744 -0.6447 -0.7607
 8322SOL    HW235281  12.327   0.299   4.024 -0.9344  0.3337 -0.5144
 8323SOL     OW35282  12.561  12.048   3.675 -0.3141 -0.0962  0.4311
 8323SOL    HW135283  12.521  11.969   3.712 -1.0332 -1.1677 -2.3817
 8323SOL    HW235284  12.502  12.073   3.604  2.0366  0.4942 -1.4510
 8324SOL     OW35285   9.177   8.548   4.474 -0.0416 -0.2373  0.6994
 8324SOL    HW135286   9.247   8.483   4.482 -0.9154 -1.0278  2.2231
 8324SOL    HW235287   9.152   8.568   4.564 -2.7365 -1.0209  0.2026
 8325SOL     OW35288   3.826   2.427   5.498 -0.5277 -0.2691  0.4594
 8325SOL    HW135289   3.819   2.410   5.404  1.7032  1.7717 -0.1674
 8325SOL    HW235290   3.892   2.366   5.529 -1.4092 -1.0812  0.7713
 8326SOL     OW35291   9.093  11.058  11.568  0.1433  0.2222  0.1386
 8326SOL    HW135292   9.087  11.127  11.634 -2.0478  0.9703 -0.7544
 8326SOL    HW235293   9.157  11.090  11.505 -2.2381  2.5323 -1.3267
 8327SOL     OW35294   0.901   8.778  12.647  0.4560  0.0908 -0.7174
 8327SOL    HW135295   0.827   8.752  12.701  0.4500  0.8820 -0.3319
 8327SOL    HW235296   0.972   8.720  12.673  1.2408  2.0731  2.0743
 8328SOL     OW35297  12.954  10.479   2.852  0.0477 -0.6724  0.6879
 8328SOL    HW135298  12.932  10.494   2.944  0.1840  0.3625  0.5719
 8328SOL    HW235299  12.872  10.495   2.805 -0.1434 -1.6698  0.6558
 8329SOL     OW35300  12.857   9.387  12.309 -0.2720  0.1226  0.0327
 8329SOL    HW135301  12.872   9.447  12.236 -2.6033 -0.6077 -1.1574
 8329SOL    HW235302  12.933   9.398  12.365  0.0879  3.1204 -0.8507
 8330SOL     OW35303  12.430   8.263   7.779  0.0173  0.1887 -0.5092
 8330SOL    HW135304  12.376   8.223   7.846 -0.0693  1.6681  0.3483
 8330SOL    HW235305  12.446   8.193   7.716 -0.3470 -1.0883  0.7674
 8331SOL     OW35306   5.520   5.739   2.837 -0.9768  0.3571  0.8466
 8331SOL    HW135307   5.448   5.801   2.843 -0.5549  0.9697 -0.1326
 8331SOL    HW235308   5.598   5.789   2.860 -0.6793  0.1012  0.4165
 8332SOL     OW35309   0.089   0.335   4.977 -0.0155 -0.4937  0.0012
 8332SOL    HW135310   0.136   0.259   4.942  0.4486 -0.5700  0.7694
 8332SOL    HW235311   0.076   0.315   5.070 -1.7291 -0.5498 -0.2091
 8333SOL     OW35312  11.187   5.782   2.845 -0.1568 -0.6756 -0.5207
 8333SOL    HW135313  11.193   5.796   2.750  1.2084 -0.4516 -0.4106
 8333SOL    HW235314  11.097   5.808   2.866  0.0745  1.0907 -1.4775
 8334SOL     OW35315  11.042   5.732   0.659 -0.0304  0.1573  0.2883
 8334SOL    HW135316  10.974   5.677   0.619 -0.4472  1.2380 -0.5352
 8334SOL    HW235317  11.113   5.732   0.596  0.4619 -0.3838  0.8275
 8335SOL     OW35318   7.313   2.583   9.133 -0.0754 -0.1537  0.0160
 8335SOL    HW135319   7.298   2.498   9.092  0.1815  0.0938 -0.5908
 8335SOL    HW235320   7.283   2.647   9.069 -1.5601  0.2028  1.0055
 8336SOL     OW35321   7.649   0.271  10.511 -0.5187 -0.1656 -0.6636
 8336SOL    HW135322   7.730   0.302  10.472  0.2136 -1.9874 -0.7117
 8336SOL    HW235323   7.590   0.256  10.437  0.6506 -3.0086 -1.1564
 8337SOL     OW35324   8.426  10.553  10.558 -0.0177 -0.2759  0.0000
 8337SOL    HW135325   8.394  10.617  10.622  1.8915 -0.3624  1.1315
 8337SOL    HW235326   8.476  10.604  10.495  1.2141 -0.5496  0.7097
 8338SOL     OW35327   6.441   3.017   6.200  1.1720  0.3551 -0.0225
 8338SOL    HW135328   6.437   2.926   6.228  1.2524  0.3805  0.0738
 8338SOL    HW235329   6.408   3.016   6.110  3.5672 -0.1756 -0.9634
 8339SOL     OW35330   1.147   2.834   5.123  0.9571  0.5572 -0.3908
 8339SOL    HW135331   1.185   2.815   5.037  0.5329  1.8195 -0.8730
 8339SOL    HW235332   1.074   2.893   5.105 -0.1390 -0.4115  0.6994
 8340SOL     OW35333   9.592   1.079   2.448 -0.0747  0.3512  0.3590
 8340SOL    HW135334   9.598   1.172   2.473 -0.6444  0.3446  0.5295
 8340SOL    HW235335   9.567   1.081   2.355 -1.8940  0.3823  0.8146
 8341SOL     OW35336  11.736  10.470   3.102  0.3038 -0.7396  0.0261
 8341SOL    HW135337  11.671  10.531   3.135 -0.4162  0.2332 -2.9030
 8341SOL    HW235338  11.820  10.510   3.123 -0.1561  0.8391 -1.0244
 8342SOL     OW35339   8.800   9.357   3.793 -0.5230  0.5515  0.6637
 8342SOL    HW135340   8.814   9.430   3.853  0.1878 -0.2803  1.5480
 8342SOL    HW235341   8.766   9.397   3.714 -0.1464  1.8432  1.1317
 8343SOL     OW35342   9.761  11.625   3.512 -0.2378  0.4655  0.3761
 8343SOL    HW135343   9.708  11.648   3.589  0.9659 -1.2388  1.8237
 8343SOL    HW235344   9.837  11.683   3.516  0.1081 -0.0046  0.8465
 8344SOL     OW35345   2.326   6.567   7.990  0.0912  0.1441  0.3057
 8344SOL    HW135346   2.343   6.660   8.003 -0.3533  0.2792 -0.0321
 8344SOL    HW235347   2.412   6.526   7.991  0.2587  0.5076  0.8521
 8345SOL     OW35348   9.662   9.190   5.608  0.2759 -0.0037  0.6848
 8345SOL    HW135349   9.632   9.197   5.518 -0.3501 -1.5038  0.7556
 8345SOL    HW235350   9.650   9.279   5.644 -2.2819 -0.0285  0.1342
 8346SOL     OW35351  10.781   1.570   9.496  0.3505  0.4159 -0.1389
 8346SOL    HW135352  10.757   1.491   9.447  0.7750  1.6661 -2.5444
 8346SOL    HW235353  10.843   1.616   9.439  0.4132  2.2968  1.3330
 8347SOL     OW35354   0.464   8.035   5.540 -0.3591 -0.3710  0.2739
 8347SOL    HW135355   0.475   8.128   5.559 -0.2859 -0.3044 -0.0875
 8347SOL    HW235356   0.491   8.026   5.448  2.7079 -1.3116  1.1594
 8348SOL     OW35357   0.771   7.681   2.357  0.0136 -0.3970  0.1266
 8348SOL    HW135358   0.833   7.699   2.429  1.2064 -0.7573 -0.7814
 8348SOL    HW235359   0.817   7.619   2.301 -0.0433  1.4213 -2.0430
 8349SOL     OW35360  10.270  12.814   2.361 -0.3024  0.7171 -0.3398
 8349SOL    HW135361  10.263  12.720   2.375 -0.2439  0.8291  0.4881
 8349SOL    HW235362  10.350  12.839   2.407 -0.4694  1.2160 -0.3154
 8350SOL     OW35363  11.298   8.683   2.671 -0.0740  0.2403  0.5400
 8350SOL    HW135364  11.242   8.759   2.655 -1.0095 -0.0479  2.2004
 8350SOL    HW235365  11.386   8.712   2.644 -0.6301  1.4576 -0.0328
 8351SOL     OW35366  11.619   0.207   6.699  0.0991 -0.1836  0.0868
 8351SOL    HW135367  11.525   0.190   6.690  0.3377 -0.7485 -1.8061
 8351SOL    HW235368  11.630   0.298   6.672  0.1002 -0.1031  0.3528
 8352SOL     OW35369   7.254   7.588   8.510 -0.4440 -0.0293 -0.0911
 8352SOL    HW135370   7.196   7.648   8.463 -0.2405  1.0369  0.9592
 8352SOL    HW235371   7.197   7.518   8.540 -1.1459  0.7831  0.5496
 8353SOL     OW35372  11.201   5.385   8.808 -0.0749  0.1100 -0.1926
 8353SOL    HW135373  11.182   5.325   8.880  1.4080 -0.6384 -0.3947
 8353SOL    HW235374  11.183   5.472   8.844 -0.7299 -0.3423  0.6031
 8354SOL     OW35375   3.906   0.160  11.591  0.5136 -0.2934  0.0496
 8354SOL    HW135376   3.818   0.127  11.574  0.1838  0.6032 -0.0612
 8354SOL    HW235377   3.920   0.144  11.684  0.3439 -0.6919  0.0089
 8355SOL     OW35378   0.245   1.513   0.552 -0.1536 -0.7559  0.1011
 8355SOL    HW135379   0.187   1.460   0.606 -0.8160 -0.2981 -0.1460
 8355SOL    HW235380   0.292   1.568   0.614 -2.4440  1.3073  0.1422
 8356SOL     OW35381  12.027   1.718  10.814 -0.3413  0.6277  0.0010
 8356SOL    HW135382  11.971   1.743  10.741  0.3869  1.4133 -0.3084
 8356SOL    HW235383  12.005   1.780  10.884 -0.4161  0.4379  0.1462
 8357SOL     OW35384   4.620   6.986  12.867  0.1540 -0.1414 -0.0942
 8357SOL    HW135385   4.712   7.006  12.887 -0.2735  0.4291  1.4192
 8357SOL    HW235386   4.614   6.996  12.772  1.3396  1.1894 -0.0671
 8358SOL     OW35387   1.572  12.098   6.996 -0.3192 -0.3291  0.1737
 8358SOL    HW135388   1.506  12.028   6.991 -0.1771 -0.4462 -0.0470
 8358SOL    HW235389   1.549  12.159   6.926 -0.9395  0.2811  0.8890
 8359SOL     OW35390  12.181  12.629   8.653  0.2143 -0.1315  0.9957
 8359SOL    HW135391  12.273  12.627   8.679  0.9419  0.7629 -1.2932
 8359SOL    HW235392  12.179  12.584   8.569 -1.9301 -2.4160  2.1342
 8360SOL     OW35393   3.165   6.600   9.072 -0.0615  0.3759 -0.1555
 8360SOL    HW135394   3.153   6.515   9.032  0.1211  0.8072 -1.1444
 8360SOL    HW235395   3.194   6.657   9.001 -1.3133  1.5442  0.2190
 8361SOL     OW35396   8.341  10.177   3.221 -0.0605  0.3240  1.0570
 8361SOL    HW135397   8.374  10.266   3.226  3.6464 -0.9082  1.2013
 8361SOL    HW235398   8.342  10.145   3.311 -0.4460 -0.1824  0.8936
 8362SOL     OW35399   5.132  11.309   5.460 -0.9347  0.4294  0.0393
 8362SOL    HW135400   5.066  11.308   5.529 -0.7314 -0.6393  0.2338
 8362SOL    HW235401   5.159  11.401   5.454 -1.2266  0.5969  1.1115
 8363SOL     OW35402   5.141   2.862   0.735 -0.6763  0.6282  0.4462
 8363SOL    HW135403   5.085   2.927   0.694  0.8876  0.3221 -2.4467
 8363SOL    HW235404   5.100   2.778   0.714 -1.8006  0.5444  2.7473
 8364SOL     OW35405   2.413   2.743   0.770  0.1703  0.5445 -0.0604
 8364SOL    HW135406   2.438   2.671   0.712  0.4814  1.7920 -1.5214
 8364SOL    HW235407   2.387   2.814   0.711 -1.2474  1.2628  1.3580
 8365SOL     OW35408   3.649   1.948   2.232  0.3853 -0.1013  0.2329
 8365SOL    HW135409   3.566   1.962   2.186  1.0453  1.4953 -0.5173
 8365SOL    HW235410   3.627   1.884   2.300 -1.6852  0.9697  0.6626
 8366SOL     OW35411   2.235  12.462   9.219 -0.4063 -0.0109  0.3265
 8366SOL    HW135412   2.323  12.499   9.208 -0.3396 -0.5808 -1.4196
 8366SOL    HW235413   2.188  12.528   9.269  0.4571  1.2702 -0.4748
 8367SOL     OW35414   9.015  10.066   2.968  0.1718 -0.2554 -0.1924
 8367SOL    HW135415   9.087  10.015   2.929  1.4063  0.9523  0.4296
 8367SOL    HW235416   9.006  10.142   2.911  0.5191  0.4263  0.6430
 8368SOL     OW35417  10.437   7.956   4.628 -0.6471 -0.3590  0.5505
 8368SOL    HW135418  10.366   7.942   4.691 -1.6465  0.6127 -0.3129
 8368SOL    HW235419  10.441   8.051   4.618 -0.0300 -0.4713 -0.3314
 8369SOL     OW35420   8.837   8.895  12.003  0.1171 -0.0081 -0.0704
 8369SOL    HW135421   8.915   8.868  11.955  1.1563  1.3315  0.7779
 8369SOL    HW235422   8.785   8.815  12.012  0.6388 -0.6104 -1.9860
 8370SOL     OW35423   2.809   4.137  11.413 -0.1115 -0.3894  0.1895
 8370SOL    HW135424   2.891   4.141  11.364 -0.8695 -0.2976 -1.1139
 8370SOL    HW235425   2.779   4.046  11.402 -0.2755 -0.3748  0.5125
 8371SOL     OW35426   3.610   7.802   2.628  0.0915  0.6819 -0.4706
 8371SOL    HW135427   3.520   7.831   2.645  0.3498  2.8944 -2.3751
 8371SOL    HW235428   3.663   7.880   2.637  1.4569 -0.0335 -1.8584
 8372SOL     OW35429   5.173   8.596   1.593  0.0432  0.0869  0.2654
 8372SOL    HW135430   5.167   8.683   1.553  0.6306 -0.0596 -0.1512
 8372SOL    HW235431   5.229   8.546   1.534 -1.9518 -1.2213 -0.6138
 8373SOL     OW35432   8.287   7.605   3.081 -0.1390  0.3219  0.3106
 8373SOL    HW135433   8.378   7.596   3.109 -0.8621  0.2442  2.8454
 8373SOL    HW235434   8.258   7.687   3.120 -1.9358 -1.0309  1.9719
 8374SOL     OW35435   2.921   1.996  10.770 -0.8202  0.2211 -0.1433
 8374SOL    HW135436   2.849   1.992  10.832 -2.3322  0.8734 -1.7785
 8374SOL    HW235437   3.000   1.992  10.825 -1.9964 -2.6644  1.5972
 8375SOL     OW35438  12.459   8.734  12.502  0.1339 -0.1850 -0.1232
 8375SOL    HW135439  12.382   8.785  12.524 -0.5742 -1.5243  0.6562
 8375SOL    HW235440  12.522   8.798  12.468 -1.0339  1.0351 -0.0574
 8376SOL     OW35441  10.917   4.687   4.326 -0.0972  0.6694  0.2906
 8376SOL    HW135442  10.914   4.652   4.415  1.4848 -1.6202 -0.4812
 8376SOL    HW235443  10.901   4.781   4.337  1.7002  0.7565  3.1911
 8377SOL     OW35444  11.742   5.370   4.473  0.6653  0.5128 -0.1879
 8377SOL    HW135445  11.698   5.394   4.391 -0.8668  0.2474  0.5283
 8377SOL    HW235446  11.745   5.451   4.524 -1.3507  0.0296  0.7961
 8378SOL     OW35447   0.452   8.915  11.748 -0.3556 -0.6417 -0.0658
 8378SOL    HW135448   0.442   8.946  11.838 -3.0902  0.8507 -0.7699
 8378SOL    HW235449   0.373   8.864  11.731 -0.3839 -0.0486 -1.9231
 8379SOL     OW35450   4.325   8.736  11.184  0.4675 -0.1980 -0.5263
 8379SOL    HW135451   4.326   8.780  11.099  2.8358 -2.2385 -1.6871
 8379SOL    HW235452   4.270   8.791  11.239  0.0016  1.9634 -2.9721
 8380SOL     OW35453  12.091   5.734   3.150  0.4316 -0.0587 -0.3424
 8380SOL    HW135454  12.084   5.647   3.190  1.7224  0.2357  0.6067
 8380SOL    HW235455  12.001   5.764   3.142  0.0517 -0.7405  1.0365
 8381SOL     OW35456  10.412   9.873  10.568  0.1894  0.6265 -0.2410
 8381SOL    HW135457  10.451   9.959  10.586  0.3506  0.3715  0.6639
 8381SOL    HW235458  10.406   9.869  10.473 -0.2854  1.8463 -0.2816
 8382SOL     OW35459   3.650   1.323   6.470  0.0981  0.5761 -0.2627
 8382SOL    HW135460   3.632   1.314   6.564 -0.1890  0.9196 -0.2827
 8382SOL    HW235461   3.620   1.240   6.432  1.5801 -0.1803  0.1328
 8383SOL     OW35462   9.542   7.384   5.699 -0.0916 -0.0250  0.5006
 8383SOL    HW135463   9.571   7.473   5.718 -1.3244  0.3986  0.4756
 8383SOL    HW235464   9.613   7.329   5.731  0.7044  0.9627  0.4905
 8384SOL     OW35465  10.231  11.042  10.303 -0.6464  0.5229 -0.1957
 8384SOL    HW135466  10.224  11.127  10.347  1.5399  0.7037 -0.0733
 8384SOL    HW235467  10.148  11.031  10.257 -2.6305  0.7951  3.0734
 8385SOL     OW35468   6.842   1.340   1.091  0.0236  0.2093 -0.8329
 8385SOL    HW135469   6.801   1.402   1.152  3.3192  1.9811 -0.1616
 8385SOL    HW235470   6.831   1.255   1.133 -1.4859  0.8043  0.0637
 8386SOL     OW35471   8.365   6.475   2.417 -0.0087  0.4350 -0.6021
 8386SOL    HW135472   8.345   6.443   2.504  1.7762  3.6348  1.1734
 8386SOL    HW235473   8.313   6.555   2.408 -0.0213  0.2759 -2.4438
 8387SOL     OW35474   7.272  10.037   5.008  0.5941 -0.8939 -0.0470
 8387SOL    HW135475   7.294  10.014   4.918  2.1036  0.1010  0.0310
 8387SOL    HW235476   7.237   9.957   5.046 -0.5848 -1.1763 -1.6618
 8388SOL     OW35477  10.478   6.554   4.412 -0.4583  0.2217  0.2218
 8388SOL    HW135478  10.412   6.613   4.373 -1.1138 -0.4207  0.3438
 8388SOL    HW235479  10.428   6.478   4.441  0.5649 -1.0597 -1.2265
 8389SOL     OW35480   7.512   2.348   1.843 -0.3509  0.1097 -0.0134
 8389SOL    HW135481   7.559   2.407   1.784 -1.0755  0.1072 -0.6137
 8389SOL    HW235482   7.420   2.376   1.835 -0.5681 -0.4682  0.4461
 8390SOL     OW35483   1.966   6.680   1.498  0.0595 -0.3041 -0.2674
 8390SOL    HW135484   2.040   6.633   1.460 -0.2063  0.1255 -1.3250
 8390SOL    HW235485   2.005   6.737   1.564  0.4837 -1.3244  0.3918
 8391SOL     OW35486   9.687   3.665   8.649 -0.4181 -0.0779 -0.0457
 8391SOL    HW135487   9.714   3.606   8.720 -0.8504  0.2091  0.3565
 8391SOL    HW235488   9.599   3.692   8.672 -0.6809 -0.2259 -0.8591
 8392SOL     OW35489   1.388  11.303   7.482 -0.2245  0.2440 -0.7110
 8392SOL    HW135490   1.444  11.306   7.405 -2.5495  0.1029 -2.5086
 8392SOL    HW235491   1.367  11.395   7.500 -0.7792  0.2120 -1.1437
 8393SOL     OW35492   1.457   5.825   4.231 -0.1064  0.2044 -0.1929
 8393SOL    HW135493   1.419   5.902   4.274 -1.4475  0.4666 -1.7263
 8393SOL    HW235494   1.455   5.756   4.297  0.6363  1.3230  1.0525
 8394SOL     OW35495   9.415   1.364  12.042  0.1358 -0.2473 -0.0924
 8394SOL    HW135496   9.354   1.435  12.023 -1.0792 -1.3223 -0.3575
 8394SOL    HW235497   9.359   1.292  12.071  1.3334 -1.1073  0.1407
 8395SOL     OW35498   0.585   8.989   2.866  0.5818 -0.3182  0.1315
 8395SOL    HW135499   0.508   9.043   2.883  0.5287 -0.1828 -0.5281
 8395SOL    HW235500   0.563   8.940   2.787  0.5550 -1.4546  0.8222
 8396SOL     OW35501   1.253   6.300   5.114  0.1612 -0.3251 -0.5470
 8396SOL    HW135502   1.337   6.307   5.067 -0.7651  0.9141 -2.1036
 8396SOL    HW235503   1.188   6.334   5.053 -1.5045 -1.2277  0.6414
 8397SOL     OW35504  10.522   2.291   4.652 -0.1022  0.4681 -0.8087
 8397SOL    HW135505  10.433   2.309   4.682 -0.8196 -0.2435 -2.3855
 8397SOL    HW235506  10.523   2.322   4.561  0.9721 -0.3303 -1.0883
 8398SOL     OW35507   9.021   7.617   8.172  0.5184 -0.1304 -0.8278
 8398SOL    HW135508   9.031   7.692   8.113  2.0657  1.6334  1.5279
 8398SOL    HW235509   8.929   7.621   8.200 -0.8553 -2.1380 -4.3427
 8399SOL     OW35510  10.578   9.815   1.011 -0.9866  0.7985 -0.6262
 8399SOL    HW135511  10.582   9.864   1.093 -1.7442  0.0243 -0.1033
 8399SOL    HW235512  10.609   9.876   0.944 -0.4827  1.4841  0.2140
 8400SOL     OW35513   9.037   0.102   3.377 -0.0739 -0.4027 -0.2591
 8400SOL    HW135514   9.073   0.093   3.465 -1.4046 -2.4710  0.1387
 8400SOL    HW235515   9.069   0.025   3.329 -0.3728  0.0459 -1.2068
 8401SOL     OW35516   2.362  11.370   8.620  0.1126  0.1357  0.5429
 8401SOL    HW135517   2.269  11.384   8.636  0.1460 -0.2250  1.0871
 8401SOL    HW235518   2.402  11.374   8.706  0.7832  1.5030  0.1897
 8402SOL     OW35519   4.622   1.996   7.083 -0.3521 -0.2555 -0.0898
 8402SOL    HW135520   4.629   2.006   6.988  0.0640 -0.1454 -0.0485
 8402SOL    HW235521   4.534   1.959   7.097 -0.8378  0.7411 -0.4323
 8403SOL     OW35522   2.152  10.165  11.544 -0.3121 -0.7815 -0.1013
 8403SOL    HW135523   2.240  10.173  11.508 -0.3783 -0.2141 -0.1402
 8403SOL    HW235524   2.132  10.252  11.579 -0.5044 -1.1536  0.7254
 8404SOL     OW35525   9.935   2.664   6.820 -0.1139 -0.2366 -0.7757
 8404SOL    HW135526   9.948   2.644   6.727  0.0446  1.0535 -1.0523
 8404SOL    HW235527  10.003   2.614   6.865  1.2862  0.8556 -1.5741
 8405SOL     OW35528   9.397  11.997  11.814 -0.2504  0.1535  0.4574
 8405SOL    HW135529   9.412  12.091  11.805 -0.0428  0.0169 -0.7963
 8405SOL    HW235530   9.382  11.967  11.725 -4.3402 -0.3671  1.1449
 8406SOL     OW35531   4.202   9.416  11.697  0.7061  0.1168 -0.7455
 8406SOL    HW135532   4.288   9.448  11.724  0.0249  0.5815  1.0103
 8406SOL    HW235533   4.189   9.337  11.749 -0.0543  0.2317 -0.7489
 8407SOL     OW35534   2.610   1.394   4.724  0.4185  0.4743  0.1130
 8407SOL    HW135535   2.694   1.350   4.740  0.5290  0.2107 -1.0887
 8407SOL    HW235536   2.610   1.468   4.784  1.6701  0.6714 -0.1030
 8408SOL     OW35537   9.390   0.815  12.078  0.0977 -0.1006  0.0941
 8408SOL    HW135538   9.351   0.781  11.997  0.7689  0.1365 -0.3305
 8408SOL    HW235539   9.480   0.835  12.055  0.4375 -0.4804  1.0267
 8409SOL     OW35540   9.754  10.877   3.281  0.4024 -0.1035 -0.3756
 8409SOL    HW135541   9.661  10.883   3.261  0.3468  3.7382  0.3987
 8409SOL    HW235542   9.758  10.851   3.373  0.0032  1.2798  0.0466
 8410SOL     OW35543   8.926  10.180   9.138 -0.1152 -0.9292 -0.2443
 8410SOL    HW135544   8.963  10.094   9.159  0.0225 -0.6007  0.9399
 8410SOL    HW235545   8.946  10.234   9.215 -3.9336 -1.0091  1.0160
 8411SOL     OW35546   6.757   9.089  10.557  0.0478 -0.0564  0.3206
 8411SOL    HW135547   6.774   9.180  10.579  0.1997 -0.4819  2.1042
 8411SOL    HW235548   6.777   9.083  10.464 -2.0719  2.2378 -0.4015
 8412SOL     OW35549  10.851   1.746   1.103 -0.4016 -0.3087  0.5319
 8412SOL    HW135550  10.776   1.782   1.056  0.3644  0.3353 -0.2319
 8412SOL    HW235551  10.824   1.746   1.195 -0.9262  0.9363  0.3932
 8413SOL     OW35552   7.782   0.786   3.012 -0.1127  0.3613 -0.1902
 8413SOL    HW135553   7.785   0.698   3.049  2.0139  0.7315  0.6546
 8413SOL    HW235554   7.731   0.777   2.932  0.4240 -1.7401 -0.3438
 8414SOL     OW35555   6.118   8.714   7.259 -0.3567 -0.7266 -0.0982
 8414SOL    HW135556   6.085   8.762   7.335 -0.4948 -0.9769 -0.0024
 8414SOL    HW235557   6.127   8.624   7.289  2.0622 -0.3728  0.4215
 8415SOL     OW35558   2.017   7.983   2.109 -0.3126  0.1166  0.0069
 8415SOL    HW135559   1.990   7.983   2.018  0.9131  0.6584 -0.3837
 8415SOL    HW235560   2.109   7.957   2.107 -0.9817 -2.7249  1.3724
 8416SOL     OW35561   1.879   6.419   0.842 -0.9019  0.4919 -0.3601
 8416SOL    HW135562   1.901   6.458   0.927 -1.0075  0.9513 -0.5410
 8416SOL    HW235563   1.935   6.342   0.836  0.9578  1.8126 -0.9533
 8417SOL     OW35564  11.526   0.957   2.068  0.2909 -0.4689  0.1148
 8417SOL    HW135565  11.507   0.943   1.975  1.1519  0.3469 -0.1989
 8417SOL    HW235566  11.530   1.052   2.078 -0.3550 -0.5336  1.1149
 8418SOL     OW35567   6.916   2.885   0.562  0.1418  0.1290  0.1239
 8418SOL    HW135568   6.998   2.934   0.567  0.1919  0.2545 -1.3625
 8418SOL    HW235569   6.870   2.923   0.487 -1.3209  0.1023  0.9653
 8419SOL     OW35570   1.930   2.937   4.634 -0.6704  0.2629 -0.6138
 8419SOL    HW135571   1.996   2.991   4.678 -0.9266 -0.5933  0.9145
 8419SOL    HW235572   1.968   2.849   4.635 -1.4675 -0.0869 -0.4746
 8420SOL     OW35573   5.383   1.181   3.151 -0.1220 -0.0324 -0.3187
 8420SOL    HW135574   5.341   1.096   3.142  0.7671 -0.5635  0.4138
 8420SOL    HW235575   5.319   1.234   3.198 -1.5787  0.4107 -2.6194
 8421SOL     OW35576   6.496   2.029  11.920  0.6074 -0.0869 -0.1242
 8421SOL    HW135577   6.582   1.988  11.924  0.3601 -0.6264 -0.3307
 8421SOL    HW235578   6.435   1.958  11.898  0.0576  0.2168  0.3654
 8422SOL     OW35579   0.773  11.143   8.106  0.6481  0.2416  0.4706
 8422SOL    HW135580   0.785  11.237   8.123  2.5914  0.2035 -0.3311
 8422SOL    HW235581   0.863  11.110   8.097 -0.0042 -0.9254 -3.1318
 8423SOL     OW35582   3.248  12.246   2.539  0.5799  0.3014  0.2184
 8423SOL    HW135583   3.269  12.153   2.529  0.6055  0.3073  0.2177
 8423SOL    HW235584   3.326  12.284   2.580  0.8892  0.4832 -0.5334
 8424SOL     OW35585   9.130  11.449   2.207  0.5254 -0.1722 -0.1339
 8424SOL    HW135586   9.144  11.402   2.125  0.2303  0.1033 -0.3462
 8424SOL    HW235587   9.080  11.527   2.181 -0.3454 -0.5238  0.4199
 8425SOL     OW35588   2.838   4.446   7.200  0.0498 -0.0519  0.4015
 8425SOL    HW135589   2.871   4.485   7.281 -1.2754  1.4768  0.2479
 8425SOL    HW235590   2.890   4.488   7.131 -0.5941  0.6247  0.3129
 8426SOL     OW35591  11.018  11.750   2.604 -0.2321  0.4269  0.1794
 8426SOL    HW135592  11.079  11.710   2.666  0.0936  1.1540  0.3282
 8426SOL    HW235593  11.057  11.834   2.581 -0.9487  0.6974 -0.0864
 8427SOL     OW35594   9.784  12.721   1.423  0.3320  0.7309  0.3467
 8427SOL    HW135595   9.748  12.696   1.338  1.3760  1.2606 -0.2687
 8427SOL    HW235596   9.839  12.797   1.404  1.3297  0.2719  1.3369
 8428SOL     OW35597   0.984  11.147   0.296 -0.1066  0.1013  0.3185
 8428SOL    HW135598   0.998  11.165   0.389 -0.5341 -1.5122  0.7450
 8428SOL    HW235599   1.042  11.073   0.277  0.0649  0.4975 -0.7296
 8429SOL     OW35600  11.390   6.708   7.688  0.3330  0.0245 -0.2186
 8429SOL    HW135601  11.378   6.653   7.611 -0.8056  1.0782 -0.8190
 8429SOL    HW235602  11.440   6.784   7.657  1.8183 -0.5638  0.5875
 8430SOL     OW35603   4.243   2.664   5.637  0.1351 -0.4507  0.6897
 8430SOL    HW135604   4.213   2.615   5.559 -0.0077 -0.6775  0.8836
 8430SOL    HW235605   4.176   2.647   5.703 -1.1013  1.8027  0.1107
 8431SOL     OW35606   6.544  12.164   5.429 -0.1464 -0.3057  0.5051
 8431SOL    HW135607   6.527  12.241   5.374 -0.2308 -0.0957  0.8194
 8431SOL    HW235608   6.458  12.125   5.444 -0.2307  0.1280  1.1907
 8432SOL     OW35609  12.442  11.888   5.164 -0.1962  0.2740  0.3085
 8432SOL    HW135610  12.352  11.876   5.135 -0.0578 -1.3690  0.4834
 8432SOL    HW235611  12.437  11.884   5.260  0.3424 -2.6853  0.3210
 8433SOL     OW35612   0.900   3.477   5.775 -0.1244  0.1243 -0.0177
 8433SOL    HW135613   0.908   3.549   5.713  0.0621  0.2833  0.1892
 8433SOL    HW235614   0.828   3.423   5.741 -1.1625  1.1160  0.5140
 8434SOL     OW35615   5.621   4.285   6.427 -0.0822 -0.5313 -0.7192
 8434SOL    HW135616   5.582   4.349   6.366 -0.3452 -1.9962 -2.1665
 8434SOL    HW235617   5.653   4.215   6.370  1.0449 -1.2576  0.7539
 8435SOL     OW35618   2.177   5.098  12.065 -1.2716  0.1107 -0.1883
 8435SOL    HW135619   2.210   5.183  12.093  0.5650  0.0549 -1.9325
 8435SOL    HW235620   2.088   5.115  12.034 -0.9265  1.4092 -0.5290
 8436SOL     OW35621   1.364   9.547   1.944  0.2275 -0.5043  0.1887
 8436SOL    HW135622   1.287   9.572   1.894 -1.2981 -0.8584  2.2530
 8436SOL    HW235623   1.430   9.613   1.921 -1.0716  0.5489 -0.6525
 8437SOL     OW35624   9.864   4.655   7.584  0.7536 -0.5960 -0.3042
 8437SOL    HW135625   9.787   4.709   7.604 -0.4855 -1.8582 -1.4780
 8437SOL    HW235626   9.939   4.711   7.607 -0.4838  1.1321 -0.2867
 8438SOL     OW35627  10.193   5.292   3.565 -0.2009  0.0036  0.4155
 8438SOL    HW135628  10.195   5.196   3.570  1.9074 -0.0295 -0.2569
 8438SOL    HW235629  10.281   5.319   3.592 -0.1618  1.6502 -1.1856
 8439SOL     OW35630   8.807   1.164   7.359 -0.2661 -0.1266  0.4135
 8439SOL    HW135631   8.738   1.198   7.302  0.8809  0.1830 -0.8260
 8439SOL    HW235632   8.768   1.165   7.447 -1.1344  2.0896  0.0689
 8440SOL     OW35633   1.662   0.908   3.108 -0.0384 -0.3895 -0.2495
 8440SOL    HW135634   1.607   0.838   3.143  0.9365 -1.4413 -0.7422
 8440SOL    HW235635   1.729   0.923   3.174  0.2534 -0.5267 -0.5091
 8441SOL     OW35636  10.390  10.616   1.727  0.4808 -0.1755  0.5361
 8441SOL    HW135637  10.456  10.561   1.769  0.3588 -0.3494  0.5014
 8441SOL    HW235638  10.320  10.624   1.792  1.0084  0.8975  0.9841
 8442SOL     OW35639   3.370   6.103   5.571 -0.1402  0.3070  0.2942
 8442SOL    HW135640   3.447   6.123   5.517 -1.8882  1.2426 -2.0087
 8442SOL    HW235641   3.403   6.042   5.637  2.5500  0.5774 -0.6500
 8443SOL     OW35642  12.442   7.602   1.263  0.0820  0.3589  0.4882
 8443SOL    HW135643  12.494   7.673   1.302  2.8777  0.3016 -2.6526
 8443SOL    HW235644  12.414   7.638   1.179 -0.7044 -1.3734 -0.0232
 8444SOL     OW35645   0.762   1.618   3.644  0.2351 -0.6933 -0.5629
 8444SOL    HW135646   0.724   1.608   3.731  1.0349 -0.2358 -0.1469
 8444SOL    HW235647   0.701   1.674   3.596  0.7012  0.5990  0.3094
 8445SOL     OW35648  10.849  12.007   8.190 -0.0078 -0.8976  0.2444
 8445SOL    HW135649  10.790  12.079   8.209  0.2059 -0.5575 -0.3483
 8445SOL    HW235650  10.848  11.953   8.269 -1.4313 -1.1295  0.0977
 8446SOL     OW35651  12.701   6.774   5.419  0.6058 -0.2581  0.3454
 8446SOL    HW135652  12.730   6.865   5.421 -0.4926  0.0977  1.0023
 8446SOL    HW235653  12.704   6.746   5.510  1.1989 -0.9762  0.1127
 8447SOL     OW35654   6.196  10.848   2.164 -0.5570  0.1369 -0.5344
 8447SOL    HW135655   6.270  10.860   2.223  0.0298 -0.7968 -1.0594
 8447SOL    HW235656   6.153  10.769   2.196 -0.6202 -0.0007 -0.9527
 8448SOL     OW35657  10.340   4.289   8.605 -0.1541 -0.0784  0.4246
 8448SOL    HW135658  10.367   4.238   8.682  0.9961  1.2475  0.9442
 8448SOL    HW235659  10.254   4.325   8.629 -0.1741 -0.3329  0.7479
 8449SOL     OW35660  11.515   1.265   3.002  0.4427  0.3749  0.5231
 8449SOL    HW135661  11.552   1.353   3.010 -0.2678  0.6830  0.4716
 8449SOL    HW235662  11.430   1.271   3.046  0.1995 -0.1695  0.1335
 8450SOL     OW35663   5.284   4.819   4.450 -0.5808 -0.5586 -0.1504
 8450SOL    HW135664   5.280   4.770   4.532  0.2142  0.2356  0.3783
 8450SOL    HW235665   5.247   4.904   4.471 -0.2810 -0.3150 -0.5986
 8451SOL     OW35666  12.190   8.473   9.172  0.2101  0.1212  0.6133
 8451SOL    HW135667  12.188   8.569   9.165 -0.7914  0.4041  3.3889
 8451SOL    HW235668  12.273   8.454   9.216 -0.2856 -0.0986  1.4876
 8452SOL     OW35669   4.228   8.501  10.703 -0.4677 -0.2817 -0.2504
 8452SOL    HW135670   4.199   8.420  10.661  0.8050 -1.1906  0.5211
 8452SOL    HW235671   4.213   8.486  10.796 -1.9346  1.1348 -0.2285
 8453SOL     OW35672  12.793  10.316  10.217 -0.7208 -0.1033  0.7520
 8453SOL    HW135673  12.851  10.386  10.187 -0.6521 -0.2757  0.4826
 8453SOL    HW235674  12.719  10.363  10.257 -1.3896  0.1755 -0.7277
 8454SOL     OW35675   5.485   5.942  10.579 -0.0665  0.1538  0.1394
 8454SOL    HW135676   5.486   6.008  10.509 -1.4400  0.4772  0.3992
 8454SOL    HW235677   5.423   5.976  10.643  0.3819 -0.6559  1.0217
 8455SOL     OW35678   2.065  10.303   0.194 -0.0436  0.3612  0.5488
 8455SOL    HW135679   2.120  10.236   0.234  1.1819  0.9825 -0.0199
 8455SOL    HW235680   2.127  10.358   0.146 -1.4383 -0.3208 -2.1806
 8456SOL     OW35681   4.055   4.913   1.081  0.1666 -0.5097  0.1130
 8456SOL    HW135682   4.059   4.981   1.013 -1.1990 -1.7486 -1.2971
 8456SOL    HW235683   4.064   4.831   1.033 -2.5013 -1.5302  1.1307
 8457SOL     OW35684  10.122   2.862   7.574  0.6549  0.2199  0.5951
 8457SOL    HW135685  10.062   2.904   7.512 -0.2296 -0.5786  0.8860
 8457SOL    HW235686  10.081   2.875   7.660  0.4321 -1.0867  0.7073
 8458SOL     OW35687  10.163   9.699   1.420 -0.2666  0.3113  0.5314
 8458SOL    HW135688  10.179   9.775   1.475  0.8038 -0.2905  1.0798
 8458SOL    HW235689  10.250   9.667   1.397 -0.6942 -1.0414  0.7236
 8459SOL     OW35690   4.400   0.561   2.631 -0.5068  0.7375  0.0344
 8459SOL    HW135691   4.365   0.474   2.607  1.2552 -0.0221  0.0817
 8459SOL    HW235692   4.325   0.606   2.670 -1.7007 -0.4404 -0.7699
 8460SOL     OW35693   6.574  12.784  10.436  0.1817 -0.8851 -0.0556
 8460SOL    HW135694   6.658  12.829  10.426 -0.1102 -0.4024 -0.3678
 8460SOL    HW235695   6.532  12.829  10.510  0.5344 -1.6608  0.6364
 8461SOL     OW35696   4.543   7.291   5.806  0.0672  0.1782  0.0332
 8461SOL    HW135697   4.461   7.340   5.809 -0.1545 -0.1141 -0.9165
 8461SOL    HW235698   4.519   7.204   5.775  0.4400 -0.6256  1.8596
 8462SOL     OW35699   1.150  12.494   8.272  0.1319  0.0159 -0.5558
 8462SOL    HW135700   1.200  12.478   8.353  1.0885 -0.9591 -1.3212
 8462SOL    HW235701   1.060  12.505   8.302  0.8736  2.9527  1.0010
 8463SOL     OW35702   9.230   1.962  10.669 -0.1230  0.4169  0.3945
 8463SOL    HW135703   9.325   1.960  10.656 -0.4282 -1.2543 -2.2920
 8463SOL    HW235704   9.200   2.033  10.612 -0.6096 -0.1337 -0.0455
 8464SOL     OW35705   2.720   4.951   1.504  0.7681 -0.2648 -0.2157
 8464SOL    HW135706   2.786   4.895   1.463  2.7455  1.4501  0.4188
 8464SOL    HW235707   2.770   5.011   1.559 -1.3096  1.3529  0.0619
 8465SOL     OW35708  12.169  11.711  10.754  0.4559  0.0466  0.1527
 8465SOL    HW135709  12.180  11.750  10.667 -3.8681  1.7875  0.1483
 8465SOL    HW235710  12.176  11.786  10.814  0.8756 -0.7239  1.0912
 8466SOL     OW35711   3.353   5.515   6.179 -0.1981 -0.0948  0.1644
 8466SOL    HW135712   3.384   5.426   6.190  1.8845  0.5736  0.0517
 8466SOL    HW235713   3.362   5.533   6.086 -2.4190 -0.3584 -0.1484
 8467SOL     OW35714   0.382  10.829   7.676  0.0807  0.2512  0.3616
 8467SOL    HW135715   0.323  10.903   7.663 -1.1973 -0.9159 -0.7210
 8467SOL    HW235716   0.338  10.755   7.635  1.2821 -1.1540  1.4780
 8468SOL     OW35717   5.311  11.012   5.842  0.3012  0.0190 -0.3639
 8468SOL    HW135718   5.283  11.089   5.793  0.6899 -1.0359 -2.3425
 8468SOL    HW235719   5.309  10.940   5.779  1.9173 -1.2066  0.8651
 8469SOL     OW35720   9.160   1.886  11.600 -0.2266 -0.3134 -0.3642
 8469SOL    HW135721   9.093   1.862  11.535 -0.4859  1.1851 -0.6991
 8469SOL    HW235722   9.208   1.958  11.559 -1.3665  1.7410  1.6135
 8470SOL     OW35723  11.587   0.721   4.462  0.0090  0.2464  0.3221
 8470SOL    HW135724  11.553   0.772   4.388  0.6003 -0.2714 -0.3341
 8470SOL    HW235725  11.528   0.646   4.469 -0.4857  0.6900  0.8643
 8471SOL     OW35726   9.080   1.495   6.010 -0.0048 -0.0617  0.2063
 8471SOL    HW135727   9.044   1.422   6.060 -1.4090 -0.9710 -1.9774
 8471SOL    HW235728   9.110   1.558   6.076  1.1921 -2.5383  2.1706
 8472SOL     OW35729   9.920   0.367   3.094  0.2052 -0.1871  0.5220
 8472SOL    HW135730  10.015   0.371   3.106  0.2000  2.3285  0.2880
 8472SOL    HW235731   9.906   0.399   3.005 -0.8805 -0.8047  0.4470
 8473SOL     OW35732   5.325   7.591   5.552 -0.0227 -0.1781  0.2133
 8473SOL    HW135733   5.268   7.637   5.613  0.0573  0.4961 -0.2054
 8473SOL    HW235734   5.368   7.523   5.604 -0.5914 -0.1574  0.7053
 8474SOL     OW35735   5.890   2.785  11.759 -0.3037 -0.2187  0.6225
 8474SOL    HW135736   5.795   2.776  11.767 -0.6015 -1.3002 -2.4669
 8474SOL    HW235737   5.909   2.753  11.670  2.8561  0.7810  0.8205
 8475SOL     OW35738   3.185   4.283   5.319  0.0115  0.3819 -0.3867
 8475SOL    HW135739   3.272   4.285   5.279 -0.4994  0.1708 -1.5430
 8475SOL    HW235740   3.152   4.195   5.299 -1.0283  0.9343 -1.2169
 8476SOL     OW35741   2.343   4.308   1.763 -0.1701 -0.4088  0.0157
 8476SOL    HW135742   2.250   4.329   1.759  0.0543  1.2198  1.7957
 8476SOL    HW235743   2.347   4.221   1.802 -0.9667 -0.5870 -0.3052
 8477SOL     OW35744  11.717   2.904   1.882  0.1524  0.1782  0.4182
 8477SOL    HW135745  11.679   2.938   1.963  1.8015  2.6209  0.2811
 8477SOL    HW235746  11.735   2.982   1.829  1.2583 -1.1777 -1.3342
 8478SOL     OW35747   9.444   0.804   6.650 -0.0379 -0.2980 -0.1703
 8478SOL    HW135748   9.456   0.898   6.664 -1.2956 -0.3067  1.2125
 8478SOL    HW235749   9.531   0.767   6.659  0.7604  0.9023 -2.4304
 8479SOL     OW35750   2.663   8.043   9.966 -0.9317 -0.0477 -0.0051
 8479SOL    HW135751   2.635   8.131   9.992 -2.2810 -0.8478  1.4942
 8479SOL    HW235752   2.697   8.004  10.047  0.6466 -0.5715 -0.8833
 8480SOL     OW35753   6.262  10.124  10.297 -0.1573 -0.2145  0.0724
 8480SOL    HW135754   6.276  10.218  10.287  1.5599 -0.3339  1.0194
 8480SOL    HW235755   6.181  10.118  10.347 -1.3630  0.6665 -1.6472
 8481SOL     OW35756   7.451  11.510  12.386  0.0823  0.4824 -0.0682
 8481SOL    HW135757   7.488  11.590  12.423 -0.3878  0.2475  0.9400
 8481SOL    HW235758   7.458  11.522  12.292  3.4183  0.1466 -0.0052
 8482SOL     OW35759   5.152   9.435   9.514  0.7542 -0.4642 -0.3340
 8482SOL    HW135760   5.193   9.396   9.437  1.5501 -0.9343  0.3174
 8482SOL    HW235761   5.221   9.438   9.579  0.0460 -0.2128  0.4226
 8483SOL     OW35762  10.856  11.464   1.735 -0.0006  0.2884  0.2380
 8483SOL    HW135763  10.827  11.385   1.779  0.8254  1.1962  2.6006
 8483SOL    HW235764  10.842  11.534   1.799  0.5168  1.8550 -1.2654
 8484SOL     OW35765  11.591   9.396   9.155  0.5219  0.6162  0.0638
 8484SOL    HW135766  11.557   9.378   9.243  1.6504 -0.3790  0.3321
 8484SOL    HW235767  11.609   9.490   9.155 -0.4495  0.8088  0.5462
 8485SOL     OW35768   6.783   7.773   0.992 -0.2271 -0.0628 -0.1563
 8485SOL    HW135769   6.826   7.687   0.982 -1.5386 -0.7368 -0.2380
 8485SOL    HW235770   6.838   7.820   1.055  2.1586  0.1770 -2.2646
 8486SOL     OW35771   4.938   2.051  10.464 -0.0585  0.2731  0.2640
 8486SOL    HW135772   4.911   2.023  10.551  1.0258 -0.7263  0.2980
 8486SOL    HW235773   4.962   2.143  10.475  0.7376 -0.0278  1.1945
 8487SOL     OW35774  10.418  12.065  12.582  0.0021 -1.1227  0.1716
 8487SOL    HW135775  10.373  12.107  12.656  0.3223  0.0167 -0.2631
 8487SOL    HW235776  10.499  12.032  12.620  0.3598 -0.1736  0.2609
 8488SOL     OW35777   9.074   0.560   7.274 -0.4744 -0.1742  0.3875
 8488SOL    HW135778   9.022   0.559   7.194 -0.7721 -2.4549  0.5526
 8488SOL    HW235779   9.165   0.563   7.244 -0.6094  1.1226  0.0470
 8489SOL     OW35780   4.560  10.144   7.772  0.1502  0.0740  0.2435
 8489SOL    HW135781   4.563  10.226   7.822  0.0885 -1.6142  3.2673
 8489SOL    HW235782   4.466  10.126   7.761  0.1405 -0.2762  0.8572
 8490SOL     OW35783   4.421  11.946  10.214 -0.1799 -0.3178  0.1373
 8490SOL    HW135784   4.332  11.925  10.243 -0.3147 -0.7967 -0.6210
 8490SOL    HW235785   4.424  11.921  10.122 -0.1214  2.2676 -0.6523
 8491SOL     OW35786   9.932   4.181   8.769 -0.3008  0.4669 -0.0471
 8491SOL    HW135787   9.899   4.104   8.724 -2.2834  0.5197  1.1750
 8491SOL    HW235788  10.022   4.160   8.791 -0.5485 -1.1437 -0.4753
 8492SOL     OW35789   7.384   8.264   4.335  0.2692  0.7166 -0.0115
 8492SOL    HW135790   7.337   8.218   4.266  1.0135  0.8143 -0.5954
 8492SOL    HW235791   7.449   8.201   4.367  0.0404  0.7286  0.4899
 8493SOL     OW35792   6.132   7.523   6.285  0.1001 -0.2581 -0.0956
 8493SOL    HW135793   6.106   7.563   6.368  0.9472  1.9642 -0.8126
 8493SOL    HW235794   6.227   7.533   6.282  0.1715 -1.0287 -0.9917
 8494SOL     OW35795   4.007   9.888  10.682  0.0745  0.7737  0.0667
 8494SOL    HW135796   4.102   9.900  10.685  0.0597  0.8434  0.2564
 8494SOL    HW235797   3.994   9.810  10.627  0.3508 -0.4845  1.7143
 8495SOL     OW35798   4.443   1.883   2.217  0.0403  0.5493  0.1880
 8495SOL    HW135799   4.420   1.805   2.167  0.2629  0.9292 -0.5272
 8495SOL    HW235800   4.359   1.919   2.247 -0.1921  0.9208 -0.8582
 8496SOL     OW35801  12.424  12.460   1.355  0.1401 -0.3756 -0.0491
 8496SOL    HW135802  12.477  12.475   1.433  0.9990 -0.4092 -0.6033
 8496SOL    HW235803  12.459  12.380   1.316  0.8103  0.4814 -1.3072
 8497SOL     OW35804   8.768   5.903   5.291 -0.2417  0.4368  0.0240
 8497SOL    HW135805   8.806   5.876   5.207 -0.0808  1.0631 -0.1114
 8497SOL    HW235806   8.707   5.973   5.269 -1.6641 -0.6944  0.2181
 8498SOL     OW35807   1.590  12.215   4.565 -0.3872  0.2814  0.0478
 8498SOL    HW135808   1.618  12.125   4.582 -1.7762 -0.1260  0.3311
 8498SOL    HW235809   1.615  12.232   4.474  2.1214  0.5177  0.6954
 8499SOL     OW35810   1.716  10.629   6.873  0.3770  0.1989 -0.3076
 8499SOL    HW135811   1.785  10.656   6.811 -1.5240  0.7103 -2.3344
 8499SOL    HW235812   1.661  10.707   6.882 -0.8477 -0.6870 -0.0459
 8500SOL     OW35813   9.764   5.788   0.857  0.2248  0.7058 -0.3172
 8500SOL    HW135814   9.778   5.825   0.944  1.1049  0.7113 -0.4526
 8500SOL    HW235815   9.822   5.838   0.800  1.1167 -0.5668 -0.5780
 8501SOL     OW35816   2.570  12.867   7.002  0.0675  0.1306  0.1876
 8501SOL    HW135817   2.658  12.903   7.009  0.1958  0.0218 -0.6472
 8501SOL    HW235818   2.584  12.772   6.991 -0.1045  0.1855 -0.6066
 8502SOL     OW35819  10.824  11.389   4.384  0.2239  0.0076  0.5137
 8502SOL    HW135820  10.855  11.477   4.363  0.5439 -0.4985 -1.3174
 8502SOL    HW235821  10.732  11.402   4.409  0.1884  0.8402  0.0033
 8503SOL     OW35822  11.862   4.260   8.985  0.5474  0.0691 -0.1716
 8503SOL    HW135823  11.851   4.332   8.923  0.0997 -1.2757 -1.7255
 8503SOL    HW235824  11.918   4.295   9.054 -1.9558  2.8049  0.6608
 8504SOL     OW35825   7.648   7.214   7.780 -0.0318 -1.2267  0.5834
 8504SOL    HW135826   7.586   7.286   7.771  1.0451 -0.1961  1.1524
 8504SOL    HW235827   7.708   7.242   7.849 -0.0272 -3.0023  1.3557
 8505SOL     OW35828   2.289   8.674   9.433 -0.0134  0.2867  0.3332
 8505SOL    HW135829   2.198   8.656   9.411  0.0647  0.2825  0.0059
 8505SOL    HW235830   2.286   8.754   9.485 -0.1266  0.7787 -0.4213
 8506SOL     OW35831   7.972  10.960   9.498  0.1790 -0.2776 -0.4550
 8506SOL    HW135832   7.919  11.038   9.480  1.0877  1.1505  2.5011
 8506SOL    HW235833   7.982  10.918   9.412 -1.4001  2.1404 -1.9519
 8507SOL     OW35834   4.063   3.232   0.280  0.2083  0.0232 -0.5311
 8507SOL    HW135835   4.114   3.209   0.358 -0.4054  0.5544  0.0417
 8507SOL    HW235836   4.024   3.316   0.302 -2.6082 -1.2806 -0.0993
 8508SOL     OW35837   2.250   6.559  12.549  0.0493 -0.1030 -0.3648
 8508SOL    HW135838   2.238   6.552  12.643  0.6389 -1.5967 -0.3734
 8508SOL    HW235839   2.168   6.597  12.517 -0.3552 -0.0562  0.6870
 8509SOL     OW35840   8.100  10.876   7.183 -0.2076  0.1935 -0.0073
 8509SOL    HW135841   8.044  10.936   7.134  0.7113  0.9127 -0.2074
 8509SOL    HW235842   8.155  10.834   7.116  0.2502  0.3248  0.2776
 8510SOL     OW35843   3.189   5.628   5.109  0.0077  0.0601  0.1043
 8510SOL    HW135844   3.161   5.537   5.106 -0.2595  0.1525 -0.2657
 8510SOL    HW235845   3.123   5.676   5.059  0.6569  0.3176 -0.5316
 8511SOL     OW35846   9.860   5.546   8.752  0.2863 -0.0570  0.6816
 8511SOL    HW135847   9.767   5.530   8.773  0.0995  2.4496  2.1346
 8511SOL    HW235848   9.908   5.495   8.817 -0.1548  0.5390  1.4947
 8512SOL     OW35849  11.874   7.641   4.677 -0.3889  0.6881 -0.2468
 8512SOL    HW135850  11.940   7.707   4.697  0.6852 -0.4030 -0.0246
 8512SOL    HW235851  11.913   7.558   4.706 -2.0576  0.0534  0.3116
 8513SOL     OW35852   2.311  11.127   8.139  1.0540  0.6240 -0.1682
 8513SOL    HW135853   2.326  11.171   8.055  0.5736 -1.8832 -1.6817
 8513SOL    HW235854   2.339  11.190   8.205  0.5976  3.0597 -2.1585
 8514SOL     OW35855   1.647  10.561   5.260  0.3424 -0.0176  0.5404
 8514SOL    HW135856   1.723  10.516   5.223  1.2697  2.5766 -0.9347
 8514SOL    HW235857   1.615  10.618   5.190 -1.6793  0.5367  1.8125
 8515SOL     OW35858   5.792   0.130   9.867 -1.0137  0.4887  0.4408
 8515SOL    HW135859   5.809   0.169   9.782 -0.9576 -0.8897 -0.2066
 8515SOL    HW235860   5.735   0.193   9.912 -2.1662  0.6299 -1.1292
 8516SOL     OW35861   1.750   9.663   3.091  0.1363  0.3444 -0.0626
 8516SOL    HW135862   1.824   9.658   3.152 -1.3665 -0.4830  1.8024
 8516SOL    HW235863   1.729   9.571   3.072  0.1620  0.5912 -1.3330
 8517SOL     OW35864   2.567   6.164   7.799  0.2244 -0.0813 -0.1952
 8517SOL    HW135865   2.603   6.126   7.879 -0.2454 -1.2820 -0.5275
 8517SOL    HW235866   2.474   6.143   7.802  0.1213  0.2601 -0.8419
 8518SOL     OW35867  10.807   0.693   4.325 -0.3226 -0.1469 -0.1403
 8518SOL    HW135868  10.744   0.621   4.324 -2.5617  1.7053  0.1228
 8518SOL    HW235869  10.810   0.720   4.417 -1.0653  1.3402 -0.5265
 8519SOL     OW35870   2.536   0.164   6.791 -0.1849 -0.2555 -0.1021
 8519SOL    HW135871   2.493   0.129   6.713 -0.5641 -1.6204  0.7037
 8519SOL    HW235872   2.622   0.123   6.792 -0.0212  0.0796 -0.0115
 8520SOL     OW35873   5.468  11.501   9.700  0.3727 -0.0524  0.1345
 8520SOL    HW135874   5.418  11.522   9.621  0.1140  0.6661  0.4746
 8520SOL    HW235875   5.406  11.515   9.772  1.0681  0.9446  0.5643
 8521SOL     OW35876   7.590   2.669   4.737  0.3117  0.0054  0.0259
 8521SOL    HW135877   7.647   2.698   4.809  1.5850 -1.4646 -0.3346
 8521SOL    HW235878   7.645   2.678   4.659 -0.1050 -1.0300 -0.3972
 8522SOL     OW35879   7.365  10.088  10.305  0.2095  0.0214 -0.3237
 8522SOL    HW135880   7.405  10.028  10.367 -0.7117  1.0027  1.2711
 8522SOL    HW235881   7.274  10.058  10.297  0.4411 -0.4099 -1.6353
 8523SOL     OW35882   5.468   8.192   1.163 -0.2220 -0.0000 -0.3852
 8523SOL    HW135883   5.403   8.262   1.159 -0.3018 -0.0255  0.3114
 8523SOL    HW235884   5.435   8.132   1.230  1.1691  0.6853  0.9916
 8524SOL     OW35885   9.707   2.611   4.876  0.0847  0.4777 -0.3717
 8524SOL    HW135886   9.798   2.624   4.904  0.3287 -1.6034 -0.0160
 8524SOL    HW235887   9.656   2.668   4.933  0.9894 -0.1828  1.1713
 8525SOL     OW35888   6.977   0.406  12.798  0.3746  0.3308  0.6159
 8525SOL    HW135889   6.910   0.339  12.807  0.9802 -0.2695  0.8020
 8525SOL    HW235890   6.976   0.430  12.705 -0.6627  0.9445  0.7762
 8526SOL     OW35891  11.328   6.573   3.507  0.3300  0.1735  0.6555
 8526SOL    HW135892  11.408   6.587   3.457 -0.0488 -0.0052 -0.0139
 8526SOL    HW235893  11.302   6.483   3.486  0.2104  0.0646  1.2459
 8527SOL     OW35894  12.167   7.400   3.527  0.1666 -0.3528 -0.4032
 8527SOL    HW135895  12.146   7.355   3.609 -2.4218 -0.8709 -1.2669
 8527SOL    HW235896  12.256   7.370   3.506 -0.5022 -3.2010  0.3348
 8528SOL     OW35897  11.356   9.885   1.419  0.6316 -0.1857  0.7124
 8528SOL    HW135898  11.416   9.830   1.368  0.2855 -1.0893  1.2433
 8528SOL    HW235899  11.316   9.943   1.355 -0.4884 -1.9220 -0.2622
 8529SOL     OW35900  10.566  12.756   7.344 -0.7070 -0.2065 -0.7014
 8529SOL    HW135901  10.476  12.775   7.373 -0.6247  0.0562 -0.6141
 8529SOL    HW235902  10.604  12.842   7.328  0.0700 -0.2268  0.8787
 8530SOL     OW35903   7.653   8.676  12.292  0.4986  0.1077 -0.4669
 8530SOL    HW135904   7.640   8.680  12.197 -0.1700  0.2492 -0.3746
 8530SOL    HW235905   7.569   8.704  12.328  2.1418  5.3585  0.1915
 8531SOL     OW35906   5.294   2.895   1.663  0.4725  0.2434  0.3897
 8531SOL    HW135907   5.337   2.978   1.680 -2.8630  2.3948 -0.8036
 8531SOL    HW235908   5.264   2.901   1.573 -1.3556 -1.5090  0.8120
 8532SOL     OW35909   5.144   4.314   4.056 -0.0545 -0.2520  0.4919
 8532SOL    HW135910   5.232   4.285   4.034  0.4417  1.3693  0.2087
 8532SOL    HW235911   5.109   4.350   3.974 -0.4459  0.3888  0.9301
 8533SOL     OW35912   2.289  12.283   7.217 -0.1383  0.4673  0.4438
 8533SOL    HW135913   2.374  12.261   7.256  1.1714 -0.2463 -2.5185
 8533SOL    HW235914   2.297  12.376   7.195 -0.6208  0.7085  1.2664
 8534SOL     OW35915   4.929  10.069   9.442 -0.2875 -0.5486 -0.7232
 8534SOL    HW135916   4.881   9.986   9.442 -1.8118  0.2687  0.7791
 8534SOL    HW235917   4.963  10.078   9.531  0.8323 -0.0627 -1.1730
 8535SOL     OW35918   6.383   7.089   3.322  0.2314 -0.3389  0.3132
 8535SOL    HW135919   6.433   7.162   3.286 -0.7048  0.4322  0.5437
 8535SOL    HW235920   6.437   7.055   3.393 -0.2015  1.4411  1.5635
 8536SOL     OW35921  10.150   9.069   9.028  0.0157 -0.1364  0.2253
 8536SOL    HW135922  10.084   9.129   9.064  0.7912  1.4266 -0.7956
 8536SOL    HW235923  10.218   9.066   9.095  0.5994  1.2782 -0.2508
 8537SOL     OW35924  11.591   3.152   3.449 -0.2108  0.3232  0.5316
 8537SOL    HW135925  11.516   3.093   3.434  1.5486 -1.8117 -0.4491
 8537SOL    HW235926  11.601   3.200   3.367 -0.3732  0.4592  0.5907
 8538SOL     OW35927   1.997   5.899   3.860  0.1523  0.5494  0.2087
 8538SOL    HW135928   2.014   5.985   3.900  0.3418  0.7765 -0.3464
 8538SOL    HW235929   1.984   5.918   3.767  2.0292 -0.2062 -0.2561
 8539SOL     OW35930   8.420   5.845   4.371  0.4518  0.4121  0.1873
 8539SOL    HW135931   8.326   5.864   4.373  0.3469  0.0118 -0.6092
 8539SOL    HW235932   8.460   5.928   4.345  0.1650  0.1535 -1.1788
 8540SOL     OW35933   2.394  12.176   4.689  0.0372 -0.2827 -0.1685
 8540SOL    HW135934   2.313  12.133   4.717 -2.1408  2.2999 -1.9512
 8540SOL    HW235935   2.413  12.138   4.604  1.6568 -1.9407  0.8709
 8541SOL     OW35936   6.693   9.574   3.640 -0.3660 -0.4398  0.1428
 8541SOL    HW135937   6.672   9.511   3.570  0.9010 -0.5119 -0.2014
 8541SOL    HW235938   6.740   9.522   3.705  0.7820  0.1529 -0.1936
 8542SOL     OW35939   0.560   0.578  12.446  0.2217 -0.2812 -0.9126
 8542SOL    HW135940   0.569   0.673  12.443 -0.5608 -0.1714 -0.0605
 8542SOL    HW235941   0.512   0.557  12.366 -0.8337  0.2003 -0.4217
 8543SOL     OW35942   9.467  12.371   4.318  0.0116  0.0037 -0.2228
 8543SOL    HW135943   9.376  12.360   4.291 -0.5869 -0.5501  1.8802
 8543SOL    HW235944   9.462  12.413   4.403  1.7530  0.2031 -0.1906
 8544SOL     OW35945  11.007  10.764  10.641 -0.9629  0.1940 -0.0454
 8544SOL    HW135946  10.917  10.794  10.652 -0.4806  1.5356  0.4573
 8544SOL    HW235947  11.032  10.794  10.554 -1.1088 -0.5309 -0.3498
 8545SOL     OW35948   3.073  11.049  11.770  0.3680 -0.1180  0.4117
 8545SOL    HW135949   3.134  11.010  11.707 -2.3987 -0.6070 -2.1921
 8545SOL    HW235950   2.987  11.040  11.729 -1.2870  2.2731  2.9924
 8546SOL     OW35951  12.648  11.611   8.574 -0.5287  0.1900  0.2088
 8546SOL    HW135952  12.594  11.651   8.506 -0.9620  0.6846  0.8312
 8546SOL    HW235953  12.725  11.666   8.580 -1.4241  1.3646  1.5259
 8547SOL     OW35954  12.571   7.487   1.674  0.0536  0.0669  0.0709
 8547SOL    HW135955  12.483   7.453   1.657 -0.2009  0.6060  0.2836
 8547SOL    HW235956  12.556   7.574   1.712  0.6290 -0.5760  1.8901
 8548SOL     OW35957  10.232   0.322   1.907  0.1333  0.3653 -0.2028
 8548SOL    HW135958  10.262   0.232   1.908 -0.0814  0.2983  0.2555
 8548SOL    HW235959  10.252   0.356   1.994  0.8040  0.9625 -0.5750
 8549SOL     OW35960   1.744  11.191   0.060  0.0249 -0.1040 -0.0219
 8549SOL    HW135961   1.726  11.285   0.056  0.7709  0.0256 -1.7717
 8549SOL    HW235962   1.682  11.156   0.123  0.2496  1.6760  1.2466
 8550SOL     OW35963   7.856   5.210   7.559 -0.2112 -0.1754  0.4071
 8550SOL    HW135964   7.782   5.262   7.591 -0.0349  0.0226  0.4921
 8550SOL    HW235965   7.833   5.120   7.581 -0.5888 -0.1546  0.1228
 8551SOL     OW35966   9.344   9.851  11.506 -0.1397 -0.0859 -0.0745
 8551SOL    HW135967   9.437   9.832  11.519 -0.2035  0.1855  0.8349
 8551SOL    HW235968   9.336   9.866  11.412  0.3853 -1.9878 -0.4582
 8552SOL     OW35969   1.648   3.870  12.284 -0.6837 -0.3743  0.5312
 8552SOL    HW135970   1.562   3.901  12.257 -0.4731  0.6793  1.0320
 8552SOL    HW235971   1.676   3.814  12.212 -1.1017  0.5712 -0.4041
 8553SOL     OW35972   9.331   4.334   5.547  0.0507 -0.3745  0.3463
 8553SOL    HW135973   9.293   4.273   5.610 -0.8730 -0.4673 -0.2943
 8553SOL    HW235974   9.344   4.415   5.598  0.9483 -0.9749  1.0983
 8554SOL     OW35975   1.608   5.403   2.970  0.2264 -0.5789  0.4785
 8554SOL    HW135976   1.526   5.399   2.919 -1.8649  1.7541  3.3069
 8554SOL    HW235977   1.659   5.472   2.928  0.1306 -1.0907 -0.4996
 8555SOL     OW35978   4.317  10.388  12.068  0.0853 -0.6380 -0.0098
 8555SOL    HW135979   4.287  10.314  12.120  2.1168 -1.3792  0.1629
 8555SOL    HW235980   4.265  10.462  12.101  0.7828 -1.2037  2.6083
 8556SOL     OW35981   0.179  10.902   5.944 -0.0220 -0.5052 -0.1379
 8556SOL    HW135982   0.123  10.966   5.900 -0.1588 -0.3620  0.2367
 8556SOL    HW235983   0.119  10.852   6.000  0.1866 -0.5024  0.0903
 8557SOL     OW35984  10.422   4.433  11.782 -0.1134  0.2406  0.5648
 8557SOL    HW135985  10.434   4.513  11.833  0.0678  0.7135 -0.2027
 8557SOL    HW235986  10.457   4.364  11.838  1.5029  0.9454  0.4606
 8558SOL     OW35987   3.636  10.908   1.514  0.4284 -0.0976 -0.1534
 8558SOL    HW135988   3.609  10.881   1.426  1.5938 -0.9608 -0.2729
 8558SOL    HW235989   3.556  10.941   1.554 -0.8003 -2.4090 -0.5388
 8559SOL     OW35990   2.847   6.450   9.249  0.4447 -0.0589 -0.1236
 8559SOL    HW135991   2.786   6.502   9.198 -0.9907 -0.4817  1.1134
 8559SOL    HW235992   2.879   6.384   9.187 -1.4878 -0.7541 -0.4419
 8560SOL     OW35993   0.978   4.891  10.311  0.7341  0.2712  0.0975
 8560SOL    HW135994   0.927   4.934  10.242 -0.5962 -2.0353 -0.4494
 8560SOL    HW235995   1.000   4.962  10.371 -1.9335  1.6513 -0.3921
 8561SOL     OW35996   2.042   7.022   3.544  0.1607 -0.5769  0.0800
 8561SOL    HW135997   2.106   7.021   3.615  0.2870 -1.3620 -0.0330
 8561SOL    HW235998   2.082   7.077   3.476  0.3629 -0.4235  0.3215
 8562SOL     OW35999   2.569   7.825   5.328  0.5827 -0.1096 -0.0504
 8562SOL    HW136000   2.561   7.749   5.272  0.5787 -0.4480  0.4044
 8562SOL    HW236001   2.497   7.818   5.390  0.3115  0.5045 -0.2862
 8563SOL     OW36002   2.575   3.454   4.847 -0.5169 -0.0996 -0.0601
 8563SOL    HW136003   2.522   3.529   4.874  1.4164  1.1154  0.6081
 8563SOL    HW236004   2.650   3.493   4.802  0.5184 -1.6359  0.2538
 8564SOL     OW36005  12.241  10.623  11.592  0.6669 -0.4112  0.0355
 8564SOL    HW136006  12.302  10.636  11.665 -2.0258 -1.9272  2.8266
 8564SOL    HW236007  12.187  10.702  11.591 -0.1136 -0.9219  0.5988
 8565SOL     OW36008   3.748  12.187   0.432 -0.2957  0.4844  0.1418
 8565SOL    HW136009   3.812  12.151   0.493 -0.6745 -0.8811 -0.2324
 8565SOL    HW236010   3.749  12.127   0.358 -0.3233  1.7517 -0.9160
 8566SOL     OW36011   4.305   1.298   4.357 -0.4950 -0.3612  0.1437
 8566SOL    HW136012   4.295   1.278   4.450  0.8851 -2.2585 -0.0774
 8566SOL    HW236013   4.374   1.365   4.354 -0.0387 -0.8145  0.4466
 8567SOL     OW36014  12.465   2.814   9.708  0.5462 -0.1443  0.2620
 8567SOL    HW136015  12.559   2.808   9.725  1.0463  1.3357 -1.6472
 8567SOL    HW236016  12.425   2.754   9.771  2.6925 -0.1753  1.6796
 8568SOL     OW36017   6.944  11.306  10.492 -0.0496 -0.3058 -0.1474
 8568SOL    HW136018   6.854  11.307  10.524  0.4274 -0.1789  1.2503
 8568SOL    HW236019   6.976  11.218  10.513  0.6482  0.1736  0.8720
 8569SOL     OW36020   3.438   0.162  11.971  0.0824  0.3431 -0.0452
 8569SOL    HW136021   3.368   0.106  12.004 -0.0052 -0.1388 -1.0233
 8569SOL    HW236022   3.456   0.222  12.043 -1.5279  0.6670  0.1316
 8570SOL     OW36023  11.668   2.661   3.792  0.6532  0.1059 -0.3205
 8570SOL    HW136024  11.717   2.592   3.747  1.7237  0.6533 -0.0283
 8570SOL    HW236025  11.647   2.624   3.878 -2.6630 -1.4900 -1.6973
 8571SOL     OW36026   2.842   3.537   7.270  0.0903 -0.2262  0.1686
 8571SOL    HW136027   2.820   3.552   7.178 -0.8180 -0.3601  0.3550
 8571SOL    HW236028   2.800   3.609   7.317  1.4448  0.4615  0.3912
 8572SOL     OW36029   7.684   8.653  10.525 -0.1610 -0.2777 -0.1439
 8572SOL    HW136030   7.733   8.707  10.463  0.8107  0.2528  1.0570
 8572SOL    HW236031   7.597   8.693  10.528 -0.4762 -0.7596 -1.6957
 8573SOL     OW36032  10.243   9.081   6.553 -0.4003 -0.5930  0.6437
 8573SOL    HW136033  10.279   8.993   6.568 -2.5651 -1.7981 -0.7129
 8573SOL    HW236034  10.195   9.073   6.471  0.1364  2.1754 -0.0341
 8574SOL     OW36035  11.135   2.865   0.779 -0.1299 -0.2533  0.1740
 8574SOL    HW136036  11.218   2.903   0.749 -1.0201  1.6714  0.0017
 8574SOL    HW236037  11.102   2.817   0.703 -0.0407  0.5468 -0.3867
 8575SOL     OW36038   0.044   5.279   9.093 -0.3680  1.0131 -0.0101
 8575SOL    HW136039   0.108   5.334   9.139 -0.0432 -0.4892  1.4382
 8575SOL    HW236040  -0.040   5.304   9.132 -0.0721 -0.3898  1.6274
 8576SOL     OW36041   3.186   5.379   8.430  0.0334  0.2334 -0.3783
 8576SOL    HW136042   3.279   5.389   8.411 -0.1596  1.8706 -0.5820
 8576SOL    HW236043   3.145   5.370   8.344 -0.0613  0.0396 -0.3146
 8577SOL     OW36044   9.976  10.660  11.569  0.7524  0.2894 -0.5369
 8577SOL    HW136045   9.923  10.697  11.499  0.7660 -1.9499 -1.8552
 8577SOL    HW236046  10.060  10.640  11.528  0.7389 -1.1537  0.0702
 8578SOL     OW36047   3.861  12.161   6.909 -0.3273  0.1766 -0.0290
 8578SOL    HW136048   3.836  12.254   6.903 -0.1346  0.3571  1.5392
 8578SOL    HW236049   3.925  12.149   6.839  0.1424  1.4050  0.1604
 8579SOL     OW36050   9.378   2.532   9.905 -0.4529 -0.2116 -0.6785
 8579SOL    HW136051   9.375   2.437   9.890 -1.0491 -0.5570  1.3767
 8579SOL    HW236052   9.364   2.570   9.818 -0.6197 -1.9987 -1.4791
 8580SOL     OW36053   9.332   8.483   2.660  0.0255  0.6342  0.0468
 8580SOL    HW136054   9.394   8.439   2.719 -0.4552 -1.0529 -0.6528
 8580SOL    HW236055   9.388   8.538   2.605  1.4528 -3.1740 -2.6709
 8581SOL     OW36056   8.946  12.951   9.830 -0.5007 -0.0265 -0.2465
 8581SOL    HW136057   8.944  12.859   9.855 -1.7543 -0.4453 -1.6731
 8581SOL    HW236058   8.853  12.976   9.825 -0.2454  2.1945  2.9306
 8582SOL     OW36059   6.098  10.600   0.172  0.1555  0.1270  0.3284
 8582SOL    HW136060   6.092  10.625   0.264  1.0631  1.2986  0.0946
 8582SOL    HW236061   6.167  10.534   0.169 -0.4774 -0.5558  0.5972
 8583SOL     OW36062   4.805   4.670   1.563 -0.1534  0.1320  0.2381
 8583SOL    HW136063   4.777   4.706   1.479 -1.6275  0.1093  0.6923
 8583SOL    HW236064   4.792   4.576   1.555  0.9443 -0.0129  0.0547
 8584SOL     OW36065   5.623   9.647  10.996  0.4022 -0.2159 -0.1880
 8584SOL    HW136066   5.594   9.674  11.083  0.0590  0.0104 -0.3703
 8584SOL    HW236067   5.541   9.631  10.948  0.5902 -1.4788 -0.1134
 8585SOL     OW36068   1.085  10.205  12.216 -0.0329  0.3010  0.1039
 8585SOL    HW136069   0.993  10.231  12.209 -0.4433 -1.1473 -0.0719
 8585SOL    HW236070   1.100  10.146  12.142  1.1585  0.8078 -0.0921
 8586SOL     OW36071   0.738   3.782   4.671  0.5557 -0.0624  0.6572
 8586SOL    HW136072   0.722   3.711   4.609  2.2360 -0.4429  0.6143
 8586SOL    HW236073   0.718   3.861   4.622  2.5294 -0.3145 -0.6623
 8587SOL     OW36074   9.152   8.912   8.572 -0.4056  0.5703 -0.2176
 8587SOL    HW136075   9.066   8.946   8.598 -0.8521 -0.3819 -0.4166
 8587SOL    HW236076   9.146   8.818   8.586  0.4658  0.4442 -0.6352
 8588SOL     OW36077   5.347   7.544   7.576  0.0496 -0.0596  0.3202
 8588SOL    HW136078   5.341   7.457   7.615 -1.6261 -0.0230  0.2389
 8588SOL    HW236079   5.338   7.529   7.482  0.2892  0.1616  0.2585
 8589SOL     OW36080   4.675   2.701   5.998 -0.3278 -0.0344 -0.0935
 8589SOL    HW136081   4.661   2.616   5.956  0.2952  0.8064 -2.1411
 8589SOL    HW236082   4.591   2.745   5.992  0.0227  0.4918 -1.5189
 8590SOL     OW36083   0.796   1.298  10.763 -0.3595  0.1637  0.2738
 8590SOL    HW136084   0.705   1.275  10.743  0.0771 -0.6698 -0.8319
 8590SOL    HW236085   0.819   1.242  10.838 -1.2007  1.4736  1.5833
 8591SOL     OW36086   5.622   5.954   2.610  0.0939  0.7914 -0.1011
 8591SOL    HW136087   5.690   5.888   2.602 -0.7371  0.0774 -1.8422
 8591SOL    HW236088   5.669   6.037   2.615  1.1119  0.2323 -0.2494
 8592SOL     OW36089   3.832  11.253   3.363  0.1443 -0.2598  0.0553
 8592SOL    HW136090   3.821  11.165   3.329 -3.8163  0.8663 -2.2557
 8592SOL    HW236091   3.852  11.307   3.286  1.6327  1.0623  1.2837
 8593SOL     OW36092   1.850   1.629   3.627 -0.1464  0.4511 -0.0212
 8593SOL    HW136093   1.898   1.667   3.553  1.1711  0.5798  0.8690
 8593SOL    HW236094   1.918   1.604   3.689 -1.1336 -1.3016  0.3988
 8594SOL     OW36095   3.078   9.611   9.134 -0.6346  0.0934  0.1266
 8594SOL    HW136096   3.113   9.599   9.045 -0.5002  0.3567  0.1424
 8594SOL    HW236097   3.026   9.691   9.128 -1.7631 -0.6391 -0.0518
 8595SOL     OW36098   4.422   9.080   2.422  0.2261 -0.0636  0.3278
 8595SOL    HW136099   4.397   9.137   2.349  0.9273 -0.1429  0.0175
 8595SOL    HW236100   4.340   9.040   2.451 -0.5372  2.1311  1.4544
 8596SOL     OW36101   8.347  10.702   1.791  0.1647  0.2214 -0.1366
 8596SOL    HW136102   8.397  10.781   1.815  0.3593  0.0931 -0.1145
 8596SOL    HW236103   8.383  10.677   1.706 -0.9345  1.0203 -0.8578
 8597SOL     OW36104   4.778   8.080   0.373 -0.0678  0.1021 -0.2080
 8597SOL    HW136105   4.826   8.048   0.450  0.1924  1.0120  0.0190
 8597SOL    HW236106   4.695   8.111   0.408  0.0633  0.5440 -0.2913
 8598SOL     OW36107  11.609  11.248   5.607 -0.4866  0.1063 -0.2305
 8598SOL    HW136108  11.585  11.340   5.607  1.8621  0.7923  0.1358
 8598SOL    HW236109  11.705  11.248   5.614 -0.5253 -2.3626  2.6537
 8599SOL     OW36110   7.993   9.788  11.451 -0.3582 -0.5093 -0.4881
 8599SOL    HW136111   8.008   9.766  11.359 -1.7744  0.8525 -1.0893
 8599SOL    HW236112   7.996   9.884  11.453  1.1021 -0.5465  1.1717
 8600SOL     OW36113   5.439   4.437   3.159 -0.1762 -0.1720  1.1756
 8600SOL    HW136114   5.407   4.526   3.170  0.0445 -0.1164  1.3668
 8600SOL    HW236115   5.535   4.445   3.158 -0.1046  0.0359 -2.2753
 8601SOL     OW36116   7.628  10.315  12.752  0.1883 -0.1531 -0.1463
 8601SOL    HW136117   7.573  10.327  12.830  0.7960  1.0446  0.1376
 8601SOL    HW236118   7.682  10.394  12.750  0.5631 -0.4253 -1.4895
 8602SOL     OW36119  10.004   3.762   1.809  0.0193  0.2762 -0.1604
 8602SOL    HW136120  10.049   3.747   1.892 -2.5775 -0.3179  1.2439
 8602SOL    HW236121   9.920   3.800   1.834 -0.0763  1.9425 -2.6881
 8603SOL     OW36122   1.714   1.102   6.126  0.6252 -0.0222  0.2454
 8603SOL    HW136123   1.650   1.173   6.131  1.0297  0.5269 -1.7741
 8603SOL    HW236124   1.664   1.024   6.149 -0.0821  0.7403  1.4210
 8604SOL     OW36125   4.162   9.472   6.107 -0.1755 -0.1784 -0.4718
 8604SOL    HW136126   4.186   9.422   6.029  1.9904  1.2687 -0.8037
 8604SOL    HW236127   4.066   9.471   6.107 -0.2267 -2.0708 -1.8904
 8605SOL     OW36128  12.265   3.791   7.663 -0.0992 -0.0098  0.5200
 8605SOL    HW136129  12.316   3.717   7.697 -0.8834 -0.9624 -0.3089
 8605SOL    HW236130  12.224   3.830   7.740 -0.8977 -1.3997  0.8260
 8606SOL     OW36131   0.688   5.390   8.613 -0.2755 -0.0971  0.4007
 8606SOL    HW136132   0.598   5.373   8.640  0.0856 -1.8590  0.5944
 8606SOL    HW236133   0.737   5.315   8.645  1.0059  0.0951 -1.0372
 8607SOL     OW36134   6.076   4.904   2.815 -0.0933  0.3815  0.1973
 8607SOL    HW136135   6.007   4.901   2.881  0.4633 -1.1891  0.7611
 8607SOL    HW236136   6.134   4.830   2.837  1.3957  1.2366 -0.6547
 8608SOL     OW36137   2.827   1.706   4.758 -0.8685 -0.0296  0.5273
 8608SOL    HW136138   2.846   1.619   4.794 -0.1734  0.0786  0.4338
 8608SOL    HW236139   2.817   1.691   4.664  0.7387  0.2026  0.2924
 8609SOL     OW36140   4.856  10.250   8.747  0.0350  0.3293 -0.1747
 8609SOL    HW136141   4.906  10.280   8.823  2.1378  0.1574 -1.4048
 8609SOL    HW236142   4.774  10.300   8.751  0.0971  0.3582  2.1269
 8610SOL     OW36143  11.418  11.086   3.252  0.0133  0.2679 -0.4011
 8610SOL    HW136144  11.329  11.052   3.256  0.4421 -0.7329  0.8393
 8610SOL    HW236145  11.432  11.102   3.158 -1.2431 -0.1237 -0.6817
 8611SOL     OW36146   1.981   1.301   5.130  0.1521 -0.0358 -0.0343
 8611SOL    HW136147   2.011   1.339   5.048 -0.8028  1.7519  0.3801
 8611SOL    HW236148   2.040   1.337   5.196  1.9865 -2.7816 -0.0352
 8612SOL     OW36149   4.289   8.223   0.437 -0.3072  0.4194 -0.0032
 8612SOL    HW136150   4.259   8.133   0.447 -0.3988  0.5844  1.5123
 8612SOL    HW236151   4.315   8.231   0.346 -2.3375 -0.5210 -0.7175
 8613SOL     OW36152   9.775   4.511   6.630  0.1205 -0.1329  0.2130
 8613SOL    HW136153   9.841   4.550   6.688  0.0585  0.0471  0.1631
 8613SOL    HW236154   9.745   4.433   6.677  0.8272 -0.5759 -0.0419
 8614SOL     OW36155   5.847   5.732   3.195  0.1280 -0.5664  0.5853
 8614SOL    HW136156   5.813   5.658   3.144 -1.6529  0.5357  0.0921
 8614SOL    HW236157   5.781   5.746   3.263 -0.2970  1.4275 -0.1848
 8615SOL     OW36158   8.260  12.829   3.149 -0.1037  1.0181  0.0315
 8615SOL    HW136159   8.209  12.755   3.183  0.4909  0.3549 -0.4776
 8615SOL    HW236160   8.196  12.899   3.135 -0.7673  0.4109  0.0030
 8616SOL     OW36161   5.781   0.527   9.380 -0.3432 -0.2438  0.2439
 8616SOL    HW136162   5.731   0.451   9.350 -1.7841  0.4397  0.8267
 8616SOL    HW236163   5.764   0.595   9.314 -1.6912  0.5513  1.3555
 8617SOL     OW36164   8.451   2.270   8.065 -0.3236 -0.2077  0.8716
 8617SOL    HW136165   8.429   2.230   7.981  0.7831 -1.2424  1.0463
 8617SOL    HW236166   8.389   2.231   8.127 -0.8203  0.1895  0.6338
 8618SOL     OW36167  12.766  11.051  11.208 -0.5354  0.1127  0.0642
 8618SOL    HW136168  12.713  11.077  11.283 -1.3062 -0.6162 -0.2055
 8618SOL    HW236169  12.851  11.092  11.223 -1.0775  1.0372  0.6716
 8619SOL     OW36170   7.957   3.856   2.647  0.4233 -0.2512 -0.1346
 8619SOL    HW136171   7.958   3.914   2.571 -0.5492  0.0009  0.0254
 8619SOL    HW236172   7.882   3.797   2.631  0.8801 -0.9065  0.1081
 8620SOL     OW36173  11.913   5.480   8.007  0.2076 -0.3866 -0.2920
 8620SOL    HW136174  11.956   5.396   7.991 -1.3695 -1.3611  0.3519
 8620SOL    HW236175  11.863   5.467   8.088 -0.6603  0.9356 -0.5803
 8621SOL     OW36176  10.534  12.529   5.792  0.2411  0.2295 -0.4331
 8621SOL    HW136177  10.481  12.588   5.846  1.8141  0.9804  0.3343
 8621SOL    HW236178  10.470  12.466   5.757 -1.3223  1.7206 -0.4202
 8622SOL     OW36179   7.665   8.384  10.357  0.2429 -0.4106  0.0867
 8622SOL    HW136180   7.638   8.292  10.363 -1.1890 -0.0171  0.0955
 8622SOL    HW236181   7.596   8.432  10.402  0.6055  0.7346 -0.5432
 8623SOL     OW36182   9.199   4.760   4.129  0.5065  0.1740 -0.4526
 8623SOL    HW136183   9.206   4.706   4.050  0.0232  0.3018 -0.5850
 8623SOL    HW236184   9.256   4.717   4.192 -0.3513 -0.8712 -0.3570
 8624SOL     OW36185  11.501   7.539   9.925 -0.1275  0.6757  0.1031
 8624SOL    HW136186  11.543   7.470   9.976  1.6145 -0.2055 -2.3687
 8624SOL    HW236187  11.424   7.498   9.886 -1.6565  1.4404  2.0771
 8625SOL     OW36188  11.115  11.323  12.892  0.2017  0.4367  0.2635
 8625SOL    HW136189  11.101  11.414  12.865  2.1205  0.3956 -1.0590
 8625SOL    HW236190  11.139  11.277  12.811  1.3197 -0.7666  1.2321
 8626SOL     OW36191   1.451  10.833   8.911  0.3382 -0.3026 -0.1842
 8626SOL    HW136192   1.395  10.769   8.866  0.2254  0.1786 -0.7428
 8626SOL    HW236193   1.526  10.843   8.853  1.4135 -1.5285  0.9285
 8627SOL     OW36194   3.220   0.737   2.288 -0.0275  0.6784  0.2500
 8627SOL    HW136195   3.307   0.760   2.321  0.2204  0.6359 -0.3662
 8627SOL    HW236196   3.165   0.738   2.366  0.2368  2.0707  0.4615
 8628SOL     OW36197   5.296   9.048   6.822 -0.2578 -0.1833 -0.2513
 8628SOL    HW136198   5.251   8.965   6.843 -0.2738 -0.8702 -2.6978
 8628SOL    HW236199   5.344   9.070   6.901 -1.2072 -1.9107  0.8694
 8629SOL     OW36200   8.238   8.865   3.960  0.0185 -0.1090 -0.3824
 8629SOL    HW136201   8.295   8.939   3.937  0.1434 -0.7954 -2.4547
 8629SOL    HW236202   8.290   8.788   3.938 -1.3169 -0.7616 -1.3363
 8630SOL     OW36203   2.993  12.714  10.842  0.4611  0.4976 -0.1958
 8630SOL    HW136204   3.086  12.695  10.853 -0.1432 -2.5360  0.9414
 8630SOL    HW236205   2.974  12.781  10.907  1.9292  1.6144 -0.8766
 8631SOL     OW36206   6.720  12.881   1.599  0.1447 -0.0934 -0.0063
 8631SOL    HW136207   6.663  12.906   1.672  0.3269  1.5103 -0.3644
 8631SOL    HW236208   6.808  12.881   1.636  0.2687  1.0144 -0.2723
 8632SOL     OW36209   0.097   3.567   6.801  0.3312  0.6192 -0.0570
 8632SOL    HW136210   0.042   3.620   6.744 -0.8840 -0.7084 -0.1616
 8632SOL    HW236211   0.049   3.485   6.812  2.2156 -0.5304 -0.0079
 8633SOL     OW36212  12.548  10.825  11.491 -0.4119  0.0130 -0.4965
 8633SOL    HW136213  12.466  10.872  11.479  1.3334  3.3825 -0.4080
 8633SOL    HW236214  12.583  10.815  11.402  0.7656  2.0571 -0.3205
 8634SOL     OW36215   6.009  12.074   5.978  0.1524  0.2987 -0.1654
 8634SOL    HW136216   6.037  12.097   5.890 -1.1238  2.1356 -0.1421
 8634SOL    HW236217   5.927  12.026   5.966  0.0151  0.4838  0.0322
 8635SOL     OW36218   8.820   7.760   5.130 -0.0866  0.0166 -0.2315
 8635SOL    HW136219   8.883   7.826   5.160 -0.4680 -0.3340  1.4439
 8635SOL    HW236220   8.771   7.804   5.061  1.7649  0.4016 -1.3902
 8636SOL     OW36221   5.516   5.247   7.616 -0.2419  0.0958  0.1265
 8636SOL    HW136222   5.526   5.301   7.538 -1.1971  0.0768 -0.0184
 8636SOL    HW236223   5.494   5.159   7.583  1.8246 -0.5484  0.3373
 8637SOL     OW36224   7.100   3.483   3.933 -0.7383  0.3041  0.7483
 8637SOL    HW136225   7.090   3.461   3.841 -1.0058  2.9863  0.0504
 8637SOL    HW236226   7.185   3.447   3.958 -0.1893  0.4291 -0.8326
 8638SOL     OW36227   5.777  10.916   1.431 -0.4219  0.0119  0.3390
 8638SOL    HW136228   5.788  10.855   1.504 -1.8312 -1.5730 -0.7149
 8638SOL    HW236229   5.692  10.957   1.447 -0.6022 -0.1326 -0.2400
 8639SOL     OW36230   6.078   1.841   3.407 -0.0331 -0.6554  0.4394
 8639SOL    HW136231   6.076   1.864   3.500  0.2294  0.2501  0.2349
 8639SOL    HW236232   6.119   1.916   3.365 -1.7846 -0.2407 -0.6414
 8640SOL     OW36233   7.745  12.750   5.963  0.0621  0.0471 -0.1105
 8640SOL    HW136234   7.716  12.710   5.882  1.6544 -1.1702 -0.1281
 8640SOL    HW236235   7.747  12.844   5.944  2.1795 -0.3269 -2.1352
 8641SOL     OW36236   8.982   4.641   4.789 -0.1410  0.3833 -0.5062
 8641SOL    HW136237   8.923   4.614   4.860 -0.5552  0.3352 -0.8689
 8641SOL    HW236238   8.926   4.648   4.712  0.5926 -1.3185 -1.2428
 8642SOL     OW36239   4.517   2.049   0.885  0.6671 -0.4871 -0.6816
 8642SOL    HW136240   4.582   2.074   0.819  2.1129 -0.3039  0.7573
 8642SOL    HW236241   4.450   2.118   0.879  0.6059 -0.6359 -2.1274
 8643SOL     OW36242   4.516   7.858   0.683  1.1177 -0.1545 -0.1553
 8643SOL    HW136243   4.473   7.783   0.724  3.1619 -0.7739  0.9951
 8643SOL    HW236244   4.584   7.884   0.745  1.7654  1.4056 -1.4301
 8644SOL     OW36245   7.777  12.559   8.595 -0.5755  0.0719  0.3570
 8644SOL    HW136246   7.716  12.580   8.665 -1.6265 -1.7486  0.0433
 8644SOL    HW236247   7.838  12.497   8.634  0.1475  0.6709  0.2174
 8645SOL     OW36248   2.259   4.169   5.129  0.2935 -0.6880 -0.3964
 8645SOL    HW136249   2.173   4.176   5.170  0.3859  2.7079 -0.4714
 8645SOL    HW236250   2.247   4.210   5.043  2.7214  3.9489  1.1528
 8646SOL     OW36251   1.956   2.106   3.768  0.3257  0.1463 -0.3177
 8646SOL    HW136252   2.015   2.115   3.842  0.6670 -0.4383 -0.5135
 8646SOL    HW236253   1.878   2.064   3.804  0.8952 -1.0743 -0.4841
 8647SOL     OW36254   6.469   9.859   1.265  0.0948  0.0129 -0.0104
 8647SOL    HW136255   6.423   9.939   1.242  1.0105 -0.1171 -2.5947
 8647SOL    HW236256   6.422   9.790   1.219  1.0378 -0.5188 -0.2051
 8648SOL     OW36257   3.044  12.405   3.721  0.2927  0.1329 -0.3395
 8648SOL    HW136258   3.057  12.498   3.743 -0.9829  0.5114 -1.1074
 8648SOL    HW236259   2.954  12.387   3.749  0.6725 -1.0005  0.1889
 8649SOL     OW36260   3.085   4.546   8.026  0.0598 -0.0289  0.5119
 8649SOL    HW136261   3.070   4.464   8.073  3.3511 -0.1063  1.7132
 8649SOL    HW236262   3.137   4.600   8.086  0.0040  2.0087 -1.1212
 8650SOL     OW36263   4.031  10.587   0.644 -0.1001  0.0573 -0.2344
 8650SOL    HW136264   4.107  10.645   0.639  0.0000 -0.0486  0.0670
 8650SOL    HW236265   4.057  10.518   0.703  0.0997 -0.7830 -1.2726
 8651SOL     OW36266   5.277   4.790   5.961 -0.3776  0.5519  0.2446
 8651SOL    HW136267   5.312   4.725   5.900  0.2367  0.2410  0.9060
 8651SOL    HW236268   5.237   4.857   5.906 -2.0576 -0.9519 -0.4380
 8652SOL     OW36269   8.083   8.736   1.179 -0.3313  0.4963 -0.0974
 8652SOL    HW136270   8.001   8.746   1.228  0.4066  1.4217  0.9967
 8652SOL    HW236271   8.151   8.771   1.238  0.9518 -0.8726 -0.7018
 8653SOL     OW36272   3.346   9.759  10.950  0.0198  0.0694  0.1958
 8653SOL    HW136273   3.421   9.707  10.922 -0.5904 -1.2892  1.0121
 8653SOL    HW236274   3.382   9.824  11.010  0.8369  0.8572 -1.0979
 8654SOL     OW36275  10.441   6.167   6.357 -0.4715  0.8652 -0.2390
 8654SOL    HW136276  10.471   6.077   6.373 -1.0484  0.7066  0.0114
 8654SOL    HW236277  10.476   6.217   6.431  1.3220  1.2252 -1.2670
 8655SOL     OW36278   2.415   5.096   7.167 -0.5778 -0.2172 -0.1564
 8655SOL    HW136279   2.342   5.035   7.163 -0.3136 -0.6048  0.6897
 8655SOL    HW236280   2.462   5.084   7.085 -0.4281 -1.2734  0.0819
 8656SOL     OW36281   9.281   6.847   6.757  0.3220  0.4073 -0.3408
 8656SOL    HW136282   9.299   6.753   6.765  3.1128  0.8700 -0.0997
 8656SOL    HW236283   9.289   6.865   6.663  4.1801  0.9814 -0.0998
 8657SOL     OW36284   5.672   9.178   2.221  0.2211 -0.4813  0.1881
 8657SOL    HW136285   5.758   9.216   2.205 -0.0145  0.3707  0.8750
 8657SOL    HW236286   5.685   9.117   2.293  0.2829 -0.4787  0.1786
 8658SOL     OW36287   8.274  10.925   3.231 -0.5166  0.0088 -0.4437
 8658SOL    HW136288   8.215  10.937   3.305 -0.0876 -1.6486  0.1963
 8658SOL    HW236289   8.336  10.858   3.259  1.2505  1.1815 -1.3654
 8659SOL     OW36290   9.499   9.180   7.164 -0.4499 -0.6425 -0.4405
 8659SOL    HW136291   9.470   9.203   7.075  0.0159 -2.7999 -1.2228
 8659SOL    HW236292   9.592   9.203   7.165 -0.6064  0.0118 -0.2528
 8660SOL     OW36293   8.933   6.919   1.981  0.1033  0.3845 -0.3297
 8660SOL    HW136294   9.016   6.878   1.959 -0.7868 -1.3494 -0.6254
 8660SOL    HW236295   8.893   6.861   2.045  0.1244  2.4326  1.6566
 8661SOL     OW36296  10.702   5.038  11.996  0.2462 -0.1691  0.2417
 8661SOL    HW136297  10.633   4.997  12.049  0.4168 -1.4172 -0.4697
 8661SOL    HW236298  10.656   5.105  11.946 -0.5745 -1.2832 -0.5558
 8662SOL     OW36299   1.758   8.142   4.402  0.2009 -0.2298 -0.6043
 8662SOL    HW136300   1.746   8.076   4.470  0.3854 -0.4508 -0.7862
 8662SOL    HW236301   1.798   8.095   4.329 -1.5270 -0.3885 -1.5219
 8663SOL     OW36302   8.246   2.901   2.719  0.2480  0.6345  0.0283
 8663SOL    HW136303   8.181   2.874   2.785  0.7156  1.3650  0.8085
 8663SOL    HW236304   8.230   2.843   2.645 -1.1745  0.6598  0.2763
 8664SOL     OW36305  12.513   5.205   8.248  0.0809 -0.0205  0.0606
 8664SOL    HW136306  12.586   5.208   8.186 -0.5145 -0.6513 -0.6866
 8664SOL    HW236307  12.507   5.113   8.273  0.9592  0.3571  1.8702
 8665SOL     OW36308  12.797   9.988   9.651 -0.0966  0.5626  0.7877
 8665SOL    HW136309  12.812  10.034   9.569 -0.3027  0.5062  0.7187
 8665SOL    HW236310  12.774   9.898   9.624 -0.8819  0.7280  0.8786
 8666SOL     OW36311   5.137   2.803   7.819 -0.7763 -0.2253 -0.3043
 8666SOL    HW136312   5.129   2.797   7.914 -0.0447  1.8095 -0.0584
 8666SOL    HW236313   5.208   2.865   7.805 -0.1609 -1.2917 -2.2135
 8667SOL     OW36314   1.508   8.495   3.831  0.0591 -0.0909  0.3026
 8667SOL    HW136315   1.594   8.529   3.807 -0.2914  0.8002  0.2439
 8667SOL    HW236316   1.510   8.403   3.808  0.2591  0.3827 -1.7619
 8668SOL     OW36317  10.597  10.250   6.415  0.0110  0.0597  1.1232
 8668SOL    HW136318  10.618  10.163   6.381  1.6192  1.3221 -1.5025
 8668SOL    HW236319  10.648  10.257   6.495  1.1385 -0.8646  0.5214
 8669SOL     OW36320  10.691   8.246   5.480 -0.3929  0.0620 -0.2342
 8669SOL    HW136321  10.669   8.264   5.572  0.7344  0.7458 -0.0740
 8669SOL    HW236322  10.777   8.204   5.484 -0.9329 -1.1488 -0.9104
 8670SOL     OW36323   7.349   9.654   7.459  0.3963  0.5118 -0.3591
 8670SOL    HW136324   7.351   9.741   7.419 -0.6672  0.7139  0.0072
 8670SOL    HW236325   7.440   9.638   7.486  0.7613  1.1494 -1.1681
 8671SOL     OW36326  12.721  10.661   8.812 -0.0356  0.0565 -0.2066
 8671SOL    HW136327  12.648  10.602   8.830 -0.7288  1.3571  1.6565
 8671SOL    HW236328  12.680  10.748   8.807  1.2429  0.6789 -0.3163
 8672SOL     OW36329   7.204  11.892   3.403 -0.1222 -0.3366 -0.1762
 8672SOL    HW136330   7.192  11.816   3.346  0.5484 -1.1596  0.7578
 8672SOL    HW236331   7.283  11.873   3.453 -0.9791  0.1252  1.4163
 8673SOL     OW36332   3.574   3.525   2.762 -0.4569  0.1181 -0.1823
 8673SOL    HW136333   3.611   3.594   2.707  1.3214 -1.3045 -0.8897
 8673SOL    HW236334   3.572   3.563   2.850  0.9456  0.9289 -0.4660
 8674SOL     OW36335  12.709   5.535   8.822 -0.5610  0.0343  0.6108
 8674SOL    HW136336  12.799   5.507   8.810 -1.0489 -1.1596 -0.5835
 8674SOL    HW236337  12.711   5.630   8.810  0.3375 -0.1443 -0.9210
 8675SOL     OW36338   4.998   3.719   5.343 -0.0736 -0.6515 -0.2342
 8675SOL    HW136339   4.959   3.667   5.273 -1.2999  1.5223 -1.2891
 8675SOL    HW236340   5.042   3.656   5.400 -1.4223 -2.7677 -1.4444
 8676SOL     OW36341   8.120   1.740   5.793  0.1385 -0.0957 -0.0804
 8676SOL    HW136342   8.089   1.830   5.804  0.3309 -0.0635  0.2088
 8676SOL    HW236343   8.191   1.747   5.730  1.1701  0.1823  1.0579
 8677SOL     OW36344   7.463   1.671   1.645  0.6750 -0.3875  0.1215
 8677SOL    HW136345   7.514   1.691   1.723  0.3960  1.7812 -0.1926
 8677SOL    HW236346   7.380   1.718   1.658  0.6988  0.1599 -1.5408
 8678SOL     OW36347   8.318   3.313   8.286 -0.2554  0.0631 -0.2070
 8678SOL    HW136348   8.236   3.265   8.299 -0.0240 -0.4947 -0.7734
 8678SOL    HW236349   8.331   3.314   8.191  1.6698 -2.0716 -0.0433
 8679SOL     OW36350   8.340  10.399   4.624 -0.6250  0.1258  0.3559
 8679SOL    HW136351   8.314  10.440   4.707  1.1254 -0.0943  1.0828
 8679SOL    HW236352   8.435  10.413   4.620 -0.6919  0.3028 -1.7330
 8680SOL     OW36353   5.907   1.626   3.334  0.1189  0.0984  0.8684
 8680SOL    HW136354   5.981   1.687   3.325 -1.5428  2.0925 -0.1435
 8680SOL    HW236355   5.940   1.558   3.392  2.3202  1.6069  1.5409
 8681SOL     OW36356  10.696   8.399   8.378 -0.5022 -0.1757 -0.1220
 8681SOL    HW136357  10.622   8.410   8.438 -0.3016 -2.2330  0.5984
 8681SOL    HW236358  10.677   8.318   8.331  0.8499 -0.2331 -0.6118
 8682SOL     OW36359   1.508   6.922   5.961  0.2506 -1.0321  0.0566
 8682SOL    HW136360   1.589   6.945   5.916 -0.3415 -2.0295 -1.6370
 8682SOL    HW236361   1.440   6.971   5.915 -0.3628 -1.9393 -0.0417
 8683SOL     OW36362  12.192   6.415   7.275  0.3827  0.0389  0.0997
 8683SOL    HW136363  12.116   6.361   7.255  0.9064 -1.3553  1.6942
 8683SOL    HW236364  12.192   6.482   7.206 -1.9376 -0.2451 -0.2656
 8684SOL     OW36365   5.466  11.946   5.325  0.1287  0.1395  0.0425
 8684SOL    HW136366   5.455  11.982   5.413 -0.1853  0.5568 -0.1613
 8684SOL    HW236367   5.426  11.859   5.329  0.2263  0.1095  0.3428
 8685SOL     OW36368  12.155  10.092  11.445  0.0658 -0.0192 -0.1260
 8685SOL    HW136369  12.064  10.065  11.455  0.2392 -0.5237  0.0996
 8685SOL    HW236370  12.189  10.034  11.376 -0.2597  1.3320 -1.4849
 8686SOL     OW36371  11.479   4.519   2.692 -0.0360 -0.0385 -0.1131
 8686SOL    HW136372  11.494   4.612   2.675 -2.8177  0.5824  0.4160
 8686SOL    HW236373  11.390   4.514   2.725  0.2237 -2.8611  0.4500
 8687SOL     OW36374   3.897   9.207  10.860 -0.7026 -0.0356  0.2916
 8687SOL    HW136375   3.871   9.119  10.889 -1.1939 -0.1600 -0.4892
 8687SOL    HW236376   3.888   9.204  10.765  1.5715  0.1324  0.0221
 8688SOL     OW36377  12.056  12.885   4.510 -0.4643 -0.4335 -0.3167
 8688SOL    HW136378  12.086  12.890   4.601 -0.2015  0.5359 -0.4472
 8688SOL    HW236379  12.038  12.792   4.496 -1.1208 -0.5184  0.9221
 8689SOL     OW36380   5.917  12.605   3.736 -0.2389  0.5191 -0.3494
 8689SOL    HW136381   5.844  12.664   3.753  0.4019  0.9391  1.1663
 8689SOL    HW236382   5.877  12.518   3.734 -0.8424  0.7715  0.1289
 8690SOL     OW36383   9.995   6.329   1.048  0.3884  1.0954 -0.3697
 8690SOL    HW136384  10.008   6.335   1.142  1.9391 -1.3049 -0.3547
 8690SOL    HW236385   9.945   6.248   1.036  1.2714  0.7220 -1.6825
 8691SOL     OW36386   2.364   0.424   8.563 -0.6489  0.2136 -0.3473
 8691SOL    HW136387   2.449   0.468   8.560  0.8447 -2.5581 -1.1985
 8691SOL    HW236388   2.311   0.469   8.497  0.5236  1.2440 -0.6132
 8692SOL     OW36389   4.202   6.812   6.889  0.3268  0.1884  0.7183
 8692SOL    HW136390   4.221   6.834   6.798  0.9774  0.7806  0.9896
 8692SOL    HW236391   4.249   6.729   6.904 -0.8491 -0.6059  0.1494
 8693SOL     OW36392   1.767   6.968   8.959 -0.0903 -0.1600 -0.3513
 8693SOL    HW136393   1.689   6.953   9.013  1.3435 -0.2318  1.8205
 8693SOL    HW236394   1.790   6.881   8.927 -0.2825 -0.3029 -0.1092
 8694SOL     OW36395  10.722   2.560   7.847  0.3310  0.2257 -0.2590
 8694SOL    HW136396  10.663   2.509   7.792  0.8053 -1.3115  0.5934
 8694SOL    HW236397  10.779   2.605   7.785 -1.4022  1.4032 -1.0829
 8695SOL     OW36398  12.844   2.268   8.217 -0.7458  0.2948 -0.5569
 8695SOL    HW136399  12.771   2.208   8.232 -1.8544  1.5698 -0.6291
 8695SOL    HW236400  12.819   2.348   8.263  0.3887  0.9282 -1.0011
 8696SOL     OW36401   4.696   0.872   1.747  0.2052 -0.1529  0.3703
 8696SOL    HW136402   4.698   0.810   1.820  0.3180 -1.3118 -0.5935
 8696SOL    HW236403   4.754   0.943   1.775  1.5018 -1.3242  0.7648
 8697SOL     OW36404   8.765   0.538   3.937 -0.1419  0.1595 -0.0996
 8697SOL    HW136405   8.838   0.594   3.913 -1.2393  1.0987 -1.4249
 8697SOL    HW236406   8.804   0.451   3.951  1.1554  0.5312 -1.2088
 8698SOL     OW36407   2.935   5.794   1.808  0.1594  0.2116 -0.0175
 8698SOL    HW136408   2.995   5.729   1.772  0.1198 -0.4593  1.0925
 8698SOL    HW236409   2.911   5.761   1.895 -0.7326  1.1529  0.1292
 8699SOL     OW36410   6.018   6.014  11.589 -0.1283  0.5008  0.2166
 8699SOL    HW136411   6.057   5.976  11.668 -0.9583  1.5895  1.1777
 8699SOL    HW236412   5.944   5.957  11.569  0.9499 -0.6530 -0.6949
 8700SOL     OW36413  10.429   9.555   4.737  0.0870 -0.0949  0.4587
 8700SOL    HW136414  10.477   9.600   4.668 -0.3157  1.8859  1.4138
 8700SOL    HW236415  10.448   9.462   4.722  0.5140  0.3074 -1.9068
 8701SOL     OW36416   8.207   2.014   3.724 -0.5386 -0.4119 -0.5233
 8701SOL    HW136417   8.201   1.936   3.670 -1.4376  1.1814 -2.9032
 8701SOL    HW236418   8.159   1.992   3.804 -2.4967 -1.6731 -1.9461
 8702SOL     OW36419   0.533  12.414   4.045  0.2002 -0.0342  0.4881
 8702SOL    HW136420   0.540  12.494   4.097  1.7922 -0.4168  0.9170
 8702SOL    HW236421   0.575  12.346   4.099 -1.0287 -1.1559  0.0943
 8703SOL     OW36422   8.381   9.345   4.112  0.5374 -0.4402 -0.2008
 8703SOL    HW136423   8.451   9.312   4.056  1.6198 -0.3127  1.0277
 8703SOL    HW236424   8.426   9.380   4.189 -0.8323  0.3460  0.2828
 8704SOL     OW36425   6.070   7.892   3.802 -0.0640 -0.2559 -0.4093
 8704SOL    HW136426   6.079   7.984   3.828 -1.7091  0.0285 -0.7279
 8704SOL    HW236427   6.143   7.848   3.844  1.0972  1.2883 -0.6974
 8705SOL     OW36428   5.211  12.702   0.091  0.4237 -0.4775  0.2631
 8705SOL    HW136429   5.137  12.642   0.098  0.5191 -0.4724  1.5711
 8705SOL    HW236430   5.247  12.706   0.180  1.0211  0.7490 -0.0156
 8706SOL     OW36431  11.631   0.309   0.522 -0.5742 -0.5641 -0.1736
 8706SOL    HW136432  11.705   0.293   0.463 -0.7088 -2.5644  0.1500
 8706SOL    HW236433  11.595   0.223   0.539 -1.6579  0.1689  1.4152
 8707SOL     OW36434   0.674  10.073  10.804  0.1773  0.1948 -0.7394
 8707SOL    HW136435   0.652  10.098  10.714 -2.2684  0.1729 -0.2260
 8707SOL    HW236436   0.599  10.021  10.833 -1.0783  3.3406  2.5155
 8708SOL     OW36437  10.122   4.221   9.109 -0.0431  0.2616 -0.0385
 8708SOL    HW136438  10.079   4.194   9.190  1.4508  0.8792  0.9826
 8708SOL    HW236439  10.105   4.148   9.048 -0.7400 -0.4419  0.9650
 8709SOL     OW36440   3.945   9.946   7.434  0.2070  0.3625  0.7563
 8709SOL    HW136441   3.957   9.946   7.339 -1.7531 -2.3415  0.3781
 8709SOL    HW236442   3.850   9.943   7.447  0.4278 -1.3600  2.6705
 8710SOL     OW36443   6.778  10.138   7.350 -0.1355  0.4449 -0.4250
 8710SOL    HW136444   6.736  10.220   7.323 -0.0163  0.4272 -0.6697
 8710SOL    HW236445   6.747  10.074   7.286  0.1303  0.3960 -0.5067
 8711SOL     OW36446  12.962   8.927   0.447 -0.2743  0.5028 -0.1814
 8711SOL    HW136447  12.890   8.908   0.506 -2.1664  1.5829 -2.0307
 8711SOL    HW236448  12.999   9.009   0.479 -1.4233  1.1953 -0.5812
 8712SOL     OW36449   3.694   8.921  12.442 -0.3981 -0.3212 -0.5139
 8712SOL    HW136450   3.746   8.972  12.379 -0.2038 -0.9392 -0.8730
 8712SOL    HW236451   3.609   8.965  12.445  0.2289  0.8674  0.2908
 8713SOL     OW36452  12.202   9.730  10.506 -0.3196 -0.1911  0.1870
 8713SOL    HW136453  12.173   9.699  10.592  0.6113 -1.2338  0.1539
 8713SOL    HW236454  12.231   9.820  10.521  0.9626 -0.7434  1.2548
 8714SOL     OW36455  12.311   6.634  11.799  0.0468 -0.3627  0.0978
 8714SOL    HW136456  12.220   6.624  11.769 -0.1810  0.0214  0.6364
 8714SOL    HW236457  12.342   6.544  11.812  0.9461 -0.7213 -3.4653
 8715SOL     OW36458   8.955  10.409   2.150  0.7894 -0.0682 -0.3311
 8715SOL    HW136459   8.875  10.404   2.203  0.5315  1.3296 -0.5696
 8715SOL    HW236460   8.997  10.324   2.164 -0.6141 -0.7548 -0.0244
 8716SOL     OW36461   1.706  12.425  10.440  1.0000  0.0640 -0.2273
 8716SOL    HW136462   1.772  12.485  10.407  0.7053  1.7226  1.9346
 8716SOL    HW236463   1.747  12.385  10.517 -0.2241  0.6515  0.7711
 8717SOL     OW36464   2.449   7.809   8.682 -0.3036 -0.3397 -0.2316
 8717SOL    HW136465   2.504   7.820   8.604  1.3381  1.0385  1.0552
 8717SOL    HW236466   2.367   7.853   8.660  0.4246  0.7122 -0.9175
 8718SOL     OW36467   2.811   8.714   0.223  0.0908 -0.3454  0.1372
 8718SOL    HW136468   2.773   8.752   0.302  0.4594  0.7807 -0.2140
 8718SOL    HW236469   2.904   8.705   0.243 -0.1105 -1.9219  0.5319
 8719SOL     OW36470   1.430   0.166  11.163 -0.2925  0.5604  0.0628
 8719SOL    HW136471   1.367   0.237  11.150 -0.6033  0.2480 -0.1583
 8719SOL    HW236472   1.419   0.140  11.255 -0.0970  0.8752  0.1750
 8720SOL     OW36473  10.838   9.277   7.607 -0.5659  0.5492 -0.5086
 8720SOL    HW136474  10.843   9.339   7.534 -0.2059  0.9052 -0.1856
 8720SOL    HW236475  10.797   9.326   7.678 -1.8055 -0.0856 -0.7602
 8721SOL     OW36476   3.893   3.388   6.133  0.2885  0.4366 -0.0222
 8721SOL    HW136477   3.938   3.467   6.100 -2.7748  1.7630 -1.4197
 8721SOL    HW236478   3.802   3.416   6.144 -0.9169 -2.9202 -0.5301
 8722SOL     OW36479   9.825  11.250  12.447 -0.2954 -1.2070 -0.2134
 8722SOL    HW136480   9.918  11.233  12.464  0.0776 -0.0661 -0.9756
 8722SOL    HW236481   9.813  11.227  12.355 -0.4369 -0.1373 -0.4785
 8723SOL     OW36482   6.559  10.554  11.915 -0.1930 -0.0317 -0.0624
 8723SOL    HW136483   6.645  10.570  11.876 -0.3566  1.2863  0.0845
 8723SOL    HW236484   6.572  10.566  12.009 -0.3520 -0.7207  0.0531
 8724SOL     OW36485   9.269   7.556   5.932 -0.5430  0.2267 -0.0624
 8724SOL    HW136486   9.213   7.512   5.997 -1.2086  0.4642 -0.4709
 8724SOL    HW236487   9.250   7.649   5.943  1.3525  0.5143  1.2557
 8725SOL     OW36488  10.809   1.807   7.582 -0.2821  0.2129 -0.1533
 8725SOL    HW136489  10.789   1.810   7.676 -1.9221  3.4420 -0.4859
 8725SOL    HW236490  10.770   1.725   7.552 -1.5461  0.1091  1.6326
 8726SOL     OW36491   3.227  12.894   6.101 -0.4514 -0.3936  0.1933
 8726SOL    HW136492   3.250  12.866   6.012 -0.8796 -1.1860  0.3153
 8726SOL    HW236493   3.311  12.905   6.145 -0.0419  3.1084 -1.1479
 8727SOL     OW36494   9.115   8.234   0.213 -0.5318 -0.0305 -0.0839
 8727SOL    HW136495   9.193   8.195   0.253  1.1369  0.7464 -2.4083
 8727SOL    HW236496   9.134   8.236   0.120 -1.3769  4.3056 -0.3726
 8728SOL     OW36497   3.453  12.262   0.513  0.4115  0.2240  0.0702
 8728SOL    HW136498   3.527  12.238   0.457  0.1644  3.1670 -1.7368
 8728SOL    HW236499   3.474  12.350   0.543 -1.6978  0.5635  0.7233
 8729SOL     OW36500   2.721   8.564   0.465  0.0164  0.4156  0.0094
 8729SOL    HW136501   2.715   8.478   0.507  1.3735  0.3921  0.2033
 8729SOL    HW236502   2.750   8.545   0.376 -2.1881  0.5192 -0.7965
 8730SOL     OW36503   9.973   7.304   0.612  1.0166 -0.6935  0.2115
 8730SOL    HW136504   9.989   7.395   0.637 -0.4617 -0.6006  0.9614
 8730SOL    HW236505  10.047   7.255   0.648  1.7771  0.1953 -0.1159
 8731SOL     OW36506   0.236   0.704   8.201 -0.1718  0.2735  0.1810
 8731SOL    HW136507   0.244   0.691   8.107  0.0524  0.9524  0.1039
 8731SOL    HW236508   0.171   0.773   8.211  2.1520  2.6054  0.3580
 8732SOL     OW36509  11.165   5.202   3.064  0.7419  0.3354  0.1668
 8732SOL    HW136510  11.213   5.235   3.139  1.8423  1.2461 -0.8992
 8732SOL    HW236511  11.099   5.269   3.046 -1.8640 -1.4487  2.3567
 8733SOL     OW36512   4.267   9.149   5.044 -0.1932 -0.5511 -0.2561
 8733SOL    HW136513   4.201   9.191   4.989  0.7598  3.0496  1.0591
 8733SOL    HW236514   4.217   9.094   5.103 -1.9915  1.1301 -0.0842
 8734SOL     OW36515   0.130  10.343   7.254  0.0317 -0.2626 -0.2252
 8734SOL    HW136516   0.087  10.427   7.266  1.2051  0.8660 -3.0229
 8734SOL    HW236517   0.091  10.286   7.321 -2.0751  1.9981  0.6228
 8735SOL     OW36518  10.990   7.966   7.521  0.1694 -0.0944  0.0006
 8735SOL    HW136519  10.960   7.985   7.432 -1.5849  0.9423  0.7572
 8735SOL    HW236520  11.040   8.044   7.547  1.3450 -0.7157 -0.3126
 8736SOL     OW36521   4.534   5.621  12.557 -0.3701  0.2665  0.3969
 8736SOL    HW136522   4.548   5.590  12.467 -0.5614 -0.7642  0.7059
 8736SOL    HW236523   4.612   5.592  12.604 -1.3125 -1.2887  1.0669
 8737SOL     OW36524   7.489   5.313   2.218 -0.1249 -0.4645  0.1337
 8737SOL    HW136525   7.404   5.311   2.263 -0.3878 -0.0345 -0.3406
 8737SOL    HW236526   7.530   5.229   2.241 -1.1888 -1.2188 -0.6214
 8738SOL     OW36527   9.452   7.806   5.341  0.5713 -0.8382 -0.0707
 8738SOL    HW136528   9.469   7.869   5.410 -0.4101 -0.1180 -0.4614
 8738SOL    HW236529   9.500   7.840   5.265  0.3171 -0.7365 -0.1882
 8739SOL     OW36530   4.455   8.849   0.824 -0.0757 -0.3457 -0.3095
 8739SOL    HW136531   4.368   8.849   0.784 -0.7775  1.0271  1.0896
 8739SOL    HW236532   4.515   8.868   0.752 -1.0397 -0.3466 -1.1324
 8740SOL     OW36533  11.514  12.866   8.170 -0.2000 -0.1844 -0.6183
 8740SOL    HW136534  11.603  12.837   8.150 -0.5512  0.0846 -2.8416
 8740SOL    HW236535  11.462  12.786   8.169 -0.1630 -0.2088 -0.5610
 8741SOL     OW36536   5.283   9.766  11.063 -0.2093 -0.0625 -0.5562
 8741SOL    HW136537   5.310   9.820  11.137  1.2867  0.3766 -1.3862
 8741SOL    HW236538   5.241   9.827  11.002 -0.8713 -0.3132 -0.3658
 8742SOL     OW36539   9.815   3.084   0.420  0.5777 -0.2071  0.4364
 8742SOL    HW136540   9.895   3.062   0.373 -0.3673 -2.2684 -0.3156
 8742SOL    HW236541   9.826   3.045   0.507  0.2234 -0.8945  0.1798
 8743SOL     OW36542   1.102   7.872   5.102  0.1966 -0.3568  0.6696
 8743SOL    HW136543   1.186   7.835   5.075  0.7812  0.4468  1.3212
 8743SOL    HW236544   1.041   7.799   5.098  1.4455 -1.6230  2.5996
 8744SOL     OW36545  12.629   1.866   5.250  0.0913  0.1319 -0.0968
 8744SOL    HW136546  12.618   1.960   5.264  2.1140  0.5375 -0.9512
 8744SOL    HW236547  12.607   1.826   5.335 -0.5018  1.3782  0.3546
 8745SOL     OW36548   1.379   4.717   9.830  0.6252  0.5480 -0.5213
 8745SOL    HW136549   1.309   4.764   9.875 -0.2003 -0.0602 -1.1452
 8745SOL    HW236550   1.420   4.664   9.898  1.9774  2.5635  0.3431
 8746SOL     OW36551   3.993   2.955   6.143  0.1314 -0.1859 -0.3397
 8746SOL    HW136552   3.937   3.011   6.089 -0.5639 -2.0465 -1.6565
 8746SOL    HW236553   3.932   2.908   6.200  0.3741 -1.4367 -1.0449
 8747SOL     OW36554   0.419   8.505   3.269 -0.1566  0.0988 -0.1681
 8747SOL    HW136555   0.455   8.441   3.331 -0.1880 -0.1695 -0.4257
 8747SOL    HW236556   0.327   8.482   3.262 -0.1840  0.2192 -0.2081
 8748SOL     OW36557  12.073   4.612   3.550 -0.1202  0.4665 -0.5384
 8748SOL    HW136558  12.126   4.686   3.580 -0.4677  0.5949 -0.2288
 8748SOL    HW236559  12.038   4.641   3.466 -0.5448  0.8016 -0.2516
 8749SOL     OW36560   9.915   7.174  11.951  0.0240  0.3136 -0.4199
 8749SOL    HW136561   9.994   7.147  11.998 -0.7113  0.6459  1.0663
 8749SOL    HW236562   9.859   7.097  11.951  1.1929 -0.7209 -3.5833
 8750SOL     OW36563  10.059  12.684   0.079 -0.1778  0.4005 -0.2775
 8750SOL    HW136564  10.009  12.764   0.064 -1.1571  0.0156  0.7640
 8750SOL    HW236565  10.143  12.714   0.112 -0.8207  1.0080  0.8860
 8751SOL     OW36566  12.755   2.207   9.648  0.0112 -0.0019  0.3493
 8751SOL    HW136567  12.717   2.275   9.704 -0.0834  1.3328 -1.2621
 8751SOL    HW236568  12.850   2.221   9.655  0.2098 -1.8130  2.4995
 8752SOL     OW36569   6.696   3.065   1.894 -0.3480  0.5175  0.1028
 8752SOL    HW136570   6.607   3.067   1.859 -0.3961  2.0490  0.2725
 8752SOL    HW236571   6.687   3.091   1.986  0.0105 -1.6810  0.8160
 8753SOL     OW36572   5.599   2.387  12.209 -0.1458 -0.0064 -0.1677
 8753SOL    HW136573   5.670   2.452  12.214 -0.6450  0.5762 -0.6242
 8753SOL    HW236574   5.542   2.418  12.139 -1.2280 -0.0954  0.6464
 8754SOL     OW36575  12.693   2.403   8.774 -0.1914  0.0190  0.2599
 8754SOL    HW136576  12.655   2.318   8.797 -2.2582  0.6130 -0.6904
 8754SOL    HW236577  12.701   2.449   8.857  1.0456 -1.0827  0.8002
 8755SOL     OW36578   0.007  12.286   5.078 -0.6217  0.5694  0.0038
 8755SOL    HW136579   0.022  12.380   5.069 -0.4062  0.3339 -4.3231
 8755SOL    HW236580   0.091  12.250   5.104  0.4817  1.3299 -2.2383
 8756SOL     OW36581   1.416   6.664   6.091  0.1465 -0.0203  0.1737
 8756SOL    HW136582   1.407   6.757   6.069  1.1504  0.3411  1.1639
 8756SOL    HW236583   1.350   6.620   6.038 -1.0512  1.3774  0.4449
 8757SOL     OW36584   9.009   2.359   3.542  0.1023  0.5292  0.1037
 8757SOL    HW136585   9.047   2.272   3.550 -0.6218  0.2380  0.5005
 8757SOL    HW236586   8.975   2.362   3.453  0.5296  0.5788 -0.0608
 8758SOL     OW36587   0.813   3.752   9.942  0.6046 -0.2240 -0.1339
 8758SOL    HW136588   0.838   3.788   9.857  1.1098  0.6871  0.3789
 8758SOL    HW236589   0.744   3.812   9.973  0.3355 -0.6228  0.0448
 8759SOL     OW36590  10.282   0.090   8.002  0.4197  0.4679 -0.0925
 8759SOL    HW136591  10.199   0.044   8.005  1.0740 -0.7253  1.5713
 8759SOL    HW236592  10.277   0.144   7.924 -1.4944 -0.3510 -0.5940
 8760SOL     OW36593   6.301   4.231   3.842  0.1062  0.0529  0.5069
 8760SOL    HW136594   6.270   4.210   3.755 -0.3013  0.2948  0.5930
 8760SOL    HW236595   6.396   4.245   3.832 -0.1288  1.3245 -0.1274
 8761SOL     OW36596   5.975  12.614   8.894  0.3774 -0.9024 -0.3095
 8761SOL    HW136597   5.891  12.626   8.938  2.0661  0.3308  2.9478
 8761SOL    HW236598   6.000  12.702   8.867  1.0424 -1.1018 -0.3558
 8762SOL     OW36599   2.307   9.270   0.323 -0.5112 -0.0366 -0.0148
 8762SOL    HW136600   2.317   9.364   0.310 -1.0229  0.0073 -0.1389
 8762SOL    HW236601   2.338   9.255   0.412  1.5216 -0.0879 -0.6860
 8763SOL     OW36602   8.382   5.620   1.676  0.1848  0.0103 -0.1048
 8763SOL    HW136603   8.389   5.671   1.757  1.8456  0.4510 -0.4924
 8763SOL    HW236604   8.305   5.565   1.689 -0.9573  1.7368  0.8157
 8764SOL     OW36605  11.718   0.476   7.335  0.1082 -0.0717  0.2656
 8764SOL    HW136606  11.769   0.398   7.313 -0.6638 -0.8755  1.2182
 8764SOL    HW236607  11.686   0.459   7.424 -0.0297  1.3584  0.5137
 8765SOL     OW36608   3.664  11.140   6.872 -0.3927  0.6358 -0.1106
 8765SOL    HW136609   3.660  11.047   6.848 -2.1912  1.1075 -2.0477
 8765SOL    HW236610   3.742  11.173   6.828 -0.4621  0.2947 -0.4956
 8766SOL     OW36611  10.530   2.896   0.515  0.0825  0.2537 -0.1400
 8766SOL    HW136612  10.566   2.811   0.539 -0.2212 -0.3905 -1.8014
 8766SOL    HW236613  10.604   2.956   0.520  0.0255  0.1994  2.3089
 8767SOL     OW36614   1.192   9.363   0.682 -0.0328 -0.0143  0.1757
 8767SOL    HW136615   1.230   9.283   0.648  0.9851 -0.3218  1.9075
 8767SOL    HW236616   1.102   9.363   0.650  0.4177 -1.0427 -1.1291
 8768SOL     OW36617   7.183   1.767   8.455  0.0253  0.1939  0.1298
 8768SOL    HW136618   7.256   1.754   8.515  0.2366 -0.6536 -0.2843
 8768SOL    HW236619   7.206   1.714   8.378 -0.2771  1.1757 -0.6645
 8769SOL     OW36620   6.458   1.815   4.639 -0.0735  0.5374 -0.0324
 8769SOL    HW136621   6.443   1.805   4.733  0.5177 -0.9204 -0.0736
 8769SOL    HW236622   6.448   1.909   4.623 -1.4381  0.6456  1.2574
 8770SOL     OW36623  10.951   0.491   0.760 -0.0830 -0.0952  0.3877
 8770SOL    HW136624  10.914   0.483   0.672 -0.8891  1.6274  0.5289
 8770SOL    HW236625  11.045   0.502   0.746 -0.4242  2.3134 -0.4480
 8771SOL     OW36626   2.999  12.779  12.383 -0.1934 -0.1102  0.8951
 8771SOL    HW136627   3.089  12.779  12.352 -1.1118  0.3405 -2.1278
 8771SOL    HW236628   2.993  12.702  12.440  1.7055 -1.0995 -0.1450
 8772SOL     OW36629   3.616  11.951   7.300 -0.1940 -0.0367  0.5774
 8772SOL    HW136630   3.549  12.008   7.339 -1.8360 -0.2035 -1.8359
 8772SOL    HW236631   3.653  12.003   7.229 -0.0115 -1.1306 -0.1385
 8773SOL     OW36632   9.972   1.426   2.820  0.2053  0.0962 -0.5399
 8773SOL    HW136633  10.048   1.461   2.866 -1.7906  3.5029  0.5518
 8773SOL    HW236634   9.916   1.391   2.888 -0.0927 -0.5759 -1.1135
 8774SOL     OW36635   0.867   7.803   9.301 -0.4449 -0.2123  0.3912
 8774SOL    HW136636   0.811   7.739   9.257 -0.9900  0.5911 -0.1153
 8774SOL    HW236637   0.826   7.816   9.387  0.1977 -1.2305  0.8602
 8775SOL     OW36638   9.607   0.844  10.893  0.3541  0.2856 -0.0491
 8775SOL    HW136639   9.632   0.918  10.838 -1.7878  1.0179 -0.1467
 8775SOL    HW236640   9.523   0.815  10.857  1.5103 -2.8136 -0.5724
 8776SOL     OW36641   3.318   2.112  12.786  0.4210  0.4152  0.0027
 8776SOL    HW136642   3.249   2.176  12.770  0.1217  0.0965 -0.0072
 8776SOL    HW236643   3.271   2.034  12.815  0.5032 -0.7275 -2.6154
 8777SOL     OW36644   9.459   8.665  12.984 -0.3353 -0.3370  0.8612
 8777SOL    HW136645   9.444   8.750  13.026  0.9556 -0.4045  1.5081
 8777SOL    HW236646   9.391   8.659  12.917  1.1827  2.4735 -1.1429
 8778SOL     OW36647   7.863   2.529   6.707  0.4486  0.3722 -0.2225
 8778SOL    HW136648   7.803   2.480   6.650 -0.1152 -0.0776  0.7358
 8778SOL    HW236649   7.810   2.552   6.783  1.0523  1.4126 -0.0992
 8779SOL     OW36650   7.947   1.421  12.276  0.2771 -0.4346 -0.2663
 8779SOL    HW136651   7.972   1.421  12.368  1.6749  2.4777 -0.5276
 8779SOL    HW236652   7.895   1.341  12.265 -1.2079 -0.1525  3.3501
 8780SOL     OW36653   3.087   6.387   5.432  0.2953 -0.4090 -0.1389
 8780SOL    HW136654   3.153   6.352   5.373  1.6192  1.1167  0.3470
 8780SOL    HW236655   3.031   6.441   5.377 -0.0576 -1.0471 -0.4131
 8781SOL     OW36656  11.881   7.723  12.084 -0.0929 -0.0792 -0.2965
 8781SOL    HW136657  11.822   7.734  12.009  0.6201  0.8789 -0.7505
 8781SOL    HW236658  11.953   7.671  12.049 -1.3772 -2.6838  0.6892
 8782SOL     OW36659  12.926   9.447   3.911 -0.2749  0.1023  0.5485
 8782SOL    HW136660  12.949   9.527   3.959 -1.4946  1.0791 -0.4372
 8782SOL    HW236661  12.857   9.407   3.964 -0.8620  0.6149  0.1874
 8783SOL     OW36662   8.214  10.118   6.507  0.2690  0.0718  0.0220
 8783SOL    HW136663   8.246  10.204   6.478 -0.4083  0.5036  0.5129
 8783SOL    HW236664   8.203  10.128   6.602 -1.0171 -0.1563 -0.0880
 8784SOL     OW36665   0.882   6.890  11.187  0.0913 -0.0720  0.1598
 8784SOL    HW136666   0.960   6.834  11.192 -1.5534 -2.5851 -0.0851
 8784SOL    HW236667   0.819   6.838  11.136 -1.9100  1.6141  0.7699
 8785SOL     OW36668   3.026   5.032   2.976 -0.2647 -0.4926 -0.2635
 8785SOL    HW136669   3.064   4.953   3.015 -0.1790 -0.3155  0.0151
 8785SOL    HW236670   2.951   5.052   3.032  1.5252  1.4484  1.6523
 8786SOL     OW36671   5.510   7.050   1.391 -0.4394  1.2922 -0.0977
 8786SOL    HW136672   5.427   7.089   1.419 -0.4647  0.4798  1.0165
 8786SOL    HW236673   5.574   7.120   1.398 -0.7262  1.4824  0.6377
 8787SOL     OW36674   2.720   3.298   5.566 -0.1168 -0.3054 -0.4630
 8787SOL    HW136675   2.709   3.297   5.471  1.7153 -0.8523 -0.6968
 8787SOL    HW236676   2.756   3.212   5.587 -0.1254 -0.0448  0.6915
 8788SOL     OW36677  12.893  12.272   6.766 -0.2006 -0.4052 -0.1134
 8788SOL    HW136678  12.966  12.211   6.775 -0.0626 -0.5150 -1.6863
 8788SOL    HW236679  12.815  12.217   6.766 -0.1922 -0.4170  0.1949
 8789SOL     OW36680   1.285   9.933   4.070  0.1260  0.0050  0.3468
 8789SOL    HW136681   1.323   9.971   3.991 -0.0068 -0.0815  0.2401
 8789SOL    HW236682   1.237  10.005   4.112  1.2346  0.3840  1.0172
 8790SOL     OW36683  12.774   4.261   2.266  0.1183  0.6967  0.1262
 8790SOL    HW136684  12.781   4.302   2.180 -0.8638  2.1360  0.6822
 8790SOL    HW236685  12.766   4.335   2.327  2.4978 -0.1969  1.6660
 8791SOL     OW36686   6.838   5.996   8.748  0.0932  0.0097 -0.0236
 8791SOL    HW136687   6.827   5.901   8.742  1.5748 -0.1731 -0.2104
 8791SOL    HW236688   6.749   6.030   8.751 -0.5166 -1.2699 -1.7315
 8792SOL     OW36689   4.680   6.489   4.521  0.1643 -0.5946  0.5873
 8792SOL    HW136690   4.774   6.486   4.503  0.3788 -1.8116  1.7304
 8792SOL    HW236691   4.665   6.576   4.558  0.9570 -0.6111  0.9717
 8793SOL     OW36692   5.360  12.776  12.861 -0.1912  0.2442 -0.4336
 8793SOL    HW136693   5.322  12.724  12.790 -0.8450  0.8007 -0.5023
 8793SOL    HW236694   5.300  12.765  12.934  0.5055 -0.3647  0.0682
 8794SOL     OW36695   9.716   5.159   4.631  0.0686  0.1209 -0.0975
 8794SOL    HW136696   9.683   5.181   4.544  0.3143  0.1149 -0.1913
 8794SOL    HW236697   9.696   5.066   4.642  3.5284 -0.9777 -1.7378
 8795SOL     OW36698   1.778   9.514   4.541  0.2567 -0.0072 -0.6243
 8795SOL    HW136699   1.761   9.486   4.451 -0.5963 -0.0882 -0.4515
 8795SOL    HW236700   1.690   9.528   4.578  0.6068  0.3430  0.0921
 8796SOL     OW36701   5.893  12.671   7.532  0.2812 -0.2221  0.1025
 8796SOL    HW136702   5.854  12.713   7.608  2.9845  0.3897  1.2637
 8796SOL    HW236703   5.902  12.741   7.467  0.0116 -0.2213  0.0673
 8797SOL     OW36704   0.103   2.559   8.144 -0.1713  0.1488 -0.6370
 8797SOL    HW136705   0.083   2.508   8.222 -2.9059  0.7194 -0.8714
 8797SOL    HW236706   0.178   2.513   8.104 -0.8896 -2.1533  0.4898
 8798SOL     OW36707   8.551   4.814   4.323 -0.0118 -0.3775 -0.3686
 8798SOL    HW136708   8.568   4.902   4.359 -1.7675  0.2053 -0.8496
 8798SOL    HW236709   8.463   4.792   4.355 -0.7074 -0.7901 -2.4374
 8799SOL     OW36710   7.046   2.674   0.747  0.3002 -0.4098  0.4085
 8799SOL    HW136711   6.987   2.599   0.739  0.7222 -0.9398  1.8909
 8799SOL    HW236712   7.023   2.731   0.673 -0.8350 -1.4354 -0.0637
 8800SOL     OW36713   1.692   8.664   1.991 -0.9840  0.4115 -0.5166
 8800SOL    HW136714   1.642   8.589   1.961 -0.5880  0.6636 -1.8814
 8800SOL    HW236715   1.630   8.737   1.988 -0.8977  0.4713 -0.9188
 8801SOL     OW36716   1.167   3.391   1.850  0.4804  0.3926  0.2959
 8801SOL    HW136717   1.086   3.442   1.844  1.1793  1.3249 -3.4859
 8801SOL    HW236718   1.237   3.456   1.843  1.4383 -0.7355 -1.2192
 8802SOL     OW36719   7.517   4.310   6.221 -0.3758 -0.2727  0.2415
 8802SOL    HW136720   7.464   4.384   6.251  0.1236  0.1009  0.2010
 8802SOL    HW236721   7.509   4.245   6.290  0.0728  0.2492  0.7916
 8803SOL     OW36722   3.215   0.871   0.745  0.5777 -0.3677  0.2287
 8803SOL    HW136723   3.213   0.865   0.841  0.8153 -1.4857  0.1714
 8803SOL    HW236724   3.191   0.784   0.714  0.7375 -0.0856 -0.7331
 8804SOL     OW36725   1.731   0.715   5.867  0.1470 -0.1419  0.2889
 8804SOL    HW136726   1.750   0.733   5.959  1.0541 -0.8374  0.2425
 8804SOL    HW236727   1.758   0.795   5.821  1.4197 -0.4778  0.4221
 8805SOL     OW36728   7.908   7.712   9.493 -0.3250  0.4534 -0.2317
 8805SOL    HW136729   7.863   7.681   9.414  1.3219  0.0680 -1.0583
 8805SOL    HW236730   7.886   7.805   9.498 -0.1013  0.5832 -1.4139
 8806SOL     OW36731   8.151  12.201   7.067  0.3721  0.1474  0.2030
 8806SOL    HW136732   8.119  12.111   7.059  1.3061 -0.2769  1.0119
 8806SOL    HW236733   8.233  12.202   7.018 -0.7737  1.2174 -1.8265
 8807SOL     OW36734   4.398  10.745   0.929  0.3633  0.3198  0.7060
 8807SOL    HW136735   4.344  10.672   0.960  0.5096  0.1863  0.6463
 8807SOL    HW236736   4.432  10.716   0.844  1.0667  0.1358  1.0494
 8808SOL     OW36737  10.178   1.333   2.146  0.0647 -0.2226  0.1208
 8808SOL    HW136738  10.116   1.355   2.215 -0.0406  0.2942 -0.1360
 8808SOL    HW236739  10.209   1.246   2.169 -0.2347 -0.1996  0.6286
 8809SOL     OW36740   6.404   4.132   5.693 -0.0625 -0.2077 -0.2638
 8809SOL    HW136741   6.389   4.227   5.700 -1.4539 -0.4134 -0.1855
 8809SOL    HW236742   6.338   4.102   5.631  1.2765 -0.9416 -1.3840
 8810SOL     OW36743  10.780   4.377   6.505  0.3611  0.4865 -0.1896
 8810SOL    HW136744  10.860   4.357   6.455  0.4740 -1.1156  0.5681
 8810SOL    HW236745  10.801   4.458   6.552  2.0393 -0.5418  0.9523
 8811SOL     OW36746   4.572   9.325  12.714 -0.0154  0.6210  0.3452
 8811SOL    HW136747   4.488   9.358  12.747 -0.3374  0.6087 -0.4438
 8811SOL    HW236748   4.617   9.292  12.792 -1.5363 -1.1168  0.5563
 8812SOL     OW36749   9.021   6.313   7.322 -0.6839 -0.3729  0.2608
 8812SOL    HW136750   9.051   6.346   7.238 -1.8485 -1.3268 -0.5588
 8812SOL    HW236751   9.088   6.250   7.349 -0.5229 -0.3820 -0.1570
 8813SOL     OW36752   9.325   7.596   1.354 -0.2852 -0.5511  0.2191
 8813SOL    HW136753   9.290   7.683   1.373 -0.0433 -0.3987 -0.0232
 8813SOL    HW236754   9.334   7.594   1.258  0.1528 -0.6700  0.2590
 8814SOL     OW36755   0.541   0.537   8.220  0.5220  0.3229  0.2062
 8814SOL    HW136756   0.501   0.453   8.198 -0.1133  0.6524  0.0996
 8814SOL    HW236757   0.528   0.545   8.315 -0.0864  0.6386  0.1040
 8815SOL     OW36758   8.769   3.032   1.101 -0.9037  0.5978 -0.0962
 8815SOL    HW136759   8.828   3.093   1.146  1.7297 -0.5626 -1.7418
 8815SOL    HW236760   8.745   3.078   1.021 -2.9391  1.3397  0.8595
 8816SOL     OW36761   8.795   8.119   9.390 -0.9165  0.2700 -0.3369
 8816SOL    HW136762   8.835   8.200   9.421  0.5096 -0.0876 -1.1221
 8816SOL    HW236763   8.843   8.098   9.310 -0.9992 -1.5332  0.0339
 8817SOL     OW36764   1.011   2.055  12.921 -0.3131  0.5891  0.2268
 8817SOL    HW136765   0.928   2.032  12.878 -0.5637  1.3048  0.3187
 8817SOL    HW236766   1.076   2.053  12.851 -0.4685  0.3915  0.0842
 8818SOL     OW36767  10.972   1.053  11.181 -0.6909 -0.0376  0.4472
 8818SOL    HW136768  10.900   1.000  11.145 -1.7101  0.5140  1.5803
 8818SOL    HW236769  11.018   1.087  11.105 -2.1703  0.2832 -0.3409
 8819SOL     OW36770   6.842  11.156   1.428  0.1389 -0.0445 -0.3533
 8819SOL    HW136771   6.799  11.204   1.498 -1.1165 -1.9504  0.2560
 8819SOL    HW236772   6.936  11.165   1.447 -0.0398  1.9752 -0.1987
 8820SOL     OW36773   4.118  10.612  12.117 -0.2508 -0.2843 -0.2868
 8820SOL    HW136774   4.062  10.606  12.040 -1.3172 -0.4257  0.4777
 8820SOL    HW236775   4.066  10.660  12.181  1.0847  0.9098 -0.0413
 8821SOL     OW36776   9.812  11.676   0.222  0.3908  0.0749 -0.2257
 8821SOL    HW136777   9.846  11.763   0.242 -1.0808  0.8324 -0.8254
 8821SOL    HW236778   9.735  11.692   0.168  0.1057 -1.6109 -0.3856
 8822SOL     OW36779   5.790   8.214   9.148  0.0145  0.0083  0.0216
 8822SOL    HW136780   5.753   8.126   9.144  0.2461 -0.0368 -1.6040
 8822SOL    HW236781   5.769   8.245   9.236  1.1852 -2.2055  1.1617
 8823SOL     OW36782   2.941   9.853   9.144 -0.5996 -0.4847  0.0411
 8823SOL    HW136783   2.847   9.863   9.160 -0.7277 -0.8272 -0.4727
 8823SOL    HW236784   2.950   9.866   9.049 -0.1768 -0.8000  0.0374
 8824SOL     OW36785   2.732   6.932  12.049  0.3028 -0.6455 -0.1715
 8824SOL    HW136786   2.737   6.848  12.094 -1.7578 -1.6580 -1.6647
 8824SOL    HW236787   2.682   6.988  12.108 -0.4661 -1.2653 -0.2185
 8825SOL     OW36788  11.460   7.077   3.775 -0.4986 -0.1029  0.1625
 8825SOL    HW136789  11.445   7.016   3.702  0.3876  1.8096 -1.7218
 8825SOL    HW236790  11.375   7.118   3.789 -0.6079 -0.2757  0.0143
 8826SOL     OW36791   2.162   3.923   3.951 -0.0371  0.0240 -0.2563
 8826SOL    HW136792   2.139   4.015   3.943  0.1447 -0.0835 -2.7765
 8826SOL    HW236793   2.086   3.883   3.994 -0.4968  1.1833  0.0477
 8827SOL     OW36794   3.528   8.634   7.304 -0.3458  0.2761  0.1038
 8827SOL    HW136795   3.505   8.713   7.255 -0.5122  0.3701  0.3303
 8827SOL    HW236796   3.611   8.655   7.347  1.4063 -0.8276 -2.4917
 8828SOL     OW36797   0.063   2.756  12.158  0.7442  0.4527  0.2865
 8828SOL    HW136798   0.143   2.774  12.109  1.3881 -1.2658  0.6219
 8828SOL    HW236799   0.041   2.665  12.137 -0.8906  0.7478  0.5421
 8829SOL     OW36800   2.607   6.939   2.375  0.6668  0.7971  0.0954
 8829SOL    HW136801   2.574   6.929   2.465  1.4902  1.2368  0.4526
 8829SOL    HW236802   2.530   6.968   2.325 -0.2820 -1.2918  0.2443
 8830SOL     OW36803  11.493   6.697   8.251  0.9015 -0.4255  0.1263
 8830SOL    HW136804  11.425   6.661   8.309  0.1430 -0.1874 -0.5950
 8830SOL    HW236805  11.575   6.663   8.286  0.6478  1.0614  2.3718
 8831SOL     OW36806   2.320   4.662   7.737  0.0008  0.6714 -0.2081
 8831SOL    HW136807   2.378   4.589   7.759 -0.9652  0.6188  2.5301
 8831SOL    HW236808   2.378   4.732   7.709  1.8120  1.3607  4.4210
 8832SOL     OW36809   9.217   8.478   5.159  0.1149  0.1202  0.2299
 8832SOL    HW136810   9.229   8.388   5.189 -0.5800  0.2893  1.0923
 8832SOL    HW236811   9.156   8.472   5.086  1.1071 -0.2227 -0.5825
 8833SOL     OW36812  12.486   2.330   8.045  0.0108  0.0890  0.3262
 8833SOL    HW136813  12.544   2.265   8.086  0.0562  0.3068  0.6144
 8833SOL    HW236814  12.404   2.323   8.094 -0.6887 -1.1831 -0.9699
 8834SOL     OW36815   8.869   4.045   4.329  0.0208 -0.6888  0.3376
 8834SOL    HW136816   8.867   4.122   4.385  1.1776 -0.2158 -0.2320
 8834SOL    HW236817   8.862   3.971   4.390  1.0645 -0.1819  1.1127
 8835SOL     OW36818   2.544   4.866   4.872 -0.0081  0.2667 -0.3526
 8835SOL    HW136819   2.605   4.807   4.828  0.9455 -0.2855  1.6019
 8835SOL    HW236820   2.551   4.948   4.824  0.0999 -0.6067 -1.9126
 8836SOL     OW36821  10.738   8.777   2.105  0.2126 -0.6718 -0.0544
 8836SOL    HW136822  10.680   8.775   2.029  0.5141 -3.3643 -0.3138
 8836SOL    HW236823  10.683   8.746   2.178  0.7927 -1.3764  0.0949
 8837SOL     OW36824   9.507   8.015   9.876 -0.6387  0.0485  0.8982
 8837SOL    HW136825   9.508   8.045   9.967 -0.5007 -0.4897  1.0743
 8837SOL    HW236826   9.561   7.936   9.875 -0.2827  0.2934  0.2626
 8838SOL     OW36827   9.360   3.996   3.719 -0.0122 -0.1529  0.1957
 8838SOL    HW136828   9.380   3.925   3.658  0.2209 -0.2301  0.3598
 8838SOL    HW236829   9.265   4.006   3.715  0.1401  0.9192 -1.3857
 8839SOL     OW36830  11.159   9.533   8.845  0.0591 -0.8719  0.3031
 8839SOL    HW136831  11.234   9.495   8.800  0.2675 -0.0805 -0.0441
 8839SOL    HW236832  11.195   9.568   8.927  0.2013  0.0365 -0.1325
 8840SOL     OW36833  11.416   2.578  11.602  0.0235  0.0598  0.2897
 8840SOL    HW136834  11.439   2.486  11.588 -1.5776 -0.4525  0.7632
 8840SOL    HW236835  11.372   2.604  11.521 -0.3589  0.1215  0.5139
 8841SOL     OW36836   3.963   6.765   5.726 -0.0769 -0.3524 -0.0730
 8841SOL    HW136837   3.872   6.789   5.741 -0.5402 -2.3071  0.5125
 8841SOL    HW236838   4.013   6.821   5.786 -0.8448  0.8452 -0.5170
 8842SOL     OW36839   1.591   7.691  10.042  0.2461 -0.6448  0.4896
 8842SOL    HW136840   1.676   7.695   9.998 -0.6574  0.6894 -1.2631
 8842SOL    HW236841   1.600   7.751  10.117  0.4765  0.5297 -0.4465
 8843SOL     OW36842   1.568   7.877   3.968 -0.0500  0.1469  0.6923
 8843SOL    HW136843   1.617   7.890   3.887  0.3828 -0.4483  0.8551
 8843SOL    HW236844   1.547   7.784   3.969  0.5600  0.0041  1.6051
 8844SOL     OW36845   0.470   6.417   9.971  0.0649 -0.1637  0.4161
 8844SOL    HW136846   0.451   6.508   9.991  0.0129  0.1807 -1.0921
 8844SOL    HW236847   0.433   6.368  10.044  0.7621  1.0604  1.6179
 8845SOL     OW36848  12.471  11.956   9.850  0.4498 -0.6408  0.6106
 8845SOL    HW136849  12.565  11.937   9.853  0.4137 -1.4278 -1.4983
 8845SOL    HW236850  12.432  11.874   9.819 -0.6456  0.4325 -0.9463
 8846SOL     OW36851  10.124   2.352  10.480 -0.4723  0.0791 -0.0283
 8846SOL    HW136852  10.093   2.428  10.430 -2.0244  0.7526  1.8374
 8846SOL    HW236853  10.165   2.389  10.558 -1.6858 -0.9479  1.1505
 8847SOL     OW36854   2.846   5.193   1.011 -0.1835 -0.9788  0.2090
 8847SOL    HW136855   2.805   5.225   1.091  0.2841  0.4211 -0.0859
 8847SOL    HW236856   2.830   5.262   0.946  2.1129 -0.6368 -0.0782
 8848SOL     OW36857   5.233  12.611  12.640 -0.0758 -0.1094  0.1892
 8848SOL    HW136858   5.251  12.588  12.550 -0.8462 -1.4595  0.3598
 8848SOL    HW236859   5.148  12.656  12.637  0.6872  1.3698  0.0523
 8849SOL     OW36860  12.310   7.155   9.593  0.3812  0.3654 -0.0083
 8849SOL    HW136861  12.230   7.184   9.636 -1.2002  1.6678 -3.4714
 8849SOL    HW236862  12.305   7.059   9.595  0.3645  0.3395  2.4185
 8850SOL     OW36863   0.646   7.006   4.107  0.5094 -0.0501 -0.0677
 8850SOL    HW136864   0.716   7.059   4.146  0.1471  1.0123 -0.8097
 8850SOL    HW236865   0.667   7.002   4.014 -1.9717  3.0204 -0.9670
 8851SOL     OW36866  11.595  10.803   8.810 -0.4250 -0.5319  0.2415
 8851SOL    HW136867  11.673  10.857   8.799 -0.3702 -0.4741  0.8630
 8851SOL    HW236868  11.606  10.762   8.896 -0.5844 -1.3396 -0.1154
 8852SOL     OW36869  12.946   4.965   5.194  0.8144  0.7648  0.5749
 8852SOL    HW136870  12.952   4.903   5.267  0.7325 -0.0539 -0.0879
 8852SOL    HW236871  13.030   4.955   5.148 -0.4447 -1.4946 -1.5441
 8853SOL     OW36872   7.550   8.268  11.952 -0.9768  0.4364  0.3652
 8853SOL    HW136873   7.492   8.329  11.998 -1.0741 -0.0635  0.9263
 8853SOL    HW236874   7.584   8.212  12.021  0.2434  0.7702  0.0445
 8854SOL     OW36875   8.006   5.227   4.646  0.0180  0.5348 -0.0557
 8854SOL    HW136876   7.966   5.280   4.715 -4.2006 -0.4083 -1.5176
 8854SOL    HW236877   8.010   5.285   4.570  2.1966  0.7747  0.1701
 8855SOL     OW36878   0.680   4.399   5.804 -0.0424  0.3789 -0.3021
 8855SOL    HW136879   0.737   4.344   5.857 -2.2433 -1.3779  0.3882
 8855SOL    HW236880   0.642   4.462   5.865 -0.0181  0.5437 -0.4543
 8856SOL     OW36881   0.211  10.599   1.555 -0.1353 -0.9132  0.3593
 8856SOL    HW136882   0.120  10.571   1.541 -0.0696 -0.4799 -1.1715
 8856SOL    HW236883   0.204  10.694   1.569  0.1148 -0.7667 -0.4447
 8857SOL     OW36884   9.948   8.887   5.997  0.1318 -0.2501  0.0064
 8857SOL    HW136885   9.996   8.963   5.963  1.0755 -0.7780  0.1009
 8857SOL    HW236886   9.902   8.852   5.922 -1.4668  1.2007  0.2296
 8858SOL     OW36887  10.620   6.996   1.252 -0.6304 -0.3679  0.6026
 8858SOL    HW136888  10.683   6.993   1.324  1.1563 -0.0286 -0.8875
 8858SOL    HW236889  10.622   6.909   1.214  1.3371  0.4552 -1.3607
 8859SOL     OW36890   1.363   4.006   6.521  0.2479  0.2827  0.0989
 8859SOL    HW136891   1.277   3.978   6.552  0.6550  0.1196  1.0887
 8859SOL    HW236892   1.425   3.966   6.582  1.0207  0.5524 -0.4976
 8860SOL     OW36893   2.338   3.462  10.292 -0.1420 -0.0079 -0.4564
 8860SOL    HW136894   2.359   3.497  10.205  0.8597  1.4606  0.3334
 8860SOL    HW236895   2.412   3.489  10.347 -1.2649  0.0429  1.0944
 8861SOL     OW36896   8.802  12.371   2.663  0.0017  0.3492 -0.4323
 8861SOL    HW136897   8.791  12.452   2.712  2.0462  0.0795  0.5430
 8861SOL    HW236898   8.769  12.392   2.575 -0.3590  1.9372  0.0478
 8862SOL     OW36899   9.851   3.806   7.502 -0.5869 -0.2460 -0.3820
 8862SOL    HW136900   9.882   3.828   7.590 -0.4623 -2.4140  0.1738
 8862SOL    HW236901   9.824   3.890   7.464  1.5919  1.0916  0.8196
 8863SOL     OW36902   2.505   0.398   8.212  0.1240  0.4465 -0.4593
 8863SOL    HW136903   2.589   0.438   8.192  0.2275 -0.9059 -3.2113
 8863SOL    HW236904   2.440   0.465   8.191  0.4296  0.4707 -1.3552
 8864SOL     OW36905  11.391  10.716  12.693  0.2580 -0.0126  1.0281
 8864SOL    HW136906  11.324  10.679  12.636  0.5532  1.7276 -0.5415
 8864SOL    HW236907  11.437  10.640  12.728 -0.0418 -1.1678 -0.9501
 8865SOL     OW36908   1.596   8.299  11.264 -0.1022  0.3147 -0.1207
 8865SOL    HW136909   1.662   8.325  11.328  2.1354 -0.9185 -1.7579
 8865SOL    HW236910   1.572   8.210  11.289 -1.2763  0.7983  0.5322
 8866SOL     OW36911   4.610   3.867  10.248  0.0857  0.0902 -0.5953
 8866SOL    HW136912   4.625   3.813  10.170 -1.3092 -0.6890 -0.3533
 8866SOL    HW236913   4.519   3.851  10.271  0.4632  0.3425  1.1870
 8867SOL     OW36914   6.943  10.559   3.847 -0.1557 -0.4193  0.4992
 8867SOL    HW136915   6.983  10.585   3.930 -1.1554 -0.1637  0.9268
 8867SOL    HW236916   6.887  10.633   3.824  0.2264 -0.4267 -0.4927
 8868SOL     OW36917  11.603   1.114  11.914  0.1394  0.2402  0.1632
 8868SOL    HW136918  11.623   1.146  12.001 -0.2718 -0.2146  0.4301
 8868SOL    HW236919  11.593   1.019  11.925  0.3502  0.1436 -0.4224
 8869SOL     OW36920   2.785   1.110  12.684 -0.7316  0.4307 -0.1555
 8869SOL    HW136921   2.690   1.112  12.668 -1.0462 -0.5336  1.3309
 8869SOL    HW236922   2.823   1.089  12.599 -1.8075  1.4067 -0.9058
 8870SOL     OW36923   7.283   8.844   7.110 -0.1505  0.5235  0.5806
 8870SOL    HW136924   7.280   8.939   7.126 -0.5388  0.4343  1.0476
 8870SOL    HW236925   7.331   8.809   7.185 -0.4860  0.2927  0.6871
 8871SOL     OW36926   1.126   6.160   6.419  0.1774  0.6210  0.3310
 8871SOL    HW136927   1.044   6.135   6.463 -1.0021  0.2631 -1.9257
 8871SOL    HW236928   1.195   6.120   6.473 -1.2397 -0.6477  1.2937
 8872SOL     OW36929   1.612  11.908   1.614 -0.0148  0.1679  0.1700
 8872SOL    HW136930   1.633  11.816   1.596  1.4793  0.1604  1.6891
 8872SOL    HW236931   1.584  11.943   1.529  0.9405 -1.2933 -0.8027
 8873SOL     OW36932   2.032   8.719   5.032  0.0484 -0.2190  0.0452
 8873SOL    HW136933   2.017   8.635   4.989  1.4378 -0.2896 -0.3658
 8873SOL    HW236934   2.128   8.728   5.034 -0.0694  1.8817 -0.9772
 8874SOL     OW36935   6.869   5.096   3.019 -0.3573 -0.2102 -0.2489
 8874SOL    HW136936   6.874   5.027   3.085 -0.3858  1.9618  2.1837
 8874SOL    HW236937   6.782   5.085   2.979 -0.3690 -1.5141  0.0865
 8875SOL     OW36938   5.218   2.462   1.547 -0.5581  0.0618 -0.7797
 8875SOL    HW136939   5.194   2.546   1.507  0.1021 -0.2333 -1.8290
 8875SOL    HW236940   5.298   2.436   1.501 -1.2818 -1.6003 -1.1508
 8876SOL     OW36941   8.303  10.214   7.571  0.0523  0.1145 -0.2547
 8876SOL    HW136942   8.257  10.295   7.550  0.1934  0.0122 -0.9886
 8876SOL    HW236943   8.339  10.184   7.487  1.3138  0.1020  0.2801
 8877SOL     OW36944   5.108  11.729   9.906 -0.3507 -0.0461  0.2407
 8877SOL    HW136945   5.088  11.643   9.943  0.2579 -0.4684 -0.3820
 8877SOL    HW236946   5.108  11.788   9.981 -0.6462 -0.6074  0.6918
 8878SOL     OW36947   4.502   8.832   5.131 -0.2131 -0.3577 -0.0301
 8878SOL    HW136948   4.544   8.753   5.166  1.8740  1.2958  1.4868
 8878SOL    HW236949   4.413   8.805   5.111  0.1215 -2.8476  1.4328
 8879SOL     OW36950   4.005   5.402   0.531 -0.1728  0.2522 -0.6045
 8879SOL    HW136951   3.982   5.481   0.482  0.5288 -1.4355 -4.0042
 8879SOL    HW236952   4.100   5.402   0.534 -0.1893  0.7984  1.8218
 8880SOL     OW36953  11.193   4.526   6.766  0.2472  0.3693 -0.3919
 8880SOL    HW136954  11.203   4.573   6.683 -0.3134 -0.3201 -0.8602
 8880SOL    HW236955  11.193   4.595   6.832 -1.5651  1.1476 -1.1317
 8881SOL     OW36956   6.139   6.317   4.080  0.1863  0.0854 -0.3809
 8881SOL    HW136957   6.199   6.291   4.150  1.4576  1.6510 -0.8248
 8881SOL    HW236958   6.114   6.407   4.102 -1.0334 -0.1150 -0.8639
 8882SOL     OW36959  10.674   2.063  11.115 -0.4383  0.0218  0.0474
 8882SOL    HW136960  10.726   2.101  11.044 -0.4281 -0.6916 -0.3412
 8882SOL    HW236961  10.642   1.980  11.079 -0.1005 -0.5508  1.0106
 8883SOL     OW36962  11.253  11.025  10.773 -0.3117 -0.0468 -0.2377
 8883SOL    HW136963  11.300  11.053  10.694 -1.2037  0.2917 -0.6627
 8883SOL    HW236964  11.170  11.072  10.769 -1.3652 -1.8310 -0.3272
 8884SOL     OW36965   0.429   2.266   4.140  0.2872 -0.3304  0.6557
 8884SOL    HW136966   0.521   2.272   4.166  0.3789  1.6087  0.0070
 8884SOL    HW236967   0.431   2.256   4.045 -0.1448  2.2104  0.3072
 8885SOL     OW36968   8.724   1.847   3.008  0.0521  0.4014  0.8092
 8885SOL    HW136969   8.633   1.875   2.996 -0.6253 -1.6311  0.8171
 8885SOL    HW236970   8.762   1.849   2.921  0.2072  1.8703  0.8976
 8886SOL     OW36971   3.742  11.034   7.401 -0.2575  0.2619  0.3745
 8886SOL    HW136972   3.704  11.077   7.477  0.3314 -0.3697  1.0398
 8886SOL    HW236973   3.694  10.951   7.394  0.2222 -0.0325  0.5364
 8887SOL     OW36974   5.827   8.524   1.525 -0.0430  0.3071 -0.4372
 8887SOL    HW136975   5.884   8.601   1.522  1.9348 -1.0759 -3.1100
 8887SOL    HW236976   5.738   8.559   1.517  0.6952  2.3729 -0.1584
 8888SOL     OW36977   1.739   3.874   8.211 -0.1177 -0.0170 -0.6460
 8888SOL    HW136978   1.834   3.882   8.221  0.0833 -0.1914 -2.1496
 8888SOL    HW236979   1.727   3.850   8.119 -1.6285  0.1797 -0.5219
 8889SOL     OW36980  12.825   5.494   5.541  0.0161 -0.4123  0.0779
 8889SOL    HW136981  12.754   5.446   5.583 -1.1243  0.7205 -0.4648
 8889SOL    HW236982  12.800   5.497   5.449  0.8432 -0.1124 -0.1431
 8890SOL     OW36983   2.204   3.735   1.926 -0.1028  0.3387 -0.2117
 8890SOL    HW136984   2.127   3.770   1.881  0.2407  0.7111 -0.5148
 8890SOL    HW236985   2.277   3.786   1.891  0.3255 -0.2648 -0.2089
 8891SOL     OW36986   9.816   1.572   6.419  0.1219  0.2665  0.0298
 8891SOL    HW136987   9.833   1.478   6.414  0.5587  0.2791  0.9453
 8891SOL    HW236988   9.733   1.578   6.466  0.5262  0.3505  0.7471
 8892SOL     OW36989   1.481   5.129   5.618  0.7168 -0.0536  0.3306
 8892SOL    HW136990   1.438   5.095   5.540  0.8217  0.3248  0.1025
 8892SOL    HW236991   1.571   5.147   5.590  0.6577  0.4262  0.4366
 8893SOL     OW36992   8.156   0.822  11.280 -0.3449 -0.0288 -0.0002
 8893SOL    HW136993   8.100   0.757  11.239  1.0734 -0.6942 -0.9790
 8893SOL    HW236994   8.223   0.771  11.326  1.4490  0.6399 -1.6987
 8894SOL     OW36995   5.759   9.907   5.295 -0.3092  0.3983  0.2883
 8894SOL    HW136996   5.757   9.812   5.282 -0.2843  0.1602  1.7597
 8894SOL    HW236997   5.842   9.935   5.258 -0.3573 -0.1408 -0.2467
 8895SOL     OW36998   1.589   7.954   5.893 -0.0568 -0.0187  0.0155
 8895SOL    HW136999   1.528   7.883   5.873  0.4047 -0.3905 -0.0872
 8895SOL    HW237000   1.628   7.929   5.976 -0.9231  0.8217  0.7039
 8896SOL     OW37001   1.175   5.312   1.964  0.3218 -0.6878  0.2916
 8896SOL    HW137002   1.207   5.395   1.929 -2.1440  0.3475  0.2831
 8896SOL    HW237003   1.085   5.306   1.933 -0.0117 -2.7007  1.4819
 8897SOL     OW37004   8.959  10.586   9.216 -0.3673 -0.2903 -0.0015
 8897SOL    HW137005   9.025  10.652   9.195 -1.1521  0.1523 -1.1985
 8897SOL    HW237006   8.888  10.635   9.258 -1.1387 -0.2679 -1.2801
 8898SOL     OW37007   2.748   0.190   1.275 -0.2795  0.1746 -0.2362
 8898SOL    HW137008   2.664   0.165   1.235 -1.4808  1.4726  1.3640
 8898SOL    HW237009   2.727   0.267   1.329  1.6320 -0.3964  1.4204
 8899SOL     OW37010   4.076  10.597   2.036 -0.2242  0.2793 -0.7485
 8899SOL    HW137011   4.134  10.663   2.074  1.0570  0.4639 -2.8443
 8899SOL    HW237012   3.998  10.646   2.009 -0.2239  0.5280 -0.2987
 8900SOL     OW37013   3.240  12.388   0.123 -0.3482  0.2218  0.0790
 8900SOL    HW137014   3.167  12.359   0.068 -1.1646  1.5806  0.4082
 8900SOL    HW237015   3.200  12.410   0.207  1.0640 -3.1290  1.8125
 8901SOL     OW37016   3.026   1.979   7.290 -0.6383  0.3000 -0.0042
 8901SOL    HW137017   2.973   2.026   7.354  1.8859  1.3235  1.4491
 8901SOL    HW237018   3.098   1.941   7.340  0.3715 -0.5240 -1.9579
 8902SOL     OW37019  11.593   5.406   1.590 -0.0124 -0.0125 -0.1483
 8902SOL    HW137020  11.601   5.498   1.617  0.5194 -0.2312  0.4840
 8902SOL    HW237021  11.580   5.358   1.673  1.4568 -0.6898 -0.2771
 8903SOL     OW37022   5.626   3.947   7.047  0.0182  0.5360 -0.1165
 8903SOL    HW137023   5.717   3.919   7.032  0.1106  0.3982  0.6378
 8903SOL    HW237024   5.635   4.026   7.102 -0.3205  0.4699  0.0346
 8904SOL     OW37025  11.188   8.318   4.646 -0.4795  0.2880 -0.4801
 8904SOL    HW137026  11.209   8.242   4.592 -4.0831 -1.3563  0.1599
 8904SOL    HW237027  11.154   8.282   4.728 -1.0860  2.5975  0.3736
 8905SOL     OW37028   2.852   8.744   2.402  0.1892  0.9008  0.1558
 8905SOL    HW137029   2.927   8.688   2.420 -0.5332 -0.2945 -0.4129
 8905SOL    HW237030   2.889   8.832   2.392  1.3245  0.5867  1.2769
 8906SOL     OW37031   5.819   7.344   4.296 -0.5244 -0.1852  0.1182
 8906SOL    HW137032   5.750   7.407   4.315 -0.7573 -0.3139 -0.2944
 8906SOL    HW237033   5.846   7.311   4.382 -0.7585  0.0894  0.3005
 8907SOL     OW37034   6.401   8.308   7.067 -0.0823  0.0887 -0.5286
 8907SOL    HW137035   6.448   8.338   7.146  1.9496 -1.4208 -1.0814
 8907SOL    HW237036   6.323   8.363   7.064  0.9772  1.8516  1.2148
 8908SOL     OW37037   2.093   5.575   6.239  0.0398  0.1774 -0.1970
 8908SOL    HW137038   2.164   5.633   6.265  0.1343  0.2659 -0.6421
 8908SOL    HW237039   2.033   5.632   6.190 -0.4625  0.1607  0.3904
 8909SOL     OW37040  11.468   7.556   7.128 -0.3319  0.6485 -0.6510
 8909SOL    HW137041  11.442   7.538   7.038 -4.2842  1.4166  0.1793
 8909SOL    HW237042  11.451   7.650   7.140  0.9374  0.7498  0.6949
 8910SOL     OW37043   4.700   0.917   9.309  0.0974  0.2075 -0.0183
 8910SOL    HW137044   4.717   0.965   9.391  0.0820 -0.3942  0.3431
 8910SOL    HW237045   4.699   0.985   9.242 -2.2329  1.0428  0.7639
 8911SOL     OW37046  10.554   6.079   7.480 -0.2795 -0.1299  0.6730
 8911SOL    HW137047  10.578   6.169   7.499 -0.7567  0.2981 -0.6430
 8911SOL    HW237048  10.468   6.085   7.438  0.4998 -1.0169 -1.1616
 8912SOL     OW37049   2.566   5.058   1.265 -0.3205 -0.6942  0.9652
 8912SOL    HW137050   2.605   5.134   1.223 -0.5877 -0.9299  0.2804
 8912SOL    HW237051   2.597   5.062   1.356 -0.9285  0.6501  1.1420
 8913SOL     OW37052   9.406   0.572   3.914  0.3200  0.0253  0.2578
 8913SOL    HW137053   9.422   0.548   3.823  1.3166  0.3441  0.3419
 8913SOL    HW237054   9.351   0.650   3.909  0.0411 -0.1856 -0.0573
 8914SOL     OW37055  11.463   7.489   4.693 -0.1635  0.1953  0.0099
 8914SOL    HW137056  11.490   7.498   4.785 -0.2806 -4.0675  0.6862
 8914SOL    HW237057  11.542   7.459   4.648 -0.1611  2.0478 -1.3039
 8915SOL     OW37058   4.386   3.958   4.400  0.0877 -0.0735  0.0161
 8915SOL    HW137059   4.368   4.026   4.465  0.6945 -0.5512  0.6955
 8915SOL    HW237060   4.346   3.879   4.436  1.2421 -0.5597  0.2883
 8916SOL     OW37061  10.879   1.324   7.555 -0.6030  0.5719 -0.1197
 8916SOL    HW137062  10.815   1.263   7.593 -0.3452  0.4148  0.0671
 8916SOL    HW237063  10.934   1.349   7.628 -1.7823  2.4361  0.1893
 8917SOL     OW37064   6.061   6.968   6.358 -0.3146 -0.0935 -0.6561
 8917SOL    HW137065   5.988   7.025   6.383 -0.9813 -0.0724 -2.5032
 8917SOL    HW237066   6.083   6.996   6.269  0.7159 -1.3538 -0.8156
 8918SOL     OW37067   3.805   4.360  11.503  0.2710 -0.3978  0.0052
 8918SOL    HW137068   3.897   4.338  11.518  0.2397 -0.2024  0.4882
 8918SOL    HW237069   3.766   4.278  11.474  0.8677 -0.1884 -1.4927
 8919SOL     OW37070   6.979   2.624   5.720 -0.0896 -0.2060 -0.1896
 8919SOL    HW137071   7.058   2.672   5.697 -0.4478  0.1701 -0.6447
 8919SOL    HW237072   6.997   2.534   5.692 -0.2228  0.0879 -1.2718
 8920SOL     OW37073   0.500   7.904   0.345 -0.4229  0.8060  0.2154
 8920SOL    HW137074   0.428   7.846   0.367 -0.0695 -0.5552 -1.8949
 8920SOL    HW237075   0.465   7.960   0.275  0.7647 -0.6000 -1.6222
 8921SOL     OW37076   9.470  10.159  11.837 -0.3821  0.2180 -0.3990
 8921SOL    HW137077   9.384  10.127  11.810 -1.1217  0.6795  1.2683
 8921SOL    HW237078   9.532  10.098  11.797 -1.5540 -1.0207 -0.4065
 8922SOL     OW37079   7.656   0.966   0.046 -0.1017 -0.0964  0.1998
 8922SOL    HW137080   7.658   1.041  -0.014  0.9566  1.4333  2.0292
 8922SOL    HW237081   7.572   0.973   0.091 -0.9343 -1.2950 -1.0806
 8923SOL     OW37082   4.543   2.144   1.217 -0.4591  0.6805 -0.0743
 8923SOL    HW137083   4.515   2.210   1.154 -1.4635  0.4123  0.0636
 8923SOL    HW237084   4.603   2.190   1.276 -2.2387  1.8894  0.8939
 8924SOL     OW37085   0.595   1.072   8.610 -0.7555 -0.1428  0.5742
 8924SOL    HW137086   0.666   1.010   8.593 -0.5977  0.6761 -2.1146
 8924SOL    HW237087   0.639   1.155   8.627 -1.0224  0.1697 -0.2102
 8925SOL     OW37088   2.611   6.637  11.795  0.0430  0.2989 -0.0216
 8925SOL    HW137089   2.526   6.620  11.755 -1.0176 -1.4912  2.6678
 8925SOL    HW237090   2.674   6.612  11.728 -1.5520 -0.1749 -1.4317
 8926SOL     OW37091   1.392   9.500   6.149 -0.3568 -0.3999  0.1908
 8926SOL    HW137092   1.340   9.569   6.107 -0.0521  0.3791  1.0425
 8926SOL    HW237093   1.471   9.546   6.180 -1.5694 -0.3701  3.6506
 8927SOL     OW37094   5.961   0.411   5.350  1.2036 -0.3315  0.0158
 8927SOL    HW137095   5.893   0.476   5.369  0.5269 -0.8505 -0.6082
 8927SOL    HW237096   5.920   0.350   5.288  2.6097 -0.0099 -1.2695
 8928SOL     OW37097   3.528   2.132   0.018 -0.3871 -0.4274  0.5005
 8928SOL    HW137098   3.612   2.128  -0.028  0.2506  2.8305  1.1465
 8928SOL    HW237099   3.463   2.131  -0.052  0.3482 -0.0351 -0.2124
 8929SOL     OW37100   6.402   9.254   1.312  0.3946 -0.4768 -0.1005
 8929SOL    HW137101   6.477   9.234   1.367 -0.6285 -0.7511  1.2618
 8929SOL    HW237102   6.439   9.286   1.230  1.9671  0.4184  0.9203
 8930SOL     OW37103  10.162  12.831   9.860 -0.4124  0.4851  0.3019
 8930SOL    HW137104  10.202  12.819   9.946  0.4858  0.4828 -0.0948
 8930SOL    HW237105  10.211  12.770   9.803 -1.4113  0.0265 -0.0839
 8931SOL     OW37106   0.201  10.353  12.837 -0.1360 -0.5610  0.5053
 8931SOL    HW137107   0.205  10.323  12.928 -0.2326 -0.6623  0.4748
 8931SOL    HW237108   0.250  10.287  12.788  1.9118  0.6591  0.7969
 8932SOL     OW37109   1.577   1.466   7.779  0.6400  0.3713 -0.2595
 8932SOL    HW137110   1.545   1.417   7.855  0.4623 -0.0192 -0.5843
 8932SOL    HW237111   1.665   1.494   7.804  1.1256 -0.9456 -0.4475
 8933SOL     OW37112  11.892   6.693   7.282  0.4440 -0.1510 -0.1652
 8933SOL    HW137113  11.881   6.627   7.351  0.9453  0.2102  0.2662
 8933SOL    HW237114  11.977   6.672   7.243 -0.6766 -1.5536 -1.9893
 8934SOL     OW37115   4.274  12.892   5.707 -0.1814 -0.1400  0.9376
 8934SOL    HW137116   4.258  12.958   5.775 -0.2108  0.3302  0.4796
 8934SOL    HW237117   4.361  12.914   5.672 -1.4096  1.5580 -1.2987
 8935SOL     OW37118   1.998  12.576   0.274  0.0228 -0.2908 -0.1716
 8935SOL    HW137119   2.072  12.635   0.256  0.7023 -0.7542  0.9642
 8935SOL    HW237120   1.920  12.629   0.258  0.6099  0.4782 -0.5338
 8936SOL     OW37121   9.562   6.883   0.189  0.2367  0.2276 -0.0659
 8936SOL    HW137122   9.557   6.800   0.236 -1.0241 -0.4236 -1.2854
 8936SOL    HW237123   9.617   6.863   0.113  2.1730  1.2433  0.9857
 8937SOL     OW37124  10.881  11.328   3.775  0.4310  0.1098 -0.3686
 8937SOL    HW137125  10.798  11.325   3.822  0.8477 -0.5952  0.3434
 8937SOL    HW237126  10.875  11.256   3.712  1.5792 -1.7696  1.5719
 8938SOL     OW37127   2.031  12.273   9.512 -0.0792 -0.1513 -0.0754
 8938SOL    HW137128   1.981  12.269   9.594 -0.6919 -1.9696 -0.4979
 8938SOL    HW237129   1.978  12.328   9.455 -0.1470  0.3029  0.4138
 8939SOL     OW37130   3.071   3.211  12.003 -0.0382 -0.0277  0.4287
 8939SOL    HW137131   3.067   3.132  11.949 -0.5239 -0.6326  1.3138
 8939SOL    HW237132   2.996   3.264  11.975  0.2575  0.0932 -0.1293
 8940SOL     OW37133   5.286   2.078   5.287  1.0382 -0.6421 -0.1163
 8940SOL    HW137134   5.234   2.141   5.236  0.8676 -0.0912  0.7058
 8940SOL    HW237135   5.245   1.993   5.269  0.9966 -0.4583 -0.9053
 8941SOL     OW37136  10.471   4.167  12.279 -0.5249 -0.6781 -0.8354
 8941SOL    HW137137  10.508   4.207  12.358 -0.9150  1.4050 -1.6510
 8941SOL    HW237138  10.453   4.241  12.221 -1.0147 -2.0967 -2.5612
 8942SOL     OW37139   4.895   5.374   3.293  0.2486 -0.4232  0.0856
 8942SOL    HW137140   4.953   5.367   3.218 -0.1668 -0.8282 -0.2020
 8942SOL    HW237141   4.808   5.382   3.255  0.0089 -0.8809  0.5266
 8943SOL     OW37142   8.199   1.086   9.227  0.2391  0.0610  0.3655
 8943SOL    HW137143   8.121   1.134   9.255 -0.1673  0.4042 -1.2685
 8943SOL    HW237144   8.240   1.143   9.162  1.5433 -0.3877  0.7629
 8944SOL     OW37145   3.860   1.671   4.663  0.0167  0.0846 -0.2366
 8944SOL    HW137146   3.879   1.622   4.583  1.9282 -0.4192  0.4636
 8944SOL    HW237147   3.788   1.624   4.704 -0.7829  0.1794 -1.4986
 8945SOL     OW37148   9.352   7.430  12.373  0.0475  0.5713  0.2884
 8945SOL    HW137149   9.439   7.429  12.413 -0.8239 -1.0361  2.3709
 8945SOL    HW237150   9.334   7.338  12.352 -1.0862  0.8934 -0.2323
 8946SOL     OW37151  11.921  11.624  10.817 -0.4526 -0.1985 -0.4559
 8946SOL    HW137152  12.006  11.649  10.780  0.6023 -0.5195  1.6369
 8946SOL    HW237153  11.892  11.552  10.762 -0.8569  1.7774 -3.0633
 8947SOL     OW37154   5.472  11.305  11.675  0.3055  0.2653  0.2485
 8947SOL    HW137155   5.488  11.398  11.659 -0.9165  0.8709  2.1964
 8947SOL    HW237156   5.540  11.280  11.738  0.1726  0.0277  0.2979
 8948SOL     OW37157  12.425   5.022   9.936 -0.2506 -0.1417 -0.5097
 8948SOL    HW137158  12.464   5.087   9.995  0.7158  1.1662 -2.4795
 8948SOL    HW237159  12.490   4.952   9.931  0.5396  0.6286 -1.4343
 8949SOL     OW37160   1.681  10.126   0.388  0.4109  0.0331  0.4122
 8949SOL    HW137161   1.603  10.098   0.436 -0.7169  0.4314 -1.0847
 8949SOL    HW237162   1.700  10.054   0.328 -1.3421  1.4944 -2.0944
 8950SOL     OW37163   0.711   1.855   2.196  0.8599 -0.3498  0.0457
 8950SOL    HW137164   0.724   1.812   2.280 -0.8836  0.2162  0.6610
 8950SOL    HW237165   0.681   1.784   2.138 -0.7087 -0.2748  0.7002
 8951SOL     OW37166   2.408   9.406   3.543 -0.1418  0.3236  0.2734
 8951SOL    HW137167   2.327   9.385   3.590 -2.0039  1.2234 -2.3247
 8951SOL    HW237168   2.403   9.356   3.462  1.3852  1.2188 -0.4227
 8952SOL     OW37169  12.370   3.428   6.689  0.2692  0.0605  0.0472
 8952SOL    HW137170  12.386   3.520   6.671 -0.4815  0.2161  0.1286
 8952SOL    HW237171  12.282   3.426   6.727  0.7595 -0.5592  1.1826
 8953SOL     OW37172   5.147   8.964  12.153  0.1297 -0.5541  0.0351
 8953SOL    HW137173   5.109   8.997  12.234  0.2337 -0.4176  0.0273
 8953SOL    HW237174   5.130   9.033  12.089  0.4084 -0.4860  0.0362
 8954SOL     OW37175   6.649   7.492   0.358  0.2062  0.4775 -0.1372
 8954SOL    HW137176   6.729   7.488   0.410 -0.0692 -1.9096  0.2128
 8954SOL    HW237177   6.579   7.477   0.421 -0.3552  0.3752 -0.7750
 8955SOL     OW37178   0.686   2.528  10.158  0.5743 -0.0304 -0.3569
 8955SOL    HW137179   0.675   2.434  10.145 -1.1209  0.0987 -0.1575
 8955SOL    HW237180   0.611   2.553  10.212 -0.2218  1.7651 -2.1645
 8956SOL     OW37181   7.345  11.152   3.612  0.4152 -0.2226  0.0208
 8956SOL    HW137182   7.283  11.080   3.622 -0.7709  0.1930 -3.1776
 8956SOL    HW237183   7.291  11.231   3.614  1.3469  0.4192  0.8201
 8957SOL     OW37184   1.607   3.378   2.016 -0.7359 -0.4374  0.3293
 8957SOL    HW137185   1.640   3.289   2.031 -0.4808 -0.3664  0.1896
 8957SOL    HW237186   1.529   3.384   2.072 -0.8886 -0.8262  0.1637
 8958SOL     OW37187   8.096   5.726   2.478 -0.2418  0.7256 -0.3907
 8958SOL    HW137188   8.015   5.771   2.454 -0.4186  1.0713  0.7755
 8958SOL    HW237189   8.069   5.663   2.544  0.2714  0.0338 -0.8378
 8959SOL     OW37190   4.538   5.609   1.042  0.1525 -0.1473 -0.6098
 8959SOL    HW137191   4.630   5.610   1.070  0.3650  2.0982 -1.1372
 8959SOL    HW237192   4.507   5.522   1.065  2.2531 -0.7824  0.1135
 8960SOL     OW37193   7.466  11.873   1.205  0.3861 -0.0731  0.0407
 8960SOL    HW137194   7.442  11.784   1.179  0.2710 -0.0450  0.0494
 8960SOL    HW237195   7.562  11.872   1.208  0.5583  0.5077 -2.5227
 8961SOL     OW37196   0.337   0.887   6.745  0.2667 -0.5805 -0.1258
 8961SOL    HW137197   0.332   0.977   6.776  0.2197  0.2433 -2.4048
 8961SOL    HW237198   0.345   0.893   6.650  0.1586 -2.9859 -0.3695
 8962SOL     OW37199  10.409  10.192   7.647 -0.0174  0.1257  0.0273
 8962SOL    HW137200  10.328  10.244   7.651  0.0111  0.2040 -0.3726
 8962SOL    HW237201  10.379  10.101   7.639 -0.1158 -0.2392  3.3065
 8963SOL     OW37202   7.343   9.298   5.799  0.3867  0.2589 -0.4715
 8963SOL    HW137203   7.416   9.241   5.823  0.9849  1.2075  0.0239
 8963SOL    HW237204   7.337   9.290   5.704  1.2388  0.2656 -0.5382
 8964SOL     OW37205   9.843   4.393   4.046  0.2247 -0.2216 -0.0805
 8964SOL    HW137206   9.760   4.347   4.034 -0.4304  1.0817 -0.7120
 8964SOL    HW237207   9.908   4.335   4.005 -0.4230 -1.0452  0.0304
 8965SOL     OW37208   2.811  11.046  11.669 -0.6084 -0.1303 -0.2333
 8965SOL    HW137209   2.752  10.975  11.692  1.1384 -1.2540  1.0177
 8965SOL    HW237210   2.757  11.125  11.673 -2.2717 -1.2395 -0.3502
 8966SOL     OW37211  11.930  12.630   6.726 -0.0547  0.0547  0.0731
 8966SOL    HW137212  11.906  12.709   6.775  0.0108  1.0002 -1.3650
 8966SOL    HW237213  11.850  12.604   6.681  0.1581 -0.1357 -0.2048
 8967SOL     OW37214  11.224   9.975   2.070 -0.4869  0.3475  0.0277
 8967SOL    HW137215  11.283   9.986   2.145 -0.7440  1.1740  0.1249
 8967SOL    HW237216  11.136   9.978   2.109 -0.6127  0.3646 -0.2563
 8968SOL     OW37217   8.189  11.686   7.139 -0.4279 -0.3406  0.1972
 8968SOL    HW137218   8.255  11.680   7.208 -0.8278 -1.0524  0.5324
 8968SOL    HW237219   8.119  11.627   7.168 -1.2572  0.4813 -0.1065
 8969SOL     OW37220  12.456   2.441   7.752  0.4875 -0.2208 -0.1592
 8969SOL    HW137221  12.541   2.468   7.720  0.5640  0.7008  0.7624
 8969SOL    HW237222  12.475   2.390   7.831  0.2544 -1.5953 -0.9507
 8970SOL     OW37223   2.945   4.835   1.358 -0.3479  0.0359  0.6893
 8970SOL    HW137224   2.924   4.853   1.266  1.3300  0.1017  0.2864
 8970SOL    HW237225   3.040   4.844   1.363 -0.5284  1.5039  2.7708
 8971SOL     OW37226  12.519  11.211  12.192 -0.3149 -0.0440 -0.1747
 8971SOL    HW137227  12.489  11.167  12.271  0.6769  0.3809  0.4656
 8971SOL    HW237228  12.489  11.302  12.201 -0.5074 -0.0775 -0.4585
 8972SOL     OW37229   2.756   4.957   3.774  0.3217 -0.1140 -0.0250
 8972SOL    HW137230   2.763   4.926   3.864 -1.1500 -1.5171 -0.3597
 8972SOL    HW237231   2.662   4.963   3.757  0.5749  0.1492 -1.4703
 8973SOL     OW37232   1.569   9.133   1.803  0.2499  0.0966  0.0149
 8973SOL    HW137233   1.523   9.057   1.768  0.7438  0.5000 -1.5766
 8973SOL    HW237234   1.499   9.191   1.833 -0.1866 -0.3238 -0.1650
 8974SOL     OW37235   8.466   8.974   1.461 -0.6770 -0.3371  0.3057
 8974SOL    HW137236   8.387   8.966   1.408 -1.4373  3.1644  0.6462
 8974SOL    HW237237   8.532   9.010   1.402 -0.1305 -0.7215  0.6642
 8975SOL     OW37238   8.915   1.528   8.864  0.6085 -0.0602 -0.1871
 8975SOL    HW137239   8.851   1.535   8.936 -0.8452  0.7928 -1.4948
 8975SOL    HW237240   8.969   1.453   8.887 -0.6513 -0.6018  1.1673
 8976SOL     OW37241   4.343   0.150   9.782  0.5069  0.6253 -0.7007
 8976SOL    HW137242   4.256   0.187   9.792  0.8721  1.2380  0.4364
 8976SOL    HW237243   4.329   0.055   9.781 -0.2663  0.7391 -1.7902
 8977SOL     OW37244  10.954   7.395   4.012 -0.4700  0.2865 -0.5333
 8977SOL    HW137245  10.921   7.347   3.936 -0.6925 -0.4774  0.0216
 8977SOL    HW237246  10.911   7.353   4.087  0.7713  0.1165  0.1193
 8978SOL     OW37247   7.993   5.899   8.696 -0.1213 -0.4450  0.6175
 8978SOL    HW137248   8.037   5.984   8.698  0.2289 -0.6178  0.3220
 8978SOL    HW237249   8.053   5.842   8.648 -0.4942 -0.7820  0.5495
 8979SOL     OW37250  11.726   0.643   5.166  0.4733 -0.1562 -0.0434
 8979SOL    HW137251  11.734   0.564   5.220  0.9639 -1.4672 -1.8948
 8979SOL    HW237252  11.645   0.685   5.195 -0.5772 -2.1436  0.0801
 8980SOL     OW37253   8.284  10.058   5.407  0.0084 -0.3725 -0.3463
 8980SOL    HW137254   8.303  10.102   5.324  1.2774  0.6860  0.4616
 8980SOL    HW237255   8.250   9.972   5.382  2.6883 -1.0570 -1.9977
 8981SOL     OW37256   4.358   2.363  10.685 -0.1075 -0.1959  0.3830
 8981SOL    HW137257   4.443   2.392  10.716 -0.5435  1.2124  0.3389
 8981SOL    HW237258   4.326   2.435  10.630 -1.1683 -0.8496  0.0954
 8982SOL     OW37259   5.384   8.103   7.197  0.5775 -0.4368 -0.1343
 8982SOL    HW137260   5.301   8.055   7.203  1.6941 -2.2790  2.0578
 8982SOL    HW237261   5.390   8.128   7.105 -3.4636  1.8547 -0.0139
 8983SOL     OW37262   5.827  12.113   2.082  0.1291  0.2853 -0.1622
 8983SOL    HW137263   5.838  12.088   1.990 -0.0399 -2.5168  0.4932
 8983SOL    HW237264   5.811  12.208   2.079 -3.2013 -0.1434 -3.3421
 8984SOL     OW37265  10.185   8.772   8.449 -0.2279 -0.0106  0.7803
 8984SOL    HW137266  10.150   8.840   8.507  0.8758  0.3097  1.1068
 8984SOL    HW237267  10.174   8.807   8.361  2.1600  1.5655  1.0160
 8985SOL     OW37268  12.891   2.788   3.580 -0.2895  0.0786  0.2827
 8985SOL    HW137269  12.933   2.763   3.662  1.7493  0.7319 -0.5140
 8985SOL    HW237270  12.817   2.842   3.606 -0.1251 -0.3427  1.7023
 8986SOL     OW37271   3.897   8.223  11.447  0.5104 -0.2744  0.1605
 8986SOL    HW137272   3.889   8.156  11.515 -2.0631  0.0072  0.2381
 8986SOL    HW237273   3.936   8.177  11.373 -1.7060 -2.1158  0.0073
 8987SOL     OW37274   4.499   4.156   4.243  0.0716  0.5598  0.9350
 8987SOL    HW137275   4.550   4.118   4.171  1.5326  1.3708  1.4855
 8987SOL    HW237276   4.445   4.084   4.275 -1.5423  0.4662 -1.7034
 8988SOL     OW37277   0.355  11.479  11.769 -0.3424  0.0790 -0.7076
 8988SOL    HW137278   0.365  11.412  11.701  0.1736  0.1321 -0.6894
 8988SOL    HW237279   0.284  11.535  11.738 -0.6598 -0.3808 -0.8056
 8989SOL     OW37280  10.678  12.214   8.313 -0.1751  0.1046  0.3903
 8989SOL    HW137281  10.660  12.303   8.283  0.0929  0.7761  2.1262
 8989SOL    HW237282  10.607  12.194   8.373 -0.0407 -0.7345  0.2827
 8990SOL     OW37283  10.351  10.219   5.001  0.2589  0.2602 -0.1321
 8990SOL    HW137284  10.429  10.168   5.022 -1.0229 -1.3353  1.1258
 8990SOL    HW237285  10.350  10.291   5.063  1.6385  1.3921 -1.3569
 8991SOL     OW37286  10.524   2.532   6.940  0.6620 -0.4115 -0.6663
 8991SOL    HW137287  10.478   2.615   6.951 -0.1742 -0.9003 -0.2786
 8991SOL    HW237288  10.546   2.527   6.847 -0.1879 -0.2103 -0.8833
 8992SOL     OW37289  10.144  12.242   7.681  0.1366 -0.3397  0.2072
 8992SOL    HW137290  10.056  12.261   7.647  0.0608 -1.3581 -0.1935
 8992SOL    HW237291  10.157  12.307   7.750 -1.3360 -0.7818  0.9537
 8993SOL     OW37292  11.136   6.954   7.126  0.6618  0.1010  0.1816
 8993SOL    HW137293  11.190   6.888   7.083 -1.8223 -1.3097 -0.9821
 8993SOL    HW237294  11.103   7.009   7.055 -2.7555 -1.7007  0.1390
 8994SOL     OW37295  10.595   0.467   8.970 -0.6275 -0.2250 -0.1140
 8994SOL    HW137296  10.543   0.387   8.979 -0.1583 -0.7802 -1.8487
 8994SOL    HW237297  10.542   0.524   8.914 -0.0234 -0.1961 -0.6702
 8995SOL     OW37298   0.216   7.729   2.351 -0.2629 -0.0902 -0.5029
 8995SOL    HW137299   0.225   7.642   2.312 -0.2288 -0.2795 -0.0787
 8995SOL    HW237300   0.288   7.780   2.314 -0.1137 -0.3223 -0.5344
 8996SOL     OW37301   0.571  11.983  11.832  1.0027  0.0621  0.3041
 8996SOL    HW137302   0.599  12.066  11.869  3.0038 -0.4322 -0.0055
 8996SOL    HW237303   0.506  11.950  11.894  2.3569  0.4891  2.0311
 8997SOL     OW37304   6.384   8.605   1.013  0.4391  0.0959  0.0018
 8997SOL    HW137305   6.434   8.607   1.094 -0.8118  1.3339  0.7971
 8997SOL    HW237306   6.440   8.559   0.951  0.7865 -2.3314  1.9652
 8998SOL     OW37307  10.631   3.411  11.040 -0.1119  0.2839 -0.2654
 8998SOL    HW137308  10.625   3.428  10.946  0.6713 -1.7496 -0.7475
 8998SOL    HW237309  10.667   3.322  11.046  0.3159  0.5406  1.9692
 8999SOL     OW37310   7.287  10.602  10.522 -1.1777  0.3772  0.0642
 8999SOL    HW137311   7.377  10.570  10.532 -0.3625  2.3060 -0.5571
 8999SOL    HW237312   7.260  10.570  10.435 -0.6536  0.7394 -0.2376
 9000SOL     OW37313  12.975   7.454   0.439  0.3504 -0.2478 -0.4359
 9000SOL    HW137314  12.922   7.461   0.518  1.9282  0.9478  0.5975
 9000SOL    HW237315  13.036   7.383   0.457 -0.0856 -0.8031 -1.1058
 9001SOL     OW37316   8.384   9.803   8.176  0.0754  0.3845 -0.2617
 9001SOL    HW137317   8.469   9.762   8.159 -0.5418 -0.3690 -1.7462
 9001SOL    HW237318   8.331   9.732   8.213 -0.2466  0.5176 -0.4599
 9002SOL     OW37319   4.019   2.216   7.389 -0.6739 -0.0996 -0.0357
 9002SOL    HW137320   4.047   2.272   7.317  1.5242  0.7479  1.3580
 9002SOL    HW237321   3.925   2.233   7.398 -0.5454  1.4724 -1.2560
 9003SOL     OW37322   4.235   1.030  12.639 -0.5683 -0.1747  0.0793
 9003SOL    HW137323   4.219   1.121  12.617  0.2592 -0.2041 -0.6824
 9003SOL    HW237324   4.171   0.981  12.587  1.8008 -0.2958 -3.0126
 9004SOL     OW37325  11.493   0.864   4.234  0.1357 -0.0193 -0.3391
 9004SOL    HW137326  11.446   0.830   4.158 -1.2147 -0.1874  0.5516
 9004SOL    HW237327  11.486   0.959   4.226 -0.0822 -0.0384 -0.3757
 9005SOL     OW37328   6.525  11.509   8.128 -0.2793  0.0795 -0.2378
 9005SOL    HW137329   6.514  11.569   8.054 -1.5984 -1.5031 -1.4322
 9005SOL    HW237330   6.453  11.446   8.117  0.0097 -0.6934  1.9350
 9006SOL     OW37331   3.465   7.274   6.754 -0.0311 -0.1576 -0.1903
 9006SOL    HW137332   3.503   7.207   6.811  0.7438  0.7931  0.4641
 9006SOL    HW237333   3.531   7.286   6.685  0.5321  0.9333  0.5044
 9007SOL     OW37334   2.776   3.406   9.674  0.1142  0.1162  0.2361
 9007SOL    HW137335   2.739   3.318   9.685 -0.4181  0.5107  1.9765
 9007SOL    HW237336   2.870   3.392   9.672  0.0439 -0.4969  0.7331
 9008SOL     OW37337  10.231  10.094   0.636 -0.7073 -0.0163 -0.1803
 9008SOL    HW137338  10.300  10.161   0.632 -0.8449  0.3898  2.2616
 9008SOL    HW237339  10.186  10.101   0.552  1.2540  0.7699 -1.2314
 9009SOL     OW37340   1.376   3.110  12.873 -0.4712 -0.5683 -0.2133
 9009SOL    HW137341   1.364   3.204  12.889  0.8781 -0.4955  0.4858
 9009SOL    HW237342   1.389   3.104  12.779  0.5871  0.1011 -0.1272
 9010SOL     OW37343   2.204   4.717   0.968  0.4513 -0.1574  0.2090
 9010SOL    HW137344   2.149   4.779   0.920 -1.2283 -0.7436  1.2585
 9010SOL    HW237345   2.287   4.716   0.921 -0.2238  1.2398 -1.0954
 9011SOL     OW37346   1.483   9.249  10.663  0.0302 -0.4626  0.3912
 9011SOL    HW137347   1.402   9.224  10.619 -1.4422  1.4743  1.8231
 9011SOL    HW237348   1.523   9.314  10.605 -1.0915  0.8937  1.0680
 9012SOL     OW37349   6.392   3.740   3.421  0.0563  0.7476  0.0546
 9012SOL    HW137350   6.346   3.678   3.477  1.1724 -1.1806 -1.0518
 9012SOL    HW237351   6.370   3.826   3.457 -1.1862 -0.2876  1.9310
 9013SOL     OW37352  12.411   9.542   8.767  0.2476 -0.3092 -0.4023
 9013SOL    HW137353  12.376   9.549   8.856 -1.8723  0.8376 -1.2496
 9013SOL    HW237354  12.455   9.457   8.765 -1.3852 -1.2689  1.1833
 9014SOL     OW37355   9.094   2.365  12.686 -0.0111 -0.3846 -0.1371
 9014SOL    HW137356   9.059   2.415  12.612 -1.1226  0.4109  0.8815
 9014SOL    HW237357   9.089   2.274  12.659 -1.7561 -0.2027 -0.5157
 9015SOL     OW37358   4.357   7.193   9.017 -0.0194 -0.2109 -0.2963
 9015SOL    HW137359   4.431   7.252   9.026  0.5054 -0.7615 -0.9578
 9015SOL    HW237360   4.304   7.230   8.946 -0.8662  0.6668  0.7463
 9016SOL     OW37361   1.242  10.670   9.583 -0.6893  0.2047 -0.6990
 9016SOL    HW137362   1.182  10.649   9.512  0.0407  0.0417 -1.2826
 9016SOL    HW237363   1.284  10.587   9.606 -2.4221 -0.1865  1.3938
 9017SOL     OW37364   4.091  12.951  12.219 -0.1961  0.2355  0.3999
 9017SOL    HW137365   4.167  12.987  12.172 -0.8729 -1.7939 -2.4418
 9017SOL    HW237366   4.129  12.907  12.295  1.3046  0.6138 -0.0981
 9018SOL     OW37367  11.192  12.048  10.637 -0.2400 -0.0519  0.1003
 9018SOL    HW137368  11.256  12.016  10.573  0.9832  0.6369  0.9453
 9018SOL    HW237369  11.137  11.971  10.655 -1.2054 -0.0299 -2.4122
 9019SOL     OW37370   9.592  11.957   2.957 -0.0860 -0.2867 -0.0894
 9019SOL    HW137371   9.580  12.028   2.894 -0.7914 -0.1147  0.2350
 9019SOL    HW237372   9.579  11.877   2.905 -0.2650 -0.1551 -0.2506
 9020SOL     OW37373   0.149   3.713   8.340 -0.0965  0.6577 -0.7036
 9020SOL    HW137374   0.192   3.628   8.340  0.3544  0.8150 -2.9958
 9020SOL    HW237375   0.208   3.770   8.389 -0.2940 -0.2684  0.6593
 9021SOL     OW37376   7.124  10.444  10.700  0.1491 -0.7753 -0.1369
 9021SOL    HW137377   7.182  10.451  10.624  1.5932 -1.4420  0.8336
 9021SOL    HW237378   7.150  10.517  10.757  0.3758 -1.3473  0.5094
 9022SOL     OW37379   4.953   5.650   7.033  0.5196 -0.2627 -0.3219
 9022SOL    HW137380   4.904   5.730   7.050 -0.7067 -1.0263 -0.1763
 9022SOL    HW237381   5.028   5.655   7.092 -0.2860  0.1356  0.6883
 9023SOL     OW37382   0.220   3.757   0.362 -0.0097  0.5239 -0.3953
 9023SOL    HW137383   0.295   3.809   0.333 -0.3910  1.0871 -0.3910
 9023SOL    HW237384   0.144   3.812   0.342 -0.4182 -0.0188 -0.3536
 9024SOL     OW37385   8.341   6.649   7.894 -0.5582  0.0212  0.8198
 9024SOL    HW137386   8.331   6.664   7.800  1.5221  0.2635  0.5846
 9024SOL    HW237387   8.292   6.568   7.910 -0.0919 -0.6186 -0.7086
 9025SOL     OW37388   8.696   6.562   3.111 -0.2101 -0.1514 -0.7119
 9025SOL    HW137389   8.763   6.594   3.050  0.7523  0.0669  0.4265
 9025SOL    HW237390   8.620   6.545   3.056 -0.3016  2.6969 -1.6024
 9026SOL     OW37391   6.061   0.447   1.498 -0.0737  0.3372  0.0685
 9026SOL    HW137392   6.150   0.438   1.463  0.0015  0.8872  0.1095
 9026SOL    HW237393   6.074   0.456   1.592 -0.0737  1.7373 -0.0495
 9027SOL     OW37394   1.447   2.948   1.962 -0.1803 -0.2315 -0.5133
 9027SOL    HW137395   1.450   2.858   1.995 -1.1319  0.4441  1.5594
 9027SOL    HW237396   1.368   2.951   1.908 -0.9696 -0.3106  0.5909
 9028SOL     OW37397   9.528  10.559   7.441 -0.3910 -0.2591  0.1904
 9028SOL    HW137398   9.527  10.651   7.415  0.5054 -0.0389  0.8543
 9028SOL    HW237399   9.605  10.523   7.397  0.1784 -0.2862  1.1771
 9029SOL     OW37400   0.539   8.875   9.908  0.1326  0.0157 -0.1935
 9029SOL    HW137401   0.534   8.789   9.867 -4.7239 -0.0428 -0.0940
 9029SOL    HW237402   0.450   8.911   9.900  1.4720  4.3505  1.2794
 9030SOL     OW37403   1.984   2.981   3.400  0.5558  0.1628  0.9917
 9030SOL    HW137404   1.898   2.957   3.437 -0.2743  1.4184 -0.0540
 9030SOL    HW237405   2.003   2.911   3.338 -0.4664  0.6368  0.1017
 9031SOL     OW37406   8.270   9.857   8.754 -0.5554 -0.2551 -0.4698
 9031SOL    HW137407   8.329   9.841   8.828 -1.4110  0.8933  0.4867
 9031SOL    HW237408   8.222   9.775   8.744 -0.8645 -0.2267  0.6513
 9032SOL     OW37409  10.862   9.791   8.257 -0.1395 -0.7967 -0.0078
 9032SOL    HW137410  10.876   9.718   8.318 -0.1634 -1.8392 -1.2082
 9032SOL    HW237411  10.923   9.775   8.185 -0.3271  0.2344 -0.4216
 9033SOL     OW37412  12.113   0.177   5.942 -0.1916 -0.1520 -0.3403
 9033SOL    HW137413  12.026   0.217   5.950 -1.4140 -2.0371 -2.8088
 9033SOL    HW237414  12.159   0.234   5.880 -0.0417  0.2543  0.1390
 9034SOL     OW37415   6.630  11.117  11.726  0.2501  0.3021 -0.4340
 9034SOL    HW137416   6.718  11.088  11.703  0.7836  2.2503 -1.0396
 9034SOL    HW237417   6.604  11.061  11.799  3.2188  1.5853  1.8054
 9035SOL     OW37418   2.763  10.415   5.376  0.1685  0.0201 -0.2178
 9035SOL    HW137419   2.844  10.366   5.389  0.1748  0.0813 -0.0290
 9035SOL    HW237420   2.786  10.506   5.393 -0.1725 -0.0818  0.8618
 9036SOL     OW37421   5.085  11.282  12.142  0.4930 -0.7017  0.3772
 9036SOL    HW137422   5.107  11.189  12.142  1.0800 -0.5711  0.1387
 9036SOL    HW237423   5.163  11.324  12.179  0.8758 -0.1677 -0.9701
 9037SOL     OW37424   7.116   5.262   1.905  0.0034 -0.6238  0.1046
 9037SOL    HW137425   7.134   5.191   1.844  2.0473 -1.3138  1.3946
 9037SOL    HW237426   7.182   5.328   1.884 -1.6597  0.8312 -0.8575
 9038SOL     OW37427   6.755   9.562   3.338 -0.0926  0.5298  0.9835
 9038SOL    HW137428   6.847   9.560   3.365 -0.0450  2.4877  1.1278
 9038SOL    HW237429   6.720   9.642   3.377 -1.5393  0.4780 -0.1081
 9039SOL     OW37430   2.251   2.094   2.687  0.4458 -0.0493 -0.2643
 9039SOL    HW137431   2.324   2.102   2.749 -0.3868  0.2598  0.6997
 9039SOL    HW237432   2.213   2.009   2.706 -0.0649  0.2224 -0.0633
 9040SOL     OW37433   2.684   5.978   4.182 -0.5348 -0.0774  0.4461
 9040SOL    HW137434   2.752   6.042   4.159  0.1404 -0.5963  0.9326
 9040SOL    HW237435   2.602   6.022   4.163 -0.0485  0.1520 -1.2521
 9041SOL     OW37436   6.389   9.046   6.663  0.0099  0.0928  0.7859
 9041SOL    HW137437   6.325   9.065   6.595  1.4313  4.7583  0.3965
 9041SOL    HW237438   6.472   9.077   6.627  0.8190  3.0652  4.5082
 9042SOL     OW37439   4.020   2.094   1.701 -0.5220 -0.5176  0.2407
 9042SOL    HW137440   3.995   2.031   1.634 -1.4273 -0.3895  0.4426
 9042SOL    HW237441   4.027   2.178   1.655  1.1685 -0.8195 -0.1240
 9043SOL     OW37442  12.613   6.181   3.032 -0.3558  0.1589  0.5252
 9043SOL    HW137443  12.549   6.134   3.085  0.6034  2.4572  4.0475
 9043SOL    HW237444  12.694   6.132   3.043 -0.5013 -0.3045 -0.3318
 9044SOL     OW37445   0.822  12.857   6.513  0.3066 -0.3116 -0.0130
 9044SOL    HW137446   0.873  12.834   6.435  1.3251 -1.3119  0.9101
 9044SOL    HW237447   0.731  12.840   6.489  0.5518 -0.1117 -1.1468
 9045SOL     OW37448   8.393   0.581   0.110 -0.0039  0.2241  0.5453
 9045SOL    HW137449   8.386   0.536   0.025  0.7597 -1.3583  1.2806
 9045SOL    HW237450   8.485   0.573   0.134 -0.2551  0.4231  1.6396
 9046SOL     OW37451   5.094   7.653   7.735 -0.5081  0.2511  0.1283
 9046SOL    HW137452   5.184   7.621   7.739 -0.7833 -0.8872 -1.4066
 9046SOL    HW237453   5.087   7.719   7.804  1.5941  0.6215  0.0283
 9047SOL     OW37454   6.191   1.352   4.809  0.5009  0.5661 -0.8749
 9047SOL    HW137455   6.201   1.416   4.738  2.8040 -1.1379 -2.2511
 9047SOL    HW237456   6.100   1.325   4.804  0.8178 -0.4398 -4.1880
 9048SOL     OW37457   7.710   5.278   2.031  0.1920  0.0894  0.3734
 9048SOL    HW137458   7.705   5.256   1.937  0.4774 -2.3681  0.8655
 9048SOL    HW237459   7.618   5.289   2.057  0.0660  0.0958 -0.0569
 9049SOL     OW37460   0.428   8.625  11.559  0.1175 -0.7414  0.0345
 9049SOL    HW137461   0.361   8.685  11.593  0.3699 -1.7637  2.6125
 9049SOL    HW237462   0.502   8.682  11.537 -0.8535  0.2019 -0.9163
 9050SOL     OW37463   0.934   2.921   8.535  0.2194  0.2690  0.2852
 9050SOL    HW137464   0.909   2.915   8.442 -0.7095 -1.3502  0.5995
 9050SOL    HW237465   0.870   2.980   8.574 -0.6045 -0.6030  0.2697
 9051SOL     OW37466   3.410  11.244   1.300 -0.6683 -0.2577 -0.5758
 9051SOL    HW137467   3.391  11.163   1.252 -0.9430 -0.8774  0.5400
 9051SOL    HW237468   3.411  11.312   1.233  1.1924 -1.4050 -1.8209
 9052SOL     OW37469   4.457   3.717  12.522 -0.2818 -0.5381 -0.0149
 9052SOL    HW137470   4.517   3.708  12.447  0.4949 -0.8771  0.6305
 9052SOL    HW237471   4.375   3.746  12.483  0.2326 -0.2824 -0.9559
 9053SOL     OW37472  11.306   1.505   4.044  0.1344 -0.1697 -0.6399
 9053SOL    HW137473  11.265   1.442   4.104 -0.7020  0.1511 -0.8602
 9053SOL    HW237474  11.386   1.462   4.016 -0.4657 -1.1873 -0.8624
 9054SOL     OW37475   1.355   2.369   5.524  0.2370  0.0998 -0.1323
 9054SOL    HW137476   1.405   2.436   5.573  0.4512 -0.5610  0.5755
 9054SOL    HW237477   1.272   2.412   5.503 -0.2575  0.1162  1.6710
 9055SOL     OW37478   9.514   7.215   8.388  0.1017  0.2789 -0.4858
 9055SOL    HW137479   9.495   7.142   8.447 -0.2018  1.1950  0.6026
 9055SOL    HW237480   9.473   7.192   8.305  1.4739 -1.5548 -0.7030
 9056SOL     OW37481  11.597   0.038   9.665 -0.3752 -0.0592  0.2493
 9056SOL    HW137482  11.650  -0.041   9.659 -0.5267 -0.0673 -1.2689
 9056SOL    HW237483  11.509   0.006   9.688 -0.8757 -0.5686 -2.0990
 9057SOL     OW37484   4.955   3.930   6.410 -0.2293 -0.0317  0.3361
 9057SOL    HW137485   4.980   3.859   6.351  0.3256  0.5303 -0.1252
 9057SOL    HW237486   4.903   3.989   6.356  1.7051  1.3695 -0.1291
 9058SOL     OW37487   3.124   6.645   8.337 -0.3466 -0.0686  0.1904
 9058SOL    HW137488   3.133   6.719   8.276  1.1480  0.6551  1.2282
 9058SOL    HW237489   3.039   6.607   8.316  0.0856  0.1657 -2.3282
 9059SOL     OW37490  12.870   1.221   8.102  0.5629  0.1004 -0.2734
 9059SOL    HW137491  12.826   1.176   8.173 -0.9848  0.4613 -0.9698
 9059SOL    HW237492  12.817   1.202   8.024  0.7846  1.7514 -0.8732
 9060SOL     OW37493   6.226   3.563   6.825 -0.1247 -0.1449  0.1632
 9060SOL    HW137494   6.244   3.598   6.912 -1.5413  0.8449  0.0876
 9060SOL    HW237495   6.287   3.490   6.816 -0.0335 -0.3548  2.0272
 9061SOL     OW37496   4.851   9.828  12.777 -0.5269 -0.5286  0.4319
 9061SOL    HW137497   4.827   9.758  12.717  1.9905  1.8252 -3.7909
 9061SOL    HW237498   4.810   9.906  12.741  2.2502  1.2381  0.7692
 9062SOL     OW37499   8.299   2.888   3.787 -0.2379  0.4173 -0.4015
 9062SOL    HW137500   8.361   2.927   3.849 -0.6259  0.4743 -0.0486
 9062SOL    HW237501   8.355   2.853   3.717  0.3794 -1.3247  0.8778
 9063SOL     OW37502   3.344   2.995  12.476 -0.5264  0.4120 -0.1011
 9063SOL    HW137503   3.310   2.920  12.525 -0.8332  1.6408  1.6563
 9063SOL    HW237504   3.275   3.014  12.412 -0.1488 -1.1754 -1.0500
 9064SOL     OW37505   1.926  12.030   5.228  0.7257 -0.4724  0.1245
 9064SOL    HW137506   1.984  12.039   5.152  1.0024 -1.4295  0.2049
 9064SOL    HW237507   1.928  11.936   5.248 -0.0865 -0.3671  0.7350
 9065SOL     OW37508   6.193   6.118   5.014 -0.1901  0.3387 -0.0662
 9065SOL    HW137509   6.180   6.143   4.923  1.9148  1.4532 -0.1467
 9065SOL    HW237510   6.257   6.047   5.011  0.3166  0.7479  0.5304
 9066SOL     OW37511  12.968  11.268   2.510  0.1867  0.1831 -0.1561
 9066SOL    HW137512  12.965  11.175   2.491 -2.7375  0.6717 -2.8561
 9066SOL    HW237513  12.987  11.309   2.425  0.8408  2.0957  0.8592
 9067SOL     OW37514   1.197   3.040   8.498 -0.0098 -0.6690  0.3178
 9067SOL    HW137515   1.130   2.987   8.541 -1.5926 -0.3743 -1.6430
 9067SOL    HW237516   1.222   3.105   8.564 -0.5571 -1.7089  1.5905
 9068SOL     OW37517  12.589   2.143  11.404  0.5353 -0.1637  0.1741
 9068SOL    HW137518  12.632   2.063  11.371  1.5870 -0.3429  1.8639
 9068SOL    HW237519  12.503   2.113  11.434  0.2150 -0.3048 -0.8490
 9069SOL     OW37520   1.114   0.126   3.578  0.1441  0.1234 -0.3263
 9069SOL    HW137521   1.082   0.208   3.540  0.2928 -0.0124 -0.7519
 9069SOL    HW237522   1.206   0.143   3.598  0.2155  0.0138 -0.5561
 9070SOL     OW37523   2.082  11.874   9.073  0.3614  0.4381 -0.9316
 9070SOL    HW137524   2.127  11.920   9.002  0.5404 -0.1668 -1.2112
 9070SOL    HW237525   2.005  11.836   9.032  1.2360 -1.1802 -1.1518
 9071SOL     OW37526   6.721   7.694   8.850  0.4703 -0.1661 -0.2103
 9071SOL    HW137527   6.805   7.651   8.868  1.0520 -0.2326 -2.7080
 9071SOL    HW237528   6.730   7.782   8.887  1.0783 -0.6278  0.7738
 9072SOL     OW37529   1.747   7.473  12.786 -0.1314  0.4422  0.4621
 9072SOL    HW137530   1.740   7.496  12.878 -1.2103 -0.1423  0.5559
 9072SOL    HW237531   1.840   7.477  12.766  0.1008  0.6808  1.5478
 9073SOL     OW37532   5.770  10.012   9.936  0.0764 -0.1487  0.1752
 9073SOL    HW137533   5.735  10.099   9.956 -0.1394  0.0954 -1.1567
 9073SOL    HW237534   5.861  10.015   9.968  0.8884  1.4757 -2.0601
 9074SOL     OW37535   6.256  10.255   9.721  0.4059  0.4413  0.7074
 9074SOL    HW137536   6.259  10.307   9.640  1.4753  1.8455  1.5959
 9074SOL    HW237537   6.167  10.266   9.753  0.0859  0.1930 -0.0794
 9075SOL     OW37538   6.468   7.275   5.246 -0.1015  0.3741 -0.3862
 9075SOL    HW137539   6.547   7.236   5.210 -1.2210 -1.3930 -1.0551
 9075SOL    HW237540   6.484   7.276   5.341  0.4574 -0.6011 -0.4520
 9076SOL     OW37541   2.523   6.527   9.846  0.0738  0.2508 -0.6118
 9076SOL    HW137542   2.502   6.467   9.918  3.0051  0.3956  0.5396
 9076SOL    HW237543   2.445   6.582   9.837 -2.3479 -2.9557 -1.0301
 9077SOL     OW37544  10.594   5.703   3.488 -0.1185  0.6087  0.3093
 9077SOL    HW137545  10.572   5.774   3.427  1.5238  1.4386  0.6366
 9077SOL    HW237546  10.562   5.624   3.444  1.4898  1.0979 -1.9625
 9078SOL     OW37547   9.399  10.231   7.820  0.8621  0.0180  0.6565
 9078SOL    HW137548   9.309  10.225   7.788  0.6159 -0.1585  1.3598
 9078SOL    HW237549   9.424  10.322   7.803 -0.3891  0.8389  2.8120
 9079SOL     OW37550   7.436   4.957   7.613 -0.1100 -0.1330 -0.2858
 9079SOL    HW137551   7.411   4.884   7.670  1.0662  0.5930  1.2316
 9079SOL    HW237552   7.441   4.919   7.525 -1.6787 -1.3557  0.1063
 9080SOL     OW37553   2.376   9.093   4.096 -0.0588 -0.1167  0.0409
 9080SOL    HW137554   2.389   9.038   4.019  0.4700 -0.1823  0.1709
 9080SOL    HW237555   2.330   9.037   4.159 -2.8461  0.6942 -1.1177
 9081SOL     OW37556  11.994   9.704   8.584 -0.0644  0.3731  0.1271
 9081SOL    HW137557  12.088   9.702   8.600 -0.3912  0.4630  2.3351
 9081SOL    HW237558  11.966   9.613   8.593  0.1483 -0.2194 -3.5175
 9082SOL     OW37559  11.079   5.176   9.916  0.0049 -0.0705 -0.6953
 9082SOL    HW137560  11.130   5.129   9.851  0.3074  0.9051 -1.1819
 9082SOL    HW237561  11.068   5.264   9.880  2.0669  1.2184  1.4926
 9083SOL     OW37562   0.636   8.555   2.213  0.1218  0.9865 -0.0667
 9083SOL    HW137563   0.614   8.636   2.258 -1.5494 -0.3408  1.6369
 9083SOL    HW237564   0.552   8.513   2.195  0.9161 -0.1615 -1.3593
 9084SOL     OW37565   0.731   3.084  12.825  0.1051 -0.6835 -0.1829
 9084SOL    HW137566   0.717   3.010  12.885  0.6752 -0.1673  0.6187
 9084SOL    HW237567   0.656   3.141  12.840  0.1432 -0.6539 -0.0987
 9085SOL     OW37568   7.828   0.875   3.287 -0.6525  0.0712 -0.0416
 9085SOL    HW137569   7.822   0.872   3.192  1.2929 -1.3528 -0.1592
 9085SOL    HW237570   7.757   0.818   3.317  0.8426 -2.2796 -0.7821
 9086SOL     OW37571   0.271   9.871   6.393  0.1168  0.1631 -0.0104
 9086SOL    HW137572   0.313   9.877   6.478  1.2222 -0.5391 -0.4944
 9086SOL    HW237573   0.298   9.787   6.358 -0.7069  0.2302 -0.8668
 9087SOL     OW37574   5.026   5.546   9.182  0.4868  0.0296  0.2494
 9087SOL    HW137575   4.955   5.596   9.141 -0.5080  0.0971  1.9710
 9087SOL    HW237576   5.089   5.611   9.212  1.3567 -0.0326 -1.3155
 9088SOL     OW37577  10.186   0.910   0.677  0.1141 -0.1872  0.1971
 9088SOL    HW137578  10.135   0.843   0.723 -1.1905  0.9082  0.3881
 9088SOL    HW237579  10.266   0.865   0.651 -0.8739 -1.9221  0.0188
 9089SOL     OW37580  10.982   3.965   9.606 -0.2514  0.3461 -0.0892
 9089SOL    HW137581  11.044   3.916   9.553 -3.2334 -0.3862 -3.2802
 9089SOL    HW237582  11.008   4.057   9.596  1.3650 -0.0566  0.2389
 9090SOL     OW37583   0.864   7.245   2.408 -0.5427  0.9213 -0.1094
 9090SOL    HW137584   0.863   7.188   2.485  1.3956  1.3540  0.3015
 9090SOL    HW237585   0.773   7.249   2.380 -0.7392 -2.7667 -0.4923
 9091SOL     OW37586   9.959   6.982   7.619  0.3662 -0.0401  0.2882
 9091SOL    HW137587   9.981   7.013   7.531 -1.2609 -0.5814 -0.3427
 9091SOL    HW237588   9.961   7.061   7.673 -0.7592  0.6936 -0.6833
 9092SOL     OW37589   2.442   2.919   1.649 -0.5877 -0.4477  0.7047
 9092SOL    HW137590   2.352   2.890   1.665 -0.9139 -0.1984 -0.5899
 9092SOL    HW237591   2.449   2.924   1.553  0.4892  0.5255  0.8160
 9093SOL     OW37592   4.381   4.979  10.193 -0.2832  0.1431 -0.4187
 9093SOL    HW137593   4.431   5.011  10.118 -1.1531  0.8073 -0.7273
 9093SOL    HW237594   4.401   4.885  10.196  1.1484  0.4249 -0.3871
 9094SOL     OW37595   6.789   9.462   4.470  0.1873 -0.3129 -0.5563
 9094SOL    HW137596   6.770   9.539   4.524  1.6516 -0.1117 -0.3105
 9094SOL    HW237597   6.800   9.391   4.533 -1.9469 -0.9625 -0.8108
 9095SOL     OW37598   7.084   6.396   9.543 -0.2417 -0.1316  0.0798
 9095SOL    HW137599   7.112   6.346   9.466  0.1016 -1.1317  0.8248
 9095SOL    HW237600   7.146   6.370   9.612 -2.7550 -2.2430  1.7563
 9096SOL     OW37601   6.853   2.375   4.872 -0.5252 -0.7661 -0.6143
 9096SOL    HW137602   6.815   2.412   4.952  2.0942 -0.5375  0.6247
 9096SOL    HW237603   6.927   2.431   4.852 -1.1593 -0.7256 -3.3768
 9097SOL     OW37604   0.746   2.732  11.922  0.1138 -0.2752  0.1207
 9097SOL    HW137605   0.823   2.725  11.865  0.8126  1.3010  0.8101
 9097SOL    HW237606   0.783   2.739  12.010 -0.9054 -1.3613  0.6470
 9098SOL     OW37607   2.271   5.772   0.208 -0.9321 -0.2959 -0.3155
 9098SOL    HW137608   2.277   5.860   0.244 -1.5722 -0.5250  0.3773
 9098SOL    HW237609   2.178   5.761   0.186 -0.6859 -0.4362 -1.3605
 9099SOL     OW37610   2.172   4.999  10.502 -0.0553  1.0395 -0.3165
 9099SOL    HW137611   2.093   5.039  10.538 -1.0044 -0.4279 -0.7003
 9099SOL    HW237612   2.202   5.061  10.435 -1.3537  1.2341 -0.7443
 9100SOL     OW37613   0.056   0.215   1.072  0.5135 -0.2401 -0.1264
 9100SOL    HW137614   0.141   0.180   1.048  0.5847  0.2084 -0.5432
 9100SOL    HW237615   0.068   0.310   1.073 -0.4753 -0.0439 -2.1878
 9101SOL     OW37616   8.227   1.235   8.062  0.8026  0.0751 -0.0839
 9101SOL    HW137617   8.295   1.168   8.051 -0.8526 -1.7382  0.1296
 9101SOL    HW237618   8.236   1.291   7.985  0.0918 -2.4715 -2.1984
 9102SOL     OW37619   9.054   8.364   9.250  0.5325  0.4786  0.0303
 9102SOL    HW137620   9.080   8.456   9.262  1.7568 -0.0757  2.0822
 9102SOL    HW237621   9.039   8.332   9.339 -1.0014 -1.0305 -0.7248
 9103SOL     OW37622   1.331   7.720   6.442 -0.6023 -0.0415 -0.2239
 9103SOL    HW137623   1.400   7.785   6.453 -0.1008 -0.0653 -2.5686
 9103SOL    HW237624   1.370   7.638   6.473  1.2082 -0.4243 -3.1280
 9104SOL     OW37625   0.689  11.248  12.225  0.5310  0.1113  0.6645
 9104SOL    HW137626   0.738  11.208  12.297 -0.4206 -2.9810 -0.2561
 9104SOL    HW237627   0.608  11.278  12.265  0.5648 -0.3900  1.1227
 9105SOL     OW37628   8.968   9.731   5.936  0.0293 -0.2282  0.2209
 9105SOL    HW137629   9.048   9.759   5.979  0.3944  0.6388 -0.9812
 9105SOL    HW237630   8.915   9.694   6.007  0.4734  1.4097  1.4741
 9106SOL     OW37631  12.233   3.906   5.822  0.1443 -0.7706 -0.3367
 9106SOL    HW137632  12.325   3.895   5.847  0.0890 -0.9299 -0.2065
 9106SOL    HW237633  12.200   3.975   5.880 -0.4634 -2.3309  1.2581
 9107SOL     OW37634   1.735   8.573  11.269 -0.3658 -0.0379 -0.2382
 9107SOL    HW137635   1.778   8.632  11.206  1.4238 -0.7791  0.2514
 9107SOL    HW237636   1.740   8.619  11.352 -0.6772 -0.0666 -0.2016
 9108SOL     OW37637   0.721   4.849   3.036 -0.3528 -0.0765  0.3184
 9108SOL    HW137638   0.780   4.779   3.063  1.0510  0.4201 -1.2836
 9108SOL    HW237639   0.776   4.927   3.034 -0.4281  0.0334 -3.2297
 9109SOL     OW37640   7.268   2.491   4.263  0.5983 -0.1048 -0.5525
 9109SOL    HW137641   7.327   2.428   4.222 -0.4468 -1.5786  0.1403
 9109SOL    HW237642   7.315   2.521   4.341  1.3874  0.5606 -1.2446
 9110SOL     OW37643   4.574   4.942   9.523  0.7125 -0.2231 -0.0487
 9110SOL    HW137644   4.507   4.885   9.484  1.1164  0.5468 -2.0080
 9110SOL    HW237645   4.537   4.967   9.608 -1.0106 -0.6865 -0.6072
 9111SOL     OW37646   2.418  11.562   5.165 -0.0536 -0.3780 -0.0474
 9111SOL    HW137647   2.462  11.550   5.248 -2.2155 -0.1513  1.2027
 9111SOL    HW237648   2.451  11.645   5.132  0.5886 -0.3089  0.7544
 9112SOL     OW37649   5.531  12.326   9.442 -0.1214 -0.4381  0.1337
 9112SOL    HW137650   5.516  12.323   9.348 -0.9769 -0.8156  0.2708
 9112SOL    HW237651   5.551  12.235   9.466  0.8998 -0.2071  0.2007
 9113SOL     OW37652   8.542   8.383   4.202 -0.4702 -0.4956 -1.1108
 9113SOL    HW137653   8.467   8.364   4.147 -0.5530 -1.2454 -0.7523
 9113SOL    HW237654   8.522   8.341   4.286 -0.4179  0.7424 -0.4534
 9114SOL     OW37655  11.480   1.091   4.439 -0.2808  0.3589  0.5928
 9114SOL    HW137656  11.396   1.050   4.461  0.2746 -0.7629  0.7109
 9114SOL    HW237657  11.502   1.143   4.517  0.0964 -0.9765  1.4167
 9115SOL     OW37658   5.325   7.347   9.831 -0.0076 -0.3995 -0.3285
 9115SOL    HW137659   5.325   7.425   9.775  0.1868 -0.3504 -0.2616
 9115SOL    HW237660   5.410   7.307   9.815 -0.1328 -0.6350 -0.4105
 9116SOL     OW37661   1.703   2.174   9.836 -0.4261 -0.4823  0.4190
 9116SOL    HW137662   1.656   2.188   9.918 -0.2081 -0.5704  0.5603
 9116SOL    HW237663   1.774   2.239   9.838 -0.3148 -0.6030  0.3817
 9117SOL     OW37664   0.049   0.617   2.426 -0.0935 -0.2450  0.0736
 9117SOL    HW137665   0.082   0.528   2.438  2.1639  0.6755  1.3438
 9117SOL    HW237666   0.005   0.615   2.341  0.0599 -2.5123 -0.0158
 9118SOL     OW37667   8.891   8.060   2.459  0.2001  0.1459  0.2721
 9118SOL    HW137668   8.979   8.041   2.491  0.1587 -1.8772 -0.6255
 9118SOL    HW237669   8.884   8.011   2.377 -1.0400  2.0069 -0.8070
 9119SOL     OW37670   5.421   0.946   2.429 -0.4489 -0.1942  0.4276
 9119SOL    HW137671   5.348   0.997   2.395 -2.6963 -2.8055  0.9821
 9119SOL    HW237672   5.403   0.938   2.523  0.2272 -1.3010  0.4861
 9120SOL     OW37673  12.616   9.091   6.875  0.3744  0.9448 -0.1797
 9120SOL    HW137674  12.649   9.181   6.876 -0.9803  1.4711  1.4603
 9120SOL    HW237675  12.561   9.086   6.797  0.0725  1.6853 -0.0180
 9121SOL     OW37676   1.199   4.878   9.938 -0.0015  0.2978 -0.3218
 9121SOL    HW137677   1.207   4.967   9.906 -0.3584  0.3233 -0.3400
 9121SOL    HW237678   1.117   4.846   9.902 -0.5706  0.4259  0.8171
 9122SOL     OW37679   1.007  11.771   9.239 -0.2695  0.4511 -0.5097
 9122SOL    HW137680   1.097  11.752   9.213 -1.0940 -0.7539 -2.7101
 9122SOL    HW237681   0.957  11.694   9.211 -1.7151  0.1280  2.5708
 9123SOL     OW37682   9.823   6.054   5.471  0.4259  0.1451 -0.4015
 9123SOL    HW137683   9.804   6.147   5.481  0.4773  0.1051  0.0986
 9123SOL    HW237684   9.757   6.010   5.524  0.7362 -0.0766 -0.1956
 9124SOL     OW37685   3.275   1.085  10.987 -0.3609 -0.1703 -0.9000
 9124SOL    HW137686   3.257   1.010  11.044 -2.6614  0.1553 -1.1366
 9124SOL    HW237687   3.366   1.108  11.007 -1.0607  0.0253  2.8350
 9125SOL     OW37688   2.674   2.260   8.380 -0.1987  1.0603  0.2057
 9125SOL    HW137689   2.640   2.342   8.343  1.0879  1.3114 -0.5041
 9125SOL    HW237690   2.703   2.284   8.468 -0.8376  1.0992  0.4093
 9126SOL     OW37691   1.978   8.554   8.184 -0.8666 -0.2035  0.0518
 9126SOL    HW137692   1.903   8.564   8.125 -0.4788  1.7183 -0.1979
 9126SOL    HW237693   2.055   8.563   8.128 -0.4890  1.1738  0.7283
 9127SOL     OW37694  10.465   4.112   8.871 -0.0827 -0.6060 -0.3924
 9127SOL    HW137695  10.467   4.093   8.964 -0.3265 -0.4831 -0.3614
 9127SOL    HW237696  10.541   4.168   8.855 -0.8076  0.5149 -0.0189
 9128SOL     OW37697   9.945   9.390   2.223  0.0600  0.2233  0.1658
 9128SOL    HW137698  10.017   9.327   2.219  0.5428  0.7954 -0.2765
 9128SOL    HW237699   9.940   9.415   2.315  1.4198  1.2896 -0.0052
 9129SOL     OW37700  10.779  10.229   2.122 -0.3783  0.0817 -0.5849
 9129SOL    HW137701  10.799  10.141   2.156  0.2324 -0.2539 -1.7585
 9129SOL    HW237702  10.861  10.277   2.132 -0.4576  0.2516 -0.7660
 9130SOL     OW37703   4.671   5.277   4.961 -0.5172  0.1080 -0.1488
 9130SOL    HW137704   4.614   5.238   5.028  1.2834  1.8911  2.6316
 9130SOL    HW237705   4.639   5.367   4.952  0.4285  0.4419 -0.2433
 9131SOL     OW37706   5.986   9.888   5.483 -0.7116 -0.2144  0.5972
 9131SOL    HW137707   6.062   9.877   5.541 -0.0173  0.5512 -0.1457
 9131SOL    HW237708   5.960   9.799   5.461  0.8861 -0.4917 -0.3029
 9132SOL     OW37709   9.087   6.044   8.478  0.6758 -0.0956  0.4716
 9132SOL    HW137710   9.098   5.950   8.467  1.0396 -0.0280  0.2581
 9132SOL    HW237711   9.081   6.056   8.573 -1.5014 -0.5610  0.4401
 9133SOL     OW37712  10.168  10.319   2.274 -0.5848  0.2607  0.0618
 9133SOL    HW137713  10.162  10.231   2.235 -0.1085 -0.0643  0.6869
 9133SOL    HW237714  10.253  10.318   2.319 -1.0180  0.6952  0.9048
 9134SOL     OW37715   4.806   9.776   6.290  0.2941  0.2699  0.4211
 9134SOL    HW137716   4.715   9.748   6.282  0.2096  0.1294  1.5752
 9134SOL    HW237717   4.806   9.866   6.258  0.1574 -0.3493 -1.4031
 9135SOL     OW37718   6.313   8.225   2.740  0.2055 -0.2427  0.2811
 9135SOL    HW137719   6.275   8.313   2.741 -0.4033 -0.4975  1.6199
 9135SOL    HW237720   6.263   8.176   2.806  1.2761 -1.2666  0.3684
 9136SOL     OW37721   3.040   1.360   5.793 -0.2372 -0.6575 -0.4924
 9136SOL    HW137722   3.085   1.322   5.869 -3.4567 -1.0859  1.4310
 9136SOL    HW237723   3.018   1.285   5.738  2.6465 -0.2873 -2.3360
 9137SOL     OW37724  11.074   1.416   2.181 -0.1445  0.6142 -0.2012
 9137SOL    HW137725  11.102   1.504   2.156  0.5864  0.5872  0.4620
 9137SOL    HW237726  11.100   1.407   2.273 -0.6105 -0.1334 -0.1268
 9138SOL     OW37727  10.679   5.106  10.374  0.3655 -0.0841 -0.1142
 9138SOL    HW137728  10.640   5.120  10.287  0.7611  0.9139 -0.1442
 9138SOL    HW237729  10.625   5.039  10.414  0.0385 -0.4016 -1.0514
 9139SOL     OW37730  10.848   2.497  12.369  0.4464  0.4252 -0.1315
 9139SOL    HW137731  10.904   2.521  12.295  3.4992 -1.0753  1.5013
 9139SOL    HW237732  10.869   2.561  12.437 -0.0174 -0.0114  0.4375
 9140SOL     OW37733   6.283  10.529   6.060 -0.4723 -0.2245 -0.4175
 9140SOL    HW137734   6.219  10.483   6.005 -1.0965  0.9052 -0.6706
 9140SOL    HW237735   6.236  10.607   6.090  1.4050  1.8255 -2.3921
 9141SOL     OW37736   7.082  12.938   6.815 -0.1228  0.4227  0.7188
 9141SOL    HW137737   7.155  12.878   6.835  0.1799 -0.1165 -1.6981
 9141SOL    HW237738   7.020  12.885   6.765  0.3955  2.1581 -1.9667
 9142SOL     OW37739   6.260   2.106   5.225  0.3651 -0.9529  0.1768
 9142SOL    HW137740   6.220   2.169   5.285 -0.7857 -0.6323 -0.8795
 9142SOL    HW237741   6.341   2.080   5.268 -0.9226 -1.5678  2.3849
 9143SOL     OW37742   3.770   0.141  12.251 -0.0418  0.3579 -0.4778
 9143SOL    HW137743   3.758   0.106  12.163 -0.9326  1.8299 -0.9855
 9143SOL    HW237744   3.730   0.228  12.248 -0.0540  0.4641  1.3767
 9144SOL     OW37745   0.584   0.109   2.539 -0.4402  0.0576  0.9368
 9144SOL    HW137746   0.670   0.127   2.577 -0.2440 -0.9934  1.0090
 9144SOL    HW237747   0.540   0.194   2.537  0.7131  0.6578  0.6052
 9145SOL     OW37748  11.821   6.834   1.612 -0.5987 -0.8745  0.3177
 9145SOL    HW137749  11.731   6.834   1.644 -0.4330  0.3280  0.8382
 9145SOL    HW237750  11.868   6.776   1.672 -0.9130 -1.0732  0.3742
 9146SOL     OW37751  11.873  11.346  10.037 -0.2399  0.1432 -0.2418
 9146SOL    HW137752  11.878  11.352  10.133 -0.1161  2.4551 -0.3374
 9146SOL    HW237753  11.946  11.400  10.006 -1.6748  1.3640 -1.6244
 9147SOL     OW37754   0.533   8.179   0.280 -0.0780  0.5199 -0.3142
 9147SOL    HW137755   0.527   8.190   0.185  1.8050 -3.2970 -1.0603
 9147SOL    HW237756   0.627   8.173   0.297 -0.4141  0.2435  1.6646
 9148SOL     OW37757  11.686  10.424   6.584  0.4189 -0.0335  0.3245
 9148SOL    HW137758  11.636  10.421   6.502 -2.5129 -1.2646  2.0048
 9148SOL    HW237759  11.681  10.516   6.612 -1.5838 -0.2323  0.7677
 9149SOL     OW37760   2.739   8.280   3.070 -0.5183 -0.3434  0.2688
 9149SOL    HW137761   2.766   8.247   2.984  1.4989  1.0086  0.3341
 9149SOL    HW237762   2.810   8.337   3.098 -1.2911 -0.4604  2.7058
 9150SOL     OW37763  12.679   3.994   7.345  0.2101  0.8620 -0.1548
 9150SOL    HW137764  12.618   3.920   7.348  0.0462  0.9690 -0.7136
 9150SOL    HW237765  12.627   4.066   7.309  0.5761  1.0391 -0.3332
 9151SOL     OW37766   7.533   8.337  10.831 -0.0395 -0.1419  0.4038
 9151SOL    HW137767   7.626   8.317  10.821 -0.3921 -2.5625  1.1824
 9151SOL    HW237768   7.521   8.349  10.925  0.0600  4.0993  0.0777
 9152SOL     OW37769   4.912  12.627  12.816 -0.3628 -0.2282  0.4705
 9152SOL    HW137770   4.823  12.617  12.782 -1.1919  1.9124  1.8000
 9152SOL    HW237771   4.924  12.722  12.824  1.1305 -0.5352  2.6242
 9153SOL     OW37772   4.935  12.028   1.045 -0.0432  0.2028  0.2799
 9153SOL    HW137773   4.925  12.091   1.117 -0.5488  0.0197  0.3663
 9153SOL    HW237774   4.898  12.073   0.969  0.0049  0.1829  0.2447
 9154SOL     OW37775   9.769  10.980   7.611 -0.5742  0.2113 -0.2840
 9154SOL    HW137776   9.758  11.054   7.553 -0.8403  0.8158  0.5174
 9154SOL    HW237777   9.833  10.924   7.567 -1.2901  0.3068 -1.4658
 9155SOL     OW37778   2.430  11.262  12.700  0.1211  0.1428 -0.2784
 9155SOL    HW137779   2.511  11.248  12.651  0.4705  0.1636  0.2847
 9155SOL    HW237780   2.378  11.183  12.684 -0.0641  0.4456 -1.2331
 9156SOL     OW37781   3.171   5.862  12.029 -0.2147  0.0024 -0.7914
 9156SOL    HW137782   3.219   5.817  11.960 -0.4993 -0.2783 -0.8123
 9156SOL    HW237783   3.091   5.894  11.986  0.2666  1.0764 -0.9264
 9157SOL     OW37784   8.504  10.411   5.288 -0.4405 -0.8620  0.4499
 9157SOL    HW137785   8.567  10.431   5.219  0.4908 -1.1467  1.1832
 9157SOL    HW237786   8.427  10.378   5.243 -0.2807  0.0420 -0.5079
 9158SOL     OW37787   5.309   1.326   9.991 -0.5957 -0.7524 -0.3274
 9158SOL    HW137788   5.392   1.367   9.966 -0.3842 -0.8826  0.1458
 9158SOL    HW237789   5.288   1.366  10.076 -0.1458 -1.9547  0.3758
 9159SOL     OW37790   6.376   9.095  10.436 -0.1735 -0.1238  0.3346
 9159SOL    HW137791   6.457   9.083  10.386 -0.9529 -0.1660 -0.9577
 9159SOL    HW237792   6.318   9.141  10.376 -0.8271  0.6860  1.5487
 9160SOL     OW37793   1.074  12.732   0.731 -0.1796 -0.8983  0.2019
 9160SOL    HW137794   1.144  12.796   0.716 -0.5955 -0.3547  0.5450
 9160SOL    HW237795   1.031  12.724   0.645 -1.6150  1.0889  0.6591
 9161SOL     OW37796   3.742  11.407   8.891 -0.0666 -0.5212 -0.2152
 9161SOL    HW137797   3.759  11.341   8.958 -1.1578  1.0992  1.7656
 9161SOL    HW237798   3.790  11.484   8.920 -2.6584  1.0554  0.2426
 9162SOL     OW37799   5.758   3.109   4.233  0.1637  0.8903  0.1156
 9162SOL    HW137800   5.708   3.159   4.168 -0.7140 -0.2912 -0.1427
 9162SOL    HW237801   5.846   3.146   4.228 -0.8002  3.4907  1.0721
 9163SOL     OW37802  12.621   6.404   4.317  0.5400  0.0810 -0.7380
 9163SOL    HW137803  12.678   6.480   4.321  1.2961 -0.4674 -0.9552
 9163SOL    HW237804  12.640   6.364   4.232 -1.5384  0.9278 -1.6777
 9164SOL     OW37805   6.637   0.283   0.066  0.2134  0.3372 -0.0544
 9164SOL    HW137806   6.620   0.303  -0.026 -0.3466  1.9171  0.3659
 9164SOL    HW237807   6.662   0.191   0.066  1.1871  0.5617 -1.9033
 9165SOL     OW37808  12.507   0.341   5.251 -0.6309 -0.0124 -0.2694
 9165SOL    HW137809  12.428   0.319   5.300 -0.4984  1.6941  0.7984
 9165SOL    HW237810  12.503   0.286   5.173 -1.2685 -2.2402  1.2426
 9166SOL     OW37811  10.238   1.942   8.914 -0.4705  0.3159 -0.1887
 9166SOL    HW137812  10.317   1.929   8.862  0.9951  2.1014  1.4350
 9166SOL    HW237813  10.195   2.017   8.874 -0.2634  0.6026  0.1228
 9167SOL     OW37814   8.581   9.467   1.911 -0.2905  0.1358  0.6607
 9167SOL    HW137815   8.538   9.385   1.936 -1.3271  0.5591  0.3235
 9167SOL    HW237816   8.639   9.444   1.839  0.7303 -0.6080  1.6831
 9168SOL     OW37817   7.328   6.339   4.061 -0.8246  0.1643  0.0274
 9168SOL    HW137818   7.360   6.381   4.141 -2.0022 -2.9533  2.3368
 9168SOL    HW237819   7.233   6.336   4.073 -0.9549 -1.0048 -1.1630
 9169SOL     OW37820   8.042   2.009   5.678 -0.1824  0.2111 -0.0721
 9169SOL    HW137821   7.960   2.053   5.652  0.2331  0.2250 -1.4397
 9169SOL    HW237822   8.111   2.070   5.652  0.3088 -0.3285 -0.0478
 9170SOL     OW37823  11.294   7.192   7.841  0.0898 -0.0232  0.1773
 9170SOL    HW137824  11.322   7.260   7.901  1.4854  0.1415 -0.6187
 9170SOL    HW237825  11.201   7.210   7.827 -0.3590 -0.2641  2.4800
 9171SOL     OW37826   6.069   0.855   4.328 -0.6176  0.4838  0.5348
 9171SOL    HW137827   6.132   0.927   4.322  0.0254 -0.0446  0.9817
 9171SOL    HW237828   6.004   0.886   4.391 -1.3678  1.4345 -0.6447
 9172SOL     OW37829   3.815   9.054   6.431  0.3881  0.6483  0.0619
 9172SOL    HW137830   3.825   9.000   6.510 -0.5346  1.7667  0.9710
 9172SOL    HW237831   3.898   9.042   6.384  1.0054  0.0333  1.2486
 9173SOL     OW37832   8.866   2.193   7.801 -0.4276  0.6362  0.0664
 9173SOL    HW137833   8.783   2.188   7.753  0.6440 -0.2237 -1.8349
 9173SOL    HW237834   8.877   2.106   7.840  0.5479 -0.0066 -1.5234
 9174SOL     OW37835   5.310  12.917  10.924  0.5395 -0.1665 -0.2703
 9174SOL    HW137836   5.296  12.868  11.005 -1.7114  0.8959  0.0685
 9174SOL    HW237837   5.380  12.979  10.946  0.9118 -0.8094  0.4092
 9175SOL     OW37838   7.265   8.571   3.145 -0.0652  0.0216 -0.1558
 9175SOL    HW137839   7.249   8.665   3.146  0.5730  0.1380 -0.1142
 9175SOL    HW237840   7.304   8.553   3.231  1.6425  0.0728 -0.8779
 9176SOL     OW37841   2.672   7.585  11.446  0.4865 -0.3393 -0.1857
 9176SOL    HW137842   2.706   7.584  11.357  2.4105 -0.0247  0.4983
 9176SOL    HW237843   2.682   7.495  11.477 -0.6544 -0.5669 -0.4225
 9177SOL     OW37844   0.884   8.015   7.359 -0.3297  0.2474 -0.0438
 9177SOL    HW137845   0.940   8.088   7.387 -1.6124  0.8046  1.1999
 9177SOL    HW237846   0.926   7.937   7.395 -0.8609  0.7647  1.8019
 9178SOL     OW37847   5.589  11.801   5.096 -0.2517  0.4831 -0.2969
 9178SOL    HW137848   5.661  11.765   5.045 -0.4679  1.3972 -1.2893
 9178SOL    HW237849   5.630  11.872   5.147 -0.0200 -0.4778  0.9051
 9179SOL     OW37850   3.601   6.544   9.864  0.4157  0.3477  0.3293
 9179SOL    HW137851   3.696   6.537   9.876  0.2604  1.3828  2.7254
 9179SOL    HW237852   3.571   6.454   9.856  1.3821 -0.1859  2.1020
 9180SOL     OW37853   6.194   9.950   3.510 -0.0503  0.1358  0.3981
 9180SOL    HW137854   6.273   9.980   3.554 -0.4146  0.9207  0.5426
 9180SOL    HW237855   6.136   9.921   3.580  0.3777 -1.1235  0.2434
 9181SOL     OW37856   2.526  12.493   1.082 -0.3938  0.2646 -0.0414
 9181SOL    HW137857   2.434  12.509   1.061 -0.2250 -0.7160 -1.7265
 9181SOL    HW237858   2.525  12.418   1.142 -0.7285  1.0583  0.9736
 9182SOL     OW37859   8.179   8.121  10.119 -0.0930 -0.3665 -0.7499
 9182SOL    HW137860   8.099   8.101  10.168 -0.5987  1.1097 -0.9361
 9182SOL    HW237861   8.156   8.100  10.028  0.2660 -1.4336 -0.6069
 9183SOL     OW37862   7.880   2.363   0.631  0.1766  0.3356 -0.1656
 9183SOL    HW137863   7.789   2.384   0.656  0.2071 -0.4197  0.6426
 9183SOL    HW237864   7.925   2.352   0.715  0.9490  0.3935 -0.5685
 9184SOL     OW37865   9.385   2.584   3.896  0.7367 -0.1214 -0.2421
 9184SOL    HW137866   9.350   2.666   3.929  0.3266 -1.0251  1.6988
 9184SOL    HW237867   9.333   2.566   3.817 -0.4419  0.5565  0.3519
 9185SOL     OW37868  11.076   4.819   7.743  0.5393  0.1286 -0.1431
 9185SOL    HW137869  11.028   4.898   7.716  0.8433  0.4240  0.1705
 9185SOL    HW237870  11.161   4.826   7.698  0.0965 -0.6681 -1.1346
 9186SOL     OW37871  10.237   6.469   6.575  0.1010  0.0434  0.1485
 9186SOL    HW137872  10.240   6.407   6.648 -0.1562  0.2326  0.3206
 9186SOL    HW237873  10.210   6.417   6.500  0.4957 -0.1800  0.1575
 9187SOL     OW37874   0.061  10.103   4.697  0.0184  0.1021 -0.0391
 9187SOL    HW137875   0.077  10.011   4.675  1.4170  0.2028  0.4477
 9187SOL    HW237876   0.098  10.113   4.784 -0.8157  0.9594  0.2308
 9188SOL     OW37877   3.521   9.310   2.776 -0.3715  0.6085  0.8457
 9188SOL    HW137878   3.437   9.282   2.741 -0.2375 -1.3297  1.9537
 9188SOL    HW237879   3.576   9.324   2.698 -0.1724 -3.2642  0.1040
 9189SOL     OW37880   1.540   3.063   0.348  0.1194  0.0871  0.1096
 9189SOL    HW137881   1.490   3.104   0.277  0.6180  1.4790  0.5252
 9189SOL    HW237882   1.573   3.137   0.399  0.7131 -0.8681  1.1426
 9190SOL     OW37883   8.970   0.972   5.887  0.0665 -0.4353  0.1182
 9190SOL    HW137884   9.055   0.974   5.843 -0.4258  0.8521 -0.8324
 9190SOL    HW237885   8.929   0.891   5.857  0.6296 -0.6615 -0.0524
 9191SOL     OW37886   2.433   2.332   4.407 -0.2905  0.3447  0.5617
 9191SOL    HW137887   2.437   2.280   4.487 -0.1213 -1.2924 -0.4660
 9191SOL    HW237888   2.520   2.324   4.368 -0.6671  0.2619 -0.2937
 9192SOL     OW37889  12.838   2.988   5.445 -0.6262  0.7234 -0.4092
 9192SOL    HW137890  12.926   3.025   5.449 -1.2367  2.1134  2.1046
 9192SOL    HW237891  12.783   3.053   5.488 -2.8610 -0.2838 -1.5970
 9193SOL     OW37892   3.464   3.871   0.472 -0.0620  0.4030  0.3792
 9193SOL    HW137893   3.395   3.851   0.535 -1.2210  1.8720 -0.3565
 9193SOL    HW237894   3.540   3.895   0.525 -0.3392 -0.4775  1.1954
 9194SOL     OW37895  12.703   9.450   3.133 -0.2525 -0.0804 -0.0034
 9194SOL    HW137896  12.618   9.452   3.177 -0.6431  0.9675 -0.7713
 9194SOL    HW237897  12.690   9.501   3.053  1.4410  1.2175  0.4943
 9195SOL     OW37898   9.285   5.352   3.247 -0.2020  0.4581  0.4010
 9195SOL    HW137899   9.301   5.276   3.191 -1.6113 -0.0831  0.6860
 9195SOL    HW237900   9.227   5.408   3.195  0.5291  1.1760  0.3378
 9196SOL     OW37901   2.017   9.976  10.314  0.1031 -0.1926 -0.0085
 9196SOL    HW137902   1.955   9.984  10.241  1.3958  0.4817 -1.0710
 9196SOL    HW237903   2.028   9.881  10.325 -2.4770 -0.4254  1.4483
 9197SOL     OW37904  10.549  11.379   9.191 -0.4786  0.4328  0.2741
 9197SOL    HW137905  10.577  11.393   9.281  1.8545  0.4088 -0.3882
 9197SOL    HW237906  10.543  11.467   9.153  0.4245  0.3579 -0.0567
 9198SOL     OW37907   4.409  11.560   8.114  0.0134  0.0028  0.0933
 9198SOL    HW137908   4.402  11.599   8.027  0.6879  1.6415  0.7399
 9198SOL    HW237909   4.428  11.468   8.097  0.9735  0.4499 -1.4942
 9199SOL     OW37910  10.954   1.123   5.058  0.0667  0.6216 -0.0425
 9199SOL    HW137911  11.008   1.121   4.979  2.0199 -1.5179  1.2321
 9199SOL    HW237912  10.919   1.034   5.065  0.8705  0.4097  2.0429
 9200SOL     OW37913   2.956  11.739   3.291 -0.1649  0.7474 -0.0918
 9200SOL    HW137914   2.874  11.737   3.340  0.0644  0.3805  0.2864
 9200SOL    HW237915   2.960  11.827   3.253 -1.4048  0.3211 -1.2734
 9201SOL     OW37916   1.604   2.163  10.845 -0.2625  0.3854  0.2122
 9201SOL    HW137917   1.653   2.082  10.861 -2.8292 -0.8400  2.4420
 9201SOL    HW237918   1.662   2.233  10.876  2.0441 -0.4683 -1.8479
 9202SOL     OW37919   1.878   4.512   2.250  0.4346  0.5307  0.3053
 9202SOL    HW137920   1.847   4.508   2.160  2.6076  0.0200 -0.4638
 9202SOL    HW237921   1.896   4.604   2.265 -0.3619  0.6792  0.3897
 9203SOL     OW37922   3.026   7.622   2.716  0.1687  0.3251  0.2298
 9203SOL    HW137923   3.002   7.535   2.685  1.1867 -0.0322  0.4099
 9203SOL    HW237924   2.950   7.650   2.768 -1.3027  0.6829 -1.9735
 9204SOL     OW37925   1.210   7.306   6.372  0.4261  0.5001  0.0942
 9204SOL    HW137926   1.257   7.223   6.366  2.9897  1.8505  0.1980
 9204SOL    HW237927   1.183   7.312   6.464 -1.3184 -0.9318 -0.2687
 9205SOL     OW37928  10.679   6.726   3.596 -0.1414 -0.6195 -0.0796
 9205SOL    HW137929  10.715   6.791   3.536 -2.6485  1.2636  0.2729
 9205SOL    HW237930  10.702   6.642   3.557  2.0986  0.4488 -1.2685
 9206SOL     OW37931  10.899   7.443   3.341  0.1553  0.1161  0.5263
 9206SOL    HW137932  10.831   7.495   3.386  0.0524  0.1766  0.3012
 9206SOL    HW237933  10.862   7.425   3.255  0.8285  0.9921  0.0416
 9207SOL     OW37934   1.901  11.001  10.434  0.1424 -0.3887  0.3030
 9207SOL    HW137935   1.847  10.930  10.399  1.0783 -0.3891 -1.2239
 9207SOL    HW237936   1.991  10.970  10.423  0.5259 -0.1726  2.3175
 9208SOL     OW37937   6.356  10.087   4.257 -0.5750 -0.3812 -0.9584
 9208SOL    HW137938   6.392   9.999   4.258 -2.1805 -1.0638  0.0619
 9208SOL    HW237939   6.355  10.114   4.349  3.5073  2.3310 -1.4531
 9209SOL     OW37940   1.469   2.774   3.432 -0.4982  0.4091  0.2333
 9209SOL    HW137941   1.435   2.720   3.504  0.8538  0.5851  1.0305
 9209SOL    HW237942   1.467   2.716   3.356 -1.3815  0.0298  0.5297
 9210SOL     OW37943   2.287  11.278   3.580  0.3884 -0.0045  0.2912
 9210SOL    HW137944   2.219  11.279   3.513  1.0628 -0.6555 -0.4246
 9210SOL    HW237945   2.240  11.272   3.662 -0.4887  1.5668 -0.0601
 9211SOL     OW37946   7.917   6.724   5.272  0.0190  0.4778 -0.2252
 9211SOL    HW137947   7.863   6.783   5.220 -1.8345 -1.0710 -0.1335
 9211SOL    HW237948   7.860   6.651   5.294  2.3620 -1.6535 -0.7709
 9212SOL     OW37949   5.262   5.452   5.779  0.2606 -0.6658  0.4131
 9212SOL    HW137950   5.306   5.520   5.729 -0.9018  0.3871  0.7518
 9212SOL    HW237951   5.240   5.494   5.862 -0.0428 -1.6048  0.8237
 9213SOL     OW37952   3.122   0.823   1.002  0.1705  0.2123  0.3380
 9213SOL    HW137953   3.032   0.847   1.021 -0.6695 -1.7537 -0.8066
 9213SOL    HW237954   3.150   0.774   1.080  0.1762  0.6205  0.5957
 9214SOL     OW37955   0.444  10.496   4.246  0.4293  0.0809  0.4871
 9214SOL    HW137956   0.459  10.451   4.329  1.5464  1.0048  0.8073
 9214SOL    HW237957   0.359  10.539   4.257 -0.0401 -0.8650  0.6494
 9215SOL     OW37958   9.862   5.188   8.340 -0.4053  0.1575 -0.0688
 9215SOL    HW137959   9.938   5.215   8.288 -0.3637  1.2340  0.5243
 9215SOL    HW237960   9.867   5.092   8.343 -0.3911  0.0545 -2.0102
 9216SOL     OW37961   1.641   1.632   3.818  0.3899 -0.1949  0.3834
 9216SOL    HW137962   1.643   1.679   3.735 -0.1601 -0.7933  0.0216
 9216SOL    HW237963   1.690   1.551   3.802  0.4389 -0.2279  0.6885
 9217SOL     OW37964  11.704  10.189   8.147  0.2155 -0.0470 -0.0718
 9217SOL    HW137965  11.634  10.239   8.190 -0.2314  0.5399 -1.4283
 9217SOL    HW237966  11.681  10.191   8.054  2.3344  0.6416 -0.6295
 9218SOL     OW37967   9.685   4.263   6.718  0.6081 -0.4184  0.4351
 9218SOL    HW137968   9.596   4.229   6.705  0.7322 -0.1049 -1.3929
 9218SOL    HW237969   9.723   4.205   6.784 -0.3793 -1.6213 -0.0129
 9219SOL     OW37970   0.924   6.015   4.442 -0.7000  0.2773  0.8664
 9219SOL    HW137971   0.994   6.048   4.498  0.4810  1.2544 -1.0364
 9219SOL    HW237972   0.968   5.956   4.381 -1.3584  1.3133 -0.7063
 9220SOL     OW37973   1.002   0.030   4.946  0.4307  0.5007 -0.7030
 9220SOL    HW137974   1.085   0.009   4.990  0.9108  1.4815 -1.1083
 9220SOL    HW237975   0.945  -0.044   4.967  0.9910  0.4086  0.6378
 9221SOL     OW37976   2.961   7.992   8.103  0.6073  0.6605 -0.3936
 9221SOL    HW137977   2.966   8.024   8.013 -0.9467  0.0362 -0.7354
 9221SOL    HW237978   2.928   8.066   8.154 -0.5809  0.3855 -0.7373
 9222SOL     OW37979  11.955   0.302   8.273 -0.4971  0.1330  0.0586
 9222SOL    HW137980  12.045   0.269   8.278 -1.2112 -1.7802  0.9947
 9222SOL    HW237981  11.931   0.320   8.363 -0.6002  2.0442 -0.3123
 9223SOL     OW37982   3.709   9.235   5.885  1.0607 -0.1078 -0.3040
 9223SOL    HW137983   3.706   9.325   5.917 -0.7934 -0.9785  2.2485
 9223SOL    HW237984   3.792   9.201   5.917  1.8212  0.6661 -1.3692
 9224SOL     OW37985   6.072  11.570   0.206  0.0642  0.0063  0.6179
 9224SOL    HW137986   6.149  11.576   0.149  0.0926 -1.8717  0.4038
 9224SOL    HW237987   6.057  11.660   0.235 -0.3008  1.1911 -2.8039
 9225SOL     OW37988  12.973   7.589   0.035 -0.1405  0.0311  0.4048
 9225SOL    HW137989  13.018   7.505   0.045  0.6489  0.2285 -1.1764
 9225SOL    HW237990  12.891   7.568  -0.008 -0.1634  0.0071  0.4611
 9226SOL     OW37991   8.837   7.720   8.658 -0.1693  0.2280  0.0576
 9226SOL    HW137992   8.746   7.718   8.630 -0.1862 -1.6484  0.1342
 9226SOL    HW237993   8.833   7.716   8.754  0.0034  1.1971  0.1219
 9227SOL     OW37994   3.957   2.083  11.932  0.5599 -0.3065 -0.5433
 9227SOL    HW137995   3.997   2.062  11.848  2.6155 -2.3890  0.8402
 9227SOL    HW237996   4.003   2.028  11.995  0.4139  2.4822  2.2720
 9228SOL     OW37997   7.301   1.031   9.097  0.1626  0.3034  0.6815
 9228SOL    HW137998   7.298   0.972   9.173 -0.9542  0.1321  0.5232
 9228SOL    HW237999   7.387   1.016   9.059  0.3420 -0.3759  1.3249
 9229SOL     OW38000   3.731   2.906   5.295 -0.2983  0.2551  0.5695
 9229SOL    HW138001   3.783   2.905   5.376  1.0345  0.9654 -0.2551
 9229SOL    HW238002   3.667   2.836   5.308  2.3261 -2.3621  0.6980
 9230SOL     OW38003   9.609   4.706  12.469 -0.3341 -0.3295 -0.3787
 9230SOL    HW138004   9.697   4.744  12.476 -0.2442 -0.8101  1.8410
 9230SOL    HW238005   9.552   4.780  12.452  0.0275  0.7257  2.3992
 9231SOL     OW38006   9.299   2.864   3.977 -0.0654  0.9017  0.5443
 9231SOL    HW138007   9.216   2.880   3.932 -0.9267  0.1587  1.8236
 9231SOL    HW238008   9.275   2.815   4.056  1.7640 -0.8288  0.0981
 9232SOL     OW38009  12.721  12.175   9.133  0.3689 -0.3575  0.5641
 9232SOL    HW138010  12.696  12.221   9.213  0.4095 -0.0889  0.4228
 9232SOL    HW238011  12.659  12.102   9.127 -0.4611  0.3633  0.1628
 9233SOL     OW38012   2.247   4.680  12.908  0.2347 -0.8152  0.0515
 9233SOL    HW138013   2.264   4.602  12.961 -0.3649 -0.0153  1.4669
 9233SOL    HW238014   2.159   4.707  12.933 -1.0704 -1.7565 -3.1258
 9234SOL     OW38015   8.711   8.098   4.019  0.1119  0.2880  0.2441
 9234SOL    HW138016   8.777   8.090   4.088  0.6083 -0.8614 -0.3384
 9234SOL    HW238017   8.628   8.080   4.063  0.4250 -0.4345  0.5588
 9235SOL     OW38018   2.002   5.009  11.397  0.0181  0.6898 -0.7897
 9235SOL    HW138019   1.974   4.941  11.335  3.5133 -1.8526  0.1161
 9235SOL    HW238020   1.974   4.977  11.482  0.8517  0.8449 -0.4477
 9236SOL     OW38021   8.765   8.663   3.683  0.0859 -0.6108  0.1512
 9236SOL    HW138022   8.673   8.681   3.702  0.2293  2.6922 -1.4531
 9236SOL    HW238023   8.808   8.666   3.769 -0.7126  3.0422  0.6057
 9237SOL     OW38024   3.118   0.786  12.952  0.1387 -0.6117 -0.0423
 9237SOL    HW138025   3.168   0.709  12.926  0.8294 -0.3011  0.3078
 9237SOL    HW238026   3.180   0.859  12.941 -0.7559  0.0056 -1.1603
 9238SOL     OW38027  12.413   6.997  10.263  0.2210  0.4197 -0.1297
 9238SOL    HW138028  12.500   7.020  10.296  0.0304 -0.0937  0.7615
 9238SOL    HW238029  12.392   7.066  10.200  0.4364  1.6451  1.1129
 9239SOL     OW38030   9.108  11.306   6.028 -0.2526  0.0399 -0.1322
 9239SOL    HW138031   9.018  11.325   6.002  0.4717  1.1977 -2.0283
 9239SOL    HW238032   9.122  11.215   6.003 -0.7295  0.0322 -0.3864
 9240SOL     OW38033   1.940  12.206   8.352  0.1092 -0.0531  0.1713
 9240SOL    HW138034   1.997  12.161   8.414  0.5855 -0.1699 -0.3454
 9240SOL    HW238035   1.855  12.165   8.364  0.7080 -1.7232 -0.8953
 9241SOL     OW38036   6.303   9.960   4.566  0.1562 -0.3617  0.3679
 9241SOL    HW138037   6.236   9.983   4.630  0.2445  0.8552  0.0500
 9241SOL    HW238038   6.351  10.042   4.551  0.4463 -0.7353 -0.8929
 9242SOL     OW38039   3.853  12.786   2.985  0.1345  0.4350 -0.1583
 9242SOL    HW138040   3.771  12.835   2.991  0.2508  1.0795 -2.5955
 9242SOL    HW238041   3.921  12.852   2.996  0.3116  0.3091 -0.4949
 9243SOL     OW38042  11.651   4.947   2.959  0.6143  0.2859 -0.0747
 9243SOL    HW138043  11.695   4.964   2.876  0.1737 -0.2364 -0.4178
 9243SOL    HW238044  11.569   4.904   2.935  1.3770 -1.7346  0.7128
 9244SOL     OW38045   4.283  12.182   0.453 -0.2722 -0.5798 -0.0488
 9244SOL    HW138046   4.198  12.222   0.468  0.7458  1.4088  0.7943
 9244SOL    HW238047   4.274  12.138   0.369 -1.8107  0.5470 -0.5214
 9245SOL     OW38048   8.561  11.304  12.310 -0.1642 -0.1548 -0.3284
 9245SOL    HW138049   8.626  11.292  12.241  1.1689 -1.3442  1.0512
 9245SOL    HW238050   8.613  11.325  12.388 -1.4954 -0.3073  0.6322
 9246SOL     OW38051   1.638   2.399  10.594 -0.0716 -0.1412  0.7053
 9246SOL    HW138052   1.600   2.429  10.511  0.7488 -1.5925 -0.2558
 9246SOL    HW238053   1.591   2.318  10.615  1.9367 -1.6556 -0.2057
 9247SOL     OW38054  11.744   5.458   2.870  0.5677  0.3457 -0.4118
 9247SOL    HW138055  11.830   5.434   2.837  1.7620 -0.3063  2.7558
 9247SOL    HW238056  11.712   5.380   2.915 -1.3043  0.8411 -0.7856
 9248SOL     OW38057   7.374  12.205   1.237 -0.2482 -0.4268 -0.4233
 9248SOL    HW138058   7.388  12.154   1.157  0.4745  0.1690 -0.6805
 9248SOL    HW238059   7.402  12.293   1.215 -1.9363  0.2328 -0.1334
 9249SOL     OW38060   1.140   4.448   8.605 -0.3154 -0.0051 -0.6743
 9249SOL    HW138061   1.105   4.363   8.579  1.3101 -0.2575 -2.2640
 9249SOL    HW238062   1.223   4.428   8.649  0.6823  0.7292 -2.0995
 9250SOL     OW38063   8.392   8.495   0.237  0.1785  0.6830 -0.5630
 9250SOL    HW138064   8.339   8.551   0.293 -1.5326  1.9285 -3.2583
 9250SOL    HW238065   8.371   8.406   0.266 -0.1104  1.2771  1.1688
 9251SOL     OW38066   4.563   1.405   3.704 -0.4493  0.1950 -0.2626
 9251SOL    HW138067   4.567   1.496   3.732 -0.3927 -0.3231  1.5188
 9251SOL    HW238068   4.469   1.387   3.694 -0.4980  0.2588  0.0680
 9252SOL     OW38069   3.551  10.671   4.628  0.0801 -0.0462  0.1857
 9252SOL    HW138070   3.509  10.593   4.592  2.1801 -0.1993 -2.2491
 9252SOL    HW238071   3.481  10.736   4.633 -0.8778 -0.8355 -1.8756
 9253SOL     OW38072   3.546   0.593  11.711  0.1391  0.1574 -0.0785
 9253SOL    HW138073   3.608   0.571  11.641  1.1958 -0.4745  1.0275
 9253SOL    HW238074   3.601   0.617  11.785 -0.9754  1.4448  0.3608
 9254SOL     OW38075   6.296   8.084   4.799  0.6439 -0.1988 -0.1576
 9254SOL    HW138076   6.295   8.176   4.773 -0.4753 -0.3241 -0.6169
 9254SOL    HW238077   6.297   8.035   4.717  0.9556 -0.5989  0.0775
 9255SOL     OW38078  11.953   5.477   9.811 -0.2827  0.2480  0.2214
 9255SOL    HW138079  11.860   5.452   9.812  0.5298 -3.2234  0.7885
 9255SOL    HW238080  11.983   5.457   9.722  0.0640  0.8279  0.2020
 9256SOL     OW38081  11.832   6.854   5.657 -0.0199  0.4122  0.2297
 9256SOL    HW138082  11.763   6.920   5.659 -0.9144 -0.3357 -2.5242
 9256SOL    HW238083  11.803   6.787   5.718 -0.9956  0.7831  0.1921
 9257SOL     OW38084  11.223   4.600   1.929 -0.0404  0.1860 -0.2277
 9257SOL    HW138085  11.219   4.525   1.988 -0.4237  1.6880  1.7578
 9257SOL    HW238086  11.134   4.612   1.898 -0.0251  0.0055 -0.3460
 9258SOL     OW38087  11.339   5.006   6.281  0.3580 -0.0339 -0.4052
 9258SOL    HW138088  11.266   5.066   6.266  0.4214  0.2610  0.4477
 9258SOL    HW238089  11.387   5.006   6.198 -1.6867 -1.7540 -1.6750
 9259SOL     OW38090  12.049   0.939   6.215  0.3135 -0.0475  0.0297
 9259SOL    HW138091  11.989   1.014   6.215  0.3680  0.0263 -1.1808
 9259SOL    HW238092  12.115   0.961   6.280 -0.0021  0.6879  0.1123
 9260SOL     OW38093   6.258  11.579   8.402 -0.2271  0.1797 -0.2578
 9260SOL    HW138094   6.237  11.513   8.336 -1.5823  0.7674 -0.4391
 9260SOL    HW238095   6.308  11.531   8.468  1.1663 -0.4167 -1.6775
 9261SOL     OW38096   2.816   1.861   3.966 -0.2151 -0.0027 -0.0331
 9261SOL    HW138097   2.891   1.803   3.956 -0.3638 -0.7363  2.4846
 9261SOL    HW238098   2.749   1.824   3.908  0.3298 -1.2237  0.0856
 9262SOL     OW38099   2.109   3.739   8.749  0.0060  0.9164 -0.5423
 9262SOL    HW138100   2.150   3.746   8.835 -0.2538  1.1397 -0.4361
 9262SOL    HW238101   2.019   3.715   8.767  0.4693 -1.2150 -0.8417
 9263SOL     OW38102   8.273   6.445   4.214 -0.5949  0.0594  0.0432
 9263SOL    HW138103   8.276   6.368   4.157  0.1293 -1.8423  2.4603
 9263SOL    HW238104   8.320   6.418   4.293 -0.0056  3.1553  0.8718
 9264SOL     OW38105   1.977   8.237   8.855  0.1115  0.0822  0.3645
 9264SOL    HW138106   1.960   8.149   8.887  1.1227 -1.6563 -3.3978
 9264SOL    HW238107   2.012   8.225   8.767  2.0732  4.2028  0.3395
 9265SOL     OW38108  11.954  11.202   1.340  0.7013 -0.0096 -0.2812
 9265SOL    HW138109  11.997  11.152   1.409  0.9307 -1.1717 -1.2448
 9265SOL    HW238110  11.903  11.138   1.291  0.5227  0.7937 -1.1876
 9266SOL     OW38111   0.105   2.004   1.873 -0.6587  0.0660 -0.8102
 9266SOL    HW138112   0.097   2.097   1.851 -1.7279  0.0912 -0.3844
 9266SOL    HW238113   0.023   1.965   1.844 -0.1899 -0.7681 -1.0455
 9267SOL     OW38114   9.906   6.046   0.763 -0.0922  0.6454 -0.0597
 9267SOL    HW138115   9.988   6.094   0.772 -0.0121  0.3518  0.9760
 9267SOL    HW238116   9.838   6.112   0.778 -0.0418  0.8573 -0.7615
 9268SOL     OW38117   2.176   2.678   7.535  0.8151  0.4714 -0.5744
 9268SOL    HW138118   2.231   2.745   7.493  0.2350  1.3865  0.0832
 9268SOL    HW238119   2.095   2.724   7.556  0.5027 -0.3773  0.1387
 9269SOL     OW38120   2.457   5.271   2.827  0.0561  0.0005  0.5155
 9269SOL    HW138121   2.542   5.250   2.866 -0.1906  0.0517  1.0856
 9269SOL    HW238122   2.462   5.237   2.738 -0.0267 -1.7423  1.1406
 9270SOL     OW38123   7.725   8.637   1.225 -0.0028  0.5812 -0.5001
 9270SOL    HW138124   7.786   8.588   1.170  0.5763 -0.3525  0.9494
 9270SOL    HW238125   7.698   8.576   1.293 -1.7092  1.3240 -0.4459
 9271SOL     OW38126   6.144   0.778   5.620  0.5407 -0.2072  0.3074
 9271SOL    HW138127   6.211   0.711   5.609  0.9379  0.1696  0.3988
 9271SOL    HW238128   6.120   0.804   5.531  0.7644 -0.0981  0.2789
 9272SOL     OW38129   7.299  12.955   8.248  0.3733 -0.1440  0.1557
 9272SOL    HW138130   7.385  12.914   8.252  0.2671 -0.3805  0.0328
 9272SOL    HW238131   7.294  12.994   8.161  0.0062 -0.9141 -0.1819
 9273SOL     OW38132   2.947   6.227   1.485 -0.2727 -0.0407  0.1585
 9273SOL    HW138133   2.918   6.140   1.458 -1.0432  0.4673 -0.7209
 9273SOL    HW238134   2.953   6.222   1.581 -1.0519 -0.8322  0.1772
 9274SOL     OW38135   6.379   8.356   8.800  0.1805  0.1595  0.5165
 9274SOL    HW138136   6.355   8.445   8.824  0.2055  0.3463 -0.1235
 9274SOL    HW238137   6.463   8.340   8.843  0.1660  0.4427  0.6451
 9275SOL     OW38138   4.222   8.431   9.689 -0.0384 -0.2318 -0.4042
 9275SOL    HW138139   4.187   8.458   9.604  1.5587  0.4626 -0.8716
 9275SOL    HW238140   4.312   8.405   9.671 -0.1232 -1.4832  0.8419
 9276SOL     OW38141   3.297   3.935  12.049 -0.4097 -0.4815  0.3108
 9276SOL    HW138142   3.245   3.914  12.127 -1.2822 -0.8628 -0.3517
 9276SOL    HW238143   3.236   3.984  11.993 -0.2996 -1.5937 -0.8033
 9277SOL     OW38144   1.169   4.426   7.294 -0.0506  0.2521  0.6168
 9277SOL    HW138145   1.146   4.355   7.234 -1.4830  0.8046  0.4692
 9277SOL    HW238146   1.260   4.447   7.274 -0.5524  0.5596 -1.5134
 9278SOL     OW38147   8.407   0.780   4.362 -0.0760  0.3549 -0.1324
 9278SOL    HW138148   8.438   0.771   4.272  2.0981  0.5116  0.5286
 9278SOL    HW238149   8.397   0.875   4.374  0.4343  0.3918  0.0224
 9279SOL     OW38150   2.632   3.841   4.677  0.2052 -0.1925 -0.4352
 9279SOL    HW138151   2.686   3.914   4.705 -0.1373  0.2129 -0.8171
 9279SOL    HW238152   2.548   3.854   4.721 -0.3091  0.4004 -1.5375
 9280SOL     OW38153   7.136   0.106   1.364 -0.5429  0.2469 -0.3370
 9280SOL    HW138154   7.186   0.088   1.444 -0.8772  0.5856 -0.0494
 9280SOL    HW238155   7.084   0.027   1.350  1.3639 -0.8873 -1.6494
 9281SOL     OW38156   1.498   2.663   0.754  0.5969  0.4299  0.8499
 9281SOL    HW138157   1.542   2.656   0.839  0.7528  2.3664  0.9672
 9281SOL    HW238158   1.484   2.757   0.742 -0.1274  0.1297 -0.9239
 9282SOL     OW38159   9.304  10.119   5.641 -0.6438 -0.0686 -0.4068
 9282SOL    HW138160   9.263  10.114   5.727  0.0361  0.6941 -0.0176
 9282SOL    HW238161   9.397  10.106   5.658 -0.5877 -0.6731 -1.1314
 9283SOL     OW38162  10.901   9.010   7.507  0.3063  0.0072  0.5396
 9283SOL    HW138163  10.827   9.001   7.446 -1.2054 -1.7800  2.5220
 9283SOL    HW238164  10.875   9.081   7.565  0.8420  0.3471  0.3758
 9284SOL     OW38165   3.964   3.463   1.729  0.5804  0.3833 -0.4081
 9284SOL    HW138166   3.971   3.372   1.755 -1.8417  0.2423 -0.0800
 9284SOL    HW238167   3.949   3.511   1.810 -1.3990  0.6251 -0.8628
 9285SOL     OW38168   2.358   4.179   7.759 -0.5107  0.0528 -0.2863
 9285SOL    HW138169   2.310   4.172   7.841  0.8776 -1.4597  0.4695
 9285SOL    HW238170   2.405   4.096   7.752  2.7135  1.6905 -0.4262
 9286SOL     OW38171  10.796  10.702   4.851  0.5121  0.0488  0.3380
 9286SOL    HW138172  10.736  10.757   4.901  0.4245  1.5879 -1.3544
 9286SOL    HW238173  10.869  10.686   4.911 -0.8674 -0.6165  1.9234
 9287SOL     OW38174   8.640   2.092  11.431  0.0866  0.1150 -0.0297
 9287SOL    HW138175   8.638   2.135  11.346  0.1711  1.0080  0.4110
 9287SOL    HW238176   8.649   2.163  11.494 -0.1076 -0.5236  0.7393
 9288SOL     OW38177   6.247   0.970   4.014  0.1499 -0.0308 -0.0827
 9288SOL    HW138178   6.278   1.006   3.930  1.6100 -0.9079  0.0484
 9288SOL    HW238179   6.317   0.911   4.042 -1.3727 -1.6009  0.5846
 9289SOL     OW38180   8.475   5.159   2.782 -0.2528 -0.1980 -0.3674
 9289SOL    HW138181   8.454   5.191   2.695  0.9659  0.2079 -0.5395
 9289SOL    HW238182   8.465   5.235   2.839 -1.8444 -0.6549  0.0096
 9290SOL     OW38183   5.599  11.381   3.326 -0.0573  0.0905 -0.1222
 9290SOL    HW138184   5.510  11.346   3.328  0.0260 -0.1556 -0.5563
 9290SOL    HW238185   5.655  11.304   3.332  0.1279  0.2426  0.0994
 9291SOL     OW38186   6.261   1.954   1.109  0.3651  0.0468 -0.6829
 9291SOL    HW138187   6.269   1.867   1.070 -0.3728 -0.0014 -0.7506
 9291SOL    HW238188   6.290   2.014   1.041  1.0229 -0.1519 -0.5829
 9292SOL     OW38189  11.229   2.684   2.103 -0.0250 -0.2451  0.2014
 9292SOL    HW138190  11.190   2.770   2.116  0.0602 -0.0631 -0.7135
 9292SOL    HW238191  11.321   2.702   2.084  0.5632 -0.6671  2.3408
 9293SOL     OW38192  12.008  12.533  12.913  0.0726  0.2969  0.0607
 9293SOL    HW138193  11.920  12.499  12.933  0.7067 -1.1863  0.4514
 9293SOL    HW238194  12.024  12.507  12.823  0.4863 -0.3245  0.3034
 9294SOL     OW38195  11.674   3.645  12.291 -0.3073  0.0822 -0.3974
 9294SOL    HW138196  11.734   3.607  12.227  0.8437 -0.2299  0.8199
 9294SOL    HW238197  11.683   3.740  12.278  0.8117  0.0539  0.0715
 9295SOL     OW38198  10.223   1.752   2.771 -0.2754 -0.2899 -0.0761
 9295SOL    HW138199  10.257   1.719   2.854 -1.8762  0.9657  1.1506
 9295SOL    HW238200  10.301   1.773   2.720  0.8253  0.7892  1.9186
 9296SOL     OW38201   6.479   0.322   8.447  0.3981 -0.2047 -0.0631
 9296SOL    HW138202   6.530   0.384   8.500  1.7346 -2.2524  1.2045
 9296SOL    HW238203   6.388   0.349   8.460  0.9240  1.5588  0.3062
 9297SOL     OW38204   7.594  12.277  10.917 -0.8207  0.1120  0.3071
 9297SOL    HW138205   7.532  12.205  10.931  0.5357 -1.0414  0.5386
 9297SOL    HW238206   7.558  12.325  10.842 -1.4236 -1.1696 -0.2552
 9298SOL     OW38207   2.490  11.066  10.018 -0.3615  0.3691 -0.5672
 9298SOL    HW138208   2.418  11.125  10.041 -0.7609 -0.4312  0.3078
 9298SOL    HW238209   2.455  10.978  10.033  0.8456 -0.0306  0.0744
 9299SOL     OW38210   3.906   3.409   4.358 -0.4288 -0.2719 -0.3183
 9299SOL    HW138211   3.849   3.338   4.328 -0.7237 -0.6296  1.0201
 9299SOL    HW238212   3.952   3.372   4.433  1.9513 -0.1373 -1.6258
 9300SOL     OW38213   4.029   3.732   4.353 -0.9243 -0.3102 -0.4392
 9300SOL    HW138214   3.949   3.706   4.400 -0.6857 -1.0866 -0.4440
 9300SOL    HW238215   4.003   3.808   4.302 -1.9920 -1.2163 -1.3151
 9301SOL     OW38216   8.684   7.631   7.261 -0.1099  0.1851 -0.2104
 9301SOL    HW138217   8.661   7.723   7.249 -0.9326  0.0692  0.4197
 9301SOL    HW238218   8.663   7.612   7.353 -3.6635 -1.6387 -1.2416
 9302SOL     OW38219   9.701   3.901   0.082 -0.0145  0.3057 -0.1945
 9302SOL    HW138220   9.666   3.953   0.154 -2.6503 -1.4565 -0.0685
 9302SOL    HW238221   9.679   3.952   0.003  0.6888  1.0750  0.0942
 9303SOL     OW38222  12.242   1.710   3.123 -0.3251  0.6374 -0.2249
 9303SOL    HW138223  12.161   1.672   3.089 -0.8893  1.8148 -0.2348
 9303SOL    HW238224  12.267   1.651   3.195  1.5949 -2.6775 -3.2514
 9304SOL     OW38225  12.846   7.294   9.599 -0.0076 -0.0576  0.4242
 9304SOL    HW138226  12.846   7.321   9.507  1.2261  0.3312  0.5075
 9304SOL    HW238227  12.761   7.321   9.633 -0.7835 -0.9181 -0.7937
 9305SOL     OW38228   3.201   5.340   5.155  0.0632  0.2118 -0.0582
 9305SOL    HW138229   3.260   5.271   5.125 -0.5443 -0.8661  1.1364
 9305SOL    HW238230   3.120   5.295   5.179 -0.2324  1.2689  1.0844
 9306SOL     OW38231   9.733  11.039  12.223 -0.0154 -0.2479 -0.1474
 9306SOL    HW138232   9.719  10.945  12.209  1.9240 -0.6849  0.5601
 9306SOL    HW238233   9.679  11.081  12.156 -1.0792 -1.8444 -0.3549
 9307SOL     OW38234   2.116  10.061  12.286 -0.0186  0.1643 -0.2236
 9307SOL    HW138235   2.123  10.005  12.209  1.6409  0.4070 -0.2858
 9307SOL    HW238236   2.040  10.117  12.269 -0.7385 -0.9597 -0.8677
 9308SOL     OW38237   0.320   6.727   7.381 -0.5997 -0.3654  0.6704
 9308SOL    HW138238   0.326   6.632   7.371 -0.4454 -0.2207 -0.8208
 9308SOL    HW238239   0.290   6.759   7.296 -1.0683  0.8926  1.2773
 9309SOL     OW38240  10.016   7.218   1.360 -0.2076 -0.5142 -0.1678
 9309SOL    HW138241  10.045   7.308   1.342  1.0643 -0.6205  1.1057
 9309SOL    HW238242  10.036   7.170   1.280  0.7493 -0.0109 -0.2529
 9310SOL     OW38243   2.637  11.883   7.014 -0.8352 -0.3415 -0.2809
 9310SOL    HW138244   2.654  11.931   6.932  0.0557 -2.0702 -1.1556
 9310SOL    HW238245   2.551  11.914   7.042  0.2008  2.7110 -0.0836
 9311SOL     OW38246  10.738   6.385   1.547  0.3467 -0.1554  0.6807
 9311SOL    HW138247  10.782   6.370   1.463  0.4010  0.6033  0.5708
 9311SOL    HW238248  10.797   6.346   1.611  1.1934  0.8435  0.5320
 9312SOL     OW38249   3.558   9.589  10.367  0.0354 -0.1486 -0.3918
 9312SOL    HW138250   3.603   9.673  10.374  1.8823 -0.9710 -1.7061
 9312SOL    HW238251   3.590   9.550  10.286 -2.6381 -1.0893 -1.1301
 9313SOL     OW38252  10.296   7.628   9.071  0.3798 -0.3012 -0.0299
 9313SOL    HW138253  10.261   7.668   9.151  0.7499  1.4887 -0.7333
 9313SOL    HW238254  10.372   7.682   9.048  1.4820 -1.9746 -0.5222
 9314SOL     OW38255   7.747  10.167   1.150 -0.2026 -0.5664  0.1594
 9314SOL    HW138256   7.713  10.256   1.149  0.3928 -0.3395 -0.5847
 9314SOL    HW238257   7.794  10.160   1.233  0.8711  0.2484 -0.3644
 9315SOL     OW38258   2.194   7.874   6.705 -0.3178 -0.2027  0.8721
 9315SOL    HW138259   2.104   7.849   6.684 -0.3924  0.1883  0.7109
 9315SOL    HW238260   2.247   7.838   6.634 -0.4573  0.3298  0.4951
 9316SOL     OW38261  11.739   9.160  11.740 -0.4981  0.3785  0.0764
 9316SOL    HW138262  11.726   9.085  11.683  0.5634  0.1471  0.1261
 9316SOL    HW238263  11.809   9.210  11.699 -0.2811  0.6351  0.7501
 9317SOL     OW38264  11.152   4.900   4.589 -0.2287  0.5687 -0.2335
 9317SOL    HW138265  11.083   4.835   4.579 -1.1978  1.6376 -0.7178
 9317SOL    HW238266  11.180   4.891   4.680 -0.6575 -0.2169 -0.1696
 9318SOL     OW38267   0.164   8.207   6.667 -0.1076 -0.2334 -0.2254
 9318SOL    HW138268   0.136   8.181   6.579 -0.6639  3.2178 -1.2506
 9318SOL    HW238269   0.246   8.160   6.681  0.5885 -0.1048 -3.1256
 9319SOL     OW38270   1.702   7.713   0.551  0.2965 -0.3871 -0.7160
 9319SOL    HW138271   1.638   7.683   0.615  2.1546  0.3698  1.6511
 9319SOL    HW238272   1.656   7.780   0.501 -1.6929 -2.1108 -1.2901
 9320SOL     OW38273   7.697   0.310   6.838 -0.0047  0.0610 -0.3707
 9320SOL    HW138274   7.727   0.354   6.758  0.4557 -1.9303 -1.3644
 9320SOL    HW238275   7.607   0.341   6.850  0.3939  1.4787 -0.8329
 9321SOL     OW38276   4.177   8.480  11.137  0.4338  0.0793  0.1517
 9321SOL    HW138277   4.218   8.401  11.172 -0.5650  0.3300  2.0449
 9321SOL    HW238278   4.235   8.551  11.163 -0.8417  0.3861  2.4485
 9322SOL     OW38279   7.274   9.451   2.743 -0.0118 -0.4309  0.0972
 9322SOL    HW138280   7.262   9.528   2.799  1.3458 -1.4337  1.8642
 9322SOL    HW238281   7.186   9.417   2.730 -0.3737 -0.3995  2.0627
 9323SOL     OW38282   2.005   6.511   4.193  0.0938 -0.1555  0.3059
 9323SOL    HW138283   1.977   6.599   4.167  0.1611 -0.1264  0.3333
 9323SOL    HW238284   1.932   6.478   4.247 -0.1742 -0.3278 -0.1510
 9324SOL     OW38285   4.169  10.120   0.113 -0.3859  0.1991 -0.1143
 9324SOL    HW138286   4.139  10.029   0.106 -1.4160  0.4545  0.6691
 9324SOL    HW238287   4.129  10.164   0.037  2.5390 -0.5579 -2.2624
 9325SOL     OW38288  12.098   3.609   0.082 -0.3615  0.3101 -0.3554
 9325SOL    HW138289  12.066   3.572  -0.000  0.0794 -0.0926 -0.3530
 9325SOL    HW238290  12.120   3.532   0.135  1.6856  0.5566 -0.7789
 9326SOL     OW38291  12.091   5.512   8.511 -0.0555 -0.3641 -0.0718
 9326SOL    HW138292  12.050   5.596   8.489  1.7426  0.0350 -2.3489
 9326SOL    HW238293  12.020   5.448   8.500 -0.3947  0.3617 -3.2156
 9327SOL     OW38294   4.497   9.827   5.614 -0.0562 -0.2377 -0.2061
 9327SOL    HW138295   4.570   9.768   5.594 -1.1173 -1.6300 -0.1078
 9327SOL    HW238296   4.534   9.890   5.676  0.7870 -1.5915  0.7279
 9328SOL     OW38297   9.392   1.269   3.120  0.4765 -0.1080  0.4143
 9328SOL    HW138298   9.373   1.353   3.163  2.0159  0.1750  0.6325
 9328SOL    HW238299   9.451   1.224   3.181  0.4928 -0.8998 -0.1702
 9329SOL     OW38300   7.597   2.599   8.727  0.0499  0.1612 -0.3149
 9329SOL    HW138301   7.614   2.600   8.633 -1.0705  0.5108 -0.5298
 9329SOL    HW238302   7.502   2.607   8.735 -0.0520 -1.4707  0.8118
 9330SOL     OW38303  10.093   5.154   2.775  0.6513 -0.0320 -0.5327
 9330SOL    HW138304  10.110   5.118   2.862  1.0088  1.6221  0.1147
 9330SOL    HW238305   9.997   5.150   2.765  0.5422  0.4652  0.2635
 9331SOL     OW38306   5.686   5.237   4.319 -0.4773 -0.3817  0.0287
 9331SOL    HW138307   5.667   5.330   4.308  0.9180  0.0859  1.2494
 9331SOL    HW238308   5.769   5.224   4.275 -1.0301 -1.2461 -0.7925
 9332SOL     OW38309  11.204   8.138   3.397 -0.3873  0.1047  0.2524
 9332SOL    HW138310  11.113   8.138   3.367 -0.7124  0.9451  1.1953
 9332SOL    HW238311  11.199   8.118   3.490  0.4926 -0.8950  0.1058
 9333SOL     OW38312   1.531   0.405   6.628  0.4150  0.3808  0.3355
 9333SOL    HW138313   1.442   0.411   6.594  0.1531 -1.5140  0.6218
 9333SOL    HW238314   1.525   0.348   6.704  1.8321  0.4632  0.5419
 9334SOL     OW38315   6.718   5.998   7.932  0.0010 -0.3826 -0.5771
 9334SOL    HW138316   6.757   5.919   7.970  1.7298 -0.1092 -1.6909
 9334SOL    HW238317   6.696   5.972   7.842 -0.2142  0.1743 -0.6869
 9335SOL     OW38318  10.898   0.571  10.007  0.1845 -0.0768 -0.4104
 9335SOL    HW138319  10.892   0.607   9.919 -3.9537  0.3517 -0.1648
 9335SOL    HW238320  10.872   0.642  10.065 -0.3849 -1.2263  0.8185
 9336SOL     OW38321  12.278   4.179   9.830  0.1072  0.0048 -0.2622
 9336SOL    HW138322  12.220   4.225   9.770 -1.5894 -1.2347  0.3323
 9336SOL    HW238323  12.310   4.104   9.780  2.4527  1.4170 -1.0601
 9337SOL     OW38324   2.478  12.974   3.378 -0.0782 -0.2911  0.4010
 9337SOL    HW138325   2.493  12.982   3.473 -0.8958  2.2841  0.3772
 9337SOL    HW238326   2.558  12.933   3.345  1.1026  0.6346  1.9576
 9338SOL     OW38327   1.753   6.412   7.972 -0.2003  0.0872 -0.1333
 9338SOL    HW138328   1.816   6.400   8.043  2.6111  1.0580 -2.2762
 9338SOL    HW238329   1.738   6.323   7.939  1.2727 -0.0429 -0.5250
 9339SOL     OW38330   1.172  12.769   9.571 -0.1167  0.8854 -0.2349
 9339SOL    HW138331   1.257  12.735   9.542  0.0725  0.8998  0.2980
 9339SOL    HW238332   1.174  12.761   9.666  0.0408  2.6411 -0.0604
 9340SOL     OW38333  12.463   3.016   8.684 -0.3319  0.0177 -0.5367
 9340SOL    HW138334  12.410   2.957   8.738 -0.8882 -0.2175 -1.3211
 9340SOL    HW238335  12.423   3.102   8.697  0.1320  0.1327  0.1687
 9341SOL     OW38336   6.107   4.765   4.019 -0.0834 -0.2485  0.4344
 9341SOL    HW138337   6.023   4.800   3.988 -0.1519 -1.1318 -0.4054
 9341SOL    HW238338   6.116   4.681   3.974  1.7491  0.3059 -0.3202
 9342SOL     OW38339  12.028   7.496  11.949 -0.5967  0.3179  0.0661
 9342SOL    HW138340  11.994   7.464  12.032 -1.5865  0.8074 -0.1354
 9342SOL    HW238341  12.118   7.523  11.968 -0.3077 -0.9632  0.6202
 9343SOL     OW38342  11.228   0.227  10.991 -0.2238  0.1371  0.3075
 9343SOL    HW138343  11.285   0.277  10.932 -0.3182  0.7390  0.7153
 9343SOL    HW238344  11.141   0.239  10.955 -0.3962  1.1982  1.0073
 9344SOL     OW38345   9.226  11.859  12.352  0.8819 -0.6607 -0.1716
 9344SOL    HW138346   9.199  11.833  12.440  0.2242  1.4640  0.3022
 9344SOL    HW238347   9.147  11.847  12.299  0.9081 -0.6859 -0.2052
 9345SOL     OW38348   9.189   8.101   8.671  0.3336  0.1145 -0.1690
 9345SOL    HW138349   9.284   8.087   8.671  0.5281  1.1939  0.9892
 9345SOL    HW238350   9.175   8.165   8.601  0.9175  2.2341  1.5162
 9346SOL     OW38351   3.693  11.478   0.429 -0.3421 -0.2089 -0.2148
 9346SOL    HW138352   3.625  11.427   0.472  0.3248 -0.4510  0.5805
 9346SOL    HW238353   3.749  11.509   0.500  0.5603 -0.2867 -0.8685
 9347SOL     OW38354   9.571   2.875  10.785  0.3580 -0.3638 -0.4318
 9347SOL    HW138355   9.535   2.955  10.747 -1.0661  0.1376  1.8044
 9347SOL    HW238356   9.551   2.807  10.721  2.3642  1.0948 -2.7948
 9348SOL     OW38357   1.974   0.884  10.848  0.7559  0.5605 -0.1945
 9348SOL    HW138358   1.890   0.899  10.804  1.1571  1.3118 -0.7198
 9348SOL    HW238359   1.967   0.933  10.930  0.0493 -0.7532  0.5616
 9349SOL     OW38360   5.352   2.073   2.732  0.6605  0.2942  0.4190
 9349SOL    HW138361   5.288   2.112   2.673  1.6462  0.1410 -0.7777
 9349SOL    HW238362   5.406   2.147   2.762  1.3152  0.1360 -0.3366
 9350SOL     OW38363   0.519  10.443   5.434  0.2708  0.9052 -0.5089
 9350SOL    HW138364   0.563  10.528   5.434  1.9052  0.1148  0.4550
 9350SOL    HW238365   0.582  10.383   5.474 -2.0625 -0.1253  1.9299
 9351SOL     OW38366   9.121   1.015  12.745 -0.0954  0.1570 -0.3286
 9351SOL    HW138367   9.029   1.025  12.769 -0.3544  0.2046 -1.2956
 9351SOL    HW238368   9.120   0.953  12.672  0.6228  0.3045 -0.4710
 9352SOL     OW38369  12.907   5.180   7.860 -0.0302  0.0550  0.7335
 9352SOL    HW138370  12.952   5.264   7.858 -0.1232  0.0918 -0.3279
 9352SOL    HW238371  12.977   5.115   7.852 -0.1750  0.1387 -2.6525
 9353SOL     OW38372   8.050  11.219   0.997  0.0936  0.2604  0.2268
 9353SOL    HW138373   8.092  11.161   1.060  1.3805  1.6966  0.7455
 9353SOL    HW238374   8.022  11.160   0.926 -0.3894 -1.2326  1.5818
 9354SOL     OW38375   5.343   4.568   5.285 -0.0898 -0.3157 -0.2846
 9354SOL    HW138376   5.352   4.545   5.193 -1.3309 -0.7720 -0.3047
 9354SOL    HW238377   5.399   4.645   5.295  0.5387 -0.6169 -1.2651
 9355SOL     OW38378   7.350  11.833  12.051  0.5355 -1.0749 -0.1586
 9355SOL    HW138379   7.428  11.888  12.056 -0.5507  0.4656  0.5707
 9355SOL    HW238380   7.299  11.870  11.979 -0.6899 -0.4528  1.0053
 9356SOL     OW38381  12.313   1.326   1.038  0.4307 -0.5766  0.1076
 9356SOL    HW138382  12.240   1.291   1.089 -0.5155 -1.2448 -1.6059
 9356SOL    HW238383  12.301   1.288   0.951  2.1924  0.2095 -0.5214
 9357SOL     OW38384   7.399   4.292   1.061 -0.1740 -0.8607  0.3546
 9357SOL    HW138385   7.436   4.220   1.113 -0.1531  0.1127  1.7509
 9357SOL    HW238386   7.317   4.314   1.106  1.5728  2.4302  2.2997
 9358SOL     OW38387   7.728   1.094   9.822  0.0600  0.3239  0.2407
 9358SOL    HW138388   7.719   1.111   9.916  2.3802 -1.4866  0.8922
 9358SOL    HW238389   7.780   1.014   9.817  1.0927  1.0450 -2.5846
 9359SOL     OW38390  12.569   2.708   4.660  0.1134 -0.2036  0.0199
 9359SOL    HW138391  12.517   2.675   4.734  0.8453 -0.4470  0.4416
 9359SOL    HW238392  12.641   2.756   4.701  1.6656 -2.0070 -0.4175
 9360SOL     OW38393   1.972   5.346   2.705  0.5846 -0.3888  0.4258
 9360SOL    HW138394   2.004   5.258   2.725 -2.0756 -1.2883  1.0524
 9360SOL    HW238395   2.011   5.366   2.620  0.3335 -2.6907 -0.3178
 9361SOL     OW38396   9.765   7.927   0.090  0.1273  0.0913 -0.5533
 9361SOL    HW138397   9.701   7.899   0.155 -0.1049  1.1063 -0.3259
 9361SOL    HW238398   9.848   7.892   0.121 -0.3357 -1.5307 -1.0228
 9362SOL     OW38399   5.679   8.584   2.188 -0.1079  0.0879  0.7580
 9362SOL    HW138400   5.651   8.667   2.148 -0.8548 -1.0410 -1.1985
 9362SOL    HW238401   5.707   8.530   2.114 -0.0140 -1.5469  1.9407
 9363SOL     OW38402  11.407  10.801   1.657 -0.3490 -0.7125 -0.2958
 9363SOL    HW138403  11.413  10.857   1.579  1.5665  0.7800  0.8442
 9363SOL    HW238404  11.434  10.715   1.626  0.6753 -0.0846 -1.2262
 9364SOL     OW38405   6.747  11.562   8.631 -0.2099  0.0530  0.1121
 9364SOL    HW138406   6.825  11.533   8.583  0.3513 -1.1128  1.6118
 9364SOL    HW238407   6.686  11.591   8.564  1.6351  1.3075 -1.0960
 9365SOL     OW38408   9.771   9.924   2.560 -0.2923  0.4143 -0.5657
 9365SOL    HW138409   9.819   9.925   2.478 -0.9187  2.8623 -0.9940
 9365SOL    HW238410   9.835   9.895   2.625  0.9554  0.9145 -1.5331
 9366SOL     OW38411  12.729  12.618   9.004  0.2060  0.3525 -0.2576
 9366SOL    HW138412  12.746  12.693   9.061 -2.0410  1.9575 -1.5423
 9366SOL    HW238413  12.638  12.594   9.023  0.4738 -1.2366 -0.8294
 9367SOL     OW38414   7.341   0.305   5.600  0.1702 -0.2875 -0.0512
 9367SOL    HW138415   7.303   0.292   5.687 -0.4727  0.4248 -0.2130
 9367SOL    HW238416   7.422   0.255   5.601  0.2330 -0.1784  1.0031
 9368SOL     OW38417  12.002   9.942  12.492  0.2054 -0.3713 -0.3263
 9368SOL    HW138418  11.994   9.851  12.463 -1.3319  0.0929 -1.4657
 9368SOL    HW238419  11.912   9.974  12.499  0.6483  0.5622  1.8129
 9369SOL     OW38420   2.953   8.589   5.139  0.2108  0.2225 -0.0728
 9369SOL    HW138421   2.886   8.556   5.080  0.5936  1.6999 -1.3957
 9369SOL    HW238422   3.033   8.542   5.114  0.5526  1.4173 -1.3296
 9370SOL     OW38423   1.303  10.096   0.413  0.8418 -0.2535 -0.0343
 9370SOL    HW138424   1.354  10.163   0.457  0.0698 -1.4178  2.9083
 9370SOL    HW238425   1.358  10.017   0.417 -0.4863 -1.1652  1.8960
 9371SOL     OW38426   4.349   9.429  12.376 -0.0196 -0.3723  0.2015
 9371SOL    HW138427   4.363   9.344  12.335  3.2855  0.3901 -0.5836
 9371SOL    HW238428   4.279   9.469  12.326  0.9701 -1.1908 -1.9523
 9372SOL     OW38429   8.156   3.760   6.880 -0.1773 -0.3561 -0.0911
 9372SOL    HW138430   8.078   3.766   6.825 -1.7744 -1.3586  1.8922
 9372SOL    HW238431   8.147   3.832   6.942 -0.9022 -1.8859  1.6876
 9373SOL     OW38432   9.529   9.936   4.058 -0.0861  0.1340  0.2060
 9373SOL    HW138433   9.583   9.886   3.998  0.4247  0.1067  0.6755
 9373SOL    HW238434   9.514  10.019   4.014  0.7026  0.3058  0.2466
 9374SOL     OW38435   4.938   6.359  12.514  0.1474 -0.2894  0.3546
 9374SOL    HW138436   4.928   6.445  12.556 -0.6713  0.3758 -1.1366
 9374SOL    HW238437   4.891   6.367  12.431  0.5356 -2.0126 -0.0693
 9375SOL     OW38438   3.015   4.752   4.778 -0.0919  0.1923 -0.3477
 9375SOL    HW138439   2.953   4.717   4.714 -1.1368  1.3788 -0.0289
 9375SOL    HW238440   2.980   4.726   4.863 -0.0200  0.6321 -0.1771
 9376SOL     OW38441  10.417   2.090   0.778  0.3137  0.0202  0.5214
 9376SOL    HW138442  10.398   2.021   0.842  1.8872  0.0704  1.0980
 9376SOL    HW238443  10.484   2.144   0.821 -0.4166  1.5451 -0.1711
 9377SOL     OW38444  11.091   7.746   4.397 -0.3463 -0.0009  0.2317
 9377SOL    HW138445  11.030   7.805   4.443 -0.4292 -0.2265  0.4166
 9377SOL    HW238446  11.049   7.660   4.403 -0.6176  0.0582 -0.7437
 9378SOL     OW38447   8.518   8.129   1.598 -0.2759 -0.9248  0.2222
 9378SOL    HW138448   8.537   8.223   1.600  1.3719 -1.2106 -0.2360
 9378SOL    HW238449   8.587   8.089   1.652  1.3563 -2.1496 -2.5394
 9379SOL     OW38450   3.602   3.915   5.868 -0.2835 -0.2437 -0.1056
 9379SOL    HW138451   3.612   3.988   5.807  0.8180 -0.0187  0.3146
 9379SOL    HW238452   3.523   3.870   5.839 -0.5535  0.6704 -0.8392
 9380SOL     OW38453   4.241   7.584   6.620  0.4020  0.1869  0.2099
 9380SOL    HW138454   4.305   7.523   6.584 -2.0683 -2.6306  0.2203
 9380SOL    HW238455   4.218   7.642   6.547 -1.2345 -2.5523 -1.6220
 9381SOL     OW38456   2.545   8.469   6.785  0.1780  0.1541 -0.4552
 9381SOL    HW138457   2.513   8.380   6.769 -3.5390  1.3561 -0.8395
 9381SOL    HW238458   2.480   8.507   6.844  1.4788  2.7285 -0.5277
 9382SOL     OW38459   3.913   5.982   5.222 -0.2356 -0.0665  0.6513
 9382SOL    HW138460   3.984   5.999   5.160 -0.9699  0.1536 -0.1523
 9382SOL    HW238461   3.891   5.890   5.209  1.0903 -0.6468  2.1934
 9383SOL     OW38462  10.867   1.243  11.731  0.3382  0.3559  0.3584
 9383SOL    HW138463  10.932   1.173  11.725  2.8509  2.5056  0.8371
 9383SOL    HW238464  10.803   1.221  11.663  0.6589 -2.6762  0.8885
 9384SOL     OW38465   7.358   0.807   0.662 -0.3743  0.1309 -0.1813
 9384SOL    HW138466   7.333   0.743   0.729 -1.2966  0.4874 -0.1724
 9384SOL    HW238467   7.411   0.757   0.600 -0.7979 -0.5682  0.0061
 9385SOL     OW38468   6.119   2.124   2.571  0.4217 -0.1755  0.2300
 9385SOL    HW138469   6.057   2.171   2.515  1.3713  2.0931  0.9566
 9385SOL    HW238470   6.190   2.098   2.513  0.4849  0.4250  0.0399
 9386SOL     OW38471   9.626   6.621  11.049  0.4907 -0.1016  0.3931
 9386SOL    HW138472   9.680   6.701  11.047 -0.4111  0.5118 -0.2685
 9386SOL    HW238473   9.539   6.650  11.021 -0.1531 -1.1073  1.2629
 9387SOL     OW38474   7.250  12.417   4.580  0.3417 -0.1592 -0.5491
 9387SOL    HW138475   7.205  12.432   4.663  0.1675 -0.2029 -0.6361
 9387SOL    HW238476   7.248  12.322   4.567  1.9756 -0.3415  0.2977
 9388SOL     OW38477   0.368   9.772   2.976  0.3999  0.3264 -0.1792
 9388SOL    HW138478   0.303   9.764   3.046  0.8787  0.6670  0.3197
 9388SOL    HW238479   0.369   9.865   2.954  0.7411  0.3311 -0.1565
 9389SOL     OW38480   4.133   5.072   3.693 -0.6938 -0.2277 -0.2408
 9389SOL    HW138481   4.173   5.146   3.739 -0.0908 -0.0841 -0.9879
 9389SOL    HW238482   4.207   5.020   3.662 -1.1097 -1.3053  0.5155
 9390SOL     OW38483   3.303  11.835   3.371 -0.1469  0.2700 -0.0091
 9390SOL    HW138484   3.272  11.920   3.404 -0.1461 -0.2554  1.4213
 9390SOL    HW238485   3.256  11.771   3.424  0.5955 -0.6119 -0.3988
 9391SOL     OW38486   2.734  11.973  10.374 -0.4390  0.2601  0.3173
 9391SOL    HW138487   2.824  11.948  10.354 -0.3293  0.1468  0.9191
 9391SOL    HW238488   2.719  12.052  10.321  0.1346  0.4849  0.4780
 9392SOL     OW38489   2.319  10.986   9.714 -0.2527 -0.4130 -0.1811
 9392SOL    HW138490   2.349  10.958   9.800 -0.9422 -0.3481  0.0821
 9392SOL    HW238491   2.328  11.081   9.714 -1.1445 -0.3236  0.1671
 9393SOL     OW38492   1.439   6.290   4.384 -0.2076  0.3017  0.1800
 9393SOL    HW138493   1.395   6.374   4.389  0.0535  0.4427  0.1576
 9393SOL    HW238494   1.531   6.312   4.369 -0.1510  0.0115  0.0830
 9394SOL     OW38495   2.562   7.713   3.359 -0.1948  0.0696 -0.2374
 9394SOL    HW138496   2.490   7.762   3.319 -2.7856  0.9448  4.7446
 9394SOL    HW238497   2.522   7.665   3.431  3.9234 -1.2542  1.4834
 9395SOL     OW38498   8.131   9.840  12.454  0.0121 -0.1175  0.0195
 9395SOL    HW138499   8.214   9.838  12.407  1.1367 -2.8401  1.8469
 9395SOL    HW238500   8.068   9.799  12.395  0.4100  0.1775 -0.6217
 9396SOL     OW38501  12.888   9.607  11.617  0.6435  0.2228  0.2438
 9396SOL    HW138502  12.811   9.594  11.562  0.2596  1.1888  0.5308
 9396SOL    HW238503  12.955   9.640  11.557  0.9869 -0.9959 -0.0860
 9397SOL     OW38504  10.107   5.170   0.309 -0.4857 -0.0080  0.0775
 9397SOL    HW138505  10.202   5.172   0.304 -0.5124  1.3784 -0.2962
 9397SOL    HW238506  10.081   5.262   0.320 -1.7434 -0.4373  0.9157
 9398SOL     OW38507   8.316   2.459   5.773  0.5821 -0.1182 -0.5845
 9398SOL    HW138508   8.241   2.399   5.774  1.2529 -0.9583 -0.3721
 9398SOL    HW238509   8.391   2.406   5.798  1.2636  0.7190 -0.7810
 9399SOL     OW38510   4.147   9.954   3.466  0.1090 -0.3983 -0.0576
 9399SOL    HW138511   4.078  10.019   3.477  1.6000  1.3760 -0.7104
 9399SOL    HW238512   4.215   9.980   3.528  1.0435 -0.8757 -0.8492
 9400SOL     OW38513   3.828   6.837   5.311  0.1710  0.0609  0.2035
 9400SOL    HW138514   3.827   6.895   5.387 -3.0910  1.3865 -0.6931
 9400SOL    HW238515   3.742   6.796   5.311  0.1310 -0.0275 -2.6945
 9401SOL     OW38516   6.129   9.587  11.975 -0.4049  0.3118  0.0851
 9401SOL    HW138517   6.221   9.576  11.949 -0.5856 -0.8972 -0.0694
 9401SOL    HW238518   6.121   9.681  11.993  1.6807  0.0701  3.1485
 9402SOL     OW38519   1.111  12.440  11.164  0.1621  0.0470  0.0170
 9402SOL    HW138520   1.192  12.400  11.131  0.7601  0.2842  1.1678
 9402SOL    HW238521   1.123  12.534  11.151 -0.1992  0.0374 -0.3971
 9403SOL     OW38522   4.227   7.268  10.096  0.3046  0.0925 -0.2076
 9403SOL    HW138523   4.142   7.307  10.117  0.0732 -0.1762 -0.6304
 9403SOL    HW238524   4.291   7.336  10.119 -0.0288  0.3353  0.0123
 9404SOL     OW38525   2.096   9.865   5.998  0.0133 -0.3325 -0.3387
 9404SOL    HW138526   2.152   9.935   5.964 -1.3338  0.6784 -0.5221
 9404SOL    HW238527   2.058   9.825   5.920 -1.2320  0.4306 -0.1329
 9405SOL     OW38528  10.910   2.245   2.387  0.3280 -0.7754  0.3332
 9405SOL    HW138529  10.882   2.334   2.410 -1.1060 -0.9353 -0.6353
 9405SOL    HW238530  10.852   2.188   2.438 -1.1768 -1.1137 -1.6093
 9406SOL     OW38531  12.024  11.633  11.724  0.5661 -0.0640  0.2404
 9406SOL    HW138532  11.937  11.662  11.753  0.9010  0.2524  0.9214
 9406SOL    HW238533  12.048  11.696  11.656  0.0217 -0.4877 -0.3629
 9407SOL     OW38534   4.610   6.914   7.210 -0.2474 -0.0447 -0.3000
 9407SOL    HW138535   4.600   6.974   7.136  0.3299  0.1782 -0.2011
 9407SOL    HW238536   4.697   6.876   7.198 -1.4409 -2.6712 -1.6910
 9408SOL     OW38537   8.897   8.566   3.912 -0.2637  0.1318  0.4279
 9408SOL    HW138538   8.975   8.511   3.900  0.1184  0.7803 -0.1119
 9408SOL    HW238539   8.853   8.529   3.989  0.0075 -0.8995  0.1000
 9409SOL     OW38540   3.222  11.152  11.039  0.2163 -0.0654 -0.4030
 9409SOL    HW138541   3.315  11.151  11.060  0.2530 -2.3054 -0.4342
 9409SOL    HW238542   3.192  11.063  11.060 -1.2446 -0.3505 -3.2409
 9410SOL     OW38543   0.447   4.873   4.006  0.8587  0.0818  0.2795
 9410SOL    HW138544   0.412   4.868   4.095  2.2038 -0.6440  0.8053
 9410SOL    HW238545   0.437   4.965   3.981 -0.0340  0.1823  0.9671
 9411SOL     OW38546   9.109   9.120   5.420 -0.6814  0.1423 -0.5250
 9411SOL    HW138547   9.192   9.163   5.441 -0.9451  0.5591 -0.3250
 9411SOL    HW238548   9.132   9.028   5.409 -0.5195 -0.1522  1.7544
 9412SOL     OW38549   1.897   5.816   8.767  0.4014  0.1212 -0.3361
 9412SOL    HW138550   1.965   5.881   8.749  1.2950 -0.0063  2.1316
 9412SOL    HW238551   1.939   5.755   8.828 -1.2845 -1.2265 -0.4538
 9413SOL     OW38552   1.396   6.622   3.409 -0.4670  0.4903  0.2390
 9413SOL    HW138553   1.327   6.555   3.410 -0.4506  0.4740  0.6106
 9413SOL    HW238554   1.393   6.659   3.321  1.6049 -2.1401 -1.0706
 9414SOL     OW38555   4.715   6.452   1.675  0.1951 -0.4749  0.1170
 9414SOL    HW138556   4.811   6.453   1.675  0.1960 -0.2063  0.6517
 9414SOL    HW238557   4.691   6.440   1.767 -0.2773 -2.6590 -0.2351
 9415SOL     OW38558   1.032   7.080   4.746 -0.2309  0.6964 -0.5773
 9415SOL    HW138559   0.951   7.033   4.727 -0.2103  0.5763 -0.3638
 9415SOL    HW238560   1.045   7.137   4.670  0.7068 -0.9543 -1.7259
 9416SOL     OW38561   8.401   3.426   4.130  0.1690  0.7629 -0.1089
 9416SOL    HW138562   8.324   3.370   4.117  1.1034 -0.6979  0.3107
 9416SOL    HW238563   8.437   3.439   4.043  0.1665  0.3441 -0.1770
 9417SOL     OW38564  10.838   0.074   9.425  0.4472  0.7407  0.0702
 9417SOL    HW138565  10.807   0.122   9.501  0.2685  1.2207 -0.3043
 9417SOL    HW238566  10.870  -0.009   9.461  0.3392  0.9503  0.6618
 9418SOL     OW38567   7.702   3.721   2.111  0.0777 -0.2562  0.2198
 9418SOL    HW138568   7.780   3.666   2.101  0.9273  0.8897  0.3246
 9418SOL    HW238569   7.681   3.749   2.022  0.3834  0.2336  0.3011
 9419SOL     OW38570  12.170   0.184   5.474 -0.4042 -0.3181  0.2655
 9419SOL    HW138571  12.257   0.169   5.437 -1.0205  1.1397 -2.0003
 9419SOL    HW238572  12.112   0.131   5.420 -1.1737  0.6442  0.1191
 9420SOL     OW38573   7.307   1.679   7.782 -0.6386 -0.8270 -0.0691
 9420SOL    HW138574   7.378   1.736   7.810 -1.4695  1.3632 -1.9963
 9420SOL    HW238575   7.335   1.591   7.805  0.2246  0.3375  4.1772
 9421SOL     OW38576   5.274  12.179   8.642 -0.1711  0.0845  0.1726
 9421SOL    HW138577   5.255  12.148   8.553  0.7301  1.1186 -0.3985
 9421SOL    HW238578   5.231  12.115   8.699 -3.4004  1.0279 -0.9812
 9422SOL     OW38579   3.894   7.553   4.508 -0.4719 -0.3911 -0.5692
 9422SOL    HW138580   3.827   7.488   4.486  0.4063 -1.2369 -0.8676
 9422SOL    HW238581   3.976   7.503   4.504  0.1304  0.5198  0.1869
 9423SOL     OW38582   0.916  12.676   1.701 -0.3136  0.4679 -0.2145
 9423SOL    HW138583   0.919  12.756   1.648 -2.9136 -0.0453 -1.2869
 9423SOL    HW238584   0.849  12.622   1.659  1.0228 -2.1115  0.7461
 9424SOL     OW38585  11.562  12.223   8.092 -0.4629  0.5977 -0.5024
 9424SOL    HW138586  11.655  12.209   8.072 -0.3429 -0.5254  0.7049
 9424SOL    HW238587  11.542  12.157   8.158 -2.2563  0.5132 -1.0904
 9425SOL     OW38588   6.749   2.718   8.627 -0.0359 -0.0322 -0.4486
 9425SOL    HW138589   6.723   2.787   8.688  0.9365 -0.4194  0.4404
 9425SOL    HW238590   6.741   2.758   8.540 -0.8831  0.7168 -0.0396
 9426SOL     OW38591   9.933   5.078   5.392  0.2527 -0.4167 -0.0726
 9426SOL    HW138592   9.849   5.081   5.347 -1.4623  4.0640  2.7746
 9426SOL    HW238593   9.918   5.021   5.468 -0.4777  0.6977  0.6565
 9427SOL     OW38594   7.705   8.574   1.932 -0.1410  0.2153  0.0423
 9427SOL    HW138595   7.800   8.580   1.932 -0.1994  1.5444  0.1621
 9427SOL    HW238596   7.679   8.598   1.843 -0.3903  0.5141  0.1936
 9428SOL     OW38597  12.352  12.498   7.602  0.5086 -0.3876  0.0564
 9428SOL    HW138598  12.439  12.485   7.638  1.0303 -0.7444 -1.2931
 9428SOL    HW238599  12.358  12.582   7.555  0.2947 -0.6905 -0.5184
 9429SOL     OW38600  11.192   8.708   6.396  0.0160  0.5184  0.1050
 9429SOL    HW138601  11.178   8.785   6.340 -0.6302  1.2604  1.2579
 9429SOL    HW238602  11.182   8.741   6.485  0.4466 -0.7677  0.6502
 9430SOL     OW38603   7.678   2.305   8.256  0.0131 -0.2441  0.2762
 9430SOL    HW138604   7.773   2.318   8.259  0.5097 -2.3430 -2.0895
 9430SOL    HW238605   7.667   2.211   8.274 -1.7796  0.2042  1.7611
 9431SOL     OW38606   0.933   6.802   9.867 -0.5527  0.3787  0.0320
 9431SOL    HW138607   0.963   6.876   9.919 -0.4985 -0.8398  1.8472
 9431SOL    HW238608   0.856   6.834   9.820 -1.1708  1.3004  1.6059
 9432SOL     OW38609   8.048   3.277   7.372 -0.2356 -0.3371  0.1157
 9432SOL    HW138610   8.090   3.296   7.288 -1.0978 -0.2040 -0.2981
 9432SOL    HW238611   8.011   3.361   7.400 -2.6750 -0.9773 -0.9405
 9433SOL     OW38612   7.802   6.929   2.963  0.7417  0.4773 -0.1908
 9433SOL    HW138613   7.781   6.937   3.056 -0.4841  0.1308 -0.4209
 9433SOL    HW238614   7.872   6.863   2.959  0.3658  0.0375  0.4302
 9434SOL     OW38615   3.226   6.783   1.681 -0.2692  0.4557 -0.1592
 9434SOL    HW138616   3.195   6.833   1.757 -0.5175  1.1215 -0.6820
 9434SOL    HW238617   3.242   6.695   1.715  3.2975  1.5761  1.5979
 9435SOL     OW38618   5.650   9.095   4.836 -0.3469  0.0128 -0.5483
 9435SOL    HW138619   5.714   9.165   4.848  0.1656 -0.4212 -0.6922
 9435SOL    HW238620   5.606   9.088   4.920 -1.1295  1.2037 -0.8381
 9436SOL     OW38621  11.171   6.600   5.982  0.5114 -0.6366  0.1302
 9436SOL    HW138622  11.155   6.539   6.053  1.2927 -0.0021  0.8733
 9436SOL    HW238623  11.265   6.617   5.984 -0.0485  3.6527  2.6289
 9437SOL     OW38624   6.545   6.913   5.980  0.2483  0.0958 -0.4280
 9437SOL    HW138625   6.636   6.935   5.959  0.4963 -0.6043 -0.1434
 9437SOL    HW238626   6.552   6.832   6.032 -0.3930  1.3233  1.6812
 9438SOL     OW38627   8.567   0.461   2.297 -0.0845  0.3987 -0.0993
 9438SOL    HW138628   8.489   0.434   2.249 -0.0318 -0.3197  0.1980
 9438SOL    HW238629   8.602   0.379   2.333  0.9502  0.6668 -0.4474
 9439SOL     OW38630   0.320   2.125   9.265 -0.6897 -0.1454  0.0720
 9439SOL    HW138631   0.329   2.071   9.344 -1.1197  0.3070  0.4412
 9439SOL    HW238632   0.277   2.205   9.296 -0.3369  0.2830 -0.5174
 9440SOL     OW38633   8.019   9.660  12.963 -0.0446 -0.4852  1.2340
 9440SOL    HW138634   7.982   9.573  12.976  0.7124 -0.8964  0.6537
 9440SOL    HW238635   8.054   9.659  12.874 -0.5284  0.5966  1.0118
 9441SOL     OW38636   2.303   3.658  10.792  0.1478  0.2484 -0.3440
 9441SOL    HW138637   2.225   3.699  10.753 -0.0271  1.6937  1.3792
 9441SOL    HW238638   2.269   3.595  10.855  0.2174  2.3066  1.9056
 9442SOL     OW38639   5.922   1.574   9.818  0.4603  0.0404  0.1137
 9442SOL    HW138640   5.955   1.644   9.874  0.1755  2.2545 -2.2837
 9442SOL    HW238641   5.997   1.548   9.765 -0.1159  0.7598 -1.1118
 9443SOL     OW38642   4.353   3.658  10.942 -0.5508 -0.0324  0.0908
 9443SOL    HW138643   4.379   3.740  10.984  0.9122 -0.0932 -0.6361
 9443SOL    HW238644   4.329   3.600  11.015 -0.2019  0.5710  0.6908
 9444SOL     OW38645   1.012   2.033   6.083 -0.0996  0.6556 -0.2941
 9444SOL    HW138646   1.061   2.113   6.102 -1.7471  1.5447  0.3989
 9444SOL    HW238647   1.023   1.979   6.161 -0.5605  1.0460  0.0492
 9445SOL     OW38648   3.056   6.739  11.443  0.2876  0.2568  0.4251
 9445SOL    HW138649   3.051   6.734  11.539 -1.5374  1.1813  0.4253
 9445SOL    HW238650   3.003   6.666  11.413  0.5055  0.2229  0.1249
 9446SOL     OW38651   9.933   1.923   8.004 -0.1457 -0.3416  0.5077
 9446SOL    HW138652   9.849   1.967   7.995  0.2180  0.3163  0.2588
 9446SOL    HW238653   9.911   1.833   8.027 -0.9242 -0.3338 -0.1997
 9447SOL     OW38654   3.297   6.360   0.580  0.4641 -0.2527 -0.6778
 9447SOL    HW138655   3.304   6.378   0.486  0.5245 -1.4187 -0.9062
 9447SOL    HW238656   3.346   6.431   0.621  0.2539  0.3954 -1.5085
 9448SOL     OW38657  11.892   8.934   9.999  0.0079  0.2750 -0.2142
 9448SOL    HW138658  11.812   8.885   9.981  0.0527  0.8846 -2.4605
 9448SOL    HW238659  11.889   8.953  10.092 -1.8334 -0.7862 -0.0138
 9449SOL     OW38660   4.358   9.738  10.892 -0.1990 -0.4194  0.3639
 9449SOL    HW138661   4.331   9.646  10.885 -0.0776 -0.4704  0.5893
 9449SOL    HW238662   4.289   9.779  10.944  0.1208 -0.5363  0.8805
 9450SOL     OW38663   1.899  12.712   9.597 -0.1431  0.0622 -0.1335
 9450SOL    HW138664   1.962  12.677   9.660  0.1846 -0.0263 -0.5064
 9450SOL    HW238665   1.814  12.703   9.641  0.0529 -0.2412  0.1899
 9451SOL     OW38666   7.265  11.740   9.101  0.2662 -0.1647  0.4156
 9451SOL    HW138667   7.287  11.647   9.093 -0.2290 -0.3328  0.9430
 9451SOL    HW238668   7.279  11.775   9.013  1.7535 -0.4373  0.5062
 9452SOL     OW38669   9.151   8.465   1.953 -0.6860  0.0293  0.0387
 9452SOL    HW138670   9.063   8.497   1.933 -0.3098  1.0634 -0.0104
 9452SOL    HW238671   9.167   8.494   2.043  0.5224  2.0323 -0.7411
 9453SOL     OW38672   8.241   4.192  11.720 -0.0893  0.4468 -0.0457
 9453SOL    HW138673   8.301   4.226  11.787  0.1486  0.7136 -0.3900
 9453SOL    HW238674   8.155   4.224  11.747 -0.1575 -0.3570  0.7271
 9454SOL     OW38675   8.466   9.619  12.304 -0.0544 -0.4865 -0.0466
 9454SOL    HW138676   8.510   9.687  12.356  0.1799 -1.5378  1.1894
 9454SOL    HW238677   8.382   9.606  12.348 -1.0363  0.4831 -1.5495
 9455SOL     OW38678   8.661   3.896   3.713 -0.1344  0.2585 -0.3190
 9455SOL    HW138679   8.600   3.868   3.781 -1.9263  5.2847  0.5216
 9455SOL    HW238680   8.608   3.902   3.633  0.9012 -1.2874 -1.1923
 9456SOL     OW38681   8.685  10.953   5.594  0.3104 -0.0280 -0.2230
 9456SOL    HW138682   8.772  10.915   5.581  0.0306 -0.1979 -1.7659
 9456SOL    HW238683   8.645  10.898   5.662  0.3885 -1.7448 -1.4902
 9457SOL     OW38684   5.681   4.126   9.651 -0.5122 -0.7078  0.3307
 9457SOL    HW138685   5.764   4.166   9.678 -0.9506  2.4159 -2.2908
 9457SOL    HW238686   5.614   4.182   9.690 -1.3259 -1.7393  0.4259
 9458SOL     OW38687   2.026  11.638   5.662 -0.2065  0.1050  0.1474
 9458SOL    HW138688   2.045  11.654   5.569 -0.4912  0.7039  0.1827
 9458SOL    HW238689   2.101  11.588   5.694  0.3515  0.7136 -0.1824
 9459SOL     OW38690   2.378   7.738   5.040  0.4146  0.9192 -0.7039
 9459SOL    HW138691   2.299   7.695   5.006  1.0435  0.5303 -1.7181
 9459SOL    HW238692   2.393   7.696   5.125  0.2040  0.1313 -1.0424
 9460SOL     OW38693   6.254   0.129   1.739 -0.5066 -0.4333 -0.0514
 9460SOL    HW138694   6.262   0.219   1.707 -0.2423 -1.4951 -3.3425
 9460SOL    HW238695   6.163   0.106   1.720 -0.8402 -0.6324  1.6370
 9461SOL     OW38696   0.390  12.292  10.420 -0.2399 -0.1645  0.9401
 9461SOL    HW138697   0.417  12.347  10.494 -2.5698  0.4741  1.4105
 9461SOL    HW238698   0.320  12.237  10.455 -1.2752  0.0228 -0.7237
 9462SOL     OW38699  12.411   7.287  11.453 -0.7358 -0.1265  0.4610
 9462SOL    HW138700  12.410   7.209  11.509 -1.9257  0.0857  0.7546
 9462SOL    HW238701  12.370   7.259  11.372  0.1996 -0.1948 -0.0032
 9463SOL     OW38702   6.840   4.723   2.903 -0.0494 -0.6511 -0.4786
 9463SOL    HW138703   6.803   4.710   2.990  0.7809 -0.3512 -0.0639
 9463SOL    HW238704   6.789   4.795   2.866  0.4185  0.0896  0.2730
 9464SOL     OW38705   9.307   2.487   8.352 -0.1108  0.0571 -0.0168
 9464SOL    HW138706   9.300   2.533   8.436 -0.2989  0.8952 -0.4750
 9464SOL    HW238707   9.226   2.508   8.307  1.0370  1.7685 -1.4368
 9465SOL     OW38708   3.980   8.054   7.773  0.7465  0.2054 -0.9735
 9465SOL    HW138709   4.049   8.073   7.710  0.7992 -1.2416 -1.3958
 9465SOL    HW238710   4.018   7.987   7.830 -0.0354 -0.0375 -0.7270
 9466SOL     OW38711   2.312   0.910  11.069 -0.6160  0.0045 -0.0240
 9466SOL    HW138712   2.247   0.915  11.139  0.9027  1.2647  1.3755
 9466SOL    HW238713   2.372   0.983  11.087  1.0828 -0.9964 -1.3640
 9467SOL     OW38714  12.283  12.687   4.212  0.3092  0.1510  0.3800
 9467SOL    HW138715  12.195  12.718   4.236  0.1204 -0.5962  0.6979
 9467SOL    HW238716  12.278  12.592   4.221  0.4053 -0.1501 -2.1298
 9468SOL     OW38717   1.763   8.011   0.882  0.4841  0.1304 -0.7268
 9468SOL    HW138718   1.680   7.965   0.863  0.7220 -0.4090 -0.4903
 9468SOL    HW238719   1.806   8.019   0.797 -0.0516  0.8970 -0.9330
 9469SOL     OW38720   1.432   8.231   5.886 -0.6163  0.2257 -0.2495
 9469SOL    HW138721   1.427   8.167   5.957  0.8051 -0.8401 -1.0457
 9469SOL    HW238722   1.349   8.222   5.839 -1.6502  1.0765  1.3311
 9470SOL     OW38723  11.843  11.031   7.411 -0.1361  0.2129 -0.5468
 9470SOL    HW138724  11.800  11.106   7.370  1.0461  0.4514 -1.4101
 9470SOL    HW238725  11.936  11.053   7.409  0.1203 -0.7317  0.3343
 9471SOL     OW38726   2.044   6.727  10.142 -0.3992  0.8006 -0.1154
 9471SOL    HW138727   1.983   6.800  10.135  0.0692  1.0887 -1.5924
 9471SOL    HW238728   2.118   6.762  10.190 -0.2896  1.2341 -0.5885
 9472SOL     OW38729   3.357   9.863   6.651 -0.0081  0.0530 -0.0279
 9472SOL    HW138730   3.390   9.858   6.740 -1.5730 -1.1646  0.5488
 9472SOL    HW238731   3.418   9.810   6.599  2.3082  2.7282 -0.2308
 9473SOL     OW38732   6.526  11.587   4.984 -0.0894 -0.8851  0.1010
 9473SOL    HW138733   6.604  11.546   4.946  0.9785 -0.0143  1.2737
 9473SOL    HW238734   6.466  11.597   4.910  1.8354  0.6293 -1.3636
 9474SOL     OW38735  10.314   1.750   0.367 -0.0378  0.2698 -0.1107
 9474SOL    HW138736  10.274   1.748   0.454 -0.6709 -1.6180 -0.3870
 9474SOL    HW238737  10.245   1.785   0.310 -0.8456 -1.5720 -0.3414
 9475SOL     OW38738  10.801   8.665   8.359  0.1817  0.3231 -0.2357
 9475SOL    HW138739  10.761   8.579   8.374 -1.1201  0.8019 -0.8418
 9475SOL    HW238740  10.837   8.659   8.270  1.2118  0.0085  0.1823
 9476SOL     OW38741   1.633   3.335   9.086  0.3797  0.1572 -0.2834
 9476SOL    HW138742   1.684   3.297   9.157  0.9876 -0.1281 -0.8549
 9476SOL    HW238743   1.665   3.291   9.007 -0.6784  0.0619 -0.6766
 9477SOL     OW38744   2.392   1.018   6.681  0.1724  0.4201 -0.0348
 9477SOL    HW138745   2.405   0.923   6.688 -1.3644  0.0279 -1.6734
 9477SOL    HW238746   2.353   1.043   6.765 -0.4797 -0.6354  0.0064
 9478SOL     OW38747   9.369   6.567   3.987  0.2598 -0.0842 -0.8467
 9478SOL    HW138748   9.389   6.551   3.895 -0.5576 -2.0181 -0.7205
 9478SOL    HW238749   9.361   6.480   4.026 -0.2467  0.6888  0.8707
 9479SOL     OW38750   7.431   4.693   2.536 -0.9307  0.8195  0.4635
 9479SOL    HW138751   7.467   4.610   2.567 -1.3418  0.1555 -0.7719
 9479SOL    HW238752   7.430   4.749   2.614 -0.3435 -0.2142  1.2470
 9480SOL     OW38753   3.099   0.410   4.083  0.1911  0.2204  0.0101
 9480SOL    HW138754   3.110   0.504   4.091  0.3010  0.4772 -2.5622
 9480SOL    HW238755   3.018   0.398   4.035 -1.6970 -1.1966  3.1858
 9481SOL     OW38756   7.766  10.919  11.575  0.1197 -0.2139 -0.5362
 9481SOL    HW138757   7.701  10.864  11.530 -0.1662 -0.3096 -0.0047
 9481SOL    HW238758   7.755  10.898  11.667  1.2210 -0.5762 -0.4736
 9482SOL     OW38759   9.052   3.090   0.808  0.5047  0.6114  0.0921
 9482SOL    HW138760   9.017   3.015   0.856 -0.0768  0.5295 -0.4449
 9482SOL    HW238761   9.076   3.153   0.876  0.7379  0.0525  0.5344
 9483SOL     OW38762  11.898   8.043   1.542 -0.4231  0.3285  0.3115
 9483SOL    HW138763  11.952   8.044   1.463  0.1884  0.1161  0.7175
 9483SOL    HW238764  11.939   8.108   1.600  0.9746 -1.5740  1.6160
 9484SOL     OW38765  11.867   7.547   0.656 -0.3329  0.1188  0.4519
 9484SOL    HW138766  11.865   7.544   0.561 -0.7519  2.0124  0.3598
 9484SOL    HW238767  11.781   7.513   0.683 -0.7268  0.8207  0.0934
 9485SOL     OW38768   3.636   2.631  12.006 -0.6021  0.0112 -0.3687
 9485SOL    HW138769   3.558   2.579  12.025  0.8955 -2.7779 -1.1694
 9485SOL    HW238770   3.657   2.610  11.915  0.7667  1.0738 -0.3366
 9486SOL     OW38771   4.963   9.808   4.746 -0.7875  0.0354  0.0601
 9486SOL    HW138772   5.021   9.733   4.740 -2.0982 -1.0516  0.3740
 9486SOL    HW238773   4.876   9.773   4.726 -1.8196  0.9561  2.4806
 9487SOL     OW38774   8.967   6.546   1.757  0.0710 -0.9253  0.0587
 9487SOL    HW138775   8.941   6.481   1.692 -0.2907 -0.7885  0.0625
 9487SOL    HW238776   8.967   6.629   1.709  1.2996 -1.0241 -0.1437
 9488SOL     OW38777   7.684  10.132   3.071 -0.2207  0.0678  0.3892
 9488SOL    HW138778   7.774  10.136   3.039  0.3863  2.4856  2.1337
 9488SOL    HW238779   7.692  10.140   3.166 -2.3340  2.8636  0.4542
 9489SOL     OW38780  10.321   6.200   1.614  0.1334  0.1501 -0.5532
 9489SOL    HW138781  10.341   6.135   1.547 -0.3350 -1.3707  0.7291
 9489SOL    HW238782  10.392   6.191   1.678 -0.7256 -0.1795  0.3837
 9490SOL     OW38783   8.620   6.993   8.715  0.3748 -0.7464 -0.3829
 9490SOL    HW138784   8.593   6.952   8.632  2.4049 -1.8281 -0.5769
 9490SOL    HW238785   8.651   7.080   8.690 -1.6823  0.0763 -0.3042
 9491SOL     OW38786  11.919  10.086   7.292  0.4256  0.0543  0.6066
 9491SOL    HW138787  11.925  10.078   7.387  1.4250  0.5243  0.5936
 9491SOL    HW238788  11.945  10.177   7.274  1.6092 -0.4254 -0.2151
 9492SOL     OW38789   6.622   2.201   5.059 -0.3371 -0.2312  0.0369
 9492SOL    HW138790   6.576   2.181   5.140 -0.6929 -0.3501 -0.1947
 9492SOL    HW238791   6.677   2.276   5.081  0.4005 -0.9403  0.6937
 9493SOL     OW38792   9.606   2.368   2.720 -0.5041  0.0087 -0.1077
 9493SOL    HW138793   9.549   2.368   2.644 -0.0274 -2.3252 -0.5390
 9493SOL    HW238794   9.589   2.284   2.763  1.2020  0.0929  0.8194
 9494SOL     OW38795   7.629   8.478   6.469 -0.4513  0.3703  0.0712
 9494SOL    HW138796   7.700   8.479   6.532  0.9962 -0.3279 -1.4605
 9494SOL    HW238797   7.581   8.397   6.487  1.8016 -1.4992 -1.5327
 9495SOL     OW38798   0.301   9.490   2.621 -0.3201 -0.0272  0.2087
 9495SOL    HW138799   0.260   9.480   2.534  1.5891  1.0560 -0.8815
 9495SOL    HW238800   0.366   9.420   2.625 -0.6393 -0.2871  0.9250
 9496SOL     OW38801  10.258   0.283   4.084  0.1712  0.5512 -0.2108
 9496SOL    HW138802  10.314   0.277   4.007 -1.2178  1.0507 -1.3078
 9496SOL    HW238803  10.274   0.202   4.133  0.4955 -0.1464 -1.4390
 9497SOL     OW38804  11.582   9.029   9.290 -0.1358  0.2704 -0.2511
 9497SOL    HW138805  11.625   9.114   9.297 -0.7212  0.4957  0.8374
 9497SOL    HW238806  11.647   8.973   9.247  0.7156  0.9639  0.0984
 9498SOL     OW38807   0.928   0.824   0.926 -0.1965  0.0583 -0.2289
 9498SOL    HW138808   0.859   0.759   0.913  0.5008 -0.7163 -0.0863
 9498SOL    HW238809   1.006   0.773   0.946  0.2313  0.9604  0.4645
 9499SOL     OW38810   1.216   0.073   2.729  0.2530  0.1539 -1.0292
 9499SOL    HW138811   1.243   0.110   2.813  0.6676 -1.0154 -0.6256
 9499SOL    HW238812   1.127   0.041   2.744  1.0078 -1.7678 -0.4453
 9500SOL     OW38813   0.343   6.743   8.575 -0.6906  0.5164  0.4017
 9500SOL    HW138814   0.425   6.702   8.548 -1.4306 -0.7101 -0.0316
 9500SOL    HW238815   0.319   6.696   8.655 -0.2487  1.8573  1.3653
 9501SOL     OW38816   1.519   6.000  11.601  0.1526 -0.0083  0.8951
 9501SOL    HW138817   1.430   6.002  11.565  0.0018  1.0378  1.2912
 9501SOL    HW238818   1.511   5.947  11.680  0.2173 -1.2124  0.1276
 9502SOL     OW38819   1.964  10.164   9.716  0.2325 -0.2251 -0.0145
 9502SOL    HW138820   2.029  10.160   9.785  0.0507 -0.4520  0.1443
 9502SOL    HW238821   1.890  10.113   9.749 -0.3958  0.7884  0.1943
 9503SOL     OW38822  10.323   3.908   0.474  0.5318  0.1655 -0.0634
 9503SOL    HW138823  10.321   3.823   0.429  1.7736  1.2848 -2.3549
 9503SOL    HW238824  10.302   3.972   0.407 -2.6992  1.6459  2.0686
 9504SOL     OW38825   0.208   0.692   1.434 -0.2549 -0.2640 -0.1744
 9504SOL    HW138826   0.199   0.732   1.347  2.8481  1.2331  0.0305
 9504SOL    HW238827   0.150   0.743   1.490  1.7602  2.5076 -0.4227
 9505SOL     OW38828  11.387  12.267   7.827 -0.0405 -0.2424 -0.0035
 9505SOL    HW138829  11.447  12.257   7.901 -1.5466 -0.1144  1.2801
 9505SOL    HW238830  11.303  12.234   7.859 -0.9957  0.8240 -1.2913
 9506SOL     OW38831   5.000   2.751  12.932 -0.1398 -0.0711  0.1059
 9506SOL    HW138832   5.075   2.810  12.920 -1.9124  2.2632 -0.2161
 9506SOL    HW238833   4.949   2.760  12.852 -1.4643 -0.5401  0.8665
 9507SOL     OW38834   5.969   6.521   1.878  0.5508 -0.1141  0.1331
 9507SOL    HW138835   6.037   6.559   1.821  0.1635  1.2094  0.5256
 9507SOL    HW238836   5.896   6.502   1.819  0.9038 -0.6762 -0.1354
 9508SOL     OW38837   2.682   7.767   3.654  0.0684 -0.1350  0.0810
 9508SOL    HW138838   2.714   7.814   3.578 -1.4981 -1.1926 -1.3188
 9508SOL    HW238839   2.726   7.682   3.651 -2.6445 -1.6393 -1.9159
 9509SOL     OW38840   2.270  12.549   1.022 -0.4582  0.4378  0.3248
 9509SOL    HW138841   2.248  12.631   0.977  2.3812 -0.2165 -2.5974
 9509SOL    HW238842   2.221  12.482   0.975 -1.3706  0.1877  1.5654
 9510SOL     OW38843   0.144   0.846   0.123 -0.0416  0.3234  0.2664
 9510SOL    HW138844   0.087   0.893   0.063 -0.0731  1.1709  0.9469
 9510SOL    HW238845   0.227   0.894   0.119 -0.3430  1.0039  1.6314
 9511SOL     OW38846   0.566   4.866  10.809  0.5070  0.1107 -0.7687
 9511SOL    HW138847   0.481   4.853  10.849  1.4569 -1.2724  0.9298
 9511SOL    HW238848   0.576   4.962  10.805  0.7428  0.4625  3.4369
 9512SOL     OW38849   4.285  10.908   2.529  0.0621 -0.4091 -0.1539
 9512SOL    HW138850   4.329  10.909   2.444  0.2210  1.2351 -0.0818
 9512SOL    HW238851   4.331  10.973   2.581 -0.9043 -0.4158  0.7474
 9513SOL     OW38852   3.467  12.882   0.645  0.6633  0.1978 -0.1834
 9513SOL    HW138853   3.515  12.848   0.570  0.8888 -0.9981  0.4762
 9513SOL    HW238854   3.492  12.825   0.718 -0.3555  0.6731  0.5739
 9514SOL     OW38855  10.352   3.731  10.750  0.3755  0.5476  0.7567
 9514SOL    HW138856  10.437   3.705  10.785  1.0249  1.5479  0.0056
 9514SOL    HW238857  10.348   3.692  10.663 -1.0796 -1.6352  1.7127
 9515SOL     OW38858   4.179  11.165   9.690  0.4916 -0.4752 -0.4692
 9515SOL    HW138859   4.237  11.182   9.615  1.0491 -1.5084 -0.2902
 9515SOL    HW238860   4.202  11.232   9.754 -2.2843  2.6193 -2.3968
 9516SOL     OW38861   0.931   5.221   4.662 -0.2115 -0.1131 -0.0237
 9516SOL    HW138862   0.868   5.279   4.705 -2.1361 -1.4823 -0.8506
 9516SOL    HW238863   0.981   5.183   4.733 -2.5038 -1.3966  1.0107
 9517SOL     OW38864   8.890   1.047   3.573 -0.0096  0.7098  0.1422
 9517SOL    HW138865   8.952   0.993   3.622  3.2484  1.5414 -2.6663
 9517SOL    HW238866   8.872   1.121   3.630 -0.3026 -0.6835  1.9317
 9518SOL     OW38867  11.823   0.686   9.089  0.1088 -0.3946 -0.4379
 9518SOL    HW138868  11.815   0.625   9.016  0.3356 -0.8980 -0.0448
 9518SOL    HW238869  11.746   0.743   9.081  0.1079 -0.4705 -1.0402
 9519SOL     OW38870   5.629   4.311   6.121  0.0540  0.5773  0.3612
 9519SOL    HW138871   5.536   4.292   6.107  0.5859 -0.9580 -1.4715
 9519SOL    HW238872   5.630   4.399   6.159 -2.1201  0.7918  0.0467
 9520SOL     OW38873   0.131  11.522   1.209 -0.6934  1.0598  0.6466
 9520SOL    HW138874   0.127  11.538   1.115  0.8107  0.9905  0.5538
 9520SOL    HW238875   0.040  11.510   1.235 -1.1151  0.9366 -0.8170
 9521SOL     OW38876   4.685   6.956   1.515 -0.1530  0.3922 -0.1209
 9521SOL    HW138877   4.610   6.979   1.570  1.3427  0.7273  1.8866
 9521SOL    HW238878   4.686   6.861   1.514  1.8760  0.1601  3.7232
 9522SOL     OW38879   0.835   0.091  12.350  0.4967 -0.0063  0.1928
 9522SOL    HW138880   0.797   0.003  12.339  0.1651  0.0313  0.9941
 9522SOL    HW238881   0.909   0.092  12.289  0.5305 -0.8574  0.2030
 9523SOL     OW38882   7.913   8.193   2.994  0.1328 -0.4547  0.4126
 9523SOL    HW138883   7.819   8.199   2.975 -0.4121  0.7186  3.0441
 9523SOL    HW238884   7.937   8.281   3.024  1.7544 -1.0897  1.0818
 9524SOL     OW38885   0.607  10.752   0.690 -0.0414 -0.1771  1.1487
 9524SOL    HW138886   0.646  10.665   0.680  1.9455  0.5609  1.9920
 9524SOL    HW238887   0.534  10.738   0.750 -0.1801 -1.3597  0.7428
 9525SOL     OW38888   3.882   4.350   4.921 -0.0712 -0.1797  0.1937
 9525SOL    HW138889   3.787   4.339   4.917 -0.3993  2.0637  0.4835
 9525SOL    HW238890   3.913   4.274   4.971 -1.7331 -0.8581  0.2377
 9526SOL     OW38891   2.331   1.365   9.392  0.0264  0.5729 -0.4487
 9526SOL    HW138892   2.255   1.387   9.446  1.6704  3.1264  1.0647
 9526SOL    HW238893   2.390   1.318   9.451  0.1894 -0.2466 -1.2406
 9527SOL     OW38894   1.020   6.723  12.046 -0.3873 -0.1247  0.5615
 9527SOL    HW138895   0.938   6.771  12.036  0.1552  0.5372 -0.8999
 9527SOL    HW238896   1.070   6.774  12.110 -0.5829  0.1934  0.4606
 9528SOL     OW38897   9.954   0.917   2.478  0.1412  0.3022 -0.1571
 9528SOL    HW138898   9.871   0.886   2.512  0.5369  0.8039  1.3106
 9528SOL    HW238899   9.942   1.011   2.464  0.3292  0.3025 -0.3323
 9529SOL     OW38900   5.217  10.450   1.859  0.1578 -0.0695 -0.1343
 9529SOL    HW138901   5.240  10.541   1.877 -1.4134  0.3279  0.0417
 9529SOL    HW238902   5.179  10.418   1.942  0.2606 -0.7351 -0.3370
 9530SOL     OW38903   8.023   9.686   2.279  0.1541 -0.0043  0.0868
 9530SOL    HW138904   8.067   9.698   2.195 -1.5747  0.4337 -0.8106
 9530SOL    HW238905   7.962   9.613   2.263 -0.7358  0.5841  0.7076
 9531SOL     OW38906   8.120   8.771   7.029  0.0256  0.0155 -0.0575
 9531SOL    HW138907   8.106   8.756   6.936  1.1284  0.7456 -0.3682
 9531SOL    HW238908   8.206   8.814   7.034  0.7714 -1.5222  1.4248
 9532SOL     OW38909  10.134   3.977   5.027  0.2492 -0.2158  0.0742
 9532SOL    HW138910  10.108   4.038   4.957  1.5188  0.8103  0.4525
 9532SOL    HW238911  10.056   3.923   5.041 -1.8496  2.8573  1.3578
 9533SOL     OW38912   3.261   0.419   8.111  0.1649 -0.4253  0.0188
 9533SOL    HW138913   3.254   0.324   8.117 -1.5858 -0.2520  1.7918
 9533SOL    HW238914   3.288   0.446   8.199 -0.7834  0.8092 -0.0464
 9534SOL     OW38915  12.229   3.333  10.666 -0.3896 -0.1177 -0.3623
 9534SOL    HW138916  12.202   3.412  10.619  0.3431 -0.4792 -1.4249
 9534SOL    HW238917  12.180   3.263  10.624 -0.7976 -0.2842  0.3713
 9535SOL     OW38918   5.000   1.302   1.898  0.0578 -0.0230  0.4241
 9535SOL    HW138919   5.036   1.263   1.978 -0.0164 -1.2112 -0.0970
 9535SOL    HW238920   4.998   1.396   1.916  1.2366 -0.1484  1.3355
 9536SOL     OW38921   4.502   1.893   9.215  0.2534  0.3738 -0.0331
 9536SOL    HW138922   4.454   1.883   9.298 -0.4380 -0.9141 -0.5495
 9536SOL    HW238923   4.519   1.803   9.187  0.9318  0.8030 -1.0438
 9537SOL     OW38924   0.115   5.950   6.348 -0.2275 -0.0642 -0.5165
 9537SOL    HW138925   0.072   5.992   6.423  0.7228  1.1219 -0.5971
 9537SOL    HW238926   0.073   5.865   6.340 -1.2417  0.3148  0.5599
 9538SOL     OW38927   6.748   4.645   5.900 -0.2639 -0.2963 -0.2424
 9538SOL    HW138928   6.729   4.553   5.920 -1.1083 -0.1601 -0.3844
 9538SOL    HW238929   6.767   4.646   5.806 -1.4861 -0.1529 -0.5069
 9539SOL     OW38930  12.820   3.095  12.658  0.0545  0.2279  0.1744
 9539SOL    HW138931  12.850   3.179  12.694  0.0729  0.6551 -0.8141
 9539SOL    HW238932  12.844   3.098  12.566  0.2201 -0.9524  0.1592
 9540SOL     OW38933   9.752   7.532   3.598 -0.3034  0.0533 -0.3700
 9540SOL    HW138934   9.803   7.489   3.666 -0.1347  1.0925  0.1750
 9540SOL    HW238935   9.788   7.620   3.592 -1.3380  0.4714 -0.7135
 9541SOL     OW38936  11.579   8.300   8.322 -0.3295 -0.0005 -0.1381
 9541SOL    HW138937  11.601   8.340   8.407  0.4859  2.6352 -1.4575
 9541SOL    HW238938  11.547   8.213   8.344 -1.0007  0.8884  2.9424
 9542SOL     OW38939   1.235   3.223  12.559 -0.1150  0.2483 -0.2837
 9542SOL    HW138940   1.143   3.216  12.583 -0.0022 -0.5817 -0.0651
 9542SOL    HW238941   1.253   3.318  12.560 -0.7161  0.3648  0.6204
 9543SOL     OW38942  10.278   3.838  11.092 -0.2527  0.5308  0.2825
 9543SOL    HW138943  10.307   3.747  11.103  1.7827  1.2223  1.1325
 9543SOL    HW238944  10.256   3.867  11.180 -0.4917  0.9885  0.0741
 9544SOL     OW38945   9.762   9.151   2.461 -0.1258 -0.3610  0.3731
 9544SOL    HW138946   9.797   9.134   2.373  0.3682 -0.1346  0.5213
 9544SOL    HW238947   9.668   9.134   2.453 -0.1444  0.0164 -0.2934
 9545SOL     OW38948   4.747  10.403   7.197  0.6163  0.0763  0.4451
 9545SOL    HW138949   4.822  10.377   7.249  0.8043 -1.0079 -0.3132
 9545SOL    HW238950   4.774  10.388   7.106 -0.5787 -0.5727  0.1682
 9546SOL     OW38951   3.978  12.301   7.492  0.0818 -0.6597 -0.2974
 9546SOL    HW138952   3.981  12.205   7.488  0.2647 -0.6595 -0.1669
 9546SOL    HW238953   4.038  12.324   7.563 -0.4524 -0.4797  0.1055
 9547SOL     OW38954   3.662   3.322   7.917 -0.1887  1.0454  0.0800
 9547SOL    HW138955   3.726   3.310   7.847  0.1089 -1.5483  0.7290
 9547SOL    HW238956   3.707   3.378   7.981  1.5869 -0.9223  0.6408
 9548SOL     OW38957  11.036   8.178   5.165 -0.0049 -0.2760  0.4563
 9548SOL    HW138958  11.017   8.160   5.257 -1.2648  0.3307  0.3280
 9548SOL    HW238959  11.035   8.092   5.124  0.9256 -0.5903  1.0616
 9549SOL     OW38960  11.225   7.046   9.788 -0.1624 -0.2028 -0.5764
 9549SOL    HW138961  11.207   6.977   9.725  1.8098  0.1915 -1.6208
 9549SOL    HW238962  11.173   7.120   9.758  1.0465  0.1008 -2.0105
 9550SOL     OW38963   2.381  11.376   3.962 -1.0503  0.4648  0.2325
 9550SOL    HW138964   2.315  11.309   3.946 -0.2559 -0.4911  0.7978
 9550SOL    HW238965   2.463  11.336   3.934 -0.5361  1.1541  0.6995
 9551SOL     OW38966   3.955   1.488   7.236 -0.1013 -0.0385  0.0650
 9551SOL    HW138967   4.002   1.558   7.281 -0.3630  0.0878  0.1464
 9551SOL    HW238968   3.868   1.488   7.276  0.1017 -0.8612  0.5297
 9552SOL     OW38969   1.282  11.569   9.698 -0.8016  0.5286  0.6058
 9552SOL    HW138970   1.268  11.478   9.672 -2.1775  1.0770 -0.7468
 9552SOL    HW238971   1.214  11.586   9.763 -2.9607  1.5449 -1.7518
 9553SOL     OW38972   3.613  12.206  12.457 -0.2531 -0.4313  0.1363
 9553SOL    HW138973   3.538  12.183  12.512  0.3427 -0.7432  0.8518
 9553SOL    HW238974   3.596  12.162  12.374 -0.7882 -0.6274  0.3442
 9554SOL     OW38975   0.673   3.080   5.376  0.7050 -0.3691 -0.3231
 9554SOL    HW138976   0.616   3.007   5.400 -0.2079  0.5731  0.5041
 9554SOL    HW238977   0.612   3.149   5.347  1.6356 -0.6730 -3.3362
 9555SOL     OW38978   9.814   2.474  11.508  0.7890 -0.3441  0.4179
 9555SOL    HW138979   9.836   2.545  11.568  2.3455 -1.1429  0.8374
 9555SOL    HW238980   9.798   2.398  11.564 -0.7894 -0.3802 -0.0325
 9556SOL     OW38981  12.671   6.776   6.764  0.1661  0.2325 -0.0598
 9556SOL    HW138982  12.764   6.797   6.768  0.4910 -1.0125 -0.5689
 9556SOL    HW238983  12.661   6.729   6.681 -0.7349 -0.4252  0.4029
 9557SOL     OW38984   0.344   2.085  11.366 -0.0107 -0.1766 -0.6393
 9557SOL    HW138985   0.360   2.090  11.272  1.4690 -0.3364 -0.4194
 9557SOL    HW238986   0.273   2.147  11.382 -0.1826 -0.0508 -1.8401
 9558SOL     OW38987  10.946   8.326   1.713  0.7028 -0.1968  0.0871
 9558SOL    HW138988  11.028   8.376   1.715  0.4732  0.1865 -0.1935
 9558SOL    HW238989  10.893   8.364   1.783 -0.1808  1.1695 -1.2801
 9559SOL     OW38990   7.576  11.067   1.667 -0.2444  0.2777 -0.0863
 9559SOL    HW138991   7.487  11.035   1.654  0.2022 -0.9014 -0.4283
 9559SOL    HW238992   7.626  10.989   1.690  0.7176  0.9142  0.0492
 9560SOL     OW38993   8.726   2.591   6.956 -0.5016 -0.1792  0.0721
 9560SOL    HW138994   8.757   2.645   6.883  0.3144  1.6256  1.6566
 9560SOL    HW238995   8.691   2.512   6.914 -0.2154  0.8344 -2.2578
 9561SOL     OW38996   4.571  11.803  12.382 -0.3333 -0.0293  0.9432
 9561SOL    HW138997   4.503  11.773  12.444 -0.9552 -0.3959  0.1023
 9561SOL    HW238998   4.531  11.877  12.337  0.4581  0.8111  1.6003
 9562SOL     OW38999   1.268  11.163  11.811 -0.5055  0.4471 -0.3571
 9562SOL    HW139000   1.174  11.153  11.796 -0.7296  1.4227  0.3053
 9562SOL    HW239001   1.296  11.227  11.746 -0.3591  0.4043 -0.3363
 9563SOL     OW39002   5.769  10.665   7.106  0.2882 -0.1122  0.2870
 9563SOL    HW139003   5.837  10.701   7.049  2.8610  0.7029  3.5470
 9563SOL    HW239004   5.725  10.742   7.143 -0.7318 -0.5877  0.0808
 9564SOL     OW39005   1.712   6.251   8.596 -0.5549  0.4648  0.0586
 9564SOL    HW139006   1.794   6.205   8.614 -1.4594 -1.5237 -0.5658
 9564SOL    HW239007   1.663   6.246   8.678 -1.4657 -1.6053 -0.5251
 9565SOL     OW39008   1.666   1.664   6.829  0.0340 -0.0715  0.0016
 9565SOL    HW139009   1.615   1.744   6.841 -0.2296 -0.1039 -0.8132
 9565SOL    HW239010   1.643   1.610   6.904  0.6223  0.8211  0.8427
 9566SOL     OW39011   8.429  11.022   7.214  0.0271 -0.4963 -0.1866
 9566SOL    HW139012   8.470  10.955   7.159  0.7571 -0.6814  0.5622
 9566SOL    HW239013   8.367  11.066   7.156  1.5077 -0.0036 -1.4450
 9567SOL     OW39014   4.669   8.630   0.257 -0.3156  0.0980  0.1009
 9567SOL    HW139015   4.668   8.717   0.296  0.1119 -1.1849  3.2427
 9567SOL    HW239016   4.755   8.623   0.217  0.0944  0.7011  0.8522
 9568SOL     OW39017  12.500   9.409   2.890  0.4584  0.3267  0.0409
 9568SOL    HW139018  12.433   9.348   2.922  0.9350  0.0183  0.4825
 9568SOL    HW239019  12.452   9.485   2.861 -0.2807 -0.7797 -1.7763
 9569SOL     OW39020  11.023   4.823   1.441  0.1186  0.0658 -0.1232
 9569SOL    HW139021  11.110   4.838   1.477  0.2796  0.2539 -0.5840
 9569SOL    HW239022  10.966   4.882   1.491  0.1363 -0.5386  0.6397
 9570SOL     OW39023  12.435   6.766   2.823 -0.1072 -0.8752  0.0917
 9570SOL    HW139024  12.435   6.820   2.902 -0.4333  0.1890 -0.6174
 9570SOL    HW239025  12.454   6.677   2.855 -0.6388 -0.5418  1.4008
 9571SOL     OW39026   8.467  11.989   3.898 -0.6727  0.2976 -0.0309
 9571SOL    HW139027   8.417  11.916   3.935 -2.8427  1.0462 -1.3644
 9571SOL    HW239028   8.494  11.958   3.812 -0.4749  0.6122 -0.0826
 9572SOL     OW39029   1.320   0.452   2.257 -0.3264  0.3286  0.2136
 9572SOL    HW139030   1.305   0.534   2.305  0.6458  1.3698 -1.2028
 9572SOL    HW239031   1.256   0.454   2.186  0.5349  0.4902 -0.5734
 9573SOL     OW39032  11.158   6.545   8.180 -0.1631  0.1065 -0.3406
 9573SOL    HW139033  11.190   6.489   8.110 -1.4077 -0.8653 -0.1734
 9573SOL    HW239034  11.063   6.543   8.171 -0.4152 -0.6744  1.8025
 9574SOL     OW39035   3.302  10.124   1.999  0.0787  0.3911 -0.0601
 9574SOL    HW139036   3.327  10.196   2.057 -0.9496  1.5366 -0.9707
 9574SOL    HW239037   3.284  10.050   2.057 -0.4921  1.3835  1.0544
 9575SOL     OW39038  12.599   8.950   7.443 -0.2892  0.0732 -0.1177
 9575SOL    HW139039  12.651   9.008   7.388  0.4020  0.4123  0.8782
 9575SOL    HW239040  12.638   8.864   7.430  1.0348  0.4362  1.1764
 9576SOL     OW39041  11.940  12.070   2.707 -0.0523 -0.6122 -0.1415
 9576SOL    HW139042  11.941  11.989   2.759 -0.1018  0.0385  0.9009
 9576SOL    HW239043  11.902  12.044   2.623  0.3500 -1.7640  0.0174
 9577SOL     OW39044   7.052   3.705   5.003  0.3699 -0.4249 -0.4794
 9577SOL    HW139045   7.120   3.674   4.944  0.6990 -1.4125  0.3946
 9577SOL    HW239046   7.094   3.706   5.089 -0.7974 -1.3455  0.1195
 9578SOL     OW39047   5.563   6.659  10.129  0.3534 -0.2161 -0.7288
 9578SOL    HW139048   5.608   6.719  10.188 -2.7620 -0.5495  2.3252
 9578SOL    HW239049   5.599   6.573  10.150 -0.2281 -0.2379  0.2435
 9579SOL     OW39050   5.901   8.212  12.983 -0.1352 -1.0392  0.1456
 9579SOL    HW139051   5.830   8.199  13.046 -0.3866  0.7855  0.3021
 9579SOL    HW239052   5.857   8.218  12.898  0.1061 -2.4302 -0.1064
 9580SOL     OW39053   3.812   0.813   3.566  0.3157  0.3172 -0.0239
 9580SOL    HW139054   3.815   0.722   3.536  0.8425 -0.4870  2.2424
 9580SOL    HW239055   3.771   0.808   3.652  0.4960  2.2285  0.2168
 9581SOL     OW39056   3.610   5.074   9.197  0.3608  0.7571  0.3423
 9581SOL    HW139057   3.642   5.128   9.270  0.2938  0.4732  0.5828
 9581SOL    HW239058   3.665   4.996   9.199  0.7536  1.0147 -0.2899
 9582SOL     OW39059   5.607   2.245   5.103  0.1413  0.0144  0.3883
 9582SOL    HW139060   5.578   2.177   5.164 -0.7702 -1.2052 -1.3074
 9582SOL    HW239061   5.649   2.197   5.032  1.5051  1.4145  0.2002
 9583SOL     OW39062   6.070   5.657   4.527  0.2839 -0.0389 -0.1376
 9583SOL    HW139063   6.014   5.670   4.603  1.7588 -0.3080  1.0461
 9583SOL    HW239064   6.155   5.632   4.564  1.0695 -0.0768 -1.8732
 9584SOL     OW39065   4.810   3.196   9.487  0.1628  0.4641 -0.0293
 9584SOL    HW139066   4.750   3.249   9.434  0.9471  0.6639 -0.7328
 9584SOL    HW239067   4.874   3.258   9.521 -0.1537  0.2860  0.9136
 9585SOL     OW39068   6.064   4.764   5.783  0.3309 -0.1800  0.2592
 9585SOL    HW139069   6.048   4.836   5.843 -2.2643 -1.9991  1.9486
 9585SOL    HW239070   6.004   4.779   5.710  0.9447  0.1783 -0.1798
 9586SOL     OW39071  10.441  11.012   1.005 -0.6772  0.0168  0.2041
 9586SOL    HW139072  10.415  11.067   1.078  0.0659 -0.5522  0.9221
 9586SOL    HW239073  10.488  10.939   1.046 -0.0337 -0.1833 -0.8568
 9587SOL     OW39074   9.278   6.298   3.792  0.5817  0.0484  0.0996
 9587SOL    HW139075   9.305   6.216   3.832  0.6792 -0.9510 -1.9169
 9587SOL    HW239076   9.358   6.335   3.756  0.2357  0.0733 -0.6563
 9588SOL     OW39077  11.737   2.652   5.620 -0.4952 -0.2025 -0.0325
 9588SOL    HW139078  11.726   2.638   5.526  1.2156  0.8418 -0.4293
 9588SOL    HW239079  11.720   2.745   5.633  0.7562 -0.0170  0.4214
 9589SOL     OW39080   0.601   9.201   3.169 -0.0217 -0.0029 -0.2041
 9589SOL    HW139081   0.516   9.172   3.137  0.6444 -0.0674 -2.0077
 9589SOL    HW239082   0.590   9.295   3.185 -0.4760 -0.0522 -0.2387
 9590SOL     OW39083  11.123   9.202   7.648 -0.2905  0.1236 -0.0149
 9590SOL    HW139084  11.171   9.273   7.605  0.5368 -0.7449 -0.6002
 9590SOL    HW239085  11.031   9.227   7.642 -0.0164  1.0815 -0.3113
 9591SOL     OW39086   1.962   9.811  12.797  0.4907  0.2210 -0.2995
 9591SOL    HW139087   2.049   9.842  12.773  1.0378  0.3431  1.6134
 9591SOL    HW239088   1.978   9.724  12.834 -0.3348 -0.1740 -0.8687
 9592SOL     OW39089   1.835  12.796   6.668 -0.6185 -0.3968 -0.1120
 9592SOL    HW139090   1.911  12.783   6.725 -0.1904  0.7375 -0.3821
 9592SOL    HW239091   1.776  12.852   6.720 -0.7858 -0.3900 -0.3075
 9593SOL     OW39092  11.350   4.215   6.527  0.6236 -0.2256  0.3066
 9593SOL    HW139093  11.304   4.234   6.445  3.0891 -2.3351 -1.7495
 9593SOL    HW239094  11.391   4.298   6.551 -0.5221  0.5493 -0.2931
 9594SOL     OW39095   1.134  10.131   6.567  0.0424  0.2459 -0.3883
 9594SOL    HW139096   1.111  10.079   6.644 -0.5231  1.7031  0.4580
 9594SOL    HW239097   1.084  10.090   6.496 -0.3408 -0.3973  0.2322
 9595SOL     OW39098   6.433   1.579  12.184  0.1106 -0.2998 -0.4454
 9595SOL    HW139099   6.495   1.646  12.157  0.0178 -0.1006 -0.1696
 9595SOL    HW239100   6.359   1.588  12.123 -0.2476  0.3725  0.0744
 9596SOL     OW39101  11.787   7.784   9.227  0.5011 -0.5879 -0.3953
 9596SOL    HW139102  11.693   7.772   9.232  0.0367  2.4552  0.0697
 9596SOL    HW239103  11.815   7.795   9.318  0.9178  0.7355 -0.6611
 9597SOL     OW39104  12.436   9.907   8.529  0.5823  0.3181  0.1266
 9597SOL    HW139105  12.519   9.865   8.553 -0.4506 -0.9998  1.6553
 9597SOL    HW239106  12.451  10.000   8.544  1.6135  0.0447  0.9485
 9598SOL     OW39107   1.132   3.288   7.786  0.3101 -0.5686  0.5770
 9598SOL    HW139108   1.140   3.376   7.823  2.6323 -0.5371  0.1230
 9598SOL    HW239109   1.037   3.271   7.787 -0.0785  1.2215  2.2689
 9599SOL     OW39110  10.330  11.306   6.087  0.4535 -0.0472 -1.1961
 9599SOL    HW139111  10.287  11.237   6.137  1.9108 -1.4224 -1.7380
 9599SOL    HW239112  10.264  11.337   6.025  0.0032 -1.5246 -1.4789
 9600SOL     OW39113   6.732  11.100   8.989  0.0057 -0.4376  0.1515
 9600SOL    HW139114   6.810  11.096   9.043 -0.8540 -1.3682  1.3951
 9600SOL    HW239115   6.659  11.094   9.051 -1.1501  2.5661 -0.7514
 9601SOL     OW39116   4.654   6.924   3.600 -0.2591 -0.2757 -0.1804
 9601SOL    HW139117   4.611   6.986   3.541  0.0109  2.2184  2.0852
 9601SOL    HW239118   4.719   6.976   3.647 -0.0734 -2.2689  1.9476
 9602SOL     OW39119   6.991   1.705   7.359 -0.1673 -0.3397 -0.2696
 9602SOL    HW139120   6.928   1.769   7.326 -2.5504 -1.9980  0.7943
 9602SOL    HW239121   7.019   1.657   7.281  1.2879  1.5538 -1.0093
 9603SOL     OW39122   5.469   1.516   0.228  0.1553 -0.1709  0.2027
 9603SOL    HW139123   5.413   1.484   0.298  0.1490  1.1251  0.8299
 9603SOL    HW239124   5.456   1.455   0.156 -0.7807 -0.8294  0.9139
 9604SOL     OW39125   1.942   5.523   3.523  0.0644  0.5021  0.2116
 9604SOL    HW139126   2.030   5.493   3.544  1.3734  2.4513 -1.9471
 9604SOL    HW239127   1.885   5.450   3.547  2.2562 -0.9251  1.4319
 9605SOL     OW39128   8.675   4.102   7.995  0.0385 -0.1385 -0.2654
 9605SOL    HW139129   8.654   4.147   8.077 -0.3771 -2.6461  1.1093
 9605SOL    HW239130   8.605   4.128   7.935 -1.5433 -0.7823  1.2267
 9606SOL     OW39131  11.787  11.218   8.128 -0.4716  0.5283  0.8649
 9606SOL    HW139132  11.745  11.251   8.208  1.6752  3.8850  0.7773
 9606SOL    HW239133  11.881  11.225   8.145  0.0560 -0.4796 -1.2952
 9607SOL     OW39134   9.977   1.434   0.352 -0.4946  0.0391  0.7022
 9607SOL    HW139135  10.044   1.485   0.306 -0.5358  0.7231  1.3896
 9607SOL    HW239136   9.903   1.432   0.290  0.4523 -1.5204 -0.4566
 9608SOL     OW39137   4.457   2.873  11.754 -0.1743  0.5062 -0.0989
 9608SOL    HW139138   4.473   2.876  11.659 -3.0811 -0.5950 -0.7218
 9608SOL    HW239139   4.465   2.781  11.777  2.9095  0.9970  1.3375
 9609SOL     OW39140  10.563   9.979  11.742  0.0824 -0.3808 -0.0237
 9609SOL    HW139141  10.653   9.986  11.711  0.5386  0.1564  1.3255
 9609SOL    HW239142  10.511  10.023  11.674  0.7386 -1.2360 -1.1170
 9610SOL     OW39143   1.290   1.186   1.436 -0.0544 -0.0276 -0.1879
 9610SOL    HW139144   1.208   1.136   1.427 -0.4052  0.2239  1.3024
 9610SOL    HW239145   1.313   1.177   1.528  1.2952  0.4143 -0.4597
 9611SOL     OW39146   7.506  11.226  12.072  0.0302  0.4334  1.0485
 9611SOL    HW139147   7.430  11.238  12.014  1.7322  1.9922 -1.0764
 9611SOL    HW239148   7.561  11.163  12.025  0.4311 -0.0618  2.1656
 9612SOL     OW39149   7.315   6.089   7.488 -0.2545 -0.0940  0.3505
 9612SOL    HW139150   7.404   6.121   7.473 -0.7967  1.7153  0.7703
 9612SOL    HW239151   7.259   6.166   7.477 -1.9805 -1.4960 -1.5623
 9613SOL     OW39152   0.615  11.313  11.852  0.0163 -0.2820  0.3767
 9613SOL    HW139153   0.689  11.272  11.896  0.6297  0.9002  0.4616
 9613SOL    HW239154   0.644  11.326  11.762 -0.9891 -2.0547 -0.2568
 9614SOL     OW39155   4.085  11.848   2.043  0.3190  0.2345  0.1505
 9614SOL    HW139156   4.085  11.940   2.071 -0.3659  0.0771  0.7044
 9614SOL    HW239157   4.076  11.852   1.948 -0.7370  0.7372  0.2584
 9615SOL     OW39158   2.124   4.541   1.807 -0.1408 -0.0812 -0.6272
 9615SOL    HW139159   2.105   4.476   1.739 -0.4521 -0.4193 -0.2252
 9615SOL    HW239160   2.044   4.546   1.859  0.7362 -1.3833  0.9750
 9616SOL     OW39161  10.593   6.433   1.886 -0.1730  0.3799  0.1000
 9616SOL    HW139162  10.604   6.356   1.830  1.4072 -0.2610  1.2164
 9616SOL    HW239163  10.663   6.492   1.858  0.2411  0.3085  0.9649
 9617SOL     OW39164   0.934   5.911   9.325 -0.5920  0.4923 -0.6214
 9617SOL    HW139165   0.849   5.921   9.282 -1.7530  4.4872  2.0074
 9617SOL    HW239166   0.917   5.936   9.416  3.0324 -0.6285  0.5067
 9618SOL     OW39167   7.870  10.844   5.829 -0.0834  0.2270  0.2062
 9618SOL    HW139168   7.785  10.813   5.858  0.3143 -0.3945  0.7397
 9618SOL    HW239169   7.897  10.907   5.896 -0.6437  1.3366 -0.5862
 9619SOL     OW39170   9.323   8.711  12.328  0.0951 -0.7552 -0.8538
 9619SOL    HW139171   9.250   8.727  12.268 -1.2195  0.9433  1.0558
 9619SOL    HW239172   9.293   8.640  12.384 -0.3258  0.2450  0.2228
 9620SOL     OW39173  12.003   4.115  10.926  0.0025 -0.4936  0.4353
 9620SOL    HW139174  12.075   4.056  10.901  0.0559 -0.2134 -0.0866
 9620SOL    HW239175  11.957   4.068  10.995  2.1611  0.3497  2.5973
 9621SOL     OW39176  10.016   9.438   0.137 -0.5541  0.6983 -0.1907
 9621SOL    HW139177  10.104   9.445   0.174 -1.1675  0.0853  1.4470
 9621SOL    HW239178   9.968   9.381   0.197 -1.8331  0.2859 -1.5252
 9622SOL     OW39179  11.433   3.317  12.086 -0.1489 -0.6401  0.0430
 9622SOL    HW139180  11.445   3.257  12.013 -1.5207 -0.1927 -0.5875
 9622SOL    HW239181  11.369   3.274  12.143 -0.1943 -0.3362  0.2270
 9623SOL     OW39182   3.815   6.820  10.433  0.2180 -0.3409 -0.6649
 9623SOL    HW139183   3.760   6.895  10.413  0.0379 -0.9671 -2.8221
 9623SOL    HW239184   3.814   6.768  10.353  1.9125 -1.6578  0.1011
 9624SOL     OW39185   4.813   1.665   5.392 -0.1998 -0.0458  0.5206
 9624SOL    HW139186   4.836   1.651   5.300  1.8039  0.1781  0.9450
 9624SOL    HW239187   4.774   1.752   5.394 -1.7988 -0.7011 -0.3333
 9625SOL     OW39188   5.014   2.799  11.658  0.0686  0.0636  0.1132
 9625SOL    HW139189   4.965   2.832  11.583 -2.0617 -2.4069  0.2610
 9625SOL    HW239190   5.104   2.789  11.627 -0.5293  0.1745 -1.7318
 9626SOL     OW39191   2.523   4.766   8.382 -0.1926  0.4768 -0.0911
 9626SOL    HW139192   2.496   4.705   8.451  1.2333 -1.2759 -0.9940
 9626SOL    HW239193   2.442   4.807   8.353 -0.8617  1.1092  2.4329
 9627SOL     OW39194   3.419   5.349   3.595 -0.6704  0.2904 -0.0291
 9627SOL    HW139195   3.453   5.437   3.579  0.5935 -0.0410  0.7132
 9627SOL    HW239196   3.394   5.316   3.508  0.1681  0.8616 -0.5004
 9628SOL     OW39197  12.963   6.538   7.411 -0.6788 -0.0086 -0.0199
 9628SOL    HW139198  13.032   6.472   7.422 -2.3983 -1.8380  0.5603
 9628SOL    HW239199  12.975   6.598   7.484  1.6772  1.1259 -1.2343
 9629SOL     OW39200   8.416   0.873   5.724 -0.0529  0.3798  0.7131
 9629SOL    HW139201   8.503   0.896   5.690 -0.3639  0.5904  0.0476
 9629SOL    HW239202   8.397   0.942   5.787  1.2419 -0.9055  2.6256
 9630SOL     OW39203   3.321   9.643   6.311  0.5438  0.0589 -0.0788
 9630SOL    HW139204   3.238   9.647   6.358  0.6687 -0.0804  0.1583
 9630SOL    HW239205   3.320   9.719   6.254  1.0136  1.0519  1.1998
 9631SOL     OW39206  12.654   8.073   5.341 -0.4148 -0.1837 -0.0540
 9631SOL    HW139207  12.741   8.066   5.301 -0.2091  0.9781  0.1668
 9631SOL    HW239208  12.623   7.983   5.345  0.4297 -0.5328 -0.9069
 9632SOL     OW39209   1.216   4.716   1.320  0.1389  0.9600 -0.1976
 9632SOL    HW139210   1.247   4.663   1.247  0.1663 -0.0738  0.5455
 9632SOL    HW239211   1.146   4.769   1.282 -1.1426 -0.9087 -0.6016
 9633SOL     OW39212   3.732  10.944  12.072  0.6075 -0.0077  0.5095
 9633SOL    HW139213   3.641  10.958  12.044  0.3229  0.2681  1.5280
 9633SOL    HW239214   3.735  10.978  12.161  1.4547 -0.9323  0.8542
 9634SOL     OW39215   2.915  10.158  11.899  0.5069  0.2595  0.0842
 9634SOL    HW139216   2.916  10.099  11.824 -0.9687  0.2880  0.0271
 9634SOL    HW239217   2.885  10.104  11.972 -3.4287  1.4230 -0.4746
 9635SOL     OW39218   6.484   4.280   4.486 -0.3909  0.5549  0.3048
 9635SOL    HW139219   6.462   4.342   4.416  0.9692 -0.3151 -0.9678
 9635SOL    HW239220   6.567   4.312   4.522  0.6561 -0.7652 -0.7796
 9636SOL     OW39221   8.505  11.791   4.393 -0.2439 -0.7169  0.5227
 9636SOL    HW139222   8.459  11.815   4.312  2.5232  1.5252 -0.5351
 9636SOL    HW239223   8.573  11.858   4.402 -0.1927 -1.1182  4.5481
 9637SOL     OW39224   5.279   4.573   9.336 -0.1107  0.1978  1.0793
 9637SOL    HW139225   5.235   4.640   9.283  0.8029 -0.5227 -0.6263
 9637SOL    HW239226   5.369   4.603   9.344 -0.2823  0.4234  2.4874
 9638SOL     OW39227   1.411   4.241  10.814 -0.0583  0.4347 -0.5420
 9638SOL    HW139228   1.355   4.306  10.771 -2.0709 -0.8060  0.0432
 9638SOL    HW239229   1.478   4.220  10.748 -0.2726  1.9629 -1.2922
 9639SOL     OW39230   4.407   9.909   7.604 -0.0942 -0.2219 -0.1798
 9639SOL    HW139231   4.434   9.878   7.690  0.9287 -0.3968 -0.5466
 9639SOL    HW239232   4.313   9.926   7.612 -0.1016 -0.6972  0.8269
 9640SOL     OW39233   0.230   9.650   7.972 -0.1834  0.0571 -0.6539
 9640SOL    HW139234   0.148   9.642   7.923  0.1416 -1.5231 -0.9884
 9640SOL    HW239235   0.267   9.734   7.944 -2.4145  1.6083  0.6794
 9641SOL     OW39236  11.980  10.697  10.968 -0.0347  0.3358 -0.6925
 9641SOL    HW139237  12.020  10.743  10.895  0.4210 -0.5202 -0.9974
 9641SOL    HW239238  11.973  10.606  10.938  0.3729 -0.0704  0.4083
 9642SOL     OW39239   7.024   7.003   9.458 -0.2653 -0.2123 -0.5516
 9642SOL    HW139240   7.106   6.980   9.414 -1.5274 -0.1694 -3.0998
 9642SOL    HW239241   6.968   6.927   9.445 -1.1210  0.3431 -0.1735
 9643SOL     OW39242   0.754   2.883   0.729 -0.6150 -0.1075  0.6339
 9643SOL    HW139243   0.716   2.942   0.794 -1.1829  1.3616 -0.9594
 9643SOL    HW239244   0.848   2.892   0.741 -0.7100  0.3930  1.0398
 9644SOL     OW39245   7.679   2.345   6.288 -0.0828 -0.1111 -0.3993
 9644SOL    HW139246   7.605   2.391   6.249 -1.0164 -1.6803 -0.5718
 9644SOL    HW239247   7.657   2.252   6.280  1.3548 -0.5885  0.6435
 9645SOL     OW39248   1.003  12.223  12.200 -0.0647  0.2864  0.1571
 9645SOL    HW139249   1.090  12.241  12.235 -0.2328 -0.6733  1.0883
 9645SOL    HW239250   0.949  12.296  12.232  0.5176  1.2760 -1.0179
 9646SOL     OW39251   9.882   0.385   7.030  0.2346 -0.1609  0.4121
 9646SOL    HW139252   9.942   0.433   6.973 -0.1518  0.6905  0.7067
 9646SOL    HW239253   9.939   0.342   7.094  0.5892 -0.1397  0.1125
 9647SOL     OW39254   2.933   9.353   2.295  0.3301 -0.1866  0.4674
 9647SOL    HW139255   2.985   9.276   2.268  2.0383  1.3037 -0.8010
 9647SOL    HW239256   2.850   9.343   2.248  1.3968 -0.1696 -1.5461
 9648SOL     OW39257   0.073   6.217   3.004  0.1251  0.0686  0.2818
 9648SOL    HW139258  -0.005   6.162   3.003  0.6197 -0.6519 -0.8608
 9648SOL    HW239259   0.118   6.197   2.922  0.7579  1.5677  0.2213
 9649SOL     OW39260   4.543   0.791   9.486 -0.0324  0.2889  0.3181
 9649SOL    HW139261   4.564   0.824   9.398  0.5426  4.1999  1.7041
 9649SOL    HW239262   4.452   0.762   9.480  0.1234  0.0661 -1.6319
 9650SOL     OW39263  12.380  12.261   6.158 -0.0842 -0.2753  0.2238
 9650SOL    HW139264  12.311  12.323   6.178  2.3554  2.4879  0.6965
 9650SOL    HW239265  12.383  12.203   6.234 -0.8298  0.5826  0.9272
 9651SOL     OW39266  11.442   5.087   5.640 -0.2725  0.6672  0.4201
 9651SOL    HW139267  11.381   5.021   5.673 -0.5494  0.0021 -1.3181
 9651SOL    HW239268  11.503   5.039   5.584 -0.5236  1.8652 -0.9552
 9652SOL     OW39269  12.819  11.566   7.564 -0.3958 -0.1444 -0.1656
 9652SOL    HW139270  12.882  11.638   7.563 -0.3561 -0.1842 -0.4837
 9652SOL    HW239271  12.872  11.488   7.577 -0.5328 -0.0227  1.3554
 9653SOL     OW39272  12.466   3.864   2.022 -0.2421 -0.0807 -0.1422
 9653SOL    HW139273  12.426   3.857   2.109 -0.7355 -0.4617 -0.3958
 9653SOL    HW239274  12.537   3.927   2.034  0.4518 -0.9945  0.8201
 9654SOL     OW39275   5.901  12.555   6.278  0.2510 -0.1597  0.2927
 9654SOL    HW139276   5.819  12.531   6.322 -0.0214  0.2844  0.0343
 9654SOL    HW239277   5.938  12.624   6.333 -1.4086  2.3303 -1.5056
 9655SOL     OW39278   5.817  11.799   4.562  0.0949  0.4245 -0.0291
 9655SOL    HW139279   5.846  11.750   4.485  3.8723  1.8557  0.2558
 9655SOL    HW239280   5.777  11.879   4.525 -0.9756 -0.2836 -0.4536
 9656SOL     OW39281   3.220   4.838   7.107 -0.2178 -0.1990 -0.3141
 9656SOL    HW139282   3.140   4.885   7.127 -0.9451 -2.1082  1.6581
 9656SOL    HW239283   3.197   4.745   7.116  1.8674 -0.8599 -1.0691
 9657SOL     OW39284   0.980   0.180   1.525  0.1995  0.1949 -0.5778
 9657SOL    HW139285   1.064   0.211   1.494  1.4788 -2.1623  0.2315
 9657SOL    HW239286   0.967   0.224   1.609  0.5123  0.7349 -0.8095
 9658SOL     OW39287   5.348  11.578  11.337 -0.4347  0.1164 -0.2547
 9658SOL    HW139288   5.413  11.509  11.322 -0.4919  0.0565 -0.2298
 9658SOL    HW239289   5.289  11.541  11.404 -1.1540 -0.2721 -1.0868
 9659SOL     OW39290   3.305   9.893  12.350 -0.3099  0.1346  0.5748
 9659SOL    HW139291   3.388   9.924  12.314 -0.1041  0.5142  1.3561
 9659SOL    HW239292   3.325   9.872  12.441 -0.1566 -3.2963 -0.0962
 9660SOL     OW39293  12.559   1.496   9.812  0.0819  0.0009  0.4181
 9660SOL    HW139294  12.557   1.489   9.907 -0.6186 -0.4774  0.3777
 9660SOL    HW239295  12.529   1.585   9.794  0.7188  0.2643  0.6638
 9661SOL     OW39296   4.153   9.726  11.468  0.1793  0.3305  0.2634
 9661SOL    HW139297   4.185   9.799  11.416  0.1292  0.6578  0.6844
 9661SOL    HW239298   4.059   9.742  11.477  0.1183  0.0607  0.1172
 9662SOL     OW39299   9.730   2.110  12.959 -0.1008  0.0869  0.5665
 9662SOL    HW139300   9.743   2.203  12.974  1.6142  0.8401 -4.1301
 9662SOL    HW239301   9.817   2.071  12.971 -0.0286 -0.2588 -0.9426
 9663SOL     OW39302   7.305   9.056   0.040  0.6377 -0.0177  0.6109
 9663SOL    HW139303   7.265   8.993  -0.020  0.0480 -1.4998  2.4714
 9663SOL    HW239304   7.397   9.059   0.013 -0.0106  1.0104 -1.6978
 9664SOL     OW39305  11.527   9.453  12.061  0.1462 -0.1782  0.3479
 9664SOL    HW139306  11.585   9.513  12.109  0.1372 -0.9594  1.3825
 9664SOL    HW239307  11.576   9.429  11.983 -0.9066  3.2675 -1.5742
 9665SOL     OW39308   9.085   8.177   9.976  0.4364 -0.2970 -0.0778
 9665SOL    HW139309   9.141   8.100   9.981 -0.1015 -0.7272 -0.4493
 9665SOL    HW239310   9.019   8.154   9.911  1.3200  1.1771 -1.5695
 9666SOL     OW39311   8.653   6.911   6.964  0.0188  0.2639  0.3132
 9666SOL    HW139312   8.628   6.929   7.055 -0.1608 -0.2796  0.3774
 9666SOL    HW239313   8.687   6.994   6.931  0.3560  0.3899  0.9655
 9667SOL     OW39314   2.522  10.244   8.428 -0.1210  0.1336 -0.5024
 9667SOL    HW139315   2.589  10.299   8.387 -0.6348  1.7459  0.7473
 9667SOL    HW239316   2.451  10.304   8.451 -2.3641 -1.6259 -2.3856
 9668SOL     OW39317   3.508   6.320   0.154 -0.6983 -0.4991  0.5720
 9668SOL    HW139318   3.535   6.395   0.207  1.0326  0.5537 -1.5996
 9668SOL    HW239319   3.449   6.358   0.088  0.9613 -0.7474 -1.1610
 9669SOL     OW39320   2.233   5.522   3.612  0.1550 -0.1506  0.1967
 9669SOL    HW139321   2.200   5.607   3.583 -2.3639 -1.3160 -0.6000
 9669SOL    HW239322   2.234   5.528   3.708 -0.1395  0.6955  0.1546
 9670SOL     OW39323  10.400   1.624   7.201  0.9290  0.2039 -0.2199
 9670SOL    HW139324  10.340   1.695   7.222 -0.4409 -0.2005 -2.4139
 9670SOL    HW239325  10.432   1.645   7.113  0.9031 -1.6099 -0.7072
 9671SOL     OW39326  11.136   5.573  11.390 -0.0146  0.0710 -0.1513
 9671SOL    HW139327  11.222   5.612  11.378  0.7596 -0.9683  1.6663
 9671SOL    HW239328  11.076   5.635  11.348  1.3874  1.9662  0.5120
 9672SOL     OW39329   0.955   9.707   6.997 -0.2600 -0.2932 -0.0825
 9672SOL    HW139330   1.049   9.695   6.992 -0.1082  1.0031 -0.6517
 9672SOL    HW239331   0.931   9.675   7.084  0.9367  0.8448  0.6776
 9673SOL     OW39332   5.458   9.707   1.179  0.0418 -0.2109 -0.1516
 9673SOL    HW139333   5.530   9.644   1.185  1.0105  0.8789 -0.0065
 9673SOL    HW239334   5.408   9.694   1.260 -1.6222 -2.8965 -1.4550
 9674SOL     OW39335   7.060   4.556   1.331 -0.0509 -0.0596 -0.8198
 9674SOL    HW139336   7.124   4.607   1.382 -1.3016 -0.4364  1.2269
 9674SOL    HW239337   6.996   4.527   1.396 -2.9107  1.1641 -2.9419
 9675SOL     OW39338   2.963  12.878   2.884  0.1661 -0.1529  0.4876
 9675SOL    HW139339   3.021  12.939   2.840 -0.2353  0.9165  1.3930
 9675SOL    HW239340   3.010  12.795   2.883  0.3859 -0.0404 -1.4499
 9676SOL     OW39341   6.586   4.085   4.323  0.2091 -0.3694 -0.7032
 9676SOL    HW139342   6.542   4.006   4.353  0.9164 -0.8036 -0.7885
 9676SOL    HW239343   6.552   4.155   4.380  2.4797 -1.3576  2.1355
 9677SOL     OW39344   2.118   9.805  12.114  0.3513  0.2385  0.0085
 9677SOL    HW139345   2.183   9.738  12.091  0.7688  0.2641  1.0578
 9677SOL    HW239346   2.075   9.826  12.031  0.4958 -1.0256 -0.4170
 9678SOL     OW39347   2.353  12.424  12.817  0.5688  0.0139  0.2507
 9678SOL    HW139348   2.399  12.500  12.783  1.3683 -0.8503 -0.6913
 9678SOL    HW239349   2.288  12.403  12.750 -0.8218  0.8555  1.2889
 9679SOL     OW39350  10.978   0.627   1.992 -0.4621 -0.4400 -0.3252
 9679SOL    HW139351  11.060   0.629   1.943 -0.0602  0.5810  0.3731
 9679SOL    HW239352  10.996   0.571   2.067  0.1440  1.1034  0.7293
 9680SOL     OW39353   4.942   7.055   0.836  0.2420 -0.2264 -0.3807
 9680SOL    HW139354   4.971   7.134   0.882  0.0783 -0.4694  0.1481
 9680SOL    HW239355   4.875   7.017   0.894 -0.5268 -0.1243 -1.1716
 9681SOL     OW39356   6.178   0.742  11.102 -0.2878 -0.6860 -0.2659
 9681SOL    HW139357   6.171   0.828  11.143 -1.8352 -1.1826  0.5707
 9681SOL    HW239358   6.091   0.704  11.110  0.8208 -3.1518  1.1981
 9682SOL     OW39359   1.056   5.085   6.982  0.3054  0.2267  0.2228
 9682SOL    HW139360   0.976   5.077   6.929 -0.2706  1.9788  0.7779
 9682SOL    HW239361   1.031   5.053   7.068  1.7906 -4.6669 -0.8204
 9683SOL     OW39362   3.811   7.526  12.184 -0.4228  0.2678  0.0188
 9683SOL    HW139363   3.883   7.470  12.213  1.8013  2.4019 -0.9957
 9683SOL    HW239364   3.783   7.488  12.101  0.2440 -0.0281 -0.0779
 9684SOL     OW39365   2.983   7.843  11.290  0.0135  0.3240 -0.0467
 9684SOL    HW139366   2.937   7.848  11.374  0.7630 -1.6748  0.5552
 9684SOL    HW239367   3.068   7.884  11.306  0.2129 -0.1866  0.2478
 9685SOL     OW39368   9.817   3.730   4.806 -0.5166 -0.0471 -0.5380
 9685SOL    HW139369   9.737   3.778   4.829 -0.2086 -0.1600  0.8432
 9685SOL    HW239370   9.797   3.691   4.721 -1.7668  0.3039 -0.4328
 9686SOL     OW39371   3.658   4.047   9.499  0.7435  0.2032 -0.3090
 9686SOL    HW139372   3.708   4.117   9.457  1.8846 -1.7519 -2.4437
 9686SOL    HW239373   3.718   4.010   9.563  0.7278  0.1904 -0.3021
 9687SOL     OW39374   5.930   2.148   9.592  0.3291 -0.5392 -0.5793
 9687SOL    HW139375   6.003   2.207   9.571 -0.3912 -0.3457 -2.8433
 9687SOL    HW239376   5.866   2.204   9.635  0.9290 -0.3923  0.1424
 9688SOL     OW39377   8.644   2.331   8.240  0.1400  0.4243 -0.2335
 9688SOL    HW139378   8.606   2.410   8.279 -1.2285  0.4541 -1.5030
 9688SOL    HW239379   8.579   2.304   8.175  1.2808 -0.8976 -0.8672
 9689SOL     OW39380  12.892   1.138  12.156  0.0735  0.4721  0.1889
 9689SOL    HW139381  12.948   1.191  12.213  1.2476 -0.7041  0.1910
 9689SOL    HW239382  12.953   1.085  12.105 -1.0343 -0.8660  0.1802
 9690SOL     OW39383   5.214   1.078   7.293  0.2899 -0.0804  0.2579
 9690SOL    HW139384   5.237   1.099   7.203 -0.6767  1.9663  0.4181
 9690SOL    HW239385   5.291   1.034   7.328  0.8475 -0.5270 -1.4248
 9691SOL     OW39386   8.050  10.602   8.199  0.1226 -0.3462  0.6681
 9691SOL    HW139387   7.993  10.529   8.176  0.6974 -1.0283  1.3378
 9691SOL    HW239388   8.066  10.648   8.117  0.0487 -1.1895  0.1756
 9692SOL     OW39389   8.767   7.097   5.865  0.1268 -0.6469 -0.5412
 9692SOL    HW139390   8.724   7.152   5.800 -0.2644 -3.1021 -2.5155
 9692SOL    HW239391   8.860   7.117   5.856 -0.1133  0.7812 -0.0742
 9693SOL     OW39392   5.007   6.727   9.708  0.5036 -0.7104  0.2214
 9693SOL    HW139393   5.078   6.775   9.666 -1.3312  0.7996 -1.3457
 9693SOL    HW239394   5.048   6.682   9.782  2.8740  0.8930 -0.0248
 9694SOL     OW39395   7.887  12.840   8.802  0.2565  0.3361 -0.6332
 9694SOL    HW139396   7.802  12.798   8.788 -0.2412  1.4616 -1.1227
 9694SOL    HW239397   7.890  12.858   8.896 -0.2109  0.6103 -0.6671
 9695SOL     OW39398  12.075   4.561   4.892 -0.0918  0.5343 -0.4824
 9695SOL    HW139399  12.017   4.610   4.952 -0.0089 -0.9757  0.8891
 9695SOL    HW239400  12.083   4.475   4.932  2.1097  0.3011 -1.3160
 9696SOL     OW39401   6.038   2.133   7.370  0.2154 -0.1398 -0.4464
 9696SOL    HW139402   5.997   2.162   7.451 -2.2021 -0.8959 -1.2964
 9696SOL    HW239403   6.085   2.210   7.337  0.1723  0.5335  1.0232
 9697SOL     OW39404   1.287   7.956  10.431 -0.0912 -0.0349  0.1428
 9697SOL    HW139405   1.247   7.894  10.492  1.8247 -0.7590  0.7459
 9697SOL    HW239406   1.344   8.010  10.487  0.5230  0.3102 -0.8019
 9698SOL     OW39407   3.056  11.132   0.343  0.4183  0.2782  0.0086
 9698SOL    HW139408   3.043  11.064   0.277 -1.4278  0.1646  0.4364
 9698SOL    HW239409   3.122  11.095   0.402 -0.8132 -1.3341  0.4499
 9699SOL     OW39410  12.186   9.701   8.321  0.5833  0.2747  0.1660
 9699SOL    HW139411  12.096   9.682   8.295  1.0794 -0.5135 -1.0701
 9699SOL    HW239412  12.193   9.665   8.410 -0.4159  0.6825  0.4205
 9700SOL     OW39413  12.753  10.414   2.349 -0.1388 -0.3215  0.7646
 9700SOL    HW139414  12.806  10.335   2.349  0.3127 -0.0402 -0.3323
 9700SOL    HW239415  12.696  10.406   2.272  1.3587  1.3100 -0.6085
 9701SOL     OW39416   3.620  12.908   3.648  0.1524 -0.3224 -0.2859
 9701SOL    HW139417   3.644  12.859   3.726 -0.8265  0.7038  0.7160
 9701SOL    HW239418   3.591  12.993   3.681 -0.2104  0.1795 -1.7785
 9702SOL     OW39419  12.662   9.436   9.196 -0.1195  0.1634 -0.2534
 9702SOL    HW139420  12.746   9.391   9.197 -0.2083 -0.0029  0.2716
 9702SOL    HW239421  12.606   9.382   9.140  0.0591  0.1535 -0.4204
 9703SOL     OW39422  12.428   6.958   1.291 -0.8904  0.6159  0.5657
 9703SOL    HW139423  12.396   6.868   1.280  0.9367  0.1026 -1.1247
 9703SOL    HW239424  12.512   6.959   1.244 -1.5067  3.5832 -0.6465
 9704SOL     OW39425   3.557  10.351   7.127  0.0012 -0.3225 -0.5294
 9704SOL    HW139426   3.498  10.385   7.060 -0.6867 -1.4330 -0.5022
 9704SOL    HW239427   3.644  10.352   7.086 -0.1814  0.3848 -0.9083
 9705SOL     OW39428   9.302   3.192   8.946 -0.1751 -0.1322  0.1423
 9705SOL    HW139429   9.258   3.110   8.966 -1.2744  0.5235  0.5362
 9705SOL    HW239430   9.248   3.259   8.988  1.9914  0.6258  1.9155
 9706SOL     OW39431   7.176   9.698  11.343  1.0387  0.0663 -0.1769
 9706SOL    HW139432   7.242   9.750  11.390  1.7448 -1.2745  0.3659
 9706SOL    HW239433   7.226   9.628  11.302 -0.0980 -1.2407  0.6061
 9707SOL     OW39434   8.313  12.904   8.921  0.5271  0.1612 -0.0035
 9707SOL    HW139435   8.318  12.960   8.843  0.6007  0.7956  0.4488
 9707SOL    HW239436   8.400  12.863   8.927 -0.2302 -1.8920 -1.6835
 9708SOL     OW39437   6.260  11.612   2.643  0.4681  0.6044 -0.7910
 9708SOL    HW139438   6.224  11.628   2.556 -0.5582  0.2654 -0.4442
 9708SOL    HW239439   6.233  11.522   2.664  1.3275  0.4249 -0.4171
 9709SOL     OW39440   5.188   7.927  11.982 -0.5076  0.5475  0.2497
 9709SOL    HW139441   5.128   7.993  11.947  0.4100  0.8793 -0.7305
 9709SOL    HW239442   5.192   7.946  12.076  0.7584  2.7588 -0.1917
 9710SOL     OW39443   7.848   4.790   2.705 -0.2074  0.4442  0.7367
 9710SOL    HW139444   7.926   4.832   2.668 -0.0713  0.6742  1.2745
 9710SOL    HW239445   7.800   4.862   2.746 -0.3727  0.1971  0.9739
 9711SOL     OW39446   1.418   9.081   2.788  0.1360  0.2214  0.1190
 9711SOL    HW139447   1.482   9.057   2.855  0.0249  0.6428  0.3784
 9711SOL    HW239448   1.425   9.012   2.722 -1.1385 -1.3043  1.4842
 9712SOL     OW39449  10.580   4.578   6.016  0.0668 -0.4221  0.2472
 9712SOL    HW139450  10.574   4.623   6.100 -0.4727  1.0520 -0.5395
 9712SOL    HW239451  10.584   4.648   5.952  0.0452 -1.5200 -1.0009
 9713SOL     OW39452   2.183   5.389  10.720 -0.3873 -0.4544 -0.2953
 9713SOL    HW139453   2.258   5.352  10.674 -1.4900 -1.1735 -1.6075
 9713SOL    HW239454   2.147   5.316  10.771 -0.8715 -0.4346 -0.5992
 9714SOL     OW39455   3.701   5.314   8.421  0.3768  0.6612  0.1369
 9714SOL    HW139456   3.790   5.347   8.409  0.9194 -0.5891  0.6002
 9714SOL    HW239457   3.669   5.360   8.499  1.0747  0.2214  0.6992
 9715SOL     OW39458   4.298   6.411   9.662  0.0085  0.5548  0.4959
 9715SOL    HW139459   4.246   6.387   9.586  0.9568  0.1408 -0.0408
 9715SOL    HW239460   4.253   6.486   9.699  1.2682  2.9186 -2.3809
 9716SOL     OW39461  10.776   5.291  12.467 -0.1909 -0.4694 -0.1560
 9716SOL    HW139462  10.727   5.349  12.525 -0.6328 -2.4111  1.5421
 9716SOL    HW239463  10.867   5.321  12.474 -0.5460  0.6272 -0.1148
 9717SOL     OW39464   7.649   9.173   9.462 -0.2137  0.7400  0.5860
 9717SOL    HW139465   7.581   9.233   9.493 -0.9442  0.3930 -0.2998
 9717SOL    HW239466   7.630   9.160   9.369 -0.0129 -0.7758  0.7210
 9718SOL     OW39467   5.858   1.917   2.214  0.4650  0.0040  0.3363
 9718SOL    HW139468   5.841   1.881   2.127  1.3478  0.7837 -0.1794
 9718SOL    HW239469   5.773   1.919   2.257  0.1911 -1.4404 -0.0978
 9719SOL     OW39470   7.693   1.621   6.287  0.1886  0.5060  0.3489
 9719SOL    HW139471   7.617   1.637   6.343 -0.0904 -2.5577  1.0121
 9719SOL    HW239472   7.756   1.688   6.313 -1.6580  2.0958  0.9557
 9720SOL     OW39473   2.245   7.743   1.857  0.2939 -1.1233 -0.3642
 9720SOL    HW139474   2.311   7.769   1.793  0.4854  0.4649  0.4311
 9720SOL    HW239475   2.184   7.688   1.807  1.0037 -0.8039 -1.6402
 9721SOL     OW39476   7.135   4.874   1.055 -0.0563 -0.3347 -0.1849
 9721SOL    HW139477   7.065   4.813   1.076  0.4127 -0.7953  0.0735
 9721SOL    HW239478   7.139   4.934   1.130  0.6080 -1.0413  0.3576
 9722SOL     OW39479   2.083   9.730   0.189 -0.1268 -0.0498 -0.0048
 9722SOL    HW139480   2.100   9.661   0.126  1.1000 -0.5616  0.8478
 9722SOL    HW239481   2.133   9.805   0.158  1.2593 -0.5914  0.8208
 9723SOL     OW39482   3.315   4.586   2.574  0.6937 -0.9110 -0.2934
 9723SOL    HW139483   3.325   4.644   2.499 -0.6246 -0.7656 -0.3768
 9723SOL    HW239484   3.239   4.532   2.553 -0.6388  0.1564  1.5582
 9724SOL     OW39485   7.845   6.536  10.764 -0.3294 -0.6454 -0.0083
 9724SOL    HW139486   7.764   6.587  10.774  1.1436  1.9091 -0.2951
 9724SOL    HW239487   7.844   6.507  10.673  0.5196  2.1602 -0.9943
 9725SOL     OW39488   5.440   7.122  10.021  0.0575 -0.2968  0.1132
 9725SOL    HW139489   5.432   7.206  10.067  1.6016  0.3628 -0.7775
 9725SOL    HW239490   5.349   7.098  10.001 -0.5539  0.1749  2.0736
 9726SOL     OW39491   9.318  12.279   9.824  0.5271 -0.0730  0.1956
 9726SOL    HW139492   9.261  12.279   9.900  0.4258 -2.6693  0.2018
 9726SOL    HW239493   9.290  12.355   9.773 -2.5677 -0.8963  0.4690
 9727SOL     OW39494   2.360  11.671   4.186  0.3151 -0.1759  0.4190
 9727SOL    HW139495   2.383  11.612   4.258  2.1076  1.0186  0.8861
 9727SOL    HW239496   2.422  11.648   4.116 -0.3501 -0.2328 -0.1606
 9728SOL     OW39497   5.133   3.222  11.628 -0.0235 -0.9658  0.5562
 9728SOL    HW139498   5.137   3.280  11.703  0.8419 -0.1618 -0.0871
 9728SOL    HW239499   5.041   3.195  11.623 -0.7360  1.3250  0.1629
 9729SOL     OW39500   8.388   5.696   2.545 -0.2933  0.0927  0.2758
 9729SOL    HW139501   8.296   5.692   2.519 -0.6470  1.0443  1.2669
 9729SOL    HW239502   8.401   5.618   2.598 -1.5395  1.5982  3.0134
 9730SOL     OW39503   8.243  12.487   0.967 -0.2097 -0.3087  0.3600
 9730SOL    HW139504   8.221  12.414   0.909  0.3029 -0.2636  0.1031
 9730SOL    HW239505   8.253  12.562   0.908 -0.8198 -0.0069  0.6324
 9731SOL     OW39506  10.123   7.416   3.364 -0.3147 -0.2097  0.2247
 9731SOL    HW139507  10.039   7.392   3.402 -0.6408  1.5203  0.6801
 9731SOL    HW239508  10.102   7.475   3.291  0.4941  0.5193  0.5534
 9732SOL     OW39509   6.524   0.687   2.101  0.1788 -0.3753  0.2191
 9732SOL    HW139510   6.515   0.596   2.131  1.3777 -1.2982 -1.8975
 9732SOL    HW239511   6.511   0.740   2.179 -2.9578 -2.2175  1.1250
 9733SOL     OW39512   5.573   3.234   0.587  0.2536  0.9016 -0.8834
 9733SOL    HW139513   5.510   3.303   0.568  1.1294  2.3713  1.1846
 9733SOL    HW239514   5.537   3.188   0.663  1.2192  1.2290 -0.1975
 9734SOL     OW39515   2.867   8.577   7.239 -0.5785  0.5244  0.4790
 9734SOL    HW139516   2.906   8.491   7.259 -2.0179 -0.5646 -1.1174
 9734SOL    HW239517   2.909   8.637   7.301 -1.4005 -1.7639  3.5004
 9735SOL     OW39518  11.907  12.199   1.547 -0.4664 -0.6301  0.0738
 9735SOL    HW139519  11.863  12.187   1.463 -0.7960  0.4323  0.0905
 9735SOL    HW239520  11.997  12.169   1.531 -0.8328 -1.5853 -0.3056
 9736SOL     OW39521   8.936  12.585   0.166 -0.0997 -0.3787 -0.3047
 9736SOL    HW139522   8.859  12.551   0.119  0.2966  1.2218 -2.2096
 9736SOL    HW239523   9.007  12.527   0.139 -0.0010  0.1531 -1.2368
 9737SOL     OW39524   7.736   5.742   7.624 -0.0583  0.2402  0.1398
 9737SOL    HW139525   7.736   5.779   7.712 -0.3524 -0.0355  0.2539
 9737SOL    HW239526   7.644   5.727   7.603 -0.1290  1.8936 -0.8837
 9738SOL     OW39527  12.244   8.711   6.945  0.4781 -0.8252  0.0522
 9738SOL    HW139528  12.255   8.806   6.940  0.6333 -0.8353  0.1928
 9738SOL    HW239529  12.327   8.676   6.914  0.0294 -0.9299 -1.0786
 9739SOL     OW39530   0.401   6.032   6.780 -0.1784  0.3315  0.1002
 9739SOL    HW139531   0.384   6.090   6.705 -1.2052  0.2121  0.2275
 9739SOL    HW239532   0.385   6.087   6.856 -2.1435 -0.3373  0.2339
 9740SOL     OW39533   4.720   4.426   9.731 -0.5781 -0.2441 -0.2375
 9740SOL    HW139534   4.805   4.397   9.697 -0.2319 -2.0007  1.8819
 9740SOL    HW239535   4.668   4.346   9.738 -1.8773  0.5795 -0.0371
 9741SOL     OW39536   5.030   1.189   6.183 -0.0473  0.5274 -0.3412
 9741SOL    HW139537   4.955   1.229   6.140 -0.7757 -0.5738 -0.1389
 9741SOL    HW239538   5.027   1.222   6.273 -1.3607 -0.8498  0.1676
 9742SOL     OW39539   7.124  10.572   5.527 -0.2656  0.0863 -0.2863
 9742SOL    HW139540   7.045  10.518   5.522 -0.1781 -0.4648  2.4692
 9742SOL    HW239541   7.194  10.516   5.493 -0.6977 -0.2736 -0.5926
 9743SOL     OW39542   7.966   1.951   7.502 -0.1084 -0.1945 -0.1968
 9743SOL    HW139543   7.961   1.962   7.407  0.3815 -0.5877 -0.2727
 9743SOL    HW239544   8.048   1.994   7.527 -0.3266  0.0621  0.0695
 9744SOL     OW39545  10.303  11.786  10.220  0.3457 -0.1204 -0.3526
 9744SOL    HW139546  10.309  11.780  10.124 -1.6598  0.7049 -0.5646
 9744SOL    HW239547  10.247  11.861  10.236  0.5023 -0.3587  1.4989
 9745SOL     OW39548   2.497   6.548   3.736  0.3195 -0.2845  0.0075
 9745SOL    HW139549   2.488   6.457   3.708  0.0248  0.0947 -1.1850
 9745SOL    HW239550   2.588   6.556   3.766  0.2732 -1.0243  0.3631
 9746SOL     OW39551   8.108  11.494  12.339 -0.1204  0.2318  0.1781
 9746SOL    HW139552   8.180  11.557  12.332 -0.6231  0.7461 -0.3952
 9746SOL    HW239553   8.046  11.519  12.271 -0.5901 -0.5507  0.2983
 9747SOL     OW39554   0.199   3.396   6.226 -0.0186  0.5031 -0.3994
 9747SOL    HW139555   0.261   3.364   6.161  1.3121  0.2723  0.9036
 9747SOL    HW239556   0.120   3.344   6.213  0.1709  0.5676 -1.8912
 9748SOL     OW39557   2.167  12.239   4.097  0.2554 -0.4575  0.0928
 9748SOL    HW139558   2.180  12.210   4.188  0.3532 -0.2001  0.1606
 9748SOL    HW239559   2.217  12.176   4.045  2.0022  0.6394  0.3580
 9749SOL     OW39560   0.996  11.342   2.585  0.0889 -0.1580  0.1146
 9749SOL    HW139561   0.948  11.403   2.528  0.4165  0.1441  0.1593
 9749SOL    HW239562   1.071  11.315   2.532 -0.0539 -0.5255  0.0956
 9750SOL     OW39563   6.627   1.516   2.432 -0.3128 -0.0238  0.3031
 9750SOL    HW139564   6.602   1.558   2.515  1.9794  1.1906  0.4725
 9750SOL    HW239565   6.563   1.548   2.369 -1.9259 -0.7323  1.5118
 9751SOL     OW39566   9.627   4.678   8.197 -0.0591  0.3321 -0.1949
 9751SOL    HW139567   9.542   4.653   8.234  1.1099 -0.8826  1.8465
 9751SOL    HW239568   9.676   4.596   8.192  1.7412  1.2942  0.7679
 9752SOL     OW39569  10.655   0.432   5.024  0.0235 -0.0217 -0.2021
 9752SOL    HW139570  10.663   0.524   5.048  0.1465 -0.0647 -0.0811
 9752SOL    HW239571  10.646   0.386   5.107  0.8053 -0.2075 -0.2184
 9753SOL     OW39572  12.880   1.333   1.158  0.9435 -0.3090  0.4954
 9753SOL    HW139573  12.928   1.310   1.238  1.5697  0.9216  0.4909
 9753SOL    HW239574  12.854   1.424   1.172  1.8623  0.2219 -1.0977
 9754SOL     OW39575   7.547  12.387   7.639  0.0775  0.6276  0.0446
 9754SOL    HW139576   7.548  12.322   7.568  2.5015  1.2975 -0.6220
 9754SOL    HW239577   7.577  12.468   7.598  0.4592  1.3146  1.6196
 9755SOL     OW39578   9.943   1.953  10.882 -0.8879  0.5673  0.4671
 9755SOL    HW139579   9.999   2.030  10.891 -0.3525  0.1258  0.9933
 9755SOL    HW239580   9.861   1.977  10.925 -0.0369  0.1713  2.3984
 9756SOL     OW39581  11.339   7.584  12.158  1.1033 -0.3869  0.5918
 9756SOL    HW139582  11.295   7.544  12.233  1.5629 -1.0721  0.5005
 9756SOL    HW239583  11.424   7.613  12.193  0.9349  0.1596  0.5624
 9757SOL     OW39584  10.906   0.579   1.413 -0.1037 -0.3606  0.3130
 9757SOL    HW139585  10.891   0.672   1.432  1.0780 -0.2062  0.5550
 9757SOL    HW239586  10.912   0.538   1.500 -1.7939 -0.8874  0.2153
 9758SOL     OW39587   9.648   6.665   8.091 -0.3682 -0.0307  0.0951
 9758SOL    HW139588   9.560   6.701   8.093  0.4556  2.1650  2.8856
 9758SOL    HW239589   9.646   6.592   8.153  0.0892  0.9903  1.3461
 9759SOL     OW39590  12.263   9.813   6.860 -0.2015  0.4049  0.6845
 9759SOL    HW139591  12.281   9.895   6.816  2.1044  0.1813  1.1132
 9759SOL    HW239592  12.171   9.794   6.838 -0.1754  2.0315 -1.0809
 9760SOL     OW39593   1.230   1.936  10.136  0.2027  0.0134  0.3204
 9760SOL    HW139594   1.273   2.008  10.181 -0.4138  0.9791 -0.5989
 9760SOL    HW239595   1.260   1.858  10.182  0.7053  0.8626  1.4750
 9761SOL     OW39596   2.553   3.511  10.981  0.2660  0.4771 -0.3148
 9761SOL    HW139597   2.472   3.463  10.999  0.4764  0.5679  0.9030
 9761SOL    HW239598   2.616   3.443  10.957 -0.0389  0.3688 -0.8434
 9762SOL     OW39599   4.579   4.999   6.455  0.0532  0.1061  0.6612
 9762SOL    HW139600   4.526   5.044   6.389  0.6162  0.0222  0.1397
 9762SOL    HW239601   4.636   5.067   6.491  1.9494 -0.3950 -1.1674
 9763SOL     OW39602   2.279  10.364   5.916  0.4545 -0.9511  0.3930
 9763SOL    HW139603   2.260  10.432   5.852 -2.7022 -1.2389  0.8399
 9763SOL    HW239604   2.373  10.349   5.909  0.7928  1.5166 -1.6067
 9764SOL     OW39605   1.611   5.110   4.152 -0.1742  0.3599 -0.4150
 9764SOL    HW139606   1.595   5.018   4.131  2.3245 -0.5998  1.4484
 9764SOL    HW239607   1.589   5.118   4.245  0.4414  1.4231 -0.3459
 9765SOL     OW39608   2.999   1.393   8.917  0.1456 -0.2426  0.1868
 9765SOL    HW139609   2.971   1.321   8.973 -0.0323 -0.3781 -0.0732
 9765SOL    HW239610   2.978   1.364   8.828 -0.4979  0.3956  0.1288
 9766SOL     OW39611   3.643   6.637   3.926 -0.7159  0.1379  0.2980
 9766SOL    HW139612   3.566   6.693   3.929 -0.8886 -0.0152 -0.8768
 9766SOL    HW239613   3.700   6.679   3.861 -0.2131 -0.2517  0.4840
 9767SOL     OW39614  10.847  10.727   9.998 -0.0653 -0.2850 -0.0178
 9767SOL    HW139615  10.766  10.773   9.975 -0.0872 -0.4503 -0.2725
 9767SOL    HW239616  10.861  10.749  10.090  0.6036  1.2672 -0.4655
 9768SOL     OW39617   1.566   5.947  10.318 -0.2359  0.3619 -0.0570
 9768SOL    HW139618   1.653   5.981  10.337  0.4714 -1.1698 -0.3962
 9768SOL    HW239619   1.508   5.994  10.377  1.1914 -0.5138  2.1470
 9769SOL     OW39620   6.066  12.874   2.239  0.0194  0.3298  0.2467
 9769SOL    HW139621   6.147  12.846   2.196 -0.3705 -0.3455 -0.0483
 9769SOL    HW239622   6.010  12.797   2.238 -2.0072  1.6487 -2.7125
 9770SOL     OW39623   2.838  11.443   5.236  0.7825 -0.2403 -0.1192
 9770SOL    HW139624   2.854  11.442   5.141  0.9824 -0.5365 -0.0812
 9770SOL    HW239625   2.833  11.536   5.258 -1.3018 -0.1522 -0.7629
 9771SOL     OW39626  12.462   7.258   5.467 -0.2317  0.0541  0.2644
 9771SOL    HW139627  12.466   7.163   5.471  2.8310  0.0523 -0.1610
 9771SOL    HW239628  12.491   7.287   5.554 -0.8263  0.6195  0.2855
 9772SOL     OW39629   5.823  12.707  10.120  0.1553 -0.7592 -0.3678
 9772SOL    HW139630   5.732  12.707  10.089 -0.3713  0.0711  1.0687
 9772SOL    HW239631   5.823  12.647  10.194  0.4386  0.2933  0.5051
 9773SOL     OW39632  10.415   6.726   6.798 -0.1890  0.0330  0.5085
 9773SOL    HW139633  10.493   6.770   6.764 -0.6731  0.2949 -0.2846
 9773SOL    HW239634  10.405   6.648   6.743 -1.3600  0.8105 -0.4121
 9774SOL     OW39635   2.658   3.321   2.591 -0.2415 -0.0353 -0.3051
 9774SOL    HW139636   2.648   3.395   2.651  2.1815 -0.2378  0.4573
 9774SOL    HW239637   2.662   3.245   2.649  1.4206 -0.3009 -0.7311
 9775SOL     OW39638  11.442   4.773   5.064 -0.3466  0.0212 -0.6978
 9775SOL    HW139639  11.502   4.763   5.137  0.8092  1.8739 -1.3102
 9775SOL    HW239640  11.472   4.710   4.999  1.5779  1.4795 -1.3335
 9776SOL     OW39641  11.443   4.571   8.795  0.1671  0.3618 -0.0693
 9776SOL    HW139642  11.443   4.494   8.738  0.8549 -0.4477  0.9824
 9776SOL    HW239643  11.351   4.595   8.802 -0.0741 -0.4328 -0.3297
 9777SOL     OW39644   7.282   8.540   7.497 -0.2682 -0.4958  0.3163
 9777SOL    HW139645   7.295   8.447   7.511  0.4032 -0.4443  0.0488
 9777SOL    HW239646   7.187   8.551   7.494 -0.3570 -1.0887  0.8805
 9778SOL     OW39647   6.762   9.758   1.514  0.0112  0.7323  0.1734
 9778SOL    HW139648   6.815   9.729   1.440  0.4964  0.4834  0.6052
 9778SOL    HW239649   6.726   9.842   1.487 -0.7502  0.1144 -0.7836
 9779SOL     OW39650   6.227   6.772   3.639  0.5383  0.1269 -0.7903
 9779SOL    HW139651   6.219   6.830   3.563 -1.7242  0.2199 -0.5361
 9779SOL    HW239652   6.247   6.830   3.712  1.9011  0.1257 -1.1258
 9780SOL     OW39653   3.592  11.307  10.882  0.2055 -0.5250 -0.7858
 9780SOL    HW139654   3.562  11.305  10.973  2.0012 -1.2208 -0.1792
 9780SOL    HW239655   3.541  11.239  10.839 -0.9870  0.1128 -0.4359
 9781SOL     OW39656   7.478  10.552   5.927 -0.2496  0.0559  0.1071
 9781SOL    HW139657   7.536  10.577   5.855  1.4483 -0.0553  1.3723
 9781SOL    HW239658   7.487  10.623   5.991 -2.0955  0.3896  0.0487
 9782SOL     OW39659  12.661   2.006   3.835 -0.3499 -0.8139 -0.2718
 9782SOL    HW139660  12.746   2.034   3.867 -0.7550 -0.4946  0.5616
 9782SOL    HW239661  12.641   2.066   3.763  0.3522 -1.2244 -0.8181
 9783SOL     OW39662  12.322   6.965   2.028  0.2247  0.0824 -0.3770
 9783SOL    HW139663  12.355   7.052   2.051  1.2875 -0.4848  0.3553
 9783SOL    HW239664  12.291   6.974   1.938 -0.6503  1.4703  0.0353
 9784SOL     OW39665  12.548  11.018   2.922  0.0149 -0.1707 -0.2823
 9784SOL    HW139666  12.514  11.074   2.852 -1.4413 -1.4064 -0.6084
 9784SOL    HW239667  12.549  10.930   2.885  0.3876 -0.6733  0.8580
 9785SOL     OW39668   1.845   3.171  10.822 -0.0963  1.0421  0.2479
 9785SOL    HW139669   1.906   3.180  10.896  1.9739  3.8330 -1.5614
 9785SOL    HW239670   1.849   3.079  10.798  1.6077  0.6836  1.6937
 9786SOL     OW39671   9.532  10.641   2.365  0.3335 -0.1074 -0.5285
 9786SOL    HW139672   9.447  10.646   2.321 -0.6192 -0.9363  1.1281
 9786SOL    HW239673   9.585  10.709   2.323 -0.9707  0.0875 -1.9353
 9787SOL     OW39674   8.808   2.985   7.228  0.0950 -0.1958  0.3128
 9787SOL    HW139675   8.887   2.954   7.273  0.2650  0.7209  0.6621
 9787SOL    HW239676   8.746   2.913   7.236  0.0690 -0.0055  2.1633
 9788SOL     OW39677   1.787  10.365   0.378  0.3859 -0.5648 -0.8373
 9788SOL    HW139678   1.877  10.353   0.407  0.0424 -0.6880  0.1876
 9788SOL    HW239679   1.743  10.283   0.397 -0.1920 -0.1655 -0.4079
 9789SOL     OW39680   1.308   8.497   7.240  0.0415  0.2156 -0.0454
 9789SOL    HW139681   1.255   8.497   7.319  0.8662 -2.1059  0.5897
 9789SOL    HW239682   1.254   8.452   7.175 -0.1165  0.9682 -0.4533
 9790SOL     OW39683  11.947   4.618  10.157 -0.1672 -0.3108  0.4994
 9790SOL    HW139684  11.876   4.587  10.100  0.1901 -2.6210  1.2028
 9790SOL    HW239685  11.917   4.599  10.246  0.7036  0.0960  0.8973
 9791SOL     OW39686   5.510   4.901   7.742 -0.0768  0.7320  0.4861
 9791SOL    HW139687   5.433   4.957   7.748 -0.2929  0.6134 -0.9263
 9791SOL    HW239688   5.482   4.817   7.777 -0.0905  1.1428  1.5084
 9792SOL     OW39689   8.916   7.612   7.569 -0.1593 -0.1814 -0.2532
 9792SOL    HW139690   8.827   7.647   7.561 -0.1815 -0.1409  0.1572
 9792SOL    HW239691   8.919   7.574   7.657  0.9622  1.9123  0.6834
 9793SOL     OW39692   4.836   6.711   5.910  0.0866  0.2814 -0.2176
 9793SOL    HW139693   4.741   6.699   5.904  0.3634 -1.8554 -1.5585
 9793SOL    HW239694   4.848   6.784   5.970 -2.4449  1.6059 -1.2150
 9794SOL     OW39695  12.153   4.806  10.134  0.4298 -0.8046 -0.0023
 9794SOL    HW139696  12.141   4.807  10.039 -2.5479  0.1716  0.2560
 9794SOL    HW239697  12.095   4.736  10.164  0.5063 -0.3800  1.1543
 9795SOL     OW39698   6.347   2.944   1.998 -0.2235  0.5961 -0.2712
 9795SOL    HW139699   6.387   2.963   1.913 -0.3372  1.5060 -0.1358
 9795SOL    HW239700   6.254   2.964   1.987 -0.3789 -0.0347 -0.1484
 9796SOL     OW39701   5.272   5.719  10.489 -0.1376  0.5809  0.5316
 9796SOL    HW139702   5.356   5.765  10.499 -0.3329  1.4065 -1.3344
 9796SOL    HW239703   5.290   5.631  10.522  2.5016 -0.3382 -2.8196
 9797SOL     OW39704  10.861   6.566   0.490  0.0780  0.3112 -0.1598
 9797SOL    HW139705  10.853   6.545   0.397  0.5396  0.9598 -0.3561
 9797SOL    HW239706  10.816   6.650   0.500 -0.1999  0.1168  0.2555
 9798SOL     OW39707   7.027   7.968  10.595 -0.1739  0.1279  0.3430
 9798SOL    HW139708   7.054   8.058  10.616 -0.9082  0.5580 -0.4869
 9798SOL    HW239709   7.099   7.913  10.628  0.1266  0.9823  1.1805
 9799SOL     OW39710   9.512   9.573   8.638  0.5968  0.5766  0.1567
 9799SOL    HW139711   9.447   9.502   8.633  1.0280  0.1806  0.0691
 9799SOL    HW239712   9.490   9.619   8.719  0.4222  0.2255  0.3164
 9800SOL     OW39713   4.177  10.451   8.956 -0.6834 -0.2911  0.0690
 9800SOL    HW139714   4.228  10.530   8.937 -2.1693  0.4576 -1.0099
 9800SOL    HW239715   4.241  10.388   8.989  0.6425  1.1472  0.3301
 9801SOL     OW39716   0.204   9.530  11.018 -0.3059  0.2451  0.2066
 9801SOL    HW139717   0.224   9.513  10.926  1.6894 -0.9148  0.7948
 9801SOL    HW239718   0.223   9.623  11.031 -0.1909  0.3105 -0.4399
 9802SOL     OW39719   2.425   9.101   8.759  0.1751  0.1010 -0.9821
 9802SOL    HW139720   2.480   9.050   8.698 -1.6800 -0.6715 -2.1073
 9802SOL    HW239721   2.357   9.040   8.786  0.0610  0.9158  0.6914
 9803SOL     OW39722  12.893  10.984   8.693  0.0210 -0.6375  0.1674
 9803SOL    HW139723  12.814  11.008   8.740  0.9742  0.8120  1.0952
 9803SOL    HW239724  12.963  11.036   8.733  1.1562 -0.4996 -1.8200
 9804SOL     OW39725  11.918   1.725   9.184  0.3184  0.4746 -0.5188
 9804SOL    HW139726  11.931   1.631   9.177 -0.4566  0.2029  1.3026
 9804SOL    HW239727  12.006   1.761   9.193  0.5385 -0.2425  0.3182
 9805SOL     OW39728   2.225  11.420   7.315 -0.4469 -0.0670  0.3401
 9805SOL    HW139729   2.268  11.343   7.351 -0.9584  0.0051  1.1288
 9805SOL    HW239730   2.163  11.447   7.383 -0.2245  1.0792  0.1194
 9806SOL     OW39731  12.067   4.729   9.875  0.8309  0.1757  0.0767
 9806SOL    HW139732  11.981   4.770   9.861  1.9929  2.7521 -0.1801
 9806SOL    HW239733  12.048   4.636   9.885 -1.9119  0.5555 -0.6983
 9807SOL     OW39734  10.667   4.640   6.637 -0.2377  0.5158 -1.0539
 9807SOL    HW139735  10.635   4.562   6.681  0.4354 -0.6386 -2.5291
 9807SOL    HW239736  10.636   4.713   6.691  0.2161 -0.7914  1.0753
 9808SOL     OW39737   4.491   1.690   4.102 -0.3511  0.2596 -0.3064
 9808SOL    HW139738   4.527   1.601   4.096  1.2159  0.7847  0.7496
 9808SOL    HW239739   4.438   1.689   4.181 -0.9216  0.0879 -0.6825
 9809SOL     OW39740   6.507   8.424   3.863 -1.3397 -0.0183  0.2702
 9809SOL    HW139741   6.412   8.432   3.856 -1.2836  0.1736 -0.3773
 9809SOL    HW239742   6.521   8.367   3.938 -1.9291  0.9521  1.1526
 9810SOL     OW39743   7.277   9.141   7.372 -0.4631  0.3333  0.5967
 9810SOL    HW139744   7.227   9.204   7.424  0.8888  0.3404  1.9725
 9810SOL    HW239745   7.360   9.132   7.419 -0.6860 -2.6730  0.6335
 9811SOL     OW39746   7.924   7.900   8.370 -0.1388  0.1555 -0.3899
 9811SOL    HW139747   7.830   7.883   8.361  0.1913 -0.4521 -3.6886
 9811SOL    HW239748   7.955   7.831   8.428 -1.5799 -0.0156  0.2304
 9812SOL     OW39749   4.241   7.635   7.687  0.4626 -0.1613 -0.3997
 9812SOL    HW139750   4.214   7.686   7.610 -0.3992 -0.1768 -0.1193
 9812SOL    HW239751   4.334   7.617   7.672  0.5656  0.7173 -0.9410
 9813SOL     OW39752   2.968   8.020   2.168 -0.2101 -0.0722  0.4349
 9813SOL    HW139753   2.982   8.089   2.103  2.5298  0.7375  1.7721
 9813SOL    HW239754   3.051   7.973   2.171 -0.4362 -0.4345  2.9449
 9814SOL     OW39755  12.672   4.767   7.627 -0.5668 -0.4840 -0.6241
 9814SOL    HW139756  12.637   4.813   7.703 -0.0628 -2.1114  0.6644
 9814SOL    HW239757  12.746   4.821   7.598 -0.4434 -0.0990  0.3761
 9815SOL     OW39758   0.309   4.212   5.865 -0.0571  0.2006 -0.0265
 9815SOL    HW139759   0.327   4.276   5.934  0.5122 -0.4374  0.4354
 9815SOL    HW239760   0.392   4.166   5.853  0.0654  0.7969 -1.6820
 9816SOL     OW39761  10.849   7.394  12.642  0.2018 -0.2243 -0.0586
 9816SOL    HW139762  10.927   7.350  12.675  0.3730  1.2702  1.7036
 9816SOL    HW239763  10.882   7.470  12.594 -0.1300  0.9002  1.4258
 9817SOL     OW39764  10.718   4.688   2.498  0.1619 -0.6019 -0.2294
 9817SOL    HW139765  10.752   4.753   2.559 -1.2581  1.0076 -1.0554
 9817SOL    HW239766  10.624   4.706   2.493  0.2423 -0.4704 -3.0601
 9818SOL     OW39767   1.767  11.188   3.587 -0.2675 -0.8743 -0.5378
 9818SOL    HW139768   1.737  11.153   3.671  2.9789 -1.2133  0.6129
 9818SOL    HW239769   1.757  11.283   3.596  0.8928 -0.8427  0.6322
 9819SOL     OW39770   0.522  10.473   9.003  0.5011 -0.4263 -0.0285
 9819SOL    HW139771   0.537  10.563   8.973  0.1683 -0.2526  0.3160
 9819SOL    HW239772   0.496  10.425   8.925  2.0345 -0.5524 -0.4975
 9820SOL     OW39773   1.707   1.403   9.742 -0.2720  0.1553 -0.1562
 9820SOL    HW139774   1.672   1.481   9.699 -0.2265 -0.3879 -1.1902
 9820SOL    HW239775   1.765   1.363   9.677 -0.7553 -1.0709  0.1398
 9821SOL     OW39776   1.835   2.123   9.404  0.2011  0.1055  0.0541
 9821SOL    HW139777   1.917   2.074   9.411  1.0762  1.1439 -2.1550
 9821SOL    HW239778   1.832   2.153   9.314 -1.4351  2.1870  0.7201
 9822SOL     OW39779   6.876  11.842   8.371 -0.2914 -0.4057  0.1314
 9822SOL    HW139780   6.820  11.789   8.427 -0.6967 -0.0991  0.0169
 9822SOL    HW239781   6.965  11.826   8.405 -0.5273 -0.2438  0.8425
 9823SOL     OW39782   7.356  12.378   2.639  0.1822 -0.0983  0.1901
 9823SOL    HW139783   7.445  12.359   2.669 -0.1647  0.2277  1.5044
 9823SOL    HW239784   7.308  12.296   2.653  0.3025 -0.3333 -0.6983
 9824SOL     OW39785  10.919   6.948   1.156 -0.2505 -0.4523 -0.5527
 9824SOL    HW139786  10.965   6.868   1.129  1.5014  0.2709  0.1067
 9824SOL    HW239787  10.904   6.936   1.250 -1.4531 -0.6752 -0.7603
 9825SOL     OW39788  10.924   0.009   4.505  0.3604 -0.3655 -0.6033
 9825SOL    HW139789  10.860   0.079   4.518  0.4387  0.1100 -2.5011
 9825SOL    HW239790  10.870  -0.068   4.484  0.3628 -0.0878 -1.6863
 9826SOL     OW39791   2.877   4.450   8.272  0.6860 -0.0922 -0.2413
 9826SOL    HW139792   2.966   4.420   8.288  0.1478 -0.6807  1.9799
 9826SOL    HW239793   2.835   4.379   8.224  0.6650 -1.0719  1.1635
 9827SOL     OW39794  12.533   9.125   7.952 -0.2536 -0.1689 -0.1016
 9827SOL    HW139795  12.533   9.093   7.862  1.3840  0.2364 -0.2799
 9827SOL    HW239796  12.441   9.138   7.973 -0.9158 -3.2973 -0.5875
 9828SOL     OW39797  11.353   6.001   6.371 -0.1602  0.0456 -0.4686
 9828SOL    HW139798  11.333   6.085   6.412 -0.2268  0.1215 -0.6532
 9828SOL    HW239799  11.306   6.003   6.287 -0.2693 -0.2301 -0.4176
 9829SOL     OW39800  11.677   1.620   6.484 -0.5640 -0.1891  0.6480
 9829SOL    HW139801  11.673   1.715   6.482  0.1020 -0.1647  0.2117
 9829SOL    HW239802  11.604   1.592   6.429 -0.3698  0.0824  0.2484
 9830SOL     OW39803   7.118   9.880  12.895 -0.4963  0.9383  0.4060
 9830SOL    HW139804   7.203   9.926  12.889 -0.0205  0.2070  1.3409
 9830SOL    HW239805   7.120   9.818  12.823 -0.1482  0.7953  0.5333
 9831SOL     OW39806   2.253   7.143  12.868  0.4087  0.3982 -0.1027
 9831SOL    HW139807   2.170   7.099  12.848 -0.9623  3.0548 -0.6405
 9831SOL    HW239808   2.312   7.114  12.799  0.0003 -1.5775  0.3087
 9832SOL     OW39809   4.611   4.691   6.663 -0.2060 -0.2097 -0.2255
 9832SOL    HW139810   4.576   4.688   6.574 -0.0318  0.1203 -0.3072
 9832SOL    HW239811   4.575   4.772   6.700 -0.4793 -0.4748  0.0886
 9833SOL     OW39812   0.048  10.270   9.383  0.8842 -0.4108  0.0134
 9833SOL    HW139813  -0.024  10.207   9.383 -1.9590  2.5618  1.0080
 9833SOL    HW239814   0.077  10.274   9.292 -1.0360 -0.8323 -0.6613
 9834SOL     OW39815   4.085   8.106   2.835 -0.6989  0.0358  0.2775
 9834SOL    HW139816   4.038   8.140   2.759 -1.2226 -0.3717  0.4096
 9834SOL    HW239817   4.028   8.125   2.909  1.8190  4.7985  1.3955
 9835SOL     OW39818   2.521   5.578   6.636 -0.1551  0.3072 -0.0453
 9835SOL    HW139819   2.511   5.569   6.731 -0.3087 -0.1631 -0.1008
 9835SOL    HW239820   2.458   5.515   6.599  0.3380  0.0353 -0.4464
 9836SOL     OW39821   2.918   2.467  12.616 -0.5595  0.1559 -0.1834
 9836SOL    HW139822   2.919   2.382  12.571 -3.4425  0.5327 -1.1459
 9836SOL    HW239823   2.958   2.527  12.553 -1.2539  0.0310 -0.7508
 9837SOL     OW39824   1.044   8.617   5.617 -0.1692  0.0839  0.5079
 9837SOL    HW139825   1.046   8.590   5.709 -0.6534  0.6994  0.7128
 9837SOL    HW239826   1.107   8.689   5.612  0.2492 -0.2976  0.2332
 9838SOL     OW39827   8.992   1.308   2.716  0.5356 -0.3193 -0.3778
 9838SOL    HW139828   8.966   1.222   2.750  0.5277 -0.5817 -1.0353
 9838SOL    HW239829   9.020   1.291   2.626  1.9861  0.1233 -0.0281
 9839SOL     OW39830  12.031   6.987   8.265 -0.2002 -0.7823 -0.2318
 9839SOL    HW139831  12.018   7.082   8.258 -0.9177 -0.8152  0.5105
 9839SOL    HW239832  12.085   6.976   8.343  1.5392 -0.8783 -1.4027
 9840SOL     OW39833  11.798  11.367   3.228 -0.1118 -0.0463 -0.2924
 9840SOL    HW139834  11.704  11.350   3.230  0.1317 -1.4517  1.0765
 9840SOL    HW239835  11.814  11.421   3.305  0.2619 -0.0784 -0.3476
 9841SOL     OW39836   0.129   1.778  12.882  0.0075  0.3662  0.2076
 9841SOL    HW139837   0.039   1.748  12.888  0.1694 -0.1932 -0.1149
 9841SOL    HW239838   0.174   1.711  12.830  1.2230 -0.7048  2.5083
 9842SOL     OW39839   3.257  10.710   4.652  0.1179  0.0414  0.4993
 9842SOL    HW139840   3.306  10.636   4.617 -0.8433 -0.2521 -0.2695
 9842SOL    HW239841   3.181  10.671   4.695  0.8342  0.4516  2.2313
 9843SOL     OW39842   5.178   7.287  11.055  0.0088 -0.6917 -0.0618
 9843SOL    HW139843   5.243   7.355  11.040 -1.2476  0.4204 -0.6546
 9843SOL    HW239844   5.189   7.263  11.147 -0.0848  0.9301  0.3972
 9844SOL     OW39845   4.791   2.765   6.295  0.2557  0.2455 -0.1175
 9844SOL    HW139846   4.865   2.712   6.323 -0.0374 -0.0124  0.1817
 9844SOL    HW239847   4.757   2.720   6.218  0.1333  0.1122  0.0139
 9845SOL     OW39848   9.947   2.338   8.887 -0.2146 -0.4124 -0.0762
 9845SOL    HW139849   9.854   2.324   8.869 -0.0997  0.2629 -1.3774
 9845SOL    HW239850   9.975   2.399   8.818  1.6159 -2.0385 -0.8570
 9846SOL     OW39851   0.819   1.440   9.303 -0.6677  0.2695 -0.6663
 9846SOL    HW139852   0.743   1.497   9.291 -0.9800  0.0634  0.2280
 9846SOL    HW239853   0.826   1.429   9.398 -0.3772 -0.8723 -0.8028
 9847SOL     OW39854   1.168   7.352   1.865 -0.2483 -0.0011  0.7414
 9847SOL    HW139855   1.198   7.349   1.955 -0.1131  3.2166  0.9179
 9847SOL    HW239856   1.167   7.446   1.843  0.8124 -0.7081 -2.9662
 9848SOL     OW39857   3.500  10.459   5.877 -0.5002 -0.5357 -0.2986
 9848SOL    HW139858   3.561  10.433   5.808 -0.9844 -1.4392 -0.4086
 9848SOL    HW239859   3.533  10.416   5.956  0.3763  0.9500  0.1888
 9849SOL     OW39860   5.179  12.172   8.067 -0.2892 -0.2533 -0.0519
 9849SOL    HW139861   5.234  12.109   8.021  0.1662 -1.2197  1.7241
 9849SOL    HW239862   5.238  12.245   8.087 -0.5926  0.3713 -1.2905
 9850SOL     OW39863   2.349  12.943   5.537 -0.0661  0.1397  0.3135
 9850SOL    HW139864   2.292  12.902   5.472  0.7424 -0.2719 -0.1593
 9850SOL    HW239865   2.378  13.025   5.496  0.1858  0.0361  0.2793
 9851SOL     OW39866  12.241   0.419   7.699  0.3967 -0.4031 -0.5924
 9851SOL    HW139867  12.159   0.449   7.661  0.8803  0.4103 -1.0213
 9851SOL    HW239868  12.251   0.329   7.667 -0.5825 -0.7006 -0.0932
 9852SOL     OW39869   8.573  10.662  12.079 -0.1360  0.1951 -0.0103
 9852SOL    HW139870   8.612  10.712  12.007  0.2829  2.9252  1.9384
 9852SOL    HW239871   8.484  10.643  12.049 -0.6964  3.0895 -0.5746
 9853SOL     OW39872   2.824   4.607   2.752  0.6161  0.7664  0.5600
 9853SOL    HW139873   2.834   4.512   2.755 -0.7493  0.5561 -0.4802
 9853SOL    HW239874   2.746   4.621   2.698  1.1572  2.4983  0.1601
 9854SOL     OW39875   5.446   8.437   2.873 -0.1287 -0.0093 -0.3195
 9854SOL    HW139876   5.479   8.402   2.956 -2.0958  1.6144  1.2762
 9854SOL    HW239877   5.406   8.521   2.897 -0.1825  0.8350 -3.0603
 9855SOL     OW39878   8.934   5.208   0.908 -0.0748  0.0315  0.4240
 9855SOL    HW139879   8.872   5.230   0.978 -0.1109  3.8519 -0.5580
 9855SOL    HW239880   9.018   5.199   0.952 -0.4382  0.3019  1.1970
 9856SOL     OW39881   5.408   3.440   0.573 -0.1133  0.3386  0.0294
 9856SOL    HW139882   5.410   3.506   0.643 -1.7982 -0.0776  0.5196
 9856SOL    HW239883   5.315   3.434   0.550  0.1602 -1.0882 -0.7598
 9857SOL     OW39884   1.919   3.752   3.348  0.3980 -0.1230 -0.4451
 9857SOL    HW139885   1.949   3.824   3.403 -0.3010  1.3324 -1.8727
 9857SOL    HW239886   1.844   3.715   3.394 -0.4350  1.3386 -0.5584
 9858SOL     OW39887  10.048  12.919   3.622 -0.2477  0.3610 -0.0851
 9858SOL    HW139888  10.083  13.001   3.587 -0.0541  0.3944  0.1860
 9858SOL    HW239889  10.124  12.862   3.629 -0.2518  0.4224  0.4765
 9859SOL     OW39890  10.848   6.088   6.433 -0.1799 -0.1377 -0.1186
 9859SOL    HW139891  10.777   6.099   6.370 -0.7625 -0.3307  0.4999
 9859SOL    HW239892  10.924   6.128   6.391 -0.5142 -0.4404 -1.0250
 9860SOL     OW39893   8.222   9.117  12.082 -0.2536  0.0553  0.0688
 9860SOL    HW139894   8.139   9.144  12.121 -0.2544  0.3358 -0.1244
 9860SOL    HW239895   8.279   9.098  12.156 -0.1956  0.7675  0.2098
 9861SOL     OW39896   5.071  12.233   9.212 -0.0783  0.0080 -0.2166
 9861SOL    HW139897   5.149  12.189   9.248  0.3171 -0.6115 -1.7358
 9861SOL    HW239898   5.066  12.315   9.260  1.4320 -0.0128  0.0494
 9862SOL     OW39899   6.912   9.814   4.783 -0.5280 -0.2278 -0.3089
 9862SOL    HW139900   7.000   9.777   4.774  0.0370  0.9954 -0.0219
 9862SOL    HW239901   6.879   9.776   4.865 -0.1920 -0.5392 -0.3151
 9863SOL     OW39902   9.514   4.527   5.927 -0.7104 -0.6421 -0.8243
 9863SOL    HW139903   9.458   4.529   5.850 -0.9934 -0.4092 -0.6162
 9863SOL    HW239904   9.478   4.456   5.981 -0.3550 -0.9743 -1.0220
 9864SOL     OW39905   6.073   6.490   8.815 -0.5958 -0.1939 -0.3456
 9864SOL    HW139906   6.046   6.579   8.791 -0.3095  0.4286  1.5194
 9864SOL    HW239907   6.116   6.457   8.736 -0.8389  1.2580 -1.1276
 9865SOL     OW39908   6.794   2.351   3.180 -0.5723  0.0278 -0.0992
 9865SOL    HW139909   6.758   2.390   3.260 -1.9422  0.1960 -0.7740
 9865SOL    HW239910   6.867   2.408   3.156  0.4750 -0.5490  1.5277
 9866SOL     OW39911   4.315   5.223   6.823 -0.7563  0.4792 -0.5906
 9866SOL    HW139912   4.267   5.263   6.896 -0.7129  1.2494 -0.9738
 9866SOL    HW239913   4.403   5.206   6.858 -1.0472 -0.1214 -0.1525
 9867SOL     OW39914  11.139   0.407  10.762  0.3930  0.1909  0.1485
 9867SOL    HW139915  11.155   0.387  10.670 -0.7181 -1.8439  0.3347
 9867SOL    HW239916  11.098   0.328  10.797  0.5195  1.0171  2.3344
 9868SOL     OW39917   3.940   5.477   3.961 -0.1382 -0.0564 -0.8387
 9868SOL    HW139918   3.855   5.512   3.934  1.0657  1.7982 -2.4704
 9868SOL    HW239919   3.949   5.504   4.052 -2.6156 -3.1197  0.5138
 9869SOL     OW39920   8.085   8.138   7.335 -0.4515 -0.3810  0.0417
 9869SOL    HW139921   8.004   8.145   7.386 -0.6595  1.8702 -0.4785
 9869SOL    HW239922   8.122   8.226   7.337  3.3135 -1.7645  2.2472
 9870SOL     OW39923   5.222   8.333  10.836  0.7801  0.3157 -0.4076
 9870SOL    HW139924   5.259   8.262  10.785  0.2462  0.2172 -0.6671
 9870SOL    HW239925   5.247   8.412  10.789  1.9417  0.3509  0.2417
 9871SOL     OW39926  10.848   9.095   4.802 -0.3154  0.2622 -0.0248
 9871SOL    HW139927  10.782   9.055   4.745 -0.8797 -0.7542  1.2919
 9871SOL    HW239928  10.855   9.035   4.876  0.7977  1.2762  0.7221
 9872SOL     OW39929   5.104   1.412   5.313 -0.2978  0.3451  0.3104
 9872SOL    HW139930   5.142   1.329   5.284  0.3209 -0.0514  2.1001
 9872SOL    HW239931   5.036   1.431   5.249  1.1519 -0.2803 -1.5102
 9873SOL     OW39932   5.831  10.358   0.870 -0.0835  0.0258 -0.0298
 9873SOL    HW139933   5.784  10.422   0.817 -0.4428  0.9638  1.3582
 9873SOL    HW239934   5.765  10.295   0.896 -0.0600 -0.0242 -0.0893
 9874SOL     OW39935   8.425  12.355   0.191  0.0222 -0.0229 -0.0292
 9874SOL    HW139936   8.350  12.400   0.150  0.4184 -0.1751 -0.9600
 9874SOL    HW239937   8.443  12.282   0.132  1.1203  0.2119  0.0075
 9875SOL     OW39938   4.731   7.353   2.976 -0.1204 -0.3385 -0.2404
 9875SOL    HW139939   4.690   7.383   2.896  0.0657  0.7782  0.0672
 9875SOL    HW239940   4.761   7.433   3.020  0.9085 -1.0073  0.3287
 9876SOL     OW39941   1.255   7.097   1.787 -0.1898  0.0321 -0.2691
 9876SOL    HW139942   1.235   7.182   1.824 -1.4809 -0.3070 -0.1397
 9876SOL    HW239943   1.215   7.098   1.700 -1.2740 -0.8588  0.1966
 9877SOL     OW39944  11.234   7.928  11.745 -0.2040  0.2681 -0.2761
 9877SOL    HW139945  11.149   7.970  11.756 -1.0060 -1.6003  1.2669
 9877SOL    HW239946  11.225   7.844  11.790  2.5189  0.0717  0.0665
 9878SOL     OW39947   0.770  11.865  11.676  0.0101  0.2086  0.1333
 9878SOL    HW139948   0.705  11.889  11.742 -0.6061  0.2065 -0.4610
 9878SOL    HW239949   0.843  11.924  11.691 -0.0445  0.0753  0.9455
 9879SOL     OW39950   0.255   5.773   0.397 -0.0498  0.4170  0.1748
 9879SOL    HW139951   0.317   5.768   0.469  1.7941  0.8294 -1.3061
 9879SOL    HW239952   0.192   5.703   0.414 -0.4414  1.2917  2.7977
 9880SOL     OW39953   9.681   4.511   8.855 -0.5271  0.1241 -0.2240
 9880SOL    HW139954   9.699   4.566   8.932  0.1359 -0.7293  0.2473
 9880SOL    HW239955   9.679   4.422   8.889 -2.1771 -0.1276 -0.8808
 9881SOL     OW39956   2.720   2.925   4.941  0.2401 -0.4986 -0.0276
 9881SOL    HW139957   2.686   2.960   5.024  1.1170  0.4302 -0.0416
 9881SOL    HW239958   2.677   2.840   4.932 -2.8294  0.9967 -0.5584
 9882SOL     OW39959  10.019  11.962   9.614 -0.4383  0.1562 -0.6080
 9882SOL    HW139960   9.989  11.963   9.523  1.0917 -1.2684 -1.1754
 9882SOL    HW239961  10.064  11.879   9.624  0.7680  0.9427  1.0109
 9883SOL     OW39962   6.418  12.415   7.738 -0.9408  0.2697  0.0144
 9883SOL    HW139963   6.465  12.483   7.690 -2.9450  1.5141 -0.2847
 9883SOL    HW239964   6.484  12.378   7.797  0.5371  1.5568 -0.7566
 9884SOL     OW39965   2.339  12.134  10.728 -0.6279 -0.5116  0.5688
 9884SOL    HW139966   2.261  12.123  10.674  0.2199  0.6664 -0.9633
 9884SOL    HW239967   2.412  12.141  10.666  0.3379  1.3666  1.8129
 9885SOL     OW39968   5.256   4.448   6.394 -0.0369 -0.5582  0.0196
 9885SOL    HW139969   5.171   4.418   6.361 -0.5742  1.5335 -0.6452
 9885SOL    HW239970   5.258   4.418   6.485 -1.0167 -1.5442 -0.2646
 9886SOL     OW39971   2.495   2.064   2.919  0.7196  0.1852 -0.4691
 9886SOL    HW139972   2.457   1.988   2.963  0.8854  0.4346  0.1258
 9886SOL    HW239973   2.583   2.071   2.956  1.3565 -0.3702 -1.8098
 9887SOL     OW39974   3.049   9.794   3.824 -0.0705  0.2516 -0.0060
 9887SOL    HW139975   2.960   9.761   3.819  1.1752 -3.5919 -0.0966
 9887SOL    HW239976   3.064   9.836   3.739 -1.3310 -0.3849 -0.5601
 9888SOL     OW39977   1.952  10.741   1.652 -0.2905 -0.0170  0.5176
 9888SOL    HW139978   1.873  10.795   1.646  1.5457  2.7766 -1.1570
 9888SOL    HW239979   1.980  10.749   1.743 -0.2973  1.6086  0.4071
 9889SOL     OW39980   1.607   8.903   5.557 -0.0769 -0.1365 -0.6851
 9889SOL    HW139981   1.570   8.952   5.630  0.6351  0.2433 -0.5721
 9889SOL    HW239982   1.630   8.970   5.493  0.4385 -0.3639 -0.7401
 9890SOL     OW39983   3.095   2.341   4.521  0.1487  0.4245 -0.2178
 9890SOL    HW139984   3.186   2.361   4.500  0.1997  1.2407  0.7031
 9890SOL    HW239985   3.099   2.290   4.602 -0.1800 -0.2478 -0.6173
 9891SOL     OW39986   0.914   5.474   1.169 -0.2585  0.1812 -0.0490
 9891SOL    HW139987   0.935   5.552   1.118 -0.3413 -0.5155 -1.1899
 9891SOL    HW239988   0.872   5.415   1.106  0.6248 -1.1352  0.5503
 9892SOL     OW39989   9.945   2.375   6.257  0.1204 -0.2321 -0.6287
 9892SOL    HW139990   9.920   2.334   6.175  0.1034 -0.8454 -0.3220
 9892SOL    HW239991   9.974   2.463   6.233 -1.0344  0.0281 -1.1560
 9893SOL     OW39992  10.967   1.076   3.995  0.1675  0.8271  0.1859
 9893SOL    HW139993  10.909   1.036   4.060  0.3203  0.3221  0.0164
 9893SOL    HW239994  11.026   1.132   4.046  0.4382  0.2536  0.5146
 9894SOL     OW39995   2.997   0.849  12.691 -0.2656 -0.0471 -1.0412
 9894SOL    HW139996   2.919   0.794  12.694 -0.0805 -0.2746  0.0914
 9894SOL    HW239997   3.041   0.833  12.774  0.0164  1.5026 -0.8505
 9895SOL     OW39998   1.473  10.911   1.085 -0.0968  1.0130 -0.8937
 9895SOL    HW139999   1.470  10.816   1.084  1.6363  0.9336 -1.3466
 9895SOL    HW240000   1.384  10.938   1.061 -0.7232 -0.4671 -0.3124
 9896SOL     OW40001  11.854   5.620  11.909 -0.0997  0.0123 -0.0897
 9896SOL    HW140002  11.842   5.715  11.904  0.8814  0.0905 -1.9964
 9896SOL    HW240003  11.939   5.608  11.951 -0.5358 -0.0540  0.7814
 9897SOL     OW40004   7.075  12.900   5.407  0.4902 -0.1288  0.0912
 9897SOL    HW140005   7.079  12.855   5.322  1.6167 -0.0366  0.0811
 9897SOL    HW240006   7.127  12.845   5.465  0.7600  0.4645  0.4096
 9898SOL     OW40007   0.929   7.041   8.243  0.6451 -0.5518  0.0652
 9898SOL    HW140008   0.848   6.992   8.227 -0.2632  0.3461  1.6531
 9898SOL    HW240009   0.903   7.133   8.238  2.2834 -0.0948 -2.6852
 9899SOL     OW40010  11.849   2.645   7.452 -0.2720 -0.3463 -0.0781
 9899SOL    HW140011  11.825   2.569   7.505 -2.3217 -0.6683 -1.3727
 9899SOL    HW240012  11.814   2.626   7.365  2.3695  0.4594 -1.4462
 9900SOL     OW40013   5.000  11.887  12.673 -0.0414  0.1686 -0.0379
 9900SOL    HW140014   4.912  11.914  12.650 -0.1650 -0.1025  0.1129
 9900SOL    HW240015   4.989  11.825  12.745  0.3405  1.0538  0.8159
 9901SOL     OW40016   2.204   2.193   5.877  0.3570  0.0090 -0.1164
 9901SOL    HW140017   2.230   2.238   5.958  0.1181 -0.3389  0.1568
 9901SOL    HW240018   2.211   2.261   5.809 -0.5610  0.6290  0.3865
 9902SOL     OW40019  11.245   4.962   0.593 -0.4919  0.1255 -0.1618
 9902SOL    HW140020  11.201   4.877   0.590  0.5764 -0.4563  0.1668
 9902SOL    HW240021  11.174   5.026   0.580 -1.2967 -0.8059 -0.5167
 9903SOL     OW40022   8.455  10.495   1.551  0.0306 -0.4252  0.5623
 9903SOL    HW140023   8.380  10.470   1.497 -0.8023 -1.6856  2.2077
 9903SOL    HW240024   8.489  10.574   1.510 -0.8420 -1.0419 -1.4998
 9904SOL     OW40025  11.344   2.667   3.256 -0.2405  0.0876 -0.1949
 9904SOL    HW140026  11.401   2.737   3.222  1.0307 -0.7151  0.2136
 9904SOL    HW240027  11.327   2.611   3.180 -0.9481  0.6221 -0.4384
 9905SOL     OW40028   3.064   6.126   8.331  0.0343  0.4042  0.9057
 9905SOL    HW140029   3.138   6.124   8.269 -0.3212  1.4950  0.4192
 9905SOL    HW240030   3.064   6.039   8.371  1.3779  0.2726  0.6712
 9906SOL     OW40031   9.670   2.954   7.040  0.4042 -0.1412  0.8043
 9906SOL    HW140032   9.734   2.939   6.970  1.0098 -1.6742  1.6315
 9906SOL    HW240033   9.719   3.001   7.107  0.4397 -0.5984  1.1005
 9907SOL     OW40034   9.798   0.226  11.054  0.0934  0.0548  0.0396
 9907SOL    HW140035   9.773   0.134  11.045  1.1934 -0.2228 -0.3403
 9907SOL    HW240036   9.842   0.247  10.972 -0.2715  0.9649  0.0668
 9908SOL     OW40037  10.150  11.767  10.629 -0.0959  0.5320 -0.3410
 9908SOL    HW140038  10.078  11.784  10.568  0.1211 -0.5691 -0.9453
 9908SOL    HW240039  10.107  11.748  10.712 -0.6689 -1.9175 -1.1104
 9909SOL     OW40040  12.272   5.581   8.039  0.4080 -0.0677 -0.2673
 9909SOL    HW140041  12.288   5.487   8.041  2.7757  0.1122 -3.2319
 9909SOL    HW240042  12.359   5.620   8.035 -0.5164  2.2901  0.5799
 9910SOL     OW40043  11.811   7.733  12.349  0.3097 -0.0747 -0.4425
 9910SOL    HW140044  11.835   7.735  12.257 -0.1050  1.6535 -0.5405
 9910SOL    HW240045  11.846   7.814  12.386  0.6009 -0.8024  0.9705
 9911SOL     OW40046  12.764   2.886   6.028  0.4313 -0.0369 -0.0669
 9911SOL    HW140047  12.731   2.975   6.043 -0.0958 -0.4538  1.4491
 9911SOL    HW240048  12.691   2.838   5.990  0.0478 -0.3228  0.9959
 9912SOL     OW40049   4.890   2.208   1.908 -0.0263 -0.3189  0.2861
 9912SOL    HW140050   4.943   2.157   1.969  0.4431 -1.5195 -1.0571
 9912SOL    HW240051   4.954   2.252   1.851 -0.4455  0.9702  0.7729
 9913SOL     OW40052  11.889   7.715   1.683 -0.1656 -0.3836  0.1895
 9913SOL    HW140053  11.958   7.716   1.616  1.6944 -1.5361  1.9415
 9913SOL    HW240054  11.808   7.728   1.635  0.9985 -1.9295 -2.3976
 9914SOL     OW40055  11.452   4.281   2.133 -0.0414  0.5228  0.0046
 9914SOL    HW140056  11.474   4.354   2.075 -1.3349  1.1697  0.2887
 9914SOL    HW240057  11.474   4.314   2.221  2.6854 -0.7466 -0.1129
 9915SOL     OW40058  10.949  11.651   4.322  0.1508 -1.2897 -0.0774
 9915SOL    HW140059  10.928  11.683   4.234  2.2336 -1.8196 -0.8305
 9915SOL    HW240060  10.939  11.727   4.378 -0.2072 -0.6778 -0.9488
 9916SOL     OW40061   2.425   9.383   8.070 -0.9958 -0.3632  0.0772
 9916SOL    HW140062   2.380   9.467   8.082 -0.5883 -0.2074  0.5690
 9916SOL    HW240063   2.356   9.318   8.076 -1.1936 -0.1117  0.5812
 9917SOL     OW40064  10.434   8.819   8.676  0.2252 -0.0674  0.2232
 9917SOL    HW140065  10.344   8.788   8.672 -0.1086  0.8845  0.1342
 9917SOL    HW240066  10.447   8.845   8.767  0.1290  0.5842  0.0564
 9918SOL     OW40067  10.146   4.207  10.032 -0.1895 -0.3541  0.5850
 9918SOL    HW140068  10.144   4.160   9.948 -1.6583  0.6074  0.0455
 9918SOL    HW240069  10.236   4.239  10.039  0.0769 -0.8442 -0.4035
 9919SOL     OW40070   8.724   8.723   8.459 -0.1770  0.8339 -0.4046
 9919SOL    HW140071   8.805   8.704   8.506 -1.3024 -0.4198  1.1229
 9919SOL    HW240072   8.672   8.776   8.519 -0.8961  0.7915 -0.9749
 9920SOL     OW40073  11.974   7.861   5.990  0.0379 -0.2557  0.1504
 9920SOL    HW140074  11.958   7.795   5.923 -1.0322 -2.0861  2.1142
 9920SOL    HW240075  11.914   7.933   5.968 -0.7223 -1.0793 -0.5259
 9921SOL     OW40076   9.398   9.307   8.708  0.2459 -0.2707 -0.1053
 9921SOL    HW140077   9.379   9.214   8.722  1.6675 -0.9730 -2.3505
 9921SOL    HW240078   9.491   9.316   8.728 -0.0375  0.8706  0.8062
 9922SOL     OW40079   8.359   7.221   6.170 -0.5537 -0.2865 -0.1424
 9922SOL    HW140080   8.301   7.234   6.245 -1.2175 -1.7417 -0.3697
 9922SOL    HW240081   8.311   7.258   6.096  1.0616  3.3031  0.3804
 9923SOL     OW40082   9.046   2.916   3.890 -0.5476  0.1504  0.3457
 9923SOL    HW140083   8.982   2.984   3.910 -1.3727 -0.4671 -0.1427
 9923SOL    HW240084   9.008   2.836   3.927 -0.6541 -0.4490 -1.0275
 9924SOL     OW40085   7.025   1.426   4.500  0.2097  0.1919 -0.0100
 9924SOL    HW140086   7.073   1.414   4.418  0.8970  1.2428  0.2124
 9924SOL    HW240087   7.090   1.465   4.560 -0.4417 -0.0182  0.8529
 9925SOL     OW40088   8.905   5.398  10.441 -0.3482  0.1042  0.7366
 9925SOL    HW140089   8.883   5.420  10.351  0.4688 -0.1174  0.4695
 9925SOL    HW240090   8.840   5.333  10.467 -0.9011  0.5555  0.4872
 9926SOL     OW40091  10.243  10.063   8.775 -0.3070 -0.8285  0.0736
 9926SOL    HW140092  10.286  10.057   8.860  1.4385  2.0609 -0.4583
 9926SOL    HW240093  10.224  10.157   8.764 -4.7730 -1.5744 -0.8086
 9927SOL     OW40094   2.359   8.149   8.415  0.3977 -0.1894 -0.0746
 9927SOL    HW140095   2.382   8.067   8.372 -0.8139 -0.5068 -0.1549
 9927SOL    HW240096   2.264   8.155   8.406  0.3887  0.8804  0.5449
 9928SOL     OW40097  11.437   8.900   3.854  0.1196 -0.4292 -0.0377
 9928SOL    HW140098  11.438   8.926   3.762 -1.7499  1.2113  0.3424
 9928SOL    HW240099  11.457   8.980   3.902  0.0260 -1.0196  1.0112
 9929SOL     OW40100   5.958   6.217   6.854 -0.3096  0.4677 -0.5216
 9929SOL    HW140101   5.933   6.302   6.889  1.2716  1.3520 -1.4085
 9929SOL    HW240102   6.014   6.238   6.779  0.1045 -1.3499 -0.7586
 9930SOL     OW40103   6.533   9.535   3.173  0.3505 -0.0955 -0.1472
 9930SOL    HW140104   6.489   9.612   3.210  0.5885  1.2380 -2.4264
 9930SOL    HW240105   6.623   9.543   3.205  0.0824 -0.1578  0.6552
 9931SOL     OW40106  12.686   4.990  12.028 -0.2758  0.4131 -0.2299
 9931SOL    HW140107  12.711   5.026  12.113  1.6674 -1.1604 -0.0337
 9931SOL    HW240108  12.674   4.896  12.044  1.7242 -0.2360 -1.8875
 9932SOL     OW40109   1.132   9.448   9.355  0.5350 -0.5529 -0.3791
 9932SOL    HW140110   1.191   9.383   9.317  0.4496 -1.1155  0.4320
 9932SOL    HW240111   1.077   9.398   9.415  0.1279  0.1922 -0.1187
 9933SOL     OW40112  12.345   7.976   7.908  0.1692 -0.4765 -0.4840
 9933SOL    HW140113  12.348   7.998   8.001 -0.7341 -0.2429 -0.5058
 9933SOL    HW240114  12.263   7.929   7.896  0.4892 -0.9077 -1.0836
 9934SOL     OW40115   3.312   4.480  12.981  0.6956 -0.1556  0.0735
 9934SOL    HW140116   3.356   4.525  12.909  0.9278 -0.6922 -0.1291
 9934SOL    HW240117   3.284   4.396  12.943  1.6631 -0.8562  0.8574
 9935SOL     OW40118   0.475   7.689   5.236 -0.1850 -0.2298  0.2724
 9935SOL    HW140119   0.447   7.755   5.172 -1.2687  0.3715  1.3123
 9935SOL    HW240120   0.405   7.624   5.236 -0.3329 -0.0772  1.0405
 9936SOL     OW40121   3.744   3.140   2.204  0.3803 -0.3008 -0.0828
 9936SOL    HW140122   3.715   3.227   2.231  0.3103 -0.5430  0.6256
 9936SOL    HW240123   3.821   3.156   2.150 -0.8435  0.3367 -1.7201
 9937SOL     OW40124   5.877  12.729   1.903 -0.3063  0.2836  0.3595
 9937SOL    HW140125   5.887  12.711   1.997  0.6677 -2.3267 -0.1460
 9937SOL    HW240126   5.906  12.648   1.860  0.7161  1.9047 -2.2631
 9938SOL     OW40127  10.385   7.516   4.458 -0.9102 -0.0637 -0.4746
 9938SOL    HW140128  10.328   7.539   4.532 -1.9428 -0.1174 -1.2316
 9938SOL    HW240129  10.472   7.548   4.484 -1.7096  2.1203 -0.2407
 9939SOL     OW40130   1.793   4.723   8.363 -0.5452 -0.0904  0.9668
 9939SOL    HW140131   1.705   4.730   8.326 -0.2714 -1.3234  0.0313
 9939SOL    HW240132   1.838   4.802   8.333 -0.0466 -1.4594 -2.2562
 9940SOL     OW40133   5.470   8.724   8.479 -0.2593 -0.3303  0.2511
 9940SOL    HW140134   5.412   8.703   8.552 -1.8225  0.7556 -0.6272
 9940SOL    HW240135   5.519   8.800   8.508 -0.3364 -0.3543  0.4456
 9941SOL     OW40136   0.753   6.403  11.213  0.0071 -0.2514  0.0477
 9941SOL    HW140137   0.672   6.363  11.183 -0.5866  0.9736 -0.0654
 9941SOL    HW240138   0.765   6.370  11.302 -1.0478  0.1499  0.3549
 9942SOL     OW40139   8.233   0.212   9.649 -0.1354 -0.2351  0.0248
 9942SOL    HW140140   8.194   0.292   9.682 -1.9333 -1.1104  0.1283
 9942SOL    HW240141   8.213   0.146   9.715  0.6085 -0.9611 -0.4462
 9943SOL     OW40142   3.251   3.290   4.392  0.2497 -0.1278  0.0743
 9943SOL    HW140143   3.321   3.346   4.358 -1.2337  0.7648 -1.7351
 9943SOL    HW240144   3.287   3.201   4.385  0.6785  0.1589 -2.3738
 9944SOL     OW40145   0.145   5.986   3.949 -0.9923  0.3147 -0.9374
 9944SOL    HW140146   0.137   5.927   3.873  0.2667 -0.4792 -0.4837
 9944SOL    HW240147   0.086   5.948   4.014 -0.7308 -0.0416 -0.9021
 9945SOL     OW40148   9.458  12.188   2.064 -0.8126  0.2986 -0.2578
 9945SOL    HW140149   9.447  12.262   2.124 -0.6824  0.0148  0.1190
 9945SOL    HW240150   9.551  12.165   2.072 -0.9669 -0.2490  0.0351
 9946SOL     OW40151   7.663   2.386   6.559  0.4122 -0.2620 -0.5781
 9946SOL    HW140152   7.692   2.377   6.468 -2.2030  0.0788 -1.5137
 9946SOL    HW240153   7.581   2.434   6.554 -0.5666 -1.5042  1.8244
 9947SOL     OW40154  12.816   1.096   3.130  0.6256  0.8338 -0.4449
 9947SOL    HW140155  12.846   1.144   3.207 -0.5919 -1.6964  1.7809
 9947SOL    HW240156  12.737   1.050   3.160  0.6727 -1.0612 -2.8970
 9948SOL     OW40157   1.472   2.294   0.076  0.0793  0.4125 -0.0209
 9948SOL    HW140158   1.490   2.297  -0.018  1.8265 -0.2594  0.2445
 9948SOL    HW240159   1.459   2.385   0.102 -0.7982  0.5698 -0.9652
 9949SOL     OW40160  10.407   6.125  11.539  0.8222  0.6893  0.2748
 9949SOL    HW140161  10.439   6.122  11.449  0.9716  1.1049  0.3115
 9949SOL    HW240162  10.431   6.212  11.570 -0.8829  1.2571  0.1062
 9950SOL     OW40163  10.990   3.806   4.154 -0.1870  0.2603  0.1970
 9950SOL    HW140164  10.988   3.877   4.219  0.3648 -0.7442  1.3511
 9950SOL    HW240165  10.898   3.784   4.139 -0.3021 -0.5013  1.8184
 9951SOL     OW40166  10.633   7.408   9.239 -0.6432  0.5169 -0.3161
 9951SOL    HW140167  10.587   7.425   9.156 -0.9985  0.4630 -0.1325
 9951SOL    HW240168  10.607   7.318   9.262 -0.1640  0.3547 -0.3899
 9952SOL     OW40169  11.737   7.304  12.810  0.1825 -0.5887 -0.4465
 9952SOL    HW140170  11.830   7.286  12.794  0.4482  0.8719 -0.7100
 9952SOL    HW240171  11.734   7.339  12.898 -0.1797 -0.9388 -0.3146
 9953SOL     OW40172   5.635  11.578   6.661  0.1082 -0.1183 -0.2165
 9953SOL    HW140173   5.601  11.551   6.747  0.7651  1.0059  0.4297
 9953SOL    HW240174   5.609  11.670   6.653 -2.3699 -0.9039 -2.5014
 9954SOL     OW40175  10.650   0.250   4.775 -0.1323  0.2782  0.0732
 9954SOL    HW140176  10.657   0.287   4.863 -0.2625  0.0086  0.1978
 9954SOL    HW240177  10.556   0.247   4.758 -0.1108  0.2538 -0.0453
 9955SOL     OW40178   5.961   6.548  10.571 -0.2453  0.6573  0.4718
 9955SOL    HW140179   6.025   6.607  10.531 -0.9153  1.6734  0.8564
 9955SOL    HW240180   5.997   6.528  10.658  0.8634 -0.9829 -0.3212
 9956SOL     OW40181   0.970   8.895   2.901  0.3388 -0.8854 -0.7403
 9956SOL    HW140182   0.918   8.974   2.882 -1.8914 -1.9072  0.6063
 9956SOL    HW240183   1.050   8.928   2.942 -0.7712  0.7073  0.2752
 9957SOL     OW40184   1.778   2.776  10.068 -0.2663  0.3281  0.0783
 9957SOL    HW140185   1.821   2.733  10.141 -0.2438  0.5901  0.2221
 9957SOL    HW240186   1.847   2.790  10.004 -0.2051  0.4371  0.1667
 9958SOL     OW40187  10.693   6.816   6.664 -0.0077  0.6557  0.1223
 9958SOL    HW140188  10.771   6.811   6.720 -0.1807 -1.3074  0.2665
 9958SOL    HW240189  10.689   6.907   6.637  1.3052  1.1987  1.5870
 9959SOL     OW40190   5.559   9.500   0.914  0.6316 -0.2779  0.0180
 9959SOL    HW140191   5.576   9.591   0.892 -0.3556  0.1593  0.9679
 9959SOL    HW240192   5.573   9.495   1.008 -0.2861 -0.8683  0.1362
 9960SOL     OW40193   9.968   8.519   9.759  0.0728 -0.2813 -0.5856
 9960SOL    HW140194  10.009   8.577   9.823 -0.7741 -1.4833  1.1489
 9960SOL    HW240195  10.037   8.457   9.735  0.3873  0.1534 -0.8081
 9961SOL     OW40196  10.985   8.648   2.798 -0.1009 -0.3942 -0.2173
 9961SOL    HW140197  10.981   8.733   2.843 -2.0416 -0.8566  0.5839
 9961SOL    HW240198  11.050   8.661   2.728 -0.1187  1.6432  0.0799
 9962SOL     OW40199   6.379   5.901   6.635 -0.5156 -0.4229  0.1227
 9962SOL    HW140200   6.434   5.979   6.628  0.8890 -1.4882 -1.8159
 9962SOL    HW240201   6.289   5.933   6.634  0.0320  1.1771 -0.5122
 9963SOL     OW40202   3.919  11.493   1.375  0.0513 -0.2845  0.2859
 9963SOL    HW140203   3.910  11.410   1.327 -0.8883  0.3962 -0.7917
 9963SOL    HW240204   3.938  11.557   1.307  0.4668  0.4358  1.0710
 9964SOL     OW40205   2.146   5.786   5.018 -0.0786  0.2637 -0.5748
 9964SOL    HW140206   2.164   5.760   4.927  1.3566  0.4050 -0.3604
 9964SOL    HW240207   2.199   5.865   5.031 -1.2964  1.0023 -0.0074
 9965SOL     OW40208   4.617   4.032  12.848  0.0093  0.4841 -0.3931
 9965SOL    HW140209   4.700   4.065  12.883 -0.1606  0.4823  0.0285
 9965SOL    HW240210   4.550   4.075  12.903 -0.2289 -0.3348 -0.0309
 9966SOL     OW40211   4.502   6.492   2.887 -0.4524  0.6979  0.1552
 9966SOL    HW140212   4.409   6.507   2.870 -1.0420 -2.4209  0.0365
 9966SOL    HW240213   4.542   6.495   2.800 -0.4669  1.6975  0.1692
 9967SOL     OW40214   8.194   0.667   8.483  0.1133 -0.3703  0.0831
 9967SOL    HW140215   8.242   0.591   8.516  0.9821  0.3746  0.5688
 9967SOL    HW240216   8.216   0.737   8.544 -2.1021 -0.1452  0.7004
 9968SOL     OW40217   1.393   2.269   5.033 -0.9662 -0.2845 -0.4389
 9968SOL    HW140218   1.441   2.322   4.969 -0.6370 -0.5780 -0.4433
 9968SOL    HW240219   1.456   2.201   5.058 -0.5726  0.6733  1.3030
 9969SOL     OW40220   8.261   8.104  12.770 -0.4445  0.3388  0.4340
 9969SOL    HW140221   8.266   8.009  12.762  2.4508  0.5449 -2.0036
 9969SOL    HW240222   8.200   8.131  12.701  0.2119  0.3247 -0.1618
 9970SOL     OW40223   6.905   6.761   4.503  0.4115  0.4268 -0.0249
 9970SOL    HW140224   6.960   6.824   4.455 -0.7284  0.6857 -1.0246
 9970SOL    HW240225   6.959   6.682   4.507  1.0324  0.7963 -0.6303
 9971SOL     OW40226   0.078   9.034   6.634 -0.3138 -0.4140 -0.4305
 9971SOL    HW140227   0.024   9.089   6.577  1.4007 -0.9050 -2.6693
 9971SOL    HW240228   0.055   8.945   6.610  0.2016 -0.6300 -0.1229
 9972SOL     OW40229   2.303   8.932   4.433 -0.4579  0.2142 -0.1031
 9972SOL    HW140230   2.350   9.013   4.414 -0.9011  0.3297 -0.7787
 9972SOL    HW240231   2.368   8.863   4.421  0.0215  0.4814  0.8524
 9973SOL     OW40232  11.001   5.850   2.117 -0.5049 -0.0607 -0.4243
 9973SOL    HW140233  10.906   5.851   2.102 -0.6610 -0.1355  0.5090
 9973SOL    HW240234  11.021   5.939   2.147 -0.5499 -0.4925  0.9294
 9974SOL     OW40235   1.264   7.858   0.297  0.2978 -0.1484  0.0244
 9974SOL    HW140236   1.352   7.842   0.330  0.0199  0.7153  1.2411
 9974SOL    HW240237   1.262   7.952   0.278  0.2873 -0.5260 -2.0474
 9975SOL     OW40238   3.954   2.785   8.695  0.2986  0.0875  0.2863
 9975SOL    HW140239   3.924   2.823   8.778  1.2548 -0.0402  0.7122
 9975SOL    HW240240   3.948   2.691   8.708 -0.4431  0.0678 -0.1446
 9976SOL     OW40241   1.335   0.542   8.843 -0.5447  0.4134 -0.2186
 9976SOL    HW140242   1.249   0.504   8.824 -0.2767 -0.4570  0.2341
 9976SOL    HW240243   1.347   0.528   8.937  0.3432 -0.0211 -0.3863
 9977SOL     OW40244   2.449  12.458   1.436  0.1679  0.1612  0.2320
 9977SOL    HW140245   2.401  12.538   1.415  0.5435 -0.0732 -1.7078
 9977SOL    HW240246   2.393  12.388   1.403  0.5768 -0.2753  0.4544
 9978SOL     OW40247   9.566   9.971   3.497 -0.0478 -0.9046  0.0519
 9978SOL    HW140248   9.599   9.881   3.503  1.9654 -0.2210 -0.1550
 9978SOL    HW240249   9.471   9.961   3.495 -0.0578 -2.8843  3.1985
 9979SOL     OW40250   8.874   8.787   6.424 -0.1187 -0.2137 -0.4965
 9979SOL    HW140251   8.861   8.792   6.329 -1.2360 -1.6853 -0.4466
 9979SOL    HW240252   8.853   8.875   6.455  0.1296  0.2528 -1.5795
 9980SOL     OW40253  10.878   2.051  10.244 -0.0851  0.1623 -0.4897
 9980SOL    HW140254  10.908   2.014  10.161 -0.2633  0.3219 -0.6247
 9980SOL    HW240255  10.831   1.979  10.286  0.4312 -0.0715 -0.3032
 9981SOL     OW40256  11.785  12.155   6.676 -0.0511 -0.1889  0.1985
 9981SOL    HW140257  11.706  12.186   6.721 -0.7337 -0.4888 -0.7440
 9981SOL    HW240258  11.808  12.227   6.618  0.0229 -0.3320  0.0513
 9982SOL     OW40259   4.294   3.266   3.920 -0.1090  0.8276 -0.0910
 9982SOL    HW140260   4.381   3.227   3.913 -0.2625  0.6051 -0.7705
 9982SOL    HW240261   4.291   3.301   4.010  0.1522 -0.4202  0.4167
 9983SOL     OW40262   6.426   6.229   6.353 -0.1696  0.2652 -0.4266
 9983SOL    HW140263   6.343   6.181   6.348 -0.8410  1.4385 -1.0531
 9983SOL    HW240264   6.401   6.321   6.347  1.1915  0.6395 -0.7897
 9984SOL     OW40265  11.794  10.837  11.644  0.0728  0.5721 -0.8567
 9984SOL    HW140266  11.865  10.827  11.580  1.0143  1.0784  0.0876
 9984SOL    HW240267  11.834  10.817  11.728 -1.3938 -1.1248 -0.4803
 9985SOL     OW40268  12.592  12.907   2.750 -0.3140 -0.3102 -0.3072
 9985SOL    HW140269  12.610  12.813   2.751  0.3043 -0.2094 -1.1161
 9985SOL    HW240270  12.666  12.946   2.796 -1.3492 -0.3039  1.4917
 9986SOL     OW40271  12.777   9.931  12.914  0.1782  0.2063  0.6823
 9986SOL    HW140272  12.830  10.010  12.913  2.1921 -1.0678  1.2627
 9986SOL    HW240273  12.753   9.919  13.006  0.5503 -0.2632  0.7233
 9987SOL     OW40274   0.690  12.508   7.888  0.4652 -0.3538 -0.3242
 9987SOL    HW140275   0.771  12.469   7.919  0.0690 -0.9927 -0.0737
 9987SOL    HW240276   0.713  12.599   7.869  1.3598 -0.6475 -0.7371
 9988SOL     OW40277   1.629   9.226   2.673 -0.2361 -0.0544  0.7337
 9988SOL    HW140278   1.550   9.173   2.681 -1.1543  0.6332 -2.5097
 9988SOL    HW240279   1.600   9.306   2.629  1.9624  1.0717  1.1777
 9989SOL     OW40280   1.189   9.500   3.596 -0.2253  0.3716  0.3599
 9989SOL    HW140281   1.236   9.579   3.569  0.2671  0.2552  0.8750
 9989SOL    HW240282   1.190   9.444   3.518  0.7006  0.2721  0.4338
 9990SOL     OW40283   9.005   3.526   3.606 -0.1818 -0.5564 -0.5869
 9990SOL    HW140284   9.008   3.476   3.524 -1.0916 -1.9228  0.1867
 9990SOL    HW240285   8.938   3.482   3.659  1.0808 -0.3386  1.2914
 9991SOL     OW40286  12.107   1.235   3.808  0.1248  0.6043  1.1199
 9991SOL    HW140287  12.117   1.168   3.876 -1.5715 -0.2653  0.5532
 9991SOL    HW240288  12.031   1.287   3.837 -0.6068  0.2310 -0.0893
 9992SOL     OW40289   8.645  12.532   8.655  0.0819 -0.2342 -0.3061
 9992SOL    HW140290   8.623  12.500   8.567 -0.6098  0.1078 -0.2670
 9992SOL    HW240291   8.561  12.535   8.701  0.5547 -1.3694  0.7023
 9993SOL     OW40292  10.461   8.749   2.506 -0.0685  0.0002  0.2072
 9993SOL    HW140293  10.379   8.743   2.456  0.0135 -2.4090  0.2561
 9993SOL    HW240294  10.511   8.672   2.480  2.2352  1.3986  0.1989
 9994SOL     OW40295   3.874   3.179  11.227  0.4963  0.3524  0.3350
 9994SOL    HW140296   3.787   3.216  11.215 -0.0212 -0.8824  0.0153
 9994SOL    HW240297   3.934   3.244  11.191 -0.4887  0.2064 -1.7115
 9995SOL     OW40298  11.500   8.259  10.651 -0.0505 -0.1645 -0.1662
 9995SOL    HW140299  11.569   8.293  10.593 -0.5095 -0.6276 -1.0035
 9995SOL    HW240300  11.433   8.327  10.650  0.1343  0.0225  0.1739
 9996SOL     OW40301   9.619   4.247   3.562  0.5148 -0.4458 -0.1936
 9996SOL    HW140302   9.540   4.203   3.530  0.8083 -0.3032 -1.1404
 9996SOL    HW240303   9.654   4.188   3.628  0.0408 -0.8770 -0.3177
 9997SOL     OW40304  11.721  10.989   1.794 -0.0397  0.2151  0.1008
 9997SOL    HW140305  11.770  10.923   1.746 -3.5430 -2.9116  0.3291
 9997SOL    HW240306  11.782  11.020   1.861  2.2078 -1.8690 -0.8178
 9998SOL     OW40307  10.382   8.435   5.484  0.4252 -0.0576 -0.5515
 9998SOL    HW140308  10.446   8.372   5.519  0.8120  0.9556  0.6352
 9998SOL    HW240309  10.426   8.519   5.490 -1.0044  0.6662  0.2698
 9999SOL     OW40310   9.337   7.475   3.811 -0.5015  0.3029 -0.3125
 9999SOL    HW140311   9.312   7.567   3.800 -0.5366  0.2075 -1.0609
 9999SOL    HW240312   9.377   7.471   3.898 -0.2628  1.0750 -0.3816
10000SOL     OW40313   0.706   0.533   9.629 -0.1173  0.9401 -0.1790
10000SOL    HW140314   0.678   0.526   9.538 -0.1495  0.2666 -0.1194
10000SOL    HW240315   0.746   0.620   9.635  0.0703  0.9055 -0.8778
10001SOL     OW40316   1.989   9.854   9.136  0.0139  0.1673 -0.4259
10001SOL    HW140317   2.045   9.919   9.177  0.7947 -0.5179 -0.3888
10001SOL    HW240318   1.935   9.904   9.074 -1.4898  1.3000  1.6721
10002SOL     OW40319  11.347   4.325   1.675  0.2410  0.0918 -0.3632
10002SOL    HW140320  11.279   4.331   1.742  1.2817 -1.2879  0.8830
10002SOL    HW240321  11.355   4.414   1.641 -1.7410  0.4129 -0.1251
10003SOL     OW40322   0.913   4.549   6.764  0.6267 -0.3437  0.2336
10003SOL    HW140323   0.948   4.638   6.779  1.1386 -0.8969  3.0063
10003SOL    HW240324   0.824   4.553   6.798 -0.2400 -0.3373 -1.8884
10004SOL     OW40325   9.060   4.779   7.646  0.0896  0.8211 -0.2536
10004SOL    HW140326   9.016   4.820   7.571  0.0132  1.3105  0.0589
10004SOL    HW240327   9.034   4.832   7.721  1.3808  1.2436 -0.0916
10005SOL     OW40328   1.602   0.483  12.133  0.1497  0.3451 -0.0619
10005SOL    HW140329   1.608   0.514  12.224 -0.0674 -0.4385  0.2243
10005SOL    HW240330   1.693   0.473  12.105  0.2191  0.7445  0.0102
10006SOL     OW40331   6.606  12.224   9.784 -0.4457  0.0886 -0.0861
10006SOL    HW140332   6.554  12.151   9.818  1.0789 -1.2780 -0.5030
10006SOL    HW240333   6.653  12.257   9.861 -0.3561 -0.0618 -0.0752
10007SOL     OW40334   6.906  12.119   0.571  0.3754 -0.4129  0.0973
10007SOL    HW140335   6.818  12.155   0.560  0.3491 -0.3610  0.4621
10007SOL    HW240336   6.963  12.196   0.575  0.2612 -0.3753  1.3958
10008SOL     OW40337  12.135   8.843  10.161  0.0188 -0.4668  0.2785
10008SOL    HW140338  12.142   8.938  10.149 -1.3217 -0.3217  0.5291
10008SOL    HW240339  12.129   8.831  10.256 -3.5097 -0.4492  0.1850
10009SOL     OW40340  10.178   3.732   5.905 -0.3596 -0.5370  0.0680
10009SOL    HW140341  10.250   3.728   5.968 -1.0492 -0.9819  0.8560
10009SOL    HW240342  10.100   3.750   5.959 -0.6977  1.0217 -0.8818
10010SOL     OW40343   3.517   0.135   4.460  0.0249  0.2095 -0.0832
10010SOL    HW140344   3.486   0.062   4.406  0.3028 -2.4164  3.0094
10010SOL    HW240345   3.437   0.179   4.489 -0.4528 -1.4281  1.2253
10011SOL     OW40346   3.775   2.932   0.541  0.3044  0.1781  0.2891
10011SOL    HW140347   3.768   2.916   0.447 -2.8791 -1.8163  0.7460
10011SOL    HW240348   3.693   2.975   0.564  1.1186  0.8118  2.1928
10012SOL     OW40349   9.622   5.641   8.570 -0.5239 -0.1859 -0.0733
10012SOL    HW140350   9.654   5.560   8.531 -1.1436  0.3546 -1.7929
10012SOL    HW240351   9.530   5.623   8.589 -0.1024 -0.6278  1.7397
10013SOL     OW40352   8.103   9.151   3.121 -0.1637 -0.0996 -0.2589
10013SOL    HW140353   8.083   9.169   3.029 -0.1304 -0.9739 -0.4442
10013SOL    HW240354   8.022   9.172   3.168  0.0088  0.9365 -0.4032
10014SOL     OW40355   7.795   4.788   6.737 -0.1148 -0.0265 -0.4073
10014SOL    HW140356   7.879   4.832   6.726  0.3309 -0.6361  0.4085
10014SOL    HW240357   7.773   4.802   6.829  0.2647 -1.8471 -0.0041
10015SOL     OW40358   3.845  10.196   1.894  0.1798 -0.0770  0.0563
10015SOL    HW140359   3.759  10.223   1.925 -0.2141 -0.8671 -0.3037
10015SOL    HW240360   3.867  10.121   1.950 -0.2614 -1.1247 -1.1379
10016SOL     OW40361  11.490   0.783   4.740 -0.8493 -0.4204 -0.0162
10016SOL    HW140362  11.466   0.777   4.648 -0.0144  0.8806 -0.3466
10016SOL    HW240363  11.424   0.840   4.779 -0.0357  0.7593 -0.2948
10017SOL     OW40364   3.337   7.041   3.199  0.1870  0.1963  0.0402
10017SOL    HW140365   3.404   7.059   3.264  1.6084  0.3093 -1.4073
10017SOL    HW240366   3.291   7.124   3.188  1.3083  0.7594 -0.5778
10018SOL     OW40367   8.227  12.086   0.691 -0.1900 -0.6155 -0.6491
10018SOL    HW140368   8.261  12.175   0.695 -0.5331 -0.4926  2.9977
10018SOL    HW240369   8.144  12.090   0.738 -0.0938 -2.9056 -0.1415
10019SOL     OW40370   0.105  11.559  11.140 -0.2951 -0.4647 -0.2896
10019SOL    HW140371   0.169  11.493  11.112 -1.0577 -1.3041 -0.0859
10019SOL    HW240372   0.133  11.583  11.228 -0.5234 -1.1661 -0.0249
10020SOL     OW40373   7.135   4.608   5.523 -0.7475 -0.2865  0.5825
10020SOL    HW140374   7.134   4.701   5.499  1.5709 -0.2595  0.4080
10020SOL    HW240375   7.130   4.608   5.618 -2.8903 -0.1145  0.5161
10021SOL     OW40376   2.215   4.794   1.414  0.2284 -0.2527 -0.9406
10021SOL    HW140377   2.175   4.828   1.494 -1.6416 -0.4568 -1.7460
10021SOL    HW240378   2.301   4.836   1.412 -0.4397  1.2954  0.1715
10022SOL     OW40379  12.633   9.288   5.206 -0.0773  0.3442 -0.1084
10022SOL    HW140380  12.723   9.262   5.187 -0.2251  0.0285 -0.4098
10022SOL    HW240381  12.622   9.371   5.161 -0.5035 -0.5269 -1.7139
10023SOL     OW40382   7.985   0.756  10.328  0.3167  0.4459  0.2159
10023SOL    HW140383   8.057   0.801  10.285 -0.5944  1.8754  0.1067
10023SOL    HW240384   7.970   0.677  10.276  1.0477  0.7118 -0.4051
10024SOL     OW40385   6.528   0.588   5.161  0.2064  0.2405  0.2409
10024SOL    HW140386   6.590   0.555   5.096  0.3469  0.2466  0.3713
10024SOL    HW240387   6.583   0.621   5.232  0.0489 -2.7338  1.8857
10025SOL     OW40388   9.640  11.903  11.087 -0.4692  0.0502  0.2587
10025SOL    HW140389   9.638  11.808  11.090 -1.7934  0.0837  1.9380
10025SOL    HW240390   9.558  11.930  11.128 -0.4226  1.9227 -0.7566
10026SOL     OW40391  12.429   4.948   4.381 -0.0410  0.1441 -0.3946
10026SOL    HW140392  12.371   4.967   4.455  1.0570 -1.8190  1.0740
10026SOL    HW240393  12.371   4.946   4.305 -1.5190  0.4030  0.6769
10027SOL     OW40394   5.492   5.700   9.776 -0.4237  0.0148 -0.1023
10027SOL    HW140395   5.502   5.693   9.681 -0.0984  0.4977 -0.1075
10027SOL    HW240396   5.398   5.706   9.790 -0.6347 -2.0362 -0.2483
10028SOL     OW40397   6.076   6.999   9.119 -0.0986  0.0611  0.2289
10028SOL    HW140398   6.070   6.905   9.132  1.4006 -0.2121 -0.7930
10028SOL    HW240399   5.993   7.033   9.151 -0.8011 -1.6364  0.3163
10029SOL     OW40400   3.364   3.850   7.572  0.1635  0.0705  0.0426
10029SOL    HW140401   3.384   3.944   7.576  0.2465  0.0364  0.4501
10029SOL    HW240402   3.367   3.829   7.479 -0.8152  0.6767 -0.1323
10030SOL     OW40403   6.701   1.826   7.286 -0.3171  0.7275  0.1757
10030SOL    HW140404   6.644   1.818   7.210 -1.0545  1.6488  0.6017
10030SOL    HW240405   6.714   1.920   7.297  1.7409  0.5338 -0.2090
10031SOL     OW40406   1.962   2.875   6.169 -0.4540  0.1250  0.3961
10031SOL    HW140407   1.978   2.938   6.240 -0.1699  0.0630  0.3864
10031SOL    HW240408   1.942   2.793   6.213 -0.0276  0.0232  0.4062
10032SOL     OW40409   5.984  10.246   4.006 -1.1639  0.0744 -0.5658
10032SOL    HW140410   6.070  10.222   4.039 -1.1738 -0.3177 -0.8226
10032SOL    HW240411   5.940  10.285   4.081 -0.5888  0.7395 -0.5583
10033SOL     OW40412   8.006  12.641   6.569  0.8468 -0.5844 -0.1838
10033SOL    HW140413   7.939  12.669   6.505  0.3441 -1.4246 -0.0330
10033SOL    HW240414   7.995  12.547   6.576  0.8084 -0.5009  1.2418
10034SOL     OW40415   1.430   9.655   7.905  0.2791  0.1833  0.2558
10034SOL    HW140416   1.388   9.598   7.841 -0.1089 -0.0602  0.7136
10034SOL    HW240417   1.519   9.668   7.872  0.1801 -0.1917 -0.1646
10035SOL     OW40418   0.735   6.650   5.259  0.5224 -0.2599 -0.1336
10035SOL    HW140419   0.819   6.653   5.213  0.3157 -0.3888 -0.5278
10035SOL    HW240420   0.753   6.686   5.346  1.0754 -0.6620 -0.0770
10036SOL     OW40421   1.907   2.934   1.869 -0.1342 -0.4711  0.2867
10036SOL    HW140422   1.906   2.856   1.926  0.1453 -0.3144  0.5102
10036SOL    HW240423   1.988   2.980   1.893 -0.3312 -0.0769  0.2013
10037SOL     OW40424   1.145   3.937   6.661  0.3273 -0.0793  0.2691
10037SOL    HW140425   1.071   3.880   6.644  0.2815 -0.1473  0.6765
10037SOL    HW240426   1.182   3.905   6.744  0.0619  0.7180  0.7069
10038SOL     OW40427   0.500   6.691   2.191 -0.0877 -0.3829  0.5946
10038SOL    HW140428   0.438   6.739   2.247 -0.6183 -0.6623  0.2520
10038SOL    HW240429   0.471   6.600   2.196  0.1606 -0.4822  0.2483
10039SOL     OW40430   0.054   9.574   2.056  0.5809  0.3780 -0.4322
10039SOL    HW140431  -0.039   9.548   2.061  0.2051  1.6951 -0.3568
10039SOL    HW240432   0.094   9.507   2.001 -0.1153 -1.0039  0.6591
10040SOL     OW40433   2.111   3.569   4.272  0.6035  0.0063  0.1802
10040SOL    HW140434   2.082   3.659   4.291  0.3509 -0.2699  1.1853
10040SOL    HW240435   2.106   3.525   4.357 -0.0059 -1.1649 -0.4494
10041SOL     OW40436   9.480  10.426   5.800 -0.1894  0.3291  0.1719
10041SOL    HW140437   9.484  10.340   5.842 -0.1189  0.8344  1.2201
10041SOL    HW240438   9.551  10.424   5.735 -0.1876 -0.4009  0.1834
10042SOL     OW40439   9.793  10.385   0.268  0.0292  0.3654  0.2280
10042SOL    HW140440   9.840  10.366   0.349  1.2092 -0.8130 -0.6971
10042SOL    HW240441   9.710  10.339   0.277  0.4678 -0.3980  0.4564
10043SOL     OW40442  12.682   3.694   1.766 -1.1302  0.8620  0.4380
10043SOL    HW140443  12.737   3.731   1.697  0.0354 -0.2080  0.7567
10043SOL    HW240444  12.734   3.704   1.845 -1.9454  0.9656  0.9680
10044SOL     OW40445   4.574   9.803   7.360 -0.0647 -0.1017  0.1133
10044SOL    HW140446   4.506   9.840   7.416 -0.0872 -1.1978  0.8214
10044SOL    HW240447   4.642   9.773   7.420  2.1613  2.9705 -0.6277
10045SOL     OW40448   9.278   6.849   5.357  0.9979  0.1807 -0.3485
10045SOL    HW140449   9.249   6.758   5.355 -2.4630  1.1566 -1.5334
10045SOL    HW240450   9.261   6.878   5.446 -2.5246  0.8263 -1.0846
10046SOL     OW40451   4.233  10.924   9.381 -0.0733 -0.0388 -0.0675
10046SOL    HW140452   4.263  10.852   9.326  0.2948  1.2003 -1.5628
10046SOL    HW240453   4.301  10.991   9.373 -0.5141  0.5833  1.0883
10047SOL     OW40454   7.748  12.249   8.036  0.2324  0.3636 -0.1138
10047SOL    HW140455   7.666  12.273   7.993 -0.6950 -0.5987  1.0387
10047SOL    HW240456   7.728  12.255   8.130  1.5304  0.2336  0.1963
10048SOL     OW40457   2.312   5.893   0.535  0.5852 -0.3738  0.2942
10048SOL    HW140458   2.351   5.968   0.579 -0.2199 -0.1419  0.6493
10048SOL    HW240459   2.293   5.831   0.606 -0.1162 -0.2771  0.2013
10049SOL     OW40460   1.282   3.577   3.858  0.7888 -0.8105  0.4447
10049SOL    HW140461   1.315   3.609   3.774 -0.2553  0.0318  0.3373
10049SOL    HW240462   1.355   3.589   3.919  1.2727 -0.6564 -0.1559
10050SOL     OW40463   8.282  11.281   4.271 -0.0421 -0.2613  0.2800
10050SOL    HW140464   8.278  11.186   4.283  0.2949 -0.0479  2.3521
10050SOL    HW240465   8.369  11.295   4.233  0.9089 -0.6320  2.1842
10051SOL     OW40466  11.191  11.495  11.628 -0.1926  0.3223 -0.0004
10051SOL    HW140467  11.188  11.589  11.649 -0.6345  0.8340 -2.1137
10051SOL    HW240468  11.114  11.480  11.573  1.1571 -0.7059 -1.7254
10052SOL     OW40469  10.893   7.928  11.243 -0.6736  0.1212  1.1854
10052SOL    HW140470  10.883   8.015  11.281  1.4113  0.2497  1.5985
10052SOL    HW240471  10.936   7.877  11.312 -0.4264 -0.7797  0.3868
10053SOL     OW40472   9.637   4.570   1.481  0.1134  0.1548 -0.1470
10053SOL    HW140473   9.710   4.528   1.525  0.2926  0.3364 -0.2713
10053SOL    HW240474   9.629   4.524   1.397  0.9320  1.0057 -0.7053
10054SOL     OW40475   7.236   8.180   9.444  0.3177 -0.3899  0.0925
10054SOL    HW140476   7.160   8.177   9.502 -0.0208  2.4486 -0.0695
10054SOL    HW240477   7.200   8.196   9.357  1.0526  0.5565 -0.0603
10055SOL     OW40478   3.797   7.340   3.412 -0.2851  0.4710 -0.3387
10055SOL    HW140479   3.850   7.324   3.334 -1.1778  0.4920 -0.9657
10055SOL    HW240480   3.820   7.269   3.472 -0.7470 -0.4795 -1.2474
10056SOL     OW40481   8.759   9.939   9.312 -0.6141 -0.1753 -0.0915
10056SOL    HW140482   8.716   9.883   9.247 -0.2452 -0.2279 -0.2948
10056SOL    HW240483   8.852   9.934   9.289 -0.7092  1.8017 -1.1160
10057SOL     OW40484   4.609   3.639   1.033 -0.0288  0.2093 -0.2159
10057SOL    HW140485   4.623   3.733   1.024 -0.6020  0.2488 -0.7744
10057SOL    HW240486   4.615   3.605   0.944  0.6406 -0.3577  0.0364
10058SOL     OW40487   1.672  11.831   0.237  0.4150 -0.4684 -0.3301
10058SOL    HW140488   1.662  11.922   0.267  1.8501  0.3320 -2.1409
10058SOL    HW240489   1.659  11.835   0.143  1.3149 -2.0156 -0.5501
10059SOL     OW40490   9.223   8.876  10.901  0.1733  0.0704  0.0911
10059SOL    HW140491   9.226   8.971  10.886  0.8385  0.3764  1.9394
10059SOL    HW240492   9.309   8.844  10.875 -0.6190 -0.3843 -2.2793
10060SOL     OW40493  10.007   4.461   9.019 -0.1315 -0.0823  0.1963
10060SOL    HW140494  10.027   4.486   9.110  2.3394  0.6626 -0.4591
10060SOL    HW240495  10.029   4.368   9.015 -1.7787 -0.5283  0.7025
10061SOL     OW40496   7.547  11.597   6.706 -0.5238 -0.2899  0.4839
10061SOL    HW140497   7.474  11.537   6.723 -1.3545  0.2931 -0.8196
10061SOL    HW240498   7.599  11.595   6.786 -0.8438 -2.2872  0.7016
10062SOL     OW40499  11.511   4.922   1.423  0.1658  0.6826  0.2162
10062SOL    HW140500  11.468   5.002   1.395 -1.0972 -0.7176 -2.1405
10062SOL    HW240501  11.598   4.925   1.381 -0.0684  0.6084 -0.2815
10063SOL     OW40502   5.574  10.509  12.615  0.5122 -0.1297  0.0994
10063SOL    HW140503   5.556  10.515  12.521 -1.0164 -0.0208  0.3722
10063SOL    HW240504   5.602  10.419  12.629 -0.4188 -0.4878 -0.2915
10064SOL     OW40505  11.470   0.320   1.137  0.1507  0.1983  0.0460
10064SOL    HW140506  11.478   0.275   1.221  0.5798 -0.1965 -0.2004
10064SOL    HW240507  11.381   0.300   1.108  0.8302 -1.8853 -0.8168
10065SOL     OW40508   9.535   2.347   5.637 -0.1763 -0.6089 -0.0997
10065SOL    HW140509   9.487   2.414   5.587 -0.7994 -0.9627  0.0192
10065SOL    HW240510   9.605   2.320   5.578  0.4927  0.6136  0.0961
10066SOL     OW40511  10.513   8.524   2.734  0.1856  0.0831 -0.4188
10066SOL    HW140512  10.491   8.494   2.646 -0.1544 -0.7893 -0.0488
10066SOL    HW240513  10.512   8.445   2.787  2.3177  0.2763 -0.0002
10067SOL     OW40514   4.372   4.380   6.030  0.1895  0.0702  0.0349
10067SOL    HW140515   4.285   4.419   6.041 -0.1406 -0.7649  0.4842
10067SOL    HW240516   4.422   4.411   6.105  0.5677  1.2596 -0.6797
10068SOL     OW40517  11.789   2.880   9.181  0.1244 -0.2435  0.0061
10068SOL    HW140518  11.792   2.888   9.086 -2.4587 -0.0923 -0.1262
10068SOL    HW240519  11.775   2.969   9.212  2.0676 -0.1205  0.6558
10069SOL     OW40520  10.412   8.489   8.698  0.1690  0.9681 -0.2997
10069SOL    HW140521  10.407   8.433   8.621  0.6181  0.9650 -0.3280
10069SOL    HW240522  10.322   8.521   8.711 -0.0361  0.4627 -0.4442
10070SOL     OW40523   2.183  10.409   3.714  0.4073  0.0474 -0.5049
10070SOL    HW140524   2.157  10.495   3.747  1.5722  0.7108 -1.2233
10070SOL    HW240525   2.242  10.375   3.782 -0.2529 -0.3079 -0.1013
10071SOL     OW40526  12.652   5.243   2.799  0.7750  1.1196  0.3056
10071SOL    HW140527  12.677   5.272   2.886  0.6519 -0.4166  0.8910
10071SOL    HW240528  12.682   5.152   2.795 -0.7806  0.6049 -0.5870
10072SOL     OW40529  12.638   5.350   5.922  0.7721 -0.0087  0.3453
10072SOL    HW140530  12.608   5.329   5.834 -1.4803  2.0365  0.5084
10072SOL    HW240531  12.575   5.307   5.980 -0.6658  2.4581  0.7641
10073SOL     OW40532   7.727   2.342   2.035 -0.0266 -1.0379 -0.0408
10073SOL    HW140533   7.687   2.359   1.950  1.9969  1.5749 -0.5763
10073SOL    HW240534   7.661   2.370   2.099 -0.5437 -0.4795 -0.8039
10074SOL     OW40535   9.531  11.324   9.064 -0.1137  0.0273 -0.1462
10074SOL    HW140536   9.607  11.285   9.020  2.3276  3.2982  0.8189
10074SOL    HW240537   9.551  11.317   9.157 -1.0173  0.8896  0.1233
10075SOL     OW40538  11.503   0.447  12.012 -0.2433  0.4739  0.1579
10075SOL    HW140539  11.568   0.484  12.071  1.3491 -1.3209 -0.4006
10075SOL    HW240540  11.553   0.403  11.944 -1.9384 -2.1576  0.4211
10076SOL     OW40541   4.663   3.724   9.435  0.2111  0.1098  0.5870
10076SOL    HW140542   4.581   3.736   9.483 -0.0968 -0.3053  0.1647
10076SOL    HW240543   4.720   3.678   9.497 -0.7138 -1.8708  0.0489
10077SOL     OW40544   3.771   3.108  10.547  0.1664 -0.0977 -0.2339
10077SOL    HW140545   3.828   3.096  10.623 -0.2855  1.6013  0.4327
10077SOL    HW240546   3.786   3.198  10.520 -0.4622 -0.3595 -1.5154
10078SOL     OW40547   6.779  12.974  10.459 -0.2977  0.6838 -0.1531
10078SOL    HW140548   6.845  12.904  10.450 -4.0478 -3.1317 -1.1904
10078SOL    HW240549   6.775  12.990  10.554 -0.3762 -1.8365  0.3547
10079SOL     OW40550   7.756   0.657   0.839 -0.1347  0.0691 -0.4510
10079SOL    HW140551   7.788   0.705   0.915 -0.8026 -1.1252  0.6302
10079SOL    HW240552   7.810   0.578   0.835 -0.0634  0.1488 -1.2667
10080SOL     OW40553   2.993   1.230   7.276 -0.3148 -0.1297  0.5657
10080SOL    HW140554   2.993   1.135   7.283  0.1109 -0.2852 -1.0187
10080SOL    HW240555   3.054   1.249   7.204 -0.1964  1.3506  1.0209
10081SOL     OW40556   6.250   2.275  12.249 -0.2608  0.4183  0.1940
10081SOL    HW140557   6.190   2.208  12.215 -1.6281  1.5680  0.2322
10081SOL    HW240558   6.210   2.303  12.331 -0.7797  2.5930 -0.7235
10082SOL     OW40559   7.536   1.757   4.123  0.6614 -0.2409 -0.7242
10082SOL    HW140560   7.562   1.849   4.126 -1.5069  0.5116 -2.2609
10082SOL    HW240561   7.525   1.739   4.030 -0.4598 -1.5734 -0.3686
10083SOL     OW40562   4.728   5.350   8.715  0.4369 -0.5840  0.2953
10083SOL    HW140563   4.747   5.365   8.808 -0.7852  0.3164  0.4197
10083SOL    HW240564   4.746   5.434   8.673  1.1196 -1.0295 -0.3164
10084SOL     OW40565   6.084   8.793   5.823 -0.4339 -0.3460 -0.4682
10084SOL    HW140566   6.016   8.823   5.883  0.2968  1.8630 -0.6281
10084SOL    HW240567   6.037   8.745   5.755 -1.3736 -2.0866  1.3383
10085SOL     OW40568   7.670  12.318   2.986  0.4677 -0.3591 -0.7961
10085SOL    HW140569   7.741  12.257   3.003  1.1994  0.5576 -0.5133
10085SOL    HW240570   7.706  12.405   3.006 -0.7842  0.1092 -0.4496
10086SOL     OW40571   6.408   9.577   4.346 -0.3820 -0.1295 -0.1043
10086SOL    HW140572   6.370   9.547   4.263  0.5908 -2.4425  0.2117
10086SOL    HW240573   6.470   9.645   4.320 -1.5371  0.6101 -1.0404
10087SOL     OW40574   9.436   1.229   6.193  0.2698  0.3509 -0.3586
10087SOL    HW140575   9.424   1.250   6.100  0.2799  0.5581 -0.3137
10087SOL    HW240576   9.505   1.163   6.193 -0.7157 -0.7057 -0.6001
10088SOL     OW40577  10.262  10.213  11.889 -0.5284 -0.0105  0.0068
10088SOL    HW140578  10.315  10.233  11.967 -0.5318 -0.3609  0.1042
10088SOL    HW240579  10.172  10.227  11.917 -0.5250 -0.0602  0.0429
10089SOL     OW40580  10.122  12.697   4.810  0.1660 -0.2017 -0.8267
10089SOL    HW140581  10.134  12.760   4.882 -3.5729  0.3472 -0.4700
10089SOL    HW240582  10.081  12.622   4.852  1.4755 -1.5271 -1.8332
10090SOL     OW40583   5.231   2.389   4.749  0.6670 -0.1061  0.3622
10090SOL    HW140584   5.158   2.330   4.768  0.7607 -1.3727 -2.5565
10090SOL    HW240585   5.309   2.335   4.763  0.8702  0.1104  0.0867
10091SOL     OW40586   6.518   9.362   1.839 -0.3322 -0.3838 -0.3319
10091SOL    HW140587   6.589   9.391   1.782 -0.7360  0.6314 -0.3400
10091SOL    HW240588   6.554   9.370   1.928 -0.1097 -0.8066 -0.3834
10092SOL     OW40589   6.369   9.065  11.674 -0.2976 -0.2040 -0.5395
10092SOL    HW140590   6.295   9.006  11.659 -1.7785  1.2612  0.6503
10092SOL    HW240591   6.329   9.147  11.702  1.7848  0.7403 -0.1482
10093SOL     OW40592   4.205  10.158   1.738  0.7276  0.1099 -0.4212
10093SOL    HW140593   4.189  10.068   1.767  1.4579  0.5912  1.6732
10093SOL    HW240594   4.151  10.168   1.660 -1.4087 -1.3581  0.7520
10094SOL     OW40595   6.836   9.111   9.859 -0.4783 -0.1958 -0.3168
10094SOL    HW140596   6.897   9.132   9.930 -1.0689 -1.6927  0.6893
10094SOL    HW240597   6.855   9.019   9.837 -1.0189 -0.0701 -1.3694
10095SOL     OW40598   1.975   6.113   5.551  0.8640 -0.1364  1.0637
10095SOL    HW140599   1.942   6.108   5.641 -0.9938 -1.7985  0.3681
10095SOL    HW240600   2.013   6.027   5.534 -1.8533 -1.1034 -0.7429
10096SOL     OW40601  11.973   2.876   7.749 -0.2573  0.1524 -0.0682
10096SOL    HW140602  12.068   2.879   7.767  0.1953 -1.7247 -1.8002
10096SOL    HW240603  11.944   2.795   7.790 -1.3565  1.1488  1.2169
10097SOL     OW40604   4.378   8.609   0.084 -0.0040  0.4211  0.1146
10097SOL    HW140605   4.430   8.690   0.087  0.7483  0.0568 -1.5607
10097SOL    HW240606   4.363   8.594  -0.010 -0.3389 -1.2344  0.4019
10098SOL     OW40607  11.706   4.058   8.935  0.1508 -0.3004 -0.1166
10098SOL    HW140608  11.749   3.981   8.897  0.4937 -0.8990  1.4141
10098SOL    HW240609  11.775   4.124   8.940  0.9179 -1.1889  2.1362
10099SOL     OW40610  10.280  11.000  11.914  0.5045  0.1255 -0.0575
10099SOL    HW140611  10.221  11.059  11.865  1.2066  1.5211  0.7315
10099SOL    HW240612  10.367  11.036  11.899  0.7658  0.4592  1.9983
10100SOL     OW40613   1.136  11.462  10.727 -0.2540  0.2833  0.0997
10100SOL    HW140614   1.075  11.407  10.776 -1.3497  0.4872 -0.9701
10100SOL    HW240615   1.085  11.491  10.651  0.7751  1.5629 -0.1288
10101SOL     OW40616  12.796   8.011   2.472  0.4635 -0.0204  0.1172
10101SOL    HW140617  12.817   8.103   2.485  0.7573 -0.0595 -0.0769
10101SOL    HW240618  12.838   7.966   2.546  1.3096 -0.1308 -0.4220
10102SOL     OW40619  12.815   7.787   1.933 -0.0239 -0.1589 -0.1380
10102SOL    HW140620  12.819   7.772   2.027  1.3898  0.7476 -0.0177
10102SOL    HW240621  12.877   7.724   1.896 -1.1356 -1.0376 -0.5602
10103SOL     OW40622   8.436   3.658   6.460  0.1338  0.2176  1.2839
10103SOL    HW140623   8.500   3.588   6.453  0.3999  0.4469  1.4206
10103SOL    HW240624   8.454   3.715   6.385 -2.1029 -1.4994 -0.7148
10104SOL     OW40625   1.554   2.025   6.431  0.2454 -0.2383 -0.4724
10104SOL    HW140626   1.638   1.992   6.401  0.7772 -0.1919  0.8768
10104SOL    HW240627   1.550   2.115   6.399  1.4723  0.3117  0.8022
10105SOL     OW40628  11.158  12.458   4.717 -0.1745 -0.5556 -0.4005
10105SOL    HW140629  11.244  12.457   4.759 -0.0444 -3.5415 -0.5539
10105SOL    HW240630  11.097  12.431   4.787 -0.7513 -0.1998 -0.7562
10106SOL     OW40631   6.039   0.131  11.292  0.3041 -0.2424 -0.3568
10106SOL    HW140632   6.019   0.086  11.210 -0.0121 -0.4579 -0.1615
10106SOL    HW240633   5.956   0.134  11.339  0.6318 -0.7937  0.2847
10107SOL     OW40634   7.722   8.592   9.366 -0.2475 -0.9213 -0.4318
10107SOL    HW140635   7.741   8.573   9.274  0.4308  0.8264 -0.6941
10107SOL    HW240636   7.679   8.678   9.364  0.0391 -0.7319  0.9114
10108SOL     OW40637  10.253   8.752   0.714 -0.3955 -0.6657  0.0742
10108SOL    HW140638  10.233   8.688   0.782  0.5113 -0.2342  0.7667
10108SOL    HW240639  10.314   8.708   0.656 -0.7855 -0.8661 -0.1866
10109SOL     OW40640  10.816   8.239   7.565  0.4509  0.0414 -0.5823
10109SOL    HW140641  10.823   8.286   7.482  1.2139 -0.4431 -0.7978
10109SOL    HW240642  10.722   8.225   7.576  0.3490  0.0346 -1.4043
10110SOL     OW40643   8.800   4.662   7.321 -0.5749 -0.1255 -0.1718
10110SOL    HW140644   8.779   4.666   7.228 -0.5169  1.8043 -0.1551
10110SOL    HW240645   8.784   4.571   7.346 -1.3328 -0.5006 -1.8839
10111SOL     OW40646   2.816   4.416   6.697 -0.3050 -0.2866 -0.2005
10111SOL    HW140647   2.757   4.399   6.624 -1.2453  1.5577  0.0657
10111SOL    HW240648   2.802   4.342   6.757 -0.4559 -1.1573 -1.2812
10112SOL     OW40649  12.478   3.176  10.724  0.5961 -0.0845  0.2668
10112SOL    HW140650  12.394   3.221  10.710  0.7394  0.8488  2.0560
10112SOL    HW240651  12.532   3.203  10.650  0.1794  1.5491  0.5101
10113SOL     OW40652   0.071   7.511   5.034 -0.1074 -0.7763 -0.3522
10113SOL    HW140653  -0.017   7.531   5.066  0.3785 -1.7047  1.6677
10113SOL    HW240654   0.066   7.420   5.006 -0.0029 -0.5500 -1.1510
10114SOL     OW40655  11.100  11.067   7.157  0.2090  0.5584 -0.1511
10114SOL    HW140656  11.163  11.076   7.228 -0.3098 -0.7079  0.4914
10114SOL    HW240657  11.020  11.037   7.200 -0.1145 -0.2349 -1.2729
10115SOL     OW40658   0.613   7.235   2.338  0.3861 -0.0261 -0.1708
10115SOL    HW140659   0.556   7.191   2.275  0.7367 -0.2448 -0.3387
10115SOL    HW240660   0.607   7.328   2.315  1.9578 -0.2572 -1.7554
10116SOL     OW40661   1.565  10.212  11.815 -0.0476 -0.2067 -0.3924
10116SOL    HW140662   1.531  10.301  11.801 -0.5564 -0.1917  0.8271
10116SOL    HW240663   1.659  10.220  11.801  0.1262  0.8686  1.1289
10117SOL     OW40664   5.261   7.452   1.122  0.1953  1.0257 -0.0714
10117SOL    HW140665   5.300   7.406   1.047 -0.4599 -0.1374  0.2742
10117SOL    HW240666   5.334   7.500   1.161  0.8114  0.6300 -0.7142
10118SOL     OW40667  10.699   9.222   9.043  0.3334  0.3475  0.3055
10118SOL    HW140668  10.740   9.135   9.045  1.0808  0.6432 -0.8308
10118SOL    HW240669  10.772   9.283   9.056 -0.2615  0.8163  1.6494
10119SOL     OW40670   2.138   1.026  12.619 -0.8187 -0.4882  0.1602
10119SOL    HW140671   2.199   1.058  12.685  0.0834  0.6851 -1.1812
10119SOL    HW240672   2.086   1.102  12.596 -1.9903 -1.1920  0.3982
10120SOL     OW40673   4.572   5.331   4.134  0.2461 -0.2476 -0.1832
10120SOL    HW140674   4.557   5.374   4.050  1.2538  1.9916  0.6922
10120SOL    HW240675   4.515   5.379   4.195  1.9328  0.3793  0.9661
10121SOL     OW40676   9.152   0.270   5.861 -0.0476 -0.2927 -0.1383
10121SOL    HW140677   9.078   0.330   5.861 -0.5650 -0.9121 -0.5945
10121SOL    HW240678   9.113   0.184   5.842  0.8138 -0.5844 -0.6292
10122SOL     OW40679   7.498   5.982   3.328  0.9452 -0.4024  0.1129
10122SOL    HW140680   7.434   6.045   3.294  0.4741 -0.7074  0.4189
10122SOL    HW240681   7.458   5.948   3.408  2.1552  0.5046  1.1498
10123SOL     OW40682  11.785   2.674   1.451  0.0619  0.1017  0.1572
10123SOL    HW140683  11.804   2.763   1.422  1.1278 -0.4150 -0.8226
10123SOL    HW240684  11.701   2.653   1.410 -0.3158  0.7353  0.5982
10124SOL     OW40685   6.578   6.557   7.227 -0.6621 -0.3973  0.2036
10124SOL    HW140686   6.570   6.499   7.152  0.4284  0.3299 -0.5089
10124SOL    HW240687   6.583   6.645   7.189  3.8063 -0.1997  0.7248
10125SOL     OW40688   4.930   5.625   6.710  0.7513 -0.4101  0.5267
10125SOL    HW140689   4.955   5.701   6.657 -0.8768  0.3602  0.7918
10125SOL    HW240690   4.952   5.650   6.800  1.9341 -1.0253  0.4195
10126SOL     OW40691   7.276   0.258   1.806 -0.4467  0.7010 -0.1021
10126SOL    HW140692   7.223   0.289   1.879 -1.4238  0.7464 -0.8112
10126SOL    HW240693   7.358   0.229   1.847 -1.4529 -0.4819  1.1859
10127SOL     OW40694  11.916   0.040   2.136 -0.2839 -0.1830 -0.5964
10127SOL    HW140695  11.888   0.024   2.227 -0.5743 -0.0769 -0.6647
10127SOL    HW240696  11.836   0.028   2.084 -0.8174  2.5249 -0.5521
10128SOL     OW40697   3.194   3.471   3.188 -0.4115 -0.0305  0.0436
10128SOL    HW140698   3.278   3.473   3.141  0.6642 -1.6997  1.7383
10128SOL    HW240699   3.217   3.442   3.276 -2.9296 -1.7835  0.2087
10129SOL     OW40700   1.863   6.070   8.230  0.9357 -0.1539  0.3008
10129SOL    HW140701   1.921   6.147   8.221 -0.6985  1.0663 -0.2982
10129SOL    HW240702   1.823   6.060   8.143 -0.5401 -0.3001  0.9772
10130SOL     OW40703  10.161   0.767   4.368  0.1810  0.2234 -0.2280
10130SOL    HW140704  10.151   0.840   4.308 -1.6569  0.7202  0.6231
10130SOL    HW240705  10.194   0.695   4.313 -0.8240  0.8398 -1.6829
10131SOL     OW40706   3.778  12.828   1.745 -0.2090  0.0877  0.0155
10131SOL    HW140707   3.746  12.739   1.732  1.4228 -0.5098 -0.1474
10131SOL    HW240708   3.778  12.867   1.658 -0.7696  0.1945  0.0623
10132SOL     OW40709   1.297  10.468  12.145 -0.8201 -0.1533  0.6891
10132SOL    HW140710   1.202  10.471  12.158 -0.8778 -1.9552  0.9841
10132SOL    HW240711   1.324  10.385  12.185  0.6115 -0.5707 -0.9971
10133SOL     OW40712  10.206  12.955  12.473  0.5553 -0.1385  0.4718
10133SOL    HW140713  10.115  12.981  12.493  0.4333 -0.6788  0.6437
10133SOL    HW240714  10.205  12.859  12.480  1.4566 -0.0808  1.8874
10134SOL     OW40715   7.983   0.413   0.579  0.6108  0.2894  0.7372
10134SOL    HW140716   7.965   0.506   0.573 -1.9418  0.1828  3.8305
10134SOL    HW240717   7.903   0.371   0.550  0.2502 -0.7427  3.0236
10135SOL     OW40718   4.441   3.284   4.747 -0.3521 -0.1128 -0.2584
10135SOL    HW140719   4.364   3.257   4.797 -0.1098  1.5433  1.0719
10135SOL    HW240720   4.455   3.375   4.771  0.5660  0.3689 -2.3964
10136SOL     OW40721   8.127   3.593   3.152 -0.7032  0.0265 -0.0459
10136SOL    HW140722   8.182   3.540   3.094 -1.2139  0.9852 -1.4516
10136SOL    HW240723   8.170   3.678   3.155 -1.3664  0.3666 -0.0400
10137SOL     OW40724   3.288   8.355   3.004 -0.1908 -0.5747 -0.9281
10137SOL    HW140725   3.284   8.331   2.912 -0.4435 -1.2825 -0.7407
10137SOL    HW240726   3.283   8.451   3.004 -0.5010 -0.5825 -1.6335
10138SOL     OW40727   1.210  11.007   8.552  0.3926  0.3774  0.4569
10138SOL    HW140728   1.241  10.922   8.522  0.1840  0.6978 -0.7285
10138SOL    HW240729   1.228  11.007   8.646  2.5602 -0.0606  0.1167
10139SOL     OW40730   6.975  10.825   7.300 -0.9777 -0.1585  0.2859
10139SOL    HW140731   6.936  10.857   7.219 -1.1538  1.7513  1.0715
10139SOL    HW240732   6.944  10.885   7.367  1.1554 -0.1805  1.3902
10140SOL     OW40733   4.764  10.786   5.112 -0.1822  0.1014  0.0885
10140SOL    HW140734   4.817  10.865   5.115  0.4240 -0.3314  1.6405
10140SOL    HW240735   4.691  10.808   5.053  0.1008  1.7182  0.2993
10141SOL     OW40736   9.324   1.266  10.739  0.1980  0.3351 -0.1188
10141SOL    HW140737   9.389   1.319  10.786  2.2804 -1.7772 -0.4201
10141SOL    HW240738   9.255   1.250  10.802  1.3810  0.2580  1.2048
10142SOL     OW40739   9.327   6.313   1.166 -0.1379  0.1374  0.2254
10142SOL    HW140740   9.351   6.394   1.120 -0.3367  0.0483 -0.0425
10142SOL    HW240741   9.401   6.295   1.224 -0.0943  0.5136  0.2894
10143SOL     OW40742   9.563   7.455   8.882 -1.0103 -0.0156  0.2780
10143SOL    HW140743   9.636   7.497   8.836 -0.8529  1.8654  2.0888
10143SOL    HW240744   9.605   7.396   8.945 -1.1768 -1.1331 -0.6224
10144SOL     OW40745   1.476   7.298   9.108  0.0447  0.3169 -0.2465
10144SOL    HW140746   1.557   7.273   9.062  0.0981  0.6681 -0.3485
10144SOL    HW240747   1.409   7.298   9.039 -0.1614 -0.5416 -0.0510
10145SOL     OW40748  10.019  10.116   8.399 -0.3129  0.2077  0.5765
10145SOL    HW140749  10.051  10.029   8.425  1.2709  0.5758 -0.0527
10145SOL    HW240750  10.035  10.171   8.475  0.4851  0.3706  0.2956
10146SOL     OW40751  10.009   5.795   1.198  0.3558  0.1365 -0.2556
10146SOL    HW140752  10.007   5.837   1.111  0.0501 -0.2611 -0.4405
10146SOL    HW240753  10.021   5.702   1.180 -2.8191 -0.4129 -0.0435
10147SOL     OW40754   7.484  12.599   4.218 -0.1197 -0.0557  0.1220
10147SOL    HW140755   7.398  12.641   4.213 -0.9262 -1.6544 -0.0664
10147SOL    HW240756   7.487  12.561   4.306 -0.1654 -1.1135 -0.3225
10148SOL     OW40757  10.455  11.343   9.544  0.0794 -0.3979 -0.1420
10148SOL    HW140758  10.372  11.376   9.577 -1.0102 -1.4368 -1.7226
10148SOL    HW240759  10.503  11.420   9.514  0.0465  0.2862  1.4770
10149SOL     OW40760   5.434   0.912   1.777 -0.0781  0.4228 -0.0077
10149SOL    HW140761   5.421   0.945   1.688 -0.8022 -0.8959 -0.4187
10149SOL    HW240762   5.362   0.948   1.827  0.3083  1.1356  0.0457
10150SOL     OW40763  11.164  10.147   6.644  0.7684 -0.6712  0.9230
10150SOL    HW140764  11.145  10.238   6.668 -1.6966 -0.5058 -1.1434
10150SOL    HW240765  11.241  10.153   6.587 -0.6877  0.5120 -1.0496
10151SOL     OW40766   4.821  12.526   0.475  0.3061  0.3179  0.4226
10151SOL    HW140767   4.883  12.597   0.485 -0.0453  0.5692  0.8372
10151SOL    HW240768   4.769  12.527   0.556 -1.2177  1.0693 -0.5187
10152SOL     OW40769   3.888   1.195   9.135 -0.5974 -0.2206 -0.0005
10152SOL    HW140770   3.887   1.102   9.157  0.4615  0.3667  2.9346
10152SOL    HW240771   3.980   1.218   9.131 -0.7591  0.3710 -2.8347
10153SOL     OW40772   2.500   7.226   2.464  0.7346  0.9144  0.3148
10153SOL    HW140773   2.529   7.272   2.543 -1.4668  3.0340  0.0396
10153SOL    HW240774   2.547   7.269   2.392 -1.9052  3.5648 -0.0228
10154SOL     OW40775   5.378   2.678  12.982 -0.2639 -0.7210 -0.1847
10154SOL    HW140776   5.394   2.717  13.068 -0.2522  0.2187 -0.5948
10154SOL    HW240777   5.422   2.594  12.986 -0.2825 -0.7053  0.7380
10155SOL     OW40778  11.977   6.387   3.267 -0.7849 -0.1071 -0.0743
10155SOL    HW140779  11.983   6.369   3.173  0.2814 -0.8046  0.1224
10155SOL    HW240780  12.058   6.353   3.304 -1.6189 -0.7364  1.2524
10156SOL     OW40781   8.316  12.364   5.837  0.2774 -0.1633 -0.1890
10156SOL    HW140782   8.285  12.356   5.747  0.3244 -1.7191 -0.1013
10156SOL    HW240783   8.236  12.361   5.890  0.4000 -2.8213 -0.0337
10157SOL     OW40784   2.347   0.388   1.958 -0.0168  0.6015  0.0642
10157SOL    HW140785   2.428   0.353   1.921  1.2061 -0.3605  3.3540
10157SOL    HW240786   2.336   0.473   1.914  1.3294 -0.3315 -2.2753
10158SOL     OW40787   3.876  11.281   6.712 -0.4060 -0.4163  0.2531
10158SOL    HW140788   3.934  11.357   6.717  0.5659 -0.8619 -2.3512
10158SOL    HW240789   3.845  11.280   6.621  1.2606 -4.1764 -0.4876
10159SOL     OW40790   8.404  12.445   4.595 -0.2832  0.2067  0.3491
10159SOL    HW140791   8.482  12.412   4.551 -0.8007  0.2116 -0.5960
10159SOL    HW240792   8.335  12.382   4.572 -0.9944  1.2328 -0.4302
10160SOL     OW40793   1.860   0.051   4.224  0.0295 -0.1915  0.1911
10160SOL    HW140794   1.803   0.047   4.301  0.7517 -1.8051  0.6994
10160SOL    HW240795   1.813   0.106   4.162 -1.6435 -0.6921  0.9525
10161SOL     OW40796   7.021   1.622   7.780 -0.0050  0.1590  0.8035
10161SOL    HW140797   7.098   1.678   7.765 -1.2087  1.7661  0.3631
10161SOL    HW240798   7.009   1.576   7.696 -1.1016  1.9729 -0.0837
10162SOL     OW40799   7.931   1.018   2.233 -0.4215  0.2526 -0.1716
10162SOL    HW140800   7.901   1.095   2.281 -0.5839  0.8387 -1.1982
10162SOL    HW240801   7.860   0.998   2.172  0.6117  0.7666 -1.5993
10163SOL     OW40802   1.381   6.833   2.200  0.3659 -0.1886 -0.1619
10163SOL    HW140803   1.469   6.866   2.220 -0.6268  2.1803  0.6561
10163SOL    HW240804   1.388   6.800   2.110  1.3250  3.2386 -1.4962
10164SOL     OW40805   3.612   1.361   7.904  0.1583 -0.6201 -0.2953
10164SOL    HW140806   3.670   1.293   7.870  0.4778 -0.0054 -0.9861
10164SOL    HW240807   3.528   1.344   7.861  0.1093 -0.8626 -0.1061
10165SOL     OW40808   5.251  12.897   7.487 -0.3269 -0.1634 -0.8929
10165SOL    HW140809   5.263  12.830   7.554  0.5311  0.5947 -0.2780
10165SOL    HW240810   5.257  12.980   7.534 -1.3472  0.3609 -1.6507
10166SOL     OW40811  10.761   7.010   7.628 -0.3759  0.0015 -0.1802
10166SOL    HW140812  10.774   6.919   7.601 -1.0148 -0.1407 -0.0201
10166SOL    HW240813  10.826   7.023   7.697 -0.2567 -0.3216 -0.2292
10167SOL     OW40814  11.212   0.660   2.991 -0.0709  0.1976  0.4905
10167SOL    HW140815  11.286   0.620   2.947 -0.4316 -0.2775  0.3069
10167SOL    HW240816  11.212   0.751   2.960 -1.7531 -0.6588 -2.4813
10168SOL     OW40817   2.011   5.112   0.247  0.5498  0.2468  0.3573
10168SOL    HW140818   1.974   5.150   0.327  0.4769  2.0040 -0.4627
10168SOL    HW240819   1.954   5.143   0.177  2.4797  1.5893 -0.7387
10169SOL     OW40820   3.769   4.757   1.584  0.0935 -0.7345  0.2120
10169SOL    HW140821   3.689   4.705   1.591 -0.3064 -0.4264 -1.5587
10169SOL    HW240822   3.801   4.765   1.674 -1.4946 -1.4239  0.8671
10170SOL     OW40823   0.067   9.395   0.230  0.1426 -0.6225  0.4242
10170SOL    HW140824   0.038   9.481   0.199 -0.6300 -1.1133 -0.2187
10170SOL    HW240825   0.020   9.382   0.313 -2.0387 -1.6783 -0.8980
10171SOL     OW40826   9.255   9.460   4.400  0.2460 -0.2611  0.0573
10171SOL    HW140827   9.265   9.419   4.486  1.0871 -0.0078  0.0849
10171SOL    HW240828   9.238   9.552   4.419 -0.7133 -0.4141 -0.0273
10172SOL     OW40829   6.941   9.146   2.311 -0.0287  0.2191  0.0640
10172SOL    HW140830   6.886   9.071   2.290 -0.2303  0.4955 -0.4178
10172SOL    HW240831   7.002   9.114   2.377 -0.4825 -0.2079  0.2771
10173SOL     OW40832   2.964   0.284   9.171 -0.1569  0.1243 -0.4888
10173SOL    HW140833   2.981   0.198   9.208 -1.0668  0.1568  0.0410
10173SOL    HW240834   2.906   0.267   9.096 -1.5329  0.3684  0.4808
10174SOL     OW40835   0.171   8.129   5.575 -0.2529 -0.6316  0.8867
10174SOL    HW140836   0.125   8.083   5.505 -1.0510  1.2191  0.1240
10174SOL    HW240837   0.249   8.076   5.591  1.2211  0.0280 -3.0688
10175SOL     OW40838  12.266  10.785   2.124 -0.2009  0.3361  0.3331
10175SOL    HW140839  12.287  10.694   2.145 -4.1701 -0.8710 -0.0830
10175SOL    HW240840  12.256  10.828   2.209  1.1096  0.3004  0.5323
10176SOL     OW40841   1.043   3.098   2.594 -0.1841 -0.0827  0.0127
10176SOL    HW140842   1.044   3.169   2.658  3.2957 -0.3017  0.3820
10176SOL    HW240843   1.028   3.142   2.510  1.0314  1.0171  0.3393
10177SOL     OW40844  10.977   9.727   7.260 -0.0732  0.4973 -0.1716
10177SOL    HW140845  10.891   9.755   7.291 -0.5289 -0.7924 -0.2166
10177SOL    HW240846  10.977   9.750   7.167 -1.0579 -1.0095 -0.5783
10178SOL     OW40847   4.109   9.754   6.310 -0.0710 -0.0450  0.3729
10178SOL    HW140848   4.097   9.829   6.252 -0.0614 -1.7296 -1.9233
10178SOL    HW240849   4.032   9.700   6.295 -0.0936 -0.5248  2.0270
10179SOL     OW40850   0.287  12.156  11.735 -0.0018  0.1543 -0.0421
10179SOL    HW140851   0.274  12.235  11.787  0.7120  1.1847 -1.3646
10179SOL    HW240852   0.345  12.183  11.664 -0.4559 -1.3506 -1.0400
10180SOL     OW40853  11.380   3.533   5.819 -0.2570  0.8082 -0.1650
10180SOL    HW140854  11.301   3.526   5.766 -0.0659  0.8206 -0.4534
10180SOL    HW240855  11.353   3.583   5.896 -0.9856 -0.7482  0.6291
10181SOL     OW40856  11.374  10.087  11.684  0.0636  0.0331 -0.7252
10181SOL    HW140857  11.425  10.040  11.751 -0.5091 -0.3267 -0.5361
10181SOL    HW240858  11.386  10.035  11.604 -0.7983 -0.6155 -0.4502
10182SOL     OW40859  11.972   6.880   0.542 -0.1633 -0.1016  0.8985
10182SOL    HW140860  11.990   6.971   0.565  0.1848  0.1039 -0.1536
10182SOL    HW240861  11.891   6.883   0.492  0.6107 -0.1692 -0.4061
10183SOL     OW40862  12.345   3.549   3.307 -0.2925  0.6510 -0.4692
10183SOL    HW140863  12.375   3.531   3.396 -0.5416 -2.1081 -0.8606
10183SOL    HW240864  12.252   3.572   3.317 -0.5091 -0.3709 -0.0730
10184SOL     OW40865   4.724   6.178   9.510 -0.4191 -0.1887  0.1718
10184SOL    HW140866   4.781   6.117   9.557 -1.3251 -0.8563  0.4328
10184SOL    HW240867   4.682   6.229   9.579  0.8901  1.2842 -0.0678
10185SOL     OW40868   9.039   1.577   6.378 -0.0411 -0.1521  0.3611
10185SOL    HW140869   8.948   1.554   6.359  0.3235 -2.4522  1.1563
10185SOL    HW240870   9.085   1.494   6.384  2.2478  0.9587 -0.4504
10186SOL     OW40871  10.478   2.186   1.276 -0.3685  0.0714 -0.6160
10186SOL    HW140872  10.519   2.250   1.218  1.1898  0.0637  0.3937
10186SOL    HW240873  10.471   2.231   1.360 -0.1571 -0.7561 -0.1425
10187SOL     OW40874   2.117   2.222   0.079  0.5016 -0.2975  0.0914
10187SOL    HW140875   2.116   2.296   0.139 -1.3409  0.8441 -1.2243
10187SOL    HW240876   2.207   2.219   0.046  0.5741  1.5315  0.0203
10188SOL     OW40877   1.996  10.403   6.630 -0.0471 -0.4672 -0.7161
10188SOL    HW140878   2.055  10.334   6.659 -0.6171 -1.4894 -1.8659
10188SOL    HW240879   2.021  10.480   6.681  1.7491 -1.0673 -0.6320
10189SOL     OW40880   2.553   3.408  12.776  0.3194 -0.0289 -0.3277
10189SOL    HW140881   2.619   3.466  12.813  0.1919  1.0539 -1.7448
10189SOL    HW240882   2.512   3.459  12.707 -0.9013 -1.2577 -0.5425
10190SOL     OW40883   0.639   2.732   8.142  0.0330  0.4434 -0.4508
10190SOL    HW140884   0.642   2.820   8.181  1.8363  0.2833 -0.1184
10190SOL    HW240885   0.724   2.723   8.100  0.3555 -1.5831  0.5302
10191SOL     OW40886   5.779  11.925  10.211 -0.4878 -0.0019  1.1397
10191SOL    HW140887   5.712  11.987  10.183 -1.1900 -1.2902 -0.1514
10191SOL    HW240888   5.862  11.970  10.192 -0.9749  0.3524 -0.3154
10192SOL     OW40889   2.132   4.355  11.496 -0.5708 -0.0788 -0.0194
10192SOL    HW140890   2.202   4.342  11.432 -0.4984  1.0618 -0.1985
10192SOL    HW240891   2.058   4.306  11.460 -0.6210  0.7865 -1.1598
10193SOL     OW40892   8.208   9.145   6.702  0.2218 -0.2939  0.0049
10193SOL    HW140893   8.281   9.154   6.763 -0.4190 -0.3522  0.7941
10193SOL    HW240894   8.227   9.064   6.653 -0.1089 -1.2068  1.3315
10194SOL     OW40895   9.393   7.673   0.219  0.3489  0.2002 -0.4452
10194SOL    HW140896   9.399   7.697   0.311 -1.5975 -2.1241  0.3838
10194SOL    HW240897   9.405   7.756   0.172  0.9094  1.5259  1.8801
10195SOL     OW40898   7.621  11.746   5.796 -0.9047  0.1139  0.6003
10195SOL    HW140899   7.610  11.840   5.782 -1.5111  0.0143  0.3928
10195SOL    HW240900   7.621  11.736   5.891  2.6959  0.7286  0.8179
10196SOL     OW40901   4.940   1.167   7.932 -0.1126  0.8328  0.4050
10196SOL    HW140902   4.894   1.195   8.011 -0.4564  2.3178 -0.3055
10196SOL    HW240903   4.871   1.151   7.868  0.2262  0.7047  0.0692
10197SOL     OW40904   7.878   9.870   7.622  0.7626  1.2303 -0.2711
10197SOL    HW140905   7.942   9.855   7.553 -0.3381  1.1616 -1.3182
10197SOL    HW240906   7.798   9.893   7.575 -0.0979  0.8771  0.9757
10198SOL     OW40907   8.534   8.591  11.364 -0.2738  0.3603  0.4710
10198SOL    HW140908   8.502   8.672  11.325 -1.3042 -1.0523 -1.8301
10198SOL    HW240909   8.577   8.545  11.291 -2.8760 -2.7280  0.6715
10199SOL     OW40910   0.958  12.429   8.023 -0.1025 -0.2877  0.2058
10199SOL    HW140911   1.010  12.362   7.978 -0.4905  0.0089 -0.7156
10199SOL    HW240912   1.020  12.499   8.042  0.1645 -0.6186  0.5685
10200SOL     OW40913   2.671   9.953   9.625 -0.0841  0.7247 -0.2340
10200SOL    HW140914   2.742  10.000   9.580  0.7147 -1.1703 -1.0686
10200SOL    HW240915   2.702   9.862   9.629 -1.6767  0.2008  1.0702
10201SOL     OW40916   5.303   2.422   2.610  0.0462 -0.4656  0.1044
10201SOL    HW140917   5.313   2.516   2.598 -1.5891  0.0050  1.9002
10201SOL    HW240918   5.350   2.403   2.691 -0.9386 -0.9023  0.5854
10202SOL     OW40919   6.445  11.946   4.925  0.1782 -0.2116  0.4303
10202SOL    HW140920   6.363  11.979   4.962  0.4914 -1.5994  2.5871
10202SOL    HW240921   6.513  11.980   4.984  1.0122 -0.3130 -0.4519
10203SOL     OW40922   5.666   0.301   0.514 -0.5113 -0.2616 -0.3691
10203SOL    HW140923   5.658   0.210   0.485  2.0453 -0.5544 -0.4284
10203SOL    HW240924   5.624   0.352   0.445  1.2883 -1.2314 -2.3111
10204SOL     OW40925  11.016   1.235   0.171  0.4055 -0.3052 -0.2119
10204SOL    HW140926  10.978   1.239   0.083 -1.2577  1.5909  0.5154
10204SOL    HW240927  11.066   1.316   0.180  2.4239 -1.5014 -0.1443
10205SOL     OW40928  10.610   5.496   3.815 -0.4224 -0.5615  0.2475
10205SOL    HW140929  10.625   5.586   3.786 -0.3834 -1.1841 -1.8728
10205SOL    HW240930  10.690   5.449   3.790 -1.0612 -1.4761 -0.1439
10206SOL     OW40931   5.415   0.631   1.850 -0.6001 -0.3217  0.3254
10206SOL    HW140932   5.460   0.599   1.771  0.0867 -1.5514  1.1781
10206SOL    HW240933   5.418   0.726   1.842  0.8427 -0.3910 -0.3881
10207SOL     OW40934   8.756   0.321  11.196  0.6129 -0.6815 -0.1802
10207SOL    HW140935   8.782   0.382  11.265 -1.0528  1.7480 -1.5285
10207SOL    HW240936   8.760   0.373  11.116 -1.5261 -2.1259 -1.3224
10208SOL     OW40937   2.409   4.240  10.812  0.4381  0.1969  0.5798
10208SOL    HW140938   2.415   4.239  10.908 -0.0931  0.7308  0.6235
10208SOL    HW240939   2.325   4.282  10.794 -1.2327 -3.0387 -0.0711
10209SOL     OW40940   4.964   2.522  12.554 -0.4840  0.1959 -0.5201
10209SOL    HW140941   4.978   2.428  12.537  1.4965 -0.0215  1.7474
10209SOL    HW240942   5.030   2.566  12.500  0.5135  0.0269  0.5038
10210SOL     OW40943  10.530   0.688  12.321 -0.1115  0.6084  0.2019
10210SOL    HW140944  10.550   0.690  12.415 -0.8674  1.1026  0.3616
10210SOL    HW240945  10.435   0.677  12.317  0.0876 -1.3040 -0.5313
10211SOL     OW40946   3.995   1.993   0.419 -0.4038  0.3942  0.6089
10211SOL    HW140947   3.916   1.958   0.460 -1.7165  1.6098 -0.7029
10211SOL    HW240948   4.017   1.930   0.350 -1.2292  0.8316 -0.0771
10212SOL     OW40949  11.390   0.014  10.883  0.3803 -0.7797  0.1997
10212SOL    HW140950  11.371   0.062  10.803 -0.0999 -0.9508  0.2097
10212SOL    HW240951  11.402   0.081  10.950  0.9265 -0.6312 -0.0404
10213SOL     OW40952   3.905   9.385   7.070 -0.0083 -0.1696  0.3660
10213SOL    HW140953   3.873   9.468   7.035  0.2648 -0.5958 -0.9698
10213SOL    HW240954   3.826   9.333   7.085 -0.0958 -0.4476 -0.9128
10214SOL     OW40955  11.670   7.778   9.926  0.4756  0.3290 -0.0458
10214SOL    HW140956  11.620   7.698   9.911 -0.0433  0.8161 -1.0553
10214SOL    HW240957  11.628   7.819  10.001  0.2650  0.0241  0.0042
10215SOL     OW40958   5.971   1.729   2.456  0.2351  0.2396 -0.7879
10215SOL    HW140959   5.986   1.781   2.377 -1.2202  2.8276  0.4908
10215SOL    HW240960   5.884   1.691   2.442 -0.3796  1.3509 -0.1929
10216SOL     OW40961   6.368   7.510   0.772  0.2926 -0.2397  0.6205
10216SOL    HW140962   6.459   7.492   0.797  0.1029 -1.7359  0.3610
10216SOL    HW240963   6.318   7.439   0.813 -0.7397  0.5002  0.6561
10217SOL     OW40964   1.084   6.165   5.666  0.0411 -0.7865 -0.4250
10217SOL    HW140965   1.001   6.212   5.671  0.2479 -0.3963 -0.6760
10217SOL    HW240966   1.066   6.082   5.711 -0.2364 -0.3499  0.2982
10218SOL     OW40967   2.149   1.484   0.872 -0.4997  0.3047 -0.0462
10218SOL    HW140968   2.150   1.568   0.917 -0.8662  0.5917 -0.5672
10218SOL    HW240969   2.058   1.470   0.847 -0.4234 -0.1868 -0.0742
10219SOL     OW40970  12.963   2.932   0.176 -0.1140 -0.7129  0.2020
10219SOL    HW140971  12.976   2.844   0.211  1.2017 -0.7933 -0.4410
10219SOL    HW240972  12.984   2.924   0.083 -0.5061  0.1711  0.0319
10220SOL     OW40973  12.178   5.649   0.095  0.5385  0.0076  0.4766
10220SOL    HW140974  12.219   5.726   0.136  1.9135  0.1943 -1.1144
10220SOL    HW240975  12.190   5.663   0.001 -0.9967 -1.2077  0.0577
10221SOL     OW40976  12.374  12.143  11.024  0.1252 -0.5342 -0.0321
10221SOL    HW140977  12.440  12.079  11.052  0.2384  0.0096  0.9948
10221SOL    HW240978  12.306  12.139  11.091  0.3437  0.7207  0.2979
10222SOL     OW40979   3.082   9.760  10.983 -0.2817  0.1061  0.1832
10222SOL    HW140980   3.055   9.724  10.898  1.3504 -2.0394  0.4935
10222SOL    HW240981   3.178   9.749  10.984 -0.1653  0.9567  1.9236
10223SOL     OW40982   0.268   9.824   4.996 -0.1171 -0.6435 -0.5133
10223SOL    HW140983   0.206   9.752   5.006 -0.2896 -0.4681 -0.2995
10223SOL    HW240984   0.335   9.806   5.062 -0.5897 -0.1709  0.1067
10224SOL     OW40985  12.165  12.692   2.086 -0.4335 -0.4514 -0.2619
10224SOL    HW140986  12.123  12.645   2.158  1.0137 -2.1179 -0.4498
10224SOL    HW240987  12.253  12.710   2.118  0.1893 -1.0983 -1.5516
10225SOL     OW40988   3.405   8.158   7.425  0.0418 -0.1452  0.2467
10225SOL    HW140989   3.451   8.242   7.419 -1.1613  0.5691  0.6686
10225SOL    HW240990   3.400   8.128   7.334 -1.3018  1.2682 -0.1916
10226SOL     OW40991   8.784   3.852   8.510 -0.0472 -0.3945 -0.6854
10226SOL    HW140992   8.861   3.797   8.496  0.1428  0.0208 -1.3089
10226SOL    HW240993   8.758   3.881   8.423  1.7805  3.0737 -0.2483
10227SOL     OW40994   9.385   1.382   8.709  0.0147 -0.1571  0.0295
10227SOL    HW140995   9.461   1.325   8.720 -1.2257 -1.4315  3.2218
10227SOL    HW240996   9.324   1.331   8.656  0.5470 -0.0020 -0.7450
10228SOL     OW40997   1.365   6.351   2.132 -0.1460  0.9087  0.4834
10228SOL    HW140998   1.416   6.326   2.055 -1.1454 -2.7286  0.7884
10228SOL    HW240999   1.298   6.410   2.099  0.6693  1.0271 -1.0347
10229SOL     OW41000   8.542   8.181   5.555 -0.3613  0.1108 -0.0434
10229SOL    HW141001   8.488   8.254   5.584 -1.5212 -0.2928 -1.1095
10229SOL    HW241002   8.529   8.177   5.460  1.5569 -0.0003 -0.3471
10230SOL     OW41003   2.133   8.740   5.389 -0.2817  0.0405 -1.0189
10230SOL    HW141004   2.211   8.739   5.445 -0.4714  1.3102 -0.7056
10230SOL    HW241005   2.079   8.668   5.421  1.6077 -2.2135 -2.5352
10231SOL     OW41006  10.312   5.892   9.880  0.3543  0.4640 -0.0998
10231SOL    HW141007  10.372   5.956   9.842  1.7874 -1.7275 -1.8146
10231SOL    HW241008  10.240   5.887   9.817  0.3504  0.2793 -0.0811
10232SOL     OW41009   3.156   8.663  11.396 -0.0252 -0.4284 -0.0892
10232SOL    HW141010   3.220   8.735  11.397  0.3585 -0.7665  0.1932
10232SOL    HW241011   3.092   8.687  11.463  0.0444 -0.2914 -0.0716
10233SOL     OW41012   0.290   4.889   1.281 -0.1765 -0.5432 -0.0139
10233SOL    HW141013   0.382   4.863   1.279  0.3235  1.1687 -1.7278
10233SOL    HW241014   0.246   4.817   1.327  1.7156 -2.2899 -0.8023
10234SOL     OW41015   9.706   2.313   3.899 -0.0945  0.2271  0.3523
10234SOL    HW141016   9.707   2.387   3.960  0.4683 -0.1123  0.7652
10234SOL    HW241017   9.668   2.348   3.819 -1.5080  0.5070  1.1128
10235SOL     OW41018   1.427   1.694   1.218 -0.9059 -0.3840 -0.8620
10235SOL    HW141019   1.356   1.634   1.242 -1.2280 -0.5858 -2.2511
10235SOL    HW241020   1.492   1.639   1.175 -0.6051  0.0467 -0.9672
10236SOL     OW41021   4.730   6.009   3.471  0.3445  0.0952  0.4589
10236SOL    HW141022   4.740   5.914   3.472  0.2457  0.0359 -1.0140
10236SOL    HW241023   4.693   6.031   3.556  0.9338 -1.1112  1.0502
10237SOL     OW41024   0.169   9.432   0.801 -0.2180  0.5186  0.0157
10237SOL    HW141025   0.129   9.345   0.790  0.2650  0.2332  0.4505
10237SOL    HW241026   0.159   9.474   0.716  1.2545 -0.6893 -0.8092
10238SOL     OW41027   7.115  12.597   8.157 -0.1835 -0.2255  0.0264
10238SOL    HW141028   7.127  12.526   8.221  0.5646 -0.6643 -0.5785
10238SOL    HW241029   7.115  12.677   8.210  1.8630 -0.4621  0.5029
10239SOL     OW41030   1.799  11.065   8.920  0.6551  0.2267  0.1616
10239SOL    HW141031   1.819  10.987   8.973 -0.3298  0.7044  1.2858
10239SOL    HW241032   1.797  11.033   8.830  0.2381 -1.0537  0.6018
10240SOL     OW41033   9.465  12.956   7.022  0.3302 -0.0877 -0.0843
10240SOL    HW141034   9.406  12.936   6.949 -0.8639  0.2506  0.7661
10240SOL    HW241035   9.550  12.923   6.993  0.2601  1.4347 -2.2909
10241SOL     OW41036   1.525   0.907   6.174  0.4733  0.4877  0.5548
10241SOL    HW141037   1.439   0.943   6.195 -0.0795  0.5912 -1.6019
10241SOL    HW241038   1.530   0.826   6.224 -0.5393  0.8667  1.3138
10242SOL     OW41039  10.654   2.716   5.900  0.0555  0.1488  0.0419
10242SOL    HW141040  10.609   2.777   5.842 -1.4946 -0.7653  0.2108
10242SOL    HW241041  10.720   2.769   5.945 -0.2359  1.3504 -0.8903
10243SOL     OW41042  12.032   9.175   0.736 -0.7645  0.1084  0.0524
10243SOL    HW141043  11.997   9.186   0.648 -1.5828 -0.4787  0.2889
10243SOL    HW241044  12.072   9.088   0.736  2.2726  1.3781 -0.7014
10244SOL     OW41045   4.858  12.303   2.584  0.0669  0.3363 -0.1174
10244SOL    HW141046   4.788  12.361   2.554  0.1215  1.8669  2.4218
10244SOL    HW241047   4.939  12.345   2.554  0.2186  2.7524  3.2037
10245SOL     OW41048   4.480   0.710   9.125  0.3323 -0.3289  0.6873
10245SOL    HW141049   4.433   0.627   9.130 -1.2800  0.3035 -1.8782
10245SOL    HW241050   4.571   0.686   9.107 -0.6180 -1.7051 -3.4299
10246SOL     OW41051   5.059   2.153   9.672 -0.4263 -0.1662 -0.1394
10246SOL    HW141052   5.133   2.187   9.622  0.3772 -1.6148 -0.0043
10246SOL    HW241053   4.981   2.178   9.621  0.2611 -0.0752 -1.1718
10247SOL     OW41054  11.145   3.032   7.927 -0.0590 -0.0025  0.7042
10247SOL    HW141055  11.223   3.012   7.875  0.1480  0.3693  0.8694
10247SOL    HW241056  11.171   3.011   8.017  0.3407  1.4870  0.9561
10248SOL     OW41057  11.757   3.335   6.704  0.3063 -0.2763 -0.5580
10248SOL    HW141058  11.729   3.412   6.655 -0.5297 -0.3574 -0.2177
10248SOL    HW241059  11.768   3.267   6.638  1.7372  0.3051 -0.9519
10249SOL     OW41060   0.826  10.504  11.934  0.9191 -0.5147 -0.4513
10249SOL    HW141061   0.734  10.477  11.939  1.0133 -0.6394  1.0691
10249SOL    HW241062   0.874  10.424  11.914  0.7805 -0.6225 -0.3541
10250SOL     OW41063  10.480   3.944   7.516 -0.4816  0.2551  0.0162
10250SOL    HW141064  10.427   3.865   7.517 -0.1635  0.0396 -0.0704
10250SOL    HW241065  10.451   3.993   7.593 -0.6612  0.0398  0.0863
10251SOL     OW41066   5.076   9.578   6.530 -0.0048  0.6204  0.7338
10251SOL    HW141067   5.113   9.506   6.479 -1.7928 -0.7293  1.2407
10251SOL    HW241068   5.152   9.628   6.560  1.1741  0.4787 -1.7688
10252SOL     OW41069  12.865   2.052   7.794 -0.0921  0.4591  0.3123
10252SOL    HW141070  12.904   2.046   7.881 -1.1678 -0.2707  0.7514
10252SOL    HW241071  12.940   2.071   7.737  0.5548  1.5096  1.4456
10253SOL     OW41072   1.187   7.411   5.692  0.7362  0.0002 -0.4271
10253SOL    HW141073   1.141   7.445   5.615 -0.0778 -0.6722 -0.2529
10253SOL    HW241074   1.275   7.448   5.686  1.1305 -1.1348 -2.4369
10254SOL     OW41075   2.490   4.794   1.492  0.1289  0.3505  0.3702
10254SOL    HW141076   2.493   4.797   1.588  0.1482  1.0626  0.3539
10254SOL    HW241077   2.555   4.858   1.464  1.2369 -0.9554 -0.1453
10255SOL     OW41078   0.549   4.164   4.028 -0.3400 -0.6191  0.3228
10255SOL    HW141079   0.487   4.211   3.972 -0.6650 -1.3626  0.0459
10255SOL    HW241080   0.596   4.106   3.967  1.4781  0.7917  0.3240
10256SOL     OW41081  10.974   6.716   1.678 -0.3192  0.3483  0.2376
10256SOL    HW141082  10.973   6.811   1.665  1.0522  0.5411  1.3584
10256SOL    HW241083  10.893   6.686   1.635  0.1647  1.7617 -1.8633
10257SOL     OW41084   9.610   2.119   0.475 -0.7337 -0.1244  0.5506
10257SOL    HW141085   9.529   2.074   0.496 -1.7596  2.2144  1.9699
10257SOL    HW241086   9.678   2.071   0.523 -1.6937 -0.3923  1.6566
10258SOL     OW41087  12.846   6.854  10.993  0.1696 -0.3991 -0.0206
10258SOL    HW141088  12.811   6.943  10.994 -0.4257 -0.5904  2.3921
10258SOL    HW241089  12.896   6.847  11.074  0.5457 -2.1378 -0.3653
10259SOL     OW41090   6.497   9.415   5.847  0.0554 -0.3169  0.2343
10259SOL    HW141091   6.482   9.450   5.935 -1.5888 -0.4630  0.0479
10259SOL    HW241092   6.517   9.492   5.794  1.6531 -0.2948  0.8273
10260SOL     OW41093   7.325   8.918   7.677 -0.4034  0.0494  0.2133
10260SOL    HW141094   7.278   8.877   7.604  0.7248  1.4435 -1.3941
10260SOL    HW241095   7.298   9.010   7.674  1.3777  0.6178  0.0466
10261SOL     OW41096   7.706  11.056   2.964  0.0797 -0.3926 -0.0264
10261SOL    HW141097   7.624  11.011   2.944  0.4610 -1.3777  0.5085
10261SOL    HW241098   7.773  11.003   2.919  0.3259  1.1731 -1.6158
10262SOL     OW41099  11.602   0.811   0.251 -0.1739 -0.1012  0.1175
10262SOL    HW141100  11.590   0.768   0.336 -0.5570 -0.4696 -0.1170
10262SOL    HW241101  11.684   0.774   0.218 -1.0345 -1.5043 -0.5626
10263SOL     OW41102   9.447   3.038   9.159  0.5689  0.1586  0.1246
10263SOL    HW141103   9.431   3.132   9.166  0.9981  0.2046  0.6364
10263SOL    HW241104   9.495   3.027   9.077  1.0328  0.4636  0.3528
10264SOL     OW41105   4.780   8.924   0.468 -0.3962  0.1317 -0.4204
10264SOL    HW141106   4.849   8.899   0.406  0.0137  2.2546 -0.9229
10264SOL    HW241107   4.800   8.874   0.547  0.7836 -0.4964 -1.0814
10265SOL     OW41108  10.008   3.603   4.456  0.6666 -0.2212 -0.6767
10265SOL    HW141109  10.050   3.599   4.542  0.0055  0.1677 -0.3282
10265SOL    HW241110  10.033   3.521   4.413  0.8780 -0.4858 -0.0550
10266SOL     OW41111   5.507   2.340  11.924  0.3712  0.2423 -0.1267
10266SOL    HW141112   5.452   2.278  11.974 -2.0260  2.4463  0.1898
10266SOL    HW241113   5.596   2.320  11.952 -0.4658 -1.7846  1.3960
10267SOL     OW41114   0.223   8.150   3.170 -0.2440 -0.0734  0.5277
10267SOL    HW141115   0.216   8.202   3.090 -1.1394 -1.2018 -0.1590
10267SOL    HW241116   0.305   8.102   3.160 -0.0400  0.2541  0.5912
10268SOL     OW41117   2.714   8.323   7.533 -0.1758  0.1697 -0.1713
10268SOL    HW141118   2.767   8.403   7.533 -0.8121  0.6258 -1.6058
10268SOL    HW241119   2.707   8.299   7.440 -0.7707 -1.0379  0.1635
10269SOL     OW41120   5.787  10.871  10.207 -0.0915  0.4058  0.3121
10269SOL    HW141121   5.880  10.885  10.185 -0.0546  0.2576  0.3682
10269SOL    HW241122   5.757  10.955  10.240  0.1019  0.3780  0.5650
10270SOL     OW41123   6.790   6.831  10.297  0.2368  0.1646 -0.0415
10270SOL    HW141124   6.848   6.771  10.343 -1.1912 -1.4978 -0.2999
10270SOL    HW241125   6.720   6.776  10.262  1.1332  1.2692 -4.2138
10271SOL     OW41126   3.894   2.852  11.846 -0.5244 -0.2420 -0.2661
10271SOL    HW141127   3.910   2.826  11.755 -1.8116 -0.7444 -0.3639
10271SOL    HW241128   3.876   2.770  11.892  0.9913 -0.0985  0.6652
10272SOL     OW41129   3.523   9.422   8.114  0.2929  0.1170 -0.5219
10272SOL    HW141130   3.573   9.496   8.148 -1.3835  1.0798 -0.0767
10272SOL    HW241131   3.565   9.401   8.031  0.2749  2.1328 -1.0804
10273SOL     OW41132   4.110   8.426   2.085 -0.1588 -0.8274  0.1621
10273SOL    HW141133   4.171   8.483   2.038 -1.4394  0.1261 -0.3930
10273SOL    HW241134   4.158   8.399   2.163  1.9286 -2.2471 -1.4911
10274SOL     OW41135   1.563   4.037   8.873  0.8170 -0.2352 -0.1357
10274SOL    HW141136   1.616   4.115   8.856  0.9695 -0.0349  1.1481
10274SOL    HW241137   1.507   4.029   8.796 -0.0316  1.8304  0.2005
10275SOL     OW41138  10.992   0.100   6.988  0.0834 -0.4258 -0.1763
10275SOL    HW141139  10.977   0.034   7.055 -1.4746  0.0938  0.0264
10275SOL    HW241140  11.055   0.060   6.928  0.4149 -1.4425  0.8267
10276SOL     OW41141   8.299   7.670   4.589 -0.4075 -0.0636  0.2417
10276SOL    HW141142   8.381   7.641   4.548 -1.0465 -0.1403 -1.0271
10276SOL    HW241143   8.275   7.749   4.540 -2.1694 -1.1955 -0.8207
10277SOL     OW41144   1.507   0.365  11.670  0.2001 -0.4918 -0.5267
10277SOL    HW141145   1.445   0.424  11.625  2.1122  0.0881 -2.5832
10277SOL    HW241146   1.486   0.278  11.636 -1.0079 -0.6875  0.6349
10278SOL     OW41147   5.556   7.661   8.731  0.1328  0.1523  0.0071
10278SOL    HW141148   5.510   7.625   8.655  1.2729 -0.9440 -0.2112
10278SOL    HW241149   5.618   7.592   8.756  1.1399  1.2670  0.7140
10279SOL     OW41150   6.411   4.694   7.246 -0.2061  0.1840 -0.1360
10279SOL    HW141151   6.325   4.705   7.205  0.1311 -0.2854 -1.0005
10279SOL    HW241152   6.465   4.654   7.177  0.3472 -0.7527  0.8155
10280SOL     OW41153   8.351   1.283   4.122 -0.2459 -0.2908  0.4945
10280SOL    HW141154   8.434   1.239   4.139  0.4581  0.8266  0.1022
10280SOL    HW241155   8.321   1.313   4.208  0.0012 -0.2977  0.5839
10281SOL     OW41156   6.786   7.649   5.291 -0.1910 -0.0824  0.2954
10281SOL    HW141157   6.820   7.559   5.294 -0.3398 -0.1081  2.1397
10281SOL    HW241158   6.698   7.642   5.327 -0.4294  0.7201 -0.1233
10282SOL     OW41159   2.633   9.635   0.979 -0.3424  0.2710  0.1449
10282SOL    HW141160   2.601   9.545   0.985 -0.5745  0.3680  0.4117
10282SOL    HW241161   2.555   9.689   0.992  0.1394  0.5256  2.4360
10283SOL     OW41162  11.023  10.453   5.177 -0.4551  0.4332  0.2099
10283SOL    HW141163  11.033  10.506   5.098 -0.9335  1.1966  0.6505
10283SOL    HW241164  10.933  10.421   5.174 -0.5247  0.5944  0.5256
10284SOL     OW41165   6.011   2.539   5.410  0.4625  0.1258 -0.2367
10284SOL    HW141166   6.058   2.573   5.335  0.4858  1.2492  0.2791
10284SOL    HW241167   5.992   2.615   5.464 -1.0052 -0.4366  0.0970
10285SOL     OW41168   6.581   9.173   2.298  0.1167  0.1069  0.0484
10285SOL    HW141169   6.650   9.188   2.234 -0.1971  0.8315 -0.1311
10285SOL    HW241170   6.585   9.079   2.318  1.5774  0.2570  0.5429
10286SOL     OW41171   9.537   1.295   1.072 -0.0055  0.1340  0.1856
10286SOL    HW141172   9.450   1.291   1.033  0.0024  1.0718  0.0561
10286SOL    HW241173   9.577   1.372   1.033  1.3258 -0.9373 -0.6570
10287SOL     OW41174   9.307   6.390   9.113  0.7031 -0.0000  0.2811
10287SOL    HW141175   9.304   6.311   9.059 -0.0547  0.2087  0.0087
10287SOL    HW241176   9.376   6.443   9.073  0.3211  0.0425 -0.3230
10288SOL     OW41177   9.632   1.926   5.079 -0.7101  0.0443  0.1026
10288SOL    HW141178   9.579   1.858   5.119  0.0708 -0.3505  0.4757
10288SOL    HW241179   9.698   1.879   5.029 -0.4214  0.5299  0.0208
10289SOL     OW41180  11.076   6.558   7.647  0.4171 -0.1444  0.2316
10289SOL    HW141181  11.066   6.462   7.643  1.8319 -0.3831  1.3473
10289SOL    HW241182  11.120   6.573   7.730  1.2804  1.3817 -0.4664
10290SOL     OW41183   2.637   5.785  10.174 -0.3911 -0.4926 -0.5466
10290SOL    HW141184   2.607   5.810  10.086  0.3589  1.0075 -0.4125
10290SOL    HW241185   2.557   5.776  10.225 -0.7626  0.2035 -0.9929
10291SOL     OW41186   6.039   0.392  10.394 -0.4064  0.0209 -0.0902
10291SOL    HW141187   6.109   0.329  10.380 -0.3575  0.2686 -1.0082
10291SOL    HW241188   6.071   0.473  10.355  0.1771  1.0857  2.3718
10292SOL     OW41189   0.802  10.655   3.827  0.2247  0.1690  0.6758
10292SOL    HW141190   0.865  10.725   3.815  0.8821 -0.6508 -0.9195
10292SOL    HW241191   0.731  10.694   3.878  1.5673  1.3639  1.6895
10293SOL     OW41192   0.899   8.282  12.229  0.0153 -0.2450  0.3461
10293SOL    HW141193   0.827   8.244  12.280  1.4387  2.0430  4.5480
10293SOL    HW241194   0.976   8.268  12.284  2.3049  0.1802 -2.5145
10294SOL     OW41195  12.158  11.001   9.297  0.7579 -0.2851 -0.5797
10294SOL    HW141196  12.192  11.043   9.218  0.7754  0.9628  0.0577
10294SOL    HW241197  12.073  10.966   9.270  0.6700  0.3080 -1.1142
10295SOL     OW41198   8.345  10.763   8.684 -0.1037 -0.0389  0.0446
10295SOL    HW141199   8.285  10.754   8.758  1.3279 -0.6393  1.1756
10295SOL    HW241200   8.350  10.676   8.646 -1.2532  0.3759 -1.1616
10296SOL     OW41201   6.270  12.084   5.475  0.4336 -0.2452  0.0177
10296SOL    HW141202   6.188  12.131   5.458  0.6975 -0.0368 -0.7123
10296SOL    HW241203   6.250  11.993   5.457 -0.1740 -0.5057  1.7563
10297SOL     OW41204   5.708   0.341   4.897  0.7394  0.1106 -0.0062
10297SOL    HW141205   5.711   0.345   4.802  0.1588  1.9602  0.0146
10297SOL    HW241206   5.799   0.347   4.925  0.8097  1.5146 -0.4366
10298SOL     OW41207  10.048  11.108  10.657  0.6237 -0.3328  0.5951
10298SOL    HW141208  10.139  11.083  10.644  0.2894 -0.3161 -2.3561
10298SOL    HW241209  10.052  11.201  10.681  1.3880 -0.3421  0.5161
10299SOL     OW41210   9.998   6.596   6.630  0.4473 -0.2105  0.1212
10299SOL    HW141211   9.940   6.527   6.662  0.9017 -0.8993 -0.4905
10299SOL    HW241212  10.086   6.558   6.638  0.7724  0.6089  0.5375
10300SOL     OW41213   1.685   4.657   9.177 -0.1103 -0.1484  0.2091
10300SOL    HW141214   1.698   4.577   9.228 -1.2701 -0.3639  0.1945
10300SOL    HW241215   1.694   4.629   9.086 -1.3859 -0.4670  0.1595
10301SOL     OW41216   7.865   0.249  11.562  0.2811 -0.0773 -0.0464
10301SOL    HW141217   7.915   0.178  11.602 -1.4738 -0.4305  1.6941
10301SOL    HW241218   7.825   0.210  11.484  1.5027 -0.1875 -0.6394
10302SOL     OW41219   5.402  12.582   8.309 -0.0158  0.5156  0.2422
10302SOL    HW141220   5.495  12.565   8.295  0.0636 -1.0577  2.2614
10302SOL    HW241221   5.380  12.535   8.389 -2.9716 -0.6375 -1.0858
10303SOL     OW41222  11.748   7.060   0.442  0.1889  0.1658  0.3737
10303SOL    HW141223  11.666   7.107   0.457 -0.6583 -1.1503 -0.0230
10303SOL    HW241224  11.722   6.980   0.396  1.8540  0.4415 -1.1475
10304SOL     OW41225   0.838   9.769   2.600  0.1983  0.5828 -0.2932
10304SOL    HW141226   0.865   9.682   2.572  1.0008  1.0217 -0.9034
10304SOL    HW241227   0.849   9.768   2.696  1.6130  0.4811 -0.4433
10305SOL     OW41228   3.553   4.596   1.617  0.4695 -0.0691 -0.1870
10305SOL    HW141229   3.614   4.534   1.655  0.8171  0.6036  0.3682
10305SOL    HW241230   3.474   4.589   1.671 -0.4098 -1.7309 -1.5490
10306SOL     OW41231   3.256  12.543   6.454 -0.0282  0.0946  0.2169
10306SOL    HW141232   3.275  12.467   6.399 -0.5759  0.2525 -0.2058
10306SOL    HW241233   3.341  12.586   6.466  0.0970  0.0572 -0.5102
10307SOL     OW41234   1.260  11.437  11.655  0.4277  0.0224 -0.5657
10307SOL    HW141235   1.319  11.371  11.619 -0.2253  0.5515 -2.7336
10307SOL    HW241236   1.295  11.521  11.623 -0.0622  0.5560  0.2541
10308SOL     OW41237  11.148   4.855   4.871 -0.2929  0.5215  0.0857
10308SOL    HW141238  11.148   4.800   4.949  1.0367 -1.9919 -1.5175
10308SOL    HW241239  11.204   4.929   4.893  0.3950 -0.3434  1.3856
10309SOL     OW41240  10.292  10.224   3.150  0.3509 -0.8631  0.2950
10309SOL    HW141241  10.257  10.260   3.231  0.2024 -0.3934  0.0323
10309SOL    HW241242  10.386  10.240   3.155  0.1853  0.4211 -0.2155
10310SOL     OW41243   1.132   6.193   8.396 -0.1576 -0.3152  0.5159
10310SOL    HW141244   1.125   6.116   8.340 -1.0734 -0.8168  1.2964
10310SOL    HW241245   1.225   6.201   8.415  0.2077  0.0149 -1.2658
10311SOL     OW41246   5.348  11.858   8.189  0.3505  0.0434  0.6515
10311SOL    HW141247   5.401  11.782   8.215 -0.4541 -0.9953 -0.6176
10311SOL    HW241248   5.408  11.932   8.194  2.2570 -1.2114 -1.6294
10312SOL     OW41249   3.423   3.087   0.204  0.6871  0.3223 -0.3006
10312SOL    HW141250   3.447   3.177   0.224 -0.9773  0.8995 -0.7423
10312SOL    HW241251   3.408   3.086   0.109  0.3942 -0.3330 -0.2609
10313SOL     OW41252   9.946   9.404   7.401  0.1863  0.5188  0.0170
10313SOL    HW141253   9.859   9.373   7.428  0.2467 -0.5294 -0.9331
10313SOL    HW241254   9.974   9.342   7.334  1.8153  0.6734  0.5173
10314SOL     OW41255   3.558   6.751   1.279  0.3598 -0.4725 -0.8049
10314SOL    HW141256   3.468   6.730   1.306  0.9701 -1.6453  0.4396
10314SOL    HW241257   3.550   6.833   1.229 -1.3090 -0.2064 -0.1603
10315SOL     OW41258   8.907   0.978   6.444 -0.1452 -0.1855 -0.5337
10315SOL    HW141259   8.821   1.018   6.458 -0.2237 -0.3921 -0.4203
10315SOL    HW241260   8.951   0.985   6.529  0.6417  1.5394 -1.0455
10316SOL     OW41261   2.202   7.839  10.297  0.0943 -0.4080 -0.5186
10316SOL    HW141262   2.247   7.814  10.216 -0.0833 -0.5222 -0.5853
10316SOL    HW241263   2.117   7.872  10.267 -0.4488 -1.5707 -0.3134
10317SOL     OW41264   4.734   2.033   8.892  0.2027  0.0998  0.2787
10317SOL    HW141265   4.719   1.940   8.913  0.1943 -0.2506 -1.1570
10317SOL    HW241266   4.814   2.033   8.840 -0.9803  0.5710 -1.6957
10318SOL     OW41267   9.738   2.678   5.400 -0.2303  0.2883  0.7729
10318SOL    HW141268   9.706   2.594   5.369 -2.2968  0.7867  1.3910
10318SOL    HW241269   9.736   2.672   5.495  2.2499  0.1402  0.8745
10319SOL     OW41270   5.376   7.771  11.474  0.3218 -0.2657  0.2737
10319SOL    HW141271   5.344   7.776  11.564 -1.2728 -0.1180 -0.2625
10319SOL    HW241272   5.327   7.698  11.436  2.9398 -2.1422  0.2389
10320SOL     OW41273  12.584  10.163   1.499 -0.2082 -0.2730  0.1947
10320SOL    HW141274  12.582  10.179   1.593 -0.1316 -1.5704  0.4436
10320SOL    HW241275  12.495  10.182   1.470 -0.3474 -0.2808  0.6064
10321SOL     OW41276   4.305   9.368   7.149  0.2660 -0.3301 -0.1998
10321SOL    HW141277   4.264   9.387   7.233  1.2792 -1.1763  0.5215
10321SOL    HW241278   4.399   9.380   7.165  0.5511 -1.4253 -0.9358
10322SOL     OW41279  12.960  12.766   2.319  0.3437 -0.3389  0.1454
10322SOL    HW141280  12.904  12.698   2.355 -0.7232  0.3927 -0.0677
10322SOL    HW241281  12.916  12.794   2.239  1.2317 -0.0205 -0.2503
10323SOL     OW41282   5.881   0.648   6.067  0.4448  0.0066  0.6075
10323SOL    HW141283   5.801   0.647   6.014  0.5360  0.3424  0.4556
10323SOL    HW241284   5.869   0.721   6.127  1.1723  0.8878 -0.2769
10324SOL     OW41285  11.804   3.724  10.005 -0.4750 -0.1025  0.1980
10324SOL    HW141286  11.724   3.776   9.999 -0.2056  0.5898  2.0361
10324SOL    HW241287  11.836   3.720   9.915 -1.7333  0.9369 -0.3396
10325SOL     OW41288  12.849   3.455   0.038 -0.2075  0.1522 -0.0158
10325SOL    HW141289  12.826   3.480   0.128  0.2807  1.8303 -0.3211
10325SOL    HW241290  12.944   3.445   0.039 -0.3674 -1.9774  0.1091
10326SOL     OW41291  12.444   5.478  10.449  0.5684  0.0181 -0.5221
10326SOL    HW141292  12.470   5.398  10.495  1.6138 -0.3099 -1.6189
10326SOL    HW241293  12.522   5.533  10.452  0.2406  0.5046 -0.8027
10327SOL     OW41294   6.013   3.681   5.952  0.6976 -0.3009 -0.1841
10327SOL    HW141295   6.002   3.654   6.043  1.2854  1.3347  0.3982
10327SOL    HW241296   6.013   3.777   5.955 -2.5946 -0.0882 -2.2964
10328SOL     OW41297  10.352  11.052  10.609  0.0701 -0.2099  0.2698
10328SOL    HW141298  10.350  10.980  10.546  1.3202 -0.5556  0.5853
10328SOL    HW241299  10.373  11.129  10.557  1.8693 -0.6206  0.3228
10329SOL     OW41300   7.701   8.289   2.048  0.0296 -0.7561  0.2375
10329SOL    HW141301   7.700   8.225   1.977  2.8553 -0.5304 -0.0934
10329SOL    HW241302   7.655   8.365   2.012 -1.6642 -1.8513 -0.0424
10330SOL     OW41303   8.397  10.975   7.513  0.3507  0.3012 -0.1748
10330SOL    HW141304   8.312  11.015   7.531  1.2387  2.2035  0.0200
10330SOL    HW241305   8.410  10.990   7.419  0.9098  0.9763 -0.0016
10331SOL     OW41306   1.313   4.879   7.099 -0.5921 -0.1438  0.2005
10331SOL    HW141307   1.287   4.892   7.190 -1.2583 -0.1729  0.0206
10331SOL    HW241308   1.348   4.964   7.072  2.0879 -0.8246  1.2458
10332SOL     OW41309   2.896  11.634   6.706  0.9526  0.2708 -0.1413
10332SOL    HW141310   2.856  11.675   6.630  1.8107 -0.1760 -0.8539
10332SOL    HW241311   2.831  11.643   6.776  0.4773  1.3890 -0.7096
10333SOL     OW41312   8.711   3.005   2.011  0.1509  0.3255  0.2426
10333SOL    HW141313   8.706   2.935   1.946 -1.4934  0.4828  0.1594
10333SOL    HW241314   8.632   2.992   2.065  0.9453  0.8199  1.5621
10334SOL     OW41315  11.679   2.907   8.375  0.3884  0.2579  0.2573
10334SOL    HW141316  11.740   2.924   8.447 -0.2414 -0.0626  0.8784
10334SOL    HW241317  11.715   2.830   8.331 -0.0807 -0.5450  1.2271
10335SOL     OW41318   2.576   8.734   5.930  0.5409  0.5680 -0.0784
10335SOL    HW141319   2.661   8.691   5.931  0.1013 -0.3387 -0.4622
10335SOL    HW241320   2.575   8.787   5.851  1.5166  2.2337  0.9566
10336SOL     OW41321  11.653   8.583   7.263  0.5830  0.4863 -0.6440
10336SOL    HW141322  11.699   8.502   7.286 -0.6934 -0.6931 -2.0635
10336SOL    HW241323  11.562   8.567   7.288  0.5372  2.0482  0.3293
10337SOL     OW41324   8.186  11.786  10.832 -0.6970  0.7371  0.4640
10337SOL    HW141325   8.108  11.800  10.777 -1.1631 -1.5954  0.4654
10337SOL    HW241326   8.224  11.874  10.839 -1.1370  1.3463 -2.8032
10338SOL     OW41327  11.297   7.520   4.438  0.3533 -0.9749 -0.0745
10338SOL    HW141328  11.391   7.500   4.437  0.3117 -1.4710  1.8014
10338SOL    HW241329  11.271   7.507   4.529 -1.0875  1.3515 -0.0673
10339SOL     OW41330   1.576  11.134   0.280 -0.4363  0.2072  0.3180
10339SOL    HW141331   1.660  11.170   0.305 -0.0415  0.4227 -1.2567
10339SOL    HW241332   1.512  11.183   0.331  0.2716  1.3067  0.1625
10340SOL     OW41333   0.522   2.145   2.938 -0.1841  0.1136  0.3100
10340SOL    HW141334   0.449   2.173   2.885  0.3717  1.5878  0.2849
10340SOL    HW241335   0.597   2.144   2.878  0.7624  3.2327  1.2662
10341SOL     OW41336   9.526  10.940   9.123 -0.1939 -0.5582 -0.1569
10341SOL    HW141337   9.449  10.980   9.164 -1.7959 -3.3174 -0.2437
10341SOL    HW241338   9.505  10.937   9.030 -0.4265 -2.0898 -0.0840
10342SOL     OW41339  10.334   1.447   9.862  0.1747 -0.1520 -0.1913
10342SOL    HW141340  10.422   1.409   9.857  0.5409  0.6295  0.1445
10342SOL    HW241341  10.333   1.515   9.795  0.2851  0.7400  0.6998
10343SOL     OW41342   9.322   9.034   8.747  0.1271  0.2241  0.3426
10343SOL    HW141343   9.326   8.971   8.819 -1.2385 -1.2759 -0.8198
10343SOL    HW241344   9.267   8.992   8.681  0.9187  1.7605 -1.3853
10344SOL     OW41345  12.069   8.758   1.226  0.2363 -0.6597 -0.1587
10344SOL    HW141346  12.092   8.788   1.138  0.7445 -0.6429 -0.0241
10344SOL    HW241347  11.975   8.739   1.221  0.0636  0.2221 -0.4467
10345SOL     OW41348   6.981   1.337   2.091 -0.0549 -0.8714 -0.1563
10345SOL    HW141349   6.915   1.401   2.064  0.6026  0.5419  1.4117
10345SOL    HW241350   6.931   1.269   2.137 -0.6703 -1.1409 -1.1840
10346SOL     OW41351   2.636   2.058   5.563 -0.2076  0.0449 -0.0141
10346SOL    HW141352   2.615   2.146   5.530  1.6451  0.6232  0.2097
10346SOL    HW241353   2.553   2.024   5.595 -1.3229  1.0081 -1.6906
10347SOL     OW41354   2.098   5.250   7.085 -0.2096  0.2023 -0.5782
10347SOL    HW141355   2.121   5.157   7.082 -0.1540  0.2353 -1.8990
10347SOL    HW241356   2.175   5.293   7.123  0.1093 -0.1952 -0.7677
10348SOL     OW41357  10.141   9.041   6.284 -0.2166 -0.2138  0.3507
10348SOL    HW141358  10.150   9.015   6.192  1.2770 -1.3058  0.7771
10348SOL    HW241359  10.227   9.073   6.309 -0.9348  1.3043  1.0461
10349SOL     OW41360   6.786   8.206  10.423  0.8350 -0.5041  0.2946
10349SOL    HW141361   6.848   8.257  10.372 -0.5538 -0.3914 -1.3663
10349SOL    HW241362   6.761   8.264  10.496 -0.0357  0.9018 -1.0549
10350SOL     OW41363   7.516   6.596   7.148 -0.0907 -0.2409 -0.6620
10350SOL    HW141364   7.469   6.632   7.223 -1.2464  0.1260 -1.5372
10350SOL    HW241365   7.599   6.642   7.148 -0.3915  0.3250 -0.0700
10351SOL     OW41366   3.216  12.497   2.298 -0.0518  0.4550  0.3445
10351SOL    HW141367   3.230  12.429   2.232 -0.3470 -0.0877  0.8311
10351SOL    HW241368   3.129  12.479   2.334  0.1053  0.7400  0.8846
10352SOL     OW41369   5.010   1.828   0.778  0.4640  0.3827  0.3300
10352SOL    HW141370   5.028   1.793   0.690  0.8740 -0.1807  0.6312
10352SOL    HW241371   5.053   1.914   0.779  0.6047  0.3169  0.0389
10353SOL     OW41372  10.835   7.564   8.819  0.1884  0.1382 -0.0735
10353SOL    HW141373  10.903   7.549   8.753  0.2158 -1.8761  0.3588
10353SOL    HW241374  10.882   7.591   8.897  0.3949 -0.1228 -0.1069
10354SOL     OW41375   2.268   2.970  12.708  0.0875  0.3287 -0.3597
10354SOL    HW141376   2.282   2.883  12.670 -0.2480 -0.9591  2.2043
10354SOL    HW241377   2.175   2.971  12.731 -0.1364  1.7854 -1.1865
10355SOL     OW41378   9.491   2.590   8.045  0.2974 -0.4625 -0.1152
10355SOL    HW141379   9.433   2.641   7.989  1.1806 -0.8619 -1.4399
10355SOL    HW241380   9.463   2.611   8.134 -1.0855  0.2592 -0.6896
10356SOL     OW41381   0.067   7.841  12.978 -0.7985 -0.5260 -0.0077
10356SOL    HW141382   0.161   7.835  12.994 -0.8255 -0.7014  0.0844
10356SOL    HW241383   0.035   7.750  12.984 -0.6626 -0.7436 -1.9528
10357SOL     OW41384   8.667   7.762   0.074  0.1552  0.0455 -0.1897
10357SOL    HW141385   8.624   7.808   0.002 -0.7295 -0.5347 -0.0434
10357SOL    HW241386   8.622   7.794   0.153 -0.0868 -0.6412 -0.0448
10358SOL     OW41387   9.843   2.584   3.781  0.0568  0.2235 -0.1000
10358SOL    HW141388   9.933   2.557   3.763  0.6778  1.3346  1.1516
10358SOL    HW241389   9.795   2.561   3.702  1.3125 -0.9034 -0.5864
10359SOL     OW41390   0.830   7.489  12.447  0.3088 -0.3943  0.0996
10359SOL    HW141391   0.789   7.543  12.514  2.2862  0.4960  0.6769
10359SOL    HW241392   0.757   7.453  12.396 -1.1622  3.2697 -0.7045
10360SOL     OW41393   5.688   5.988   7.292  0.3617  0.0510  0.1103
10360SOL    HW141394   5.778   5.956   7.289 -0.1175 -1.3013 -0.5823
10360SOL    HW241395   5.681   6.050   7.219  1.0065  0.9720  0.8127
10361SOL     OW41396   3.906   0.178   3.258 -0.0618  0.2659 -0.1828
10361SOL    HW141397   3.967   0.234   3.304 -0.8038  2.2715 -1.5107
10361SOL    HW241398   3.933   0.089   3.282  1.1627  1.1369  1.9769
10362SOL     OW41399  11.801  10.799  12.301  0.0836  0.5485 -0.2470
10362SOL    HW141400  11.882  10.833  12.339 -0.7109  0.6616  1.4838
10362SOL    HW241401  11.734  10.818  12.368 -1.3298  0.2973 -1.5412
10363SOL     OW41402   3.198   4.560   9.058  0.0291  0.1324 -0.2087
10363SOL    HW141403   3.218   4.588   9.147 -0.5621  1.5016 -0.4935
10363SOL    HW241404   3.190   4.641   9.008 -0.6928 -0.5812 -1.2825
10364SOL     OW41405  12.931   5.657   4.076  0.6525 -0.3360  0.1790
10364SOL    HW141406  12.889   5.577   4.109  0.2555 -0.2156 -0.0267
10364SOL    HW241407  13.014   5.661   4.122  0.0909 -0.1515  1.2064
10365SOL     OW41408  10.997  11.034   5.932  0.2257 -0.1213 -0.4248
10365SOL    HW141409  11.022  11.083   5.854  4.8181 -2.3325 -0.6599
10365SOL    HW241410  11.007  11.096   6.004  0.5387  0.7356 -1.1933
10366SOL     OW41411   0.595  11.637  11.800  0.0914  0.0329  0.7616
10366SOL    HW141412   0.555  11.640  11.713  0.0172 -0.7393  0.7575
10366SOL    HW241413   0.689  11.647  11.783 -0.0539  1.6124  0.7502
10367SOL     OW41414  10.516  12.101  11.035 -0.0594 -0.7220  0.3259
10367SOL    HW141415  10.576  12.096  11.110  0.2326  1.1784  0.2662
10367SOL    HW241416  10.509  12.195  11.016 -0.4469 -1.1259 -1.7838
10368SOL     OW41417  11.847  12.209   3.910  0.1423 -0.3153 -0.8944
10368SOL    HW141418  11.777  12.155   3.947  1.6460 -2.2594 -0.7649
10368SOL    HW241419  11.801  12.269   3.851 -2.1649  1.6355  2.5032
10369SOL     OW41420   5.096   3.804   4.901  0.1814 -0.1677 -0.4644
10369SOL    HW141421   5.030   3.862   4.938 -0.2269  0.1604 -1.6481
10369SOL    HW241422   5.109   3.736   4.967 -2.5955 -1.2100 -0.8325
10370SOL     OW41423   3.041   8.284   2.443  0.2604 -0.6064  0.1675
10370SOL    HW141424   3.031   8.192   2.470 -4.2124 -0.6614 -0.8531
10370SOL    HW241425   3.050   8.280   2.348 -1.1638 -0.0599 -0.0230
10371SOL     OW41426  10.014   0.820   4.618 -0.4783  0.0933  0.0378
10371SOL    HW141427  10.049   0.802   4.531  0.4436  0.7920  0.2427
10371SOL    HW241428   9.987   0.734   4.651  0.8762 -0.4657 -0.2337
10372SOL     OW41429  12.417  10.804  11.842  0.2964 -0.2230  0.3840
10372SOL    HW141430  12.339  10.836  11.798 -0.3883 -0.6072  1.2821
10372SOL    HW241431  12.425  10.859  11.920 -0.6670 -1.8852  1.7356
10373SOL     OW41432  12.359  12.912   0.665 -0.5520  0.0437  0.6576
10373SOL    HW141433  12.445  12.893   0.628 -0.6469 -2.1554  1.4318
10373SOL    HW241434  12.371  12.901   0.759 -1.4086  0.8969  0.8758
10374SOL     OW41435  11.778  10.184   6.689  0.4667 -0.9474  0.5349
10374SOL    HW141436  11.741  10.269   6.665  0.5096 -1.6171 -2.1643
10374SOL    HW241437  11.839  10.204   6.760 -1.1733  0.9042  1.5478
10375SOL     OW41438  11.444   6.310   8.810 -0.6031  0.2083 -0.2334
10375SOL    HW141439  11.473   6.226   8.774 -2.2970  0.0041 -1.2559
10375SOL    HW241440  11.389   6.286   8.884  1.1177  0.5615  1.2227
10376SOL     OW41441  10.438   4.415   7.352 -0.0934 -0.3925 -0.0083
10376SOL    HW141442  10.428   4.351   7.422 -1.8460  0.3495  0.4939
10376SOL    HW241443  10.480   4.367   7.281  2.9910 -0.8532  1.9182
10377SOL     OW41444   8.786   8.932   0.398  0.6098 -0.4472  0.3936
10377SOL    HW141445   8.861   8.887   0.359  2.1641  1.8722  0.4741
10377SOL    HW241446   8.802   9.025   0.379 -1.6919  0.2109  1.3915
10378SOL     OW41447   4.271   0.369   1.511 -0.1396 -0.4191 -0.2611
10378SOL    HW141448   4.205   0.301   1.526 -1.6437  0.2936 -2.9546
10378SOL    HW241449   4.304   0.390   1.598 -1.7406 -2.5161  0.9441
10379SOL     OW41450   3.096   4.279   8.225  0.1735  0.0980  0.4617
10379SOL    HW141451   3.037   4.204   8.216 -0.9366  0.5627  2.9555
10379SOL    HW241452   3.184   4.242   8.210 -0.5172 -1.1235 -0.8789
10380SOL     OW41453   6.858   2.569   7.079  0.0258 -0.4892  0.3721
10380SOL    HW141454   6.884   2.582   7.170  1.7180  0.2628 -0.2007
10380SOL    HW241455   6.818   2.481   7.079 -0.0781 -0.4715  1.8356
10381SOL     OW41456   4.572   1.056   4.610 -0.2831  0.6171 -0.2761
10381SOL    HW141457   4.573   1.117   4.683 -2.1075  1.7148 -1.0845
10381SOL    HW241458   4.664   1.032   4.596  0.1582  0.9101  1.8895
10382SOL     OW41459  10.972   1.130  12.295  0.0310  0.3794 -0.1339
10382SOL    HW141460  10.902   1.166  12.349 -1.4808  1.9256 -2.8783
10382SOL    HW241461  11.050   1.179  12.321 -0.6887  1.2544  0.4606
10383SOL     OW41462   5.255  12.891   4.670  0.3363  0.3735  0.0799
10383SOL    HW141463   5.195  12.952   4.712  0.5222  1.4673 -1.2006
10383SOL    HW241464   5.324  12.946   4.632 -0.0714 -0.4796 -2.0607
10384SOL     OW41465   1.213   4.556   1.608  0.0672  0.3407  0.1853
10384SOL    HW141466   1.195   4.605   1.528  1.1099 -0.5033 -0.5943
10384SOL    HW241467   1.163   4.602   1.676 -1.7805  0.3981 -1.1295
10385SOL     OW41468   1.688   0.304   0.693  0.5403  0.9063 -0.2533
10385SOL    HW141469   1.777   0.335   0.675  0.7288  0.1609 -0.6658
10385SOL    HW241470   1.632   0.381   0.676  1.0448  1.1956 -0.6551
10386SOL     OW41471   7.984  10.491  11.287 -0.4508 -0.1581  0.1778
10386SOL    HW141472   8.044  10.490  11.362  0.1530  0.7310 -0.2863
10386SOL    HW241473   7.936  10.573  11.295 -0.3511 -0.0357 -0.4357
10387SOL     OW41474   0.347   9.203   5.983  0.0456  0.1306  0.0389
10387SOL    HW141475   0.425   9.196   6.037 -1.1330 -0.0425  1.8237
10387SOL    HW241476   0.357   9.137   5.915  1.3434 -0.0067  0.3548
10388SOL     OW41477   4.666   2.209   6.843  0.4571 -0.8655  0.2441
10388SOL    HW141478   4.728   2.232   6.911  1.3623  0.4122 -0.9458
10388SOL    HW241479   4.609   2.286   6.836  0.6224 -0.8104 -0.6725
10389SOL     OW41480   6.333   1.120  11.517 -0.0702 -0.0406 -0.3852
10389SOL    HW141481   6.299   1.202  11.478 -0.6084 -0.8540 -1.7148
10389SOL    HW241482   6.257   1.062  11.520  0.1748 -0.3235  1.0994
10390SOL     OW41483   4.077  12.948   3.676  0.2520  0.2773  0.5699
10390SOL    HW141484   4.040  12.880   3.732 -0.6140  0.7511  0.5786
10390SOL    HW241485   4.069  13.029   3.727  1.3829  0.3873  0.6095
10391SOL     OW41486   0.548  10.189  11.215 -0.3902 -0.1451  0.4328
10391SOL    HW141487   0.512  10.104  11.239  0.0616 -0.3584  0.3679
10391SOL    HW241488   0.625  10.199  11.271 -0.5692  0.3212  0.5993
10392SOL     OW41489  11.045  10.336   2.133  0.0363 -0.0167 -0.1515
10392SOL    HW141490  11.108  10.345   2.204 -1.6791 -1.2414  1.6487
10392SOL    HW241491  11.092  10.291   2.063  1.5119  0.3737  0.5709
10393SOL     OW41492  11.059  12.082   9.847 -0.1682 -0.1470  0.1503
10393SOL    HW141493  11.087  12.003   9.802  0.4299 -0.1858  0.5837
10393SOL    HW241494  11.009  12.051   9.923 -1.5817 -0.0794 -0.7021
10394SOL     OW41495   3.468   4.778   8.139  0.0374  0.0795  0.1505
10394SOL    HW141496   3.526   4.809   8.069 -0.1592 -0.0732 -0.0806
10394SOL    HW241497   3.527   4.761   8.213  0.5223 -1.7182 -0.6046
10395SOL     OW41498   6.181   0.580   5.994  0.6428 -0.4580  0.1238
10395SOL    HW141499   6.189   0.572   5.899 -0.3149  0.9130 -0.1047
10395SOL    HW241500   6.094   0.545   6.013 -0.1488  1.4257  0.1552
10396SOL     OW41501   9.711   7.634   5.217  0.5251  0.0383  0.0523
10396SOL    HW141502   9.759   7.687   5.154  0.7690  0.4553  0.5794
10396SOL    HW241503   9.777   7.611   5.283 -0.0866  0.9991  1.0275
10397SOL     OW41504   1.668   3.642   2.898  0.0725 -0.2642 -0.7808
10397SOL    HW141505   1.664   3.572   2.833 -0.8750  1.1401 -2.2944
10397SOL    HW241506   1.760   3.648   2.923  0.3701 -1.1309 -1.6348
10398SOL     OW41507   9.851   7.834   0.824 -0.4497  0.1092 -0.4103
10398SOL    HW141508   9.934   7.842   0.871 -0.7722  1.7419 -0.0601
10398SOL    HW241509   9.788   7.883   0.876 -1.1395  0.7513 -1.7929
10399SOL     OW41510  12.714  10.752   5.374  0.2830  0.5059  1.0068
10399SOL    HW141511  12.728  10.747   5.280 -1.1699 -3.6363  0.8217
10399SOL    HW241512  12.802  10.748   5.412  0.7646 -0.9896 -0.1883
10400SOL     OW41513   3.941   9.096  12.894  0.1148  0.0169  0.6495
10400SOL    HW141514   3.936   9.028  12.962 -2.1961 -0.6315 -0.0669
10400SOL    HW241515   3.868   9.155  12.914  0.6529  0.9607 -0.1192
10401SOL     OW41516   3.861   0.880   2.501  0.7146  0.0801 -0.0534
10401SOL    HW141517   3.809   0.867   2.422 -1.5353  0.6220  1.2556
10401SOL    HW241518   3.877   0.974   2.505 -1.2945  0.4227  1.3174
10402SOL     OW41519   9.591   8.619   4.916  0.4908 -0.2737  0.1605
10402SOL    HW141520   9.585   8.662   4.831  0.7412  0.9364  0.7335
10402SOL    HW241521   9.517   8.652   4.966 -0.1563 -1.6320  0.1535
10403SOL     OW41522  10.756  10.660   8.004  0.0181 -0.6086  0.2956
10403SOL    HW141523  10.667  10.649   7.971 -0.2271 -0.6011  0.9326
10403SOL    HW241524  10.756  10.746   8.046  0.7547  0.0549 -0.9928
10404SOL     OW41525   3.646   8.749   5.419 -0.0309  0.3108  0.0810
10404SOL    HW141526   3.674   8.658   5.405 -3.5432 -0.7837 -0.7453
10404SOL    HW241527   3.600   8.747   5.503 -0.3346  1.2894 -0.0548
10405SOL     OW41528   9.436   2.035   1.596  0.0559 -0.3102  0.6253
10405SOL    HW141529   9.435   2.129   1.578 -1.2019 -0.3482  0.3986
10405SOL    HW241530   9.428   1.994   1.510  0.2727 -0.6219  0.7514
10406SOL     OW41531  10.770   8.276   3.507 -0.4456 -0.3395 -0.4042
10406SOL    HW141532  10.794   8.186   3.488 -0.0038  0.0120 -1.6172
10406SOL    HW241533  10.758   8.317   3.421  1.1654  1.2211  0.0282
10407SOL     OW41534  10.652   1.393   6.449  0.1457 -0.3091  0.3779
10407SOL    HW141535  10.741   1.380   6.481  0.8071 -3.4625 -2.2201
10407SOL    HW241536  10.597   1.342   6.509  0.7184 -1.9424 -0.4209
10408SOL     OW41537   8.850   1.717   5.913  0.6452  0.2091 -0.4160
10408SOL    HW141538   8.881   1.792   5.861 -0.7041  0.3606 -1.0455
10408SOL    HW241539   8.823   1.653   5.848  0.9376 -0.4676  0.1236
10409SOL     OW41540   4.864   8.123   9.464  0.2209 -0.1406 -0.0042
10409SOL    HW141541   4.854   8.166   9.549 -0.8868  0.0152 -0.1968
10409SOL    HW241542   4.927   8.053   9.480 -0.1922 -0.2991  1.0312
10410SOL     OW41543   9.614  12.427   0.261  0.2268 -0.0397 -0.2015
10410SOL    HW141544   9.590  12.354   0.205 -0.1134 -0.8815  1.0027
10410SOL    HW241545   9.580  12.504   0.216  2.0789 -0.3736 -2.3681
10411SOL     OW41546  11.163   6.745  12.927  0.1708  0.5340 -0.1513
10411SOL    HW141547  11.209   6.699  12.857 -0.6292  0.3132 -0.5457
10411SOL    HW241548  11.224   6.745  13.000 -0.1931 -2.1842  0.2583
10412SOL     OW41549  12.323   1.326   4.743 -0.2919 -0.0119  0.0791
10412SOL    HW141550  12.260   1.398   4.740  0.9302  1.1643  0.9226
10412SOL    HW241551  12.378   1.338   4.666  0.1559  0.2088  0.4257
10413SOL     OW41552   7.483  11.041   7.281 -0.3460  0.0492  0.5465
10413SOL    HW141553   7.420  10.971   7.268 -2.2541  1.9974 -1.7167
10413SOL    HW241554   7.453  11.087   7.360 -1.8128  0.9179 -0.4703
10414SOL     OW41555  12.086   8.462   4.585 -0.0392 -0.7877 -0.2458
10414SOL    HW141556  12.096   8.427   4.674 -0.8379 -0.9861 -0.2323
10414SOL    HW241557  12.034   8.396   4.539 -1.3244  0.2382 -0.3005
10415SOL     OW41558   5.324   2.812   5.439 -0.2723 -0.0700  0.2786
10415SOL    HW141559   5.310   2.743   5.374 -0.6386 -0.2938  0.5892
10415SOL    HW241560   5.322   2.766   5.523 -1.3778  0.4289  0.5449
10416SOL     OW41561   9.278   4.079   7.510 -0.4966 -0.2901  0.1355
10416SOL    HW141562   9.213   4.110   7.448  0.3190  0.2813 -0.4591
10416SOL    HW241563   9.229   4.062   7.591 -1.5956 -1.1415 -0.6700
10417SOL     OW41564   0.026   6.964   4.855  0.2335  0.5190 -0.3752
10417SOL    HW141565   0.090   6.892   4.859  0.1948  0.2736 -2.7743
10417SOL    HW241566  -0.059   6.921   4.855  0.1746  0.6334 -0.5967
10418SOL     OW41567   2.491  11.555   5.424  0.3998  0.2827 -0.2581
10418SOL    HW141568   2.487  11.500   5.502 -2.5329  0.3611 -0.2327
10418SOL    HW241569   2.507  11.643   5.457  1.0063  0.0519  0.0779
10419SOL     OW41570  10.611   2.316   0.428 -0.0425  0.1382  0.2131
10419SOL    HW141571  10.634   2.409   0.414  0.3492  0.1459  0.8898
10419SOL    HW241572  10.693   2.276   0.458 -0.7365  0.0184  2.0311
10420SOL     OW41573  10.034   2.658   0.904  0.6417 -0.6149  0.1686
10420SOL    HW141574   9.961   2.682   0.961  0.7635  0.1927 -0.0088
10420SOL    HW241575  10.003   2.581   0.857  0.1271 -0.6306  0.5248
10421SOL     OW41576   5.323  12.562   0.537  0.5811  0.2503 -0.0246
10421SOL    HW141577   5.260  12.513   0.485  0.9325  0.3868 -0.5878
10421SOL    HW241578   5.374  12.495   0.582 -1.2679  0.1359  2.0844
10422SOL     OW41579   4.725   7.245   9.435  0.0531  0.6701 -0.6061
10422SOL    HW141580   4.743   7.337   9.415 -0.8309  1.5857  2.3076
10422SOL    HW241581   4.811   7.202   9.427  0.9176  2.1901  0.0274
10423SOL     OW41582  11.393  10.505   6.744  0.1130  0.0787 -0.7415
10423SOL    HW141583  11.487  10.494   6.736  0.2628  0.3935  0.4538
10423SOL    HW241584  11.382  10.592   6.782 -0.5808 -0.6251  0.7347
10424SOL     OW41585   1.494   1.274  10.786 -0.7477 -0.1095  0.8295
10424SOL    HW141586   1.462   1.189  10.817 -0.7313 -0.4229  0.0052
10424SOL    HW241587   1.474   1.275  10.693  2.3140 -0.6472  0.0644
10425SOL     OW41588   4.678  12.894   7.440 -0.2987 -0.1630 -0.2701
10425SOL    HW141589   4.743  12.896   7.510 -0.8570  0.7434  0.2427
10425SOL    HW241590   4.637  12.807   7.449 -1.1188  0.3249  1.2800
10426SOL     OW41591   5.485   3.088   9.963 -0.3157  0.2719  0.5434
10426SOL    HW141592   5.444   3.004   9.943 -1.6541  0.5446  1.9941
10426SOL    HW241593   5.573   3.065   9.992  0.8517 -0.2967 -2.9320
10427SOL     OW41594   4.992  11.885  11.343 -0.4828 -0.2686 -0.1936
10427SOL    HW141595   4.968  11.793  11.358 -0.7321  0.1284  2.3805
10427SOL    HW241596   4.908  11.932  11.343 -0.4805 -0.1244 -2.9138
10428SOL     OW41597   0.519   1.022   9.740 -0.1116  0.4801  0.1024
10428SOL    HW141598   0.580   1.047   9.670  1.7848 -2.0276  0.6874
10428SOL    HW241599   0.432   1.035   9.702  0.8203  1.1269 -1.9799
10429SOL     OW41600  10.604   6.436   3.762  0.1391 -0.1201  0.1722
10429SOL    HW141601  10.666   6.406   3.695 -2.3422 -3.3986 -0.9377
10429SOL    HW241602  10.539   6.486   3.713 -0.7232 -0.9851  0.4165
10430SOL     OW41603   5.344   5.672   4.898  0.5141  0.8670 -0.0805
10430SOL    HW141604   5.298   5.741   4.946  0.6207  0.1155  1.1173
10430SOL    HW241605   5.288   5.595   4.905  1.6206  0.1104  0.8628
10431SOL     OW41606   9.667  10.138  11.292 -0.1491  0.2011 -0.6252
10431SOL    HW141607   9.589  10.130  11.237 -0.9496 -0.2246  0.5357
10431SOL    HW241608   9.633  10.145  11.381  1.1480 -0.3467 -0.0577
10432SOL     OW41609  10.820   1.067   5.394  0.2089  0.1805  0.3277
10432SOL    HW141610  10.789   1.157   5.401  2.1606  0.9747 -0.4581
10432SOL    HW241611  10.856   1.048   5.481 -0.3838  0.0629  0.5548
10433SOL     OW41612   7.256  10.887  10.580  0.2383  0.4824 -0.1400
10433SOL    HW141613   7.263  10.793  10.563  1.7259  0.1715  1.8326
10433SOL    HW241614   7.189  10.894  10.647  0.5573  0.7568  0.1520
10434SOL     OW41615   5.896   5.180   2.685 -0.2291 -0.1182 -0.0164
10434SOL    HW141616   5.942   5.175   2.770  1.2662  2.6347 -0.5570
10434SOL    HW241617   5.955   5.137   2.624 -0.8727 -1.2491  0.1211
10435SOL     OW41618   0.925  12.462   9.705 -0.6870  0.2433  0.2311
10435SOL    HW141619   0.971  12.488   9.625 -0.1577  0.0153  0.4528
10435SOL    HW241620   0.909  12.544   9.751  0.1754  0.2666  0.5050
10436SOL     OW41621  12.172   7.929   2.433  0.3427  0.0674 -0.0434
10436SOL    HW141622  12.224   7.998   2.391  0.8548 -0.1100  0.2790
10436SOL    HW241623  12.101   7.911   2.372  0.3096  0.7551 -0.2116
10437SOL     OW41624   5.910  10.150   2.930  0.8679 -0.4231  0.2979
10437SOL    HW141625   5.948  10.171   2.844  1.4838  2.4076  1.1576
10437SOL    HW241626   5.971  10.087   2.968  3.4547  2.0141  0.5562
10438SOL     OW41627   2.252   1.290   3.117 -0.3614  0.5846 -0.1525
10438SOL    HW141628   2.228   1.367   3.066 -2.3975  0.7163  0.9029
10438SOL    HW241629   2.168   1.254   3.147  0.6442 -0.9134  0.9935
10439SOL     OW41630  10.820  10.868   0.208  0.4477 -0.1268 -0.6731
10439SOL    HW141631  10.773  10.885   0.127 -0.4341  1.4821  0.1266
10439SOL    HW241632  10.845  10.776   0.202 -1.0942 -0.5128 -2.0086
10440SOL     OW41633  11.331   8.162   8.529  0.8964  0.1043 -0.4258
10440SOL    HW141634  11.291   8.078   8.549  0.0444  0.1517 -1.8283
10440SOL    HW241635  11.353   8.199   8.614  0.9751 -1.3786  0.2270
10441SOL     OW41636   4.747   4.091   9.430  0.0976  0.4423 -0.2044
10441SOL    HW141637   4.756   4.186   9.432 -0.4405  0.5132 -0.9405
10441SOL    HW241638   4.830   4.058   9.466  1.0704  1.1516 -1.7286
10442SOL     OW41639   4.678   8.082   4.737  0.3716  0.4043 -0.0165
10442SOL    HW141640   4.619   8.112   4.805  1.0313  2.0838 -0.1324
10442SOL    HW241641   4.667   7.987   4.735 -2.4283  0.6692 -0.1736
10443SOL     OW41642   9.543  10.366   9.334 -0.2394  0.6535 -0.6083
10443SOL    HW141643   9.492  10.420   9.394 -0.1631  0.3077 -0.2357
10443SOL    HW241644   9.524  10.276   9.358  1.2107  0.5142  0.1211
10444SOL     OW41645   8.434  10.468   8.684  0.8044 -0.4032 -0.0135
10444SOL    HW141646   8.521  10.493   8.651  0.4174  0.9840 -0.0434
10444SOL    HW241647   8.397  10.414   8.614  1.2390 -0.1483 -0.4497
10445SOL     OW41648   3.573   5.739   0.467  0.5882 -0.4180 -0.2115
10445SOL    HW141649   3.616   5.824   0.454  0.6033 -0.2592  0.8064
10445SOL    HW241650   3.584   5.721   0.560 -3.9150  0.9524  0.8246
10446SOL     OW41651   0.437  11.332  11.345 -0.5805  0.1929 -0.0128
10446SOL    HW141652   0.398  11.420  11.351  2.2287  1.4873  1.5546
10446SOL    HW241653   0.423  11.294  11.432 -2.4274 -1.2863 -0.9061
10447SOL     OW41654   4.427   8.010  12.150  0.4941 -0.4542  0.8800
10447SOL    HW141655   4.510   7.962  12.156  0.3983 -0.4604  2.5747
10447SOL    HW241656   4.360   7.943  12.159  0.2959 -0.3777  0.0522
10448SOL     OW41657  11.191  10.224   9.153 -0.5612 -0.5860  0.7095
10448SOL    HW141658  11.146  10.183   9.227 -0.7325 -0.4624  0.6755
10448SOL    HW241659  11.173  10.317   9.163 -1.4985 -0.6597 -0.0818
10449SOL     OW41660   1.794   3.896   3.702 -0.2448 -0.0812 -0.1922
10449SOL    HW141661   1.799   3.945   3.783  1.2354  0.0224 -0.3320
10449SOL    HW241662   1.872   3.921   3.653 -0.4918 -1.0593 -1.1303
10450SOL     OW41663   6.671   9.663   2.295 -0.4663  0.6065 -0.2299
10450SOL    HW141664   6.663   9.636   2.386 -0.7616 -1.2811 -0.7777
10450SOL    HW241665   6.584   9.650   2.258 -0.3392  1.3067 -0.8048
10451SOL     OW41666  11.128   2.196   1.953 -0.1764  0.3851 -0.1627
10451SOL    HW141667  11.086   2.234   1.876  0.8699  1.3311 -0.2934
10451SOL    HW241668  11.217   2.176   1.925 -0.1216 -0.3158  0.4815
10452SOL     OW41669   8.001   7.053   8.325 -0.2955  0.5493 -0.0715
10452SOL    HW141670   7.978   6.961   8.312 -0.3374  0.7790 -1.8253
10452SOL    HW241671   7.924   7.102   8.296  0.1576  1.1615 -0.2749
10453SOL     OW41672  11.155   9.820   3.899  0.3694  0.1503 -0.0891
10453SOL    HW141673  11.193   9.908   3.899  2.1921 -0.5445 -1.9909
10453SOL    HW241674  11.104   9.817   3.818  1.7710 -1.0764 -0.9577
10454SOL     OW41675   4.627   6.660  11.099  0.2375 -0.2125 -0.1224
10454SOL    HW141676   4.566   6.587  11.094 -0.1840  0.0864  0.6105
10454SOL    HW241677   4.648   6.679  11.007 -1.9164  0.6353 -0.5009
10455SOL     OW41678   2.686   1.814   8.217  0.4943  0.2416 -0.2052
10455SOL    HW141679   2.735   1.736   8.242  0.1116 -0.0346 -0.3036
10455SOL    HW241680   2.752   1.874   8.181  0.8123  0.0302  0.0216
10456SOL     OW41681   8.602   6.672   3.353  0.2419  0.1321  0.7737
10456SOL    HW141682   8.621   6.765   3.359  0.8759  0.2685 -1.8816
10456SOL    HW241683   8.644   6.644   3.271 -0.4268 -2.3595  1.1821
10457SOL     OW41684   7.911  12.418   0.855 -0.4100 -0.1212  0.0831
10457SOL    HW141685   7.911  12.437   0.761 -0.2563 -0.5026  0.0033
10457SOL    HW241686   7.879  12.499   0.896  2.5363  1.2344 -0.0446
10458SOL     OW41687  11.652  12.484   8.178 -0.3576 -0.3178 -0.1840
10458SOL    HW141688  11.590  12.412   8.192 -0.3367 -0.4571 -0.7772
10458SOL    HW241689  11.631  12.517   8.091  0.2829 -0.2438 -0.3111
10459SOL     OW41690   2.491   8.941   0.395  0.1315 -0.7569 -0.2625
10459SOL    HW141691   2.430   8.945   0.321  0.4789 -0.8524 -0.5602
10459SOL    HW241692   2.474   8.856   0.435  0.2448 -0.8960 -0.5032
10460SOL     OW41693   9.182  11.611  12.196 -0.3177 -0.0745 -0.1930
10460SOL    HW141694   9.144  11.552  12.262 -1.7210  1.7739  0.7501
10460SOL    HW241695   9.275  11.590  12.195 -0.7230 -2.1123  0.2634
10461SOL     OW41696  12.599   9.774   1.927 -0.2081  0.4601  0.9214
10461SOL    HW141697  12.587   9.781   1.833  1.4549  0.2391  0.6665
10461SOL    HW241698  12.511   9.784   1.963 -0.6285  2.9113 -0.5110
10462SOL     OW41699   8.618   0.960   6.099  0.3777 -0.3073  0.7710
10462SOL    HW141700   8.596   0.876   6.059  0.0299 -0.6131  1.5728
10462SOL    HW241701   8.572   0.958   6.183 -0.5637  1.1552  0.3208
10463SOL     OW41702   0.137   1.271   6.317 -0.6086  0.2893  0.1743
10463SOL    HW141703   0.185   1.252   6.236 -0.5262  0.1772  0.2485
10463SOL    HW241704   0.206   1.284   6.383 -0.6855 -0.5924  0.4451
10464SOL     OW41705   6.634   2.635  11.399 -0.0976 -0.2020  0.0379
10464SOL    HW141706   6.640   2.557  11.344 -0.6018 -0.0349 -0.2562
10464SOL    HW241707   6.594   2.701  11.343 -1.2344 -0.2205  0.8067
10465SOL     OW41708  10.104   3.961   2.020 -0.4590 -0.0104  0.8275
10465SOL    HW141709  10.129   4.037   2.072 -1.0334  0.1255  0.9134
10465SOL    HW241710  10.150   3.971   1.937 -1.2596  0.9231  0.4822
10466SOL     OW41711   0.956   8.039   3.794  0.4771  0.1206  0.7440
10466SOL    HW141712   1.004   7.956   3.803  1.4114  0.4657 -0.6962
10466SOL    HW241713   0.883   8.018   3.735  1.4949  0.5793 -0.7409
10467SOL     OW41714   5.735   1.748   4.013 -0.0798 -0.0912  0.3422
10467SOL    HW141715   5.766   1.839   4.011  2.4689 -0.7623  2.5217
10467SOL    HW241716   5.806   1.698   3.974 -0.7402 -1.2788  0.6162
10468SOL     OW41717  10.835   2.494   6.274  0.4363 -0.5183 -0.0424
10468SOL    HW141718  10.867   2.404   6.272  2.3579  0.1263 -1.9298
10468SOL    HW241719  10.814   2.514   6.183  0.4415  1.0602  0.2752
10469SOL     OW41720   1.135   9.041   5.305 -0.3119 -0.0431  0.1954
10469SOL    HW141721   1.127   9.136   5.298 -0.6084  0.0424  1.3639
10469SOL    HW241722   1.227   9.024   5.288 -0.4493  0.3408 -0.9982
10470SOL     OW41723   3.314  10.206   1.279 -0.3605 -0.2960  0.5181
10470SOL    HW141724   3.401  10.167   1.282 -0.7062 -1.0317  1.8091
10470SOL    HW241725   3.260  10.143   1.231 -0.4149 -0.3533  0.6529
10471SOL     OW41726   0.018   4.703   8.395  0.1682 -0.4680 -0.1606
10471SOL    HW141727  -0.042   4.738   8.330  0.1184 -1.6098 -0.7558
10471SOL    HW241728  -0.009   4.611   8.406  0.6476 -0.5025  0.9166
10472SOL     OW41729   6.854   7.445  10.537  0.0467 -0.1949 -0.0819
10472SOL    HW141730   6.901   7.495  10.604 -0.0773  0.3611 -0.4071
10472SOL    HW241731   6.921   7.388  10.500  0.9109  1.6863 -1.6270
10473SOL     OW41732   5.624   5.098   6.155 -0.1893 -0.2507  0.1112
10473SOL    HW141733   5.711   5.130   6.132  0.5978 -0.8278  2.0602
10473SOL    HW241734   5.564   5.164   6.121  1.1340  1.2644  0.6187
10474SOL     OW41735  11.966  11.165   1.012 -0.0051  0.5076  0.0338
10474SOL    HW141736  11.944  11.220   0.937  0.2092  2.4776  1.3523
10474SOL    HW241737  12.046  11.203   1.048  0.9882 -1.5597  0.1844
10475SOL     OW41738   0.368   6.215   5.142  0.2575 -0.0964 -0.5379
10475SOL    HW141739   0.348   6.302   5.107 -0.2355  0.0379  0.0503
10475SOL    HW241740   0.368   6.158   5.065 -1.9469 -0.0112 -0.6717
10476SOL     OW41741   8.646   0.605   4.176  0.8352  0.4286  0.4858
10476SOL    HW141742   8.656   0.567   4.088  2.1386 -2.3756  1.7356
10476SOL    HW241743   8.552   0.625   4.182  0.1026 -2.2217 -0.5185
10477SOL     OW41744   7.645   5.271   2.824 -0.0729 -0.0164 -0.3277
10477SOL    HW141745   7.624   5.290   2.733  1.3946  1.0659 -0.4822
10477SOL    HW241746   7.576   5.314   2.874 -1.7963 -1.9650 -0.9189
10478SOL     OW41747   7.904  11.951   1.456  0.5511 -0.7482  0.2847
10478SOL    HW141748   7.929  12.036   1.492  0.7656 -1.2458  1.3712
10478SOL    HW241749   7.893  11.895   1.534 -0.3251 -1.5083 -0.3623
10479SOL     OW41750  12.462  12.168  12.232 -0.9141 -0.0004 -0.3264
10479SOL    HW141751  12.466  12.124  12.317  0.4623 -1.0855 -0.9055
10479SOL    HW241752  12.546  12.213  12.224 -1.0682  0.1687 -1.0569
10480SOL     OW41753   3.638  11.595   3.035  0.4181 -0.0349 -0.2298
10480SOL    HW141754   3.679  11.658   2.975 -0.0552 -0.0554 -0.5787
10480SOL    HW241755   3.645  11.636   3.121  0.5886  0.2558 -0.3789
10481SOL     OW41756   4.959   3.410   8.841 -0.2659  0.2131 -0.3445
10481SOL    HW141757   5.030   3.472   8.827  0.3993 -0.6293 -0.7995
10481SOL    HW241758   4.978   3.370   8.926  0.0925 -0.3642 -0.6872
10482SOL     OW41759  12.547   1.342  11.462  0.3465  0.2856 -0.8623
10482SOL    HW141760  12.523   1.327  11.553  0.1558 -0.8830 -1.0908
10482SOL    HW241761  12.536   1.257  11.419 -1.0477  1.1385 -2.3251
10483SOL     OW41762   4.123   6.550  10.519  0.5227 -0.5334  0.4658
10483SOL    HW141763   4.102   6.643  10.512 -1.3183 -0.9842 -0.7727
10483SOL    HW241764   4.038   6.506  10.515  1.4556 -2.3533 -1.0234
10484SOL     OW41765   5.384   6.574   9.720  0.1126 -0.0448 -0.2055
10484SOL    HW141766   5.397   6.639   9.651  0.8411 -0.1758 -0.2019
10484SOL    HW241767   5.346   6.498   9.676 -2.9044  1.1236  0.1457
10485SOL     OW41768   2.451   4.143   7.129 -0.0297 -0.1239 -0.1635
10485SOL    HW141769   2.491   4.227   7.149 -1.6620  0.4213  1.0355
10485SOL    HW241770   2.424   4.108   7.214  1.6702 -2.4787 -0.4904
10486SOL     OW41771   0.425   6.659   2.743 -0.0903 -0.6649 -0.6017
10486SOL    HW141772   0.495   6.720   2.720 -0.4286 -0.2701 -0.5987
10486SOL    HW241773   0.467   6.594   2.800  0.0324  0.2209  0.3464
10487SOL     OW41774   4.505  10.942   5.470  0.3321  0.3104 -0.5053
10487SOL    HW141775   4.578  10.954   5.531  0.8683 -2.2023 -0.5329
10487SOL    HW241776   4.442  11.009   5.495  0.8743 -0.1081  2.3322
10488SOL     OW41777   6.649  10.733   8.423  0.2688 -0.6370  0.5010
10488SOL    HW141778   6.596  10.812   8.413 -2.2206 -2.3230 -0.5173
10488SOL    HW241779   6.704  10.731   8.344  0.1030 -0.0912  0.3692
10489SOL     OW41780   9.901   1.459   5.320  0.2043 -0.2421  0.3293
10489SOL    HW141781   9.905   1.554   5.307  0.8559 -0.5566 -2.8585
10489SOL    HW241782   9.972   1.440   5.381 -0.6113  1.3721  1.8552
10490SOL     OW41783   8.693   6.194   1.767  0.4739  0.8756 -0.3273
10490SOL    HW141784   8.758   6.264   1.770 -0.2362  1.5572 -0.4948
10490SOL    HW241785   8.622   6.229   1.713 -0.3258  0.4029  0.3888
10491SOL     OW41786  12.734   9.943   2.591  0.0406  0.1286 -0.0444
10491SOL    HW141787  12.801  10.008   2.613  1.6111 -1.1903 -0.7477
10491SOL    HW241788  12.782   9.872   2.548 -1.7599 -1.0670 -0.1968
10492SOL     OW41789   9.476   7.464   0.735 -0.3513 -0.3842  0.0947
10492SOL    HW141790   9.422   7.526   0.686  0.4588  0.1617 -0.1300
10492SOL    HW241791   9.449   7.378   0.702  0.1354 -0.0343 -1.2945
10493SOL     OW41792   5.310  10.617   8.940  0.4480  0.6480  0.2922
10493SOL    HW141793   5.374  10.546   8.945 -1.5790 -1.2496  0.8430
10493SOL    HW241794   5.307  10.640   8.847 -0.1814 -1.3328 -0.2181
10494SOL     OW41795  12.624   5.769   1.028  0.2731  0.2104 -0.2028
10494SOL    HW141796  12.689   5.707   1.062 -1.0715 -1.2274 -0.1424
10494SOL    HW241797  12.540   5.723   1.036 -1.2122  2.9483  2.2263
10495SOL     OW41798  10.054  12.940   5.536 -0.7706 -0.0330 -0.0944
10495SOL    HW141799  10.119  12.933   5.606 -1.7078  3.0867  1.2516
10495SOL    HW241800   9.970  12.947   5.582 -1.8871 -1.6509 -1.7259
10496SOL     OW41801   0.270   1.169   4.891 -0.9316 -0.0996  0.2357
10496SOL    HW141802   0.185   1.162   4.848 -0.1583  2.3136 -1.9581
10496SOL    HW241803   0.303   1.079   4.894 -2.3728 -0.7391 -1.4579
10497SOL     OW41804  10.098  11.986   0.046 -0.7070  0.2588 -0.9993
10497SOL    HW141805  10.115  12.070   0.004 -1.2961  0.6023 -0.5794
10497SOL    HW241806  10.002  11.979   0.047 -1.0077  1.8378  3.1776
10498SOL     OW41807  12.411   2.859   4.498 -0.6556  0.0609  0.5312
10498SOL    HW141808  12.338   2.820   4.546 -0.7006 -0.4389  0.0796
10498SOL    HW241809  12.488   2.810   4.527 -0.7819 -0.7529 -0.4128
10499SOL     OW41810   7.032   9.028   9.219  0.3199  0.1128  0.4031
10499SOL    HW141811   7.071   8.942   9.205 -1.1491 -0.8396  1.7771
10499SOL    HW241812   6.959   9.031   9.157  0.6807  0.6014 -0.0052
10500SOL     OW41813   9.984  12.367   6.541 -0.0245 -0.0979 -0.6842
10500SOL    HW141814   9.891  12.353   6.526  0.0282  0.2654 -1.3938
10500SOL    HW241815  10.008  12.436   6.478  0.6668 -0.0267 -0.3480
10501SOL     OW41816   3.552  11.692   6.535  0.9059 -0.4656 -0.1741
10501SOL    HW141817   3.587  11.656   6.453  0.9941 -0.7159 -0.0291
10501SOL    HW241818   3.572  11.625   6.601  0.6617 -0.3543  0.0163
10502SOL     OW41819  10.395   9.519  12.641  0.0320  0.4051  0.5629
10502SOL    HW141820  10.383   9.537  12.548  1.5427  0.1829  0.2914
10502SOL    HW241821  10.396   9.605  12.682 -0.6958  0.5016  0.3844
10503SOL     OW41822   9.641  10.528   7.858  0.4629  0.4924  0.1617
10503SOL    HW141823   9.702  10.493   7.922  0.8320 -0.8801 -0.8969
10503SOL    HW241824   9.564  10.552   7.908  0.5868 -0.9245  1.0669
10504SOL     OW41825   6.093  11.548   4.281 -0.0493 -0.8523 -1.1875
10504SOL    HW141826   6.165  11.557   4.343 -0.1067 -0.5204 -1.1693
10504SOL    HW241827   6.083  11.453   4.269  0.8219 -0.8843 -1.6913
10505SOL     OW41828   4.319  12.664   6.735  0.3002 -0.2150  0.1812
10505SOL    HW141829   4.340  12.615   6.656  1.1109 -1.6912  1.2608
10505SOL    HW241830   4.293  12.598   6.799  0.4309  0.8528  1.3974
10506SOL     OW41831   8.249   3.167   8.851  0.3989 -0.0337  0.1369
10506SOL    HW141832   8.290   3.203   8.929  2.0092  0.1733 -0.7617
10506SOL    HW241833   8.296   3.208   8.778 -0.8728 -0.4299 -0.9542
10507SOL     OW41834  12.484   5.419   6.473  0.0482  0.3300  0.1158
10507SOL    HW141835  12.456   5.373   6.394  0.8984 -1.0246  0.5649
10507SOL    HW241836  12.420   5.489   6.484 -0.8445 -0.2691 -1.0426
10508SOL     OW41837   5.694   3.698   5.154 -0.3884  0.0528 -0.0763
10508SOL    HW141838   5.767   3.683   5.214  0.5584 -0.1525 -1.2404
10508SOL    HW241839   5.617   3.703   5.211  0.6746  1.6752  1.3316
10509SOL     OW41840  11.031   1.402   7.763 -0.1864  0.1697 -0.3498
10509SOL    HW141841  11.076   1.485   7.746 -2.0714  1.1820 -0.6564
10509SOL    HW241842  11.044   1.387   7.857  0.1386  0.8485 -0.2784
10510SOL     OW41843   1.342   5.526  11.871  0.1997  0.2356 -0.1708
10510SOL    HW141844   1.323   5.473  11.793  0.6491 -0.5113  0.2136
10510SOL    HW241845   1.436   5.542  11.867  0.6563 -1.6152  1.2720
10511SOL     OW41846   2.912  12.871   3.186 -0.0668  0.5950  0.4333
10511SOL    HW141847   2.992  12.903   3.145 -0.1809 -0.3937 -0.6330
10511SOL    HW241848   2.843  12.893   3.122 -0.6903  1.5743  1.4042
10512SOL     OW41849   1.636   2.552   8.952  0.2399 -0.0150 -0.4998
10512SOL    HW141850   1.684   2.631   8.929  0.0219  0.5320  0.8706
10512SOL    HW241851   1.685   2.514   9.025 -1.3778  0.5616  0.9441
10513SOL     OW41852   1.148   3.416   6.516  0.6368  0.1539 -0.3986
10513SOL    HW141853   1.232   3.458   6.536 -0.2683  0.5861  3.1596
10513SOL    HW241854   1.089   3.489   6.496  0.7987 -0.0902 -1.9323
10514SOL     OW41855   3.865   3.501   0.648 -0.6054 -0.5502 -0.0347
10514SOL    HW141856   3.891   3.453   0.569 -0.6970  0.8607 -0.9580
10514SOL    HW241857   3.779   3.536   0.627  0.6688  2.5406 -0.6373
10515SOL     OW41858   8.597  12.973  11.487 -0.0647 -0.3353 -0.4171
10515SOL    HW141859   8.684  12.988  11.525  0.1868 -1.7281 -0.3870
10515SOL    HW241860   8.586  12.878  11.489 -1.0497 -0.2766 -1.6279
10516SOL     OW41861   0.258   1.430  12.985 -0.0935  0.4530 -0.1784
10516SOL    HW141862   0.185   1.384  12.943 -0.1302  0.8212 -0.5173
10516SOL    HW241863   0.300   1.478  12.914  1.6716 -1.2758 -0.3799
10517SOL     OW41864  12.628  12.664  10.510  0.3250 -0.0389  0.5072
10517SOL    HW141865  12.566  12.665  10.583 -1.8583 -0.1192 -1.2562
10517SOL    HW241866  12.697  12.724  10.537 -0.4584  0.0385  2.5689
10518SOL     OW41867   0.959   8.072   6.753 -0.4934 -0.1688 -0.1311
10518SOL    HW141868   0.907   8.060   6.673 -0.4348  0.5105 -0.2714
10518SOL    HW241869   1.040   8.113   6.723 -0.6963  0.5943  0.3427
10519SOL     OW41870   0.161   4.849  12.812  0.8882 -0.4001 -0.3670
10519SOL    HW141871   0.193   4.886  12.730 -1.5179  1.6481 -0.4985
10519SOL    HW241872   0.081   4.802  12.787  0.2469  0.0627  0.7359
10520SOL     OW41873   1.433   0.590   3.899  0.2488 -0.9786  0.0486
10520SOL    HW141874   1.444   0.667   3.954 -1.7104  0.6611 -1.7009
10520SOL    HW241875   1.480   0.521   3.946  0.5456  0.8099  2.6215
10521SOL     OW41876  10.083   8.828   1.139 -0.7312 -0.0358  0.0859
10521SOL    HW141877  10.096   8.791   1.226 -0.1387 -2.6426 -0.9898
10521SOL    HW241878  10.166   8.869   1.118 -1.1845  1.4489  1.0690
10522SOL     OW41879   1.765   3.762   9.348 -0.0620  0.8022 -0.1464
10522SOL    HW141880   1.710   3.684   9.345  1.5675 -0.3889 -1.4060
10522SOL    HW241881   1.854   3.728   9.360  0.6632  2.5086 -0.3404
10523SOL     OW41882   6.599   8.722   2.387  0.3917  0.8001 -0.3572
10523SOL    HW141883   6.661   8.662   2.346 -0.2221  1.3458 -2.1888
10523SOL    HW241884   6.519   8.712   2.336 -0.3270  1.7561  0.5397
10524SOL     OW41885   6.138   8.719   1.034 -0.9028  0.0698 -0.5315
10524SOL    HW141886   6.216   8.668   1.011 -0.4912  1.2375 -1.8573
10524SOL    HW241887   6.067   8.655   1.034 -0.1591 -0.7787 -0.5916
10525SOL     OW41888   2.258   2.750  12.218  0.1366 -0.1691 -0.0555
10525SOL    HW141889   2.339   2.732  12.264 -0.1323  0.8768  0.8760
10525SOL    HW241890   2.229   2.665  12.185  2.0451 -0.4251 -1.1741
10526SOL     OW41891   5.771   1.446   6.971 -0.0094  0.0556 -0.5754
10526SOL    HW141892   5.853   1.398   6.980 -0.5107 -0.8325 -0.6754
10526SOL    HW241893   5.703   1.379   6.971 -0.8858  0.8853  1.3257
10527SOL     OW41894   3.028  10.474  12.788 -0.3521 -0.5645 -0.3280
10527SOL    HW141895   2.965  10.414  12.827 -0.1110 -0.3792  0.3555
10527SOL    HW241896   3.107  10.465  12.841 -0.3049  0.3482 -0.2240
10528SOL     OW41897   2.739   0.909   1.379 -0.4097 -0.5347 -0.6085
10528SOL    HW141898   2.828   0.872   1.383 -0.0727  0.2487 -0.7758
10528SOL    HW241899   2.751   1.002   1.396 -1.1432 -0.3383 -1.1374
10529SOL     OW41900  10.756   9.172   6.078 -0.3214  0.0007  0.2266
10529SOL    HW141901  10.786   9.150   6.166 -0.2488 -0.0458  0.1906
10529SOL    HW241902  10.788   9.261   6.063 -0.9594  0.2896  0.5277
10530SOL     OW41903   2.582  10.520   7.616  0.0939  0.3650 -0.5212
10530SOL    HW141904   2.509  10.566   7.575  0.1467  1.2834  0.3617
10530SOL    HW241905   2.631  10.589   7.662  1.1770 -0.3196 -0.6009
10531SOL     OW41906  12.955   4.084   0.958 -0.1617 -0.0148  0.3335
10531SOL    HW141907  12.863   4.081   0.981 -0.1534  1.7202  0.7996
10531SOL    HW241908  12.980   3.993   0.942 -1.6256 -0.6529  1.4549
10532SOL     OW41909   8.725  12.624   2.770  1.1447 -0.0218 -0.0426
10532SOL    HW141910   8.803  12.633   2.824  1.9653 -2.5682 -0.6506
10532SOL    HW241911   8.652  12.643   2.829  2.1567  1.6762  0.7274
10533SOL     OW41912   6.615  12.341   7.107 -0.3671 -0.0310 -0.4571
10533SOL    HW141913   6.709  12.344   7.093 -0.1549  0.9298  0.9650
10533SOL    HW241914   6.604  12.278   7.179 -0.6866  0.7143  0.1587
10534SOL     OW41915   7.473   0.514   4.672  0.1988  0.0781 -0.4166
10534SOL    HW141916   7.407   0.517   4.602  0.5163  2.1842 -0.6967
10534SOL    HW241917   7.434   0.564   4.744  0.7426 -0.2417  0.1061
10535SOL     OW41918   0.008   2.850   9.543 -0.0787  0.1078 -0.2129
10535SOL    HW141919  -0.063   2.914   9.543  0.6565  0.9708 -1.4262
10535SOL    HW241920   0.016   2.823   9.451 -1.2668 -2.8056  0.4532
10536SOL     OW41921   0.358   9.402   0.296  0.0021 -0.5229  0.1235
10536SOL    HW141922   0.302   9.479   0.286 -0.7709 -1.2980 -1.9715
10536SOL    HW241923   0.446   9.437   0.305 -0.5750  0.6575  1.5045
10537SOL     OW41924   6.751  12.268   7.742 -0.2744  0.2817  0.1703
10537SOL    HW141925   6.705  12.205   7.797  0.2736 -0.3940 -0.1250
10537SOL    HW241926   6.731  12.241   7.653  1.1141 -0.3881  0.0216
10538SOL     OW41927   7.537   8.985   3.195 -0.7832 -0.4315  0.1879
10538SOL    HW141928   7.495   8.991   3.109 -1.3090  0.1280  0.4830
10538SOL    HW241929   7.472   9.018   3.256 -0.0085  0.2038  0.6800
10539SOL     OW41930  11.112   3.349   5.833 -0.2049 -0.2770  0.5533
10539SOL    HW141931  11.118   3.314   5.745 -1.6584 -0.0559  0.3413
10539SOL    HW241932  11.117   3.444   5.822  1.5031 -0.2954  0.9132
10540SOL     OW41933   2.232   0.255   3.468  0.3614 -0.3131 -0.4284
10540SOL    HW141934   2.231   0.223   3.378 -1.1740  1.3085 -1.0678
10540SOL    HW241935   2.145   0.233   3.503  0.5881 -0.0746  0.3181
10541SOL     OW41936  12.346   0.563   3.599 -0.2428  0.1884  0.0165
10541SOL    HW141937  12.278   0.531   3.540  0.2361 -0.3948 -0.2329
10541SOL    HW241938  12.408   0.490   3.605  2.5251  2.0157 -2.9952
10542SOL     OW41939   0.326   1.241   3.705 -0.0977 -0.2520 -0.0461
10542SOL    HW141940   0.392   1.311   3.699 -1.4078  1.0589  0.1600
10542SOL    HW241941   0.274   1.264   3.782 -1.6524 -0.4436 -0.9906
10543SOL     OW41942   8.927   9.885   8.599 -0.3205 -0.2797 -0.4442
10543SOL    HW141943   8.868   9.828   8.549 -0.9227  1.4015 -1.7307
10543SOL    HW241944   8.871   9.926   8.664  0.0606 -0.9319  0.3098
10544SOL     OW41945  11.101   3.824   6.277 -0.4144 -0.0116 -0.2484
10544SOL    HW141946  11.053   3.892   6.323  0.4350  1.7001 -1.7649
10544SOL    HW241947  11.188   3.861   6.263  0.7304 -2.2121  0.5830
10545SOL     OW41948   2.116   9.708   7.847 -0.6538 -0.1033  0.4446
10545SOL    HW141949   2.168   9.698   7.927 -0.9852 -1.6442  0.4992
10545SOL    HW241950   2.048   9.641   7.855  0.0599 -1.1635 -1.7141
10546SOL     OW41951  10.405   7.929   0.803 -0.3271 -0.1850 -0.4451
10546SOL    HW141952  10.427   7.947   0.711 -0.3966 -0.0751 -0.4415
10546SOL    HW241953  10.446   8.001   0.851 -2.2679  1.1256 -0.6175
10547SOL     OW41954  10.332   7.345   6.017  0.2054 -0.1271 -0.3724
10547SOL    HW141955  10.253   7.310   6.058  0.4803 -0.3703 -0.0341
10547SOL    HW241956  10.398   7.276   6.029  0.3647 -0.0907 -0.9926
10548SOL     OW41957  11.077   3.939   1.037  0.1654  0.4197 -0.4135
10548SOL    HW141958  11.078   3.864   1.097 -0.6038  1.6466  1.2093
10548SOL    HW241959  11.099   4.014   1.092  0.6676  1.4494 -1.9507
10549SOL     OW41960   2.583   7.246   5.031  0.4130 -0.7979  0.5114
10549SOL    HW141961   2.583   7.152   5.016 -0.0750 -0.7221  0.0040
10549SOL    HW241962   2.490   7.271   5.028  0.4436 -0.4650  1.7302
10550SOL     OW41963   4.933   8.558   6.603  0.6377 -0.2302  0.0640
10550SOL    HW141964   4.886   8.628   6.557  0.1719 -0.2936  0.4365
10550SOL    HW241965   4.969   8.503   6.533  0.1105 -0.2069 -0.2274
10551SOL     OW41966  11.347  10.603   7.078 -0.0290  0.6589 -0.3390
10551SOL    HW141967  11.306  10.541   7.017 -0.3021  0.7208 -0.2187
10551SOL    HW241968  11.383  10.547   7.147  0.3173  0.5853 -0.5766
10552SOL     OW41969   6.385  11.339   6.756 -0.6461  0.4297 -0.0276
10552SOL    HW141970   6.306  11.370   6.799  0.0445  2.3734 -0.0524
10552SOL    HW241971   6.355  11.309   6.670 -1.7503 -1.7426  1.0429
10553SOL     OW41972   2.434   2.999   1.902 -0.0380 -0.4103  0.0929
10553SOL    HW141973   2.518   2.970   1.938  0.4581  1.0689  0.2248
10553SOL    HW241974   2.447   2.998   1.807 -0.0768 -0.7434  0.0896
10554SOL     OW41975   2.434   2.072   4.086  0.6874  0.4341 -0.7452
10554SOL    HW141976   2.446   2.013   4.011  0.0151  1.4707 -1.6977
10554SOL    HW241977   2.446   2.159   4.050 -2.6962  1.1844 -0.3725
10555SOL     OW41978  10.472  10.173   6.757  0.1706  0.2552 -0.1119
10555SOL    HW141979  10.562  10.204   6.757  0.5553 -0.5113  3.1212
10555SOL    HW241980  10.479  10.079   6.741 -0.2453  0.3900 -1.2413
10556SOL     OW41981   1.377  11.389   5.553 -0.0341 -0.2687  0.1826
10556SOL    HW141982   1.424  11.407   5.635  2.6386 -0.6311 -1.1375
10556SOL    HW241983   1.413  11.305   5.524 -1.8356 -0.7395 -0.7791
10557SOL     OW41984   4.508   6.032   9.599  0.8885  0.3864  0.1784
10557SOL    HW141985   4.603   6.029   9.608  0.7976  0.2691  1.2299
10557SOL    HW241986   4.476   6.043   9.689 -0.1966 -2.2966  0.1999
10558SOL     OW41987   8.376   4.220   2.595  0.5892  0.2231  0.2548
10558SOL    HW141988   8.293   4.186   2.562  0.7709  0.7984 -0.8450
10558SOL    HW241989   8.432   4.143   2.604 -0.5671 -0.4430  2.7187
10559SOL     OW41990   2.227   5.853   2.632 -0.2553  0.1548 -0.1843
10559SOL    HW141991   2.276   5.813   2.703 -1.0382  0.5948  0.6372
10559SOL    HW241992   2.222   5.786   2.564 -0.7834 -0.8155  0.7930
10560SOL     OW41993   5.982  12.761  12.352 -0.3662 -0.2005  0.0637
10560SOL    HW141994   5.971  12.806  12.268  1.3060  2.7578  1.2309
10560SOL    HW241995   5.902  12.781  12.401 -0.4326 -0.0701 -0.0970
10561SOL     OW41996   7.925   9.154   0.935  0.4593  0.4777  0.6533
10561SOL    HW141997   7.844   9.103   0.944  1.1574 -0.9381 -0.5825
10561SOL    HW241998   7.926   9.181   0.844  1.8373 -0.4008  0.3732
10562SOL     OW41999   6.045  12.243   9.474  0.1968  0.2893  0.4179
10562SOL    HW142000   6.057  12.246   9.379 -0.4660  0.8276  0.3463
10562SOL    HW242001   6.015  12.154   9.492  1.0003 -0.0337  0.2133
10563SOL     OW42002   8.110   2.131   1.030  0.0841 -0.1670 -0.5840
10563SOL    HW142003   8.056   2.072   1.082  0.5569  1.9161  2.5073
10563SOL    HW242004   8.199   2.096   1.039  0.4921  1.2660  1.9190
10564SOL     OW42005  12.822   6.040  12.296 -0.2144 -0.0301  0.1390
10564SOL    HW142006  12.825   5.957  12.344  1.0182  0.3842  0.8182
10564SOL    HW242007  12.844   6.016  12.206  0.5014 -0.4102  0.4039
10565SOL     OW42008   0.822   7.084   6.187  0.0339  0.1124  0.2139
10565SOL    HW142009   0.794   7.123   6.104  2.1072  1.0539 -0.1066
10565SOL    HW242010   0.755   7.018   6.206 -1.3431  0.9711 -1.3776
10566SOL     OW42011   1.035  11.679  11.884 -0.4582 -0.4777  0.0662
10566SOL    HW142012   1.088  11.685  11.963  0.4614  1.3639 -0.6253
10566SOL    HW242013   1.051  11.761  11.838 -3.1311 -0.2995 -0.7018
10567SOL     OW42014  12.746  10.475  12.008  0.1352 -0.1999  0.1307
10567SOL    HW142015  12.659  10.480  11.968  0.8112 -0.4106 -1.4694
10567SOL    HW242016  12.802  10.526  11.949  1.2463 -0.7337  0.6988
10568SOL     OW42017   1.608   7.334   1.024 -0.4857 -0.5942 -0.0839
10568SOL    HW142018   1.638   7.406   1.080  0.2703 -0.5277 -0.5602
10568SOL    HW242019   1.554   7.376   0.957  1.4551 -0.1559 -1.4893
10569SOL     OW42020  12.588   7.068   7.377  0.4281 -0.3394  0.4735
10569SOL    HW142021  12.592   6.986   7.427  1.7418 -0.3280  0.4289
10569SOL    HW242022  12.651   7.126   7.421 -0.9269  0.8810  0.8759
10570SOL     OW42023   3.501   9.370  12.225  0.4579 -0.8156  0.4046
10570SOL    HW142024   3.465   9.398  12.309 -0.4329  0.4711 -0.3787
10570SOL    HW242025   3.593   9.352  12.244  0.4982  0.3649  1.4687
10571SOL     OW42026   2.089   9.791   0.576 -0.3412 -0.1029  1.1405
10571SOL    HW142027   1.997   9.800   0.551 -0.2220 -0.4000  0.5661
10571SOL    HW242028   2.091   9.715   0.635 -0.4910  0.0206  1.3034
10572SOL     OW42029   8.208   4.256   1.241  0.2644  0.5934  0.5930
10572SOL    HW142030   8.169   4.168   1.237 -0.3981  0.9124 -0.7331
10572SOL    HW242031   8.163   4.299   1.314  0.5566 -0.1465  1.2182
10573SOL     OW42032   5.374   5.023   8.749 -0.1275 -0.2674  0.3328
10573SOL    HW142033   5.351   4.947   8.695 -1.8719 -0.4224  1.2394
10573SOL    HW242034   5.379   5.096   8.688 -0.3349 -0.7577 -0.2735
10574SOL     OW42035   0.534  10.380  12.213 -0.2485 -0.1651 -0.1312
10574SOL    HW142036   0.523  10.294  12.254 -0.1084  0.6297  1.6507
10574SOL    HW242037   0.450  10.397  12.170 -1.1847 -0.1267  1.6425
10575SOL     OW42038   9.838   0.897   6.868  0.4384  0.3216  1.0385
10575SOL    HW142039   9.907   0.835   6.889  0.2901  0.2772  1.4111
10575SOL    HW242040   9.778   0.849   6.811  1.7201  0.9503 -0.9608
10576SOL     OW42041   8.349   6.358   1.969 -0.6318 -0.4577  0.4048
10576SOL    HW142042   8.422   6.369   2.029 -1.3584 -0.1380  1.2540
10576SOL    HW242043   8.340   6.444   1.927 -0.3319 -0.5864  0.0722
10577SOL     OW42044   4.650   6.032  10.529 -0.0384  0.4971 -0.0138
10577SOL    HW142045   4.586   6.025  10.600  0.4458  2.0539  0.6344
10577SOL    HW242046   4.601   6.070  10.456 -0.4404 -0.7256 -0.3994
10578SOL     OW42047   9.083  10.386   8.998 -0.1492  0.3436 -0.4118
10578SOL    HW142048   9.012  10.326   9.019  0.3949 -0.4519 -0.8164
10578SOL    HW242049   9.045  10.473   9.011 -0.5455 -0.0824  1.4596
10579SOL     OW42050   0.482   1.455   4.435 -0.3361 -0.0630 -0.4253
10579SOL    HW142051   0.520   1.444   4.522  1.3871 -0.4794 -1.1998
10579SOL    HW242052   0.511   1.542   4.406 -0.7154 -0.0179 -0.6861
10580SOL     OW42053   6.520   9.414  10.178  0.4127 -0.2056 -0.3625
10580SOL    HW142054   6.575   9.399  10.254  2.3343  1.8084 -1.2417
10580SOL    HW242055   6.540   9.342  10.118 -0.2168 -1.1344  0.5228
10581SOL     OW42056   2.427  10.919   0.995 -0.0723  0.0471 -0.6560
10581SOL    HW142057   2.365  10.982   1.032  1.8547  0.8044  1.5090
10581SOL    HW242058   2.458  10.960   0.914 -0.1989  1.0435 -0.2146
10582SOL     OW42059   2.814   4.449   3.470 -0.4671  0.0099 -0.0151
10582SOL    HW142060   2.897   4.487   3.498  0.7140 -2.7042  0.5076
10582SOL    HW242061   2.755   4.463   3.544 -0.6196  2.2050 -0.4961
10583SOL     OW42062   7.443   4.561   8.151  0.3935  0.0622 -0.0024
10583SOL    HW142063   7.484   4.555   8.065 -1.2257  0.5426 -0.8514
10583SOL    HW242064   7.400   4.647   8.151  0.1738 -0.0349  1.1884
10584SOL     OW42065   3.128   8.157   1.232  0.4488 -0.0232 -0.0033
10584SOL    HW142066   3.051   8.109   1.201  1.0777 -0.1986 -1.3311
10584SOL    HW242067   3.162   8.201   1.155  1.0132  1.0127  0.8109
10585SOL     OW42068   4.331   5.877   1.820 -0.4977  0.4064  0.4722
10585SOL    HW142069   4.369   5.964   1.809 -1.5610  1.0426  1.5254
10585SOL    HW242070   4.394   5.830   1.876  0.2618  0.3447 -0.4079
10586SOL     OW42071   9.681   6.638   7.741 -0.7499  0.3827  0.2954
10586SOL    HW142072   9.629   6.589   7.678  0.0242  1.9059 -1.6437
10586SOL    HW242073   9.691   6.725   7.701  1.1414  0.9175  1.7848
10587SOL     OW42074  11.650  12.755  12.806  0.2364  0.0029 -0.1842
10587SOL    HW142075  11.575  12.795  12.761  1.8704  0.3543 -2.8104
10587SOL    HW242076  11.642  12.662  12.787 -0.1042 -0.1148  0.4945
10588SOL     OW42077  10.171  10.359   3.381  0.3862 -0.3090 -0.1545
10588SOL    HW142078  10.086  10.315   3.384  0.3911 -0.2975  1.8756
10588SOL    HW242079  10.150  10.449   3.355 -0.2751 -0.2576  0.4999
10589SOL     OW42080   7.690   2.448   0.893 -0.6689  0.3819 -0.5962
10589SOL    HW142081   7.597   2.473   0.892 -0.6095  0.7211  0.6178
10589SOL    HW242082   7.690   2.358   0.928 -0.5502  0.3523 -0.6725
10590SOL     OW42083   7.660   9.117   0.885 -0.2701 -0.3110  0.4798
10590SOL    HW142084   7.628   9.199   0.848  1.3233 -0.2372 -0.8819
10590SOL    HW242085   7.642   9.051   0.818  2.3412 -0.2465 -0.3898
10591SOL     OW42086   1.156   6.080   4.557 -0.9571  0.8597  0.1826
10591SOL    HW142087   1.227   6.114   4.611  0.0023  0.0908 -0.5695
10591SOL    HW242088   1.199   6.048   4.478 -1.8798 -1.4027  0.5362
10592SOL     OW42089   5.365   5.956   3.173  0.0797 -0.1687 -0.3625
10592SOL    HW142090   5.357   6.010   3.251 -2.4722  0.3945 -0.9054
10592SOL    HW242091   5.449   5.981   3.134  0.7839  0.4760  1.4894
10593SOL     OW42092   5.937   8.193   6.840 -0.2622 -0.2132  0.6207
10593SOL    HW142093   5.882   8.128   6.883  1.0581 -1.1202  0.9786
10593SOL    HW242094   5.927   8.272   6.893  0.4882 -1.0015  1.9761
10594SOL     OW42095   0.011  12.210  10.925 -0.4483  0.4394 -0.0048
10594SOL    HW142096   0.044  12.297  10.903  1.5620 -0.5471 -1.1397
10594SOL    HW242097  -0.082  12.223  10.944 -0.6175  2.5473 -1.9744
10595SOL     OW42098   0.591   0.063   1.085 -0.2630  0.2258 -0.5881
10595SOL    HW142099   0.667   0.100   1.039  0.0103  0.3348 -0.0591
10595SOL    HW242100   0.569   0.128   1.152  0.2443 -0.5624  0.3736
10596SOL     OW42101   5.375   1.779   0.292 -0.8328  0.0586 -0.0445
10596SOL    HW142102   5.397   1.688   0.276 -1.7779 -0.6065  2.1467
10596SOL    HW242103   5.364   1.816   0.204  5.3272 -0.2734 -1.4838
10597SOL     OW42104   9.339   2.473   0.495  0.1179  0.2042  0.2524
10597SOL    HW142105   9.365   2.485   0.404 -1.4925 -0.1836 -0.2971
10597SOL    HW242106   9.401   2.409   0.530  0.9108  0.5550 -0.4824
10598SOL     OW42107  11.848  11.946   7.785  0.3563 -1.0840 -0.1132
10598SOL    HW142108  11.912  11.889   7.742 -1.1838 -3.1035  0.1033
10598SOL    HW242109  11.901  12.003   7.841  2.1625 -0.4929 -2.2877
10599SOL     OW42110  10.785   0.806   5.322  0.3387  0.3740  0.1830
10599SOL    HW142111  10.863   0.759   5.351 -0.8990  0.2951  3.9342
10599SOL    HW242112  10.807   0.899   5.334  0.1278  0.3754  0.5941
10600SOL     OW42113   9.552  11.848   4.841 -0.0168  0.3487  0.6700
10600SOL    HW142114   9.601  11.901   4.904 -1.6540  1.9329  0.7255
10600SOL    HW242115   9.460  11.868   4.860 -0.6826 -1.9461  0.1277
10601SOL     OW42116   3.474   0.478   3.785 -0.2754  0.4275 -0.3681
10601SOL    HW142117   3.422   0.555   3.806 -0.3182  0.7765 -1.6749
10601SOL    HW242118   3.472   0.472   3.689  0.2920 -0.8025 -0.3322
10602SOL     OW42119   7.137  10.770   6.699  0.3456 -0.5879  0.6546
10602SOL    HW142120   7.229  10.785   6.721  1.0197 -3.1578 -0.0812
10602SOL    HW242121   7.098  10.740   6.780  0.6668 -1.3855  0.5283
10603SOL     OW42122   3.894   6.152   0.238  0.3353  0.4330  0.6525
10603SOL    HW142123   3.837   6.074   0.239 -1.5207  1.6507 -1.1758
10603SOL    HW242124   3.893   6.183   0.329 -1.8297  0.3010  0.7293
10604SOL     OW42125   3.777   2.184  11.014 -0.1482 -0.1100  0.4500
10604SOL    HW142126   3.781   2.203  10.920 -0.3840  0.8708  0.6319
10604SOL    HW242127   3.844   2.239  11.053  0.1957 -0.7844  0.8289
10605SOL     OW42128   9.958   0.384   5.127 -0.0198  0.1667  0.3029
10605SOL    HW142129   9.908   0.427   5.058  0.5322 -0.7907 -0.7164
10605SOL    HW242130  10.030   0.340   5.081  0.9968  0.4106  1.5955
10606SOL     OW42131   2.641   2.494   0.912 -0.1740  0.0946  0.8118
10606SOL    HW142132   2.728   2.458   0.898  0.1179  1.8134 -2.7913
10606SOL    HW242133   2.657   2.581   0.951 -0.2585  0.3561  0.2723
10607SOL     OW42134   4.241   5.835   6.359 -0.4370 -0.4989 -0.0204
10607SOL    HW142135   4.156   5.803   6.328  0.0889 -2.2205  0.1998
10607SOL    HW242136   4.220   5.893   6.432 -1.4125 -1.0927  0.1855
10608SOL     OW42137  10.171   2.711   3.410 -0.8438  0.3748 -0.0740
10608SOL    HW142138  10.245   2.708   3.349 -1.8683  1.5175 -1.4166
10608SOL    HW242139  10.094   2.699   3.355 -1.6625 -2.9729  1.5401
10609SOL     OW42140  12.889   3.628   3.134  0.5331  0.1493 -0.1417
10609SOL    HW142141  12.940   3.645   3.054  1.1381  0.9595  0.3922
10609SOL    HW242142  12.918   3.696   3.195 -1.7450  1.1433 -0.0636
10610SOL     OW42143   0.641   4.092   4.994  0.1125 -0.3895 -0.0486
10610SOL    HW142144   0.636   4.175   5.043  1.3400 -0.3008 -0.0296
10610SOL    HW242145   0.696   4.114   4.918  1.2378 -1.3910  0.4407
10611SOL     OW42146   0.691   3.812   5.128 -0.4276  0.6175  0.0799
10611SOL    HW142147   0.751   3.781   5.060 -1.9344 -2.0937 -0.1238
10611SOL    HW242148   0.669   3.901   5.100  2.2957  1.2011 -0.5974
10612SOL     OW42149   9.667  11.492   5.701 -0.4115 -0.5436 -0.1977
10612SOL    HW142150   9.628  11.551   5.636 -0.3011  0.6962  0.8194
10612SOL    HW242151   9.612  11.502   5.779  0.5184 -0.5943  0.4787
10613SOL     OW42152   7.575  12.645   2.704  0.5469  0.1474 -0.1406
10613SOL    HW142153   7.482  12.667   2.709  1.0000  1.7694  2.7184
10613SOL    HW242154   7.578  12.551   2.722 -0.5327 -0.0069 -0.6691
10614SOL     OW42155   9.892   6.091   8.856 -0.3863  0.9380  0.2159
10614SOL    HW142156   9.937   6.035   8.919  2.4850  1.6841 -1.0580
10614SOL    HW242157   9.897   6.044   8.773 -0.7750  1.6827 -0.2384
10615SOL     OW42158   0.639  10.896   0.449 -0.0635  0.2875 -0.1439
10615SOL    HW142159   0.689  10.868   0.526  0.1152  0.5010 -0.1828
10615SOL    HW242160   0.566  10.834   0.444 -0.2132  0.4207  0.3413
10616SOL     OW42161   5.149   3.671   0.385  0.3049  0.0043  0.1902
10616SOL    HW142162   5.185   3.760   0.384  1.7996 -0.5725  0.0754
10616SOL    HW242163   5.118   3.657   0.296  0.9336  0.0729 -0.0418
10617SOL     OW42164   3.264   1.852   8.846 -0.1601 -0.0967  0.3644
10617SOL    HW142165   3.268   1.942   8.878  0.8782 -0.2617  0.7360
10617SOL    HW242166   3.198   1.809   8.902 -0.7834  0.4612  0.0709
10618SOL     OW42167   0.498  12.026   7.185 -0.8746 -0.2847  0.6866
10618SOL    HW142168   0.479  12.045   7.277  0.6231  2.1203  0.5596
10618SOL    HW242169   0.592  12.036   7.177 -0.8153 -1.6579 -0.9144
10619SOL     OW42170   2.751   6.762   2.993 -0.0971  0.7282 -0.6981
10619SOL    HW142171   2.664   6.803   2.984  0.1520  1.0844 -1.6380
10619SOL    HW242172   2.748   6.719   3.078 -1.1748  0.7985 -0.6772
10620SOL     OW42173   0.895   1.577   6.904 -0.4815  0.2649  0.1801
10620SOL    HW142174   0.956   1.649   6.916 -1.5117  1.1726  0.1512
10620SOL    HW242175   0.949   1.503   6.876  0.5192  1.1783 -0.3395
10621SOL     OW42176   1.474   3.327   1.556 -0.2743 -0.0127  0.4805
10621SOL    HW142177   1.479   3.293   1.646 -0.5455  0.0525  0.5195
10621SOL    HW242178   1.382   3.346   1.542 -0.3538 -0.7577 -0.0849
10622SOL     OW42179  10.660   0.061  12.675 -0.2751  0.2480 -0.1478
10622SOL    HW142180  10.634  -0.009  12.615 -0.8201  1.5134 -1.4666
10622SOL    HW242181  10.654   0.022  12.762  1.0446 -1.8200 -0.9024
10623SOL     OW42182   9.490   0.584   9.023 -0.2046  0.1249 -0.4281
10623SOL    HW142183   9.559   0.617   8.966 -1.0381  1.8491 -0.4850
10623SOL    HW242184   9.526   0.502   9.059  1.0291 -0.0889 -2.0315
10624SOL     OW42185   9.799  12.037   0.191  0.2047  0.4256  0.8493
10624SOL    HW142186   9.723  12.003   0.239  0.7200 -0.4660  1.0624
10624SOL    HW242187   9.766  12.053   0.102 -0.3694  0.5895  1.0896
10625SOL     OW42188  11.208   1.020   2.696  0.1956 -0.6599  0.2368
10625SOL    HW142189  11.288   0.993   2.650  0.8043  0.4357  0.6160
10625SOL    HW242190  11.219   1.114   2.710  0.1933 -0.9899  2.8998
10626SOL     OW42191   8.681   1.843  12.437  0.0708 -0.3014 -0.4498
10626SOL    HW142192   8.748   1.832  12.370 -0.7940  0.3077 -1.4395
10626SOL    HW242193   8.603   1.800  12.401 -0.3322 -0.2110  0.2847
10627SOL     OW42194  10.548   5.956   4.605  0.0926  0.0781 -0.1811
10627SOL    HW142195  10.607   5.994   4.541 -0.2758  0.0256 -0.5577
10627SOL    HW242196  10.593   5.878   4.637 -0.6975 -1.2738 -2.1342
10628SOL     OW42197   6.613  12.728   6.350 -0.1061 -0.4101  0.4588
10628SOL    HW142198   6.651  12.670   6.284  1.0309  0.5998  0.1993
10628SOL    HW242199   6.657  12.812   6.337 -3.8630  1.5452 -1.2574
10629SOL     OW42200   1.374   3.051  10.795 -0.1658 -0.0277  0.0688
10629SOL    HW142201   1.445   2.987  10.808  1.5251  1.9873  1.4347
10629SOL    HW242202   1.416   3.136  10.806 -2.5481  1.3246 -0.6035
10630SOL     OW42203   5.598  10.631   4.356  0.4883 -0.2358  0.1784
10630SOL    HW142204   5.631  10.557   4.406  0.5319 -0.8394 -0.7185
10630SOL    HW242205   5.628  10.615   4.267  0.0620  0.6000 -0.1273
10631SOL     OW42206   9.830   5.218   0.812  0.3349 -0.0893 -0.1304
10631SOL    HW142207   9.778   5.244   0.736  1.1268 -0.0575 -0.6779
10631SOL    HW242208   9.789   5.263   0.886  1.0355  1.9080 -0.8935
10632SOL     OW42209   9.731   4.502   3.106 -0.2647 -0.4635 -0.3401
10632SOL    HW142210   9.718   4.442   3.179  0.8410 -1.9651 -1.3141
10632SOL    HW242211   9.732   4.589   3.146 -1.4414 -1.1016  1.1700
10633SOL     OW42212   8.144   9.895   5.942  0.8146  0.1244 -0.6204
10633SOL    HW142213   8.221   9.938   5.980  0.7253  0.6865 -1.0557
10633SOL    HW242214   8.112   9.836   6.010  0.0319  1.8651  0.5675
10634SOL     OW42215  12.551  10.184  10.477 -0.6943 -0.0117  0.2209
10634SOL    HW142216  12.590  10.120  10.536 -2.8577  0.8678  2.8161
10634SOL    HW242217  12.608  10.261  10.485  0.4732 -0.6969 -0.9565
10635SOL     OW42218   9.962   0.830   1.890  0.3389  0.2897  0.5260
10635SOL    HW142219  10.020   0.892   1.845  1.5347  0.8581  2.7357
10635SOL    HW242220   9.939   0.765   1.823  2.2424  0.9520 -0.8260
10636SOL     OW42221  12.668   7.398   7.807 -0.6847 -0.3201 -0.8453
10636SOL    HW142222  12.610   7.474   7.812 -1.5751 -1.0156 -0.1989
10636SOL    HW242223  12.751   7.429   7.842 -0.8681  0.5064 -1.1221
10637SOL     OW42224   6.742  11.006   0.409 -0.1552  0.2718  0.3858
10637SOL    HW142225   6.790  11.031   0.488 -2.9193  0.5062  2.1261
10637SOL    HW242226   6.676  11.074   0.398 -2.1799 -1.6114  0.0475
10638SOL     OW42227  12.058   3.107   2.941 -0.0350 -0.1153 -0.5566
10638SOL    HW142228  12.095   3.052   3.010 -1.8202 -1.9802 -0.9767
10638SOL    HW242229  12.068   3.197   2.973  1.7195 -0.7448  0.8005
10639SOL     OW42230   6.660   8.456   9.686 -0.2243  0.3762  0.5639
10639SOL    HW142231   6.672   8.362   9.697 -1.7033 -0.1412 -1.5714
10639SOL    HW242232   6.692   8.474   9.597  0.3664  1.9562  1.0707
10640SOL     OW42233   4.698   6.296   6.595  0.1675  0.2823 -0.1497
10640SOL    HW142234   4.691   6.233   6.523  0.7889  0.2076 -0.1538
10640SOL    HW242235   4.775   6.349   6.573 -0.3505  1.0531 -0.1515
10641SOL     OW42236  11.231   4.084  12.522  0.5156 -0.1143  0.0822
10641SOL    HW142237  11.242   3.994  12.492  2.8399  0.0841  0.1686
10641SOL    HW242238  11.211   4.134  12.443  0.3721 -0.5302 -0.1454
10642SOL     OW42239   5.857   1.168  10.883  0.0242 -0.4422  0.0723
10642SOL    HW142240   5.850   1.165  10.978  1.5301 -0.2587  0.2168
10642SOL    HW242241   5.950   1.188  10.867 -0.5729  1.4172 -1.3938
10643SOL     OW42242   7.061   6.835  12.362  0.5204 -0.0162 -0.4221
10643SOL    HW142243   7.084   6.920  12.400  0.2715 -0.0567 -0.1816
10643SOL    HW242244   6.983   6.807  12.410  1.7380 -1.3233  0.8941
10644SOL     OW42245   6.297   7.245   2.893 -0.3434  0.1544  0.3203
10644SOL    HW142246   6.210   7.263   2.858  0.0463  0.1885 -0.6742
10644SOL    HW242247   6.351   7.230   2.816  0.1756 -1.6043  0.9779
10645SOL     OW42248   7.425   2.296   8.460  0.1121 -0.1467  0.3311
10645SOL    HW142249   7.471   2.343   8.391  0.1707  1.4459  1.4047
10645SOL    HW242250   7.346   2.347   8.476 -1.0896 -1.7738 -0.1210
10646SOL     OW42251   1.270   6.834   5.078 -0.2607  0.5728 -0.1090
10646SOL    HW142252   1.243   6.925   5.066 -0.3686  0.5593  0.0280
10646SOL    HW242253   1.260   6.795   4.991 -0.4227  0.6367 -0.1192
10647SOL     OW42254   7.284   5.917   2.821  0.1098 -0.1450 -0.4152
10647SOL    HW142255   7.223   5.889   2.889 -0.8818 -0.9692 -1.5941
10647SOL    HW242256   7.307   6.007   2.844 -1.6673  0.2365 -0.0027
10648SOL     OW42257   3.586   2.913   2.133 -0.1515 -0.3889  0.1018
10648SOL    HW142258   3.653   2.850   2.109  0.4445  0.5307 -0.6922
10648SOL    HW242259   3.634   2.993   2.156 -0.8946 -0.1784  1.0202
10649SOL     OW42260   7.953   2.583   3.932 -0.0580  0.2356 -0.1731
10649SOL    HW142261   8.027   2.633   3.965 -0.3392  0.0900  0.6869
10649SOL    HW242262   7.942   2.511   3.994 -2.6413  1.7707  1.3134
10650SOL     OW42263   4.905   9.719   4.059  0.0435 -0.2670  0.0661
10650SOL    HW142264   4.816   9.683   4.062  0.4184 -1.2518  0.0097
10650SOL    HW242265   4.914   9.769   4.140 -0.1322 -1.2487  0.7100
10651SOL     OW42266   4.624   1.877   3.205  0.5028  0.8175 -0.0518
10651SOL    HW142267   4.532   1.851   3.216  0.4433  1.2291  0.4672
10651SOL    HW242268   4.662   1.808   3.150 -0.3273  1.0972 -1.0124
10652SOL     OW42269   8.737   8.366  10.472  0.5512 -0.6247  0.2140
10652SOL    HW142270   8.798   8.420  10.522  1.9392 -1.0389 -0.9290
10652SOL    HW242271   8.743   8.280  10.513  0.6309 -0.6208  0.2127
10653SOL     OW42272   2.174   4.799  10.275 -0.3767  0.4255 -0.3407
10653SOL    HW142273   2.110   4.808  10.345  0.2909 -0.4073  0.3950
10653SOL    HW242274   2.122   4.784  10.196 -1.4717  5.6023 -0.9608
10654SOL     OW42275   0.299   4.351   3.532 -0.7746  0.3879  0.4478
10654SOL    HW142276   0.249   4.346   3.614 -0.8402  0.8781  0.4420
10654SOL    HW242277   0.384   4.386   3.558 -0.2024 -0.9881  0.5477
10655SOL     OW42278   0.194   6.825   7.096 -0.3900 -0.0000  0.5629
10655SOL    HW142279   0.142   6.746   7.079  0.4333 -0.5631  0.6444
10655SOL    HW242280   0.239   6.842   7.013  0.4379 -0.3696  0.9301
10656SOL     OW42281   3.667  10.937   4.041  0.0266 -0.0883 -0.2828
10656SOL    HW142282   3.644  10.974   4.126  0.9739  1.1667 -0.5244
10656SOL    HW242283   3.678  11.014   3.984  0.8227 -0.8142 -1.1558
10657SOL     OW42284   6.756  12.981  11.969 -0.1922 -0.5921  0.0020
10657SOL    HW142285   6.704  12.951  11.894  0.8541 -1.2467 -0.4899
10657SOL    HW242286   6.798  13.062  11.938 -0.3317 -0.4659  0.1397
10658SOL     OW42287   7.071   6.810   8.924  0.2485  0.0079 -0.1430
10658SOL    HW142288   7.116   6.782   9.004 -0.9719 -0.8245  0.2814
10658SOL    HW242289   6.984   6.771   8.930 -0.8542  2.2156 -0.5290
10659SOL     OW42290   8.719   7.936   4.474 -0.8093  0.8685  0.3170
10659SOL    HW142291   8.694   7.844   4.462  0.6475  0.5558 -0.6176
10659SOL    HW242292   8.764   7.938   4.558  3.0807 -0.2951 -1.4735
10660SOL     OW42293   8.035   3.317   3.819 -0.7124  0.4558 -0.5106
10660SOL    HW142294   7.977   3.350   3.750  0.0217  1.8015 -0.5234
10660SOL    HW242295   8.109   3.378   3.819  0.8127 -1.3180 -0.6249
10661SOL     OW42296   2.028   8.792  10.202  0.3330 -0.0040  0.1338
10661SOL    HW142297   2.018   8.744  10.120  0.9945 -0.1075  0.1038
10661SOL    HW242298   2.053   8.726  10.266  0.2010  0.1375  0.3325
10662SOL     OW42299   7.485   0.037   7.746  0.3804  0.2135  0.6166
10662SOL    HW142300   7.496  -0.054   7.720  1.6933  0.5839 -0.2175
10662SOL    HW242301   7.445   0.080   7.670  0.6305  0.5215  0.6570
10663SOL     OW42302  11.308   0.079   8.287 -0.0591  0.4828  0.0774
10663SOL    HW142303  11.357   0.030   8.353 -1.4779 -0.1773  0.6796
10663SOL    HW242304  11.325   0.034   8.205  0.3753  0.2977  0.2667
10664SOL     OW42305   6.154   0.464   4.796  0.0073 -0.0871  0.0817
10664SOL    HW142306   6.249   0.468   4.779  0.2883 -0.3739  1.5080
10664SOL    HW242307   6.126   0.556   4.795  0.6232  0.1334  1.2888
10665SOL     OW42308   2.012   1.570   2.301 -0.1647 -0.3049  0.3045
10665SOL    HW142309   1.973   1.646   2.344 -2.4622 -1.3591  0.2077
10665SOL    HW242310   1.967   1.495   2.339  1.1143 -1.5495 -0.5605
10666SOL     OW42311   5.738   3.009  12.073 -0.5060 -0.5000  0.0683
10666SOL    HW142312   5.699   3.007  12.160  0.3059 -1.2376  0.4277
10666SOL    HW242313   5.675   3.058  12.020 -0.8126  0.3197  1.1529
10667SOL     OW42314   4.360   8.241  11.700  0.1040  0.1649  0.2971
10667SOL    HW142315   4.378   8.213  11.790 -3.9697  3.1112  2.3763
10667SOL    HW242316   4.388   8.333  11.698 -1.4312  0.6457 -0.8179
10668SOL     OW42317   5.912   5.922   3.915 -0.2088 -0.0166 -0.1499
10668SOL    HW142318   5.970   5.866   3.965 -1.2960 -2.5463 -1.5143
10668SOL    HW242319   5.970   5.970   3.856  0.6394 -1.4977 -0.5780
10669SOL     OW42320   5.351  11.084   9.585 -0.4773 -0.5558 -0.0049
10669SOL    HW142321   5.298  11.163   9.589 -0.0948 -0.3307  1.8581
10669SOL    HW242322   5.422  11.106   9.525 -1.3206 -0.1150 -0.8573
10670SOL     OW42323   9.487   3.366   4.226  0.0454 -0.0228 -0.2491
10670SOL    HW142324   9.466   3.427   4.297 -0.8767 -0.8160  0.1729
10670SOL    HW242325   9.440   3.286   4.248 -0.7193 -0.1139 -2.0418
10671SOL     OW42326   6.972   2.898   9.582  0.6698 -0.1223 -0.3044
10671SOL    HW142327   6.975   2.913   9.487  1.5537 -0.5273 -0.3434
10671SOL    HW242328   7.052   2.938   9.615 -0.2671  1.2048  0.4604
10672SOL     OW42329   1.194   8.378   0.764  0.6672 -0.3728 -0.1541
10672SOL    HW142330   1.246   8.339   0.834  0.0439 -2.0001 -0.5504
10672SOL    HW242331   1.106   8.389   0.802  0.4510 -0.8084 -0.5169
10673SOL     OW42332  12.157  10.622  10.251  0.0319  0.0887  0.3378
10673SOL    HW142333  12.190  10.706  10.217 -0.9912  0.7091  0.8410
10673SOL    HW242334  12.217  10.601  10.322  0.8003 -0.0414 -0.3348
10674SOL     OW42335   3.967   6.446   8.015  0.1462  0.0169 -0.2112
10674SOL    HW142336   3.887   6.482   8.053  0.4033 -0.9059  1.2965
10674SOL    HW242337   3.946   6.434   7.922 -0.8194  1.4855 -0.2133
10675SOL     OW42338   8.680   0.831  10.270 -0.3513 -0.2562 -0.4087
10675SOL    HW142339   8.751   0.892  10.288 -0.5106  0.0886 -0.9493
10675SOL    HW242340   8.672   0.830  10.175  0.3513 -1.9177 -0.4868
10676SOL     OW42341  11.485   9.667   5.430 -0.2509  0.2141 -0.0092
10676SOL    HW142342  11.563   9.612   5.434  0.0159  0.5038 -0.9684
10676SOL    HW242343  11.453   9.670   5.520 -2.5564 -4.7323 -0.3008
10677SOL     OW42344   3.492   0.204  10.888 -0.0648 -0.4896  0.4063
10677SOL    HW142345   3.539   0.263  10.947  0.0259 -1.3670  1.2282
10677SOL    HW242346   3.445   0.263  10.829 -1.6214  0.4607  2.4884
10678SOL     OW42347  11.018   2.265   4.398 -0.0282 -0.5219  0.3682
10678SOL    HW142348  11.072   2.194   4.433 -0.2286 -0.2684  1.2104
10678SOL    HW242349  10.929   2.246   4.429 -0.1928 -0.2224  0.0970
10679SOL     OW42350   4.617   5.201   7.713  0.1130  0.2232  0.0319
10679SOL    HW142351   4.590   5.162   7.797 -0.1816 -2.2156 -1.0935
10679SOL    HW242352   4.552   5.168   7.650  1.1672  0.7872 -1.3906
10680SOL     OW42353   5.971   0.556   0.440 -0.3186  0.2797  0.1326
10680SOL    HW142354   6.002   0.578   0.352 -0.9375  0.7721  0.0378
10680SOL    HW242355   6.000   0.629   0.495 -1.3258  0.7664  0.0364
10681SOL     OW42356   4.409   2.937  11.206  0.5649  0.3038 -0.6363
10681SOL    HW142357   4.384   3.020  11.246 -0.2981  0.4151 -1.3841
10681SOL    HW242358   4.505   2.940  11.204  0.5492  1.1902 -0.4646
10682SOL     OW42359   7.148   7.139   2.245  0.1383  0.8262  0.4808
10682SOL    HW142360   7.142   7.099   2.332 -1.1436 -1.5933 -0.6382
10682SOL    HW242361   7.079   7.097   2.194  0.0513  3.0698 -1.4112
10683SOL     OW42362   6.126  11.407   8.182  0.0181  0.3856 -0.1748
10683SOL    HW142363   6.040  11.367   8.174  1.3460 -2.4207 -1.8788
10683SOL    HW242364   6.117  11.492   8.139 -1.7207 -0.1646 -0.9744
10684SOL     OW42365  12.022  12.392  11.943 -0.0831  0.4131 -0.3665
10684SOL    HW142366  11.931  12.421  11.939 -0.2707 -0.0797  0.1986
10684SOL    HW242367  12.024  12.331  12.016  0.6172  0.1168 -0.6302
10685SOL     OW42368   2.430  10.271   4.927 -0.4439  0.3192 -0.5550
10685SOL    HW142369   2.483  10.209   4.977 -0.8966  1.6477  1.7136
10685SOL    HW242370   2.494  10.331   4.887 -0.1199  0.6127  0.3716
10686SOL     OW42371   9.253   8.753   6.791  0.1474 -0.7982 -0.5255
10686SOL    HW142372   9.337   8.708   6.780  0.1868 -1.0198  0.5646
10686SOL    HW242373   9.240   8.757   6.886  0.0569  1.3495 -0.5809
10687SOL     OW42374   0.304   9.183   3.045 -0.1717 -0.3925  0.3279
10687SOL    HW142375   0.249   9.256   3.073  1.3031  0.0001  2.5129
10687SOL    HW242376   0.318   9.132   3.125  1.3800 -1.2710 -0.4568
10688SOL     OW42377   0.371   7.043   9.047  0.0819  0.2600  0.2419
10688SOL    HW142378   0.294   7.049   8.990 -1.0498 -0.7447  1.6013
10688SOL    HW242379   0.442   7.018   8.987 -0.6934  0.8988 -0.9955
10689SOL     OW42380   2.824   4.565  11.126  0.2808 -0.2871  0.2599
10689SOL    HW142381   2.749   4.625  11.127  0.7254  0.3086 -0.5281
10689SOL    HW242382   2.806   4.504  11.197 -0.2967  0.6476  0.9569
10690SOL     OW42383   9.583   8.305   1.342 -0.2912  0.6311  0.0586
10690SOL    HW142384   9.542   8.327   1.426  0.5021  1.0789  0.3390
10690SOL    HW242385   9.654   8.245   1.366 -0.9039 -0.3259 -0.4476
10691SOL     OW42386   1.425  11.021   6.190 -0.0521 -0.1325 -0.7195
10691SOL    HW142387   1.506  11.062   6.160 -0.3297 -0.3276 -1.7862
10691SOL    HW242388   1.394  10.971   6.114 -1.0046 -0.3143 -0.2258
10692SOL     OW42389   4.622  12.886   8.478 -0.1277  0.0140 -0.2790
10692SOL    HW142390   4.704  12.837   8.474  1.7517  2.7913  1.1866
10692SOL    HW242391   4.568  12.838   8.540  1.4436 -0.5124  0.7373
10693SOL     OW42392   9.634   1.966   2.021  0.1680  0.1541  0.4187
10693SOL    HW142393   9.619   1.923   1.936  1.2874  1.9787 -0.7745
10693SOL    HW242394   9.634   2.059   2.000 -1.3270  0.7550  2.7723
10694SOL     OW42395   9.843   8.115   9.856  0.0879  0.1596 -0.2922
10694SOL    HW142396   9.825   8.155   9.941 -1.1171 -1.0907  0.0816
10694SOL    HW242397   9.823   8.184   9.793 -3.5588 -0.1624  0.2419
10695SOL     OW42398  12.978  10.976   5.023  0.0012  0.4086 -0.2774
10695SOL    HW142399  12.950  11.061   5.056 -1.4814  0.4171 -1.4428
10695SOL    HW242400  13.011  10.930   5.100 -2.4244  0.7551  1.0687
10696SOL     OW42401  11.147   7.976   8.044 -0.0960  0.0799  0.7880
10696SOL    HW142402  11.240   8.001   8.046  1.0955 -3.4449 -1.2459
10696SOL    HW242403  11.102   8.053   8.010  2.3334  1.3621  0.2394
10697SOL     OW42404  11.624   1.724   3.166 -0.5280  0.2846 -0.3642
10697SOL    HW142405  11.569   1.689   3.237  0.3110 -2.1743 -0.8272
10697SOL    HW242406  11.565   1.780   3.116 -2.0097 -0.4580  0.4622
10698SOL     OW42407   2.519  12.846  10.062  0.6588 -0.0455  0.2880
10698SOL    HW142408   2.586  12.821   9.997  1.7936  0.4198  1.2400
10698SOL    HW242409   2.460  12.904  10.014  1.3484  0.1073 -0.4051
10699SOL     OW42410   8.075   5.051   7.943  0.2662  0.0548  0.5300
10699SOL    HW142411   8.159   5.093   7.924 -0.1440  0.6539  0.0119
10699SOL    HW242412   8.048   5.089   8.027  0.3024  0.1897  0.4807
10700SOL     OW42413   5.330   8.148   8.858 -0.2977 -0.4877 -0.3771
10700SOL    HW142414   5.273   8.194   8.797 -1.4165 -0.4267  0.6770
10700SOL    HW242415   5.278   8.074   8.889 -0.4041  0.3693  1.6785
10701SOL     OW42416  10.111   9.195  12.374 -0.1137 -0.4441  0.4687
10701SOL    HW142417  10.080   9.263  12.315  0.2248  0.7850  1.6751
10701SOL    HW242418  10.152   9.242  12.447 -2.0485 -1.8009  2.5732
10702SOL     OW42419   2.597  10.657   7.306  0.0141 -0.0547 -0.4140
10702SOL    HW142420   2.519  10.602   7.294  0.6857 -1.3032  0.6687
10702SOL    HW242421   2.566  10.729   7.361 -0.0078 -1.5790  1.7097
10703SOL     OW42422   0.416  11.360   3.211 -0.2522  0.1962  0.3011
10703SOL    HW142423   0.489  11.325   3.262  1.9288  1.7506 -1.5575
10703SOL    HW242424   0.389  11.288   3.155  2.4916  0.5477 -1.6802
10704SOL     OW42425   8.713  10.403   7.642  0.4857 -0.6098 -0.7857
10704SOL    HW142426   8.669  10.470   7.589 -1.6699  0.6436  2.2764
10704SOL    HW242427   8.706  10.323   7.590  1.2959  1.0293 -3.6663
10705SOL     OW42428  10.079   5.144   8.835  0.3889  0.1898  0.2471
10705SOL    HW142429  10.083   5.053   8.864 -0.8728  0.4894  1.4749
10705SOL    HW242430  10.111   5.141   8.744 -0.2735 -1.5867  0.0184
10706SOL     OW42431   2.503   1.601  11.450  0.0661 -0.0351 -1.0285
10706SOL    HW142432   2.491   1.686  11.491 -0.1659 -0.4130 -0.3045
10706SOL    HW242433   2.588   1.570  11.483 -0.2335 -0.4470 -0.6366
10707SOL     OW42434  11.917   6.035   5.651 -0.5829 -0.6281  0.0942
10707SOL    HW142435  11.982   6.093   5.691 -0.2250 -1.3045  0.5249
10707SOL    HW242436  11.947   6.025   5.560 -2.4409  2.4286 -0.9927
10708SOL     OW42437   1.970   5.327  11.324 -0.0169  0.7191 -0.7280
10708SOL    HW142438   1.896   5.372  11.283 -0.4527  0.7912  0.1034
10708SOL    HW242439   1.945   5.235  11.325  0.2488  0.6421 -1.1497
10709SOL     OW42440   7.796   1.583   4.070 -0.0886 -0.3983  0.0820
10709SOL    HW142441   7.875   1.614   4.114 -0.4258  0.4408  0.1196
10709SOL    HW242442   7.727   1.640   4.103 -0.5697 -0.6057 -0.5568
10710SOL     OW42443   1.175   7.815   9.058 -0.3942 -0.2707  0.5189
10710SOL    HW142444   1.179   7.753   9.131  0.6664 -0.0680  0.6563
10710SOL    HW242445   1.095   7.792   9.012 -3.2638  2.0226  3.8564
10711SOL     OW42446   8.958   1.636   7.012  0.3599 -0.0196 -0.5588
10711SOL    HW142447   9.013   1.612   6.938  0.5184  1.0301 -0.8019
10711SOL    HW242448   9.021   1.657   7.082  0.2237 -0.4752 -0.2986
10712SOL     OW42449  10.569   3.754   1.079  0.4139 -0.1375  0.2629
10712SOL    HW142450  10.515   3.801   1.143 -1.7663 -0.6288 -1.0760
10712SOL    HW242451  10.643   3.812   1.061 -0.2260  1.0804  1.4074
10713SOL     OW42452   3.147   0.025   5.821 -0.2347 -0.1494  0.4874
10713SOL    HW142453   3.141  -0.064   5.786  1.2066 -0.6807  1.4807
10713SOL    HW242454   3.232   0.057   5.789 -1.0991  1.1950 -0.5410
10714SOL     OW42455   5.443   6.414   7.774 -0.0101  0.3103  0.0810
10714SOL    HW142456   5.457   6.431   7.681  0.0801  0.9941  0.2173
10714SOL    HW242457   5.401   6.493   7.808 -0.1401  0.0266  0.6032
10715SOL     OW42458   2.984   8.138  10.579  0.2334 -0.5489  0.1057
10715SOL    HW142459   3.017   8.083  10.651  0.6939  0.1319  0.4183
10715SOL    HW242460   3.008   8.227  10.604 -2.1778  0.0349  0.5285
10716SOL     OW42461   9.670   6.285   1.987  0.1853  0.0038 -0.2960
10716SOL    HW142462   9.650   6.373   1.956 -0.1692 -0.5180 -1.6569
10716SOL    HW242463   9.589   6.236   1.974  0.9289 -0.9833 -1.4206
10717SOL     OW42464   1.420  10.929   0.174  0.0111 -0.1423 -0.2254
10717SOL    HW142465   1.470  11.010   0.188  1.0761 -0.5631 -1.3316
10717SOL    HW242466   1.484  10.868   0.137 -0.3239 -2.0782  2.1345
10718SOL     OW42467  11.864   1.369   8.406  0.4291 -0.0282 -0.0550
10718SOL    HW142468  11.905   1.354   8.320 -0.4226 -0.0374 -0.4733
10718SOL    HW242469  11.830   1.283   8.431 -0.2564  0.1891 -0.2129
10719SOL     OW42470   1.757  10.418   4.030 -0.2708 -0.0866 -0.0508
10719SOL    HW142471   1.848  10.436   4.008 -0.8747  1.3639 -1.5983
10719SOL    HW242472   1.720  10.504   4.052 -2.0135 -0.0444 -2.6456
10720SOL     OW42473   1.056   3.364   9.011 -0.2804 -0.2005  0.0655
10720SOL    HW142474   1.023   3.415   9.085 -0.1766 -1.8722  1.3291
10720SOL    HW242475   1.151   3.373   9.015 -0.1057 -2.1060  1.5985
10721SOL     OW42476   1.190   2.498   4.606 -0.7215  0.2731  0.1061
10721SOL    HW142477   1.199   2.592   4.591 -2.0109  0.3745 -0.2249
10721SOL    HW242478   1.100   2.487   4.637 -1.2856 -1.0262 -1.7435
10722SOL     OW42479   0.600   0.191   8.437  0.1219 -0.3279  0.2801
10722SOL    HW142480   0.530   0.195   8.503 -0.3504 -1.4519 -0.1186
10722SOL    HW242481   0.669   0.248   8.471 -0.4259 -0.2903  1.3747
10723SOL     OW42482   5.991   3.709   9.520  0.0420  0.7256  0.1292
10723SOL    HW142483   6.028   3.770   9.584  0.9837 -0.7886  1.0902
10723SOL    HW242484   6.034   3.625   9.539 -1.6191 -0.3854 -0.7834
10724SOL     OW42485   0.220  10.798   8.804  0.5042 -0.0133 -0.0610
10724SOL    HW142486   0.132  10.789   8.840  0.3573  1.0214 -0.1547
10724SOL    HW242487   0.235  10.716   8.758 -0.3878 -0.2199 -0.0055
10725SOL     OW42488  11.793   9.080  11.232 -0.4142  0.3601 -0.7552
10725SOL    HW142489  11.736   9.007  11.208  0.0600  0.3854 -2.0666
10725SOL    HW242490  11.876   9.060  11.188  0.8226  0.0252  1.5481
10726SOL     OW42491  10.183  11.609   6.896 -0.1549 -0.3163  0.9701
10726SOL    HW142492  10.240  11.665   6.949 -0.0353  0.1402  0.3766
10726SOL    HW242493  10.132  11.560   6.959  0.5902 -0.4079  1.5069
10727SOL     OW42494  12.497   8.279   7.245 -0.4971  0.7977 -0.0575
10727SOL    HW142495  12.439   8.284   7.169 -1.8625  0.1583  0.9133
10727SOL    HW242496  12.525   8.188   7.248  0.6165  1.1004 -0.5231
10728SOL     OW42497   7.718   7.312   1.781  0.1262  0.0596 -0.4027
10728SOL    HW142498   7.625   7.304   1.760 -0.3491  2.5584  0.4002
10728SOL    HW242499   7.726   7.398   1.821  2.4119 -1.0429  1.7687
10729SOL     OW42500   8.624   0.402   4.403  0.2707 -0.1057 -0.0263
10729SOL    HW142501   8.559   0.339   4.372 -0.4716  0.1116  1.0289
10729SOL    HW242502   8.640   0.459   4.327  0.7023 -1.3245 -0.8903
10730SOL     OW42503   5.876   9.848  11.383 -0.8857  0.0175 -0.1970
10730SOL    HW142504   5.845   9.786  11.448 -1.4500 -0.0682 -0.5456
10730SOL    HW242505   5.846   9.933  11.415 -0.1227  0.1222  0.2749
10731SOL     OW42506   9.799   7.448   6.642  0.1723  0.0212  0.6887
10731SOL    HW142507   9.722   7.475   6.693  0.0345 -0.0014  0.4938
10731SOL    HW242508   9.859   7.412   6.707 -0.5516 -1.2760  0.6830
10732SOL     OW42509   7.434   1.637   6.415  0.0799 -0.4950  0.0489
10732SOL    HW142510   7.481   1.564   6.455  1.1356  1.0054  1.7225
10732SOL    HW242511   7.421   1.699   6.487  1.2899  1.9738 -1.7053
10733SOL     OW42512   7.083  11.769  12.794 -0.4565 -0.5572  0.0133
10733SOL    HW142513   7.093  11.676  12.771 -0.7645 -0.3851 -0.8461
10733SOL    HW242514   6.990  11.787  12.781 -0.0498  0.4122 -2.0491
10734SOL     OW42515  10.127   5.181  11.445 -0.3827  0.3769 -0.0450
10734SOL    HW142516  10.159   5.163  11.534  2.2494 -1.4117 -1.2372
10734SOL    HW242517  10.032   5.191  11.455 -0.5216 -2.3345  2.6193
10735SOL     OW42518   5.643   1.251  10.357 -0.4994 -0.8545  0.2540
10735SOL    HW142519   5.586   1.207  10.420 -0.1415 -1.5751  0.0868
10735SOL    HW242520   5.627   1.207  10.274  1.2400 -1.9885  0.4661
10736SOL     OW42521   3.270   6.671   0.824 -0.1247 -0.3341 -0.1510
10736SOL    HW142522   3.355   6.626   0.824  0.4956  0.8000 -0.9715
10736SOL    HW242523   3.233   6.650   0.910  1.1819 -0.4928  0.4091
10737SOL     OW42524   2.769   6.918  11.279 -0.1073  0.5564  0.8670
10737SOL    HW142525   2.751   6.904  11.372 -0.4855  0.8142  0.8340
10737SOL    HW242526   2.693   6.880  11.234  0.9352 -1.2591  0.5642
10738SOL     OW42527   8.576  10.838   5.831 -0.4556  0.3488 -0.1662
10738SOL    HW142528   8.590  10.902   5.901  1.2558 -1.4662  1.2556
10738SOL    HW242529   8.486  10.808   5.844 -0.4243  0.6135  0.7468
10739SOL     OW42530   5.934  11.723  10.320 -0.1943 -0.0441  0.1217
10739SOL    HW142531   5.875  11.795  10.298 -0.9701 -0.3775  1.0285
10739SOL    HW242532   5.921  11.659  10.250  1.1027  1.0116 -1.1310
10740SOL     OW42533  12.252  11.766  10.484 -0.1251 -0.5731 -0.8738
10740SOL    HW142534  12.316  11.756  10.413  1.7377  0.7534  0.5107
10740SOL    HW242535  12.184  11.823  10.447 -0.0387 -1.2101 -2.0760
10741SOL     OW42536   2.589  11.693   0.602 -0.0515  0.0756 -0.2322
10741SOL    HW142537   2.536  11.630   0.651  0.2417  0.2620  0.3319
10741SOL    HW242538   2.657  11.640   0.561  0.6234  0.1085  0.8275
10742SOL     OW42539   7.688  10.197   7.514 -0.0566 -0.3004 -0.2330
10742SOL    HW142540   7.764  10.243   7.548 -0.4653 -0.4326  0.9115
10742SOL    HW242541   7.629  10.267   7.486  0.2825 -0.1871 -0.6709
10743SOL     OW42542  10.372   7.435   0.494 -0.2080  0.4579  0.4098
10743SOL    HW142543  10.291   7.385   0.482  0.2706 -0.3016  0.2945
10743SOL    HW242544  10.366   7.470   0.582  0.0805 -0.9897  1.0408
10744SOL     OW42545   6.085   8.097   1.674 -0.0548 -0.3583 -0.0040
10744SOL    HW142546   6.101   8.100   1.579  1.7039  0.6780  0.2748
10744SOL    HW242547   6.072   8.005   1.693 -1.2456 -0.5069 -1.3646
10745SOL     OW42548  11.101   3.061  11.462  0.1440  0.2407  0.3186
10745SOL    HW142549  11.188   3.024  11.475  0.5995  1.2987  0.4019
10745SOL    HW242550  11.082   3.046  11.370  0.5454  0.2638  0.2283
10746SOL     OW42551  11.488  12.261  10.382 -0.1334 -0.3897  0.0450
10746SOL    HW142552  11.512  12.265  10.475 -0.4283  1.5757  0.0920
10746SOL    HW242553  11.393  12.269  10.382 -0.0892  0.1698 -0.4382
10747SOL     OW42554   2.493   8.416   0.828  0.6178  0.5127  0.1589
10747SOL    HW142555   2.563   8.427   0.893  0.7652 -0.0451  0.0927
10747SOL    HW242556   2.442   8.342   0.860  1.1769 -0.3095 -0.7876
10748SOL     OW42557   1.064   1.691  11.092  0.0101 -0.5056 -0.2456
10748SOL    HW142558   1.118   1.615  11.070  0.7713  0.6587 -2.7663
10748SOL    HW242559   0.988   1.684  11.035 -0.0826  0.4377 -0.2516
10749SOL     OW42560   9.558   0.832   6.088  0.2249 -0.4290 -0.0059
10749SOL    HW142561   9.497   0.873   6.150  0.6520  0.4199 -0.1303
10749SOL    HW242562   9.502   0.809   6.014 -0.2257 -1.1225  0.5385
10750SOL     OW42563   3.611   2.376   8.883  0.2089 -0.7377 -0.1093
10750SOL    HW142564   3.553   2.307   8.850  0.9509 -2.0420  1.1989
10750SOL    HW242565   3.564   2.457   8.865 -1.6351 -1.6954  0.1522
10751SOL     OW42566   8.140   9.422   0.221  0.3689 -0.6833 -1.1363
10751SOL    HW142567   8.170   9.440   0.132  0.5884 -2.6135 -1.4953
10751SOL    HW242568   8.211   9.454   0.277  1.8265 -2.5116 -1.8422
10752SOL     OW42569  10.434   8.659   0.308  0.3592  0.6424 -0.2053
10752SOL    HW142570  10.374   8.726   0.276  0.2868  0.7902  0.2334
10752SOL    HW242571  10.478   8.627   0.230  1.4167  2.1855 -0.3028
10753SOL     OW42572   8.729   6.499   6.988  0.7260 -0.0190 -0.1600
10753SOL    HW142573   8.745   6.441   7.062 -1.5309  1.5865  1.7382
10753SOL    HW242574   8.806   6.556   6.985  0.3920  0.5947  1.7177
10754SOL     OW42575   7.051   2.461  10.422  0.1852  0.1038  0.1527
10754SOL    HW142576   7.112   2.523  10.382 -1.6422  1.3749 -0.8339
10754SOL    HW242577   6.981   2.516  10.456 -1.6697 -1.3996 -1.0323
10755SOL     OW42578  10.058   9.139  10.192  0.3595 -0.0684 -0.3082
10755SOL    HW142579  10.038   9.229  10.219 -0.4463  0.0268 -1.1977
10755SOL    HW242580  10.035   9.135  10.100  0.4344 -1.1833 -0.2972
10756SOL     OW42581   4.898   3.714  10.175 -0.0748  0.1383 -0.0432
10756SOL    HW142582   4.935   3.753  10.254 -2.0445  1.2646  0.4024
10756SOL    HW242583   4.862   3.630  10.204  0.3310 -0.0369 -0.0395
10757SOL     OW42584   3.595  10.937   5.968 -0.1451  0.2631  0.2664
10757SOL    HW142585   3.601  10.849   5.931 -0.7715  1.2953 -2.5087
10757SOL    HW242586   3.502  10.956   5.969  0.0871  1.6514 -1.2271
10758SOL     OW42587   0.853   7.897   8.223  0.0442  0.0596  0.2845
10758SOL    HW142588   0.936   7.937   8.249  0.5601  0.2821 -1.5925
10758SOL    HW242589   0.857   7.892   8.128 -2.2748  0.4504  0.1093
10759SOL     OW42590   7.551   2.085   2.245  0.3437  0.1070 -0.0297
10759SOL    HW142591   7.476   2.096   2.187  0.1716 -0.1924  0.1354
10759SOL    HW242592   7.524   2.125   2.328  0.6337  0.6393 -0.1884
10760SOL     OW42593   7.818   2.839   7.930 -0.6344  0.9181 -0.4305
10760SOL    HW142594   7.887   2.905   7.935 -1.0664  1.5523 -2.1614
10760SOL    HW242595   7.756   2.864   7.999 -0.5413  2.0507 -0.7273
10761SOL     OW42596   7.632   9.186   3.627 -0.0508 -0.0467 -0.0743
10761SOL    HW142597   7.564   9.245   3.595 -2.6264 -2.2216  0.9789
10761SOL    HW242598   7.601   9.099   3.605  2.2932 -1.1921  0.7334
10762SOL     OW42599   4.312  12.802   1.600 -0.3539 -0.4419  0.0310
10762SOL    HW142600   4.341  12.847   1.680 -1.1615 -0.1716  0.1869
10762SOL    HW242601   4.392  12.783   1.552  0.1908 -1.2400  1.2416
10763SOL     OW42602   4.402   5.185   5.367  0.0384 -0.4841  0.2636
10763SOL    HW142603   4.398   5.138   5.284  0.3398 -0.0461 -0.0009
10763SOL    HW242604   4.483   5.236   5.362  0.7048 -1.3883  1.3298
10764SOL     OW42605   1.405   7.773   8.458 -0.2876 -0.1512 -0.2055
10764SOL    HW142606   1.425   7.833   8.531  1.7913  1.0514 -1.6667
10764SOL    HW242607   1.310   7.781   8.447 -0.1575  2.6328 -0.0703
10765SOL     OW42608  12.685   7.843   9.310  0.5349  0.2580 -0.5158
10765SOL    HW142609  12.747   7.776   9.281  0.7211 -0.0397  0.5227
10765SOL    HW242610  12.706   7.856   9.403 -1.2840 -0.2277  0.0082
10766SOL     OW42611   9.658   0.163   2.206  0.0249  0.7035  0.4583
10766SOL    HW142612   9.630   0.244   2.249 -1.3204 -0.8991  2.8248
10766SOL    HW242613   9.596   0.152   2.134  0.6705  2.0988 -0.3537
10767SOL     OW42614   9.452  12.919   1.582  0.6124  0.2483 -0.1644
10767SOL    HW142615   9.539  12.909   1.620  0.0183 -1.8548  0.7830
10767SOL    HW242616   9.396  12.945   1.655  0.2911  0.8122 -0.6034
10768SOL     OW42617   9.445   2.445   4.129 -0.5166  0.1815  0.2349
10768SOL    HW142618   9.438   2.503   4.053  1.6115  0.8365  0.4705
10768SOL    HW242619   9.493   2.497   4.194 -0.8574 -0.9441  1.4095
10769SOL     OW42620   3.030   3.530   1.029  0.3589 -0.2388  0.1490
10769SOL    HW142621   2.954   3.474   1.040 -1.5141  1.9239 -0.9012
10769SOL    HW242622   3.054   3.520   0.937 -0.2553  0.9173 -0.1588
10770SOL     OW42623   1.978  12.107   9.305  0.2940 -0.1784  0.5149
10770SOL    HW142624   1.970  12.153   9.388 -0.4962  2.2190 -0.8126
10770SOL    HW242625   1.897  12.126   9.258  1.9612  1.1671 -2.0255
10771SOL     OW42626   3.572  12.642  12.577  0.2987 -0.0223  0.1410
10771SOL    HW142627   3.590  12.552  12.604  1.1068 -0.6529 -2.1851
10771SOL    HW242628   3.620  12.696  12.639  1.8044 -1.3300  0.1846
10772SOL     OW42629  11.199   4.007   4.045 -0.1197  0.9978  0.1426
10772SOL    HW142630  11.136   3.965   4.104  0.1029  0.4339 -0.0159
10772SOL    HW242631  11.262   4.049   4.103 -0.5530  1.4506  0.3023
10773SOL     OW42632   0.685   8.660   5.169 -0.1984  0.1865  0.1282
10773SOL    HW142633   0.722   8.747   5.153  1.6090  0.3002  3.8236
10773SOL    HW242634   0.734   8.627   5.245 -2.8315 -2.8460  0.7174
10774SOL     OW42635   1.634   3.953  10.608  0.2675 -0.6447 -0.4617
10774SOL    HW142636   1.644   3.858  10.598 -1.7172 -1.0492  0.9961
10774SOL    HW242637   1.550   3.973  10.567  0.6410  0.5195 -0.7200
10775SOL     OW42638   8.739   9.179   9.219 -1.0379  0.2891  0.4309
10775SOL    HW142639   8.649   9.147   9.210 -0.6787 -0.3817 -0.9261
10775SOL    HW242640   8.748   9.246   9.151 -0.2756 -0.1950  0.0449
10776SOL     OW42641  11.145  12.190   7.954 -0.1277  0.1273 -0.6922
10776SOL    HW142642  11.066  12.139   7.940  0.7980 -1.2054 -1.2566
10776SOL    HW242643  11.114  12.277   7.980 -1.7979  0.0239 -2.1570
10777SOL     OW42644  11.711   6.838   3.359 -0.7025 -0.0123  0.0277
10777SOL    HW142645  11.782   6.780   3.334 -0.7571 -0.4634  0.8980
10777SOL    HW242646  11.725   6.917   3.306  0.4905 -0.0511  0.2587
10778SOL     OW42647   7.195   9.824  12.293  0.9002 -0.2163 -0.1693
10778SOL    HW142648   7.115   9.776  12.313  2.4944 -3.1320 -0.2335
10778SOL    HW242649   7.213   9.873  12.373 -0.3321 -0.4150  0.2601
10779SOL     OW42650  12.566   5.252  10.998 -0.1997 -0.3972  0.1069
10779SOL    HW142651  12.501   5.321  10.992 -0.4175 -0.4789  1.2796
10779SOL    HW242652  12.629   5.272  10.929 -2.5180 -1.5046 -2.5348
10780SOL     OW42653   0.382   5.478   8.227  0.6087  0.1400 -0.2317
10780SOL    HW142654   0.436   5.452   8.153  1.2854 -0.1453  0.3498
10780SOL    HW242655   0.317   5.538   8.190  1.8014  1.1095 -0.8123
10781SOL     OW42656   4.259   2.250   7.616 -0.4820 -0.0128 -0.0137
10781SOL    HW142657   4.192   2.246   7.547  0.2738  1.6767 -0.8885
10781SOL    HW242658   4.228   2.188   7.683 -1.6646 -1.0668 -1.4742
10782SOL     OW42659   0.706   9.193  11.299  0.0551  0.3275  0.0468
10782SOL    HW142660   0.697   9.136  11.376 -1.2585 -2.1932 -1.8146
10782SOL    HW242661   0.618   9.196  11.261  0.6899  1.3814 -1.4539
10783SOL     OW42662   1.860   3.453  11.651  0.4243  0.0921  0.3838
10783SOL    HW142663   1.890   3.519  11.588 -0.6839  0.0876 -0.1806
10783SOL    HW242664   1.813   3.502  11.717  1.2951  0.0572  1.0493
10784SOL     OW42665   4.517   6.578   7.391  0.5893 -0.6775  0.1821
10784SOL    HW142666   4.559   6.613   7.313  0.1238  0.7879  0.5704
10784SOL    HW242667   4.554   6.629   7.464 -0.4844 -0.6223  0.7086
10785SOL     OW42668   1.500   5.383  12.846  0.0323  0.0724  0.1628
10785SOL    HW142669   1.461   5.454  12.897 -1.0411 -0.9204  0.7537
10785SOL    HW242670   1.581   5.421  12.811 -0.8286  1.7832 -0.0664
10786SOL     OW42671   3.637  12.007   8.998  0.6645  0.0148  0.0708
10786SOL    HW142672   3.566  11.993   9.061  0.0326  1.8313 -0.1828
10786SOL    HW242673   3.706  12.051   9.048  0.1293  1.5315 -0.4948
10787SOL     OW42674  11.769  10.868   0.775  0.5180 -0.1015  0.6156
10787SOL    HW142675  11.705  10.828   0.833  0.8753 -1.6660 -0.0087
10787SOL    HW242676  11.842  10.892   0.832  0.3587 -0.4816  0.9803
10788SOL     OW42677   2.691   5.052   6.182  0.4546 -0.1768 -0.6459
10788SOL    HW142678   2.733   4.992   6.120  0.6318  1.1981 -1.8993
10788SOL    HW242679   2.763   5.106   6.215  0.5205 -1.4692  1.5208
10789SOL     OW42680   1.493   6.613   1.633  0.0441  0.0304  0.2386
10789SOL    HW142681   1.551   6.570   1.696  2.1357  1.5656 -0.5241
10789SOL    HW242682   1.552   6.644   1.564 -1.2696  3.8898  0.6209
10790SOL     OW42683   9.001   2.685   3.602 -0.0038 -0.2872  0.1861
10790SOL    HW142684   8.955   2.752   3.652  0.9836 -0.0663  0.8269
10790SOL    HW242685   8.932   2.633   3.562 -0.8614  2.4129 -2.1892
10791SOL     OW42686   7.817  10.364   7.887  0.5941 -0.1598 -0.2464
10791SOL    HW142687   7.772  10.285   7.857 -2.4178  1.6911 -1.0039
10791SOL    HW242688   7.806  10.363   7.982 -1.7437  0.5014 -0.4359
10792SOL     OW42689   8.652   2.772   2.843  0.8677 -0.1881 -0.0602
10792SOL    HW142690   8.684   2.816   2.763 -2.3685  3.3785  0.3097
10792SOL    HW242691   8.723   2.785   2.906  0.9389  3.0472 -0.5851
10793SOL     OW42692   4.386   2.921   1.033  0.0996 -0.5525 -0.1280
10793SOL    HW142693   4.314   2.983   1.030  0.0662 -0.4002  1.9957
10793SOL    HW242694   4.460   2.971   1.066  1.1930 -0.7490 -2.1103
10794SOL     OW42695  10.507   5.811  12.868 -1.0276 -0.7401  0.2119
10794SOL    HW142696  10.526   5.778  12.956 -3.2959 -1.2085  0.5778
10794SOL    HW242697  10.475   5.900  12.883  0.5180 -0.0435 -0.3693
10795SOL     OW42698   9.056  11.520   6.296 -0.2124 -0.6220 -0.5724
10795SOL    HW142699   9.037  11.433   6.261 -2.6355  0.1382 -1.2921
10795SOL    HW242700   8.971  11.557   6.318  0.7368  1.6290 -0.3642
10796SOL     OW42701  10.354   1.842   0.897  0.1503  0.3832 -0.2574
10796SOL    HW142702  10.316   1.873   0.979  0.8790 -0.7689  0.5359
10796SOL    HW242703  10.366   1.748   0.909  1.1794  0.3510 -1.3128
10797SOL     OW42704   2.448  10.184   9.391  0.4573  0.1962 -0.4516
10797SOL    HW142705   2.432  10.251   9.457  0.3878  0.8141 -1.0922
10797SOL    HW242706   2.438  10.101   9.439 -1.6059  0.5772 -0.1156
10798SOL     OW42707   1.572   2.017   4.323  0.0952 -0.1458 -0.0131
10798SOL    HW142708   1.609   1.929   4.324 -0.4430 -0.3647  0.8705
10798SOL    HW242709   1.644   2.073   4.294  0.8796 -0.6794  0.8618
10799SOL     OW42710  10.919   6.548   9.665  0.5124 -0.2341  0.3708
10799SOL    HW142711  10.968   6.577   9.589 -0.4309  0.0585 -0.1448
10799SOL    HW242712  10.947   6.606   9.736  2.1254 -1.1337  0.5258
10800SOL     OW42713   8.370   8.524  11.837 -0.4398 -0.2608  0.2232
10800SOL    HW142714   8.287   8.477  11.834 -0.6928  0.2206 -1.9221
10800SOL    HW242715   8.346   8.615  11.819  0.5172 -0.0783 -0.1802
10801SOL     OW42716   6.497   1.670   1.815  0.2836 -0.0521 -0.1028
10801SOL    HW142717   6.413   1.626   1.808  0.3313 -0.3074  0.7505
10801SOL    HW242718   6.546   1.618   1.878 -0.5344  2.4446  2.9097
10802SOL     OW42719   9.632   2.868   8.516  0.7608 -0.1928  0.5681
10802SOL    HW142720   9.559   2.835   8.569  1.0341  0.6273  1.4820
10802SOL    HW242721   9.590   2.911   8.441  0.3733 -1.3311  0.1033
10803SOL     OW42722   5.577   7.815  11.206 -0.3784 -0.0668  0.6346
10803SOL    HW142723   5.530   7.867  11.141 -0.5220 -0.9984 -0.0152
10803SOL    HW242724   5.520   7.740  11.223  0.0496 -0.2714  1.1977
10804SOL     OW42725   7.983   1.032   7.681  0.0332 -0.2670 -0.1013
10804SOL    HW142726   7.943   0.948   7.655  1.4896 -0.7786 -0.8344
10804SOL    HW242727   8.039   1.055   7.607 -0.3474  1.3797  0.0964
10805SOL     OW42728  10.978   3.397   2.215  0.1033 -0.6797  0.2753
10805SOL    HW142729  11.030   3.393   2.294  0.7743 -0.3123 -0.1422
10805SOL    HW242730  11.039   3.378   2.144 -0.3964 -0.5839 -0.1937
10806SOL     OW42731   8.726  12.557   9.397 -0.8196 -0.3968 -0.1398
10806SOL    HW142732   8.713  12.526   9.486  0.6456  2.1714  1.0779
10806SOL    HW242733   8.819  12.540   9.379 -0.8915 -0.1087 -0.8399
10807SOL     OW42734   0.150   6.376  10.988 -0.2908 -0.2566 -0.1463
10807SOL    HW142735   0.181   6.288  10.964  1.1231  0.2972 -0.4392
10807SOL    HW242736   0.110   6.410  10.908  0.5902 -0.0387 -0.5026
10808SOL     OW42737   9.507  12.984   9.595 -0.9942  0.3555  0.2434
10808SOL    HW142738   9.598  12.993   9.568 -1.8673  1.0558 -2.9388
10808SOL    HW242739   9.511  12.948   9.683  2.3155 -0.4386 -0.1096
10809SOL     OW42740  10.716   1.386   7.144 -0.0482 -0.1826 -0.0610
10809SOL    HW142741  10.650   1.409   7.210  0.0578  0.4570 -0.1669
10809SOL    HW242742  10.674   1.406   7.060  1.5575  4.0459 -0.0794
10810SOL     OW42743  12.606   0.917   9.344  0.6679 -0.7343  0.3178
10810SOL    HW142744  12.561   0.903   9.260  1.3700 -2.9789  0.2418
10810SOL    HW242745  12.618   1.012   9.349 -3.1862 -0.0340 -0.0654
10811SOL     OW42746   8.176   2.030   6.214 -0.1929  0.3485  0.0482
10811SOL    HW142747   8.100   2.024   6.156 -1.0030  1.5993  0.9257
10811SOL    HW242748   8.194   2.124   6.219  0.8420  0.1305  0.5896
10812SOL     OW42749  10.716   6.239   7.152  0.0269 -0.3770 -0.0867
10812SOL    HW142750  10.652   6.178   7.189 -0.5786  0.8735  0.9944
10812SOL    HW242751  10.662   6.306   7.110  0.6603  0.2275  0.0664
10813SOL     OW42752   9.779   9.638   5.096  0.1156 -0.4289 -0.3112
10813SOL    HW142753   9.829   9.615   5.018 -0.0918 -0.3818 -0.4601
10813SOL    HW242754   9.838   9.691   5.149 -0.0214  0.2364 -0.8178
10814SOL     OW42755   4.310  11.034   0.822  0.4888 -0.5490 -0.4064
10814SOL    HW142756   4.355  10.963   0.867  1.0183  0.4910  0.7556
10814SOL    HW242757   4.351  11.114   0.855 -0.3798  0.3222 -1.3531
10815SOL     OW42758   5.658  11.307   0.936 -0.0170 -0.2469 -0.0778
10815SOL    HW142759   5.689  11.393   0.907 -1.7199  0.8503  1.1486
10815SOL    HW242760   5.605  11.275   0.863  1.1391 -0.5872 -0.7988
10816SOL     OW42761  12.457   1.187  11.052  0.0892  0.2862 -0.3499
10816SOL    HW142762  12.443   1.094  11.070  0.3911  0.5739  1.5598
10816SOL    HW242763  12.532   1.189  10.993 -0.1555 -0.6829 -0.7135
10817SOL     OW42764  11.408   3.146   7.045 -0.2204 -0.3504  0.5231
10817SOL    HW142765  11.383   3.138   7.137 -3.4782  0.8452 -0.1406
10817SOL    HW242766  11.425   3.056   7.017 -1.1030 -0.9496  1.8324
10818SOL     OW42767   4.936  12.917   9.906  0.1842  0.3026  0.7121
10818SOL    HW142768   4.945  12.822   9.915 -1.1142  0.1307  0.4196
10818SOL    HW242769   4.881  12.928   9.828  1.1853  1.3365  0.1361
10819SOL     OW42770   6.585  11.774   6.249  0.1230 -0.5792  0.2333
10819SOL    HW142771   6.502  11.801   6.210 -0.0732  0.0359  1.0560
10819SOL    HW242772   6.640  11.750   6.174 -0.0776  1.0574 -0.4768
10820SOL     OW42773  12.294   4.235   1.348  0.1459  0.3828  0.7796
10820SOL    HW142774  12.216   4.189   1.377  0.5485 -1.6712 -1.0914
10820SOL    HW242775  12.363   4.204   1.406 -0.1650  1.1596  1.5769
10821SOL     OW42776  12.475  10.865   5.825 -0.2195  0.2900  0.5128
10821SOL    HW142777  12.523  10.860   5.742  0.2651  1.3982  0.7107
10821SOL    HW242778  12.544  10.869   5.892 -0.6034 -0.9917  1.0163
10822SOL     OW42779   4.043   9.712   0.537 -0.2122  0.6878  0.2229
10822SOL    HW142780   4.083   9.627   0.521 -0.9505  0.6577 -1.6592
10822SOL    HW242781   3.952   9.693   0.561 -0.6403  0.9585 -1.1313
10823SOL     OW42782   7.223   0.766   5.884  0.3946 -0.1622 -0.1628
10823SOL    HW142783   7.142   0.735   5.842  1.2097  0.2216 -2.1617
10823SOL    HW242784   7.196   0.840   5.938 -0.7749 -0.9094  0.3049
10824SOL     OW42785   2.445  12.073   4.385 -0.2155  0.1682 -0.8009
10824SOL    HW142786   2.413  12.007   4.324  0.1507 -0.3946 -0.3912
10824SOL    HW242787   2.517  12.116   4.338  0.6136 -0.8270 -0.4566
10825SOL     OW42788   8.851   8.197   5.189 -0.1649 -0.4207 -0.2372
10825SOL    HW142789   8.846   8.283   5.147  0.6337  0.0701  0.6367
10825SOL    HW242790   8.760   8.166   5.190 -0.5014  0.5300 -0.3379
10826SOL     OW42791   0.840  11.893   1.521 -0.1916 -0.3671  0.5227
10826SOL    HW142792   0.881  11.962   1.469 -1.5268 -0.0731 -0.2046
10826SOL    HW242793   0.889  11.814   1.500  0.0908 -0.0053 -0.2141
10827SOL     OW42794   8.763   3.392   5.108 -0.4415  0.0052  0.1072
10827SOL    HW142795   8.829   3.423   5.046  0.8910 -0.0010  1.4523
10827SOL    HW242796   8.684   3.443   5.088  0.2706  0.7388 -0.8927
10828SOL     OW42797   3.251   4.793   4.948  0.8675  0.1143  0.0141
10828SOL    HW142798   3.279   4.722   5.006  2.0948  1.7367  1.4881
10828SOL    HW242799   3.166   4.764   4.914  0.2640 -1.0536  2.3458
10829SOL     OW42800   1.289  10.393   6.894  0.2798 -0.7928 -0.0855
10829SOL    HW142801   1.354  10.344   6.844  0.7911 -1.4099  1.1196
10829SOL    HW242802   1.291  10.481   6.858  1.3503 -0.9650 -0.4765
10830SOL     OW42803   9.275   2.579   9.612  0.1015 -0.3778  0.3894
10830SOL    HW142804   9.357   2.599   9.565 -0.4642 -0.1736 -0.5441
10830SOL    HW242805   9.229   2.518   9.554 -1.3883  1.2073 -0.1620
10831SOL     OW42806   2.794  10.618   1.624  0.1876  0.1683  0.2214
10831SOL    HW142807   2.819  10.540   1.673 -1.4851  0.6249  1.9018
10831SOL    HW242808   2.825  10.691   1.677 -1.3969  0.6708  0.5023
10832SOL     OW42809   1.398  11.917   6.870  0.1143  0.0001  0.3834
10832SOL    HW142810   1.473  11.889   6.819  0.3514 -0.9295  1.2103
10832SOL    HW242811   1.330  11.853   6.850 -0.4342  0.7615 -0.2631
10833SOL     OW42812   5.732   0.961   9.596 -0.8660  0.2722 -0.4241
10833SOL    HW142813   5.753   1.020   9.667  1.5415 -1.1205  0.1138
10833SOL    HW242814   5.636   0.956   9.596 -0.9579 -0.1401  3.1340
10834SOL     OW42815  11.562   0.271   5.003 -0.3935  0.0845 -0.0891
10834SOL    HW142816  11.520   0.323   5.073 -2.6876 -2.8252  0.8842
10834SOL    HW242817  11.489   0.231   4.956  1.2487 -1.1616 -1.6793
10835SOL     OW42818   9.017   3.887   4.549  0.1390 -0.0765 -0.1237
10835SOL    HW142819   8.922   3.890   4.560 -0.0009  0.4003 -1.2599
10835SOL    HW242820   9.031   3.812   4.490  0.1329  1.6491 -2.4880
10836SOL     OW42821   3.238   6.831   6.182 -0.9335 -0.0100 -0.2791
10836SOL    HW142822   3.147   6.843   6.156 -0.9550 -0.7541 -0.5944
10836SOL    HW242823   3.289   6.862   6.107 -0.9218  0.6187 -0.0109
10837SOL     OW42824  12.023   3.873   0.067 -0.2642  1.0518  0.1593
10837SOL    HW142825  12.077   3.926   0.126  0.5816 -0.0527  0.4198
10837SOL    HW242826  12.070   3.790   0.060 -0.5241  1.0245 -1.8116
10838SOL     OW42827   4.749   8.350   4.272  0.4636  0.0991 -0.3148
10838SOL    HW142828   4.789   8.431   4.239  1.1302  0.2383  0.7966
10838SOL    HW242829   4.820   8.302   4.312 -0.5248  0.6297  2.2453
10839SOL     OW42830   8.978   2.212  11.083  1.2085  0.0535  0.4880
10839SOL    HW142831   8.921   2.254  11.147  0.3566  0.1487 -0.3106
10839SOL    HW242832   9.033   2.153  11.134  0.2965 -0.1488  1.2607
10840SOL     OW42833   3.240   9.476   3.495  0.0351 -0.0196 -0.2487
10840SOL    HW142834   3.148   9.463   3.520  0.5313 -1.4860  0.9009
10840SOL    HW242835   3.255   9.414   3.424 -0.1326  1.0013 -1.2097
10841SOL     OW42836   6.411  11.380   0.816  0.2702  0.3671 -0.1194
10841SOL    HW142837   6.357  11.337   0.882  1.0359  0.1661  0.3946
10841SOL    HW242838   6.389  11.336   0.734 -1.2704  1.1466 -0.1625
10842SOL     OW42839   8.629  12.980  11.097 -0.3293 -0.2668  0.3161
10842SOL    HW142840   8.717  12.993  11.130  0.2160  0.8190 -1.3930
10842SOL    HW242841   8.578  13.053  11.134  0.4059  1.2713 -1.5259
10843SOL     OW42842   1.265   6.575  11.566  0.5446  0.3440  1.0206
10843SOL    HW142843   1.254   6.575  11.661  0.9327  0.6498  1.0670
10843SOL    HW242844   1.210   6.503  11.536 -0.4565  0.9527  1.3700
10844SOL     OW42845   3.192   4.183   3.183 -0.1434  0.1059 -0.4458
10844SOL    HW142846   3.191   4.259   3.242 -1.4624  0.0485 -0.3635
10844SOL    HW242847   3.138   4.210   3.109  0.4395 -0.2983 -1.0281
10845SOL     OW42848   3.217   4.723   3.306 -0.1438 -0.3146  0.1376
10845SOL    HW142849   3.174   4.793   3.354  0.7806  0.3247  0.0647
10845SOL    HW242850   3.211   4.749   3.214  0.9156  0.1186  0.1659
10846SOL     OW42851   6.614   9.431   6.585  0.5289 -0.3456  0.5153
10846SOL    HW142852   6.566   9.496   6.636  1.0141  0.8912 -0.5263
10846SOL    HW242853   6.699   9.426   6.627  1.5500  1.9575 -1.0408
10847SOL     OW42854   5.679  11.421  10.429 -0.4325  0.7326 -0.2487
10847SOL    HW142855   5.638  11.352  10.482  1.6015  0.1238  0.6187
10847SOL    HW242856   5.703  11.489  10.493  0.9211  0.5608 -0.5663
10848SOL     OW42857   4.205   9.781   4.968  0.0026 -0.3994  0.4005
10848SOL    HW142858   4.149   9.809   5.041 -0.5423 -0.4599  0.0136
10848SOL    HW242859   4.288   9.826   4.983 -0.4586  0.4548  0.4667
10849SOL     OW42860   6.244   2.249   9.588  0.1217 -0.0141  0.0453
10849SOL    HW142861   6.305   2.308   9.633  0.7992 -2.2080  2.2462
10849SOL    HW242862   6.298   2.173   9.564 -1.3014 -1.1087  0.1787
10850SOL     OW42863   3.321   8.523   3.435  0.2793  0.3342  0.1463
10850SOL    HW142864   3.264   8.481   3.500 -1.7427  1.1494 -1.0246
10850SOL    HW242865   3.333   8.456   3.367  0.4885  0.2635  0.2515
10851SOL     OW42866   9.408   0.959  12.570  0.2662 -0.2950 -0.4778
10851SOL    HW142867   9.486   0.936  12.520  0.6386  1.6622 -0.9029
10851SOL    HW242868   9.336   0.948  12.509  0.5777  0.8565 -1.0766
10852SOL     OW42869  11.829   8.089   4.546  0.0526 -0.4667 -0.5456
10852SOL    HW142870  11.748   8.091   4.595  0.2221 -0.3246 -0.2711
10852SOL    HW242871  11.893   8.131   4.603  0.4099 -0.9409 -0.5886
10853SOL     OW42872  12.905   0.084   5.140 -0.3109  0.2051  0.0275
10853SOL    HW142873  12.892   0.152   5.206 -1.1181  1.2613 -1.1800
10853SOL    HW242874  12.828   0.028   5.147  0.7154 -1.1182  1.5562
10854SOL     OW42875   7.499   0.234   8.596  0.3489  1.1711  0.0663
10854SOL    HW142876   7.591   0.253   8.614  0.1406  1.7309  0.5701
10854SOL    HW242877   7.460   0.220   8.682  0.5734 -2.1695 -0.2378
10855SOL     OW42878   7.512   1.350   4.159 -0.5562 -0.6909  0.4863
10855SOL    HW142879   7.484   1.432   4.200  0.9692  0.5829 -0.8539
10855SOL    HW242880   7.579   1.316   4.217 -0.9687 -0.8345  0.8849
10856SOL     OW42881   1.539   0.030   4.775  0.2902 -0.6400  0.5426
10856SOL    HW142882   1.497  -0.051   4.805 -0.5841 -1.0205 -1.5361
10856SOL    HW242883   1.483   0.100   4.809  0.1660 -0.9740  1.0385
10857SOL     OW42884   5.360   9.739   3.656  0.5529  0.2074 -0.1009
10857SOL    HW142885   5.304   9.720   3.731  1.2295 -0.8046  0.1697
10857SOL    HW242886   5.449   9.736   3.692  0.7974  1.9484 -0.4842
10858SOL     OW42887   9.100  11.995  11.683 -0.4089 -0.0389 -0.2039
10858SOL    HW142888   9.047  11.997  11.603 -0.8180 -0.5400  0.0504
10858SOL    HW242889   9.188  11.972  11.653 -0.9561 -2.1184 -0.3135
10859SOL     OW42890   5.579   1.767   1.238  0.3409  0.7918  0.3132
10859SOL    HW142891   5.608   1.760   1.329  0.3424 -0.3121  0.2416
10859SOL    HW242892   5.654   1.738   1.187 -0.3325 -0.5762  0.0612
10860SOL     OW42893   0.871   8.741   7.007  0.6609  0.3843  0.2858
10860SOL    HW142894   0.788   8.739   6.960  1.3149 -1.1475 -0.9015
10860SOL    HW242895   0.920   8.812   6.967 -0.9890  3.1888  2.8281
10861SOL     OW42896   4.850  10.028   9.096  0.7169  0.0096  0.7086
10861SOL    HW142897   4.843   9.946   9.144 -0.9086  0.2293  0.8983
10861SOL    HW242898   4.800  10.013   9.016  1.0827  0.5601  0.3731
10862SOL     OW42899   7.835   7.431   3.673 -0.2919 -0.0197  0.0739
10862SOL    HW142900   7.849   7.374   3.598  0.9544 -0.0928  0.3427
10862SOL    HW242901   7.914   7.485   3.678 -0.3107 -0.0707  1.3635
10863SOL     OW42902   4.689   7.125   5.331  0.0481 -0.4102  0.4008
10863SOL    HW142903   4.618   7.190   5.329  0.7053  0.3620  1.3042
10863SOL    HW242904   4.729   7.132   5.244  0.4195  0.7711  0.6463
10864SOL     OW42905   0.441   7.950   0.638  0.1055 -0.0856  0.1775
10864SOL    HW142906   0.484   7.941   0.553 -0.8297  0.5040 -0.3677
10864SOL    HW242907   0.502   7.909   0.700  1.0348 -0.0589 -0.6977
10865SOL     OW42908   8.843   5.611  12.415 -0.0141  0.4028  0.4424
10865SOL    HW142909   8.911   5.678  12.425  0.8659 -0.0676 -1.7769
10865SOL    HW242910   8.839   5.569  12.501  3.6007 -0.5175  0.3244
10866SOL     OW42911   5.623  11.619  12.123  0.2077 -0.3866  0.2939
10866SOL    HW142912   5.713  11.600  12.096  0.1881  2.6620 -2.4326
10866SOL    HW242913   5.633  11.674  12.201  0.8564  1.1532 -0.8229
10867SOL     OW42914   9.052  10.336   1.339  0.3564 -0.2093  0.4493
10867SOL    HW142915   9.061  10.249   1.300  3.6167  0.4570 -0.6587
10867SOL    HW242916   8.968  10.334   1.386  0.1148 -3.7658  0.1143
10868SOL     OW42917   9.406   2.815   0.005  0.2738 -0.1571  0.1749
10868SOL    HW142918   9.448   2.852   0.083  0.7636  0.7039 -0.4805
10868SOL    HW242919   9.464   2.838  -0.067  0.2455 -1.6417 -0.3667
10869SOL     OW42920   7.402   6.171   2.888  0.7916 -0.3834  0.4336
10869SOL    HW142921   7.486   6.141   2.851 -0.0238 -1.1288 -0.9062
10869SOL    HW242922   7.370   6.235   2.825  0.8490  0.7600  1.5176
10870SOL     OW42923  10.447  12.728   1.641 -0.4005 -0.3877  0.6621
10870SOL    HW142924  10.415  12.681   1.718  1.3713 -0.0634  1.6575
10870SOL    HW242925  10.430  12.668   1.568 -1.5008 -0.9952  1.3836
10871SOL     OW42926  11.967   9.447   5.697  0.1342  0.1070  0.2265
10871SOL    HW142927  11.875   9.438   5.675  0.3890 -2.3029 -0.1223
10871SOL    HW242928  11.974   9.411   5.786  0.6302  1.0803  0.6065
10872SOL     OW42929   3.447   3.156   7.192 -0.0919 -0.1526 -0.1201
10872SOL    HW142930   3.390   3.088   7.227 -1.1126  1.1446  0.8588
10872SOL    HW242931   3.509   3.109   7.136 -0.2767 -1.9510  1.0993
10873SOL     OW42932  10.717   6.030  12.859  0.8180 -0.1106 -0.2401
10873SOL    HW142933  10.679   6.043  12.772  1.2984 -0.3997 -0.4986
10873SOL    HW242934  10.759   5.944  12.854  1.0998  0.0008  0.1828
10874SOL     OW42935   6.947   0.025   9.860  0.0712  0.4393 -0.1369
10874SOL    HW142936   6.859  -0.007   9.842 -0.2352  1.0007  0.3289
10874SOL    HW242937   7.005  -0.038   9.818 -0.5757  0.6548 -1.4169
10875SOL     OW42938   6.973   9.468   9.992  0.0940 -0.6279  0.1962
10875SOL    HW142939   6.998   9.560   9.985 -2.7100  0.1605 -0.9290
10875SOL    HW242940   6.963   9.438   9.902  0.2594 -1.8288  0.5529
10876SOL     OW42941  10.379   6.007   1.101 -0.1477 -0.0854 -0.4326
10876SOL    HW142942  10.395   6.096   1.069 -0.0402 -0.1087 -0.4427
10876SOL    HW242943  10.315   6.018   1.171  1.9946  0.3150  1.5657
10877SOL     OW42944   5.011   9.284   8.206  0.4422  0.2408  0.0603
10877SOL    HW142945   4.966   9.260   8.126 -0.4013  3.9702 -0.7934
10877SOL    HW242946   5.104   9.282   8.183  0.3697 -1.2117 -0.1688
10878SOL     OW42947   4.664  12.799   1.685  0.3053  0.3731 -0.5603
10878SOL    HW142948   4.634  12.787   1.595  0.1345  1.1160 -0.6067
10878SOL    HW242949   4.650  12.892   1.703 -0.7200  0.0064  0.6224
10879SOL     OW42950  12.750   0.702   9.109  0.0209 -0.2214  0.2214
10879SOL    HW142951  12.791   0.762   9.046 -1.6485 -2.0956 -2.8372
10879SOL    HW242952  12.817   0.692   9.178  2.6611  0.6584 -2.0115
10880SOL     OW42953   0.125  10.330   2.326  0.4555 -0.4473  0.2484
10880SOL    HW142954   0.052  10.285   2.367 -0.3199  0.4213 -0.1469
10880SOL    HW242955   0.087  10.411   2.292  1.4423 -0.3436 -0.6411
10881SOL     OW42956   7.740  11.243   5.776  0.1434  0.7037  0.2841
10881SOL    HW142957   7.797  11.193   5.718  0.2339  2.2174 -0.9905
10881SOL    HW242958   7.800  11.279   5.842  0.3236  0.4496  0.2601
10882SOL     OW42959   5.914   9.704   9.932 -0.3438 -0.3047 -0.2047
10882SOL    HW142960   5.840   9.690   9.873  0.6191  1.4349 -1.9248
10882SOL    HW242961   5.930   9.798   9.930  1.7869 -0.5898  0.2438
10883SOL     OW42962   1.555   3.959  11.284  0.0828  0.2291  0.1593
10883SOL    HW142963   1.575   3.940  11.376  1.5539  0.0519 -0.1637
10883SOL    HW242964   1.514   3.879  11.251 -0.5091  0.3151  0.6682
10884SOL     OW42965  11.100   7.771   0.642  0.3907 -0.4677  0.1709
10884SOL    HW142966  11.043   7.793   0.715 -1.6137 -1.3771 -1.0421
10884SOL    HW242967  11.132   7.856   0.610 -2.0369  0.3098 -0.4347
10885SOL     OW42968  10.032   0.406   5.377  0.0462 -0.1079 -0.2730
10885SOL    HW142969  10.028   0.499   5.397 -1.0830 -0.0640 -0.6657
10885SOL    HW242970   9.995   0.398   5.289  0.4014 -0.8912 -0.3622
10886SOL     OW42971   6.690   4.153   7.321 -0.0121  0.8945  0.0378
10886SOL    HW142972   6.654   4.242   7.321 -1.6098  0.3159 -2.1754
10886SOL    HW242973   6.626   4.101   7.274 -0.1955 -1.9602  3.1135
10887SOL     OW42974   8.936  12.599   8.683 -0.4400 -0.1551 -0.5171
10887SOL    HW142975   8.966  12.622   8.595 -1.2180  0.6875 -0.5663
10887SOL    HW242976   8.841  12.606   8.680 -0.4337  0.7785  0.6296
10888SOL     OW42977   3.636  11.529   6.788  0.5511 -0.6363 -0.1808
10888SOL    HW142978   3.641  11.450   6.735 -0.8809 -2.1831  1.8661
10888SOL    HW242979   3.626  11.498   6.878 -1.7559  1.8186  0.5491
10889SOL     OW42980   0.049   2.169   2.743 -0.8690  0.2906  0.1394
10889SOL    HW142981   0.049   2.100   2.676 -1.3213  0.7030 -0.2886
10889SOL    HW242982  -0.023   2.146   2.801 -0.7446  0.1687  0.2480
10890SOL     OW42983   2.547   0.256  11.564 -0.0301  0.3400  0.6069
10890SOL    HW142984   2.510   0.169  11.576 -0.7097  0.4992 -0.2090
10890SOL    HW242985   2.641   0.244  11.572 -0.2034 -0.2114  1.9528
10891SOL     OW42986  11.511   7.387  11.556 -0.2437  0.4761  0.0945
10891SOL    HW142987  11.468   7.436  11.486  0.9556  2.2844  0.5292
10891SOL    HW242988  11.547   7.309  11.513  0.3704  1.4840 -1.3168
10892SOL     OW42989   3.831   0.733   7.810  0.0611 -0.3263  0.5006
10892SOL    HW142990   3.924   0.748   7.800  0.2975  0.7361  3.3150
10892SOL    HW242991   3.825   0.670   7.883 -1.4038 -1.5147 -0.5833
10893SOL     OW42992  11.322   2.312  11.815 -0.2971 -0.3073  0.3017
10893SOL    HW142993  11.285   2.386  11.863  1.5165  1.5637 -0.9986
10893SOL    HW242994  11.299   2.235  11.867 -2.4827  1.1148  1.5779
10894SOL     OW42995   2.711   8.419   6.428 -0.3916 -0.3627  0.0275
10894SOL    HW142996   2.746   8.432   6.517 -1.6145  1.3650  0.3157
10894SOL    HW242997   2.628   8.374   6.442 -0.5671 -0.1243 -0.2529
10895SOL     OW42998  11.407   3.852  10.788  0.0765  0.3315  0.6021
10895SOL    HW142999  11.328   3.884  10.743 -1.4696 -0.8068  2.3589
10895SOL    HW243000  11.438   3.780  10.733  0.1904  1.0811 -0.3443
10896SOL     OW43001   5.028   8.691  11.755  0.2043 -0.1537 -0.6689
10896SOL    HW143002   5.055   8.705  11.665  1.2332  0.3482 -0.2935
10896SOL    HW243003   5.085   8.747  11.807  0.4549 -1.3307  0.3929
10897SOL     OW43004   4.748  10.978   5.632 -0.5488  0.3507  0.0154
10897SOL    HW143005   4.828  10.946   5.673 -0.7324 -0.9141 -0.5530
10897SOL    HW243006   4.762  11.072   5.621  1.0742  0.0658 -0.5767
10898SOL     OW43007   1.213   1.703   6.648 -0.1577 -0.1701  0.6127
10898SOL    HW143008   1.174   1.698   6.560  0.5367  0.7287  0.2296
10898SOL    HW243009   1.274   1.630   6.652 -0.7573 -0.6734  0.6414
10899SOL     OW43010   6.862   8.132   9.863  0.1059  0.3871  0.1000
10899SOL    HW143011   6.887   8.224   9.853 -1.5029  0.7239 -1.2201
10899SOL    HW243012   6.942   8.089   9.893  0.6066  2.3849  1.8833
10900SOL     OW43013   6.169   8.334  12.659  1.0048 -0.0674 -0.1524
10900SOL    HW143014   6.143   8.320  12.750  0.7682  1.2333  0.0085
10900SOL    HW243015   6.117   8.272  12.609  0.2853 -0.0182  0.5116
10901SOL     OW43016   0.286   2.426   7.995 -0.3499  0.0787  0.1096
10901SOL    HW143017   0.302   2.358   7.930 -2.7763  0.7550 -1.3427
10901SOL    HW243018   0.360   2.486   7.985 -0.1326 -0.3748 -1.2912
10902SOL     OW43019  11.606  10.047   9.080 -0.0434  0.2656 -0.3131
10902SOL    HW143020  11.599   9.960   9.041  2.5362 -0.3759  0.4439
10902SOL    HW243021  11.593  10.107   9.007  0.8945 -0.8219 -1.4262
10903SOL     OW43022   4.544   8.315  10.661 -0.0142 -0.5266  0.2804
10903SOL    HW143023   4.576   8.226  10.644 -0.8103 -0.6284 -0.8112
10903SOL    HW243024   4.450   8.310  10.646 -0.0561  0.5301  0.1031
10904SOL     OW43025  10.073   4.598   7.845 -0.4197  0.0516  0.3755
10904SOL    HW143026  10.116   4.644   7.773 -1.3529  1.6514  0.7949
10904SOL    HW243027  10.145   4.569   7.902  0.1769  1.9402  0.6371
10905SOL     OW43028   3.545   8.853   4.795 -1.2851  0.4283 -0.1097
10905SOL    HW143029   3.613   8.794   4.826  0.3179  1.4450 -1.5421
10905SOL    HW243030   3.498   8.879   4.875  1.7501  1.8259  1.4073
10906SOL     OW43031   1.093   2.159   4.251 -0.0277  0.3804 -0.4044
10906SOL    HW143032   1.013   2.184   4.298 -0.2853  1.5370 -1.4079
10906SOL    HW243033   1.135   2.094   4.307 -1.1709  0.4959  0.6133
10907SOL     OW43034   5.590  10.864   5.819 -0.3630  0.4368  0.1446
10907SOL    HW143035   5.543  10.890   5.898  0.7127  3.5051 -0.0823
10907SOL    HW243036   5.533  10.891   5.747 -0.1602  0.1720 -0.1183
10908SOL     OW43037   1.787   5.070   9.271 -0.4425 -0.3405 -0.6040
10908SOL    HW143038   1.852   5.046   9.337 -1.0322  0.5140  0.3275
10908SOL    HW243039   1.819   5.152   9.233 -0.5850 -0.3255 -0.6951
10909SOL     OW43040   1.314   5.043   4.397  0.1167 -0.4625 -0.5978
10909SOL    HW143041   1.300   4.968   4.454  1.5924 -1.3618 -1.3780
10909SOL    HW243042   1.280   5.015   4.312 -2.0187  0.8443 -0.2717
10910SOL     OW43043   3.514  11.267   8.438 -0.1931 -0.4032  0.1934
10910SOL    HW143044   3.422  11.285   8.458 -0.2280 -0.1966 -0.1332
10910SOL    HW243045   3.542  11.206   8.506  0.2816  1.8209  2.1416
10911SOL     OW43046   9.105   1.753   5.677 -0.4995  0.1923 -0.3916
10911SOL    HW143047   9.038   1.821   5.681 -0.0493  0.6812 -0.9406
10911SOL    HW243048   9.124   1.744   5.584 -1.0077 -1.1557 -0.3944
10912SOL     OW43049   4.047   4.724   9.495  0.3483 -0.2515  0.2136
10912SOL    HW143050   3.991   4.796   9.466 -1.3591 -0.2856  3.0184
10912SOL    HW243051   4.115   4.766   9.547  2.4761 -0.3233 -2.2955
10913SOL     OW43052  12.702   2.173   3.615  0.0359  0.4919 -0.0668
10913SOL    HW143053  12.699   2.179   3.519  1.0786 -2.0795 -0.3422
10913SOL    HW243054  12.617   2.206   3.644  0.0844  2.2809 -1.7773
10914SOL     OW43055   5.782   3.223   2.428 -0.1483 -0.7508 -0.4955
10914SOL    HW143056   5.711   3.250   2.486 -0.0255  1.1452 -1.1515
10914SOL    HW243057   5.856   3.278   2.454  0.8596 -2.1000 -0.3828
10915SOL     OW43058   7.897   9.829   3.022  0.4143 -0.3970 -0.7034
10915SOL    HW143059   7.932   9.918   3.011  1.2489 -0.2702  2.0812
10915SOL    HW243060   7.803   9.842   3.034  0.5208  0.1194 -0.3831
10916SOL     OW43061   4.958  12.604   6.013 -0.0830 -0.3579  0.8381
10916SOL    HW143062   4.996  12.564   6.091  1.0942 -1.1889 -0.1142
10916SOL    HW243063   5.034  12.632   5.961 -0.8522  1.7357  0.7513
10917SOL     OW43064   6.870   8.887  10.862 -0.1410  0.0019 -0.6425
10917SOL    HW143065   6.822   8.906  10.782 -0.6436  0.8159 -0.1721
10917SOL    HW243066   6.829   8.808  10.897 -1.7957  1.1749  0.2139
10918SOL     OW43067   7.953  10.740   9.292  0.4353  0.3175  0.4453
10918SOL    HW143068   7.926  10.763   9.203  2.2965 -0.0680 -0.2742
10918SOL    HW243069   7.872  10.715   9.336 -0.7747  2.1065 -0.6230
10919SOL     OW43070   7.488   1.424   9.433 -0.3356 -0.1163 -0.2063
10919SOL    HW143071   7.535   1.440   9.514 -0.9271  1.4816 -0.1298
10919SOL    HW243072   7.412   1.372   9.458  1.6620 -3.4216 -0.4467
10920SOL     OW43073   3.746  10.317   9.523  0.1749 -0.5567  0.0389
10920SOL    HW143074   3.808  10.284   9.459  1.4365  0.0849  0.9020
10920SOL    HW243075   3.723  10.241   9.576 -1.2590 -1.2073 -1.4064
10921SOL     OW43076  10.452   2.254   1.562  0.6367  0.5141 -0.1331
10921SOL    HW143077  10.446   2.335   1.614  0.5410 -0.1781  0.9545
10921SOL    HW243078  10.526   2.207   1.601 -0.2942 -0.6393  0.2691
10922SOL     OW43079   9.961   9.898   4.150  0.0456  0.6370  0.0622
10922SOL    HW143080   9.947   9.869   4.240  1.3271 -0.5629 -0.1047
10922SOL    HW243081  10.011   9.828   4.109  1.2318  2.0469 -1.0196
10923SOL     OW43082   9.931   9.237   8.716 -0.1999  0.0496  0.2414
10923SOL    HW143083   9.924   9.154   8.763 -0.3311  0.0592  0.2372
10923SOL    HW243084   9.909   9.215   8.626  1.9071 -0.3746 -0.2373
10924SOL     OW43085  10.711   7.497   3.599  0.3528  0.2722  0.1251
10924SOL    HW143086  10.659   7.421   3.626  0.4110  0.2464  0.1644
10924SOL    HW243087  10.672   7.524   3.515  0.7817 -0.2377 -0.2505
10925SOL     OW43088  10.519   9.989   2.503  0.4210  0.0046 -0.1707
10925SOL    HW143089  10.472   9.945   2.432 -0.0236  1.0377 -0.5427
10925SOL    HW243090  10.501   9.936   2.581 -0.8922  0.0589 -0.4148
10926SOL     OW43091   8.325   7.586   1.370  0.6378  0.5916  0.0718
10926SOL    HW143092   8.383   7.653   1.334  0.7273  1.5566  1.9046
10926SOL    HW243093   8.384   7.518   1.402  0.7124  1.0978  1.0181
10927SOL     OW43094  12.410   3.546   6.096  0.2492  0.0856  0.0567
10927SOL    HW143095  12.483   3.581   6.046 -0.6073  1.7855 -0.0642
10927SOL    HW243096  12.370   3.481   6.037  0.2169  0.8940 -0.8283
10928SOL     OW43097   1.525   8.610  10.056  0.4808  0.2469 -0.6548
10928SOL    HW143098   1.476   8.679  10.101  0.5788  0.0843 -0.2977
10928SOL    HW243099   1.477   8.595   9.975  0.7562  1.1240 -0.9967
10929SOL     OW43100   8.745   1.726   7.174 -0.0735  0.2249 -0.0012
10929SOL    HW143101   8.793   1.701   7.095 -0.5287 -1.2913  0.1740
10929SOL    HW243102   8.787   1.807   7.203  1.4567 -0.2996 -0.6515
10930SOL     OW43103   0.007   1.652   5.990  0.0419  0.2171 -0.1112
10930SOL    HW143104   0.044   1.628   6.075 -0.2056  0.0406 -0.0503
10930SOL    HW243105   0.076   1.636   5.927  0.5806  1.3098  0.1729
10931SOL     OW43106   3.482   8.379   9.068  0.3796  0.0291 -0.4908
10931SOL    HW143107   3.507   8.345   9.154  1.7653 -0.3956 -1.0147
10931SOL    HW243108   3.566   8.399   9.026 -0.2991  0.8782 -1.4889
10932SOL     OW43109   7.014   9.441   2.630 -0.2402  0.5344 -0.2143
10932SOL    HW143110   6.943   9.384   2.600  1.0954 -1.1965 -0.2371
10932SOL    HW243111   6.980   9.481   2.709 -1.6394  0.5785 -0.8131
10933SOL     OW43112   0.620   2.232  11.406 -0.2331 -0.4088  0.2175
10933SOL    HW143113   0.656   2.320  11.391 -0.3564 -0.7530 -2.7005
10933SOL    HW243114   0.526   2.246  11.418 -0.0638 -0.0579  1.2506
10934SOL     OW43115   2.804  12.970   9.131 -0.2372  0.0133 -0.0605
10934SOL    HW143116   2.834  12.916   9.204  0.3683  0.8045  0.2949
10934SOL    HW243117   2.862  12.946   9.058 -0.4271 -0.3144 -0.1066
10935SOL     OW43118   1.103   1.855   3.097 -0.2270  0.4081  0.3052
10935SOL    HW143119   1.068   1.882   3.012 -0.1585 -0.0787  0.1217
10935SOL    HW243120   1.040   1.888   3.161 -3.1444 -3.5579 -0.1525
10936SOL     OW43121   7.955   8.970  12.888 -0.0845  0.3623 -0.2163
10936SOL    HW143122   7.881   8.960  12.948 -1.3356  2.3980 -1.2867
10936SOL    HW243123   7.997   9.051  12.915  2.0680 -0.9464  0.6013
10937SOL     OW43124   4.650  12.273  11.017  0.7216 -0.0546  0.6378
10937SOL    HW143125   4.625  12.209  11.085  2.7862 -0.7137  0.8377
10937SOL    HW243126   4.612  12.238  10.937 -2.1162  0.9487  1.4212
10938SOL     OW43127   0.485   8.172   2.136 -0.4325 -0.0772  0.6012
10938SOL    HW143128   0.535   8.099   2.100 -1.0058  0.5484 -1.6168
10938SOL    HW243129   0.402   8.132   2.164 -0.0236 -0.5615  1.1354
10939SOL     OW43130   8.161   2.645  12.529  0.3419  0.3057  0.2417
10939SOL    HW143131   8.184   2.736  12.511 -0.6968  0.6535  0.5854
10939SOL    HW243132   8.093   2.650  12.596  0.9392 -0.7738  0.9597
10940SOL     OW43133  11.855  10.632   4.197 -0.0941 -0.2699  0.2426
10940SOL    HW143134  11.845  10.727   4.195 -0.0703 -0.2704  0.0671
10940SOL    HW243135  11.807  10.604   4.275 -0.4758 -0.1568  0.0530
10941SOL     OW43136  11.166   7.674   3.747 -0.3420 -0.2914  0.1496
10941SOL    HW143137  11.236   7.610   3.763 -0.3277 -0.2220  0.3709
10941SOL    HW243138  11.086   7.621   3.741 -0.3295 -0.3308  0.3253
10942SOL     OW43139   1.619  11.691   7.279 -0.4229  0.5496  0.1853
10942SOL    HW143140   1.701  11.723   7.243 -1.0531  0.2101 -1.6813
10942SOL    HW243141   1.558  11.764   7.270 -1.0272 -0.0846 -1.0725
10943SOL     OW43142   2.820  12.811   5.419  0.2652  0.0643 -0.0778
10943SOL    HW143143   2.819  12.866   5.341 -0.3881  0.3639  0.1365
10943SOL    HW243144   2.912  12.811   5.446  0.3755  0.5635 -0.4249
10944SOL     OW43145  12.562   7.571   3.101 -0.1921 -0.2494 -0.0705
10944SOL    HW143146  12.488   7.591   3.043 -1.3101 -0.9910  1.0693
10944SOL    HW243147  12.535   7.602   3.187  0.3834 -1.4591  0.5781
10945SOL     OW43148   4.628   2.639   8.051 -0.1473  0.0695 -0.1284
10945SOL    HW143149   4.621   2.558   8.000  0.2883 -2.2788  3.2553
10945SOL    HW243150   4.721   2.643   8.076 -0.7842 -0.4296  2.6367
10946SOL     OW43151   5.586   5.659   7.871  0.0560 -0.1355 -0.1130
10946SOL    HW143152   5.643   5.626   7.940 -0.2350  0.9492  0.6702
10946SOL    HW243153   5.543   5.582   7.836  0.1789 -0.6930  0.9423
10947SOL     OW43154   9.862   8.466   2.011 -0.6105 -0.2516 -0.2916
10947SOL    HW143155   9.796   8.450   1.944 -0.8370  1.6796 -0.5761
10947SOL    HW243156   9.832   8.544   2.057  0.9716  0.1007  0.2158
10948SOL     OW43157   5.472   6.013   9.850 -0.5912  0.1034  0.1844
10948SOL    HW143158   5.431   5.963   9.779  0.4348  0.3743 -0.6318
10948SOL    HW243159   5.419   6.093   9.857 -0.4604  0.2630 -0.5693
10949SOL     OW43160   0.200   8.437   4.840 -0.2021 -0.0385  0.1934
10949SOL    HW143161   0.226   8.346   4.832 -0.7639 -0.2030  0.2162
10949SOL    HW243162   0.225   8.462   4.929  0.2046 -0.0873  0.0914
10950SOL     OW43163  11.915   3.259   8.291 -0.1842 -0.1265 -0.6647
10950SOL    HW143164  11.860   3.336   8.297 -1.4166 -1.0793  0.9920
10950SOL    HW243165  11.890   3.205   8.366  1.9599 -1.2890 -0.6921
10951SOL     OW43166   5.560  10.645   5.368  0.1043  0.0887  0.2053
10951SOL    HW143167   5.611  10.701   5.310  1.4869  0.4928  1.7379
10951SOL    HW243168   5.476  10.691   5.378  0.3221  0.6395 -0.4627
10952SOL     OW43169   4.625   2.449  10.964 -0.0795 -0.2429  0.4981
10952SOL    HW143170   4.662   2.502  11.035  1.9533  0.0788 -0.7182
10952SOL    HW243171   4.558   2.505  10.924 -0.5185 -0.0393  1.5090
10953SOL     OW43172  11.111   1.425   9.323  0.4377 -0.4075 -0.3670
10953SOL    HW143173  11.065   1.508   9.340 -0.3478 -1.0047  0.5755
10953SOL    HW243174  11.079   1.397   9.238 -0.8537 -0.7182  0.1941
10954SOL     OW43175   3.039   1.721   6.108  0.1157  0.1638 -0.4765
10954SOL    HW143176   3.110   1.672   6.068  1.2183  1.6756 -0.4631
10954SOL    HW243177   3.051   1.710   6.203  1.2077  1.5122 -0.4218
10955SOL     OW43178  10.871  10.632   1.811  0.4929 -0.4609  0.0834
10955SOL    HW143179  10.938  10.567   1.792  0.7333 -0.5067  0.9970
10955SOL    HW243180  10.887  10.703   1.749 -0.1336 -1.5006 -1.3099
10956SOL     OW43181   8.892   0.166   7.245 -0.4492 -0.1753  0.1664
10956SOL    HW143182   8.960   0.214   7.293  0.5557 -1.2872 -0.0744
10956SOL    HW243183   8.829   0.141   7.312 -0.5804  0.8052  0.4149
10957SOL     OW43184   4.489   2.722  10.548  0.0664  0.2260  0.8629
10957SOL    HW143185   4.454   2.791  10.604 -2.0827  0.5755 -0.8007
10957SOL    HW243186   4.520   2.767  10.470 -1.0323 -0.6059 -0.0867
10958SOL     OW43187   3.087  10.436   3.436 -0.4251 -0.4071  0.0352
10958SOL    HW143188   3.154  10.465   3.498 -0.8398 -2.1177  1.3516
10958SOL    HW243189   3.005  10.471   3.471 -0.4188  0.5473 -0.8426
10959SOL     OW43190   0.769  10.116  10.174 -0.0171 -0.3354  0.4713
10959SOL    HW143191   0.765  10.206  10.207  0.3683 -0.1854  0.1123
10959SOL    HW243192   0.695  10.072  10.217 -0.8175  0.3987 -0.1126
10960SOL     OW43193   1.667   8.766   9.705 -0.5599 -0.2554 -0.1644
10960SOL    HW143194   1.628   8.854   9.708  1.3922  0.6811 -0.3665
10960SOL    HW243195   1.627   8.725   9.628 -0.8531  0.8021 -0.5957
10961SOL     OW43196   1.946   2.182  12.487 -0.2688  0.4617 -0.1143
10961SOL    HW143197   1.927   2.235  12.565 -1.7309 -1.8763  1.2377
10961SOL    HW243198   1.976   2.098  12.522  1.8777  0.2668 -2.1700
10962SOL     OW43199   0.042  12.740  11.110  0.2618  0.8872  0.0885
10962SOL    HW143200   0.009  12.680  11.176  3.2945  0.2177  1.1668
10962SOL    HW243201   0.036  12.691  11.028 -1.4521  0.8678  0.1998
10963SOL     OW43202   0.016   0.928   5.372  0.3896  0.4568  0.1295
10963SOL    HW143203   0.017   0.860   5.439 -0.6269  1.9951  1.8032
10963SOL    HW243204  -0.042   0.996   5.408  0.0416  1.4872 -2.1883
10964SOL     OW43205   5.466   4.059   3.357 -0.3282  0.1400  0.6944
10964SOL    HW143206   5.389   4.116   3.358 -0.2377  0.2695  0.3707
10964SOL    HW243207   5.429   3.971   3.355 -0.4691  0.1941  0.8724
10965SOL     OW43208   8.729   3.055   6.946  0.3768  0.4783  0.2464
10965SOL    HW143209   8.723   3.147   6.921  0.2133  0.6201  0.8079
10965SOL    HW243210   8.750   3.056   7.039 -2.0171 -0.0270  0.8747
10966SOL     OW43211   6.068   9.928   7.657 -0.1841 -0.3038  0.5115
10966SOL    HW143212   6.131   9.962   7.721  0.2420  0.7829 -0.4454
10966SOL    HW243213   6.040   9.844   7.693  2.2518 -1.1148  0.7003
10967SOL     OW43214   0.422   8.760   5.259  0.0589 -0.1848 -0.0786
10967SOL    HW143215   0.405   8.670   5.290 -0.0110  0.4367  1.8643
10967SOL    HW243216   0.511   8.757   5.225  0.3396 -0.8497  0.6702
10968SOL     OW43217  12.339   6.532   8.350 -0.2997  0.5493 -0.7479
10968SOL    HW143218  12.430   6.511   8.368  0.0430  2.2730 -0.2973
10968SOL    HW243219  12.335   6.545   8.255 -0.6675 -1.9367 -1.1605
10969SOL     OW43220   4.680   7.093   6.016 -0.2244 -0.2103  0.1489
10969SOL    HW143221   4.689   7.180   6.055  1.6346  0.3567 -1.3722
10969SOL    HW243222   4.591   7.093   5.980 -0.2007  1.1535  0.0148
10970SOL     OW43223  12.031   8.241   9.417 -0.8021  0.1340  0.1755
10970SOL    HW143224  12.082   8.255   9.496 -2.9411  1.0026  1.5140
10970SOL    HW243225  11.963   8.178   9.442 -0.3319 -1.1556 -1.5797
10971SOL     OW43226   4.348   7.211   4.127  0.5913 -0.5723  0.9588
10971SOL    HW143227   4.418   7.162   4.169  1.1763 -1.1098 -0.5987
10971SOL    HW243228   4.276   7.148   4.120  0.5352 -0.5182  1.0493
10972SOL     OW43229   9.141   9.840   9.847 -0.4299 -0.1112  0.2771
10972SOL    HW143230   9.147   9.852   9.753 -0.3207  1.7947  0.4856
10972SOL    HW243231   9.218   9.787   9.869 -0.5013 -0.6415 -0.7049
10973SOL     OW43232   8.335  11.491   5.040 -0.7008 -0.8028 -0.0180
10973SOL    HW143233   8.252  11.448   5.060 -1.0236 -0.4278 -0.5119
10973SOL    HW243234   8.311  11.563   4.982 -0.2360  0.2836  1.0754
10974SOL     OW43235   9.956  11.539   4.094  0.1372 -0.6324  0.1329
10974SOL    HW143236   9.959  11.632   4.118  1.7835 -0.7096  0.3318
10974SOL    HW243237   9.995  11.494   4.169  1.2728 -1.2910 -0.8279
10975SOL     OW43238   9.651   2.101   7.957  0.2762 -0.1735 -0.0771
10975SOL    HW143239   9.602   2.027   7.994  0.7199 -1.0463 -1.1630
10975SOL    HW243240   9.630   2.175   8.015 -0.8919 -0.9286  0.5205
10976SOL     OW43241  11.529   1.056   9.445  0.2386 -0.2604 -0.3969
10976SOL    HW143242  11.524   1.007   9.362  0.4404 -1.6135  0.3678
10976SOL    HW243243  11.438   1.063   9.474  0.2346 -0.4471 -0.3623
10977SOL     OW43244   2.538   0.732   3.534  0.1720  0.1759 -0.4326
10977SOL    HW143245   2.500   0.802   3.586  2.1000 -1.1258  3.0849
10977SOL    HW243246   2.602   0.775   3.478 -0.9873  1.5008 -0.7811
10978SOL     OW43247  10.955   9.754  11.915  0.5844  0.1637  0.0118
10978SOL    HW143248  10.989   9.695  11.983  0.3748  0.0290  0.0030
10978SOL    HW243249  10.977   9.842  11.946  3.1812  0.0267 -1.2020
10979SOL     OW43250   6.119   4.137   5.675 -0.4159  0.4193 -0.3786
10979SOL    HW143251   6.117   4.167   5.766  0.8569 -1.2213  0.2482
10979SOL    HW243252   6.080   4.208   5.625 -0.0916  1.8535  1.3211
10980SOL     OW43253  12.241  12.938   1.028 -0.5058 -0.6838  0.0369
10980SOL    HW143254  12.329  12.960   0.999 -0.9476 -0.7696 -1.4306
10980SOL    HW243255  12.244  12.844   1.045 -0.6782 -0.9619 -1.4122
10981SOL     OW43256   6.437   9.081   1.884  0.0323  0.4747 -0.2194
10981SOL    HW143257   6.470   9.168   1.863 -0.6725  0.7695 -0.1514
10981SOL    HW243258   6.515   9.030   1.907  0.7029  0.5082 -2.2140
10982SOL     OW43259   6.375   1.597  11.451  0.0567  0.0640  0.0762
10982SOL    HW143260   6.420   1.661  11.506 -2.9255 -0.7795  3.8863
10982SOL    HW243261   6.288   1.634  11.437 -1.0067 -2.1217  0.5258
10983SOL     OW43262   6.957   5.071   3.303  0.3243 -0.1881  0.9424
10983SOL    HW143263   6.967   5.107   3.391  2.3180  1.7408  0.0454
10983SOL    HW243264   6.952   5.149   3.247  0.3076 -1.3695 -0.7611
10984SOL     OW43265   4.825  10.137  10.976 -0.5713  0.2028 -0.1807
10984SOL    HW143266   4.844  10.189  10.897  1.8610  1.2867  1.0142
10984SOL    HW243267   4.809  10.202  11.044 -0.7548 -0.6776  0.6337
10985SOL     OW43268   4.392   2.357  11.891 -0.2368  0.4505 -0.0999
10985SOL    HW143269   4.305   2.381  11.923 -0.3219 -1.6102  1.4452
10985SOL    HW243270   4.374   2.293  11.821  0.0405  1.3011 -0.9725
10986SOL     OW43271   6.206   6.786   9.420  0.1665 -1.0673 -0.0053
10986SOL    HW143272   6.148   6.717   9.389  0.3954 -0.6738 -1.3819
10986SOL    HW243273   6.272   6.741   9.471 -0.3605 -1.7276  0.1046
10987SOL     OW43274  10.026   3.144  10.095 -0.3867  0.3807 -0.6057
10987SOL    HW143275  10.108   3.100  10.074 -1.0514 -0.6622 -1.0499
10987SOL    HW243276  10.054   3.223  10.143  0.8496 -0.1347 -0.4269
10988SOL     OW43277   2.911   6.779  12.561  0.0936 -0.0368 -0.0760
10988SOL    HW143278   2.983   6.739  12.512 -0.1671 -0.6234  0.0150
10988SOL    HW243279   2.921   6.747  12.650  0.9138  1.4938  0.4250
10989SOL     OW43280  10.777   0.762   9.272 -0.6151 -0.3719 -0.2002
10989SOL    HW143281  10.791   0.667   9.276 -1.9051 -0.5296  1.6410
10989SOL    HW243282  10.792   0.784   9.180 -1.7118 -2.6090 -0.9967
10990SOL     OW43283  12.955   4.149  11.575  0.0457 -0.0617 -0.2920
10990SOL    HW143284  12.957   4.244  11.564 -0.3311 -0.0450 -0.2566
10990SOL    HW243285  13.014   4.116  11.508 -0.3033  0.1660 -0.7217
10991SOL     OW43286   8.123   3.562   3.790 -0.1365 -0.5741 -0.1610
10991SOL    HW143287   8.033   3.595   3.798  0.1667  0.2583 -0.1111
10991SOL    HW243288   8.170   3.603   3.863  0.8048  0.8072 -1.4767
10992SOL     OW43289  11.597   2.912   0.436 -0.1246 -0.4311  0.3141
10992SOL    HW143290  11.646   2.964   0.372  1.7772  0.1197  2.0845
10992SOL    HW243291  11.600   2.823   0.404  1.5542 -0.2971  0.0471
10993SOL     OW43292   3.339   2.418   5.848 -0.5011 -0.2100 -0.3073
10993SOL    HW143293   3.273   2.391   5.912 -0.1425 -1.7155 -0.5156
10993SOL    HW243294   3.389   2.486   5.892 -0.7714 -0.6564  0.7212
10994SOL     OW43295   9.681   8.428   6.872  0.3591  0.9881 -0.1031
10994SOL    HW143296   9.708   8.456   6.960  1.6244  3.0927 -1.1085
10994SOL    HW243297   9.762   8.396   6.831 -0.1511  0.4021 -0.6767
10995SOL     OW43298   7.877   7.049   5.050  0.2862  0.0270  0.0563
10995SOL    HW143299   7.942   7.119   5.050  0.4760 -0.1466  0.2039
10995SOL    HW243300   7.929   6.969   5.047  0.1224 -0.1447  1.1711
10996SOL     OW43301   8.583  12.708  11.434 -0.4753  0.5055  0.1544
10996SOL    HW143302   8.515  12.648  11.403 -0.5782  0.0957  1.1238
10996SOL    HW243303   8.659  12.689  11.378  0.0224 -1.7129  1.4551
10997SOL     OW43304   0.197   2.426   2.191 -0.0357  0.0766 -0.1089
10997SOL    HW143305   0.101   2.436   2.193  0.0547  0.8933  1.3042
10997SOL    HW243306   0.220   2.403   2.280  1.2251  1.2358 -0.1047
10998SOL     OW43307   9.917  10.970   9.711  0.6853  0.1978 -0.0118
10998SOL    HW143308   9.845  10.910   9.691  1.3172 -0.3987 -0.5396
10998SOL    HW243309   9.990  10.913   9.734  0.9388  0.8022  0.7373
10999SOL     OW43310   2.482  10.552   9.841 -0.1215 -0.1531  0.5944
10999SOL    HW143311   2.559  10.548   9.785 -0.4703  0.8103  0.0183
10999SOL    HW243312   2.517  10.563   9.930  0.4301 -1.6651  0.5792
11000SOL     OW43313  11.424   1.410   7.651 -0.4226  0.2521  0.3140
11000SOL    HW143314  11.474   1.351   7.708  3.3310  1.4416 -1.4247
11000SOL    HW243315  11.364   1.352   7.604 -0.6147 -1.3280  2.3201
11001SOL     OW43316   4.491   0.603   0.828 -0.3550  0.1922  0.6196
11001SOL    HW143317   4.582   0.632   0.822 -0.3284  0.0602  0.3613
11001SOL    HW243318   4.441   0.683   0.838 -0.3359  0.3853 -0.7379
11002SOL     OW43319   1.076   1.755   1.391 -0.1158 -0.3644  0.5532
11002SOL    HW143320   1.136   1.683   1.374 -2.2245 -2.2189  0.4740
11002SOL    HW243321   1.007   1.744   1.326 -1.3740  0.7033  1.6456
11003SOL     OW43322   6.168   3.160   5.371  0.0489  1.0452 -0.0961
11003SOL    HW143323   6.118   3.238   5.395 -0.3486  0.9635 -0.6480
11003SOL    HW243324   6.103   3.098   5.342  0.4424  0.7976 -0.4516
11004SOL     OW43325  10.644   4.250   9.296  0.6219  0.1969 -0.3792
11004SOL    HW143326  10.710   4.184   9.315 -0.7677 -1.9619 -2.4428
11004SOL    HW243327  10.694   4.329   9.277  2.4154 -0.5242  1.0168
11005SOL     OW43328   6.290  11.008   0.493 -0.7691  0.1695  0.1712
11005SOL    HW143329   6.296  11.102   0.481 -0.7069  0.1097 -0.2877
11005SOL    HW243330   6.270  10.974   0.406  1.7959 -0.4854 -0.2256
11006SOL     OW43331   5.074   5.085   4.153  0.0094 -0.6496  0.3224
11006SOL    HW143332   5.088   4.991   4.162 -0.1069 -0.5472  2.0057
11006SOL    HW243333   4.983   5.098   4.181 -1.0089 -0.3630 -2.8170
11007SOL     OW43334   2.477   0.949   5.223  0.4723  0.0614 -0.4783
11007SOL    HW143335   2.382   0.952   5.212  0.0434 -0.4634  2.2962
11007SOL    HW243336   2.500   1.036   5.255  0.5786 -0.4434  0.8678
11008SOL     OW43337  12.265   8.067  12.541  0.1448 -0.7691 -0.1639
11008SOL    HW143338  12.312   8.131  12.594  1.2772 -2.0503  0.4546
11008SOL    HW243339  12.202   8.118  12.491  1.6302  0.9266 -0.3756
11009SOL     OW43340   9.475   1.783   8.512  0.1642  0.2553  0.1815
11009SOL    HW143341   9.447   1.852   8.452  0.8718  1.1899  0.8961
11009SOL    HW243342   9.490   1.707   8.456 -1.6280  0.3491 -0.4921
11010SOL     OW43343   0.542   2.287   1.611 -0.1686 -0.1626 -0.1164
11010SOL    HW143344   0.582   2.212   1.567  0.3598  0.7697 -1.2850
11010SOL    HW243345   0.607   2.314   1.676 -0.3651 -0.7195  0.3121
11011SOL     OW43346  11.826   4.621   7.315  0.4049  0.3973 -0.3924
11011SOL    HW143347  11.833   4.628   7.410  1.6689  0.5013 -0.4738
11011SOL    HW243348  11.900   4.565   7.289 -0.6513 -0.6796 -1.2074
11012SOL     OW43349   7.503   5.288   2.580 -0.0153  0.3771 -0.0437
11012SOL    HW143350   7.564   5.252   2.515 -0.7774  1.5370 -1.4545
11012SOL    HW243351   7.417   5.255   2.552 -0.0893 -1.6089  2.1683
11013SOL     OW43352  11.061   6.387   6.464  0.0389 -0.5503  0.2471
11013SOL    HW143353  11.016   6.357   6.543  0.8235 -1.6718  0.2884
11013SOL    HW243354  11.099   6.471   6.488 -2.2036  0.5809  0.1369
11014SOL     OW43355   3.017  11.771   6.395  0.5352  0.4720 -0.4713
11014SOL    HW143356   3.039  11.853   6.441  1.1830  0.2262 -0.3278
11014SOL    HW243357   3.102  11.730   6.378  0.2102 -0.2234 -0.4533
11015SOL     OW43358   2.891   7.216   9.192  0.1326 -0.3047  0.1649
11015SOL    HW143359   2.866   7.166   9.270  0.3042 -1.1402 -0.3024
11015SOL    HW243360   2.808   7.237   9.149  0.0646 -0.2789  0.3094
11016SOL     OW43361   2.462   1.230   0.032  0.1868  0.0194  0.2672
11016SOL    HW143362   2.371   1.235   0.061 -0.4320 -1.9030 -1.1323
11016SOL    HW243363   2.506   1.180   0.101 -0.3515 -0.9724 -0.0825
11017SOL     OW43364   5.369   0.824  10.709  0.1166  0.1985 -0.0773
11017SOL    HW143365   5.313   0.785  10.643 -1.2716 -0.0176  1.1655
11017SOL    HW243366   5.448   0.770  10.709 -0.1489 -0.2115 -1.0570
11018SOL     OW43367   3.872   6.094   0.848  0.2091  0.2751  0.4083
11018SOL    HW143368   3.885   6.023   0.911  0.6755 -0.3555 -0.3796
11018SOL    HW243369   3.875   6.174   0.901  1.1391 -0.2059  1.1143
11019SOL     OW43370   6.031   6.361   7.632  0.2767  0.1660  0.5952
11019SOL    HW143371   6.029   6.328   7.722  0.4089 -1.2990  0.0879
11019SOL    HW243372   6.103   6.423   7.631  0.6550 -0.2390  1.3646
11020SOL     OW43373   3.133   6.026   5.419 -0.3221 -0.4176 -0.1141
11020SOL    HW143374   3.219   6.054   5.451 -1.2463  0.3595  1.7744
11020SOL    HW243375   3.106   5.957   5.480 -2.0473  0.9769  0.7680
11021SOL     OW43376   1.128   3.106  11.029 -0.0899  0.0902 -0.5583
11021SOL    HW143377   1.183   3.157  10.970 -0.0619  0.2870 -0.3609
11021SOL    HW243378   1.157   3.016  11.017  0.4581  0.2258 -0.2517
11022SOL     OW43379  12.156   9.425  11.850  0.3646  0.3812  0.3720
11022SOL    HW143380  12.247   9.449  11.865  0.4921 -0.0212  0.2501
11022SOL    HW243381  12.140   9.352  11.910  0.9658 -1.4654 -1.6057
11023SOL     OW43382   8.312   1.082   8.378  0.4618 -0.2970 -0.1624
11023SOL    HW143383   8.342   0.991   8.376  1.2117 -0.0806  0.6518
11023SOL    HW243384   8.375   1.127   8.434  0.0203  0.7025 -0.4436
11024SOL     OW43385  10.171   6.537   0.255  0.0038 -0.3294  0.1955
11024SOL    HW143386  10.133   6.624   0.268 -0.5061 -0.6840  1.2038
11024SOL    HW243387  10.257   6.554   0.218 -0.6365  0.5450 -0.9532
11025SOL     OW43388   4.620   6.871  11.487  0.2341  0.4187 -0.0548
11025SOL    HW143389   4.617   6.939  11.420 -0.9022 -0.2718 -0.7378
11025SOL    HW243390   4.706   6.831  11.476  0.5753  1.1753 -0.2128
11026SOL     OW43391   4.422   5.458   5.694  0.0462 -0.6136 -0.1683
11026SOL    HW143392   4.409   5.523   5.763 -2.5029 -0.4216 -0.7307
11026SOL    HW243393   4.409   5.374   5.737  0.4837 -0.6029 -0.0137
11027SOL     OW43394   0.431   9.236   2.668  0.6624 -0.2167 -0.1719
11027SOL    HW143395   0.398   9.168   2.609 -0.9767  0.5067 -0.1628
11027SOL    HW243396   0.400   9.211   2.755  0.3657  0.3368 -0.1106
11028SOL     OW43397  10.874   4.137   5.267  0.3457  0.6273 -0.0463
11028SOL    HW143398  10.811   4.181   5.325 -1.7294 -1.1739 -0.8128
11028SOL    HW243399  10.942   4.104   5.327 -0.2012  1.3265  0.9998
11029SOL     OW43400   5.135   6.657   1.834  0.0040 -0.3360  0.0155
11029SOL    HW143401   5.154   6.660   1.927  0.4871  0.2730 -0.0961
11029SOL    HW243402   5.066   6.723   1.821  1.0305  0.7048 -0.2929
11030SOL     OW43403   4.829   3.030   9.705 -0.5325 -0.2643 -0.4141
11030SOL    HW143404   4.868   3.100   9.757  3.6887 -0.7243 -2.5741
11030SOL    HW243405   4.802   3.073   9.624 -2.5609 -0.4165  0.1125
11031SOL     OW43406  10.449   9.600   7.838  0.2359 -0.1727  0.1243
11031SOL    HW143407  10.399   9.679   7.858 -0.9667 -1.4553  2.6887
11031SOL    HW243408  10.526   9.606   7.895 -0.0555 -1.0008  0.6152
11032SOL     OW43409   8.577   4.004   5.907  0.2269  0.2414 -0.5188
11032SOL    HW143410   8.627   4.048   5.976 -0.5770  0.3421  0.0152
11032SOL    HW243411   8.616   3.916   5.902  1.4327  0.7897 -1.1644
11033SOL     OW43412   1.335   4.092   2.701 -0.3791  0.3573  0.2303
11033SOL    HW143413   1.257   4.148   2.697  0.1877  1.1514  0.0802
11033SOL    HW243414   1.338   4.048   2.617 -0.9117 -0.0242  0.4033
11034SOL     OW43415  11.092   3.548   5.116 -0.1323 -0.5098 -0.4740
11034SOL    HW143416  11.034   3.493   5.062 -0.2707 -2.0997  1.2007
11034SOL    HW243417  11.104   3.498   5.197 -0.1376  1.9148  1.1091
11035SOL     OW43418   5.690   0.731  10.109  0.1803  0.1089  0.1224
11035SOL    HW143419   5.721   0.671  10.177  0.0358 -0.9686 -0.7366
11035SOL    HW243420   5.641   0.676  10.048  0.3305  1.0383 -0.8769
11036SOL     OW43421   3.518   3.498   7.781  0.0354  0.6259  0.5198
11036SOL    HW143422   3.562   3.433   7.836 -0.1213 -0.2648 -0.3771
11036SOL    HW243423   3.433   3.458   7.759  0.2692  0.7606 -0.7107
11037SOL     OW43424   7.879   5.957   7.523 -0.2416  0.0573  0.2080
11037SOL    HW143425   7.810   5.902   7.560 -2.4749  2.8655  0.6276
11037SOL    HW243426   7.881   5.934   7.430 -0.8146 -0.9999  0.4418
11038SOL     OW43427   2.578   8.144   3.983  0.1285 -0.4896 -0.5721
11038SOL    HW143428   2.663   8.180   3.959  0.0283 -0.7210 -1.3085
11038SOL    HW243429   2.568   8.067   3.927  0.5867 -2.0246  1.3444
11039SOL     OW43430   2.129   3.223   9.716 -0.0930  0.4154  0.1315
11039SOL    HW143431   2.144   3.265   9.801  1.3214 -0.7526  0.4944
11039SOL    HW243432   2.097   3.135   9.738  1.9149 -0.5255 -0.4408
11040SOL     OW43433   5.092   1.936   9.359  0.1425  0.1296 -0.5836
11040SOL    HW143434   5.141   1.909   9.281 -0.2197  2.0945 -1.5403
11040SOL    HW243435   5.108   2.030   9.366 -2.0055  0.4917  0.1468
11041SOL     OW43436   2.138   2.170  11.604  0.6002 -0.4653 -0.0416
11041SOL    HW143437   2.077   2.109  11.646  0.8351 -0.3058  0.5423
11041SOL    HW243438   2.171   2.224  11.675  3.5404 -2.3227  0.1786
11042SOL     OW43439   1.679  12.023  11.414  0.1299 -0.4723  0.5476
11042SOL    HW143440   1.722  12.107  11.399  2.0713 -1.5352 -0.2122
11042SOL    HW243441   1.607  12.021  11.352  0.4180  0.3823  0.1689
11043SOL     OW43442   8.229   7.286   2.213  0.4189  0.3682 -0.2622
11043SOL    HW143443   8.211   7.376   2.238 -1.3154 -0.0097  0.0184
11043SOL    HW243444   8.209   7.234   2.291  1.9671 -0.2244 -0.2346
11044SOL     OW43445   0.348   2.271   4.434 -0.4067 -0.5379  0.3224
11044SOL    HW143446   0.397   2.203   4.480  0.1344  0.6358  1.5622
11044SOL    HW243447   0.343   2.241   4.344 -1.7300 -3.0764  1.1439
11045SOL     OW43448   2.758   2.276   0.724  0.5261 -0.0021 -0.3532
11045SOL    HW143449   2.663   2.274   0.740  0.6184  1.0147  0.3521
11045SOL    HW243450   2.787   2.187   0.745 -0.2827 -0.3592 -0.6916
11046SOL     OW43451   9.150   0.197   6.662  0.3782 -0.3486 -0.7424
11046SOL    HW143452   9.212   0.130   6.634  1.5602 -0.2621  1.4881
11046SOL    HW243453   9.091   0.151   6.722  1.7565  0.7277  1.5294
11047SOL     OW43454   0.402   2.189   7.590  0.2303  0.0164  0.1086
11047SOL    HW143455   0.382   2.260   7.529  0.5293 -0.6596 -0.7928
11047SOL    HW243456   0.428   2.116   7.534  0.0721 -0.7594  1.0299
11048SOL     OW43457   1.953   8.723   6.362 -0.3750  0.1621  0.3571
11048SOL    HW143458   1.996   8.798   6.321  1.2120  0.2169  1.9989
11048SOL    HW243459   2.004   8.647   6.332 -0.4518  0.0059  0.6157
11049SOL     OW43460  10.430   3.751   9.265 -0.1026 -0.0296 -0.0918
11049SOL    HW143461  10.448   3.821   9.327  1.4242 -0.2470 -0.2494
11049SOL    HW243462  10.392   3.796   9.189  2.4504  0.9170 -0.8935
11050SOL     OW43463   9.174   0.891   9.454  0.7124  0.4801 -0.2817
11050SOL    HW143464   9.115   0.963   9.474  1.7781  1.3628 -0.2273
11050SOL    HW243465   9.217   0.916   9.372  0.6389 -0.3873 -0.5996
11051SOL     OW43466  11.428   5.224   8.748 -0.0326  0.0614 -0.0180
11051SOL    HW143467  11.455   5.187   8.832  1.3726  1.1645  0.0573
11051SOL    HW243468  11.356   5.283   8.769  0.6439  0.7247  0.5215
11052SOL     OW43469   3.384  11.410   4.803  0.2295 -0.7024  0.2869
11052SOL    HW143470   3.472  11.376   4.786  0.6442  0.9763 -1.2071
11052SOL    HW243471   3.336  11.396   4.721 -0.1154  0.6660  0.2342
11053SOL     OW43472   2.063   4.095   9.033  0.1228  0.0597 -0.1632
11053SOL    HW143473   2.004   4.034   9.077 -1.0167  1.0567 -0.2304
11053SOL    HW243474   2.060   4.174   9.088  1.8529 -0.0380  0.1358
11054SOL     OW43475   2.922   7.512  11.502 -0.2561  0.0491  0.5518
11054SOL    HW143476   2.897   7.444  11.565  0.6636  0.7336  1.6944
11054SOL    HW243477   2.848   7.572  11.501  0.6888  1.4010  2.9778
11055SOL     OW43478   1.025   8.109   2.612  0.3739 -0.0153  0.1319
11055SOL    HW143479   1.000   8.028   2.657 -0.0437  0.5004  0.8586
11055SOL    HW243480   1.095   8.145   2.665  1.4245 -0.5170 -0.8840
11056SOL     OW43481   6.591   2.862   9.310  0.4450  0.1586  0.2291
11056SOL    HW143482   6.521   2.869   9.245 -0.3664  1.8131  1.2155
11056SOL    HW243483   6.601   2.768   9.324 -1.8682 -0.1203  0.3483
11057SOL     OW43484   1.314   1.250   0.454 -0.3275 -0.7109  0.5908
11057SOL    HW143485   1.348   1.242   0.365 -0.1793  0.1047  0.5613
11057SOL    HW243486   1.240   1.190   0.457 -1.2605  0.3191 -0.5595
11058SOL     OW43487  11.096  10.001  11.969 -0.5036 -0.2022 -0.1781
11058SOL    HW143488  11.130  10.055  12.040 -0.6737  1.9172 -1.6024
11058SOL    HW243489  11.174   9.963  11.928  0.0063  2.0139 -1.4178
11059SOL     OW43490   3.691   8.029   5.500  0.3130 -0.7738 -0.0965
11059SOL    HW143491   3.687   8.078   5.582 -1.6639  2.6908 -1.9989
11059SOL    HW243492   3.777   8.049   5.464  0.3305 -0.4077  0.1401
11060SOL     OW43493  10.923   5.845   2.968 -0.0841  0.4123 -0.4094
11060SOL    HW143494  10.904   5.776   3.032  2.1600 -0.0945 -0.2215
11060SOL    HW243495  10.843   5.852   2.916 -0.8659 -1.3290  0.4837
11061SOL     OW43496   7.351   2.881   2.445  0.6297 -0.7982  0.1347
11061SOL    HW143497   7.441   2.908   2.425 -0.0890 -0.8799 -4.2050
11061SOL    HW243498   7.306   2.963   2.465  0.9188 -0.2308 -1.4339
11062SOL     OW43499   0.580  11.745   9.646 -0.1179  0.1331 -0.4156
11062SOL    HW143500   0.636  11.701   9.709 -1.9496 -0.3837  0.9218
11062SOL    HW243501   0.640  11.781   9.581  1.6105 -2.2187 -0.2256
11063SOL     OW43502   3.221  11.508   8.016 -0.2078 -0.0726 -0.0219
11063SOL    HW143503   3.264  11.575   7.964 -0.8767  0.4297  0.0608
11063SOL    HW243504   3.288  11.478   8.078  0.8716 -1.2983 -1.7040
11064SOL     OW43505   5.681  11.527   4.475  0.1576 -0.3293  0.2636
11064SOL    HW143506   5.620  11.504   4.546 -2.0278  1.9195 -0.7483
11064SOL    HW243507   5.674  11.622   4.468  0.2432 -0.4633 -2.9756
11065SOL     OW43508   1.016  10.431   9.116  0.0802  0.3351  0.5558
11065SOL    HW143509   0.925  10.417   9.143 -0.3235 -0.2396 -0.9744
11065SOL    HW243510   1.069  10.407   9.192 -1.0322  0.3808  1.3620
11066SOL     OW43511   7.958   3.322   2.181  0.3779  0.5028  0.4035
11066SOL    HW143512   7.949   3.401   2.233  0.0916  0.0804  1.0015
11066SOL    HW243513   8.038   3.336   2.130 -0.0212  1.4526  0.0091
11067SOL     OW43514  10.968   2.135  11.004  0.3414 -0.1827  0.6705
11067SOL    HW143515  11.030   2.131  11.077 -0.0188 -2.0714  0.9171
11067SOL    HW243516  11.007   2.199  10.944  1.3709  0.3412  1.8444
11068SOL     OW43517  12.494   2.799  12.885  0.3783  0.3105  0.5568
11068SOL    HW143518  12.537   2.878  12.918 -0.1621  0.5871  0.6158
11068SOL    HW243519  12.549   2.770  12.812  0.1856  1.1747  0.0502
11069SOL     OW43520  11.560   3.940   5.697 -0.1055 -0.3846 -0.3536
11069SOL    HW143521  11.470   3.971   5.682 -0.7791 -1.0936  1.8636
11069SOL    HW243522  11.591   3.914   5.610 -1.6407  0.8661 -1.3390
11070SOL     OW43523   1.445   6.905  10.561  0.1703  0.7015 -0.2629
11070SOL    HW143524   1.353   6.899  10.586  0.1988  1.3312  0.0012
11070SOL    HW243525   1.489   6.943  10.637  1.0068 -1.4743  0.4137
11071SOL     OW43526   3.980   5.131   6.731 -0.5717  0.4697 -0.4337
11071SOL    HW143527   3.912   5.190   6.764 -0.1368  1.4051 -1.1653
11071SOL    HW243528   3.941   5.092   6.652 -0.8386 -0.1988  0.0192
11072SOL     OW43529   6.374   4.162   9.318  0.0107  0.1573  0.2144
11072SOL    HW143530   6.360   4.171   9.224 -0.6477 -0.7753  0.2143
11072SOL    HW243531   6.469   4.175   9.329  0.1607 -0.1490 -0.6255
11073SOL     OW43532  11.811   8.072   7.041 -0.4654 -0.3154 -0.0960
11073SOL    HW143533  11.719   8.045   7.036 -0.5461  0.0965 -1.1503
11073SOL    HW243534  11.847   8.051   6.954  1.0335 -2.4741  0.9703
11074SOL     OW43535  11.287   3.341   8.655 -0.0762  0.4905 -0.1478
11074SOL    HW143536  11.243   3.258   8.639  1.2802 -0.8817  2.4680
11074SOL    HW243537  11.218   3.399   8.687 -0.5299 -0.7306  1.2013
11075SOL     OW43538   6.665   4.825   1.230  0.3827 -0.2212  0.9897
11075SOL    HW143539   6.651   4.915   1.199  2.0559 -0.6546 -1.2805
11075SOL    HW243540   6.758   4.821   1.252  0.1758 -1.2227  1.7790
11076SOL     OW43541   7.609   9.271   2.399 -0.3848 -0.3612  0.2240
11076SOL    HW143542   7.568   9.240   2.318 -0.2155 -1.7788  0.6496
11076SOL    HW243543   7.595   9.200   2.462 -1.2911  1.0856  1.7245
11077SOL     OW43544   0.874   3.695   9.625 -0.0726  0.0509 -0.6831
11077SOL    HW143545   0.832   3.610   9.609 -1.0183  0.7006 -1.8304
11077SOL    HW243546   0.848   3.748   9.550  0.1879  1.4795  0.2165
11078SOL     OW43547  12.324   7.589   9.444 -0.2392  0.6476  0.1021
11078SOL    HW143548  12.317   7.493   9.446  0.1673  0.6194  0.2010
11078SOL    HW243549  12.250   7.617   9.390 -0.9789  0.3438  0.9257
11079SOL     OW43550  10.074   5.952   3.764 -0.6367  0.0932  0.0123
11079SOL    HW143551  10.021   5.925   3.689 -2.3061  2.7867  0.0773
11079SOL    HW243552  10.164   5.934   3.738 -1.2483 -0.0680 -2.1958
11080SOL     OW43553   9.167   6.209   6.686 -0.2156 -0.2621  0.2979
11080SOL    HW143554   9.120   6.215   6.603  0.7109 -1.3495 -0.3430
11080SOL    HW243555   9.112   6.256   6.748 -1.4394 -0.3005 -0.7071
11081SOL     OW43556   1.543   4.048   1.359 -0.1663 -0.0082  0.4171
11081SOL    HW143557   1.611   4.115   1.361 -1.1825  1.0519  1.8425
11081SOL    HW243558   1.461   4.097   1.371 -1.1529 -1.2876 -0.7349
11082SOL     OW43559   7.152   8.551  10.209  0.6288 -0.2021  0.1399
11082SOL    HW143560   7.239   8.577  10.238  0.4241  0.5406  0.1169
11082SOL    HW243561   7.123   8.622  10.152 -0.5765  0.2742  1.2981
11083SOL     OW43562   2.506   8.749   3.397  0.0873  0.4941 -0.4766
11083SOL    HW143563   2.555   8.668   3.404 -1.3993 -0.2977  1.7871
11083SOL    HW243564   2.524   8.795   3.479 -0.1621  1.8427 -1.1469
11084SOL     OW43565   7.289   5.177   4.104 -0.0324  0.0465  0.2779
11084SOL    HW143566   7.199   5.210   4.108 -0.4574 -1.2338  2.8139
11084SOL    HW243567   7.341   5.255   4.082 -1.4960  1.3547  1.2047
11085SOL     OW43568   0.951   7.772   1.233  0.1957 -0.2824 -0.2889
11085SOL    HW143569   1.030   7.791   1.182 -0.3607 -1.6784 -1.7624
11085SOL    HW243570   0.952   7.676   1.244 -0.7854 -0.2171  0.5183
11086SOL     OW43571   1.293  12.292   8.827  0.1981  0.3488  0.3207
11086SOL    HW143572   1.301  12.376   8.783  1.2160  0.9843  1.6504
11086SOL    HW243573   1.357  12.296   8.898 -0.3881 -1.1878  0.9774
11087SOL     OW43574   7.989   1.393   1.606 -0.1339 -0.1727 -0.0795
11087SOL    HW143575   7.990   1.308   1.561 -2.3712 -1.5049  2.0812
11087SOL    HW243576   8.017   1.372   1.695  1.3044  1.7921 -0.0216
11088SOL     OW43577   4.825  10.484   1.863 -0.0790 -0.3951  0.2495
11088SOL    HW143578   4.756  10.417   1.862 -1.4835  0.9535  0.8730
11088SOL    HW243579   4.813  10.528   1.948 -0.0477  1.4461 -0.6625
11089SOL     OW43580   6.519   6.401   6.999 -0.4131 -0.5274 -0.4444
11089SOL    HW143581   6.453   6.336   6.978  0.8122 -1.7842 -0.5253
11089SOL    HW243582   6.571   6.409   6.919  1.5622 -2.0616  0.6072
11090SOL     OW43583   6.149   1.590   0.812  0.4044  0.7662 -0.3132
11090SOL    HW143584   6.104   1.510   0.839 -1.8682  2.4735  1.3348
11090SOL    HW243585   6.159   1.581   0.717 -0.3424 -1.1777 -0.2509
11091SOL     OW43586  10.488   7.336  11.257 -0.3060 -0.1445  0.4865
11091SOL    HW143587  10.406   7.377  11.230 -0.0916 -0.2575 -0.3776
11091SOL    HW243588  10.546   7.349  11.182  0.6831  0.5298  1.3502
11092SOL     OW43589   1.507   4.598   7.708  0.5500 -0.1913  1.1594
11092SOL    HW143590   1.555   4.607   7.790  0.4693  1.1272  1.0806
11092SOL    HW243591   1.434   4.540   7.729  0.6634 -0.0520  1.9676
11093SOL     OW43592   2.887   2.131   7.801 -0.0846 -0.3026 -0.4128
11093SOL    HW143593   2.821   2.116   7.868  1.1794 -2.9941  0.3609
11093SOL    HW243594   2.934   2.210   7.831 -1.5973  0.4414  0.0728
11094SOL     OW43595   7.484   9.868  10.488 -0.3625 -0.4205 -0.3499
11094SOL    HW143596   7.573   9.890  10.515 -0.8594  0.0567  1.0083
11094SOL    HW243597   7.433   9.874  10.569 -1.8713  0.6323 -1.3332
11095SOL     OW43598   9.075   3.341   3.404 -0.0831  0.5417  0.3474
11095SOL    HW143599   8.994   3.290   3.404  1.0539 -1.4665  2.3246
11095SOL    HW243600   9.143   3.279   3.377  1.0240  1.7472  0.2496
11096SOL     OW43601   0.186   5.102   9.554 -0.1560  0.3169 -0.0722
11096SOL    HW143602   0.242   5.179   9.542  0.9128 -0.5306 -0.7435
11096SOL    HW243603   0.097   5.135   9.547  0.2980  1.3201 -1.5301
11097SOL     OW43604   5.988   2.013   2.786  0.0269 -0.2294 -0.1313
11097SOL    HW143605   5.918   2.078   2.775 -0.4840 -0.6312  0.6863
11097SOL    HW243606   6.060   2.046   2.732 -0.3805  0.7866 -0.0704
11098SOL     OW43607   7.243   2.039   0.606  0.4123  1.1168 -0.2208
11098SOL    HW143608   7.227   1.971   0.671 -0.3111  1.3217 -0.1764
11098SOL    HW243609   7.318   2.007   0.556  2.4206  1.9165  2.0623
11099SOL     OW43610   4.322  10.995   6.505 -0.3213  0.0356  0.4772
11099SOL    HW143611   4.283  11.081   6.519 -1.3722 -0.3069 -0.2740
11099SOL    HW243612   4.295  10.944   6.580  0.1128  0.2838  0.8083
11100SOL     OW43613   3.313   0.606   4.748  0.3537 -0.0284 -0.1713
11100SOL    HW143614   3.235   0.651   4.779  0.7639  0.0939  0.7316
11100SOL    HW243615   3.318   0.626   4.654 -1.3053 -0.9807 -0.4949
11101SOL     OW43616  12.938   1.082  11.852 -0.1915 -0.3319  0.7829
11101SOL    HW143617  12.902   1.171  11.861 -0.8217 -0.6750  2.0072
11101SOL    HW243618  12.999   1.087  11.779  0.0817  1.2128  1.0876
11102SOL     OW43619   7.314   1.261  10.863  0.5699  0.0166  0.4037
11102SOL    HW143620   7.313   1.211  10.781 -1.4571  0.1553  0.2913
11102SOL    HW243621   7.400   1.245  10.900  2.8163  2.2704 -3.1598
11103SOL     OW43622   5.037  11.739  11.895 -0.4568  0.9019 -0.0741
11103SOL    HW143623   4.943  11.754  11.883 -0.2103  2.0826 -0.6309
11103SOL    HW243624   5.058  11.783  11.977 -0.0985  1.9813 -0.7353
11104SOL     OW43625   0.599  10.716   2.226  0.2411 -0.7538 -0.5012
11104SOL    HW143626   0.611  10.802   2.185  0.0816 -1.0800 -1.2575
11104SOL    HW243627   0.579  10.736   2.318 -1.2536  0.1000 -0.9628
11105SOL     OW43628   8.899  10.133  11.718 -0.6386 -0.0600  0.1334
11105SOL    HW143629   8.812  10.151  11.752 -0.8843 -2.8325  1.2346
11105SOL    HW243630   8.923  10.212  11.669 -2.6656  1.8203  1.9443
11106SOL     OW43631   1.652   5.154   0.264 -0.2925 -0.0422  0.2801
11106SOL    HW143632   1.711   5.214   0.309  1.4977  0.0531 -1.9852
11106SOL    HW243633   1.677   5.067   0.295  0.9748  0.0144 -0.4943
11107SOL     OW43634   2.031   3.306   2.123 -0.7660  0.0368  0.2352
11107SOL    HW143635   2.035   3.373   2.190  1.9747 -0.1073  0.3066
11107SOL    HW243636   1.992   3.350   2.047 -0.2527  1.3415  0.7009
11108SOL     OW43637  12.664   6.211   8.469 -0.2094 -0.0335 -0.3558
11108SOL    HW143638  12.632   6.291   8.428 -0.5797 -0.0193 -0.0412
11108SOL    HW243639  12.677   6.234   8.561 -1.4357 -0.6408 -0.0076
11109SOL     OW43640   2.077   6.080   3.594 -0.1161 -0.1325 -0.5025
11109SOL    HW143641   2.130   6.114   3.522 -0.1397  0.6264 -0.1741
11109SOL    HW243642   2.006   6.143   3.604 -1.7292 -1.6838 -1.6415
11110SOL     OW43643  10.602   3.466   4.162 -0.2493  0.0494 -0.1029
11110SOL    HW143644  10.542   3.417   4.105 -0.3963 -0.7679  0.7278
11110SOL    HW243645  10.686   3.422   4.153  0.0615  0.7358 -0.6877
11111SOL     OW43646  12.735   1.154  11.134  0.0445 -0.6543 -0.6351
11111SOL    HW143647  12.816   1.170  11.086  0.1327 -1.2995 -0.7094
11111SOL    HW243648  12.725   1.059  11.133  1.2112 -0.9241  2.5011
11112SOL     OW43649   9.310   6.810   2.289 -0.4896  0.1776 -0.3204
11112SOL    HW143650   9.234   6.752   2.296 -0.4351  0.2504  1.2739
11112SOL    HW243651   9.274   6.898   2.299 -0.2011  0.2148  0.3960
11113SOL     OW43652   0.102  10.441  11.738  0.0620  0.1286 -0.0557
11113SOL    HW143653   0.080  10.534  11.728 -0.0106  0.1933  0.6329
11113SOL    HW243654   0.082  10.422  11.830 -1.7547 -1.0664 -0.6525
11114SOL     OW43655   3.925  10.280   4.932 -0.0867 -0.0884  0.0166
11114SOL    HW143656   3.862  10.298   4.863 -0.7938  0.9099  0.9012
11114SOL    HW243657   3.888  10.320   5.010  1.4361  0.1407  0.6546
11115SOL     OW43658   1.356   8.449   6.031 -0.2313 -0.5873  0.4947
11115SOL    HW143659   1.406   8.530   6.043 -1.3297  0.3888 -1.2469
11115SOL    HW243660   1.419   8.389   5.991 -0.4753  0.8216 -2.2488
11116SOL     OW43661  10.881   5.960   9.257  0.0361 -0.1277  0.4523
11116SOL    HW143662  10.880   5.976   9.163  0.3172  2.9426  0.8693
11116SOL    HW243663  10.795   5.988   9.287 -0.0170 -0.9862  1.1700
11117SOL     OW43664   2.828   6.032   0.039 -0.0112  0.0630  0.5539
11117SOL    HW143665   2.867   5.949   0.009 -1.4284 -0.8644  1.2017
11117SOL    HW243666   2.841   6.032   0.133  1.6959  1.5390  0.3857
11118SOL     OW43667  10.938   1.389  12.909 -0.2242 -0.1198  0.2719
11118SOL    HW143668  10.905   1.426  12.827 -0.9455  1.4999  1.2418
11118SOL    HW243669  11.029   1.419  12.914  0.6714 -2.3905 -1.1337
11119SOL     OW43670   5.723   9.653   4.659  0.0130 -0.1301  0.7999
11119SOL    HW143671   5.705   9.597   4.584  1.0261  0.4642  0.0803
11119SOL    HW243672   5.671   9.732   4.644  0.3046  0.0361  0.6618
11120SOL     OW43673   9.904   7.271   5.233  0.4193 -0.0713 -0.1411
11120SOL    HW143674   9.931   7.356   5.266 -1.5286  0.0093  1.4218
11120SOL    HW243675   9.867   7.290   5.146  0.9781  0.4984 -0.2609
11121SOL     OW43676   9.056   6.227   4.923  0.4086  0.0125 -0.7656
11121SOL    HW143677   9.119   6.264   4.984  1.3418 -1.1868 -0.9604
11121SOL    HW243678   9.054   6.134   4.944  0.1161 -0.2823 -1.9907
11122SOL     OW43679   4.253   1.871   7.804  0.8587  0.3785 -0.1729
11122SOL    HW143680   4.324   1.894   7.744  1.1332 -1.0443 -0.4286
11122SOL    HW243681   4.233   1.780   7.783  1.8859 -0.6293  2.7658
11123SOL     OW43682   4.342  11.626   9.616 -0.1514 -0.3995  0.3246
11123SOL    HW143683   4.413  11.621   9.679  0.2783 -0.1855 -0.1328
11123SOL    HW243684   4.355  11.550   9.559 -0.1130 -0.2031  0.0675
11124SOL     OW43685   8.657  11.770   7.342 -0.0792  0.3232 -0.0006
11124SOL    HW143686   8.637  11.690   7.294  1.6088 -0.6003  0.7505
11124SOL    HW243687   8.616  11.758   7.428 -1.6167  1.2268 -0.5566
11125SOL     OW43688   3.466   4.918  10.962  0.1756 -0.5856  0.0174
11125SOL    HW143689   3.524   4.923  11.039  0.6212 -1.3851 -0.2578
11125SOL    HW243690   3.526   4.925  10.887 -0.3489  1.1880 -0.2769
11126SOL     OW43691   6.713   3.156   4.558  0.4090  0.1701 -0.2212
11126SOL    HW143692   6.652   3.083   4.549  0.3156  0.3805 -1.4495
11126SOL    HW243693   6.744   3.150   4.649 -0.9948 -0.2802  0.2600
11127SOL     OW43694   9.141   3.031   4.766  0.4209 -1.0300  0.7277
11127SOL    HW143695   9.118   3.033   4.859 -2.3692 -3.2280  0.2419
11127SOL    HW243696   9.073   2.976   4.726  0.8019  0.8080 -2.8237
11128SOL     OW43697  12.763  12.741  12.525 -0.2392 -0.6171 -0.2965
11128SOL    HW143698  12.677  12.717  12.492 -0.3466 -0.7040  0.0333
11128SOL    HW243699  12.818  12.665  12.506 -0.3665 -0.7780 -0.0402
11129SOL     OW43700   2.339   8.525   6.931  0.1511 -0.2254 -0.0261
11129SOL    HW143701   2.315   8.551   7.020 -0.4992 -0.4741 -0.1171
11129SOL    HW243702   2.286   8.447   6.915  1.7039 -1.3287  0.0709
11130SOL     OW43703   8.774  12.894   8.963  0.2000 -0.4014  0.1888
11130SOL    HW143704   8.827  12.831   8.914 -1.3776  0.8883 -3.5549
11130SOL    HW243705   8.686  12.858   8.960 -0.1308  0.2805  1.1767
11131SOL     OW43706   7.883   7.056  12.542 -0.0440  1.1722  0.5065
11131SOL    HW143707   7.810   7.111  12.571  0.7519  1.7903  1.3818
11131SOL    HW243708   7.953   7.118  12.520  0.1367  0.6068 -0.6396
11132SOL     OW43709   3.846   0.487   6.704  0.3600  0.0241  0.1606
11132SOL    HW143710   3.859   0.511   6.613 -1.2414  0.0780 -0.0963
11132SOL    HW243711   3.890   0.403   6.714  2.0129  0.8198 -0.1798
11133SOL     OW43712   5.368   2.585   3.738 -0.4644 -0.0122  0.5602
11133SOL    HW143713   5.392   2.597   3.646 -1.5557  0.4940  0.3278
11133SOL    HW243714   5.410   2.502   3.763 -0.5708 -0.4104 -0.5407
11134SOL     OW43715   7.044   9.549  10.968  0.0526  0.5858  0.6388
11134SOL    HW143716   7.123   9.497  10.984 -0.2007  0.2494  0.8019
11134SOL    HW243717   6.972   9.486  10.972 -0.1300  0.6741 -0.7084
11135SOL     OW43718  12.260   2.810   8.762 -0.5330  0.4369  0.2106
11135SOL    HW143719  12.208   2.807   8.681 -1.2132  0.7445  0.6210
11135SOL    HW243720  12.303   2.724   8.766 -2.6864 -0.6911  0.9132
11136SOL     OW43721   3.073  11.668   3.861  0.7153  0.0592  0.2329
11136SOL    HW143722   2.996  11.612   3.873  0.3778  0.0139 -1.7543
11136SOL    HW243723   3.054  11.718   3.782  1.0830  2.9278  1.8127
11137SOL     OW43724   9.037   5.932   1.287  0.8961 -0.4033 -0.1620
11137SOL    HW143725   8.942   5.930   1.295  0.9071  2.0933  2.6615
11137SOL    HW243726   9.064   5.841   1.290 -1.3780 -1.1312 -0.0565
11138SOL     OW43727   4.172   5.597   2.999 -0.1064 -0.3109  0.4554
11138SOL    HW143728   4.264   5.616   2.983  0.2248 -1.8915  0.4121
11138SOL    HW243729   4.166   5.577   3.092  0.2434 -3.4800 -0.1116
11139SOL     OW43730   1.861  12.630   5.116 -0.8229  0.5768 -0.3848
11139SOL    HW143731   1.854  12.677   5.033 -1.4556  1.9673  0.4203
11139SOL    HW243732   1.784  12.573   5.119  0.4660 -1.3790 -1.8257
11140SOL     OW43733   4.355  10.640   0.123 -0.0603 -0.2941 -0.7088
11140SOL    HW143734   4.392  10.695   0.054 -0.7764 -0.8218 -1.5323
11140SOL    HW243735   4.311  10.569   0.076 -2.1931  0.3398  0.2112
11141SOL     OW43736   4.792   7.644   2.275  0.3517  0.0082  0.4862
11141SOL    HW143737   4.846   7.598   2.339 -1.2661  0.7542  2.4888
11141SOL    HW243738   4.795   7.736   2.303 -1.3642  0.1736  0.2438
11142SOL     OW43739   0.243   2.568   2.840 -0.0174 -0.2839 -0.1978
11142SOL    HW143740   0.299   2.580   2.764 -0.9417  1.2139 -0.6929
11142SOL    HW243741   0.234   2.656   2.877 -0.9783 -0.7045  0.6217
11143SOL     OW43742   5.764   9.065   7.703 -0.4021 -0.0270  0.4930
11143SOL    HW143743   5.839   9.058   7.761 -0.2499  1.0660  0.4555
11143SOL    HW243744   5.801   9.092   7.619 -0.7561 -0.3077  0.2406
11144SOL     OW43745  11.391   5.425   9.567 -0.0663  0.0818  0.0675
11144SOL    HW143746  11.452   5.433   9.494  0.6726 -0.0511  0.6553
11144SOL    HW243747  11.354   5.513   9.577  0.5667  0.3454  0.1518
11145SOL     OW43748   8.214   3.996   5.461  0.4129 -0.3212  0.2260
11145SOL    HW143749   8.177   3.955   5.540  1.1723  0.1931  0.8668
11145SOL    HW243750   8.299   4.031   5.490  0.6989 -0.1201 -0.8244
11146SOL     OW43751   9.983  12.326   5.675  0.7262 -0.2044  0.4992
11146SOL    HW143752  10.012  12.417   5.679  0.0963  0.2731 -2.8083
11146SOL    HW243753  10.064  12.275   5.663  0.8492  0.4986 -2.4262
11147SOL     OW43754   6.919   1.447   0.836  0.1472  0.0344 -0.4165
11147SOL    HW143755   6.872   1.413   0.912  1.0647  2.3553  1.3315
11147SOL    HW243756   6.969   1.373   0.803 -1.9366 -1.5776 -0.1446
11148SOL     OW43757   0.273   8.894   2.302 -0.6048 -0.5212 -0.3104
11148SOL    HW143758   0.192   8.844   2.314 -2.0537  1.4396 -1.2727
11148SOL    HW243759   0.246   8.971   2.251  1.7343  0.6020  0.0210
11149SOL     OW43760   2.973   0.524   4.799  0.1839 -0.3934  0.2585
11149SOL    HW143761   2.917   0.484   4.866  0.5536 -0.6839  0.3981
11149SOL    HW243762   3.001   0.607   4.838 -2.2295  1.0493 -0.8211
11150SOL     OW43763   3.260   4.881   0.759 -1.1333  0.9733 -0.3375
11150SOL    HW143764   3.350   4.894   0.791 -1.1115  0.7805 -0.3178
11150SOL    HW243765   3.255   4.787   0.739 -1.5726  0.8226  0.4268
11151SOL     OW43766   0.829   5.333   4.220  0.0479  0.3299  0.7455
11151SOL    HW143767   0.897   5.297   4.164 -0.0870  0.6957  0.3441
11151SOL    HW243768   0.837   5.428   4.210 -0.8679  0.3690  0.2625
11152SOL     OW43769  12.368   0.347   2.923 -0.2616 -0.0518  0.7053
11152SOL    HW143770  12.454   0.386   2.910 -0.2199 -0.4747 -0.3914
11152SOL    HW243771  12.362   0.278   2.857 -1.7066  0.4076  0.3082
11153SOL     OW43772  10.991  11.504   8.839  0.0970  0.2032 -0.3463
11153SOL    HW143773  11.001  11.412   8.863  0.3009  0.0794 -0.9014
11153SOL    HW243774  11.080  11.539   8.839  0.1273  0.1362 -1.1731
11154SOL     OW43775  12.640   5.039  10.250  0.0545 -0.0265 -0.1886
11154SOL    HW143776  12.580   4.966  10.262 -0.9140  0.7293 -0.3296
11154SOL    HW243777  12.678   5.025  10.164 -1.3023  0.4453 -0.8909
11155SOL     OW43778  11.027   3.032  10.347  0.4064 -0.4766  0.2767
11155SOL    HW143779  11.000   2.942  10.368  1.4713 -0.9582 -0.3146
11155SOL    HW243780  10.946   3.077  10.325 -0.0371 -1.5662 -0.3831
11156SOL     OW43781  12.027   1.809   6.801  0.0099 -0.1956 -0.4611
11156SOL    HW143782  11.973   1.741   6.760 -0.1063 -0.5116  0.2036
11156SOL    HW243783  12.005   1.804   6.894  1.1072 -0.2604 -0.1916
11157SOL     OW43784   4.255   6.994   5.228 -0.6187  0.3136 -0.1912
11157SOL    HW143785   4.228   7.078   5.264  0.6188  0.6577 -0.0384
11157SOL    HW243786   4.257   7.007   5.133 -1.4863  0.1206 -0.2474
11158SOL     OW43787   6.713  12.809   6.841  0.0382  0.4907  0.4183
11158SOL    HW143788   6.690  12.854   6.759 -0.2781  0.4262  0.4675
11158SOL    HW243789   6.630  12.770   6.871  0.3033 -0.1085  0.3879
11159SOL     OW43790  12.841   4.912  10.700 -0.0246 -0.2641  0.1691
11159SOL    HW143791  12.858   5.004  10.683  1.6817 -0.4430  0.7387
11159SOL    HW243792  12.757   4.911  10.746 -0.1809  0.9727 -0.0552
11160SOL     OW43793  10.442   0.973   1.077  0.2919  0.4867 -0.7873
11160SOL    HW143794  10.348   0.992   1.070 -0.1081 -0.8548  0.5072
11160SOL    HW243795  10.484   1.059   1.069 -1.1810  1.3963  0.7222
11161SOL     OW43796  10.580   4.280   6.334 -0.3961 -0.1361 -0.1551
11161SOL    HW143797  10.626   4.332   6.400 -0.5267  0.1232 -0.2664
11161SOL    HW243798  10.606   4.190   6.351  0.8464  0.0909 -0.7689
11162SOL     OW43799   7.681   3.203   8.439 -0.6186  0.6322  0.3144
11162SOL    HW143800   7.588   3.204   8.462 -0.3461 -2.0732  1.9321
11162SOL    HW243801   7.721   3.147   8.505  1.7997 -0.1465 -1.6836
11163SOL     OW43802   0.035   0.556   9.254 -0.4478 -0.5837 -0.3294
11163SOL    HW143803   0.038   0.460   9.249 -1.9266 -0.7775  1.4108
11163SOL    HW243804   0.033   0.584   9.163  0.5551 -2.1578 -0.8898
11164SOL     OW43805   6.679   3.236   4.252  0.0609 -0.8847  0.3613
11164SOL    HW143806   6.675   3.289   4.332 -1.4092 -1.7863  0.9334
11164SOL    HW243807   6.720   3.293   4.187  0.6279  0.1250  1.5543
11165SOL     OW43808   2.061   6.038   5.897  0.1002 -0.2466 -1.1629
11165SOL    HW143809   2.105   5.967   5.849 -0.6120 -2.0661  0.7276
11165SOL    HW243810   2.124   6.064   5.964 -1.1088 -2.0167  0.7705
11166SOL     OW43811   6.585   7.287   5.477 -0.6857 -0.6024 -1.0263
11166SOL    HW143812   6.615   7.199   5.496 -0.3413 -0.3541 -0.3859
11166SOL    HW243813   6.579   7.330   5.562 -1.2693 -0.1353 -1.2880
11167SOL     OW43814   4.599   0.374   0.934  0.2638  0.0337  0.0247
11167SOL    HW143815   4.567   0.461   0.907 -0.9335 -0.1738  0.6896
11167SOL    HW243816   4.535   0.313   0.897 -0.2051 -0.4020  1.4784
11168SOL     OW43817   3.723   3.261   8.469  0.2555 -0.2738  0.1787
11168SOL    HW143818   3.788   3.300   8.410  0.1480 -0.1589  0.1350
11168SOL    HW243819   3.692   3.334   8.522 -1.1730  0.0602 -1.0266
11169SOL     OW43820   2.064  11.727   6.445  0.0981 -0.1351  0.1434
11169SOL    HW143821   2.038  11.815   6.472  1.7932  0.2263  0.7197
11169SOL    HW243822   2.154  11.738   6.413  1.0537 -1.9595  2.0183
11170SOL     OW43823   9.467   0.855   7.000  0.6101 -0.3945 -0.2492
11170SOL    HW143824   9.449   0.822   7.088 -0.4563  2.8112  0.8686
11170SOL    HW243825   9.404   0.810   6.944 -0.8204 -0.2698  1.1905
11171SOL     OW43826   2.308   7.948   2.124  0.5676 -0.1027 -0.1353
11171SOL    HW143827   2.397   7.923   2.151  1.2229  0.7577 -1.4108
11171SOL    HW243828   2.288   7.890   2.051  0.8792  0.9604 -1.1056
11172SOL     OW43829   3.786   2.961   4.997 -0.5392 -0.1046 -0.3769
11172SOL    HW143830   3.840   2.882   5.000 -1.5134 -0.8177 -0.9815
11172SOL    HW243831   3.739   2.961   5.080  0.0314  0.2747 -0.0433
11173SOL     OW43832   5.445   7.933   8.373  0.3091  0.2169 -0.6151
11173SOL    HW143833   5.475   7.864   8.315  0.8133  2.6297 -3.4705
11173SOL    HW243834   5.523   7.963   8.419  0.7565  1.0101 -1.8494
11174SOL     OW43835   2.810   2.722   0.122  0.0032  0.0662 -0.1216
11174SOL    HW143836   2.866   2.711   0.046  0.9455 -0.7361  0.6633
11174SOL    HW243837   2.870   2.717   0.197 -1.2736 -2.6023  0.8554
11175SOL     OW43838   8.717  12.199   8.726 -0.5115  0.3526  0.1988
11175SOL    HW143839   8.804  12.198   8.687 -0.3090  1.5577  0.5967
11175SOL    HW243840   8.714  12.279   8.778 -1.0473 -0.8086  2.0496
11176SOL     OW43841  10.000  11.737  10.388 -0.6323  0.2354 -0.0507
11176SOL    HW143842   9.923  11.690  10.419 -0.5888 -1.2221 -1.9904
11176SOL    HW243843   9.976  11.830  10.397 -2.8842 -0.1715 -1.1810
11177SOL     OW43844   7.505  11.085   5.859 -0.0764 -0.1298 -0.3789
11177SOL    HW143845   7.593  11.122   5.854 -0.0995  0.8034  3.1172
11177SOL    HW243846   7.451  11.157   5.891 -1.6465 -1.2976 -0.2941
11178SOL     OW43847   1.385  11.090  12.211  0.1187 -0.1857  0.0163
11178SOL    HW143848   1.371  11.185  12.212 -0.1956 -0.2002 -1.3010
11178SOL    HW243849   1.327  11.058  12.142  0.6672 -1.2628  0.0366
11179SOL     OW43850   4.751   2.091   5.019 -0.0201 -0.2112  0.2890
11179SOL    HW143851   4.832   2.044   5.038  0.5357  0.1077 -1.1385
11179SOL    HW243852   4.776   2.183   5.023 -0.7173 -0.0601  1.4677
11180SOL     OW43853   0.262   6.769   5.206  0.1997  0.2101  0.6193
11180SOL    HW143854   0.253   6.768   5.302 -0.1344  1.4026  0.6132
11180SOL    HW243855   0.314   6.847   5.188  0.1728  0.0427 -0.1874
11181SOL     OW43856   4.125   7.634  11.540 -0.7060  0.4131  0.1754
11181SOL    HW143857   4.090   7.551  11.507 -1.8195  0.5401  0.9968
11181SOL    HW243858   4.170   7.611  11.622 -1.8300  0.7328  0.9049
11182SOL     OW43859   8.811   5.404   3.580  0.2307  0.7335 -0.3481
11182SOL    HW143860   8.845   5.490   3.606 -0.0170  0.7353 -0.0283
11182SOL    HW243861   8.881   5.343   3.600  0.3230  0.8313 -0.3702
11183SOL     OW43862   8.543   1.999   7.483 -0.2143  0.3817  0.3332
11183SOL    HW143863   8.461   1.952   7.467  0.0867  0.8551 -3.6294
11183SOL    HW243864   8.521   2.090   7.463  0.7735  0.8930  1.5054
11184SOL     OW43865   6.963  11.216   2.315 -0.4974 -0.0758  0.3714
11184SOL    HW143866   6.905  11.204   2.240 -0.7080 -1.9051  0.7659
11184SOL    HW243867   7.043  11.253   2.277 -0.9198 -0.1235 -0.6160
11185SOL     OW43868   8.267   5.646   3.380 -0.1028  0.0354  0.7860
11185SOL    HW143869   8.241   5.590   3.307 -1.7444  1.3209  0.3039
11185SOL    HW243870   8.336   5.702   3.344 -0.1107 -0.1029  0.5529
11186SOL     OW43871   3.765  12.365   5.629 -0.2296  0.0019 -0.3389
11186SOL    HW143872   3.740  12.430   5.564 -1.5106  0.4966  0.6115
11186SOL    HW243873   3.685  12.314   5.644 -0.6608  1.2537  2.3545
11187SOL     OW43874   2.593   0.826   5.674  0.1262 -0.6064 -0.5237
11187SOL    HW143875   2.608   0.757   5.738  0.1008 -0.2767 -0.1627
11187SOL    HW243876   2.534   0.887   5.717 -2.0471 -1.6883 -1.7841
11188SOL     OW43877   2.114   7.419   8.389 -0.1499 -0.1441 -0.1763
11188SOL    HW143878   2.200   7.405   8.430 -1.1037 -0.4964  1.8065
11188SOL    HW243879   2.109   7.350   8.322  0.4227 -1.2237  0.8470
11189SOL     OW43880   1.774   2.813   8.869  0.1527 -0.2468  0.1840
11189SOL    HW143881   1.843   2.866   8.908 -0.6697 -0.0011  1.3492
11189SOL    HW243882   1.702   2.874   8.853  0.1286 -0.5262 -0.8737
11190SOL     OW43883   0.930  10.997   5.824 -0.1338 -0.1113 -0.2607
11190SOL    HW143884   0.913  11.084   5.789 -0.0518 -0.2316 -0.6018
11190SOL    HW243885   0.926  11.008   5.919 -0.6390  0.1598 -0.3077
11191SOL     OW43886  12.889  12.071  10.114  0.5707  0.4850  0.2529
11191SOL    HW143887  12.926  12.118  10.189 -1.0005  2.0171  0.1376
11191SOL    HW243888  12.845  11.995  10.153 -0.2545  1.2781  0.9240
11192SOL     OW43889   0.613   1.549   5.757  0.1429 -0.4132 -0.0580
11192SOL    HW143890   0.606   1.471   5.812  0.8288  0.2992  1.0756
11192SOL    HW243891   0.538   1.543   5.697 -1.4047 -0.5617  1.8107
11193SOL     OW43892  12.318   7.059   3.460  0.2269 -0.0102  0.2552
11193SOL    HW143893  12.228   7.036   3.437  0.4752 -0.4042 -0.3434
11193SOL    HW243894  12.369   7.038   3.382  1.0569 -1.1484  1.0812
11194SOL     OW43895   2.918   7.805   0.904  0.1190 -0.7731 -0.7284
11194SOL    HW143896   2.845   7.743   0.905 -1.6271  0.9123 -4.3091
11194SOL    HW243897   2.983   7.763   0.847 -0.8058  0.2340 -2.6429
11195SOL     OW43898   3.291   2.724   5.284  0.2786  0.1201 -0.0781
11195SOL    HW143899   3.237   2.654   5.246 -0.6853 -0.3643  2.0094
11195SOL    HW243900   3.260   2.804   5.242  1.7409 -0.6772 -2.8870
11196SOL     OW43901  11.487   0.818   5.198  0.3663  0.7879  0.5378
11196SOL    HW143902  11.401   0.845   5.165 -0.0897  0.0135  1.0611
11196SOL    HW243903  11.468   0.751   5.264  1.4611 -0.9004 -0.7836
11197SOL     OW43904  11.459   9.023  10.454  0.1289 -0.4959 -0.3954
11197SOL    HW143905  11.381   8.991  10.409 -1.8482  1.5311  1.2913
11197SOL    HW243906  11.517   9.053  10.384 -1.6500  0.1145 -1.6808
11198SOL     OW43907   6.301   3.693   6.560 -0.0338  0.3304 -0.3045
11198SOL    HW143908   6.306   3.633   6.486  3.2512 -0.1912  0.1869
11198SOL    HW243909   6.286   3.636   6.636  2.2839  0.0892  0.0562
11199SOL     OW43910   0.949   2.565   9.309 -0.5448  0.1837 -0.3101
11199SOL    HW143911   0.862   2.604   9.319 -0.4638 -0.1030  2.0688
11199SOL    HW243912   1.010   2.636   9.331 -0.2893 -0.3207  0.6536
11200SOL     OW43913   1.753   3.838  12.738  0.0135  0.0646  0.4009
11200SOL    HW143914   1.715   3.797  12.815  0.3076 -1.1289 -0.0491
11200SOL    HW243915   1.777   3.764  12.681  0.7675  0.8648 -0.3697
11201SOL     OW43916  12.184   5.953   4.767 -0.0925  0.2636 -0.2316
11201SOL    HW143917  12.151   5.965   4.678 -2.2228  0.2275  0.4986
11201SOL    HW243918  12.117   5.991   4.823 -0.6655 -2.9825  1.5489
11202SOL     OW43919   4.014   2.694  11.160 -0.2152 -0.8676 -0.7497
11202SOL    HW143920   4.049   2.605  11.163  0.4345 -0.6836 -1.9301
11202SOL    HW243921   4.067   2.743  11.222  0.3859 -0.9989 -1.1557
11203SOL     OW43922   7.360   2.842   4.888 -0.2663 -0.1197 -0.0261
11203SOL    HW143923   7.398   2.914   4.838 -0.6472  0.6991  0.8355
11203SOL    HW243924   7.422   2.770   4.877  1.1799  0.9555  0.7440
11204SOL     OW43925   0.302   9.817   4.708  0.5423 -0.2305 -0.4017
11204SOL    HW143926   0.256   9.836   4.790  0.3997  0.5158 -0.6449
11204SOL    HW243927   0.288   9.723   4.694  0.1103 -0.2539  0.1480
11205SOL     OW43928   8.233   8.915   6.275 -0.1332  0.3015  0.5982
11205SOL    HW143929   8.192   8.896   6.190 -1.0112 -2.4469  1.5389
11205SOL    HW243930   8.186   8.991   6.308  0.2077  1.4212 -1.3263
11206SOL     OW43931   2.976   3.349  12.236  0.1429 -0.3168 -0.1006
11206SOL    HW143932   3.031   3.332  12.313  1.8636  0.3027 -1.1321
11206SOL    HW243933   3.016   3.297  12.166  0.1709  1.0630 -1.1674
11207SOL     OW43934   0.364   4.814   5.009  0.1982 -0.4640  0.0060
11207SOL    HW143935   0.413   4.819   4.927  0.5171  0.2861  0.2319
11207SOL    HW243936   0.280   4.776   4.984  0.2318 -0.1013 -0.7031
11208SOL     OW43937   3.840   5.081  10.286  0.2316  0.1632 -0.3178
11208SOL    HW143938   3.787   5.018  10.236 -0.2775  0.9966 -0.8504
11208SOL    HW243939   3.854   5.154  10.226  0.4662  0.7441  0.4279
11209SOL     OW43940   5.776  10.593   3.213  0.0968  0.2911  0.0834
11209SOL    HW143941   5.706  10.538   3.250  1.3853 -0.9426  0.7693
11209SOL    HW243942   5.744  10.616   3.126 -1.1532 -0.2608  0.3617
11210SOL     OW43943   0.972   1.477   9.054 -0.0130 -0.5366 -0.3169
11210SOL    HW143944   0.943   1.444   9.139 -0.6080 -0.2456 -0.4057
11210SOL    HW243945   0.919   1.554   9.038  0.6129 -0.1588 -0.6191
11211SOL     OW43946   1.807  12.043   4.846  0.4182  0.0345 -0.3770
11211SOL    HW143947   1.886  12.004   4.883  0.2068  0.7207  0.8524
11211SOL    HW243948   1.838  12.113   4.790  0.6877  0.8691  0.7766
11212SOL     OW43949   7.212   8.604   7.000  0.5534  1.0917 -0.4207
11212SOL    HW143950   7.180   8.570   7.084 -2.5851  0.1529 -1.8511
11212SOL    HW243951   7.247   8.690   7.021 -0.3682  1.0000  1.8166
11213SOL     OW43952  12.957   1.956   5.349  0.4782 -0.6397 -0.8737
11213SOL    HW143953  12.980   1.863   5.350 -0.5260 -0.9626  2.1064
11213SOL    HW243954  12.864   1.958   5.369  0.7043  1.0431  0.1433
11214SOL     OW43955  11.556   3.193   1.580  0.2407 -0.7145 -0.3907
11214SOL    HW143956  11.615   3.197   1.655  0.6827  0.2394 -0.7754
11214SOL    HW243957  11.607   3.227   1.507 -0.9455  0.6836 -0.6178
11215SOL     OW43958   8.162   4.706   0.232  0.0912  0.3568 -0.0076
11215SOL    HW143959   8.142   4.621   0.269 -1.8404  1.1602  0.9209
11215SOL    HW243960   8.193   4.687   0.143  0.5346 -1.3313  0.4820
11216SOL     OW43961   7.939   0.939  12.742  0.8904 -0.2104  0.3547
11216SOL    HW143962   7.874   0.919  12.675  1.0815 -2.0816  0.6799
11216SOL    HW243963   7.912   0.889  12.819  1.6222  0.5408  1.1245
11217SOL     OW43964   2.030  12.324  10.350  0.2047 -0.9941 -0.5080
11217SOL    HW143965   2.011  12.283  10.266  2.0689  1.0196 -2.0579
11217SOL    HW243966   1.980  12.406  10.349 -0.8785 -1.5851  1.0422
11218SOL     OW43967   0.246   8.296   6.079  0.2126  0.5268 -0.4830
11218SOL    HW143968   0.281   8.302   5.990 -0.2827  1.4763 -0.6304
11218SOL    HW243969   0.310   8.244   6.127  0.4706 -0.0169 -1.4037
11219SOL     OW43970   2.223  10.461   3.375  0.5134 -0.1715 -0.7160
11219SOL    HW143971   2.156  10.403   3.412  0.4066 -0.2230 -0.9870
11219SOL    HW243972   2.224  10.440   3.282  0.6958  0.0428 -0.7636
11220SOL     OW43973   2.156   7.799  12.616 -0.5086 -0.5597 -0.2746
11220SOL    HW143974   2.213   7.773  12.688 -1.6500  0.7082  1.1507
11220SOL    HW243975   2.190   7.752  12.540  1.9905 -0.3803  0.6558
11221SOL     OW43976   5.390   1.246   1.256  0.1285 -0.0169  0.0314
11221SOL    HW143977   5.323   1.255   1.325  0.3937 -1.0756  0.4418
11221SOL    HW243978   5.367   1.314   1.193 -2.1198 -1.1305 -0.4780
11222SOL     OW43979   3.267   3.473   0.166  0.5336  0.1089 -0.4151
11222SOL    HW143980   3.306   3.497   0.250 -2.2163 -0.2019  1.0822
11222SOL    HW243981   3.216   3.394   0.185 -2.3021  1.5026 -1.6671
11223SOL     OW43982  12.328   3.839  11.769 -0.2770 -0.2742  0.3767
11223SOL    HW143983  12.314   3.905  11.837 -1.2232  1.7955 -1.6938
11223SOL    HW243984  12.246   3.791  11.765 -1.5374  1.8656 -1.5067
11224SOL     OW43985   7.776  12.903   1.584 -0.7911  0.4797 -0.5380
11224SOL    HW143986   7.863  12.926   1.552 -1.2170  3.1852 -0.0497
11224SOL    HW243987   7.726  12.885   1.504  0.5060 -2.8430 -0.7678
11225SOL     OW43988   3.922  10.497  12.606  0.2566 -0.3027 -0.3530
11225SOL    HW143989   3.903  10.467  12.696 -0.5413  0.4413 -0.2590
11225SOL    HW243990   3.844  10.546  12.581  0.9337  0.4281 -1.0518
11226SOL     OW43991   0.207   9.706   7.537  0.3491  0.2815  0.1582
11226SOL    HW143992   0.145   9.658   7.482  0.7909 -0.5319  0.3578
11226SOL    HW243993   0.289   9.657   7.528  0.1389 -0.6248  2.5181
11227SOL     OW43994  12.223  11.236   0.274  0.5188  0.4826 -0.3719
11227SOL    HW143995  12.146  11.215   0.326 -0.9591 -0.7403 -2.8938
11227SOL    HW243996  12.216  11.330   0.256  1.1958  0.9858  1.7284
11228SOL     OW43997   9.359  10.995   5.434 -0.4133  0.0986  0.1562
11228SOL    HW143998   9.308  10.914   5.428 -1.7078  0.9173 -0.4342
11228SOL    HW243999   9.407  10.988   5.516  0.5070 -1.8218 -0.4986
11229SOL     OW44000   2.205   4.292   0.967 -0.6114  0.0792 -0.0131
11229SOL    HW144001   2.146   4.354   1.008  0.4722  0.9667  0.2667
11229SOL    HW244002   2.288   4.302   1.014 -0.0621 -0.7140 -0.7558
11230SOL     OW44003   6.148   2.945   7.814  0.2000  0.1579  0.0320
11230SOL    HW144004   6.167   2.962   7.722  1.3719  0.7530  0.3637
11230SOL    HW244005   6.139   3.032   7.853  0.9512 -0.0616  0.7168
11231SOL     OW44006   3.319   3.921   9.509  0.2411  0.0904  0.3084
11231SOL    HW144007   3.287   4.008   9.536 -1.3751  0.1701 -1.6499
11231SOL    HW244008   3.394   3.905   9.566  1.6000  3.4609 -0.3076
11232SOL     OW44009   3.446   8.052   3.196 -0.4968  0.2806 -0.2349
11232SOL    HW144010   3.541   8.060   3.192 -0.5392  2.1229  1.3822
11232SOL    HW244011   3.431   7.981   3.258 -0.1767  0.5048  0.1021
11233SOL     OW44012   3.932   0.047   7.758  0.1382  0.2120 -0.5666
11233SOL    HW144013   3.904   0.136   7.778 -2.6746 -0.3196 -1.6936
11233SOL    HW244014   3.932   0.043   7.662 -0.5530 -1.1773 -0.5342
11234SOL     OW44015   0.609  12.128   1.512  0.1627 -0.4574  0.8192
11234SOL    HW144016   0.521  12.165   1.516  0.3727  0.0399  0.9903
11234SOL    HW244017   0.596  12.037   1.485 -0.3267 -0.0405 -0.4260
11235SOL     OW44018   5.428   4.265   7.952 -0.7530 -0.0610 -0.1139
11235SOL    HW144019   5.500   4.224   8.000 -1.0125  0.3718  0.6697
11235SOL    HW244020   5.372   4.301   8.021 -0.5598  1.5772 -0.7860
11236SOL     OW44021   1.581  12.033  11.780 -0.4660  1.0841 -0.3459
11236SOL    HW144022   1.559  12.018  11.872 -1.8494  1.2935 -0.6191
11236SOL    HW244023   1.496  12.037  11.736  0.2026 -0.4320 -1.8652
11237SOL     OW44024  11.947   8.424  11.411  0.1872  0.0808  0.5860
11237SOL    HW144025  11.977   8.515  11.420 -1.1236  0.4491  1.5640
11237SOL    HW244026  11.961   8.385  11.497 -0.1580 -0.3525  0.4536
11238SOL     OW44027   1.417   7.180   6.552  0.3170  0.3949  0.8402
11238SOL    HW144028   1.479   7.125   6.600 -1.0893  0.7095  3.1944
11238SOL    HW244029   1.339   7.125   6.542  0.3543  0.5670 -0.5822
11239SOL     OW44030   8.174   0.914   9.602 -0.6540 -0.2445  0.2956
11239SOL    HW144031   8.102   0.946   9.657 -1.7849 -1.5457 -0.3752
11239SOL    HW244032   8.134   0.898   9.517  0.6326 -0.1816 -0.3426
11240SOL     OW44033  10.886   6.670   8.712 -0.1676  0.3544 -0.5768
11240SOL    HW144034  10.905   6.584   8.673  0.5764  0.8201 -1.2849
11240SOL    HW244035  10.967   6.719   8.701 -0.7558  1.3313 -0.6692
11241SOL     OW44036  12.283   7.127  11.265 -0.1233  0.1931  0.4176
11241SOL    HW144037  12.259   7.041  11.232  2.0736  0.0342 -1.0217
11241SOL    HW244038  12.259   7.188  11.195  1.3190  0.3003 -0.0250
11242SOL     OW44039  10.599  11.753  10.055  0.2535  0.0216 -0.3948
11242SOL    HW144040  10.649  11.685  10.101 -2.3534 -2.4258 -0.9102
11242SOL    HW244041  10.508  11.727  10.064 -0.7826  2.6838 -1.9481
11243SOL     OW44042   5.949  11.608   0.606 -0.4340  0.6795 -0.0391
11243SOL    HW144043   5.972  11.537   0.666  0.8139  1.5985  0.6188
11243SOL    HW244044   5.898  11.565   0.537  0.4999 -0.9052  0.1949
11244SOL     OW44045  10.913   7.919   5.611 -0.0939 -0.3289 -0.4375
11244SOL    HW144046  10.980   7.870   5.659 -1.6518  0.0636  2.3440
11244SOL    HW244047  10.836   7.862   5.614 -0.7461  0.5144 -0.8922
11245SOL     OW44048   7.683   4.476   1.081  0.1134 -0.1146 -0.1113
11245SOL    HW144049   7.682   4.566   1.047 -2.1852  0.5199  1.3860
11245SOL    HW244050   7.590   4.452   1.087  0.5183 -1.3336  2.6744
11246SOL     OW44051   1.233   8.257   6.183  0.3257 -0.2825 -0.3513
11246SOL    HW144052   1.289   8.183   6.159  2.4477  0.6990  1.1949
11246SOL    HW244053   1.261   8.328   6.126 -0.8472 -0.3178 -0.9931
11247SOL     OW44054  12.156  11.425   7.775 -0.0269  0.0106 -0.0485
11247SOL    HW144055  12.100  11.495   7.809  0.1871  0.2623 -0.2127
11247SOL    HW244056  12.098  11.374   7.719 -0.2201 -0.0297  0.1835
11248SOL     OW44057  10.742   4.677   1.706  0.4234  0.4845  0.7253
11248SOL    HW144058  10.802   4.706   1.637 -0.9289  1.9032  0.0742
11248SOL    HW244059  10.725   4.585   1.686 -0.3811  1.0064 -1.2429
11249SOL     OW44060  10.078   8.382  10.980 -0.0218 -0.0895  0.1203
11249SOL    HW144061  10.154   8.348  10.934  0.3773  1.2807 -0.2707
11249SOL    HW244062  10.005   8.328  10.948  0.4877 -0.1885 -0.9159
11250SOL     OW44063   3.563   3.473   4.339 -0.1267  0.5292  0.1782
11250SOL    HW144064   3.567   3.382   4.368  2.4196  0.3261 -0.5735
11250SOL    HW244065   3.568   3.524   4.420 -0.2208 -0.0058  0.5257
11251SOL     OW44066  12.101   7.191   0.349  0.2596  0.3686 -0.0299
11251SOL    HW144067  12.040   7.264   0.361 -0.1492  0.0054  0.1141
11251SOL    HW244068  12.186   7.226   0.375  0.2091  1.0434 -0.7459
11252SOL     OW44069   5.999   8.692   7.928 -0.0246  0.5488  0.0277
11252SOL    HW144070   6.027   8.728   8.012 -0.7119  1.7494 -0.2277
11252SOL    HW244071   5.922   8.639   7.948  0.9397 -0.7410  0.3989
11253SOL     OW44072   3.519   8.329   5.618  0.2306 -0.1083 -0.1413
11253SOL    HW144073   3.492   8.237   5.623  0.9782 -0.3779 -0.7145
11253SOL    HW244074   3.587   8.337   5.685 -0.6869  0.3599  0.7576
11254SOL     OW44075   3.302   0.759   5.936  0.1109 -0.2841  0.2004
11254SOL    HW144076   3.272   0.783   5.849 -2.5832  0.3770  1.2148
11254SOL    HW244077   3.255   0.678   5.957 -1.4159  0.9604  1.9773
11255SOL     OW44078  11.260   0.668   1.168  0.9328 -0.0627 -0.0609
11255SOL    HW144079  11.351   0.641   1.150  0.1691 -0.7094 -4.0817
11255SOL    HW244080  11.210   0.586   1.166 -0.1748  0.5789 -2.3081
11256SOL     OW44081   6.344   2.475   8.198 -0.7601 -0.3610  0.0175
11256SOL    HW144082   6.399   2.399   8.211  2.5535  1.5240 -1.7143
11256SOL    HW244083   6.264   2.456   8.248  0.7433 -3.9544  1.3688
11257SOL     OW44084   5.738  11.133   5.884  0.3602 -0.5473  0.3082
11257SOL    HW144085   5.832  11.140   5.864  0.6663 -2.0673  1.1009
11257SOL    HW244086   5.730  11.165   5.974 -0.4666  2.7899 -0.7697
11258SOL     OW44087   3.871   2.286   5.891 -0.2129 -0.5621  0.1868
11258SOL    HW144088   3.893   2.253   5.979  0.5281  0.0563  0.2442
11258SOL    HW244089   3.804   2.225   5.859  0.9270 -1.9853  0.3882
11259SOL     OW44090   7.493   9.938   9.256 -0.1234  0.0862  0.1839
11259SOL    HW144091   7.552   9.995   9.305 -0.7280  0.1555  0.8593
11259SOL    HW244092   7.494   9.855   9.304 -0.4185  0.0250  0.0887
11260SOL     OW44093   4.990   8.490  12.359 -0.8553 -0.1939 -0.3300
11260SOL    HW144094   4.933   8.414  12.357  0.1246 -0.9510 -0.8613
11260SOL    HW244095   4.944   8.556  12.307 -1.5087 -0.5828 -0.2520
11261SOL     OW44096  12.141  11.130  12.958 -0.0425  0.0450  0.1708
11261SOL    HW144097  12.191  11.074  13.017  3.4706  2.6536 -0.0104
11261SOL    HW244098  12.143  11.085  12.874  1.4420 -0.2881  0.3632
11262SOL     OW44099   4.115   6.885   5.926 -0.2289 -0.2310 -0.0717
11262SOL    HW144100   4.093   6.871   6.018  0.1699  0.2922  0.1061
11262SOL    HW244101   4.062   6.960   5.899  0.1160  0.0061 -0.0950
11263SOL     OW44102   9.798   8.144  12.540  0.1780  0.5688 -0.6857
11263SOL    HW144103   9.873   8.199  12.563 -0.4192  1.1540 -0.0723
11263SOL    HW244104   9.793   8.079  12.610 -0.5870  1.2711 -0.0562
11264SOL     OW44105   2.607  10.607   4.601 -0.0030  0.4907  0.0532
11264SOL    HW144106   2.546  10.625   4.529  1.0852  1.2654 -0.6947
11264SOL    HW244107   2.664  10.538   4.568 -1.0484 -0.9629  1.1212
11265SOL     OW44108  10.487  12.910   2.791  0.2445  0.4185 -0.4366
11265SOL    HW144109  10.397  12.908   2.823  0.1583  1.8432 -0.5153
11265SOL    HW244110  10.540  12.913   2.871  0.0743  2.7057 -0.3373
11266SOL     OW44111   9.723   4.147   7.079  0.1302  0.4043  0.4366
11266SOL    HW144112   9.700   4.157   7.172 -1.7309 -0.7066  0.1514
11266SOL    HW244113   9.692   4.059   7.057 -0.0125  0.8871 -1.3795
11267SOL     OW44114   2.284   7.948   6.222  0.3121 -0.5321  0.1473
11267SOL    HW144115   2.206   8.000   6.203  1.2947  0.9152 -0.1089
11267SOL    HW244116   2.294   7.954   6.317  1.3162  1.1861 -0.0155
11268SOL     OW44117   2.201   0.944   1.334  0.6087 -0.0513  0.6411
11268SOL    HW144118   2.172   1.034   1.321 -1.5392 -0.7915 -0.2142
11268SOL    HW244119   2.186   0.927   1.427  0.3709  0.2695  0.6617
11269SOL     OW44120  12.536   0.541   3.940 -0.6680  0.0314 -0.0338
11269SOL    HW144121  12.445   0.512   3.940 -0.4633 -0.6788 -1.2043
11269SOL    HW244122  12.585   0.464   3.969 -0.2889 -0.1939 -1.2399
11270SOL     OW44123   2.742   5.025   2.649  0.0850 -0.3279  0.1347
11270SOL    HW144124   2.730   5.050   2.557 -1.7081 -2.0719 -0.1596
11270SOL    HW244125   2.822   4.973   2.650  2.1705  2.6297  0.2576
11271SOL     OW44126   3.572  11.110   7.592  0.3673 -0.2944 -0.2235
11271SOL    HW144127   3.525  11.159   7.525  1.1544  2.9513  1.3853
11271SOL    HW244128   3.504  11.065   7.642 -0.2806 -2.0240 -2.5188
11272SOL     OW44129   2.856   1.600   8.208 -0.1504  0.2067 -0.1089
11272SOL    HW144130   2.937   1.643   8.235 -0.2714  0.0566  0.5243
11272SOL    HW244131   2.884   1.527   8.153  0.2778 -0.9084  1.5119
11273SOL     OW44132   2.308  12.781  11.417 -0.5794  0.4509  0.5207
11273SOL    HW144133   2.397  12.747  11.415  0.5627  3.1808 -0.4167
11273SOL    HW244134   2.290  12.807  11.326 -0.6303  3.7742  1.3645
11274SOL     OW44135   0.400   5.520   4.688  0.3265 -0.1349  0.2492
11274SOL    HW144136   0.411   5.478   4.603 -1.1922 -0.7761  0.3208
11274SOL    HW244137   0.330   5.469   4.730  0.3750  0.7778  1.4813
11275SOL     OW44138  11.801   8.920   5.988 -0.2120  0.0890  0.0311
11275SOL    HW144139  11.829   8.910   6.079 -0.1897 -0.3880 -0.0239
11275SOL    HW244140  11.766   8.833   5.965 -1.9554  0.7033  0.1794
11276SOL     OW44141   8.401   1.150  11.467  0.2863  0.0180  0.0181
11276SOL    HW144142   8.446   1.166  11.384  2.2417 -0.5352  0.9179
11276SOL    HW244143   8.376   1.237  11.498  1.5780  0.4556 -0.0864
11277SOL     OW44144   3.618   1.291   5.023 -0.0133 -0.4183  0.0834
11277SOL    HW144145   3.657   1.256   5.103  0.7514  0.6840  0.1952
11277SOL    HW244146   3.546   1.230   5.005 -0.0363 -0.8466  1.4492
11278SOL     OW44147   8.615   6.793   8.232 -0.1707  0.4893  0.3591
11278SOL    HW144148   8.615   6.863   8.166  2.7615 -0.0901 -0.3890
11278SOL    HW244149   8.700   6.751   8.222 -1.3190 -2.3870  1.6853
11279SOL     OW44150   5.720  11.943   3.771 -0.2192  0.0973 -0.2190
11279SOL    HW144151   5.728  12.038   3.761  2.6138 -0.1942 -1.5886
11279SOL    HW244152   5.745  11.927   3.862 -0.7901  0.6655  0.0439
11280SOL     OW44153   2.166  12.295   5.364 -0.2495 -0.2852  0.0335
11280SOL    HW144154   2.134  12.234   5.431  0.6021 -3.5611 -2.2805
11280SOL    HW244155   2.092  12.307   5.305  0.3136 -1.2902 -0.9207
11281SOL     OW44156   6.019   0.728   1.699  0.2493 -0.0138 -0.6181
11281SOL    HW144157   6.066   0.645   1.710 -0.2764 -0.3068 -0.5935
11281SOL    HW244158   6.051   0.762   1.615  3.2314  1.5564  0.9716
11282SOL     OW44159   5.026   4.780   7.815 -0.5317  0.0174  0.3630
11282SOL    HW144160   4.974   4.732   7.880  0.0843  1.5350  2.0590
11282SOL    HW244161   5.116   4.769   7.844 -0.4173  2.7543  1.2580
11283SOL     OW44162   1.985  11.734   7.356 -0.1128 -0.4989 -0.8587
11283SOL    HW144163   1.937  11.789   7.418  0.6510 -1.0736  0.2810
11283SOL    HW244164   1.991  11.649   7.400  0.9029 -0.7691 -1.4924
11284SOL     OW44165   4.115   8.641   1.426  0.7129 -0.3875 -0.6786
11284SOL    HW144166   4.110   8.701   1.500  0.7315 -2.4941  1.1481
11284SOL    HW244167   4.202   8.655   1.388  0.4567  1.1594 -0.7414
11285SOL     OW44168  12.592   2.533   1.655  0.0165  0.3157  0.2238
11285SOL    HW144169  12.671   2.587   1.647  0.2316 -0.1853 -1.6735
11285SOL    HW244170  12.520   2.593   1.639  0.0798  0.5595  0.8394
11286SOL     OW44171   1.134   1.375  10.424  0.1368  0.0091 -0.2473
11286SOL    HW144172   1.079   1.314  10.475  0.9522 -0.3017  0.2764
11286SOL    HW244173   1.076   1.405  10.354 -0.1712 -1.7121 -0.7849
11287SOL     OW44174  11.887  12.351   8.288  0.7090  0.7267  0.5046
11287SOL    HW144175  11.866  12.325   8.377  1.4793  0.2692  0.5570
11287SOL    HW244176  11.809  12.398   8.258 -0.7280 -1.5592  0.4375
11288SOL     OW44177   2.802   0.610   4.118 -0.4765  0.0071 -0.1955
11288SOL    HW144178   2.774   0.519   4.124 -0.8974  0.1464 -0.0313
11288SOL    HW244179   2.803   0.629   4.024  1.0158 -0.5926 -0.3295
11289SOL     OW44180  11.302   9.632   9.516 -0.9941 -0.1612 -0.3074
11289SOL    HW144181  11.288   9.537   9.513 -1.5786 -0.1096  0.5158
11289SOL    HW244182  11.241   9.663   9.583 -0.1958  0.6843  0.0460
11290SOL     OW44183   4.507  10.315   2.503 -0.3508  0.0494 -0.0189
11290SOL    HW144184   4.553  10.299   2.585  0.5075  0.4744 -0.4117
11290SOL    HW244185   4.518  10.234   2.453 -1.0743 -0.3007  0.3542
11291SOL     OW44186   8.997   8.034   3.566 -0.0362  0.1619 -0.1131
11291SOL    HW144187   9.000   8.119   3.523 -0.2315 -1.2539 -3.1987
11291SOL    HW244188   9.089   8.007   3.572  0.0009  0.4070  0.5516
11292SOL     OW44189   4.521   8.242  10.049  0.2284 -0.2800 -0.7730
11292SOL    HW144190   4.444   8.281  10.007  1.1132  1.7642 -0.6116
11292SOL    HW244191   4.492   8.224  10.139 -0.4901 -0.9410 -1.1253
11293SOL     OW44192  12.715   8.727   7.104  0.1488 -0.5221 -0.0667
11293SOL    HW144193  12.765   8.799   7.067  2.3037 -1.4748  0.8356
11293SOL    HW244194  12.748   8.649   7.059 -0.7392 -1.1564  0.3468
11294SOL     OW44195  12.492   0.519   4.404 -0.1190  0.7339 -0.0229
11294SOL    HW144196  12.584   0.546   4.408 -0.0386  0.7645 -1.3779
11294SOL    HW244197  12.493   0.440   4.349 -0.8398  0.3977  0.4327
11295SOL     OW44198  12.076   6.826   6.918 -0.4506  0.0343  0.0723
11295SOL    HW144199  12.001   6.885   6.919  1.6559  2.9713 -1.3716
11295SOL    HW244200  12.135   6.859   6.986  0.1883 -1.3067  0.2086
11296SOL     OW44201   0.317  10.793   4.561 -0.2711  0.3195  0.4170
11296SOL    HW144202   0.334  10.792   4.655 -0.0905 -0.5126  0.3883
11296SOL    HW244203   0.246  10.729   4.549  0.4220 -0.3656 -0.1279
11297SOL     OW44204   6.855   7.487   0.538  0.3294 -0.3298  0.1974
11297SOL    HW144205   6.942   7.453   0.556 -0.1231 -0.5889  2.0704
11297SOL    HW244206   6.852   7.571   0.584 -0.3580 -0.2693  0.0554
11298SOL     OW44207  12.216  12.111   5.169 -0.5535  0.2575 -0.5330
11298SOL    HW144208  12.177  12.109   5.257 -2.2678  0.8809 -1.2331
11298SOL    HW244209  12.183  12.031   5.127  0.6804 -0.3078 -0.4713
11299SOL     OW44210   5.862   2.572   2.379 -0.4098 -0.4236 -0.0133
11299SOL    HW144211   5.874   2.498   2.438 -0.3935 -0.2018  0.2609
11299SOL    HW244212   5.947   2.615   2.376 -0.0255 -1.2280 -1.2763
11300SOL     OW44213   0.164   0.828  11.403 -0.3260 -0.2686  0.5127
11300SOL    HW144214   0.229   0.768  11.440 -1.4550 -3.1869 -1.8144
11300SOL    HW244215   0.083   0.807  11.449 -0.6456 -0.2527 -0.0318
11301SOL     OW44216   8.709   8.479  11.183 -0.2916  0.2165  0.1114
11301SOL    HW144217   8.784   8.447  11.233  1.5076  1.1082 -1.8681
11301SOL    HW244218   8.704   8.421  11.107 -0.9807  0.7825 -0.2905
11302SOL     OW44219  10.615   0.491   2.804 -0.0071  0.3330 -0.5181
11302SOL    HW144220  10.558   0.453   2.870 -0.5151  0.2557 -0.9932
11302SOL    HW244221  10.701   0.452   2.821  0.1206  1.1264  0.7499
11303SOL     OW44222  11.079   7.376   9.056 -0.4557  0.7877 -0.3688
11303SOL    HW144223  11.093   7.310   9.124  0.4031  1.1496 -0.1814
11303SOL    HW244224  11.021   7.334   8.993 -0.0959 -0.0645 -0.1391
11304SOL     OW44225   4.458   8.149   0.189  0.0452  0.0761 -0.3743
11304SOL    HW144226   4.464   8.100   0.107  1.1640  0.0190 -0.2744
11304SOL    HW244227   4.502   8.232   0.170 -0.5669  0.4712 -0.1127
11305SOL     OW44228   1.562   7.693  11.901 -0.0355  0.2512  0.2000
11305SOL    HW144229   1.642   7.745  11.893  0.2805 -0.4066 -1.0564
11305SOL    HW244230   1.534   7.677  11.811  0.0031 -1.9224  0.5244
11306SOL     OW44231   3.338   2.590   2.594  0.1562  0.8338  0.0360
11306SOL    HW144232   3.428   2.587   2.626  1.1151  0.6371 -2.4155
11306SOL    HW244233   3.292   2.523   2.645  1.8112 -0.1797  0.2887
11307SOL     OW44234  10.212   2.182   7.180  0.5953  0.0943  0.0779
11307SOL    HW144235  10.174   2.226   7.256 -1.2652 -1.4338  0.1072
11307SOL    HW244236  10.269   2.115   7.216 -1.1492 -1.3794  0.2326
11308SOL     OW44237  11.685   3.410   7.640  0.0252 -0.1765  0.6030
11308SOL    HW144238  11.688   3.488   7.585  0.0024  0.4674  1.4944
11308SOL    HW244239  11.601   3.369   7.619  0.3346 -0.3247 -0.3514
11309SOL     OW44240   2.737   9.790   3.028 -0.1701  0.0441 -0.0055
11309SOL    HW144241   2.654   9.838   3.033  0.4912  1.2215 -0.0853
11309SOL    HW244242   2.780   9.808   3.111  0.2761 -0.0562 -0.2160
11310SOL     OW44243  10.271   8.009   2.713  0.0745 -0.3012  0.2622
11310SOL    HW144244  10.181   7.984   2.731 -0.1544  0.1968 -0.1706
11310SOL    HW244245  10.296   7.960   2.635 -0.5110  1.0775 -0.8317
11311SOL     OW44246  11.033   9.401   9.408  0.0578  0.6236 -0.2228
11311SOL    HW144247  11.034   9.325   9.349 -1.2498  0.3193  0.0911
11311SOL    HW244248  11.111   9.391   9.463  0.4445  0.0603 -0.8677
11312SOL     OW44249   7.476  11.279   0.602  0.2245 -0.2943  0.2341
11312SOL    HW144250   7.486  11.295   0.508  1.6118  0.4048  0.4759
11312SOL    HW244251   7.552  11.227   0.626 -0.0823 -0.4065  0.9899
11313SOL     OW44252  12.977   6.982   3.890  0.6796  0.1136 -0.0334
11313SOL    HW144253  12.982   6.989   3.795 -0.8388 -1.8981 -0.3234
11313SOL    HW244254  12.923   7.057   3.917  2.0584  1.3495 -0.5844
11314SOL     OW44255   9.512   9.327  12.550 -0.7769  0.5985  0.0397
11314SOL    HW144256   9.464   9.386  12.492  0.5861  3.0395  1.2326
11314SOL    HW244257   9.540   9.255  12.493 -0.9457  2.0204 -1.9371
11315SOL     OW44258   7.345  12.880  12.677  0.1490  0.2940 -0.5387
11315SOL    HW144259   7.400  12.948  12.715 -0.4327  0.0309  0.8361
11315SOL    HW244260   7.351  12.894  12.583 -0.3321  2.5385 -0.2859
11316SOL     OW44261   4.464  12.445   1.541 -0.1488 -0.4385  0.1035
11316SOL    HW144262   4.485  12.352   1.539  1.5575 -0.0866 -0.0648
11316SOL    HW244263   4.416  12.457   1.623  0.3030 -1.3377  0.5150
11317SOL     OW44264   7.339   5.315   3.293 -0.1539  0.0231  0.4742
11317SOL    HW144265   7.256   5.359   3.275 -0.5023  0.5916  3.1204
11317SOL    HW244266   7.317   5.222   3.300 -0.4074  0.0725  0.3283
11318SOL     OW44267   2.237   1.854   2.813  0.0191  0.8104 -0.5633
11318SOL    HW144268   2.292   1.808   2.877 -1.7560  0.4278  0.7590
11318SOL    HW244269   2.184   1.785   2.773  0.3719  1.1896 -1.7554
11319SOL     OW44270   9.560   3.562   4.704  0.2989 -0.0830  0.0021
11319SOL    HW144271   9.614   3.486   4.724  0.3202  0.0634  0.5036
11319SOL    HW244272   9.610   3.610   4.638  1.6435  0.9910  1.7408
11320SOL     OW44273   8.365  12.258   3.384  0.1644 -0.1372  0.1151
11320SOL    HW144274   8.368  12.225   3.474 -0.3649  1.4963  0.7590
11320SOL    HW244275   8.272  12.275   3.367 -0.1288 -2.8168 -1.7086
11321SOL     OW44276   3.580   3.591  12.838  0.1105  0.3116 -0.1122
11321SOL    HW144277   3.534   3.674  12.847  0.0354  0.2319  0.2727
11321SOL    HW244278   3.512   3.525  12.848 -0.0456  0.1987 -1.6265
11322SOL     OW44279   3.197   6.335   8.913 -0.6009 -0.6162 -0.3416
11322SOL    HW144280   3.211   6.359   8.822 -2.6178  1.0303 -0.3013
11322SOL    HW244281   3.285   6.331   8.951  0.1812  0.4515 -1.9483
11323SOL     OW44282   7.051   0.987   6.026  0.3238 -0.3926 -0.3254
11323SOL    HW144283   7.073   1.079   6.011 -1.3557  0.4780  1.9128
11323SOL    HW244284   6.991   0.965   5.955 -1.0512  1.0135  0.3262
11324SOL     OW44285   9.257   3.395   0.194  0.1955 -0.1539  0.0988
11324SOL    HW144286   9.239   3.302   0.180 -1.2385 -0.0882  1.3252
11324SOL    HW244287   9.257   3.406   0.289 -0.9354  1.3274 -0.0451
11325SOL     OW44288   4.311   4.473   8.799  0.0341  0.0107 -0.3088
11325SOL    HW144289   4.237   4.482   8.859 -0.6055 -1.4930 -0.8191
11325SOL    HW244290   4.330   4.379   8.798  0.4569  0.0861 -1.9303
11326SOL     OW44291   6.212  10.554   1.392 -0.2548  0.3139 -0.0347
11326SOL    HW144292   6.202  10.465   1.424  1.0769 -0.5059 -1.7297
11326SOL    HW244293   6.129  10.573   1.349 -0.2424 -0.4723 -0.4349
11327SOL     OW44294   7.933   4.450   1.330  0.1466 -0.1125  0.5853
11327SOL    HW144295   7.846   4.416   1.351 -0.2931 -0.2835 -1.3009
11327SOL    HW244296   7.993   4.403   1.387 -0.7477 -1.8875  0.1117
11328SOL     OW44297  10.717  11.738   4.606 -0.0455 -0.7027 -0.7369
11328SOL    HW144298  10.772  11.805   4.567  1.5225 -1.8817 -0.6277
11328SOL    HW244299  10.639  11.736   4.550  0.5294  0.1911 -1.6047
11329SOL     OW44300   7.138  12.176   8.134 -0.5312  0.5768  0.2841
11329SOL    HW144301   7.057  12.204   8.089 -1.3482  0.8733  1.8800
11329SOL    HW244302   7.109  12.153   8.222  0.7494 -1.7383  0.1516
11330SOL     OW44303   9.016  11.738   3.912 -0.4876 -0.0603  0.1181
11330SOL    HW144304   9.086  11.782   3.960 -0.1121 -0.9828  0.4545
11330SOL    HW244305   9.012  11.784   3.828 -0.4753  0.9374  0.6486
11331SOL     OW44306   2.085   8.191  12.679  0.3501  0.1117 -0.3675
11331SOL    HW144307   2.034   8.197  12.760 -0.6936  0.0908 -0.9962
11331SOL    HW244308   2.157   8.132  12.700 -0.2492 -0.3803  0.3757
11332SOL     OW44309   9.048   0.769   8.147 -0.7634  0.4113  0.2668
11332SOL    HW144310   9.038   0.813   8.231  0.4763  1.3577 -0.0497
11332SOL    HW244311   9.128   0.805   8.110 -0.8722 -0.5460 -0.9904
11333SOL     OW44312   7.756   3.563   4.665 -0.0933  0.1440  0.3384
11333SOL    HW144313   7.746   3.590   4.756  0.9411  0.4667  0.3641
11333SOL    HW244314   7.669   3.577   4.627 -0.5592 -0.0540  1.2753
11334SOL     OW44315   9.682   9.634   8.922  0.4613 -0.3567 -0.2323
11334SOL    HW144316   9.587   9.639   8.908  0.3014 -0.4193  0.7495
11334SOL    HW244317   9.715   9.719   8.892 -0.1264  0.3043  0.9014
11335SOL     OW44318   9.119   6.881   1.254 -0.7227 -0.1023  0.2239
11335SOL    HW144319   9.107   6.942   1.328  0.5060  1.3137 -0.6934
11335SOL    HW244320   9.053   6.909   1.190 -2.8669 -2.3264  1.3172
11336SOL     OW44321   2.155   2.324   7.525 -0.0522  0.3291 -0.1555
11336SOL    HW144322   2.189   2.265   7.457  0.6599  1.4639 -0.8240
11336SOL    HW244323   2.133   2.404   7.478  0.6796  1.2264  0.9668
11337SOL     OW44324  10.691   6.676   5.946 -0.4331  0.1120  0.0349
11337SOL    HW144325  10.674   6.647   5.856 -0.3756 -0.4989  0.2139
11337SOL    HW244326  10.786   6.683   5.952 -0.3705 -0.8152  0.3282
11338SOL     OW44327   8.544   8.585  12.716 -0.1398  0.4272 -0.0309
11338SOL    HW144328   8.622   8.638  12.700 -0.5267  0.6506 -1.2274
11338SOL    HW244329   8.482   8.644  12.759  0.2110  0.3361  0.6217
11339SOL     OW44330   1.491  11.921   7.302  0.3222  0.7235 -0.0584
11339SOL    HW144331   1.398  11.931   7.282  0.1741  0.1873  0.3707
11339SOL    HW244332   1.516  12.005   7.342  0.6459  1.8874 -2.5020
11340SOL     OW44333   9.802   9.545   2.809  0.2188  0.7303 -0.3660
11340SOL    HW144334   9.716   9.585   2.797  0.8480  2.5318  0.7110
11340SOL    HW244335   9.785   9.452   2.816 -1.4982  0.9253 -1.4614
11341SOL     OW44336   7.060   6.505   4.552  0.2726 -0.4013  0.4125
11341SOL    HW144337   7.059   6.529   4.645 -0.9642 -0.4122  0.4245
11341SOL    HW244338   6.995   6.436   4.545 -0.6444  0.5273 -0.6891
11342SOL     OW44339   3.470   2.955   4.941 -0.4900 -0.0145 -0.3472
11342SOL    HW144340   3.424   2.877   4.972 -1.5900  0.6992 -0.1015
11342SOL    HW244341   3.428   2.975   4.857 -0.6533  0.6680 -0.1063
11343SOL     OW44342   6.856   0.642   6.911 -0.2574  0.0691 -0.3018
11343SOL    HW144343   6.876   0.572   6.974 -0.0712  1.2409  1.0137
11343SOL    HW244344   6.931   0.701   6.918 -0.7924  0.8112 -0.7617
11344SOL     OW44345   2.087   2.690   8.213  0.5203 -0.2227  0.1102
11344SOL    HW144346   2.041   2.767   8.179  0.0411 -0.9997 -1.0504
11344SOL    HW244347   2.025   2.618   8.203  0.4632 -0.5646  2.4120
11345SOL     OW44348   2.966  12.782   6.114  0.4567  0.1509 -1.1830
11345SOL    HW144349   3.048  12.831   6.109  1.0597 -0.3558  1.6681
11345SOL    HW244350   2.974  12.732   6.195 -2.9209  0.5573 -0.4533
11346SOL     OW44351  12.467   7.852   5.650 -0.4447  0.2535  0.0224
11346SOL    HW144352  12.433   7.815   5.569 -2.0472  0.4305  0.5636
11346SOL    HW244353  12.431   7.797   5.719  2.7869 -1.3465  0.6122
11347SOL     OW44354   2.947  12.434   7.035  0.3784  0.0978  0.0467
11347SOL    HW144355   3.041  12.419   7.023  0.6526  2.2689 -1.0564
11347SOL    HW244356   2.907  12.402   6.955  0.4861  1.2393 -0.4890
11348SOL     OW44357  11.917   9.325   1.273  0.0455 -0.2634 -0.1104
11348SOL    HW144358  11.981   9.271   1.320  0.1225 -0.2948 -0.2502
11348SOL    HW244359  11.961   9.409   1.261  0.8752 -0.8905 -1.9849
11349SOL     OW44360   1.179   5.545  10.161 -0.2453  0.0052 -0.4210
11349SOL    HW144361   1.220   5.528  10.246  0.3320  1.3039 -0.4095
11349SOL    HW244362   1.108   5.481  10.155 -0.5322  0.1272  1.2094
11350SOL     OW44363  10.542   4.079   1.512  0.0150 -0.2972 -0.2697
11350SOL    HW144364  10.599   4.135   1.460 -0.2125 -0.3271 -0.5532
11350SOL    HW244365  10.556   4.108   1.602  1.0652 -0.8313 -0.2491
11351SOL     OW44366   4.438   1.582   7.785  0.0595 -0.0387 -0.0372
11351SOL    HW144367   4.447   1.583   7.690 -1.3029  0.0468 -0.1842
11351SOL    HW244368   4.400   1.496   7.804 -2.1597  0.9426  0.1571
11352SOL     OW44369   4.652   0.291   6.729 -0.0024 -0.0825  0.1986
11352SOL    HW144370   4.654   0.207   6.774 -1.6187  0.0436  0.5502
11352SOL    HW244371   4.576   0.336   6.764  0.1529  1.0559 -0.8412
11353SOL     OW44372   9.996   1.032   3.558  0.1942 -0.1540  0.5391
11353SOL    HW144373  10.053   1.092   3.605 -1.2391  0.4556  1.5785
11353SOL    HW244374   9.935   0.999   3.624 -1.7396  0.5531 -0.7836
11354SOL     OW44375   2.598   1.526   8.432  0.4309 -0.2135  0.4482
11354SOL    HW144376   2.583   1.618   8.410  1.3248 -0.4512 -1.3063
11354SOL    HW244377   2.587   1.523   8.527 -3.5441  0.9155  0.2020
11355SOL     OW44378   4.723   1.939   7.531 -0.4101 -0.4036 -0.2112
11355SOL    HW144379   4.692   1.855   7.498 -0.7388 -0.6892  0.8037
11355SOL    HW244380   4.658   1.965   7.596 -1.2387  1.4644 -1.6837
11356SOL     OW44381   8.296   1.900   9.727 -0.2117 -0.0337 -0.3600
11356SOL    HW144382   8.206   1.917   9.755 -0.0237 -0.3090  0.4193
11356SOL    HW244383   8.303   1.805   9.726 -0.0421 -0.0227 -0.8209
11357SOL     OW44384   2.877   8.277   8.196 -0.1034  0.4807 -0.3014
11357SOL    HW144385   2.843   8.270   8.286 -0.4715 -0.1381 -0.4794
11357SOL    HW244386   2.936   8.352   8.199 -1.1955  1.3550  0.1054
11358SOL     OW44387   6.030   6.316   9.190  0.8962 -0.2694 -0.1804
11358SOL    HW144388   5.958   6.310   9.127  0.4119 -1.8120  0.4788
11358SOL    HW244389   6.106   6.339   9.137 -0.1440  2.0631 -0.8136
11359SOL     OW44390   2.499  11.907   5.859  0.5448  0.1597 -0.0549
11359SOL    HW144391   2.503  11.947   5.772 -0.7031 -0.1353 -0.2693
11359SOL    HW244392   2.428  11.953   5.904 -0.4685 -1.2940 -0.0676
11360SOL     OW44393   6.104   4.088   8.077  0.1779 -0.3142  0.2825
11360SOL    HW144394   6.084   4.003   8.116 -0.4458  0.0229  0.7084
11360SOL    HW244395   6.072   4.081   7.987  1.8873 -1.1947 -0.3093
11361SOL     OW44396   4.093   3.889   3.598  0.8436 -0.1571  0.3045
11361SOL    HW144397   4.158   3.954   3.624  1.1452 -0.7646  1.0999
11361SOL    HW244398   4.080   3.835   3.675  0.1776 -0.7068 -0.1717
11362SOL     OW44399  10.830   8.023   2.468  0.1178 -0.0216 -0.0843
11362SOL    HW144400  10.742   8.024   2.505  0.6985  1.4355  1.3485
11362SOL    HW244401  10.888   8.011   2.543  1.1369 -2.6889 -1.1577
11363SOL     OW44402  10.088  12.827  12.777  0.2638 -0.0771  0.8062
11363SOL    HW144403  10.025  12.802  12.709 -1.3049 -0.4470  2.3085
11363SOL    HW244404  10.035  12.872  12.842  2.1068  2.3021  0.7700
11364SOL     OW44405   7.464   6.992   8.104 -0.2313 -0.5656  0.5461
11364SOL    HW144406   7.388   6.982   8.047 -0.1700 -1.4836  0.6061
11364SOL    HW244407   7.538   7.001   8.044 -0.6031  3.3936  0.3737
11365SOL     OW44408   6.622   0.351  12.009 -0.1919 -0.4390 -0.4904
11365SOL    HW144409   6.558   0.422  12.005  0.1395 -0.1014 -0.0121
11365SOL    HW244410   6.571   0.271  11.998 -0.3262 -0.0637 -3.2857
11366SOL     OW44411   3.131   3.294   2.860 -1.0573  0.2349  0.2160
11366SOL    HW144412   3.056   3.247   2.823  1.2524 -2.2686 -1.6804
11366SOL    HW244413   3.144   3.254   2.946 -1.0640 -0.3298 -0.0399
11367SOL     OW44414   6.017   1.285  10.095 -0.5566 -0.4930 -0.4121
11367SOL    HW144415   6.029   1.299  10.001 -1.1610 -1.7199 -0.6836
11367SOL    HW244416   6.034   1.191  10.108 -0.6420 -0.3705  0.6828
11368SOL     OW44417   4.019   0.514   3.928 -0.0442 -0.1525 -0.1830
11368SOL    HW144418   3.933   0.478   3.907  0.0667 -1.1699  1.0000
11368SOL    HW244419   4.073   0.491   3.853 -0.9549  1.2102 -1.3269
11369SOL     OW44420  11.814   8.154   7.951 -0.2897 -0.5206 -0.0271
11369SOL    HW144421  11.793   8.153   7.858  2.3243  1.4354 -0.7360
11369SOL    HW244422  11.855   8.069   7.967  0.1601 -0.4725 -0.8957
11370SOL     OW44423   9.935   9.195   3.676  0.2074  0.4455 -0.0437
11370SOL    HW144424   9.967   9.234   3.757 -0.0087  1.0142 -0.2230
11370SOL    HW244425   9.907   9.270   3.623  1.5799  0.1971 -1.1792
11371SOL     OW44426   0.996   0.693   3.268 -1.1022  0.3537 -0.5970
11371SOL    HW144427   0.917   0.735   3.233 -2.6619 -1.5181  0.4338
11371SOL    HW244428   1.059   0.764   3.277 -2.8239  2.0291 -1.0004
11372SOL     OW44429   2.993   5.625   1.015  0.0074  0.2485  0.2857
11372SOL    HW144430   3.081   5.661   1.013  0.7057 -1.3578  0.0780
11372SOL    HW244431   3.000   5.542   0.967 -1.1738 -0.8642  1.9159
11373SOL     OW44432   0.679   6.551   9.749  0.3066 -0.3305 -0.2466
11373SOL    HW144433   0.741   6.575   9.818  0.4047 -0.2493 -0.3637
11373SOL    HW244434   0.606   6.611   9.760  0.5100 -0.0337 -0.4810
11374SOL     OW44435   0.715   3.274   2.275 -0.2491  0.1695  0.2111
11374SOL    HW144436   0.720   3.361   2.237 -0.5104  0.1215  0.0644
11374SOL    HW244437   0.631   3.272   2.321 -1.2009 -0.6602 -1.4665
11375SOL     OW44438  10.978   1.648  11.502  0.3860  0.4114  0.0356
11375SOL    HW144439  11.040   1.721  11.493  0.9339  0.0174  0.5816
11375SOL    HW244440  10.947   1.655  11.593  0.8207 -0.3240  0.2497
11376SOL     OW44441   3.286  11.217  11.833  0.2597 -0.1321 -0.3295
11376SOL    HW144442   3.208  11.165  11.812  0.6693 -1.8953  2.0669
11376SOL    HW244443   3.251  11.299  11.870 -0.4449 -0.4213 -0.3450
11377SOL     OW44444   0.167   6.485   7.909  0.3895 -0.0285  0.5090
11377SOL    HW144445   0.246   6.540   7.908  1.4849 -1.5426 -0.6252
11377SOL    HW244446   0.197   6.401   7.944 -0.6151 -0.7606 -0.3215
11378SOL     OW44447   6.842  10.100   0.583 -0.1972 -0.3701  0.2611
11378SOL    HW144448   6.750  10.074   0.573 -0.9569  1.8336  0.7253
11378SOL    HW244449   6.840  10.195   0.569  1.6308  0.0819  2.5726
11379SOL     OW44450   2.080   5.086   8.964  0.0990 -0.8773 -0.0712
11379SOL    HW144451   2.000   5.132   8.938  0.7845 -0.0209 -0.7059
11379SOL    HW244452   2.050   5.024   9.031 -0.9021  0.3407  0.6841
11380SOL     OW44453   1.857  11.412   2.068  0.1488 -0.4552  0.0936
11380SOL    HW144454   1.884  11.361   2.145  2.5184  0.8065  0.1831
11380SOL    HW244455   1.929  11.403   2.006 -0.4443  0.8596 -0.8311
11381SOL     OW44456   0.772   9.561   3.954  0.4238 -0.6303  0.0899
11381SOL    HW144457   0.706   9.623   3.922  0.2328  0.0847  1.7689
11381SOL    HW244458   0.841   9.563   3.887  0.4618  1.4712  0.1277
11382SOL     OW44459   7.059   9.760   5.706  0.6876  0.2962  0.6852
11382SOL    HW144460   7.097   9.704   5.638 -0.5803  1.2729 -0.9037
11382SOL    HW244461   7.129   9.823   5.727  0.4814  1.2245 -1.2104
11383SOL     OW44462   8.927   8.886   7.287 -0.1682  0.3894  0.2950
11383SOL    HW144463   8.940   8.806   7.338 -1.2137  0.0014 -0.0168
11383SOL    HW244464   8.852   8.928   7.327  0.8663  1.6666  0.9703
11384SOL     OW44465   0.635   8.075   1.731  0.3180 -0.2081  0.1449
11384SOL    HW144466   0.560   8.022   1.704  0.5092  0.9133 -2.8763
11384SOL    HW244467   0.598   8.143   1.787 -0.6131 -0.7640  0.2231
11385SOL     OW44468   7.518   9.649   5.167  0.1836  0.0039 -0.1435
11385SOL    HW144469   7.451   9.673   5.231  0.4777  1.2154 -0.2742
11385SOL    HW244470   7.594   9.625   5.220  0.3239  0.6928 -0.0266
11386SOL     OW44471  11.589  10.739   6.152  0.3663  0.6124  0.1235
11386SOL    HW144472  11.510  10.773   6.108  0.3870  0.5415  0.0321
11386SOL    HW244473  11.570  10.748   6.245 -1.1603 -2.4912  0.2406
11387SOL     OW44474  11.647  10.641   4.411  0.0208  0.8268  1.0904
11387SOL    HW144475  11.621  10.595   4.490 -1.9291  2.5160  1.5106
11387SOL    HW244476  11.676  10.727   4.441  1.4220  0.7212  0.1368
11388SOL     OW44477   8.988   1.447   5.189 -0.7717  0.1698  0.0140
11388SOL    HW144478   8.930   1.373   5.205  0.2764 -0.5062  0.8038
11388SOL    HW244479   8.930   1.523   5.191 -1.8823 -0.6182 -0.9239
11389SOL     OW44480   5.887   7.052  11.471  0.1674 -0.0002 -0.2868
11389SOL    HW144481   5.871   7.059  11.376  2.3978  3.0514 -0.5786
11389SOL    HW244482   5.894   7.143  11.501  0.0933 -0.8983  2.7413
11390SOL     OW44483  10.202   4.848   1.661 -0.6999 -0.2211 -0.3301
11390SOL    HW144484  10.127   4.852   1.601 -0.0737 -0.0657 -1.1105
11390SOL    HW244485  10.279   4.849   1.604 -0.1061 -1.6129  0.4021
11391SOL     OW44486   3.254   8.834   0.961 -0.5369  0.6186  0.1533
11391SOL    HW144487   3.299   8.896   0.903 -2.3479  2.0116  0.1659
11391SOL    HW244488   3.171   8.876   0.982 -0.6941 -0.6360  2.3713
11392SOL     OW44489   8.303  12.006   9.072 -0.0545 -0.8454 -0.0080
11392SOL    HW144490   8.357  11.990   9.149 -0.3911 -0.2970  0.3499
11392SOL    HW244491   8.244  12.077   9.098 -0.9429 -1.4247 -0.3983
11393SOL     OW44492   0.347   2.023  10.414  0.5055 -0.6798 -0.5031
11393SOL    HW144493   0.430   1.976  10.414 -0.3613 -2.2769 -0.3318
11393SOL    HW244494   0.289   1.970  10.469 -0.4492  0.7420 -0.0866
11394SOL     OW44495   9.431  11.605   5.576 -0.2610 -0.5419 -0.0974
11394SOL    HW144496   9.443  11.661   5.499  0.5669 -1.3422 -0.5677
11394SOL    HW244497   9.386  11.527   5.542 -2.0494  0.1010  0.6771
11395SOL     OW44498   3.653  11.519  10.104 -0.1494  0.1232  0.0294
11395SOL    HW144499   3.568  11.503  10.145 -0.5096  2.0442  0.1240
11395SOL    HW244500   3.658  11.455  10.033 -1.5708 -0.1880  0.1758
11396SOL     OW44501   1.287  12.762  12.317  0.0038  0.2982 -0.0819
11396SOL    HW144502   1.317  12.796  12.233 -0.4998 -0.0342 -0.4020
11396SOL    HW244503   1.223  12.696  12.294 -0.5603  0.6055  0.5755
11397SOL     OW44504   3.741   0.556   1.484 -0.3519  0.2787 -0.2288
11397SOL    HW144505   3.811   0.495   1.509 -0.3101  0.0336 -0.9142
11397SOL    HW244506   3.758   0.635   1.536  0.6017  0.3224 -0.5824
11398SOL     OW44507   9.437   8.210   3.637 -0.3724  0.0388 -0.1090
11398SOL    HW144508   9.519   8.172   3.669  0.2924  0.6311 -1.0538
11398SOL    HW244509   9.406   8.265   3.709 -1.0246 -1.7154  1.0426
11399SOL     OW44510   3.379   0.071  11.577 -0.1358  0.3965 -0.3748
11399SOL    HW144511   3.330   0.080  11.495 -1.7748 -0.9062  0.3873
11399SOL    HW244512   3.312   0.083  11.645  1.0100  0.5003  0.7560
11400SOL     OW44513   8.435   9.842   2.729 -0.7301  0.8334  0.3126
11400SOL    HW144514   8.346   9.806   2.736 -0.2669 -0.3864  0.2622
11400SOL    HW244515   8.451   9.846   2.634  0.1463 -1.3482  0.3004
11401SOL     OW44516   9.639   1.067   6.168 -0.6170  0.1149  0.0947
11401SOL    HW144517   9.661   1.134   6.103 -0.0089 -0.5904 -0.4517
11401SOL    HW244518   9.635   0.986   6.117 -0.0732 -0.4586  0.9459
11402SOL     OW44519   3.415   2.057   9.551 -0.2208 -0.1096 -0.5639
11402SOL    HW144520   3.471   2.113   9.606  1.4805 -1.6259 -0.6795
11402SOL    HW244521   3.417   1.972   9.594 -0.7093 -0.7503 -1.7689
11403SOL     OW44522   5.201  11.822   7.944 -0.1800 -0.1116  0.0388
11403SOL    HW144523   5.187  11.796   8.035 -0.6791  0.4260  0.1196
11403SOL    HW244524   5.291  11.796   7.925 -0.0659 -0.2021  0.6935
11404SOL     OW44525   7.565   0.613  10.158 -0.3420 -0.1827  0.0757
11404SOL    HW144526   7.469   0.617  10.152 -0.2619  1.1051 -0.7017
11404SOL    HW244527   7.592   0.573  10.075 -0.1804 -0.3174  0.1911
11405SOL     OW44528   9.234   9.437  10.362  0.3091 -0.3994  0.5428
11405SOL    HW144529   9.183   9.480  10.293  0.6755 -1.4226 -0.3892
11405SOL    HW244530   9.188   9.460  10.443 -2.3894 -2.1700 -0.3216
11406SOL     OW44531  10.941   7.384   1.842 -0.8244 -0.0332  0.3081
11406SOL    HW144532  10.897   7.432   1.912 -0.3621  0.7161  0.0922
11406SOL    HW244533  10.912   7.428   1.762 -0.1279  0.1091  0.1303
11407SOL     OW44534   0.097   2.199   3.705  0.4931  0.5472 -0.3495
11407SOL    HW144535   0.078   2.126   3.646 -0.7147 -1.7285  2.5829
11407SOL    HW244536   0.192   2.210   3.701  0.4115  0.7771 -2.9420
11408SOL     OW44537  11.596   3.129  10.736  0.3101 -0.0089 -0.1577
11408SOL    HW144538  11.653   3.112  10.812  0.5815  2.0570  0.1609
11408SOL    HW244539  11.648   3.187  10.681  0.1138 -1.4898 -1.9749
11409SOL     OW44540   6.664   1.061  11.020 -0.1625 -0.4032  0.7611
11409SOL    HW144541   6.661   1.041  11.114 -0.5445  0.8890  1.0464
11409SOL    HW244542   6.674   1.156  11.016  0.7929 -0.5289 -0.5146
11410SOL     OW44543  11.942   8.640  10.056 -0.1121  0.1320  0.0044
11410SOL    HW144544  11.996   8.712  10.088  1.7206 -1.5898  0.9796
11410SOL    HW244545  11.916   8.592  10.134  1.8994 -2.4032 -0.7413
11411SOL     OW44546   9.527   7.947   5.577  0.3942 -0.6990 -0.0714
11411SOL    HW144547   9.595   7.988   5.631 -1.8104  1.2051  1.4440
11411SOL    HW244548   9.518   7.859   5.614  0.7216 -0.3078  0.9812
11412SOL     OW44549   0.277   4.248   8.893 -0.1355 -0.1473  0.1105
11412SOL    HW144550   0.301   4.307   8.965  0.0528 -1.2018  0.9359
11412SOL    HW244551   0.186   4.270   8.874  0.3808  1.4533 -0.6450
11413SOL     OW44552   8.661   8.016   7.468 -0.5742 -0.4092  0.1672
11413SOL    HW144553   8.600   8.090   7.470  0.2203  0.2484  0.6436
11413SOL    HW244554   8.646   7.971   7.551  1.6283  1.4792  1.6968
11414SOL     OW44555   2.289   3.246   3.259 -0.2735  0.3103 -0.1745
11414SOL    HW144556   2.298   3.330   3.302 -0.6065  0.9287 -1.2750
11414SOL    HW244557   2.353   3.189   3.303  2.2448  1.9699 -1.4832
11415SOL     OW44558   5.051   6.045   4.744 -0.6390 -0.8852  0.3710
11415SOL    HW144559   5.079   6.052   4.836 -1.4446 -0.4716  0.5924
11415SOL    HW244560   5.117   6.095   4.696 -0.2506 -1.0405  0.7305
11416SOL     OW44561   8.226   4.794   7.403  0.3563  0.4502 -0.0087
11416SOL    HW144562   8.303   4.794   7.347 -0.1718  0.2060 -0.7615
11416SOL    HW244563   8.177   4.872   7.377  0.7097  1.0194  0.9902
11417SOL     OW44564  10.084   6.373   4.332 -0.1493 -0.1165 -0.2282
11417SOL    HW144565  10.137   6.436   4.381 -2.2850  3.4133 -2.0134
11417SOL    HW244566  10.128   6.365   4.248  0.3842 -1.5344  0.1573
11418SOL     OW44567   3.518   7.464   4.693 -1.0814  0.0787 -0.2111
11418SOL    HW144568   3.572   7.387   4.674  1.2317  2.0858 -2.6651
11418SOL    HW244569   3.543   7.490   4.781  1.9640  0.7198 -1.1179
11419SOL     OW44570  10.675   1.741   4.396  0.4844  0.0610  0.1291
11419SOL    HW144571  10.590   1.705   4.370  0.3961  0.7543 -0.5668
11419SOL    HW244572  10.707   1.786   4.318  0.8291  1.0501  0.8261
11420SOL     OW44573   5.557   9.861  10.224  0.2421  0.2858  0.1649
11420SOL    HW144574   5.466   9.887  10.237  0.0834  0.1601 -0.6645
11420SOL    HW244575   5.593   9.858  10.313 -1.1889 -2.0044  0.7528
11421SOL     OW44576   9.562   7.865  10.830 -0.2125 -0.0058  0.1539
11421SOL    HW144577   9.591   7.946  10.871  2.5398 -1.6489  1.8084
11421SOL    HW244578   9.498   7.829  10.891 -0.0250  0.0328  0.3742
11422SOL     OW44579   0.063   2.375   8.371  0.1742  0.2449  0.4275
11422SOL    HW144580   0.031   2.307   8.312  0.5958  0.8011 -0.4674
11422SOL    HW244581   0.010   2.366   8.450 -0.6432 -0.2899 -0.1695
11423SOL     OW44582   0.417   2.508   9.034  0.1288  0.3604 -0.3185
11423SOL    HW144583   0.329   2.525   8.999  0.1307  2.0284  0.3826
11423SOL    HW244584   0.418   2.554   9.118  0.9384 -1.5433  0.7587
11424SOL     OW44585   5.852  11.182   4.591  0.3791 -0.3985 -0.1752
11424SOL    HW144586   5.941  11.145   4.591 -1.4307 -5.6538  2.4693
11424SOL    HW244587   5.802  11.125   4.534 -1.5122  2.4745 -1.6482
11425SOL     OW44588   5.472   9.718   2.627  0.5027 -0.0389 -0.2703
11425SOL    HW144589   5.481   9.813   2.628  0.6962 -0.0620  0.5790
11425SOL    HW244590   5.419   9.700   2.549  1.0140  0.7066 -0.8050
11426SOL     OW44591   8.055   3.203   6.605  0.0591 -0.5008 -0.0588
11426SOL    HW144592   8.040   3.263   6.533  0.8734  0.5296  0.5928
11426SOL    HW244593   8.138   3.160   6.584  0.3572 -0.1154  0.2892
11427SOL     OW44594   9.480  12.503   1.273 -0.1816  0.2155  0.5010
11427SOL    HW144595   9.469  12.547   1.357 -0.4818  1.2326 -0.0564
11427SOL    HW244596   9.455  12.568   1.208  1.6531  0.0052 -0.4790
11428SOL     OW44597   7.529   6.272   9.659  0.2016  0.5643  0.5338
11428SOL    HW144598   7.620   6.300   9.667  0.9641 -1.9357  1.7005
11428SOL    HW244599   7.535   6.177   9.650 -2.3817 -0.0380  3.6389
11429SOL     OW44600  12.481  11.998   9.104  0.0543 -0.1389 -0.3255
11429SOL    HW144601  12.412  11.998   9.037  0.0668  1.3495 -0.3749
11429SOL    HW244602  12.440  11.959   9.181 -0.1420 -1.3206 -1.0027
11430SOL     OW44603   0.626   0.255   0.683 -0.0705 -0.5994 -0.2424
11430SOL    HW144604   0.598   0.329   0.630  0.9863 -1.8326 -2.6540
11430SOL    HW244605   0.578   0.265   0.766 -0.0019  2.6944 -0.4858
11431SOL     OW44606   2.519   1.674  10.744 -0.1718  0.1627 -0.0726
11431SOL    HW144607   2.533   1.765  10.719 -0.8673  0.1389 -0.5670
11431SOL    HW244608   2.594   1.627  10.706  1.0936  0.7373  1.5835
11432SOL     OW44609   5.070  12.244   3.757  0.0869  0.2714  0.4582
11432SOL    HW144610   5.139  12.212   3.815  1.6351  0.8214 -1.0159
11432SOL    HW244611   5.059  12.336   3.781  0.7491  0.5068 -0.1254
11433SOL     OW44612  10.560   6.416   3.209 -0.5489 -0.5335 -1.0417
11433SOL    HW144613  10.573   6.322   3.216 -0.2580 -0.4114  0.5166
11433SOL    HW244614  10.506   6.428   3.131 -1.4519 -2.0881 -0.6933
11434SOL     OW44615   8.062   1.646   1.528  0.3379 -0.1346  0.3315
11434SOL    HW144616   8.150   1.663   1.561  0.6238 -0.7224 -0.1279
11434SOL    HW244617   8.051   1.552   1.534  0.3080 -0.2318 -1.0216
11435SOL     OW44618   3.213   4.187   7.122 -0.4505  0.6367 -0.2899
11435SOL    HW144619   3.130   4.208   7.165 -0.1365  1.0468  0.1370
11435SOL    HW244620   3.203   4.219   7.033 -1.4986 -1.1577 -0.8661
11436SOL     OW44621   0.906   8.217   5.949 -0.3304  0.1235  0.7022
11436SOL    HW144622   0.948   8.302   5.962 -1.1539  0.7849 -0.6596
11436SOL    HW244623   0.926   8.167   6.028  1.3535  1.0845  0.9319
11437SOL     OW44624   2.163   7.204   1.084  0.3618 -0.3192 -0.8814
11437SOL    HW144625   2.127   7.284   1.122  0.8218 -1.0564  1.3056
11437SOL    HW244626   2.091   7.164   1.037 -0.2977  0.6395 -0.7027
11438SOL     OW44627   3.147   8.056  10.070 -0.1182  0.0802 -0.1778
11438SOL    HW144628   3.141   8.027  10.161 -1.0075 -0.5581 -0.4235
11438SOL    HW244629   3.056   8.057  10.039 -0.1836  3.0804 -0.2301
11439SOL     OW44630  10.206   6.657   5.287 -0.5581 -0.3054  0.7332
11439SOL    HW144631  10.232   6.581   5.339  0.4801 -0.7092 -0.3421
11439SOL    HW244632  10.199   6.624   5.198 -2.1753  0.4140  0.5639
11440SOL     OW44633   7.490   3.295   4.524 -0.1801  0.8832  0.4423
11440SOL    HW144634   7.480   3.386   4.554 -0.3826  1.3517 -0.9552
11440SOL    HW244635   7.578   3.271   4.551  0.3867  1.9844 -0.3257
11441SOL     OW44636  10.279   6.825   3.878  0.2339 -0.0471 -0.0239
11441SOL    HW144637  10.337   6.839   3.953 -1.7374 -0.1378  1.5923
11441SOL    HW244638  10.283   6.731   3.863 -0.7862 -0.3220  1.2342
11442SOL     OW44639   8.349   9.449  12.652 -0.4467 -0.0531 -0.2367
11442SOL    HW144640   8.299   9.499  12.588 -3.1264 -0.9829  1.0012
11442SOL    HW244641   8.401   9.388  12.599 -1.1409  0.4587 -1.5631
11443SOL     OW44642   1.574   7.805   1.021 -0.3262  0.1065 -0.5440
11443SOL    HW144643   1.533   7.792   0.935 -1.4786  0.3690 -0.0495
11443SOL    HW244644   1.630   7.728   1.033 -2.9925 -1.8908  0.0505
11444SOL     OW44645   8.136  11.504   9.945 -0.0428  0.0448 -0.3027
11444SOL    HW144646   8.093  11.419   9.940  0.8927 -0.4229 -0.7261
11444SOL    HW244647   8.200  11.494  10.016  1.3218 -0.2254 -1.5067
11445SOL     OW44648   6.550  12.877   4.885 -0.2031 -0.0081 -0.1914
11445SOL    HW144649   6.534  12.787   4.914  2.2126 -0.1970  0.8253
11445SOL    HW244650   6.500  12.931   4.946  0.7477 -0.6101  1.1868
11446SOL     OW44651  10.014   0.909  11.344  0.1163  0.1886 -0.0965
11446SOL    HW144652  10.020   0.988  11.398  0.7935 -0.0771  0.2283
11446SOL    HW244653   9.925   0.877  11.360 -0.2935  1.0714 -0.5077
11447SOL     OW44654   7.164  12.762  11.005  0.4071  0.6105  0.6191
11447SOL    HW144655   7.139  12.699  11.073 -1.0992  0.3723 -0.1145
11447SOL    HW244656   7.084  12.811  10.987  0.3356 -0.3528 -2.0503
11448SOL     OW44657  10.571   0.475  11.571  0.2670  0.0254  0.2137
11448SOL    HW144658  10.538   0.564  11.558  2.1682  0.7011 -0.3401
11448SOL    HW244659  10.570   0.463  11.665  1.2958  1.2057  0.4114
11449SOL     OW44660  12.734  10.870   0.375  0.4753  0.8964  0.0407
11449SOL    HW144661  12.736  10.819   0.456  2.4980  0.6995 -0.0805
11449SOL    HW244662  12.716  10.960   0.404 -1.7577  0.4105  0.3745
11450SOL     OW44663   3.813   6.316  10.012 -0.1374 -0.3387 -0.6571
11450SOL    HW144664   3.744   6.312  10.079  1.8671  0.6414  1.6370
11450SOL    HW244665   3.842   6.226  10.001  0.3159 -0.4050  0.8061
11451SOL     OW44666   2.725   2.006  10.279  0.6505  0.0601 -0.5270
11451SOL    HW144667   2.735   1.951  10.357 -1.4993  2.2493  1.4927
11451SOL    HW244668   2.640   1.981  10.243  0.6382  0.5559 -0.8513
11452SOL     OW44669   2.426   2.307   7.676  0.6133  0.5858 -0.7294
11452SOL    HW144670   2.412   2.306   7.771  1.2321 -0.3742 -0.6276
11452SOL    HW244671   2.415   2.216   7.649 -1.6734  1.1343 -1.9448
11453SOL     OW44672   5.825   0.210   7.192  0.2030 -0.1827 -0.0969
11453SOL    HW144673   5.913   0.246   7.197  0.4085 -0.8747  2.1121
11453SOL    HW244674   5.836   0.116   7.206 -0.9902 -0.0549  2.3218
11454SOL     OW44675   3.836  11.032   6.460  0.2867 -0.2259  0.0470
11454SOL    HW144676   3.808  11.122   6.446 -0.3669 -0.3344  0.6109
11454SOL    HW244677   3.826  10.990   6.375  0.7834  0.2764 -0.2673
11455SOL     OW44678   2.513   1.431   0.483  0.0358 -0.3942 -0.6995
11455SOL    HW144679   2.532   1.453   0.391  1.6769 -0.0930 -0.3206
11455SOL    HW244680   2.422   1.456   0.495 -0.0110  0.2019 -2.0654
11456SOL     OW44681   9.943   0.687  11.173  0.0169  0.2996 -0.2041
11456SOL    HW144682  10.002   0.721  11.239  0.9344  3.1991 -2.3112
11456SOL    HW244683   9.999   0.636  11.114  0.2535  1.7776 -1.3433
11457SOL     OW44684   3.948  10.454   9.211  0.3868  0.2912  0.3086
11457SOL    HW144685   3.955  10.502   9.128  0.7849  0.9010  0.6900
11457SOL    HW244686   3.925  10.520   9.276 -3.6110 -0.6575  0.1631
11458SOL     OW44687  10.767   3.483   5.812 -0.3738 -0.3381 -0.0469
11458SOL    HW144688  10.852   3.523   5.799  0.4374 -1.8877  0.2338
11458SOL    HW244689  10.785   3.404   5.863 -1.5157 -2.4988 -2.7516
11459SOL     OW44690   6.130   2.496   4.857 -0.3411  0.3297 -0.0677
11459SOL    HW144691   6.112   2.403   4.842 -0.4348  0.4982 -1.0842
11459SOL    HW244692   6.214   2.512   4.813  0.5986  0.3330  1.6565
11460SOL     OW44693  11.004   7.697  12.801  0.3220 -0.3557  0.1680
11460SOL    HW144694  10.977   7.787  12.819 -2.3667 -0.7244 -1.5161
11460SOL    HW244695  11.007   7.655  12.887 -1.5355  0.5722  0.7241
11461SOL     OW44696   0.811   5.608   9.984  0.2682  0.6495 -0.0871
11461SOL    HW144697   0.834   5.552  10.059  1.3095  1.2191  0.0293
11461SOL    HW244698   0.844   5.560   9.908 -1.1541 -0.1299 -0.2532
11462SOL     OW44699  12.739   4.319  12.242 -0.5981  0.5469  0.4583
11462SOL    HW144700  12.776   4.326  12.331 -0.2475  1.9813  0.2292
11462SOL    HW244701  12.794   4.253  12.199  0.5607  1.3169  0.6974
11463SOL     OW44702   7.710  12.070   4.497 -0.1144 -0.3449  0.1294
11463SOL    HW144703   7.633  12.123   4.480  1.0858  1.5249  0.3012
11463SOL    HW244704   7.718  12.013   4.421 -0.7923  0.5234 -0.6016
11464SOL     OW44705   1.427   1.812   5.660  0.4171  0.0176 -0.7108
11464SOL    HW144706   1.413   1.828   5.753  0.8122 -3.3503  0.0471
11464SOL    HW244707   1.346   1.841   5.619  0.3618  1.8760  0.5844
11465SOL     OW44708   1.807   8.504   6.517  0.4699 -0.2230 -0.4677
11465SOL    HW144709   1.827   8.594   6.491  1.0535  0.2954  1.5858
11465SOL    HW244710   1.889   8.469   6.551  0.2613 -1.5756 -1.2786
11466SOL     OW44711   9.389  11.871  10.688  0.3348  0.2994 -0.2657
11466SOL    HW144712   9.313  11.906  10.642 -0.0683  1.1741  1.0089
11466SOL    HW244713   9.409  11.936  10.755  1.3367 -0.5858  0.3345
11467SOL     OW44714   7.120   2.310   9.097 -0.1501 -0.2016  0.4854
11467SOL    HW144715   7.056   2.381   9.101 -0.2950 -0.3117  0.1106
11467SOL    HW244716   7.111   2.274   9.009 -0.5177 -1.0846  0.8662
11468SOL     OW44717   5.229   7.538   2.975  0.4421 -0.0826  0.2465
11468SOL    HW144718   5.178   7.473   3.023  2.0277 -0.3174  1.7389
11468SOL    HW244719   5.214   7.620   3.022  0.4853  0.0928 -0.0451
11469SOL     OW44720   8.336  11.610   7.367  0.2340 -0.0166 -0.1854
11469SOL    HW144721   8.379  11.559   7.435  0.9419  1.2215  0.3412
11469SOL    HW244722   8.310  11.691   7.410 -1.1729 -0.0495 -0.9059
11470SOL     OW44723   9.538   2.863   6.190  0.1281  0.3938 -0.3313
11470SOL    HW144724   9.477   2.809   6.141 -0.0484 -0.4482  0.8029
11470SOL    HW244725   9.585   2.802   6.247  0.2460  1.3587  0.6403
11471SOL     OW44726   3.590   2.671   3.243  0.6691 -0.0645 -0.1880
11471SOL    HW144727   3.640   2.696   3.321 -0.0578  1.3984 -0.1605
11471SOL    HW244728   3.568   2.754   3.201 -1.9042 -0.6006 -0.0887
11472SOL     OW44729  12.421   6.472   3.731 -0.4868  0.2552 -0.5926
11472SOL    HW144730  12.379   6.556   3.748  0.5122  0.5045  0.7551
11472SOL    HW244731  12.493   6.493   3.671  0.3910  0.5507  0.5376
11473SOL     OW44732  10.360   0.809   1.341  0.2627 -0.0806  0.5498
11473SOL    HW144733  10.436   0.751   1.345  0.3313  0.0821  2.2578
11473SOL    HW244734  10.377   0.865   1.265  1.0508 -1.1136 -0.0646
11474SOL     OW44735   2.789   7.475  12.660 -0.3893 -0.2995 -0.6482
11474SOL    HW144736   2.849   7.475  12.585 -1.0712  0.9422 -1.2272
11474SOL    HW244737   2.841   7.440  12.733  0.3131 -1.4745 -1.6626
11475SOL     OW44738   5.192   2.841   8.387 -0.2094  0.0059 -0.4585
11475SOL    HW144739   5.249   2.870   8.458 -1.2083  0.3791  0.2141
11475SOL    HW244740   5.138   2.772   8.425 -0.5615  0.0087 -0.9396
11476SOL     OW44741  11.017   3.779   2.635  0.0990  0.1315 -0.9023
11476SOL    HW144742  11.031   3.684   2.637 -0.2848  0.0826  0.7125
11476SOL    HW244743  11.001   3.798   2.543  2.0979 -1.0729 -1.5841
11477SOL     OW44744  12.153   2.559   7.212 -0.3126 -0.4981  0.0528
11477SOL    HW144745  12.143   2.511   7.294 -1.5916 -0.1240  0.1512
11477SOL    HW244746  12.084   2.525   7.155  1.5767 -1.9272 -1.5033
11478SOL     OW44747  12.754   0.447   1.093 -0.1463  0.5718 -0.1102
11478SOL    HW144748  12.732   0.477   1.005 -1.0642  0.3037  0.0124
11478SOL    HW244749  12.806   0.518   1.131  0.4842  0.5783 -0.9464
11479SOL     OW44750   7.084   3.022   4.695 -0.1472  0.0745  0.0352
11479SOL    HW144751   7.138   3.100   4.707  0.6402 -0.7036  2.0491
11479SOL    HW244752   7.030   3.018   4.774  1.0039 -2.2443  0.8247
11480SOL     OW44753   0.264  11.702  12.496  0.4317  0.1639 -0.1459
11480SOL    HW144754   0.276  11.797  12.505 -1.1047  0.4064 -0.4538
11480SOL    HW244755   0.192  11.692  12.434  0.7240 -1.2153 -0.2965
11481SOL     OW44756   5.379   6.366  10.049  0.3344 -0.7015  0.3103
11481SOL    HW144757   5.448   6.418  10.009 -1.4142  1.1501 -0.4653
11481SOL    HW244758   5.311   6.361   9.982 -0.4010 -2.2818  1.1243
11482SOL     OW44759  11.349   9.988  10.119 -0.0891 -0.5679  0.0422
11482SOL    HW144760  11.268   9.989  10.069 -0.5681  1.4846  0.7610
11482SOL    HW244761  11.329   9.933  10.195 -1.7273  1.8710  1.5041
11483SOL     OW44762  11.689   1.281   9.549  0.4586 -0.4240  0.5059
11483SOL    HW144763  11.677   1.305   9.457  0.2262  0.7839  0.8229
11483SOL    HW244764  11.649   1.195   9.557 -1.8877  0.5277  0.0006
11484SOL     OW44765  11.008   7.189   8.203 -0.7000 -0.4729 -0.5815
11484SOL    HW144766  11.035   7.106   8.243 -1.5685 -0.3880  0.2249
11484SOL    HW244767  10.938   7.221   8.260 -0.0283  1.0869 -0.5758
11485SOL     OW44768  11.666   0.030   0.255 -0.1625 -0.8176 -0.0160
11485SOL    HW144769  11.726   0.102   0.275 -0.1228 -0.4781 -1.2567
11485SOL    HW244770  11.702  -0.045   0.302  0.8352 -0.4455 -0.1626
11486SOL     OW44771   0.599  10.120   7.469 -0.2884 -0.3418  1.0711
11486SOL    HW144772   0.629  10.187   7.407 -2.3221  0.3380  0.7600
11486SOL    HW244773   0.657  10.131   7.545  0.8043  0.3051  0.1832
11487SOL     OW44774   2.444   7.809   8.966  0.4641 -0.1870 -0.5834
11487SOL    HW144775   2.465   7.798   8.874 -1.3050  0.5619 -1.1290
11487SOL    HW244776   2.367   7.867   8.966 -0.5010 -1.3509  1.2645
11488SOL     OW44777  10.380   5.623   6.111  0.2818  0.2024 -0.1127
11488SOL    HW144778  10.304   5.645   6.057  0.7849 -0.5028 -1.1506
11488SOL    HW244779  10.345   5.564   6.178 -0.8320  2.9613  1.9373
11489SOL     OW44780  11.312   4.212   0.033  0.4661 -0.4156  0.2754
11489SOL    HW144781  11.368   4.250   0.101  0.1243  1.2016 -0.3026
11489SOL    HW244782  11.305   4.281  -0.033  2.3985 -2.5861 -2.4296
11490SOL     OW44783   4.591   0.040   4.700  0.5011 -0.2288 -0.1146
11490SOL    HW144784   4.621   0.074   4.785  1.2931  0.8488 -0.7962
11490SOL    HW244785   4.513   0.091   4.680  0.0203 -0.8283  0.1742
11491SOL     OW44786  12.217   8.895   5.168  0.3952 -0.1076 -0.3235
11491SOL    HW144787  12.232   8.857   5.081  0.1135 -0.8584 -0.0509
11491SOL    HW244788  12.130   8.864   5.193  0.3181  0.4091  0.0740
11492SOL     OW44789  12.530   9.028   7.138 -0.2039  0.1782 -0.4540
11492SOL    HW144790  12.612   9.002   7.180 -0.7657 -1.4080 -0.2698
11492SOL    HW244791  12.555   9.053   7.049  0.3430 -1.6202 -0.8403
11493SOL     OW44792  12.368   4.872   1.105  0.0752 -0.0870  0.1708
11493SOL    HW144793  12.402   4.882   1.194  0.4375 -0.0162  0.0271
11493SOL    HW244794  12.440   4.900   1.048 -0.0255 -0.4715 -0.1551
11494SOL     OW44795   4.868  11.011   1.707 -0.2956 -0.2139 -0.1043
11494SOL    HW144796   4.881  10.984   1.616 -0.8963 -1.2788  0.1112
11494SOL    HW244797   4.877  11.107   1.704  0.4096 -0.2877 -1.1470
11495SOL     OW44798   9.906   3.040  10.419  0.2945  0.1055 -0.1127
11495SOL    HW144799   9.816   3.047  10.452  0.4320  0.9497  0.1118
11495SOL    HW244800   9.919   3.120  10.368  0.8390 -0.1279 -0.3474
11496SOL     OW44801   3.372   1.427   4.215  0.5151 -0.1409  1.0865
11496SOL    HW144802   3.350   1.359   4.152 -1.4171 -0.7213  2.2704
11496SOL    HW244803   3.428   1.488   4.167  0.7834 -1.5899 -0.5470
11497SOL     OW44804   3.009   5.116   5.983  0.1782 -0.5684 -0.1881
11497SOL    HW144805   3.049   5.127   6.069 -1.0342 -1.3334  0.5081
11497SOL    HW244806   3.076   5.146   5.921  2.3010 -2.8830  0.8136
11498SOL     OW44807   4.797   9.517  11.863 -0.1011  0.6727  0.3075
11498SOL    HW144808   4.883   9.558  11.868  1.2406 -1.4044 -2.6606
11498SOL    HW244809   4.740   9.583  11.824  1.4487  0.6279 -2.2773
11499SOL     OW44810   5.917   9.472  10.537  0.1252  0.1242  0.1236
11499SOL    HW144811   5.882   9.515  10.615  1.6178  3.2891 -0.7647
11499SOL    HW244812   5.846   9.478  10.473 -0.1350  0.1036  0.4088
11500SOL     OW44813   8.350   0.463   0.583 -0.2686 -0.4474  0.5364
11500SOL    HW144814   8.434   0.483   0.540 -0.7294  1.4828  0.4791
11500SOL    HW244815   8.315   0.390   0.531  0.9471 -0.7056  0.0160
11501SOL     OW44816   1.238   5.010   2.026  0.3448  0.4014  0.0883
11501SOL    HW144817   1.191   4.960   2.092 -1.3336  1.0187 -0.5912
11501SOL    HW244818   1.237   5.100   2.058  0.2012  0.5766 -0.3926
11502SOL     OW44819   3.262   3.757   0.622  0.3381 -0.2105 -0.4481
11502SOL    HW144820   3.317   3.709   0.683  3.4235 -1.2438 -3.7426
11502SOL    HW244821   3.190   3.697   0.601 -0.2675 -0.1696  1.3377
11503SOL     OW44822   8.021   6.605   2.424 -0.2787 -0.1141 -0.4553
11503SOL    HW144823   8.103   6.640   2.389  0.9803 -2.1346  0.3073
11503SOL    HW244824   8.048   6.549   2.497 -1.9625 -3.4505 -2.1522
11504SOL     OW44825   8.348   4.206   5.872 -0.0226 -0.0030 -0.4658
11504SOL    HW144826   8.287   4.134   5.864  0.7765 -0.9166  1.1601
11504SOL    HW244827   8.434   4.166   5.857  0.7700 -0.1959  3.4943
11505SOL     OW44828   6.600   2.556   4.467 -0.2160 -0.0552  0.3942
11505SOL    HW144829   6.647   2.504   4.531  0.8007  0.0603 -0.2389
11505SOL    HW244830   6.668   2.591   4.409 -1.0788  0.0598 -0.5813
11506SOL     OW44831   5.975  10.291  12.881  0.1395  0.0583  0.0381
11506SOL    HW144832   5.946  10.333  12.800 -1.0933  0.3729  0.6241
11506SOL    HW244833   6.070  10.297  12.879  0.1417 -0.1248 -1.4883
11507SOL     OW44834  11.052   2.516  12.686  0.3550 -0.1519 -0.3552
11507SOL    HW144835  11.116   2.446  12.671 -0.3062 -1.1616  1.2351
11507SOL    HW244836  10.968   2.474  12.670 -0.0950  0.0478  1.2979
11508SOL     OW44837   1.057   0.345   2.483  0.2836 -0.5465  0.0104
11508SOL    HW144838   1.078   0.435   2.509  1.8430 -1.0106  0.4932
11508SOL    HW244839   1.132   0.293   2.514  0.6112 -1.6642 -2.4484
11509SOL     OW44840  10.948   8.008  11.970 -0.1273  0.3160 -0.8502
11509SOL    HW144841  10.876   7.944  11.969 -1.1313  1.3755  0.3259
11509SOL    HW244842  10.978   8.010  11.879  1.2876 -3.2281 -0.6139
11510SOL     OW44843   8.253   4.577   2.633  0.0546 -0.3776  0.2750
11510SOL    HW144844   8.190   4.523   2.586  0.8690 -0.0270 -1.2887
11510SOL    HW244845   8.319   4.600   2.567  1.7087 -0.5536  1.7957
11511SOL     OW44846   3.819   4.843   5.202  0.0661  0.1499 -0.5382
11511SOL    HW144847   3.914   4.840   5.213 -0.0248  1.7041  1.2916
11511SOL    HW244848   3.802   4.792   5.123  2.3493 -0.7033 -0.5563
11512SOL     OW44849  10.080  12.851   2.727  0.4477  0.3271 -0.3875
11512SOL    HW144850  10.040  12.861   2.640 -1.5379 -0.1357  0.4139
11512SOL    HW244851  10.021  12.898   2.786  0.0758 -1.8561  1.1104
11513SOL     OW44852   9.465   8.647   1.989  0.1632  0.0944 -0.3223
11513SOL    HW144853   9.422   8.665   1.906  0.0768 -0.3223 -0.3712
11513SOL    HW244854   9.429   8.563   2.017  0.8034 -0.1685 -0.2694
11514SOL     OW44855   0.664   8.255   8.295  0.0455  0.0548 -0.3269
11514SOL    HW144856   0.705   8.170   8.311  0.2085  0.1329 -0.3258
11514SOL    HW244857   0.633   8.250   8.205  0.2812  0.0864 -0.4107
11515SOL     OW44858  10.801  10.099   6.272  0.0265  0.0163 -0.6680
11515SOL    HW144859  10.824  10.050   6.351 -0.3611 -1.3505 -1.3778
11515SOL    HW244860  10.882  10.101   6.221  0.6633  2.0646  0.3010
11516SOL     OW44861   2.842   6.230   7.743 -0.8072  0.1301  0.0742
11516SOL    HW144862   2.874   6.146   7.709 -0.3621  1.0472 -1.8580
11516SOL    HW244863   2.747   6.220   7.745 -0.7456 -0.5187  0.1526
11517SOL     OW44864   9.806   3.237   4.529 -0.2283  0.0960  0.4427
11517SOL    HW144865   9.717   3.256   4.501  0.3663  1.1912 -0.8519
11517SOL    HW244866   9.825   3.150   4.492  0.0323  0.8906 -1.3815
11518SOL     OW44867   9.133   5.433   2.734 -0.2874  0.0795 -0.1294
11518SOL    HW144868   9.071   5.455   2.664 -0.4176  0.1385  0.0034
11518SOL    HW244869   9.219   5.441   2.693 -0.3798 -0.3449 -0.4132
11519SOL     OW44870  12.462   6.107   8.995 -0.3261  0.6683  0.3149
11519SOL    HW144871  12.436   6.164   8.923 -0.3914  1.9689  1.3364
11519SOL    HW244872  12.458   6.163   9.073 -0.6672 -0.8088  1.4010
11520SOL     OW44873   3.081   1.020   6.701  0.3933 -0.0876 -0.0343
11520SOL    HW144874   3.028   0.946   6.671 -1.9508  0.7668  1.6684
11520SOL    HW244875   3.050   1.094   6.649 -0.5729  0.5394  1.3872
11521SOL     OW44876   7.090   1.654   3.787  0.0406 -0.0773 -0.5714
11521SOL    HW144877   6.997   1.632   3.781 -0.0362 -0.0247  0.2955
11521SOL    HW244878   7.093   1.747   3.764 -0.1793  0.0176 -0.2335
11522SOL     OW44879   1.512  12.758   1.063  0.0463  0.0475  0.3938
11522SOL    HW144880   1.455  12.782   1.136 -1.8814  1.1293 -1.3794
11522SOL    HW244881   1.462  12.694   1.012  0.8312  0.2470 -0.6713
11523SOL     OW44882   3.109   1.214   2.129 -0.0069 -0.1929 -0.0614
11523SOL    HW144883   3.200   1.228   2.105 -0.0855  1.2273  0.3827
11523SOL    HW244884   3.113   1.162   2.209  0.4155 -0.1215 -0.0331
11524SOL     OW44885   6.893  12.849  11.086 -0.6821  0.1634 -0.2275
11524SOL    HW144886   6.935  12.854  11.172 -0.4013 -1.3659 -0.2503
11524SOL    HW244887   6.858  12.937  11.071 -0.0098  0.6750  1.0764
11525SOL     OW44888   0.467   1.986   7.426 -0.5323  0.1161  0.3507
11525SOL    HW144889   0.528   1.912   7.427  0.4514  0.9002  1.4302
11525SOL    HW244890   0.415   1.973   7.347  0.1332 -1.3084  0.1076
11526SOL     OW44891   6.302   8.726   3.555  0.6993  0.3728  0.1725
11526SOL    HW144892   6.291   8.715   3.649 -0.2355 -0.6202 -0.0211
11526SOL    HW244893   6.219   8.765   3.526  0.9635  0.6318 -0.2367
11527SOL     OW44894   3.794   3.957   3.219  0.5630  0.5571 -0.4100
11527SOL    HW144895   3.868   3.976   3.276  0.3171  0.1203  0.0644
11527SOL    HW244896   3.728   3.920   3.278  0.6680 -0.8477 -1.1294
11528SOL     OW44897  12.274   1.748   6.997  0.5086  0.2433 -0.5205
11528SOL    HW144898  12.337   1.756   6.926  0.0830 -1.5068 -1.1621
11528SOL    HW244899  12.326   1.753   7.077  1.2539  0.2821 -1.0030
11529SOL     OW44900   0.230   2.167   0.556 -0.7512  0.0256 -0.0475
11529SOL    HW144901   0.203   2.176   0.648 -1.5821 -0.9179 -0.1854
11529SOL    HW244902   0.324   2.186   0.557 -0.4794 -1.2412  1.2140
11530SOL     OW44903   2.557   1.432   2.885 -0.0672 -0.7635 -0.3635
11530SOL    HW144904   2.538   1.385   2.967 -0.9757 -1.2292 -0.8258
11530SOL    HW244905   2.614   1.372   2.837 -0.4736 -1.0013 -0.5568
11531SOL     OW44906   6.226   0.765  12.832  0.2384  0.3600 -0.1100
11531SOL    HW144907   6.202   0.708  12.905 -0.1247  0.2424 -0.3186
11531SOL    HW244908   6.318   0.746  12.816 -0.3502 -1.6761 -1.4990
11532SOL     OW44909  10.228   1.763   1.974 -0.2639 -0.2613 -0.0721
11532SOL    HW144910  10.256   1.683   1.930  0.0541 -1.1226  1.6296
11532SOL    HW244911  10.195   1.819   1.903 -0.8776 -2.0349 -1.2575
11533SOL     OW44912  11.259   2.203   9.421 -0.4878 -0.2790 -0.4502
11533SOL    HW144913  11.329   2.237   9.365 -0.2246  1.3822  0.8362
11533SOL    HW244914  11.184   2.196   9.363 -0.0501  0.7727 -1.1797
11534SOL     OW44915   5.536   6.530   7.194  0.3493  0.1865  0.0927
11534SOL    HW144916   5.591   6.608   7.196 -0.4620  0.7695  1.1528
11534SOL    HW244917   5.586   6.464   7.242  0.1234  0.7290  1.1018
11535SOL     OW44918   0.499   4.499  12.593 -0.4486 -0.3061  0.5061
11535SOL    HW144919   0.436   4.512  12.522 -0.6955 -1.3874  0.5190
11535SOL    HW244920   0.537   4.413  12.577  1.6216  0.6212  0.0507
11536SOL     OW44921   4.580   3.494   5.695  0.1782  0.2973 -0.0019
11536SOL    HW144922   4.487   3.513   5.708  0.0109 -0.8561  0.5537
11536SOL    HW244923   4.623   3.579   5.700 -0.8798  0.8755 -0.5464
11537SOL     OW44924   3.444  10.109   2.709  0.4500  0.0831  0.5802
11537SOL    HW144925   3.458  10.026   2.756 -0.3298  0.5339  1.6664
11537SOL    HW244926   3.495  10.173   2.759  1.0965  0.2627 -0.2907
11538SOL     OW44927   3.746   6.097   2.885  0.0157 -0.7884 -0.3800
11538SOL    HW144928   3.766   6.170   2.827  2.7606  0.2182  1.5601
11538SOL    HW244929   3.674   6.051   2.843 -1.4993  2.6981 -1.9835
11539SOL     OW44930   8.706  10.351  10.722  0.2691 -0.0166 -0.5317
11539SOL    HW144931   8.643  10.422  10.736  0.4947  0.1644 -0.4276
11539SOL    HW244932   8.749  10.374  10.639  0.8928  0.3826 -0.1034
11540SOL     OW44933   6.252   9.197   3.610 -0.0959 -0.2031 -0.1369
11540SOL    HW144934   6.258   9.117   3.662  1.7050 -0.3516 -0.5237
11540SOL    HW244935   6.342   9.216   3.583  0.0576  3.5032  2.2241
11541SOL     OW44936  11.268   9.655  10.624  0.2538 -0.0914 -0.0887
11541SOL    HW144937  11.251   9.728  10.684 -0.5213 -0.4563  0.1502
11541SOL    HW244938  11.320   9.593  10.676 -1.6564 -1.0869  0.7464
11542SOL     OW44939   5.551   0.324   6.677  0.2771 -0.4142  0.1848
11542SOL    HW144940   5.465   0.365   6.672  0.2104 -0.4332  0.9746
11542SOL    HW244941   5.613   0.397   6.680  0.2177 -0.3811  0.6684
11543SOL     OW44942   4.838   5.949   0.070  0.0231  0.0362 -0.3807
11543SOL    HW144943   4.865   6.013   0.004  0.7949 -0.4635 -0.5663
11543SOL    HW244944   4.895   5.966   0.145 -1.1773  0.9246  0.3788
11544SOL     OW44945   9.518   3.094   1.200  0.0236  0.5531  0.2219
11544SOL    HW144946   9.606   3.065   1.221  0.0795  1.5424  1.5312
11544SOL    HW244947   9.483   3.126   1.284 -0.6333  2.5717 -0.7640
11545SOL     OW44948  10.209  11.027   3.594  0.1631  0.3740  0.3853
11545SOL    HW144949  10.174  11.016   3.683 -0.1011  0.1422  0.2551
11545SOL    HW244950  10.219  11.121   3.584  2.6785  0.3227  1.6078
11546SOL     OW44951   7.700  11.250   2.062  0.0199  0.5089  0.3288
11546SOL    HW144952   7.721  11.279   2.150  1.9518  0.4597 -0.0754
11546SOL    HW244953   7.776  11.198   2.034 -1.1590 -0.6811 -0.8462
11547SOL     OW44954   6.806   7.551   1.885 -0.5355 -0.5333 -0.2906
11547SOL    HW144955   6.853   7.484   1.837  0.9113  0.6208 -0.5554
11547SOL    HW244956   6.872   7.593   1.940 -1.2213  1.0981 -0.6286
11548SOL     OW44957   3.710  11.969   5.806  0.0490  0.1742  0.2941
11548SOL    HW144958   3.798  11.966   5.843 -0.2830  2.6497  1.5285
11548SOL    HW244959   3.669  11.887   5.833  1.5225 -0.4101  0.8417
11549SOL     OW44960   3.359   1.055   8.613  0.1333  0.0498  0.5102
11549SOL    HW144961   3.373   1.059   8.518  0.7359 -1.2250  0.5245
11549SOL    HW244962   3.318   1.139   8.634 -2.4352 -0.6183 -1.2746
11550SOL     OW44963   8.219   0.752  10.617  0.0868  0.0299  0.2663
11550SOL    HW144964   8.162   0.712  10.551 -0.9989 -0.3883  1.4315
11550SOL    HW244965   8.274   0.812  10.566  0.3326 -1.3816 -1.2352
11551SOL     OW44966  12.910   1.002   1.109  0.1064 -0.1411 -0.3922
11551SOL    HW144967  12.916   1.032   1.018  0.4296  0.0492 -0.3082
11551SOL    HW244968  12.826   1.035   1.139  0.0747 -0.0567 -0.5693
11552SOL     OW44969   3.134   6.126   9.433 -0.1310 -0.2065  0.3456
11552SOL    HW144970   3.053   6.167   9.461  1.0225  1.0288  2.0822
11552SOL    HW244971   3.106   6.053   9.377 -2.4285 -0.2633  1.4596
11553SOL     OW44972   3.379   3.624   2.021 -0.4543 -0.0710  0.4060
11553SOL    HW144973   3.377   3.619   2.117 -0.0744  0.4004  0.4420
11553SOL    HW244974   3.349   3.712   2.001  2.5275  1.0104  0.2470
11554SOL     OW44975   9.344   0.690   0.800 -0.2102 -0.7566 -0.1939
11554SOL    HW144976   9.383   0.773   0.825  0.6065 -0.6568 -1.6924
11554SOL    HW244977   9.255   0.712   0.774 -1.3518 -0.9533  3.0336
11555SOL     OW44978   4.744   0.797  11.659 -0.5369  0.4677  0.6769
11555SOL    HW144979   4.673   0.767  11.602  0.2821 -0.7142  0.2620
11555SOL    HW244980   4.775   0.718  11.703  0.4776  0.9925  0.9226
11556SOL     OW44981   0.176   4.502   0.678  0.3600 -0.2965  0.1663
11556SOL    HW144982   0.176   4.433   0.613 -0.6686  0.6800 -0.9120
11556SOL    HW244983   0.153   4.458   0.760  0.9729 -1.4217 -0.2551
11557SOL     OW44984   6.016   4.953   3.760 -0.3374  0.0526 -0.4389
11557SOL    HW144985   6.080   4.883   3.745 -0.4384  0.3220 -2.3744
11557SOL    HW244986   6.067   5.023   3.801 -0.2027 -1.0341  1.3809
11558SOL     OW44987   3.625   6.717   1.864  0.6381  0.1961 -0.0727
11558SOL    HW144988   3.700   6.680   1.817  0.4914 -1.8354  1.1708
11558SOL    HW244989   3.630   6.811   1.847  2.0190 -0.1798 -2.0284
11559SOL     OW44990   2.301  12.451   8.941 -0.7725  0.1185  0.1200
11559SOL    HW144991   2.262  12.433   9.027 -1.1805 -0.6834 -0.2285
11559SOL    HW244992   2.321  12.365   8.905  0.9257  0.5014  0.0865
11560SOL     OW44993  11.243   5.105  10.151  0.0389  0.0435 -0.2025
11560SOL    HW144994  11.238   5.170  10.221  3.2213  1.3212 -0.9826
11560SOL    HW244995  11.194   5.144  10.078 -1.2789 -0.2260  0.5105
11561SOL     OW44996  10.581  10.943   9.236  0.1708  0.1030  0.4879
11561SOL    HW144997  10.648  11.009   9.255 -0.7105  0.9979  0.5196
11561SOL    HW244998  10.631  10.869   9.200  1.3121  0.2855  1.6203
11562SOL     OW44999   9.552   2.892   0.230  0.5888  0.7329  0.1650
11562SOL    HW145000   9.640   2.860   0.252 -0.2920 -1.0730  1.3315
11562SOL    HW245001   9.533   2.957   0.297  1.5877  2.3082 -1.0037
11563SOL     OW45002   2.163   3.774   5.897  0.8502  0.1109  0.2895
11563SOL    HW145003   2.097   3.768   5.966  0.5788  0.1789  0.0386
11563SOL    HW245004   2.218   3.696   5.910  0.8338  0.1516  0.6125
11564SOL     OW45005  12.401   4.867   8.446  0.2649 -0.1725 -0.4024
11564SOL    HW145006  12.420   4.946   8.498 -1.8118  0.3774 -0.3776
11564SOL    HW245007  12.486   4.823   8.438  1.0864  0.9071  1.4911
11565SOL     OW45008  12.926  11.061   0.199 -0.1521 -0.2580  0.6257
11565SOL    HW145009  12.847  11.063   0.254 -0.5645 -1.6130  0.1377
11565SOL    HW245010  12.893  11.045   0.111  0.5588  1.1436  0.0749
11566SOL     OW45011   8.203   1.160   2.604  0.7798 -0.2474  0.2993
11566SOL    HW145012   8.140   1.232   2.616  1.7094  0.2371  3.2315
11566SOL    HW245013   8.251   1.157   2.687  2.9515 -2.2144 -0.9137
11567SOL     OW45014   8.947  11.164  10.382  0.7757 -0.3191 -0.5312
11567SOL    HW145015   8.925  11.145  10.291  2.0257  0.2951 -0.9883
11567SOL    HW245016   8.865  11.150  10.430  0.3166 -1.5100 -1.6045
11568SOL     OW45017   4.669   5.083   3.407  0.0986  0.1269 -0.5442
11568SOL    HW145018   4.648   5.101   3.316 -0.5692 -2.1474 -0.8995
11568SOL    HW245019   4.764   5.087   3.412  0.0854  1.4706 -1.0318
11569SOL     OW45020   6.942  12.166   9.658  0.0646 -0.3313  0.0019
11569SOL    HW145021   6.892  12.226   9.602  0.8416  0.8771  0.5662
11569SOL    HW245022   6.875  12.115   9.703 -0.6655  0.6822  0.1157
11570SOL     OW45023  12.250   7.926  10.945  0.3347  0.1079 -0.8902
11570SOL    HW145024  12.303   7.848  10.963  1.5085  0.6227 -1.9104
11570SOL    HW245025  12.259   7.980  11.024 -1.1873 -1.1145  0.1794
11571SOL     OW45026   5.273   2.978   0.457  0.5872  0.1400 -0.0223
11571SOL    HW145027   5.366   2.956   0.452  0.3812 -1.0516  0.9854
11571SOL    HW245028   5.249   2.963   0.548  0.1098  3.4791  0.5415
11572SOL     OW45029   1.179  10.654   3.469 -0.3709  0.7258 -0.4610
11572SOL    HW145030   1.210  10.698   3.548 -1.1306  2.0416 -0.8650
11572SOL    HW245031   1.087  10.638   3.485 -0.4856  0.8343 -0.9976
11573SOL     OW45032   3.197   1.766   6.793  0.2170 -0.2531  0.3841
11573SOL    HW145033   3.222   1.825   6.864 -0.7562  0.2583  0.3164
11573SOL    HW245034   3.280   1.737   6.755  0.7653 -0.8611  1.9835
11574SOL     OW45035   7.905   8.708  11.828 -0.2116 -0.0214  0.8109
11574SOL    HW145036   7.852   8.772  11.780  0.0223  0.8654  1.6955
11574SOL    HW245037   7.896   8.627  11.778 -0.7947  0.6137 -0.1498
11575SOL     OW45038  10.192   2.043  11.967 -0.0959  0.4747 -0.0732
11575SOL    HW145039  10.137   2.050  11.889  0.8550 -3.8976 -1.4108
11575SOL    HW245040  10.160   1.964  12.011  2.3405  0.2385  1.4163
11576SOL     OW45041   8.471   9.965   2.440 -0.3942  0.3155  0.0349
11576SOL    HW145042   8.487  10.001   2.353 -0.9511 -0.8846 -0.5800
11576SOL    HW245043   8.388   9.918   2.433  0.4119 -1.3191  0.7012
11577SOL     OW45044   1.829   6.185  12.260  0.2854 -0.3988  0.2638
11577SOL    HW145045   1.859   6.145  12.178 -0.2133 -0.1396 -0.0533
11577SOL    HW245046   1.867   6.272  12.260  1.4184 -0.8754  0.9820
11578SOL     OW45047   6.781  11.806   8.724 -0.7806  0.1366  0.0519
11578SOL    HW145048   6.873  11.825   8.703 -0.2792 -1.0102  1.0668
11578SOL    HW245049   6.770  11.714   8.700 -1.5398  0.1404  0.3674
11579SOL     OW45050  10.681   6.379   9.994 -0.5765  0.1783 -0.1602
11579SOL    HW145051  10.588   6.371  10.016 -0.4445 -0.2913  0.2339
11579SOL    HW245052  10.721   6.423  10.068 -0.1415 -1.3732  0.5761
11580SOL     OW45053   3.768   6.952   7.523  0.1864  0.2817 -0.2480
11580SOL    HW145054   3.812   6.869   7.506  2.7911  1.5254 -0.1135
11580SOL    HW245055   3.761   6.957   7.618  0.7276  0.5148 -0.2145
11581SOL     OW45056  11.962   0.223   5.302  0.6300 -0.3222 -0.0523
11581SOL    HW145057  11.972   0.290   5.235  2.2335 -0.7123 -0.2649
11581SOL    HW245058  11.950   0.142   5.252  0.4022 -0.4128  0.1543
11582SOL     OW45059  11.759   0.055   3.319 -0.0824 -0.0286  0.0366
11582SOL    HW145060  11.778   0.148   3.332 -1.1806 -0.0066  1.7243
11582SOL    HW245061  11.789   0.037   3.230 -0.8216  2.1933 -0.7322
11583SOL     OW45062  12.667   9.599   8.383 -0.0807  0.1328  0.0158
11583SOL    HW145063  12.625   9.514   8.400  0.0257  0.4018  1.8022
11583SOL    HW245064  12.620   9.634   8.307 -2.2460 -0.1583  1.1290
11584SOL     OW45065   2.779   9.243   3.278  0.3947  0.0594  0.7713
11584SOL    HW145066   2.844   9.199   3.334  1.5291  0.2183 -0.3692
11584SOL    HW245067   2.743   9.172   3.225 -0.1592  0.0189  1.1984
11585SOL     OW45068  10.638   4.519   5.270 -0.2044  0.0509  0.0023
11585SOL    HW145069  10.601   4.480   5.191 -2.2089  0.3008  0.7580
11585SOL    HW245070  10.675   4.445   5.318 -0.4223 -0.3377 -0.4182
11586SOL     OW45071   3.447   4.371   3.434  0.1035  0.2498 -0.1655
11586SOL    HW145072   3.467   4.370   3.341  0.6972 -1.0853 -0.0352
11586SOL    HW245073   3.361   4.330   3.441  1.0519 -1.7870  0.0666
11587SOL     OW45074   4.966   3.104  10.552 -0.5235 -0.1382  0.3997
11587SOL    HW145075   4.908   3.153  10.610 -0.9576 -0.0667 -0.0869
11587SOL    HW245076   4.916   3.026  10.528 -0.4775 -0.0171 -0.1183
11588SOL     OW45077   6.240   9.091  10.687 -0.0392  0.2388  0.1094
11588SOL    HW145078   6.294   9.041  10.748 -1.6159 -1.0694  0.5326
11588SOL    HW245079   6.292   9.096  10.607  2.7702  3.3332  1.8744
11589SOL     OW45080  12.502  10.535  11.849 -0.5821  0.2248  0.1282
11589SOL    HW145081  12.477  10.627  11.843  0.3317  0.4818  0.0412
11589SOL    HW245082  12.519  10.509  11.759 -1.2560 -0.1556  0.1092
11590SOL     OW45083   5.547   9.003   0.244  0.0144 -0.6737  0.0263
11590SOL    HW145084   5.635   9.012   0.281 -0.1029  0.0038  0.1461
11590SOL    HW245085   5.555   9.040   0.156  0.0566 -1.4040 -0.2851
11591SOL     OW45086   9.571   5.593   7.505  0.3283  0.0511  0.9442
11591SOL    HW145087   9.546   5.676   7.464  1.1217  0.0141  0.3666
11591SOL    HW245088   9.588   5.616   7.597  0.6949  0.5527  0.7499
11592SOL     OW45089  10.195   9.809   9.067 -0.8950 -0.3335 -0.6911
11592SOL    HW145090  10.276   9.856   9.047 -0.1525 -1.3632 -0.1781
11592SOL    HW245091  10.153   9.861   9.136 -0.8026  0.3296 -1.1229
11593SOL     OW45092   1.705   9.590  12.836 -0.1390  0.6121  0.4496
11593SOL    HW145093   1.673   9.509  12.798 -0.1235  0.2402  1.2014
11593SOL    HW245094   1.799   9.589  12.818 -0.3270  1.0783 -0.6282
11594SOL     OW45095   0.283   9.088   2.026 -0.2488 -0.1929  0.1901
11594SOL    HW145096   0.252   9.016   1.973  0.2281 -0.7115  0.6015
11594SOL    HW245097   0.210   9.110   2.084 -0.2936 -0.5344  0.2606
11595SOL     OW45098   1.043  11.963  10.206  0.0900 -0.3235 -0.8822
11595SOL    HW145099   1.076  12.053  10.210 -2.4049  0.6393  0.0939
11595SOL    HW245100   1.073  11.923  10.288  0.1518  0.0222 -0.7343
11596SOL     OW45101   3.654   8.825   3.938 -0.2308  0.0364  0.0631
11596SOL    HW145102   3.574   8.798   3.892 -0.6330  0.7114  0.3410
11596SOL    HW245103   3.725   8.791   3.884 -0.7036 -0.8073 -0.0506
11597SOL     OW45104   8.430   0.679  11.357 -0.1399 -0.4187  0.5080
11597SOL    HW145105   8.413   0.608  11.419  2.4087 -0.8990  0.7326
11597SOL    HW245106   8.485   0.741  11.405 -1.4268  1.2390 -0.0324
11598SOL     OW45107   7.759   3.147   5.136  0.2445  0.0664 -0.0920
11598SOL    HW145108   7.695   3.216   5.152  0.9661  0.9349 -0.8428
11598SOL    HW245109   7.840   3.193   5.117  0.8717 -1.0004 -0.1115
11599SOL     OW45110   2.704  12.374   0.129  0.2456 -0.0709  0.1698
11599SOL    HW145111   2.700  12.468   0.146  3.2268  0.0798  0.4639
11599SOL    HW245112   2.658  12.363   0.045 -1.0848  1.4385  0.6602
11600SOL     OW45113  11.106   9.666  11.052 -0.3626 -0.5578  0.1130
11600SOL    HW145114  11.131   9.746  11.005 -2.7387 -0.4980 -1.2344
11600SOL    HW245115  11.169   9.601  11.024  0.4747  0.3868 -0.2586
11601SOL     OW45116   1.628  10.634  12.714  0.0159 -0.0068  0.1576
11601SOL    HW145117   1.696  10.616  12.779  0.7940  0.4742 -0.5110
11601SOL    HW245118   1.591  10.549  12.694 -0.2127 -0.1695  1.2018
11602SOL     OW45119  10.058   2.567   8.712  0.5333 -0.0649 -0.1202
11602SOL    HW145120  10.129   2.566   8.649  0.7811  0.6406  0.1316
11602SOL    HW245121   9.980   2.591   8.661  0.4668 -0.8428 -0.3960
11603SOL     OW45122   7.023  12.149  11.742  0.0490 -0.2093 -0.4801
11603SOL    HW145123   7.026  12.054  11.745  0.4759 -0.1942  1.9149
11603SOL    HW245124   6.930  12.171  11.755  0.1178 -0.3160  0.2405
11604SOL     OW45125   9.336   4.276   4.248 -0.9044  0.6189  0.0510
11604SOL    HW145126   9.278   4.352   4.247 -1.7625  0.1045  2.7333
11604SOL    HW245127   9.277   4.202   4.264  0.1420 -0.3801 -0.5565
11605SOL     OW45128   2.899   6.514   8.243 -0.5328  0.4681  0.3182
11605SOL    HW145129   2.822   6.504   8.299 -1.4491  2.8385 -0.4003
11605SOL    HW245130   2.895   6.438   8.184 -2.0723  0.2963  0.5901
11606SOL     OW45131   6.700   0.025   7.234  0.2089  0.3647  0.1516
11606SOL    HW145132   6.719  -0.043   7.299  1.2606  2.0271  1.6817
11606SOL    HW245133   6.742  -0.005   7.154  0.3062 -0.9576  0.6786
11607SOL     OW45134   3.212   5.702  10.899 -0.3903 -0.3319 -0.1589
11607SOL    HW145135   3.135   5.715  10.955  1.2225  1.0357  1.8949
11607SOL    HW245136   3.244   5.615  10.923 -1.6664 -1.2535 -1.6028
11608SOL     OW45137   3.873   2.233  11.528 -0.3712  0.4512  0.0160
11608SOL    HW145138   3.813   2.165  11.497 -0.2243 -0.1068  0.9204
11608SOL    HW245139   3.952   2.185  11.554 -0.7962  0.7818  2.0533
11609SOL     OW45140   8.174  10.026   3.509  0.3793 -0.4234  0.0314
11609SOL    HW145141   8.212  10.043   3.595  0.0550  2.5817 -0.3249
11609SOL    HW245142   8.117  10.100   3.493 -0.5355 -1.5434 -2.2771
11610SOL     OW45143  10.975   2.716   7.262  0.3258  0.3439 -0.7714
11610SOL    HW145144  11.009   2.765   7.187 -0.9450 -0.2486 -1.7708
11610SOL    HW245145  10.882   2.739   7.265  0.5589  1.2147  1.3285
11611SOL     OW45146   4.960   8.491   3.488 -0.3238 -0.1165 -0.7168
11611SOL    HW145147   4.932   8.404   3.460  0.5090 -0.0762 -1.7672
11611SOL    HW245148   4.946   8.492   3.583  1.5747 -2.1722 -0.3269
11612SOL     OW45149   8.992   4.899   8.151  0.0486  0.2617  0.3301
11612SOL    HW145150   8.959   4.925   8.237 -0.5735  0.3667  0.0576
11612SOL    HW245151   9.024   4.810   8.164 -0.1462  0.2367  0.6397
11613SOL     OW45152  12.584   7.748   0.098  0.3903 -0.8875  0.3037
11613SOL    HW145153  12.621   7.791   0.175 -0.8100  1.1755 -0.1983
11613SOL    HW245154  12.505   7.704   0.129 -0.5511  0.6383  0.1502
11614SOL     OW45155   1.753   0.616  11.120 -0.7572 -0.1814 -0.2397
11614SOL    HW145156   1.772   0.554  11.190  2.2271  1.0670  0.1817
11614SOL    HW245157   1.716   0.692  11.165  0.5734  0.3723 -0.0293
11615SOL     OW45158   7.330  10.971   7.683 -0.2594  0.1249  0.6015
11615SOL    HW145159   7.341  11.028   7.607  0.2482  0.6080  1.0300
11615SOL    HW245160   7.381  10.893   7.662  1.8491  1.2028  1.4017
11616SOL     OW45161  12.075   9.379   4.367  0.2772  0.4405  0.1099
11616SOL    HW145162  12.121   9.403   4.447  0.1524 -0.4375  0.4473
11616SOL    HW245163  12.105   9.290   4.347 -0.3445  0.3238 -0.3394
11617SOL     OW45164  12.444   9.259   6.504 -0.0003  0.1904 -0.1535
11617SOL    HW145165  12.412   9.270   6.594  0.4605 -3.2841  0.5680
11617SOL    HW245166  12.539   9.269   6.511 -0.1296  2.9980 -0.9473
11618SOL     OW45167  12.301   6.344   7.801 -0.0229  0.2779  0.0359
11618SOL    HW145168  12.318   6.251   7.789  1.3656  0.3804  0.9318
11618SOL    HW245169  12.286   6.378   7.713  0.2041 -0.6543 -0.3747
11619SOL     OW45170  11.265   3.806  10.397  0.1417 -0.1555 -0.1751
11619SOL    HW145171  11.276   3.720  10.356  0.1124  0.3462 -1.2722
11619SOL    HW245172  11.349   3.822  10.440  0.3796 -0.4516 -0.5222
11620SOL     OW45173   3.565   5.500   0.013  0.4215 -0.2914  0.6520
11620SOL    HW145174   3.504   5.562   0.052 -0.8798 -1.1980  0.1350
11620SOL    HW245175   3.513   5.421   0.000  1.1681 -0.4880 -1.5607
11621SOL     OW45176  11.615  11.134   7.078 -0.0301 -0.0391 -0.4175
11621SOL    HW145177  11.651  11.180   7.153  1.2618 -1.7823  0.0960
11621SOL    HW245178  11.531  11.100   7.108  0.1727 -0.1495  0.0268
11622SOL     OW45179   4.790  10.118   5.778 -0.0256  0.2521 -0.1682
11622SOL    HW145180   4.696  10.133   5.783  0.0140  0.3953  0.1629
11622SOL    HW245181   4.808  10.107   5.684 -0.3900  0.0944 -0.2197
11623SOL     OW45182   3.489  11.847  11.739  0.0329 -0.7727 -0.6404
11623SOL    HW145183   3.557  11.872  11.677  1.1928  0.7473  1.1094
11623SOL    HW245184   3.426  11.919  11.736  0.6089 -0.1696  0.5607
11624SOL     OW45185   6.277   5.185   2.769 -0.1199 -0.3464 -0.1459
11624SOL    HW145186   6.284   5.125   2.844  1.2612  0.9903  0.8561
11624SOL    HW245187   6.209   5.147   2.714  0.5497 -2.7414  0.5422
11625SOL     OW45188   4.185   3.422   4.485  0.3210  0.1031 -0.0738
11625SOL    HW145189   4.155   3.356   4.549  2.1122 -1.6539 -0.9431
11625SOL    HW245190   4.104   3.458   4.449 -0.8440 -3.0470 -0.9570
11626SOL     OW45191   6.912  11.571   0.690 -0.2350  0.2453  0.3077
11626SOL    HW145192   6.846  11.519   0.645 -0.9046  0.3708  1.1185
11626SOL    HW245193   6.894  11.661   0.664  0.5404  0.1449 -0.6145
11627SOL     OW45194   0.147  12.157   6.937  0.1064 -0.9234  0.5308
11627SOL    HW145195   0.242  12.168   6.936  0.2222 -1.9672 -0.5386
11627SOL    HW245196   0.132  12.081   6.993  0.0086 -1.7159 -0.5656
11628SOL     OW45197   9.156   4.533   1.106  0.1603  0.2919  0.1320
11628SOL    HW145198   9.169   4.590   1.182  0.4946  0.8098 -0.3103
11628SOL    HW245199   9.066   4.548   1.079  0.1159  0.2884  0.2788
11629SOL     OW45200  12.098   9.529   1.472 -0.1600  0.5369 -0.3840
11629SOL    HW145201  12.123   9.587   1.400  0.2415 -0.5122 -1.1110
11629SOL    HW245202  12.171   9.468   1.480 -0.2818  0.5207  0.8032
11630SOL     OW45203  12.493   3.132   9.156  0.1888  0.3724 -0.3242
11630SOL    HW145204  12.510   3.192   9.083 -0.1976  1.0656  0.1465
11630SOL    HW245205  12.404   3.100   9.141 -0.2234  1.1999  0.3128
11631SOL     OW45206   1.730   2.432   2.117 -0.1345  0.1415 -0.8037
11631SOL    HW145207   1.715   2.514   2.164  0.6077  0.0071 -0.3147
11631SOL    HW245208   1.787   2.381   2.175 -2.1274 -1.5482 -0.2043
11632SOL     OW45209   8.673   7.453   8.012 -0.3198  0.1305 -0.6709
11632SOL    HW145210   8.584   7.463   7.978  0.2117  3.0482 -1.5247
11632SOL    HW245211   8.714   7.389   7.953 -1.2000  0.5131 -1.7494
11633SOL     OW45212   5.351  12.842   0.921 -0.1725  0.4507  0.1319
11633SOL    HW145213   5.355  12.901   0.996  3.4099 -0.3815  0.7589
11633SOL    HW245214   5.361  12.755   0.958 -0.7365 -0.1967 -1.1599
11634SOL     OW45215   7.604   3.127   2.963 -0.2820 -0.1753 -0.4472
11634SOL    HW145216   7.585   3.128   2.869 -1.5841  0.8103 -0.2114
11634SOL    HW245217   7.560   3.205   2.997  0.3845 -0.3734  0.9431
11635SOL     OW45218   0.321   9.230   1.775  0.4820 -0.1381 -0.2849
11635SOL    HW145219   0.310   9.160   1.840 -0.9578  0.0910 -0.2577
11635SOL    HW245220   0.398   9.203   1.724 -0.9027 -2.5197 -1.2617
11636SOL     OW45221   6.589   8.946   1.482  0.2284  0.4445  0.1625
11636SOL    HW145222   6.565   8.954   1.390  2.4714 -0.2554 -0.5617
11636SOL    HW245223   6.569   9.031   1.520 -0.1095  0.9654 -1.1377
11637SOL     OW45224   9.891   4.240   1.136 -0.1085  0.8836 -0.1466
11637SOL    HW145225   9.840   4.199   1.067  1.8207  0.9249 -1.6795
11637SOL    HW245226   9.884   4.180   1.210 -1.6965  0.5157 -0.5704
11638SOL     OW45227  10.534  12.372  11.008 -0.1872 -0.1667  0.3378
11638SOL    HW145228  10.612  12.389  11.060  0.6891  1.0313 -1.2594
11638SOL    HW245229  10.529  12.447  10.948 -1.2281 -1.3838 -1.1686
11639SOL     OW45230   4.341   1.755   1.693 -0.4461  0.3541 -0.3647
11639SOL    HW145231   4.346   1.834   1.639 -0.4862 -0.4481 -1.5971
11639SOL    HW245232   4.337   1.683   1.629  1.4613 -0.7714  0.6837
11640SOL     OW45233   4.287   7.502   1.400 -0.4474 -0.7559  0.5333
11640SOL    HW145234   4.331   7.428   1.443  1.0534  0.1596  0.6362
11640SOL    HW245235   4.269   7.564   1.471  0.3279 -0.0622  0.1452
11641SOL     OW45236   0.616   5.353   4.582  0.3169 -0.3916 -0.1876
11641SOL    HW145237   0.699   5.389   4.551  0.0906  0.6419  0.3636
11641SOL    HW245238   0.583   5.418   4.643 -1.1993 -0.4989 -0.8498
11642SOL     OW45239   4.243   7.765   6.394  0.3214 -0.4995 -0.1423
11642SOL    HW145240   4.219   7.847   6.437  2.3383  0.5062 -0.7873
11642SOL    HW245241   4.170   7.746   6.335 -0.3332  0.6622  0.2553
11643SOL     OW45242   6.805  11.772   8.040 -0.0323 -0.1877 -0.8050
11643SOL    HW145243   6.734  11.764   8.104 -0.0202  1.3871 -0.5714
11643SOL    HW245244   6.789  11.700   7.978 -1.3183 -0.3897 -0.2682
11644SOL     OW45245   5.074   7.366   6.580 -0.0343  0.3167  0.6049
11644SOL    HW145246   5.039   7.352   6.492 -0.7593  1.7617  0.6322
11644SOL    HW245247   5.142   7.299   6.590  0.2860  0.3244 -1.1769
11645SOL     OW45248   3.366  10.920  10.321  0.4938  0.3126 -0.2476
11645SOL    HW145249   3.432  10.986  10.343  1.3560 -0.5825 -0.0737
11645SOL    HW245250   3.291  10.942  10.377  0.4056  1.6995 -0.8867
11646SOL     OW45251  10.174   7.804   0.671 -0.0718  0.5368  0.5087
11646SOL    HW145252  10.178   7.857   0.591 -0.3970  0.0267  0.1477
11646SOL    HW245253  10.202   7.864   0.741  1.2489  0.6832 -0.1195
11647SOL     OW45254  10.345   7.749   3.994 -0.2190 -0.3200  0.0272
11647SOL    HW145255  10.302   7.830   4.021  1.7396  0.3137  1.4842
11647SOL    HW245256  10.315   7.684   4.058 -2.1872 -0.9716 -1.4344
11648SOL     OW45257   8.436   6.526   5.879  0.4301  0.1678 -0.8559
11648SOL    HW145258   8.449   6.574   5.961  0.3397  0.7319 -1.1637
11648SOL    HW245259   8.491   6.573   5.815  0.9967 -0.6497 -0.9789
11649SOL     OW45260   0.964   5.961   8.884  0.2743  0.2209  0.4661
11649SOL    HW145261   1.037   5.955   8.822 -1.5365  1.4206 -1.9719
11649SOL    HW245262   0.986   6.035   8.941 -0.5162  3.0999 -2.6324
11650SOL     OW45263   0.541   3.536  11.609 -0.0566 -0.2976 -0.0062
11650SOL    HW145264   0.549   3.571  11.698  0.5119 -1.3039  0.3547
11650SOL    HW245265   0.630   3.539  11.574 -0.4388  1.0300 -0.9219
11651SOL     OW45266   3.784   5.312  10.056  0.1641 -0.2544 -0.2881
11651SOL    HW145267   3.843   5.296   9.982  0.9332  2.0307 -0.2570
11651SOL    HW245268   3.843   5.329  10.130 -0.4330  2.0691 -0.2481
11652SOL     OW45269   8.454   9.219  12.479 -0.3259 -0.0362 -0.4584
11652SOL    HW145270   8.433   9.138  12.526 -0.1099 -0.8957 -1.7898
11652SOL    HW245271   8.550   9.219  12.475 -0.2968  0.6287  0.0937
11653SOL     OW45272   8.141  11.462  11.979 -0.0354 -0.3494  0.5222
11653SOL    HW145273   8.188  11.414  11.911 -1.0254 -0.6761  0.0488
11653SOL    HW245274   8.200  11.461  12.054  1.3502  0.5807 -0.5234
11654SOL     OW45275  12.738  11.512  11.443  0.1399 -0.2720  0.0361
11654SOL    HW145276  12.736  11.418  11.459 -1.8364 -0.6715 -2.1315
11654SOL    HW245277  12.771  11.520  11.353  0.2057  1.1186  0.1634
11655SOL     OW45278   0.001   1.658   8.858  0.1015 -0.1537 -0.0372
11655SOL    HW145279  -0.013   1.665   8.763  0.8814 -0.3525 -0.1733
11655SOL    HW245280   0.096   1.650   8.867  0.3135  2.4387  0.9053
11656SOL     OW45281   8.866   2.353   1.531 -0.8729  0.3353 -0.1566
11656SOL    HW145282   8.924   2.306   1.471 -0.9829 -0.3460  0.2720
11656SOL    HW245283   8.865   2.443   1.497 -1.5045 -0.1986 -1.6137
11657SOL     OW45284   0.083   4.263   7.814 -0.1287  0.7590 -0.1694
11657SOL    HW145285   0.172   4.245   7.785 -0.0270  1.3480 -0.2344
11657SOL    HW245286   0.045   4.317   7.745 -0.7785 -0.0745 -0.4891
11658SOL     OW45287  12.269  10.150   0.179 -0.5216 -0.3481 -0.0550
11658SOL    HW145288  12.250  10.239   0.151 -0.2833 -0.5755 -0.9653
11658SOL    HW245289  12.240  10.147   0.270 -2.0793  0.1769 -0.4920
11659SOL     OW45290   1.939   0.759   7.683  0.3289  0.3401  0.2824
11659SOL    HW145291   1.952   0.853   7.689  1.9378  0.1707  0.0868
11659SOL    HW245292   1.861   0.741   7.734  0.2221  1.7330  0.6358
11660SOL     OW45293   2.780  10.183  10.484  0.2193  0.1952 -0.2964
11660SOL    HW145294   2.764  10.139  10.400  0.0236 -1.0223  0.3622
11660SOL    HW245295   2.730  10.133  10.548  0.3020  1.1623  0.5449
11661SOL     OW45296   8.281   4.474   1.727 -0.0702  0.1828 -0.0055
11661SOL    HW145297   8.349   4.413   1.699 -1.9707 -2.3537  0.4635
11661SOL    HW245298   8.281   4.467   1.822 -0.3048  0.9232  0.0503
11662SOL     OW45299  10.363   3.429   5.447 -0.1428 -0.0652 -0.4266
11662SOL    HW145300  10.300   3.381   5.501 -0.9792 -0.0659 -1.3613
11662SOL    HW245301  10.433   3.454   5.507 -1.7624  1.2752  0.9783
11663SOL     OW45302   5.512  11.400   1.434  0.4836 -0.5275 -0.3023
11663SOL    HW145303   5.528  11.461   1.506  0.2257 -0.5986 -0.1833
11663SOL    HW245304   5.490  11.318   1.477 -3.3854  0.2803 -0.3254
11664SOL     OW45305  11.281   1.716   4.261  0.2206  0.2517  0.4334
11664SOL    HW145306  11.374   1.704   4.243  0.1510 -0.9180  0.8073
11664SOL    HW245307  11.237   1.681   4.183  0.0627 -0.1197  0.6892
11665SOL     OW45308   3.086  11.898   5.870 -0.1916  0.5116  0.3882
11665SOL    HW145309   3.156  11.840   5.900 -0.7675  0.0337  0.8316
11665SOL    HW245310   3.061  11.864   5.784  0.2925  0.8437  0.1092
11666SOL     OW45311   4.838   1.087   0.004 -0.2021  0.4891  0.1108
11666SOL    HW145312   4.900   1.052  -0.060  0.5953 -0.3406  1.3123
11666SOL    HW245313   4.884   1.160   0.045  0.9954 -1.5391  2.6455
11667SOL     OW45314   5.507  12.657   2.207 -0.0680  0.1819  0.1270
11667SOL    HW145315   5.507  12.683   2.299  3.0390 -0.9710  0.5573
11667SOL    HW245316   5.479  12.565   2.209 -0.8651  0.4100 -0.2101
11668SOL     OW45317  11.529   6.584   2.515 -0.5404  0.0500  0.0462
11668SOL    HW145318  11.554   6.601   2.605  0.2174  0.1003 -0.1687
11668SOL    HW245319  11.543   6.490   2.503  1.2686  0.3518 -0.5738
11669SOL     OW45320   4.868   6.781   1.034  0.1170 -0.3004  0.1637
11669SOL    HW145321   4.833   6.818   1.115 -0.8426  0.8548 -0.7428
11669SOL    HW245322   4.892   6.691   1.057  0.4491  0.1874  1.8736
11670SOL     OW45323   6.065   1.891   4.771  0.3594  0.1523 -0.3085
11670SOL    HW145324   6.031   1.833   4.840 -1.2338  1.8362  0.4189
11670SOL    HW245325   6.110   1.960   4.819  1.1050  0.2293 -1.0962
11671SOL     OW45326   1.026   5.258   9.207  1.1705  0.2132  0.1170
11671SOL    HW145327   1.116   5.224   9.207  1.3099  0.5755  0.0560
11671SOL    HW245328   1.016   5.298   9.121  0.7408 -0.3618 -0.1044
11672SOL     OW45329  10.280   7.990   4.308  0.6879 -0.5871 -0.2343
11672SOL    HW145330  10.286   7.998   4.213 -0.7309 -0.7217 -0.3547
11672SOL    HW245331  10.262   8.079   4.339 -1.0662 -0.8695 -0.3209
11673SOL     OW45332   2.727  10.883  10.290  0.1068 -0.9147  0.3865
11673SOL    HW145333   2.670  10.861  10.363  0.4932  0.2153  1.0634
11673SOL    HW245334   2.814  10.855  10.318  0.3460 -0.0005  0.6180
11674SOL     OW45335   4.865  10.074  11.807  0.6846 -0.6952 -0.1116
11674SOL    HW145336   4.774  10.062  11.777 -0.1387  1.9770  0.9690
11674SOL    HW245337   4.903  10.135  11.744  1.1160 -0.3465  0.4737
11675SOL     OW45338  10.900   6.259   7.360 -0.5526 -0.6885  0.2830
11675SOL    HW145339  10.835   6.225   7.299  0.3163 -1.5468 -0.2042
11675SOL    HW245340  10.961   6.309   7.305  1.0011 -2.5796  0.1545
11676SOL     OW45341   3.239   5.311   7.797  0.2138 -0.3292  0.0310
11676SOL    HW145342   3.228   5.227   7.842 -0.7851 -0.2520 -0.0532
11676SOL    HW245343   3.189   5.301   7.716 -2.2143  1.2779  1.2438
11677SOL     OW45344   5.324   9.223  11.688  0.7175 -0.4154 -0.6422
11677SOL    HW145345   5.253   9.273  11.727  1.7775  0.6082  0.0398
11677SOL    HW245346   5.282   9.168  11.622 -1.0584 -1.7734  1.4718
11678SOL     OW45347   0.845   8.489   9.111 -0.2232 -0.1106  0.1785
11678SOL    HW145348   0.830   8.584   9.106 -0.8708 -0.2269 -0.1037
11678SOL    HW245349   0.878   8.475   9.200  1.1562  0.5523 -0.2067
11679SOL     OW45350   1.567  12.368   0.365 -0.3143  0.4373  0.0067
11679SOL    HW145351   1.610  12.445   0.402 -1.1613  0.3129  1.2951
11679SOL    HW245352   1.541  12.315   0.441 -0.1443 -0.9160 -0.8349
11680SOL     OW45353  10.134   2.469   0.136  0.1724 -0.0437  0.4357
11680SOL    HW145354  10.040   2.451   0.136  0.4607 -2.1067 -1.7820
11680SOL    HW245355  10.173   2.392   0.177  0.9664 -0.1457 -0.4656
11681SOL     OW45356  10.158   7.843  12.330  0.0398 -0.0157  0.4664
11681SOL    HW145357  10.112   7.763  12.354 -2.0463  0.9111 -0.1950
11681SOL    HW245358  10.107   7.913  12.371  0.6212  1.0873 -0.6403
11682SOL     OW45359   3.002   5.163   4.538  0.0058  0.1732 -0.8257
11682SOL    HW145360   3.065   5.111   4.488  1.6140  1.0987  0.1587
11682SOL    HW245361   3.037   5.164   4.627 -1.8174  0.0917 -0.0601
11683SOL     OW45362   9.240  10.113   4.179 -0.0186 -0.0781  0.2775
11683SOL    HW145363   9.177  10.045   4.155  0.6493 -0.1396 -1.4281
11683SOL    HW245364   9.264  10.092   4.270 -1.7630 -0.5531  0.6608
11684SOL     OW45365   1.994   0.164   2.912  0.0975  0.1641 -0.5946
11684SOL    HW145366   1.971   0.157   2.819  0.1463  0.7441 -0.6541
11684SOL    HW245367   2.072   0.109   2.921 -0.8223 -1.1754 -0.5567
11685SOL     OW45368   0.257   8.771   1.040 -0.2286 -0.4165  0.0674
11685SOL    HW145369   0.220   8.692   1.002  0.7217 -0.4996 -0.7394
11685SOL    HW245370   0.188   8.806   1.096 -0.8965 -1.4509 -0.0880
11686SOL     OW45371   5.282   8.633   5.333  0.2839 -0.4675  0.3221
11686SOL    HW145372   5.267   8.564   5.269  0.0054  0.0204 -0.1456
11686SOL    HW245373   5.327   8.589   5.406 -0.3179 -1.2367  0.2423
11687SOL     OW45374   4.741   8.274   6.935  0.5701  0.2787 -0.0980
11687SOL    HW145375   4.685   8.351   6.946 -0.8324 -0.8618  1.3308
11687SOL    HW245376   4.684   8.210   6.892  0.3478 -1.2613  2.2890
11688SOL     OW45377   0.817   0.285   2.574 -0.0223  0.4464  0.2853
11688SOL    HW145378   0.763   0.359   2.547  0.2010  0.4988 -0.0215
11688SOL    HW245379   0.901   0.300   2.532 -0.1028 -0.2006 -0.1111
11689SOL     OW45380  11.014  11.116   3.057 -0.0718  0.6369  0.0045
11689SOL    HW145381  11.032  11.204   3.091 -3.2315  1.2058  0.5330
11689SOL    HW245382  10.968  11.072   3.128 -1.9690 -0.0410 -1.5263
11690SOL     OW45383   7.692   7.358   8.953 -0.2094  0.2687  0.6883
11690SOL    HW145384   7.724   7.437   8.998  1.4520 -0.4689  0.8899
11690SOL    HW245385   7.714   7.287   9.012 -0.7311 -0.4429  0.0338
11691SOL     OW45386  11.177   9.929   8.961  0.4257  0.6081 -0.2849
11691SOL    HW145387  11.215  10.008   9.000 -0.0433 -0.1238  1.8130
11691SOL    HW245388  11.220   9.921   8.876  2.1895  1.8401  0.4270
11692SOL     OW45389   9.524   2.155   9.397  0.4740 -0.2706  0.5432
11692SOL    HW145390   9.618   2.165   9.408  0.2695 -0.6399  3.2304
11692SOL    HW245391   9.492   2.128   9.483 -2.0871 -0.2235 -0.3019
11693SOL     OW45392   1.434  10.264   0.569 -0.4064  0.0848  0.0238
11693SOL    HW145393   1.447  10.358   0.584  0.8030 -0.1789  0.8135
11693SOL    HW245394   1.376  10.237   0.640  1.1409 -0.1819  1.2319
11694SOL     OW45395   3.535  12.717   2.467 -1.1621 -0.1949  0.1137
11694SOL    HW145396   3.520  12.794   2.522 -0.3697 -2.5342  3.9771
11694SOL    HW245397   3.627  12.723   2.441 -1.7033  1.2467 -1.6246
11695SOL     OW45398   7.226  12.525   6.003  0.0846  0.1810  0.0846
11695SOL    HW145399   7.133  12.509   6.015  0.0611  0.0877 -0.2249
11695SOL    HW245400   7.230  12.600   5.943  0.1855  1.3624  1.4929
11696SOL     OW45401   1.345   4.709  12.756 -0.4229 -0.2374  0.3517
11696SOL    HW145402   1.347   4.618  12.726  0.0857 -0.6081  1.4348
11696SOL    HW245403   1.414   4.752  12.706  0.1338 -0.7370  0.6768
11697SOL     OW45404   0.931  12.240   5.728 -0.0110 -0.2275 -0.4416
11697SOL    HW145405   0.905  12.164   5.676  1.6833 -0.8166 -0.5201
11697SOL    HW245406   0.873  12.238   5.805 -0.0033 -1.6143 -0.4457
11698SOL     OW45407   2.288   0.790   0.667  0.0027  0.0072 -0.0175
11698SOL    HW145408   2.202   0.790   0.625  0.1812  0.6851 -0.4086
11698SOL    HW245409   2.349   0.811   0.596  0.2927  1.3598  0.5942
11699SOL     OW45410   7.141  11.496  12.706 -0.0115 -0.2426  0.2655
11699SOL    HW145411   7.165  11.414  12.664  0.5531 -0.1036  0.3139
11699SOL    HW245412   7.099  11.547  12.637 -0.1286 -0.4652  0.1694
11700SOL     OW45413   6.356   6.423   3.596 -0.3529  0.7282 -0.1558
11700SOL    HW145414   6.353   6.355   3.529 -0.3028  0.0554  0.5199
11700SOL    HW245415   6.317   6.500   3.554 -0.5188  0.2515 -0.8826
11701SOL     OW45416   0.422   9.891   6.613  0.6109  0.3644  0.3161
11701SOL    HW145417   0.467   9.969   6.644 -0.0532  0.9731 -0.2085
11701SOL    HW245418   0.438   9.825   6.680  2.0846  0.6278  0.2465
11702SOL     OW45419   4.435   2.929   0.074 -0.6110 -0.3259  0.2495
11702SOL    HW145420   4.391   2.999   0.027  1.5730  0.2859 -1.0647
11702SOL    HW245421   4.365   2.872   0.105 -2.3157  1.0795 -0.8524
11703SOL     OW45422  12.219   6.078   6.471 -0.5654  0.1848  0.0828
11703SOL    HW145423  12.231   5.984   6.458  1.0784  0.3321  0.3825
11703SOL    HW245424  12.191   6.110   6.385  1.7594 -0.1628 -0.8932
11704SOL     OW45425   7.654   9.236  12.380  0.3040  0.1099 -0.4141
11704SOL    HW145426   7.691   9.152  12.352 -0.3159 -0.2240 -0.2674
11704SOL    HW245427   7.685   9.247  12.470 -0.3845 -0.4423 -0.0954
11705SOL     OW45428   1.521   2.588  10.391 -0.3886  0.0209  0.1593
11705SOL    HW145429   1.480   2.634  10.318 -1.1099 -0.2797  0.3618
11705SOL    HW245430   1.517   2.649  10.464  2.3034  1.1826 -0.5499
11706SOL     OW45431  10.649   9.702   7.637  0.0106  0.1925  0.5105
11706SOL    HW145432  10.691   9.788   7.649  0.9448 -0.2849  0.7752
11706SOL    HW245433  10.561   9.713   7.674  0.0017  1.1310  0.2340
11707SOL     OW45434   3.123   0.613   1.634 -0.3148 -0.2324 -0.0827
11707SOL    HW145435   3.032   0.588   1.618 -0.9388  2.5505 -1.6191
11707SOL    HW245436   3.171   0.571   1.563 -0.8349  0.2864 -0.7654
11708SOL     OW45437   4.566   7.333   6.274 -0.0350 -0.1243 -0.5229
11708SOL    HW145438   4.497   7.282   6.317 -0.8726  1.4971  0.1467
11708SOL    HW245439   4.646   7.307   6.319 -0.8411  1.2836  1.8848
11709SOL     OW45440   2.174   8.717   2.953  0.2590  0.2887 -0.0673
11709SOL    HW145441   2.085   8.695   2.927  0.0891 -1.5915  1.8776
11709SOL    HW245442   2.212   8.758   2.875 -2.6429  2.3174 -0.5758
11710SOL     OW45443   0.978   3.173   2.332 -0.1424  0.1606 -0.4551
11710SOL    HW145444   0.887   3.203   2.328 -0.4519 -0.6601  0.0209
11710SOL    HW245445   1.026   3.233   2.275 -0.7554  1.3923  0.2822
11711SOL     OW45446   2.013   4.438   0.179  0.7412  0.3695  0.2289
11711SOL    HW145447   2.099   4.474   0.201  0.2680  0.7305  1.6303
11711SOL    HW245448   1.951   4.494   0.226 -0.3611  0.8361 -1.6729
11712SOL     OW45449   2.930  12.955   5.222  0.1749  0.2922 -0.0994
11712SOL    HW145450   3.025  12.955   5.233  0.0699 -0.4405  1.0520
11712SOL    HW245451   2.916  12.924   5.132  1.0129 -0.3308 -0.0308
11713SOL     OW45452   9.999   4.327   5.106  0.1268 -0.2226  0.4040
11713SOL    HW145453  10.014   4.288   5.020  2.5735 -2.7165  1.8137
11713SOL    HW245454   9.909   4.302   5.128 -0.5051  0.3595 -1.3165
11714SOL     OW45455   7.696  11.823  10.535  0.2310 -0.3777 -0.1718
11714SOL    HW145456   7.653  11.758  10.479 -2.2963 -1.4938  2.7676
11714SOL    HW245457   7.691  11.904  10.485  2.0650 -1.9867 -3.2969
11715SOL     OW45458   4.182  10.529   8.127 -0.3060  0.0241  0.0384
11715SOL    HW145459   4.116  10.588   8.092 -0.8675  0.2442  1.4048
11715SOL    HW245460   4.263  10.580   8.126 -0.5045  0.3403 -0.0705
11716SOL     OW45461  11.908   6.342  12.216  0.7570  0.3602  0.2181
11716SOL    HW145462  11.955   6.398  12.154 -0.1181  0.2043 -0.6037
11716SOL    HW245463  11.969   6.332  12.289  1.2031  1.8042  0.0727
11717SOL     OW45464   4.257   8.642   5.389  0.0667  0.4528  0.1802
11717SOL    HW145465   4.276   8.712   5.452  2.7087  0.4522 -0.5228
11717SOL    HW245466   4.261   8.685   5.304 -1.6148  0.0619 -0.1382
11718SOL     OW45467   5.880   4.290   6.973  0.8376  0.1003 -0.7418
11718SOL    HW145468   5.825   4.277   6.896 -0.6757 -0.7777  0.4373
11718SOL    HW245469   5.921   4.204   6.987 -1.0173 -0.5721  0.9653
11719SOL     OW45470   7.855   9.451   8.324 -0.4398 -0.2026 -0.1694
11719SOL    HW145471   7.776   9.489   8.286 -2.1380 -2.1014  1.2173
11719SOL    HW245472   7.864   9.366   8.281  0.1643 -0.5147  0.5518
11720SOL     OW45473   3.833   0.444   5.343 -0.6258  0.2447  0.3184
11720SOL    HW145474   3.761   0.400   5.389 -0.6641  0.4876  0.4956
11720SOL    HW245475   3.790   0.513   5.292 -0.3506  1.7532  2.0326
11721SOL     OW45476  10.089   0.919   9.362 -0.5726 -0.2773  0.0813
11721SOL    HW145477   9.997   0.894   9.370 -0.5988 -0.4838 -0.7707
11721SOL    HW245478  10.134   0.838   9.337 -0.2489 -0.0575 -0.0576
11722SOL     OW45479   4.608   8.911   4.523 -0.4192 -0.3695 -0.2309
11722SOL    HW145480   4.642   8.944   4.441 -0.1422  0.5344  0.2391
11722SOL    HW245481   4.682   8.914   4.583  0.1065 -3.4122 -0.5647
11723SOL     OW45482   4.921   9.605   9.419 -0.6143  0.6402 -0.0767
11723SOL    HW145483   5.009   9.572   9.437 -0.3849  0.3357 -1.6459
11723SOL    HW245484   4.863   9.531   9.435 -0.3750  0.2614 -0.9239
11724SOL     OW45485   8.050   1.071   9.868 -0.6430  0.3709 -0.0544
11724SOL    HW145486   8.028   0.992   9.917 -0.2146  0.4523  0.2813
11724SOL    HW245487   7.966   1.108   9.843 -0.8476 -0.3591 -0.4934
11725SOL     OW45488   1.497  10.032   7.084  0.3192 -0.5625  0.3673
11725SOL    HW145489   1.497  10.124   7.111  0.1023 -0.5694  0.3908
11725SOL    HW245490   1.412  10.018   7.043  0.8531 -0.4051 -0.8416
11726SOL     OW45491   2.888   6.114   7.148  0.0221 -0.1669 -0.8044
11726SOL    HW145492   2.839   6.048   7.099  1.1136 -1.6115  0.0158
11726SOL    HW245493   2.955   6.066   7.195 -1.3063  1.0540  2.6171
11727SOL     OW45494   3.494   9.061   5.924  0.2745 -0.1856 -0.0287
11727SOL    HW145495   3.587   9.066   5.945  0.5136 -0.1872 -1.0066
11727SOL    HW245496   3.462   9.150   5.938  0.3993 -0.2055  0.4057
11728SOL     OW45497   3.822  12.460  11.460  0.2872 -0.0195 -0.5389
11728SOL    HW145498   3.845  12.429  11.548  1.5773 -0.4709 -1.0102
11728SOL    HW245499   3.872  12.403  11.401  1.8131  2.1545 -1.4884
11729SOL     OW45500  12.440   9.063   5.053 -0.8505 -0.5506  0.1816
11729SOL    HW145501  12.377   8.992   5.065 -1.1289 -0.0493  1.8594
11729SOL    HW245502  12.398   9.140   5.092  0.1793  0.1403 -0.0348
11730SOL     OW45503  10.713   0.004  10.553 -0.0753 -0.3011 -0.1214
11730SOL    HW145504  10.785  -0.032  10.501  1.5348  1.0210  1.0692
11730SOL    HW245505  10.680  -0.070  10.603  2.0740 -0.5340  1.0669
11731SOL     OW45506  10.716   6.231   0.367  0.0508  0.6962  0.0013
11731SOL    HW145507  10.635   6.270   0.400  0.0231  1.4761 -0.9199
11731SOL    HW245508  10.692   6.197   0.281  0.4123 -0.1790  0.2427
11732SOL     OW45509   1.683  10.336  12.174  0.5928  0.1333  0.5810
11732SOL    HW145510   1.649  10.254  12.137  1.1251 -0.5198  1.4748
11732SOL    HW245511   1.733  10.375  12.102 -0.5903  0.2492 -0.2043
11733SOL     OW45512   8.776   2.574   2.135  0.3384 -0.2928 -0.2736
11733SOL    HW145513   8.812   2.638   2.073 -0.3363 -0.1899 -0.5666
11733SOL    HW245514   8.844   2.566   2.202  1.0600 -0.3660 -0.9925
11734SOL     OW45515  10.894   2.355   9.684  0.8648  0.2868 -0.1973
11734SOL    HW145516  10.862   2.270   9.655  0.7231  0.8878 -1.8904
11734SOL    HW245517  10.831   2.418   9.648  0.9693  1.1281  1.0130
11735SOL     OW45518   1.692   1.085   2.386  0.2710  0.2175  0.1151
11735SOL    HW145519   1.768   1.083   2.328  1.1596 -0.1565  1.2457
11735SOL    HW245520   1.728   1.109   2.471 -0.8567 -0.1818  0.7233
11736SOL     OW45521   6.075   0.692   0.218 -0.1196 -0.1742 -0.2638
11736SOL    HW145522   6.163   0.707   0.254 -0.3834  0.2883  0.1943
11736SOL    HW245523   6.053   0.775   0.176  0.2133 -0.7236 -1.5779
11737SOL     OW45524   1.166  10.079   3.620  0.3003 -0.5258 -0.0269
11737SOL    HW145525   1.110  10.141   3.572 -0.1742 -1.0320 -0.1324
11737SOL    HW245526   1.142  10.092   3.712 -0.4596 -1.1866 -0.1195
11738SOL     OW45527   5.738   0.315   0.136  0.6550 -0.4688  0.0900
11738SOL    HW145528   5.673   0.262   0.182 -0.0886 -1.1778 -1.7159
11738SOL    HW245529   5.797   0.344   0.206 -1.7069  0.4497  1.8475
11739SOL     OW45530   0.397   1.612  10.026  0.4924 -0.4562 -0.0820
11739SOL    HW145531   0.381   1.565  10.108 -1.7941 -1.1099 -0.8219
11739SOL    HW245532   0.388   1.545   9.958  1.1223  0.3164 -0.9566
11740SOL     OW45533   0.588   4.567   6.028  0.4931  0.2494  0.1443
11740SOL    HW145534   0.677   4.570   6.064  0.5595  0.8692 -0.0632
11740SOL    HW245535   0.536   4.618   6.090  0.3866  0.3612 -0.0397
11741SOL     OW45536   8.388   7.523   7.153  0.0770 -0.4899 -0.1026
11741SOL    HW145537   8.440   7.488   7.225  0.6617 -0.9138 -0.7194
11741SOL    HW245538   8.452   7.566   7.096 -0.4282  0.1694 -0.1759
11742SOL     OW45539  12.130   0.430  12.679 -0.4470 -0.1679 -0.1738
11742SOL    HW145540  12.192   0.407  12.610  0.0192 -0.3183  0.2934
11742SOL    HW245541  12.067   0.357  12.679 -0.9373  0.2402 -1.0015
11743SOL     OW45542   1.575   7.878  12.635 -0.1516 -0.4632  0.5517
11743SOL    HW145543   1.603   7.953  12.689 -0.4053  0.3982 -0.4807
11743SOL    HW245544   1.648   7.817  12.639  0.6722  0.4690  0.2719
11744SOL     OW45545   1.190  11.778   1.071  0.0266 -0.1593  0.0181
11744SOL    HW145546   1.155  11.861   1.103  0.7123  0.0369  0.2898
11744SOL    HW245547   1.188  11.785   0.976 -1.6758 -0.5904 -0.0129
11745SOL     OW45548  11.563   4.924   9.835 -0.2521 -0.1697  0.2634
11745SOL    HW145549  11.629   4.877   9.784 -2.0188 -1.5958 -0.8551
11745SOL    HW245550  11.557   4.874   9.916  0.5983  0.4557  0.7249
11746SOL     OW45551   3.297   8.865   8.675 -0.5043  0.1911 -0.2705
11746SOL    HW145552   3.314   8.916   8.754  0.3639 -0.5679  0.0526
11746SOL    HW245553   3.218   8.815   8.694  0.2546 -0.7551  0.5387
11747SOL     OW45554   9.945  12.946   9.782  0.2823 -0.2154  0.6062
11747SOL    HW145555   9.939  12.941   9.686 -0.5145  1.0188  0.5694
11747SOL    HW245556  10.031  12.909   9.802  0.7659  0.1665 -0.6487
11748SOL     OW45557   1.331   1.006   6.882 -0.1007  0.1871  0.0254
11748SOL    HW145558   1.287   0.993   6.966  1.0747  0.9148  0.7680
11748SOL    HW245559   1.386   1.083   6.895  2.5629 -1.5164 -0.3858
11749SOL     OW45560  10.200   2.664   9.860 -0.2282  0.4367  0.3287
11749SOL    HW145561  10.105   2.666   9.861 -0.5861 -0.9702 -4.4363
11749SOL    HW245562  10.223   2.635   9.771  4.6789  1.0244  1.0805
11750SOL     OW45563   8.806  12.222   7.431  0.0281 -0.2219 -0.4467
11750SOL    HW145564   8.719  12.256   7.411  0.9874  1.9630 -1.1493
11750SOL    HW245565   8.790  12.130   7.454 -2.6032  0.4709  0.8808
11751SOL     OW45566  10.417  10.189   1.423 -0.1691 -0.1277 -0.2117
11751SOL    HW145567  10.327  10.161   1.442  0.0987 -2.1473 -1.5394
11751SOL    HW245568  10.460  10.192   1.508 -0.5367 -2.9924  0.1745
11752SOL     OW45569   9.750   3.151   6.028 -0.1008  0.4289  0.5827
11752SOL    HW145570   9.798   3.088   5.974 -0.4445  0.0311  0.7367
11752SOL    HW245571   9.720   3.101   6.103  0.3700  0.9829  1.1480
11753SOL     OW45572  12.556   1.408   1.663  0.0838  0.4912  0.0138
11753SOL    HW145573  12.512   1.432   1.744  1.0727  0.0716  0.6830
11753SOL    HW245574  12.647   1.436   1.675  0.7818 -1.6390 -0.0248
11754SOL     OW45575  12.219   9.157   1.920  0.6969 -0.1928 -0.0561
11754SOL    HW145576  12.272   9.078   1.928  0.0991 -0.4834  1.1339
11754SOL    HW245577  12.282   9.229   1.930  0.8963 -0.5310  1.2365
11755SOL     OW45578   8.638   3.132  10.754 -0.2370 -0.3578 -0.2000
11755SOL    HW145579   8.664   3.202  10.693  0.9673  0.0566  0.7392
11755SOL    HW245580   8.663   3.051  10.710  0.4617 -0.0698 -0.3572
11756SOL     OW45581   4.032   4.845   0.345  0.0086  0.1166  0.2280
11756SOL    HW145582   4.098   4.785   0.310 -0.4789  0.2370 -0.9499
11756SOL    HW245583   3.968   4.787   0.387 -0.1294 -0.1345 -0.3292
11757SOL     OW45584   7.330   8.267   9.836  0.7317 -0.7870 -0.1693
11757SOL    HW145585   7.313   8.333   9.769 -1.5265  0.4000  1.4464
11757SOL    HW245586   7.422   8.279   9.858  0.4601  1.7193 -0.0983
11758SOL     OW45587  11.671  11.298   8.378 -0.2419  0.8707 -0.1523
11758SOL    HW145588  11.739  11.327   8.438 -0.1876  0.7955 -0.1773
11758SOL    HW245589  11.626  11.227   8.424  0.5166  0.0444 -0.6376
11759SOL     OW45590   4.347   6.068   2.886 -0.3797  0.2837  0.1323
11759SOL    HW145591   4.260   6.081   2.925  0.1250 -0.7041  1.6795
11759SOL    HW245592   4.330   6.055   2.793 -1.9353 -0.2609  0.4638
11760SOL     OW45593   3.451  11.031  11.993 -0.5919  0.1600 -0.0204
11760SOL    HW145594   3.395  10.954  11.985 -1.7254  1.0349 -0.8279
11760SOL    HW245595   3.403  11.101  11.949  1.6841  0.6841 -1.9139
11761SOL     OW45596   0.016   9.242   7.216  0.3167  0.6342 -0.3944
11761SOL    HW145597   0.091   9.292   7.183 -0.6552  2.2900 -0.1753
11761SOL    HW245598   0.033   9.152   7.186  2.0938  1.0749 -0.8265
11762SOL     OW45599   0.831   5.539  10.378 -0.1013 -0.8206 -0.3795
11762SOL    HW145600   0.869   5.479  10.315  1.1619 -2.6497  1.9433
11762SOL    HW245601   0.743   5.558  10.344  0.1489 -2.5086 -2.1192
11763SOL     OW45602   7.835  11.797   6.583  0.2304 -0.4208  0.0969
11763SOL    HW145603   7.891  11.797   6.506  0.1633 -0.7181  0.0504
11763SOL    HW245604   7.766  11.861   6.563  0.0033 -0.7667 -0.2397
11764SOL     OW45605   6.070  10.042   7.278 -0.3626 -0.5741  0.3015
11764SOL    HW145606   6.005  10.107   7.301 -2.8997 -2.0439 -2.1060
11764SOL    HW245607   6.059   9.973   7.344 -1.6864 -1.0429 -0.3746
11765SOL     OW45608   8.538  11.261   7.305  0.3184  0.4834  0.5429
11765SOL    HW145609   8.623  11.217   7.303  0.6030  1.0334  0.4045
11765SOL    HW245610   8.476  11.195   7.273  0.9945  0.7369 -1.3967
11766SOL     OW45611  12.942   3.284   6.230  0.3128  1.0406  0.5557
11766SOL    HW145612  12.867   3.313   6.282  0.4981  1.8279  0.3957
11766SOL    HW245613  12.979   3.211   6.280 -0.0003  1.2554  1.1092
11767SOL     OW45614   1.122   5.452   0.095  0.1885 -0.4383 -0.3241
11767SOL    HW145615   1.124   5.379   0.157  2.8305 -0.1343  0.0685
11767SOL    HW245616   1.129   5.410   0.009  3.3255 -0.7682 -0.0545
11768SOL     OW45617   2.895  10.503   9.276 -0.1112  0.0307 -0.2286
11768SOL    HW145618   2.839  10.580   9.262  0.5128  0.6870  0.8300
11768SOL    HW245619   2.834  10.432   9.295 -0.8599 -0.2957 -3.2563
11769SOL     OW45620   6.274  10.171   3.995  0.0014 -0.2728 -0.0753
11769SOL    HW145621   6.287  10.153   4.088  0.4496  0.4756  0.0203
11769SOL    HW245622   6.362  10.179   3.959 -0.1482 -1.5965 -0.7954
11770SOL     OW45623   9.682   6.512   3.909 -0.3143  0.5149 -0.3661
11770SOL    HW145624   9.724   6.431   3.938 -2.4689 -0.8399 -0.8438
11770SOL    HW245625   9.720   6.580   3.965  1.0757 -0.9078  0.4831
11771SOL     OW45626   0.296   6.550   0.484 -0.6100  0.0360 -0.0123
11771SOL    HW145627   0.299   6.518   0.574  0.2416 -0.1716 -0.1043
11771SOL    HW245628   0.202   6.552   0.462 -0.7469 -1.5477  0.3067
11772SOL     OW45629  11.860   2.903   8.615  0.9326 -0.0962  0.1404
11772SOL    HW145630  11.935   2.958   8.593  1.0706 -0.8044 -1.3429
11772SOL    HW245631  11.890   2.814   8.596  0.1847 -0.5239  0.9135
11773SOL     OW45632   8.251   5.199   4.781 -0.0942  0.3709 -0.4158
11773SOL    HW145633   8.164   5.162   4.767  0.7289 -1.4603 -1.0122
11773SOL    HW245634   8.279   5.228   4.694 -0.2967  1.4566 -0.1339
11774SOL     OW45635   0.949   4.337  10.250 -0.1762  0.4634  0.0214
11774SOL    HW145636   0.949   4.372  10.339  0.8700  1.5148 -0.3706
11774SOL    HW245637   1.011   4.264  10.253  0.7042  1.1920 -0.0873
11775SOL     OW45638  12.010   8.077   8.524 -0.1900  0.5849  0.3610
11775SOL    HW145639  11.949   8.060   8.452 -0.1349  2.7345 -0.2803
11775SOL    HW245640  12.064   7.999   8.528 -2.1138 -0.8439  0.0758
11776SOL     OW45641   9.976   1.663  12.443  0.7622  0.3498  0.2585
11776SOL    HW145642   9.881   1.667  12.453  0.9486  0.9336  2.2594
11776SOL    HW245643   9.995   1.571  12.427 -0.2622  0.5100 -2.2218
11777SOL     OW45644   5.544  11.228   1.672  0.2894 -0.4088  0.4226
11777SOL    HW145645   5.471  11.231   1.733  0.8056 -1.1950  1.1039
11777SOL    HW245646   5.621  11.251   1.724  0.9135 -2.2273  0.4097
11778SOL     OW45647   2.499   0.405   6.654 -0.2973  0.0437 -0.4619
11778SOL    HW145648   2.505   0.359   6.738 -1.0740  1.2286  0.2868
11778SOL    HW245649   2.408   0.434   6.649 -0.5819 -1.0271 -2.3131
11779SOL     OW45650   8.440   5.844   8.138  0.0207  0.0972  0.2491
11779SOL    HW145651   8.449   5.907   8.209  1.4667 -0.7780  0.8812
11779SOL    HW245652   8.522   5.851   8.089 -0.3690 -0.3200 -0.4821
11780SOL     OW45653  12.758   3.778   6.447 -0.3777 -0.3479 -0.0453
11780SOL    HW145654  12.773   3.872   6.452 -0.8037 -0.3240  1.1162
11780SOL    HW245655  12.801   3.742   6.525 -2.4685 -0.7808  0.9858
11781SOL     OW45656  12.750   2.007   2.443 -0.1728 -0.1120  0.5089
11781SOL    HW145657  12.748   2.102   2.448 -2.4797 -0.0373 -0.3825
11781SOL    HW245658  12.751   1.987   2.349  0.6923 -0.9949  0.6818
11782SOL     OW45659  11.464   0.183  12.441  0.3434 -0.3325 -0.1141
11782SOL    HW145660  11.448   0.088  12.432  1.2738 -0.2761 -5.3472
11782SOL    HW245661  11.377   0.219  12.457 -0.0826 -1.9614  1.7045
11783SOL     OW45662   0.488   4.064   1.557  0.0226 -0.0755 -0.1830
11783SOL    HW145663   0.469   4.070   1.464  0.9865  0.6163 -0.3595
11783SOL    HW245664   0.456   3.978   1.584 -1.8385  0.3986 -0.7539
11784SOL     OW45665  12.447  11.117  10.232 -0.2521  0.5316 -0.1318
11784SOL    HW145666  12.520  11.073  10.188  0.0783  0.0776  0.8613
11784SOL    HW245667  12.486  11.159  10.308 -0.5372  2.6277 -1.0683
11785SOL     OW45668  12.325   0.105   6.685  0.2616  0.1261 -0.5961
11785SOL    HW145669  12.365   0.018   6.673 -0.9345 -0.5719  0.2665
11785SOL    HW245670  12.232   0.086   6.697 -0.1302  1.6048 -1.1654
11786SOL     OW45671   9.810   8.440   3.469  0.0730  0.3367 -0.0411
11786SOL    HW145672   9.721   8.466   3.446  0.0688  0.1205 -0.2740
11786SOL    HW245673   9.860   8.453   3.388 -0.0973 -1.1845 -0.4244
11787SOL     OW45674   4.592  12.514   6.891 -0.5706  0.8838  0.6434
11787SOL    HW145675   4.528  12.485   6.826  0.5103 -2.1038  0.7340
11787SOL    HW245676   4.675  12.518   6.843 -0.0322  0.1737  1.4752
11788SOL     OW45677   9.528   3.299   9.450  0.6037 -0.5911  0.2031
11788SOL    HW145678   9.486   3.298   9.364  1.4405 -2.0218 -0.2200
11788SOL    HW245679   9.525   3.390   9.477  0.3984 -0.0973 -1.3763
11789SOL     OW45680   7.606   6.621   3.966  0.7926  0.5043 -0.0438
11789SOL    HW145681   7.601   6.716   3.958  2.8565  0.7073  0.4573
11789SOL    HW245682   7.676   6.595   3.906  1.1914 -0.5311  0.8232
11790SOL     OW45683   0.511   8.657   1.630  0.4472 -0.0771 -0.8925
11790SOL    HW145684   0.537   8.667   1.722  0.4817 -1.2972 -0.7522
11790SOL    HW245685   0.572   8.712   1.582  1.3898 -0.5644 -0.2928
11791SOL     OW45686  10.699  10.293  10.475  0.7598 -0.0307  0.4494
11791SOL    HW145687  10.695  10.371  10.420  2.2308 -0.1519  0.1298
11791SOL    HW245688  10.710  10.220  10.414 -0.2980 -0.4808  0.7632
11792SOL     OW45689   8.108   0.178   4.978 -0.0498  0.1347 -0.0983
11792SOL    HW145690   8.125   0.248   5.041  0.2931 -0.9152  0.9964
11792SOL    HW245691   8.178   0.187   4.913  0.4180  0.3435  0.4320
11793SOL     OW45692   6.300   5.979   8.618  0.3667  0.0626  0.0753
11793SOL    HW145693   6.337   5.940   8.539  1.0377 -0.3190  0.5739
11793SOL    HW245694   6.296   5.907   8.681  1.2137  0.6941  0.8641
11794SOL     OW45695  11.204   5.752   2.278  0.8066  0.1266 -0.5336
11794SOL    HW145696  11.214   5.674   2.224 -0.3379 -0.0328 -0.5559
11794SOL    HW245697  11.131   5.800   2.238  1.4829  1.2195 -0.5199
11795SOL     OW45698   6.612   3.313   5.736 -0.5182  0.0149 -0.3578
11795SOL    HW145699   6.677   3.256   5.777  0.3581  0.6631 -0.7869
11795SOL    HW245700   6.624   3.398   5.779 -1.0630  0.1429 -0.4571
11796SOL     OW45701  11.238   5.757   4.900 -0.0715  0.0723 -0.0521
11796SOL    HW145702  11.143   5.767   4.895  0.1488  3.2413 -0.2057
11796SOL    HW245703  11.262   5.712   4.819 -1.2827  1.3228 -1.1475
11797SOL     OW45704   3.523  10.902   0.919  0.3387 -0.0777  0.4444
11797SOL    HW145705   3.529  10.807   0.909  0.6285 -0.0569  0.4052
11797SOL    HW245706   3.530  10.936   0.830 -1.0016 -0.0732  0.3212
11798SOL     OW45707   6.263  11.762   6.701  0.2750  0.1057  0.4165
11798SOL    HW145708   6.265  11.675   6.662  3.0836  0.6081 -0.8983
11798SOL    HW245709   6.189  11.805   6.659 -0.8928 -1.4923  0.7685
11799SOL     OW45710   7.164   5.463   3.112  0.0334  1.1111 -0.1312
11799SOL    HW145711   7.075   5.496   3.103  0.2699  1.4283 -1.4369
11799SOL    HW245712   7.166   5.385   3.057  0.9310  1.8660 -1.2040
11800SOL     OW45713   3.559   1.424   1.968  0.1938  0.1759  0.0489
11800SOL    HW145714   3.544   1.517   1.947 -0.6923  0.2352  0.8980
11800SOL    HW245715   3.633   1.399   1.913  1.6432  1.8885  1.1228
11801SOL     OW45716   0.360   0.737   5.383  0.4162 -0.1525 -0.1251
11801SOL    HW145717   0.444   0.692   5.381  0.5888  0.1908 -1.3494
11801SOL    HW245718   0.369   0.801   5.453  0.2802 -1.7416  1.4224
11802SOL     OW45719  12.136   4.118   2.930  0.0511  0.0897 -0.5416
11802SOL    HW145720  12.210   4.061   2.952  1.3829  2.5305  1.7639
11802SOL    HW245721  12.083   4.120   3.009 -1.3839  0.0825 -1.4651
11803SOL     OW45722   6.629  11.678   4.233  0.3877  0.1227 -0.4428
11803SOL    HW145723   6.684  11.736   4.181  0.2247  1.1563  0.5022
11803SOL    HW245724   6.638  11.711   4.323 -0.2594 -0.8877  0.0058
11804SOL     OW45725  11.649   3.878  11.817 -0.2453 -0.0044  0.3160
11804SOL    HW145726  11.640   3.958  11.766  1.3546 -0.3140 -0.4958
11804SOL    HW245727  11.594   3.893  11.895 -2.3373  0.6723 -1.1860
11805SOL     OW45728   3.123   6.453   5.164 -0.3323  0.2869 -0.1964
11805SOL    HW145729   3.210   6.416   5.151 -0.2948 -0.0193  0.8061
11805SOL    HW245730   3.137   6.547   5.169  0.0101  0.2045  0.4240
11806SOL     OW45731   3.740   1.307   2.785  0.3221 -0.2069  0.5720
11806SOL    HW145732   3.764   1.251   2.859  0.2768  1.2232  1.7242
11806SOL    HW245733   3.812   1.369   2.779  0.4478 -0.4652 -0.7860
11807SOL     OW45734   8.137   8.106   3.139  0.0131  0.1668 -0.1690
11807SOL    HW145735   8.062   8.143   3.092 -0.2889  0.2731  0.3877
11807SOL    HW245736   8.133   8.147   3.226 -0.2274 -1.0408  0.4062
11808SOL     OW45737   1.493   5.752   9.143  0.2974  0.5519  0.0135
11808SOL    HW145738   1.450   5.821   9.092  0.3026  1.9132  1.7423
11808SOL    HW245739   1.586   5.772   9.136  0.2626  1.1139  1.0148
11809SOL     OW45740  12.364  11.316   8.463 -0.6465 -0.1915  0.4402
11809SOL    HW145741  12.357  11.288   8.372 -1.4784  0.4616  0.2883
11809SOL    HW245742  12.308  11.255   8.511 -0.0708 -0.6429  0.5426
11810SOL     OW45743   3.913   9.427   2.410 -0.1173  0.2936  0.2692
11810SOL    HW145744   3.991   9.478   2.385  0.6078 -0.4142  1.0117
11810SOL    HW245745   3.864   9.485   2.468 -0.3989  0.9164 -0.5605
11811SOL     OW45746  11.682   3.035   6.231 -0.3143  0.2125 -0.4797
11811SOL    HW145747  11.649   2.946   6.241  0.1070 -0.1104 -1.7991
11811SOL    HW245748  11.605   3.086   6.203 -0.7897  0.5026  1.2292
11812SOL     OW45749   2.384   5.224   0.177 -0.1785 -0.2609 -0.2360
11812SOL    HW145750   2.323   5.150   0.173 -1.6247  0.8326  0.6334
11812SOL    HW245751   2.357   5.280   0.104 -1.0721  0.8387  0.9119
11813SOL     OW45752  11.347   8.272  12.005 -0.3715 -0.1558  0.5277
11813SOL    HW145753  11.368   8.185  11.970 -1.6218 -0.0460 -0.5530
11813SOL    HW245754  11.258   8.263  12.039 -0.2757  0.5554  0.9722
11814SOL     OW45755  12.543  11.622   0.541  0.1832  0.0683  0.2377
11814SOL    HW145756  12.520  11.532   0.565 -0.4165  0.0464 -0.4027
11814SOL    HW245757  12.637  11.617   0.521  0.2804 -0.2939  0.7551
11815SOL     OW45758  11.816   3.045   3.660 -0.3055 -0.2861  0.2948
11815SOL    HW145759  11.741   3.067   3.604 -0.1761  0.6395  0.4816
11815SOL    HW245760  11.863   3.127   3.671  1.1533 -0.9846 -0.4135
11816SOL     OW45761   9.756   7.972   7.338 -0.6573 -0.0247  0.0857
11816SOL    HW145762   9.800   8.044   7.292 -1.7462  0.6384  0.0552
11816SOL    HW245763   9.694   7.937   7.274 -4.3236  2.7637  1.7243
11817SOL     OW45764   5.494   9.833   6.386  0.3702  1.0622 -0.4485
11817SOL    HW145765   5.584   9.863   6.398  0.3223  1.8131 -1.7776
11817SOL    HW245766   5.453   9.902   6.334 -0.1528 -0.6169 -2.3731
11818SOL     OW45767   9.019   6.696   3.371 -0.0941  0.4666  0.0856
11818SOL    HW145768   8.965   6.768   3.403 -0.6680  0.7900 -1.5063
11818SOL    HW245769   9.107   6.715   3.404 -0.3365  1.6364  0.1085
11819SOL     OW45770  10.490   6.381   1.280 -0.3014 -0.0457  0.3181
11819SOL    HW145771  10.460   6.468   1.254  0.0060  0.1526  0.6146
11819SOL    HW245772  10.410   6.333   1.299 -0.5483 -0.2909 -1.2677
11820SOL     OW45773   6.076   7.489   5.920 -0.2932 -0.2198 -0.4013
11820SOL    HW145774   6.171   7.472   5.922 -0.4081 -0.9032 -0.5112
11820SOL    HW245775   6.047   7.472   6.009 -0.7489 -2.7211 -0.9654
11821SOL     OW45776  10.618   6.803   2.860 -0.3573  0.3278 -0.3192
11821SOL    HW145777  10.525   6.823   2.846  0.0651  1.9682 -0.9312
11821SOL    HW245778  10.638   6.843   2.945 -0.3083 -0.4260  0.0325
11822SOL     OW45779   1.950   0.075   7.321 -0.7445 -0.4651 -0.0453
11822SOL    HW145780   2.036   0.076   7.280 -0.6286 -1.1570  0.1756
11822SOL    HW245781   1.967   0.091   7.414 -0.9588  0.5252 -0.1578
11823SOL     OW45782   8.154   4.158   2.402 -0.8146 -0.0405 -0.4180
11823SOL    HW145783   8.079   4.141   2.346 -0.1788  0.1070 -1.3432
11823SOL    HW245784   8.220   4.095   2.374 -0.6380 -0.2898  0.5048
11824SOL     OW45785   7.653  11.492  10.927 -0.1846 -0.0159  0.0076
11824SOL    HW145786   7.657  11.460  10.837 -0.2018 -1.0189  0.3457
11824SOL    HW245787   7.726  11.554  10.934 -0.1300  0.0065 -0.6675
11825SOL     OW45788   4.742   3.322   8.431 -0.1359  0.1040  0.3951
11825SOL    HW145789   4.788   3.291   8.509  0.4791 -0.2421 -0.0934
11825SOL    HW245790   4.793   3.288   8.358 -0.1478  1.2466 -0.1629
11826SOL     OW45791   2.279   4.376   1.263 -0.2044  0.1034 -0.0845
11826SOL    HW145792   2.363   4.392   1.307  0.4287 -0.2343 -1.1266
11826SOL    HW245793   2.242   4.463   1.250  0.8573  0.4026 -1.2410
11827SOL     OW45794   5.406  10.654   0.946  0.4042  0.0095 -0.2148
11827SOL    HW145795   5.408  10.749   0.959  0.3056  0.2558 -1.7900
11827SOL    HW245796   5.313  10.634   0.935  0.6033  0.2477 -2.9884
11828SOL     OW45797   3.002   5.755   8.722 -0.1108  0.0010 -0.3308
11828SOL    HW145798   3.027   5.715   8.639  2.5238 -0.1072  0.4099
11828SOL    HW245799   3.000   5.682   8.784  1.5603  0.5150  0.3844
11829SOL     OW45800   2.389   9.623   9.116 -0.4342 -0.0033  0.2396
11829SOL    HW145801   2.436   9.683   9.058  0.3322 -1.5524 -0.8053
11829SOL    HW245802   2.439   9.542   9.113 -1.2923 -0.6348  1.8212
11830SOL     OW45803   5.707   8.157   7.992 -0.7188  0.0045 -0.4421
11830SOL    HW145804   5.688   8.209   8.070  0.3308  0.2346 -0.3190
11830SOL    HW245805   5.636   8.178   7.932 -0.6086  1.1787 -0.1953
11831SOL     OW45806   3.066   4.476   6.538 -0.0571  0.7048 -0.8128
11831SOL    HW145807   2.999   4.414   6.567  0.1597  0.6019 -0.5200
11831SOL    HW245808   3.143   4.421   6.519  2.0552  1.1293  4.6484
11832SOL     OW45809   4.909  12.624   2.412 -0.0066 -0.1677  0.2424
11832SOL    HW145810   4.928  12.681   2.337 -2.3030 -0.4028 -0.6014
11832SOL    HW245811   4.857  12.553   2.375  2.1780 -2.5207  1.3958
11833SOL     OW45812  12.488   3.652   4.093  0.0753 -0.6454  0.0161
11833SOL    HW145813  12.545   3.581   4.062 -0.5699 -1.1382 -0.0583
11833SOL    HW245814  12.547   3.710   4.142  1.0305 -0.1003 -1.6927
11834SOL     OW45815  10.433   5.455   4.521  0.3873 -0.6686  0.3520
11834SOL    HW145816  10.424   5.367   4.557  1.7371 -0.7181  0.6338
11834SOL    HW245817  10.526   5.476   4.534  0.0975  0.7517  0.1909
11835SOL     OW45818  12.717   1.894   2.188 -0.0321 -0.6883 -0.3525
11835SOL    HW145819  12.667   1.841   2.126  0.6732 -1.8880  0.0667
11835SOL    HW245820  12.710   1.983   2.155 -2.6372 -0.7568 -0.1923
11836SOL     OW45821   4.772   6.932   2.327  0.3950  0.5538 -0.7612
11836SOL    HW145822   4.684   6.950   2.359  0.5633 -1.3831  1.0060
11836SOL    HW245823   4.818   7.015   2.333  0.1387  0.5709  3.3632
11837SOL     OW45824   8.587   0.239   3.711 -0.5555  0.3667  0.2544
11837SOL    HW145825   8.516   0.175   3.715 -0.4449  0.2891  1.4025
11837SOL    HW245826   8.646   0.214   3.782 -0.0593  1.2035  0.1512
11838SOL     OW45827   6.135  11.209  11.969 -0.7553  0.2023 -0.4679
11838SOL    HW145828   6.171  11.217  12.057  0.3543  2.3623 -1.0269
11838SOL    HW245829   6.208  11.177  11.916 -1.6466 -1.8923 -0.5184
11839SOL     OW45830  10.346   0.579  10.023 -0.1586 -0.1445  0.7533
11839SOL    HW145831  10.295   0.616  10.095 -0.0254 -1.1933  1.4039
11839SOL    HW245832  10.323   0.633   9.947 -2.4896 -0.7673  0.9349
11840SOL     OW45833   6.069  12.868   4.479 -0.1983  0.0338  0.4537
11840SOL    HW145834   6.079  12.834   4.567 -2.1747  0.4250  0.8664
11840SOL    HW245835   6.065  12.791   4.423 -1.2714 -0.3147  0.9916
11841SOL     OW45836   4.932   3.970   5.387 -0.1904  0.2324 -0.1293
11841SOL    HW145837   4.842   3.973   5.420  0.6459 -1.8486  2.7920
11841SOL    HW245838   4.949   3.877   5.374  2.8495 -0.0864  4.0139
11842SOL     OW45839   1.806  12.667   7.498  0.0445 -0.0891  0.3725
11842SOL    HW145840   1.826  12.688   7.406 -1.3720  2.1443  0.4954
11842SOL    HW245841   1.715  12.692   7.509 -0.5318 -2.5297  1.8357
11843SOL     OW45842   6.873   1.893   0.971 -0.2329  0.1157  0.0638
11843SOL    HW145843   6.911   1.807   0.985  4.0399  2.0678  2.7265
11843SOL    HW245844   6.801   1.898   1.034 -1.6168 -1.9075 -1.2430
11844SOL     OW45845  12.241   4.833   9.310 -0.2360  0.3458 -1.1828
11844SOL    HW145846  12.289   4.835   9.227 -0.4245 -0.2170 -1.3076
11844SOL    HW245847  12.163   4.887   9.293 -1.6974 -1.9268 -2.2858
11845SOL     OW45848   2.103  12.656   9.360 -0.0392  0.1545  0.0353
11845SOL    HW145849   2.101  12.742   9.402  0.7528  0.5787 -0.7660
11845SOL    HW245850   2.034  12.606   9.404 -1.4752  1.6407 -0.4170
11846SOL     OW45851   8.328   3.536   8.499  0.3107  0.0643  0.3239
11846SOL    HW145852   8.328   3.467   8.433  0.4921 -0.1119  0.5039
11846SOL    HW245853   8.370   3.610   8.456  0.3157 -0.0101  0.2010
11847SOL     OW45854  11.526   5.396   4.258 -0.3169 -0.8768 -0.0957
11847SOL    HW145855  11.498   5.305   4.260 -0.2727 -1.0198 -2.6213
11847SOL    HW245856  11.482   5.433   4.182 -0.6165  1.3526  1.0658
11848SOL     OW45857  11.446   5.894   1.911 -0.2229 -0.1816 -0.6882
11848SOL    HW145858  11.444   5.938   1.996  0.2000  0.8152 -1.1707
11848SOL    HW245859  11.363   5.847   1.906 -0.6196  0.4350 -0.0699
11849SOL     OW45860   5.785   2.202   6.269  0.0004  0.2646 -0.1142
11849SOL    HW145861   5.796   2.191   6.363  1.5426 -0.4451 -0.3351
11849SOL    HW245862   5.706   2.255   6.259 -1.4320 -1.4316  1.4893
11850SOL     OW45863   3.732   9.031   5.123  0.4044  0.3249  0.8170
11850SOL    HW145864   3.719   9.093   5.195 -2.3724  0.6349  0.1631
11850SOL    HW245865   3.770   8.954   5.165  0.2885  1.0462  2.3300
11851SOL     OW45866   3.355   9.271   5.993  0.4745  0.4966  0.1316
11851SOL    HW145867   3.288   9.289   6.059 -0.5344 -1.0424 -0.4084
11851SOL    HW245868   3.310   9.282   5.910  1.0287 -0.0472 -0.2480
11852SOL     OW45869   5.361  12.091   5.113  0.1443  0.5618 -0.3363
11852SOL    HW145870   5.402  12.050   5.189 -0.1229  0.1598 -0.4068
11852SOL    HW245871   5.283  12.039   5.097 -0.4924  1.4150 -0.0985
11853SOL     OW45872   9.958   0.191  10.072 -0.4495  0.0888 -0.0188
11853SOL    HW145873   9.960   0.223   9.982  2.1918 -1.8348 -0.7700
11853SOL    HW245874   9.929   0.266  10.124  1.8635  2.5662 -2.0365
11854SOL     OW45875   2.925   6.755   6.965 -0.1352 -0.1060 -0.0178
11854SOL    HW145876   2.996   6.696   6.991  0.1977  0.4215  0.2784
11854SOL    HW245877   2.930   6.758   6.870  0.5853  0.3579  0.0329
11855SOL     OW45878   3.313  12.538  11.134 -0.1934 -0.3260  0.4728
11855SOL    HW145879   3.294  12.615  11.189 -0.9588 -1.0247  1.2300
11855SOL    HW245880   3.390  12.499  11.175  0.7483  0.5002 -0.4421
11856SOL     OW45881   6.682   8.302   8.430  0.0434  0.0590  0.0775
11856SOL    HW145882   6.599   8.256   8.444 -0.5135  0.9146 -0.3882
11856SOL    HW245883   6.739   8.235   8.391  0.0387 -0.9328  1.6502
11857SOL     OW45884   4.989   2.259   1.117 -0.2980 -0.2337  0.1958
11857SOL    HW145885   4.956   2.331   1.063 -0.1989  1.3492  2.1430
11857SOL    HW245886   5.072   2.234   1.076  1.1741  2.7806  1.0215
11858SOL     OW45887   0.937  12.748   2.149 -0.1904 -0.5163 -0.0979
11858SOL    HW145888   0.885  12.703   2.083  0.0161  0.8130 -1.1962
11858SOL    HW245889   0.892  12.831   2.165  0.8809  0.0999 -0.1276
11859SOL     OW45890   7.209   2.277   8.079  0.1846  0.1236  0.1877
11859SOL    HW145891   7.283   2.338   8.072 -0.2331  0.5408 -0.7651
11859SOL    HW245892   7.194   2.248   7.989 -0.9553  0.2240  0.3362
11860SOL     OW45893  11.217   9.935   0.494 -0.7476  0.2938  0.6737
11860SOL    HW145894  11.127   9.941   0.462 -0.7955 -1.9368  0.1993
11860SOL    HW245895  11.228  10.012   0.549 -2.8370  0.8057  0.4725
11861SOL     OW45896   7.158   0.077   0.492 -0.0502 -0.5497 -0.3597
11861SOL    HW145897   7.217   0.112   0.426  0.4091  1.1395  0.8769
11861SOL    HW245898   7.075   0.063   0.446 -0.5496  3.0446 -0.8363
11862SOL     OW45899   0.155   7.791   1.496 -0.0406 -0.0752 -0.3642
11862SOL    HW145900   0.094   7.744   1.439  0.5328 -2.3540  0.8039
11862SOL    HW245901   0.239   7.786   1.450  0.5071 -2.2494  0.7398
11863SOL     OW45902   3.570   0.561  10.740  0.1050  0.3371 -0.0861
11863SOL    HW145903   3.564   0.616  10.662  0.1959 -0.3834 -0.6077
11863SOL    HW245904   3.660   0.527  10.738  0.1175  0.3379  0.3518
11864SOL     OW45905   3.703  12.524  10.201 -0.0560 -0.1726 -0.3537
11864SOL    HW145906   3.612  12.495  10.200  0.5115 -2.0874 -1.1967
11864SOL    HW245907   3.709  12.583  10.277 -1.9463 -0.0899 -0.2341
11865SOL     OW45908   1.258  10.713  10.712 -0.5524 -0.3605  0.1059
11865SOL    HW145909   1.342  10.758  10.722 -0.9472  0.0419  1.8841
11865SOL    HW245910   1.217  10.756  10.637 -0.7081  1.9975  1.4527
11866SOL     OW45911   7.749   5.446   3.374  0.8420 -0.1806 -0.8610
11866SOL    HW145912   7.730   5.439   3.468 -0.5358 -0.6121 -1.1452
11866SOL    HW245913   7.760   5.539   3.358 -1.1939  0.1431 -0.6462
11867SOL     OW45914   8.010   3.791   4.657  0.4232 -0.0850  0.5313
11867SOL    HW145915   7.996   3.849   4.582 -0.5625 -1.3340 -0.2938
11867SOL    HW245916   8.008   3.703   4.620  0.3048 -0.7176  1.9808
11868SOL     OW45917   9.425  11.445   4.338  0.1175 -0.2538 -0.3577
11868SOL    HW145918   9.497  11.490   4.381 -1.4181  1.0832  0.9291
11868SOL    HW245919   9.414  11.364   4.388  1.5681 -1.1427 -1.4161
11869SOL     OW45920   7.637   8.263   8.854 -0.3040  0.6451  0.1253
11869SOL    HW145921   7.616   8.327   8.922 -0.4215  0.7115  0.0278
11869SOL    HW245922   7.576   8.191   8.868  0.5529  0.0480  0.9264
11870SOL     OW45923   2.847   1.451   2.465 -0.2665  0.0068 -0.2777
11870SOL    HW145924   2.792   1.517   2.422 -1.8775 -0.4507  0.9783
11870SOL    HW245925   2.848   1.378   2.404 -0.0902  0.4570 -0.8261
11871SOL     OW45926   7.714  11.280   0.993 -0.2452 -0.1176 -0.0017
11871SOL    HW145927   7.674  11.219   0.932  1.7706 -0.5841 -0.9671
11871SOL    HW245928   7.780  11.326   0.941  0.1449  0.9327  1.3453
11872SOL     OW45929   5.540   3.969   4.888  0.0372 -0.3309 -0.1819
11872SOL    HW145930   5.632   3.967   4.915  0.3877 -1.0376 -1.3251
11872SOL    HW245931   5.494   3.916   4.954  0.5413 -0.4289  0.0969
11873SOL     OW45932   9.167   2.890   2.496  0.4638 -0.6351 -0.1313
11873SOL    HW145933   9.187   2.983   2.503 -0.1314 -0.5689  1.0766
11873SOL    HW245934   9.253   2.847   2.494  0.7574 -0.1591  1.2064
11874SOL     OW45935  10.277   9.893   6.691  0.0795 -0.3349 -0.1183
11874SOL    HW145936  10.221   9.951   6.743 -2.2586 -1.2187 -1.4626
11874SOL    HW245937  10.310   9.829   6.754 -1.4377 -0.4875  0.5713
11875SOL     OW45938   1.319   2.812  11.926  0.2956 -0.3110 -0.4631
11875SOL    HW145939   1.287   2.736  11.974  0.1660  1.4454  2.5297
11875SOL    HW245940   1.414   2.807  11.933  0.3205 -0.5844 -0.9582
11876SOL     OW45941   8.678  11.964   5.928  0.1351  0.0658  0.1479
11876SOL    HW145942   8.614  11.894   5.913  0.7437 -1.1085  2.4919
11876SOL    HW245943   8.761  11.925   5.901  0.1005  1.1539 -1.7154
11877SOL     OW45944  12.652   9.321   5.911 -0.0384 -0.1861  0.0471
11877SOL    HW145945  12.568   9.367   5.910  0.4756  0.7721 -1.2149
11877SOL    HW245946  12.677   9.319   6.003 -1.0139  0.2999  0.3400
11878SOL     OW45947   5.683   2.588  12.919  0.0196  0.3870  0.0858
11878SOL    HW145948   5.732   2.561  12.841 -1.6500 -1.5090 -0.3790
11878SOL    HW245949   5.671   2.682  12.909  2.1857  0.6429 -0.5395
11879SOL     OW45950   6.642   8.655   8.076 -0.0378  0.8831  0.2193
11879SOL    HW145951   6.705   8.606   8.129  2.2894  1.7186 -1.6042
11879SOL    HW245952   6.573   8.592   8.056  2.3942 -1.4864 -1.2820
11880SOL     OW45953   0.499  11.058   4.592  0.6387 -0.2408  0.5583
11880SOL    HW145954   0.525  10.972   4.560 -1.0271 -0.4300 -0.4005
11880SOL    HW245955   0.442  11.093   4.523  1.0231  1.4982  1.0688
11881SOL     OW45956   2.900  10.197   8.531  0.4404  0.3742 -0.0013
11881SOL    HW145957   2.836  10.195   8.459  0.2021 -1.3367  0.2246
11881SOL    HW245958   2.983  10.172   8.489  0.2761 -0.7508  0.3194
11882SOL     OW45959   2.398  12.831   4.364  0.3015 -0.0449  0.3747
11882SOL    HW145960   2.354  12.777   4.299  1.3457 -0.9187  0.3588
11882SOL    HW245961   2.377  12.921   4.339 -1.1210 -0.4192  0.1526
11883SOL     OW45962  12.095   9.573   3.021 -0.3260  0.3431 -0.5178
11883SOL    HW145963  12.116   9.503   3.083 -2.5133  0.1599  0.0859
11883SOL    HW245964  12.004   9.557   2.997 -0.4511  2.2011 -1.4305
11884SOL     OW45965  11.866   0.767   6.044 -0.2959  0.4922  0.4000
11884SOL    HW145966  11.898   0.726   5.963 -1.2186 -0.2130  0.3736
11884SOL    HW245967  11.944   0.775   6.099  0.1939  0.2013 -0.2355
11885SOL     OW45968   6.749   8.374   5.037 -0.0701 -0.0460  0.1768
11885SOL    HW145969   6.761   8.349   4.945  0.9987 -0.6350  0.4604
11885SOL    HW245970   6.667   8.423   5.038 -0.3903 -0.5259 -0.9980
11886SOL     OW45971   6.760   2.078   1.644  0.0930 -0.2440  0.5756
11886SOL    HW145972   6.682   2.123   1.676  0.1820 -1.0733  2.0804
11886SOL    HW245973   6.764   1.997   1.696  1.3986 -0.6892 -0.1657
11887SOL     OW45974   5.716   5.157   3.262 -0.1254 -0.0364  0.1146
11887SOL    HW145975   5.795   5.109   3.238  0.5460  1.2656 -0.3561
11887SOL    HW245976   5.647   5.119   3.208  0.2993 -0.7440  0.0579
11888SOL     OW45977  12.862  10.587   1.255  0.2922 -0.0892 -0.4187
11888SOL    HW145978  12.803  10.625   1.190  2.7275  1.7260 -1.7380
11888SOL    HW245979  12.805  10.544   1.318 -2.3137  0.3330 -2.3502
11889SOL     OW45980   1.370   4.035   4.686  0.0213 -0.3372  0.1443
11889SOL    HW145981   1.419   3.971   4.738 -1.4448 -0.8218  1.0047
11889SOL    HW245982   1.427   4.111   4.681  1.4585 -1.3842 -0.1593
11890SOL     OW45983   7.737   6.899   1.821 -0.2494  0.2966 -0.7101
11890SOL    HW145984   7.778   6.944   1.894 -0.7055  0.7875 -0.7445
11890SOL    HW245985   7.761   6.807   1.831 -0.2811  0.3685  0.0340
11891SOL     OW45986   6.961   9.944   7.782  0.3089 -0.1959 -0.3781
11891SOL    HW145987   6.949   9.994   7.701 -0.2181  0.5278  0.1405
11891SOL    HW245988   7.030   9.990   7.829  1.8149 -1.5648 -1.1388
11892SOL     OW45989   6.812   9.805   3.661 -0.3404 -0.1400  0.2379
11892SOL    HW145990   6.766   9.725   3.637 -1.6200 -0.2196  2.5963
11892SOL    HW245991   6.759   9.876   3.624 -0.1257 -0.3203 -0.4303
11893SOL     OW45992   1.621   5.144   1.367 -0.0248 -0.3318  0.0981
11893SOL    HW145993   1.560   5.104   1.429  0.0642 -1.3889 -0.4809
11893SOL    HW245994   1.695   5.171   1.421 -0.7376  0.4565  0.7264
11894SOL     OW45995   5.047   0.106   2.254 -0.3393 -0.1695  0.2586
11894SOL    HW145996   4.953   0.093   2.265 -0.0827 -1.3679  1.1884
11894SOL    HW245997   5.071   0.048   2.181 -0.6061  1.5229 -1.2404
11895SOL     OW45998   8.937   2.324   6.051 -0.1578  0.1535 -0.4372
11895SOL    HW145999   8.911   2.232   6.049 -1.7195  0.5764 -0.3816
11895SOL    HW246000   8.989   2.332   6.131  0.7602 -0.8610 -0.9067
11896SOL     OW46001   0.949   8.488   9.973  0.1948 -0.2752  0.2650
11896SOL    HW146002   0.903   8.422  10.025  0.3158  0.0607  0.8033
11896SOL    HW246003   0.879   8.532   9.924 -0.1563  0.6341  1.5290
11897SOL     OW46004  10.963   6.579   5.295  0.0487  0.5098  0.0181
11897SOL    HW146005  10.944   6.487   5.276  1.4820  0.2907 -0.5184
11897SOL    HW246006  10.968   6.583   5.390 -1.4384  0.3525  0.1176
11898SOL     OW46007  11.946  11.224   2.449 -0.1034 -0.1452  0.3933
11898SOL    HW146008  11.858  11.249   2.422 -0.0918  0.6624  1.0708
11898SOL    HW246009  11.982  11.177   2.373 -1.3745 -1.1644  0.3842
11899SOL     OW46010   5.268  10.369  10.838 -0.7532 -0.2627 -0.2035
11899SOL    HW146011   5.243  10.436  10.901  0.9774  0.0132  0.2284
11899SOL    HW246012   5.338  10.319  10.882  0.2166 -0.3063 -1.7320
11900SOL     OW46013   3.323   4.116   4.562  0.3299  0.3641  0.3108
11900SOL    HW146014   3.309   4.034   4.515 -0.8361  0.1649  0.9530
11900SOL    HW246015   3.411   4.108   4.597  0.8007  0.0519 -0.9071
11901SOL     OW46016   2.921   4.072   4.181  0.2382  0.1313  0.5893
11901SOL    HW146017   2.929   3.991   4.231 -0.6380 -0.5136 -0.2911
11901SOL    HW246018   2.986   4.063   4.111  0.4791  0.4141  0.7725
11902SOL     OW46019  11.144  10.845   0.648 -0.0423  0.2165  0.0269
11902SOL    HW146020  11.080  10.914   0.667 -0.6819 -0.3309 -0.1014
11902SOL    HW246021  11.116  10.809   0.564 -0.4989 -1.0821  0.7157
11903SOL     OW46022   2.199   8.945  11.046 -0.2270  0.4285 -0.2364
11903SOL    HW146023   2.243   8.996  11.115  0.7183 -0.6217 -0.0148
11903SOL    HW246024   2.111   8.982  11.040  0.2951  1.7936  0.1919
11904SOL     OW46025   9.529  11.392   1.866  0.1913 -0.0397 -0.2108
11904SOL    HW146026   9.455  11.385   1.927  0.6503  0.3604  0.3954
11904SOL    HW246027   9.500  11.457   1.801 -0.7335 -1.2505 -1.0698
11905SOL     OW46028  12.911   9.885   2.306  0.4577 -0.0663 -0.1519
11905SOL    HW146029  12.935   9.929   2.224 -2.8901  2.7065  0.1462
11905SOL    HW246030  12.852   9.815   2.279 -1.0280  1.1441 -0.1997
11906SOL     OW46031  11.075  12.482   7.943 -0.3266 -0.3585  0.1655
11906SOL    HW146032  11.022  12.442   7.874  1.3721 -0.1840 -1.3077
11906SOL    HW246033  11.105  12.565   7.905  1.4617 -0.7258  0.6980
11907SOL     OW46034   5.619  10.314   7.161  0.5952  0.3934  0.2969
11907SOL    HW146035   5.555  10.274   7.219 -0.4622  1.0856 -0.3599
11907SOL    HW246036   5.703  10.303   7.206 -0.0382 -0.1206  1.3834
11908SOL     OW46037   3.551   4.375   4.718 -0.0559 -0.4682 -0.0424
11908SOL    HW146038   3.588   4.332   4.640 -1.0846 -1.8769  0.2102
11908SOL    HW246039   3.578   4.319   4.791  0.5830  0.6369  0.5884
11909SOL     OW46040   5.219   7.627   3.699 -0.3611 -0.1892 -0.1922
11909SOL    HW146041   5.288   7.659   3.640  0.8910 -1.2034  0.6838
11909SOL    HW246042   5.180   7.553   3.653  0.4411 -0.8185  0.1336
11910SOL     OW46043   1.719   0.033  11.549 -0.1174 -0.0678  0.2834
11910SOL    HW146044   1.712   0.022  11.644 -1.4769  1.2778  0.3908
11910SOL    HW246045   1.630   0.055  11.521  0.1003 -1.1827 -1.4335
11911SOL     OW46046   6.430   3.098   4.917 -0.1757  0.0409  0.2622
11911SOL    HW146047   6.426   3.135   4.829  1.7802 -2.7616 -1.1576
11911SOL    HW246048   6.365   3.028   4.918  1.9398 -2.0643 -0.1944
11912SOL     OW46049   2.656   6.502   0.661  0.1459  0.6184 -0.3022
11912SOL    HW146050   2.610   6.582   0.685 -1.0692  0.0160 -0.5280
11912SOL    HW246051   2.589   6.434   0.664  1.5600 -0.8263  2.0189
11913SOL     OW46052   5.193   8.120   0.022  0.1709  0.1722  0.1962
11913SOL    HW146053   5.240   8.037   0.025  1.2754  0.7953  0.4409
11913SOL    HW246054   5.179   8.143   0.114 -0.6852 -0.0345  0.1291
11914SOL     OW46055   0.380   9.867   7.851 -0.0499 -0.0122 -0.1603
11914SOL    HW146056   0.339   9.895   7.770 -0.6313  0.7505  0.3884
11914SOL    HW246057   0.429   9.943   7.882  0.3936 -0.3817  0.0681
11915SOL     OW46058  11.316   9.834   1.029  0.1006  0.3854 -0.1449
11915SOL    HW146059  11.262   9.850   0.952  0.0277  2.9280  0.3611
11915SOL    HW246060  11.264   9.774   1.083 -0.7946  0.2860 -1.0962
11916SOL     OW46061   6.143   1.222   8.767  0.2134  0.0384 -0.5780
11916SOL    HW146062   6.172   1.145   8.817  1.0137 -0.3544 -1.6311
11916SOL    HW246063   6.153   1.295   8.828  0.0083 -0.5963  0.2416
11917SOL     OW46064   7.696   9.536   2.450  0.2795 -0.2007  0.1044
11917SOL    HW146065   7.652   9.459   2.413  0.9750 -0.6433  0.1925
11917SOL    HW246066   7.784   9.506   2.473  0.4412  0.5259  0.4844
11918SOL     OW46067   7.742  11.603  12.378 -0.3385  0.2770  0.2180
11918SOL    HW146068   7.683  11.655  12.323  0.8526  0.5426 -0.8681
11918SOL    HW246069   7.786  11.544  12.316  0.2248 -0.1971  1.0560
11919SOL     OW46070   4.476   3.477   9.533 -0.4167  0.6567  0.0260
11919SOL    HW146071   4.420   3.553   9.516 -0.4913  0.2198 -1.8641
11919SOL    HW246072   4.482   3.473   9.629  1.2685  4.2522  0.2582
11920SOL     OW46073   5.838   6.185   6.262  0.0853 -0.2196 -0.0274
11920SOL    HW146074   5.899   6.246   6.219 -0.6540  0.6475  0.1276
11920SOL    HW246075   5.788   6.146   6.191 -0.4625  0.4818 -0.0379
11921SOL     OW46076   3.140   4.606  12.799 -0.2825  0.1452 -0.3139
11921SOL    HW146077   3.207   4.553  12.842  1.2872  1.8936 -0.4700
11921SOL    HW246078   3.178   4.627  12.714 -1.3506  0.5802 -0.6903
11922SOL     OW46079   3.950   2.816  12.970 -0.7052  0.2498 -0.4045
11922SOL    HW146080   4.044   2.806  12.957 -0.3440  1.1298  1.2945
11922SOL    HW246081   3.940   2.897  13.019 -2.4047  0.4332 -0.9671
11923SOL     OW46082   3.926   0.638   2.594  0.0217 -0.1058 -0.7465
11923SOL    HW146083   3.940   0.588   2.513  0.3209 -0.9081 -0.2154
11923SOL    HW246084   3.910   0.728   2.565 -0.9108 -0.5773 -1.7483
11924SOL     OW46085   8.211  12.748   7.697 -0.4171  0.5142 -0.4151
11924SOL    HW146086   8.278  12.686   7.669 -0.4273  1.1579 -1.9919
11924SOL    HW246087   8.150  12.697   7.751  0.1949 -0.5523 -0.7212
11925SOL     OW46088   2.144   1.934   5.913  0.4101 -0.6114 -0.3379
11925SOL    HW146089   2.195   2.011   5.888  0.0450  0.1913  1.2080
11925SOL    HW246090   2.091   1.913   5.836 -1.8366  2.6598  0.0923
11926SOL     OW46091  12.926   5.893   1.204  0.4108  0.1837 -0.1036
11926SOL    HW146092  12.866   5.958   1.168 -0.5445  0.1899  1.3736
11926SOL    HW246093  12.891   5.809   1.175  0.9269  0.2671 -0.9874
11927SOL     OW46094  10.568   7.384   2.008  0.5115 -0.4331  0.5840
11927SOL    HW146095  10.579   7.291   1.989 -0.2354 -0.2361 -0.9414
11927SOL    HW246096  10.498   7.387   2.074 -1.5519 -0.8737 -1.4497
11928SOL     OW46097  12.356   0.379   9.823  0.3060  0.1495 -0.0336
11928SOL    HW146098  12.425   0.325   9.862 -0.1255 -0.4265 -0.0593
11928SOL    HW246099  12.286   0.378   9.888 -0.4106 -0.7982 -0.7925
11929SOL     OW46100  10.056   7.470   2.703  0.0284  0.2652  0.1847
11929SOL    HW146101  10.006   7.414   2.762 -0.7292 -1.4669 -1.9542
11929SOL    HW246102  10.019   7.453   2.617  1.9462  1.6801 -0.9978
11930SOL     OW46103   5.607   0.758  11.436 -0.2741  0.4338 -0.2964
11930SOL    HW146104   5.671   0.698  11.473  0.7183  0.9966 -1.0257
11930SOL    HW246105   5.656   0.839  11.422 -1.1913  0.9309 -0.7396
11931SOL     OW46106   8.501   6.315   7.213 -0.7538 -0.0182 -0.7680
11931SOL    HW146107   8.533   6.245   7.156  0.3447  0.5349 -0.8544
11931SOL    HW246108   8.545   6.300   7.297 -0.3969  0.6403 -0.8275
11932SOL     OW46109  10.748   0.616   7.292 -0.4824  0.1517  0.3180
11932SOL    HW146110  10.752   0.520   7.290  0.0888  0.1411  1.2034
11932SOL    HW246111  10.664   0.637   7.251  0.4360 -0.5840 -2.0909
11933SOL     OW46112   5.338   6.711   3.127 -0.1438  0.7828  0.2799
11933SOL    HW146113   5.318   6.619   3.142 -1.7933  1.4230  2.4829
11933SOL    HW246114   5.313   6.727   3.035 -0.5315 -0.7727  0.0941
11934SOL     OW46115   6.523   9.903   2.600  0.7591 -0.6269 -0.1362
11934SOL    HW146116   6.521   9.810   2.578  1.7228 -0.4964 -0.8702
11934SOL    HW246117   6.478   9.946   2.528 -0.6411 -0.5792  0.7203
11935SOL     OW46118   1.262   8.213   1.009  0.6635 -1.1592  0.1680
11935SOL    HW146119   1.328   8.153   0.974  0.4078 -1.4020  0.1039
11935SOL    HW246120   1.313   8.285   1.047  1.0349 -2.0051  1.3475
11936SOL     OW46121  10.418   8.887  11.798 -0.0012  0.0904 -0.7353
11936SOL    HW146122  10.444   8.973  11.830  0.8557 -0.3185 -0.2778
11936SOL    HW246123  10.375   8.904  11.715 -0.0236  0.9767 -0.5529
11937SOL     OW46124   2.875  10.674   3.809 -0.2774 -0.0727 -0.3033
11937SOL    HW146125   2.887  10.581   3.789 -0.1503  0.0379 -0.7674
11937SOL    HW246126   2.782  10.684   3.828 -0.5306 -0.0892 -1.4407
11938SOL     OW46127   3.454   4.021   6.520 -0.8348  0.1780  0.0295
11938SOL    HW146128   3.366   3.986   6.536 -0.0143 -2.1299 -0.1001
11938SOL    HW246129   3.453   4.046   6.428 -1.6448  1.1814  0.2861
11939SOL     OW46130   2.964  10.776   7.248 -0.8082  0.4607 -0.6274
11939SOL    HW146131   3.029  10.760   7.179  0.1577 -0.2006  0.3850
11939SOL    HW246132   2.952  10.690   7.289  0.4987  1.2564  1.5738
11940SOL     OW46133  11.456  12.268   4.729  0.0119 -0.2546 -0.1825
11940SOL    HW146134  11.443  12.295   4.638  0.2814 -2.0964 -0.8137
11940SOL    HW246135  11.528  12.322   4.760 -1.3715  1.8117 -0.3914
11941SOL     OW46136  11.951   5.568  10.069  0.4762  0.2356  0.5434
11941SOL    HW146137  11.975   5.527   9.986  0.3541  1.7337 -0.2542
11941SOL    HW246138  11.907   5.498  10.117  0.1111 -0.5391 -0.8443
11942SOL     OW46139   5.183   1.484   4.628 -0.0669  0.0658  0.4304
11942SOL    HW146140   5.152   1.523   4.546  0.4259  0.9888  0.6582
11942SOL    HW246141   5.271   1.451   4.607 -0.5117 -1.0250  0.2196
11943SOL     OW46142   8.034   3.015   5.452 -0.1570  0.0926  0.0117
11943SOL    HW146143   8.028   2.948   5.385 -0.3054 -1.0762  1.1513
11943SOL    HW246144   7.950   3.061   5.448 -1.0468 -1.3703  0.7747
11944SOL     OW46145   9.160   8.399  10.815 -0.3245 -0.7945 -0.7055
11944SOL    HW146146   9.136   8.421  10.726 -0.3139  0.1245 -0.4885
11944SOL    HW246147   9.077   8.388  10.861 -0.3365 -1.7663 -0.9334
11945SOL     OW46148  10.280   6.225   1.315 -0.1933  0.3877 -0.4035
11945SOL    HW146149  10.209   6.289   1.304 -0.5637  0.6875  2.7400
11945SOL    HW246150  10.235   6.140   1.316 -0.5067  0.5456  1.1337
11946SOL     OW46151   6.787  10.025   2.442  0.2913  0.2749 -0.0697
11946SOL    HW146152   6.772   9.960   2.511  0.2769  0.3383 -0.0114
11946SOL    HW246153   6.729   9.999   2.371  0.6001 -0.0193 -0.2120
11947SOL     OW46154   6.442   7.680   0.556 -0.4538  0.2368  0.3029
11947SOL    HW146155   6.410   7.631   0.631  0.2656 -1.6424 -0.5394
11947SOL    HW246156   6.431   7.620   0.482  1.1233  1.0766 -0.6712
11948SOL     OW46157   5.143   0.259   1.790  0.0071  0.0624 -0.2830
11948SOL    HW146158   5.229   0.299   1.804 -0.1373  0.5363 -0.7353
11948SOL    HW246159   5.124   0.276   1.697 -0.2678 -0.6379 -0.3590
11949SOL     OW46160   7.502   7.972   0.735  0.0456  0.2891  0.6564
11949SOL    HW146161   7.532   8.015   0.655  0.6492  0.0276  0.7437
11949SOL    HW246162   7.495   8.044   0.798  1.9236  0.1586  1.0600
11950SOL     OW46163   2.844   9.277   0.950  0.4450 -0.1015 -0.5959
11950SOL    HW146164   2.775   9.221   0.913  1.3339 -0.6675 -1.4340
11950SOL    HW246165   2.867   9.233   1.032  0.2714 -0.2726 -0.6354
11951SOL     OW46166   0.013   2.511   1.671 -0.2154 -0.2201 -0.0076
11951SOL    HW146167  -0.003   2.526   1.764 -0.4652 -0.2936 -0.0383
11951SOL    HW246168  -0.043   2.574   1.626  0.7318  0.5872 -0.0979
11952SOL     OW46169   2.246   2.566  11.014  0.2442  0.1309 -0.6977
11952SOL    HW146170   2.305   2.575  11.089  0.4843 -2.0811 -0.5299
11952SOL    HW246171   2.166   2.611  11.040  0.1927 -0.8984  1.0754
11953SOL     OW46172   8.118   7.711   0.705 -0.1606 -0.4752 -0.5491
11953SOL    HW146173   8.185   7.778   0.714  0.9708 -1.6339  0.1309
11953SOL    HW246174   8.039   7.750   0.742  1.1248 -0.4112  2.4183
11954SOL     OW46175  12.774   2.659   7.916  0.2532  0.0034 -0.2609
11954SOL    HW146176  12.749   2.639   7.825 -0.4532  1.8752 -0.5085
11954SOL    HW246177  12.869   2.651   7.917  0.3383  0.7331 -1.3771
11955SOL     OW46178   0.571   4.149   2.536  0.2543  0.0339 -0.3520
11955SOL    HW146179   0.505   4.080   2.543 -1.1580  1.2871 -0.9107
11955SOL    HW246180   0.564   4.181   2.446 -0.6836  2.3542  0.4650
11956SOL     OW46181   0.675   7.583   0.800 -0.1280 -0.2801  0.2045
11956SOL    HW146182   0.751   7.541   0.841  0.9382  0.0536 -1.3460
11956SOL    HW246183   0.688   7.570   0.706 -1.3571  0.8716 -0.1598
11957SOL     OW46184   3.617   2.392   6.711 -0.1085  0.1044 -0.2744
11957SOL    HW146185   3.595   2.310   6.755  1.9388 -1.0067 -1.2275
11957SOL    HW246186   3.557   2.396   6.636  0.4683 -1.0714 -0.8166
11958SOL     OW46187  12.421  10.881   3.708  0.2686  0.2485 -0.4192
11958SOL    HW146188  12.486  10.851   3.645 -0.5007  2.4436 -2.4086
11958SOL    HW246189  12.472  10.911   3.783  1.3179 -1.0014 -0.6040
11959SOL     OW46190  12.451  10.086  12.966  0.8121  0.0681  0.7304
11959SOL    HW146191  12.373  10.104  13.017  0.0860 -0.6636 -0.0864
11959SOL    HW246192  12.485  10.003  13.000  0.8419  0.0394  0.6340
11960SOL     OW46193   8.684   3.770   1.932  0.3283  0.6357  0.0246
11960SOL    HW146194   8.703   3.789   2.024 -0.5735  2.2755 -0.0826
11960SOL    HW246195   8.590   3.753   1.930  0.2948  0.8630 -0.6234
11961SOL     OW46196  11.354   6.875   9.178 -0.2331  0.0195 -0.2473
11961SOL    HW146197  11.364   6.830   9.094  2.1926 -0.5205  0.2593
11961SOL    HW246198  11.397   6.960   9.165  1.1839 -0.5050  0.7113
11962SOL     OW46199   5.785   7.199   2.012  0.1862 -0.3262  0.1684
11962SOL    HW146200   5.735   7.186   1.932 -1.8994  0.5894  1.2392
11962SOL    HW246201   5.810   7.110   2.038 -0.3641 -0.7672 -0.7398
11963SOL     OW46202   7.115   9.607   0.020  0.3881  0.0516  0.0584
11963SOL    HW146203   7.207   9.584   0.005 -0.0261 -0.6836 -1.5758
11963SOL    HW246204   7.115   9.703   0.023  1.2236  0.0567  0.2686
11964SOL     OW46205   0.282   2.028   9.947  0.2477 -0.2608  0.6103
11964SOL    HW146206   0.316   1.973  10.018 -1.0478 -0.3442  1.2026
11964SOL    HW246207   0.334   2.003   9.870  0.6497 -1.2722  1.1917
11965SOL     OW46208   8.649  11.919   8.844 -0.0952  0.0794 -0.0800
11965SOL    HW146209   8.718  11.973   8.805 -0.0066  0.3556  0.4500
11965SOL    HW246210   8.682  11.899   8.932 -0.5847  0.0110  0.0877
11966SOL     OW46211  11.172   9.727   0.208  0.3040  0.1297  0.0569
11966SOL    HW146212  11.126   9.689   0.283 -1.3836 -0.0663 -1.0235
11966SOL    HW246213  11.263   9.700   0.219 -0.2429 -1.4049  1.0996
11967SOL     OW46214  12.599   2.626  11.226 -0.3760 -0.6029 -0.1905
11967SOL    HW146215  12.591   2.555  11.289 -0.8933 -0.0241  0.4088
11967SOL    HW246216  12.681   2.608  11.180 -0.3753 -1.4435  0.1239
11968SOL     OW46217   0.439   8.918  10.757  0.2699  0.0210 -0.0812
11968SOL    HW146218   0.442   8.893  10.665 -0.2406 -2.5337  0.5176
11968SOL    HW246219   0.506   8.863  10.799 -0.4221  0.1650  1.2640
11969SOL     OW46220   6.186   2.444   5.783 -0.8064  0.2810  0.4111
11969SOL    HW146221   6.203   2.376   5.717  0.3814  1.8170 -0.9532
11969SOL    HW246222   6.240   2.418   5.857 -0.9880 -0.6857  0.2232
11970SOL     OW46223   8.447   6.754   3.813 -0.0795 -0.3910  0.3594
11970SOL    HW146224   8.529   6.779   3.856  0.4722  0.7440 -1.2572
11970SOL    HW246225   8.378   6.780   3.875  0.6072  2.6791  0.0016
11971SOL     OW46226   9.552   4.543   9.833  0.2503  0.2421 -0.3392
11971SOL    HW146227   9.530   4.625   9.788  0.5380  1.2376  1.2411
11971SOL    HW246228   9.601   4.571   9.911 -0.2591 -1.3917  0.6140
11972SOL     OW46229   3.151   5.181   3.680  0.1451  0.2181  0.0199
11972SOL    HW146230   3.083   5.246   3.694 -0.1921  0.1629 -1.2736
11972SOL    HW246231   3.191   5.205   3.597  3.1466  1.4837  1.6819
11973SOL     OW46232   1.307   5.393   7.780  0.1311 -0.5254  0.3804
11973SOL    HW146233   1.270   5.479   7.797 -0.5103 -0.5517 -0.7701
11973SOL    HW246234   1.245   5.352   7.719  0.9495 -1.4051  0.1139
11974SOL     OW46235  12.388   5.084   7.815  0.3573  0.0903  0.1744
11974SOL    HW146236  12.346   5.063   7.732  0.1030 -0.1342  0.3614
11974SOL    HW246237  12.482   5.073   7.797  0.4904  2.1672 -0.7130
11975SOL     OW46238   8.763   2.627   9.940 -0.1597  0.1929  0.6530
11975SOL    HW146239   8.840   2.666   9.898  0.0116  0.2167  0.9852
11975SOL    HW246240   8.718   2.581   9.869  1.7974 -2.4545  0.9994
11976SOL     OW46241   0.675   9.203   4.119 -0.6292  0.2619 -0.8815
11976SOL    HW146242   0.691   9.230   4.028  0.2867 -0.9284 -1.0994
11976SOL    HW246243   0.744   9.244   4.169 -0.3304 -0.1650 -0.9367
11977SOL     OW46244   1.347   4.966   8.928 -0.1324 -0.1103 -0.2141
11977SOL    HW146245   1.265   5.007   8.902 -1.2580 -1.1764  1.4821
11977SOL    HW246246   1.324   4.874   8.942  1.1016 -0.2136  1.3433
11978SOL     OW46247   4.543  11.483   8.454  0.3325 -0.0410  0.5719
11978SOL    HW146248   4.562  11.438   8.537 -0.6548 -2.1672 -0.2672
11978SOL    HW246249   4.549  11.414   8.388 -1.7174  0.9547 -0.7643
11979SOL     OW46250   5.488  11.502   4.239  0.0888 -0.4613  0.6909
11979SOL    HW146251   5.550  11.536   4.303  0.3402  1.4358 -0.4874
11979SOL    HW246252   5.415  11.564   4.241  0.2231 -0.1865 -1.0094
11980SOL     OW46253   8.113   1.846  10.348  0.6577 -0.0542 -0.2648
11980SOL    HW146254   8.119   1.901  10.271 -0.9841  2.4082  1.2532
11980SOL    HW246255   8.173   1.887  10.411 -2.6154  1.8730  1.8445
11981SOL     OW46256   4.350  11.360   5.064  0.3466 -0.4030 -0.6414
11981SOL    HW146257   4.372  11.446   5.101  2.1643 -1.0215 -0.1580
11981SOL    HW246258   4.254  11.358   5.065  0.2538  1.5707 -0.5877
11982SOL     OW46259   7.123   4.118   7.438  0.1339  0.3773  0.1201
11982SOL    HW146260   7.203   4.170   7.446  0.0612  0.3062  1.5807
11982SOL    HW246261   7.053   4.176   7.466 -0.0266 -0.2640  1.1111
11983SOL     OW46262   6.273   9.395   1.730  0.1671  0.2692  0.5801
11983SOL    HW146263   6.259   9.490   1.729  1.6146  0.5703 -2.3898
11983SOL    HW246264   6.360   9.385   1.770 -0.1173  0.1389  1.1789
11984SOL     OW46265   0.158   8.138   2.591  0.8738  0.4923  0.3990
11984SOL    HW146266   0.167   8.075   2.662 -0.2943 -0.0263  0.1202
11984SOL    HW246267   0.092   8.200   2.621 -0.2249 -0.1874 -0.5021
11985SOL     OW46268   9.205  12.810   0.811 -0.4182 -0.7467 -0.0114
11985SOL    HW146269   9.269  12.868   0.853  0.1871 -2.1263  1.0798
11985SOL    HW246270   9.200  12.840   0.721  2.6462 -1.2331 -0.4640
11986SOL     OW46271   5.773   8.960   9.130 -0.1075  0.2700  0.8218
11986SOL    HW146272   5.820   9.025   9.183  0.0153  1.0283 -0.1730
11986SOL    HW246273   5.842   8.913   9.084 -0.1729 -0.9050  1.8910
11987SOL     OW46274   3.674   5.566   8.048 -0.2802  0.1922  0.2585
11987SOL    HW146275   3.755   5.532   8.010  1.5222  2.5031  1.7586
11987SOL    HW246276   3.609   5.553   7.979  2.1224  1.2956 -2.4634
11988SOL     OW46277  11.333   8.956  10.893 -0.0431  0.0778  0.7227
11988SOL    HW146278  11.426   8.938  10.908  0.0063  0.4013  0.8017
11988SOL    HW246279  11.303   8.881  10.842 -0.0630 -0.7204  1.8609
11989SOL     OW46280   3.996   7.674   6.240  0.3343 -0.2020  0.5972
11989SOL    HW146281   3.916   7.712   6.275 -0.9559 -2.2125 -0.0294
11989SOL    HW246282   3.993   7.695   6.146 -0.6554 -2.1571  0.1423
11990SOL     OW46283   4.329  10.439   2.871  0.1353  0.3482 -0.6827
11990SOL    HW146284   4.240  10.450   2.837 -1.0564 -3.3642  0.7001
11990SOL    HW246285   4.362  10.362   2.824  1.9228  0.5774  0.1416
11991SOL     OW46286   7.282   7.966   8.344  0.3783  0.5814  0.7457
11991SOL    HW146287   7.230   8.033   8.299  0.6637  0.5118  0.3073
11991SOL    HW246288   7.218   7.917   8.396  0.0894  0.8551  0.6535
11992SOL     OW46289   6.254  12.879   8.487  0.5508 -0.3113  0.0627
11992SOL    HW146290   6.164  12.885   8.454  0.9808 -0.1157 -1.1148
11992SOL    HW246291   6.259  12.946   8.554  0.6244  1.7298 -1.8705
11993SOL     OW46292   8.122   3.966   1.985 -0.1521  0.0017  0.0850
11993SOL    HW146293   8.141   3.884   2.031  0.8343 -0.0529 -0.3901
11993SOL    HW246294   8.185   4.029   2.022 -1.7644  0.9168  1.3993
11994SOL     OW46295  11.828   6.108   7.883 -0.6560  0.3690 -0.2309
11994SOL    HW146296  11.918   6.083   7.901 -1.3647 -1.9832  0.3887
11994SOL    HW246297  11.799   6.153   7.963 -0.4983 -0.3045  0.2147
11995SOL     OW46298  12.909   4.035   6.527 -0.0464  0.0463  0.1540
11995SOL    HW146299  12.982   4.000   6.577  0.5139  1.2522  0.2143
11995SOL    HW246300  12.950   4.087   6.457 -0.7612  2.7599  1.5994
11996SOL     OW46301  12.280   2.954   7.803 -0.6909  0.8353 -0.4418
11996SOL    HW146302  12.355   3.008   7.777  0.0308  0.9601  1.6533
11996SOL    HW246303  12.308   2.864   7.789  0.4883  0.8091  1.6517
11997SOL     OW46304  12.386   5.864   8.366  0.2458  0.2711 -0.1206
11997SOL    HW146305  12.398   5.878   8.460 -2.8719 -1.8128  0.7344
11997SOL    HW246306  12.469   5.825   8.337  0.7591 -0.3870  2.0817
11998SOL     OW46307  12.323  10.606   5.522 -0.8149 -0.1070  0.1479
11998SOL    HW146308  12.298  10.547   5.451 -1.1682  1.3207 -0.9701
11998SOL    HW246309  12.319  10.552   5.601 -1.6160 -1.4349 -0.7569
11999SOL     OW46310   7.987  10.420  12.171  0.3896  0.3161 -0.0979
11999SOL    HW146311   7.894  10.416  12.148  0.8274 -1.0174 -1.8903
11999SOL    HW246312   7.996  10.360  12.245  0.0856 -1.0956 -1.1417
12000SOL     OW46313  10.767   6.957   4.413 -0.2934 -0.2495 -0.6269
12000SOL    HW146314  10.720   6.891   4.464 -0.1681  0.3513  0.2888
12000SOL    HW246315  10.734   7.041   4.446 -0.0142  0.1606 -1.3611
12001SOL     OW46316   9.113  12.444   5.582 -0.4682 -0.8250 -0.8049
12001SOL    HW146317   9.075  12.399   5.658 -1.2562 -1.0796 -1.3346
12001SOL    HW246318   9.062  12.413   5.507  1.0136 -1.4329 -1.6077
12002SOL     OW46319  12.573   2.475   4.535 -0.5973  0.0808  0.1279
12002SOL    HW146320  12.647   2.485   4.476  0.3820 -0.0538  1.2910
12002SOL    HW246321  12.561   2.561   4.574 -0.9311  0.0532  0.0900
12003SOL     OW46322   0.916   7.366  10.835 -0.4037 -0.1402  0.3103
12003SOL    HW146323   1.004   7.359  10.798 -0.6336  0.3642 -0.3474
12003SOL    HW246324   0.908   7.290  10.893  0.7621  0.2532  1.0243
12004SOL     OW46325   5.590   5.667   4.748 -0.7304  0.1578 -0.2229
12004SOL    HW146326   5.502   5.663   4.785 -0.9615  0.1123 -0.7796
12004SOL    HW246327   5.580   5.713   4.665 -0.2797 -0.1066 -0.4309
12005SOL     OW46328  11.152   6.708  10.222  0.2271 -0.2151  0.8198
12005SOL    HW146329  11.122   6.787  10.177  1.1810  1.2154  2.5479
12005SOL    HW246330  11.144   6.730  10.315 -1.0849 -2.7986  1.4082
12006SOL     OW46331   9.682  12.168  12.377  0.1906  0.0332 -0.1127
12006SOL    HW146332   9.777  12.161  12.371  0.2626 -0.1182  0.9395
12006SOL    HW246333   9.652  12.166  12.286  1.2188  0.6339 -0.4884
12007SOL     OW46334   0.903   0.153   6.457 -0.1259 -0.2436 -0.4731
12007SOL    HW146335   0.869   0.063   6.462 -2.0585  0.4071 -1.2113
12007SOL    HW246336   0.908   0.182   6.548  0.3403 -1.0174 -0.2378
12008SOL     OW46337  12.685   1.557   0.232 -0.1467 -0.3314 -0.1909
12008SOL    HW146338  12.775   1.529   0.247  0.5535  1.2434 -1.1610
12008SOL    HW246339  12.680   1.571   0.137 -1.6311 -1.0357 -0.2443
12009SOL     OW46340   5.375   7.297  11.745 -0.7395 -0.9490 -0.1564
12009SOL    HW146341   5.404   7.216  11.704  0.7051 -1.4235  1.6599
12009SOL    HW246342   5.364   7.275  11.838 -0.1079  0.9677  0.4208
12010SOL     OW46343  12.033   7.296   6.411 -0.1782 -0.1364 -0.3921
12010SOL    HW146344  12.028   7.297   6.507 -0.7802 -0.7412 -0.4091
12010SOL    HW246345  11.945   7.320   6.383  0.2520  1.0436 -0.8169
12011SOL     OW46346   9.814   1.200   2.719  0.2577  0.0433 -0.4517
12011SOL    HW146347   9.839   1.244   2.800  0.4083  1.6053 -1.3090
12011SOL    HW246348   9.892   1.206   2.664 -0.3087  0.3174 -1.2393
12012SOL     OW46349   4.629   2.456   1.152 -0.1324  0.2656 -0.3893
12012SOL    HW146350   4.589   2.535   1.187  1.5375  0.1358  2.1485
12012SOL    HW246351   4.718   2.456   1.189 -0.4206 -3.3251  0.7409
12013SOL     OW46352   7.539   0.663  10.851 -0.1005  0.1258  0.7650
12013SOL    HW146353   7.529   0.598  10.781  0.6263 -1.3207  1.9460
12013SOL    HW246354   7.524   0.747  10.808  0.3177 -0.7167 -1.1299
12014SOL     OW46355   1.018   8.039  11.320  0.3325  0.2099 -0.0630
12014SOL    HW146356   1.046   8.104  11.255 -1.4014  0.2214 -0.8466
12014SOL    HW246357   1.098   7.990  11.340  1.2186  1.1652 -1.0910
12015SOL     OW46358   5.136  12.372  12.067 -0.2714 -0.4928 -0.2103
12015SOL    HW146359   5.219  12.390  12.023  0.5575 -1.4671  0.8975
12015SOL    HW246360   5.102  12.458  12.089  0.8725 -0.0961  0.0807
12016SOL     OW46361   4.564   0.260   5.157 -0.6849 -0.4822 -0.0512
12016SOL    HW146362   4.487   0.211   5.129 -2.1882  1.7952 -0.1780
12016SOL    HW246363   4.577   0.236   5.248 -1.4593 -0.9648 -0.0650
12017SOL     OW46364   9.387   9.644   4.951 -0.3224 -0.0162 -0.1145
12017SOL    HW146365   9.421   9.592   5.023  1.0565 -0.7205 -1.2038
12017SOL    HW246366   9.309   9.597   4.921 -0.3335 -0.2569  0.2869
12018SOL     OW46367   0.960  12.913   2.614  0.1006  0.1662  0.0231
12018SOL    HW146368   0.996  12.952   2.535  1.5686  1.4210  1.2422
12018SOL    HW246369   0.927  12.988   2.664  1.6419 -0.2650  1.7714
12019SOL     OW46370   6.674  12.494   5.922 -0.4222 -0.0019  0.2442
12019SOL    HW146371   6.643  12.409   5.953  0.1643  0.5991  2.7498
12019SOL    HW246372   6.614  12.517   5.852 -0.6579 -2.4091 -0.4372
12020SOL     OW46373  11.319   2.734  11.810 -0.4737  0.1075  0.5634
12020SOL    HW146374  11.357   2.722  11.723 -0.7097  0.0271  0.4687
12020SOL    HW246375  11.377   2.687  11.869  0.6038  1.5022  0.6731
12021SOL     OW46376  11.158   1.683   2.887 -0.6421  0.1575 -0.2126
12021SOL    HW146377  11.233   1.700   2.830  1.2204 -1.5128  1.5497
12021SOL    HW246378  11.160   1.755   2.950 -0.8022  0.3561 -0.4335
12022SOL     OW46379   2.276  12.512  11.489 -0.2603 -0.1623 -0.0944
12022SOL    HW146380   2.346  12.531  11.552  1.6384 -0.2666 -2.0243
12022SOL    HW246381   2.262  12.594  11.443 -0.6907 -0.4079 -0.4106
12023SOL     OW46382   1.698   5.382   4.440 -0.0799 -0.8954  0.2273
12023SOL    HW146383   1.607   5.374   4.470  0.0224 -1.8183  0.3218
12023SOL    HW246384   1.708   5.314   4.373  1.0407 -2.0586  1.5003
12024SOL     OW46385   0.187   5.490   4.432 -0.0070 -0.1143  0.3215
12024SOL    HW146386   0.130   5.413   4.426  0.9364 -0.9231  1.4719
12024SOL    HW246387   0.155   5.537   4.509  0.7752 -0.5087  0.8993
12025SOL     OW46388   6.323   1.961   9.934 -0.1533 -0.0603 -0.4172
12025SOL    HW146389   6.374   1.889   9.972  0.6922  0.1343 -1.1692
12025SOL    HW246390   6.383   2.035   9.934  0.0654 -0.1853 -2.6372
12026SOL     OW46391   1.662   3.618   0.585 -0.0200 -0.2065  0.3588
12026SOL    HW146392   1.585   3.561   0.583  0.4959 -0.8971 -0.3122
12026SOL    HW246393   1.693   3.613   0.675  0.1968 -1.2369  0.2374
12027SOL     OW46394   1.317   1.831   4.001 -0.4802 -0.0495  0.0143
12027SOL    HW146395   1.260   1.758   3.974 -0.1551 -0.1208 -0.4905
12027SOL    HW246396   1.256   1.901   4.025 -0.7995  0.1202 -1.1843
12028SOL     OW46397   6.820   1.736   4.908 -0.5963  0.1221 -0.6201
12028SOL    HW146398   6.885   1.676   4.944 -2.1900 -0.2028  1.9886
12028SOL    HW246399   6.788   1.692   4.830  0.5545 -0.8776 -0.5596
12029SOL     OW46400   7.848   9.807   8.524  0.3715 -0.4184  0.1708
12029SOL    HW146401   7.880   9.821   8.435 -0.0658 -0.7186 -0.0351
12029SOL    HW246402   7.837   9.895   8.559 -1.3695 -0.2333 -0.7586
12030SOL     OW46403  10.352   7.755   3.198  0.3320 -0.2401  0.1077
12030SOL    HW146404  10.334   7.711   3.115  1.1635 -2.1642  0.9112
12030SOL    HW246405  10.429   7.809   3.180  0.7376 -0.9397 -0.2631
12031SOL     OW46406   8.544   2.674   7.491  0.4720 -0.1513  0.3625
12031SOL    HW146407   8.608   2.698   7.558  0.6716  1.9461 -0.5068
12031SOL    HW246408   8.472   2.635   7.539  1.2598 -0.0972  1.6334
12032SOL     OW46409   7.678  12.389   0.370 -0.1566  0.2813  0.1811
12032SOL    HW146410   7.653  12.330   0.441 -0.7611  0.8044  0.4130
12032SOL    HW246411   7.735  12.336   0.314 -1.3757 -0.8089 -0.0893
12033SOL     OW46412   2.739   1.058   9.312  0.1332  0.0303 -0.1551
12033SOL    HW146413   2.697   1.097   9.389  0.6593  0.3547 -0.0263
12033SOL    HW246414   2.668   1.047   9.249 -0.0878  0.8865 -0.0648
12034SOL     OW46415   1.233   6.393  10.788  0.6591  0.2951 -0.8451
12034SOL    HW146416   1.226   6.327  10.719 -0.4388  0.7572 -1.2146
12034SOL    HW246417   1.192   6.352  10.865  1.8952 -0.2252 -0.4535
12035SOL     OW46418   0.950   2.254  11.740  0.4422  0.0237  0.3152
12035SOL    HW146419   0.900   2.233  11.819  0.4532 -1.4658 -0.0386
12035SOL    HW246420   0.902   2.212  11.669  0.3100  1.5303 -0.5397
12036SOL     OW46421   1.752   4.665   0.017  0.1379  0.4774 -0.0184
12036SOL    HW146422   1.715   4.675  -0.071 -0.0034 -0.4473 -0.0686
12036SOL    HW246423   1.745   4.572   0.036  0.4202  0.6272  0.8691
12037SOL     OW46424   4.150   5.506  12.092  0.0848 -0.2532 -0.5240
12037SOL    HW146425   4.231   5.465  12.124 -0.6108  0.2674  2.1677
12037SOL    HW246426   4.093   5.432  12.070 -0.1616 -0.7998  1.6640
12038SOL     OW46427   0.661   5.881   7.256  0.0299 -0.2016  0.5281
12038SOL    HW146428   0.566   5.871   7.265 -0.1818 -0.1582 -1.3262
12038SOL    HW246429   0.690   5.910   7.343 -1.8510  1.3655  0.7008
12039SOL     OW46430  12.739   2.060   0.132 -0.0724  0.5975 -0.1895
12039SOL    HW146431  12.807   2.124   0.110  0.5083 -0.5213 -1.8474
12039SOL    HW246432  12.736   2.060   0.227  2.0697  0.8899 -0.0714
12040SOL     OW46433   7.115   8.393   9.978 -0.6860  0.3212 -0.6903
12040SOL    HW146434   7.132   8.443  10.057  0.8447 -0.3045 -0.5740
12040SOL    HW246435   7.201   8.359   9.952 -1.5321 -1.6115 -1.1787
12041SOL     OW46436   1.436   4.020   2.438 -0.3689  0.2463 -0.6004
12041SOL    HW146437   1.527   4.022   2.466 -0.6529  1.0968  0.3272
12041SOL    HW246438   1.431   4.085   2.368 -0.6217  1.5921  0.6120
12042SOL     OW46439   0.399   8.255   1.301 -0.3738  0.4721 -0.3435
12042SOL    HW146440   0.353   8.234   1.383  3.0720  1.7685  2.1590
12042SOL    HW246441   0.408   8.172   1.256 -3.0640 -0.1589  0.1355
12043SOL     OW46442  10.242   6.601   9.124  0.5518 -0.1640 -0.0896
12043SOL    HW146443  10.263   6.685   9.164  1.0924  0.2697 -1.2443
12043SOL    HW246444  10.287   6.602   9.040  1.5316 -2.0779  0.3384
12044SOL     OW46445   7.425   4.876   5.597 -0.6467 -0.3029 -0.1542
12044SOL    HW146446   7.437   4.949   5.536  0.4694  0.6158  1.1025
12044SOL    HW246447   7.446   4.913   5.683  1.0396 -2.3644  0.4065
12045SOL     OW46448  11.873   5.899  11.849  0.1052  0.0454  0.3860
12045SOL    HW146449  11.820   5.973  11.819  0.0702 -0.4695 -0.8800
12045SOL    HW246450  11.940   5.939  11.904  0.6944  1.1723 -1.0643
12046SOL     OW46451   6.473   0.497   6.737  0.2948  0.0902  0.0032
12046SOL    HW146452   6.442   0.474   6.650 -0.4591 -0.3317  0.3797
12046SOL    HW246453   6.471   0.415   6.787 -0.1048  0.4851  0.6572
12047SOL     OW46454   4.666  12.047   8.494 -0.2183  0.4857 -1.1687
12047SOL    HW146455   4.628  11.992   8.425  0.0124  0.3639 -1.2005
12047SOL    HW246456   4.761  12.036   8.484 -0.1138 -2.2596  1.2862
12048SOL     OW46457   3.257  10.196   4.939  0.0296  0.5182 -0.0108
12048SOL    HW146458   3.206  10.248   5.002 -0.1382  0.5525 -0.1756
12048SOL    HW246459   3.311  10.261   4.894 -0.4272  0.5972 -0.4548
12049SOL     OW46460  11.995   1.409   5.822 -0.2301  0.3802 -0.1485
12049SOL    HW146461  12.080   1.444   5.851 -0.0177 -0.3244  0.1098
12049SOL    HW246462  11.990   1.322   5.863 -1.5630  0.8270  0.7219
12050SOL     OW46463   0.680   0.160   2.241 -0.3576 -0.3679 -0.0044
12050SOL    HW146464   0.669   0.165   2.336 -2.5155 -0.5581 -0.1875
12050SOL    HW246465   0.591   0.148   2.207  0.3381 -0.1499 -2.0670
12051SOL     OW46466  11.674   6.079   7.645  0.2845 -0.0774  0.6435
12051SOL    HW146467  11.714   6.098   7.730 -1.9561  1.6815  1.3998
12051SOL    HW246468  11.609   6.011   7.663  1.1560 -1.1523 -0.1024
12052SOL     OW46469  12.600   4.756   7.157  0.1470 -0.6337 -0.4921
12052SOL    HW146470  12.655   4.678   7.148  0.0495 -0.6807 -0.6761
12052SOL    HW246471  12.547   4.757   7.078 -0.2820 -0.7162 -0.2053
12053SOL     OW46472   0.369   7.993   1.138  0.4394 -0.3127  0.2050
12053SOL    HW146473   0.375   8.033   1.051 -1.6155  1.0763  0.6371
12053SOL    HW246474   0.317   7.913   1.124 -1.4475  0.8342  0.3752
12054SOL     OW46475   5.262   1.176   0.195 -0.3545  0.1494 -0.2600
12054SOL    HW146476   5.324   1.161   0.123 -0.6010  1.0656 -0.6851
12054SOL    HW246477   5.299   1.129   0.269  1.3803  1.4564 -0.2386
12055SOL     OW46478   8.357  10.687   2.743 -0.0392  0.1319 -0.6538
12055SOL    HW146479   8.285  10.747   2.761  0.1205  0.3325 -0.6717
12055SOL    HW246480   8.316  10.611   2.701 -0.6471 -1.0489  1.8975
12056SOL     OW46481   6.900   2.187   5.740 -0.1160 -0.0250  0.3110
12056SOL    HW146482   6.946   2.171   5.658  0.1766  1.0119  0.2569
12056SOL    HW246483   6.970   2.196   5.805 -0.1800  1.7057  0.2024
12057SOL     OW46484   9.223  12.858   8.465  0.2423 -0.9101 -0.0211
12057SOL    HW146485   9.242  12.915   8.539  1.4982  0.8469 -1.6077
12057SOL    HW246486   9.308  12.824   8.438  0.1397  0.3163 -2.0381
12058SOL     OW46487   1.545   2.236   0.672 -0.6303 -0.2486  0.2701
12058SOL    HW146488   1.476   2.216   0.609 -1.2570 -0.0632  0.8844
12058SOL    HW246489   1.595   2.307   0.631 -0.9791 -0.1827 -0.0466
12059SOL     OW46490   2.053   2.184   7.782  0.0681  0.1529 -0.8817
12059SOL    HW146491   1.974   2.133   7.765 -1.0941  1.5997 -0.0443
12059SOL    HW246492   2.089   2.202   7.695 -0.5919 -0.3902 -1.2820
12060SOL     OW46493  11.288   7.819   4.565 -0.4702 -0.0515  0.3706
12060SOL    HW146494  11.250   7.766   4.496  0.7105 -0.0817 -0.2843
12060SOL    HW246495  11.382   7.800   4.562 -0.1304  1.4068  0.6912
12061SOL     OW46496   2.156  10.799  11.554 -0.0436  0.2638  0.0750
12061SOL    HW146497   2.087  10.823  11.493 -1.1688  1.1159  1.6165
12061SOL    HW246498   2.117  10.811  11.641  1.8800  0.2819  0.9906
12062SOL     OW46499   7.584   2.058   3.344 -0.7489  0.5412 -0.2189
12062SOL    HW146500   7.568   2.009   3.263 -1.3706  0.4138 -0.0195
12062SOL    HW246501   7.522   2.022   3.407  0.8816 -0.5808  0.8289
12063SOL     OW46502  10.257  12.364   0.677 -0.2194  0.2326 -0.2620
12063SOL    HW146503  10.206  12.410   0.610 -2.3715 -1.4104  0.1285
12063SOL    HW246504  10.208  12.283   0.693  2.8213 -1.7506 -0.1883
12064SOL     OW46505  11.735   4.792  11.397 -0.6264 -0.4394 -0.3715
12064SOL    HW146506  11.777   4.830  11.474 -1.4504 -1.2174  0.4961
12064SOL    HW246507  11.641   4.805  11.412 -0.7775  0.0236 -1.5981
12065SOL     OW46508   9.025   7.438   1.697 -0.0113 -0.1160 -0.4795
12065SOL    HW146509   8.961   7.394   1.754 -0.2027  1.1057  0.2713
12065SOL    HW246510   8.990   7.426   1.608 -1.2995  0.5442 -0.0765
12066SOL     OW46511   9.842   6.142   4.935 -0.0274 -0.2880 -0.1691
12066SOL    HW146512   9.786   6.124   4.859  0.4933 -2.0434 -0.1950
12066SOL    HW246513   9.930   6.117   4.906  0.4997  0.8160  0.4219
12067SOL     OW46514  11.879   0.287  11.645  0.0689  0.4053 -0.7615
12067SOL    HW146515  11.959   0.243  11.616  0.4219  0.8812 -0.5281
12067SOL    HW246516  11.826   0.294  11.566  0.9014  1.4224 -1.2566
12068SOL     OW46517   5.297   6.313   5.308 -0.0229 -0.1720 -0.1688
12068SOL    HW146518   5.285   6.267   5.391  0.6620  1.1307  0.6912
12068SOL    HW246519   5.209   6.340   5.282 -0.2096 -0.3696  0.2470
12069SOL     OW46520  11.780   9.943   8.727 -0.4778 -0.6828 -0.1123
12069SOL    HW146521  11.853   9.907   8.776  0.4884  2.0151  0.6068
12069SOL    HW246522  11.790   9.907   8.638  1.5175 -0.6609  0.0568
12070SOL     OW46523   8.356   0.102  11.622 -0.5176 -0.7908 -0.5460
12070SOL    HW146524   8.338   0.009  11.607 -0.6135 -0.8980  0.1982
12070SOL    HW246525   8.432   0.121  11.567 -0.3529 -1.3708 -0.5221
12071SOL     OW46526   6.011   0.092   7.360 -0.0602 -0.0870 -0.1070
12071SOL    HW146527   6.043   0.057   7.443 -0.9456 -0.7107 -0.0163
12071SOL    HW246528   6.023   0.186   7.367  0.4087 -0.1900  0.4972
12072SOL     OW46529   2.456  12.917   5.196 -0.4876  0.7024 -0.1083
12072SOL    HW146530   2.437  12.980   5.127  0.0175  1.9090  0.8187
12072SOL    HW246531   2.472  12.971   5.274 -0.8554 -0.6081  0.9052
12073SOL     OW46532   0.312   1.812   3.803 -0.0069  0.5417 -0.2952
12073SOL    HW146533   0.287   1.765   3.724 -0.0980  0.7627 -0.4013
12073SOL    HW246534   0.407   1.808   3.806 -0.0575 -0.4648  0.2066
12074SOL     OW46535  10.772   2.311   8.510 -0.0730  0.0719 -0.0206
12074SOL    HW146536  10.827   2.269   8.577  2.1809  0.9988 -1.1523
12074SOL    HW246537  10.801   2.403   8.511 -1.5563  0.5747 -0.7824
12075SOL     OW46538   4.091   6.026   1.836  0.2992  0.6514  0.3478
12075SOL    HW146539   4.173   5.982   1.857  0.7288  0.7543 -1.0462
12075SOL    HW246540   4.035   6.010   1.913  1.4271  0.1484  1.0917
12076SOL     OW46541   2.843  11.439   4.938  0.4811  0.2757 -0.3179
12076SOL    HW146542   2.835  11.494   4.860  0.7311  0.4799 -0.2012
12076SOL    HW246543   2.930  11.402   4.931  0.0396 -0.7052 -0.7829
12077SOL     OW46544   8.847   1.694   4.704  0.0026  0.2984  0.8722
12077SOL    HW146545   8.910   1.634   4.664 -0.2167  1.2881 -1.0620
12077SOL    HW246546   8.894   1.731   4.779  1.0844 -0.2859  0.5024
12078SOL     OW46547   6.330   0.057  11.688  0.1996  0.7833 -0.2720
12078SOL    HW146548   6.340   0.046  11.593 -0.3960  1.3759 -0.4133
12078SOL    HW246549   6.257  -0.002  11.711  0.1788  0.8265 -0.2263
12079SOL     OW46550   6.438   2.700   6.904 -0.1653 -0.7899  0.0166
12079SOL    HW146551   6.355   2.681   6.947  0.6276 -0.4971  1.7755
12079SOL    HW246552   6.473   2.614   6.881 -0.5530 -0.9633  0.0641
12080SOL     OW46553   8.732   9.038   3.757 -0.5552 -0.5797 -0.0009
12080SOL    HW146554   8.778   9.076   3.832 -0.7101  0.6949 -0.5146
12080SOL    HW246555   8.791   8.970   3.724  0.1038 -0.2612  0.4968
12081SOL     OW46556   5.022  12.710   0.479  0.0041  0.1151  0.1528
12081SOL    HW146557   5.058  12.780   0.424 -1.1364  0.9857  0.4533
12081SOL    HW246558   5.070  12.716   0.561  0.3042  0.1683 -0.0255
12082SOL     OW46559   0.263  12.303   5.558  0.3553 -0.1539  0.4800
12082SOL    HW146560   0.171  12.299   5.584 -0.0963 -0.4677 -1.0782
12082SOL    HW246561   0.292  12.212   5.557 -0.2881 -0.3939 -2.2059
12083SOL     OW46562   9.058   8.310   3.526 -0.3205 -0.0560 -0.1044
12083SOL    HW146563   8.962   8.312   3.531 -0.3672 -1.0329 -0.3626
12083SOL    HW246564   9.087   8.375   3.590 -1.1728  1.5218 -1.2617
12084SOL     OW46565   5.642   0.946   1.537 -0.2745 -0.0459 -0.3558
12084SOL    HW146566   5.669   0.861   1.572 -0.6855  0.3636  1.0174
12084SOL    HW246567   5.715   1.004   1.558 -0.5957  0.2430 -0.0447
12085SOL     OW46568   8.362   8.429  11.490 -0.0033  0.3556  0.5760
12085SOL    HW146569   8.443   8.471  11.462 -0.6742  0.3744 -1.5048
12085SOL    HW246570   8.294   8.469  11.435 -1.2071 -0.6901  1.2452
12086SOL     OW46571   6.948   1.084   3.691  0.8994  0.1955  0.1576
12086SOL    HW146572   6.902   1.104   3.610  0.9752  0.2743  0.1339
12086SOL    HW246573   6.953   1.168   3.737 -1.3164 -0.2427  1.3670
12087SOL     OW46574   7.053  12.085   4.588 -0.6485 -0.0575  0.3204
12087SOL    HW146575   7.019  12.157   4.641  0.5125 -0.3750  1.5429
12087SOL    HW246576   7.007  12.094   4.504 -0.2566  2.3290  0.2909
12088SOL     OW46577   7.997   1.967   3.927 -0.1281  0.2415 -0.0477
12088SOL    HW146578   7.971   2.056   3.951  0.5924  0.3643  0.3259
12088SOL    HW246579   8.054   1.939   3.999  2.3293  0.7152 -1.6758
12089SOL     OW46580   8.502   8.611  10.953  0.1059  0.1663 -0.1354
12089SOL    HW146581   8.546   8.675  10.897  0.3678 -0.4612 -0.6693
12089SOL    HW246582   8.457   8.663  11.019 -0.7808  0.9694 -1.3373
12090SOL     OW46583  10.257   5.215   0.620 -0.0193  0.1309 -0.6938
12090SOL    HW146584  10.178   5.173   0.654  0.9271 -0.5832  0.7408
12090SOL    HW246585  10.309   5.233   0.697  2.8653 -2.7921 -1.7167
12091SOL     OW46586  10.191   6.883   9.453  0.2684 -0.4401 -0.5284
12091SOL    HW146587  10.187   6.891   9.549 -0.3313 -0.4391 -0.5498
12091SOL    HW246588  10.276   6.920   9.430  0.8609 -1.3689  0.0946
12092SOL     OW46589  11.574   7.900   0.728 -0.0882 -0.1122  0.3971
12092SOL    HW146590  11.642   7.876   0.666 -1.1063 -0.9457 -0.4508
12092SOL    HW246591  11.501   7.840   0.708 -2.0215  2.3532 -0.4839
12093SOL     OW46592   2.659  11.485   1.721  0.1538 -0.5889  0.1981
12093SOL    HW146593   2.681  11.562   1.773  1.8848 -1.9738  1.6304
12093SOL    HW246594   2.738  11.465   1.672 -0.8054 -0.5369 -1.4677
12094SOL     OW46595  11.843   3.778   9.744 -0.6444 -0.3587  0.1776
12094SOL    HW146596  11.761   3.786   9.695 -0.5616  1.3114  0.2678
12094SOL    HW246597  11.881   3.866   9.743 -0.8562 -0.0895  3.5906
12095SOL     OW46598   3.159   9.661   8.181 -0.3441  0.3423  0.4367
12095SOL    HW146599   3.249   9.683   8.157 -0.5959 -0.8148 -1.8787
12095SOL    HW246600   3.115   9.746   8.188  0.4093  0.8599 -0.7935
12096SOL     OW46601   0.344   6.277  12.789 -0.9132  0.4837 -0.2940
12096SOL    HW146602   0.315   6.194  12.751  0.5266  0.2318 -0.9387
12096SOL    HW246603   0.301   6.344  12.737 -2.3523  0.1655  0.4403
12097SOL     OW46604  11.749   1.809  12.598 -0.5074 -0.8855 -0.3340
12097SOL    HW146605  11.675   1.791  12.540 -1.2782 -3.0397  1.1924
12097SOL    HW246606  11.815   1.744  12.574 -1.0148 -2.1144  1.4237
12098SOL     OW46607   6.070  10.093   6.931  0.1385  0.1349  0.1747
12098SOL    HW146608   6.124  10.161   6.891 -0.9632  1.8908  1.5158
12098SOL    HW246609   6.065  10.118   7.023 -1.2856 -1.0956  0.4710
12099SOL     OW46610   2.003   5.280   3.833  0.7388 -0.3848  0.1186
12099SOL    HW146611   1.972   5.371   3.831  1.4348 -0.1501  0.0079
12099SOL    HW246612   1.925   5.230   3.858  0.1295  0.1516 -0.6147
12100SOL     OW46613   0.994   1.491   2.570 -0.4792 -0.0313  0.1743
12100SOL    HW146614   0.961   1.512   2.483  2.1910  0.6608 -0.7696
12100SOL    HW246615   0.982   1.397   2.578  1.5013 -0.5751 -2.0678
12101SOL     OW46616   8.669   8.146   9.639  0.5205  0.0285  0.1385
12101SOL    HW146617   8.585   8.176   9.604  0.0037 -0.1036  1.2195
12101SOL    HW246618   8.719   8.119   9.562 -0.9242 -1.1502 -0.4306
12102SOL     OW46619   6.415   1.506   2.892  0.3923  0.3893  0.1661
12102SOL    HW146620   6.350   1.532   2.828 -0.2990 -0.4612  0.5085
12102SOL    HW246621   6.477   1.580   2.895 -0.9514  1.5515  0.3839
12103SOL     OW46622   3.763  10.573   4.795 -0.3311 -0.4204 -0.5753
12103SOL    HW146623   3.723  10.622   4.723 -0.6449  1.1877  0.6474
12103SOL    HW246624   3.724  10.610   4.874  0.4447 -1.7423  0.4654
12104SOL     OW46625   3.905  10.840   2.750 -0.2473 -0.3779 -0.2668
12104SOL    HW146626   3.832  10.789   2.716 -2.1854  1.6472  0.6030
12104SOL    HW246627   3.916  10.911   2.686 -0.0959  0.2070  0.3999
12105SOL     OW46628   1.639  12.602   2.202 -0.3843  0.0038 -0.0796
12105SOL    HW146629   1.581  12.661   2.250 -2.0790 -1.6855  0.0552
12105SOL    HW246630   1.580  12.543   2.155  1.2364  0.2604 -2.6144
12106SOL     OW46631   0.521   3.076   8.385  0.0673  0.3570 -0.2443
12106SOL    HW146632   0.555   2.993   8.418 -2.6880 -1.5773 -1.9052
12106SOL    HW246633   0.461   3.107   8.452 -1.9723 -1.1636 -1.2824
12107SOL     OW46634   8.454   3.782   4.225  0.4170 -0.7199  0.0049
12107SOL    HW146635   8.521   3.724   4.262 -0.2058 -2.7842 -1.8388
12107SOL    HW246636   8.371   3.739   4.247 -0.2699  0.9970  0.9551
12108SOL     OW46637   7.392  12.714   9.024  0.4552  0.4709  0.1702
12108SOL    HW146638   7.337  12.729   8.948 -1.6362 -0.8208  1.3257
12108SOL    HW246639   7.413  12.621   9.021  0.1239  0.3449  1.2786
12109SOL     OW46640   4.713   8.201   2.225  0.3511  0.1284 -0.0707
12109SOL    HW146641   4.675   8.170   2.142  2.7448  1.9522 -2.0298
12109SOL    HW246642   4.751   8.123   2.264  0.2945 -0.5869 -1.3655
12110SOL     OW46643   8.321   4.459   3.396 -0.1629  0.2196 -0.3440
12110SOL    HW146644   8.253   4.471   3.461 -1.8763 -1.0466 -1.7855
12110SOL    HW246645   8.399   4.498   3.435 -0.6646 -1.8132  3.1250
12111SOL     OW46646   1.039   3.675   4.503 -0.1859  0.0055  0.2426
12111SOL    HW146647   0.946   3.654   4.488 -0.7474  0.8766  2.1626
12111SOL    HW246648   1.084   3.636   4.429 -2.1834  0.3181 -1.2365
12112SOL     OW46649   6.332   1.049  12.249 -0.0643 -0.0832  0.3327
12112SOL    HW146650   6.364   1.133  12.218 -0.2703 -0.6672 -1.5882
12112SOL    HW246651   6.319   1.061  12.343  0.6516  1.7688  0.2282
12113SOL     OW46652   3.749   5.314   8.719 -0.7731 -0.6765 -0.3109
12113SOL    HW146653   3.672   5.367   8.699 -1.8712 -2.3610 -0.7014
12113SOL    HW246654   3.781   5.349   8.802 -1.0579  0.9977 -0.8617
12114SOL     OW46655   6.893   5.163   7.782  0.2740 -0.5185  0.0130
12114SOL    HW146656   6.959   5.103   7.746 -0.4301 -0.2738 -1.7774
12114SOL    HW246657   6.897   5.240   7.725  0.4472  0.7441  1.6650
12115SOL     OW46658   1.199   7.675   5.313 -0.6079 -0.0485 -0.0269
12115SOL    HW146659   1.274   7.696   5.258 -1.2775  0.4768 -0.7470
12115SOL    HW246660   1.131   7.646   5.252 -1.3058  0.3810  0.5346
12116SOL     OW46661   3.197   1.847   0.047 -0.1031  0.5932 -0.3596
12116SOL    HW146662   3.191   1.885   0.134  2.0583 -2.3272  1.2635
12116SOL    HW246663   3.114   1.801   0.035 -0.4123  1.0094  0.1547
12117SOL     OW46664   4.812   4.439   4.759 -1.0057  0.0298  0.4585
12117SOL    HW146665   4.728   4.415   4.720 -0.7879  1.1042 -0.7185
12117SOL    HW246666   4.850   4.502   4.698  0.7205 -0.5270  0.9009
12118SOL     OW46667   8.360   0.266  11.105 -0.1484  0.3497 -0.0330
12118SOL    HW146668   8.416   0.232  11.174  0.1103 -0.5864 -0.6822
12118SOL    HW246669   8.379   0.360  11.102 -0.4299  0.4736  1.3919
12119SOL     OW46670   9.082  11.887  10.896  0.3982  0.4737 -0.2916
12119SOL    HW146671   9.102  11.923  10.809 -0.7769 -0.4227 -0.9758
12119SOL    HW246672   8.989  11.865  10.892 -0.1179  1.9701  1.8088
12120SOL     OW46673  12.639  10.714   9.419  0.3220 -0.9324 -0.1784
12120SOL    HW146674  12.585  10.659   9.363  3.4215 -3.0447 -1.3852
12120SOL    HW246675  12.677  10.779   9.360  1.3858 -1.3734 -0.0081
12121SOL     OW46676   3.395   1.119   3.174  0.2954 -0.0055  0.4612
12121SOL    HW146677   3.375   1.079   3.259 -0.4521 -2.0685 -0.6343
12121SOL    HW246678   3.310   1.126   3.130  0.8773 -0.5203 -0.7706
12122SOL     OW46679  11.645   8.633   2.965  0.1950  0.4493 -0.0131
12122SOL    HW146680  11.680   8.657   3.051  2.0311  0.2284 -0.6614
12122SOL    HW246681  11.568   8.579   2.985  0.8378  0.0340  1.5101
12123SOL     OW46682   5.327   8.773   3.552 -0.0035  0.0254  0.6006
12123SOL    HW146683   5.307   8.858   3.592 -2.1826 -0.0217 -0.2846
12123SOL    HW246684   5.368   8.796   3.468  0.8012  0.1521  1.0109
12124SOL     OW46685   0.595   6.238   6.621  0.3073  0.2501 -0.2289
12124SOL    HW146686   0.644   6.164   6.655  3.7057  1.4332 -2.0434
12124SOL    HW246687   0.633   6.314   6.664 -1.8322  1.1442  0.2408
12125SOL     OW46688  12.249   8.087   7.422 -0.0885 -0.0134 -0.1551
12125SOL    HW146689  12.208   8.081   7.508  1.6771 -1.0005  0.6741
12125SOL    HW246690  12.192   8.035   7.365 -0.2905 -0.9407  0.8433
12126SOL     OW46691   5.965   8.903   2.077  0.2118  0.0780 -0.0923
12126SOL    HW146692   5.902   8.925   2.008 -0.5773 -0.3791  0.4756
12126SOL    HW246693   5.973   8.808   2.072 -0.9057 -0.1151  1.3429
12127SOL     OW46694   9.785   0.807   9.008  0.6142 -0.3172  0.2457
12127SOL    HW146695   9.859   0.752   9.035  1.5255  1.2066  0.9439
12127SOL    HW246696   9.825   0.884   8.969 -0.6623 -0.5443 -1.6202
12128SOL     OW46697  12.985   1.106   4.873  0.1218 -0.0430  0.0247
12128SOL    HW146698  12.998   1.069   4.960 -0.1020  0.1385  0.1370
12128SOL    HW246699  12.895   1.139   4.875  0.2089  0.2065 -0.1849
12129SOL     OW46700   7.393   3.704   1.761 -0.4614  0.3464  0.4076
12129SOL    HW146701   7.316   3.751   1.791  0.0945  1.3243  0.3457
12129SOL    HW246702   7.398   3.723   1.667 -0.0914  0.3712  0.4289
12130SOL     OW46703  11.152  12.001   0.888 -0.5570 -0.3754 -0.1955
12130SOL    HW146704  11.145  12.096   0.893 -0.6891 -0.4130  0.5147
12130SOL    HW246705  11.143  11.981   0.795  0.4829  0.3789 -0.4860
12131SOL     OW46706  11.386   2.187   1.865  0.7844 -0.2594 -0.1738
12131SOL    HW146707  11.419   2.218   1.781 -1.4528  0.0394 -0.9990
12131SOL    HW246708  11.440   2.110   1.885  1.3076 -0.3802 -1.9023
12132SOL     OW46709   1.602  10.253   7.251 -0.3093  0.0979  0.1700
12132SOL    HW146710   1.602  10.300   7.167 -1.9964 -1.0271 -0.5064
12132SOL    HW246711   1.652  10.310   7.309  0.6850  1.0457 -1.5098
12133SOL     OW46712   9.802   8.828  11.386 -0.0048  0.0365 -0.2378
12133SOL    HW146713   9.872   8.762  11.382 -1.5230 -1.7471  0.9210
12133SOL    HW246714   9.724   8.778  11.407 -1.0296  2.4028  2.0018
12134SOL     OW46715   3.502   8.502  10.090  0.2429 -0.2921  0.5217
12134SOL    HW146716   3.572   8.438  10.079  0.8444  0.7573 -2.7342
12134SOL    HW246717   3.460   8.508  10.004 -1.3135  1.9590  1.3342
12135SOL     OW46718   8.497   7.389   5.816  0.1586 -0.5565 -0.1926
12135SOL    HW146719   8.589   7.413   5.833  0.1982 -0.8753  0.0559
12135SOL    HW246720   8.503   7.309   5.765  0.0193 -1.3416  0.9753
12136SOL     OW46721   8.161   0.728  12.715 -0.2831 -0.6606 -0.7316
12136SOL    HW146722   8.118   0.805  12.752  0.9000 -0.9221  1.3391
12136SOL    HW246723   8.113   0.654  12.752  0.0132 -0.9352 -0.8892
12137SOL     OW46724   3.168   4.791   3.021  0.2756 -0.8610  0.5233
12137SOL    HW146725   3.202   4.724   2.962  0.9997  0.4500 -0.6178
12137SOL    HW246726   3.241   4.853   3.031 -0.8671  0.5806  0.2753
12138SOL     OW46727   2.453   4.972   0.447 -0.3166 -0.0630  0.0012
12138SOL    HW146728   2.543   4.984   0.419 -0.0469  0.8625  1.2142
12138SOL    HW246729   2.405   5.045   0.408 -1.1189 -1.8827 -2.7666
12139SOL     OW46730   0.911  10.557   6.384 -0.1965  0.1681  0.2894
12139SOL    HW146731   0.925  10.465   6.408  3.2837  1.3800  3.8699
12139SOL    HW246732   0.873  10.597   6.462 -0.3743  2.0360 -0.6963
12140SOL     OW46733   1.061  12.427   2.580  0.2162  0.4912  0.4612
12140SOL    HW146734   1.105  12.494   2.633  2.0139  0.2415 -0.6379
12140SOL    HW246735   1.014  12.476   2.512 -1.2622  0.7555  1.6162
12141SOL     OW46736   6.273   0.288   2.203  0.1627  0.2279  0.1682
12141SOL    HW146737   6.306   0.281   2.293 -0.2779 -0.6810  0.2731
12141SOL    HW246738   6.180   0.264   2.210  0.2241 -0.2634 -0.5928
12142SOL     OW46739  10.530   3.333   7.728  0.6006 -0.3321  0.1728
12142SOL    HW146740  10.532   3.290   7.813  1.1796  0.4816  0.5901
12142SOL    HW246741  10.584   3.412   7.740  0.8248 -0.2906 -0.9895
12143SOL     OW46742   5.277  12.197   2.307  0.0909 -0.1386  0.7721
12143SOL    HW146743   5.184  12.176   2.299  0.4309 -2.7076  2.3950
12143SOL    HW246744   5.300  12.172   2.397  2.1663  1.2964  0.7144
12144SOL     OW46745  11.687   4.407   0.012 -0.0152  0.0591  0.0954
12144SOL    HW146746  11.637   4.466  -0.045  0.0895  4.0080  3.6491
12144SOL    HW246747  11.620   4.367   0.068  0.1253 -1.9219 -1.0412
12145SOL     OW46748  10.330   2.763  11.512 -0.8052  0.1201 -0.1442
12145SOL    HW146749  10.255   2.732  11.563 -1.4401  0.7574 -0.6755
12145SOL    HW246750  10.392   2.691  11.515 -0.7388  0.1836  1.6851
12146SOL     OW46751   8.333   2.672   7.954 -0.1401  0.3604 -0.3484
12146SOL    HW146752   8.251   2.623   7.951 -0.3953  0.8100 -1.0171
12146SOL    HW246753   8.401   2.605   7.945 -0.2429 -0.3965  3.2416
12147SOL     OW46754   9.407   3.773   0.959  0.1374 -0.6368  0.2615
12147SOL    HW146755   9.393   3.818   1.042 -0.2068  0.1270 -0.1927
12147SOL    HW246756   9.348   3.698   0.962 -0.8896  0.1403  0.1681
12148SOL     OW46757  10.471  10.182  10.595 -0.3031 -0.3249  0.9017
12148SOL    HW146758  10.550  10.200  10.545 -0.8816 -0.6137 -0.1313
12148SOL    HW246759  10.501  10.180  10.686  0.5313  1.5766  0.7234
12149SOL     OW46760   5.914   8.185   3.536  0.5347  0.1808  0.0853
12149SOL    HW146761   5.993   8.168   3.486  1.4146 -0.9264  1.7579
12149SOL    HW246762   5.860   8.107   3.524  2.1637 -1.6703  3.2925
12150SOL     OW46763   0.609   5.909   1.467 -0.1380 -0.5771  0.2955
12150SOL    HW146764   0.597   5.861   1.550  0.3798 -1.9699 -0.4068
12150SOL    HW246765   0.702   5.932   1.466  0.0751 -1.4410 -0.3497
12151SOL     OW46766   6.266   5.363   4.248 -0.1141  0.2108  0.1255
12151SOL    HW146767   6.309   5.404   4.173  0.5034 -0.1346  0.2769
12151SOL    HW246768   6.209   5.296   4.210 -0.0008  0.2133 -0.0508
12152SOL     OW46769   2.006   8.086   2.364 -0.3070 -0.0607 -0.1800
12152SOL    HW146770   1.942   8.016   2.377 -0.5310  0.0152 -0.8416
12152SOL    HW246771   2.030   8.080   2.272  2.4250 -1.6120  0.5139
12153SOL     OW46772   6.221   0.810   2.565  0.2910  0.0724  0.1900
12153SOL    HW146773   6.153   0.858   2.519  0.7072 -0.2429 -0.7693
12153SOL    HW246774   6.302   0.834   2.522  0.7850  0.3269  1.2250
12154SOL     OW46775   1.747   8.282   3.982 -0.1822 -0.0956 -0.6387
12154SOL    HW146776   1.756   8.202   4.033  0.8947  0.1307 -0.4433
12154SOL    HW246777   1.654   8.288   3.962 -0.6713 -0.1083  1.4137
12155SOL     OW46778  12.697   6.591   8.641 -0.0503 -0.6038  0.0791
12155SOL    HW146779  12.723   6.642   8.718  0.2996  0.5792 -0.7768
12155SOL    HW246780  12.683   6.657   8.573 -1.5500 -1.5325 -0.5481
12156SOL     OW46781  10.560   2.851  10.437  0.1809  0.3958  0.4880
12156SOL    HW146782  10.618   2.923  10.463 -0.6109  0.7777  1.2692
12156SOL    HW246783  10.615   2.773  10.445  1.4292  0.9849 -1.5769
12157SOL     OW46784   8.792   2.744  10.689  0.1357  0.7811  0.0004
12157SOL    HW146785   8.708   2.698  10.694  0.1333  0.5308 -1.7455
12157SOL    HW246786   8.786   2.796  10.609  2.0922 -0.1920 -0.8264
12158SOL     OW46787   5.575   2.571   3.281 -0.5938 -0.0727  0.0435
12158SOL    HW146788   5.531   2.627   3.345  0.3513  0.0795  0.5806
12158SOL    HW246789   5.605   2.632   3.212  0.7866  0.1714  0.8252
12159SOL     OW46790   5.847   8.633   6.772  0.2669 -0.2779  0.2740
12159SOL    HW146791   5.863   8.552   6.819 -1.6398 -0.3662  0.8520
12159SOL    HW246792   5.799   8.688   6.834 -0.2590  0.4913 -0.7818
12160SOL     OW46793   0.393   1.665   8.358  0.3050 -0.3382 -0.6507
12160SOL    HW146794   0.437   1.685   8.276  0.4503  0.5760 -0.3566
12160SOL    HW246795   0.437   1.585   8.389 -0.1949 -1.0680 -1.7664
12161SOL     OW46796   7.232   9.278   8.689  0.1974 -0.1680 -0.2590
12161SOL    HW146797   7.198   9.367   8.689 -0.3640 -0.3628  0.7354
12161SOL    HW246798   7.327   9.288   8.696  0.2482  0.3609 -1.5305
12162SOL     OW46799   7.841   0.031   2.372 -0.3527  0.8929 -0.1232
12162SOL    HW146800   7.834   0.098   2.440  2.0919 -0.1246  1.2500
12162SOL    HW246801   7.777  -0.035   2.396  1.0042  0.1818  1.7045
12163SOL     OW46802  10.851   1.306   6.176  0.0734  0.0690 -0.7266
12163SOL    HW146803  10.898   1.223   6.187  0.5083  0.3737 -0.1897
12163SOL    HW246804  10.775   1.284   6.123 -1.8604 -1.4420  2.3832
12164SOL     OW46805  11.552   4.653   7.874 -0.0270 -0.5173 -0.0133
12164SOL    HW146806  11.559   4.628   7.966 -0.6097 -0.7089 -0.0201
12164SOL    HW246807  11.486   4.723   7.873 -1.5122 -1.8802 -0.5308
12165SOL     OW46808   9.884   4.089   3.038 -0.2776 -0.4342 -0.1673
12165SOL    HW146809   9.800   4.043   3.041 -0.2778 -0.5758 -1.6111
12165SOL    HW246810   9.948   4.024   3.067 -0.5914 -0.4596  0.5088
12166SOL     OW46811   6.461   9.112   9.180 -0.5938  0.5372  0.6076
12166SOL    HW146812   6.447   9.135   9.272 -2.2428 -0.3005  0.6130
12166SOL    HW246813   6.444   9.018   9.175  1.6626  0.1140 -0.1967
12167SOL     OW46814   5.875  11.882   2.277 -0.2012  0.4752  0.1294
12167SOL    HW146815   5.967  11.858   2.293 -0.2057  0.5634  0.2868
12167SOL    HW246816   5.879  11.969   2.239 -0.2752  0.9830  1.2266
12168SOL     OW46817   4.214  10.195  12.245 -0.3963  0.5084  0.2163
12168SOL    HW146818   4.125  10.208  12.209 -0.0565 -0.4521 -1.0537
12168SOL    HW246819   4.212  10.107  12.282 -0.1133  0.6818  0.6444
12169SOL     OW46820   5.182   4.236   3.612 -0.2601  0.0024  0.2172
12169SOL    HW146821   5.171   4.150   3.572  0.2505 -0.3673  0.8548
12169SOL    HW246822   5.223   4.289   3.544 -0.7554 -0.1919 -0.2456
12170SOL     OW46823   4.797   1.379   4.720  0.1705 -0.1585  0.1287
12170SOL    HW146824   4.856   1.439   4.765 -0.7246  0.6343  0.2755
12170SOL    HW246825   4.821   1.292   4.754 -1.6178  0.5102  3.6341
12171SOL     OW46826  10.663   6.944   0.740 -0.0085  0.6170  0.5980
12171SOL    HW146827  10.749   6.945   0.698  0.4156 -0.2220  1.4127
12171SOL    HW246828  10.615   7.015   0.698  0.3048 -0.3211 -1.4939
12172SOL     OW46829   3.162  10.984   8.642  0.3848  0.0970  0.1169
12172SOL    HW146830   3.197  10.907   8.686  1.6370  0.3800 -0.3246
12172SOL    HW246831   3.151  10.957   8.551 -1.1951 -0.1745  0.3636
12173SOL     OW46832   0.390   3.900  12.474  0.2229 -0.0898 -0.1214
12173SOL    HW146833   0.416   3.954  12.399  0.9752 -0.8229 -0.4069
12173SOL    HW246834   0.441   3.820  12.464 -1.0749 -0.9777  0.1368
12174SOL     OW46835   5.203   8.948   0.808 -0.1464  0.1762  0.1041
12174SOL    HW146836   5.282   8.897   0.826  0.3384  1.4800  2.1048
12174SOL    HW246837   5.236   9.034   0.781 -0.7842  1.0149  1.7984
12175SOL     OW46838  11.987  10.063   0.574  0.4085 -0.9278  0.1570
12175SOL    HW146839  11.975  10.052   0.669 -1.3926 -1.3228 -0.0736
12175SOL    HW246840  11.950   9.983   0.536  0.4470 -0.4548 -0.9176
12176SOL     OW46841   4.809   1.293   7.106 -0.0156 -0.6791  0.0263
12176SOL    HW146842   4.901   1.288   7.134 -0.0936 -3.5315  0.0959
12176SOL    HW246843   4.786   1.203   7.084 -2.5540  0.1105 -0.9039
12177SOL     OW46844  11.714   2.714   6.192  0.1472  0.2107 -0.3839
12177SOL    HW146845  11.662   2.659   6.133  1.5539 -0.5508 -0.9415
12177SOL    HW246846  11.798   2.726   6.147  1.4401 -0.7608  1.6490
12178SOL     OW46847   0.475  11.731  11.162  0.4414 -0.3030 -0.2111
12178SOL    HW146848   0.436  11.653  11.121  0.3610 -0.9596  1.0733
12178SOL    HW246849   0.568  11.711  11.169  0.5252 -0.0090 -0.4646
12179SOL     OW46850  12.307   8.740   9.134 -0.6976  0.3055  1.0433
12179SOL    HW146851  12.390   8.735   9.181 -0.3804 -2.6927  0.4246
12179SOL    HW246852  12.331   8.769   9.046  0.0973 -2.1775  0.3392
12180SOL     OW46853   1.710  12.938  10.198  0.6239  1.1068 -1.1065
12180SOL    HW146854   1.754  12.875  10.254 -1.5954 -1.4526 -1.9896
12180SOL    HW246855   1.652  12.987  10.257 -1.0604 -0.9690 -0.9411
12181SOL     OW46856   0.856  10.035   1.295  0.1727 -0.9277 -0.1878
12181SOL    HW146857   0.835   9.941   1.293 -1.2259 -0.6254 -0.5008
12181SOL    HW246858   0.797  10.074   1.231 -0.6389  0.4359  1.3232
12182SOL     OW46859   0.264   1.545   6.655  0.4142  0.3303 -0.0287
12182SOL    HW146860   0.244   1.455   6.628  1.2923  0.2848 -0.5589
12182SOL    HW246861   0.326   1.535   6.727  1.0240  0.5074 -0.5168
12183SOL     OW46862   7.462   3.544   7.540  0.1156  0.1859  0.4829
12183SOL    HW146863   7.493   3.628   7.575  2.7684 -0.3904 -0.2679
12183SOL    HW246864   7.369   3.544   7.560 -0.4430  4.1352 -1.1374
12184SOL     OW46865  11.098   1.664   6.316 -0.4177  0.1796 -0.9868
12184SOL    HW146866  11.186   1.664   6.354 -1.4385 -2.2574  1.6979
12184SOL    HW246867  11.063   1.751   6.335  1.3878  1.2576 -2.2613
12185SOL     OW46868   2.492   0.601  12.218 -0.5106  0.3506  0.0669
12185SOL    HW146869   2.558   0.544  12.179 -2.1962 -1.1583 -0.7115
12185SOL    HW246870   2.501   0.683  12.169 -0.3472 -0.4049 -1.2415
12186SOL     OW46871  10.521   7.243   2.348 -0.1899 -0.2396 -0.2838
12186SOL    HW146872  10.511   7.330   2.309 -1.9431 -0.3857 -0.2686
12186SOL    HW246873  10.432   7.207   2.347 -0.0389 -0.9193  2.2830
12187SOL     OW46874  10.852   0.355   1.781  0.1516 -0.5595  0.6314
12187SOL    HW146875  10.889   0.443   1.778 -0.8294 -0.1479 -0.4536
12187SOL    HW246876  10.900   0.306   1.714 -0.6699 -0.2573 -0.1974
12188SOL     OW46877   3.183   6.048   0.101  0.4094  0.5418 -0.8941
12188SOL    HW146878   3.159   6.141   0.099  1.3976  0.8514  0.0870
12188SOL    HW246879   3.145   6.015   0.182  1.2990  0.4805 -0.4830
12189SOL     OW46880   2.464  10.137   6.667 -0.3979  0.1377 -0.1611
12189SOL    HW146881   2.476  10.142   6.572 -1.5668  0.9596 -0.2852
12189SOL    HW246882   2.503  10.217   6.701  1.5878 -0.9389  0.2737
12190SOL     OW46883   7.174  12.310   3.834 -0.0235 -0.2346  0.5554
12190SOL    HW146884   7.253  12.322   3.886 -0.5866 -0.9442  1.5984
12190SOL    HW246885   7.117  12.382   3.859  0.1985  0.1676 -0.0581
12191SOL     OW46886  10.238   5.652   0.061  0.6393 -0.1728 -0.0436
12191SOL    HW146887  10.172   5.583   0.068  1.2481 -0.8490 -0.7795
12191SOL    HW246888  10.194   5.731   0.095  0.2274 -1.0833  1.6729
12192SOL     OW46889   6.006  10.649   1.739 -0.0358 -0.5476  0.3974
12192SOL    HW146890   6.019  10.736   1.776  0.5727 -1.3127  2.0921
12192SOL    HW246891   6.084  10.635   1.684 -0.4647  0.2107 -0.4386
12193SOL     OW46892   6.734   8.281   0.716 -0.1725  0.6279 -0.4950
12193SOL    HW146893   6.800   8.243   0.774 -1.1660  1.1145  0.9927
12193SOL    HW246894   6.655   8.229   0.731 -0.3612  0.5354 -1.6910
12194SOL     OW46895  10.259   1.526   6.795  0.5896  0.6422  0.2804
12194SOL    HW146896  10.291   1.524   6.705 -0.2778  0.5619 -0.0367
12194SOL    HW246897  10.186   1.465   6.796  0.6976  0.5178  1.0837
12195SOL     OW46898   9.058   1.741   7.881  0.0742 -0.1416  0.5517
12195SOL    HW146899   9.128   1.675   7.880  0.5445  0.2657  2.5361
12195SOL    HW246900   9.105   1.824   7.884 -0.5174  0.3516 -1.9347
12196SOL     OW46901   0.238   2.180   1.548  0.3568  0.4791  0.2475
12196SOL    HW146902   0.322   2.197   1.505  0.0689  0.8598 -0.1775
12196SOL    HW246903   0.229   2.085   1.547  0.0604  0.4963 -1.1485
12197SOL     OW46904   7.977   7.466   8.557  1.0282 -0.3467 -0.9144
12197SOL    HW146905   8.042   7.409   8.516  1.8265 -0.1629  0.0502
12197SOL    HW246906   7.924   7.408   8.611  2.5181 -0.0950  0.9193
12198SOL     OW46907   6.557   4.233   4.051  0.3898 -0.2654 -0.2843
12198SOL    HW146908   6.585   4.157   4.102 -0.0850 -0.8207 -0.8351
12198SOL    HW246909   6.592   4.217   3.963  1.3609  0.7705 -0.1118
12199SOL     OW46910  10.777  11.523  10.463 -0.3713 -0.0497 -0.1477
12199SOL    HW146911  10.713  11.594  10.451 -1.8566 -1.1875  0.7246
12199SOL    HW246912  10.850  11.546  10.405 -1.0250  1.9267 -0.2381
12200SOL     OW46913   1.076   8.743  11.621  0.2481 -0.6220 -0.3307
12200SOL    HW146914   1.016   8.813  11.596  1.2953  0.6595  0.6583
12200SOL    HW246915   1.141   8.740  11.550 -0.4172 -1.3908 -0.9371
12201SOL     OW46916   6.578   4.063   5.296 -0.6990  0.0487 -0.1100
12201SOL    HW146917   6.535   3.978   5.291 -1.3804  0.3156  0.9601
12201SOL    HW246918   6.655   4.054   5.239 -2.7966 -0.0064 -3.1977
12202SOL     OW46919   6.140   0.937   8.330 -0.2086 -0.3933 -0.1931
12202SOL    HW146920   6.162   1.021   8.290 -1.7220 -0.8293 -2.0902
12202SOL    HW246921   6.102   0.885   8.259 -1.1211 -1.9875  1.3604
12203SOL     OW46922   0.791  10.198   8.744 -0.1735 -0.5334 -0.1011
12203SOL    HW146923   0.731  10.130   8.774 -0.4094 -0.1652  0.2773
12203SOL    HW246924   0.762  10.277   8.791 -0.6198  0.0811 -1.3821
12204SOL     OW46925   6.817   6.491   9.455 -0.2291  0.8661  0.4000
12204SOL    HW146926   6.799   6.519   9.365 -0.9938  0.0309  0.2759
12204SOL    HW246927   6.912   6.491   9.462 -0.1524  0.5074 -0.5564
12205SOL     OW46928   5.981   3.285   5.564  0.0523  0.4027  0.0179
12205SOL    HW146929   5.956   3.366   5.607 -3.5568 -1.2494  1.4759
12205SOL    HW246930   6.009   3.227   5.634 -0.2659 -0.5096 -0.5776
12206SOL     OW46931   8.663   6.781   3.983  0.1248 -0.3987 -0.0144
12206SOL    HW146932   8.627   6.863   4.016  2.1279  0.8669 -0.7617
12206SOL    HW246933   8.717   6.747   4.054  0.2254 -0.4419 -0.1096
12207SOL     OW46934   9.122   0.459  11.005 -0.4797  0.3777 -0.1074
12207SOL    HW146935   9.029   0.481  11.002 -0.5014  0.3823  0.5398
12207SOL    HW246936   9.167   0.542  11.017 -0.5401  0.1556  1.9683
12208SOL     OW46937  10.464  12.922   4.000  0.1586 -0.0156  0.0746
12208SOL    HW146938  10.491  12.831   3.987 -0.9924 -0.0093 -3.3899
12208SOL    HW246939  10.542  12.973   3.978 -0.2742 -0.1525 -1.9476
12209SOL     OW46940   5.096  12.547   6.262 -0.1418 -0.0464 -0.1209
12209SOL    HW146941   5.073  12.493   6.337  0.7090 -0.5652 -0.2216
12209SOL    HW246942   5.129  12.629   6.300  0.3816 -0.3476  0.0771
12210SOL     OW46943   2.890   4.918   7.567 -0.3384 -0.2878 -0.3878
12210SOL    HW146944   2.925   4.868   7.493 -0.3698  0.3904 -0.8746
12210SOL    HW246945   2.836   4.986   7.526  0.2160  0.5471  0.2182
12211SOL     OW46946  11.976   1.873  12.380 -0.5735 -0.1217  0.0822
12211SOL    HW146947  11.956   1.793  12.427  0.8950 -0.0302  0.9258
12211SOL    HW246948  11.939   1.943  12.434 -0.8305 -0.1553 -0.0501
12212SOL     OW46949  10.052   2.295   0.515  0.2355 -0.2401  0.1529
12212SOL    HW146950  10.007   2.239   0.579  0.7258 -1.2801 -0.3961
12212SOL    HW246951  10.123   2.241   0.481  0.0950  0.3466 -1.1446
12213SOL     OW46952   8.962   1.940   2.521 -0.6928 -0.2919 -0.2289
12213SOL    HW146953   8.951   1.859   2.470  0.2876  0.6595 -2.0665
12213SOL    HW246954   8.895   1.999   2.486  0.0537  0.4081 -0.4996
12214SOL     OW46955   8.975   0.768   5.637  0.1198 -0.1528  0.1130
12214SOL    HW146956   9.030   0.708   5.687  0.6724  0.1112 -0.1682
12214SOL    HW246957   8.897   0.718   5.616 -0.4485 -0.0481  1.8539
12215SOL     OW46958  11.701   7.181   5.989 -0.0030  0.1910  0.1974
12215SOL    HW146959  11.665   7.112   6.045  0.2226 -0.2327 -0.1767
12215SOL    HW246960  11.693   7.261   6.042  0.6459 -0.2710  1.0237
12216SOL     OW46961  11.818   4.598   9.047  0.1030 -0.3331  0.2108
12216SOL    HW146962  11.729   4.568   9.030 -0.2071  0.2170  0.8347
12216SOL    HW246963  11.845   4.551   9.126 -0.5734  1.3349  1.5019
12217SOL     OW46964   2.133   8.118   4.477 -0.2705  0.3929  0.7168
12217SOL    HW146965   2.085   8.195   4.507 -0.5569  0.0517  1.1469
12217SOL    HW246966   2.225   8.144   4.477 -0.3056  0.5187  1.5188
12218SOL     OW46967  11.260   2.081   8.604  0.1277  0.4522 -0.0860
12218SOL    HW146968  11.314   2.065   8.526  0.6495 -2.6719  0.7607
12218SOL    HW246969  11.317   2.129   8.664  0.9730 -0.2159 -0.3312
12219SOL     OW46970  12.661   3.237   3.762 -0.1199  0.3594 -0.7457
12219SOL    HW146971  12.749   3.231   3.798 -0.1621  1.2816 -0.4628
12219SOL    HW246972  12.668   3.299   3.690 -0.6003  0.7252 -0.4893
12220SOL     OW46973   2.559  12.687  11.356 -0.6114  0.3668 -0.4479
12220SOL    HW146974   2.604  12.607  11.330  0.5470  0.9846 -0.3854
12220SOL    HW246975   2.563  12.743  11.278  0.3129  1.1031  0.1123
12221SOL     OW46976   1.031  11.889   5.706  0.1892 -0.7953  0.4117
12221SOL    HW146977   1.104  11.893   5.767 -1.3925 -0.8619  2.4242
12221SOL    HW246978   1.056  11.947   5.634  1.5950  0.3215  1.7326
12222SOL     OW46979   2.774   0.918  10.858  0.9784  0.5759  0.6177
12222SOL    HW146980   2.851   0.873  10.892  0.4971 -1.1542 -0.4909
12222SOL    HW246981   2.765   0.995  10.915  2.6516  0.0444  1.6827
12223SOL     OW46982   5.640   1.415   0.902 -0.3857  0.1100  0.2447
12223SOL    HW146983   5.703   1.439   0.834 -0.0016 -0.0548  0.5396
12223SOL    HW246984   5.688   1.423   0.984 -0.3323 -1.3146  0.3834
12224SOL     OW46985   8.359   1.061   0.667 -0.7156 -0.1134  0.3580
12224SOL    HW146986   8.357   1.121   0.593  1.4198 -0.6386 -0.2015
12224SOL    HW246987   8.387   1.115   0.741  0.4451 -0.2190  0.0210
12225SOL     OW46988   5.578   1.024   0.365  0.4934 -0.0491 -0.2372
12225SOL    HW146989   5.487   1.027   0.395  0.9370  0.8286  1.1123
12225SOL    HW246990   5.607   0.935   0.384  1.2572  0.8821  3.7087
12226SOL     OW46991   1.135   3.282   5.457  0.0466  0.1129 -0.0587
12226SOL    HW146992   1.045   3.312   5.446  0.5426  1.8908  0.4242
12226SOL    HW246993   1.153   3.294   5.550  0.7797 -0.2185 -0.1519
12227SOL     OW46994   0.347  11.579   3.062  0.1058  0.5252 -0.5097
12227SOL    HW146995   0.293  11.566   2.985  0.8082 -0.1253 -0.9032
12227SOL    HW246996   0.360  11.491   3.098  0.3946  0.7407 -0.0709
12228SOL     OW46997  12.379   9.368   5.942  1.1821  0.6581 -0.1895
12228SOL    HW146998  12.385   9.274   5.925  1.3189  0.4113  1.1277
12228SOL    HW246999  12.305   9.378   6.002  0.9697  1.4314 -0.5626
12229SOL     OW47000   0.237  12.131   1.062  0.1361  0.9448 -0.2160
12229SOL    HW147001   0.160  12.149   1.008  0.0566  1.5014  0.0734
12229SOL    HW247002   0.251  12.212   1.112 -0.0963  0.2718  0.9803
12230SOL     OW47003  11.600   0.185   4.307 -0.6456 -0.2957  0.4597
12230SOL    HW147004  11.624   0.120   4.373  0.2422 -1.3083 -0.8031
12230SOL    HW247005  11.504   0.179   4.302 -0.7758  0.1316  1.9452
12231SOL     OW47006  11.262   4.604   7.920  0.3691  0.2742  0.1140
12231SOL    HW147007  11.230   4.524   7.878  1.0361  0.2926 -0.4499
12231SOL    HW247008  11.227   4.600   8.009 -0.7712  0.0538 -0.3283
12232SOL     OW47009   3.142   4.024   2.591  0.4797 -0.3564 -0.4038
12232SOL    HW147010   3.147   3.933   2.562 -3.3115 -0.2449 -1.9573
12232SOL    HW247011   3.100   4.070   2.519 -1.7757  1.6615  2.0057
12233SOL     OW47012  11.795   4.842   6.211  0.3282 -0.0225 -0.3044
12233SOL    HW147013  11.814   4.768   6.153  2.0851  0.9137 -0.9991
12233SOL    HW247014  11.769   4.913   6.152 -3.5441 -0.6056  0.4777
12234SOL     OW47015   1.695   2.540   6.743 -0.0082 -0.0275 -0.4044
12234SOL    HW147016   1.634   2.470   6.766 -0.8952  0.5989 -0.7503
12234SOL    HW247017   1.707   2.531   6.648 -0.3043  0.4103 -0.4878
12235SOL     OW47018   7.456   9.700   5.796  0.3361 -0.1919  0.7961
12235SOL    HW147019   7.446   9.734   5.885 -0.3705  0.9540  0.3050
12235SOL    HW247020   7.366   9.682   5.767  0.5666 -0.6307  0.3476
12236SOL     OW47021  11.316   0.485  12.460 -0.3031  0.3735  0.0001
12236SOL    HW147022  11.261   0.408  12.443  0.4552  0.1571 -1.6628
12236SOL    HW247023  11.273   0.556  12.413  0.0154  0.5375 -0.0437
12237SOL     OW47024   1.713   9.340   9.406  0.1227  0.4244  0.2772
12237SOL    HW147025   1.655   9.378   9.340 -0.0926 -1.6293 -0.8173
12237SOL    HW247026   1.656   9.284   9.458  1.1757 -2.8057 -1.7343
12238SOL     OW47027   1.568   2.284   8.056 -0.1367  0.2866  0.6195
12238SOL    HW147028   1.563   2.377   8.077 -1.8923  0.4155 -0.1866
12238SOL    HW247029   1.558   2.280   7.961 -0.9505 -0.7739  0.7341
12239SOL     OW47030   1.604  11.938  12.716  0.5948  0.1215 -0.4430
12239SOL    HW147031   1.538  11.870  12.705  0.5868 -0.4306  2.3385
12239SOL    HW247032   1.602  11.987  12.634 -3.0993  0.0010 -0.5809
12240SOL     OW47033  12.874   0.544  12.203  0.1212 -0.9112  0.1990
12240SOL    HW147034  12.825   0.599  12.264 -0.0532 -1.3805  0.4852
12240SOL    HW247035  12.966   0.563  12.222  0.0631 -0.7933  0.3653
12241SOL     OW47036   2.028   5.027   1.903 -0.9965 -0.2617 -0.0169
12241SOL    HW147037   2.095   5.093   1.920  0.1352 -0.0345 -4.2186
12241SOL    HW247038   2.071   4.944   1.925  0.7642 -0.1009 -2.4237
12242SOL     OW47039  10.094  10.228   4.868 -0.4140 -0.2261  0.6345
12242SOL    HW147040  10.170  10.198   4.919 -0.2227  1.1178  1.1889
12242SOL    HW247041  10.019  10.207   4.923 -0.1971  1.3720  1.6094
12243SOL     OW47042   6.466  12.401  10.337 -0.0120 -0.1108  0.0658
12243SOL    HW147043   6.402  12.471  10.327  0.1386  0.3456  1.9279
12243SOL    HW247044   6.417  12.330  10.378  0.3578 -0.2914  0.1942
12244SOL     OW47045  12.267   5.270   9.448  0.0542 -0.7034  0.1676
12244SOL    HW147046  12.324   5.347   9.446  0.5387 -1.0752 -0.7516
12244SOL    HW247047  12.295   5.222   9.526 -0.2808  0.0557  0.7761
12245SOL     OW47048  11.728   9.477   0.417 -0.2835 -0.3638 -0.1096
12245SOL    HW147049  11.727   9.524   0.334  2.7554 -1.7162 -1.0567
12245SOL    HW247050  11.659   9.518   0.469 -1.7911  1.0287 -2.9864
12246SOL     OW47051  10.551   5.169  12.354 -0.1157 -0.8537 -0.6966
12246SOL    HW147052  10.522   5.123  12.433  1.1244 -2.3451 -1.0314
12246SOL    HW247053  10.645   5.184  12.369 -0.1044 -0.1403 -1.4252
12247SOL     OW47054   1.074   2.669   7.138 -0.0207 -0.1774  0.1069
12247SOL    HW147055   1.014   2.609   7.182  1.2954 -2.2296 -0.7758
12247SOL    HW247056   1.143   2.685   7.202  1.1450 -2.0027 -0.6538
12248SOL     OW47057   0.269   1.796  11.444  0.3151  0.5509 -0.0064
12248SOL    HW147058   0.267   1.883  11.403 -1.6753  0.0774 -1.0626
12248SOL    HW247059   0.237   1.737  11.376 -1.3417 -0.5310  1.6134
12249SOL     OW47060   7.060   1.261   7.734  0.2973 -0.1353 -0.3862
12249SOL    HW147061   7.027   1.275   7.646 -1.2704  0.4887  0.2591
12249SOL    HW247062   6.981   1.256   7.789  1.2393  0.1369  1.0609
12250SOL     OW47063   3.691   8.032   6.803  0.2245 -0.7804 -0.4282
12250SOL    HW147064   3.706   8.036   6.708  0.1744  0.9792 -0.4009
12250SOL    HW247065   3.623   7.966   6.814  1.2563 -2.0727 -1.4650
12251SOL     OW47066   6.523   0.832   4.056 -0.2539  0.5439  0.0470
12251SOL    HW147067   6.552   0.887   4.129  0.0152  1.2681 -0.5960
12251SOL    HW247068   6.603   0.800   4.015 -0.3963  0.6683 -0.3308
12252SOL     OW47069  12.491   0.205   9.987  0.4482  0.2138 -0.7254
12252SOL    HW147070  12.562   0.142   9.997  0.5833  0.1561 -1.8634
12252SOL    HW247071  12.411   0.153   9.998  0.5656 -0.0739 -1.1956
12253SOL     OW47072   3.306   3.394   4.676 -0.5278  0.4964 -0.5280
12253SOL    HW147073   3.248   3.397   4.599 -1.8010 -0.1389  0.3678
12253SOL    HW247074   3.265   3.454   4.739 -0.4521 -0.2749  0.2769
12254SOL     OW47075   4.947   7.225   2.856 -0.3048 -0.3811  0.3551
12254SOL    HW147076   4.944   7.291   2.925  0.6696 -0.8556  0.8833
12254SOL    HW247077   5.014   7.163   2.886  0.7948 -0.1182 -1.4351
12255SOL     OW47078  10.697   8.183   6.816  0.3820  0.1586  0.1154
12255SOL    HW147079  10.736   8.167   6.730  1.1409  2.1797  0.0177
12255SOL    HW247080  10.633   8.113   6.827  0.2705 -0.1647 -2.0942
12256SOL     OW47081   6.508   2.032   3.489  0.0433 -0.1724  0.1442
12256SOL    HW147082   6.597   2.067   3.486  0.2494 -0.7305 -0.7657
12256SOL    HW247083   6.519   1.941   3.517  0.0563 -1.0494 -2.4870
12257SOL     OW47084   7.909   5.785   4.287 -0.5522 -0.3548 -0.1254
12257SOL    HW147085   7.878   5.841   4.216  2.5219  3.0891  0.9339
12257SOL    HW247086   7.865   5.818   4.365 -0.7843 -1.3027  0.1529
12258SOL     OW47087   7.791   3.979   1.809  0.2225  0.2168  0.1126
12258SOL    HW147088   7.717   3.920   1.794  0.7151 -0.0200 -1.5145
12258SOL    HW247089   7.760   4.038   1.878 -1.0675 -0.5686  0.2486
12259SOL     OW47090   2.289   5.456   9.735  0.0472 -0.4033 -0.0790
12259SOL    HW147091   2.318   5.396   9.666 -0.2338 -0.8599  0.1983
12259SOL    HW247092   2.201   5.481   9.709  0.9502  1.6749 -1.3866
12260SOL     OW47093   5.702   1.395   2.615 -0.3036  0.2575 -0.3242
12260SOL    HW147094   5.635   1.335   2.581 -0.9170  1.0831 -0.6111
12260SOL    HW247095   5.748   1.345   2.682 -0.9579 -0.4537 -0.3957
12261SOL     OW47096   7.087   8.250   4.422  0.1631  0.1283 -0.7983
12261SOL    HW147097   7.111   8.158   4.414 -1.2322 -0.1616 -2.2288
12261SOL    HW247098   7.005   8.258   4.373 -1.3672  1.5423  1.7718
12262SOL     OW47099   7.358   5.422   1.889 -0.1206 -0.5371 -0.0260
12262SOL    HW147100   7.387   5.511   1.908 -0.7481 -0.4149  0.4046
12262SOL    HW247101   7.431   5.366   1.917 -0.4218 -0.2653  1.4101
12263SOL     OW47102   7.614   3.043   6.088  0.7666 -0.1953 -0.7677
12263SOL    HW147103   7.710   3.045   6.095  0.7131  2.6616  0.3835
12263SOL    HW247104   7.594   3.111   6.024 -0.5583  1.3929  1.2166
12264SOL     OW47105   3.631   4.623   4.716 -0.2396  0.5763  0.2416
12264SOL    HW147106   3.566   4.668   4.661 -0.0759 -0.5139 -0.8899
12264SOL    HW247107   3.605   4.531   4.714  0.1565  0.4214  1.4794
12265SOL     OW47108   7.197   5.751   6.785 -0.2131 -0.3569  0.0729
12265SOL    HW147109   7.130   5.819   6.795  0.3179  0.5219 -1.8828
12265SOL    HW247110   7.280   5.800   6.778  0.4427 -1.3373  0.7349
12266SOL     OW47111   0.455  12.877   2.479  0.6270 -0.3915 -0.3642
12266SOL    HW147112   0.495  12.960   2.505  0.5939 -0.9805  1.7626
12266SOL    HW247113   0.367  12.901   2.450  0.7088  0.3308 -0.0385
12267SOL     OW47114   5.051   6.575   5.053 -0.4666 -0.3484  1.0769
12267SOL    HW147115   5.108   6.572   4.976  0.2611  0.9073  1.5307
12267SOL    HW247116   5.103   6.623   5.119 -1.6024 -0.1899  1.8827
12268SOL     OW47117   8.188  10.274   6.835  0.2750  0.5396 -0.4614
12268SOL    HW147118   8.156  10.344   6.892 -0.5054  1.0092 -1.4352
12268SOL    HW247119   8.244  10.319   6.771  1.5480 -0.0515  0.2066
12269SOL     OW47120  11.088   5.536   3.250  0.0731 -0.1896  0.1813
12269SOL    HW147121  11.124   5.499   3.331 -0.9225 -0.2441  0.6178
12269SOL    HW247122  11.125   5.482   3.180  0.5858 -0.4292  0.6256
12270SOL     OW47123   0.519  12.870   6.399  0.0708 -0.4490  0.3477
12270SOL    HW147124   0.432  12.830   6.392  1.2275 -2.9484 -1.0482
12270SOL    HW247125   0.563  12.846   6.318  1.5546  2.2236  0.2551
12271SOL     OW47126   4.787  11.487  11.859 -0.6651 -0.7172  1.0536
12271SOL    HW147127   4.778  11.392  11.864  0.9717 -1.0451 -0.7915
12271SOL    HW247128   4.848  11.510  11.928  0.5746 -1.3385  0.2046
12272SOL     OW47129   4.447   4.476   6.271 -0.2441  0.4139  1.2066
12272SOL    HW147130   4.400   4.540   6.325 -3.4212  1.4569 -2.3730
12272SOL    HW247131   4.524   4.523   6.239 -0.9710  1.4807  0.9763
12273SOL     OW47132  10.548   5.912   8.503 -0.6234 -0.1090 -0.0632
12273SOL    HW147133  10.471   5.956   8.538 -0.6172  0.7021 -1.0368
12273SOL    HW247134  10.562   5.951   8.417  0.7589 -0.3749  0.0087
12274SOL     OW47135   8.571  12.066   4.463  0.4003 -0.1365  0.2425
12274SOL    HW147136   8.618  12.149   4.479  0.2020  0.0396 -0.0738
12274SOL    HW247137   8.481  12.086   4.486  0.5302 -0.5670  1.1456
12275SOL     OW47138  11.080   9.138   4.110  0.1377 -0.2640  0.0951
12275SOL    HW147139  11.076   9.220   4.060 -0.0385 -0.0857  0.3995
12275SOL    HW247140  11.151   9.089   4.070 -0.0799 -0.1710 -0.4135
12276SOL     OW47141   2.163   7.616   5.613  0.5681  0.5073  0.2970
12276SOL    HW147142   2.185   7.577   5.697  0.3737 -0.2093  0.0229
12276SOL    HW247143   2.070   7.636   5.620  0.2978 -0.5202 -0.1053
12277SOL     OW47144  10.903   2.558   0.532  0.0536  0.1534 -0.1531
12277SOL    HW147145  10.943   2.611   0.601 -0.9480 -0.2473  0.7600
12277SOL    HW247146  10.970   2.554   0.463  2.6513 -2.5134  2.2280
12278SOL     OW47147   3.691   0.035   5.728 -0.4246 -0.4632  0.8956
12278SOL    HW147148   3.751  -0.035   5.701 -0.0418  0.4296 -0.7002
12278SOL    HW247149   3.736   0.077   5.802 -0.3992 -1.5266  1.5097
12279SOL     OW47150   2.101  11.029   7.928  0.0927  0.4688  0.0124
12279SOL    HW147151   2.018  10.984   7.946  0.6904 -1.1256 -0.9567
12279SOL    HW247152   2.135  11.052   8.014 -1.2685  1.0012  0.4272
12280SOL     OW47153   1.346   9.886   1.875  0.1932  0.4126 -0.3497
12280SOL    HW147154   1.282   9.816   1.864 -1.2607  1.2993  1.8652
12280SOL    HW247155   1.354   9.926   1.788 -0.1995 -1.3863 -1.2598
12281SOL     OW47156   9.931   9.025   5.354  0.3522 -0.0848  0.3594
12281SOL    HW147157   9.968   9.082   5.287 -1.2845 -0.3777 -0.8363
12281SOL    HW247158   9.918   9.083   5.430 -0.3748  0.9177 -0.5091
12282SOL     OW47159  11.182   8.087   3.687  0.2856  0.3474 -0.3330
12282SOL    HW147160  11.158   8.132   3.768  2.0325 -1.5064  1.3276
12282SOL    HW247161  11.121   8.014   3.680  0.2458  0.4060 -0.6292
12283SOL     OW47162   2.906  10.177   6.406  0.2171 -0.1017  0.3178
12283SOL    HW147163   2.835  10.238   6.383 -0.0652 -0.1162  1.1148
12283SOL    HW247164   2.878  10.138   6.489  2.1003  1.4416  1.7943
12284SOL     OW47165   8.632  10.028   5.947 -0.2551 -0.0129  0.2439
12284SOL    HW147166   8.588   9.945   5.965 -0.1658  0.1004  1.0201
12284SOL    HW247167   8.569  10.077   5.894 -0.5211 -0.3779  0.2189
12285SOL     OW47168   8.474  12.935   4.371 -0.1585  0.0985 -0.4676
12285SOL    HW147169   8.566  12.909   4.362 -0.5814 -1.4411 -0.6675
12285SOL    HW247170   8.447  12.898   4.455 -0.7568  0.0476 -0.6785
12286SOL     OW47171   3.594   5.091   6.566  0.2836  0.2132  0.2473
12286SOL    HW147172   3.546   5.046   6.636 -1.1875 -1.8747 -1.9841
12286SOL    HW247173   3.601   5.182   6.597 -0.1897 -0.6319  3.1221
12287SOL     OW47174   6.053   6.279   3.810 -0.0067  0.2623 -0.2570
12287SOL    HW147175   6.077   6.297   3.901 -0.4837  0.0101 -0.0793
12287SOL    HW247176   6.015   6.360   3.778  0.4729  0.4595 -0.3409
12288SOL     OW47177  12.283   9.214   5.569 -0.1882 -0.1469  0.3673
12288SOL    HW147178  12.360   9.183   5.522 -0.0583  1.5211 -0.5951
12288SOL    HW247179  12.212   9.156   5.541  0.2824 -0.3257 -0.4745
12289SOL     OW47180  11.528   5.248  10.227  0.2695 -0.5130  0.0575
12289SOL    HW147181  11.509   5.241  10.133  0.0349  3.0594 -0.3241
12289SOL    HW247182  11.448   5.284  10.265  0.9535 -0.2524  1.3148
12290SOL     OW47183   7.385   5.065   1.506  0.2653  0.3101 -0.0088
12290SOL    HW147184   7.460   5.007   1.518 -0.6346 -0.7728  0.5227
12290SOL    HW247185   7.330   5.049   1.583 -1.7088 -0.7835 -1.5546
12291SOL     OW47186   8.460   7.698   5.808 -0.3143 -0.1219 -0.3175
12291SOL    HW147187   8.465   7.613   5.853  1.1686  0.2650  0.2867
12291SOL    HW247188   8.482   7.678   5.717 -0.8597 -0.5109 -0.3732
12292SOL     OW47189   5.616  10.652   1.339 -0.2086 -0.1835 -0.2783
12292SOL    HW147190   5.685  10.680   1.399 -0.9231 -0.2183  0.5936
12292SOL    HW247191   5.547  10.619   1.396 -1.1066  0.2026 -1.0960
12293SOL     OW47192   0.243  10.499   2.877 -0.3919  0.4402 -0.4148
12293SOL    HW147193   0.236  10.573   2.937  0.6990  0.8382 -0.7501
12293SOL    HW247194   0.153  10.480   2.852 -0.7192  1.4599 -0.0759
12294SOL     OW47195   9.277   2.098   9.289  0.0700  0.1997  0.9609
12294SOL    HW147196   9.365   2.132   9.304 -0.9734  3.5215  0.3075
12294SOL    HW247197   9.267   2.097   9.194 -1.5958  3.0025  1.0184
12295SOL     OW47198  10.438   4.990   6.113 -0.0034 -0.2972  0.0042
12295SOL    HW147199  10.380   5.029   6.048  0.7415  0.6000 -0.1401
12295SOL    HW247200  10.441   5.054   6.184  0.1139 -0.7396  0.4037
12296SOL     OW47201  12.416   3.084  12.430 -0.0645  0.3770 -0.2563
12296SOL    HW147202  12.367   3.023  12.375 -0.0041  1.9911 -2.1980
12296SOL    HW247203  12.444   3.153  12.370  1.6268  1.2741  1.4712
12297SOL     OW47204   7.626   6.333   6.048  0.0482 -0.0720 -0.0403
12297SOL    HW147205   7.588   6.274   6.113 -1.2526  0.7858  0.0074
12297SOL    HW247206   7.665   6.403   6.100 -2.3230  1.4240 -0.1378
12298SOL     OW47207   4.020   6.037  11.240 -0.4449 -0.2032  0.0910
12298SOL    HW147208   3.971   6.106  11.284 -0.3539 -1.9439  3.1909
12298SOL    HW247209   4.112   6.057  11.259 -0.2600  0.0159 -0.9603
12299SOL     OW47210   3.263   4.074  12.418  0.2645 -0.0489  0.1587
12299SOL    HW147211   3.233   4.108  12.502 -0.0701 -1.7052  0.7629
12299SOL    HW247212   3.184   4.041  12.375  0.5343  0.1009 -0.4703
12300SOL     OW47213   1.852   2.480   3.021 -0.4036  0.2387 -0.2282
12300SOL    HW147214   1.946   2.467   3.032 -0.2500 -1.1405 -2.5827
12300SOL    HW247215   1.815   2.461   3.107  1.1341 -3.0273 -0.1575
12301SOL     OW47216   8.449   1.747  12.279  0.3806  0.1473 -0.4331
12301SOL    HW147217   8.428   1.794  12.198  1.9508  0.6208 -0.5955
12301SOL    HW247218   8.412   1.660  12.266 -0.5706  0.6198 -1.0799
12302SOL     OW47219   0.395   1.666   2.301  0.2125 -0.0134 -0.1858
12302SOL    HW147220   0.465   1.709   2.350  1.3234  0.4070 -2.0702
12302SOL    HW247221   0.368   1.731   2.236 -2.0955 -0.0898  0.5862
12303SOL     OW47222   2.661   5.946   8.683  0.3525 -0.0570  0.1535
12303SOL    HW147223   2.653   5.868   8.739 -0.0983  0.4668  0.8438
12303SOL    HW247224   2.755   5.958   8.673  0.4311 -1.2536 -0.7871
12304SOL     OW47225   7.459   4.513   3.432  0.1901 -0.0916 -0.4466
12304SOL    HW147226   7.408   4.584   3.470 -0.7371 -1.1234  0.3155
12304SOL    HW247227   7.548   4.547   3.427 -0.0219  0.7355  0.9424
12305SOL     OW47228   4.998   9.449   2.914 -0.6607 -0.0560 -0.2101
12305SOL    HW147229   4.902   9.450   2.911 -0.6865 -0.9545 -0.0167
12305SOL    HW247230   5.022   9.364   2.878  0.0524  0.0621 -0.0220
12306SOL     OW47231  11.081   8.708  12.241  1.0713 -0.0951  0.3592
12306SOL    HW147232  11.025   8.777  12.205 -0.2705 -0.7156  1.1925
12306SOL    HW247233  11.156   8.706  12.181  0.7718  1.5315 -0.1398
12307SOL     OW47234  11.072   5.960  10.885 -0.7880 -0.1945  0.2455
12307SOL    HW147235  11.086   5.960  10.980  0.5379 -0.9620  0.0652
12307SOL    HW247236  10.984   5.925  10.875 -0.9970  0.0096  1.1958
12308SOL     OW47237   0.782   6.912  12.941  0.0792 -0.2373 -0.2072
12308SOL    HW147238   0.768   7.006  12.947 -0.5420 -0.3396  0.0172
12308SOL    HW247239   0.847   6.902  12.871  1.1438  0.4377  0.6397
12309SOL     OW47240   0.675  10.684   5.481  0.1144  0.0066  0.3795
12309SOL    HW147241   0.615  10.702   5.554  1.7770  0.7473  1.6228
12309SOL    HW247242   0.655  10.752   5.417  1.7737  2.4011  2.2030
12310SOL     OW47243   3.032  12.847   7.631  0.3801  0.7837  0.3333
12310SOL    HW147244   3.097  12.830   7.562 -0.1669  1.1358 -0.2858
12310SOL    HW247245   3.066  12.803   7.708  0.5830 -0.3693 -0.3877
12311SOL     OW47246   0.583   1.909  12.666 -0.0721 -0.1834  0.0783
12311SOL    HW147247   0.596   2.002  12.647  1.5412 -0.4040 -0.0104
12311SOL    HW247248   0.594   1.865  12.582  0.0808 -0.5385  0.2815
12312SOL     OW47249   6.139   9.176   1.658  0.4223 -0.1582  0.4024
12312SOL    HW147250   6.199   9.220   1.719  1.1008  1.0461 -1.0530
12312SOL    HW247251   6.195   9.153   1.583 -1.0794  2.1171 -1.5644
12313SOL     OW47252   6.770   5.036  12.254 -0.3463  0.4055  0.2693
12313SOL    HW147253   6.856   5.070  12.230 -0.5614  0.8216  0.0728
12313SOL    HW247254   6.709   5.106  12.231 -0.5760  0.8522  2.0619
12314SOL     OW47255  11.228   8.493   6.021  0.1754 -0.2047  0.1807
12314SOL    HW147256  11.301   8.537   5.977 -0.7886 -0.6220 -1.9923
12314SOL    HW247257  11.228   8.405   5.984 -2.8552  0.4710 -1.8636
12315SOL     OW47258   7.732   0.463  11.647 -0.0881  0.1016  0.2832
12315SOL    HW147259   7.797   0.398  11.620 -0.1025  0.4590 -0.6305
12315SOL    HW247260   7.749   0.539  11.592 -1.9213 -0.1510 -0.7210
12316SOL     OW47261  10.926   1.615   4.290 -0.2328  0.0996 -0.4729
12316SOL    HW147262  10.913   1.710   4.290  1.1045  0.3105 -0.2842
12316SOL    HW247263  10.974   1.598   4.209  0.0245 -0.3363 -0.2326
12317SOL     OW47264   1.274   9.309  10.466  0.1668 -0.2474  0.1843
12317SOL    HW147265   1.202   9.353  10.422 -1.0932 -0.9962  1.4266
12317SOL    HW247266   1.348   9.370  10.459 -0.3931  0.2872 -1.5997
12318SOL     OW47267  10.140   9.604   0.964 -0.0765 -0.1339 -0.1370
12318SOL    HW147268  10.060   9.657   0.962  0.0125  0.1605  1.7486
12318SOL    HW247269  10.185   9.633   1.043  0.5083 -2.2516  0.3726
12319SOL     OW47270   7.485  11.741  11.789 -0.1296 -0.0836  0.1463
12319SOL    HW147271   7.566  11.692  11.804 -0.8877 -0.7468  2.6616
12319SOL    HW247272   7.512  11.832  11.784  0.8607 -0.3590  0.2710
12320SOL     OW47273   4.894  11.131   8.107  0.0389 -0.0991  0.1431
12320SOL    HW147274   4.896  11.085   8.023 -1.1974  0.8248 -0.4302
12320SOL    HW247275   4.840  11.209   8.090  0.7317  0.7094  1.4959
12321SOL     OW47276  12.844   5.516   7.649 -0.1725  0.0919  0.2728
12321SOL    HW147277  12.933   5.497   7.676 -0.1331  0.0147  0.0900
12321SOL    HW247278  12.852   5.583   7.582 -0.2256 -0.1847 -0.0127
12322SOL     OW47279   3.740   3.296  12.197  0.0551  0.2388  0.5124
12322SOL    HW147280   3.737   3.284  12.102 -0.9501  1.8594  0.2973
12322SOL    HW247281   3.666   3.245  12.230 -0.4452  0.7837  0.2584
12323SOL     OW47282   8.794   8.973   5.858  0.8801 -0.4748  0.0327
12323SOL    HW147283   8.849   9.030   5.804  0.5544  0.4622  0.6621
12323SOL    HW247284   8.715   8.960   5.805 -0.1674  1.8163  0.8983
12324SOL     OW47285  12.386  10.228   2.318 -0.4144  0.7671 -0.3593
12324SOL    HW147286  12.300  10.269   2.309 -0.7079 -0.2484 -2.7205
12324SOL    HW247287  12.369  10.134   2.312  0.9875  0.5842 -2.9160
12325SOL     OW47288  10.255  12.312   3.442 -0.4754 -0.6591  0.3398
12325SOL    HW147289  10.310  12.389   3.454 -2.1956  0.8358 -0.7003
12325SOL    HW247290  10.283  12.251   3.509  2.2218  0.1023  0.0182
12326SOL     OW47291   5.859   1.041  12.583  0.7626 -0.2507 -0.1528
12326SOL    HW147292   5.815   1.076  12.505  0.7038  0.5122  0.2115
12326SOL    HW247293   5.867   0.947  12.566  1.3730  0.0016 -1.3871
12327SOL     OW47294   6.021   1.723   5.885 -0.6633 -0.3362  0.4391
12327SOL    HW147295   6.082   1.771   5.941 -1.8071  1.6566  0.0565
12327SOL    HW247296   6.047   1.745   5.796 -1.8764  0.5274  0.2714
12328SOL     OW47297  11.528   8.389   9.354 -0.3840  0.2191 -0.1842
12328SOL    HW147298  11.569   8.412   9.270 -0.4748  0.4891 -0.1559
12328SOL    HW247299  11.564   8.452   9.416  0.4910 -0.6428  0.1994
12329SOL     OW47300   8.535   4.473   3.829 -0.5188  0.4215  0.4696
12329SOL    HW147301   8.614   4.424   3.806 -1.2553 -0.0759 -1.1774
12329SOL    HW247302   8.496   4.425   3.901  1.5299  1.6299  2.4923
12330SOL     OW47303   9.395   6.562   8.752  0.0871 -0.1383  0.4533
12330SOL    HW147304   9.310   6.518   8.746 -0.1286  0.2893  0.3738
12330SOL    HW247305   9.457   6.491   8.771 -0.0483 -0.6838 -1.0302
12331SOL     OW47306  10.223   7.148   8.550  0.3132  0.2416  0.4863
12331SOL    HW147307  10.258   7.198   8.624 -0.2899 -0.1490  1.0494
12331SOL    HW247308  10.135   7.122   8.578 -0.5263  1.3859 -0.9912
12332SOL     OW47309   5.792   7.840   8.679 -0.3773 -0.2383  0.0130
12332SOL    HW147310   5.853   7.818   8.750 -1.0614 -0.9139  0.3969
12332SOL    HW247311   5.707   7.807   8.709 -1.5753  3.1540  0.7862
12333SOL     OW47312   4.424   8.833   0.403  0.7545 -0.0063  0.2507
12333SOL    HW147313   4.405   8.739   0.399  0.8210  0.0041 -0.4742
12333SOL    HW247314   4.339   8.875   0.413  0.5204 -0.0578 -1.1958
12334SOL     OW47315   6.153  12.076  11.006  0.1531  0.0789 -0.0628
12334SOL    HW147316   6.082  12.012  11.005 -0.5774  0.8704  0.2824
12334SOL    HW247317   6.123  12.145  11.064  1.3794  0.2494  0.3980
12335SOL     OW47318   6.661   3.605   6.652 -0.1170  0.1446  0.0286
12335SOL    HW147319   6.579   3.568   6.684  0.2470  0.5973  1.5439
12335SOL    HW247320   6.635   3.669   6.586 -0.9379 -0.1101  0.0994
12336SOL     OW47321   9.127  10.347   2.617  0.1759 -0.2692 -0.2294
12336SOL    HW147322   9.219  10.366   2.637  0.3985 -1.4258 -0.0969
12336SOL    HW247323   9.107  10.404   2.543  0.5230  1.1375  0.7161
12337SOL     OW47324  10.650   7.390   3.915  0.5183 -0.0005  0.2104
12337SOL    HW147325  10.739   7.391   3.879  0.2904 -2.6235 -0.6388
12337SOL    HW247326  10.626   7.483   3.920  1.9104  0.7076 -3.0988
12338SOL     OW47327   9.007   7.948  12.802 -0.1915  0.2865 -0.3039
12338SOL    HW147328   8.941   7.936  12.733 -4.0455  1.5489  2.7609
12338SOL    HW247329   9.054   8.027  12.776 -0.9788  0.2898 -1.8671
12339SOL     OW47330   6.533   5.134   7.273 -0.2727  0.0388 -0.3435
12339SOL    HW147331   6.458   5.099   7.321 -0.0636  0.0016 -0.0387
12339SOL    HW247332   6.596   5.062   7.271  0.8402  0.8799  1.7439
12340SOL     OW47333   2.033  10.358   4.214  0.8231 -0.2109 -0.2409
12340SOL    HW147334   2.087  10.293   4.170  1.1354 -0.4478  0.4765
12340SOL    HW247335   1.959  10.309   4.249  0.8807 -0.1281  0.0021
12341SOL     OW47336   9.949   3.926   2.467 -0.0340  1.0443  0.3961
12341SOL    HW147337   9.904   4.006   2.439 -0.5372  0.2433 -1.2384
12341SOL    HW247338   9.944   3.869   2.390  1.8860  0.1139  0.9200
12342SOL     OW47339   9.557   6.972   6.777 -0.3352  0.1087  0.2048
12342SOL    HW147340   9.640   7.017   6.765 -0.8950  1.3067  0.6790
12342SOL    HW247341   9.557   6.903   6.710  1.9166 -1.2772  1.4973
12343SOL     OW47342   1.163  11.605  10.363  0.0878 -0.2900  0.2866
12343SOL    HW147343   1.203  11.521  10.342 -0.4469  0.0891 -2.5192
12343SOL    HW247344   1.069  11.588  10.364 -0.0965  0.4455 -1.4357
12344SOL     OW47345  10.971   3.065   2.546 -0.3793  0.0498  0.5620
12344SOL    HW147346  11.031   3.005   2.589  1.3070  1.1369 -0.1355
12344SOL    HW247347  10.926   3.012   2.481 -0.1058 -0.7761  1.0339
12345SOL     OW47348  10.508   1.052  11.511  0.0803 -0.4833  0.0022
12345SOL    HW147349  10.455   1.095  11.444 -0.7909 -0.2813  0.7846
12345SOL    HW247350  10.471   1.084  11.594  2.1038  0.5134  0.6005
12346SOL     OW47351  11.064   9.233   3.692 -0.2641 -0.5296 -0.3340
12346SOL    HW147352  11.037   9.142   3.684 -0.0730 -0.6578  0.3989
12346SOL    HW247353  11.013   9.279   3.626  0.1538 -1.2702 -1.1940
12347SOL     OW47354  11.716   3.986  10.207  0.0019 -0.1163 -0.1549
12347SOL    HW147355  11.704   3.925  10.279 -2.6000 -1.1426 -1.3327
12347SOL    HW247356  11.665   4.064  10.232  1.0886  0.5233  0.1418
12348SOL     OW47357  10.462   1.788   2.589  0.1015 -0.2648 -0.3723
12348SOL    HW147358  10.448   1.694   2.573  0.8397 -0.6420  1.0731
12348SOL    HW247359  10.509   1.819   2.512  0.4742 -1.2386 -0.5474
12349SOL     OW47360   8.748   7.196   8.986 -0.4423  0.8395 -0.3882
12349SOL    HW147361   8.817   7.137   9.014 -0.6283  0.0392 -1.5233
12349SOL    HW247362   8.740   7.180   8.892 -1.0610  2.0916 -0.5700
12350SOL     OW47363   7.151   6.570   4.231  0.3376  0.1339  0.0872
12350SOL    HW147364   7.182   6.633   4.295 -0.4519  0.7503 -0.1145
12350SOL    HW247365   7.101   6.506   4.282 -1.4121  1.3388 -0.0051
12351SOL     OW47366   7.301  10.442   9.024  0.1823 -0.2636 -0.3436
12351SOL    HW147367   7.278  10.500   9.097  1.1193  0.0810 -0.3198
12351SOL    HW247368   7.232  10.457   8.959  0.0178  0.3243 -0.0392
12352SOL     OW47369  11.531   5.842   3.223 -0.4070 -0.1483 -0.0746
12352SOL    HW147370  11.539   5.823   3.129  2.8425 -0.8954  0.2256
12352SOL    HW247371  11.459   5.786   3.252 -1.0251 -0.4309 -1.9990
12353SOL     OW47372   5.881  10.300   5.274  0.0142 -0.8228 -0.4439
12353SOL    HW147373   5.975  10.303   5.257  0.1864 -0.3285  0.5406
12353SOL    HW247374   5.846  10.244   5.204  1.0369 -1.0594 -0.7868
12354SOL     OW47375   9.413  10.981  12.180  0.5062 -0.1511 -0.2640
12354SOL    HW147376   9.396  10.909  12.119  1.2844  1.2867 -2.2774
12354SOL    HW247377   9.422  10.939  12.265  0.3484 -2.3548 -1.2747
12355SOL     OW47378   9.302   1.045   5.132  0.5844  0.4807  0.6568
12355SOL    HW147379   9.343   1.057   5.217 -0.2486  3.5793  0.7378
12355SOL    HW247380   9.375   1.038   5.070  1.2087 -2.3905  1.5700
12356SOL     OW47381  12.386   2.813   0.640  0.0694  0.3952  0.6310
12356SOL    HW147382  12.367   2.906   0.657  0.3521  0.3646  1.1330
12356SOL    HW247383  12.419   2.780   0.724 -1.8927 -0.6540  1.0296
12357SOL     OW47384   7.855  11.712   9.073  0.3094  0.2101 -0.1004
12357SOL    HW147385   7.933  11.718   9.127  0.0721  0.0554  0.2642
12357SOL    HW247386   7.801  11.646   9.116  1.1295 -1.6718 -1.8187
12358SOL     OW47387   4.624   7.552   7.207 -0.0262  0.1724  0.2364
12358SOL    HW147388   4.633   7.535   7.113  1.2124  0.3427  0.3111
12358SOL    HW247389   4.535   7.522   7.228 -0.8544  1.4413 -1.2639
12359SOL     OW47390   2.758  11.891   7.432 -0.2141  0.1431 -0.0011
12359SOL    HW147391   2.761  11.834   7.355 -1.9298 -0.8990  0.6585
12359SOL    HW247392   2.816  11.965   7.409 -0.1230 -0.4804 -1.9811
12360SOL     OW47393   3.103   1.695  10.986 -0.1788  0.0315  0.1553
12360SOL    HW147394   3.040   1.684  10.914 -1.9168  1.1365  1.4106
12360SOL    HW247395   3.146   1.778  10.967  1.0907 -0.8254 -0.8132
12361SOL     OW47396   2.827   7.664  10.474 -0.9797  0.0020  0.0907
12361SOL    HW147397   2.744   7.671  10.521 -0.4330  3.2872  0.8095
12361SOL    HW247398   2.804   7.676  10.382 -1.5116 -1.5259  0.0014
12362SOL     OW47399   9.539   8.468   9.384 -0.1423 -0.3071 -0.0653
12362SOL    HW147400   9.553   8.562   9.394 -2.5078  0.0793  0.1691
12362SOL    HW247401   9.459   8.450   9.433 -0.3806 -2.2315 -1.0473
12363SOL     OW47402  11.756   6.732  12.217  0.0870 -0.6112  0.3900
12363SOL    HW147403  11.837   6.711  12.263 -0.5840 -1.3203  1.2923
12363SOL    HW247404  11.735   6.653  12.168 -0.6386 -0.8545  1.0652
12364SOL     OW47405  12.030   7.109   8.685  0.4694 -0.0706  0.2618
12364SOL    HW147406  12.072   7.062   8.613  1.0690  0.3963  0.3020
12364SOL    HW247407  12.098   7.116   8.752 -0.0877 -0.5034  0.8793
12365SOL     OW47408   4.837  11.419   1.096  0.1456  0.1982  0.1430
12365SOL    HW147409   4.859  11.471   1.174 -1.5018  0.9701  0.1368
12365SOL    HW247410   4.766  11.362   1.125 -0.0555  0.0521 -0.6313
12366SOL     OW47411   9.563  11.358   7.399 -0.0886  0.0431  0.1119
12366SOL    HW147412   9.486  11.367   7.455  0.9006  0.0378  1.5110
12366SOL    HW247413   9.567  11.441   7.352 -1.3280 -0.2163 -0.5087
12367SOL     OW47414   5.892   1.154  11.431 -0.0777 -0.7728  0.1984
12367SOL    HW147415   5.883   1.246  11.458  0.7165 -0.5228 -0.3377
12367SOL    HW247416   5.940   1.113  11.503  0.7262 -0.4513 -0.1381
12368SOL     OW47417   3.992   8.758   2.080 -0.4365 -0.0020 -0.1251
12368SOL    HW147418   3.932   8.684   2.093 -0.4604 -0.0193 -0.3385
12368SOL    HW247419   4.064   8.742   2.141  0.3608 -1.0411 -1.3129
12369SOL     OW47420   5.791   4.016   3.744  0.0788 -0.2012  0.0296
12369SOL    HW147421   5.804   3.930   3.784  1.0368 -0.7928 -1.4669
12369SOL    HW247422   5.739   3.998   3.666  0.1283  0.6143 -0.1997
12370SOL     OW47423  11.000   3.160   6.972  0.0165 -0.5930  0.5807
12370SOL    HW147424  11.065   3.224   6.942 -0.3514 -0.1136  0.7877
12370SOL    HW247425  11.009   3.086   6.912  0.3040 -0.2565  0.2056
12371SOL     OW47426   1.280   0.764   5.815 -0.0310 -0.0792  0.3176
12371SOL    HW147427   1.245   0.705   5.881  2.6824  0.4971  2.4556
12371SOL    HW247428   1.258   0.852   5.848 -1.2595  0.2312 -1.1881
12372SOL     OW47429   7.683   4.344   1.328 -0.0701  0.3091 -0.3062
12372SOL    HW147430   7.660   4.362   1.237 -0.4057 -1.3044 -0.5802
12372SOL    HW247431   7.698   4.249   1.330  1.7916  0.5882  0.9172
12373SOL     OW47432  10.815   9.131   1.558  0.5317 -0.1221  0.1115
12373SOL    HW147433  10.868   9.077   1.499 -0.2606 -1.7062  0.7945
12373SOL    HW247434  10.788   9.205   1.505  1.1055 -0.7175 -1.0572
12374SOL     OW47435   1.711   4.307   9.061  0.4806 -0.1469 -0.2467
12374SOL    HW147436   1.695   4.220   9.099 -1.3107 -0.7773 -2.1816
12374SOL    HW247437   1.712   4.366   9.136  0.0994 -1.6398  1.0032
12375SOL     OW47438  12.868   7.555  11.705  0.0533 -0.0301 -0.1524
12375SOL    HW147439  12.939   7.619  11.700  1.0206 -0.7769  2.4470
12375SOL    HW247440  12.795   7.598  11.661  2.2656  0.3521 -3.9221
12376SOL     OW47441   8.625  12.598   5.071  0.3620  0.0495 -0.1085
12376SOL    HW147442   8.555  12.583   5.008 -0.8936  0.2876  1.1896
12376SOL    HW247443   8.706  12.582   5.021 -0.4618  2.0947 -2.3349
12377SOL     OW47444   0.274  11.471   3.636  0.2149 -0.5015  0.2823
12377SOL    HW147445   0.330  11.477   3.713 -0.4675  0.5520  0.7213
12377SOL    HW247446   0.197  11.524   3.658  0.7220  1.2135 -1.7206
12378SOL     OW47447   0.204  11.259   8.071 -0.9025  0.0364  0.0404
12378SOL    HW147448   0.200  11.256   7.976 -2.0230  3.1110 -0.1080
12378SOL    HW247449   0.297  11.266   8.092 -0.7348  0.6763 -0.8958
12379SOL     OW47450   8.246   0.049  12.295  0.2336 -0.1845 -0.2512
12379SOL    HW147451   8.222   0.108  12.367  0.6567  2.2935 -1.9899
12379SOL    HW247452   8.173   0.056  12.234  0.9364 -0.3356 -1.1205
12380SOL     OW47453   1.203   1.384  12.058  0.0044 -0.3294  1.5446
12380SOL    HW147454   1.283   1.416  12.099  0.9951 -0.1555 -0.3712
12380SOL    HW247455   1.182   1.303  12.104  1.4452 -0.5100  1.9241
12381SOL     OW47456   9.567   1.888   9.137  0.1587  0.2242 -0.0980
12381SOL    HW147457   9.575   1.959   9.074 -1.0456  1.7397  1.3771
12381SOL    HW247458   9.654   1.850   9.142  0.8974  1.7683 -0.7582
12382SOL     OW47459   2.527   7.186  11.323  0.1741 -0.2395  0.3484
12382SOL    HW147460   2.450   7.157  11.371 -1.4469  2.8856 -0.1300
12382SOL    HW247461   2.571   7.248  11.382  0.9805 -0.1661 -0.3028
12383SOL     OW47462   6.137   6.905   6.618 -0.7571 -0.4142  0.2429
12383SOL    HW147463   6.227   6.872   6.611 -1.1408 -1.6098  0.7521
12383SOL    HW247464   6.118   6.938   6.530 -0.3550 -1.6002 -0.3128
12384SOL     OW47465   1.019   0.629   5.483  0.3126 -0.3387 -0.3179
12384SOL    HW147466   1.015   0.646   5.389  1.4927 -2.2089 -0.7560
12384SOL    HW247467   1.081   0.693   5.516  0.0284  0.2125 -0.8302
12385SOL     OW47468   3.265   4.275  11.522 -0.3897  0.4468  0.2896
12385SOL    HW147469   3.348   4.292  11.476 -0.2583  0.6280  0.5913
12385SOL    HW247470   3.284   4.296  11.613 -0.9002  0.9109  0.2911
12386SOL     OW47471   1.789   8.981   1.728  0.1607  0.7411  0.1105
12386SOL    HW147472   1.863   9.027   1.690 -0.2823  1.4861  0.1363
12386SOL    HW247473   1.723   9.049   1.742 -0.3570  0.1652  0.5069
12387SOL     OW47474   4.360  12.810   3.863  0.6725  0.2354 -0.0468
12387SOL    HW147475   4.420  12.834   3.934  0.0634  0.0077  0.5534
12387SOL    HW247476   4.312  12.890   3.844  1.5949  0.5874 -0.9662
12388SOL     OW47477   0.763   2.488  12.798 -0.1359  0.4287  0.6689
12388SOL    HW147478   0.682   2.451  12.833  0.1878  0.1003  1.0753
12388SOL    HW247479   0.733   2.555  12.736 -0.8703 -2.6474 -2.6341
12389SOL     OW47480   4.702   8.406   8.740 -0.6525  0.0954  0.8661
12389SOL    HW147481   4.721   8.392   8.833  1.7215  0.1111  0.4491
12389SOL    HW247482   4.769   8.356   8.695 -2.5136 -0.9383 -0.9084
12390SOL     OW47483   7.901   8.430   2.341 -0.0453 -0.4949  0.0073
12390SOL    HW147484   7.849   8.498   2.297  0.0132 -0.6978 -0.3770
12390SOL    HW247485   7.908   8.461   2.432 -1.8115 -1.0110  0.3715
12391SOL     OW47486   9.071  10.751   7.995 -0.2819 -0.0937  0.5174
12391SOL    HW147487   9.071  10.660   8.025 -1.7470 -1.0716 -2.1123
12391SOL    HW247488   9.158  10.763   7.956  0.2046 -0.0672  1.5707
12392SOL     OW47489   4.281   1.786   3.866 -0.1163 -0.0700  0.0875
12392SOL    HW147490   4.235   1.727   3.926 -0.6248 -0.2646 -0.4779
12392SOL    HW247491   4.367   1.746   3.854 -0.3072 -0.4731  0.0390
12393SOL     OW47492   7.500  10.117   3.931 -0.1304 -0.0799  0.0448
12393SOL    HW147493   7.459  10.098   4.015 -0.1967  1.0090  0.2703
12393SOL    HW247494   7.567  10.049   3.921 -0.8702 -0.8713  0.4487
12394SOL     OW47495   4.619   4.183   8.795  0.3095  0.1320 -0.3430
12394SOL    HW147496   4.689   4.245   8.814  1.3390 -0.6353 -1.4621
12394SOL    HW247497   4.648   4.137   8.717 -0.0501 -2.2760  0.8465
12395SOL     OW47498  12.380   1.709   7.777  0.3177 -0.5034 -0.1939
12395SOL    HW147499  12.449   1.669   7.829  0.4039  0.5239  0.5129
12395SOL    HW247500  12.381   1.661   7.695  0.5947 -1.7536  0.5169
12396SOL     OW47501   5.290   9.848  11.929 -0.1423  0.0825  0.2319
12396SOL    HW147502   5.297   9.754  11.914 -0.2294 -0.1942  1.7493
12396SOL    HW247503   5.308   9.887  11.844 -0.2536 -1.3049 -0.4646
12397SOL     OW47504  12.548   6.862  12.736  0.2355  0.1739 -0.0453
12397SOL    HW147505  12.555   6.943  12.785  3.4804  0.3063 -0.5051
12397SOL    HW247506  12.538   6.794  12.802  1.5313  0.6274  0.6477
12398SOL     OW47507   8.547   1.271  12.749 -0.3921  0.1130 -0.7039
12398SOL    HW147508   8.551   1.212  12.674 -0.4684 -0.5030 -0.2304
12398SOL    HW247509   8.638   1.299  12.762 -0.3716  0.1852 -0.9932
12399SOL     OW47510  11.090   2.640   3.366  0.2729 -0.0165 -0.0475
12399SOL    HW147511  11.159   2.634   3.432 -1.2431 -0.7549  1.5418
12399SOL    HW247512  11.057   2.550   3.358 -0.2735  0.2597 -1.0569
12400SOL     OW47513   7.328   0.409   4.452 -0.0499  0.3130 -0.2645
12400SOL    HW147514   7.261   0.446   4.395  0.9961 -1.3913 -2.7923
12400SOL    HW247515   7.327   0.315   4.433  1.7900 -0.0263  0.9891
12401SOL     OW47516   9.958   4.299   5.765 -0.1109  0.4923  0.6577
12401SOL    HW147517   9.896   4.270   5.832 -1.0042  1.3479  0.2434
12401SOL    HW247518   9.913   4.371   5.721  1.0984  0.9753  0.1670
12402SOL     OW47519  10.896  11.912   8.673  0.1270  0.7214 -0.0259
12402SOL    HW147520  10.815  11.864   8.691  0.5396  0.2320  0.5721
12402SOL    HW247521  10.899  11.980   8.740  1.7450 -1.2007  2.0421
12403SOL     OW47522   9.457  11.335   9.776 -0.2466  0.2049  0.1608
12403SOL    HW147523   9.465  11.405   9.841  0.7558  0.1589  0.1025
12403SOL    HW247524   9.546  11.305   9.761 -0.1995  1.4373 -2.5893
12404SOL     OW47525  11.206   3.865   4.923  0.2114 -0.1375 -0.0233
12404SOL    HW147526  11.266   3.800   4.960  0.3684 -0.8558 -1.4596
12404SOL    HW247527  11.122   3.847   4.966  0.2222 -1.3957 -0.4772
12405SOL     OW47528  12.655   1.498   0.603  0.1067 -0.1186  0.4120
12405SOL    HW147529  12.599   1.466   0.533  0.5503 -1.9463  0.8410
12405SOL    HW247530  12.668   1.422   0.660  2.4938  0.3784  0.6527
12406SOL     OW47531  11.022   4.298   2.528  0.1756 -0.1099 -0.1295
12406SOL    HW147532  11.035   4.279   2.621  0.3832 -0.5413 -0.2459
12406SOL    HW247533  10.938   4.344   2.524 -0.8232 -1.8139  0.0626
12407SOL     OW47534  11.064   2.647   3.082  0.7257  0.5155 -0.0885
12407SOL    HW147535  11.062   2.691   3.167  0.7352  1.8966 -0.7658
12407SOL    HW247536  11.102   2.712   3.023  0.2867 -0.2436 -1.2389
12408SOL     OW47537  11.627  11.230   2.598  0.3350  0.1270  0.5109
12408SOL    HW147538  11.557  11.184   2.552  0.9778  1.1834 -1.6937
12408SOL    HW247539  11.680  11.160   2.637  0.4103 -0.9802 -1.4169
12409SOL     OW47540   4.761  11.387  10.601  0.0145  0.1537  0.3290
12409SOL    HW147541   4.701  11.340  10.543  1.3633 -2.4177  0.8824
12409SOL    HW247542   4.827  11.424  10.542 -1.2268  1.7317 -0.1386
12410SOL     OW47543  12.172   4.525   8.973 -0.2411  0.1028  0.3203
12410SOL    HW147544  12.256   4.482   8.988  1.7566  2.8559 -1.8262
12410SOL    HW247545  12.133   4.476   8.901 -0.0168 -0.5973  0.6648
12411SOL     OW47546   7.352  11.852   8.064 -0.4572 -0.5043 -0.6882
12411SOL    HW147547   7.260  11.841   8.039 -0.5182 -1.1771 -0.1818
12411SOL    HW247548   7.361  11.801   8.144  0.5774 -1.1553 -1.2073
12412SOL     OW47549  10.600   8.843   8.205 -0.5435 -0.0358  0.3500
12412SOL    HW147550  10.666   8.863   8.270 -0.8627  2.7272 -0.0247
12412SOL    HW247551  10.533   8.793   8.252  0.4239 -0.3350  1.4420
12413SOL     OW47552   3.982   6.020   1.157  0.1559 -0.0339 -0.1025
12413SOL    HW147553   4.020   5.961   1.222  0.9683  3.1720  2.6507
12413SOL    HW247554   4.056   6.075   1.129 -1.2604  2.7250  1.1601
12414SOL     OW47555  10.819   5.862  10.846 -0.1181  0.0562 -0.1341
12414SOL    HW147556  10.738   5.815  10.866 -0.8266  1.8953  1.5790
12414SOL    HW247557  10.791   5.939  10.797  0.7508  0.0318 -0.6947
12415SOL     OW47558  10.469   2.335  12.727 -0.2327 -0.4652 -0.0923
12415SOL    HW147559  10.477   2.249  12.684 -0.9423 -0.5963  0.0224
12415SOL    HW247560  10.412   2.385  12.669  0.3551  0.0178 -0.2727
12416SOL     OW47561  12.041   6.769   1.405 -0.3308  0.1473 -0.2262
12416SOL    HW147562  12.030   6.744   1.497  1.5441  2.7033  0.8178
12416SOL    HW247563  11.953   6.767   1.369 -1.2837  0.0760  1.9308
12417SOL     OW47564   4.513   1.767   2.953  0.0321 -0.5881  0.2029
12417SOL    HW147565   4.455   1.815   3.011 -1.2101 -1.4995 -0.2475
12417SOL    HW247566   4.493   1.675   2.968 -0.7362 -0.8567 -2.0179
12418SOL     OW47567   4.710  12.817   6.244  0.5018 -0.7100 -0.3881
12418SOL    HW147568   4.789  12.798   6.194  0.2096 -0.8663 -0.7965
12418SOL    HW247569   4.661  12.878   6.190  0.2129 -0.8296 -0.2659
12419SOL     OW47570   9.861   2.532   9.143  0.3292  0.3116 -0.4423
12419SOL    HW147571   9.786   2.474   9.134  0.5694 -0.0218 -0.2959
12419SOL    HW247572   9.900   2.509   9.228 -0.1070  1.3055  0.0462
12420SOL     OW47573   2.591   1.606   4.908  0.2437 -0.0380  0.4744
12420SOL    HW147574   2.604   1.689   4.863  2.2226 -0.5331  0.0370
12420SOL    HW247575   2.654   1.609   4.981  1.6493 -1.8464 -0.5936
12421SOL     OW47576  10.805  12.084   0.936 -0.0817  0.3928 -0.3681
12421SOL    HW147577  10.792  12.033   0.856  0.9532  1.5011 -1.2837
12421SOL    HW247578  10.885  12.048   0.975 -0.0928  0.4381 -0.3026
12422SOL     OW47579   6.607   8.692   3.153  0.1632 -0.1617  0.2477
12422SOL    HW147580   6.517   8.697   3.122  0.3251  1.5649 -0.0539
12422SOL    HW247581   6.646   8.776   3.126  0.9363  0.5250  3.1908
12423SOL     OW47582   1.194  10.677   7.998  0.1145  0.3766  0.5606
12423SOL    HW147583   1.214  10.767   7.971  1.0973  0.5451  1.7513
12423SOL    HW247584   1.271  10.627   7.970 -0.7626 -0.2686 -0.7925
12424SOL     OW47585   2.094  10.987   2.732  0.5293 -0.2785  0.1668
12424SOL    HW147586   2.065  11.021   2.817 -3.1746 -1.9828 -0.1977
12424SOL    HW247587   2.186  10.965   2.745  0.5463  1.0343  3.2037
12425SOL     OW47588   7.925   1.547   5.866  0.1937  0.8725  0.2848
12425SOL    HW147589   7.966   1.620   5.819  1.5144 -0.7352 -1.1646
12425SOL    HW247590   7.860   1.513   5.805 -1.0798  1.3639  1.3223
12426SOL     OW47591   9.184   6.672  10.425 -0.4041  0.0918 -0.6358
12426SOL    HW147592   9.215   6.632  10.506 -1.0813 -1.0378 -0.9123
12426SOL    HW247593   9.106   6.720  10.450  0.1118  0.8116 -0.3958
12427SOL     OW47594   4.161   5.271   1.355 -0.5346 -0.6632 -0.2195
12427SOL    HW147595   4.158   5.200   1.419  0.9103 -0.4098  0.1763
12427SOL    HW247596   4.240   5.252   1.303  0.1195  0.8561  0.1691
12428SOL     OW47597   5.708   1.856   7.829 -0.2028 -0.2112 -0.4477
12428SOL    HW147598   5.730   1.895   7.913  0.7790  0.1853 -0.8774
12428SOL    HW247599   5.736   1.764   7.837 -1.4653 -0.5617  0.1594
12429SOL     OW47600   8.732   7.253   3.144 -0.1669  0.3440 -0.4826
12429SOL    HW147601   8.684   7.199   3.081 -0.6965  1.6649 -1.2600
12429SOL    HW247602   8.744   7.337   3.099  2.3832  0.2607 -0.0898
12430SOL     OW47603   0.757  11.172   8.830 -0.3697 -0.0792 -0.3287
12430SOL    HW147604   0.809  11.213   8.899  1.2700  1.5908 -2.4063
12430SOL    HW247605   0.667  11.175   8.863  0.5447 -1.4902  2.6516
12431SOL     OW47606   2.616   6.994   3.959 -0.5636 -0.2380 -0.2762
12431SOL    HW147607   2.553   7.042   4.013 -2.9555 -2.4648 -0.8894
12431SOL    HW247608   2.633   6.914   4.008  0.3661 -0.5061 -1.0108
12432SOL     OW47609   6.125   9.811   0.841  0.5559  0.0199 -0.4089
12432SOL    HW147610   6.161   9.745   0.783  0.3224 -1.2006  0.7945
12432SOL    HW247611   6.059   9.856   0.788 -0.1360 -1.5176 -0.8911
12433SOL     OW47612   1.834   2.442   9.142 -0.3122 -0.2750  0.2104
12433SOL    HW147613   1.891   2.422   9.068  0.5527  0.1015  0.7661
12433SOL    HW247614   1.890   2.433   9.219 -0.7403  1.0732  0.7046
12434SOL     OW47615  12.591  11.867   9.468  0.2199 -0.0631  0.2474
12434SOL    HW147616  12.502  11.869   9.501 -0.1348 -1.2223 -0.5929
12434SOL    HW247617  12.605  11.954   9.431 -0.3553  0.3033  0.8831
12435SOL     OW47618   6.880  10.210   6.240  0.1203 -0.2916  0.3971
12435SOL    HW147619   6.812  10.187   6.177  0.4892  0.0561 -0.1350
12435SOL    HW247620   6.835  10.212   6.324 -0.7833  1.0766 -0.0852
12436SOL     OW47621   6.152   4.141   6.315 -0.3290 -0.0786  0.2047
12436SOL    HW147622   6.100   4.061   6.317 -1.4469  0.6277  0.1078
12436SOL    HW247623   6.122   4.191   6.391  0.5768  0.1298  0.4379
12437SOL     OW47624  12.140  10.246  12.193  0.1135 -0.3139 -0.6059
12437SOL    HW147625  12.176  10.321  12.240 -0.2290  0.0235 -0.8799
12437SOL    HW247626  12.130  10.277  12.103 -0.5763 -0.4971 -0.5980
12438SOL     OW47627   1.871  11.701  10.040 -0.0299 -0.4667  0.1592
12438SOL    HW147628   1.843  11.645  10.113 -0.6477  0.5538  0.7401
12438SOL    HW247629   1.853  11.649   9.962  1.6873 -2.0363  0.7369
12439SOL     OW47630   2.921   3.165   2.760  0.3073 -0.0629 -0.1768
12439SOL    HW147631   2.973   3.085   2.767  1.2358  0.3696 -1.6450
12439SOL    HW247632   2.831   3.134   2.752  0.7169 -1.0216 -1.4207
12440SOL     OW47633   8.896   1.730   3.180 -0.4315 -0.4393  0.0155
12440SOL    HW147634   8.853   1.784   3.114  0.8702  2.2871  1.2607
12440SOL    HW247635   8.829   1.668   3.208 -1.5735 -0.4594 -2.4826
12441SOL     OW47636   1.924   2.100   2.485  0.0007  0.2001  0.2820
12441SOL    HW147637   1.948   2.069   2.397  1.4435 -1.1412  1.1092
12441SOL    HW247638   1.833   2.127   2.476  0.8172  2.5773 -2.2510
12442SOL     OW47639   0.667   9.507   1.995  0.1979 -0.0592 -0.0190
12442SOL    HW147640   0.586   9.555   2.011  0.4459  0.8033 -1.1327
12442SOL    HW247641   0.675   9.446   2.068 -0.8018  0.7176  0.7635
12443SOL     OW47642   0.955   7.467   9.534  0.2030  0.1789 -0.2814
12443SOL    HW147643   1.049   7.480   9.526  0.4917 -0.5106  1.4096
12443SOL    HW247644   0.928   7.528   9.603  0.0439 -1.8367  1.5566
12444SOL     OW47645   2.230   0.020  11.899 -0.0060  0.1028  0.3987
12444SOL    HW147646   2.171   0.091  11.872  1.0223  0.6463 -0.4865
12444SOL    HW247647   2.251  -0.026  11.818 -0.0921 -0.7882  0.8661
12445SOL     OW47648   4.914   0.186   4.165 -0.5170  0.0346  0.5118
12445SOL    HW147649   4.933   0.103   4.210 -0.6700 -0.1466  0.2438
12445SOL    HW247650   4.974   0.249   4.206 -0.5016 -0.1749  0.8192
12446SOL     OW47651  10.793  12.873   6.853  0.1401 -0.3426  0.0678
12446SOL    HW147652  10.862  12.823   6.810  0.7915  0.8893 -0.3772
12446SOL    HW247653  10.717  12.864   6.796  0.9069  1.0173 -1.2338
12447SOL     OW47654   3.359  11.472   3.377 -0.0850  0.0185 -0.1916
12447SOL    HW147655   3.399  11.395   3.419 -0.8015  0.3010  1.0561
12447SOL    HW247656   3.396  11.547   3.424 -1.0721  0.3360  0.1035
12448SOL     OW47657   7.679   0.699   9.912 -0.1836 -0.2670 -0.3095
12448SOL    HW147658   7.614   0.769   9.916 -0.0701 -0.1823  0.1166
12448SOL    HW247659   7.648   0.641   9.843  0.1663  0.6479 -1.2602
12449SOL     OW47660   9.474   2.189   4.181 -0.0215 -0.2755 -0.0328
12449SOL    HW147661   9.468   2.280   4.155 -0.1417 -0.3522 -0.2673
12449SOL    HW247662   9.537   2.150   4.120  0.4168 -0.2349  0.3775
12450SOL     OW47663   1.958   4.167   0.171 -0.3742  0.6521 -0.5209
12450SOL    HW147664   1.969   4.140   0.262 -1.3595 -1.4890 -0.9773
12450SOL    HW247665   1.996   4.256   0.168  1.4902  0.0318  1.4965
12451SOL     OW47666   8.344   1.429   6.914 -0.0858 -0.2686  0.0646
12451SOL    HW147667   8.416   1.447   6.853 -0.7254  0.7876 -0.3925
12451SOL    HW247668   8.384   1.437   7.001  0.6745 -1.1175 -0.1873
12452SOL     OW47669   5.628   6.823   4.136  0.0536  0.2258  0.0825
12452SOL    HW147670   5.657   6.775   4.214  1.1951 -2.1255 -1.6312
12452SOL    HW247671   5.538   6.847   4.155  0.5138  0.3622  2.3866
12453SOL     OW47672   4.416   2.208   0.586  0.2978 -0.1836  0.5084
12453SOL    HW147673   4.414   2.253   0.502  0.2721 -2.2074 -0.6521
12453SOL    HW247674   4.507   2.216   0.615  0.5445 -0.2935 -0.2060
12454SOL     OW47675   6.274   2.963   7.087  0.0039  0.5235  0.1906
12454SOL    HW147676   6.325   3.035   7.049  4.4165 -1.6850  1.3002
12454SOL    HW247677   6.219   2.933   7.015  2.0015  1.6553 -1.9407
12455SOL     OW47678   5.977   8.166   3.802  0.0467 -0.4068  0.2003
12455SOL    HW147679   5.996   8.254   3.836  0.1065 -0.7653  1.0988
12455SOL    HW247680   5.946   8.182   3.712  2.1574  0.3815 -0.4433
12456SOL     OW47681  11.308   4.206   6.252 -0.2453  0.3267 -0.0648
12456SOL    HW147682  11.332   4.245   6.168  1.0068 -2.3230 -1.0585
12456SOL    HW247683  11.223   4.165   6.236  0.2530 -0.6629 -0.2489
12457SOL     OW47684   3.249  11.699   2.508 -0.1726 -0.4830  0.5315
12457SOL    HW147685   3.175  11.654   2.467  0.3478 -0.6167 -0.2897
12457SOL    HW247686   3.273  11.644   2.582 -0.7575 -0.5513  0.6741
12458SOL     OW47687   2.401  10.483   8.482 -0.1218  0.2039  0.0424
12458SOL    HW147688   2.328  10.546   8.482  0.1288  0.5388  1.5574
12458SOL    HW247689   2.460  10.515   8.414 -0.6110  0.8723 -0.0847
12459SOL     OW47690   9.560   2.528   7.775  0.0787 -0.7342 -0.1762
12459SOL    HW147691   9.554   2.508   7.868 -0.1510  0.0650 -0.0125
12459SOL    HW247692   9.603   2.613   7.771 -0.6609 -0.3721 -0.7507
12460SOL     OW47693   9.213   5.297   3.527  0.5498 -0.1736  0.3162
12460SOL    HW147694   9.258   5.213   3.535 -1.4871 -1.3492  0.2468
12460SOL    HW247695   9.227   5.323   3.436  0.0486 -1.1852 -0.0769
12461SOL     OW47696   7.040   8.065   5.970  0.0880  0.0347  0.4826
12461SOL    HW147697   6.997   8.109   5.896 -0.5300  0.3272  1.0029
12461SOL    HW247698   6.972   8.061   6.038  0.8288  0.3414  1.2579
12462SOL     OW47699   7.654  12.013   3.795  0.0241  0.3798 -0.1144
12462SOL    HW147700   7.657  12.086   3.857 -2.4775  0.7661 -0.3584
12462SOL    HW247701   7.655  11.935   3.851  0.3717  0.6587  0.2750
12463SOL     OW47702   4.570   7.065   9.841  0.2844 -0.2344  0.0940
12463SOL    HW147703   4.586   7.120   9.918 -0.7899 -1.6687  1.4340
12463SOL    HW247704   4.654   7.024   9.822  1.0630  1.6712 -0.8301
12464SOL     OW47705   4.688   3.503   3.554 -0.0017 -0.1313  0.0238
12464SOL    HW147706   4.616   3.542   3.604 -0.3326  0.3510 -0.8062
12464SOL    HW247707   4.672   3.409   3.557 -0.3198 -0.0680  0.3585
12465SOL     OW47708   2.483  11.622   6.453 -0.0603  0.0877 -0.2002
12465SOL    HW147709   2.400  11.671   6.452 -0.3913 -0.4053 -2.5349
12465SOL    HW247710   2.548  11.686   6.481 -1.0743  0.7451  0.7363
12466SOL     OW47711  11.415   9.078  12.074  0.2703  0.2292 -0.2207
12466SOL    HW147712  11.324   9.105  12.065  0.6607  1.4505 -0.6958
12466SOL    HW247713  11.433   9.027  11.995  0.4524  1.3525 -0.9153
12467SOL     OW47714   3.361   1.058   5.960  0.1129 -0.3500  0.0910
12467SOL    HW147715   3.355   0.964   5.977 -2.0884  0.0351  1.9347
12467SOL    HW247716   3.412   1.065   5.879  4.4349 -2.8634  2.2273
12468SOL     OW47717   9.302   2.081   1.841 -0.0691  0.0790 -0.0012
12468SOL    HW147718   9.361   2.082   1.766 -1.2393  1.6013 -0.9637
12468SOL    HW247719   9.353   2.119   1.912  0.3842  0.6374 -0.6129
12469SOL     OW47720   6.848   2.928   1.205 -0.3633 -0.3905  0.1553
12469SOL    HW147721   6.846   2.863   1.275  0.0931 -1.0219 -0.3981
12469SOL    HW247722   6.902   2.888   1.137 -1.3704 -0.1039 -0.8497
12470SOL     OW47723   6.090  11.316   5.537  0.7664  0.0928 -0.1844
12470SOL    HW147724   6.000  11.289   5.516  1.0662 -0.2535 -1.0955
12470SOL    HW247725   6.143  11.238   5.518  1.5719  1.0445 -2.2041
12471SOL     OW47726   8.833  11.102   3.831 -0.4715  0.1581 -0.0506
12471SOL    HW147727   8.795  11.190   3.832 -2.4798 -0.6078 -1.5562
12471SOL    HW247728   8.925  11.116   3.810 -1.0106  1.8757 -1.5690
12472SOL     OW47729   8.632   0.253   5.415  0.2032 -0.0754  0.6785
12472SOL    HW147730   8.673   0.304   5.485  0.1754 -1.1771  1.5244
12472SOL    HW247731   8.627   0.313   5.341 -1.5784  1.8029  2.2103
12473SOL     OW47732   6.049  10.856   0.420  0.2223  0.2115  0.3798
12473SOL    HW147733   6.064  10.834   0.512  1.2396  2.1477  0.7382
12473SOL    HW247734   6.024  10.948   0.422 -3.0367 -0.5255 -1.0593
12474SOL     OW47735  10.891   5.675   8.392 -0.0273  0.3665  0.0512
12474SOL    HW147736  10.910   5.634   8.476  1.9229  0.1977 -0.4195
12474SOL    HW247737  10.930   5.762   8.398 -2.8992  1.7260  0.5270
12475SOL     OW47738   7.414   0.279   7.009 -0.4588 -0.2177  0.2387
12475SOL    HW147739   7.331   0.252   7.046 -0.5107 -0.3057  0.0613
12475SOL    HW247740   7.480   0.243   7.068 -0.5612  0.3176  0.6795
12476SOL     OW47741  12.024   2.385  12.617  0.3104  0.5287  0.3006
12476SOL    HW147742  11.988   2.309  12.572  1.6155 -0.9328  1.5936
12476SOL    HW247743  12.029   2.359  12.708 -1.4232  3.0770  1.2328
12477SOL     OW47744   0.738   7.818   4.991 -0.4548 -1.0770 -0.4532
12477SOL    HW147745   0.768   7.775   5.072  0.6517 -3.4729 -2.0088
12477SOL    HW247746   0.643   7.826   5.002 -0.0814  1.1912  2.1489
12478SOL     OW47747   9.652   9.694  10.132 -0.3934 -0.0980 -0.4357
12478SOL    HW147748   9.677   9.764  10.071 -1.3340  0.2101 -0.4837
12478SOL    HW247749   9.631   9.740  10.213  2.5102 -0.6241  0.7278
12479SOL     OW47750   8.003   8.458   3.017 -0.4315 -0.2114 -0.0611
12479SOL    HW147751   8.082   8.507   3.038  0.0617 -0.5602 -1.0217
12479SOL    HW247752   8.004   8.450   2.922 -1.5606 -0.3373 -0.0813
12480SOL     OW47753   6.267   4.176   4.592 -0.4820  0.6413 -0.2726
12480SOL    HW147754   6.268   4.216   4.679  0.6461 -1.7092  0.9174
12480SOL    HW247755   6.352   4.199   4.555  0.1082 -0.4349  0.3521
12481SOL     OW47756   9.600   3.880   6.844  0.0834 -0.2796  0.2118
12481SOL    HW147757   9.546   3.931   6.783 -0.1784 -1.1391 -0.2858
12481SOL    HW247758   9.623   3.801   6.795  1.5195 -0.0854  0.5366
12482SOL     OW47759   1.513   9.360   2.940  0.3144  0.6534  0.0730
12482SOL    HW147760   1.473   9.344   2.855  1.0340 -0.2495 -0.1077
12482SOL    HW247761   1.604   9.384   2.919  0.3391  1.0078  0.5625
12483SOL     OW47762   1.260   9.924   6.777 -0.0001  0.4707 -0.0574
12483SOL    HW147763   1.223   9.972   6.851  0.1608  1.4691 -0.6048
12483SOL    HW247764   1.353   9.915   6.798 -0.4117 -1.5654  1.0682
12484SOL     OW47765  12.128   8.580   2.748 -0.7811 -0.1469  0.1471
12484SOL    HW147766  12.092   8.551   2.832 -0.9503 -0.0528  0.1081
12484SOL    HW247767  12.204   8.632   2.771 -0.4279 -0.6890  0.2139
12485SOL     OW47768   5.968   1.784   8.570  0.5507 -0.3328  0.0802
12485SOL    HW147769   5.990   1.718   8.505 -0.2034 -1.0606  0.5405
12485SOL    HW247770   6.003   1.750   8.653 -0.7918 -0.7142  0.5185
12486SOL     OW47771  12.626   2.759   8.733  0.6119 -0.0836 -0.1093
12486SOL    HW147772  12.576   2.797   8.805 -0.3964 -0.6951 -0.4684
12486SOL    HW247773  12.600   2.811   8.656  0.0957 -0.7580 -0.3974
12487SOL     OW47774  12.228   7.638   8.504 -0.0937  0.4898  0.2228
12487SOL    HW147775  12.155   7.659   8.445 -1.4740  0.9454  1.9777
12487SOL    HW247776  12.246   7.546   8.487 -2.8396 -0.3891  1.4197
12488SOL     OW47777  10.879   5.057  10.044 -0.0188  0.4466 -0.1815
12488SOL    HW147778  10.812   5.112  10.003 -1.2375 -2.7681 -2.9663
12488SOL    HW247779  10.961   5.088  10.006 -0.6631  0.4441 -1.6342
12489SOL     OW47780  12.239   0.093   9.425 -0.3666 -0.1980 -0.4877
12489SOL    HW147781  12.252   0.110   9.331 -0.3349 -0.5107 -0.5421
12489SOL    HW247782  12.191   0.169   9.456 -0.8215 -0.3220 -0.8665
12490SOL     OW47783   7.217   7.892   8.910  0.5240 -0.2267  0.1070
12490SOL    HW147784   7.214   7.867   8.818  0.3646 -1.1517  0.3470
12490SOL    HW247785   7.307   7.875   8.937  0.4395 -0.4624  0.2483
12491SOL     OW47786   1.500   0.447   4.154 -0.2295 -0.7456 -0.4109
12491SOL    HW147787   1.508   0.504   4.231 -0.1670  0.9069 -1.5779
12491SOL    HW247788   1.450   0.372   4.185  0.2811 -0.3947  1.3747
12492SOL     OW47789   5.946   3.158   2.675 -0.3785 -0.6944 -0.0156
12492SOL    HW147790   5.972   3.237   2.627 -1.0474 -0.5530 -0.1575
12492SOL    HW247791   5.909   3.191   2.757 -0.3405 -0.8797  0.0761
12493SOL     OW47792   6.868   3.003   2.414  0.1146  0.0256  0.1407
12493SOL    HW147793   6.964   3.002   2.403 -0.1286 -0.3493 -2.4508
12493SOL    HW247794   6.853   3.067   2.484  2.2859 -0.3390  1.0136
12494SOL     OW47795  12.403   2.258  11.112 -0.0313  0.2026 -0.1253
12494SOL    HW147796  12.486   2.232  11.153 -0.2189  2.4293  1.8733
12494SOL    HW247797  12.353   2.176  11.108  1.4052 -0.7846  0.7664
12495SOL     OW47798  10.324   2.851  10.295  0.7337  0.0040  0.2898
12495SOL    HW147799  10.394   2.817  10.350 -0.3269 -2.1522  0.4006
12495SOL    HW247800  10.332   2.804  10.212 -0.7027 -0.4889  0.3907
12496SOL     OW47801   5.464   7.642   0.815 -0.2821 -0.5709 -0.6919
12496SOL    HW147802   5.416   7.688   0.884  1.7871 -1.4209  1.4328
12496SOL    HW247803   5.508   7.711   0.766 -1.0357 -0.0097 -0.5949
12497SOL     OW47804   6.490   9.883   7.711 -0.0024 -0.0740 -0.1811
12497SOL    HW147805   6.484   9.847   7.800  0.4372  1.4247  0.4809
12497SOL    HW247806   6.582   9.874   7.687 -0.1406 -0.5792 -0.5444
12498SOL     OW47807  11.171   3.785   6.937  0.5332  0.1774 -0.2394
12498SOL    HW147808  11.177   3.704   6.886 -1.6743 -0.3995  0.3080
12498SOL    HW247809  11.118   3.843   6.882 -0.1872  0.2509  0.5146
12499SOL     OW47810  12.543  12.154   8.844  0.4691 -0.4892 -0.6539
12499SOL    HW147811  12.561  12.201   8.926  0.4068  1.1562 -1.5391
12499SOL    HW247812  12.448  12.153   8.837  0.4729  1.5232 -1.8243
12500SOL     OW47813  11.967  10.934   7.100  0.1742 -0.1179  0.5413
12500SOL    HW147814  11.879  10.944   7.063  0.4345 -0.4139 -0.1873
12500SOL    HW247815  12.022  10.991   7.045  0.7295 -1.2811 -0.1367
12501SOL     OW47816  11.446   4.764   6.717 -0.3075  0.5532  0.2585
12501SOL    HW147817  11.476   4.731   6.802 -0.1747 -1.5468 -0.5419
12501SOL    HW247818  11.516   4.822   6.688  0.8881 -0.7160  0.4793
12502SOL     OW47819   8.655  12.657   8.286 -0.2323  0.0796 -0.5339
12502SOL    HW147820   8.687  12.715   8.355 -1.0391  0.5501 -0.5496
12502SOL    HW247821   8.624  12.716   8.218  2.1991 -0.3118 -2.1431
12503SOL     OW47822   5.107  10.884   5.109 -0.5666 -0.0225  0.2507
12503SOL    HW147823   5.051  10.960   5.128 -1.0759 -0.2512 -0.3196
12503SOL    HW247824   5.193  10.922   5.091 -0.6205  0.3612  0.7621
12504SOL     OW47825   5.046   1.423   3.684 -0.8549  0.2872 -0.4438
12504SOL    HW147826   5.034   1.369   3.606 -0.1118 -0.4331 -0.0766
12504SOL    HW247827   5.008   1.508   3.661 -1.4835 -0.1999 -1.2528
12505SOL     OW47828   1.005   4.391   4.161 -0.0947  0.0630  0.2413
12505SOL    HW147829   1.029   4.459   4.099  0.7371 -0.4777 -0.0562
12505SOL    HW247830   0.965   4.437   4.234 -1.6995  0.6697 -0.9510
12506SOL     OW47831   2.509   7.988   1.411  0.4273  0.0017 -0.2427
12506SOL    HW147832   2.502   7.893   1.400  3.6299 -0.3542 -0.1440
12506SOL    HW247833   2.466   8.005   1.495  2.7787 -2.0023  1.5427
12507SOL     OW47834   1.398   0.589   5.633 -0.0466  0.8407  0.1767
12507SOL    HW147835   1.429   0.504   5.664  1.6124  1.3197 -0.0961
12507SOL    HW247836   1.343   0.621   5.704 -0.1276 -0.1484  0.5838
12508SOL     OW47837  11.961  10.014  12.145 -0.0016 -0.6302  0.2600
12508SOL    HW147838  12.032  10.070  12.177 -0.0745 -0.0587 -0.5341
12508SOL    HW247839  11.889  10.030  12.207 -1.0970  2.6110 -1.5788
12509SOL     OW47840   7.469   9.566   3.381 -0.4356  0.6947  0.1089
12509SOL    HW147841   7.532   9.604   3.443 -1.7168  0.6823  1.4578
12509SOL    HW247842   7.397   9.629   3.379 -2.0905 -1.0681  1.5122
12510SOL     OW47843  11.020  10.549  11.159 -0.4683 -0.1648 -0.1495
12510SOL    HW147844  11.025  10.512  11.070 -2.0393  0.9800 -0.7576
12510SOL    HW247845  11.057  10.636  11.151  2.1681 -1.0663  1.0430
12511SOL     OW47846   5.415   3.315   6.928  0.1972 -0.3263 -0.5506
12511SOL    HW147847   5.509   3.301   6.937 -0.0636 -2.0954 -0.1129
12511SOL    HW247848   5.380   3.303   7.017 -0.3933  0.8468 -0.6081
12512SOL     OW47849  11.306   5.593  10.222  0.0781  0.3072 -0.4270
12512SOL    HW147850  11.266   5.629  10.302  0.6425 -1.3049  0.6324
12512SOL    HW247851  11.377   5.654  10.201  1.4925 -0.4793  1.7536
12513SOL     OW47852   2.130   7.892   0.614 -0.0352  0.5956 -0.5025
12513SOL    HW147853   2.219   7.864   0.593 -0.5445 -1.3264 -0.3550
12513SOL    HW247854   2.076   7.815   0.596 -1.6769  1.7004 -0.5613
12514SOL     OW47855  11.862  12.791  11.233 -0.5128 -0.3272  0.1079
12514SOL    HW147856  11.915  12.799  11.154 -2.1153  0.1194 -0.9715
12514SOL    HW247857  11.836  12.699  11.234 -0.8422 -0.2383 -0.1325
12515SOL     OW47858   0.456   8.074  10.158 -0.1163 -0.5171 -0.4491
12515SOL    HW147859   0.491   8.088  10.070 -1.0140 -0.0904 -0.7485
12515SOL    HW247860   0.525   8.026  10.204  1.4600  1.4679 -0.5940
12516SOL     OW47861   2.583   1.372  12.627 -0.2720  0.3773 -0.1283
12516SOL    HW147862   2.542   1.458  12.635  0.3684  0.8744 -1.7351
12516SOL    HW247863   2.675   1.387  12.648  0.0170  0.2844 -1.2698
12517SOL     OW47864   1.872   5.151   8.749 -0.1320  0.0663  0.4730
12517SOL    HW147865   1.797   5.141   8.690  0.5847  0.7281 -0.6003
12517SOL    HW247866   1.850   5.226   8.803 -0.5598 -0.2027  0.6788
12518SOL     OW47867   8.086   8.196   1.274  0.4562  0.0989  0.0111
12518SOL    HW147868   8.097   8.132   1.344  0.7125  0.0574 -0.0657
12518SOL    HW247869   8.055   8.145   1.199  1.5086 -0.0931 -0.3171
12519SOL     OW47870   2.396   6.317   2.273  0.5448 -0.1393  0.2435
12519SOL    HW147871   2.394   6.227   2.303  1.0299 -0.6333 -1.1096
12519SOL    HW247872   2.482   6.327   2.233 -0.2577  0.2438 -1.5170
12520SOL     OW47873   4.466   3.586   7.744  0.0896  0.5797  0.0414
12520SOL    HW147874   4.399   3.639   7.700  2.8197  0.8126 -4.3386
12520SOL    HW247875   4.532   3.649   7.772 -0.4867  0.1589  2.6363
12521SOL     OW47876   2.304   0.386  11.576  0.0001  0.6718  0.2247
12521SOL    HW147877   2.269   0.370  11.663  0.1899  0.8813  0.3428
12521SOL    HW247878   2.388   0.340  11.575 -0.2780  0.1736 -0.0539
12522SOL     OW47879   9.234   0.284   1.046  0.1255 -0.4398 -0.4442
12522SOL    HW147880   9.323   0.287   1.011  0.6255  1.2823  0.8366
12522SOL    HW247881   9.198   0.371   1.030 -0.9372 -0.7750  0.0034
12523SOL     OW47882   6.111   0.143   5.233  0.2119 -0.1939  0.6546
12523SOL    HW147883   6.018   0.158   5.219  0.5153  0.4913 -0.7838
12523SOL    HW247884   6.147   0.229   5.254  1.0568  0.2543 -2.2233
12524SOL     OW47885  10.441   8.854   4.263  0.6829  0.4474 -1.3486
12524SOL    HW147886  10.498   8.785   4.227  0.9622 -0.9755  1.5606
12524SOL    HW247887  10.493   8.894   4.332 -1.0068  0.6945 -0.1694
12525SOL     OW47888   3.712   8.856   2.987  0.0965 -0.3551 -0.0493
12525SOL    HW147889   3.725   8.762   3.001 -0.9141 -0.4286  0.5014
12525SOL    HW247890   3.657   8.884   3.060  1.6325  0.9918  0.6902
12526SOL     OW47891  12.937   4.986   3.726  0.1129  0.1016 -0.3833
12526SOL    HW147892  12.982   4.962   3.807 -1.1313 -0.3621  0.1895
12526SOL    HW247893  13.006   5.024   3.671  0.7288  1.7294  1.3960
12527SOL     OW47894   6.252   7.650   2.751 -0.1373 -1.4651  0.1918
12527SOL    HW147895   6.263   7.581   2.686  1.7623  1.4302 -2.8652
12527SOL    HW247896   6.332   7.647   2.803  0.3104 -1.1498 -0.4551
12528SOL     OW47897   6.101   0.304  10.981  0.0511  0.5311 -0.5839
12528SOL    HW147898   6.155   0.225  10.976 -0.6129  0.0448 -0.2452
12528SOL    HW247899   6.114   0.348  10.897  1.2681  0.6316 -0.3657
12529SOL     OW47900   1.005  10.955   4.646 -0.0144 -0.0592 -0.7172
12529SOL    HW147901   0.990  11.046   4.621  0.9660  0.3720  0.1895
12529SOL    HW247902   0.948  10.941   4.721 -2.4240 -1.1400 -2.6102
12530SOL     OW47903   3.060  12.382   4.907 -0.4728  0.3470 -0.3038
12530SOL    HW147904   3.012  12.364   4.826  0.6538  1.1438 -1.1822
12530SOL    HW247905   3.117  12.305   4.918  1.2397  1.3277 -1.7236
12531SOL     OW47906   1.296   3.578   3.235 -0.1709  0.0882  0.1696
12531SOL    HW147907   1.222   3.559   3.292 -0.4959 -1.3117 -0.6933
12531SOL    HW247908   1.335   3.657   3.273 -1.5587  0.3385  1.1505
12532SOL     OW47909   1.260   5.641   9.280 -0.3425  0.5176 -0.1244
12532SOL    HW147910   1.325   5.675   9.219  0.4501  0.7543  0.8337
12532SOL    HW247911   1.309   5.622   9.361 -1.1737 -0.7356  0.1295
12533SOL     OW47912   5.381   8.323   9.110 -0.5858 -0.4899 -0.3501
12533SOL    HW147913   5.353   8.292   9.023 -1.2465 -0.4826 -0.1406
12533SOL    HW247914   5.400   8.416   9.097 -1.2440 -0.3520 -0.3629
12534SOL     OW47915   3.094   2.844   4.341  0.6327 -0.3246  0.3688
12534SOL    HW147916   3.003   2.867   4.321  0.2043 -0.6636  1.7832
12534SOL    HW247917   3.099   2.751   4.321  1.4530  0.2095 -2.2452
12535SOL     OW47918   8.012   1.114   5.947 -0.3366 -0.7066  0.1850
12535SOL    HW147919   8.069   1.190   5.960  0.0824 -0.8079 -0.9584
12535SOL    HW247920   7.978   1.095   6.034 -0.1143  0.5288  0.5641
12536SOL     OW47921   1.874   4.460   7.949  0.6380 -0.0161 -0.1806
12536SOL    HW147922   1.957   4.488   7.909  0.8626  0.4222  0.5746
12536SOL    HW247923   1.883   4.484   8.041 -0.4464  0.3074 -0.1474
12537SOL     OW47924   1.082   9.615   0.942 -0.0704 -0.6013  0.0055
12537SOL    HW147925   1.020   9.557   0.897 -0.9021  1.6578 -2.0075
12537SOL    HW247926   1.026   9.681   0.984  0.9038  0.8916 -0.9701
12538SOL     OW47927  12.265   8.923   3.909 -0.4344 -0.2910  0.2325
12538SOL    HW147928  12.327   8.895   3.976 -0.3887 -0.7652 -0.0037
12538SOL    HW247929  12.179   8.918   3.951 -0.3464  0.0521  0.4582
12539SOL     OW47930   9.237  12.984   1.772 -0.4678  0.2548 -0.6584
12539SOL    HW147931   9.195  13.067   1.796 -0.2617  0.5733 -1.3573
12539SOL    HW247932   9.186  12.953   1.697 -0.3449 -0.0912 -0.5984
12540SOL     OW47933   4.355  10.691   3.662  0.0767  0.0490 -0.0639
12540SOL    HW147934   4.264  10.715   3.679 -0.8170 -3.1470  0.3705
12540SOL    HW247935   4.386  10.654   3.744  1.0277 -0.8789 -0.8049
12541SOL     OW47936   2.852   2.952   2.402 -0.1162 -0.0119 -0.1277
12541SOL    HW147937   2.946   2.966   2.395 -0.3910  1.7741 -0.7017
12541SOL    HW247938   2.836   2.871   2.354  1.1081 -0.3338 -0.0229
12542SOL     OW47939   3.250   6.375   6.938 -0.3877  0.0849 -0.7774
12542SOL    HW147940   3.334   6.347   6.972 -0.4060  0.7574 -0.1415
12542SOL    HW247941   3.239   6.327   6.856 -0.6957 -2.1664  0.5169
12543SOL     OW47942   7.794   0.052   5.111 -0.5466  0.0012 -0.5745
12543SOL    HW147943   7.791   0.142   5.077  0.1185  0.7346  1.1877
12543SOL    HW247944   7.759  -0.001   5.040 -2.8844  1.8736 -0.9630
12544SOL     OW47945   1.093   6.141  12.610  0.7044 -0.1708 -0.0412
12544SOL    HW147946   1.064   6.192  12.534  0.0411  1.4844  1.2552
12544SOL    HW247947   1.126   6.059  12.573 -0.3180  0.2634 -2.0380
12545SOL     OW47948   4.625   5.434   3.207 -0.0443  0.0026  0.1963
12545SOL    HW147949   4.674   5.516   3.207 -0.7452  0.5039 -2.2008
12545SOL    HW247950   4.541   5.456   3.248  0.2421  0.1209  0.7343
12546SOL     OW47951  10.196   0.524   3.272 -0.0893  0.1149  0.1410
12546SOL    HW147952  10.128   0.544   3.336 -0.6307 -1.1090 -0.0189
12546SOL    HW247953  10.224   0.609   3.239  0.5805  0.8350  2.3564
12547SOL     OW47954  12.960  10.772   8.918  0.2048  0.5233 -0.2305
12547SOL    HW147955  12.877  10.750   8.876  0.0532  0.5796  0.0371
12547SOL    HW247956  12.937  10.791   9.009  0.7129 -1.0507  0.2685
12548SOL     OW47957   9.591   1.192   1.661 -0.2892 -0.5420 -0.0554
12548SOL    HW147958   9.540   1.194   1.579  0.2581 -0.8503 -0.4111
12548SOL    HW247959   9.630   1.104   1.662 -0.3388 -0.5614  0.5739
12549SOL     OW47960   5.396   8.297   6.161  0.8443 -0.2727 -0.5447
12549SOL    HW147961   5.458   8.357   6.120  0.0969  0.8106 -0.1172
12549SOL    HW247962   5.315   8.308   6.113  0.2622  0.2291  0.5209
12550SOL     OW47963   9.945   8.848  11.104  0.0772 -0.2713 -0.0724
12550SOL    HW147964  10.006   8.842  11.177  1.0146  0.1450 -0.7989
12550SOL    HW247965   9.867   8.889  11.140 -0.1226 -1.6024  1.0798
12551SOL     OW47966   2.154   3.230  12.124 -0.2020 -0.2559 -0.0804
12551SOL    HW147967   2.221   3.291  12.155 -0.8080  0.5681 -0.3536
12551SOL    HW247968   2.158   3.157  12.185 -0.0197  0.4324  0.7455
12552SOL     OW47969   8.164   7.527   3.863 -0.5706  0.2394  0.0928
12552SOL    HW147970   8.144   7.535   3.769  0.0643 -1.5599 -0.2304
12552SOL    HW247971   8.095   7.472   3.898 -1.0753  1.2973  0.8175
12553SOL     OW47972  10.744   8.978   9.137 -0.5549 -0.0897 -0.3403
12553SOL    HW147973  10.706   8.895   9.111 -4.3847  0.5181  2.3648
12553SOL    HW247974  10.805   8.956   9.208 -2.2470 -0.6166  1.0050
12554SOL     OW47975   6.922   1.034   2.472  0.0190 -0.0822  0.2033
12554SOL    HW147976   6.956   0.979   2.543 -0.7326 -1.5936 -0.5618
12554SOL    HW247977   6.981   1.109   2.470  0.0132  0.0539  2.4818
12555SOL     OW47978   9.720   8.068   5.735 -0.0594 -0.3063 -0.5258
12555SOL    HW147979   9.731   8.135   5.802 -0.5698 -0.3523 -0.3899
12555SOL    HW247980   9.790   8.084   5.672 -0.0502  0.2200 -0.3814
12556SOL     OW47981   2.806  10.595   4.236 -0.0598 -0.1470  0.2888
12556SOL    HW147982   2.788  10.533   4.306 -1.2829 -0.6077 -0.3931
12556SOL    HW247983   2.899  10.613   4.243 -0.2920  0.4526  2.5196
12557SOL     OW47984   9.883   0.927   1.083 -0.0849 -0.0106 -0.9187
12557SOL    HW147985   9.836   0.943   1.165  1.4380 -0.9886  0.1935
12557SOL    HW247986   9.817   0.940   1.015 -1.2950  1.2155  0.4192
12558SOL     OW47987   7.686   4.994   2.846 -0.8106  0.2541  0.2153
12558SOL    HW147988   7.672   4.981   2.940  0.4880  1.1292  0.5673
12558SOL    HW247989   7.697   5.089   2.837  3.6698 -0.0567 -0.0276
12559SOL     OW47990  11.791   4.901   8.582  0.4167 -0.6551 -0.3836
12559SOL    HW147991  11.785   4.996   8.596  0.2756 -0.4101 -1.9701
12559SOL    HW247992  11.844   4.869   8.656 -0.6110  0.4620  0.8785
12560SOL     OW47993   2.549  12.020  11.430  0.3574 -0.1881 -0.0517
12560SOL    HW147994   2.530  12.084  11.361  0.0467 -0.0690  0.1430
12560SOL    HW247995   2.613  11.961  11.390 -1.2220 -1.2569 -1.1218
12561SOL     OW47996  10.640   3.470   2.188 -0.0699 -0.0890 -0.0369
12561SOL    HW147997  10.699   3.533   2.147 -1.9212  1.6163 -0.1849
12561SOL    HW247998  10.622   3.406   2.118  0.7801 -0.0681 -0.2917
12562SOL     OW47999   0.906   7.709   2.074  0.3356  0.2448  0.1262
12562SOL    HW148000   0.978   7.755   2.117  0.5036 -0.1718  0.2981
12562SOL    HW248001   0.913   7.619   2.106 -0.4355  0.2649  0.3652
12563SOL     OW48002   8.331   2.453   3.244 -0.2308  0.1888 -0.1444
12563SOL    HW148003   8.385   2.376   3.264 -0.8003 -0.1327  0.1835
12563SOL    HW248004   8.294   2.479   3.329  0.1645  0.9855 -0.2118
12564SOL     OW48005   5.098   1.401   2.301  0.5138  0.6530 -0.7115
12564SOL    HW148006   5.161   1.377   2.233  0.4688 -0.2767 -0.4355
12564SOL    HW248007   5.144   1.387   2.383  0.2251  0.7740 -0.5250
12565SOL     OW48008   8.001   9.402  11.529 -0.4374  0.0621  0.1874
12565SOL    HW148009   7.999   9.318  11.575  0.3511  0.1619  0.4190
12565SOL    HW248010   8.057   9.458  11.583 -1.3415  0.8932  0.2861
12566SOL     OW48011   2.605   9.900   8.452  0.1768  0.0976  0.5322
12566SOL    HW148012   2.534   9.837   8.465 -0.6420  0.9729  0.4395
12566SOL    HW248013   2.582   9.947   8.372  0.6687  0.6364  0.6932
12567SOL     OW48014   3.443  11.092   4.888 -0.4975  0.6434  0.0372
12567SOL    HW148015   3.477  11.144   4.961 -1.5799  1.9976 -0.3843
12567SOL    HW248016   3.493  11.122   4.812 -0.2069  0.1063  0.0158
12568SOL     OW48017   0.066   2.622   8.645  0.1984 -0.0762  0.1705
12568SOL    HW148018   0.002   2.660   8.704 -1.1521 -0.7173 -0.8248
12568SOL    HW248019   0.024   2.542   8.612  1.7134 -0.7794 -0.1367
12569SOL     OW48020   9.560   9.064   3.531  0.2216  0.1744 -0.4049
12569SOL    HW148021   9.505   8.993   3.566  1.5688 -0.0368  1.4326
12569SOL    HW248022   9.596   9.028   3.450 -0.8648 -0.3834 -0.6622
12570SOL     OW48023  10.174   1.384   2.646  0.0076 -0.4840 -0.0551
12570SOL    HW148024  10.193   1.294   2.674  0.2797 -0.3815  0.0871
12570SOL    HW248025  10.095   1.408   2.694  0.4022 -0.3512  0.5351
12571SOL     OW48026   8.296   4.381   5.356  0.1533 -0.1325  0.4920
12571SOL    HW148027   8.372   4.439   5.361 -0.5629  0.7855  1.0327
12571SOL    HW248028   8.231   4.422   5.413 -0.4601 -1.3471  0.7033
12572SOL     OW48029   2.309  12.186   0.616  0.0174  0.0702 -0.3012
12572SOL    HW148030   2.343  12.188   0.527  0.3152 -2.1106 -0.2858
12572SOL    HW248031   2.214  12.181   0.606  0.0738 -0.5772 -0.4990
12573SOL     OW48032   6.357   5.588   8.654 -0.7649  0.0181 -0.0095
12573SOL    HW148033   6.426   5.587   8.587 -0.8564 -0.6866 -0.0948
12573SOL    HW248034   6.373   5.669   8.702 -0.6507  0.5056 -0.8362
12574SOL     OW48035  11.050   5.197   7.984 -0.2652  0.1686 -0.3253
12574SOL    HW148036  11.013   5.217   7.899  0.9508  0.5395 -0.7888
12574SOL    HW248037  11.029   5.104   7.998  0.1253 -0.0827 -1.3490
12575SOL     OW48038   3.585   1.150   6.150  0.2995  0.1720 -0.1349
12575SOL    HW148039   3.514   1.137   6.087  1.0126  0.8547 -1.1226
12575SOL    HW248040   3.568   1.086   6.219 -0.9861 -0.0171 -0.5990
12576SOL     OW48041   4.492   1.129   7.197 -0.6241  0.0073  0.4590
12576SOL    HW148042   4.409   1.104   7.237  0.3650 -0.7388  2.1450
12576SOL    HW248043   4.549   1.054   7.211  0.6471  0.8999  0.2409
12577SOL     OW48044   3.353  12.870   1.520  0.6359 -0.5535  0.0815
12577SOL    HW148045   3.377  12.781   1.494 -0.9580 -0.9979  0.0168
12577SOL    HW248046   3.260  12.877   1.500  0.4482  0.7241  1.2073
12578SOL     OW48047   5.958  11.096   1.352  0.3202 -0.5206 -0.4067
12578SOL    HW148048   5.896  11.041   1.400  0.2687 -1.6466 -1.7254
12578SOL    HW248049   6.042  11.051   1.361  1.0534  1.0994  1.5423
12579SOL     OW48050   7.918   2.254   6.262  0.6628  0.2126  0.0876
12579SOL    HW148051   7.833   2.296   6.273  0.8139  0.0523  2.1973
12579SOL    HW248052   7.902   2.184   6.198 -0.1810  1.7143 -1.4160
12580SOL     OW48053  10.279   6.262   3.345 -0.5750  0.2326  0.3387
12580SOL    HW148054  10.282   6.347   3.301  0.2521 -0.0064 -0.0991
12580SOL    HW248055  10.253   6.200   3.276 -0.0454 -0.0293  0.3667
12581SOL     OW48056   7.697   0.620  10.429 -0.2237  0.3367  0.0907
12581SOL    HW148057   7.656   0.612  10.343 -1.0574  1.8275  0.3208
12581SOL    HW248058   7.719   0.713  10.437 -0.4430  0.2801  1.6051
12582SOL     OW48059   9.551  11.020   6.484  0.1626 -0.0442  0.3404
12582SOL    HW148060   9.512  11.033   6.397  2.2698  1.8378 -0.3997
12582SOL    HW248061   9.488  11.061   6.544  0.1589  1.5374 -0.6662
12583SOL     OW48062   1.180   8.191   5.774 -0.2474 -0.5035 -0.1538
12583SOL    HW148063   1.134   8.238   5.704  0.6900 -0.3569 -0.6951
12583SOL    HW248064   1.132   8.212   5.854 -0.9658 -0.1705 -0.6636
12584SOL     OW48065  11.428  12.920  11.280  0.0111 -0.2551 -0.0329
12584SOL    HW148066  11.378  13.002  11.275 -1.8757 -1.3386 -0.1165
12584SOL    HW248067  11.484  12.930  11.356 -1.2259  0.5960  0.8113
12585SOL     OW48068  10.923   5.359   4.309 -0.1091  0.3101  0.1233
12585SOL    HW148069  10.889   5.305   4.237 -0.9924  0.6367  0.2835
12585SOL    HW248070  10.985   5.419   4.268 -0.6617  0.5415 -0.3817
12586SOL     OW48071   3.093   6.717  10.579 -0.0617 -0.0710 -0.1996
12586SOL    HW148072   3.023   6.661  10.612  0.6450 -1.6611 -1.2459
12586SOL    HW248073   3.166   6.657  10.563  0.7037  1.1389 -1.5080
12587SOL     OW48074   8.629   1.338   7.720  0.9491 -0.1290  0.6433
12587SOL    HW148075   8.634   1.434   7.727 -1.3821  0.1967 -1.0210
12587SOL    HW248076   8.580   1.311   7.797 -0.4019  0.3199 -0.0280
12588SOL     OW48077   6.735   0.638   9.346 -0.1370  0.3845  0.3198
12588SOL    HW148078   6.816   0.667   9.304 -0.6975  1.2686 -0.1811
12588SOL    HW248079   6.737   0.680   9.432  0.5580 -0.6651  0.8350
12589SOL     OW48080  10.501   6.885   4.027 -0.4536  0.5167  0.4647
12589SOL    HW148081  10.545   6.961   3.988  0.7565  0.0848  0.9133
12589SOL    HW248082  10.464   6.918   4.109 -2.5546  1.3005 -0.7259
12590SOL     OW48083   0.894   9.394   0.834 -0.1997  0.0571  0.4055
12590SOL    HW148084   0.881   9.448   0.755 -1.8495 -1.2701 -0.2975
12590SOL    HW248085   0.820   9.416   0.890 -0.1697 -0.5117  0.6749
12591SOL     OW48086   1.844   6.271   4.115 -0.3766 -0.5101  0.1554
12591SOL    HW148087   1.815   6.272   4.206  2.0677 -1.6930  1.0641
12591SOL    HW248088   1.893   6.353   4.104  1.4351 -1.4410  0.7730
12592SOL     OW48089  12.114  12.094   3.274  0.1546  0.1777 -0.2932
12592SOL    HW148090  12.092  12.044   3.196 -1.1383 -0.6164  0.5334
12592SOL    HW248091  12.199  12.058   3.302 -0.4250 -1.0922 -0.1054
12593SOL     OW48092   7.934  12.090   0.533 -0.2929 -0.7162 -0.4112
12593SOL    HW148093   7.950  12.096   0.627 -0.8389  1.3061 -0.3984
12593SOL    HW248094   7.946  11.997   0.512  1.1328 -0.9817  1.3913
12594SOL     OW48095   5.321   4.246   5.282 -0.6156 -0.3638 -0.2011
12594SOL    HW148096   5.264   4.221   5.209 -0.7345  1.4948 -0.7890
12594SOL    HW248097   5.296   4.336   5.302  2.6678  0.8796 -1.0789
12595SOL     OW48098  10.333   8.499  11.404 -0.1073  0.1229 -0.1363
12595SOL    HW148099  10.401   8.462  11.348 -0.2081  2.0122 -1.6080
12595SOL    HW248100  10.342   8.593  11.394 -0.9232  0.5066  2.1461
12596SOL     OW48101   1.430  10.194   4.322 -0.4972 -0.0795  0.0851
12596SOL    HW148102   1.473  10.228   4.244  0.5245  2.3333  1.5935
12596SOL    HW248103   1.342  10.230   4.320 -0.1858  0.7213  0.4661
12597SOL     OW48104  12.535   7.592  10.586 -0.5201  0.2324 -0.1041
12597SOL    HW148105  12.576   7.540  10.655 -0.5428  2.2336  1.5380
12597SOL    HW248106  12.594   7.582  10.511  0.9459  0.0190  1.0112
12598SOL     OW48107   4.212   4.900   9.684 -0.6482  0.5183 -0.3497
12598SOL    HW148108   4.171   4.934   9.764 -0.0566  1.5871 -0.4683
12598SOL    HW248109   4.258   4.976   9.647  0.3116 -0.3158 -0.9223
12599SOL     OW48110  12.742   5.885   7.542 -0.1558  0.2183  0.1483
12599SOL    HW148111  12.743   5.979   7.524  1.3530  0.4833  1.3437
12599SOL    HW248112  12.801   5.875   7.617 -2.1057 -1.3824  1.6107
12600SOL     OW48113   6.657   8.403  10.096 -0.3054  0.1890 -0.7354
12600SOL    HW148114   6.564   8.391  10.113 -0.5386  0.3516 -1.8203
12600SOL    HW248115   6.662   8.479  10.038  0.6325  1.1663  0.5663
12601SOL     OW48116   4.765   0.505   5.789 -0.4627 -0.3653  0.4330
12601SOL    HW148117   4.841   0.477   5.737 -1.4017 -1.2905 -0.5090
12601SOL    HW248118   4.741   0.427   5.838 -0.2066  0.2191  1.5079
12602SOL     OW48119   0.512   1.429   2.189  0.1253 -0.4920 -0.0798
12602SOL    HW148120   0.555   1.376   2.256 -2.3645 -0.6745  1.5410
12602SOL    HW248121   0.468   1.498   2.239 -2.1640 -0.8558 -1.4511
12603SOL     OW48122   2.450   3.676   9.669  0.1262 -0.4751 -0.0408
12603SOL    HW148123   2.366   3.657   9.710  0.0197 -0.0703 -0.0692
12603SOL    HW248124   2.466   3.601   9.611 -0.2954 -0.4744 -0.1606
12604SOL     OW48125  10.606   6.913   7.945  0.2727 -0.0297  0.6842
12604SOL    HW148126  10.592   6.880   8.034 -2.6221 -2.6057 -0.5687
12604SOL    HW248127  10.673   6.855   7.909  0.2422 -0.0416  0.6473
12605SOL     OW48128  11.901   4.378   3.315 -0.5053 -0.1573  0.1100
12605SOL    HW148129  11.888   4.288   3.286 -1.2443 -0.1570  0.4300
12605SOL    HW248130  11.910   4.373   3.410  1.5377 -0.1120 -0.0259
12606SOL     OW48131  10.879   3.394   8.406 -0.2298  0.2830  1.0962
12606SOL    HW148132  10.826   3.383   8.484  0.7838 -1.4007  1.6171
12606SOL    HW248133  10.956   3.338   8.422 -0.7286 -1.4159 -1.7276
12607SOL     OW48134   3.240   9.828  10.691 -0.1440 -0.7143  0.2622
12607SOL    HW148135   3.214   9.919  10.705  1.2851 -0.2961  0.3765
12607SOL    HW248136   3.290   9.805  10.770  1.1389 -0.9574 -0.5880
12608SOL     OW48137   3.249   9.851  11.733 -0.4209 -0.2019  0.2463
12608SOL    HW148138   3.221   9.830  11.822 -0.2049  2.1880  0.9565
12608SOL    HW248139   3.275   9.943  11.737 -1.4361  0.3231 -2.5397
12609SOL     OW48140   2.468   9.874   2.572  0.3241  0.8134  0.4813
12609SOL    HW148141   2.494   9.914   2.490  1.0155  0.0859  0.3294
12609SOL    HW248142   2.449   9.783   2.550 -0.2030  0.7892  0.9956
12610SOL     OW48143   0.802   7.035  11.705 -0.1425  0.6548 -0.1573
12610SOL    HW148144   0.763   7.086  11.634  0.6410 -0.7541 -1.6541
12610SOL    HW248145   0.807   6.946  11.671  1.4571  0.1836  1.1758
12611SOL     OW48146   0.936   1.312   4.257 -1.2189  0.0360 -0.2623
12611SOL    HW148147   0.977   1.248   4.199 -2.5701 -0.3149 -0.8788
12611SOL    HW248148   0.923   1.389   4.201  0.1442  0.7806  0.3993
12612SOL     OW48149   9.984   0.918   8.636  0.1732  0.7957  0.3158
12612SOL    HW148150   9.938   0.888   8.714  0.6067 -1.0261 -0.0787
12612SOL    HW248151  10.074   0.934   8.666  0.4913 -0.4814  0.1090
12613SOL     OW48152   1.189  12.222   6.647  0.3689  0.0079  0.0223
12613SOL    HW148153   1.251  12.246   6.578 -0.4663 -0.8690 -1.0903
12613SOL    HW248154   1.129  12.296   6.651  0.0853 -0.1758 -0.6255
12614SOL     OW48155   8.758   9.071  12.909  0.2909  0.2230 -0.0983
12614SOL    HW148156   8.809   9.006  12.958  1.0658  1.8860  1.4557
12614SOL    HW248157   8.670   9.064  12.944  0.5277  0.4371  0.5730
12615SOL     OW48158   1.374   6.023   8.725  0.2819 -0.8183 -0.0226
12615SOL    HW148159   1.336   6.060   8.805 -0.8040  1.4859 -1.4794
12615SOL    HW248160   1.469   6.036   8.735  0.4468 -3.0046  1.9590
12616SOL     OW48161   3.547  12.543  11.741  0.4407 -0.3354  0.0559
12616SOL    HW148162   3.518  12.484  11.672  0.2268  0.5920 -0.6834
12616SOL    HW248163   3.560  12.627  11.696 -1.5742  0.8139  1.4794
12617SOL     OW48164   5.093   7.371   3.608  0.3222 -0.4139 -0.0767
12617SOL    HW148165   5.114   7.280   3.629 -0.9341 -1.4575 -2.8295
12617SOL    HW248166   5.116   7.380   3.515 -0.6867  1.7209 -0.1730
12618SOL     OW48167   3.319   3.832   2.452  0.9453  0.2942  0.1378
12618SOL    HW148168   3.329   3.892   2.379  0.2815 -1.3782 -1.4003
12618SOL    HW248169   3.376   3.758   2.430  0.7355 -0.2425  1.3201
12619SOL     OW48170   6.719  11.906   9.796  0.5142 -0.0345 -0.1292
12619SOL    HW148171   6.680  11.923   9.710  1.0265 -0.6623 -0.4891
12619SOL    HW248172   6.778  11.832   9.782  2.4156  1.3247  0.2122
12620SOL     OW48173   4.448   2.715   7.103  0.2517  0.4562  0.2638
12620SOL    HW148174   4.465   2.773   7.029  1.5850 -0.7726 -0.4557
12620SOL    HW248175   4.469   2.627   7.070 -1.3331 -0.4114  1.4241
12621SOL     OW48176  11.490  11.114   1.732  0.1398 -0.3630 -0.4102
12621SOL    HW148177  11.575  11.076   1.758 -0.1334 -1.8390 -1.5274
12621SOL    HW248178  11.428  11.073   1.793 -0.0610 -1.1781 -1.1456
12622SOL     OW48179   2.408   9.658  12.797 -0.0940  0.3460  0.6242
12622SOL    HW148180   2.425   9.578  12.746  0.0630  1.7185 -1.6063
12622SOL    HW248181   2.387   9.626  12.884  2.1772 -2.0400  0.4360
12623SOL     OW48182  11.791   6.645   0.970 -0.0362 -0.1537  0.0767
12623SOL    HW148183  11.703   6.630   0.936  0.2986  1.2766 -1.5173
12623SOL    HW248184  11.800   6.581   1.041 -2.4101 -0.2013  0.4162
12624SOL     OW48185   4.277  11.680   8.600 -0.7990 -0.6461 -0.3489
12624SOL    HW148186   4.193  11.635   8.613 -1.6156  0.9296  0.0921
12624SOL    HW248187   4.284  11.689   8.505 -1.0603 -0.9293 -0.3969
12625SOL     OW48188   7.152  10.079  11.120  0.1874  0.7218 -0.6942
12625SOL    HW148189   7.237  10.124  11.119  1.4036 -1.3313 -3.4933
12625SOL    HW248190   7.169   9.999  11.170 -0.6955  1.1627  0.3541
12626SOL     OW48191   8.978   6.911   6.539  0.1429 -0.2457 -0.2482
12626SOL    HW148192   8.951   6.966   6.466  2.5207 -0.0838 -1.0841
12626SOL    HW248193   8.911   6.843   6.544 -2.2363  1.9501  0.0531
12627SOL     OW48194   1.419   4.448   1.326 -0.6297 -0.0647 -0.5621
12627SOL    HW148195   1.439   4.389   1.398 -0.5303 -1.2848 -1.5607
12627SOL    HW248196   1.331   4.424   1.297 -0.3189 -0.2186 -1.4251
12628SOL     OW48197   2.713   7.802   5.583 -0.1988  0.1719  0.1375
12628SOL    HW148198   2.632   7.774   5.627 -0.0457 -2.6126 -1.1247
12628SOL    HW248199   2.683   7.839   5.500 -0.2442 -0.3012 -0.0643
12629SOL     OW48200  11.639   2.555   0.961 -0.7514 -0.2221  0.3737
12629SOL    HW148201  11.578   2.528   1.030  0.2329  2.8698  2.6550
12629SOL    HW248202  11.594   2.627   0.916 -0.8161 -1.3235 -1.4461
12630SOL     OW48203   6.803  11.351   2.536 -0.3568  0.5531 -0.4269
12630SOL    HW148204   6.783  11.365   2.444 -0.6209  2.2122 -0.1537
12630SOL    HW248205   6.761  11.425   2.581  0.4448  0.2226  0.9249
12631SOL     OW48206   8.908   0.405   6.659 -0.2349  0.4568  0.1844
12631SOL    HW148207   8.968   0.384   6.730 -0.0447 -0.4379 -0.2246
12631SOL    HW248208   8.832   0.348   6.675  0.4795 -0.9587 -1.1995
12632SOL     OW48209   9.526   8.154   4.689  0.1281  0.2413 -0.0863
12632SOL    HW148210   9.499   8.063   4.703  1.6867 -0.0008  1.6915
12632SOL    HW248211   9.459   8.206   4.735 -0.1225 -0.0657 -0.1021
12633SOL     OW48212   8.949   2.877   5.248  0.3963  0.0433  0.5090
12633SOL    HW148213   8.918   2.964   5.274 -0.6284  0.1067 -0.8347
12633SOL    HW248214   9.044   2.888   5.238  0.3778  0.8085  1.0310
12634SOL     OW48215  10.980   1.040  11.476  0.3781 -0.4540 -0.0321
12634SOL    HW148216  11.071   1.062  11.455  0.1878  1.4551  0.9499
12634SOL    HW248217  10.931   1.067  11.398  0.2047  2.5865  0.9724
12635SOL     OW48218   9.698   3.281   7.477 -0.0872  0.3851 -0.3792
12635SOL    HW148219   9.704   3.207   7.538 -1.0905 -0.3932 -1.1905
12635SOL    HW248220   9.788   3.314   7.472  0.2980 -0.4942  0.3441
12636SOL     OW48221  12.027   8.512   2.971 -0.4266  0.3362 -0.4415
12636SOL    HW148222  11.957   8.448   2.959 -0.7854  0.3719  1.3138
12636SOL    HW248223  12.025   8.534   3.064  1.6771  0.6070 -0.4013
12637SOL     OW48224   4.084   6.992   1.907  0.6563  0.2089 -0.0472
12637SOL    HW148225   4.042   7.068   1.865 -0.2883 -0.7989 -0.9693
12637SOL    HW248226   4.055   6.996   1.998  0.9495  1.1818  0.0154
12638SOL     OW48227   4.502   8.166   6.758  0.2107 -0.2268  0.5731
12638SOL    HW148228   4.461   8.088   6.793 -1.3741  0.6009  0.6501
12638SOL    HW248229   4.443   8.194   6.687  1.2129  0.4055 -0.0339
12639SOL     OW48230   5.704   1.495   3.867 -0.1747  0.3729  0.0465
12639SOL    HW148231   5.766   1.567   3.879  0.1023  0.0850  0.3609
12639SOL    HW248232   5.646   1.525   3.797 -0.0488  0.8925  0.1609
12640SOL     OW48233   7.839   0.087   1.957 -0.0856 -0.0693  0.3640
12640SOL    HW148234   7.932   0.090   1.981  0.2195 -1.5907 -0.4772
12640SOL    HW248235   7.807   0.005   1.996 -0.8474  0.0030 -0.0923
12641SOL     OW48236  11.055   0.016   1.491 -0.0933 -0.1950  0.4977
12641SOL    HW148237  11.053  -0.002   1.585  0.5782  2.1214  0.9972
12641SOL    HW248238  11.148   0.014   1.468 -0.0035  2.0444  0.5124
12642SOL     OW48239   3.960   7.085   3.874  0.0426  0.3044 -0.3045
12642SOL    HW148240   4.013   7.105   3.798 -1.3284 -0.3421 -1.4903
12642SOL    HW248241   3.879   7.048   3.838 -0.7914  0.2881  1.4493
12643SOL     OW48242  10.368  11.245  11.210  0.4048 -0.1863  0.1405
12643SOL    HW148243  10.369  11.153  11.183 -2.0433 -0.5448  1.0033
12643SOL    HW248244  10.420  11.290  11.143  0.1954 -1.9618 -1.2986
12644SOL     OW48245   8.053   0.178   4.557 -0.1644  0.2510 -0.7961
12644SOL    HW148246   7.967   0.165   4.598 -1.6758 -1.6472 -4.1820
12644SOL    HW248247   8.043   0.259   4.508 -0.9011 -1.0425 -2.9187
12645SOL     OW48248   6.092   2.941   7.555 -0.1737 -0.5529  0.1453
12645SOL    HW148249   6.131   2.954   7.468  0.9552  1.0059  0.8374
12645SOL    HW248250   6.007   2.902   7.537  0.7159 -1.8185 -1.5554
12646SOL     OW48251   4.903   1.125  12.654  0.3803 -0.1741  0.4151
12646SOL    HW148252   4.832   1.159  12.599  0.8498 -1.4945 -1.0908
12646SOL    HW248253   4.982   1.139  12.602  0.7394 -2.2790  0.3089
12647SOL     OW48254   5.949   9.593   5.455  0.1981  0.5657 -0.7184
12647SOL    HW148255   5.947   9.558   5.544  1.0234 -0.7652 -1.1866
12647SOL    HW248256   5.864   9.570   5.418  0.0511  0.6585 -0.4440
12648SOL     OW48257   2.362   2.875   4.207 -0.4491 -0.2161  0.4210
12648SOL    HW148258   2.340   2.784   4.223  0.2388 -0.4966 -0.1475
12648SOL    HW248259   2.401   2.875   4.119  1.3361  0.2962  1.1719
12649SOL     OW48260  12.610   4.994  11.032  0.0207  0.2635  0.2529
12649SOL    HW148261  12.593   5.087  11.016  0.1874  0.4655  1.1902
12649SOL    HW248262  12.600   4.984  11.127  1.1434 -0.4432  0.3098
12650SOL     OW48263   7.295   2.948   1.854 -0.3971 -0.2336 -0.1945
12650SOL    HW148264   7.326   2.863   1.885 -0.0841 -0.0529 -0.0067
12650SOL    HW248265   7.358   3.011   1.890 -0.2478  0.0137 -0.8619
12651SOL     OW48266  11.696   3.320   8.834 -0.0321  0.5060 -0.2879
12651SOL    HW148267  11.654   3.404   8.815 -0.0590  0.8042  1.0000
12651SOL    HW248268  11.786   3.343   8.855  0.1576  0.1229 -0.6699
12652SOL     OW48269   9.820   0.492   3.444  0.7084  0.3272  0.0335
12652SOL    HW148270   9.806   0.587   3.445 -0.7642  0.1342  0.0870
12652SOL    HW248271   9.893   0.478   3.504 -0.7536  1.2020  2.1394
12653SOL     OW48272  11.999   4.261   1.935  0.4049 -0.1710 -0.4563
12653SOL    HW148273  12.006   4.352   1.962  0.2588 -0.4764  0.6724
12653SOL    HW248274  11.992   4.264   1.839  2.1222  0.8988 -0.5864
12654SOL     OW48275   7.476   3.631   9.408 -0.3082 -0.1956  0.6272
12654SOL    HW148276   7.475   3.691   9.334 -0.5697 -0.0757  0.7264
12654SOL    HW248277   7.551   3.658   9.461 -0.7737  0.4200  0.9813
12655SOL     OW48278   8.765   8.495   4.119 -0.1355  0.4921  0.2026
12655SOL    HW148279   8.847   8.482   4.166  0.1579 -0.2185 -0.4829
12655SOL    HW248280   8.701   8.441   4.166  0.0627  0.1098  0.0379
12656SOL     OW48281   6.241  12.077   0.927 -0.2895 -0.2148  0.2418
12656SOL    HW148282   6.228  12.161   0.971  1.6826  0.5339 -0.5087
12656SOL    HW248283   6.299  12.097   0.854 -0.0226 -2.1995 -0.1421
12657SOL     OW48284   0.512   5.411   5.666 -0.0420 -0.1385  0.5793
12657SOL    HW148285   0.433   5.464   5.653  0.9797  1.2195 -0.4220
12657SOL    HW248286   0.579   5.473   5.694  1.0432 -0.9840 -0.0166
12658SOL     OW48287   5.053   2.441   5.225  0.0363 -0.0151 -0.3003
12658SOL    HW148288   5.026   2.529   5.253 -1.7189 -0.4057 -0.6452
12658SOL    HW248289   5.140   2.454   5.187  2.5627  0.6327  4.7533
12659SOL     OW48290   8.505  12.012   9.258 -0.5826 -0.3794 -0.7111
12659SOL    HW148291   8.577  11.950   9.267 -1.3079 -1.1100  0.2874
12659SOL    HW248292   8.463  12.012   9.344 -0.6528  1.4499 -0.7019
12660SOL     OW48293   5.433  11.810   8.491  0.1062  0.0838  0.4322
12660SOL    HW148294   5.446  11.756   8.569 -0.6239  1.1578  1.3308
12660SOL    HW248295   5.342  11.838   8.495  0.1038  0.3060 -0.7209
12661SOL     OW48296   5.982  10.250   9.785  0.4748 -0.5230  0.0065
12661SOL    HW148297   5.953  10.160   9.795  0.3577 -0.6948 -1.7159
12661SOL    HW248298   5.902  10.301   9.775  0.4459  0.0234  2.4064
12662SOL     OW48299   9.592   3.709   3.410 -0.1019 -0.3332  0.2518
12662SOL    HW148300   9.677   3.684   3.445 -0.6781 -1.8485  0.6685
12662SOL    HW248301   9.561   3.631   3.364 -2.2899 -0.7026  2.1384
12663SOL     OW48302   3.728   9.487  10.187 -0.3553 -0.2608  0.4746
12663SOL    HW148303   3.819   9.505  10.212  1.0218 -1.1872 -3.2619
12663SOL    HW248304   3.715   9.394  10.205 -0.9316  0.0421  1.7806
12664SOL     OW48305   0.776   5.945   8.049 -0.0302  0.5004 -0.6824
12664SOL    HW148306   0.735   5.928   8.134  0.5349 -0.4061 -0.5796
12664SOL    HW248307   0.835   5.871   8.035 -2.2238 -0.9170 -3.2064
12665SOL     OW48308   8.171   1.116   1.967  0.1249  0.2017  0.1871
12665SOL    HW148309   8.147   1.062   2.042 -0.6702 -0.5791 -0.6077
12665SOL    HW248310   8.096   1.173   1.953 -1.4159 -2.1808 -2.2461
12666SOL     OW48311   9.458   9.217   3.207  0.4804 -0.3009  0.1526
12666SOL    HW148312   9.519   9.244   3.138  0.9969 -0.1511  0.6647
12666SOL    HW248313   9.426   9.131   3.178 -0.9531  0.6628 -1.3450
12667SOL     OW48314   7.771   5.917   8.569  0.5863  0.1478  0.4637
12667SOL    HW148315   7.856   5.924   8.614  0.4184 -1.6293  1.1294
12667SOL    HW248316   7.790   5.869   8.489  0.1936 -0.4200  0.7033
12668SOL     OW48317   8.577   9.627   4.912 -0.2918 -0.3466  0.2664
12668SOL    HW148318   8.639   9.650   4.843 -0.4100 -2.2678 -0.5671
12668SOL    HW248319   8.492   9.624   4.867 -0.5039 -0.7424  0.6808
12669SOL     OW48320  10.415   2.875   6.533  0.1404  0.3237 -0.2645
12669SOL    HW148321  10.358   2.949   6.512  0.7162  0.3159 -2.0493
12669SOL    HW248322  10.504   2.913   6.535  0.2454  0.0509  0.9249
12670SOL     OW48323   1.521   9.468  12.426 -0.1745  0.3099 -0.0924
12670SOL    HW148324   1.615   9.453  12.426  0.0731  1.6858 -1.2878
12670SOL    HW248325   1.494   9.460  12.335 -1.2924 -0.4175  0.2750
12671SOL     OW48326  11.932  10.647   9.908  0.0387  0.0268 -0.4745
12671SOL    HW148327  11.960  10.559   9.933 -0.5584 -0.3938 -1.2298
12671SOL    HW248328  11.838  10.649   9.930  0.1431  0.6310 -0.0597
12672SOL     OW48329   8.860  11.952   8.412 -0.1876 -0.1577  0.0496
12672SOL    HW148330   8.899  11.886   8.470  0.9194 -1.5132 -2.0997
12672SOL    HW248331   8.790  11.904   8.367 -0.9521  0.8326  0.1713
12673SOL     OW48332   4.603   9.117   3.431 -0.0337  0.0720 -0.3296
12673SOL    HW148333   4.568   9.073   3.508  0.9964  0.3644  0.3299
12673SOL    HW248334   4.543   9.190   3.415  0.3378  0.6729  0.8896
12674SOL     OW48335  12.394   9.292   7.603 -0.1937  0.8458 -0.8927
12674SOL    HW148336  12.372   9.313   7.512 -0.4126  1.4115 -0.7092
12674SOL    HW248337  12.311   9.293   7.649 -0.0395  0.9162 -0.6133
12675SOL     OW48338   0.169   4.031   1.341 -0.0864 -0.3901  0.6532
12675SOL    HW148339   0.167   3.935   1.351  0.0757 -0.9232 -2.9870
12675SOL    HW248340   0.262   4.053   1.343 -0.1635  0.1149  3.5051
12676SOL     OW48341   1.374   3.932  12.260 -0.2968  0.6958 -0.1664
12676SOL    HW148342   1.288   3.891  12.246 -0.2073  1.0736 -2.1887
12676SOL    HW248343   1.355   4.026  12.260  0.0810  0.7733 -0.3529
12677SOL     OW48344  11.030   7.793   1.091  0.0770 -0.4786 -0.2848
12677SOL    HW148345  10.946   7.749   1.094 -0.1413 -0.1085 -0.8521
12677SOL    HW248346  11.093   7.725   1.116 -0.1170 -1.4753 -2.3035
12678SOL     OW48347   9.917   6.651   2.357 -0.1829  0.2311 -0.6248
12678SOL    HW148348   9.913   6.560   2.329  1.5026  0.2643 -1.0939
12678SOL    HW248349   9.994   6.686   2.312 -1.2278  2.0968 -1.0526
12679SOL     OW48350   5.098  11.254   8.785 -0.6170  0.4485 -0.7832
12679SOL    HW148351   5.184  11.290   8.763 -0.4307  0.8121  0.4590
12679SOL    HW248352   5.112  11.160   8.789  0.0007  0.5624  0.4152
12680SOL     OW48353   1.121   3.915   8.856  0.4944  0.2873 -0.0715
12680SOL    HW148354   1.032   3.935   8.826  0.9349  3.4000  0.3799
12680SOL    HW248355   1.134   3.823   8.833 -2.2833  0.1476 -1.4955
12681SOL     OW48356  12.511   4.685   6.633 -0.1666 -0.1528  0.2997
12681SOL    HW148357  12.547   4.772   6.618  0.4084 -0.0576  2.0258
12681SOL    HW248358  12.480   4.656   6.547  2.1356  0.6169 -0.8615
12682SOL     OW48359   7.692   3.046   3.725  0.0033  0.0199  0.1270
12682SOL    HW148360   7.644   2.989   3.785  0.9376 -1.3307 -0.3662
12682SOL    HW248361   7.758   2.989   3.685 -1.0440  0.6671 -2.7365
12683SOL     OW48362   3.262  11.910   7.475  0.3673  0.5308 -0.4132
12683SOL    HW148363   3.235  11.827   7.436 -1.8169  0.3050  1.3402
12683SOL    HW248364   3.303  11.885   7.558 -0.4824  1.1700  0.2192
12684SOL     OW48365  11.485  10.479  10.192 -0.3476  0.6852  0.0308
12684SOL    HW148366  11.457  10.522  10.111 -1.0273  0.9841  0.4174
12684SOL    HW248367  11.470  10.386  10.176 -1.0488  0.7957  0.0330
12685SOL     OW48368   6.139   1.904  10.965 -0.1163  0.1747  0.2454
12685SOL    HW148369   6.108   1.951  11.042 -2.1848 -0.6532 -0.0317
12685SOL    HW248370   6.144   1.813  10.992  1.6636  0.1951  0.1150
12686SOL     OW48371   0.343   3.809   8.545 -0.0324 -0.7461  0.2373
12686SOL    HW148372   0.392   3.732   8.574  0.1920 -0.6386  0.1433
12686SOL    HW248373   0.399   3.883   8.568  0.2065 -0.6654 -0.5805
12687SOL     OW48374  10.177   3.619   3.868 -0.3985  0.3623  0.0643
12687SOL    HW148375  10.106   3.560   3.893  0.5326 -0.9185 -0.2364
12687SOL    HW248376  10.189   3.676   3.944  0.9702 -2.0745  1.8014
12688SOL     OW48377  11.204   9.447   2.560 -0.1041 -0.0799  0.5322
12688SOL    HW148378  11.226   9.426   2.650 -0.0256 -2.4476  0.0338
12688SOL    HW248379  11.133   9.386   2.538 -1.1160  1.4122 -0.5996
12689SOL     OW48380   4.733   3.694   5.211 -0.2871  0.0414 -0.0805
12689SOL    HW148381   4.712   3.610   5.172 -0.6799  0.1651 -0.1364
12689SOL    HW248382   4.653   3.746   5.202  0.6928  1.2943 -2.3222
12690SOL     OW48383   7.791   0.184  12.154 -0.3754 -0.1471 -0.1271
12690SOL    HW148384   7.765   0.234  12.232  0.9897 -1.5214  1.2967
12690SOL    HW248385   7.814   0.251  12.089  0.1625  1.0873  1.2648
12691SOL     OW48386   2.500   9.770   0.645  0.2573  0.0650  0.5521
12691SOL    HW148387   2.576   9.753   0.701  0.3146  1.6149  0.9960
12691SOL    HW248388   2.479   9.862   0.661  0.5444  0.7055 -2.2983
12692SOL     OW48389   5.774   6.751   8.942  0.5776  0.0443  0.7396
12692SOL    HW148390   5.829   6.712   9.010  0.6853  1.1564  1.3103
12692SOL    HW248391   5.836   6.787   8.879  0.4896  0.2195  0.7529
12693SOL     OW48392   7.758   2.637   0.416  0.1006  0.3205  0.1499
12693SOL    HW148393   7.689   2.587   0.458  0.2951 -0.4447 -0.4157
12693SOL    HW248394   7.838   2.587   0.434  0.2296  0.1569 -0.8348
12694SOL     OW48395   1.116   5.258   3.613 -0.1793 -0.1488  0.4123
12694SOL    HW148396   1.052   5.295   3.675 -0.5711 -1.5344  0.8977
12694SOL    HW248397   1.179   5.328   3.598  0.7137 -0.1358  3.4813
12695SOL     OW48398   8.244   6.099   7.756 -0.3155  0.0319  0.0795
12695SOL    HW148399   8.195   6.105   7.673  0.6180  1.7832 -0.3867
12695SOL    HW248400   8.315   6.038   7.738  0.5186  1.2099 -0.7934
12696SOL     OW48401   2.557   9.972   0.385 -0.4304  0.2459 -0.3043
12696SOL    HW148402   2.464   9.950   0.381 -0.9409  2.4326 -2.9189
12696SOL    HW248403   2.560  10.056   0.431  0.4805 -0.5619  1.1968
12697SOL     OW48404   1.633   0.778   2.602  0.3082  0.2979 -0.2309
12697SOL    HW148405   1.727   0.757   2.606  0.1739 -0.1673  0.7590
12697SOL    HW248406   1.627   0.867   2.637  0.3566  0.2660 -0.1427
12698SOL     OW48407   9.509   4.881   3.331 -0.3786  0.9523  0.0685
12698SOL    HW148408   9.525   4.815   3.398 -0.2558  1.7249  0.8166
12698SOL    HW248409   9.458   4.836   3.264 -1.1179  0.3459  1.0112
12699SOL     OW48410   3.802   9.356  11.978 -0.1683 -0.1048  0.4530
12699SOL    HW148411   3.797   9.437  12.029  0.5548  0.9840 -1.1291
12699SOL    HW248412   3.884   9.315  12.005  0.7436  0.9999 -0.5584
12700SOL     OW48413   5.050   6.016   0.251  0.0995  0.0116 -0.3152
12700SOL    HW148414   5.140   5.983   0.246 -0.1037 -1.0373  1.8598
12700SOL    HW248415   5.060   6.109   0.270  0.7422 -0.1954  0.4191
12701SOL     OW48416   9.945   2.088  10.210 -0.0809  0.0124  0.3923
12701SOL    HW148417  10.039   2.092  10.226 -0.4435 -0.1596  2.8625
12701SOL    HW248418   9.930   2.001  10.174  1.0710  1.2194 -3.5149
12702SOL     OW48419   2.214  10.003   9.293  0.4782  0.1655 -0.0199
12702SOL    HW148420   2.241  10.094   9.281 -0.7948  0.8571  1.8292
12702SOL    HW248421   2.283   9.965   9.349 -0.0461  0.6368  0.9755
12703SOL     OW48422   0.071  12.500   0.044 -0.5943 -0.0979 -0.0026
12703SOL    HW148423   0.106  12.575   0.093  2.2032 -1.5305  0.3995
12703SOL    HW248424   0.059  12.533  -0.045  0.6470  0.8511  0.1545
12704SOL     OW48425   3.231  12.368   6.992  0.2965 -0.8640 -1.0698
12704SOL    HW148426   3.277  12.290   7.022  1.0295 -0.2099 -0.4745
12704SOL    HW248427   3.277  12.441   7.034 -2.6779 -0.2655  1.5853
12705SOL     OW48428   0.429   2.219  12.874  0.2877 -0.7723  0.5148
12705SOL    HW148429   0.424   2.130  12.840  0.7643 -0.3876 -0.6157
12705SOL    HW248430   0.516   2.226  12.911  0.1111 -0.8903  0.9600
12706SOL     OW48431   2.036   9.220   1.638  0.6500  0.1174  0.0503
12706SOL    HW148432   2.064   9.279   1.569  0.0185  0.1276 -0.2074
12706SOL    HW248433   1.942   9.239   1.649  0.9823  1.0077  1.7696
12707SOL     OW48434   3.284   8.373  11.992 -0.0686 -0.2696 -0.1394
12707SOL    HW148435   3.277   8.278  11.999 -2.0750 -0.0587  1.8722
12707SOL    HW248436   3.222   8.406  12.057 -0.8183  2.4408 -2.0911
12708SOL     OW48437   2.618   6.000   5.152  0.2598  0.1055 -0.4525
12708SOL    HW148438   2.634   5.962   5.065 -0.1850 -0.7598 -0.1695
12708SOL    HW248439   2.705   6.008   5.191  0.6106  1.8565 -1.5093
12709SOL     OW48440   6.029   9.110   4.307  1.0455  0.1379  0.0682
12709SOL    HW148441   5.991   9.025   4.285 -0.3064  1.0367 -1.2159
12709SOL    HW248442   6.081   9.134   4.231  2.2132  0.0478  0.8198
12710SOL     OW48443  11.871   4.471  12.804  0.6195  0.3022 -0.4884
12710SOL    HW148444  11.809   4.489  12.875 -0.4018 -0.7529 -1.0695
12710SOL    HW248445  11.880   4.554  12.759  0.0074  0.5986 -0.0838
12711SOL     OW48446   9.352   8.588   5.386 -0.0883  0.1266  0.2210
12711SOL    HW148447   9.293   8.548   5.322 -0.3259  0.1103  0.4463
12711SOL    HW248448   9.363   8.678   5.357  1.3408 -0.3827 -0.9226
12712SOL     OW48449   1.472  11.204   8.289 -0.4094 -0.2460  0.0254
12712SOL    HW148450   1.461  11.297   8.308  0.8114 -0.1301  0.2818
12712SOL    HW248451   1.390  11.164   8.317 -0.7419  0.6742  0.4264
12713SOL     OW48452   8.534   1.357   3.855  0.4595  0.4458 -0.5169
12713SOL    HW148453   8.484   1.323   3.929 -0.0087  0.2504 -0.9231
12713SOL    HW248454   8.578   1.435   3.891  1.7447 -0.6956  0.4853
12714SOL     OW48455   5.609   1.099   7.641  0.1676  0.2837  0.0795
12714SOL    HW148456   5.547   1.163   7.607 -0.2483  0.3039  0.8674
12714SOL    HW248457   5.677   1.094   7.574 -0.9460 -0.1286 -1.0483
12715SOL     OW48458   6.207   7.566   8.374  0.0834 -0.3197  0.4847
12715SOL    HW148459   6.259   7.486   8.378  0.6679 -0.0802 -1.5596
12715SOL    HW248460   6.240   7.620   8.446  0.0205 -1.6835  1.5732
12716SOL     OW48461   2.305   6.791   2.928 -0.4648 -0.1587  0.0907
12716SOL    HW148462   2.238   6.728   2.952 -0.1667 -1.1072 -1.4942
12716SOL    HW248463   2.259   6.858   2.878 -0.7455  0.8473  1.6084
12717SOL     OW48464  12.209   1.156   7.832 -0.3176  0.0854 -0.0044
12717SOL    HW148465  12.132   1.102   7.851  0.4334 -0.6358  1.0810
12717SOL    HW248466  12.245   1.119   7.752 -1.9149  1.3757 -1.4096
12718SOL     OW48467   4.832   7.849   5.653 -0.3327  0.2500  0.5112
12718SOL    HW148468   4.819   7.779   5.717 -1.1949  0.0513  0.1390
12718SOL    HW248469   4.916   7.829   5.612  0.2410  0.3968  1.5895
12719SOL     OW48470  10.196   2.652   8.471  0.2092 -0.3397 -0.3725
12719SOL    HW148471  10.274   2.609   8.504  0.0814  0.5110  1.1228
12719SOL    HW248472  10.213   2.746   8.482 -1.3827 -0.1527  0.8935
12720SOL     OW48473   2.619  11.777  10.739 -0.0630  0.0795 -0.0169
12720SOL    HW148474   2.622  11.871  10.755 -0.0592  0.2080 -0.7101
12720SOL    HW248475   2.663  11.767  10.654 -2.4754 -0.2035 -1.3140
12721SOL     OW48476   9.373  10.034  12.816 -0.0573 -0.2196 -0.0547
12721SOL    HW148477   9.451  10.033  12.761 -0.5367 -1.8482 -0.7534
12721SOL    HW248478   9.350  10.127  12.823  3.3852  0.6546  2.3352
12722SOL     OW48479   9.640   2.581  10.966 -0.4495  0.1969  0.5743
12722SOL    HW148480   9.580   2.531  10.911 -1.1868  0.9542  0.6782
12722SOL    HW248481   9.727   2.563  10.929 -0.8135 -0.2725 -0.0704
12723SOL     OW48482   5.354   9.237   4.521  0.6652  0.0449 -0.5462
12723SOL    HW148483   5.442   9.199   4.514  0.3566 -0.7073 -0.3975
12723SOL    HW248484   5.295   9.164   4.503  0.0427  0.2329  0.6155
12724SOL     OW48485   5.877   4.868   7.772  0.9382  0.2784 -0.0262
12724SOL    HW148486   5.883   4.778   7.803  0.0909  1.1967  3.1641
12724SOL    HW248487   5.787   4.877   7.742  1.4403 -0.2803 -1.8611
12725SOL     OW48488  10.491  10.751   7.045 -0.0329 -0.3468  0.2039
12725SOL    HW148489  10.502  10.656   7.038  0.4696 -0.3570  0.9113
12725SOL    HW248490  10.580  10.785   7.039 -0.2180  0.0833 -0.0965
12726SOL     OW48491  10.999  12.636   7.086 -0.1189 -0.2989  0.2745
12726SOL    HW148492  10.999  12.578   7.010 -0.5532 -2.2409  1.6797
12726SOL    HW248493  11.091  12.661   7.097  0.0058 -0.3506 -0.6094
12727SOL     OW48494   7.083   8.514   8.096  0.2795 -0.8137  0.5180
12727SOL    HW148495   7.164   8.561   8.079 -0.7283  0.5386 -0.8372
12727SOL    HW248496   7.063   8.535   8.188  0.9705 -0.3824  0.5803
12728SOL     OW48497  11.361   2.855   3.708  0.4988 -0.1902 -0.5899
12728SOL    HW148498  11.299   2.929   3.711 -0.6352 -1.0849 -1.1505
12728SOL    HW248499  11.376   2.834   3.800  2.4487  1.9856 -0.3106
12729SOL     OW48500   5.238   8.303   5.938 -0.2193  0.3694 -0.2535
12729SOL    HW148501   5.151   8.331   5.909 -0.5986 -1.2140 -0.7360
12729SOL    HW248502   5.276   8.260   5.861  0.8695  0.7464  0.0544
12730SOL     OW48503   6.085   5.657   3.973  0.1590  0.1033  0.2052
12730SOL    HW148504   6.133   5.638   4.054 -0.4345  2.2253  1.0989
12730SOL    HW248505   6.150   5.700   3.917  0.0667  0.3665  0.2998
12731SOL     OW48506   3.023  10.464   6.158  0.2348 -0.3336  0.0643
12731SOL    HW148507   3.039  10.513   6.238  2.6826 -0.4449 -0.2985
12731SOL    HW248508   3.019  10.531   6.089 -0.4763 -0.3506  0.0813
12732SOL     OW48509  11.774  10.081   2.674 -0.4302 -0.0100 -0.4745
12732SOL    HW148510  11.715  10.005   2.674 -0.8379  0.2907 -1.0751
12732SOL    HW248511  11.852  10.051   2.720 -1.3206 -0.2109  0.9714
12733SOL     OW48512  11.179   1.297   6.080  0.4338  0.2805 -0.1787
12733SOL    HW148513  11.227   1.370   6.042  1.5703 -0.5818 -0.4606
12733SOL    HW248514  11.125   1.336   6.148  2.3889  1.1741  0.9443
12734SOL     OW48515   4.090   5.933  10.975 -0.5391 -0.4651 -1.1318
12734SOL    HW148516   4.166   5.981  10.942 -0.0830 -1.0969 -1.0279
12734SOL    HW248517   4.079   5.963  11.065  1.5853 -2.6601 -0.0406
12735SOL     OW48518  12.918   2.120   3.946 -0.1024 -0.4560 -0.0894
12735SOL    HW148519  12.985   2.162   4.000 -0.3465 -0.8247  0.5114
12735SOL    HW248520  12.965   2.057   3.893  0.1151 -0.2303 -0.1666
12736SOL     OW48521   7.034  10.505   0.578 -0.0167 -0.3078  0.2292
12736SOL    HW148522   6.946  10.469   0.566 -0.4110  0.5992  0.3165
12736SOL    HW248523   7.084  10.434   0.618 -1.2381 -0.1913  2.0603
12737SOL     OW48524   2.741   7.602   2.209  0.3867 -0.6525 -0.1059
12737SOL    HW148525   2.829   7.638   2.221  0.7271 -1.4100 -0.2405
12737SOL    HW248526   2.721   7.618   2.117 -0.3833  1.1576  0.3475
12738SOL     OW48527   2.833   9.724   0.452  0.3338 -0.8202  0.2417
12738SOL    HW148528   2.832   9.820   0.456  2.8152 -0.6854 -1.0673
12738SOL    HW248529   2.790   9.703   0.369  1.0251 -0.7680 -0.1313
12739SOL     OW48530   8.244  12.266   4.476 -0.0295 -0.2813  0.4282
12739SOL    HW148531   8.148  12.267   4.474 -0.0182 -0.2178 -1.1648
12739SOL    HW248532   8.266  12.176   4.501 -0.4975 -0.4509  0.2416
12740SOL     OW48533  10.075  11.241  12.049  0.0626 -0.4114  0.6581
12740SOL    HW148534  10.001  11.297  12.071  0.6799  0.4218  0.6282
12740SOL    HW248535  10.085  11.251  11.954  0.9086  0.3476  0.8212
12741SOL     OW48536  10.913  11.134   2.055 -0.2753  0.2177 -0.1219
12741SOL    HW148537  10.871  11.148   2.139 -1.2780  0.5983 -0.6679
12741SOL    HW248538  10.993  11.085   2.075 -1.3068 -1.1365  0.8770
12742SOL     OW48539  12.549   2.809   0.226  0.1239 -0.6825  0.1932
12742SOL    HW148540  12.592   2.863   0.160  0.2373  0.0690  0.8696
12742SOL    HW248541  12.457   2.837   0.223 -0.0079 -1.1454 -0.1311
12743SOL     OW48542   7.543   3.919   5.825 -0.1755  0.1206 -0.2329
12743SOL    HW148543   7.484   3.852   5.859  0.1276 -0.5681 -0.9996
12743SOL    HW248544   7.523   3.998   5.874 -1.8476 -0.0521 -0.5978
12744SOL     OW48545  11.015   5.252  10.626 -0.4282 -0.9587  0.1485
12744SOL    HW148546  11.036   5.345  10.628  0.2756 -1.0467 -1.6033
12744SOL    HW248547  11.077   5.212  10.686  0.2468 -0.4750 -0.2172
12745SOL     OW48548   7.022   4.518   0.054 -0.2538 -0.1340  0.2344
12745SOL    HW148549   7.024   4.498  -0.040 -1.8413  0.3326  0.0821
12745SOL    HW248550   7.057   4.439   0.096 -1.2657 -1.0769 -0.6495
12746SOL     OW48551  12.641   3.527   9.771 -0.3813 -0.5929 -0.1560
12746SOL    HW148552  12.626   3.465   9.842  0.3170 -0.8947 -0.2638
12746SOL    HW248553  12.695   3.596   9.810 -0.2009 -0.6348 -0.3321
12747SOL     OW48554   8.440   6.541   6.681 -0.4406 -0.1236 -0.0321
12747SOL    HW148555   8.476   6.626   6.703  2.6591 -1.2553 -0.1748
12747SOL    HW248556   8.408   6.506   6.763  2.0453 -0.3786  0.9302
12748SOL     OW48557   3.014   8.741   2.668  0.0582  0.0613 -0.6017
12748SOL    HW148558   3.055   8.684   2.603  0.5547 -0.0894 -0.1616
12748SOL    HW248559   2.980   8.681   2.735 -0.1188  0.2375 -0.5306
12749SOL     OW48560   6.311   2.250   1.759 -0.1933 -0.7736  0.1534
12749SOL    HW148561   6.222   2.271   1.730  0.2458  0.2956 -0.4943
12749SOL    HW248562   6.354   2.217   1.681 -0.3580 -2.4834  0.7575
12750SOL     OW48563   4.290   7.717   0.471  0.7244 -0.3993 -0.2623
12750SOL    HW148564   4.361   7.774   0.440  0.4506 -0.1242 -0.3842
12750SOL    HW248565   4.211   7.752   0.429  0.3344  0.0296  0.7919
12751SOL     OW48566   0.832  10.453   1.653 -0.1602  0.0618  0.4942
12751SOL    HW148567   0.811  10.385   1.589  1.5570 -0.5614  0.5339
12751SOL    HW248568   0.870  10.406   1.727 -0.2124  0.9527  1.1036
12752SOL     OW48569  10.016   2.938   7.253 -0.6838 -0.1391  0.2165
12752SOL    HW148570  10.055   2.969   7.335  2.4703 -1.2275 -0.7677
12752SOL    HW248571   9.979   3.017   7.213  0.9247  1.0936  1.0383
12753SOL     OW48572   5.051  11.659   3.826 -0.6270 -0.0761 -0.3363
12753SOL    HW148573   5.116  11.687   3.762 -1.7406  2.7891 -0.3661
12753SOL    HW248574   5.000  11.591   3.782  1.2333 -1.1499 -0.9049
12754SOL     OW48575   2.398   0.728   6.636 -0.2776 -1.2265 -0.1730
12754SOL    HW148576   2.479   0.679   6.643  0.0507 -0.5182  1.7639
12754SOL    HW248577   2.329   0.665   6.655 -0.1434 -1.6606 -1.0791
12755SOL     OW48578  10.683   4.796   5.198 -0.1676  0.1877  0.3465
12755SOL    HW148579  10.771   4.808   5.161  0.0475 -0.4771  0.6228
12755SOL    HW248580  10.675   4.701   5.209 -0.1582  0.3682  2.1653
12756SOL     OW48581   7.592  11.225   6.475 -0.3193 -0.2140  0.4592
12756SOL    HW148582   7.636  11.275   6.406  1.6999 -0.8541  1.1953
12756SOL    HW248583   7.540  11.290   6.522  1.5909  1.0940  0.8826
12757SOL     OW48584   1.023   2.119   4.837 -0.1139  0.0422 -0.3328
12757SOL    HW148585   1.037   2.097   4.929  2.3611  0.1990 -0.6077
12757SOL    HW248586   1.024   2.215   4.835 -0.8533  0.0515 -0.4416
12758SOL     OW48587   6.088   9.429  12.209  0.1884 -0.5172 -0.2439
12758SOL    HW148588   6.174   9.426  12.251  0.5177  0.2476 -0.8565
12758SOL    HW248589   6.106   9.452  12.118 -0.5548 -1.7267 -0.7316
12759SOL     OW48590  10.937   3.385   7.847  0.0454  0.4295 -0.3156
12759SOL    HW148591  10.979   3.431   7.774 -0.7085 -0.5743 -1.4257
12759SOL    HW248592  10.917   3.454   7.910  2.3278  1.0729 -0.2276
12760SOL     OW48593   3.478   0.889   6.839  0.1772  0.0787 -0.2343
12760SOL    HW148594   3.433   0.838   6.907  0.9437 -0.5169 -0.1513
12760SOL    HW248595   3.560   0.842   6.825  0.9476  1.3540 -0.1118
12761SOL     OW48596   3.847   3.670  12.824 -0.2731  0.2004 -0.5585
12761SOL    HW148597   3.763   3.625  12.831 -0.1825 -0.2078 -1.8785
12761SOL    HW248598   3.834   3.735  12.755 -0.0237  1.3632  0.4522
12762SOL     OW48599   6.289   0.922   5.806 -0.1685 -0.1808 -0.1791
12762SOL    HW148600   6.242   0.861   5.749 -0.2886  0.2039 -0.4931
12762SOL    HW248601   6.221   0.964   5.859 -0.0903 -0.2793  0.0018
12763SOL     OW48602   4.233   4.115   3.656  0.5580 -0.2106 -0.1791
12763SOL    HW148603   4.294   4.161   3.599  0.1584  0.8592  0.2375
12763SOL    HW248604   4.179   4.184   3.695  0.9247 -0.8646  1.6130
12764SOL     OW48605   6.414   3.220   7.002 -0.3263  0.3817 -0.5673
12764SOL    HW148606   6.478   3.174   7.057 -0.7894 -0.9595 -1.0965
12764SOL    HW248607   6.467   3.264   6.936  0.0864 -1.2451 -1.3940
12765SOL     OW48608   7.975   6.809   8.097  0.4657 -0.0593 -0.1254
12765SOL    HW148609   8.055   6.855   8.072  0.4554 -0.0284 -0.1013
12765SOL    HW248610   7.983   6.724   8.054  0.7228 -0.2240  0.2414
12766SOL     OW48611   9.903   7.346   2.151 -0.2503  0.6924  0.0156
12766SOL    HW148612   9.953   7.382   2.225  2.1267 -0.3992 -0.9406
12766SOL    HW248613   9.873   7.260   2.182 -1.2690  1.1929  0.4621
12767SOL     OW48614   3.880   7.361   6.931 -0.1676 -0.3503  0.1551
12767SOL    HW148615   3.889   7.377   6.837 -1.6749  0.9119  0.1686
12767SOL    HW248616   3.928   7.433   6.972 -3.1298  1.7588  0.2508
12768SOL     OW48617   0.533   1.560   6.354  0.2017  0.1244 -0.0414
12768SOL    HW148618   0.541   1.478   6.404  0.8897 -0.3891 -0.9584
12768SOL    HW248619   0.450   1.552   6.309  1.2243 -1.0939 -1.8386
12769SOL     OW48620  11.631   6.015   0.296  0.5530  0.3267  0.2750
12769SOL    HW148621  11.549   6.062   0.311  0.3800  0.0542  0.1728
12769SOL    HW248622  11.672   6.062   0.222 -0.8838 -1.3110 -1.6582
12770SOL     OW48623  11.218   3.662  11.057 -0.2929 -0.1840  0.2489
12770SOL    HW148624  11.304   3.703  11.056 -0.6068  0.4719 -0.1897
12770SOL    HW248625  11.212   3.616  10.973 -1.2912  1.7480 -0.8024
12771SOL     OW48626   4.247  12.519   9.709 -0.1733  0.0294  0.6557
12771SOL    HW148627   4.225  12.539   9.800 -0.8319 -0.3919  0.6002
12771SOL    HW248628   4.166  12.535   9.661  0.0516 -0.1596  0.2099
12772SOL     OW48629   5.513   9.840   4.664  0.0725 -0.4703 -0.5963
12772SOL    HW148630   5.555   9.920   4.631  1.4966 -1.7088 -1.9420
12772SOL    HW248631   5.439   9.826   4.606 -0.3576  0.0273 -0.1721
12773SOL     OW48632   6.974   8.670   3.368 -0.1962  0.4108  0.3730
12773SOL    HW148633   6.891   8.622   3.364  0.5527 -0.8572 -1.7071
12773SOL    HW248634   7.032   8.614   3.418  0.1012  0.0742 -0.3323
12774SOL     OW48635   3.466   9.205   5.088 -0.2068 -0.4202 -0.7961
12774SOL    HW148636   3.559   9.211   5.109 -0.2527 -0.3138 -0.6264
12774SOL    HW248637   3.443   9.114   5.110  0.1466 -0.8278 -2.0194
12775SOL     OW48638   5.153   9.906  12.187 -0.0266  0.0004  1.1307
12775SOL    HW148639   5.090   9.975  12.164  1.4165  0.8725 -0.4405
12775SOL    HW248640   5.194   9.883  12.103  1.3108 -0.9644  2.0250
12776SOL     OW48641   0.079   0.284   0.661 -0.1163 -0.1674 -1.2580
12776SOL    HW148642   0.080   0.380   0.668  2.0889 -0.1948 -0.2453
12776SOL    HW248643   0.012   0.256   0.724  0.9284  0.6692  0.3093
12777SOL     OW48644  12.188  10.810   7.474 -0.1356 -0.2678 -0.2124
12777SOL    HW148645  12.138  10.757   7.411 -0.8746 -1.3940  1.2641
12777SOL    HW248646  12.156  10.899   7.460  0.1702 -0.3703 -1.8367
12778SOL     OW48647  11.627   5.784  10.833 -0.1462  0.1553 -0.0034
12778SOL    HW148648  11.599   5.692  10.837 -0.7790  0.3253 -0.4994
12778SOL    HW248649  11.549   5.834  10.854  0.6722  0.5526  2.3612
12779SOL     OW48650   0.875   4.133   4.810  0.2658 -0.1538 -1.0893
12779SOL    HW148651   0.842   4.219   4.783  0.3863  1.1000  2.2268
12779SOL    HW248652   0.968   4.147   4.824  0.1743 -0.6226  0.0713
12780SOL     OW48653   3.604   6.365   3.956  0.0234 -0.2581  0.0964
12780SOL    HW148654   3.658   6.339   3.881 -0.8409  0.8445 -0.9495
12780SOL    HW248655   3.622   6.458   3.967  1.1939 -0.6529  2.2002
12781SOL     OW48656   3.088   1.639   6.399 -0.3010 -0.1134  0.2084
12781SOL    HW148657   3.056   1.682   6.478 -1.6246  2.2544 -1.4940
12781SOL    HW248658   3.127   1.558   6.431 -0.7142  0.7468  3.2740
12782SOL     OW48659   5.374   6.851   2.368 -0.0978  0.2112 -0.1754
12782SOL    HW148660   5.455   6.846   2.418  1.0818 -0.4096 -2.0203
12782SOL    HW248661   5.397   6.901   2.289 -1.0280 -1.3514 -1.5248
12783SOL     OW48662   3.048   9.140   7.167  0.1990  0.2119 -0.0419
12783SOL    HW148663   2.960   9.141   7.131 -0.1645 -2.7409  0.5223
12783SOL    HW248664   3.085   9.056   7.139  1.6843 -0.0114  2.3109
12784SOL     OW48665  11.965   3.611   5.249 -0.6037 -0.3154 -0.6929
12784SOL    HW148666  12.054   3.577   5.235 -0.3689  0.2332 -0.5546
12784SOL    HW248667  11.920   3.541   5.296  0.6096  0.4850  1.8748
12785SOL     OW48668   2.350   4.183   3.264  0.0946  0.5145  0.4402
12785SOL    HW148669   2.414   4.122   3.302 -1.3992 -0.5571  1.3850
12785SOL    HW248670   2.392   4.268   3.268  2.6039 -0.4881 -1.6895
12786SOL     OW48671  11.521  10.284   2.332  0.7459 -0.1752 -0.2999
12786SOL    HW148672  11.612  10.278   2.363  0.0556  1.6863  2.4252
12786SOL    HW248673  11.524  10.350   2.263  1.4137  0.1314  0.0135
12787SOL     OW48674   2.858   9.515   1.855  0.1640 -0.3737  0.0827
12787SOL    HW148675   2.907   9.434   1.844 -0.5088 -0.7715 -0.0954
12787SOL    HW248676   2.771   9.487   1.884  0.3229  0.3666  1.3864
12788SOL     OW48677   6.334  10.336   1.721 -0.0264 -0.3790 -0.2288
12788SOL    HW148678   6.300  10.247   1.737  1.1908 -1.3002 -2.4041
12788SOL    HW248679   6.278  10.371   1.652 -0.4661  0.5869  0.5837
12789SOL     OW48680  10.146   0.895   4.900 -0.1428 -0.4718 -0.1359
12789SOL    HW148681  10.099   0.823   4.858 -0.6413  0.9095 -2.1329
12789SOL    HW248682  10.078   0.941   4.950 -0.4217  0.1356 -1.0555
12790SOL     OW48683   0.798   6.525   5.868 -0.4228  0.1941  0.1564
12790SOL    HW148684   0.756   6.610   5.855  0.8448  0.8047 -0.0457
12790SOL    HW248685   0.889   6.538   5.843 -0.3303 -1.4019 -0.4939
12791SOL     OW48686   7.931   6.142   4.633 -0.2853  0.1837  0.6774
12791SOL    HW148687   7.942   6.233   4.605  1.5478  0.5421  2.3293
12791SOL    HW248688   7.857   6.145   4.694 -0.0611  0.6468  0.9384
12792SOL     OW48689   3.134  12.665   2.877 -0.1829 -0.3225 -0.6166
12792SOL    HW148690   3.161  12.643   2.788 -1.6546 -2.1840 -0.6789
12792SOL    HW248691   3.206  12.633   2.932 -0.5694 -1.9745 -0.9964
12793SOL     OW48692   0.797   6.899  11.987 -0.1043  0.8593  0.5323
12793SOL    HW148693   0.834   6.946  11.912 -0.1557  0.1821  0.0832
12793SOL    HW248694   0.757   6.820  11.950 -1.0637  1.0337  1.1375
12794SOL     OW48695   4.599   9.966   8.115 -0.5497 -0.2156  0.1852
12794SOL    HW148696   4.671   9.987   8.174  0.5842 -0.7442 -0.9673
12794SOL    HW248697   4.538  10.040   8.124 -1.0329 -0.8042  2.8656
12795SOL     OW48698  10.376   4.700   0.604 -0.0941  0.3111  0.2070
12795SOL    HW148699  10.307   4.712   0.538 -1.5528  1.5721  1.8807
12795SOL    HW248700  10.331   4.666   0.680  1.3472  0.1093  1.0058
12796SOL     OW48701   0.631   4.157  11.552 -0.5300  0.1408 -0.2787
12796SOL    HW148702   0.568   4.170  11.482  0.2999  0.4132 -0.9881
12796SOL    HW248703   0.708   4.207  11.525 -0.3640  0.6490  1.0514
12797SOL     OW48704   8.660   9.010   4.881  0.4767  0.0494  0.1732
12797SOL    HW148705   8.664   9.063   4.961 -3.1147  0.7406  0.0581
12797SOL    HW248706   8.668   9.073   4.810  0.1172 -0.0916  0.0075
12798SOL     OW48707   5.840   5.390   3.646  0.5441 -0.2112 -0.0291
12798SOL    HW148708   5.806   5.319   3.591 -0.8172  0.0781  0.4102
12798SOL    HW248709   5.772   5.404   3.711  2.5196 -1.2354  2.4197
12799SOL     OW48710   0.841   1.160   3.465  0.5347 -0.3161 -0.1525
12799SOL    HW148711   0.800   1.228   3.519  1.4957  0.2276 -0.0701
12799SOL    HW248712   0.896   1.111   3.526  2.6694  1.1316 -0.8012
12800SOL     OW48713   4.874   9.834  10.637  0.1559  0.6167 -0.1573
12800SOL    HW148714   4.863   9.766  10.703  0.4989  0.3692 -0.3534
12800SOL    HW248715   4.843   9.914  10.680 -0.0571  0.3769  0.1418
12801SOL     OW48716   8.566  10.797   8.840 -0.4084  0.0319 -0.1407
12801SOL    HW148717   8.491  10.794   8.780 -0.0646  1.7588 -0.7195
12801SOL    HW248718   8.527  10.817   8.926 -0.7500 -0.7669 -0.1043
12802SOL     OW48719   1.945   1.219  10.790  0.6760 -0.3126 -0.4190
12802SOL    HW148720   1.904   1.303  10.769 -0.4340 -1.0132 -1.2336
12802SOL    HW248721   1.910   1.196  10.876 -2.3014 -1.7575 -1.8400
12803SOL     OW48722   6.974  10.232   2.442 -0.5766 -0.3829  1.0393
12803SOL    HW148723   6.896  10.177   2.443 -0.0357 -1.1794  0.9024
12803SOL    HW248724   7.022  10.207   2.521 -1.1649  1.1851  1.9426
12804SOL     OW48725   6.528   7.817   9.171  1.1514  0.4821  0.7644
12804SOL    HW148726   6.559   7.862   9.093  2.7176  0.0062  1.0797
12804SOL    HW248727   6.607   7.801   9.223  0.3028 -0.2972  1.8696
12805SOL     OW48728  12.245   3.905   6.757 -0.2011  0.0974 -0.0005
12805SOL    HW148729  12.319   3.850   6.782 -0.2931 -0.1682 -0.3047
12805SOL    HW248730  12.281   3.993   6.750 -0.3498  0.3621  1.9772
12806SOL     OW48731   8.012  11.326   8.997  0.2929  0.1637  0.2238
12806SOL    HW148732   8.018  11.271   8.918  1.9258 -0.2927  0.6134
12806SOL    HW248733   8.096  11.373   8.998 -0.9770  2.5828 -0.0015
12807SOL     OW48734  12.299   7.683   5.817  0.0152  0.2137 -0.1981
12807SOL    HW148735  12.246   7.684   5.737 -0.9244 -0.4280  0.3863
12807SOL    HW248736  12.319   7.590   5.830 -1.8229  0.0125  1.5461
12808SOL     OW48737   5.495   2.705   6.459 -0.0739  0.3033  0.0108
12808SOL    HW148738   5.513   2.671   6.547  0.1497  0.0251 -0.1440
12808SOL    HW248739   5.558   2.661   6.403  0.1218  0.8645 -0.2129
12809SOL     OW48740   1.155   9.816   9.204  0.5514 -0.3978 -0.5945
12809SOL    HW148741   1.120   9.891   9.155  0.1403 -1.2864 -1.7132
12809SOL    HW248742   1.079   9.778   9.248  0.6039 -0.6696 -0.7374
12810SOL     OW48743   8.283  10.287   8.226  0.2267 -0.0018  0.2088
12810SOL    HW148744   8.277  10.324   8.137  0.1491  1.2163  0.7035
12810SOL    HW248745   8.348  10.217   8.218  0.1098 -0.0141 -0.8435
12811SOL     OW48746   5.952   0.091   4.363  0.1226  0.3848 -0.0163
12811SOL    HW148747   5.976   0.025   4.428  1.2368  1.0680  0.2936
12811SOL    HW248748   6.035   0.113   4.320 -0.6849 -0.6916 -2.3275
12812SOL     OW48749   0.057   8.771   1.201 -0.0738  0.1653 -0.3644
12812SOL    HW148750  -0.027   8.782   1.157 -0.0986 -0.1672 -0.4036
12812SOL    HW248751   0.050   8.687   1.246  0.2305  0.1422 -0.3557
12813SOL     OW48752   5.947  11.239   3.983  0.5079 -0.1864  0.2319
12813SOL    HW148753   5.965  11.267   4.073  1.2068  3.4876 -0.8694
12813SOL    HW248754   6.033  11.224   3.944  0.3112 -0.0296 -0.2764
12814SOL     OW48755   2.270  10.902   1.789 -0.3497  0.3424 -0.3706
12814SOL    HW148756   2.216  10.935   1.862  1.2737  0.4328  0.8402
12814SOL    HW248757   2.260  10.807   1.794  2.0891  0.0783  1.9989
12815SOL     OW48758   0.094   5.463  10.002 -0.9373 -0.1933 -0.7254
12815SOL    HW148759   0.169   5.405  10.000  1.0390  2.2097 -2.2999
12815SOL    HW248760   0.127   5.543  10.045 -3.3978  0.0178  1.0023
12816SOL     OW48761   0.125   1.280   0.958  0.4114  0.2314  0.5211
12816SOL    HW148762   0.146   1.373   0.960  0.2918  0.2543  0.7946
12816SOL    HW248763   0.048   1.272   1.014  0.4040 -0.0275  0.4744
12817SOL     OW48764   2.111   2.839   7.814  0.0283 -0.1128 -0.3768
12817SOL    HW148765   2.187   2.795   7.851 -0.0860  0.7147  0.8843
12817SOL    HW248766   2.128   2.932   7.825 -0.8085  0.1053 -0.8017
12818SOL     OW48767   8.636   9.726  10.000 -0.0481  0.0054 -0.9352
12818SOL    HW148768   8.644   9.631   9.994 -2.8745 -0.2562 -2.0618
12818SOL    HW248769   8.605   9.743  10.089 -1.2738 -0.3362 -1.2788
12819SOL     OW48770  11.423  10.607  11.869  0.0687 -0.3822 -0.2583
12819SOL    HW148771  11.457  10.576  11.785 -1.2063  0.7240 -1.2249
12819SOL    HW248772  11.490  10.666  11.902  0.3643 -0.4390 -0.7519
12820SOL     OW48773  10.833   5.877   0.320 -0.5643 -0.2572  0.1675
12820SOL    HW148774  10.738   5.879   0.306 -0.6597  3.5150  0.3828
12820SOL    HW248775  10.843   5.893   0.414  0.3601 -1.6331  0.3421
12821SOL     OW48776   1.273   0.648   4.647 -0.6891  0.3520 -0.1265
12821SOL    HW148777   1.283   0.553   4.650  0.2498  0.4376 -0.2839
12821SOL    HW248778   1.262   0.674   4.739 -1.2067  0.0636 -0.1081
12822SOL     OW48779   7.036   8.021  11.105 -0.0612  0.2574 -0.0907
12822SOL    HW148780   7.111   7.995  11.053  0.0909  0.3888  0.0627
12822SOL    HW248781   6.977   8.064  11.042  0.8084  1.8271  0.1166
12823SOL     OW48782  10.906   0.599   6.504 -0.5522  0.3289 -0.1674
12823SOL    HW148783  10.963   0.548   6.562 -0.2990 -0.3503 -0.9862
12823SOL    HW248784  10.821   0.555   6.509 -0.5863  0.3959 -0.1471
12824SOL     OW48785   8.429  12.773   4.629 -0.3027  0.0203  0.2671
12824SOL    HW148786   8.343  12.786   4.668 -1.2355 -1.4436 -1.2005
12824SOL    HW248787   8.445  12.679   4.635  1.6457  0.3624  1.3482
12825SOL     OW48788   8.217   9.015   5.445  0.1021 -0.0617 -0.6007
12825SOL    HW148789   8.188   9.026   5.354 -0.3938 -1.4942 -0.6424
12825SOL    HW248790   8.289   9.078   5.455  1.1416 -0.8733 -2.4347
12826SOL     OW48791   8.653   4.233   4.366 -0.6185  0.2896 -0.1222
12826SOL    HW148792   8.623   4.324   4.361  1.9731  1.2331  0.1943
12826SOL    HW248793   8.746   4.239   4.388 -0.1900 -2.4373 -0.7942
12827SOL     OW48794   4.218   1.195   5.163 -0.1909  0.0637 -0.4111
12827SOL    HW148795   4.234   1.245   5.243  1.0386  0.8374 -1.1226
12827SOL    HW248796   4.123   1.184   5.161 -0.2219 -0.4285  1.4137
12828SOL     OW48797   9.582  11.283  10.667 -0.5223  0.0457 -0.0014
12828SOL    HW148798   9.534  11.206  10.636 -0.5943 -0.2069  0.7154
12828SOL    HW248799   9.569  11.283  10.762  0.2429  0.4200  0.1156
12829SOL     OW48800  11.393   9.634   3.376 -0.2004 -0.3758  0.3738
12829SOL    HW148801  11.399   9.565   3.442  1.1494  1.1507  1.8933
12829SOL    HW248802  11.482   9.645   3.344 -0.3803  0.7375  0.2206
12830SOL     OW48803  11.100   4.702  12.974  0.0930  0.1340  0.5270
12830SOL    HW148804  11.164   4.666  13.036 -0.8915 -1.1136  0.8664
12830SOL    HW248805  11.055   4.625  12.939 -0.4678  0.9271 -0.5392
12831SOL     OW48806  10.770  12.701   5.872 -0.2317  0.1096  0.4492
12831SOL    HW148807  10.696  12.643   5.892  0.5412 -0.9523  0.3017
12831SOL    HW248808  10.732  12.789   5.874 -1.6669 -0.4472 -0.3869
12832SOL     OW48809  10.850  11.531  11.043 -0.4682 -0.0682 -0.2842
12832SOL    HW148810  10.817  11.574  11.122 -0.0095 -0.4345  0.1094
12832SOL    HW248811  10.865  11.440  11.069 -0.6081 -0.2690 -0.8799
12833SOL     OW48812   5.387  11.762   1.902  0.3177  0.1772 -0.7002
12833SOL    HW148813   5.302  11.804   1.894 -0.4901 -0.8166  1.6874
12833SOL    HW248814   5.368  11.674   1.934  2.1916 -0.4635 -1.1935
12834SOL     OW48815  10.511  11.531   1.912 -0.1546  0.7457  0.0372
12834SOL    HW148816  10.588  11.505   1.962 -2.0353 -1.1183  2.1601
12834SOL    HW248817  10.452  11.570   1.977 -1.0966  2.0558 -1.5114
12835SOL     OW48818   1.656   7.930   2.015 -0.0952  0.1139  0.9190
12835SOL    HW148819   1.627   8.004   1.961  1.2341  0.7045  0.9773
12835SOL    HW248820   1.733   7.895   1.969 -0.9826 -1.5562  0.6355
12836SOL     OW48821   3.718   4.515  12.733 -0.2750  0.5735  0.4223
12836SOL    HW148822   3.739   4.557  12.816 -1.0169 -0.4384  1.1380
12836SOL    HW248823   3.623   4.501  12.736 -0.2213 -0.0206 -0.3246
12837SOL     OW48824   3.399   9.016   2.975  0.0522  0.1619  0.0358
12837SOL    HW148825   3.458   9.033   2.901 -0.1644  0.1851 -0.1321
12837SOL    HW248826   3.324   8.971   2.936 -0.2681  0.5791  0.1711
12838SOL     OW48827   7.759   2.033   7.721 -0.2916  0.1404 -0.7659
12838SOL    HW148828   7.711   2.047   7.640 -0.1433  0.0566 -0.8685
12838SOL    HW248829   7.827   1.970   7.698  0.8515  1.4102 -1.0098
12839SOL     OW48830   9.576   2.695   0.555 -0.7257  0.3170  0.5388
12839SOL    HW148831   9.529   2.613   0.536 -0.3803  0.5071 -1.3119
12839SOL    HW248832   9.510   2.752   0.594 -1.3704 -0.2936  0.3729
12840SOL     OW48833   4.838   7.533  11.944 -0.4403 -0.0312 -0.0066
12840SOL    HW148834   4.794   7.489  11.871 -1.0295 -0.5332  0.6346
12840SOL    HW248835   4.915   7.574  11.905  0.4316 -2.0637 -0.5707
12841SOL     OW48836   6.441   2.049   5.827 -0.0676 -0.7065  0.2393
12841SOL    HW148837   6.397   1.977   5.782  0.3044 -0.0989 -1.1763
12841SOL    HW248838   6.437   2.027   5.920 -2.2139 -1.2784  0.0473
12842SOL     OW48839  11.284  12.374   9.510 -0.2540 -0.6628  0.4922
12842SOL    HW148840  11.312  12.357   9.600  0.4200  2.8223  1.0765
12842SOL    HW248841  11.206  12.429   9.519 -1.0452 -1.4328 -1.1207
12843SOL     OW48842   1.954   5.347  10.970 -0.1579  0.0793  0.5379
12843SOL    HW148843   1.894   5.336  10.896  0.9540 -0.4541 -0.3085
12843SOL    HW248844   1.912   5.301  11.042 -0.4751 -0.8218 -0.2091
12844SOL     OW48845  11.932   7.288   8.516  0.5546  0.1249 -0.0478
12844SOL    HW148846  11.970   7.257   8.434  0.6199 -1.0156  0.3959
12844SOL    HW248847  11.965   7.228   8.582 -0.8173  0.0086  0.5775
12845SOL     OW48848  12.019   8.161  11.048  0.1258 -0.3373  0.4952
12845SOL    HW148849  12.063   8.151  10.963  0.2791 -0.3899  0.5807
12845SOL    HW248850  12.060   8.238  11.087  1.3643 -1.3750  1.3227
12846SOL     OW48851   9.869   1.323   1.022  0.5980  0.3750  0.1079
12846SOL    HW148852   9.937   1.352   1.083 -0.1883  1.0185  0.6820
12846SOL    HW248853   9.817   1.401   1.004  0.6918  0.1554 -1.2476
12847SOL     OW48854   9.194  10.461  10.532 -0.2628  0.3112  0.7776
12847SOL    HW148855   9.102  10.476  10.513 -0.1623  2.3377  1.6084
12847SOL    HW248856   9.195  10.426  10.621 -0.2831 -1.1587  0.2218
12848SOL     OW48857  10.176   3.552   0.589  0.1143  0.3375 -0.0920
12848SOL    HW148858  10.168   3.623   0.652 -0.4742  0.0188  0.2013
12848SOL    HW248859  10.086   3.535   0.560  0.3503  0.3096 -0.8243
12849SOL     OW48860   1.640   8.696   9.427 -0.1550 -0.3643  0.1399
12849SOL    HW148861   1.652   8.668   9.336  1.4281 -0.4448  0.3537
12849SOL    HW248862   1.590   8.777   9.420  0.8954  0.2174 -0.8769
12850SOL     OW48863  11.691   5.077   7.039 -0.2293  0.2430 -0.8035
12850SOL    HW148864  11.747   5.128   6.981  0.4165 -0.5350 -0.8891
12850SOL    HW248865  11.603   5.087   7.002 -0.4562  2.8079  0.2851
12851SOL     OW48866  11.094   2.373   2.967  0.0591  0.1218  0.6225
12851SOL    HW148867  11.074   2.463   2.992  1.2846  0.7316 -0.4568
12851SOL    HW248868  11.012   2.338   2.933 -0.3356  0.9597  0.7097
12852SOL     OW48869   5.120   8.745   7.369 -0.0581  0.5271  0.2715
12852SOL    HW148870   5.188   8.740   7.301 -0.0152 -1.2143  0.3849
12852SOL    HW248871   5.038   8.756   7.320  0.1296  0.8884  0.0354
12853SOL     OW48872   3.957   5.147  12.683 -0.4415  0.2397  0.1871
12853SOL    HW148873   3.960   5.192  12.768 -0.9652  1.8340 -0.5927
12853SOL    HW248874   3.958   5.054  12.705 -0.5323  0.6155  1.9423
12854SOL     OW48875   0.967   7.745   6.487 -0.0711  0.0469 -0.3592
12854SOL    HW148876   0.994   7.693   6.412 -0.2333  0.4448 -0.6953
12854SOL    HW248877   0.872   7.753   6.478 -0.2635 -0.9658  0.5732
12855SOL     OW48878   6.857   4.086   8.674 -0.2702  0.2167 -0.0359
12855SOL    HW148879   6.922   4.148   8.706  0.1555  0.2359 -0.9048
12855SOL    HW248880   6.828   4.122   8.590 -0.8964 -0.1464  0.0156
12856SOL     OW48881   9.552  12.238  10.196  0.2662  0.3984  0.4492
12856SOL    HW148882   9.597  12.155  10.214  0.6494  0.6188  0.5325
12856SOL    HW248883   9.623  12.298  10.172  0.0431  0.8218  0.8348
12857SOL     OW48884  12.556  10.252   1.750 -0.5822  0.3844  0.0286
12857SOL    HW148885  12.584  10.332   1.795 -1.6040  0.0169  1.4044
12857SOL    HW248886  12.570  10.182   1.814 -0.2594 -0.4657 -0.9405
12858SOL     OW48887   1.482  10.662   3.871 -0.4259 -0.3112 -0.1849
12858SOL    HW148888   1.551  10.630   3.812  1.2212  2.5053  0.0220
12858SOL    HW248889   1.511  10.750   3.895 -3.3800  0.3903  1.1814
12859SOL     OW48890   6.616   8.779   5.860  0.6186  0.2797 -0.4741
12859SOL    HW148891   6.678   8.754   5.791  0.3728 -0.7136 -0.3453
12859SOL    HW248892   6.554   8.838   5.816  1.9777  1.7982 -0.4602
12860SOL     OW48893   4.232   0.522   9.916  0.0472  0.6764 -0.1014
12860SOL    HW148894   4.213   0.527   9.823 -0.9266 -1.9392 -0.1116
12860SOL    HW248895   4.327   0.523   9.922  0.1262  2.4161 -0.9402
12861SOL     OW48896  10.947   3.672   5.563 -0.3120 -0.0233  0.3330
12861SOL    HW148897  10.993   3.728   5.502  0.0990 -0.8610 -0.1472
12861SOL    HW248898  10.872   3.638   5.514 -0.4270 -0.0820  0.5458
12862SOL     OW48899   7.934   1.158   1.485 -0.2899  0.8238  0.7145
12862SOL    HW148900   8.007   1.098   1.499 -0.9094 -0.0428  0.3708
12862SOL    HW248901   7.945   1.190   1.396 -0.9009 -0.1531  0.2665
12863SOL     OW48902   1.606   0.254  10.567 -0.5720 -0.1057  0.3961
12863SOL    HW148903   1.563   0.338  10.553  0.5903  0.5302  0.4577
12863SOL    HW248904   1.697   0.277  10.586 -0.1645 -1.3983  0.1249
12864SOL     OW48905   0.721  11.675   7.351  0.3911 -0.3967  0.4718
12864SOL    HW148906   0.631  11.658   7.380  0.0306 -0.8567 -0.8276
12864SOL    HW248907   0.739  11.764   7.381 -1.2335  0.4598 -0.8755
12865SOL     OW48908   4.588   4.514   8.831  0.2920 -0.4842 -0.0718
12865SOL    HW148909   4.528   4.580   8.863  3.3039  2.5309 -0.0941
12865SOL    HW248910   4.543   4.474   8.757 -2.4126  0.1010  1.1486
12866SOL     OW48911   7.039   7.862   7.044  0.0136 -0.1339  0.4517
12866SOL    HW148912   6.953   7.855   7.002 -0.6453  0.9590  1.5508
12866SOL    HW248913   7.100   7.881   6.972 -0.8905  0.4355 -0.1810
12867SOL     OW48914   4.774   9.115  10.024  0.4367 -0.0946 -0.8873
12867SOL    HW148915   4.772   9.136   9.930  0.4784  0.0215 -0.8622
12867SOL    HW248916   4.839   9.174  10.061  0.5709 -0.2846 -0.8197
12868SOL     OW48917   9.998   8.840  12.605 -0.1444  0.4214  0.2021
12868SOL    HW148918   9.909   8.810  12.626  0.0478 -0.1528  0.2250
12868SOL    HW248919   9.990   8.882  12.520 -0.3046 -0.3152 -0.1533
12869SOL     OW48920   8.668  10.643   7.095  0.5368  0.1186 -0.2907
12869SOL    HW148921   8.647  10.591   7.173 -0.5841 -0.3404 -0.8872
12869SOL    HW248922   8.764  10.639   7.089  0.5655 -0.6930  0.4730
12870SOL     OW48923  10.966  10.403  11.459 -0.5507 -0.0401  0.5729
12870SOL    HW148924  11.017  10.389  11.538 -1.9866 -2.8022  1.1307
12870SOL    HW248925  10.967  10.498  11.446  1.5968  0.2923  2.5786
12871SOL     OW48926  10.589   2.608   1.763  0.2552 -0.9158 -0.1887
12871SOL    HW148927  10.552   2.523   1.787  0.1445 -0.0572  3.1582
12871SOL    HW248928  10.515   2.669   1.771  1.1475  0.0381  1.5225
12872SOL     OW48929   5.359   6.619   4.645 -0.0439  0.5515  0.1390
12872SOL    HW148930   5.332   6.603   4.555  1.0262 -0.4098 -0.0263
12872SOL    HW248931   5.447   6.656   4.638 -0.8219  2.6770  0.7143
12873SOL     OW48932  11.903   7.131   2.675 -0.0221  0.1088 -0.6007
12873SOL    HW148933  11.986   7.113   2.720 -0.5984 -0.4420  0.2658
12873SOL    HW248934  11.908   7.081   2.594 -0.2218 -1.3427  0.2599
12874SOL     OW48935   3.422   4.309   0.477 -0.2583 -0.2931  0.7226
12874SOL    HW148936   3.507   4.314   0.434 -0.4843  0.3583  0.3192
12874SOL    HW248937   3.359   4.314   0.405 -0.6404 -0.2764  1.0521
12875SOL     OW48938   2.068   3.886   8.189 -0.9369 -0.3031  0.1751
12875SOL    HW148939   2.099   3.823   8.254  1.8072 -0.4379 -1.1130
12875SOL    HW248940   2.026   3.832   8.122 -0.6461 -0.5363  0.1780
12876SOL     OW48941   4.971   0.420  10.620 -0.6624  0.5594  0.1072
12876SOL    HW148942   5.010   0.376  10.545 -1.0248  0.3609  0.0335
12876SOL    HW248943   4.993   0.512  10.608 -0.8826  0.5564 -0.3493
12877SOL     OW48944   2.862   7.258   3.870  0.1097 -0.1351 -0.2861
12877SOL    HW148945   2.846   7.250   3.964 -0.4980 -0.3926 -0.4052
12877SOL    HW248946   2.786   7.306   3.837 -0.7938 -1.9109 -0.9533
12878SOL     OW48947   2.201   9.900   9.765  0.1288  0.0143  0.1954
12878SOL    HW148948   2.223   9.981   9.811  1.0896 -0.8972  1.4203
12878SOL    HW248949   2.110   9.882   9.789  0.5659 -0.3638  1.6890
12879SOL     OW48950   5.792  11.425   8.532  0.9219 -0.3506 -0.4467
12879SOL    HW148951   5.779  11.477   8.453  0.3594 -0.5997 -0.5264
12879SOL    HW248952   5.773  11.335   8.504 -0.3551 -0.3120  0.2133
12880SOL     OW48953  12.576  11.350   7.105  0.2819 -0.2040 -0.1220
12880SOL    HW148954  12.624  11.352   7.023  0.2531 -0.3282 -0.1417
12880SOL    HW248955  12.486  11.374   7.081  0.4962  0.8170  0.0288
12881SOL     OW48956   7.734   7.557   3.888 -0.0885 -0.3206  0.6591
12881SOL    HW148957   7.780   7.641   3.880 -0.2546 -0.2267  0.6985
12881SOL    HW248958   7.776   7.501   3.823 -0.2528 -0.0869  0.3528
12882SOL     OW48959   5.038   9.681   9.684 -0.3902 -0.1090  0.1114
12882SOL    HW148960   5.117   9.718   9.724 -0.3185  0.2356 -0.3426
12882SOL    HW248961   5.044   9.706   9.592  0.0320 -1.8866 -0.3694
12883SOL     OW48962  11.749   6.767  11.347  0.2684  0.5257  0.1132
12883SOL    HW148963  11.828   6.808  11.381  0.9938 -0.4514 -0.3436
12883SOL    HW248964  11.745   6.794  11.256  1.2109 -1.0146 -0.4296
12884SOL     OW48965   5.292   8.723   4.837  0.3123 -0.3953  0.7991
12884SOL    HW148966   5.291   8.732   4.742 -1.9437 -2.2129  0.5793
12884SOL    HW248967   5.201   8.737   4.864  1.1292  1.6046  2.9262
12885SOL     OW48968   5.711  12.335   4.958 -0.0415 -0.0773  0.1458
12885SOL    HW148969   5.696  12.361   4.868 -0.1858 -0.5744  0.0201
12885SOL    HW248970   5.655  12.393   5.010 -0.5969 -0.3330 -0.1506
12886SOL     OW48971   0.623   1.371   0.094 -0.8230  0.1779  0.0369
12886SOL    HW148972   0.540   1.408   0.125 -1.0827 -0.8579  0.6249
12886SOL    HW248973   0.660   1.328   0.171  0.0859  0.3015 -0.3161
12887SOL     OW48974   3.080   9.650   4.044  0.1108  0.2226 -0.1424
12887SOL    HW148975   3.070   9.707   3.967  0.0234  0.7221  0.2354
12887SOL    HW248976   2.993   9.650   4.084  0.3390  0.5382  0.3564
12888SOL     OW48977   4.275   1.592   4.693 -0.0071  0.3019  0.2093
12888SOL    HW148978   4.267   1.622   4.602 -4.7577 -0.4699  0.1204
12888SOL    HW248979   4.209   1.523   4.701 -1.2752  1.7254  4.7484
12889SOL     OW48980  11.723   7.884   8.966 -0.7470  0.1171 -0.1818
12889SOL    HW148981  11.743   7.830   8.890  2.1845 -0.1457  0.6664
12889SOL    HW248982  11.757   7.835   9.041 -0.0493  2.0647  0.8549
12890SOL     OW48983   2.794   3.842   2.496 -0.4081 -0.3113  0.3214
12890SOL    HW148984   2.878   3.798   2.499 -0.1791  0.0199 -0.7564
12890SOL    HW248985   2.771   3.857   2.587  1.3610  0.8508  0.6042
12891SOL     OW48986  10.517   5.074   1.782 -0.4605 -0.0248 -0.5485
12891SOL    HW148987  10.497   5.110   1.695  2.3163 -0.2706 -1.3650
12891SOL    HW248988  10.506   4.980   1.771 -1.2364  0.0260 -0.2773
12892SOL     OW48989   8.459   1.928   2.222  0.1475 -0.1653  0.8768
12892SOL    HW148990   8.468   1.948   2.315 -2.6323 -0.0249  1.1860
12892SOL    HW248991   8.395   1.991   2.189 -0.4650 -1.5106 -0.6545
12893SOL     OW48992   2.636  12.269   0.460 -0.0609  0.1541  0.1413
12893SOL    HW148993   2.694  12.216   0.407  0.2340  1.7309 -1.1939
12893SOL    HW248994   2.551  12.262   0.418 -0.5087 -0.8821  1.1725
12894SOL     OW48995  11.745   6.971   7.418 -0.4302  0.0869 -0.4671
12894SOL    HW148996  11.692   6.996   7.342  0.1213  2.3798 -0.1455
12894SOL    HW248997  11.821   7.028   7.415  1.1314 -1.8233  0.1722
12895SOL     OW48998   3.536  10.130   0.430  0.0276  0.0252  0.6204
12895SOL    HW148999   3.457  10.077   0.435  0.7590 -1.0074  1.9839
12895SOL    HW249000   3.519  10.204   0.489 -0.5632  0.7363 -0.4192
12896SOL     OW49001  11.294   4.754  12.338 -0.2522 -0.3543 -0.1807
12896SOL    HW149002  11.339   4.792  12.413  1.6657 -2.5628 -0.0916
12896SOL    HW249003  11.223   4.702  12.376  0.1085 -0.6812  0.0585
12897SOL     OW49004  11.236   0.677  10.007  0.3473 -0.4568  0.1285
12897SOL    HW149005  11.182   0.756   9.998  0.9938 -0.1241 -0.9346
12897SOL    HW249006  11.253   0.649   9.918  3.1913  0.3314  0.3155
12898SOL     OW49007   8.018   8.544   9.036  0.2776 -0.2303 -0.0115
12898SOL    HW149008   8.092   8.487   9.014  1.0856  0.4710  0.8114
12898SOL    HW249009   8.046   8.591   9.115 -0.2849  1.4329 -0.7459
12899SOL     OW49010   7.982  10.947   2.100 -0.1508  0.8871  0.1223
12899SOL    HW149011   7.993  10.980   2.189  0.3665  0.7091  0.1274
12899SOL    HW249012   8.070  10.918   2.074 -0.6021 -0.5191  0.1205
12900SOL     OW49013  10.453   0.160   5.788  0.3886  0.2426 -0.1093
12900SOL    HW149014  10.442   0.247   5.752  2.8911  1.2745  1.3443
12900SOL    HW249015  10.440   0.171   5.883 -0.3438 -1.2046 -0.0097
12901SOL     OW49016   0.692   3.187   4.724 -0.1069  0.5679  0.1215
12901SOL    HW149017   0.628   3.225   4.784 -1.4188 -0.8143 -0.3460
12901SOL    HW249018   0.711   3.256   4.661  0.5603  1.7215  1.5367
12902SOL     OW49019   8.611   2.128   0.748 -0.0362 -0.5975 -0.2162
12902SOL    HW149020   8.533   2.182   0.761 -0.6220 -1.6951  1.1505
12902SOL    HW249021   8.684   2.189   0.754 -0.7467  0.3056 -0.5592
12903SOL     OW49022   4.332   7.256   6.388  0.1478 -0.5108 -0.4369
12903SOL    HW149023   4.274   7.198   6.437 -0.5948  0.2033 -0.4432
12903SOL    HW249024   4.353   7.326   6.449 -1.1627  0.6299 -1.2380
12904SOL     OW49025  11.367   4.001   4.576 -0.3262  0.4888 -0.6732
12904SOL    HW149026  11.275   4.008   4.601 -1.1007 -3.3448 -1.8671
12904SOL    HW249027  11.369   3.936   4.506  3.3925 -0.1087 -0.2459
12905SOL     OW49028  10.925   4.526   5.903 -0.2138  0.9061 -0.4681
12905SOL    HW149029  10.847   4.471   5.913  0.0481  0.5803 -0.1833
12905SOL    HW249030  10.933   4.539   5.808 -0.5855  0.8980 -0.5005
12906SOL     OW49031   7.482   4.010   0.459  0.2111 -0.4183 -0.6000
12906SOL    HW149032   7.498   4.090   0.408  0.5568 -1.0393 -1.4816
12906SOL    HW249033   7.560   3.956   0.444  0.3756 -0.5697  0.6958
12907SOL     OW49034   7.003   8.730   0.503 -0.0760 -0.4993  0.2495
12907SOL    HW149035   7.054   8.811   0.498  0.2840 -0.6952  0.6474
12907SOL    HW249036   6.928   8.752   0.558  0.7646 -0.8072  1.5529
12908SOL     OW49037   6.141   1.500  10.927 -0.2482  0.6621 -0.0626
12908SOL    HW149038   6.230   1.536  10.922  0.0124  0.0981  0.3980
12908SOL    HW249039   6.152   1.407  10.906 -0.7938  0.6790 -0.4243
12909SOL     OW49040   6.590   9.008   2.636 -0.4548 -0.9297  0.3103
12909SOL    HW149041   6.677   9.019   2.672  0.3446  0.2311 -1.7615
12909SOL    HW249042   6.578   8.913   2.630  0.8919 -1.1149  0.1726
12910SOL     OW49043   4.013  11.108   8.497 -0.3221  0.0814  0.1064
12910SOL    HW149044   3.964  11.065   8.568 -0.7325  2.7085  1.5577
12910SOL    HW249045   4.040  11.191   8.535  3.5255 -0.3202 -1.3427
12911SOL     OW49046   8.897  12.135   7.126 -0.6026 -0.1608 -0.2329
12911SOL    HW149047   8.865  12.046   7.110 -0.0440 -0.1673 -1.4092
12911SOL    HW249048   8.982  12.123   7.169 -0.9816 -0.1715  0.5306
12912SOL     OW49049   4.333   7.190  11.206  0.5301  0.2339  0.0078
12912SOL    HW149050   4.301   7.136  11.134 -1.2037 -0.8900  1.5319
12912SOL    HW249051   4.328   7.279  11.173 -1.6903 -0.1262 -0.7799
12913SOL     OW49052   4.948   7.522   2.448 -0.3229  0.1161  0.5523
12913SOL    HW149053   5.010   7.451   2.435 -1.2170 -0.7717  1.0666
12913SOL    HW249054   4.880   7.486   2.504 -1.9355  0.6801 -0.9377
12914SOL     OW49055   1.435   4.471   7.976  0.0259  0.0506 -0.2265
12914SOL    HW149056   1.375   4.540   7.947 -1.3021 -1.6762 -1.7730
12914SOL    HW249057   1.392   4.434   8.053  1.0214  1.2559  0.9550
12915SOL     OW49058  11.104   1.545   7.134 -0.2473 -0.0031 -0.0585
12915SOL    HW149059  11.117   1.517   7.224 -1.0837  0.2087  0.1414
12915SOL    HW249060  11.188   1.583   7.107 -0.2341  0.6817  0.9099
12916SOL     OW49061   2.002   9.251   9.380  0.2706 -0.3999 -0.7192
12916SOL    HW149062   2.055   9.271   9.457  0.2771 -1.6019 -0.3907
12916SOL    HW249063   1.918   9.293   9.397  0.5195 -0.0280 -0.3987
12917SOL     OW49064  11.823   2.546   0.769 -0.2115  0.5579 -0.0529
12917SOL    HW149065  11.839   2.641   0.768  0.1076  0.4983 -0.7958
12917SOL    HW249066  11.757   2.535   0.837  0.1424  1.2498  0.4251
12918SOL     OW49067   5.357   0.656   8.596  0.0994  0.6295  0.2714
12918SOL    HW149068   5.371   0.644   8.502  0.4479  2.4189  0.0590
12918SOL    HW249069   5.382   0.572   8.635 -1.7040 -0.7553 -1.3618
12919SOL     OW49070   9.754   3.173   4.921 -0.1278  0.0683 -0.2600
12919SOL    HW149071   9.765   3.078   4.913 -0.1319  0.1654 -1.4950
12919SOL    HW249072   9.662   3.185   4.946 -0.1660 -0.2474 -0.2467
12920SOL     OW49073  12.285   9.061   3.257 -0.1549 -0.4143 -0.2448
12920SOL    HW149074  12.244   9.048   3.342 -2.7571  0.4036 -1.2673
12920SOL    HW249075  12.239   9.001   3.199  1.0725 -0.4518 -1.2184
12921SOL     OW49076   4.895   7.692   0.555  0.1324  0.0457  0.6795
12921SOL    HW149077   4.808   7.685   0.517  1.0840 -1.7367 -1.3190
12921SOL    HW249078   4.947   7.740   0.490  0.8538  0.4108  1.4958
12922SOL     OW49079   9.494  11.446   2.180  0.0531 -0.3435  0.0256
12922SOL    HW149080   9.421  11.492   2.221  0.6543  0.2024  0.5009
12922SOL    HW249081   9.465  11.354   2.177 -0.4309 -0.2255  0.7080
12923SOL     OW49082   2.122   7.548   0.884 -0.6124  0.4462 -1.1820
12923SOL    HW149083   2.064   7.554   0.808 -0.5910 -2.7544 -1.5796
12923SOL    HW249084   2.208   7.528   0.848 -0.3880 -0.1389 -0.3631
12924SOL     OW49085   1.475   6.416  12.226  0.1293 -0.8475  0.2041
12924SOL    HW149086   1.563   6.396  12.194 -0.0358 -1.0442 -0.1311
12924SOL    HW249087   1.448   6.493  12.176  0.6485  0.0574  1.2838
12925SOL     OW49088   4.003  11.274   5.284 -0.1919 -0.4998 -0.3475
12925SOL    HW149089   3.960  11.351   5.321  0.6578 -0.1082 -0.1403
12925SOL    HW249090   3.993  11.206   5.351 -0.5839 -0.4420 -0.3498
12926SOL     OW49091   4.034   9.539   1.242  0.0272 -0.4253 -0.1172
12926SOL    HW149092   3.993   9.616   1.203  0.0843 -0.9606 -1.2794
12926SOL    HW249093   4.086   9.501   1.172  1.7380 -0.3363  1.0366
12927SOL     OW49094   3.276   7.599   0.189  1.0101 -0.0512  0.5309
12927SOL    HW149095   3.253   7.579   0.279  0.4115 -1.2658  0.1297
12927SOL    HW249096   3.287   7.513   0.147  1.8051  0.4903 -0.4236
12928SOL     OW49097  11.745   9.493   5.362 -0.2278 -0.0340 -0.9231
12928SOL    HW149098  11.784   9.407   5.379  1.6443  0.9303  0.0116
12928SOL    HW249099  11.790   9.524   5.283  1.4867  1.3675  0.5374
12929SOL     OW49100   0.914   6.414   4.365 -0.3835  0.4376  0.0709
12929SOL    HW149101   0.973   6.390   4.294 -2.1327  2.1331 -2.1231
12929SOL    HW249102   0.949   6.496   4.399 -0.4259  0.4612  0.0580
12930SOL     OW49103   3.195   8.921   7.085 -0.0267  0.2821 -0.6639
12930SOL    HW149104   3.274   8.931   7.138 -0.6693  0.0585  0.3769
12930SOL    HW249105   3.179   8.826   7.083  0.6425  0.1740 -2.2770
12931SOL     OW49106  12.961   9.721   1.785 -0.3040 -0.0197 -0.4630
12931SOL    HW149107  13.035   9.661   1.794  0.0289  0.5455  0.8309
12931SOL    HW249108  12.896   9.690   1.849  0.2574  1.4897  0.9280
12932SOL     OW49109  11.439   1.423  10.164  0.2044 -0.1124  0.0735
12932SOL    HW149110  11.406   1.511  10.147 -0.0793  0.2272  2.2038
12932SOL    HW249111  11.517   1.415  10.109  0.4704  1.6058  0.1709
12933SOL     OW49112  10.510   5.705   9.110 -0.0221 -0.3189  0.3152
12933SOL    HW149113  10.593   5.730   9.069 -0.2467 -1.7031 -1.1157
12933SOL    HW249114  10.463   5.657   9.041 -1.9372  0.2549  1.1409
12934SOL     OW49115  10.070   7.051   0.522 -0.5458  0.6262 -0.4243
12934SOL    HW149116  10.090   7.117   0.457 -1.8088  1.0284 -0.4317
12934SOL    HW249117   9.983   7.075   0.555 -0.4821 -0.3016  0.4778
12935SOL     OW49118   8.161   0.592   7.562 -0.2369 -0.2527  0.0533
12935SOL    HW149119   8.217   0.515   7.577 -1.3838 -0.8442  1.4696
12935SOL    HW249120   8.072   0.560   7.578 -0.6587  1.6350  1.7241
12936SOL     OW49121   4.949   7.402   7.796 -0.1261  0.1240  0.1617
12936SOL    HW149122   5.035   7.359   7.798 -0.1720  0.0514  0.4567
12936SOL    HW249123   4.949   7.451   7.713  0.2348  0.1979  0.2054
12937SOL     OW49124   2.603   6.810  10.184  0.3439  0.0501  0.2424
12937SOL    HW149125   2.613   6.884  10.244 -1.7148  0.2088  0.4776
12937SOL    HW249126   2.622   6.733  10.237  1.8291  0.3573  0.1787
12938SOL     OW49127   2.172   4.345  10.832  0.5378 -0.2744  0.6760
12938SOL    HW149128   2.117   4.275  10.798  1.1541  0.4568 -2.0172
12938SOL    HW249129   2.120   4.425  10.820  1.5170  0.2258 -0.4291
12939SOL     OW49130   8.262   2.419  11.323  0.3376 -0.9849 -0.2887
12939SOL    HW149131   8.210   2.338  11.328 -1.7063  0.2727  0.4253
12939SOL    HW249132   8.237   2.467  11.402  0.2066  1.0422 -1.4992
12940SOL     OW49133   3.394  12.178   0.818 -0.0151 -0.7767  0.1746
12940SOL    HW149134   3.488  12.191   0.831 -0.2246 -0.5101  1.5153
12940SOL    HW249135   3.386  12.155   0.726  1.3238 -0.4048 -0.0546
12941SOL     OW49136   9.633   9.225   3.008  0.2423  0.2403  0.0349
12941SOL    HW149137   9.688   9.148   3.024  0.3576  0.3843  0.3401
12941SOL    HW249138   9.628   9.232   2.913 -1.2518 -1.2030 -0.0443
12942SOL     OW49139   3.502  10.807   5.657 -0.0704  0.0934  0.0645
12942SOL    HW149140   3.453  10.886   5.682 -0.6267 -0.0323 -0.5904
12942SOL    HW249141   3.542  10.777   5.738  2.0668  2.3464 -0.0286
12943SOL     OW49142   4.790  10.510  10.110 -0.3823 -0.6748  0.0609
12943SOL    HW149143   4.724  10.494  10.043 -1.2051  0.8872  0.4542
12943SOL    HW249144   4.739  10.525  10.190  0.4500  0.3521  0.4164
12944SOL     OW49145   1.956   0.847  12.166  0.1096  0.2079 -0.2480
12944SOL    HW149146   1.883   0.788  12.185  0.0161  0.5902  0.6264
12944SOL    HW249147   2.011   0.843  12.244 -0.4606  2.1029  0.2840
12945SOL     OW49148   8.138  12.200   5.306 -0.4121 -0.6643  0.0619
12945SOL    HW149149   8.089  12.277   5.337  0.9948  0.0149  0.6775
12945SOL    HW249150   8.101  12.128   5.356 -1.1848 -0.2660  0.0918
12946SOL     OW49151  10.965   7.144  10.522  0.3397  0.2370  0.0826
12946SOL    HW149152  11.043   7.153  10.577  0.1753  1.3785  0.1414
12946SOL    HW249153  10.998   7.155  10.432  0.3790 -0.1617  0.0472
12947SOL     OW49154  12.696   1.370  12.433 -0.2105  0.6208 -0.2473
12947SOL    HW149155  12.673   1.290  12.480  0.1245 -0.0329 -1.1560
12947SOL    HW249156  12.614   1.420  12.428 -0.8493 -0.4697 -1.1735
12948SOL     OW49157   8.872   5.151   7.924 -0.0784  0.1170 -0.4332
12948SOL    HW149158   8.818   5.216   7.969  0.2842  1.1418 -1.4280
12948SOL    HW249159   8.961   5.186   7.929  0.2400 -0.6931 -0.3179
12949SOL     OW49160  11.803   6.147   2.916 -0.5446  0.5346  0.3935
12949SOL    HW149161  11.864   6.210   2.878  1.9764 -1.8472  0.1665
12949SOL    HW249162  11.818   6.066   2.867  0.0895 -1.6479  3.8064
12950SOL     OW49163   3.634   1.310   9.146 -0.6505  0.5930 -0.1307
12950SOL    HW149164   3.658   1.327   9.237 -2.1642 -2.3270  0.9657
12950SOL    HW249165   3.718   1.305   9.100  0.1417  2.4062  0.9944
12951SOL     OW49166   5.631   0.736   7.109 -0.0682 -0.1037 -0.1026
12951SOL    HW149167   5.630   0.641   7.098 -0.8521 -0.2374  0.9703
12951SOL    HW249168   5.686   0.750   7.186 -3.7597 -0.1452  2.8657
12952SOL     OW49169   4.727  12.699   3.907 -0.5739 -0.4888  0.2502
12952SOL    HW149170   4.783  12.635   3.864  0.7675  0.1165  1.0441
12952SOL    HW249171   4.647  12.650   3.928 -0.1908 -1.4846 -0.5133
12953SOL     OW49172  12.408   4.312   6.244 -0.1110 -0.8321 -0.6221
12953SOL    HW149173  12.416   4.312   6.339  0.1123 -0.7974 -0.6396
12953SOL    HW249174  12.331   4.366   6.225 -0.3500 -1.1066 -0.4457
12954SOL     OW49175   7.925   1.975   9.043 -0.1590  0.8128  0.4469
12954SOL    HW149176   7.961   2.036   8.977  1.2599 -0.8049 -0.3481
12954SOL    HW249177   7.985   1.983   9.117  1.4159 -1.2067 -0.5253
12955SOL     OW49178  10.245  11.328  10.153 -0.0664 -0.0055  0.5364
12955SOL    HW149179  10.240  11.253  10.094  2.1852  0.3269 -0.1812
12955SOL    HW249180  10.241  11.289  10.240  0.3306 -0.9016  0.1760
12956SOL     OW49181   6.314   3.036   2.661  0.2951  0.2398 -0.1558
12956SOL    HW149182   6.280   2.949   2.678 -1.0145  1.1253  2.1742
12956SOL    HW249183   6.357   3.029   2.576 -0.1685 -2.5301 -0.2371
12957SOL     OW49184   4.370   5.742   1.533  0.1450 -0.0894  0.3327
12957SOL    HW149185   4.343   5.715   1.621  0.3396  1.0770  0.7748
12957SOL    HW249186   4.341   5.833   1.526  0.8185  0.0728 -0.5191
12958SOL     OW49187   5.093  11.903   3.967 -0.1732  0.0489 -0.4850
12958SOL    HW149188   5.064  11.941   3.884 -0.5168  1.5878  0.2926
12958SOL    HW249189   5.098  11.809   3.950  0.1071  0.3544 -2.3325
12959SOL     OW49190   4.035   3.092   0.566 -0.2219  0.2393  0.0845
12959SOL    HW149191   4.103   3.029   0.543 -0.5491 -0.5899  1.3410
12959SOL    HW249192   3.965   3.075   0.503  0.1643  0.1513 -0.3277
12960SOL     OW49193   3.437  10.705  10.471  0.5438 -0.1276 -0.3643
12960SOL    HW149194   3.400  10.738  10.553  2.5925  1.6286 -0.0525
12960SOL    HW249195   3.406  10.767  10.404  0.1131 -0.6647 -0.6637
12961SOL     OW49196   4.903   7.311  10.972  0.5495  0.7263  0.5151
12961SOL    HW149197   4.993   7.300  11.001  0.2953  0.5070  1.2325
12961SOL    HW249198   4.856   7.236  11.008 -0.3114  1.8075  1.7660
12962SOL     OW49199   3.497   6.536   0.861 -1.6732 -0.2991 -0.9775
12962SOL    HW149200   3.523   6.514   0.772 -0.1313 -1.0961 -0.3630
12962SOL    HW249201   3.505   6.455   0.910 -0.1545  0.6075  0.3832
12963SOL     OW49202   9.252  11.119   3.351  0.2783  0.1250  0.0773
12963SOL    HW149203   9.216  11.045   3.302 -0.1165  1.2692 -1.4547
12963SOL    HW249204   9.227  11.196   3.300 -0.2891  1.4291  2.2144
12964SOL     OW49205  11.760  11.770  11.913  0.2063  0.1430 -0.1980
12964SOL    HW149206  11.833  11.738  11.966 -0.8400 -0.4146  0.9650
12964SOL    HW249207  11.736  11.854  11.953 -1.3422 -0.8221  1.0456
12965SOL     OW49208   4.656   6.836   5.296 -0.4615 -0.2354 -0.3670
12965SOL    HW149209   4.738   6.833   5.246  0.6070 -0.9061  1.3276
12965SOL    HW249210   4.645   6.929   5.318  0.2323 -0.2211 -0.0400
12966SOL     OW49211   7.871   0.845  10.006  0.2849  0.0988  0.2635
12966SOL    HW149212   7.800   0.783   9.990  0.5747  0.0476 -0.9444
12966SOL    HW249213   7.945   0.791  10.034  0.1751  0.0337  0.4255
12967SOL     OW49214   2.028   5.595   8.887 -0.3350 -0.4216  0.8725
12967SOL    HW149215   1.964   5.534   8.850  0.6732  0.1392 -2.1424
12967SOL    HW249216   2.112   5.552   8.874  0.1257  0.0414  2.1948
12968SOL     OW49217   6.441   2.273  11.783 -0.2181 -0.1803 -0.5478
12968SOL    HW149218   6.527   2.310  11.801 -0.4054 -0.0355  0.0642
12968SOL    HW249219   6.444   2.185  11.821  0.8669 -1.5944 -3.5658
12969SOL     OW49220   7.946   8.731  11.279 -0.2734  0.0455  0.3800
12969SOL    HW149221   7.953   8.643  11.242  1.5904  0.4332 -0.3396
12969SOL    HW249222   7.858   8.760  11.257 -0.5847 -1.2735 -0.2113
12970SOL     OW49223  11.714   1.771   9.553  0.4622 -0.4649 -0.3137
12970SOL    HW149224  11.677   1.764   9.465 -0.9972  0.3796  0.1916
12970SOL    HW249225  11.793   1.824   9.541  0.7168 -1.0147 -1.2091
12971SOL     OW49226   1.122   9.225   8.134 -0.1215 -0.0435 -0.0873
12971SOL    HW149227   1.091   9.309   8.100  2.2636  0.8941 -0.1286
12971SOL    HW249228   1.212   9.241   8.160  0.7527 -2.8394 -1.0020
12972SOL     OW49229   7.112   7.441   4.318  0.4384  0.0918  0.5627
12972SOL    HW149230   7.048   7.466   4.385  1.2188  1.2169  0.9126
12972SOL    HW249231   7.173   7.515   4.314 -1.3882  1.7302 -3.7301
12973SOL     OW49232   1.086  11.422   9.062  0.2178  0.3410  0.1690
12973SOL    HW149233   1.165  11.391   9.017 -0.0567 -0.8649  0.4973
12973SOL    HW249234   1.070  11.509   9.024  1.3034  0.3166 -0.3916
12974SOL     OW49235  11.054   7.069   3.036 -0.4078  0.4411  0.1816
12974SOL    HW149236  10.964   7.035   3.037  0.0521 -0.8939  2.5483
12974SOL    HW249237  11.073   7.089   3.128  2.0897 -0.3639 -0.0892
12975SOL     OW49238   1.338   2.605   5.224 -0.0099 -0.4161 -0.3589
12975SOL    HW149239   1.301   2.518   5.206 -1.9149 -0.0059  1.1954
12975SOL    HW249240   1.425   2.587   5.259 -0.9810 -1.8687  1.5134
12976SOL     OW49241   7.003   7.064   4.691 -0.0764  0.7452  0.0837
12976SOL    HW149242   7.036   7.129   4.753  0.7615  0.5229 -0.1219
12976SOL    HW249243   7.036   6.980   4.724 -1.0397  0.4258  0.2748
12977SOL     OW49244  12.179   8.589  11.484 -0.8461 -0.1749  0.0067
12977SOL    HW149245  12.258   8.535  11.484  0.6162  1.8003 -0.1805
12977SOL    HW249246  12.137   8.571  11.568  0.3470 -0.5808  0.5419
12978SOL     OW49247   4.419   0.316   5.385 -0.5594 -0.5772  0.0748
12978SOL    HW149248   4.432   0.369   5.307 -1.1790 -0.5302  0.0000
12978SOL    HW249249   4.456   0.368   5.456  1.3848 -1.2556 -0.3670
12979SOL     OW49250   2.824   8.164   4.435 -0.4415 -0.3336 -0.3031
12979SOL    HW149251   2.763   8.176   4.362 -0.0046 -0.6994 -0.7400
12979SOL    HW249252   2.781   8.206   4.509 -1.7726 -1.5811 -0.3136
12980SOL     OW49253  11.344   2.888   2.380  0.7544  0.1040  0.3690
12980SOL    HW149254  11.395   2.956   2.425 -0.5944  0.5709  1.2493
12980SOL    HW249255  11.347   2.913   2.288  1.5751  0.4724  0.4790
12981SOL     OW49256  11.825   8.499  12.165  0.0698 -0.1914  0.6131
12981SOL    HW149257  11.816   8.594  12.175  1.8639  0.2275 -1.1188
12981SOL    HW249258  11.900   8.476  12.220  0.1867 -0.4588  0.3438
12982SOL     OW49259  12.219  10.694   1.665 -0.3043 -0.0316 -0.0606
12982SOL    HW149260  12.240  10.715   1.574 -1.0528 -1.2522 -0.5435
12982SOL    HW249261  12.291  10.732   1.716  0.3248  0.3351 -1.1854
12983SOL     OW49262  12.682  10.456   8.287  0.5305 -0.2774 -0.3195
12983SOL    HW149263  12.749  10.524   8.283  0.4765 -0.1405  0.7286
12983SOL    HW249264  12.599  10.502   8.271  0.4328  0.0337  0.9588
12984SOL     OW49265   9.294   9.257   6.016 -0.2325  0.2352 -0.4440
12984SOL    HW149266   9.352   9.185   5.991 -0.4200 -0.6441  1.4488
12984SOL    HW249267   9.342   9.336   5.990  1.1248 -0.5142 -0.3245
12985SOL     OW49268   5.137   0.793   8.794 -0.3197  0.0804  0.3735
12985SOL    HW149269   5.231   0.811   8.789 -0.2622 -0.5004 -1.1295
12985SOL    HW249270   5.096   0.872   8.759 -0.4133  0.4006  1.1844
12986SOL     OW49271  11.037  11.477   7.299  0.2274  0.3162  0.2571
12986SOL    HW149272  11.069  11.428   7.375 -0.2051  0.9730  0.8793
12986SOL    HW249273  10.979  11.416   7.254 -0.3124  0.2456  1.0220
12987SOL     OW49274  10.543  10.020   4.086 -0.0087  0.1005 -0.1119
12987SOL    HW149275  10.451  10.010   4.112  0.3200 -2.1278  0.4271
12987SOL    HW249276  10.586  10.056   4.164  0.0925 -1.9050  0.8243
12988SOL     OW49277   7.470  11.607   1.148 -0.1696  0.1819  0.2875
12988SOL    HW149278   7.448  11.517   1.174 -2.5538  0.4715 -0.5214
12988SOL    HW249279   7.472  11.605   1.053  0.9463  0.7558  0.2878
12989SOL     OW49280  10.209   7.991   4.045  0.4849  0.2008  0.2750
12989SOL    HW149281  10.229   8.074   4.001 -0.3763  0.1379 -0.2586
12989SOL    HW249282  10.114   7.983   4.039  0.3721  0.0795  1.9901
12990SOL     OW49283   5.617   7.549   0.575  0.0552  0.5516  0.4507
12990SOL    HW149284   5.707   7.516   0.580  0.3257  0.9769 -1.0358
12990SOL    HW249285   5.589   7.556   0.666  0.6495 -1.9043  0.8816
12991SOL     OW49286   4.722  12.560   5.902  0.0943  0.0084 -0.1472
12991SOL    HW149287   4.803  12.552   5.952 -0.3491  1.1562  0.7894
12991SOL    HW249288   4.750  12.556   5.811  1.1417 -0.1433  0.1682
12992SOL     OW49289   4.424  10.630  11.622  0.1125 -0.3004  0.2181
12992SOL    HW149290   4.437  10.602  11.713 -0.0305  0.3396  0.4406
12992SOL    HW249291   4.507  10.672  11.598 -0.5748  1.4381  0.7699
12993SOL     OW49292   8.156  10.401   5.900  0.5140 -0.3980  0.2908
12993SOL    HW149293   8.166  10.403   5.995 -0.0675  0.1379  0.3422
12993SOL    HW249294   8.107  10.320   5.882 -1.1903  0.5295  0.6283
12994SOL     OW49295   6.781   7.862  10.520  0.2918  0.3412 -0.0451
12994SOL    HW149296   6.868   7.880  10.557  0.5067  0.0550 -0.4071
12994SOL    HW249297   6.778   7.915  10.440  0.6033 -0.5672 -0.6740
12995SOL     OW49298   3.499  11.804   1.619  0.0451  0.3843  0.0703
12995SOL    HW149299   3.475  11.889   1.582  0.4519 -0.1921 -1.6097
12995SOL    HW249300   3.583  11.783   1.577  0.9042 -0.0036  1.8956
12996SOL     OW49301   4.382   8.151  10.896  0.2031 -0.7411 -0.1981
12996SOL    HW149302   4.307   8.155  10.836  1.2409  0.9337 -1.4698
12996SOL    HW249303   4.427   8.070  10.873 -0.7037 -1.3050 -0.0348
12997SOL     OW49304   5.824   4.851   4.714 -0.5367  0.1928 -0.4064
12997SOL    HW149305   5.913   4.884   4.728 -0.2884  0.6647 -2.6567
12997SOL    HW249306   5.797   4.891   4.631 -1.9768 -1.7563 -0.9366
12998SOL     OW49307   0.087   8.141   8.760  0.3111  0.2494 -0.2782
12998SOL    HW149308   0.117   8.219   8.807  1.6564 -0.0054 -0.6840
12998SOL    HW249309   0.145   8.134   8.685  0.0469 -1.0089 -0.3843
12999SOL     OW49310  11.665   3.203   1.840 -0.0860  0.3183  0.2455
12999SOL    HW149311  11.631   3.263   1.906  0.8607  0.0038  1.0453
12999SOL    HW249312  11.726   3.255   1.789 -2.3426  1.1523 -1.8168
13000SOL     OW49313  11.385   0.035   0.245  0.1181 -0.4962 -0.1069
13000SOL    HW149314  11.478   0.047   0.264  0.0101  2.1106 -0.8105
13000SOL    HW249315  11.344   0.025   0.331  1.0590 -2.4022  0.1835
13001SOL     OW49316   2.031   4.044   1.003 -0.8198 -0.1411 -0.5883
13001SOL    HW149317   2.089   4.105   0.957 -0.1495  0.7053  1.2676
13001SOL    HW249318   1.952   4.095   1.019 -0.1410  0.4267  1.2416
13002SOL     OW49319   9.139   4.342   7.320  0.2595  0.1356  0.7436
13002SOL    HW149320   9.233   4.354   7.309  0.1005 -0.5289 -2.2450
13002SOL    HW249321   9.126   4.247   7.313 -0.8065  0.3837 -1.5877
13003SOL     OW49322   7.090   9.260   0.443  0.2154 -0.4170  0.3827
13003SOL    HW149323   7.030   9.258   0.369  1.2430 -2.0628 -0.4636
13003SOL    HW249324   7.041   9.304   0.512 -0.3168  2.4005 -1.6092
13004SOL     OW49325   2.292   1.851   3.628 -0.3579 -0.2752  0.4884
13004SOL    HW149326   2.359   1.892   3.682  1.3883 -3.6634  1.1820
13004SOL    HW249327   2.217   1.841   3.687 -0.0545 -0.0061  0.9257
13005SOL     OW49328  11.796   7.134   1.214 -0.4308  0.3723  0.0395
13005SOL    HW149329  11.808   7.135   1.309  1.3829  1.3599 -0.1435
13005SOL    HW249330  11.821   7.045   1.188 -0.0072  0.3780  0.4054
13006SOL     OW49331   5.782   1.750   5.969 -0.1804  0.1599  0.0829
13006SOL    HW149332   5.870   1.739   5.932 -0.2075  0.7141 -0.1564
13006SOL    HW249333   5.796   1.805   6.046  0.0089 -1.7880  1.5010
13007SOL     OW49334   0.766   4.573  12.651 -0.1793  0.3807 -0.1035
13007SOL    HW149335   0.687   4.560  12.600 -1.3498 -0.0006  1.7201
13007SOL    HW249336   0.736   4.583  12.741  1.7705  1.3951  0.5023
13008SOL     OW49337   0.216  11.041   7.592 -0.0373 -0.1479  0.1262
13008SOL    HW149338   0.201  11.076   7.680 -0.3538  0.5468 -0.2053
13008SOL    HW249339   0.130  11.041   7.551  0.4314  1.5197 -0.9217
13009SOL     OW49340  12.370   3.766  11.118  0.2328 -0.2281  0.0729
13009SOL    HW149341  12.318   3.824  11.173 -0.9087  1.2251 -2.3760
13009SOL    HW249342  12.459   3.772  11.154  0.1881  3.1654 -0.1037
13010SOL     OW49343   7.578  11.805  10.043  0.5349 -0.1011 -0.6633
13010SOL    HW149344   7.493  11.762  10.058  0.3948 -0.0952 -1.4256
13010SOL    HW249345   7.622  11.800  10.128 -0.3766  0.2234 -0.1565
13011SOL     OW49346   0.063   8.463   1.569 -0.2769 -0.0869 -0.1950
13011SOL    HW149347   0.139   8.427   1.615  0.3508  1.7856  0.3147
13011SOL    HW249348   0.099   8.498   1.488 -0.7999 -0.2564 -0.5020
13012SOL     OW49349   2.620   4.849   6.604  0.7552 -0.5956 -0.0722
13012SOL    HW149350   2.644   4.801   6.525  1.0149 -0.1373 -0.2792
13012SOL    HW249351   2.578   4.929   6.572  0.7990 -0.4402  0.2485
13013SOL     OW49352  11.185  11.687   7.223 -0.4635 -0.2095  0.3954
13013SOL    HW149353  11.184  11.746   7.299 -1.8222 -1.2147  1.2073
13013SOL    HW249354  11.150  11.605   7.256 -2.1973 -0.3413 -1.5738
13014SOL     OW49355  10.161   0.095   1.572  0.1678 -0.0281  0.5191
13014SOL    HW149356  10.095   0.060   1.512  1.1119 -2.1619  0.6123
13014SOL    HW249357  10.114   0.159   1.625 -0.7459  1.8547 -2.3367
13015SOL     OW49358  10.564  11.603   7.187  0.3425 -0.1827 -0.2861
13015SOL    HW149359  10.573  11.589   7.282  2.2062 -1.0788 -0.5448
13015SOL    HW249360  10.620  11.678   7.169  0.8576 -0.6700 -0.7952
13016SOL     OW49361   7.620  12.035   6.778  0.4246 -0.0576 -0.3413
13016SOL    HW149362   7.593  12.045   6.686  1.5168  0.1067 -0.6549
13016SOL    HW249363   7.715  12.037   6.775  0.4750 -0.5515  0.7544
13017SOL     OW49364   1.836   3.876  12.481 -0.6802  0.6047  0.0383
13017SOL    HW149365   1.762   3.885  12.422 -0.7147  2.1737  0.2598
13017SOL    HW249366   1.797   3.880  12.569 -0.2816  2.6350  0.1708
13018SOL     OW49367   5.602   9.860   8.934 -0.9428  0.4010  0.2347
13018SOL    HW149368   5.547   9.830   9.006  0.3514 -0.7805  0.7805
13018SOL    HW249369   5.587   9.796   8.864 -0.4989  0.2438  0.2796
13019SOL     OW49370   8.464   2.966   4.619 -0.0792 -0.0915 -0.2760
13019SOL    HW149371   8.559   2.959   4.609 -0.0674  0.8421 -0.9649
13019SOL    HW249372   8.446   3.059   4.609 -0.9804 -0.1406  0.7695
13020SOL     OW49373  11.651   9.872  10.557  0.2396 -0.2305  0.0478
13020SOL    HW149374  11.601   9.836  10.630 -0.1701 -0.3504 -0.2869
13020SOL    HW249375  11.703   9.798  10.526 -0.6310 -0.5588 -0.6647
13021SOL     OW49376   5.828  10.478   9.754  0.3624 -0.6688 -0.0959
13021SOL    HW149377   5.759  10.489   9.689  1.5647  0.5986 -1.2512
13021SOL    HW249378   5.843  10.567   9.788 -0.1086 -1.2700  1.8290
13022SOL     OW49379  12.783  10.355  11.105  0.2124 -0.4218 -0.3786
13022SOL    HW149380  12.777  10.318  11.017  0.5970  0.8966 -0.9958
13022SOL    HW249381  12.694  10.385  11.125 -0.1492 -1.8221  0.2152
13023SOL     OW49382  10.675   4.823  11.290  0.5816 -0.6462  0.0651
13023SOL    HW149383  10.658   4.729  11.296  2.7339 -1.3766 -2.8365
13023SOL    HW249384  10.676   4.841  11.196  0.5146  2.2527  0.5279
13024SOL     OW49385   3.192   7.479   3.025  0.1819 -0.0495  0.6682
13024SOL    HW149386   3.133   7.550   3.049 -0.9137 -0.0722 -1.6353
13024SOL    HW249387   3.266   7.522   2.983 -1.1673 -0.2111 -2.0867
13025SOL     OW49388   4.466  11.215  11.623  0.4281 -0.6190 -0.1848
13025SOL    HW149389   4.504  11.224  11.535  1.9276 -0.6027  0.4498
13025SOL    HW249390   4.450  11.305  11.651  1.3854 -0.5481  0.1597
13026SOL     OW49391   5.161   1.699   3.897 -0.1482 -0.1048 -0.3650
13026SOL    HW149392   5.153   1.769   3.833 -0.2485  1.1642  0.9875
13026SOL    HW249393   5.073   1.661   3.903 -0.1679 -0.1451 -0.8583
13027SOL     OW49394   0.225   6.711   9.277 -0.7028 -0.2392 -0.0806
13027SOL    HW149395   0.225   6.702   9.372 -0.2311  2.9010  0.3315
13027SOL    HW249396   0.164   6.783   9.260  0.2788  0.2071 -2.0052
13028SOL     OW49397   6.418   0.041  12.890  0.0832  0.3668 -0.0200
13028SOL    HW149398   6.395   0.099  12.818 -0.4816  0.2841  0.0837
13028SOL    HW249399   6.503   0.005  12.866 -0.1382  0.2711 -0.6952
13029SOL     OW49400   9.659   0.917   1.653  0.3910 -0.3874 -0.6317
13029SOL    HW149401   9.734   0.880   1.607  1.3645  0.1971  0.4135
13029SOL    HW249402   9.594   0.847   1.656  1.2839 -1.2305 -0.7198
13030SOL     OW49403   3.934  12.469  10.789  0.1888  0.1515  0.4681
13030SOL    HW149404   3.964  12.559  10.772  1.4200 -0.2429  0.4106
13030SOL    HW249405   3.911  12.468  10.881 -3.2346  1.4150 -0.2280
13031SOL     OW49406   8.340   6.891   3.140 -0.1387 -0.2355  0.3399
13031SOL    HW149407   8.343   6.986   3.147 -3.0236 -0.1860  4.3243
13031SOL    HW249408   8.387   6.859   3.217  2.1302 -2.2425 -1.6913
13032SOL     OW49409  11.912  12.263   1.860 -0.1357 -0.3291 -0.1298
13032SOL    HW149410  11.894  12.214   1.940  0.6584 -0.3177  0.0672
13032SOL    HW249411  11.958  12.200   1.804 -0.7252 -0.3520 -0.6033
13033SOL     OW49412   5.352   2.376   3.447 -0.0158  0.0140 -0.6309
13033SOL    HW149413   5.275   2.394   3.393 -0.8696 -0.1130  0.4983
13033SOL    HW249414   5.415   2.443   3.423 -1.4795  1.8103  0.3096
13034SOL     OW49415   2.020   1.014   7.768 -0.6924  0.1964  0.1552
13034SOL    HW149416   2.096   1.071   7.759 -1.5554  1.2560 -0.6264
13034SOL    HW249417   1.945   1.073   7.768 -1.5333 -0.8367  0.7971
13035SOL     OW49418  10.594   3.634   9.873 -0.0488 -0.3810  0.4269
13035SOL    HW149419  10.643   3.627   9.955  0.1283 -0.2704  0.3333
13035SOL    HW249420  10.567   3.726   9.869 -1.3442 -0.7167  1.0842
13036SOL     OW49421   0.208   0.754   4.011 -0.0072 -0.1475 -0.1840
13036SOL    HW149422   0.292   0.718   4.038  0.1056  0.5665  0.4358
13036SOL    HW249423   0.230   0.832   3.959 -0.2830  0.9144  1.2326
13037SOL     OW49424  12.662   9.052   0.226 -0.1094  0.0556 -0.2477
13037SOL    HW149425  12.663   9.124   0.290 -0.1565  0.9606 -1.2499
13037SOL    HW249426  12.634   9.092   0.144  0.0993 -1.0632 -0.8931
13038SOL     OW49427   4.667  12.364   5.518 -0.1092  0.3989  0.1335
13038SOL    HW149428   4.695  12.296   5.579  0.6121  0.4727 -0.1149
13038SOL    HW249429   4.705  12.445   5.552 -0.6036  0.6151  0.1853
13039SOL     OW49430   1.802   9.396   8.939  0.3291 -0.2134  0.3958
13039SOL    HW149431   1.760   9.345   8.870 -0.3095 -0.1418  0.7242
13039SOL    HW249432   1.812   9.334   9.012 -0.7372  0.1844  0.9109
13040SOL     OW49433   0.318   4.978   7.013  0.2499 -0.2882  0.0056
13040SOL    HW149434   0.394   5.032   7.037  0.8552 -0.9426 -0.3877
13040SOL    HW249435   0.303   4.998   6.921 -1.1696  1.1424  0.5034
13041SOL     OW49436   2.688   7.814   8.510 -0.7098 -0.3765  0.3641
13041SOL    HW149437   2.749   7.775   8.447 -1.7941  0.9934 -1.6690
13041SOL    HW249438   2.732   7.806   8.594  1.7255 -0.5188 -0.8186
13042SOL     OW49439   1.104   9.111   1.257  0.2671 -0.7774  0.2056
13042SOL    HW149440   1.089   9.145   1.346  0.9848 -2.2772  0.9307
13042SOL    HW249441   1.111   9.190   1.203 -0.1476  0.1751  1.4858
13043SOL     OW49442   8.123   1.761   6.157 -0.5717 -0.1662 -0.0472
13043SOL    HW149443   8.115   1.782   6.064 -0.6077  0.3105  0.0583
13043SOL    HW249444   8.152   1.843   6.197  0.2334 -0.5768  0.2483
13044SOL     OW49445   7.555   3.824   5.494  0.0746 -0.2956  0.1615
13044SOL    HW149446   7.505   3.807   5.574  0.3248  0.8474  0.5790
13044SOL    HW249447   7.559   3.919   5.488 -1.3444 -0.2978 -2.0973
13045SOL     OW49448   1.659   7.521   5.312 -0.9230 -0.2262 -0.1256
13045SOL    HW149449   1.667   7.593   5.375 -0.7019 -1.1574  0.9398
13045SOL    HW249450   1.692   7.444   5.358 -1.6233 -1.1257 -1.0554
13046SOL     OW49451   2.026   8.002  12.134 -0.2901  0.1316 -0.3432
13046SOL    HW149452   2.059   7.975  12.219  1.2112  0.4176 -0.7999
13046SOL    HW249453   1.939   7.964  12.128 -0.9567  1.1823  1.8417
13047SOL     OW49454   8.626  12.837   1.163  0.4825 -0.1944  0.2422
13047SOL    HW149455   8.698  12.900   1.165 -0.0220  0.3500  1.8737
13047SOL    HW249456   8.583  12.852   1.078  3.2504 -1.6990 -1.6042
13048SOL     OW49457   6.513  10.171   8.744  0.2428 -0.1123  0.7474
13048SOL    HW149458   6.489  10.143   8.656 -2.0926  0.7108  1.0483
13048SOL    HW249459   6.602  10.203   8.736  0.1987 -0.3883 -1.2392
13049SOL     OW49460   9.277   8.246  12.449 -0.3073 -0.2152 -0.1593
13049SOL    HW149461   9.290   8.158  12.416 -0.6315 -0.1880 -0.3632
13049SOL    HW249462   9.357   8.266  12.498  0.2818 -0.1641 -1.1262
13050SOL     OW49463   3.245   8.815   7.429  0.2713  0.5635  0.6122
13050SOL    HW149464   3.310   8.877   7.397  1.6023 -0.7668  0.6319
13050SOL    HW249465   3.249   8.824   7.524  0.5013  0.4199  0.6169
13051SOL     OW49466   7.841   9.251   6.853 -0.0910 -0.0368 -0.4245
13051SOL    HW149467   7.893   9.174   6.831 -0.3873 -0.9897  1.9278
13051SOL    HW249468   7.763   9.244   6.799 -0.0348 -1.2903 -0.3607
13052SOL     OW49469   1.086   7.675  11.937  0.1175  0.1728 -0.2757
13052SOL    HW149470   0.994   7.674  11.963 -0.1300 -1.7199 -1.0373
13052SOL    HW249471   1.094   7.751  11.880 -0.4366  1.6076  1.4980
13053SOL     OW49472  11.178  11.353   3.802 -0.3978 -0.4331  0.0233
13053SOL    HW149473  11.141  11.415   3.864 -1.6484 -0.6976 -0.4309
13053SOL    HW249474  11.104  11.299   3.774  0.6812 -2.2315  0.5020
13054SOL     OW49475   4.733  10.491   3.824 -0.2416  0.0570 -0.4030
13054SOL    HW149476   4.651  10.529   3.792 -1.3839 -1.1952  0.8948
13054SOL    HW249477   4.751  10.537   3.906 -0.1809 -0.3337 -0.1932
13055SOL     OW49478   6.044   8.076   0.681 -0.0129 -0.1006 -0.3697
13055SOL    HW149479   6.013   8.089   0.591 -0.4453 -0.4401 -0.2766
13055SOL    HW249480   5.991   8.003   0.714  1.4975 -1.2871 -0.4738
13056SOL     OW49481   6.902   3.685   9.487 -0.3103 -0.8851  0.1096
13056SOL    HW149482   6.997   3.677   9.477 -0.3875 -0.8024 -0.7883
13056SOL    HW249483   6.866   3.624   9.422 -0.8680 -0.3895 -0.0570
13057SOL     OW49484   5.216   1.157   7.927  0.4657  0.2227 -0.2772
13057SOL    HW149485   5.121   1.153   7.943  0.7187  0.0107  1.3116
13057SOL    HW249486   5.238   1.070   7.894  0.4584 -0.5161  1.5734
13058SOL     OW49487   9.361   9.113   4.469 -0.3439 -0.4080  0.1081
13058SOL    HW149488   9.273   9.111   4.432 -0.1737  2.1106 -0.5718
13058SOL    HW249489   9.411   9.171   4.411  1.2400 -0.2025  1.5940
13059SOL     OW49490   3.496  11.716   7.376 -0.0863 -0.1558 -0.6662
13059SOL    HW149491   3.440  11.681   7.307 -1.0954  0.6413 -0.2715
13059SOL    HW249492   3.541  11.790   7.336 -1.7972  1.2527 -0.0957
13060SOL     OW49493   2.863   7.325  10.286  0.1302 -0.0216 -0.2419
13060SOL    HW149494   2.808   7.382  10.340 -0.2444 -1.4101  0.9010
13060SOL    HW249495   2.928   7.384  10.248 -0.7447  1.2942  0.2229
13061SOL     OW49496   6.645   2.763   4.039  0.1866  0.0386  0.7641
13061SOL    HW149497   6.635   2.831   4.106 -0.3442  0.2749  0.4487
13061SOL    HW249498   6.585   2.789   3.969  0.1635 -0.6219  0.5325
13062SOL     OW49499   7.592  10.891   6.036  0.1329 -0.0424  0.2821
13062SOL    HW149500   7.544  10.939   5.968 -1.2117 -0.7964  0.6617
13062SOL    HW249501   7.644  10.958   6.080  0.1579  0.6457 -0.7593
13063SOL     OW49502   0.450  11.682  10.055  0.2146 -0.5425  0.5489
13063SOL    HW149503   0.402  11.629  10.118  0.7787 -1.8901 -0.1236
13063SOL    HW249504   0.414  11.657   9.970 -0.4805  1.1922  0.3033
13064SOL     OW49505   9.143   1.261   5.689 -0.0900  0.2171 -0.0054
13064SOL    HW149506   9.067   1.300   5.731  0.2375  2.3196 -1.2384
13064SOL    HW249507   9.211   1.328   5.693  0.7331 -0.4510 -1.6195
13065SOL     OW49508  12.107   8.121   7.651  0.0353  0.1174  0.3606
13065SOL    HW149509  12.185   8.174   7.668 -1.0550  2.7001 -1.7878
13065SOL    HW249510  12.040   8.159   7.708 -1.0294  1.9701 -1.9404
13066SOL     OW49511   3.564  12.248   2.045 -0.2326 -0.2040  0.0325
13066SOL    HW149512   3.635  12.187   2.065 -0.8253 -0.1744  2.5297
13066SOL    HW249513   3.526  12.214   1.963  0.9248 -1.8156  0.1106
13067SOL     OW49514   1.519   3.071   6.110  0.2765  0.1241  0.4221
13067SOL    HW149515   1.609   3.073   6.077  0.3772  1.3475  0.7019
13067SOL    HW249516   1.469   3.025   6.043  0.4077  2.8116 -1.6818
13068SOL     OW49517  11.070   7.188  11.791  0.1490 -0.6054 -0.3117
13068SOL    HW149518  11.078   7.096  11.769 -0.2345 -0.6787 -0.1417
13068SOL    HW249519  11.153   7.209  11.835 -0.2458 -1.1735  0.7375
13069SOL     OW49520   5.072  10.105   7.278 -0.3157  0.3409 -0.0428
13069SOL    HW149521   5.026  10.183   7.310 -0.9287  0.2575 -0.6970
13069SOL    HW249522   5.136  10.140   7.215  1.1651  0.5466  1.5004
13070SOL     OW49523   5.017   8.381   1.982  0.1589 -0.5610 -0.4486
13070SOL    HW149524   5.002   8.450   2.047 -0.0499  0.2217 -1.3136
13070SOL    HW249525   5.108   8.392   1.955 -0.3835  0.5669 -1.9215
13071SOL     OW49526   4.417   8.309   8.857  0.0308 -0.5675  0.1027
13071SOL    HW149527   4.473   8.385   8.838 -0.6481 -0.2137 -0.5528
13071SOL    HW249528   4.478   8.236   8.868  0.6571 -0.0586  0.0734
13072SOL     OW49529   7.795  12.798  12.501  0.3609  0.3867  0.3761
13072SOL    HW149530   7.753  12.884  12.494 -0.4822 -0.1439 -2.3468
13072SOL    HW249531   7.889  12.817  12.501  0.1963  1.3223 -0.5403
13073SOL     OW49532   7.294  11.594   8.544 -0.2793  0.3265 -0.5104
13073SOL    HW149533   7.243  11.672   8.565 -0.4289  0.5851 -1.7548
13073SOL    HW249534   7.329  11.611   8.456  0.7749 -0.4547 -0.2633
13074SOL     OW49535  12.547   2.176   9.060 -0.0204 -0.3534  0.5200
13074SOL    HW149536  12.631   2.136   9.035 -0.0155 -0.6377  0.9951
13074SOL    HW249537  12.571   2.244   9.123  0.0621  1.0073 -0.9144
13075SOL     OW49538   4.415  10.500   4.912 -0.7999  0.4086  0.0673
13075SOL    HW149539   4.450  10.533   4.829 -0.4749 -0.2840 -0.0745
13075SOL    HW249540   4.380  10.578   4.955  0.8971  1.1240  0.2204
13076SOL     OW49541   1.304  12.942  12.685 -0.3015  0.3317 -0.0440
13076SOL    HW149542   1.360  12.952  12.608 -2.0265  0.8910 -1.2945
13076SOL    HW249543   1.236  13.008  12.672 -2.0217 -1.2380  0.6930
13077SOL     OW49544   9.474   9.413  10.625 -0.2431  0.6006 -0.4266
13077SOL    HW149545   9.434   9.329  10.602 -1.4078  1.6020 -2.3577
13077SOL    HW249546   9.564   9.391  10.649 -0.5111 -1.1925 -0.8947
13078SOL     OW49547  10.064   5.217   5.042  0.3261  0.0690 -0.0356
13078SOL    HW149548  10.004   5.279   5.000 -1.3373 -0.4639  1.4427
13078SOL    HW249549  10.141   5.215   4.984  0.3402  3.2689 -0.2859
13079SOL     OW49550   6.526   3.266   7.730 -0.0560  0.2564  0.2839
13079SOL    HW149551   6.516   3.337   7.794 -0.4740 -0.0721  0.5921
13079SOL    HW249552   6.523   3.186   7.783 -2.8285 -0.1641 -0.3468
13080SOL     OW49553   0.299   9.781   9.843  0.1872 -0.1487  0.2651
13080SOL    HW149554   0.391   9.755   9.846 -0.1290 -1.7870 -1.7197
13080SOL    HW249555   0.286   9.815   9.754 -0.8689  1.2810  0.9092
13081SOL     OW49556   7.356   4.432   9.702 -0.0505  0.0991 -0.3105
13081SOL    HW149557   7.390   4.342   9.700 -1.1589 -0.3255 -1.3253
13081SOL    HW249558   7.428   4.485   9.669  0.0568 -0.6426 -1.3235
13082SOL     OW49559   7.827  11.363   1.742  0.1093  0.2816 -0.4401
13082SOL    HW149560   7.764  11.396   1.807  0.0884  0.4252 -0.5326
13082SOL    HW249561   7.858  11.280   1.779  0.8666  0.8536  0.2533
13083SOL     OW49562   7.719   7.188   2.925  0.0555 -0.1720  0.5781
13083SOL    HW149563   7.631   7.177   2.888  0.9841 -0.1104 -1.7946
13083SOL    HW249564   7.750   7.098   2.940 -1.1420 -0.2145  3.5239
13084SOL     OW49565   2.430  11.119   0.434 -0.2656 -0.4110 -0.3269
13084SOL    HW149566   2.411  11.027   0.417  0.1255 -0.2967 -1.4677
13084SOL    HW249567   2.381  11.166   0.366  2.0190  0.0215 -1.7730
13085SOL     OW49568  11.853   2.470   8.929  0.4290  0.4256 -0.1756
13085SOL    HW149569  11.900   2.553   8.917  0.3808  0.3543 -0.8947
13085SOL    HW249570  11.917   2.412   8.970  2.2018 -0.7571 -4.1727
13086SOL     OW49571   0.839  11.937   6.114  0.7625  1.1088  0.2279
13086SOL    HW149572   0.925  11.953   6.153  0.3425  0.3973  1.5386
13086SOL    HW249573   0.857  11.895   6.030  1.6936  0.7528  0.5975
13087SOL     OW49574  12.914   6.776   3.487 -0.6977 -0.0650  0.2561
13087SOL    HW149575  12.889   6.833   3.560 -0.6018  0.8829 -0.4424
13087SOL    HW249576  12.897   6.827   3.409 -1.7896 -1.4534 -0.4583
13088SOL     OW49577   1.387   5.525   6.709 -0.0868 -0.4805  0.4537
13088SOL    HW149578   1.445   5.599   6.725 -0.5250 -0.0209 -0.0394
13088SOL    HW249579   1.440   5.448   6.730 -0.2202 -0.0077  2.9170
13089SOL     OW49580   2.062   1.892   6.573 -0.4452  0.3956 -0.0168
13089SOL    HW149581   2.079   1.874   6.481  2.3766 -2.4507  0.8775
13089SOL    HW249582   1.981   1.845   6.593 -0.1176 -0.4527 -0.6663
13090SOL     OW49583   2.357  10.833   9.932 -0.4972 -0.1120 -0.7276
13090SOL    HW149584   2.401  10.763   9.885 -0.5726 -1.2386  0.7972
13090SOL    HW249585   2.274  10.795   9.961 -1.1057  1.0118 -0.9456
13091SOL     OW49586  11.164   9.048  11.916  0.8244 -0.1532  0.1362
13091SOL    HW149587  11.186   9.003  11.835 -2.6860  0.6915 -1.4874
13091SOL    HW249588  11.144   9.138  11.889 -2.1657 -0.2867  1.4892
13092SOL     OW49589   3.129   6.657   2.340  0.3774  0.3530  0.0946
13092SOL    HW149590   3.066   6.725   2.314 -1.2836 -1.2346 -0.2736
13092SOL    HW249591   3.205   6.673   2.285 -0.9619  0.3943 -1.8464
13093SOL     OW49592  10.900   5.048   8.261 -0.6104 -0.3296 -0.5451
13093SOL    HW149593  10.938   5.014   8.180  1.8899 -0.1556  0.4525
13093SOL    HW249594  10.932   4.988   8.329 -0.0052  1.2989  0.6717
13094SOL     OW49595   1.947   0.160   5.485  0.7610 -0.3044  0.2890
13094SOL    HW149596   2.030   0.195   5.518  0.1626  0.4047  1.0625
13094SOL    HW249597   1.959   0.065   5.488  0.5379 -0.3342  3.1827
13095SOL     OW49598   2.398   7.131   4.080 -0.1289 -0.3022  0.3689
13095SOL    HW149599   2.359   7.053   4.120  0.9707 -0.5846  0.9359
13095SOL    HW249600   2.400   7.195   4.152 -7.0233  2.7924 -1.3808
13096SOL     OW49601  10.984   6.149   0.464 -0.0628 -0.3117  0.4903
13096SOL    HW149602  10.901   6.185   0.434  0.2167  1.2098  1.4373
13096SOL    HW249603  11.027   6.118   0.384 -0.3129  1.5101 -0.3998
13097SOL     OW49604   5.827   0.909   0.680  0.3431 -0.1391 -0.1267
13097SOL    HW149605   5.772   0.982   0.651  0.0546 -0.0597  0.6096
13097SOL    HW249606   5.766   0.849   0.723  0.9902  0.5078  1.7868
13098SOL     OW49607   0.138   6.452   9.103  0.2583 -0.3930  0.3093
13098SOL    HW149608   0.198   6.478   9.033 -0.6779 -0.2781 -0.4650
13098SOL    HW249609   0.195   6.437   9.179  1.2642 -0.3315 -0.4169
13099SOL     OW49610   0.348   5.798   8.521  0.7444 -0.0722 -0.1910
13099SOL    HW149611   0.345   5.835   8.609  1.5610  1.0324 -0.5919
13099SOL    HW249612   0.412   5.727   8.527  2.0351  1.0339 -0.2125
13100SOL     OW49613  11.591   4.209  11.777  0.3790  0.0440  0.5157
13100SOL    HW149614  11.537   4.286  11.761 -2.0487 -1.5011  0.7069
13100SOL    HW249615  11.590   4.161  11.694 -0.1173 -0.9047  1.0498
13101SOL     OW49616  11.476  11.796   5.204 -0.4371 -0.8777 -0.5866
13101SOL    HW149617  11.542  11.764   5.142  0.6353  0.7370 -0.3616
13101SOL    HW249618  11.472  11.729   5.272  0.3069 -1.4493 -1.0961
13102SOL     OW49619   8.563   4.206   5.573 -0.2156 -0.5314 -0.1893
13102SOL    HW149620   8.509   4.176   5.500 -0.7323  0.9637 -0.4408
13102SOL    HW249621   8.602   4.287   5.543 -0.8477  0.4043  1.3777
13103SOL     OW49622   1.596   2.941   2.262  0.1539 -0.0850 -0.0446
13103SOL    HW149623   1.653   3.015   2.243 -1.3641  1.0722 -0.3000
13103SOL    HW249624   1.514   2.961   2.216 -0.7696 -1.2536  1.0128
13104SOL     OW49625  12.633   9.050   2.746  0.5223  0.4502  0.4226
13104SOL    HW149626  12.690   8.987   2.701  0.6286  0.7061  0.1983
13104SOL    HW249627  12.585   9.093   2.675  1.0351  1.1912  0.5232
13105SOL     OW49628   1.322   3.844   5.985 -0.0251  0.1635 -0.1771
13105SOL    HW149629   1.284   3.826   5.899  3.8293 -3.4376 -1.4551
13105SOL    HW249630   1.277   3.783   6.044 -0.2652  0.1274 -0.3966
13106SOL     OW49631   3.056   3.189   3.117 -0.2973 -0.0817  0.3992
13106SOL    HW149632   3.113   3.113   3.102  0.8639  0.7944  0.3179
13106SOL    HW249633   3.073   3.214   3.208 -0.0094  0.6144  0.1615
13107SOL     OW49634   6.678   5.804   4.357 -0.0469 -0.4513  1.0083
13107SOL    HW149635   6.625   5.836   4.430  0.4703 -0.5437  1.4308
13107SOL    HW249636   6.624   5.736   4.317 -0.2676 -0.5192  1.4104
13108SOL     OW49637   7.437  10.383   8.596  0.6624 -0.0721 -0.1579
13108SOL    HW149638   7.430  10.355   8.688 -0.3572 -1.5934 -0.6543
13108SOL    HW249639   7.520  10.346   8.566  1.4853  1.2703  0.3997
13109SOL     OW49640   2.746  12.851   4.576 -0.0825  0.0633 -0.6470
13109SOL    HW149641   2.756  12.928   4.631 -0.7403 -0.7428  0.6377
13109SOL    HW249642   2.801  12.784   4.617 -0.0187 -0.3575 -1.3856
13110SOL     OW49643   1.022   9.904  12.128 -0.1651 -0.0012 -0.7148
13110SOL    HW149644   1.105   9.892  12.083 -0.7205 -1.5884 -1.4007
13110SOL    HW249645   1.021   9.836  12.194 -0.4839  0.6738 -0.0117
13111SOL     OW49646  10.613  10.865   5.665  0.1246 -0.2659 -0.0077
13111SOL    HW149647  10.700  10.867   5.625  0.2070 -0.3018  0.1714
13111SOL    HW249648  10.600  10.773   5.689 -0.5046 -0.5192 -1.2302
13112SOL     OW49649   5.118   5.054   8.028 -0.1323  0.0383  0.0947
13112SOL    HW149650   5.068   5.012   7.958 -0.0003 -0.1985  0.1429
13112SOL    HW249651   5.062   5.126   8.058 -0.6291 -0.4770  0.4257
13113SOL     OW49652   0.563   5.342   2.248  0.6319  0.4487 -0.5901
13113SOL    HW149653   0.505   5.350   2.324 -0.5798 -0.2375 -1.4294
13113SOL    HW249654   0.626   5.414   2.259 -0.7656  1.6385 -0.0044
13114SOL     OW49655   4.249   4.074   5.391 -0.1046  0.2545  0.0991
13114SOL    HW149656   4.338   4.088   5.424  0.2198  1.3942 -1.1513
13114SOL    HW249657   4.208   4.161   5.396 -0.8121 -0.0533 -0.2481
13115SOL     OW49658  11.820   7.128   1.499 -0.3169 -0.0807  0.5047
13115SOL    HW149659  11.894   7.169   1.543  0.5068 -0.1734 -0.7730
13115SOL    HW249660  11.755   7.117   1.569  0.6227  0.5481  1.5175
13116SOL     OW49661   6.613   7.260   2.459  0.3387 -0.0094  0.2982
13116SOL    HW149662   6.701   7.239   2.430 -0.0754 -0.0571 -0.9801
13116SOL    HW249663   6.601   7.352   2.437  1.0760  0.8591  3.1438
13117SOL     OW49664   1.449   2.486  12.410 -0.7133 -0.0209 -0.6421
13117SOL    HW149665   1.507   2.430  12.463 -1.6712 -0.7821 -0.3530
13117SOL    HW249666   1.403   2.540  12.474  0.9084  1.8646 -0.9761
13118SOL     OW49667   8.649  10.202   1.724  0.5092  0.6644  0.2918
13118SOL    HW149668   8.732  10.168   1.757  1.6577  2.9226 -0.0409
13118SOL    HW249669   8.671  10.290   1.692 -1.9665  1.2115 -0.0695
13119SOL     OW49670   5.526   6.289   5.989 -0.0636 -0.0690 -1.1109
13119SOL    HW149671   5.614   6.327   5.985 -0.7601  1.8656  0.3813
13119SOL    HW249672   5.516   6.262   6.081 -1.9690  2.3417 -0.5138
13120SOL     OW49673   3.134   2.181  11.107 -0.0610  0.1989 -0.7863
13120SOL    HW149674   3.099   2.229  11.032 -0.1750  3.0569  0.9583
13120SOL    HW249675   3.186   2.245  11.155 -1.6687 -0.8503  2.6681
13121SOL     OW49676   1.922   1.622   9.127 -0.2049 -0.7295 -0.5748
13121SOL    HW149677   1.856   1.664   9.072  0.8620  1.5578 -0.2272
13121SOL    HW249678   1.990   1.594   9.066  0.1861  0.2688 -0.6199
13122SOL     OW49679   2.198   9.515   2.498 -0.2245 -0.0038  0.1601
13122SOL    HW149680   2.178   9.464   2.419 -1.2364 -0.7145  0.8552
13122SOL    HW249681   2.186   9.454   2.570  0.4728  0.7019  0.8969
13123SOL     OW49682  12.332   4.458  10.730 -0.7562 -0.0175  0.0338
13123SOL    HW149683  12.243   4.431  10.752 -1.2862  2.8610  2.0514
13123SOL    HW249684  12.385   4.426  10.804 -0.8528  1.5480  0.8184
13124SOL     OW49685   7.391   7.629   0.119 -0.0141 -0.0688 -0.5792
13124SOL    HW149686   7.418   7.680   0.042  0.8951  0.2041 -0.0913
13124SOL    HW249687   7.346   7.692   0.175  0.8395  0.1362 -0.1152
13125SOL     OW49688   5.632   0.749   3.157  0.2418 -0.0923 -0.2324
13125SOL    HW149689   5.590   0.820   3.206  0.8927  0.0105  0.1822
13125SOL    HW249690   5.580   0.671   3.178 -1.3884  0.4787 -1.8274
13126SOL     OW49691  10.936  12.121  10.576  0.1152 -0.3075  0.7020
13126SOL    HW149692  10.927  12.036  10.620  0.8708 -0.8341 -0.1170
13126SOL    HW249693  11.030  12.133  10.565 -0.0046  0.4140  0.3739
13127SOL     OW49694   7.546   4.525   7.906 -0.1403  0.6556 -0.3699
13127SOL    HW149695   7.615   4.509   7.842  0.1528  1.5233 -0.2796
13127SOL    HW249696   7.468   4.485   7.867  0.3488 -0.1149 -0.5829
13128SOL     OW49697   1.777   1.924   7.409  0.0588  0.3927 -0.0584
13128SOL    HW149698   1.685   1.896   7.411  0.2381 -0.2253 -0.2693
13128SOL    HW249699   1.812   1.884   7.329  1.2776 -1.8052  1.4934
13129SOL     OW49700   2.562   6.018  12.004 -0.5104  0.6675 -0.0714
13129SOL    HW149701   2.610   6.064  12.073 -0.5358 -0.7245  0.9262
13129SOL    HW249702   2.472   6.014  12.037 -0.6028  0.3445 -0.3642
13130SOL     OW49703   3.415   1.997   2.087  0.0976  0.2856 -0.5537
13130SOL    HW149704   3.368   1.921   2.053  0.0865 -0.0607  0.2232
13130SOL    HW249705   3.368   2.072   2.052  0.2840 -0.0608 -1.5670
13131SOL     OW49706   8.946   7.485   9.321  0.4507 -0.4434  0.0541
13131SOL    HW149707   9.039   7.501   9.331  0.9548 -1.8423 -1.8646
13131SOL    HW249708   8.936   7.390   9.328 -0.9669 -0.2659  1.0208
13132SOL     OW49709   8.717   8.680   7.782 -0.3214 -0.2275  0.4501
13132SOL    HW149710   8.665   8.661   7.860 -0.6078 -1.9721 -0.1280
13132SOL    HW249711   8.656   8.669   7.709  0.0570  0.9354 -0.0719
13133SOL     OW49712   2.357  12.835   6.769 -0.3017  0.5777  0.5739
13133SOL    HW149713   2.402  12.885   6.701 -1.1032  0.6439  0.0872
13133SOL    HW249714   2.401  12.860   6.850  1.0977  0.0015  0.0222
13134SOL     OW49715   3.193   3.638   9.998 -0.3237 -0.3868  0.2682
13134SOL    HW149716   3.184   3.685   9.915 -1.9322 -0.4590  0.3690
13134SOL    HW249717   3.227   3.552   9.973 -1.0585 -0.5064 -0.3725
13135SOL     OW49718   2.346   7.296   8.478  0.3262  0.1916 -0.1955
13135SOL    HW149719   2.401   7.357   8.429  1.4419  0.1295  0.9386
13135SOL    HW249720   2.391   7.212   8.470  1.1839  0.4143  1.8956
13136SOL     OW49721   5.887   4.370   4.109 -0.0725 -1.2020  1.0477
13136SOL    HW149722   5.894   4.274   4.103 -1.7048 -1.3589  1.1837
13136SOL    HW249723   5.862   4.387   4.199  1.0216 -0.5618  1.2492
13137SOL     OW49724  10.027   1.181   5.923 -0.2169 -0.4151 -0.2613
13137SOL    HW149725  10.073   1.114   5.973 -1.2357 -0.6375  0.3991
13137SOL    HW249726  10.093   1.214   5.861  1.0416 -0.2226  1.1243
13138SOL     OW49727  10.026   3.190  11.477 -0.3292  0.0037 -0.1734
13138SOL    HW149728  10.074   3.179  11.559  2.2886 -2.9719 -1.9056
13138SOL    HW249729   9.970   3.113  11.471  1.1299 -1.0083 -2.0447
13139SOL     OW49730   4.006   1.658   2.445  0.4021 -0.5718  0.1240
13139SOL    HW149731   4.088   1.652   2.397  0.4938 -0.3822  0.2536
13139SOL    HW249732   3.945   1.604   2.396  0.6603 -0.8797  0.1410
13140SOL     OW49733  11.939   9.569  11.758  0.2939 -0.4896 -0.2591
13140SOL    HW149734  11.925   9.625  11.834  0.3612 -1.2668  0.3443
13140SOL    HW249735  12.002   9.504  11.787  2.4997  0.8041 -1.8352
13141SOL     OW49736   5.120   3.444   0.540 -0.4726  0.0099 -0.0363
13141SOL    HW149737   5.140   3.378   0.475 -0.2647  0.1019 -0.0653
13141SOL    HW249738   5.122   3.527   0.492  3.1270  0.4945  0.7171
13142SOL     OW49739   6.149   0.516   2.046  0.1145  0.3488  0.2923
13142SOL    HW149740   6.227   0.463   2.064  0.3706  0.5893 -0.0907
13142SOL    HW249741   6.132   0.562   2.129  0.1422 -0.0088  0.4984
13143SOL     OW49742   4.678   7.050   8.914  0.2424 -0.3180  0.6016
13143SOL    HW149743   4.618   6.997   8.861 -2.4697  2.0926  1.0017
13143SOL    HW249744   4.739   7.088   8.850 -1.3779  0.5505 -0.4841
13144SOL     OW49745   1.703   9.113   3.449 -0.1585  0.4396 -0.3118
13144SOL    HW149746   1.651   9.094   3.371 -1.5266  0.5178  0.5444
13144SOL    HW249747   1.776   9.051   3.445 -1.0126 -0.5528 -0.9028
13145SOL     OW49748  10.460   8.283   9.320 -0.2472 -0.2112  0.0414
13145SOL    HW149749  10.452   8.319   9.232  0.3302 -1.4915 -0.5625
13145SOL    HW249750  10.485   8.357   9.375 -0.0947  0.4933 -0.9626
13146SOL     OW49751   8.712   3.148   2.569 -0.0455  0.3346 -0.3373
13146SOL    HW149752   8.761   3.223   2.602  0.4700 -0.0751 -0.1598
13146SOL    HW249753   8.623   3.159   2.604  0.1307  0.6483  0.0060
13147SOL     OW49754   1.907   2.106  12.002  0.1664  0.0885  0.1704
13147SOL    HW149755   1.951   2.066  11.927 -0.7031  0.3317 -0.4894
13147SOL    HW249756   1.834   2.155  11.964 -1.2363 -1.0138  1.2876
13148SOL     OW49757   2.818   3.239  10.433  0.0937  0.2390 -0.0465
13148SOL    HW149758   2.752   3.182  10.393  0.1811 -0.0233  0.1729
13148SOL    HW249759   2.815   3.320  10.382 -1.9018  1.0602  1.2462
13149SOL     OW49760   2.423  10.153  10.926  0.3793  0.2221  0.0071
13149SOL    HW149761   2.375  10.194  10.855 -1.0840 -1.8425 -0.2792
13149SOL    HW249762   2.494  10.105  10.882  1.0022  0.9436  0.1925
13150SOL     OW49763   2.699   9.531   4.917  0.1775 -0.7067 -0.2855
13150SOL    HW149764   2.767   9.598   4.921 -0.4502  0.0398 -1.4017
13150SOL    HW249765   2.731   9.461   4.973  0.2193  1.0759  2.0805
13151SOL     OW49766  10.877   6.456   9.096  0.4345 -0.2049  0.2321
13151SOL    HW149767  10.962   6.498   9.108  0.8014 -0.9139  0.1510
13151SOL    HW249768  10.857   6.416   9.180 -1.2209  2.4183  1.2104
13152SOL     OW49769   8.164  11.568   0.274 -0.1606  0.1400 -0.2163
13152SOL    HW149770   8.146  11.477   0.250 -1.2710  0.2901  0.0199
13152SOL    HW249771   8.226  11.598   0.207  2.5583 -1.6147  1.2977
13153SOL     OW49772   5.760   0.409   2.586  0.2094  0.1466  0.6566
13153SOL    HW149773   5.749   0.318   2.557 -2.2711  0.4204  0.4933
13153SOL    HW249774   5.825   0.446   2.526 -0.6870 -0.8324 -1.0058
13154SOL     OW49775   7.586   9.195   8.156 -0.6396 -0.3993  0.1295
13154SOL    HW149776   7.505   9.167   8.113  0.4459  0.4422 -2.6473
13154SOL    HW249777   7.600   9.285   8.126  1.5182 -0.6423  0.2232
13155SOL     OW49778   4.493   8.640   1.577  0.0379  0.0137  0.0168
13155SOL    HW149779   4.455   8.570   1.524 -1.0011  0.3264  0.3157
13155SOL    HW249780   4.437   8.716   1.560 -0.6399 -0.0005  1.9340
13156SOL     OW49781   8.145   0.351   6.679  0.5991  0.2540  0.2181
13156SOL    HW149782   8.233   0.373   6.648  0.2559  1.2200 -0.1108
13156SOL    HW249783   8.106   0.303   6.606  0.0540  1.8714 -0.6023
13157SOL     OW49784   2.900   9.769  11.775 -0.2019  0.4151  0.0435
13157SOL    HW149785   2.855   9.701  11.726 -1.4846 -0.4628  2.2686
13157SOL    HW249786   2.944   9.822  11.709 -0.4165 -1.6571 -1.8742
13158SOL     OW49787   2.634   1.743   5.484  0.5560 -1.1384  0.3748
13158SOL    HW149788   2.597   1.736   5.572 -1.3637 -1.6394 -0.4205
13158SOL    HW249789   2.616   1.833   5.458  1.8973 -0.7262  0.7778
13159SOL     OW49790  12.084   8.452  12.724  0.1605  0.2779 -0.1072
13159SOL    HW149791  12.126   8.412  12.800 -1.8025 -1.1517  0.2931
13159SOL    HW249792  12.157   8.477  12.668  1.5995 -0.6547  1.2431
13160SOL     OW49793  11.968   9.049   7.434  0.2390  0.3967  0.3729
13160SOL    HW149794  11.960   9.135   7.475 -1.4456 -0.2006  1.3801
13160SOL    HW249795  12.019   8.997   7.496 -0.9335 -0.0466  0.9818
13161SOL     OW49796  12.056  10.412   3.989 -0.2196 -0.3887 -0.0599
13161SOL    HW149797  12.062  10.462   3.907  0.9805  0.0081  0.2464
13161SOL    HW249798  12.128  10.349   3.984 -0.4116 -0.6629  0.5016
13162SOL     OW49799   7.628  10.515   5.341 -0.0482 -0.5430 -0.4161
13162SOL    HW149800   7.557  10.506   5.405 -0.1405 -0.8674 -0.5601
13162SOL    HW249801   7.692  10.448   5.366 -0.3315 -1.0335 -0.9813
13163SOL     OW49802   2.426   5.121   8.237  0.2084  0.2585  0.3443
13163SOL    HW149803   2.334   5.133   8.213  0.5953  2.1716 -0.4322
13163SOL    HW249804   2.425   5.106   8.331 -0.8702  1.4830  0.5638
13164SOL     OW49805  10.814   6.136   5.115 -0.6272 -0.5824  0.2600
13164SOL    HW149806  10.856   6.202   5.170 -0.9667 -0.2689  0.1413
13164SOL    HW249807  10.795   6.063   5.175  0.4581 -0.9048  0.2363
13165SOL     OW49808   9.147  10.286   0.729  0.2551 -0.3819 -0.2448
13165SOL    HW149809   9.083  10.356   0.712  0.0544 -0.2720  0.9110
13165SOL    HW249810   9.106  10.207   0.695 -0.6853 -0.3823  0.8593
13166SOL     OW49811   7.527   7.894   7.771  0.4388 -0.5182 -0.4735
13166SOL    HW149812   7.490   7.806   7.769  1.6340 -1.0836  0.8108
13166SOL    HW249813   7.488   7.935   7.848  2.1710 -1.0215  0.7237
13167SOL     OW49814   7.821   4.723   6.287  0.2304  0.2241  0.0444
13167SOL    HW149815   7.890   4.781   6.253  2.4282 -1.7129  0.9844
13167SOL    HW249816   7.803   4.663   6.215  1.2452 -0.7128  0.5435
13168SOL     OW49817   2.032   6.565   8.524  0.3259  1.3715  0.0480
13168SOL    HW149818   2.028   6.543   8.431 -0.1928 -0.3006  0.4212
13168SOL    HW249819   2.110   6.518   8.556 -0.5719  0.3323  0.7988
13169SOL     OW49820   3.802  12.474   6.884 -0.2794  0.0581 -0.2821
13169SOL    HW149821   3.707  12.465   6.876 -0.0536 -3.0327 -0.9811
13169SOL    HW249822   3.832  12.487   6.794  0.0661 -1.1048 -0.3495
13170SOL     OW49823  12.407   8.209   8.656  0.5936  0.4347  0.4852
13170SOL    HW149824  12.488   8.240   8.696 -0.1566  0.2193  2.2319
13170SOL    HW249825  12.347   8.195   8.729  0.0815 -2.7969 -0.3659
13171SOL     OW49826   0.499   9.182   5.217 -0.4683  0.0719  0.2484
13171SOL    HW149827   0.553   9.247   5.172  2.4457 -1.9897  0.4747
13171SOL    HW249828   0.450   9.232   5.282  0.5868  2.1934 -0.4948
13172SOL     OW49829   6.682   0.703  11.957  0.2479  0.1394 -0.1173
13172SOL    HW149830   6.721   0.781  11.995  0.2891  0.1535 -0.1886
13172SOL    HW249831   6.605   0.685  12.012 -0.6553  1.1279 -1.0011
13173SOL     OW49832  11.124  11.451   5.779 -0.0824  0.0989 -0.3421
13173SOL    HW149833  11.081  11.533   5.759 -0.3852  0.2587  0.8600
13173SOL    HW249834  11.158  11.419   5.695 -1.1631  0.7549 -1.0371
13174SOL     OW49835   1.444   8.868   0.261 -0.3207  0.3837 -0.1604
13174SOL    HW149836   1.523   8.853   0.210 -0.5456  0.2043 -0.4611
13174SOL    HW249837   1.439   8.963   0.271 -0.2555  0.4162 -0.4412
13175SOL     OW49838  10.009  12.667   6.682 -0.2348  0.0830  0.3959
13175SOL    HW149839  10.103  12.649   6.691 -0.0860  0.6920  0.1414
13175SOL    HW249840  10.005  12.749   6.632 -0.9254 -0.6600 -0.8373
13176SOL     OW49841   0.227  12.060   4.814 -0.1816  0.2336 -0.5232
13176SOL    HW149842   0.197  12.038   4.726 -2.1354  1.1019 -0.1389
13176SOL    HW249843   0.236  12.156   4.814  0.4490  0.1851  0.0345
13177SOL     OW49844   1.228   5.760   1.024  0.0846 -0.0596  0.5059
13177SOL    HW149845   1.162   5.828   1.041 -0.3445 -0.7527  1.7842
13177SOL    HW249846   1.178   5.680   1.013  0.6711 -0.4601  0.7106
13178SOL     OW49847  10.668   1.906  11.691 -0.1403 -0.5738 -0.3617
13178SOL    HW149848  10.725   1.919  11.767 -3.3904  3.4340  1.7760
13178SOL    HW249849  10.610   1.834  11.717 -1.9481  1.4750  1.6805
13179SOL     OW49850   0.785   2.129   9.226  0.0156  0.2460 -0.2045
13179SOL    HW149851   0.752   2.204   9.275  0.7702  1.2908 -1.2291
13179SOL    HW249852   0.867   2.160   9.187  0.6222 -1.2814 -0.2268
13180SOL     OW49853   0.164   1.727   5.597 -0.4097  0.3649 -0.1617
13180SOL    HW149854   0.165   1.733   5.502  1.5619 -1.8975 -0.3774
13180SOL    HW249855   0.072   1.709   5.619 -0.5934 -1.0349 -1.8472
13181SOL     OW49856  12.223  12.210  11.337 -0.4853 -0.0157  0.2309
13181SOL    HW149857  12.130  12.214  11.312  0.3814  1.1264 -3.3056
13181SOL    HW249858  12.251  12.122  11.313 -0.6960 -0.4893  1.6512
13182SOL     OW49859  12.630   6.321  10.582  0.5542 -0.4562  0.3790
13182SOL    HW149860  12.549   6.373  10.577  1.2044  0.8005  1.9091
13182SOL    HW249861  12.613   6.258  10.652  0.7574 -0.4280  0.4532
13183SOL     OW49862  11.396  12.543   3.647 -0.4837 -0.8842  0.4047
13183SOL    HW149863  11.467  12.566   3.587 -0.9878 -0.3815 -0.0128
13183SOL    HW249864  11.328  12.507   3.591 -1.3568  0.5183  0.5353
13184SOL     OW49865  12.295   5.983   7.281 -0.3273 -0.3026 -0.0156
13184SOL    HW149866  12.243   6.017   7.209  0.2973  0.4744 -0.1046
13184SOL    HW249867  12.246   6.007   7.360  0.6752  1.8614 -0.0084
13185SOL     OW49868  11.369   8.107   4.853  0.0294  0.3493 -0.2188
13185SOL    HW149869  11.285   8.087   4.811 -1.4070 -0.7600  2.8772
13185SOL    HW249870  11.412   8.022   4.862  1.6953  0.9330 -1.9696
13186SOL     OW49871   4.733   1.629  12.284  0.3717 -0.6640 -0.0725
13186SOL    HW149872   4.644   1.647  12.313 -0.0336 -1.0420 -1.0156
13186SOL    HW249873   4.773   1.581  12.356 -0.0160 -0.0366  0.5687
13187SOL     OW49874  12.924   1.042   0.851 -0.4085 -0.2518  0.2572
13187SOL    HW149875  12.938   1.106   0.781  0.0127 -0.3540  0.2393
13187SOL    HW249876  12.848   0.992   0.823 -1.9717  1.4868  1.2197
13188SOL     OW49877  12.889  11.465   5.184  0.4785 -0.2908 -0.1902
13188SOL    HW149878  12.806  11.509   5.202  1.0425  0.3868  0.8586
13188SOL    HW249879  12.890  11.454   5.089 -0.9707 -0.6469 -0.1938
13189SOL     OW49880   7.756   3.331  12.186 -0.0407 -0.9422  0.5131
13189SOL    HW149881   7.708   3.354  12.107 -0.0015 -0.6590  0.5722
13189SOL    HW249882   7.688   3.316  12.252 -0.0641 -0.9590  0.4856
13190SOL     OW49883  11.372   5.740   4.018 -0.2066  0.1905 -0.2090
13190SOL    HW149884  11.393   5.715   3.929  1.0653  3.2833 -0.9032
13190SOL    HW249885  11.451   5.782   4.051 -2.0222  3.2395  0.6839
13191SOL     OW49886  11.599   5.081  11.221 -0.2231  0.1250 -0.3545
13191SOL    HW149887  11.629   5.097  11.311 -0.5893  1.1349 -0.4005
13191SOL    HW249888  11.578   4.987  11.219  0.6581 -0.1036  0.3493
13192SOL     OW49889  10.061   7.590  12.363  0.1428 -0.1983  0.0780
13192SOL    HW149890   9.998   7.542  12.417  0.4219  1.1353  1.6584
13192SOL    HW249891  10.026   7.582  12.274 -0.6817 -1.9101  0.5097
13193SOL     OW49892   2.950   2.809   5.982  0.0339  0.8116 -0.3085
13193SOL    HW149893   2.918   2.803   5.892  1.1048  0.3615 -0.6764
13193SOL    HW249894   3.026   2.866   5.977 -0.1071  1.0664  0.3767
13194SOL     OW49895  11.262   8.713   2.968 -0.7517 -0.2920 -0.7541
13194SOL    HW149896  11.238   8.657   2.893  1.5494 -1.5191 -0.6553
13194SOL    HW249897  11.291   8.795   2.928 -0.4704 -0.5780 -1.1379
13195SOL     OW49898   0.308   6.526   6.071 -0.0077 -0.2871 -0.3507
13195SOL    HW149899   0.226   6.563   6.037 -1.8090 -1.0318  2.7381
13195SOL    HW249900   0.300   6.432   6.057  1.5382 -0.1967 -2.2324
13196SOL     OW49901   9.593   8.796   7.037  0.8196 -0.8464  0.2594
13196SOL    HW149902   9.559   8.874   6.994 -2.2734 -0.9468  2.2717
13196SOL    HW249903   9.688   8.801   7.023  0.3166  0.2733 -4.4095
13197SOL     OW49904  10.685   3.090  12.614 -0.0110 -0.0601  0.0176
13197SOL    HW149905  10.671   3.089  12.709  0.7024  0.1904  0.1298
13197SOL    HW249906  10.663   3.179  12.587  0.4124  0.0526  0.0459
13198SOL     OW49907   4.634   3.768   2.364  0.0301 -0.0188  0.4043
13198SOL    HW149908   4.609   3.706   2.296  1.5200 -1.2746  0.9282
13198SOL    HW249909   4.644   3.851   2.319  0.3558 -0.6833 -0.7930
13199SOL     OW49910   6.789   0.762  12.589  0.3262 -0.1653 -0.6100
13199SOL    HW149911   6.868   0.709  12.579  0.4328 -0.0029 -0.6272
13199SOL    HW249912   6.720   0.709  12.549  0.6817  0.3227 -1.9176
13200SOL     OW49913   3.627   8.342   9.629 -0.0288 -0.0783 -0.0641
13200SOL    HW149914   3.591   8.282   9.694  0.8079 -2.1860 -1.4551
13200SOL    HW249915   3.605   8.303   9.545  2.8233  0.1274 -1.0072
13201SOL     OW49916  12.315   9.215   2.958  0.4127 -0.1519  0.5459
13201SOL    HW149917  12.317   9.125   2.926  0.9067 -0.6594  1.9029
13201SOL    HW249918  12.232   9.250   2.927  0.6219 -0.7696 -0.7689
13202SOL     OW49919   9.492   2.418  11.888 -0.2616  0.2578 -0.2280
13202SOL    HW149920   9.431   2.385  11.954 -1.4514 -0.0565 -1.4620
13202SOL    HW249921   9.577   2.414  11.931 -0.7365 -1.8002  0.6298
13203SOL     OW49922   8.711  11.944   4.078 -0.5883  0.2821 -0.1535
13203SOL    HW149923   8.763  12.014   4.038 -4.0583  3.3882  0.2138
13203SOL    HW249924   8.679  11.893   4.004  0.9432 -0.1810 -0.5339
13204SOL     OW49925  12.769   5.639   5.003  0.2940  0.3507 -0.3673
13204SOL    HW149926  12.791   5.568   4.943 -2.1404  0.1144 -1.0919
13204SOL    HW249927  12.773   5.718   4.950 -1.7472  0.1547 -0.8798
13205SOL     OW49928   6.858   4.235   4.925  0.8356  0.4530  0.2337
13205SOL    HW149929   6.945   4.260   4.955  1.8503 -0.1540 -1.9549
13205SOL    HW249930   6.849   4.279   4.841 -1.1908  0.8758  0.6367
13206SOL     OW49931   4.634   7.856  12.105 -0.5933 -0.2831 -0.5398
13206SOL    HW149932   4.655   7.772  12.146 -0.8366 -0.2439 -0.3317
13206SOL    HW249933   4.714   7.881  12.058  0.4461  0.6867  1.6040
13207SOL     OW49934   4.391  10.298   3.817  0.2922 -0.7299  0.0382
13207SOL    HW149935   4.324  10.256   3.762  0.2085  0.1357 -0.5377
13207SOL    HW249936   4.474  10.266   3.782  0.2156 -0.9504  0.0517
13208SOL     OW49937   3.613   7.874   0.530 -0.0276 -0.1628 -0.6832
13208SOL    HW149938   3.546   7.828   0.581  2.7599 -1.4399  2.2216
13208SOL    HW249939   3.636   7.949   0.585  1.2246 -0.0116 -1.3946
13209SOL     OW49940   5.869   5.988   2.202  0.0180 -0.2208 -0.0585
13209SOL    HW149941   5.948   6.040   2.219 -0.3323  0.5725 -0.7956
13209SOL    HW249942   5.844   6.012   2.113 -2.6249  1.6320  1.0811
13210SOL     OW49943   3.501   9.708   8.395  0.2826  0.2776 -0.5664
13210SOL    HW149944   3.455   9.757   8.327  0.8480  0.0576 -1.1120
13210SOL    HW249945   3.572   9.663   8.349  1.0642  0.6252  0.2586
13211SOL     OW49946   3.532   0.885  10.016  0.0624 -0.1175 -0.5667
13211SOL    HW149947   3.600   0.851  10.075  0.1004 -3.1189 -2.1183
13211SOL    HW249948   3.471   0.931  10.073  2.0995  0.5005  1.2204
13212SOL     OW49949   6.992   1.714  12.274  0.2928 -0.0683  0.3786
13212SOL    HW149950   7.021   1.805  12.278 -0.4361  0.1403  1.1388
13212SOL    HW249951   6.918   1.716  12.213  2.4948 -0.8023 -2.5475
13213SOL     OW49952   7.063   0.942   8.469  0.7219  0.1470 -0.3002
13213SOL    HW149953   7.128   0.873   8.482  2.1240  1.4552 -0.0764
13213SOL    HW249954   7.087   1.010   8.533 -1.1068  0.5218  0.0575
13214SOL     OW49955  10.072   0.758   6.967  0.2744 -0.0025 -0.2381
13214SOL    HW149956  10.100   0.847   6.945  0.2059 -0.5597 -2.8592
13214SOL    HW249957  10.133   0.730   7.035  2.0428  1.1046 -1.2975
13215SOL     OW49958   7.767   2.274   0.216 -0.1662  0.3414 -0.0485
13215SOL    HW149959   7.679   2.243   0.241 -0.4408  1.0294 -0.1288
13215SOL    HW249960   7.809   2.197   0.178 -0.6253 -0.0816  0.2689
13216SOL     OW49961   1.830  10.032  10.119  0.4193  0.5796  0.3107
13216SOL    HW149962   1.875  10.014  10.037 -0.9118 -4.3381  0.3577
13216SOL    HW249963   1.740  10.054  10.093  0.4026  0.6604  0.4345
13217SOL     OW49964   1.937  11.465  10.744  0.7382  0.5610 -0.2045
13217SOL    HW149965   1.842  11.475  10.738  0.4616 -0.9553  1.1601
13217SOL    HW249966   1.962  11.429  10.659  0.0189  0.5043 -0.4009
13218SOL     OW49967   0.285   3.176   8.216 -0.0644 -0.8643 -0.2681
13218SOL    HW149968   0.329   3.177   8.301 -1.8391 -0.6007  0.6981
13218SOL    HW249969   0.201   3.219   8.232  0.9320  2.5953 -2.9971
13219SOL     OW49970  10.140   9.312   8.350  0.0019  0.3773 -0.6643
13219SOL    HW149971  10.066   9.251   8.356  0.5372 -0.2151  0.0490
13219SOL    HW249972  10.139   9.360   8.433  0.4931  0.2761 -0.5967
13220SOL     OW49973   9.344   3.962  12.917 -0.3040 -0.1308  0.1370
13220SOL    HW149974   9.364   3.909  12.994 -1.3427 -1.0677 -0.2254
13220SOL    HW249975   9.253   3.989  12.928 -0.2197  0.3984 -0.3792
13221SOL     OW49976   2.405   0.849   8.896  0.1500 -0.3210 -0.0788
13221SOL    HW149977   2.323   0.898   8.904 -0.3737 -1.2037  0.0231
13221SOL    HW249978   2.451   0.893   8.824 -0.7574 -0.2933 -0.6662
13222SOL     OW49979   5.908  10.929  12.881 -0.5327 -0.2374 -0.5578
13222SOL    HW149980   5.911  10.837  12.854 -0.7244 -0.3428 -0.2350
13222SOL    HW249981   5.943  10.977  12.806  1.1539 -0.7003 -0.1177
13223SOL     OW49982   7.080   6.976   4.437  0.1675 -0.0640  0.1063
13223SOL    HW149983   7.083   7.035   4.362 -1.4924  1.4581  1.1738
13223SOL    HW249984   7.072   7.033   4.513 -1.7977 -1.6425  1.1804
13224SOL     OW49985   7.747   8.311   4.504  0.3724  0.0451 -0.0411
13224SOL    HW149986   7.688   8.314   4.429  0.6964  1.7732 -0.2512
13224SOL    HW249987   7.828   8.273   4.468  0.1891 -0.1067 -0.3036
13225SOL     OW49988   2.258   1.462   4.061  0.0437 -0.3656 -0.4222
13225SOL    HW149989   2.297   1.388   4.015 -0.2577 -1.1383  0.5240
13225SOL    HW249990   2.167   1.464   4.030 -0.1471 -0.8574  0.0804
13226SOL     OW49991   5.627   9.114  12.109 -0.7818 -0.1125  0.1361
13226SOL    HW149992   5.533   9.101  12.124 -0.4865 -2.3010  0.3103
13226SOL    HW249993   5.669   9.082  12.188  0.1389  1.0224  0.1323
13227SOL     OW49994   8.030   1.797   5.507  0.4686  0.5016 -0.5249
13227SOL    HW149995   8.088   1.725   5.533  1.8077  0.7128 -2.6720
13227SOL    HW249996   8.041   1.863   5.575  1.5447 -0.1245 -0.0659
13228SOL     OW49997   2.724   6.298  10.344  0.0005 -0.1631 -0.1522
13228SOL    HW149998   2.808   6.325  10.308 -0.4481 -1.6374 -2.4844
13228SOL    HW249999   2.671   6.276  10.267 -2.1824 -0.2704  1.2981
13229SOL     OW50000   9.886   9.746   0.934  0.5545  0.0233 -0.4357
13229SOL    HW150001   9.928   9.764   0.850  1.7921 -1.2614 -0.1389
13229SOL    HW250002   9.793   9.739   0.914  0.7413  0.5228 -1.5511
13230SOL     OW50003   7.841  11.992   1.980  0.4888 -0.1561  0.2253
13230SOL    HW150004   7.885  12.073   1.954  0.0765  0.0532  0.1717
13230SOL    HW250005   7.788  12.016   2.056 -0.1003 -0.2246 -0.1498
13231SOL     OW50006   6.550   8.777   9.298  0.5061 -0.2154 -0.2064
13231SOL    HW150007   6.538   8.726   9.217 -1.0461 -0.3831  0.1109
13231SOL    HW250008   6.463   8.782   9.337  1.3209 -0.7012  1.8155
13232SOL     OW50009   2.364   3.610  10.055 -0.0347 -0.6974 -1.0126
13232SOL    HW150010   2.272   3.587  10.038 -0.6451  1.3713 -0.7583
13232SOL    HW250011   2.373   3.698  10.020  1.1754  0.1119  1.1756
13233SOL     OW50012   9.529   5.610   3.643  0.0545  0.5340  0.2350
13233SOL    HW150013   9.618   5.627   3.611  0.3975  2.9572  2.2001
13233SOL    HW250014   9.526   5.515   3.655  2.6281  0.4342  0.7141
13234SOL     OW50015   9.099   9.893   4.056  0.2122 -0.6150 -0.4752
13234SOL    HW150016   9.150   9.856   3.984  2.1771  0.6394  0.1842
13234SOL    HW250017   9.020   9.928   4.014  1.0351 -0.4256 -1.9513
13235SOL     OW50018   8.987   6.023   3.967 -0.1318  0.2254  0.1114
13235SOL    HW150019   8.914   6.075   3.933  0.8486 -0.0508 -2.6581
13235SOL    HW250020   8.951   5.936   3.981 -0.8977  0.6992  1.1658
13236SOL     OW50021   6.882   5.474   6.221 -0.0726 -0.3198  0.1235
13236SOL    HW150022   6.848   5.514   6.141 -0.6382 -0.8388  0.0968
13236SOL    HW250023   6.952   5.533   6.249 -0.9742  0.7779  0.1627
13237SOL     OW50024   5.477   1.087   6.735 -0.2582  0.3596  0.2389
13237SOL    HW150025   5.425   1.146   6.679 -1.1165 -0.0540  0.5769
13237SOL    HW250026   5.527   1.145   6.791  2.1551  0.8566 -2.2409
13238SOL     OW50027   8.559   8.750   4.539  0.4258 -0.0841 -0.1536
13238SOL    HW150028   8.630   8.703   4.496  1.1883  0.4990  0.4521
13238SOL    HW250029   8.601   8.801   4.608 -0.6864 -0.5219  0.8982
13239SOL     OW50030   3.989   5.910   1.591  0.9091 -0.0309 -0.0645
13239SOL    HW150031   4.053   5.959   1.643  2.0023 -2.2603  0.8419
13239SOL    HW250032   4.040   5.873   1.519  0.1982 -0.1658 -0.5074
13240SOL     OW50033   0.613  12.124   9.614  0.3063  0.2236 -0.0802
13240SOL    HW150034   0.573  12.200   9.570  1.3356  0.4495 -0.6498
13240SOL    HW250035   0.701  12.153   9.637  0.5034 -0.6086  0.2560
13241SOL     OW50036   7.971   0.507   0.113 -0.1670 -0.2201 -0.1764
13241SOL    HW150037   7.894   0.454   0.094  0.4944 -1.0925 -0.4977
13241SOL    HW250038   8.035   0.445   0.149  0.8950  0.1825 -1.2650
13242SOL     OW50039   9.566   3.864   7.669 -0.5162  0.1525 -0.2413
13242SOL    HW150040   9.569   3.844   7.762  0.5383 -0.0248 -0.3087
13242SOL    HW250041   9.557   3.779   7.627 -0.2296  0.1688 -0.3359
13243SOL     OW50042   0.567  11.549   1.377  0.0453  0.1333  0.0289
13243SOL    HW150043   0.550  11.639   1.405  4.6391  1.7396 -1.5752
13243SOL    HW250044   0.509  11.535   1.302 -0.1444  2.0401 -0.2082
13244SOL     OW50045   8.086   7.541   7.782 -0.3768  0.0744  0.2009
13244SOL    HW150046   8.017   7.598   7.747 -0.1291 -0.1403 -0.6715
13244SOL    HW250047   8.134   7.511   7.704 -0.1413 -0.8581  0.6895
13245SOL     OW50048   1.844   6.941  10.644  0.0891 -0.3819  0.1202
13245SOL    HW150049   1.853   6.985  10.559  1.2589  1.8326  1.2948
13245SOL    HW250050   1.762   6.975  10.680  0.9769  0.9455  1.0120
13246SOL     OW50051  12.100   9.154   5.305 -0.1202 -0.3827 -0.4779
13246SOL    HW150052  12.166   9.099   5.262 -0.8265 -0.6909 -1.2115
13246SOL    HW250053  12.109   9.239   5.262 -0.6449 -0.6150 -1.0670
13247SOL     OW50054  11.147   9.915   8.399  0.2133  0.3116 -0.0352
13247SOL    HW150055  11.173   9.828   8.429  1.3304  1.2660  2.0070
13247SOL    HW250056  11.053   9.919   8.415  0.0550 -0.6706 -0.6262
13248SOL     OW50057   2.935   3.190   6.835 -0.0275 -0.1024 -0.7306
13248SOL    HW150058   2.855   3.202   6.784 -0.9419  1.0608  0.9122
13248SOL    HW250059   2.992   3.138   6.777 -1.1327  0.8241 -2.7768
13249SOL     OW50060   0.273   4.579  12.412 -0.8020 -0.1338 -0.1537
13249SOL    HW150061   0.236   4.668  12.416  0.1430  0.2390  0.8872
13249SOL    HW250062   0.254   4.549  12.323 -2.9336  0.3110  0.0967
13250SOL     OW50063   4.198   6.942   7.578 -0.0542  1.0243 -0.5791
13250SOL    HW150064   4.274   6.883   7.574 -0.5035  0.5034 -2.1220
13250SOL    HW250065   4.153   6.917   7.659  0.1042 -0.3596 -0.8855
13251SOL     OW50066   9.878   8.475   6.648 -0.2688  0.0358  0.5223
13251SOL    HW150067   9.804   8.493   6.589  0.7004  1.3154 -0.3571
13251SOL    HW250068   9.908   8.388   6.624 -1.3012 -0.3846  0.6990
13252SOL     OW50069  10.696   2.605   7.151 -0.1403 -0.2420  0.2610
13252SOL    HW150070  10.655   2.556   7.081 -0.4764 -1.7551  1.4647
13252SOL    HW250071  10.671   2.696   7.135 -1.9750 -0.8223 -0.3746
13253SOL     OW50072   5.831   9.046   6.017  0.0158 -0.2789 -0.4578
13253SOL    HW150073   5.787   8.965   6.044 -0.4077 -0.6044 -2.0210
13253SOL    HW250074   5.907   9.053   6.074 -0.6542 -1.0851  0.5663
13254SOL     OW50075   4.581   0.098   0.701  0.0173  0.3736  0.3097
13254SOL    HW150076   4.503   0.148   0.676 -0.8106 -0.2616  1.4839
13254SOL    HW250077   4.562   0.069   0.790  0.4773 -1.9867 -0.2958
13255SOL     OW50078   5.745   9.979  12.681 -0.8127 -0.1320  0.4230
13255SOL    HW150079   5.679  10.044  12.658  0.2859  0.6723 -0.6236
13255SOL    HW250080   5.716   9.898  12.637 -0.4641  0.5427 -1.1191
13256SOL     OW50081   2.378   0.298   3.699 -0.3625 -0.4030 -0.5787
13256SOL    HW150082   2.386   0.392   3.678 -0.1244 -0.1944  0.4008
13256SOL    HW250083   2.318   0.264   3.633  0.4003  0.2091 -1.6379
13257SOL     OW50084   6.096   9.930   4.213  0.2454 -0.2558  0.5056
13257SOL    HW150085   6.119  10.005   4.269  1.4560 -1.0126  1.0654
13257SOL    HW250086   6.128   9.854   4.261 -1.8428 -1.2479  0.4088
13258SOL     OW50087   4.149   9.466  11.427  0.1616 -0.3579 -0.2958
13258SOL    HW150088   4.183   9.431  11.510 -0.4411 -0.3370 -0.0374
13258SOL    HW250089   4.153   9.561  11.439  0.3147 -0.3515 -0.3934
13259SOL     OW50090  11.694  11.532   4.786 -0.3354 -0.3269  0.0386
13259SOL    HW150091  11.649  11.588   4.723 -1.3795 -0.2934  0.7942
13259SOL    HW250092  11.751  11.476   4.732  1.2059  1.8167 -0.7032
13260SOL     OW50093   3.452   4.949   7.213  0.1407  0.0901 -0.1581
13260SOL    HW150094   3.436   5.033   7.170 -3.7503  0.0326  0.8566
13260SOL    HW250095   3.382   4.892   7.182  0.7774 -1.8279  1.6461
13261SOL     OW50096   5.295   8.776  10.280 -0.4445 -0.1688 -0.1414
13261SOL    HW150097   5.390   8.771  10.285 -0.4878 -0.1211  0.9264
13261SOL    HW250098   5.276   8.868  10.262 -0.2857 -0.2337 -0.6591
13262SOL     OW50099  11.047   0.506   1.205 -0.3092 -0.0791 -0.0367
13262SOL    HW150100  10.989   0.526   1.131 -0.5837  0.4810  0.3213
13262SOL    HW250101  11.001   0.541   1.281  1.1500  1.6944  0.0887
13263SOL     OW50102   6.742  10.735   3.905 -0.1886 -0.4014 -0.3038
13263SOL    HW150103   6.728  10.740   3.999 -0.5526  1.2521 -0.4110
13263SOL    HW250104   6.670  10.785   3.867 -0.3844 -1.5413 -1.5056
13264SOL     OW50105   7.095   9.009   9.665 -0.1130  0.1682  0.3192
13264SOL    HW150106   7.173   9.063   9.672 -0.7719  1.0621  1.0353
13264SOL    HW250107   7.046   9.048   9.592  0.1527 -0.4611 -0.2046
13265SOL     OW50108   6.486   6.418   7.449 -0.2633  0.5827 -0.2262
13265SOL    HW150109   6.486   6.479   7.375 -0.6184  0.3671 -0.4049
13265SOL    HW250110   6.398   6.382   7.451 -0.2968  0.6783  0.3821
13266SOL     OW50111   5.598  12.561   7.309  0.5052  0.1243 -0.0089
13266SOL    HW150112   5.609  12.466   7.307  0.1754  0.0682  0.4733
13266SOL    HW250113   5.563  12.583   7.223  1.9356 -0.0032 -0.6499
13267SOL     OW50114   4.982   9.686   5.527  0.4478  0.0963  0.1066
13267SOL    HW150115   5.011   9.761   5.475 -0.7040  0.8295  0.5121
13267SOL    HW250116   5.050   9.676   5.594  1.7196 -0.5777 -1.2140
13268SOL     OW50117   1.280   5.381   3.329 -0.4969 -0.1586 -0.5152
13268SOL    HW150118   1.289   5.459   3.384  2.8328  0.4664 -1.7060
13268SOL    HW250119   1.238   5.413   3.249  3.6360  1.4175 -2.3469
13269SOL     OW50120   8.634   2.382   5.209  0.3978  0.3590 -0.2639
13269SOL    HW150121   8.589   2.298   5.203  1.1029  0.0435 -1.6651
13269SOL    HW250122   8.634   2.416   5.119  1.0131  1.3840  0.1017
13270SOL     OW50123   5.819  10.435   7.685 -0.1161  0.9506 -0.5489
13270SOL    HW150124   5.820  10.409   7.777  0.5229  1.1511 -0.4934
13270SOL    HW250125   5.841  10.528   7.686  1.9360  0.5121 -1.0221
13271SOL     OW50126   4.007  12.469   4.661  0.1210 -0.5717  0.5102
13271SOL    HW150127   3.916  12.497   4.661 -0.0613 -1.1527 -0.0143
13271SOL    HW250128   4.010  12.396   4.600  0.9693 -0.4591  0.4000
13272SOL     OW50129   0.918   0.124   7.778 -0.0876 -0.4110 -0.0680
13272SOL    HW150130   0.853   0.181   7.736  0.1815 -0.9772 -1.2873
13272SOL    HW250131   0.975   0.096   7.706  1.7633  0.3828  1.0201
13273SOL     OW50132   4.597   0.943  10.564  0.5319  0.2821  0.1261
13273SOL    HW150133   4.622   0.852  10.547 -1.2361 -0.0488 -1.0243
13273SOL    HW250134   4.511   0.936  10.606  1.2771  1.3968  1.9870
13274SOL     OW50135  11.095  11.359   1.240  0.0603 -0.4267 -0.2502
13274SOL    HW150136  11.089  11.387   1.331  0.3295  0.1206 -0.4005
13274SOL    HW250137  11.006  11.331   1.218  0.0463 -0.8020  0.2537
13275SOL     OW50138   1.456   6.096   3.066  0.7930  0.3533  0.2900
13275SOL    HW150139   1.463   6.033   2.995 -1.9630  0.3903 -0.1157
13275SOL    HW250140   1.442   6.043   3.144 -1.8872  0.3490 -0.1023
13276SOL     OW50141   4.620   9.181   6.792 -0.1043 -0.1376  0.4354
13276SOL    HW150142   4.631   9.111   6.856  0.7521 -0.6368 -0.2277
13276SOL    HW250143   4.597   9.258   6.844  0.4918 -0.5455  1.3273
13277SOL     OW50144   0.723   7.302   1.710  0.3836  0.4086 -0.2808
13277SOL    HW150145   0.648   7.302   1.651 -0.7936  0.8119  1.1400
13277SOL    HW250146   0.797   7.330   1.656 -0.6835  0.9621 -1.4944
13278SOL     OW50147   0.614  11.604  12.793 -0.1963 -0.1982  0.0010
13278SOL    HW150148   0.588  11.696  12.797  1.2033  0.2223  0.2297
13278SOL    HW250149   0.549  11.562  12.738 -0.3514  1.1285 -0.8544
13279SOL     OW50150   9.878  10.366   9.957 -0.1094 -0.0339 -0.2615
13279SOL    HW150151   9.967  10.401   9.960  0.5013 -1.0356 -3.1201
13279SOL    HW250152   9.827  10.422  10.015  1.6686  2.7825 -1.2473
13280SOL     OW50153   6.034   9.949   5.212 -0.3976 -0.2331  0.3197
13280SOL    HW150154   6.031   9.939   5.307 -0.3397 -0.2978  0.3153
13280SOL    HW250155   6.116   9.996   5.195  0.3767 -1.5579  0.1976
13281SOL     OW50156  12.311   4.593   0.407 -0.5006  0.4480  0.0460
13281SOL    HW150157  12.400   4.559   0.399 -0.7141  0.3294 -3.9412
13281SOL    HW250158  12.255   4.523   0.374 -1.7449  1.6525 -0.5438
13282SOL     OW50159  12.668   6.975   0.749  0.5794  0.3859 -0.1024
13282SOL    HW150160  12.652   7.070   0.754 -0.6494  0.1937 -0.1026
13282SOL    HW250161  12.667   6.956   0.655 -2.0239 -0.0427 -0.0588
13283SOL     OW50162  12.319   5.309   4.395 -0.1092 -0.0148  0.6643
13283SOL    HW150163  12.313   5.282   4.303  0.2268 -0.2164  0.7010
13283SOL    HW250164  12.300   5.403   4.393  1.4400  0.3148  0.1777
13284SOL     OW50165   9.628   1.809   5.891  0.5124 -0.7360  0.9083
13284SOL    HW150166   9.669   1.725   5.871  0.4325 -0.1114 -2.4377
13284SOL    HW250167   9.696   1.874   5.871 -0.3446  0.0775  0.5484
13285SOL     OW50168   7.987   3.505   2.703  0.7449 -0.0636 -0.2052
13285SOL    HW150169   8.041   3.583   2.713  0.7340  0.2261 -1.9723
13285SOL    HW250170   8.016   3.446   2.772  0.4572  1.6499  1.4483
13286SOL     OW50171   3.221  10.022   7.564 -0.3136 -0.5387 -0.4126
13286SOL    HW150172   3.134  10.041   7.599 -0.2234  1.6248 -1.2113
13286SOL    HW250173   3.281  10.052   7.632 -0.1918  0.3658 -0.8986
13287SOL     OW50174  11.051   0.726   5.408  0.1381 -0.9223  0.0324
13287SOL    HW150175  11.041   0.633   5.429 -0.0731 -0.7515  0.7160
13287SOL    HW250176  11.088   0.765   5.487  2.3782 -0.7869 -0.9963
13288SOL     OW50177   6.430  11.653   1.843  0.9566  0.0556 -0.7456
13288SOL    HW150178   6.440  11.745   1.817  1.7653  0.5416  1.0916
13288SOL    HW250179   6.520  11.622   1.852  0.6881 -0.6728 -0.5477
13289SOL     OW50180   9.524   4.470   7.982 -0.0412  0.4234  0.2204
13289SOL    HW150181   9.611   4.472   8.020  0.5236 -0.8302 -0.8981
13289SOL    HW250182   9.527   4.534   7.911  0.5108 -0.6894 -0.8085
13290SOL     OW50183   7.032   9.569  10.537 -0.6900  0.5537 -0.5327
13290SOL    HW150184   7.009   9.644  10.482  0.7992  0.3731 -1.4633
13290SOL    HW250185   7.124   9.552  10.517 -0.5398 -0.4932  0.9005
13291SOL     OW50186   1.464  12.335   2.405  0.2059 -0.4530 -0.0086
13291SOL    HW150187   1.398  12.291   2.460  0.9176  0.1124  1.3480
13291SOL    HW250188   1.491  12.268   2.342 -0.9723 -0.9790  0.0192
13292SOL     OW50189   6.183   5.699   3.004  0.0669  0.3921  0.1108
13292SOL    HW150190   6.138   5.762   3.061  0.8100  0.8043  0.2552
13292SOL    HW250191   6.228   5.753   2.939  2.5560  0.2054  1.5555
13293SOL     OW50192   6.133  12.129  11.717 -0.1003 -0.3372 -0.5601
13293SOL    HW150193   6.067  12.171  11.662 -1.3074 -0.6450  0.6107
13293SOL    HW250194   6.086  12.105  11.797  1.7758  0.7651  0.9323
13294SOL     OW50195   6.263   0.971   0.459  0.4756  0.0238 -0.4756
13294SOL    HW150196   6.261   0.920   0.540 -0.9334  2.7722  1.3607
13294SOL    HW250197   6.256   0.906   0.390 -0.1814 -2.3345  1.6583
13295SOL     OW50198   4.131   7.292   8.008 -0.4337 -0.3770  0.2807
13295SOL    HW150199   4.223   7.315   7.997 -1.1382  2.3265 -0.5936
13295SOL    HW250200   4.095   7.291   7.919 -1.3800 -0.9184  0.6458
13296SOL     OW50201   9.221   2.420   9.393  0.4208 -0.7939 -0.5471
13296SOL    HW150202   9.262   2.469   9.322 -0.4482 -0.1719 -0.6390
13296SOL    HW250203   9.152   2.370   9.350 -1.4457  1.0914  0.0554
13297SOL     OW50204   8.548   3.326   5.703 -0.5197  0.1329 -0.0348
13297SOL    HW150205   8.606   3.356   5.634 -1.2603  1.7749  0.0008
13297SOL    HW250206   8.561   3.231   5.707  2.0442  0.4304 -0.0719
13298SOL     OW50207   6.581   3.434   3.971  0.1817 -0.1020 -0.2795
13298SOL    HW150208   6.651   3.416   4.033  1.2019  0.5790 -1.2078
13298SOL    HW250209   6.548   3.520   3.998 -0.9048 -0.7886  0.6818
13299SOL     OW50210   0.138   3.696   3.553  0.1480  0.1331  0.1295
13299SOL    HW150211   0.097   3.766   3.504  2.0626  1.8452  0.8133
13299SOL    HW250212   0.211   3.667   3.498  0.8053  0.3569  0.8607
13300SOL     OW50213   5.408   3.330   1.536 -0.5545  0.0492 -0.2118
13300SOL    HW150214   5.317   3.319   1.507 -0.9186 -0.9185  1.1940
13300SOL    HW250215   5.414   3.422   1.561 -1.0329  0.2166 -0.6858
13301SOL     OW50216   0.055   3.362   0.904  0.0196 -0.3404  0.1124
13301SOL    HW150217   0.026   3.300   0.971  0.5865 -0.3336  0.3734
13301SOL    HW250218   0.096   3.433   0.953 -0.0983 -0.0409 -0.2145
13302SOL     OW50219   8.006   4.040   3.465  0.1568  0.4356  0.3763
13302SOL    HW150220   8.008   4.087   3.548  1.7646  1.1739 -0.0402
13302SOL    HW250221   8.045   4.101   3.402  1.2478 -1.0289 -0.4193
13303SOL     OW50222   7.083  10.714   2.963  0.7044  0.0480 -0.0551
13303SOL    HW150223   7.075  10.619   2.954 -1.3422  0.3047 -1.7061
13303SOL    HW250224   7.071  10.748   2.874 -1.7065  1.9728  0.8835
13304SOL     OW50225   7.187  10.974   9.561 -0.3875  0.3899 -0.0499
13304SOL    HW150226   7.182  10.948   9.653  0.3180 -0.3463 -0.2121
13304SOL    HW250227   7.230  10.900   9.517  2.2057  2.0283 -0.4425
13305SOL     OW50228   6.932   5.421   2.661 -0.0757 -0.0069  0.2151
13305SOL    HW150229   6.956   5.329   2.665  0.5202  0.1834  1.1887
13305SOL    HW250230   6.998   5.466   2.714 -1.1897  0.8136  0.9536
13306SOL     OW50231   2.503   2.567   2.356  0.0814 -0.0490  0.2261
13306SOL    HW150232   2.412   2.553   2.379  0.1065 -2.8475 -1.0038
13306SOL    HW250233   2.500   2.613   2.272 -0.1906  0.0732  0.3029
13307SOL     OW50234  11.765   8.336   3.817 -0.4506 -0.2656  0.0579
13307SOL    HW150235  11.841   8.293   3.778 -1.1646 -0.3056 -1.3782
13307SOL    HW250236  11.797   8.422   3.845 -0.2662  0.5592 -2.4093
13308SOL     OW50237   9.378   0.537   8.241  0.0456  0.4617  0.0237
13308SOL    HW150238   9.461   0.572   8.275 -0.4281  1.2808  0.3661
13308SOL    HW250239   9.380   0.558   8.148 -0.6737  2.3628  0.3977
13309SOL     OW50240   1.186   3.904   0.118 -0.6003 -0.0649  0.3681
13309SOL    HW150241   1.218   3.853   0.043 -1.1557 -0.7625  0.5946
13309SOL    HW250242   1.111   3.953   0.084 -1.4288 -1.0794  0.6641
13310SOL     OW50243   6.967   5.259   4.519 -0.3937 -0.0673  0.5009
13310SOL    HW150244   7.061   5.245   4.534 -0.6204 -1.4926  0.8166
13310SOL    HW250245   6.959   5.352   4.499  1.0001  0.2287  1.1719
13311SOL     OW50246  10.074   3.511   6.440  0.0362  0.0264 -0.0721
13311SOL    HW150247  10.033   3.426   6.425 -0.1095  0.0174  0.3451
13311SOL    HW250248  10.143   3.493   6.504 -0.4501  0.3338  0.5536
13312SOL     OW50249   2.772   5.656   5.900  0.3683  0.1595 -0.2638
13312SOL    HW150250   2.832   5.680   5.830  1.4680  3.1587  1.4887
13312SOL    HW250251   2.691   5.703   5.880  1.0854  2.0487  0.9599
13313SOL     OW50252   0.912   1.782  10.360  0.0130 -0.0738  0.1469
13313SOL    HW150253   0.878   1.717  10.298 -0.3688 -0.7433  1.0422
13313SOL    HW250254   0.914   1.863  10.310 -0.1912 -0.6172 -0.7772
13314SOL     OW50255   5.673   3.515   6.003 -0.4220 -0.0768  0.0974
13314SOL    HW150256   5.693   3.540   5.913 -1.1189  1.2289  0.2731
13314SOL    HW250257   5.685   3.596   6.053 -2.2701 -0.1891  0.7955
13315SOL     OW50258  11.727   7.631   8.809 -0.5048 -0.7824  0.4157
13315SOL    HW150259  11.640   7.623   8.768 -0.9496  0.1947  1.1238
13315SOL    HW250260  11.788   7.604   8.740 -1.2769  0.1519 -0.6772
13316SOL     OW50261   2.010   5.795   3.005  0.2785 -0.3987  0.0872
13316SOL    HW150262   2.058   5.727   2.959 -0.8113 -1.7940  0.9035
13316SOL    HW250263   1.930   5.807   2.953  1.1123  1.3752 -0.8655
13317SOL     OW50264   4.493  12.906   4.956 -0.4376 -0.1994 -0.2068
13317SOL    HW150265   4.428  12.856   4.907  0.4942 -0.1507 -1.5491
13317SOL    HW250266   4.445  12.983   4.986 -1.3287 -0.8088 -0.0081
13318SOL     OW50267   5.105  11.521  12.662  0.0561 -0.3497  0.7141
13318SOL    HW150268   5.146  11.483  12.740 -0.9478 -2.7232  0.1780
13318SOL    HW250269   5.012  11.502  12.673 -0.3167  0.7979 -0.2856
13319SOL     OW50270   2.095   0.382   2.259 -0.3705 -0.6035  0.4804
13319SOL    HW150271   2.165   0.446   2.273 -0.7679  0.1903 -0.8994
13319SOL    HW250272   2.125   0.330   2.185 -0.8311 -0.8512  0.4678
13320SOL     OW50273  12.212   0.603   4.709 -0.0974  0.4884  0.1140
13320SOL    HW150274  12.151   0.617   4.636  0.6912  0.4770 -0.5701
13320SOL    HW250275  12.228   0.690   4.745 -0.7368  0.4561  0.4849
13321SOL     OW50276  10.219   4.697   2.561 -0.4488  0.0950  0.4394
13321SOL    HW150277  10.128   4.672   2.542 -0.5047  1.7764 -1.9945
13321SOL    HW250278  10.211   4.781   2.606 -0.1232  0.0783  0.5253
13322SOL     OW50279   7.694   7.991   4.242  0.2733  0.0862 -0.6507
13322SOL    HW150280   7.647   8.027   4.166  0.1402 -1.5626 -1.3801
13322SOL    HW250281   7.637   8.012   4.316  0.0534  1.0945 -1.0816
13323SOL     OW50282   2.171  11.566   8.800  0.2699  0.4399  0.1388
13323SOL    HW150283   2.237  11.533   8.859  0.3921 -0.7253 -0.6105
13323SOL    HW250284   2.091  11.570   8.853  0.3421 -0.7138  0.3752
13324SOL     OW50285  10.920   9.072   7.009 -0.2893  0.2680 -0.2322
13324SOL    HW150286  10.977   9.026   7.071 -1.6564 -0.7587  0.3185
13324SOL    HW250287  10.909   9.159   7.047  0.9599  0.5118 -0.3911
13325SOL     OW50288   9.728   2.317   3.243 -0.0891  0.2069 -0.7109
13325SOL    HW150289   9.766   2.363   3.318 -0.9097 -1.4867  0.8212
13325SOL    HW250290   9.684   2.241   3.281 -2.7133  0.6154 -2.6597
13326SOL     OW50291   7.032   2.447   0.042  0.3290 -0.6220 -0.0496
13326SOL    HW150292   7.022   2.367   0.095  0.6410 -1.6648 -1.5049
13326SOL    HW250293   7.084   2.505   0.097 -0.0860 -1.3236  1.1366
13327SOL     OW50294   1.417   4.565  11.316 -0.0368  0.3720  0.2336
13327SOL    HW150295   1.467   4.505  11.372 -0.3079 -1.5364 -1.4666
13327SOL    HW250296   1.392   4.637  11.375  0.9311 -0.8043  2.1912
13328SOL     OW50297  12.641   0.542   3.556  0.2677 -0.5124 -0.2304
13328SOL    HW150298  12.594   0.459   3.565 -0.2828 -0.1226  0.6235
13328SOL    HW250299  12.664   0.547   3.463  0.7702 -1.8657 -0.1947
13329SOL     OW50300   9.328   9.290   9.713 -0.6693 -0.0175  0.0447
13329SOL    HW150301   9.296   9.353   9.778  0.3740 -0.1124  0.6752
13329SOL    HW250302   9.361   9.217   9.765  0.2986 -0.0433 -0.5738
13330SOL     OW50303  12.156   7.818  12.493  0.3060  0.3330  0.1334
13330SOL    HW150304  12.075   7.861  12.464  0.0233  0.1723  0.6581
13330SOL    HW250305  12.216   7.891  12.510 -0.1190  0.5323  0.8609
13331SOL     OW50306   3.460   5.610   5.178 -0.1577 -0.2621  0.4969
13331SOL    HW150307   3.367   5.615   5.155 -0.2254 -0.6959  0.6627
13331SOL    HW250308   3.491   5.531   5.133  0.3792  0.4435 -0.4067
13332SOL     OW50309  10.968   0.184  11.924 -0.3883  0.0267  0.0685
13332SOL    HW150310  10.978   0.127  11.847  1.4173 -1.2599  1.1835
13332SOL    HW250311  11.033   0.152  11.986  0.4752  3.1140  0.9192
13333SOL     OW50312   5.136   3.138   7.917 -0.2669  0.3009 -0.3135
13333SOL    HW150313   5.049   3.173   7.934 -0.0948  0.0838  1.1220
13333SOL    HW250314   5.165   3.102   8.001  1.6704  1.3738 -0.4583
13334SOL     OW50315   8.927   7.798   5.727  0.2572 -0.0184 -0.2582
13334SOL    HW150316   8.967   7.861   5.668  0.5464  1.0361  1.0317
13334SOL    HW250317   8.948   7.713   5.689  2.1014  0.5659 -0.6439
13335SOL     OW50318  10.607   2.204  10.506 -0.7834 -0.3577 -0.1659
13335SOL    HW150319  10.564   2.290  10.503  0.2118  0.1401 -2.7842
13335SOL    HW250320  10.630   2.192  10.598  0.7914  3.0998  0.0238
13336SOL     OW50321   9.034  10.484   8.086 -0.4496 -0.5323 -0.2980
13336SOL    HW150322   9.099  10.414   8.093  0.6783  0.3969 -1.0421
13336SOL    HW250323   8.964  10.447   8.032  0.5038 -0.8411 -1.3596
13337SOL     OW50324   4.358   9.730   8.210  0.2481  0.3205  0.8409
13337SOL    HW150325   4.428   9.696   8.154 -0.2546 -0.6105  0.7597
13337SOL    HW250326   4.317   9.652   8.248 -2.4247  0.6014 -1.1274
13338SOL     OW50327   1.263   7.618   2.016  0.8147  0.1982 -0.3702
13338SOL    HW150328   1.346   7.654   2.046  0.4736 -0.5750  1.6444
13338SOL    HW250329   1.213   7.694   1.987  2.7180  0.5423 -3.1612
13339SOL     OW50330   7.614   2.241   9.061 -0.1925  0.3872  0.1331
13339SOL    HW150331   7.655   2.326   9.079 -2.2404  1.1146  1.8241
13339SOL    HW250332   7.668   2.178   9.108  0.7221  0.8727 -0.2354
13340SOL     OW50333   0.656  11.411   5.412  0.0100  0.1297  0.0589
13340SOL    HW150334   0.724  11.432   5.348  0.2627  0.1867  0.3437
13340SOL    HW250335   0.610  11.337   5.374  0.3952 -0.0731 -0.0192
13341SOL     OW50336   0.217   5.786   3.324  0.0391 -0.3522 -0.3666
13341SOL    HW150337   0.130   5.823   3.341 -0.2579 -1.3692  0.4338
13341SOL    HW250338   0.203   5.691   3.324  1.3561 -0.5987  1.1129
13342SOL     OW50339   0.588   8.931   2.220 -0.1320 -0.3547  0.2766
13342SOL    HW150340   0.628   8.962   2.301  0.4623 -0.6526  0.1074
13342SOL    HW250341   0.516   8.874   2.248 -0.5248  0.2880  0.5857
13343SOL     OW50342  12.416  12.455   2.192  0.2407 -0.7726 -0.4074
13343SOL    HW150343  12.370  12.411   2.120  0.8412 -0.7416 -0.8139
13343SOL    HW250344  12.463  12.385   2.237 -1.7224 -1.1397  1.2203
13344SOL     OW50345   0.020   5.424   3.840 -0.1362  0.3036 -0.2601
13344SOL    HW150346   0.046   5.516   3.849  0.9106  0.0320 -0.3433
13344SOL    HW250347   0.070   5.378   3.908 -0.4918 -0.2342 -0.3548
13345SOL     OW50348   5.449   2.689   3.042  0.5070  0.5837  0.0747
13345SOL    HW150349   5.464   2.774   3.000 -0.3108  0.8909  0.3875
13345SOL    HW250350   5.382   2.707   3.109  0.6852 -0.2074  0.4726
13346SOL     OW50351  12.696   8.362   6.886  0.3891  0.4998 -0.1753
13346SOL    HW150352  12.636   8.329   6.819  0.9331 -0.2748 -0.2929
13346SOL    HW250353  12.776   8.384   6.839  0.1887  1.6021 -0.0280
13347SOL     OW50354  10.919   7.153   0.983  0.1777  0.3504 -0.6850
13347SOL    HW150355  10.909   7.084   1.047 -0.7483  0.2988 -0.8672
13347SOL    HW250356  11.007   7.189   0.999 -0.4911  1.2112  1.4778
13348SOL     OW50357   3.917   5.630   0.387  0.4512  0.0781 -0.3265
13348SOL    HW150358   3.830   5.649   0.353  0.6619 -0.7119 -1.3765
13348SOL    HW250359   3.976   5.681   0.330  0.6503  1.2564  0.8886
13349SOL     OW50360   9.313   0.890   7.247 -0.2366  0.0293  0.1673
13349SOL    HW150361   9.255   0.857   7.177 -0.3186 -1.7748  1.0247
13349SOL    HW250362   9.337   0.978   7.219 -1.3173 -0.1633 -1.4953
13350SOL     OW50363   5.874  11.511   6.559  0.2376  0.3651  0.0683
13350SOL    HW150364   5.833  11.444   6.505  0.8386 -2.0513  2.4017
13350SOL    HW250365   5.805  11.541   6.617  0.4076  0.4309  0.2378
13351SOL     OW50366  11.212   2.052   9.847  0.7190  0.6208 -0.6269
13351SOL    HW150367  11.249   2.099   9.772  0.6683  1.7063  0.0011
13351SOL    HW250368  11.275   2.066   9.918  0.4582  0.1404 -0.2946
13352SOL     OW50369   0.343   3.737   0.624  0.3318  0.4514  0.5378
13352SOL    HW150370   0.294   3.742   0.542 -2.3888 -2.3825  1.7490
13352SOL    HW250371   0.327   3.820   0.668 -1.2162  0.6261 -0.3129
13353SOL     OW50372   5.238  11.587   0.286 -1.0349  0.1103 -0.5792
13353SOL    HW150373   5.272  11.500   0.307  0.6342  0.9956  0.6517
13353SOL    HW250374   5.227  11.587   0.191 -1.0402 -1.4209 -0.6002
13354SOL     OW50375   7.988  11.864   7.657 -0.0345 -0.1964 -0.3046
13354SOL    HW150376   8.031  11.845   7.740  0.1343 -0.1568 -0.3818
13354SOL    HW250377   7.957  11.779   7.626 -1.0909 -0.0619  0.3404
13355SOL     OW50378  11.078  10.550   6.434 -0.6364  0.4663 -0.2162
13355SOL    HW150379  11.127  10.491   6.377  2.1110  1.9525  0.4522
13355SOL    HW250380  11.049  10.620   6.377 -0.7225  0.3143 -0.3611
13356SOL     OW50381   2.727   8.428   8.970  0.1224  0.2719  0.1240
13356SOL    HW150382   2.679   8.471   8.899 -0.2495 -0.5656 -0.1505
13356SOL    HW250383   2.674   8.350   8.990  0.7204  0.0033  0.6733
13357SOL     OW50384  12.165   3.717   9.713  0.1411  0.3234  0.4477
13357SOL    HW150385  12.204   3.782   9.771  0.2716 -0.0166  0.7451
13357SOL    HW250386  12.071   3.729   9.723  0.1649  0.6332  0.3093
13358SOL     OW50387  12.519   5.712   5.349 -0.0896 -0.3619 -0.1175
13358SOL    HW150388  12.461   5.646   5.387 -0.5122  0.7684  1.2951
13358SOL    HW250389  12.583   5.730   5.418  0.2485  0.4223 -0.6212
13359SOL     OW50390   3.041   6.456   7.731 -0.3666  0.3823  0.3684
13359SOL    HW150391   2.998   6.535   7.763  1.1305  1.6994 -0.7301
13359SOL    HW250392   2.972   6.390   7.730 -2.0045  2.0160  0.0889
13360SOL     OW50393  12.443   9.570  12.696  0.1650 -0.1117 -0.3515
13360SOL    HW150394  12.372   9.610  12.647 -0.1933  0.6396  0.7414
13360SOL    HW250395  12.522   9.617  12.667  0.1064 -0.3950 -0.9722
13361SOL     OW50396  10.818   2.071   1.122 -0.7247  0.4204  0.4750
13361SOL    HW150397  10.782   2.159   1.130 -1.3268  0.0647  2.1264
13361SOL    HW250398  10.836   2.044   1.212 -0.0242 -0.9417 -0.0345
13362SOL     OW50399   7.555   1.033   4.830  0.6185 -0.4325 -0.3930
13362SOL    HW150400   7.613   1.039   4.906  0.8075  1.1013 -0.6336
13362SOL    HW250401   7.479   1.086   4.855 -0.1131 -1.3645 -0.5929
13363SOL     OW50402   1.402  11.367  12.195  0.1485  0.0389  0.8599
13363SOL    HW150403   1.387  11.430  12.266  2.7072  0.8577  0.7526
13363SOL    HW250404   1.491  11.384  12.166 -0.1815 -1.5599 -1.3168
13364SOL     OW50405  10.882   0.374  10.413  0.6392  0.4738  0.5703
13364SOL    HW150406  10.809   0.407  10.465  0.2248 -1.2477  1.1477
13364SOL    HW250407  10.848   0.368  10.324  0.3082  0.3803  0.7031
13365SOL     OW50408   8.097   7.752   5.645 -0.3142  0.2355 -0.1272
13365SOL    HW150409   8.005   7.728   5.640 -0.2792  0.2686 -1.0162
13365SOL    HW250410   8.109   7.782   5.736 -0.5881 -2.0939  0.7427
13366SOL     OW50411   0.323   5.382   1.051  0.0474  0.0707  0.0258
13366SOL    HW150412   0.306   5.355   0.961  0.1788  0.2699 -0.0577
13366SOL    HW250413   0.255   5.337   1.102  0.1375 -0.2574 -0.1376
13367SOL     OW50414   5.836   2.495   9.410 -0.2102  0.1432 -0.6758
13367SOL    HW150415   5.926   2.485   9.379 -0.2599 -1.3132 -0.4632
13367SOL    HW250416   5.825   2.423   9.473 -1.7628 -0.2196 -1.3099
13368SOL     OW50417   6.562   2.839   5.347 -0.0560 -0.0981  0.4492
13368SOL    HW150418   6.498   2.829   5.276 -2.1867  0.6871  2.1773
13368SOL    HW250419   6.635   2.782   5.320 -1.5919 -1.3361 -1.4389
13369SOL     OW50420   7.962  11.696   9.666 -0.2875  0.3693  0.1022
13369SOL    HW150421   7.890  11.697   9.603 -1.0489  0.2807  0.9527
13369SOL    HW250422   7.930  11.644   9.739  0.2458  1.1827  0.9443
13370SOL     OW50423  12.188   1.447   4.993  0.7209  0.1181 -0.2110
13370SOL    HW150424  12.281   1.430   4.975  1.3523 -0.3705  2.9583
13370SOL    HW250425  12.147   1.360   4.989  1.1450 -0.2260  1.7636
13371SOL     OW50426   5.026   5.291   4.425 -0.3571  0.2451  0.2125
13371SOL    HW150427   5.090   5.252   4.485  0.7257  2.0040  0.2639
13371SOL    HW250428   5.065   5.279   4.338 -0.9349 -0.4431  0.0384
13372SOL     OW50429   1.161   2.664  11.450  0.3459 -0.3312 -0.3943
13372SOL    HW150430   1.243   2.647  11.497  1.1800  0.1985 -1.5908
13372SOL    HW250431   1.133   2.750  11.481  1.4978  0.5336 -1.6139
13373SOL     OW50432   4.907   6.111  10.556 -0.2620 -0.4372  0.0986
13373SOL    HW150433   4.841   6.042  10.552 -0.3428 -0.3408 -0.3592
13373SOL    HW250434   4.870   6.182  10.503  0.2468 -0.4166 -0.2333
13374SOL     OW50435  11.615   2.725   8.689  0.7765 -0.1850  0.3402
13374SOL    HW150436  11.585   2.771   8.768  1.3794  1.4353 -0.3289
13374SOL    HW250437  11.676   2.786   8.647  0.1295 -0.8154 -1.6336
13375SOL     OW50438   2.855   3.840  12.701  0.0256 -0.3163  0.4148
13375SOL    HW150439   2.777   3.892  12.724  0.7077  1.5588 -1.2102
13375SOL    HW250440   2.852   3.765  12.760 -0.9601  1.6234  3.0434
13376SOL     OW50441   2.741  12.227   7.139  0.1731 -0.2034  0.0854
13376SOL    HW150442   2.810  12.288   7.112  0.5900 -0.1309  1.2287
13376SOL    HW250443   2.678  12.228   7.067  1.5882 -0.6300 -1.2071
13377SOL     OW50444  11.225   8.194   1.906  0.4974  0.1591  0.3355
13377SOL    HW150445  11.224   8.100   1.924 -0.9017  0.1941  0.5333
13377SOL    HW250446  11.160   8.230   1.966 -0.0279  1.0668 -0.7569
13378SOL     OW50447   0.393  11.461   0.082  0.1513 -0.5595  0.4894
13378SOL    HW150448   0.403  11.392   0.017  0.6361  0.9692 -1.1462
13378SOL    HW250449   0.299  11.465   0.100 -0.2281  0.0411 -1.3919
13379SOL     OW50450   0.992   9.323   0.514  0.7533 -0.3411  0.4858
13379SOL    HW150451   0.983   9.408   0.470 -0.5061 -0.5490  0.3063
13379SOL    HW250452   0.957   9.260   0.451  0.5526 -0.8518  1.1025
13380SOL     OW50453   2.928   2.001   4.507  0.2491  0.1379  0.2556
13380SOL    HW150454   3.013   2.020   4.467 -0.0020 -0.4415 -0.5762
13380SOL    HW250455   2.930   1.907   4.523 -0.1947  0.1445  0.3458
13381SOL     OW50456   2.214  11.121   4.328 -0.5045  0.5123  0.3967
13381SOL    HW150457   2.249  11.082   4.408  0.3180 -0.2616 -0.3214
13381SOL    HW250458   2.158  11.053   4.292 -2.2509  1.4725  1.1559
13382SOL     OW50459   2.826  12.479   3.957 -0.3262 -0.4864  0.5042
13382SOL    HW150460   2.791  12.541   4.021 -0.0862  0.3781 -0.1904
13382SOL    HW250461   2.754  12.417   3.944 -0.6479 -0.2438  1.0439
13383SOL     OW50462  11.420   7.292   2.220 -0.1142 -0.2091 -1.1992
13383SOL    HW150463  11.401   7.239   2.298 -0.0344  0.7250 -0.5370
13383SOL    HW250464  11.415   7.229   2.147  2.9271 -1.8412 -0.1835
13384SOL     OW50465  11.221   9.549   4.756  0.3579  0.0716 -0.3872
13384SOL    HW150466  11.279   9.518   4.687 -0.2971  0.8335 -1.3134
13384SOL    HW250467  11.242   9.494   4.832  2.1879  0.2510 -0.7175
13385SOL     OW50468   4.972  12.175   5.536 -0.3726 -0.4243  0.0937
13385SOL    HW150469   4.940  12.168   5.446  1.4195 -0.1512 -0.5997
13385SOL    HW250470   5.011  12.262   5.541 -0.3390 -0.4854  1.1115
13386SOL     OW50471   4.840   2.786   6.602  0.5573  0.5748 -0.0752
13386SOL    HW150472   4.755   2.786   6.557  0.0025 -0.4438  0.9214
13386SOL    HW250473   4.895   2.730   6.548  0.3368  0.5415 -0.2705
13387SOL     OW50474   0.281   6.860  12.321  0.2540 -0.7355  0.0649
13387SOL    HW150475   0.245   6.833  12.237 -1.1558  0.2886  0.2983
13387SOL    HW250476   0.300   6.779  12.367 -1.1922 -1.3227 -0.3393
13388SOL     OW50477   6.088  12.289   9.196 -0.2369 -0.1609  0.4168
13388SOL    HW150478   6.134  12.303   9.113  0.7131  0.3892  1.0157
13388SOL    HW250479   5.996  12.279   9.171  0.1915 -1.2800 -0.8065
13389SOL     OW50480   2.986   8.571   4.453 -0.0265  0.2605 -0.3675
13389SOL    HW150481   3.004   8.492   4.402  1.8410  0.4313 -0.0226
13389SOL    HW250482   2.910   8.610   4.410 -0.0717 -0.9535 -1.4389
13390SOL     OW50483   6.340  12.776   3.569 -0.1594 -0.3987  0.1441
13390SOL    HW150484   6.300  12.728   3.642 -1.0768 -0.7289 -0.5549
13390SOL    HW250485   6.387  12.848   3.610 -2.0810  0.4433  0.9861
13391SOL     OW50486   3.926  12.560   2.656  0.7044  0.6671  0.9626
13391SOL    HW150487   3.974  12.523   2.730  0.0014  1.5053  1.8685
13391SOL    HW250488   3.851  12.605   2.696 -1.3119 -1.2472 -0.4290
13392SOL     OW50489   4.027  12.666   7.539  0.1936  0.1387  0.2763
13392SOL    HW150490   4.019  12.633   7.629  1.3574 -1.1985 -0.0830
13392SOL    HW250491   4.121  12.671   7.523  0.0191  1.5023 -0.4918
13393SOL     OW50492   7.241   1.058  11.211  0.1347 -0.2150  0.1316
13393SOL    HW150493   7.318   1.113  11.195 -0.4069  0.7475  0.7166
13393SOL    HW250494   7.261   1.011  11.292 -0.5131  1.2385  1.1707
13394SOL     OW50495   1.734  10.079  11.093 -0.2369 -0.0991 -0.1850
13394SOL    HW150496   1.790  10.007  11.067 -0.8743 -0.6883  0.0352
13394SOL    HW250497   1.760  10.152  11.037  0.8679 -0.3030  0.0488
13395SOL     OW50498   3.253   4.051   8.530  0.1855  0.3189 -0.2389
13395SOL    HW150499   3.242   4.142   8.556 -0.8913 -0.0407  0.6864
13395SOL    HW250500   3.242   4.050   8.435 -1.6746  0.9330 -0.0757
13396SOL     OW50501   7.985   5.647   9.795 -0.8717 -0.4856 -0.6511
13396SOL    HW150502   8.071   5.622   9.761 -0.1804  0.2284  0.5192
13396SOL    HW250503   8.003   5.695   9.876 -2.3730 -0.3004 -0.3839
13397SOL     OW50504  10.446  10.632   0.842  0.5537 -0.0576 -0.3352
13397SOL    HW150505  10.458  10.575   0.918  0.2180  1.0999  0.5965
13397SOL    HW250506  10.512  10.601   0.779  2.0471  0.0804  1.0838
13398SOL     OW50507  10.062   8.980   3.528  0.0908 -0.1782  0.1534
13398SOL    HW150508  10.029   9.043   3.592  0.3888 -0.2438  0.3731
13398SOL    HW250509  10.096   9.033   3.456 -2.1675 -0.1114 -0.9480
13399SOL     OW50510   5.118   2.814   7.060  0.2905 -0.3869  0.1379
13399SOL    HW150511   5.130   2.904   7.090 -0.2915  0.5501 -2.2155
13399SOL    HW250512   5.097   2.823   6.967  1.5673 -3.0378 -0.4885
13400SOL     OW50513   5.886   0.792   6.576 -0.5393  0.6054 -0.0330
13400SOL    HW150514   5.922   0.777   6.663 -1.5904 -0.6570  0.2082
13400SOL    HW250515   5.951   0.753   6.517  0.3174  1.7181  0.1279
13401SOL     OW50516  11.726   2.973   0.972  0.0134  0.2301  0.1480
13401SOL    HW150517  11.757   3.049   1.021  0.2390  0.0429  0.2988
13401SOL    HW250518  11.652   3.006   0.920 -0.5139  0.3452  0.9414
13402SOL     OW50519   2.689   6.719  10.933  0.4130  0.0477  0.0179
13402SOL    HW150520   2.772   6.734  10.978  1.0464 -0.7544 -0.8331
13402SOL    HW250521   2.701   6.757  10.846 -0.6252  1.1668  0.3436
13403SOL     OW50522  12.393   1.476   8.824 -0.2279  0.0927 -0.3633
13403SOL    HW150523  12.419   1.556   8.778 -1.1339  0.2097 -0.6998
13403SOL    HW250524  12.352   1.506   8.905 -0.8828 -0.0030 -0.6497
13404SOL     OW50525   4.982   8.971  12.388 -0.0881  0.6146 -0.1309
13404SOL    HW150526   4.951   8.900  12.332  2.1013  1.4635 -2.6578
13404SOL    HW250527   4.907   9.031  12.393 -0.8483 -0.2314 -0.8434
13405SOL     OW50528   7.776  10.679   4.196 -0.0827 -0.0144  0.1575
13405SOL    HW150529   7.835  10.696   4.123 -0.9300  2.1903 -0.0979
13405SOL    HW250530   7.829  10.633   4.260  1.8908  1.7555 -0.1210
13406SOL     OW50531   0.294   3.953   0.775  0.2345  0.4720 -0.1019
13406SOL    HW150532   0.283   4.033   0.723 -0.7061 -0.2790 -1.1066
13406SOL    HW250533   0.206   3.935   0.809  0.6944  0.5379  1.1427
13407SOL     OW50534  11.141   3.365   0.622 -0.0731  0.1778 -0.2449
13407SOL    HW150535  11.074   3.431   0.639  1.0434  1.1927  0.3159
13407SOL    HW250536  11.108   3.317   0.546 -2.5611 -0.9099  1.3678
13408SOL     OW50537  10.938  12.197   7.652  0.2713 -0.4986 -0.0307
13408SOL    HW150538  10.946  12.292   7.660  1.4662 -0.5824 -0.0592
13408SOL    HW250539  11.024  12.168   7.623 -0.2363 -1.5418 -0.5550
13409SOL     OW50540  12.335   8.945  10.729  0.0395  0.2435 -0.5229
13409SOL    HW150541  12.388   8.877  10.687  0.3081  0.1654 -0.0643
13409SOL    HW250542  12.250   8.939  10.687 -0.6753 -1.9154  1.0584
13410SOL     OW50543  11.354   2.170   1.220  0.0358  0.3493  0.5828
13410SOL    HW150544  11.429   2.110   1.222 -1.1211 -1.1458  1.5829
13410SOL    HW250545  11.279   2.115   1.242 -1.5017  1.6408 -1.0750
13411SOL     OW50546  11.113   3.868   3.390 -0.1701  0.7551 -0.1628
13411SOL    HW150547  11.168   3.924   3.445  0.3982 -0.0453  0.1016
13411SOL    HW250548  11.175   3.824   3.332 -0.4370 -0.8040  0.7061
13412SOL     OW50549   1.881   9.502   1.709 -0.0276 -0.1303  0.6595
13412SOL    HW150550   1.829   9.575   1.675  1.5164  0.7528  0.0956
13412SOL    HW250551   1.824   9.425   1.699 -0.9770  0.6921 -0.5398
13413SOL     OW50552   5.987   0.564   8.474  0.5005  0.4196  0.3996
13413SOL    HW150553   6.052   0.499   8.447 -1.9242 -2.1453  0.2494
13413SOL    HW250554   5.956   0.602   8.392  0.7953  0.6243  0.3799
13414SOL     OW50555   0.744   1.423   3.911 -0.5458 -0.1705 -0.2690
13414SOL    HW150556   0.653   1.423   3.938 -0.7945  1.9055 -0.9168
13414SOL    HW250557   0.788   1.480   3.974  0.6709 -2.4028  1.0004
13415SOL     OW50558  10.967   6.687   7.923 -0.2841 -0.5878 -0.1446
13415SOL    HW150559  10.983   6.757   7.987 -0.2698  0.3443 -1.1407
13415SOL    HW250560  11.055   6.655   7.901 -0.0758  0.8570 -1.5925
13416SOL     OW50561   1.983   2.676   8.718  0.1294  0.2213  0.1802
13416SOL    HW150562   2.051   2.683   8.785 -0.4600 -0.4515  0.8672
13416SOL    HW250563   1.901   2.691   8.766 -0.3416 -0.8382 -0.2647
13417SOL     OW50564   2.244   3.087   3.742 -0.1237  0.5523 -0.3189
13417SOL    HW150565   2.310   3.035   3.697 -0.6358 -1.6361  1.2581
13417SOL    HW250566   2.288   3.168   3.766  1.7840 -0.5688  0.1089
13418SOL     OW50567   2.410   4.150   0.554  1.2950  0.5259  0.5384
13418SOL    HW150568   2.395   4.227   0.609  3.4378 -0.0025  1.9636
13418SOL    HW250569   2.424   4.079   0.616 -0.6672 -1.0962 -0.7513
13419SOL     OW50570  10.445   6.885  10.511  0.5265 -0.6824  0.4484
13419SOL    HW150571  10.475   6.917  10.596 -0.2295 -0.5375  0.6634
13419SOL    HW250572  10.359   6.846  10.529  1.5810 -3.3036  0.3155
13420SOL     OW50573   1.284   8.121   0.241  0.0470  0.1650  0.6741
13420SOL    HW150574   1.222   8.140   0.170  0.1563  0.0288  0.5437
13420SOL    HW250575   1.341   8.198   0.243 -1.7447  1.5562  2.5364
13421SOL     OW50576   4.971   0.141   7.303  0.0204 -0.0123  0.2736
13421SOL    HW150577   5.034   0.121   7.233  0.7997 -0.7961  1.1591
13421SOL    HW250578   4.976   0.236   7.313  0.7233 -0.0150  0.0097
13422SOL     OW50579   2.486   2.902   4.740  0.3632 -0.3610 -0.0535
13422SOL    HW150580   2.576   2.876   4.763  0.0119 -0.9466  0.7344
13422SOL    HW250581   2.463   2.844   4.667  1.2452  1.0334 -1.4995
13423SOL     OW50582  12.675   4.839   2.007 -0.6753  0.1158 -0.3898
13423SOL    HW150583  12.700   4.911   1.949 -0.5056  1.1045  0.8866
13423SOL    HW250584  12.674   4.762   1.949  0.6019  0.8656 -1.4793
13424SOL     OW50585  11.646   5.389   7.912  0.1779  0.0355  0.0808
13424SOL    HW150586  11.632   5.313   7.969 -3.4120  1.9535  2.0898
13424SOL    HW250587  11.726   5.430   7.945  1.9255 -2.4597 -0.7412
13425SOL     OW50588   3.220   9.716   6.964  0.2195 -0.4665 -0.4506
13425SOL    HW150589   3.233   9.742   7.055 -0.2720 -1.5637 -0.0531
13425SOL    HW250590   3.182   9.794   6.922  2.7442  0.9197 -0.3609
13426SOL     OW50591   8.306   7.924   9.810 -0.0455 -0.1661 -0.3515
13426SOL    HW150592   8.216   7.927   9.844  0.0333  1.3318 -0.2021
13426SOL    HW250593   8.306   7.983   9.735  0.3363 -1.7581 -1.6574
13427SOL     OW50594   7.860  12.536   3.344 -0.0466  0.0986 -0.1080
13427SOL    HW150595   7.837  12.472   3.411  2.2586  0.7584  1.4341
13427SOL    HW250596   7.835  12.620   3.382  1.2425  0.4784 -0.0691
13428SOL     OW50597   1.831   2.541   1.678 -0.4893  0.3862  0.1311
13428SOL    HW150598   1.908   2.504   1.636 -0.8959  0.8711 -1.0847
13428SOL    HW250599   1.837   2.513   1.770  1.0707  0.3370  0.0308
13429SOL     OW50600   7.676   9.014   7.967  0.1903 -0.0007 -0.5333
13429SOL    HW150601   7.670   9.087   8.028 -2.1168 -1.2251  0.8402
13429SOL    HW250602   7.600   9.025   7.909  0.2821 -0.8732 -0.8335
13430SOL     OW50603   3.506   3.107   8.457  0.2389  0.3090 -0.2041
13430SOL    HW150604   3.589   3.152   8.470  1.1612 -1.0496 -1.1625
13430SOL    HW250605   3.516   3.061   8.374 -1.8992  1.0204 -0.9111
13431SOL     OW50606   5.331   7.790  11.770  0.0663  0.0462 -0.6769
13431SOL    HW150607   5.416   7.799  11.814  0.0705 -0.8534 -0.4882
13431SOL    HW250608   5.282   7.867  11.798  1.0298  0.9149 -1.2901
13432SOL     OW50609   0.346   9.252   1.225  0.2231  0.6908 -0.3062
13432SOL    HW150610   0.434   9.246   1.262  1.4663 -2.7623 -3.2172
13432SOL    HW250611   0.351   9.324   1.163  0.7644  0.9647  0.0454
13433SOL     OW50612   7.686   8.967   2.862 -0.7880 -0.6266 -0.3559
13433SOL    HW150613   7.705   8.916   2.783  0.2912  0.8093 -1.0823
13433SOL    HW250614   7.645   8.905   2.922 -0.4835 -2.0612 -1.5759
13434SOL     OW50615   1.753  10.652   7.878 -0.2549 -0.0351 -0.1676
13434SOL    HW150616   1.786  10.698   7.800  0.1193  0.3906  0.2354
13434SOL    HW250617   1.796  10.696   7.951 -0.2510 -0.7367  0.2554
13435SOL     OW50618  12.226   8.910  12.938 -0.0807  0.3811 -0.1884
13435SOL    HW150619  12.250   8.922  13.030 -1.3863 -1.1375  0.3854
13435SOL    HW250620  12.310   8.906  12.892  0.6373 -0.2532  1.1283
13436SOL     OW50621   5.894   5.903   5.003  0.3536 -0.6717  0.4412
13436SOL    HW150622   5.856   5.987   5.030 -0.5042 -0.4818 -1.2029
13436SOL    HW250623   5.979   5.899   5.046  0.5564  1.2091  0.2882
13437SOL     OW50624   4.901  12.248   3.264 -0.3543  0.3134 -0.1996
13437SOL    HW150625   4.833  12.237   3.197 -0.3652  0.8809 -0.2869
13437SOL    HW250626   4.953  12.168   3.258 -1.1396 -0.2273  0.0155
13438SOL     OW50627   6.003   0.438  12.706 -0.1023 -0.1617 -0.1122
13438SOL    HW150628   5.918   0.412  12.742  0.1488 -1.8688 -0.6772
13438SOL    HW250629   6.048   0.481  12.779 -0.9015 -0.5212  0.6143
13439SOL     OW50630   3.221   0.737  12.280 -0.5518 -0.5875 -0.4535
13439SOL    HW150631   3.254   0.827  12.290  0.2780 -1.0323  1.1569
13439SOL    HW250632   3.251   0.710  12.194  0.2242  0.2828 -0.4745
13440SOL     OW50633  12.185   2.347   4.285 -0.4674  0.0024  0.5213
13440SOL    HW150634  12.169   2.431   4.243  3.1019  1.0217  0.8865
13440SOL    HW250635  12.223   2.292   4.217  0.2377 -0.1880  1.0517
13441SOL     OW50636   1.518   5.315   3.244  0.1425  0.5844 -0.2133
13441SOL    HW150637   1.428   5.323   3.273 -0.3527 -1.5840 -0.9780
13441SOL    HW250638   1.515   5.335   3.150  0.2005 -0.6810 -0.5044
13442SOL     OW50639  11.051   6.921   0.330 -0.1467 -0.1127 -0.3166
13442SOL    HW150640  11.129   6.976   0.319 -0.4162  0.2085 -0.6579
13442SOL    HW250641  11.063   6.880   0.416 -0.3128  1.0930  0.3100
13443SOL     OW50642  11.818   0.481   6.251  0.4644 -0.3504 -0.7187
13443SOL    HW150643  11.844   0.551   6.192  1.8515  0.0897  0.3551
13443SOL    HW250644  11.722   0.483   6.250  0.4538  1.7926 -0.4777
13444SOL     OW50645   9.084   2.520  12.908 -0.1259 -0.0721  0.3323
13444SOL    HW150646   9.108   2.465  12.834  1.2718  0.2243  0.5487
13444SOL    HW250647   8.995   2.493  12.930  0.3256 -1.8691  0.0847
13445SOL     OW50648  11.156   8.188   4.255  0.0307 -0.3727 -0.4384
13445SOL    HW150649  11.102   8.192   4.333  2.1248 -1.9994  1.2170
13445SOL    HW250650  11.210   8.267   4.259  0.9105 -0.9969  0.4158
13446SOL     OW50651   8.595   2.299   8.526  0.0849  0.1833 -0.1092
13446SOL    HW150652   8.514   2.325   8.482  0.3615  1.0101 -0.1489
13446SOL    HW250653   8.656   2.281   8.454  0.5489  1.5753 -0.1021
13447SOL     OW50654   4.451   1.637   7.499  0.2121 -0.0968 -0.0252
13447SOL    HW150655   4.458   1.731   7.518  2.0066  0.1242 -1.5640
13447SOL    HW250656   4.524   1.618   7.440 -1.4131 -2.0112 -1.5814
13448SOL     OW50657   3.719   9.504   5.345  0.3746 -0.0723  0.2254
13448SOL    HW150658   3.772   9.452   5.284 -1.0464 -0.0168 -1.1139
13448SOL    HW250659   3.762   9.491   5.430  0.9582 -2.1967 -0.3236
13449SOL     OW50660  12.953   4.400   6.708  0.2392  0.4420  0.9498
13449SOL    HW150661  13.046   4.377   6.701  0.4491  1.2764  0.8951
13449SOL    HW250662  12.914   4.325   6.753  0.3897 -1.2748 -1.5754
13450SOL     OW50663  10.546   7.449  11.546  0.2712 -0.1197 -0.2111
13450SOL    HW150664  10.546   7.380  11.479  0.5539 -1.0950  0.7692
13450SOL    HW250665  10.478   7.423  11.608 -0.7753  1.3653 -0.6677
13451SOL     OW50666   6.505   6.841  10.259 -0.7551 -0.5174 -0.5111
13451SOL    HW150667   6.520   6.813  10.169  0.6536  1.9270 -1.1426
13451SOL    HW250668   6.442   6.912  10.252  2.7405  2.9842 -0.3615
13452SOL     OW50669   9.552   0.710   7.515 -0.0995 -0.3341 -0.2766
13452SOL    HW150670   9.459   0.704   7.494 -0.1886 -1.4277  0.3268
13452SOL    HW250671   9.557   0.691   7.609  0.5126  1.9984  0.2163
13453SOL     OW50672   0.394   8.659   5.992  0.5628 -0.0285 -0.1108
13453SOL    HW150673   0.394   8.657   5.897 -1.5301 -0.6603 -0.1399
13453SOL    HW250674   0.306   8.687   6.016  1.0115 -0.0092  1.6345
13454SOL     OW50675   7.163   0.709  12.348 -0.0358 -0.3267  0.3332
13454SOL    HW150676   7.168   0.796  12.388 -1.3556 -0.5854  1.1231
13454SOL    HW250677   7.126   0.725  12.261  2.5246  0.1992 -0.7526
13455SOL     OW50678   9.238   2.315   3.265 -0.0162  0.0308  0.0241
13455SOL    HW150679   9.308   2.285   3.208  0.7857 -0.3075  1.1644
13455SOL    HW250680   9.175   2.242   3.266 -0.6246  0.4894 -1.3100
13456SOL     OW50681   6.349   8.937   2.890 -0.5171  0.5282  0.1887
13456SOL    HW150682   6.357   8.875   2.817  1.0500 -0.3192  1.0471
13456SOL    HW250683   6.311   9.015   2.850  1.6260  0.6224 -1.9007
13457SOL     OW50684   1.596  10.925   7.795  0.2342 -0.4003  0.1859
13457SOL    HW150685   1.660  10.861   7.762  1.9622  0.9778  0.6780
13457SOL    HW250686   1.635  10.957   7.876 -0.4966  1.3488 -0.1135
13458SOL     OW50687   2.676  12.218   2.320  0.2903 -0.0827  0.6863
13458SOL    HW150688   2.619  12.254   2.252 -1.6954 -1.3022  1.6163
13458SOL    HW250689   2.764  12.228   2.285 -0.5231  1.1309 -1.1822
13459SOL     OW50690  11.266  12.939   0.533 -0.4495 -0.3198 -0.4371
13459SOL    HW150691  11.208  13.015   0.542 -0.5701 -0.4141 -0.4017
13459SOL    HW250692  11.235  12.878   0.600  0.3746  0.0549  0.2912
13460SOL     OW50693   5.979  10.886   4.036 -0.0544  0.0484  0.2152
13460SOL    HW150694   5.948  10.977   4.043  0.2974  0.1429  0.5493
13460SOL    HW250695   6.052  10.890   3.975 -0.0372 -0.0091  0.2316
13461SOL     OW50696   4.214   6.026   9.540 -0.1781 -0.0710 -0.0300
13461SOL    HW150697   4.306   6.010   9.562 -0.3471  0.6478  1.3028
13461SOL    HW250698   4.175   5.939   9.538  0.2164 -0.2785  0.8864
13462SOL     OW50699  12.908   0.664   7.479  0.4881 -0.3853 -0.2268
13462SOL    HW150700  12.936   0.630   7.564  0.7082  1.7831  0.6274
13462SOL    HW250701  12.928   0.757   7.483 -3.3270  0.6521 -1.0142
13463SOL     OW50702  11.539   0.116   0.859 -0.0811 -0.2361 -0.2325
13463SOL    HW150703  11.589   0.034   0.855 -0.9457 -1.1588  3.8310
13463SOL    HW250704  11.502   0.118   0.947 -4.0892  2.2525 -1.6730
13464SOL     OW50705   3.060   2.427   7.088 -0.1162  0.2955  0.0088
13464SOL    HW150706   3.019   2.384   7.164 -0.3571 -0.0182 -0.2984
13464SOL    HW250707   3.103   2.356   7.040  0.8305  0.6198  0.3403
13465SOL     OW50708  12.391   3.706   6.903  0.3386  0.0490 -0.3801
13465SOL    HW150709  12.454   3.638   6.879  0.6198  0.0066  0.4249
13465SOL    HW250710  12.351   3.673   6.984 -0.2893  0.3493 -0.5683
13466SOL     OW50711   0.183  12.666   3.665  0.8032 -0.1996 -0.1583
13466SOL    HW150712   0.150  12.643   3.578 -1.2770  2.2597 -0.1359
13466SOL    HW250713   0.240  12.741   3.649  0.8112 -0.0514  0.5442
13467SOL     OW50714   4.358   9.027   4.538  0.0037  0.1663  0.0289
13467SOL    HW150715   4.431   8.965   4.542 -1.3733 -1.5360  0.0595
13467SOL    HW250716   4.399   9.113   4.541  2.0893 -0.7082 -1.3836
13468SOL     OW50717   3.387   3.165   8.010  0.2266  0.2914 -0.6771
13468SOL    HW150718   3.379   3.100   7.941  1.0149  0.0765 -0.5793
13468SOL    HW250719   3.464   3.217   7.986 -0.6262  1.4599 -0.9685
13469SOL     OW50720   6.220   8.537   8.150 -0.7678 -0.4775  0.0356
13469SOL    HW150721   6.161   8.502   8.084 -1.4086  0.0727  0.3141
13469SOL    HW250722   6.188   8.625   8.168  0.1848 -0.1357  0.1289
13470SOL     OW50723   0.687   6.763   5.808  0.1066  0.0552  0.0381
13470SOL    HW150724   0.617   6.734   5.866  0.6260 -0.3100  0.4961
13470SOL    HW250725   0.712   6.849   5.842  0.7901 -0.3999  0.7129
13471SOL     OW50726   6.655   8.126   4.680  0.2771  0.4253  0.2812
13471SOL    HW150727   6.624   8.208   4.642  1.8185  1.2090  0.6261
13471SOL    HW250728   6.749   8.126   4.664  0.6339 -0.2868  2.0834
13472SOL     OW50729   4.359   1.776   5.745  0.3343  0.1102 -0.0865
13472SOL    HW150730   4.352   1.855   5.800  1.8720  1.9290 -2.2923
13472SOL    HW250731   4.269   1.746   5.736 -0.4344  2.1630  0.1137
13473SOL     OW50732   0.819   3.516   7.095  0.3375 -0.8871 -0.3082
13473SOL    HW150733   0.761   3.591   7.088  1.1689 -0.1203  0.7099
13473SOL    HW250734   0.764   3.445   7.127  0.0687 -0.0181  1.2230
13474SOL     OW50735   1.995   9.063   4.185 -0.2495 -0.2864  0.3417
13474SOL    HW150736   2.020   8.979   4.224 -1.6354 -1.0164 -0.2471
13474SOL    HW250737   2.042   9.066   4.102 -1.3921 -1.2719 -0.3873
13475SOL     OW50738   0.296  12.864   4.488 -0.5831  0.3070 -0.2691
13475SOL    HW150739   0.378  12.849   4.440 -0.8140 -0.4542 -0.4348
13475SOL    HW250740   0.275  12.779   4.526 -1.4661  0.4244 -0.4860
13476SOL     OW50741   9.135   7.643   1.874 -0.2112  0.3744 -0.0694
13476SOL    HW150742   9.060   7.621   1.819 -0.6735 -2.5495  1.5084
13476SOL    HW250743   9.200   7.575   1.855  0.0982  0.0207  1.9457
13477SOL     OW50744   8.989  12.872   6.289  0.2132  0.5603  0.0091
13477SOL    HW150745   9.069  12.840   6.247  1.1837  0.2108  1.9661
13477SOL    HW250746   9.011  12.872   6.382 -2.4603 -0.6242  0.7193
13478SOL     OW50747   5.446   0.954   4.346 -0.0246 -0.5647 -0.3551
13478SOL    HW150748   5.374   0.968   4.407  0.6202  0.3557  0.2209
13478SOL    HW250749   5.428   1.015   4.274  0.9488  0.7857  0.5048
13479SOL     OW50750   6.014   3.163   4.206  0.5887 -0.6422  0.0075
13479SOL    HW150751   6.100   3.166   4.248  1.5844 -2.9411 -1.6460
13479SOL    HW250752   6.011   3.241   4.151  0.9419  0.2708  1.2510
13480SOL     OW50753  10.081   0.365   5.655  0.3335  0.2471  0.2164
13480SOL    HW150754  10.136   0.443   5.663  0.7141  0.0232 -0.1325
13480SOL    HW250755  10.076   0.349   5.561 -0.9924  0.7188  0.1863
13481SOL     OW50756   1.338   4.753   8.683  0.3477  0.6197  0.5567
13481SOL    HW150757   1.410   4.691   8.692 -1.9492 -2.4038 -0.0537
13481SOL    HW250758   1.296   4.754   8.769 -1.4558 -1.3389 -0.1855
13482SOL     OW50759   7.110   9.648   6.848 -0.5881 -0.4885 -0.5309
13482SOL    HW150760   7.201   9.624   6.863 -0.7680 -1.4131 -0.8477
13482SOL    HW250761   7.102   9.655   6.753 -0.8472 -0.3792 -0.5034
13483SOL     OW50762   8.519   0.805   8.672 -0.2823  0.5567  1.1569
13483SOL    HW150763   8.575   0.758   8.734 -0.4052 -0.4299  0.5460
13483SOL    HW250764   8.569   0.804   8.590 -1.3121 -0.6925  0.4925
13484SOL     OW50765   1.319   8.361   5.392  0.0747  0.1608 -0.1313
13484SOL    HW150766   1.348   8.272   5.371  1.6105  0.5053  0.4115
13484SOL    HW250767   1.386   8.395   5.451 -1.9342  0.6942  1.9996
13485SOL     OW50768   4.929   5.219   7.233  0.1862  0.0421  0.4906
13485SOL    HW150769   4.899   5.212   7.323 -3.3060 -3.1104 -0.6512
13485SOL    HW250770   4.864   5.274   7.189  1.2001  0.6027 -0.3798
13486SOL     OW50771  12.349   7.481   4.922 -0.0271 -0.2840 -0.3775
13486SOL    HW150772  12.337   7.523   4.837 -1.2683 -1.3227 -0.7530
13486SOL    HW250773  12.377   7.392   4.900 -0.9604 -0.7480  0.2650
13487SOL     OW50774   8.150   8.272   6.584  0.3046  0.0645 -0.4056
13487SOL    HW150775   8.110   8.244   6.666  0.7238  1.5718  0.3536
13487SOL    HW250776   8.244   8.255   6.595  0.5166  1.3630 -0.0764
13488SOL     OW50777   4.997   3.734   6.945  0.2179 -0.2934 -0.2402
13488SOL    HW150778   5.053   3.700   6.875  0.8557  0.4462 -0.1045
13488SOL    HW250779   5.007   3.671   7.016  0.9676 -0.1212 -0.1824
13489SOL     OW50780   9.822   8.550   6.015 -0.3260 -0.1209  0.3010
13489SOL    HW150781   9.914   8.533   5.997 -0.0028  0.3561  1.4168
13489SOL    HW250782   9.775   8.516   5.938  0.8956  1.1469 -1.0541
13490SOL     OW50783   9.192   4.820   4.869  0.0981 -0.0047  0.0082
13490SOL    HW150784   9.124   4.773   4.820  0.1885 -0.5854  0.4320
13490SOL    HW250785   9.246   4.751   4.907 -1.4296  0.3114  3.0300
13491SOL     OW50786   1.190   0.978   7.101  0.2464  0.2149 -0.5786
13491SOL    HW150787   1.132   0.902   7.101 -1.1973  1.2504  1.0234
13491SOL    HW250788   1.247   0.965   7.177  0.4134  0.4551 -0.6609
13492SOL     OW50789   6.883   7.054   7.100 -0.4384  0.4332 -0.0575
13492SOL    HW150790   6.806   7.110   7.094 -0.0116  0.9914 -0.3239
13492SOL    HW250791   6.922   7.056   7.013  0.7820  1.4587  0.4798
13493SOL     OW50792   4.461   5.639   9.385 -0.5224  0.0792 -0.2028
13493SOL    HW150793   4.519   5.706   9.423 -0.9758 -0.5406  1.6560
13493SOL    HW250794   4.465   5.566   9.446  0.2392 -1.8035 -2.3720
13494SOL     OW50795   3.746   2.327  12.628  0.0636  0.5725  0.0201
13494SOL    HW150796   3.773   2.414  12.598 -1.4814  0.1941 -2.7809
13494SOL    HW250797   3.676   2.345  12.690  2.1857  1.3322  2.3761
13495SOL     OW50798   6.350   1.807   9.668  0.4453  0.9040  0.2952
13495SOL    HW150799   6.397   1.865   9.728  0.5068 -0.8111  1.9892
13495SOL    HW250800   6.268   1.853   9.651  1.1202  2.1910  0.3246
13496SOL     OW50801  10.533   0.479   7.582  0.3101  0.2393 -0.2692
13496SOL    HW150802  10.517   0.385   7.573  0.4620  0.3225 -1.5782
13496SOL    HW250803  10.627   0.489   7.573  0.2755  0.5275 -0.3429
13497SOL     OW50804  10.162   8.212  10.762  0.8132 -0.0533  0.2336
13497SOL    HW150805  10.169   8.142  10.697 -1.1733 -1.0518  1.0077
13497SOL    HW250806  10.095   8.271  10.727 -0.4606 -0.7321  1.4198
13498SOL     OW50807   3.686   4.252   0.319 -0.4171  0.3810 -0.0497
13498SOL    HW150808   3.710   4.232   0.409 -0.3868 -1.3166 -0.3901
13498SOL    HW250809   3.765   4.289   0.280  0.1177 -0.4841  0.1829
13499SOL     OW50810  11.721   0.821   2.581 -0.3154 -0.2899 -0.1663
13499SOL    HW150811  11.629   0.850   2.579 -0.5504 -1.0456 -0.6448
13499SOL    HW250812  11.718   0.731   2.550  0.9884  0.8453 -4.2182
13500SOL     OW50813   4.937   8.478   9.308 -0.2105  0.2450  0.0123
13500SOL    HW150814   4.857   8.451   9.352 -0.6133 -0.7090 -1.2317
13500SOL    HW250815   4.924   8.452   9.216  2.0083 -1.1374  0.0091
13501SOL     OW50816   1.096   3.596   3.443 -0.2962 -0.4115 -0.0762
13501SOL    HW150817   1.071   3.582   3.535  1.5412 -1.2922  0.3487
13501SOL    HW250818   1.057   3.522   3.397  1.6490 -1.9895  0.6392
13502SOL     OW50819   6.216   2.004   4.977 -0.6914 -0.1124  0.2145
13502SOL    HW150820   6.237   2.053   5.056 -2.2599 -0.2788  0.7755
13502SOL    HW250821   6.202   1.914   5.007  1.6046 -0.8664 -0.7147
13503SOL     OW50822  10.313   1.003   2.448 -0.4385  0.4621 -0.2550
13503SOL    HW150823  10.324   0.985   2.355 -3.3630 -0.5176 -0.5195
13503SOL    HW250824  10.224   1.039   2.456 -0.9126 -0.9729  2.2893
13504SOL     OW50825   7.485   9.971   4.214 -0.1311 -0.5657  0.0674
13504SOL    HW150826   7.394   9.991   4.193 -0.2181 -1.0365 -0.0171
13504SOL    HW250827   7.484   9.880   4.243  0.4238 -0.7922 -0.6001
13505SOL     OW50828   5.090   1.756   0.496 -0.5339  0.4380 -0.4235
13505SOL    HW150829   5.100   1.770   0.402  1.0843 -1.6900 -0.6464
13505SOL    HW250830   5.180   1.741   0.527 -1.3048 -1.9497  0.8728
13506SOL     OW50831   9.236   6.058   4.718 -0.3959  0.3366  0.5569
13506SOL    HW150832   9.201   6.060   4.629 -1.5714 -0.0390  0.9892
13506SOL    HW250833   9.159   6.046   4.773  0.1676  1.8222  1.7256
13507SOL     OW50834   3.270  10.241   3.612  0.2680 -0.0780 -1.1603
13507SOL    HW150835   3.191  10.221   3.561  0.7284 -0.3005 -1.7976
13507SOL    HW250836   3.257  10.330   3.642 -1.9475 -1.2622  1.9106
13508SOL     OW50837   8.602   8.973   5.626 -0.3047  0.1065  0.4095
13508SOL    HW150838   8.508   8.959   5.628 -0.8657  3.1228 -0.1944
13508SOL    HW250839   8.613   9.067   5.613  2.7941 -0.2374 -0.5087
13509SOL     OW50840   3.298  11.637  11.669 -0.2807  0.4958  0.9922
13509SOL    HW150841   3.379  11.687  11.655 -0.0372  0.1162  1.0349
13509SOL    HW250842   3.245  11.694  11.725  0.0819  0.6205  1.2145
13510SOL     OW50843   2.613  10.138   5.732 -0.2802  0.1148 -0.5434
13510SOL    HW150844   2.708  10.147   5.737 -0.3057  0.0104  0.2341
13510SOL    HW250845   2.579  10.223   5.758 -0.4257 -0.4912  1.3579
13511SOL     OW50846   4.644  10.526   2.964  0.8016 -0.3658  0.4952
13511SOL    HW150847   4.586  10.587   2.918  3.6846  3.0161  0.8709
13511SOL    HW250848   4.710  10.503   2.900  1.5933 -0.3551  1.2823
13512SOL     OW50849  11.057   9.919   6.734  0.0444 -0.3153  0.4973
13512SOL    HW150850  11.123   9.850   6.742  1.1482  0.9535  4.1186
13512SOL    HW250851  11.107   9.999   6.717 -0.9141  0.1735 -0.1679
13513SOL     OW50852   1.147   2.000   7.850 -0.6950 -0.2340 -0.9145
13513SOL    HW150853   1.173   2.071   7.910 -1.4961  1.4932 -2.5009
13513SOL    HW250854   1.068   1.963   7.890 -1.6499  1.3835 -1.1951
13514SOL     OW50855   7.504   3.639   7.179 -0.0331 -0.2924  0.0578
13514SOL    HW150856   7.528   3.656   7.270 -0.2141  2.5003 -0.3188
13514SOL    HW250857   7.408   3.640   7.178 -0.0298  0.9416 -0.3255
13515SOL     OW50858   9.631   1.943   1.267  0.5262 -0.2520 -0.0768
13515SOL    HW150859   9.679   1.902   1.339  2.7922  1.6862 -0.3548
13515SOL    HW250860   9.615   2.032   1.297 -0.1806  0.0355 -1.2553
13516SOL     OW50861   2.870  11.838  12.180  0.3202  0.3158 -0.0474
13516SOL    HW150862   2.886  11.824  12.273 -1.0651  2.5374  0.6154
13516SOL    HW250863   2.900  11.927  12.164 -0.2185  0.2581 -1.5266
13517SOL     OW50864   0.208   6.680   8.286 -0.0562  0.5150  0.2851
13517SOL    HW150865   0.289   6.630   8.293 -0.1797  0.4710  1.6661
13517SOL    HW250866   0.179   6.691   8.376 -2.5535 -1.0119 -0.2368
13518SOL     OW50867   0.731  11.898   1.103 -0.4818  0.5646 -0.4448
13518SOL    HW150868   0.775  11.964   1.156 -1.5679  0.8315  0.1610
13518SOL    HW250869   0.780  11.817   1.120 -0.1744  0.8656  0.1364
13519SOL     OW50870   3.535   0.721  12.559  0.1114  0.3653  0.0026
13519SOL    HW150871   3.471   0.658  12.526  0.1876  0.1281  0.3118
13519SOL    HW250872   3.616   0.671  12.567 -0.1695  0.1192  1.6325
13520SOL     OW50873  10.602  10.207   6.041 -0.7920 -0.2946  0.0939
13520SOL    HW150874  10.641  10.121   6.057  0.3905  0.2796  0.3779
13520SOL    HW250875  10.633  10.261   6.113 -1.9942  0.2390  0.2360
13521SOL     OW50876   4.062   8.038   9.003 -0.7450  0.7391  0.2098
13521SOL    HW150877   4.133   7.974   9.005 -0.2875  1.2327 -0.1553
13521SOL    HW250878   4.102   8.118   8.971 -0.4147  2.3650  4.1463
13522SOL     OW50879   4.061   0.911   6.722 -0.3724 -0.5235  0.2864
13522SOL    HW150880   3.975   0.953   6.723 -0.1968 -0.1685  0.9310
13522SOL    HW250881   4.110   0.954   6.792 -0.2104 -1.8637  1.0419
13523SOL     OW50882   4.084   7.684   0.238  0.6161 -0.2519 -0.2808
13523SOL    HW150883   4.134   7.602   0.239  1.1528 -0.0794  3.6565
13523SOL    HW250884   3.997   7.659   0.270  0.5582  0.5861  0.2353
13524SOL     OW50885  10.304   5.377   9.130 -0.1661  0.1888 -0.1368
13524SOL    HW150886  10.364   5.411   9.064  1.7075  0.5234  1.6035
13524SOL    HW250887  10.335   5.416   9.212 -1.2707 -1.5560  1.1865
13525SOL     OW50888   3.403  10.399   9.863 -0.2256  0.4413 -0.1282
13525SOL    HW150889   3.396  10.321   9.918 -0.4689  0.7217  0.2392
13525SOL    HW250890   3.479  10.446   9.897 -1.4293  1.5300  1.1535
13526SOL     OW50891   1.626   6.136   5.034 -0.2065  0.2713 -0.2381
13526SOL    HW150892   1.606   6.226   5.007  0.0192  0.5371  0.4605
13526SOL    HW250893   1.547   6.086   5.010 -1.1419  1.0237  1.1151
13527SOL     OW50894  10.265   0.444   7.024 -0.2691  0.1910  0.2967
13527SOL    HW150895  10.270   0.377   7.092  2.3702  0.5387  0.5669
13527SOL    HW250896  10.355   0.453   6.993 -0.9230  2.0534 -1.2681
13528SOL     OW50897   3.774   8.427   1.884 -0.2501  0.5721 -0.1022
13528SOL    HW150898   3.845   8.417   1.821  0.8824 -0.2386  1.2323
13528SOL    HW250899   3.753   8.520   1.883 -0.4145  0.5315 -1.8178
13529SOL     OW50900  12.863   4.122  12.087 -0.3230  0.0977 -0.4066
13529SOL    HW150901  12.879   4.134  11.994  0.8037 -0.6807 -0.3214
13529SOL    HW250902  12.949   4.109  12.126 -0.9347 -2.1192  0.3672
13530SOL     OW50903   4.051   2.271   0.232  0.4088 -0.2379  0.4646
13530SOL    HW150904   4.042   2.238   0.322  0.2649 -0.7526  0.2668
13530SOL    HW250905   3.974   2.238   0.187  0.5047 -0.0193  0.1373
13531SOL     OW50906   3.312  10.869   7.349 -0.2031  0.0878  0.3403
13531SOL    HW150907   3.337  10.805   7.282 -0.8244  1.4225 -1.2068
13531SOL    HW250908   3.392  10.882   7.400  0.3850 -0.6691 -0.3671
13532SOL     OW50909   2.288   0.949  12.043  0.0024 -0.7759  0.3361
13532SOL    HW150910   2.361   0.888  12.047 -0.6384 -1.7946 -1.8064
13532SOL    HW250911   2.228   0.911  11.979 -1.9593  0.5234  1.2900
13533SOL     OW50912   7.082  11.668  12.043 -0.4482  0.5025 -0.0586
13533SOL    HW150913   6.986  11.670  12.046 -0.4171  1.0494  1.3288
13533SOL    HW250914   7.109  11.725  12.114  0.9327  1.4166 -1.2501
13534SOL     OW50915   1.995   9.743   3.221 -0.3967  0.3928 -0.8336
13534SOL    HW150916   1.964   9.833   3.231 -0.1237  0.4363 -0.4122
13534SOL    HW250917   2.088   9.746   3.241 -0.6686 -0.2440  0.6315
13535SOL     OW50918   0.328   5.552  10.723  0.3635  0.2796  0.2405
13535SOL    HW150919   0.286   5.638  10.726 -1.5925 -0.6621  1.1064
13535SOL    HW250920   0.415   5.567  10.760  0.3425  2.0184 -0.3400
13536SOL     OW50921  12.551   3.611  12.903  0.0452 -0.3013  0.1897
13536SOL    HW150922  12.619   3.667  12.939  0.3411 -1.2536  1.1621
13536SOL    HW250923  12.469   3.653  12.929  0.2383  0.6026 -0.5914
13537SOL     OW50924   6.419  10.761  10.259 -0.8468  0.0670 -0.0697
13537SOL    HW150925   6.447  10.695  10.322 -0.4851  0.4612  0.1866
13537SOL    HW250926   6.334  10.792  10.291 -0.9877 -0.2277 -0.1568
13538SOL     OW50927   7.617   8.254   6.831 -0.2892  0.1007  0.0514
13538SOL    HW150928   7.603   8.202   6.911 -0.2306 -1.0968 -0.6954
13538SOL    HW250929   7.703   8.226   6.799  0.1044  1.2539  0.0490
13539SOL     OW50930   6.603   7.949   2.759  0.2258 -0.1927  0.0425
13539SOL    HW150931   6.564   7.995   2.833  0.6388  0.7134 -0.2957
13539SOL    HW250932   6.529   7.921   2.706 -0.0170  0.1768  0.1868
13540SOL     OW50933   3.190   4.903   7.604  0.1731  0.4630 -0.3299
13540SOL    HW150934   3.114   4.922   7.658 -0.4144 -0.3404 -0.8628
13540SOL    HW250935   3.263   4.899   7.666 -0.1410  1.5827  0.1396
13541SOL     OW50936   0.592   3.875   9.567 -0.5975  0.6073  0.3343
13541SOL    HW150937   0.611   3.808   9.501 -1.0486 -0.6688  1.4439
13541SOL    HW250938   0.662   3.939   9.556  0.2663 -0.3902 -0.3130
13542SOL     OW50939   0.909   2.406   2.870 -0.3568  0.8364 -0.4616
13542SOL    HW150940   0.958   2.349   2.929 -1.4790  0.2440 -0.0815
13542SOL    HW250941   0.976   2.453   2.821  0.5966  0.8810  0.8428
13543SOL     OW50942  11.971  11.327   6.289  1.2943  0.5449  0.2157
13543SOL    HW150943  11.900  11.325   6.225  2.0878 -1.4125 -0.6739
13543SOL    HW250944  11.952  11.255   6.349  2.9425 -0.6109 -0.5692
13544SOL     OW50945  10.328  12.695   0.493  0.2229 -0.0757 -0.7400
13544SOL    HW150946  10.276  12.622   0.460  0.6504 -0.6473 -0.1730
13544SOL    HW250947  10.306  12.700   0.586  0.0725  0.6238 -0.8109
13545SOL     OW50948   0.825   8.099   2.150  0.0996 -0.3910  0.1677
13545SOL    HW150949   0.780   8.183   2.149 -0.6490 -0.7723 -2.0868
13545SOL    HW250950   0.893   8.110   2.217 -0.5348  1.6874  0.5510
13546SOL     OW50951  10.569   6.757   9.579  0.6541  0.1422  0.2099
13546SOL    HW150952  10.604   6.712   9.656 -0.8827 -0.9681  0.3129
13546SOL    HW250953  10.550   6.846   9.610  1.0192  0.0138  0.8206
13547SOL     OW50954   7.886   6.794   2.167 -0.2281 -0.5011  0.4448
13547SOL    HW150955   7.905   6.700   2.160  0.8110 -0.3512  0.9633
13547SOL    HW250956   7.970   6.836   2.150 -0.9605  0.4113 -1.0762
13548SOL     OW50957   4.462   0.442  12.393 -0.0996  0.8326  0.1713
13548SOL    HW150958   4.479   0.536  12.403 -1.1566  0.9784  0.8689
13548SOL    HW250959   4.459   0.409  12.483  0.9797 -0.0257 -0.0929
13549SOL     OW50960   2.920  12.095  11.572 -0.7507  0.2032  0.1916
13549SOL    HW150961   2.883  12.135  11.493 -0.4852 -0.9105 -0.5195
13549SOL    HW250962   2.965  12.016  11.541  1.5308  1.0517  1.1195
13550SOL     OW50963   4.596   8.890   2.297 -0.0648 -0.3239 -0.1663
13550SOL    HW150964   4.532   8.946   2.341  1.9868  1.6940  0.4430
13550SOL    HW250965   4.629   8.833   2.365  1.6443  1.4256  0.5651
13551SOL     OW50966   5.386  10.666  10.906  0.3198 -0.0298  0.2584
13551SOL    HW150967   5.380  10.754  10.943 -0.7471 -0.3369  0.8481
13551SOL    HW250968   5.337  10.611  10.967  2.0967 -1.2825  0.6006
13552SOL     OW50969   6.061  10.286   5.648  0.8149  0.2164 -0.3470
13552SOL    HW150970   5.992  10.236   5.603  1.3238  1.0237 -2.1101
13552SOL    HW250971   6.136  10.227   5.649  1.2249  0.6494 -1.8712
13553SOL     OW50972  12.854   4.789   4.973  0.5544 -0.0327  0.2002
13553SOL    HW150973  12.860   4.834   5.057 -3.2560  4.0731 -1.3120
13553SOL    HW250974  12.924   4.826   4.920 -0.1297  1.3013  0.1767
13554SOL     OW50975   0.124   6.738  12.721 -0.7552  0.1640 -0.1846
13554SOL    HW150976   0.029   6.739  12.731 -0.7588 -0.6931 -0.1082
13554SOL    HW250977   0.143   6.659  12.671 -0.1563  0.8567 -1.0831
13555SOL     OW50978   9.882   0.914   9.736 -0.2202  0.2450  0.5423
13555SOL    HW150979   9.912   0.982   9.675 -0.5494 -0.1863 -0.1145
13555SOL    HW250980   9.799   0.947   9.769 -0.0364  0.4856  0.7698
13556SOL     OW50981  11.201   1.946   9.065  0.0339  0.2212 -0.5441
13556SOL    HW150982  11.177   2.024   9.015 -1.8371  0.0434 -0.0059
13556SOL    HW250983  11.144   1.949   9.141  1.1672 -0.7762  0.3853
13557SOL     OW50984   6.619   9.487  10.808 -0.0939  0.3600  0.0554
13557SOL    HW150985   6.667   9.513  10.729  0.3134 -0.8721 -0.1379
13557SOL    HW250986   6.543   9.440  10.775 -0.9679  1.5163  0.3847
13558SOL     OW50987   3.596  10.196   8.063  0.0512  0.3483 -0.5020
13558SOL    HW150988   3.685  10.161   8.054  0.2679  1.3291 -2.6403
13558SOL    HW250989   3.594  10.233   8.151  1.6849  0.0892 -0.3259
13559SOL     OW50990   9.856   8.619  10.395 -0.8027  0.2801 -0.0146
13559SOL    HW150991   9.945   8.649  10.373 -1.7155  3.8762  0.5042
13559SOL    HW250992   9.846   8.640  10.488 -2.9882  2.5501 -0.6527
13560SOL     OW50993   9.224   8.144  10.424  0.0039 -0.0170 -0.4737
13560SOL    HW150994   9.284   8.177  10.358  0.7748  0.3391  0.3713
13560SOL    HW250995   9.154   8.210  10.429  0.6969  0.6963  0.0709
13561SOL     OW50996   5.984   3.163   1.831  0.1313 -0.2549 -0.2843
13561SOL    HW150997   5.895   3.190   1.807  0.0048  0.9137  1.3318
13561SOL    HW250998   6.034   3.245   1.834  1.4851 -0.9553 -1.8135
13562SOL     OW50999   1.182  11.361   5.340 -0.5061 -0.1152  0.0617
13562SOL    HW151000   1.254  11.423   5.330  0.9536 -1.7815 -0.0825
13562SOL    HW251001   1.104  11.412   5.318  0.6989  1.4900 -0.7117
13563SOL     OW51002   3.947  12.342   3.580  0.6824  0.7173 -0.1199
13563SOL    HW151003   3.971  12.260   3.622  0.4852  0.2411 -0.9183
13563SOL    HW251004   3.985  12.410   3.636 -2.1097  0.2954  2.5788
13564SOL     OW51005   0.789   1.143   5.531 -0.0907 -0.0078 -0.1017
13564SOL    HW151006   0.850   1.112   5.463 -0.7002  1.1588 -1.2200
13564SOL    HW251007   0.821   1.230   5.554 -0.6760  0.1455  0.1376
13565SOL     OW51008   8.799   8.829   1.903  0.9833 -0.1834 -0.4792
13565SOL    HW151009   8.838   8.916   1.902  0.3480  0.1044 -0.5540
13565SOL    HW251010   8.874   8.769   1.897  1.3958  0.3624 -0.8931
13566SOL     OW51011   1.722   5.446   9.640  0.0454 -0.0797 -0.1844
13566SOL    HW151012   1.727   5.495   9.558  0.2029 -0.5248 -0.4455
13566SOL    HW251013   1.712   5.355   9.613  0.6876 -0.2978  0.2807
13567SOL     OW51014   0.972   5.561   4.827 -0.0536  0.2764  0.0428
13567SOL    HW151015   0.988   5.616   4.904  2.4683 -0.3038 -0.0074
13567SOL    HW251016   1.058   5.530   4.801 -0.9604 -0.3244 -2.4711
13568SOL     OW51017   5.028   7.239   6.330  0.9082  0.0010  0.0315
13568SOL    HW151018   5.104   7.193   6.294  0.6482  0.0856 -0.6471
13568SOL    HW251019   4.957   7.222   6.267  0.7135  1.0316 -0.0539
13569SOL     OW51020   5.962   6.004   9.259 -0.1228  0.1899 -1.0005
13569SOL    HW151021   6.031   6.029   9.197 -0.4968  0.3335 -1.3631
13569SOL    HW251022   5.983   6.052   9.339  0.2617  0.1437 -1.0700
13570SOL     OW51023   2.111   2.865   1.312 -0.3900 -0.2681 -0.9419
13570SOL    HW151024   2.072   2.815   1.383 -1.2652  1.5336 -0.1094
13570SOL    HW251025   2.206   2.859   1.328 -0.4488 -1.7360 -0.9604
13571SOL     OW51026  12.870  10.517   7.679 -0.2694  0.1733  0.2744
13571SOL    HW151027  12.945  10.486   7.629 -1.2112  1.3845 -2.0452
13571SOL    HW251028  12.896  10.506   7.771  1.5719 -2.0856 -0.4259
13572SOL     OW51029   5.858   6.925   2.334 -0.1977 -0.0950  0.0568
13572SOL    HW151030   5.892   6.994   2.391  0.3335  0.3065 -0.7212
13572SOL    HW251031   5.898   6.943   2.249  2.1537 -2.8917  0.4076
13573SOL     OW51032   7.778   1.922   1.029  0.2261 -0.0174 -0.1753
13573SOL    HW151033   7.864   1.897   1.062 -0.6201  0.3006  2.4624
13573SOL    HW251034   7.737   1.840   1.003  1.2854 -0.1676 -1.4972
13574SOL     OW51035   2.164   9.467   6.008 -0.0505  0.0287  0.4424
13574SOL    HW151036   2.254   9.494   5.989 -0.3240  0.8429  0.2516
13574SOL    HW251037   2.169   9.422   6.092  0.6551 -0.6210  0.0642
13575SOL     OW51038   1.464  12.947   9.140  0.0761  0.1872  0.1010
13575SOL    HW151039   1.397  12.972   9.203  0.6985  0.2082  0.7565
13575SOL    HW251040   1.417  12.893   9.076 -0.6976  0.7467  0.1891
13576SOL     OW51041   9.296  12.717   6.921  0.2062 -0.7060 -0.3083
13576SOL    HW151042   9.365  12.658   6.951  1.1793  0.1354 -0.8363
13576SOL    HW251043   9.339  12.773   6.856 -0.9482 -0.0946 -0.5681
13577SOL     OW51044  11.497  12.833   6.553  0.4614 -0.0382 -0.0133
13577SOL    HW151045  11.453  12.816   6.470 -0.3323 -0.6389  0.5072
13577SOL    HW251046  11.437  12.798   6.619  0.4326  1.6161  0.8992
13578SOL     OW51047   9.207  10.474   7.211  0.5192  0.3805 -0.3637
13578SOL    HW151048   9.208  10.414   7.137  0.2276  0.3594 -0.3501
13578SOL    HW251049   9.258  10.430   7.279 -0.5113 -0.2976 -0.0043
13579SOL     OW51050   5.817  11.498  10.877 -0.0021  0.4617 -0.3484
13579SOL    HW151051   5.828  11.409  10.844 -0.4297  0.8229 -1.5376
13579SOL    HW251052   5.847  11.494  10.968  1.2909 -0.5717 -0.7857
13580SOL     OW51053   1.119   7.398  12.010  0.4188  0.0527 -0.1273
13580SOL    HW151054   1.041   7.349  11.987  0.3720 -0.4727  1.0872
13580SOL    HW251055   1.091   7.489  12.012 -0.0842 -0.1072  0.0265
13581SOL     OW51056   9.599   1.930  10.097  0.9076  0.3423 -0.7541
13581SOL    HW151057   9.621   1.916  10.188  0.2514  1.6183 -0.3717
13581SOL    HW251058   9.638   1.856  10.050  1.5120 -0.1539  0.5101
13582SOL     OW51059  11.989   5.796   5.379  0.3167 -0.3639  0.0434
13582SOL    HW151060  11.913   5.792   5.436  1.4866 -0.2910  1.6699
13582SOL    HW251061  12.046   5.862   5.419  1.4809 -0.7965 -0.8295
13583SOL     OW51062   7.166  10.028   3.759 -0.4946  0.9850 -0.2170
13583SOL    HW151063   7.219  10.057   3.685 -1.5350 -1.4529 -2.0361
13583SOL    HW251064   7.228   9.982   3.817  0.0476  1.5551 -0.3418
13584SOL     OW51065   1.114   5.313   7.619  0.2899  0.2001 -0.3022
13584SOL    HW151066   1.034   5.332   7.668  0.6330  0.0352  0.3407
13584SOL    HW251067   1.084   5.268   7.540 -0.3600  1.4814 -0.8030
13585SOL     OW51068  11.052   5.157   0.522  0.2281 -0.3404 -0.2892
13585SOL    HW151069  11.008   5.078   0.493  2.4773 -1.1217 -1.8417
13585SOL    HW251070  10.992   5.228   0.500 -0.2102 -1.3278 -2.5264
13586SOL     OW51071   5.866   4.478   8.191  0.0741 -0.7296  0.6686
13586SOL    HW151072   5.802   4.523   8.247  0.7299 -0.0742  0.9032
13586SOL    HW251073   5.892   4.543   8.127 -1.4838 -1.7908 -1.1493
13587SOL     OW51074  12.835   6.841  12.690 -0.1652  0.1376 -0.3098
13587SOL    HW151075  12.748   6.858  12.726  0.6675  1.0482  1.3762
13587SOL    HW251076  12.838   6.746  12.680 -0.8247 -0.0546  1.0703
13588SOL     OW51077   7.739   4.772   5.067  0.5857  0.1481  0.3985
13588SOL    HW151078   7.733   4.833   5.141 -1.6726 -0.0514  0.4438
13588SOL    HW251079   7.658   4.721   5.072  0.1715  0.3965 -2.4602
13589SOL     OW51080   0.807   2.692   5.227 -0.2797 -0.0876  0.4802
13589SOL    HW151081   0.875   2.738   5.276  1.2147 -1.6191 -0.0645
13589SOL    HW251082   0.762   2.761   5.178  2.0256  0.8211 -0.4925
13590SOL     OW51083  12.939   6.476   7.753  0.1985 -0.7276  0.1558
13590SOL    HW151084  12.930   6.386   7.720 -0.1116 -0.5870 -0.1552
13590SOL    HW251085  13.020   6.475   7.804  0.6559 -0.9713 -0.5567
13591SOL     OW51086   4.304   2.196   3.675  0.4722  0.3015  0.3732
13591SOL    HW151087   4.252   2.163   3.747 -1.8815  1.5881 -0.6246
13591SOL    HW251088   4.250   2.265   3.635  2.4088  0.8541 -1.5308
13592SOL     OW51089   1.860   5.241   0.449  0.0085  0.1557  0.5007
13592SOL    HW151090   1.850   5.336   0.450 -1.5253  0.0494  2.5714
13592SOL    HW251091   1.821   5.212   0.531 -1.5010 -2.4301 -0.9778
13593SOL     OW51092   9.606   1.744   2.180  0.1254  0.1034 -0.6692
13593SOL    HW151093   9.605   1.829   2.136  1.8812  0.9342  0.7846
13593SOL    HW251094   9.674   1.752   2.246 -0.7753 -1.9202  0.5890
13594SOL     OW51095   8.940   3.322   4.050  0.3434 -0.0783  0.5338
13594SOL    HW151096   8.888   3.401   4.033 -1.1781 -0.6903  2.0776
13594SOL    HW251097   9.005   3.350   4.114  0.5002  0.1729  0.2663
13595SOL     OW51098   3.048  10.813  10.056 -0.5885 -0.0332  0.3251
13595SOL    HW151099   3.056  10.906  10.032 -0.3064 -0.7530 -2.8078
13595SOL    HW251100   3.134  10.791  10.092  0.0317  0.4964 -0.7612
13596SOL     OW51101   7.363   9.954   1.006 -0.0657 -0.2234 -0.0492
13596SOL    HW151102   7.351   9.860   1.021 -1.3688  0.2611  2.6899
13596SOL    HW251103   7.455   9.970   1.029 -0.5893 -0.4470  2.4944
13597SOL     OW51104   9.957   1.470   0.631 -0.0416 -0.5087 -0.1544
13597SOL    HW151105   9.982   1.476   0.539 -0.9672 -0.4652 -0.4116
13597SOL    HW251106   9.905   1.549   0.647 -1.3877 -1.3794 -0.0868
13598SOL     OW51107  10.740   9.315   4.607 -0.3999  0.3941 -0.3955
13598SOL    HW151108  10.796   9.368   4.551 -0.3671 -1.8459 -2.6520
13598SOL    HW251109  10.797   9.244   4.637 -0.5915  1.1959  2.0594
13599SOL     OW51110   7.466   7.642   2.139 -0.3168 -0.2953  0.2649
13599SOL    HW151111   7.480   7.563   2.190  0.1841 -0.0768  0.4758
13599SOL    HW251112   7.388   7.682   2.177 -1.8497 -1.7345 -1.1778
13600SOL     OW51113   7.260   8.451   4.056  0.2740 -0.0441  0.3599
13600SOL    HW151114   7.206   8.489   4.126 -1.7188  0.5115 -1.3789
13600SOL    HW251115   7.284   8.526   4.002 -3.4342 -0.8693 -2.9496
13601SOL     OW51116  11.024   1.602   4.024 -0.6296  0.0072  0.2389
13601SOL    HW151117  11.034   1.679   3.968  0.8468  0.2298  0.7532
13601SOL    HW251118  11.086   1.538   3.988 -0.5072 -0.2614  0.9161
13602SOL     OW51119  10.638  10.884   2.684  0.3539  0.1474  0.1764
13602SOL    HW151120  10.614  10.952   2.621 -2.1328 -0.3790  0.4511
13602SOL    HW251121  10.664  10.933   2.763  0.7076  0.7687 -0.3146
13603SOL     OW51122   3.439  12.426  10.265 -0.1612 -0.9214 -0.4867
13603SOL    HW151123   3.349  12.392  10.266 -0.6712  0.3742  0.9481
13603SOL    HW251124   3.486  12.370  10.327 -0.3871 -0.5984 -0.0172
13604SOL     OW51125   5.741   2.300   0.310 -0.0560  0.2217  0.3751
13604SOL    HW151126   5.719   2.263   0.396 -0.6602  0.6909  0.4300
13604SOL    HW251127   5.766   2.224   0.257  2.5725  0.1013  1.5923
13605SOL     OW51128   6.617   0.990   1.476 -0.3255 -0.0905  0.0558
13605SOL    HW151129   6.524   0.984   1.455 -0.5976  0.4572  1.0751
13605SOL    HW251130   6.628   0.932   1.551 -0.1672  1.0762  0.9467
13606SOL     OW51131  12.786   0.288   5.307  0.0814 -0.2257  0.3309
13606SOL    HW151132  12.841   0.364   5.287  0.1512 -0.1020  0.9561
13606SOL    HW251133  12.708   0.300   5.254  1.2765 -1.1907 -1.7656
13607SOL     OW51134   6.082   1.373  10.583  0.4155  0.6218  0.1653
13607SOL    HW151135   6.034   1.452  10.608 -0.5813 -0.3395  1.4291
13607SOL    HW251136   6.018   1.321  10.534 -0.1490 -0.9331  2.3643
13608SOL     OW51137   0.070   1.551   9.960 -0.6407  0.5330  0.4170
13608SOL    HW151138   0.155   1.517   9.932 -1.2932 -0.8176  0.0107
13608SOL    HW251139   0.083   1.645   9.968  0.8887  0.3402  0.3470
13609SOL     OW51140  11.500   2.261  11.205  0.3447  0.3407 -0.4055
13609SOL    HW151141  11.445   2.338  11.189 -0.0893 -0.3803 -2.8381
13609SOL    HW251142  11.589   2.296  11.210 -0.0643  1.2515  1.2011
13610SOL     OW51143   5.566   2.490   2.518  0.2271  0.4883  0.2001
13610SOL    HW151144   5.608   2.520   2.599 -0.3550  2.1088 -0.0601
13610SOL    HW251145   5.620   2.527   2.448  1.1641 -1.5136 -0.2298
13611SOL     OW51146   8.290  11.131  11.357 -0.0040  0.1490  1.1910
13611SOL    HW151147   8.198  11.113  11.338 -0.2948  1.4351  1.3040
13611SOL    HW251148   8.335  11.116  11.274 -0.4605  0.4116  0.8898
13612SOL     OW51149   9.869   6.324   3.998 -0.0624  0.0825 -0.0848
13612SOL    HW151150   9.856   6.239   3.956 -0.7835  0.4045 -0.5277
13612SOL    HW251151   9.920   6.304   4.076  0.9470 -0.5749 -0.8894
13613SOL     OW51152   1.918   2.524   2.586  0.0274  0.0427  0.1396
13613SOL    HW151153   1.941   2.446   2.536 -1.8077 -1.0171  0.8442
13613SOL    HW251154   1.834   2.553   2.549  0.5550  1.5502  0.0559
13614SOL     OW51155   3.625   9.689   5.528  0.1379  0.1776  0.1718
13614SOL    HW151156   3.598   9.626   5.595  2.6869 -1.0047  0.2137
13614SOL    HW251157   3.657   9.634   5.456 -0.2180  1.4570 -1.0090
13615SOL     OW51158   2.723   5.269   3.908  0.3551  0.6294 -0.7849
13615SOL    HW151159   2.670   5.201   3.868 -1.4238  0.9312  0.9266
13615SOL    HW251160   2.677   5.351   3.888  0.5664  0.9781  0.1109
13616SOL     OW51161   8.226   4.217   3.332  0.0333 -0.2499  0.0559
13616SOL    HW151162   8.298   4.155   3.326  0.6025  0.5473 -1.9361
13616SOL    HW251163   8.268   4.300   3.354 -0.6977 -0.4435  2.4664
13617SOL     OW51164   6.486  12.946   4.065  0.0544 -0.4524 -0.0848
13617SOL    HW151165   6.449  12.941   4.153  0.3093 -1.5993 -0.0271
13617SOL    HW251166   6.418  12.909   4.008  1.4841 -3.8986  0.1771
13618SOL     OW51167   2.204   0.246   5.539 -0.1038  0.7918  0.2980
13618SOL    HW151168   2.245   0.313   5.593  1.7155 -0.9217  1.1773
13618SOL    HW251169   2.252   0.247   5.457 -1.2374  1.7064 -0.3873
13619SOL     OW51170  12.943   1.777   2.228  0.7058 -0.6103 -0.1066
13619SOL    HW151171  12.867   1.828   2.200  0.6766 -0.2129  0.6855
13619SOL    HW251172  12.908   1.713   2.290  1.0752 -0.1910  0.5351
13620SOL     OW51173   7.578   9.324  10.637 -0.3168  0.1615 -0.7964
13620SOL    HW151174   7.632   9.401  10.650  1.7571 -1.2053 -0.7311
13620SOL    HW251175   7.569   9.286  10.725  4.3233 -3.0776 -1.3097
13621SOL     OW51176   2.846   3.388   0.597 -0.3741  0.4913  0.8514
13621SOL    HW151177   2.922   3.402   0.653  1.7822 -1.8181 -1.2353
13621SOL    HW251178   2.832   3.293   0.599 -1.4436  0.5728 -0.9403
13622SOL     OW51179  10.270  12.651  10.061  0.2509  0.2434 -0.3928
13622SOL    HW151180  10.319  12.620   9.984  0.7565  0.6588 -0.2434
13622SOL    HW251181  10.320  12.617  10.136  1.1225  1.8338 -0.2117
13623SOL     OW51182   7.851  12.484   5.642  0.2007 -0.5143 -0.1299
13623SOL    HW151183   7.898  12.409   5.678  0.4485 -0.0118  0.6270
13623SOL    HW251184   7.798  12.516   5.714  0.0952  0.0325 -0.4454
13624SOL     OW51185   2.410   9.288   3.299  0.7423  0.0719 -0.0141
13624SOL    HW151186   2.440   9.305   3.210  0.8701 -2.0162 -0.4074
13624SOL    HW251187   2.321   9.255   3.288  0.9887 -0.8027  0.5750
13625SOL     OW51188   4.805   3.775   2.590  0.9526 -0.3120 -0.2314
13625SOL    HW151189   4.869   3.843   2.570  0.0883 -0.1088 -2.6134
13625SOL    HW251190   4.782   3.738   2.505 -2.6841  0.1722  0.3724
13626SOL     OW51191  12.339   9.218   0.838 -0.1278 -0.3749  0.3215
13626SOL    HW151192  12.311   9.238   0.928  0.0884 -1.5451  0.6710
13626SOL    HW251193  12.257   9.199   0.792 -0.1180 -1.7905  0.8220
13627SOL     OW51194  10.561   9.041   3.802 -0.3815 -0.7907  0.3521
13627SOL    HW151195  10.624   9.107   3.830  0.6008 -1.8211  0.6121
13627SOL    HW251196  10.483   9.059   3.854 -0.1712  0.2334  0.3293
13628SOL     OW51197   2.797   9.419  12.802  0.0230 -0.6257 -0.3358
13628SOL    HW151198   2.758   9.429  12.889 -0.2662  2.2206 -0.6900
13628SOL    HW251199   2.788   9.326  12.782 -1.3646 -1.0771  1.9893
13629SOL     OW51200  10.391   4.324   4.413  0.1908  0.1392  0.2481
13629SOL    HW151201  10.374   4.395   4.351  1.7650  1.2420  0.9953
13629SOL    HW251202  10.470   4.352   4.460  3.1112 -3.7339 -1.8250
13630SOL     OW51203   1.644   7.250   7.407  0.1707 -0.0851 -0.4042
13630SOL    HW151204   1.675   7.314   7.343  1.9270  0.4545  0.9268
13630SOL    HW251205   1.610   7.302   7.480 -0.2638 -0.6833 -0.1706
13631SOL     OW51206   5.601   8.295   3.456 -0.5490  0.0510 -0.2516
13631SOL    HW151207   5.519   8.304   3.408  0.2018 -0.0077 -1.6115
13631SOL    HW251208   5.621   8.201   3.453 -0.7844 -0.0449  0.7228
13632SOL     OW51209   7.731   7.630   7.423 -0.1382  0.6088 -0.1155
13632SOL    HW151210   7.638   7.654   7.423 -0.1558  0.5569 -1.0915
13632SOL    HW251211   7.732   7.538   7.450 -0.4303  0.4221 -0.7165
13633SOL     OW51212  12.124   3.087  11.001  0.0449  0.2563  0.0891
13633SOL    HW151213  12.164   3.001  10.989  0.4314  0.5456 -0.7928
13633SOL    HW251214  12.150   3.115  11.088  0.0435 -0.4551  0.3166
13634SOL     OW51215   4.478   7.055   2.005  0.2999  0.2476 -0.1490
13634SOL    HW151216   4.542   7.126   1.996  0.6015 -0.1581 -1.4347
13634SOL    HW251217   4.532   6.978   2.021 -0.1004  0.5112  2.9271
13635SOL     OW51218   4.122  10.103   3.099  0.8138  0.0464  0.0633
13635SOL    HW151219   4.152  10.139   3.182 -0.8656 -1.2649  1.3265
13635SOL    HW251220   4.107  10.010   3.117 -0.6675 -0.0524 -1.3637
13636SOL     OW51221   0.153  10.664   7.222  0.0453  0.7850 -0.1671
13636SOL    HW151222   0.098  10.655   7.144  0.3304 -0.5574 -0.2341
13636SOL    HW251223   0.092  10.689   7.291 -0.1262  2.6020 -0.9091
13637SOL     OW51224  10.800   6.383   5.702 -0.6227  0.0284 -0.0082
13637SOL    HW151225  10.817   6.289   5.708 -0.2204  0.0676 -0.4518
13637SOL    HW251226  10.757   6.394   5.617 -1.1256  0.1802  0.2672
13638SOL     OW51227   6.435   1.011   7.401 -0.0761 -0.0276  0.7183
13638SOL    HW151228   6.442   0.980   7.310  0.9497 -0.8600  1.0604
13638SOL    HW251229   6.447   1.106   7.395 -3.4672  0.4696 -0.3724
13639SOL     OW51230   1.416   8.170   4.387 -0.0264  0.5367  0.2249
13639SOL    HW151231   1.486   8.228   4.358  0.7953  0.2014  1.4369
13639SOL    HW251232   1.390   8.204   4.472  0.0024 -0.4620  0.6479
13640SOL     OW51233  10.803   2.772   1.894 -0.1262 -0.1635 -0.1964
13640SOL    HW151234  10.729   2.742   1.842 -0.1272 -0.4047 -0.0584
13640SOL    HW251235  10.880   2.749   1.841 -0.1634  0.6299 -0.6200
13641SOL     OW51236   2.515   2.813   5.882 -0.4687  0.1132  0.1333
13641SOL    HW151237   2.432   2.820   5.930 -0.1940 -3.1108  1.3656
13641SOL    HW251238   2.566   2.890   5.910 -1.9023  0.5264  1.7961
13642SOL     OW51239   9.487   4.592   6.650  0.0109  0.8530  0.4907
13642SOL    HW151240   9.428   4.583   6.575 -0.7087  1.2040  1.0106
13642SOL    HW251241   9.575   4.584   6.612 -0.2369  3.2660 -0.7671
13643SOL     OW51242  10.775   5.944   4.039 -0.0128  0.4951  0.1709
13643SOL    HW151243  10.846   5.982   3.987 -0.4816  1.9785  0.5727
13643SOL    HW251244  10.817   5.916   4.121  0.5089 -0.7945 -0.4982
13644SOL     OW51245   1.948  11.484   6.027 -0.5750 -0.3226 -0.6713
13644SOL    HW151246   1.976  11.398   6.057 -0.9514 -1.2201 -2.7219
13644SOL    HW251247   2.029  11.536   6.025 -0.4664 -0.3621  1.2805
13645SOL     OW51248   5.738   7.093   2.569 -0.2081 -0.2223  0.0848
13645SOL    HW151249   5.732   7.123   2.660  0.1900  0.1018  0.0058
13645SOL    HW251250   5.831   7.077   2.555 -0.0252  1.4193 -0.7978
13646SOL     OW51251   1.976   7.141   4.043 -0.1284  0.1057  0.1826
13646SOL    HW151252   1.960   7.050   4.066  0.1642  0.6451  2.8653
13646SOL    HW251253   1.913   7.191   4.095  0.9418  1.5224  0.1930
13647SOL     OW51254   0.731  10.102   6.477 -0.4324 -0.3879 -0.7211
13647SOL    HW151255   0.690  10.065   6.555 -0.8528  2.2186  0.3826
13647SOL    HW251256   0.668  10.165   6.444  1.6020  1.9968 -0.3630
13648SOL     OW51257   4.150   1.396  11.435 -0.4686 -0.5054  0.4673
13648SOL    HW151258   4.242   1.376  11.456 -1.0549 -1.5853  2.1730
13648SOL    HW251259   4.115   1.313  11.402 -1.4620 -0.8051  2.2126
13649SOL     OW51260   3.620   6.269   8.846  0.3732 -0.4816 -0.0280
13649SOL    HW151261   3.696   6.308   8.802  0.8991 -0.9487  0.4338
13649SOL    HW251262   3.657   6.196   8.895 -0.6060 -1.6924 -1.0177
13650SOL     OW51263  12.109  10.272   2.910  0.4646 -0.2653 -0.5490
13650SOL    HW151264  12.182  10.224   2.873 -0.1707 -1.3825 -0.3829
13650SOL    HW251265  12.068  10.211   2.972  0.0081  0.6952  0.1279
13651SOL     OW51266   5.668   9.545   1.182  0.3243 -0.1796  0.1518
13651SOL    HW151267   5.728   9.525   1.253  0.0604 -0.0806  0.4080
13651SOL    HW251268   5.718   9.601   1.123  0.9318 -1.2484 -0.3670
13652SOL     OW51269  10.372   0.935   4.786  0.3902 -0.3089 -0.0953
13652SOL    HW151270  10.370   0.887   4.703 -0.7302 -1.5755  0.6428
13652SOL    HW251271  10.287   0.919   4.826  0.3509  1.4960  0.6516
13653SOL     OW51272  11.606   5.819  12.671  0.3865  0.6101 -0.7133
13653SOL    HW151273  11.660   5.816  12.592  0.7986  0.2701 -0.4229
13653SOL    HW251274  11.523   5.779  12.645  0.2431  1.1972 -1.1800
13654SOL     OW51275   5.875   4.505   5.302  0.1566  0.1134 -0.5407
13654SOL    HW151276   5.948   4.567   5.310  0.4243 -0.1980 -0.5306
13654SOL    HW251277   5.811   4.550   5.247  0.8526 -0.0489 -1.5125
13655SOL     OW51278   2.047   8.617  11.302 -0.1962  0.8507 -0.3268
13655SOL    HW151279   1.977   8.556  11.282  0.2056  0.1442  0.3656
13655SOL    HW251280   2.100   8.619  11.222  1.9226 -2.6530  0.7579
13656SOL     OW51281   4.579  11.330   5.360 -0.1317 -0.0091  0.3038
13656SOL    HW151282   4.488  11.357   5.367 -0.0748  0.2170  0.1613
13656SOL    HW251283   4.629  11.400   5.402  0.1229  0.7864 -1.2477
13657SOL     OW51284   3.295   7.912   2.245 -0.2530 -0.1604  0.0888
13657SOL    HW151285   3.272   7.876   2.330  0.0451  1.1063  0.7248
13657SOL    HW251286   3.253   7.853   2.182 -1.2216 -0.6048  1.1130
13658SOL     OW51287   1.141   4.598   7.481  0.2149  0.5281 -0.1621
13658SOL    HW151288   1.147   4.519   7.428 -3.0653  1.2119 -1.7845
13658SOL    HW251289   1.181   4.574   7.565  0.5626 -2.3744 -1.0541
13659SOL     OW51290   7.215  11.635   8.257 -0.2022  0.2994  0.6726
13659SOL    HW151291   7.228  11.557   8.204  1.5473  1.3867 -0.6374
13659SOL    HW251292   7.138  11.616   8.310  0.0890 -2.2305  0.3048
13660SOL     OW51293  11.629   6.175   0.778 -0.0343  0.4369 -0.1399
13660SOL    HW151294  11.646   6.242   0.711 -2.0750 -0.3534 -1.5603
13660SOL    HW251295  11.558   6.212   0.831  0.8357  0.5995  0.9362
13661SOL     OW51296  10.233   9.321   6.659  0.2689 -0.3525 -0.0490
13661SOL    HW151297  10.173   9.366   6.600  0.8976 -0.6250 -0.9272
13661SOL    HW251298  10.250   9.237   6.616  1.1030 -0.3695  0.2987
13662SOL     OW51299   6.650  12.407   3.334 -0.5414 -0.2404  0.1681
13662SOL    HW151300   6.719  12.463   3.297 -0.3557  0.4966  1.5865
13662SOL    HW251301   6.694  12.355   3.401 -1.4127  0.5489  1.3948
13663SOL     OW51302  10.187  11.759   4.286  0.5867  0.2006 -0.2412
13663SOL    HW151303  10.132  11.826   4.246  0.0669 -0.3597 -0.5018
13663SOL    HW251304  10.202  11.790   4.376  1.3409  1.2191 -0.7061
13664SOL     OW51305   5.678   2.026   0.210 -0.2889  0.4567 -0.2916
13664SOL    HW151306   5.770   2.006   0.227 -0.0559 -0.9606 -2.6972
13664SOL    HW251307   5.629   1.966   0.266  0.3250 -0.7711 -1.0217
13665SOL     OW51308  11.153   6.857  12.321  0.3320 -0.4776 -0.2389
13665SOL    HW151309  11.178   6.935  12.370 -2.6723 -0.5426  1.6497
13665SOL    HW251310  11.101   6.890  12.248 -0.6573 -0.6453  0.3712
13666SOL     OW51311  12.468   6.122  12.967  0.1794 -0.0013 -0.0536
13666SOL    HW151312  12.381   6.146  12.999  1.0582  1.9971  1.0282
13666SOL    HW251313  12.526   6.138  13.042  1.5386 -0.8599 -0.8905
13667SOL     OW51314   1.003   3.409   0.050 -0.0842 -0.0084 -0.3633
13667SOL    HW151315   0.935   3.476   0.050 -0.6194 -0.5352 -1.0559
13667SOL    HW251316   1.044   3.416  -0.036 -0.4892 -0.8943 -0.6450
13668SOL     OW51317   2.593   2.712   3.236 -0.2573  0.2887 -0.3931
13668SOL    HW151318   2.530   2.776   3.204 -1.5197 -1.0506 -0.7160
13668SOL    HW251319   2.540   2.647   3.282  1.1131  0.1020  1.0306
13669SOL     OW51320   6.694  12.738   7.242  0.9288 -0.0837  0.3325
13669SOL    HW151321   6.722  12.670   7.302 -1.4181 -0.2735  1.3310
13669SOL    HW251322   6.768  12.750   7.182  2.0854 -2.1931  1.2486
13670SOL     OW51323   8.902   1.751  11.830  0.0588  0.0473  0.5875
13670SOL    HW151324   8.928   1.700  11.906  1.2825  1.1220  0.9324
13670SOL    HW251325   8.915   1.842  11.857 -0.7593  0.4929 -0.4641
13671SOL     OW51326   6.453   7.444   7.844  0.1067 -1.0701  0.4916
13671SOL    HW151327   6.415   7.435   7.756  0.2757 -0.2135  0.3266
13671SOL    HW251328   6.519   7.513   7.835  0.4000 -1.2533  1.2031
13672SOL     OW51329  11.277   4.273   1.407  0.1119 -0.0623  0.1813
13672SOL    HW151330  11.296   4.264   1.500 -0.4546 -0.8909  0.2318
13672SOL    HW251331  11.347   4.222   1.364 -0.8247 -1.4973  0.2769
13673SOL     OW51332  12.369  12.433   4.639 -0.3587  0.4508 -0.0084
13673SOL    HW151333  12.429  12.368   4.602  1.0014  0.2535  2.4087
13673SOL    HW251334  12.287  12.417   4.593  0.9027 -0.5116 -2.0936
13674SOL     OW51335  11.090   4.696  12.117  0.4451 -0.0484 -0.2640
13674SOL    HW151336  11.052   4.753  12.050  1.2324  0.2967 -0.4354
13674SOL    HW251337  11.056   4.730  12.199 -2.8237 -2.1993 -0.5481
13675SOL     OW51338   1.675  10.044   7.445  0.0258  0.1821 -0.1405
13675SOL    HW151339   1.635  10.121   7.404 -1.1588 -0.3497 -0.0064
13675SOL    HW251340   1.759  10.035   7.400 -1.3249 -0.5402 -2.7489
13676SOL     OW51341  10.786   1.583   5.821  0.3877  0.1843 -0.0181
13676SOL    HW151342  10.838   1.504   5.807  1.8136  1.1361 -0.2947
13676SOL    HW251343  10.725   1.560   5.892  2.1010 -0.5529  1.2782
13677SOL     OW51344  12.289   6.334   4.928 -0.0011 -0.1944 -0.0726
13677SOL    HW151345  12.227   6.350   4.857 -0.8577  0.4095  0.7985
13677SOL    HW251346  12.370   6.376   4.899 -0.5450  0.6381 -0.3913
13678SOL     OW51347   6.415   0.711   5.553 -0.1767  0.3696  0.6204
13678SOL    HW151348   6.428   0.782   5.489  0.1822  0.7196  1.0774
13678SOL    HW251349   6.478   0.730   5.622 -0.9800  0.3292  1.3735
13679SOL     OW51350  11.465   1.888   9.104  0.7281  0.0585  0.4024
13679SOL    HW151351  11.370   1.887   9.113  0.6299  0.7375 -0.4239
13679SOL    HW251352  11.497   1.909   9.192  0.1524 -0.7296  0.8157
13680SOL     OW51353   9.463   5.004   8.436  0.5227  0.2849  0.0069
13680SOL    HW151354   9.541   4.973   8.481  0.4882 -1.6732 -1.1850
13680SOL    HW251355   9.391   4.956   8.477 -0.3023  2.8600  1.8584
13681SOL     OW51356   5.747  12.173  10.412 -0.3527  0.1591  0.0360
13681SOL    HW151357   5.769  12.223  10.491 -0.0268 -0.2739  0.2241
13681SOL    HW251358   5.832  12.143  10.380 -0.5887 -0.6745  0.1887
13682SOL     OW51359  10.440  11.419  11.028  0.8449  0.4415  0.4183
13682SOL    HW151360  10.409  11.507  11.050 -0.4623 -0.2003  1.2466
13682SOL    HW251361  10.519  11.434  10.976 -0.3619  2.1654 -1.0583
13683SOL     OW51362   8.269   4.950   4.395 -1.0231 -0.4224  0.2448
13683SOL    HW151363   8.183   4.988   4.380 -0.7525 -0.0568 -0.4278
13683SOL    HW251364   8.256   4.888   4.467 -1.9255 -0.6637 -0.1157
13684SOL     OW51365   1.986   0.230   3.291 -0.1233  0.5205 -0.5962
13684SOL    HW151366   2.069   0.184   3.279 -0.3426 -0.5167  1.3846
13684SOL    HW251367   1.919   0.165   3.270 -0.4245  0.6739 -0.1347
13685SOL     OW51368   0.677   1.040   6.726  0.0326 -0.3652 -0.4818
13685SOL    HW151369   0.721   1.123   6.709  0.5922 -0.7937 -1.1678
13685SOL    HW251370   0.641   1.013   6.641 -1.7543  0.0658  0.0909
13686SOL     OW51371   0.179   2.107  10.660 -0.6008  0.6913  0.3420
13686SOL    HW151372   0.111   2.129  10.724  0.8304 -1.0968  2.6435
13686SOL    HW251373   0.261   2.132  10.703  0.5073 -1.8133 -0.1381
13687SOL     OW51374   3.920  12.841   6.670 -0.1077 -0.4826 -0.3374
13687SOL    HW151375   3.996  12.842   6.611 -0.2937  0.3865 -0.5737
13687SOL    HW251376   3.948  12.893   6.745 -1.1935  1.7562 -1.3907
13688SOL     OW51377   6.490   9.739   9.297  0.5952 -0.3007  0.2971
13688SOL    HW151378   6.436   9.763   9.372  1.3085  2.3764  0.0450
13688SOL    HW251379   6.576   9.774   9.316  0.9627 -0.1048 -1.4863
13689SOL     OW51380   8.143   8.717   3.622  0.9246 -0.0451 -0.3889
13689SOL    HW151381   8.208   8.778   3.656 -0.5613  0.9992  0.6984
13689SOL    HW251382   8.064   8.770   3.608 -0.5932 -1.7146  1.0995
13690SOL     OW51383  11.874   1.776   8.574 -0.6701 -0.0967  0.2466
13690SOL    HW151384  11.858   1.763   8.481 -0.6836  0.9475  0.0915
13690SOL    HW251385  11.900   1.690   8.606  1.2402 -0.0697 -1.0995
13691SOL     OW51386   2.692   4.302   1.381 -0.1227 -0.0548  0.2718
13691SOL    HW151387   2.734   4.344   1.306  0.2944  0.8658  0.9922
13691SOL    HW251388   2.634   4.371   1.416  2.0063  0.6667  2.6451
13692SOL     OW51389   9.746   3.920   9.825 -0.3283  0.5155 -0.1454
13692SOL    HW151390   9.777   4.011   9.824  1.4074 -0.0064  0.9408
13692SOL    HW251391   9.733   3.901   9.918  0.1234 -0.5727 -0.2913
13693SOL     OW51392   1.056   2.907  11.488 -0.3051 -0.2338  0.0616
13693SOL    HW151393   1.072   2.979  11.427  1.0345  0.1609  0.8155
13693SOL    HW251394   0.975   2.930  11.532  0.1346  0.8700  0.3329
13694SOL     OW51395   2.456   2.256   0.748  0.5499 -0.4881  0.7498
13694SOL    HW151396   2.393   2.261   0.820 -0.3578 -0.7587  0.0018
13694SOL    HW251397   2.413   2.302   0.676  1.3565 -0.3893  0.3289
13695SOL     OW51398   8.990   7.953   5.209  0.8477  0.4242  0.1017
13695SOL    HW151399   8.957   8.034   5.248  1.1732  0.9342 -0.6559
13695SOL    HW251400   9.075   7.977   5.172  1.3577 -0.4919  0.6553
13696SOL     OW51401   3.271   3.232  11.244  0.4981  0.1382 -0.1961
13696SOL    HW151402   3.273   3.291  11.169 -0.7492  1.2763  0.6233
13696SOL    HW251403   3.192   3.180  11.232 -0.4010  1.1957  0.9291
13697SOL     OW51404   6.226   3.682   5.457 -0.3685 -0.1034  0.4631
13697SOL    HW151405   6.274   3.740   5.398  0.3300  0.2133  1.3163
13697SOL    HW251406   6.177   3.742   5.514  0.5325 -0.3203  1.4948
13698SOL     OW51407  10.913   6.266   0.869 -0.3666  0.2326 -0.2866
13698SOL    HW151408  10.891   6.233   0.956 -1.0162 -0.2261 -0.6193
13698SOL    HW251409  10.920   6.188   0.814 -2.5248  0.6138 -1.2242
13699SOL     OW51410  12.173   6.825   7.233 -0.3988 -0.1494  0.3690
13699SOL    HW151411  12.194   6.734   7.214  0.3328 -0.0337  0.5772
13699SOL    HW251412  12.165   6.828   7.328  1.8412  0.4249  0.6039
13700SOL     OW51413  10.513   7.830   9.026 -0.0089  0.4149  0.0865
13700SOL    HW151414  10.541   7.911   8.983  0.2631  1.3328  1.9238
13700SOL    HW251415  10.595   7.783   9.043 -0.0100  0.6537  0.7514
13701SOL     OW51416   0.020   7.692   0.293  0.0720 -0.0408  0.2418
13701SOL    HW151417  -0.015   7.628   0.355 -1.6417  0.7003  0.1213
13701SOL    HW251418   0.002   7.654   0.207  0.5273 -0.1277  0.1869
13702SOL     OW51419  10.721   0.679   0.313  0.6027 -0.4239 -0.2845
13702SOL    HW151420  10.793   0.684   0.250  0.7560 -1.4434 -0.2150
13702SOL    HW251421  10.672   0.601   0.286 -0.3707  0.1571 -0.2131
13703SOL     OW51422   9.398   2.860   4.634  0.4554  0.1392  0.0749
13703SOL    HW151423   9.367   2.930   4.692  0.9938 -0.1931  0.7613
13703SOL    HW251424   9.429   2.907   4.556 -2.5038  0.4670 -1.0433
13704SOL     OW51425   9.526  12.847   5.052  0.2807  0.0946 -0.3131
13704SOL    HW151426   9.444  12.799   5.067 -0.1632  0.3475 -1.8486
13704SOL    HW251427   9.566  12.851   5.139 -1.3879  0.0868  0.5082
13705SOL     OW51428   1.937  10.819   2.919  0.2860  0.4530 -0.2505
13705SOL    HW151429   1.932  10.911   2.946  1.6064  0.7311 -0.8639
13705SOL    HW251430   1.851  10.800   2.882 -0.2796  1.1876  0.6517
13706SOL     OW51431   7.572   8.986   1.877  0.3680  0.2407 -0.5241
13706SOL    HW151432   7.607   8.905   1.839 -0.6968 -1.5644  2.0426
13706SOL    HW251433   7.477   8.978   1.866  0.2889  1.6728 -1.1108
13707SOL     OW51434   6.331   8.230   3.420  0.0220  0.2372  0.0874
13707SOL    HW151435   6.260   8.166   3.413 -0.0179  0.2326  0.5137
13707SOL    HW251436   6.287   8.313   3.437  0.0792  0.3624 -0.3668
13708SOL     OW51437   7.227   9.189   0.839 -0.0842  0.5629 -0.1860
13708SOL    HW151438   7.228   9.094   0.828  0.5750  0.3957  1.1505
13708SOL    HW251439   7.137   9.214   0.819 -1.1609 -0.7701  2.4591
13709SOL     OW51440   9.780   0.467  11.198 -0.0215 -0.2731  0.0187
13709SOL    HW151441   9.790   0.395  11.136 -0.6368  1.1607 -1.8225
13709SOL    HW251442   9.854   0.526  11.179 -0.6874  0.5932  0.0476
13710SOL     OW51443   3.628  11.228   3.977 -0.1960  0.2812 -0.0737
13710SOL    HW151444   3.598  11.291   4.042 -1.1905 -0.4007  0.1588
13710SOL    HW251445   3.547  11.197   3.934  0.4040  0.4307 -1.3656
13711SOL     OW51446   8.619   2.695   8.958  0.2887 -0.0173  0.0679
13711SOL    HW151447   8.575   2.610   8.954 -0.8627  0.5134  0.9865
13711SOL    HW251448   8.555   2.756   8.921  0.6912  0.6073  0.4077
13712SOL     OW51449  10.605   7.535   5.622 -0.0809  0.0766 -0.1679
13712SOL    HW151450  10.619   7.456   5.571 -2.9548 -0.2345 -0.6477
13712SOL    HW251451  10.607   7.506   5.713 -0.4949 -0.4618 -0.3260
13713SOL     OW51452   3.289   1.621   3.544  0.1189 -1.0781 -0.3073
13713SOL    HW151453   3.342   1.697   3.565  0.1716 -1.0588 -0.5179
13713SOL    HW251454   3.315   1.596   3.456 -0.2404 -1.0535 -0.4204
13714SOL     OW51455  10.838   8.345   1.070 -0.5552  0.0229  0.0128
13714SOL    HW151456  10.827   8.253   1.047  0.0199 -0.0622  0.0668
13714SOL    HW251457  10.806   8.392   0.993 -0.7344 -0.2238 -0.0645
13715SOL     OW51458   6.280   8.667   2.430  0.4996  0.4819 -0.4401
13715SOL    HW151459   6.221   8.594   2.414  0.5705 -0.0291  1.3801
13715SOL    HW251460   6.308   8.696   2.343 -0.6652 -0.7049 -1.2393
13716SOL     OW51461   6.056   1.222   6.655 -0.6351  0.2366 -0.1738
13716SOL    HW151462   5.974   1.177   6.672 -1.0513  1.1454  0.2926
13716SOL    HW251463   6.062   1.288   6.724  0.8167 -0.2580  0.1968
13717SOL     OW51464   3.534   5.336   1.351  0.0447 -0.1750  0.1716
13717SOL    HW151465   3.451   5.289   1.351 -0.5949  0.9205 -0.1110
13717SOL    HW251466   3.589   5.288   1.288 -0.6090 -0.5065 -0.1494
13718SOL     OW51467  10.292  10.790  12.504 -0.3836  0.0963 -0.0388
13718SOL    HW151468  10.277  10.769  12.412  1.9400  1.2446 -0.7749
13718SOL    HW251469  10.365  10.732  12.530 -0.3013  0.5386  0.7457
13719SOL     OW51470  12.184   3.370  12.553 -0.3646  0.3765 -0.0179
13719SOL    HW151471  12.232   3.365  12.637  0.1762  1.7834 -0.2199
13719SOL    HW251472  12.248   3.342  12.488  0.0985  1.8532 -0.2396
13720SOL     OW51473  11.992   4.469   6.362 -0.2419 -0.0638 -0.2782
13720SOL    HW151474  11.930   4.487   6.291  1.1355  1.6893 -1.1249
13720SOL    HW251475  12.019   4.378   6.348 -2.1196 -0.6564 -0.2530
13721SOL     OW51476   5.542   7.841   7.949  0.0677 -0.1385 -0.2760
13721SOL    HW151477   5.625   7.843   7.900  0.7883 -1.9158  0.7474
13721SOL    HW251478   5.569   7.840   8.041 -1.0869 -0.7051  0.0685
13722SOL     OW51479   5.349   9.711   2.360  0.4697 -0.2040 -0.3080
13722SOL    HW151480   5.304   9.783   2.317 -0.0789 -0.3847 -0.0375
13722SOL    HW251481   5.282   9.644   2.372  0.7804 -0.4327  0.1959
13723SOL     OW51482  12.726   7.292   3.057 -0.0631  0.0126 -0.3173
13723SOL    HW151483  12.700   7.376   3.019  0.5912  0.1744 -0.4081
13723SOL    HW251484  12.644   7.243   3.063 -0.6598  1.0881  0.8498
13724SOL     OW51485  10.013   1.498   1.215  0.2142  0.2646  0.2394
13724SOL    HW151486   9.921   1.474   1.227  0.1238 -1.8345 -3.2514
13724SOL    HW251487  10.057   1.464   1.293 -1.7391  0.0372  1.3116
13725SOL     OW51488   2.398   2.821   3.731 -0.2479 -0.8493 -0.0077
13725SOL    HW151489   2.467   2.782   3.676 -0.2110  0.1905 -0.7293
13725SOL    HW251490   2.320   2.819   3.676 -0.0664  0.7817 -0.3615
13726SOL     OW51491  10.921   8.264  10.243 -0.6857 -0.0616 -0.0999
13726SOL    HW151492  10.882   8.251  10.330 -0.6004 -0.4738 -0.1245
13726SOL    HW251493  11.015   8.275  10.260 -0.5757 -0.8317 -0.2034
13727SOL     OW51494  10.619  11.376  12.242  0.5943  1.0329 -0.2751
13727SOL    HW151495  10.653  11.464  12.222  0.1148  0.8460 -2.0392
13727SOL    HW251496  10.546  11.364  12.181  0.6081 -0.5669 -0.0073
13728SOL     OW51497  11.602   8.345   6.690 -0.8674 -0.0554 -0.5004
13728SOL    HW151498  11.570   8.356   6.601 -0.0313 -0.3645 -0.8450
13728SOL    HW251499  11.697   8.354   6.684 -0.9221  1.8612  0.6648
13729SOL     OW51500   8.029   7.099   0.913  0.0052 -0.2834 -0.3580
13729SOL    HW151501   7.964   7.137   0.853  1.2402  1.5562 -0.6074
13729SOL    HW251502   8.103   7.077   0.857 -0.5393 -2.9470 -0.1706
13730SOL     OW51503   4.929  10.260   3.270 -0.1026 -0.1408 -0.3397
13730SOL    HW151504   4.943  10.246   3.176 -0.4532 -1.8242 -0.1615
13730SOL    HW251505   4.851  10.210   3.290 -1.4294  2.0997  0.4267
13731SOL     OW51506  10.357  12.093  11.932  0.0921 -0.1715 -0.8429
13731SOL    HW151507  10.391  12.138  12.010  0.7727  0.9116 -1.7305
13731SOL    HW251508  10.264  12.116  11.929  0.0192 -0.3868 -0.2348
13732SOL     OW51509   2.794  11.033   9.465 -0.1097 -0.4740  0.1497
13732SOL    HW151510   2.764  10.975   9.535 -1.0552 -3.2953 -2.3739
13732SOL    HW251511   2.713  11.072   9.430  0.2860  0.4136  0.2022
13733SOL     OW51512   6.908   1.941   4.174 -0.8442 -0.1248 -0.1935
13733SOL    HW151513   6.970   2.014   4.165 -1.3794  0.7909  2.4874
13733SOL    HW251514   6.922   1.910   4.264 -1.9816 -2.0890 -0.6469
13734SOL     OW51515   0.230   1.256  11.431  0.5352 -0.8677  0.1635
13734SOL    HW151516   0.150   1.263  11.379 -0.2133 -1.9305  1.1176
13734SOL    HW251517   0.240   1.342  11.472  0.3495 -0.4701 -0.6021
13735SOL     OW51518  11.791   8.639   9.076  0.0176  0.0057 -0.1968
13735SOL    HW151519  11.789   8.623   9.170  1.7280  1.7793  0.2291
13735SOL    HW251520  11.719   8.700   9.060 -0.1858 -0.1869 -0.0211
13736SOL     OW51521   9.538  10.553   0.497  0.2659  0.2943 -0.3122
13736SOL    HW151522   9.498  10.480   0.450  1.2492  0.8518 -2.0823
13736SOL    HW251523   9.465  10.613   0.514 -0.1185  0.0691 -1.1138
13737SOL     OW51524   3.589   5.641  10.578  0.4067 -1.0554  0.1497
13737SOL    HW151525   3.589   5.730  10.543  1.1675 -0.5416  1.3705
13737SOL    HW251526   3.664   5.639  10.638 -0.1598 -2.2229  0.8630
13738SOL     OW51527   3.412   5.564   2.140 -0.4487 -0.1322 -0.2283
13738SOL    HW151528   3.421   5.484   2.088  2.6411  1.3243 -2.2239
13738SOL    HW251529   3.387   5.631   2.077 -0.5405  0.9679  0.9315
13739SOL     OW51530   1.119  10.599   9.833 -0.2938 -0.5808  0.4234
13739SOL    HW151531   1.141  10.506   9.843 -0.8698 -0.9172 -1.1723
13739SOL    HW251532   1.152  10.622   9.746 -1.5027  0.3006  0.1706
13740SOL     OW51533  12.149   7.665   5.587 -0.0778  0.1549 -0.6396
13740SOL    HW151534  12.215   7.651   5.519  1.0340 -0.1166  0.4551
13740SOL    HW251535  12.099   7.583   5.589 -0.4647  0.3618 -1.4770
13741SOL     OW51536   2.172   8.451   2.273 -0.0818  0.2902  0.1566
13741SOL    HW151537   2.221   8.396   2.213 -0.7052 -0.1338  0.0317
13741SOL    HW251538   2.155   8.395   2.349 -2.8600 -0.5702 -0.9691
13742SOL     OW51539   8.925   8.117   7.431 -0.6163  0.0363 -0.4335
13742SOL    HW151540   8.963   8.029   7.428 -1.0229 -0.1307 -1.8801
13742SOL    HW251541   8.835   8.103   7.459 -0.4454  0.1043  0.1700
13743SOL     OW51542   4.817   7.281   0.079  0.0309  0.2980  0.4385
13743SOL    HW151543   4.741   7.228   0.105 -0.5199  0.8072 -0.0856
13743SOL    HW251544   4.785   7.371   0.079  0.6283  0.5166  0.1752
13744SOL     OW51545   7.503   6.513   4.210 -0.1905  0.1500  0.2417
13744SOL    HW151546   7.518   6.511   4.116 -1.2411  1.2723  0.0184
13744SOL    HW251547   7.454   6.594   4.225 -2.2363 -1.1947  1.4122
13745SOL     OW51548   1.946  10.519  10.654 -0.7687  0.4241  0.4823
13745SOL    HW151549   1.857  10.509  10.622 -0.7032 -0.4336  0.5386
13745SOL    HW251550   1.941  10.590  10.719 -1.2608  0.8598 -0.0217
13746SOL     OW51551  10.424   0.235   7.593 -0.1698  0.2762  0.0643
13746SOL    HW151552  10.386   0.166   7.647 -0.2055  0.7294  0.6321
13746SOL    HW251553  10.429   0.198   7.505  0.4958 -0.7100  0.5114
13747SOL     OW51554   0.737  12.944   8.408  0.2081  0.3604 -0.4607
13747SOL    HW151555   0.669  13.007   8.430  0.5819  0.5189  0.2854
13747SOL    HW251556   0.732  12.935   8.313 -1.4442 -0.3199 -0.3468
13748SOL     OW51557   4.337   1.431   3.969  0.6356 -0.0123  0.1108
13748SOL    HW151558   4.337   1.367   3.898  1.8845  1.7019 -1.5409
13748SOL    HW251559   4.427   1.434   4.000  0.4378  0.4324  0.6759
13749SOL     OW51560   3.220   5.019   7.934 -0.1099  0.1299  0.0694
13749SOL    HW151561   3.137   4.993   7.894  0.1630  0.1067 -0.4811
13749SOL    HW251562   3.271   4.938   7.938  0.7817  0.5485 -1.7363
13750SOL     OW51563  10.876   8.944   9.841 -0.2108  0.3580 -0.1502
13750SOL    HW151564  10.855   9.017   9.783  1.7455  0.1969 -1.1265
13750SOL    HW251565  10.797   8.888   9.838 -1.4003  1.9676 -0.0278
13751SOL     OW51566   6.142   2.396  12.484 -0.2937  0.5972  0.2490
13751SOL    HW151567   6.178   2.484  12.495 -0.4190  0.6592  0.1645
13751SOL    HW251568   6.073   2.389  12.550  0.4064  0.1888  0.9619
13752SOL     OW51569   0.037   3.845   0.860 -0.0792 -0.1922 -0.1082
13752SOL    HW151570   0.004   3.804   0.940  0.1761  0.6416  0.4384
13752SOL    HW251571   0.003   3.790   0.789 -0.1274 -1.0750  0.5750
13753SOL     OW51572   1.556   7.195   5.427 -0.5154  0.1617  0.6291
13753SOL    HW151573   1.581   7.205   5.519  0.4170 -0.6643  0.4920
13753SOL    HW251574   1.639   7.186   5.381 -0.9912  0.0896 -0.2348
13754SOL     OW51575   9.545   5.434   2.425  1.0245 -0.1880  0.2054
13754SOL    HW151576   9.566   5.516   2.381  0.1361 -0.2495 -0.3414
13754SOL    HW251577   9.546   5.368   2.356 -1.2566 -0.1424  0.0698
13755SOL     OW51578  10.706   7.775  11.714  0.8049  0.1759 -0.1345
13755SOL    HW151579  10.616   7.783  11.682  1.4325  2.1336 -1.6234
13755SOL    HW251580  10.698   7.729  11.797 -1.6610  0.9097  0.1141
13756SOL     OW51581   0.721  11.096  12.685  0.7270 -0.0902  0.2968
13756SOL    HW151582   0.627  11.104  12.700  0.7544  0.8460  0.0189
13756SOL    HW251583   0.740  11.003  12.699  0.0863  0.0184  2.1269
13757SOL     OW51584  11.377   9.877  11.999  0.2588  0.1653 -0.1706
13757SOL    HW151585  11.382   9.806  11.934 -1.6013 -0.3309  0.1703
13757SOL    HW251586  11.314   9.845  12.063  1.4498  0.9988  1.4662
13758SOL     OW51587   7.714   1.979   0.536 -0.6414 -0.0122 -0.4648
13758SOL    HW151588   7.731   1.999   0.628 -0.6090  0.9472 -0.6727
13758SOL    HW251589   7.793   2.007   0.490 -0.0128 -1.8954 -0.6340
13759SOL     OW51590   8.623  12.067   5.204  0.2508 -0.4529 -0.0833
13759SOL    HW151591   8.555  12.035   5.263  0.4779  2.3795  1.9451
13759SOL    HW251592   8.580  12.074   5.119 -1.3494 -0.7931  0.6637
13760SOL     OW51593  10.594  10.503   4.125 -0.3277 -0.1610  0.2341
13760SOL    HW151594  10.651  10.524   4.199 -0.7029 -0.0786  0.4994
13760SOL    HW251595  10.642  10.435   4.077  1.2068  1.6909 -0.9943
13761SOL     OW51596  10.332  10.916   2.930  0.0449 -0.3456 -0.2378
13761SOL    HW151597  10.297  10.905   3.018 -0.5759  0.1145 -0.4229
13761SOL    HW251598  10.392  10.842   2.919  0.3320 -0.2583  0.6641
13762SOL     OW51599  12.579   3.214   1.577  0.0390 -0.0498 -0.0506
13762SOL    HW151600  12.487   3.198   1.558  0.2862  0.0662 -1.4694
13762SOL    HW251601  12.585   3.213   1.672 -1.2148 -1.2535  0.0484
13763SOL     OW51602   2.433   6.089   4.098  0.6158  0.0529 -0.1931
13763SOL    HW151603   2.400   6.175   4.123  2.2510  1.1379 -1.5335
13763SOL    HW251604   2.355   6.036   4.083 -0.4531  1.6584 -0.4983
13764SOL     OW51605   6.597  10.234   4.265 -0.0782 -0.0968  0.4574
13764SOL    HW151606   6.572  10.148   4.232  0.5501  0.3469 -1.2923
13764SOL    HW251607   6.663  10.215   4.333  1.9169 -1.0081 -1.5909
13765SOL     OW51608   2.535  12.282  12.176  0.0545 -0.2495  0.1525
13765SOL    HW151609   2.580  12.352  12.223  0.5820 -1.2158  1.1652
13765SOL    HW251610   2.445  12.311  12.168  0.0337  0.0966  1.4797
13766SOL     OW51611  10.258  11.243   5.653  0.0802  0.0179 -0.1345
13766SOL    HW151612  10.307  11.164   5.676 -0.1011  0.2361  1.0827
13766SOL    HW251613  10.325  11.305   5.624  0.5444  0.2305  1.2874
13767SOL     OW51614  10.252   8.869  10.080  0.2507  0.6346 -0.1284
13767SOL    HW151615  10.230   8.902  10.167  0.8626 -0.6641  0.5386
13767SOL    HW251616  10.343   8.894  10.067  0.0460  1.1729 -0.5758
13768SOL     OW51617   2.492   5.369  11.790  0.1021 -0.0595 -0.3604
13768SOL    HW151618   2.568   5.365  11.848 -0.8480  2.0014  1.2109
13768SOL    HW251619   2.492   5.459  11.757 -2.2315  0.4123  0.6708
13769SOL     OW51620   7.684   5.972   5.088  0.3698  0.2872  0.2201
13769SOL    HW151621   7.696   6.059   5.125  1.6879  0.2625 -0.1204
13769SOL    HW251622   7.632   5.987   5.009  1.0890  0.8541 -0.1587
13770SOL     OW51623  11.422   1.122   6.476  0.5020  0.2168  0.7021
13770SOL    HW151624  11.489   1.054   6.483  0.2990 -0.0463  0.1160
13770SOL    HW251625  11.425   1.149   6.384 -2.5244 -2.1941 -0.2552
13771SOL     OW51626  11.074   1.008   6.560 -0.4557 -0.0255 -0.2241
13771SOL    HW151627  11.077   1.085   6.504 -0.1818  0.3856  0.3423
13771SOL    HW251628  11.074   0.934   6.500  1.3987  0.3573 -0.7534
13772SOL     OW51629   3.115  11.339   8.591 -0.4291  0.1113 -0.2472
13772SOL    HW151630   3.068  11.260   8.564 -0.9035  0.0231  0.7695
13772SOL    HW251631   3.203  11.328   8.556 -0.7216 -0.4811 -0.8218
13773SOL     OW51632  12.014  12.908   5.363  0.0233 -0.2431 -0.1316
13773SOL    HW151633  11.948  12.853   5.404 -0.4851  0.0922 -0.4847
13773SOL    HW251634  11.980  12.926   5.275  0.7963 -0.4406 -0.4876
13774SOL     OW51635   4.365   0.478   0.596  0.2055  0.1366  0.2678
13774SOL    HW151636   4.279   0.458   0.634 -0.6054  2.5674 -0.1317
13774SOL    HW251637   4.418   0.506   0.671  0.2352 -0.0702  0.3251
13775SOL     OW51638   9.479   7.418   1.040 -0.0840  0.3670 -0.2384
13775SOL    HW151639   9.435   7.502   1.029 -1.5160 -0.1565  1.0922
13775SOL    HW251640   9.453   7.389   1.127  2.0853 -0.5010  0.1734
13776SOL     OW51641   4.339   1.863   7.239  0.5658  0.1968  0.0064
13776SOL    HW151642   4.281   1.890   7.311 -0.5445 -0.3206 -0.6686
13776SOL    HW251643   4.308   1.912   7.163  2.2255  1.3343 -0.0091
13777SOL     OW51644   7.281   6.057   7.927  0.0356 -0.3829 -0.3591
13777SOL    HW151645   7.345   6.029   7.993  0.7164 -1.9956 -1.6310
13777SOL    HW251646   7.330   6.055   7.844 -1.0332  0.7426 -1.0488
13778SOL     OW51647   0.770  10.979   0.215  0.0254  0.0887  0.1511
13778SOL    HW151648   0.702  10.939   0.269  0.7333 -1.9816 -0.3835
13778SOL    HW251649   0.830  11.020   0.278 -0.3208 -0.3744  0.7872
13779SOL     OW51650   2.649  11.520   9.246  0.5214  0.2206 -0.3147
13779SOL    HW151651   2.669  11.486   9.159 -1.3334 -0.1514 -0.6309
13779SOL    HW251652   2.578  11.582   9.232  1.7376  1.9381  0.6705
13780SOL     OW51653   1.448  10.267   8.006 -0.1056 -0.1908 -0.6920
13780SOL    HW151654   1.493  10.317   7.938 -0.4892 -0.8234 -1.4365
13780SOL    HW251655   1.431  10.182   7.965  2.8351 -1.9425  1.3549
13781SOL     OW51656   7.463   1.070   5.208 -0.1790 -0.5509 -0.2534
13781SOL    HW151657   7.555   1.098   5.208  0.1918 -1.7211 -0.4254
13781SOL    HW251658   7.463   0.987   5.256 -0.8944 -1.2955 -1.4971
13782SOL     OW51659  10.104   6.824   5.985  0.4377  0.1923 -0.4667
13782SOL    HW151660  10.107   6.917   5.966  1.5887  0.1718 -0.4318
13782SOL    HW251661  10.195   6.796   5.987  0.0882 -1.0965 -1.2294
13783SOL     OW51662   0.690  12.294  10.516  0.8390 -0.1954 -0.1866
13783SOL    HW151663   0.613  12.263  10.563  0.1565 -0.6997 -1.5748
13783SOL    HW251664   0.737  12.348  10.579 -0.9939  0.6908  0.4835
13784SOL     OW51665   9.384   0.715   9.986  0.2458  0.2660  0.6592
13784SOL    HW151666   9.321   0.736   9.917 -0.0578 -0.0417  0.8370
13784SOL    HW251667   9.355   0.766  10.062 -1.2383 -1.6461  1.4793
13785SOL     OW51668   7.210  12.697  11.382  0.0172 -0.0450 -0.2311
13785SOL    HW151669   7.276  12.725  11.446 -0.2910  0.0782  0.0330
13785SOL    HW251670   7.166  12.778  11.357 -1.1273 -0.3232  0.8056
13786SOL     OW51671   2.079  11.211   2.463  0.0619  0.1962 -0.1117
13786SOL    HW151672   2.157  11.168   2.428  1.9005  1.7578  1.7573
13786SOL    HW251673   2.073  11.179   2.553  1.2671  3.2445  1.2284
13787SOL     OW51674  11.787   5.204   9.749  0.0557 -0.3705  0.8524
13787SOL    HW151675  11.701   5.162   9.747 -0.3253  0.2077 -3.3954
13787SOL    HW251676  11.815   5.196   9.840 -3.5584 -2.3970  1.9917
13788SOL     OW51677   9.462   8.842   5.389  0.0604  0.5337  0.1837
13788SOL    HW151678   9.503   8.865   5.472 -0.8526  1.6437  0.3493
13788SOL    HW251679   9.514   8.887   5.322  0.7191 -0.2588  0.1470
13789SOL     OW51680   9.720   9.635   8.452 -0.2355  0.1297 -0.4805
13789SOL    HW151681   9.796   9.625   8.509  0.4230  1.2484 -1.1251
13789SOL    HW251682   9.645   9.619   8.509  0.4531 -2.3472 -0.1111
13790SOL     OW51683   4.343   9.649   1.243 -0.1135  0.0627  0.3101
13790SOL    HW151684   4.259   9.606   1.229 -0.2221  0.8166 -1.7529
13790SOL    HW251685   4.387   9.643   1.158  1.0001  1.5840  0.7294
13791SOL     OW51686   3.936   6.304   6.257 -0.1818  0.6087 -0.5947
13791SOL    HW151687   3.942   6.237   6.325  1.8893  0.9022 -0.4110
13791SOL    HW251688   3.848   6.340   6.266 -0.2853 -0.0065  1.3187
13792SOL     OW51689  11.838   3.918   2.127 -0.1729 -0.1364 -0.1861
13792SOL    HW151690  11.815   3.890   2.216  0.9389 -3.7136 -0.8667
13792SOL    HW251691  11.755   3.951   2.091 -0.9454  0.1580  1.7365
13793SOL     OW51692   6.105   3.108   1.193 -0.4586  0.1790  0.3398
13793SOL    HW151693   6.168   3.123   1.123  0.0983 -0.1062  0.7797
13793SOL    HW251694   6.050   3.186   1.192  1.3143  1.5102  1.4459
13794SOL     OW51695   1.988  12.486   1.703 -0.4213 -0.3119 -0.0110
13794SOL    HW151696   2.082  12.489   1.689 -0.3955 -1.0399 -0.0294
13794SOL    HW251697   1.954  12.561   1.654  0.2099  0.3427  0.5419
13795SOL     OW51698   0.473   8.275   1.879 -0.4950  0.1503 -0.7675
13795SOL    HW151699   0.396   8.223   1.857  1.2515 -1.9109 -2.5970
13795SOL    HW251700   0.473   8.278   1.975 -1.3737 -2.2706 -0.6019
13796SOL     OW51701   7.308   9.883   4.496  0.0420 -0.0572 -0.3716
13796SOL    HW151702   7.307   9.816   4.427  0.5342  0.9853 -1.4301
13796SOL    HW251703   7.272   9.961   4.454  0.9166  0.7735  0.3722
13797SOL     OW51704   5.508   5.873   8.137  0.5377  0.3560  0.0945
13797SOL    HW151705   5.489   5.837   8.224 -1.0035  1.0016  0.0640
13797SOL    HW251706   5.491   5.967   8.146 -0.5358  0.3009 -1.1250
13798SOL     OW51707   0.861   6.004  12.401 -0.1162 -0.0147  1.1446
13798SOL    HW151708   0.806   5.933  12.369 -0.1811 -0.0796  1.4018
13798SOL    HW251709   0.884   5.979  12.490  1.0337 -0.4069  0.7628
13799SOL     OW51710   1.927   3.201   0.858  0.7403 -0.0087 -0.1022
13799SOL    HW151711   1.858   3.190   0.924  0.5760 -0.8594 -0.4099
13799SOL    HW251712   1.906   3.138   0.790  1.1581  0.5576 -0.7717
13800SOL     OW51713   3.813   0.366  10.751  0.1042 -0.2498  0.4004
13800SOL    HW151714   3.815   0.278  10.714  1.4503 -0.8350  1.7332
13800SOL    HW251715   3.796   0.352  10.844 -1.7298  1.0618  0.3154
13801SOL     OW51716   1.702   1.013   9.585  0.3558  0.2437  0.4315
13801SOL    HW151717   1.758   1.089   9.570 -0.0151  0.9710  2.4034
13801SOL    HW251718   1.762   0.938   9.582  1.3616  0.9491  1.9394
13802SOL     OW51719  11.008   8.521   6.336  0.4673 -0.2978 -0.3616
13802SOL    HW151720  10.970   8.535   6.423  0.5200  0.5497 -0.4652
13802SOL    HW251721  11.091   8.569   6.338  0.4555 -0.2511 -0.8951
13803SOL     OW51722   2.867   5.800   0.735  0.2195  0.0057 -0.1799
13803SOL    HW151723   2.796   5.746   0.701 -0.9638  2.6975 -2.3306
13803SOL    HW251724   2.843   5.817   0.826 -0.2922 -1.5453  0.0076
13804SOL     OW51725   0.997   2.648   9.849  0.4326 -0.6123  0.2821
13804SOL    HW151726   1.019   2.561   9.816 -2.5101 -0.5265 -2.2546
13804SOL    HW251727   1.048   2.708   9.794 -0.5636 -0.6577 -0.7306
13805SOL     OW51728   1.357   3.637   9.674 -0.5178  0.4434 -0.0023
13805SOL    HW151729   1.367   3.603   9.763  0.0986  2.3759  0.7137
13805SOL    HW251730   1.445   3.632   9.637 -0.4047  1.3212  0.1427
13806SOL     OW51731   7.771  10.169   3.352  0.2493  0.4608 -0.3916
13806SOL    HW151732   7.851  10.210   3.383  0.7853 -0.5791 -0.3532
13806SOL    HW251733   7.761  10.091   3.407  1.1696 -1.3810 -2.6869
13807SOL     OW51734   6.951  11.660   3.528  0.2417 -0.0886 -0.4376
13807SOL    HW151735   6.981  11.750   3.543  0.9483 -0.5519  1.1444
13807SOL    HW251736   6.883  11.646   3.593  1.1180 -1.1335  0.2973
13808SOL     OW51737   6.491   8.346   2.179 -0.2240 -0.1227  0.4691
13808SOL    HW151738   6.493   8.291   2.257 -1.1434 -0.1546  0.4758
13808SOL    HW251739   6.522   8.288   2.109  1.6140  0.2013  0.9595
13809SOL     OW51740   7.455  12.153   6.963  0.0279  0.4771  0.8878
13809SOL    HW151741   7.529  12.104   6.926 -1.3861 -2.5549  1.7624
13809SOL    HW251742   7.395  12.166   6.890  0.1884  0.4917  0.7577
13810SOL     OW51743   5.849   3.242   3.375  0.3845 -0.0933  0.5858
13810SOL    HW151744   5.859   3.203   3.287  1.6261 -1.8511  1.4511
13810SOL    HW251745   5.892   3.327   3.369  1.1491 -0.5290 -0.3051
13811SOL     OW51746  11.758   8.083   7.388  0.0394  0.0670 -0.1373
13811SOL    HW151747  11.716   8.007   7.347 -1.5924  1.8833 -2.0179
13811SOL    HW251748  11.834   8.101   7.333  0.1271  0.1280  0.0038
13812SOL     OW51749   5.713  12.975   2.516 -0.5723 -0.6284  0.3445
13812SOL    HW151750   5.797  12.930   2.521 -0.7892 -1.4400 -1.9770
13812SOL    HW251751   5.712  13.013   2.428 -1.0854  2.6512  1.6196
13813SOL     OW51752   6.279   5.447   3.990  0.3851  0.2300 -0.2428
13813SOL    HW151753   6.339   5.441   3.915 -0.3829  2.9519 -1.1864
13813SOL    HW251754   6.191   5.444   3.951 -0.1036 -0.8785  0.8549
13814SOL     OW51755   2.552   4.930   3.132  0.0941  0.0627  0.1869
13814SOL    HW151756   2.566   4.878   3.052 -0.8676 -0.3898  0.2966
13814SOL    HW251757   2.580   5.018   3.108 -1.2261  0.1917 -1.0364
13815SOL     OW51758   3.842   8.861   3.378  0.1243  0.0855 -0.2208
13815SOL    HW151759   3.909   8.928   3.392  0.0770  0.0670  0.0990
13815SOL    HW251760   3.818   8.832   3.466  0.1551 -0.3665 -0.3597
13816SOL     OW51761  10.236   9.799   9.533  0.3874  0.1835  0.2206
13816SOL    HW151762  10.254   9.766   9.445 -0.0712 -2.7637  1.1348
13816SOL    HW251763  10.322   9.815   9.571  0.7246 -1.5765  0.2669
13817SOL     OW51764   8.042   0.754  11.024 -0.2294 -0.5233 -0.0032
13817SOL    HW151765   8.060   0.664  11.050  0.1326 -0.5451 -0.3356
13817SOL    HW251766   7.962   0.748  10.971  0.7691 -0.8897 -1.5226
13818SOL     OW51767   7.693   7.632   6.646 -0.0753 -0.1596  0.1124
13818SOL    HW151768   7.783   7.606   6.626 -0.3259 -1.0283  0.0735
13818SOL    HW251769   7.661   7.565   6.705 -0.9048 -0.2091 -0.3726
13819SOL     OW51770   6.790   0.330   1.282  0.3057 -0.3620 -0.1349
13819SOL    HW151771   6.805   0.260   1.345  0.6517  0.6061  0.8999
13819SOL    HW251772   6.868   0.331   1.227  1.1406  0.3927  1.0311
13820SOL     OW51773   5.624  12.769   5.728 -0.2016 -0.7219  0.0679
13820SOL    HW151774   5.615  12.802   5.817 -0.2485 -1.0506  0.1853
13820SOL    HW251775   5.547  12.803   5.681 -0.5129 -1.0829  0.3158
13821SOL     OW51776  11.431   0.486   8.249 -0.2404 -0.0745  0.6920
13821SOL    HW151777  11.375   0.432   8.305  0.8528 -2.5254 -0.4136
13821SOL    HW251778  11.455   0.428   8.177  0.3006  2.2326 -1.0939
13822SOL     OW51779   7.982   8.153  12.175 -0.4452 -0.0553 -0.1676
13822SOL    HW151780   7.949   8.242  12.164 -0.0502  0.0648 -0.4078
13822SOL    HW251781   8.073   8.164  12.203 -1.3087 -0.3445  3.1074
13823SOL     OW51782   4.043   2.466   9.921  0.3831 -0.5976  0.4211
13823SOL    HW151783   4.011   2.459   9.831  0.8505  0.3996  0.1541
13823SOL    HW251784   3.964   2.477   9.974  0.1679  0.4015 -0.0679
13824SOL     OW51785  12.741  11.219  11.453 -0.2771  0.0324 -0.1961
13824SOL    HW151786  12.776  11.206  11.541  0.0819 -2.0717 -0.6062
13824SOL    HW251787  12.648  11.198  11.460 -0.2019 -0.3631 -0.3582
13825SOL     OW51788  11.303   6.525   5.320  0.0335 -0.1250  0.1395
13825SOL    HW151789  11.387   6.484   5.297 -0.2585  0.3129 -1.8649
13825SOL    HW251790  11.246   6.508   5.245 -1.2959  0.6515  0.9300
13826SOL     OW51791   3.103   0.228   3.666  0.4270 -0.0121  0.2265
13826SOL    HW151792   3.148   0.189   3.740 -0.3152 -0.8120  0.2638
13826SOL    HW251793   3.164   0.217   3.593  0.2141 -1.3410  0.2161
13827SOL     OW51794   3.415   0.803   7.795 -0.3898  0.6479 -0.6117
13827SOL    HW151795   3.439   0.874   7.854  0.9587  1.2571 -1.8159
13827SOL    HW251796   3.358   0.746   7.847  0.5777  1.2531  1.1924
13828SOL     OW51797  12.312  11.769   9.557 -0.1826 -0.6460 -0.2885
13828SOL    HW151798  12.325  11.682   9.518 -3.0644 -2.4475  2.3234
13828SOL    HW251799  12.353  11.763   9.643  0.5629  1.0328 -0.4954
13829SOL     OW51800   0.011   6.536   1.693 -0.7153  0.4361 -0.2747
13829SOL    HW151801   0.035   6.589   1.769 -1.6374 -1.9643  1.8486
13829SOL    HW251802  -0.084   6.549   1.683 -1.1537 -1.4063  0.9038
13830SOL     OW51803  11.733  11.430   9.745 -0.9296  0.0772 -0.1005
13830SOL    HW151804  11.764  11.415   9.834  0.6135  1.0488 -0.4426
13830SOL    HW251805  11.796  11.386   9.689 -0.7758  1.1095 -0.7780
13831SOL     OW51806   4.799  11.473   9.436 -0.3371  0.0448 -0.1570
13831SOL    HW151807   4.893  11.482   9.422 -0.6256  0.4748 -2.0741
13831SOL    HW251808   4.766  11.563   9.440 -0.6659 -0.1004  0.6339
13832SOL     OW51809   6.135   8.861   4.529  0.1170  0.5121  0.1185
13832SOL    HW151810   6.074   8.844   4.457  0.6126  0.1096 -0.2127
13832SOL    HW251811   6.209   8.906   4.488  0.7315 -0.3695  0.2410
13833SOL     OW51812   4.384   7.935  11.406  0.2704 -0.0141  0.3271
13833SOL    HW151813   4.400   7.961  11.315  1.2793 -1.0931  0.1715
13833SOL    HW251814   4.302   7.978  11.429  0.4831  1.0572 -0.7786
13834SOL     OW51815   8.811   2.526  11.254  0.6871 -0.4334 -0.1305
13834SOL    HW151816   8.781   2.556  11.340  0.4175 -0.7602 -0.1059
13834SOL    HW251817   8.782   2.594  11.193  0.2528 -0.5456 -0.0512
13835SOL     OW51818   2.784   7.650   9.253  0.3586  0.3805 -0.0779
13835SOL    HW151819   2.854   7.606   9.301  0.6175 -2.9725 -3.0693
13835SOL    HW251820   2.829   7.694   9.181 -0.3856  0.4254 -0.5252
13836SOL     OW51821   2.803   1.531  11.500  0.3160 -0.0771  0.2715
13836SOL    HW151822   2.855   1.520  11.420  1.2280 -2.0042  1.0625
13836SOL    HW251823   2.859   1.498  11.570 -1.6536 -1.5019  1.2817
13837SOL     OW51824   8.473   0.214   9.479  0.3798 -0.4159 -0.8974
13837SOL    HW151825   8.476   0.288   9.418  0.5804  0.3817  0.0697
13837SOL    HW251826   8.390   0.223   9.524  0.1238 -1.1459 -1.2018
13838SOL     OW51827   5.188   1.665   6.069 -0.1838 -0.3512 -0.2049
13838SOL    HW151828   5.145   1.602   6.011  1.0155  0.4757 -2.0705
13838SOL    HW251829   5.280   1.638   6.071 -0.2127 -0.4160  1.4239
13839SOL     OW51830  10.407   9.659  10.343  0.4353 -0.2827  0.6722
13839SOL    HW151831  10.455   9.698  10.270  0.0398 -0.4927  0.2874
13839SOL    HW251832  10.321   9.702  10.340  0.9544  0.9187  2.0523
13840SOL     OW51833   5.724   8.221  11.519  0.5728  0.0633  0.2687
13840SOL    HW151834   5.692   8.237  11.431 -0.5081  4.6285  1.2425
13840SOL    HW251835   5.661   8.160  11.558 -1.9563  1.9858 -0.6090
13841SOL     OW51836   6.831  12.521   7.707  0.3984  0.1448  0.2372
13841SOL    HW151837   6.907  12.524   7.765 -0.9140 -0.6228  2.0933
13841SOL    HW251838   6.802  12.430   7.710 -1.3991  0.6810  0.7256
13842SOL     OW51839  10.880   7.257   8.920  0.1351 -0.1567  0.8114
13842SOL    HW151840  10.845   7.192   8.860  0.7400  1.7086 -1.7437
13842SOL    HW251841  10.802   7.300   8.956 -0.2841  0.3819 -0.6619
13843SOL     OW51842   9.639   0.826   1.927  0.6361 -0.0935 -0.3830
13843SOL    HW151843   9.667   0.861   1.842  1.6094 -0.5475 -0.2550
13843SOL    HW251844   9.622   0.733   1.911 -1.0157  0.1853 -0.4956
13844SOL     OW51845   3.919  10.852   5.911 -0.3095 -0.0060  0.1992
13844SOL    HW151846   3.943  10.944   5.920 -0.5913 -0.0466  1.4282
13844SOL    HW251847   4.002  10.805   5.923 -0.0015  0.0953 -1.2760
13845SOL     OW51848   2.823   8.716   6.371 -0.5603 -0.2625  0.3860
13845SOL    HW151849   2.755   8.650   6.356 -2.7460  2.0573 -0.5916
13845SOL    HW251850   2.807   8.747   6.460 -1.3148  0.7841 -0.0902
13846SOL     OW51851   7.564  11.421   8.492  0.1528 -0.5694  0.4847
13846SOL    HW151852   7.588  11.329   8.477 -0.1379 -0.2279 -2.6224
13846SOL    HW251853   7.608  11.469   8.423 -1.4299  1.3715  0.7516
13847SOL     OW51854   6.884   8.154   8.282  0.3348  0.5926 -0.0349
13847SOL    HW151855   6.954   8.125   8.223 -0.0968  1.7358 -1.1481
13847SOL    HW251856   6.930   8.175   8.364  1.1372  0.2865 -0.3909
13848SOL     OW51857   4.594   0.683  11.493  0.2155  0.0463  0.1325
13848SOL    HW151858   4.502   0.671  11.515 -0.5603  1.0971 -2.2725
13848SOL    HW251859   4.622   0.598  11.458 -1.0740  0.7643 -2.9501
13849SOL     OW51860   2.264  11.909   9.277 -0.6278 -0.7162 -0.2393
13849SOL    HW151861   2.206  11.899   9.201 -1.7219  0.0221  0.4606
13849SOL    HW251862   2.296  11.999   9.270 -1.9286 -0.1190  0.9411
13850SOL     OW51863   1.203  11.656   5.031  0.5758 -0.2095 -0.0944
13850SOL    HW151864   1.215  11.699   5.116  1.7489  0.1741 -0.4307
13850SOL    HW251865   1.257  11.708   4.971 -0.2813 -0.4399 -1.0879
13851SOL     OW51866   2.107   5.132   5.871 -0.4024  0.0565  0.1531
13851SOL    HW151867   2.018   5.154   5.842 -0.2813 -0.5133 -0.6901
13851SOL    HW251868   2.095   5.062   5.934 -0.5105 -0.6747 -0.6595
13852SOL     OW51869   4.592   3.384   7.163  0.6364  0.4979  0.0336
13852SOL    HW151870   4.530   3.423   7.225 -0.7408  0.2225 -1.1235
13852SOL    HW251871   4.596   3.447   7.090  1.0709  0.1087 -0.2838
13853SOL     OW51872  10.878   9.891   4.708 -0.2767  0.5746 -0.2489
13853SOL    HW151873  10.922   9.825   4.655  0.4048  1.0707 -0.3203
13853SOL    HW251874  10.891   9.973   4.660  0.2996  1.0208  0.6496
13854SOL     OW51875   9.357   3.453   5.442  0.7382 -0.4320  0.4877
13854SOL    HW151876   9.414   3.380   5.466  1.1277 -0.2051  0.2613
13854SOL    HW251877   9.403   3.497   5.371  0.2377 -0.2986  0.2401
13855SOL     OW51878   3.195   2.149   6.199 -0.0302 -0.2904 -0.9973
13855SOL    HW151879   3.114   2.099   6.206  0.6643 -1.1869  1.4953
13855SOL    HW251880   3.259   2.085   6.168  0.4833 -0.5848  0.5718
13856SOL     OW51881   5.265   5.686   9.294  0.5184  0.0421 -0.0118
13856SOL    HW151882   5.309   5.619   9.241  1.4116 -1.4213  2.4162
13856SOL    HW251883   5.317   5.765   9.281  0.0338  0.0778 -2.1583
13857SOL     OW51884   9.292   0.508   6.817 -0.1847  0.4132  0.0394
13857SOL    HW151885   9.265   0.595   6.849 -0.7526  0.3070 -0.1361
13857SOL    HW251886   9.367   0.485   6.872  0.4003  1.2987 -0.3508
13858SOL     OW51887  11.886   0.340   5.834  0.6277  0.0863  0.0417
13858SOL    HW151888  11.841   0.424   5.824  0.6345 -0.1352 -2.3429
13858SOL    HW251889  11.872   0.295   5.751 -0.4634 -2.8614  1.6536
13859SOL     OW51890   6.326  12.001   5.919 -0.1642  0.1192 -0.1009
13859SOL    HW151891   6.337  12.094   5.902 -1.4624  0.5087  1.0195
13859SOL    HW251892   6.274  11.969   5.845 -1.2222  0.6755  0.3785
13860SOL     OW51893   3.542   9.208   1.956 -0.2340 -0.1397 -0.1844
13860SOL    HW151894   3.561   9.242   1.869 -0.6708 -0.6321 -0.4783
13860SOL    HW251895   3.615   9.238   2.010 -0.3497  0.8234 -0.5383
13861SOL     OW51896   7.092   7.496   5.155 -0.0737 -0.6640  0.0519
13861SOL    HW151897   7.143   7.500   5.073  0.8381  1.6985  0.6680
13861SOL    HW251898   7.034   7.420   5.143  0.1572 -0.5113 -2.7041
13862SOL     OW51899   8.499   9.972   3.484  0.3574  0.0829 -0.2590
13862SOL    HW151900   8.473   9.889   3.524  0.0776  0.1765 -0.2405
13862SOL    HW251901   8.585   9.991   3.521 -0.4841  0.8710  1.3805
13863SOL     OW51902   9.702   1.981  11.062 -0.0495 -0.4220  0.2283
13863SOL    HW151903   9.766   1.958  11.129 -0.5326 -0.0015  0.8505
13863SOL    HW251904   9.617   1.964  11.103 -0.3442 -1.3849 -0.7293
13864SOL     OW51905   8.389  12.084   5.932  0.2075  0.0322 -0.0222
13864SOL    HW151906   8.462  12.106   5.990  2.0841 -0.8187 -1.9416
13864SOL    HW251907   8.334  12.163   5.933  0.1508  0.0572  2.8108
13865SOL     OW51908   5.423   0.475   9.106  0.1211  0.7335  0.2039
13865SOL    HW151909   5.466   0.539   9.048 -0.6949  0.1297 -1.1012
13865SOL    HW251910   5.496   0.427   9.145  0.7673 -0.9613 -2.7395
13866SOL     OW51911  12.710   9.249  11.569 -0.4979  0.0912 -0.2006
13866SOL    HW151912  12.661   9.244  11.651 -0.2711 -3.4469 -0.0964
13866SOL    HW251913  12.794   9.207  11.589  0.3522  0.9485 -1.7923
13867SOL     OW51914  12.342   1.808   2.776 -0.2717 -0.5481  0.1031
13867SOL    HW151915  12.285   1.878   2.745  0.2157 -0.7827 -1.3928
13867SOL    HW251916  12.383   1.773   2.697 -0.4693 -2.5085  0.8004
13868SOL     OW51917   1.018   1.087   1.431  0.3508 -0.1407  0.3179
13868SOL    HW151918   0.936   1.114   1.389  0.3020  2.3338  1.8153
13868SOL    HW251919   0.994   1.010   1.482 -1.8726  2.0911  2.9644
13869SOL     OW51920   2.927  11.745   8.796  0.1692 -0.0264 -0.0290
13869SOL    HW151921   2.930  11.745   8.892 -3.3582 -1.8405  0.2621
13869SOL    HW251922   2.899  11.834   8.773 -0.2440  0.0632  0.7673
13870SOL     OW51923   2.431   7.489  12.264  0.3382 -0.3783 -0.4210
13870SOL    HW151924   2.502   7.552  12.253 -0.4664  0.7127  0.4597
13870SOL    HW251925   2.458   7.434  12.337  0.0564  0.3646  0.2495
13871SOL     OW51926  11.089  12.604  12.758  0.3721  0.5041  0.2164
13871SOL    HW151927  11.176  12.610  12.799  1.0421 -0.6582 -0.9462
13871SOL    HW251928  11.107  12.578  12.667 -1.2059  0.2063 -0.0425
13872SOL     OW51929   8.690  10.750  11.855  0.1064  0.0892  0.6134
13872SOL    HW151930   8.652  10.783  11.774  3.3128  3.8046  0.3147
13872SOL    HW251931   8.771  10.707  11.828  1.2011  1.3459  1.7468
13873SOL     OW51932   4.763   6.269   5.999  0.5661  0.0757 -0.2717
13873SOL    HW151933   4.795   6.243   5.913  0.0474 -0.6690 -0.2521
13873SOL    HW251934   4.731   6.188   6.038 -1.2368  0.7396 -0.2574
13874SOL     OW51935   9.966   1.380   8.133  0.3790  0.5098  0.2153
13874SOL    HW151936  10.024   1.451   8.104 -1.9008  2.5890  0.4395
13874SOL    HW251937   9.981   1.375   8.228  0.4579  0.8129  0.2214
13875SOL     OW51938   2.960   2.725   7.613 -0.2123 -0.0988 -0.2896
13875SOL    HW151939   3.055   2.718   7.603  0.2965  1.4467  2.4332
13875SOL    HW251940   2.938   2.668   7.686 -1.4997 -0.7623 -1.1404
13876SOL     OW51941   2.941   3.480   1.345  0.0979  0.2611  0.1180
13876SOL    HW151942   3.018   3.435   1.310  0.8698  2.8647 -1.8990
13876SOL    HW251943   2.976   3.543   1.407 -0.1477  2.1975 -1.5838
13877SOL     OW51944   3.536   3.985  10.653 -0.4056 -0.1182  0.3953
13877SOL    HW151945   3.577   3.924  10.591 -1.1184 -0.2633  0.0599
13877SOL    HW251946   3.447   3.997  10.619  0.0035  1.8573 -0.0973
13878SOL     OW51947   8.098   2.160   9.437  0.7982 -0.1803  0.3421
13878SOL    HW151948   8.023   2.219   9.437  1.2864  0.4748 -0.4790
13878SOL    HW251949   8.075   2.092   9.373  1.5479  0.9319 -1.1808
13879SOL     OW51950   5.548   8.514   7.386  0.2008 -0.0649 -0.0848
13879SOL    HW151951   5.511   8.547   7.467  0.3546  0.6899 -0.3127
13879SOL    HW251952   5.553   8.419   7.398  1.8611  0.1753  1.4926
13880SOL     OW51953  11.900   1.970   5.333 -0.2740 -0.1969 -0.2059
13880SOL    HW151954  11.942   2.002   5.253  0.3529 -0.5055 -0.0097
13880SOL    HW251955  11.911   1.875   5.329  0.7053 -0.1389  0.7605
13881SOL     OW51956   1.847   9.712   5.800 -0.1643 -0.6917  0.0382
13881SOL    HW151957   1.844   9.753   5.713 -0.2316 -0.4135  0.1691
13881SOL    HW251958   1.938   9.683   5.809 -0.4135 -1.6802 -0.5551
13882SOL     OW51959  11.633   2.143  11.441  0.6097 -0.1425 -0.3664
13882SOL    HW151960  11.567   2.114  11.379  2.4996 -1.8086 -1.7203
13882SOL    HW251961  11.603   2.110  11.526 -0.8160  0.1003 -0.7574
13883SOL     OW51962   0.603  10.957   8.184  0.2457  0.2393 -0.4703
13883SOL    HW151963   0.591  10.945   8.090 -1.8229 -1.0309 -0.0967
13883SOL    HW251964   0.679  11.016   8.191  1.7065 -1.1687 -2.8743
13884SOL     OW51965   6.596  10.552   0.097  0.7168  0.4254  0.2292
13884SOL    HW151966   6.529  10.609   0.134 -0.4857 -1.4037  1.0507
13884SOL    HW251967   6.558  10.520   0.016  0.8648 -0.0937  0.3587
13885SOL     OW51968   7.889   6.105   5.388 -0.5624  0.1364  0.0596
13885SOL    HW151969   7.827   6.147   5.328  0.7114 -1.4100 -2.5466
13885SOL    HW251970   7.954   6.173   5.407  0.4155  0.0435 -2.5180
13886SOL     OW51971   4.483  10.511   9.534 -0.4788  0.0663 -0.2839
13886SOL    HW151972   4.575  10.502   9.561 -0.6700  0.2862  0.4445
13886SOL    HW251973   4.488  10.541   9.443  0.1680 -0.9324 -0.5914
13887SOL     OW51974   5.593  10.293   7.943  0.1576  0.0017  0.8435
13887SOL    HW151975   5.574  10.377   7.902 -0.6119 -0.5134  0.1176
13887SOL    HW251976   5.557  10.301   8.032  0.6389  0.6439  0.9874
13888SOL     OW51977   2.775   2.723   7.087  0.1586  0.4305 -0.0673
13888SOL    HW151978   2.772   2.708   7.181 -0.3026  0.6874 -0.0346
13888SOL    HW251979   2.867   2.712   7.063  0.1999 -0.1236  0.3284
13889SOL     OW51980  11.363   0.606   6.264 -0.2342 -0.2973  0.3611
13889SOL    HW151981  11.329   0.670   6.201  0.8608 -0.8320 -0.8168
13889SOL    HW251982  11.407   0.660   6.331  0.9714  0.2092 -0.7930
13890SOL     OW51983   0.235   3.863   5.086 -0.2472  0.0030 -0.1509
13890SOL    HW151984   0.266   3.887   5.173 -0.6671  2.4198 -0.5927
13890SOL    HW251985   0.300   3.902   5.027 -0.5053 -0.7572 -0.9546
13891SOL     OW51986   9.780   8.141   0.549 -0.0024 -0.1987 -0.1740
13891SOL    HW151987   9.855   8.162   0.605  0.3644 -0.5043 -0.5432
13891SOL    HW251988   9.816   8.083   0.482 -0.6881 -0.8303 -0.0109
13892SOL     OW51989   0.419   0.332   5.175 -0.1423  0.4817 -0.3810
13892SOL    HW151990   0.510   0.358   5.162 -0.0018  0.6516  0.7655
13892SOL    HW251991   0.369   0.413   5.165  0.0087  0.6958  0.4515
13893SOL     OW51992   4.657   0.194   1.934 -0.1237 -0.9286 -0.2727
13893SOL    HW151993   4.660   0.140   1.856 -1.3678 -0.0280 -0.9879
13893SOL    HW251994   4.642   0.283   1.902 -1.5946 -0.6667  0.9912
13894SOL     OW51995   7.773  10.923   4.405 -0.0451 -0.1199  0.4117
13894SOL    HW151996   7.804  10.905   4.316 -0.0040  0.0395  0.3939
13894SOL    HW251997   7.777  10.838   4.449 -0.4169 -0.2775  0.1541
13895SOL     OW51998   0.633   5.263   3.801  0.3021 -0.0521  0.6498
13895SOL    HW151999   0.678   5.195   3.751 -0.1394 -0.0734  0.2705
13895SOL    HW252000   0.592   5.216   3.874 -0.3568 -0.2707  0.1536
13896SOL     OW52001   4.707   8.240   1.772 -0.1543  0.0760  0.0684
13896SOL    HW152002   4.688   8.318   1.825  0.6521  0.0169  0.4562
13896SOL    HW252003   4.794   8.212   1.800  0.4238  0.2051 -1.4795
13897SOL     OW52004   9.700  10.676   8.094  0.3393 -0.1519 -0.3138
13897SOL    HW152005   9.722  10.597   8.144 -1.9855 -0.8144 -0.2058
13897SOL    HW252006   9.668  10.737   8.160 -0.2932 -0.0735 -0.6856
13898SOL     OW52007  12.095   2.733  11.283  0.1328 -0.0587 -0.8073
13898SOL    HW152008  12.108   2.676  11.358 -0.7166 -1.7603 -1.8911
13898SOL    HW252009  12.181   2.770  11.265  0.7107 -1.0383 -0.0946
13899SOL     OW52010   9.692  11.945   2.650 -0.0454 -0.0922  0.2722
13899SOL    HW152011   9.644  11.928   2.569  3.6625 -0.1192 -2.1573
13899SOL    HW252012   9.655  11.883   2.714 -1.4032 -1.8884 -2.1103
13900SOL     OW52013   6.980   3.855   8.848 -0.7742  0.1587  0.2904
13900SOL    HW152014   6.930   3.774   8.838 -0.2764  0.0165 -1.2163
13900SOL    HW252015   6.973   3.898   8.763 -0.0291  1.1146  0.7046
13901SOL     OW52016   3.881   9.635   6.968 -0.0737  0.3336  0.3267
13901SOL    HW152017   3.887   9.670   6.879 -2.0976 -1.0035 -0.4388
13901SOL    HW252018   3.958   9.668   7.013  0.0472  2.6111 -1.3693
13902SOL     OW52019   2.694   2.731   5.304  0.1160  0.3109 -0.2017
13902SOL    HW152020   2.664   2.808   5.257 -1.7812  0.3418  0.9860
13902SOL    HW252021   2.751   2.766   5.373  1.1443  0.4225 -1.0708
13903SOL     OW52022  11.544  12.283   6.757 -0.3717  0.6364 -0.0405
13903SOL    HW152023  11.539  12.189   6.776  1.5353  0.5422  0.1966
13903SOL    HW252024  11.503  12.324   6.833 -1.0773  0.0114 -0.0688
13904SOL     OW52025   4.015   0.887   3.290  0.2860  0.1089  0.0333
13904SOL    HW152026   3.956   0.962   3.302  1.4892  1.2992 -1.1018
13904SOL    HW252027   4.011   0.868   3.197  1.6811  0.2323 -0.0738
13905SOL     OW52028   9.232  10.403   5.913  0.1856  0.6671  0.4644
13905SOL    HW152029   9.302  10.433   5.855  2.0045 -1.8702  1.1341
13905SOL    HW252030   9.197  10.325   5.870 -1.7072  1.4267  0.5511
13906SOL     OW52031   7.768   0.039   5.965  0.1545  0.2718 -0.4391
13906SOL    HW152032   7.724   0.116   5.930  1.2625  0.7661 -0.7744
13906SOL    HW252033   7.820   0.072   6.039 -0.6263 -0.4379  0.4642
13907SOL     OW52034   8.172   9.003   8.013  0.8575  0.0159  0.4569
13907SOL    HW152035   8.116   8.929   7.991  0.2721  1.0442 -1.8600
13907SOL    HW252036   8.212   8.979   8.096 -1.4061 -1.6654  1.1574
13908SOL     OW52037   0.093   3.937   5.529  0.2610 -0.5540  0.7641
13908SOL    HW152038   0.102   3.955   5.622 -0.5509  1.3405  0.5121
13908SOL    HW252039   0.181   3.950   5.494  0.0997  1.1397  0.9167
13909SOL     OW52040  10.825  12.660   0.979  0.2643  0.3820  0.0777
13909SOL    HW152041  10.866  12.707   1.051  0.2167  0.0219  0.3453
13909SOL    HW252042  10.814  12.725   0.910  1.5126  0.4229 -0.0976
13910SOL     OW52043  10.427   6.436   7.329 -0.4572  0.4096  0.2063
13910SOL    HW152044  10.447   6.522   7.292 -0.0907  0.0850 -0.3719
13910SOL    HW252045  10.413   6.380   7.252 -1.0592  0.0371  0.5806
13911SOL     OW52046   7.043   8.801   6.440 -0.6668  0.4209 -0.2285
13911SOL    HW152047   7.008   8.880   6.398 -0.7718  0.4373 -0.1102
13911SOL    HW252048   7.075   8.832   6.525 -2.0863  0.0575  0.4569
13912SOL     OW52049   4.005   3.085   5.705 -0.2739 -0.0884  0.4834
13912SOL    HW152050   4.072   3.054   5.766 -0.1339  0.0076  0.3766
13912SOL    HW252051   3.935   3.118   5.762  0.6655  1.7992  0.6076
13913SOL     OW52052   8.982   2.962   1.497  0.5010 -0.0670  0.3587
13913SOL    HW152053   8.895   2.998   1.479 -0.0260 -1.3206  0.2578
13913SOL    HW252054   9.010   3.004   1.578  0.7749  2.0014 -0.7562
13914SOL     OW52055   0.050   4.782  10.582  0.2298 -0.5221 -0.0420
13914SOL    HW152056  -0.012   4.728  10.534 -0.0095 -0.5547  0.3003
13914SOL    HW252057  -0.003   4.853  10.619  0.5537  0.0111 -0.5715
13915SOL     OW52058   2.843   6.482   5.282  0.4389 -0.1003 -0.3953
13915SOL    HW152059   2.764   6.467   5.230  0.3745  0.2890 -0.4129
13915SOL    HW252060   2.909   6.507   5.217 -0.6900  4.8326 -0.0469
13916SOL     OW52061   6.728   4.757   5.394  0.1812  0.3524  0.3184
13916SOL    HW152062   6.766   4.769   5.481 -0.0407  0.0978  0.4516
13916SOL    HW252063   6.728   4.662   5.381 -0.7039  0.3199  0.4577
13917SOL     OW52064   8.025  11.324   9.439  0.1038 -0.5866  0.6878
13917SOL    HW152065   8.084  11.397   9.420 -0.8631 -0.2611 -1.3139
13917SOL    HW252066   7.989  11.344   9.525 -1.1588  2.0410 -0.3433
13918SOL     OW52067  12.706   6.006   1.538 -0.1759 -0.5153 -0.4159
13918SOL    HW152068  12.619   6.046   1.540  0.2373  0.4011  0.5964
13918SOL    HW252069  12.736   6.016   1.448 -0.3762  0.8860 -0.3524
13919SOL     OW52070   3.330   5.623   9.093 -0.0417  0.0571 -0.7778
13919SOL    HW152071   3.369   5.653   9.011  0.6593  0.8945 -0.1579
13919SOL    HW252072   3.272   5.694   9.119  0.8928  0.4912  0.2051
13920SOL     OW52073   6.634  12.195   8.786 -0.3796 -0.4769  0.3198
13920SOL    HW152074   6.602  12.123   8.731 -0.0672 -0.2993 -0.1016
13920SOL    HW252075   6.644  12.269   8.725 -1.1487  0.0606  0.8342
13921SOL     OW52076   4.777  10.501   4.386  0.2949  0.1124  0.3704
13921SOL    HW152077   4.855  10.471   4.434 -0.0726  0.4281  1.1869
13921SOL    HW252078   4.777  10.596   4.397  0.7512  0.3118 -1.1314
13922SOL     OW52079   4.097   8.460   7.243  0.3407 -0.2812  0.0383
13922SOL    HW152080   4.150   8.520   7.192 -0.6199  0.8110  0.2794
13922SOL    HW252081   4.026   8.434   7.184 -0.1536  0.1205  0.4370
13923SOL     OW52082   4.909   7.612   8.408  0.2833  0.1216  0.2291
13923SOL    HW152083   4.998   7.612   8.442 -0.1615  2.0386  1.5331
13923SOL    HW252084   4.911   7.676   8.336 -0.3303  1.2905  1.2192
13924SOL     OW52085  12.255   3.181   0.821  0.7931  0.1246  0.2907
13924SOL    HW152086  12.169   3.181   0.778  0.8615 -0.4980  0.1350
13924SOL    HW252087  12.253   3.256   0.880 -0.4220 -0.7398  1.4069
13925SOL     OW52088   6.908   6.136   2.252  0.4695  0.7280  0.8322
13925SOL    HW152089   6.878   6.206   2.310 -0.9843  0.7261  0.1119
13925SOL    HW252090   6.838   6.126   2.188  1.2963 -0.4246  0.0788
13926SOL     OW52091   2.061  12.938   7.834  0.3443  0.1358 -0.3761
13926SOL    HW152092   2.069  12.908   7.925  0.0456 -1.7048 -0.9196
13926SOL    HW252093   2.107  13.023   7.833  3.6815 -1.4739  0.7010
13927SOL     OW52094   6.477   1.863  12.274 -0.2864  0.1875  0.2971
13927SOL    HW152095   6.398   1.897  12.232 -0.1391 -0.5837 -0.6284
13927SOL    HW252096   6.530   1.941  12.291  1.0125  0.4458 -3.7503
13928SOL     OW52097  11.395   8.201   1.690  0.2971  0.2983  0.8165
13928SOL    HW152098  11.401   8.290   1.654  0.3135 -0.0143  0.0167
13928SOL    HW252099  11.341   8.210   1.768  0.0355  0.9652  0.5649
13929SOL     OW52100   9.434   7.083   8.650  0.4557  0.2095  0.4361
13929SOL    HW152101   9.512   7.028   8.634 -0.0324 -0.9902  1.8802
13929SOL    HW252102   9.362   7.032   8.614  0.0675  0.1576  1.2629
13930SOL     OW52103   6.271   1.261   1.350 -0.4651  0.1644 -0.1976
13930SOL    HW152104   6.348   1.242   1.403 -0.3576 -1.0987 -0.7524
13930SOL    HW252105   6.242   1.348   1.378  0.2000 -0.0322  1.1568
13931SOL     OW52106   3.386   1.888   3.160 -0.1098  0.0448  0.1289
13931SOL    HW152107   3.339   1.966   3.190  1.3968  0.7047  0.8978
13931SOL    HW252108   3.439   1.919   3.086 -0.0087 -0.4013  0.0135
13932SOL     OW52109   2.576   4.275  11.540  0.3516 -0.3484  0.3634
13932SOL    HW152110   2.611   4.257  11.627  0.6889 -1.4230  0.0177
13932SOL    HW252111   2.628   4.220  11.481 -0.3648 -0.1866 -0.4375
13933SOL     OW52112   3.154   0.717   9.358 -0.3015 -0.3776  0.3604
13933SOL    HW152113   3.062   0.728   9.333 -0.3439  0.9301  0.9935
13933SOL    HW252114   3.199   0.789   9.314 -0.0041  0.5232  2.0455
13934SOL     OW52115   3.964   9.543   0.931  0.2750 -0.0226  0.1386
13934SOL    HW152116   3.911   9.492   0.992 -1.7787 -0.0932 -1.6004
13934SOL    HW252117   4.000   9.479   0.871  0.5903  0.2478  0.0326
13935SOL     OW52118   2.872   9.505   3.595  0.2052  0.2996 -0.4972
13935SOL    HW152119   2.780   9.517   3.571  0.4625  1.9038 -0.7994
13935SOL    HW252120   2.915   9.476   3.514  0.3641  1.8747 -1.0098
13936SOL     OW52121   2.378  10.127   3.527 -0.0846  0.0372  0.1822
13936SOL    HW152122   2.316  10.174   3.473  0.7464  1.1098  0.1363
13936SOL    HW252123   2.343  10.038   3.532 -1.1353  0.3952 -0.5713
13937SOL     OW52124  12.268   8.701   1.836 -0.1078 -0.2506 -0.0499
13937SOL    HW152125  12.256   8.709   1.930 -0.1500 -1.8805  0.1027
13937SOL    HW252126  12.292   8.609   1.822  2.9884  0.5951 -1.2984
13938SOL     OW52127   9.188  11.378   3.251  0.2844 -0.0732 -0.1158
13938SOL    HW152128   9.103  11.420   3.234  0.6222  0.6780  0.0073
13938SOL    HW252129   9.250  11.429   3.199  1.1924  1.5845  2.3914
13939SOL     OW52130  12.810   6.415   6.357  0.0139  0.4070 -0.4077
13939SOL    HW152131  12.752   6.462   6.416  0.5116 -0.6507  0.9986
13939SOL    HW252132  12.751   6.373   6.294 -0.6895  0.2432  0.3311
13940SOL     OW52133   4.349   2.263  12.722  0.2564  0.1939 -0.3435
13940SOL    HW152134   4.270   2.316  12.735  0.2457  0.1867 -0.3772
13940SOL    HW252135   4.406   2.318  12.668  1.1393  1.0401  1.3946
13941SOL     OW52136   7.330  11.257   2.396  0.1031 -0.1340 -0.0050
13941SOL    HW152137   7.267  11.262   2.469 -0.1629  0.2717 -0.2571
13941SOL    HW252138   7.300  11.183   2.343  0.7018 -0.8771  0.6604
13942SOL     OW52139   4.036   8.607   5.593 -0.2910 -0.0344 -0.3605
13942SOL    HW152140   4.075   8.693   5.579 -1.6457  0.5406 -0.8192
13942SOL    HW252141   4.004   8.580   5.507 -0.4082 -0.7329 -0.1129
13943SOL     OW52142   1.900   0.618   0.447 -0.5602 -0.2513  0.0223
13943SOL    HW152143   1.837   0.578   0.387  2.3894 -1.4413 -2.5150
13943SOL    HW252144   1.944   0.685   0.395  1.3438 -0.5288  1.1878
13944SOL     OW52145   0.180   5.752  10.341 -0.0036  0.1233  0.1455
13944SOL    HW152146   0.206   5.842  10.363  0.4197  0.2961 -0.9870
13944SOL    HW252147   0.180   5.750  10.246 -0.6783 -0.9005  0.1532
13945SOL     OW52148  11.469   5.769  10.121 -0.0230 -0.3003 -0.0140
13945SOL    HW152149  11.563   5.756  10.127  0.2395  0.5795 -1.5452
13945SOL    HW252150  11.459   5.857  10.086 -1.3572 -0.9121 -1.3120
13946SOL     OW52151   4.239  11.452   4.107  0.8140  0.3069  0.0742
13946SOL    HW152152   4.302  11.494   4.049  1.2155 -0.3324  0.0407
13946SOL    HW252153   4.256  11.358   4.097  0.1713  0.1468  0.4186
13947SOL     OW52154   3.815   7.494   9.197 -0.1971 -0.0748 -0.2542
13947SOL    HW152155   3.768   7.573   9.224  0.1558  0.8054 -2.0831
13947SOL    HW252156   3.906   7.521   9.189  0.3309 -1.2643  1.2728
13948SOL     OW52157   4.539   0.229   7.040 -0.5594 -0.7128  0.0915
13948SOL    HW152158   4.518   0.266   7.125 -1.6772 -1.7731  0.3086
13948SOL    HW252159   4.454   0.206   7.002 -0.1573  0.5745 -1.7184
13949SOL     OW52160  11.314   7.939  12.210 -0.2584 -0.6548 -0.1414
13949SOL    HW152161  11.282   7.913  12.296  0.6145 -0.2985  0.2991
13949SOL    HW252162  11.404   7.967  12.225  0.8966 -3.2135 -1.5851
13950SOL     OW52163   3.029   6.261  10.610  0.5514 -0.2309 -0.2673
13950SOL    HW152164   2.981   6.208  10.546  0.4579 -0.1630 -0.2542
13950SOL    HW252165   3.115   6.220  10.616  0.8312  0.2321 -1.0277
13951SOL     OW52166   9.417   7.201   9.474  0.3562  0.1835 -0.1296
13951SOL    HW152167   9.468   7.194   9.554  0.6157 -2.0849 -0.4171
13951SOL    HW252168   9.327   7.213   9.504  0.7306  1.9053  0.4149
13952SOL     OW52169   2.684  12.491   4.751  0.3204  0.3626  0.2874
13952SOL    HW152170   2.701  12.436   4.828 -0.8338  0.1981  0.4543
13952SOL    HW252171   2.588  12.497   4.748  0.3827  0.9775 -0.7140
13953SOL     OW52172   9.910   6.374   6.720 -0.1049 -0.5563 -0.2778
13953SOL    HW152173   9.982   6.391   6.781 -0.5253 -0.2502  0.1376
13953SOL    HW252174   9.886   6.283   6.736 -0.2169 -0.4766  0.0273
13954SOL     OW52175   1.878   7.381   1.326  0.5096 -0.5505  0.0949
13954SOL    HW152176   1.783   7.376   1.336  0.1968 -0.0584 -2.0215
13954SOL    HW252177   1.899   7.473   1.339  1.0343 -0.9598  2.5654
13955SOL     OW52178   5.458   5.648   3.481 -0.7584  0.1001 -0.2383
13955SOL    HW152179   5.414   5.646   3.396  0.7627  4.1018 -1.3149
13955SOL    HW252180   5.548   5.623   3.462 -0.6960 -0.2322  0.4708
13956SOL     OW52181   2.901   5.164   9.166 -0.0573 -0.4997 -0.1580
13956SOL    HW152182   2.885   5.242   9.220 -1.5139  0.0558 -1.3490
13956SOL    HW252183   2.997   5.158   9.162  0.1317  2.0956 -1.2160
13957SOL     OW52184   8.264   0.475   0.851  0.2930 -0.0711  0.5192
13957SOL    HW152185   8.289   0.482   0.759  0.2034  1.3107  0.5710
13957SOL    HW252186   8.215   0.393   0.858  0.9544 -0.5649 -0.4999
13958SOL     OW52187   2.869  11.995   8.800  0.1676 -0.5774  0.0305
13958SOL    HW152188   2.879  12.084   8.764 -1.1915 -1.1220 -1.8413
13958SOL    HW252189   2.864  12.008   8.895  2.7936  1.0552  0.0588
13959SOL     OW52190  11.729   3.018   0.666 -0.6004 -0.4901  0.5077
13959SOL    HW152191  11.653   3.062   0.706 -1.2204 -0.0762 -1.0328
13959SOL    HW252192  11.694   2.980   0.585  0.9314  0.1859 -0.5297
13960SOL     OW52193  12.350   9.091   2.218 -0.4176  0.0088  0.5638
13960SOL    HW152194  12.348   8.995   2.214 -2.3859 -0.0787  2.2439
13960SOL    HW252195  12.379   9.117   2.130  2.3625 -2.1071  0.7186
13961SOL     OW52196   2.701  11.481  12.043  0.9469  0.0462 -0.2163
13961SOL    HW152197   2.756  11.535  11.986  0.8220 -0.6729 -1.0291
13961SOL    HW252198   2.721  11.512  12.131  0.7836  1.5256 -0.6615
13962SOL     OW52199  10.447  10.396   8.305  0.4547  0.1692  0.4502
13962SOL    HW152200  10.399  10.313   8.302 -1.6328  1.3504  0.0534
13962SOL    HW252201  10.523  10.380   8.249  0.2141 -1.5221  0.5305
13963SOL     OW52202  10.946   0.880   6.774 -0.2089 -0.6135 -0.3118
13963SOL    HW152203  10.959   0.788   6.747  1.8276 -1.0432  1.8499
13963SOL    HW252204  11.007   0.929   6.719  0.6074 -0.9013  0.3244
13964SOL     OW52205   4.015  12.890   0.226 -0.3402  0.1671 -0.1032
13964SOL    HW152206   4.088  12.944   0.196  0.7146 -0.7573  0.7213
13964SOL    HW252207   3.984  12.845   0.148  1.3133 -0.9786 -0.1426
13965SOL     OW52208   2.010   3.377   0.652 -0.3196  0.5301 -0.1473
13965SOL    HW152209   1.989   3.350   0.741 -1.8328  0.4531 -0.5114
13965SOL    HW252210   1.992   3.471   0.649 -1.5206  0.2935 -0.7126
13966SOL     OW52211   0.673   7.968   6.001  0.4012  0.5996  0.1874
13966SOL    HW152212   0.635   7.881   6.006  0.5378  0.5191 -0.1034
13966SOL    HW252213   0.718   7.969   5.916 -0.2973  1.2350 -0.1906
13967SOL     OW52214   8.108   8.041   2.102  0.4621  0.4310  0.0020
13967SOL    HW152215   8.171   8.061   2.032  1.3256 -3.0397 -0.4043
13967SOL    HW252216   8.055   8.120   2.110  1.5381  1.6559 -3.2705
13968SOL     OW52217  10.837   4.337   7.067 -0.0956  0.4022  0.3271
13968SOL    HW152218  10.816   4.247   7.090  0.8162  0.5336  1.8564
13968SOL    HW252219  10.856   4.335   6.973  0.7624 -1.1875  0.5062
13969SOL     OW52220   6.712  12.303   4.513 -0.7273  0.0240 -0.1513
13969SOL    HW152221   6.687  12.395   4.510 -1.6240 -0.0617  2.3194
13969SOL    HW252222   6.649  12.263   4.572  0.7603 -1.7917  0.3058
13970SOL     OW52223   8.136  12.422   2.420  0.1408  0.0863  0.0391
13970SOL    HW152224   8.140  12.332   2.451 -1.5982 -0.4070 -0.9636
13970SOL    HW252225   8.118  12.413   2.326 -1.1124  1.4419  0.1152
13971SOL     OW52226   5.092   1.898  12.530  0.0147  0.1424 -0.3500
13971SOL    HW152227   5.030   1.837  12.570 -0.6676  0.3054 -1.1332
13971SOL    HW252228   5.058   1.985  12.551  1.1238  0.2872  0.9809
13972SOL     OW52229   8.762   0.522   5.254 -0.5034 -0.5199  0.2955
13972SOL    HW152230   8.818   0.584   5.207  0.2152 -0.9285  0.5997
13972SOL    HW252231   8.729   0.464   5.185  1.0767 -1.5299  0.3331
13973SOL     OW52232   3.220  12.090   2.809  0.2479 -0.1965 -0.1612
13973SOL    HW152233   3.143  12.047   2.772  0.5287  0.4585 -1.5697
13973SOL    HW252234   3.184  12.147   2.878 -0.5874  0.3588 -1.0241
13974SOL     OW52235   7.352   7.570  11.380 -0.4436 -0.4974  0.1911
13974SOL    HW152236   7.264   7.568  11.343 -0.4188 -3.2827  0.0970
13974SOL    HW252237   7.410   7.578  11.304 -0.5456 -0.7475  0.0875
13975SOL     OW52238  11.750   3.175   6.464  0.1376  0.4587 -0.0078
13975SOL    HW152239  11.807   3.116   6.515  0.7070  0.5354 -0.5455
13975SOL    HW252240  11.751   3.139   6.376  0.8517  1.5118 -0.4501
13976SOL     OW52241   6.618   7.379   0.886 -0.3143  0.1240 -0.0182
13976SOL    HW152242   6.584   7.297   0.921  0.4959  0.2792  1.2180
13976SOL    HW252243   6.713   7.365   0.882 -0.3467  0.2584 -1.8403
13977SOL     OW52244   4.596   4.410   2.966  0.2942  0.9702  0.4662
13977SOL    HW152245   4.526   4.463   3.004 -0.2041 -0.6538  1.9481
13977SOL    HW252246   4.551   4.351   2.905  0.7520  1.7637 -0.6630
13978SOL     OW52247   8.092   3.814  12.563  0.2282 -0.0521 -0.3371
13978SOL    HW152248   8.050   3.863  12.492 -2.3872 -2.4275 -0.5894
13978SOL    HW252249   8.172   3.778  12.523 -0.3881 -0.0484 -1.6161
13979SOL     OW52250   5.404   7.391   0.901  0.0398 -0.1192 -0.1509
13979SOL    HW152251   5.339   7.371   0.833 -0.7173  1.0086  0.2066
13979SOL    HW252252   5.445   7.472   0.872  0.0072  0.1464  0.5289
13980SOL     OW52253   9.671  11.752   8.485 -0.2642  0.1080  0.2312
13980SOL    HW152254   9.660  11.661   8.457  0.1515 -0.2083  1.0559
13980SOL    HW252255   9.754  11.752   8.533 -0.2143  0.9430  0.1521
13981SOL     OW52256   4.272  12.924  10.736  0.2889 -0.0013 -0.4545
13981SOL    HW152257   4.210  12.997  10.727  0.3044 -0.1140 -1.5585
13981SOL    HW252258   4.269  12.879  10.652  0.5602 -1.0664  0.0893
13982SOL     OW52259   5.591   1.467   9.251  0.2936 -0.2089  0.6515
13982SOL    HW152260   5.596   1.372   9.254 -0.4737 -0.2334  2.2603
13982SOL    HW252261   5.667   1.494   9.199 -0.3965 -1.7425 -1.2661
13983SOL     OW52262   9.889   9.182   6.878 -0.2285  0.2751 -0.0093
13983SOL    HW152263   9.930   9.097   6.896  1.6280  1.2445  0.5210
13983SOL    HW252264   9.826   9.193   6.950 -1.9813 -1.4788 -1.1448
13984SOL     OW52265   1.571   1.827   3.606 -0.2107 -0.3912  0.2637
13984SOL    HW152266   1.613   1.894   3.661  0.9823  0.3800 -1.4749
13984SOL    HW252267   1.485   1.864   3.585 -0.6871 -0.7025  1.5650
13985SOL     OW52268  10.699  11.224   8.993 -0.2766  0.2886 -0.2045
13985SOL    HW152269  10.676  11.274   9.071  0.7544  0.7244 -0.1592
13985SOL    HW252270  10.622  11.231   8.936 -0.9767  0.0955  0.6940
13986SOL     OW52271   9.692   3.962   7.984 -0.4093  0.2942 -0.3327
13986SOL    HW152272   9.736   4.041   8.017 -2.9854  1.6835  0.0369
13986SOL    HW252273   9.691   3.903   8.059  2.3844 -0.5964 -0.8748
13987SOL     OW52274   0.458  10.550  10.610  0.0084 -0.5466  0.0934
13987SOL    HW152275   0.374  10.570  10.569 -0.1598 -0.9109  0.2637
13987SOL    HW252276   0.438  10.541  10.703  0.5504  1.2883  0.4326
13988SOL     OW52277   8.810  12.354   1.760 -0.0740  0.2814 -0.3711
13988SOL    HW152278   8.730  12.304   1.743 -0.4431  0.5256  0.5661
13988SOL    HW252279   8.779  12.438   1.794  0.5777  0.3379  0.1114
13989SOL     OW52280   2.639  12.836   8.670  0.0327  0.1511 -0.1067
13989SOL    HW152281   2.702  12.833   8.598  0.1922  2.0599 -0.1045
13989SOL    HW252282   2.676  12.899   8.732 -1.6932  1.0870  0.0462
13990SOL     OW52283   4.276   7.255  12.973 -0.2534  0.0981 -0.1299
13990SOL    HW152284   4.232   7.282  13.054  0.0898  1.1039 -0.2678
13990SOL    HW252285   4.273   7.332  12.917  0.9784 -0.0578 -0.4408
13991SOL     OW52286   7.444   1.612   1.092 -0.8981 -0.3026  0.4776
13991SOL    HW152287   7.531   1.611   1.132 -1.5118 -0.1918  1.8763
13991SOL    HW252288   7.421   1.520   1.082  0.1761 -0.4085 -1.8330
13992SOL     OW52289  11.757   9.196   6.319  0.3766 -0.3307  0.4240
13992SOL    HW152290  11.728   9.110   6.289  0.2675  0.2295 -1.1648
13992SOL    HW252291  11.761   9.249   6.240  2.5585  0.5328  1.0421
13993SOL     OW52292   0.499   8.765   3.912 -0.1338  0.6027  0.8429
13993SOL    HW152293   0.531   8.818   3.985  1.0768  1.3928 -0.2337
13993SOL    HW252294   0.483   8.827   3.841 -0.0488 -0.3044  0.0094
13994SOL     OW52295   5.398   1.560  12.114 -0.1310 -0.3963  0.7348
13994SOL    HW152296   5.483   1.583  12.076 -0.5038 -1.8127 -1.1119
13994SOL    HW252297   5.418   1.532  12.203  0.7667  3.2585  1.8309
13995SOL     OW52298   2.389  10.553   3.136  0.5706 -0.4065 -0.2960
13995SOL    HW152299   2.454  10.612   3.098 -0.8530  0.3513 -1.6919
13995SOL    HW252300   2.317  10.553   3.073 -0.6981 -1.3912  1.0756
13996SOL     OW52301   9.375   8.361   4.404 -0.4411  0.2049 -0.3089
13996SOL    HW152302   9.434   8.299   4.446 -0.0882 -0.1068 -1.2423
13996SOL    HW252303   9.373   8.334   4.312  2.4982  3.6180 -1.5840
13997SOL     OW52304   8.225   8.839  11.384  0.5221 -0.7625  0.0950
13997SOL    HW152305   8.209   8.854  11.477 -0.8464 -1.7486  0.0523
13997SOL    HW252306   8.143   8.865  11.341  0.8209 -1.1586 -0.7347
13998SOL     OW52307   5.068   0.662   2.357 -0.1778 -0.1457 -0.1327
13998SOL    HW152308   5.110   0.639   2.440 -2.2990  0.3624  1.1815
13998SOL    HW252309   5.079   0.584   2.302  3.5207  0.4113 -0.4404
13999SOL     OW52310   3.588   8.998   2.789  0.1491  0.0713 -0.4137
13999SOL    HW152311   3.636   8.945   2.853  1.3411  0.6766 -0.7872
13999SOL    HW252312   3.654   9.022   2.724 -1.2992 -1.7488 -2.7038
14000SOL     OW52313  12.399  11.763   1.133  0.3157  0.4537 -0.1524
14000SOL    HW152314  12.464  11.701   1.166 -2.6093 -2.9120 -0.1394
14000SOL    HW252315  12.385  11.737   1.042 -0.2550  1.8275 -0.4813
14001SOL     OW52316  11.219  10.783   9.688  0.2538 -0.4051 -0.1346
14001SOL    HW152317  11.232  10.770   9.594  0.8102 -0.5499 -0.0454
14001SOL    HW252318  11.131  10.751   9.705  0.2853 -0.7226 -0.5440
14002SOL     OW52319   7.932  10.241   9.684  0.0085 -0.3306  0.1760
14002SOL    HW152320   7.927  10.336   9.681 -1.1221 -0.4166 -1.2090
14002SOL    HW252321   7.960  10.222   9.774 -0.9184  1.2421  0.8353
14003SOL     OW52322  12.875   8.517   1.049 -0.2930 -0.9379  0.4476
14003SOL    HW152323  12.857   8.430   1.012  0.4938 -0.4418 -1.1915
14003SOL    HW252324  12.862   8.506   1.144 -0.6773 -2.7099  0.2235
14004SOL     OW52325   8.586  11.487   5.657 -0.4952 -0.1242  0.1555
14004SOL    HW152326   8.666  11.516   5.612  0.4172 -0.4935  1.4801
14004SOL    HW252327   8.566  11.402   5.619 -0.7401  0.3406 -0.7687
14005SOL     OW52328   6.734   0.961   6.775  0.2553 -0.3000  0.2299
14005SOL    HW152329   6.675   1.025   6.815  0.0695  0.5388 -1.3331
14005SOL    HW252330   6.814   0.965   6.828 -0.6831 -0.6937  1.7336
14006SOL     OW52331   6.482   6.765   5.688 -0.2234 -0.2326  0.6626
14006SOL    HW152332   6.411   6.788   5.748 -0.4999 -0.0045  0.2488
14006SOL    HW252333   6.444   6.774   5.601  0.8553  1.8763  0.3342
14007SOL     OW52334  12.693   5.965  10.650  0.3188 -0.8784  0.6692
14007SOL    HW152335  12.718   5.951  10.559 -1.5770  0.5238 -0.1272
14007SOL    HW252336  12.688   5.877  10.688 -0.8590 -1.6516 -1.1615
14008SOL     OW52337  10.197  11.928   5.882 -0.3194 -0.0873 -0.0477
14008SOL    HW152338  10.205  11.837   5.910  2.1917  0.4502  1.2580
14008SOL    HW252339  10.140  11.968   5.947  0.8912 -0.1352  1.0833
14009SOL     OW52340   0.484  11.981   5.952  0.1535  0.0483  0.0234
14009SOL    HW152341   0.500  11.898   5.908 -0.5326 -0.2987  0.3999
14009SOL    HW252342   0.505  11.964   6.044  0.9806  0.5860 -0.0589
14010SOL     OW52343  11.820   5.663   3.412  0.4277 -0.5982 -0.0624
14010SOL    HW152344  11.915   5.667   3.424  0.4963  1.2901 -0.7578
14010SOL    HW252345  11.787   5.741   3.458 -0.8894 -1.6499  0.8428
14011SOL     OW52346   9.857   3.130   3.119  1.0158  0.0352  0.2889
14011SOL    HW152347   9.949   3.156   3.116  1.1901 -0.5690  0.3658
14011SOL    HW252348   9.852   3.050   3.067  0.3224  0.6677 -0.6590
14012SOL     OW52349  10.768   3.493   9.414  0.5323  0.4217  0.3018
14012SOL    HW152350  10.816   3.527   9.489 -0.6233  0.7251  0.9261
14012SOL    HW252351  10.719   3.418   9.449  0.9483 -0.2191 -0.4437
14013SOL     OW52352   0.555   0.998   5.326 -0.2851 -0.1681  0.0080
14013SOL    HW152353   0.575   0.936   5.396  0.0057  1.1160  1.1001
14013SOL    HW252354   0.464   1.025   5.342 -0.3175 -0.0881 -0.2897
14014SOL     OW52355   0.971   4.638   2.680 -0.3342 -0.0264  0.4129
14014SOL    HW152356   1.057   4.618   2.641 -1.3816 -1.0483 -1.5107
14014SOL    HW252357   0.992   4.671   2.768  2.0478  0.2672 -0.1861
14015SOL     OW52358   7.735   3.484   1.001 -0.1183  0.0659 -0.3458
14015SOL    HW152359   7.772   3.402   1.035  0.6782  0.0531 -1.1947
14015SOL    HW252360   7.722   3.467   0.908 -0.5182  0.7095 -0.4138
14016SOL     OW52361   9.603   1.793   3.346  0.1763  0.1674 -0.3824
14016SOL    HW152362   9.525   1.740   3.330  0.1223  0.6435 -1.8431
14016SOL    HW252363   9.672   1.752   3.294  0.5484  0.5601 -0.2079
14017SOL     OW52364   0.684   0.923  11.843 -0.0775 -0.2412 -0.2892
14017SOL    HW152365   0.588   0.929  11.835 -0.0197  0.2736 -0.5940
14017SOL    HW252366   0.717   0.960  11.762  0.3604 -1.9530 -0.9257
14018SOL     OW52367  11.539   1.697   9.745  0.1490 -0.2050 -0.2861
14018SOL    HW152368  11.581   1.644   9.813 -0.5579  1.9556  2.0126
14018SOL    HW252369  11.606   1.760   9.719 -0.3725  0.6296  0.3552
14019SOL     OW52370   3.987   5.769   2.306 -0.3482  0.4465 -0.2630
14019SOL    HW152371   3.928   5.701   2.338  0.4263 -0.7761 -1.3326
14019SOL    HW252372   4.063   5.721   2.272  1.2457  1.9430  0.9706
14020SOL     OW52373   4.118   2.984   1.417  0.3663  0.0463  0.4472
14020SOL    HW152374   4.137   2.892   1.398 -2.7792 -1.0743  1.9656
14020SOL    HW252375   4.123   3.027   1.331 -0.4017 -2.0357 -0.7311
14021SOL     OW52376   2.416   7.289   7.268  0.5034  0.3287  0.0413
14021SOL    HW152377   2.336   7.318   7.224  0.3104 -0.9853 -0.5231
14021SOL    HW252378   2.413   7.333   7.354  0.5957  2.4717 -0.9772
14022SOL     OW52379   3.938   0.791  12.386 -0.1418 -0.1369  0.4144
14022SOL    HW152380   3.935   0.710  12.437 -1.2664  0.3204  1.1105
14022SOL    HW252381   4.015   0.781  12.330  0.1098 -1.4054  0.9480
14023SOL     OW52382   6.327   8.878  12.765  0.0992 -0.1923  0.0308
14023SOL    HW152383   6.252   8.842  12.812 -0.1688 -0.9337 -0.9361
14023SOL    HW252384   6.392   8.896  12.833  0.1176 -2.2400  0.6053
14024SOL     OW52385   2.008   7.132  10.789 -0.6206  0.3081 -0.2602
14024SOL    HW152386   2.024   7.209  10.735  0.2739 -1.1432 -2.2101
14024SOL    HW252387   1.985   7.063  10.726 -1.2241 -1.0673  1.3799
14025SOL     OW52388  11.814  10.451   0.996  0.0677 -0.1995  0.2902
14025SOL    HW152389  11.728  10.434   0.959  0.4106  0.9672 -1.1494
14025SOL    HW252390  11.813  10.406   1.081 -2.1838  0.3502  0.6195
14026SOL     OW52391   0.662  10.114   2.440 -0.2744  0.4713 -0.2856
14026SOL    HW152392   0.738  10.059   2.424  0.2730  0.3090  2.4327
14026SOL    HW252393   0.590  10.068   2.397 -0.2934 -3.7366  3.5215
14027SOL     OW52394   9.673   7.342   9.103  0.2793 -0.2465  0.1009
14027SOL    HW152395   9.639   7.376   9.185  1.5162  0.2496  0.4392
14027SOL    HW252396   9.762   7.376   9.098  0.3924 -0.6672 -1.2177
14028SOL     OW52397   7.320   8.690   1.407 -0.1327 -0.0736  0.7281
14028SOL    HW152398   7.384   8.739   1.356 -1.5378  0.7277 -0.3466
14028SOL    HW252399   7.283   8.626   1.345 -0.8238 -0.0835  1.1346
14029SOL     OW52400   2.022  12.028  11.629 -0.6175  0.7000  0.2203
14029SOL    HW152401   2.073  11.950  11.650  0.4357  0.9945 -1.1070
14029SOL    HW252402   1.931  12.001  11.639 -0.2539 -0.4546  0.5380
14030SOL     OW52403   5.927   9.740   9.228  0.2218  0.5595 -0.2356
14030SOL    HW152404   5.832   9.727   9.231  0.3167 -0.0452  0.3408
14030SOL    HW252405   5.943   9.773   9.139 -0.3799 -0.6155 -0.8071
14031SOL     OW52406   2.387   6.516   1.902 -0.5361 -0.2243 -0.0820
14031SOL    HW152407   2.448   6.499   1.830 -0.9844 -0.7641 -0.3349
14031SOL    HW252408   2.326   6.580   1.867  0.1318  0.6566  0.3158
14032SOL     OW52409   5.412   0.379   7.533 -0.1067  0.3291 -0.6564
14032SOL    HW152410   5.467   0.360   7.457 -0.8692 -0.3171 -1.0588
14032SOL    HW252411   5.468   0.362   7.609  0.1912 -0.4825 -1.0553
14033SOL     OW52412   6.521   6.601   6.734  0.9765  0.5377  0.5824
14033SOL    HW152413   6.617   6.597   6.733  0.9610  0.1907  0.3402
14033SOL    HW252414   6.495   6.596   6.642  0.7541  1.5187  0.5832
14034SOL     OW52415   7.153   4.076   7.779  0.3953 -0.8086 -0.0398
14034SOL    HW152416   7.178   3.984   7.793  1.1640 -0.3953  1.5522
14034SOL    HW252417   7.060   4.080   7.803  0.0532 -1.3808 -1.2193
14035SOL     OW52418   3.471   5.903  11.471 -0.0340 -0.0990  0.1300
14035SOL    HW152419   3.469   5.831  11.535 -1.0319 -0.8198 -0.6804
14035SOL    HW252420   3.426   5.868  11.394 -0.1242  1.2419 -0.4542
14036SOL     OW52421   3.012   3.674   2.536  0.6288  0.6163  0.1623
14036SOL    HW152422   2.952   3.606   2.508  0.9372  0.4251 -0.0425
14036SOL    HW252423   3.037   3.650   2.625  0.7948  0.4178  0.0637
14037SOL     OW52424   5.442   3.117   1.737 -0.0059 -0.3836 -0.4646
14037SOL    HW152425   5.385   3.161   1.800  2.2968  1.0343  0.7888
14037SOL    HW252426   5.444   3.176   1.662  0.6413  0.1590 -0.0403
14038SOL     OW52427   9.893   8.882   6.411 -0.4189  0.7155  0.3528
14038SOL    HW152428   9.873   8.844   6.325  1.2730  0.3683  0.0849
14038SOL    HW252429   9.869   8.974   6.403  0.5612  0.8907 -0.8122
14039SOL     OW52430  12.679   8.333   0.005  0.0413  0.2365  0.4263
14039SOL    HW152431  12.609   8.273   0.032  0.1963 -0.0580  0.1765
14039SOL    HW252432  12.752   8.313   0.063  0.3679 -0.3828 -0.1877
14040SOL     OW52433   4.259   5.819   9.327 -0.2283  0.4239  0.0371
14040SOL    HW152434   4.335   5.761   9.325  0.4823  1.3251 -0.4706
14040SOL    HW252435   4.296   5.906   9.313 -1.1591  1.1148  1.5428
14041SOL     OW52436   7.345   7.828   2.569 -0.2875 -0.0696 -0.1150
14041SOL    HW152437   7.378   7.846   2.656  1.6287 -2.8400 -0.1768
14041SOL    HW252438   7.412   7.863   2.510  0.1904 -1.3675 -0.3608
14042SOL     OW52439  11.904   4.403   6.637  0.1628 -0.4668 -0.0409
14042SOL    HW152440  11.955   4.436   6.563  1.8529 -0.7751  0.9223
14042SOL    HW252441  11.838   4.470   6.654 -0.2954 -0.4243 -1.8397
14043SOL     OW52442   6.958   0.812   2.853  0.9816 -0.1464 -0.1742
14043SOL    HW152443   6.872   0.779   2.827  0.9971 -0.4832  0.1890
14043SOL    HW252444   7.002   0.831   2.770  1.3200 -1.9465 -0.4511
14044SOL     OW52445   5.138   1.154   5.172 -0.6306 -0.2885 -0.3178
14044SOL    HW152446   5.168   1.101   5.246 -0.8872  2.2733  1.7443
14044SOL    HW252447   5.047   1.126   5.159 -0.4180 -1.1448 -0.0740
14045SOL     OW52448  12.552   0.427  12.249 -0.3862 -0.1659  0.2129
14045SOL    HW152449  12.606   0.366  12.198 -0.1500  0.4482 -0.2727
14045SOL    HW252450  12.522   0.492  12.186  0.2728  0.8609  0.9155
14046SOL     OW52451   8.471   1.393   3.294  0.7631 -0.3130  0.1920
14046SOL    HW152452   8.520   1.328   3.244 -0.1081 -0.5362 -0.3850
14046SOL    HW252453   8.515   1.394   3.380  0.3172 -2.2412  0.4922
14047SOL     OW52454  12.073   4.203  10.195 -0.6057  0.0580  0.4851
14047SOL    HW152455  12.120   4.271  10.244  0.7634 -1.9820  2.1404
14047SOL    HW252456  12.141   4.144  10.163 -1.7711 -0.6582 -0.7941
14048SOL     OW52457   8.089  12.448   4.712 -0.4262  0.0999 -0.0191
14048SOL    HW152458   8.137  12.528   4.733 -1.0742  0.4103  0.3073
14048SOL    HW252459   8.088  12.398   4.793  0.3539 -0.4517 -0.3348
14049SOL     OW52460   1.206   2.950   0.940 -0.0160  0.0671  0.1807
14049SOL    HW152461   1.130   3.008   0.942 -0.0973 -0.0414  0.2640
14049SOL    HW252462   1.243   2.956   1.028 -0.5626 -0.7128  0.4812
14050SOL     OW52463  11.463  11.161  11.209 -0.0491 -0.1350 -0.2829
14050SOL    HW152464  11.455  11.123  11.296 -3.0086 -0.4962 -0.6167
14050SOL    HW252465  11.447  11.255  11.222 -1.1325 -0.2765 -0.4574
14051SOL     OW52466  11.482   4.638   6.254 -0.0571 -0.1534  0.0531
14051SOL    HW152467  11.554   4.633   6.191 -0.2973  0.0729 -0.2446
14051SOL    HW252468  11.513   4.589   6.331 -1.3890 -4.3424 -1.7856
14052SOL     OW52469   9.835   4.856   2.878  0.0966  0.1657 -0.2544
14052SOL    HW152470   9.813   4.947   2.859  0.6732  0.2119 -0.7482
14052SOL    HW252471   9.901   4.834   2.812  0.9758 -0.1891  0.7152
14053SOL     OW52472  12.157  11.303   4.786 -0.4025  0.1218 -0.3905
14053SOL    HW152473  12.084  11.348   4.743 -1.1261 -1.7473 -1.2458
14053SOL    HW252474  12.213  11.274   4.713  1.4170  1.7790  0.2599
14054SOL     OW52475  11.288  10.952   7.768 -0.1068  0.4951  0.0475
14054SOL    HW152476  11.284  10.862   7.734 -0.2459  0.0546  1.1846
14054SOL    HW252477  11.254  11.006   7.696  1.0128 -0.2255 -1.0652
14055SOL     OW52478   4.095   2.964   9.254  0.1873  0.5307 -0.1631
14055SOL    HW152479   4.168   2.935   9.199 -0.2791 -0.4309 -0.2804
14055SOL    HW252480   4.111   3.058   9.265  2.0939  0.1556  0.7940
14056SOL     OW52481  11.798   7.255   5.588 -0.6252  0.2836 -0.0542
14056SOL    HW152482  11.759   7.246   5.502  1.1351  0.0402 -0.8835
14056SOL    HW252483  11.784   7.170   5.630 -1.2429  0.3073 -0.2087
14057SOL     OW52484   2.063  11.282   4.684 -0.3761 -0.5506 -0.5251
14057SOL    HW152485   1.977  11.242   4.668 -0.3908 -1.5262  1.6083
14057SOL    HW252486   2.044  11.364   4.730 -0.2146 -1.6887  1.7396
14058SOL     OW52487   5.193   4.321   2.464  0.0321  0.4023  0.7865
14058SOL    HW152488   5.162   4.242   2.420  0.5911  0.1143  0.8998
14058SOL    HW252489   5.200   4.386   2.395 -0.1311  0.2659  0.6401
14059SOL     OW52490   5.750   9.523   6.633  0.4329 -0.2310  0.1221
14059SOL    HW152491   5.670   9.511   6.582  1.4661 -2.1858 -1.1802
14059SOL    HW252492   5.747   9.455   6.700  0.1459  0.9055  1.3024
14060SOL     OW52493   9.223   1.012   6.054 -0.4121 -0.2841 -0.1697
14060SOL    HW152494   9.223   1.093   6.004 -0.5214  0.6155  1.2360
14060SOL    HW252495   9.232   0.943   5.988  0.3130  0.8881 -1.3427
14061SOL     OW52496   0.482   6.572   8.340  0.0062  0.1081  0.0785
14061SOL    HW152497   0.543   6.528   8.281 -1.0993 -0.1569 -0.9028
14061SOL    HW252498   0.538   6.615   8.404  1.2286 -3.8652  2.0387
14062SOL     OW52499  12.155  11.603   0.663 -0.2155 -0.1937  0.3422
14062SOL    HW152500  12.168  11.678   0.605  0.4873 -0.1336  0.5703
14062SOL    HW252501  12.095  11.546   0.616 -0.1269  0.1389 -0.1764
14063SOL     OW52502  10.856   8.780  11.921 -0.2284  0.2861  0.4792
14063SOL    HW152503  10.942   8.762  11.885 -0.7768  1.0557 -1.3060
14063SOL    HW252504  10.798   8.783  11.845 -1.9302 -0.6475  1.6648
14064SOL     OW52505   0.570  12.921   0.003  0.0811 -0.6286 -0.1104
14064SOL    HW152506   0.625  12.936   0.080  0.8693 -2.7237 -0.2014
14064SOL    HW252507   0.534  12.833   0.016 -0.9756 -0.4184 -1.4352
14065SOL     OW52508   9.274   3.840   4.636 -0.2279  0.4642  0.0006
14065SOL    HW152509   9.191   3.859   4.594 -0.0055  0.7255 -0.3235
14065SOL    HW252510   9.319   3.924   4.640  0.0445  0.3149  0.1219
14066SOL     OW52511   4.252   8.317   7.731  0.2017  0.7341  0.2459
14066SOL    HW152512   4.217   8.265   7.658 -0.0358  1.5909 -0.2623
14066SOL    HW252513   4.347   8.311   7.721  0.1989 -0.3448  0.7336
14067SOL     OW52514   8.204  11.602   8.689 -0.4773 -0.2000  0.0251
14067SOL    HW152515   8.147  11.525   8.681 -0.9459  0.2727 -1.4782
14067SOL    HW252516   8.255  11.585   8.768  0.7920 -2.9867 -1.2368
14068SOL     OW52517   8.767   2.124   3.970 -0.0562 -0.3482  0.2809
14068SOL    HW152518   8.861   2.140   3.966  0.0965 -1.0762  0.8406
14068SOL    HW252519   8.735   2.145   3.882  0.5162  0.5460  0.2715
14069SOL     OW52520   7.340  10.893  11.978  0.6042  0.5747  0.0394
14069SOL    HW152521   7.322  10.880  12.071  1.0324  0.4668  0.1103
14069SOL    HW252522   7.429  10.859  11.966  0.1676 -0.3551 -0.6184
14070SOL     OW52523  10.211   3.279   9.722  0.4803  0.4070  0.1955
14070SOL    HW152524  10.291   3.332   9.722 -0.1986  1.4697 -0.0569
14070SOL    HW252525  10.234   3.202   9.671  2.1077 -0.5530  2.2149
14071SOL     OW52526   5.009   5.452   0.911  0.4348  0.7521  0.1563
14071SOL    HW152527   5.005   5.459   0.816  2.2813  2.1270  0.1255
14071SOL    HW252528   4.951   5.378   0.932  0.4731  0.0168 -2.0590
14072SOL     OW52529   7.873   4.879   5.337 -0.1896  0.0759 -0.1391
14072SOL    HW152530   7.930   4.938   5.387  1.6173 -0.2588 -1.6590
14072SOL    HW252531   7.851   4.809   5.398  1.6351 -0.1233  0.3664
14073SOL     OW52532   4.133   5.517   8.836  0.0445  0.5034  0.1652
14073SOL    HW152533   4.105   5.425   8.838  2.0805 -0.1622  1.3959
14073SOL    HW252534   4.115   5.549   8.925 -0.0098  1.1110 -0.0590
14074SOL     OW52535   4.759   4.174   0.971  0.2668 -1.1874 -0.0248
14074SOL    HW152536   4.821   4.196   1.041  1.9032 -0.9539 -1.4881
14074SOL    HW252537   4.693   4.243   0.975  1.8602  0.4475 -0.4468
14075SOL     OW52538  11.501   1.735   8.551 -0.0028  0.0338 -0.2173
14075SOL    HW152539  11.412   1.758   8.580  0.2194  1.9543 -0.9170
14075SOL    HW252540  11.525   1.659   8.605 -1.1677  0.9129  1.6519
14076SOL     OW52541   6.957  12.462  11.445  0.2957  0.0251 -0.1555
14076SOL    HW152542   6.944  12.539  11.500  3.9644  1.5475 -1.1342
14076SOL    HW252543   7.023  12.410  11.491  0.0959 -0.9859 -0.9817
14077SOL     OW52544   0.771  11.269   0.753 -0.0364 -0.0941 -0.1351
14077SOL    HW152545   0.707  11.251   0.685 -0.3007  0.5193 -0.0608
14077SOL    HW252546   0.744  11.354   0.790 -0.7773 -1.0819  1.7550
14078SOL     OW52547   6.024   1.592   8.371  0.1843 -0.3966  0.0409
14078SOL    HW152548   6.111   1.585   8.331 -0.5544  0.0768 -1.7254
14078SOL    HW252549   6.015   1.513   8.423  1.7597 -0.3432  0.4676
14079SOL     OW52550   5.418  10.919   8.758 -0.3205  0.3626 -0.6171
14079SOL    HW152551   5.399  10.826   8.747  0.4829  0.1747 -0.5141
14079SOL    HW252552   5.476  10.922   8.834 -1.1215  1.0502 -0.0244
14080SOL     OW52553   3.197   7.358   9.405  0.2700 -0.0673 -0.4891
14080SOL    HW152554   3.274   7.404   9.435 -0.9156  1.3161  0.5576
14080SOL    HW252555   3.227   7.268   9.390  1.4685 -0.3191  2.6665
14081SOL     OW52556  11.518   0.606   1.150  0.1677  0.3649 -0.2297
14081SOL    HW152557  11.580   0.625   1.079  1.7104  0.9624  1.2289
14081SOL    HW252558  11.521   0.510   1.159  1.2319  0.4193  0.1134
14082SOL     OW52559  12.350  11.118   1.475 -0.6987 -0.1120  0.3803
14082SOL    HW152560  12.322  11.038   1.431  0.2961 -1.0191  1.3151
14082SOL    HW252561  12.440  11.132   1.444 -0.9733  0.8429 -0.0201
14083SOL     OW52562   7.927   0.271  11.938  0.1253 -0.0369  0.4072
14083SOL    HW152563   7.857   0.214  11.907 -0.8086  0.2880  1.8207
14083SOL    HW252564   7.943   0.331  11.865 -2.9811  1.6051  0.9022
14084SOL     OW52565  11.657   7.128   1.732 -0.0188 -0.4453  0.3866
14084SOL    HW152566  11.732   7.174   1.769  0.7258 -0.4723 -0.9928
14084SOL    HW252567  11.583   7.155   1.786  0.4770  1.9599  0.0073
14085SOL     OW52568   8.255   9.581   8.774  0.9260  0.1301 -0.2787
14085SOL    HW152569   8.255   9.548   8.863  0.9499  1.2474  0.1542
14085SOL    HW252570   8.165   9.569   8.744  0.8186  0.1254  0.0418
14086SOL     OW52571   1.522   0.264   0.909 -0.2110 -0.9277 -0.1278
14086SOL    HW152572   1.602   0.255   0.857  0.9101 -2.2236  1.7451
14086SOL    HW252573   1.534   0.205   0.983 -0.7145  2.4264  2.8851
14087SOL     OW52574  12.416   3.432   1.378  0.3013 -0.3857  0.8199
14087SOL    HW152575  12.371   3.356   1.416  0.9414 -0.3375  1.7124
14087SOL    HW252576  12.440   3.404   1.289  2.0659 -1.9244  1.7033
14088SOL     OW52577   7.920   6.102   2.917  0.1001 -0.8609 -0.8084
14088SOL    HW152578   7.833   6.115   2.956  0.6733  1.8017 -0.1901
14088SOL    HW252579   7.904   6.099   2.823 -0.8681 -2.9259 -0.6191
14089SOL     OW52580   9.049  12.098  12.921 -0.3843 -0.6875  0.3694
14089SOL    HW152581   9.036  12.122  12.830  2.8313 -0.5144 -0.1710
14089SOL    HW252582   9.073  12.005  12.918 -1.9491 -1.1663  1.2884
14090SOL     OW52583   8.152   9.046   0.851 -0.2994  0.0439 -0.6111
14090SOL    HW152584   8.069   9.079   0.884 -0.0041  0.1404  0.0644
14090SOL    HW252585   8.216   9.072   0.918  0.4484  0.9246 -1.6398
14091SOL     OW52586  12.556   3.715   3.248  0.3033  0.1917 -0.2147
14091SOL    HW152587  12.476   3.664   3.264 -0.6084  2.4426  3.8343
14091SOL    HW252588  12.526   3.792   3.200  0.1173  0.5995  0.5252
14092SOL     OW52589   5.838   8.687   6.386 -0.8832 -0.1399 -0.0567
14092SOL    HW152590   5.774   8.676   6.315 -0.2005  0.4149 -0.7780
14092SOL    HW252591   5.877   8.600   6.395 -1.7450 -0.4843  0.3981
14093SOL     OW52592   5.987   0.242   1.330 -0.0876 -0.5492  0.1460
14093SOL    HW152593   6.014   0.310   1.391  2.4597 -1.6659  0.4158
14093SOL    HW252594   5.892   0.241   1.335 -0.0552 -0.9145  4.4794
14094SOL     OW52595   2.331  11.928   3.041  0.0948  0.1366  0.4345
14094SOL    HW152596   2.268  11.997   3.062 -0.2392 -0.3585  1.0908
14094SOL    HW252597   2.302  11.852   3.092  1.3325 -0.0477  0.9110
14095SOL     OW52598   9.077  12.885   5.443  0.8485 -0.0736  0.0011
14095SOL    HW152599   9.042  12.812   5.391  0.3241 -1.2338  1.8771
14095SOL    HW252600   9.091  12.847   5.530 -1.5459  2.5732  1.6947
14096SOL     OW52601   5.597  12.484   1.549  0.0628 -0.2124 -0.0803
14096SOL    HW152602   5.525  12.486   1.486  1.1176 -1.2295 -1.3966
14096SOL    HW252603   5.652  12.559   1.525  0.6086 -0.7590 -0.5780
14097SOL     OW52604  11.604  10.743   7.102 -0.0388  0.1642 -0.6641
14097SOL    HW152605  11.613  10.809   7.171  2.8811 -1.8343  1.0817
14097SOL    HW252606  11.519  10.702   7.119  0.6396 -0.3758  1.9605
14098SOL     OW52607  12.324   2.423   3.888 -0.1697  0.5044  0.0528
14098SOL    HW152608  12.234   2.435   3.858  0.7653  0.8169 -2.8871
14098SOL    HW252609  12.364   2.510   3.880  1.0910 -0.1529 -1.3965
14099SOL     OW52610   8.776   6.281   2.136 -0.0052 -0.0994 -0.0397
14099SOL    HW152611   8.847   6.312   2.081  0.3028 -0.6135  0.0657
14099SOL    HW252612   8.770   6.346   2.206 -1.3207  1.3299 -1.3990
14100SOL     OW52613   1.446  12.915   8.250 -0.2432 -0.0454  0.0032
14100SOL    HW152614   1.410  13.003   8.256 -0.6200 -0.1943 -0.0269
14100SOL    HW252615   1.413  12.870   8.328 -0.7570 -0.4060 -0.4120
14101SOL     OW52616   2.920   4.890   8.897  0.0022 -0.6490 -0.2134
14101SOL    HW152617   2.873   4.825   8.844 -0.5584 -1.8314  1.6448
14101SOL    HW252618   3.008   4.855   8.907 -0.0426 -0.6902  0.0525
14102SOL     OW52619  10.103   3.241  12.183  0.8276  0.3345 -0.6518
14102SOL    HW152620  10.198   3.246  12.191  0.6639  1.2627  1.1850
14102SOL    HW252621  10.074   3.201  12.265 -0.3860 -0.0223 -1.2192
14103SOL     OW52622   6.833   7.956   1.333  0.0806  0.0411 -0.2935
14103SOL    HW152623   6.784   7.874   1.330  1.3145 -0.9961  3.0754
14103SOL    HW252624   6.899   7.947   1.263 -0.6597 -1.2206 -0.8732
14104SOL     OW52625   0.162   6.024  10.325  0.1260  0.4310  0.4431
14104SOL    HW152626   0.132   6.087  10.391 -1.1591 -0.4504  0.7485
14104SOL    HW252627   0.187   6.077  10.250 -1.0546  1.3031  0.6499
14105SOL     OW52628   8.119   8.862   1.991 -0.2208  0.1855 -0.2730
14105SOL    HW152629   8.112   8.833   2.082 -2.2109 -0.1754 -0.5012
14105SOL    HW252630   8.210   8.843   1.967 -0.2582 -1.8566  0.9350
14106SOL     OW52631   6.754   2.620   4.255  0.7046 -0.3803 -0.0318
14106SOL    HW152632   6.699   2.652   4.184 -0.5836 -2.2742  0.0608
14106SOL    HW252633   6.778   2.699   4.304 -1.4505  0.5724 -0.4034
14107SOL     OW52634   7.437   0.995   0.231 -0.0241  0.1190 -0.1110
14107SOL    HW152635   7.416   1.053   0.305  0.2013  0.9251 -0.6590
14107SOL    HW252636   7.360   0.940   0.222  0.1228 -0.2979  1.0025
14108SOL     OW52637   7.112  11.379   5.223  0.0495 -0.0926  0.4893
14108SOL    HW152638   7.169  11.442   5.266  0.5760 -0.1089 -0.1656
14108SOL    HW252639   7.035  11.429   5.196 -0.5800 -0.2058  1.9740
14109SOL     OW52640  10.277   3.539   9.954 -0.0167  0.7789  0.2181
14109SOL    HW152641  10.210   3.576   9.896  0.0325  0.0883 -0.2778
14109SOL    HW252642  10.358   3.545   9.905 -0.2836 -1.6025 -0.5984
14110SOL     OW52643   8.071   4.324   9.252 -0.1247 -0.5944  0.6306
14110SOL    HW152644   8.111   4.377   9.183 -0.3751 -1.0300  0.1403
14110SOL    HW252645   7.993   4.287   9.211 -1.7799  1.2599  1.9285
14111SOL     OW52646   8.441  10.991  10.137 -0.0645 -0.2055  0.8351
14111SOL    HW152647   8.458  11.064  10.197 -1.1064  0.7366  0.0173
14111SOL    HW252648   8.359  10.952  10.169 -1.5406  1.3301 -0.8641
14112SOL     OW52649   1.083  11.175   3.694 -0.1727  0.1568  0.3666
14112SOL    HW152650   1.114  11.122   3.768  0.5601 -0.5155 -0.3979
14112SOL    HW252651   1.156  11.234   3.675 -0.0860 -0.1336 -0.2358
14113SOL     OW52652   0.936   3.092   3.485 -0.4168  0.0243 -0.3341
14113SOL    HW152653   1.026   3.070   3.509 -0.5490 -1.0568 -0.7534
14113SOL    HW252654   0.937   3.101   3.390 -0.7829 -0.1950 -0.3640
14114SOL     OW52655   5.647   2.716  10.590  0.0651  0.4744  0.3617
14114SOL    HW152656   5.721   2.658  10.567 -0.4565  0.3054 -1.0037
14114SOL    HW252657   5.674   2.802  10.559 -0.0782  0.5287  0.3888
14115SOL     OW52658   9.227   2.104   5.292 -0.4472 -0.3237 -0.1338
14115SOL    HW152659   9.210   2.107   5.198 -0.8082 -0.0302 -0.0585
14115SOL    HW252660   9.206   2.192   5.323 -1.5686 -0.7748  0.4337
14116SOL     OW52661   7.031  11.712  10.152 -0.2896  0.1622  0.3782
14116SOL    HW152662   6.969  11.785  10.147 -0.3040  0.0972 -0.4206
14116SOL    HW252663   7.035  11.677  10.063  1.9196  1.0087  0.0748
14117SOL     OW52664   9.349   4.031   5.729 -0.3095  0.2215 -0.3871
14117SOL    HW152665   9.433   4.073   5.747 -0.7211  1.3072 -0.9253
14117SOL    HW252666   9.372   3.941   5.704  0.3902 -1.1003  4.1740
14118SOL     OW52667  11.924   9.788   0.020  0.0351 -0.4819 -0.5728
14118SOL    HW152668  11.872   9.857   0.063  0.7362 -0.4623  0.2774
14118SOL    HW252669  11.907   9.799  -0.073  0.2699  0.9725 -0.4648
14119SOL     OW52670   6.729   0.567   0.099 -0.4357  0.2163 -0.2569
14119SOL    HW152671   6.816   0.601   0.122 -1.0127 -0.9423  4.9222
14119SOL    HW252672   6.732   0.475   0.126 -3.4720  0.3879  1.0065
14120SOL     OW52673  11.978   2.102   3.465 -0.1837  0.3118  0.5752
14120SOL    HW152674  11.930   2.091   3.546 -0.3682 -0.9192  0.3109
14120SOL    HW252675  11.934   2.044   3.402  3.0878 -2.8879  0.9527
14121SOL     OW52676  10.401  11.334  12.090  0.1805  0.1292  0.4838
14121SOL    HW152677  10.464  11.355  12.022 -2.4384  1.3508 -1.7539
14121SOL    HW252678  10.378  11.243  12.074  1.0573 -0.2186  1.1009
14122SOL     OW52679   5.172   1.816   3.226 -0.0097  0.4530  0.2007
14122SOL    HW152680   5.193   1.848   3.138  1.2075  0.0706  0.3401
14122SOL    HW252681   5.233   1.861   3.284  0.7144 -0.9506  0.5754
14123SOL     OW52682   0.176   9.251   5.131 -0.0415 -0.0710 -0.4734
14123SOL    HW152683   0.259   9.228   5.088 -0.4461 -1.1939 -0.6918
14123SOL    HW252684   0.192   9.236   5.224  0.3756  0.9315 -0.3692
14124SOL     OW52685   0.983   4.712  10.833 -0.0221  0.2090 -0.8163
14124SOL    HW152686   1.065   4.759  10.813 -0.6057  2.8281  2.1759
14124SOL    HW252687   1.007   4.620  10.829  2.7872  0.8625 -1.2106
14125SOL     OW52688  11.639   9.690   9.192 -0.1732  0.3979 -0.1753
14125SOL    HW152689  11.566   9.731   9.239 -0.6341 -0.4212 -0.1609
14125SOL    HW252690  11.703   9.761   9.181 -0.2458  0.7364  1.2851
14126SOL     OW52691   8.455  11.530   3.059 -0.4161  0.1665  0.2336
14126SOL    HW152692   8.434  11.499   3.147  0.0871  2.4354  1.2089
14126SOL    HW252693   8.379  11.505   3.007 -1.3367 -0.0219  1.6060
14127SOL     OW52694   7.440  11.856   6.822  0.3510 -0.4445 -0.2949
14127SOL    HW152695   7.497  11.933   6.813 -0.5805  0.2817 -0.0955
14127SOL    HW252696   7.498  11.781   6.805  1.8635  0.1219  1.9322
14128SOL     OW52697   6.023   6.856   2.854  0.1042  0.2110  0.3167
14128SOL    HW152698   5.967   6.801   2.909  0.4913 -2.1050 -1.4229
14128SOL    HW252699   6.066   6.916   2.915 -2.0111  0.1110  2.0568
14129SOL     OW52700   3.000   8.123   5.000 -0.4618  0.6251 -0.5551
14129SOL    HW152701   3.004   8.030   5.023  0.1849  0.3996 -1.4703
14129SOL    HW252702   2.924   8.157   5.046 -2.2885 -0.9651 -2.1997
14130SOL     OW52703   7.281  10.452   6.444  0.1472  0.4747 -0.2735
14130SOL    HW152704   7.282  10.483   6.354  1.3762  0.4886 -0.2795
14130SOL    HW252705   7.205  10.494   6.484 -0.9144 -0.2123 -1.5128
14131SOL     OW52706  12.559   6.900  12.071  0.0143 -0.3486 -0.3524
14131SOL    HW152707  12.520   6.837  12.131  0.6343 -0.7815 -0.3932
14131SOL    HW252708  12.518   6.983  12.094  0.1250 -0.5312  0.5707
14132SOL     OW52709   4.010  11.102   9.972  0.2066  0.2618 -0.1012
14132SOL    HW152710   4.015  11.197   9.960  2.0519  0.3489  0.9581
14132SOL    HW252711   4.012  11.066   9.884  2.3088  1.1481 -0.4674
14133SOL     OW52712  10.542  11.634   2.422  0.3190 -0.3511  0.5072
14133SOL    HW152713  10.601  11.700   2.457 -1.3957  0.6494  1.6856
14133SOL    HW252714  10.484  11.682   2.363  0.1870 -1.1431 -0.0212
14134SOL     OW52715   3.546   8.267   1.933  0.6924 -0.4929  0.8115
14134SOL    HW152716   3.603   8.286   1.858  0.8975 -2.4626  0.4044
14134SOL    HW252717   3.606   8.264   2.008  1.0694 -1.9415  0.4812
14135SOL     OW52718   2.393   5.687   9.178 -0.3448  0.3038 -0.4748
14135SOL    HW152719   2.463   5.633   9.143 -0.9895 -0.5109 -0.5477
14135SOL    HW252720   2.335   5.703   9.104 -0.4315  0.6495 -0.3348
14136SOL     OW52721   1.126  11.587   3.975  0.4614 -0.2423 -0.5257
14136SOL    HW152722   1.157  11.507   4.018  1.5425 -0.2869 -1.3381
14136SOL    HW252723   1.036  11.566   3.949 -0.3525 -0.0719  1.9677
14137SOL     OW52724   8.883   1.398   2.285  0.0206 -0.2229 -0.6011
14137SOL    HW152725   8.859   1.476   2.334  0.0618  0.4439 -1.6157
14137SOL    HW252726   8.957   1.426   2.231  0.4542 -1.1417 -0.5047
14138SOL     OW52727   4.507   9.895  10.113 -0.2185  0.5446  0.3526
14138SOL    HW152728   4.552   9.869  10.033  0.5969  0.7698  0.7327
14138SOL    HW252729   4.517   9.820  10.172 -1.0150  0.2851  0.1825
14139SOL     OW52730   6.606   9.986  10.606 -0.1955 -0.6850 -0.1146
14139SOL    HW152731   6.538   9.943  10.555  0.4629 -1.0383 -0.7197
14139SOL    HW252732   6.688   9.947  10.574  0.2476 -0.7632  1.0561
14140SOL     OW52733   9.560  11.479   8.160 -0.7407 -0.1011 -0.1470
14140SOL    HW152734   9.474  11.519   8.151 -0.7463 -0.2761 -0.9367
14140SOL    HW252735   9.543  11.385   8.158 -0.4628 -0.1380 -1.0459
14141SOL     OW52736   7.354   2.370   8.944 -0.1675  0.1039  0.1576
14141SOL    HW152737   7.276   2.318   8.922  0.0231  0.0766 -0.4662
14141SOL    HW252738   7.350   2.445   8.885  0.5056 -0.1177 -0.1852
14142SOL     OW52739   3.668   7.517   5.907 -0.2765  0.2863  0.0888
14142SOL    HW152740   3.593   7.460   5.927  0.5423 -0.6928  0.4272
14142SOL    HW252741   3.741   7.477   5.953  0.4664  1.2349 -0.2455
14143SOL     OW52742   8.142   4.736   2.833 -0.7601 -0.2176 -0.1944
14143SOL    HW152743   8.055   4.733   2.795 -1.1398 -1.0171  0.7253
14143SOL    HW252744   8.197   4.689   2.770 -1.0967 -0.2472 -0.4701
14144SOL     OW52745  12.165   0.326   5.711  0.5719  0.0947 -0.1662
14144SOL    HW152746  12.080   0.371   5.721  0.3631 -0.1555 -0.8141
14144SOL    HW252747  12.154   0.272   5.633  1.2496 -0.1302 -0.1024
14145SOL     OW52748   0.176   6.054   5.275 -0.5816 -0.0979 -0.3062
14145SOL    HW152749   0.094   6.060   5.225 -0.8383 -0.1935  0.0971
14145SOL    HW252750   0.239   6.105   5.224 -1.6453  2.5950  0.8850
14146SOL     OW52751   8.059   5.793   5.002  0.4345  0.3177 -0.2088
14146SOL    HW152752   8.069   5.710   5.049 -0.9780  0.3594  0.2336
14146SOL    HW252753   8.033   5.856   5.070  0.5479  0.8904 -0.6915
14147SOL     OW52754   7.684   6.051   3.066 -0.6192  0.1457 -0.2084
14147SOL    HW152755   7.623   6.067   3.138 -1.5920 -1.1282 -0.7263
14147SOL    HW252756   7.643   5.983   3.013  1.4694 -1.1903 -0.2677
14148SOL     OW52757  12.338   0.730   1.933 -0.5621  0.2311  0.0781
14148SOL    HW152758  12.247   0.723   1.905 -1.1791 -1.2775  2.1464
14148SOL    HW252759  12.335   0.787   2.010  0.1669 -0.0929  0.3591
14149SOL     OW52760  11.885  10.589   5.369  0.5101 -0.0984  0.1003
14149SOL    HW152761  11.807  10.538   5.344  0.9373  0.0660 -1.7030
14149SOL    HW252762  11.895  10.573   5.463 -1.7960  0.0103  0.4232
14150SOL     OW52763  11.741  12.803   0.441  0.1144 -0.2585  0.4525
14150SOL    HW152764  11.810  12.737   0.437 -0.0357 -0.3587 -0.7352
14150SOL    HW252765  11.673  12.763   0.494  0.2140 -0.8842  0.1140
14151SOL     OW52766   0.206   5.609  12.611 -0.3693 -0.1516 -0.0224
14151SOL    HW152767   0.186   5.619  12.518  1.2751  0.6693 -0.3213
14151SOL    HW252768   0.178   5.520  12.632 -0.3089 -0.5232 -1.4108
14152SOL     OW52769   5.278  12.509   5.334  0.4703 -0.7634 -0.6272
14152SOL    HW152770   5.360  12.493   5.382  0.7088 -2.0876 -1.4127
14152SOL    HW252771   5.281  12.447   5.261 -1.0280 -0.5133 -0.9313
14153SOL     OW52772   0.199   7.662   8.233 -0.5539  0.6385 -0.5610
14153SOL    HW152773   0.115   7.622   8.210 -0.9786  1.0632  0.2202
14153SOL    HW252774   0.180   7.756   8.241 -0.4315  0.5513  1.3685
14154SOL     OW52775   9.720   7.037   0.784  0.3346 -0.2216 -0.0837
14154SOL    HW152776   9.692   7.128   0.799 -0.4610 -0.6895  1.4545
14154SOL    HW252777   9.815   7.040   0.791  0.4848  0.8161 -2.0097
14155SOL     OW52778   9.874   3.294  10.645  0.0823  0.2134  0.1693
14155SOL    HW152779   9.916   3.220  10.689  2.2007  0.1802 -1.7132
14155SOL    HW252780   9.920   3.371  10.678  0.0465  0.3895 -0.1799
14156SOL     OW52781   6.828   1.751   8.693 -0.0318  0.3921  0.0342
14156SOL    HW152782   6.813   1.659   8.715 -1.0839  0.5572  0.0729
14156SOL    HW252783   6.920   1.766   8.716  0.5089 -0.9479 -1.0793
14157SOL     OW52784   9.384   6.902   4.789  0.3509  0.0715  0.6187
14157SOL    HW152785   9.397   6.845   4.865 -0.6912 -0.6558  0.2712
14157SOL    HW252786   9.289   6.906   4.778  0.4697 -1.4858 -1.8410
14158SOL     OW52787   9.640   7.488   3.014 -0.1444  0.0866  0.7093
14158SOL    HW152788   9.559   7.450   2.980 -0.6349  0.2390  1.6707
14158SOL    HW252789   9.625   7.583   3.010  0.0477  0.1187  0.7452
14159SOL     OW52790   2.586   1.478   6.136 -0.0903 -0.1932  0.3128
14159SOL    HW152791   2.519   1.535   6.175  0.3941  0.0017  0.8856
14159SOL    HW252792   2.669   1.517   6.164  0.2925  0.2115 -1.2984
14160SOL     OW52793  10.252  11.990   3.361 -0.6798 -0.0884  0.5145
14160SOL    HW152794  10.322  12.033   3.312 -0.7087 -1.2577 -0.5774
14160SOL    HW252795  10.186  11.970   3.296 -1.9243  0.6975  1.4773
14161SOL     OW52796   8.292   1.479  10.434  0.4552  0.6230  0.3059
14161SOL    HW152797   8.268   1.388  10.454  2.8615 -0.0705  0.3371
14161SOL    HW252798   8.241   1.531  10.496 -1.1940 -0.6378  0.0999
14162SOL     OW52799  10.685  10.017  10.375  0.2624  0.1051  0.0058
14162SOL    HW152800  10.712   9.934  10.414 -3.9734 -0.8039  1.5924
14162SOL    HW252801  10.619   9.992  10.311  0.1072  2.1900 -0.7120
14163SOL     OW52802   2.286   8.869  10.788 -0.4852  0.0043  0.0818
14163SOL    HW152803   2.235   8.911  10.858 -0.0503  1.2116 -0.3021
14163SOL    HW252804   2.295   8.937  10.721  0.5821 -0.5862 -0.3942
14164SOL     OW52805   6.113   4.136   9.412  0.0762 -0.0719 -0.0666
14164SOL    HW152806   6.118   4.152   9.506 -1.0882  1.3695 -0.2027
14164SOL    HW252807   6.204   4.143   9.381  0.3752  0.1713  0.8435
14165SOL     OW52808   6.928   8.513   6.562 -0.6143 -0.7186 -0.1776
14165SOL    HW152809   6.902   8.544   6.475  0.0188  1.6233  0.4008
14165SOL    HW252810   6.848   8.480   6.601 -1.3511  0.1970 -0.8701
14166SOL     OW52811  10.254  11.281   4.642 -0.2111  0.1719  0.2049
14166SOL    HW152812  10.166  11.295   4.678  0.0388  0.9612  0.5343
14166SOL    HW252813  10.281  11.368   4.612  0.0260 -0.2669 -0.9069
14167SOL     OW52814  10.860   4.010  11.279 -0.0364 -0.1026  0.3854
14167SOL    HW152815  10.839   4.004  11.372 -1.0818  1.2866  0.2665
14167SOL    HW252816  10.918   3.936  11.262  1.2645  0.3783  2.4349
14168SOL     OW52817   4.548  11.242  10.458  0.1744 -0.0441  0.4072
14168SOL    HW152818   4.497  11.161  10.454 -0.1886  0.0402  2.3628
14168SOL    HW252819   4.488  11.305  10.498  0.5523  1.1255 -0.8171
14169SOL     OW52820   5.584   8.978  12.947 -0.1055  0.2239  0.6655
14169SOL    HW152821   5.551   9.067  12.955 -1.9325 -0.5478  3.6106
14169SOL    HW252822   5.516   8.932  12.898  0.5567  0.3125 -0.3465
14170SOL     OW52823   6.001   1.005   7.630  0.3541 -0.3190 -0.7850
14170SOL    HW152824   5.959   1.090   7.643  0.8712 -0.0133 -1.1331
14170SOL    HW252825   6.038   1.008   7.542  0.7394 -0.7462 -0.6449
14171SOL     OW52826   4.920   6.956   6.055  0.7383 -0.0558 -0.0049
14171SOL    HW152827   4.922   6.953   6.151  0.0551  0.1830  0.0231
14171SOL    HW252828   4.837   7.000   6.034  0.2874 -1.1878 -0.7303
14172SOL     OW52829   5.100   7.961   8.344  0.4974 -0.0743  0.1575
14172SOL    HW152830   5.103   7.875   8.385  1.2240  0.2736  0.8675
14172SOL    HW252831   5.061   8.018   8.411  0.5152  0.2521 -0.1058
14173SOL     OW52832  12.939   2.628   3.814  0.6813  0.0133 -0.2813
14173SOL    HW152833  12.856   2.631   3.862  1.3897  0.5469  0.9333
14173SOL    HW252834  12.933   2.547   3.762 -0.5261 -0.0388 -0.0851
14174SOL     OW52835  12.606   9.969   4.153  0.3421 -0.1237 -0.2405
14174SOL    HW152836  12.534   9.933   4.102 -0.2390  0.1694  0.3662
14174SOL    HW252837  12.609  10.062   4.129 -0.0348  0.0485  0.3755
14175SOL     OW52838   8.892   8.868  10.551  0.5050  0.2299 -0.7647
14175SOL    HW152839   8.805   8.843  10.520 -0.1836  0.9318  0.5263
14175SOL    HW252840   8.897   8.834  10.640  1.6839 -0.0676 -0.9204
14176SOL     OW52841   9.138   7.900   0.293 -0.0684 -0.0858 -0.2398
14176SOL    HW152842   9.117   7.895   0.200  1.4647 -0.9959 -0.5669
14176SOL    HW252843   9.130   7.810   0.324 -0.1884  0.1511  0.4260
14177SOL     OW52844  11.793   4.883   8.111  0.0905 -0.4512  0.3278
14177SOL    HW152845  11.882   4.873   8.146 -0.1842  0.3182  1.3276
14177SOL    HW252846  11.806   4.917   8.023  0.8117  1.2072  1.0146
14178SOL     OW52847  12.289   6.963   7.037  0.5955  0.0266  0.2480
14178SOL    HW152848  12.263   6.940   7.126  1.4205  0.8419  0.7220
14178SOL    HW252849  12.351   6.895   7.012 -2.9955 -2.9532 -1.5476
14179SOL     OW52850   7.583   0.883   7.613 -0.6147  0.0916  0.3738
14179SOL    HW152851   7.613   0.896   7.703  1.6418 -0.2628 -0.2527
14179SOL    HW252852   7.530   0.803   7.617 -0.4899  0.0471  1.3793
14180SOL     OW52853  10.244   6.571   3.258  0.5406  0.3876  0.3050
14180SOL    HW152854  10.198   6.641   3.211 -0.7302  1.2125  2.6117
14180SOL    HW252855  10.290   6.617   3.329  1.0569 -0.9448  0.8638
14181SOL     OW52856   0.585   0.712   2.377  0.6036  0.4702 -0.1595
14181SOL    HW152857   0.511   0.759   2.340  1.0347  1.2217 -0.0930
14181SOL    HW252858   0.636   0.780   2.423  1.2365 -0.0592 -0.0654
14182SOL     OW52859   5.588   6.842   3.819 -0.4435  0.3296  0.2780
14182SOL    HW152860   5.623   6.768   3.868 -0.7069  0.2393  0.3317
14182SOL    HW252861   5.655   6.911   3.828 -0.1934  0.0950  0.2130
14183SOL     OW52862   9.853   0.228   2.740  1.1295  0.4431  0.1593
14183SOL    HW152863   9.867   0.319   2.764  2.9362  0.3248 -0.2607
14183SOL    HW252864   9.937   0.200   2.704  0.4526 -1.2400 -0.2113
14184SOL     OW52865   2.214   3.412   9.072  0.2586  0.5363  0.1172
14184SOL    HW152866   2.197   3.319   9.089  2.1693  0.1598  0.1986
14184SOL    HW252867   2.214   3.420   8.977 -0.1988  0.5162  0.1152
14185SOL     OW52868   6.946   8.376   9.762  0.0969 -0.1936  0.2681
14185SOL    HW152869   6.989   8.412   9.840 -1.2630  2.3174 -0.0269
14185SOL    HW252870   6.971   8.435   9.691  0.0549 -1.5268 -0.8933
14186SOL     OW52871   3.354   9.949  11.228  0.5039 -0.0997  0.4854
14186SOL    HW152872   3.444   9.958  11.196  1.1075 -1.6006  1.6432
14186SOL    HW252873   3.347   9.858  11.257 -1.1370  0.1972  1.1686
14187SOL     OW52874  10.452   5.604   2.909 -0.0840 -0.2816  0.1692
14187SOL    HW152875  10.495   5.617   2.825 -0.0988  0.5387  0.2869
14187SOL    HW252876  10.391   5.531   2.894  0.7882 -0.9582 -0.1962
14188SOL     OW52877   5.090   6.418  10.770 -0.4381 -0.4856 -0.2645
14188SOL    HW152878   5.157   6.364  10.812 -0.5368 -0.4783 -0.1000
14188SOL    HW252879   5.137   6.464  10.700  0.3540  1.6604  1.5838
14189SOL     OW52880   7.508   3.641   6.510 -0.0887  0.4580 -0.0967
14189SOL    HW152881   7.519   3.548   6.488 -1.2578  0.9401 -3.1212
14189SOL    HW252882   7.582   3.684   6.467  0.3977  1.0165  1.2250
14190SOL     OW52883   1.926   0.373   5.325 -0.2176 -0.4462  0.5765
14190SOL    HW152884   2.015   0.401   5.345  0.6206 -2.1596 -0.4845
14190SOL    HW252885   1.909   0.302   5.386 -0.1814 -1.2581 -0.3346
14191SOL     OW52886   4.696   0.367  12.260 -0.1897  0.0010 -0.3641
14191SOL    HW152887   4.607   0.380  12.293  1.1912  0.3085  3.8911
14191SOL    HW252888   4.735   0.454  12.263  0.3746 -0.1641 -2.0273
14192SOL     OW52889   5.484   8.004   5.268  0.6453  0.2458  0.7509
14192SOL    HW152890   5.540   7.935   5.232 -0.8819 -0.7942  0.2948
14192SOL    HW252891   5.486   7.990   5.362 -0.3825 -1.0351  0.6078
14193SOL     OW52892   4.156   1.657  11.996 -0.6836 -0.1970  0.1458
14193SOL    HW152893   4.096   1.583  11.984 -0.7986 -0.2209  0.8237
14193SOL    HW252894   4.197   1.668  11.911  0.1016 -1.7208  0.2823
14194SOL     OW52895   0.098  12.082   5.759 -0.1266 -0.4655 -0.2443
14194SOL    HW152896   0.065  12.125   5.680 -1.4215  0.2136  0.6259
14194SOL    HW252897   0.021  12.072   5.815  0.8147 -0.6354  1.0711
14195SOL     OW52898   4.091   9.614   7.665  0.1655  0.0926  0.4691
14195SOL    HW152899   4.010   9.613   7.716 -0.1560  0.4456 -0.0159
14195SOL    HW252900   4.061   9.619   7.574  0.7315 -0.0308  0.2717
14196SOL     OW52901   2.829  11.809   7.684 -0.1389  0.3791 -0.1820
14196SOL    HW152902   2.813  11.818   7.590 -2.7065 -1.4608 -0.0236
14196SOL    HW252903   2.755  11.853   7.726 -1.9824 -3.2566  0.7792
14197SOL     OW52904  12.148   9.525  12.935 -0.0206  0.4456 -0.4741
14197SOL    HW152905  12.103   9.543  12.852 -1.1347  0.1286  0.0536
14197SOL    HW252906  12.100   9.452  12.973  0.0453  1.0314  0.7778
14198SOL     OW52907   2.058  11.172   9.931  0.1862  0.2512  0.1461
14198SOL    HW152908   2.023  11.125  10.007 -0.2065  0.2523 -0.0334
14198SOL    HW252909   1.981  11.210   9.889  0.3021 -0.4840 -0.7615
14199SOL     OW52910   4.350   6.266   8.395  0.3135 -0.3712 -0.4138
14199SOL    HW152911   4.272   6.247   8.342  0.2666  0.8250 -0.8002
14199SOL    HW252912   4.423   6.248   8.336  0.3044 -0.5755 -0.3620
14200SOL     OW52913   1.186  10.327  10.352 -0.0585  0.2196  0.0387
14200SOL    HW152914   1.253  10.385  10.317  1.3405 -1.9479 -1.1388
14200SOL    HW252915   1.193  10.335  10.447  2.0702 -0.0828 -0.0408
14201SOL     OW52916   4.820   6.979   9.808 -0.1990 -0.4992 -0.0373
14201SOL    HW152917   4.856   6.967   9.896  1.4813 -0.9533 -0.7509
14201SOL    HW252918   4.876   7.045   9.767  1.2705 -2.7383 -1.8992
14202SOL     OW52919   0.874   7.523  11.652 -0.0181  0.3915 -0.5787
14202SOL    HW152920   0.852   7.604  11.699 -1.9723 -0.1988 -0.3733
14202SOL    HW252921   0.844   7.453  11.710  2.8358 -0.6017 -0.1366
14203SOL     OW52922   5.835  11.322   0.003 -0.0297 -0.2868 -0.2954
14203SOL    HW152923   5.838  11.390   0.071  0.1797  0.8665 -1.4195
14203SOL    HW252924   5.903  11.260   0.029  1.8009  1.4185 -0.7037
14204SOL     OW52925   3.656  11.759   2.130  0.1944  0.1909  0.3520
14204SOL    HW152926   3.596  11.686   2.147  2.1194 -1.1817  1.6084
14204SOL    HW252927   3.618  11.804   2.054 -2.7127 -0.2143  1.4475
14205SOL     OW52928   1.323   5.979  10.186 -0.0440  0.0224  0.7530
14205SOL    HW152929   1.293   6.032  10.260  0.7008  0.7311  0.5608
14205SOL    HW252930   1.408   5.945  10.213  0.2489  0.3138  0.2173
14206SOL     OW52931  10.893   8.046   4.137 -0.3433 -0.2286  0.0022
14206SOL    HW152932  10.891   8.044   4.041 -0.4595 -2.8551 -0.0157
14206SOL    HW252933  10.985   8.061   4.159 -0.4382  1.2276 -0.4672
14207SOL     OW52934  12.655   8.952   1.556 -0.2151 -0.0365  0.0531
14207SOL    HW152935  12.590   8.936   1.487 -0.5000  2.2951 -0.3026
14207SOL    HW252936  12.659   8.869   1.604 -1.1703 -1.2347 -1.7834
14208SOL     OW52937   4.571   9.502   7.214  0.0413 -0.0579 -0.2317
14208SOL    HW152938   4.594   9.553   7.292  1.1037 -0.6184 -0.1645
14208SOL    HW252939   4.546   9.569   7.150  0.5711  0.5100  0.1311
14209SOL     OW52940   0.365  10.255   2.226 -0.1071 -0.4048 -0.5135
14209SOL    HW152941   0.406  10.337   2.200  1.2634 -1.2424 -1.0493
14209SOL    HW252942   0.279  10.282   2.261  1.1708  1.4939  1.4827
14210SOL     OW52943   2.207   6.450   0.619  0.1996  0.0742  0.2807
14210SOL    HW152944   2.255   6.442   0.536 -0.0607  0.5042  0.0846
14210SOL    HW252945   2.122   6.487   0.593  0.4634  1.1076  0.8580
14211SOL     OW52946   7.783   1.534  10.660  0.2063  0.3728 -0.0349
14211SOL    HW152947   7.710   1.562  10.605  0.4404  1.2000  0.0681
14211SOL    HW252948   7.818   1.615  10.696  1.6689  0.0527 -0.6999
14212SOL     OW52949   6.014   6.463   9.623  0.1166  0.0875  0.3334
14212SOL    HW152950   6.062   6.487   9.702  2.8891 -1.7424 -0.6196
14212SOL    HW252951   5.923   6.453   9.652  0.8743  0.2806  3.0776
14213SOL     OW52952  11.000  11.226   6.127  0.2878 -0.5917  0.2099
14213SOL    HW152953  10.992  11.233   6.223  1.1515 -0.2436  0.2687
14213SOL    HW252954  10.960  11.306   6.094  0.4999 -0.4415  0.3145
14214SOL     OW52955   0.723  11.795  12.086  0.4440  0.0433 -0.3929
14214SOL    HW152956   0.635  11.767  12.063  0.6539 -2.1546  1.1432
14214SOL    HW252957   0.780  11.726  12.049  1.2708 -0.0292  0.9520
14215SOL     OW52958   4.811   8.765   3.599  0.0274  0.5897  0.0000
14215SOL    HW152959   4.893   8.750   3.552  0.1305 -1.7914  0.7877
14215SOL    HW252960   4.838   8.803   3.683  0.1979  1.0007 -0.2393
14216SOL     OW52961  11.659  12.262  11.867 -0.3004  0.0922 -0.2232
14216SOL    HW152962  11.737  12.217  11.836 -0.2702 -0.7105  0.9635
14216SOL    HW252963  11.689  12.351  11.888 -0.2710  0.5911 -2.1592
14217SOL     OW52964   1.344   9.123   0.331  1.1188  0.3130  0.1503
14217SOL    HW152965   1.372   9.214   0.339 -0.6216  0.8206  0.7653
14217SOL    HW252966   1.249   9.127   0.325  1.0601 -1.4211 -0.7150
14218SOL     OW52967   2.503   2.491   7.236  0.1609  0.0269  0.3158
14218SOL    HW152968   2.447   2.492   7.313 -0.5914 -3.1716 -0.0230
14218SOL    HW252969   2.580   2.440   7.263  0.6966  0.3607 -0.5369
14219SOL     OW52970   1.872   4.952   7.146 -0.4983 -0.3877 -0.4639
14219SOL    HW152971   1.830   5.037   7.158 -0.1783  0.2129 -2.9641
14219SOL    HW252972   1.802   4.894   7.117 -0.7244 -1.0495  1.2783
14220SOL     OW52973   0.267   0.508   8.859 -0.3305  0.0484 -0.2850
14220SOL    HW152974   0.340   0.567   8.838  1.8406 -2.2839  0.2806
14220SOL    HW252975   0.221   0.497   8.775 -0.7701  2.3713 -0.4283
14221SOL     OW52976   9.685  11.317  12.829  0.1303 -0.4305  0.2260
14221SOL    HW152977   9.666  11.226  12.808 -0.7559 -0.6667  1.8536
14221SOL    HW252978   9.600  11.360  12.830  0.4443  0.2042  0.3971
14222SOL     OW52979   6.188   2.850   7.307  0.2781  0.1142  0.4754
14222SOL    HW152980   6.249   2.788   7.347  1.5478  1.2962  0.4667
14222SOL    HW252981   6.231   2.878   7.226 -1.7355 -1.3832 -1.2118
14223SOL     OW52982  12.258  11.452   5.952  0.8969  0.4259 -0.3670
14223SOL    HW152983  12.308  11.399   6.014 -0.3056 -0.3248 -0.0037
14223SOL    HW252984  12.324  11.487   5.891  1.7090 -1.5991 -0.7103
14224SOL     OW52985   4.478   1.113   5.152 -0.0196 -0.0334  0.3192
14224SOL    HW152986   4.460   1.020   5.163 -1.8353 -0.0037 -1.7971
14224SOL    HW252987   4.392   1.155   5.158  0.2779  1.0879 -1.9933
14225SOL     OW52988   0.016   7.029  10.358  0.4815 -0.5065 -0.2956
14225SOL    HW152989  -0.015   7.070  10.439  2.6309  0.4201  0.1431
14225SOL    HW252990   0.085   6.969  10.387  2.5183  1.1051 -1.4824
14226SOL     OW52991   9.058   3.691   4.371 -0.3386  0.0811 -0.0856
14226SOL    HW152992   9.035   3.713   4.280  1.2390 -0.0448 -0.5447
14226SOL    HW252993   9.095   3.603   4.366 -2.1089 -0.7844  1.0172
14227SOL     OW52994   7.745   4.312   4.896  0.3156  0.0744 -0.4827
14227SOL    HW152995   7.659   4.305   4.938 -0.5675  2.4438 -1.6545
14227SOL    HW252996   7.739   4.254   4.820 -0.0899 -0.1125 -0.3116
14228SOL     OW52997   8.376   8.898   1.828 -0.4185  0.4636  0.1395
14228SOL    HW152998   8.433   8.975   1.834  0.0410  0.0712  0.9360
14228SOL    HW252999   8.429   8.832   1.783 -0.7443  0.5358 -0.3678
14229SOL     OW53000  12.806   4.556   5.856 -0.6094 -0.6317 -0.1144
14229SOL    HW153001  12.745   4.622   5.824 -2.7945 -1.7916  1.4265
14229SOL    HW253002  12.810   4.491   5.785 -1.7904 -0.9118  0.0528
14230SOL     OW53003  11.605   7.111   6.295 -0.1425  0.6514 -0.5223
14230SOL    HW153004  11.615   7.103   6.390  1.7079  2.8586 -0.4443
14230SOL    HW253005  11.513   7.134   6.283 -0.1390  1.4936  0.8506
14231SOL     OW53006  11.231   8.425   3.324  0.2704  0.0007 -0.0247
14231SOL    HW153007  11.192   8.391   3.244 -0.7202 -1.1381  0.9050
14231SOL    HW253008  11.228   8.352   3.386  0.6245  0.9629  1.1847
14232SOL     OW53009   1.125   5.886   4.781  0.0002 -0.2850  0.2769
14232SOL    HW153010   1.120   5.835   4.700  0.0178  0.5381 -0.2435
14232SOL    HW253011   1.111   5.976   4.754 -0.5070 -0.0544  1.2579
14233SOL     OW53012   2.757  11.939  12.601  0.5292 -0.4619  0.2336
14233SOL    HW153013   2.771  11.926  12.695 -0.4502 -0.1951  0.4403
14233SOL    HW253014   2.700  11.866  12.575  2.2631 -1.5709 -0.5703
14234SOL     OW53015   9.332  12.967   7.761 -0.4887 -0.1960 -0.4203
14234SOL    HW153016   9.401  12.902   7.758  0.4411  0.7714 -0.7417
14234SOL    HW253017   9.305  12.970   7.852 -0.2782 -0.7498 -0.3346
14235SOL     OW53018   3.268   2.887   6.414  0.6283  0.2701  0.3011
14235SOL    HW153019   3.320   2.820   6.458  1.5956  0.8612  0.0902
14235SOL    HW253020   3.295   2.969   6.455 -0.4910  0.5657  0.5084
14236SOL     OW53021   0.581  11.325   1.634  0.1911 -0.1724 -0.5129
14236SOL    HW153022   0.636  11.253   1.605 -0.1177 -0.5022 -0.2837
14236SOL    HW253023   0.632  11.404   1.615  1.1671 -0.5165  0.6094
14237SOL     OW53024   5.461  12.030   6.246  0.5956 -0.0964 -0.1992
14237SOL    HW153025   5.385  12.032   6.305 -0.4116 -1.5870 -1.3752
14237SOL    HW253026   5.525  11.976   6.292  0.1295 -0.5766 -0.0993
14238SOL     OW53027   8.530   1.566   0.393  0.6061  0.0415 -0.2497
14238SOL    HW153028   8.546   1.475   0.369  1.4676 -0.1281  0.9026
14238SOL    HW253029   8.615   1.609   0.383  0.5357  0.3914  0.6182
14239SOL     OW53030   5.204   6.230   5.831  0.4489  0.6235 -0.0877
14239SOL    HW153031   5.235   6.250   5.919 -0.5042  1.1917  0.1261
14239SOL    HW253032   5.176   6.314   5.795 -0.5068  0.1819 -0.4082
14240SOL     OW53033   3.236   6.027  10.417 -0.2277 -0.2810  0.5498
14240SOL    HW153034   3.314   6.083  10.420 -0.4795  0.0609  0.8863
14240SOL    HW253035   3.270   5.939  10.432  0.0510 -0.0874  1.1009
14241SOL     OW53036   7.783   2.775   4.896 -0.4279  0.3122 -0.1175
14241SOL    HW153037   7.752   2.795   4.984 -1.2703  0.3790 -0.4297
14241SOL    HW253038   7.876   2.755   4.908  0.1113  2.7763  0.4472
14242SOL     OW53039   9.019   0.294  12.890 -0.1890 -0.0240 -0.0261
14242SOL    HW153040   8.963   0.216  12.893  1.4593 -1.3489 -1.1529
14242SOL    HW253041   9.078   0.277  12.816  1.4580  1.4303  0.8871
14243SOL     OW53042  10.979   9.219  10.973  0.8433  0.2869  0.2389
14243SOL    HW153043  10.940   9.159  11.036 -2.7196  0.3819 -1.6496
14243SOL    HW253044  10.946   9.305  10.999  2.4219  0.8841  0.3798
14244SOL     OW53045   5.839  11.774  12.471  0.2151  0.3522 -0.0735
14244SOL    HW153046   5.928  11.747  12.494  0.1276 -0.0942 -0.2453
14244SOL    HW253047   5.787  11.753  12.548 -0.0309 -0.8989 -0.5631
14245SOL     OW53048   6.068   9.580   6.399 -0.5311  0.0827 -0.6169
14245SOL    HW153049   6.136   9.558   6.463  0.3142 -1.1346 -1.8769
14245SOL    HW253050   5.996   9.520   6.419 -1.4229  1.5735  0.9100
14246SOL     OW53051   2.539  10.079   6.414 -0.2629 -0.4824 -0.0559
14246SOL    HW153052   2.579  10.013   6.358 -2.6436 -0.4936 -1.9117
14246SOL    HW253053   2.570  10.162   6.379  0.7846 -0.5427  0.7010
14247SOL     OW53054   8.302   3.553   4.895 -0.6693  0.0824  0.1814
14247SOL    HW153055   8.278   3.462   4.879  0.1696 -0.0155 -0.6324
14247SOL    HW253056   8.278   3.599   4.814  2.3498 -0.1555 -0.9860
14248SOL     OW53057   7.060  11.507   3.309 -0.2612  0.6083  0.4613
14248SOL    HW153058   7.038  11.566   3.381  2.4942  0.0335  1.9303
14248SOL    HW253059   7.121  11.557   3.254 -2.5049  1.1281 -1.7418
14249SOL     OW53060   9.947   4.221   0.647 -0.0103 -0.0835  0.4945
14249SOL    HW153061  10.043   4.225   0.639 -0.1731  0.8329 -1.6423
14249SOL    HW253062   9.927   4.128   0.643  0.8103 -0.3322  1.5661
14250SOL     OW53063  10.780   3.541   6.493  0.3167  0.1235 -0.2117
14250SOL    HW153064  10.717   3.605   6.526  1.3453  1.4431 -0.7443
14250SOL    HW253065  10.730   3.489   6.430 -0.9190 -0.6050  1.3095
14251SOL     OW53066   2.429  10.001   5.536  0.0533  0.2839 -0.4715
14251SOL    HW153067   2.454  10.061   5.607 -0.3755 -0.0378 -0.0409
14251SOL    HW253068   2.481   9.922   5.552  0.4232  0.4373 -0.8878
14252SOL     OW53069  11.705   6.883   5.137  0.7260 -0.0424  0.0847
14252SOL    HW153070  11.662   6.900   5.054 -0.5857  3.4268  1.2800
14252SOL    HW253071  11.664   6.803   5.169  0.7740 -1.0611 -2.2389
14253SOL     OW53072   0.011   7.984   9.775  0.1130 -0.0982  0.0583
14253SOL    HW153073   0.050   7.954   9.857  0.4239  0.9415  0.3005
14253SOL    HW253074   0.072   7.956   9.707  0.5297  0.2132  0.3045
14254SOL     OW53075   0.477   4.957   6.458 -0.7928 -0.2031 -0.1552
14254SOL    HW153076   0.533   5.034   6.469  0.5804 -0.9552 -1.4432
14254SOL    HW253077   0.407   4.987   6.400 -0.4637  0.1713 -0.3635
14255SOL     OW53078   2.682  11.377   8.597 -0.3342  0.5790  0.1264
14255SOL    HW153079   2.629  11.418   8.529  0.3293  0.4206 -0.4927
14255SOL    HW253080   2.695  11.446   8.662  0.2294  1.1735 -0.5945
14256SOL     OW53081   4.465  12.519   7.124  0.7142 -0.3282  0.3629
14256SOL    HW153082   4.522  12.531   7.048 -0.5402 -1.5498 -0.8146
14256SOL    HW253083   4.377  12.537   7.092  0.3800  1.9474  2.2467
14257SOL     OW53084  10.544   6.121   8.327 -0.2497 -0.1460  0.5165
14257SOL    HW153085  10.614   6.169   8.285 -0.4989  0.5277  0.8521
14257SOL    HW253086  10.484   6.099   8.256  0.6167 -1.3148  0.1218
14258SOL     OW53087   7.456   1.645   5.924  0.6969 -0.5997 -0.4050
14258SOL    HW153088   7.430   1.729   5.884 -0.5321 -0.9677 -0.4174
14258SOL    HW253089   7.547   1.659   5.952  0.7577  0.4871 -1.0826
14259SOL     OW53090   2.960   4.660  11.809  0.3247  0.4658 -0.0509
14259SOL    HW153091   3.037   4.628  11.763 -0.0395  0.0306 -0.3769
14259SOL    HW253092   2.972   4.633  11.900  0.0804 -0.5299 -0.2938
14260SOL     OW53093   2.429   5.314  12.457 -0.4309  0.0026 -0.2839
14260SOL    HW153094   2.437   5.240  12.397 -1.4894 -1.0305  0.8018
14260SOL    HW253095   2.338   5.311  12.488 -0.9823  2.6717 -1.3264
14261SOL     OW53096   3.382   0.541   9.027 -0.5866 -0.2210 -0.3656
14261SOL    HW153097   3.449   0.513   9.089 -1.1470  2.6602  1.7106
14261SOL    HW253098   3.303   0.550   9.080 -1.7031  0.0775 -2.0107
14262SOL     OW53099  11.006   2.645   9.407 -0.1094  0.1638 -0.1441
14262SOL    HW153100  11.100   2.627   9.407  0.1720  1.3698  1.6870
14262SOL    HW253101  10.994   2.711   9.339  0.3307 -0.1308 -0.5131
14263SOL     OW53102   6.000   4.402   1.953  0.0433  0.5785 -0.0800
14263SOL    HW153103   6.081   4.353   1.960 -0.4575 -0.1669  0.7225
14263SOL    HW253104   6.002   4.462   2.028  0.0859  0.9305 -0.3580
14264SOL     OW53105   7.602   9.290   5.146  0.2997 -0.2761  0.0348
14264SOL    HW153106   7.578   9.322   5.233 -0.6772 -0.7595 -0.0387
14264SOL    HW253107   7.585   9.363   5.087 -0.9194 -0.5630  0.0047
14265SOL     OW53108   8.080   2.319   0.817  0.9124  0.4780  0.2055
14265SOL    HW153109   8.081   2.238   0.868  0.9454 -0.7088 -1.5928
14265SOL    HW253110   8.157   2.312   0.760  2.1617  2.7977  1.4521
14266SOL     OW53111  12.532   2.438  10.325 -0.2032  0.4304 -0.9177
14266SOL    HW153112  12.593   2.491  10.376  1.2496 -1.6244 -0.3659
14266SOL    HW253113  12.534   2.352  10.367 -0.9785 -0.6273 -2.8850
14267SOL     OW53114   0.920  11.952   2.600  0.2495  0.1022  0.2077
14267SOL    HW153115   0.970  11.960   2.518 -0.0612  2.1842  0.1736
14267SOL    HW253116   0.974  11.998   2.665 -0.9280  1.1116  0.4902
14268SOL     OW53117  10.941   1.884   9.626  0.4966  0.3535 -0.4154
14268SOL    HW153118  11.019   1.907   9.677 -0.0481 -0.5719  0.8916
14268SOL    HW253119  10.869   1.922   9.676 -0.1472 -1.4694  0.1160
14269SOL     OW53120  10.039   2.009   3.627  0.1093  0.0003  0.0030
14269SOL    HW153121  10.023   1.954   3.704  0.2808  2.0723  1.6022
14269SOL    HW253122  10.109   1.963   3.579 -0.4230 -1.6364  0.7373
14270SOL     OW53123  10.182   5.974   9.439  0.0763 -0.9220  0.0026
14270SOL    HW153124  10.156   5.983   9.347  0.0936 -0.6792  0.0214
14270SOL    HW253125  10.138   6.047   9.483 -0.1186 -1.1733  0.2263
14271SOL     OW53126   4.582   3.708  12.283  0.6658 -0.1645  0.6753
14271SOL    HW153127   4.596   3.628  12.233  0.0720  0.4677 -0.5409
14271SOL    HW253128   4.567   3.776  12.217  3.5352  1.4865  1.5786
14272SOL     OW53129   0.338   7.418   0.289 -0.4818  0.4276  0.3468
14272SOL    HW153130   0.319   7.511   0.297  0.0904  0.8280 -2.0116
14272SOL    HW253131   0.414   7.414   0.230 -0.4825 -1.5184  0.4017
14273SOL     OW53132   0.546  10.422   5.870 -0.2136  0.0595 -0.3664
14273SOL    HW153133   0.641  10.409   5.873 -0.3590 -0.9854  0.5177
14273SOL    HW253134   0.514  10.350   5.815 -0.5172  0.3251 -0.5424
14274SOL     OW53135   8.102   9.024  12.660 -0.5034  0.0864  0.1849
14274SOL    HW153136   8.049   8.999  12.736 -1.3344 -0.6734 -0.6174
14274SOL    HW253137   8.081   9.116  12.646  2.3362  1.3713  2.9665
14275SOL     OW53138  11.450  10.270   5.222  0.6084  0.1127  0.0257
14275SOL    HW153139  11.437  10.281   5.127  0.9672 -0.3843 -0.0875
14275SOL    HW253140  11.371  10.309   5.261  0.4620  0.3354 -0.4760
14276SOL     OW53141   6.723   9.636  11.773  0.0151 -0.0395  0.1665
14276SOL    HW153142   6.671   9.567  11.731  0.1814 -0.0725  0.0164
14276SOL    HW253143   6.665   9.671  11.841 -0.5466  0.5431 -0.6034
14277SOL     OW53144   1.271  11.913   9.438 -0.2413  0.2369  0.4279
14277SOL    HW153145   1.259  11.818   9.446  0.9029  0.1295  1.0451
14277SOL    HW253146   1.195  11.950   9.483  0.0558 -0.4106  1.5122
14278SOL     OW53147  10.642   0.436   6.609  0.6633  0.1334  0.1909
14278SOL    HW153148  10.585   0.368   6.572 -0.2128 -0.1908  2.0091
14278SOL    HW253149  10.591   0.517   6.601  0.8250  0.2132 -0.0509
14279SOL     OW53150   4.056   1.966  11.331  0.6237 -0.2647  0.0697
14279SOL    HW153151   4.073   1.882  11.374  1.7765  0.0792  0.3212
14279SOL    HW253152   4.142   1.996  11.301 -0.0388 -0.1787 -1.9311
14280SOL     OW53153  12.489  11.560   2.643 -0.5800  0.0583 -0.3390
14280SOL    HW153154  12.421  11.517   2.694  0.7328  0.9865  2.4541
14280SOL    HW253155  12.550  11.490   2.621  0.2735 -0.0479  2.0024
14281SOL     OW53156   4.934   2.864   0.194  0.0917  0.0134  0.2904
14281SOL    HW153157   4.841   2.884   0.199  0.4783  2.3900 -0.4040
14281SOL    HW253158   4.949   2.845   0.101  0.3491  0.0155  0.3299
14282SOL     OW53159  12.430  10.541   9.027  0.2052  0.1382 -0.1023
14282SOL    HW153160  12.440  10.625   8.984  2.7649 -0.5063 -0.9335
14282SOL    HW253161  12.426  10.562   9.121 -2.1189  1.3102 -0.4007
14283SOL     OW53162   0.108   2.388  10.538  0.0567  0.1753 -0.2060
14283SOL    HW153163   0.054   2.408  10.462  1.0066  0.1835 -0.8937
14283SOL    HW253164   0.136   2.297  10.524  1.5123  0.6655 -0.6899
14284SOL     OW53165   2.924   2.026   6.204  0.4692  0.0311 -0.1182
14284SOL    HW153166   2.906   2.012   6.111 -0.2385 -1.0528  0.1618
14284SOL    HW253167   2.933   1.938   6.241 -0.8303  0.3779  1.1266
14285SOL     OW53168   5.747   0.750   2.488 -0.5550  0.3215  0.1196
14285SOL    HW153169   5.795   0.700   2.423 -0.5029  1.8535 -1.0830
14285SOL    HW253170   5.683   0.688   2.525  0.9116 -1.1628  0.2486
14286SOL     OW53171   0.420   5.128   5.748 -0.2280 -0.2818  0.1914
14286SOL    HW153172   0.456   5.216   5.735 -0.4937 -0.4069 -1.7677
14286SOL    HW253173   0.494   5.070   5.732 -0.3177 -0.4360  0.3408
14287SOL     OW53174   4.999  11.960   4.718 -0.2831 -0.1471  0.6418
14287SOL    HW153175   4.992  11.909   4.637 -1.4320 -0.4703  0.9230
14287SOL    HW253176   5.083  12.005   4.711 -0.2614 -0.3470 -0.6299
14288SOL     OW53177  10.578   8.996   8.463 -0.4539  0.3689 -0.2930
14288SOL    HW153178  10.516   8.941   8.511 -0.7047  2.3159  1.7869
14288SOL    HW253179  10.534   9.015   8.380 -1.9434  0.3268  0.4424
14289SOL     OW53180   8.655   9.584   5.938 -0.4429  0.3991 -0.6166
14289SOL    HW153181   8.655   9.568   5.843  0.9462  2.4945 -1.0190
14289SOL    HW253182   8.722   9.525   5.972 -1.6756 -1.1411 -0.7327
14290SOL     OW53183   2.513  10.894   7.434  0.2249 -0.2144  0.2939
14290SOL    HW153184   2.537  10.978   7.473 -0.6547  0.0547  0.2866
14290SOL    HW253185   2.460  10.851   7.501  1.9007 -1.4465  0.9060
14291SOL     OW53186   8.976  12.686   0.899 -0.0698  0.6303 -0.0091
14291SOL    HW153187   8.994  12.663   0.990  0.0316 -1.3279 -0.4961
14291SOL    HW253188   9.054  12.733   0.870  1.5207 -1.9594 -0.1377
14292SOL     OW53189   9.506   9.843   9.109  0.3399 -0.7389  0.2742
14292SOL    HW153190   9.428   9.843   9.164 -0.4583  1.2580 -0.7806
14292SOL    HW253191   9.479   9.801   9.027  0.5781 -0.6420  0.1433
14293SOL     OW53192   8.358   0.833   0.795 -0.3681  0.0870  0.0308
14293SOL    HW153193   8.278   0.823   0.847  0.7364  1.9177  2.2546
14293SOL    HW253194   8.350   0.919   0.755 -0.4442 -0.6332 -1.5958
14294SOL     OW53195   7.368   4.079   3.057  0.4632 -0.2240 -0.3855
14294SOL    HW153196   7.366   3.991   3.097  0.5936  0.6500  1.6728
14294SOL    HW253197   7.461   4.095   3.040  0.3558 -0.8227 -1.6171
14295SOL     OW53198   7.795   0.739   2.114 -0.1839  0.2960  0.0440
14295SOL    HW153199   7.879   0.714   2.150 -0.1935 -3.5565 -2.0411
14295SOL    HW253200   7.816   0.785   2.032  0.0691 -1.7995 -1.1548
14296SOL     OW53201   7.662  12.908   7.426  0.4803 -0.3426 -1.2039
14296SOL    HW153202   7.626  12.990   7.393  1.2682 -0.0272 -1.3210
14296SOL    HW253203   7.586  12.856   7.452 -0.0012  0.7024 -0.4658
14297SOL     OW53204  10.797  10.368   9.381 -0.4013 -0.2033 -0.1997
14297SOL    HW153205  10.841  10.447   9.349 -0.2794  0.0236  0.5163
14297SOL    HW253206  10.778  10.386   9.473  2.5081 -2.1764  0.9346
14298SOL     OW53207   8.333   7.958   0.429  0.1670 -0.0098  0.1725
14298SOL    HW153208   8.336   7.931   0.521  1.1582  1.7197  0.6979
14298SOL    HW253209   8.419   7.999   0.413 -0.1332  0.0619 -1.4060
14299SOL     OW53210   3.531   3.247   1.301 -0.0141  0.3619 -0.1143
14299SOL    HW153211   3.552   3.338   1.323  1.5348 -0.0700  0.3167
14299SOL    HW253212   3.543   3.241   1.207  0.1317  0.5489 -0.1082
14300SOL     OW53213   1.270   1.855   6.230  0.1485  0.3628  0.0092
14300SOL    HW153214   1.329   1.780   6.223 -0.3719 -0.1427  0.7616
14300SOL    HW253215   1.298   1.915   6.161 -0.9843 -1.6173 -2.3139
14301SOL     OW53216   2.156  11.139   1.439  0.3347 -0.4294  0.0733
14301SOL    HW153217   2.155  11.047   1.467 -0.5522 -0.2540  0.6754
14301SOL    HW253218   2.179  11.188   1.518 -1.0020 -0.0180  0.2429
14302SOL     OW53219   9.893   7.723   2.728 -0.0819 -0.0159  0.1594
14302SOL    HW153220   9.963   7.659   2.715 -0.3309 -0.4785  1.0340
14302SOL    HW253221   9.820   7.672   2.763  0.0983  0.9240  2.0016
14303SOL     OW53222  12.009   9.065   8.075 -0.1376  0.1297  0.4225
14303SOL    HW153223  11.929   9.037   8.031  0.1083 -1.3975  0.8827
14303SOL    HW253224  12.048   8.984   8.107  2.3375  0.6669 -0.9979
14304SOL     OW53225   5.424   4.790   6.217  0.5560 -0.2517  0.5393
14304SOL    HW153226   5.344   4.794   6.270  0.2681  1.4792  0.0602
14304SOL    HW253227   5.392   4.784   6.127  1.0062 -0.8815  0.4128
14305SOL     OW53228  12.007   9.104   6.395 -0.2802  0.0071  0.0888
14305SOL    HW153229  12.063   9.179   6.417  0.0777  0.3181 -1.7064
14305SOL    HW253230  11.918   9.138   6.400 -0.1944  0.1275  0.7986
14306SOL     OW53231   1.217   3.298  10.852  0.4415  0.3059  0.6034
14306SOL    HW153232   1.303   3.317  10.814  0.2855  0.8971  0.5308
14306SOL    HW253233   1.184   3.225  10.801 -0.5063  2.1649 -1.6348
14307SOL     OW53234   0.136   8.164   8.491 -0.0773  0.2418  0.7062
14307SOL    HW153235   0.222   8.135   8.458 -0.3809 -1.2340  1.1378
14307SOL    HW253236   0.099   8.215   8.419  0.2562 -0.9491 -0.3395
14308SOL     OW53237   5.980  11.058   0.784 -0.1302  0.1239 -0.4028
14308SOL    HW153238   5.977  11.055   0.880  2.8149  1.0343 -0.2030
14308SOL    HW253239   5.993  10.966   0.758  3.6284  0.2740  0.4476
14309SOL     OW53240   9.180  10.042  10.534  0.6250  0.4551  0.2655
14309SOL    HW153241   9.191   9.984  10.458  1.1294 -1.7287  1.9261
14309SOL    HW253242   9.265  10.083  10.546  0.5186  0.8780 -0.3797
14310SOL     OW53243   6.552   1.610   7.400 -0.6416  0.4927 -0.2019
14310SOL    HW153244   6.623   1.655   7.355  0.8660 -0.1853  1.3487
14310SOL    HW253245   6.546   1.525   7.355 -0.8959  0.7922 -0.7356
14311SOL     OW53246   8.666   5.921   8.338 -0.2102  0.6381  0.3568
14311SOL    HW153247   8.660   5.853   8.405  1.6722 -0.9144 -0.9215
14311SOL    HW253248   8.710   5.994   8.381 -0.6375  0.3659  1.2774
14312SOL     OW53249   8.915   5.589   8.017  0.7785 -0.1029 -0.1184
14312SOL    HW153250   8.907   5.680   8.045  1.6327 -0.3231  0.9121
14312SOL    HW253251   8.988   5.589   7.955  3.0697 -0.5478  2.3828
14313SOL     OW53252   9.620   6.255   2.459 -0.0383  0.2479 -0.6313
14313SOL    HW153253   9.670   6.193   2.406  2.0181  0.3832  0.9925
14313SOL    HW253254   9.687   6.309   2.501 -1.6086  0.9841  1.0584
14314SOL     OW53255   8.645   8.882  12.229  0.1578  0.0914 -0.3672
14314SOL    HW153256   8.713   8.928  12.182  0.9969  0.0947  0.7953
14314SOL    HW253257   8.587   8.951  12.263 -0.0106  0.1308 -0.7309
14315SOL     OW53258  12.806   3.859  10.776 -0.3482 -0.4411  0.0221
14315SOL    HW153259  12.878   3.865  10.838 -0.9736 -0.5127  0.7727
14315SOL    HW253260  12.755   3.783  10.805 -0.4705 -0.6760 -0.7760
14316SOL     OW53261   0.242   7.740   1.125 -0.3791 -0.1631 -0.0159
14316SOL    HW153262   0.253   7.651   1.160  1.4371 -0.9410 -2.2876
14316SOL    HW253263   0.208   7.727   1.037 -1.4722  1.5092  0.1301
14317SOL     OW53264   7.901   8.874   9.162 -0.0977 -0.0220  0.0820
14317SOL    HW153265   7.994   8.900   9.168  0.5396 -2.1404 -0.0160
14317SOL    HW253266   7.866   8.894   9.249  0.5326  0.4963  0.2276
14318SOL     OW53267   9.566   9.982  11.022 -0.0423  0.2510  0.1224
14318SOL    HW153268   9.637   9.987  10.959  0.2780  2.3048  0.5715
14318SOL    HW253269   9.488   9.961  10.970  0.3061  1.3845 -0.8928
14319SOL     OW53270   8.144  12.603  10.224 -0.6783 -0.3049 -0.6098
14319SOL    HW153271   8.105  12.530  10.177 -2.4286 -0.6560  1.1994
14319SOL    HW253272   8.080  12.675  10.214  0.8568  0.9364 -2.0938
14320SOL     OW53273   4.751   9.982   2.855 -0.2822  0.4153  0.4065
14320SOL    HW153274   4.818   9.914   2.846 -0.6008  0.1444  0.0518
14320SOL    HW253275   4.785  10.039   2.924  0.7018  0.7331 -0.3112
14321SOL     OW53276   4.011   7.493  12.538  0.3133  0.1795 -0.4870
14321SOL    HW153277   4.063   7.413  12.526 -0.5609 -0.0993 -3.1294
14321SOL    HW253278   3.931   7.463  12.582  0.3534 -0.2592 -0.7063
14322SOL     OW53279   1.094  11.408   1.124  0.5140 -0.2559 -0.0365
14322SOL    HW153280   1.071  11.362   1.205  0.1985 -1.7091 -0.9029
14322SOL    HW253281   1.189  11.399   1.117  0.8378  1.7376  1.2186
14323SOL     OW53282   5.515   2.674  11.158 -0.6081 -0.2131 -0.1406
14323SOL    HW153283   5.535   2.697  11.067  0.8845  1.7371  0.6090
14323SOL    HW253284   5.577   2.725  11.210 -0.1623 -2.6361  1.9318
14324SOL     OW53285   9.557   5.013   3.079  0.8043 -0.3986 -0.4535
14324SOL    HW153286   9.531   4.935   3.029  1.5354 -0.4620 -0.7502
14324SOL    HW253287   9.611   4.978   3.151 -2.0493 -0.5597  1.7972
14325SOL     OW53288   4.274   2.350   6.175 -0.3183 -0.1455  0.0450
14325SOL    HW153289   4.310   2.285   6.234 -0.7458  0.3917  0.9209
14325SOL    HW253290   4.348   2.378   6.121 -0.1184 -1.2858 -0.3009
14326SOL     OW53291   2.299   9.437   1.133 -0.0372  0.0021 -0.2366
14326SOL    HW153292   2.373   9.429   1.072  0.3432 -0.8084  0.3088
14326SOL    HW253293   2.225   9.398   1.086 -0.0967  0.7079 -0.7389
14327SOL     OW53294   6.559   1.566   8.887  0.0026  0.3923 -0.3859
14327SOL    HW153295   6.625   1.553   8.818 -2.1859  0.7579 -2.7098
14327SOL    HW253296   6.499   1.631   8.850 -1.8350 -0.1462  1.4742
14328SOL     OW53297   2.581   4.387   7.199  0.7530  0.0138  0.2656
14328SOL    HW153298   2.676   4.397   7.194  1.1054 -2.3663  1.1184
14328SOL    HW253299   2.562   4.388   7.293  0.0601 -0.3880  0.1324
14329SOL     OW53300   6.740   3.558   6.304 -0.2705  0.1625  0.4430
14329SOL    HW153301   6.647   3.582   6.306 -0.7033 -1.1986 -0.9745
14329SOL    HW253302   6.747   3.483   6.363 -0.0270  0.3936  0.7096
14330SOL     OW53303  11.675   9.340   5.113 -0.1101  0.2037 -0.1812
14330SOL    HW153304  11.718   9.291   5.183  0.9021 -1.5873 -1.9559
14330SOL    HW253305  11.591   9.367   5.151 -0.7389 -2.9326  0.9628
14331SOL     OW53306   1.291   3.519  10.590 -0.5716  0.2615  0.0692
14331SOL    HW153307   1.309   3.611  10.607  0.2460  0.5284 -1.9682
14331SOL    HW253308   1.377   3.479  10.578 -0.9241 -0.7582  0.7655
14332SOL     OW53309  11.526   8.825   2.612  0.4067 -0.5252 -0.7064
14332SOL    HW153310  11.586   8.768   2.659 -2.0551 -1.0361  2.1346
14332SOL    HW253311  11.532   8.909   2.658 -0.3624 -0.3296 -0.9384
14333SOL     OW53312  12.770   4.533   2.671  0.2394 -0.3780 -0.3332
14333SOL    HW153313  12.842   4.538   2.735  0.8878  1.8712 -1.1239
14333SOL    HW253314  12.692   4.516   2.724  1.2142 -2.2022  0.6207
14334SOL     OW53315  10.906  10.205  10.935  0.5067 -0.5103  0.9599
14334SOL    HW153316  10.940  10.130  10.983  1.1096 -0.9673 -0.1442
14334SOL    HW253317  10.859  10.167  10.862  0.0628  0.1793  0.8814
14335SOL     OW53318   7.029   9.365   9.026  0.3909 -0.0894 -0.0955
14335SOL    HW153319   6.948   9.323   9.056  0.8122 -1.2585 -0.5263
14335SOL    HW253320   7.002   9.419   8.952 -0.5100  2.1153  1.7159
14336SOL     OW53321   4.709  11.191   7.356  0.7526  0.1529 -0.3870
14336SOL    HW153322   4.706  11.123   7.422 -2.3173  0.9648  0.4600
14336SOL    HW253323   4.720  11.272   7.405  0.6447  0.5768 -1.0478
14337SOL     OW53324   8.234   7.201   1.136  0.1955  0.0230 -0.1215
14337SOL    HW153325   8.176   7.226   1.208  0.8879  0.6321  0.2331
14337SOL    HW253326   8.175   7.182   1.064 -0.4930 -0.2439  0.4983
14338SOL     OW53327   5.067  10.060   6.161 -0.0990  0.1179 -0.0285
14338SOL    HW153328   5.126  10.052   6.235  2.6109 -0.5153 -2.1000
14338SOL    HW253329   5.055   9.971   6.129  1.5579  0.6023 -2.2741
14339SOL     OW53330  10.701   4.148   3.312  0.1174 -0.2320 -0.4376
14339SOL    HW153331  10.704   4.092   3.234 -0.8406 -0.5062 -0.2969
14339SOL    HW253332  10.763   4.108   3.372  0.9520  0.0491 -1.0949
14340SOL     OW53333  10.532   7.968   1.656  0.0605  0.6581 -0.5855
14340SOL    HW153334  10.532   7.892   1.597 -1.1305 -0.3956  0.7172
14340SOL    HW253335  10.450   8.013   1.637 -2.7037 -2.1629  3.1556
14341SOL     OW53336  12.754   2.703   2.381  0.5249  0.7365 -0.1497
14341SOL    HW153337  12.842   2.696   2.344  0.3738 -1.0729 -0.2618
14341SOL    HW253338  12.766   2.682   2.474  0.0070 -1.4210 -0.5078
14342SOL     OW53339  11.852   2.758   1.101  0.1783 -0.2351  0.2281
14342SOL    HW153340  11.793   2.684   1.116  0.5954 -0.4892  0.6447
14342SOL    HW253341  11.808   2.809   1.033  0.5180 -1.5724 -1.0596
14343SOL     OW53342   2.338   8.221   0.916  0.3759  0.0838  0.4382
14343SOL    HW153343   2.267   8.178   0.868  0.2007  0.1729  0.6148
14343SOL    HW253344   2.353   8.165   0.992  0.1358  0.3379  0.6783
14344SOL     OW53345   0.394  11.724   4.748 -0.5211  0.3465  0.1169
14344SOL    HW153346   0.342  11.649   4.776  0.5699 -0.7907 -0.7941
14344SOL    HW253347   0.410  11.773   4.828  0.0410 -1.2338  1.0148
14345SOL     OW53348  12.835  12.150  10.574 -0.7385 -0.1080  0.2150
14345SOL    HW153349  12.926  12.121  10.563 -0.4444 -0.7192  3.2664
14345SOL    HW253350  12.785  12.091  10.518  0.6497 -0.3603 -0.8282
14346SOL     OW53351   8.743   0.353   1.611  0.4997 -0.1982  0.7660
14346SOL    HW153352   8.695   0.272   1.591 -0.1646  0.1804  0.8238
14346SOL    HW253353   8.690   0.423   1.574  1.7229  0.1404 -0.4699
14347SOL     OW53354   3.919   0.115   4.104  0.5432 -0.2486  0.0759
14347SOL    HW153355   3.988   0.085   4.164  0.9178  0.5620  0.0677
14347SOL    HW253356   3.859   0.164   4.160 -0.9375 -2.2947  0.3893
14348SOL     OW53357   0.899   5.526  12.250 -0.0455 -0.2199 -0.5433
14348SOL    HW153358   0.862   5.459  12.191  1.1283 -1.0091 -0.4176
14348SOL    HW253359   0.936   5.591  12.191  1.3728 -1.1450 -0.7384
14349SOL     OW53360   7.197   5.252   2.951 -0.0837 -0.2529  0.7230
14349SOL    HW153361   7.111   5.217   2.928  0.1074 -0.6066  0.5346
14349SOL    HW253362   7.246   5.176   2.982  1.1499 -0.6933 -1.9876
14350SOL     OW53363   0.050  12.615  10.414 -0.2221 -0.2665 -0.2507
14350SOL    HW153364  -0.027  12.577  10.456  0.1746 -0.9499 -0.1422
14350SOL    HW253365   0.124  12.565  10.448  0.0654 -1.2360 -2.2091
14351SOL     OW53366  10.994   1.966   8.357  0.2280  0.4237  0.5144
14351SOL    HW153367  10.919   1.940   8.305  1.0675 -1.5178  0.1973
14351SOL    HW253368  11.048   1.887   8.364  1.0368  1.0743  2.8093
14352SOL     OW53369   3.433  12.866  11.854 -0.4010 -0.1736 -0.0957
14352SOL    HW153370   3.338  12.868  11.866 -0.3400 -2.1400  1.0988
14352SOL    HW253371   3.468  12.859  11.943  0.9504  1.6284 -0.4346
14353SOL     OW53372   9.049   2.702   7.328  0.2484 -0.1337  0.1381
14353SOL    HW153373   9.030   2.634   7.263  0.7049 -0.3679  0.2421
14353SOL    HW253374   9.053   2.656   7.411  2.7988 -0.4300 -0.0385
14354SOL     OW53375   3.358   7.969   6.045  0.1732  0.3023 -0.4524
14354SOL    HW153376   3.371   7.968   6.140  1.5573 -0.2962 -0.6290
14354SOL    HW253377   3.339   7.878   6.022  1.7369  0.0724 -0.9633
14355SOL     OW53378   8.831   4.302   1.741 -0.1741 -0.0759 -0.6048
14355SOL    HW153379   8.801   4.281   1.830  1.1206  0.9417  0.1144
14355SOL    HW253380   8.902   4.365   1.754 -0.2557  0.4448 -2.3960
14356SOL     OW53381  11.545   5.267   1.821 -0.0275 -0.2999  0.0880
14356SOL    HW153382  11.571   5.220   1.900 -0.4753 -0.6263  0.0449
14356SOL    HW253383  11.475   5.326   1.850  0.2469  0.0390  0.0607
14357SOL     OW53384  10.018   0.244   8.028 -0.8747 -0.3239  0.1387
14357SOL    HW153385  10.060   0.302   8.092 -0.6020 -0.2062 -0.1455
14357SOL    HW253386   9.934   0.222   8.068  0.1656 -2.0252  1.5374
14358SOL     OW53387   5.848   9.180  10.248  0.7120 -0.0961  0.1738
14358SOL    HW153388   5.796   9.260  10.235  1.2087 -0.0536 -1.8735
14358SOL    HW253389   5.905   9.200  10.322  0.4001  1.2232  0.0866
14359SOL     OW53390   3.981   6.814   3.910  0.7389 -0.2739 -0.4583
14359SOL    HW153391   3.986   6.906   3.886  1.0806 -0.5100 -1.3285
14359SOL    HW253392   3.920   6.811   3.983  1.6606  0.7992  0.3911
14360SOL     OW53393   0.776  11.252   7.185 -0.2319  0.0197 -0.0352
14360SOL    HW153394   0.693  11.286   7.151 -0.7324  0.2047  1.3005
14360SOL    HW253395   0.753  11.214   7.271  0.5882 -2.2278 -0.7246
14361SOL     OW53396   6.882   6.280   9.671  0.0116 -0.3350  0.2179
14361SOL    HW153397   6.939   6.336   9.619  0.9801 -0.7897  0.7574
14361SOL    HW253398   6.875   6.199   9.620  0.5336 -0.5837  0.5258
14362SOL     OW53399   8.563  10.191  12.969 -0.2548  0.1039 -0.0334
14362SOL    HW153400   8.619  10.252  12.921 -0.6556  1.1238  0.7629
14362SOL    HW253401   8.484  10.185  12.916  0.4335 -1.0868 -0.9911
14363SOL     OW53402   0.810   0.075  12.053 -0.6020  0.5016 -0.8104
14363SOL    HW153403   0.812   0.148  11.992 -0.1216 -0.4613 -1.9999
14363SOL    HW253404   0.739   0.095  12.114 -0.5134  1.9066 -1.1512
14364SOL     OW53405   6.087  11.664   4.603  0.7663 -0.4022  0.5408
14364SOL    HW153406   6.004  11.632   4.569  0.4764 -0.3534  1.1748
14364SOL    HW253407   6.114  11.598   4.667  1.6807 -0.8791 -0.3078
14365SOL     OW53408  12.981   2.140   3.265 -0.3184  0.1386 -0.5135
14365SOL    HW153409  13.014   2.216   3.313  0.4747 -0.9823  0.7587
14365SOL    HW253410  12.886   2.141   3.280 -0.5507  1.7085 -1.7784
14366SOL     OW53411   7.693   5.950   5.531  0.3940  0.0716  0.3788
14366SOL    HW153412   7.753   6.023   5.516 -0.3467  0.8524  1.1158
14366SOL    HW253413   7.662   5.962   5.621 -1.7074  0.3317 -0.3302
14367SOL     OW53414   5.785   2.414   5.562  0.0884  0.3639  1.0091
14367SOL    HW153415   5.741   2.341   5.518  0.3274  0.2554  0.9514
14367SOL    HW253416   5.850   2.444   5.500  0.5991  0.0472  1.3821
14368SOL     OW53417   4.444   9.266   6.448  0.9618 -0.2593  0.4328
14368SOL    HW153418   4.370   9.264   6.387  1.9841 -0.4744 -0.8280
14368SOL    HW253419   4.435   9.186   6.500  0.9824 -0.8942 -0.5299
14369SOL     OW53420   2.447   8.873   6.141  0.2930  0.1420  0.2208
14369SOL    HW153421   2.483   8.810   6.079 -1.9647  0.6998 -1.7983
14369SOL    HW253422   2.424   8.949   6.088 -0.6392  1.1293  1.9455
14370SOL     OW53423   3.590   5.643  11.152  0.7363  0.7566 -0.4440
14370SOL    HW153424   3.615   5.706  11.085  1.5995  2.2851  1.2361
14370SOL    HW253425   3.534   5.693  11.212  1.5979 -0.0019  1.0415
14371SOL     OW53426   0.932  11.046  11.409 -0.2758 -0.1119 -0.1719
14371SOL    HW153427   1.020  11.009  11.404 -0.2911 -0.4103  1.3996
14371SOL    HW253428   0.936  11.124  11.353  0.5964 -0.8213 -1.1491
14372SOL     OW53429  11.324   5.633  10.727  0.7826  0.1838  0.1066
14372SOL    HW153430  11.374   5.614  10.806 -0.4441 -0.2895  0.7952
14372SOL    HW253431  11.313   5.548  10.684  2.2665  0.5641 -1.1159
14373SOL     OW53432   2.234   0.880  11.391  0.6133 -0.1330 -0.3466
14373SOL    HW153433   2.174   0.955  11.388  0.2518 -0.2841  1.5754
14373SOL    HW253434   2.318   0.919  11.416  1.0710 -0.0621 -1.9331
14374SOL     OW53435  12.919   4.437  11.931 -0.0312 -0.2512 -0.0309
14374SOL    HW153436  12.912   4.488  12.011  0.4711  0.1480 -0.2325
14374SOL    HW253437  12.939   4.501  11.863 -1.2966 -0.4749 -0.6338
14375SOL     OW53438   6.068   3.148   9.067  0.0733 -0.3162 -0.2842
14375SOL    HW153439   6.081   3.204   9.143  0.4730  0.1542 -0.6921
14375SOL    HW253440   6.036   3.207   8.999 -1.0677 -0.8764 -0.2511
14376SOL     OW53441   0.516   3.543   2.921  0.3280 -0.1967 -0.0469
14376SOL    HW153442   0.513   3.523   2.828 -0.3550 -1.9354  0.3064
14376SOL    HW253443   0.463   3.622   2.931 -0.1081 -0.3510 -1.0622
14377SOL     OW53444   1.435   7.712  11.258  0.1138 -0.1653 -0.8129
14377SOL    HW153445   1.507   7.684  11.314 -1.2980  1.5437  2.1549
14377SOL    HW253446   1.470   7.711  11.170  3.1398 -1.1748  0.2826
14378SOL     OW53447   0.243  12.875   5.309 -0.1686  0.1383 -0.0916
14378SOL    HW153448   0.314  12.939   5.322  0.1917 -0.6495  2.2288
14378SOL    HW253449   0.288  12.795   5.281 -0.4720  0.4303 -1.4889
14379SOL     OW53450  10.081   9.216  11.374  0.3891 -0.1645 -0.1513
14379SOL    HW153451  10.024   9.200  11.299  0.2088  3.6227 -0.9957
14379SOL    HW253452  10.027   9.263  11.437  1.1878 -1.2487  1.4419
14380SOL     OW53453   4.047   8.309  11.734  0.0475 -0.0393  0.0131
14380SOL    HW153454   3.957   8.333  11.712  0.3297 -1.2086 -2.9024
14380SOL    HW253455   4.037   8.245  11.805 -1.1938  1.7831  1.5735
14381SOL     OW53456   4.005  11.181   0.967 -0.6111  0.5471 -0.1565
14381SOL    HW153457   4.096  11.203   0.988 -1.2406  1.2586  2.2228
14381SOL    HW253458   4.004  11.085   0.965  0.1881  0.5265 -0.1713
14382SOL     OW53459   1.861   6.799   3.372  0.4020  0.5456 -0.2858
14382SOL    HW153460   1.940   6.807   3.317  0.3875  1.2851 -0.2069
14382SOL    HW253461   1.795   6.851   3.326  0.1266  0.4102 -0.0448
14383SOL     OW53462   3.606   6.479   3.582  0.2818 -0.1681  0.1087
14383SOL    HW153463   3.524   6.505   3.623  0.1210  0.5661 -0.6610
14383SOL    HW253464   3.609   6.384   3.592 -0.8006 -0.2366 -0.1152
14384SOL     OW53465  12.321   8.392   7.050 -0.7245  0.2476  0.3222
14384SOL    HW153466  12.254   8.456   7.072 -1.6373 -0.5230 -0.1161
14384SOL    HW253467  12.376   8.435   6.984 -0.8412  0.8445  0.6069
14385SOL     OW53468   6.683   7.895   8.020 -0.4525  0.2813 -0.9492
14385SOL    HW153469   6.778   7.902   8.016 -0.3520 -0.9399 -0.8634
14385SOL    HW253470   6.652   7.976   7.978  0.6057  1.0226 -0.3695
14386SOL     OW53471   8.522   0.584   9.780  0.4785  0.7220  0.1499
14386SOL    HW153472   8.476   0.568   9.698 -0.7623 -0.8077  1.0771
14386SOL    HW253473   8.469   0.650   9.825  0.3040  0.4344  0.3681
14387SOL     OW53474   1.886  11.878   3.168 -0.1688 -0.5578 -0.4649
14387SOL    HW153475   1.832  11.821   3.112 -0.7900 -1.3207  0.8581
14387SOL    HW253476   1.958  11.822   3.197 -1.0479 -0.8841  1.2377
14388SOL     OW53477   8.161   9.813   2.775  0.2879 -0.7829 -0.2942
14388SOL    HW153478   8.093   9.759   2.735 -0.4833 -0.2820  0.3144
14388SOL    HW253479   8.170   9.779   2.864 -2.2980  1.8325  1.1289
14389SOL     OW53480   5.524  12.163   4.417  0.2321 -0.5239  0.3245
14389SOL    HW153481   5.449  12.151   4.359  0.7238 -0.0656 -0.4188
14389SOL    HW253482   5.565  12.243   4.387  0.6503 -0.4176  1.1494
14390SOL     OW53483   4.783   5.814   1.634 -0.1513 -0.0232 -0.2620
14390SOL    HW153484   4.789   5.773   1.720 -0.5569  0.3302 -0.0644
14390SOL    HW253485   4.871   5.804   1.597 -0.2778 -1.1764 -0.2711
14391SOL     OW53486   5.393   1.328  10.809  0.3486 -0.6429  0.4648
14391SOL    HW153487   5.471   1.342  10.756  0.7045  0.2635  1.1980
14391SOL    HW253488   5.421   1.349  10.898 -0.9760  0.6199  0.6117
14392SOL     OW53489   5.836   7.198   2.828 -0.1928  0.4235  0.2259
14392SOL    HW153490   5.762   7.259   2.819  0.0720  0.4138 -2.6723
14392SOL    HW253491   5.913   7.255   2.832 -0.1625  0.3459  1.0926
14393SOL     OW53492   6.500   6.268   7.909  0.2479 -0.5773  0.7088
14393SOL    HW153493   6.560   6.231   7.974  1.2927  1.4011  0.9225
14393SOL    HW253494   6.417   6.278   7.956  0.8714  0.4152  1.6457
14394SOL     OW53495  11.863   5.214   8.940 -0.1363  0.1004 -0.4361
14394SOL    HW153496  11.938   5.153   8.939 -0.3489 -0.1869  0.5890
14394SOL    HW253497  11.848   5.234   8.847  0.7405 -0.4210 -0.7036
14395SOL     OW53498   2.753   3.591   8.277 -0.3439  0.5663 -0.0426
14395SOL    HW153499   2.842   3.579   8.245 -0.8085 -0.9612 -0.8505
14395SOL    HW253500   2.764   3.615   8.369  0.9153  1.6006 -0.4283
14396SOL     OW53501   4.836   9.925  12.455 -0.0761  0.1907 -0.4410
14396SOL    HW153502   4.907   9.974  12.496 -1.2832  0.8573  0.9461
14396SOL    HW253503   4.778   9.992  12.419 -0.6003 -0.2993 -0.5258
14397SOL     OW53504   9.555   0.659   7.801 -0.0065 -0.1550  0.0443
14397SOL    HW153505   9.463   0.656   7.826  0.3594  0.1968  1.4686
14397SOL    HW253506   9.586   0.569   7.812 -0.2560 -0.3491 -0.7806
14398SOL     OW53507   8.604  12.362   0.397 -0.0424 -0.6047 -0.1538
14398SOL    HW153508   8.536  12.379   0.332  0.0414 -0.2387 -0.1483
14398SOL    HW253509   8.559  12.321   0.470 -0.2947 -0.1624 -0.0581
14399SOL     OW53510   1.355  10.693   5.078 -0.0546  0.2477 -0.5148
14399SOL    HW153511   1.450  10.697   5.068 -0.2378  0.3676 -2.6713
14399SOL    HW253512   1.332  10.603   5.054 -0.4382 -0.0219  0.7914
14400SOL     OW53513   2.445   6.630   4.673 -0.3333  0.7442 -0.4568
14400SOL    HW153514   2.355   6.608   4.651 -1.1282  0.9061  2.2899
14400SOL    HW253515   2.450   6.622   4.768  2.6015  0.6176 -0.5131
14401SOL     OW53516   6.423  12.693   8.610 -0.8387 -0.2248 -0.1052
14401SOL    HW153517   6.499  12.702   8.553  0.8817 -2.1260  1.7312
14401SOL    HW253518   6.355  12.746   8.568  1.3636  1.2900 -1.9971
14402SOL     OW53519   2.751   3.087  12.210  0.1003 -0.7285  0.5965
14402SOL    HW153520   2.762   3.181  12.229  3.4290 -0.5501 -1.3414
14402SOL    HW253521   2.657   3.075  12.201 -0.3786  3.0383 -1.5082
14403SOL     OW53522   8.155   6.378   3.560  0.0738 -0.7127 -0.0150
14403SOL    HW153523   8.125   6.302   3.510  0.7883 -1.4554  0.6412
14403SOL    HW253524   8.228   6.344   3.613  0.5022  0.4726  0.1772
14404SOL     OW53525   8.965   6.298   6.850 -0.1542  0.3613  0.2985
14404SOL    HW153526   8.911   6.367   6.810 -3.9860 -2.5282 -0.0594
14404SOL    HW253527   8.918   6.275   6.930  1.2400 -1.5280  0.6242
14405SOL     OW53528  11.723  12.269   3.505  0.1335 -0.4504  0.6900
14405SOL    HW153529  11.798  12.210   3.496 -1.6700 -2.7250 -0.7215
14405SOL    HW253530  11.687  12.249   3.591  1.0363  0.5827  1.3335
14406SOL     OW53531   1.604   4.905   9.847 -0.0802  0.1482  0.1356
14406SOL    HW153532   1.630   4.982   9.896 -0.1982 -0.2547  0.8485
14406SOL    HW253533   1.513   4.889   9.874 -0.1299 -0.1137 -0.1755
14407SOL     OW53534  10.841   6.795  11.288 -0.2870 -0.2130 -0.0579
14407SOL    HW153535  10.911   6.810  11.225 -0.5559 -0.0904 -0.3306
14407SOL    HW253536  10.830   6.879  11.333 -1.0948  0.1419 -0.8764
14408SOL     OW53537   9.709   4.799   3.797  0.4432  0.1395 -0.1396
14408SOL    HW153538   9.770   4.740   3.753 -0.0168 -0.3480 -0.1221
14408SOL    HW253539   9.622   4.768   3.772  0.1696 -0.1534  1.1148
14409SOL     OW53540   7.685  10.417   5.048  0.1361 -0.2440 -0.6169
14409SOL    HW153541   7.605  10.428   5.099 -0.7789 -0.2926 -1.9703
14409SOL    HW253542   7.687  10.324   5.026  1.0929 -0.4290  0.2157
14410SOL     OW53543   2.392   3.163   1.066 -0.3668  0.6749 -0.3606
14410SOL    HW153544   2.333   3.188   1.137  0.5263  1.6086  0.0839
14410SOL    HW253545   2.342   3.181   0.986 -0.9983  0.6209  0.0201
14411SOL     OW53546   9.300   5.266   4.170  0.0041  0.2123  0.6101
14411SOL    HW153547   9.260   5.189   4.212  0.5292 -0.3426  0.1111
14411SOL    HW253548   9.299   5.245   4.076 -2.6695  2.1154  0.0840
14412SOL     OW53549  11.999   2.685   5.413  0.1588  0.0296  0.0591
14412SOL    HW153550  11.954   2.614   5.458 -1.0733  0.5757 -0.2733
14412SOL    HW253551  12.023   2.648   5.328  1.2539 -0.5723  0.6123
14413SOL     OW53552   0.753  11.883   9.507 -0.6559  0.5007  0.0136
14413SOL    HW153553   0.687  11.942   9.544  0.2201  1.7475 -0.3386
14413SOL    HW253554   0.765  11.914   9.418  0.7398  0.5975  0.2159
14414SOL     OW53555   8.642   5.290   3.265 -0.2935  0.1901  0.8204
14414SOL    HW153556   8.653   5.227   3.335  1.2654  2.0337  2.3463
14414SOL    HW253557   8.688   5.251   3.190  0.2497 -0.6609  1.5818
14415SOL     OW53558  10.638  11.559   9.838 -0.7935  0.5500  0.2315
14415SOL    HW153559  10.726  11.586   9.812 -1.3876  1.4355 -0.9443
14415SOL    HW253560  10.622  11.606   9.920 -1.3216  2.9030 -1.1343
14416SOL     OW53561   0.572  11.376   0.316  0.3375 -0.4504  0.7773
14416SOL    HW153562   0.550  11.420   0.234 -0.9124 -0.3394  1.1469
14416SOL    HW253563   0.667  11.387   0.325  0.2457  1.0434  0.2120
14417SOL     OW53564  11.649   1.685   9.275  0.7108  0.8900  0.3670
14417SOL    HW153565  11.591   1.720   9.206  1.0008 -2.6168 -1.9097
14417SOL    HW253566  11.737   1.699   9.241  0.9349  0.5601  0.8067
14418SOL     OW53567   5.339  11.000   5.041 -0.1912  0.2992  0.0208
14418SOL    HW153568   5.299  11.087   5.046  0.3872  0.6004 -0.4928
14418SOL    HW253569   5.432  11.017   5.027 -0.1768 -0.3975 -0.8596
14419SOL     OW53570  11.745   5.932   1.813 -0.7987 -0.1547  0.2360
14419SOL    HW153571  11.692   5.860   1.777  2.0607 -1.9593 -0.7163
14419SOL    HW253572  11.812   5.889   1.866  0.3965  1.8802  0.4942
14420SOL     OW53573   8.518  12.860  10.864  0.2012  0.3508 -0.5889
14420SOL    HW153574   8.561  12.882  10.947  0.5432  0.9033 -0.9070
14420SOL    HW253575   8.468  12.939  10.842 -2.5310 -0.8861  0.7173
14421SOL     OW53576   4.879   5.366   9.369 -0.1012 -0.0350  0.3033
14421SOL    HW153577   4.918   5.410   9.293  0.0892  2.1692  1.5818
14421SOL    HW253578   4.831   5.292   9.332  0.3807  0.6806 -1.9100
14422SOL     OW53579   8.478   3.121   3.321 -0.0690  0.0035 -0.0582
14422SOL    HW153580   8.515   3.195   3.369  0.7471 -0.6191  0.3031
14422SOL    HW253581   8.554   3.077   3.284 -0.6191 -0.1383 -1.0325
14423SOL     OW53582  11.300   3.957   5.649  0.3170  0.2648 -0.2534
14423SOL    HW153583  11.271   4.026   5.590 -0.6417 -0.6641 -0.8848
14423SOL    HW253584  11.281   3.876   5.603 -0.4462 -0.4834  1.3293
14424SOL     OW53585   5.650   5.091   5.085  0.1183 -0.2012  0.1089
14424SOL    HW153586   5.666   5.153   5.014  0.0920  1.0571  1.1346
14424SOL    HW253587   5.684   5.008   5.054  0.8771  0.5115 -1.0357
14425SOL     OW53588   9.851   9.893   7.812  0.1689 -0.5288  0.1128
14425SOL    HW153589   9.880   9.941   7.889 -1.3855 -0.3601  0.6278
14425SOL    HW253590   9.827   9.807   7.846  0.6296 -0.8665 -0.4026
14426SOL     OW53591   2.350   2.357   3.736  0.0880 -0.1287 -0.3958
14426SOL    HW153592   2.310   2.279   3.698  0.7534 -1.8923  2.2564
14426SOL    HW253593   2.276   2.416   3.752 -1.7953 -3.1358  4.0328
14427SOL     OW53594   8.134   3.177   4.271  0.1278 -0.1638  0.0503
14427SOL    HW153595   8.206   3.114   4.263  0.9874  0.8413 -0.4442
14427SOL    HW253596   8.110   3.197   4.181 -0.7512 -0.4508  0.2151
14428SOL     OW53597   5.624   1.408   9.568  0.0083  0.0268  0.0798
14428SOL    HW153598   5.662   1.496   9.573  0.6443 -0.2539  0.3076
14428SOL    HW253599   5.539   1.417   9.611  0.5713  0.2777  1.1903
14429SOL     OW53600   8.922  12.976  12.643 -0.2070  0.2835 -0.4633
14429SOL    HW153601   8.994  12.931  12.600 -1.1287  0.2690 -2.0722
14429SOL    HW253602   8.944  13.069  12.637  0.4409  0.2123  0.5310
14430SOL     OW53603   7.824   3.073   3.389  0.1123 -0.2291  0.4774
14430SOL    HW153604   7.874   2.992   3.381  0.4478  0.0979 -1.3737
14430SOL    HW253605   7.867   3.121   3.459 -0.1853 -1.6951  1.7021
14431SOL     OW53606   3.579  11.754  12.146  0.0201 -0.5942  0.0803
14431SOL    HW153607   3.525  11.763  12.225  1.0296 -0.2188  0.7417
14431SOL    HW253608   3.537  11.683  12.097 -1.2210 -0.1363  0.4481
14432SOL     OW53609   7.721   8.412  10.076  0.0091  0.1591  0.2112
14432SOL    HW153610   7.723   8.414  10.172 -1.3562  0.8746  0.2480
14432SOL    HW253611   7.645   8.465  10.053 -0.2288 -0.7644 -1.2477
14433SOL     OW53612   8.477  12.953   8.542  0.2749 -0.2111  0.3177
14433SOL    HW153613   8.498  13.035   8.497 -0.1082  0.2794  1.0243
14433SOL    HW253614   8.555  12.899   8.529  0.4178  0.1519 -0.4041
14434SOL     OW53615   8.065   3.934   7.704  0.5409 -0.3197 -0.1679
14434SOL    HW153616   8.146   3.903   7.744 -0.4587 -1.8621  0.7391
14434SOL    HW253617   8.008   3.954   7.778 -0.8751 -1.9335 -0.7718
14435SOL     OW53618   8.266  11.537   5.453  0.0915 -0.0135 -0.5415
14435SOL    HW153619   8.271  11.441   5.445  0.0568 -0.2205  1.5244
14435SOL    HW253620   8.179  11.559   5.420  0.1222 -0.6675 -1.1020
14436SOL     OW53621   7.297   2.307   4.573 -0.2334  0.3018  0.5298
14436SOL    HW153622   7.347   2.341   4.499 -2.9256  1.5294 -0.8761
14436SOL    HW253623   7.262   2.385   4.616 -1.3358 -0.5039  1.1407
14437SOL     OW53624  10.026   5.502  10.002  0.4989 -0.4174  0.0007
14437SOL    HW153625   9.967   5.554   9.946 -0.3687 -0.5588  0.7601
14437SOL    HW253626  10.049   5.426   9.948 -0.3275 -0.5506 -0.1858
14438SOL     OW53627  11.452   9.355  12.314  0.4450  0.0066  0.4184
14438SOL    HW153628  11.367   9.356  12.270  0.2015  0.9207  0.8769
14438SOL    HW253629  11.514   9.386  12.248  0.0305  1.7107  0.7817
14439SOL     OW53630   0.272  12.730  11.503 -0.1609 -0.1500 -0.2885
14439SOL    HW153631   0.203  12.663  11.497  0.9469 -1.2597 -1.6096
14439SOL    HW253632   0.346  12.683  11.540 -0.7913  1.6980  3.8216
14440SOL     OW53633   7.499   7.272   6.750  0.1842 -0.1442  0.2250
14440SOL    HW153634   7.458   7.189   6.724 -0.3517  0.5967 -1.4367
14440SOL    HW253635   7.593   7.254   6.745  0.0807 -0.9219  0.8489
14441SOL     OW53636   8.141   5.918   8.295  0.3349  0.6215 -0.6154
14441SOL    HW153637   8.157   6.003   8.335 -2.2794  0.3549  1.2761
14441SOL    HW253638   8.047   5.902   8.309  0.7695 -2.7048 -0.5817
14442SOL     OW53639   6.500   9.843   5.727 -0.4775 -0.1238 -0.4636
14442SOL    HW153640   6.427   9.827   5.786  1.2222 -0.4227  1.6688
14442SOL    HW253641   6.534   9.756   5.706 -0.2569  0.0395 -0.7992
14443SOL     OW53642   2.814   5.381   7.413 -0.3179  0.1657 -0.4611
14443SOL    HW153643   2.752   5.438   7.459 -2.3676 -1.0773 -1.5551
14443SOL    HW253644   2.784   5.293   7.434  0.6190 -0.4527 -1.6427
14444SOL     OW53645   9.015   5.065   3.101  0.1901  0.6073  0.7584
14444SOL    HW153646   8.965   5.006   3.044  1.3513 -1.5360  1.8232
14444SOL    HW253647   9.027   5.144   3.049 -0.8112 -0.3758 -1.0614
14445SOL     OW53648   8.415   2.878   1.068  0.7251 -0.0040 -0.3893
14445SOL    HW153649   8.395   2.784   1.068  0.8591 -0.0438  0.6720
14445SOL    HW253650   8.379   2.910   0.985 -0.8669 -0.6734  0.0030
14446SOL     OW53651   5.399   5.056   7.483 -0.0650  0.3299 -0.0021
14446SOL    HW153652   5.322   5.034   7.535 -0.6869  1.6010 -0.3347
14446SOL    HW253653   5.368   5.120   7.419  0.7497 -0.9250 -1.7403
14447SOL     OW53654   6.711   7.545   2.879 -0.3753  0.6589 -0.5842
14447SOL    HW153655   6.769   7.470   2.878  1.1776  1.8145 -1.3331
14447SOL    HW253656   6.647   7.526   2.948  0.9927 -0.5630  0.3839
14448SOL     OW53657  11.867   7.612   0.942  0.0499  0.3282  0.2058
14448SOL    HW153658  11.900   7.523   0.947  1.6374  0.7715 -1.1919
14448SOL    HW253659  11.842   7.623   0.850  0.3804  1.4804  0.2357
14449SOL     OW53660   2.874   5.811   5.463 -0.1267  0.0926 -0.5777
14449SOL    HW153661   2.831   5.767   5.389  1.0055  0.0704 -1.2409
14449SOL    HW253662   2.801   5.842   5.517 -0.9795 -1.7755 -0.5613
14450SOL     OW53663   5.057   7.107   5.014 -0.3256  0.3472  0.5460
14450SOL    HW153664   5.074   7.019   4.982  0.2947  0.6408  0.0464
14450SOL    HW253665   5.132   7.158   4.984 -1.6442  1.5048 -0.9057
14451SOL     OW53666   0.355   9.842   9.412 -0.7433  0.2747  0.0245
14451SOL    HW153667   0.347   9.912   9.347  2.3629  1.3084  0.6127
14451SOL    HW253668   0.394   9.769   9.363 -0.3785  0.3175  0.2480
14452SOL     OW53669   6.574   3.593   7.293 -0.0853 -0.1494 -0.3310
14452SOL    HW153670   6.641   3.637   7.240 -0.4461  0.1372 -0.5533
14452SOL    HW253671   6.620   3.568   7.372  0.3878 -0.3062 -0.6495
14453SOL     OW53672   0.760  11.829   0.287 -0.6343  0.8370 -0.3429
14453SOL    HW153673   0.758  11.814   0.193 -0.1977 -1.6691 -0.0415
14453SOL    HW253674   0.690  11.773   0.321  0.1638  0.5458  0.9046
14454SOL     OW53675   1.224   3.087   7.123  0.0232 -0.0685 -0.1093
14454SOL    HW153676   1.271   3.050   7.048  1.6472  0.0958  0.7918
14454SOL    HW253677   1.239   3.182   7.117 -0.7377  0.0582 -0.1556
14455SOL     OW53678  12.125   6.797   6.608 -0.5466  0.3531 -0.0873
14455SOL    HW153679  12.146   6.746   6.686 -1.3461 -1.6131 -1.0703
14455SOL    HW253680  12.032   6.819   6.618 -0.7063 -0.0872 -0.5591
14456SOL     OW53681   3.468  10.178   1.550  0.0753 -0.0184  0.0854
14456SOL    HW153682   3.470  10.270   1.577 -0.4685 -0.5970  2.2947
14456SOL    HW253683   3.506  10.131   1.624  1.6328 -1.5110 -1.5614
14457SOL     OW53684  11.590   7.904   7.724  0.2530 -0.1247  0.0371
14457SOL    HW153685  11.616   7.814   7.704  0.0056 -0.4146  0.9470
14457SOL    HW253686  11.500   7.910   7.693 -0.2114 -0.6448  1.2146
14458SOL     OW53687   1.281   5.505   5.359 -0.0022 -0.1900 -0.0038
14458SOL    HW153688   1.274   5.491   5.265  0.8345 -2.0182  0.1681
14458SOL    HW253689   1.345   5.576   5.368  1.4454 -1.3681 -0.7697
14459SOL     OW53690   8.856  11.523   5.488  0.2585 -0.2789  0.1818
14459SOL    HW153691   8.844  11.430   5.468 -0.8441 -0.3308  0.9664
14459SOL    HW253692   8.848  11.567   5.403 -0.9097 -0.7638  0.0254
14460SOL     OW53693   9.470   0.099   5.238  0.1204  0.2330  0.3436
14460SOL    HW153694   9.547   0.046   5.262 -0.0412  0.5589  1.6717
14460SOL    HW253695   9.504   0.188   5.231  0.2326  0.1074 -1.0968
14461SOL     OW53696  12.556   9.239  12.094 -0.3786  0.0536 -0.1141
14461SOL    HW153697  12.574   9.313  12.152  0.2425 -0.5382  0.4742
14461SOL    HW253698  12.474   9.202  12.126 -0.3134  0.0503  0.0485
14462SOL     OW53699   0.095   3.335   7.985 -0.2425  0.4068  0.1379
14462SOL    HW153700   0.040   3.311   7.911 -0.1136 -1.4070  0.5750
14462SOL    HW253701   0.184   3.311   7.958 -0.2370 -0.5888  0.9786
14463SOL     OW53702  10.358   2.543   1.547 -0.5350 -0.4446  0.3360
14463SOL    HW153703  10.351   2.604   1.620  0.7067  0.5290 -0.3195
14463SOL    HW253704  10.269   2.537   1.512 -0.6349  1.2869  0.2072
14464SOL     OW53705   8.204  10.903   6.727  0.2762 -0.6457 -0.0068
14464SOL    HW153706   8.110  10.886   6.720 -0.0266  0.7937  0.1533
14464SOL    HW253707   8.225  10.883   6.818 -0.3342  0.9200  0.5249
14465SOL     OW53708  11.777   8.546   4.981 -0.1936 -0.3110 -0.5717
14465SOL    HW153709  11.687   8.527   5.009 -0.5944  0.2072 -1.4821
14465SOL    HW253710  11.822   8.461   4.986 -0.1018 -0.1986  2.0246
14466SOL     OW53711   9.737  11.467   1.568  0.1044 -0.8218 -0.4400
14466SOL    HW153712   9.675  11.395   1.556  1.0232 -1.5514 -0.9745
14466SOL    HW253713   9.792  11.464   1.490 -0.8500  1.5252 -1.2841
14467SOL     OW53714  12.281   7.271  12.758  0.6026  0.3297  0.8283
14467SOL    HW153715  12.344   7.335  12.791  2.1560 -1.5189  1.6665
14467SOL    HW253716  12.334   7.208  12.709 -1.1539  0.7737 -1.8391
14468SOL     OW53717   1.052   6.486  12.986 -0.1234  1.0970 -0.5154
14468SOL    HW153718   1.006   6.406  12.960 -0.8429  0.6268  1.9280
14468SOL    HW253719   1.074   6.529  12.903  0.2929 -1.5991 -1.9257
14469SOL     OW53720   8.400   0.247   8.389  0.5007  0.3526 -0.4929
14469SOL    HW153721   8.466   0.236   8.321 -0.1106  0.7263 -1.1671
14469SOL    HW253722   8.316   0.238   8.343  0.0584 -1.6601  0.5956
14470SOL     OW53723  10.037   2.141   9.783  0.6276 -0.1231  0.7694
14470SOL    HW153724  10.034   2.236   9.767 -0.8344 -0.4477 -1.3471
14470SOL    HW253725  10.116   2.112   9.736  0.7222 -0.0422  0.8764
14471SOL     OW53726   0.572  11.165   6.446  0.4688  0.2504  0.0770
14471SOL    HW153727   0.554  11.240   6.503 -1.1086 -0.2625  0.2920
14471SOL    HW253728   0.533  11.090   6.491  0.2261 -0.3635 -1.1090
14472SOL     OW53729   5.321   0.309  10.464  0.1958 -0.2227 -0.3795
14472SOL    HW153730   5.380   0.380  10.489  2.1553 -2.0148  0.4752
14472SOL    HW253731   5.263   0.347  10.398  0.6633  2.3252  0.5806
14473SOL     OW53732  11.728   0.331   1.107  0.6685 -0.0420  0.0357
14473SOL    HW153733  11.757   0.244   1.078  1.4618  0.9015 -2.2003
14473SOL    HW253734  11.635   0.318   1.128  0.4957 -1.2316 -1.2737
14474SOL     OW53735  11.734   5.126  12.948  0.0563  0.9359 -0.0249
14474SOL    HW153736  11.729   5.207  13.000  1.9671  0.5956  0.7638
14474SOL    HW253737  11.828   5.112  12.935 -0.2265 -1.1561 -0.1406
14475SOL     OW53738   0.024   9.099   4.299  0.5448 -0.5315 -0.3814
14475SOL    HW153739   0.091   9.142   4.247  1.4126 -0.4954  0.7303
14475SOL    HW253740   0.070   9.027   4.343 -0.2482 -0.8041  0.0324
14476SOL     OW53741   6.406  11.129   4.125  0.2063 -0.3441 -0.0577
14476SOL    HW153742   6.479  11.155   4.181  0.2350  0.3217 -0.3968
14476SOL    HW253743   6.347  11.080   4.182  0.1032  0.5508  0.6160
14477SOL     OW53744   8.324  11.866   4.998  0.4061  0.0051 -0.1664
14477SOL    HW153745   8.302  11.892   5.088 -1.3760  1.1916 -0.9021
14477SOL    HW253746   8.244  11.882   4.948  0.5526 -2.9320 -1.5465
14478SOL     OW53747  10.540   2.557   5.401 -0.3267 -0.2309 -0.1584
14478SOL    HW153748  10.465   2.507   5.370 -0.0631 -0.5299 -0.3203
14478SOL    HW253749  10.591   2.577   5.322  0.4748 -1.2042  0.0924
14479SOL     OW53750   1.364   6.631  12.123  0.3707 -0.1528  0.2057
14479SOL    HW153751   1.270   6.629  12.141  0.6302 -1.3910  1.5711
14479SOL    HW253752   1.400   6.686  12.193  0.9096 -1.5320  1.0351
14480SOL     OW53753  11.336   9.302   3.649  0.6902  0.4812 -0.2496
14480SOL    HW153754  11.256   9.267   3.688  0.2548 -0.6007 -1.9845
14480SOL    HW253755  11.333   9.396   3.666 -0.9260  0.4533 -0.2524
14481SOL     OW53756   3.374   7.986   2.692 -0.2423 -0.2345  0.1002
14481SOL    HW153757   3.283   8.003   2.671 -0.1566 -0.8621 -0.8194
14481SOL    HW253758   3.424   8.048   2.640 -0.0175 -1.9853 -1.9065
14482SOL     OW53759   4.035   8.737   0.322  0.2461  0.1399 -0.0092
14482SOL    HW153760   3.959   8.701   0.277 -0.4467 -0.1815  1.3778
14482SOL    HW253761   4.096   8.759   0.251 -0.2070 -1.6682 -1.0182
14483SOL     OW53762   1.345  12.655   9.302 -0.4943  0.1913  0.9652
14483SOL    HW153763   1.399  12.721   9.346  0.9971 -0.6564  0.5124
14483SOL    HW253764   1.342  12.582   9.363  1.2211 -0.8222 -0.0851
14484SOL     OW53765   0.374  11.748   2.783  0.2836 -0.1439 -0.2293
14484SOL    HW153766   0.458  11.703   2.789  0.1929 -0.2819  0.0338
14484SOL    HW253767   0.310  11.684   2.815  0.1541  0.1713  0.1516
14485SOL     OW53768  12.197  11.450   6.318 -0.2092 -0.0908 -0.6164
14485SOL    HW153769  12.223  11.413   6.402  1.6786 -1.7248 -1.8199
14485SOL    HW253770  12.110  11.414   6.302 -0.7257  0.4916  0.7426
14486SOL     OW53771   4.108   6.871  12.957  0.2892  0.7766 -0.7002
14486SOL    HW153772   4.184   6.844  13.009 -0.6228 -1.1777 -0.3079
14486SOL    HW253773   4.034   6.867  13.017 -0.6145 -0.4312 -1.8264
14487SOL     OW53774   5.090   6.218  10.259  0.1385  0.4693  0.2702
14487SOL    HW153775   5.113   6.143  10.315 -0.0823 -0.2054 -0.5115
14487SOL    HW253776   5.174   6.260  10.239  0.1252  1.3984  1.9933
14488SOL     OW53777   2.552   8.082   2.821  0.2746 -0.0562  0.0560
14488SOL    HW153778   2.590   8.069   2.908  2.6837 -0.7386 -0.9937
14488SOL    HW253779   2.535   8.176   2.817  0.3610  0.0246  1.1715
14489SOL     OW53780   8.932   8.390   1.496  0.0811 -0.2201 -0.1757
14489SOL    HW153781   8.945   8.442   1.575 -1.1563 -1.0162  0.5805
14489SOL    HW253782   8.979   8.308   1.513 -1.0335 -0.8033  0.1870
14490SOL     OW53783   1.167  10.231   7.042 -0.5298  0.5910  0.2739
14490SOL    HW153784   1.211  10.300   6.992 -1.1759  0.9749  0.2266
14490SOL    HW253785   1.120  10.277   7.111 -1.5226  0.2687 -0.1689
14491SOL     OW53786   0.518  12.114   3.851 -0.6532 -0.1893  0.0155
14491SOL    HW153787   0.574  12.163   3.912 -0.5457 -0.2113 -0.0662
14491SOL    HW253788   0.455  12.179   3.820 -1.9449 -0.6025  1.6325
14492SOL     OW53789   5.873   3.436   1.453 -0.3210 -0.5748  0.1687
14492SOL    HW153790   5.938   3.505   1.458 -1.0209  0.2801 -1.6002
14492SOL    HW253791   5.923   3.354   1.458  1.0336  0.0365 -2.1142
14493SOL     OW53792   2.858  12.098   9.385 -0.0328 -0.0101  0.4178
14493SOL    HW153793   2.805  12.102   9.306 -0.2232  0.4972  0.5632
14493SOL    HW253794   2.812  12.037   9.443  0.5220 -0.9916 -0.1531
14494SOL     OW53795   2.614   8.244  10.284  0.7359 -0.0384  0.0870
14494SOL    HW153796   2.574   8.257  10.370 -0.5700 -1.3733 -0.2826
14494SOL    HW253797   2.629   8.150  10.278  2.7197  0.2450 -0.3657
14495SOL     OW53798   8.396   7.176   7.702  0.0376 -0.2067  0.2040
14495SOL    HW153799   8.417   7.083   7.712  0.7329 -0.2059 -0.9939
14495SOL    HW253800   8.352   7.181   7.617 -0.1934  0.5291  0.3650
14496SOL     OW53801  10.103   7.687   9.646  0.3524  0.1820  0.2704
14496SOL    HW153802  10.164   7.621   9.613 -1.0520 -1.6436  1.1849
14496SOL    HW253803  10.019   7.665   9.605 -0.0129  1.8791  0.0272
14497SOL     OW53804   0.821   0.216  11.198 -0.0923  0.4328 -0.0687
14497SOL    HW153805   0.820   0.122  11.177 -3.8027 -0.1620  1.7861
14497SOL    HW253806   0.857   0.219  11.287  0.0942  0.7386 -0.1580
14498SOL     OW53807   7.598  11.252   2.384 -0.4829 -0.1200  0.6034
14498SOL    HW153808   7.503  11.247   2.394 -0.2790 -1.9231  2.3002
14498SOL    HW253809   7.626  11.161   2.379  1.2259  0.3603  0.8216
14499SOL     OW53810   9.845   8.553  11.333 -0.0999 -0.5804  0.3561
14499SOL    HW153811   9.915   8.504  11.290 -0.0743 -0.7858  0.6316
14499SOL    HW253812   9.783   8.573  11.263  0.2190 -0.4185  0.1142
14500SOL     OW53813   5.624   6.910   0.728  0.5335  0.6737  0.0541
14500SOL    HW153814   5.570   6.927   0.806 -0.5549  1.5609 -0.8527
14500SOL    HW253815   5.620   6.991   0.678  1.4984  0.2310 -0.7694
14501SOL     OW53816   9.160   6.023   3.076 -0.1223  0.2395  0.3370
14501SOL    HW153817   9.193   6.032   3.166  1.9095 -1.1429 -0.2154
14501SOL    HW253818   9.116   5.938   3.075  0.2086  0.0715 -0.0713
14502SOL     OW53819   7.549   8.135   3.035 -0.2344  0.6692  0.0851
14502SOL    HW153820   7.561   8.205   3.098  1.9122 -0.2709  0.8303
14502SOL    HW253821   7.597   8.061   3.072  0.1888 -0.2384 -2.1141
14503SOL     OW53822   5.413   9.027   5.893  0.3205  0.3106 -0.3989
14503SOL    HW153823   5.339   9.082   5.866  0.0537  1.1915  1.9229
14503SOL    HW253824   5.488   9.064   5.845 -0.5075  0.2107 -1.8136
14504SOL     OW53825   6.524   3.969   4.928  0.2808  0.6334 -0.6070
14504SOL    HW153826   6.536   3.908   4.855 -0.9015 -0.0722 -0.2358
14504SOL    HW253827   6.585   3.940   4.995  0.2842  0.3515 -0.7336
14505SOL     OW53828  12.913   3.654  11.936  0.0774 -0.2978  0.0133
14505SOL    HW153829  12.938   3.658  12.029 -1.0164 -1.3912  0.3776
14505SOL    HW253830  12.878   3.741  11.917  1.0440  0.1931  0.3880
14506SOL     OW53831   0.355   8.766   3.186 -0.4022 -0.3446 -0.2082
14506SOL    HW153832   0.393   8.678   3.196 -0.4791 -0.2096  1.6078
14506SOL    HW253833   0.430   8.825   3.187 -0.4931 -0.2344  1.0750
14507SOL     OW53834  10.747   1.138   8.867 -0.0869 -0.5589  0.2090
14507SOL    HW153835  10.733   1.230   8.843  0.3912 -0.3370  0.7575
14507SOL    HW253836  10.737   1.136   8.962  1.0769 -0.8441  0.3377
14508SOL     OW53837   2.141   1.456   7.313 -0.5034  0.3503  0.0521
14508SOL    HW153838   2.061   1.405   7.296 -1.1761  1.6731 -1.0426
14508SOL    HW253839   2.167   1.488   7.226 -0.1683  1.9045  0.6888
14509SOL     OW53840  12.560   5.503   9.045 -0.8520  0.4586 -0.0992
14509SOL    HW153841  12.472   5.490   9.010 -0.9965  2.8314 -0.8439
14509SOL    HW253842  12.614   5.525   8.969  0.5726 -1.5530  0.2584
14510SOL     OW53843  12.463   6.115   4.163  0.2031  0.9226  0.5332
14510SOL    HW153844  12.416   6.194   4.135  1.3247  1.9421  1.3574
14510SOL    HW253845  12.523   6.095   4.091 -1.0649 -0.0445 -0.2777
14511SOL     OW53846  11.482   4.397   6.768 -0.0076  0.2207  0.1256
14511SOL    HW153847  11.402   4.450   6.770  0.5251  1.0963 -0.5333
14511SOL    HW253848  11.542   4.443   6.827 -0.2170 -0.8421  1.1947
14512SOL     OW53849   0.481   2.708  10.479  0.1212 -0.1770  0.2048
14512SOL    HW153850   0.562   2.756  10.459 -0.0959  0.8292  1.6062
14512SOL    HW253851   0.496   2.620  10.444  1.0714  0.5051 -1.2238
14513SOL     OW53852  12.319   5.911   8.075 -0.5197  0.1661  0.4382
14513SOL    HW153853  12.360   5.834   8.037 -0.5815  0.1557  0.3933
14513SOL    HW253854  12.339   5.905   8.169 -1.0329 -0.2261  0.5325
14514SOL     OW53855   8.498   1.863   6.716 -0.6703  0.5858 -0.5722
14514SOL    HW153856   8.501   1.811   6.796 -1.3535 -0.3849 -1.1628
14514SOL    HW253857   8.481   1.952   6.746 -1.1968  0.1837  0.3524
14515SOL     OW53858   1.566  10.879  12.786  0.4649  0.6668  0.6685
14515SOL    HW153859   1.597  10.805  12.733 -0.6166  0.8064 -0.2089
14515SOL    HW253860   1.644  10.932  12.801  0.7182  0.9788 -1.4183
14516SOL     OW53861  10.437   4.649  11.944  0.3114  0.7031  0.0991
14516SOL    HW153862  10.529   4.646  11.917  0.8168 -1.4527  1.7288
14516SOL    HW253863  10.441   4.654  12.040 -1.2042 -1.2761  0.3304
14517SOL     OW53864  12.265   6.557   3.000 -0.2820  0.6613  0.1297
14517SOL    HW153865  12.342   6.525   2.953 -0.3347  2.5878 -1.3843
14517SOL    HW253866  12.192   6.541   2.942 -0.9765 -0.4768  1.2551
14518SOL     OW53867   4.034   0.742   8.463 -0.0547  0.1952  0.1384
14518SOL    HW153868   4.053   0.779   8.377  2.5017 -1.6358 -0.1846
14518SOL    HW253869   4.070   0.805   8.526  0.8865  0.0572 -0.2581
14519SOL     OW53870  12.196   6.010   8.752  0.2931 -0.0410 -0.9112
14519SOL    HW153871  12.169   6.019   8.661 -0.5497 -0.2056 -0.6822
14519SOL    HW253872  12.286   6.044   8.754  0.2865  0.0415 -1.7808
14520SOL     OW53873   4.365  12.606  12.309  0.5396 -0.5994 -0.0635
14520SOL    HW153874   4.456  12.591  12.334  0.4338  0.0367  0.7656
14520SOL    HW253875   4.353  12.701  12.319 -0.9509 -0.9480  2.5703
14521SOL     OW53876  11.488   5.864   7.622  0.4891 -0.0107 -0.4694
14521SOL    HW153877  11.450   5.824   7.700 -0.4605  0.7130 -0.5472
14521SOL    HW253878  11.476   5.799   7.553  1.6676 -0.8097  0.0470
14522SOL     OW53879   0.023  12.050  10.354 -0.4857 -0.0559 -0.3012
14522SOL    HW153880   0.093  11.995  10.320 -0.6804 -0.3927 -0.1646
14522SOL    HW253881   0.058  12.139  10.352 -0.1415 -0.1969 -0.4517
14523SOL     OW53882   4.992   0.684   8.400  0.1054  0.4734 -0.6445
14523SOL    HW153883   5.086   0.676   8.383 -0.0031  1.2517 -1.7063
14523SOL    HW253884   4.955   0.601   8.371  0.0370  1.4400 -3.7768
14524SOL     OW53885   4.658   4.697   4.688  0.0265 -0.1677 -0.6980
14524SOL    HW153886   4.720   4.682   4.617  0.7465  0.7640 -0.2798
14524SOL    HW253887   4.710   4.689   4.768 -0.4121  0.4995 -0.3345
14525SOL     OW53888  11.902   7.073   7.683 -0.5019  0.3072  0.0638
14525SOL    HW153889  11.904   7.098   7.591 -1.1332 -2.1762 -0.6727
14525SOL    HW253890  11.816   7.101   7.714  0.3389  2.7099  0.4452
14526SOL     OW53891   9.950   7.119   8.664 -0.1257  0.4288 -0.2156
14526SOL    HW153892   9.871   7.150   8.621 -0.7770 -0.6296  0.1784
14526SOL    HW253893   9.932   7.128   8.758 -0.2979 -0.9936 -0.0935
14527SOL     OW53894   7.490   6.276   5.603  0.0164 -0.5929  0.2843
14527SOL    HW153895   7.429   6.267   5.675  0.9901  0.1156  1.2297
14527SOL    HW253896   7.576   6.287   5.645  0.3670  1.8075 -0.9012
14528SOL     OW53897   3.198  10.571   1.335 -0.5293  0.6736 -0.3649
14528SOL    HW153898   3.241  10.612   1.410 -0.5233  0.9949 -0.5421
14528SOL    HW253899   3.175  10.483   1.366 -0.8371  0.9234  0.1254
14529SOL     OW53900   1.753   1.979   5.768 -0.0904  0.2572  0.4212
14529SOL    HW153901   1.836   2.022   5.789  0.5238 -0.1979 -0.9553
14529SOL    HW253902   1.700   2.047   5.727  0.9374 -0.2391 -1.8949
14530SOL     OW53903   0.113   1.341   6.898 -0.3824  0.3941 -0.3697
14530SOL    HW153904   0.059   1.416   6.923  0.8275  0.9789  0.6442
14530SOL    HW253905   0.091   1.273   6.961  0.1064  0.6687  0.1111
14531SOL     OW53906   0.675   0.644   7.803  0.6019 -0.1832  1.0979
14531SOL    HW153907   0.746   0.706   7.784 -0.2334  0.5448  0.1942
14531SOL    HW253908   0.642   0.671   7.888  1.6768 -0.8110  1.7371
14532SOL     OW53909  12.560   3.257   0.874  0.2713 -0.2370 -0.1606
14532SOL    HW153910  12.607   3.182   0.910  0.2286  0.4493  1.4295
14532SOL    HW253911  12.539   3.232   0.784  4.1636 -0.3704 -1.2050
14533SOL     OW53912   5.116   2.659   2.309 -0.0664 -0.2477 -0.0690
14533SOL    HW153913   5.197   2.609   2.299 -0.5087 -0.7283 -1.6235
14533SOL    HW253914   5.113   2.682   2.402  0.7630 -2.0835  0.4725
14534SOL     OW53915  10.637   3.534   0.924  0.6014  0.1986 -0.4749
14534SOL    HW153916  10.638   3.625   0.955 -0.6176  0.3267 -0.7362
14534SOL    HW253917  10.553   3.499   0.955 -0.2057  0.0249 -2.6755
14535SOL     OW53918   1.768  12.720   5.859  0.0628 -0.5116 -0.8408
14535SOL    HW153919   1.835  12.663   5.897  0.1867  0.8615  1.1261
14535SOL    HW253920   1.817  12.795   5.826 -0.4138  0.0825 -0.2071
14536SOL     OW53921  11.081   9.867   1.840  0.3008 -0.1005  0.6742
14536SOL    HW153922  11.127   9.948   1.861  0.9434 -0.4117  0.4840
14536SOL    HW253923  11.139   9.820   1.781 -0.3998 -0.3600  0.1703
14537SOL     OW53924   6.057  10.787  12.526 -0.0932  0.0978 -0.0071
14537SOL    HW153925   5.985  10.723  12.524 -1.0878  1.1879 -1.9667
14537SOL    HW253926   6.078  10.802  12.434  1.8712  0.7285  0.4877
14538SOL     OW53927   3.459   2.906   8.883  0.1158 -0.1529  0.2062
14538SOL    HW153928   3.530   2.886   8.943  2.3763  0.1520 -2.2105
14538SOL    HW253929   3.435   2.997   8.903  2.0319  0.5378 -0.3901
14539SOL     OW53930   4.913   3.719   9.345 -0.3536 -0.2924 -0.6170
14539SOL    HW153931   4.825   3.718   9.306 -1.1136  1.6031  0.8455
14539SOL    HW253932   4.899   3.756   9.433  1.3745 -3.4393  1.1722
14540SOL     OW53933   4.508   6.575   3.797  0.2128  0.5019 -0.0849
14540SOL    HW153934   4.599   6.563   3.771  0.6473 -0.2332  1.6490
14540SOL    HW253935   4.509   6.565   3.892 -1.6273  0.8609  0.0038
14541SOL     OW53936   2.935   9.019   8.808 -0.3052 -0.7887 -0.2683
14541SOL    HW153937   2.925   8.938   8.857  1.1807 -0.5984  0.4101
14541SOL    HW253938   2.974   9.081   8.871  2.0825 -0.6721 -1.7330
14542SOL     OW53939   2.541  10.307   7.132  0.5478  0.3089 -0.3065
14542SOL    HW153940   2.594  10.264   7.198  2.3303 -0.0462 -1.8776
14542SOL    HW253941   2.459  10.257   7.131  1.2632 -0.9173  0.2489
14543SOL     OW53942   8.385   4.833   5.229  0.0336 -0.6422 -0.2673
14543SOL    HW153943   8.413   4.753   5.185  3.4219 -0.2198  0.8334
14543SOL    HW253944   8.374   4.897   5.158  1.8331 -0.9351 -0.8768
14544SOL     OW53945   5.430   7.816   6.697  0.0239 -0.4219  0.0016
14544SOL    HW153946   5.382   7.792   6.618 -2.4224  0.5612  1.0895
14544SOL    HW253947   5.428   7.737   6.751  1.6234 -1.0670 -0.8174
14545SOL     OW53948   2.886   2.497   1.052  0.4729  0.2706 -0.0944
14545SOL    HW153949   2.824   2.570   1.061 -1.5249 -1.4211  0.6484
14545SOL    HW253950   2.933   2.495   1.136  1.4951  1.4601 -0.6014
14546SOL     OW53951  11.780  12.371   8.823 -0.1039 -0.0902 -0.2222
14546SOL    HW153952  11.795  12.292   8.874  1.3337 -0.4101 -1.0630
14546SOL    HW253953  11.867  12.408   8.809 -0.5709  0.6758 -1.3433
14547SOL     OW53954  12.586   2.013  12.021 -0.2028  0.5596 -0.0658
14547SOL    HW153955  12.562   1.921  12.005  0.6317  0.7280 -2.7546
14547SOL    HW253956  12.660   2.008  12.082  0.1976 -0.5997 -0.6186
14548SOL     OW53957  11.499  12.448   2.305 -0.2062 -0.3200 -0.4853
14548SOL    HW153958  11.581  12.451   2.355 -0.6500 -1.6672  0.3807
14548SOL    HW253959  11.516  12.385   2.235 -0.2104  0.1040 -0.8734
14549SOL     OW53960  10.251   2.450   5.550  0.6201 -0.2962 -0.3587
14549SOL    HW153961  10.333   2.448   5.599  0.1916 -3.4608  0.4209
14549SOL    HW253962  10.206   2.529   5.582  2.4416  0.3491  0.7319
14550SOL     OW53963   0.062  11.051  12.692  0.6564  0.0629 -0.4207
14550SOL    HW153964   0.092  11.132  12.652  0.7929 -0.2016 -0.8676
14550SOL    HW253965   0.140  10.995  12.693  0.8361  0.2989  0.8487
14551SOL     OW53966   3.769   5.383   9.670  0.1256  0.0369  0.0433
14551SOL    HW153967   3.697   5.325   9.696 -0.1754 -0.2276 -1.3072
14551SOL    HW253968   3.847   5.341   9.705 -0.1524 -0.8716 -0.3934
14552SOL     OW53969   5.920   6.753   6.524  0.5499 -0.0753 -0.0802
14552SOL    HW153970   5.957   6.798   6.447  0.2178  0.1162 -0.1289
14552SOL    HW253971   5.967   6.791   6.598  0.3052  0.3233 -0.1249
14553SOL     OW53972  11.551   5.183   9.942 -0.2161  0.3709  0.7575
14553SOL    HW153973  11.486   5.228   9.889  1.9105  1.6377 -0.9058
14553SOL    HW253974  11.542   5.091   9.918 -1.4313  0.5097  0.6317
14554SOL     OW53975   9.631  11.592   7.288 -0.1456 -0.8439 -0.3832
14554SOL    HW153976   9.705  11.622   7.235  0.1970 -1.0728 -0.0482
14554SOL    HW253977   9.559  11.650   7.264  0.1161 -0.6792 -0.7894
14555SOL     OW53978  12.586   4.482   1.491 -0.1378 -0.2405 -0.2041
14555SOL    HW153979  12.615   4.570   1.466 -1.3272  0.3415  0.3918
14555SOL    HW253980  12.576   4.436   1.408  1.6355 -0.2143 -0.4736
14556SOL     OW53981   3.319  10.209   7.727  0.3606 -0.0177  0.1091
14556SOL    HW153982   3.320  10.278   7.660  0.6635  0.6015  0.7334
14556SOL    HW253983   3.361  10.250   7.803 -1.7524 -0.0064  1.3477
14557SOL     OW53984   4.806  12.760   8.161  0.1342 -0.2894  0.5228
14557SOL    HW153985   4.801  12.770   8.066  0.0054 -0.1258  0.5464
14557SOL    HW253986   4.715  12.748   8.189  0.1706 -0.3305  0.6277
14558SOL     OW53987   8.278   2.123   4.714 -0.3421  0.5846 -0.7125
14558SOL    HW153988   8.185   2.127   4.692 -0.6245 -3.6906 -1.0635
14558SOL    HW253989   8.283   2.062   4.788  2.1288  1.6355  0.1159
14559SOL     OW53990   4.023  12.060   7.122  0.5913  0.5616  0.2224
14559SOL    HW153991   3.986  12.093   7.040  0.8768  1.0464  0.2866
14559SOL    HW253992   3.958  12.083   7.189 -0.2896 -1.0397 -0.0465
14560SOL     OW53993   9.146   8.078   4.750 -0.4478 -0.5235 -0.6442
14560SOL    HW153994   9.181   8.004   4.700 -0.9391 -0.5760 -0.9096
14560SOL    HW253995   9.111   8.039   4.830 -0.1436 -0.5011 -0.4979
14561SOL     OW53996   1.270   9.749  10.119  0.3011  0.0319 -0.3618
14561SOL    HW153997   1.262   9.695  10.041  1.3795 -0.1699 -0.3401
14561SOL    HW253998   1.263   9.839  10.087 -0.4873 -0.0817 -0.5232
14562SOL     OW53999   9.930   2.659   9.866 -0.1537  0.1011 -0.1374
14562SOL    HW154000   9.840   2.633   9.845 -0.2031 -0.0794  0.2923
14562SOL    HW254001   9.922   2.744   9.907  0.0406  1.0380 -1.9289
14563SOL     OW54002   5.808   8.113   8.490 -0.4304  0.0839 -0.1462
14563SOL    HW154003   5.878   8.073   8.541 -0.4532 -0.5550 -0.5988
14563SOL    HW254004   5.805   8.061   8.409  0.8088  2.1625 -1.6314
14564SOL     OW54005   0.927   6.820   0.797 -0.4552 -0.1755 -0.2807
14564SOL    HW154006   0.865   6.810   0.869 -1.2534  0.8492 -0.7933
14564SOL    HW254007   1.002   6.865   0.836 -0.3197 -0.7957  0.1880
14565SOL     OW54008  12.027   9.396   9.904 -0.1815  0.1627  0.3102
14565SOL    HW154009  12.113   9.354   9.914 -0.2413  0.2943  1.4516
14565SOL    HW254010  12.047   9.489   9.899 -0.1034  0.0947 -1.6098
14566SOL     OW54011   1.467   9.067   1.273  0.0710 -0.1086 -0.5029
14566SOL    HW154012   1.374   9.086   1.259  0.3717  0.1351 -2.3632
14566SOL    HW254013   1.470   8.971   1.277 -0.3498 -0.1002  0.4861
14567SOL     OW54014   2.346   2.515  12.489  0.3416 -0.5979  0.2501
14567SOL    HW154015   2.368   2.593  12.439  0.0845  0.7849  2.1878
14567SOL    HW254016   2.424   2.496  12.541 -0.8102  0.7718  2.6807
14568SOL     OW54017   0.972  12.729   0.473  0.2964  0.1050  0.2472
14568SOL    HW154018   0.882  12.758   0.461 -0.4121 -0.9595  2.4099
14568SOL    HW254019   1.025  12.803   0.443 -1.3465  1.5737  0.7791
14569SOL     OW54020   7.958  11.406   8.439 -0.3827 -0.0299 -0.0910
14569SOL    HW154021   8.013  11.336   8.405 -0.0204 -0.4843  1.3607
14569SOL    HW254022   7.962  11.396   8.534  0.9676  2.9230  0.2646
14570SOL     OW54023   3.214   5.178   0.446  0.3323  1.1919 -0.3837
14570SOL    HW154024   3.153   5.250   0.431 -1.3894 -0.1901 -0.3620
14570SOL    HW254025   3.241   5.151   0.358 -0.2655  0.8654 -0.4721
14571SOL     OW54026  11.441   2.828  12.398  0.0792 -0.1323  0.2949
14571SOL    HW154027  11.362   2.827  12.452  1.3045 -0.9920  2.1905
14571SOL    HW254028  11.423   2.894  12.331 -3.0082 -1.7255 -0.6121
14572SOL     OW54029   1.129  10.987   1.709 -0.0102  0.1021 -0.5229
14572SOL    HW154030   1.099  11.000   1.619 -1.6746 -0.0961 -0.0384
14572SOL    HW254031   1.170  11.070   1.733  0.4189  0.1711 -1.4416
14573SOL     OW54032   1.109   2.783   4.073 -0.3471  1.0235  0.4023
14573SOL    HW154033   1.165   2.852   4.041  0.1247  0.3506 -0.2472
14573SOL    HW254034   1.168   2.709   4.090 -1.1914 -0.3092 -1.9982
14574SOL     OW54035   8.098   9.882   5.680 -0.2435 -0.4410  0.1594
14574SOL    HW154036   8.118   9.892   5.773 -3.0337 -0.4542  0.8540
14574SOL    HW254037   8.085   9.971   5.648  1.9351 -0.3359 -0.6108
14575SOL     OW54038   0.219   4.627   7.696  0.2859  0.2926 -0.0445
14575SOL    HW154039   0.226   4.661   7.606 -1.5163  0.9324  0.0131
14575SOL    HW254040   0.154   4.557   7.689 -0.8685  1.2211  0.9602
14576SOL     OW54041  10.282   0.711   2.879 -0.4614  0.0942 -0.5632
14576SOL    HW154042  10.220   0.716   2.806  0.2202  1.1866 -1.0796
14576SOL    HW254043  10.246   0.770   2.945  0.4449  1.4235 -1.2111
14577SOL     OW54044  11.975  10.167   0.864 -0.4743  0.3933 -0.3023
14577SOL    HW154045  11.900  10.108   0.860 -0.2658  0.0989  0.0015
14577SOL    HW254046  11.985  10.185   0.958 -1.1697  1.7384 -0.4559
14578SOL     OW54047   2.226  12.942   9.118 -0.8665 -0.1738  0.2846
14578SOL    HW154048   2.268  12.894   9.046  1.5758 -1.7177  2.5695
14578SOL    HW254049   2.132  12.932   9.101 -0.4345 -0.1855 -2.7967
14579SOL     OW54050  11.187   0.396   6.331 -0.0303  0.6896 -0.9628
14579SOL    HW154051  11.255   0.453   6.295 -0.1916  0.6126 -1.3939
14579SOL    HW254052  11.192   0.410   6.426  1.0149  0.2055 -0.9299
14580SOL     OW54053   9.867  12.898   2.539 -0.3936 -0.5616 -0.0550
14580SOL    HW154054   9.793  12.858   2.585 -1.7802  0.2442 -1.4562
14580SOL    HW254055   9.842  12.990   2.530 -0.4010 -0.7345 -2.6588
14581SOL     OW54056   0.644   9.497   1.579  0.2539  0.1927  0.1804
14581SOL    HW154057   0.625   9.412   1.618 -0.6707  0.4660  0.3794
14581SOL    HW254058   0.577   9.508   1.511  0.2876  0.8026  0.2326
14582SOL     OW54059   2.645  10.426   0.261  0.0988  0.2840 -0.3876
14582SOL    HW154060   2.726  10.380   0.286  0.8515  1.0964 -1.2587
14582SOL    HW254061   2.580  10.396   0.325  0.7470 -1.3898 -0.4611
14583SOL     OW54062   2.880  11.863   0.751  0.3331  0.0387  0.2091
14583SOL    HW154063   2.900  11.804   0.678 -3.0183 -0.2307 -0.6791
14583SOL    HW254064   2.859  11.946   0.709  0.1624  0.3999  1.0011
14584SOL     OW54065   6.763  12.198  11.820 -0.1841  0.0935  0.2398
14584SOL    HW154066   6.753  12.208  11.915 -1.3022 -0.5196  0.1990
14584SOL    HW254067   6.680  12.162  11.791  0.7566 -1.4004 -0.7375
14585SOL     OW54068   6.149   7.376  11.391  0.2237 -0.8652 -0.2484
14585SOL    HW154069   6.219   7.314  11.412 -0.1283 -1.5429 -1.0399
14585SOL    HW254070   6.175   7.413  11.306  0.1867 -0.2706 -0.0091
14586SOL     OW54071   4.637  12.597  12.724 -0.5120 -0.2093 -0.9699
14586SOL    HW154072   4.602  12.642  12.801  1.2901  0.4286 -0.4591
14586SOL    HW254073   4.660  12.668  12.663 -1.2095 -0.6693 -1.7933
14587SOL     OW54074  10.172   6.510   8.835  0.0810 -0.1103 -0.1881
14587SOL    HW154075  10.178   6.449   8.909 -1.0943 -0.5245 -0.3948
14587SOL    HW254076  10.093   6.561   8.853  1.4143  1.8836  0.3290
14588SOL     OW54077   5.523   5.043   4.721  0.1722  0.5922  0.0073
14588SOL    HW154078   5.537   4.962   4.672 -0.7059  0.7898 -0.5732
14588SOL    HW254079   5.589   5.103   4.687  1.0658  0.0298  0.6877
14589SOL     OW54080   9.407   4.038   7.917 -0.2286  0.3526 -0.0926
14589SOL    HW154081   9.383   4.097   7.845  1.3464  1.2772  0.0960
14589SOL    HW254082   9.502   4.046   7.923 -0.2989  0.0117  1.8752
14590SOL     OW54083   2.220   3.892   3.111  0.2907  0.2824  0.2453
14590SOL    HW154084   2.183   3.960   3.167 -0.4242 -0.4673  0.6974
14590SOL    HW254085   2.175   3.811   3.137  0.1326 -0.1372 -1.2176
14591SOL     OW54086  11.192  11.699   8.890 -0.2529 -0.1616 -0.0100
14591SOL    HW154087  11.151  11.776   8.928 -1.5204 -0.7599 -0.0831
14591SOL    HW254088  11.264  11.677   8.949 -0.5585  0.4401  0.5915
14592SOL     OW54089  12.977   1.026   0.467  0.5276 -0.2749  0.2797
14592SOL    HW154090  12.969   1.114   0.505  2.5038  1.5175 -3.0163
14592SOL    HW254091  12.895   1.013   0.420  0.4332  0.0213  0.3597
14593SOL     OW54092   2.182   6.727   7.652  0.2221  0.1322  0.2712
14593SOL    HW154093   2.242   6.684   7.592 -0.3312  0.6135 -0.6485
14593SOL    HW254094   2.100   6.733   7.604  0.0228  1.3471  0.7294
14594SOL     OW54095   4.793   3.017   2.930  0.5965  0.4288 -0.2168
14594SOL    HW154096   4.822   3.052   3.014 -1.3395 -0.8347  1.0496
14594SOL    HW254097   4.866   3.034   2.871  1.9584  1.5043  1.6622
14595SOL     OW54098   7.883   3.266   5.988  0.3337  0.3219 -0.4308
14595SOL    HW154099   7.967   3.230   5.962 -0.1246 -0.3800 -0.9862
14595SOL    HW254100   7.826   3.251   5.913  0.0753  2.1037 -0.6409
14596SOL     OW54101   0.100   8.779   8.774 -0.4596  0.1389 -0.2064
14596SOL    HW154102   0.028   8.719   8.791  0.9163 -1.3925  0.5308
14596SOL    HW254103   0.103   8.786   8.679 -0.3930 -1.3427 -0.3416
14597SOL     OW54104  10.745   7.246   4.469  0.4229  0.0135 -0.1978
14597SOL    HW154105  10.783   7.286   4.547  1.5947 -2.2135  0.4625
14597SOL    HW254106  10.652   7.237   4.490  0.9319 -1.7798  1.5655
14598SOL     OW54107   5.010   4.650   2.919 -0.6230 -0.0567 -0.4505
14598SOL    HW154108   5.071   4.688   2.982  0.0738 -0.2663 -0.9820
14598SOL    HW254109   5.017   4.705   2.842 -2.2472  0.8280 -0.0212
14599SOL     OW54110  10.512   5.593  10.177 -0.0117 -0.0646  0.6479
14599SOL    HW154111  10.574   5.635  10.118  1.3905 -1.4640  1.0490
14599SOL    HW254112  10.436   5.572  10.122  0.2195  0.8816 -0.0573
14600SOL     OW54113   2.095  12.391  11.651  0.1667 -0.3483  0.0515
14600SOL    HW154114   2.154  12.348  11.713  1.3482 -0.6336 -1.2288
14600SOL    HW254115   2.152  12.424  11.582 -0.8656  2.0209  0.2327
14601SOL     OW54116   9.517  12.669   2.335  0.1508 -0.4694 -0.5780
14601SOL    HW154117   9.548  12.727   2.405  0.4685 -0.3147 -0.8456
14601SOL    HW254118   9.446  12.718   2.293  0.2273 -0.3961 -0.6200
14602SOL     OW54119   3.081   4.777   9.345 -0.3412  0.2524 -0.4653
14602SOL    HW154120   3.052   4.762   9.435 -0.1076  0.5201 -0.3439
14602SOL    HW254121   3.012   4.738   9.291  0.0570 -0.8845 -0.1701
14603SOL     OW54122  12.913   9.743   3.620 -0.2386 -0.1318 -0.4706
14603SOL    HW154123  12.842   9.729   3.683  0.3746  2.3346  0.9007
14603SOL    HW254124  12.993   9.735   3.671  0.2661  2.2472 -0.7777
14604SOL     OW54125  10.754   8.663   7.451 -0.0919 -0.3638 -0.2986
14604SOL    HW154126  10.832   8.702   7.413  0.2538 -0.2364  0.5393
14604SOL    HW254127  10.684   8.726   7.434  0.4912  0.7265  1.1894
14605SOL     OW54128   7.763   0.929   9.296 -0.4268 -0.0631  0.3551
14605SOL    HW154129   7.839   0.923   9.237 -0.3175 -1.2524  0.5888
14605SOL    HW254130   7.788   0.996   9.360 -0.1076  0.4744 -0.3172
14606SOL     OW54131   7.564   7.827   9.696 -0.2164  0.1563 -0.4761
14606SOL    HW154132   7.563   7.740   9.737 -1.8978  0.4903  0.2908
14606SOL    HW254133   7.574   7.887   9.769 -2.1131  0.7115 -0.6148
14607SOL     OW54134   2.558  10.487   2.003  0.0045  0.2157 -0.2640
14607SOL    HW154135   2.556  10.393   1.990  0.1653  0.1227  0.3228
14607SOL    HW254136   2.487  10.522   1.950 -2.1280 -0.5403  1.9224
14608SOL     OW54137   6.312   2.886   4.212  0.2451 -0.1978  0.0011
14608SOL    HW154138   6.309   2.969   4.260  1.0686 -0.0866 -0.1297
14608SOL    HW254139   6.372   2.901   4.140 -0.0523 -0.7369 -0.3739
14609SOL     OW54140   4.003   0.025   2.988 -0.4359  0.8579 -0.7583
14609SOL    HW154141   4.058   0.060   3.057 -1.3610  0.9505 -0.0476
14609SOL    HW254142   4.060   0.022   2.911  1.0302 -0.6195  0.3280
14610SOL     OW54143   4.513   2.315   0.963 -0.3547  0.0553  0.0906
14610SOL    HW154144   4.586   2.284   0.909 -0.0104  2.9129 -1.2467
14610SOL    HW254145   4.552   2.378   1.023 -1.6845  1.8521 -0.8335
14611SOL     OW54146  11.772   5.826   0.656  0.7194 -0.7703  0.0398
14611SOL    HW154147  11.754   5.734   0.638  0.3159 -0.5079 -0.9756
14611SOL    HW254148  11.852   5.825   0.709  1.3205 -1.6603 -0.8511
14612SOL     OW54149   6.406   8.923  10.834 -0.9203  0.0600  0.1850
14612SOL    HW154150   6.457   8.844  10.853  0.6659  1.2538  1.1529
14612SOL    HW254151   6.471   8.987  10.806 -2.5462 -0.0033 -4.5336
14613SOL     OW54152  11.131   8.591   0.751  0.3871  0.2371 -0.5754
14613SOL    HW154153  11.116   8.572   0.844 -0.3517  1.1249 -0.4970
14613SOL    HW254154  11.177   8.514   0.718 -0.6143 -0.7333  0.2041
14614SOL     OW54155   9.858  11.365   6.619 -0.0858  0.4861 -0.2074
14614SOL    HW154156   9.911  11.310   6.677 -0.5805  0.2609  0.0354
14614SOL    HW254157   9.899  11.451   6.624  1.3795 -0.0889 -1.4495
14615SOL     OW54158   3.678   9.424   1.837  0.0117 -0.4265  0.2139
14615SOL    HW154159   3.753   9.422   1.896 -0.3091 -0.5616  0.6192
14615SOL    HW254160   3.645   9.514   1.843  0.9747  0.0480 -1.0334
14616SOL     OW54161   8.145   7.397   7.536  0.5777 -0.0979 -0.6893
14616SOL    HW154162   8.129   7.336   7.607  2.3235  0.6228  0.3896
14616SOL    HW254163   8.222   7.362   7.490  0.8718  0.6349 -0.7814
14617SOL     OW54164   1.946   4.224  11.355  0.3395 -0.0814  0.2192
14617SOL    HW154165   1.855   4.216  11.325 -0.2765  0.8733  1.7381
14617SOL    HW254166   1.989   4.145  11.322 -0.8471 -0.2018 -1.1498
14618SOL     OW54167   4.636   0.532   3.287  0.3134 -0.5824  0.0440
14618SOL    HW154168   4.700   0.596   3.319  0.5028 -1.3296  1.2247
14618SOL    HW254169   4.610   0.565   3.201  0.5830  0.9483  0.5163
14619SOL     OW54170  10.601   6.553   6.549  0.3938 -0.0721 -0.0209
14619SOL    HW154171  10.644   6.638   6.559 -0.1048  0.5247 -2.5164
14619SOL    HW254172  10.673   6.490   6.547  0.8306  0.3922  0.5849
14620SOL     OW54173   1.230   6.387   3.652  0.3637  0.3762  0.6777
14620SOL    HW154174   1.155   6.332   3.674  1.0132 -0.0883  1.8446
14620SOL    HW254175   1.196   6.451   3.590 -0.9325  0.0159  0.9970
14621SOL     OW54176   0.784   8.686   6.483 -1.0124 -0.2995 -0.0384
14621SOL    HW154177   0.781   8.618   6.550 -1.0433 -0.4843 -0.2260
14621SOL    HW254178   0.760   8.641   6.402  1.3053 -0.6413 -0.6177
14622SOL     OW54179   6.881   3.701   3.652 -0.3127 -0.1550 -0.4686
14622SOL    HW154180   6.971   3.716   3.621  0.1446  0.1885  0.9678
14622SOL    HW254181   6.858   3.615   3.618  0.4881 -0.1721 -1.0057
14623SOL     OW54182   3.721   1.158  10.785  0.0309  0.1995  0.2923
14623SOL    HW154183   3.647   1.102  10.763  0.0677  0.5198 -0.6865
14623SOL    HW254184   3.683   1.244  10.801  0.0580  0.0768  1.0580
14624SOL     OW54185   6.709  12.743   5.150 -0.1767 -0.0720  0.0391
14624SOL    HW154186   6.628  12.793   5.136  0.8187  1.2714 -1.1904
14624SOL    HW254187   6.779  12.805   5.130  1.1884 -1.0878  1.4846
14625SOL     OW54188  10.794   4.424   8.221  0.2812 -0.4655  0.1648
14625SOL    HW154189  10.816   4.427   8.314  2.8639 -1.0782 -0.3429
14625SOL    HW254190  10.864   4.473   8.179  1.0259 -2.9495 -1.7015
14626SOL     OW54191   3.733   5.876   7.614  0.0842 -0.0957  0.0235
14626SOL    HW154192   3.757   5.964   7.586 -1.5291 -0.0928 -1.4795
14626SOL    HW254193   3.733   5.824   7.534 -0.8720 -1.0129  0.5994
14627SOL     OW54194   3.923   2.258   8.483 -0.2546  0.1456  0.3595
14627SOL    HW154195   3.958   2.256   8.571 -0.6342  0.2606  0.5163
14627SOL    HW254196   3.830   2.281   8.494  0.0676  1.9017 -0.1666
14628SOL     OW54197   8.954  10.122  10.695  0.0561  0.1593  1.0690
14628SOL    HW154198   8.907  10.183  10.638  0.5534 -0.2536  0.1869
14628SOL    HW254199   9.034  10.101  10.647  0.0936 -0.8627  1.5379
14629SOL     OW54200   8.206  12.087   1.048  0.6101  0.7987 -0.2932
14629SOL    HW154201   8.172  12.044   1.126 -0.7316  0.1012 -1.2310
14629SOL    HW254202   8.295  12.052   1.038 -0.0073 -0.8303 -0.3397
14630SOL     OW54203   6.493   7.843  10.152  0.0306  0.8126  0.1551
14630SOL    HW154204   6.557   7.895  10.201  0.2227  0.2021  0.5851
14630SOL    HW254205   6.439   7.803  10.220 -0.2619  0.6451 -0.1737
14631SOL     OW54206   9.905   2.905   9.279  1.0333 -0.3967  0.4965
14631SOL    HW154207   9.993   2.871   9.261  1.3759 -0.0445  1.4559
14631SOL    HW254208   9.905   2.922   9.373 -0.0891 -0.4497  0.5133
14632SOL     OW54209   9.303  11.734   2.239 -0.3641  0.0233 -0.0347
14632SOL    HW154210   9.276  11.707   2.151 -2.0118 -0.6246  0.6230
14632SOL    HW254211   9.297  11.829   2.238 -2.9340 -0.0687  0.0835
14633SOL     OW54212   7.013   0.395  10.155  0.5770 -0.1356 -0.1787
14633SOL    HW154213   6.955   0.320  10.167 -0.5921  0.9253  1.1930
14633SOL    HW254214   7.000   0.421  10.064 -0.2676 -0.6026 -0.2033
14634SOL     OW54215   9.995   4.529   2.058 -0.0410  0.1521 -0.1824
14634SOL    HW154216  10.018   4.604   2.003 -0.8218 -0.5755 -1.5447
14634SOL    HW254217  10.062   4.464   2.039  0.5865  0.4472  0.9362
14635SOL     OW54218   1.605   9.580   3.363 -0.1222  0.1845  0.0947
14635SOL    HW154219   1.606   9.601   3.270 -1.0615  3.1892  0.6262
14635SOL    HW254220   1.525   9.622   3.396  0.6666  0.0447  2.3964
14636SOL     OW54221   2.814   6.000   1.395  0.1853  0.5780  1.0068
14636SOL    HW154222   2.802   5.934   1.464 -0.4247  0.8455  1.1603
14636SOL    HW254223   2.768   5.964   1.319 -0.4728  0.9981  1.2032
14637SOL     OW54224  11.851   4.431   1.165  0.5473  0.6271 -0.1819
14637SOL    HW154225  11.879   4.396   1.250  1.6458  1.2597 -0.2609
14637SOL    HW254226  11.888   4.519   1.162 -1.9850  1.7845 -0.0752
14638SOL     OW54227  10.831   4.843  10.214 -0.2751 -0.2189  0.1923
14638SOL    HW154228  10.831   4.926  10.166  0.1561 -0.1900  0.2357
14638SOL    HW254229  10.806   4.866  10.303 -0.4561 -0.1815  0.1314
14639SOL     OW54230   5.323   6.418   3.177 -0.2541  0.1689  0.8474
14639SOL    HW154231   5.230   6.406   3.195 -0.4220  2.2798  1.5992
14639SOL    HW254232   5.334   6.386   3.087 -1.8376  0.5379  0.4944
14640SOL     OW54233  12.731   9.559   4.640 -0.1268 -0.2776 -0.1604
14640SOL    HW154234  12.655   9.587   4.690 -0.1537 -2.4107  1.1094
14640SOL    HW254235  12.799   9.543   4.706  0.4223 -1.3758 -0.9477
14641SOL     OW54236   6.321   4.701   5.476  0.2578  0.1562  0.3235
14641SOL    HW154237   6.340   4.618   5.433  0.4338 -0.0897  0.8660
14641SOL    HW254238   6.384   4.763   5.439 -0.1706  0.1620 -0.4167
14642SOL     OW54239   5.289   6.566   5.918 -0.5392 -0.2113  0.2760
14642SOL    HW154240   5.313   6.552   5.826 -2.8004  1.1512 -0.5981
14642SOL    HW254241   5.281   6.661   5.926  1.4963 -0.1315  2.4572
14643SOL     OW54242   8.924  12.722   1.851  0.0418  0.1465  0.3724
14643SOL    HW154243   8.965  12.758   1.772  0.5521  0.0923  0.6093
14643SOL    HW254244   8.835  12.700   1.824 -0.4577  2.0200  0.3155
14644SOL     OW54245   1.193  12.255   8.072  0.0190  0.0896 -0.0776
14644SOL    HW154246   1.285  12.252   8.095  0.3744  0.4302 -1.3766
14644SOL    HW254247   1.155  12.322   8.129  0.0649 -1.5637  2.0343
14645SOL     OW54248   7.959   5.593   2.701 -0.3970 -0.6537 -0.3922
14645SOL    HW154249   7.878   5.641   2.683 -0.3085 -0.5108 -0.4087
14645SOL    HW254250   7.987   5.624   2.787 -0.0711 -0.3044 -0.6221
14646SOL     OW54251   1.614  12.605   5.487  0.0341  0.0123 -0.4186
14646SOL    HW154252   1.640  12.645   5.570  0.7031 -0.7089 -0.2732
14646SOL    HW254253   1.542  12.546   5.510 -1.7297  1.8865 -0.7969
14647SOL     OW54254   1.194  12.554   7.394  0.2891  0.1267  0.3827
14647SOL    HW154255   1.259  12.488   7.370 -0.9029 -0.3853 -1.6457
14647SOL    HW254256   1.110  12.514   7.372 -0.5778  1.6547  0.7958
14648SOL     OW54257   6.204  11.077   4.784  0.4354 -0.0824 -0.3991
14648SOL    HW154258   6.226  11.169   4.793  1.2033 -0.2642 -0.3525
14648SOL    HW254259   6.210  11.042   4.873  0.3142 -0.2084 -0.4406
14649SOL     OW54260   8.261   6.723   2.415 -0.1607  0.3286 -0.3931
14649SOL    HW154261   8.247   6.749   2.506  0.9592  0.6769 -0.2969
14649SOL    HW254262   8.321   6.789   2.380 -1.6217  0.9731 -1.7979
14650SOL     OW54263   5.298   6.619   7.842  0.5664  0.6046 -0.4283
14650SOL    HW154264   5.303   6.712   7.820  0.3254  0.7568  0.1434
14650SOL    HW254265   5.313   6.615   7.936  0.1081  0.1137 -0.3675
14651SOL     OW54266   1.228  12.398   3.064  0.0042  0.0370  0.4726
14651SOL    HW154267   1.164  12.464   3.039  1.3619  1.7501  1.2735
14651SOL    HW254268   1.285  12.389   2.988  0.7799  1.0375  0.9140
14652SOL     OW54269   8.006   0.473   1.777 -0.1163  0.3940 -0.1145
14652SOL    HW154270   7.912   0.471   1.759  0.2568 -2.4930 -2.3851
14652SOL    HW254271   8.012   0.499   1.869 -3.1784 -0.3734  0.4017
14653SOL     OW54272   0.452   8.817   1.388  0.3840  0.0367  0.3236
14653SOL    HW154273   0.447   8.868   1.307 -0.2345 -3.0306 -1.7204
14653SOL    HW254274   0.538   8.775   1.385 -0.5131 -1.8699  0.0466
14654SOL     OW54275   6.153   9.073   7.932  0.5733  0.1069 -0.3812
14654SOL    HW154276   6.070   9.115   7.956  1.1992  0.9776  0.3363
14654SOL    HW254277   6.163   9.002   7.995  1.0245  0.8577  0.4091
14655SOL     OW54278  11.248   2.257   3.965  0.5621 -0.6691  0.2038
14655SOL    HW154279  11.227   2.167   3.991  1.5524 -0.8564  0.3997
14655SOL    HW254280  11.249   2.255   3.870  2.2565 -1.2859  0.2143
14656SOL     OW54281   4.824  10.617   2.205 -0.0478  0.1559  0.0638
14656SOL    HW154282   4.903  10.621   2.260 -0.5361  0.5583  0.7494
14656SOL    HW254283   4.761  10.569   2.258  0.1573 -1.4010 -1.0387
14657SOL     OW54284  10.082   1.532   8.436  0.8315 -0.2542 -0.3102
14657SOL    HW154285  10.009   1.593   8.421  1.4830 -0.0466 -3.4304
14657SOL    HW254286  10.123   1.562   8.516 -0.6516  1.5671 -0.1695
14658SOL     OW54287   7.100   0.110   0.887  0.0650 -0.5897 -0.2875
14658SOL    HW154288   7.004   0.116   0.884 -0.0718 -2.3411 -0.2407
14658SOL    HW254289   7.126   0.098   0.796  0.3800  1.1389 -0.4653
14659SOL     OW54290  12.933   0.887   2.429  0.5741  0.3830 -0.6088
14659SOL    HW154291  12.979   0.803   2.440 -0.1413  0.2131  1.4949
14659SOL    HW254292  12.853   0.864   2.382 -0.1563 -0.3600  0.9148
14660SOL     OW54293  11.160   4.274   7.027  0.0742 -0.2075  0.0174
14660SOL    HW154294  11.098   4.307   6.961  0.3676 -0.7578 -0.5502
14660SOL    HW254295  11.117   4.291   7.111  0.3914  1.9806 -0.2066
14661SOL     OW54296   9.917   6.413   1.721 -0.0189  0.4416  0.6243
14661SOL    HW154297   9.927   6.406   1.816  1.2606  1.8042  0.6339
14661SOL    HW254298  10.002   6.385   1.686 -1.1839 -2.2641 -0.3115
14662SOL     OW54299   4.989   6.135   5.256 -0.8181  0.3584 -0.1272
14662SOL    HW154300   5.006   6.229   5.254  0.3928  0.1447 -0.6318
14662SOL    HW254301   4.908   6.127   5.306 -0.5206  1.6058  0.6019
14663SOL     OW54302   3.624   4.867  10.125 -0.2237  0.7106  0.2519
14663SOL    HW154303   3.701   4.820  10.093  0.2567  0.5762  1.5386
14663SOL    HW254304   3.556   4.799  10.131  0.1183  0.4165  0.9327
14664SOL     OW54305  12.568  10.741  12.863  0.0261 -0.0947  0.3555
14664SOL    HW154306  12.528  10.655  12.873 -0.2913 -0.0156 -0.1818
14664SOL    HW254307  12.647  10.738  12.918  0.1946 -0.8414  0.0794
14665SOL     OW54308   4.844   1.415   6.188  0.8372 -0.0757 -0.4929
14665SOL    HW154309   4.782   1.462   6.243  0.7712  0.6041 -1.1392
14665SOL    HW254310   4.814   1.431   6.098  0.8323 -1.3195 -0.7384
14666SOL     OW54311   3.708   8.638   4.968 -0.1826  0.2127  0.4735
14666SOL    HW154312   3.776   8.653   4.902  0.9173 -0.4583  1.4335
14666SOL    HW254313   3.644   8.581   4.925 -0.1071  0.7661 -0.3970
14667SOL     OW54314   2.915  10.340  10.654 -0.0180  0.1268  0.6444
14667SOL    HW154315   2.881  10.298  10.733  2.1577 -1.4030  0.8413
14667SOL    HW254316   2.894  10.280  10.583 -2.0716  1.5547 -0.0297
14668SOL     OW54317   5.669   8.667   1.245  0.2268  0.0255 -0.4326
14668SOL    HW154318   5.663   8.707   1.158 -1.0930  0.9211  0.0294
14668SOL    HW254319   5.755   8.694   1.278  0.9423 -0.7147 -1.6135
14669SOL     OW54320   3.057   6.212   7.527 -0.2623  0.3049  0.6282
14669SOL    HW154321   3.024   6.141   7.582 -0.0994  1.1549  1.8328
14669SOL    HW254322   3.050   6.290   7.580  1.5286  0.8925  0.0829
14670SOL     OW54323   0.444   6.300   3.661 -0.3620  0.3677 -0.1450
14670SOL    HW154324   0.492   6.258   3.590  0.5771  0.6745  0.2893
14670SOL    HW254325   0.408   6.380   3.623 -1.1764 -0.2341 -0.6686
14671SOL     OW54326   9.342   2.292  11.008  0.0470  0.0862  0.4856
14671SOL    HW154327   9.368   2.271  11.098 -0.3871 -0.1538  0.5607
14671SOL    HW254328   9.421   2.280  10.956  0.2801  0.1522  0.8251
14672SOL     OW54329   4.865   9.284   3.733 -0.2760 -0.4956 -0.1325
14672SOL    HW154330   4.784   9.238   3.755  0.9315 -1.9568  1.5251
14672SOL    HW254331   4.856   9.370   3.773  0.1626 -1.6972  2.8196
14673SOL     OW54332   1.135   2.690   6.100 -0.0235  0.5784 -0.3253
14673SOL    HW154333   1.158   2.715   6.189 -2.1136 -0.0912  0.4623
14673SOL    HW254334   1.155   2.597   6.095 -0.8975  0.3729 -0.1780
14674SOL     OW54335   2.854  12.481   0.611  0.4107  0.2405  0.5256
14674SOL    HW154336   2.865  12.559   0.558  0.0933  0.0038  0.1047
14674SOL    HW254337   2.809  12.419   0.554 -0.2013  0.0825  1.1654
14675SOL     OW54338   8.480  10.603  11.349 -0.0052  0.1325 -0.1301
14675SOL    HW154339   8.448  10.677  11.296 -2.5214 -1.1715 -0.5798
14675SOL    HW254340   8.431  10.610  11.431  1.1249 -0.0205  0.5793
14676SOL     OW54341  12.531   3.271   2.300  0.2012  0.3388  0.6056
14676SOL    HW154342  12.480   3.194   2.274  2.1961 -0.4753 -1.2831
14676SOL    HW254343  12.596   3.237   2.362  0.6258  0.6360  0.3307
14677SOL     OW54344   1.562   3.435  11.131  0.4429  0.2667 -0.4116
14677SOL    HW154345   1.480   3.469  11.095  1.0645  4.8190  1.7594
14677SOL    HW254346   1.534   3.376  11.202 -0.9404  0.7688 -0.5086
14678SOL     OW54347   1.096   0.840   1.919  0.3016 -0.3332  0.5049
14678SOL    HW154348   1.119   0.813   2.008  2.6612 -1.1949 -0.2820
14678SOL    HW254349   1.156   0.791   1.862 -0.6684  0.6891 -1.5290
14679SOL     OW54350   0.031   9.227   2.480  0.3763  0.7278 -0.0497
14679SOL    HW154351   0.056   9.252   2.569  0.0282 -0.2331  0.3238
14679SOL    HW254352  -0.064   9.222   2.482  0.3801  0.4750 -0.4224
14680SOL     OW54353  11.038  11.096   1.029 -0.1909  0.3855 -0.3168
14680SOL    HW154354  11.069  11.070   1.116  0.8584 -1.4348 -1.1840
14680SOL    HW254355  10.983  11.023   1.000 -0.5371  0.9710 -1.1789
14681SOL     OW54356   8.181  11.858   9.667  0.2021 -0.0820  0.6753
14681SOL    HW154357   8.244  11.786   9.666 -0.0257 -0.4223 -2.7572
14681SOL    HW254358   8.096  11.815   9.663 -0.1772  0.4051  2.7964
14682SOL     OW54359   8.323   2.333   1.421 -0.2438 -0.1859  0.1287
14682SOL    HW154360   8.361   2.311   1.507  0.5243 -0.5771 -0.2984
14682SOL    HW254361   8.356   2.264   1.363 -0.6129  0.1833 -0.5196
14683SOL     OW54362   4.833  10.624   3.132 -0.0137  0.2692 -0.0116
14683SOL    HW154363   4.765  10.611   3.066 -0.1630  2.4095 -0.3282
14683SOL    HW254364   4.790  10.610   3.216 -0.7179  1.0463 -0.2360
14684SOL     OW54365  10.424   0.192   5.023 -0.0435 -0.2583  0.7562
14684SOL    HW154366  10.426   0.162   4.932  0.6961  1.5405  0.1489
14684SOL    HW254367  10.493   0.142   5.066 -0.4448 -1.1719  0.3718
14685SOL     OW54368   5.386   4.447   8.495  0.4348 -0.0759 -0.2638
14685SOL    HW154369   5.430   4.381   8.441  0.6144 -0.2589  0.1042
14685SOL    HW254370   5.293   4.438   8.472 -0.0070 -2.6453  2.0474
14686SOL     OW54371   8.260  12.835  11.960 -0.2725  0.3750  0.2377
14686SOL    HW154372   8.249  12.817  12.053 -0.0075 -2.9229 -0.2540
14686SOL    HW254373   8.171  12.835  11.924 -0.2299 -1.3648  0.0735
14687SOL     OW54374   9.407   1.311   1.471 -0.3166  0.2461 -0.0073
14687SOL    HW154375   9.399   1.395   1.424 -1.6216  0.9957  1.4603
14687SOL    HW254376   9.331   1.309   1.528  0.1357 -1.6006  0.5758
14688SOL     OW54377   1.535  11.198   3.462  0.0353 -0.0229  0.2081
14688SOL    HW154378   1.616  11.207   3.511  0.2719 -0.0285 -0.1792
14688SOL    HW254379   1.513  11.105   3.468 -0.0452  0.0097  0.4686
14689SOL     OW54380   0.943   3.003   5.351  0.7015 -0.6757  0.2437
14689SOL    HW154381   0.914   3.075   5.406  1.2604 -0.7024  0.5840
14689SOL    HW254382   0.870   2.987   5.291  0.4427 -0.0495  0.3836
14690SOL     OW54383   5.109   4.675   0.946 -0.2166 -0.1863 -0.0547
14690SOL    HW154384   5.085   4.588   0.914 -0.0176 -0.1005 -0.4380
14690SOL    HW254385   5.072   4.679   1.035  0.0093 -0.7619  0.0683
14691SOL     OW54386  11.191  12.250   9.276 -0.2193 -0.0017  0.0283
14691SOL    HW154387  11.237  12.289   9.351  0.5434  0.4763 -0.6727
14691SOL    HW254388  11.239  12.283   9.199 -1.2647 -0.1239 -0.6882
14692SOL     OW54389  12.092   4.717   2.988 -0.3597  0.1433 -0.0227
14692SOL    HW154390  12.060   4.670   3.065  0.0520 -0.8685 -0.4471
14692SOL    HW254391  12.181   4.683   2.976 -0.2236  0.7068 -0.6159
14693SOL     OW54392   3.527   2.626   5.751  0.4400 -0.4360  0.0258
14693SOL    HW154393   3.604   2.679   5.771  0.1362 -0.5830  1.6732
14693SOL    HW254394   3.458   2.661   5.807 -0.1564 -1.6107  0.0502
14694SOL     OW54395   1.295   7.266   8.897 -0.0882 -0.4380  0.1104
14694SOL    HW154396   1.211   7.290   8.857  1.3454 -0.4381 -3.2263
14694SOL    HW254397   1.279   7.179   8.934 -1.6846 -0.2071  0.0573
14695SOL     OW54398   0.768   4.092   7.483  0.0537  0.0672  0.3521
14695SOL    HW154399   0.720   4.136   7.553  2.8589  0.4580  2.2094
14695SOL    HW254400   0.769   4.000   7.508 -0.0098  0.0054  0.1318
14696SOL     OW54401  12.476   1.583   8.464 -0.1675 -0.2586  0.1171
14696SOL    HW154402  12.540   1.520   8.431  0.2942 -1.1457  2.5220
14696SOL    HW254403  12.392   1.548   8.437  0.2254  0.1057 -1.7459
14697SOL     OW54404   3.561  11.240   9.554  1.4419 -0.5152  0.3903
14697SOL    HW154405   3.519  11.298   9.617  0.1300  0.0485 -0.9308
14697SOL    HW254406   3.512  11.158   9.560 -1.0936  0.6069 -2.2175
14698SOL     OW54407   4.963   8.127  12.135 -0.3846  0.2387  0.5251
14698SOL    HW154408   4.909   8.204  12.146 -0.4892  0.4096 -1.0020
14698SOL    HW254409   4.913   8.070  12.076  0.4235 -0.2502  0.2923
14699SOL     OW54410   6.154   7.691   8.779 -0.2467 -0.4431 -0.5734
14699SOL    HW154411   6.186   7.781   8.778 -0.9264 -0.1970 -0.2662
14699SOL    HW254412   6.066   7.697   8.815 -0.3364 -1.2193 -0.6541
14700SOL     OW54413  11.484  11.909   9.748  0.2280 -0.0307 -0.0365
14700SOL    HW154414  11.491  11.814   9.753  0.1142 -0.0121  0.5314
14700SOL    HW254415  11.542  11.941   9.817 -0.3448  0.2919  0.2962
14701SOL     OW54416   0.506   7.103   0.646 -0.0691  0.5893  0.0574
14701SOL    HW154417   0.556   7.184   0.656 -0.5062  1.0187 -1.0406
14701SOL    HW254418   0.419   7.124   0.682  0.4254 -0.0682  1.7083
14702SOL     OW54419   1.689  10.660   4.091  0.4118 -0.0033 -0.3697
14702SOL    HW154420   1.594  10.661   4.102  0.2695  0.1696 -1.5390
14702SOL    HW254421   1.723  10.693   4.175 -0.5017 -1.1021  0.4553
14703SOL     OW54422   1.478   0.705   7.243  0.0722  0.3480 -0.1730
14703SOL    HW154423   1.434   0.784   7.273 -1.9118 -0.6090 -0.4370
14703SOL    HW254424   1.411   0.656   7.196  1.0942 -1.7327  0.4033
14704SOL     OW54425   4.272   2.769   0.276 -0.3385  0.1803  0.3372
14704SOL    HW154426   4.350   2.714   0.285 -0.9509 -0.5232  1.8453
14704SOL    HW254427   4.206   2.709   0.241 -0.1356  0.8663 -1.2893
14705SOL     OW54428   1.313   8.296  10.101  0.0706 -0.3983 -0.3623
14705SOL    HW154429   1.225   8.263  10.116  0.2266  0.1740  2.2204
14705SOL    HW254430   1.301   8.389  10.082  0.1154 -0.2623  0.2560
14706SOL     OW54431  11.927   8.590  10.617  0.1661  0.6686 -0.2082
14706SOL    HW154432  11.893   8.532  10.685  0.9014  0.4290 -0.0296
14706SOL    HW254433  11.900   8.678  10.644 -1.0861  0.4160 -0.5581
14707SOL     OW54434   3.231   5.215   1.577 -0.2194 -0.4044 -0.2629
14707SOL    HW154435   3.149   5.233   1.532 -0.5313  0.7714  0.7300
14707SOL    HW254436   3.289   5.182   1.508 -1.1053  0.0161 -1.2374
14708SOL     OW54437   9.514   7.510   4.432 -0.4007  0.6623  0.5576
14708SOL    HW154438   9.534   7.569   4.505  1.5852 -0.0243  0.5962
14708SOL    HW254439   9.541   7.559   4.354  0.3526  0.2017  0.5217
14709SOL     OW54440   5.246  12.695   5.098  0.6243  0.0383  0.4239
14709SOL    HW154441   5.213  12.644   5.024  2.7298 -0.1705 -0.4546
14709SOL    HW254442   5.269  12.629   5.164  2.6560 -0.1930 -0.4277
14710SOL     OW54443   8.464   8.386   4.932 -0.2098 -0.0792 -0.8206
14710SOL    HW154444   8.525   8.459   4.936  0.4665 -0.4348 -3.1309
14710SOL    HW254445   8.385   8.423   4.891 -1.1867  0.1166  1.1310
14711SOL     OW54446  10.521   3.320   2.552 -0.3310  0.3530 -0.0609
14711SOL    HW154447  10.566   3.236   2.544  1.3053  1.0954  0.9925
14711SOL    HW254448  10.466   3.325   2.473  0.1485 -1.3340 -0.5338
14712SOL     OW54449   9.911   7.686   1.697  0.1448  0.0508 -0.3394
14712SOL    HW154450   9.845   7.755   1.698  0.6207  0.5502  2.0808
14712SOL    HW254451   9.862   7.606   1.679 -0.9127  0.5885  0.0637
14713SOL     OW54452   3.191  10.483  10.191  0.0016 -0.0543 -0.3656
14713SOL    HW154453   3.115  10.494  10.248 -0.3822  1.7904 -1.1609
14713SOL    HW254454   3.232  10.569  10.188  1.9736 -0.9420 -0.2158
14714SOL     OW54455   7.552  12.026   6.062 -0.5910 -0.1404  0.2659
14714SOL    HW154456   7.506  11.999   5.982  1.7641 -1.6022 -0.6982
14714SOL    HW254457   7.490  12.085   6.105 -2.9418 -1.1765 -1.3957
14715SOL     OW54458   6.632   7.235   7.774 -0.1872 -0.2806  0.4338
14715SOL    HW154459   6.560   7.289   7.806 -0.2178 -0.6947  1.0864
14715SOL    HW254460   6.616   7.226   7.680  1.0069  2.6704 -0.1508
14716SOL     OW54461  10.648  12.328   5.633  0.8992  0.1736  0.1852
14716SOL    HW154462  10.665  12.283   5.715  0.7292  0.0525  0.1537
14716SOL    HW254463  10.645  12.421   5.657 -1.3802  0.0256  0.7155
14717SOL     OW54464   0.970   9.154   0.961 -0.2335  0.1971 -0.0172
14717SOL    HW154465   0.942   9.227   0.906 -0.9601 -0.9969 -1.3001
14717SOL    HW254466   0.893   9.134   1.015  0.3912  1.1908  1.2979
14718SOL     OW54467  10.010   7.011  12.982 -0.1666 -0.0543  0.8131
14718SOL    HW154468   9.927   7.048  13.013  0.1854  0.8674  0.6959
14718SOL    HW254469  10.043   6.960  13.056 -0.1185  0.7897  1.3856
14719SOL     OW54470   0.481   6.997   7.278  0.1919 -0.3776  0.1097
14719SOL    HW154471   0.419   7.042   7.220 -1.2069 -0.8429  1.1721
14719SOL    HW254472   0.540   6.952   7.219  1.6753  2.7409 -1.0355
14720SOL     OW54473   7.377   7.888   3.052  0.1244 -0.4655  0.3169
14720SOL    HW154474   7.338   7.965   3.092  0.2461 -0.2479  0.0148
14720SOL    HW254475   7.400   7.832   3.126  1.6019  0.5259  0.6554
14721SOL     OW54476   8.738  10.724   3.382 -0.6458 -0.9337  0.4365
14721SOL    HW154477   8.744  10.681   3.467 -0.2025  0.0268  0.9063
14721SOL    HW254478   8.771  10.813   3.397  0.5330 -1.0926 -0.9980
14722SOL     OW54479   6.521   0.460   2.262  0.3562 -0.3854  0.8808
14722SOL    HW154480   6.430   0.433   2.269  0.2962 -0.2750  0.5596
14722SOL    HW254481   6.556   0.453   2.351 -0.0620 -0.0956  1.0721
14723SOL     OW54482   5.396   1.173   8.428  0.4517 -0.6991 -1.1190
14723SOL    HW154483   5.332   1.179   8.357 -0.6322  0.4699 -0.0910
14723SOL    HW254484   5.414   1.079   8.437 -2.9375 -1.3610  0.1071
14724SOL     OW54485   3.805   3.545   2.074 -0.3039 -0.1516  0.0990
14724SOL    HW154486   3.889   3.588   2.056 -0.3647  0.1271  0.4613
14724SOL    HW254487   3.810   3.462   2.027  0.1072 -0.0643 -0.0190
14725SOL     OW54488   7.444   0.809   9.791 -0.0355  0.1122  0.1234
14725SOL    HW154489   7.352   0.781   9.787 -0.1319  0.2841  0.9939
14725SOL    HW254490   7.480   0.784   9.706 -0.5937 -1.0009  0.1979
14726SOL     OW54491   1.243   9.202   9.201  0.2790 -0.0787 -0.4291
14726SOL    HW154492   1.173   9.153   9.159  0.3473 -0.2417 -0.3531
14726SOL    HW254493   1.306   9.219   9.130 -0.2144  0.7671 -0.6739
14727SOL     OW54494   5.764  12.937   4.661 -0.1823  0.1034 -0.1998
14727SOL    HW154495   5.716  12.856   4.644  1.0121 -1.2145  2.2342
14727SOL    HW254496   5.785  12.970   4.573 -0.5239 -2.3317 -1.3080
14728SOL     OW54497   2.202  11.231   5.217  0.3872 -0.3353 -0.1623
14728SOL    HW154498   2.246  11.245   5.301 -1.0722  1.1115  0.4162
14728SOL    HW254499   2.194  11.135   5.210  1.1080 -0.5065  1.0352
14729SOL     OW54500  12.971  10.153   6.345 -0.5926 -0.8818  0.4235
14729SOL    HW154501  12.881  10.121   6.334 -0.8438  0.1766 -0.8013
14729SOL    HW254502  13.002  10.171   6.257 -0.1262  1.2668  0.9586
14730SOL     OW54503   3.941   0.279   0.482 -0.2876  0.2290 -0.8639
14730SOL    HW154504   3.994   0.333   0.424  1.3443 -1.6141 -1.1902
14730SOL    HW254505   3.965   0.308   0.570 -0.7734  1.2266 -1.0512
14731SOL     OW54506   7.261   0.787   5.267  0.0908 -0.0831 -0.2213
14731SOL    HW154507   7.245   0.840   5.189 -1.1658  1.3043  0.9256
14731SOL    HW254508   7.252   0.848   5.340  3.8099 -0.7245  1.0005
14732SOL     OW54509   4.298   2.854  10.952  0.1076  0.4928 -0.6410
14732SOL    HW154510   4.213   2.886  10.981 -1.3968 -1.4890 -2.4752
14732SOL    HW254511   4.355   2.863  11.028 -1.8542  1.5061  0.7854
14733SOL     OW54512   7.925   5.734   3.111 -0.3185 -0.0661 -0.6188
14733SOL    HW154513   7.898   5.739   3.020  0.8359 -0.8354 -1.0281
14733SOL    HW254514   7.947   5.825   3.134 -2.1808  0.4104 -0.5639
14734SOL     OW54515   1.206   2.439   7.839  0.4953 -0.0132  0.3667
14734SOL    HW154516   1.245   2.379   7.776  1.3899 -0.5823  1.4144
14734SOL    HW254517   1.255   2.423   7.920 -1.1813  0.0682  1.4364
14735SOL     OW54518   2.536   5.939   7.566 -0.1169 -0.1796  0.9827
14735SOL    HW154519   2.607   5.878   7.583 -0.7176 -1.0689  0.4172
14735SOL    HW254520   2.551   6.011   7.627  0.9725 -0.5848  1.2194
14736SOL     OW54521   5.074   1.541   1.545 -0.8786  0.1196  0.2834
14736SOL    HW154522   5.073   1.445   1.551  1.6629 -0.3822 -3.6678
14736SOL    HW254523   5.031   1.560   1.461  1.1988  2.1471 -0.4292
14737SOL     OW54524  11.203   6.293   1.610 -0.1403 -0.2668 -0.0814
14737SOL    HW154525  11.156   6.291   1.527  0.0329 -0.2267 -0.1809
14737SOL    HW254526  11.231   6.202   1.623  0.3155 -0.1709 -0.3477
14738SOL     OW54527  11.394   4.325   4.909 -0.3265  0.8291  0.2611
14738SOL    HW154528  11.455   4.300   4.840  0.6276  2.1736  0.5900
14738SOL    HW254529  11.374   4.243   4.955  1.2924  0.3752  0.1998
14739SOL     OW54530   0.401   3.998   4.897 -0.0322 -0.1391 -0.0683
14739SOL    HW154531   0.490   4.000   4.932 -0.1208  0.4377  0.1272
14739SOL    HW254532   0.412   4.000   4.802  0.1563  0.1285 -0.0396
14740SOL     OW54533   3.353   8.712  12.572 -0.3764 -0.2437  0.0718
14740SOL    HW154534   3.266   8.750  12.571  0.0825  0.8814  0.9620
14740SOL    HW254535   3.368   8.688  12.663  0.5712  0.3640  0.0913
14741SOL     OW54536   3.950  10.333   2.111  0.1990 -0.0273  0.5601
14741SOL    HW154537   3.983  10.422   2.097 -0.0783 -0.0181 -0.0912
14741SOL    HW254538   3.969  10.288   2.029 -1.4985  0.0196  0.1016
14742SOL     OW54539   0.798   4.234   1.913 -0.2707  0.0852  0.6754
14742SOL    HW154540   0.825   4.153   1.870  0.4224  0.0516  1.1544
14742SOL    HW254541   0.715   4.257   1.871 -0.7776 -1.1849  0.9268
14743SOL     OW54542  12.044   2.882   2.127 -0.1264 -0.4044  0.4196
14743SOL    HW154543  11.976   2.879   2.194  0.3494 -0.0686  0.9281
14743SOL    HW254544  12.121   2.916   2.172 -0.1222  0.9869 -0.5631
14744SOL     OW54545  12.735   7.746  11.273 -0.2802 -0.1915 -0.1878
14744SOL    HW154546  12.699   7.826  11.312  0.8086 -0.4594  1.4473
14744SOL    HW254547  12.785   7.777  11.198 -0.7140  0.5574 -0.1815
14745SOL     OW54548   9.641   9.338  10.956  0.1065 -0.3821  0.4114
14745SOL    HW154549   9.658   9.390  11.035  0.2565  0.4887 -0.1788
14745SOL    HW254550   9.666   9.395  10.884 -1.1046 -0.7359 -0.3225
14746SOL     OW54551   0.369   3.198   5.614  0.3797  0.0960 -0.1274
14746SOL    HW154552   0.277   3.172   5.610  0.0440  1.0806  0.6222
14746SOL    HW254553   0.382   3.253   5.536 -0.3314  1.8490  0.9234
14747SOL     OW54554   7.400   8.200   0.888 -0.6321 -0.2015 -0.2573
14747SOL    HW154555   7.356   8.262   0.945  1.7181  0.4213  1.0029
14747SOL    HW254556   7.469   8.251   0.845  2.2081 -2.0459  1.7494
14748SOL     OW54557   8.701   9.488   6.529 -0.3285  0.0764 -0.2750
14748SOL    HW154558   8.652   9.406   6.535 -1.6907  0.6715 -2.2939
14748SOL    HW254559   8.640   9.555   6.559  0.9436  0.3732  1.8579
14749SOL     OW54560   5.095   7.105  10.358 -0.3812  0.4356 -0.2613
14749SOL    HW154561   5.051   7.049  10.423 -2.9122 -0.5255 -2.6203
14749SOL    HW254562   5.160   7.154  10.409  0.0234 -2.5480  2.4467
14750SOL     OW54563   0.440   0.092   5.293 -0.0657 -0.6252  0.0208
14750SOL    HW154564   0.436   0.187   5.277 -1.9946 -0.5589  0.5504
14750SOL    HW254565   0.532   0.074   5.310  0.6298  0.8253 -1.9224
14751SOL     OW54566  12.947  10.478  12.575 -0.5126 -0.5112 -0.3602
14751SOL    HW154567  12.859  10.507  12.549 -0.2199 -0.0402 -0.8294
14751SOL    HW254568  12.967  10.406  12.515 -0.2576 -0.1003 -0.7713
14752SOL     OW54569  10.302   5.298   0.083 -0.0648 -0.0623  0.0532
14752SOL    HW154570  10.338   5.293   0.172 -1.4191 -1.0073  0.5838
14752SOL    HW254571  10.210   5.321   0.096 -0.1344  0.3765 -1.1479
14753SOL     OW54572  10.855   5.725   3.602  0.5733 -0.3484  0.1839
14753SOL    HW154573  10.912   5.732   3.525  1.2251  0.6275  0.7323
14753SOL    HW254574  10.768   5.746   3.569  0.5658 -1.5198 -0.5986
14754SOL     OW54575   7.462   2.353   2.789 -0.1201  0.0366  0.0817
14754SOL    HW154576   7.396   2.306   2.839  1.4945 -1.1998  1.1397
14754SOL    HW254577   7.443   2.446   2.806 -0.5625 -0.3259  1.7470
14755SOL     OW54578   6.543   9.877   4.231  0.3427 -0.0467 -0.5520
14755SOL    HW154579   6.555   9.885   4.136 -1.1522 -0.5599 -0.8015
14755SOL    HW254580   6.632   9.871   4.265  0.9313  0.8423 -1.8516
14756SOL     OW54581  11.387  11.126   3.802 -0.9948  0.7056 -0.7244
14756SOL    HW154582  11.429  11.117   3.717  0.3342 -0.5778  0.0209
14756SOL    HW254583  11.332  11.205   3.794 -2.1797 -0.2757 -3.2360
14757SOL     OW54584  10.390   4.646  10.475  0.2733 -0.1955  0.1155
14757SOL    HW154585  10.455   4.583  10.446  0.5437  0.7193 -1.3724
14757SOL    HW254586  10.409   4.660  10.568  1.0067 -1.3217  0.1488
14758SOL     OW54587   4.855  12.968  10.414  0.6517 -0.3806 -0.5123
14758SOL    HW154588   4.950  12.968  10.402  0.6381  0.7750 -0.6862
14758SOL    HW254589   4.825  13.048  10.371 -0.2626 -0.0519  0.7021
14759SOL     OW54590   2.250   7.089   6.731  0.2640  0.0478  0.3083
14759SOL    HW154591   2.257   7.050   6.644  2.0004 -2.0903  1.3103
14759SOL    HW254592   2.215   7.019   6.785  2.2176  0.2248  1.9242
14760SOL     OW54593   9.385  12.629   0.123 -0.1484  0.4315  0.1136
14760SOL    HW154594   9.357  12.585   0.203 -1.0695  2.9475  1.2835
14760SOL    HW254595   9.461  12.681   0.149  0.3584  0.2642 -0.9835
14761SOL     OW54596   7.830   0.630   8.096  0.1058  0.5070 -0.1443
14761SOL    HW154597   7.742   0.623   8.060  0.2778 -0.3607 -0.4039
14761SOL    HW254598   7.833   0.566   8.167  1.1042 -0.8176 -1.3343
14762SOL     OW54599   1.240   5.407   3.957  0.5882 -0.1213 -0.2454
14762SOL    HW154600   1.270   5.348   3.888  0.8683  0.9541 -1.0816
14762SOL    HW254601   1.298   5.389   4.031 -1.2687 -3.0543  0.6656
14763SOL     OW54602   8.154   7.330   1.670 -0.0449  0.3034  0.0867
14763SOL    HW154603   8.211   7.377   1.730  0.9573 -1.8582  0.9413
14763SOL    HW254604   8.213   7.284   1.611 -0.9569 -0.0158 -0.6080
14764SOL     OW54605   8.149   4.547   4.649 -0.5711 -0.0829 -0.0442
14764SOL    HW154606   8.106   4.462   4.644  1.4331 -1.1911  0.4075
14764SOL    HW254607   8.077   4.610   4.655 -2.1012 -1.7634  0.2012
14765SOL     OW54608   2.390  12.009   6.588  0.3350 -0.5007 -0.3478
14765SOL    HW154609   2.416  12.019   6.496  0.7059  0.7113 -0.1282
14765SOL    HW254610   2.469  12.025   6.638 -0.1494  0.1909  0.2234
14766SOL     OW54611  12.001   5.845   0.793  0.1387  0.1416 -0.4643
14766SOL    HW154612  12.089   5.836   0.829  0.2307 -1.1129 -0.9778
14766SOL    HW254613  11.969   5.928   0.829  1.3842  0.4315  0.0164
14767SOL     OW54614   3.354   2.256   8.450  0.2217  0.3535  0.1900
14767SOL    HW154615   3.376   2.229   8.539 -1.6340  2.0108  1.2132
14767SOL    HW254616   3.432   2.301   8.419  0.4223  0.9783  1.5224
14768SOL     OW54617   6.635  10.866   2.549 -0.5817 -0.5587  0.2733
14768SOL    HW154618   6.703  10.816   2.504  0.3868  0.0906  0.9597
14768SOL    HW254619   6.592  10.917   2.480 -0.0038 -0.5744 -0.1006
14769SOL     OW54620   7.250   4.587   7.402  0.3385  0.1469 -0.2049
14769SOL    HW154621   7.180   4.639   7.362  0.7044  0.6461 -0.2063
14769SOL    HW254622   7.226   4.496   7.383 -1.3265  0.1713  1.4251
14770SOL     OW54623   1.223   9.980   7.050 -0.1174  0.0496 -0.1471
14770SOL    HW154624   1.155   9.945   7.107  1.3906  0.3845  2.0005
14770SOL    HW254625   1.214  10.075   7.058 -0.0084  0.1066 -0.6454
14771SOL     OW54626   5.317   8.489   6.637 -0.7158  0.8436 -0.5699
14771SOL    HW154627   5.352   8.460   6.552 -0.3823 -2.2928  0.5195
14771SOL    HW254628   5.227   8.458   6.638 -0.2126 -0.7227  0.8325
14772SOL     OW54629   8.649  10.523   4.588  0.2159 -0.1541 -0.0936
14772SOL    HW154630   8.702  10.553   4.514 -0.0995 -0.3529 -0.4063
14772SOL    HW254631   8.711  10.513   4.660  0.4966  0.2158 -0.2829
14773SOL     OW54632   8.604   0.353   6.826  0.2009  0.0673  0.1905
14773SOL    HW154633   8.530   0.302   6.795  2.1189 -2.4122 -0.6032
14773SOL    HW254634   8.638   0.304   6.900  1.8759  0.3640 -0.3402
14774SOL     OW54635  11.851   4.184   0.082  0.1500 -0.1849 -0.5260
14774SOL    HW154636  11.808   4.255   0.035  0.1933 -0.9537 -1.7798
14774SOL    HW254637  11.794   4.108   0.069 -0.9578 -0.0014  2.4604
14775SOL     OW54638   8.911   4.877   7.462  0.4163 -0.3676  0.4774
14775SOL    HW154639   8.831   4.904   7.505  0.0442  0.5118 -0.7087
14775SOL    HW254640   8.892   4.789   7.429  0.0212 -0.2555  0.4017
14776SOL     OW54641  12.846   3.430  11.050 -0.3383 -0.2662 -0.6787
14776SOL    HW154642  12.752   3.416  11.056 -0.1509 -0.9671  1.3489
14776SOL    HW254643  12.863   3.506  11.106  0.4683 -1.2363  0.4658
14777SOL     OW54644   0.953  11.699   5.056 -0.4241  0.0622 -0.1584
14777SOL    HW154645   0.945  11.790   5.086  0.3876  0.5482 -1.3609
14777SOL    HW254646   1.047  11.686   5.044 -0.7106  0.4319 -3.9320
14778SOL     OW54647  11.805   9.293   5.953  0.0935 -0.0275 -0.2683
14778SOL    HW154648  11.831   9.368   6.005  0.9433 -1.5940  1.7063
14778SOL    HW254649  11.884   9.241   5.943 -0.8808 -1.7219  0.3256
14779SOL     OW54650   0.988   2.009   7.414  0.1340 -0.4136 -0.3391
14779SOL    HW154651   1.007   1.950   7.342 -0.7377  0.7106 -1.5511
14779SOL    HW254652   0.892   2.019   7.412 -0.0105 -0.9527  1.4872
14780SOL     OW54653   2.432   5.069   2.345  0.3388  0.2540 -0.1280
14780SOL    HW154654   2.520   5.062   2.308  1.0795  0.7720  1.4686
14780SOL    HW254655   2.378   5.017   2.286  1.5633  0.5242 -1.5653
14781SOL     OW54656  10.198   6.524   6.209  0.0491 -1.1106  0.1734
14781SOL    HW154657  10.199   6.441   6.257  0.4900 -1.6604 -0.7622
14781SOL    HW254658  10.291   6.545   6.197 -0.0553 -0.1249  0.9859
14782SOL     OW54659   3.184  11.264   8.948 -0.7481  0.3685 -0.1010
14782SOL    HW154660   3.090  11.248   8.939 -1.2125  2.2877  0.8548
14782SOL    HW254661   3.192  11.359   8.957  1.1058  0.1235  1.7695
14783SOL     OW54662   8.626  10.252   3.527  0.4630  0.1843 -0.5028
14783SOL    HW154663   8.697  10.285   3.471 -0.4075  0.0064 -1.7591
14783SOL    HW254664   8.574  10.196   3.469 -0.7333  0.3584  0.3654
14784SOL     OW54665  11.414   7.347   9.565  0.4115  0.1907 -0.0773
14784SOL    HW154666  11.474   7.298   9.621  0.9709  1.7675  0.7751
14784SOL    HW254667  11.327   7.324   9.597  0.6217 -0.8327 -0.2205
14785SOL     OW54668   2.677  10.189   7.315 -0.1961  0.8014  0.8706
14785SOL    HW154669   2.699  10.201   7.408 -0.5244  1.0436  0.9151
14785SOL    HW254670   2.632  10.105   7.312 -2.0370  1.7316  1.2456
14786SOL     OW54671  11.262   7.821   6.456 -0.3937  0.4172  0.6072
14786SOL    HW154672  11.345   7.775   6.468 -1.4270 -1.4965  0.7823
14786SOL    HW254673  11.258   7.882   6.529  0.2683 -0.4366  1.3847
14787SOL     OW54674   4.450   5.809   0.489 -0.2138 -0.2833 -0.2080
14787SOL    HW154675   4.376   5.851   0.533 -1.0896  0.5137 -2.3103
14787SOL    HW254676   4.415   5.726   0.457 -0.7627  0.7916 -2.6027
14788SOL     OW54677   7.559   9.474  11.282 -0.2421 -0.0367  0.1991
14788SOL    HW154678   7.577   9.382  11.262 -1.7941 -0.3691  0.1695
14788SOL    HW254679   7.628   9.500  11.342  0.7053 -0.9679 -0.4436
14789SOL     OW54680  12.568  12.825  10.773 -0.1268  0.1467 -0.6212
14789SOL    HW154681  12.562  12.919  10.752 -0.5088  0.1250 -0.6294
14789SOL    HW254682  12.569  12.822  10.868  0.3959  0.1861 -0.6250
14790SOL     OW54683   1.802   7.847  12.083 -0.0838  0.1675  0.0087
14790SOL    HW154684   1.733   7.895  12.037 -0.0362  0.2920  0.0693
14790SOL    HW254685   1.838   7.788  12.016  0.4580  0.8435 -0.3037
14791SOL     OW54686   2.920  12.654   8.807 -0.3538 -0.1244  0.4171
14791SOL    HW154687   2.938  12.625   8.718 -1.1118  0.6291  0.0064
14791SOL    HW254688   2.990  12.616   8.860 -0.3484 -1.2315 -0.3728
14792SOL     OW54689   1.869  12.239   0.958 -0.1005  0.4955  0.0727
14792SOL    HW154690   1.911  12.322   0.935  3.1899 -0.0709  3.1106
14792SOL    HW254691   1.829  12.256   1.043  0.3659 -0.9071  0.6026
14793SOL     OW54692   6.839   5.720   1.252  0.1326  0.0169 -0.7077
14793SOL    HW154693   6.772   5.780   1.284  0.8517  0.5322 -0.1304
14793SOL    HW254694   6.893   5.774   1.193  1.3286  0.2263  0.5157
14794SOL     OW54695   1.589   9.977   5.604  0.1152  0.1683  0.4357
14794SOL    HW154696   1.517   9.917   5.587  0.4636 -0.1170 -0.0606
14794SOL    HW254697   1.630   9.990   5.519  0.0328  1.1311  0.5346
14795SOL     OW54698   6.812  10.463  11.782 -0.2108  0.2055  0.1105
14795SOL    HW154699   6.771  10.379  11.800 -0.9350  0.1989 -1.3583
14795SOL    HW254700   6.899  10.458  11.822  0.2525 -1.7451 -1.0099
14796SOL     OW54701   2.554   1.793  10.107 -0.4198  0.0522 -0.1897
14796SOL    HW154702   2.474   1.846  10.114  0.4999  1.7846 -1.7479
14796SOL    HW254703   2.541   1.740  10.029 -0.7350 -0.9716  0.5427
14797SOL     OW54704  11.200   0.754   0.880 -0.0269  0.3684 -0.2169
14797SOL    HW154705  11.212   0.664   0.851 -0.0670  0.1237  0.4951
14797SOL    HW254706  11.198   0.748   0.976  1.1866  1.2815 -0.1166
14798SOL     OW54707   2.435   1.957  12.962  0.1057  0.6550  0.1354
14798SOL    HW154708   2.454   2.051  12.958 -1.1459  0.8902 -1.5121
14798SOL    HW254709   2.354   1.947  12.912  1.1830 -1.5537 -1.3102
14799SOL     OW54710   7.133  12.940   2.312  0.1000 -0.0783  0.1806
14799SOL    HW154711   7.203  12.920   2.251  1.2636 -1.0461  1.7502
14799SOL    HW254712   7.153  12.888   2.390 -1.0961  1.3785  1.5367
14800SOL     OW54713  12.729  12.627   9.651  0.5079 -0.3588 -0.3555
14800SOL    HW154714  12.673  12.550   9.649  0.2478 -0.1965  0.4318
14800SOL    HW254715  12.817  12.593   9.668  0.5525 -0.5560 -0.9496
14801SOL     OW54716   5.228  10.593  12.095 -0.0715  0.5047  0.1151
14801SOL    HW154717   5.183  10.585  12.011  1.2879  0.8821 -0.6850
14801SOL    HW254718   5.233  10.687  12.111  0.9354  0.5040 -0.1170
14802SOL     OW54719   4.191   4.787   4.619  0.7470 -0.5417 -0.4094
14802SOL    HW154720   4.158   4.708   4.577  0.0865 -0.5670  0.1397
14802SOL    HW254721   4.162   4.780   4.710  0.7184  0.3132 -0.3442
14803SOL     OW54722   6.429   2.947   6.692 -0.2668  0.0087 -0.1674
14803SOL    HW154723   6.446   2.881   6.760 -0.9007 -0.4425 -0.4347
14803SOL    HW254724   6.479   2.917   6.617  1.3851  1.1367  0.4340
14804SOL     OW54725  10.173   4.032   8.544 -0.2519  0.6667  0.1466
14804SOL    HW154726  10.225   3.959   8.509  2.1743  0.8077  3.0262
14804SOL    HW254727  10.161   4.091   8.470 -2.0973 -2.3989 -2.2382
14805SOL     OW54728   3.458   3.029   0.571  0.4687 -0.2257  0.4395
14805SOL    HW154729   3.362   3.032   0.569  0.4006 -1.5201  1.2136
14805SOL    HW254730   3.479   3.000   0.659  1.6347  1.3030  0.6963
14806SOL     OW54731   0.718   6.647  11.860 -0.4335  0.2622 -0.3854
14806SOL    HW154732   0.644   6.586  11.866  0.3510 -0.7668 -0.8531
14806SOL    HW254733   0.796   6.591  11.866  0.3127  1.1711 -1.2027
14807SOL     OW54734   2.771   2.765   7.962  0.3087 -0.8342 -0.1642
14807SOL    HW154735   2.719   2.760   8.043 -0.6139  0.1139 -0.6636
14807SOL    HW254736   2.859   2.740   7.988  0.1343 -0.0794  1.2426
14808SOL     OW54737   5.103  12.708  11.792  0.1230  0.2828  0.0265
14808SOL    HW154738   5.098  12.619  11.758 -2.1010  0.8868 -1.4625
14808SOL    HW254739   5.196  12.723  11.807  0.5093 -2.4442  0.8724
14809SOL     OW54740  10.106   7.178  12.543  0.1187 -0.5030  0.1304
14809SOL    HW154741  10.180   7.224  12.504 -1.0254  0.1511 -1.4036
14809SOL    HW254742  10.145   7.112  12.600  1.8337  1.5665  1.4997
14810SOL     OW54743  10.934   4.285  11.279 -0.5206 -0.5206 -0.2680
14810SOL    HW154744  10.939   4.294  11.375 -0.0188 -0.2180 -0.3217
14810SOL    HW254745  10.897   4.197  11.266  0.4857 -1.0269  0.1906
14811SOL     OW54746  12.654   8.086   1.471 -0.1950  0.2682  0.3310
14811SOL    HW154747  12.734   8.121   1.510  0.5742  1.7254 -2.3071
14811SOL    HW254748  12.659   8.111   1.379 -3.8877  0.8237  0.1003
14812SOL     OW54749   6.783   5.755  11.432 -0.4116 -0.6692  0.2798
14812SOL    HW154750   6.709   5.756  11.494  0.2260 -0.6673  1.0508
14812SOL    HW254751   6.745   5.788  11.351 -0.9695  0.5781  1.0136
14813SOL     OW54752   7.812   3.518   5.020  0.2186 -0.0642 -0.5291
14813SOL    HW154753   7.765   3.449   4.974  1.3722  0.1710 -2.1673
14813SOL    HW254754   7.746   3.562   5.073 -1.2943 -0.0460 -2.3567
14814SOL     OW54755  11.995   5.718   5.806  0.3344  0.1619  0.7048
14814SOL    HW154756  12.062   5.785   5.818  0.4740  0.5545 -1.7632
14814SOL    HW254757  12.030   5.660   5.739  0.4726 -2.8366  3.1622
14815SOL     OW54758   9.610  11.637  11.074  0.7201 -0.0994  0.4618
14815SOL    HW154759   9.542  11.575  11.046  1.3268 -1.3465  1.6418
14815SOL    HW254760   9.653  11.594  11.148  4.0915 -0.2310 -1.3823
14816SOL     OW54761   2.851  10.886  11.148 -0.2008  0.0851  0.0751
14816SOL    HW154762   2.762  10.886  11.183 -0.6468 -1.0941 -0.9582
14816SOL    HW254763   2.855  10.807  11.093  2.0966 -0.9906  1.6133
14817SOL     OW54764   3.585   6.322   5.669 -0.3522 -0.2003  1.0647
14817SOL    HW154765   3.492   6.303   5.683 -0.1007 -1.2855  1.3256
14817SOL    HW254766   3.615   6.252   5.611  0.1473  0.5564  0.3743
14818SOL     OW54767   0.071  12.315  10.270 -0.3246 -0.4972  0.2601
14818SOL    HW154768   0.151  12.366  10.262  0.1514 -1.3203 -0.3712
14818SOL    HW254769   0.001  12.380  10.267  0.3221  0.2567  1.1442
14819SOL     OW54770   4.495   8.778   1.190  0.2751 -0.1861 -0.0504
14819SOL    HW154771   4.414   8.738   1.160  0.9562 -2.4626  0.9051
14819SOL    HW254772   4.476   8.810   1.279  0.3233 -0.3939  0.0350
14820SOL     OW54773   6.241  11.186   5.076 -0.0756  0.0674 -0.1548
14820SOL    HW154774   6.225  11.167   5.169 -1.0261 -0.7768 -0.4794
14820SOL    HW254775   6.227  11.280   5.069 -0.6717  0.0325  0.4302
14821SOL     OW54776   4.526   2.097   3.471  0.0045  0.0254  0.1179
14821SOL    HW154777   4.496   2.104   3.380  0.1357  1.6417  0.1770
14821SOL    HW254778   4.534   2.187   3.501 -0.8227 -0.4651  2.0106
14822SOL     OW54779  10.368   4.981   1.437 -0.1492 -0.2937 -0.0293
14822SOL    HW154780  10.337   4.971   1.347  1.4192  3.7589 -1.2629
14822SOL    HW254781  10.452   4.936   1.439  0.1341  0.1689 -0.8794
14823SOL     OW54782   4.464   0.474  10.870 -0.0837  0.0992 -0.0777
14823SOL    HW154783   4.547   0.472  10.823  1.1295  0.3567  1.9221
14823SOL    HW254784   4.486   0.509  10.956 -2.3802  0.6755  0.3568
14824SOL     OW54785  11.243   9.565   6.661 -0.5735  0.2606  0.0540
14824SOL    HW154786  11.317   9.610   6.620 -0.2493  0.1162  0.4833
14824SOL    HW254787  11.271   9.474   6.670 -0.3825  0.4184  1.1884
14825SOL     OW54788  10.528   6.680   3.234 -0.3146  0.5869  0.0430
14825SOL    HW154789  10.536   6.584   3.230  1.0360  0.6805 -0.1155
14825SOL    HW254790  10.466   6.696   3.305 -2.7463 -0.4543 -1.7117
14826SOL     OW54791  12.182  10.223   9.825  0.3618  0.1793 -0.2076
14826SOL    HW154792  12.183  10.317   9.844  0.8666  0.1977 -0.3190
14826SOL    HW254793  12.256  10.209   9.765 -0.2186 -0.1490 -0.8725
14827SOL     OW54794   5.590   8.078   2.758  0.3798  0.5825  0.2357
14827SOL    HW154795   5.612   7.989   2.730 -0.0741  0.4171  0.3982
14827SOL    HW254796   5.618   8.083   2.849 -0.5386  0.2613  0.5469
14828SOL     OW54797   3.261   7.036   3.675  0.1468 -0.5098 -0.0350
14828SOL    HW154798   3.311   6.958   3.700  0.0672 -0.3625  0.6109
14828SOL    HW254799   3.174   7.023   3.714  0.4057  0.3055  0.8689
14829SOL     OW54800   3.539   2.405   8.322 -0.6533  0.1644 -0.0938
14829SOL    HW154801   3.582   2.490   8.313 -2.1142  0.9649  0.0696
14829SOL    HW254802   3.516   2.380   8.233  2.9562 -1.8832 -0.6120
14830SOL     OW54803   3.377  11.397   5.368  0.1662 -0.0881  0.0285
14830SOL    HW154804   3.320  11.464   5.331  0.0046  0.1099  0.6174
14830SOL    HW254805   3.348  11.388   5.459  1.1685  0.1356  0.3886
14831SOL     OW54806  12.661   0.355   4.078 -0.0662 -0.0198 -0.0436
14831SOL    HW154807  12.579   0.320   4.113 -0.3358  0.2323 -0.4220
14831SOL    HW254808  12.729   0.302   4.119 -0.3789  0.2220  0.8122
14832SOL     OW54809   2.450   6.353   0.727  1.0983  0.5503 -0.3416
14832SOL    HW154810   2.432   6.315   0.813  1.4811  1.9152  0.3701
14832SOL    HW254811   2.383   6.420   0.716  0.2941 -0.4294 -1.6722
14833SOL     OW54812   0.576   3.774   5.420 -0.4218 -0.2222  0.6786
14833SOL    HW154813   0.531   3.844   5.372  2.5877  1.4064  0.0077
14833SOL    HW254814   0.667   3.801   5.423  0.4514 -2.9154  2.7206
14834SOL     OW54815  10.992   8.880  11.011 -0.0292 -0.3384  0.2710
14834SOL    HW154816  11.085   8.863  11.024  0.3273  1.0935 -0.2809
14834SOL    HW254817  10.967   8.936  11.084 -0.3961 -0.5004  0.2716
14835SOL     OW54818   9.729   4.515  12.267  0.3118  0.3188 -0.6106
14835SOL    HW154819   9.666   4.554  12.328 -0.3167  1.0269 -1.6692
14835SOL    HW254820   9.694   4.428  12.249 -0.8227  0.9769 -1.7722
14836SOL     OW54821   7.753   7.868   5.856  0.4516 -0.6309 -0.3248
14836SOL    HW154822   7.812   7.835   5.924 -0.8115  1.1440  1.8020
14836SOL    HW254823   7.698   7.793   5.833 -1.4812 -0.5834  3.3693
14837SOL     OW54824  12.815   3.065   0.643  0.3052  0.3664  0.4615
14837SOL    HW154825  12.859   3.149   0.631 -0.1983  0.7274  1.0307
14837SOL    HW254826  12.724   3.082   0.617  0.2345 -0.0389  0.4374
14838SOL     OW54827   0.766   8.681   8.123 -0.3628 -0.7628 -0.4279
14838SOL    HW154828   0.789   8.696   8.214  1.6981  0.3334 -1.0594
14838SOL    HW254829   0.688   8.626   8.126 -1.7649  1.1765  1.9991
14839SOL     OW54830   8.384  10.003   1.200 -0.3331 -0.1979 -0.5069
14839SOL    HW154831   8.338  10.060   1.139  1.6756 -0.0412 -1.9700
14839SOL    HW254832   8.429  10.063   1.260 -1.5655 -0.3461  0.6158
14840SOL     OW54833   3.850   2.958  11.412  0.2580 -0.0523  0.5951
14840SOL    HW154834   3.869   3.008  11.333  0.4841 -1.2897 -0.1665
14840SOL    HW254835   3.777   3.005  11.453  0.1011  0.5818 -0.3712
14841SOL     OW54836   2.406   2.856   5.453 -0.0580  0.2389  0.5066
14841SOL    HW154837   2.447   2.911   5.387  0.5843  0.5539  1.1601
14841SOL    HW254838   2.325   2.902   5.476 -0.0804  0.3336  0.2436
14842SOL     OW54839   5.862   8.565  12.828  0.1227 -0.2619 -0.4537
14842SOL    HW154840   5.884   8.585  12.737 -0.2764  0.1837 -0.4565
14842SOL    HW254841   5.770   8.538  12.825  0.2701 -0.7891 -0.2590
14843SOL     OW54842   9.680  10.491   1.535 -0.0413 -0.6382  0.0327
14843SOL    HW154843   9.683  10.558   1.603 -0.7299  0.1516 -0.6887
14843SOL    HW254844   9.637  10.534   1.461  1.3702 -1.2372 -1.1710
14844SOL     OW54845  12.589  12.078  11.254 -0.1090  0.1491  0.1456
14844SOL    HW154846  12.574  12.012  11.323 -1.3839  2.2668  2.0235
14844SOL    HW254847  12.680  12.063  11.227  0.2196 -1.2469  1.7926
14845SOL     OW54848   6.447   9.437   6.148  0.1682  0.0837  0.1171
14845SOL    HW154849   6.531   9.468   6.181 -0.6225  0.9015  1.4401
14845SOL    HW254850   6.396   9.415   6.226 -0.2896 -2.0002 -0.7015
14846SOL     OW54851   1.807   4.938   6.784  0.0948 -0.3298  0.1052
14846SOL    HW154852   1.888   4.953   6.832 -0.3061  0.1596  0.6497
14846SOL    HW254853   1.814   4.848   6.752  0.7831 -0.3398  0.2711
14847SOL     OW54854  10.208   3.044   9.551  0.2130 -0.3180 -0.0565
14847SOL    HW154855  10.162   2.963   9.571  0.6215 -0.5211  0.0804
14847SOL    HW254856  10.141   3.102   9.516  0.0066 -0.8754 -0.6011
14848SOL     OW54857  12.611   1.419   8.970 -0.0392  0.1335 -0.2237
14848SOL    HW154858  12.692   1.432   8.920  0.3368 -2.3846 -0.4079
14848SOL    HW254859  12.541   1.433   8.905  0.3810 -0.8564 -0.9235
14849SOL     OW54860   6.903   2.367   2.447  0.1061  0.2672 -0.0279
14849SOL    HW154861   6.885   2.461   2.451 -1.6393  0.1540 -2.8113
14849SOL    HW254862   6.819   2.326   2.463  0.8923 -0.9044  1.3539
14850SOL     OW54863  11.003   5.491  11.007  0.3068  0.6193 -0.2223
14850SOL    HW154864  10.949   5.564  11.037 -0.1228  0.1959  0.0423
14850SOL    HW254865  11.050   5.462  11.085 -0.4827 -0.1992 -0.0330
14851SOL     OW54866  11.709   5.123   0.766  0.1429 -0.1143  0.7962
14851SOL    HW154867  11.714   5.115   0.861  0.0157 -1.9780  0.6910
14851SOL    HW254868  11.619   5.098   0.745  0.0147  0.7969  0.2103
14852SOL     OW54869  10.715   7.014   3.034  0.0889 -0.0540  0.4359
14852SOL    HW154870  10.752   6.931   3.065 -1.4342 -0.6584  0.7614
14852SOL    HW254871  10.655   7.041   3.103 -0.6536  0.4667 -0.3878
14853SOL     OW54872   0.213   4.428   6.832  0.1983 -0.0315  0.2268
14853SOL    HW154873   0.147   4.497   6.833  0.6378  0.4023 -0.3635
14853SOL    HW254874   0.267   4.446   6.909  0.2382  0.2045  0.1439
14854SOL     OW54875   7.697   3.331   1.855 -0.3918  0.0251  0.0315
14854SOL    HW154876   7.706   3.263   1.921  0.2620  0.3105  0.2493
14854SOL    HW254877   7.654   3.288   1.781  2.4016 -1.3929 -0.9128
14855SOL     OW54878  10.184  12.935   6.787  0.3118 -0.1572 -0.7663
14855SOL    HW154879  10.160  12.942   6.695 -2.1617 -1.5732 -0.3309
14855SOL    HW254880  10.209  13.024   6.812  0.2194  0.4211 -2.5983
14856SOL     OW54881   9.487   8.916   7.429 -0.1544 -0.0878  0.4662
14856SOL    HW154882   9.403   8.879   7.402 -0.2746 -1.9982  3.1222
14856SOL    HW254883   9.464   8.990   7.485 -0.2349 -1.5920  2.5494
14857SOL     OW54884   9.131   8.824   5.098 -0.2679  0.2663  0.3773
14857SOL    HW154885   9.069   8.751   5.100  0.3201 -0.2171  1.0575
14857SOL    HW254886   9.149   8.842   5.190 -0.3017  1.1886  0.2106
14858SOL     OW54887   2.247   1.667   6.671  0.2975  0.0698  0.4157
14858SOL    HW154888   2.176   1.729   6.657  0.2538  0.0750  0.6626
14858SOL    HW254889   2.327   1.717   6.653  0.2254 -0.0230 -0.1727
14859SOL     OW54890   4.293   0.125   6.687 -0.1793 -0.2538 -0.0448
14859SOL    HW154891   4.386   0.124   6.665  0.5864 -0.7817  2.7807
14859SOL    HW254892   4.279   0.045   6.737 -2.1266 -0.0912 -0.2398
14860SOL     OW54893   0.888   6.497  12.683 -0.3897  0.9923 -0.6929
14860SOL    HW154894   0.850   6.432  12.623  1.1444 -0.1904 -0.4564
14860SOL    HW254895   0.865   6.465  12.770  1.4244  0.0324 -0.5339
14861SOL     OW54896  11.197   5.717   8.135  0.1977  0.2975  0.3276
14861SOL    HW154897  11.117   5.737   8.087 -0.7862 -1.1549  1.2973
14861SOL    HW254898  11.261   5.781   8.103 -1.2223  1.2224 -0.7606
14862SOL     OW54899   1.501  12.415   2.080 -0.2549  0.1535 -0.5714
14862SOL    HW154900   1.510  12.320   2.088  0.1826  0.1753 -0.7741
14862SOL    HW254901   1.408  12.429   2.060 -0.6127 -0.1368  0.8031
14863SOL     OW54902   2.079   7.178   8.194 -0.3582  0.3404 -0.0098
14863SOL    HW154903   2.130   7.099   8.173  0.2095  1.1753 -2.0602
14863SOL    HW254904   1.988   7.152   8.182 -0.1158  0.4037 -2.5632
14864SOL     OW54905   4.046   8.456   6.308  0.0525 -0.2335  0.6169
14864SOL    HW154906   4.103   8.404   6.253  1.8549  2.0158  0.2109
14864SOL    HW254907   4.090   8.459   6.393  1.9076  3.3287 -0.2924
14865SOL     OW54908   6.156   9.558   1.132 -0.2096 -0.2783 -0.1417
14865SOL    HW154909   6.131   9.614   1.206  1.1743 -0.2430  0.3309
14865SOL    HW254910   6.122   9.472   1.155  0.1490 -0.2496  0.5002
14866SOL     OW54911   7.314   0.458   9.268  0.3634 -0.5531 -0.3312
14866SOL    HW154912   7.335   0.373   9.230 -1.6743 -0.5007 -1.7617
14866SOL    HW254913   7.312   0.443   9.362  0.7280 -1.9133 -0.5214
14867SOL     OW54914   1.742  12.669   0.644 -0.1129 -0.1406 -0.1598
14867SOL    HW154915   1.756  12.588   0.595  0.2557  0.9399 -1.9602
14867SOL    HW254916   1.763  12.739   0.581  0.6358  1.3499  1.6368
14868SOL     OW54917   2.881   0.925   5.944 -0.2381  0.2564  0.1971
14868SOL    HW154918   2.812   0.864   5.917  0.1123 -0.1372  0.1695
14868SOL    HW254919   2.949   0.914   5.878  1.5741 -2.2846  2.2450
14869SOL     OW54920   5.608   3.391   5.526  0.6106  0.1308  0.3635
14869SOL    HW154921   5.644   3.406   5.439  1.5378 -0.3459  0.6450
14869SOL    HW254922   5.568   3.305   5.521  0.9827 -0.0545  0.4946
14870SOL     OW54923   1.258   2.417   6.504  0.1606 -0.3849 -0.2986
14870SOL    HW154924   1.180   2.413   6.558  0.5744 -1.7758  0.2292
14870SOL    HW254925   1.301   2.499   6.529  0.7570 -1.3464  2.1050
14871SOL     OW54926   3.676   0.345  11.030 -0.4405 -0.0824  0.1086
14871SOL    HW154927   3.679   0.441  11.033  1.1896 -0.1182  0.4496
14871SOL    HW254928   3.700   0.318  11.119 -3.4395 -0.8310  0.7858
14872SOL     OW54929   2.888   2.602  11.634 -0.5172  0.7120  0.1682
14872SOL    HW154930   2.921   2.659  11.565 -0.0118 -1.2335 -1.2729
14872SOL    HW254931   2.943   2.622  11.710  1.1434  0.6067 -0.9483
14873SOL     OW54932   3.817   3.700   9.938 -0.5037  0.1720  0.2425
14873SOL    HW154933   3.895   3.651   9.911  1.4874  3.5763 -0.9140
14873SOL    HW254934   3.802   3.673  10.028 -0.0041 -2.9081 -0.4750
14874SOL     OW54935   5.195  10.465   5.216  0.1777 -0.2905  0.0926
14874SOL    HW154936   5.139  10.540   5.197  0.2237 -0.2324  0.1803
14874SOL    HW254937   5.280  10.489   5.178  0.9239  0.8362  2.3059
14875SOL     OW54938  11.493   6.596   6.317  0.0381  0.1772  0.3252
14875SOL    HW154939  11.585   6.621   6.326 -0.0635  0.2032  1.3469
14875SOL    HW254940  11.495   6.514   6.268  0.6892 -0.4468  1.3614
14876SOL     OW54941   6.056  12.554   0.914  0.4560  0.2334 -0.0899
14876SOL    HW154942   6.040  12.466   0.879 -1.6873  0.2088  0.7893
14876SOL    HW254943   6.069  12.608   0.836  3.4418 -1.0487 -0.6135
14877SOL     OW54944   0.017   4.454   7.600 -0.2673 -0.0018  0.0759
14877SOL    HW154945  -0.064   4.478   7.645  0.1960 -0.4785  1.2180
14877SOL    HW254946  -0.012   4.411   7.519 -1.1221  1.1700 -0.2680
14878SOL     OW54947   4.793   9.056   6.360  0.0188  0.1740 -0.1216
14878SOL    HW154948   4.850   8.984   6.386  0.5065 -0.2839 -2.2541
14878SOL    HW254949   4.785   9.110   6.439  0.1744 -1.8273  1.3416
14879SOL     OW54950   0.005   0.142  12.168 -0.4677 -0.3435  0.2290
14879SOL    HW154951   0.053   0.097  12.238 -0.4540 -1.6355 -0.5809
14879SOL    HW254952   0.072   0.164  12.104 -0.5800  0.2604  0.3086
14880SOL     OW54953   2.673   7.749   6.257  0.1253 -0.6375 -0.7262
14880SOL    HW154954   2.666   7.843   6.242  1.1107 -0.2855  0.7493
14880SOL    HW254955   2.633   7.736   6.343  0.5155 -1.4732 -0.6610
14881SOL     OW54956   4.266   1.232   4.879 -0.0116  0.1591 -0.8786
14881SOL    HW154957   4.224   1.240   4.964  1.5171  0.4485 -0.1082
14881SOL    HW254958   4.218   1.293   4.822  0.1390  1.3936  0.2731
14882SOL     OW54959  10.707   9.362  10.327 -0.0702 -0.4201  0.2822
14882SOL    HW154960  10.691   9.274  10.292  0.5040 -0.7581  0.8409
14882SOL    HW254961  10.794   9.385  10.296 -1.1509  1.0311 -1.9748
14883SOL     OW54962   1.332   9.307   1.675  0.0006  0.0027  0.2208
14883SOL    HW154963   1.297   9.245   1.611 -0.6566  0.9318 -0.3625
14883SOL    HW254964   1.394   9.360   1.624 -0.4166  0.6569  0.3876
14884SOL     OW54965   9.292   5.598   6.384  0.1227  0.0414 -0.6056
14884SOL    HW154966   9.376   5.643   6.372 -0.8905  1.7105 -2.0133
14884SOL    HW254967   9.303   5.514   6.340  1.2939 -0.1285 -0.0433
14885SOL     OW54968   2.638  11.823   1.626 -0.5715  0.2320 -0.5286
14885SOL    HW154969   2.693  11.895   1.655  0.5335 -0.1019 -1.7037
14885SOL    HW254970   2.565  11.821   1.688  1.4205 -0.2170  1.9637
14886SOL     OW54971   5.772   6.973   7.373  0.0801 -0.3257  0.6237
14886SOL    HW154972   5.775   7.067   7.389 -1.6441 -0.2536  0.7813
14886SOL    HW254973   5.853   6.953   7.327  0.9377  1.0492  1.4905
14887SOL     OW54974   5.931   2.542   6.770 -0.2194  0.3413 -0.4089
14887SOL    HW154975   6.008   2.597   6.758 -0.2146  0.2059 -1.0520
14887SOL    HW254976   5.896   2.567   6.855  0.4355  0.5227 -0.1911
14888SOL     OW54977  11.762   5.103  10.248  0.3548 -0.2816  0.3300
14888SOL    HW154978  11.778   5.034  10.314  0.0705 -0.1388  0.5486
14888SOL    HW254979  11.685   5.149  10.280  0.8406  0.4625  0.4456
14889SOL     OW54980   6.339  11.330   4.723 -0.2909 -0.1064  0.1756
14889SOL    HW154981   6.264  11.377   4.760  0.5110  0.7204  0.8044
14889SOL    HW254982   6.343  11.360   4.632 -1.4048 -1.0439 -0.2057
14890SOL     OW54983   0.159   6.756  10.637  0.3417  0.5403  0.4494
14890SOL    HW154984   0.074   6.784  10.670  0.7066  2.4250 -0.0988
14890SOL    HW254985   0.206   6.724  10.714 -1.4684 -2.4072  0.4966
14891SOL     OW54986   6.436   9.931   4.923  0.3853 -0.0511  0.3587
14891SOL    HW154987   6.480   9.900   5.001  0.0997  0.5235  0.7602
14891SOL    HW254988   6.456  10.025   4.920 -0.5416  0.1579  0.3846
14892SOL     OW54989  12.350   7.619   2.925  0.4729  0.5251  0.3549
14892SOL    HW154990  12.289   7.673   2.975 -1.6904 -0.5245 -0.9539
14892SOL    HW254991  12.377   7.675   2.852 -2.7768 -0.3530 -1.7331
14893SOL     OW54992   8.120   0.228   8.563  0.0733  0.0281  0.3933
14893SOL    HW154993   8.173   0.150   8.581  0.1220 -0.0667 -0.1403
14893SOL    HW254994   8.182   0.300   8.563  0.8954 -0.4301 -3.5278
14894SOL     OW54995   2.226   4.371   2.536  0.0626 -0.0401  0.3689
14894SOL    HW154996   2.198   4.288   2.576  1.4612  0.3694  2.3695
14894SOL    HW254997   2.192   4.438   2.595 -1.0937  0.8555 -1.2576
14895SOL     OW54998  12.794   5.937  10.372 -0.2883  0.1238  0.2447
14895SOL    HW154999  12.714   5.889  10.351 -1.0644  0.0004  2.9970
14895SOL    HW255000  12.840   5.947  10.289 -2.0185 -1.8849 -1.0370
14896SOL     OW55001   6.965   9.886   6.929 -0.4922 -0.6293 -0.6596
14896SOL    HW155002   7.007   9.801   6.939  0.8661  0.0458 -0.4014
14896SOL    HW255003   6.915   9.898   7.010  1.4058 -0.0774  0.4837
14897SOL     OW55004   5.254   7.183   0.106 -0.4162 -0.1374 -0.7268
14897SOL    HW155005   5.318   7.120   0.141  0.0489 -0.0456 -1.3833
14897SOL    HW255006   5.172   7.134   0.104 -0.1022 -0.6740 -1.0490
14898SOL     OW55007   8.808  11.337   7.635  0.2198  0.4732 -0.1645
14898SOL    HW155008   8.853  11.319   7.718  0.7460  1.9278 -0.1014
14898SOL    HW255009   8.872  11.312   7.568  0.0548 -0.0592 -0.1280
14899SOL     OW55010   8.105   4.509   3.574  0.7276  0.1747  0.0393
14899SOL    HW155011   8.106   4.568   3.649  1.5868 -0.6928  0.7465
14899SOL    HW255012   8.055   4.433   3.604  1.5778 -0.4348 -0.0356
14900SOL     OW55013   5.888   7.040  11.050  0.1108  0.2124 -0.0751
14900SOL    HW155014   5.863   7.092  11.126 -0.0537  0.4484 -0.2873
14900SOL    HW255015   5.810   6.988  11.030  0.4258 -0.4691  0.4181
14901SOL     OW55016  11.697  11.035  10.186 -0.6112  0.5260 -0.4601
14901SOL    HW155017  11.615  11.001  10.221  0.8122 -0.5194  2.1694
14901SOL    HW255018  11.728  11.096  10.253  0.6225  1.0908 -1.5038
14902SOL     OW55019   7.169   9.339   7.693 -0.3229 -0.5019  0.5681
14902SOL    HW155020   7.126   9.259   7.721 -1.1468 -0.3056 -0.0743
14902SOL    HW255021   7.135   9.354   7.605 -2.2136  1.9270  1.6016
14903SOL     OW55022   6.024   9.992   9.991 -0.3436 -0.3659 -0.0781
14903SOL    HW155023   6.109   9.949   9.986  0.4930  1.3580 -1.9471
14903SOL    HW255024   6.016  10.020  10.082  1.5031  0.2376 -0.0682
14904SOL     OW55025   6.772   5.536   4.083 -0.2972 -0.0111  0.2540
14904SOL    HW155026   6.680   5.551   4.106 -0.4885  1.4671 -1.2960
14904SOL    HW255027   6.774   5.448   4.046 -0.6882 -0.8478  2.1036
14905SOL     OW55028   2.833   3.002   3.074  0.1182  0.3379 -0.2753
14905SOL    HW155029   2.881   3.012   3.156  0.0152 -1.7854  0.1146
14905SOL    HW255030   2.899   3.007   3.005  0.5827 -0.3354  0.1136
14906SOL     OW55031   1.300   7.510  10.986 -0.0806  0.0901  0.0600
14906SOL    HW155032   1.342   7.433  11.025  0.3739  0.8418  1.0786
14906SOL    HW255033   1.218   7.519  11.033 -0.5690 -0.3035 -0.6946
14907SOL     OW55034   9.862  11.341   7.775  0.1146 -0.1242  0.3843
14907SOL    HW155035   9.845  11.287   7.852 -0.0005 -0.7114 -0.0451
14907SOL    HW255036   9.776  11.372   7.749  0.1193 -0.1542  0.3323
14908SOL     OW55037   4.923   7.322   1.720  0.5991  0.3720  0.8634
14908SOL    HW155038   4.949   7.307   1.811  2.4677  0.4703  0.3846
14908SOL    HW255039   4.889   7.411   1.719  1.8112  0.8567  1.2359
14909SOL     OW55040  12.006   9.437  12.393  0.6535  0.5271 -0.4260
14909SOL    HW155041  11.920   9.407  12.364  0.9431  0.8152 -1.6324
14909SOL    HW255042  12.046   9.476  12.315  0.7033  3.1006  0.7579
14910SOL     OW55043   3.914  10.107   1.444  0.2922  0.0955 -0.0008
14910SOL    HW155044   4.008  10.099   1.427  0.4307  0.6794  0.4801
14910SOL    HW255045   3.882  10.016   1.448  0.8619 -0.1044  0.0122
14911SOL     OW55046   9.970  11.705  12.769  0.2800  0.2250  0.2007
14911SOL    HW155047   9.923  11.643  12.713  2.3302 -0.1633 -1.2080
14911SOL    HW255048   9.975  11.785  12.717  0.5219  0.4995  0.6402
14912SOL     OW55049   0.311  11.436   1.482  0.1735  0.3015  0.0569
14912SOL    HW155050   0.242  11.471   1.425  0.3079  0.6829  0.1241
14912SOL    HW255051   0.340  11.512   1.533  0.2541  0.0223  0.4289
14913SOL     OW55052  11.674   6.567   3.093  0.1797  0.3537  0.7228
14913SOL    HW155053  11.700   6.623   3.020 -2.1009  0.4489 -0.0996
14913SOL    HW255054  11.623   6.497   3.052  0.0178 -0.3604  2.0958
14914SOL     OW55055   4.941   3.667   6.256  0.3100  0.0954  0.1015
14914SOL    HW155056   4.848   3.691   6.246 -0.0214 -1.1838 -0.0320
14914SOL    HW255057   4.960   3.613   6.180  1.3215  0.7512 -0.1315
14915SOL     OW55058  12.221   8.887   4.895  0.5513  0.5199  0.5155
14915SOL    HW155059  12.159   8.835   4.845  1.2652 -1.6310  1.6965
14915SOL    HW255060  12.198   8.978   4.876 -1.5131 -0.1997 -0.7662
14916SOL     OW55061   1.127   0.101  11.207 -0.0550  0.0525  0.0202
14916SOL    HW155062   1.192   0.121  11.139  2.2407  1.5692  2.4467
14916SOL    HW255063   1.072   0.179  11.211  1.4954  1.1414  1.5759
14917SOL     OW55064  12.808   5.329   0.781 -0.2229  0.0973  0.0099
14917SOL    HW155065  12.743   5.393   0.809 -1.0578 -0.1927 -1.1920
14917SOL    HW255066  12.822   5.348   0.688 -0.7869 -1.6826 -0.4872
14918SOL     OW55067  10.378   3.658   0.880 -0.1693  0.4042 -0.3763
14918SOL    HW155068  10.430   3.704   0.946  1.5786  0.4343 -1.7131
14918SOL    HW255069  10.290   3.693   0.890  0.6698  2.5194  0.0342
14919SOL     OW55070  11.810   4.123  10.723 -0.0302  0.0683  0.4865
14919SOL    HW155071  11.882   4.144  10.664  1.6354 -0.7122  2.1470
14919SOL    HW255072  11.846   4.137  10.810 -2.5836  1.7698  1.3777
14920SOL     OW55073  10.342   5.474   1.724  0.3723 -0.1284 -0.4412
14920SOL    HW155074  10.253   5.482   1.692 -0.2510 -1.4767  0.8217
14920SOL    HW255075  10.380   5.403   1.672 -0.0441 -1.0681  0.5007
14921SOL     OW55076   0.988   6.248  12.395  0.1291 -0.2858 -0.2608
14921SOL    HW155077   0.950   6.169  12.356 -0.1924  0.4365 -1.4874
14921SOL    HW255078   0.962   6.318  12.335 -0.1046  0.8430  1.1333
14922SOL     OW55079   3.089  12.337  11.580  0.0651 -0.2689  0.2743
14922SOL    HW155080   3.047  12.253  11.562 -0.2200 -0.3367  1.2295
14922SOL    HW255081   3.072  12.353  11.672  2.8077 -0.6862  0.9398
14923SOL     OW55082  11.949   0.330   1.782  0.4652 -0.3915  0.5442
14923SOL    HW155083  11.891   0.264   1.743 -0.2110  0.1829  0.5644
14923SOL    HW255084  11.894   0.376   1.846  0.6709  0.8020 -0.1167
14924SOL     OW55085   0.626   7.385   4.532  0.5190  0.4233 -0.0639
14924SOL    HW155086   0.717   7.360   4.519  0.6663  0.9723 -0.0903
14924SOL    HW255087   0.580   7.302   4.545  1.0820  0.1741  0.3559
14925SOL     OW55088   1.399  11.494   7.824  0.2929 -0.2383 -0.2330
14925SOL    HW155089   1.373  11.563   7.886 -1.4939 -0.5258 -0.6089
14925SOL    HW255090   1.382  11.412   7.871 -1.5882 -0.4761 -1.2073
14926SOL     OW55091   7.141  12.242   3.067  0.0838  0.4481  0.1007
14926SOL    HW155092   7.104  12.285   2.991  1.0025  1.2036  0.0565
14926SOL    HW255093   7.230  12.276   3.073  0.6900 -1.0809  0.3683
14927SOL     OW55094   0.996   4.253   6.647  0.5156  0.5091 -0.2796
14927SOL    HW155095   0.943   4.235   6.569  0.6722  0.5648 -0.3989
14927SOL    HW255096   0.996   4.171   6.696  0.1244  0.5788 -0.1631
14928SOL     OW55097   4.088   6.050   5.795  0.5599 -0.2007 -0.0218
14928SOL    HW155098   4.010   6.105   5.808  0.5148  0.6085 -2.9321
14928SOL    HW255099   4.162   6.109   5.812  0.5719 -0.4505  0.8810
14929SOL     OW55100   4.444  11.034   9.028 -0.6534  0.4548 -0.0859
14929SOL    HW155101   4.427  10.988   8.946 -0.7687  0.4815 -0.0770
14929SOL    HW255102   4.448  11.127   9.004  0.3506  0.3852 -0.2303
14930SOL     OW55103  10.494   2.704  12.198  0.0567  0.2275  0.8730
14930SOL    HW155104  10.458   2.670  12.280  1.0180 -1.5024  0.6285
14930SOL    HW255105  10.421   2.701  12.136 -0.3819  0.4662  1.3793
14931SOL     OW55106   8.031   7.698   3.617 -0.2644 -0.5832  0.0908
14931SOL    HW155107   8.090   7.623   3.606  0.0712 -0.3673  0.4048
14931SOL    HW255108   8.059   7.760   3.550  1.6402  0.6414  1.9053
14932SOL     OW55109   6.063   8.076   1.339  0.0119  0.2485  0.7112
14932SOL    HW155110   6.086   8.065   1.247 -0.6535 -0.4410  0.6228
14932SOL    HW255111   6.058   8.171   1.351  0.1268  0.3434  0.0456
14933SOL     OW55112  10.507   1.342  11.052 -0.2292 -0.5909  0.1570
14933SOL    HW155113  10.554   1.324  11.134 -0.6411 -1.1001  0.2857
14933SOL    HW255114  10.498   1.437  11.051 -0.7352 -0.6130  1.0019
14934SOL     OW55115   1.438   2.951   6.335  0.0709  0.4406  0.2312
14934SOL    HW155116   1.429   3.000   6.253 -0.5256 -0.2229 -0.1189
14934SOL    HW255117   1.382   2.998   6.397  0.2590  0.7500  0.1702
14935SOL     OW55118  11.076   3.770   0.585  0.7886  0.2346 -0.8472
14935SOL    HW155119  11.117   3.828   0.649  0.5259  0.7353 -1.1215
14935SOL    HW255120  11.014   3.718   0.636  2.1221 -0.9085 -0.3408
14936SOL     OW55121   2.939   1.576  10.320  0.5323  0.6420 -0.0090
14936SOL    HW155122   2.850   1.578  10.284  1.2492  0.4810 -1.9180
14936SOL    HW255123   2.972   1.665  10.306  0.6960  0.6884  0.6476
14937SOL     OW55124   5.583  12.552   7.593 -0.5039  0.4196 -0.4623
14937SOL    HW155125   5.666  12.505   7.594 -0.6012  0.2535  0.4131
14937SOL    HW255126   5.575  12.585   7.504  0.0998 -0.2715 -0.7792
14938SOL     OW55127   2.303   2.391   0.578  0.3654 -0.2331  0.0382
14938SOL    HW155128   2.238   2.342   0.528 -0.3534  0.5814  0.1521
14938SOL    HW255129   2.253   2.431   0.650  0.9925  0.3945  0.1356
14939SOL     OW55130  11.987   5.893  12.495 -0.7681  0.3122 -0.4183
14939SOL    HW155131  12.054   5.877  12.561 -1.4058  0.5264  0.2955
14939SOL    HW255132  11.985   5.988  12.485 -0.5183  0.2678 -0.9165
14940SOL     OW55133   9.030  11.392   7.479 -0.5840 -0.1641 -0.7615
14940SOL    HW155134   9.087  11.453   7.526 -0.8728 -0.6564  0.2766
14940SOL    HW255135   9.082  11.361   7.405  0.3235 -0.2311 -0.1121
14941SOL     OW55136   3.995   2.660   3.400 -0.3896 -0.4635  0.4078
14941SOL    HW155137   4.019   2.614   3.320  0.6024  0.5547  0.0854
14941SOL    HW255138   4.077   2.699   3.430 -1.3426  1.9879  0.0485
14942SOL     OW55139   0.958  11.676   5.509 -0.5794  0.7047  0.1301
14942SOL    HW155140   1.025  11.619   5.547  0.6044  0.6270 -1.9484
14942SOL    HW255141   0.982  11.764   5.538 -0.5736  0.4952  0.7756
14943SOL     OW55142   9.254  12.285  10.911 -0.0152 -0.2937 -0.0255
14943SOL    HW155143   9.298  12.366  10.884  0.8216 -0.7020  0.0858
14943SOL    HW255144   9.166  12.292  10.874  0.2236  0.4249 -0.4706
14944SOL     OW55145   0.446   4.601   8.873  0.3889  0.1426  0.2374
14944SOL    HW155146   0.426   4.558   8.956  2.1765  0.4057  0.8380
14944SOL    HW255147   0.510   4.669   8.895  1.2074 -0.0419 -1.3931
14945SOL     OW55148   2.689  10.554  11.518  0.3881  0.0059 -0.1587
14945SOL    HW155149   2.680  10.514  11.431  0.7225 -0.7739  0.1580
14945SOL    HW255150   2.697  10.648  11.500  1.5376 -0.2349 -1.0488
14946SOL     OW55151   6.287   9.980   7.101  0.2566 -0.3488 -0.5188
14946SOL    HW155152   6.208  10.000   7.153  0.1334 -0.6438 -0.5892
14946SOL    HW255153   6.253   9.953   7.016  0.1243 -4.6243  0.6347
14947SOL     OW55154   2.847   5.245   6.299 -0.4164 -0.0609  0.3984
14947SOL    HW155155   2.801   5.265   6.381  0.7420 -0.6055  1.2138
14947SOL    HW255156   2.900   5.323   6.283  0.1824 -0.3741  0.7831
14948SOL     OW55157   7.786  10.175   1.595 -0.0780 -0.4723  0.0741
14948SOL    HW155158   7.786  10.271   1.600  0.5483 -0.5016  0.7977
14948SOL    HW255159   7.752  10.156   1.508 -1.1812  0.3780  0.2977
14949SOL     OW55160   6.120   7.626   9.810  0.3246  0.0049 -0.2463
14949SOL    HW155161   6.193   7.595   9.862 -0.1105 -0.3136  0.1878
14949SOL    HW255162   6.133   7.587   9.723 -1.4663 -3.4630  0.8747
14950SOL     OW55163  10.147  10.558   5.228  0.3459 -0.0952  0.6742
14950SOL    HW155164  10.156  10.621   5.299  0.9694 -0.1956  0.6876
14950SOL    HW255165  10.056  10.567   5.199  0.3229  0.5296  0.9315
14951SOL     OW55166   7.868   0.863   1.887  0.5809  0.5779 -0.1553
14951SOL    HW155167   7.816   0.934   1.848  0.8884  0.6420 -0.4592
14951SOL    HW255168   7.959   0.888   1.869  0.6723 -0.4013 -1.1728
14952SOL     OW55169   6.917   3.951   8.439  0.5335 -0.1382  0.2010
14952SOL    HW155170   6.872   4.026   8.479 -0.9002 -0.7506 -0.2017
14952SOL    HW255171   6.987   3.930   8.501  0.6358  1.1983  0.5740
14953SOL     OW55172   6.974   7.487   7.532  0.3215 -0.2385  0.2096
14953SOL    HW155173   6.899   7.453   7.580  0.7077  0.4051  1.2901
14953SOL    HW255174   6.968   7.444   7.446 -0.2971 -1.5167  0.8554
14954SOL     OW55175   7.615   7.228  11.619 -0.2728  0.1716  0.2275
14954SOL    HW155176   7.622   7.162  11.550 -0.3229  0.8897 -0.4808
14954SOL    HW255177   7.642   7.183  11.698 -1.2480 -0.9874 -0.0663
14955SOL     OW55178   0.138   8.811   3.356  0.2741 -0.5829  0.0196
14955SOL    HW155179   0.087   8.731   3.370 -0.4370  0.1319  1.8349
14955SOL    HW255180   0.206   8.785   3.294 -1.0899 -2.0855 -0.9628
14956SOL     OW55181   5.981  12.529   1.433  0.1938 -0.2171 -0.3609
14956SOL    HW155182   5.996  12.556   1.342 -1.0501 -1.1991 -0.8814
14956SOL    HW255183   5.980  12.434   1.429  0.6838 -0.2832  0.8007
14957SOL     OW55184   7.209   2.897   6.179 -0.2536  0.1554 -0.5514
14957SOL    HW155185   7.257   2.883   6.260 -0.1950  1.0483 -0.4199
14957SOL    HW255186   7.118   2.911   6.206 -0.4794 -0.8477 -0.7479
14958SOL     OW55187   7.450   4.307   0.779  0.1482 -0.2300  0.4899
14958SOL    HW155188   7.459   4.278   0.870  1.0114  0.1873  0.5490
14958SOL    HW255189   7.365   4.352   0.777 -0.2403 -0.9157  0.8916
14959SOL     OW55190   8.540   6.591   0.702 -0.4717 -0.2880 -0.1265
14959SOL    HW155191   8.624   6.634   0.687 -0.3224 -0.3368  0.5504
14959SOL    HW255192   8.563   6.499   0.718 -0.5073 -0.0107  1.6246
14960SOL     OW55193   2.220  12.015   7.769 -0.4743  0.1132  0.5965
14960SOL    HW155194   2.266  11.937   7.735 -1.0147 -0.1079  0.3644
14960SOL    HW255195   2.180  12.054   7.691  0.0919  0.8294  0.6574
14961SOL     OW55196   6.149   8.475  10.351 -0.5710  0.5611 -0.0896
14961SOL    HW155197   6.054   8.481  10.342 -0.6243  0.9334  0.6123
14961SOL    HW255198   6.180   8.563  10.330 -0.4170  0.5366  0.0318
14962SOL     OW55199   1.167   4.225   8.851  0.1148  0.3865 -0.0203
14962SOL    HW155200   1.196   4.172   8.925  1.0999  0.6523 -0.2051
14962SOL    HW255201   1.248   4.252   8.808 -0.4385 -0.6814 -1.8618
14963SOL     OW55202  12.789   7.432   4.113 -0.1742  0.2554 -0.1201
14963SOL    HW155203  12.759   7.498   4.176 -2.2406 -0.7299 -0.0053
14963SOL    HW255204  12.730   7.441   4.039 -0.4692 -1.4134 -0.1188
14964SOL     OW55205   7.282   1.532   6.977 -0.0299 -0.1528  0.1273
14964SOL    HW155206   7.322   1.611   7.014  0.4785 -0.8868  1.2019
14964SOL    HW255207   7.331   1.516   6.897  0.1593  0.3744  0.1333
14965SOL     OW55208   2.861  10.375   1.263 -0.3718 -0.2868 -0.7631
14965SOL    HW155209   2.795  10.443   1.277 -1.2327 -1.3059  0.2989
14965SOL    HW255210   2.885  10.345   1.350  0.7595 -0.6446 -1.1772
14966SOL     OW55211   7.530   9.818   9.780 -0.2246  0.0759 -0.2636
14966SOL    HW155212   7.575   9.877   9.719  0.5785 -1.9624 -1.7455
14966SOL    HW255213   7.571   9.837   9.864  1.1960  0.4893 -1.0030
14967SOL     OW55214  11.639   0.059   5.370  0.0160  0.0626  0.5645
14967SOL    HW155215  11.594   0.025   5.447  1.1902 -1.5262  0.5791
14967SOL    HW255216  11.724   0.088   5.402  0.3909 -0.2980 -0.0852
14968SOL     OW55217   8.228   1.253   3.109  0.0023  0.1580  0.4268
14968SOL    HW155218   8.319   1.226   3.116 -0.5206 -2.0592 -0.5721
14968SOL    HW255219   8.211   1.302   3.189  1.9523  0.2957  0.7968
14969SOL     OW55220  11.837   4.089   4.092 -0.2168 -0.1378  0.0060
14969SOL    HW155221  11.757   4.045   4.064 -0.3650  0.3117 -0.3029
14969SOL    HW255222  11.809   4.144   4.166 -0.9533  2.5083 -2.0652
14970SOL     OW55223   8.545  10.731  10.369  0.0944  0.0179 -0.5504
14970SOL    HW155224   8.470  10.791  10.373 -0.5973 -0.8770  0.7252
14970SOL    HW255225   8.583  10.746  10.282 -1.4177  0.6652 -1.1364
14971SOL     OW55226   9.740  12.164  11.135 -0.1458 -0.0009  0.3480
14971SOL    HW155227   9.711  12.080  11.100 -0.6008  0.5500 -0.6385
14971SOL    HW255228   9.676  12.184  11.204 -0.2667 -0.2771  0.3186
14972SOL     OW55229   1.392   1.472   1.523 -0.2076 -0.1139  0.0647
14972SOL    HW155230   1.353   1.512   1.445 -1.6769  1.5458  1.5639
14972SOL    HW255231   1.322   1.419   1.560 -0.3584  1.0855  1.5700
14973SOL     OW55232   7.787   1.549   7.079  0.3029  0.2445 -0.0245
14973SOL    HW155233   7.796   1.468   7.029 -1.5650  1.0914 -1.8789
14973SOL    HW255234   7.871   1.593   7.068  1.0093 -0.9937  0.2253
14974SOL     OW55235   1.206   0.637  10.169 -0.0298 -0.3683  0.2608
14974SOL    HW155236   1.203   0.710  10.232 -0.4500 -1.1412  1.1637
14974SOL    HW255237   1.280   0.657  10.112  0.4309  0.3048  1.0702
14975SOL     OW55238   3.867   3.695  11.757  0.1393 -0.4060  0.5708
14975SOL    HW155239   3.810   3.718  11.684  0.7531 -2.4685 -0.6330
14975SOL    HW255240   3.945   3.750  11.745 -0.8208  1.1712  1.2455
14976SOL     OW55241   8.243   6.347   3.864 -0.2680 -0.8382  0.3213
14976SOL    HW155242   8.174   6.413   3.865 -0.3431 -0.9057 -0.0977
14976SOL    HW255243   8.246   6.313   3.953  1.9989  2.0313  1.5317
14977SOL     OW55244   2.378  10.346   4.394 -0.3083 -0.0897 -0.1758
14977SOL    HW155245   2.287  10.369   4.374 -0.5798 -0.1479  0.9390
14977SOL    HW255246   2.413  10.424   4.437 -0.2514 -0.5599  0.6515
14978SOL     OW55247   2.826   4.144   7.116 -0.8260  0.1411  0.1194
14978SOL    HW155248   2.828   4.232   7.154 -3.1139  0.0033  0.6921
14978SOL    HW255249   2.761   4.150   7.047 -1.9912 -1.4069  1.0378
14979SOL     OW55250  12.375   7.793   9.594  0.1009 -0.2613 -0.6413
14979SOL    HW155251  12.344   7.864   9.536 -0.2818 -0.4869 -0.7153
14979SOL    HW255252  12.369   7.714   9.540  1.9898 -0.1485 -1.0798
14980SOL     OW55253   7.737   5.256   4.036  0.2568 -0.0491 -0.5609
14980SOL    HW155254   7.736   5.313   4.114 -0.5063  0.1272 -0.6974
14980SOL    HW255255   7.650   5.217   4.033 -0.7600  2.1023 -2.8919
14981SOL     OW55256  12.187   8.542  10.555  0.1558 -0.1838 -0.2100
14981SOL    HW155257  12.219   8.618  10.507 -0.0534 -1.9162 -3.3306
14981SOL    HW255258  12.098   8.567  10.582  0.1175  0.7324 -1.1094
14982SOL     OW55259   1.432   0.338   9.952 -0.1965  0.0607 -0.3420
14982SOL    HW155260   1.527   0.343   9.955  0.2469 -4.3144 -0.8302
14982SOL    HW255261   1.404   0.361  10.041  1.1340  2.4045 -0.4595
14983SOL     OW55262  10.376  12.655   1.249 -0.7718  0.0782 -0.0910
14983SOL    HW155263  10.372  12.596   1.324 -0.8326 -0.8516 -0.8133
14983SOL    HW255264  10.469  12.663   1.229 -0.7424  0.4647  0.1764
14984SOL     OW55265  12.412   8.932   1.752 -0.2205  0.0526 -0.1661
14984SOL    HW155266  12.388   8.840   1.746  1.0152 -0.2952 -0.1122
14984SOL    HW255267  12.486   8.941   1.691  1.6638  0.2668  1.9907
14985SOL     OW55268   9.277   7.876   9.730  0.6561  0.0211 -0.4882
14985SOL    HW155269   9.348   7.873   9.795  0.3237  0.2123 -0.1136
14985SOL    HW255270   9.319   7.849   9.648  1.7525  2.4190 -0.8150
14986SOL     OW55271   1.308   0.972  11.417 -0.2894 -0.2546 -0.3824
14986SOL    HW155272   1.238   0.967  11.352 -0.7786  0.4914  0.0790
14986SOL    HW255273   1.270   1.022  11.490  0.3186 -0.9004  0.3914
14987SOL     OW55274   1.231  11.759   4.438 -0.0127  0.2361 -0.6087
14987SOL    HW155275   1.296  11.829   4.426 -0.8687  1.0666 -0.5120
14987SOL    HW255276   1.163  11.798   4.492 -0.3553 -0.7906 -0.2674
14988SOL     OW55277   0.120   4.359   3.324 -0.2656 -0.1783 -0.0541
14988SOL    HW155278   0.066   4.437   3.322 -2.5191 -1.6485 -1.1048
14988SOL    HW255279   0.179   4.372   3.398 -0.0999  2.7400 -0.5790
14989SOL     OW55280   2.165  12.712  11.952  0.4558 -0.1650  0.0119
14989SOL    HW155281   2.202  12.695  12.039 -0.5216  0.6354  0.6125
14989SOL    HW255282   2.196  12.800  11.929  0.8070 -0.4207 -0.5091
14990SOL     OW55283   0.564   0.469   6.195 -0.1810  0.1294  0.3449
14990SOL    HW155284   0.632   0.403   6.208 -1.0786 -0.6524  1.1858
14990SOL    HW255285   0.483   0.427   6.224 -1.1851  0.7388 -1.4004
14991SOL     OW55286   8.884  12.839   4.640 -0.0695 -0.7213 -0.7049
14991SOL    HW155287   8.855  12.837   4.549  1.2278 -1.2790 -1.1357
14991SOL    HW255288   8.817  12.888   4.686 -0.0110  0.8811 -2.2324
14992SOL     OW55289   7.794   9.978   9.956 -0.3827  0.0177  0.1968
14992SOL    HW155290   7.713   9.996  10.003 -1.0089 -2.5532  0.2541
14992SOL    HW255291   7.772   9.905   9.899  1.1468  1.1409 -1.9859
14993SOL     OW55292   3.304   8.797  11.072  0.0921 -0.4798  0.2015
14993SOL    HW155293   3.219   8.837  11.086  0.0529 -0.8915  1.2410
14993SOL    HW255294   3.358   8.828  11.146  1.1106  0.4654 -0.8947
14994SOL     OW55295   1.629   5.513   0.542  0.3023 -0.0694  0.0974
14994SOL    HW155296   1.715   5.540   0.510  0.4307  0.4461  0.8480
14994SOL    HW255297   1.577   5.593   0.539  0.5624  0.2295  1.9560
14995SOL     OW55298   8.500   6.992   6.352  0.0556 -0.1340 -0.4406
14995SOL    HW155299   8.473   7.053   6.283  0.6930  0.3057 -0.3068
14995SOL    HW255300   8.506   7.046   6.431  0.0200 -0.4956 -0.1892
14996SOL     OW55301   8.829   0.944  12.636 -0.0006  0.6457  0.5681
14996SOL    HW155302   8.795   0.952  12.725 -1.2999 -0.0926  0.1769
14996SOL    HW255303   8.827   1.033  12.601 -1.5406  0.6519  0.5951
14997SOL     OW55304  12.930   4.154   5.489  0.0530  0.6458 -0.1007
14997SOL    HW155305  12.974   4.070   5.483  0.5428  0.9189 -0.4101
14997SOL    HW255306  12.838   4.135   5.471 -0.0375  0.0088  0.9213
14998SOL     OW55307   9.172   7.686  10.020  0.3738 -0.3664 -0.1190
14998SOL    HW155308   9.186   7.605   9.972  0.3574 -0.7157  0.4495
14998SOL    HW255309   9.136   7.747   9.956  0.4080 -0.8028 -0.5554
14999SOL     OW55310   3.196  10.638   1.044 -0.3097 -0.5430 -0.5272
14999SOL    HW155311   3.189  10.591   1.127 -1.5207  0.3290 -0.1015
14999SOL    HW255312   3.116  10.615   0.997 -1.6476  2.0248  0.2529
15000SOL     OW55313   1.430   1.284   5.552 -0.1015 -0.0731  0.6011
15000SOL    HW155314   1.407   1.367   5.594  0.6657  1.4044 -1.6963
15000SOL    HW255315   1.346   1.244   5.531 -0.5836  1.3701 -0.4487
15001SOL     OW55316   5.412   2.777   6.208  0.1270 -0.0373  0.1131
15001SOL    HW155317   5.435   2.752   6.298  1.8136  0.5000 -0.1326
15001SOL    HW255318   5.406   2.693   6.161 -0.1220 -0.2820  0.5658
15002SOL     OW55319   7.009   9.742  10.328 -0.4020 -0.1450  0.1425
15002SOL    HW155320   6.931   9.712  10.281  0.4430 -0.8783 -0.8038
15002SOL    HW255321   7.083   9.717  10.273  0.5515  0.0734  1.2773
15003SOL     OW55322   4.534   3.498   0.372 -0.1342 -0.2746 -0.1694
15003SOL    HW155323   4.597   3.499   0.300  0.8482 -2.2115  0.5938
15003SOL    HW255324   4.571   3.559   0.437  0.5758 -0.8346 -0.0398
15004SOL     OW55325   0.491  11.954  10.969  0.2256  0.0165 -0.0752
15004SOL    HW155326   0.431  11.881  10.982 -1.5761  1.0885 -1.8110
15004SOL    HW255327   0.498  11.994  11.056 -0.7550 -0.7410  0.3771
15005SOL     OW55328   3.442   1.127   6.409 -0.3209  0.5702 -0.4320
15005SOL    HW155329   3.351   1.125   6.380  0.1728 -1.8505 -2.1202
15005SOL    HW255330   3.450   1.051   6.467  0.9451 -0.2983 -1.6658
15006SOL     OW55331   4.573   7.114   2.699  0.6808  0.1387  0.0466
15006SOL    HW155332   4.509   7.043   2.689  0.4621  0.1179  1.4454
15006SOL    HW255333   4.658   7.071   2.689  0.5165  0.0204 -0.9700
15007SOL     OW55334   5.979  12.235   1.797 -0.6254  0.5826 -0.2649
15007SOL    HW155335   5.937  12.150   1.795 -0.1168  0.3426 -1.3299
15007SOL    HW255336   6.048  12.226   1.863  0.6099 -0.4351 -1.6244
15008SOL     OW55337  10.573   5.554   6.883 -0.1109  0.4805  0.2802
15008SOL    HW155338  10.523   5.496   6.826  1.1108 -0.9386  0.5894
15008SOL    HW255339  10.651   5.577   6.833  1.3819 -1.4488  1.5951
15009SOL     OW55340   6.512   2.271   4.425  0.0442  0.2032  0.5282
15009SOL    HW155341   6.554   2.258   4.340 -0.1036  1.0294  0.3199
15009SOL    HW255342   6.525   2.364   4.445  1.1754 -0.2248  1.9996
15010SOL     OW55343   7.965  12.245   9.074 -0.1819  0.5182 -0.2563
15010SOL    HW155344   8.046  12.258   9.026  0.2786 -0.4175  0.2408
15010SOL    HW255345   7.937  12.157   9.051 -1.0542  0.8209 -0.4097
15011SOL     OW55346  12.581   8.842  10.042 -0.2922  0.3926  0.2833
15011SOL    HW155347  12.521   8.906  10.080 -0.4663 -0.3664  1.3598
15011SOL    HW255348  12.636   8.815  10.116 -0.9370 -1.4750  0.1396
15012SOL     OW55349  10.188   9.959  11.801  0.6658  0.3176  0.1629
15012SOL    HW155350  10.126   9.955  11.874  1.5179  0.9487  0.9405
15012SOL    HW255351  10.242  10.036  11.819  1.3625  0.0660 -0.7579
15013SOL     OW55352   4.913   3.179   0.970  0.3276  0.6955 -0.4389
15013SOL    HW155353   4.909   3.228   0.888  0.1725  1.2300 -0.1206
15013SOL    HW255354   4.930   3.246   1.037 -0.3871  0.3852  0.0671
15014SOL     OW55355  12.338   0.927   9.666 -0.4644  0.0832 -0.3658
15014SOL    HW155356  12.332   0.838   9.632  2.1603 -0.2241 -0.2152
15014SOL    HW255357  12.345   0.917   9.761 -1.4214  0.5553 -0.2297
15015SOL     OW55358   5.382   2.646  12.126  0.6778 -0.2621 -0.5096
15015SOL    HW155359   5.381   2.613  12.036  0.2964 -2.2981  0.2063
15015SOL    HW255360   5.381   2.742  12.116 -1.0459 -0.4279 -2.6577
15016SOL     OW55361   4.658  11.663   8.889 -0.2954  0.4418 -0.0175
15016SOL    HW155362   4.628  11.725   8.822 -2.5182 -1.1667 -0.6469
15016SOL    HW255363   4.750  11.648   8.868  0.1685  3.0084 -0.1889
15017SOL     OW55364   7.286   8.984   1.863 -0.0539 -0.1300 -0.1330
15017SOL    HW155365   7.309   9.011   1.774  0.6027 -0.5300 -0.0932
15017SOL    HW255366   7.276   9.066   1.911 -0.1129  0.0816 -0.5029
15018SOL     OW55367   3.777   4.512   6.711 -0.1602  0.3702  0.7088
15018SOL    HW155368   3.692   4.483   6.679 -0.2090  2.0470 -0.8238
15018SOL    HW255369   3.757   4.589   6.765  0.4619  1.7156 -0.9116
15019SOL     OW55370   2.925   3.828   2.141 -0.2238  0.4170  0.0206
15019SOL    HW155371   2.863   3.787   2.081 -0.2767 -0.6260  0.7728
15019SOL    HW255372   2.963   3.756   2.191  1.8354  0.9894 -0.6147
15020SOL     OW55373  11.109   2.835   7.059 -0.1811 -0.2409 -0.1726
15020SOL    HW155374  11.192   2.819   7.103  1.0898  0.7593 -2.0696
15020SOL    HW255375  11.095   2.758   7.003 -0.7468 -0.5768  0.4144
15021SOL     OW55376  12.080   3.467   6.099 -0.3646 -0.5388  0.6317
15021SOL    HW155377  12.104   3.494   6.188 -0.2077  0.8895  0.1769
15021SOL    HW255378  12.124   3.383   6.087  0.5528 -0.2032  1.5011
15022SOL     OW55379   7.090   0.743  12.085 -0.6511  0.2871  0.0928
15022SOL    HW155380   7.056   0.711  12.001 -0.4754 -0.7966  0.4082
15022SOL    HW255381   7.111   0.834  12.069 -0.6702  0.1164 -1.0306
15023SOL     OW55382   5.939   7.740   4.030  0.5068 -0.2932 -0.7040
15023SOL    HW155383   5.908   7.745   3.940 -0.9115  1.0957 -0.1767
15023SOL    HW255384   6.034   7.726   4.022  0.2839 -1.1272 -2.3714
15024SOL     OW55385   1.636  12.845   9.950 -0.3125  0.2786 -0.0859
15024SOL    HW155386   1.672  12.885  10.029 -0.7192  1.5335 -0.5144
15024SOL    HW255387   1.556  12.801   9.979 -0.7323  1.1659  0.1299
15025SOL     OW55388   4.360   6.822  11.470  0.5515  0.2849  0.4288
15025SOL    HW155389   4.341   6.764  11.396 -0.3177 -1.9082  2.2661
15025SOL    HW255390   4.454   6.841  11.462  0.2753  0.9942 -1.7710
15026SOL     OW55391   2.585  11.234   4.309 -0.6926  0.2544  0.2602
15026SOL    HW155392   2.499  11.274   4.298 -0.9518 -0.6316 -1.1716
15026SOL    HW255393   2.589  11.166   4.242 -0.1587 -1.9946  2.4108
15027SOL     OW55394   8.275  11.324   1.469  0.1866  0.1621  0.9005
15027SOL    HW155395   8.186  11.313   1.435  0.5790 -2.2227  0.4798
15027SOL    HW255396   8.285  11.254   1.533  1.9825 -0.0510  0.4361
15028SOL     OW55397   8.886  10.767   6.049  0.3072  0.4518 -0.2260
15028SOL    HW155398   8.826  10.695   6.067  1.2140 -0.7046 -1.6610
15028SOL    HW255399   8.962  10.726   6.010  0.4340  2.2936 -2.0718
15029SOL     OW55400   9.901   0.231   1.041  0.3187 -0.1289 -0.5775
15029SOL    HW155401   9.963   0.223   1.113 -0.3399  1.5585  0.2239
15029SOL    HW255402   9.881   0.324   1.036  0.2215 -0.2084 -2.8645
15030SOL     OW55403  12.311  11.702   4.739  0.1611 -0.0360 -0.3565
15030SOL    HW155404  12.279  11.782   4.782 -0.8618 -0.8032  0.3535
15030SOL    HW255405  12.363  11.658   4.806 -0.9250 -0.9330 -0.0790
15031SOL     OW55406   5.573   6.377   1.948  0.1288  0.3968  0.0055
15031SOL    HW155407   5.515   6.449   1.924 -0.2221  0.2354  0.3632
15031SOL    HW255408   5.561   6.367   2.042  0.9775  0.5683  0.1322
15032SOL     OW55409  11.828   4.382   2.973 -0.6593  0.0324  0.3728
15032SOL    HW155410  11.773   4.303   2.974  1.6858 -1.7329 -0.0314
15032SOL    HW255411  11.766   4.454   2.965 -3.0394 -1.6481  1.9022
15033SOL     OW55412   1.103  12.579  12.337  0.3949 -0.0907  0.2621
15033SOL    HW155413   1.011  12.571  12.359  0.6070  0.0495  1.2281
15033SOL    HW255414   1.131  12.489  12.320  0.5485 -0.3961  1.9592
15034SOL     OW55415  12.396   7.465  12.916 -0.0304  0.9036 -0.0078
15034SOL    HW155416  12.485   7.458  12.952 -0.4118 -0.2691  0.7700
15034SOL    HW255417  12.341   7.422  12.981 -1.0962  1.0741 -0.7769
15035SOL     OW55418  10.377   1.379   9.342  0.2242  0.3407 -0.0794
15035SOL    HW155419  10.444   1.349   9.404 -0.2062 -0.3759  0.0489
15035SOL    HW255420  10.316   1.306   9.337  0.6089  0.1037 -1.8681
15036SOL     OW55421   9.733   2.233  11.650  0.1921 -0.5019 -0.0066
15036SOL    HW155422   9.763   2.148  11.682 -0.9670 -0.4582  1.3000
15036SOL    HW255423   9.788   2.296  11.697 -0.1582 -0.4963  0.4068
15037SOL     OW55424   1.087  11.106   6.933  0.1872  0.1129  0.2485
15037SOL    HW155425   1.083  11.061   6.848  1.1520 -0.3794  0.4520
15037SOL    HW255426   1.115  11.195   6.911  0.0334  0.1033  0.0090
15038SOL     OW55427   4.248   0.777   4.450  0.1585  0.0194  0.0823
15038SOL    HW155428   4.233   0.828   4.530 -1.8976 -1.0346  0.4325
15038SOL    HW255429   4.196   0.822   4.384  1.6933  0.7689 -0.6606
15039SOL     OW55430  10.650   7.031   8.915 -0.0517  0.5200  0.0240
15039SOL    HW155431  10.599   7.051   8.836 -0.8826 -0.6867  0.2131
15039SOL    HW255432  10.608   6.952   8.950  1.9167 -0.4698  0.2520
15040SOL     OW55433   0.072   7.460   7.526  0.1755  0.0039 -0.0107
15040SOL    HW155434   0.090   7.536   7.582  2.3633  0.1053 -0.7688
15040SOL    HW255435  -0.023   7.458   7.518 -0.0949  1.0536  2.2150
15041SOL     OW55436   7.087   5.728   7.991 -0.3576  0.2656  0.7295
15041SOL    HW155437   7.141   5.656   7.961  0.4218  0.1947  2.1948
15041SOL    HW255438   7.001   5.713   7.952  0.3494 -0.2974 -0.6416
15042SOL     OW55439   2.289   1.442  10.231 -0.4503  0.1394  1.0866
15042SOL    HW155440   2.371   1.435  10.279 -0.8120 -0.7491  1.5844
15042SOL    HW255441   2.236   1.502  10.283  0.0784  1.1773  0.4638
15043SOL     OW55442   0.674  12.720  10.169  0.1936  0.4996  0.4032
15043SOL    HW155443   0.600  12.748  10.223 -1.1170 -1.3370 -0.3345
15043SOL    HW255444   0.734  12.678  10.231 -0.7325 -0.5226  0.6369
15044SOL     OW55445   2.665   8.889   0.076  0.0282 -0.1629  0.4410
15044SOL    HW155446   2.733   8.827   0.103  0.9043  0.4966 -0.1988
15044SOL    HW255447   2.672   8.893  -0.019  0.4492  1.4174  0.5051
15045SOL     OW55448  10.494  10.729   8.847  0.6006  0.1281  0.2990
15045SOL    HW155449  10.563  10.750   8.911  1.2522 -0.9497 -0.0368
15045SOL    HW255450  10.428  10.797   8.861  1.9976  1.5728  0.2091
15046SOL     OW55451   3.182  11.198   6.642  0.2959  0.4773  0.0001
15046SOL    HW155452   3.136  11.270   6.600 -0.1403 -0.7362 -1.7305
15046SOL    HW255453   3.113  11.139   6.673  0.6551  0.1017  0.1026
15047SOL     OW55454   5.002   0.407   8.329 -0.0569  0.3282 -0.2512
15047SOL    HW155455   4.926   0.363   8.365 -0.9335  1.2127 -0.9611
15047SOL    HW255456   5.006   0.378   8.237  0.5506  0.1749 -0.1814
15048SOL     OW55457   3.084  10.680   4.431 -0.3662 -0.7224  0.0162
15048SOL    HW155458   3.124  10.618   4.493  0.5802  0.6218  0.8032
15048SOL    HW255459   2.999  10.701   4.469 -0.0896 -0.4525  0.4939
15049SOL     OW55460   4.224  11.403   6.184 -0.1789 -0.4530 -0.0267
15049SOL    HW155461   4.308  11.380   6.143  0.6511  1.5096  0.4390
15049SOL    HW255462   4.233  11.374   6.275  0.2681  0.2620  0.1730
15050SOL     OW55463   3.261  11.142   7.289  0.3622  0.5940 -0.2995
15050SOL    HW155464   3.269  11.048   7.306  2.9837  0.2504 -2.7069
15050SOL    HW255465   3.231  11.147   7.198  0.6199  2.1052 -0.3296
15051SOL     OW55466   0.831  10.033   2.905 -0.1305 -0.2712  0.5621
15051SOL    HW155467   0.752  10.039   2.851  0.1572  1.2048  0.2619
15051SOL    HW255468   0.874   9.953   2.875 -0.2228  0.2480 -1.0797
15052SOL     OW55469   7.049  11.720   7.769 -0.0571  0.6389 -0.1193
15052SOL    HW155470   7.118  11.785   7.752  0.5401 -0.1947 -1.0316
15052SOL    HW255471   7.096  11.644   7.804 -0.6390  0.4040  0.1623
15053SOL     OW55472   7.604   0.740  11.302  0.0589 -0.6606  0.0117
15053SOL    HW155473   7.578   0.679  11.232  1.6493 -1.5921  0.1907
15053SOL    HW255474   7.525   0.791  11.320 -1.3225 -2.6586 -0.1641
15054SOL     OW55475  10.770   7.114   6.852  0.4651 -0.0987  0.1891
15054SOL    HW155476  10.727   7.048   6.906 -1.1905  1.2726  0.6475
15054SOL    HW255477  10.736   7.100   6.764 -0.3676  0.4742  0.4008
15055SOL     OW55478   8.309   7.903   6.395  0.7478 -0.4024 -0.2970
15055SOL    HW155479   8.400   7.876   6.385  0.9321 -0.1796  0.6022
15055SOL    HW255480   8.276   7.848   6.467  0.6219  0.5358  0.3801
15056SOL     OW55481   4.878   7.184  12.381  0.5320  0.4671 -0.0238
15056SOL    HW155482   4.908   7.175  12.291 -1.7296  1.2275 -0.9159
15056SOL    HW255483   4.855   7.277  12.390 -1.9939 -0.1419  0.3836
15057SOL     OW55484   1.380   1.528   8.193 -0.1900  0.3513 -0.3412
15057SOL    HW155485   1.475   1.519   8.187 -0.2837 -1.2445  0.0121
15057SOL    HW255486   1.353   1.560   8.107  0.6847  1.1683 -0.3263
15058SOL     OW55487   5.828   8.843   9.430  0.3044 -0.5219  0.2601
15058SOL    HW155488   5.889   8.917   9.424 -1.3765  0.9613  0.6684
15058SOL    HW255489   5.744   8.879   9.404 -0.4825 -2.4535 -0.0359
15059SOL     OW55490   4.700   8.275  11.411  0.8523  0.6600 -0.2312
15059SOL    HW155491   4.648   8.216  11.465  0.6091  0.7545 -0.3602
15059SOL    HW255492   4.636   8.322  11.357  1.1511 -0.1720 -1.3451
15060SOL     OW55493   2.202   4.785   0.386  0.4348  0.7261 -0.6602
15060SOL    HW155494   2.147   4.711   0.410 -0.5512  1.6270 -0.0473
15060SOL    HW255495   2.246   4.809   0.467  0.9035  0.6882 -0.9020
15061SOL     OW55496   0.889   3.496   9.866  0.3702 -0.6771 -0.1648
15061SOL    HW155497   0.844   3.471   9.785  0.6127 -1.0075 -0.1988
15061SOL    HW255498   0.861   3.586   9.882  0.9532 -0.3178 -1.0624
15062SOL     OW55499  10.269   4.747   9.827  0.1078 -0.4829 -0.0054
15062SOL    HW155500  10.240   4.740   9.918 -0.0633 -2.0497 -0.1571
15062SOL    HW255501  10.320   4.668   9.812  0.0507 -0.2973 -1.3163
15063SOL     OW55502   6.114   8.068   9.885 -0.1608  0.1379  0.0259
15063SOL    HW155503   6.052   8.128   9.926 -0.5591 -0.2987  0.0740
15063SOL    HW255504   6.112   7.989   9.939 -0.6208 -0.4086 -0.7544
15064SOL     OW55505   6.919   1.771   1.553  0.4379 -0.1070 -0.3122
15064SOL    HW155506   6.935   1.677   1.550  0.0624 -0.2116  0.4634
15064SOL    HW255507   6.831   1.779   1.591  0.2495  0.5434 -0.8539
15065SOL     OW55508   3.204   2.094   3.274  0.0826 -0.0493  0.5357
15065SOL    HW155509   3.207   2.170   3.215 -0.9823 -0.0655  0.4419
15065SOL    HW255510   3.115   2.059   3.264  0.6667 -1.5548  0.2803
15066SOL     OW55511   8.338   4.909   6.562 -0.3900 -0.4456  0.0080
15066SOL    HW155512   8.407   4.975   6.558 -1.4454  0.6433 -1.4497
15066SOL    HW255513   8.314   4.904   6.654  1.8932 -1.1911  0.6365
15067SOL     OW55514   4.226   0.794   2.114  0.4178 -0.2311  0.0540
15067SOL    HW155515   4.266   0.788   2.027 -2.8360 -0.4565 -1.5676
15067SOL    HW255516   4.210   0.703   2.140 -0.3504 -0.1131  0.0094
15068SOL     OW55517   2.081   4.856   7.363 -0.6161 -0.3710 -0.4428
15068SOL    HW155518   2.106   4.854   7.271  0.6331 -3.6477 -0.1578
15068SOL    HW255519   2.000   4.805   7.367 -1.5532  1.1001  0.1078
15069SOL     OW55520  10.774   9.794  10.504  0.1713 -0.4555  0.8373
15069SOL    HW155521  10.718   9.716  10.510 -0.6271  0.2175  2.8404
15069SOL    HW255522  10.791   9.818  10.595  2.8187  0.0577  0.2874
15070SOL     OW55523   2.188   0.690   8.445 -0.7229 -0.9412  0.5921
15070SOL    HW155524   2.131   0.764   8.466 -2.3826 -2.0789  0.2854
15070SOL    HW255525   2.128   0.621   8.416  0.7584 -2.4583  0.9883
15071SOL     OW55526   9.011   8.227   0.952  0.2237  0.1220  0.5036
15071SOL    HW155527   8.993   8.226   0.858  0.2803  1.2424  0.4632
15071SOL    HW255528   9.106   8.237   0.958  0.1550  0.7714  0.6588
15072SOL     OW55529   0.021   8.273   6.227  0.3528  0.1057  0.4345
15072SOL    HW155530  -0.043   8.209   6.196 -1.0270  1.6765 -0.1317
15072SOL    HW255531   0.082   8.284   6.154  0.4603 -0.3745  0.4478
15073SOL     OW55532  10.326   4.101   1.867 -0.4203  0.2081 -1.1061
15073SOL    HW155533  10.394   4.146   1.817 -1.2384  1.6608 -0.9633
15073SOL    HW255534  10.355   4.108   1.958 -0.7029  0.7949 -1.0494
15074SOL     OW55535  12.664   6.576  11.596  0.3208 -0.5701 -0.4061
15074SOL    HW155536  12.614   6.528  11.530 -0.8520 -0.9291  0.7209
15074SOL    HW255537  12.599   6.627  11.644  1.0980 -0.6620  0.7753
15075SOL     OW55538   2.094   2.468   7.786 -0.1409  0.1665 -0.1381
15075SOL    HW155539   2.059   2.548   7.747 -1.4251 -0.3593 -0.1189
15075SOL    HW255540   2.115   2.412   7.712  1.4568  0.7691 -0.1802
15076SOL     OW55541   2.577   0.572  11.626 -0.2376 -0.0377 -0.2803
15076SOL    HW155542   2.623   0.628  11.563 -0.0031  1.3354  1.0341
15076SOL    HW255543   2.569   0.488  11.583  4.5623 -0.7789 -0.2207
15077SOL     OW55544   3.018  11.477   7.808  0.2938 -0.1187 -0.1430
15077SOL    HW155545   3.067  11.490   7.727 -0.7529 -1.0134 -0.9495
15077SOL    HW255546   3.085  11.480   7.877  0.9225  2.9127 -0.7644
15078SOL     OW55547   8.442   5.375   2.987 -0.2562 -0.2046  0.2445
15078SOL    HW155548   8.363   5.372   3.041 -0.6103 -0.2650 -0.2708
15078SOL    HW255549   8.499   5.307   3.025 -1.1178 -1.3158 -0.3934
15079SOL     OW55550  11.496   6.398   8.467  0.1644  0.3883 -0.1007
15079SOL    HW155551  11.556   6.323   8.472  0.4659  0.6635  0.8014
15079SOL    HW255552  11.554   6.474   8.459  0.0104  0.7214  1.4666
15080SOL     OW55553   7.738   6.463   3.761  0.5088  0.1862  0.4804
15080SOL    HW155554   7.648   6.445   3.735  0.1344 -0.4633  2.1091
15080SOL    HW255555   7.781   6.377   3.757  1.0481  0.4781 -0.2076
15081SOL     OW55556   7.102  10.442   7.689 -0.7808  0.1023  0.1217
15081SOL    HW155557   7.039  10.513   7.688  0.6950  1.4761 -1.1679
15081SOL    HW255558   7.132  10.436   7.598  1.4062 -0.0372  0.8017
15082SOL     OW55559   2.324   1.315   7.528 -0.0833  0.1587  0.3300
15082SOL    HW155560   2.230   1.321   7.547  0.3705  0.0084  3.1426
15082SOL    HW255561   2.352   1.407   7.520 -0.1188  0.3420  1.9074
15083SOL     OW55562   6.394  12.483  12.683 -0.0240  0.0075 -0.3196
15083SOL    HW155563   6.442  12.483  12.601  2.1544 -0.6678  0.8624
15083SOL    HW255564   6.460  12.460  12.749 -2.0719 -1.4263  1.3798
15084SOL     OW55565  12.917   9.106   7.504 -0.2948 -0.0623  0.9462
15084SOL    HW155566  12.991   9.165   7.491  0.8118 -1.6385 -0.3674
15084SOL    HW255567  12.936   9.063   7.588 -0.0766  0.0173  0.9392
15085SOL     OW55568  12.732  11.024   9.464  0.4334  0.6231  0.1572
15085SOL    HW155569  12.779  10.988   9.388  0.7033  2.0472 -0.3749
15085SOL    HW255570  12.648  11.052   9.427  0.1950  0.4594  0.5790
15086SOL     OW55571   7.562   9.885  12.051 -0.1121 -0.2444  0.5241
15086SOL    HW155572   7.584   9.923  11.965  0.5513 -3.5257 -0.9128
15086SOL    HW255573   7.471   9.856  12.041 -0.0236 -0.6567  0.9205
15087SOL     OW55574   9.194  10.298   9.515  0.0301 -0.1931  0.0720
15087SOL    HW155575   9.159  10.355   9.583 -1.3717 -0.3252 -0.5116
15087SOL    HW255576   9.225  10.220   9.562  1.0426  0.6106  0.7610
15088SOL     OW55577   0.931   9.372  11.306 -0.1565 -0.1476  0.0389
15088SOL    HW155578   0.895   9.430  11.374  1.5966 -2.0593  2.8419
15088SOL    HW255579   0.869   9.300  11.301 -0.0615 -0.2226 -0.0486
15089SOL     OW55580   5.315   6.899   7.848 -0.3866 -0.4155 -0.1069
15089SOL    HW155581   5.398   6.906   7.802 -0.1251 -0.2766  0.3835
15089SOL    HW255582   5.328   6.946   7.930 -0.7413 -0.9392  0.2584
15090SOL     OW55583   2.325   0.358   4.286  0.2498 -0.5627 -0.1308
15090SOL    HW155584   2.352   0.440   4.244 -1.1488  0.3465  0.6594
15090SOL    HW255585   2.353   0.368   4.377 -1.1531 -0.3224  0.2998
15091SOL     OW55586   2.089   2.224   0.488  0.0480  0.2335 -0.5670
15091SOL    HW155587   2.011   2.220   0.543 -0.0243 -0.0677 -0.6846
15091SOL    HW255588   2.128   2.137   0.497  0.6891  0.5644 -0.0519
15092SOL     OW55589   8.839   0.234   7.765  0.0081 -0.1925 -0.1295
15092SOL    HW155590   8.877   0.318   7.791  1.7007 -1.0214  0.2125
15092SOL    HW255591   8.909   0.190   7.717 -1.5087 -0.6182 -2.0680
15093SOL     OW55592  12.184   9.128   9.543 -0.1736  0.2076  0.2583
15093SOL    HW155593  12.272   9.128   9.579 -0.4467 -0.8237  0.9690
15093SOL    HW255594  12.187   9.067   9.469 -0.2523  0.3103  0.1689
15094SOL     OW55595   6.829   6.615   7.768  0.1870  0.6703  0.0817
15094SOL    HW155596   6.819   6.702   7.728 -2.7933  1.8134  2.8500
15094SOL    HW255597   6.754   6.565   7.736  0.6690 -0.1605  0.2254
15095SOL     OW55598  10.099   7.523  10.752  0.7511 -0.1142  0.3631
15095SOL    HW155599  10.110   7.605  10.800  2.8218  0.0011 -0.1963
15095SOL    HW255600  10.144   7.538  10.669 -1.3913 -0.8343 -1.0073
15096SOL     OW55601   2.567   8.621   2.137  0.7992  0.0762  0.0216
15096SOL    HW155602   2.584   8.686   2.069  0.0751 -0.0799 -0.3275
15096SOL    HW255603   2.650   8.575   2.149  1.2817  0.9777  0.1827
15097SOL     OW55604   0.142   3.995  12.829  0.4183  0.1727 -0.3736
15097SOL    HW155605   0.097   4.080  12.831  0.3069  0.2448 -2.6794
15097SOL    HW255606   0.072   3.930  12.825  0.5084  0.0770 -0.4008
15098SOL     OW55607   5.512   3.168   0.839  0.0324  0.4140  0.7585
15098SOL    HW155608   5.431   3.216   0.853  0.6624  1.6919  0.1852
15098SOL    HW255609   5.535   3.134   0.926 -1.8872 -1.3147  0.6563
15099SOL     OW55610   3.716   6.640   5.971 -0.6074  0.1739  0.0334
15099SOL    HW155611   3.809   6.616   5.978  0.1366  2.3009 -1.3465
15099SOL    HW255612   3.669   6.557   5.973  1.2134 -0.9085  1.9142
15100SOL     OW55613   9.975   5.178  10.922 -0.4037 -0.3016 -0.0977
15100SOL    HW155614  10.068   5.155  10.922 -0.4275 -0.4076 -0.8600
15100SOL    HW255615   9.974   5.274  10.918 -0.3252 -0.2749  0.4774
15101SOL     OW55616   3.487   0.007   0.185  0.6675  1.2696 -0.7732
15101SOL    HW155617   3.418  -0.054   0.212  1.9028  0.7956  1.5078
15101SOL    HW255618   3.503   0.061   0.262  2.3818  1.8473 -1.4906
15102SOL     OW55619   3.711   2.129   7.703 -0.1397 -0.2589  0.1281
15102SOL    HW155620   3.723   2.042   7.664  0.8367  0.0891 -0.3735
15102SOL    HW255621   3.638   2.117   7.764 -0.4741 -1.2617 -0.4330
15103SOL     OW55622   6.901  10.874   4.789 -0.1383  0.1438 -0.3516
15103SOL    HW155623   6.863  10.815   4.724 -2.3621 -0.2263  1.1752
15103SOL    HW255624   6.898  10.825   4.871 -2.8510  2.5182  1.1713
15104SOL     OW55625   1.030   2.477   6.695  0.4695 -0.1313  0.0738
15104SOL    HW155626   1.114   2.476   6.742  0.1315  0.9336  0.7498
15104SOL    HW255627   0.983   2.550   6.734 -0.0688  0.4258 -1.5598
15105SOL     OW55628   2.448   9.502   2.197 -0.0972 -0.1419 -0.3125
15105SOL    HW155629   2.478   9.546   2.277 -0.0218 -1.6948  0.5598
15105SOL    HW255630   2.382   9.561   2.160  1.2602  1.5115 -0.1695
15106SOL     OW55631  10.747   8.154  12.170 -0.5751 -0.2477 -0.6958
15106SOL    HW155632  10.659   8.149  12.206 -0.5037 -1.7070 -0.6712
15106SOL    HW255633  10.757   8.073  12.120  1.7206 -1.4956  1.5731
15107SOL     OW55634   5.229   6.371   6.125 -0.1250 -0.1555  0.2440
15107SOL    HW155635   5.141   6.403   6.145 -0.0623  0.2816 -0.1580
15107SOL    HW255636   5.270   6.442   6.076 -0.1517 -1.0410 -1.1140
15108SOL     OW55637   0.772  11.429   8.115 -0.7643  0.4427  0.4978
15108SOL    HW155638   0.800  11.490   8.047  0.7519 -0.0905  0.6133
15108SOL    HW255639   0.677  11.444   8.123 -0.8420  1.0500 -1.1770
15109SOL     OW55640   5.571  11.892   9.710 -0.0717 -0.2258 -0.0795
15109SOL    HW155641   5.513  11.841   9.767  0.3816 -0.1291  0.4729
15109SOL    HW255642   5.618  11.950   9.769 -1.4329  1.7069 -0.8117
15110SOL     OW55643  11.796   4.799   2.367  0.2054 -0.6935 -0.3847
15110SOL    HW155644  11.820   4.783   2.459  1.8157  1.1598 -0.4138
15110SOL    HW255645  11.843   4.732   2.318  2.5475  0.6776 -0.1256
15111SOL     OW55646   5.255   0.760   9.775 -0.0999  0.3821 -0.0964
15111SOL    HW155647   5.268   0.744   9.868 -2.4622 -0.2239  0.2082
15111SOL    HW255648   5.291   0.683   9.732  0.5563  0.4325  0.3485
15112SOL     OW55649  10.187   7.704   7.770 -0.0827 -0.0482 -0.1224
15112SOL    HW155650  10.103   7.658   7.779 -0.6778  0.6356 -1.8634
15112SOL    HW255651  10.168   7.778   7.712  1.6251  0.3879 -0.1638
15113SOL     OW55652   6.303   9.775   6.424 -0.0714  0.0455 -0.2480
15113SOL    HW155653   6.353   9.720   6.364 -0.4633  0.1116 -0.6453
15113SOL    HW255654   6.212   9.764   6.396 -0.6140 -1.9910  1.9630
15114SOL     OW55655   2.268   5.268   6.732 -0.6169  0.0297 -0.0218
15114SOL    HW155656   2.309   5.314   6.658  0.3792  0.9638  1.0528
15114SOL    HW255657   2.217   5.336   6.776  0.2544 -0.0446  1.1557
15115SOL     OW55658  12.620   6.696  10.949 -0.3331  0.2133 -0.3171
15115SOL    HW155659  12.679   6.770  10.958 -0.9088  0.6604 -0.2051
15115SOL    HW255660  12.578   6.709  10.863  0.0929 -0.3713 -0.6261
15116SOL     OW55661  12.009   0.669   2.120  0.0458  0.0145  0.2133
15116SOL    HW155662  12.064   0.701   2.192  1.7147 -1.0055 -0.5518
15116SOL    HW255663  11.980   0.583   2.149 -0.9849  0.4493  0.5080
15117SOL     OW55664   5.033   8.479   7.190  0.0464 -0.0728  0.0671
15117SOL    HW155665   5.041   8.472   7.095 -1.1236 -2.5029  0.0698
15117SOL    HW255666   5.123   8.479   7.222  0.5229  2.2637 -1.0374
15118SOL     OW55667   8.179   8.685   2.208 -0.7793 -0.0052  0.9324
15118SOL    HW155668   8.181   8.705   2.302  1.9758  1.1303  0.7495
15118SOL    HW255669   8.229   8.604   2.201 -0.2059  0.3875  0.3922
15119SOL     OW55670   1.001   2.966   7.019 -0.5031  0.0887  0.3121
15119SOL    HW155671   0.990   2.886   7.070  0.2444 -0.9904 -1.1421
15119SOL    HW255672   1.075   3.011   7.059 -1.4996  0.5489  1.7038
15120SOL     OW55673   2.140   0.440   7.473 -0.2770  0.1122 -0.2676
15120SOL    HW155674   2.080   0.384   7.523 -0.1897  0.9245  0.7763
15120SOL    HW255675   2.227   0.409   7.498 -0.2320 -0.7809 -1.4533
15121SOL     OW55676   8.418   2.498   6.076 -0.4952 -0.5157  0.6592
15121SOL    HW155677   8.508   2.492   6.043 -1.0664 -1.6076 -0.8219
15121SOL    HW255678   8.423   2.461   6.165  0.9969  2.0730  1.7690
15122SOL     OW55679   8.130   1.452   6.768 -0.2608  0.3628 -0.4833
15122SOL    HW155680   8.198   1.458   6.835  0.1056 -1.2629 -0.6526
15122SOL    HW255681   8.176   1.420   6.690 -0.9984  0.4611 -0.9711
15123SOL     OW55682  11.639   3.005   8.113  0.4517 -0.5802 -0.5743
15123SOL    HW155683  11.640   2.913   8.088 -0.3335 -0.7621 -0.0056
15123SOL    HW255684  11.626   3.004   8.208  1.2735  0.1107 -0.4370
15124SOL     OW55685   0.653  11.410   2.029  0.2098 -0.4531  0.3443
15124SOL    HW155686   0.651  11.367   2.114  0.4628  0.2714  0.7216
15124SOL    HW255687   0.742  11.444   2.021 -0.2246  0.7498  0.4321
15125SOL     OW55688   0.409   5.483   4.215  0.0649 -0.4806  0.1156
15125SOL    HW155689   0.344   5.476   4.285 -0.4904 -0.8489 -0.4252
15125SOL    HW255690   0.470   5.410   4.231 -0.2220 -0.7343  0.0556
15126SOL     OW55691   0.831  12.014   7.459 -0.3154  0.0102 -0.0418
15126SOL    HW155692   0.817  11.954   7.532  0.1066  1.6903  1.4717
15126SOL    HW255693   0.924  12.004   7.437  0.0911  0.9926  1.0892
15127SOL     OW55694   7.360   6.332   5.898  0.1994 -0.0996  0.0617
15127SOL    HW155695   7.382   6.413   5.852  0.3866  0.5660  1.2685
15127SOL    HW255696   7.443   6.301   5.934  0.3436 -1.5308 -1.4346
15128SOL     OW55697  12.495  11.797   3.776  0.7377  0.1302 -0.0168
15128SOL    HW155698  12.546  11.771   3.700  1.1659  0.1869  0.2478
15128SOL    HW255699  12.417  11.742   3.773  0.9808 -0.2064 -0.2292
15129SOL     OW55700   0.223   6.724   2.269  0.1646 -1.1376 -0.0731
15129SOL    HW155701   0.212   6.645   2.322 -0.4302 -0.3632  0.9903
15129SOL    HW255702   0.167   6.789   2.311 -1.0836 -0.7229 -2.1813
15130SOL     OW55703   1.591   4.651   0.681 -0.3964  0.0681 -0.4378
15130SOL    HW155704   1.581   4.658   0.586  5.1597 -0.3652 -1.3830
15130SOL    HW255705   1.557   4.564   0.702 -0.4306 -0.3990 -2.2735
15131SOL     OW55706   2.746   2.198  11.136  0.0363  0.0811  0.8159
15131SOL    HW155707   2.797   2.270  11.099 -0.0685 -0.1972  0.1060
15131SOL    HW255708   2.726   2.225  11.225 -0.2584  1.0609  0.4546
15132SOL     OW55709   4.119  10.566   6.404 -0.0128 -0.5253  0.1714
15132SOL    HW155710   4.089  10.537   6.490  0.3655 -1.1559  0.0959
15132SOL    HW255711   4.202  10.610   6.421 -0.2222 -0.1260  0.1911
15133SOL     OW55712   9.860   1.256   6.514  0.1377 -0.2723  0.3740
15133SOL    HW155713   9.808   1.310   6.573 -2.4949  1.2956 -3.0187
15133SOL    HW255714   9.804   1.182   6.491  0.8299 -0.5174 -0.6351
15134SOL     OW55715   3.422  12.655   7.905  0.2637  0.3292  0.1640
15134SOL    HW155716   3.487  12.707   7.858 -0.8637  1.6473  0.0033
15134SOL    HW255717   3.414  12.698   7.990  0.5693 -0.6277  0.6847
15135SOL     OW55718  11.119   5.225   6.929  0.2523 -0.2463  0.4134
15135SOL    HW155719  11.101   5.227   6.835  0.2440  0.5042  0.4224
15135SOL    HW255720  11.125   5.132   6.951 -0.5405 -0.4497 -0.1763
15136SOL     OW55721   5.034   5.026   2.252  0.9145 -0.3528  0.2116
15136SOL    HW155722   5.089   5.035   2.174  1.2438  0.0260  0.4877
15136SOL    HW255723   5.060   4.943   2.291 -1.7121 -2.4333 -2.0104
15137SOL     OW55724  12.056   3.074  12.566 -0.0567 -0.5630 -0.3568
15137SOL    HW155725  12.143   3.044  12.592  0.3651 -0.3436 -1.4742
15137SOL    HW255726  12.017   3.106  12.647  1.3584  0.4349 -0.0278
15138SOL     OW55727   8.424  10.798   9.531 -0.0419  0.1064 -0.2335
15138SOL    HW155728   8.339  10.839   9.515 -0.8829 -2.0535 -1.7668
15138SOL    HW255729   8.418  10.712   9.490  1.5735 -1.6701  2.8332
15139SOL     OW55730   7.737   5.417   3.643  0.5887 -0.1178  0.3225
15139SOL    HW155731   7.724   5.499   3.691 -1.0522  1.9510 -3.2305
15139SOL    HW255732   7.831   5.404   3.643  0.9208  1.9532  0.7582
15140SOL     OW55733   4.280   2.222   8.043  0.6918 -0.5208  0.2344
15140SOL    HW155734   4.323   2.307   8.053 -2.0698  1.4849 -2.9949
15140SOL    HW255735   4.200   2.229   8.095  1.1661 -1.8333  1.2079
15141SOL     OW55736   6.258   4.464   2.283 -0.4583  0.0118  0.0169
15141SOL    HW155737   6.226   4.542   2.237 -2.0415  0.3694  1.6178
15141SOL    HW255738   6.348   4.486   2.307 -0.7585  1.2027  0.1058
15142SOL     OW55739   5.419   0.130   3.431  0.2590  0.6851 -0.0209
15142SOL    HW155740   5.378   0.209   3.466  0.1759  1.6023 -2.0270
15142SOL    HW255741   5.509   0.156   3.412  1.1278 -0.5983  2.0094
15143SOL     OW55742  12.462   3.603   5.564  0.3628 -0.2973 -0.2689
15143SOL    HW155743  12.448   3.696   5.546 -0.5441 -0.0669  1.3497
15143SOL    HW255744  12.374   3.566   5.569  0.6965 -1.1409 -0.4247
15144SOL     OW55745  11.447   4.790   9.511 -0.5826  0.1728  0.2176
15144SOL    HW155746  11.458   4.878   9.475 -1.1646  0.1881  0.0739
15144SOL    HW255747  11.537   4.757   9.521 -0.3587 -0.7398 -3.4222
15145SOL     OW55748   5.708   0.551   2.257  0.1492  0.3125  0.2123
15145SOL    HW155749   5.692   0.476   2.200  0.1386  0.6195 -0.1996
15145SOL    HW255750   5.620   0.582   2.281  0.1446  0.6038 -0.1734
15146SOL     OW55751   4.166   4.757   4.903  0.7377  0.0611  0.2637
15146SOL    HW155752   4.260   4.747   4.911  0.8424 -0.8806 -1.6397
15146SOL    HW255753   4.129   4.681   4.949  0.8660  0.7607  1.5436
15147SOL     OW55754  12.179   0.349   6.220  0.5005 -0.0295 -1.0304
15147SOL    HW155755  12.253   0.331   6.162  0.8244  0.6760 -0.8466
15147SOL    HW255756  12.141   0.430   6.187 -0.0650 -0.2705 -0.9908
15148SOL     OW55757   5.317  10.171  12.518 -0.1037  0.6229  0.7477
15148SOL    HW155758   5.366  10.092  12.497  0.8997  1.3022  0.4547
15148SOL    HW255759   5.231  10.139  12.545  0.1209 -0.5320  0.1707
15149SOL     OW55760   2.780   9.182   7.452 -0.7833  0.4813  0.1612
15149SOL    HW155761   2.726   9.160   7.376  0.5101 -0.2469 -0.5923
15149SOL    HW255762   2.829   9.260   7.426  0.2296 -0.2075 -0.0824
15150SOL     OW55763   5.561   5.765   7.612 -0.1905 -0.3358  0.7186
15150SOL    HW155764   5.552   5.745   7.705 -0.5290 -0.6325  0.6262
15150SOL    HW255765   5.520   5.851   7.601  0.6784  0.1287  1.0019
15151SOL     OW55766   7.314   1.007   8.010  0.3061  0.8116  0.6619
15151SOL    HW155767   7.354   0.923   8.033 -0.4672  0.2601  0.0047
15151SOL    HW255768   7.223   0.999   8.036 -0.9722 -0.2942 -3.4459
15152SOL     OW55769  10.746   6.637   2.678  0.6557  0.0033 -0.1248
15152SOL    HW155770  10.681   6.702   2.704 -0.0918 -0.2632 -1.2603
15152SOL    HW255771  10.701   6.583   2.612  1.0708 -1.9620  1.0951
15153SOL     OW55772  12.125  10.533   4.255  0.0232 -0.0456  0.3179
15153SOL    HW155773  12.128  10.625   4.228  1.1354  0.1256  0.9745
15153SOL    HW255774  12.187  10.527   4.328  2.3802 -1.9506 -1.6789
15154SOL     OW55775   8.222   8.771  10.407  0.5253 -0.3920 -0.2076
15154SOL    HW155776   8.314   8.763  10.381  0.6670 -0.0580  0.1889
15154SOL    HW255777   8.175   8.782  10.324  0.9045  0.0060 -0.3720
15155SOL     OW55778  11.981   4.999   4.653  0.2621  0.2021 -0.1922
15155SOL    HW155779  11.966   5.060   4.580 -0.5031  0.8308  0.4741
15155SOL    HW255780  12.046   4.937   4.619 -0.0485  0.5051 -1.3949
15156SOL     OW55781   3.531   1.911   6.926  0.3447  0.2865  0.0323
15156SOL    HW155782   3.615   1.868   6.918 -0.3184 -1.0241 -0.1151
15156SOL    HW255783   3.485   1.863   6.994 -0.3976  0.7927 -0.0900
15157SOL     OW55784   6.825   0.585  11.037  0.0516 -0.1109  0.2549
15157SOL    HW155785   6.866   0.672  11.036  2.7401 -1.2479  1.8134
15157SOL    HW255786   6.770   0.586  11.116  0.5106 -0.0077  0.5758
15158SOL     OW55787  11.912   8.676  12.593  0.1714 -0.8363 -0.1534
15158SOL    HW155788  11.859   8.733  12.649 -1.1550 -1.2974 -0.9109
15158SOL    HW255789  11.947   8.610  12.653 -1.7571 -1.7051  0.0906
15159SOL     OW55790   5.980   8.478   3.113 -0.1355  0.6766  0.3472
15159SOL    HW155791   5.951   8.453   3.025  0.9777  1.2060 -0.1985
15159SOL    HW255792   6.068   8.440   3.121 -0.6751 -0.3534  1.6974
15160SOL     OW55793  10.274   2.826  11.809 -0.2119  0.4464 -0.2031
15160SOL    HW155794  10.255   2.782  11.892 -1.0220  1.1667 -0.0028
15160SOL    HW255795  10.326   2.902  11.834 -3.2014  2.5696  0.0831
15161SOL     OW55796   7.313   0.170   2.340 -0.0708 -0.6007 -0.0610
15161SOL    HW155797   7.244   0.106   2.321 -0.4163 -0.2627  0.0262
15161SOL    HW255798   7.281   0.252   2.301  1.1841 -0.8659 -1.7395
15162SOL     OW55799   6.605   5.317  12.489  0.4196  0.2712  0.0787
15162SOL    HW155800   6.517   5.353  12.502 -0.4372 -2.1580  1.5950
15162SOL    HW255801   6.647   5.327  12.574  0.8927 -0.3873 -0.0694
15163SOL     OW55802   2.900  12.112   7.362 -0.1342  0.5051 -0.1243
15163SOL    HW155803   2.989  12.124   7.330 -0.1098  0.0424 -0.2225
15163SOL    HW255804   2.844  12.143   7.291 -0.1718 -2.8841 -1.7456
15164SOL     OW55805   2.208   1.915  10.730  0.5509  0.8541  0.0800
15164SOL    HW155806   2.148   1.841  10.720  1.4382  0.1403 -0.2511
15164SOL    HW255807   2.190   1.950  10.817  1.2785 -0.8735  0.9799
15165SOL     OW55808   8.818  10.966  11.978 -0.2677  0.1502  0.0705
15165SOL    HW155809   8.764  11.039  11.950 -2.1290 -0.8373  0.9366
15165SOL    HW255810   8.770  10.888  11.949  2.1707 -0.8099 -1.7964
15166SOL     OW55811   2.110   3.230   7.547 -0.3190  0.4860  0.2669
15166SOL    HW155812   2.151   3.296   7.602  0.7130 -0.6426  0.9165
15166SOL    HW255813   2.176   3.209   7.481 -0.3918 -0.2924  0.4232
15167SOL     OW55814  12.324  12.423   9.762 -0.2363  0.2952 -0.1853
15167SOL    HW155815  12.272  12.410   9.841  0.7765  0.2838  0.4979
15167SOL    HW255816  12.295  12.507   9.727  0.6649  1.2967  1.3109
15168SOL     OW55817  12.967   2.143   6.121  0.0287  0.3637 -0.3031
15168SOL    HW155818  12.945   2.172   6.033  1.9323  0.6707 -0.7153
15168SOL    HW255819  13.062   2.156   6.128  0.2999 -1.7961  0.9854
15169SOL     OW55820  10.318   1.276   6.269 -0.2860  0.9294  0.3447
15169SOL    HW155821  10.259   1.307   6.338 -1.3036  0.1624 -0.1447
15169SOL    HW255822  10.278   1.306   6.188 -2.0959 -2.5656 -0.2738
15170SOL     OW55823   0.863   0.318   8.501 -0.1335  0.6479  0.0673
15170SOL    HW155824   0.925   0.352   8.565  1.4817 -0.8172 -0.6512
15170SOL    HW255825   0.894   0.352   8.417 -1.1263  0.9998 -0.1759
15171SOL     OW55826  10.128   7.736   7.101  0.1094  0.6905 -0.1311
15171SOL    HW155827  10.114   7.728   7.195  0.2547 -1.5440 -0.2540
15171SOL    HW255828  10.042   7.723   7.062  0.0799  1.4441 -0.3416
15172SOL     OW55829   1.408   6.560   9.433 -0.5999  0.2556  0.2494
15172SOL    HW155830   1.371   6.490   9.379 -0.3672  0.5807 -0.3535
15172SOL    HW255831   1.461   6.515   9.498 -1.1798 -0.1657  0.4436
15173SOL     OW55832   1.424   1.500   8.652 -0.4039 -0.1378  0.1350
15173SOL    HW155833   1.406   1.440   8.724  0.0691 -0.2013  0.2002
15173SOL    HW255834   1.462   1.577   8.694 -0.9006  0.1641  0.0408
15174SOL     OW55835  10.951  12.288   0.065 -0.2049  0.7314 -0.0334
15174SOL    HW155836  10.998  12.371   0.076  0.7715  0.3913 -1.5063
15174SOL    HW255837  11.009  12.233   0.014 -0.5745 -1.1302  1.4336
15175SOL     OW55838  10.783  10.872  11.282  0.3004  0.4746 -0.2747
15175SOL    HW155839  10.841  10.948  11.279  0.7990  0.0893 -0.6937
15175SOL    HW255840  10.716  10.895  11.346  0.7611  1.0404  0.0133
15176SOL     OW55841  11.405   9.110  11.269 -0.3199 -0.5678 -0.5952
15176SOL    HW155842  11.357   9.127  11.188  1.4355  0.6713 -1.4465
15176SOL    HW255843  11.469   9.042  11.245  0.5913  0.2078 -0.4414
15177SOL     OW55844   0.257   2.396   6.320 -0.0922 -0.1784 -0.0643
15177SOL    HW155845   0.249   2.483   6.281 -0.7445 -1.1036 -2.1399
15177SOL    HW255846   0.283   2.413   6.410  0.9407  2.1302 -0.7068
15178SOL     OW55847  11.737   3.088   5.726  0.2057 -0.3329  0.4083
15178SOL    HW155848  11.644   3.107   5.744 -0.3819 -0.3750 -2.2466
15178SOL    HW255849  11.778   3.174   5.721  0.4865 -0.3244  2.1378
15179SOL     OW55850   5.338   0.495   5.135 -0.1323 -0.0678 -0.3840
15179SOL    HW155851   5.414   0.528   5.086  0.1115  3.5990  2.0527
15179SOL    HW255852   5.264   0.545   5.101 -0.3710  0.7195  1.2055
15180SOL     OW55853   1.845  10.758   2.153  0.0695 -0.8272  0.3781
15180SOL    HW155854   1.853  10.669   2.189 -1.1349 -1.7704 -1.5338
15180SOL    HW255855   1.759  10.788   2.183  1.1031  0.3884  2.3348
15181SOL     OW55856   7.766   4.503  11.454  0.4447 -0.0338 -0.6727
15181SOL    HW155857   7.804   4.493  11.367 -0.0532 -1.7958 -0.7280
15181SOL    HW255858   7.673   4.516  11.439  0.5291  0.9779 -0.4208
15182SOL     OW55859   9.154  11.556  10.208 -0.2185  0.5266 -0.1148
15182SOL    HW155860   9.119  11.503  10.280  0.4834 -1.1837 -0.9734
15182SOL    HW255861   9.127  11.510  10.129 -0.1254  1.8329 -0.9268
15183SOL     OW55862  11.627   1.587   5.905 -0.4007  0.3256  0.1600
15183SOL    HW155863  11.617   1.508   5.960 -0.7864 -0.0412 -0.4294
15183SOL    HW255864  11.571   1.652   5.946  1.4562  0.9704  1.8568
15184SOL     OW55865   8.182  10.083  12.601 -0.6435 -0.4946  0.0132
15184SOL    HW155866   8.233  10.124  12.532 -0.0217 -0.4758  0.4798
15184SOL    HW255867   8.145  10.005  12.560 -0.2403 -0.5091 -0.3263
15185SOL     OW55868   1.915  11.975   1.627  0.2403  0.1805 -0.5485
15185SOL    HW155869   1.907  12.068   1.647 -1.0763 -0.4627  2.5772
15185SOL    HW255870   1.826  11.948   1.604  0.9670 -0.0124 -3.5278
15186SOL     OW55871   8.836   0.563  11.481  0.3700 -0.2409 -0.2981
15186SOL    HW155872   8.851   0.637  11.423 -2.4085  0.4332 -0.3110
15186SOL    HW255873   8.770   0.594  11.544  1.4141 -1.7432  1.6705
15187SOL     OW55874  10.608  11.661   4.292  0.1117  0.0830 -0.0135
15187SOL    HW155875  10.612  11.754   4.273 -1.3738  0.1714 -0.0495
15187SOL    HW255876  10.673  11.621   4.234  0.0235  0.9964 -0.7627
15188SOL     OW55877  11.415   1.477  10.643  0.5254 -0.5183 -0.0112
15188SOL    HW155878  11.396   1.570  10.652  0.9814 -0.5477  1.5132
15188SOL    HW255879  11.472   1.472  10.566  0.9384  0.5305  0.2090
15189SOL     OW55880   8.906   5.761   3.987  0.7420  0.1663 -0.0117
15189SOL    HW155881   8.931   5.673   4.015 -1.4469 -0.5231  0.0230
15189SOL    HW255882   8.906   5.757   3.891  2.5291  0.7461 -0.0578
15190SOL     OW55883   8.776   2.629   0.799  0.0307  0.2574 -0.1009
15190SOL    HW155884   8.697   2.678   0.822 -0.4883 -0.4736 -0.2730
15190SOL    HW255885   8.763   2.543   0.840  0.8276  0.1942  0.0291
15191SOL     OW55886   8.565  10.876   4.378 -0.3840  0.4823 -0.0261
15191SOL    HW155887   8.645  10.900   4.425 -0.4319  1.1505 -0.2693
15191SOL    HW255888   8.518  10.820   4.439  0.6328 -0.5790 -0.1876
15192SOL     OW55889  11.988   0.415   3.747 -0.3014  0.0072  0.0687
15192SOL    HW155890  11.944   0.337   3.779  2.4705 -1.3237  0.8808
15192SOL    HW255891  11.979   0.478   3.818 -0.1369 -0.5417  0.5785
15193SOL     OW55892   9.137   8.798  10.474 -0.1587  0.0449 -0.0156
15193SOL    HW155893   9.051   8.838  10.490  0.8221  1.9008  0.9555
15193SOL    HW255894   9.165   8.768  10.560  0.4965  0.1587 -0.1893
15194SOL     OW55895   8.065  11.984   3.703  0.0340 -0.8725 -0.2922
15194SOL    HW155896   8.101  11.944   3.624  1.0170  0.3181 -0.4681
15194SOL    HW255897   8.042  11.910   3.759  1.9427 -1.6994 -0.5410
15195SOL     OW55898   2.818  10.394  10.119  0.0426  0.5436 -0.4657
15195SOL    HW155899   2.840  10.429  10.033 -0.1240  0.9807 -0.3330
15195SOL    HW255900   2.870  10.446  10.180  0.5328 -0.0899 -0.3315
15196SOL     OW55901   2.139   4.645   1.211  0.3755 -0.8058 -0.1764
15196SOL    HW155902   2.159   4.708   1.280  0.2420  0.0077 -0.8564
15196SOL    HW255903   2.168   4.688   1.131 -2.3342 -0.3095 -1.0171
15197SOL     OW55904   2.485   4.610   2.347 -0.2001  0.1812  0.2018
15197SOL    HW155905   2.402   4.607   2.300  0.0291  1.2930 -0.3044
15197SOL    HW255906   2.516   4.520   2.346 -0.2218  0.1546 -1.7527
15198SOL     OW55907   9.412  12.359  11.408  0.6752  0.9170 -0.2294
15198SOL    HW155908   9.388  12.450  11.426  1.1353  1.5556 -2.5823
15198SOL    HW255909   9.437  12.358  11.316  0.7788 -1.5955 -0.2409
15199SOL     OW55910  12.433  10.369   4.742 -0.0579  0.3266 -0.0025
15199SOL    HW155911  12.451  10.294   4.686  0.3140  1.7650 -1.9340
15199SOL    HW255912  12.339  10.385   4.732 -0.1162  0.1937  0.3178
15200SOL     OW55913   1.817   1.894   6.014  0.2676  0.0509  0.0340
15200SOL    HW155914   1.795   1.910   5.923  0.6932  0.2431 -0.0391
15200SOL    HW255915   1.852   1.805   6.016 -0.7794 -0.3741  0.2019
15201SOL     OW55916   7.418  10.407   1.367  0.0590 -0.5100 -0.3705
15201SOL    HW155917   7.419  10.458   1.448  0.5078  2.9993 -2.4212
15201SOL    HW255918   7.326  10.404   1.342  0.3181  3.1637 -2.3382
15202SOL     OW55919   1.821   3.594  12.656 -0.1614 -0.1010  0.5705
15202SOL    HW155920   1.831   3.565  12.566 -0.0739 -0.3640  0.6664
15202SOL    HW255921   1.883   3.542  12.706  0.9445  1.1421  0.5567
15203SOL     OW55922   4.036  11.024   0.372 -0.6601 -0.0123  0.0664
15203SOL    HW155923   3.952  10.995   0.406 -0.0750 -1.7767  0.1024
15203SOL    HW255924   4.088  11.046   0.450 -0.6349 -0.2377  0.1129
15204SOL     OW55925   8.569   9.723   0.267 -0.0448  0.3114  0.1776
15204SOL    HW155926   8.542   9.776   0.191 -0.9468  0.9821  0.9434
15204SOL    HW255927   8.585   9.636   0.230 -0.9273  0.5004 -0.7241
15205SOL     OW55928  11.273   5.890   4.316  0.1604  0.0666 -0.0602
15205SOL    HW155929  11.181   5.863   4.316 -0.0477  0.7621 -0.5760
15205SOL    HW255930  11.280   5.952   4.243  1.6933 -2.2060 -2.0114
15206SOL     OW55931   5.544   8.234   7.374  0.3506  0.6720  0.2427
15206SOL    HW155932   5.632   8.200   7.357  0.7945  0.8814  1.9184
15206SOL    HW255933   5.485   8.173   7.329  1.3008 -0.2099  0.1676
15207SOL     OW55934  10.576  11.368  10.356  0.4329  0.0312 -0.0124
15207SOL    HW155935  10.494  11.383  10.404  0.9730  2.9210  0.1887
15207SOL    HW255936  10.644  11.401  10.414  1.2367  2.3206 -2.0646
15208SOL     OW55937  11.701   4.649   2.057  0.5008 -0.7157 -0.9657
15208SOL    HW155938  11.768   4.618   2.118 -0.6150  0.3256  0.8522
15208SOL    HW255939  11.628   4.589   2.068  0.0067 -0.0727 -0.7146
15209SOL     OW55940  10.232   8.904   8.190 -0.0945  0.1262  0.2670
15209SOL    HW155941  10.162   8.933   8.130 -3.1069 -2.4555  2.1967
15209SOL    HW255942  10.276   8.833   8.142 -0.3209  0.2518 -0.1322
15210SOL     OW55943   1.857   8.168   5.189  0.1318 -0.1934  0.1577
15210SOL    HW155944   1.937   8.218   5.178 -0.5451  0.7405 -0.8414
15210SOL    HW255945   1.793   8.232   5.222 -0.3473 -0.7599  0.3439
15211SOL     OW55946   7.308  12.121   2.374 -0.1304 -0.1247  0.1822
15211SOL    HW155947   7.317  12.211   2.342  1.0360 -0.4916 -0.6113
15211SOL    HW255948   7.342  12.124   2.463  0.4646  0.1190 -0.0430
15212SOL     OW55949   9.449   9.398   2.697  0.4051  0.5514 -0.4455
15212SOL    HW155950   9.477   9.488   2.714 -2.3718  1.2416  1.0184
15212SOL    HW255951   9.378   9.407   2.633  0.7257 -0.7098 -1.0066
15213SOL     OW55952   2.793   7.317  10.590 -0.1175 -0.1113 -0.0378
15213SOL    HW155953   2.883   7.341  10.568  0.0726 -0.7794 -0.0233
15213SOL    HW255954   2.785   7.225  10.562 -0.3559 -0.4965  1.2110
15214SOL     OW55955   6.172   1.139   2.765  0.4311 -0.1013  0.1587
15214SOL    HW155956   6.085   1.107   2.744 -0.3395  2.1802 -0.4019
15214SOL    HW255957   6.214   1.151   2.680  0.6821  0.3642  0.3432
15215SOL     OW55958  11.875   6.003  10.265 -0.7218 -0.0676  0.1603
15215SOL    HW155959  11.790   5.981  10.302 -1.0883 -0.5128 -0.9112
15215SOL    HW255960  11.938   5.960  10.323 -1.1793  0.8909  1.3880
15216SOL     OW55961   6.874   2.816   9.892  0.2337 -0.7284  0.3101
15216SOL    HW155962   6.904   2.880   9.828 -0.5331 -1.7526 -1.1334
15216SOL    HW255963   6.921   2.838   9.973 -1.2202  2.6477  0.3842
15217SOL     OW55964   8.056   2.387   1.703  0.2733 -0.0776 -0.7098
15217SOL    HW155965   8.143   2.426   1.711 -0.5902  1.7247  0.5636
15217SOL    HW255966   8.021   2.421   1.622 -0.7553  2.5683  0.7371
15218SOL     OW55967   4.112   5.806   5.994  0.0275 -0.3271 -0.0042
15218SOL    HW155968   4.161   5.726   5.978 -0.4744 -0.4463 -1.0396
15218SOL    HW255969   4.151   5.870   5.934 -1.9364 -0.7954 -1.9378
15219SOL     OW55970   1.853  10.313   9.278 -0.1086 -0.1479  0.3274
15219SOL    HW155971   1.923  10.254   9.250 -0.1033  0.0544 -0.0848
15219SOL    HW255972   1.845  10.297   9.372  0.4706 -0.1869  0.3736
15220SOL     OW55973   1.883   3.524   1.647  0.3111 -0.0959  0.0424
15220SOL    HW155974   1.802   3.570   1.672  0.1717  0.2051 -0.9036
15220SOL    HW255975   1.853   3.437   1.619  0.3529 -0.0924 -0.0124
15221SOL     OW55976   4.209   4.749   3.085 -0.5776  0.0987 -0.1906
15221SOL    HW155977   4.185   4.718   3.172 -0.2799 -1.4339 -0.6230
15221SOL    HW255978   4.240   4.839   3.099  1.3538 -0.7640  1.5968
15222SOL     OW55979   3.640   4.982  10.736  0.3101 -0.2666  0.4928
15222SOL    HW155980   3.688   4.927  10.673 -1.5949 -0.4981 -0.8409
15222SOL    HW255981   3.606   5.054  10.683 -4.5556 -2.3608  0.1623
15223SOL     OW55982  12.484   6.535   2.447 -0.2211  0.2572 -0.5067
15223SOL    HW155983  12.545   6.608   2.456  0.0304  0.1231 -1.0832
15223SOL    HW255984  12.464   6.532   2.353 -0.3659 -0.3077 -0.4587
15224SOL     OW55985  11.376   6.929  10.693  0.0542  0.1150 -0.7055
15224SOL    HW155986  11.417   6.846  10.669  0.1374 -0.6264  1.7618
15224SOL    HW255987  11.449   6.985  10.720 -0.0726  0.8191 -1.7287
15225SOL     OW55988   3.695   0.504   0.034  0.7160 -0.0310  0.4331
15225SOL    HW155989   3.638   0.561  -0.019 -0.6043 -1.0433  0.7092
15225SOL    HW255990   3.709   0.427  -0.021  1.2972 -0.0675  0.6280
15226SOL     OW55991   1.324   0.627   0.444 -0.3877 -0.3157 -0.1353
15226SOL    HW155992   1.335   0.625   0.349 -2.9545  1.3514 -0.5839
15226SOL    HW255993   1.391   0.688   0.475 -1.1489  1.1666 -1.2666
15227SOL     OW55994   4.351   7.269  11.754  0.5335  0.1559  0.1374
15227SOL    HW155995   4.296   7.299  11.682  0.4118 -1.1696 -0.3461
15227SOL    HW255996   4.410   7.205  11.715  1.0007  0.0049  1.0590
15228SOL     OW55997  12.438   4.272   4.438 -0.2334 -0.5254 -0.1486
15228SOL    HW155998  12.417   4.269   4.345 -3.1449 -2.0129  0.4125
15228SOL    HW255999  12.526   4.235   4.445  0.2773  0.1673 -2.3271
15229SOL     OW56000   2.831   0.942   0.829  0.0653  0.1925 -0.0587
15229SOL    HW156001   2.753   0.997   0.826 -0.0992 -0.0833 -1.5115
15229SOL    HW256002   2.895   0.993   0.879 -0.5702  1.0378 -0.0934
15230SOL     OW56003   1.753   9.688   4.198 -0.4531  0.7931 -0.1405
15230SOL    HW156004   1.720   9.713   4.284 -3.4265 -1.0656 -0.5877
15230SOL    HW256005   1.729   9.762   4.141 -2.6174  0.1480 -0.1448
15231SOL     OW56006   8.649   8.984   9.643  0.2729  0.2439 -0.2280
15231SOL    HW156007   8.643   9.032   9.726 -0.2655 -2.1347  1.1923
15231SOL    HW256008   8.743   8.983   9.622  0.3239  1.5872 -0.1335
15232SOL     OW56009   7.785  12.590   6.416  0.3154  0.4735 -0.0653
15232SOL    HW156010   7.691  12.587   6.431  0.5310 -1.4943  1.2679
15232SOL    HW256011   7.815  12.501   6.436  2.5216  1.2039  0.1102
15233SOL     OW56012  12.476  10.249   3.743 -0.0115 -0.0325 -0.0213
15233SOL    HW156013  12.466  10.328   3.795  0.8208 -0.0681  0.2044
15233SOL    HW256014  12.528  10.276   3.667  1.3032 -0.5943  0.6468
15234SOL     OW56015  11.192   1.287   1.087 -0.0427 -0.1639  0.1239
15234SOL    HW156016  11.146   1.209   1.055 -1.1097  0.7168 -0.5495
15234SOL    HW256017  11.257   1.306   1.020  0.9655 -1.0819  0.8080
15235SOL     OW56018   7.719   6.165   8.358 -0.2530  0.1383  0.2661
15235SOL    HW156019   7.716   6.215   8.439 -2.4924  1.1347 -0.3786
15235SOL    HW256020   7.731   6.074   8.386 -0.4405  0.5253  1.6557
15236SOL     OW56021   5.205   4.348   8.295  0.2206  0.3629  0.0862
15236SOL    HW156022   5.205   4.390   8.209 -0.8139  1.1168  0.4185
15236SOL    HW256023   5.144   4.275   8.286  0.0932  0.4562  0.1735
15237SOL     OW56024   7.740  12.244  10.044  0.1244 -0.2420  0.2661
15237SOL    HW156025   7.800  12.202   9.982 -1.0080  0.0523 -1.0802
15237SOL    HW256026   7.781  12.327  10.065 -0.4708  0.6229 -1.8145
15238SOL     OW56027  11.507  10.322   8.361  0.4612  0.2464  0.3034
15238SOL    HW156028  11.553  10.241   8.383  0.5567  0.7018  1.9473
15238SOL    HW256029  11.454  10.341   8.439 -0.1580  1.3560 -0.3604
15239SOL     OW56030  10.170   7.656   3.576 -0.1892 -0.5476  0.2166
15239SOL    HW156031  10.199   7.579   3.528  0.4299  0.6156 -1.3643
15239SOL    HW256032  10.129   7.621   3.655 -0.6647 -2.5241 -0.8304
15240SOL     OW56033   0.677   5.542   2.427 -0.0112 -0.3146 -0.1024
15240SOL    HW156034   0.596   5.555   2.478 -0.1864 -0.5271 -0.3236
15240SOL    HW256035   0.742   5.596   2.471  0.2151 -1.6292  1.2251
15241SOL     OW56036  12.644  12.960   7.737  0.3914  0.2047 -0.3002
15241SOL    HW156037  12.555  12.926   7.731  0.0434  0.8930  0.6458
15241SOL    HW256038  12.673  12.934   7.825  1.3503 -0.5206 -0.8095
15242SOL     OW56039  12.946   0.688   7.864  0.2779 -0.4941 -0.4132
15242SOL    HW156040  12.951   0.783   7.858  0.6836 -0.4776  0.0919
15242SOL    HW256041  12.884   0.671   7.935  0.4197 -0.6010 -0.3125
15243SOL     OW56042   7.882   3.768   5.432  0.1486  0.3722  0.3646
15243SOL    HW156043   7.892   3.855   5.471  0.0405  0.8739 -0.7118
15243SOL    HW256044   7.788   3.750   5.439  0.0742  0.6176  0.0062
15244SOL     OW56045  11.138  10.848  10.404  0.5556 -0.4378  0.2395
15244SOL    HW156046  11.165  10.940  10.401  0.8400 -0.5030  0.6736
15244SOL    HW256047  11.206  10.802  10.356  0.5656 -0.4521  0.2670
15245SOL     OW56048   4.384   2.937   3.701 -0.2052 -0.2727  0.0907
15245SOL    HW156049   4.328   2.999   3.656  0.9335  0.4359 -0.3964
15245SOL    HW256050   4.435   2.895   3.632  0.0846 -0.6777  0.5395
15246SOL     OW56051   9.143   1.911   3.612  0.1694 -0.6631 -0.1406
15246SOL    HW156052   9.147   1.834   3.669 -1.8396 -0.2865  0.5973
15246SOL    HW256053   9.072   1.891   3.551 -0.0126  0.3679 -0.2758
15247SOL     OW56054   3.880   5.318   5.460 -0.1764  0.4404  0.0437
15247SOL    HW156055   3.862   5.228   5.432 -1.0937  1.2304 -2.2136
15247SOL    HW256056   3.971   5.317   5.488 -0.0674 -1.1258 -0.2846
15248SOL     OW56057  12.341   8.956   3.658  0.1375  0.0536  0.0847
15248SOL    HW156058  12.317   8.943   3.750 -0.0434 -0.1435  0.0106
15248SOL    HW256059  12.418   9.012   3.661 -0.4700  0.9032  0.3249
15249SOL     OW56060  11.028  11.406   8.452  0.9138  0.4363  0.4713
15249SOL    HW156061  11.033  11.478   8.389  0.9882  2.9715  3.1374
15249SOL    HW256062  11.119  11.381   8.467  0.9842  0.6779  0.4572
15250SOL     OW56063   0.276   9.470   3.128 -0.2462  0.4311  0.3939
15250SOL    HW156064   0.182   9.489   3.129 -0.6214 -1.2830  0.7393
15250SOL    HW256065   0.305   9.495   3.040 -1.3358 -0.4087 -0.2230
15251SOL     OW56066   8.423   1.361  10.985 -0.0236  0.8971  0.5257
15251SOL    HW156067   8.495   1.303  10.958  0.8453  0.8470  2.7186
15251SOL    HW256068   8.405   1.415  10.908  2.4690  0.9904 -0.0718
15252SOL     OW56069   8.892  11.895  10.178 -0.6043  0.1387 -0.5891
15252SOL    HW156070   8.818  11.839  10.155  1.5998 -2.6892 -1.3306
15252SOL    HW256071   8.886  11.906  10.273 -1.6138 -0.6086 -0.5559
15253SOL     OW56072   8.817   5.030   6.284  0.2388  0.3008  0.1162
15253SOL    HW156073   8.807   5.020   6.379 -1.4091  0.8653  0.0276
15253SOL    HW256074   8.732   5.062   6.254  0.1094 -1.6858 -1.8224
15254SOL     OW56075  12.896   1.838   5.078 -0.0819 -0.6337  0.1065
15254SOL    HW156076  12.857   1.810   5.161 -0.2143 -0.6407  0.0420
15254SOL    HW256077  12.901   1.758   5.026 -0.3298 -0.5636 -0.0252
15255SOL     OW56078   2.488   8.849  11.016 -0.5992  0.0392  0.3235
15255SOL    HW156079   2.410   8.905  11.019 -0.4056  0.3536  3.3379
15255SOL    HW256080   2.455   8.761  11.035 -0.2948  0.1150  1.2587
15256SOL     OW56081  11.894  11.094   3.271  0.0210  0.5940  0.1457
15256SOL    HW156082  11.976  11.136   3.299  0.7413  0.6979 -1.9541
15256SOL    HW256083  11.834  11.167   3.256  0.3368  0.6959 -0.6676
15257SOL     OW56084  10.199  11.005   5.906  0.5160 -0.4807 -0.0914
15257SOL    HW156085  10.174  10.977   5.818 -0.1761 -1.0054  0.2634
15257SOL    HW256086  10.295  11.002   5.905  0.5220 -0.2447 -0.8996
15258SOL     OW56087   9.333   2.122   8.800  0.0403 -0.4067 -0.0937
15258SOL    HW156088   9.358   2.185   8.731 -0.4457 -0.2960 -0.1764
15258SOL    HW256089   9.237   2.122   8.797  0.0280 -0.6646  0.3515
15259SOL     OW56090   2.999   1.141   5.041  0.3200  0.3526 -0.4751
15259SOL    HW156091   3.042   1.188   5.113  0.9190 -0.0165 -0.5779
15259SOL    HW256092   2.940   1.080   5.085  1.3347 -0.4964 -0.2423
15260SOL     OW56093  11.783   8.545   0.611 -0.4437 -0.1269 -0.2986
15260SOL    HW156094  11.737   8.565   0.529 -1.5574  0.6646  0.4836
15260SOL    HW256095  11.864   8.502   0.583 -1.5264 -1.3364 -1.7545
15261SOL     OW56096   4.571   5.495   0.798  0.0710  0.0169 -0.0862
15261SOL    HW156097   4.588   5.558   0.728  1.8660 -0.0612  0.2165
15261SOL    HW256098   4.547   5.549   0.874  3.0384  0.5841  0.6014
15262SOL     OW56099   3.695  10.677   6.843  0.3075 -0.4412  0.2934
15262SOL    HW156100   3.751  10.737   6.794 -1.0272 -1.1688 -2.3132
15262SOL    HW256101   3.631  10.734   6.886  0.2551  0.1254 -0.5191
15263SOL     OW56102  12.703   0.395   8.896 -0.0438 -0.1859 -0.9074
15263SOL    HW156103  12.738   0.480   8.871  0.4803 -0.3207 -0.6707
15263SOL    HW256104  12.772   0.333   8.871 -0.3264 -0.5144 -0.8823
15264SOL     OW56105  11.365   0.230   2.871 -0.4017  0.1561  0.1057
15264SOL    HW156106  11.382   0.139   2.895 -0.5610 -1.0142 -3.5536
15264SOL    HW256107  11.304   0.262   2.937 -0.5617 -2.4761  1.3407
15265SOL     OW56108   2.316   5.670   1.497 -0.0719  0.0970 -0.6235
15265SOL    HW156109   2.284   5.591   1.454 -0.4968  0.6293 -1.3108
15265SOL    HW256110   2.237   5.716   1.524  0.1654  0.3944 -0.4317
15266SOL     OW56111   1.943   6.589   9.583 -0.0080  0.2124 -0.2203
15266SOL    HW156112   1.904   6.504   9.560  1.3667 -0.2343 -0.9950
15266SOL    HW256113   1.868   6.649   9.585 -0.8214 -0.7230 -1.1095
15267SOL     OW56114  10.703   2.445  10.240  0.2808 -0.6627 -0.2024
15267SOL    HW156115  10.625   2.391  10.254  0.0947 -0.1212  0.9964
15267SOL    HW256116  10.749   2.403  10.168  0.4857 -2.8491  1.1045
15268SOL     OW56117   5.086   6.324   8.098  0.3106  0.5986 -0.0794
15268SOL    HW156118   5.162   6.318   8.040  0.6067  1.3557  0.2163
15268SOL    HW256119   5.123   6.348   8.184 -0.1502 -0.2212  0.3555
15269SOL     OW56120   6.155   8.682   6.058  0.9344  0.3788 -0.1620
15269SOL    HW156121   6.073   8.632   6.055  2.4087 -2.2456  0.1647
15269SOL    HW256122   6.160   8.726   5.973 -0.7890  0.6311 -0.1680
15270SOL     OW56123   9.703   0.044   0.130  0.1117 -0.2914  0.0234
15270SOL    HW156124   9.714   0.137   0.148 -0.8873  0.0261 -0.8416
15270SOL    HW256125   9.652   0.042   0.048 -0.2868 -1.5903  0.2799
15271SOL     OW56126   4.293   9.009   9.810  0.2360  0.3013 -0.5098
15271SOL    HW156127   4.207   8.970   9.796  0.1394  0.3020  0.0412
15271SOL    HW256128   4.298   9.081   9.747 -0.7914  1.2637  0.4501
15272SOL     OW56129   3.201  11.604  11.078  0.4050 -0.2244 -0.2808
15272SOL    HW156130   3.154  11.523  11.063  0.4837 -0.1573 -0.8811
15272SOL    HW256131   3.164  11.638  11.160 -0.5807 -0.1770 -0.7360
15273SOL     OW56132  10.633   1.736   6.927  0.1307  0.7568 -0.5764
15273SOL    HW156133  10.580   1.810   6.958  0.7200  0.2870  1.7527
15273SOL    HW256134  10.722   1.771   6.921  0.0818  0.7496 -1.5030
15274SOL     OW56135   7.969  11.263   2.189  0.2053 -0.3609 -0.6461
15274SOL    HW156136   7.905  11.325   2.223  0.1965 -0.1880 -0.9728
15274SOL    HW256137   8.052  11.309   2.193  0.0979 -0.0692 -1.5284
15275SOL     OW56138   1.569   0.805   8.158 -0.3666  0.6489 -0.0558
15275SOL    HW156139   1.506   0.878   8.161  1.0570  1.9557 -0.7554
15275SOL    HW256140   1.652   0.844   8.185  0.4644 -0.7045 -0.5705
15276SOL     OW56141   1.759   3.270   2.531  0.4875 -0.3807  0.0610
15276SOL    HW156142   1.833   3.217   2.502  1.1199  1.0268 -0.9843
15276SOL    HW256143   1.686   3.240   2.477  0.4683 -1.2275  0.5424
15277SOL     OW56144   0.574   2.958  11.846 -0.8739 -0.0135  0.3516
15277SOL    HW156145   0.647   2.897  11.863 -0.6395  0.3456  0.6417
15277SOL    HW256146   0.563   3.006  11.928  0.1324  1.5932 -0.4038
15278SOL     OW56147  10.584   5.900   9.558  0.3882  0.4988  0.1597
15278SOL    HW156148  10.564   5.811   9.588  0.5531  0.8044  1.2415
15278SOL    HW256149  10.669   5.920   9.598  0.1634  1.2930  0.2649
15279SOL     OW56150   5.416   2.936  10.257 -0.6418 -0.3980  0.0388
15279SOL    HW156151   5.430   3.023  10.219 -2.1683 -0.0460  0.2021
15279SOL    HW256152   5.457   2.941  10.343  0.0784 -0.1435 -0.3154
15280SOL     OW56153   7.912  11.783   8.724  0.0494 -0.3252 -0.7815
15280SOL    HW156154   7.879  11.787   8.814 -0.0971 -1.7641 -0.7434
15280SOL    HW256155   7.877  11.700   8.690  0.9202 -0.2770 -1.8307
15281SOL     OW56156  12.293   5.425   0.804  0.2518 -0.2256 -0.0072
15281SOL    HW156157  12.290   5.362   0.877 -0.9030  0.8150  0.8731
15281SOL    HW256158  12.209   5.471   0.808 -0.0036 -0.4083 -2.2667
15282SOL     OW56159  11.283   5.897   9.019 -0.3839  0.5477 -0.4487
15282SOL    HW156160  11.215   5.841   8.983  1.5058  0.0302 -3.5511
15282SOL    HW256161  11.238   5.979   9.039 -1.9279  0.3220 -2.6527
15283SOL     OW56162   7.207  10.508   8.559  0.0126  0.6488  0.4303
15283SOL    HW156163   7.163  10.450   8.497  0.8820  0.8823 -0.4296
15283SOL    HW256164   7.294  10.469   8.571  0.7614  1.9462 -0.4661
15284SOL     OW56165  11.898  10.365   7.954 -0.1538 -0.2267  0.2743
15284SOL    HW156166  11.950  10.291   7.922  0.2080 -0.0702  0.4892
15284SOL    HW256167  11.932  10.381   8.042 -0.7508 -0.2910  0.5231
15285SOL     OW56168  11.449   3.904   7.336 -0.0543  0.4831 -0.2647
15285SOL    HW156169  11.393   3.835   7.299 -0.5440  0.2274  0.9018
15285SOL    HW256170  11.437   3.979   7.278  0.0320 -0.2375 -1.2199
15286SOL     OW56171   3.060   9.627   0.562 -0.1065  0.5592  0.0909
15286SOL    HW156172   3.034   9.616   0.654  0.2482 -1.7013 -0.0291
15286SOL    HW256173   2.981   9.661   0.519 -1.7237 -2.3901  0.4828
15287SOL     OW56174  10.471   9.836   3.461 -0.3715  0.4096  0.1883
15287SOL    HW156175  10.522   9.755   3.464 -3.2787 -1.5580  0.1318
15287SOL    HW256176  10.459   9.854   3.368 -0.6502  0.2656  0.1950
15288SOL     OW56177   6.937  10.453   2.993 -0.0062  0.4478 -0.1171
15288SOL    HW156178   6.917  10.420   2.905 -2.4680  0.5150  0.3357
15288SOL    HW256179   6.851  10.470   3.032  0.9879 -0.0843  2.5100
15289SOL     OW56180   1.771   7.554   1.633  0.3892  1.1862 -0.3976
15289SOL    HW156181   1.842   7.608   1.598 -0.0067  1.8889 -0.1349
15289SOL    HW256182   1.721   7.613   1.690  1.0720  0.0821  1.4629
15290SOL     OW56183   4.835   7.609   4.978  0.0904 -0.8735 -0.1559
15290SOL    HW156184   4.876   7.619   5.064  0.4369  0.2612 -0.4387
15290SOL    HW256185   4.774   7.536   4.989 -1.0181  0.2271  1.4956
15291SOL     OW56186   1.159   0.974   0.220 -0.1838 -0.2829  0.3074
15291SOL    HW156187   1.208   0.894   0.201  0.6309  0.0754  0.8440
15291SOL    HW256188   1.120   1.000   0.136  1.3374 -0.0493 -0.3559
15292SOL     OW56189   3.489   1.537   0.878  0.2022 -0.3749 -0.4571
15292SOL    HW156190   3.439   1.458   0.899  2.6462 -2.1073 -0.7807
15292SOL    HW256191   3.542   1.513   0.802  1.9566  1.1286  0.2057
15293SOL     OW56192  12.284   4.620   7.320 -0.1070  0.1166  0.0396
15293SOL    HW156193  12.267   4.714   7.305  0.5294  0.1864 -0.2736
15293SOL    HW256194  12.359   4.619   7.380  0.5190 -0.1876 -0.7287
15294SOL     OW56195   2.271  12.057   5.147 -0.1349  0.0798  0.6805
15294SOL    HW156196   2.265  12.149   5.122  0.1679 -0.0090  0.2738
15294SOL    HW256197   2.357  12.029   5.116 -1.2853 -1.0879 -1.7607
15295SOL     OW56198  11.420   9.813   3.733  0.4928 -0.3465 -0.1756
15295SOL    HW156199  11.374   9.889   3.698  1.9076 -0.3335 -2.1810
15295SOL    HW256200  11.512   9.839   3.735  0.9924 -1.9227 -0.7695
15296SOL     OW56201   5.580   9.848   0.393  0.0400  0.1733 -0.5163
15296SOL    HW156202   5.535   9.924   0.430 -1.2294 -0.7639 -0.0919
15296SOL    HW256203   5.665   9.883   0.365 -0.8117  1.9144 -1.0721
15297SOL     OW56204   8.742   4.762   3.802 -0.1532 -0.2528 -0.3491
15297SOL    HW156205   8.834   4.786   3.813 -0.2960  0.2046 -0.1519
15297SOL    HW256206   8.727   4.766   3.707  0.2301 -1.0767 -0.4475
15298SOL     OW56207   3.109  12.274  10.845  0.2766  0.1507 -0.3828
15298SOL    HW156208   3.169  12.309  10.911 -0.4160 -2.4228  1.7533
15298SOL    HW256209   3.032  12.331  10.850  1.3346  1.7488 -1.1554
15299SOL     OW56210   1.875  12.860   5.507  0.1186  0.0689 -0.5166
15299SOL    HW156211   1.787  12.830   5.487  1.1071 -3.2744 -0.4679
15299SOL    HW256212   1.883  12.849   5.602  0.2381  1.5437 -0.3336
15300SOL     OW56213   2.208   0.308   9.415  0.6585 -0.1739 -0.4168
15300SOL    HW156214   2.137   0.292   9.477 -1.3618 -0.5141 -2.6789
15300SOL    HW256215   2.243   0.221   9.395 -2.2766 -0.8563 -3.5943
15301SOL     OW56216   7.634   5.973   9.601 -0.3732  0.1919  1.0419
15301SOL    HW156217   7.721   5.943   9.577 -0.2937  1.2536 -0.0780
15301SOL    HW256218   7.576   5.934   9.535 -0.6316  0.2625  1.2241
15302SOL     OW56219   9.742  11.223   7.980  0.3223 -0.2500 -0.2643
15302SOL    HW156220   9.740  11.131   8.005  0.5893 -0.2585 -0.2799
15302SOL    HW256221   9.649  11.249   7.977  0.2220 -0.6708 -0.8277
15303SOL     OW56222   7.375   9.646   8.146 -0.2148 -0.2780 -0.0881
15303SOL    HW156223   7.282   9.660   8.162 -0.1993 -0.5259  0.2274
15303SOL    HW256224   7.398   9.712   8.081 -0.6820 -0.4199 -0.4069
15304SOL     OW56225  10.258   3.005   6.770  0.1903  0.3181 -0.3284
15304SOL    HW156226  10.291   3.016   6.680  0.0529  3.7438 -0.0874
15304SOL    HW256227  10.165   3.028   6.764  0.3843  1.4802  0.7975
15305SOL     OW56228   3.314   0.816   3.299 -0.0430  0.2824 -0.1978
15305SOL    HW156229   3.284   0.840   3.211 -2.0690  0.8876  0.5992
15305SOL    HW256230   3.400   0.776   3.285 -0.5004 -0.0417 -2.4916
15306SOL     OW56231   2.183  11.447  11.549  0.0246 -0.5428 -0.4426
15306SOL    HW156232   2.190  11.371  11.492 -0.5211 -1.5439  0.7855
15306SOL    HW256233   2.099  11.486  11.527  0.9591  0.6588 -2.1550
15307SOL     OW56234   5.333   0.631   2.109  0.3262  0.0349 -0.8849
15307SOL    HW156235   5.360   0.623   2.018 -1.8687 -2.1175 -1.4496
15307SOL    HW256236   5.240   0.653   2.105  0.2874  0.3586  0.8423
15308SOL     OW56237   2.466   5.163   6.049 -0.1211 -0.1920 -0.4449
15308SOL    HW156238   2.465   5.121   5.963  0.6608  0.5267 -0.8138
15308SOL    HW256239   2.541   5.124   6.094  1.5874  1.8724 -1.3620
15309SOL     OW56240   5.865   9.926  12.927  0.4544 -0.1280 -0.2974
15309SOL    HW156241   5.873   9.831  12.913  0.1530 -0.2749  0.4502
15309SOL    HW256242   5.818   9.957  12.850  1.5073 -0.4133 -1.0694
15310SOL     OW56243  11.257   4.857   1.824 -0.8103 -0.5046 -0.4861
15310SOL    HW156244  11.263   4.920   1.896  1.1331 -1.4794  0.2938
15310SOL    HW256245  11.267   4.771   1.866 -0.2169 -1.1348 -1.8437
15311SOL     OW56246   7.711   9.699  11.200  0.3297 -0.1076 -0.7078
15311SOL    HW156247   7.778   9.724  11.263  0.1321  1.0445 -0.9306
15311SOL    HW256248   7.674   9.617  11.235  1.2977 -0.3325 -0.1807
15312SOL     OW56249   1.080  11.039   0.633  0.0982  0.0368  0.0196
15312SOL    HW156250   1.030  10.971   0.678 -0.1613  0.0417 -0.2595
15312SOL    HW256251   1.140  10.992   0.576 -0.8739  0.0445 -1.0361
15313SOL     OW56252  12.497  10.807   5.543  0.0765  0.0299  0.1015
15313SOL    HW156253  12.574  10.790   5.488  1.9118 -1.4437  2.8698
15313SOL    HW256254  12.450  10.724   5.544 -0.3805  0.2874  0.1336
15314SOL     OW56255   7.312   3.221   0.958 -0.5532  0.0484 -1.3864
15314SOL    HW156256   7.331   3.156   0.890 -1.0630  0.2684 -1.7428
15314SOL    HW256257   7.228   3.258   0.932 -0.3274  0.7529 -1.1111
15315SOL     OW56258   7.874   4.609   4.892  0.6256  0.6276 -0.0339
15315SOL    HW156259   7.814   4.647   4.956  1.1219  2.8019 -0.7650
15315SOL    HW256260   7.859   4.515   4.898 -1.8774  0.9983  0.7264
15316SOL     OW56261   2.674   5.105   2.227  0.0979  0.0388  0.1086
15316SOL    HW156262   2.704   5.191   2.200  2.0996  0.6622  3.6997
15316SOL    HW256263   2.716   5.045   2.165  0.3152  1.4733 -1.2127
15317SOL     OW56264  11.829  12.888  11.489  0.6165  0.0975 -0.0102
15317SOL    HW156265  11.921  12.880  11.512  0.5961 -0.8235 -0.2119
15317SOL    HW256266  11.818  12.832  11.412 -0.0970  0.2346 -0.0206
15318SOL     OW56267   1.012  10.304   9.562 -0.2476 -0.5674  0.3560
15318SOL    HW156268   1.025  10.221   9.516 -0.3325 -0.8493  0.8331
15318SOL    HW256269   0.922  10.329   9.542 -0.1059 -0.4119 -0.0798
15319SOL     OW56270   8.763  11.500   2.978  0.0818  0.0650 -0.2131
15319SOL    HW156271   8.676  11.539   2.974  1.1603  2.6059 -0.9436
15319SOL    HW256272   8.791  11.496   2.886  1.0416  0.0005  0.0728
15320SOL     OW56273   3.183   5.967   6.605  0.7263 -0.1416  0.0665
15320SOL    HW156274   3.098   5.931   6.578  0.0043  1.7807 -0.4056
15320SOL    HW256275   3.238   5.957   6.528 -0.3191  2.2157 -1.0888
15321SOL     OW56276   4.253   8.231   7.374 -0.4620 -0.0476 -0.2112
15321SOL    HW156277   4.337   8.245   7.330  0.4964 -0.9295  1.2667
15321SOL    HW256278   4.202   8.310   7.353  0.4197  0.1505 -1.7826
15322SOL     OW56279  12.130   9.636  11.557  0.3929 -0.3902 -0.0187
15322SOL    HW156280  12.066   9.610  11.623  0.2507  1.0445  0.4423
15322SOL    HW256281  12.193   9.564  11.555 -1.2007 -1.8437 -0.4810
15323SOL     OW56282  11.086   9.527   0.004 -0.3813  0.1771 -0.4635
15323SOL    HW156283  11.014   9.469   0.028 -1.8193  1.2214 -2.0290
15323SOL    HW256284  11.104   9.577   0.083 -0.5398 -0.9070  0.2893
15324SOL     OW56285   6.971  10.256  10.539  0.0892 -0.0302 -0.4415
15324SOL    HW156286   7.002  10.167  10.552 -0.9337 -0.2622  0.5942
15324SOL    HW256287   7.012  10.306  10.610 -1.4869 -0.2582  0.6824
15325SOL     OW56288   4.859  11.281   6.437 -0.1947 -0.8136  0.2059
15325SOL    HW156289   4.843  11.279   6.531 -0.3977 -1.1724  0.1629
15325SOL    HW256290   4.922  11.210   6.422  0.1049 -0.5352  0.1192
15326SOL     OW56291   0.797   6.925   4.704 -0.2434 -0.4173  0.2544
15326SOL    HW156292   0.757   6.930   4.618  0.0094  0.9538  0.1917
15326SOL    HW256293   0.787   6.834   4.730 -0.2686 -0.8668 -1.2430
15327SOL     OW56294  12.826  11.581   7.230  0.2255  0.1184  0.2685
15327SOL    HW156295  12.894  11.649   7.230  0.9121 -0.5461 -0.1449
15327SOL    HW256296  12.813  11.561   7.323 -0.0091  0.8316  0.3956
15328SOL     OW56297   9.054   7.792   9.300  0.0878  0.1922  0.0024
15328SOL    HW156298   8.987   7.765   9.237  1.1188 -1.5198 -0.4368
15328SOL    HW256299   9.131   7.809   9.247 -0.1191  2.9246  0.4126
15329SOL     OW56300  11.221  10.748   7.281  0.3267 -0.2670 -0.4012
15329SOL    HW156301  11.131  10.734   7.252  0.3084  2.7695 -2.2903
15329SOL    HW256302  11.275  10.719   7.208  0.9528 -1.9259  0.6635
15330SOL     OW56303   1.398   9.316   9.666  0.5349 -0.6007 -0.5715
15330SOL    HW156304   1.490   9.317   9.695  0.5167 -0.9001 -0.4909
15330SOL    HW256305   1.349   9.297   9.746  0.3815 -0.2004 -0.5695
15331SOL     OW56306  11.577   7.826   3.521 -0.2768 -0.1624 -0.2143
15331SOL    HW156307  11.521   7.866   3.455 -2.2825 -0.7186  1.0563
15331SOL    HW256308  11.574   7.887   3.595  0.6970 -0.2783 -0.0679
15332SOL     OW56309   5.538   1.908   9.218 -0.0136  0.8584 -0.5887
15332SOL    HW156310   5.489   1.978   9.261  1.1218  2.3158 -1.5707
15332SOL    HW256311   5.522   1.831   9.273 -0.9243  1.9676  0.7915
15333SOL     OW56312   7.061   1.106   1.800  0.0069  0.3602 -0.2121
15333SOL    HW156313   7.095   1.029   1.756  0.6594  1.2266 -1.2875
15333SOL    HW256314   7.028   1.074   1.884  1.3680 -0.8771 -0.1160
15334SOL     OW56315   5.398   3.473   9.960  0.5450  0.0162 -0.6975
15334SOL    HW156316   5.352   3.555   9.980  1.0204  0.1073  0.0828
15334SOL    HW256317   5.412   3.476   9.866  0.0691  0.5742 -0.7605
15335SOL     OW56318  11.627   8.192  12.562 -0.9174  0.2760 -0.1019
15335SOL    HW156319  11.552   8.227  12.609 -1.1358 -0.3216  0.0071
15335SOL    HW256320  11.657   8.118  12.615 -2.1442 -1.4317 -1.6173
15336SOL     OW56321  10.884   2.944  10.070 -0.1535 -0.2965 -0.1389
15336SOL    HW156322  10.838   2.996  10.135  2.4951  1.2676  0.6481
15336SOL    HW256323  10.893   2.858  10.110  0.0843  0.2008  0.9049
15337SOL     OW56324  12.568   1.307  10.624 -0.1516  0.1650 -0.0907
15337SOL    HW156325  12.550   1.357  10.704 -0.7809 -0.5474  0.2182
15337SOL    HW256326  12.544   1.367  10.553 -1.1928  0.2073  0.2795
15338SOL     OW56327   6.125   5.669   7.037  0.1450 -0.1588 -0.1286
15338SOL    HW156328   6.061   5.603   7.009  0.8959 -0.0608 -2.2783
15338SOL    HW256329   6.189   5.620   7.089 -1.2239 -0.4021  1.3867
15339SOL     OW56330   5.955   9.085  12.072  0.2782  0.4757  0.3986
15339SOL    HW156331   5.892   9.045  12.012  1.0250  0.2803 -0.2753
15339SOL    HW256332   5.902   9.138  12.131 -0.4521  0.8678 -0.5928
15340SOL     OW56333   2.453   8.383   6.319  0.6742  0.4626  0.7118
15340SOL    HW156334   2.506   8.354   6.245 -0.5272  0.6800 -0.2809
15340SOL    HW256335   2.454   8.479   6.313  0.0390  0.4660  0.5613
15341SOL     OW56336   4.642   7.326   4.385  0.3018  0.3695  0.2724
15341SOL    HW156337   4.564   7.298   4.433  0.2389 -0.8812 -0.5107
15341SOL    HW256338   4.621   7.306   4.294  1.9502 -1.0114  0.1550
15342SOL     OW56339   3.247   9.163   6.338  0.5084 -0.3514 -0.2571
15342SOL    HW156340   3.201   9.192   6.417 -0.8275 -1.4513 -0.5990
15342SOL    HW256341   3.336   9.199   6.348  0.5472 -0.8819  1.9822
15343SOL     OW56342   3.699   3.911   0.632 -0.4133 -0.2566 -0.2096
15343SOL    HW156343   3.693   3.916   0.728  0.3793  2.5247 -0.2110
15343SOL    HW256344   3.727   3.998   0.606 -1.5254 -0.6731 -3.0880
15344SOL     OW56345   5.340  11.277   5.120  0.3128 -0.1954  0.1930
15344SOL    HW156346   5.255  11.310   5.148  0.3697  0.0867  0.0358
15344SOL    HW256347   5.389  11.265   5.202  0.4539  0.5588  0.2240
15345SOL     OW56348   7.991   0.964   1.159 -0.0885  0.3986 -0.3229
15345SOL    HW156349   8.015   0.913   1.236 -0.0444  1.2805  0.2702
15345SOL    HW256350   8.023   1.052   1.178 -2.8762  1.4244  0.1049
15346SOL     OW56351   5.405   9.041  10.505 -0.0562 -0.3216  0.0122
15346SOL    HW156352   5.471   9.006  10.564  0.6081 -2.3459 -1.8030
15346SOL    HW256353   5.322   9.011  10.541  0.0947  0.7018  1.2983
15347SOL     OW56354  12.594  11.578   9.977  0.0189  0.7340  0.1669
15347SOL    HW156355  12.642  11.495   9.979 -1.5119 -0.2470 -0.9768
15347SOL    HW256356  12.661  11.644   9.961  1.0030 -0.5957 -1.5941
15348SOL     OW56357  10.798   4.354   0.720  0.3986  0.0868 -0.1429
15348SOL    HW156358  10.806   4.369   0.626  1.5118  1.3892  0.1277
15348SOL    HW256359  10.888   4.352   0.752  0.0088  0.8183  1.0608
15349SOL     OW56360  12.867   8.616   8.788 -0.0378  0.2793  0.0310
15349SOL    HW156361  12.860   8.577   8.875  1.5497  1.2281  0.6327
15349SOL    HW256362  12.872   8.542   8.728  0.6685 -0.4145  0.9254
15350SOL     OW56363   8.828   3.808   6.084  0.2352 -0.1724 -0.5758
15350SOL    HW156364   8.854   3.893   6.048  0.7029 -0.8713 -1.9671
15350SOL    HW256365   8.751   3.783   6.034  1.3219 -1.4908 -1.6874
15351SOL     OW56366  10.164  10.309   8.784 -0.1528  0.2700 -0.0759
15351SOL    HW156367  10.143  10.351   8.700  1.4643  0.3281 -0.4780
15351SOL    HW256368  10.182  10.382   8.843  0.4539  0.2054 -0.1725
15352SOL     OW56369   5.794   5.092   0.940 -0.2727  0.5479 -0.3974
15352SOL    HW156370   5.825   5.006   0.915 -0.0268  0.3087  0.6977
15352SOL    HW256371   5.851   5.119   1.012 -2.1732  0.3434  1.2876
15353SOL     OW56372   1.872   3.395   4.087 -0.4313  0.0948  0.3835
15353SOL    HW156373   1.849   3.470   4.142  0.9578  0.3919  0.6006
15353SOL    HW256374   1.921   3.432   4.014 -0.5924 -0.5018 -0.0365
15354SOL     OW56375   0.502   0.972  12.271 -0.3586  0.1432 -0.6971
15354SOL    HW156376   0.408   0.957  12.283 -0.0742 -1.9342 -0.7022
15354SOL    HW256377   0.526   0.912  12.200  1.3413 -0.9326  0.7209
15355SOL     OW56378   0.812   6.760  10.341  0.3449 -0.1594  0.0827
15355SOL    HW156379   0.801   6.762  10.436  0.3855  1.3507  0.0784
15355SOL    HW256380   0.879   6.693  10.326  0.8999  0.1230  1.1784
15356SOL     OW56381   2.082   5.874   9.416  1.0701  0.2881 -0.3412
15356SOL    HW156382   2.085   5.957   9.464  0.2734  0.2804 -0.2662
15356SOL    HW256383   2.168   5.868   9.374  0.3165  2.4392 -2.4560
15357SOL     OW56384   8.670   3.871   7.194  0.1916 -0.1572 -0.2999
15357SOL    HW156385   8.765   3.878   7.198  0.0959  1.6529 -0.2492
15357SOL    HW256386   8.653   3.821   7.114  1.1739 -0.2322 -0.4701
15358SOL     OW56387  10.981   7.544   4.810 -0.3143 -0.4591 -0.5885
15358SOL    HW156388  10.992   7.637   4.834  1.0378 -1.1796  2.0332
15358SOL    HW256389  11.068   7.517   4.782 -0.4597 -1.1639 -0.3683
15359SOL     OW56390  12.300   3.902   2.551 -0.4180 -0.3110  0.6232
15359SOL    HW156391  12.291   3.814   2.516  0.5238 -0.2811  0.2682
15359SOL    HW256392  12.347   3.891   2.634  0.5891 -0.0652  0.0953
15360SOL     OW56393   7.131  10.420  12.386 -0.6157 -0.0359 -0.5847
15360SOL    HW156394   7.107  10.329  12.370 -0.3695 -0.3451  0.6798
15360SOL    HW256395   7.092  10.469  12.313 -0.5686 -1.1642 -1.3907
15361SOL     OW56396   4.872   3.186   3.160 -0.2402  0.8101  0.1050
15361SOL    HW156397   4.955   3.187   3.207 -0.0147  1.2926 -0.2918
15361SOL    HW256398   4.836   3.273   3.174 -0.2090  0.9341 -0.5331
15362SOL     OW56399  11.399   9.418   8.738 -0.2393  0.2557 -0.1221
15362SOL    HW156400  11.392   9.346   8.675  1.4726  0.8215 -1.0141
15362SOL    HW256401  11.449   9.382   8.811 -2.1711 -0.3819  0.9538
15363SOL     OW56402   7.919  10.483  12.797  0.6396  0.1912  0.0341
15363SOL    HW156403   7.891  10.420  12.863 -1.5802  0.0352 -0.9679
15363SOL    HW256404   7.869  10.562  12.817  0.1641  0.2395 -1.2527
15364SOL     OW56405   8.062   8.088   9.453 -0.1744 -0.5367 -0.0497
15364SOL    HW156406   8.051   8.040   9.370  0.0638 -1.0529  0.2120
15364SOL    HW256407   7.974   8.096   9.488 -0.4157  0.6315 -0.8687
15365SOL     OW56408  10.150   1.820  10.546  0.3467  0.3147  0.3069
15365SOL    HW156409  10.056   1.811  10.555 -0.0712  2.0314 -1.5791
15365SOL    HW256410  10.169   1.910  10.574  0.9500  0.9480 -1.9128
15366SOL     OW56411  11.588  10.297   0.903 -0.5028 -0.2723  0.1069
15366SOL    HW156412  11.522  10.254   0.957 -3.3375  1.6566 -1.5489
15366SOL    HW256413  11.636  10.225   0.862 -2.7463 -1.8655  0.0966
15367SOL     OW56414   1.711  10.098   9.498 -0.0325 -0.9285  0.1687
15367SOL    HW156415   1.797  10.080   9.458 -0.6717 -1.8384 -0.8493
15367SOL    HW256416   1.677  10.012   9.520 -0.9163 -0.6029  0.0889
15368SOL     OW56417  12.225   9.460   5.617  0.4226 -0.7634 -0.2843
15368SOL    HW156418  12.251   9.372   5.592  0.2600 -1.0673  0.5923
15368SOL    HW256419  12.140   9.449   5.659 -0.3341  0.0044 -1.5201
15369SOL     OW56420   3.163   6.771  11.173  0.1310 -0.3950  0.0970
15369SOL    HW156421   3.122   6.779  11.259  0.9859 -2.2729  0.7362
15369SOL    HW256422   3.246   6.727  11.190 -0.3420 -2.1978 -1.8498
15370SOL     OW56423   6.070   5.248   1.362  0.8953  0.1064 -0.5459
15370SOL    HW156424   6.020   5.329   1.371  0.1547 -0.4981  1.3399
15370SOL    HW256425   6.160   5.273   1.383  0.2887  0.0803  2.5560
15371SOL     OW56426   6.053   3.836   6.769  0.1637 -0.0395  0.5161
15371SOL    HW156427   6.085   3.746   6.759 -0.8018 -0.4263  0.7906
15371SOL    HW256428   5.965   3.834   6.731 -0.0647  0.6526  0.9922
15372SOL     OW56429   3.687   7.637   6.711  0.1115 -0.6368  0.9477
15372SOL    HW156430   3.675   7.647   6.805 -0.4825 -0.9586  0.9119
15372SOL    HW256431   3.781   7.620   6.700  0.2815 -0.0257  1.4251
15373SOL     OW56432   0.114   0.484   1.044  0.3923  0.3644  0.0950
15373SOL    HW156433   0.042   0.528   1.088  0.3895 -0.6381  1.1312
15373SOL    HW256434   0.185   0.481   1.108  0.3408 -1.2392  0.1133
15374SOL     OW56435   3.439  10.362  11.723 -0.0462  0.0001 -0.0473
15374SOL    HW156436   3.494  10.431  11.760  1.5209 -1.5918  0.7087
15374SOL    HW256437   3.499  10.308  11.671 -1.0387 -1.3077  0.1103
15375SOL     OW56438   5.502   8.489  10.200  0.2402  0.0782 -0.2512
15375SOL    HW156439   5.463   8.491  10.288 -0.6513 -1.0666 -0.5890
15375SOL    HW256440   5.578   8.431  10.210 -0.7846 -1.3599 -0.5576
15376SOL     OW56441   2.983   3.202   3.420 -0.2929  0.5000  0.4456
15376SOL    HW156442   2.952   3.277   3.370  0.4517  0.8405  0.4783
15376SOL    HW256443   3.023   3.240   3.498  1.0945  0.1520 -0.0674
15377SOL     OW56444   2.756   7.442   5.102  0.3973  0.1904  0.1539
15377SOL    HW156445   2.742   7.514   5.040  0.0883 -0.6169 -0.7428
15377SOL    HW256446   2.696   7.373   5.073 -1.6761  0.6796  2.8759
15378SOL     OW56447   4.504   0.557  11.121  0.2405 -0.0016  0.1391
15378SOL    HW156448   4.566   0.613  11.073 -1.4420  2.1172  0.2937
15378SOL    HW256449   4.479   0.610  11.197  2.2676 -2.9373  3.1669
15379SOL     OW56450   9.122   8.233  11.828 -0.2470 -0.0177 -0.0749
15379SOL    HW156451   9.191   8.260  11.889  0.3349  0.1415 -0.7935
15379SOL    HW256452   9.060   8.184  11.882  0.0304  0.5020  0.7311
15380SOL     OW56453   1.024   1.851   1.998  0.1210 -0.2494 -0.0708
15380SOL    HW156454   1.011   1.883   1.909  0.1030  0.9053  0.3256
15380SOL    HW256455   0.970   1.909   2.052  1.8914  0.5599  0.9304
15381SOL     OW56456   7.882  12.269  12.246 -0.2335  0.0718 -0.5920
15381SOL    HW156457   7.946  12.337  12.265 -0.7198  0.1572  0.9127
15381SOL    HW256458   7.801  12.316  12.227 -0.2021 -0.0638 -1.0716
15382SOL     OW56459   2.166   2.222   4.293  0.3268  0.0451  0.0534
15382SOL    HW156460   2.129   2.301   4.331  1.9849  0.6886  0.4197
15382SOL    HW256461   2.260   2.229   4.311  0.6858 -1.3224 -1.1451
15383SOL     OW56462   6.731   8.523   9.445 -0.0570  0.4513 -0.0268
15383SOL    HW156463   6.827   8.531   9.447  0.0808 -1.0599  0.7802
15383SOL    HW256464   6.715   8.450   9.385 -0.6066 -0.2647  0.9703
15384SOL     OW56465   9.334   9.162  10.566  0.0857  0.3124 -0.3016
15384SOL    HW156466   9.271   9.154  10.494  0.7554 -1.0432 -0.7696
15384SOL    HW256467   9.295   9.112  10.638  0.4654 -0.2661 -0.4900
15385SOL     OW56468   4.729   2.040   6.594  0.1359  0.2525 -0.2556
15385SOL    HW156469   4.659   1.980   6.567 -1.5378  2.5759 -1.3929
15385SOL    HW256470   4.705   2.065   6.683  0.9489 -0.8404  0.2984
15386SOL     OW56471   1.896   1.773   9.368 -0.0187 -0.4433 -0.2220
15386SOL    HW156472   1.900   1.738   9.279 -1.2919 -0.5315 -0.2588
15386SOL    HW256473   1.983   1.756   9.405  0.3953 -0.7511 -1.3134
15387SOL     OW56474   7.100   6.794   5.234  0.5172  0.3582  0.1557
15387SOL    HW156475   7.178   6.794   5.179 -0.1948 -0.9234 -0.9164
15387SOL    HW256476   7.027   6.810   5.173 -0.2553 -0.7283  0.7570
15388SOL     OW56477   7.436   4.628   5.863 -0.3244 -0.0470 -0.3743
15388SOL    HW156478   7.409   4.719   5.846  0.1755  0.0946 -0.4246
15388SOL    HW256479   7.452   4.626   5.957 -0.9445 -0.2495 -0.2715
15389SOL     OW56480  11.908   5.532   0.480 -0.0827  0.4184  0.1690
15389SOL    HW156481  11.836   5.538   0.417 -0.4149 -0.5953  0.4371
15389SOL    HW256482  11.865   5.516   0.564  0.4093  0.8005  0.4941
15390SOL     OW56483   2.103   3.629   6.952 -0.1272  0.0742 -0.1027
15390SOL    HW156484   2.135   3.590   6.871  2.2463 -0.1046  0.8476
15390SOL    HW256485   2.115   3.561   7.018 -0.2223  0.8521  0.7384
15391SOL     OW56486   8.487   0.954   6.338 -0.5364  0.8260  0.2971
15391SOL    HW156487   8.408   1.008   6.329 -0.3948  0.9442 -0.2647
15391SOL    HW256488   8.532   0.990   6.415 -0.6266  1.2740  0.1407
15392SOL     OW56489   5.021   4.797   4.215  0.5518  0.0788  0.1317
15392SOL    HW156490   4.959   4.727   4.197  0.6803 -0.1814  0.6791
15392SOL    HW256491   5.102   4.752   4.239  0.2881  0.3938  1.7076
15393SOL     OW56492   7.281   4.593   8.791 -0.1999 -0.3294  0.0640
15393SOL    HW156493   7.323   4.637   8.718 -0.7110  0.1589  0.0552
15393SOL    HW256494   7.191   4.625   8.790  0.0124  0.3704  1.4365
15394SOL     OW56495  11.419   2.793   5.792 -0.5510  0.0409 -0.3562
15394SOL    HW156496  11.345   2.772   5.735 -0.1562 -2.9049  0.0479
15394SOL    HW256497  11.496   2.782   5.737 -0.2781 -0.6308  0.1446
15395SOL     OW56498  11.801   6.925   9.320 -0.4408  0.2843  0.1751
15395SOL    HW156499  11.893   6.896   9.321 -0.3037  0.7021  0.0728
15395SOL    HW256500  11.781   6.937   9.227 -0.4331  0.7024  0.2262
15396SOL     OW56501  11.286   3.996   9.931  0.1773  0.5318 -0.1644
15396SOL    HW156502  11.322   4.084   9.925 -0.4276  0.7513 -0.7794
15396SOL    HW256503  11.292   3.962   9.841  0.1176  0.0628  0.0051
15397SOL     OW56504   7.289   1.440  11.183  0.1562 -0.4634  0.0934
15397SOL    HW156505   7.310   1.468  11.272  1.0962  0.8624 -0.5098
15397SOL    HW256506   7.364   1.470  11.130 -1.6955  1.4443 -1.6309
15398SOL     OW56507   7.195  11.898   0.450 -0.2716 -0.0354 -0.9964
15398SOL    HW156508   7.109  11.891   0.409 -0.9858  1.1297  0.2021
15398SOL    HW256509   7.234  11.976   0.412 -0.3598  0.2619 -0.4855
15399SOL     OW56510  10.531   0.002  12.976  0.0247 -0.3407  0.3092
15399SOL    HW156511  10.611  -0.043  12.950  0.8628  1.1916  0.0937
15399SOL    HW256512  10.527  -0.007  13.071  0.1784 -0.8511  0.2676
15400SOL     OW56513  12.032  11.276  11.337 -0.1801  0.1429  0.4341
15400SOL    HW156514  12.092  11.267  11.263  0.0207 -0.7629  0.6951
15400SOL    HW256515  12.079  11.331  11.400 -0.0752  0.3449  0.1811
15401SOL     OW56516  11.441   9.762   8.203 -0.1145 -0.4237 -0.0583
15401SOL    HW156517  11.408   9.850   8.223 -0.9725 -0.5953 -0.7021
15401SOL    HW256518  11.363   9.707   8.197  0.3728 -1.0997 -0.3239
15402SOL     OW56519   5.533  11.129  11.458 -0.1222 -0.2160 -0.3436
15402SOL    HW156520   5.602  11.071  11.489  0.4590 -0.0482 -1.2802
15402SOL    HW256521   5.527  11.197  11.525 -0.2773 -0.9250  0.3791
15403SOL     OW56522  12.886   7.898   7.222  0.0922 -0.4121  0.0932
15403SOL    HW156523  12.929   7.960   7.163 -0.7656  0.5899  0.4895
15403SOL    HW256524  12.817   7.858   7.170  0.3397 -0.6808 -0.0272
15404SOL     OW56525   1.790   6.789   4.358 -0.3375  0.2495  0.0321
15404SOL    HW156526   1.830   6.786   4.271 -0.8763 -0.1655 -0.2103
15404SOL    HW256527   1.854   6.833   4.412  0.6888 -0.8643 -0.2247
15405SOL     OW56528   1.334   9.381   2.733 -0.3717 -0.0005  0.0911
15405SOL    HW156529   1.336   9.287   2.713  1.2883 -0.0014  0.1439
15405SOL    HW256530   1.301   9.421   2.652  0.8842 -0.4771 -0.6926
15406SOL     OW56531   8.080   2.444   1.109  0.2286  0.5845  0.3950
15406SOL    HW156532   7.991   2.434   1.142 -0.1225  0.8784 -0.4294
15406SOL    HW256533   8.070   2.448   1.014  1.0956  0.8794  0.3034
15407SOL     OW56534   0.798   4.316   0.373  0.1241  0.1703  0.2611
15407SOL    HW156535   0.736   4.386   0.395  0.4058  0.3819  0.3865
15407SOL    HW256536   0.775   4.245   0.433 -1.1869 -0.4431 -0.9111
15408SOL     OW56537   0.039   2.633   4.667  0.3489  0.3577  0.3141
15408SOL    HW156538   0.063   2.723   4.689  0.2240 -0.1608  2.9264
15408SOL    HW256539  -0.046   2.620   4.709 -0.5686 -0.4450 -1.6529
15409SOL     OW56540   2.011   6.794   8.946 -0.1492 -0.9091  0.0927
15409SOL    HW156541   2.057   6.872   8.916 -2.2430 -0.3536 -1.9944
15409SOL    HW256542   1.981   6.816   9.035  0.5117  0.0737  0.0844
15410SOL     OW56543   3.126   6.430   1.397  0.8084 -0.0889  0.0234
15410SOL    HW156544   3.079   6.361   1.443 -0.4232 -0.3651 -1.5581
15410SOL    HW256545   3.064   6.501   1.389  1.0469  0.0290 -0.9989
15411SOL     OW56546  11.466  11.142   2.949 -0.2381 -0.8089 -0.3034
15411SOL    HW156547  11.474  11.218   2.892  0.9613 -0.3826  0.4087
15411SOL    HW256548  11.506  11.070   2.899  0.9536 -0.4019  0.0429
15412SOL     OW56549   2.092   0.833  12.397 -0.7662 -0.0421  0.2607
15412SOL    HW156550   2.182   0.809  12.375 -0.2178 -0.2230  2.5359
15412SOL    HW256551   2.092   0.843  12.492 -3.1041  0.2052  0.2824
15413SOL     OW56552   8.119   2.165   5.218 -1.1069  0.0949 -0.3405
15413SOL    HW156553   8.138   2.198   5.306 -0.0595 -1.1246 -0.0683
15413SOL    HW256554   8.037   2.116   5.227 -0.9145 -0.1662 -0.0000
15414SOL     OW56555   5.178   1.740  10.145 -0.2632 -0.1257  0.8901
15414SOL    HW156556   5.256   1.770  10.192 -0.3887 -0.6728  1.4680
15414SOL    HW256557   5.105   1.786  10.186 -0.1507  1.4421 -0.5568
15415SOL     OW56558   1.594   0.873   6.881  0.0723 -0.6687 -0.0513
15415SOL    HW156559   1.517   0.927   6.865 -0.5732 -1.1004  1.3946
15415SOL    HW256560   1.667   0.922   6.844 -0.4913  1.2079  1.1761
15416SOL     OW56561  12.311   0.676   7.465  0.0054 -0.4788  0.3650
15416SOL    HW156562  12.288   0.723   7.384  0.4514  1.1695  1.1653
15416SOL    HW256563  12.337   0.589   7.434  1.8503  0.6228 -1.4871
15417SOL     OW56564   1.189   8.994   9.004 -0.0654 -0.5268  0.3698
15417SOL    HW156565   1.272   8.966   9.042  0.8001  1.6636  0.2598
15417SOL    HW256566   1.214   9.037   8.922 -1.5891 -2.0539 -0.9745
15418SOL     OW56567   2.189   8.293   6.909  0.4963 -0.5897 -0.1483
15418SOL    HW156568   2.241   8.214   6.896  1.6650 -0.3195  2.3718
15418SOL    HW256569   2.101   8.262   6.928  0.6706 -1.2359 -0.3845
15419SOL     OW56570   7.716  11.157   9.580 -0.3399  0.3474  0.4472
15419SOL    HW156571   7.663  11.197   9.511 -0.0892 -0.0691  0.0079
15419SOL    HW256572   7.692  11.205   9.659 -2.0555 -0.4493  0.4404
15420SOL     OW56573  11.868  12.369   7.896 -0.1269  0.2106 -0.4899
15420SOL    HW156574  11.959  12.396   7.908 -0.0991 -0.1012  0.0190
15420SOL    HW256575  11.856  12.296   7.957 -1.1195  1.1522  0.4848
15421SOL     OW56576   4.004   0.932   2.855 -0.3879 -0.4288 -0.6421
15421SOL    HW156577   4.035   1.021   2.875  0.5831 -1.2011  1.6712
15421SOL    HW256578   4.049   0.909   2.774  2.5920 -0.2077  0.7975
15422SOL     OW56579  10.411   9.093   6.310  0.2752 -0.3523  0.0694
15422SOL    HW156580  10.420   9.146   6.389  0.0892  0.7938 -0.6372
15422SOL    HW256581  10.451   9.009   6.331  0.4489  0.0261  1.2885
15423SOL     OW56582   6.908   7.261   3.619  0.4193  0.2362 -0.0341
15423SOL    HW156583   6.987   7.236   3.571 -0.5481 -2.8708 -0.2115
15423SOL    HW256584   6.838   7.256   3.553 -0.4523 -0.9085  0.9434
15424SOL     OW56585   9.701   2.667  12.447 -0.0958 -0.1706 -0.3839
15424SOL    HW156586   9.723   2.725  12.520  1.3106  0.7454 -1.4822
15424SOL    HW256587   9.691   2.581  12.487  1.3500  0.1668  0.8066
15425SOL     OW56588   0.849   9.711  10.528  0.1874  0.5028 -0.2958
15425SOL    HW156589   0.916   9.764  10.572  0.6782 -0.8325  0.6254
15425SOL    HW256590   0.894   9.673  10.453  0.1207  0.5521 -0.3613
15426SOL     OW56591  12.791   9.267   4.299 -0.3551 -0.1844  0.8251
15426SOL    HW156592  12.831   9.353   4.315 -0.7552 -0.2670  2.4245
15426SOL    HW256593  12.863   9.205   4.308  0.0483 -0.0175 -0.8657
15427SOL     OW56594  12.239   0.590   2.549 -0.0774  0.5313  0.2981
15427SOL    HW156595  12.182   0.520   2.515  1.9167 -0.7251 -0.6368
15427SOL    HW256596  12.201   0.613   2.634  0.0334 -2.7987  1.3881
15428SOL     OW56597   2.559  11.330   5.005 -1.0666  0.1971 -0.1755
15428SOL    HW156598   2.486  11.392   5.012 -1.4153  0.2523 -3.0814
15428SOL    HW256599   2.638  11.385   5.012 -1.2720  0.3146  1.6413
15429SOL     OW56600   1.116  12.578   1.304  0.0159 -0.3117  0.4312
15429SOL    HW156601   1.080  12.604   1.219 -0.6073  0.5875  0.9629
15429SOL    HW256602   1.209  12.562   1.286 -0.0444  0.1656 -0.3602
15430SOL     OW56603   4.348   3.769   5.891 -0.6162 -0.2969 -0.1714
15430SOL    HW156604   4.440   3.745   5.892 -0.3095  0.8250  0.1366
15430SOL    HW256605   4.347   3.860   5.861 -1.2819  0.9812  3.3394
15431SOL     OW56606  12.637  11.904   2.079 -0.5239  0.2040  0.0419
15431SOL    HW156607  12.644  11.989   2.035 -4.7551  0.0229 -1.4167
15431SOL    HW256608  12.621  11.925   2.171 -2.6711  1.1294 -0.4914
15432SOL     OW56609   3.565   5.561  12.623  0.1194  0.1742 -0.1143
15432SOL    HW156610   3.527   5.644  12.597  2.6764  1.4542 -0.0717
15432SOL    HW256611   3.579   5.568  12.717 -1.3316 -1.1012  0.2485
15433SOL     OW56612  10.992   5.036   2.879  0.0074 -0.5618  0.1135
15433SOL    HW156613  11.025   5.109   2.826  0.2430 -1.7434 -1.4271
15433SOL    HW256614  11.027   5.053   2.967  0.5976  0.8177 -0.3519
15434SOL     OW56615  12.089   6.257   7.964  0.3796 -0.7356  0.0154
15434SOL    HW156616  12.171   6.299   7.941 -0.4276  0.8187 -0.1755
15434SOL    HW256617  12.111   6.165   7.977  1.7866 -0.7337 -1.9703
15435SOL     OW56618   4.947  10.329   3.678  0.1364 -0.6933 -0.0228
15435SOL    HW156619   4.882  10.398   3.694 -0.7038 -0.7969 -2.5972
15435SOL    HW256620   4.986  10.352   3.594  1.7164 -1.9767  0.3216
15436SOL     OW56621   4.743  12.337  11.743 -0.0887  0.2580  0.3820
15436SOL    HW156622   4.789  12.309  11.822  0.2443  1.4157  0.6138
15436SOL    HW256623   4.738  12.432  11.750  0.7714  0.4928 -1.4189
15437SOL     OW56624  10.865   9.372  12.718  0.4202  0.0947 -0.1892
15437SOL    HW156625  10.827   9.302  12.665  2.8721  0.7706 -3.2092
15437SOL    HW256626  10.948   9.336  12.748  0.7191  0.9707  0.0488
15438SOL     OW56627   9.509   6.226   5.816  0.4031 -0.5624  0.1894
15438SOL    HW156628   9.603   6.244   5.818  0.2718  0.2080  2.4821
15438SOL    HW256629   9.474   6.288   5.753  1.4707 -1.2978 -1.1953
15439SOL     OW56630   4.471   3.014   7.622  0.2305 -0.1186 -0.2994
15439SOL    HW156631   4.458   2.955   7.697 -0.3217 -0.5455 -0.7294
15439SOL    HW256632   4.565   3.032   7.623  0.4005 -0.9609 -0.1258
15440SOL     OW56633   1.653   6.166   1.991 -0.4272 -0.5215 -0.3777
15440SOL    HW156634   1.690   6.254   1.982  0.0883 -0.7097 -0.1217
15440SOL    HW256635   1.562   6.176   1.963 -0.3339  0.0622 -0.4949
15441SOL     OW56636   2.295   2.828   4.912  0.3680 -0.2227 -0.3945
15441SOL    HW156637   2.348   2.875   4.848  0.6684 -0.3406 -0.2374
15441SOL    HW256638   2.359   2.778   4.964  0.1518  0.0754  0.1667
15442SOL     OW56639   5.865   8.847   3.714 -0.1181 -0.2192 -0.0410
15442SOL    HW156640   5.819   8.912   3.660 -0.1695 -0.1594  0.0754
15442SOL    HW256641   5.795   8.790   3.746 -0.2207  0.4339  0.9149
15443SOL     OW56642   5.681  10.310  10.492  0.4854  0.0156  0.9008
15443SOL    HW156643   5.768  10.310  10.452  0.4237 -0.5027  0.7516
15443SOL    HW256644   5.641  10.392  10.463  0.3109 -0.5026 -0.4272
15444SOL     OW56645   5.790   3.696   9.161  0.2551  0.1325  0.2647
15444SOL    HW156646   5.810   3.611   9.121  0.0425 -0.0672  0.5758
15444SOL    HW256647   5.776   3.676   9.254  1.8227  0.7481  0.6679
15445SOL     OW56648   4.757   8.604   7.149 -0.0430  0.3805  0.2415
15445SOL    HW156649   4.828   8.561   7.198 -2.5034 -1.1043  2.7799
15445SOL    HW256650   4.772   8.697   7.161 -0.8095  0.1147  4.5533
15446SOL     OW56651   4.881   6.504   2.161 -0.0040  0.3588  0.7590
15446SOL    HW156652   4.851   6.567   2.226  0.5766  0.4877  0.9027
15446SOL    HW256653   4.965   6.538   2.131 -0.3114  0.3515 -0.1275
15447SOL     OW56654   8.573   7.384   6.991 -0.0330  0.2006  0.3406
15447SOL    HW156655   8.569   7.358   7.083 -0.3885  0.9134  0.5322
15447SOL    HW256656   8.498   7.341   6.950 -2.0885  2.7830  1.1573
15448SOL     OW56657  11.740   7.178   3.195  0.4009 -0.7195  0.4804
15448SOL    HW156658  11.660   7.215   3.159  0.4124 -1.5735 -0.4896
15448SOL    HW256659  11.809   7.241   3.172 -0.0623  0.3553  1.9158
15449SOL     OW56660   3.577   2.010   4.043 -0.3122 -0.6886 -0.3098
15449SOL    HW156661   3.627   2.090   4.031 -3.9667  2.1105  1.1570
15449SOL    HW256662   3.630   1.942   4.002  3.2915  2.3134 -1.1707
15450SOL     OW56663   9.262  12.090   4.052  0.1509 -0.3506  0.3086
15450SOL    HW156664   9.288  12.156   3.988  1.3597  0.8951  1.9906
15450SOL    HW256665   9.343  12.048   4.078 -0.2270 -0.4270  1.4280
15451SOL     OW56666  12.594   0.536   0.047  0.4268 -0.1730 -0.0987
15451SOL    HW156667  12.618   0.627   0.065 -1.3622  0.4478 -0.5767
15451SOL    HW256668  12.661   0.505  -0.014  1.3450  0.6458  0.4555
15452SOL     OW56669   4.652   4.049   4.042  0.4897  0.5219  0.6482
15452SOL    HW156670   4.740   4.056   4.006  0.5100  1.4233  0.8279
15452SOL    HW256671   4.594   4.046   3.966  0.7549 -1.8714  0.4929
15453SOL     OW56672  11.544  11.336   0.300  0.0113  0.3434 -0.4628
15453SOL    HW156673  11.449  11.343   0.305 -0.1490 -2.0545  2.1967
15453SOL    HW256674  11.560  11.258   0.246  0.3810 -0.1073  0.2769
15454SOL     OW56675   0.487   9.525  11.994  0.0638  0.1289 -0.4061
15454SOL    HW156676   0.417   9.522  11.930 -0.8897 -2.3627  0.6314
15454SOL    HW256677   0.459   9.591  12.058  0.0703  1.1789 -1.4638
15455SOL     OW56678   8.937   8.387   2.182  0.5392  0.3450  0.0011
15455SOL    HW156679   8.904   8.392   2.272 -0.7567 -1.3525 -0.3349
15455SOL    HW256680   8.870   8.431   2.129 -0.1585 -1.1762 -0.4309
15456SOL     OW56681  12.698  11.025  10.090  0.8322  0.3933  0.3574
15456SOL    HW156682  12.662  10.959  10.030  0.1691 -0.3955  1.5765
15456SOL    HW256683  12.781  10.988  10.120  2.0005  1.5333 -1.2882
15457SOL     OW56684  10.166   1.861   9.412 -0.0951 -0.3383  0.4754
15457SOL    HW156685  10.195   1.905   9.333  0.2845 -2.0188 -0.3687
15457SOL    HW256686  10.213   1.778   9.412 -1.4546 -1.1528  1.5072
15458SOL     OW56687   1.795   5.139   1.814 -0.2536 -0.2578  0.6192
15458SOL    HW156688   1.864   5.098   1.866 -0.4439 -2.7517 -0.9422
15458SOL    HW256689   1.815   5.232   1.818  2.2708 -0.7415  1.5155
15459SOL     OW56690   7.806   2.630   5.988  0.0756  0.5375  0.3377
15459SOL    HW156691   7.764   2.716   5.979 -1.1726 -0.0445  0.3157
15459SOL    HW256692   7.898   2.646   5.972 -0.0737  1.9503  0.7428
15460SOL     OW56693   6.444  10.996   2.363  0.0882 -0.2282  0.5364
15460SOL    HW156694   6.348  11.004   2.363  0.2274  1.7135  0.6758
15460SOL    HW256695   6.473  11.053   2.293  1.2147 -0.0225  1.1523
15461SOL     OW56696   2.747   8.929   7.918 -0.1003  0.1398 -0.5321
15461SOL    HW156697   2.748   9.010   7.867  0.9771 -0.5242 -1.6077
15461SOL    HW256698   2.790   8.953   8.001  0.8353  0.5174 -1.1086
15462SOL     OW56699   7.656   3.741   4.858 -1.1805  0.3361  0.5261
15462SOL    HW156700   7.644   3.802   4.785 -1.8597  0.8023  1.0186
15462SOL    HW256701   7.567   3.722   4.889 -1.2013 -2.5689 -0.9406
15463SOL     OW56702   1.238   8.453   5.140  0.1378  0.0950  0.2149
15463SOL    HW156703   1.321   8.428   5.099  0.0642  1.9470 -1.2182
15463SOL    HW256704   1.246   8.424   5.230  1.8302 -0.8771 -0.2038
15464SOL     OW56705   2.488   8.581  11.243 -0.1007 -0.2739 -0.3362
15464SOL    HW156706   2.569   8.625  11.267 -1.0127  1.2711  0.0136
15464SOL    HW256707   2.418   8.640  11.271 -1.3729 -1.6848 -0.3736
15465SOL     OW56708  10.307   9.795   1.676 -0.3120 -0.0489 -0.7711
15465SOL    HW156709  10.395   9.801   1.712 -0.4328 -1.0681 -0.2627
15465SOL    HW256710  10.263   9.873   1.708 -0.2483 -0.6431  0.8888
15466SOL     OW56711  12.613   1.630   3.111  0.3964 -0.0780  0.2035
15466SOL    HW156712  12.695   1.652   3.068 -0.5910 -1.1919 -2.4259
15466SOL    HW256713  12.567   1.574   3.049 -2.2845  0.3405  1.6516
15467SOL     OW56714   5.194   7.133   2.901 -0.2299 -0.9750  0.3478
15467SOL    HW156715   5.239   7.052   2.878  1.7353  0.6901 -2.3091
15467SOL    HW256716   5.227   7.155   2.988  1.0650 -1.8470  0.1098
15468SOL     OW56717   4.815   6.199   2.323 -0.2445  0.0213 -0.4278
15468SOL    HW156718   4.821   6.208   2.418 -1.5778 -1.9433 -0.1078
15468SOL    HW256719   4.895   6.240   2.290  0.6584 -0.0113  1.5825
15469SOL     OW56720   5.606   7.649   7.593  0.3801  0.3201  0.3393
15469SOL    HW156721   5.513   7.636   7.609  0.7851 -1.6701  1.4505
15469SOL    HW256722   5.643   7.663   7.680  1.1630  0.9265 -0.0760
15470SOL     OW56723   3.379   6.194  12.818 -0.3798 -0.0985  0.1088
15470SOL    HW156724   3.297   6.156  12.787  0.0406 -0.2004 -0.8836
15470SOL    HW256725   3.354   6.242  12.897 -1.3482 -0.3492 -0.0348
15471SOL     OW56726   7.909   9.490   4.116 -0.2372 -0.0842  0.0502
15471SOL    HW156727   7.910   9.418   4.179 -0.2002 -0.8355 -0.7904
15471SOL    HW256728   7.994   9.485   4.072 -0.2744  0.4105 -0.0956
15472SOL     OW56729   5.220  12.262  12.464  0.4440 -0.4379  0.7539
15472SOL    HW156730   5.130  12.241  12.489 -0.2523  1.6334  0.1664
15472SOL    HW256731   5.215  12.349  12.425  2.1549 -1.5891 -2.4693
15473SOL     OW56732   4.021  10.566   0.378  0.3280 -0.0184  0.3206
15473SOL    HW156733   4.027  10.473   0.358  0.3899  0.2580 -1.0253
15473SOL    HW256734   4.004  10.569   0.472  0.2850 -1.3832  0.3762
15474SOL     OW56735  12.468   1.331   6.086  0.2568 -0.5009 -0.1319
15474SOL    HW156736  12.470   1.373   6.173  1.8373 -1.2302  0.2290
15474SOL    HW256737  12.556   1.345   6.052 -0.4694  0.1466 -1.8405
15475SOL     OW56738   7.586  12.401   5.356  0.1422 -0.1178 -0.0740
15475SOL    HW156739   7.596  12.323   5.410  0.6748  0.1144  0.1642
15475SOL    HW256740   7.546  12.466   5.414  0.1437 -0.0599 -0.1381
15476SOL     OW56741   6.060   4.448   6.798 -0.0865  0.3055  0.3155
15476SOL    HW156742   5.982   4.404   6.830  0.0061  1.0721  1.6808
15476SOL    HW256743   6.044   4.541   6.814 -0.3887  0.8956 -2.6918
15477SOL     OW56744   1.163  10.591   6.370  0.1396 -0.3394 -0.2503
15477SOL    HW156745   1.068  10.578   6.371  0.2165 -0.8583  0.5585
15477SOL    HW256746   1.190  10.558   6.284 -0.3601 -0.5274 -0.3399
15478SOL     OW56747   5.634   8.291  11.221 -0.3480 -0.0652 -0.0697
15478SOL    HW156748   5.571   8.274  11.151 -0.6515  1.1406 -0.0985
15478SOL    HW256749   5.612   8.378  11.254  1.8755  0.7859 -0.6972
15479SOL     OW56750   8.201   0.303   0.441 -0.4615 -0.6534  0.0824
15479SOL    HW156751   8.126   0.329   0.495  0.0415 -1.4383  1.2076
15479SOL    HW256752   8.182   0.338   0.354 -0.9125  1.3728  0.9531
15480SOL     OW56753   7.280  11.147  11.913  1.0048  0.1802 -0.0592
15480SOL    HW156754   7.245  11.131  11.825 -0.7673  0.3734  0.5582
15480SOL    HW256755   7.302  11.060  11.946 -0.3831 -0.1511  0.0760
15481SOL     OW56756  12.942   1.869   2.787  0.0305 -0.4172  0.0132
15481SOL    HW156757  12.857   1.826   2.784 -0.5759  0.7710 -0.5719
15481SOL    HW256758  12.960   1.891   2.695  1.1747 -1.0226  0.0720
15482SOL     OW56759  12.683   8.886   3.795  0.4736  0.2203 -0.1536
15482SOL    HW156760  12.685   8.792   3.780  1.8549  0.2860 -0.5914
15482SOL    HW256761  12.752   8.901   3.860  0.5517  0.9592 -0.3965
15483SOL     OW56762  12.272   7.553  12.030 -0.0413 -0.8823  0.4561
15483SOL    HW156763  12.357   7.514  12.006  0.2584  0.1857 -0.3070
15483SOL    HW256764  12.285   7.588  12.118  0.7763  0.4736 -0.1605
15484SOL     OW56765   6.387   8.596  10.550  0.2771 -0.7037 -0.0644
15484SOL    HW156766   6.414   8.582  10.459 -0.5477 -1.8927 -0.1467
15484SOL    HW256767   6.327   8.671  10.545  0.0159 -0.9396 -0.5565
15485SOL     OW56768   5.658   6.503   3.993 -0.7775 -0.5945 -0.0464
15485SOL    HW156769   5.697   6.421   3.961 -0.7707 -0.7374  0.3246
15485SOL    HW256770   5.716   6.571   3.959 -1.7450 -0.6110 -1.8407
15486SOL     OW56771   8.439   1.080   4.350  0.0450  0.2290 -0.2837
15486SOL    HW156772   8.506   1.108   4.288 -0.4674  0.6934 -0.6401
15486SOL    HW256773   8.402   1.162   4.383 -0.0122 -0.0187  0.2762
15487SOL     OW56774   1.553   4.727   3.480 -0.5357  0.1729 -0.5949
15487SOL    HW156775   1.492   4.703   3.411 -1.2645  0.6162 -0.1211
15487SOL    HW256776   1.631   4.674   3.463 -0.5990  0.4648 -1.8923
15488SOL     OW56777   7.450  10.315  11.849  0.4623 -0.3731  0.0421
15488SOL    HW156778   7.369  10.362  11.866 -2.0363 -3.9121 -0.8528
15488SOL    HW256779   7.462  10.259  11.927  0.3727 -1.9327 -1.0148
15489SOL     OW56780  11.904  12.161   8.949  0.0458 -0.0039 -0.2928
15489SOL    HW156781  11.864  12.117   9.024 -0.9766  0.1752 -0.7186
15489SOL    HW256782  11.963  12.226   8.988 -1.1234  0.6868  0.3809
15490SOL     OW56783   8.755   5.133   2.089  0.7494 -0.0489  0.2140
15490SOL    HW156784   8.769   5.057   2.144 -0.3365 -0.0024  0.5800
15490SOL    HW256785   8.771   5.208   2.146  0.6905 -0.0071  0.1766
15491SOL     OW56786   4.604   6.781   4.922  0.4717 -0.1593 -0.1038
15491SOL    HW156787   4.687   6.770   4.969  1.1008  1.1778 -0.8713
15491SOL    HW256788   4.581   6.873   4.935 -0.5945 -0.3668 -0.4144
15492SOL     OW56789  11.516   0.835   0.917 -0.0770  0.1332  0.3533
15492SOL    HW156790  11.427   0.801   0.923 -0.0713  0.0254 -0.1430
15492SOL    HW256791  11.506   0.920   0.874  0.4116 -1.5349 -3.3954
15493SOL     OW56792   7.343   6.100   3.978  0.2358  0.2639  0.3215
15493SOL    HW156793   7.325   6.050   4.057  0.6594  1.2307  1.0542
15493SOL    HW256794   7.330   6.191   4.004 -2.1225  0.5178 -1.3857
15494SOL     OW56795   4.362   7.107  11.493  0.3278 -0.0901 -1.1200
15494SOL    HW156796   4.391   7.108  11.401  0.1484 -2.2716 -1.2496
15494SOL    HW256797   4.366   7.015  11.518 -0.6566  0.3410  0.7545
15495SOL     OW56798   3.542   9.624   6.840 -0.2855 -0.1788  0.3060
15495SOL    HW156799   3.610   9.591   6.781 -0.1582 -1.3873  1.0889
15495SOL    HW256800   3.462   9.580   6.813 -1.0927  2.1556 -1.4035
15496SOL     OW56801   5.095  10.655   7.699 -0.2486  0.1657  0.8115
15496SOL    HW156802   5.022  10.593   7.699 -0.6528  0.6321  0.1631
15496SOL    HW256803   5.147  10.630   7.775 -0.6315 -0.7027  0.8048
15497SOL     OW56804   1.613   6.655  11.010 -0.7397 -0.1982 -0.4518
15497SOL    HW156805   1.531   6.605  11.013  1.1068 -3.4506  0.7293
15497SOL    HW256806   1.660   6.620  10.935  1.5213 -2.0542  1.6515
15498SOL     OW56807   7.570   0.681  12.375 -0.2505  0.1117 -0.6435
15498SOL    HW156808   7.510   0.635  12.316 -1.9263  0.1561  0.9460
15498SOL    HW256809   7.561   0.635  12.458  1.6842  0.3708 -0.2598
15499SOL     OW56810   3.850  11.549   9.291 -0.2224  0.2547  0.6242
15499SOL    HW156811   3.754  11.549   9.294 -0.2240 -0.9156  2.4565
15499SOL    HW256812   3.873  11.640   9.273 -1.6661  0.6332  0.5073
15500SOL     OW56813   8.618   2.038   3.676 -0.1101  0.6442  0.5838
15500SOL    HW156814   8.680   2.110   3.677 -0.6051  1.0897  1.9930
15500SOL    HW256815   8.532   2.079   3.688 -0.7306  0.0517 -1.4082
15501SOL     OW56816   8.462   7.097   2.560 -0.5773  0.1504 -0.1578
15501SOL    HW156817   8.369   7.118   2.552 -0.6698  0.6116  1.6512
15501SOL    HW256818   8.494   7.157   2.628  1.1151  0.1880 -0.9284
15502SOL     OW56819   4.429   6.146   1.817  0.0772  0.4610  0.9433
15502SOL    HW156820   4.376   6.187   1.885 -1.6963 -1.3263  0.7193
15502SOL    HW256821   4.435   6.213   1.748 -2.1435  0.6396  0.8604
15503SOL     OW56822   5.488   2.779   4.920 -0.4262  0.0660 -0.2058
15503SOL    HW156823   5.450   2.864   4.941 -1.4796 -0.6947  1.1320
15503SOL    HW256824   5.422   2.715   4.947  1.1696 -1.2556  0.8589
15504SOL     OW56825   0.882   1.697   5.317  0.1966 -1.0307  0.1771
15504SOL    HW156826   0.816   1.657   5.260 -2.1945  1.2061  1.1426
15504SOL    HW256827   0.846   1.687   5.405  1.6255 -0.5220  0.8428
15505SOL     OW56828   0.737   1.098   2.994 -0.0296 -0.6006 -0.7578
15505SOL    HW156829   0.772   1.140   3.073 -2.1356 -0.0770 -0.0073
15505SOL    HW256830   0.810   1.050   2.957  1.1009 -0.6616  1.3896
15506SOL     OW56831  12.477   0.963  10.274  0.2730  0.1073 -0.1550
15506SOL    HW156832  12.556   0.948  10.325 -0.9364 -1.6162  1.3555
15506SOL    HW256833  12.504   0.954  10.182  1.9375  0.3870  0.2888
15507SOL     OW56834   7.455   3.451   1.914  0.0162  0.2681 -0.2676
15507SOL    HW156835   7.432   3.513   1.845  0.2051  1.5273  0.7728
15507SOL    HW256836   7.550   3.447   1.913 -0.0051 -0.4525 -0.6859
15508SOL     OW56837   8.685   2.770   3.459 -0.2985  0.3749 -0.2084
15508SOL    HW156838   8.642   2.685   3.463  1.2169 -0.5053 -1.3594
15508SOL    HW256839   8.734   2.776   3.541  0.4351 -0.3687 -0.5751
15509SOL     OW56840   8.545   2.818   5.755 -0.2915  0.3127  0.0857
15509SOL    HW156841   8.483   2.764   5.804  0.3593  0.3399  0.9660
15509SOL    HW256842   8.631   2.786   5.782  0.1220 -0.6827 -2.1879
15510SOL     OW56843   4.178   6.730   5.549  0.5463 -0.3125 -0.2044
15510SOL    HW156844   4.147   6.758   5.463 -0.5852 -0.5194  0.1293
15510SOL    HW256845   4.102   6.736   5.606  1.1346 -0.7607  0.6536
15511SOL     OW56846   4.625   5.486   7.776 -0.5069  0.2918  0.4349
15511SOL    HW156847   4.648   5.397   7.749 -1.4552 -0.2519  1.3372
15511SOL    HW256848   4.705   5.519   7.817  0.1161  0.1800 -0.6397
15512SOL     OW56849   7.605   2.907   8.386  0.2483  0.2558 -0.0070
15512SOL    HW156850   7.644   2.910   8.474  0.2567 -0.8020  0.0289
15512SOL    HW256851   7.531   2.968   8.391 -0.6651 -0.9093  1.1830
15513SOL     OW56852   5.115  11.203  12.477  0.0968  0.2232 -0.3338
15513SOL    HW156853   5.085  11.222  12.566 -0.1401 -1.2557 -0.0723
15513SOL    HW256854   5.038  11.165  12.434  0.9890 -1.7421 -0.2770
15514SOL     OW56855   0.504   2.945   3.731 -0.4894  0.0527 -0.3081
15514SOL    HW156856   0.547   2.921   3.813  3.5857  1.3399 -1.8053
15514SOL    HW256857   0.478   3.036   3.744  0.2847  0.3014 -0.4710
15515SOL     OW56858   5.326   1.394   0.638 -0.2392  0.2789 -0.3853
15515SOL    HW156859   5.298   1.453   0.708  0.6578  1.2043 -0.7855
15515SOL    HW256860   5.269   1.416   0.564 -1.1874 -0.6990  0.0324
15516SOL     OW56861   8.818   2.784   3.077 -0.1141  0.1147  0.0137
15516SOL    HW156862   8.886   2.786   3.144 -1.1095  0.1306  1.0628
15516SOL    HW256863   8.764   2.861   3.096  0.3504  0.8987 -1.6617
15517SOL     OW56864   5.423   7.987   3.436  0.8593 -0.3143  0.5520
15517SOL    HW156865   5.370   7.990   3.356 -0.6783 -0.0215  1.5239
15517SOL    HW256866   5.381   8.051   3.494  2.2966 -0.0947  1.3955
15518SOL     OW56867   7.503  11.462   4.788 -0.1256 -0.4983  0.3971
15518SOL    HW156868   7.582  11.466   4.733  0.9405 -0.1748  1.8980
15518SOL    HW256869   7.481  11.369   4.792 -0.5149 -0.4889 -0.9386
15519SOL     OW56870   7.946   5.067   3.070  0.2298  0.0413 -0.0700
15519SOL    HW156871   7.978   5.109   3.150 -1.8586 -0.0722  0.8861
15519SOL    HW256872   7.865   5.024   3.096 -0.1493 -0.5990 -2.1143
15520SOL     OW56873  11.261   6.461   1.808 -0.2689  0.0268  0.3293
15520SOL    HW156874  11.218   6.404   1.744 -1.5238 -0.0339  1.2112
15520SOL    HW256875  11.265   6.546   1.765  1.1243 -0.5489 -0.7807
15521SOL     OW56876  10.261  11.235   8.348 -0.0447  0.0820  1.1280
15521SOL    HW156877  10.201  11.296   8.305  1.9770  1.1014 -0.4184
15521SOL    HW256878  10.212  11.153   8.354 -0.9566  0.2951 -1.8980
15522SOL     OW56879   0.725   9.874   8.570  0.3304  0.1742 -0.4460
15522SOL    HW156880   0.790   9.912   8.628  1.1085 -0.9178 -0.5747
15522SOL    HW256881   0.736   9.921   8.487  2.4526 -1.4023 -1.1381
15523SOL     OW56882  12.192  12.118   4.310 -0.1450  0.3184  0.6482
15523SOL    HW156883  12.244  12.108   4.230 -0.4932  0.3614  0.4163
15523SOL    HW256884  12.249  12.084   4.379 -0.2958 -0.8593  0.2197
15524SOL     OW56885   5.863   5.969   6.900  0.2352  0.2250  0.3033
15524SOL    HW156886   5.892   6.060   6.894 -1.8857  0.8693 -1.7476
15524SOL    HW256887   5.771   5.975   6.926  0.2852 -1.4183  1.0220
15525SOL     OW56888   0.262  11.925   8.173 -0.1190  0.5823 -0.2249
15525SOL    HW156889   0.226  12.000   8.221  0.4680  0.2375  0.7792
15525SOL    HW256890   0.221  11.930   8.087 -1.8546  0.7519  0.5671
15526SOL     OW56891   6.200  11.581   6.245  0.5320  0.3484 -0.2706
15526SOL    HW156892   6.274  11.583   6.305  0.1118 -1.0095  0.3442
15526SOL    HW256893   6.202  11.492   6.208 -0.9763  0.1575  0.0434
15527SOL     OW56894   3.675   0.630   5.190 -0.3708  0.3094  0.0107
15527SOL    HW156895   3.654   0.682   5.113 -0.7414 -0.1657 -0.2180
15527SOL    HW256896   3.590   0.602   5.224 -0.1705 -0.5017 -0.1283
15528SOL     OW56897   4.872   0.400   6.394 -0.6464 -0.2229  0.1392
15528SOL    HW156898   4.943   0.405   6.458 -0.5797 -0.1212  0.0596
15528SOL    HW256899   4.804   0.349   6.436 -0.4221 -0.5406  0.1200
15529SOL     OW56900   6.616   3.449   5.232 -0.6531 -0.5018 -0.2412
15529SOL    HW156901   6.614   3.403   5.316  1.2986  1.1302  0.7772
15529SOL    HW256902   6.527   3.437   5.196 -1.1606 -2.2814  1.4355
15530SOL     OW56903   3.676   8.208   9.162 -0.2202  0.0966  0.0484
15530SOL    HW156904   3.687   8.180   9.071  1.9483  3.6254 -0.9718
15530SOL    HW256905   3.722   8.142   9.214 -1.2265 -1.8163 -1.3819
15531SOL     OW56906   0.496   7.950   8.761  0.0760 -0.2202 -0.0339
15531SOL    HW156907   0.562   7.882   8.773 -3.4787 -3.9033  0.7882
15531SOL    HW256908   0.486   7.989   8.847  0.0733 -0.7594  0.2134
15532SOL     OW56909   5.638   0.517   6.330 -0.1048  0.8568 -0.5067
15532SOL    HW156910   5.582   0.467   6.271  0.7362  2.1784 -2.5218
15532SOL    HW256911   5.614   0.608   6.316  1.0079  1.2993  0.2526
15533SOL     OW56912   0.613  11.105   3.231 -0.4076  0.5540 -0.5000
15533SOL    HW156913   0.651  11.162   3.164  0.3283  0.8808  0.1787
15533SOL    HW256914   0.684  11.091   3.294 -1.2393  0.7126  0.5017
15534SOL     OW56915   4.581   2.513   5.270 -0.4433 -0.0716  0.1985
15534SOL    HW156916   4.620   2.430   5.244  2.8830  0.8710  1.6548
15534SOL    HW256917   4.564   2.504   5.364 -2.0450  0.2219 -0.0379
15535SOL     OW56918   6.245  10.850   5.968  0.0665 -0.9337 -0.5292
15535SOL    HW156919   6.214  10.788   5.903  0.2414 -0.6264 -0.9062
15535SOL    HW256920   6.245  10.935   5.924 -1.7405 -0.3714  0.4690
15536SOL     OW56921   6.317   4.853   3.303 -0.0622 -0.0029  0.0304
15536SOL    HW156922   6.274   4.910   3.240  0.2815 -0.5988 -0.7547
15536SOL    HW256923   6.410   4.859   3.282 -0.1121 -1.8491 -0.9397
15537SOL     OW56924   6.337  12.798  10.821 -0.0922 -0.3058 -0.5190
15537SOL    HW156925   6.337  12.712  10.780  1.1334  0.4447 -2.2152
15537SOL    HW256926   6.341  12.860  10.748  0.8543  1.1372  0.6944
15538SOL     OW56927   8.569  10.592   2.316  0.3830 -0.3076  0.0308
15538SOL    HW156928   8.619  10.511   2.321  1.4647  0.3687  0.5741
15538SOL    HW256929   8.547  10.601   2.223 -0.4426 -1.6034  0.0777
15539SOL     OW56930   9.260   2.176  12.210  0.2981 -0.1273 -0.6839
15539SOL    HW156931   9.176   2.164  12.255  0.6966 -1.9819 -0.3815
15539SOL    HW256932   9.261   2.269  12.188 -2.1974 -0.2054 -1.4400
15540SOL     OW56933   9.212   0.996   5.769 -0.1887 -0.3249 -0.0240
15540SOL    HW156934   9.212   1.090   5.753 -0.2224 -0.3145  0.0369
15540SOL    HW256935   9.294   0.965   5.730  0.0332 -0.2016  0.3423
15541SOL     OW56936   0.791   2.113   6.420  0.3979  0.0366  0.2446
15541SOL    HW156937   0.862   2.177   6.413  0.6243 -0.1969  0.3723
15541SOL    HW256938   0.740   2.125   6.340  1.0222 -0.3077 -0.2158
15542SOL     OW56939   2.559  12.793   1.261  0.5162 -0.3964 -0.4420
15542SOL    HW156940   2.523  12.765   1.177  1.6826 -1.3309 -0.6623
15542SOL    HW256941   2.548  12.888   1.262  1.8666 -0.1745 -2.3474
15543SOL     OW56942   0.293   1.570  12.450 -0.3094  0.2559  0.0784
15543SOL    HW156943   0.318   1.522  12.371 -2.3152 -0.5559 -0.1287
15543SOL    HW256944   0.255   1.651  12.417 -0.6905  0.1396  0.2296
15544SOL     OW56945  11.114  12.950   8.080 -0.6461  0.5156  0.0351
15544SOL    HW156946  11.076  12.982   8.162  0.5951  0.4087  0.6874
15544SOL    HW256947  11.123  12.855   8.093  0.7740  0.6587  0.3456
15545SOL     OW56948   8.540   8.076   0.921 -0.2513  0.5854 -0.3360
15545SOL    HW156949   8.599   8.150   0.939  0.0642  0.5085 -1.0230
15545SOL    HW256950   8.572   8.006   0.977 -0.0895  0.7428 -0.2287
15546SOL     OW56951  10.883  10.663  11.433  0.4714  0.0916  0.5403
15546SOL    HW156952  10.819  10.595  11.414  2.2343 -1.6224  0.3597
15546SOL    HW256953  10.855  10.738  11.380  0.3777 -1.6659 -2.1423
15547SOL     OW56954  11.940   2.460  11.196 -0.1245 -0.1251 -0.0802
15547SOL    HW156955  11.846   2.471  11.183 -0.0411 -1.7008 -2.6882
15547SOL    HW256956  11.971   2.546  11.225 -1.9144  1.4390 -2.4230
15548SOL     OW56957   8.590   9.149  10.129  0.4228 -0.4484 -0.0566
15548SOL    HW156958   8.518   9.095  10.161  0.0681  0.0109 -0.0672
15548SOL    HW256959   8.626   9.100  10.056  1.1380 -1.4380  0.9291
15549SOL     OW56960  12.114  10.440  11.195 -0.5618 -1.5531  0.3646
15549SOL    HW156961  12.084  10.471  11.109  0.6054  0.8924  0.7714
15549SOL    HW256962  12.140  10.349  11.179  0.3401 -0.9582 -2.0735
15550SOL     OW56963   0.012   7.489  10.267  0.6181 -0.0227  0.3701
15550SOL    HW156964   0.013   7.583  10.247 -0.3252 -0.2796 -1.0013
15550SOL    HW256965  -0.073   7.474  10.308 -0.0432 -0.5737 -1.1237
15551SOL     OW56966   4.155   5.601   0.054 -0.8428 -0.4925 -0.0648
15551SOL    HW156967   4.225   5.547   0.090 -0.8883 -1.7676 -1.7442
15551SOL    HW256968   4.088   5.538   0.027 -1.5922  0.5217 -0.6514
15552SOL     OW56969   8.583   1.107  11.977 -0.3666 -0.6908 -0.4676
15552SOL    HW156970   8.613   1.194  12.002 -1.0070 -0.3518 -0.8551
15552SOL    HW256971   8.537   1.074  12.054 -0.0012 -0.7451 -0.2713
15553SOL     OW56972   2.182   8.119   1.760  0.3040  0.0619 -0.5617
15553SOL    HW156973   2.199   8.025   1.754  0.6185  0.0439  0.5102
15553SOL    HW256974   2.253   8.159   1.710  1.2990 -0.1915  0.6299
15554SOL     OW56975   9.294   7.372   4.298 -0.2805  0.0176  0.3731
15554SOL    HW156976   9.278   7.289   4.344  1.1525 -0.6177 -0.2226
15554SOL    HW256977   9.338   7.428   4.361 -1.2110  0.3288  0.7630
15555SOL     OW56978  11.606  10.062   3.288 -0.5666  0.8428 -0.2372
15555SOL    HW156979  11.605  10.113   3.207  0.3487  1.2368 -0.0184
15555SOL    HW256980  11.636   9.975   3.262 -1.2782  0.6687 -0.4790
15556SOL     OW56981   0.320   9.981   0.009 -0.8090 -0.2196  0.1680
15556SOL    HW156982   0.312  10.010  -0.082  1.6771  1.3593  0.3655
15556SOL    HW256983   0.308  10.060   0.061 -1.8000 -1.0335  1.2398
15557SOL     OW56984   4.998  11.753  10.214  0.7387  0.8517  0.0725
15557SOL    HW156985   5.017  11.660  10.228 -0.0932  0.3793 -1.6941
15557SOL    HW256986   4.905  11.762  10.236  0.9179  1.3733  0.6465
15558SOL     OW56987   9.581   2.413   5.903 -0.2402  0.1522 -0.1550
15558SOL    HW156988   9.622   2.348   5.961 -1.2672 -0.5795 -0.2319
15558SOL    HW256989   9.570   2.367   5.820  0.0404  0.7891 -0.5519
15559SOL     OW56990   3.354  10.080   8.016 -0.2507 -0.0416  0.5127
15559SOL    HW156991   3.444  10.088   8.048  0.9192 -1.4295 -2.1631
15559SOL    HW256992   3.306  10.149   8.062  2.2012  0.8839  1.8563
15560SOL     OW56993   2.236   7.611   3.788 -0.0585  0.0055 -0.1981
15560SOL    HW156994   2.286   7.669   3.729  0.5682 -0.7320 -0.4204
15560SOL    HW256995   2.217   7.665   3.864 -0.3355  0.7944 -0.8123
15561SOL     OW56996   6.589  12.775   1.367 -0.5075 -0.0451  0.2994
15561SOL    HW156997   6.503  12.811   1.386  0.5746  3.2342 -0.4519
15561SOL    HW256998   6.650  12.828   1.419  1.1865 -1.2509 -0.3530
15562SOL     OW56999   2.921  11.458   4.246  0.0154 -0.1883  0.2277
15562SOL    HW157000   2.985  11.389   4.230  1.1755  0.8705  0.1278
15562SOL    HW257001   2.851  11.441   4.184 -0.5933 -2.2992  1.4221
15563SOL     OW57002   9.985   4.295   4.416 -1.0243 -0.6367  0.2264
15563SOL    HW157003   9.905   4.324   4.462 -0.3784  1.0120  0.4032
15563SOL    HW257004  10.053   4.353   4.450 -0.2464 -0.3058 -1.7984
15564SOL     OW57005   3.421   5.924   2.334  0.4203  0.3727  0.3956
15564SOL    HW157006   3.506   5.881   2.344  0.8518  1.5076  2.0003
15564SOL    HW257007   3.381   5.918   2.421 -0.6606  0.8460 -0.0535
15565SOL     OW57008   0.939   8.656   7.531 -0.0511  0.2650 -0.2482
15565SOL    HW157009   0.912   8.597   7.601  0.2251  1.0973  0.5803
15565SOL    HW257010   0.992   8.602   7.472  0.4718 -0.2317  0.6645
15566SOL     OW57011   7.753   9.293   3.296  0.1311  0.3588 -0.2104
15566SOL    HW157012   7.826   9.355   3.288  0.0287  0.7161  1.2497
15566SOL    HW257013   7.777   9.219   3.241  1.6994  0.3935  0.3781
15567SOL     OW57014   9.318   9.615  12.098 -0.0968 -0.3896  0.1273
15567SOL    HW157015   9.400   9.613  12.147  0.4261 -1.5798 -0.7566
15567SOL    HW257016   9.251   9.630  12.165  0.9431  2.8692  0.6335
15568SOL     OW57017   2.555  12.584   0.811  0.0966 -0.5084  0.6353
15568SOL    HW157018   2.540  12.552   0.900 -0.6793  1.4494  1.2601
15568SOL    HW257019   2.509  12.522   0.754 -0.4890 -1.0542  1.6862
15569SOL     OW57020   6.204   1.659   8.031 -0.4467 -0.3692  0.1373
15569SOL    HW157021   6.177   1.685   7.943 -0.9254 -0.8558  0.1309
15569SOL    HW257022   6.194   1.738   8.083  0.7770  0.1805 -0.4373
15570SOL     OW57023  10.745  11.617  12.129 -0.1992  0.1305  0.6016
15570SOL    HW157024  10.727  11.561  12.054 -0.1234  1.5500 -0.5169
15570SOL    HW257025  10.838  11.639  12.121 -0.4077  1.0241  0.5854
15571SOL     OW57026   4.008   4.002   3.382 -0.1403 -0.3868 -0.4247
15571SOL    HW157027   4.026   3.979   3.473 -0.7019 -0.7829 -0.4107
15571SOL    HW257028   4.048   4.089   3.371 -0.5245 -0.1003  0.3529
15572SOL     OW57029  12.801   0.909   3.632  0.0337 -0.4980  0.2087
15572SOL    HW157030  12.872   0.928   3.694 -0.8636  1.3014  0.7639
15572SOL    HW257031  12.740   0.854   3.682 -1.1046  1.6427  1.3021
15573SOL     OW57032   0.145   7.757   4.000  0.3532  0.2611 -0.2784
15573SOL    HW157033   0.076   7.819   3.977  0.1223 -0.1385 -0.6897
15573SOL    HW257034   0.127   7.680   3.946  2.1812  0.8000 -1.7845
15574SOL     OW57035   7.368   4.246   7.468 -0.3774  0.1314 -0.0694
15574SOL    HW157036   7.434   4.186   7.502 -0.1926  0.5142  0.2622
15574SOL    HW257037   7.414   4.299   7.403 -0.5566 -0.1335 -0.4119
15575SOL     OW57038   9.218   9.156   2.025 -0.8460  0.1879  0.3036
15575SOL    HW157039   9.123   9.148   2.012 -0.7723  1.0774 -0.8670
15575SOL    HW257040   9.231   9.247   2.050 -0.0657  0.7297 -1.9119
15576SOL     OW57041   1.852   0.876   2.907 -0.0968 -0.7711  0.2120
15576SOL    HW157042   1.791   0.897   2.978  0.0267  1.4735 -0.2617
15576SOL    HW257043   1.926   0.833   2.951  0.3294  1.2508  1.6466
15577SOL     OW57044   3.182   8.011  11.422  0.1755  0.2154  0.5165
15577SOL    HW157045   3.123   8.065  11.474  3.0630  1.7804  2.3742
15577SOL    HW257046   3.228   8.073  11.365  2.6753 -0.3609  1.8118
15578SOL     OW57047   9.267   1.929   4.852 -0.5002 -0.4690 -0.0304
15578SOL    HW157048   9.332   1.973   4.797 -1.3435 -0.9509 -1.4691
15578SOL    HW257049   9.256   1.842   4.813 -1.5260 -0.6339  0.5692
15579SOL     OW57050   6.022   6.980   1.438 -0.5204  0.0045 -0.4357
15579SOL    HW157051   5.970   7.024   1.372  0.0313  0.2220 -0.7364
15579SOL    HW257052   6.110   6.974   1.400 -0.4645 -0.9166 -0.2083
15580SOL     OW57053   6.064   8.983   2.461  0.1053  0.1589  0.2401
15580SOL    HW157054   6.157   9.003   2.471 -0.1607  1.1601  0.8431
15580SOL    HW257055   6.062   8.892   2.430  1.3001  0.4383 -0.7034
15581SOL     OW57056   4.944   6.191   7.443  0.6451 -0.3687  0.4158
15581SOL    HW157057   4.941   6.256   7.513 -0.9553 -0.8173  0.7917
15581SOL    HW257058   5.023   6.214   7.393 -1.6557  4.2482 -1.7504
15582SOL     OW57059   6.034   3.101   4.633  0.3313  0.6140  0.6000
15582SOL    HW157060   6.107   3.043   4.649  0.0150  0.5492  1.9121
15582SOL    HW257061   6.074   3.185   4.609  0.8030  0.3236  0.3699
15583SOL     OW57062   0.259   7.577   1.971 -1.2061 -0.1631  0.6241
15583SOL    HW157063   0.291   7.660   2.006  0.1545  0.5057 -1.9812
15583SOL    HW257064   0.246   7.593   1.878 -2.9982 -2.3016  0.4179
15584SOL     OW57065   0.955   6.081  12.078 -0.5691  0.3213  0.2218
15584SOL    HW157066   0.969   6.001  12.128 -0.7334 -0.1839 -0.5230
15584SOL    HW257067   1.037   6.095  12.031 -0.3056  0.9640  0.8485
15585SOL     OW57068   5.568   6.676  10.508  0.4988  0.2105 -0.0349
15585SOL    HW157069   5.635   6.739  10.537 -0.7969  1.6644 -0.0574
15585SOL    HW257070   5.492   6.730  10.487 -0.3702 -1.3069 -0.9809
15586SOL     OW57071   1.585  12.523   6.662  0.2655  0.0037  0.3573
15586SOL    HW157072   1.614  12.569   6.583 -0.0782 -0.5789 -0.1136
15586SOL    HW257073   1.543  12.591   6.715 -2.3043 -0.1301 -1.3279
15587SOL     OW57074   0.630   3.837   2.080  0.4401  0.4945 -0.0073
15587SOL    HW157075   0.714   3.835   2.034 -0.3330  0.2620 -1.4771
15587SOL    HW257076   0.585   3.913   2.043 -0.0043  0.6059  0.7543
15588SOL     OW57077   4.143  11.879  12.662 -0.1116 -0.3020  0.7590
15588SOL    HW157078   4.118  11.923  12.580 -2.9795 -0.4363  1.4646
15588SOL    HW257079   4.175  11.793  12.634  0.6888  0.3126 -0.3042
15589SOL     OW57080   1.132   2.530   2.738  0.2431 -0.2680  0.2802
15589SOL    HW157081   1.123   2.518   2.643  0.8105  0.6163  0.1059
15589SOL    HW257082   1.225   2.516   2.755  0.1990 -0.1002  0.6605
15590SOL     OW57083   9.055   4.095   3.707  0.2057  0.1043 -0.3832
15590SOL    HW157084   9.031   4.017   3.656  0.6981 -0.5770  0.4064
15590SOL    HW257085   8.973   4.122   3.749  0.0520 -0.0281 -0.5934
15591SOL     OW57086   4.553   5.077   7.453  0.6468  0.0627  0.1126
15591SOL    HW157087   4.570   5.053   7.362 -1.0321  0.4243 -0.3324
15591SOL    HW257088   4.599   5.161   7.464  0.5222  0.2234 -0.5298
15592SOL     OW57089  11.088   4.212   1.112  0.4328  0.8777  0.2868
15592SOL    HW157090  11.054   4.270   1.043 -0.7105 -1.2372 -1.0139
15592SOL    HW257091  11.180   4.239   1.122 -0.0387  2.8732 -0.2599
15593SOL     OW57092   8.344   1.104   9.441 -1.1611 -0.5732 -0.2623
15593SOL    HW157093   8.287   1.098   9.364 -2.2428  2.5072  0.1712
15593SOL    HW257094   8.288   1.076   9.513 -1.3908  0.1636 -0.1455
15594SOL     OW57095   2.129   1.857   2.329  0.3220 -0.5193  0.0642
15594SOL    HW157096   2.034   1.850   2.340  0.0992  1.0494 -0.6048
15594SOL    HW257097   2.162   1.874   2.418 -0.1114 -0.3362  0.1943
15595SOL     OW57098   1.630   5.812   9.515  0.0847  0.1158  0.0677
15595SOL    HW157099   1.676   5.882   9.468  0.6949  0.4215  1.0902
15595SOL    HW257100   1.658   5.822   9.606 -1.3936 -0.1973  0.5840
15596SOL     OW57101   8.127   0.781   6.674 -0.2986  0.6628  0.1184
15596SOL    HW157102   8.207   0.737   6.701  0.0732  0.8514 -0.6315
15596SOL    HW257103   8.115   0.850   6.739  0.4812  1.0085 -0.0905
15597SOL     OW57104   3.548   3.698   8.565 -0.6276  0.0606  0.2093
15597SOL    HW157105   3.483   3.726   8.630 -0.4133  0.8804  0.0775
15597SOL    HW257106   3.497   3.654   8.497 -0.9089 -0.3594  0.6869
15598SOL     OW57107   9.819  12.884   5.732 -0.2600  0.2727  0.1992
15598SOL    HW157108   9.812  12.805   5.678  3.1160  0.0020 -0.0959
15598SOL    HW257109   9.806  12.854   5.822 -0.1641 -0.4220 -0.0131
15599SOL     OW57110  11.200   1.239   7.459 -1.0675  0.7165 -0.0217
15599SOL    HW157111  11.180   1.146   7.447  1.0852  0.2095 -0.0249
15599SOL    HW257112  11.130   1.284   7.411 -2.3833 -0.8620  0.2939
15600SOL     OW57113   9.937   0.577   4.704  0.1878  0.3619 -1.1523
15600SOL    HW157114   9.992   0.502   4.682 -0.6496 -0.5489 -0.2763
15600SOL    HW257115   9.926   0.570   4.799 -0.2564  1.3566 -1.1282
15601SOL     OW57116   9.072   9.439  12.939 -0.9252  0.6381 -0.0162
15601SOL    HW157117   9.144   9.492  12.905 -1.4947  1.4181 -0.0224
15601SOL    HW257118   9.106   9.349  12.937  0.5916  1.1250  1.3384
15602SOL     OW57119   8.950   1.720   0.199  0.1153 -0.0619  0.2980
15602SOL    HW157120   8.898   1.727   0.119  0.4648  0.6172  0.1169
15602SOL    HW257121   8.886   1.716   0.269 -0.2284  1.9153  0.1720
15603SOL     OW57122   6.979   8.197   8.538 -0.1710  0.1417  0.4069
15603SOL    HW157123   7.064   8.186   8.580 -0.8551 -2.3596  1.3456
15603SOL    HW257124   6.933   8.260   8.593  0.3519 -0.0820  1.1128
15604SOL     OW57125   5.754   8.418   1.960 -0.0262 -0.7639  0.2472
15604SOL    HW157126   5.802   8.456   1.886 -2.2828 -0.9307 -1.4126
15604SOL    HW257127   5.801   8.337   1.981  2.4224  0.7888  1.0832
15605SOL     OW57128  12.904   5.391   5.811 -0.4743 -0.0608  0.0732
15605SOL    HW157129  12.817   5.409   5.845 -0.1721 -0.3983  1.0742
15605SOL    HW257130  12.917   5.297   5.828 -0.5873 -0.4273 -1.6531
15606SOL     OW57131   2.029   4.879   3.590 -0.8609 -0.1762  0.3298
15606SOL    HW157132   1.988   4.816   3.650  0.8224 -1.6070  0.0676
15606SOL    HW257133   2.123   4.871   3.609 -0.5905  2.4352  0.4100
15607SOL     OW57134   3.451   4.186   7.667  0.0274  0.2349 -0.4384
15607SOL    HW157135   3.410   4.243   7.602 -0.2728  0.2259 -0.2590
15607SOL    HW257136   3.540   4.221   7.677 -0.0378  0.4491 -0.5977
15608SOL     OW57137   7.663   5.125   6.702 -0.5270 -0.5649  0.6031
15608SOL    HW157138   7.750   5.106   6.738 -0.4094  0.5663  0.9411
15608SOL    HW257139   7.616   5.167   6.773 -1.0809 -0.4332  0.1642
15609SOL     OW57140   5.126   4.163  12.132  0.1993 -0.1995 -0.3672
15609SOL    HW157141   5.072   4.234  12.098  0.2042 -0.3181 -0.6242
15609SOL    HW257142   5.064   4.092  12.151  0.2101 -0.1734 -0.2281
15610SOL     OW57143  10.795  10.305   7.547  0.0277  0.1496  0.0239
15610SOL    HW157144  10.844  10.335   7.624  0.4260  1.2595 -0.6349
15610SOL    HW257145  10.863  10.273   7.487 -0.0137  1.6556 -0.8780
15611SOL     OW57146   4.830   2.295   8.151 -0.3142  0.0069 -0.4182
15611SOL    HW157147   4.828   2.211   8.197  0.0246  0.6401  0.7688
15611SOL    HW257148   4.921   2.307   8.125 -0.3220  0.1156 -0.3968
15612SOL     OW57149   1.636   5.908   0.901 -0.2411  0.2098 -0.1701
15612SOL    HW157150   1.692   5.980   0.932  0.9437 -0.9660  0.5631
15612SOL    HW257151   1.682   5.873   0.825 -0.6703  0.0528 -0.3588
15613SOL     OW57152  11.033   8.997  12.182  0.0378  0.2659  0.1367
15613SOL    HW157153  11.118   9.014  12.221  0.7773  1.2357 -1.7685
15613SOL    HW257154  11.048   9.001  12.088 -2.2245  1.1736 -0.2580
15614SOL     OW57155  11.666   6.840   0.181  0.4653  0.2420  0.3450
15614SOL    HW157156  11.737   6.897   0.151  0.3933  0.0054 -0.2807
15614SOL    HW257157  11.707   6.786   0.249  1.2621 -0.8351 -0.9507
15615SOL     OW57158   4.840   0.945   4.582 -0.2280 -0.4755  0.1620
15615SOL    HW157159   4.850   0.948   4.487  0.3700 -1.5941  0.1688
15615SOL    HW257160   4.850   0.852   4.603  0.2359 -0.1573  1.3868
15616SOL     OW57161   7.942  10.099   2.973 -0.1612  0.2427 -0.2411
15616SOL    HW157162   7.902  10.112   2.887 -0.8878 -0.3863 -0.0078
15616SOL    HW257163   8.003  10.172   2.982  1.3376 -0.7009 -2.0740
15617SOL     OW57164   8.081   8.810   1.492  0.7532  0.1566  0.3435
15617SOL    HW157165   8.003   8.818   1.438  1.1188  0.6689 -0.1228
15617SOL    HW257166   8.145   8.868   1.451  1.6867 -0.9423  0.1812
15618SOL     OW57167   5.141   7.323   2.419  0.0637 -1.0000 -0.2306
15618SOL    HW157168   5.169   7.248   2.368  0.4788  0.1733 -1.8322
15618SOL    HW257169   5.168   7.304   2.509  1.3898 -2.1495 -0.8444
15619SOL     OW57170   7.464   0.468  11.375  0.1671  0.1901 -0.3872
15619SOL    HW157171   7.448   0.377  11.353  2.2818 -0.0768 -1.0986
15619SOL    HW257172   7.486   0.510  11.292  0.3065  1.0800  0.0793
15620SOL     OW57173   5.693   8.473  10.505 -0.8456  0.2060  0.7397
15620SOL    HW157174   5.603   8.444  10.490 -0.5136 -0.2190 -0.5679
15620SOL    HW257175   5.735   8.466  10.419  0.7212 -0.6046  1.5426
15621SOL     OW57176   1.435   8.687   1.737 -0.0295  0.2392 -0.1722
15621SOL    HW157177   1.437   8.625   1.664  1.3158  1.6300 -1.3538
15621SOL    HW257178   1.460   8.634   1.813  0.3180 -0.8378 -1.0139
15622SOL     OW57179   6.407   8.913  11.216 -0.3611  0.4514  0.2412
15622SOL    HW157180   6.355   8.833  11.210  1.6868 -0.8336 -1.6911
15622SOL    HW257181   6.494   8.883  11.241  0.4742  2.0861 -0.5990
15623SOL     OW57182   1.732   1.123   1.464  0.0698  0.2760 -0.2258
15623SOL    HW157183   1.695   1.136   1.377  0.9321  0.2099 -0.6135
15623SOL    HW257184   1.808   1.180   1.467  0.1997  0.0803  0.3953
15624SOL     OW57185   7.644   3.593   2.987  0.0464 -0.1455 -0.1777
15624SOL    HW157186   7.717   3.599   3.049  0.9674  1.0206 -1.3078
15624SOL    HW257187   7.567   3.576   3.041  0.9809 -0.2706  1.1618
15625SOL     OW57188   1.595   7.504   8.888  0.3249 -0.2137 -0.2748
15625SOL    HW157189   1.688   7.523   8.893  0.1493  0.6400  0.0716
15625SOL    HW257190   1.555   7.564   8.951 -0.6542  0.8182 -1.8045
15626SOL     OW57191   3.705   2.072  12.805 -0.7926  0.2948 -0.4551
15626SOL    HW157192   3.699   2.085  12.710 -0.1064  1.5086 -0.3608
15626SOL    HW257193   3.748   1.987  12.815 -0.3882  0.3918 -1.2487
15627SOL     OW57194   2.587   2.500   4.162  0.7036 -0.0776  0.3394
15627SOL    HW157195   2.526   2.528   4.094 -1.5919 -1.8592  1.5131
15627SOL    HW257196   2.624   2.418   4.128  2.9446  1.2159 -0.5703
15628SOL     OW57197   6.798  10.754   5.567 -0.4819  0.0710  0.0383
15628SOL    HW157198   6.723  10.797   5.525 -0.3539  1.1004  0.8528
15628SOL    HW257199   6.784  10.661   5.548 -1.8155  0.2658 -0.0709
15629SOL     OW57200  12.393   1.394  11.703 -0.2524 -0.0490  0.3325
15629SOL    HW157201  12.376   1.483  11.671  0.3775 -0.6009 -1.7431
15629SOL    HW257202  12.407   1.404  11.797 -1.6581  1.8153  0.3985
15630SOL     OW57203   4.460   8.057  12.416  0.1761 -0.5440 -0.6513
15630SOL    HW157204   4.416   8.104  12.345  1.4750  1.1395 -0.4230
15630SOL    HW257205   4.460   7.966  12.388 -0.3657 -0.0953 -2.2629
15631SOL     OW57206   8.194   6.938   7.714 -0.0168  0.2549  0.2636
15631SOL    HW157207   8.172   6.851   7.745 -2.5300  0.2257 -1.3542
15631SOL    HW257208   8.244   6.924   7.634 -3.4931  0.0725 -2.0974
15632SOL     OW57209  12.188  11.568   5.056 -0.4698  0.1871  0.3343
15632SOL    HW157210  12.114  11.545   5.112 -0.1762 -2.3259 -0.1664
15632SOL    HW257211  12.171  11.520   4.974  1.5870 -0.3015  0.1434
15633SOL     OW57212  11.153  12.059   6.800 -0.2436  0.2027  0.9048
15633SOL    HW157213  11.106  11.977   6.788 -0.8047  0.8267 -2.0139
15633SOL    HW257214  11.244  12.034   6.817 -0.4718 -1.0318  0.3735
15634SOL     OW57215   4.306   3.781   1.772  0.3610  0.4659  0.8005
15634SOL    HW157216   4.361   3.714   1.813  0.0104  0.9338  2.0821
15634SOL    HW257217   4.232   3.732   1.737  0.9720 -0.0199  0.1650
15635SOL     OW57218   6.309   8.201   5.969  0.1299 -0.0753 -0.0918
15635SOL    HW157219   6.355   8.275   5.930  0.5134 -0.3011 -0.0695
15635SOL    HW257220   6.225   8.237   5.996  0.4344  0.4263  0.2036
15636SOL     OW57221  12.499   2.995   3.679 -0.4472  0.0975 -0.4681
15636SOL    HW157222  12.557   2.963   3.610  0.3431  0.0952  0.1915
15636SOL    HW257223  12.549   2.985   3.760 -1.3548  0.1153  0.1126
15637SOL     OW57224   5.225   1.824   9.137  0.5005 -0.8034 -0.1438
15637SOL    HW157225   5.264   1.743   9.105  1.2889 -0.9488  1.1096
15637SOL    HW257226   5.135   1.822   9.105  1.3111 -0.7205 -2.6467
15638SOL     OW57227   1.846   2.491   8.199  0.0877  0.5081  0.6461
15638SOL    HW157228   1.805   2.485   8.285 -1.4574  0.6719 -0.0396
15638SOL    HW257229   1.880   2.404   8.182 -0.7612  0.1206  0.8816
15639SOL     OW57230   2.817   3.247  11.317  0.0261  0.4385 -0.4676
15639SOL    HW157231   2.776   3.295  11.388  1.0090 -0.1388  0.5307
15639SOL    HW257232   2.752   3.182  11.290 -0.2330  0.4520  0.1261
15640SOL     OW57233   5.080   5.461   3.796  0.2464  0.8869  0.1379
15640SOL    HW157234   5.140   5.481   3.723 -1.6543 -2.3840 -2.6171
15640SOL    HW257235   5.116   5.383   3.836 -1.7088 -0.8259 -1.2336
15641SOL     OW57236   1.081   5.427   5.508  0.3381  0.0348 -0.3924
15641SOL    HW157237   1.072   5.332   5.505  2.1303 -0.1742 -0.7122
15641SOL    HW257238   1.164   5.444   5.462 -0.1013  1.7735 -0.6070
15642SOL     OW57239   9.552   1.961   0.223 -0.1330 -0.5356  0.4050
15642SOL    HW157240   9.566   2.051   0.251  0.8014 -0.9678  1.4094
15642SOL    HW257241   9.544   1.966   0.128 -0.3605  0.6275  0.4696
15643SOL     OW57242   9.625   7.179  12.720  0.2941  0.2404  0.2629
15643SOL    HW157243   9.709   7.214  12.751  0.5406  0.2539 -0.4109
15643SOL    HW257244   9.598   7.119  12.790  1.6708 -1.0224 -0.2386
15644SOL     OW57245   5.236  12.587  11.256 -0.1634 -0.4724  0.8074
15644SOL    HW157246   5.170  12.528  11.222 -1.4702  1.5984 -0.4844
15644SOL    HW257247   5.319  12.539  11.247 -0.9243 -1.4701 -1.8423
15645SOL     OW57248   2.580   1.203   7.735 -0.3631  0.0308  0.2786
15645SOL    HW157249   2.621   1.123   7.701  0.0986 -0.5249  2.0252
15645SOL    HW257250   2.583   1.265   7.662 -0.1790 -1.3482 -0.9233
15646SOL     OW57251   9.738   0.182   6.294 -0.2352  0.1783  0.8172
15646SOL    HW157252   9.788   0.263   6.304 -0.7609  0.3029  2.8722
15646SOL    HW257253   9.738   0.165   6.200  1.9253  1.2560  0.5624
15647SOL     OW57254   6.693   8.544  12.780  0.3278  0.3171  0.3138
15647SOL    HW157255   6.788   8.546  12.775  0.2990  1.6671 -0.1070
15647SOL    HW257256   6.665   8.531  12.689  0.1063  2.6592 -0.0172
15648SOL     OW57257   7.181   2.668   7.155 -0.0356  0.4448  0.0602
15648SOL    HW157258   7.241   2.671   7.230 -0.8028  1.8033  0.6559
15648SOL    HW257259   7.098   2.638   7.192 -0.2722  0.5694 -0.3652
15649SOL     OW57260   7.063   3.653   1.664 -0.3169  0.4427  0.1378
15649SOL    HW157261   7.058   3.681   1.573 -0.6212  2.7920  0.7899
15649SOL    HW257262   7.076   3.735   1.713  0.8108 -0.8443  2.1253
15650SOL     OW57263   8.952   7.164   6.668  0.0838  0.0924  0.6276
15650SOL    HW157264   8.986   7.074   6.673 -2.3743 -0.9012  0.7069
15650SOL    HW257265   8.897   7.164   6.590  2.4867  2.5227 -1.2589
15651SOL     OW57266   6.241   0.129   0.889  0.5552  0.0165 -0.4603
15651SOL    HW157267   6.257   0.038   0.865 -1.2269 -0.3874 -0.2078
15651SOL    HW257268   6.200   0.124   0.975 -1.8193  0.8719 -1.4588
15652SOL     OW57269  10.597   3.130   2.390 -0.3800  0.6278  0.5215
15652SOL    HW157270  10.507   3.109   2.365 -0.0873  0.5404 -0.5039
15652SOL    HW257271  10.650   3.102   2.315  0.3173  2.3324  0.3249
15653SOL     OW57272   5.189   0.367  10.186  0.0241  0.0545 -0.0988
15653SOL    HW157273   5.266   0.318  10.157 -0.4303 -2.0224  1.9563
15653SOL    HW257274   5.115   0.319  10.148 -0.4634 -1.3731  2.4881
15654SOL     OW57275   2.483   3.283  11.932  0.2894  0.2446  0.1092
15654SOL    HW157276   2.484   3.370  11.973  1.5957  1.1044 -1.6026
15654SOL    HW257277   2.552   3.287  11.866 -1.5888 -1.0575 -2.0954
15655SOL     OW57278   8.455  12.183   6.280  0.2485  0.2227 -0.1702
15655SOL    HW157279   8.372  12.227   6.262 -0.5091 -0.7502  0.8054
15655SOL    HW257280   8.522  12.248   6.257 -0.7898  1.3175 -0.2161
15656SOL     OW57281   2.649   8.530   3.407  0.3456  0.3431 -0.5517
15656SOL    HW157282   2.731   8.577   3.417  0.7240 -0.5475  0.8288
15656SOL    HW257283   2.656   8.455   3.466 -0.4872 -1.1165 -2.1712
15657SOL     OW57284   3.690   5.326   1.764  0.6409 -0.0261 -0.1108
15657SOL    HW157285   3.597   5.310   1.749  0.4820 -0.8480  1.4989
15657SOL    HW257286   3.722   5.364   1.683 -0.7400 -1.3114 -1.3013
15658SOL     OW57287   9.678   1.604   1.484 -0.1835  0.3141 -0.0261
15658SOL    HW157288   9.675   1.531   1.422 -0.8694 -0.6997  1.1598
15658SOL    HW257289   9.674   1.562   1.570  1.4509  1.6391  0.7586
15659SOL     OW57290   1.855   1.276   7.854  0.0599 -0.9424  0.3120
15659SOL    HW157291   1.893   1.342   7.913  1.6256 -0.9210 -0.6657
15659SOL    HW257292   1.826   1.326   7.778 -0.0309 -1.2324  0.1563
15660SOL     OW57293   9.554  12.518   3.679 -0.5949  0.3647 -0.1002
15660SOL    HW157294   9.560  12.609   3.650  1.3652  0.2374 -0.2513
15660SOL    HW257295   9.513  12.524   3.766 -1.0962  1.3235 -0.3866
15661SOL     OW57296   3.301  11.680  12.302  0.3778  0.1402  0.6246
15661SOL    HW157297   3.294  11.758  12.357 -1.2244  1.3625 -1.2083
15661SOL    HW257298   3.219  11.633  12.316 -0.4391  0.9041 -1.2724
15662SOL     OW57299  10.556   2.731   8.481  0.0426  0.0379 -0.1222
15662SOL    HW157300  10.595   2.766   8.401  2.6054 -0.6485  0.7046
15662SOL    HW257301  10.553   2.806   8.541 -0.0910  0.1356 -0.2507
15663SOL     OW57302   4.373   2.237   8.361  0.1843  0.1307  0.4305
15663SOL    HW157303   4.335   2.230   8.449  0.1351  0.4178  0.4328
15663SOL    HW257304   4.342   2.321   8.328  0.0135 -0.0769  0.0484
15664SOL     OW57305   1.950   0.070   1.161 -0.4348 -0.2021 -0.1344
15664SOL    HW157306   1.896   0.149   1.169 -2.0216 -1.3532  1.3371
15664SOL    HW257307   1.888   0.001   1.138  0.4907 -1.4673  1.0052
15665SOL     OW57308   3.738   6.931   9.624  0.1017 -0.4064 -0.1491
15665SOL    HW157309   3.671   6.911   9.690  0.1980  1.3600  0.5656
15665SOL    HW257310   3.756   6.848   9.580 -0.9503 -1.3541  1.1509
15666SOL     OW57311   2.273   2.181   9.077 -0.6718  0.2497  0.7229
15666SOL    HW157312   2.296   2.100   9.123  0.9455 -0.5310 -1.2906
15666SOL    HW257313   2.357   2.226   9.065 -1.3062  1.3293  0.2053
15667SOL     OW57314   9.567   7.868   2.731  0.5069 -0.2196  0.0791
15667SOL    HW157315   9.604   7.784   2.702 -0.2435 -0.4113 -0.3665
15667SOL    HW257316   9.639   7.912   2.775  1.2247 -0.6278 -0.6604
15668SOL     OW57317  10.183   0.657   5.977 -0.0441  0.2807  0.3113
15668SOL    HW157318  10.220   0.740   6.007 -0.9416  0.5872  0.5812
15668SOL    HW257319  10.195   0.658   5.882  1.1944  0.0957  0.4432
15669SOL     OW57320   3.955   4.918   6.275  0.2348  0.3888  0.4065
15669SOL    HW157321   4.028   4.889   6.330 -1.9281  0.1877  3.4497
15669SOL    HW257322   3.908   4.838   6.254 -1.5734  0.8325  2.4265
15670SOL     OW57323  12.096  10.142   6.527  0.3462  0.5887 -0.8355
15670SOL    HW157324  12.088  10.237   6.528 -0.8889  0.4956  0.4469
15670SOL    HW257325  12.009  10.111   6.504  0.9138 -0.2480 -1.9708
15671SOL     OW57326   7.048   8.246   6.604  0.3703 -0.5087  0.3111
15671SOL    HW157327   7.017   8.335   6.592 -1.3015 -1.3191 -2.1262
15671SOL    HW257328   7.120   8.254   6.667  0.1687  2.4948  0.2978
15672SOL     OW57329   3.964   9.525  11.646  0.0674  0.5902 -0.0851
15672SOL    HW157330   4.048   9.495  11.680  0.4055  1.0198 -0.5333
15672SOL    HW257331   3.919   9.562  11.722  0.8499  1.6253 -0.1066
15673SOL     OW57332  10.728   3.554  11.981  0.7154  0.2797 -0.3432
15673SOL    HW157333  10.679   3.518  11.907 -0.5027  0.8738  0.1471
15673SOL    HW257334  10.670   3.542  12.056  1.7715  0.0436  0.4563
15674SOL     OW57335   4.633  11.026   4.590  0.1870 -0.3498  0.3591
15674SOL    HW157336   4.674  11.048   4.507  0.0611 -0.7401  0.1933
15674SOL    HW257337   4.551  11.077   4.590  0.0500 -0.5665  0.1164
15675SOL     OW57338   6.702  12.409   6.519 -0.3828  0.2590  0.7211
15675SOL    HW157339   6.639  12.481   6.518 -0.7474 -0.0541 -0.8318
15675SOL    HW257340   6.751  12.421   6.601 -1.1623  1.6288  1.0097
15676SOL     OW57341   7.866   1.165   6.591 -0.5573  0.1585  0.0606
15676SOL    HW157342   7.860   1.119   6.507 -0.6919  1.2333 -0.5412
15676SOL    HW257343   7.825   1.106   6.654 -0.7216 -0.5362 -0.6875
15677SOL     OW57344   8.903   7.139   2.521 -0.3563 -0.4608 -0.0239
15677SOL    HW157345   8.858   7.120   2.603  1.7705  0.7962  1.5492
15677SOL    HW257346   8.837   7.178   2.465 -1.3789  0.8181  1.9678
15678SOL     OW57347   7.170   2.379  10.037  0.5991  0.0591 -0.6836
15678SOL    HW157348   7.176   2.352   9.946 -0.6325  3.4457 -1.9284
15678SOL    HW257349   7.098   2.328  10.073 -0.6653  0.5072 -2.4452
15679SOL     OW57350   9.096  10.100   8.744 -0.0754  0.0654  0.1832
15679SOL    HW157351   9.179  10.146   8.734 -0.0449 -0.0577 -0.1410
15679SOL    HW257352   9.085  10.051   8.662 -1.1015  1.0830 -0.3120
15680SOL     OW57353   9.251   8.853  12.585 -0.2602 -0.5598 -0.5330
15680SOL    HW157354   9.201   8.935  12.576  0.7894  0.3069  1.1147
15680SOL    HW257355   9.280   8.834  12.496 -0.2908  1.0205 -0.9177
15681SOL     OW57356  11.136   2.063   4.531 -0.2469  0.1238  0.2075
15681SOL    HW157357  11.167   2.074   4.621  1.0279 -3.0667  0.2975
15681SOL    HW257358  11.051   2.021   4.539 -0.6001  0.7712 -0.0888
15682SOL     OW57359  11.150   0.765  11.641 -0.0244  0.3415  0.3308
15682SOL    HW157360  11.213   0.755  11.712 -0.0879 -0.3571  0.2916
15682SOL    HW257361  11.149   0.680  11.597  0.4303  0.9276 -0.8602
15683SOL     OW57362  12.536  10.955   7.598 -0.4413 -0.1884 -0.4609
15683SOL    HW157363  12.458  10.912   7.562 -1.2131  0.2623  0.6061
15683SOL    HW257364  12.588  10.884   7.635  0.4304 -0.6718 -2.5148
15684SOL     OW57365  11.503   3.311  12.802 -0.4714 -0.4788 -0.1516
15684SOL    HW157366  11.559   3.260  12.744  0.3429  0.9868 -0.7019
15684SOL    HW257367  11.530   3.286  12.890 -0.3823 -1.2854 -0.4004
15685SOL     OW57368   4.346   3.053   9.601 -0.1518 -0.3422  0.0954
15685SOL    HW157369   4.425   3.090   9.641 -0.5611  1.9131 -0.9994
15685SOL    HW257370   4.274   3.089   9.653 -0.5406 -0.1992 -0.5276
15686SOL     OW57371  10.021  12.965   7.947  0.1150 -0.0636 -0.1676
15686SOL    HW157372  10.009  12.988   7.855 -2.6188 -1.2623 -0.2112
15686SOL    HW257373  10.010  13.048   7.995  3.7086  1.0129 -0.8858
15687SOL     OW57374   8.153  11.995   6.200 -0.0380 -0.2607 -0.3454
15687SOL    HW157375   8.140  11.914   6.152 -0.0450  0.2819 -1.2700
15687SOL    HW257376   8.220  11.973   6.265  0.3722 -0.8523 -0.9578
15688SOL     OW57377   0.798   7.527   9.100 -0.3356  0.5830 -0.3752
15688SOL    HW157378   0.740   7.458   9.068 -1.3395  1.6498 -0.9079
15688SOL    HW257379   0.856   7.482   9.161  0.8506 -1.3133 -2.6931
15689SOL     OW57380   7.029  12.365   2.861  0.3701 -0.0917 -0.3373
15689SOL    HW157381   6.934  12.359   2.850  0.4027  0.1333 -0.7692
15689SOL    HW257382   7.045  12.456   2.883  0.5928  0.1682 -1.4922
15690SOL     OW57383  10.622  12.364  12.473 -0.2594 -0.1949  0.1434
15690SOL    HW157384  10.652  12.387  12.386 -0.3233 -3.4517 -0.8913
15690SOL    HW257385  10.528  12.385  12.473 -0.3196 -0.4319 -0.6988
15691SOL     OW57386  12.104   3.618   6.802  0.0749 -0.0782 -0.0730
15691SOL    HW157387  12.136   3.708   6.812 -0.5948  0.1133  0.4078
15691SOL    HW257388  12.075   3.612   6.711  1.1851 -0.1639 -0.4341
15692SOL     OW57389   8.709   8.071   8.059  0.3428 -0.3201 -0.1448
15692SOL    HW157390   8.681   7.980   8.072 -0.4258 -0.2978 -1.5090
15692SOL    HW257391   8.628   8.122   8.057  0.6550  0.1584 -1.0860
15693SOL     OW57392   2.658  10.065   5.009  0.1862  0.5643 -0.2317
15693SOL    HW157393   2.676  10.071   5.103 -1.0440  0.3140  0.0296
15693SOL    HW257394   2.638   9.973   4.994  0.1641  0.6450 -0.7114
15694SOL     OW57395   0.831   6.315   0.845 -0.2806  0.0130  0.3915
15694SOL    HW157396   0.737   6.333   0.852 -0.5406 -1.1864  0.1072
15694SOL    HW257397   0.842   6.230   0.887  0.7410  0.2968  0.7230
15695SOL     OW57398  10.690   4.083  10.022  0.3265  0.2677  0.3725
15695SOL    HW157399  10.772   4.102   9.977  0.1236 -0.4559 -0.3280
15695SOL    HW257400  10.711   4.014  10.084  0.5496  1.0836  1.2254
15696SOL     OW57401   0.931   4.739   6.068  0.2790  1.1006 -0.0346
15696SOL    HW157402   0.868   4.805   6.042 -0.4695  1.3486  2.1567
15696SOL    HW257403   0.878   4.669   6.106  1.1825  0.2306 -0.3293
15697SOL     OW57404   0.320   7.959  12.725 -0.0251  0.4362  0.2013
15697SOL    HW157405   0.244   7.904  12.706 -0.5961  0.6826  1.6466
15697SOL    HW257406   0.302   8.042  12.680 -0.3274  0.2906  0.0531
15698SOL     OW57407   0.052   3.961   9.716 -0.2291  0.6149  0.6073
15698SOL    HW157408   0.112   3.889   9.697 -0.3167  0.8920 -0.7903
15698SOL    HW257409   0.059   3.973   9.811  0.4920 -0.6028  0.7316
15699SOL     OW57410   7.412   9.517   6.150  0.2581 -0.0305  0.1812
15699SOL    HW157411   7.359   9.440   6.129 -0.7540  1.0899 -1.6730
15699SOL    HW257412   7.497   9.499   6.111 -0.4249  0.3574 -1.5840
15700SOL     OW57413   7.519   3.143   0.490 -0.0485  0.3820 -0.2305
15700SOL    HW157414   7.611   3.144   0.463  0.3924  0.0636  1.1784
15700SOL    HW257415   7.472   3.112   0.413  1.1249 -0.3452 -0.6811
15701SOL     OW57416   5.685  12.970   4.274 -0.0020  0.0287  0.8817
15701SOL    HW157417   5.694  12.892   4.219  0.0421  0.2474  0.5756
15701SOL    HW257418   5.773  13.008   4.276 -0.1761  0.4619  0.4425
15702SOL     OW57419   6.187   8.840   0.024  0.4126  0.5381  0.4126
15702SOL    HW157420   6.130   8.766   0.044 -0.7875  1.4942  0.7066
15702SOL    HW257421   6.269   8.821   0.070  0.0161 -0.4493  0.7329
15703SOL     OW57422  11.498   6.235   3.385 -0.0632  0.4286 -0.2821
15703SOL    HW157423  11.411   6.197   3.396 -0.5030  1.4808 -0.0597
15703SOL    HW257424  11.525   6.207   3.297 -0.6812  0.2088 -0.4100
15704SOL     OW57425   6.195   4.918   1.502 -0.3408  0.1095 -0.0975
15704SOL    HW157426   6.108   4.957   1.494 -0.1500  0.5880  0.0947
15704SOL    HW257427   6.255   4.991   1.484  0.0220 -0.1607  0.0106
15705SOL     OW57428   4.771  12.575   1.366  0.7211 -0.1939  0.0177
15705SOL    HW157429   4.703  12.641   1.350  0.0070 -1.0249 -0.4246
15705SOL    HW257430   4.753  12.506   1.302 -0.1087 -2.0041  2.0943
15706SOL     OW57431  10.699  11.334   6.604 -0.1483  0.1507  0.0075
15706SOL    HW157432  10.645  11.310   6.529  1.4366 -0.6810 -0.9105
15706SOL    HW257433  10.741  11.253   6.630 -1.8104  0.0604  2.8230
15707SOL     OW57434   2.739   8.657  10.647 -0.5920  0.1477 -0.3734
15707SOL    HW157435   2.799   8.721  10.685 -1.3460  0.7759 -0.2154
15707SOL    HW257436   2.656   8.671  10.693 -0.7063 -1.1206 -0.1551
15708SOL     OW57437   1.609   3.817   4.287 -0.3264 -0.1057 -0.1702
15708SOL    HW157438   1.530   3.834   4.338  0.1489 -0.8113  0.8292
15708SOL    HW257439   1.636   3.904   4.256 -1.1663  0.2097 -0.0585
15709SOL     OW57440  10.472  10.759   3.163  0.2762  0.1688  0.2337
15709SOL    HW157441  10.417  10.699   3.114 -1.0489  0.9341  0.7256
15709SOL    HW257442  10.456  10.736   3.255  0.6281  0.5254  0.3861
15710SOL     OW57443   6.876  12.683   1.881 -0.6041  0.1649 -0.3534
15710SOL    HW157444   6.933  12.709   1.954  0.3766 -1.6401 -0.4113
15710SOL    HW257445   6.795  12.654   1.924 -1.1591  1.8306 -0.2085
15711SOL     OW57446   3.882   3.185   7.740 -0.4186 -0.2463  0.3615
15711SOL    HW157447   3.883   3.280   7.731 -0.2996 -0.3740 -1.1865
15711SOL    HW257448   3.966   3.156   7.705 -0.9141 -0.9959 -0.2373
15712SOL     OW57449  11.440   2.503   5.014  0.1842  0.1793  0.0282
15712SOL    HW157450  11.422   2.410   5.024  1.1133  0.0102  0.2347
15712SOL    HW257451  11.445   2.517   4.920  0.9660 -0.1694  0.0153
15713SOL     OW57452   3.022  10.035   0.080 -0.1663 -0.4780  0.4339
15713SOL    HW157453   3.105  10.040   0.034 -0.3359  1.3565  0.2484
15713SOL    HW257454   3.009   9.941   0.097  2.4887 -0.7290  1.5215
15714SOL     OW57455  12.504  11.936   4.029  1.0263  0.0871  1.0451
15714SOL    HW157456  12.589  11.907   4.061  1.8410  0.2418 -0.8420
15714SOL    HW257457  12.498  11.901   3.940 -1.0122 -0.1424  1.2080
15715SOL     OW57458   7.437   0.652   8.270 -0.3211  0.1514 -0.0135
15715SOL    HW157459   7.452   0.697   8.187 -0.9016  1.9475  0.7901
15715SOL    HW257460   7.516   0.671   8.322 -0.3118 -0.2798  0.1364
15716SOL     OW57461  11.626   7.589   2.626 -0.0689 -0.1935  0.2076
15716SOL    HW157462  11.585   7.644   2.559  0.0870  0.7240  0.8506
15716SOL    HW257463  11.557   7.528   2.652 -0.8214  0.8474  0.7404
15717SOL     OW57464  11.765   9.330  12.279  0.2501  0.2820 -0.4297
15717SOL    HW157465  11.821   9.333  12.201 -2.3410  1.4803 -2.4340
15717SOL    HW257466  11.707   9.255  12.264 -0.3475  0.5860  0.2858
15718SOL     OW57467   3.486  12.924   5.942 -0.4519  0.3915 -0.2299
15718SOL    HW157468   3.517  12.994   5.886  0.3823 -0.5567 -0.9958
15718SOL    HW257469   3.434  12.868   5.884  2.6204 -2.0793 -0.8238
15719SOL     OW57470   6.666   2.387  11.235  0.0551  0.1910 -0.0059
15719SOL    HW157471   6.730   2.323  11.266 -0.4061 -0.3369 -0.1180
15719SOL    HW257472   6.672   2.383  11.140 -0.4589 -0.2026 -0.0299
15720SOL     OW57473   1.755   6.325   4.841 -0.2466 -0.4013  0.1237
15720SOL    HW157474   1.848   6.307   4.828  0.4979  2.5633  0.5294
15720SOL    HW257475   1.753   6.405   4.894 -3.0321 -0.2233 -0.0797
15721SOL     OW57476  10.881  10.586  12.258 -0.0661  0.1462  0.2858
15721SOL    HW157477  10.869  10.500  12.299 -0.8750  0.6820  1.2349
15721SOL    HW257478  10.881  10.568  12.164  1.0247 -1.0352  0.4780
15722SOL     OW57479   6.597   4.425   7.317  0.0865  0.0840 -0.0746
15722SOL    HW157480   6.502   4.433   7.317 -0.0553 -1.3896 -0.3082
15722SOL    HW257481   6.628   4.498   7.263 -0.9778 -0.0989 -0.9564
15723SOL     OW57482   5.960   0.382   4.989 -0.0960 -0.4694  0.0982
15723SOL    HW157483   5.970   0.458   5.045  0.0860  0.3405 -1.0046
15723SOL    HW257484   6.018   0.398   4.915 -2.0663 -0.3383 -1.5251
15724SOL     OW57485  10.171   4.151   1.105  0.2833  0.7854 -0.0943
15724SOL    HW157486  10.248   4.205   1.087 -0.4937  1.8506 -0.3491
15724SOL    HW257487  10.097   4.210   1.091 -0.5785 -0.1765  0.2776
15725SOL     OW57488   0.220   5.154   8.833  0.2755 -0.1369  0.4178
15725SOL    HW157489   0.220   5.133   8.740 -1.0204 -0.1121  0.3920
15725SOL    HW257490   0.242   5.071   8.876  0.0980 -0.3438  0.1187
15726SOL     OW57491  10.470  11.887  10.895  0.3538  0.5966  0.5107
15726SOL    HW157492  10.497  11.974  10.923  0.5529  0.7547 -0.1519
15726SOL    HW257493  10.417  11.853  10.968 -1.7453  2.2120 -0.1756
15727SOL     OW57494  10.687   8.742  11.703  0.1038  0.2850 -0.6388
15727SOL    HW157495  10.596   8.756  11.729  0.3377  2.7218 -0.9060
15727SOL    HW257496  10.690   8.768  11.611  0.8783 -0.8388 -0.9519
15728SOL     OW57497   5.586   1.270   5.105 -0.4164 -0.3266 -0.0010
15728SOL    HW157498   5.634   1.245   5.185  1.6141  0.3479 -0.9404
15728SOL    HW257499   5.572   1.364   5.115 -1.0884 -0.4198 -0.0011
15729SOL     OW57500   0.927   7.466   2.259 -0.5664 -0.0972 -0.3798
15729SOL    HW157501   0.943   7.418   2.178 -2.2019 -0.8715 -0.2798
15729SOL    HW257502   0.918   7.397   2.326  0.7237  0.5265  0.4866
15730SOL     OW57503   2.733   3.630  12.853  0.3096  0.5832 -0.4520
15730SOL    HW157504   2.779   3.605  12.933  0.4986  3.2864  0.3746
15730SOL    HW257505   2.669   3.695  12.881 -0.4220  0.7687 -2.3644
15731SOL     OW57506   4.270  10.017   6.192  0.6177  0.0399  0.4692
15731SOL    HW157507   4.205  10.004   6.123  1.4263  0.9923 -0.5008
15731SOL    HW257508   4.250  10.103   6.228  0.4566 -0.2776  1.1508
15732SOL     OW57509  10.250   7.860   8.885 -0.1486  0.3150  0.0618
15732SOL    HW157510  10.333   7.814   8.871  0.1117  0.1392  1.9068
15732SOL    HW257511  10.263   7.945   8.844  0.3481 -0.2747 -1.0456
15733SOL     OW57512  11.069  10.592   3.958 -0.1910 -0.6210  0.3630
15733SOL    HW157513  11.008  10.647   3.909  0.7830 -0.2421 -0.4577
15733SOL    HW257514  11.113  10.652   4.018  0.3241 -0.6208  0.0016
15734SOL     OW57515  12.062   9.293   0.058 -0.6460  0.0881  0.2388
15734SOL    HW157516  11.977   9.254   0.075 -0.7634  0.0238 -0.4467
15734SOL    HW257517  12.090   9.253  -0.025 -0.2124  0.5357  0.1642
15735SOL     OW57518   8.162   8.882   3.357 -0.0364  0.4738 -0.3988
15735SOL    HW157519   8.120   8.853   3.276  0.3513 -2.2950  0.2672
15735SOL    HW257520   8.091   8.886   3.421  0.1695 -1.1087 -0.0248
15736SOL     OW57521   6.435   8.869  10.028  0.0538 -0.3976 -0.3568
15736SOL    HW157522   6.406   8.791   9.981 -1.2301  0.9529 -1.9263
15736SOL    HW257523   6.354   8.909  10.061  0.6642  0.4239  0.2092
15737SOL     OW57524  12.154   2.776   9.573 -0.3170  0.1560  0.3541
15737SOL    HW157525  12.087   2.832   9.534  0.3144  1.1163  0.6149
15737SOL    HW257526  12.187   2.827   9.647  2.0291  0.5470 -0.8879
15738SOL     OW57527   7.045   5.231   8.319  0.5293 -0.7594  0.3265
15738SOL    HW157528   7.021   5.146   8.283  0.2462 -0.2040 -0.8243
15738SOL    HW257529   7.140   5.233   8.314  0.4944 -0.6948 -0.3925
15739SOL     OW57530   4.907   5.497  12.384 -0.1423 -0.0481  0.5791
15739SOL    HW157531   4.878   5.559  12.316 -0.6375  1.1176  1.8063
15739SOL    HW257532   4.940   5.422  12.335  0.7962  1.3139 -0.9969
15740SOL     OW57533   9.854   3.044   5.797 -0.0191 -0.0057 -0.2568
15740SOL    HW157534   9.928   2.985   5.814  0.5791  0.1488 -2.0536
15740SOL    HW257535   9.794   2.992   5.743 -0.2933  0.4847 -0.4305
15741SOL     OW57536  11.048   8.175   1.437 -0.2722  0.7669  0.1651
15741SOL    HW157537  10.980   8.175   1.504 -0.5012 -1.0798  0.0032
15741SOL    HW257538  11.010   8.125   1.365  0.6657  1.1100 -0.5903
15742SOL     OW57539   9.797   8.524   4.655  0.4166  0.5837  0.6299
15742SOL    HW157540   9.772   8.616   4.647 -1.3872  0.0725 -0.0144
15742SOL    HW257541   9.841   8.519   4.740 -0.5847  1.7967  1.2447
15743SOL     OW57542   8.326  10.466   4.894  0.0580  0.1072  0.0537
15743SOL    HW157543   8.246  10.413   4.897 -0.8530  1.4937  1.5336
15743SOL    HW257544   8.303  10.547   4.939  2.1115  0.8263 -0.0991
15744SOL     OW57545   6.702   9.176   0.629  0.6207 -0.0929 -0.3867
15744SOL    HW157546   6.697   9.272   0.630 -0.4110 -0.1411  1.0495
15744SOL    HW257547   6.611   9.147   0.639  1.1451 -1.2040  1.4730
15745SOL     OW57548   0.306  12.525   0.541 -0.2266  0.0928 -0.5393
15745SOL    HW157549   0.356  12.462   0.593 -0.2424 -0.2564 -0.9484
15745SOL    HW257550   0.358  12.605   0.545 -0.0619 -0.0265 -0.2549
15746SOL     OW57551   4.275   2.457   8.241  0.0942  0.1339 -0.7215
15746SOL    HW157552   4.185   2.445   8.272  0.3041  0.0314 -0.1522
15746SOL    HW257553   4.270   2.534   8.184 -0.0871  1.0069  0.4332
15747SOL     OW57554  10.025   2.403   9.733 -0.3123 -0.4830 -0.5758
15747SOL    HW157555   9.976   2.451   9.800 -0.0846 -0.8646 -0.1269
15747SOL    HW257556   9.996   2.440   9.650  0.6192  1.1595 -0.2121
15748SOL     OW57557  12.367   6.265   0.932  0.2813 -0.5458  0.7968
15748SOL    HW157558  12.409   6.179   0.930 -0.6851 -1.0164 -0.0088
15748SOL    HW257559  12.437   6.325   0.959  1.7195 -1.1688 -1.2604
15749SOL     OW57560   4.171   7.513   8.969 -0.4415  0.1978 -0.3675
15749SOL    HW157561   4.201   7.521   8.878 -1.2057  0.7099 -0.5776
15749SOL    HW257562   4.128   7.428   8.972 -0.0648  0.0036 -0.3796
15750SOL     OW57563  12.650  10.555   3.802 -0.2557  0.1146 -0.5562
15750SOL    HW157564  12.690  10.562   3.715  0.1573  1.2543 -0.2992
15750SOL    HW257565  12.650  10.645   3.835  0.3309 -0.4042  0.9412
15751SOL     OW57566   9.913   3.999   7.735  0.1491  0.1429  0.4662
15751SOL    HW157567   9.876   4.074   7.689  0.1958  0.2805  0.6505
15751SOL    HW257568   9.850   3.981   7.806  0.4506  0.3990  0.8010
15752SOL     OW57569   2.079   4.269   7.718  0.2599  0.2965 -0.5083
15752SOL    HW157570   2.087   4.364   7.722  0.2870  0.3463 -1.5397
15752SOL    HW257571   2.168   4.238   7.701  0.4646 -0.0070  0.9437
15753SOL     OW57572   9.891  11.756   5.428  0.4072  0.3440  0.4370
15753SOL    HW157573   9.918  11.702   5.503  2.9656  0.0826 -0.5563
15753SOL    HW257574   9.880  11.844   5.465  3.4684  0.6361  0.9242
15754SOL     OW57575   2.666   1.196  10.225 -0.3704  0.5200  0.0232
15754SOL    HW157576   2.675   1.218  10.317  1.3955  0.6205 -0.1321
15754SOL    HW257577   2.750   1.156  10.201 -1.5819 -1.6168 -0.9964
15755SOL     OW57578  11.281   0.360   4.237 -0.2538  0.2888  0.1689
15755SOL    HW157579  11.264   0.267   4.223 -0.9368  0.5450 -0.8148
15755SOL    HW257580  11.201   0.393   4.278  0.3285  0.2788  1.3416
15756SOL     OW57581  10.450   2.579   5.137  0.2235 -0.3084  0.0990
15756SOL    HW157582  10.478   2.654   5.084 -1.0887 -0.9337 -1.5466
15756SOL    HW257583  10.364   2.555   5.103 -1.0485 -0.3350  2.9974
15757SOL     OW57584  11.976   4.450   7.154 -0.1816 -0.1962 -0.4334
15757SOL    HW157585  11.947   4.375   7.102 -0.2280  0.6388 -1.6372
15757SOL    HW257586  12.061   4.473   7.118  0.0601  0.0265  0.2679
15758SOL     OW57587   9.349   3.190   0.612 -0.6132  0.6996 -0.2497
15758SOL    HW157588   9.307   3.273   0.590 -2.3685  0.0966  0.6447
15758SOL    HW257589   9.276   3.131   0.633  0.4470 -1.6018 -2.4980
15759SOL     OW57590  12.471  12.179   0.217  0.3086 -0.5941  0.4520
15759SOL    HW157591  12.422  12.246   0.170 -1.3707 -1.5554  0.7405
15759SOL    HW257592  12.558  12.216   0.228  0.4326  0.1649 -2.3155
15760SOL     OW57593  12.549  12.818   1.824  0.1869  0.1579  0.4299
15760SOL    HW157594  12.500  12.889   1.865  0.2097  1.5710 -1.8223
15760SOL    HW257595  12.531  12.741   1.879 -1.5868  1.4121  1.7119
15761SOL     OW57596   4.227   6.998   3.743  0.3400  0.1396  0.5939
15761SOL    HW157597   4.300   6.940   3.722  0.6069 -0.4740  2.9818
15761SOL    HW257598   4.269   7.080   3.772  0.0596  0.1496  0.9759
15762SOL     OW57599   4.524   1.509   6.222  0.3143 -0.5410 -0.1621
15762SOL    HW157600   4.495   1.427   6.182  1.9368 -0.7257 -1.0556
15762SOL    HW257601   4.487   1.577   6.167  0.5757 -0.7375 -0.5866
15763SOL     OW57602   1.578  11.084   3.021 -0.2559 -0.3799  0.1266
15763SOL    HW157603   1.559  11.104   2.930 -0.5838 -1.6004 -0.0862
15763SOL    HW257604   1.585  11.170   3.063  1.6752  0.2807 -1.3857
15764SOL     OW57605   5.789   5.769   8.398 -0.2277  0.1744  0.0863
15764SOL    HW157606   5.819   5.717   8.323  1.3684 -0.1367  0.9172
15764SOL    HW257607   5.822   5.857   8.381 -2.5020  0.8890 -1.0664
15765SOL     OW57608   9.199   9.201  12.947 -0.2323 -0.3056  0.1322
15765SOL    HW157609   9.246   9.143  12.887 -0.2062 -0.0820 -0.0674
15765SOL    HW257610   9.267   9.258  12.983 -0.3788  0.1873 -0.3495
15766SOL     OW57611   5.733  10.250  12.392  0.1911 -0.3558  0.1066
15766SOL    HW157612   5.768  10.196  12.321  0.7928 -0.7821  0.7116
15766SOL    HW257613   5.673  10.310  12.349  1.3724  0.1292 -0.9373
15767SOL     OW57614  10.934   0.726   3.147  0.2329 -0.0307  0.5211
15767SOL    HW157615  10.873   0.769   3.087 -0.8349  1.1690  2.3659
15767SOL    HW257616  10.958   0.794   3.209  1.9816 -1.0091  0.9683
15768SOL     OW57617  11.117   3.506   8.804  0.1164 -0.0260  0.1913
15768SOL    HW157618  11.095   3.598   8.793  0.3112 -0.2929 -4.6970
15768SOL    HW257619  11.038   3.467   8.841 -0.7761  1.7340  0.2524
15769SOL     OW57620   6.820  11.323  12.782  0.2085  0.0840  0.2219
15769SOL    HW157621   6.854  11.337  12.694 -0.5141 -1.6855 -0.3924
15769SOL    HW257622   6.890  11.275  12.827 -1.0173 -2.9119 -0.8179
15770SOL     OW57623   6.021   9.202   8.749  0.3223 -0.3068  0.0483
15770SOL    HW157624   5.982   9.114   8.749  1.6344 -0.9372  1.2050
15770SOL    HW257625   5.979   9.246   8.823 -1.5590  0.6828 -1.5139
15771SOL     OW57626   8.202   2.996   8.625  0.2029  0.0947 -0.2912
15771SOL    HW157627   8.229   3.031   8.710 -1.8446 -0.3225  0.5842
15771SOL    HW257628   8.264   2.925   8.609  0.5667  0.1035  0.9049
15772SOL     OW57629   7.475   6.393   3.706 -0.5388  0.2762  0.6137
15772SOL    HW157630   7.464   6.383   3.612  0.1142  0.8777  0.4685
15772SOL    HW257631   7.413   6.462   3.730 -0.0293  0.7921  0.4639
15773SOL     OW57632   1.959  10.739  12.481 -0.0675 -0.0307  0.0596
15773SOL    HW157633   1.978  10.665  12.422 -1.2090  0.5459 -1.0638
15773SOL    HW257634   1.902  10.796  12.430  1.6001  2.1716  0.5126
15774SOL     OW57635   2.680   5.084   0.704  0.9782 -0.1564  0.0901
15774SOL    HW157636   2.716   5.129   0.780  0.9351  0.0464 -0.0106
15774SOL    HW257637   2.731   5.002   0.699 -0.5981 -1.3185  1.7442
15775SOL     OW57638   5.573   3.815   5.408 -0.4410  0.3952  0.4286
15775SOL    HW157639   5.532   3.898   5.430  2.0007  2.1494 -1.1416
15775SOL    HW257640   5.665   3.826   5.435 -0.1845 -2.0891  0.8302
15776SOL     OW57641   5.002   9.019   2.572 -0.5399  0.2570  0.0308
15776SOL    HW157642   4.981   9.000   2.481  0.5331  0.2909 -0.2392
15776SOL    HW257643   4.930   8.981   2.622 -0.7328 -0.4750 -0.7814
15777SOL     OW57644   5.058   3.740   0.652  0.1729  0.5778 -0.3156
15777SOL    HW157645   5.087   3.724   0.562 -1.0854 -1.9883 -0.3494
15777SOL    HW257646   5.135   3.720   0.706  0.7040  1.3852 -0.7476
15778SOL     OW57647   5.581   3.573   1.198  0.3493 -0.5324  0.0798
15778SOL    HW157648   5.551   3.663   1.213 -0.4139 -0.9478  1.1667
15778SOL    HW257649   5.501   3.522   1.186  0.5970 -1.4797  1.9790
15779SOL     OW57650   2.094   4.537   6.950  0.3051 -0.6635  0.3714
15779SOL    HW157651   2.099   4.444   6.929 -1.6736 -0.7053 -0.1262
15779SOL    HW257652   2.143   4.546   7.032  4.0321 -1.3675 -1.5573
15780SOL     OW57653   0.080   1.822  12.564 -0.4656  0.0118 -1.0589
15780SOL    HW157654   0.150   1.886  12.574 -1.2990  0.6671  1.2046
15780SOL    HW257655   0.124   1.741  12.541  1.2375  0.0756  1.5947
15781SOL     OW57656   4.563   5.456   7.136  0.1456  0.0239  0.7680
15781SOL    HW157657   4.651   5.471   7.102 -0.3503  3.1287  0.5677
15781SOL    HW257658   4.504   5.495   7.071 -1.2439 -0.1803  1.8342
15782SOL     OW57659   4.581   8.731   9.791 -0.3480 -0.2173  0.3655
15782SOL    HW157660   4.513   8.755   9.853  0.2025 -0.0378  0.9027
15782SOL    HW257661   4.663   8.747   9.837  0.0842  0.7722 -0.7134
15783SOL     OW57662   3.944   3.947   9.627  0.4749 -0.6201 -0.9474
15783SOL    HW157663   4.038   3.962   9.621  0.9506 -1.3865  2.4941
15783SOL    HW257664   3.931   3.860   9.588  1.5023 -1.2827  0.1471
15784SOL     OW57665   8.759   9.025   7.551 -0.0577 -0.2086  0.4337
15784SOL    HW157666   8.717   9.001   7.468 -1.2222 -0.4136  1.0686
15784SOL    HW257667   8.818   9.096   7.528  0.2779 -0.8352 -0.7274
15785SOL     OW57668   7.354   1.390   5.883  0.1273  0.0962 -0.1141
15785SOL    HW157669   7.425   1.352   5.832 -1.2813 -1.4085 -1.0646
15785SOL    HW257670   7.374   1.483   5.888  1.5367 -0.1140 -1.3805
15786SOL     OW57671  11.078  12.699   9.111 -0.2320  0.1307 -0.0151
15786SOL    HW157672  11.173  12.710   9.120  0.1841 -1.5035 -1.7061
15786SOL    HW257673  11.063  12.692   9.017 -1.4023 -3.6766  0.2526
15787SOL     OW57674   3.748   8.432   4.336 -0.7306  0.9349  0.4931
15787SOL    HW157675   3.760   8.348   4.379  2.3372  2.0904  2.2128
15787SOL    HW257676   3.706   8.410   4.253  1.5793 -2.5905  0.0107
15788SOL     OW57677   2.208  10.232   2.253  0.0122 -0.1035  0.4218
15788SOL    HW157678   2.204  10.149   2.205 -2.4404  1.4582 -2.3551
15788SOL    HW257679   2.124  10.240   2.296  0.5446  0.5792  1.3805
15789SOL     OW57680   2.737   3.656   9.773 -0.0315  0.0996 -0.1251
15789SOL    HW157681   2.745   3.568   9.734  0.7008 -0.1950  0.6445
15789SOL    HW257682   2.665   3.697   9.726 -0.6094 -1.0421 -0.2693
15790SOL     OW57683   5.013   7.922   6.712 -0.4687  0.2707  0.2373
15790SOL    HW157684   4.978   7.937   6.800 -0.4171 -0.0393  0.3137
15790SOL    HW257685   5.011   7.826   6.702 -2.3714  0.3647 -0.8675
15791SOL     OW57686   1.141   3.899   1.335  0.1894  0.6698 -0.0840
15791SOL    HW157687   1.190   3.980   1.349 -0.3683  0.8337  1.1425
15791SOL    HW257688   1.055   3.928   1.303 -0.0894  0.6033  0.5722
15792SOL     OW57689   1.179   0.639   0.896 -0.3012  0.4004  0.7553
15792SOL    HW157690   1.230   0.661   0.973 -0.3452  0.7274  0.6966
15792SOL    HW257691   1.217   0.558   0.863  0.7096  1.0670  0.2440
15793SOL     OW57692   0.323   9.142   8.688  0.3571  0.1600 -0.2621
15793SOL    HW157693   0.371   9.192   8.754  1.1241 -0.2339 -0.5140
15793SOL    HW257694   0.387   9.123   8.620 -0.2846  0.0654 -0.8588
15794SOL     OW57695  10.247  12.286   2.141  0.4956 -0.0475  0.3473
15794SOL    HW157696  10.189  12.325   2.075 -0.6632 -0.3695  1.1394
15794SOL    HW257697  10.329  12.334   2.132  0.6717 -0.6433 -1.9057
15795SOL     OW57698   9.500   9.228  10.028 -0.4392  0.4865 -0.1674
15795SOL    HW157699   9.434   9.287   9.993 -0.3192  0.7561  0.0570
15795SOL    HW257700   9.449   9.160  10.073 -0.5517  1.3157  1.0043
15796SOL     OW57701  12.690   9.701   4.178  0.9630  0.5888 -0.3399
15796SOL    HW157702  12.666   9.793   4.183 -1.4701 -0.0615  2.1568
15796SOL    HW257703  12.766   9.693   4.235  0.4514  0.8965  0.4098
15797SOL     OW57704   3.746   4.089   1.608  0.3526  0.1784 -0.0407
15797SOL    HW157705   3.775   4.164   1.661  2.2011 -0.4760 -0.0421
15797SOL    HW257706   3.652   4.084   1.623  0.4970  1.3196  1.4897
15798SOL     OW57707   4.609   1.486  12.713 -0.2974 -0.0341  0.0812
15798SOL    HW157708   4.584   1.407  12.761 -1.2549 -0.5133 -1.1579
15798SOL    HW257709   4.648   1.542  12.779 -0.9472 -0.9472  1.2827
15799SOL     OW57710   0.415   4.279   3.783  0.8709 -0.0163  0.0791
15799SOL    HW157711   0.322   4.277   3.808  0.4007  1.4728 -1.3617
15799SOL    HW257712   0.447   4.361   3.818  2.1315 -1.2098  1.9258
15800SOL     OW57713  12.541  10.017   9.820 -0.1338 -0.3572 -0.3689
15800SOL    HW157714  12.550  10.068   9.900 -0.7201  0.6015 -0.8974
15800SOL    HW257715  12.630   9.988   9.800  0.0238 -0.5534  0.5872
15801SOL     OW57716   5.835   5.584   4.025 -0.3391  0.1870 -0.5149
15801SOL    HW157717   5.923   5.612   4.001 -0.0301  0.4533  0.8351
15801SOL    HW257718   5.777   5.644   3.978  0.2421  1.0693 -0.1327
15802SOL     OW57719   1.750   4.829   4.808 -0.1825  0.1030 -0.3241
15802SOL    HW157720   1.700   4.816   4.889 -0.3643  3.2643  0.1897
15802SOL    HW257721   1.841   4.832   4.836 -0.1951  0.4982 -0.3136
15803SOL     OW57722  11.117  12.559   1.121  0.0280 -0.3566  0.2847
15803SOL    HW157723  11.189  12.555   1.184 -0.4041 -0.0054  0.8029
15803SOL    HW257724  11.161  12.564   1.036  0.6171 -0.1398  0.5941
15804SOL     OW57725  10.821   2.681  12.905 -0.1529  0.5458 -0.0958
15804SOL    HW157726  10.882   2.720  12.842 -0.6350  1.4831 -0.0114
15804SOL    HW257727  10.761   2.629  12.852 -0.2752  0.9596 -0.3698
15805SOL     OW57728   2.379  12.302   3.516 -0.5919 -0.6024 -0.1983
15805SOL    HW157729   2.305  12.358   3.536 -0.1752  0.2901 -1.0711
15805SOL    HW257730   2.413  12.336   3.433  0.3599 -1.4364 -0.1697
15806SOL     OW57731   7.783  11.597   9.330  0.2851 -0.1718  0.3972
15806SOL    HW157732   7.751  11.674   9.377  0.4737 -0.5080  1.0859
15806SOL    HW257733   7.798  11.532   9.398  1.3722 -0.3871 -0.0269
15807SOL     OW57734   0.616  12.471   3.791  0.0159 -0.2148 -0.1807
15807SOL    HW157735   0.629  12.560   3.825 -0.6876  0.6163 -1.9453
15807SOL    HW257736   0.596  12.419   3.869  0.8469  1.0636  0.9564
15808SOL     OW57737   0.398  12.488   4.533  0.4121 -0.4741 -0.3073
15808SOL    HW157738   0.470  12.551   4.533 -0.5396  0.7891  2.4386
15808SOL    HW257739   0.321  12.541   4.510  0.0195 -1.3094 -0.9540
15809SOL     OW57740   6.989   2.412   4.057 -0.4402  0.8379  0.9110
15809SOL    HW157741   6.961   2.393   4.146 -1.2385 -0.6082  0.3822
15809SOL    HW257742   6.945   2.494   4.034 -2.4856 -0.2159  0.8970
15810SOL     OW57743   5.199  10.281   1.153  0.2872  0.1974 -0.1433
15810SOL    HW157744   5.291  10.278   1.180  0.3160  2.4654  0.1586
15810SOL    HW257745   5.202  10.307   1.061 -0.0460 -0.0683 -0.2303
15811SOL     OW57746   7.192   6.035   2.560  0.1013 -0.1393  0.1826
15811SOL    HW157747   7.242   6.105   2.600  0.2782 -0.6353  0.8421
15811SOL    HW257748   7.131   6.006   2.628  0.0050 -0.5952 -0.0892
15812SOL     OW57749   6.748  12.980  10.728  0.6713 -0.0016  0.2794
15812SOL    HW157750   6.764  12.903  10.783 -0.0605 -0.2277  0.1862
15812SOL    HW257751   6.749  13.054  10.788  0.5493 -0.1762  0.4971
15813SOL     OW57752   0.683   6.110   4.374  0.2622 -0.3095  0.2180
15813SOL    HW157753   0.774   6.084   4.380 -0.0570 -1.9525 -1.3188
15813SOL    HW257754   0.684   6.192   4.325  0.9239 -0.0479  0.6582
15814SOL     OW57755   0.584   0.268  10.002 -0.5446  0.4340  0.4727
15814SOL    HW157756   0.604   0.335  10.067 -1.6454 -1.1230  2.5256
15814SOL    HW257757   0.494   0.242  10.021  0.3640 -2.7999  0.9101
15815SOL     OW57758   6.214   1.104   9.185  0.2278 -0.6009  0.2007
15815SOL    HW157759   6.161   1.115   9.265  0.1036 -1.5679  0.2713
15815SOL    HW257760   6.246   1.014   9.191  1.2458 -0.2755 -0.2358
15816SOL     OW57761   9.846  12.499   3.882  0.3758  0.1019  0.4339
15816SOL    HW157762   9.867  12.515   3.790  1.0961  0.3270  0.6302
15816SOL    HW257763   9.774  12.436   3.880  0.8438 -0.4236 -0.2695
15817SOL     OW57764   2.881   3.383   7.836 -0.4664  0.0314 -0.0464
15817SOL    HW157765   2.927   3.298   7.839 -0.8843 -0.1835  0.3965
15817SOL    HW257766   2.855   3.393   7.745 -1.1306 -0.7186  0.0457
15818SOL     OW57767   7.241  10.058   4.105  0.2686 -0.4566 -0.3335
15818SOL    HW157768   7.180  10.058   4.179  0.7745 -0.8233  0.0877
15818SOL    HW257769   7.206  10.125   4.046 -0.4594 -0.5585 -0.0339
15819SOL     OW57770   5.186   0.201   0.600  0.2891 -0.0478 -0.3298
15819SOL    HW157771   5.249   0.206   0.528  1.3465 -2.3063  0.3267
15819SOL    HW257772   5.232   0.153   0.669 -1.4511  0.0892  1.0028
15820SOL     OW57773   3.328   6.483   3.690  0.5852 -0.0303 -0.5643
15820SOL    HW157774   3.359   6.413   3.747  1.4027  0.1395 -0.7772
15820SOL    HW257775   3.312   6.441   3.606 -0.5052 -0.2578 -0.2536
15821SOL     OW57776   7.733   5.118   5.213 -0.3743 -0.1279 -0.1130
15821SOL    HW157777   7.801   5.116   5.146  0.5579  1.0560  0.7398
15821SOL    HW257778   7.757   5.050   5.275  0.1029  0.3408  0.2276
15822SOL     OW57779  11.773   2.216   4.216 -0.5043 -0.5150 -0.5234
15822SOL    HW157780  11.819   2.228   4.300  1.4640  1.5039 -1.7934
15822SOL    HW257781  11.813   2.137   4.179 -0.3601 -0.6001 -0.1940
15823SOL     OW57782   1.198   9.068   0.833 -0.5287  0.1853 -0.0059
15823SOL    HW157783   1.158   9.030   0.755 -1.2447 -2.4271  1.5167
15823SOL    HW257784   1.124   9.094   0.887 -0.0548  0.6813  0.4105
15824SOL     OW57785   3.392   7.147   8.920  0.6305 -0.9985 -0.4528
15824SOL    HW157786   3.437   7.063   8.916 -0.5240 -1.6637  0.0963
15824SOL    HW257787   3.385   7.167   9.013  1.4846  0.0571 -0.5912
15825SOL     OW57788   8.936   8.743  10.197  0.5516 -0.2882  0.5900
15825SOL    HW157789   9.000   8.675  10.216  0.7490  0.1137  1.4275
15825SOL    HW257790   8.944   8.805  10.270 -0.8389 -0.2594  0.7572
15826SOL     OW57791   2.991   4.682   4.209 -0.4959 -0.3628 -0.0713
15826SOL    HW157792   2.996   4.632   4.128  0.6665  2.1057 -1.6658
15826SOL    HW257793   3.077   4.671   4.249 -0.2741  0.2034 -0.3727
15827SOL     OW57794   3.259  11.355  12.546  0.4799  0.8628  0.1049
15827SOL    HW157795   3.248  11.269  12.505  0.2432 -0.2315  2.3429
15827SOL    HW257796   3.348  11.381  12.522  0.8811 -0.4221  0.1145
15828SOL     OW57797   2.327   7.296  11.172  0.3513 -0.2472 -1.2099
15828SOL    HW157798   2.389   7.265  11.238 -0.7281  1.2406  0.6102
15828SOL    HW257799   2.380   7.346  11.110  1.1154  0.2827 -0.1616
15829SOL     OW57800   0.335   4.942   3.133  0.0998  0.1295 -0.4012
15829SOL    HW157801   0.351   5.032   3.160 -0.3851 -0.1472  0.9131
15829SOL    HW257802   0.272   4.948   3.062  2.6079  0.9842 -2.6956
15830SOL     OW57803   0.759   5.430   8.960 -0.2206  0.4950  0.3968
15830SOL    HW157804   0.769   5.523   8.982  1.2694  0.6491 -0.7369
15830SOL    HW257805   0.848   5.402   8.937 -0.6759 -1.1850  0.5775
15831SOL     OW57806   0.050   3.554   7.423 -0.0544 -0.2341  0.4352
15831SOL    HW157807  -0.030   3.604   7.437 -0.9965 -0.8457 -2.1534
15831SOL    HW257808   0.052   3.491   7.495 -2.4166 -0.8141  0.0775
15832SOL     OW57809   5.228   3.711   9.991  0.9893  0.3613  0.0411
15832SOL    HW157810   5.152   3.654   9.979  1.2654  0.3251 -1.8774
15832SOL    HW257811   5.229   3.766   9.912  1.8388  1.7029  0.9565
15833SOL     OW57812   8.737  12.633  10.791  0.2817  0.0329 -0.3690
15833SOL    HW157813   8.818  12.673  10.758  0.4009  0.9195  0.9613
15833SOL    HW257814   8.767  12.553  10.835  0.3258 -0.1162 -0.6616
15834SOL     OW57815  10.404  10.683  11.153  0.3174  0.2098  0.0969
15834SOL    HW157816  10.484  10.689  11.101  0.3763  1.5147  0.3041
15834SOL    HW257817  10.429  10.635  11.232  0.7565  0.1433 -0.0815
15835SOL     OW57818   5.597   0.426  12.644  0.0102  0.5893  0.4767
15835SOL    HW157819   5.533   0.365  12.607  0.3881  0.4941 -0.0140
15835SOL    HW257820   5.575   0.511  12.605  2.5408 -0.0540 -2.7956
15836SOL     OW57821  12.461   7.857   8.876  0.3588 -0.5870 -0.0050
15836SOL    HW157822  12.394   7.903   8.928 -0.0057  1.0158 -1.7937
15836SOL    HW257823  12.412   7.789   8.829 -0.1654  0.8755 -1.6636
15837SOL     OW57824   2.633   2.592   3.814  0.0940 -0.3622  0.3876
15837SOL    HW157825   2.544   2.581   3.847 -0.9743  3.0061 -0.9158
15837SOL    HW257826   2.633   2.548   3.729 -0.6369  0.3045  0.0270
15838SOL     OW57827   9.794   4.637   5.761  0.0934  0.0609 -0.2877
15838SOL    HW157828   9.741   4.716   5.772 -0.4658 -0.4986  1.5245
15838SOL    HW257829   9.831   4.621   5.848 -1.0109 -2.4791 -0.2016
15839SOL     OW57830   4.551   8.451  11.964  0.6961 -0.2355 -0.2606
15839SOL    HW157831   4.597   8.532  11.986  1.2337 -0.1037 -1.7865
15839SOL    HW257832   4.491   8.475  11.894  0.6979 -1.1031 -0.5748
15840SOL     OW57833  11.018   5.619   5.706 -0.3022  0.0171 -0.3145
15840SOL    HW157834  10.962   5.692   5.680 -1.1563  0.1293  1.7057
15840SOL    HW257835  11.063   5.594   5.625 -1.0289  1.8567 -1.3491
15841SOL     OW57836  10.694   0.261   7.971  0.1436  0.6083  0.0358
15841SOL    HW157837  10.680   0.290   8.061 -2.3002  1.1436 -0.4639
15841SOL    HW257838  10.724   0.170   7.979  0.5538  0.8462  1.3742
15842SOL     OW57839  10.018   4.035   6.608 -0.1752 -0.3131  0.0241
15842SOL    HW157840  10.030   4.105   6.672  1.4691  1.2284 -1.8203
15842SOL    HW257841  10.048   4.073   6.525 -3.2439 -1.8151 -1.9413
15843SOL     OW57842   5.094  11.976  12.377 -0.1871 -0.3556  0.4126
15843SOL    HW157843   5.176  12.023  12.362  0.0357 -0.5990  0.8727
15843SOL    HW257844   5.042  12.034  12.433 -1.3299  0.9049 -1.8037
15844SOL     OW57845  10.326  10.471   7.007 -0.6669 -0.2146  0.2839
15844SOL    HW157846  10.320  10.434   6.919 -1.4676  1.0354 -0.2100
15844SOL    HW257847  10.420  10.467   7.028 -0.4822 -0.6186 -0.5670
15845SOL     OW57848   6.042   9.539   9.733 -0.0048 -0.3189 -0.0528
15845SOL    HW157849   6.101   9.465   9.720  2.4055  1.6369 -1.0328
15845SOL    HW257850   6.045   9.555   9.827 -2.6596 -2.9388  0.6519
15846SOL     OW57851  10.296   1.055   9.024  0.3131 -0.2125  0.4260
15846SOL    HW157852  10.379   1.078   9.066 -0.4987  0.7176  1.5706
15846SOL    HW257853  10.291   1.114   8.949  0.8258 -0.5069  0.1485
15847SOL     OW57854   4.270   3.010   1.641  0.5943 -0.0506  0.3037
15847SOL    HW157855   4.227   2.998   1.557  2.9230 -2.8864 -0.6550
15847SOL    HW257856   4.200   3.005   1.705 -0.8790 -0.9534 -1.3018
15848SOL     OW57857   3.225   5.725   0.318  0.3264  0.1348 -1.0250
15848SOL    HW157858   3.162   5.779   0.365  1.0106 -0.4144  0.5838
15848SOL    HW257859   3.198   5.732   0.226 -2.9411 -1.1732 -0.3125
15849SOL     OW57860   9.327   9.574   1.155 -0.0860  0.3448  0.3569
15849SOL    HW157861   9.325   9.536   1.243 -1.4344 -0.8770 -0.1648
15849SOL    HW257862   9.295   9.664   1.167 -1.0756 -0.0733  1.0056
15850SOL     OW57863   8.144   3.647   2.381 -0.0767 -0.1321  0.3455
15850SOL    HW157864   8.149   3.555   2.407 -2.5002  0.1983  2.3779
15850SOL    HW257865   8.063   3.652   2.330 -1.4484  1.2692  2.5231
15851SOL     OW57866   8.220   9.984   9.732 -0.4376 -0.0050 -0.1982
15851SOL    HW157867   8.187   9.906   9.688  0.7577 -0.8271  0.3019
15851SOL    HW257868   8.154  10.004   9.798 -1.0528 -0.2137 -0.7360
15852SOL     OW57869   7.055   5.917   8.893 -0.0695 -0.1650 -0.6867
15852SOL    HW157870   6.971   5.962   8.893  0.9241  1.8279 -0.1449
15852SOL    HW257871   7.073   5.899   8.985  1.1249  1.5848 -0.5333
15853SOL     OW57872   5.028  10.596   2.362 -0.6951  0.1493  0.3077
15853SOL    HW157873   5.092  10.667   2.363 -2.5684  1.9478 -0.6444
15853SOL    HW257874   4.981  10.605   2.445 -0.7310 -0.1967  0.3269
15854SOL     OW57875   0.462   0.071  12.795 -0.2231 -0.2518  0.3774
15854SOL    HW157876   0.514   0.023  12.859  0.4345 -1.3563 -0.9470
15854SOL    HW257877   0.427   0.145  12.845  1.2180 -0.4113  1.7332
15855SOL     OW57878   2.432   7.130  12.634 -0.0582  0.0461 -0.1748
15855SOL    HW157879   2.348   7.173  12.616 -1.0125 -1.0042  1.4664
15855SOL    HW257880   2.441   7.066  12.564  0.1402  1.1495 -1.2022
15856SOL     OW57881  12.755   1.835  11.714  1.2833  0.3463 -0.4487
15856SOL    HW157882  12.817   1.887  11.766  1.9690 -0.9434  0.0651
15856SOL    HW257883  12.669   1.863  11.744  1.6652  0.0419  0.9902
15857SOL     OW57884   7.570   9.440   9.165 -0.0938  0.7744  0.5392
15857SOL    HW157885   7.574   9.502   9.092 -1.4787  0.4189  0.1254
15857SOL    HW257886   7.483   9.402   9.159  0.3520 -0.4536  1.4204
15858SOL     OW57887  11.373   6.532   4.771  0.3867 -0.1826 -0.1885
15858SOL    HW157888  11.392   6.577   4.689 -0.8126  0.4196 -0.1495
15858SOL    HW257889  11.278   6.523   4.773  0.5028 -1.7298  0.3397
15859SOL     OW57890   9.634  11.370  10.952 -0.3575  0.3139  1.1413
15859SOL    HW157891   9.548  11.410  10.936 -1.0792 -1.3753  0.5649
15859SOL    HW257892   9.686  11.394  10.875 -0.9691 -0.2935  0.5230
15860SOL     OW57893   2.763   5.292   1.255 -0.2686 -0.0658 -0.2206
15860SOL    HW157894   2.710   5.366   1.284  1.4238  1.1703 -0.1475
15860SOL    HW257895   2.846   5.301   1.303  0.3482 -1.4394 -0.9637
15861SOL     OW57896   8.141   8.913   6.005 -0.2592  0.1457 -0.0098
15861SOL    HW157897   8.085   8.965   5.947 -3.0548 -0.8050  1.6060
15861SOL    HW257898   8.150   8.829   5.960  0.4492  0.5118 -0.5688
15862SOL     OW57899   6.599   8.110   9.395 -0.4024 -0.2127  0.0336
15862SOL    HW157900   6.608   8.124   9.489 -0.9951 -1.6504  0.3350
15862SOL    HW257901   6.647   8.029   9.378  1.4710  1.1060 -1.2960
15863SOL     OW57902   7.393  11.659   1.627 -0.1140 -0.1551  0.3880
15863SOL    HW157903   7.401  11.727   1.693  0.8553  0.0662  0.0606
15863SOL    HW257904   7.452  11.687   1.557  0.8106 -1.6482  0.5278
15864SOL     OW57905  12.371   1.772   4.131 -0.0182 -0.7027 -0.0441
15864SOL    HW157906  12.300   1.836   4.142 -0.1132 -0.5588 -1.2862
15864SOL    HW257907  12.327   1.692   4.103  0.2129 -0.9643  0.3275
15865SOL     OW57908   9.348   1.696   2.452  0.3445 -0.2024 -0.3271
15865SOL    HW157909   9.388   1.631   2.396  1.9308  2.2042 -2.1935
15865SOL    HW257910   9.386   1.681   2.538  0.5446 -1.7786 -0.6683
15866SOL     OW57911   7.454   9.738   2.685 -0.1071  0.3903 -0.0636
15866SOL    HW157912   7.413   9.687   2.614 -0.4075  0.2931  0.1739
15866SOL    HW257913   7.385   9.745   2.751 -0.1519  1.3213 -0.1924
15867SOL     OW57914   2.685   1.189   1.939  0.7077 -0.2017  0.6777
15867SOL    HW157915   2.707   1.115   1.996 -3.4836 -1.5888  0.8435
15867SOL    HW257916   2.628   1.244   1.993 -0.2177  0.5102 -0.9643
15868SOL     OW57917   3.501  12.154  11.647 -0.1265  0.8567  0.5021
15868SOL    HW157918   3.593  12.141  11.671  0.1818  0.1560 -0.9360
15868SOL    HW257919   3.496  12.245  11.619  0.6645  0.3494 -1.4572
15869SOL     OW57920  12.732   3.022   8.521 -0.7281  0.1597 -0.1051
15869SOL    HW157921  12.811   3.030   8.576 -0.6364 -0.0751 -0.2050
15869SOL    HW257922  12.664   3.066   8.572 -0.6279 -0.0021  0.1715
15870SOL     OW57923   6.361   7.404   5.969  0.0724  0.2533 -0.0518
15870SOL    HW157924   6.352   7.418   6.063  1.5917  1.2253 -0.0109
15870SOL    HW257925   6.356   7.309   5.959 -2.4994  0.2486  0.6783
15871SOL     OW57926  12.475   4.175   9.359  0.1228  0.5477  0.1033
15871SOL    HW157927  12.534   4.220   9.298 -0.7206  0.5626 -0.7146
15871SOL    HW257928  12.533   4.143   9.429  1.0631  0.7836 -0.5494
15872SOL     OW57929   5.737  12.062   9.870  0.0195 -0.3166  0.1596
15872SOL    HW157930   5.742  12.119   9.947 -0.8977  0.3809 -0.2671
15872SOL    HW257931   5.803  11.995   9.885  0.3251  0.1989  1.2318
15873SOL     OW57932  10.459   0.127  11.768  0.3278 -0.0196  0.2396
15873SOL    HW157933  10.482   0.102  11.858  0.1328 -3.1570 -0.4711
15873SOL    HW257934  10.465   0.223  11.768 -1.2780  0.2726  4.0316
15874SOL     OW57935   4.900   3.974   8.520  0.2652  0.7509 -0.2749
15874SOL    HW157936   4.901   3.917   8.597 -0.4017  0.5511 -0.4013
15874SOL    HW257937   4.980   3.953   8.473 -0.2760 -0.5746 -0.6591
15875SOL     OW57938  11.413  11.368   4.545 -0.2723 -0.2656  0.1638
15875SOL    HW157939  11.362  11.323   4.478  0.0461 -0.9900  0.4063
15875SOL    HW257940  11.435  11.301   4.609  0.2301  0.2243  0.5193
15876SOL     OW57941   3.286   8.865  12.962 -0.2656  0.5033 -0.3997
15876SOL    HW157942   3.195   8.874  12.992 -0.0431  3.0112 -0.1963
15876SOL    HW257943   3.281   8.805  12.888 -2.1721  0.8852 -0.6448
15877SOL     OW57944   0.534  11.600   4.552 -0.2463 -0.3572  0.2203
15877SOL    HW157945   0.617  11.567   4.587 -0.5245 -1.1263  0.1912
15877SOL    HW257946   0.495  11.647   4.625  0.5246  0.6204  0.0242
15878SOL     OW57947   6.016   7.856   2.499 -0.0376  0.0467 -0.3550
15878SOL    HW157948   5.948   7.876   2.435 -1.1033 -0.5922  0.5269
15878SOL    HW257949   6.006   7.762   2.514  0.1947  0.1825  0.7182
15879SOL     OW57950   6.123  12.519  11.929 -0.0327 -0.6899  0.0814
15879SOL    HW157951   6.148  12.469  11.851 -2.3441  1.0733 -1.9575
15879SOL    HW257952   6.049  12.471  11.965 -0.2903 -0.3843 -0.0422
15880SOL     OW57953  12.332   2.080   8.758  0.6367 -0.3062 -0.2355
15880SOL    HW157954  12.287   1.996   8.744 -0.6640  0.5163 -1.2650
15880SOL    HW257955  12.304   2.108   8.845  0.9436 -0.8428  0.0436
15881SOL     OW57956  12.626  10.183   0.203  0.0064 -0.1414 -0.4337
15881SOL    HW157957  12.564  10.198   0.132 -1.6763 -0.0640  0.9747
15881SOL    HW257958  12.651  10.091   0.196  0.1682 -0.0300 -1.3454
15882SOL     OW57959   7.387   4.791   2.051 -0.4585  0.5119  0.0104
15882SOL    HW157960   7.433   4.817   2.131 -0.4793  0.3488  0.0762
15882SOL    HW257961   7.453   4.794   1.983 -0.5104  0.9465 -0.0215
15883SOL     OW57962   4.397   3.465   3.020 -0.4743 -0.0246 -0.4867
15883SOL    HW157963   4.320   3.409   3.008 -0.4648  0.0786 -1.0536
15883SOL    HW257964   4.461   3.407   3.062 -1.2632  0.2308  1.1357
15884SOL     OW57965  10.241  11.793   6.576 -0.1650  0.0972 -0.8786
15884SOL    HW157966  10.149  11.792   6.551 -0.0998 -2.4346 -1.2910
15884SOL    HW257967  10.240  11.814   6.670 -1.4580 -2.5276 -0.1991
15885SOL     OW57968  10.677   9.885   9.911  0.0992 -0.0266 -0.1094
15885SOL    HW157969  10.586   9.914   9.897  0.5383  1.5362  0.0794
15885SOL    HW257970  10.721   9.962   9.948  1.5548 -0.6996 -0.3802
15886SOL     OW57971   8.103  10.409   8.661 -0.0982 -0.5170 -0.2593
15886SOL    HW157972   8.152  10.456   8.593 -0.3747 -0.5614 -0.4902
15886SOL    HW257973   8.067  10.478   8.716  2.2166 -0.4878  1.3698
15887SOL     OW57974  10.563  10.254   5.778 -0.3195  0.0353 -1.1292
15887SOL    HW157975  10.617  10.260   5.856  0.9891  0.2263 -2.0165
15887SOL    HW257976  10.490  10.197   5.803  0.5153 -0.5717 -0.0194
15888SOL     OW57977  11.996   6.580   1.611 -0.0214 -0.4943  0.0012
15888SOL    HW157978  12.028   6.494   1.584  0.7596 -0.8823  1.9968
15888SOL    HW257979  12.066   6.616   1.664 -0.7023  1.0141 -0.0853
15889SOL     OW57980  12.128   1.481   5.274 -0.0850  0.0371 -0.2295
15889SOL    HW157981  12.106   1.389   5.289  1.0731 -0.1392  0.4417
15889SOL    HW257982  12.111   1.494   5.180 -0.3710 -0.8162 -0.3063
15890SOL     OW57983  11.872  10.447   1.980 -0.0368 -0.1805 -0.0508
15890SOL    HW157984  11.880  10.478   1.890 -2.8082  0.8618 -0.0339
15890SOL    HW257985  11.793  10.489   2.013  0.8806 -0.5260  2.9006
15891SOL     OW57986   1.396   1.911   9.768  0.3389  1.0092 -0.0536
15891SOL    HW157987   1.455   1.847   9.807 -1.5101  0.0557  1.3269
15891SOL    HW257988   1.451   1.987   9.751  2.2020 -0.2695  0.0190
15892SOL     OW57989  11.355   0.749  11.323 -0.5525  0.2058  0.6327
15892SOL    HW157990  11.320   0.825  11.368  1.7649  0.8313  1.5138
15892SOL    HW257991  11.353   0.773  11.230 -3.1657 -0.1593  0.5311
15893SOL     OW57992   6.519   6.169   4.314 -0.2391 -0.3490 -0.4392
15893SOL    HW157993   6.566   6.123   4.244 -0.7443  0.0113 -1.0219
15893SOL    HW257994   6.587   6.217   4.361  0.5455 -2.6759  1.0201
15894SOL     OW57995   8.741  11.198   5.053  0.1561  0.5581 -0.6766
15894SOL    HW157996   8.655  11.226   5.024 -0.8412 -0.5672  1.0228
15894SOL    HW257997   8.733  11.103   5.066  2.3209  0.0013 -2.6015
15895SOL     OW57998   6.192   0.381   7.393 -0.3913  0.1445 -0.2188
15895SOL    HW157999   6.132   0.373   7.319 -1.6412 -0.2582  0.8186
15895SOL    HW258000   6.275   0.409   7.353 -1.4787  1.6217 -1.5854
15896SOL     OW58001  10.841   5.634   6.678  0.2946  0.2107 -0.0660
15896SOL    HW158002  10.932   5.611   6.698  0.2426 -0.7186 -0.8392
15896SOL    HW258003  10.821   5.584   6.599 -0.6261  1.0564 -0.3763
15897SOL     OW58004   6.243  11.817   5.425  0.4166  0.1171 -0.2971
15897SOL    HW158005   6.266  11.724   5.430 -0.0415 -0.0003 -0.3249
15897SOL    HW258006   6.168  11.820   5.365  1.8894  0.7883 -2.1866
15898SOL     OW58007   0.831  12.258   4.609  0.3460  0.7214 -0.1066
15898SOL    HW158008   0.905  12.313   4.634  2.1491 -1.3240 -0.6444
15898SOL    HW258009   0.756  12.298   4.653  1.9822  2.0500  1.6804
15899SOL     OW58010   3.352   5.309  12.538  0.2288 -0.0873 -0.0855
15899SOL    HW158011   3.377   5.382  12.594  1.3389  0.6357 -1.4622
15899SOL    HW258012   3.401   5.234  12.572  0.7238  0.2910  0.0374
15900SOL     OW58013   6.168  11.924   0.230 -0.1668  0.3952  0.0127
15900SOL    HW158014   6.076  11.916   0.204  0.0085  0.5269 -0.6607
15900SOL    HW258015   6.211  11.960   0.153  0.5812 -0.3489  0.0759
15901SOL     OW58016  12.691   3.504   1.372 -0.0609  0.3087  0.5629
15901SOL    HW158017  12.634   3.427   1.367  0.6938 -0.5310  3.3522
15901SOL    HW258018  12.773   3.471   1.410  1.8996  1.7336 -2.0554
15902SOL     OW58019   0.543   6.493   5.196  0.1942 -0.5473 -0.0148
15902SOL    HW158020   0.611   6.555   5.221  0.4750 -0.4202 -1.0353
15902SOL    HW258021   0.582   6.407   5.209  0.3919 -0.4805 -0.1653
15903SOL     OW58022   0.803   8.731   4.825 -0.6146 -0.4112  0.1887
15903SOL    HW158023   0.865   8.678   4.875  0.0334  1.4966  1.5285
15903SOL    HW258024   0.720   8.685   4.833  0.0401 -1.5517  0.7326
15904SOL     OW58025   3.995   7.044   5.580 -0.2404  0.3659 -0.3121
15904SOL    HW158026   4.087   7.016   5.575 -0.8119 -1.4721 -1.4335
15904SOL    HW258027   3.970   7.029   5.672  0.5579  0.8696 -0.0015
15905SOL     OW58028   5.343  10.693   4.252 -0.1800 -0.1101 -0.3859
15905SOL    HW158029   5.361  10.698   4.158 -3.2360  0.2536 -1.0444
15905SOL    HW258030   5.430  10.687   4.292  1.2845  0.7493 -3.1383
15906SOL     OW58031   2.942  11.624  12.040 -0.2081  0.6846 -0.1812
15906SOL    HW158032   2.988  11.553  12.086  0.3119  0.9699 -0.2521
15906SOL    HW258033   2.919  11.686  12.110 -1.3671  0.0843 -0.0041
15907SOL     OW58034   3.803  12.796   0.935  0.2488 -0.0411 -0.0302
15907SOL    HW158035   3.789  12.725   0.997  0.5973  0.0659  0.1724
15907SOL    HW258036   3.726  12.793   0.878  0.3083 -0.6440 -0.0888
15908SOL     OW58037  12.643  11.576   5.189 -0.0163  0.7877 -0.0472
15908SOL    HW158038  12.626  11.633   5.115 -0.7060 -0.5180 -0.9259
15908SOL    HW258039  12.566  11.584   5.245  0.0684  1.0088  0.0409
15909SOL     OW58040   9.725   0.843  11.149  0.1375 -0.1158  0.4147
15909SOL    HW158041   9.804   0.789  11.148 -0.5831 -1.2132 -1.1673
15909SOL    HW258042   9.688   0.833  11.061 -0.6774  2.0268  0.4403
15910SOL     OW58043   7.586   7.457   2.790 -0.3725 -0.8458 -0.3407
15910SOL    HW158044   7.675   7.469   2.756 -0.1553 -0.8841  0.2052
15910SOL    HW258045   7.529   7.490   2.721  0.0950  0.0894 -0.2957
15911SOL     OW58046   4.466  12.171   9.597  0.2370  0.6293 -0.0807
15911SOL    HW158047   4.520  12.092   9.590 -1.2755 -0.4907  0.1881
15911SOL    HW258048   4.446  12.179   9.690 -1.5509 -0.0950 -0.3570
15912SOL     OW58049   4.265  12.312   9.291  0.0058 -0.8205 -0.4836
15912SOL    HW158050   4.277  12.219   9.312 -1.5557 -0.9548 -0.0660
15912SOL    HW258051   4.309  12.359   9.363 -1.6649 -1.2653  0.8865
15913SOL     OW58052   7.168   0.024   9.648 -0.4513  0.0978  0.0859
15913SOL    HW158053   7.216  -0.028   9.713 -1.0509  0.9124  1.2054
15913SOL    HW258054   7.233   0.042   9.580  0.5261  0.2086  1.0137
15914SOL     OW58055   7.176   0.801   3.336  0.4868 -0.2797  0.0843
15914SOL    HW158056   7.155   0.891   3.361 -3.2778 -1.6512  2.7785
15914SOL    HW258057   7.156   0.797   3.242 -0.9625  1.3170  0.2767
15915SOL     OW58058   4.799   3.304   4.566 -0.2546 -0.4675 -0.2747
15915SOL    HW158059   4.881   3.304   4.615 -0.4207 -1.4080  0.0331
15915SOL    HW258060   4.822   3.342   4.481  0.7721 -1.6987 -0.5920
15916SOL     OW58061   9.009   3.598   2.378 -0.0523 -0.4867 -0.0530
15916SOL    HW158062   9.059   3.551   2.445  1.1268 -0.3455 -0.8044
15916SOL    HW258063   8.979   3.678   2.421  1.4723  0.0441  0.0600
15917SOL     OW58064  11.587   9.823   6.855  0.2441  0.4713 -0.2896
15917SOL    HW158065  11.567   9.867   6.938 -0.3283  1.9782 -1.1948
15917SOL    HW258066  11.639   9.747   6.881 -1.2438  0.0008  1.5963
15918SOL     OW58067  11.606  10.904   7.319 -0.2487 -0.6027 -0.9949
15918SOL    HW158068  11.557  10.982   7.297 -0.0782 -0.5345 -1.1385
15918SOL    HW258069  11.696  10.935   7.334 -0.2189 -0.7433 -0.8751
15919SOL     OW58070   6.768  12.248   5.566 -0.2524  0.5834 -0.1892
15919SOL    HW158071   6.765  12.173   5.626 -0.4735  0.0225 -0.8831
15919SOL    HW258072   6.686  12.242   5.517 -0.5392  1.6261  0.1469
15920SOL     OW58073  10.478   2.992   4.906 -0.5874  0.2322 -0.1246
15920SOL    HW158074  10.421   2.916   4.894 -0.2226  0.1360 -1.4128
15920SOL    HW258075  10.451   3.053   4.837 -1.2091  1.5001  1.1921
15921SOL     OW58076   7.458   2.693   6.834 -0.2643  0.0156 -1.4709
15921SOL    HW158077   7.457   2.598   6.850 -0.3928  0.3633  1.0377
15921SOL    HW258078   7.365   2.717   6.826 -0.5531  0.3865  1.7591
15922SOL     OW58079   5.570   2.083  11.803  0.0194  0.1093  1.1321
15922SOL    HW158080   5.531   2.031  11.873  0.7221  0.9191  2.1577
15922SOL    HW258081   5.640   2.132  11.846  2.2186 -1.2972 -0.6486
15923SOL     OW58082   2.244  11.553   0.790  0.1526  0.0801 -0.1510
15923SOL    HW158083   2.318  11.613   0.801  1.3166 -0.8598 -2.3162
15923SOL    HW258084   2.275  11.470   0.826  0.4036 -0.4636 -1.5573
15924SOL     OW58085  10.036   4.472  12.179 -0.2835 -0.0506 -0.5788
15924SOL    HW158086   9.950   4.451  12.142 -1.0784  1.3059  0.3899
15924SOL    HW258087  10.016   4.499  12.269  1.3629 -1.3507  0.2311
15925SOL     OW58088   1.188   8.795   6.237  0.1467  0.0288 -0.4643
15925SOL    HW158089   1.174   8.869   6.178 -2.0338  0.1808  0.1341
15925SOL    HW258090   1.220   8.834   6.318  0.8876  0.0833 -0.7813
15926SOL     OW58091   0.640   7.295   6.926 -0.0163 -0.0652 -0.2960
15926SOL    HW158092   0.732   7.271   6.938 -0.3085 -0.5079  1.2618
15926SOL    HW258093   0.598   7.215   6.895  0.3418  0.5257 -2.5600
15927SOL     OW58094   5.684  12.987   2.205  0.5205  0.0878 -0.1653
15927SOL    HW158095   5.606  12.983   2.259  0.7545 -1.2155  0.1143
15927SOL    HW258096   5.652  13.012   2.118 -0.3123 -1.0935 -0.2189
15928SOL     OW58097   4.106   7.372  11.240 -0.0516  0.3695 -0.0030
15928SOL    HW158098   4.168   7.381  11.167  0.3813 -0.0534  0.3063
15928SOL    HW258099   4.041   7.309  11.208  0.5069 -0.3344  0.2090
15929SOL     OW58100   4.136   2.513  12.366  0.0762 -0.2129 -0.2075
15929SOL    HW158101   4.051   2.534  12.404 -0.1242 -1.7742  0.2913
15929SOL    HW258102   4.193   2.583  12.395 -0.7556  0.1832  0.5265
15930SOL     OW58103   8.825   8.266   6.002 -0.0085  0.3294  0.6336
15930SOL    HW158104   8.884   8.191   6.011 -0.4677  0.0735  1.5606
15930SOL    HW258105   8.749   8.232   5.955  0.7006  0.7428 -0.8784
15931SOL     OW58106   3.638   7.037   5.473 -0.1174  0.0891 -0.1111
15931SOL    HW158107   3.643   7.062   5.565  0.6317 -1.6694  0.3606
15931SOL    HW258108   3.578   6.963   5.470  1.1771 -0.9960 -0.7388
15932SOL     OW58109   0.768   4.098   8.916 -0.5982  0.1598  0.2882
15932SOL    HW158110   0.818   4.146   8.849 -0.5490  0.6168  0.6531
15932SOL    HW258111   0.677   4.122   8.900 -0.5031  1.0419  0.9928
15933SOL     OW58112  12.325   7.877   5.179  0.0325  0.0316 -0.4627
15933SOL    HW158113  12.271   7.812   5.224  2.7624 -2.2696 -0.2418
15933SOL    HW258114  12.295   7.961   5.214 -1.0454 -1.3516  2.2217
15934SOL     OW58115  10.483   2.029   3.776 -0.1202  0.7564 -0.0484
15934SOL    HW158116  10.537   2.064   3.706 -0.4444  1.4467  0.0436
15934SOL    HW258117  10.460   2.104   3.830 -0.4718  0.3428  0.3923
15935SOL     OW58118   4.678  11.517   6.014 -0.0002 -0.4866 -0.0751
15935SOL    HW158119   4.760  11.566   6.015 -0.9988  1.3814 -1.7267
15935SOL    HW258120   4.685  11.460   5.937 -0.3811 -0.0215 -0.4637
15936SOL     OW58121   0.405   2.211   7.852  0.5064  0.0478 -0.6615
15936SOL    HW158122   0.409   2.201   7.757  0.1302  1.2346 -0.8139
15936SOL    HW258123   0.497   2.213   7.880  0.6182 -0.8617 -0.9183
15937SOL     OW58124   0.724   8.552   6.264 -0.1621 -0.3048  0.0436
15937SOL    HW158125   0.712   8.496   6.340  2.8956  0.1630  1.0160
15937SOL    HW258126   0.697   8.497   6.190 -0.9877 -1.6029  1.2485
15938SOL     OW58127   0.103   0.950  10.450 -0.7743  0.0790  0.9531
15938SOL    HW158128   0.065   1.031  10.483 -0.6369  0.6554 -0.2603
15938SOL    HW258129   0.057   0.932  10.368  0.3233 -0.1688  0.3670
15939SOL     OW58130   3.249   8.632   4.502  0.0082  0.3685 -0.3057
15939SOL    HW158131   3.310   8.560   4.481  0.2426  0.9883 -1.8678
15939SOL    HW258132   3.163   8.596   4.483  0.0321  0.1395  0.0033
15940SOL     OW58133   2.298   0.253   2.993 -0.0545 -0.1386  0.0717
15940SOL    HW158134   2.213   0.296   3.007  0.3771  0.5455  0.6659
15940SOL    HW258135   2.302   0.237   2.899 -0.0685  1.4950 -0.2305
15941SOL     OW58136  11.471   0.353   1.426 -0.2167 -0.5735 -0.0616
15941SOL    HW158137  11.566   0.360   1.433 -0.2521 -0.2801  0.1528
15941SOL    HW258138  11.438   0.433   1.468 -0.4808  0.4789 -2.1104
15942SOL     OW58139   9.254   1.322   1.699  0.2386 -0.3701  0.0799
15942SOL    HW158140   9.327   1.314   1.761 -0.8720  0.9817  1.6451
15942SOL    HW258141   9.192   1.381   1.742 -0.6235  0.6020 -2.3094
15943SOL     OW58142   7.458   8.115   9.009  0.5135  0.4878  0.0044
15943SOL    HW158143   7.444   8.051   9.079  0.7847  0.7630  0.3124
15943SOL    HW258144   7.399   8.188   9.030 -1.6086 -0.6290 -1.6280
15944SOL     OW58145   3.957   6.284   0.501 -0.1279  0.1648 -0.2446
15944SOL    HW158146   3.910   6.295   0.584  2.2994 -2.7534  1.6979
15944SOL    HW258147   4.015   6.360   0.497  0.4598 -0.1641  1.2947
15945SOL     OW58148   9.249   0.069   9.661 -0.1085  0.3782  0.6644
15945SOL    HW158149   9.340   0.041   9.649 -0.2704 -0.5192  1.4541
15945SOL    HW258150   9.216   0.015   9.733 -1.5844 -0.0385 -0.2737
15946SOL     OW58151  11.659   9.221  12.939 -0.5422  0.3211 -0.0117
15946SOL    HW158152  11.725   9.189  12.878 -3.0934 -1.3142 -2.1183
15946SOL    HW258153  11.685   9.185  13.024  1.6472  0.4340 -0.5722
15947SOL     OW58154  11.620   6.370  10.971 -0.0677  0.0961  0.2677
15947SOL    HW158155  11.691   6.418  10.929 -0.3119 -0.7099 -1.1152
15947SOL    HW258156  11.623   6.283  10.932 -0.6251 -0.5515  1.5910
15948SOL     OW58157   3.071   5.851   6.321  0.3960  0.1110  0.0680
15948SOL    HW158158   3.035   5.924   6.271  1.1780  0.3309 -0.1972
15948SOL    HW258159   3.043   5.773   6.273 -1.5393  0.1373  1.0653
15949SOL     OW58160   3.048   6.238   3.495  0.0866 -0.1816  0.2298
15949SOL    HW158161   3.105   6.254   3.570  2.2217  0.1340 -1.3483
15949SOL    HW258162   3.049   6.143   3.484  0.8496 -0.1420 -0.1404
15950SOL     OW58163   0.991  12.483   1.863  0.8230  0.6064  0.2619
15950SOL    HW158164   0.956  12.563   1.823 -2.4242 -0.7291  0.1197
15950SOL    HW258165   1.007  12.424   1.790 -0.4129 -0.1287  0.5566
15951SOL     OW58166   1.658   6.233   9.803 -0.3041  0.2035 -0.7673
15951SOL    HW158167   1.656   6.238   9.898 -0.8023 -1.2782 -0.6733
15951SOL    HW258168   1.750   6.251   9.780 -0.5006  2.2397 -0.1732
15952SOL     OW58169   3.248   7.182   9.164 -0.0800 -0.0088 -0.5495
15952SOL    HW158170   3.186   7.114   9.136 -1.7058  1.1319  0.1117
15952SOL    HW258171   3.205   7.264   9.141  0.7373  0.8445  0.8341
15953SOL     OW58172   5.239   8.835   9.620 -0.0366  0.4506 -0.0373
15953SOL    HW158173   5.270   8.758   9.666 -1.7330 -0.0538  0.3565
15953SOL    HW258174   5.280   8.831   9.534  0.4603 -0.4852  0.2356
15954SOL     OW58175   2.133   2.255   2.267  0.6509  0.2661  0.7074
15954SOL    HW158176   2.207   2.287   2.216 -0.0010 -1.8115 -1.7834
15954SOL    HW258177   2.172   2.194   2.330  1.4319  2.6354  2.6714
15955SOL     OW58178  12.269   7.439   3.214  0.0292 -0.1025 -0.4971
15955SOL    HW158179  12.205   7.502   3.182  0.8122  0.4727 -0.9544
15955SOL    HW258180  12.328   7.491   3.269 -0.7033 -0.8833  1.1052
15956SOL     OW58181   1.240  10.195   7.372 -0.0301  0.2279 -0.2062
15956SOL    HW158182   1.329  10.160   7.384  0.3152  0.2933 -2.1580
15956SOL    HW258183   1.253  10.287   7.352 -0.4298  0.0183 -1.5304
15957SOL     OW58184   5.553   6.767  10.823  0.6299  0.2323  0.1804
15957SOL    HW158185   5.629   6.786  10.768  1.6577  0.2856  1.5454
15957SOL    HW258186   5.486   6.828  10.794  0.7019 -0.5787 -1.8197
15958SOL     OW58187   8.764   7.279   8.700  0.3826  0.0720 -0.2279
15958SOL    HW158188   8.824   7.230   8.644  1.3131  0.0748  0.7376
15958SOL    HW258189   8.743   7.358   8.650 -0.7565 -1.0337 -1.5928
15959SOL     OW58190   7.200   2.518   6.257 -0.3587  0.0134  0.0631
15959SOL    HW158191   7.295   2.524   6.260 -0.3331 -0.5965  0.5077
15959SOL    HW258192   7.176   2.567   6.178  0.0921  2.9295  1.5924
15960SOL     OW58193   9.504   8.730   1.417 -0.4286  0.2487  0.0187
15960SOL    HW158194   9.581   8.690   1.458 -1.1248 -0.2476  0.8773
15960SOL    HW258195   9.530   8.743   1.326  0.2074 -1.1462 -0.0224
15961SOL     OW58196   4.888   4.537   1.146 -0.4269  0.2192 -0.0670
15961SOL    HW158197   4.866   4.494   1.063  3.0855 -3.8578  0.7639
15961SOL    HW258198   4.826   4.501   1.209  1.1095 -2.2408  0.1849
15962SOL     OW58199  12.668   7.893   3.083  0.1075 -0.2825 -0.7997
15962SOL    HW158200  12.593   7.871   3.138  1.8111 -3.0059  0.6278
15962SOL    HW258201  12.732   7.931   3.143 -0.1615  2.4477 -2.0752
15963SOL     OW58202  10.236  12.733   3.689  0.1986  0.1573  0.1942
15963SOL    HW158203  10.309  12.678   3.661 -1.4378 -2.0643 -0.0149
15963SOL    HW258204  10.226  12.716   3.782  0.0568  0.6041  0.2663
15964SOL     OW58205   5.967  10.373   3.608  0.2383 -0.7790 -0.0372
15964SOL    HW158206   6.040  10.415   3.653  0.7681 -0.8173 -0.8411
15964SOL    HW258207   5.939  10.304   3.668  1.4044 -1.3004 -0.0614
15965SOL     OW58208   8.857  12.414  11.532 -1.0540  0.1258 -0.0561
15965SOL    HW158209   8.885  12.501  11.502 -1.1111  0.2352  0.2050
15965SOL    HW258210   8.901  12.353  11.473 -2.2079  0.3732 -1.2120
15966SOL     OW58211   7.408  10.611   6.956  0.0018  0.1919  0.2913
15966SOL    HW158212   7.365  10.696   6.949 -1.2923 -0.2789  1.9315
15966SOL    HW258213   7.449  10.598   6.870 -0.6913  1.9607 -0.3606
15967SOL     OW58214   2.734   9.977   3.950  0.1875 -0.2911  0.1244
15967SOL    HW158215   2.650  10.023   3.959  2.1999  3.6407  1.2200
15967SOL    HW258216   2.765  10.000   3.862  0.2761 -1.5305 -0.1882
15968SOL     OW58217   3.889  10.484   9.708  0.4125 -0.4419  0.0710
15968SOL    HW158218   3.845  10.427   9.645 -1.4282  0.6673  0.2622
15968SOL    HW258219   3.979  10.452   9.710 -0.0894 -2.1373 -1.1875
15969SOL     OW58220   7.849   9.901   5.064 -0.3584  0.2791 -0.4304
15969SOL    HW158221   7.872   9.922   5.155  0.7390  0.3364 -0.7066
15969SOL    HW258222   7.754   9.898   5.064 -0.3786  0.1258  0.7638
15970SOL     OW58223  12.514   6.872   4.422 -0.3327  0.5017  0.7470
15970SOL    HW158224  12.501   6.964   4.399 -0.2890  0.1168 -0.9484
15970SOL    HW258225  12.429   6.843   4.454 -0.2337  1.2294  1.7023
15971SOL     OW58226   4.448   6.062   5.164  0.0180  0.2363 -0.4507
15971SOL    HW158227   4.503   6.140   5.174 -0.8938  0.7489  0.8555
15971SOL    HW258228   4.415   6.044   5.252 -0.0951 -1.4153 -0.7988
15972SOL     OW58229  11.157  10.695   3.009 -0.1953  0.2758  0.3651
15972SOL    HW158230  11.115  10.738   3.083  0.0025  1.3576 -0.1392
15972SOL    HW258231  11.249  10.720   3.016 -0.4719  1.9339 -1.2691
15973SOL     OW58232   2.602  12.567   0.441 -0.5567 -0.0301  0.2613
15973SOL    HW158233   2.524  12.584   0.493 -0.2209 -0.4879  0.9412
15973SOL    HW258234   2.624  12.475   0.459  0.4586  0.2494  0.5511
15974SOL     OW58235   6.038  11.064   9.269 -0.6181 -0.5841  0.8690
15974SOL    HW158236   6.110  11.123   9.292  0.0459 -1.0430  0.0254
15974SOL    HW258237   6.074  10.976   9.282 -0.5603 -0.8475 -0.8533
15975SOL     OW58238  10.830   7.344   7.063 -0.1939  0.2772  0.8928
15975SOL    HW158239  10.749   7.395   7.072 -0.3466  0.1505  0.2712
15975SOL    HW258240  10.811   7.281   6.994  0.1855 -0.2523  1.2659
15976SOL     OW58241  12.227   2.008   4.156 -0.1011  0.9486 -0.8126
15976SOL    HW158242  12.304   2.042   4.202  1.3260 -0.2653 -2.2172
15976SOL    HW258243  12.242   2.029   4.064 -1.5162  0.7561 -1.1170
15977SOL     OW58244   5.421   9.722   4.895 -0.7251  0.1351 -0.1868
15977SOL    HW158245   5.496   9.664   4.875  0.2326  0.7885  1.3253
15977SOL    HW258246   5.424   9.789   4.827  0.1029  0.1728 -0.1254
15978SOL     OW58247  10.718   0.904   0.169  0.4042 -0.2592  0.3088
15978SOL    HW158248  10.708   0.899   0.074 -0.7178  0.0897  0.3939
15978SOL    HW258249  10.660   0.836   0.203  1.0935 -0.6361  0.7304
15979SOL     OW58250  12.274   9.839  10.971  0.2987 -0.1874 -0.7866
15979SOL    HW158251  12.186   9.814  10.944  0.2112  1.1924 -1.8886
15979SOL    HW258252  12.266   9.861  11.064 -0.3373 -0.8496 -0.6839
15980SOL     OW58253   4.540   4.170  10.787  0.5287  0.8426 -0.3430
15980SOL    HW158254   4.554   4.258  10.822 -1.4993  0.4758  1.5579
15980SOL    HW258255   4.477   4.182  10.716 -0.8920  0.8234  0.8650
15981SOL     OW58256   5.946   7.235   0.026 -0.2904 -0.5807  0.5260
15981SOL    HW158257   5.951   7.149   0.068 -0.6444 -0.5230  0.6923
15981SOL    HW258258   5.864   7.273   0.058 -0.2476 -0.2719  0.2794
15982SOL     OW58259   3.832  12.088   9.469 -0.1458 -0.1228 -0.4962
15982SOL    HW158260   3.818  12.170   9.422  0.7401  0.9982  1.1230
15982SOL    HW258261   3.926  12.072   9.461 -0.1898 -0.5665 -0.1385
15983SOL     OW58262   7.800   8.507   6.665 -0.0449  0.2493 -0.0951
15983SOL    HW158263   7.890   8.485   6.641 -0.4960 -2.7050  0.5781
15983SOL    HW258264   7.797   8.494   6.760 -1.6672 -1.8547 -0.3797
15984SOL     OW58265   2.117   3.376   6.294  0.2597 -0.6734  0.3991
15984SOL    HW158266   2.157   3.418   6.217  1.6087 -1.6656  0.5201
15984SOL    HW258267   2.138   3.434   6.367 -2.3647  1.1042 -0.1225
15985SOL     OW58268  11.469   8.252   4.012 -0.0853 -0.3509 -0.0930
15985SOL    HW158269  11.449   8.326   3.956  0.2007  0.5608  0.9752
15985SOL    HW258270  11.405   8.185   3.987  0.5974 -0.3228 -2.1077
15986SOL     OW58271  11.925   6.332   7.257 -0.2108  0.3512  0.6921
15986SOL    HW158272  11.919   6.272   7.182 -0.3391  1.4262 -0.1960
15986SOL    HW258273  11.889   6.283   7.330 -0.6394 -0.5287 -0.0864
15987SOL     OW58274   9.085   6.799   1.591 -0.2829 -0.2545 -0.4659
15987SOL    HW158275   9.115   6.730   1.532  0.7362 -0.4193  0.2189
15987SOL    HW258276   9.125   6.879   1.556 -1.8508  0.1052 -1.5422
15988SOL     OW58277   4.774   4.078   6.247 -0.0861 -0.2062  0.5392
15988SOL    HW158278   4.716   4.146   6.282  0.5101  0.9807 -0.7101
15988SOL    HW258279   4.847   4.126   6.208  0.4261 -1.5693 -0.2431
15989SOL     OW58280   3.095   4.514   3.008 -0.4472 -0.2846  0.0627
15989SOL    HW158281   3.098   4.466   3.091  1.0208 -0.5619 -0.1087
15989SOL    HW258282   3.030   4.468   2.956  0.6075 -1.8673  0.0689
15990SOL     OW58283  10.909   4.673   7.884  0.4650  0.3931 -0.1748
15990SOL    HW158284  10.956   4.598   7.918 -1.1046 -0.7412 -0.4003
15990SOL    HW258285  10.974   4.722   7.834  1.7246 -0.3072  0.7305
15991SOL     OW58286   7.648   0.485   7.583  0.5458 -0.3557  0.0439
15991SOL    HW158287   7.738   0.503   7.555  0.1085  0.7538 -0.7372
15991SOL    HW258288   7.606   0.449   7.505 -0.3702  1.6350 -0.4535
15992SOL     OW58289   0.831   1.538  10.244 -0.6693 -0.1915 -0.8185
15992SOL    HW158290   0.764   1.530  10.312 -0.5967  0.1793 -0.7003
15992SOL    HW258291   0.796   1.489  10.170 -0.0322 -2.0100  0.0202
15993SOL     OW58292   6.437   4.966   8.723  0.4219 -0.3064  0.0010
15993SOL    HW158293   6.385   4.922   8.655  0.6803 -1.2146  0.3787
15993SOL    HW258294   6.385   5.043   8.747  0.7238  0.5054 -1.8154
15994SOL     OW58295   1.273   3.764   6.987 -0.1722 -0.2506  0.8587
15994SOL    HW158296   1.313   3.831   7.043  1.6478  0.1319 -0.8061
15994SOL    HW258297   1.188   3.748   7.027 -0.7819  3.1913  1.2821
15995SOL     OW58298   8.971  11.771   3.226  0.2321  0.6565  0.4473
15995SOL    HW158299   8.984  11.760   3.132 -1.0377  0.1576  0.3026
15995SOL    HW258300   9.058  11.757   3.264  0.6118  0.0548 -0.5888
15996SOL     OW58301  11.558   5.506  10.830 -0.0587  0.3479 -0.2730
15996SOL    HW158302  11.565   5.478  10.921  1.1783  0.9863 -0.1544
15996SOL    HW258303  11.577   5.427  10.779 -0.4992  0.0508  0.0150
15997SOL     OW58304   2.739   5.849   9.035 -0.0891 -0.2570  0.0599
15997SOL    HW158305   2.802   5.913   9.000  1.2573  0.1176  2.8377
15997SOL    HW258306   2.671   5.902   9.075  0.2466 -0.5427  1.0457
15998SOL     OW58307   2.384  11.842   7.165  0.3764  0.4993  0.6469
15998SOL    HW158308   2.365  11.849   7.258  0.5496  1.3867  0.6247
15998SOL    HW258309   2.375  11.749   7.145  1.6803  0.0855  1.8449
15999SOL     OW58310   7.700  10.440  10.102  0.2334 -0.3784 -0.0115
15999SOL    HW158311   7.654  10.459  10.020 -1.1216 -0.8354  0.6173
15999SOL    HW258312   7.773  10.503  10.104  1.1388 -1.2337 -2.2125
16000SOL     OW58313   1.274   3.808   2.993 -0.4875  0.4445 -0.0104
16000SOL    HW158314   1.185   3.778   2.973 -0.0671 -0.9334  0.0583
16000SOL    HW258315   1.267   3.849   3.079 -0.7933 -1.0775  0.7276
16001SOL     OW58316   0.910  11.558   4.671 -0.6412  0.2118 -0.0105
16001SOL    HW158317   0.882  11.515   4.752 -1.8553  0.6992 -0.1467
16001SOL    HW258318   0.930  11.648   4.697 -0.5286  0.2294 -0.1587
16002SOL     OW58319   6.094   0.014   6.354  0.2748 -0.7242  0.3511
16002SOL    HW158320   6.019   0.032   6.411 -1.1857 -2.2484 -0.9968
16002SOL    HW258321   6.120  -0.075   6.376  0.8593 -0.6749 -0.1272
16003SOL     OW58322   0.195  10.295   9.146  0.6576 -0.1493  0.2581
16003SOL    HW158323   0.185  10.357   9.074 -1.0060 -0.9770 -0.2655
16003SOL    HW258324   0.276  10.322   9.190  1.1959  0.9495 -1.3354
16004SOL     OW58325  10.453  11.967   4.032 -0.4843 -0.5152 -0.6289
16004SOL    HW158326  10.524  11.935   4.089  0.2576  0.2248 -1.1077
16004SOL    HW258327  10.430  11.892   3.978 -1.3895 -1.3183  0.8041
16005SOL     OW58328   4.406   9.041   8.053  0.3036 -0.3529  0.1617
16005SOL    HW158329   4.464   8.984   8.003 -0.4903 -1.5027  0.5012
16005SOL    HW258330   4.464   9.089   8.113  0.8161 -2.5520  1.5417
16006SOL     OW58331   5.375  10.470  11.420 -0.0187 -0.0850 -0.2843
16006SOL    HW158332   5.460  10.475  11.463 -0.6576  2.5396  0.9142
16006SOL    HW258333   5.384  10.527  11.343 -0.3265 -0.8304 -0.8841
16007SOL     OW58334   6.922   7.345   1.608 -0.6661 -0.3651 -0.2041
16007SOL    HW158335   6.995   7.359   1.667 -0.3053  0.2730 -0.7847
16007SOL    HW258336   6.944   7.397   1.530 -1.8985  0.1413 -0.2433
16008SOL     OW58337   0.735   7.257   5.571 -0.1662  0.6141 -0.0427
16008SOL    HW158338   0.673   7.329   5.572  0.3919  1.1763  2.7576
16008SOL    HW258339   0.812   7.292   5.526 -0.5207  1.1985 -0.1948
16009SOL     OW58340   8.301   0.641   6.911 -0.3527  0.0167 -0.2033
16009SOL    HW158341   8.285   0.547   6.905 -1.1924  0.0856  0.7791
16009SOL    HW258342   8.332   0.666   6.823  0.0495 -1.1949 -0.4219
16010SOL     OW58343   5.440   2.508   4.570 -0.0799 -0.1705 -0.0213
16010SOL    HW158344   5.525   2.464   4.577  1.3862  2.3682 -0.7399
16010SOL    HW258345   5.392   2.478   4.646  0.4507 -3.5840 -0.8409
16011SOL     OW58346   8.653   2.188   8.946 -0.3432  0.1502  0.1037
16011SOL    HW158347   8.644   2.257   8.880  2.1661 -0.4961 -1.0147
16011SOL    HW258348   8.575   2.133   8.934 -0.3086  0.4671 -1.8370
16012SOL     OW58349   8.986  11.851  11.256 -0.4853  0.2250 -0.0629
16012SOL    HW158350   9.047  11.863  11.184 -3.0795 -0.4429 -2.5419
16012SOL    HW258351   8.994  11.759  11.280  0.6538  0.5343  0.8612
16013SOL     OW58352  12.755   9.733   3.856 -0.7703 -0.1970 -0.3527
16013SOL    HW158353  12.677   9.769   3.814 -0.9913 -0.4357 -0.1522
16013SOL    HW258354  12.734   9.732   3.950 -0.8505 -1.0293 -0.3690
16014SOL     OW58355  10.924  12.193   9.362 -0.5244  0.1411  0.3615
16014SOL    HW158356  11.015  12.200   9.331 -0.2464 -0.7300  0.9281
16014SOL    HW258357  10.930  12.209   9.456 -0.5875 -2.1921  0.8131
16015SOL     OW58358   2.535   6.105   2.820 -0.2393  0.6192  0.0249
16015SOL    HW158359   2.575   6.156   2.750  1.1163 -0.4492 -0.0262
16015SOL    HW258360   2.441   6.107   2.801  0.2097 -1.5585 -3.1975
16016SOL     OW58361   3.058  10.920   6.098 -0.5240 -0.3737 -0.2555
16016SOL    HW158362   3.005  10.860   6.151 -0.2560 -1.7324 -1.4824
16016SOL    HW258363   3.008  10.931   6.017 -1.4262  2.4664  0.5521
16017SOL     OW58364  12.313   9.470   1.004 -0.2146 -0.0459  0.0631
16017SOL    HW158365  12.251   9.430   1.064 -0.3932 -2.4324 -1.5827
16017SOL    HW258366  12.391   9.415   1.007  1.5119  2.2593  1.2482
16018SOL     OW58367  12.547  12.930  11.311  0.2338 -0.5235  0.2302
16018SOL    HW158368  12.626  12.957  11.266  0.0827  0.2119  0.3942
16018SOL    HW258369  12.491  13.007  11.310 -0.7574 -1.2236 -0.4733
16019SOL     OW58370   5.850   1.851  10.354 -0.2112 -0.3258  0.1733
16019SOL    HW158371   5.813   1.892  10.276  0.9377 -0.6235 -0.5522
16019SOL    HW258372   5.793   1.880  10.425 -2.2720 -1.3466 -0.9602
16020SOL     OW58373  10.116   9.396   9.337  0.8070  0.4768  0.1542
16020SOL    HW158374  10.036   9.448   9.328  0.4423 -0.0906  0.0889
16020SOL    HW258375  10.105   9.323   9.276  1.5712  0.6302 -0.1841
16021SOL     OW58376  12.073   6.836   9.364  0.2971  0.0552 -0.2902
16021SOL    HW158377  12.097   6.769   9.300 -0.5299 -1.0032  0.4774
16021SOL    HW258378  12.100   6.800   9.449 -0.3691  0.5786  0.1597
16022SOL     OW58379   5.733   1.666   9.608  0.1300 -0.2855 -0.2155
16022SOL    HW158380   5.793   1.626   9.670  0.9453 -0.9603 -1.4089
16022SOL    HW258381   5.789   1.705   9.541 -0.5761  3.2707  1.0203
16023SOL     OW58382  11.777   3.236   1.080  0.4418  0.0919  0.2046
16023SOL    HW158383  11.727   3.263   1.157 -0.9375 -0.1502 -0.5654
16023SOL    HW258384  11.761   3.305   1.015 -0.5221 -0.9575 -0.7132
16024SOL     OW58385   5.955   7.751   8.159 -0.1292 -0.4257  0.4683
16024SOL    HW158386   5.907   7.813   8.214 -1.8010 -1.6433  0.4605
16024SOL    HW258387   5.912   7.756   8.074 -0.9845 -2.2488  0.7329
16025SOL     OW58388   4.708   3.038   6.319 -0.4678 -0.7456  0.1507
16025SOL    HW158389   4.739   2.948   6.316  1.9149  0.0109  0.0972
16025SOL    HW258390   4.744   3.078   6.239  0.2440  0.7402  1.1686
16026SOL     OW58391   5.972   3.246   8.330 -0.2456  0.0177  0.1371
16026SOL    HW158392   5.925   3.328   8.314 -0.0384  0.4681  1.7065
16026SOL    HW258393   5.958   3.195   8.251 -0.7836  1.3751 -0.6805
16027SOL     OW58394   4.370   7.669   6.074  0.1047  0.4480 -0.0129
16027SOL    HW158395   4.361   7.726   6.150  0.2534  0.4928 -0.0286
16027SOL    HW258396   4.454   7.625   6.087 -0.9069 -1.3403  1.0821
16028SOL     OW58397   9.405   3.560   2.913  0.1024 -0.0591 -0.1406
16028SOL    HW158398   9.328   3.506   2.928  0.6000 -0.4931  0.9609
16028SOL    HW258399   9.479   3.501   2.927  0.6358  0.4645 -0.7138
16029SOL     OW58400   7.373  12.602  12.633  0.0991  0.3893  0.1524
16029SOL    HW158401   7.358  12.697  12.634  1.4882  0.6447 -0.9262
16029SOL    HW258402   7.465  12.592  12.607  0.1420 -1.2418  0.8235
16030SOL     OW58403   5.289   3.878   2.673  0.0607 -0.0398 -0.4811
16030SOL    HW158404   5.317   3.936   2.744  1.0292  1.1317 -1.7663
16030SOL    HW258405   5.312   3.790   2.704  2.2806  0.6025 -0.1326
16031SOL     OW58406   5.635   2.855   9.728 -0.0497 -0.0310  0.1355
16031SOL    HW158407   5.576   2.843   9.653  0.5483 -0.6380 -0.2476
16031SOL    HW258408   5.607   2.789   9.792 -0.9612  0.8958  0.7141
16032SOL     OW58409   3.494   6.744   2.731  0.0035 -0.3456  0.8930
16032SOL    HW158410   3.508   6.675   2.667  0.4022  0.5306 -0.0007
16032SOL    HW258411   3.405   6.775   2.713 -0.8560 -1.7604  2.4510
16033SOL     OW58412   4.172   4.050   5.811  0.1254 -0.6080  0.1093
16033SOL    HW158413   4.132   4.014   5.891 -1.7189 -0.4818 -0.7024
16033SOL    HW258414   4.141   3.992   5.741 -0.6232  0.8875 -0.8651
16034SOL     OW58415   2.351   3.907   1.254 -0.2335 -0.1219 -0.3247
16034SOL    HW158416   2.428   3.951   1.292 -0.5728 -0.2765  0.5696
16034SOL    HW258417   2.336   3.832   1.311 -1.2907  0.1311 -0.2559
16035SOL     OW58418   3.520   9.661   1.576  0.8498 -0.1034  0.6079
16035SOL    HW158419   3.491   9.571   1.590  0.2614 -0.3522 -1.8157
16035SOL    HW258420   3.604   9.653   1.531  1.0645  0.5755  0.8647
16036SOL     OW58421   1.460   7.196   9.359  0.3394  0.4541 -0.1897
16036SOL    HW158422   1.476   7.231   9.271  2.2459  0.5842  0.1835
16036SOL    HW258423   1.466   7.272   9.417  0.5169  0.1439  0.2007
16037SOL     OW58424   9.427   8.645   8.744  0.1865 -0.2193 -0.0629
16037SOL    HW158425   9.491   8.603   8.801 -0.4132 -0.5433  0.3899
16037SOL    HW258426   9.342   8.618   8.779 -0.2073 -1.1120 -1.6051
16038SOL     OW58427   0.623   8.405   1.369 -0.1331  0.5065 -0.0495
16038SOL    HW158428   0.621   8.392   1.463  1.0963  0.4943 -0.0150
16038SOL    HW258429   0.554   8.347   1.335 -0.4893  0.4124  0.8200
16039SOL     OW58430   0.003   5.445  12.915  0.2431  0.7748 -0.7028
16039SOL    HW158431  -0.037   5.358  12.903  0.0169  0.7843 -0.0396
16039SOL    HW258432  -0.069   5.506  12.899  0.0778  0.8022  0.1390
16040SOL     OW58433   7.131   8.491   3.491 -0.2918 -0.5024 -0.7780
16040SOL    HW158434   7.211   8.505   3.440  0.2992 -2.4226 -0.4401
16040SOL    HW258435   7.099   8.405   3.464 -3.1859  0.8690 -2.0771
16041SOL     OW58436   8.553   1.280   7.475  0.3198 -0.2513 -0.3468
16041SOL    HW158437   8.587   1.299   7.563  0.3026 -0.7372 -0.2333
16041SOL    HW258438   8.524   1.365   7.442  2.2393  0.3216 -0.7056
16042SOL     OW58439  11.859   4.290  11.661 -0.0652  0.5862  0.0655
16042SOL    HW158440  11.935   4.340  11.689 -0.7249  0.6899  1.8238
16042SOL    HW258441  11.876   4.200  11.689 -1.3337  0.9465  2.1813
16043SOL     OW58442  12.837   3.798  12.344 -0.5300 -0.1146 -0.1938
16043SOL    HW158443  12.911   3.762  12.296 -0.7737  0.1986 -0.8166
16043SOL    HW258444  12.822   3.736  12.415  0.8225  0.2223  0.4106
16044SOL     OW58445   3.407   3.574   0.811 -0.0612 -0.6394  0.4900
16044SOL    HW158446   3.424   3.596   0.902 -2.5552  1.0553  0.6733
16044SOL    HW258447   3.363   3.490   0.814 -0.9467 -0.1725  0.9691
16045SOL     OW58448   9.752  11.905  10.822 -0.4778 -0.1980 -0.2811
16045SOL    HW158449   9.688  11.899  10.893 -0.4091  0.4762 -0.1558
16045SOL    HW258450   9.746  11.996  10.792  0.6086 -0.0433 -0.0835
16046SOL     OW58451   8.644   8.195  10.226 -0.8620  0.2553 -0.9963
16046SOL    HW158452   8.648   8.283  10.264  0.2799  0.3635 -1.3137
16046SOL    HW258453   8.688   8.139  10.289 -0.4804  0.1335 -1.3668
16047SOL     OW58454   4.232   0.627  10.767  0.6494  0.1941  0.0399
16047SOL    HW158455   4.256   0.719  10.774  0.3753  0.5453 -2.5729
16047SOL    HW258456   4.304   0.580  10.808  0.7386  1.5536  1.5183
16048SOL     OW58457   0.518   2.278   9.803 -0.7392  0.2134 -0.3234
16048SOL    HW158458   0.572   2.210   9.845 -1.3102 -0.0696 -0.0253
16048SOL    HW258459   0.433   2.271   9.847 -0.6610  1.4661  0.0637
16049SOL     OW58460   0.020   8.396  12.627  0.8515  0.3087 -0.2015
16049SOL    HW158461  -0.073   8.385  12.649  1.0313 -0.9387 -0.0067
16049SOL    HW258462   0.058   8.439  12.704  0.8432 -1.1364  0.6440
16050SOL     OW58463  11.265   3.611   2.946 -0.2290  0.1570 -0.3036
16050SOL    HW158464  11.332   3.622   2.878 -1.0840  0.6824 -1.0950
16050SOL    HW258465  11.182   3.612   2.898 -0.8479  0.3757  0.7389
16051SOL     OW58466   3.482   3.346  10.926 -0.2919 -0.5174 -0.0210
16051SOL    HW158467   3.473   3.284  10.853  1.3898  0.5211 -1.1730
16051SOL    HW258468   3.443   3.427  10.893  2.0793  0.5015 -0.5588
16052SOL     OW58469   8.047   1.427   4.698 -0.4016  0.6279  0.5797
16052SOL    HW158470   8.067   1.463   4.784 -0.7339  1.0731  0.4760
16052SOL    HW258471   8.127   1.382   4.670 -0.8823 -1.2104  1.9517
16053SOL     OW58472  12.315   5.101   2.493  0.3137 -0.1158  0.0832
16053SOL    HW158473  12.296   5.013   2.524  0.8844  0.3013  1.7311
16053SOL    HW258474  12.234   5.150   2.505  0.1840 -0.2493 -0.2355
16054SOL     OW58475   5.504   8.475   6.004 -0.0124  0.0544  0.3665
16054SOL    HW158476   5.550   8.546   5.959  0.9921 -0.5313  0.4524
16054SOL    HW258477   5.516   8.399   5.947  1.0898 -0.6483  1.4806
16055SOL     OW58478   6.682   5.782   5.628 -0.1802 -0.4271 -0.6264
16055SOL    HW158479   6.731   5.708   5.592 -0.8218 -0.6515 -1.0549
16055SOL    HW258480   6.749   5.846   5.651  0.2886  0.8658 -4.6554
16056SOL     OW58481   3.797   1.422  12.952  0.4614  0.1093 -0.1415
16056SOL    HW158482   3.759   1.503  12.919  0.6830 -0.3976 -1.7360
16056SOL    HW258483   3.830   1.378  12.873  0.9978 -1.1790  0.7810
16057SOL     OW58484   8.995   3.486   0.782  0.1144 -0.0733 -0.0417
16057SOL    HW158485   8.930   3.508   0.848 -0.6611  2.0606 -1.3960
16057SOL    HW258486   8.955   3.514   0.699  1.5983 -1.3588 -1.2506
16058SOL     OW58487   5.078  11.259  11.876  0.2632  0.7286  0.3696
16058SOL    HW158488   5.063  11.350  11.850 -0.0186  0.3289 -0.9370
16058SOL    HW258489   5.077  11.261  11.971  0.1374  2.0766  0.3571
16059SOL     OW58490   4.931   4.593   0.696  0.2726 -0.6836 -0.3935
16059SOL    HW158491   4.849   4.641   0.690 -0.5114 -2.0173 -0.7639
16059SOL    HW258492   4.992   4.642   0.640  1.2057  2.9917  3.3515
16060SOL     OW58493   0.330   2.248  10.839 -0.4343  0.0090  0.4594
16060SOL    HW158494   0.424   2.263  10.844 -0.2604 -0.8576 -0.2068
16060SOL    HW258495   0.294   2.331  10.807  0.3621 -0.4152 -1.6455
16061SOL     OW58496  11.252  11.633   7.597 -0.1161 -0.3979  0.3254
16061SOL    HW158497  11.245  11.719   7.555 -0.5461 -0.6291 -0.0935
16061SOL    HW258498  11.295  11.650   7.681 -1.2147  0.4072  0.7601
16062SOL     OW58499  12.764   6.148   7.522 -1.0346 -0.9400 -0.5533
16062SOL    HW158500  12.679   6.179   7.490 -0.0213  2.6737 -0.1898
16062SOL    HW258501  12.821   6.149   7.445 -0.3234  0.9666 -0.0638
16063SOL     OW58502   3.897   3.492  10.781 -0.0739  0.5719 -0.3468
16063SOL    HW158503   3.819   3.517  10.830  1.0623  0.9159  1.3929
16063SOL    HW258504   3.921   3.571  10.732 -0.7917  0.4678 -0.8728
16064SOL     OW58505   4.388  10.798  11.921  0.1287  0.3459 -1.0937
16064SOL    HW158506   4.293  10.811  11.927 -0.1579 -1.6690 -0.6343
16064SOL    HW258507   4.419  10.873  11.871 -1.3658  2.3803  0.7997
16065SOL     OW58508   1.796  11.415   2.574  0.7630 -0.1981 -0.1672
16065SOL    HW158509   1.887  11.411   2.545  0.3512  0.2644 -1.6064
16065SOL    HW258510   1.746  11.375   2.503 -0.2937  0.9516 -0.1162
16066SOL     OW58511   0.568   8.002  11.676 -0.0151 -0.0079  0.0514
16066SOL    HW158512   0.540   8.073  11.733  1.3434  0.5888  0.0153
16066SOL    HW258513   0.574   8.041  11.589  0.3467 -0.2527 -0.0403
16067SOL     OW58514   5.176   7.487   4.287  0.1537  0.1823  0.4165
16067SOL    HW158515   5.097   7.440   4.316  0.8531 -0.1090  2.0152
16067SOL    HW258516   5.191   7.552   4.356  1.1272  0.4304 -0.0197
16068SOL     OW58517   4.308  10.712   2.144 -0.0315 -0.2437  0.0389
16068SOL    HW158518   4.394  10.705   2.103  0.2877 -0.5284  0.7531
16068SOL    HW258519   4.314  10.787   2.202 -0.6149  0.4146 -0.7169
16069SOL     OW58520   7.153  12.530   2.120  0.6480  0.4902 -0.5217
16069SOL    HW158521   7.086  12.462   2.127 -0.3359  1.5345  0.7397
16069SOL    HW258522   7.179  12.546   2.211 -1.4581  3.9533 -0.3540
16070SOL     OW58523   9.043   9.158   7.005  0.0457 -0.3810  0.0567
16070SOL    HW158524   9.026   9.249   7.028  1.5274  0.1191 -0.7146
16070SOL    HW258525   9.083   9.120   7.083 -2.6751 -1.0872  1.2450
16071SOL     OW58526   6.792   2.523   8.823 -0.1249 -0.9136 -0.5821
16071SOL    HW158527   6.791   2.616   8.800  0.1230 -1.1429 -1.5485
16071SOL    HW258528   6.825   2.522   8.913 -0.5169 -0.0399 -0.4135
16072SOL     OW58529  11.080  11.759   1.943  0.6831 -0.1710 -0.0096
16072SOL    HW158530  11.141  11.687   1.959  1.3112  0.1153 -0.9650
16072SOL    HW258531  11.115  11.802   1.864 -0.2399  0.5658 -0.0336
16073SOL     OW58532  12.808   3.686   5.867  0.3656  0.1350 -0.4219
16073SOL    HW158533  12.746   3.620   5.838  1.8144 -1.6766  0.3799
16073SOL    HW258534  12.893   3.655   5.834  1.0695  1.7164 -0.2006
16074SOL     OW58535   0.465  11.474   3.843  0.1297 -0.0721  0.1059
16074SOL    HW158536   0.498  11.386   3.864  0.1749  0.3114  1.8206
16074SOL    HW258537   0.544  11.526   3.830  0.1023 -0.2700 -0.9686
16075SOL     OW58538   3.446   2.364  10.398  0.2981  0.3481 -0.0907
16075SOL    HW158539   3.522   2.417  10.376  0.7507 -0.0224  0.5841
16075SOL    HW258540   3.467   2.277  10.364  0.3312  0.1575  0.4166
16076SOL     OW58541  10.179   6.183   2.672  0.0979 -0.2965 -0.3440
16076SOL    HW158542  10.205   6.272   2.650  1.6852 -0.4463  0.7677
16076SOL    HW258543  10.089   6.176   2.641  0.7485  0.8591 -2.7431
16077SOL     OW58544   9.626   3.504   3.081  0.6679  0.0962  0.0860
16077SOL    HW158545   9.590   3.501   3.170  1.4811  1.4937  0.4986
16077SOL    HW258546   9.627   3.412   3.052 -6.0938 -0.0707 -1.2617
16078SOL     OW58547   6.998   3.714   2.851  0.1508 -0.1219  0.3431
16078SOL    HW158548   7.025   3.622   2.851 -0.8263 -0.4289  0.3614
16078SOL    HW258549   6.914   3.714   2.803 -0.9445  0.3988  2.1691
16079SOL     OW58550   9.445   2.017   6.943 -0.1513  0.0505  0.4614
16079SOL    HW158551   9.433   2.101   6.988  1.2464 -0.0998  1.1705
16079SOL    HW258552   9.540   2.002   6.945 -0.1410 -0.5098 -1.5666
16080SOL     OW58553   7.936  11.681   3.683 -0.5569  0.6489  0.0308
16080SOL    HW158554   7.843  11.669   3.701 -0.4692  1.1065  0.8094
16080SOL    HW258555   7.980  11.611   3.732 -0.4574  0.7131  0.0346
16081SOL     OW58556   0.925   0.990   8.885  0.4699  0.3811 -0.0549
16081SOL    HW158557   0.885   1.064   8.931  2.0751  0.9421  0.5116
16081SOL    HW258558   0.851   0.938   8.854 -0.7779  2.8226 -1.5190
16082SOL     OW58559   1.403   4.435   2.216 -0.7181  0.3818  0.2979
16082SOL    HW158560   1.318   4.474   2.198 -0.0518  1.3733 -0.8850
16082SOL    HW258561   1.439   4.486   2.289 -1.0138  0.1511  0.6051
16083SOL     OW58562   0.643   2.521  11.714 -0.2656 -0.1447  0.7712
16083SOL    HW158563   0.682   2.583  11.775  0.1412 -1.1256  1.5389
16083SOL    HW258564   0.713   2.502  11.651  0.0104 -0.7325  1.2459
16084SOL     OW58565   8.194   4.979   6.334  0.3043  0.1193 -0.0625
16084SOL    HW158566   8.224   4.934   6.414 -0.9362  0.4761  0.6359
16084SOL    HW258567   8.239   5.063   6.336  0.0812  0.2298  0.3985
16085SOL     OW58568   9.413   1.098   3.487 -0.1200 -0.5804  0.7093
16085SOL    HW158569   9.367   1.181   3.495  2.4566  1.0011  0.1793
16085SOL    HW258570   9.429   1.071   3.578  0.5987  0.4700  0.9097
16086SOL     OW58571   1.960   2.437   0.962  0.3792 -0.1254 -0.3604
16086SOL    HW158572   1.951   2.481   0.878 -1.2274  0.4413  0.0746
16086SOL    HW258573   1.895   2.367   0.960  0.6946 -0.4427  0.2120
16087SOL     OW58574   0.921   0.384  12.600 -0.5980  0.1146 -0.0736
16087SOL    HW158575   0.848   0.337  12.639 -0.2834  0.0733  0.4689
16087SOL    HW258576   0.925   0.351  12.510  1.0613 -2.6667  0.8927
16088SOL     OW58577   9.313   9.780  10.434 -0.2668 -0.7054 -0.6272
16088SOL    HW158578   9.279   9.723  10.365 -1.1756 -1.5547  0.4591
16088SOL    HW258579   9.344   9.719  10.501  0.9413  0.0942 -0.4332
16089SOL     OW58580   5.831  10.006  12.283  0.2006  0.9132  0.2513
16089SOL    HW158581   5.749   9.960  12.300  1.0450 -1.0654 -0.6810
16089SOL    HW258582   5.874  10.011  12.369 -0.2880  0.7414  0.5074
16090SOL     OW58583  12.693   1.373   4.351  0.2326  0.2770  0.0223
16090SOL    HW158584  12.727   1.285   4.338 -1.0421  0.0282 -2.2367
16090SOL    HW258585  12.733   1.425   4.281  1.1369  1.5824  1.4533
16091SOL     OW58586  10.159   0.042   4.416  0.0386 -0.0667 -0.1530
16091SOL    HW158587  10.235   0.072   4.366  0.2793 -0.3609  0.0374
16091SOL    HW258588  10.155  -0.052   4.399 -0.0456 -0.1189  0.1622
16092SOL     OW58589   1.680   8.867   3.710 -0.1733 -0.2077 -0.5922
16092SOL    HW158590   1.589   8.872   3.680 -0.5561  0.3141  0.5966
16092SOL    HW258591   1.683   8.786   3.761 -0.3291  0.4008  0.4269
16093SOL     OW58592  11.857   9.041   4.932 -0.7310 -0.0661  0.0220
16093SOL    HW158593  11.849   8.992   5.014 -2.8530  0.3802  0.1356
16093SOL    HW258594  11.842   8.976   4.863 -1.0981 -0.0447  0.0798
16094SOL     OW58595  10.811   0.112   1.178  0.2160  0.0152  0.5722
16094SOL    HW158596  10.897   0.071   1.181  0.0173 -0.3667  1.6135
16094SOL    HW258597  10.750   0.038   1.179 -0.1493  0.2858  2.4519
16095SOL     OW58598   6.208   6.246   9.857 -0.2985 -0.0315 -0.0946
16095SOL    HW158599   6.120   6.209   9.864  0.0970 -1.2726 -1.2119
16095SOL    HW258600   6.243   6.209   9.775  1.2132  0.5202  0.2723
16096SOL     OW58601   0.675   4.573   6.913  0.4241  0.4653 -0.4886
16096SOL    HW158602   0.600   4.596   6.859  0.0707  0.8760  0.1698
16096SOL    HW258603   0.638   4.531   6.991  0.7456  2.0143  0.5501
16097SOL     OW58604   1.416   1.290  10.044  0.0219  0.2265  0.0166
16097SOL    HW158605   1.363   1.319   9.969  0.9689 -2.7292 -1.9915
16097SOL    HW258606   1.502   1.329  10.029 -0.2978  1.2277  0.6987
16098SOL     OW58607   0.579   9.479   0.899  0.4325  0.1771  0.4387
16098SOL    HW158608   0.486   9.482   0.924  0.2926  0.3574 -0.0937
16098SOL    HW258609   0.579   9.436   0.814  1.0201 -1.5313  1.2588
16099SOL     OW58610  12.601  11.092   0.032 -0.2142 -0.3138  0.0200
16099SOL    HW158611  12.604  11.179   0.071 -0.5233 -0.1836 -0.2446
16099SOL    HW258612  12.530  11.047   0.077 -0.8605 -0.0164 -0.6889
16100SOL     OW58613   0.421   8.276   9.691  0.3414  0.0967  0.3013
16100SOL    HW158614   0.339   8.259   9.645  0.8746 -0.4212 -0.4899
16100SOL    HW258615   0.400   8.345   9.754 -1.0984 -1.1901  1.2934
16101SOL     OW58616   6.240   0.909  12.580 -0.0453  0.2923  0.5686
16101SOL    HW158617   6.238   0.833  12.637  3.2196  0.8138  1.5940
16101SOL    HW258618   6.195   0.977  12.629  0.8576  0.1504  1.6339
16102SOL     OW58619  11.113   8.550   1.823 -0.0932  0.3876 -0.2061
16102SOL    HW158620  11.200   8.584   1.803 -1.5447  3.5217 -1.9673
16102SOL    HW258621  11.078   8.609   1.889 -1.1275 -0.4394  0.0212
16103SOL     OW58622   6.366  11.871   4.375 -0.9159 -0.1143 -0.6927
16103SOL    HW158623   6.326  11.838   4.294 -0.9414 -0.3516 -0.5828
16103SOL    HW258624   6.398  11.959   4.352 -3.4057  1.0151 -0.2325
16104SOL     OW58625   1.114  12.035   2.384 -0.3504  0.3433  0.0303
16104SOL    HW158626   1.170  11.969   2.425  1.1360  0.8189 -1.1308
16104SOL    HW258627   1.095  11.999   2.297 -1.4160  0.4568  0.1965
16105SOL     OW58628   9.458   2.014   3.593  0.2298  0.3917 -0.7169
16105SOL    HW158629   9.369   1.983   3.576 -0.1455  0.5445  0.7743
16105SOL    HW258630   9.514   1.938   3.573 -0.3380 -0.0665 -0.6076
16106SOL     OW58631   3.906  12.667   7.070  0.4211  0.0990 -0.9281
16106SOL    HW158632   3.843  12.616   7.019 -0.9150  1.0505 -0.2977
16106SOL    HW258633   3.945  12.604   7.130  0.2157 -0.5445 -1.4541
16107SOL     OW58634   2.533   8.542   7.138  0.0327  0.0354 -0.5110
16107SOL    HW158635   2.621   8.563   7.106  0.6047  2.1729  2.1323
16107SOL    HW258636   2.499   8.624   7.172 -1.6536 -1.4079  1.5539
16108SOL     OW58637   2.054   6.948   7.186 -0.1004 -0.3304  0.4396
16108SOL    HW158638   2.097   7.000   7.117  0.4501  0.7677  1.5762
16108SOL    HW258639   2.121   6.885   7.213  0.6186  0.9448  1.7465
16109SOL     OW58640   1.387   0.253   5.617 -0.3183 -0.3116 -0.3964
16109SOL    HW158641   1.461   0.209   5.575 -0.5241  0.3086 -1.4444
16109SOL    HW258642   1.388   0.221   5.707  0.4452 -1.2909 -0.7375
16110SOL     OW58643   7.648   9.254  10.042 -0.1000 -0.6715 -0.0886
16110SOL    HW158644   7.696   9.180  10.081 -1.2435 -0.7789  1.2016
16110SOL    HW258645   7.559   9.244  10.075 -0.6047  0.5011 -1.0482
16111SOL     OW58646  11.966   7.306   5.307  0.0676 -0.2624 -0.2215
16111SOL    HW158647  11.901   7.277   5.243 -0.7427 -0.5790  0.7279
16111SOL    HW258648  12.024   7.364   5.257 -0.1583 -1.0010 -1.3914
16112SOL     OW58649   5.732   1.206   9.727  0.2019 -0.2206  0.0215
16112SOL    HW158650   5.695   1.280   9.679 -0.3427 -0.9563 -0.7139
16112SOL    HW258651   5.670   1.191   9.798 -0.8811 -1.3312 -1.0995
16113SOL     OW58652   4.326   6.011   6.177  0.5492  0.2309  0.5199
16113SOL    HW158653   4.301   5.943   6.239 -0.6671 -0.5814 -0.7899
16113SOL    HW258654   4.252   6.071   6.177 -0.0540 -0.4625 -1.0342
16114SOL     OW58655   0.788   2.144   2.844 -0.3320 -0.3288  0.0826
16114SOL    HW158656   0.787   2.226   2.893 -2.0587  0.0108 -0.4490
16114SOL    HW258657   0.876   2.110   2.855 -0.2840  0.3973  2.3011
16115SOL     OW58658  11.914   1.455   9.272  0.0296  0.5162  0.5107
16115SOL    HW158659  11.931   1.469   9.365 -0.3652  2.7651  0.2932
16115SOL    HW258660  11.826   1.419   9.269  0.3110 -0.2519  1.0180
16116SOL     OW58661   0.215   3.199   9.907 -0.4551 -0.4165  0.0754
16116SOL    HW158662   0.307   3.187   9.883  1.0819  1.3773  4.2181
16116SOL    HW258663   0.185   3.111   9.931 -0.2840 -1.1991 -2.2494
16117SOL     OW58664   4.796   5.633   2.802  0.0663 -0.2273  0.2115
16117SOL    HW158665   4.811   5.580   2.724  0.9863  0.0755  0.1714
16117SOL    HW258666   4.705   5.616   2.825 -0.4981  0.3923 -1.4601
16118SOL     OW58667   6.389   3.220   5.174 -0.3207 -0.2283  0.1716
16118SOL    HW158668   6.374   3.307   5.137  0.2182 -0.3664 -0.3920
16118SOL    HW258669   6.434   3.172   5.104  0.8659 -0.4449  1.0470
16119SOL     OW58670   9.532  10.792   4.623  0.1530  0.0842  0.1651
16119SOL    HW158671   9.461  10.733   4.650  1.3472 -0.4637  2.3756
16119SOL    HW258672   9.549  10.768   4.532 -1.8891 -0.3684 -0.1468
16120SOL     OW58673   7.121   1.606  11.860 -0.4691  0.1910 -0.2448
16120SOL    HW158674   7.209   1.568  11.862 -1.3154 -2.0531 -1.5150
16120SOL    HW258675   7.071   1.553  11.922 -1.6270 -0.6157 -1.8149
16121SOL     OW58676   5.899  10.219  10.664  0.0087 -0.4172 -0.5339
16121SOL    HW158677   5.865  10.261  10.743  0.4307 -0.6928 -0.2011
16121SOL    HW258678   5.906  10.290  10.600 -0.6211 -0.2524 -0.4172
16122SOL     OW58679   1.563   5.726   0.286  0.0375 -0.2219  0.1179
16122SOL    HW158680   1.604   5.771   0.212  0.1887 -0.5692 -0.0083
16122SOL    HW258681   1.573   5.787   0.359  0.2300 -0.0428 -0.0560
16123SOL     OW58682   6.247   1.697  10.431 -0.1751 -0.2897 -0.5501
16123SOL    HW158683   6.337   1.731  10.431 -0.0679 -0.5509 -1.1514
16123SOL    HW258684   6.215   1.714  10.343 -1.1141  0.7962 -0.0217
16124SOL     OW58685   3.450   1.002   2.380  0.2587  0.2071 -0.5283
16124SOL    HW158686   3.511   1.063   2.423 -0.3634 -0.2751  1.1294
16124SOL    HW258687   3.470   0.917   2.418  1.0622 -0.6737 -2.7672
16125SOL     OW58688   6.806   7.034   7.385  0.4227  0.5230  0.8563
16125SOL    HW158689   6.836   7.055   7.297  2.3830  0.9140  1.5670
16125SOL    HW258690   6.880   6.987   7.425 -1.1611 -1.4209  1.6652
16126SOL     OW58691  11.517  10.852   8.167 -0.4814 -0.0893  0.1546
16126SOL    HW158692  11.547  10.788   8.102  0.1578 -0.4621  0.8072
16126SOL    HW258693  11.449  10.901   8.121  0.1037 -0.1964 -0.8741
16127SOL     OW58694   3.085   0.358   0.757  0.0175  0.0954 -0.7231
16127SOL    HW158695   3.023   0.326   0.691  0.2020 -2.0591  0.0915
16127SOL    HW258696   3.114   0.280   0.803  2.5016  1.1617 -0.3170
16128SOL     OW58697   9.824  11.832  11.933 -0.5466  0.2184 -0.4392
16128SOL    HW158698   9.755  11.780  11.973 -0.1292 -1.5504 -1.8775
16128SOL    HW258699   9.868  11.875  12.007 -0.4976 -2.0140  0.9272
16129SOL     OW58700  12.487  11.458  10.235  0.3850  0.5161 -0.4334
16129SOL    HW158701  12.538  11.443  10.155 -0.6313  0.1511 -1.0280
16129SOL    HW258702  12.405  11.412  10.220 -0.2672  1.3831  0.3607
16130SOL     OW58703   6.847   0.319   5.602 -0.8180  0.0231  0.3829
16130SOL    HW158704   6.841   0.234   5.560 -2.1990 -0.4239  1.4162
16130SOL    HW258705   6.796   0.377   5.545  1.1523  0.5084 -1.0070
16131SOL     OW58706   2.441  12.271   2.550 -0.0180 -0.5940  0.0331
16131SOL    HW158707   2.362  12.229   2.584 -1.7410  1.5829 -0.9881
16131SOL    HW258708   2.486  12.303   2.628 -1.9230  1.0120  0.5595
16132SOL     OW58709   9.324   0.971   1.032  0.3303 -0.0813  0.0473
16132SOL    HW158710   9.386   0.903   1.056  0.4094  0.4653  1.4958
16132SOL    HW258711   9.321   1.029   1.108 -1.7309  0.0825 -0.0906
16133SOL     OW58712   4.864   2.615   8.748  0.0300 -0.2444  0.0147
16133SOL    HW158713   4.793   2.668   8.712 -2.3934 -1.4584  2.6224
16133SOL    HW258714   4.892   2.662   8.827 -0.0115 -1.2523  0.6550
16134SOL     OW58715   9.522   5.760   1.730  0.8563 -0.2235 -0.8185
16134SOL    HW158716   9.509   5.811   1.810  4.8275  0.6658 -0.5445
16134SOL    HW258717   9.520   5.669   1.760 -1.9514 -0.1733 -0.5721
16135SOL     OW58718   0.299   9.836   5.401  0.1950  0.5431 -0.0411
16135SOL    HW158719   0.381   9.788   5.411 -0.1190  0.0211  0.0588
16135SOL    HW258720   0.325   9.927   5.392  0.7071  0.5733  1.4947
16136SOL     OW58721   9.605   8.413   0.677  0.3500 -0.2757 -0.2147
16136SOL    HW158722   9.653   8.365   0.745 -0.4734  0.5292  0.9860
16136SOL    HW258723   9.673   8.460   0.629  1.2575 -3.0201 -1.8339
16137SOL     OW58724  12.199  11.944  10.909 -1.0096  0.2607 -0.1169
16137SOL    HW158725  12.121  11.989  10.942 -1.9157  0.0121 -1.7703
16137SOL    HW258726  12.271  12.003  10.931 -1.7502  0.8989  0.7342
16138SOL     OW58727  11.954   7.192   7.056  0.4340  0.1019  0.3727
16138SOL    HW158728  11.986   7.234   7.135 -0.7901  0.8098  0.5232
16138SOL    HW258729  11.922   7.263   7.001 -0.9526 -0.5427  0.2917
16139SOL     OW58730   4.259   5.192  10.623  0.0810  0.0342 -0.2334
16139SOL    HW158731   4.262   5.281  10.657  1.1964  0.4156 -1.2516
16139SOL    HW258732   4.308   5.140  10.687  0.3762  0.3558 -0.1945
16140SOL     OW58733   1.672   3.287  10.240  0.3327  0.3693  0.0088
16140SOL    HW158734   1.591   3.236  10.230 -0.1090  1.5045 -3.3868
16140SOL    HW258735   1.742   3.224  10.227 -0.0859 -0.0682 -0.1690
16141SOL     OW58736   3.601   7.781   7.435  0.2499  0.5616 -0.0211
16141SOL    HW158737   3.523   7.741   7.397  0.4242 -0.7933  0.9848
16141SOL    HW258738   3.583   7.784   7.529  1.4796  0.0440  0.2451
16142SOL     OW58739  11.643   2.914  11.053 -0.0111 -0.2553 -0.2095
16142SOL    HW158740  11.704   2.848  11.084  1.1649  0.9549  0.1488
16142SOL    HW258741  11.575   2.865  11.006  0.6847 -1.7091  0.2620
16143SOL     OW58742   5.663   0.889   7.483  0.2253  0.0117 -0.8180
16143SOL    HW158743   5.707   0.879   7.567  1.5873 -2.0973 -1.6983
16143SOL    HW258744   5.588   0.830   7.487  0.1914  0.0383 -1.0137
16144SOL     OW58745   9.582  10.048   2.760 -0.4428  0.1144 -0.0886
16144SOL    HW158746   9.539  10.119   2.712  1.8973  1.8043  0.1434
16144SOL    HW258747   9.619   9.992   2.691  0.3616  0.8749 -0.2855
16145SOL     OW58748  12.015   8.662   5.101 -0.4811  0.3037  0.1356
16145SOL    HW158749  12.007   8.635   5.193  1.8260  0.2298  0.3861
16145SOL    HW258750  11.925   8.679   5.073 -1.3261 -0.4778  2.1532
16146SOL     OW58751   5.914  10.635   4.578  0.6623  0.1380 -0.3387
16146SOL    HW158752   5.872  10.555   4.546  0.1663 -0.6980  2.1534
16146SOL    HW258753   5.894  10.636   4.671 -0.0026  3.6006 -0.3829
16147SOL     OW58754   1.842   5.641  12.441 -0.6735 -0.0314 -0.2503
16147SOL    HW158755   1.802   5.717  12.398 -0.0658  0.0072 -0.7525
16147SOL    HW258756   1.768   5.594  12.479 -1.0763  0.7149 -0.0830
16148SOL     OW58757  10.775   1.879   8.591 -0.0626  0.2871  0.2469
16148SOL    HW158758  10.738   1.793   8.569 -0.8027  0.9886 -1.4315
16148SOL    HW258759  10.729   1.940   8.533  1.1456  1.6856  0.7121
16149SOL     OW58760   2.534  10.044   1.050  0.1008 -0.6113 -0.4837
16149SOL    HW158761   2.562  10.124   1.095  0.7252  0.2363 -2.2599
16149SOL    HW258762   2.569  10.054   0.961  0.6228 -3.0968 -0.6218
16150SOL     OW58763   7.252   0.078   2.711  0.6854 -0.1123 -0.1109
16150SOL    HW158764   7.170   0.088   2.760  0.8928 -0.0863  0.2346
16150SOL    HW258765   7.259   0.157   2.659  0.0619 -0.4919 -0.7925
16151SOL     OW58766   1.165   9.778   8.146  0.5772 -0.2864  0.0825
16151SOL    HW158767   1.192   9.858   8.101 -0.6338  0.6057  0.8780
16151SOL    HW258768   1.087   9.803   8.195  1.0938 -1.5552  1.6421
16152SOL     OW58769   4.521   2.007   8.085 -0.1997 -0.4094 -0.0091
16152SOL    HW158770   4.437   1.962   8.096  0.4855 -1.4902  1.0485
16152SOL    HW258771   4.540   2.043   8.172  0.8154 -0.9030 -0.0114
16153SOL     OW58772   4.655   4.800   4.077  0.3348  0.4441  0.1416
16153SOL    HW158773   4.601   4.878   4.091 -0.3528  0.1724 -0.8451
16153SOL    HW258774   4.745   4.832   4.081  0.0940  1.0468  1.0447
16154SOL     OW58775  12.286   1.668   9.941 -0.6088  0.1978 -0.2016
16154SOL    HW158776  12.231   1.738   9.906 -1.2177 -0.0618  0.2216
16154SOL    HW258777  12.226   1.595   9.956 -0.7918  0.8387  2.9742
16155SOL     OW58778   6.394   7.094   5.636 -0.4692  0.3062 -0.1039
16155SOL    HW158779   6.383   7.007   5.597 -0.5809  0.8700 -1.4077
16155SOL    HW258780   6.325   7.146   5.595  1.6389  1.8371 -1.9695
16156SOL     OW58781  10.847   8.332   7.838 -0.2891 -0.0328 -0.2220
16156SOL    HW158782  10.863   8.269   7.767  1.5733 -2.1606  1.9070
16156SOL    HW258783  10.854   8.417   7.795  0.5344 -1.2059 -2.6540
16157SOL     OW58784  11.479   9.740   4.635  0.2948 -0.0857 -0.1224
16157SOL    HW158785  11.465   9.716   4.726  0.1716  0.0530 -0.1041
16157SOL    HW258786  11.500   9.658   4.591 -2.7883 -0.7761 -0.6040
16158SOL     OW58787   3.621   5.376   4.629  0.5431  0.4074  0.0409
16158SOL    HW158788   3.708   5.394   4.664  0.9245 -3.4282  1.5811
16158SOL    HW258789   3.634   5.369   4.535  1.5109  1.5695  0.0658
16159SOL     OW58790  12.306   4.564   4.170 -0.1932 -0.2445  0.2696
16159SOL    HW158791  12.233   4.545   4.112 -0.5444  1.8560 -0.0601
16159SOL    HW258792  12.267   4.576   4.256 -0.0250 -0.6316  0.4034
16160SOL     OW58793  12.888   7.726  10.508 -0.2878 -0.1158  1.0077
16160SOL    HW158794  12.827   7.664  10.467  0.2294  1.3996 -2.4499
16160SOL    HW258795  12.959   7.672  10.541 -2.3635 -1.7365  3.1647
16161SOL     OW58796   5.054  12.446  11.662  0.3416  0.2888  0.3724
16161SOL    HW158797   4.961  12.467  11.668  0.1123 -0.5896  0.0535
16161SOL    HW258798   5.063  12.396  11.581  1.0550  0.1626  0.5150
16162SOL     OW58799  12.863   0.720  12.867 -0.6094  0.6311 -0.1558
16162SOL    HW158800  12.794   0.761  12.920 -1.2189 -0.8474  0.2432
16162SOL    HW258801  12.844   0.627  12.872  1.7665  0.1299  0.3977
16163SOL     OW58802   5.127   3.456   8.001 -0.1605 -0.3356 -0.0827
16163SOL    HW158803   5.082   3.372   7.991  0.4471 -0.7472  0.5559
16163SOL    HW258804   5.204   3.436   8.053  1.0520  0.2603 -1.5757
16164SOL     OW58805   1.714   1.332  12.267 -0.0634 -0.3348 -0.6200
16164SOL    HW158806   1.730   1.238  12.252  0.6460 -0.5309  1.1381
16164SOL    HW258807   1.799   1.366  12.295 -0.5986  0.5879 -0.0850
16165SOL     OW58808  12.605   7.670   7.425 -0.0095  0.3845  0.2133
16165SOL    HW158809  12.542   7.715   7.482  0.5579  1.7179 -0.1820
16165SOL    HW258810  12.578   7.693   7.336  0.0350 -0.4219 -0.0150
16166SOL     OW58811   3.955   7.346   8.617  0.2995 -0.7549  0.1573
16166SOL    HW158812   3.877   7.331   8.563 -0.2176  0.0369  0.6660
16166SOL    HW258813   4.019   7.283   8.584 -0.3452 -0.9886 -0.6908
16167SOL     OW58814   3.019   7.399   7.564  0.4825 -0.5023 -0.1977
16167SOL    HW158815   3.090   7.464   7.567  0.9044 -0.9902  1.3018
16167SOL    HW258816   2.953   7.433   7.625  0.0227 -0.7288 -0.5642
16168SOL     OW58817   8.310   1.847   7.432 -0.0493 -0.1423 -0.0781
16168SOL    HW158818   8.292   1.802   7.515  1.1184  0.3469  0.4551
16168SOL    HW258819   8.329   1.776   7.371  2.6788 -0.4434  0.9759
16169SOL     OW58820  10.622   2.757   8.076 -0.1147 -0.4057 -0.0977
16169SOL    HW158821  10.629   2.703   7.997  1.4528 -0.8445  0.3061
16169SOL    HW258822  10.686   2.827   8.063 -1.6440  1.0447 -0.3105
16170SOL     OW58823  12.000  10.429  10.089 -0.5613  0.1580  0.0575
16170SOL    HW158824  11.929  10.371  10.117 -1.2583  1.2235  0.5535
16170SOL    HW258825  12.024  10.478  10.168 -0.9511  1.5413 -0.6515
16171SOL     OW58826   0.006   1.830   3.817 -0.1245 -0.0489 -0.4745
16171SOL    HW158827  -0.005   1.738   3.794 -0.2973 -0.0817 -0.2636
16171SOL    HW258828   0.101   1.843   3.822 -0.0247 -1.1369  3.0997
16172SOL     OW58829   0.515   4.479   2.651  0.1149 -0.1963  0.3014
16172SOL    HW158830   0.552   4.507   2.734 -0.0734 -0.7050  0.5597
16172SOL    HW258831   0.520   4.384   2.653  0.4212 -0.2073 -0.4131
16173SOL     OW58832   3.191   4.266   3.500  0.2561 -0.4688  0.4012
16173SOL    HW158833   3.143   4.308   3.572 -0.4492 -0.8965  0.1902
16173SOL    HW258834   3.187   4.173   3.521  2.6089 -0.4252  1.3652
16174SOL     OW58835  10.091   5.575   4.870 -0.4630  0.6059 -0.1152
16174SOL    HW158836  10.121   5.556   4.781 -0.1155  1.2951 -0.1471
16174SOL    HW258837  10.054   5.663   4.864 -3.2025 -0.4438 -0.2598
16175SOL     OW58838   1.704   6.040  10.679  0.0444  0.0549 -0.4203
16175SOL    HW158839   1.788   6.008  10.712 -0.0738 -0.7313 -0.8486
16175SOL    HW258840   1.647   5.963  10.677 -1.5975  1.0297  2.4944
16176SOL     OW58841   9.404   4.991   2.427 -0.7390 -0.2153  0.3790
16176SOL    HW158842   9.334   4.946   2.473 -0.8198 -1.5184 -0.9343
16176SOL    HW258843   9.423   4.936   2.351  2.7246 -0.7180  1.4113
16177SOL     OW58844   0.179   5.232  12.569  0.0709  0.2285  0.3806
16177SOL    HW158845   0.230   5.160  12.532 -0.1411 -0.1781  0.8701
16177SOL    HW258846   0.237   5.273  12.633  1.1962  2.1957 -1.7155
16178SOL     OW58847  12.082   1.667  11.973 -0.4899  0.7395 -0.2586
16178SOL    HW158848  12.085   1.739  12.037  1.3383 -1.0407  1.8230
16178SOL    HW258849  12.133   1.597  12.013 -1.0459 -1.2786 -2.8018
16179SOL     OW58850   4.486   8.866   2.986 -0.1976  0.2735  0.0811
16179SOL    HW158851   4.446   8.779   2.991  0.1385  0.0537 -0.8958
16179SOL    HW258852   4.440   8.917   3.053  0.3833 -0.9629  1.4762
16180SOL     OW58853   2.609  10.741   8.538 -0.1272  0.7581  0.1476
16180SOL    HW158854   2.587  10.674   8.602 -1.0551  0.2421 -0.6897
16180SOL    HW258855   2.548  10.813   8.556  0.1895  0.9717  0.3881
16181SOL     OW58856   6.269   1.266   2.069  0.4202 -0.5795  0.2126
16181SOL    HW158857   6.218   1.186   2.058  0.9925 -0.9153 -0.0410
16181SOL    HW258858   6.204   1.337   2.061 -0.5337 -1.0500  2.9244
16182SOL     OW58859   8.574  11.734   7.606  0.0752  0.5249 -0.6853
16182SOL    HW158860   8.562  11.654   7.657  0.5952  0.9089  0.0590
16182SOL    HW258861   8.528  11.801   7.655 -0.2959  0.7054 -1.2705
16183SOL     OW58862  12.804   1.366   9.686  0.0160 -0.1463  0.3526
16183SOL    HW158863  12.812   1.459   9.665  1.0108 -0.3880 -0.3983
16183SOL    HW258864  12.743   1.363   9.760 -1.5979  0.9363 -0.8724
16184SOL     OW58865   5.746   3.872   7.457 -0.4078  0.3231 -0.0292
16184SOL    HW158866   5.791   3.787   7.465 -0.4417  0.0412 -2.2391
16184SOL    HW258867   5.653   3.850   7.462 -0.4416  0.0966 -1.4496
16185SOL     OW58868   4.616  10.300   1.706 -0.6759  0.1874  0.4788
16185SOL    HW158869   4.567  10.263   1.780  0.7972  0.0846  1.4445
16185SOL    HW258870   4.693  10.244   1.698  0.2105  1.4022  0.1865
16186SOL     OW58871   8.744   1.001   8.321  0.2028  0.7118  0.3323
16186SOL    HW158872   8.695   1.080   8.298 -2.3441 -0.5180  1.1251
16186SOL    HW258873   8.729   0.942   8.246  1.7987  0.8168 -0.0996
16187SOL     OW58874  10.075   3.071   5.494 -0.1346  0.3025 -0.5994
16187SOL    HW158875  10.086   3.127   5.571  0.2606 -0.6662  0.0685
16187SOL    HW258876  10.019   3.000   5.523  1.7262 -1.2425 -0.5428
16188SOL     OW58877   0.348   9.538   5.584  0.5138  0.3323  0.5835
16188SOL    HW158878   0.309   9.550   5.671 -0.7839  0.4492  0.0077
16188SOL    HW258879   0.274   9.524   5.526  1.3806 -0.0465 -0.4763
16189SOL     OW58880   0.421   4.895   4.759  0.2078 -0.3371  0.4379
16189SOL    HW158881   0.471   4.828   4.711  0.0637 -0.3378  0.2911
16189SOL    HW258882   0.476   4.973   4.754  0.3625 -0.4338  0.5828
16190SOL     OW58883   3.363   8.951   2.598 -0.0469 -0.7613  0.0583
16190SOL    HW158884   3.317   9.024   2.555  0.0515  0.3157  1.6771
16190SOL    HW258885   3.454   8.980   2.604 -0.5600  0.5724  3.6762
16191SOL     OW58886   4.429   9.319   2.620  0.0636 -0.2130  0.1993
16191SOL    HW158887   4.424   9.232   2.580 -1.8366 -0.9608  1.8621
16191SOL    HW258888   4.481   9.371   2.559 -1.0942 -1.7640 -2.2779
16192SOL     OW58889   5.609   1.207   8.025  1.0019 -0.2963  0.1989
16192SOL    HW158890   5.607   1.177   8.116  1.7408 -0.2653  0.2314
16192SOL    HW258891   5.621   1.127   7.974 -0.1969 -0.4142  0.0557
16193SOL     OW58892   0.570   1.672   3.922  0.0467  0.0418  0.0157
16193SOL    HW158893   0.592   1.756   3.880  0.7231 -0.2655 -0.2544
16193SOL    HW258894   0.528   1.697   4.004 -3.7151  0.7513 -1.8484
16194SOL     OW58895  11.301   5.806   8.389  0.1445 -0.0683  0.7063
16194SOL    HW158896  11.260   5.775   8.308  0.8144 -1.9660  1.0569
16194SOL    HW258897  11.371   5.865   8.360 -0.3335  0.1480 -0.0322
16195SOL     OW58898   2.734   6.896  11.548 -0.2610  0.0342 -0.3064
16195SOL    HW158899   2.736   6.967  11.612 -1.0165  0.1689 -0.4197
16195SOL    HW258900   2.798   6.832  11.580  0.3912  0.7376 -0.1783
16196SOL     OW58901   6.689  11.299  10.639  0.2057  0.5045  0.0709
16196SOL    HW158902   6.644  11.346  10.709 -0.6164 -0.5489  0.2769
16196SOL    HW258903   6.622  11.281  10.574 -0.7256 -4.0922  1.8973
16197SOL     OW58904   4.545   2.939  12.726 -0.0608  0.6243 -0.3839
16197SOL    HW158905   4.477   2.966  12.788  0.8660 -0.7060  1.2989
16197SOL    HW258906   4.496   2.906  12.650 -1.5098 -2.9086  1.8672
16198SOL     OW58907   2.484   4.455   7.744 -0.3508 -0.3511  0.3433
16198SOL    HW158908   2.477   4.361   7.761 -0.2740 -0.4052  0.0893
16198SOL    HW258909   2.527   4.460   7.659 -0.3732 -0.0850  0.3471
16199SOL     OW58910   7.361   6.090   4.457 -0.2979 -0.2880  0.3749
16199SOL    HW158911   7.442   6.039   4.458 -0.5880 -0.8539 -1.5350
16199SOL    HW258912   7.390   6.181   4.450  0.1806 -0.3725  1.1390
16200SOL     OW58913   4.103   9.043   4.413  0.3352 -0.5692 -0.0996
16200SOL    HW158914   4.067   9.131   4.421  1.5345 -0.0237 -0.3583
16200SOL    HW258915   4.183   9.045   4.467  1.4122 -0.8991 -1.5995
16201SOL     OW58916   2.417   9.917   4.559  0.1086  0.8001 -0.3520
16201SOL    HW158917   2.376   9.857   4.621 -0.7013 -0.1694 -1.7850
16201SOL    HW258918   2.406  10.004   4.599  0.6075  0.1245  1.3671
16202SOL     OW58919   2.243   7.430   9.360  0.0135 -0.4872 -0.2299
16202SOL    HW158920   2.215   7.339   9.367  1.7935 -1.1419 -1.2909
16202SOL    HW258921   2.278   7.451   9.447 -0.9580 -0.5915  0.2013
16203SOL     OW58922  10.562  10.086   8.713  0.0682 -0.5936 -0.0451
16203SOL    HW158923  10.607  10.027   8.652  0.2116 -1.7885  1.1514
16203SOL    HW258924  10.481  10.039   8.736  0.0386 -0.1880  0.7090
16204SOL     OW58925   4.546   8.655  10.883 -0.4351 -0.0825  0.0088
16204SOL    HW158926   4.536   8.736  10.933 -0.6319 -0.1022  0.0036
16204SOL    HW258927   4.639   8.648  10.866 -0.2279 -0.5638  1.1985
16205SOL     OW58928   8.328   1.703   6.886 -0.4466 -0.0879 -0.2234
16205SOL    HW158929   8.272   1.759   6.831 -0.1550 -0.6706 -1.1327
16205SOL    HW258930   8.321   1.616   6.847  1.9700  0.0241 -1.1113
16206SOL     OW58931   6.656   7.655   7.357  0.4212  0.3031 -0.0515
16206SOL    HW158932   6.684   7.565   7.375 -0.4163  0.3921  2.0217
16206SOL    HW258933   6.688   7.705   7.433  1.6763  1.9765 -1.5973
16207SOL     OW58934   8.880   8.798   9.932  0.1459  0.2783  0.2312
16207SOL    HW158935   8.785   8.784   9.935  0.0779  0.4861 -0.6869
16207SOL    HW258936   8.912   8.762  10.015 -0.6672 -0.2701  0.3217
16208SOL     OW58937   3.605   2.552   8.039  0.4773 -0.3440  0.6269
16208SOL    HW158938   3.600   2.457   8.036  1.1018 -0.3768  0.5574
16208SOL    HW258939   3.515   2.581   8.024  0.6602 -0.8547 -1.9618
16209SOL     OW58940   5.352   1.240   1.864  0.1634 -0.5866 -0.4042
16209SOL    HW158941   5.335   1.330   1.833 -1.2960 -0.9826 -0.8509
16209SOL    HW258942   5.441   1.222   1.835 -0.4639 -0.2327 -2.7725
16210SOL     OW58943   6.924   6.084  12.648  0.0317  0.2647  0.2827
16210SOL    HW158944   7.018   6.095  12.660 -0.1784  0.2304  2.3014
16210SOL    HW258945   6.902   6.007  12.701 -1.3807  1.2658  1.1970
16211SOL     OW58946   1.629   8.644   4.333 -0.6925 -0.3305  0.0673
16211SOL    HW158947   1.594   8.627   4.246  0.3743 -0.5165 -0.3417
16211SOL    HW258948   1.599   8.732   4.354 -0.1896  0.0811 -0.8885
16212SOL     OW58949   6.604  12.568   8.853 -0.2121 -0.3605  0.2584
16212SOL    HW158950   6.542  12.568   8.926 -1.0316  1.7522 -0.3768
16212SOL    HW258951   6.550  12.585   8.776  1.1818  2.4600 -0.2174
16213SOL     OW58952   2.549   8.024   3.533 -0.2763 -0.2441  0.7318
16213SOL    HW158953   2.488   8.080   3.484 -0.1735 -0.6585  0.1327
16213SOL    HW258954   2.630   8.027   3.483  0.1947  0.2486  1.4908
16214SOL     OW58955  11.857   2.122  11.716  0.0976 -0.2469 -0.0427
16214SOL    HW158956  11.925   2.117  11.784  0.4839  2.0298 -0.1948
16214SOL    HW258957  11.874   2.046  11.660  1.2716 -0.8338  1.0459
16215SOL     OW58958   4.887   7.087  12.813 -0.5830 -0.0934 -0.5026
16215SOL    HW158959   4.937   7.045  12.743  0.5638 -0.2771  0.3893
16215SOL    HW258960   4.896   7.181  12.796  1.6949 -0.0229  0.6465
16216SOL     OW58961   9.403   3.363   7.257 -0.0265  0.0819  0.1551
16216SOL    HW158962   9.472   3.355   7.323  0.8051 -0.0297 -0.7126
16216SOL    HW258963   9.407   3.454   7.229 -0.6364  0.2289  0.5196
16217SOL     OW58964   9.752   4.587   7.087 -0.1264 -0.1010  0.3325
16217SOL    HW158965   9.813   4.546   7.025  0.4086  1.6827 -0.3710
16217SOL    HW258966   9.667   4.584   7.042 -0.2392 -1.0267  0.5838
16218SOL     OW58967   3.647   6.247   3.261  0.3513  0.2273 -1.1794
16218SOL    HW158968   3.551   6.244   3.258  0.2281  0.4617  1.1621
16218SOL    HW258969   3.667   6.337   3.283  0.9372 -0.4720  1.4289
16219SOL     OW58970   1.923   2.795   6.846 -0.4366 -0.2357  0.2233
16219SOL    HW158971   1.935   2.703   6.867 -2.3172 -0.7358 -0.6166
16219SOL    HW258972   1.905   2.837   6.930  2.9697 -0.0559  1.0144
16220SOL     OW58973  12.127   9.022   9.908 -0.0968 -0.4820 -0.3122
16220SOL    HW158974  12.133   8.961   9.834 -1.1429 -1.4666  0.3825
16220SOL    HW258975  12.048   8.995   9.955  0.8954 -0.3180  1.5416
16221SOL     OW58976   3.497   4.103   6.261 -0.6972  0.0619  0.8678
16221SOL    HW158977   3.523   4.019   6.222  0.1601 -0.7807  3.0701
16221SOL    HW258978   3.543   4.169   6.209 -0.9646 -0.8399 -0.5749
16222SOL     OW58979  12.463  12.689   5.075 -0.1995  0.2361  0.3212
16222SOL    HW158980  12.531  12.626   5.051 -0.6949 -0.4056  0.5890
16222SOL    HW258981  12.392  12.673   5.014 -0.4203  0.3845  0.5341
16223SOL     OW58982   9.638   5.658   5.694  0.2045 -0.2999 -0.4192
16223SOL    HW158983   9.616   5.583   5.639  2.2184 -0.7617 -0.6912
16223SOL    HW258984   9.668   5.620   5.776 -1.6451  0.3535  0.6197
16224SOL     OW58985   6.411  11.866  11.931 -0.2611 -0.3192  0.7673
16224SOL    HW158986   6.337  11.866  11.871  0.9599  2.8883 -0.9788
16224SOL    HW258987   6.378  11.911  12.009 -0.3798  0.5077  0.2546
16225SOL     OW58988   3.623   4.791   7.346  0.0757  0.3081  0.1547
16225SOL    HW158989   3.558   4.854   7.315  0.3307  0.8773  0.7582
16225SOL    HW258990   3.572   4.725   7.393 -0.3376 -0.6683 -1.5839
16226SOL     OW58991   5.247   1.109   1.521  0.1457  1.1155  0.3058
16226SOL    HW158992   5.294   1.050   1.462  1.5830  0.0964  2.3584
16226SOL    HW258993   5.314   1.167   1.556 -0.8716  2.4406  0.1169
16227SOL     OW58994   1.188  12.851  11.966  0.3930  0.3690 -0.5698
16227SOL    HW158995   1.243  12.853  12.045  0.6567  0.1365 -0.7488
16227SOL    HW258996   1.212  12.931  11.919 -0.2632  0.8653 -0.0791
16228SOL     OW58997   8.421   9.806   8.967  1.0447  0.3759 -0.2520
16228SOL    HW158998   8.472   9.865   9.024  3.3429 -1.3287 -0.3895
16228SOL    HW258999   8.392   9.736   9.026  0.6112  0.2773 -0.5831
16229SOL     OW59000   6.247  12.662  10.281 -0.0957 -0.0592  0.4084
16229SOL    HW159001   6.323  12.694  10.232 -0.5515  2.0858  1.0028
16229SOL    HW259002   6.224  12.734  10.339  0.0137 -2.2284  3.3570
16230SOL     OW59003   4.290   1.970   1.107 -0.0805  0.0402 -0.2634
16230SOL    HW159004   4.378   2.003   1.087 -1.1866  2.2907 -1.9199
16230SOL    HW259005   4.258   1.935   1.024 -1.0387  0.0280  0.0967
16231SOL     OW59006   0.560   2.886  10.102  0.7282  0.2141  0.1016
16231SOL    HW159007   0.592   2.839  10.025 -1.2004  0.3482 -0.8344
16231SOL    HW259008   0.636   2.889  10.161  2.1834 -0.1286 -1.6511
16232SOL     OW59009   4.499  12.320   0.369  0.9100  0.4142 -0.3143
16232SOL    HW159010   4.559  12.251   0.340 -1.4022 -0.9541 -2.3116
16232SOL    HW259011   4.428  12.273   0.412  0.7020  1.8580  0.9946
16233SOL     OW59012   8.344   1.886  12.062 -0.6151 -0.0037  0.0134
16233SOL    HW159013   8.352   1.981  12.071 -1.2577  0.0321  0.2591
16233SOL    HW259014   8.250   1.870  12.063 -0.5072 -0.6511  0.0337
16234SOL     OW59015   9.814   5.099   2.680  0.3037  0.7645  0.2088
16234SOL    HW159016   9.799   5.047   2.601  0.7107 -0.8399  1.1295
16234SOL    HW259017   9.804   5.189   2.652  2.2755  0.3615 -2.1082
16235SOL     OW59018   4.637   4.043  12.107  0.0219 -0.1993  0.3415
16235SOL    HW159019   4.584   4.040  12.186 -0.4374  0.0844  0.0501
16235SOL    HW259020   4.577   4.074  12.039  0.5579  0.1144  0.0037
16236SOL     OW59021   7.710  12.970   3.967  0.4004  0.8442 -0.6974
16236SOL    HW159022   7.672  13.028   3.902 -1.0046 -0.2118 -0.8676
16236SOL    HW259023   7.658  12.984   4.046  0.1456 -0.0543 -0.6980
16237SOL     OW59024   8.817   0.559   5.517  0.3712 -0.1630  0.1195
16237SOL    HW159025   8.739   0.557   5.573 -0.4584 -0.3081 -1.0079
16237SOL    HW259026   8.782   0.561   5.428  1.6388 -1.9472 -0.4701
16238SOL     OW59027   1.677   5.232  12.571  0.8837 -0.5737 -0.0454
16238SOL    HW159028   1.654   5.151  12.525 -0.1091  1.5198 -3.5618
16238SOL    HW259029   1.600   5.250  12.627  1.7725 -2.7264  2.0661
16239SOL     OW59030   5.939  11.501   1.100 -0.1347 -0.1683  0.0177
16239SOL    HW159031   5.871  11.538   1.044 -1.4323 -1.0657  0.9404
16239SOL    HW259032   5.894  11.433   1.151  1.0465  0.3834  1.9134
16240SOL     OW59033   8.442   3.763   3.352  0.2730 -0.2801  0.3824
16240SOL    HW159034   8.537   3.749   3.353  0.4221  0.6598  0.6952
16240SOL    HW259035   8.424   3.814   3.432 -0.4294 -0.0919  0.1163
16241SOL     OW59036  10.040   9.428   5.155 -0.3356  0.0731  0.3262
16241SOL    HW159037  10.043   9.521   5.178 -0.6655 -0.4230  2.6025
16241SOL    HW259038   9.965   9.420   5.097 -0.3900  1.2018  0.2099
16242SOL     OW59039   5.212   1.538  12.540 -0.1471 -0.3153 -0.3922
16242SOL    HW159040   5.237   1.600  12.609  2.7668 -1.8848  0.0853
16242SOL    HW259041   5.117   1.531  12.548 -0.0761  0.8077  2.3748
16243SOL     OW59042  10.679   6.737   3.880  0.3127  0.1544  0.2370
16243SOL    HW159043  10.681   6.722   3.786  0.7675  0.2624  0.2271
16243SOL    HW259044  10.587   6.752   3.900  0.1219 -0.5332 -0.0840
16244SOL     OW59045   6.333   2.151   0.911  0.0741  0.4555  0.1351
16244SOL    HW159046   6.426   2.157   0.888  0.5739 -0.1089  1.8145
16244SOL    HW259047   6.305   2.242   0.919  0.6189  0.6312  0.1193
16245SOL     OW59048   3.383   4.465   2.941 -0.1016 -0.3379 -0.6438
16245SOL    HW159049   3.374   4.386   2.887  0.2455 -0.7528 -0.1044
16245SOL    HW259050   3.292   4.489   2.963 -0.2654  0.0120 -1.6401
16246SOL     OW59051   2.984   6.828  12.252 -0.3184  0.0328  0.2639
16246SOL    HW159052   2.894   6.804  12.233  0.1488 -1.5572 -0.0662
16246SOL    HW259053   3.033   6.746  12.248  0.9031  0.6063  1.9513
16247SOL     OW59054   4.199   2.685   3.895  0.3654 -0.0200  0.1819
16247SOL    HW159055   4.147   2.717   3.821  1.6138  0.8953 -0.3507
16247SOL    HW259056   4.142   2.694   3.971 -0.2314  1.0262 -0.3704
16248SOL     OW59057   4.535   7.146  11.953 -0.0882 -0.5096  0.8415
16248SOL    HW159058   4.490   7.228  11.933 -1.0064 -1.3085 -0.5634
16248SOL    HW259059   4.501   7.121  12.039  0.8826  0.9961  1.7109
16249SOL     OW59060   6.446   0.509   0.122  0.2620  0.5717 -0.1097
16249SOL    HW159061   6.442   0.498   0.217 -0.2168 -1.0653 -0.2905
16249SOL    HW259062   6.533   0.546   0.106  0.7440 -0.0741  0.8996
16250SOL     OW59063   0.502   1.564  11.300  0.2439  0.6805  0.1504
16250SOL    HW159064   0.594   1.556  11.276  0.0552  0.7037 -0.5947
16250SOL    HW259065   0.455   1.520  11.230 -0.2254 -1.3481  1.6264
16251SOL     OW59066   7.465   5.340  11.953 -0.1294  0.2494 -0.0581
16251SOL    HW159067   7.400   5.332  11.883  1.0601 -0.5019 -1.1394
16251SOL    HW259068   7.417   5.377  12.027 -1.6882  0.0320 -0.9156
16252SOL     OW59069   7.365   5.011   7.933  0.1175  0.7455  0.1291
16252SOL    HW159070   7.447   5.009   7.885 -0.0289  1.7886 -0.1928
16252SOL    HW259071   7.362   4.927   7.980  0.0062 -0.5832 -2.0931
16253SOL     OW59072  10.300   9.446   7.144 -0.3001 -0.2017 -0.0431
16253SOL    HW159073  10.364   9.517   7.140  0.8027 -1.1795 -0.1650
16253SOL    HW259074  10.257   9.449   7.058  1.6041 -1.3376 -1.0959
16254SOL     OW59075   5.653   8.781   1.001  0.0247  0.4326 -0.4261
16254SOL    HW159076   5.655   8.706   0.940 -2.2796  0.0961 -0.1944
16254SOL    HW259077   5.669   8.857   0.945 -0.5136 -0.0040 -1.2039
16255SOL     OW59078   4.242   7.711   5.518 -0.3989 -0.3324  0.4447
16255SOL    HW159079   4.243   7.794   5.471  0.2155 -0.9137 -0.5821
16255SOL    HW259080   4.173   7.660   5.476 -0.4859 -0.5114  0.7952
16256SOL     OW59081   2.295   6.367   3.141  0.3610  0.6986  0.6584
16256SOL    HW159082   2.218   6.335   3.187 -0.1234  0.7365 -0.1094
16256SOL    HW259083   2.319   6.447   3.187  1.0863 -0.2733  2.0777
16257SOL     OW59084   4.220   9.208   7.999  0.3444 -0.0489  0.0003
16257SOL    HW159085   4.282   9.141   8.027 -0.8049 -1.1056  0.0600
16257SOL    HW259086   4.134   9.169   8.013 -0.4083  1.9406  1.3630
16258SOL     OW59087  11.108   9.550  11.756 -0.5041 -0.3753 -0.0954
16258SOL    HW159088  11.150   9.472  11.794 -0.4216 -1.1971 -1.7649
16258SOL    HW259089  11.113   9.616  11.825 -0.4963 -1.8150  1.3525
16259SOL     OW59090   1.533   4.905   2.214  0.0765 -0.2627  0.7958
16259SOL    HW159091   1.443   4.937   2.221 -0.2471 -1.0055  0.0990
16259SOL    HW259092   1.572   4.957   2.144  0.8465  1.4878  2.4136
16260SOL     OW59093   1.413  10.849   0.770  0.7819 -0.1926  0.0538
16260SOL    HW159094   1.481  10.878   0.830  0.6836  1.9046 -0.7596
16260SOL    HW259095   1.417  10.754   0.773  2.5146 -0.1212  1.3987
16261SOL     OW59096   7.837  10.041   5.715  0.0625  0.2939 -0.4623
16261SOL    HW159097   7.826  10.058   5.809  0.7735 -1.6510  0.0220
16261SOL    HW259098   7.913  10.093   5.690  0.6714 -0.1619  0.3662
16262SOL     OW59099   2.446   8.982   4.835  0.2310 -0.3045  0.4606
16262SOL    HW159100   2.500   8.923   4.888 -0.4824  0.8453  2.5832
16262SOL    HW259101   2.407   8.926   4.769  1.7856 -1.6758  0.6454
16263SOL     OW59102   9.069   1.287   2.452 -0.3180 -0.0763  0.2425
16263SOL    HW159103   9.144   1.307   2.397 -0.3304 -1.0895 -0.1599
16263SOL    HW259104   9.000   1.345   2.421 -0.1121 -0.1348 -0.3348
16264SOL     OW59105   2.387   4.071   4.562  0.7115  0.5637  0.3743
16264SOL    HW159106   2.349   4.157   4.547  0.3693  1.0121  3.3030
16264SOL    HW259107   2.479   4.088   4.581  0.7387  0.2374  0.5437
16265SOL     OW59108  10.605  11.735   1.468 -0.4658  0.4228 -0.8305
16265SOL    HW159109  10.633  11.804   1.408  0.4417  0.9822  0.2062
16265SOL    HW259110  10.609  11.775   1.555 -1.4775 -0.4605 -0.3516
16266SOL     OW59111   5.500  10.709   3.684  0.0476  0.1612 -0.3534
16266SOL    HW159112   5.573  10.657   3.649  0.3632 -1.0695  1.9343
16266SOL    HW259113   5.533  10.799   3.685  1.5088 -0.3441  0.4410
16267SOL     OW59114   6.135   8.825   4.964 -0.6174  0.5239  0.2746
16267SOL    HW159115   6.211   8.785   4.921 -1.9120 -1.3092 -0.4434
16267SOL    HW259116   6.085   8.865   4.892 -2.1038 -1.3857  0.1586
16268SOL     OW59117  11.170   2.995  11.822  0.3013  0.5520 -0.0769
16268SOL    HW159118  11.196   2.903  11.815  0.3393  0.4902  0.8175
16268SOL    HW259119  11.211   3.026  11.903  0.6477  1.4770 -0.5859
16269SOL     OW59120   0.310   2.750  11.264  0.1665 -0.1039 -0.2267
16269SOL    HW159121   0.333   2.670  11.217 -0.3004 -0.3259 -0.0879
16269SOL    HW259122   0.387   2.806  11.256 -0.1907  0.2006 -1.9636
16270SOL     OW59123   6.019   3.609   2.411  0.5722 -0.0827  0.1805
16270SOL    HW159124   5.998   3.598   2.318 -0.3787  0.1923  0.3479
16270SOL    HW259125   6.038   3.703   2.420 -0.5367  0.1292  0.4751
16271SOL     OW59126  11.915  11.883   7.230 -0.3312  0.4314  0.3905
16271SOL    HW159127  11.937  11.891   7.323  0.9291  0.0625  0.1371
16271SOL    HW259128  11.876  11.796   7.222 -1.7324  0.9935  0.7992
16272SOL     OW59129   3.727   7.226   3.133  0.0304  0.3371 -0.5198
16272SOL    HW159130   3.664   7.243   3.063 -1.4630  0.1684  0.7365
16272SOL    HW259131   3.780   7.306   3.137 -2.4583  2.0710  0.7518
16273SOL     OW59132   7.506   2.258   7.982 -0.5960  0.3569 -0.3751
16273SOL    HW159133   7.576   2.310   8.021  0.0752 -0.0446 -1.0255
16273SOL    HW259134   7.506   2.283   7.890 -1.7934  0.8798 -0.2435
16274SOL     OW59135   4.008   2.232  12.651  0.1492 -0.5808 -0.2633
16274SOL    HW159136   3.913   2.237  12.648  0.2312  0.7967 -1.1939
16274SOL    HW259137   4.036   2.318  12.681  1.1289 -0.7645 -0.6127
16275SOL     OW59138   9.566   4.832   6.264 -0.2785 -0.8284  0.4029
16275SOL    HW159139   9.507   4.771   6.309 -1.7573 -1.2963 -1.9720
16275SOL    HW259140   9.531   4.836   6.174  0.1336  3.0328  0.2801
16276SOL     OW59141   0.792   0.728   4.489  0.1744  0.3021  0.3656
16276SOL    HW159142   0.776   0.636   4.468 -2.0346  0.4587  1.1466
16276SOL    HW259143   0.787   0.773   4.404  1.5157 -0.2871 -0.0566
16277SOL     OW59144   8.592   7.156   5.661  0.3918 -0.0228  0.3210
16277SOL    HW159145   8.613   7.062   5.659 -1.4867 -0.4803  0.5349
16277SOL    HW259146   8.621   7.188   5.576 -1.2600 -1.3819 -0.8295
16278SOL     OW59147   9.309   7.903   2.145 -0.4173  0.2784 -0.3157
16278SOL    HW159148   9.294   7.987   2.189  1.8388  0.9530 -0.7144
16278SOL    HW259149   9.292   7.921   2.052 -2.5076 -0.4444 -0.1278
16279SOL     OW59150   5.723   7.311   9.308  0.1151 -0.2059 -0.1566
16279SOL    HW159151   5.709   7.406   9.305  0.2017 -0.2086 -0.9540
16279SOL    HW259152   5.636   7.273   9.298  0.0162 -0.2185  0.6686
16280SOL     OW59153   6.081   9.301   6.990 -0.1375 -0.3606 -0.5897
16280SOL    HW159154   6.045   9.385   6.960  0.1740  0.7859  1.9948
16280SOL    HW259155   6.144   9.325   7.058 -0.2826 -2.7200  0.4579
16281SOL     OW59156   3.609   8.943   2.046  0.5665 -0.4529 -0.5683
16281SOL    HW159157   3.573   9.024   2.009 -2.3294 -0.7793  1.3004
16281SOL    HW259158   3.698   8.968   2.073 -0.3520  2.2745  0.3147
16282SOL     OW59159   2.686  10.449   9.630 -0.0874  0.4561  0.2935
16282SOL    HW159160   2.645  10.524   9.588 -0.9364 -0.8149 -1.2309
16282SOL    HW259161   2.698  10.385   9.560 -0.9860 -1.5197  1.8504
16283SOL     OW59162   4.846   1.298   2.319  0.3886 -0.3124  0.6090
16283SOL    HW159163   4.931   1.313   2.279  1.2507 -0.7565  2.2065
16283SOL    HW259164   4.805   1.384   2.321 -0.7132 -0.5586 -3.2702
16284SOL     OW59165   0.565   8.378   9.953 -0.0056  0.1987 -0.1397
16284SOL    HW159166   0.490   8.404  10.006  0.0697 -1.4889  0.8563
16284SOL    HW259167   0.551   8.286   9.933  1.4545  0.0275 -0.5223
16285SOL     OW59168  10.628  12.219  10.689 -0.1396 -0.1355 -0.0567
16285SOL    HW159169  10.678  12.137  10.688  0.3165  0.1222  0.6067
16285SOL    HW259170  10.664  12.268  10.763  1.1101  1.6110 -1.7255
16286SOL     OW59171   0.798   6.921  10.569  0.5396 -0.3491 -0.5508
16286SOL    HW159172   0.831   7.011  10.566  1.0538 -0.5259 -0.2018
16286SOL    HW259173   0.728   6.924  10.635 -0.6883  0.1910 -1.8207
16287SOL     OW59174   2.339   6.534   4.922 -0.2755 -0.1345 -0.2579
16287SOL    HW159175   2.311   6.443   4.925 -0.5132 -0.0424  0.3793
16287SOL    HW259176   2.258   6.585   4.926 -0.1365  0.1040 -0.4792
16288SOL     OW59177   6.053   7.619   6.545 -0.6306 -0.1537 -0.7136
16288SOL    HW159178   6.015   7.693   6.499 -1.0566  1.0807  1.4982
16288SOL    HW259179   6.056   7.646   6.636  1.6660 -1.8493 -0.1922
16289SOL     OW59180   5.662   1.912   8.676  0.2358  0.4614  0.7700
16289SOL    HW159181   5.663   1.940   8.585  0.0934  0.3597  0.7374
16289SOL    HW259182   5.753   1.893   8.697  0.2677  0.4832  0.6481
16290SOL     OW59183   4.237  10.296   6.318  0.4638 -0.7182  0.2574
16290SOL    HW159184   4.201  10.367   6.264 -0.3580 -2.6016 -1.8699
16290SOL    HW259185   4.327  10.322   6.336  0.5211  0.3758 -1.4106
16291SOL     OW59186   4.702   1.122   2.508 -0.1301 -0.6480 -0.6844
16291SOL    HW159187   4.754   1.048   2.537  0.4391  0.2811  0.7520
16291SOL    HW259188   4.760   1.170   2.449 -0.0658 -0.6869 -0.6532
16292SOL     OW59189   6.917  12.845  11.580 -0.5622  0.0022 -0.2632
16292SOL    HW159190   6.850  12.790  11.540  0.0293 -1.0975  0.2114
16292SOL    HW259191   6.987  12.784  11.603  0.7464  1.1688 -1.0449
16293SOL     OW59192   6.439   2.693   3.401 -0.0206  0.2330  0.1237
16293SOL    HW159193   6.451   2.785   3.425  0.9608  0.0548  0.3383
16293SOL    HW259194   6.349   2.689   3.369  0.2746  1.5033 -0.9621
16294SOL     OW59195   7.627  10.491   9.804  0.2215 -0.0863  0.1450
16294SOL    HW159196   7.714  10.495   9.764  1.0318 -0.7682  1.7499
16294SOL    HW259197   7.592  10.406   9.778  0.5861 -0.3687  0.5695
16295SOL     OW59198  12.568   6.669   9.540  0.1895 -0.6529 -0.2054
16295SOL    HW159199  12.611   6.618   9.609  0.6523  1.0992  0.8685
16295SOL    HW259200  12.481   6.631   9.532  0.5586 -1.6735  0.4613
16296SOL     OW59201   5.356   4.063   4.437  0.0032  0.2236 -0.0252
16296SOL    HW159202   5.418   4.022   4.376  0.3221  1.4353 -0.5475
16296SOL    HW259203   5.275   4.069   4.387 -0.4330 -0.9740  0.5142
16297SOL     OW59204  12.174   0.697  12.620  0.5800  0.8645 -0.4619
16297SOL    HW159205  12.085   0.728  12.601  0.2291  0.1115 -0.0790
16297SOL    HW259206  12.162   0.607  12.650  1.4306  0.9321  0.1009
16298SOL     OW59207   3.043   5.504   7.882  0.3905  0.5561 -0.2697
16298SOL    HW159208   2.980   5.447   7.839  1.5418 -0.5684 -0.5158
16298SOL    HW259209   3.127   5.461   7.869  1.0703  1.4191  1.0573
16299SOL     OW59210   0.333  12.235   1.497 -0.1545 -0.1213  0.0319
16299SOL    HW159211   0.343  12.310   1.438 -1.3239 -1.4520 -1.9609
16299SOL    HW259212   0.255  12.189   1.466  0.0620 -1.7452  1.6912
16300SOL     OW59213   8.061   7.642   9.724  0.3341  0.4506  0.1049
16300SOL    HW159214   8.123   7.596   9.668  0.7688  1.4754 -0.2822
16300SOL    HW259215   7.991   7.669   9.665  0.3323  0.7176  0.2266
16301SOL     OW59216   7.540   6.702   3.121  0.4057  0.1083  0.1399
16301SOL    HW159217   7.586   6.746   3.192  1.0312  0.0537 -0.2149
16301SOL    HW259218   7.610   6.673   3.062 -0.1050  0.3106 -0.5840
16302SOL     OW59219   4.855  10.360   9.373 -0.0479  0.4765 -0.1301
16302SOL    HW159220   4.905  10.280   9.360  0.1211  0.4612  0.5926
16302SOL    HW259221   4.845  10.397   9.285 -0.2178 -0.3855 -0.4818
16303SOL     OW59222   1.973  11.541   0.759  0.1110 -0.6390 -0.8798
16303SOL    HW159223   2.068  11.540   0.748  0.0546 -1.7060 -1.4241
16303SOL    HW259224   1.956  11.614   0.818  1.1565  0.3453 -1.7593
16304SOL     OW59225   4.442  12.044   5.505  0.1415 -0.4636  0.6561
16304SOL    HW159226   4.362  12.076   5.547 -0.1304 -1.0603  0.5967
16304SOL    HW259227   4.453  12.101   5.429 -1.0079 -1.2461 -0.1314
16305SOL     OW59228  12.907   4.197   9.525  0.2404  0.3421  0.3193
16305SOL    HW159229  12.964   4.143   9.579 -0.6480  0.6585  1.6211
16305SOL    HW259230  12.934   4.287   9.544 -0.1037  0.4569  0.2705
16306SOL     OW59231   1.606  12.362   8.238 -0.6757 -0.2247 -0.0245
16306SOL    HW159232   1.524  12.392   8.198 -0.9535 -2.2904 -1.1794
16306SOL    HW259233   1.673  12.421   8.205 -1.7259  1.9049  1.4349
16307SOL     OW59234  11.635  12.970   5.085  0.5238  0.0413 -0.4624
16307SOL    HW159235  11.642  13.053   5.038  0.5584 -0.3679 -1.1938
16307SOL    HW259236  11.632  12.995   5.178 -2.1190  1.0457 -0.7350
16308SOL     OW59237   7.532   5.006   3.473  0.1962 -0.3801  0.3173
16308SOL    HW159238   7.525   5.052   3.557  1.5030  0.4043  0.0288
16308SOL    HW259239   7.601   5.053   3.426 -0.2084 -1.0907 -1.0202
16309SOL     OW59240   6.790   0.431   3.231  0.3980  0.0534 -0.3595
16309SOL    HW159241   6.850   0.357   3.218 -1.2106 -1.2947 -0.4663
16309SOL    HW259242   6.783   0.439   3.326 -3.1633 -3.3091 -0.0759
16310SOL     OW59243   5.619   0.243  10.622  0.4452 -0.3733 -0.2620
16310SOL    HW159244   5.643   0.175  10.686 -0.0538  1.0160  1.4687
16310SOL    HW259245   5.652   0.324  10.661  1.2640  0.3817 -2.4176
16311SOL     OW59246  10.367   7.517   3.418 -0.0682  1.0914 -0.4446
16311SOL    HW159247  10.385   7.533   3.325  0.1169  1.6641 -0.3124
16311SOL    HW259248  10.284   7.469   3.419  0.9189 -0.7391 -1.0174
16312SOL     OW59249   8.245  10.626  12.105 -0.3102  0.1866  0.8655
16312SOL    HW159250   8.249  10.719  12.127  1.2326  0.2551  0.4618
16312SOL    HW259251   8.170  10.617  12.047 -1.0813  0.9879  1.7260
16313SOL     OW59252   2.472  11.044   0.003 -0.7281  0.1182  0.0907
16313SOL    HW159253   2.559  11.075  -0.020 -1.0859  0.1749 -1.3007
16313SOL    HW259254   2.414  11.117  -0.020 -1.0988  0.3472  1.6412
16314SOL     OW59255   1.103   9.765  11.383 -0.1095 -0.2871  0.2865
16314SOL    HW159256   1.009   9.780  11.369 -0.2790 -1.9457 -0.6084
16314SOL    HW259257   1.136   9.736  11.298  0.6666 -2.1904  1.1861
16315SOL     OW59258  11.008   1.185   1.956 -0.3718 -0.2494  0.4608
16315SOL    HW159259  11.020   1.217   1.867 -1.9693  0.5345  0.4925
16315SOL    HW259260  10.992   1.091   1.946  0.2533 -0.3081  0.0010
16316SOL     OW59261  10.655  12.225   5.178  0.4369 -0.6032  0.0208
16316SOL    HW159262  10.615  12.286   5.115  1.4095 -0.6990 -0.7130
16316SOL    HW259263  10.683  12.151   5.124  1.2819 -0.6971  0.5716
16317SOL     OW59264  11.825   0.229   3.870  0.8188 -0.1483  1.1807
16317SOL    HW159265  11.817   0.221   3.965  1.0652 -1.6699  1.1033
16317SOL    HW259266  11.735   0.226   3.838  0.7217  0.5691  1.3658
16318SOL     OW59267   6.568   4.899   3.229 -0.3760  0.1343 -0.3333
16318SOL    HW159268   6.649   4.942   3.202 -0.4906  0.1922 -0.5837
16318SOL    HW259269   6.562   4.821   3.174 -1.5775  1.2283 -1.8516
16319SOL     OW59270  10.278  12.028  12.348 -0.5168 -0.3260 -0.0847
16319SOL    HW159271  10.322  12.042  12.432 -2.2362 -1.1467  1.0171
16319SOL    HW259272  10.325  11.955  12.308  0.7495  0.5143 -0.1840
16320SOL     OW59273   3.737   8.008   5.125 -0.0000  0.1160 -0.3949
16320SOL    HW159274   3.792   8.059   5.184  1.5202 -1.3460 -0.4784
16320SOL    HW259275   3.739   7.919   5.161 -0.4601 -0.4367 -1.6752
16321SOL     OW59276   2.326   8.313   3.858  0.2897 -0.1136 -0.3265
16321SOL    HW159277   2.386   8.286   3.928  0.5509 -0.1063 -0.5479
16321SOL    HW259278   2.298   8.231   3.818  1.5092 -0.0454 -1.3565
16322SOL     OW59279  10.816   9.087   2.953  0.1827 -0.2256 -0.2333
16322SOL    HW159280  10.860   9.162   2.993 -0.6383  0.1282  0.0084
16322SOL    HW259281  10.739   9.123   2.910 -1.4647 -1.1717  1.7432
16323SOL     OW59282   4.704   3.762   5.740  0.2308  0.0135 -0.3097
16323SOL    HW159283   4.785   3.713   5.733  0.2105 -0.4088  1.8279
16323SOL    HW259284   4.725   3.837   5.796 -0.5430  0.5983 -0.7799
16324SOL     OW59285   4.418  12.178   5.265 -0.0270  0.0458 -0.2691
16324SOL    HW159286   4.505  12.143   5.243  0.0876 -0.2446  0.6089
16324SOL    HW259287   4.357  12.122   5.217  0.2018 -0.8060  0.4012
16325SOL     OW59288  10.193  11.258  11.764 -0.4082  0.4700 -0.0085
16325SOL    HW159289  10.183  11.256  11.669  1.7349 -0.7820 -0.2890
16325SOL    HW259290  10.197  11.351  11.786 -1.7971  0.7962 -0.9924
16326SOL     OW59291   9.248   6.507   8.383  0.4446 -0.1257  0.2384
16326SOL    HW159292   9.292   6.591   8.394  0.8204 -0.4030  0.9245
16326SOL    HW259293   9.267   6.482   8.292 -1.1492  1.3354 -0.5494
16327SOL     OW59294   3.644   8.738   0.669  0.4586  0.6205 -0.2899
16327SOL    HW159295   3.654   8.698   0.583 -1.1643  0.7499 -0.5722
16327SOL    HW259296   3.654   8.832   0.653  0.2785  0.6353 -0.3181
16328SOL     OW59297   4.027   8.629   7.473 -0.1133  0.5085  0.0009
16328SOL    HW159298   4.036   8.562   7.405  0.6584  0.8353 -0.2335
16328SOL    HW259299   4.089   8.601   7.542  2.0385  2.1901 -1.1233
16329SOL     OW59300   2.166  11.254  10.809 -0.1695 -0.4565 -0.1192
16329SOL    HW159301   2.146  11.304  10.731  1.1789 -0.4520 -0.4997
16329SOL    HW259302   2.095  11.273  10.870  1.0261  3.1711  0.3519
16330SOL     OW59303   5.374   6.868   1.664  1.1155  0.2417 -0.2932
16330SOL    HW159304   5.439   6.831   1.605  2.0889  1.2885  0.0967
16330SOL    HW259305   5.359   6.800   1.729  2.1768  0.1577 -0.1206
16331SOL     OW59306  11.931  12.293   5.644 -0.2870 -0.2522 -0.2132
16331SOL    HW159307  12.007  12.349   5.663 -0.1653 -0.7504  0.8102
16331SOL    HW259308  11.960  12.237   5.572 -0.5309  1.2178 -1.5248
16332SOL     OW59309  10.883   6.230   9.892 -0.2266 -0.4385 -0.0936
16332SOL    HW159310  10.847   6.311   9.929 -0.2427 -0.3630 -0.2766
16332SOL    HW259311  10.973   6.228   9.925 -0.2917 -0.4577  0.0875
16333SOL     OW59312   6.590   5.822   3.931 -0.5038 -0.2911  0.1174
16333SOL    HW159313   6.523   5.794   3.993 -2.9808  1.1178 -1.7536
16333SOL    HW259314   6.626   5.902   3.970 -1.7271  0.3468 -0.0236
16334SOL     OW59315   8.298   5.959   7.302 -0.1198  0.0359 -0.0744
16334SOL    HW159316   8.383   5.997   7.322 -0.4291  0.3269  0.7523
16334SOL    HW259317   8.235   6.019   7.344 -0.7473  0.0385 -0.9990
16335SOL     OW59318   5.728   2.667   3.030 -0.2259  0.3117 -0.8100
16335SOL    HW159319   5.635   2.644   3.028 -0.6087  1.6810  0.0650
16335SOL    HW259320   5.729   2.761   3.011  0.9455  0.3925 -0.3755
16336SOL     OW59321   1.413  11.566   1.557 -0.3021 -0.7549  0.6135
16336SOL    HW159322   1.431  11.480   1.519  1.9183 -0.7906  1.5929
16336SOL    HW259323   1.350  11.607   1.497  1.9775 -1.3193 -2.3621
16337SOL     OW59324   6.505  11.860   5.334  0.2037  0.9686  0.2145
16337SOL    HW159325   6.469  11.811   5.408 -0.3791 -0.8414 -1.2159
16337SOL    HW259326   6.428  11.896   5.289  0.1742 -1.2998 -1.7434
16338SOL     OW59327   7.955   6.005   3.163 -0.1488  0.5027 -0.2285
16338SOL    HW159328   7.974   6.034   3.074 -1.5874 -2.0298 -1.4541
16338SOL    HW259329   7.861   6.017   3.173 -0.5044 -1.9817 -0.1819
16339SOL     OW59330  10.617   7.151   8.642 -0.4140  0.3706 -0.1431
16339SOL    HW159331  10.654   7.238   8.628  2.0193 -0.4644  0.6808
16339SOL    HW259332  10.672   7.093   8.590 -0.7663 -0.9208  0.8808
16340SOL     OW59333   5.273  11.304  11.112  0.1837  0.0190 -0.2668
16340SOL    HW159334   5.191  11.318  11.160 -0.0906 -1.2834 -0.3142
16340SOL    HW259335   5.341  11.316  11.178 -0.0374  1.0039 -0.2011
16341SOL     OW59336   7.902   5.435   0.943 -0.0137 -0.0776 -0.0781
16341SOL    HW159337   7.982   5.450   0.993 -0.3180 -1.4650  0.8640
16341SOL    HW259338   7.854   5.518   0.949  0.8553  0.4128  0.2452
16342SOL     OW59339   6.847   4.565   2.122 -0.1905  0.1287  0.4990
16342SOL    HW159340   6.785   4.630   2.090  0.8237 -0.0359 -1.9558
16342SOL    HW259341   6.927   4.615   2.139 -0.0558 -0.1458  0.6835
16343SOL     OW59342  11.844   9.029   9.129 -0.2714  0.3787  0.7297
16343SOL    HW159343  11.771   9.058   9.074  0.7102 -1.2364 -1.5673
16343SOL    HW259344  11.871   8.946   9.091  1.5175 -0.0405  2.7400
16344SOL     OW59345   3.974   9.766   5.497 -0.2146 -0.0087 -0.4618
16344SOL    HW159346   4.000   9.674   5.500 -0.4183 -0.0705 -0.5420
16344SOL    HW259347   3.913   9.771   5.423  0.4418  0.3540 -0.9921
16345SOL     OW59348   9.709  11.704   2.240 -0.0664 -0.4587  0.2025
16345SOL    HW159349   9.705  11.783   2.187  1.5349  0.1887  0.9541
16345SOL    HW259350   9.720  11.737   2.330 -0.0079 -1.5288  0.5995
16346SOL     OW59351   3.221   4.951   1.023 -0.7218 -0.1566 -0.0136
16346SOL    HW159352   3.293   5.014   1.022  1.2900 -2.1862  2.5214
16346SOL    HW259353   3.192   4.946   0.932  1.2847  1.8746 -0.8653
16347SOL     OW59354   4.617   5.939   3.711 -0.0537  0.2975  0.1732
16347SOL    HW159355   4.676   5.912   3.781  2.5039 -0.0022 -1.9420
16347SOL    HW259356   4.551   5.870   3.707 -0.6626  0.6225  2.5711
16348SOL     OW59357   5.796   2.375   9.646  0.7093  0.2560  0.1936
16348SOL    HW159358   5.727   2.407   9.704  0.8002  1.0803 -0.1353
16348SOL    HW259359   5.878   2.404   9.687  0.8027  0.2980 -0.0200
16349SOL     OW59360  11.423   5.405   5.497 -0.1703  0.1840 -0.6562
16349SOL    HW159361  11.467   5.336   5.447  0.3408  1.3356 -1.8743
16349SOL    HW259362  11.489   5.475   5.503 -0.3886  0.2594  1.2626
16350SOL     OW59363  12.768   8.190   7.677  0.0831  0.5748  0.1362
16350SOL    HW159364  12.676   8.167   7.658  0.1076  0.1174  0.5402
16350SOL    HW259365  12.802   8.220   7.593 -0.0534 -0.5927 -0.3687
16351SOL     OW59366  11.555   0.048   6.206 -0.3719 -0.6231  0.1554
16351SOL    HW159367  11.633   0.081   6.249 -0.6895 -1.7649  1.6837
16351SOL    HW259368  11.574  -0.044   6.189 -1.3264 -0.8751  0.3977
16352SOL     OW59369   8.892  12.018   1.334  0.0414  0.6227  0.0797
16352SOL    HW159370   8.896  12.031   1.239  0.6919 -0.3121 -0.0342
16352SOL    HW259371   8.843  11.937   1.345  0.6984  0.2736  0.4910
16353SOL     OW59372   1.037   0.661  10.523  0.0312  0.3495  0.3121
16353SOL    HW159373   1.085   0.687  10.602  0.9790 -0.2008 -0.0627
16353SOL    HW259374   1.098   0.604  10.476 -0.3324  1.0479 -1.0521
16354SOL     OW59375   7.227   2.498   5.963  0.6000  0.1472 -0.2328
16354SOL    HW159376   7.165   2.462   5.900 -0.7871  3.0193 -0.6962
16354SOL    HW259377   7.290   2.547   5.909  0.5723  0.9979  0.4889
16355SOL     OW59378  10.717   5.810   8.947  0.1716  0.8491 -0.0495
16355SOL    HW159379  10.712   5.905   8.940  1.5449  0.8707 -1.4483
16355SOL    HW259380  10.693   5.778   8.860 -1.0030 -0.1441  0.6062
16356SOL     OW59381   6.296  10.264  10.636  0.1520 -0.0914 -0.4079
16356SOL    HW159382   6.245  10.334  10.598 -0.8874 -0.4215  0.3376
16356SOL    HW259383   6.263  10.184  10.595 -0.6010 -0.3956  0.7531
16357SOL     OW59384  10.953   3.800   2.919 -0.2180  0.2559 -0.1526
16357SOL    HW159385  10.980   3.740   2.849  2.1065 -0.7899  1.5288
16357SOL    HW259386  10.867   3.768   2.945  1.1911 -2.9809  1.1534
16358SOL     OW59387  11.690   5.239   3.012 -0.5370 -0.0555 -0.0203
16358SOL    HW159388  11.629   5.194   3.070 -0.2959 -0.0069  0.2726
16358SOL    HW259389  11.691   5.185   2.933 -0.9468 -0.0632 -0.0254
16359SOL     OW59390  11.595  10.347  11.291 -0.0977  0.2313  0.1054
16359SOL    HW159391  11.643  10.354  11.373 -1.8979 -0.5680  1.2986
16359SOL    HW259392  11.514  10.396  11.307 -0.3016  0.4194 -1.3567
16360SOL     OW59393   4.530   9.187  12.264 -0.0166  0.0846 -0.2638
16360SOL    HW159394   4.472   9.139  12.205  0.6706 -0.1821 -0.7436
16360SOL    HW259395   4.570   9.254  12.209 -1.6246  1.8371  0.5934
16361SOL     OW59396   0.498   4.481   0.973 -0.3046 -0.5395  0.4868
16361SOL    HW159397   0.433   4.423   1.012  0.0736 -1.4991 -0.2552
16361SOL    HW259398   0.582   4.446   1.002 -0.0797 -0.0879  0.3964
16362SOL     OW59399   4.288   2.533   2.149  0.1375 -0.1953  0.4648
16362SOL    HW159400   4.271   2.451   2.195  0.9763  0.3523  1.8146
16362SOL    HW259401   4.381   2.549   2.163 -0.4617  2.2523  2.4932
16363SOL     OW59402   4.233  10.769   4.847  0.4089  0.4524 -0.3257
16363SOL    HW159403   4.151  10.734   4.813 -0.0252  1.3992 -0.2790
16363SOL    HW259404   4.253  10.843   4.790  1.0913  0.3897 -0.1733
16364SOL     OW59405   2.970   9.448  11.974  0.1310  0.7964  0.3799
16364SOL    HW159406   3.056   9.466  12.012  0.1283  0.8956  0.3407
16364SOL    HW259407   2.987   9.440  11.880  0.2790 -0.3258  0.4849
16365SOL     OW59408   4.607  11.540   3.177 -0.0156 -0.3185  0.1554
16365SOL    HW159409   4.680  11.599   3.154 -0.4542  0.4484  0.6707
16365SOL    HW259410   4.582  11.568   3.265  1.3795 -2.9107  1.5085
16366SOL     OW59411  10.192   9.439   6.896 -0.2816 -0.4872 -0.8534
16366SOL    HW159412  10.228   9.409   6.812  0.2424 -1.9960 -0.1241
16366SOL    HW259413  10.101   9.407   6.895 -1.0069  1.4274 -1.7541
16367SOL     OW59414   2.891   1.165   4.480  0.1422 -0.2766  0.6290
16367SOL    HW159415   2.833   1.112   4.426 -1.6750  1.4521  0.7665
16367SOL    HW259416   2.891   1.121   4.565  1.1948 -1.7398 -0.0909
16368SOL     OW59417  11.339   9.428   2.170 -0.2441  0.5455  0.1062
16368SOL    HW159418  11.273   9.384   2.115 -1.5259  1.4800  0.8407
16368SOL    HW259419  11.413   9.444   2.111 -1.5916  1.5655 -1.3883
16369SOL     OW59420   6.361   2.094   8.096  0.5292  0.4082  0.0805
16369SOL    HW159421   6.308   2.100   8.175 -0.1237  0.8712 -0.3834
16369SOL    HW259422   6.357   2.002   8.071 -0.7292  0.5793 -0.3936
16370SOL     OW59423   9.289  12.833   2.763  0.1342  0.2766 -0.0425
16370SOL    HW159424   9.352  12.774   2.804 -0.5414  0.2743  1.0081
16370SOL    HW259425   9.212  12.779   2.747  0.2724  0.3531 -1.0652
16371SOL     OW59426  10.163   1.288   0.131 -0.5079  0.2064 -0.1310
16371SOL    HW159427  10.229   1.352   0.108 -0.2276 -0.2931 -0.7332
16371SOL    HW259428  10.203   1.235   0.199 -0.1509 -0.3185 -0.7441
16372SOL     OW59429   1.561  10.395  10.149  0.4917  0.0605 -0.3619
16372SOL    HW159430   1.633  10.398  10.086  1.0197  0.5024  0.2464
16372SOL    HW259431   1.578  10.317  10.202  2.3167  1.7966  1.8066
16373SOL     OW59432  11.477  11.573   6.251  0.4477  0.0599 -0.2917
16373SOL    HW159433  11.471  11.667   6.234  0.0220  0.1342  0.2224
16373SOL    HW259434  11.539  11.540   6.186  1.5967  0.9014  0.3436
16374SOL     OW59435   3.586   5.525   8.714 -0.3714  0.1850 -0.1915
16374SOL    HW159436   3.644   5.597   8.687 -0.8323  0.4207 -0.5872
16374SOL    HW259437   3.502   5.568   8.731 -1.0911 -0.4368 -1.9297
16375SOL     OW59438  12.412   8.795   7.212  0.1227 -0.0147 -0.1512
16375SOL    HW159439  12.457   8.877   7.194 -1.5858  0.9113 -0.4731
16375SOL    HW259440  12.473   8.727   7.185  1.2409  1.1717 -0.6926
16376SOL     OW59441   1.404  12.515   8.138 -0.3164 -0.1160  0.6265
16376SOL    HW159442   1.311  12.515   8.162 -0.8260  3.8199 -0.6053
16376SOL    HW259443   1.405  12.510   8.042  0.9093 -1.8520  0.6781
16377SOL     OW59444  12.184  10.716   1.146  0.7971 -0.3161 -0.5430
16377SOL    HW159445  12.131  10.674   1.078  0.2003  0.3001 -0.4763
16377SOL    HW259446  12.249  10.767   1.098  0.3175  0.1937 -0.6642
16378SOL     OW59447   5.862  11.540  12.068 -0.3505  0.2889 -0.5099
16378SOL    HW159448   5.896  11.503  12.150  0.5603  1.4645 -0.3146
16378SOL    HW259449   5.933  11.530  12.006 -0.2228  1.2992 -0.5562
16379SOL     OW59450   4.725   7.423   8.440 -0.4236 -0.3134  0.5651
16379SOL    HW159451   4.693   7.438   8.351  0.7824 -1.0029 -0.0144
16379SOL    HW259452   4.777   7.501   8.460  0.5790 -0.8248  0.0402
16380SOL     OW59453   5.596   7.265   4.799  0.0504 -0.2159 -0.0944
16380SOL    HW159454   5.559   7.347   4.831  1.4227  0.3050  0.2064
16380SOL    HW259455   5.567   7.259   4.708 -1.2672 -0.1396  0.3060
16381SOL     OW59456   5.920  10.672   1.302  0.2958  0.5425 -0.0530
16381SOL    HW159457   5.873  10.595   1.333 -1.0980  2.0564  1.8608
16381SOL    HW259458   5.851  10.730   1.269  1.3127  1.0242 -1.4278
16382SOL     OW59459   8.216   4.079   7.911  0.2769  0.1710  0.2861
16382SOL    HW159460   8.286   4.115   7.966 -0.2816  0.3086  0.9204
16382SOL    HW259461   8.199   4.149   7.847  0.4573  0.2906  0.3659
16383SOL     OW59462   9.391  12.305   1.551 -0.4506 -0.3419 -0.0484
16383SOL    HW159463   9.390  12.377   1.614  0.5069  0.5164 -0.9632
16383SOL    HW259464   9.302  12.303   1.515 -1.1516 -1.1602  1.6215
16384SOL     OW59465   3.489   4.033   0.239  0.3586 -0.0218  0.3946
16384SOL    HW159466   3.534   4.109   0.275  0.2717 -0.1905  0.8674
16384SOL    HW259467   3.464   3.981   0.315  0.8560 -0.7761  0.0622
16385SOL     OW59468   1.363   9.677   5.841 -0.1049  0.5611 -0.6170
16385SOL    HW159469   1.440   9.662   5.895 -1.1492  0.6657  0.9544
16385SOL    HW259470   1.326   9.758   5.874 -2.2914 -0.7747  0.4090
16386SOL     OW59471   0.268   6.086   5.604 -0.2731  0.1047  0.2788
16386SOL    HW159472   0.324   6.084   5.526 -0.4278  0.6267  0.1469
16386SOL    HW259473   0.256   5.994   5.628  0.5223 -0.0199  0.2252
16387SOL     OW59474  11.091  11.432   7.938  0.2519  0.0326  0.0864
16387SOL    HW159475  11.045  11.515   7.953  0.0048 -0.5966  3.3862
16387SOL    HW259476  11.050  11.397   7.859 -0.5572  2.3901 -0.6402
16388SOL     OW59477   7.518  12.421   3.547 -0.1283 -0.2053  0.2601
16388SOL    HW159478   7.598  12.370   3.533 -0.4962 -0.4278 -1.1777
16388SOL    HW259479   7.540  12.481   3.619  1.4489 -0.0134 -0.3456
16389SOL     OW59480  11.198  10.010   5.724  0.8174  0.0417 -0.3458
16389SOL    HW159481  11.121  10.053   5.763  1.3342  0.9187 -0.2744
16389SOL    HW259482  11.191  10.028   5.631  1.2003  0.5547 -0.2777
16390SOL     OW59483   2.559   1.178   0.824  0.3038  0.1196  0.0435
16390SOL    HW159484   2.519   1.118   0.887 -0.4131  0.1543 -0.3638
16390SOL    HW259485   2.597   1.247   0.879  0.3314 -0.2271  0.4714
16391SOL     OW59486  10.392   6.782   5.910  0.2814  0.1648 -0.1907
16391SOL    HW159487  10.459   6.728   5.869  0.5970  0.0780  0.4295
16391SOL    HW259488  10.405   6.870   5.873  0.6484  0.1166 -0.1729
16392SOL     OW59489   7.122   3.761   6.660  0.0559 -0.2860  0.0796
16392SOL    HW159490   7.042   3.814   6.667 -0.6301 -1.3485  0.6698
16392SOL    HW259491   7.148   3.746   6.751 -0.2509 -1.6361 -0.0293
16393SOL     OW59492   2.883   4.682   2.169 -0.6747  0.0785  0.0237
16393SOL    HW159493   2.852   4.771   2.153 -0.7162  0.3584  1.4546
16393SOL    HW259494   2.878   4.672   2.264 -2.8495 -2.2247 -0.2164
16394SOL     OW59495   4.012   8.138  11.951  1.0202 -0.1115  0.3334
16394SOL    HW159496   4.103   8.147  11.980  0.7079 -1.7161  2.0205
16394SOL    HW259497   3.960   8.148  12.031 -0.3262  0.7725 -0.5895
16395SOL     OW59498   0.344  12.160  12.940  0.6098 -0.3104 -0.4730
16395SOL    HW159499   0.346  12.140  12.847  1.6504 -2.1904 -0.1005
16395SOL    HW259500   0.251  12.164  12.962  0.3540 -1.3946 -1.3013
16396SOL     OW59501   1.148   7.272   8.181 -0.0594  0.1186  0.4385
16396SOL    HW159502   1.197   7.235   8.107 -0.1420 -0.9236  0.8890
16396SOL    HW259503   1.069   7.220   8.185  1.3207 -2.0035  3.1982
16397SOL     OW59504  12.415  10.666   9.260 -0.7644  0.8043  0.1086
16397SOL    HW159505  12.334  10.681   9.308 -2.1005  0.7558 -1.9696
16397SOL    HW259506  12.419  10.739   9.198 -0.2783 -0.2317 -1.1176
16398SOL     OW59507   8.962   1.734   7.635  0.2070 -0.5596 -0.1716
16398SOL    HW159508   8.958   1.640   7.624 -2.3280 -0.5360 -0.0584
16398SOL    HW259509   8.982   1.747   7.728 -2.0342 -1.0758  0.4345
16399SOL     OW59510   9.035   0.665   9.337  0.7469 -0.0825 -0.4505
16399SOL    HW159511   9.112   0.637   9.287 -0.1989 -1.4026 -1.2441
16399SOL    HW259512   9.069   0.729   9.400  2.3208  0.0806 -1.4092
16400SOL     OW59513  11.765   2.304   7.337  0.2806  0.1229 -0.0265
16400SOL    HW159514  11.820   2.232   7.368  0.3520  0.4872  0.7361
16400SOL    HW259515  11.796   2.323   7.249  2.2893  1.1736  0.8452
16401SOL     OW59516   2.610   3.535   2.789  0.0062 -0.0001  0.5151
16401SOL    HW159517   2.534   3.497   2.835  0.3025 -0.7217  0.4232
16401SOL    HW259518   2.671   3.558   2.859 -0.9578  2.1314  0.7167
16402SOL     OW59519   6.839  10.281   8.430 -0.5027 -0.2060 -0.0622
16402SOL    HW159520   6.783  10.293   8.354 -1.1255  0.9333  0.5610
16402SOL    HW259521   6.822  10.357   8.485  0.3617 -0.7262  0.9571
16403SOL     OW59522   7.923   2.529   1.518  0.3261  0.1615 -0.1492
16403SOL    HW159523   7.982   2.600   1.497  0.3786  0.3540  0.6216
16403SOL    HW259524   7.861   2.527   1.445 -0.5643  1.9519  0.5052
16404SOL     OW59525  10.116   6.628  10.063  0.1193 -0.8627 -0.4095
16404SOL    HW159526  10.113   6.627   9.967 -1.2733  0.4896 -0.4213
16404SOL    HW259527  10.199   6.671  10.084  0.4228 -1.1437 -1.0002
16405SOL     OW59528  10.762   4.192   8.632 -0.9842  0.2577 -0.2622
16405SOL    HW159529  10.845   4.146   8.639 -0.3487  1.3275 -0.4796
16405SOL    HW259530  10.732   4.201   8.722 -0.3644  0.7293 -0.0953
16406SOL     OW59531   8.589   8.686  12.052 -0.1050 -0.2802 -0.2368
16406SOL    HW159532   8.501   8.666  12.022 -0.2902 -1.3140  0.9575
16406SOL    HW259533   8.578   8.758  12.114  0.2468  1.6392 -2.2580
16407SOL     OW59534  11.654   4.669   1.518 -0.8404  0.8550 -0.0818
16407SOL    HW159535  11.631   4.672   1.611 -0.3588 -0.1568  0.0916
16407SOL    HW259536  11.722   4.735   1.508 -2.3967  2.5106 -0.2007
16408SOL     OW59537   0.040   1.409  11.206 -0.0570 -0.9840  0.1226
16408SOL    HW159538   0.008   1.370  11.124 -2.3428  1.3426 -0.2295
16408SOL    HW259539  -0.027   1.386  11.271 -0.5406  0.7606  0.2905
16409SOL     OW59540   0.523   4.246  10.194  0.5043  0.4305  0.1804
16409SOL    HW159541   0.490   4.315  10.250 -0.5604 -1.1154  1.5474
16409SOL    HW259542   0.574   4.189  10.252  1.4573  0.1138 -0.9218
16410SOL     OW59543   0.103   9.272   4.598  0.4616  0.2887 -0.0005
16410SOL    HW159544   0.160   9.281   4.521  1.7845 -0.5250  0.8540
16410SOL    HW259545   0.139   9.198   4.646 -1.2374 -0.1430  0.6719
16411SOL     OW59546   5.142   6.633   2.116  0.5029  0.0875 -0.3937
16411SOL    HW159547   5.176   6.585   2.191  0.7979 -0.5346 -0.9059
16411SOL    HW259548   5.119   6.719   2.150  0.8640 -0.1032  0.3510
16412SOL     OW59549  11.255   3.170  12.808  0.7578  0.0182  0.6929
16412SOL    HW159550  11.336   3.218  12.791  1.3010 -1.3710 -0.9409
16412SOL    HW259551  11.283   3.080  12.825 -0.3270 -0.0624  2.2763
16413SOL     OW59552   8.050  12.564  12.117  0.1695  0.0427  0.1418
16413SOL    HW159553   8.007  12.498  12.062 -1.7096  0.2013  1.3189
16413SOL    HW259554   7.989  12.637  12.118  0.4600  0.3100  1.8464
16414SOL     OW59555   3.853   9.447   5.585  0.1649 -0.2822  0.3009
16414SOL    HW159556   3.935   9.494   5.570 -0.0229 -0.2909 -0.7687
16414SOL    HW259557   3.881   9.360   5.615  0.5656 -0.4255 -0.4548
16415SOL     OW59558  12.907  10.403   5.732  0.1127 -0.0532 -0.1017
16415SOL    HW159559  12.850  10.347   5.784  0.8749 -0.1759  0.6309
16415SOL    HW259560  12.864  10.488   5.732  0.2288  0.0194  0.9735
16416SOL     OW59561   0.150  10.497   8.962 -0.4613  0.0131 -0.3522
16416SOL    HW159562   0.055  10.494   8.952 -0.3425 -0.4343 -1.4980
16416SOL    HW259563   0.182  10.525   8.876  0.4127  0.7179  0.1905
16417SOL     OW59564   3.655   2.701   1.084  0.2022 -0.0413 -0.1169
16417SOL    HW159565   3.643   2.709   0.990 -0.0898 -0.1968 -0.0913
16417SOL    HW259566   3.750   2.713   1.097  0.2511 -0.0835 -0.4333
16418SOL     OW59567   3.634   0.722   3.199 -0.3314  0.7428 -0.5134
16418SOL    HW159568   3.658   0.793   3.258 -0.5841  0.6162 -0.2580
16418SOL    HW259569   3.701   0.655   3.215 -1.7586 -0.3448  1.4777
16419SOL     OW59570   1.263   0.914   3.830  0.2576  0.4057 -0.5562
16419SOL    HW159571   1.269   0.858   3.753  0.5251  0.2728 -0.4394
16419SOL    HW259572   1.354   0.936   3.851  0.6483 -2.9806  2.2242
16420SOL     OW59573   9.400   1.224   5.881 -0.5894  0.4698  0.0179
16420SOL    HW159574   9.418   1.139   5.842 -0.8669 -0.1747  1.2465
16420SOL    HW259575   9.447   1.286   5.826 -0.1091 -0.5063 -0.7024
16421SOL     OW59576   0.321   6.216  10.805  0.0378 -0.0167 -0.0774
16421SOL    HW159577   0.384   6.144  10.807 -1.3364 -1.2843 -0.6607
16421SOL    HW259578   0.332   6.256  10.719 -0.1088 -0.3899 -0.2716
16422SOL     OW59579   9.956  11.935   7.023  0.2673 -0.2537  0.4209
16422SOL    HW159580  10.042  11.937   7.064 -0.3594  1.2321  1.7857
16422SOL    HW259581   9.931  12.027   7.015 -1.5707 -0.6650  0.9207
16423SOL     OW59582  10.174   8.134   5.350 -0.4454  0.4844 -0.1083
16423SOL    HW159583  10.257   8.137   5.303 -0.5123 -0.2540 -0.2764
16423SOL    HW259584  10.141   8.046   5.335 -1.6851  1.0330 -0.7803
16424SOL     OW59585   6.912   1.051   5.004  0.3429  0.3427  0.1059
16424SOL    HW159586   6.816   1.041   5.003  0.2693  1.0680 -0.2327
16424SOL    HW259587   6.934   1.079   4.916  0.6927  1.7795  0.6289
16425SOL     OW59588   7.626  12.067   9.355  0.5074 -0.0271 -0.0496
16425SOL    HW159589   7.615  11.975   9.380 -0.5735  0.5134  1.6843
16425SOL    HW259590   7.543  12.090   9.314  0.1579  0.5776  0.9729
16426SOL     OW59591   9.820   1.018   3.322 -0.1632 -0.1829  0.0212
16426SOL    HW159592   9.867   1.041   3.242  0.8810  1.1815  0.9817
16426SOL    HW259593   9.879   1.043   3.393 -1.2609 -0.9073  1.2418
16427SOL     OW59594  12.817   4.161  10.691  0.5515 -0.7361  0.0690
16427SOL    HW159595  12.735   4.127  10.654  0.1051 -0.6413  0.9440
16427SOL    HW259596  12.869   4.082  10.708  0.9375 -0.7607 -1.1160
16428SOL     OW59597   5.448   1.276   8.921 -0.1436  0.5584 -0.1041
16428SOL    HW159598   5.383   1.247   8.857  0.2050 -0.5090  0.0028
16428SOL    HW259599   5.401   1.278   9.004  0.1432 -1.0744  0.1314
16429SOL     OW59600  10.929   2.417   8.291  0.0606  0.0556 -0.5204
16429SOL    HW159601  10.924   2.484   8.360  1.2029 -0.3901  0.0388
16429SOL    HW259602  10.983   2.348   8.330 -1.1976 -1.2630 -1.0373
16430SOL     OW59603   3.335   6.499   1.568  0.7039  0.1166 -0.2050
16430SOL    HW159604   3.257   6.501   1.512  1.0590 -0.6345 -0.7507
16430SOL    HW259605   3.408   6.513   1.507  0.9206  3.2054  0.5791
16431SOL     OW59606   4.173   6.877   8.746 -0.2357 -0.0758  1.0125
16431SOL    HW159607   4.184   6.954   8.803 -0.9329  0.6344  0.2177
16431SOL    HW259608   4.198   6.908   8.659 -0.0309 -0.9003  0.7713
16432SOL     OW59609   0.297   4.568   7.173  0.8133  0.1301  0.0678
16432SOL    HW159610   0.258   4.533   7.253 -1.1707  1.7357 -0.1203
16432SOL    HW259611   0.226   4.616   7.131  1.2197 -2.0486 -3.5801
16433SOL     OW59612  11.352   7.223  12.225  0.0489  0.1414  0.2525
16433SOL    HW159613  11.267   7.250  12.190 -0.1819 -1.1447 -0.2007
16433SOL    HW259614  11.334   7.203  12.317 -0.5698 -1.9265 -0.2772
16434SOL     OW59615   7.515   3.474   3.478  0.8478  0.2507  0.0510
16434SOL    HW159616   7.532   3.468   3.572  0.5935 -3.3321  0.0089
16434SOL    HW259617   7.429   3.515   3.472 -0.4270 -1.9587  1.6373
16435SOL     OW59618   7.051   8.524   8.382  0.6790  0.0027  0.0020
16435SOL    HW159619   7.024   8.535   8.473  1.6156  0.4313  0.2300
16435SOL    HW259620   7.130   8.470   8.386  0.5098 -0.2994 -0.5839
16436SOL     OW59621   6.254   3.250  12.810 -0.3372 -0.1454  0.1148
16436SOL    HW159622   6.246   3.307  12.886  0.1234 -0.0394  0.0850
16436SOL    HW259623   6.212   3.298  12.739  0.6026  0.4485 -0.0615
16437SOL     OW59624  11.976   7.539   7.879 -0.0336 -0.4885 -0.0196
16437SOL    HW159625  11.963   7.540   7.784 -0.7907  1.2539  0.0636
16437SOL    HW259626  12.042   7.472   7.893  0.3460 -0.5485 -1.8137
16438SOL     OW59627   4.726   4.411   1.321  0.3512  0.0548 -0.5048
16438SOL    HW159628   4.631   4.417   1.327  0.3370  1.7711 -1.6289
16438SOL    HW259629   4.755   4.398   1.411 -0.8538  1.7651  0.1856
16439SOL     OW59630  11.914   9.935  11.427 -0.0961 -0.3533  0.6129
16439SOL    HW159631  11.935   9.901  11.341 -0.9382  0.6237 -0.0068
16439SOL    HW259632  11.832   9.891  11.451  0.6767 -1.4051  1.3913
16440SOL     OW59633   3.962   6.505   5.364  0.4544  0.2271  0.3406
16440SOL    HW159634   3.986   6.598   5.359 -1.4101  0.7265  0.0621
16440SOL    HW259635   3.911   6.489   5.285  0.3612 -0.9300  0.6182
16441SOL     OW59636   8.697   6.463   4.435 -0.0600 -0.5300 -0.0699
16441SOL    HW159637   8.700   6.489   4.343 -0.4696 -0.6057 -0.1044
16441SOL    HW259638   8.773   6.506   4.474  1.1609 -1.9239 -0.8135
16442SOL     OW59639  12.146   6.336  12.334  0.5159 -0.1113 -0.2444
16442SOL    HW159640  12.181   6.417  12.296  1.5333 -0.5597 -0.2958
16442SOL    HW259641  12.220   6.275  12.331 -0.3955 -1.2152 -0.7174
16443SOL     OW59642   2.051   3.954   6.668 -0.3816 -0.4981 -0.3851
16443SOL    HW159643   1.986   3.897   6.628 -1.8978  1.7251 -1.3377
16443SOL    HW259644   2.036   3.946   6.762 -0.3092 -1.8982 -0.4765
16444SOL     OW59645   4.988  11.548   7.756 -0.0391  0.0431  0.5320
16444SOL    HW159646   5.044  11.475   7.728  0.0908  0.2095  0.3580
16444SOL    HW259647   4.987  11.542   7.852  0.1597 -0.0467  0.5291
16445SOL     OW59648   2.721   4.458   8.502  0.2195  0.4454  0.2286
16445SOL    HW159649   2.751   4.391   8.564  0.6852 -0.2704 -0.7549
16445SOL    HW259650   2.748   4.426   8.416 -4.0543 -0.7183 -0.9185
16446SOL     OW59651   4.123  12.216  11.083  0.1455 -0.4138  0.1421
16446SOL    HW159652   4.181  12.266  11.026 -0.4572  0.8346  0.5905
16446SOL    HW259653   4.069  12.164  11.023 -0.2637  0.6377 -0.4231
16447SOL     OW59654   3.359  12.939   4.347  0.7444  0.5177  0.1372
16447SOL    HW159655   3.293  12.889   4.394  0.7004  0.0457 -0.4211
16447SOL    HW259656   3.335  12.932   4.255  2.1803 -0.6201 -0.1970
16448SOL     OW59657   4.449   5.971   9.168  0.1850  0.0799  0.0360
16448SOL    HW159658   4.524   5.939   9.117 -0.3719 -1.4517  0.1406
16448SOL    HW259659   4.417   6.046   9.118 -0.2888 -1.3031 -1.8917
16449SOL     OW59660   3.561   4.648   3.561 -0.2605 -0.2257  0.0732
16449SOL    HW159661   3.644   4.690   3.580 -0.1363 -0.5548  0.2781
16449SOL    HW259662   3.577   4.555   3.576  0.7267 -1.0275 -4.4196
16450SOL     OW59663   5.144   6.338   2.583 -0.2924  0.0531  0.1619
16450SOL    HW159664   5.135   6.270   2.650  1.0058  0.0462  0.3609
16450SOL    HW259665   5.078   6.403   2.606  1.0354  0.7408  2.3406
16451SOL     OW59666   5.443   6.948   0.213 -0.5428  0.2768  0.1655
16451SOL    HW159667   5.538   6.942   0.221 -0.5982 -0.7379  0.2389
16451SOL    HW259668   5.411   6.950   0.303 -0.5940  0.5391  0.1413
16452SOL     OW59669  12.079   0.718   3.291  0.4607 -0.2259  0.0164
16452SOL    HW159670  12.003   0.775   3.304  1.3806  0.8475  0.8594
16452SOL    HW259671  12.077   0.657   3.365  0.2680 -0.3903 -0.1218
16453SOL     OW59672   6.920  12.611   2.688 -0.0314 -0.2662 -0.1586
16453SOL    HW159673   6.881  12.525   2.670 -1.5561  0.3881 -0.1406
16453SOL    HW259674   6.944  12.607   2.781 -1.0440 -0.3462  0.1174
16454SOL     OW59675  11.322   0.780   6.060  0.6130  0.6193  0.7921
16454SOL    HW159676  11.377   0.763   5.984 -0.2144  1.9566 -0.1493
16454SOL    HW259677  11.288   0.868   6.046 -0.1885  0.5872  2.3265
16455SOL     OW59678  11.493   4.342   0.229  0.1234  0.2323  0.4726
16455SOL    HW159679  11.483   4.425   0.275 -2.6371  0.5043 -0.4007
16455SOL    HW259680  11.451   4.278   0.286  1.5224 -0.4642  0.7661
16456SOL     OW59681   5.604   7.754  10.322  0.4986 -0.3148 -0.4534
16456SOL    HW159682   5.580   7.828  10.265 -1.2243 -0.9766 -0.6336
16456SOL    HW259683   5.571   7.677  10.277  0.4498 -1.0029  0.7217
16457SOL     OW59684  12.360  10.299   9.609 -0.2216 -0.2309  0.2341
16457SOL    HW159685  12.389  10.390   9.608 -1.3372  0.1560 -1.3488
16457SOL    HW259686  12.425  10.253   9.557  1.3942 -0.7627  2.5718
16458SOL     OW59687   6.922   2.423   0.670  0.4517 -0.1936  0.4962
16458SOL    HW159688   6.847   2.410   0.728 -0.8232  3.7915  0.0430
16458SOL    HW259689   6.884   2.429   0.583  1.3866  0.9585  0.1447
16459SOL     OW59690   8.091  11.279   8.046  0.4296  0.3626 -0.7622
16459SOL    HW159691   8.165  11.234   8.086  0.2960  0.4516 -0.4144
16459SOL    HW259692   8.077  11.356   8.101 -1.7455 -1.1006  0.9343
16460SOL     OW59693   3.505   1.690   8.584  0.3826  0.1549  0.2087
16460SOL    HW159694   3.411   1.685   8.563  0.1090 -0.9899  1.5516
16460SOL    HW259695   3.548   1.683   8.499 -0.7162 -2.1518 -0.2392
16461SOL     OW59696  12.575   7.389   1.184 -0.0853  0.3218  0.6029
16461SOL    HW159697  12.538   7.475   1.202 -0.7267  0.2817 -0.4430
16461SOL    HW259698  12.500   7.331   1.175  0.3389 -0.3401  1.2434
16462SOL     OW59699   1.837   9.433   0.714  0.3688 -0.2398  0.0005
16462SOL    HW159700   1.852   9.527   0.699  1.3201 -0.1439  1.3421
16462SOL    HW259701   1.760   9.430   0.771  1.2492 -0.1414  1.2552
16463SOL     OW59702  10.217   1.245  11.060  0.0328  0.0335  0.4720
16463SOL    HW159703  10.213   1.151  11.041 -1.0404  0.5993 -2.8848
16463SOL    HW259704  10.305   1.272  11.033 -0.2644  0.2477 -0.3192
16464SOL     OW59705   5.093   1.057   2.645 -0.8019  0.1382  0.0617
16464SOL    HW159706   5.130   1.051   2.733  1.6611  0.7349 -0.8756
16464SOL    HW259707   5.076   0.966   2.620  2.8646 -0.5342 -0.5167
16465SOL     OW59708   0.718   3.610   4.433  0.0213  0.5601  0.4523
16465SOL    HW159709   0.643   3.656   4.471 -0.1663  1.8192 -1.3365
16465SOL    HW259710   0.737   3.657   4.352 -0.0323 -2.3683 -1.4069
16466SOL     OW59711   6.273   0.357  10.074  0.5867 -0.0949 -0.0702
16466SOL    HW159712   6.329   0.318  10.140 -0.2552  0.7334  1.1855
16466SOL    HW259713   6.186   0.322  10.092  0.3891 -0.0809 -0.9254
16467SOL     OW59714   7.193   4.207   5.544  0.1818 -0.3933  0.0326
16467SOL    HW159715   7.264   4.181   5.602 -0.4136 -0.8815  0.5534
16467SOL    HW259716   7.115   4.206   5.599 -0.4792 -1.3929 -0.8848
16468SOL     OW59717   9.909   9.841   1.238 -0.0478 -0.3543  0.1328
16468SOL    HW159718  10.004   9.852   1.230 -0.0130 -0.8857 -0.2562
16468SOL    HW259719   9.894   9.827   1.331  0.6835 -3.6991 -0.1137
16469SOL     OW59720  12.652   1.241   7.296 -0.2848  0.4866 -0.0772
16469SOL    HW159721  12.715   1.232   7.367  0.5768  0.0800 -0.8834
16469SOL    HW259722  12.687   1.188   7.225 -2.6056 -1.5887  0.1646
16470SOL     OW59723   1.228  10.194   0.746  0.1635 -0.5418 -0.2271
16470SOL    HW159724   1.175  10.114   0.748  0.1050 -0.5887  3.1610
16470SOL    HW259725   1.190  10.249   0.814  0.7988  2.0338 -1.8204
16471SOL     OW59726   1.961   8.574   0.253 -0.0991 -0.0702  0.1480
16471SOL    HW159727   1.930   8.615   0.172 -0.4494  0.6228  0.6182
16471SOL    HW259728   2.033   8.629   0.282  0.4027 -0.6460  0.0134
16472SOL     OW59729  10.653   9.525  12.810  0.1541  0.3979  0.1008
16472SOL    HW159730  10.704   9.453  12.772  1.0487  0.6658  0.7611
16472SOL    HW259731  10.584   9.541  12.746  0.1725 -0.7865 -0.2405
16473SOL     OW59732   0.658  10.196   6.951  0.2577 -0.2045 -0.0655
16473SOL    HW159733   0.633  10.260   6.884 -0.3651 -1.6414 -1.2776
16473SOL    HW259734   0.578  10.182   7.001  0.5337  0.3422  0.5345
16474SOL     OW59735   3.722   6.301   7.839  0.4178 -0.2684  0.3980
16474SOL    HW159736   3.655   6.369   7.838  1.1511  0.4594 -0.3282
16474SOL    HW259737   3.674   6.219   7.823 -0.0387  0.4933 -2.7871
16475SOL     OW59738   0.249   0.798   0.384  0.2827  0.3600  0.3737
16475SOL    HW159739   0.215   0.804   0.295 -0.3517  0.0038  0.5824
16475SOL    HW259740   0.264   0.705   0.399 -2.6359 -0.0192  1.6887
16476SOL     OW59741   0.876   5.989   2.395 -0.2051 -0.5483  0.5487
16476SOL    HW159742   0.966   6.020   2.379 -1.1380  1.8918 -0.4876
16476SOL    HW259743   0.865   5.917   2.333  0.4259  0.4535 -0.8071
16477SOL     OW59744  12.281   1.113   6.910  0.3300 -0.2551  0.0946
16477SOL    HW159745  12.196   1.086   6.876 -0.0952  2.6759 -1.4256
16477SOL    HW259746  12.344   1.062   6.858 -0.4543 -0.1850 -0.9670
16478SOL     OW59747   3.111   3.683   2.296  0.1347  0.1730  0.0885
16478SOL    HW159748   3.200   3.704   2.323  0.3882  0.0462 -0.6206
16478SOL    HW259749   3.061   3.681   2.377  0.9604 -0.6524  0.6008
16479SOL     OW59750  10.727   2.077   6.449  0.1727  0.6251  0.7836
16479SOL    HW159751  10.744   2.168   6.475  1.3881  1.0628 -1.2834
16479SOL    HW259752  10.813   2.034   6.454  0.2839  0.4826 -1.3065
16480SOL     OW59753   4.413   1.435  12.524  0.0394 -0.5070 -0.1975
16480SOL    HW159754   4.492   1.414  12.575 -0.2248 -1.4522 -0.1594
16480SOL    HW259755   4.407   1.530  12.528  0.4914 -0.5040  0.8542
16481SOL     OW59756  11.117   6.223  10.066 -0.1807 -0.0813  0.1259
16481SOL    HW159757  11.181   6.295  10.070 -0.3534  0.0251  2.5831
16481SOL    HW259758  11.150   6.159  10.129 -0.2878 -2.0014 -1.6909
16482SOL     OW59759  12.330   5.590   4.677  0.0242 -0.2815 -0.0999
16482SOL    HW159760  12.312   5.565   4.768 -1.6142 -2.2035 -0.8735
16482SOL    HW259761  12.382   5.518   4.641 -0.2363 -0.0566 -0.9618
16483SOL     OW59762   4.306   9.317   0.213 -0.8976  0.1629  0.1905
16483SOL    HW159763   4.263   9.277   0.137 -0.9632 -0.1117  0.3696
16483SOL    HW259764   4.367   9.250   0.244  2.0006  1.6229 -1.9273
16484SOL     OW59765  12.374   7.724  11.525  0.0095  0.2215 -0.1676
16484SOL    HW159766  12.305   7.766  11.473  0.3616  0.5888 -0.3435
16484SOL    HW259767  12.327   7.669  11.588 -0.4676  0.8566  0.0436
16485SOL     OW59768   0.636   3.709   7.866  0.1254 -0.5534 -0.0379
16485SOL    HW159769   0.599   3.797   7.877 -0.6611 -0.7068 -1.1867
16485SOL    HW259770   0.730   3.721   7.869  0.0457  0.4822 -1.0515
16486SOL     OW59771  12.224   6.648   6.380 -0.1045 -0.4166 -0.3179
16486SOL    HW159772  12.166   6.683   6.448 -1.8421 -1.8727 -0.9851
16486SOL    HW259773  12.197   6.694   6.300 -0.5858 -1.3316 -0.6925
16487SOL     OW59774  12.585   0.831   2.592  0.4236  0.2737 -0.3768
16487SOL    HW159775  12.635   0.835   2.511  1.9127 -0.0673  0.4908
16487SOL    HW259776  12.605   0.744   2.628 -0.5326  0.2648  0.1651
16488SOL     OW59777  10.405  11.847  12.187 -0.3453 -0.0562 -0.2739
16488SOL    HW159778  10.326  11.848  12.133  0.6811  3.1262 -1.9846
16488SOL    HW259779  10.477  11.854  12.125  1.2229 -0.8874  1.3510
16489SOL     OW59780   0.645   9.805  11.912  0.0365 -0.0061 -0.1051
16489SOL    HW159781   0.714   9.744  11.935 -0.2650 -0.2573  0.1439
16489SOL    HW259782   0.633   9.793  11.818  1.6549  1.4242 -0.5316
16490SOL     OW59783   1.101  11.479   1.856  0.4282  0.0142 -0.1936
16490SOL    HW159784   1.148  11.559   1.833 -0.8525  0.7827 -0.2494
16490SOL    HW259785   1.038  11.466   1.785 -1.4886  0.7119  1.2695
16491SOL     OW59786   6.442  11.685  10.824 -0.0252  0.2507  0.5857
16491SOL    HW159787   6.377  11.714  10.887 -1.0568  0.5725 -0.5744
16491SOL    HW259788   6.400  11.697  10.739  0.3567 -2.4564 -0.1013
16492SOL     OW59789   4.562   8.091   6.263 -0.0126 -0.4474  0.0509
16492SOL    HW159790   4.643   8.068   6.308 -0.9947 -0.5036  1.8709
16492SOL    HW259791   4.512   8.142   6.327 -0.9009  0.6815 -1.4648
16493SOL     OW59792   5.378  10.105   0.952  0.0451  0.3141  0.3258
16493SOL    HW159793   5.301  10.075   0.904  0.3398  0.5663 -0.3367
16493SOL    HW259794   5.372  10.201   0.949 -1.8478  0.4456  3.9922
16494SOL     OW59795   7.455   0.009  10.033 -0.0867 -0.1484  0.3196
16494SOL    HW159796   7.513   0.072   9.991 -0.0689 -0.3010  0.1155
16494SOL    HW259797   7.443   0.042  10.122 -0.9567  0.7420 -0.1076
16495SOL     OW59798   3.888   0.275   1.116 -0.3284  0.1447  0.2899
16495SOL    HW159799   3.826   0.232   1.058  1.2053 -0.8439 -0.6803
16495SOL    HW259800   3.929   0.204   1.165 -0.8393  0.8875  1.8619
16496SOL     OW59801   3.699  12.464   3.159  0.0465  0.2938  0.0824
16496SOL    HW159802   3.700  12.519   3.238  0.0734  0.5121 -0.0712
16496SOL    HW259803   3.626  12.404   3.173 -0.3522  0.7463 -0.0091
16497SOL     OW59804   4.867   7.150   7.158  0.1455  0.2332 -0.0295
16497SOL    HW159805   4.937   7.098   7.119  0.5782  0.8891 -0.1416
16497SOL    HW259806   4.858   7.116   7.248 -1.0976 -1.5225 -0.7611
16498SOL     OW59807   0.519   8.898   9.188  0.1579  0.2397 -0.2677
16498SOL    HW159808   0.451   8.907   9.255 -0.0990 -1.6698 -0.2218
16498SOL    HW259809   0.474   8.916   9.105  0.1968  1.4021 -0.0565
16499SOL     OW59810  12.465  10.730   7.384 -0.1159  0.5721  0.1137
16499SOL    HW159811  12.425  10.646   7.403  0.9110  0.1076  0.3387
16499SOL    HW259812  12.394  10.793   7.390 -0.7765 -0.2008  0.6020
16500SOL     OW59813   7.175   3.105   2.764 -0.0205 -0.1267  0.0686
16500SOL    HW159814   7.183   3.184   2.712  0.7018 -0.1779  0.0970
16500SOL    HW259815   7.104   3.123   2.825 -1.3637 -0.3230 -1.3832
16501SOL     OW59816   2.882   1.720   0.224 -0.5112 -0.2936  0.4437
16501SOL    HW159817   2.970   1.738   0.257 -0.7026  0.4691  0.5557
16501SOL    HW259818   2.823   1.751   0.294 -0.9419  1.8722 -0.7921
16502SOL     OW59819   7.668  11.958   3.510  0.3927 -0.2172  0.4032
16502SOL    HW159820   7.661  11.917   3.597 -0.8986  1.7810  1.3160
16502SOL    HW259821   7.578  11.966   3.480  0.8811 -2.1939 -1.8700
16503SOL     OW59822   9.085  12.016   7.753  0.6227  0.3894  0.1866
16503SOL    HW159823   9.077  11.986   7.843 -0.0773  0.0658  0.0263
16503SOL    HW259824   9.050  11.943   7.700  1.5848  0.3243 -0.3846
16504SOL     OW59825  10.334   1.635   0.060 -0.3376  0.2342 -0.2391
16504SOL    HW159826  10.361   1.663   0.147 -1.3389  1.9227 -0.4207
16504SOL    HW259827  10.406   1.579   0.029  0.2859  0.0744  1.4280
16505SOL     OW59828   8.585   0.829   2.605 -0.1036  0.6040  0.5686
16505SOL    HW159829   8.598   0.769   2.531 -0.2479  0.6309  0.5208
16505SOL    HW259830   8.499   0.807   2.639  0.6491 -0.5746  1.8079
16506SOL     OW59831   9.870  12.103  11.510  0.3021  0.7800 -0.6506
16506SOL    HW159832   9.780  12.111  11.477 -0.0100  0.4172  0.0914
16506SOL    HW259833   9.917  12.176  11.469 -0.0541  0.3105 -1.9351
16507SOL     OW59834   8.227   2.352   8.983 -0.3464  0.0192 -0.3974
16507SOL    HW159835   8.139   2.343   9.018 -0.6102  0.0329 -1.0438
16507SOL    HW259836   8.222   2.311   8.896  0.2472  0.1449 -0.4933
16508SOL     OW59837  12.678   3.988   4.896  0.0929 -0.1881 -0.2140
16508SOL    HW159838  12.753   3.929   4.898 -0.3181 -0.7319  2.2223
16508SOL    HW259839  12.602   3.930   4.895 -0.2998  0.2569  1.1647
16509SOL     OW59840   2.013  10.461   9.684  0.1372  0.2105 -0.1507
16509SOL    HW159841   1.991  10.376   9.722  4.1149 -1.5770 -1.3673
16509SOL    HW259842   1.966  10.464   9.601  0.3656 -1.0921 -0.3467
16510SOL     OW59843   6.349   8.441   0.673  0.1773  0.1021 -1.1449
16510SOL    HW159844   6.342   8.403   0.585  0.0255 -2.4693 -0.1099
16510SOL    HW259845   6.269   8.411   0.718  1.0485 -0.0512  0.3457
16511SOL     OW59846   0.580   2.004   0.398 -0.1411  0.2037  0.0421
16511SOL    HW159847   0.511   1.938   0.398  0.1090 -0.1020 -1.5423
16511SOL    HW259848   0.651   1.965   0.348  0.5767  1.1314  0.2950
16512SOL     OW59849   3.273   6.418   2.766 -0.4666  0.0694  0.0559
16512SOL    HW159850   3.273   6.471   2.845  2.0948 -1.5330  1.2745
16512SOL    HW259851   3.275   6.481   2.694 -1.1560  1.5701  1.3036
16513SOL     OW59852   3.780  11.615   9.833 -0.1718 -0.6224  0.3292
16513SOL    HW159853   3.796  11.689   9.891 -0.3014 -0.9651  0.8106
16513SOL    HW259854   3.690  11.628   9.801 -0.0496 -0.3579  0.0935
16514SOL     OW59855   3.509   8.734   9.799 -0.2595  0.5727 -0.3187
16514SOL    HW159856   3.425   8.736   9.845  0.0670 -0.0130  0.3262
16514SOL    HW259857   3.511   8.815   9.750 -0.1852  1.7249  1.4913
16515SOL     OW59858   2.288   8.386   7.831 -0.3148  0.0507  0.5296
16515SOL    HW159859   2.380   8.371   7.809 -0.1389 -0.6430  1.6479
16515SOL    HW259860   2.246   8.404   7.747  0.8700  0.5684  0.0209
16516SOL     OW59861   2.808   5.867   7.076 -0.2688 -0.2350  0.2655
16516SOL    HW159862   2.717   5.845   7.096 -0.7193  0.6614 -0.6908
16516SOL    HW259863   2.838   5.798   7.017 -0.0144 -1.0395  1.3133
16517SOL     OW59864   0.254   9.092   2.807  0.0047 -0.2916  0.4733
16517SOL    HW159865   0.288   9.106   2.895  1.1631 -1.6143  0.2722
16517SOL    HW259866   0.170   9.137   2.806  0.4103  0.5509  1.9435
16518SOL     OW59867   9.962  12.586   2.134  0.1142 -0.2356  0.3274
16518SOL    HW159868  10.043  12.537   2.142  1.3848  1.0103 -2.9210
16518SOL    HW259869   9.976  12.665   2.187  2.0165  0.9537 -1.7635
16519SOL     OW59870   4.583   2.416   3.016 -0.1258  0.5797 -0.2868
16519SOL    HW159871   4.655   2.480   3.025 -0.0521  0.2391  2.2439
16519SOL    HW259872   4.623   2.341   2.973  0.2340  1.5394 -1.6903
16520SOL     OW59873  10.484   3.932   9.481 -0.3818 -0.2417 -0.0636
16520SOL    HW159874  10.568   3.948   9.439 -1.3945  1.2136 -1.6952
16520SOL    HW259875  10.506   3.909   9.571  1.7415  0.6804 -0.2858
16521SOL     OW59876   0.855  11.343   6.560 -0.3291  0.2604  0.3124
16521SOL    HW159877   0.874  11.253   6.530  1.3151  0.5697  0.3217
16521SOL    HW259878   0.795  11.331   6.633  0.9766 -0.9675  1.2547
16522SOL     OW59879  10.971   2.166  11.741  0.3211  0.1518  0.2027
16522SOL    HW159880  11.006   2.162  11.830  0.4744 -0.4168  0.1206
16522SOL    HW259881  11.009   2.246  11.704  2.0478 -0.7714 -0.0942
16523SOL     OW59882   5.780   5.650   9.682 -0.2583  0.3988 -0.1132
16523SOL    HW159883   5.716   5.586   9.714  0.5111 -0.4127 -0.1388
16523SOL    HW259884   5.741   5.735   9.701 -0.4603 -0.0573  1.7021
16524SOL     OW59885   9.227  11.577   7.580  0.4914  0.1862 -0.0092
16524SOL    HW159886   9.280  11.635   7.526 -2.2873  0.6746 -2.5074
16524SOL    HW259887   9.270  11.492   7.574  0.6321  0.3773 -2.5790
16525SOL     OW59888   6.177   1.517  10.137  0.0816 -0.2068  0.1351
16525SOL    HW159889   6.118   1.445  10.117 -0.5582  0.6256 -1.1094
16525SOL    HW259890   6.122   1.596  10.127  1.5654  0.6518 -1.9702
16526SOL     OW59891   1.143   7.563  12.548  0.1975 -0.3565 -0.1022
16526SOL    HW159892   1.229   7.600  12.566 -0.7188  0.7102  2.5276
16526SOL    HW259893   1.118   7.600  12.463  2.4405 -1.0181 -1.1115
16527SOL     OW59894   5.425  11.159   4.365 -0.3049  0.4290  0.1303
16527SOL    HW159895   5.361  11.223   4.397  0.2009  1.5571 -1.0290
16527SOL    HW259896   5.372  11.094   4.319 -0.7391  0.5636  0.4230
16528SOL     OW59897   0.223   9.822   8.949 -0.1936 -0.0949  0.2491
16528SOL    HW159898   0.209   9.847   9.040 -0.9452  0.2880  0.0351
16528SOL    HW259899   0.145   9.771   8.926 -0.3760  0.4537 -0.3972
16529SOL     OW59900   3.995  12.589  10.170  0.3218  0.0721  0.3101
16529SOL    HW159901   4.058  12.599  10.242 -1.5942  0.6437  2.0085
16529SOL    HW259902   3.929  12.529  10.205  0.1236 -0.8668 -1.5834
16530SOL     OW59903  12.720   6.641   3.066  0.5730  0.1831  0.1668
16530SOL    HW159904  12.810   6.663   3.088  0.5120  0.2492  0.3551
16530SOL    HW259905  12.702   6.561   3.116  1.6397 -1.8614 -2.5235
16531SOL     OW59906   0.772  11.133   1.329 -1.0965 -0.1533 -0.9526
16531SOL    HW159907   0.844  11.070   1.319  0.2279  1.1369  0.0240
16531SOL    HW259908   0.718  11.097   1.400 -0.3026 -0.1695 -0.3415
16532SOL     OW59909   7.267   1.200   4.640  0.9991 -0.0709  0.0391
16532SOL    HW159910   7.316   1.191   4.558 -0.5020 -2.3513 -0.7177
16532SOL    HW259911   7.208   1.124   4.641  1.2555 -0.4070  3.4460
16533SOL     OW59912   6.421   4.712   2.187  0.1514 -0.3199 -0.0370
16533SOL    HW159913   6.467   4.737   2.267  1.5088 -0.4039 -0.7807
16533SOL    HW259914   6.335   4.753   2.196 -0.3767 -1.6916  2.2527
16534SOL     OW59915   8.930  10.117  10.075 -0.0686  0.4271  0.8833
16534SOL    HW159916   8.854  10.142  10.128 -1.0640  2.2484 -1.2183
16534SOL    HW259917   8.898  10.048  10.017  0.2129  0.3783  0.7833
16535SOL     OW59918  11.672   1.564  10.838 -0.2808 -0.2713 -0.5243
16535SOL    HW159919  11.635   1.601  10.758  0.5495 -0.2424 -0.9096
16535SOL    HW259920  11.734   1.498  10.808  1.1751  0.7877  0.0134
16536SOL     OW59921   9.142  11.112   3.026 -0.2290 -0.0782  0.1357
16536SOL    HW159922   9.194  11.073   2.956 -0.4874 -1.7986  0.8689
16536SOL    HW259923   9.084  11.174   2.980  0.3368 -0.3737 -1.0295
16537SOL     OW59924   1.077  11.083   9.667  0.2800 -0.1490 -0.1922
16537SOL    HW159925   0.986  11.110   9.660  0.3012  0.4026  1.1838
16537SOL    HW259926   1.074  11.003   9.720  0.7125  1.0313  1.7077
16538SOL     OW59927   1.504   4.524   8.316  0.7768 -0.3489 -0.0922
16538SOL    HW159928   1.525   4.617   8.320  1.3794 -0.2907 -2.9879
16538SOL    HW259929   1.410   4.522   8.296  0.7868 -0.3701 -0.1357
16539SOL     OW59930   3.929   9.143   5.989 -0.1328  0.0532 -0.0384
16539SOL    HW159931   3.976   9.169   6.068 -0.2560  1.5380 -0.4330
16539SOL    HW259932   3.890   9.058   6.011  0.1589  0.2628  1.3469
16540SOL     OW59933   0.297  10.837  12.403  0.3042  0.0919 -0.1725
16540SOL    HW159934   0.362  10.827  12.333 -0.7133 -1.8964 -0.9028
16540SOL    HW259935   0.250  10.754  12.405 -1.2403  0.9253  1.3441
16541SOL     OW59936  12.123   4.016  12.267  0.0307 -1.0554 -0.1775
16541SOL    HW159937  12.036   4.037  12.304 -0.7141  0.5832 -2.6304
16541SOL    HW259938  12.148   3.935  12.311 -1.3929 -0.0660  2.7787
16542SOL     OW59939   7.290  12.201  12.241  0.2992  0.0470  0.0893
16542SOL    HW159940   7.351  12.275  12.239 -0.6074  0.7996 -0.8486
16542SOL    HW259941   7.254  12.197  12.153 -2.8492  1.2078  1.1967
16543SOL     OW59942   5.928   0.392   6.008  0.0517  0.0723 -0.1305
16543SOL    HW159943   5.863   0.333   6.047  2.5647 -1.7403  1.5945
16543SOL    HW259944   5.910   0.477   6.048 -1.5925 -0.2365 -0.1415
16544SOL     OW59945   1.171  11.393   8.726 -0.8371 -0.3488 -0.2162
16544SOL    HW159946   1.213  11.371   8.809 -1.4072 -0.5999  0.0109
16544SOL    HW259947   1.103  11.327   8.715 -1.2980  0.1620 -0.4827
16545SOL     OW59948   0.106  10.104   7.844 -0.1212  0.3719  0.3964
16545SOL    HW159949   0.014  10.094   7.820  0.1258 -0.2095 -0.3411
16545SOL    HW259950   0.154  10.059   7.775  0.6936  0.1390  1.0921
16546SOL     OW59951   7.738  10.849   1.815 -0.4321 -0.2286  0.0536
16546SOL    HW159952   7.738  10.868   1.909 -2.1513  2.6676 -0.4027
16546SOL    HW259953   7.716  10.757   1.809  2.1388 -1.1523  2.4942
16547SOL     OW59954   9.899   9.196   1.901 -0.2075 -0.0143  0.5610
16547SOL    HW159955   9.905   9.282   1.860 -4.4024 -0.7226 -2.2174
16547SOL    HW259956   9.959   9.141   1.851  1.1753  0.8403  1.2055
16548SOL     OW59957   5.536   6.221   9.582  0.3193  0.3657 -0.5502
16548SOL    HW159958   5.496   6.151   9.531 -0.6398 -0.8935  1.7555
16548SOL    HW259959   5.629   6.217   9.560  0.0998 -0.8342 -1.3430
16549SOL     OW59960  12.366   6.042   5.373 -0.1858 -0.4690 -0.1046
16549SOL    HW159961  12.407   6.002   5.296 -1.8328 -1.6916 -0.3856
16549SOL    HW259962  12.436   6.093   5.413  1.0318 -0.7708 -1.7431
16550SOL     OW59963   6.152   9.830   5.728 -0.4531 -0.4204 -0.4188
16550SOL    HW159964   6.180   9.759   5.671 -0.4920 -1.2147  0.5184
16550SOL    HW259965   6.191   9.810   5.813 -1.8244 -0.2297  0.2874
16551SOL     OW59966  11.428   2.589   2.467 -0.1643 -0.0465  0.9420
16551SOL    HW159967  11.418   2.677   2.430  1.6531  0.9375  2.6101
16551SOL    HW259968  11.462   2.537   2.395 -2.2036  0.3019 -0.3641
16552SOL     OW59969  11.811   2.435   3.714  0.0452 -0.0197 -0.0502
16552SOL    HW159970  11.901   2.430   3.745 -0.2234 -0.5359  0.6636
16552SOL    HW259971  11.815   2.401   3.624 -0.0500 -4.1116  1.2889
16553SOL     OW59972   5.022   0.488   1.884 -0.1010  0.5015  0.2729
16553SOL    HW159973   4.973   0.421   1.933 -1.5153  1.4456  0.2209
16553SOL    HW259974   5.073   0.438   1.820  0.4478 -0.6456  1.5421
16554SOL     OW59975   5.400   0.224  10.135  0.0912  0.4227 -0.2256
16554SOL    HW159976   5.433   0.178  10.057 -1.2635  1.5068 -1.4940
16554SOL    HW259977   5.478   0.257  10.178  1.1573 -2.9241  0.7373
16555SOL     OW59978  11.178   5.777  12.846  0.6716 -0.2285 -0.8763
16555SOL    HW159979  11.118   5.782  12.921  3.0122  0.9358  1.0473
16555SOL    HW259980  11.154   5.852  12.792  1.2210  1.0384  0.5788
16556SOL     OW59981  12.701   5.385   3.244  0.3541  0.5029 -0.4062
16556SOL    HW159982  12.779   5.329   3.246  0.3554  0.5055  1.4663
16556SOL    HW259983  12.733   5.471   3.274 -0.2449  0.6604 -0.2115
16557SOL     OW59984   5.310   7.387   7.084 -0.0382 -0.0426 -0.3500
16557SOL    HW159985   5.343   7.313   7.033  0.7270 -1.0278  1.4740
16557SOL    HW259986   5.217   7.369   7.096  0.1537 -0.7343  0.1136
16558SOL     OW59987  12.037   5.629   2.036  0.5180 -0.4880 -0.6117
16558SOL    HW159988  11.973   5.572   2.079 -0.7624  0.0883 -1.7004
16558SOL    HW259989  12.084   5.572   1.975  1.0641 -0.9085  0.1813
16559SOL     OW59990  11.951  11.368  12.044 -0.4553 -0.0403 -0.4045
16559SOL    HW159991  11.862  11.379  12.078 -0.5034 -2.1944  0.3553
16559SOL    HW259992  11.939  11.330  11.957 -0.3362 -1.9144  0.3465
16560SOL     OW59993   5.443   1.011  10.909 -0.5700 -0.3336  0.0320
16560SOL    HW159994   5.402   1.083  10.862  1.2203  0.1452 -0.9079
16560SOL    HW259995   5.436   0.936  10.850  0.4866 -0.0662 -0.4652
16561SOL     OW59996   5.270   5.840   7.950  0.0883  0.1030  0.1881
16561SOL    HW159997   5.217   5.844   8.030  0.0045 -3.0270  0.4222
16561SOL    HW259998   5.361   5.843   7.981  0.1972  3.7888 -0.0901
16562SOL     OW59999  12.271   6.127   5.944 -0.2834 -0.3313  0.1627
16562SOL    HW160000  12.352   6.175   5.963  0.8309 -1.6584 -0.8969
16562SOL    HW260001  12.257   6.073   6.022 -0.8409  0.7811  0.8442
16563SOL     OW60002   5.899  10.480   5.681  0.0119 -0.1967 -0.2168
16563SOL    HW160003   5.881  10.504   5.590 -0.8753 -0.6005 -0.1558
16563SOL    HW260004   5.974  10.421   5.675  0.5031  0.4600 -0.6072
16564SOL     OW60005   0.850   5.333   7.732  0.0505 -0.1243 -0.1298
16564SOL    HW160006   0.783   5.269   7.707 -0.6699  0.1593  1.0288
16564SOL    HW260007   0.821   5.366   7.817  0.2955  1.9188 -0.8059
16565SOL     OW60008  11.606  10.959   8.422 -0.0723  0.2145  0.3020
16565SOL    HW160009  11.543  11.031   8.410 -1.3853 -0.2201  3.6019
16565SOL    HW260010  11.591  10.902   8.347 -2.4374  1.0134  0.0772
16566SOL     OW60011   1.077   2.781   9.444 -0.1384 -0.1236 -0.3080
16566SOL    HW160012   1.143   2.725   9.485 -0.9559  0.3675  1.7885
16566SOL    HW260013   1.095   2.868   9.477 -1.2853  0.1675 -0.3979
16567SOL     OW60014   6.023   0.009   2.713  0.4312  0.1467  0.4249
16567SOL    HW160015   6.079  -0.069   2.710 -1.1837 -1.0735  0.9227
16567SOL    HW260016   6.012   0.026   2.806 -1.2179 -0.5584  0.3926
16568SOL     OW60017   3.699   7.712   3.080 -0.1137 -0.5280 -0.2213
16568SOL    HW160018   3.670   7.803   3.080  0.9647 -0.1729 -0.4295
16568SOL    HW260019   3.736   7.699   2.993 -0.1449 -1.1345 -0.1476
16569SOL     OW60020   8.669   6.905   5.553  0.4023  0.1318  0.1637
16569SOL    HW160021   8.628   6.862   5.477  0.7459  1.2028 -0.6564
16569SOL    HW260022   8.755   6.862   5.561  1.2561  1.4115 -1.4165
16570SOL     OW60023   1.018   7.106   9.346 -0.3155 -0.2721  0.2721
16570SOL    HW160024   1.097   7.054   9.331 -1.8405 -2.5598 -0.4264
16570SOL    HW260025   1.001   7.096   9.440 -0.2121 -0.4252  0.2747
16571SOL     OW60026   3.515   9.721   7.930 -0.0440 -0.2545 -0.3313
16571SOL    HW160027   3.583   9.783   7.902  2.1621 -2.4096 -0.1476
16571SOL    HW260028   3.532   9.642   7.878 -1.2521 -1.4745  1.0350
16572SOL     OW60029   6.951   9.695  11.526 -0.3398 -0.5332 -0.7330
16572SOL    HW160030   6.995   9.687  11.442 -0.6406  2.4915 -1.2898
16572SOL    HW260031   6.977   9.781  11.559 -2.6114 -0.3518  0.8191
16573SOL     OW60032   3.020  11.358  11.870 -0.2267 -0.4590 -0.1522
16573SOL    HW160033   3.006  11.453  11.872 -0.9428 -0.5538 -0.4336
16573SOL    HW260034   3.012  11.335  11.777 -2.5941 -1.1398  0.1458
16574SOL     OW60035   3.103   1.366   0.425  0.0328  0.3915 -0.3590
16574SOL    HW160036   3.053   1.290   0.454  0.2142  0.5344  0.3386
16574SOL    HW260037   3.153   1.393   0.501  0.7998  0.5571 -0.9138
16575SOL     OW60038  12.296   1.594   9.071  0.4645 -0.3115  0.5630
16575SOL    HW160039  12.261   1.520   9.120 -1.1282  0.7936  1.1862
16575SOL    HW260040  12.372   1.623   9.121  0.7124 -1.1105  0.6611
16576SOL     OW60041   0.765  11.369   2.823 -0.1128  0.6227  0.2776
16576SOL    HW160042   0.811  11.391   2.742 -1.0158 -0.5052 -0.5699
16576SOL    HW260043   0.682  11.415   2.817 -1.0612 -1.0828 -0.4554
16577SOL     OW60044   4.522  11.698  10.910  0.0206  0.7460 -0.0024
16577SOL    HW160045   4.482  11.698  10.823 -0.6142 -1.6846  0.2194
16577SOL    HW260046   4.589  11.766  10.905 -1.2312  1.9334 -1.7769
16578SOL     OW60047  10.554   4.565  10.103  0.3409 -0.1334  0.6695
16578SOL    HW160048  10.595   4.626  10.041  0.7225  0.2155  1.2518
16578SOL    HW260049  10.623   4.546  10.167 -0.4151  0.5207  1.7139
16579SOL     OW60050   7.089  10.985   1.507 -0.5149 -0.4887  0.1084
16579SOL    HW160051   7.122  11.064   1.463 -1.0484 -0.4276 -0.1963
16579SOL    HW260052   7.101  10.915   1.443  2.3537 -1.2128  1.2833
16580SOL     OW60053   2.912   0.234  10.418  0.3637  0.3191 -0.1283
16580SOL    HW160054   2.923   0.158  10.361 -0.3837  2.2165 -3.0469
16580SOL    HW260055   2.824   0.223  10.455  1.0152 -1.1459  1.0945
16581SOL     OW60056   3.385   0.383   0.627  0.0771  0.8620  0.2476
16581SOL    HW160057   3.317   0.368   0.693  0.2428  1.0144  0.4543
16581SOL    HW260058   3.337   0.414   0.550  0.0406  2.4984  0.8908
16582SOL     OW60059  10.354  10.263  10.965 -0.3941  0.1949  0.0581
16582SOL    HW160060  10.293  10.333  10.991  1.3357  2.1383 -0.8360
16582SOL    HW260061  10.400  10.241  11.046 -1.9506 -1.0397  0.6679
16583SOL     OW60062   5.385   0.419  12.889  0.1042 -0.1646  0.8500
16583SOL    HW160063   5.412   0.418  12.797  0.3884 -0.9373  0.9383
16583SOL    HW260064   5.304   0.470  12.889  0.4373  0.3833  0.2708
16584SOL     OW60065   3.570  12.309  11.235  0.1756  0.3974 -1.2972
16584SOL    HW160066   3.485  12.267  11.236 -0.4368  1.5841 -1.6840
16584SOL    HW260067   3.581  12.344  11.323  0.7670 -0.6767 -0.9188
16585SOL     OW60068  12.655   2.193   7.701  0.4492  0.1452 -0.9099
16585SOL    HW160069  12.727   2.148   7.745  1.1109 -0.7678 -2.7959
16585SOL    HW260070  12.684   2.283   7.692 -0.2028  0.6524  1.4825
16586SOL     OW60071   1.687  11.257   8.716 -0.4512  0.7584  0.4304
16586SOL    HW160072   1.762  11.213   8.677  0.4780  1.7226  1.0724
16586SOL    HW260073   1.612  11.203   8.692  0.3222  0.2976 -1.0502
16587SOL     OW60074   2.758   2.430  10.219 -0.6555 -0.2665  0.3802
16587SOL    HW160075   2.794   2.342  10.216  0.8476  0.2969  0.8208
16587SOL    HW260076   2.766   2.457  10.311  0.3749  0.8782 -0.0126
16588SOL     OW60077   6.860   2.058  10.934  0.7898  0.2154 -0.3875
16588SOL    HW160078   6.793   1.994  10.913 -1.4336  2.3940 -0.3576
16588SOL    HW260079   6.906   2.073  10.851 -0.8502  0.9397 -1.2131
16589SOL     OW60080  12.904   5.080  11.898 -0.3918 -0.4138  0.3785
16589SOL    HW160081  12.811   5.063  11.909 -0.5724 -0.5754 -1.1257
16589SOL    HW260082  12.909   5.169  11.863  0.0572 -0.1930  0.9918
16590SOL     OW60083   4.025   4.408   6.815  0.1267  0.6532 -0.3750
16590SOL    HW160084   4.060   4.322   6.840  1.7521  1.0448 -1.1443
16590SOL    HW260085   3.931   4.395   6.807  0.2877 -0.9217  0.0547
16591SOL     OW60086   1.042  12.317   4.826 -0.0555 -0.6345  0.3138
16591SOL    HW160087   1.071  12.398   4.784 -0.7922 -0.7601 -0.4700
16591SOL    HW260088   0.959  12.340   4.867 -0.4831 -1.0837 -0.2773
16592SOL     OW60089   2.240  12.013   1.444 -0.2824 -0.9483  0.5010
16592SOL    HW160090   2.318  12.056   1.478  0.0657 -1.1824  0.0134
16592SOL    HW260091   2.168  12.070   1.470  0.3658  1.6861 -2.7335
16593SOL     OW60092   1.432   5.206   0.822  0.5068 -0.2024  0.1532
16593SOL    HW160093   1.527   5.216   0.829  0.3403  0.6220  1.8702
16593SOL    HW260094   1.406   5.275   0.761  0.9403  0.0418  0.2333
16594SOL     OW60095  10.475   5.298   4.770 -0.1611 -0.8201 -0.3135
16594SOL    HW160096  10.567   5.282   4.792 -0.4517 -2.0038  0.1568
16594SOL    HW260097  10.452   5.378   4.816 -0.0127 -1.8179  1.5833
16595SOL     OW60098   7.095   7.361   8.562 -0.3564  0.1127  0.3337
16595SOL    HW160099   7.021   7.335   8.506 -1.1302  0.7201  1.0465
16595SOL    HW260100   7.101   7.290   8.626 -0.8676  0.4674  0.7796
16596SOL     OW60101   6.192   5.160   2.200 -0.2271  0.4654 -0.2629
16596SOL    HW160102   6.142   5.224   2.251 -0.1625  0.9436 -0.7947
16596SOL    HW260103   6.152   5.076   2.222 -2.6473  0.9939 -2.1804
16597SOL     OW60104  12.965   4.977   7.622  0.4096 -0.1678  0.5181
16597SOL    HW160105  12.990   4.903   7.566  2.0158  1.4616 -1.0298
16597SOL    HW260106  13.007   4.958   7.706  0.7454 -1.0358  0.1740
16598SOL     OW60107   5.520  11.331   2.312  0.0184 -0.3933  0.0702
16598SOL    HW160108   5.511  11.409   2.257 -0.1138 -0.2233  0.3309
16598SOL    HW260109   5.608  11.298   2.292  0.2850  0.1279  0.3532
16599SOL     OW60110   6.576   9.466   7.515 -0.1434 -0.0873 -0.3431
16599SOL    HW160111   6.525   9.397   7.559 -1.4616  0.0382 -1.6092
16599SOL    HW260112   6.636   9.497   7.583 -1.3234 -0.6753  1.0384
16600SOL     OW60113   5.133   2.942   6.432 -0.3440 -0.2786 -0.2289
16600SOL    HW160114   5.159   2.861   6.476 -0.7834 -0.5950 -0.5486
16600SOL    HW260115   5.040   2.951   6.449 -0.2245  0.3779  0.1394
16601SOL     OW60116  12.370  11.255   6.118 -0.1064 -0.3139 -0.1697
16601SOL    HW160117  12.331  11.307   6.188 -2.1711 -0.7891 -0.8961
16601SOL    HW260118  12.380  11.167   6.155  0.2061 -0.2228 -0.0273
16602SOL     OW60119  12.594   0.113   9.399 -0.2287 -0.1463 -0.2159
16602SOL    HW160120  12.592   0.179   9.469 -3.0282 -0.2574 -0.1048
16602SOL    HW260121  12.601   0.030   9.446  0.0581 -0.1096 -0.1910
16603SOL     OW60122   1.235   6.266  12.014  0.0361  0.8470 -0.0010
16603SOL    HW160123   1.214   6.276  12.107 -0.9784 -1.3683  0.0542
16603SOL    HW260124   1.327   6.242  12.012 -0.0171  0.5995  0.4665
16604SOL     OW60125   1.960   8.533   5.488  0.2765 -0.1854 -0.3663
16604SOL    HW160126   1.948   8.459   5.547  0.8503 -0.8823 -1.1112
16604SOL    HW260127   1.909   8.604   5.528 -1.3121 -1.3183 -0.2806
16605SOL     OW60128   0.995   4.999  11.993 -0.3397 -0.2009  0.2673
16605SOL    HW160129   0.978   5.017  12.086  1.1880 -0.3785  0.6200
16605SOL    HW260130   1.067   5.058  11.970 -0.5158 -0.3535 -0.7275
16606SOL     OW60131  10.838   6.472   3.171 -0.8411  0.1971 -0.1307
16606SOL    HW160132  10.825   6.526   3.093 -1.6277  0.9054  0.4770
16606SOL    HW260133  10.750   6.456   3.205 -0.4463  1.1069  1.4181
16607SOL     OW60134  11.291   0.707   8.176  0.0239  0.2310 -0.6699
16607SOL    HW160135  11.347   0.639   8.214 -0.0707  0.2679 -0.4651
16607SOL    HW260136  11.256   0.667   8.096 -1.3549 -0.5742  0.2992
16608SOL     OW60137   0.696   2.959   0.466 -0.6814 -0.4832  0.0727
16608SOL    HW160138   0.601   2.960   0.470 -0.8928 -1.7868 -2.4041
16608SOL    HW260139   0.724   2.942   0.556 -2.8476 -1.7626  0.5760
16609SOL     OW60140   8.390  12.789   9.535 -0.5119 -0.2341  0.4223
16609SOL    HW160141   8.404  12.697   9.510  0.9715  0.0422  0.1499
16609SOL    HW260142   8.437  12.839   9.468 -1.4349  0.7465  0.4784
16610SOL     OW60143   4.681   9.080  10.983  0.4296  0.3592 -0.5717
16610SOL    HW160144   4.743   9.140  11.024  0.9078 -0.7884  0.4545
16610SOL    HW260145   4.719   8.993  10.996 -1.8135 -0.4987  0.9687
16611SOL     OW60146   9.226  12.488   9.691  0.1260 -0.2883 -0.7232
16611SOL    HW160147   9.167  12.533   9.752  1.9773  3.1256 -1.1800
16611SOL    HW260148   9.177  12.487   9.608  0.7228  3.1400 -1.2829
16612SOL     OW60149   3.283   7.313   0.157 -0.4089 -0.1284  0.1438
16612SOL    HW160150   3.232   7.291   0.079 -0.9623 -0.1271  0.5017
16612SOL    HW260151   3.219   7.315   0.228  0.0468  0.1356  0.5536
16613SOL     OW60152   6.869   1.280   4.012  0.1192 -0.0456 -0.4279
16613SOL    HW160153   6.918   1.360   4.029 -0.5902  0.5048 -0.9151
16613SOL    HW260154   6.928   1.210   4.040 -0.2718  0.6925  2.6199
16614SOL     OW60155   4.420   5.387   7.926 -0.3383  0.5554 -0.6180
16614SOL    HW160156   4.497   5.419   7.879  0.7172 -1.8059 -0.5917
16614SOL    HW260157   4.405   5.299   7.891 -1.8150  0.2015  0.8031
16615SOL     OW60158   8.261   8.109   0.046  0.3853 -0.7913 -0.3987
16615SOL    HW160159   8.356   8.098   0.056  0.1920 -1.9435  0.5063
16615SOL    HW260160   8.248   8.127  -0.046  1.5918  0.6714 -0.3123
16616SOL     OW60161   9.756  10.973   2.834 -0.8230  0.1280  1.1997
16616SOL    HW160162   9.771  11.062   2.801  0.3995 -0.1396  0.9985
16616SOL    HW260163   9.706  10.930   2.765 -2.1251  0.8794  1.6375
16617SOL     OW60164   4.976   2.549  10.493 -0.0961  0.3119 -0.0587
16617SOL    HW160165   4.910   2.566  10.426  0.1921 -0.8239 -0.6489
16617SOL    HW260166   5.059   2.576  10.454  0.0890 -0.4665 -0.2192
16618SOL     OW60167   2.779  11.094  10.975  0.1869 -0.4847  0.1383
16618SOL    HW160168   2.817  11.016  11.015  2.3763  0.1775 -0.4729
16618SOL    HW260169   2.731  11.136  11.046  1.6384 -0.7789  1.3534
16619SOL     OW60170   8.365  11.731   1.409 -0.0124  0.1263  0.5992
16619SOL    HW160171   8.357  11.821   1.439 -1.3770 -0.4653  2.1825
16619SOL    HW260172   8.274  11.704   1.392 -0.0750 -2.0194  3.6433
16620SOL     OW60173   0.982  11.632   3.047  0.3901 -0.0239  0.6097
16620SOL    HW160174   0.959  11.718   3.013 -1.6546 -0.5543  0.5085
16620SOL    HW260175   0.941  11.629   3.134  1.7772 -0.3254  1.2749
16621SOL     OW60176   6.761   2.911   0.096  0.3449  0.4028 -0.1070
16621SOL    HW160177   6.801   2.984   0.049  1.7219  0.3617  0.9210
16621SOL    HW260178   6.668   2.932   0.100  0.2219  0.5376 -2.5572
16622SOL     OW60179   7.417   3.589   7.954  0.1467  0.3667  0.0724
16622SOL    HW160180   7.498   3.585   7.904 -0.3592 -0.3455 -0.7120
16622SOL    HW260181   7.445   3.579   8.045  0.8833 -0.4831 -0.2371
16623SOL     OW60182  11.320  10.400  11.257  0.1199  0.2078 -0.2496
16623SOL    HW160183  11.309  10.391  11.162 -0.7415  0.7013 -0.2042
16623SOL    HW260184  11.287  10.488  11.277  1.5719  0.6495  0.3257
16624SOL     OW60185   6.691   9.571   2.562  0.1474  0.0350 -0.1894
16624SOL    HW160186   6.716   9.600   2.649  1.3090 -0.2997 -0.3860
16624SOL    HW260187   6.731   9.484   2.553  0.7919  0.4203 -1.3625
16625SOL     OW60188   6.993   2.451   8.088  0.6595  0.1577  0.2416
16625SOL    HW160189   7.058   2.384   8.111  1.1468  1.1187  1.8586
16625SOL    HW260190   7.018   2.527   8.141 -0.0029  1.5663 -1.3594
16626SOL     OW60191   2.775   3.056   8.234 -0.4905  0.1905  0.7200
16626SOL    HW160192   2.705   3.072   8.296 -1.7550 -0.1421 -0.5551
16626SOL    HW260193   2.777   3.134   8.179 -2.4244 -1.2385 -1.5624
16627SOL     OW60194   1.393   4.756   3.222 -0.2702  0.9640  0.2191
16627SOL    HW160195   1.430   4.835   3.182 -0.9224  0.7185 -0.8851
16627SOL    HW260196   1.309   4.785   3.257 -0.1576  0.9312  0.5253
16628SOL     OW60197  12.254  12.797  11.825  0.4548 -0.6091  0.2846
16628SOL    HW160198  12.159  12.799  11.813  0.4901  0.3472  0.1272
16628SOL    HW260199  12.273  12.869  11.886  1.0682 -0.8801  0.4295
16629SOL     OW60200  11.302  11.166   0.842  0.0219  0.5421  0.0372
16629SOL    HW160201  11.270  11.075   0.843 -0.5814  0.7542  0.5233
16629SOL    HW260202  11.377  11.166   0.900  2.4978 -0.4997 -2.8899
16630SOL     OW60203   6.377   2.535   1.539 -0.6376 -0.5956  0.3628
16630SOL    HW160204   6.321   2.537   1.617 -1.8493  0.1297 -0.4872
16630SOL    HW260205   6.327   2.483   1.475  0.3203 -1.1522  0.0500
16631SOL     OW60206   3.127   5.463   9.063  0.1848 -0.9910  0.7363
16631SOL    HW160207   3.210   5.510   9.067 -0.2029  0.2619 -2.4315
16631SOL    HW260208   3.069   5.511   9.121  0.7616  0.3047  0.2786
16632SOL     OW60209  10.670   7.763   2.732 -0.3804  0.0718 -0.3348
16632SOL    HW160210  10.618   7.702   2.785 -0.1986  0.7381  0.6274
16632SOL    HW260211  10.736   7.708   2.691 -0.3252 -0.4145  0.3889
16633SOL     OW60212   6.223   4.212   6.778 -0.1173 -0.6791 -0.1943
16633SOL    HW160213   6.189   4.298   6.804  0.2964 -1.2100  2.3328
16633SOL    HW260214   6.169   4.150   6.827 -0.4599 -1.9113 -2.0406
16634SOL     OW60215   4.127  10.539   5.169  0.7346 -0.3088 -0.6578
16634SOL    HW160216   4.143  10.621   5.121 -0.7614  1.4447  1.6625
16634SOL    HW260217   4.035  10.519   5.153  0.4670 -0.2160  0.6949
16635SOL     OW60218   4.273  11.040   3.691  0.5393  0.1168  0.1634
16635SOL    HW160219   4.226  10.992   3.623 -0.4678  1.8777 -0.4543
16635SOL    HW260220   4.356  11.065   3.650 -0.2677  1.6031 -0.6717
16636SOL     OW60221   6.646   4.389   6.856 -0.1920 -0.4104  0.8481
16636SOL    HW160222   6.598   4.467   6.829 -0.2355 -1.5129 -2.7185
16636SOL    HW260223   6.579   4.324   6.874 -0.1166 -0.7973 -0.2319
16637SOL     OW60224  12.559   8.394   9.168  0.5012  0.2535  0.7396
16637SOL    HW160225  12.579   8.449   9.091  0.6828 -1.5916 -0.6000
16637SOL    HW260226  12.522   8.455   9.232  0.5250  1.8986 -0.7368
16638SOL     OW60227  10.832  10.034  11.940  0.5145  0.5951 -0.3585
16638SOL    HW160228  10.805  10.049  11.849 -0.4875  0.1791 -0.1383
16638SOL    HW260229  10.927  10.020  11.934  0.2865 -0.7203 -1.5116
16639SOL     OW60230  12.228   3.639  12.608 -0.2438  0.0031 -0.5850
16639SOL    HW160231  12.323   3.638  12.618 -0.1015 -0.7683 -1.8491
16639SOL    HW260232  12.205   3.549  12.585 -1.4340 -0.0963  0.8558
16640SOL     OW60233  11.767   5.696   8.910  0.7055  0.3921 -0.1082
16640SOL    HW160234  11.838   5.647   8.867  0.1498 -0.5673  0.0467
16640SOL    HW260235  11.719   5.630   8.959  1.2431  1.4358  1.9332
16641SOL     OW60236   1.104   9.335   4.461  0.8951  0.1628  0.3028
16641SOL    HW160237   1.161   9.313   4.387  2.0819  0.4925  1.0829
16641SOL    HW260238   1.161   9.383   4.521 -0.2373  0.5474  1.0996
16642SOL     OW60239   5.441   5.779   5.411 -0.1726 -0.5935 -0.2276
16642SOL    HW160240   5.450   5.874   5.398 -1.3660 -0.0533  2.2198
16642SOL    HW260241   5.371   5.752   5.352  0.5055 -0.0743 -1.2986
16643SOL     OW60242  10.598  11.888   0.089 -0.0913 -0.3774  0.0656
16643SOL    HW160243  10.637  11.974   0.102  0.8136 -0.9199  1.1074
16643SOL    HW260244  10.518  11.889   0.142  0.1405 -0.3338  0.4124
16644SOL     OW60245   1.571   4.829   1.036 -0.0217  0.1856 -0.6475
16644SOL    HW160246   1.591   4.751   1.088 -0.1669  0.3405 -0.3565
16644SOL    HW260247   1.617   4.900   1.081 -1.5260  0.6227  0.2714
16645SOL     OW60248   2.621  12.052   0.073 -0.5205 -0.5076 -0.0431
16645SOL    HW160249   2.526  12.045   0.085 -0.9670 -0.0544 -2.5721
16645SOL    HW260250   2.632  12.132   0.021  1.2869 -0.4309  0.3912
16646SOL     OW60251   5.352   4.668   8.988 -0.3212 -0.3169  0.6873
16646SOL    HW160252   5.353   4.575   8.964  0.1729 -0.0087 -0.5782
16646SOL    HW260253   5.444   4.695   8.985 -0.4197  0.1364  1.4081
16647SOL     OW60254  10.262   2.370   7.666  0.2188  0.1026  0.3454
16647SOL    HW160255  10.309   2.410   7.739  2.9705  0.5490 -1.4789
16647SOL    HW260256  10.236   2.284   7.698 -0.4535  1.0266  2.4334
16648SOL     OW60257   0.357   0.907   3.391 -0.2445 -0.2058 -0.5238
16648SOL    HW160258   0.294   0.904   3.463  1.7758 -0.7254  1.3276
16648SOL    HW260259   0.317   0.967   3.328 -1.7399  0.9688  1.3864
16649SOL     OW60260   4.229  10.541  10.018  0.0635  0.3357 -0.2288
16649SOL    HW160261   4.148  10.511   9.976  0.2021  0.0137 -0.2669
16649SOL    HW260262   4.249  10.474  10.082  0.5925  0.1442 -0.5859
16650SOL     OW60263   1.489   7.367   3.803  0.1745  0.5242  0.2847
16650SOL    HW160264   1.478   7.273   3.812 -0.4296  0.7943  4.3450
16650SOL    HW260265   1.412   7.396   3.755 -0.4002 -0.9228  0.2947
16651SOL     OW60266   9.445   0.272   7.632 -0.1814  0.3261  0.3387
16651SOL    HW160267   9.414   0.279   7.542 -0.4642  1.3797  0.5062
16651SOL    HW260268   9.476   0.182   7.640  0.7697  0.4976 -1.1084
16652SOL     OW60269   1.286   1.241   7.485  0.7956 -0.6683  0.2020
16652SOL    HW160270   1.256   1.211   7.571 -0.6881  0.0445 -0.0288
16652SOL    HW260271   1.381   1.249   7.494  0.6889 -0.8316  1.7098
16653SOL     OW60272   8.667   9.510   5.665  0.2973 -0.3623 -0.3950
16653SOL    HW160273   8.763   9.512   5.669  0.2632 -0.5805  0.8276
16653SOL    HW260274   8.647   9.510   5.571  1.4659  0.9356 -0.6858
16654SOL     OW60275   8.124   9.576   7.773  0.1183 -0.0559  0.3278
16654SOL    HW160276   8.125   9.606   7.682  1.5235  0.1464  0.3905
16654SOL    HW260277   8.066   9.638   7.817  0.6336  0.7884 -0.1379
16655SOL     OW60278   1.402   9.698   4.865  0.4390 -0.2488 -1.2532
16655SOL    HW160279   1.438   9.711   4.952  1.0460 -0.2480 -1.5037
16655SOL    HW260280   1.329   9.760   4.860  0.3450 -0.3122 -0.7184
16656SOL     OW60281   3.567   6.795   7.820  0.2522  0.5100  0.0413
16656SOL    HW160282   3.587   6.727   7.883  0.4399 -2.2430 -2.7452
16656SOL    HW260283   3.647   6.849   7.816  0.6615  0.0071  1.2277
16657SOL     OW60284  12.069  10.452   5.187  0.0807 -0.0329 -0.3526
16657SOL    HW160285  12.086  10.359   5.204  0.8884  0.1849  0.0742
16657SOL    HW260286  11.989  10.471   5.237 -1.0438 -0.8771 -1.7334
16658SOL     OW60287   5.635   6.937   6.104  0.5613 -0.5119  0.1338
16658SOL    HW160288   5.647   7.020   6.149  2.2805 -2.4165  3.5893
16658SOL    HW260289   5.704   6.934   6.039 -0.8744  1.5775 -1.6137
16659SOL     OW60290   9.782  12.898  12.216  0.5033 -0.3542  0.4704
16659SOL    HW160291   9.747  12.811  12.236  1.6493 -1.1466 -0.8141
16659SOL    HW260292   9.705  12.955  12.216 -0.5025 -1.6638 -0.2003
16660SOL     OW60293   6.873   9.474   6.774  0.0034 -0.0473  0.3084
16660SOL    HW160294   6.837   9.399   6.822  2.4240 -1.0038  0.7510
16660SOL    HW260295   6.941   9.508   6.831 -1.4689  3.0139  0.4322
16661SOL     OW60296   6.327   5.477   6.780 -0.3275 -0.4466  0.1078
16661SOL    HW160297   6.366   5.469   6.867 -0.6438  1.8843  0.5222
16661SOL    HW260298   6.392   5.527   6.730 -1.0980  0.1297 -0.3247
16662SOL     OW60299   0.840   7.452   4.853  0.1099 -0.4397  0.5008
16662SOL    HW160300   0.799   7.435   4.769  1.0552 -1.2960  0.1854
16662SOL    HW260301   0.780   7.415   4.918 -0.4878 -0.0261  0.1856
16663SOL     OW60302  11.332   1.371   9.488  0.3389 -0.0270 -0.2021
16663SOL    HW160303  11.248   1.378   9.443  0.3384 -0.8787 -0.3568
16663SOL    HW260304  11.393   1.341   9.420  0.6854  0.2382 -0.0083
16664SOL     OW60305   4.683  10.860   3.206 -1.1245 -0.0163  0.3218
16664SOL    HW160306   4.719  10.778   3.172 -0.7090  0.7930 -1.3409
16664SOL    HW260307   4.746  10.890   3.271 -0.1619  0.0329 -0.6105
16665SOL     OW60308   7.865  10.529   9.662 -0.0252 -0.2764  0.1832
16665SOL    HW160309   7.845  10.584   9.586 -0.5397  0.6018  0.9314
16665SOL    HW260310   7.925  10.583   9.714  0.6822 -1.0518  0.1865
16666SOL     OW60311   2.141  10.238   7.687  0.3846  0.1676  0.1771
16666SOL    HW160312   2.170  10.299   7.755 -0.6730  1.8631 -0.8128
16666SOL    HW260313   2.222  10.209   7.644  1.0687 -0.9771  2.1328
16667SOL     OW60314   6.668  12.831   3.486  0.2394  0.1728 -0.8014
16667SOL    HW160315   6.603  12.876   3.540 -0.4077  0.8771 -2.1306
16667SOL    HW260316   6.711  12.901   3.436  0.5001 -0.5069 -1.5475
16668SOL     OW60317   4.007  11.314   6.411  0.0751  0.5389  0.8512
16668SOL    HW160318   3.958  11.318   6.329  0.2993 -0.1496  0.6774
16668SOL    HW260319   4.019  11.405   6.437 -0.2886  0.7477  0.2978
16669SOL     OW60320   8.197   9.836   4.851 -0.5762 -0.5909 -0.5289
16669SOL    HW160321   8.114   9.851   4.806 -0.7142 -0.9006 -0.3819
16669SOL    HW260322   8.238   9.764   4.803  0.3571  0.5833 -1.6035
16670SOL     OW60323   7.008   8.715   2.774 -0.2042 -0.3154  0.0012
16670SOL    HW160324   6.997   8.624   2.748  2.6575 -0.6644 -0.2800
16670SOL    HW260325   6.995   8.714   2.869 -1.1621 -0.7830 -0.1152
16671SOL     OW60326  12.494   6.804   1.782 -0.5456 -0.6840  0.2791
16671SOL    HW160327  12.543   6.836   1.858 -0.9963  0.2943  0.1786
16671SOL    HW260328  12.437   6.877   1.758 -1.0416 -1.2969 -0.4654
16672SOL     OW60329  11.668   2.801   7.575 -0.1716 -0.2765  0.5230
16672SOL    HW160330  11.581   2.768   7.552  0.0004 -1.3247  1.2972
16672SOL    HW260331  11.729   2.735   7.543  0.3501  0.4413 -0.0025
16673SOL     OW60332  11.094   3.608   8.441  0.3710 -0.6213 -0.2967
16673SOL    HW160333  11.019   3.558   8.408  0.5630 -0.1963 -1.4009
16673SOL    HW260334  11.171   3.561   8.407  0.5471  1.0582 -2.3736
16674SOL     OW60335   9.197   8.435   2.232  0.4631 -0.1368 -0.6540
16674SOL    HW160336   9.108   8.423   2.197  0.1081  0.8932 -0.1347
16674SOL    HW260337   9.196   8.387   2.315  1.2375 -2.3868 -1.8333
16675SOL     OW60338   4.569   5.247   3.604 -0.1029  0.0562  1.1017
16675SOL    HW160339   4.586   5.179   3.669 -3.5839 -0.2794  1.8176
16675SOL    HW260340   4.589   5.205   3.520 -0.2558 -1.1794  1.6586
16676SOL     OW60341   5.794   2.040  10.872  0.6018  0.8861  0.1962
16676SOL    HW160342   5.828   1.988  10.800  0.8332  1.6052 -0.2254
16676SOL    HW260343   5.843   2.122  10.867  0.5314  0.9875  1.0965
16677SOL     OW60344   6.147   3.777   0.543  0.1255 -0.6252  0.3439
16677SOL    HW160345   6.162   3.790   0.637 -1.0222  2.3859  0.2291
16677SOL    HW260346   6.194   3.849   0.501 -2.4677  0.4043 -1.0392
16678SOL     OW60347   0.088   9.527   5.464  0.2547  0.2064  0.1583
16678SOL    HW160348   0.071   9.584   5.539 -3.2316 -0.1114 -0.2211
16678SOL    HW260349   0.060   9.578   5.388 -1.0599 -1.2144 -0.3770
16679SOL     OW60350   9.557   3.291   8.186  0.0583 -0.5647 -0.3690
16679SOL    HW160351   9.504   3.255   8.115  0.0801 -0.2057 -0.5685
16679SOL    HW260352   9.527   3.381   8.195 -0.6813 -0.9096  0.7930
16680SOL     OW60353   7.621   8.282  11.522  0.3276  0.3879 -0.0186
16680SOL    HW160354   7.556   8.352  11.515 -1.0222 -0.8053  0.1112
16680SOL    HW260355   7.634   8.252  11.432  0.4820  0.4432 -0.0133
16681SOL     OW60356   2.690   3.114   8.902  0.1700 -0.3162 -0.3906
16681SOL    HW160357   2.695   3.062   8.982  1.7210 -0.1763 -0.3621
16681SOL    HW260358   2.701   3.204   8.931 -1.4250 -0.0377 -0.5584
16682SOL     OW60359  10.796  10.371   4.767  0.4200  0.0948  0.4516
16682SOL    HW160360  10.740  10.439   4.732  0.2722  0.3816  1.2308
16682SOL    HW260361  10.754  10.344   4.849  2.2439  1.5068  1.9589
16683SOL     OW60362   7.207   7.444   0.698 -0.3640 -0.3751 -0.3890
16683SOL    HW160363   7.296   7.467   0.670 -0.5395  1.9253  0.7174
16683SOL    HW260364   7.200   7.480   0.787 -1.4793 -3.0546  0.7372
16684SOL     OW60365  11.599   9.785   3.517 -0.3549 -0.4316  0.1900
16684SOL    HW160366  11.523   9.739   3.552 -0.1468  1.0168  2.7676
16684SOL    HW260367  11.598   9.870   3.561  1.6284  0.4240 -1.2549
16685SOL     OW60368   5.210   7.786   9.172  0.4425 -0.9104 -0.1664
16685SOL    HW160369   5.150   7.838   9.226 -1.7364 -1.1693 -2.1892
16685SOL    HW260370   5.239   7.715   9.230 -0.1969 -0.0768  1.2332
16686SOL     OW60371   0.700   4.977   5.156 -0.8844 -0.0899  0.0176
16686SOL    HW160372   0.726   5.068   5.169  2.7411 -1.0210  0.4047
16686SOL    HW260373   0.685   4.970   5.061  0.5478  0.5943 -0.2944
16687SOL     OW60374   7.402   1.913  12.447 -0.3409 -0.4125  0.4748
16687SOL    HW160375   7.457   1.911  12.525 -0.0401 -2.8229  0.2784
16687SOL    HW260376   7.463   1.912  12.374 -0.5940  2.5328  0.0730
16688SOL     OW60377   8.600   9.666   3.816  0.1358 -0.5492  0.5520
16688SOL    HW160378   8.541   9.638   3.887  0.6133 -0.0390  1.1642
16688SOL    HW260379   8.599   9.593   3.754  0.4403 -1.4201  1.5358
16689SOL     OW60380   2.024   6.214   4.633  0.0020 -0.1405  0.5777
16689SOL    HW160381   1.976   6.293   4.609 -0.6356 -0.8435 -0.5137
16689SOL    HW260382   2.116   6.237   4.621 -0.2043  0.2702 -0.2306
16690SOL     OW60383   5.736   6.633   5.817 -0.6853 -0.9857 -0.3441
16690SOL    HW160384   5.746   6.635   5.722 -0.8753 -0.4340 -0.3555
16690SOL    HW260385   5.767   6.546   5.843  0.3624 -0.7644 -0.7936
16691SOL     OW60386   2.904   9.476   6.702  0.4205  0.4680 -0.2862
16691SOL    HW160387   2.835   9.471   6.635 -0.2091 -0.1116  0.3988
16691SOL    HW260388   2.950   9.393   6.695  0.7393  0.6524 -0.3964
16692SOL     OW60389   5.597   2.419  10.786 -0.0906  0.4076  0.0888
16692SOL    HW160390   5.652   2.376  10.851  0.7821  1.3271 -0.0300
16692SOL    HW260391   5.641   2.502  10.767 -1.2748  0.9638 -0.3473
16693SOL     OW60392  12.235  11.572  12.627 -0.4151 -0.2605  0.4262
16693SOL    HW160393  12.180  11.648  12.641  0.7427  0.6193  0.3619
16693SOL    HW260394  12.176  11.497  12.636 -1.5584  0.6337  0.5463
16694SOL     OW60395   6.826   9.493   3.062 -0.5903 -0.0379  0.4437
16694SOL    HW160396   6.804   9.493   3.156  0.2432  1.5032  0.6694
16694SOL    HW260397   6.870   9.409   3.048 -2.2315 -1.0495  1.0324
16695SOL     OW60398   1.114   3.818  12.265 -0.4882 -0.3526  0.1219
16695SOL    HW160399   1.056   3.805  12.190 -1.6839 -0.1314  0.9670
16695SOL    HW260400   1.111   3.734  12.312  1.3850 -0.9914 -0.7843
16696SOL     OW60401   6.954   8.596   7.805 -0.0652 -0.2891  0.1989
16696SOL    HW160402   6.926   8.513   7.766 -0.7036  0.6766 -1.5036
16696SOL    HW260403   6.977   8.573   7.895  0.8657 -2.5137 -0.5228
16697SOL     OW60404  11.641   3.030   2.512 -0.1579 -0.2682 -0.3774
16697SOL    HW160405  11.698   3.086   2.459  0.6506  0.5624  1.2958
16697SOL    HW260406  11.701   2.968   2.554 -0.5511  0.1466  0.8280
16698SOL     OW60407   0.468   1.000   7.526 -0.3304  0.2062 -0.3199
16698SOL    HW160408   0.531   0.934   7.496 -0.6901 -1.0622  1.5680
16698SOL    HW260409   0.476   1.071   7.462  1.8333 -0.6133 -1.0601
16699SOL     OW60410   4.976  11.027  11.758 -0.1596 -0.3726 -0.4215
16699SOL    HW160411   4.897  11.008  11.808 -1.8747 -0.9496 -3.1373
16699SOL    HW260412   4.996  11.118  11.778 -2.1608  0.1156 -0.4772
16700SOL     OW60413   2.439   7.132   2.790 -0.1757 -0.3354 -0.0245
16700SOL    HW160414   2.365   7.164   2.842 -0.3949  0.8417 -1.0052
16700SOL    HW260415   2.490   7.211   2.770  1.9614 -1.2258  1.4927
16701SOL     OW60416   1.639  11.281   6.872  0.1323  0.4430 -0.0707
16701SOL    HW160417   1.644  11.193   6.835 -1.0512 -0.0372  0.8450
16701SOL    HW260418   1.570  11.324   6.822  1.1389  1.0978 -0.9467
16702SOL     OW60419  10.592   0.154   5.564  0.1540  0.0666  0.1574
16702SOL    HW160420  10.561   0.237   5.527 -0.6706  0.7282  2.2034
16702SOL    HW260421  10.536   0.139   5.640  1.0289 -1.8087  0.4942
16703SOL     OW60422   1.145   5.690   4.540 -0.4797 -0.5996  0.0659
16703SOL    HW160423   1.117   5.693   4.449  1.5432  2.8578 -0.6316
16703SOL    HW260424   1.241   5.684   4.536 -0.3054  0.1060  1.9259
16704SOL     OW60425   1.206   1.841   5.498 -0.3246 -0.3033  0.4033
16704SOL    HW160426   1.255   1.774   5.450  2.5760  0.9382  1.3730
16704SOL    HW260427   1.155   1.886   5.431  0.8353 -0.8878 -0.9316
16705SOL     OW60428   8.251   4.517   2.215  0.1772  0.3616  0.6689
16705SOL    HW160429   8.204   4.600   2.221 -1.4663 -0.5366  0.5231
16705SOL    HW260430   8.266   4.505   2.121  0.3288  0.4373  0.6828
16706SOL     OW60431   3.601   2.963   9.834  0.0233 -0.0650 -0.1502
16706SOL    HW160432   3.604   2.900   9.906  1.3073  0.6470  0.4530
16706SOL    HW260433   3.510   2.961   9.804 -0.1805 -1.4901  0.4860
16707SOL     OW60434   3.908  12.755  11.500 -0.1388  1.2594  0.1131
16707SOL    HW160435   3.936  12.773  11.410  0.2183  1.1642  0.2022
16707SOL    HW260436   3.885  12.662  11.500 -0.8480  1.4296 -0.0565
16708SOL     OW60437   3.247   7.034  12.475  0.2063 -0.7951 -0.0910
16708SOL    HW160438   3.250   6.954  12.528  0.2408 -1.6647 -1.3526
16708SOL    HW260439   3.157   7.066  12.485  0.6746  0.0594  1.8555
16709SOL     OW60440   3.494   3.884  12.841 -0.1065 -0.3806  0.0895
16709SOL    HW160441   3.450   3.861  12.759 -0.9201 -0.3542  0.5042
16709SOL    HW260442   3.587   3.886  12.819  0.0460 -3.7998 -0.0477
16710SOL     OW60443  10.487   5.765   2.020 -0.0363  0.4506  0.3469
16710SOL    HW160444  10.496   5.679   2.060  1.5842  0.8002  0.7967
16710SOL    HW260445  10.475   5.747   1.926 -0.0763 -0.2612  0.4845
16711SOL     OW60446   1.724  11.532   4.834  0.2916 -0.1940 -0.0777
16711SOL    HW160447   1.705  11.625   4.847 -1.4314 -0.5635  0.3722
16711SOL    HW260448   1.657  11.502   4.772  0.4942 -1.2451  0.1877
16712SOL     OW60449  11.557   4.521   6.473  0.0278  0.0996  0.2184
16712SOL    HW160450  11.519   4.558   6.553 -0.6198 -1.2911  0.5842
16712SOL    HW260451  11.642   4.486   6.501  0.7335  1.4438 -0.1719
16713SOL     OW60452   3.549   3.822   7.277  0.5100  0.2510 -0.1929
16713SOL    HW160453   3.492   3.877   7.224  0.8604 -0.8653 -1.8009
16713SOL    HW260454   3.623   3.878   7.299 -0.4485  1.2409  0.6045
16714SOL     OW60455   6.744   8.682  11.291  0.8054 -0.9948 -0.5995
16714SOL    HW160456   6.650   8.666  11.300  0.9822 -1.1711  1.4408
16714SOL    HW260457   6.751   8.775  11.269  0.1212 -1.3988 -2.6955
16715SOL     OW60458   9.374   0.106   9.207 -0.2503 -0.0308  0.2313
16715SOL    HW160459   9.285   0.118   9.173 -0.7849  2.4700  2.1681
16715SOL    HW260460   9.367   0.029   9.265 -1.4465  0.7241  1.1362
16716SOL     OW60461  10.797   1.896   7.852 -0.1121  0.1966 -0.6928
16716SOL    HW160462  10.701   1.901   7.846 -0.1846 -0.0676  0.0495
16716SOL    HW260463  10.819   1.957   7.922  0.1190 -0.7335  0.0803
16717SOL     OW60464  11.489   7.552   8.291 -0.3596 -0.5292 -0.5339
16717SOL    HW160465  11.521   7.532   8.379 -0.0995  0.6666 -0.3327
16717SOL    HW260466  11.560   7.524   8.234  0.1281  0.0976 -0.2455
16718SOL     OW60467   2.903   6.287   9.460  0.0503  0.5219 -0.2458
16718SOL    HW160468   2.895   6.348   9.534 -1.9529  1.0337 -0.8039
16718SOL    HW260469   2.882   6.341   9.383  0.4218 -0.3802 -0.9862
16719SOL     OW60470   8.946   9.199   3.626 -0.4697 -0.5835 -0.1756
16719SOL    HW160471   8.892   9.262   3.673 -0.4168 -0.4962 -0.2321
16719SOL    HW260472   8.934   9.221   3.533 -1.0607 -1.1400 -0.2440
16720SOL     OW60473  12.324   8.454   1.640  0.1545 -0.1061  0.2493
16720SOL    HW160474  12.325   8.478   1.547  0.0911 -0.9371  0.0239
16720SOL    HW260475  12.406   8.408   1.654 -0.2376 -0.7742  0.3828
16721SOL     OW60476   5.972   4.682   5.045  0.6537  0.3231  0.4589
16721SOL    HW160477   6.010   4.611   4.994  1.8678  2.1213 -1.2776
16721SOL    HW260478   6.038   4.701   5.112  1.0882  0.8924 -0.1232
16722SOL     OW60479   1.001   5.710   0.005 -0.2802  0.0655 -0.3770
16722SOL    HW160480   1.038   5.643   0.062  0.4735  0.3526 -0.5209
16722SOL    HW260481   0.920   5.671  -0.029 -1.3268  0.2836  1.7026
16723SOL     OW60482  10.272  12.337  11.064  0.4299  0.3118 -0.3713
16723SOL    HW160483  10.358  12.360  11.101  0.6921 -0.2454 -0.6192
16723SOL    HW260484  10.241  12.266  11.120  1.1905 -1.1052 -1.6657
16724SOL     OW60485   0.225   7.586   5.254  0.1467 -0.0004 -0.2017
16724SOL    HW160486   0.208   7.498   5.287  0.1641 -0.1686 -0.6324
16724SOL    HW260487   0.180   7.588   5.169 -0.4782  0.6501  0.1315
16725SOL     OW60488  10.100   3.916   0.204 -0.1989 -0.4734 -0.3002
16725SOL    HW160489  10.150   3.975   0.261 -0.2699 -0.3158 -0.3992
16725SOL    HW260490  10.089   3.966   0.123 -0.4875 -0.5211 -0.2901
16726SOL     OW60491   4.463  10.275   5.387 -0.3720 -0.5859  0.1670
16726SOL    HW160492   4.384  10.301   5.341  0.7949  0.5864 -1.2943
16726SOL    HW260493   4.451  10.182   5.405 -1.8169 -0.5643 -0.5551
16727SOL     OW60494   7.804   9.766   7.332  1.1455 -0.2307 -0.3099
16727SOL    HW160495   7.770   9.713   7.260  1.8428 -0.0286 -0.7892
16727SOL    HW260496   7.891   9.730   7.350  0.9977 -0.2490  0.3988
16728SOL     OW60497   4.376   7.043   3.147 -0.2784  0.4342 -0.0270
16728SOL    HW160498   4.397   7.134   3.167 -1.2558  0.8769 -0.9420
16728SOL    HW260499   4.288   7.046   3.110 -2.5234 -1.3680  4.3182
16729SOL     OW60500  10.699   3.670   2.869 -0.8161 -0.4764  0.0560
16729SOL    HW160501  10.677   3.581   2.840 -1.3864 -0.5482  0.6886
16729SOL    HW260502  10.650   3.682   2.950  0.8166 -0.3152  1.0740
16730SOL     OW60503  10.432  10.099   8.266 -0.0478 -0.0589  0.0924
16730SOL    HW160504  10.521  10.064   8.265 -0.2484 -0.5858  0.3952
16730SOL    HW260505  10.376  10.021   8.266 -0.4998  0.2579  1.2845
16731SOL     OW60506   3.271  10.699   3.862 -0.1755  0.1700  0.7024
16731SOL    HW160507   3.246  10.790   3.843 -0.6971 -0.0641  0.2471
16731SOL    HW260508   3.345  10.682   3.803 -1.4235 -0.3669 -0.7988
16732SOL     OW60509   6.813   7.495   6.149 -0.4777  0.1732  0.0893
16732SOL    HW160510   6.836   7.449   6.069 -1.8733  0.2151 -0.3570
16732SOL    HW260511   6.792   7.584   6.121 -0.9854  0.1892  0.4940
16733SOL     OW60512   4.456   8.655   7.777  0.4094 -0.4278 -0.1359
16733SOL    HW160513   4.481   8.604   7.700  1.5893 -1.0912  0.6518
16733SOL    HW260514   4.367   8.684   7.758  0.8786 -0.0373 -2.0240
16734SOL     OW60515   8.413  11.221   7.748  0.2976  0.2952 -0.2640
16734SOL    HW160516   8.318  11.215   7.753  0.1204  1.2460 -1.7530
16734SOL    HW260517   8.443  11.130   7.749 -0.8236 -0.1604 -2.3226
16735SOL     OW60518  11.408  12.517   7.196  0.5887  0.8166 -0.1483
16735SOL    HW160519  11.473  12.455   7.230  1.9720  2.2777 -0.0389
16735SOL    HW260520  11.332  12.506   7.254  1.8166  1.1411  1.5956
16736SOL     OW60521   9.251   7.810   8.640  0.5736 -0.0116 -0.3045
16736SOL    HW160522   9.272   7.902   8.620  0.0835  0.5932  1.6636
16736SOL    HW260523   9.217   7.813   8.730 -0.8624 -1.9318 -0.7247
16737SOL     OW60524   1.511  11.102   8.564  0.4232  0.2934 -0.5508
16737SOL    HW160525   1.539  11.160   8.493 -1.9476  1.4761 -0.5860
16737SOL    HW260526   1.455  11.038   8.521  1.2095 -0.6928 -0.1378
16738SOL     OW60527   4.675   0.725   3.536 -0.3742  0.2296  0.1268
16738SOL    HW160528   4.638   0.789   3.597 -0.6820 -1.1895  1.4909
16738SOL    HW260529   4.631   0.742   3.453 -0.8724  1.3975  0.6114
16739SOL     OW60530  11.602   6.086  10.913 -0.3054  0.1977  0.1085
16739SOL    HW160531  11.692   6.060  10.892  0.0673  2.1792 -0.9084
16739SOL    HW260532  11.584   6.043  10.996  1.3898 -0.6649  0.0754
16740SOL     OW60533  11.923   2.003   4.129 -0.0347 -0.0419 -0.7808
16740SOL    HW160534  11.908   2.031   4.038 -0.5498  1.5303 -0.2456
16740SOL    HW260535  12.018   1.996   4.136 -0.0223 -0.9991 -1.6605
16741SOL     OW60536  11.416  12.717   9.510  0.1169 -0.4990  0.6151
16741SOL    HW160537  11.379  12.696   9.595  0.2457  0.5824  0.9567
16741SOL    HW260538  11.352  12.777   9.470  0.2208 -0.7267  0.0933
16742SOL     OW60539   9.746   8.148   4.398  0.1915  0.1622  0.5116
16742SOL    HW160540   9.802   8.184   4.330  0.9567  1.0161  1.5645
16742SOL    HW260541   9.700   8.224   4.435  0.2863 -0.1939  1.3836
16743SOL     OW60542   8.634   4.731   4.090 -0.2368  0.1820  0.1808
16743SOL    HW160543   8.676   4.646   4.104  0.3158  0.3982 -0.1220
16743SOL    HW260544   8.602   4.756   4.177 -0.7377 -0.5017  0.2033
16744SOL     OW60545   9.463   4.250   6.981  0.9740 -0.5485  0.2201
16744SOL    HW160546   9.555   4.270   6.967  1.0758 -0.7661  0.5615
16744SOL    HW260547   9.431   4.222   6.896  1.5434 -1.7008  0.3704
16745SOL     OW60548   3.313   9.039   0.195  0.3950 -0.2400  0.5087
16745SOL    HW160549   3.237   8.998   0.236 -0.5692  1.0930  0.1325
16745SOL    HW260550   3.330   8.986   0.117 -1.3497  0.4994 -0.4263
16746SOL     OW60551  12.607   2.068   1.764  0.0561 -0.0564 -0.2575
16746SOL    HW160552  12.683   2.105   1.719  0.3733 -1.0237 -0.5355
16746SOL    HW260553  12.536   2.130   1.747  0.4230  0.1081 -1.2408
16747SOL     OW60554   0.060   6.463   5.685  0.5577  0.1916  0.0532
16747SOL    HW160555   0.039   6.540   5.632  0.3285  0.2547  0.2336
16747SOL    HW260556   0.127   6.417   5.634  0.6658  0.4864 -0.0745
16748SOL     OW60557   4.160   6.677   4.726 -0.2131  1.0667  0.3610
16748SOL    HW160558   4.135   6.585   4.725  1.4487  0.6029  0.0738
16748SOL    HW260559   4.179   6.699   4.635  2.7086  0.7139  0.8096
16749SOL     OW60560   6.653   7.635   9.365  0.3697  0.4464 -0.1717
16749SOL    HW160561   6.706   7.697   9.314 -1.3141  0.8046 -1.5551
16749SOL    HW260562   6.680   7.549   9.333  0.9167  0.5569 -0.0328
16750SOL     OW60563   4.465  11.712  12.823  0.0810 -0.0979  0.0153
16750SOL    HW160564   4.530  11.664  12.874  1.2969  0.9863 -0.4391
16750SOL    HW260565   4.392  11.724  12.883  0.6602 -0.5955  0.8441
16751SOL     OW60566   2.413   6.956   8.762  0.3837 -0.3871  0.0155
16751SOL    HW160567   2.344   6.911   8.714  1.3197 -1.7599 -0.1092
16751SOL    HW260568   2.494   6.922   8.724  1.1246  0.3043  0.9473
16752SOL     OW60569  12.917   4.297  10.107  0.2819  0.2713 -0.0753
16752SOL    HW160570  12.832   4.286  10.150  0.7020  1.2372  1.0377
16752SOL    HW260571  12.901   4.273  10.015 -1.0520 -0.0877  0.2344
16753SOL     OW60572   7.083  11.371   0.425 -0.2125  0.1610  0.4393
16753SOL    HW160573   7.143  11.436   0.463  1.8021 -1.0786 -0.4401
16753SOL    HW260574   7.121  11.287   0.450  0.9104 -0.7408 -3.5705
16754SOL     OW60575   1.168   0.684  12.276 -0.2042  0.1130 -0.0163
16754SOL    HW160576   1.217   0.636  12.209  1.6262  0.7031  0.8243
16754SOL    HW260577   1.199   0.774  12.267 -0.6552  0.3718  0.9984
16755SOL     OW60578   5.094   4.961   5.808 -0.4426  0.4789  0.7691
16755SOL    HW160579   5.178   5.003   5.789 -0.5050  0.3932  0.3045
16755SOL    HW260580   5.034   5.033   5.826 -1.2241  0.8162 -2.5564
16756SOL     OW60581  11.630  12.120  10.176  0.0445 -0.3775 -0.1706
16756SOL    HW160582  11.574  12.125  10.253 -0.7071  1.7195 -0.7837
16756SOL    HW260583  11.650  12.211  10.155  1.4444 -0.9637 -1.6074
16757SOL     OW60584  10.140   5.986   5.737  0.1472 -0.5593 -0.6925
16757SOL    HW160585  10.152   5.942   5.821 -0.1966 -2.3804 -1.5516
16757SOL    HW260586  10.189   5.932   5.675  0.1162  0.5670 -1.7253
16758SOL     OW60587  12.260   2.650   1.400  1.2006  0.1297  0.2500
16758SOL    HW160588  12.195   2.720   1.389 -1.8748 -2.7043 -1.2806
16758SOL    HW260589  12.236   2.608   1.482  2.0980 -0.0743  0.4198
16759SOL     OW60590   4.126   2.740   5.342 -0.1318  0.6606 -0.0867
16759SOL    HW160591   4.148   2.793   5.419  0.2560  0.9793 -0.4108
16759SOL    HW260592   4.150   2.795   5.268  1.5394 -0.4681 -0.4410
16760SOL     OW60593   9.625   2.571   6.846 -0.3184 -0.3380 -0.0829
16760SOL    HW160594   9.710   2.616   6.847 -0.3644 -0.0568 -2.6748
16760SOL    HW260595   9.581   2.604   6.768 -2.1631 -1.7038  0.3070
16761SOL     OW60596  11.969   5.116  11.180 -0.0818 -0.3979  0.3628
16761SOL    HW160597  11.933   5.029  11.166  1.5105 -1.1870  0.8230
16761SOL    HW260598  12.060   5.109  11.149  0.9072  0.2670  2.8622
16762SOL     OW60599   3.958   1.280   1.389 -0.1400  0.8531 -0.0665
16762SOL    HW160600   3.863   1.279   1.393 -0.1813  3.2813  2.1272
16762SOL    HW260601   3.978   1.350   1.326  0.2306 -0.0562 -0.9809
16763SOL     OW60602   5.040  10.092   0.108 -0.2189  0.2519  0.3479
16763SOL    HW160603   5.053  10.184   0.085  0.5145  0.4142  1.3418
16763SOL    HW260604   5.127  10.054   0.106 -0.4126 -0.2231  0.7463
16764SOL     OW60605   7.758   1.932   4.294 -0.5382  0.1768 -0.1990
16764SOL    HW160606   7.729   1.978   4.215 -2.3344 -0.1134  0.2537
16764SOL    HW260607   7.680   1.927   4.349  0.7548  0.7391  1.8095
16765SOL     OW60608   9.916   1.788   5.283 -0.0020 -0.3761  0.2783
16765SOL    HW160609   9.920   1.884   5.289 -1.6955 -0.3913  2.9889
16765SOL    HW260610   9.868   1.772   5.202  1.9384  0.9542 -1.2326
16766SOL     OW60611  11.731   0.350   1.488 -0.3509 -0.2905  0.2118
16766SOL    HW160612  11.732   0.422   1.550  1.4952 -0.2110  0.1359
16766SOL    HW260613  11.819   0.348   1.451 -1.2497 -0.6121 -2.0934
16767SOL     OW60614   0.677   2.464   5.497  0.3627 -0.0207 -0.3055
16767SOL    HW160615   0.734   2.462   5.420  0.0303 -0.7367 -0.5437
16767SOL    HW260616   0.609   2.399   5.478  1.0021 -1.1632  1.1406
16768SOL     OW60617   1.255   9.314   6.999 -0.3106  0.8067  0.0934
16768SOL    HW160618   1.287   9.321   6.909  1.4279 -1.4799  0.4265
16768SOL    HW260619   1.184   9.378   7.005  0.6613  2.2475 -2.3666
16769SOL     OW60620  11.627  11.774  10.649 -0.6038 -0.0346 -0.5685
16769SOL    HW160621  11.662  11.691  10.678 -0.6462  0.1915  0.1446
16769SOL    HW260622  11.676  11.795  10.569 -1.9034 -1.6568 -1.8669
16770SOL     OW60623   7.531  11.658   5.545 -0.2677 -0.0076  0.5484
16770SOL    HW160624   7.582  11.696   5.616  0.2590  0.1869  0.0705
16770SOL    HW260625   7.541  11.719   5.472  1.1414 -1.3588 -0.4414
16771SOL     OW60626   3.956  11.028   7.240 -0.2527 -0.3811  0.0036
16771SOL    HW160627   3.967  10.942   7.198 -1.5983  0.6370 -2.6949
16771SOL    HW260628   3.888  11.015   7.305 -0.1929 -1.4374 -0.1346
16772SOL     OW60629  10.230  12.565   6.135  0.9544 -0.2074  0.4747
16772SOL    HW160630  10.314  12.525   6.159  0.6428 -1.8123 -0.9608
16772SOL    HW260631  10.170  12.491   6.126 -0.2564  0.7981  0.0223
16773SOL     OW60632   5.486  10.193   8.803 -0.4857 -0.3963  0.1595
16773SOL    HW160633   5.527  10.279   8.803  0.4259 -0.7775 -1.4042
16773SOL    HW260634   5.530  10.144   8.873 -0.9132  0.3546  0.9583
16774SOL     OW60635   4.729  12.311  12.740  0.1431  0.3457  0.5948
16774SOL    HW160636   4.686  12.396  12.731 -3.4455 -1.3215  0.2249
16774SOL    HW260637   4.714  12.285  12.831  1.7162  0.3114  0.8687
16775SOL     OW60638   6.568  11.395   9.873  0.0619  0.1648  0.2925
16775SOL    HW160639   6.598  11.419   9.961  2.0973 -0.2503 -0.2291
16775SOL    HW260640   6.612  11.312   9.855  0.3199  0.6404 -1.3973
16776SOL     OW60641  10.316   5.045   7.489 -0.3214  0.1636 -0.4302
16776SOL    HW160642  10.386   5.106   7.512  0.0864 -0.2270 -0.6260
16776SOL    HW260643  10.343   5.009   7.404 -0.9161  0.2476 -0.6583
16777SOL     OW60644   1.071   3.557  12.392  0.1342 -0.3066 -0.0020
16777SOL    HW160645   1.082   3.477  12.341  1.8896 -0.5066  0.6022
16777SOL    HW260646   1.134   3.547  12.465 -0.8200  0.8712  1.0218
16778SOL     OW60647  10.468   1.556   4.400  0.0617  0.4229 -0.3547
16778SOL    HW160648  10.443   1.465   4.417  0.2694 -0.0471 -2.3446
16778SOL    HW260649  10.400   1.608   4.443 -1.1977 -0.7140 -0.8940
16779SOL     OW60650  10.975  12.788   5.351  0.2134 -0.2605  0.0651
16779SOL    HW160651  10.999  12.872   5.311  1.1520 -0.1367  0.8441
16779SOL    HW260652  10.884  12.774   5.323  0.3439  0.5421 -0.8565
16780SOL     OW60653   6.906   0.923   5.807 -0.1013 -0.5601  0.0776
16780SOL    HW160654   6.811   0.938   5.807  0.0877  0.7087 -0.5132
16780SOL    HW260655   6.933   0.944   5.718  0.6793 -1.3879  0.1098
16781SOL     OW60656   9.680  12.344   8.737 -0.4955 -0.8344  0.0372
16781SOL    HW160657   9.603  12.377   8.785 -0.0541  0.4509 -0.1068
16781SOL    HW260658   9.661  12.364   8.646 -0.0960 -0.7347 -0.0234
16782SOL     OW60659  10.568   9.317  12.065 -0.1048  0.4794  0.0992
16782SOL    HW160660  10.619   9.377  12.011 -0.6844 -0.4247 -1.5292
16782SOL    HW260661  10.623   9.240  12.075  0.5129  1.1075  1.9295
16783SOL     OW60662  11.622   2.847   3.203  0.9781  1.0419  0.4107
16783SOL    HW160663  11.608   2.904   3.279  2.2659  0.1624  1.3418
16783SOL    HW260664  11.715   2.826   3.205  0.7485 -0.1922 -0.5670
16784SOL     OW60665   4.796   9.041  11.864  0.4720 -0.4756  0.0230
16784SOL    HW160666   4.784   8.972  11.799  0.5563 -1.6309  1.2123
16784SOL    HW260667   4.752   9.117  11.825  0.6514 -1.0849 -1.4453
16785SOL     OW60668   7.035  11.214   3.748 -0.1260 -0.5177 -0.0292
16785SOL    HW160669   7.067  11.179   3.831  2.1456  2.0437  0.3406
16785SOL    HW260670   7.039  11.141   3.687  2.3895 -1.4469  1.1264
16786SOL     OW60671   3.035  12.662   3.823 -0.3591  0.0321 -0.3627
16786SOL    HW160672   3.013  12.750   3.790  0.3546  0.9568  1.4933
16786SOL    HW260673   3.005  12.662   3.914  3.1095 -0.1965  0.9270
16787SOL     OW60674   1.050   5.742   5.021 -1.0598 -0.1159 -0.5602
16787SOL    HW160675   1.024   5.780   5.105 -0.2738  0.4601 -0.5663
16787SOL    HW260676   1.067   5.818   4.965 -2.9497 -0.4796 -1.7024
16788SOL     OW60677   6.944   1.563   6.125  0.1936 -0.5907 -0.0361
16788SOL    HW160678   6.957   1.513   6.044 -1.1686 -2.0154  0.5631
16788SOL    HW260679   6.983   1.509   6.193  2.2076  1.0562  0.2034
16789SOL     OW60680   1.939   4.410  12.319  0.1140  0.1039  0.2520
16789SOL    HW160681   1.945   4.320  12.288 -1.6362  0.1775 -0.3884
16789SOL    HW260682   1.927   4.402  12.414 -1.9678 -0.4610 -0.0153
16790SOL     OW60683   2.107   6.156   7.581 -0.0991 -0.1584  0.5911
16790SOL    HW160684   2.021   6.197   7.572 -0.3134  0.3893  3.8382
16790SOL    HW260685   2.166   6.214   7.534 -1.1804  0.8710  0.4533
16791SOL     OW60686   3.642   9.668  12.359  0.5972  0.1954 -0.3946
16791SOL    HW160687   3.601   9.754  12.367  1.4079  0.5061  0.6581
16791SOL    HW260688   3.591   9.612  12.418 -1.6151 -0.7740 -2.9929
16792SOL     OW60689  11.547   4.099  12.734 -0.5129  0.1703 -0.7785
16792SOL    HW160690  11.535   4.020  12.681 -1.4354  0.5333 -1.1273
16792SOL    HW260691  11.488   4.163  12.696 -0.0570  0.9194 -0.2525
16793SOL     OW60692  11.151   5.424   0.719  0.1692 -0.5243 -0.1066
16793SOL    HW160693  11.241   5.455   0.734  0.1665 -0.7113  0.3283
16793SOL    HW260694  11.118   5.407   0.807 -0.0156 -1.2341 -0.3109
16794SOL     OW60695   3.279   4.724   9.749 -0.0760  0.0198 -0.1294
16794SOL    HW160696   3.236   4.730   9.664  0.9617  2.3790 -0.5559
16794SOL    HW260697   3.358   4.673   9.732 -1.5510 -2.5697  0.2397
16795SOL     OW60698  10.692   3.933  11.084  0.4759 -0.2387 -0.7416
16795SOL    HW160699  10.765   3.968  11.134  0.4294 -0.7035 -0.3421
16795SOL    HW260700  10.685   3.991  11.008  1.5583 -0.4682 -1.0329
16796SOL     OW60701  11.006  11.129  10.821  0.2620 -0.0598  0.0268
16796SOL    HW160702  10.921  11.120  10.778  0.9659 -1.0459 -1.2295
16796SOL    HW260703  11.003  11.067  10.894 -0.3067  0.3672  0.3811
16797SOL     OW60704   4.312   7.462   5.830  0.0455  0.2587  0.2622
16797SOL    HW160705   4.226   7.467   5.789 -0.3313 -3.5471  0.2186
16797SOL    HW260706   4.296   7.486   5.922 -0.7199  1.1295 -0.0849
16798SOL     OW60707   3.906   2.283  10.317 -0.0927 -0.0676  0.7496
16798SOL    HW160708   3.988   2.331  10.329  1.1472 -1.6673 -0.7746
16798SOL    HW260709   3.922   2.198  10.357  0.0279 -1.3672 -1.8850
16799SOL     OW60710  10.726   7.788   2.075  0.3638  0.1120 -0.2257
16799SOL    HW160711  10.708   7.823   1.988 -0.6071  1.1284  0.3587
16799SOL    HW260712  10.748   7.865   2.128  2.9729 -0.6891 -0.0177
16800SOL     OW60713   1.864   8.886   8.271 -0.2116 -0.0889 -0.0631
16800SOL    HW160714   1.835   8.800   8.300  0.0124 -0.3459 -0.6036
16800SOL    HW260715   1.797   8.916   8.210  0.5019 -0.5730 -1.1127
16801SOL     OW60716  11.430   3.811   6.772 -0.0781  0.3167  0.5816
16801SOL    HW160717  11.376   3.850   6.841  0.7552  0.5453  1.1188
16801SOL    HW260718  11.497   3.876   6.755  1.1854 -0.7537  1.3052
16802SOL     OW60719   3.590  11.888   5.073 -0.1958  0.6165 -0.4399
16802SOL    HW160720   3.645  11.826   5.025  0.5641  0.6175  0.4210
16802SOL    HW260721   3.626  11.974   5.052  0.3143  0.6006  0.3372
16803SOL     OW60722  10.024   5.538   9.221 -0.1089  0.4224  0.0611
16803SOL    HW160723   9.968   5.592   9.277  0.6494  0.0305  1.2246
16803SOL    HW260724  10.080   5.601   9.176 -0.7456  0.7442 -0.3047
16804SOL     OW60725   2.260   9.818   3.214 -0.1948 -0.1423 -0.6803
16804SOL    HW160726   2.332   9.755   3.207 -0.2424 -0.3425  0.3854
16804SOL    HW260727   2.263   9.867   3.132  1.4071  0.0993 -0.5201
16805SOL     OW60728  11.137  10.658   1.237  0.8122 -0.4119 -0.1968
16805SOL    HW160729  11.086  10.580   1.214  1.1145 -0.1564 -1.8710
16805SOL    HW260730  11.073  10.718   1.274  0.0267 -0.4368 -1.4379
16806SOL     OW60731   5.144   4.034   6.568  0.6240 -0.8563 -0.4766
16806SOL    HW160732   5.162   3.972   6.638  0.0133 -2.7492 -1.9036
16806SOL    HW260733   5.085   3.987   6.509  0.8310  0.7825 -2.0862
16807SOL     OW60734   8.200   9.981   5.119 -0.0296 -0.3593  0.1680
16807SOL    HW160735   8.172   9.930   5.043  0.8440 -2.4278  1.1487
16807SOL    HW260736   8.288   9.948   5.138  0.2702  1.0384  1.3061
16808SOL     OW60737   7.030   4.634   6.114 -0.0690  0.1260 -0.3607
16808SOL    HW160738   6.952   4.655   6.062 -0.8733  0.0111  0.7621
16808SOL    HW260739   7.093   4.703   6.092 -0.2972 -0.0347 -1.6230
16809SOL     OW60740   4.274   6.597   8.769 -0.3672 -0.8373  0.4344
16809SOL    HW160741   4.295   6.541   8.844  0.5586 -0.8194  0.1950
16809SOL    HW260742   4.237   6.676   8.809 -2.6330 -1.9681  0.7415
16810SOL     OW60743   2.835  12.615   3.312 -0.5948 -0.2405  0.2569
16810SOL    HW160744   2.926  12.585   3.305  0.0291  1.1712  1.7214
16810SOL    HW260745   2.833  12.697   3.263 -1.2407 -0.5388 -0.2361
16811SOL     OW60746   8.476   8.564   0.858  0.3904 -0.2113 -0.0671
16811SOL    HW160747   8.410   8.574   0.790 -0.2345 -3.1930 -0.0390
16811SOL    HW260748   8.447   8.622   0.928  0.1299  1.6466 -1.6130
16812SOL     OW60749   0.166  12.252   7.326 -0.2555  0.1490  0.1028
16812SOL    HW160750   0.109  12.326   7.347 -0.5564  0.1460 -0.6717
16812SOL    HW260751   0.227  12.287   7.261 -0.1340 -0.1723  0.0439
16813SOL     OW60752   2.707  12.579   8.950 -0.0730 -0.3841 -0.0509
16813SOL    HW160753   2.753  12.639   8.892 -0.4027 -0.7162 -0.6560
16813SOL    HW260754   2.769  12.507   8.965  0.1640 -0.1025  0.3401
16814SOL     OW60755   5.348   6.612   8.122 -0.2929  0.4694  0.4402
16814SOL    HW160756   5.366   6.526   8.160  0.7306  0.5451  0.1641
16814SOL    HW260757   5.259   6.633   8.150 -0.4942 -0.6078  0.6371
16815SOL     OW60758   2.935   2.727   2.647 -0.1827  0.5308 -0.3789
16815SOL    HW160759   2.854   2.746   2.598  0.4969  1.7120 -1.1055
16815SOL    HW260760   2.971   2.649   2.605  0.1917  1.3084 -1.5593
16816SOL     OW60761  12.326   9.165  11.655  0.1441  0.3834 -0.4264
16816SOL    HW160762  12.268   9.124  11.590 -1.4782  1.8086  0.0391
16816SOL    HW260763  12.348   9.250  11.618 -0.0852  0.8514  0.4723
16817SOL     OW60764   2.347   2.287   8.089  0.3903  0.1037  0.4262
16817SOL    HW160765   2.363   2.382   8.085 -2.4819  0.6452  0.2239
16817SOL    HW260766   2.254   2.277   8.073  0.2589 -2.6431  2.2536
16818SOL     OW60767   7.484   1.806   4.846 -0.3722  0.5381  0.6488
16818SOL    HW160768   7.458   1.792   4.755  0.3292 -0.2148  0.5510
16818SOL    HW260769   7.499   1.900   4.852  0.8632  0.4344 -0.3765
16819SOL     OW60770  12.062   3.754  10.106  0.0091  0.2930 -0.1953
16819SOL    HW160771  12.062   3.797  10.191 -0.4015 -0.5650  0.2487
16819SOL    HW260772  11.973   3.767  10.073  0.1479  0.5665 -0.4739
16820SOL     OW60773  10.853   9.508   1.373  0.3685  0.5222  0.3508
16820SOL    HW160774  10.939   9.549   1.361  0.4164  0.2611 -0.2424
16820SOL    HW260775  10.798   9.578   1.410  0.4780  1.1092 -0.5621
16821SOL     OW60776  10.807   9.996   9.121 -0.6126 -0.0541  0.6215
16821SOL    HW160777  10.778   9.905   9.120 -1.6945  0.2533 -1.5162
16821SOL    HW260778  10.852  10.006   9.205 -0.9934 -2.3759  1.1671
16822SOL     OW60779   5.228  10.359  12.678  0.0502 -0.2033 -0.3170
16822SOL    HW160780   5.290  10.308  12.626  0.4610  0.1098 -0.1415
16822SOL    HW260781   5.237  10.325  12.767  0.6029  0.4239 -0.1263
16823SOL     OW60782   1.238  11.511  10.061  0.2038 -0.3351  0.5019
16823SOL    HW160783   1.192  11.592  10.040  0.9432  0.0420  0.3017
16823SOL    HW260784   1.199  11.446  10.003  0.0269  0.0124  0.2236
16824SOL     OW60785   7.955   9.918   7.074  0.1112  0.4531 -0.3195
16824SOL    HW160786   7.957   9.979   7.000  0.5554 -1.0512 -1.5995
16824SOL    HW260787   7.883   9.859   7.054  1.6121 -1.3225 -0.7253
16825SOL     OW60788   1.404   8.665  11.921 -0.0258 -0.3503 -0.0132
16825SOL    HW160789   1.431   8.599  11.984  2.6715  0.3421 -0.3468
16825SOL    HW260790   1.423   8.749  11.963  0.9392  0.1314 -1.3459
16826SOL     OW60791  11.170   4.259   4.532  0.8513 -0.4711 -0.6396
16826SOL    HW160792  11.118   4.203   4.589 -0.4847  0.1922 -1.1542
16826SOL    HW260793  11.204   4.327   4.590  0.6008 -0.5477 -0.4032
16827SOL     OW60794   1.455  10.783   9.429 -0.4518 -0.3340  0.3636
16827SOL    HW160795   1.396  10.769   9.503 -1.3393  2.2265  0.2556
16827SOL    HW260796   1.481  10.875   9.437  3.7233 -1.3454  0.4883
16828SOL     OW60797   5.938  12.646   8.298 -0.5023  0.0216 -0.2960
16828SOL    HW160798   5.906  12.722   8.250 -0.6572 -1.4537 -2.6870
16828SOL    HW260799   5.969  12.585   8.230  2.5826 -0.8028  1.6282
16829SOL     OW60800   1.307  12.486   9.536  0.7241 -0.2051 -0.3596
16829SOL    HW160801   1.256  12.412   9.503 -0.1866  0.5536 -0.7200
16829SOL    HW260802   1.301  12.478   9.631  0.2924 -0.3731 -0.3989
16830SOL     OW60803   9.515  11.972   7.015 -0.5035  0.0416 -0.4263
16830SOL    HW160804   9.548  11.910   6.950 -1.1101 -0.2327 -0.4751
16830SOL    HW260805   9.483  12.046   6.963  1.1043  0.8612 -0.3344
16831SOL     OW60806   4.714   1.812   0.769 -0.3134  0.4094  0.2126
16831SOL    HW160807   4.738   1.883   0.710 -0.5210 -0.6712 -1.2426
16831SOL    HW260808   4.633   1.777   0.733  1.0691 -2.1755 -0.7004
16832SOL     OW60809  11.301   5.344   3.237  0.3184 -0.4417 -0.2502
16832SOL    HW160810  11.351   5.397   3.175  0.7616 -1.1731 -0.5281
16832SOL    HW260811  11.350   5.349   3.319  0.7423 -0.9844 -0.4650
16833SOL     OW60812   4.770   1.419  12.501  0.5302  0.0389  0.0416
16833SOL    HW160813   4.716   1.469  12.563 -0.7153  0.5801 -1.4095
16833SOL    HW260814   4.735   1.330  12.506  2.0219 -0.4994  1.8213
16834SOL     OW60815  11.268   0.376   2.416 -0.2573  0.2863 -0.0949
16834SOL    HW160816  11.179   0.389   2.385 -0.4554 -0.7374  0.0012
16834SOL    HW260817  11.262   0.386   2.511 -0.4176 -0.4535 -0.0168
16835SOL     OW60818   2.790   9.258   1.526 -0.2947 -0.7819  0.0400
16835SOL    HW160819   2.756   9.178   1.568 -0.9419  0.2355  1.5483
16835SOL    HW260820   2.713   9.300   1.488 -0.1300 -0.3596  0.1664
16836SOL     OW60821   6.235   9.379   0.256  0.1947 -0.1737  0.5912
16836SOL    HW160822   6.210   9.293   0.224 -1.2180  1.0309 -1.8258
16836SOL    HW260823   6.323   9.393   0.222 -0.4888  0.2432 -1.0870
16837SOL     OW60824   8.576  10.227  12.132 -0.1234  0.2031 -0.0959
16837SOL    HW160825   8.490  10.270  12.122 -0.1662  0.1414  0.0088
16837SOL    HW260826   8.568  10.147  12.079 -0.5229 -0.3747  0.8068
16838SOL     OW60827   9.093   4.372   2.059 -0.4900  0.0506  0.1509
16838SOL    HW160828   9.003   4.395   2.081  0.0427  2.3859  0.1810
16838SOL    HW260829   9.140   4.374   2.143 -0.2896 -0.5240  0.0536
16839SOL     OW60830   4.080   3.269   7.284 -0.0242  0.8832 -0.1021
16839SOL    HW160831   4.132   3.216   7.224 -1.6432 -0.5650 -0.2765
16839SOL    HW260832   4.013   3.309   7.229 -1.0948  0.1056  0.6157
16840SOL     OW60833   8.913   1.964   4.960 -0.2623  0.2220 -0.1303
16840SOL    HW160834   8.890   1.989   4.870  0.3654  0.2747 -0.2791
16840SOL    HW260835   9.006   1.985   4.968  0.2041 -1.6905 -0.1292
16841SOL     OW60836   1.789  12.254   6.923  0.3244 -0.4030 -0.1245
16841SOL    HW160837   1.761  12.163   6.915  0.3833 -0.3256 -1.5828
16841SOL    HW260838   1.885  12.249   6.922  0.3542 -0.2459 -2.0425
16842SOL     OW60839  11.439   2.672   7.766 -0.5577 -0.2286  0.2601
16842SOL    HW160840  11.411   2.760   7.791  1.0810  0.2835  0.4565
16842SOL    HW260841  11.465   2.681   7.674  3.6642  0.6947  1.3151
16843SOL     OW60842   6.779   3.099   7.969 -0.3730  0.5037 -0.3867
16843SOL    HW160843   6.706   3.041   7.945  0.3100 -0.4517 -0.2290
16843SOL    HW260844   6.857   3.047   7.951  0.3239  1.8843 -1.5355
16844SOL     OW60845   4.166   2.812   7.599  0.1491 -0.1952  0.3470
16844SOL    HW160846   4.113   2.884   7.567  0.1173 -0.2776  0.2144
16844SOL    HW260847   4.104   2.750   7.636  0.0150 -0.9353 -1.0420
16845SOL     OW60848   9.143   5.745  12.516  0.4895  0.5692  0.6679
16845SOL    HW160849   9.203   5.677  12.546 -0.9595 -1.7541 -1.3691
16845SOL    HW260850   9.150   5.813  12.583  3.4843 -0.6506  1.7940
16846SOL     OW60851   5.621   4.730   8.927  0.3795  0.1860  0.0097
16846SOL    HW160852   5.680   4.706   8.998  1.0656  0.5301 -0.4325
16846SOL    HW260853   5.603   4.823   8.941  1.6488  0.6218 -1.0437
16847SOL     OW60854   0.773  10.524   0.637 -0.1172  0.8767  0.1817
16847SOL    HW160855   0.760  10.512   0.731 -1.4779  0.7546 -0.0084
16847SOL    HW260856   0.866  10.504   0.624 -0.5050 -2.0391  1.0707
16848SOL     OW60857   1.962  11.978   1.087  0.2612 -0.4235 -0.3261
16848SOL    HW160858   1.927  12.064   1.066 -1.1356  0.7814  5.2761
16848SOL    HW260859   2.046  11.995   1.129  0.0859 -1.7936  0.6441
16849SOL     OW60860  11.511   9.321  11.421 -0.1156 -0.6459  0.7397
16849SOL    HW160861  11.463   9.254  11.372 -1.7843  0.2269  1.1056
16849SOL    HW260862  11.589   9.337  11.369 -1.1648 -0.7248 -0.9348
16850SOL     OW60863   6.564   8.122   7.888  0.6934  0.0909 -0.3087
16850SOL    HW160864   6.492   8.179   7.861  1.5490  1.6361  0.5496
16850SOL    HW260865   6.614   8.175   7.950  1.3817 -1.7060  0.7316
16851SOL     OW60866   0.114   4.798   1.709 -0.2257 -0.2941 -0.2257
16851SOL    HW160867   0.042   4.830   1.654  1.3838  2.2374 -0.9969
16851SOL    HW260868   0.138   4.872   1.764  3.2258 -0.2368 -1.5618
16852SOL     OW60869   5.927   2.353  12.296 -0.2686  0.0504  0.1686
16852SOL    HW160870   5.959   2.406  12.223  1.7727 -2.4646 -0.9194
16852SOL    HW260871   5.983   2.378  12.369  0.7770 -0.6324 -0.3725
16853SOL     OW60872  10.190  10.569  12.022 -0.2729 -0.0873  0.8914
16853SOL    HW160873  10.159  10.487  11.983  0.4623  0.1668 -0.2685
16853SOL    HW260874  10.206  10.626  11.947  0.3401  0.7266  1.6295
16854SOL     OW60875  10.861   0.967   9.465  0.0914 -0.1124  0.3826
16854SOL    HW160876  10.835   0.919   9.386  0.1579 -1.1665  0.9821
16854SOL    HW260877  10.954   0.946   9.476  0.4500  1.1940 -0.0522
16855SOL     OW60878  10.813   3.018   5.358 -0.0734 -0.2561 -0.2193
16855SOL    HW160879  10.825   3.074   5.436 -2.8988  1.4419 -0.8465
16855SOL    HW260880  10.900   3.012   5.320  0.5610  3.4155  0.1982
16856SOL     OW60881   2.694  12.821   6.514 -0.0401  0.7123 -0.0077
16856SOL    HW160882   2.707  12.791   6.424 -1.1187  1.2535 -0.3655
16856SOL    HW260883   2.780  12.855   6.541  0.6888 -0.8629 -0.2712
16857SOL     OW60884   4.617  12.131  10.227  0.3138 -0.2486 -0.0119
16857SOL    HW160885   4.546  12.068  10.220 -0.7595  1.0196 -0.9945
16857SOL    HW260886   4.575  12.216  10.219  1.8052  0.5831  0.5911
16858SOL     OW60887   2.037   6.713   6.153  0.1776  0.1517  0.0302
16858SOL    HW160888   2.025   6.631   6.202 -0.2639  0.4835  0.4939
16858SOL    HW260889   2.019   6.689   6.062  0.9626 -0.4648  0.0277
16859SOL     OW60890  11.244   9.202   1.205 -0.2818 -0.2337  0.3842
16859SOL    HW160891  11.227   9.292   1.233  1.7805  0.0677  0.7943
16859SOL    HW260892  11.182   9.149   1.256 -0.2616  0.7953  1.5303
16860SOL     OW60893   3.570   7.124   5.714  0.2364 -0.4196  0.6578
16860SOL    HW160894   3.500   7.083   5.663 -0.7686  4.9951 -3.1913
16860SOL    HW260895   3.525   7.171   5.784  0.1287  1.1950 -0.4352
16861SOL     OW60896   6.173   2.971   3.161  0.0927 -0.6847  0.0587
16861SOL    HW160897   6.237   3.040   3.181 -0.8490  0.2719 -0.1500
16861SOL    HW260898   6.175   2.913   3.237 -1.1404  1.1462  1.5853
16862SOL     OW60899   6.577   3.444   4.420 -0.0515  0.1963 -0.2310
16862SOL    HW160900   6.574   3.522   4.365  0.7405  0.7822  0.5607
16862SOL    HW260901   6.608   3.474   4.505 -1.1867 -0.7215  0.5421
16863SOL     OW60902  12.475   7.597   7.736 -0.6380 -0.4430  0.0587
16863SOL    HW160903  12.482   7.528   7.669  2.8272  0.2578 -0.4600
16863SOL    HW260904  12.442   7.673   7.688  2.3689  0.2287 -1.1783
16864SOL     OW60905  10.225   4.572   2.292  0.0590  0.0335  0.9241
16864SOL    HW160906  10.140   4.530   2.306 -0.2549  0.1845 -0.4066
16864SOL    HW260907  10.245   4.614   2.376  0.7731 -3.3281  2.5846
16865SOL     OW60908   4.330   1.305   7.682  0.6913  0.2095  0.0175
16865SOL    HW160909   4.251   1.299   7.628 -0.3025 -0.6465  1.5199
16865SOL    HW260910   4.401   1.289   7.620 -0.2652  1.0900 -1.3950
16866SOL     OW60911   1.727   6.422   8.382 -0.2658  0.4024 -0.0589
16866SOL    HW160912   1.747   6.360   8.452  0.6076  0.9283  0.1820
16866SOL    HW260913   1.798   6.410   8.318 -0.0566  1.1738  0.0142
16867SOL     OW60914   3.894   7.964   6.188 -0.2048  0.3342 -0.0245
16867SOL    HW160915   3.888   8.030   6.258 -2.3428 -0.7181  0.9061
16867SOL    HW260916   3.837   7.998   6.119 -2.0291 -0.8225  0.8139
16868SOL     OW60917   8.572   2.832   8.378  0.0569  0.0153 -0.1262
16868SOL    HW160918   8.541   2.921   8.365  0.0436  0.0603  0.1989
16868SOL    HW260919   8.656   2.842   8.421  0.4720 -0.1109 -0.8964
16869SOL     OW60920   3.148  12.656   4.377  0.2011  0.3050 -0.1891
16869SOL    HW160921   3.234  12.617   4.389 -0.8119 -2.3642 -0.8584
16869SOL    HW260922   3.148  12.688   4.287 -0.1083 -1.5272 -0.8805
16870SOL     OW60923   2.523  11.825   2.330 -0.1626  0.3253 -0.0799
16870SOL    HW160924   2.500  11.884   2.258  0.7830 -0.2865 -0.8965
16870SOL    HW260925   2.560  11.882   2.397 -0.6261  0.8387 -0.2523
16871SOL     OW60926   7.063  12.979  12.802  0.2580 -0.2745  0.2957
16871SOL    HW160927   7.088  12.887  12.797 -1.0825 -0.6691  0.3897
16871SOL    HW260928   7.133  13.021  12.851  0.5333 -1.3825  0.8622
16872SOL     OW60929   3.178   0.499   9.193 -0.2004 -0.1044 -0.1727
16872SOL    HW160930   3.154   0.572   9.251 -1.9995 -1.8024  1.3692
16872SOL    HW260931   3.102   0.441   9.196  0.3542 -1.1203 -2.9380
16873SOL     OW60932   5.196  10.533   6.563  0.0147  0.5821 -0.9421
16873SOL    HW160933   5.209  10.618   6.520  1.3015  0.1741 -1.4157
16873SOL    HW260934   5.260  10.531   6.633  1.1876 -0.6537 -1.9905
16874SOL     OW60935   0.590   5.487   1.030 -0.0730  0.3203  0.1472
16874SOL    HW160936   0.605   5.533   1.113  0.1529  0.5708 -0.0313
16874SOL    HW260937   0.495   5.474   1.027 -0.0747  0.2350  0.4840
16875SOL     OW60938   9.165  11.785   9.786 -0.0895  0.0841  0.4039
16875SOL    HW160939   9.118  11.860   9.750  2.2883  1.3958 -0.2028
16875SOL    HW260940   9.156  11.795   9.881 -0.2259  0.8473  0.3191
16876SOL     OW60941  10.768   1.611  12.874  0.5111 -0.4759  0.4490
16876SOL    HW160942  10.773   1.640  12.783  1.1984  0.6545  0.8258
16876SOL    HW260943  10.742   1.689  12.923  3.4883 -0.1026  1.6393
16877SOL     OW60944  11.753  11.905   9.613 -0.2074 -0.1993 -0.0177
16877SOL    HW160945  11.769  11.853   9.534  1.0819 -0.0549  0.1316
16877SOL    HW260946  11.669  11.873   9.646  0.7366 -2.5167  0.3177
16878SOL     OW60947   3.746   4.546   7.300 -0.0882  0.3271  0.2074
16878SOL    HW160948   3.825   4.553   7.353  0.7263  0.6604 -1.0149
16878SOL    HW260949   3.711   4.635   7.296  0.9423  0.7075 -1.3850
16879SOL     OW60950   8.741   0.160   7.025  0.2026 -0.0725  0.2207
16879SOL    HW160951   8.767   0.100   6.955 -0.2331  1.0351 -0.9350
16879SOL    HW260952   8.811   0.154   7.090  0.4824 -1.3276 -0.1755
16880SOL     OW60953   2.204   1.245   1.367 -0.1160  0.3470  0.6222
16880SOL    HW160954   2.218   1.295   1.447 -0.9552  1.5436  0.0581
16880SOL    HW260955   2.189   1.312   1.300  2.5384 -0.5145 -0.9886
16881SOL     OW60956   0.861  12.169  11.421  0.3904 -0.5241  0.6104
16881SOL    HW160957   0.882  12.117  11.344 -2.1096  1.4347 -1.5942
16881SOL    HW260958   0.937  12.226  11.433  0.7833 -0.7911 -0.4805
16882SOL     OW60959   3.686  10.462   6.415 -0.1795 -0.0427  0.1775
16882SOL    HW160960   3.631  10.384   6.408 -1.0500  0.6648 -1.6479
16882SOL    HW260961   3.626  10.530   6.447  0.0961  0.3017 -0.0305
16883SOL     OW60962   4.457  10.678   5.675  0.3361  0.0370  0.5611
16883SOL    HW160963   4.541  10.654   5.634  1.0489  1.3548  1.1959
16883SOL    HW260964   4.479  10.750   5.733 -1.1755  0.0735  1.1168
16884SOL     OW60965   6.518   5.098   6.735  0.8747 -0.1960  0.5742
16884SOL    HW160966   6.540   5.157   6.806 -2.0562 -1.0460  2.3741
16884SOL    HW260967   6.434   5.130   6.702  1.7498 -0.3217 -2.0132
16885SOL     OW60968  10.140   4.960   9.310  0.4395  0.3596  0.0606
16885SOL    HW160969  10.209   4.969   9.376 -0.0632 -0.2463  0.6798
16885SOL    HW260970  10.184   4.980   9.227  1.5687 -0.7792  0.3487
16886SOL     OW60971  12.369  12.885   7.739  0.3475 -0.1494  0.0264
16886SOL    HW160972  12.300  12.820   7.745  0.7578 -0.5172  0.8617
16886SOL    HW260973  12.331  12.964   7.778  0.3059 -0.2739  0.2377
16887SOL     OW60974  12.113   5.328   0.402  0.5215 -0.6508 -0.1456
16887SOL    HW160975  12.042   5.391   0.416  1.6702  1.5618 -3.1783
16887SOL    HW260976  12.068   5.245   0.388 -1.2172 -0.0600  1.3981
16888SOL     OW60977   6.700   6.837   6.866 -0.1812 -0.3078 -0.5384
16888SOL    HW160978   6.718   6.762   6.809  0.3849 -1.0857  0.6175
16888SOL    HW260979   6.777   6.893   6.856  1.9858 -2.4103  2.4615
16889SOL     OW60980  11.383  12.929   7.588 -0.5058 -0.1732  0.0252
16889SOL    HW160981  11.404  12.961   7.500 -1.3257  1.0282  0.2448
16889SOL    HW260982  11.288  12.912   7.585 -0.4082 -0.8463  0.4623
16890SOL     OW60983   1.327   5.328   1.042  0.3428 -0.0731  0.3407
16890SOL    HW160984   1.356   5.304   0.954 -1.0687  0.4588 -0.3081
16890SOL    HW260985   1.330   5.247   1.092 -0.1043 -0.6725 -0.5765
16891SOL     OW60986   2.521   7.784   7.972 -0.2136  0.1681 -0.1009
16891SOL    HW160987   2.565   7.812   7.892 -1.5225  1.6830 -0.3402
16891SOL    HW260988   2.467   7.710   7.946  0.4693 -0.2713 -0.2844
16892SOL     OW60989   4.419   9.649  11.587 -0.4209 -0.0994 -0.8151
16892SOL    HW160990   4.323   9.642  11.588 -0.4466  0.1248  1.0018
16892SOL    HW260991   4.440   9.671  11.496 -1.9349 -1.9212 -1.6652
16893SOL     OW60992   2.011   8.086   3.702 -0.3221 -0.1380  0.6727
16893SOL    HW160993   2.006   8.176   3.734 -0.8862  0.2321 -0.4045
16893SOL    HW260994   2.098   8.079   3.664  0.0573 -0.3362  1.5630
16894SOL     OW60995   0.578   9.760   1.466  0.7086 -0.2895 -0.2051
16894SOL    HW160996   0.540   9.711   1.393 -0.0241  0.6899 -0.4953
16894SOL    HW260997   0.623   9.693   1.519 -1.5110 -1.5213  0.2262
16895SOL     OW60998  10.154   8.855   4.212 -0.4814 -0.3731 -0.1857
16895SOL    HW160999  10.157   8.768   4.173  0.0242 -0.4791  0.0887
16895SOL    HW261000  10.242   8.870   4.245 -0.7289 -0.0097  0.3271
16896SOL     OW61001   9.863   7.297   3.776  0.6325 -0.6424  0.1032
16896SOL    HW161002   9.866   7.204   3.752  0.3068 -0.4354 -0.7873
16896SOL    HW261003   9.800   7.301   3.848 -1.1871 -0.8282 -1.3821
16897SOL     OW61004   3.638  12.901   2.668  0.1224 -0.2001  0.3493
16897SOL    HW161005   3.624  12.960   2.594 -0.2862 -0.5355  0.1603
16897SOL    HW261006   3.733  12.891   2.674  0.5155  3.0644  2.3742
16898SOL     OW61007   7.910   6.364   6.639  0.2074 -0.3282 -0.1937
16898SOL    HW161008   7.944   6.323   6.719  0.6699  0.6271  0.1185
16898SOL    HW261009   7.979   6.349   6.574  1.2535  1.5106  0.4105
16899SOL     OW61010  12.490   6.650   7.227  0.1861  0.0951  0.1903
16899SOL    HW161011  12.449   6.725   7.269 -1.5838 -0.5148 -0.3855
16899SOL    HW261012  12.515   6.681   7.140 -0.2866  0.1026  0.0567
16900SOL     OW61013   0.030  11.413   6.060  0.3180  0.0055  0.3475
16900SOL    HW161014   0.039  11.497   6.015 -0.3468 -0.5198 -0.7751
16900SOL    HW261015  -0.055  11.379   6.033  1.2176 -1.7330 -0.4258
16901SOL     OW61016   3.975  10.630   3.067  0.3529 -0.0891  0.1710
16901SOL    HW161017   4.022  10.623   2.984  0.6483 -0.1799  0.3469
16901SOL    HW261018   3.883  10.617   3.043  0.2302  1.5422 -0.4082
16902SOL     OW61019   4.219   9.693   2.514 -0.2843  0.5877  0.0272
16902SOL    HW161020   4.313   9.685   2.503 -0.3050  1.4245 -0.9328
16902SOL    HW261021   4.182   9.663   2.431 -0.9867 -1.3479  0.9722
16903SOL     OW61022   9.573   6.819   8.628 -0.4746 -0.8756 -0.4376
16903SOL    HW161023   9.662   6.783   8.620  0.5150  0.9456  1.4344
16903SOL    HW261024   9.531   6.765   8.695  0.3217  0.1171  0.9087
16904SOL     OW61025   1.181   8.290   7.972  0.2349 -0.3964 -0.1045
16904SOL    HW161026   1.270   8.284   7.937  1.0024  0.5211  1.5986
16904SOL    HW261027   1.176   8.219   8.036 -0.0174 -0.0190  0.2991
16905SOL     OW61028   0.606   0.481  11.250 -0.1054 -0.7033  0.8131
16905SOL    HW161029   0.630   0.437  11.169 -1.3511 -0.1580  0.1277
16905SOL    HW261030   0.578   0.569  11.224  0.9099  0.0130  2.0019
16906SOL     OW61031  12.089   1.563   8.201  0.1998  0.1880  0.1749
16906SOL    HW161032  12.139   1.607   8.132  1.0332 -1.7213 -0.5016
16906SOL    HW261033  12.078   1.474   8.169 -2.0444  0.0471  1.1845
16907SOL     OW61034   3.885   3.232   9.455  0.6810 -0.0558 -0.0909
16907SOL    HW161035   3.847   3.267   9.536 -0.5380 -1.0137 -0.2235
16907SOL    HW261036   3.894   3.138   9.471  0.1050 -0.3134 -1.1797
16908SOL     OW61037  12.818   6.410   0.294  0.5012 -0.1930  0.2586
16908SOL    HW161038  12.783   6.444   0.377  0.0779 -2.1123  0.9223
16908SOL    HW261039  12.893   6.356   0.320  1.0088  0.0264 -0.7160
16909SOL     OW61040   2.208   6.662   7.217  0.1955  0.3798 -0.8917
16909SOL    HW161041   2.135   6.615   7.256  0.1152  0.4715 -0.9304
16909SOL    HW261042   2.282   6.645   7.275  0.6747 -1.4460 -1.9379
16910SOL     OW61043   3.237   9.888   2.122 -0.1174  0.2534  0.3463
16910SOL    HW161044   3.266   9.807   2.081 -1.3764  1.5897 -3.6213
16910SOL    HW261045   3.145   9.873   2.143  0.1309  0.0928  1.3998
16911SOL     OW61046   6.183   0.917   4.641 -0.0766 -0.5072 -0.0926
16911SOL    HW161047   6.142   1.003   4.655 -1.3931 -1.0899 -0.1699
16911SOL    HW261048   6.243   0.931   4.568  0.2019  0.4927  0.3091
16912SOL     OW61049   5.123   3.115   5.984  0.1022 -0.9797 -0.0859
16912SOL    HW161050   5.042   3.096   5.936  0.8959 -1.0308 -1.4305
16912SOL    HW261051   5.147   3.030   6.023  0.1032 -1.2231 -0.6088
16913SOL     OW61052   8.992   6.886   0.986 -0.3393 -0.2546 -0.4567
16913SOL    HW161053   9.005   6.886   0.892 -2.4294  0.2039 -0.7862
16913SOL    HW261054   8.981   6.793   1.008  0.1993 -0.3664 -0.6372
16914SOL     OW61055   9.732   9.729   1.549 -0.1107  0.3641 -0.1277
16914SOL    HW161056   9.717   9.660   1.613  0.1729 -0.1485 -0.6062
16914SOL    HW261057   9.644   9.753   1.520 -0.1976 -0.0591 -0.2277
16915SOL     OW61058   7.614   2.850   9.815  0.5205  0.6068  0.3838
16915SOL    HW161059   7.683   2.784   9.814  1.4545  1.5421  1.2444
16915SOL    HW261060   7.553   2.822   9.746 -0.3969 -2.4671  2.2486
16916SOL     OW61061   4.639  11.714   9.655  0.0884 -0.6518 -0.4066
16916SOL    HW161062   4.618  11.658   9.730 -0.8641  0.8063  0.4733
16916SOL    HW261063   4.735  11.716   9.653  0.2416  1.1154  2.3095
16917SOL     OW61064   3.361  12.145  12.596  0.2273  0.0892  0.5732
16917SOL    HW161065   3.285  12.129  12.539  1.0895 -0.1392 -0.5372
16917SOL    HW261066   3.346  12.233  12.630 -0.5874  0.0152  0.4377
16918SOL     OW61067   8.873  11.953   1.081 -0.4155 -0.6606  0.5974
16918SOL    HW161068   8.922  12.005   1.017 -0.1810 -1.3234  0.2205
16918SOL    HW261069   8.872  11.865   1.043 -0.5712 -0.9860  1.3532
16919SOL     OW61070   3.927  12.699   6.384  0.0272 -0.2967  0.5393
16919SOL    HW161071   4.016  12.695   6.348  0.0747  1.1632  0.4282
16919SOL    HW261072   3.891  12.781   6.349 -1.2244 -0.6719  0.9120
16920SOL     OW61073  10.231   8.298   2.645  0.2000  0.3079 -0.3315
16920SOL    HW161074  10.268   8.306   2.557  0.0162 -1.2025 -0.5822
16920SOL    HW261075  10.265   8.214   2.678 -1.0376  0.0615  0.3830
16921SOL     OW61076   9.959   6.380   8.329  0.1341  0.0167 -0.0536
16921SOL    HW161077  10.036   6.389   8.384  0.8435 -3.9019 -0.1166
16921SOL    HW261078   9.899   6.325   8.380 -2.0129  1.6352 -0.6643
16922SOL     OW61079   4.348  10.414   9.776 -0.4428  0.7412 -0.4772
16922SOL    HW161080   4.387  10.456   9.699  0.6847 -0.2514 -0.4817
16922SOL    HW261081   4.416  10.422   9.843 -0.1726 -1.0460 -0.4885
16923SOL     OW61082   5.242  11.025   6.495  0.5645 -0.3064  0.0703
16923SOL    HW161083   5.275  11.100   6.546 -1.3890 -0.5998  1.9048
16923SOL    HW261084   5.163  11.058   6.453 -0.4464 -1.3687  1.0873
16924SOL     OW61085   3.634   4.921  11.864 -0.0070  0.1916  0.6757
16924SOL    HW161086   3.719   4.894  11.900 -0.5332  0.4974  2.2607
16924SOL    HW261087   3.588   4.838  11.847  0.8558  0.0030 -0.9216
16925SOL     OW61088   6.679   0.762   2.704 -0.2911 -0.1825 -0.2234
16925SOL    HW161089   6.637   0.690   2.751 -2.5951  0.0739 -1.6817
16925SOL    HW261090   6.653   0.840   2.751  2.4208 -0.2020  1.5106
16926SOL     OW61091   2.464   5.832   0.783  0.0649  0.1888 -0.3518
16926SOL    HW161092   2.410   5.805   0.858 -0.1359  1.9461  0.1871
16926SOL    HW261093   2.501   5.916   0.810  1.5631 -0.0850 -1.4802
16927SOL     OW61094  10.354  11.226   1.983 -0.1069  0.0925 -0.2687
16927SOL    HW161095  10.307  11.215   1.901  0.5156  0.5588 -0.6941
16927SOL    HW261096  10.366  11.136   2.016 -1.4118 -0.0255 -0.0661
16928SOL     OW61097   0.087   5.698  12.383 -0.7495  0.3872 -0.1191
16928SOL    HW161098   0.024   5.766  12.408 -1.3748  0.2430 -1.2194
16928SOL    HW261099   0.117   5.725  12.296  0.6308  0.3872  0.3447
16929SOL     OW61100   8.710   6.109   7.123  0.0961  0.0393 -0.1332
16929SOL    HW161101   8.676   6.027   7.088  1.2600  0.5164 -2.6407
16929SOL    HW261102   8.805   6.099   7.120  0.3415  2.0615 -2.3198
16930SOL     OW61103   1.533   0.101  10.798  0.3383  0.6636  0.6527
16930SOL    HW161104   1.579   0.025  10.761 -0.3931  0.1087  0.8632
16930SOL    HW261105   1.550   0.171  10.735  0.3620  0.1159  0.0271
16931SOL     OW61106   3.256   3.514  11.530 -0.3046 -0.4564  0.4079
16931SOL    HW161107   3.185   3.502  11.468 -0.6243  0.0287  0.6754
16931SOL    HW261108   3.243   3.446  11.596  0.5343 -1.5312 -0.4961
16932SOL     OW61109   1.975  12.508   9.973  0.3681 -0.3665 -0.4637
16932SOL    HW161110   2.060  12.462   9.971  0.8409  0.4970 -2.0211
16932SOL    HW261111   1.982  12.573   9.904 -2.3263 -1.6050 -2.0562
16933SOL     OW61112   9.467   2.876   0.697  0.5562 -0.0253 -0.0325
16933SOL    HW161113   9.375   2.887   0.674  0.9883  0.4692 -1.6383
16933SOL    HW261114   9.472   2.904   0.789 -1.1156 -1.4113  0.5342
16934SOL     OW61115  12.326   5.562   8.669 -0.2272 -0.3418  0.4495
16934SOL    HW161116  12.257   5.518   8.618  0.6500 -1.0985 -0.1191
16934SOL    HW261117  12.282   5.636   8.710 -1.3803 -0.7990  0.0833
16935SOL     OW61118   9.309   0.850   8.422  0.4225 -0.2384  0.2154
16935SOL    HW161119   9.394   0.879   8.390  0.1621  1.2357  0.7787
16935SOL    HW261120   9.323   0.759   8.448  1.7704 -0.0777  0.1197
16936SOL     OW61121  10.249   1.142   9.347 -0.2900 -0.4420  0.1762
16936SOL    HW161122  10.336   1.104   9.330  0.2781  0.3249  1.2864
16936SOL    HW261123  10.193   1.066   9.362 -0.6453 -1.2064 -3.7855
16937SOL     OW61124  12.782   2.179  10.296 -0.2667  0.2187  0.3518
16937SOL    HW161125  12.690   2.163  10.317 -0.0648 -1.5807  0.0919
16937SOL    HW261126  12.830   2.150  10.374  0.1334 -0.2864 -0.0696
16938SOL     OW61127   9.039   7.849   9.860 -0.2208 -0.0858 -0.0095
16938SOL    HW161128   9.124   7.871   9.823  0.2190  0.2182  1.1457
16938SOL    HW261129   8.982   7.922   9.835  0.1536  0.2722  0.1658
16939SOL     OW61130   2.186   2.613   6.066  0.0841 -0.2165  0.0231
16939SOL    HW161131   2.258   2.607   6.003  0.1788  1.4251 -0.0819
16939SOL    HW261132   2.109   2.632   6.013  0.0440  0.4993  0.3142
16940SOL     OW61133  10.887   6.590   7.209  0.0962 -0.3120 -0.7630
16940SOL    HW161134  10.802   6.611   7.248  0.0424  1.5197 -1.7317
16940SOL    HW261135  10.883   6.629   7.122  2.1629  0.4224 -0.5831
16941SOL     OW61136   0.229  11.856   5.799 -0.7966  0.1226 -0.2979
16941SOL    HW161137   0.156  11.914   5.778 -1.7556 -1.1291 -0.5151
16941SOL    HW261138   0.275  11.902   5.870 -1.1740  1.4162 -0.8509
16942SOL     OW61139  12.213   7.291   0.908 -0.3234 -0.0053 -0.5588
16942SOL    HW161140  12.256   7.251   0.984 -1.5050 -0.4089 -0.0686
16942SOL    HW261141  12.284   7.309   0.847  0.7833  1.0250  0.9338
16943SOL     OW61142   9.960  10.221  11.677 -0.5509 -0.0626  0.8162
16943SOL    HW161143   9.892  10.229  11.743 -1.7164 -3.4475  0.2667
16943SOL    HW261144   9.913  10.198  11.596  1.0918 -0.1734 -0.1613
16944SOL     OW61145   5.711   8.825   8.170 -0.0700  0.2111 -0.5716
16944SOL    HW161146   5.689   8.814   8.078 -0.2907  0.0933 -0.5067
16944SOL    HW261147   5.652   8.765   8.216 -0.4185  0.7579 -0.3007
16945SOL     OW61148   0.930  12.230  10.126  0.2001 -0.3454 -0.3551
16945SOL    HW161149   0.945  12.262  10.215  0.1593  0.5008 -0.6475
16945SOL    HW261150   0.839  12.200  10.127  0.4239 -1.0315  0.0873
16946SOL     OW61151  10.316   1.815   9.132  0.2965  0.1823 -0.0013
16946SOL    HW161152  10.301   1.857   9.048 -2.2685 -0.1877  0.1826
16946SOL    HW261153  10.340   1.725   9.110 -1.5489 -0.2580 -0.4002
16947SOL     OW61154   9.416   8.665   2.492 -0.0115  0.0779 -0.3126
16947SOL    HW161155   9.369   8.695   2.414  0.2143  1.0495 -0.0941
16947SOL    HW261156   9.478   8.736   2.510  0.3068 -0.3879  0.4337
16948SOL     OW61157   5.572   8.282   7.704 -0.4567  0.2718  0.3833
16948SOL    HW161158   5.529   8.198   7.719 -0.5016  0.2932  0.3734
16948SOL    HW261159   5.573   8.291   7.608  0.7881 -0.3677  0.3154
16949SOL     OW61160   3.041   0.412   1.043 -0.0984 -1.1691 -0.5513
16949SOL    HW161161   2.993   0.450   0.969  3.2274  0.1905 -2.2205
16949SOL    HW261162   3.085   0.335   1.007  1.7631 -0.3526 -0.1340
16950SOL     OW61163   7.213   4.071   4.232 -0.3534  0.3178  0.0619
16950SOL    HW161164   7.127   4.097   4.263 -0.1534  0.0904  0.8243
16950SOL    HW261165   7.260   4.043   4.311  0.4381  0.5040 -0.3300
16951SOL     OW61166   5.858   9.226  12.517 -0.3766  0.3004 -0.5376
16951SOL    HW161167   5.802   9.182  12.580 -0.4372  1.1497  0.0281
16951SOL    HW261168   5.851   9.319  12.541 -0.4395  0.6404 -1.8284
16952SOL     OW61169  12.691   4.470   4.304 -0.6165 -0.3646 -0.1900
16952SOL    HW161170  12.717   4.478   4.396  0.4831 -3.1753 -0.1765
16952SOL    HW261171  12.649   4.554   4.284  1.4805  1.3583  2.0855
16953SOL     OW61172   6.620   0.016   7.591  0.4781 -0.3232  0.3107
16953SOL    HW161173   6.686  -0.023   7.535  0.4575  1.2906 -0.9165
16953SOL    HW261174   6.670   0.066   7.656  0.4756 -1.1899  1.0040
16954SOL     OW61175   1.520   7.220   5.951  0.2076 -0.9189  0.6703
16954SOL    HW161176   1.569   7.248   6.028  1.2527  0.3699 -0.3951
16954SOL    HW261177   1.499   7.301   5.905  1.2403 -1.7137 -1.3324
16955SOL     OW61178   9.504  10.657   6.982  0.8544  0.5074 -0.4260
16955SOL    HW161179   9.563  10.728   6.956  0.0065  1.3543 -0.0760
16955SOL    HW261180   9.563  10.590   7.017  1.6380  1.2481 -0.2817
16956SOL     OW61181  12.557   9.725   0.326  0.2888 -0.3729 -0.0233
16956SOL    HW161182  12.570   9.676   0.407  1.5835  1.1298  0.7307
16956SOL    HW261183  12.477   9.775   0.341  0.8452  0.3452  0.5696
16957SOL     OW61184   0.424   8.790   6.649 -0.0508  0.7467  0.2789
16957SOL    HW161185   0.341   8.822   6.614 -0.9132 -0.1159  1.4527
16957SOL    HW261186   0.403   8.762   6.738  1.4640  0.3166  0.5272
16958SOL     OW61187  11.373   6.888   0.073 -0.5911 -0.0704  0.2644
16958SOL    HW161188  11.352   6.963   0.129 -0.3302  1.0613 -1.0793
16958SOL    HW261189  11.468   6.888   0.067 -0.6216 -0.0006 -0.3723
16959SOL     OW61190   1.023   9.807   5.481  0.1209 -0.0014 -0.4284
16959SOL    HW161191   0.981   9.747   5.420 -0.7493  0.0575  0.0844
16959SOL    HW261192   1.101   9.760   5.511 -1.2898 -1.5516  1.0649
16960SOL     OW61193   9.348   7.558  10.307 -0.2735  0.5316 -0.1861
16960SOL    HW161194   9.414   7.503  10.350 -0.2362  0.3126 -0.5183
16960SOL    HW261195   9.339   7.520  10.219 -2.3236 -0.7207  0.5010
16961SOL     OW61196  11.063  10.266   4.789 -0.6320 -0.8270  0.1656
16961SOL    HW161197  11.111  10.238   4.867  0.5490 -0.7461 -0.4991
16961SOL    HW261198  10.971  10.249   4.809 -0.2591 -1.7064  1.1985
16962SOL     OW61199  11.444  10.116   1.063  0.0589 -0.3583 -0.2753
16962SOL    HW161200  11.419  10.027   1.040 -2.0480  0.5703 -1.9301
16962SOL    HW261201  11.398  10.133   1.145  1.5514 -1.1769  0.7836
16963SOL     OW61202   4.799   7.235   4.717 -0.2032  0.5965 -0.6510
16963SOL    HW161203   4.712   7.270   4.733 -0.5599  0.8690 -2.9124
16963SOL    HW261204   4.858   7.309   4.731 -0.3727  0.5851  0.2020
16964SOL     OW61205   7.729   5.172   4.512 -0.3575 -0.3104 -0.3204
16964SOL    HW161206   7.792   5.200   4.578 -1.5231 -1.0125  1.1518
16964SOL    HW261207   7.752   5.080   4.494 -1.0580 -0.6414  0.3927
16965SOL     OW61208   0.028  10.731   6.960 -0.7658 -0.3020  0.1612
16965SOL    HW161209   0.095  10.694   6.902 -1.6689 -1.3863 -0.2249
16965SOL    HW261210   0.015  10.820   6.928  0.2645 -0.1765  0.0530
16966SOL     OW61211   8.234  11.274   5.440 -0.1717  0.0721  0.4893
16966SOL    HW161212   8.145  11.257   5.408  0.0774  0.7491 -0.6255
16966SOL    HW261213   8.291  11.241   5.370  0.4233  0.9507  0.5523
16967SOL     OW61214   0.986   0.108   9.869  0.4446  0.0860 -0.0031
16967SOL    HW161215   0.922   0.179   9.878  0.2225  0.0874 -1.3589
16967SOL    HW261216   1.065   0.142   9.910  0.0173  0.6672  0.3702
16968SOL     OW61217  11.092   9.627   3.555  0.0800  0.5388 -0.2668
16968SOL    HW161218  11.082   9.699   3.492 -1.2340  0.5063 -0.1309
16968SOL    HW261219  11.013   9.632   3.609 -0.3721 -1.3851 -0.6646
16969SOL     OW61220  12.373   9.420  12.383 -0.0020  0.5586 -0.0689
16969SOL    HW161221  12.460   9.406  12.419  0.2785 -0.8132 -1.2079
16969SOL    HW261222  12.381   9.501  12.332  0.2566  1.1088  0.8188
16970SOL     OW61223   3.210  10.420   2.161  0.1970 -0.0674 -0.1443
16970SOL    HW161224   3.174  10.364   2.230  1.2414 -1.6113 -0.7979
16970SOL    HW261225   3.287  10.461   2.201 -0.7379  1.1976  0.4304
16971SOL     OW61226   4.471  12.258   7.859  0.2063  0.1083 -0.0447
16971SOL    HW161227   4.394  12.272   7.915 -0.9113  0.9809 -1.7173
16971SOL    HW261228   4.534  12.324   7.888  0.0013 -0.0385  0.7653
16972SOL     OW61229   7.714   0.171   0.287  0.0414  0.9389  0.1473
16972SOL    HW161230   7.690   0.263   0.299  0.0415  0.9538  0.0383
16972SOL    HW261231   7.796   0.161   0.335 -0.6135  0.6743  1.2505
16973SOL     OW61232   7.851   2.795   6.351 -0.5162  0.3966 -0.2107
16973SOL    HW161233   7.844   2.704   6.322  2.1875  0.9213 -2.9742
16973SOL    HW261234   7.925   2.796   6.412  0.0507  0.8539 -0.8895
16974SOL     OW61235   4.088  11.931   1.168 -0.1603 -0.7508  0.1891
16974SOL    HW161236   4.173  11.972   1.152 -0.0540 -0.2172  1.8988
16974SOL    HW261237   4.031  11.967   1.100 -0.7844  4.5389  3.0164
16975SOL     OW61238  11.236   0.197   3.296  0.1895  0.4455  0.1930
16975SOL    HW161239  11.283   0.218   3.376  2.6186  2.1747 -1.5703
16975SOL    HW261240  11.284   0.124   3.258  2.5913  3.1223 -2.3342
16976SOL     OW61241   4.396   4.789   9.373 -0.0045  0.9378 -0.4252
16976SOL    HW161242   4.345   4.708   9.384  0.0800  0.7038 -1.6391
16976SOL    HW261243   4.354   4.835   9.301  0.7714  1.3215 -0.6487
16977SOL     OW61244   5.141   0.528  12.872 -0.0759 -0.6523 -0.2145
16977SOL    HW161245   5.061   0.486  12.905 -0.0537 -0.3355  0.2543
16977SOL    HW261246   5.143   0.507  12.779 -0.3637 -1.2112 -0.0960
16978SOL     OW61247   4.318   1.911   9.455  0.0089 -0.0901  0.1331
16978SOL    HW161248   4.340   1.985   9.511  1.5111  1.0445 -1.8151
16978SOL    HW261249   4.237   1.937   9.411 -0.4021 -0.3762  0.7066
16979SOL     OW61250   8.857  12.965   1.443 -0.1824  0.3691  0.0097
16979SOL    HW161251   8.893  12.876   1.435 -1.0588 -0.2894  2.4058
16979SOL    HW261252   8.932  13.018   1.469  0.1345  0.1314 -0.3932
16980SOL     OW61253   0.288  11.563  10.231  0.0146  0.1318  0.5955
16980SOL    HW161254   0.256  11.536  10.317 -0.7353  2.1958  1.0166
16980SOL    HW261255   0.209  11.569  10.177  0.5398 -1.7234 -0.4583
16981SOL     OW61256  12.255   2.706   9.901 -0.0236 -0.3011 -0.1293
16981SOL    HW161257  12.162   2.701   9.924 -0.0881 -0.0909 -0.3272
16981SOL    HW261258  12.293   2.764   9.967 -0.1750  0.1735 -0.4490
16982SOL     OW61259  10.857   9.977   6.497  0.1830 -0.1130 -0.2458
16982SOL    HW161260  10.787  10.002   6.558 -0.1413 -3.1260  0.7973
16982SOL    HW261261  10.924   9.936   6.553  0.1785 -2.3477 -1.7388
16983SOL     OW61262   7.530  11.301   8.986 -0.3086 -0.1897  0.1876
16983SOL    HW161263   7.482  11.318   8.905 -1.4502  0.2180  0.9249
16983SOL    HW261264   7.566  11.386   9.010  0.0382 -0.3142  0.1110
16984SOL     OW61265   1.976   0.636  12.802 -0.3816  0.5058  0.1666
16984SOL    HW161266   2.011   0.701  12.863  2.6258  1.0306 -1.9297
16984SOL    HW261267   1.974   0.555  12.853 -1.3890  1.5717  1.9455
16985SOL     OW61268   4.724   9.775   7.930 -0.0932  0.4907 -0.7131
16985SOL    HW161269   4.714   9.819   8.014  2.5265  0.0922 -0.1291
16985SOL    HW261270   4.729   9.846   7.866 -0.3477  0.8571 -0.3291
16986SOL     OW61271   0.237  12.720   7.248  0.0819  0.2363 -0.2567
16986SOL    HW161272   0.269  12.697   7.335 -1.3393 -0.1444  0.1952
16986SOL    HW261273   0.261  12.812   7.237  4.2624 -0.7571 -1.3514
16987SOL     OW61274   6.393   5.550   7.055 -0.9637  0.3995 -0.4513
16987SOL    HW161275   6.420   5.586   7.140  0.8347  1.3075 -1.3413
16987SOL    HW261276   6.371   5.626   7.002 -2.8844 -0.2064 -0.5861
16988SOL     OW61277   7.662  10.081   2.531 -0.2013 -0.1098  0.1305
16988SOL    HW161278   7.666   9.988   2.508  0.7447 -0.5235  1.7964
16988SOL    HW261279   7.729  10.122   2.477 -0.8558 -0.3035 -0.8679
16989SOL     OW61280  10.962   0.577   6.797  0.2498 -0.4370 -0.2105
16989SOL    HW161281  10.931   0.487   6.798 -0.2349 -0.3096 -1.5611
16989SOL    HW261282  10.928   0.615   6.878 -0.7295 -1.0826 -0.3067
16990SOL     OW61283   6.768   1.763   6.576  0.1965  0.0209 -0.5114
16990SOL    HW161284   6.797   1.753   6.667  0.2195 -0.0650 -0.5281
16990SOL    HW261285   6.677   1.790   6.583  0.3303  0.4615 -0.4592
16991SOL     OW61286   2.317   9.557   1.395 -0.1071  0.0109  0.0443
16991SOL    HW161287   2.338   9.646   1.367 -0.0163 -0.0578 -0.1049
16991SOL    HW261288   2.299   9.509   1.314 -0.8295  0.0611  0.1636
16992SOL     OW61289  11.072  12.975   1.211  0.3574 -0.5437 -0.0887
16992SOL    HW161290  11.059  12.977   1.306 -3.2895 -0.0093 -0.4355
16992SOL    HW261291  11.129  13.049   1.193  0.1023  0.1119  1.6102
16993SOL     OW61292   1.529   3.175   6.709  0.2616  0.5126 -0.1156
16993SOL    HW161293   1.554   3.122   6.785  2.0462  2.4756  0.7932
16993SOL    HW261294   1.602   3.167   6.649 -0.7247 -0.2741 -1.2359
16994SOL     OW61295  11.590   8.343   3.264  0.2961 -0.4853 -0.7117
16994SOL    HW161296  11.594   8.433   3.232 -1.7032  0.5578  1.6906
16994SOL    HW261297  11.612   8.349   3.356 -2.1848 -2.0527  0.0834
16995SOL     OW61298  10.446  12.235   1.421  0.4857 -0.0464 -0.0557
16995SOL    HW161299  10.363  12.187   1.424  0.1305  0.5607 -0.0940
16995SOL    HW261300  10.489  12.204   1.341  0.4317 -0.5773  0.1152
16996SOL     OW61301   0.944   9.096   6.413 -0.3536 -0.0297 -0.4662
16996SOL    HW161302   0.894   9.174   6.388 -1.0754 -0.6896 -1.1592
16996SOL    HW261303   0.889   9.052   6.478  0.4160  0.4364  0.5170
16997SOL     OW61304   3.733  12.538   1.735  0.5323 -0.3996 -0.0603
16997SOL    HW161305   3.725  12.506   1.825  1.2086 -2.0730 -0.5534
16997SOL    HW261306   3.827  12.532   1.715  0.5004  0.6568 -0.6563
16998SOL     OW61307   0.737   6.127   2.827  0.0766 -0.5442 -0.3420
16998SOL    HW161308   0.759   6.191   2.759 -1.8289  0.7013  0.1570
16998SOL    HW261309   0.650   6.096   2.803 -0.1740 -0.8970  0.9697
16999SOL     OW61310   2.000  12.935   1.498  0.2829 -0.2811 -0.0867
16999SOL    HW161311   1.971  13.027   1.494 -0.3303 -0.4474  0.3977
16999SOL    HW261312   2.092  12.940   1.524  0.1439  0.1902  0.3382
17000SOL     OW61313   8.630   9.326   1.091  0.1391  0.0762  0.0291
17000SOL    HW161314   8.552   9.364   1.130  1.1399  0.8464  1.3768
17000SOL    HW261315   8.654   9.387   1.020 -0.5710 -0.2658 -0.5110
17001SOL     OW61316   7.557  11.445   5.101  0.4045  0.7200 -0.0359
17001SOL    HW161317   7.559  11.491   5.017 -2.5716  1.6163  0.2571
17001SOL    HW261318   7.496  11.372   5.086  0.2320  0.5971  1.2256
17002SOL     OW61319   3.491   3.629   1.072 -0.3607 -0.0814 -0.1283
17002SOL    HW161320   3.413   3.575   1.085 -0.1047 -0.4767 -0.2320
17002SOL    HW261321   3.482   3.699   1.137 -1.0364  0.1426 -0.4612
17003SOL     OW61322   9.328  12.031   0.961 -0.2975  0.4057  0.6035
17003SOL    HW161323   9.315  11.936   0.967 -0.0558  0.3473  0.2790
17003SOL    HW261324   9.240  12.068   0.962 -0.4504  0.1058 -0.2721
17004SOL     OW61325   8.601   8.361   9.106 -0.3743 -0.5674  0.6235
17004SOL    HW161326   8.652   8.443   9.102 -1.6223  0.2188  0.3377
17004SOL    HW261327   8.654   8.298   9.058  0.1588  0.3305 -0.0002
17005SOL     OW61328  11.027  12.520   9.535  0.5026  0.0882  0.1136
17005SOL    HW161329  10.959  12.481   9.590 -1.9542  2.0993 -1.3109
17005SOL    HW261330  11.069  12.585   9.591  0.6170 -0.4742  0.6973
17006SOL     OW61331   0.731   7.194   3.109  0.2898  0.3068  0.3405
17006SOL    HW161332   0.742   7.178   3.203  3.5758 -0.0663  0.0027
17006SOL    HW261333   0.810   7.239   3.083 -1.7812  3.0463 -1.8109
17007SOL     OW61334   6.539  11.813   1.403  0.6217 -0.5724  0.3776
17007SOL    HW161335   6.599  11.846   1.336 -1.1252  0.1091 -0.9365
17007SOL    HW261336   6.541  11.880   1.472  0.5347  0.0299 -0.1914
17008SOL     OW61337   9.752   3.447   4.311  0.3052  0.0717 -0.1819
17008SOL    HW161338   9.724   3.491   4.391  0.2970 -0.1675 -0.0504
17008SOL    HW261339   9.671   3.414   4.272  0.1378  1.4685 -1.0731
17009SOL     OW61340   2.896   5.373   9.332 -0.2236 -0.0948  0.2986
17009SOL    HW161341   2.924   5.458   9.300  0.2669 -0.6288 -0.7507
17009SOL    HW261342   2.859   5.390   9.419 -1.8032  1.4593 -0.6099
17010SOL     OW61343   2.834   6.063   1.809  0.3967 -0.3139 -0.4603
17010SOL    HW161344   2.872   5.975   1.816  1.6435  0.2200 -0.4138
17010SOL    HW261345   2.827   6.093   1.900  1.4351  0.2372 -0.5501
17011SOL     OW61346   8.390   1.036   4.759 -0.2680  0.3359  0.2387
17011SOL    HW161347   8.329   0.989   4.816 -1.6743  1.8712  0.0859
17011SOL    HW261348   8.426   0.968   4.702 -0.7468 -0.8392  1.2872
17012SOL     OW61349   2.670  11.275  12.571 -0.4637  0.1921  0.3802
17012SOL    HW161350   2.742  11.265  12.509  1.6545  1.1638  2.5283
17012SOL    HW261351   2.674  11.196  12.626 -1.6413 -0.1614 -0.0057
17013SOL     OW61352   0.209  12.722   6.782 -0.0064 -0.3205 -0.1775
17013SOL    HW161353   0.295  12.741   6.820  0.7601 -3.1538 -0.2550
17013SOL    HW261354   0.173  12.653   6.839 -1.6520 -0.1041 -0.9224
17014SOL     OW61355  12.049   9.882  11.717 -0.1885 -0.1653 -0.3282
17014SOL    HW161356  12.018   9.970  11.697  0.5248  0.2215  0.2025
17014SOL    HW261357  12.020   9.829  11.643 -0.4692  0.5509 -0.7441
17015SOL     OW61358   0.437   5.438   3.010  0.4095  0.1133 -0.3105
17015SOL    HW161359   0.426   5.406   2.921 -2.2868  1.2475 -0.4548
17015SOL    HW261360   0.409   5.365   3.065  1.3258 -0.3085 -0.3830
17016SOL     OW61361   5.801  12.390   5.715  0.2016  0.3262  0.2166
17016SOL    HW161362   5.762  12.303   5.710 -0.0495  0.5193 -2.5804
17016SOL    HW261363   5.815  12.404   5.808 -0.8124 -2.2222  0.8437
17017SOL     OW61364   8.766   4.677   1.938 -0.4122  0.0139  0.1335
17017SOL    HW161365   8.699   4.628   1.985 -0.3290  0.3927  0.6538
17017SOL    HW261366   8.828   4.703   2.006 -0.5137  0.9267 -0.1167
17018SOL     OW61367   7.704   5.165   3.350 -0.3811 -0.0627 -0.2155
17018SOL    HW161368   7.736   5.254   3.362  0.2039 -0.2327 -0.4724
17018SOL    HW261369   7.783   5.111   3.346 -0.7608 -0.7842  1.3572
17019SOL     OW61370   2.771   4.693   0.623  0.5913 -0.6079  0.0251
17019SOL    HW161371   2.679   4.720   0.625  0.0554 -2.2906 -0.2807
17019SOL    HW261372   2.819   4.771   0.652 -0.8231  0.7034 -0.9586
17020SOL     OW61373   2.959   6.921   9.241 -0.1220  0.9045 -0.6491
17020SOL    HW161374   3.001   6.931   9.156  1.4905  3.0941  0.3134
17020SOL    HW261375   2.979   6.831   9.268  0.8381  0.7493 -1.8298
17021SOL     OW61376   8.740   7.777  10.586 -0.0404  0.4304  0.1720
17021SOL    HW161377   8.650   7.763  10.557 -0.1285  1.8936 -0.3492
17021SOL    HW261378   8.791   7.783  10.506  0.3265  0.7891  0.4262
17022SOL     OW61379  11.097   2.908   2.137 -0.4165 -0.0212  0.0873
17022SOL    HW161380  11.092   2.988   2.084  0.9158  0.2704  0.3681
17022SOL    HW261381  11.006   2.882   2.149 -0.9231  1.7867  0.4813
17023SOL     OW61382   7.327   2.769   5.444  0.2830  0.0580  0.4905
17023SOL    HW161383   7.291   2.773   5.356 -1.2715  1.6558  1.1240
17023SOL    HW261384   7.416   2.734   5.433 -0.7542 -2.2203 -1.3678
17024SOL     OW61385   9.467   8.778  12.004 -0.4571  0.0579  0.4465
17024SOL    HW161386   9.462   8.725  12.083  1.7749 -0.1675  0.5014
17024SOL    HW261387   9.542   8.743  11.956 -0.9198  1.0716 -1.1091
17025SOL     OW61388   1.590   2.578   1.174  0.2860 -0.8102  0.1504
17025SOL    HW161389   1.600   2.642   1.103 -0.3328  1.4767  2.0113
17025SOL    HW261390   1.636   2.616   1.248 -1.0200 -2.0140  1.6660
17026SOL     OW61391   0.036   6.224   0.338 -0.5662  0.1487  0.1844
17026SOL    HW161392   0.079   6.139   0.348  0.3652  0.5706 -0.0577
17026SOL    HW261393   0.099   6.276   0.288 -1.6271  0.6157 -0.6999
17027SOL     OW61394   2.661  11.371   2.524  0.3710  0.2951 -0.0830
17027SOL    HW161395   2.604  11.309   2.479 -0.1191 -0.5095  1.5476
17027SOL    HW261396   2.643  11.455   2.483  0.6875 -0.5267 -2.0203
17028SOL     OW61397   4.373   2.242   6.407  0.1767 -0.1612  0.1251
17028SOL    HW161398   4.281   2.219   6.418 -0.5165  1.1356 -2.4083
17028SOL    HW261399   4.410   2.168   6.358 -0.4010  0.8536 -1.9245
17029SOL     OW61400   4.428   5.171   0.989  0.0014 -0.3384  0.5490
17029SOL    HW161401   4.484   5.209   1.056 -1.0964 -0.8723  1.8130
17029SOL    HW261402   4.379   5.244   0.953  0.3971 -0.0850  0.5246
17030SOL     OW61403   8.346   0.768   1.900 -0.0484 -0.1385  0.3744
17030SOL    HW161404   8.398   0.691   1.876  0.8703  0.1459  1.3721
17030SOL    HW261405   8.320   0.751   1.991 -0.8315  0.1945  0.2113
17031SOL     OW61406  11.344  12.980   9.733 -0.3295 -0.3652 -0.5184
17031SOL    HW161407  11.323  12.977   9.640 -0.7269 -1.8395 -0.4054
17031SOL    HW261408  11.263  12.954   9.777 -0.4978  1.4405  0.3178
17032SOL     OW61409   2.343   3.699   6.365 -0.1797 -0.0494 -0.2410
17032SOL    HW161410   2.260   3.741   6.341 -0.7958 -1.7315 -1.2332
17032SOL    HW261411   2.395   3.703   6.285  0.1867 -0.1783 -0.0103
17033SOL     OW61412   8.197   0.297   3.971  0.5532  0.1840 -0.3556
17033SOL    HW161413   8.274   0.343   3.937  1.6029 -2.0323 -1.1532
17033SOL    HW261414   8.142   0.281   3.895 -0.9221  1.9513  0.2358
17034SOL     OW61415   8.138  12.145   4.836  0.3427  0.2466 -0.3248
17034SOL    HW161416   8.100  12.172   4.752  0.6595 -1.0682 -0.9145
17034SOL    HW261417   8.110  12.054   4.848 -0.2733  0.6197  1.3495
17035SOL     OW61418   9.407   3.142  11.554 -0.7154 -0.5160  0.5605
17035SOL    HW161419   9.477   3.202  11.528 -0.3292 -0.1284  2.3120
17035SOL    HW261420   9.400   3.080  11.482 -0.0556  0.7155 -0.6156
17036SOL     OW61421   0.547   4.697   1.927  0.5211  0.8170 -0.5625
17036SOL    HW161422   0.478   4.763   1.938  0.4904  0.4371  2.2997
17036SOL    HW261423   0.504   4.614   1.950  1.3936  0.2588 -0.9179
17037SOL     OW61424   8.430   8.476   8.876  0.2429  0.2994 -0.1507
17037SOL    HW161425   8.441   8.401   8.935 -0.8694  0.1431 -0.1096
17037SOL    HW261426   8.517   8.514   8.868  0.2865  0.7621  2.1552
17038SOL     OW61427  10.430  11.567   2.894 -0.1508  0.3313 -0.4598
17038SOL    HW161428  10.344  11.602   2.919  0.5247  2.2801 -0.7281
17038SOL    HW261429  10.447  11.498   2.959 -0.7485  1.7380  1.2652
17039SOL     OW61430   3.660   9.694   2.926  0.3239 -0.0740 -0.3123
17039SOL    HW161431   3.719   9.769   2.918  0.2441 -0.0796 -1.0557
17039SOL    HW261432   3.575   9.732   2.947  0.0207  0.1681 -1.8158
17040SOL     OW61433   5.911   5.087   7.610 -0.7370  0.3020  0.4110
17040SOL    HW161434   5.932   5.177   7.636  0.9682 -0.1942  0.8782
17040SOL    HW261435   5.912   5.037   7.691 -1.7315 -0.1508  0.1649
17041SOL     OW61436   2.119   8.594   7.139 -0.2500  0.6062 -0.0912
17041SOL    HW161437   2.141   8.687   7.142 -1.0034  0.7815  0.4257
17041SOL    HW261438   2.023   8.593   7.143 -0.4104 -0.0957 -2.5929
17042SOL     OW61439   1.229  11.803  11.159 -0.5644  0.1416 -0.1896
17042SOL    HW161440   1.200  11.864  11.091  0.7061  0.0871 -0.8215
17042SOL    HW261441   1.190  11.720  11.134 -0.1127  0.1233 -0.8774
17043SOL     OW61442   3.777  10.937  12.582  0.1051  0.1903 -0.1265
17043SOL    HW161443   3.684  10.915  12.577  0.1287  0.2676 -1.1628
17043SOL    HW261444   3.779  11.030  12.606 -0.0549 -0.0133  0.7238
17044SOL     OW61445  11.460  10.194   4.180 -0.3158  0.7895 -0.2461
17044SOL    HW161446  11.393  10.130   4.204 -0.3399  1.4429  1.5519
17044SOL    HW261447  11.474  10.179   4.086 -1.7467 -0.4887 -0.3031
17045SOL     OW61448   6.353   4.468   5.360 -0.2715  0.4935  0.6278
17045SOL    HW161449   6.339   4.433   5.272 -0.9717  1.4080  0.3561
17045SOL    HW261450   6.326   4.397   5.419 -0.2245  0.0371  0.1065
17046SOL     OW61451   6.766   5.946  11.749  1.2632  0.0020  0.3266
17046SOL    HW161452   6.726   5.971  11.833  0.2295  0.4076 -0.2573
17046SOL    HW261453   6.779   6.030  11.704 -1.2037 -0.3530 -1.2110
17047SOL     OW61454   5.940   9.576   3.797 -0.6560 -0.8549  0.4032
17047SOL    HW161455   5.917   9.496   3.751  0.0303 -0.8477  0.0253
17047SOL    HW261456   5.917   9.646   3.737 -0.8726 -0.7860  0.5649
17048SOL     OW61457  12.701  11.091   6.338 -0.3778 -0.1213  0.0196
17048SOL    HW161458  12.717  10.997   6.327 -1.4018 -0.6472  2.3966
17048SOL    HW261459  12.607  11.102   6.322 -0.6523  0.1241  1.6600
17049SOL     OW61460   0.163   3.135  10.272 -0.1099  0.4180  0.1047
17049SOL    HW161461   0.110   3.103  10.199 -1.6444  0.1520  1.2855
17049SOL    HW261462   0.221   3.061  10.293  0.4183  0.5290 -0.8663
17050SOL     OW61463  11.675   2.667   1.998  0.0195  0.1199 -0.6288
17050SOL    HW161464  11.681   2.749   1.949 -0.5537  1.1971  1.0220
17050SOL    HW261465  11.724   2.604   1.945  0.9026  1.6347 -1.7046
17051SOL     OW61466   5.369   0.658   5.878  0.1450  0.1140  0.1302
17051SOL    HW161467   5.339   0.584   5.826  0.1121  0.0236  0.2792
17051SOL    HW261468   5.295   0.718   5.879  0.2825  0.2935 -0.2602
17052SOL     OW61469  10.487   3.167   4.276  0.2040 -0.6315  1.0292
17052SOL    HW161470  10.408   3.212   4.247 -0.5674 -2.4212  0.2038
17052SOL    HW261471  10.455   3.098   4.335  1.3928  0.1655  2.7114
17053SOL     OW61472   7.685   8.154  12.169 -0.5221 -0.2327 -0.3376
17053SOL    HW161473   7.621   8.122  12.232  0.3219  0.5608  0.9660
17053SOL    HW261474   7.767   8.111  12.193  0.2624  1.5877  0.4325
17054SOL     OW61475   8.307   1.179   2.845 -0.1900 -0.6396 -0.4648
17054SOL    HW161476   8.398   1.149   2.850 -0.0165 -0.3681 -1.5792
17054SOL    HW261477   8.281   1.194   2.936  0.9156 -0.6226 -0.1370
17055SOL     OW61478   0.254   2.654   9.507  0.1828 -0.1181  0.1773
17055SOL    HW161479   0.276   2.640   9.599 -0.3037  1.9464  0.6629
17055SOL    HW261480   0.171   2.701   9.509  0.7339  1.0184 -1.2461
17056SOL     OW61481   9.420   9.380   0.033 -0.4226 -0.4797  0.4031
17056SOL    HW161482   9.484   9.317   0.002 -0.6315 -1.8050  2.4612
17056SOL    HW261483   9.439   9.389   0.127 -2.0921  0.4799  0.6892
17057SOL     OW61484  10.163   1.661   1.051  0.2806 -0.5850 -0.1186
17057SOL    HW161485  10.235   1.609   1.014  0.4123 -0.6481  0.2164
17057SOL    HW261486  10.123   1.603   1.116 -0.1914 -0.6149 -0.4337
17058SOL     OW61487   3.320   0.546   9.461 -0.3848 -0.1298  1.2056
17058SOL    HW161488   3.282   0.458   9.466 -0.0536 -0.2598  1.4898
17058SOL    HW261489   3.252   0.600   9.422 -0.1804 -0.7574 -0.0818
17059SOL     OW61490  10.390  11.742   7.003  0.4992 -0.0812 -1.0213
17059SOL    HW161491  10.471  11.771   6.961  1.7148 -0.3620  1.0136
17059SOL    HW261492  10.416  11.668   7.057 -0.4810  1.4714  1.7981
17060SOL     OW61493   1.552   4.958   9.568 -0.2025  0.1456  0.1771
17060SOL    HW161494   1.611   4.889   9.540 -1.4689 -0.6999 -0.5028
17060SOL    HW261495   1.540   4.943   9.662 -0.9409 -0.9563 -0.0754
17061SOL     OW61496   9.918   5.449   0.647  0.0720  0.1838 -0.1723
17061SOL    HW161497   9.930   5.422   0.738 -1.1847  1.9250  0.5719
17061SOL    HW261498   9.829   5.483   0.644  0.7071  1.8752 -1.5945
17062SOL     OW61499   2.622   0.653   1.581 -0.2089 -0.5808 -0.6759
17062SOL    HW161500   2.578   0.703   1.513  1.0508  0.6611 -0.6310
17062SOL    HW261501   2.577   0.677   1.662  0.5636  0.7398 -0.6179
17063SOL     OW61502   7.352   8.761   5.831 -0.0377  0.0983  0.0497
17063SOL    HW161503   7.282   8.809   5.875  0.6424  0.4762  0.7418
17063SOL    HW261504   7.377   8.693   5.893 -0.6434 -0.8468 -0.7166
17064SOL     OW61505  12.681   8.653   0.396 -0.5373  0.2853  0.2923
17064SOL    HW161506  12.696   8.609   0.312  0.4282  1.3205 -0.0970
17064SOL    HW261507  12.670   8.582   0.459  3.4215 -0.6795  0.1579
17065SOL     OW61508   7.791   2.868   2.161  0.5693 -0.0900  0.2730
17065SOL    HW161509   7.845   2.937   2.122 -0.0209  0.8051  0.9937
17065SOL    HW261510   7.851   2.797   2.179  1.3951  0.6465  0.4735
17066SOL     OW61511   8.526   1.500  10.240  0.2389  0.1162  0.3758
17066SOL    HW161512   8.455   1.504  10.305 -1.7780  0.7603 -1.7144
17066SOL    HW261513   8.510   1.418  10.193  0.4744  0.6015 -0.5592
17067SOL     OW61514   7.399   7.799   5.282 -0.2698 -0.0338 -0.4440
17067SOL    HW161515   7.459   7.849   5.337  2.1691 -2.5763 -0.5750
17067SOL    HW261516   7.330   7.770   5.341  0.1895  0.5719  0.3991
17068SOL     OW61517   6.623   8.799  12.753 -0.0816 -0.1223 -0.0703
17068SOL    HW161518   6.609   8.826  12.844  0.3459  0.2146 -0.1008
17068SOL    HW261519   6.609   8.705  12.754  1.9648 -0.4675  0.7681
17069SOL     OW61520  11.548   9.673  12.838 -0.2811  0.4865  0.2378
17069SOL    HW161521  11.474   9.615  12.823 -0.5408  0.6833  0.7222
17069SOL    HW261522  11.620   9.615  12.863  0.2026  0.1370 -1.7638
17070SOL     OW61523   0.366   7.173   7.117  0.5939 -0.0342 -0.1805
17070SOL    HW161524   0.303   7.233   7.078 -0.0675 -1.4247 -1.3820
17070SOL    HW261525   0.452   7.205   7.089  0.4153  1.5033  0.9287
17071SOL     OW61526  12.960  12.682   6.276 -0.2282 -0.1863  0.3742
17071SOL    HW161527  13.038  12.666   6.223  0.4132  0.3504  1.1395
17071SOL    HW261528  12.943  12.776   6.266 -1.0166 -0.3732 -0.1057
17072SOL     OW61529  11.485   2.628   6.422  0.1087 -0.0596 -0.1028
17072SOL    HW161530  11.559   2.653   6.368 -0.7227  3.7129  0.2005
17072SOL    HW261531  11.524   2.593   6.502  1.3724 -2.6042 -1.6991
17073SOL     OW61532   4.475   0.072  11.026  0.0443  0.1604 -0.0457
17073SOL    HW161533   4.403   0.026  11.069  0.2324 -0.2231 -0.1448
17073SOL    HW261534   4.433   0.119  10.954  0.0058 -0.7229 -0.6155
17074SOL     OW61535   0.407  10.324   0.324  0.4002  0.1113 -0.3879
17074SOL    HW161536   0.414  10.413   0.358  0.8899 -0.3429  0.7552
17074SOL    HW261537   0.498  10.298   0.306  0.2816 -0.2249 -0.5121
17075SOL     OW61538  10.924   3.592   3.353 -0.3712  0.1588  0.1048
17075SOL    HW161539  10.975   3.631   3.282 -0.1233 -0.8880 -0.3133
17075SOL    HW261540  10.959   3.632   3.433  2.0632 -1.4871 -0.0464
17076SOL     OW61541   6.037   7.171  12.758 -0.1023  0.8807  0.0353
17076SOL    HW161542   6.008   7.207  12.841 -1.1560  1.8664 -0.7200
17076SOL    HW261543   6.107   7.110  12.781  1.1702  2.7773  1.4290
17077SOL     OW61544   6.637   0.279   7.972 -0.0207  0.2793 -0.4113
17077SOL    HW161545   6.577   0.205   7.979 -0.1387  0.4280  0.1898
17077SOL    HW261546   6.675   0.288   8.059  0.2219  0.7358 -0.5574
17078SOL     OW61547  11.388   1.887   8.090 -0.0137  0.1844  1.3243
17078SOL    HW161548  11.326   1.952   8.057 -0.0611 -0.8858 -0.9292
17078SOL    HW261549  11.336   1.806   8.096  0.6797 -0.2622  1.4005
17079SOL     OW61550  10.063   6.572   4.873  0.2083  0.2797  0.2097
17079SOL    HW161551  10.017   6.525   4.942 -1.4785 -0.1017 -1.1021
17079SOL    HW261552  10.128   6.510   4.840 -0.6920 -0.4497 -0.2186
17080SOL     OW61553   9.167   6.039   2.117  0.1325 -0.2913  0.1283
17080SOL    HW161554   9.241   5.998   2.163 -0.7232 -0.2026  1.6638
17080SOL    HW261555   9.090   6.009   2.166 -1.0808 -1.9956 -2.5882
17081SOL     OW61556  10.116   1.358   1.853  0.3056 -0.3300  0.0196
17081SOL    HW161557  10.116   1.372   1.948 -1.5401 -1.2853  0.2050
17081SOL    HW261558  10.025   1.340   1.831  0.4664  1.0625 -2.1484
17082SOL     OW61559   4.709   4.828   5.849  0.3554 -0.3003 -0.0427
17082SOL    HW161560   4.710   4.880   5.930  1.7523 -0.2407 -0.0781
17082SOL    HW261561   4.758   4.881   5.786  0.3416 -0.9108 -0.5784
17083SOL     OW61562   6.064  10.545   9.231  0.2115  0.5151 -0.4100
17083SOL    HW161563   6.080  10.501   9.147 -0.5641  0.3127 -0.4570
17083SOL    HW261564   6.013  10.483   9.282  1.3505  0.3163  0.5303
17084SOL     OW61565  10.454  11.983   1.863 -0.0822  0.1461  0.2349
17084SOL    HW161566  10.360  11.996   1.853 -0.2016 -0.2128  0.8573
17084SOL    HW261567  10.474  11.904   1.813 -0.2046 -0.0760  0.5340
17085SOL     OW61568   4.351   0.808   5.474 -0.4202 -0.4790  0.2647
17085SOL    HW161569   4.407   0.800   5.552 -0.1628  1.0947  0.2745
17085SOL    HW261570   4.410   0.788   5.401  0.0972  0.8045  0.3018
17086SOL     OW61571   8.728   3.462   8.780 -0.0272  0.0236  0.2737
17086SOL    HW161572   8.794   3.458   8.711  0.2077 -2.0864  0.5679
17086SOL    HW261573   8.681   3.544   8.763  1.0385  0.3285 -1.4293
17087SOL     OW61574   0.821   7.836   5.259  0.1956  0.1373 -0.3767
17087SOL    HW161575   0.758   7.796   5.321  0.8039  0.0631  0.2055
17087SOL    HW261576   0.895   7.862   5.314 -0.1369  2.0220 -0.7526
17088SOL     OW61577  10.154   2.541   6.910  0.1119 -0.6780 -0.0507
17088SOL    HW161578  10.216   2.547   6.983 -2.0745  0.0297  1.8787
17088SOL    HW261579  10.132   2.448   6.904  0.3100 -0.7414  0.2143
17089SOL     OW61580   0.065   2.721   7.924 -0.3969 -0.4626 -0.0679
17089SOL    HW161581   0.063   2.815   7.941  0.6860 -0.3881 -0.2835
17089SOL    HW261582   0.093   2.682   8.006 -0.5734 -0.5811 -0.0620
17090SOL     OW61583  10.296  11.969  11.197 -0.4343 -0.1179 -0.0966
17090SOL    HW161584  10.362  12.032  11.167  0.8136 -1.7627 -0.9791
17090SOL    HW261585  10.223  11.982  11.137  0.1851 -0.1246 -0.8859
17091SOL     OW61586   0.926   5.830   9.874  0.3450 -1.2882 -0.2215
17091SOL    HW161587   0.883   5.762   9.926  1.5187 -0.4511  1.9762
17091SOL    HW261588   1.001   5.857   9.927  0.6089  0.8766 -1.5825
17092SOL     OW61589  11.728   0.049  11.258  0.1695 -0.2350 -0.1142
17092SOL    HW161590  11.795   0.096  11.208  0.3789  0.4082  0.7514
17092SOL    HW261591  11.757  -0.042  11.255  0.5158 -0.1160 -0.6309
17093SOL     OW61592   9.256   8.676   9.822 -0.4322 -0.3311 -0.0782
17093SOL    HW161593   9.291   8.649   9.907  0.4889  1.5769  0.1992
17093SOL    HW261594   9.325   8.730   9.784 -1.4628  0.1248 -1.3619
17094SOL     OW61595   9.610  11.453   4.842 -0.1214 -0.4896 -0.4157
17094SOL    HW161596   9.523  11.414   4.849  0.5022 -1.7022  0.9671
17094SOL    HW261597   9.671  11.379   4.851  1.0689  0.4965 -0.0779
17095SOL     OW61598   6.368  12.147   2.154 -0.4213 -0.6521 -0.2286
17095SOL    HW161599   6.353  12.234   2.117  1.1332 -0.5779 -0.7532
17095SOL    HW261600   6.400  12.095   2.081 -0.0473 -1.2990  0.3857
17096SOL     OW61601   8.803  10.509   4.834 -0.2338 -0.2984  0.2115
17096SOL    HW161602   8.875  10.447   4.844  0.0407 -0.2849 -1.4175
17096SOL    HW261603   8.829  10.585   4.886  0.3280 -0.7779  0.6418
17097SOL     OW61604   2.480   5.049  12.672 -0.6145 -0.0346  0.0774
17097SOL    HW161605   2.401   5.057  12.727 -0.2598 -0.9580  0.7429
17097SOL    HW261606   2.447   5.023  12.586 -0.9845 -1.5168  0.6336
17098SOL     OW61607   3.417   1.046   7.926 -0.0126  0.0758 -0.0561
17098SOL    HW161608   3.484   1.079   7.986 -0.3079  0.3175  0.1455
17098SOL    HW261609   3.383   1.124   7.883 -0.5168  0.0118  0.2152
17099SOL     OW61610  11.415   0.320   5.247 -0.1761 -0.0143  0.2169
17099SOL    HW161611  11.388   0.256   5.313 -0.3232 -0.6568 -0.4584
17099SOL    HW261612  11.332   0.357   5.215 -0.1862 -0.7366 -0.6189
17100SOL     OW61613  10.497  10.586  12.565 -0.4824 -0.6116 -0.7909
17100SOL    HW161614  10.575  10.594  12.619 -0.0985  1.3566 -1.5733
17100SOL    HW261615  10.527  10.539  12.486  0.4960  1.9282 -2.0350
17101SOL     OW61616   8.854   4.414   6.066  0.5914 -0.5574  0.2098
17101SOL    HW161617   8.896   4.370   6.140  3.3681  1.1932 -0.1778
17101SOL    HW261618   8.907   4.389   5.990  0.1009  0.6738 -0.5685
17102SOL     OW61619   0.654   9.293  12.906 -0.1692  0.2294  0.0948
17102SOL    HW161620   0.724   9.345  12.867  0.1675 -0.4522 -0.2409
17102SOL    HW261621   0.593   9.357  12.943 -0.1019  0.8707 -0.8819
17103SOL     OW61622   1.051   8.872  11.888 -0.1393  0.0518  0.2274
17103SOL    HW161623   0.975   8.815  11.898  0.1769 -0.1665  1.5653
17103SOL    HW261624   1.083   8.853  11.800  0.7248 -2.8452  1.0444
17104SOL     OW61625   6.164   4.788   2.318  0.1275  0.1619 -0.0700
17104SOL    HW161626   6.220   4.838   2.378  0.6432  0.6093 -0.9044
17104SOL    HW261627   6.092   4.847   2.298 -0.9233 -0.5709  1.3461
17105SOL     OW61628  10.536   5.473   6.629  0.8804  0.4031 -0.8045
17105SOL    HW161629  10.511   5.565   6.639  4.5750  1.5911 -0.9205
17105SOL    HW261630  10.564   5.466   6.537  1.8780 -0.4529 -0.4515
17106SOL     OW61631   4.334   8.262   5.117 -0.2931  0.1987 -0.2162
17106SOL    HW161632   4.280   8.328   5.073 -2.0537 -1.9504 -1.4897
17106SOL    HW261633   4.306   8.265   5.208  0.5717  2.0112  0.0354
17107SOL     OW61634   7.338   7.349   6.983 -0.4235 -0.3749  0.6542
17107SOL    HW161635   7.376   7.288   6.920 -1.3267  0.6831 -0.9970
17107SOL    HW261636   7.371   7.435   6.957 -2.4759  0.3518  0.2413
17108SOL     OW61637   1.054   2.216  10.717 -0.0084  0.3976 -0.5339
17108SOL    HW161638   1.105   2.289  10.682  1.2986 -1.7137 -3.4516
17108SOL    HW261639   1.016   2.174  10.639 -2.2989 -0.9314  1.1887
17109SOL     OW61640   7.391  11.974   5.815 -0.0635 -0.8627  0.1300
17109SOL    HW161641   7.330  11.919   5.765 -1.7871  0.5235  0.6182
17109SOL    HW261642   7.343  12.055   5.830  1.9771  0.3407  0.4621
17110SOL     OW61643   8.054   0.577   2.901 -0.0490  0.3208 -0.6776
17110SOL    HW161644   7.986   0.574   2.834  0.8851  0.5104 -1.6806
17110SOL    HW261645   8.127   0.527   2.862  0.6554  0.7714  0.0322
17111SOL     OW61646   7.423   3.976   4.679  0.7293  0.3387 -0.0196
17111SOL    HW161647   7.373   4.050   4.713  2.2994  1.2807  0.3365
17111SOL    HW261648   7.397   3.902   4.733 -0.0507  0.8580  0.3351
17112SOL     OW61649   5.005  11.465  10.135 -0.7152 -0.1574 -0.4632
17112SOL    HW161650   5.042  11.393  10.085 -0.1340  0.8628 -1.5314
17112SOL    HW261651   4.937  11.502  10.078 -0.4065  0.6886 -0.2984
17113SOL     OW61652   6.682   8.112  10.061  0.1099 -0.1373 -0.7915
17113SOL    HW161653   6.723   8.104   9.975 -1.7595  2.0827 -2.0188
17113SOL    HW261654   6.676   8.207  10.075 -0.4695 -0.4418  1.3901
17114SOL     OW61655   1.874   2.886   3.949 -0.6963  0.2550 -0.8509
17114SOL    HW161656   1.878   2.978   3.975 -0.8948  0.3111 -1.0182
17114SOL    HW261657   1.965   2.861   3.935 -0.5710  0.2040 -0.0318
17115SOL     OW61658   0.055   8.346   4.250  0.5108 -0.0127  0.3303
17115SOL    HW161659   0.050   8.265   4.200  0.5992  0.4465 -0.4458
17115SOL    HW261660  -0.013   8.338   4.317  0.0196 -0.4185 -0.2086
17116SOL     OW61661  10.797  11.725  12.373  0.5782 -0.0112  0.5703
17116SOL    HW161662  10.778  11.697  12.283 -0.4008 -1.4647  1.2017
17116SOL    HW261663  10.713  11.724  12.417  0.8484  1.9244  1.2200
17117SOL     OW61664   0.290   7.727   0.347 -0.4285  0.0775 -0.0723
17117SOL    HW161665   0.203   7.759   0.320 -0.5558 -0.2853 -0.0984
17117SOL    HW261666   0.274   7.680   0.429 -0.6376 -1.8735 -1.1619
17118SOL     OW61667   8.046   9.356   5.314 -0.0727  0.1409  0.5799
17118SOL    HW161668   8.039   9.442   5.272 -0.7099  0.2130  0.8126
17118SOL    HW261669   8.104   9.370   5.389 -0.3099  0.4176  0.7166
17119SOL     OW61670   1.802   2.228   8.962  0.5020  0.5992 -0.0742
17119SOL    HW161671   1.892   2.249   8.988 -0.2723  1.8039  1.7793
17119SOL    HW261672   1.781   2.148   9.011  1.3967 -1.2825 -2.5487
17120SOL     OW61673   9.942   9.409   1.722  0.0222  0.6387 -0.9928
17120SOL    HW161674   9.976   9.496   1.701  0.4224  0.3583 -1.5375
17120SOL    HW261675   9.901   9.379   1.641  0.7277 -0.0650 -1.1053
17121SOL     OW61676   0.820   5.864   5.879 -0.0569  0.6993 -0.1757
17121SOL    HW161677   0.828   5.907   5.965 -1.0797  1.0446 -0.2350
17121SOL    HW261678   0.759   5.920   5.831 -0.9137 -0.4780 -0.4903
17122SOL     OW61679   8.823   1.693   0.422  0.8748  0.1107  0.0514
17122SOL    HW161680   8.811   1.751   0.497  0.3703  0.0924 -0.0112
17122SOL    HW261681   8.910   1.654   0.436  0.8993  0.3084  0.4815
17123SOL     OW61682  12.386   0.988  12.617 -0.0971  0.0441 -0.1912
17123SOL    HW161683  12.313   1.025  12.566  0.0289 -0.6053 -0.8604
17123SOL    HW261684  12.405   0.905  12.574  1.6741  0.6258 -0.6423
17124SOL     OW61685   0.174   8.638  10.003 -0.0439  0.1780 -0.0574
17124SOL    HW161686   0.113   8.615  10.073 -0.7724  1.0993 -0.3631
17124SOL    HW261687   0.172   8.733  10.000  0.4388  0.1722 -0.9286
17125SOL     OW61688   8.283   8.262   3.677 -0.5475 -0.6797  0.0875
17125SOL    HW161689   8.365   8.226   3.710  0.7849 -0.3006 -2.4997
17125SOL    HW261690   8.215   8.208   3.717  0.9719 -1.4362  1.8032
17126SOL     OW61691   4.462  12.496   8.387  0.2462 -0.0363  0.1516
17126SOL    HW161692   4.483  12.509   8.295  1.3205  3.1895  0.7289
17126SOL    HW261693   4.449  12.401   8.396  0.7913 -0.5211 -3.1319
17127SOL     OW61694   8.777   5.720   9.011 -0.9803 -0.1518  0.5190
17127SOL    HW161695   8.747   5.803   8.975  0.0100 -0.0785 -0.1667
17127SOL    HW261696   8.723   5.707   9.089 -1.2946  1.0169  0.5127
17128SOL     OW61697   0.907   6.318   6.540 -0.3898  0.3375 -0.3355
17128SOL    HW161698   0.840   6.372   6.582 -1.4510  0.4798 -2.1314
17128SOL    HW261699   0.890   6.229   6.572 -0.2510  0.6416  0.6280
17129SOL     OW61700   4.579   3.078  10.961  0.3060  0.3112 -0.5082
17129SOL    HW161701   4.610   3.051  11.047 -1.0975  0.5681  0.1107
17129SOL    HW261702   4.633   3.029  10.899  2.2275  1.0818  0.4591
17130SOL     OW61703   0.228   3.169  11.967 -0.1501  0.5418  0.4311
17130SOL    HW161704   0.222   3.182  11.872 -0.7349  1.0591  0.5262
17130SOL    HW261705   0.314   3.203  11.991  0.0195  0.3605  0.0744
17131SOL     OW61706   0.852   1.995   9.809 -0.3738 -0.7487  0.3698
17131SOL    HW161707   0.847   2.025   9.718 -0.4226 -0.0830  0.5829
17131SOL    HW261708   0.906   2.062   9.852 -0.3886 -1.0391  0.8395
17132SOL     OW61709   7.074  10.635   4.071  0.0268  0.3412 -0.3238
17132SOL    HW161710   7.060  10.623   4.165  0.8712 -0.6907 -0.3105
17132SOL    HW261711   7.164  10.669   4.064  0.4522 -0.8502 -0.8141
17133SOL     OW61712   6.985   7.499   1.387 -0.8971  0.0131 -0.1477
17133SOL    HW161713   7.001   7.588   1.417 -1.4497  1.0802 -2.7127
17133SOL    HW261714   6.930   7.510   1.309 -1.0602 -2.5905 -0.4914
17134SOL     OW61715   4.077   0.848   3.620 -0.0352  0.2425 -0.2969
17134SOL    HW161716   3.992   0.851   3.576 -1.0936 -0.2623  1.5811
17134SOL    HW261717   4.126   0.780   3.574 -1.2982 -0.6680 -0.3468
17135SOL     OW61718   6.221  11.880   6.967  0.0507  0.0262  0.0272
17135SOL    HW161719   6.134  11.867   6.931  0.0279 -0.1895  0.1616
17135SOL    HW261720   6.280  11.866   6.893  0.0251 -0.7746  0.1534
17136SOL     OW61721   2.848   7.465   9.619  0.1350 -0.3523 -0.0751
17136SOL    HW161722   2.904   7.506   9.554  0.7731 -0.6667  0.2734
17136SOL    HW261723   2.894   7.477   9.702 -0.5029 -0.2565  0.2772
17137SOL     OW61724   7.272   1.706   9.623  0.1625 -0.5446  0.1281
17137SOL    HW161725   7.227   1.743   9.547  1.2089 -1.5209 -1.0092
17137SOL    HW261726   7.211   1.643   9.660  0.0038 -0.7517 -0.4825
17138SOL     OW61727   3.802   6.348   0.709  0.6430  0.4336 -0.0250
17138SOL    HW161728   3.798   6.340   0.804  0.4658  0.7799  0.0002
17138SOL    HW261729   3.733   6.291   0.676  1.7144 -0.8993 -0.0212
17139SOL     OW61730  12.028   5.479  12.370 -0.4458 -0.3032  0.2103
17139SOL    HW161731  11.951   5.498  12.316  0.0804  0.0238 -0.4416
17139SOL    HW261732  12.068   5.402  12.330 -0.0098 -0.0125  0.0726
17140SOL     OW61733   3.753   5.828  10.108  0.1444  0.2310 -0.6734
17140SOL    HW161734   3.796   5.752  10.148 -0.9995 -1.0363 -1.7533
17140SOL    HW261735   3.776   5.823  10.016  0.0675  1.2137 -0.7516
17141SOL     OW61736   1.235  12.144  10.251 -0.7140 -0.4968  0.5110
17141SOL    HW161737   1.205  12.191  10.328  0.5852  1.4169 -0.0835
17141SOL    HW261738   1.330  12.147  10.256 -0.5726  0.4359 -1.5776
17142SOL     OW61739   7.466  12.891   0.913  0.1455  0.3840 -0.4656
17142SOL    HW161740   7.453  12.797   0.925 -1.0737  0.5985  0.0147
17142SOL    HW261741   7.379  12.924   0.889  0.7653  1.2430 -1.6072
17143SOL     OW61742   4.589  11.340   8.753  0.0203 -0.1553 -0.3816
17143SOL    HW161743   4.676  11.306   8.772  0.7005  1.1993 -0.9895
17143SOL    HW261744   4.560  11.378   8.836  0.7909  1.0440 -0.6437
17144SOL     OW61745   9.098   1.794  10.352 -0.5263 -0.1481 -0.3496
17144SOL    HW161746   9.074   1.776  10.443  0.8139  1.0531  0.2648
17144SOL    HW261747   9.018   1.830  10.314 -0.6391  0.9299  0.8283
17145SOL     OW61748   2.265   0.498  12.906 -0.4445 -0.3129 -0.2951
17145SOL    HW161749   2.260   0.593  12.900 -0.1968 -0.1673  1.2902
17145SOL    HW261750   2.178   0.470  12.935  0.1138 -0.3088  1.5259
17146SOL     OW61751  12.402  11.000   5.333  0.0034 -0.8329 -0.2501
17146SOL    HW161752  12.421  10.937   5.402 -0.5734 -0.5786  0.1485
17146SOL    HW261753  12.461  10.975   5.261  2.9574  0.8115  1.3993
17147SOL     OW61754   8.172   1.480  10.916 -0.1249 -0.2664  0.5940
17147SOL    HW161755   8.157   1.385  10.911 -1.1443 -0.0555 -1.3852
17147SOL    HW261756   8.157   1.502  11.008 -2.8598 -1.5981  0.5731
17148SOL     OW61757  11.286   9.407   1.692 -0.2198 -0.1478 -0.2930
17148SOL    HW161758  11.341   9.378   1.619 -0.1579 -1.6596  0.3115
17148SOL    HW261759  11.241   9.328   1.721 -1.1225  0.6550  0.5800
17149SOL     OW61760   0.668   8.059   2.975 -0.2992 -0.0768  0.2705
17149SOL    HW161761   0.596   8.046   2.913 -0.4312 -0.0407  0.4143
17149SOL    HW261762   0.657   7.989   3.040  0.2776 -0.5716 -0.1534
17150SOL     OW61763  10.968   2.439   7.220 -0.4793  0.0509 -0.3850
17150SOL    HW161764  10.992   2.520   7.265  1.0308 -0.6357  0.1303
17150SOL    HW261765  10.902   2.465   7.156 -0.9623  1.4522  0.6427
17151SOL     OW61766  10.449   6.034   2.089  0.0608 -0.5922 -0.0413
17151SOL    HW161767  10.479   5.943   2.093  1.6226 -0.1187 -0.1927
17151SOL    HW261768  10.501   6.080   2.156 -1.8156 -0.0712  1.1422
17152SOL     OW61769   2.879  11.009  11.985 -0.3485  0.3696  0.2403
17152SOL    HW161770   2.917  10.931  11.944  2.1510  0.7670  1.6056
17152SOL    HW261771   2.907  11.081  11.929  0.8348  0.6436  1.1381
17153SOL     OW61772   7.526   4.510   4.780 -0.2606 -0.1286  0.0186
17153SOL    HW161773   7.594   4.447   4.801  0.7174  1.6284  2.4545
17153SOL    HW261774   7.556   4.552   4.699  0.6205 -0.6447  0.0669
17154SOL     OW61775   7.392   0.129   0.349  0.6998 -0.0943 -0.1966
17154SOL    HW161776   7.377   0.076   0.271 -0.4459  0.8496 -0.6572
17154SOL    HW261777   7.460   0.082   0.397  1.2008 -0.8674 -1.5902
17155SOL     OW61778   2.225   3.207  12.481  0.5663 -0.2469  0.6897
17155SOL    HW161779   2.257   3.159  12.404 -0.4784  2.3250 -1.5241
17155SOL    HW261780   2.157   3.151  12.518  0.0808 -0.9785 -1.1587
17156SOL     OW61781  10.779   1.460   3.300  0.5750 -0.2536 -0.5687
17156SOL    HW161782  10.714   1.529   3.298  2.1701  1.3315 -0.4117
17156SOL    HW261783  10.820   1.468   3.387  1.6189 -0.5520 -1.0111
17157SOL     OW61784   9.976   1.446  12.763  0.0341 -0.3624  0.7628
17157SOL    HW161785  10.002   1.391  12.689  0.3507  0.1262  0.5082
17157SOL    HW261786   9.963   1.384  12.835 -0.0281 -0.8157  0.3715
17158SOL     OW61787   4.517   4.720  10.184  0.2159  0.0637  0.4377
17158SOL    HW161788   4.534   4.670  10.104  1.7476 -1.3152  1.5837
17158SOL    HW261789   4.442   4.676  10.224  0.6044 -0.3827  0.6788
17159SOL     OW61790   1.476  12.861   1.465 -0.1334 -0.0355  0.5805
17159SOL    HW161791   1.402  12.833   1.520 -1.1753  1.0115 -0.2395
17159SOL    HW261792   1.508  12.941   1.507 -0.1248  0.0739  0.3690
17160SOL     OW61793   6.235   9.493   5.980  0.2838 -0.0541  0.2585
17160SOL    HW161794   6.292   9.449   6.044  0.1741 -0.1836  0.2655
17160SOL    HW261795   6.204   9.423   5.922 -0.3165 -0.0695  0.5924
17161SOL     OW61796   6.816   3.671   5.170 -0.1895 -0.0898  0.1614
17161SOL    HW161797   6.883   3.639   5.108  0.9978  0.6537  1.0152
17161SOL    HW261798   6.767   3.592   5.193  0.9049 -0.8262  0.1061
17162SOL     OW61799   5.606  11.786  12.962  0.2447 -0.5593 -0.4178
17162SOL    HW161800   5.681  11.754  13.012 -0.8193 -0.8626  1.0685
17162SOL    HW261801   5.627  11.765  12.871  2.5440  0.5785 -0.2304
17163SOL     OW61802   3.299   0.173  12.798  0.1049 -0.8210 -0.0429
17163SOL    HW161803   3.334   0.085  12.785  0.6694 -0.5359 -0.4669
17163SOL    HW261804   3.321   0.221  12.718  0.3450 -0.1211  0.4249
17164SOL     OW61805   2.239   3.425  11.600 -0.2700 -0.4859  0.2513
17164SOL    HW161806   2.198   3.365  11.662  0.1986 -0.3533  0.6892
17164SOL    HW261807   2.299   3.371  11.550  0.9169 -0.2086  1.3329
17165SOL     OW61808   3.927   6.997  10.191 -0.4022  0.2817 -0.1710
17165SOL    HW161809   3.844   7.008  10.238 -0.2157 -1.3737  0.6352
17165SOL    HW261810   3.903   6.983  10.100 -0.9396  0.8890 -0.1227
17166SOL     OW61811  10.816   4.434  10.732 -0.2468 -0.0825 -0.2138
17166SOL    HW161812  10.730   4.397  10.710  0.5121 -2.4069  0.4672
17166SOL    HW261813  10.875   4.401  10.665  0.6975 -1.2957  1.1341
17167SOL     OW61814   3.755   1.384   6.086 -0.0849 -0.0748  0.3895
17167SOL    HW161815   3.696   1.457   6.071  0.2025  0.1741  0.4567
17167SOL    HW261816   3.698   1.313   6.115 -0.2931  0.3187  0.9708
17168SOL     OW61817   4.248   8.615   7.114  0.4920  0.1702  0.0587
17168SOL    HW161818   4.288   8.682   7.170  1.0007  1.0289 -1.2681
17168SOL    HW261819   4.225   8.662   7.034  0.7517 -1.2204 -0.8596
17169SOL     OW61820  12.887   1.683   6.405  0.0801  0.1957 -0.1404
17169SOL    HW161821  12.956   1.661   6.343 -1.6459 -1.9008 -1.4667
17169SOL    HW261822  12.920   1.653   6.489  0.3203 -1.9788 -0.9549
17170SOL     OW61823   0.899   8.218  12.615  0.1724 -0.5796 -0.3361
17170SOL    HW161824   0.957   8.256  12.548 -0.7399 -0.6809 -1.2021
17170SOL    HW261825   0.857   8.293  12.656 -1.0244 -0.5887 -1.4963
17171SOL     OW61826   5.758   0.984  11.286  0.8098 -0.1658  0.1930
17171SOL    HW161827   5.802   1.045  11.346  0.2467 -0.0432  0.4807
17171SOL    HW261828   5.684   1.033  11.252 -0.4656 -1.1321  1.4821
17172SOL     OW61829  11.039   1.591   4.608 -0.3231  0.3206  0.0021
17172SOL    HW161830  10.962   1.573   4.553 -2.3783  3.2787  1.6312
17172SOL    HW261831  11.012   1.562   4.696  1.1963 -0.2684  0.3007
17173SOL     OW61832  10.161   6.335   9.049  0.2127 -0.1482 -0.0622
17173SOL    HW161833  10.134   6.395   9.119  2.5581 -0.0392  0.8413
17173SOL    HW261834  10.135   6.249   9.079  2.5096 -0.3047  1.7832
17174SOL     OW61835  10.441   9.412   0.006  0.1466  0.3440 -0.3818
17174SOL    HW161836  10.360   9.456  -0.020 -0.8627  0.2607  2.3315
17174SOL    HW261837  10.506   9.482   0.010 -0.5722  0.9805  0.4298
17175SOL     OW61838   1.478  12.156  12.958 -0.0639  0.1170  1.1053
17175SOL    HW161839   1.395  12.165  13.005 -1.7096  2.4472 -1.8874
17175SOL    HW261840   1.491  12.061  12.950 -1.9246 -0.3059  2.4934
17176SOL     OW61841   5.856   2.032   4.647  0.1997  0.3993  0.3288
17176SOL    HW161842   5.883   2.050   4.557 -0.1521  1.1304  0.3579
17176SOL    HW261843   5.930   1.986   4.686  0.5698  0.5532 -0.1795
17177SOL     OW61844   6.466   0.470  10.714  0.7355 -0.3171  0.2682
17177SOL    HW161845   6.471   0.547  10.657 -0.1240 -0.6352 -0.2453
17177SOL    HW261846   6.546   0.421  10.694 -0.2009 -1.1477 -1.7360
17178SOL     OW61847   9.639  12.753  11.586  0.0437  0.3768  0.0272
17178SOL    HW161848   9.575  12.727  11.653 -0.6736 -1.4244 -1.2703
17178SOL    HW261849   9.589  12.803  11.522  0.1525 -0.1073 -0.4452
17179SOL     OW61850   7.198  11.122   0.464 -0.2319  0.1863  0.3081
17179SOL    HW161851   7.274  11.141   0.409 -0.4810  1.8207  0.4849
17179SOL    HW261852   7.232  11.065   0.533  0.3552 -0.8408 -0.7917
17180SOL     OW61853  11.251   5.325  10.315 -0.1579 -0.5997  0.2760
17180SOL    HW161854  11.156   5.315  10.316 -0.0702 -1.4595  0.2256
17180SOL    HW261855  11.265   5.414  10.282 -0.9833  0.1627  1.8763
17181SOL     OW61856   7.090   1.127   9.396  0.3266 -0.4413 -0.2658
17181SOL    HW161857   7.118   1.036   9.389  0.6584 -0.1839 -3.1405
17181SOL    HW261858   7.121   1.169   9.316 -1.6878  1.6901 -0.0497
17182SOL     OW61859   1.967   2.920   9.585  0.3279 -0.4223 -0.3597
17182SOL    HW161860   1.890   2.866   9.565  0.9000 -1.1054 -0.8205
17182SOL    HW261861   1.990   2.896   9.674 -1.3534  1.5277  0.6830
17183SOL     OW61862   1.525   2.087  11.798 -0.3873 -0.2158 -0.1579
17183SOL    HW161863   1.502   2.087  11.705  0.5521 -0.0532 -0.4104
17183SOL    HW261864   1.561   1.999  11.813  2.5988  0.7399 -0.8350
17184SOL     OW61865   8.897  12.297   9.357  0.3906 -0.2421 -0.4853
17184SOL    HW161866   8.895  12.266   9.267 -0.3991 -0.3179 -0.4460
17184SOL    HW261867   8.815  12.266   9.395  1.6731 -2.1218  0.9085
17185SOL     OW61868   2.485   8.915   0.729  0.3997  0.0796  0.2556
17185SOL    HW161869   2.556   8.854   0.750  0.5565  0.4826  0.9204
17185SOL    HW261870   2.414   8.859   0.696  0.0365 -0.6478  2.1381
17186SOL     OW61871   6.037  12.614   1.199 -0.1665  0.3216 -0.0940
17186SOL    HW161872   6.059  12.570   1.117 -1.5438  2.3749 -1.6665
17186SOL    HW261873   6.121  12.645   1.233  0.5462 -1.4512 -0.1234
17187SOL     OW61874  12.794   2.941   6.359 -0.0188  0.1368  0.4279
17187SOL    HW161875  12.862   2.994   6.317 -1.1071 -0.0878 -1.7291
17187SOL    HW261876  12.742   3.004   6.409 -0.8181  1.0467 -1.4678
17188SOL     OW61877   4.536   2.821   3.498  0.3993  0.4320  0.3304
17188SOL    HW161878   4.551   2.884   3.426  1.8598  0.5243  0.6769
17188SOL    HW261879   4.571   2.738   3.464 -1.5196 -0.2469 -0.1243
17189SOL     OW61880   0.682  10.640   4.319  0.1798  0.1344 -0.0558
17189SOL    HW161881   0.621  10.574   4.286  1.3717  0.3018 -3.0052
17189SOL    HW261882   0.646  10.723   4.289  1.0370  0.3578 -0.5243
17190SOL     OW61883   4.056   3.750   7.534 -0.5388 -0.3530 -0.4032
17190SOL    HW161884   3.961   3.746   7.538 -0.5759 -0.5524 -1.3897
17190SOL    HW261885   4.083   3.662   7.507  0.2194 -1.8302  4.1262
17191SOL     OW61886  11.037   6.944   3.594 -0.3853  0.1012  0.7215
17191SOL    HW161887  10.963   6.936   3.534 -0.3956 -0.7933  0.8269
17191SOL    HW261888  11.074   6.855   3.597  1.7650  0.8711 -0.6811
17192SOL     OW61889   9.797  10.860   7.240  0.0185  0.2645 -0.7152
17192SOL    HW161890   9.758  10.940   7.205  0.3107  0.8703  0.3106
17192SOL    HW261891   9.837  10.817   7.165 -0.1630  1.0708 -1.2776
17193SOL     OW61892  10.232   6.729  10.512  0.3008 -0.4151 -0.5172
17193SOL    HW161893  10.169   6.744  10.441  0.5823 -1.3066 -0.9747
17193SOL    HW261894  10.189   6.666  10.570  1.1865 -1.9335 -1.4423
17194SOL     OW61895   0.881   3.329   5.397 -0.2863  0.4429 -0.1292
17194SOL    HW161896   0.875   3.259   5.332 -1.2577 -0.9797  1.4258
17194SOL    HW261897   0.831   3.402   5.358  1.0706  0.4743 -1.9385
17195SOL     OW61898   6.564   3.647   5.537  0.3801  0.0484 -0.2650
17195SOL    HW161899   6.545   3.672   5.447 -1.4164 -0.4016 -0.0368
17195SOL    HW261900   6.572   3.731   5.583 -1.1142  0.2799 -0.3870
17196SOL     OW61901   5.781   3.542   6.567 -0.4843  0.0362 -0.8825
17196SOL    HW161902   5.830   3.470   6.606  0.3894 -1.1626 -3.9209
17196SOL    HW261903   5.693   3.534   6.603 -0.0896 -1.8202 -0.2347
17197SOL     OW61904  12.761   4.502   8.010 -0.0093  0.3339  0.0920
17197SOL    HW161905  12.839   4.499   8.066 -0.6017  1.4621  1.0268
17197SOL    HW261906  12.690   4.522   8.070 -0.6058  2.0686 -1.1135
17198SOL     OW61907   7.318   0.075   1.570 -0.4177  0.2343 -0.3781
17198SOL    HW161908   7.349   0.145   1.629 -2.0175  0.6221  0.0493
17198SOL    HW261909   7.373   0.000   1.591 -0.2262  0.6938  0.8552
17199SOL     OW61910   3.685   7.997   9.411  0.2692  0.1700 -0.4151
17199SOL    HW161911   3.748   8.045   9.466 -0.2254  0.6453 -0.2486
17199SOL    HW261912   3.613   7.975   9.471  0.3482 -0.5114 -0.5655
17200SOL     OW61913  10.725   5.260   7.382 -0.4521  0.2837 -0.4474
17200SOL    HW161914  10.731   5.355   7.381 -1.4865  0.3847 -2.1055
17200SOL    HW261915  10.791   5.231   7.319 -0.6229 -0.0552 -0.4750
17201SOL     OW61916   5.005   2.372   6.266 -0.3336 -0.8927  0.6732
17201SOL    HW161917   4.983   2.334   6.181 -2.4919 -1.2626  1.3364
17201SOL    HW261918   5.054   2.304   6.311  2.3479 -0.0873 -0.8195
17202SOL     OW61919   9.095   8.053   3.171 -0.0421  0.0409  0.1238
17202SOL    HW161920   9.019   8.108   3.151  0.3576  0.8970  0.8558
17202SOL    HW261921   9.065   7.964   3.158 -1.1228  0.3811  0.2276
17203SOL     OW61922   3.038   5.798   9.627  0.7106  0.1230 -0.7327
17203SOL    HW161923   3.078   5.720   9.589  1.6566 -0.0991  0.6582
17203SOL    HW261924   3.050   5.788   9.721  0.3369  1.6853 -0.4935
17204SOL     OW61925   8.735   9.785   2.414 -0.0014 -0.3035 -0.5254
17204SOL    HW161926   8.737   9.847   2.341  0.3083  0.2921 -0.0313
17204SOL    HW261927   8.781   9.831   2.485 -0.8135 -0.6271  0.2261
17205SOL     OW61928   3.683  11.184  10.137 -0.5376  0.5730  0.1301
17205SOL    HW161929   3.765  11.135  10.130 -0.1029  1.1554  0.9420
17205SOL    HW261930   3.663  11.211  10.048  0.5080  0.9788  0.0052
17206SOL     OW61931   2.713   0.348   4.196 -0.2878  0.2848 -1.0038
17206SOL    HW161932   2.648   0.281   4.217 -2.9862  2.6832 -0.8986
17206SOL    HW261933   2.772   0.350   4.272 -0.8522 -1.1494 -0.5007
17207SOL     OW61934   0.827   2.777   4.092  0.4938  0.2442 -0.1851
17207SOL    HW161935   0.819   2.862   4.134 -1.3998  0.7395 -1.4577
17207SOL    HW261936   0.920   2.769   4.072  0.8568  1.5577  0.8252
17208SOL     OW61937   3.482   6.194   4.117  0.5230  0.9814  0.2812
17208SOL    HW161938   3.528   6.271   4.083 -1.0202  2.3243  1.1066
17208SOL    HW261939   3.456   6.146   4.038  0.4373  1.9488 -0.2993
17209SOL     OW61940  12.786   0.774   4.172  1.0346  0.3893  0.3856
17209SOL    HW161941  12.737   0.813   4.245  1.0693 -0.1731  0.7211
17209SOL    HW261942  12.727   0.782   4.097  0.7709  0.4892  0.5994
17210SOL     OW61943   2.112   9.902   4.715 -0.7511 -0.1750  0.1616
17210SOL    HW161944   2.041   9.839   4.703 -0.6417 -0.3658  0.5237
17210SOL    HW261945   2.118   9.947   4.630 -2.1483  0.7330  0.5104
17211SOL     OW61946  12.114   1.184  10.751 -0.4695 -0.5127 -0.2159
17211SOL    HW161947  12.025   1.165  10.782 -0.9926  2.0561  0.1063
17211SOL    HW261948  12.141   1.261  10.801  2.1302 -1.4385 -0.0451
17212SOL     OW61949   3.978   6.506  11.565  0.1828 -0.3208  0.9427
17212SOL    HW161950   3.899   6.551  11.596 -0.2084  1.2706 -2.0111
17212SOL    HW261951   4.042   6.577  11.551  1.1275 -1.2350  0.4653
17213SOL     OW61952   6.993   6.489   6.351 -0.0071 -0.2414 -0.2009
17213SOL    HW161953   7.080   6.485   6.389  0.0165  0.0281 -0.2297
17213SOL    HW261954   7.007   6.502   6.257 -0.0143 -2.6227 -0.6016
17214SOL     OW61955  10.256   3.676   2.180 -0.7239  0.0612 -0.0539
17214SOL    HW161956  10.347   3.695   2.156 -0.3551 -1.7171 -0.1794
17214SOL    HW261957  10.262   3.642   2.270 -1.5715  2.2186  0.8955
17215SOL     OW61958   6.090   8.727  12.206 -0.1943 -0.2691  0.6263
17215SOL    HW161959   6.048   8.812  12.190  0.1953 -0.0733  0.6257
17215SOL    HW261960   6.026   8.678  12.257 -0.2715  0.1623  0.9531
17216SOL     OW61961   6.689   2.797   0.687 -0.5642 -0.4431 -0.3595
17216SOL    HW161962   6.774   2.823   0.651  0.0861  0.5981  1.7605
17216SOL    HW261963   6.626   2.826   0.621  0.5385  1.5741 -0.6219
17217SOL     OW61964  12.011   6.326   7.627  0.1425  0.0687 -0.3729
17217SOL    HW161965  11.994   6.286   7.712 -0.6523 -1.0243 -1.0190
17217SOL    HW261966  12.082   6.388   7.643  0.5857 -0.7370  0.9075
17218SOL     OW61967   0.062  10.685  10.201  0.1083  0.4794  0.4976
17218SOL    HW161968   0.120  10.624  10.155 -0.0466  0.4424  0.3513
17218SOL    HW261969  -0.026  10.651  10.185 -0.0969  1.5273 -0.7748
17219SOL     OW61970   2.874   7.224   5.773  0.0380  0.5432  0.5492
17219SOL    HW161971   2.847   7.289   5.707  0.1559  1.0627  1.0069
17219SOL    HW261972   2.926   7.274   5.836  2.7094 -0.5397 -0.6584
17220SOL     OW61973   7.689   9.937   0.985  0.3222 -0.4838 -0.2859
17220SOL    HW161974   7.695   9.847   1.017  0.5498 -0.1317  0.6992
17220SOL    HW261975   7.722   9.990   1.057  2.1126  0.2769 -1.6166
17221SOL     OW61976  10.974   0.219  10.911  0.5922  0.1440  0.2508
17221SOL    HW161977  10.979   0.134  10.868  2.2409  1.2334 -1.9191
17221SOL    HW261978  10.889   0.219  10.955 -0.0913 -2.0281 -0.9357
17222SOL     OW61979   1.629   5.481   5.495  0.0850 -0.5622 -0.0893
17222SOL    HW161980   1.620   5.386   5.497 -0.6064 -0.5129 -0.3941
17222SOL    HW261981   1.638   5.502   5.402  0.5361 -0.3570  0.0018
17223SOL     OW61982   5.276   9.647   8.830 -0.4017  0.4693  0.2799
17223SOL    HW161983   5.253   9.558   8.804  0.1902  0.4268 -0.1353
17223SOL    HW261984   5.262   9.699   8.751  2.0776  0.2259 -0.4089
17224SOL     OW61985   5.270   2.583   4.964 -0.6194 -0.3326 -0.1829
17224SOL    HW161986   5.319   2.504   4.983  1.2197  0.4262 -1.5314
17224SOL    HW261987   5.239   2.572   4.874 -0.8739  0.2217 -0.1718
17225SOL     OW61988   0.723   5.186   2.565  0.6037  0.0659 -0.6430
17225SOL    HW161989   0.730   5.163   2.657  2.2949 -0.7821 -0.9483
17225SOL    HW261990   0.736   5.103   2.518 -0.4183  0.4421 -1.6618
17226SOL     OW61991   6.861   3.750   2.043  0.5469 -0.4427 -0.1845
17226SOL    HW161992   6.832   3.702   1.965  1.4075  0.7146 -1.2616
17226SOL    HW261993   6.921   3.817   2.009  0.9655  0.0769  1.4863
17227SOL     OW61994   3.574   9.101   8.217 -0.0468 -0.2154  0.5005
17227SOL    HW161995   3.483   9.129   8.208 -0.9244 -2.9616 -0.2316
17227SOL    HW261996   3.579   9.064   8.305  0.7171  0.9480  0.9685
17228SOL     OW61997  11.070  11.975   2.481  0.4565  0.0266 -0.6415
17228SOL    HW161998  11.152  12.023   2.468  0.9681 -0.4925  0.5375
17228SOL    HW261999  11.038  11.958   2.392  0.7647  1.6516 -1.1066
17229SOL     OW62000   8.521   3.281   7.161  0.7772  0.3892  0.3993
17229SOL    HW162001   8.434   3.275   7.121  1.2259  0.6484 -0.6592
17229SOL    HW262002   8.525   3.206   7.220  0.0164  0.0942  0.1031
17230SOL     OW62003   2.361  12.209   5.922 -0.1721  0.1828 -0.5822
17230SOL    HW162004   2.421  12.243   5.989  0.2782  0.0675 -0.9214
17230SOL    HW262005   2.382  12.260   5.844  0.5778 -0.9247 -1.1279
17231SOL     OW62006  12.984   9.643   7.793 -0.4157 -0.3611  0.2328
17231SOL    HW162007  12.951   9.563   7.752 -0.1769 -0.8144  0.9217
17231SOL    HW262008  13.056   9.671   7.736 -1.1615 -0.0551 -0.5838
17232SOL     OW62009   1.252   7.119   5.054  0.2039 -0.1654  0.2769
17232SOL    HW162010   1.289   7.207   5.044 -0.6088  0.0358 -1.1528
17232SOL    HW262011   1.328   7.061   5.056  0.6963  0.4552 -0.1619
17233SOL     OW62012   9.941   6.806   4.802  0.1348 -0.0258 -0.3926
17233SOL    HW162013   9.984   6.723   4.820 -1.1451 -0.5684  0.3257
17233SOL    HW262014  10.005   6.872   4.829  1.3434 -0.7359 -1.3889
17234SOL     OW62015   8.555  10.877   7.017 -0.4444  0.2933 -0.0208
17234SOL    HW162016   8.602  10.794   7.012 -1.7743 -0.8114  3.2266
17234SOL    HW262017   8.621  10.943   6.995  0.8792 -1.5188 -1.8300
17235SOL     OW62018   3.693  11.934   6.804 -0.4866  0.4745 -0.2981
17235SOL    HW162019   3.760  11.997   6.829 -1.3856  1.6886 -0.8158
17235SOL    HW262020   3.726  11.850   6.834  0.4525  1.2756  1.0088
17236SOL     OW62021  11.298   5.297   2.327  0.4946 -0.3759 -0.2652
17236SOL    HW162022  11.249   5.366   2.372  1.0170 -0.3357  0.2542
17236SOL    HW262023  11.236   5.260   2.265  0.1216  0.3752 -0.3536
17237SOL     OW62024  12.577   5.321   1.678  0.1931  0.2112 -0.2097
17237SOL    HW162025  12.567   5.246   1.737 -0.8364  0.1540 -0.4373
17237SOL    HW262026  12.506   5.381   1.703  0.9040  1.0476 -0.1383
17238SOL     OW62027   3.828  10.368  12.820  0.0107  0.1702 -0.0360
17238SOL    HW162028   3.752  10.384  12.875 -1.9953 -0.7383 -2.3441
17238SOL    HW262029   3.833  10.273  12.811  0.8477  0.2547 -0.6704
17239SOL     OW62030   2.068   7.154   0.707 -0.1312 -0.1053 -0.3005
17239SOL    HW162031   2.085   7.247   0.719  0.7412 -0.0557 -1.6128
17239SOL    HW262032   2.050   7.145   0.613  0.7563 -1.3640 -0.3843
17240SOL     OW62033   9.055   0.307  10.778 -0.1965  0.0127  0.5296
17240SOL    HW162034   9.146   0.302  10.749  0.3808 -0.7370  2.3830
17240SOL    HW262035   9.056   0.367  10.852 -0.5923 -2.4490  2.6698
17241SOL     OW62036  10.783   2.438   1.630 -0.3507  0.1588  0.3160
17241SOL    HW162037  10.773   2.365   1.690  2.4981  1.0616  2.1157
17241SOL    HW262038  10.719   2.503   1.660  0.9069  0.5240  2.3902
17242SOL     OW62039  12.453   6.015   8.584  0.4857 -0.1917 -0.5905
17242SOL    HW162040  12.445   6.104   8.548 -0.6931  1.2585  2.8023
17242SOL    HW262041  12.529   6.020   8.642 -0.3021 -1.0268  0.5334
17243SOL     OW62042   3.480   2.773  10.567  0.2860 -0.1316 -0.5304
17243SOL    HW162043   3.483   2.860  10.526 -0.5486 -0.0424 -0.4210
17243SOL    HW262044   3.569   2.759  10.601  0.0981  1.2187  0.5788
17244SOL     OW62045   3.858  11.895   7.975  0.0735  0.6482 -0.5686
17244SOL    HW162046   3.911  11.838   8.031  0.3602  1.9004  0.4970
17244SOL    HW262047   3.805  11.835   7.923  1.7881 -0.6353 -0.9564
17245SOL     OW62048   7.529   1.808   8.480 -0.1316 -0.0750  0.1376
17245SOL    HW162049   7.495   1.736   8.533  0.5311 -0.8105 -0.3967
17245SOL    HW262050   7.624   1.793   8.478  0.0056  0.7600 -0.0731
17246SOL     OW62051   6.342   5.383   1.278  0.3477 -0.1583  0.3951
17246SOL    HW162052   6.434   5.376   1.304  0.1751  0.0544  1.0897
17246SOL    HW262053   6.339   5.343   1.191  0.9336 -0.9783  0.7355
17247SOL     OW62054   2.722   5.123   7.522 -0.0145 -0.4533 -0.5302
17247SOL    HW162055   2.695   5.126   7.614  0.9761 -0.5749 -0.2263
17247SOL    HW262056   2.648   5.081   7.477 -0.9494  0.5327  0.0283
17248SOL     OW62057   7.439   3.740   2.241 -0.8083 -0.2497 -0.0428
17248SOL    HW162058   7.491   3.778   2.171 -0.9072  0.5795  0.3281
17248SOL    HW262059   7.481   3.769   2.322 -2.8320  1.9592  0.3257
17249SOL     OW62060   7.027   8.935   1.973  0.5190 -0.4843 -0.0347
17249SOL    HW162061   6.945   8.886   1.963  0.4675 -0.1000 -1.7403
17249SOL    HW262062   7.002   9.027   1.967  0.9448 -0.3172  0.5980
17250SOL     OW62063   2.790   0.971   4.323  0.3833  0.5626 -0.2758
17250SOL    HW162064   2.821   0.882   4.341  0.1345  0.6887  0.8497
17250SOL    HW262065   2.701   0.959   4.290  0.7378  0.3379 -1.1594
17251SOL     OW62066  11.873   1.150   2.003 -0.2384  0.4232 -0.1731
17251SOL    HW162067  11.879   1.055   1.991 -0.0453  0.5749 -1.3786
17251SOL    HW262068  11.915   1.166   2.088 -2.7489 -0.8361  1.4102
17252SOL     OW62069   1.531   1.704   2.411  0.1527  0.5205 -0.1712
17252SOL    HW162070   1.502   1.615   2.433 -2.0685  1.0054 -0.9089
17252SOL    HW262071   1.562   1.740   2.494 -1.1173 -0.1669  0.6295
17253SOL     OW62072  12.273   0.456   8.655 -0.0319  0.5182 -0.2732
17253SOL    HW162073  12.363   0.488   8.656 -0.1806  0.9225  0.4009
17253SOL    HW262074  12.275   0.377   8.709  0.1777 -0.2154 -1.3176
17254SOL     OW62075  10.186  10.120   7.323 -0.4965  0.4217 -0.8926
17254SOL    HW162076  10.253  10.154   7.265  0.3365  0.4343  0.0426
17254SOL    HW262077  10.104  10.128   7.274  0.1069  0.9335 -1.8311
17255SOL     OW62078   0.509   2.620   1.770 -0.1577  0.3861 -0.1844
17255SOL    HW162079   0.456   2.573   1.834  1.3061  3.1669  3.4411
17255SOL    HW262080   0.591   2.571   1.766  0.2252  0.8475  1.2074
17256SOL     OW62081   3.729   7.702  10.318 -0.0634  0.3629  0.6756
17256SOL    HW162082   3.706   7.636  10.253  0.4070  0.6228  0.2396
17256SOL    HW262083   3.676   7.778  10.296  1.1881  0.9798 -0.3603
17257SOL     OW62084   0.669  12.332   0.955 -0.1414 -0.1615 -0.2157
17257SOL    HW162085   0.610  12.260   0.979 -1.4926  0.7111 -0.8113
17257SOL    HW262086   0.623  12.411   0.984  0.7979  0.5306 -0.5894
17258SOL     OW62087  12.706   3.269   4.446  0.1655 -0.1803 -0.1306
17258SOL    HW162088  12.622   3.296   4.409  0.1293 -0.9435 -0.6436
17258SOL    HW262089  12.685   3.191   4.498  0.5205 -0.2601 -0.1043
17259SOL     OW62090  10.314   1.544   1.818  0.1667 -0.4726 -0.2310
17259SOL    HW162091  10.363   1.524   1.738  0.9147 -0.2164  0.1586
17259SOL    HW262092  10.248   1.475   1.822 -1.0416  0.4862 -2.0094
17260SOL     OW62093   2.577   7.196   1.227  0.0315 -0.0138  0.4876
17260SOL    HW162094   2.510   7.154   1.172  0.3948  0.9532 -0.7457
17260SOL    HW262095   2.655   7.142   1.217  0.0407  0.0530  0.1850
17261SOL     OW62096   6.779   1.513   3.507  0.6859 -0.0875  0.0090
17261SOL    HW162097   6.804   1.524   3.598 -0.5612 -0.6637  0.4404
17261SOL    HW262098   6.764   1.419   3.496 -1.3770  0.2163 -0.1550
17262SOL     OW62099   0.805   7.169   2.663  0.0643  0.1924 -0.2119
17262SOL    HW162100   0.861   7.218   2.723 -1.6602  1.9130  0.0840
17262SOL    HW262101   0.721   7.216   2.664 -0.6458 -0.8802 -2.4573
17263SOL     OW62102   3.168   8.241   6.501  0.5294  0.4844  0.0795
17263SOL    HW162103   3.174   8.271   6.591  3.0960 -0.6969  0.4046
17263SOL    HW262104   3.189   8.318   6.448 -0.3495  1.0249  0.4983
17264SOL     OW62105   8.468   8.365   9.562  0.1071 -0.1007  0.0713
17264SOL    HW162106   8.414   8.406   9.495  0.4254 -0.0055 -0.1255
17264SOL    HW262107   8.530   8.433   9.589 -1.5753  0.7092  2.2502
17265SOL     OW62108  11.001   5.731   0.124 -0.3405 -0.3866  0.2736
17265SOL    HW162109  10.967   5.654   0.079 -0.4514 -1.7626  2.5700
17265SOL    HW262110  10.930   5.759   0.181  0.1650  0.6567  0.4149
17266SOL     OW62111   0.420   3.727  11.428 -0.7655 -0.0472  0.5215
17266SOL    HW162112   0.489   3.793  11.440  0.3331 -0.9383 -0.5324
17266SOL    HW262113   0.449   3.653  11.481 -0.5494 -0.6567 -0.4103
17267SOL     OW62114   2.955   7.553  10.158  0.1280  0.5215  0.9691
17267SOL    HW162115   2.868   7.590  10.176 -0.3503 -0.3055  0.4346
17267SOL    HW262116   3.013   7.599  10.218 -0.7385  0.8489  1.5839
17268SOL     OW62117  10.688   8.389   0.848  0.2084 -0.3749 -0.3104
17268SOL    HW162118  10.602   8.421   0.871 -0.1370 -1.9266  0.7566
17268SOL    HW262119  10.672   8.324   0.779  0.8699  1.5011 -2.3314
17269SOL     OW62120  11.534   7.765   9.209  0.8061  0.1207 -0.5980
17269SOL    HW162121  11.456   7.716   9.235 -0.1916  2.2417  0.7247
17269SOL    HW262122  11.511   7.801   9.123  0.5314  0.3015 -0.4513
17270SOL     OW62123   1.934   2.623   6.284  0.4502  0.1388  0.8396
17270SOL    HW162124   1.968   2.632   6.373 -0.0276 -0.1844  1.0565
17270SOL    HW262125   1.929   2.528   6.270  0.9515  0.1839  0.3021
17271SOL     OW62126   3.581  11.489   9.341 -0.3920  0.5009 -0.1449
17271SOL    HW162127   3.526  11.499   9.263 -0.4038  3.1196  0.1298
17271SOL    HW262128   3.524  11.508   9.414 -0.0707 -0.7673  0.4694
17272SOL     OW62129   9.272  10.764   2.915 -0.3548 -0.2870  0.5859
17272SOL    HW162130   9.315  10.684   2.884 -0.4010 -0.0613 -0.0638
17272SOL    HW262131   9.196  10.774   2.858  0.6543  1.2303 -0.5418
17273SOL     OW62132   9.724   4.848   4.047 -0.1026 -0.2918 -0.8922
17273SOL    HW162133   9.735   4.826   3.955  1.1291  0.8221 -1.0437
17273SOL    HW262134   9.710   4.943   4.048 -0.3836 -0.3282  0.0408
17274SOL     OW62135   6.785  11.060  10.753  0.3635 -0.0839  0.1300
17274SOL    HW162136   6.788  11.147  10.715 -1.9875 -0.3915 -0.9427
17274SOL    HW262137   6.726  11.068  10.828  0.7840 -0.5749  0.5227
17275SOL     OW62138  12.504   8.103   9.755  0.2922 -0.7934  0.1185
17275SOL    HW162139  12.456   8.131   9.833 -0.2427  0.5784 -0.6652
17275SOL    HW262140  12.456   8.026   9.724 -1.1198  0.2143 -0.3275
17276SOL     OW62141   0.405   6.669  10.053  0.5407 -0.0891 -0.3973
17276SOL    HW162142   0.316   6.701  10.058  0.5561 -0.0255 -0.5262
17276SOL    HW262143   0.449   6.706  10.130  0.3960 -0.3104 -0.2048
17277SOL     OW62144   1.283   4.632   7.005 -0.1697  0.6305 -0.0780
17277SOL    HW162145   1.378   4.625   6.996 -0.0827  0.5538  0.8274
17277SOL    HW262146   1.270   4.716   7.049 -0.4263 -0.0620  1.2038
17278SOL     OW62147   9.147   3.650   2.775  0.1010  0.3935  0.6400
17278SOL    HW162148   9.160   3.582   2.842  0.8566 -0.3412 -0.2328
17278SOL    HW262149   9.228   3.700   2.776  0.7592 -0.5878 -0.7835
17279SOL     OW62150   7.095   3.089   5.442 -0.2297  0.0771  0.2746
17279SOL    HW162151   7.046   3.138   5.509 -0.8842 -1.2742  0.8360
17279SOL    HW262152   7.168   3.051   5.490 -0.5867 -0.7286  0.2028
17280SOL     OW62153  10.020  10.750   0.979 -0.1622 -0.6254  0.1810
17280SOL    HW162154  10.107  10.772   0.943  0.0741 -1.0964  0.4522
17280SOL    HW262155  10.003  10.818   1.044  0.8292 -1.5297  1.4424
17281SOL     OW62156  12.657   4.012   9.938 -0.3685 -0.1225 -1.0004
17281SOL    HW162157  12.620   3.934   9.980  1.1493 -0.7692 -0.8251
17281SOL    HW262158  12.649   3.993   9.844  2.0831 -1.5751 -0.9857
17282SOL     OW62159  10.401  10.563   8.507  0.0085  0.1509 -0.6180
17282SOL    HW162160  10.417  10.520   8.423  0.8250 -0.9465  0.0665
17282SOL    HW262161  10.481  10.614   8.523  0.1026 -0.1168 -0.2336
17283SOL     OW62162   4.675   2.985   8.522 -0.2218  0.3091  0.1796
17283SOL    HW162163   4.730   3.057   8.554 -1.1466  1.4091 -0.6090
17283SOL    HW262164   4.723   2.950   8.447 -0.1365  0.6386  0.0760
17284SOL     OW62165   3.748   0.556   0.734 -0.1109 -0.2136  0.1803
17284SOL    HW162166   3.741   0.625   0.801  1.4481  1.3179 -1.1570
17284SOL    HW262167   3.687   0.584   0.665  1.6915  0.7719 -1.0926
17285SOL     OW62168   3.671   2.369   0.881 -0.0800  0.2033  0.0218
17285SOL    HW162169   3.655   2.463   0.869  0.2243  0.2896  0.3003
17285SOL    HW262170   3.648   2.331   0.796  2.9350  0.9276 -1.2599
17286SOL     OW62171   3.505   4.709   2.925 -0.2459  0.0085 -0.0534
17286SOL    HW162172   3.558   4.703   3.005  2.3402 -0.5038 -1.6924
17286SOL    HW262173   3.451   4.630   2.927 -0.0856 -0.0970  1.0866
17287SOL     OW62174   3.283   6.694   7.237 -0.2535  0.4080 -0.9332
17287SOL    HW162175   3.204   6.692   7.292 -0.3391 -0.5244 -1.0871
17287SOL    HW262176   3.317   6.783   7.248 -0.4919  0.3601  0.3112
17288SOL     OW62177  10.394   4.203   5.439 -0.0864 -0.2033  0.1564
17288SOL    HW162178  10.310   4.193   5.394 -0.1603  0.9196  0.0119
17288SOL    HW262179  10.404   4.298   5.450  1.0746 -0.3303  0.3386
17289SOL     OW62180  10.180   9.213   7.569 -0.0884  0.5725 -1.2175
17289SOL    HW162181  10.164   9.274   7.640  0.5651 -0.4167 -0.1889
17289SOL    HW262182  10.206   9.268   7.495 -1.7286  1.6912 -1.0088
17290SOL     OW62183   7.466   1.734   8.867 -0.1532  0.1941 -0.3354
17290SOL    HW162184   7.505   1.669   8.926 -0.5872 -0.6370 -0.9348
17290SOL    HW262185   7.506   1.817   8.892  0.5156 -0.3271  0.3648
17291SOL     OW62186   8.400   5.764   3.606  0.3850  0.5748 -0.2765
17291SOL    HW162187   8.345   5.749   3.529 -0.3528  0.0278  0.3370
17291SOL    HW262188   8.489   5.748   3.576 -0.1077 -2.9167 -0.2869
17292SOL     OW62189  11.844   0.028   3.034 -0.6608 -0.9997 -0.1843
17292SOL    HW162190  11.821  -0.051   2.985  1.0110 -2.4571  1.2489
17292SOL    HW262191  11.938   0.040   3.019 -0.6087 -0.0738  0.7194
17293SOL     OW62192   3.741   4.022   7.287  0.6239 -0.6576 -1.0707
17293SOL    HW162193   3.807   4.036   7.220  2.4265  2.4884  1.1010
17293SOL    HW262194   3.664   4.069   7.255  1.0595 -0.2201 -1.4936
17294SOL     OW62195   8.468  12.576  10.140  1.0714 -0.2874  0.8084
17294SOL    HW162196   8.447  12.527  10.220 -0.1068  1.7596  1.8340
17294SOL    HW262197   8.539  12.634  10.166 -0.8675  2.0714  1.1455
17295SOL     OW62198   0.635   0.090   8.928 -0.2723 -0.6226 -0.4473
17295SOL    HW162199   0.613   0.140   9.007 -1.8498  0.2720 -1.4005
17295SOL    HW262200   0.730   0.096   8.921 -0.0171 -1.2588  1.7133
17296SOL     OW62201   8.150  10.720   3.725 -0.6009 -0.5713  0.5452
17296SOL    HW162202   8.113  10.808   3.734  0.4719  0.0648 -0.8912
17296SOL    HW262203   8.229  10.721   3.779 -0.4632 -0.5629  0.3470
17297SOL     OW62204  11.473   3.341   5.497  0.3538 -0.7127  0.1239
17297SOL    HW162205  11.490   3.284   5.422 -0.7400  2.2292 -2.6149
17297SOL    HW262206  11.528   3.418   5.482 -2.6973  1.6744  0.0657
17298SOL     OW62207   1.254   0.096  11.855  0.6647 -0.3950 -0.3302
17298SOL    HW162208   1.348   0.081  11.845  0.6990 -0.2072 -0.2981
17298SOL    HW262209   1.232   0.156  11.783  0.4659 -0.8685 -0.6661
17299SOL     OW62210  10.632   5.376  12.904  0.3096 -0.4481 -0.3424
17299SOL    HW162211  10.586   5.293  12.909  0.7162 -0.6320  0.3795
17299SOL    HW262212  10.580   5.436  12.957  0.8093 -0.6137  0.3350
17300SOL     OW62213  11.742   1.722   0.057  0.0705 -0.8100 -0.2189
17300SOL    HW162214  11.661   1.714   0.107  0.4896 -0.3203  0.5568
17300SOL    HW262215  11.782   1.802   0.090  0.3942 -0.5227 -1.2950
17301SOL     OW62216  12.855  10.293   2.087  0.0450 -0.0676  0.2275
17301SOL    HW162217  12.762  10.296   2.111  0.4777 -0.9871  2.2746
17301SOL    HW262218  12.875  10.200   2.080  1.0511  0.0764  0.9377
17302SOL     OW62219   2.515   1.295   5.559  0.4418 -0.2745 -0.2466
17302SOL    HW162220   2.484   1.383   5.537 -0.9852 -0.2253  1.7754
17302SOL    HW262221   2.606   1.308   5.585  0.1250  0.6783  0.4217
17303SOL     OW62222  12.439  10.139   8.705 -0.0797 -0.8319 -0.1955
17303SOL    HW162223  12.522  10.107   8.741 -0.1687  0.6017  1.3814
17303SOL    HW262224  12.374  10.113   8.770 -0.1223  2.6275  1.3516
17304SOL     OW62225  12.979   6.560  12.155 -0.4484 -0.1894  0.3491
17304SOL    HW162226  13.007   6.492  12.216  1.6009 -0.2494 -0.5904
17304SOL    HW262227  13.044   6.558  12.085 -1.2285  1.6756 -0.4967
17305SOL     OW62228   1.339   1.952   2.490 -0.5562  0.5296 -0.2592
17305SOL    HW162229   1.346   1.977   2.582  1.9511  1.5819 -0.6359
17305SOL    HW262230   1.425   1.914   2.469 -1.4859 -0.8082 -1.8740
17306SOL     OW62231   9.302   0.107   2.185 -0.0542 -0.6839 -0.2915
17306SOL    HW162232   9.350   0.115   2.268  1.2593  1.8045 -1.1984
17306SOL    HW262233   9.214   0.138   2.206  1.1173  3.2638 -0.3795
17307SOL     OW62234   8.412   9.382   7.482 -0.1487 -0.1676  0.4196
17307SOL    HW162235   8.366   9.396   7.564 -0.3656 -2.0192  0.6476
17307SOL    HW262236   8.416   9.287   7.472  0.2852  0.0042 -1.4787
17308SOL     OW62237   6.209   2.616  10.739  0.3365  0.8607 -0.0657
17308SOL    HW162238   6.238   2.526  10.755 -1.2887  0.2192 -0.5710
17308SOL    HW262239   6.249   2.639  10.655  1.8743  1.1510  0.6974
17309SOL     OW62240   3.913   4.107   8.292 -0.2073  0.0680 -0.0731
17309SOL    HW162241   3.901   4.187   8.240 -0.7701  0.3607  0.4982
17309SOL    HW262242   3.825   4.078   8.313  0.0022  0.6265  1.7260
17310SOL     OW62243   5.121   8.099   6.268  0.4857 -0.2248  0.8165
17310SOL    HW162244   5.176   8.067   6.196  0.8069  1.8163  0.1005
17310SOL    HW262245   5.177   8.091   6.345  1.5765  1.0879  0.2178
17311SOL     OW62246  11.410  11.597   1.631  0.2517  0.4006 -0.3646
17311SOL    HW162247  11.319  11.577   1.610  0.2170 -0.3659  0.4723
17311SOL    HW262248  11.440  11.524   1.685  1.0199  1.1883  0.3250
17312SOL     OW62249   9.780  11.934   8.971 -0.2328  0.4712 -0.8306
17312SOL    HW162250   9.699  11.963   8.931 -2.1523 -0.6613  1.9621
17312SOL    HW262251   9.785  11.981   9.054  1.7763  0.1752 -0.7193
17313SOL     OW62252   0.068   6.279  10.055  0.1177 -0.3196  0.2428
17313SOL    HW162253   0.111   6.287  10.140  0.6074 -0.3017  0.0005
17313SOL    HW262254  -0.020   6.247  10.075 -0.3338  1.2092  0.8925
17314SOL     OW62255  12.757   2.680   1.291  0.1012  0.0018  0.1075
17314SOL    HW162256  12.670   2.720   1.285  0.6059  1.0218 -0.9530
17314SOL    HW262257  12.811   2.733   1.232  1.1302 -1.4613 -0.2989
17315SOL     OW62258   7.712   2.005   4.621  0.0798 -0.2944 -0.1879
17315SOL    HW162259   7.702   2.100   4.615 -1.7611 -0.3691  1.1058
17315SOL    HW262260   7.653   1.971   4.553  0.6599 -0.5209 -0.5814
17316SOL     OW62261   3.666   0.576   7.219 -0.5422  0.3200  0.1141
17316SOL    HW162262   3.681   0.588   7.125  2.5042 -0.2548  0.4153
17316SOL    HW262263   3.722   0.642   7.260 -0.8781 -0.2543  1.5323
17317SOL     OW62264   7.545  11.211   4.863 -0.0214 -0.4440  0.3118
17317SOL    HW162265   7.498  11.149   4.808 -1.4329 -0.8170  1.8696
17317SOL    HW262266   7.512  11.195   4.952  1.1172  1.1106  1.0680
17318SOL     OW62267   4.992   0.943  10.400  0.2185  0.1534  0.0444
17318SOL    HW162268   4.937   0.876  10.359  0.4536  0.2226 -0.3938
17318SOL    HW262269   5.081   0.923  10.370  0.6383 -0.7017  1.7268
17319SOL     OW62270   7.477   0.816   4.658 -0.0136 -0.2950 -0.0867
17319SOL    HW162271   7.565   0.780   4.646  0.0781  0.3677 -1.6104
17319SOL    HW262272   7.492   0.908   4.680 -0.2901  0.6363 -3.3201
17320SOL     OW62273   5.291   2.759   3.934 -0.1786  0.2783 -0.0117
17320SOL    HW162274   5.234   2.694   3.975 -0.9958  0.9672 -0.0090
17320SOL    HW262275   5.311   2.724   3.848 -0.9717  0.2146 -0.1765
17321SOL     OW62276   2.643   0.829  11.484 -0.0128  0.4666  0.3578
17321SOL    HW162277   2.594   0.820  11.402 -0.8931 -0.5921  0.9574
17321SOL    HW262278   2.660   0.922  11.492 -1.2482  0.7767 -0.2877
17322SOL     OW62279   3.946   1.977   0.824 -0.1561  0.2703 -0.0274
17322SOL    HW162280   3.886   1.946   0.756 -1.9393  1.7935  0.7752
17322SOL    HW262281   4.028   1.930   0.806 -1.0885 -0.7093 -2.1156
17323SOL     OW62282   1.845  10.838   9.099 -0.2854  0.3965  0.0313
17323SOL    HW162283   1.900  10.824   9.022  2.9597  1.1792  1.9956
17323SOL    HW262284   1.866  10.766   9.158 -0.8662  1.0643  1.1000
17324SOL     OW62285   0.231   8.069   2.153  0.4796 -0.4401  0.1179
17324SOL    HW162286   0.190   8.137   2.099  2.1080 -0.8674 -1.7600
17324SOL    HW262287   0.160   8.008   2.172 -0.3968  0.3383 -0.5339
17325SOL     OW62288   2.617   3.169   9.697  0.5257 -0.0324  0.4708
17325SOL    HW162289   2.538   3.188   9.746 -1.1881 -0.1465 -2.0728
17325SOL    HW262290   2.652   3.090   9.739 -0.5467  0.1444  1.7723
17326SOL     OW62291   5.546   8.100  10.449 -0.1207  1.0079  0.0294
17326SOL    HW162292   5.580   8.062  10.368  1.1592 -0.2627  1.0981
17326SOL    HW262293   5.496   8.176  10.421  1.2437  1.2731 -1.8674
17327SOL     OW62294   8.398  12.549  11.323  0.0085 -0.0361 -0.2121
17327SOL    HW162295   8.371  12.493  11.397 -0.6709 -0.0568 -0.4660
17327SOL    HW262296   8.318  12.596  11.299  0.5955  1.0930  0.0311
17328SOL     OW62297   7.875  12.613   2.697 -0.1277  0.3301  0.1186
17328SOL    HW162298   7.902  12.525   2.720  1.4208 -0.1165 -2.8842
17328SOL    HW262299   7.793  12.602   2.649 -1.7006  0.9308  2.5224
17329SOL     OW62300  12.286   4.542   1.290 -0.8591 -0.3899  0.0667
17329SOL    HW162301  12.378   4.516   1.284 -0.9128 -0.2184 -2.5614
17329SOL    HW262302  12.241   4.464   1.322  0.2097 -0.3073  1.9400
17330SOL     OW62303   3.933   4.817   3.267  0.3830 -0.1003 -0.6718
17330SOL    HW162304   3.936   4.885   3.334 -3.3515  0.3573 -0.7769
17330SOL    HW262305   3.957   4.862   3.186 -1.6163  1.0575 -0.6708
17331SOL     OW62306  12.021   5.171   4.968 -0.5375 -0.2234  0.5146
17331SOL    HW162307  12.046   5.183   4.876  1.5302  1.1717  1.2023
17331SOL    HW262308  11.966   5.093   4.967  1.1690 -1.5255 -1.6226
17332SOL     OW62309  11.303   0.727   7.022  0.1662 -0.0043  0.1728
17332SOL    HW162310  11.366   0.715   7.093  0.4219 -0.4074 -0.1143
17332SOL    HW262311  11.283   0.821   7.023 -0.7260 -0.1961  1.5184
17333SOL     OW62312   7.705   7.020   5.797  0.0147 -0.2176  0.4117
17333SOL    HW162313   7.696   6.941   5.744  1.3284  0.9662 -1.7509
17333SOL    HW262314   7.619   7.062   5.792  0.2915  0.2046 -1.4297
17334SOL     OW62315   1.119   4.606   5.780  0.4868  0.2378  0.4065
17334SOL    HW162316   1.171   4.526   5.780  1.0294  0.5764 -0.3642
17334SOL    HW262317   1.087   4.613   5.690  0.2457  0.7685  0.5306
17335SOL     OW62318   9.682   9.483  11.171 -0.6698 -0.0559 -0.2274
17335SOL    HW162319   9.775   9.493  11.188 -1.1028  2.1141  1.2239
17335SOL    HW262320   9.657   9.563  11.124 -1.9758 -0.0714  0.3774
17336SOL     OW62321  10.869   3.736   8.881  0.8451  0.3852  0.0916
17336SOL    HW162322  10.866   3.645   8.910 -0.8462  0.5584  0.5508
17336SOL    HW262323  10.796   3.778   8.926  0.9177  1.7231 -0.9707
17337SOL     OW62324   6.405  10.541  12.679  0.7688 -0.6828 -0.4231
17337SOL    HW162325   6.333  10.490  12.643 -0.1110  1.0902 -1.3082
17337SOL    HW262326   6.464  10.476  12.717  0.1186 -2.4035 -2.1955
17338SOL     OW62327   0.542   9.719   5.417  0.0146 -0.3565 -0.1235
17338SOL    HW162328   0.530   9.624   5.416 -1.6873 -0.1867  0.5506
17338SOL    HW262329   0.610   9.734   5.482 -1.6397 -0.9957  1.8683
17339SOL     OW62330   2.057   1.766   0.509  0.0011  0.1293  0.0784
17339SOL    HW162331   1.990   1.797   0.570 -1.4786 -2.9123  0.1966
17339SOL    HW262332   2.022   1.683   0.476  1.6805  0.6376 -3.3868
17340SOL     OW62333   6.802   3.790   2.306  0.4710  0.5043  0.4771
17340SOL    HW162334   6.859   3.764   2.233 -0.6043 -2.1154  0.4543
17340SOL    HW262335   6.719   3.814   2.264  0.3841  0.6606  0.7356
17341SOL     OW62336   1.249   6.987   9.356  0.3049 -0.0957 -0.0500
17341SOL    HW162337   1.211   6.958   9.439 -0.7104  0.0105 -0.4638
17341SOL    HW262338   1.296   7.067   9.378 -0.8412  0.5176  0.2464
17342SOL     OW62339  10.488  12.890   2.534 -0.3765 -0.1630  0.2144
17342SOL    HW162340  10.582  12.904   2.543 -0.5424  0.0741  1.7921
17342SOL    HW262341  10.457  12.878   2.623 -2.2590  2.4478  0.0341
17343SOL     OW62342   2.405   5.459   1.093  0.6024 -0.0065 -0.0379
17343SOL    HW162343   2.352   5.528   1.054  1.3609  0.8119  0.3624
17343SOL    HW262344   2.343   5.388   1.109 -0.0674  0.3347 -1.0203
17344SOL     OW62345  11.130   7.383  11.501  0.2922  0.2278  0.2185
17344SOL    HW162346  11.079   7.460  11.525 -0.2662  0.2827 -1.0900
17344SOL    HW262347  11.160   7.348  11.585  0.6843  1.9340  0.8438
17345SOL     OW62348   9.322   5.565   1.452  0.3099  0.1681 -0.0343
17345SOL    HW162349   9.315   5.559   1.356 -0.9162 -0.0074  0.0505
17345SOL    HW262350   9.398   5.511   1.473  0.0054 -0.6005 -0.8293
17346SOL     OW62351   3.200   7.975  10.352  0.4775  0.0904  0.2389
17346SOL    HW162352   3.274   7.934  10.396 -1.9526 -3.3162  1.6523
17346SOL    HW262353   3.154   8.022  10.422  0.2009  0.4287 -0.1649
17347SOL     OW62354   4.159   5.437   3.622 -0.6561 -0.2529  0.2603
17347SOL    HW162355   4.254   5.441   3.628 -0.4992 -1.1944 -1.1189
17347SOL    HW262356   4.140   5.461   3.531 -1.3806 -4.0198 -0.7413
17348SOL     OW62357   8.671  10.397   2.947  0.1619 -0.1160  0.0284
17348SOL    HW162358   8.762  10.395   2.920 -0.2403 -2.1846 -1.4438
17348SOL    HW262359   8.661  10.321   3.003 -0.9584 -0.8047 -1.0508
17349SOL     OW62360   6.208   4.621   8.094 -0.5012 -0.5164  0.4566
17349SOL    HW162361   6.210   4.647   8.186  0.0240 -1.5662  0.7708
17349SOL    HW262362   6.184   4.528   8.096 -3.5499  0.1315 -0.6680
17350SOL     OW62363   9.287   7.489   9.319  0.3359 -0.9191  0.6506
17350SOL    HW162364   9.289   7.469   9.225 -1.6579  0.0260  0.3617
17350SOL    HW262365   9.367   7.450   9.353  0.7946 -1.8397 -1.3310
17351SOL     OW62366   2.212   9.664   9.353  0.2889 -0.1626 -0.6387
17351SOL    HW162367   2.216   9.750   9.396 -0.0995 -0.6568  0.4127
17351SOL    HW262368   2.261   9.676   9.271  2.8004  0.2959  0.8259
17352SOL     OW62369   1.287   3.837   7.498 -0.3373  0.5495  0.1180
17352SOL    HW162370   1.222   3.898   7.533 -0.5965  1.1165 -1.2493
17352SOL    HW262371   1.243   3.799   7.421  0.7837  0.6421 -0.5899
17353SOL     OW62372   3.783   2.271   9.943 -0.0870 -0.3728  0.0312
17353SOL    HW162373   3.801   2.361   9.973 -2.0381  0.5171 -1.2843
17353SOL    HW262374   3.836   2.262   9.863  1.2376 -0.9613  0.9366
17354SOL     OW62375   9.492   1.313   7.253 -0.4014 -0.1450 -0.6590
17354SOL    HW162376   9.574   1.337   7.211 -0.7684 -0.8323 -1.8129
17354SOL    HW262377   9.425   1.365   7.207 -0.6429  0.3579  0.2191
17355SOL     OW62378   0.072   4.942   2.137 -0.3820 -0.3873 -0.0547
17355SOL    HW162379   0.007   5.013   2.143 -0.4025 -0.0068 -3.2537
17355SOL    HW262380   0.022   4.863   2.159 -1.3752  0.1418 -0.3252
17356SOL     OW62381  10.489   3.253   8.537 -0.3165  0.4009 -0.0525
17356SOL    HW162382  10.401   3.232   8.570 -0.1716 -0.3925 -0.1334
17356SOL    HW262383  10.478   3.335   8.490 -1.1221  0.0791 -0.4561
17357SOL     OW62384   5.381   6.509   8.799 -0.0787  0.6231 -0.2083
17357SOL    HW162385   5.459   6.551   8.763 -0.0399 -0.7559 -1.8582
17357SOL    HW262386   5.413   6.462   8.877  0.7373  0.1632 -0.8001
17358SOL     OW62387   3.352   8.094   7.937 -0.1988 -0.0147  0.1938
17358SOL    HW162388   3.351   8.046   7.854 -0.1903  0.5979 -0.1712
17358SOL    HW262389   3.316   8.180   7.915  2.6069  1.2678  0.1360
17359SOL     OW62390   5.942  12.723  12.740  0.0318  0.5009  0.0957
17359SOL    HW162391   5.850  12.697  12.735  1.0350 -3.4747 -1.5752
17359SOL    HW262392   5.951  12.792  12.674 -1.3316 -0.8847 -1.6453
17360SOL     OW62393  11.866   7.844   8.587  0.4290 -0.0427  0.3633
17360SOL    HW162394  11.856   7.870   8.496 -0.1305 -2.7303 -0.4426
17360SOL    HW262395  11.782   7.867   8.628 -0.4846 -1.5264 -0.6001
17361SOL     OW62396  11.107   5.151   0.855 -0.2599  0.5753  0.4953
17361SOL    HW162397  11.157   5.196   0.787 -1.0896  0.8365  0.0356
17361SOL    HW262398  11.078   5.222   0.914 -0.3984  0.4764  0.5473
17362SOL     OW62399  10.044   3.012   2.842 -0.0761 -0.1292  0.3219
17362SOL    HW162400  10.057   3.036   2.750 -1.4942  0.6871  0.3132
17362SOL    HW262401  10.052   3.094   2.890 -0.0353 -0.4417  0.8540
17363SOL     OW62402   9.692   5.114   4.023  0.1990 -0.5938 -0.6774
17363SOL    HW162403   9.642   5.160   3.955  1.0482  0.2028 -0.7819
17363SOL    HW262404   9.758   5.177   4.050 -2.1377  0.5171  3.3010
17364SOL     OW62405  12.804   9.196   8.620 -0.3411  0.0339  0.2665
17364SOL    HW162406  12.799   9.152   8.535 -0.7676 -0.5570  0.5899
17364SOL    HW262407  12.829   9.286   8.600  0.5163 -0.3466 -0.4165
17365SOL     OW62408  10.769  12.392   6.641  0.3623  0.2986  0.3374
17365SOL    HW162409  10.788  12.464   6.580 -1.1467  0.1887 -0.3072
17365SOL    HW262410  10.836  12.327   6.623 -1.7272 -1.0843 -3.4708
17366SOL     OW62411   2.325   0.864   2.833  0.0225 -0.5048  0.2591
17366SOL    HW162412   2.393   0.804   2.864  0.8048 -1.5017 -3.0392
17366SOL    HW262413   2.366   0.951   2.836  0.5674 -0.7699  0.6222
17367SOL     OW62414   0.282   3.699   2.988 -0.2083 -0.1521  0.3403
17367SOL    HW162415   0.253   3.761   2.920 -1.5427 -0.4025  0.6600
17367SOL    HW262416   0.208   3.640   2.999  1.8658 -3.4694 -1.7726
17368SOL     OW62417   3.784   8.591   9.665 -0.0812  0.2130 -0.5645
17368SOL    HW162418   3.831   8.672   9.684 -0.9708  1.1591 -2.1362
17368SOL    HW262419   3.705   8.596   9.719 -0.1096  0.3756 -0.6195
17369SOL     OW62420   7.349   9.102   8.065  0.1684 -0.0085  0.2670
17369SOL    HW162421   7.316   9.012   8.059  1.6742 -0.6719  1.1889
17369SOL    HW262422   7.313   9.146   7.988 -2.5353 -0.6999  1.0266
17370SOL     OW62423  11.153   4.450  11.215  0.0137  0.1283  0.2585
17370SOL    HW162424  11.220   4.399  11.169  1.5620 -0.4582  2.9813
17370SOL    HW262425  11.087   4.385  11.240 -0.6638  0.3930 -0.7932
17371SOL     OW62426  10.016   2.214   3.985  0.3596  0.4185 -0.1416
17371SOL    HW162427   9.933   2.246   3.948  0.2444  0.6483  0.3027
17371SOL    HW262428  10.055   2.162   3.915 -0.7857 -0.7963  0.0857
17372SOL     OW62429  11.744  10.288   3.701  0.0610  0.0995  0.2261
17372SOL    HW162430  11.729  10.272   3.607 -0.1873 -1.0430  0.4464
17372SOL    HW262431  11.675  10.350   3.726 -0.7395 -0.6641 -0.0471
17373SOL     OW62432   8.870  10.896   7.672  0.2787 -0.2211  0.1952
17373SOL    HW162433   8.870  10.820   7.612 -1.4008 -1.8261  2.0591
17373SOL    HW262434   8.946  10.948   7.645  0.8548 -1.9675 -1.8980
17374SOL     OW62435   4.408   1.274   6.947 -0.1057 -0.1701  0.2379
17374SOL    HW162436   4.452   1.292   6.864  2.1588  1.2741  1.6310
17374SOL    HW262437   4.463   1.209   6.990 -1.7758 -1.6337  0.2949
17375SOL     OW62438   9.095   2.687  12.279  0.1363  0.9768 -0.0472
17375SOL    HW162439   9.139   2.695  12.195  1.1341 -0.9666  0.2296
17375SOL    HW262440   9.137   2.751  12.335  0.6399  1.1146 -0.5745
17376SOL     OW62441   1.832   4.395  12.001 -0.3563  0.1200  0.4550
17376SOL    HW162442   1.866   4.457  11.937 -0.7670  1.2271  1.2871
17376SOL    HW262443   1.834   4.311  11.955 -1.3490  0.9771 -1.2927
17377SOL     OW62444   5.845  11.356   1.344 -0.2258  0.1168  0.3223
17377SOL    HW162445   5.881  11.293   1.405 -0.1792  1.1385  1.3793
17377SOL    HW262446   5.764  11.386   1.385 -0.3592  0.5793 -0.2599
17378SOL     OW62447  10.282   4.109   0.281  0.5836 -0.0512  0.3777
17378SOL    HW162448  10.256   4.200   0.298  2.8024  0.5835  0.7226
17378SOL    HW262449  10.358   4.117   0.224 -0.8333 -1.8403 -1.9431
17379SOL     OW62450   0.924  10.290   6.466  0.2278  0.1983 -0.0761
17379SOL    HW162451   1.001  10.261   6.515 -0.1754  0.4349  0.7046
17379SOL    HW262452   0.856  10.227   6.489 -0.1301  0.6659  0.1446
17380SOL     OW62453   2.138   1.429   2.914  0.9829 -0.2270 -0.2295
17380SOL    HW162454   2.052   1.470   2.922  0.9120 -0.0895 -1.4475
17380SOL    HW262455   2.126   1.363   2.846  1.5813 -0.9552  0.3559
17381SOL     OW62456   6.535  11.300   7.146  0.2811 -0.4301  0.2378
17381SOL    HW162457   6.458  11.264   7.190  1.2314 -1.0157  1.4778
17381SOL    HW262458   6.558  11.234   7.081  1.2763 -1.5608  1.6673
17382SOL     OW62459  10.366   2.798   1.716 -0.2831  0.0173  0.0703
17382SOL    HW162460  10.405   2.836   1.638  0.1369  1.6710  1.0303
17382SOL    HW262461  10.286   2.849   1.730 -1.0295 -1.1120  0.0151
17383SOL     OW62462   0.538   3.191   6.032 -0.4969 -0.2019  0.0877
17383SOL    HW162463   0.595   3.123   6.068 -0.2884 -0.1776 -0.1959
17383SOL    HW262464   0.585   3.273   6.046 -0.7501 -0.1149  0.4328
17384SOL     OW62465  11.912   0.686  11.162  0.1405  0.9670  0.7558
17384SOL    HW162466  12.005   0.671  11.145 -0.0531 -1.1627  1.2922
17384SOL    HW262467  11.906   0.687  11.258 -0.6507 -1.2766  0.7900
17385SOL     OW62468   3.520  12.270   9.542  0.1478  0.9142 -0.4573
17385SOL    HW162469   3.499  12.185   9.504  1.9578  0.8097 -1.3343
17385SOL    HW262470   3.536  12.327   9.467 -1.6987  2.2545  0.0948
17386SOL     OW62471   9.317  10.717   6.162  0.4205 -0.2271  0.7995
17386SOL    HW162472   9.287  10.808   6.161  0.9731 -0.0291  1.3852
17386SOL    HW262473   9.391  10.717   6.222  2.2616 -0.4867 -1.3236
17387SOL     OW62474   8.685   8.426  10.878 -0.6292  0.5533  0.7243
17387SOL    HW162475   8.622   8.496  10.896 -1.3505  0.1588 -0.1562
17387SOL    HW262476   8.633   8.358  10.835  0.4659  0.3326 -0.2960
17388SOL     OW62477   7.779   7.604  10.089 -0.0314 -0.1235 -0.3650
17388SOL    HW162478   7.832   7.549  10.146  0.0624 -1.0404 -1.3164
17388SOL    HW262479   7.801   7.694  10.115 -1.5777 -0.4608  2.5027
17389SOL     OW62480   3.572   7.720   2.078 -0.0357  0.7166 -0.7695
17389SOL    HW162481   3.492   7.767   2.055 -1.9138 -2.5172 -1.4131
17389SOL    HW262482   3.597   7.673   1.998  0.2769 -1.2652  0.4056
17390SOL     OW62483   6.145  10.691  10.975  0.2094 -0.3204  0.0907
17390SOL    HW162484   6.188  10.734  10.901  1.0259 -2.0562 -0.4961
17390SOL    HW262485   6.179  10.601  10.973 -3.2290 -1.7619 -0.2770
17391SOL     OW62486   4.786   7.709   5.966 -0.0626 -0.4280  0.1932
17391SOL    HW162487   4.733   7.724   6.045 -0.3578 -0.0874 -0.0692
17391SOL    HW262488   4.842   7.634   5.989 -1.3587 -1.4449  0.1168
17392SOL     OW62489   7.380   0.970   2.585  0.0893 -0.3092 -0.1172
17392SOL    HW162490   7.455   1.005   2.537  0.1939  1.2105  1.0872
17392SOL    HW262491   7.336   1.047   2.621 -1.8311 -1.1822 -0.4318
17393SOL     OW62492   8.763  12.644   5.957 -0.0607  0.2464  0.2476
17393SOL    HW162493   8.714  12.725   5.945 -1.7179 -0.6509  0.6574
17393SOL    HW262494   8.747  12.595   5.876  0.8071  0.2369  0.0681
17394SOL     OW62495   8.118  12.144  11.694 -0.3090  0.0453 -0.2744
17394SOL    HW162496   8.164  12.079  11.642  1.2852  0.8430  0.0565
17394SOL    HW262497   8.188  12.200  11.729 -1.5382  1.2533  0.3503
17395SOL     OW62498   2.978   1.423   7.065 -0.0903 -0.0652  0.1661
17395SOL    HW162499   3.070   1.422   7.093 -0.0113  1.0386 -0.0063
17395SOL    HW262500   2.931   1.382   7.137  0.6627 -1.7863 -0.2812
17396SOL     OW62501   4.925   2.906   9.139  0.3527 -0.4527 -0.1800
17396SOL    HW162502   4.882   2.893   9.223 -1.4655 -1.5301 -1.2032
17396SOL    HW262503   4.927   3.001   9.126  0.6078 -0.2802  1.0178
17397SOL     OW62504   9.988   9.652  12.018 -0.2671  0.4654 -0.5307
17397SOL    HW162505   9.986   9.745  12.042 -1.5585  0.5283 -0.8140
17397SOL    HW262506  10.031   9.651  11.933  0.0446  0.7639 -0.3818
17398SOL     OW62507   8.138  12.882  10.882 -0.2716  0.5530  0.1930
17398SOL    HW162508   8.139  12.882  10.978  1.1976 -0.5462  0.2135
17398SOL    HW262509   8.192  12.957  10.858  0.1679  0.2475  0.2319
17399SOL     OW62510   0.408   1.144   9.148 -0.2878 -0.2501  0.4446
17399SOL    HW162511   0.403   1.074   9.083 -0.0329 -0.9395  1.1370
17399SOL    HW262512   0.495   1.182   9.136 -0.2027 -0.4429  0.4376
17400SOL     OW62513   3.578   7.145   5.082 -0.3863 -0.0027 -0.6327
17400SOL    HW162514   3.515   7.087   5.041 -0.3003 -1.2291  0.8670
17400SOL    HW262515   3.525   7.212   5.125 -0.9398 -2.1521  2.3497
17401SOL     OW62516  10.482   4.270   7.577 -0.0404 -0.0260 -0.4539
17401SOL    HW162517  10.485   4.210   7.651 -0.6871  0.4060 -0.0683
17401SOL    HW262518  10.482   4.357   7.616 -0.3075  0.2090 -0.9629
17402SOL     OW62519  12.253   9.170   6.126 -0.6008  0.1822  0.6749
17402SOL    HW162520  12.317   9.099   6.122  0.3571  1.0408 -0.0679
17402SOL    HW262521  12.294   9.236   6.182 -1.0039  0.5905  0.4963
17403SOL     OW62522  12.133   5.462   7.661  0.1460  0.2087 -0.0565
17403SOL    HW162523  12.133   5.535   7.723 -1.2726 -0.0224  0.2417
17403SOL    HW262524  12.200   5.402   7.696 -2.0009 -0.9085  2.5278
17404SOL     OW62525  10.712   0.532  12.787  0.3101 -0.4047  0.5619
17404SOL    HW162526  10.732   0.455  12.733 -0.2982 -0.4528  0.3943
17404SOL    HW262527  10.709   0.605  12.724  1.1274 -0.1969  0.7554
17405SOL     OW62528   6.441  11.341   8.984 -0.2183 -0.3637 -0.1503
17405SOL    HW162529   6.363  11.341   8.929 -0.0521  2.5581 -0.5711
17405SOL    HW262530   6.513  11.359   8.923  0.2216  0.9673  0.7217
17406SOL     OW62531   1.291   5.429   9.561  0.0990  0.5716  0.2493
17406SOL    HW162532   1.373   5.411   9.515 -0.1829 -0.7193  0.2178
17406SOL    HW262533   1.313   5.424   9.654 -0.1363 -0.8940  0.2553
17407SOL     OW62534   7.651  12.316   4.209  0.6305 -0.8115 -0.2351
17407SOL    HW162535   7.571  12.272   4.235  0.5641 -0.0301  0.9226
17407SOL    HW262536   7.675  12.371   4.283  2.3390 -1.1577 -0.4737
17408SOL     OW62537   2.419   9.132   1.081  0.8490 -0.0587  0.0884
17408SOL    HW162538   2.447   9.041   1.086  0.7401 -0.2114 -1.6128
17408SOL    HW262539   2.323   9.128   1.072  0.5862  0.3319  2.2362
17409SOL     OW62540   1.187   1.409   1.799  0.0823  0.2234 -0.3453
17409SOL    HW162541   1.128   1.379   1.729  0.3177 -1.3403  0.0950
17409SOL    HW262542   1.142   1.484   1.837 -2.1071 -1.4240  0.5312
17410SOL     OW62543  10.516   6.384   0.531 -0.3534  0.3611 -0.2193
17410SOL    HW162544  10.587   6.410   0.590 -0.8622 -0.2349  0.6945
17410SOL    HW262545  10.471   6.466   0.510 -0.3242  0.5595  0.4511
17411SOL     OW62546   2.515  12.296  11.569  0.4406 -0.5963 -0.0944
17411SOL    HW162547   2.420  12.288  11.578  0.2798  0.6650 -0.4696
17411SOL    HW262548   2.548  12.207  11.579 -0.4698 -0.6770  3.4905
17412SOL     OW62549   5.084   6.887   8.918 -0.5280  0.0723  0.4436
17412SOL    HW162550   5.131   6.836   8.853 -0.4329 -0.2898  0.7894
17412SOL    HW262551   5.042   6.822   8.974  0.9264  0.3077  1.8839
17413SOL     OW62552   0.997   2.409   1.569 -0.4990  0.2227 -0.1851
17413SOL    HW162553   1.056   2.371   1.633  0.0725  0.0636 -0.7970
17413SOL    HW262554   1.052   2.465   1.515 -0.5503 -1.2364 -1.8308
17414SOL     OW62555   7.005   0.281   4.912 -0.5480 -0.4905 -0.3611
17414SOL    HW162556   7.020   0.256   5.003 -0.7466 -1.3341 -0.5511
17414SOL    HW262557   7.052   0.364   4.902 -0.3202 -0.5133  0.4412
17415SOL     OW62558   3.143  10.762   3.435  0.0331 -0.1577  0.5484
17415SOL    HW162559   3.129  10.857   3.437  0.4267 -0.0997  2.3390
17415SOL    HW262560   3.238  10.752   3.426 -0.1757 -0.4840 -2.9234
17416SOL     OW62561  10.026   9.868  10.475 -0.5940  0.0209 -0.1886
17416SOL    HW162562   9.999   9.960  10.474  0.3845  0.3599  1.5413
17416SOL    HW262563  10.049   9.850  10.566  0.1522 -1.6757 -0.6688
17417SOL     OW62564   6.639   7.983   8.556  0.5723 -0.1140  0.5887
17417SOL    HW162565   6.578   7.910   8.573 -1.3751  1.1160 -0.7508
17417SOL    HW262566   6.590   8.043   8.501  2.5634  1.6593  0.6248
17418SOL     OW62567   7.430   2.622   2.849 -0.4146 -0.1888 -0.1379
17418SOL    HW162568   7.447   2.713   2.825  0.0216  0.1338  1.2867
17418SOL    HW262569   7.430   2.622   2.945  3.1939 -2.2867  0.0450
17419SOL     OW62570   5.541  12.980  12.953 -0.0882 -0.2494 -0.0487
17419SOL    HW162571   5.478  12.919  12.916 -0.1100  1.2509 -2.7782
17419SOL    HW262572   5.490  13.060  12.970  0.4332 -0.1159  1.0000
17420SOL     OW62573   4.231   9.405   4.795  0.2455  0.3469 -0.1523
17420SOL    HW162574   4.227   9.484   4.742  1.0565  1.0321  0.7622
17420SOL    HW262575   4.318   9.369   4.778  0.5054  0.5578  0.6615
17421SOL     OW62576   3.505   1.772   0.598  0.7873  0.2262 -0.1868
17421SOL    HW162577   3.537   1.708   0.534  0.5246 -0.1939  0.0956
17421SOL    HW262578   3.412   1.750   0.609  0.7117  0.6180 -0.0388
17422SOL     OW62579   5.828  12.956   5.447  0.1831 -0.1057 -0.9265
17422SOL    HW162580   5.754  12.995   5.401 -1.9241 -0.1074  2.1648
17422SOL    HW262581   5.862  13.026   5.502 -0.4665 -1.2301  0.9986
17423SOL     OW62582  10.630  10.433   1.569  0.2278 -0.1598  0.2486
17423SOL    HW162583  10.568  10.361   1.583  0.2158 -0.0940  0.5473
17423SOL    HW262584  10.647  10.467   1.657 -0.2081  0.5759  0.0549
17424SOL     OW62585   8.067   5.551   5.185 -0.8334 -0.4087 -0.7117
17424SOL    HW162586   8.074   5.575   5.278 -2.0834 -0.4491 -0.5876
17424SOL    HW262587   8.118   5.470   5.177  1.4309  0.9281 -0.6293
17425SOL     OW62588   0.704   0.488  10.166 -0.6814  0.4442  0.1292
17425SOL    HW162589   0.792   0.526  10.165 -0.3688 -0.2791 -0.2492
17425SOL    HW262590   0.693   0.455  10.255  0.4347 -1.7275 -0.4761
17426SOL     OW62591   5.660   5.974   5.405 -0.0686 -0.2342  0.0626
17426SOL    HW162592   5.615   5.955   5.488  1.6588  2.6741  1.8669
17426SOL    HW262593   5.741   5.924   5.409 -0.9033 -1.7185 -0.9182
17427SOL     OW62594  10.178  10.437   6.215  0.5306  0.0802 -0.6922
17427SOL    HW162595  10.194  10.381   6.291 -0.6570 -0.8201 -1.0919
17427SOL    HW262596  10.230  10.398   6.145  2.7939  1.7289 -0.0661
17428SOL     OW62597  10.987   3.477   3.842  0.0942 -0.1862  0.6478
17428SOL    HW162598  10.920   3.536   3.808  2.0388  0.9890 -1.4341
17428SOL    HW262599  11.051   3.534   3.884  1.3370 -0.8873 -0.2054
17429SOL     OW62600   1.872   5.602   5.976 -0.0329 -0.2242 -0.1863
17429SOL    HW162601   1.864   5.661   6.051 -0.7645  0.2698 -0.6396
17429SOL    HW262602   1.784   5.567   5.963 -0.0503  0.1365 -1.1560
17430SOL     OW62603  11.670  11.601  11.547 -0.3237 -0.2916  0.4926
17430SOL    HW162604  11.741  11.542  11.570 -1.2582 -1.5870  0.1561
17430SOL    HW262605  11.600  11.544  11.516 -1.3620  0.9776  0.4014
17431SOL     OW62606  11.235   8.828  11.170 -0.4588 -0.0117 -0.0820
17431SOL    HW162607  11.324   8.859  11.155 -0.2877 -0.0802  0.7592
17431SOL    HW262608  11.225   8.826  11.265 -1.3014 -0.1689 -0.1592
17432SOL     OW62609   4.560   1.410  10.054  0.8622 -0.1352  0.0708
17432SOL    HW162610   4.608   1.417   9.972  1.6857  0.7702  0.6028
17432SOL    HW262611   4.628   1.395  10.120  0.4161  0.9502  0.8108
17433SOL     OW62612   7.822   9.314   9.774  0.4904  0.4924  0.2072
17433SOL    HW162613   7.898   9.358   9.737 -0.0365 -0.2174 -1.9107
17433SOL    HW262614   7.784   9.377   9.835  0.1700  2.7288 -2.1475
17434SOL     OW62615   6.752  10.522   8.554 -0.0567 -0.5179  0.0095
17434SOL    HW162616   6.711  10.487   8.633  0.6832  0.2565  0.7569
17434SOL    HW262617   6.706  10.605   8.538  2.1501  1.1601  1.7636
17435SOL     OW62618  12.096   8.902   7.259  0.3891  0.2006  0.4148
17435SOL    HW162619  12.053   8.895   7.173  2.0501  0.1728 -0.4515
17435SOL    HW262620  12.045   8.968   7.305 -0.7257  0.0012 -0.4774
17436SOL     OW62621   1.886   8.375   3.522 -0.3443  0.1381 -0.7184
17436SOL    HW162622   1.895   8.351   3.614  1.2552 -0.0920 -0.9043
17436SOL    HW262623   1.875   8.292   3.476  2.1958 -0.1178 -1.0390
17437SOL     OW62624   1.218   2.776   0.446  0.6586 -0.1625  0.1223
17437SOL    HW162625   1.180   2.717   0.381  0.0712  0.0606  0.2616
17437SOL    HW262626   1.192   2.739   0.531  2.0592 -0.8885  0.2717
17438SOL     OW62627   6.671   1.832   1.286  0.1947  0.2845  0.0134
17438SOL    HW162628   6.598   1.868   1.235  0.4398  0.6207 -0.1011
17438SOL    HW262629   6.628   1.784   1.357 -0.1533  1.4259  0.6089
17439SOL     OW62630   3.045   0.373  10.596  0.2579 -0.5900 -0.2449
17439SOL    HW162631   3.015   0.303  10.538  0.5612 -0.1234 -0.9698
17439SOL    HW262632   2.964   0.406  10.636 -0.1379  0.0820 -1.5377
17440SOL     OW62633   9.087  10.814   2.671 -0.5755  0.7112  0.3810
17440SOL    HW162634   9.043  10.899   2.670 -1.1815  0.4193 -1.4648
17440SOL    HW262635   9.018  10.751   2.654  0.0902 -0.0384  0.4104
17441SOL     OW62636  12.124   9.774   5.879  0.0746  0.3839  0.0375
17441SOL    HW162637  12.203   9.820   5.907 -1.0602  1.9948  0.6558
17441SOL    HW262638  12.122   9.787   5.784  2.4427 -2.7825 -0.6468
17442SOL     OW62639   4.551   0.212   4.296  0.1672 -1.0111 -0.3293
17442SOL    HW162640   4.503   0.257   4.366 -0.5641  0.9387 -1.9934
17442SOL    HW262641   4.567   0.124   4.331 -0.9132 -0.3906  1.9281
17443SOL     OW62642   4.207   8.404   0.834  0.6961  0.1444 -0.0967
17443SOL    HW162643   4.262   8.479   0.853 -0.7715  0.9940  1.0525
17443SOL    HW262644   4.132   8.414   0.893 -1.1392 -0.4566 -2.1979
17444SOL     OW62645  12.965   4.707   0.406  0.3055  0.0856  0.0720
17444SOL    HW162646  12.912   4.739   0.479 -0.6735 -1.3378  0.0226
17444SOL    HW262647  13.045   4.673   0.447 -0.2293 -0.6837  0.5074
17445SOL     OW62648   5.875   2.799   0.186 -0.5468  0.1699  0.6180
17445SOL    HW162649   5.805   2.753   0.140 -1.8444  0.5629  2.1195
17445SOL    HW262650   5.837   2.824   0.270  0.1512  3.6883  0.0621
17446SOL     OW62651   9.327   9.224   5.525 -0.1268 -0.3475  0.1136
17446SOL    HW162652   9.406   9.277   5.531 -1.2235  1.3221  0.7804
17446SOL    HW262653   9.339   9.156   5.592  0.2311  0.6409  1.0931
17447SOL     OW62654   3.081   4.993   8.202 -0.0574  1.0598 -0.2471
17447SOL    HW162655   3.015   4.969   8.268 -0.1676 -1.6238 -1.2537
17447SOL    HW262656   3.038   4.980   8.118  1.4188  0.2704 -0.9182
17448SOL     OW62657   9.801  11.111   2.471  0.2652  0.4858  0.2735
17448SOL    HW162658   9.873  11.074   2.521 -0.0648 -1.7234 -0.7465
17448SOL    HW262659   9.722  11.079   2.515 -0.0331  0.3721 -0.3307
17449SOL     OW62660   5.353  12.395   5.661 -0.2352  0.6343  0.1228
17449SOL    HW162661   5.393  12.467   5.613  0.9348 -0.0667 -0.0121
17449SOL    HW262662   5.374  12.412   5.753  1.7889 -0.4861 -0.0533
17450SOL     OW62663   8.633   2.054   0.426 -0.1108 -0.1885 -0.0150
17450SOL    HW162664   8.648   1.980   0.485  1.2232 -0.8530 -1.1405
17450SOL    HW262665   8.714   2.063   0.376  0.0234  2.4783  0.5232
17451SOL     OW62666   0.097  12.231  12.417 -0.5640  0.7627  0.8290
17451SOL    HW162667   0.033  12.301  12.404 -1.7541 -0.5894 -1.4139
17451SOL    HW262668   0.046  12.150  12.407  1.0557 -0.4101  1.5970
17452SOL     OW62669   2.638   2.881  10.651 -0.0960 -0.0761  0.5043
17452SOL    HW162670   2.562   2.905  10.704 -0.5565  2.2593 -1.0681
17452SOL    HW262671   2.706   2.945  10.675  0.2556 -0.0701 -0.4759
17453SOL     OW62672  11.887   9.603   5.158  0.0897  0.0563  0.1890
17453SOL    HW162673  11.958   9.661   5.130  0.1467 -0.0696  0.0711
17453SOL    HW262674  11.839   9.584   5.077 -1.3490  1.8263  0.5626
17454SOL     OW62675   9.547   5.734   6.331 -0.7952 -0.3528  1.0623
17454SOL    HW162676   9.597   5.657   6.304 -0.5556 -0.3157  1.3967
17454SOL    HW262677   9.551   5.793   6.255  1.8376  0.7321  1.9405
17455SOL     OW62678   3.046   5.969   0.323  0.2145 -0.3534 -0.1989
17455SOL    HW162679   3.107   5.979   0.397 -1.4573  0.4237  1.1436
17455SOL    HW262680   2.970   6.022   0.348 -1.2387 -1.7021 -1.5692
17456SOL     OW62681   2.029  10.703   8.491  0.1708 -0.2990 -0.6072
17456SOL    HW162682   2.088  10.765   8.534 -0.4017  0.4283 -0.8668
17456SOL    HW262683   1.965  10.757   8.446  0.1319 -1.0703 -1.5019
17457SOL     OW62684   6.085   2.694   0.318 -0.0336 -0.0421 -0.1525
17457SOL    HW162685   6.082   2.599   0.307 -0.5516 -0.0293 -0.1491
17457SOL    HW262686   6.021   2.728   0.254 -0.1296  0.2770  0.1093
17458SOL     OW62687  11.584   7.361   9.275 -0.3522  0.1429  0.0440
17458SOL    HW162688  11.497   7.397   9.291 -0.4573 -0.2173  0.2872
17458SOL    HW262689  11.619   7.415   9.204 -1.1206 -0.2754 -0.6783
17459SOL     OW62690   0.704   4.087  10.369  0.0695  0.0279 -0.0506
17459SOL    HW162691   0.770   4.056  10.431  0.6872  2.0087  0.3490
17459SOL    HW262692   0.621   4.054  10.404  0.6334 -0.8225  0.5332
17460SOL     OW62693   5.895   7.992  12.731 -0.4238 -0.5253 -0.3477
17460SOL    HW162694   5.923   8.082  12.711 -0.6074 -0.1764  0.8445
17460SOL    HW262695   5.802   7.990  12.711 -0.4508 -0.3996 -0.2374
17461SOL     OW62696   7.230   2.008   3.668  0.5273 -0.1541 -0.0141
17461SOL    HW162697   7.143   1.976   3.691  0.8542 -0.9726  0.1322
17461SOL    HW262698   7.266   2.041   3.750  0.9252 -1.2247  0.2632
17462SOL     OW62699  11.494   7.673  11.187  0.0519 -0.0931  0.4082
17462SOL    HW162700  11.566   7.695  11.246  0.1845  0.1772  0.1476
17462SOL    HW262701  11.445   7.605  11.234 -0.2683  0.6255  1.1425
17463SOL     OW62702   1.656   4.910  10.333  0.7070  0.4392  0.4889
17463SOL    HW162703   1.670   4.843  10.266  0.3070 -0.1455  0.9716
17463SOL    HW262704   1.594   4.971  10.294  1.2092  0.6237 -0.0208
17464SOL     OW62705   0.905   9.060   5.503 -0.2886 -0.4280  0.6903
17464SOL    HW162706   0.826   9.008   5.515 -0.2743 -0.2603  1.6344
17464SOL    HW262707   0.962   9.005   5.450 -0.4559 -1.2004  1.2815
17465SOL     OW62708   4.762   1.948   4.046  0.3365  0.6144 -0.3590
17465SOL    HW162709   4.675   1.910   4.055  0.8146 -0.2296  1.1975
17465SOL    HW262710   4.762   1.989   3.960 -0.3237 -2.6631 -2.0609
17466SOL     OW62711   5.313   2.833   9.271  0.0822  0.0786  0.0887
17466SOL    HW162712   5.330   2.926   9.258 -0.6663  0.4334  1.4582
17466SOL    HW262713   5.294   2.800   9.183 -0.3220  1.3673 -0.3332
17467SOL     OW62714   7.344   9.459   2.098  0.2036 -0.2235  0.2859
17467SOL    HW162715   7.320   9.465   2.191  1.6051  0.7046  0.6241
17467SOL    HW262716   7.305   9.537   2.059  2.5254  1.3178  0.8475
17468SOL     OW62717   0.987   0.044   8.565 -0.4848  0.4573 -0.0558
17468SOL    HW162718   0.977   0.139   8.557  3.4865  1.1867  1.4509
17468SOL    HW262719   0.938   0.022   8.644  0.3624  1.7018  0.8650
17469SOL     OW62720   2.162   9.745   8.345  0.3621 -0.2090  0.2822
17469SOL    HW162721   2.141   9.829   8.305 -1.8349 -1.4747 -1.4668
17469SOL    HW262722   2.110   9.743   8.425  0.5536  0.1364  0.4191
17470SOL     OW62723   2.265   0.191   8.444  0.2895 -0.1006 -0.1780
17470SOL    HW162724   2.303   0.269   8.486 -0.2769  0.8304 -1.3338
17470SOL    HW262725   2.258   0.215   8.352  0.4728 -1.6902 -0.6253
17471SOL     OW62726   0.790   5.763  10.988  0.3303 -0.1198 -0.3534
17471SOL    HW162727   0.804   5.849  11.028 -1.0370  0.2080 -0.5586
17471SOL    HW262728   0.867   5.750  10.932  1.7350 -0.0876  1.4542
17472SOL     OW62729   2.820   0.124  11.594 -0.0577 -0.3643 -0.0427
17472SOL    HW162730   2.855   0.121  11.683 -2.7272 -2.3686  1.1215
17472SOL    HW262731   2.820   0.032  11.566 -0.0447  0.1393 -1.7761
17473SOL     OW62732   7.735   6.828   3.296  0.3749 -0.1973 -0.3947
17473SOL    HW162733   7.677   6.841   3.371 -0.6569 -0.3766 -1.1337
17473SOL    HW262734   7.759   6.916   3.269 -0.0160 -0.0927 -0.4166
17474SOL     OW62735   5.981  12.617   5.644 -0.0007 -0.0017  0.0366
17474SOL    HW162736   5.915  12.558   5.610 -0.8436  1.5004 -1.0508
17474SOL    HW262737   5.980  12.602   5.739 -2.1179  0.1906  0.0904
17475SOL     OW62738   0.721   3.761   3.209  0.3502 -0.5803  1.1050
17475SOL    HW162739   0.655   3.816   3.166  1.3030 -0.6376 -0.5620
17475SOL    HW262740   0.708   3.674   3.172  0.9219 -0.7352  1.2484
17476SOL     OW62741   0.413  12.218   0.393 -0.5049  0.5239 -0.9739
17476SOL    HW162742   0.493  12.169   0.375 -0.5793  0.4228 -1.0300
17476SOL    HW262743   0.440  12.285   0.456 -0.9228 -1.1878  1.1754
17477SOL     OW62744  10.931   5.394   0.563 -0.2052 -0.0811 -1.1637
17477SOL    HW162745  11.005   5.412   0.621 -0.2803 -1.1459 -0.7250
17477SOL    HW262746  10.854   5.418   0.615 -0.2490 -0.5708 -1.0023
17478SOL     OW62747   3.755   9.432   6.763  0.5137  0.5219 -0.6450
17478SOL    HW162748   3.776   9.374   6.689  0.2955 -0.2666 -0.0967
17478SOL    HW262749   3.838   9.473   6.785  1.1818 -1.3068  0.4215
17479SOL     OW62750   3.920   1.684   8.251 -0.2511 -0.1511 -0.6658
17479SOL    HW162751   3.957   1.629   8.181  0.1999  0.7354 -1.1373
17479SOL    HW262752   3.955   1.771   8.234 -2.5130  0.7325 -1.0898
17480SOL     OW62753   3.818   3.472   8.089 -0.6261 -0.6066  0.0998
17480SOL    HW162754   3.858   3.435   8.168 -0.8150  0.1932  0.5859
17480SOL    HW262755   3.892   3.501   8.036 -0.5080  1.8693  1.4853
17481SOL     OW62756  12.346  10.445   2.969 -0.4285 -0.5170  0.1991
17481SOL    HW162757  12.256  10.418   2.988 -0.9247  0.2596 -0.9287
17481SOL    HW262758  12.379  10.376   2.910  0.5094 -1.9803  2.3001
17482SOL     OW62759   8.302  12.724  10.693  0.4361 -0.5531  0.4035
17482SOL    HW162760   8.242  12.711  10.619  1.5637  2.4821 -1.1933
17482SOL    HW262761   8.274  12.805  10.734  1.5637 -0.7150  1.5823
17483SOL     OW62762  10.080   5.721   2.593  0.2670 -0.5280  0.6966
17483SOL    HW162763  10.173   5.705   2.605  0.5572  0.9620  0.7183
17483SOL    HW262764  10.076   5.810   2.556 -1.1370 -0.5320  0.7808
17484SOL     OW62765  10.185   7.211  10.002 -0.1623 -0.0085 -0.2816
17484SOL    HW162766  10.251   7.259   9.952 -1.0600  1.9886  0.3506
17484SOL    HW262767  10.159   7.272  10.071 -2.0101 -1.1006  0.0394
17485SOL     OW62768   2.413   4.901   3.398 -0.0791  0.3797 -0.4504
17485SOL    HW162769   2.414   4.805   3.392  0.2519  0.3420  0.1810
17485SOL    HW262770   2.419   4.930   3.307 -2.8762 -0.1904 -0.9203
17486SOL     OW62771   2.698   1.472   4.196  0.4314 -0.3898 -0.2654
17486SOL    HW162772   2.656   1.558   4.189  1.7305  0.2716 -0.2080
17486SOL    HW262773   2.722   1.464   4.288 -0.4900 -1.2254 -0.0831
17487SOL     OW62774  12.752   2.472   7.688 -0.2484  0.6193 -0.0266
17487SOL    HW162775  12.765   2.475   7.593 -1.8934 -0.5675 -0.3388
17487SOL    HW262776  12.837   2.451   7.724  1.0135  3.4838 -0.9991
17488SOL     OW62777  12.728   8.440  12.734 -0.1912  0.6381 -0.0492
17488SOL    HW162778  12.722   8.532  12.756 -0.6029  0.5341  0.2861
17488SOL    HW262779  12.727   8.394  12.818 -0.3140  0.3133 -0.2223
17489SOL     OW62780   6.283   7.819   3.917  0.5634 -0.1075 -0.8524
17489SOL    HW162781   6.322   7.752   3.972 -0.2432 -0.0538 -0.2001
17489SOL    HW262782   6.350   7.887   3.911  0.4610  0.1316  0.5092
17490SOL     OW62783  12.971   6.395   0.770 -0.4945  0.0330 -0.5470
17490SOL    HW162784  12.987   6.408   0.863  0.8375 -1.2211 -0.5537
17490SOL    HW262785  12.910   6.321   0.766  0.3765 -0.7013 -0.6606
17491SOL     OW62786   6.401   1.585   9.534  0.2744  0.1708  0.1240
17491SOL    HW162787   6.331   1.576   9.469 -0.0391 -1.4141  0.6339
17491SOL    HW262788   6.370   1.652   9.594 -0.1038  0.5879 -0.5258
17492SOL     OW62789   6.907   4.314   7.430 -0.5375 -0.0594  0.0471
17492SOL    HW162790   6.893   4.400   7.468  0.4823  0.0455  0.2268
17492SOL    HW262791   6.824   4.268   7.442 -0.7600  0.5364  0.8983
17493SOL     OW62792   8.347   4.245   6.156  0.2794  0.3019 -0.5734
17493SOL    HW162793   8.344   4.237   6.061 -0.2603 -0.3180 -0.5091
17493SOL    HW262794   8.323   4.336   6.173  1.5242  0.7416 -1.0770
17494SOL     OW62795   6.054  11.532   4.013 -0.0819  0.4836 -0.0697
17494SOL    HW162796   6.093  11.536   4.100  1.1495  0.4187 -0.6053
17494SOL    HW262797   6.040  11.623   3.989 -1.9894  0.4887  0.8439
17495SOL     OW62798  11.725   1.617  12.215 -0.3840 -0.2515 -0.2752
17495SOL    HW162799  11.783   1.654  12.149  0.1190 -0.3845  0.0889
17495SOL    HW262800  11.638   1.651  12.192 -0.6441 -2.0811 -2.3387
17496SOL     OW62801  11.753   7.392   1.143 -0.0017  0.0301 -0.2525
17496SOL    HW162802  11.819   7.382   1.074 -0.7217 -0.6005 -0.8673
17496SOL    HW262803  11.728   7.302   1.165 -1.1874  0.2661 -0.5657
17497SOL     OW62804   9.090   2.604   0.894  0.1771  0.3612  0.0828
17497SOL    HW162805   9.020   2.670   0.890 -1.1071 -0.9468 -0.0730
17497SOL    HW262806   9.073   2.557   0.976  0.0857 -0.7808 -0.5739
17498SOL     OW62807   7.547   2.886   4.326 -0.0300  0.3995  0.2174
17498SOL    HW162808   7.611   2.918   4.389 -0.3929  0.2196  0.6811
17498SOL    HW262809   7.529   2.796   4.352 -0.6798  0.5340  0.2688
17499SOL     OW62810   9.303  10.754  11.998 -0.7811 -0.7794 -0.4453
17499SOL    HW162811   9.264  10.672  11.966  0.0914  0.1627 -4.4496
17499SOL    HW262812   9.236  10.820  11.984 -1.2968 -0.5752  2.3105
17500SOL     OW62813   0.494   4.307   2.241 -0.4126  0.0339  0.5263
17500SOL    HW162814   0.551   4.232   2.221  0.1293  0.7330 -0.7113
17500SOL    HW262815   0.412   4.288   2.194 -0.6568 -0.2551  1.0593
17501SOL     OW62816  10.719   5.867   1.978  0.1260  0.4959 -0.2267
17501SOL    HW162817  10.759   5.818   1.906 -0.5200  2.0241 -1.6781
17501SOL    HW262818  10.632   5.827   1.989 -0.0095  0.6554 -0.7120
17502SOL     OW62819   4.934   7.997   5.061 -0.1049 -0.1784  0.5246
17502SOL    HW162820   5.000   8.032   5.122  0.4759 -1.6172  0.7739
17502SOL    HW262821   4.929   7.904   5.084  0.4592 -0.8721 -1.9074
17503SOL     OW62822  10.547  12.175  10.016  0.3667 -0.1135 -0.0142
17503SOL    HW162823  10.591  12.101   9.973 -0.5501 -0.0261 -1.1362
17503SOL    HW262824  10.571  12.166  10.109  2.6326 -0.1318 -0.5378
17504SOL     OW62825   2.162   4.374   9.736  0.2298 -0.1384  0.0511
17504SOL    HW162826   2.236   4.314   9.729  0.6485  0.5209 -2.5397
17504SOL    HW262827   2.122   4.353   9.820  0.8560 -3.4220 -0.3126
17505SOL     OW62828  10.922   2.030   3.970  0.5436 -0.1034  0.3681
17505SOL    HW162829  11.013   2.019   4.000  1.9232  2.8570 -2.1165
17505SOL    HW262830  10.886   2.095   4.030 -0.1550 -1.5373  1.5745
17506SOL     OW62831   4.024   3.677   8.296 -0.1256  0.5691  0.0391
17506SOL    HW162832   3.941   3.685   8.343 -0.2919 -1.2464  0.1294
17506SOL    HW262833   4.030   3.584   8.272  1.8359  0.6645 -0.0460
17507SOL     OW62834  12.583   0.020  12.716  0.3448  0.6633  0.3821
17507SOL    HW162835  12.570   0.006  12.810 -0.7244  1.3332  0.3595
17507SOL    HW262836  12.550  -0.061  12.676  1.1388  0.2270  0.5939
17508SOL     OW62837  11.971   3.141   3.967  0.3453 -0.3775  0.4399
17508SOL    HW162838  12.029   3.199   3.917 -0.5101 -1.3566 -1.8342
17508SOL    HW262839  11.943   3.075   3.903 -1.4445 -1.2758  2.0602
17509SOL     OW62840  12.369  12.532   3.499 -0.1115 -0.2008 -0.2355
17509SOL    HW162841  12.359  12.595   3.570  4.4742 -0.0329  0.5395
17509SOL    HW262842  12.368  12.586   3.419  1.6914  0.6841  0.2863
17510SOL     OW62843  10.736   1.436   0.140 -0.1043 -0.1584  0.5054
17510SOL    HW162844  10.738   1.348   0.103  0.7669 -0.2671  0.7789
17510SOL    HW262845  10.783   1.490   0.077 -1.3605  0.2997 -0.0786
17511SOL     OW62846   4.119   2.130   8.295 -0.0119  0.1398  0.1174
17511SOL    HW162847   4.184   2.200   8.296 -1.3196  1.4146  1.0495
17511SOL    HW262848   4.069   2.143   8.376 -0.1899 -2.0066  0.4089
17512SOL     OW62849   1.246  12.827   1.607  0.5490 -0.2998  0.1508
17512SOL    HW162850   1.258  12.829   1.702 -0.1849 -0.2228  0.2496
17512SOL    HW262851   1.161  12.868   1.593  0.2864 -1.0371 -0.4783
17513SOL     OW62852   6.641   2.609   3.237  0.1077  0.4450  0.1065
17513SOL    HW162853   6.717   2.639   3.287 -0.3897  1.5701  0.2146
17513SOL    HW262854   6.566   2.636   3.288 -0.3905 -1.1498  0.2746
17514SOL     OW62855   4.185   0.509   8.453  0.1678  0.3272 -0.4867
17514SOL    HW162856   4.117   0.576   8.465 -0.4695 -0.2348 -0.8681
17514SOL    HW262857   4.237   0.540   8.379  2.4168  2.4203  1.7695
17515SOL     OW62858  12.404  10.131   4.534 -0.3225 -0.1442 -0.7023
17515SOL    HW162859  12.312  10.105   4.539 -0.8222  1.2033 -2.2210
17515SOL    HW262860  12.451  10.049   4.518 -1.4601 -0.6249 -1.7584
17516SOL     OW62861   4.309   1.538   0.983 -0.1905  0.1017  0.1904
17516SOL    HW162862   4.340   1.628   0.974  0.2093 -0.2311 -3.1076
17516SOL    HW262863   4.214   1.546   0.990 -0.3468  0.8176 -1.9362
17517SOL     OW62864   4.199   9.300   7.751 -0.5320 -0.1225  0.7818
17517SOL    HW162865   4.214   9.278   7.843  3.0674 -0.3847  0.2839
17517SOL    HW262866   4.204   9.396   7.748 -1.5757 -0.0575  0.9667
17518SOL     OW62867   6.270   6.674  10.719  0.7628 -0.3561  0.1786
17518SOL    HW162868   6.339   6.702  10.659  0.1595  0.5624 -0.1061
17518SOL    HW262869   6.312   6.608  10.774  0.9400 -2.3704 -2.1906
17519SOL     OW62870   4.745   9.055  10.581  0.4425  0.2660 -0.3141
17519SOL    HW162871   4.797   9.008  10.647 -0.6891  0.3801  0.7053
17519SOL    HW262872   4.735   8.993  10.509  1.9414  0.2302 -0.5348
17520SOL     OW62873  12.960  10.127   5.631 -0.5381 -0.2646  0.3803
17520SOL    HW162874  13.053  10.112   5.647 -0.3197  0.8370  0.2166
17520SOL    HW262875  12.942  10.214   5.669 -1.0822  0.3124 -1.1219
17521SOL     OW62876   3.216   0.956  12.006  0.4300  0.6179 -0.0323
17521SOL    HW162877   3.169   1.038  12.019 -0.5780  0.3410 -1.6944
17521SOL    HW262878   3.147   0.889  12.007  1.2246 -0.2361  1.2024
17522SOL     OW62879   1.259   1.732   2.239  0.0670  0.0405 -0.1247
17522SOL    HW162880   1.306   1.676   2.302  0.7869  1.9605  1.1235
17522SOL    HW262881   1.258   1.818   2.280 -2.4947  0.6194 -1.2263
17523SOL     OW62882  12.518  12.121   2.887 -0.0290 -0.0605 -0.4688
17523SOL    HW162883  12.458  12.048   2.877  0.6306 -0.4197 -2.3017
17523SOL    HW262884  12.464  12.199   2.874 -0.6866 -0.1883  1.2537
17524SOL     OW62885  11.088   0.402   7.032  0.0058 -0.1057 -0.3653
17524SOL    HW162886  11.087   0.324   6.977  1.2233  0.6926 -1.5883
17524SOL    HW262887  11.166   0.391   7.087 -1.0292 -0.7498  1.0471
17525SOL     OW62888   8.751  11.926   9.612 -0.2898  0.1582 -0.9818
17525SOL    HW162889   8.785  11.859   9.553  3.3422 -0.5104  1.5193
17525SOL    HW262890   8.689  11.880   9.668  1.9476 -1.2421  0.5192
17526SOL     OW62891   2.616   7.744  10.571  0.0620 -0.1570  0.4305
17526SOL    HW162892   2.592   7.781  10.486  0.0691  1.1805  0.9735
17526SOL    HW262893   2.563   7.793  10.634  0.8637 -0.3445  1.2740
17527SOL     OW62894   3.998   0.825   1.919 -0.1832 -0.3398  0.4622
17527SOL    HW162895   4.011   0.914   1.884 -0.5387 -1.3631 -2.5692
17527SOL    HW262896   4.065   0.816   1.986 -0.5940  2.4296  1.4037
17528SOL     OW62897   3.532   6.308   2.583  0.0156  0.0299 -0.1105
17528SOL    HW162898   3.538   6.368   2.509  1.3190 -0.1689 -0.1872
17528SOL    HW262899   3.519   6.365   2.659 -1.6701  0.2143 -0.5019
17529SOL     OW62900   3.009   1.745  12.446  0.0692  0.5396 -0.0469
17529SOL    HW162901   2.917   1.728  12.468 -0.0265  1.8554  0.6376
17529SOL    HW262902   3.055   1.742  12.530  0.6353  0.0533 -0.3672
17530SOL     OW62903   2.457   7.518   4.788 -0.1758 -0.5329 -0.1687
17530SOL    HW162904   2.428   7.482   4.871 -0.6348  0.4763  0.1290
17530SOL    HW262905   2.550   7.539   4.801 -0.3391 -0.0251  0.2283
17531SOL     OW62906   9.324   5.964   1.056  0.4972 -0.2956  0.1319
17531SOL    HW162907   9.361   5.906   1.122  1.8372  1.5295  1.0682
17531SOL    HW262908   9.389   5.965   0.986 -0.3920 -1.3373 -0.7389
17532SOL     OW62909   7.460  12.921   5.392 -0.3479  0.0496  0.0964
17532SOL    HW162910   7.524  12.991   5.380  0.8333 -1.1345 -0.8561
17532SOL    HW262911   7.478  12.860   5.321 -0.1343 -2.1252  1.9004
17533SOL     OW62912   1.942   0.211   9.215 -0.5206  0.8186  0.5326
17533SOL    HW162913   1.979   0.282   9.268 -1.2232 -0.2802  2.6121
17533SOL    HW262914   1.849   0.213   9.235 -0.9069  0.6740 -1.1232
17534SOL     OW62915   7.793   1.471   1.957 -0.3560 -0.2123 -0.3353
17534SOL    HW162916   7.742   1.485   2.036 -0.1946 -1.1295 -0.0576
17534SOL    HW262917   7.835   1.555   1.940 -0.2235 -0.0644  0.6774
17535SOL     OW62918  12.339   4.233   0.794  0.1328  0.3712  0.5972
17535SOL    HW162919  12.301   4.296   0.733 -0.2770  0.7370  1.2094
17535SOL    HW262920  12.266   4.210   0.852 -0.0934 -1.6999 -0.4228
17536SOL     OW62921   4.128   4.835  12.005  0.1182  0.0313  0.0505
17536SOL    HW162922   4.076   4.910  11.975  1.0229  0.7835  0.2909
17536SOL    HW262923   4.145   4.784  11.926 -1.9986 -0.9166  0.1491
17537SOL     OW62924  12.228  12.664   7.778 -0.0457  0.1170  0.0425
17537SOL    HW162925  12.211  12.598   7.711 -0.0652 -1.1872  1.2745
17537SOL    HW262926  12.302  12.629   7.827  0.7691  1.6526 -0.0489
17538SOL     OW62927   3.823   7.788   0.920 -0.2427 -0.1480  0.4974
17538SOL    HW162928   3.879   7.780   0.843 -1.3969  2.7773 -0.8018
17538SOL    HW262929   3.749   7.841   0.890 -1.4627 -0.1225  3.2779
17539SOL     OW62930   4.404   9.007   3.632  0.3125 -0.1875 -0.3501
17539SOL    HW162931   4.346   8.984   3.559 -0.8270 -2.3959  1.1374
17539SOL    HW262932   4.346   9.008   3.709  1.5759  1.4872  0.6531
17540SOL     OW62933   6.334   2.460  10.244 -0.4418  0.1580  0.0650
17540SOL    HW162934   6.309   2.368  10.248 -0.5497 -0.0439 -2.9705
17540SOL    HW262935   6.423   2.463  10.278 -0.8710 -0.8242  1.3479
17541SOL     OW62936  12.584   2.128   8.225 -0.3087  0.2108 -0.2264
17541SOL    HW162937  12.601   2.086   8.310  0.1397 -1.2564 -1.0110
17541SOL    HW262938  12.552   2.057   8.169 -1.4709  1.3349 -1.0617
17542SOL     OW62939   5.249   9.416  11.471  0.0177 -0.7262  0.3474
17542SOL    HW162940   5.224   9.326  11.491  0.7243 -1.1431 -0.5559
17542SOL    HW262941   5.255   9.419  11.375  0.7947  0.0535  0.4017
17543SOL     OW62942   7.347   1.218  11.512 -0.8055 -0.2525 -0.0844
17543SOL    HW162943   7.301   1.215  11.596 -0.8285 -0.2701 -0.0977
17543SOL    HW262944   7.368   1.310  11.499  0.7534 -0.4529  0.7796
17544SOL     OW62945   2.912   0.863   6.370 -0.1327 -0.2095  0.2977
17544SOL    HW162946   2.936   0.845   6.279  2.1114  0.3409  0.7069
17544SOL    HW262947   2.845   0.931   6.364 -0.8920 -1.0359 -0.9522
17545SOL     OW62948   6.880   5.809   8.274  0.6675  0.2471 -0.3077
17545SOL    HW162949   6.857   5.787   8.184  2.4094 -0.2837 -0.6712
17545SOL    HW262950   6.899   5.903   8.272  1.7702  0.0355 -0.7768
17546SOL     OW62951   5.607  10.115   5.392  0.1708  0.4760 -0.0801
17546SOL    HW162952   5.649  10.043   5.344  0.7454  1.4273 -1.0737
17546SOL    HW262953   5.670  10.138   5.460 -0.9843 -1.3932  1.7073
17547SOL     OW62954   1.377   2.280   2.228  0.1909 -0.1485 -0.5448
17547SOL    HW162955   1.397   2.271   2.322  1.9052  0.8304 -0.7720
17547SOL    HW262956   1.347   2.370   2.218  0.5143 -0.0856 -0.9985
17548SOL     OW62957   0.040   4.820  12.306  0.2729 -0.1563  0.1597
17548SOL    HW162958  -0.027   4.756  12.281 -0.5069  1.0276 -0.9200
17548SOL    HW262959   0.050   4.876  12.228 -0.6380  2.3315  1.7088
17549SOL     OW62960   5.104   7.855   9.758  0.1658  0.0590 -0.3522
17549SOL    HW162961   5.172   7.805   9.803 -0.2472 -0.2334 -0.0354
17549SOL    HW262962   5.023   7.830   9.803 -0.3671 -0.8316 -1.7370
17550SOL     OW62963   3.523   7.544   2.489 -0.1322  0.1892  0.0908
17550SOL    HW162964   3.576   7.612   2.531  1.2220 -0.5552 -0.3367
17550SOL    HW262965   3.540   7.465   2.541 -0.1901 -0.2398 -0.5275
17551SOL     OW62966  10.195   1.222   7.653  0.0914  0.7595  0.5386
17551SOL    HW162967  10.273   1.259   7.612  0.5702  0.5437  1.2265
17551SOL    HW262968  10.227   1.187   7.737 -0.5290 -0.3445  0.3289
17552SOL     OW62969  11.996   2.679   9.200  0.1209  0.5850 -0.0989
17552SOL    HW162970  11.907   2.711   9.213 -0.0679 -0.1737  0.5927
17552SOL    HW262971  11.989   2.584   9.210  1.2409  0.6256  1.4428
17553SOL     OW62972   5.760   3.171   7.495  0.1555  0.1455 -0.0555
17553SOL    HW162973   5.692   3.221   7.540  1.3028 -0.8654  3.0516
17553SOL    HW262974   5.839   3.224   7.504  0.3246  0.1642 -1.4436
17554SOL     OW62975   8.980   5.267   0.089 -0.0906 -0.0391  0.1426
17554SOL    HW162976   8.963   5.206   0.016  1.5021  0.1637 -0.4464
17554SOL    HW262977   8.897   5.270   0.137  0.1228 -3.8689  1.1164
17555SOL     OW62978   0.954   4.918   5.136 -0.2718 -0.4295 -0.1125
17555SOL    HW162979   0.984   4.998   5.093  1.3423 -1.0223 -0.1550
17555SOL    HW262980   0.858   4.921   5.127 -0.1335  0.5683 -1.7461
17556SOL     OW62981   9.213  12.160   9.602 -0.0879 -0.1870  0.2319
17556SOL    HW162982   9.148  12.094   9.625  0.9332 -1.0275  0.8135
17556SOL    HW262983   9.223  12.213   9.681  0.2894 -0.3769  0.3152
17557SOL     OW62984   9.505   8.702   0.313  0.8223 -0.6718 -0.2442
17557SOL    HW162985   9.484   8.611   0.293  0.1768 -0.4426 -0.6601
17557SOL    HW262986   9.476   8.751   0.236  0.3000 -0.0120  0.3507
17558SOL     OW62987   1.789   5.593   2.892  0.1395 -0.3319 -0.0677
17558SOL    HW162988   1.769   5.617   2.802 -0.3034  0.6456  0.2800
17558SOL    HW262989   1.742   5.657   2.945  2.2073  0.5198  0.8286
17559SOL     OW62990   0.486   6.575   1.641 -0.5270 -0.2511 -0.4682
17559SOL    HW162991   0.493   6.618   1.727  2.6592 -2.9095  0.8081
17559SOL    HW262992   0.545   6.626   1.585  1.8799 -1.7173  0.5754
17560SOL     OW62993   0.431   3.177  10.943  0.0982  0.1667  0.2304
17560SOL    HW162994   0.502   3.177  11.007 -0.7081  1.4706  1.1767
17560SOL    HW262995   0.365   3.119  10.980  1.5383 -3.0971 -1.8111
17561SOL     OW62996   6.713   1.897   0.004 -0.1214 -0.2579  0.1172
17561SOL    HW162997   6.626   1.907  -0.034 -0.7378 -2.5785  0.7480
17561SOL    HW262998   6.697   1.885   0.098  0.7463 -1.6327  0.1284
17562SOL     OW62999   8.745  12.242   8.253  0.0458  0.0750 -0.4016
17562SOL    HW163000   8.714  12.302   8.186 -1.0096  1.0101  0.8619
17562SOL    HW263001   8.768  12.162   8.206 -2.6903 -0.0788 -1.6659
17563SOL     OW63002  12.198   3.484   2.008  0.2664 -0.1648 -0.5107
17563SOL    HW163003  12.114   3.522   1.984 -0.2318 -1.4688 -0.9097
17563SOL    HW263004  12.262   3.552   1.987 -0.7454  1.2262  0.7226
17564SOL     OW63005   7.547   2.036  11.685  0.0619 -0.0108  0.4119
17564SOL    HW163006   7.615   2.065  11.624 -1.3078  4.1756  0.6091
17564SOL    HW263007   7.465   2.062  11.644 -1.2913 -1.9636  1.7078
17565SOL     OW63008   1.993  12.915   8.901 -0.2984  0.0379  0.1341
17565SOL    HW163009   2.058  12.845   8.897 -0.4256 -0.0735  0.0139
17565SOL    HW263010   1.922  12.878   8.953 -0.7569 -0.2438 -0.6862
17566SOL     OW63011  11.872   8.480   8.419  0.0208  0.5666 -0.1318
17566SOL    HW163012  11.913   8.418   8.479  0.9695  2.7338  1.5972
17566SOL    HW263013  11.778   8.467   8.433  0.2100  0.1112  0.8577
17567SOL     OW63014   3.578   2.544   3.572 -0.0560  0.2713  0.0805
17567SOL    HW163015   3.577   2.601   3.648 -1.0161 -0.6440  0.7895
17567SOL    HW263016   3.670   2.534   3.550  0.2154  0.7700  0.9615
17568SOL     OW63017  10.016   8.558   8.562  0.2891 -0.9461 -0.2246
17568SOL    HW163018  10.064   8.633   8.528  0.8166 -1.2861 -0.2421
17568SOL    HW263019  10.066   8.530   8.639  1.2295 -2.4813 -1.3343
17569SOL     OW63020   5.083   1.082   9.046  0.3125  0.1281 -0.5147
17569SOL    HW163021   5.042   1.076   8.960 -4.1169 -0.0126  1.3866
17569SOL    HW263022   5.085   1.176   9.065  1.0276  0.1380 -0.5938
17570SOL     OW63023   1.103   1.735   0.401  0.9707  0.2373 -0.0584
17570SOL    HW163024   1.068   1.651   0.371  1.4634  0.3187 -0.9053
17570SOL    HW263025   1.152   1.768   0.325  0.6155  1.3819  0.1983
17571SOL     OW63026   6.096   9.415   5.288 -0.1899  0.1860 -0.1805
17571SOL    HW163027   6.051   9.331   5.285  0.0095  0.0586  0.2606
17571SOL    HW263028   6.030   9.477   5.321  0.1924 -0.1684  1.3130
17572SOL     OW63029   6.766   3.704  11.129 -0.5309  0.0031 -0.2111
17572SOL    HW163030   6.713   3.756  11.189  0.3844  2.0405 -1.0887
17572SOL    HW263031   6.706   3.637  11.096 -2.3914  1.7722 -0.6280
17573SOL     OW63032   9.964   1.999   4.939  0.0722  0.2036 -0.0349
17573SOL    HW163033   9.925   1.993   4.852  0.8029 -0.5604 -0.3251
17573SOL    HW263034   9.928   1.924   4.987  0.1677  0.2510  0.1124
17574SOL     OW63035  10.185   6.559   7.925 -0.5559  0.5247  0.8341
17574SOL    HW163036  10.098   6.578   7.889  0.0066 -0.5076 -1.1920
17574SOL    HW263037  10.245   6.611   7.871  0.1326  1.1047  2.1160
17575SOL     OW63038   1.553   1.506  12.382 -0.4594  0.6194 -0.2779
17575SOL    HW163039   1.579   1.591  12.345 -1.6628  0.1031 -2.5070
17575SOL    HW263040   1.600   1.442  12.329 -1.5838 -0.1440 -0.3839
17576SOL     OW63041   9.762   5.756   9.035 -0.3747  0.2852 -0.3177
17576SOL    HW163042   9.717   5.810   8.969 -0.3171 -0.5641 -1.0781
17576SOL    HW263043   9.745   5.666   9.007  2.2212 -0.0666 -0.9437
17577SOL     OW63044  11.682   7.687  10.483 -0.3506  0.3524 -0.3078
17577SOL    HW163045  11.703   7.633  10.406  0.7853  2.0398 -1.2362
17577SOL    HW263046  11.764   7.692  10.532  0.4036  3.3784 -1.6595
17578SOL     OW63047  11.206   2.376   6.903 -0.6605  0.4821  0.1689
17578SOL    HW163048  11.135   2.440   6.904 -0.7040  0.4828 -1.0218
17578SOL    HW263049  11.170   2.299   6.947 -1.9408 -0.0406 -1.6719
17579SOL     OW63050   3.292   2.780   8.665 -0.0763  0.0201 -0.7757
17579SOL    HW163051   3.198   2.801   8.660 -0.2087 -0.7924 -2.9534
17579SOL    HW263052   3.325   2.834   8.736 -2.3574 -0.3063  0.6451
17580SOL     OW63053   7.585   2.515   8.122 -0.2042  0.4620  0.0321
17580SOL    HW163054   7.587   2.443   8.184  1.1073 -1.0421 -1.6692
17580SOL    HW263055   7.667   2.563   8.136  0.1899  0.0012 -0.6333
17581SOL     OW63056   9.106  10.418   1.053 -0.4339  0.3038 -0.7005
17581SOL    HW163057   9.102  10.372   1.137 -2.3576  0.9821 -0.3501
17581SOL    HW263058   9.045  10.370   0.997 -0.2146  0.6679 -1.2587
17582SOL     OW63059   8.381   5.313   4.556  0.3537  0.6374  0.5055
17582SOL    HW163060   8.337   5.395   4.533 -0.9037 -0.5042 -1.3879
17582SOL    HW263061   8.470   5.341   4.580  0.3482  2.4759 -1.2654
17583SOL     OW63062  12.621  10.241   4.106 -0.7896  0.6062 -0.5632
17583SOL    HW163063  12.627  10.294   4.026 -0.0622 -0.6462 -1.3645
17583SOL    HW263064  12.538  10.268   4.147 -1.0553  1.4311 -1.6072
17584SOL     OW63065   3.981   8.363   9.777 -0.2790 -1.0033  0.6534
17584SOL    HW163066   4.060   8.389   9.730 -1.9045  1.1077 -1.1933
17584SOL    HW263067   4.001   8.378   9.869  1.2234  0.2502  0.1598
17585SOL     OW63068   1.509  11.643  10.385 -0.5491  0.3162  0.0332
17585SOL    HW163069   1.436  11.585  10.405 -0.7081  0.7021  0.5990
17585SOL    HW263070   1.480  11.730  10.414  1.1646  0.0404  3.0011
17586SOL     OW63071   8.206  12.505   3.497  0.0360 -0.1624 -0.0382
17586SOL    HW163072   8.296  12.533   3.511  0.3802  0.4412 -2.9023
17586SOL    HW263073   8.158  12.540   3.572  1.9646  0.4586  0.9690
17587SOL     OW63074   7.221   8.582   6.508  0.5561  0.5198  0.6618
17587SOL    HW163075   7.131   8.611   6.493  0.3757 -0.4846 -0.3194
17587SOL    HW263076   7.261   8.654   6.557 -1.2125  0.3397  2.5282
17588SOL     OW63077   1.183   3.470   5.226 -0.4564 -0.2462 -0.0223
17588SOL    HW163078   1.123   3.398   5.209 -0.3031 -0.1870 -0.8340
17588SOL    HW263079   1.151   3.542   5.173  1.8168 -0.9931 -2.6343
17589SOL     OW63080   9.961   7.593   5.623  0.2762  0.3270 -0.5061
17589SOL    HW163081   9.914   7.652   5.681  1.7968  0.1837  0.9542
17589SOL    HW263082   9.998   7.527   5.681  2.4924  0.6038 -1.5068
17590SOL     OW63083   0.626   8.391  12.163 -0.3423  0.2637 -0.3344
17590SOL    HW163084   0.715   8.354  12.158 -0.9878 -1.3903 -0.1894
17590SOL    HW263085   0.569   8.319  12.137 -1.7629  0.7915  1.1670
17591SOL     OW63086   4.323   8.531   1.961 -0.6474 -0.0821 -0.3133
17591SOL    HW163087   4.384   8.545   2.033  1.2135 -0.8014 -1.6615
17591SOL    HW263088   4.327   8.612   1.910 -3.3972  1.2064  1.2754
17592SOL     OW63089   3.594   7.423   9.861 -0.2986 -0.1256  0.2986
17592SOL    HW163090   3.614   7.508   9.820 -1.3024 -0.0624 -0.0822
17592SOL    HW263091   3.499   7.417   9.857 -0.3215 -0.6749  1.5559
17593SOL     OW63092  10.755   5.829  10.299 -0.1458 -0.6326 -0.4756
17593SOL    HW163093  10.692   5.808  10.229 -0.6607 -1.1195  0.1256
17593SOL    HW263094  10.814   5.754  10.302  1.4531  0.4749 -2.0727
17594SOL     OW63095   9.938   8.596   2.356  0.2640  0.2824 -0.2147
17594SOL    HW163096   9.917   8.504   2.341  0.1399  0.5856 -2.1687
17594SOL    HW263097   9.889   8.619   2.436 -0.7836 -0.9934 -0.4484
17595SOL     OW63098   1.284   8.994  12.885 -0.1149  0.0200  0.1550
17595SOL    HW163099   1.279   9.089  12.885 -1.5536  0.0083 -1.5548
17595SOL    HW263100   1.212   8.965  12.941  0.4483 -0.0669  0.8391
17596SOL     OW63101   1.821   6.497   3.192  0.4763  0.2255  0.4476
17596SOL    HW163102   1.750   6.459   3.244 -0.7321  2.6905  0.7693
17596SOL    HW263103   1.784   6.578   3.157  2.0963 -0.0608 -2.2031
17597SOL     OW63104   4.984   1.409   5.048  0.1433 -0.0158 -0.3689
17597SOL    HW163105   5.024   1.339   4.997  0.9729 -2.3651  3.1004
17597SOL    HW263106   4.892   1.384   5.055  0.2406 -0.2800  0.0545
17598SOL     OW63107   4.259   5.533   9.215  0.3476  0.2621 -0.0054
17598SOL    HW163108   4.305   5.568   9.292  2.1010  0.2687 -1.0052
17598SOL    HW263109   4.302   5.449   9.198 -1.1853 -0.5647  0.0227
17599SOL     OW63110   3.412   0.492   4.387  0.0273 -0.8843  0.5813
17599SOL    HW163111   3.506   0.478   4.405  0.7073 -0.2212 -2.0393
17599SOL    HW263112   3.397   0.584   4.408  0.2842 -0.6779 -0.1049
17600SOL     OW63113   3.988  10.282  10.568  0.4283 -0.4498 -0.5573
17600SOL    HW163114   3.897  10.312  10.564  0.8966  1.7721  2.2328
17600SOL    HW263115   4.023  10.299  10.481 -0.9611  1.7692 -0.7642
17601SOL     OW63116   7.768   6.412   3.321  0.0335 -0.1000 -0.4947
17601SOL    HW163117   7.800   6.465   3.394  1.9251  0.2472 -1.5144
17601SOL    HW263118   7.686   6.454   3.295  0.4571  1.1142  0.0399
17602SOL     OW63119   8.062  11.540   5.897 -0.2654  0.3398  0.3925
17602SOL    HW163120   8.004  11.532   5.821 -1.5179 -1.7549  1.4901
17602SOL    HW263121   8.136  11.482   5.877 -0.2533  0.3213  0.4926
17603SOL     OW63122   0.523   0.010  11.781 -0.3450  0.3708 -0.3323
17603SOL    HW163123   0.477  -0.066  11.816  0.2154  0.4180  0.5597
17603SOL    HW263124   0.513   0.077  11.849  0.0212  0.7640 -0.6589
17604SOL     OW63125  12.315   0.620   2.948  0.0444 -0.1140  0.0172
17604SOL    HW163126  12.349   0.627   3.037  0.4331 -0.1195 -0.1308
17604SOL    HW263127  12.307   0.526   2.932  2.7768 -0.2562 -1.0010
17605SOL     OW63128   2.667   4.012  12.231 -0.0982  0.4538  0.0997
17605SOL    HW163129   2.686   3.921  12.212 -0.4488  0.3068  0.4339
17605SOL    HW263130   2.691   4.023  12.323 -1.1142  0.3924  0.3911
17606SOL     OW63131   6.160   5.259   1.667 -0.7176 -0.0170  0.3906
17606SOL    HW163132   6.065   5.263   1.680 -0.9563 -3.1490  0.4902
17606SOL    HW263133   6.197   5.282   1.753 -1.5974 -1.9031  1.3534
17607SOL     OW63134   3.996   9.507   7.317  0.6248  0.3998  0.5011
17607SOL    HW163135   4.013   9.520   7.224 -1.1027 -1.6783 -0.1861
17607SOL    HW263136   4.056   9.436   7.342  0.5769  0.4615  0.7965
17608SOL     OW63137   7.890   9.452  10.306 -0.2316  0.2624 -0.4831
17608SOL    HW163138   7.842   9.392  10.364 -1.5240  0.6710 -1.0840
17608SOL    HW263139   7.870   9.539  10.340 -1.1705  0.5170 -1.6212
17609SOL     OW63140  12.093   5.042   2.972 -0.4956 -0.1511  0.0780
17609SOL    HW163141  12.152   5.065   3.044  0.1752 -0.6404 -0.3085
17609SOL    HW263142  12.111   4.949   2.955 -2.8091 -0.8888  1.2854
17610SOL     OW63143   0.932  12.229   0.988  0.3769  0.2490  0.6929
17610SOL    HW163144   0.843  12.263   0.989  0.3472  0.2361  2.7847
17610SOL    HW263145   0.973  12.264   1.068  2.4111  0.6359 -0.4394
17611SOL     OW63146  10.327   8.452   1.381  0.0900 -0.0962  0.5325
17611SOL    HW163147  10.367   8.525   1.335  0.8580 -0.4998  0.5350
17611SOL    HW263148  10.315   8.385   1.314 -0.8329  0.1092  0.4799
17612SOL     OW63149   5.843   4.924   2.989  0.2135  0.1784 -0.1789
17612SOL    HW163150   5.891   4.947   3.069  0.2350  1.5316 -0.5708
17612SOL    HW263151   5.784   4.998   2.974 -0.0144 -0.2041 -1.2462
17613SOL     OW63152   1.715   3.094   4.726  0.1045  0.4713 -0.0930
17613SOL    HW163153   1.776   3.030   4.692  1.1179  0.1838  2.0880
17613SOL    HW263154   1.634   3.080   4.677  0.7570 -1.4525 -0.6713
17614SOL     OW63155   7.165  12.253   9.783  0.5063  0.1371 -0.1619
17614SOL    HW163156   7.094  12.214   9.732 -0.5886  1.9414 -0.0765
17614SOL    HW263157   7.240  12.255   9.723  0.0292 -0.2886 -0.7810
17615SOL     OW63158   1.785   2.800   3.148 -0.0569 -0.0002  0.3696
17615SOL    HW163159   1.812   2.799   3.240 -1.4958  0.0245  0.8159
17615SOL    HW263160   1.763   2.891   3.130  0.0773 -0.0311  0.0486
17616SOL     OW63161   2.705  12.946   0.012  0.4843  0.6373  0.6329
17616SOL    HW163162   2.741  12.936   0.100  0.6736 -1.3482  0.4006
17616SOL    HW263163   2.721  12.860  -0.029 -0.2856  1.2671 -1.0674
17617SOL     OW63164   0.366   0.082   4.673  0.0020  0.4267  0.9272
17617SOL    HW163165   0.309   0.158   4.661 -0.0490  0.2948  0.3276
17617SOL    HW263166   0.339   0.020   4.605  1.3999  0.6871  0.0964
17618SOL     OW63167  10.777  12.399  12.698  0.1902  0.7083 -0.0798
17618SOL    HW163168  10.731  12.368  12.620  0.6829 -0.5657  0.0961
17618SOL    HW263169  10.857  12.345  12.700 -0.4309 -0.2231  1.9999
17619SOL     OW63170   1.673   3.019   2.749 -0.2188 -0.0208 -1.0957
17619SOL    HW163171   1.661   2.947   2.688  0.0266  0.0261 -1.2021
17619SOL    HW263172   1.607   3.083   2.725 -2.8171 -1.6194  1.1697
17620SOL     OW63173  12.148   6.744   9.994  0.6009  0.2146 -0.3138
17620SOL    HW163174  12.099   6.671   9.955  1.2477 -1.1524  1.2831
17620SOL    HW263175  12.235   6.738   9.955  0.3474  0.8121 -0.9779
17621SOL     OW63176   7.849  10.846   9.722 -0.6404 -0.6191  0.0361
17621SOL    HW163177   7.894  10.889   9.795 -0.0254 -0.4591 -0.4253
17621SOL    HW263178   7.905  10.864   9.646 -0.6175 -1.8401 -0.2571
17622SOL     OW63179  10.474   1.655   1.407  0.5177  0.4949  0.2243
17622SOL    HW163180  10.420   1.602   1.348  1.2045  0.2576 -0.2135
17622SOL    HW263181  10.465   1.613   1.492  0.9969 -0.3003 -0.1039
17623SOL     OW63182   9.658   7.960  11.758  0.0964  0.3352  0.6970
17623SOL    HW163183   9.641   7.964  11.664  0.1800  0.2279  0.6770
17623SOL    HW263184   9.719   7.887  11.768 -0.9612 -0.5300  0.9904
17624SOL     OW63185   0.537   3.498   8.131  0.2682 -0.0626 -0.8282
17624SOL    HW163186   0.613   3.444   8.104  0.1291 -0.8942  0.3686
17624SOL    HW263187   0.500   3.529   8.048  1.7116  0.0726 -1.4545
17625SOL     OW63188  10.581  11.922   8.724  0.2328  0.1075  0.1067
17625SOL    HW163189  10.596  12.011   8.756  0.9802  0.7181 -1.7813
17625SOL    HW263190  10.518  11.884   8.785 -2.1633  2.8179 -0.4748
17626SOL     OW63191   4.388   0.594   8.272  0.8601  0.1166  0.1324
17626SOL    HW163192   4.452   0.550   8.217  0.7825  0.3495 -0.1476
17626SOL    HW263193   4.334   0.643   8.211 -0.6637 -1.4043  0.1668
17627SOL     OW63194   6.147   2.415  11.862 -0.3608  0.2926  0.1335
17627SOL    HW163195   6.197   2.335  11.879 -1.0432 -0.0328  0.6419
17627SOL    HW263196   6.212   2.477  11.828  0.1084 -0.5976 -0.6455
17628SOL     OW63197  12.410   6.137  12.308  0.5554  0.7714 -0.5223
17628SOL    HW163198  12.479   6.071  12.306  0.4082  0.6071 -0.1593
17628SOL    HW263199  12.333   6.092  12.274 -0.0240  0.1943  1.4399
17629SOL     OW63200   8.415   8.268   7.489  0.2596  0.3475  0.1383
17629SOL    HW163201   8.442   8.356   7.516 -1.7698  0.9088  0.5394
17629SOL    HW263202   8.360   8.282   7.412 -0.7939 -0.4687  0.7143
17630SOL     OW63203   4.616  11.970   9.527 -0.3351 -0.0521 -0.4640
17630SOL    HW163204   4.598  11.941   9.438  0.0131 -1.1133 -0.1959
17630SOL    HW263205   4.597  11.894   9.582  0.2477  0.3344  0.2887
17631SOL     OW63206  11.999   5.365  11.468 -0.0601 -0.5375  0.0063
17631SOL    HW163207  12.041   5.279  11.465  0.4355 -0.3018  0.2088
17631SOL    HW263208  11.936   5.358  11.540  0.1559 -0.6472  0.1865
17632SOL     OW63209   4.825   3.907   0.613  0.3361 -0.5098  0.1959
17632SOL    HW163210   4.750   3.874   0.564 -0.2373 -1.2044  1.4939
17632SOL    HW263211   4.887   3.834   0.613  1.1463  0.1455 -1.0804
17633SOL     OW63212  12.119   2.939  10.147 -0.2834 -0.0993 -0.7195
17633SOL    HW163213  12.064   3.011  10.177 -0.4654 -0.3165 -0.5352
17633SOL    HW263214  12.085   2.918  10.060  0.3576  0.6476 -1.1755
17634SOL     OW63215   0.555   4.290   9.185 -0.2971 -0.5330 -0.1302
17634SOL    HW163216   0.531   4.199   9.172 -2.0546 -0.0202 -0.7343
17634SOL    HW263217   0.624   4.307   9.121 -0.3250 -1.2939 -0.3609
17635SOL     OW63218  10.730   7.853   1.785  0.2345  0.1155 -0.0390
17635SOL    HW163219  10.669   7.913   1.741 -0.0169  0.6576  1.0233
17635SOL    HW263220  10.732   7.776   1.728  1.2810  1.4546 -1.9405
17636SOL     OW63221   1.340   5.644   3.046 -0.1868  0.7145  0.1956
17636SOL    HW163222   1.263   5.659   3.101  0.1880  1.7850  0.4504
17636SOL    HW263223   1.304   5.614   2.962 -0.9283  1.7603  0.1229
17637SOL     OW63224   4.428   4.097   1.010 -0.1252 -0.1546 -0.4817
17637SOL    HW163225   4.480   4.176   1.003 -0.5626  0.1998  0.1441
17637SOL    HW263226   4.343   4.121   0.973 -0.5179 -0.0739  0.4386
17638SOL     OW63227   5.897  11.728   3.025 -0.2437 -0.5977  0.6773
17638SOL    HW163228   5.992  11.723   3.030 -0.3069 -1.2655  1.3946
17638SOL    HW263229   5.867  11.704   3.113 -1.0685 -0.2231  0.5079
17639SOL     OW63230   1.250   4.285   8.178  0.0904  0.0045  0.5700
17639SOL    HW163231   1.290   4.269   8.263 -0.3139 -1.5059  0.4931
17639SOL    HW263232   1.169   4.235   8.179  0.1649 -0.1795 -0.7566
17640SOL     OW63233  12.810   2.683   1.570 -0.0154  0.2079 -0.2249
17640SOL    HW163234  12.786   2.681   1.477  0.3672  0.1796 -0.3237
17640SOL    HW263235  12.796   2.774   1.596  0.6732  0.4007 -0.5214
17641SOL     OW63236   4.833   7.507  11.536  0.0859 -0.3272 -0.0614
17641SOL    HW163237   4.779   7.444  11.490 -2.6300  1.2355  0.7490
17641SOL    HW263238   4.774   7.547  11.600  2.1360  1.7107  0.7042
17642SOL     OW63239   4.074  11.390   5.065  0.1141  0.2377  0.0845
17642SOL    HW163240   4.044  11.308   5.027  3.2462 -0.2782 -1.6124
17642SOL    HW263241   4.068  11.377   5.160  0.7160 -2.0567 -0.1355
17643SOL     OW63242   3.353   6.999   5.956 -0.1037  0.1819 -0.3317
17643SOL    HW163243   3.441   6.979   5.990 -0.0814  0.0345 -0.4746
17643SOL    HW263244   3.334   7.086   5.989 -0.4208 -0.2770  0.7483
17644SOL     OW63245  11.843   0.840   3.281  0.6490 -0.4192 -0.2859
17644SOL    HW163246  11.784   0.913   3.302  0.5092 -0.6813  0.2569
17644SOL    HW263247  11.792   0.762   3.301  1.1916 -0.6482  0.2289
17645SOL     OW63248  11.318   1.784  12.215 -0.0224  0.2859  0.2114
17645SOL    HW163249  11.318   1.704  12.163  0.7005  1.7935 -2.3044
17645SOL    HW263250  11.402   1.785  12.259  1.0927  0.7792 -1.7800
17646SOL     OW63251   0.626   8.973   0.544  0.4641 -0.3064 -0.1923
17646SOL    HW163252   0.650   8.963   0.636  0.0984  0.0691 -0.0512
17646SOL    HW263253   0.552   8.913   0.532 -1.2109  1.5158  0.4510
17647SOL     OW63254   4.139   5.140  12.281  0.3066  0.1798  0.1695
17647SOL    HW163255   4.127   5.047  12.263  1.4296  0.2762 -1.2492
17647SOL    HW263256   4.101   5.185  12.206 -1.0838  0.9552  1.2761
17648SOL     OW63257   1.352   4.426   2.678  0.4657 -0.5877 -0.3620
17648SOL    HW163258   1.281   4.372   2.714  1.3572 -2.0473 -0.7152
17648SOL    HW263259   1.407   4.445   2.754 -0.2324  0.4744 -0.1029
17649SOL     OW63260   0.570   9.189   6.156 -0.0397 -0.0159 -0.1082
17649SOL    HW163261   0.619   9.266   6.182  0.0810 -0.0152 -0.3324
17649SOL    HW263262   0.628   9.115   6.176  0.6276  0.0588 -1.6332
17650SOL     OW63263  10.013   1.944   2.819 -0.1717  0.1587  0.5989
17650SOL    HW163264   9.948   1.922   2.751  0.9733 -0.5973 -0.2885
17650SOL    HW263265  10.095   1.905   2.787  0.6957  0.9765  1.7595
17651SOL     OW63266   0.394   6.387   8.926 -0.2121 -0.1058 -0.5298
17651SOL    HW163267   0.469   6.432   8.889  0.2983 -0.1402  0.4360
17651SOL    HW263268   0.425   6.354   9.011 -1.5754  0.6542  0.2891
17652SOL     OW63269   0.755   3.453   9.611  0.1939 -0.4123 -0.6255
17652SOL    HW163270   0.683   3.455   9.673 -0.0005  2.0357 -0.8377
17652SOL    HW263271   0.718   3.413   9.532 -0.5075 -0.5334 -0.2350
17653SOL     OW63272   1.981  10.847  11.782 -0.1770 -0.4283 -0.5318
17653SOL    HW163273   1.909  10.834  11.721 -1.2463 -2.6124  1.0541
17653SOL    HW263274   1.940  10.876  11.863  0.8842 -0.2955 -0.0207
17654SOL     OW63275   3.147  11.954   7.043 -0.2630  0.0460  0.1572
17654SOL    HW163276   3.224  11.950   6.986  0.0421  0.8065  0.5060
17654SOL    HW263277   3.073  11.944   6.983  0.0967 -2.7947  0.0235
17655SOL     OW63278   9.295   2.303   4.933  0.5349 -0.1153 -0.1322
17655SOL    HW163279   9.330   2.379   4.979 -1.6220 -0.3435  2.1001
17655SOL    HW263280   9.370   2.243   4.926  1.2717  0.4564  2.0195
17656SOL     OW63281   6.674  10.891   4.141 -0.1028  0.7077  0.2345
17656SOL    HW163282   6.753  10.874   4.191 -0.6290 -0.8879  0.5891
17656SOL    HW263283   6.662  10.986   4.145  1.3865  0.8856  0.7658
17657SOL     OW63284   7.703  10.482   0.157 -0.5043  0.4278  0.5622
17657SOL    HW163285   7.678  10.515   0.070  2.5302 -1.4167 -1.1855
17657SOL    HW263286   7.752  10.554   0.197 -0.4259  0.6837  0.0142
17658SOL     OW63287   6.307   4.537   3.795  0.5198 -0.2131 -0.1573
17658SOL    HW163288   6.255   4.498   3.866  0.1214  0.7194  0.0763
17658SOL    HW263289   6.393   4.550   3.834 -0.0790  1.6093  0.6408
17659SOL     OW63290   9.983   9.950   4.975  0.1743  0.0777 -0.8333
17659SOL    HW163291  10.063   9.923   5.021  0.7786  0.8692 -1.3765
17659SOL    HW263292  10.004   9.940   4.883 -0.6171 -0.3842 -0.9716
17660SOL     OW63293   8.253   0.566   7.979  0.0324 -0.1378 -0.2205
17660SOL    HW163294   8.189   0.495   7.976  0.4944 -0.5744  0.0530
17660SOL    HW263295   8.215   0.631   8.038 -0.5225 -0.0241 -0.6981
17661SOL     OW63296   6.308   7.165   2.620  0.5834  0.1872  0.1734
17661SOL    HW163297   6.298   7.073   2.595  0.2363 -0.1578  1.4941
17661SOL    HW263298   6.402   7.181   2.615  1.1484 -1.3236  3.3217
17662SOL     OW63299  10.842   0.505   1.023 -0.5207  0.1269  0.7591
17662SOL    HW163300  10.755   0.472   1.000  0.0650 -1.4669  0.7176
17662SOL    HW263301  10.896   0.485   0.946 -0.1573  1.3488  0.6725
17663SOL     OW63302   7.643   5.236   5.801 -0.1339 -0.4030 -0.5223
17663SOL    HW163303   7.619   5.156   5.847 -0.5222 -0.0267 -0.0566
17663SOL    HW263304   7.666   5.298   5.870 -0.6635  0.1523 -0.8373
17664SOL     OW63305   5.872  10.892   5.933 -0.3241 -0.7165 -0.6729
17664SOL    HW163306   5.789  10.940   5.934  1.0901  1.9297  0.0380
17664SOL    HW263307   5.886  10.869   5.841 -1.7886 -1.1860 -0.8018
17665SOL     OW63308   4.159   8.292   8.917  0.6700  0.6842 -0.2413
17665SOL    HW163309   4.159   8.327   9.006 -0.4742  1.1470 -0.4150
17665SOL    HW263310   4.252   8.290   8.892  0.8144  3.6312 -0.2363
17666SOL     OW63311   5.895   4.386   8.473  0.5265  0.3417  0.0543
17666SOL    HW163312   5.822   4.430   8.431  0.2317  0.0080  0.2155
17666SOL    HW263313   5.906   4.304   8.423 -0.1230 -0.2755  0.9070
17667SOL     OW63314   4.968   2.704   5.250 -0.5219 -0.0444 -0.9454
17667SOL    HW163315   4.898   2.727   5.189  0.6295  0.5922 -2.0582
17667SOL    HW263316   4.971   2.778   5.311 -0.6501  0.0454 -1.0472
17668SOL     OW63317   6.791  10.171  12.651  0.3362 -0.5858  0.2941
17668SOL    HW163318   6.863  10.234  12.645 -0.5429  0.6524  1.9712
17668SOL    HW263319   6.832  10.092  12.687  0.6814  0.5423  2.5683
17669SOL     OW63320  10.714   6.684   7.834 -0.3281 -0.0672 -0.1783
17669SOL    HW163321  10.807   6.671   7.855 -0.6624  0.4011  1.7714
17669SOL    HW263322  10.669   6.612   7.876 -0.9978  0.6116  0.2880
17670SOL     OW63323   8.431   7.841   5.321  0.0200 -0.9253  0.3425
17670SOL    HW163324   8.350   7.884   5.347 -0.8903 -2.0297 -0.5843
17670SOL    HW263325   8.404   7.772   5.261  1.7253 -0.8115 -0.6164
17671SOL     OW63326   0.430   3.119  12.756 -0.2565 -0.2995 -0.0852
17671SOL    HW163327   0.385   3.038  12.783  0.0056 -0.7842 -1.0475
17671SOL    HW263328   0.420   3.178  12.830  0.5177 -1.6135  1.1165
17672SOL     OW63329   6.375   1.432  12.725  0.0545 -0.1505  0.0553
17672SOL    HW163330   6.448   1.447  12.786 -0.3324 -2.4776  1.2051
17672SOL    HW263331   6.414   1.446  12.638  1.5253  0.0164  0.7038
17673SOL     OW63332   6.542   0.541   7.848 -0.0840  0.0352 -0.4519
17673SOL    HW163333   6.588   0.486   7.912  1.7808  2.1483  0.1887
17673SOL    HW263334   6.541   0.489   7.768 -0.1273 -1.6527  0.5842
17674SOL     OW63335   2.787  10.306   6.984  0.5685  0.0037  0.3453
17674SOL    HW163336   2.838  10.384   7.001 -0.2746  0.4855  0.7012
17674SOL    HW263337   2.709  10.315   7.038 -0.4701 -0.1395 -1.0612
17675SOL     OW63338  10.865   8.084   9.089  0.8205 -0.0015  0.7376
17675SOL    HW163339  10.928   8.156   9.096  1.9046 -0.7676 -0.5566
17675SOL    HW263340  10.906   8.023   9.028 -0.5659 -1.2079  0.9645
17676SOL     OW63341   3.843   9.256   4.946 -0.2428 -0.1715  0.0980
17676SOL    HW163342   3.838   9.210   4.862 -1.2922 -1.3548  0.7834
17676SOL    HW263343   3.816   9.191   5.011  3.0761 -0.1577  1.7281
17677SOL     OW63344   6.651   1.949   2.539 -0.3665  0.2995 -0.2068
17677SOL    HW163345   6.590   1.912   2.475 -1.8563 -0.0870  1.3807
17677SOL    HW263346   6.624   2.040   2.549  0.1858  0.4979 -0.4885
17678SOL     OW63347   4.978  11.757   2.939  0.2799  0.8484 -0.3623
17678SOL    HW163348   4.920  11.761   2.863  1.3580 -1.8814 -1.4860
17678SOL    HW263349   5.064  11.780   2.904  0.1858  3.6122  1.0059
17679SOL     OW63350   4.585  12.527  12.431 -0.6345 -0.3230  0.2969
17679SOL    HW163351   4.671  12.517  12.472 -0.4437  0.3389  0.0732
17679SOL    HW263352   4.551  12.438  12.425  0.2792 -0.6600 -0.1369
17680SOL     OW63353   3.384   9.256   7.297 -0.5187  0.4939 -0.6295
17680SOL    HW163354   3.478   9.257   7.315 -0.6272 -1.6460  0.4509
17680SOL    HW263355   3.359   9.348   7.296  1.1912  1.0748  1.4007
17681SOL     OW63356   4.734   7.507  10.084  0.0992  0.0318  0.1692
17681SOL    HW163357   4.695   7.527  10.170 -0.1411 -2.7250  0.7768
17681SOL    HW263358   4.666   7.458  10.038  0.8037  0.1562 -1.0321
17682SOL     OW63359   2.230   2.315  12.363  0.1066 -0.1387 -0.1894
17682SOL    HW163360   2.294   2.365  12.412  1.3760 -1.7381 -0.1429
17682SOL    HW263361   2.189   2.257  12.427  0.7193 -1.1842 -0.7089
17683SOL     OW63362   6.702   1.345   6.360 -0.1658 -0.9480  0.4385
17683SOL    HW163363   6.674   1.432   6.331 -1.3213 -1.0826  1.0889
17683SOL    HW263364   6.774   1.322   6.301 -0.3512  0.1233 -0.2305
17684SOL     OW63365   0.013   6.643   9.874 -0.3591 -0.4794 -0.0633
17684SOL    HW163366  -0.003   6.684   9.958 -3.0933  1.4479 -1.3778
17684SOL    HW263367  -0.068   6.656   9.824  1.3870 -0.7514 -3.2870
17685SOL     OW63368   3.203  12.895   3.664 -0.4932 -0.2882 -0.1237
17685SOL    HW163369   3.160  12.810   3.663 -0.7276 -0.1733  0.1138
17685SOL    HW263370   3.217  12.917   3.572 -1.2327 -0.1795 -0.2114
17686SOL     OW63371   3.686   2.829   4.558 -0.1766 -0.1989  0.1213
17686SOL    HW163372   3.625   2.875   4.616 -0.5633  0.4512 -0.7686
17686SOL    HW263373   3.647   2.743   4.546 -1.8868  0.7300 -1.7524
17687SOL     OW63374  10.676  11.897   9.629  0.1916  0.6025  0.0829
17687SOL    HW163375  10.664  11.804   9.648 -0.6842  1.0757  2.0747
17687SOL    HW263376  10.620  11.913   9.553 -1.7580  0.0084  1.3181
17688SOL     OW63377  10.432   2.484   9.332  0.3007  0.0874 -0.3363
17688SOL    HW163378  10.418   2.396   9.297  2.8561  0.1666 -1.8493
17688SOL    HW263379  10.360   2.536   9.295 -2.5163 -1.6384  2.2884
17689SOL     OW63380   1.021   9.593   1.605  0.1483 -0.1549 -0.2069
17689SOL    HW163381   0.933   9.555   1.607 -0.0518  0.3265  1.2646
17689SOL    HW263382   1.073   9.531   1.554 -0.3954 -1.9064  1.2839
17690SOL     OW63383   8.892   1.913  10.602 -0.0713  0.2817 -0.0514
17690SOL    HW163384   8.808   1.873  10.582  1.1040 -2.3356 -0.1817
17690SOL    HW263385   8.889   1.929  10.697 -0.6639  0.0787 -0.0342
17691SOL     OW63386  12.304   7.619   4.693  0.0149  0.4421 -0.4699
17691SOL    HW163387  12.332   7.629   4.602  1.0319  2.4020  0.0068
17691SOL    HW263388  12.220   7.664   4.698  1.3486  3.1178  0.1289
17692SOL     OW63389   2.536   8.149   3.187  0.2907  0.6109  0.7992
17692SOL    HW163390   2.599   8.087   3.224  0.6473  0.9663  0.7942
17692SOL    HW263391   2.590   8.214   3.142  0.2175  2.7793  3.5224
17693SOL     OW63392  10.019   7.224   7.338 -0.2752  0.3619 -0.3660
17693SOL    HW163393  10.108   7.234   7.372 -1.2665 -2.1865  3.6232
17693SOL    HW263394  10.014   7.133   7.309 -2.0653 -0.3245  1.7383
17694SOL     OW63395  11.063  11.198   6.909 -0.2071  0.2942 -0.3514
17694SOL    HW163396  11.073  11.173   7.001  0.9323  0.8984 -0.2988
17694SOL    HW263397  11.131  11.263   6.894  1.5713 -1.8232 -2.3648
17695SOL     OW63398   8.158   1.906   4.163  0.2270  0.3655 -0.2533
17695SOL    HW163399   8.224   1.886   4.097  1.6509  0.5945  1.0420
17695SOL    HW263400   8.208   1.920   4.244 -1.4524 -0.0722  0.9295
17696SOL     OW63401   4.280  11.041   8.210  0.1806  0.4593  0.2243
17696SOL    HW163402   4.304  11.011   8.122 -0.5068 -1.4557  0.6278
17696SOL    HW263403   4.363  11.046   8.257  0.3476 -0.7843  0.0934
17697SOL     OW63404   0.946   0.431  10.995  0.0282 -0.0917 -0.8019
17697SOL    HW163405   0.887   0.482  10.940 -0.9933  0.2049  0.5473
17697SOL    HW263406   1.033   0.468  10.978 -0.4795  1.0153 -1.0454
17698SOL     OW63407   4.970   3.945   1.265  0.1759 -0.4123  0.3203
17698SOL    HW163408   4.948   4.038   1.269 -4.0465 -1.0935 -1.4392
17698SOL    HW263409   5.009   3.934   1.178  2.1950 -0.1676  1.1300
17699SOL     OW63410   2.224   5.595   4.282 -0.1667 -0.2524 -0.8975
17699SOL    HW163411   2.297   5.591   4.219 -0.4048 -0.3233 -1.1689
17699SOL    HW263412   2.147   5.613   4.228 -0.3746 -0.3268 -0.6254
17700SOL     OW63413   2.106   5.671   3.297 -0.1607  0.2693 -0.5326
17700SOL    HW163414   2.196   5.658   3.327  0.6103  1.9388 -1.9387
17700SOL    HW263415   2.112   5.743   3.235 -2.6715  1.2151  0.2008
17701SOL     OW63416  12.964   7.024   6.544 -0.1373 -0.0396 -0.6276
17701SOL    HW163417  12.901   6.982   6.485 -2.4043 -0.9918  2.2353
17701SOL    HW263418  12.921   7.104   6.573  0.7593  0.2330 -0.0130
17702SOL     OW63419   3.185  10.943  11.542  0.2287  0.2779 -0.2726
17702SOL    HW163420   3.187  11.030  11.502  1.2529  0.6519  0.5172
17702SOL    HW263421   3.128  10.891  11.486  0.4430  1.1781 -1.3507
17703SOL     OW63422   9.798  10.268   0.781  0.4134 -0.3846  0.2008
17703SOL    HW163423   9.765  10.357   0.792  0.2768 -0.1601 -1.7860
17703SOL    HW263424   9.870  10.261   0.844  1.9707  1.9618 -1.1864
17704SOL     OW63425  11.049   5.424   0.974  0.8543 -0.3012 -0.2899
17704SOL    HW163426  10.962   5.463   0.984 -0.6133 -2.7077 -2.5263
17704SOL    HW263427  11.105   5.476   1.032 -2.0249  1.3475  1.2476
17705SOL     OW63428   4.344   9.185  10.217 -0.1989 -0.1576 -0.0676
17705SOL    HW163429   4.320   9.277  10.212  2.4646  0.5973 -0.4175
17705SOL    HW263430   4.385   9.166  10.133  0.1683 -1.3803  0.3606
17706SOL     OW63431   4.715  10.233   4.443  0.4593  0.7448  0.1577
17706SOL    HW163432   4.702  10.323   4.414  0.1544  0.2049 -1.5180
17706SOL    HW263433   4.793  10.204   4.395  1.1002  0.3800  1.3727
17707SOL     OW63434   5.744  11.575   8.262  0.2592  0.6229 -0.4242
17707SOL    HW163435   5.766  11.639   8.329  1.3083  0.9465 -1.0581
17707SOL    HW263436   5.743  11.624   8.180 -0.1611  0.0643 -0.7679
17708SOL     OW63437  10.098   4.919   9.710 -0.7458  0.6957  0.5471
17708SOL    HW163438  10.166   4.984   9.690 -0.8421  0.8000  0.5596
17708SOL    HW263439  10.145   4.848   9.753 -0.7413  1.0282  1.0931
17709SOL     OW63440  12.754  10.673   4.663  0.2767  0.0010 -0.1279
17709SOL    HW163441  12.753  10.603   4.598 -0.2775  2.2318 -2.6951
17709SOL    HW263442  12.669  10.666   4.707 -0.8109  0.4399 -2.0317
17710SOL     OW63443   3.493   7.833   4.657  0.1467  0.2942  0.0776
17710SOL    HW163444   3.530   7.892   4.723  0.5756  0.5379 -0.3686
17710SOL    HW263445   3.399   7.833   4.675  0.4061 -0.8906  1.6824
17711SOL     OW63446   8.188   3.973   4.084 -0.1731  0.1519  0.1466
17711SOL    HW163447   8.275   4.001   4.056 -0.2078 -1.3428 -1.6713
17711SOL    HW263448   8.131   4.048   4.065  0.4533  0.5520 -0.1980
17712SOL     OW63449   9.411   8.135   9.434 -0.2914  0.2525  0.2674
17712SOL    HW163450   9.502   8.124   9.460 -0.2969  0.3363  0.3211
17712SOL    HW263451   9.364   8.152   9.516 -0.6178 -1.4244  0.4750
17713SOL     OW63452   1.082   4.639   0.803 -0.3557 -0.0403  0.2954
17713SOL    HW163453   1.058   4.667   0.714 -0.8031 -0.3692  0.3100
17713SOL    HW263454   1.001   4.648   0.853  0.3176  1.9143  1.1306
17714SOL     OW63455   7.896   8.386   0.824  0.2613 -0.1859  0.6044
17714SOL    HW163456   7.946   8.318   0.868  1.0310  0.0741  0.1415
17714SOL    HW263457   7.893   8.459   0.887  2.4314  0.6660 -0.1921
17715SOL     OW63458   0.772   4.907   2.466  0.1853 -0.5104 -0.1806
17715SOL    HW163459   0.690   4.861   2.488 -0.1041  0.7766  1.7165
17715SOL    HW263460   0.774   4.908   2.371 -1.6328 -1.2485 -0.2744
17716SOL     OW63461   7.480   1.113   0.882  0.1041 -0.1300  0.2080
17716SOL    HW163462   7.565   1.153   0.900 -1.5564  2.4893  3.2418
17716SOL    HW263463   7.478   1.035   0.937  0.2836  0.2359  0.7415
17717SOL     OW63464   9.218  10.072   9.664  0.1441  0.3219  0.1268
17717SOL    HW163465   9.256   9.984   9.661 -0.5062  0.0699 -1.9752
17717SOL    HW263466   9.124  10.057   9.667  0.0244  0.9323 -0.3351
17718SOL     OW63467   1.136   4.006  11.723  0.4374 -0.5124 -0.4940
17718SOL    HW163468   1.165   3.968  11.640  1.3842  0.4309 -0.6186
17718SOL    HW263469   1.209   4.062  11.750 -1.0832  1.5761 -0.5438
17719SOL     OW63470   7.273   2.469   1.773 -0.1476 -0.0815  0.0966
17719SOL    HW163471   7.210   2.421   1.827  0.3301 -1.0746 -0.2173
17719SOL    HW263472   7.220   2.533   1.725 -1.1243 -1.7218 -1.1048
17720SOL     OW63473   7.094  10.668   7.052  0.4289  0.3632  0.3653
17720SOL    HW163474   7.160  10.708   7.109 -0.4682  0.8051  1.1316
17720SOL    HW263475   7.055  10.598   7.105 -0.0117  0.3925  0.0893
17721SOL     OW63476   1.426  12.124   3.030  0.4979 -0.7741 -0.2855
17721SOL    HW163477   1.397  12.204   2.986  0.2849 -1.5040 -1.5132
17721SOL    HW263478   1.522  12.133   3.034  0.4923 -0.5431 -0.6004
17722SOL     OW63479  12.548   7.590   4.125  0.0620  0.2757 -0.7631
17722SOL    HW163480  12.586   7.661   4.177 -1.0683  1.9856 -2.1628
17722SOL    HW263481  12.503   7.536   4.189 -0.1849  1.5868  0.2255
17723SOL     OW63482  10.241   2.702   3.015 -0.4452  0.5759 -0.0669
17723SOL    HW163483  10.296   2.660   2.949 -0.5210 -0.1729  0.3333
17723SOL    HW263484  10.154   2.706   2.975 -0.3747  0.6110 -0.2173
17724SOL     OW63485   7.186  11.469   1.112  0.0637 -0.0302  0.2250
17724SOL    HW163486   7.202  11.525   1.036  2.2997 -0.7702  0.0552
17724SOL    HW263487   7.112  11.414   1.086 -0.4957  1.0679 -0.6085
17725SOL     OW63488  12.337   4.192  12.845 -0.4735 -0.0616  0.0808
17725SOL    HW163489  12.293   4.253  12.787  1.3709 -0.1943 -1.5437
17725SOL    HW263490  12.314   4.105  12.811 -0.6380 -0.2080  0.5408
17726SOL     OW63491   6.709  10.387   7.293 -0.4171  0.0890  0.4099
17726SOL    HW163492   6.775  10.454   7.308 -0.9064  0.7004 -0.1033
17726SOL    HW263493   6.717  10.367   7.199 -1.5526  0.8340  0.1317
17727SOL     OW63494  12.094   2.426   8.567 -0.3440  0.5708 -0.4557
17727SOL    HW163495  12.030   2.366   8.605 -2.2375  2.5415 -0.3603
17727SOL    HW263496  12.119   2.385   8.484  0.5620 -1.6506  0.8023
17728SOL     OW63497   4.044   3.438   3.330  0.1806  0.0876 -0.2488
17728SOL    HW163498   4.031   3.525   3.368  0.3962  0.0990 -0.2013
17728SOL    HW263499   3.956   3.411   3.303 -0.1594 -0.3853  1.2431
17729SOL     OW63500   7.456   7.615  10.570  0.4752  0.4374 -0.0049
17729SOL    HW163501   7.396   7.544  10.545  0.8926  0.6790 -1.8742
17729SOL    HW263502   7.471   7.602  10.663  0.9836 -2.2919 -0.3746
17730SOL     OW63503   2.640   8.476   0.081  0.0294 -0.1011  0.0581
17730SOL    HW163504   2.688   8.553   0.111 -0.7509 -0.1053  1.3966
17730SOL    HW263505   2.569   8.511   0.028  0.5824 -0.0034 -0.6297
17731SOL     OW63506   1.098  10.894   8.785  0.2460 -1.0768  0.1979
17731SOL    HW163507   1.127  10.932   8.868  0.3562  0.5211 -0.5404
17731SOL    HW263508   1.161  10.824   8.767  1.6766  0.1594  0.2742
17732SOL     OW63509   7.635   8.250   7.690  0.2139 -0.1276  0.2513
17732SOL    HW163510   7.605   8.209   7.771  2.4840  0.4062  1.4752
17732SOL    HW263511   7.613   8.342   7.701  0.3710 -0.0834  0.2005
17733SOL     OW63512   6.776  12.427   6.804  0.0012  0.6379 -0.1592
17733SOL    HW163513   6.684  12.446   6.824  0.3358  1.3682  0.7744
17733SOL    HW263514   6.791  12.341   6.842 -0.5276  0.1080 -1.1150
17734SOL     OW63515  11.254   4.145   3.245 -0.1464  0.1938 -0.3395
17734SOL    HW163516  11.344   4.134   3.216 -0.4413  0.3321 -1.3785
17734SOL    HW263517  11.255   4.124   3.338  1.0678  0.7940 -0.2034
17735SOL     OW63518   9.140   1.646   1.507  0.2481 -0.1041  0.4592
17735SOL    HW163519   9.135   1.705   1.581  2.3038  1.6612 -0.7052
17735SOL    HW263520   9.087   1.571   1.533 -1.8827  1.8956  2.2887
17736SOL     OW63521   4.169   1.053  10.954 -0.4378 -0.7349 -0.3387
17736SOL    HW163522   4.144   1.140  10.922 -1.4907 -1.2993 -1.1391
17736SOL    HW263523   4.086   1.005  10.959 -0.1126 -1.1744  1.8031
17737SOL     OW63524   8.175   8.980   9.198 -0.0039  0.3137  0.4623
17737SOL    HW163525   8.172   9.074   9.178  0.0908  0.2253  0.0278
17737SOL    HW263526   8.158   8.975   9.292 -3.3414  0.5865  0.0033
17738SOL     OW63527  12.563   1.103   4.678 -0.5327  0.4614  0.5471
17738SOL    HW163528  12.501   1.159   4.631  0.3315  1.0458  0.0820
17738SOL    HW263529  12.551   1.016   4.639 -0.5619  0.7196 -0.0303
17739SOL     OW63530   0.429  10.309  10.177 -0.0590 -0.5013 -0.0919
17739SOL    HW163531   0.398  10.226  10.214 -1.2209  0.4595  1.2012
17739SOL    HW263532   0.506  10.285  10.125 -1.1802 -2.5776 -0.9191
17740SOL     OW63533   9.262   2.022   0.855 -0.4056  0.1995  0.0035
17740SOL    HW163534   9.288   1.964   0.926  2.0145 -0.5684 -1.3976
17740SOL    HW263535   9.188   1.976   0.814  0.9172 -1.5785 -0.5498
17741SOL     OW63536   2.478   0.753   5.931 -0.3198 -0.4796 -0.1004
17741SOL    HW163537   2.435   0.682   5.978 -0.7029 -0.9341 -1.1133
17741SOL    HW263538   2.567   0.720   5.914 -1.1506 -1.7075 -2.5446
17742SOL     OW63539   9.845  11.184   5.926  0.2748 -0.1807  0.5091
17742SOL    HW163540   9.778  11.117   5.911  0.6723 -0.7215  1.1090
17742SOL    HW263541   9.886  11.159   6.008  1.3845  0.0119  0.0286
17743SOL     OW63542   0.859  12.424  10.682 -0.1127  0.5047 -0.1960
17743SOL    HW163543   0.860  12.392  10.773 -1.1378  3.6639  1.0752
17743SOL    HW263544   0.926  12.492  10.680 -0.9174  1.2959 -1.4585
17744SOL     OW63545   8.298   8.153   9.629 -0.0599  0.1689  0.3865
17744SOL    HW163546   8.221   8.141   9.574  1.0722  1.1762 -1.5067
17744SOL    HW263547   8.343   8.230   9.593  2.1087 -0.6754  1.0770
17745SOL     OW63548   6.456   3.391   6.719 -0.2958  0.3656  0.4839
17745SOL    HW163549   6.539   3.378   6.766  0.2941  0.2318 -0.5572
17745SOL    HW263550   6.474   3.361   6.630 -1.3152  0.8225  0.1070
17746SOL     OW63551  11.503  12.654  11.185 -0.1805  0.4982 -0.4075
17746SOL    HW163552  11.505  12.740  11.227  2.3944  0.1277  0.4215
17746SOL    HW263553  11.519  12.671  11.093 -1.5539  1.0143 -0.5661
17747SOL     OW63554   0.524   2.223   0.700  0.1650 -0.1177 -0.2859
17747SOL    HW163555   0.566   2.309   0.711 -0.6301  0.3201 -0.5574
17747SOL    HW263556   0.533   2.204   0.607  0.3452 -0.3339 -0.2244
17748SOL     OW63557   9.647   8.255   6.472 -0.1562 -0.2229  0.1263
17748SOL    HW163558   9.554   8.238   6.461 -0.7800  2.6943 -0.0747
17748SOL    HW263559   9.653   8.351   6.476  2.6547 -0.3588  1.8122
17749SOL     OW63560   3.712   1.302   2.377  0.5170 -0.6505 -0.6722
17749SOL    HW163561   3.651   1.246   2.425  1.6650 -0.6374  0.8960
17749SOL    HW263562   3.666   1.385   2.367  0.5715 -0.3264  1.3209
17750SOL     OW63563   2.672   0.771   8.923  0.1795  0.3327  0.5463
17750SOL    HW163564   2.694   0.737   8.836 -0.7635  0.8577  0.0782
17750SOL    HW263565   2.756   0.787   8.965  0.7017 -2.4569  0.7613
17751SOL     OW63566   5.699  11.509  11.439  0.5589  0.6359 -0.1253
17751SOL    HW163567   5.734  11.576  11.497  1.7285 -0.0905  0.0448
17751SOL    HW263568   5.763  11.437  11.444 -0.9855 -0.7669  0.2009
17752SOL     OW63569   7.991   0.410   4.431  0.5381  0.2796  0.0497
17752SOL    HW163570   7.928   0.457   4.376  0.2590 -0.5016 -0.3025
17752SOL    HW263571   8.076   0.428   4.390  0.5738  1.3832  0.5624
17753SOL     OW63572  11.644   0.623   9.464  0.0673 -0.4771 -0.2767
17753SOL    HW163573  11.553   0.629   9.494 -0.3201 -0.1341 -1.4543
17753SOL    HW263574  11.650   0.539   9.419 -0.2636  0.3696 -1.9918
17754SOL     OW63575  10.216   6.034   6.678  0.3731  0.6433  0.0823
17754SOL    HW163576  10.158   6.064   6.608  0.0214  2.2273  1.0056
17754SOL    HW263577  10.173   5.957   6.715 -2.0282  2.6156  1.7334
17755SOL     OW63578  10.245   8.528   4.870  0.0742 -0.3480 -0.4309
17755SOL    HW163579  10.250   8.620   4.843 -0.0267 -0.1279  0.2945
17755SOL    HW263580  10.269   8.479   4.791 -0.1343  0.2899 -0.9045
17756SOL     OW63581   8.221   2.051  10.497  0.4138 -0.4246  0.0841
17756SOL    HW163582   8.306   2.030  10.535  0.5383  0.2313  0.1690
17756SOL    HW263583   8.234   2.132  10.449 -0.5873  0.7281  1.6686
17757SOL     OW63584  10.421  12.319   4.480 -0.4210 -0.1450 -0.3546
17757SOL    HW163585  10.430  12.409   4.448 -0.3614  1.2884  3.2756
17757SOL    HW263586  10.331  12.313   4.512  0.0406 -0.8392  0.8788
17758SOL     OW63587   1.252   2.789   9.983 -0.3314  0.3395  0.5834
17758SOL    HW163588   1.226   2.785   9.891  1.6504 -0.5358  0.0105
17758SOL    HW263589   1.214   2.871  10.015 -0.6492  0.9164 -1.1534
17759SOL     OW63590  10.865   3.156   1.475  0.0716 -0.4103 -0.4331
17759SOL    HW163591  10.945   3.148   1.424  1.0530 -0.2498  1.0379
17759SOL    HW263592  10.797   3.175   1.410  1.1311 -0.9941 -1.7500
17760SOL     OW63593   1.222   1.115  12.775  0.8625  0.5957  0.1677
17760SOL    HW163594   1.192   1.091  12.863  3.0190 -0.0014  0.8065
17760SOL    HW263595   1.161   1.183  12.746 -1.3982 -0.9131  1.0850
17761SOL     OW63596   1.146   6.285  11.513  0.0654  0.7358 -0.7479
17761SOL    HW163597   1.087   6.210  11.519  0.1019  0.6880 -0.9881
17761SOL    HW263598   1.233   6.248  11.523  0.0820  0.7505 -0.8404
17762SOL     OW63599   3.838  11.017  11.544  0.1903  0.0030 -0.0041
17762SOL    HW163600   3.788  10.965  11.608  1.3672 -2.2828 -0.8051
17762SOL    HW263601   3.790  11.100  11.538 -2.5696 -1.4150  0.4612
17763SOL     OW63602   8.935  11.015  10.723  0.3355  0.8740 -0.1163
17763SOL    HW163603   8.994  10.942  10.705 -0.7332  0.1299 -0.7212
17763SOL    HW263604   8.878  11.019  10.646 -1.2758  0.6957  1.0339
17764SOL     OW63605   4.009   4.682  12.192 -0.0695  0.0974 -0.6008
17764SOL    HW163606   4.050   4.747  12.134  0.2876 -0.3916 -0.9068
17764SOL    HW263607   3.926   4.661  12.149 -0.1961  0.3675 -0.4899
17765SOL     OW63608   4.751   7.262  11.800 -0.3525  0.1277 -0.0686
17765SOL    HW163609   4.691   7.212  11.855 -1.5044  0.3158 -1.1095
17765SOL    HW263610   4.768   7.206  11.724  0.1326  0.4121 -0.1777
17766SOL     OW63611  12.852   2.595  10.139  0.0384  0.4683 -0.5040
17766SOL    HW163612  12.913   2.533  10.180  0.2537  2.6633  2.8860
17766SOL    HW263613  12.907   2.645  10.078  0.5920 -0.5019 -0.8241
17767SOL     OW63614   1.452   6.286   6.293  0.6939  0.7163 -0.4337
17767SOL    HW163615   1.357   6.272   6.288  0.8550 -0.0289 -1.9683
17767SOL    HW263616   1.475   6.326   6.209  1.5442  2.2363  0.4976
17768SOL     OW63617   0.840   3.815   9.391  0.4936  0.4081  0.6959
17768SOL    HW163618   0.896   3.891   9.406  0.1735  0.8183 -0.1200
17768SOL    HW263619   0.804   3.829   9.303 -2.9956  1.5433  2.1129
17769SOL     OW63620   0.977   1.328   3.806 -0.7716 -0.1546  0.1408
17769SOL    HW163621   0.996   1.246   3.852  0.3228  0.0346  0.0493
17769SOL    HW263622   0.891   1.354   3.839  0.5153  0.7022  3.2322
17770SOL     OW63623   7.222  10.447   1.989  0.1293 -0.0075  0.1624
17770SOL    HW163624   7.250  10.371   1.938 -0.2827 -0.3179  0.3851
17770SOL    HW263625   7.127  10.440   1.991 -0.1348  1.8863 -1.9130
17771SOL     OW63626   4.374   2.605   9.528  0.6500  0.0879  0.6003
17771SOL    HW163627   4.374   2.674   9.463  0.6279  0.5778  1.1120
17771SOL    HW263628   4.443   2.545   9.500 -1.0864 -1.1449 -1.3407
17772SOL     OW63629   2.882   9.960   1.912 -0.0201 -0.3107  0.2252
17772SOL    HW163630   2.797   9.979   1.872 -0.4845  0.3124  1.4448
17772SOL    HW263631   2.934  10.038   1.894  0.3528 -0.7426 -0.6276
17773SOL     OW63632   5.154   6.463   0.552  0.8101  0.0195 -0.1806
17773SOL    HW163633   5.088   6.461   0.621 -0.7175 -1.3789 -1.6136
17773SOL    HW263634   5.167   6.556   0.534 -0.8537  0.3203  0.0532
17774SOL     OW63635  10.176   0.777   2.596 -0.4302  0.2233  0.7920
17774SOL    HW163636  10.087   0.803   2.574 -0.7355 -1.2868  0.0756
17774SOL    HW263637  10.231   0.827   2.535 -1.1449 -2.3335 -2.2133
17775SOL     OW63638   9.669  10.697   8.808  0.4931  0.0064 -0.1631
17775SOL    HW163639   9.717  10.635   8.753  1.7118  1.2216 -0.5329
17775SOL    HW263640   9.656  10.651   8.891  2.8796 -0.1716  0.1641
17776SOL     OW63641   2.203   9.967   0.060  0.1664  0.3373 -0.2402
17776SOL    HW163642   2.134  10.027   0.033 -1.0523 -0.3298  1.2351
17776SOL    HW263643   2.237   9.931  -0.023 -1.7100  0.1912 -0.9901
17777SOL     OW63644   3.959   9.393  11.058 -0.3600  0.0181 -0.4313
17777SOL    HW163645   3.956   9.345  11.142 -0.2424  0.5653 -0.1109
17777SOL    HW263646   3.947   9.325  10.992 -1.6007 -0.2801  0.0683
17778SOL     OW63647   9.728   1.078   2.030  0.0640 -0.2482 -0.1301
17778SOL    HW163648   9.752   0.987   2.047 -2.4180 -1.3390 -1.9240
17778SOL    HW263649   9.754   1.093   1.939 -0.0157  0.6941 -0.0128
17779SOL     OW63650   7.271   2.734   7.817  0.1680 -0.2695  0.1383
17779SOL    HW163651   7.361   2.728   7.850 -0.6220 -2.0770  2.1911
17779SOL    HW263652   7.219   2.763   7.893 -1.1726 -0.4852 -0.6601
17780SOL     OW63653  11.283   0.524   3.737  0.0417  0.1888  0.0168
17780SOL    HW163654  11.219   0.534   3.807  0.2227  1.3715  0.0371
17780SOL    HW263655  11.276   0.604   3.686  0.7605 -0.1323 -0.6140
17781SOL     OW63656   1.621   5.450   4.901  0.3052 -0.5981 -0.4347
17781SOL    HW163657   1.709   5.438   4.937  0.0956 -0.2029  0.2313
17781SOL    HW263658   1.589   5.530   4.943 -0.0291 -0.2344 -1.3478
17782SOL     OW63659   2.205   1.615  12.366 -0.2688  0.6965 -0.3565
17782SOL    HW163660   2.114   1.596  12.389 -0.3673  0.5575 -0.8608
17782SOL    HW263661   2.227   1.552  12.298  0.1221  0.9072 -0.4313
17783SOL     OW63662   4.125   4.495   4.167 -0.2302 -0.5311  0.3045
17783SOL    HW163663   4.188   4.513   4.098  1.0593  0.0202  1.5624
17783SOL    HW263664   4.063   4.567   4.162 -0.4360 -0.7566 -0.5700
17784SOL     OW63665   8.370   5.258   7.510  0.0481  0.2878 -0.1370
17784SOL    HW163666   8.355   5.264   7.416 -1.2876 -0.4878 -0.0035
17784SOL    HW263667   8.290   5.294   7.549 -0.1822 -1.0151  0.6766
17785SOL     OW63668  12.965   5.090   1.185  0.4952 -0.2578 -0.3031
17785SOL    HW163669  13.006   5.004   1.193  2.0226  0.5839  1.5992
17785SOL    HW263670  13.037   5.151   1.177 -0.3740  1.1366  1.6581
17786SOL     OW63671   0.935   9.154   5.054  0.3424  0.0107  0.2068
17786SOL    HW163672   1.023   9.161   5.017 -0.4366  1.3738 -1.5039
17786SOL    HW263673   0.893   9.237   5.033 -2.0375 -1.3654 -0.8940
17787SOL     OW63674   6.960  11.667   5.930  0.2236  0.0608  0.3614
17787SOL    HW163675   7.023  11.605   5.966 -0.1585 -0.0377  0.8899
17787SOL    HW263676   6.971  11.662   5.836 -0.4509 -1.5237  0.3347
17788SOL     OW63677  12.062   2.941   1.174  0.2977  0.2544  0.1493
17788SOL    HW163678  12.101   2.920   1.259  0.2817 -1.0619 -0.1514
17788SOL    HW263679  11.997   2.873   1.159  1.4130 -0.5050 -1.6449
17789SOL     OW63680   7.691   5.318  12.175  0.0753  0.4476 -0.1782
17789SOL    HW163681   7.665   5.325  12.083 -0.7093 -3.1458 -0.3809
17789SOL    HW263682   7.616   5.350  12.224 -0.0719  1.0378 -0.7735
17790SOL     OW63683  12.430   6.196   3.800 -0.3447  0.1208 -0.2059
17790SOL    HW163684  12.426   6.291   3.791 -2.1754  0.2088  0.9848
17790SOL    HW263685  12.512   6.180   3.847  0.5473  0.9776 -1.3929
17791SOL     OW63686   4.627  11.647  11.309 -0.3097 -0.1850  0.1391
17791SOL    HW163687   4.675  11.708  11.253  0.2342 -0.8645 -0.1506
17791SOL    HW263688   4.574  11.703  11.366 -0.5207  0.5203 -0.7436
17792SOL     OW63689   7.783   9.969   6.318  0.1903  1.1197  0.1923
17792SOL    HW163690   7.872  10.000   6.303 -0.3017  2.2011 -0.6961
17792SOL    HW263691   7.776   9.889   6.264  0.6877  0.8936  0.4592
17793SOL     OW63692   6.093  12.649   4.892  0.5598 -0.2669  0.2928
17793SOL    HW163693   6.048  12.590   4.832 -2.5732 -0.3026  2.4717
17793SOL    HW263694   6.055  12.735   4.875  1.5331  0.2242  0.4989
17794SOL     OW63695   6.319  11.375  10.911  0.0066  0.2999 -0.0507
17794SOL    HW163696   6.287  11.284  10.908 -0.6706  0.5613 -1.1633
17794SOL    HW263697   6.252  11.422  10.960  0.2559  0.2422  0.3472
17795SOL     OW63698   0.234   3.744   3.802 -0.4729 -0.4275  0.0137
17795SOL    HW163699   0.195   3.829   3.820  0.6809 -0.1758  1.4531
17795SOL    HW263700   0.205   3.723   3.713 -1.4674  1.0631 -0.0473
17796SOL     OW63701   0.638   7.596  12.605  0.4867  0.1162  0.4058
17796SOL    HW163702   0.620   7.679  12.650 -1.3857 -0.1442  0.1945
17796SOL    HW263703   0.553   7.553  12.597  1.5616 -2.4939  1.7282
17797SOL     OW63704   8.528   6.980   4.110 -0.3139 -0.3228  0.3946
17797SOL    HW163705   8.526   6.957   4.203  0.7398  0.0229  0.5204
17797SOL    HW263706   8.566   7.068   4.109 -1.3454  0.1205 -0.2868
17798SOL     OW63707   5.331   5.966   9.598  0.2027  0.5976 -0.2969
17798SOL    HW163708   5.287   5.892   9.640 -0.1658  2.1205  2.1684
17798SOL    HW263709   5.260   6.016   9.557  0.1090  0.9746  0.3170
17799SOL     OW63710  11.151   5.858  10.157 -0.6013  0.3107  0.0721
17799SOL    HW163711  11.222   5.921  10.148 -1.3244  0.9215 -1.7716
17799SOL    HW263712  11.188   5.789  10.213  1.0744  1.1118  0.0240
17800SOL     OW63713  11.675   6.878   4.070 -0.1183 -0.0533  0.0568
17800SOL    HW163714  11.761   6.873   4.113 -0.9347 -0.0574  1.8102
17800SOL    HW263715  11.673   6.801   4.013  1.0508 -0.0328 -0.0420
17801SOL     OW63716   0.936   2.652  11.727 -0.1297 -0.3221 -0.0617
17801SOL    HW163717   0.984   2.580  11.766  1.0698 -0.6167 -1.9738
17801SOL    HW263718   0.902   2.618  11.644 -1.3073  0.7175 -0.0544
17802SOL     OW63719  12.778   2.759   1.897  0.2032 -0.1481 -0.7243
17802SOL    HW163720  12.820   2.811   1.966  0.0328 -1.1209  0.1431
17802SOL    HW263721  12.796   2.806   1.816  1.3308  0.4558 -0.1349
17803SOL     OW63722   7.705   4.878   7.272 -0.4311 -0.8363  0.2609
17803SOL    HW163723   7.704   4.929   7.353  0.7232 -0.2210 -0.0909
17803SOL    HW263724   7.639   4.810   7.286  0.5892 -1.5140  2.2347
17804SOL     OW63725   8.875   0.607   3.370 -0.2657  0.1817 -0.1150
17804SOL    HW163726   8.834   0.610   3.284  0.3216  0.0791 -0.4057
17804SOL    HW263727   8.969   0.618   3.352 -0.1465  0.2358  0.5161
17805SOL     OW63728   7.647   1.191   8.504  0.4782  0.1610 -0.1665
17805SOL    HW163729   7.654   1.252   8.430  1.8378  1.9097  1.2940
17805SOL    HW263730   7.621   1.108   8.465  1.4222  0.9412 -2.6453
17806SOL     OW63731  11.512   8.584  11.239  0.3180  0.1351 -1.2272
17806SOL    HW163732  11.606   8.580  11.260  0.9216 -3.9961 -3.6427
17806SOL    HW263733  11.498   8.675  11.213  3.2976  1.2271  0.3999
17807SOL     OW63734   1.130   3.053   0.610 -0.4370  0.1233 -0.0626
17807SOL    HW163735   1.100   3.007   0.689 -0.3731  0.8003  0.3676
17807SOL    HW263736   1.225   3.050   0.616 -0.4184  1.1828  0.5118
17808SOL     OW63737   0.985  12.844   3.430 -0.5664 -0.1425 -0.0172
17808SOL    HW163738   0.951  12.854   3.519 -1.1465 -1.9198 -0.0059
17808SOL    HW263739   0.989  12.934   3.396 -4.1895  0.3261  0.3984
17809SOL     OW63740   1.448   6.616   5.126  0.0365 -0.1599 -0.4737
17809SOL    HW163741   1.514   6.664   5.075 -0.5262 -0.5303 -1.5837
17809SOL    HW263742   1.377   6.678   5.139  0.5825  0.2551  0.7684
17810SOL     OW63743   0.608   8.256   6.104 -0.4941  0.0741 -0.1400
17810SOL    HW163744   0.576   8.328   6.051  0.2138  0.4345 -0.0921
17810SOL    HW263745   0.628   8.187   6.041 -0.6054  0.1406 -0.2468
17811SOL     OW63746   8.336   0.329   7.667  0.0447 -0.4965 -0.0386
17811SOL    HW163747   8.313   0.266   7.735  2.1042 -0.5437  0.6798
17811SOL    HW263748   8.425   0.356   7.688  1.0517 -1.0208 -3.1333
17812SOL     OW63749   8.544   0.100  10.224 -0.7014 -0.3831  0.2599
17812SOL    HW163750   8.591   0.038  10.280  1.5629  0.5118 -0.4968
17812SOL    HW263751   8.575   0.081  10.135  0.1135  1.7737  0.0085
17813SOL     OW63752   8.879   9.202   0.957  0.2398 -0.2937  0.1883
17813SOL    HW163753   8.821   9.278   0.945  0.3984 -0.1538  0.3048
17813SOL    HW263754   8.820   9.127   0.956  0.1485 -0.2150 -0.5304
17814SOL     OW63755   7.739   8.937   5.140 -0.3012  0.1520  0.0770
17814SOL    HW163756   7.754   9.000   5.210  1.6298  0.9581 -0.9956
17814SOL    HW263757   7.700   8.988   5.069  1.5097  0.2755 -0.8930
17815SOL     OW63758   6.274   9.482  10.183  0.1496 -0.0719  0.2371
17815SOL    HW163759   6.369   9.476  10.194  0.0818 -1.5660  0.1864
17815SOL    HW263760   6.261   9.463  10.090 -0.1973  0.1498  0.2427
17816SOL     OW63761   4.511   3.759   7.986  0.4624 -0.3416  0.6700
17816SOL    HW163762   4.571   3.712   8.045  0.6529  0.7211  1.3487
17816SOL    HW263763   4.545   3.849   7.984  0.6978 -0.4246 -1.3941
17817SOL     OW63764  10.567  12.449   3.346 -0.2260 -0.6376  0.3514
17817SOL    HW163765  10.535  12.533   3.313  1.9038  0.0703 -0.0219
17817SOL    HW263766  10.527  12.384   3.288  1.3628  0.4150 -2.0837
17818SOL     OW63767   2.701   4.969   0.339 -0.2599  0.3656  0.6097
17818SOL    HW163768   2.772   4.934   0.393  0.2845  1.2931  0.5075
17818SOL    HW263769   2.708   4.921   0.256  0.4423  0.6734  0.4899
17819SOL     OW63770   8.231  11.447   2.881 -0.6275 -0.1527  0.4796
17819SOL    HW163771   8.176  11.369   2.870 -0.4157 -0.0580 -1.5592
17819SOL    HW263772   8.306  11.432   2.823 -0.0470  1.0924  0.8835
17820SOL     OW63773   7.490  11.586  12.098 -0.2078  0.1034 -0.4623
17820SOL    HW163774   7.449  11.533  12.030  0.4426 -0.5599 -0.3400
17820SOL    HW263775   7.470  11.676  12.072 -3.3212 -0.1648  0.5387
17821SOL     OW63776   3.363   7.490  11.742  0.3869  0.0074 -0.0954
17821SOL    HW163777   3.410   7.552  11.686  1.0054 -1.2700 -1.0271
17821SOL    HW263778   3.429   7.455  11.801  0.1660 -0.2644 -0.0090
17822SOL     OW63779   4.227   9.631   6.533  0.1559  0.7819 -0.3119
17822SOL    HW163780   4.288   9.679   6.590 -2.3079  1.4088  2.0519
17822SOL    HW263781   4.222   9.684   6.454  0.6155  2.2039  0.5660
17823SOL     OW63782   5.172   4.163   5.046 -0.5484 -0.1317 -0.5286
17823SOL    HW163783   5.241   4.165   4.980  0.5842 -0.4629  0.5902
17823SOL    HW263784   5.093   4.139   4.998 -0.0893  1.1481 -2.0124
17824SOL     OW63785   0.855   2.138  11.524 -0.3294 -0.2095  0.2275
17824SOL    HW163786   0.766   2.166  11.503 -0.0264  1.1607  0.6567
17824SOL    HW263787   0.900   2.137  11.440 -0.2196  1.1512  0.2410
17825SOL     OW63788   2.697  10.088   0.162  0.0581 -0.4043  0.5554
17825SOL    HW163789   2.676  10.061   0.252  0.2901  0.5403  0.9028
17825SOL    HW263790   2.772  10.147   0.172  0.4724 -0.7625 -0.3219
17826SOL     OW63791   7.131   5.898   4.941 -0.8691 -0.1825 -0.2788
17826SOL    HW163792   7.120   5.947   5.023 -2.6481 -0.9525 -0.0110
17826SOL    HW263793   7.157   5.810   4.969 -1.1020 -0.3455 -0.5734
17827SOL     OW63794   4.476  10.078   8.653  0.2188 -0.0219 -0.1966
17827SOL    HW163795   4.410  10.142   8.678  2.1512  1.8981  0.1814
17827SOL    HW263796   4.499  10.101   8.563 -1.2079 -2.1450 -1.2010
17828SOL     OW63797   5.943   0.557   2.402 -0.4815  0.3590  0.1816
17828SOL    HW163798   6.028   0.573   2.363  0.1187  0.1490  1.3496
17828SOL    HW263799   5.882   0.554   2.328  0.4284  1.0814 -0.6154
17829SOL     OW63800  12.734   7.389   5.952  0.0668  0.3687  0.2700
17829SOL    HW163801  12.748   7.462   5.892  0.7835  0.4258  0.4983
17829SOL    HW263802  12.767   7.312   5.905 -0.3199  0.2518  0.1869
17830SOL     OW63803   9.438   3.878   3.226  0.5006  0.2299  0.1872
17830SOL    HW163804   9.498   3.849   3.295  0.7488  0.1190 -0.0734
17830SOL    HW263805   9.495   3.907   3.155  0.2446 -0.3309 -0.2549
17831SOL     OW63806  11.378   7.984  12.871 -0.2459  0.4371 -0.2296
17831SOL    HW163807  11.285   7.989  12.892 -0.2925  0.7569 -0.5090
17831SOL    HW263808  11.422   7.988  12.956 -0.5189 -0.9194  0.0087
17832SOL     OW63809   9.228   5.567   3.040 -0.5766 -0.3345 -0.0171
17832SOL    HW163810   9.216   5.538   2.949 -1.3672  1.1891 -0.4199
17832SOL    HW263811   9.318   5.597   3.043 -0.9767  1.0198 -0.7371
17833SOL     OW63812  12.522  11.194  12.469  0.0575 -0.0690 -0.4882
17833SOL    HW163813  12.514  11.277  12.517  1.2977  0.2071 -0.7262
17833SOL    HW263814  12.606  11.159  12.497 -0.9263 -1.8174  0.4489
17834SOL     OW63815   6.603   4.470   5.516  0.2732 -0.5027 -0.2014
17834SOL    HW163816   6.549   4.490   5.440  0.9369 -2.4467 -1.2491
17834SOL    HW263817   6.542   4.434   5.580 -0.1946  0.6033  0.0001
17835SOL     OW63818   1.678  10.503   7.471  0.2492  0.4560  0.1015
17835SOL    HW163819   1.757  10.455   7.447  0.0277 -0.5573  1.2635
17835SOL    HW263820   1.708  10.592   7.487  0.5970  0.9082 -2.5852
17836SOL     OW63821  11.672   8.132   4.279  0.2347 -0.2482 -0.2611
17836SOL    HW163822  11.589   8.084   4.280 -1.3989  2.3736 -0.5457
17836SOL    HW263823  11.708   8.122   4.367 -1.2404 -0.0613  0.3754
17837SOL     OW63824   4.283   9.660   5.723 -0.1669  0.7666  0.2112
17837SOL    HW163825   4.367   9.701   5.704  1.2700 -0.3665  3.3945
17837SOL    HW263826   4.257   9.696   5.808 -3.5406  1.8973 -1.1180
17838SOL     OW63827   0.880  12.703   9.801  0.1667 -0.3922 -0.1871
17838SOL    HW163828   0.969  12.725   9.827  0.4141 -0.3459 -1.0595
17838SOL    HW263829   0.828  12.780   9.825  0.3129 -0.5021  0.5141
17839SOL     OW63830   3.774   6.293   2.701 -0.3405 -0.0501  0.6267
17839SOL    HW163831   3.693   6.265   2.658 -0.9975 -0.5520  2.1068
17839SOL    HW263832   3.765   6.387   2.711  1.9855  1.1288 -4.6081
17840SOL     OW63833   0.817   9.312  11.699 -0.0048  0.5112 -0.2596
17840SOL    HW163834   0.793   9.340  11.787 -0.9327 -0.1827 -0.2772
17840SOL    HW263835   0.903   9.273  11.709 -0.7679 -1.0359  0.6650
17841SOL     OW63836   3.304   9.448   1.807  0.5504  0.3309  0.0852
17841SOL    HW163837   3.268   9.419   1.723  1.7116 -0.2993 -0.2266
17841SOL    HW263838   3.331   9.367   1.851  2.0498  0.7681  0.0553
17842SOL     OW63839  10.275   2.861   5.933  0.3357 -0.1816 -0.6073
17842SOL    HW163840  10.254   2.911   6.012 -0.1332 -0.0019 -0.8413
17842SOL    HW263841  10.295   2.773   5.965 -1.4214 -0.5450 -0.4182
17843SOL     OW63842   4.198  10.819   6.980  0.4105 -0.6107  0.4604
17843SOL    HW163843   4.263  10.883   7.009 -0.4865 -0.0226  1.2819
17843SOL    HW263844   4.138  10.811   7.055 -1.9537  0.8621 -1.1287
17844SOL     OW63845   9.895   0.178   6.801  0.0774 -0.3261  0.3754
17844SOL    HW163846   9.908   0.233   6.723 -1.8735 -2.3396 -1.5369
17844SOL    HW263847   9.846   0.233   6.862  1.8887  1.3952  0.3762
17845SOL     OW63848   9.308   7.190   6.156  0.0527 -0.2536 -0.1149
17845SOL    HW163849   9.371   7.223   6.091 -1.2800  2.5229 -0.1191
17845SOL    HW263850   9.223   7.221   6.125 -0.5305  2.4672  3.5820
17846SOL     OW63851  10.470  12.986   7.815  0.0602  0.4447 -0.2194
17846SOL    HW163852  10.517  12.923   7.870 -1.5124  0.4301  1.1670
17846SOL    HW263853  10.429  13.047   7.877 -1.2579  0.8086 -1.3939
17847SOL     OW63854   7.319   0.119   3.129 -0.2134 -0.8318 -0.1621
17847SOL    HW163855   7.366   0.197   3.158 -0.4019 -0.7159 -0.1707
17847SOL    HW263856   7.348   0.105   3.039 -1.5558  0.2872 -0.8007
17848SOL     OW63857  10.456   6.130   9.824  0.0698  0.4023  0.2269
17848SOL    HW163858  10.459   6.177   9.740  0.2867 -1.4319 -0.8254
17848SOL    HW263859  10.540   6.086   9.829  0.0290  0.4455  1.4012
17849SOL     OW63860   7.213   2.310   0.567 -0.1452 -0.0067 -0.0280
17849SOL    HW163861   7.213   2.215   0.581 -0.0429 -0.2985 -1.7517
17849SOL    HW263862   7.193   2.347   0.652 -2.1810 -1.6394  0.2798
17850SOL     OW63863   7.858   3.724   7.647  0.4134 -0.5805 -0.2530
17850SOL    HW163864   7.906   3.642   7.640  1.3364 -0.0930  0.1986
17850SOL    HW263865   7.923   3.788   7.676 -0.7971 -0.2078  1.8940
17851SOL     OW63866   7.244   2.203   6.739 -0.2371  0.0602  0.3251
17851SOL    HW163867   7.205   2.290   6.742  1.0034  0.6708 -0.6352
17851SOL    HW263868   7.173   2.146   6.711  0.1386  1.6343 -4.8704
17852SOL     OW63869   5.360   0.991   9.171  0.1495  0.0665 -0.1950
17852SOL    HW163870   5.301   0.960   9.239  0.0595 -1.4634 -0.9281
17852SOL    HW263871   5.305   1.043   9.112 -0.3264 -0.8026 -0.5212
17853SOL     OW63872   4.412   1.996   8.981 -0.4531 -0.2701  0.1709
17853SOL    HW163873   4.442   1.958   9.063 -1.9451 -0.3282  0.7259
17853SOL    HW263874   4.407   2.090   8.998  1.0680 -0.0450 -0.4852
17854SOL     OW63875   3.370   9.936  10.003 -0.3026 -0.6339  0.2671
17854SOL    HW163876   3.375   9.992  10.081  1.3173 -0.4056  0.0278
17854SOL    HW263877   3.445   9.877  10.010 -0.3479 -0.8659 -0.9256
17855SOL     OW63878   6.167   7.198   1.263  0.2220  0.2621 -0.0968
17855SOL    HW163879   6.125   7.167   1.183 -1.0153  0.4398  0.4705
17855SOL    HW263880   6.173   7.293   1.252  1.1222  0.1708 -0.4698
17856SOL     OW63881  11.068   7.089   4.080  0.4322  0.3454  0.2543
17856SOL    HW163882  11.113   7.129   4.006 -2.0834  0.0092 -1.5984
17856SOL    HW263883  11.024   7.162   4.123  0.2559  0.2896  0.1703
17857SOL     OW63884   6.556   1.927   1.038  0.3043  0.1631  0.2242
17857SOL    HW163885   6.504   1.878   0.974  1.4063  0.6403 -1.1098
17857SOL    HW263886   6.577   2.009   0.993 -0.3690  1.2981  1.9019
17858SOL     OW63887   7.018  10.328   4.211  0.0701 -0.0861 -0.0978
17858SOL    HW163888   6.975  10.281   4.140 -1.0833 -0.0855  0.5760
17858SOL    HW263889   6.962  10.313   4.287  1.7400 -0.8198  1.0337
17859SOL     OW63890   6.482   0.934  11.666 -0.2705  0.3489 -0.1751
17859SOL    HW163891   6.567   0.975  11.686  0.5298 -1.0812 -0.5179
17859SOL    HW263892   6.435   1.001  11.616  0.7086  1.1207 -0.1081
17860SOL     OW63893   1.407   9.910  12.797 -0.3090  0.1331  0.0904
17860SOL    HW163894   1.422   9.864  12.880 -0.3683  1.0568  0.6388
17860SOL    HW263895   1.485   9.893  12.745 -0.7166 -1.3026 -0.0818
17861SOL     OW63896   3.499   9.964  10.302  0.1424  0.1360  0.5057
17861SOL    HW163897   3.570   9.906  10.329 -1.1041 -1.1893  1.0046
17861SOL    HW263898   3.480  10.016  10.380  0.7789  0.7503  0.2658
17862SOL     OW63899   9.879  10.266   4.443 -0.1052  0.3873 -0.1507
17862SOL    HW163900   9.893  10.266   4.348 -1.0477 -1.8355 -0.3660
17862SOL    HW263901   9.927  10.189   4.474 -1.4296 -0.0779  0.8505
17863SOL     OW63902  10.503   1.357   9.099 -0.8794  0.0895 -0.7030
17863SOL    HW163903  10.449   1.420   9.051 -0.4973 -0.1021 -1.3872
17863SOL    HW263904  10.490   1.381   9.191 -0.2626  1.5581 -0.9687
17864SOL     OW63905   1.241   0.589   7.132 -0.0065  0.2473 -0.2280
17864SOL    HW163906   1.249   0.533   7.054 -0.8125  0.0108 -0.1471
17864SOL    HW263907   1.164   0.643   7.116 -0.2375  0.1300  0.4509
17865SOL     OW63908   1.559  11.524   9.408 -0.2282 -0.3161 -0.4491
17865SOL    HW163909   1.503  11.502   9.334 -1.4246 -0.4555  0.4668
17865SOL    HW263910   1.537  11.615   9.429  1.4316  0.3479 -1.3793
17866SOL     OW63911  11.817  10.180  10.165 -0.3903  0.2760  0.3519
17866SOL    HW163912  11.814  10.217  10.077  0.4285  1.4145  0.7834
17866SOL    HW263913  11.734  10.134  10.174 -0.8861  0.9323 -0.6731
17867SOL     OW63914  11.625   0.200   9.948 -0.7181 -0.3204 -0.1556
17867SOL    HW163915  11.598   0.207  10.039 -2.6596 -2.0571 -0.5291
17867SOL    HW263916  11.682   0.123   9.945 -1.9675 -1.2508 -0.6453
17868SOL     OW63917   4.106   5.846  12.385 -0.1204  0.0696  0.8064
17868SOL    HW163918   4.173   5.844  12.453 -0.7556 -0.5636  1.4304
17868SOL    HW263919   4.081   5.754  12.374  1.5697 -0.1909 -1.8962
17869SOL     OW63920   1.144  11.548  11.071 -0.2792  0.0476 -0.5629
17869SOL    HW163921   1.095  11.515  10.996  0.1610  1.7316 -1.6389
17869SOL    HW263922   1.134  11.481  11.138  0.4859 -2.1908 -2.5666
17870SOL     OW63923  12.486   9.909  12.702  0.2662 -0.0416  0.6377
17870SOL    HW163924  12.465   9.967  12.629 -0.2236  0.2478  1.0055
17870SOL    HW263925  12.575   9.932  12.726  0.9005 -0.9755 -0.6530
17871SOL     OW63926   6.710   8.080   7.367  0.0951 -0.2544 -0.4050
17871SOL    HW163927   6.723   8.161   7.318  1.1842  0.5638  1.1421
17871SOL    HW263928   6.794   8.034   7.361 -0.4671 -1.2268 -1.1438
17872SOL     OW63929   5.264   7.570   5.918  0.6572 -0.0145 -0.3427
17872SOL    HW163930   5.249   7.520   5.998 -2.1466 -0.0703 -0.7902
17872SOL    HW263931   5.235   7.659   5.941 -0.5837 -0.1279 -1.3532
17873SOL     OW63932   4.193  10.586  12.589 -0.2090 -0.6697 -0.1543
17873SOL    HW163933   4.178  10.657  12.651  1.2801 -0.1843 -0.2907
17873SOL    HW263934   4.107  10.563  12.556 -0.7634  0.7594  0.2542
17874SOL     OW63935  10.263   5.379   2.876 -0.1717 -0.5723 -0.0093
17874SOL    HW163936  10.224   5.330   2.803  0.1861  0.1064 -0.6689
17874SOL    HW263937  10.307   5.312   2.928  0.1281 -0.9941 -0.7855
17875SOL     OW63938   2.870  11.330   6.830 -0.1234 -0.7486  0.3948
17875SOL    HW163939   2.856  11.425   6.832  2.7496 -0.2533 -0.0013
17875SOL    HW263940   2.898  11.311   6.740 -0.1195 -1.9031  0.6163
17876SOL     OW63941  12.645   4.033   2.192  0.1982 -0.4334 -0.2710
17876SOL    HW163942  12.653   3.970   2.264  0.6010  1.1882  1.1565
17876SOL    HW263943  12.685   4.113   2.225 -1.3582  0.9685 -1.5882
17877SOL     OW63944   5.244   1.377   2.528  0.3820  0.1166 -0.1916
17877SOL    HW163945   5.232   1.369   2.623  0.3361  1.9347 -0.0033
17877SOL    HW263946   5.316   1.440   2.518 -0.7077  1.2329 -1.3513
17878SOL     OW63947   8.994   7.460   3.865 -0.5647 -0.0179  0.1492
17878SOL    HW163948   8.970   7.548   3.895 -1.1753  0.8528 -2.6139
17878SOL    HW263949   9.078   7.471   3.821 -1.9268 -0.1367 -2.7091
17879SOL     OW63950   1.312   4.505   3.661 -0.5285  0.2805  0.4399
17879SOL    HW163951   1.245   4.487   3.728 -0.7522  2.4417  0.8686
17879SOL    HW263952   1.262   4.534   3.585 -0.1616 -0.0286  0.0794
17880SOL     OW63953   3.120   7.136   8.299  0.4109 -0.0869  0.7826
17880SOL    HW163954   3.057   7.133   8.371  1.7528  1.7530  2.1286
17880SOL    HW263955   3.184   7.202   8.326  0.8318  0.8966 -2.2368
17881SOL     OW63956  11.246   8.394   7.837 -0.0061  0.3049 -0.1519
17881SOL    HW163957  11.174   8.364   7.782 -0.8157  0.0969  0.9826
17881SOL    HW263958  11.324   8.353   7.799 -0.9075 -2.2532  0.5651
17882SOL     OW63959   4.494   6.889   8.794  0.1766 -0.0943 -0.1524
17882SOL    HW163960   4.506   6.794   8.787 -0.3197 -0.0578 -1.9879
17882SOL    HW263961   4.425   6.900   8.858  0.8522 -0.9202  0.7487
17883SOL     OW63962   8.425   2.520   0.793 -0.3756  0.3752 -0.0906
17883SOL    HW163963   8.413   2.521   0.888 -0.9859  1.0503 -0.1676
17883SOL    HW263964   8.450   2.610   0.770  1.1358 -0.0865 -0.4199
17884SOL     OW63965   5.804   8.434   2.895  0.0265 -0.3727  0.1247
17884SOL    HW163966   5.800   8.381   2.816  0.7982  0.5258 -0.5441
17884SOL    HW263967   5.721   8.418   2.940 -1.3433  0.6325 -1.8828
17885SOL     OW63968  12.180   8.939   9.317  0.5332  0.3513 -0.0197
17885SOL    HW163969  12.194   9.020   9.268  1.2092  0.9673  1.1542
17885SOL    HW263970  12.208   8.870   9.256 -1.3010  0.8438 -1.5342
17886SOL     OW63971  12.066  12.490  11.034  0.5679 -0.1354  0.0606
17886SOL    HW163972  12.035  12.475  11.124 -0.5215  3.7046  0.4821
17886SOL    HW263973  11.987  12.490  10.981  0.7712  1.3177 -0.2678
17887SOL     OW63974  11.234   5.532   2.919 -0.3908 -0.0187  0.0146
17887SOL    HW163975  11.317   5.523   2.967  0.6355 -0.0338 -1.6730
17887SOL    HW263976  11.218   5.626   2.915  0.3224  0.0828 -0.8574
17888SOL     OW63977  11.776   8.102   4.991 -0.6886 -0.0589 -0.4538
17888SOL    HW163978  11.710   8.033   4.998  1.4031 -2.1452 -0.4045
17888SOL    HW263979  11.811   8.094   4.903  0.3790  0.1659 -0.0621
17889SOL     OW63980   0.377   8.761   6.916  0.4117 -0.5153  0.0878
17889SOL    HW163981   0.314   8.691   6.935 -1.7188  0.9832 -1.0521
17889SOL    HW263982   0.345   8.835   6.967  1.2854  0.2830 -0.5056
17890SOL     OW63983   0.657   6.371   4.292 -0.2856  0.2189 -0.2612
17890SOL    HW163984   0.648   6.442   4.228 -1.4708 -0.4371 -0.8653
17890SOL    HW263985   0.750   6.372   4.316 -0.1005  1.3825 -0.9375
17891SOL     OW63986   8.749  10.704  12.684  0.5249  0.1887  0.2180
17891SOL    HW163987   8.767  10.706  12.590 -1.1103  1.5740 -0.1161
17891SOL    HW263988   8.683  10.634  12.693 -1.0921  1.5908 -0.0896
17892SOL     OW63989   2.122   7.423  11.025  0.0577 -0.0283  0.2755
17892SOL    HW163990   2.179   7.433  11.101 -0.5393 -0.1380  0.7441
17892SOL    HW263991   2.178   7.382  10.959 -0.3642 -3.5752  1.8838
17893SOL     OW63992   4.792   2.866  10.544  0.0257  0.2941  0.1797
17893SOL    HW163993   4.877   2.832  10.572  0.3452  1.5268  0.7942
17893SOL    HW263994   4.774   2.820  10.462  1.0250 -0.3828  0.3168
17894SOL     OW63995   9.605   4.502   0.956 -0.2217  0.6012 -0.5772
17894SOL    HW163996   9.566   4.418   0.931 -1.9377  1.5394 -1.1569
17894SOL    HW263997   9.676   4.515   0.893  0.3030 -0.5597 -0.2567
17895SOL     OW63998   1.917   7.007   2.173  0.2382 -0.2535 -0.1093
17895SOL    HW163999   1.986   6.943   2.160  0.4743  0.1975 -1.1760
17895SOL    HW264000   1.885   7.026   2.085 -1.3035 -0.5115  0.3683
17896SOL     OW64001   5.973   6.105   9.885  0.3695 -0.4394 -0.1597
17896SOL    HW164002   6.035   6.035   9.865 -0.3728 -1.1424 -0.0405
17896SOL    HW264003   5.887   6.070   9.861 -0.2691 -0.3679  1.8053
17897SOL     OW64004   3.454   9.436  11.236 -0.0232 -0.1846 -0.3673
17897SOL    HW164005   3.513   9.363  11.218 -0.1781  0.2407 -2.9469
17897SOL    HW264006   3.380   9.423  11.177 -2.0358 -0.0597  1.9464
17898SOL     OW64007   4.815   8.920  11.315  0.2268  0.7850  0.1719
17898SOL    HW164008   4.780   8.974  11.385 -0.1748  0.2826  0.3656
17898SOL    HW264009   4.739   8.892  11.265 -0.1999 -3.0488  2.5288
17899SOL     OW64010   1.821   1.403   7.618 -0.4798  0.2962 -0.2767
17899SOL    HW164011   1.912   1.401   7.591 -0.5386  1.0772 -0.5546
17899SOL    HW264012   1.813   1.482   7.671 -1.0070  0.2594 -0.2931
17900SOL     OW64013   4.639  11.883   8.719  0.1569 -0.0675  0.7020
17900SOL    HW164014   4.708  11.929   8.767 -1.7969  2.4251  1.3105
17900SOL    HW264015   4.642  11.921   8.631  0.3289 -0.8631  0.3537
17901SOL     OW64016   6.390   3.032   8.679 -0.2505 -0.1371  0.1605
17901SOL    HW164017   6.356   3.048   8.767  0.1893  0.7840  0.1717
17901SOL    HW264018   6.370   3.113   8.631  1.1901  0.1167 -0.0571
17902SOL     OW64019   7.789  11.914   3.259 -0.6950 -0.3963 -0.2802
17902SOL    HW164020   7.871  11.875   3.289 -1.3430 -1.6267 -0.0429
17902SOL    HW264021   7.737  11.925   3.338 -0.5660  0.9015 -0.3584
17903SOL     OW64022  10.252  12.107  10.318 -0.3796 -1.0651 -0.2447
17903SOL    HW164023  10.216  12.073  10.237 -4.7043 -1.0988  1.4206
17903SOL    HW264024  10.233  12.201  10.315  0.1957 -0.9172  0.3927
17904SOL     OW64025  11.130   7.082  10.254  0.2695 -0.0889  0.1112
17904SOL    HW164026  11.173   7.135  10.187 -0.3590  0.0169 -0.2156
17904SOL    HW264027  11.202   7.046  10.306  0.7608 -0.3065 -0.7158
17905SOL     OW64028   9.699   0.604   6.178  0.2558  0.3273 -0.6758
17905SOL    HW164029   9.689   0.553   6.097  0.9912 -0.0045 -0.5649
17905SOL    HW264030   9.639   0.677   6.167 -0.8026 -0.5443 -0.8538
17906SOL     OW64031   0.875   3.471   6.799  0.2861  0.2272  0.6194
17906SOL    HW164032   0.935   3.531   6.755 -1.2451  0.9274 -0.6318
17906SOL    HW264033   0.838   3.522   6.871 -0.1105  0.4060  0.2965
17907SOL     OW64034   3.215   0.228   3.374  0.0130 -0.1291 -0.2907
17907SOL    HW164035   3.270   0.296   3.334  0.0811 -0.2859 -0.4614
17907SOL    HW264036   3.127   0.248   3.343 -0.0147  0.0604 -0.0994
17908SOL     OW64037   3.807   1.475   3.186 -0.3390  0.0678  0.1760
17908SOL    HW164038   3.757   1.552   3.212  0.5580  1.0484 -0.8424
17908SOL    HW264039   3.742   1.406   3.175 -1.3355  1.0167 -0.0848
17909SOL     OW64040   2.501   9.513   4.727 -0.7105  0.0882 -0.6275
17909SOL    HW164041   2.563   9.543   4.793 -0.7753  0.1457 -0.5935
17909SOL    HW264042   2.505   9.417   4.732  0.8697  0.0439 -1.9917
17910SOL     OW64043   9.032   7.531   3.054 -0.3976  0.0725  0.4369
17910SOL    HW164044   9.107   7.505   3.107  0.3540 -0.9571 -1.0330
17910SOL    HW264045   8.956   7.496   3.101  0.3023 -1.4143  0.5337
17911SOL     OW64046   1.245   3.791  11.231  0.2596  0.1080  0.3169
17911SOL    HW164047   1.224   3.705  11.268 -0.4656  0.5471  0.9673
17911SOL    HW264048   1.248   3.776  11.136  2.4864 -1.1161  0.5132
17912SOL     OW64049   4.670  10.542   1.003  0.1188  0.0373 -0.1160
17912SOL    HW164050   4.686  10.632   1.031  0.2241 -0.0007 -0.0548
17912SOL    HW264051   4.725  10.488   1.061  0.5981 -0.0202 -0.6080
17913SOL     OW64052  11.710   0.602   3.747  0.2916  0.1451  0.4101
17913SOL    HW164053  11.640   0.665   3.728  0.2458  0.1730  0.6792
17913SOL    HW264054  11.739   0.623   3.835  2.0480  1.4867 -0.4183
17914SOL     OW64055   0.264  11.012   6.608  0.0875  0.1731 -0.0580
17914SOL    HW164056   0.229  11.096   6.577  0.6301  0.5488  0.3102
17914SOL    HW264057   0.279  10.962   6.528 -0.3645  0.3782 -0.2752
17915SOL     OW64058  12.030   9.603   1.192  0.5100  0.3528  0.3704
17915SOL    HW164059  11.936   9.619   1.185  0.4871 -0.3328 -1.6728
17915SOL    HW264060  12.051   9.550   1.115  2.4763 -0.0138  1.0934
17916SOL     OW64061  12.925  12.259   0.376  0.0207 -0.0239 -0.1204
17916SOL    HW164062  12.993  12.195   0.397 -0.2535 -0.0857  0.6294
17916SOL    HW264063  12.943  12.333   0.434 -1.7537 -0.8719  1.6742
17917SOL     OW64064   0.862   6.313  10.010  0.4814 -0.1502 -0.2514
17917SOL    HW164065   0.937   6.259   9.985  3.2168  2.3483  1.8571
17917SOL    HW264066   0.881   6.399   9.972 -2.3927  0.1506 -1.2810
17918SOL     OW64067  10.017  12.880   1.353  0.0470  0.5313 -0.7093
17918SOL    HW164068  10.014  12.816   1.281 -2.5635  0.0634 -0.2585
17918SOL    HW264069  10.037  12.963   1.310  1.1141 -0.1636 -1.6149
17919SOL     OW64070  11.173   4.351   7.843  0.2429  0.4509 -0.7129
17919SOL    HW164071  11.154   4.357   7.749 -1.0295 -0.3625 -0.5331
17919SOL    HW264072  11.132   4.269   7.870  0.8321  0.5465  0.5024
17920SOL     OW64073  10.684  10.876  12.951 -0.1891  0.0902 -0.4271
17920SOL    HW164074  10.699  10.966  12.920 -1.3742  0.1940 -0.7480
17920SOL    HW264075  10.610  10.845  12.899  0.1829 -1.0669 -0.2872
17921SOL     OW64076  12.091   0.054   7.763 -0.4213 -0.8472 -0.1350
17921SOL    HW164077  12.098   0.072   7.857 -1.8447 -0.6579 -0.0461
17921SOL    HW264078  12.034  -0.022   7.757 -0.6710 -0.6140 -0.8682
17922SOL     OW64079  12.709   1.970  10.591 -0.6393  0.1999 -0.2033
17922SOL    HW164080  12.692   2.064  10.601 -1.5322  0.2243 -1.6583
17922SOL    HW264081  12.626   1.928  10.615 -0.5979 -0.1388 -0.6387
17923SOL     OW64082   1.483   3.528   8.550 -0.1131 -0.0357 -0.1576
17923SOL    HW164083   1.467   3.604   8.605 -2.8045  0.0964 -1.0039
17923SOL    HW264084   1.527   3.564   8.472 -0.8226  0.5690 -0.2839
17924SOL     OW64085   8.299   2.914   0.819  0.1826  0.3362  0.5308
17924SOL    HW164086   8.240   2.891   0.747  1.7768  0.2915 -0.8144
17924SOL    HW264087   8.265   2.997   0.852 -0.7809  0.1757 -0.0312
17925SOL     OW64088  10.954   3.608   0.771  0.2867 -0.0413  0.0460
17925SOL    HW164089  11.024   3.606   0.836 -0.0018  1.9216  0.4885
17925SOL    HW264090  10.899   3.533   0.792  0.9301 -0.2097  1.2140
17926SOL     OW64091  12.359   2.536   6.382 -0.3199  0.4035 -0.0932
17926SOL    HW164092  12.339   2.628   6.398  1.3135  0.5262  1.6380
17926SOL    HW264093  12.278   2.490   6.403 -1.0073  1.3845 -0.5019
17927SOL     OW64094   2.292  10.085  11.189 -0.0185 -0.0334 -0.0262
17927SOL    HW164095   2.321  10.116  11.104  0.1335 -1.1454 -0.3922
17927SOL    HW264096   2.344  10.135  11.252  0.8627 -0.1719 -0.6226
17928SOL     OW64097   2.764  12.165   7.846 -0.0442 -0.0395  0.2544
17928SOL    HW164098   2.820  12.161   7.769  2.4105 -0.0921  1.9026
17928SOL    HW264099   2.823  12.191   7.917 -2.5396  1.9161  1.8026
17929SOL     OW64100   3.662   2.929   6.177  0.5296  0.0797 -0.8326
17929SOL    HW164101   3.616   3.012   6.170 -0.7106 -0.4419  0.6046
17929SOL    HW264102   3.665   2.896   6.087 -2.1699  0.0409 -0.9904
17930SOL     OW64103   4.481  11.675   4.478 -0.1778 -0.7625  0.3951
17930SOL    HW164104   4.439  11.751   4.438  0.2200 -1.3541 -1.2632
17930SOL    HW264105   4.432  11.600   4.444  0.2937 -1.3076  0.8941
17931SOL     OW64106  11.097  10.212   2.565 -0.7578  0.3451  0.1240
17931SOL    HW164107  11.067  10.240   2.651 -1.1492 -2.1629  0.8808
17931SOL    HW264108  11.025  10.159   2.531  0.6855 -1.4327 -0.2988
17932SOL     OW64109   0.483   5.241   8.393  0.1509 -0.4087 -0.4287
17932SOL    HW164110   0.464   5.272   8.482 -2.0100  0.9823 -1.2908
17932SOL    HW264111   0.512   5.319   8.346  3.5835 -1.5448 -0.4827
17933SOL     OW64112   8.040  12.213   6.086 -0.1279  0.2903 -0.2061
17933SOL    HW164113   7.957  12.176   6.055 -1.8012  0.6695  3.3100
17933SOL    HW264114   8.079  12.143   6.138  0.6348  0.8635  0.0035
17934SOL     OW64115  10.666   1.506   0.814 -0.3291  0.7143 -0.7950
17934SOL    HW164116  10.731   1.436   0.808 -3.5594 -2.4538 -2.8963
17934SOL    HW264117  10.685   1.562   0.740  0.9591  0.8267 -0.4086
17935SOL     OW64118  11.874  11.192   1.993 -0.3046  0.5122 -0.1508
17935SOL    HW164119  11.945  11.242   1.954  0.6018 -0.3799  0.3226
17935SOL    HW264120  11.914  11.144   2.065 -1.1932 -0.6772 -0.4014
17936SOL     OW64121  12.385   1.775   0.101  0.6533  0.2152  0.7020
17936SOL    HW164122  12.411   1.865   0.121  0.7975  0.2696  0.2726
17936SOL    HW264123  12.393   1.768   0.006 -2.4992  0.7257  0.3135
17937SOL     OW64124   8.300  10.740  10.735 -0.0158 -0.1592 -0.0084
17937SOL    HW164125   8.308  10.806  10.803 -2.3591 -1.5771  1.8040
17937SOL    HW264126   8.235  10.775  10.674  0.3932  0.1198 -0.2944
17938SOL     OW64127  11.661   7.425   6.097 -0.1830 -0.7281  0.2376
17938SOL    HW164128  11.583   7.425   6.153  1.1057 -0.7639  2.1318
17938SOL    HW264129  11.670   7.515   6.068  0.0823 -0.3047  1.5582
17939SOL     OW64130   7.988   2.646   0.033 -0.8300 -0.0594 -0.2343
17939SOL    HW164131   7.926   2.583   0.070  0.1757 -1.3412 -0.6628
17939SOL    HW264132   7.948   2.732   0.050 -2.2698 -0.8017  0.2987
17940SOL     OW64133   4.430   8.948   6.888 -0.0719 -0.4398  0.3694
17940SOL    HW164134   4.504   8.972   6.944 -0.5606  1.7385  0.1552
17940SOL    HW264135   4.370   9.022   6.894 -0.2177 -0.1475 -2.8976
17941SOL     OW64136   4.946   2.152  12.064  0.4675 -0.2801  0.6182
17941SOL    HW164137   4.910   2.143  12.153 -1.1406  1.6341  0.2156
17941SOL    HW264138   4.988   2.238  12.064  0.6867 -0.3781 -0.4247
17942SOL     OW64139   6.354   9.788   5.332 -0.5443  0.3584 -0.0174
17942SOL    HW164140   6.335   9.752   5.419 -1.1750 -1.8697 -1.0142
17942SOL    HW264141   6.286   9.751   5.276  0.1676  1.3433 -1.5841
17943SOL     OW64142   3.074  11.871  11.499 -0.6648  0.1803  0.0527
17943SOL    HW164143   3.155  11.922  11.496 -0.4742 -0.0436  0.9996
17943SOL    HW264144   3.099  11.786  11.463 -0.1649 -0.2604  1.3586
17944SOL     OW64145  12.586   6.621  10.338 -0.2904  0.1299  0.0035
17944SOL    HW164146  12.607   6.531  10.311  2.1075  0.0037  1.8759
17944SOL    HW264147  12.662   6.672  10.309 -0.2290  0.9535  1.5247
17945SOL     OW64148  12.632   2.722   0.473  0.1040  0.2885 -0.2256
17945SOL    HW164149  12.613   2.763   0.388 -0.6341  2.2042  0.8183
17945SOL    HW264150  12.556   2.744   0.527 -0.0637 -2.0560  0.5773
17946SOL     OW64151   6.924   0.863   8.239  0.5411 -0.2153  0.0104
17946SOL    HW164152   6.952   0.889   8.327  0.3139 -0.9228  0.2981
17946SOL    HW264153   6.997   0.811   8.205 -0.5895 -2.5427  0.9785
17947SOL     OW64154   4.351   1.887  10.633 -0.3634 -0.3549 -0.1425
17947SOL    HW164155   4.301   1.896  10.552  0.3057 -1.6209 -0.7193
17947SOL    HW264156   4.422   1.827  10.611  2.0519  2.0877  0.3693
17948SOL     OW64157   1.666  10.682  11.927 -0.4753  0.0317  0.1845
17948SOL    HW164158   1.711  10.762  11.955 -1.3670  0.6744 -0.1550
17948SOL    HW264159   1.726  10.611  11.949  0.2822  0.7877  0.6058
17949SOL     OW64160   7.934   8.385   5.664 -0.4831 -0.5463 -0.2308
17949SOL    HW164161   7.908   8.326   5.593  0.9485 -1.3538 -0.1348
17949SOL    HW264162   7.940   8.471   5.623 -1.4733 -0.6697 -0.6494
17950SOL     OW64163   9.530   9.821  11.235 -0.3539  0.1228  0.2389
17950SOL    HW164164   9.481   9.750  11.195 -0.9707  0.3489  0.5828
17950SOL    HW264165   9.547   9.882  11.162 -0.7167  0.1145  0.1449
17951SOL     OW64166   4.159  11.903  10.278 -0.1835  0.2720 -0.1696
17951SOL    HW164167   4.151  11.830  10.217  0.7330 -0.4446  0.5295
17951SOL    HW264168   4.078  11.902  10.328  0.3693 -1.1579  0.7594
17952SOL     OW64169   0.359  10.081   2.942 -0.3254  0.2567 -0.0161
17952SOL    HW164170   0.387  10.101   3.031  2.6396 -1.3908 -0.4616
17952SOL    HW264171   0.397  10.151   2.888  1.5914 -1.0035 -0.4050
17953SOL     OW64172   7.339  10.754   1.329  0.0551  0.0585 -0.7592
17953SOL    HW164173   7.284  10.796   1.262 -1.6492  1.0820  1.1500
17953SOL    HW264174   7.292  10.673   1.351 -2.0406  1.9077  2.3432
17954SOL     OW64175   5.624  10.428   1.130 -0.2810  0.4542 -0.0015
17954SOL    HW164176   5.666  10.448   1.046  0.2707 -1.2478 -0.1627
17954SOL    HW264177   5.614  10.514   1.172  2.6237  1.0575 -0.3203
17955SOL     OW64178   3.683   7.045  10.381 -0.3216 -0.1528  0.4246
17955SOL    HW164179   3.589   7.031  10.373 -0.4230  0.1402  1.0631
17955SOL    HW264180   3.692   7.138  10.402  0.0750 -0.2754  0.8203
17956SOL     OW64181   6.509  11.684   7.128  0.2302  0.2804 -0.5120
17956SOL    HW164182   6.569  11.609   7.133  0.1973  0.3372  1.0669
17956SOL    HW264183   6.485  11.688   7.035  0.9588 -1.0837 -0.7970
17957SOL     OW64184   0.088  11.263   0.295 -0.0064 -0.2743  0.3409
17957SOL    HW164185   0.004  11.267   0.250  0.2856 -1.7621 -0.3728
17957SOL    HW264186   0.126  11.179   0.270  0.2907 -1.1236  3.1874
17958SOL     OW64187   9.075   1.250   6.793  0.0399  0.3186  0.0333
17958SOL    HW164188   9.161   1.292   6.788 -0.6920  1.9130  0.3226
17958SOL    HW264189   9.088   1.175   6.850  0.9712  1.2743  1.1105
17959SOL     OW64190   5.220  11.184   3.122  0.5642  0.3470 -0.2536
17959SOL    HW164191   5.268  11.101   3.118  0.7474  0.4750 -0.8568
17959SOL    HW264192   5.245  11.230   3.042 -0.2808  0.5766 -0.3986
17960SOL     OW64193   8.635   5.174   7.128  0.1077  0.5590 -0.1867
17960SOL    HW164194   8.642   5.266   7.104 -0.9222  0.5230 -0.6772
17960SOL    HW264195   8.647   5.173   7.223 -0.5572  1.2804 -0.0907
17961SOL     OW64196  11.214  11.648   9.178 -0.1141 -0.5007 -0.1708
17961SOL    HW164197  11.179  11.598   9.251 -0.2846  3.6247  2.9168
17961SOL    HW264198  11.142  11.707   9.153  1.6267  1.9243  0.1769
17962SOL     OW64199   3.077   4.970   5.288 -0.3504  0.2115 -0.6282
17962SOL    HW164200   3.144   4.905   5.308 -1.1062  0.1581  2.1479
17962SOL    HW264201   2.994   4.923   5.298 -0.9162  1.5749  1.6643
17963SOL     OW64202   6.463  11.071  11.476 -0.5679 -0.3637 -0.0041
17963SOL    HW164203   6.433  11.158  11.503 -1.0034 -0.0959 -1.2828
17963SOL    HW264204   6.530  11.048  11.540 -0.0852  1.1273  0.0711
17964SOL     OW64205   0.083  10.123   3.577 -0.3108 -0.3425 -0.1732
17964SOL    HW164206   0.043  10.062   3.516  0.0956  0.2857 -1.0878
17964SOL    HW264207   0.139  10.068   3.632  0.1103 -0.7905 -1.0350
17965SOL     OW64208   1.086  10.248   1.262  0.4670 -0.5824  0.2740
17965SOL    HW164209   1.064  10.338   1.289  2.5560 -0.0353  0.3413
17965SOL    HW264210   1.039  10.193   1.324 -0.5334  0.4758  0.4907
17966SOL     OW64211   2.945   7.790   5.019  0.2829  0.0771 -0.0132
17966SOL    HW164212   2.880   7.827   4.960  1.7266  1.9931 -0.5117
17966SOL    HW264213   2.988   7.722   4.968  0.4172  0.6014 -0.6089
17967SOL     OW64214   7.398   2.735   9.404 -0.1730  0.1142 -0.5983
17967SOL    HW164215   7.441   2.661   9.361 -2.0351 -0.0372 -2.3584
17967SOL    HW264216   7.442   2.812   9.367 -2.6220  0.0529 -4.1249
17968SOL     OW64217   9.517   8.290  12.584  0.8767 -0.1461  0.2524
17968SOL    HW164218   9.539   8.279  12.677  0.4403  0.5226  0.4365
17968SOL    HW264219   9.602   8.283  12.540  0.9664 -1.5200  0.5905
17969SOL     OW64220   8.412   4.115   4.476 -0.2750  0.6080 -0.4026
17969SOL    HW164221   8.437   4.149   4.562 -1.5564 -0.5927  0.4808
17969SOL    HW264222   8.493   4.116   4.426  0.5228  1.2455  0.8528
17970SOL     OW64223   3.119   6.803   2.926  0.0810  0.4387 -0.3526
17970SOL    HW164224   3.131   6.891   2.892  1.4593  0.8052  0.9711
17970SOL    HW264225   3.076   6.815   3.010 -0.5440 -0.2323 -0.5649
17971SOL     OW64226   5.322   5.946   2.880 -0.2992 -0.3283 -0.0242
17971SOL    HW164227   5.370   6.024   2.851  1.8797 -0.4912  2.7632
17971SOL    HW264228   5.327   5.949   2.975  0.1914 -4.0627  0.1804
17972SOL     OW64229  12.982   3.837  10.533 -0.1055  0.2228  0.2795
17972SOL    HW164230  12.923   3.772  10.495 -2.6709  1.2982  2.1845
17972SOL    HW264231  12.988   3.815  10.625  0.6651  1.4905  0.5662
17973SOL     OW64232   4.257   4.999  12.633  0.1691  0.0505  0.5272
17973SOL    HW164233   4.169   5.024  12.660 -0.5776 -0.3096 -1.4053
17973SOL    HW264234   4.244   4.946  12.555  2.0576 -1.1334  0.9597
17974SOL     OW64235   8.838   9.171  11.579 -0.1888 -0.6804  0.1801
17974SOL    HW164236   8.869   9.177  11.670  0.0732 -0.5966  0.0860
17974SOL    HW264237   8.890   9.236  11.532  0.5750 -1.5902 -0.2759
17975SOL     OW64238   4.560   7.987   1.034 -0.1527 -0.4202 -0.3598
17975SOL    HW164239   4.612   8.046   1.087  0.6659 -1.6135  0.1974
17975SOL    HW264240   4.499   7.946   1.095  1.0362 -2.0699 -0.2036
17976SOL     OW64241   5.888   7.087   8.571  0.8736 -0.1342 -0.3071
17976SOL    HW164242   5.872   7.124   8.485  1.0049 -0.6862 -0.5767
17976SOL    HW264243   5.965   7.133   8.604  0.7311  0.1855 -0.4147
17977SOL     OW64244  10.864   5.578   5.365  0.0128 -0.1400 -0.1268
17977SOL    HW164245  10.836   5.652   5.418  0.8361 -1.3795  2.2119
17977SOL    HW264246  10.900   5.616   5.286  0.8886  2.0114  1.2220
17978SOL     OW64247  12.535   1.022   6.811  0.3023  0.3491 -0.0559
17978SOL    HW164248  12.629   1.003   6.813  0.1874 -0.1611  0.8576
17978SOL    HW264249  12.493   0.942   6.842 -0.4810  0.3368 -1.1181
17979SOL     OW64250   0.452   0.179  11.000  0.0168 -0.0431 -0.0580
17979SOL    HW164251   0.477   0.117  11.069 -1.6563 -0.0591  0.5599
17979SOL    HW264252   0.530   0.233  10.987  0.6911 -0.7078  1.1059
17980SOL     OW64253   8.242   5.496   3.703  0.7169 -0.4009 -0.0378
17980SOL    HW164254   8.308   5.446   3.655  1.6728  0.5688  0.2337
17980SOL    HW264255   8.276   5.585   3.706 -0.2052 -0.0532  0.8384
17981SOL     OW64256  11.903   4.970   7.457 -0.6068  0.1232  0.1069
17981SOL    HW164257  11.966   4.919   7.506 -0.9011 -1.5760 -1.1999
17981SOL    HW264258  11.956   5.033   7.407 -0.0407 -0.5200 -0.1114
17982SOL     OW64259   4.620   3.268  11.702 -0.0594  0.2124 -0.0599
17982SOL    HW164260   4.542   3.312  11.736 -0.0865 -1.1177  1.7701
17982SOL    HW264261   4.692   3.301  11.756  0.4049  0.3057 -0.7245
17983SOL     OW64262  12.672  10.790   7.169  0.3323 -0.0270 -0.0141
17983SOL    HW164263  12.629  10.754   7.247  0.0630 -0.7922 -0.5154
17983SOL    HW264264  12.609  10.854   7.135  0.3099  0.0666  0.1943
17984SOL     OW64265  10.339   1.651   9.674  0.4550 -0.0920 -0.2768
17984SOL    HW164266  10.421   1.699   9.664  1.6660 -2.0583 -0.3177
17984SOL    HW264267  10.306   1.640   9.585  1.6182 -1.6274 -0.5696
17985SOL     OW64268   8.870   6.369   1.207 -0.0814  0.3067  0.6304
17985SOL    HW164269   8.870   6.295   1.146 -0.2421 -1.7956  3.0517
17985SOL    HW264270   8.945   6.353   1.264 -0.5190  1.6761  1.6233
17986SOL     OW64271   3.544   9.833   2.465  0.0682 -0.1749  0.0454
17986SOL    HW164272   3.571   9.813   2.375 -1.1948  0.7202 -0.5774
17986SOL    HW264273   3.495   9.756   2.492 -0.1633 -0.1659 -0.3259
17987SOL     OW64274   6.490   5.888   3.682  0.1753  0.0193 -0.1241
17987SOL    HW164275   6.537   5.863   3.761 -0.6333 -1.4848 -0.0724
17987SOL    HW264276   6.480   5.983   3.689  1.8834  0.1885  0.5596
17988SOL     OW64277  11.448   2.913   4.931  0.0689  0.3391  0.3508
17988SOL    HW164278  11.409   2.862   4.860 -0.4392 -2.2780  2.3442
17988SOL    HW264279  11.516   2.965   4.888  0.8211 -2.2451 -1.9003
17989SOL     OW64280   0.224   5.586   3.970 -0.3890 -0.2915  0.8528
17989SOL    HW164281   0.297   5.528   3.991  2.4421  2.8702  0.6268
17989SOL    HW264282   0.218   5.645   4.045 -1.3746  0.7208  0.0206
17990SOL     OW64283   3.318   2.104   5.797 -0.1104  0.3768  0.1930
17990SOL    HW164284   3.372   2.107   5.718  0.5992  0.6851  0.6786
17990SOL    HW264285   3.301   2.196   5.818 -1.9977  0.2823 -0.7200
17991SOL     OW64286   1.630   8.172   0.610  0.1970  0.3939  0.1481
17991SOL    HW164287   1.679   8.091   0.593 -0.3276  0.2206 -0.6117
17991SOL    HW264288   1.668   8.236   0.551  2.0151  1.3199  2.1836
17992SOL     OW64289  10.481  10.807  11.648  0.3962 -0.1195 -0.3057
17992SOL    HW164290  10.534  10.833  11.723  0.0469 -1.1627  0.3253
17992SOL    HW264291  10.523  10.728  11.615  0.4924  0.2791 -1.1595
17993SOL     OW64292   1.591  12.467  10.166  0.1684 -0.5842 -0.1692
17993SOL    HW164293   1.563  12.383  10.203 -1.3632 -0.1068 -0.1496
17993SOL    HW264294   1.674  12.486  10.209 -0.9521 -0.6091  2.1724
17994SOL     OW64295   8.088   5.017  10.411  0.4212 -0.2679  0.0979
17994SOL    HW164296   8.064   4.951  10.475 -0.9749 -1.3389 -1.4482
17994SOL    HW264297   8.182   5.006  10.398  0.1820 -2.0988 -0.2677
17995SOL     OW64298   9.605  12.573   6.466 -0.3563  0.0375  0.3577
17995SOL    HW164299   9.510  12.567   6.477 -0.2063 -1.3707  1.0229
17995SOL    HW264300   9.616  12.638   6.396 -1.8416 -0.4860 -0.4110
17996SOL     OW64301   4.145   9.156   0.908 -0.6490  0.0059  0.0331
17996SOL    HW164302   4.121   9.120   0.993  0.8820 -2.1226 -0.3366
17996SOL    HW264303   4.241   9.159   0.910 -0.6374  1.4251 -1.0615
17997SOL     OW64304   9.692   0.858   2.562 -0.2619 -0.4802 -0.0039
17997SOL    HW164305   9.687   0.798   2.487 -0.2999 -0.2234 -0.2053
17997SOL    HW264306   9.657   0.941   2.530  0.1792 -0.2298  0.1578
17998SOL     OW64307   6.652  12.271   0.693 -0.2712  0.1822  0.6124
17998SOL    HW164308   6.698  12.230   0.766  0.2621 -1.6619 -0.6948
17998SOL    HW264309   6.564  12.236   0.697 -0.2277  0.0394  0.3507
17999SOL     OW64310   6.879   1.230  10.012  0.5039 -0.0352 -0.3406
17999SOL    HW164311   6.835   1.288   9.950  1.1451  1.4527  0.5326
17999SOL    HW264312   6.931   1.171   9.957 -0.6268 -0.2009 -1.2781
18000SOL     OW64313   9.580  10.070   0.044 -1.1107 -0.2228  0.0992
18000SOL    HW164314   9.544   9.982   0.055 -0.4087 -0.5156  0.1021
18000SOL    HW264315   9.648  10.060  -0.022  0.1380 -0.0215  1.3203
18001SOL     OW64316  12.787   7.572   3.443  0.2119  0.7376 -0.0087
18001SOL    HW164317  12.800   7.626   3.365  1.0262 -0.0875 -0.4495
18001SOL    HW264318  12.755   7.634   3.509  0.8240  1.7091 -0.5957
18002SOL     OW64319  11.521  11.607   4.578 -0.4783 -0.3253  0.4978
18002SOL    HW164320  11.510  11.667   4.505 -1.9871  0.4490  1.2946
18002SOL    HW264321  11.457  11.537   4.561 -0.4402 -0.4310  0.7821
18003SOL     OW64322  10.218   7.594   5.819  0.1361 -0.5229 -0.0247
18003SOL    HW164323  10.225   7.577   5.725 -1.0408 -1.8941  0.1017
18003SOL    HW264324  10.183   7.683   5.825  2.0791  0.3492 -0.8190
18004SOL     OW64325   0.406   2.372  12.614 -0.4466  0.1649  0.2106
18004SOL    HW164326   0.392   2.334  12.701 -0.8924  1.9085  0.9639
18004SOL    HW264327   0.353   2.452  12.615 -0.5390  0.1667 -1.7217
18005SOL     OW64328  10.304  12.206   9.885  0.8329  0.8298 -0.4222
18005SOL    HW164329  10.371  12.212   9.953  0.4265  1.2322 -0.0440
18005SOL    HW264330  10.240  12.274   9.909 -1.5510 -1.7600  1.2691
18006SOL     OW64331   4.714   2.437  12.663  0.1854 -0.0950  0.1340
18006SOL    HW164332   4.707   2.381  12.586  1.2687  0.6804 -0.5672
18006SOL    HW264333   4.801   2.477  12.656  0.0371  0.5111  1.4029
18007SOL     OW64334   6.979  12.084   8.354 -0.1221 -0.4695  0.1065
18007SOL    HW164335   6.921  12.144   8.401 -0.4298 -0.0490 -0.7915
18007SOL    HW264336   6.936  11.999   8.360 -0.5052 -0.2854  0.0062
18008SOL     OW64337  10.805   9.632   8.660 -0.0847  0.0680 -0.6272
18008SOL    HW164338  10.793   9.537   8.668  0.6577 -0.0556 -0.8998
18008SOL    HW264339  10.799   9.665   8.750 -2.0493 -0.0022 -0.6788
18009SOL     OW64340   0.197   2.441   6.905  0.5284 -0.0167 -0.0585
18009SOL    HW164341   0.188   2.536   6.894  0.2458  0.0133  0.4168
18009SOL    HW264342   0.116   2.414   6.948 -0.6798 -0.8930 -2.6497
18010SOL     OW64343   0.678   5.150   7.869 -0.7731  0.6778  0.7521
18010SOL    HW164344   0.598   5.191   7.835 -1.0169 -1.2260 -1.2009
18010SOL    HW264345   0.690   5.072   7.815  1.9190  0.3819  1.6109
18011SOL     OW64346  12.817  11.625   0.780  0.1887  0.0756  0.4821
18011SOL    HW164347  12.791  11.695   0.721 -1.3637  0.1524  1.2099
18011SOL    HW264348  12.912  11.631   0.784  0.2377  0.7816 -1.0996
18012SOL     OW64349   4.159   1.614   7.871 -0.2460  0.0539 -0.8719
18012SOL    HW164350   4.237   1.573   7.833 -0.2031 -0.6705 -0.0336
18012SOL    HW264351   4.141   1.563   7.950 -0.6156  1.2336 -0.1676
18013SOL     OW64352   2.111   8.608   1.158 -0.1149 -0.4423  0.5046
18013SOL    HW164353   2.040   8.657   1.198  0.4586 -0.5687  1.7051
18013SOL    HW264354   2.190   8.639   1.202  1.0302  1.9206 -2.8380
18014SOL     OW64355  10.886   1.987  11.311  0.6330 -0.2641  0.1425
18014SOL    HW164356  10.948   2.056  11.288 -0.2630  1.1393  1.7307
18014SOL    HW264357  10.801   2.022  11.285  0.1673 -0.7761  0.9645
18015SOL     OW64358   9.069  12.841   1.614  0.2490  0.3455 -0.2716
18015SOL    HW164359   9.125  12.855   1.537 -0.1430 -1.2190 -0.8740
18015SOL    HW264360   9.039  12.751   1.605 -1.6101  0.8480  0.5505
18016SOL     OW64361   6.611   2.538   7.929  1.0476  0.1863  0.0067
18016SOL    HW164362   6.658   2.496   8.001  3.1900 -0.6311 -1.7760
18016SOL    HW264363   6.520   2.509   7.940  1.3046  0.0399  2.2944
18017SOL     OW64364   8.558   3.518   8.148 -0.5203 -0.1295  0.7265
18017SOL    HW164365   8.469   3.551   8.156  0.1315  1.4995  1.8316
18017SOL    HW264366   8.613   3.597   8.152  0.9342 -1.0012 -0.8835
18018SOL     OW64367   0.291  10.698   2.558  0.1817 -0.3718 -0.0210
18018SOL    HW164368   0.199  10.715   2.535  0.3412 -0.9480 -1.1633
18018SOL    HW264369   0.290  10.611   2.599  0.1266 -0.0703  0.6259
18019SOL     OW64370  10.607   4.828   2.222 -0.7866 -0.4442  0.3992
18019SOL    HW164371  10.607   4.886   2.298 -3.2164 -0.9916  0.8813
18019SOL    HW264372  10.609   4.740   2.259 -1.7136 -0.7116 -0.1661
18020SOL     OW64373   2.499   8.636  11.511 -0.0673 -0.3088  0.0058
18020SOL    HW164374   2.568   8.699  11.491 -0.2869  0.6284  2.0240
18020SOL    HW264375   2.420   8.673  11.473  0.0580 -0.0644 -0.0165
18021SOL     OW64376  12.795   8.795   0.622 -0.2190 -0.1902 -0.3645
18021SOL    HW164377  12.761   8.756   0.541 -0.9132 -0.6804  0.1620
18021SOL    HW264378  12.734   8.768   0.690  0.4058  0.1572  0.3486
18022SOL     OW64379   7.640   3.238   3.258  0.3310 -0.1776  0.0690
18022SOL    HW164380   7.706   3.186   3.304 -2.0077 -2.3041  1.2418
18022SOL    HW264381   7.609   3.302   3.323 -0.7792 -1.1213  0.4915
18023SOL     OW64382   3.499   1.121  12.172  0.4027  0.2895  0.2125
18023SOL    HW164383   3.580   1.166  12.195  0.8816 -0.8549  0.8198
18023SOL    HW264384   3.524   1.056  12.107 -0.1890  0.5225 -0.2607
18024SOL     OW64385  10.156   1.029   1.017  0.2278 -0.3209 -0.3720
18024SOL    HW164386  10.076   1.047   1.068  1.0622 -0.4926  1.0404
18024SOL    HW264387  10.135   1.061   0.929 -1.2101  0.1282  0.0951
18025SOL     OW64388   4.101   3.391   5.493 -0.2367 -0.3006  0.2394
18025SOL    HW164389   4.013   3.361   5.512  0.1148 -2.0655 -0.7332
18025SOL    HW264390   4.089   3.473   5.445 -1.3581 -0.7014 -0.1791
18026SOL     OW64391   5.733  11.230  11.796  0.1899  0.4681 -0.7684
18026SOL    HW164392   5.812  11.181  11.773 -0.6595 -0.1251 -2.6207
18026SOL    HW264393   5.753  11.320  11.770  0.2614  0.3143 -1.2633
18027SOL     OW64394   8.971   2.317   4.175  0.6166  0.3795  0.0733
18027SOL    HW164395   8.982   2.299   4.081  3.2275 -0.8501  0.5364
18027SOL    HW264396   9.035   2.260   4.218 -0.6797  0.7330  2.6500
18028SOL     OW64397   8.758  10.445  11.231 -0.2189 -0.3573 -0.3971
18028SOL    HW164398   8.710  10.528  11.239  2.1753  0.9893  1.5366
18028SOL    HW264399   8.850  10.471  11.231  0.5929 -2.9890 -0.7720
18029SOL     OW64400   0.023   2.872  12.598 -0.1382  0.4058 -0.2974
18029SOL    HW164401   0.007   2.818  12.520  1.4029  1.6498 -1.5454
18029SOL    HW264402  -0.002   2.960  12.571  2.0234  1.1678 -0.0133
18030SOL     OW64403   5.826   5.836  10.012  0.0227 -0.1365  0.1815
18030SOL    HW164404   5.785   5.846  10.098 -0.4422 -0.1394 -0.0350
18030SOL    HW264405   5.900   5.778  10.027 -0.9028 -1.3209  0.3270
18031SOL     OW64406   0.559   4.254   0.700  0.1302  0.7764 -0.3075
18031SOL    HW164407   0.493   4.257   0.631 -0.9238 -0.4558  0.6075
18031SOL    HW264408   0.511   4.226   0.778  1.4020  1.5681  0.8056
18032SOL     OW64409  12.255  11.633  11.026  0.3302  0.0331  0.1491
18032SOL    HW164410  12.272  11.718  10.985  0.5731  0.7210  1.6270
18032SOL    HW264411  12.161  11.633  11.043  0.5300  0.5942  1.3581
18033SOL     OW64412   4.423   6.154   3.731 -0.0441  0.0358  0.5210
18033SOL    HW164413   4.457   6.065   3.730  2.0222  0.7364 -1.5447
18033SOL    HW264414   4.376   6.162   3.648 -1.2744  0.5188  1.2487
18034SOL     OW64415  10.336   6.928   9.199  0.1947 -0.2129  1.2190
18034SOL    HW164416  10.384   6.887   9.126 -0.0507  1.5934 -0.0284
18034SOL    HW264417  10.405   6.964   9.255  0.3758  1.2740  0.0966
18035SOL     OW64418   5.434   2.578   6.890  0.3660 -0.2769 -0.4427
18035SOL    HW164419   5.411   2.671   6.892  0.9171 -0.1250  1.5853
18035SOL    HW264420   5.455   2.560   6.799  1.5118  1.9245 -0.6874
18036SOL     OW64421  12.557   0.524   2.034 -0.8905  0.3370 -0.0523
18036SOL    HW164422  12.502   0.602   2.037 -1.6987 -0.2326  0.2875
18036SOL    HW264423  12.629   0.542   2.094 -0.7927  1.0169 -0.3619
18037SOL     OW64424  12.078  12.501   0.682  0.3775  0.2810 -0.3205
18037SOL    HW164425  12.060  12.595   0.680 -2.9394 -0.2182  0.5903
18037SOL    HW264426  12.060  12.475   0.773 -0.4781 -1.4719 -0.9336
18038SOL     OW64427   8.274   2.921   4.346  0.0831 -0.6023 -0.2911
18038SOL    HW164428   8.217   2.852   4.379 -0.1812  0.2312  1.0536
18038SOL    HW264429   8.348   2.875   4.307  0.7494 -1.6682  2.0578
18039SOL     OW64430  12.457   1.466   7.293 -0.6462 -0.8892  0.1651
18039SOL    HW164431  12.527   1.403   7.273  1.4956  1.3342  0.2289
18039SOL    HW264432  12.422   1.490   7.208 -0.4553 -1.0454  0.0407
18040SOL     OW64433   2.359   0.336   4.570 -0.5290  0.0690  0.3011
18040SOL    HW164434   2.437   0.288   4.544  0.4903  1.9905 -0.4121
18040SOL    HW264435   2.378   0.366   4.659 -0.8178 -0.1806  0.4470
18041SOL     OW64436   5.720  11.862   5.450  0.6591 -0.1649  0.5683
18041SOL    HW164437   5.776  11.891   5.378  0.8581  0.3677  0.9280
18041SOL    HW264438   5.645  11.921   5.448 -0.1324 -1.1813 -0.2068
18042SOL     OW64439  11.619   1.355   8.069 -0.7243 -0.6230  0.0531
18042SOL    HW164440  11.557   1.308   8.125 -0.6943 -1.6465 -0.7351
18042SOL    HW264441  11.649   1.289   8.007 -0.6151  0.4399 -1.0530
18043SOL     OW64442   4.795  11.242  11.557  0.1251  0.1482  0.4388
18043SOL    HW164443   4.889  11.260  11.561 -0.1543  2.0352 -0.4812
18043SOL    HW264444   4.765  11.253  11.647  0.7466 -0.3919  0.7289
18044SOL     OW64445   4.215   2.296   1.067  0.1820 -0.6915 -0.0569
18044SOL    HW164446   4.269   2.262   0.996 -0.6842 -1.0840 -0.5424
18044SOL    HW264447   4.125   2.274   1.042 -0.0257 -2.7459  2.1707
18045SOL     OW64448   0.501   4.546  11.649 -0.6046 -0.5516 -0.4139
18045SOL    HW164449   0.421   4.592  11.621  0.5435  0.6479 -1.9079
18045SOL    HW264450   0.533   4.505  11.568  0.1217 -1.3141  0.2512
18046SOL     OW64451   6.300  10.570   7.805  0.0784 -0.2186 -0.2683
18046SOL    HW164452   6.272  10.483   7.777  0.4263 -0.1139 -0.9678
18046SOL    HW264453   6.363  10.598   7.738 -1.1472  1.1976 -0.8852
18047SOL     OW64454   8.734   3.509   7.253 -0.3562  0.1141 -0.5283
18047SOL    HW164455   8.661   3.570   7.257 -0.8142 -0.4377 -0.3902
18047SOL    HW264456   8.695   3.426   7.224  0.4116  0.1296 -1.6818
18048SOL     OW64457   9.968   2.433   0.753  0.2799 -0.8267  0.2339
18048SOL    HW164458  10.042   2.386   0.794  1.0935  0.0064 -0.2340
18048SOL    HW264459   9.989   2.434   0.660  0.5202  0.8309  0.2780
18049SOL     OW64460   2.353   8.591  10.494 -0.1548 -0.4033  0.2968
18049SOL    HW164461   2.327   8.510  10.449 -0.2596  0.2573 -0.8723
18049SOL    HW264462   2.402   8.640  10.428  0.5366  0.1807  1.2184
18050SOL     OW64463   0.759   8.407   5.792 -0.7391  0.3468  0.3481
18050SOL    HW164464   0.709   8.467   5.847 -1.0031 -0.9784  1.6398
18050SOL    HW264465   0.789   8.339   5.853 -0.5035 -0.8567 -1.0456
18051SOL     OW64466  10.847   2.140   5.501  0.4947  0.1417  0.0532
18051SOL    HW164467  10.927   2.123   5.451 -0.3154 -0.9456 -0.9114
18051SOL    HW264468  10.788   2.069   5.477 -0.7144  0.8369  0.8790
18052SOL     OW64469   5.895  11.402   7.867  0.7070 -0.2478  0.4128
18052SOL    HW164470   5.986  11.427   7.858  0.3595  0.6010 -1.0754
18052SOL    HW264471   5.859  11.409   7.778 -1.6096  2.7833  1.3863
18053SOL     OW64472   7.529   7.695   7.235 -0.4490  0.0890  0.0676
18053SOL    HW164473   7.602   7.745   7.272  1.1815 -0.9548 -1.5428
18053SOL    HW264474   7.451   7.747   7.255  0.4834  0.4521  3.2824
18054SOL     OW64475   8.949  11.849   2.948  0.1705  0.4224 -0.5458
18054SOL    HW164476   9.031  11.804   2.928  0.3891  0.6209 -0.1095
18054SOL    HW264477   8.975  11.933   2.984 -0.0252 -0.9727  3.4230
18055SOL     OW64478  10.997   2.983   9.482  0.1543 -0.4368 -0.2467
18055SOL    HW164479  11.044   3.051   9.530 -1.1360 -1.0294  1.9845
18055SOL    HW264480  10.931   3.030   9.431  2.4219  0.3237 -2.7039
18056SOL     OW64481   4.257   3.712   2.939 -0.3514  0.6315 -0.1782
18056SOL    HW164482   4.306   3.630   2.941 -0.3783  0.6268  2.2391
18056SOL    HW264483   4.324   3.780   2.935 -0.3270  0.5643 -2.0522
18057SOL     OW64484   8.887   1.072   2.774  0.1268 -0.0381  0.1560
18057SOL    HW164485   8.924   0.992   2.736  0.9241  0.5628 -0.3490
18057SOL    HW264486   8.793   1.068   2.752 -0.2075 -1.6682  1.6105
18058SOL     OW64487   5.601   3.876   1.356  0.1601  0.1254 -0.4385
18058SOL    HW164488   5.605   3.911   1.267 -1.2224 -2.6593 -1.7467
18058SOL    HW264489   5.509   3.885   1.381  0.3250 -0.0959  0.2611
18059SOL     OW64490   2.505  12.689  10.925 -0.3663  0.0922 -0.0631
18059SOL    HW164491   2.431  12.667  10.982 -1.1581  2.4254 -0.0834
18059SOL    HW264492   2.528  12.606  10.882 -3.0462 -0.6868 -0.1459
18060SOL     OW64493   8.453   8.137   1.990 -0.5255 -0.2670 -0.2740
18060SOL    HW164494   8.435   8.124   2.083  1.3319 -0.7221  0.0451
18060SOL    HW264495   8.370   8.115   1.947 -1.3491 -0.2597  1.2411
18061SOL     OW64496  12.052   8.529   7.548 -0.0006 -0.0493  0.0543
18061SOL    HW164497  12.005   8.473   7.610  0.4950 -1.0233 -0.4174
18061SOL    HW264498  12.098   8.467   7.491 -0.1111  0.8287 -1.0166
18062SOL     OW64499   4.548   0.465   8.117 -0.0818  0.5016 -0.5819
18062SOL    HW164500   4.600   0.513   8.052 -0.5136  0.1940 -1.1494
18062SOL    HW264501   4.490   0.409   8.066 -0.1936  0.0147  0.0734
18063SOL     OW64502   8.253   9.081   2.786  0.3693  0.0506 -0.1713
18063SOL    HW164503   8.294   9.079   2.872 -0.7637 -0.3815  0.3853
18063SOL    HW264504   8.257   8.990   2.756 -0.3302 -0.0414 -0.0150
18064SOL     OW64505   3.568   2.058   7.901  0.2998 -0.1516  0.0083
18064SOL    HW164506   3.498   2.012   7.947 -1.0919  0.6029 -1.2321
18064SOL    HW264507   3.648   2.010   7.923 -0.6473 -1.2449  1.2116
18065SOL     OW64508   2.752   5.792   2.317  0.5824  0.5230  0.6700
18065SOL    HW164509   2.682   5.796   2.252  0.1710 -2.7560  0.7732
18065SOL    HW264510   2.717   5.737   2.387  2.1949  1.3129  2.1759
18066SOL     OW64511  11.358  11.894   3.762 -0.0727  0.0506 -0.3788
18066SOL    HW164512  11.341  11.982   3.796  0.1269  0.4809 -1.3554
18066SOL    HW264513  11.272  11.854   3.755 -0.2111  0.3353 -0.3371
18067SOL     OW64514   1.473  11.397   6.087  0.2454  0.0085 -0.4333
18067SOL    HW164515   1.477  11.399   5.991 -0.3328  0.8151 -0.4519
18067SOL    HW264516   1.535  11.329   6.112 -0.1556 -0.7491 -1.4173
18068SOL     OW64517   0.200  10.614  10.485  0.3479 -0.1907 -0.3029
18068SOL    HW164518   0.162  10.530  10.509 -2.1398  0.7597 -0.5815
18068SOL    HW264519   0.155  10.638  10.404  2.9006  0.2477 -1.6902
18069SOL     OW64520   6.941  10.880   6.141  0.6057 -0.4208 -0.2802
18069SOL    HW164521   6.964  10.922   6.059 -0.2873  0.9815  0.1556
18069SOL    HW264522   6.845  10.874   6.140  0.6390 -1.3895  0.1930
18070SOL     OW64523   4.291   8.259   4.688 -0.2074  0.3363 -0.1308
18070SOL    HW164524   4.313   8.318   4.616 -1.1668  1.5052  0.4995
18070SOL    HW264525   4.208   8.293   4.722  1.5667  1.6217  3.3639
18071SOL     OW64526   3.056   0.324   5.839  0.4547  0.0722 -0.4642
18071SOL    HW164527   3.107   0.343   5.760  0.8828  0.8064 -0.0198
18071SOL    HW264528   2.972   0.290   5.806  1.2355 -1.2432 -1.2117
18072SOL     OW64529  11.387   8.371   4.240  0.3873 -0.6028 -0.2936
18072SOL    HW164530  11.422   8.316   4.170 -0.9032 -1.8471 -0.0187
18072SOL    HW264531  11.459   8.429   4.264  1.2530 -1.0128 -1.7773
18073SOL     OW64532  12.327   3.651   4.768  0.2578 -0.2874 -0.0166
18073SOL    HW164533  12.406   3.705   4.779  0.0422  0.0682 -0.2212
18073SOL    HW264534  12.345   3.598   4.690  0.7611 -1.0270  0.5909
18074SOL     OW64535  11.503   3.690   0.121 -0.1847 -0.5131 -0.1553
18074SOL    HW164536  11.463   3.769   0.157 -0.5998 -0.8713  0.1869
18074SOL    HW264537  11.470   3.685   0.031 -0.1863 -0.3161 -0.1653
18075SOL     OW64538   8.898   9.918   3.904  0.1253 -0.9710 -0.0170
18075SOL    HW164539   8.806   9.938   3.891  0.6129  1.1482 -0.6945
18075SOL    HW264540   8.928   9.882   3.821  0.7074  2.0173 -1.2359
18076SOL     OW64541  10.851   1.642   4.852 -0.3344  0.5438 -0.2262
18076SOL    HW164542  10.838   1.685   4.937  0.9006  0.5298 -0.0169
18076SOL    HW264543  10.782   1.576   4.849  1.6518 -1.9070  2.3964
18077SOL     OW64544   3.478  12.504  10.792 -0.2913 -0.1152  0.1381
18077SOL    HW164545   3.415  12.439  10.821 -1.0499  1.5917  2.6587
18077SOL    HW264546   3.555  12.491  10.848  0.2986 -0.0350 -0.6276
18078SOL     OW64547  10.564  10.991   0.752  0.0941  0.5783 -0.0932
18078SOL    HW164548  10.530  11.027   0.834 -0.2545 -2.1068  1.0520
18078SOL    HW264549  10.644  10.946   0.778  0.1406 -0.0555 -1.2941
18079SOL     OW64550  10.623   0.678   4.551 -0.0047 -0.5181  0.5535
18079SOL    HW164551  10.530   0.680   4.571 -0.3625 -2.2445 -0.7021
18079SOL    HW264552  10.649   0.770   4.548 -1.2436 -0.0317  2.6183
18080SOL     OW64553   2.873  12.476   2.091  1.1139 -0.1543 -0.3500
18080SOL    HW164554   2.935  12.548   2.101 -0.8751  1.4820  1.2147
18080SOL    HW264555   2.906  12.406   2.147  0.6748  1.3955  2.0039
18081SOL     OW64556   4.884   7.180   2.339 -0.3696 -0.2877 -0.4844
18081SOL    HW164557   4.858   7.251   2.280 -1.0783  1.5968  1.9276
18081SOL    HW264558   4.940   7.223   2.404  1.1356 -2.4692 -0.2333
18082SOL     OW64559  10.812   4.394  11.936 -0.1512 -0.0496  0.1128
18082SOL    HW164560  10.824   4.303  11.911  0.5393 -0.1219  0.6608
18082SOL    HW264561  10.901   4.427  11.949 -0.3606  0.9418 -0.8895
18083SOL     OW64562   9.593   8.145  10.971  0.1207  0.2398 -0.1561
18083SOL    HW164563   9.545   8.082  11.025  2.4653 -1.7812 -0.2341
18083SOL    HW264564   9.528   8.176  10.907 -1.0273 -2.6859 -0.5780
18084SOL     OW64565  11.567   7.150  10.217  0.3003  0.0972 -0.6948
18084SOL    HW164566  11.514   7.071  10.218  0.1700  0.1867 -0.1348
18084SOL    HW264567  11.649   7.123  10.259 -0.2956  0.6221  0.8824
18085SOL     OW64568  10.201   9.716   9.844  0.5889  0.3227  0.3718
18085SOL    HW164569  10.185   9.803   9.807  0.2439 -0.6754 -2.0376
18085SOL    HW264570  10.136   9.708   9.915 -0.8081  1.2715 -0.7369
18086SOL     OW64571   9.148   6.120   4.485 -0.3065 -0.2024 -0.3088
18086SOL    HW164572   9.165   6.142   4.394 -1.1865 -0.1510 -0.4708
18086SOL    HW264573   9.067   6.166   4.506 -1.2632 -1.8844 -0.1466
18087SOL     OW64574  12.455  11.565   5.389 -0.2342 -0.0675  0.0522
18087SOL    HW164575  12.422  11.480   5.419 -0.0690  0.4848  1.8911
18087SOL    HW264576  12.382  11.625   5.405  0.8504  0.7752  2.1756
18088SOL     OW64577   4.338   6.612   5.217  0.4372 -0.0298 -0.2515
18088SOL    HW164578   4.253   6.641   5.250  0.9602  0.0246  1.0999
18088SOL    HW264579   4.392   6.692   5.218  0.6118 -0.1406 -0.7486
18089SOL     OW64580   2.295   6.817  10.194  0.4227  0.2123 -0.5461
18089SOL    HW164581   2.316   6.911  10.189  2.9545 -0.3377 -3.9703
18089SOL    HW264582   2.305   6.786  10.104 -0.5827 -3.3582  0.4293
18090SOL     OW64583   9.988  12.209   4.630  0.0337  0.2858  0.2949
18090SOL    HW164584  10.060  12.263   4.598 -0.2855 -0.6822 -2.2994
18090SOL    HW264585  10.031  12.134   4.672  0.4889  0.7029  0.5931
18091SOL     OW64586   7.417   1.968   3.112 -0.4371  0.2873 -0.2455
18091SOL    HW164587   7.380   1.884   3.087 -0.0971 -0.3083  1.1548
18091SOL    HW264588   7.511   1.961   3.092 -0.1043 -0.3106  1.3805
18092SOL     OW64589  12.330   9.815   4.855  0.4001  0.2094 -0.8862
18092SOL    HW164590  12.286   9.891   4.893 -0.4344 -0.9479  0.5713
18092SOL    HW264591  12.269   9.783   4.789  0.3727  0.3275 -0.9184
18093SOL     OW64592   0.467  10.522   3.233  0.2591  0.2531  0.2525
18093SOL    HW164593   0.379  10.520   3.271 -0.4567  0.9823 -1.2365
18093SOL    HW264594   0.486  10.616   3.222  0.0562  0.0944 -1.8718
18094SOL     OW64595  10.153   8.736   1.977  0.2812  0.1909  0.1718
18094SOL    HW164596  10.103   8.772   2.050  0.3354  1.8360 -0.5500
18094SOL    HW264597  10.088   8.724   1.907  0.7961  2.3735 -0.7820
18095SOL     OW64598   9.633   9.139   1.836 -0.1427  0.3226  0.3157
18095SOL    HW164599   9.722   9.113   1.861 -0.1864 -2.5783 -1.9806
18095SOL    HW264600   9.643   9.180   1.750 -0.9368  1.1018  0.5789
18096SOL     OW64601   3.484   1.182   1.818 -0.4012  0.1848 -0.0302
18096SOL    HW164602   3.434   1.192   1.736 -1.4216  1.0749  0.6577
18096SOL    HW264603   3.427   1.222   1.884  0.5528 -0.2332  1.0577
18097SOL     OW64604   5.545  12.597   3.904 -0.1734 -0.1106  0.1503
18097SOL    HW164605   5.570  12.506   3.923  0.9941 -0.1003 -1.1990
18097SOL    HW264606   5.449  12.596   3.906 -0.1692 -1.1666  1.0268
18098SOL     OW64607   0.146  10.679   1.225  0.0387 -0.4253  0.2383
18098SOL    HW164608   0.198  10.606   1.257  0.7913  0.7816  1.9251
18098SOL    HW264609   0.056  10.648   1.229  0.3546 -1.3163  0.7837
18099SOL     OW64610   7.790   0.761   1.611  1.0100  0.5419 -0.3429
18099SOL    HW164611   7.706   0.719   1.597  2.2804 -2.0395 -0.8408
18099SOL    HW264612   7.804   0.757   1.705  1.3281 -0.6737 -0.4278
18100SOL     OW64613   4.098   1.057  10.217  0.4286 -0.4620  0.1978
18100SOL    HW164614   4.191   1.035  10.206  0.2684 -0.5730 -1.0962
18100SOL    HW264615   4.068   0.999  10.287  1.1282 -1.0243  0.0429
18101SOL     OW64616   3.208   4.194   1.115 -0.2533 -0.0845 -0.1166
18101SOL    HW164617   3.215   4.129   1.184 -0.2815  0.0747  0.0370
18101SOL    HW264618   3.115   4.194   1.091 -1.1890  2.8657  2.7999
18102SOL     OW64619   9.556   1.499  11.848 -0.1072  0.2607 -0.2698
18102SOL    HW164620   9.529   1.480  11.758 -0.1613 -2.6792  0.2446
18102SOL    HW264621   9.496   1.447  11.902  0.2769  1.5308  1.4528
18103SOL     OW64622  12.367  10.746   3.441 -0.4104  0.2679  0.0318
18103SOL    HW164623  12.457  10.756   3.470  0.4502  1.9490 -2.7596
18103SOL    HW264624  12.317  10.809   3.493  0.1880 -0.0012  0.9442
18104SOL     OW64625   8.373   6.225   8.428 -0.4796 -0.0249 -0.2518
18104SOL    HW164626   8.378   6.162   8.356 -0.7676 -0.9199  0.4914
18104SOL    HW264627   8.314   6.294   8.395 -0.9597 -0.6420 -0.7033
18105SOL     OW64628  10.318   3.369   2.743  0.1555 -0.3826  0.5248
18105SOL    HW164629  10.309   3.461   2.716 -2.1585 -0.7231 -0.0126
18105SOL    HW264630  10.389   3.335   2.690  1.6068  1.2698  1.2881
18106SOL     OW64631   0.325   4.649   3.434 -0.4720  0.6514  0.1542
18106SOL    HW164632   0.359   4.560   3.443  1.1494  1.0827 -1.1744
18106SOL    HW264633   0.285   4.668   3.519 -0.3272 -1.1085  0.6669
18107SOL     OW64634  10.943   9.054  11.223  0.6384 -0.1026  0.4058
18107SOL    HW164635  10.859   9.049  11.268  0.6362  2.2465  0.8119
18107SOL    HW264636  11.008   9.058  11.293  1.1044 -1.7141  0.0979
18108SOL     OW64637   7.531   6.864   5.223 -0.4665  0.7574  0.0891
18108SOL    HW164638   7.535   6.799   5.293  1.6847  1.0062  0.2621
18108SOL    HW264639   7.577   6.822   5.149 -2.8927  0.3976 -1.3286
18109SOL     OW64640   2.705   2.462   5.274  0.5036 -0.0068 -0.0492
18109SOL    HW164641   2.725   2.554   5.289 -0.0486  0.2780 -0.9926
18109SOL    HW264642   2.720   2.420   5.359  1.7493  0.7585  0.1297
18110SOL     OW64643   9.214   2.355  11.975 -0.5354 -0.0479  0.6893
18110SOL    HW164644   9.214   2.304  11.894  1.1515  0.6636  0.2075
18110SOL    HW264645   9.123   2.352  12.005 -0.5094 -3.6108  0.9085
18111SOL     OW64646  10.148  10.865   9.422 -0.4454 -0.6483  0.0592
18111SOL    HW164647  10.066  10.816   9.416 -0.7099 -0.0772 -1.8916
18111SOL    HW264648  10.216  10.798   9.415 -0.7364 -1.0586  1.0025
18112SOL     OW64649   9.561   5.220   1.301 -0.3222 -0.4316  0.2721
18112SOL    HW164650   9.499   5.181   1.240 -0.5954 -0.6246  0.6658
18112SOL    HW264651   9.557   5.164   1.379 -0.4926  0.1941  0.7239
18113SOL     OW64652  12.615   3.920   2.723  0.2088 -0.6240  0.0327
18113SOL    HW164653  12.585   3.973   2.796  1.2787 -0.3036  0.2607
18113SOL    HW264654  12.614   3.980   2.648 -1.9673 -1.2446 -0.5006
18114SOL     OW64655  12.615  11.455   4.895  0.5129  0.1845  0.2705
18114SOL    HW164656  12.605  11.547   4.918 -0.5410 -0.1047  1.0277
18114SOL    HW264657  12.612  11.454   4.799 -1.0663  0.7750  0.2871
18115SOL     OW64658  12.781  11.344   1.099  0.0725 -0.0573  0.4557
18115SOL    HW164659  12.861  11.295   1.078 -0.8428 -0.9586 -1.1371
18115SOL    HW264660  12.801  11.434   1.075  0.5373 -0.3202 -0.1714
18116SOL     OW64661   9.760   0.144   9.809 -0.2987 -0.3008  0.3143
18116SOL    HW164662   9.733   0.146   9.718  0.0240  2.6473  0.1844
18116SOL    HW264663   9.838   0.089   9.810  0.3471  0.5061 -1.4279
18117SOL     OW64664   2.162   6.879  12.390  0.2634  0.0732  0.6681
18117SOL    HW164665   2.213   6.841  12.318  0.1220 -1.1819  1.1913
18117SOL    HW264666   2.073   6.886  12.356  0.2479 -0.2875  0.6278
18118SOL     OW64667   6.033   6.897   7.294 -0.3208  0.4047  0.8401
18118SOL    HW164668   6.127   6.907   7.279 -0.7914  0.5516 -3.1052
18118SOL    HW264669   6.022   6.808   7.327  1.1161 -0.1792 -0.1861
18119SOL     OW64670   2.423   7.721  11.896  0.0075 -0.3422 -0.6625
18119SOL    HW164671   2.422   7.635  11.853 -0.2536 -1.2980  1.1376
18119SOL    HW264672   2.333   7.734  11.926  0.0975  0.4672 -0.7198
18120SOL     OW64673   6.385   6.155   3.479  0.1406  0.6032 -0.4686
18120SOL    HW164674   6.303   6.113   3.455 -0.1333  0.7826  0.1428
18120SOL    HW264675   6.398   6.131   3.571  1.0958  0.0504 -0.7309
18121SOL     OW64676  11.812   0.920   0.512 -0.0141  0.0391  0.2523
18121SOL    HW164677  11.855   0.889   0.432 -0.8344  0.5432 -0.4037
18121SOL    HW264678  11.802   1.014   0.499 -0.2869  0.1002  0.8843
18122SOL     OW64679   4.726   0.174  12.561 -0.0155  0.4590  0.5882
18122SOL    HW164680   4.815   0.162  12.595  0.2099 -0.9524 -0.4344
18122SOL    HW264681   4.670   0.137  12.629  0.2982 -0.3834  0.3962
18123SOL     OW64682   1.596  10.389  11.578 -0.0520 -0.1186 -0.5100
18123SOL    HW164683   1.623  10.297  11.567  1.4115  0.2292 -0.0031
18123SOL    HW264684   1.590  10.422  11.489 -0.8078 -0.7569 -0.7099
18124SOL     OW64685   3.248   4.908   5.814 -0.4464 -0.0597  0.5754
18124SOL    HW164686   3.241   4.981   5.753 -0.4138 -0.9340 -0.5171
18124SOL    HW264687   3.340   4.908   5.842  0.1058 -0.9199 -1.0797
18125SOL     OW64688   6.203  12.307   3.013  0.4924 -0.2395 -0.5588
18125SOL    HW164689   6.298  12.310   3.026  0.5535  0.6313 -1.1135
18125SOL    HW264690   6.167  12.358   3.085  0.6095  1.3886 -1.5829
18126SOL     OW64691   3.451   9.471   4.494 -0.0981  0.4034 -0.1367
18126SOL    HW164692   3.469   9.541   4.430 -2.0773  0.6952 -0.4365
18126SOL    HW264693   3.536   9.428   4.506  0.9403  2.1344 -0.8010
18127SOL     OW64694   8.268   1.876   4.412  0.1723  0.0409  0.2221
18127SOL    HW164695   8.238   1.803   4.466  1.0832  0.0649  0.7989
18127SOL    HW264696   8.362   1.862   4.403 -0.1263 -0.7474 -2.6109
18128SOL     OW64697   5.569   2.443   0.136  0.3223 -0.0339  0.0000
18128SOL    HW164698   5.618   2.484   0.065 -0.2115  1.8126  0.6312
18128SOL    HW264699   5.633   2.390   0.183  1.1252  0.3440 -0.6596
18129SOL     OW64700   4.579   0.866  11.306  0.0503  0.0900 -0.4500
18129SOL    HW164701   4.583   0.804  11.379  0.2576 -0.7513 -1.1640
18129SOL    HW264702   4.667   0.904  11.301  0.0617  0.0803 -0.3296
18130SOL     OW64703   6.243   6.209   4.298  0.3436 -0.8349 -0.2298
18130SOL    HW164704   6.337   6.207   4.315  0.5407  0.5644 -0.9723
18130SOL    HW264705   6.213   6.120   4.316  1.7671 -1.2520  0.2116
18131SOL     OW64706   2.093   9.587   9.770 -0.0756  0.1528  0.0103
18131SOL    HW164707   2.067   9.600   9.679  1.0400  0.0146 -0.3455
18131SOL    HW264708   2.188   9.570   9.766 -0.0647 -0.1687  1.1632
18132SOL     OW64709   6.188   8.421   5.694  0.4276  0.5126  0.3563
18132SOL    HW164710   6.273   8.437   5.735  1.5882 -2.7292 -0.4497
18132SOL    HW264711   6.178   8.493   5.632  1.5804  2.0741  1.8805
18133SOL     OW64712  11.991   9.699   5.561  0.4900 -0.1890  0.2686
18133SOL    HW164713  11.924   9.669   5.500  1.2331  0.2656 -0.7896
18133SOL    HW264714  11.988   9.635   5.633 -1.1801 -0.0667  0.3348
18134SOL     OW64715   4.148  10.143  11.022  0.0733 -0.0618  0.4775
18134SOL    HW164716   4.095  10.139  10.942 -1.2144  0.0055  1.2846
18134SOL    HW264717   4.234  10.112  10.996 -0.3283 -0.0660 -0.9291
18135SOL     OW64718   5.354  12.878   5.717  0.4424 -0.4364 -0.4474
18135SOL    HW164719   5.295  12.858   5.644 -0.6393  0.8401  0.0409
18135SOL    HW264720   5.405  12.952   5.687 -0.0137  0.1016  0.0752
18136SOL     OW64721  11.810   1.437   6.308 -0.0947 -0.1816  0.6976
18136SOL    HW164722  11.826   1.496   6.235 -0.2310 -0.4708  0.4316
18136SOL    HW264723  11.764   1.490   6.373  0.6834  0.2770  0.8856
18137SOL     OW64724   4.368   8.576  12.507 -0.2870 -0.6468 -0.5269
18137SOL    HW164725   4.458   8.547  12.521 -0.4426 -0.9573 -0.1761
18137SOL    HW264726   4.332   8.514  12.444  0.5558  1.0090 -2.7974
18138SOL     OW64727   9.035   7.905  12.443 -0.3122  0.4204  0.8279
18138SOL    HW164728   8.950   7.871  12.470 -0.1251  0.2668  1.2355
18138SOL    HW264729   9.085   7.828  12.416 -0.0446  0.4207  1.3143
18139SOL     OW64730  10.375   2.762  10.673 -0.2816  0.6814 -0.5535
18139SOL    HW164731  10.376   2.828  10.605  1.7814  1.9160  0.5697
18139SOL    HW264732  10.466   2.755  10.702 -1.0007 -0.0300  1.8155
18140SOL     OW64733   5.571  11.273   7.791 -0.3937 -0.5375  0.2231
18140SOL    HW164734   5.605  11.184   7.783  0.9338  0.0732 -1.7467
18140SOL    HW264735   5.584  11.312   7.704 -1.9687  1.2361  0.7012
18141SOL     OW64736   3.883   1.796   9.601 -0.6458  0.1533 -0.0174
18141SOL    HW164737   3.908   1.789   9.509 -1.9673 -0.4610 -0.3623
18141SOL    HW264738   3.882   1.890   9.619 -1.9413  0.3845 -1.1121
18142SOL     OW64739   1.877   9.540   6.771  0.2405  0.8676 -0.1312
18142SOL    HW164740   1.887   9.635   6.768 -2.4404  1.2459 -0.2363
18142SOL    HW264741   1.914   9.514   6.856 -2.8813  2.7274  2.0168
18143SOL     OW64742   5.106   1.189  12.490  0.1964 -0.0563 -0.0816
18143SOL    HW164743   5.115   1.160  12.399  1.3842  1.3782 -0.4742
18143SOL    HW264744   5.115   1.284  12.485 -0.9493  0.1545  1.4140
18144SOL     OW64745  10.734   1.267   8.173  0.3460 -0.0147 -0.3084
18144SOL    HW164746  10.747   1.310   8.258  0.1705  0.5752 -0.5749
18144SOL    HW264747  10.814   1.217   8.158 -0.0126 -0.9352  0.6628
18145SOL     OW64748   3.272   1.405  12.463  1.1090  0.2219 -0.0313
18145SOL    HW164749   3.296   1.492  12.496  2.0851 -0.0867  0.1072
18145SOL    HW264750   3.186   1.387  12.502  1.3283  0.7241  0.7003
18146SOL     OW64751   9.788  10.388  11.374 -0.0949 -0.0685 -0.3658
18146SOL    HW164752   9.741  10.327  11.317  0.6407 -1.0388  0.0223
18146SOL    HW264753   9.721  10.425  11.431 -0.7524  0.4807 -1.4619
18147SOL     OW64754   7.410   4.509   5.521  0.3044 -0.0285  0.2391
18147SOL    HW164755   7.324   4.529   5.485  1.3757  4.3367 -0.4634
18147SOL    HW264756   7.393   4.478   5.610 -2.0071  2.1407  0.6414
18148SOL     OW64757   3.432   9.992   3.196 -0.1377  0.2044 -0.1616
18148SOL    HW164758   3.483  10.068   3.170  0.1023  0.5854  1.3256
18148SOL    HW264759   3.342  10.016   3.176 -0.1633  1.2569  1.0710
18149SOL     OW64760   2.933  11.385   1.644  0.0667 -0.1974 -0.2378
18149SOL    HW164761   2.997  11.430   1.700  0.4736 -0.3038 -0.6132
18149SOL    HW264762   2.945  11.424   1.558 -0.1037 -0.4968 -0.3971
18150SOL     OW64763   7.248  12.487   9.255  0.1301 -0.0253  0.1334
18150SOL    HW164764   7.298  12.561   9.290  0.1178  0.3506 -0.6292
18150SOL    HW264765   7.159  12.500   9.289  0.1173  0.3418 -0.0348
18151SOL     OW64766   5.306   9.886  12.772  0.4695 -0.0306  0.0695
18151SOL    HW164767   5.314   9.917  12.862 -1.9516 -0.7472  0.5778
18151SOL    HW264768   5.327   9.792  12.777 -1.4864 -0.4908  0.2731
18152SOL     OW64769   6.501   5.698   7.954 -0.3021  0.5157  0.1762
18152SOL    HW164770   6.518   5.619   7.902  1.4971  1.3963 -0.6916
18152SOL    HW264771   6.407   5.711   7.948 -0.3593 -0.3470 -1.5553
18153SOL     OW64772   3.869  12.711   3.772  0.1392  0.0028 -0.3073
18153SOL    HW164773   3.794  12.656   3.749 -0.2839  0.5575 -0.2741
18153SOL    HW264774   3.838  12.765   3.845 -0.0258  1.4905 -1.4275
18154SOL     OW64775  11.618   5.686   4.097 -0.0218 -0.4393 -0.5894
18154SOL    HW164776  11.645   5.724   4.013  1.3683  1.3998  0.6147
18154SOL    HW264777  11.656   5.598   4.095 -0.1051 -0.4740 -1.9284
18155SOL     OW64778   4.738  12.518  10.293 -0.0020 -0.0214 -0.6386
18155SOL    HW164779   4.741  12.424  10.277 -2.5150 -0.4692  0.9881
18155SOL    HW264780   4.710  12.556  10.209 -0.0374 -0.8287 -0.9944
18156SOL     OW64781   2.038  12.871   4.369 -0.1700  0.3436  0.1339
18156SOL    HW164782   2.060  12.803   4.305  0.0240 -0.3412  0.9153
18156SOL    HW264783   1.988  12.935   4.319 -0.7469 -0.5943 -0.5348
18157SOL     OW64784   6.133   9.506  11.309 -0.3065  0.0723  0.0513
18157SOL    HW164785   6.119   9.598  11.287  3.9444  0.7622 -0.6502
18157SOL    HW264786   6.224   9.489  11.283 -0.1870 -3.7154  2.2503
18158SOL     OW64787   0.647   5.806   4.184 -0.1282 -0.2521 -0.3094
18158SOL    HW164788   0.621   5.891   4.218  0.6859 -0.9144  2.1785
18158SOL    HW264789   0.582   5.745   4.220  0.9570 -1.0266  0.4029
18159SOL     OW64790   0.785   0.744   8.498  0.0745  0.5702 -0.5129
18159SOL    HW164791   0.849   0.815   8.506  0.3484  0.2983 -0.2609
18159SOL    HW264792   0.810   0.699   8.416  2.1163 -1.3757  1.0447
18160SOL     OW64793   8.996   1.827   6.115  0.0479 -0.1471 -0.0424
18160SOL    HW164794   9.052   1.830   6.038 -0.4494  0.4628 -0.3869
18160SOL    HW264795   8.914   1.789   6.083  0.8601 -2.8530  0.8528
18161SOL     OW64796   2.184   3.156   2.329  0.0261 -0.3855 -0.2765
18161SOL    HW164797   2.091   3.165   2.351  0.4637  1.9775  0.8761
18161SOL    HW264798   2.220   3.244   2.338  2.1296 -0.9703 -2.0437
18162SOL     OW64799   0.269  10.720   9.127  0.1335  0.7504  0.0363
18162SOL    HW164800   0.247  10.652   9.062  0.4210 -0.3156  1.0158
18162SOL    HW264801   0.184  10.749   9.160  0.0341  0.1752  0.2940
18163SOL     OW64802   6.445  10.838   7.327  0.9372 -0.8781  0.0889
18163SOL    HW164803   6.504  10.873   7.394 -1.3880  1.2977  1.1713
18163SOL    HW264804   6.399  10.766   7.370  0.8227 -0.7457  0.1885
18164SOL     OW64805   9.765   5.608   5.422 -0.1593  0.1991 -0.1425
18164SOL    HW164806   9.706   5.563   5.483  1.0511 -2.6925 -0.9056
18164SOL    HW264807   9.715   5.616   5.342  0.7307 -3.8581 -1.3756
18165SOL     OW64808   3.510  11.052   2.631  0.0821  0.0104 -0.2336
18165SOL    HW164809   3.463  11.125   2.671 -0.4741 -0.4693  0.0009
18165SOL    HW264810   3.443  10.985   2.618  0.4698 -0.2305 -1.0067
18166SOL     OW64811  12.191  11.580   2.915 -0.0118 -0.0598 -0.1505
18166SOL    HW164812  12.240  11.573   2.997 -1.2003 -1.0869  0.5021
18166SOL    HW264813  12.221  11.662   2.876  1.9189 -0.4477  0.4104
18167SOL     OW64814   7.099   1.558   1.734 -0.1522 -0.0281 -0.5736
18167SOL    HW164815   7.122   1.650   1.749  0.0898 -0.1762  0.0240
18167SOL    HW264816   7.114   1.516   1.819 -0.0304 -0.6676 -0.9023
18168SOL     OW64817   9.811   8.936   1.316  0.5121  0.2045 -0.2391
18168SOL    HW164818   9.823   8.915   1.409 -1.5722 -1.2472 -0.2281
18168SOL    HW264819   9.748   9.009   1.316 -0.1608 -0.3646 -0.5020
18169SOL     OW64820  10.188   2.105   3.119 -0.1645  0.8188  0.2475
18169SOL    HW164821  10.171   2.055   3.039 -1.5991  0.0455  0.9890
18169SOL    HW264822  10.194   2.196   3.091  0.3581  0.4520 -0.8573
18170SOL     OW64823   7.886  12.924   9.061  0.0366 -0.4744  0.3672
18170SOL    HW164824   7.807  12.973   9.085 -0.3837 -0.2357 -1.3501
18170SOL    HW264825   7.958  12.983   9.084 -0.5018  2.1862 -3.7615
18171SOL     OW64826   5.008   0.291  11.005  0.1182 -0.0818  0.2860
18171SOL    HW164827   4.913   0.298  10.997  0.0565  0.6924  1.4912
18171SOL    HW264828   5.025   0.196  11.007 -0.5703 -0.2276 -0.4247
18172SOL     OW64829   7.934  11.566   4.474 -0.1793  0.4984  0.1839
18172SOL    HW164830   7.875  11.630   4.433 -0.9119 -0.6477 -0.6077
18172SOL    HW264831   7.941  11.495   4.410  1.0208  0.0014  0.8299
18173SOL     OW64832   8.752  11.356   1.459  0.1197 -0.5392  0.0378
18173SOL    HW164833   8.670  11.396   1.486  0.8875  1.8346 -0.8428
18173SOL    HW264834   8.727  11.271   1.423 -2.2336  0.8213 -1.8418
18174SOL     OW64835   2.389   9.917   9.480 -0.0563  0.4273  0.0072
18174SOL    HW164836   2.446   9.847   9.449 -0.1951  0.2743  0.0911
18174SOL    HW264837   2.380   9.901   9.574  1.7076  1.8615  0.4608
18175SOL     OW64838   4.538   1.909   8.704  0.0365  0.3335 -0.0798
18175SOL    HW164839   4.519   1.938   8.793 -1.0338  1.6886 -0.7062
18175SOL    HW264840   4.571   1.987   8.659 -0.0707 -0.1493 -1.0370
18176SOL     OW64841  12.925   0.605   1.256 -0.4515  0.1310 -0.2701
18176SOL    HW164842  12.972   0.688   1.262  0.0165 -0.0551 -1.1254
18176SOL    HW264843  12.909   0.579   1.347 -0.2517  0.9537  0.0077
18177SOL     OW64844   2.568  11.961   0.564 -0.7605 -0.1967 -0.2696
18177SOL    HW164845   2.564  11.866   0.578  0.7398 -0.2090  0.2214
18177SOL    HW264846   2.484  11.982   0.523 -1.4421 -1.6110  0.3123
18178SOL     OW64847   1.573  11.077   1.737  0.3642 -0.0649 -0.2902
18178SOL    HW164848   1.573  10.982   1.752 -3.1106 -0.1177  0.3227
18178SOL    HW264849   1.604  11.114   1.820  1.0471 -0.6440 -0.2786
18179SOL     OW64850   5.882  11.847  12.888 -0.4736  0.0507  0.3373
18179SOL    HW164851   5.902  11.913  12.822 -1.3776  2.2828  2.1572
18179SOL    HW264852   5.961  11.792  12.892  1.2344  2.3234  0.1987
18180SOL     OW64853   4.459   9.510   3.875  0.2814 -0.2868  0.2937
18180SOL    HW164854   4.548   9.539   3.855 -0.5214  2.3329  0.1463
18180SOL    HW264855   4.428   9.572   3.941 -1.8201 -0.4187 -0.4976
18181SOL     OW64856   3.909  12.331   0.001 -0.2931 -0.3731  0.3259
18181SOL    HW164857   3.871  12.273  -0.065  0.3231  0.2961 -0.6425
18181SOL    HW264858   3.837  12.389   0.025 -0.4853 -0.5280  0.1313
18182SOL     OW64859  11.079   5.813   7.408  0.0888 -0.0317  0.1943
18182SOL    HW164860  11.033   5.846   7.485 -3.2210 -1.9745 -0.7452
18182SOL    HW264861  11.010   5.799   7.343  2.1369 -2.2822 -1.7111
18183SOL     OW64862   0.243   8.578   1.398  0.3044 -0.4141 -0.3034
18183SOL    HW164863   0.320   8.520   1.400  0.2277 -0.4957  0.7271
18183SOL    HW264864   0.279   8.666   1.411  0.2327 -0.4537  0.1938
18184SOL     OW64865   6.504   5.553   2.616  0.3468 -0.6762  0.2898
18184SOL    HW164866   6.469   5.506   2.693  1.7643 -2.5442 -0.1373
18184SOL    HW264867   6.449   5.631   2.610  1.0734  0.3686  4.0804
18185SOL     OW64868   7.380   3.878   3.448 -0.5834 -0.2210 -0.4252
18185SOL    HW164869   7.382   3.848   3.357 -0.8820  0.5726 -0.6999
18185SOL    HW264870   7.473   3.893   3.470 -0.1404 -3.5896  0.5193
18186SOL     OW64871   3.282   9.394   9.639 -0.1737 -0.2630  0.9028
18186SOL    HW164872   3.214   9.331   9.613 -1.5321  0.5738  2.2755
18186SOL    HW264873   3.330   9.350   9.709  0.3548 -0.6303  0.3212
18187SOL     OW64874   1.287   2.324   8.504 -0.1767 -0.3103 -0.5478
18187SOL    HW164875   1.340   2.402   8.520 -1.1624  0.4014 -0.6683
18187SOL    HW264876   1.257   2.297   8.590 -1.3278  0.5279 -0.6757
18188SOL     OW64877   5.862   8.866   8.680 -0.0062 -0.4922  0.2969
18188SOL    HW164878   5.774   8.872   8.644  0.2293 -1.6777 -0.5129
18188SOL    HW264879   5.889   8.776   8.664  1.1987 -0.2615  0.9106
18189SOL     OW64880   9.907   8.900   8.325  0.0383 -0.0671 -0.1050
18189SOL    HW164881   9.963   8.832   8.289  1.3358  1.1886 -0.5572
18189SOL    HW264882   9.821   8.884   8.286  0.1261 -1.8298  0.3409
18190SOL     OW64883   2.260   0.271   5.234 -0.3286 -0.6722 -0.3425
18190SOL    HW164884   2.250   0.367   5.235 -0.8683 -0.7020 -1.2360
18190SOL    HW264885   2.178   0.240   5.195 -0.4843 -1.5531  0.6660
18191SOL     OW64886   9.067   6.566   4.296 -0.2067  0.6871 -0.8510
18191SOL    HW164887   9.026   6.515   4.226 -1.3542  1.1690 -0.5687
18191SOL    HW264888   9.151   6.595   4.260  0.6470 -1.6729 -0.8897
18192SOL     OW64889  12.450   2.956   1.923  0.1888 -0.1273 -0.6656
18192SOL    HW164890  12.541   2.986   1.923  0.5848 -0.9407  2.9892
18192SOL    HW264891  12.456   2.862   1.908 -0.0445 -0.2034 -0.2698
18193SOL     OW64892  11.960   3.099   6.870 -0.8318  0.0378  0.2257
18193SOL    HW164893  12.046   3.140   6.874 -0.6566 -0.3906  1.4698
18193SOL    HW264894  11.901   3.161   6.913 -1.3386  0.7120 -1.3612
18194SOL     OW64895   7.384   7.664   6.059  0.0751 -0.2625 -0.1060
18194SOL    HW164896   7.333   7.744   6.046 -1.4055 -0.8330  1.6460
18194SOL    HW264897   7.389   7.654   6.154  2.8431 -0.6931 -0.2188
18195SOL     OW64898   1.952   5.718  10.063 -0.2013  0.3267  0.1903
18195SOL    HW164899   2.023   5.769  10.025 -0.1401  1.6434  1.9957
18195SOL    HW264900   1.994   5.665  10.130 -0.5055 -1.0859 -0.6795
18196SOL     OW64901   5.849   9.074   2.601  0.1393  0.7974  0.1535
18196SOL    HW164902   5.935   9.045   2.572 -0.4442 -0.0059 -0.8644
18196SOL    HW264903   5.787   9.026   2.545 -1.0323  0.2094  1.8555
18197SOL     OW64904   4.718  12.534   4.479  0.0443  0.2817  0.0454
18197SOL    HW164905   4.812  12.538   4.460  0.2303  0.5435  0.9607
18197SOL    HW264906   4.709  12.573   4.566 -0.7897 -0.5760  0.3727
18198SOL     OW64907   5.658   7.523   6.786 -0.3744  0.5302  0.0806
18198SOL    HW164908   5.717   7.542   6.859 -1.4871 -0.5265  1.2940
18198SOL    HW264909   5.573   7.555   6.815 -1.1928 -1.4380 -0.0072
18199SOL     OW64910  10.492   2.759   7.404  0.6441  0.5053  0.4454
18199SOL    HW164911  10.564   2.813   7.435  0.1085  1.7340 -0.3628
18199SOL    HW264912  10.526   2.716   7.325  0.9101  0.0459  0.8083
18200SOL     OW64913   4.469   3.770   7.409  0.2584 -0.2192 -0.7760
18200SOL    HW164914   4.437   3.681   7.397 -0.6945  0.0672 -0.4821
18200SOL    HW264915   4.436   3.796   7.495  2.9327 -0.5709  0.4831
18201SOL     OW64916   3.061   0.759  10.743  0.0938 -0.3725 -0.1945
18201SOL    HW164917   3.032   0.747  10.833 -0.1397 -1.7357 -0.4284
18201SOL    HW264918   3.142   0.809  10.751 -1.2749  1.8377  0.5838
18202SOL     OW64919   6.841   1.041  10.421  0.1398 -0.0654  0.4494
18202SOL    HW164920   6.874   1.065  10.508 -2.6758 -0.6067  1.8053
18202SOL    HW264921   6.862   0.948  10.413  0.5160  0.0138  0.4974
18203SOL     OW64922   6.755   9.141   7.270  0.3126 -0.3009 -0.4388
18203SOL    HW164923   6.679   9.135   7.328  0.3065  2.4762 -0.0175
18203SOL    HW264924   6.747   9.227   7.229  2.9641 -0.1266 -0.7551
18204SOL     OW64925  10.372   7.444   7.792  0.2945  0.3083  0.0764
18204SOL    HW164926  10.403   7.391   7.718  2.4173  0.8966  0.4809
18204SOL    HW264927  10.295   7.489   7.758  0.1091 -0.8734 -1.1658
18205SOL     OW64928  10.693  12.471   9.830 -0.3439  0.4842  0.2159
18205SOL    HW164929  10.772  12.502   9.786  0.0972  0.7326  1.1513
18205SOL    HW264930  10.632  12.452   9.759  0.8518 -0.5564 -0.5752
18206SOL     OW64931   6.456  11.663   6.867 -0.4100  0.3321  0.1593
18206SOL    HW164932   6.396  11.710   6.810 -0.8431 -0.6137 -0.1928
18206SOL    HW264933   6.498  11.599   6.809 -0.6654 -0.4704  0.8451
18207SOL     OW64934  10.493   9.716  11.129  0.7803  0.1775 -0.3015
18207SOL    HW164935  10.572   9.725  11.182 -0.1635 -1.5626  1.5801
18207SOL    HW264936  10.517   9.656  11.059  1.0287 -0.8639  0.6325
18208SOL     OW64937  10.782   0.368  10.166  0.6008  0.4864  0.3824
18208SOL    HW164938  10.689   0.381  10.147  0.2650  1.7217  2.5184
18208SOL    HW264939  10.827   0.426  10.105 -0.1200  0.8737  0.2062
18209SOL     OW64940   7.706   8.872   8.949 -0.5567 -0.1923  0.4571
18209SOL    HW164941   7.730   8.815   8.876 -0.5200 -1.2941  1.2993
18209SOL    HW264942   7.767   8.849   9.019  1.1198  2.6583  0.0594
18210SOL     OW64943  11.409   9.221   1.944 -0.4737  0.1129  0.0363
18210SOL    HW164944  11.478   9.203   1.880 -0.2867  0.0346  0.2570
18210SOL    HW264945  11.444   9.293   1.997 -0.4195 -0.1490  0.3596
18211SOL     OW64946  11.101   5.026  11.608  0.9562  0.2285  0.4071
18211SOL    HW164947  11.052   4.966  11.552 -0.9086  1.1329  0.9775
18211SOL    HW264948  11.077   5.113  11.576  1.3532  0.7121  1.3930
18212SOL     OW64949   3.252   5.377   1.092 -0.6187  0.4274 -0.5352
18212SOL    HW164950   3.315   5.365   1.021  0.0822  1.1288 -0.0436
18212SOL    HW264951   3.278   5.459   1.133 -1.6755  0.5733 -0.1342
18213SOL     OW64952   6.075   0.363   0.841 -0.2118 -0.1705 -0.1878
18213SOL    HW164953   6.151   0.305   0.840  0.0716  0.1359  1.4379
18213SOL    HW264954   6.081   0.409   0.925 -1.0219  1.4311 -0.9650
18214SOL     OW64955   1.978   7.677  10.948  0.0136 -0.2828  0.2593
18214SOL    HW164956   1.959   7.583  10.951 -0.4651 -0.1748  2.0682
18214SOL    HW264957   1.900   7.718  10.986  0.6149  0.7724  0.3980
18215SOL     OW64958   7.473  11.568   2.880 -0.0684 -0.0756  0.2437
18215SOL    HW164959   7.495  11.549   2.972 -0.3526 -0.4415  0.2370
18215SOL    HW264960   7.488  11.662   2.871 -1.1689  0.1791  0.9870
18216SOL     OW64961  10.453   1.556   5.372 -0.1529 -0.7407  0.4996
18216SOL    HW164962  10.457   1.460   5.368  0.8623 -0.6651 -0.5687
18216SOL    HW264963  10.477   1.577   5.462  2.8708 -1.3752 -0.0484
18217SOL     OW64964   0.986   4.816   6.809  0.3998  0.5057 -0.4925
18217SOL    HW164965   0.925   4.878   6.851  0.5046 -1.6778  3.3544
18217SOL    HW264966   1.068   4.828   6.857  1.4668 -0.2584 -2.0524
18218SOL     OW64967  12.894  10.430   8.887  0.1775  0.4201 -0.0817
18218SOL    HW164968  12.927  10.395   8.805  1.3455 -0.0989  0.5824
18218SOL    HW264969  12.842  10.507   8.862  2.1361  1.4545 -1.1769
18219SOL     OW64970   5.268  12.045   5.501  0.1350  0.5696  0.0145
18219SOL    HW164971   5.289  12.050   5.594 -0.9063 -0.1384  0.2961
18219SOL    HW264972   5.275  12.136   5.470 -1.6181  1.1747  1.2567
18220SOL     OW64973  12.910   5.093   8.285 -0.5840  0.6111  0.1116
18220SOL    HW164974  12.941   5.145   8.360 -0.9000 -0.1469  0.7753
18220SOL    HW264975  12.866   5.157   8.228  0.8362  1.4416 -0.1137
18221SOL     OW64976   5.983  10.629   8.038  0.0141  0.9735 -0.5354
18221SOL    HW164977   5.944  10.619   7.951 -1.6585 -0.1968  0.2894
18221SOL    HW264978   5.990  10.540   8.072 -0.5678  1.4694  1.0073
18222SOL     OW64979   2.040   3.920   5.616 -0.1707  0.6547 -0.3578
18222SOL    HW164980   1.962   3.974   5.615 -0.1278  0.7827  1.0671
18222SOL    HW264981   2.066   3.916   5.708 -0.3725 -2.0459 -0.3248
18223SOL     OW64982   4.327  12.665   4.549  0.7099 -0.0877  0.0134
18223SOL    HW164983   4.277  12.617   4.482  0.4593 -0.6311  0.5838
18223SOL    HW264984   4.277  12.744   4.565 -0.4310 -1.0118  1.1814
18224SOL     OW64985  10.747   1.009   8.291  0.1021 -0.1775 -0.2896
18224SOL    HW164986  10.721   1.071   8.223 -0.0466 -0.4392 -0.4727
18224SOL    HW264987  10.785   0.935   8.243 -1.4988 -1.0989 -0.2008
18225SOL     OW64988   6.108   1.690   0.054  0.4047 -0.5293  0.1409
18225SOL    HW164989   6.106   1.663   0.146 -0.4134  0.6704  0.5068
18225SOL    HW264990   6.121   1.609   0.005 -0.5457 -1.3894  1.2482
18226SOL     OW64991   4.907   5.898   7.898 -0.5911  0.3933  0.7771
18226SOL    HW164992   4.905   5.987   7.933  1.2253  0.7813 -0.0217
18226SOL    HW264993   4.894   5.909   7.804 -1.9335 -0.3443  0.8491
18227SOL     OW64994   4.246   6.517   9.986 -0.0691 -0.3690 -0.0728
18227SOL    HW164995   4.157   6.501  10.020 -0.4537 -1.5634 -1.5646
18227SOL    HW264996   4.248   6.611   9.968 -0.3281  0.0455  1.8436
18228SOL     OW64997   4.848  12.267   4.847 -0.2835  0.2372  0.3059
18228SOL    HW164998   4.793  12.215   4.788  0.0094  1.1555 -0.8212
18228SOL    HW264999   4.923  12.210   4.866 -0.3359 -0.0429 -0.2966
18229SOL     OW65000  12.046   9.480   4.117  0.0891  0.2941  0.3614
18229SOL    HW165001  12.022   9.404   4.065  0.9428 -0.4541  1.0364
18229SOL    HW265002  12.067   9.445   4.203  1.3339  1.1673  0.4404
18230SOL     OW65003  12.727   2.795  10.270  0.4498 -0.3624 -0.4598
18230SOL    HW165004  12.784   2.808  10.346  0.1365  0.4358 -0.3484
18230SOL    HW265005  12.781   2.744  10.209  0.1271 -2.5674  0.9545
18231SOL     OW65006   5.216  11.922   3.049 -0.6583 -0.3073  0.5169
18231SOL    HW165007   5.267  11.936   2.969  2.0825  1.8332  2.4375
18231SOL    HW265008   5.244  11.836   3.080 -1.2542 -0.8707 -0.4589
18232SOL     OW65009  10.741   2.733   8.726 -0.1768  0.0133 -0.2085
18232SOL    HW165010  10.715   2.663   8.665  0.1411  1.4432 -2.0846
18232SOL    HW265011  10.677   2.803   8.710  0.8162  0.9880  0.0174
18233SOL     OW65012  10.867   2.992  11.620 -0.0949  0.0246  0.6140
18233SOL    HW165013  10.776   3.008  11.645 -0.1700 -0.0211  0.3763
18233SOL    HW265014  10.864   2.906  11.576 -0.3107  0.9592 -1.3198
18234SOL     OW65015  10.082   1.846   1.237 -0.2508  0.5661  0.2008
18234SOL    HW165016  10.095   1.783   1.308  1.9533  1.1873  0.3907
18234SOL    HW265017  10.127   1.807   1.162 -0.5540  1.0314 -0.2333
18235SOL     OW65018   2.443  12.348   8.496  0.0882 -0.8005 -0.1502
18235SOL    HW165019   2.495  12.418   8.537 -0.9398  0.0561 -0.2702
18235SOL    HW265020   2.490  12.327   8.416 -0.5330  1.0932 -1.0857
18236SOL     OW65021  10.215   2.937  11.273  0.2011  0.0811 -0.1923
18236SOL    HW165022  10.140   2.880  11.288  0.2406  0.2711  0.7676
18236SOL    HW265023  10.292   2.882  11.290  0.2352  0.4739  0.9788
18237SOL     OW65024  12.487   4.607   4.680 -0.3063  0.2146 -0.0220
18237SOL    HW165025  12.538   4.641   4.607  0.7881  0.8370  0.9826
18237SOL    HW265026  12.552   4.591   4.749 -1.1707 -1.2218  0.5184
18238SOL     OW65027   1.928  11.833   9.331  0.0286  0.0560 -0.1704
18238SOL    HW165028   2.008  11.883   9.344  0.1305  0.2447 -1.3470
18238SOL    HW265029   1.925  11.818   9.236 -0.6995 -1.0009  0.0068
18239SOL     OW65030   2.370  10.741  11.403  0.1528 -0.3412 -0.2532
18239SOL    HW165031   2.314  10.765  11.476  0.7236  0.4607 -0.0669
18239SOL    HW265032   2.322  10.769  11.325  0.1940  0.1372 -0.1074
18240SOL     OW65033  11.068  12.447   2.107  0.5966 -0.2855 -0.0820
18240SOL    HW165034  11.055  12.406   2.193  0.0187  0.1208  0.0254
18240SOL    HW265035  11.083  12.539   2.126  0.2697 -0.1578 -0.4275
18241SOL     OW65036  11.525   4.547   2.986  0.0439  0.3604 -0.3065
18241SOL    HW165037  11.520   4.630   3.034  1.6647 -0.5644  1.6006
18241SOL    HW265038  11.552   4.573   2.898  0.3402  1.8886  0.2014
18242SOL     OW65039   8.980   7.493   8.754  0.1209  0.2762 -0.3840
18242SOL    HW165040   8.965   7.539   8.672  1.2604 -0.0499 -0.8020
18242SOL    HW265041   8.894   7.489   8.796 -0.8512 -1.0647 -2.3562
18243SOL     OW65042   7.544  12.820   5.135  0.1517 -0.3638  0.4453
18243SOL    HW165043   7.632  12.789   5.157  0.4339 -0.0678 -0.2505
18243SOL    HW265044   7.558  12.893   5.075 -0.5648 -0.1734  0.4999
18244SOL     OW65045   1.290  10.025  11.206  0.0854 -0.2085  0.3190
18244SOL    HW165046   1.304  10.012  11.112 -0.1695 -3.8061  0.6242
18244SOL    HW265047   1.373   9.998  11.246 -0.8555 -2.0082  1.1861
18245SOL     OW65048   8.471   2.150   5.228 -0.7840 -0.3787 -0.0050
18245SOL    HW165049   8.500   2.059   5.225  1.6132  0.2758  1.2098
18245SOL    HW265050   8.398   2.150   5.291  0.0991 -1.2513  1.0516
18246SOL     OW65051   2.666   6.329  10.628 -0.6652 -0.0388  0.1703
18246SOL    HW165052   2.598   6.397  10.626  0.6879  1.3523 -0.2398
18246SOL    HW265053   2.652   6.280  10.546 -1.4025 -0.0206  0.2748
18247SOL     OW65054   8.334  12.750   2.283  0.3534  0.7999 -0.3806
18247SOL    HW165055   8.336  12.695   2.361 -0.7311  1.3850  0.0787
18247SOL    HW265056   8.265  12.711   2.228  0.4372  0.9648 -0.6054
18248SOL     OW65057   8.196   9.547  11.680  0.4555 -0.5659 -0.1514
18248SOL    HW165058   8.202   9.488  11.756  2.5049 -0.6930 -0.3465
18248SOL    HW265059   8.188   9.634  11.719 -0.7621 -0.8125  0.1690
18249SOL     OW65060   5.522   9.224   0.059  0.0153 -0.0723  0.0374
18249SOL    HW165061   5.450   9.282   0.082 -0.5627 -0.5601 -0.4953
18249SOL    HW265062   5.587   9.281   0.018  0.6461  0.6461  1.9215
18250SOL     OW65063   8.637   3.986   4.163  0.0245  0.3035 -0.4354
18250SOL    HW165064   8.686   4.021   4.237  0.6693  0.1300 -0.7628
18250SOL    HW265065   8.572   3.929   4.201 -2.7814  3.6659  0.3255
18251SOL     OW65066   8.606   0.975  11.027  0.2579  0.2594 -0.4339
18251SOL    HW165067   8.639   0.886  11.035 -0.6792  0.0081  0.7969
18251SOL    HW265068   8.513   0.965  11.008  0.6975  0.9643 -3.4676
18252SOL     OW65069   0.867   4.048   4.205 -0.2486  0.1479 -0.6741
18252SOL    HW165070   0.774   4.044   4.228 -0.1531  0.3565 -0.2323
18252SOL    HW265071   0.869   4.092   4.121 -0.6416 -1.0087 -1.3139
18253SOL     OW65072   8.220   6.358   6.070  0.1921 -0.6400 -0.7926
18253SOL    HW165073   8.235   6.450   6.092  1.8915 -1.0831  0.1021
18253SOL    HW265074   8.132   6.340   6.101  0.1003  0.5136 -0.3239
18254SOL     OW65075  11.989   8.718  12.030 -0.3795 -0.1197 -0.4016
18254SOL    HW165076  12.045   8.782  12.074 -0.5666 -0.7163  0.7359
18254SOL    HW265077  12.048   8.648  12.002 -0.4510 -0.4051  0.1547
18255SOL     OW65078   1.827   8.502   2.199 -0.3897  0.0728 -0.4937
18255SOL    HW165079   1.786   8.554   2.131 -2.3680 -1.5279 -0.6127
18255SOL    HW265080   1.860   8.425   2.154 -0.1757 -0.1979  0.1129
18256SOL     OW65081   4.278   0.900   1.368 -0.4879 -0.0418 -0.5406
18256SOL    HW165082   4.251   0.862   1.452  0.8051  2.7161  1.2654
18256SOL    HW265083   4.207   0.960   1.345  0.4601  1.4612  0.2441
18257SOL     OW65084   8.957   7.652   6.142  0.0665 -0.2745 -0.0257
18257SOL    HW165085   8.889   7.658   6.075 -0.2302 -1.2080  0.1809
18257SOL    HW265086   8.952   7.736   6.189 -0.4122 -0.0306 -0.5049
18258SOL     OW65087   9.125  12.625   1.132  0.3322 -0.0909  0.5438
18258SOL    HW165088   9.106  12.557   1.196 -1.7335 -1.0098 -0.9318
18258SOL    HW265089   9.218  12.615   1.112  0.0088 -2.8840 -0.0032
18259SOL     OW65090  11.205  10.643   0.064 -0.1074  0.5552  0.2090
18259SOL    HW165091  11.121  10.682   0.039  0.3410  0.8984 -0.7831
18259SOL    HW265092  11.269  10.713   0.054  0.7025 -0.3577 -1.5395
18260SOL     OW65093   7.154   1.869   8.196  0.2257  0.4730 -0.1575
18260SOL    HW165094   7.228   1.924   8.172  0.9146 -0.8110 -1.0915
18260SOL    HW265095   7.176   1.835   8.283  0.0755  1.1943  0.1641
18261SOL     OW65096   8.716   4.464   7.921  0.2809 -0.1049 -0.0634
18261SOL    HW165097   8.763   4.546   7.908  1.1038 -0.6401 -0.5802
18261SOL    HW265098   8.643   4.487   7.978  1.5732  0.6328  1.3781
18262SOL     OW65099   7.666   5.604   7.943  0.2844 -0.2122 -0.5980
18262SOL    HW165100   7.714   5.522   7.951  0.1423 -0.2142  0.3385
18262SOL    HW265101   7.733   5.672   7.942  0.3920 -0.3219 -1.1761
18263SOL     OW65102   9.504   7.756   0.977 -0.5005 -0.1492 -0.3687
18263SOL    HW165103   9.585   7.803   0.999 -0.0637 -1.3396  0.7357
18263SOL    HW265104   9.464   7.808   0.908  1.0688  0.6355 -0.7442
18264SOL     OW65105   8.791  10.101   1.046  0.0314 -0.4122 -0.1795
18264SOL    HW165106   8.778  10.057   0.962  0.2710 -0.0330 -0.4225
18264SOL    HW265107   8.730  10.059   1.106 -1.1288  0.2447 -0.8795
18265SOL     OW65108   6.187   0.181   7.915  0.1739 -0.6974  0.2730
18265SOL    HW165109   6.260   0.143   7.964  0.7042 -3.2020 -2.2613
18265SOL    HW265110   6.228   0.224   7.840 -0.7601  1.4788  0.9059
18266SOL     OW65111   6.533  12.788   0.135 -0.4039 -0.0203  0.4203
18266SOL    HW165112   6.554  12.703   0.096  0.7420  1.0265 -1.3852
18266SOL    HW265113   6.449  12.812   0.096  0.1625  0.4817 -0.5235
18267SOL     OW65114   1.194   8.514   8.738 -0.4794 -0.0935  0.1417
18267SOL    HW165115   1.165   8.605   8.745 -2.2978 -0.5622 -0.6336
18267SOL    HW265116   1.117   8.467   8.704  0.5780 -1.8290  0.0276
18268SOL     OW65117   6.827   5.811   3.544 -0.0330 -0.2366 -0.1539
18268SOL    HW165118   6.875   5.753   3.485 -0.2041  0.3846 -0.9279
18268SOL    HW265119   6.885   5.822   3.619 -0.9155 -3.2053  1.1233
18269SOL     OW65120   4.629   7.345   8.688  0.0602 -0.3864 -0.1094
18269SOL    HW165121   4.635   7.382   8.600  3.9457 -1.6802 -0.5819
18269SOL    HW265122   4.588   7.259   8.676  0.5113 -0.5273 -0.6440
18270SOL     OW65123   2.417   4.977  12.397 -0.1081 -0.0547 -0.4001
18270SOL    HW165124   2.402   4.890  12.361 -0.8532  0.2594 -0.8647
18270SOL    HW265125   2.458   5.026  12.326  0.6156 -0.1095 -0.0336
18271SOL     OW65126   1.541  12.359   6.908  0.2665  0.3644  0.7157
18271SOL    HW165127   1.624  12.322   6.940  0.5948  1.0320  0.6703
18271SOL    HW265128   1.566  12.406   6.828 -0.1399  0.6508  0.7585
18272SOL     OW65129   8.667   5.577   3.232 -0.1111  0.3057 -0.3917
18272SOL    HW165130   8.632   5.591   3.144 -2.0550 -1.0331  0.0937
18272SOL    HW265131   8.664   5.481   3.244  0.4580  0.4302  0.9892
18273SOL     OW65132   0.324   2.932   8.666 -0.6488 -0.2156  0.0971
18273SOL    HW165133   0.403   2.879   8.652 -1.8030 -1.6805 -1.2555
18273SOL    HW265134   0.328   2.999   8.597  0.2170  0.7828  1.0777
18274SOL     OW65135   5.138   5.244   3.933 -0.1071  0.6139 -0.4320
18274SOL    HW165136   5.097   5.189   4.000 -0.0739  0.9819 -0.1098
18274SOL    HW265137   5.203   5.186   3.891  0.6518  0.7012  0.5947
18275SOL     OW65138   6.285  11.905   9.622  0.4877 -0.0732  0.1941
18275SOL    HW165139   6.261  11.841   9.556  0.7320 -0.7803  0.7726
18275SOL    HW265140   6.334  11.972   9.574  1.5010 -1.0623 -0.1974
18276SOL     OW65141   8.805   4.034   8.717 -0.5883 -0.6779 -0.5419
18276SOL    HW165142   8.791   3.974   8.643 -1.8129 -0.6104 -0.3919
18276SOL    HW265143   8.802   3.978   8.794  0.6559 -0.7430 -0.5235
18277SOL     OW65144   2.984   3.477  11.532 -0.5923  0.5627  0.0947
18277SOL    HW165145   3.019   3.511  11.615  1.5389 -0.8964 -0.1191
18277SOL    HW265146   2.890   3.497  11.535 -0.7184 -0.0516  3.1580
18278SOL     OW65147   6.280   7.227   0.840  0.7245  0.3759 -0.6599
18278SOL    HW165148   6.321   7.185   0.764  0.5468 -2.0890  0.4849
18278SOL    HW265149   6.346   7.220   0.909  0.2059  0.8992 -0.1041
18279SOL     OW65150   9.419   4.035   8.765  0.2163 -0.0573 -0.1525
18279SOL    HW165151   9.502   4.021   8.811 -0.6283 -1.1407  1.1227
18279SOL    HW265152   9.384   4.116   8.803 -0.0014 -0.4068  0.4088
18280SOL     OW65153  11.661   5.185   8.087 -0.5016 -0.6356 -0.1941
18280SOL    HW165154  11.589   5.124   8.099  1.6764 -3.5974 -1.1443
18280SOL    HW265155  11.706   5.186   8.172  0.7919 -2.2621 -0.8217
18281SOL     OW65156   4.962   1.262   9.228 -0.4837  0.1664 -0.4602
18281SOL    HW165157   4.896   1.206   9.188 -0.4367  0.3302 -0.7736
18281SOL    HW265158   5.014   1.204   9.283 -0.1703 -0.1796 -1.1059
18282SOL     OW65159   1.833   2.699  10.327 -0.1358  0.2537  0.3778
18282SOL    HW165160   1.767   2.716  10.394 -1.4571 -1.1215 -0.5265
18282SOL    HW265161   1.803   2.620  10.283  1.7784 -0.0365 -0.5112
18283SOL     OW65162   7.728   6.603   2.928 -0.2472  0.9761 -0.5261
18283SOL    HW165163   7.783   6.575   3.001 -1.1408 -0.2153 -0.2865
18283SOL    HW265164   7.787   6.654   2.872  1.5324 -1.5383 -1.0839
18284SOL     OW65165  10.699  12.622   0.158 -0.0223 -0.2607  0.4790
18284SOL    HW165166  10.751  12.652   0.083 -0.5026  1.3300  0.7537
18284SOL    HW265167  10.612  12.658   0.143 -0.7871 -1.9691  0.5971
18285SOL     OW65168  10.422   2.947   9.040 -0.0046  0.1808 -0.3086
18285SOL    HW165169  10.428   3.032   8.997  0.4964  0.5808  0.5103
18285SOL    HW265170  10.495   2.947   9.103  0.6261 -1.2586 -0.9752
18286SOL     OW65171   8.696  11.426   1.130  0.6298 -0.3542  0.4762
18286SOL    HW165172   8.655  11.359   1.075  0.4124 -0.0728  0.2899
18286SOL    HW265173   8.623  11.483   1.156  1.0367  0.7413 -0.6855
18287SOL     OW65174   9.913   6.134   2.646  0.2523 -0.1621 -0.3310
18287SOL    HW165175   9.899   6.040   2.657  1.5213 -0.4963 -1.2368
18287SOL    HW265176   9.871   6.174   2.722  0.7588 -1.5618  0.7350
18288SOL     OW65177   3.012   3.605   0.035  0.3454 -0.1203  0.4450
18288SOL    HW165178   3.054   3.519   0.041  1.2261  0.2501 -0.1780
18288SOL    HW265179   3.061   3.651  -0.033 -0.6420  0.5863  0.1917
18289SOL     OW65180   0.943   3.060   5.033  0.1286  0.2366  0.0876
18289SOL    HW165181   0.903   3.132   5.082 -1.0774  0.0790 -0.6205
18289SOL    HW265182   1.022   3.098   4.995 -0.3710  1.1331 -0.0897
18290SOL     OW65183   3.023   3.068  11.251  0.1563  0.3842 -0.5393
18290SOL    HW165184   2.979   3.139  11.297  4.5041  4.3704 -1.7459
18290SOL    HW265185   2.988   3.071  11.162 -0.1564  0.4967 -0.4139
18291SOL     OW65186   6.690   0.316   5.298 -0.1549  0.2403 -0.4990
18291SOL    HW165187   6.673   0.227   5.328 -0.2777  0.4239 -0.0088
18291SOL    HW265188   6.610   0.364   5.319  0.5619  0.8822  0.9181
18292SOL     OW65189  11.571  11.010   2.204 -0.1812 -0.1045  0.2612
18292SOL    HW165190  11.510  10.963   2.260 -1.0632 -0.5607 -1.0367
18292SOL    HW265191  11.645  10.950   2.194  0.5752  0.4911  1.9184
18293SOL     OW65192   9.998   7.422   5.861  0.5419  0.0271  0.7238
18293SOL    HW165193  10.080   7.470   5.852  0.5314 -0.3132 -2.1178
18293SOL    HW265194  10.024   7.331   5.876  0.6771  0.0473  0.6088
18294SOL     OW65195   6.641   5.595  11.827  0.1181 -0.0938  0.2225
18294SOL    HW165196   6.660   5.551  11.744  2.4507  1.2831 -0.0702
18294SOL    HW265197   6.664   5.530  11.893  0.3674 -0.4671 -0.2213
18295SOL     OW65198  12.234  11.544   4.519 -0.1409 -0.7827  0.2619
18295SOL    HW165199  12.179  11.564   4.594 -0.2256  3.2006 -0.6396
18295SOL    HW265200  12.322  11.574   4.545  0.0097 -0.2145 -0.8291
18296SOL     OW65201   3.532   6.806   9.800 -0.4487 -0.6191  0.4245
18296SOL    HW165202   3.555   6.714   9.791 -1.1118 -0.7052 -0.5727
18296SOL    HW265203   3.450   6.815   9.751  0.0406  0.6679 -0.2054
18297SOL     OW65204  12.183   2.819   8.409 -0.3892  0.3802  0.2419
18297SOL    HW165205  12.102   2.780   8.442 -1.1340  0.7832 -1.0214
18297SOL    HW265206  12.163   2.841   8.318  0.9264  1.1318  0.1128
18298SOL     OW65207   0.827   8.924  12.425  0.3445 -0.5089  0.0319
18298SOL    HW165208   0.799   9.010  12.455 -0.2962 -0.4516 -0.6927
18298SOL    HW265209   0.866   8.882  12.502  1.4400  0.7440  0.1862
18299SOL     OW65210   7.744   9.559   4.576  0.0709  0.8812 -0.0866
18299SOL    HW165211   7.813   9.556   4.641  0.1298 -0.1381 -0.1816
18299SOL    HW265212   7.743   9.650   4.545  2.5282  0.5642 -1.3340
18300SOL     OW65213   9.262  11.011   0.141 -0.0866 -0.1654  0.2979
18300SOL    HW165214   9.311  11.084   0.180 -0.4113  0.9149 -1.2119
18300SOL    HW265215   9.321  10.936   0.149  0.9111  0.6077  0.4813
18301SOL     OW65216   6.894   0.791   6.242 -0.3249 -0.8523  0.3563
18301SOL    HW165217   6.961   0.731   6.209 -1.9855 -3.1147  0.7776
18301SOL    HW265218   6.922   0.811   6.331 -0.5696 -2.5217  0.8604
18302SOL     OW65219  12.735   0.336   0.337  0.6801 -0.3412  0.4548
18302SOL    HW165220  12.817   0.367   0.298  0.8852  0.7315  1.6842
18302SOL    HW265221  12.746   0.242   0.345  2.1692 -0.1061  1.4165
18303SOL     OW65222   5.951   0.069  10.701  0.7412 -0.3838  0.6455
18303SOL    HW165223   5.861   0.065  10.731  0.8355 -3.5211  0.8788
18303SOL    HW265224   5.965   0.160  10.676 -2.9486 -0.0647 -0.8422
18304SOL     OW65225   0.153  11.094  11.561 -0.3894 -0.4240  0.0297
18304SOL    HW165226   0.121  11.102  11.650  0.7004  0.5335  0.3623
18304SOL    HW265227   0.124  11.173  11.516  3.9555  2.1894  1.2163
18305SOL     OW65228   8.134  10.816  11.940  0.3149 -0.2804 -0.0148
18305SOL    HW165229   8.126  10.853  12.028 -0.2488  0.7332 -0.4726
18305SOL    HW265230   8.202  10.868  11.898  0.8451 -1.0063 -0.0634
18306SOL     OW65231   3.339  10.455   4.897 -0.4187  0.2535 -0.2415
18306SOL    HW165232   3.404  10.460   4.967 -0.0870 -2.9380 -0.1797
18306SOL    HW265233   3.280  10.529   4.914  0.8210  0.7957  2.1766
18307SOL     OW65234   9.912   7.061   2.507 -0.0153  0.3779 -0.3981
18307SOL    HW165235   9.818   7.052   2.525  0.4195 -0.7779  1.6081
18307SOL    HW265236   9.929   7.000   2.436 -0.5377 -0.5667  0.2631
18308SOL     OW65237   9.267  10.716   7.118 -0.3478 -0.4588 -0.0073
18308SOL    HW165238   9.329  10.721   7.046 -0.2794 -2.1502 -0.1217
18308SOL    HW265239   9.263  10.622   7.139 -1.6227 -0.1944  1.0767
18309SOL     OW65240   4.053   7.641   3.189 -0.6818 -0.2985 -0.1863
18309SOL    HW165241   4.111   7.585   3.240 -0.8562 -1.1221 -0.8661
18309SOL    HW265242   4.103   7.721   3.175 -0.3071 -0.3974  0.5386
18310SOL     OW65243   0.715   8.656   5.576  0.1053  0.0882 -0.3210
18310SOL    HW165244   0.640   8.609   5.613  0.5279 -0.5399 -0.2406
18310SOL    HW265245   0.774   8.587   5.546  0.3163  0.5814 -1.0728
18311SOL     OW65246   2.078   4.770   9.101 -0.4534 -0.5463  0.3929
18311SOL    HW165247   2.073   4.746   9.194 -0.1946  0.9693  0.8257
18311SOL    HW265248   1.991   4.806   9.082  0.1784  1.2411  0.6960
18312SOL     OW65249  12.451   2.934   7.296 -0.1098  0.1490  0.1454
18312SOL    HW165250  12.416   2.863   7.350  0.9254  0.1093  0.7836
18312SOL    HW265251  12.414   2.918   7.209  0.1152 -1.1820  0.2721
18313SOL     OW65252   4.189   0.653   8.828  0.1227 -0.2276  0.1394
18313SOL    HW165253   4.108   0.614   8.795  0.7733 -1.2712 -0.2839
18313SOL    HW265254   4.202   0.731   8.774 -0.7847  0.1589  0.4655
18314SOL     OW65255   4.849   0.219   6.150 -0.1462  0.1954 -0.3786
18314SOL    HW165256   4.875   0.127   6.157 -0.4473  0.0572 -1.0198
18314SOL    HW265257   4.886   0.261   6.228  0.0637 -0.4518 -0.1294
18315SOL     OW65258   0.361   6.052   1.321 -0.4944  0.1809  0.1126
18315SOL    HW165259   0.420   6.021   1.389 -1.2379  0.0412  0.7127
18315SOL    HW265260   0.330   5.973   1.278 -0.5447  0.2288  0.0611
18316SOL     OW65261   3.631   6.039  10.654  0.3879  0.9377  0.0014
18316SOL    HW165262   3.567   6.059  10.585  1.3028 -0.3462 -1.2898
18316SOL    HW265263   3.578   6.003  10.726 -0.5392  1.8248 -0.2128
18317SOL     OW65264  10.143   4.319   9.459  0.0245  0.0971  0.2026
18317SOL    HW165265  10.236   4.298   9.449  0.0880  0.4314  0.0890
18317SOL    HW265266  10.138   4.366   9.543 -0.3868 -2.0002  1.4303
18318SOL     OW65267   5.661   0.608   6.669 -0.2278 -0.3400  0.8495
18318SOL    HW165268   5.656   0.595   6.575  0.2898  0.8562  0.6298
18318SOL    HW265269   5.620   0.694   6.683  1.3763  0.3760  1.4496
18319SOL     OW65270   9.122  12.374   9.471 -0.0714 -0.3733  0.0311
18319SOL    HW165271   9.037  12.351   9.433  1.0950 -1.4838 -2.1542
18319SOL    HW265272   9.156  12.290   9.504  0.8076 -0.2585 -0.5527
18320SOL     OW65273   2.378   9.198  12.570 -0.4553 -0.1457 -0.4835
18320SOL    HW165274   2.290   9.197  12.609 -0.4402 -1.2241 -0.4314
18320SOL    HW265275   2.392   9.288  12.544 -0.7061  0.5179  1.4845
18321SOL     OW65276   5.215   8.309   1.205 -0.0008 -0.2316 -0.2591
18321SOL    HW165277   5.206   8.289   1.112 -0.8257  1.3187 -0.5434
18321SOL    HW265278   5.172   8.236   1.250 -0.1810 -0.6648 -1.1168
18322SOL     OW65279   2.107   0.739   5.262  0.6114  0.1900 -0.1305
18322SOL    HW165280   2.078   0.737   5.171 -0.6331 -3.0707  0.2376
18322SOL    HW265281   2.030   0.767   5.312  1.1091  1.3441  0.0343
18323SOL     OW65282   0.367   6.570   0.997 -0.1478 -0.2124 -0.2029
18323SOL    HW165283   0.381   6.665   0.998  0.8208 -0.3396 -0.5671
18323SOL    HW265284   0.310   6.555   0.921 -1.8071  0.2456  0.8950
18324SOL     OW65285  10.992   0.231   2.391  0.2030 -0.3838  0.2695
18324SOL    HW165286  10.907   0.261   2.361 -0.0105 -0.2188  1.0320
18324SOL    HW265287  11.028   0.183   2.316 -0.6467 -0.6389  0.0136
18325SOL     OW65288  11.678   1.535   1.533  0.0665  0.4096 -0.2467
18325SOL    HW165289  11.601   1.487   1.563  0.5859 -0.4360 -0.2464
18325SOL    HW265290  11.717   1.479   1.466  0.5268  0.9680 -0.4582
18326SOL     OW65291   6.165   1.469   2.726  0.0232  0.5528  0.5061
18326SOL    HW165292   6.126   1.416   2.795 -0.7271  1.1431  0.5399
18326SOL    HW265293   6.109   1.547   2.720  1.0815  1.3329  0.4333
18327SOL     OW65294  10.506   0.375  10.056 -1.0406  0.2872  0.5656
18327SOL    HW165295  10.494   0.334  10.141 -1.1224  0.8840  0.8444
18327SOL    HW265296  10.443   0.447  10.054  0.4926  1.7140  0.9419
18328SOL     OW65297   3.163   6.894   1.203 -0.0137 -0.1992  0.0141
18328SOL    HW165298   3.109   6.969   1.228 -1.2792 -0.9228 -0.4793
18328SOL    HW265299   3.225   6.885   1.275  0.4707  1.5848 -0.1299
18329SOL     OW65300   2.423   6.331  11.962 -0.2071  0.1146  0.3068
18329SOL    HW165301   2.417   6.316  11.868 -1.1788  1.4106  0.1238
18329SOL    HW265302   2.389   6.251  12.002  0.6720 -0.6424 -0.4097
18330SOL     OW65303  10.244  10.594   5.961 -0.1134  0.4998 -0.5599
18330SOL    HW165304  10.192  10.656   6.013  0.9748  2.0984 -1.2835
18330SOL    HW265305  10.179  10.536   5.922 -1.1217  0.6801  0.7567
18331SOL     OW65306   7.790   3.806   2.923  0.6247 -0.0113 -0.0628
18331SOL    HW165307   7.747   3.722   2.908  1.1767 -0.6989  1.8207
18331SOL    HW265308   7.778   3.822   3.017 -0.1909  2.4511 -0.5162
18332SOL     OW65309   8.566   2.052   4.848  0.3739  0.0933  0.3419
18332SOL    HW165310   8.510   2.047   4.770  0.0900  1.0664  0.4724
18332SOL    HW265311   8.649   2.089   4.816  0.3564  0.2260  0.4490
18333SOL     OW65312  10.632   4.734   7.857 -0.3022  0.2551  0.0818
18333SOL    HW165313  10.587   4.671   7.912 -0.4237  0.4912  0.2570
18333SOL    HW265314  10.702   4.769   7.913 -1.6497  1.9555  0.7927
18334SOL     OW65315  11.528   7.812   8.472 -0.6126 -0.1983 -0.4906
18334SOL    HW165316  11.585   7.774   8.405 -0.8713  0.0624 -0.8654
18334SOL    HW265317  11.512   7.741   8.534 -1.0220 -0.6786 -1.1361
18335SOL     OW65318  10.184   7.027   2.064  0.3072  0.1565  0.4140
18335SOL    HW165319  10.210   6.963   1.997 -0.5783  1.0345 -0.8179
18335SOL    HW265320  10.185   7.111   2.017  0.7554  0.9525  1.8091
18336SOL     OW65321   2.703  11.179   1.103 -0.2438 -0.4723  0.0334
18336SOL    HW165322   2.695  11.100   1.157  1.5848  0.3750  1.6785
18336SOL    HW265323   2.634  11.237   1.135 -1.4430 -1.2541 -1.0232
18337SOL     OW65324  12.557   6.408   6.731  0.7884 -0.2799 -0.1113
18337SOL    HW165325  12.524   6.329   6.688  0.1551  0.4484 -1.0203
18337SOL    HW265326  12.635   6.380   6.778  0.9023 -1.3275 -0.9059
18338SOL     OW65327   3.719   4.482   1.801 -0.6670  0.0966 -0.2688
18338SOL    HW165328   3.796   4.473   1.745  0.5116 -0.1609  1.3132
18338SOL    HW265329   3.723   4.572   1.834 -0.5234 -0.1767  0.4981
18339SOL     OW65330   8.955  12.645  11.361 -0.6099 -0.0414 -0.2570
18339SOL    HW165331   8.882  12.646  11.299 -0.7802 -0.2681 -0.0584
18339SOL    HW265332   8.952  12.731  11.402 -0.4337  0.1497 -0.6325
18340SOL     OW65333   6.297   0.404  12.877 -0.1320  0.0798  0.4008
18340SOL    HW165334   6.224   0.452  12.916 -0.1657  0.1518  0.2463
18340SOL    HW265335   6.369   0.416  12.939 -0.7470 -1.5154  1.5275
18341SOL     OW65336   4.885   2.806  11.057  0.0176 -0.4290  0.1096
18341SOL    HW165337   4.927   2.841  10.978 -0.9641  0.6269  0.0201
18341SOL    HW265338   4.955   2.801  11.121  0.6098 -0.2419 -0.5067
18342SOL     OW65339   5.692   1.258   0.286 -0.4516  0.8431  0.0592
18342SOL    HW165340   5.656   1.171   0.300 -0.4831  1.1433  2.3417
18342SOL    HW265341   5.615   1.315   0.281 -0.4117  0.9441  0.4938
18343SOL     OW65342   7.698   5.069   1.523 -0.7662  0.1219 -0.0515
18343SOL    HW165343   7.716   4.975   1.518 -2.6215 -0.2233 -1.1946
18343SOL    HW265344   7.744   5.107   1.449 -2.1644 -0.3169 -1.1883
18344SOL     OW65345   2.124   3.349   7.945  0.2933  0.3679 -0.3761
18344SOL    HW165346   2.067   3.330   8.019  0.2159 -0.4420 -0.6267
18344SOL    HW265347   2.169   3.430   7.968  1.8936 -0.9801  1.5565
18345SOL     OW65348   0.901   9.717  11.715  0.3667  0.5180  0.2388
18345SOL    HW165349   0.811   9.748  11.719 -0.0818 -0.7820  0.8357
18345SOL    HW265350   0.952   9.793  11.689 -0.6729  1.7637  1.6687
18346SOL     OW65351  11.012   4.893   6.709 -0.1289 -0.0069  0.3713
18346SOL    HW165352  11.003   4.849   6.793 -0.1889  0.6097  0.6941
18346SOL    HW265353  11.075   4.841   6.660  0.3034 -0.0696  0.9975
18347SOL     OW65354   4.196  12.266   1.084  0.2185  0.1269  0.3255
18347SOL    HW165355   4.105  12.257   1.114 -0.1188 -0.6654 -0.8606
18347SOL    HW265356   4.219  12.179   1.052  1.7668  0.0525  1.5451
18348SOL     OW65357  11.154   4.964  12.902  0.4359 -0.4866 -0.0097
18348SOL    HW165358  11.139   4.873  12.927 -3.4768  0.0018  0.0456
18348SOL    HW265359  11.175   5.008  12.984  1.1393 -1.0965  0.1506
18349SOL     OW65360  10.667   4.795   9.586  0.2478  0.0189  0.1571
18349SOL    HW165361  10.605   4.842   9.642  0.2605 -0.2298  0.3782
18349SOL    HW265362  10.747   4.788   9.639 -0.2703 -1.7042  0.7701
18350SOL     OW65363  11.453   6.059   9.622 -0.0036 -0.3755 -0.4396
18350SOL    HW165364  11.423   6.134   9.571 -0.2212  0.6980  1.1988
18350SOL    HW265365  11.540   6.040   9.586  0.5629  1.4257 -0.1228
18351SOL     OW65366   5.447   6.162   1.594  0.4372  0.1359  0.0856
18351SOL    HW165367   5.358   6.158   1.561  0.5122  0.2459 -0.1348
18351SOL    HW265368   5.439   6.198   1.683  0.2304 -0.1982  0.1994
18352SOL     OW65369   4.390   6.696   7.881  0.0382 -0.0448 -0.1243
18352SOL    HW165370   4.337   6.674   7.958  0.8008 -1.0710  0.1261
18352SOL    HW265371   4.401   6.791   7.887  0.9885 -0.2083  1.6653
18353SOL     OW65372  10.232   5.036   2.511 -0.3175 -0.3166 -0.0884
18353SOL    HW165373  10.287   5.104   2.472 -0.1939 -0.9286 -1.0102
18353SOL    HW265374  10.218   5.066   2.601  0.2930  0.5847 -0.2730
18354SOL     OW65375   9.512   4.881   5.227  0.0818 -0.5510  1.1709
18354SOL    HW165376   9.437   4.898   5.170  1.0921  0.2500  0.0383
18354SOL    HW265377   9.571   4.954   5.212  2.2376 -2.3924  0.1154
18355SOL     OW65378   7.264   3.735   9.038 -0.6212 -0.7587  0.1233
18355SOL    HW165379   7.216   3.750   9.120 -0.5122  0.1839  0.0273
18355SOL    HW265380   7.347   3.781   9.050  0.2482 -2.2730  0.2423
18356SOL     OW65381   4.674  11.541   6.907  0.1095 -0.1786 -0.4588
18356SOL    HW165382   4.745  11.583   6.857  0.7572  0.5805  1.0458
18356SOL    HW265383   4.679  11.449   6.882 -1.0501  0.4543 -3.4954
18357SOL     OW65384   5.356   7.134   6.860  0.4914 -0.3413 -0.2020
18357SOL    HW165385   5.433   7.174   6.821 -0.1704 -0.6767 -1.9103
18357SOL    HW265386   5.391   7.066   6.918  1.4950  0.3074 -0.0297
18358SOL     OW65387   8.395   1.763   1.252  0.1576 -0.2963 -0.3068
18358SOL    HW165388   8.407   1.695   1.318  0.1419 -0.0408 -0.0355
18358SOL    HW265389   8.482   1.777   1.216  0.6393  1.1824  1.2890
18359SOL     OW65390   0.597   9.388   7.299 -0.4459  0.0420  0.6725
18359SOL    HW165391   0.612   9.312   7.242 -0.2109  1.0356 -0.6350
18359SOL    HW265392   0.651   9.371   7.376 -0.7603 -1.3323  0.6175
18360SOL     OW65393   4.013   8.911   9.785 -0.0593  0.0397 -0.1166
18360SOL    HW165394   3.920   8.904   9.804  0.1461  1.0411  1.4451
18360SOL    HW265395   4.049   8.825   9.806 -0.3719  0.1613  0.9528
18361SOL     OW65396   2.516   6.349   6.317  0.1867 -0.0151  0.3542
18361SOL    HW165397   2.467   6.297   6.381  0.0897 -0.4345 -0.0529
18361SOL    HW265398   2.454   6.362   6.245  0.7831 -0.8702 -0.3330
18362SOL     OW65399   4.974   3.921  12.986 -0.1080  0.3569  0.0015
18362SOL    HW165400   4.935   3.872  12.914 -0.5757  1.1815 -0.3286
18362SOL    HW265401   4.940   4.010  12.975  1.0215  0.8492  0.3462
18363SOL     OW65402   2.635  10.777   4.108 -0.0260 -0.2887  0.1046
18363SOL    HW165403   2.555  10.737   4.141  0.0478  1.7230  3.1692
18363SOL    HW265404   2.705  10.723   4.145  0.0272  0.7515  1.6060
18364SOL     OW65405  12.884   0.173   3.599  0.8516  0.3866 -0.3518
18364SOL    HW165406  12.969   0.180   3.642  0.1959  0.7138  0.9324
18364SOL    HW265407  12.833   0.247   3.633  0.5325  1.1065 -2.2778
18365SOL     OW65408   6.157   0.123   2.491 -0.3724  0.6262 -0.7774
18365SOL    HW165409   6.228   0.083   2.442  0.4871  0.0343  0.8686
18365SOL    HW265410   6.103   0.050   2.521 -0.9912  0.9886 -0.9784
18366SOL     OW65411   6.436   2.282   4.804  0.3685  0.0820  0.0430
18366SOL    HW165412   6.459   2.360   4.754  0.0044  0.8647  1.0531
18366SOL    HW265413   6.491   2.287   4.882 -1.0506  0.3854  1.0484
18367SOL     OW65414  11.630  10.078   8.386 -0.1243  0.4494 -0.2857
18367SOL    HW165415  11.656  10.081   8.294  1.4404  1.8452  0.1629
18367SOL    HW265416  11.688  10.014   8.425  2.2842  2.9038  0.5221
18368SOL     OW65417   0.543   2.844   3.214  0.2298  0.6089 -0.7562
18368SOL    HW165418   0.475   2.782   3.191  0.9822 -0.2826 -0.6422
18368SOL    HW265419   0.597   2.798   3.279  1.3245  1.0273 -1.3377
18369SOL     OW65420   7.863  12.611   1.565 -0.2997  0.1418  0.0901
18369SOL    HW165421   7.820  12.696   1.571  1.2759  1.0134 -0.5247
18369SOL    HW265422   7.810  12.563   1.501 -0.7963  0.9080 -0.0879
18370SOL     OW65423   9.257   7.511   8.527 -0.0021  0.5850  0.2674
18370SOL    HW165424   9.315   7.442   8.560 -1.1090  0.0606  1.1788
18370SOL    HW265425   9.287   7.591   8.570  1.5300  0.8060 -1.0715
18371SOL     OW65426   3.406   7.749   9.366  0.2360  0.6204  0.0618
18371SOL    HW165427   3.391   7.841   9.349  0.5973  0.5928 -0.4493
18371SOL    HW265428   3.332   7.704   9.326 -0.0814  0.7092  0.5543
18372SOL     OW65429  12.130  10.923   5.587 -0.1960 -0.4865  0.2883
18372SOL    HW165430  12.156  10.831   5.595  0.0470 -0.3960  0.5439
18372SOL    HW265431  12.035  10.923   5.597 -0.1952 -0.7067  0.2969
18373SOL     OW65432   3.550   6.185   0.385 -0.2064 -0.1104  0.3848
18373SOL    HW165433   3.526   6.221   0.300  1.0032 -1.0630 -0.3879
18373SOL    HW265434   3.604   6.109   0.365  1.4430  0.5570  2.0159
18374SOL     OW65435   0.665   6.770   2.531 -0.4174 -0.2746  0.2036
18374SOL    HW165436   0.745   6.807   2.492 -1.8149 -0.4604 -3.1732
18374SOL    HW265437   0.668   6.798   2.622  1.3464  3.4828 -0.8098
18375SOL     OW65438   4.641  11.804   7.686  0.5095  0.0535  0.1002
18375SOL    HW165439   4.608  11.876   7.740  0.5054  0.6294 -0.6405
18375SOL    HW265440   4.571  11.789   7.622  0.3009 -0.9540  0.5488
18376SOL     OW65441  12.232   2.499   2.896  0.0530 -0.1713 -0.7208
18376SOL    HW165442  12.325   2.514   2.881  0.7825 -2.7440  0.5714
18376SOL    HW265443  12.229   2.445   2.976 -2.4169 -1.4158 -1.5413
18377SOL     OW65444   2.207   9.155   8.322  0.6408  0.1995 -0.0709
18377SOL    HW165445   2.193   9.060   8.328  0.2074  0.3061  0.8263
18377SOL    HW265446   2.249   9.168   8.237  0.9887 -0.8327 -0.0703
18378SOL     OW65447   7.428   3.312   3.095  0.1407 -0.1700  0.0414
18378SOL    HW165448   7.379   3.230   3.097  1.8161 -1.1998  0.1731
18378SOL    HW265449   7.501   3.298   3.156 -1.1623  2.5047  2.4768
18379SOL     OW65450   9.765   3.538   2.754 -0.6268 -0.4173  0.1348
18379SOL    HW165451   9.815   3.460   2.731  1.2223  0.7093  0.1748
18379SOL    HW265452   9.818   3.582   2.820 -1.5653  0.9559  0.0201
18380SOL     OW65453   1.876  10.078   3.568 -0.3737 -0.0203  0.0965
18380SOL    HW165454   1.829  10.117   3.642 -1.8197 -0.6550 -0.4554
18380SOL    HW265455   1.816  10.012   3.534  0.5982 -0.2817 -1.1582
18381SOL     OW65456   8.710   5.512   1.826  0.1600 -0.1184  0.0680
18381SOL    HW165457   8.766   5.589   1.843 -0.6098  0.7973 -1.3501
18381SOL    HW265458   8.622   5.548   1.824 -0.2196 -1.0725 -0.5144
18382SOL     OW65459   1.310   7.115  10.384 -0.2335 -1.0829  0.2355
18382SOL    HW165460   1.285   7.024  10.366 -4.2859 -0.1660  0.3219
18382SOL    HW265461   1.277   7.164  10.309  0.7725  0.4803  0.7662
18383SOL     OW65462  11.843   0.378   7.034 -0.0965 -0.3142  0.2352
18383SOL    HW165463  11.844   0.327   7.115 -0.4093 -1.0907 -0.2482
18383SOL    HW265464  11.838   0.469   7.064  1.0230 -0.5156  1.1165
18384SOL     OW65465   1.456   5.048   1.587 -0.0190 -0.2852 -0.0929
18384SOL    HW165466   1.454   4.980   1.520  1.8705 -0.9593  0.4428
18384SOL    HW265467   1.455   5.000   1.670 -0.5059  0.4390  0.3355
18385SOL     OW65468   1.743   6.850   5.215 -0.2416  0.0508  0.0447
18385SOL    HW165469   1.825   6.803   5.203  1.4367  2.7264  0.1822
18385SOL    HW265470   1.717   6.828   5.305  0.6071 -0.4200  0.1929
18386SOL     OW65471   0.162  12.462   5.876 -0.2132 -0.2209  0.0038
18386SOL    HW165472   0.096  12.431   5.814  0.0656 -0.8333  0.0111
18386SOL    HW265473   0.217  12.386   5.894  0.6431  0.3361 -0.1834
18387SOL     OW65474   6.678   8.740   7.095  0.2529  0.0445 -0.2610
18387SOL    HW165475   6.626   8.749   7.015  3.5505 -2.1125 -2.9656
18387SOL    HW265476   6.753   8.797   7.081  1.0029 -0.5087  1.2282
18388SOL     OW65477   3.548   7.774   5.491 -0.3429 -0.3169 -0.8505
18388SOL    HW165478   3.505   7.765   5.576 -0.5282  0.6874 -0.8251
18388SOL    HW265479   3.578   7.864   5.489 -1.5203  0.0739 -2.3895
18389SOL     OW65480   0.876  11.547   9.190 -0.3443 -0.0303 -0.0532
18389SOL    HW165481   0.804  11.490   9.216  0.3434 -0.2335  1.5161
18389SOL    HW265482   0.931  11.493   9.134 -0.4563 -0.4635  0.2537
18390SOL     OW65483   6.326   3.725   4.658  0.0591 -0.2269  0.5062
18390SOL    HW165484   6.264   3.784   4.615 -0.9291 -0.4960  1.5100
18390SOL    HW265485   6.400   3.781   4.683 -0.6681  0.5063  1.0414
18391SOL     OW65486   6.067  12.921   2.994 -0.6382 -0.1542  0.4372
18391SOL    HW165487   6.077  12.827   3.008 -1.5873 -0.7467 -2.1698
18391SOL    HW265488   6.150  12.948   2.953 -0.4337  0.1227  1.0247
18392SOL     OW65489  10.774   7.890   6.547  0.7855 -0.2076  0.3374
18392SOL    HW165490  10.842   7.857   6.488  1.7150 -1.2076  1.9122
18392SOL    HW265491  10.742   7.970   6.504  0.2870 -1.7088 -2.3145
18393SOL     OW65492  10.976   4.452   0.951  0.2995  0.5269 -0.3438
18393SOL    HW165493  10.970   4.472   1.044  1.1406  1.0728 -0.3888
18393SOL    HW265494  10.901   4.496   0.911  0.2629  0.7898  0.0094
18394SOL     OW65495  11.385   4.060   8.751  0.0391  0.3035  0.1878
18394SOL    HW165496  11.316   3.995   8.762  0.0173  0.5128  1.5128
18394SOL    HW265497  11.418   4.047   8.662 -0.1586 -1.3176  0.3291
18395SOL     OW65498   6.574   4.752   1.698 -0.4394 -0.3947  0.3074
18395SOL    HW165499   6.504   4.813   1.720  0.8591  0.9747  0.8152
18395SOL    HW265500   6.611   4.726   1.782  0.8523  0.3819  0.0046
18396SOL     OW65501   1.478   1.341   9.505  0.0227 -0.3176 -0.3194
18396SOL    HW165502   1.495   1.352   9.599 -0.1683 -1.5572 -0.1229
18396SOL    HW265503   1.424   1.263   9.500  0.2881 -0.4365 -1.4892
18397SOL     OW65504   5.952   9.482   8.066  0.3903  0.5139 -0.1668
18397SOL    HW165505   5.946   9.577   8.060 -0.3527  0.3809 -2.9007
18397SOL    HW265506   6.035   9.460   8.024  0.3352 -0.0804  0.0227
18398SOL     OW65507   5.794  11.867  10.799  0.5653  0.5104 -0.0618
18398SOL    HW165508   5.784  11.961  10.785 -0.4030  0.4916  0.3773
18398SOL    HW265509   5.851  11.837  10.728  0.7585  1.4012 -0.2872
18399SOL     OW65510   2.224  10.835   8.133 -0.1770  0.1111 -0.6020
18399SOL    HW165511   2.255  10.922   8.157  1.5531 -0.7427  0.4629
18399SOL    HW265512   2.133  10.848   8.107  0.2485  2.3321 -1.1711
18400SOL     OW65513   4.218   7.669   1.615 -0.3231  0.0472 -0.8628
18400SOL    HW165514   4.151   7.603   1.629 -0.4983  0.3842 -0.0397
18400SOL    HW265515   4.181   7.750   1.651  0.3779  0.3156 -0.7158
18401SOL     OW65516  11.186   5.211   3.844 -0.6481 -0.7765  0.4867
18401SOL    HW165517  11.238   5.154   3.788 -0.1552  0.4559 -0.3405
18401SOL    HW265518  11.151   5.278   3.785 -0.1335  0.5493  1.6223
18402SOL     OW65519   6.151  11.813   0.909 -0.4013 -0.3289  0.0405
18402SOL    HW165520   6.176  11.897   0.945 -1.5646 -0.8090  2.1337
18402SOL    HW265521   6.232  11.762   0.905  0.0162  0.3034  0.4052
18403SOL     OW65522   1.512   2.355   7.799 -0.2384  0.1697 -0.1468
18403SOL    HW165523   1.434   2.329   7.751 -0.1688 -2.5620  1.0186
18403SOL    HW265524   1.582   2.350   7.734 -0.7120  0.4513 -0.6862
18404SOL     OW65525   9.845   6.055   7.266  0.0850 -0.3951 -0.2237
18404SOL    HW165526   9.823   5.978   7.213 -0.6511 -0.6195  0.3850
18404SOL    HW265527   9.909   6.103   7.213  1.3776 -1.9492 -0.1557
18405SOL     OW65528   4.866   2.892   8.345 -0.6336 -0.1538  0.2643
18405SOL    HW165529   4.841   2.802   8.366 -1.5992  0.5026  2.1983
18405SOL    HW265530   4.876   2.893   8.250  0.6118 -2.5849  0.2772
18406SOL     OW65531  10.394  12.972   6.510 -0.1071  0.0923  0.1411
18406SOL    HW165532  10.418  12.963   6.418  2.0991  0.9843  0.5710
18406SOL    HW265533  10.298  12.971   6.510 -0.1610  0.1323 -2.1540
18407SOL     OW65534  12.489  11.621  11.493  0.0102 -0.2662 -0.0063
18407SOL    HW165535  12.574  11.582  11.510 -0.0788 -1.2035 -1.5248
18407SOL    HW265536  12.471  11.601  11.401 -1.7534  0.0980  0.2182
18408SOL     OW65537   3.999  12.726   4.790 -0.0421  0.1022  0.1302
18408SOL    HW165538   4.009  12.632   4.777 -1.0119 -0.1444  0.9720
18408SOL    HW265539   3.978  12.761   4.704  1.4814 -0.2703 -0.4125
18409SOL     OW65540   3.944   8.989   6.949 -0.1786 -0.2474  0.3183
18409SOL    HW165541   3.918   8.940   7.027  1.5970 -0.1758  1.0086
18409SOL    HW265542   3.902   9.074   6.959  0.6145  0.0245  1.6182
18410SOL     OW65543   0.827   4.437   3.247  0.8896 -0.2385  0.4435
18410SOL    HW165544   0.792   4.364   3.298 -0.4286  1.0537  1.4850
18410SOL    HW265545   0.922   4.426   3.252  0.7476 -2.4352 -0.3166
18411SOL     OW65546   2.995  11.420   1.391  0.0581  0.4765 -0.1215
18411SOL    HW165547   2.998  11.340   1.340 -0.3450  0.1569  0.3397
18411SOL    HW265548   3.079  11.463   1.376 -0.4405  0.9032 -1.8514
18412SOL     OW65549   2.629   3.253   9.157  0.0405 -0.3650 -0.1514
18412SOL    HW165550   2.650   3.335   9.112  0.5025 -0.1589  0.4303
18412SOL    HW265551   2.546   3.271   9.202 -0.0783 -0.3558 -0.3736
18413SOL     OW65552   5.523   2.838   4.046  0.0348 -0.5141 -0.1986
18413SOL    HW165553   5.452   2.810   3.987  0.5183  1.0119 -1.5833
18413SOL    HW265554   5.603   2.825   3.995  0.5423  0.0511  0.4324
18414SOL     OW65555   8.136   1.313   0.316  0.0871  0.6083 -0.3681
18414SOL    HW165556   8.122   1.333   0.223 -0.4092  1.8433 -0.0569
18414SOL    HW265557   8.094   1.386   0.362  1.3900  0.6659  0.7929
18415SOL     OW65558   2.336   9.030   7.077 -0.0155  0.4034 -0.3946
18415SOL    HW165559   2.285   8.977   7.139  1.8376 -0.6938  0.2710
18415SOL    HW265560   2.309   9.120   7.095 -0.3370  0.0168  1.2644
18416SOL     OW65561   6.621  10.046   3.990  0.2854 -0.5184 -0.0949
18416SOL    HW165562   6.611  10.061   3.896  0.3675  3.5715  0.3904
18416SOL    HW265563   6.709  10.077   4.010  0.4629 -1.7956  1.3271
18417SOL     OW65564   2.446   5.702  12.360 -0.3729 -0.4211 -0.6008
18417SOL    HW165565   2.380   5.724  12.295 -0.1278  2.6879  0.0156
18417SOL    HW265566   2.402   5.713  12.444 -0.0497 -2.0441 -0.1943
18418SOL     OW65567  12.560   7.302   9.698  1.1611 -0.4646 -0.8071
18418SOL    HW165568  12.482   7.246   9.703  1.8920 -1.5150 -0.9076
18418SOL    HW265569  12.527   7.390   9.717 -0.0673 -0.8724 -0.9502
18419SOL     OW65570  11.415   3.700   5.275  0.0805  0.2402  0.0317
18419SOL    HW165571  11.507   3.686   5.296 -0.0698  1.5491  1.7433
18419SOL    HW265572  11.407   3.675   5.182  2.1538  0.2045 -0.1648
18420SOL     OW65573   1.652  11.287   1.000 -0.2059  0.0329 -0.5231
18420SOL    HW165574   1.560  11.310   1.011 -0.0543 -0.3119  1.8922
18420SOL    HW265575   1.681  11.341   0.926 -2.6082 -0.7966 -2.1846
18421SOL     OW65576   1.160   1.274   7.061  0.5234  0.2239  0.2144
18421SOL    HW165577   1.110   1.280   7.142 -0.3400  0.2456 -0.3121
18421SOL    HW265578   1.164   1.181   7.042 -0.5621  0.3043 -0.4917
18422SOL     OW65579  11.140   5.018   6.075 -0.1789 -0.2124  0.6723
18422SOL    HW165580  11.117   5.089   6.015  1.1650 -0.8692 -0.6983
18422SOL    HW265581  11.088   4.944   6.044  0.0903 -0.4020  0.6718
18423SOL     OW65582   9.261   8.368   9.040 -0.0156  0.3967 -0.6142
18423SOL    HW165583   9.254   8.434   9.109  2.0795  1.3746 -1.2605
18423SOL    HW265584   9.283   8.287   9.087 -0.6394  0.5858  0.0215
18424SOL     OW65585   1.696   5.696  10.227  0.3029  0.4517 -0.2167
18424SOL    HW165586   1.767   5.696  10.291 -0.0031 -0.5025  0.1433
18424SOL    HW265587   1.634   5.761  10.259 -0.0964 -0.3907  0.7500
18425SOL     OW65588   4.798   5.067   4.903 -0.3197  0.3529 -1.0117
18425SOL    HW165589   4.784   4.999   4.969 -0.9274  0.0567 -1.4348
18425SOL    HW265590   4.747   5.142   4.934 -0.3414  0.3245 -0.9785
18426SOL     OW65591   6.511  12.309   6.848  1.1550 -0.8101 -0.0168
18426SOL    HW165592   6.498  12.214   6.856  1.6747 -0.8671  0.1768
18426SOL    HW265593   6.549  12.335   6.932  3.1448 -0.8163 -0.8447
18427SOL     OW65594   9.626  12.939   7.390  0.2269  0.7107 -0.0444
18427SOL    HW165595   9.706  12.929   7.441  1.3256  4.0534 -0.8601
18427SOL    HW265596   9.640  13.018   7.339 -2.4412 -0.2427 -2.5238
18428SOL     OW65597   5.401   6.775   9.478 -0.2723  0.1642 -0.4674
18428SOL    HW165598   5.315   6.801   9.512 -0.1814 -0.2153  0.0667
18428SOL    HW265599   5.409   6.822   9.395 -0.9441  0.3022 -0.4611
18429SOL     OW65600   2.782   2.294   1.834  0.2086  0.7796 -0.4547
18429SOL    HW165601   2.788   2.213   1.884  0.7305  0.2932 -1.2775
18429SOL    HW265602   2.844   2.353   1.876  1.4445  0.0237 -1.1462
18430SOL     OW65603   1.970   0.120   1.787 -0.2616 -0.0123  0.5042
18430SOL    HW165604   1.919   0.061   1.731  0.2328 -0.2632  0.3192
18430SOL    HW265605   2.049   0.071   1.807 -0.3344  0.1708  1.2374
18431SOL     OW65606   8.068   4.752   3.444 -0.4126 -0.0194  0.4822
18431SOL    HW165607   8.065   4.727   3.351 -1.6433 -1.6745  0.9110
18431SOL    HW265608   8.076   4.668   3.490 -1.3948  0.6488  1.9255
18432SOL     OW65609   7.695   0.875   0.697 -0.3664  0.1560 -0.6062
18432SOL    HW165610   7.736   0.809   0.752  1.0057  1.7531  0.3618
18432SOL    HW265611   7.602   0.869   0.719 -0.0984 -0.5859  0.4123
18433SOL     OW65612  11.932   7.524  10.083  0.0971  0.5639 -0.1614
18433SOL    HW165613  11.913   7.524   9.989  1.0354 -0.4777 -0.3691
18433SOL    HW265614  11.984   7.603  10.097 -1.5936  1.7298 -0.1519
18434SOL     OW65615  10.274   1.481   8.270 -0.3080  0.1736 -0.0099
18434SOL    HW165616  10.270   1.388   8.246 -1.9876  0.6260 -1.6841
18434SOL    HW265617  10.226   1.486   8.353 -0.4084 -0.4186 -0.0246
18435SOL     OW65618   5.060   8.869   6.450  0.3001 -0.2602  0.4611
18435SOL    HW165619   5.141   8.825   6.477  1.3072  1.6906  0.7530
18435SOL    HW265620   5.005   8.868   6.529  0.7873  0.0502  0.8055
18436SOL     OW65621   2.715   1.042  11.101 -0.0138 -0.2930 -0.4128
18436SOL    HW165622   2.621   1.064  11.103 -0.2503 -1.2967 -0.3037
18436SOL    HW265623   2.740   1.033  11.193  0.4427  0.9442 -0.3893
18437SOL     OW65624   1.054   3.939   0.979  0.3474 -0.5182 -0.4615
18437SOL    HW165625   1.129   3.997   0.966  0.4837 -0.5008  0.3510
18437SOL    HW265626   1.023   3.959   1.067  0.6055 -1.9215 -0.0287
18438SOL     OW65627  10.495   8.367   8.072 -0.0829  0.0602  0.1518
18438SOL    HW165628  10.483   8.371   8.167 -0.4445  0.0864  0.1056
18438SOL    HW265629  10.425   8.422   8.037 -0.0480 -0.0815 -0.1383
18439SOL     OW65630   9.678   9.797   4.511  0.0713  0.7533 -0.2490
18439SOL    HW165631   9.705   9.730   4.574 -1.1183  1.1139  0.6908
18439SOL    HW265632   9.757   9.816   4.460  0.6712 -0.6515  0.1136
18440SOL     OW65633   6.077   1.075   2.097  0.1295 -0.5293  0.2513
18440SOL    HW165634   6.058   0.988   2.133 -0.3309 -1.0605 -1.2033
18440SOL    HW265635   5.994   1.104   2.059  0.3221  0.4734  0.5664
18441SOL     OW65636   5.980   8.909   3.044 -0.0848  0.3544 -0.0035
18441SOL    HW165637   6.032   8.977   3.086 -0.3034  1.0892 -0.8771
18441SOL    HW265638   6.034   8.879   2.970 -0.1597 -0.1349  0.1374
18442SOL     OW65639   3.916  12.936   2.691  1.0443 -0.1320 -0.2525
18442SOL    HW165640   3.992  12.885   2.720  0.5698  0.3352  2.0377
18442SOL    HW265641   3.953  13.005   2.637  2.0219 -1.0152 -0.7520
18443SOL     OW65642  10.243   0.027   3.845 -0.5944  0.6204 -0.0344
18443SOL    HW165643  10.181  -0.028   3.798  0.4555  0.0655 -0.8132
18443SOL    HW265644  10.295  -0.035   3.897 -0.3727  1.0249  0.2329
18444SOL     OW65645   7.194  10.513   0.347  0.5934  0.6004  0.3565
18444SOL    HW165646   7.224  10.422   0.346  0.2956  0.4976  0.5043
18444SOL    HW265647   7.134  10.517   0.422  0.0135  0.7230 -0.1058
18445SOL     OW65648   5.198   2.283   0.239  0.0843 -0.3328  0.3649
18445SOL    HW165649   5.250   2.205   0.218 -0.9823 -0.5454 -1.7323
18445SOL    HW265650   5.112   2.265   0.201 -0.3606  1.6398  0.3579
18446SOL     OW65651  11.579   3.970  12.304  1.4275  0.3650 -0.1326
18446SOL    HW165652  11.553   3.917  12.379 -0.6259  1.0601 -0.3001
18446SOL    HW265653  11.548   4.058  12.325  0.7308  0.5538 -1.8191
18447SOL     OW65654  11.812  11.369  11.674  0.6275 -0.3845 -0.1579
18447SOL    HW165655  11.773  11.298  11.625 -0.3060 -0.9749  1.3669
18447SOL    HW265656  11.879  11.327  11.729 -0.2632 -0.1980  1.1156
18448SOL     OW65657   7.843  10.965   7.866 -0.5919  0.2508 -0.1190
18448SOL    HW165658   7.748  10.971   7.877 -0.3876  0.5569  1.7034
18448SOL    HW265659   7.877  11.043   7.908  0.5807 -0.8565  1.0776
18449SOL     OW65660  10.697  11.730   0.437 -0.0952 -0.3389 -0.1972
18449SOL    HW165661  10.606  11.701   0.436 -0.0951 -0.6934  2.5617
18449SOL    HW265662  10.693  11.822   0.462  0.2709  0.1526 -1.8173
18450SOL     OW65663   7.149  12.831   7.771 -0.6117 -0.5729 -0.2652
18450SOL    HW165664   7.173  12.751   7.723 -0.8163 -1.8394  1.6391
18450SOL    HW265665   7.227  12.852   7.822 -0.8898 -0.1062 -0.0279
18451SOL     OW65666   7.803   1.719   1.661 -0.1007 -0.0353 -0.4953
18451SOL    HW165667   7.876   1.701   1.601 -1.0270  0.4656 -1.8176
18451SOL    HW265668   7.844   1.763   1.736  0.9795  0.1252 -1.1550
18452SOL     OW65669  12.128   4.820   0.290 -0.0804 -0.1226  0.2662
18452SOL    HW165670  12.130   4.743   0.233 -0.5181  0.2434 -0.2595
18452SOL    HW265671  12.193   4.802   0.357  0.6331 -0.4544 -0.4982
18453SOL     OW65672   5.569   4.347   4.559 -0.1889 -0.9411  0.1713
18453SOL    HW165673   5.483   4.359   4.518 -0.8373 -1.0007  1.4488
18453SOL    HW265674   5.563   4.261   4.601 -0.2398 -0.1079  1.9486
18454SOL     OW65675   7.672   5.447  12.536 -0.7937  0.1044 -0.1994
18454SOL    HW165676   7.714   5.362  12.551  0.0897  0.5266 -0.2431
18454SOL    HW265677   7.613   5.431  12.462  0.5630 -0.1047 -1.2920
18455SOL     OW65678   8.654   1.578  12.037 -0.3945  0.4351 -0.5031
18455SOL    HW165679   8.594   1.651  12.048 -0.4575  0.1285  1.4854
18455SOL    HW265680   8.739   1.612  12.066 -0.6830 -0.5986  1.7452
18456SOL     OW65681  10.193   3.901   0.973 -0.4202 -0.2323  0.5231
18456SOL    HW165682  10.233   3.893   0.886 -2.6681 -0.0723 -0.5963
18456SOL    HW265683  10.203   3.993   0.996 -1.5191  0.1539 -0.4725
18457SOL     OW65684   5.544   0.845   9.858 -0.1540 -0.4094 -0.0188
18457SOL    HW165685   5.508   0.861   9.771  0.5808 -1.8968 -0.6260
18457SOL    HW265686   5.536   0.750   9.871  2.0729 -0.5996  0.4536
18458SOL     OW65687   0.145   7.703   7.685 -0.2819  0.3385  0.3472
18458SOL    HW165688   0.181   7.746   7.763  0.4593  0.1109  0.1380
18458SOL    HW265689   0.063   7.749   7.668  0.5867  1.8306 -0.0010
18459SOL     OW65690  12.473  10.029  11.328 -0.0016  0.3505 -0.2435
18459SOL    HW165691  12.529  10.023  11.406  1.5066  0.0594 -1.3028
18459SOL    HW265692  12.432   9.943  11.321 -0.9116  0.6805  0.7460
18460SOL     OW65693  10.605   3.736  10.440 -0.0900  0.1423 -0.6150
18460SOL    HW165694  10.648   3.650  10.442 -1.4417 -0.5616  1.2702
18460SOL    HW265695  10.512   3.716  10.450 -0.5020  1.8092 -0.8595
18461SOL     OW65696  10.787  12.425   1.961 -0.1335 -0.0301  0.0572
18461SOL    HW165697  10.856  12.376   2.007  1.9233 -1.4290 -4.0304
18461SOL    HW265698  10.833  12.495   1.915 -1.5285 -0.4204 -2.0663
18462SOL     OW65699   4.611   1.987   9.724  0.3230 -0.4751  0.2913
18462SOL    HW165700   4.673   2.058   9.740  0.5170 -0.3012 -1.1743
18462SOL    HW265701   4.640   1.947   9.643 -0.6632 -1.2904  0.3215
18463SOL     OW65702  12.031   1.008   6.817 -0.0620 -0.4232  0.3612
18463SOL    HW165703  12.009   1.088   6.768  0.4061 -0.7437 -0.3935
18463SOL    HW265704  11.981   0.939   6.774  1.7474 -1.0291 -0.8943
18464SOL     OW65705   7.650   9.841   4.510  0.0432  0.8713  0.0322
18464SOL    HW165706   7.588   9.783   4.466 -0.4761  1.3396  0.1280
18464SOL    HW265707   7.610   9.928   4.503 -0.8552  0.7535  2.7874
18465SOL     OW65708   6.417   1.514   5.266  0.0457 -0.4208  0.8681
18465SOL    HW165709   6.452   1.442   5.319  0.5568 -1.1438 -0.4170
18465SOL    HW265710   6.488   1.536   5.206 -0.9618 -0.5024 -0.3903
18466SOL     OW65711   0.419   7.383   7.345 -0.2226  0.6111 -0.3203
18466SOL    HW165712   0.453   7.319   7.282  0.5025  1.7337 -1.0980
18466SOL    HW265713   0.476   7.374   7.421  0.8057  1.3107 -0.9781
18467SOL     OW65714   4.526   5.761  10.483  0.2103 -0.4524  0.8106
18467SOL    HW165715   4.603   5.758  10.427  0.2406 -1.2397  0.8849
18467SOL    HW265716   4.516   5.854  10.505  0.0261 -0.0908 -0.7071
18468SOL     OW65717   5.946  10.424   7.041  0.2686  0.4133 -0.3217
18468SOL    HW165718   5.859  10.458   7.064 -0.6867 -0.9109 -1.8277
18468SOL    HW265719   5.982  10.395   7.125 -1.0493  0.3103  0.2432
18469SOL     OW65720   4.160   4.629  12.584 -0.7675  0.2883 -0.0052
18469SOL    HW165721   4.065   4.636  12.579 -0.9709 -1.4908  0.6387
18469SOL    HW265722   4.176   4.540  12.617  1.1369  0.2645 -0.8553
18470SOL     OW65723   4.201  11.717   7.612  0.1640  0.2832  0.1133
18470SOL    HW165724   4.253  11.789   7.576  1.0379  0.1964  1.1539
18470SOL    HW265725   4.112  11.751   7.616  0.4763  1.1188  0.1076
18471SOL     OW65726   9.589  10.361   9.981 -0.4634 -0.3011  0.6678
18471SOL    HW165727   9.532  10.283   9.979  0.2592 -1.0915  4.4449
18471SOL    HW265728   9.677  10.326   9.995  1.1127  0.9612 -4.0723
18472SOL     OW65729  12.370   0.434   1.732 -0.4761  0.1563  0.2292
18472SOL    HW165730  12.362   0.374   1.657  1.1501  0.9113 -0.5954
18472SOL    HW265731  12.301   0.498   1.718 -0.8850 -0.3292 -0.0322
18473SOL     OW65732   0.876   3.005   9.394  0.5737  0.9095  0.2790
18473SOL    HW165733   0.867   3.009   9.299  2.1076  0.9598  0.1258
18473SOL    HW265734   0.872   2.911   9.414  1.4981  0.8050  0.0198
18474SOL     OW65735   9.914   2.905  11.972  0.2548 -0.0710 -0.0885
18474SOL    HW165736   9.944   2.819  11.945  1.1788  0.4325 -0.6938
18474SOL    HW265737   9.841   2.925  11.913  0.2806 -0.2780 -0.1895
18475SOL     OW65738   7.309   3.949   5.092  0.2093 -0.1703  0.4877
18475SOL    HW165739   7.321   3.888   5.020  0.5027  0.3497  0.0860
18475SOL    HW265740   7.341   3.902   5.169 -0.1075 -0.7275  0.2866
18476SOL     OW65741   1.250   4.073   0.846  0.0519 -0.4495 -0.3500
18476SOL    HW165742   1.270   4.081   0.753  1.8839  1.5033  0.1261
18476SOL    HW265743   1.246   4.163   0.877  0.2839 -1.0717  1.6105
18477SOL     OW65744   2.827   1.289  11.056 -0.1396 -0.3038  0.0253
18477SOL    HW165745   2.893   1.282  11.124 -0.5546  0.0598  0.4764
18477SOL    HW265746   2.810   1.199  11.029  0.3764 -0.4114  0.0622
18478SOL     OW65747  10.226   5.171   8.576  0.0597  0.1267  0.5965
18478SOL    HW165748  10.290   5.101   8.564  0.1421 -0.1310  2.2485
18478SOL    HW265749  10.245   5.233   8.506  1.7760 -0.2123  0.6998
18479SOL     OW65750   9.734   7.364   0.475  0.4138 -0.0244  0.3697
18479SOL    HW165751   9.702   7.453   0.490 -2.0203 -1.0418  1.7420
18479SOL    HW265752   9.821   7.363   0.515  0.7437  1.8637 -0.2018
18480SOL     OW65753  11.994  11.441   9.147 -0.4556  0.4844 -0.0833
18480SOL    HW165754  11.925  11.380   9.171 -0.8254  1.1805  0.6878
18480SOL    HW265755  11.951  11.527   9.145  0.1367  0.7822 -0.7462
18481SOL     OW65756   7.239   1.380   3.303 -0.0228 -0.3003  0.2480
18481SOL    HW165757   7.169   1.360   3.240 -0.9403 -0.9813  1.4453
18481SOL    HW265758   7.194   1.426   3.374  0.3182 -2.5936  2.0266
18482SOL     OW65759   9.155  12.302  10.033 -0.2196 -0.7654  0.1437
18482SOL    HW165760   9.214  12.323  10.105 -1.6592 -0.3538  1.2603
18482SOL    HW265761   9.110  12.223  10.062 -1.7878  0.1542  0.3686
18483SOL     OW65762  10.849   4.693   4.002  0.0851  0.7603 -0.7196
18483SOL    HW165763  10.807   4.621   3.955 -1.6656  1.3503 -0.1249
18483SOL    HW265764  10.866   4.657   4.089  1.7095  0.2386 -1.2107
18484SOL     OW65765   0.077   7.942   6.511  1.0773  0.1956  0.0960
18484SOL    HW165766  -0.018   7.944   6.500  1.1715 -1.2497 -1.5064
18484SOL    HW265767   0.110   8.007   6.448  1.1650  0.6366  0.5905
18485SOL     OW65768   1.861   1.428   6.910  0.1479 -0.1949 -0.1164
18485SOL    HW165769   1.782   1.481   6.902 -0.3185 -0.8840 -0.2115
18485SOL    HW265770   1.921   1.464   6.845 -1.1130 -1.4214 -2.0786
18486SOL     OW65771   2.492  12.725   1.760 -0.8012 -0.5297 -0.1345
18486SOL    HW165772   2.550  12.753   1.689 -0.8097  1.1671  0.4732
18486SOL    HW265773   2.551  12.687   1.825 -0.4869  0.1437 -0.0147
18487SOL     OW65774   0.748   0.461   4.412  0.2098  0.4386 -0.7753
18487SOL    HW165775   0.680   0.462   4.345  0.7917  0.5534 -1.3766
18487SOL    HW265776   0.702   0.442   4.493 -0.5841  0.8356 -1.1224
18488SOL     OW65777  12.044   9.222   1.693 -0.2303  0.3005  0.5630
18488SOL    HW165778  11.979   9.152   1.706 -1.0562  0.6983 -1.1276
18488SOL    HW265779  12.101   9.215   1.769 -1.2936 -1.1217  1.3000
18489SOL     OW65780   4.299  10.163   5.665  0.1275  0.0737 -0.2734
18489SOL    HW165781   4.276  10.079   5.624  1.9038 -0.3059 -0.5621
18489SOL    HW265782   4.252  10.228   5.613  1.1176 -0.5262 -1.9846
18490SOL     OW65783   6.988  11.277   7.071 -0.3885  0.7363  0.0022
18490SOL    HW165784   7.008  11.205   7.011  1.4971  0.5518  0.7901
18490SOL    HW265785   6.907  11.315   7.036  1.2821  1.5328 -3.4943
18491SOL     OW65786   3.118   1.737  12.760 -0.0164 -0.2801 -0.0934
18491SOL    HW165787   3.111   1.832  12.775 -0.0900 -0.3098  0.0615
18491SOL    HW265788   3.034   1.702  12.790 -0.1493 -0.3487 -0.5390
18492SOL     OW65789   9.165   7.482   0.822 -0.8100 -0.0559 -0.2565
18492SOL    HW165790   9.248   7.525   0.841 -1.2108  0.9424 -0.6812
18492SOL    HW265791   9.139   7.517   0.736 -2.0733  0.3057  0.2439
18493SOL     OW65792   2.615  12.902   3.685  0.1859 -0.6760  0.2105
18493SOL    HW165793   2.604  12.987   3.726 -0.4463 -0.3181 -0.6654
18493SOL    HW265794   2.703  12.874   3.710  0.2039 -0.0106  0.9286
18494SOL     OW65795   4.641   4.652   9.555 -0.2663  0.6817  0.2412
18494SOL    HW165796   4.648   4.573   9.608 -0.5398 -0.0960 -0.8653
18494SOL    HW265797   4.614   4.720   9.618  1.5500  0.2983  1.5269
18495SOL     OW65798   5.030   6.338   4.806  0.0955 -0.8472  0.1692
18495SOL    HW165799   5.124   6.329   4.823  0.0551 -0.7261  0.4655
18495SOL    HW265800   4.999   6.248   4.795  0.4904 -0.8306 -1.3063
18496SOL     OW65801   9.127   8.901   7.905  0.2742  0.1814 -0.1207
18496SOL    HW165802   9.141   8.859   7.990  0.5204  2.2408  0.9076
18496SOL    HW265803   9.037   8.879   7.882  0.3786 -0.8490  0.3944
18497SOL     OW65804  10.005   6.160   7.068 -0.0434  0.0112 -0.1097
18497SOL    HW165805  10.092   6.132   7.039  0.6933  0.0678  1.8282
18497SOL    HW265806   9.944   6.117   7.009  1.3013 -0.0384 -1.5202
18498SOL     OW65807   5.950  12.849   0.962  0.2892  0.3163  0.2495
18498SOL    HW165808   6.025  12.894   1.001  0.2833  0.0566  0.5687
18498SOL    HW265809   5.977  12.757   0.960  0.1541  0.2860 -0.0498
18499SOL     OW65810   1.059   7.814   3.909  0.1279 -0.1378 -0.1545
18499SOL    HW165811   0.990   7.780   3.966  0.9275  0.1600  1.0461
18499SOL    HW265812   1.140   7.776   3.945  0.5873 -0.5837 -1.6049
18500SOL     OW65813  12.002   1.146   8.712 -0.6599 -0.4044  0.0314
18500SOL    HW165814  11.971   1.151   8.803  0.8930  0.8102  0.5434
18500SOL    HW265815  12.094   1.172   8.717 -0.9587  1.3717 -2.1064
18501SOL     OW65816   2.554   5.516   2.415  0.2152 -0.0258 -0.6820
18501SOL    HW165817   2.509   5.451   2.362  0.1160  0.2292 -0.9133
18501SOL    HW265818   2.643   5.483   2.424  0.2987  0.0472 -1.2077
18502SOL     OW65819   9.340  10.714   9.705 -0.3008 -0.0286 -0.1033
18502SOL    HW165820   9.417  10.669   9.741  1.5143  1.0598 -2.3942
18502SOL    HW265821   9.323  10.785   9.768  1.6477  0.7253 -0.3475
18503SOL     OW65822  12.785   5.817   0.514  0.0612 -0.4157 -0.5346
18503SOL    HW165823  12.804   5.897   0.464 -0.5139 -0.2252 -0.4600
18503SOL    HW265824  12.868   5.768   0.514  0.1831 -0.2247 -1.3141
18504SOL     OW65825   9.330   5.565   5.442  0.1586  0.1638 -0.2642
18504SOL    HW165826   9.363   5.496   5.385  0.4815  1.1091 -1.2697
18504SOL    HW265827   9.352   5.536   5.531  0.6635 -0.8155 -0.6978
18505SOL     OW65828   3.055   7.456   2.063 -0.1852 -0.3645  0.6485
18505SOL    HW165829   3.061   7.514   2.140 -2.9856  0.6096  0.2414
18505SOL    HW265830   3.036   7.370   2.100  0.2757 -0.2830  1.1001
18506SOL     OW65831   7.757   1.874   3.875  0.2039 -0.1867 -0.0015
18506SOL    HW165832   7.721   1.930   3.944 -0.7466 -0.1161 -0.5351
18506SOL    HW265833   7.852   1.889   3.878 -0.0645  1.8520 -0.4511
18507SOL     OW65834   9.854   9.655   7.520  0.7174  0.2765 -0.5068
18507SOL    HW165835   9.930   9.712   7.521  1.8127 -1.0959 -1.3765
18507SOL    HW265836   9.890   9.567   7.519 -0.8909 -0.4151 -0.8366
18508SOL     OW65837   4.733   8.347  12.793 -0.4407 -0.0298 -1.1355
18508SOL    HW165838   4.747   8.436  12.825 -1.2245  0.2414 -1.5137
18508SOL    HW265839   4.778   8.291  12.856 -1.7256  0.4958  0.2844
18509SOL     OW65840   1.956   4.233   7.173  0.0860  0.2941 -0.0374
18509SOL    HW165841   1.918   4.278   7.248 -1.3050 -0.3098 -0.3324
18509SOL    HW265842   2.031   4.185   7.209 -0.7853 -0.2963  1.0675
18510SOL     OW65843   6.775   0.899   3.447 -0.2120 -0.0933  0.2991
18510SOL    HW165844   6.755   0.867   3.359 -1.5671 -0.9918  0.9079
18510SOL    HW265845   6.790   0.993   3.436  0.0126 -0.2525 -0.9322
18511SOL     OW65846   2.455   5.998   7.302 -0.3037  0.3529 -0.0209
18511SOL    HW165847   2.452   5.938   7.376  1.1433 -0.4716 -0.5941
18511SOL    HW265848   2.471   6.084   7.341 -0.1747  0.0223  0.6697
18512SOL     OW65849   2.185   9.192  12.099 -0.5872 -0.0062 -0.7074
18512SOL    HW165850   2.151   9.182  12.188  2.0968  1.0817  0.5619
18512SOL    HW265851   2.227   9.108  12.080  1.0180  0.5714  0.1302
18513SOL     OW65852   3.351   6.448   7.992 -0.2922 -0.1435 -0.0818
18513SOL    HW165853   3.387   6.437   7.903  0.7875 -1.7047  0.5055
18513SOL    HW265854   3.276   6.389   7.994  0.3339 -0.9487  0.3573
18514SOL     OW65855   6.842   1.222  12.865 -0.6312 -0.1221 -0.0260
18514SOL    HW165856   6.808   1.201  12.778  0.4493 -0.7803 -0.3099
18514SOL    HW265857   6.838   1.139  12.912 -0.6029  0.0846  0.3403
18515SOL     OW65858   7.023   5.617   3.753 -0.5470  0.2881  0.5117
18515SOL    HW165859   7.099   5.609   3.695  0.4600 -0.0912  1.8555
18515SOL    HW265860   6.958   5.557   3.716  0.3401 -0.4888  0.1865
18516SOL     OW65861   9.301  10.004   0.805 -0.6166  0.2205 -0.5023
18516SOL    HW165862   9.273   9.994   0.714  1.6177 -0.3629 -1.1940
18516SOL    HW265863   9.323  10.097   0.813 -0.4336  0.1949 -0.6902
18517SOL     OW65864   7.249   7.092   0.314 -0.3277 -0.0508  0.7577
18517SOL    HW165865   7.204   7.168   0.351 -0.0955  0.6706 -0.3675
18517SOL    HW265866   7.240   7.104   0.219  0.6762 -0.8513  0.5477
18518SOL     OW65867   6.386   8.967  12.283  1.1656  0.1748 -0.1820
18518SOL    HW165868   6.398   8.983  12.376  0.9235 -0.7161  0.0143
18518SOL    HW265869   6.295   8.989  12.265  1.3744  0.9371 -0.3481
18519SOL     OW65870  12.198  11.091   2.580  0.1757 -0.2925  0.1404
18519SOL    HW165871  12.174  11.033   2.653 -1.0737  0.8565  0.6774
18519SOL    HW265872  12.127  11.155   2.575  0.4404 -0.0689 -1.8195
18520SOL     OW65873   6.849   6.042   9.525 -0.9000 -0.1822  0.7910
18520SOL    HW165874   6.821   5.976   9.589 -0.8059 -0.1313  0.8856
18520SOL    HW265875   6.783   6.038   9.456 -0.4832 -0.9119  0.4227
18521SOL     OW65876   7.518   4.125   5.498  0.0181  0.6203 -0.1636
18521SOL    HW165877   7.479   4.129   5.586  0.7706  0.2171  0.1991
18521SOL    HW265878   7.579   4.199   5.495  1.0375 -0.1795  0.1867
18522SOL     OW65879   7.940   1.603   0.149 -0.0842 -0.1445  0.2907
18522SOL    HW165880   7.855   1.589   0.108  0.0461 -0.4472  0.1171
18522SOL    HW265881   7.996   1.533   0.112  0.0168 -0.4592  1.0263
18523SOL     OW65882  10.879  10.600   1.042  0.2348 -0.1975 -0.4494
18523SOL    HW165883  10.918  10.518   1.070 -0.7943 -0.6599 -0.3126
18523SOL    HW265884  10.877  10.595   0.947  1.3447  0.2376 -0.5060
18524SOL     OW65885   1.600   3.444   5.523  0.1501  0.2461 -0.2503
18524SOL    HW165886   1.537   3.375   5.505 -0.5375  0.6241  0.6262
18524SOL    HW265887   1.553   3.505   5.580  1.9195 -0.5452  2.2245
18525SOL     OW65888   9.764   0.108   5.165 -0.3413  0.2784 -0.2718
18525SOL    HW165889   9.737   0.197   5.142 -0.0935 -0.0100 -1.7824
18525SOL    HW265890   9.721   0.053   5.100  0.3144 -0.6149  0.0356
18526SOL     OW65891  12.414  12.548   7.938  0.3192  0.5749 -0.3376
18526SOL    HW165892  12.488  12.501   7.899  0.9164  1.1230  0.1271
18526SOL    HW265893  12.453  12.609   8.000 -0.4864  1.2708 -0.4912
18527SOL     OW65894  12.128   9.999  12.986 -0.0395 -0.3927  0.1787
18527SOL    HW165895  12.149  10.048  13.066 -0.9438 -0.4330  0.4535
18527SOL    HW265896  12.158   9.910  13.003 -1.0496 -0.6275  0.8600
18528SOL     OW65897   6.639   0.526  11.745 -0.7021 -0.3450 -0.1132
18528SOL    HW165898   6.544   0.521  11.754 -0.7048 -0.2638 -0.0965
18528SOL    HW265899   6.666   0.589  11.811 -0.4200 -1.8805  1.2862
18529SOL     OW65900   7.284   2.252   2.141 -0.2757 -0.4071  0.2150
18529SOL    HW165901   7.218   2.238   2.209 -0.9935 -2.4236 -0.8067
18529SOL    HW265902   7.258   2.334   2.099 -0.5510  0.2012  1.5097
18530SOL     OW65903   2.457  11.824   5.465 -0.2774  0.3444 -0.3828
18530SOL    HW165904   2.369  11.838   5.430 -0.8189 -1.5597  0.1392
18530SOL    HW265905   2.466  11.890   5.534 -0.8336  1.2828 -1.1659
18531SOL     OW65906  11.402   6.919  11.891 -0.2699  0.7306  0.5750
18531SOL    HW165907  11.413   6.999  11.840 -0.0524 -0.6628 -1.7337
18531SOL    HW265908  11.478   6.916  11.949  0.1902  1.7659  0.0437
18532SOL     OW65909   2.926   3.169   9.177  1.0730  0.4558  0.3768
18532SOL    HW165910   3.017   3.139   9.182  0.5362 -1.4457 -0.4128
18532SOL    HW265911   2.926   3.234   9.107  1.4852 -1.1108 -1.1538
18533SOL     OW65912   2.906   8.825  10.753  0.0482 -0.1750 -0.5800
18533SOL    HW165913   2.864   8.894  10.805 -2.2850 -0.6524 -1.6727
18533SOL    HW265914   2.956   8.775  10.817 -2.0336 -0.2281  1.1465
18534SOL     OW65915   8.948   6.391   7.583 -0.1180  0.4717 -0.1941
18534SOL    HW165916   8.858   6.386   7.615 -0.0862 -2.4990 -0.3198
18534SOL    HW265917   8.942   6.373   7.489  0.5727  0.8639 -0.3270
18535SOL     OW65918   3.479  12.252   1.101 -0.3652  0.1948  0.0588
18535SOL    HW165919   3.489  12.176   1.159 -0.2702  0.0587 -0.1363
18535SOL    HW265920   3.556  12.249   1.045  0.2219  1.0826  0.8008
18536SOL     OW65921   8.850  10.289   0.629  0.7962 -0.2333  0.4921
18536SOL    HW165922   8.895  10.322   0.551  2.6369  0.1499  1.6640
18536SOL    HW265923   8.798  10.364   0.660 -0.4326 -0.5678 -0.6557
18537SOL     OW65924  10.328   7.116   0.108  0.6086 -0.1102  0.3460
18537SOL    HW165925  10.385   7.172   0.161 -0.8093 -1.6710  3.8069
18537SOL    HW265926  10.342   7.028   0.143 -0.2121 -1.3407 -2.1953
18538SOL     OW65927   8.242  11.035   9.550 -0.1159 -0.6319  0.5859
18538SOL    HW165928   8.150  11.020   9.527  0.0032  0.0649 -0.3936
18538SOL    HW265929   8.241  11.043   9.645 -1.5943  2.5470  0.4169
18539SOL     OW65930   2.685   8.830   2.007  0.0411 -0.2968  0.3997
18539SOL    HW165931   2.680   8.874   2.092 -0.6482  0.9029 -0.2339
18539SOL    HW265932   2.650   8.894   1.945 -0.1488 -1.4245 -0.6938
18540SOL     OW65933   4.983   7.777   3.687  0.7153 -0.4746 -0.0755
18540SOL    HW165934   5.029   7.784   3.604  1.7788  0.6608  0.5830
18540SOL    HW265935   5.039   7.722   3.742 -0.1692 -1.5430 -0.2133
18541SOL     OW65936  10.348   0.941   7.478  0.0582 -0.1472  0.0979
18541SOL    HW165937  10.436   0.959   7.511  0.3168 -1.3988  0.1402
18541SOL    HW265938  10.298   0.913   7.554 -0.7866  1.8255  0.3303
18542SOL     OW65939   6.961   1.387   5.597 -0.0090 -0.1624 -0.1713
18542SOL    HW165940   7.025   1.442   5.554 -0.4528  0.3807 -0.1498
18542SOL    HW265941   6.883   1.393   5.541  0.4860 -2.2440 -1.1991
18543SOL     OW65942   4.400   1.814   0.912  0.1021 -0.1101  0.4683
18543SOL    HW165943   4.350   1.835   0.833 -2.1671  0.1341  1.8745
18543SOL    HW265944   4.464   1.885   0.920 -0.4619  0.5240 -0.4991
18544SOL     OW65945   0.243   5.917   9.316  0.1526  0.1300  0.1879
18544SOL    HW165946   0.270   5.999   9.356 -0.2929 -0.1509  1.0758
18544SOL    HW265947   0.316   5.857   9.332 -0.9408 -0.6712  2.7135
18545SOL     OW65948   6.952  12.442  12.680 -0.0891  0.2119 -0.7243
18545SOL    HW165949   7.045  12.423  12.667 -0.1406 -1.3431  0.7629
18545SOL    HW265950   6.950  12.528  12.721  0.7681 -0.1704  0.1402
18546SOL     OW65951   3.931   1.431   5.605 -0.4390 -0.1614 -0.2817
18546SOL    HW165952   3.923   1.416   5.700  0.5822 -4.7334 -0.6659
18546SOL    HW265953   3.849   1.398   5.569  0.1879 -0.8962 -1.0801
18547SOL     OW65954   7.987   0.284  11.223  0.5071 -0.8091  0.6388
18547SOL    HW165955   7.930   0.360  11.219 -1.7112 -2.3412  0.8710
18547SOL    HW265956   7.947   0.227  11.289  1.4621 -2.6324 -0.2493
18548SOL     OW65957   2.379   9.707  10.535  0.1735 -0.2013 -0.3108
18548SOL    HW165958   2.356   9.795  10.565 -0.8413 -0.8460  0.8919
18548SOL    HW265959   2.311   9.650  10.572 -0.6774 -1.2024 -3.1557
18549SOL     OW65960   6.217   7.452   3.076  0.1129 -0.0664 -0.0446
18549SOL    HW165961   6.231   7.361   3.051  3.7716  0.2143  0.4032
18549SOL    HW265962   6.217   7.451   3.172 -2.1114  0.2083 -0.0001
18550SOL     OW65963   4.624   6.694   1.577  0.1924 -0.1951 -0.3207
18550SOL    HW165964   4.664   6.607   1.574 -0.7389 -0.6224 -2.4416
18550SOL    HW265965   4.534   6.678   1.604 -0.3676 -0.1255 -1.9926
18551SOL     OW65966  11.740   8.538  11.062  0.1928  0.3778  0.5013
18551SOL    HW165967  11.787   8.467  11.106  0.1898 -0.1389 -0.3079
18551SOL    HW265968  11.648   8.514  11.069  0.1531  0.6051  0.7496
18552SOL     OW65969   4.899  12.067  10.929 -0.3185  0.1246 -0.1460
18552SOL    HW165970   4.970  12.095  10.987 -1.4964  1.4612  0.7094
18552SOL    HW265971   4.938  12.070  10.841  1.2266 -1.0702  0.4638
18553SOL     OW65972   6.670   2.101   8.380  0.5250 -0.0097 -0.1695
18553SOL    HW165973   6.709   2.023   8.339  0.5231  0.3434 -0.8627
18553SOL    HW265974   6.670   2.081   8.473  0.0038 -1.0793 -0.3786
18554SOL     OW65975  12.626   9.601   5.434 -0.1909  0.0828  0.6060
18554SOL    HW165976  12.678   9.679   5.415 -0.2536 -0.3325 -1.5611
18554SOL    HW265977  12.554   9.633   5.489 -0.0606  1.5137  0.0003
18555SOL     OW65978  12.631   2.486   1.128 -0.2417 -0.4707  0.0792
18555SOL    HW165979  12.714   2.484   1.080  0.5773  1.7987  1.2758
18555SOL    HW265980  12.648   2.540   1.205 -2.7038 -0.3336  0.6255
18556SOL     OW65981   0.502   8.765   4.711 -0.3129  0.2752 -0.2468
18556SOL    HW165982   0.532   8.751   4.621  0.7701  0.3702  0.0817
18556SOL    HW265983   0.526   8.855   4.731 -0.6818  0.3048  0.0908
18557SOL     OW65984   4.309   1.313   5.612  0.4054  0.4580 -0.0726
18557SOL    HW165985   4.321   1.369   5.689  0.9210 -1.0637  0.9940
18557SOL    HW265986   4.381   1.337   5.554 -0.1902  1.8694 -0.2663
18558SOL     OW65987   4.693  11.171   8.530  0.7050  0.3207 -0.4572
18558SOL    HW165988   4.615  11.195   8.478  0.7049 -0.5289 -0.8581
18558SOL    HW265989   4.725  11.255   8.563 -0.9353  0.6082  0.5182
18559SOL     OW65990  11.439   1.801   4.978 -0.6400  0.0618  0.3135
18559SOL    HW165991  11.397   1.720   4.952  0.7108 -0.1293 -1.4998
18559SOL    HW265992  11.452   1.849   4.896  0.5537  1.1162  1.0713
18560SOL     OW65993   5.199   2.742   6.707  0.2291  0.4879 -0.6804
18560SOL    HW165994   5.156   2.662   6.676  0.6328 -1.4937  3.2474
18560SOL    HW265995   5.132   2.787   6.758  0.7329  1.3886 -0.7896
18561SOL     OW65996  10.599   0.665  10.152  0.0633  0.0073 -0.4912
18561SOL    HW165997  10.549   0.648  10.073  0.3043 -1.3264 -0.3739
18561SOL    HW265998  10.558   0.611  10.219 -0.4969  1.5536  0.4612
18562SOL     OW65999   5.189   7.513   1.503 -0.1887 -0.3695 -0.5840
18562SOL    HW166000   5.110   7.461   1.488 -1.9906  2.0994 -0.4116
18562SOL    HW266001   5.174   7.554   1.589  0.8486  0.8182 -0.9445
18563SOL     OW66002   0.972   1.933   3.736  0.2423  0.0186  0.0537
18563SOL    HW166003   0.899   1.981   3.696  1.2702 -0.2526 -2.2862
18563SOL    HW266004   0.961   1.843   3.705  0.7245 -0.3642  0.9656
18564SOL     OW66005  10.547   9.230   2.366 -0.1635  0.3089  0.4903
18564SOL    HW166006  10.457   9.229   2.398  0.6712 -1.0353  3.0973
18564SOL    HW266007  10.591   9.297   2.420  0.7811 -0.3397  0.5521
18565SOL     OW66008   1.937   4.132  12.264 -0.5274 -0.5688 -0.0414
18565SOL    HW166009   1.987   4.062  12.221 -0.4274 -1.2693  1.1677
18565SOL    HW266010   1.846   4.103  12.258 -0.4375 -1.1164  0.9592
18566SOL     OW66011   8.561   8.168  11.089  0.0176 -0.4255 -0.0537
18566SOL    HW166012   8.494   8.234  11.109 -0.1861 -0.1475 -1.5714
18566SOL    HW266013   8.563   8.113  11.167 -0.0865  1.1202  1.0974
18567SOL     OW66014   3.861  10.638   9.403 -0.4027  0.5047 -1.0313
18567SOL    HW166015   3.848  10.733   9.407 -0.3198  0.4698  0.8113
18567SOL    HW266016   3.802  10.603   9.471  0.6847 -0.6247 -0.6345
18568SOL     OW66017  11.404  10.350   4.640  0.3609 -0.3663  0.3292
18568SOL    HW166018  11.367  10.344   4.553  1.3706 -0.3405 -0.1168
18568SOL    HW266019  11.340  10.402   4.690 -2.1444 -3.5646  0.7299
18569SOL     OW66020   7.709   1.802   2.437 -0.0441 -0.4516  0.2099
18569SOL    HW166021   7.724   1.746   2.513  0.1903  0.0661  0.5498
18569SOL    HW266022   7.682   1.886   2.473  2.3374  0.5459 -0.1375
18570SOL     OW66023   4.423   7.933   7.620  0.3692 -0.0178  0.4656
18570SOL    HW166024   4.511   7.971   7.623  0.4996 -0.2378 -0.3604
18570SOL    HW266025   4.438   7.839   7.607  0.0849 -0.5870  3.4563
18571SOL     OW66026   7.929  11.839  12.576  0.1403  0.1836  0.2067
18571SOL    HW166027   7.875  11.858  12.500 -1.4407 -0.1332  1.1929
18571SOL    HW266028   7.921  11.745  12.589 -0.0439  0.3034  1.0534
18572SOL     OW66029   9.882  12.880  11.569  0.3056  0.2691 -0.0154
18572SOL    HW166030   9.855  12.956  11.517 -0.4857  1.2043  1.7040
18572SOL    HW266031   9.822  12.810  11.542  2.1830 -0.3919 -2.9489
18573SOL     OW66032   9.241  12.509   0.354 -0.2295  0.3935 -0.3535
18573SOL    HW166033   9.267  12.432   0.304  2.4340  1.3331 -0.5611
18573SOL    HW266034   9.234  12.477   0.444 -2.5315 -0.7342 -0.8373
18574SOL     OW66035  10.110   4.049   8.051 -0.7149  0.4016 -0.0615
18574SOL    HW166036  10.118   3.999   7.969  0.2587  0.4418 -0.0052
18574SOL    HW266037  10.041   4.004   8.100  0.2598 -1.0230  0.0591
18575SOL     OW66038   2.487  12.957  11.699 -0.1188 -0.2715  0.7631
18575SOL    HW166039   2.459  13.000  11.780 -0.1051  0.9856  0.1200
18575SOL    HW266040   2.522  12.873  11.728 -2.2593 -0.8484  1.8177
18576SOL     OW66041  11.683   7.868   7.227  0.2417 -0.1897 -0.2811
18576SOL    HW166042  11.723   7.786   7.197  0.0915 -0.3865  0.0495
18576SOL    HW266043  11.593   7.862   7.196 -0.3104 -1.0302  1.3691
18577SOL     OW66044   3.269   2.706   0.441  0.2294 -0.7456  0.0085
18577SOL    HW166045   3.303   2.677   0.526 -1.5636 -0.0867  0.9931
18577SOL    HW266046   3.269   2.801   0.446  0.5167 -0.6849 -0.9232
18578SOL     OW66047   9.559   8.948  10.521 -0.3209 -0.2894 -0.4022
18578SOL    HW166048   9.562   8.985  10.433 -0.2996  1.0565  0.1357
18578SOL    HW266049   9.576   9.023  10.579 -3.8563 -0.3277  0.9244
18579SOL     OW66050   0.300   9.819  10.660 -0.3414  0.7341  0.0294
18579SOL    HW166051   0.303   9.913  10.677  1.2603  0.6225  0.5283
18579SOL    HW266052   0.378   9.801  10.607 -0.8760 -0.2529 -0.4667
18580SOL     OW66053   4.423   9.775   6.684  0.3561 -0.3400 -0.0408
18580SOL    HW166054   4.383   9.731   6.759  3.3702 -0.6668  1.5378
18580SOL    HW266055   4.480   9.708   6.645  0.7930  0.5827 -1.0423
18581SOL     OW66056   0.759   0.305   5.601 -0.5131 -0.1479  0.0196
18581SOL    HW166057   0.678   0.294   5.651 -0.5342  0.3790  0.1096
18581SOL    HW266058   0.751   0.243   5.529 -1.0781  0.0191 -0.0666
18582SOL     OW66059   7.650   7.279   2.090 -0.2553 -0.1601 -0.0123
18582SOL    HW166060   7.624   7.314   2.175 -0.9541  0.2186 -0.3792
18582SOL    HW266061   7.595   7.203   2.077  0.1044 -0.4318  0.0309
18583SOL     OW66062   2.006   4.328   5.538  0.4716 -0.2000  0.0042
18583SOL    HW166063   2.009   4.396   5.605 -1.5383 -0.5423  0.5319
18583SOL    HW266064   2.071   4.263   5.566  0.8884  0.4920  0.6572
18584SOL     OW66065   2.396  10.119   7.815  0.1271  0.1931 -0.4883
18584SOL    HW166066   2.437  10.201   7.844 -0.4390  0.7887 -1.3139
18584SOL    HW266067   2.410  10.118   7.720 -0.8855 -0.0874 -0.6469
18585SOL     OW66068  11.530  11.368   3.216  0.0800  0.0537 -0.3180
18585SOL    HW166069  11.501  11.450   3.256 -1.2582 -0.4975 -0.1241
18585SOL    HW266070  11.450  11.327   3.184  0.6662 -1.4288  0.0553
18586SOL     OW66071   2.767   7.708   3.209 -0.2806 -0.2050  0.5620
18586SOL    HW166072   2.680   7.696   3.246  0.0176  0.5602  1.5520
18586SOL    HW266073   2.819   7.747   3.280  1.0005 -1.0799  0.1519
18587SOL     OW66074   0.209  12.130  10.559  0.1859  0.1779  0.1773
18587SOL    HW166075   0.197  12.062  10.493  1.3405 -1.1672  1.3074
18587SOL    HW266076   0.262  12.089  10.627  0.3004  1.9933  1.2433
18588SOL     OW66077   9.118  11.051   1.114 -0.3680  0.1592  0.1151
18588SOL    HW166078   9.185  10.996   1.154 -0.8152  0.0354  0.7036
18588SOL    HW266079   9.041  10.995   1.107 -0.1068 -0.0467 -1.5932
18589SOL     OW66080   6.822   1.581   3.775  0.3043  0.0218 -0.6428
18589SOL    HW166081   6.740   1.532   3.779  1.0598 -1.2434  2.3435
18589SOL    HW266082   6.812   1.650   3.840  1.8490 -0.6374  0.3404
18590SOL     OW66083   8.619   4.956   8.204  0.4845 -0.4318 -0.1224
18590SOL    HW166084   8.655   4.921   8.286 -0.1226  0.3369  0.4879
18590SOL    HW266085   8.593   5.045   8.225  0.4409 -0.1741 -1.2026
18591SOL     OW66086   9.652   7.596   2.648 -0.3851  0.1795 -1.1150
18591SOL    HW166087   9.582   7.602   2.584  0.6940 -2.6220 -2.6951
18591SOL    HW266088   9.679   7.504   2.647  0.9550  0.3956  2.0326
18592SOL     OW66089   3.890   3.076   8.313  0.1771  0.6245  0.5680
18592SOL    HW166090   3.804   3.074   8.271 -0.8484  0.5852  2.5194
18592SOL    HW266091   3.919   3.166   8.305  0.6902  0.3357 -1.3989
18593SOL     OW66092  11.947  12.552   9.500 -0.0119  0.6900  0.3890
18593SOL    HW166093  11.927  12.483   9.563  0.6956  1.8421  1.9523
18593SOL    HW266094  11.863  12.571   9.458 -0.1172 -1.4649 -0.5168
18594SOL     OW66095   6.497   1.510  11.846 -0.1509  0.0532 -0.0706
18594SOL    HW166096   6.475   1.420  11.820  0.9956  0.3688 -2.3641
18594SOL    HW266097   6.592   1.510  11.854 -0.0992  1.1736 -0.5882
18595SOL     OW66098   4.216   4.552   6.467 -0.0753 -0.2210  0.3929
18595SOL    HW166099   4.126   4.571   6.491 -0.2284  0.7638 -0.8923
18595SOL    HW266100   4.256   4.520   6.548 -1.2021  0.6542  1.3206
18596SOL     OW66101   8.301   8.744   9.204  0.1845  0.9877  0.3596
18596SOL    HW166102   8.225   8.688   9.223 -0.0051  1.4583  1.0167
18596SOL    HW266103   8.263   8.829   9.184  0.5102  1.0514  0.0087
18597SOL     OW66104   4.467   9.196   7.774 -0.1057 -0.1616 -0.2351
18597SOL    HW166105   4.379   9.233   7.777  0.1178  0.3549  0.2880
18597SOL    HW266106   4.510   9.231   7.852 -0.0179 -1.9292  0.5417
18598SOL     OW66107  11.803   3.311  11.427  0.4148 -0.3437  0.4731
18598SOL    HW166108  11.776   3.403  11.420  0.7097 -0.3093 -0.2596
18598SOL    HW266109  11.721   3.263  11.436  0.2350 -0.0449  0.4385
18599SOL     OW66110   7.779   1.916   5.908 -1.1523 -0.0376 -0.0433
18599SOL    HW166111   7.713   1.928   5.839 -0.6756 -0.9877 -0.6744
18599SOL    HW266112   7.765   1.827   5.939 -1.2709  0.3362  1.0179
18600SOL     OW66113  10.159   9.699   7.277 -0.3524 -0.2380 -0.7245
18600SOL    HW166114  10.179   9.608   7.298  1.5679 -0.1095 -1.7978
18600SOL    HW266115  10.132   9.696   7.185 -0.1674  0.2902 -0.7955
18601SOL     OW66116   8.293   3.208  12.914  0.6536 -0.1621  0.7770
18601SOL    HW166117   8.227   3.164  12.860  0.7997 -0.2905  0.7023
18601SOL    HW266118   8.339   3.265  12.852 -0.3522  1.0575  1.0966
18602SOL     OW66119   1.796  12.313   1.206  0.4621 -0.1855 -0.3880
18602SOL    HW166120   1.880  12.345   1.239  0.0310  1.6118 -0.9187
18602SOL    HW266121   1.747  12.289   1.284  0.4543  1.4737  0.1661
18603SOL     OW66122   3.016   3.641   6.006 -0.1148 -0.4467 -0.2867
18603SOL    HW166123   3.066   3.585   5.947 -1.1829 -2.4795  0.6528
18603SOL    HW266124   3.074   3.716   6.022  1.0022 -0.8212 -2.2638
18604SOL     OW66125   8.202   5.985   6.811  0.4072  1.1101  0.0369
18604SOL    HW166126   8.254   6.041   6.868  0.5897  0.3112  0.6752
18604SOL    HW266127   8.120   5.971   6.860  0.1869  1.1799 -0.3113
18605SOL     OW66128  12.243   1.941   5.060 -0.2284 -0.2797  0.0375
18605SOL    HW166129  12.316   1.989   5.021  1.2323 -2.0007  0.5235
18605SOL    HW266130  12.248   1.854   5.022 -1.5064 -0.6908  0.7437
18606SOL     OW66131   8.982  12.938   2.482 -0.2835 -0.1617 -0.0794
18606SOL    HW166132   8.966  13.028   2.511  0.2817  0.7809 -2.5042
18606SOL    HW266133   8.896  12.897   2.487 -0.5949  0.5415  0.8596
18607SOL     OW66134   3.893  12.374  12.335  0.3767  0.3820  0.4908
18607SOL    HW166135   3.834  12.448  12.353 -1.0120 -0.1441 -1.4638
18607SOL    HW266136   3.864  12.306  12.396 -2.8974 -0.7295 -1.9875
18608SOL     OW66137   5.745   1.389   6.637 -0.3524 -0.1815 -0.1952
18608SOL    HW166138   5.724   1.391   6.730  0.6235 -0.4707  0.0457
18608SOL    HW266139   5.755   1.296   6.616 -1.7312 -0.2061 -0.8859
18609SOL     OW66140   9.070   6.932   2.441  0.1495  0.0422  0.6846
18609SOL    HW166141   9.058   7.018   2.481  1.9996  0.3389  0.6676
18609SOL    HW266142   8.992   6.920   2.387 -0.6529  1.2194  1.5266
18610SOL     OW66143   0.476  10.345   4.455 -0.2191 -0.1208  0.9304
18610SOL    HW166144   0.435  10.356   4.541 -1.6251 -1.7773  0.5146
18610SOL    HW266145   0.540  10.274   4.467 -1.1573 -1.0767  0.3934
18611SOL     OW66146   8.729   9.210  12.513  0.3859  0.0739  0.3448
18611SOL    HW166147   8.752   9.117  12.508  1.1279  0.2878 -0.2930
18611SOL    HW266148   8.771   9.250  12.437 -1.3483  0.6504 -0.3680
18612SOL     OW66149   5.200  12.384   4.618 -0.4369 -0.2179  0.4485
18612SOL    HW166150   5.115  12.422   4.592  0.1651  0.1277 -1.1651
18612SOL    HW266151   5.250  12.382   4.536  0.6429 -1.6641  1.1186
18613SOL     OW66152  12.265  11.393   1.476 -0.0991 -0.4397  0.0553
18613SOL    HW166153  12.260  11.297   1.480 -0.2101 -0.5181 -1.3687
18613SOL    HW266154  12.177  11.420   1.450  0.3163 -0.0743 -1.0236
18614SOL     OW66155   7.346   2.304   0.242  0.1238 -0.1465 -1.0310
18614SOL    HW166156   7.298   2.345   0.314  0.1732 -0.3771 -0.8677
18614SOL    HW266157   7.287   2.238   0.207  1.0352 -1.8462  0.4605
18615SOL     OW66158   6.506   2.526   7.256  0.1342 -0.3580  0.3695
18615SOL    HW166159   6.510   2.621   7.264  0.8877 -0.2454 -1.1301
18615SOL    HW266160   6.520   2.493   7.345 -0.9064  0.9249  1.0425
18616SOL     OW66161  10.513   1.483   6.900  0.4426 -0.4463  0.0218
18616SOL    HW166162  10.549   1.571   6.908  0.3068 -0.5186  1.6045
18616SOL    HW266163  10.424   1.497   6.869  1.1849 -0.1872 -2.1985
18617SOL     OW66164   0.201  11.978  12.535  0.4164  0.1717 -0.1546
18617SOL    HW166165   0.121  11.983  12.587  0.8055 -0.1869  0.4949
18617SOL    HW266166   0.263  12.035  12.580  0.8021 -0.2510 -0.1351
18618SOL     OW66167   0.857   7.059   1.582 -0.4087  0.0941  0.4644
18618SOL    HW166168   0.854   7.016   1.497  0.6553 -0.1383  0.5259
18618SOL    HW266169   0.794   7.011   1.636 -1.0082  0.1740 -0.1550
18619SOL     OW66170   8.998   3.084   1.759 -0.0902 -0.1364  0.1343
18619SOL    HW166171   9.028   3.020   1.824  1.0610 -0.1378 -0.3691
18619SOL    HW266172   9.064   3.153   1.761 -0.2367  0.0412 -0.7774
18620SOL     OW66173   0.891   3.940  11.376 -0.3704  0.7374  0.3480
18620SOL    HW166174   0.883   4.032  11.401  0.9416  0.8139  0.5609
18620SOL    HW266175   0.980   3.916  11.401 -0.3596 -0.3168 -0.6114
18621SOL     OW66176  10.214   4.006   9.480  0.7831 -0.2901 -0.4095
18621SOL    HW166177  10.305   3.978   9.489  0.9718  0.1194 -0.9877
18621SOL    HW266178  10.219   4.098   9.456  0.1578  0.5240  2.2712
18622SOL     OW66179   6.256   1.160   7.145  0.0433  0.3165  0.2617
18622SOL    HW166180   6.291   1.248   7.138  1.2905 -0.2236 -0.6144
18622SOL    HW266181   6.323   1.104   7.106  0.3104 -1.2845  2.7383
18623SOL     OW66182  12.907  12.417   0.748 -0.3742 -0.2932 -0.1828
18623SOL    HW166183  12.906  12.500   0.795 -3.6524 -0.9472  1.1664
18623SOL    HW266184  12.952  12.356   0.807 -1.1623 -0.2653  0.4605
18624SOL     OW66185   3.605   5.643   6.243  0.4355 -0.2647  0.6876
18624SOL    HW166186   3.567   5.729   6.223 -0.6361 -0.8224  0.1942
18624SOL    HW266187   3.534   5.596   6.287  0.5090 -1.3703 -0.3302
18625SOL     OW66188   2.738   4.411  11.340 -0.6098 -0.0637 -0.1362
18625SOL    HW166189   2.679   4.440  11.410  0.5275  0.8061  0.4886
18625SOL    HW266190   2.781   4.334  11.376  0.1304  0.5062  0.2340
18626SOL     OW66191   2.731   4.360   0.549  0.0593  0.2459  0.1162
18626SOL    HW166192   2.776   4.418   0.487 -0.9751  1.1712  0.2139
18626SOL    HW266193   2.643   4.350   0.514 -0.0647 -0.5048  0.6159
18627SOL     OW66194  12.920   3.389  11.883 -0.2089 -0.3260  0.5495
18627SOL    HW166195  12.915   3.483  11.902  1.6470 -0.0768 -0.0570
18627SOL    HW266196  12.959   3.384  11.796 -0.7757 -1.6656  0.3559
18628SOL     OW66197  12.102   5.483   2.451  0.5629  0.6563  0.0295
18628SOL    HW166198  12.009   5.503   2.468  0.3469  0.6435 -1.0902
18628SOL    HW266199  12.128   5.429   2.525  0.3783  2.7288  1.7149
18629SOL     OW66200   6.431   1.176   2.843  0.0292 -0.1959  0.4601
18629SOL    HW166201   6.441   1.271   2.846  0.3965 -0.2018 -0.3091
18629SOL    HW266202   6.340   1.162   2.815  1.0877  0.0299 -3.7563
18630SOL     OW66203   3.847   3.883   8.640 -0.2331 -0.4330  0.4493
18630SOL    HW166204   3.809   3.851   8.558 -1.5419  0.7397  0.5614
18630SOL    HW266205   3.877   3.971   8.620  2.1986 -1.1610  0.4741
18631SOL     OW66206  11.794  12.045   5.791  0.1936  0.1445  0.2169
18631SOL    HW166207  11.733  11.995   5.738  1.3916 -1.4164  0.2158
18631SOL    HW266208  11.788  12.134   5.758 -0.7210 -0.3448 -1.0071
18632SOL     OW66209   9.181   3.512   6.745  0.5749  0.0048  0.4805
18632SOL    HW166210   9.263   3.545   6.780  2.5157 -3.7838  0.0008
18632SOL    HW266211   9.131   3.485   6.822  1.6035 -1.3882  0.7038
18633SOL     OW66212  10.841  10.003   7.203 -0.3469  0.2773 -0.6507
18633SOL    HW166213  10.884  10.071   7.152 -0.3475  0.3075 -0.6113
18633SOL    HW266214  10.758  10.042   7.231 -0.7748 -0.0678 -1.4172
18634SOL     OW66215   3.496  12.588   5.733  0.5349 -0.7171 -0.3167
18634SOL    HW166216   3.579  12.580   5.780  0.4584 -0.3555 -0.1139
18634SOL    HW266217   3.499  12.519   5.667 -0.1101 -2.3801  1.3148
18635SOL     OW66218  12.333   8.971   0.205 -0.1922 -0.4656  0.2812
18635SOL    HW166219  12.373   9.055   0.230 -0.9409  0.8966 -2.6955
18635SOL    HW266220  12.378   8.906   0.259  1.5472  1.6644  1.5553
18636SOL     OW66221   6.460   8.213   1.519 -1.3426 -0.6389 -0.1049
18636SOL    HW166222   6.499   8.162   1.449 -0.3719  1.1695 -0.9662
18636SOL    HW266223   6.370   8.230   1.489 -0.8116  0.4726 -1.1782
18637SOL     OW66224  11.331  12.385   8.206  0.2860 -0.3839  0.0075
18637SOL    HW166225  11.350  12.328   8.131 -0.4165  0.1523 -0.5926
18637SOL    HW266226  11.319  12.472   8.168  0.5243  0.0105  0.8177
18638SOL     OW66227   4.345  11.800   0.621 -0.1716  0.2412  0.6873
18638SOL    HW166228   4.302  11.795   0.535 -1.0978 -0.6864  1.1894
18638SOL    HW266229   4.404  11.724   0.622  0.6544  0.8677  0.4528
18639SOL     OW66230   9.946   0.462   4.283  0.1836 -0.1496 -0.0001
18639SOL    HW166231   9.877   0.428   4.227 -0.7739  0.7395  0.5940
18639SOL    HW266232   9.926   0.555   4.291  1.0224 -0.0242  0.8019
18640SOL     OW66233   5.104   9.622   2.227  0.1466  0.2503 -0.2521
18640SOL    HW166234   5.113   9.538   2.182  1.2580  0.8814 -1.2437
18640SOL    HW266235   5.015   9.620   2.263  0.4978 -1.7873  0.6773
18641SOL     OW66236   6.374  10.350   3.402  0.1282 -0.2220  0.0627
18641SOL    HW166237   6.303  10.306   3.355 -0.1627  0.1521  0.1438
18641SOL    HW266238   6.333  10.428   3.439  0.4089 -0.3835  0.7339
18642SOL     OW66239   1.363   3.469   7.332  0.2308 -0.4653 -0.4335
18642SOL    HW166240   1.365   3.377   7.358  1.6111 -0.4818 -0.5086
18642SOL    HW266241   1.451   3.486   7.300 -0.4300  0.4893 -1.8428
18643SOL     OW66242   9.327  12.927  12.797  0.2943  0.0652 -0.1992
18643SOL    HW166243   9.268  12.872  12.745  0.5463 -0.2394 -0.1682
18643SOL    HW266244   9.285  12.934  12.883  1.3149 -1.9520  0.5403
18644SOL     OW66245   1.714  10.886   1.554 -0.1615  0.6692 -0.7250
18644SOL    HW166246   1.689  10.906   1.464  0.9497  2.4231 -0.6991
18644SOL    HW266247   1.657  10.941   1.608 -1.3290 -0.9118 -0.2772
18645SOL     OW66248   3.372   7.804  10.434  0.0771 -0.3363  0.3398
18645SOL    HW166249   3.328   7.734  10.386  0.0605 -1.4089  1.8153
18645SOL    HW266250   3.349   7.788  10.526  0.2290  1.5152  0.7528
18646SOL     OW66251  10.164   1.745   3.978 -0.0509 -0.2770  0.3466
18646SOL    HW166252  10.134   1.714   4.064 -0.8358  1.3643  0.7117
18646SOL    HW266253  10.086   1.741   3.923  0.2834 -0.6594 -0.1047
18647SOL     OW66254   6.480   6.745  10.562  0.2739  0.5800 -0.1290
18647SOL    HW166255   6.572   6.724  10.578  0.9024  1.7654 -1.8872
18647SOL    HW266256   6.477   6.766  10.468 -1.6548  1.2408  0.0531
18648SOL     OW66257  11.213   3.256   4.742 -0.1707  0.2979  0.0546
18648SOL    HW166258  11.203   3.194   4.814 -0.4068 -0.4597 -0.6152
18648SOL    HW266259  11.164   3.333   4.769  0.6391  0.4415  1.1724
18649SOL     OW66260   2.927   2.571   4.777 -0.0191 -0.1748  0.2390
18649SOL    HW166261   2.865   2.540   4.711 -1.5668 -0.8627  1.9098
18649SOL    HW266262   2.872   2.592   4.853  1.6101  1.2842  1.0765
18650SOL     OW66263   8.878   2.569   4.846  0.3300 -0.0649 -0.2703
18650SOL    HW166264   8.896   2.585   4.938  0.8584  1.1571 -0.5731
18650SOL    HW266265   8.927   2.489   4.825 -0.2454 -0.6732  0.6281
18651SOL     OW66266   7.766   0.870  12.144 -0.2521  0.4929 -0.8044
18651SOL    HW166267   7.734   0.900  12.059  1.8172  3.1294 -0.7835
18651SOL    HW266268   7.698   0.894  12.206 -0.9398  0.2951 -1.4714
18652SOL     OW66269   2.646   0.594   0.549 -0.3559 -0.3842  0.3555
18652SOL    HW166270   2.718   0.640   0.592 -0.9364 -0.0664  1.0069
18652SOL    HW266271   2.572   0.605   0.608 -1.2770  0.3932 -0.9012
18653SOL     OW66272   1.984   4.681   9.395 -0.6743 -0.2192  0.2092
18653SOL    HW166273   1.982   4.590   9.426 -0.1072  0.3193  1.9356
18653SOL    HW266274   2.004   4.732   9.473 -0.1848  1.3305 -0.8911
18654SOL     OW66275   2.259   1.683   5.066 -0.4524  0.4928 -0.7949
18654SOL    HW166276   2.301   1.611   5.019  0.9716  1.3485 -0.8943
18654SOL    HW266277   2.247   1.650   5.155  1.2679  0.5065 -0.5210
18655SOL     OW66278   9.436   2.925  11.400  0.6837 -0.1229 -0.0710
18655SOL    HW166279   9.506   2.931  11.336 -0.4397  0.6476 -1.2903
18655SOL    HW266280   9.355   2.930  11.348 -0.2884 -1.2234  1.2517
18656SOL     OW66281   8.910   7.326   0.799  0.6626  0.5185  0.1917
18656SOL    HW166282   8.997   7.344   0.835  0.2170  0.5154  1.3266
18656SOL    HW266283   8.875   7.413   0.777  1.1217  0.4859 -0.7196
18657SOL     OW66284   9.252   5.885   7.483  0.2843  0.3235  0.2680
18657SOL    HW166285   9.348   5.878   7.483  0.4223  1.7177  1.8506
18657SOL    HW266286   9.223   5.800   7.451  2.0463 -0.1230 -0.3038
18658SOL     OW66287   5.540   2.515   9.497  0.4433 -0.3186 -0.0197
18658SOL    HW166288   5.556   2.421   9.496  0.9581 -0.2920  1.8872
18658SOL    HW266289   5.625   2.554   9.516 -0.0962  0.4095  0.9911
18659SOL     OW66290   8.239   8.203   9.049 -0.2273  0.0298  0.4250
18659SOL    HW166291   8.271   8.122   9.007  1.6032  1.4177 -1.0198
18659SOL    HW266292   8.162   8.227   8.997 -0.3604 -0.4044  0.4147
18660SOL     OW66293   4.646  11.250   9.375  0.4726  0.0748 -0.2792
18660SOL    HW166294   4.731  11.208   9.370 -0.1114 -1.3502  0.9531
18660SOL    HW266295   4.665  11.344   9.371  2.2320 -0.1451  1.4006
18661SOL     OW66296   4.108  11.373   5.935 -0.2355  0.7212  0.6467
18661SOL    HW166297   4.143  11.357   6.023 -0.0809  0.3865  0.5255
18661SOL    HW266298   4.185  11.386   5.880 -0.3618  2.4141  0.8269
18662SOL     OW66299   8.881   4.087  10.391 -0.0953  0.2513  0.4504
18662SOL    HW166300   8.837   4.160  10.347  1.4411  0.6584 -0.5196
18662SOL    HW266301   8.816   4.053  10.452 -0.6675  2.8529  1.4399
18663SOL     OW66302   0.275   8.118   9.057 -0.2485  0.5027  0.2262
18663SOL    HW166303   0.218   8.058   9.009 -0.2384  0.2873  0.4817
18663SOL    HW266304   0.360   8.075   9.058 -0.1377  0.7156  0.0490
18664SOL     OW66305   3.373   6.658   9.260  0.2246 -0.0768 -0.1745
18664SOL    HW166306   3.436   6.586   9.260  0.3256  0.0114 -0.1440
18664SOL    HW266307   3.311   6.636   9.190 -0.3546 -0.7171  0.5320
18665SOL     OW66308  10.445   9.796   6.178  0.1310 -0.7709 -0.1655
18665SOL    HW166309  10.469   9.743   6.255  0.8701  0.5555  0.5520
18665SOL    HW266310  10.529   9.812   6.134 -0.2284 -1.1010 -0.9858
18666SOL     OW66311   8.054   0.433   2.498  0.1002 -0.3467 -0.3997
18666SOL    HW166312   7.973   0.451   2.545 -0.2516  0.1561 -1.1802
18666SOL    HW266313   8.030   0.438   2.405  0.9935 -0.2825 -0.6376
18667SOL     OW66314   8.697  12.600  11.916 -0.5454 -0.0053 -0.2459
18667SOL    HW166315   8.652  12.646  11.987 -1.0979  1.2771 -1.4034
18667SOL    HW266316   8.658  12.513  11.916 -1.7566  0.5190 -0.0749
18668SOL     OW66317  10.553  10.592   5.737 -0.6876  0.0001  0.2956
18668SOL    HW166318  10.540  10.609   5.830 -0.4450  0.1550  0.3017
18668SOL    HW266319  10.614  10.517   5.735  0.7122  1.0974  0.2657
18669SOL     OW66320   0.127   5.190   3.029 -0.0282 -0.4029  0.5838
18669SOL    HW166321   0.167   5.195   2.943  0.8829  0.5592  1.0401
18669SOL    HW266322   0.194   5.222   3.089 -2.2455  3.9068  1.1470
18670SOL     OW66323   5.117   3.156   3.785 -0.2639 -0.7500  0.5059
18670SOL    HW166324   5.046   3.218   3.768  0.3447 -0.1881 -0.0520
18670SOL    HW266325   5.123   3.104   3.705  0.6713 -0.0574  0.1039
18671SOL     OW66326  12.423  11.687   8.751 -0.2816 -0.1025 -0.1174
18671SOL    HW166327  12.488  11.626   8.717 -0.4261 -0.6726  0.5906
18671SOL    HW266328  12.466  11.729   8.826 -0.2065  0.6285 -0.5612
18672SOL     OW66329   9.444  12.125   6.825  0.0145  0.5243 -0.0894
18672SOL    HW166330   9.492  12.164   6.751  0.5845  1.1363  0.5898
18672SOL    HW266331   9.388  12.195   6.857 -0.4387  0.1750 -0.1129
18673SOL     OW66332   8.152  12.676  11.126  0.1129 -0.4388  0.0766
18673SOL    HW166333   8.083  12.655  11.188  0.7714 -2.0443  0.3125
18673SOL    HW266334   8.188  12.759  11.157 -2.0174  0.7177 -0.3653
18674SOL     OW66335  10.873   7.819   0.296  0.1171 -0.2389 -0.4220
18674SOL    HW166336  10.859   7.903   0.252  0.8672 -0.8805 -1.9590
18674SOL    HW266337  10.784   7.783   0.308 -0.1229  0.1416 -1.0336
18675SOL     OW66338  11.079   1.283   5.326 -0.2508  0.1419  0.0926
18675SOL    HW166339  11.145   1.227   5.287 -0.0325  0.4181  0.0621
18675SOL    HW266340  11.034   1.324   5.252 -1.1916 -0.8747  0.0803
18676SOL     OW66341   5.694  10.453   5.885  0.0870  0.1959 -0.1246
18676SOL    HW166342   5.629  10.398   5.842  0.1289  0.3411 -0.3740
18676SOL    HW266343   5.769  10.453   5.825  0.3225  0.0166  0.1671
18677SOL     OW66344   0.102  12.321   1.910 -0.4731 -0.4122 -0.6252
18677SOL    HW166345   0.120  12.294   2.000 -2.0974  1.1364  0.2207
18677SOL    HW266346   0.133  12.248   1.856  0.4103 -1.4285  1.1771
18678SOL     OW66347   9.464  12.389   5.410 -0.1309  0.0962  0.0046
18678SOL    HW166348   9.449  12.295   5.399 -0.0651  0.1083 -0.1863
18678SOL    HW266349   9.552  12.404   5.374  0.3662  0.0238  1.1238
18679SOL     OW66350   3.573   6.958   8.917 -0.2542  0.3876  0.4126
18679SOL    HW166351   3.590   6.864   8.914 -0.6334  0.3310 -0.1609
18679SOL    HW266352   3.650   6.998   8.877  0.0764  0.3498  0.9972
18680SOL     OW66353   9.440   9.612   0.710 -0.2505  0.1180  0.3767
18680SOL    HW166354   9.505   9.678   0.734 -0.4709 -0.0680  1.5525
18680SOL    HW266355   9.435   9.554   0.786 -1.2583 -0.2954  0.0218
18681SOL     OW66356  11.103  11.924   1.150  0.5848 -0.0362  0.3207
18681SOL    HW166357  11.081  12.013   1.175  1.9719  0.0408  1.4144
18681SOL    HW266358  11.134  11.931   1.060  0.1466  0.4734  0.1997
18682SOL     OW66359   0.044   6.093   8.244  0.4191 -0.4348 -0.6576
18682SOL    HW166360   0.085   6.144   8.315  0.3793 -0.7117 -0.4362
18682SOL    HW266361  -0.013   6.031   8.289 -0.1416 -0.1451 -0.9631
18683SOL     OW66362   0.030  12.610   9.055 -0.0932 -0.4785 -0.0705
18683SOL    HW166363   0.018  12.560   9.136 -2.0009  0.7364  0.4914
18683SOL    HW266364  -0.046  12.587   9.001  0.0771  0.2480 -0.6411
18684SOL     OW66365  12.423   3.045   1.241 -0.0725  0.2656 -0.0339
18684SOL    HW166366  12.412   3.116   1.178  2.6279  0.1298 -0.7787
18684SOL    HW266367  12.383   3.077   1.322  1.9325  3.1000 -0.0406
18685SOL     OW66368   7.377   0.100  12.434 -0.9110  0.2279  0.3595
18685SOL    HW166369   7.409   0.178  12.481  2.6959 -0.2470 -0.9856
18685SOL    HW266370   7.355   0.132  12.347 -2.8014  0.2617  0.8155
18686SOL     OW66371   3.628  10.377   5.472 -0.1553  0.0969  0.0742
18686SOL    HW166372   3.622  10.464   5.434  2.2559  0.0533 -0.5557
18686SOL    HW266373   3.665  10.391   5.560 -2.2724 -0.1146  1.0547
18687SOL     OW66374   2.877   9.496  11.003 -0.3076  0.4445  0.5215
18687SOL    HW166375   2.841   9.509  11.090 -0.0612  1.9613  0.4162
18687SOL    HW266376   2.964   9.536  11.006 -0.2401  0.3908 -0.3772
18688SOL     OW66377   5.055   9.391   7.311 -0.3866  0.4275  0.0408
18688SOL    HW166378   5.077   9.306   7.273  0.1558 -0.9638  3.1588
18688SOL    HW266379   4.959   9.396   7.305 -0.3959 -0.2232 -0.4862
18689SOL     OW66380   6.411   7.440   1.824  0.0836 -0.9424  0.1094
18689SOL    HW166381   6.427   7.448   1.917  0.4718 -1.3063  0.0762
18689SOL    HW266382   6.334   7.495   1.808 -0.2994 -1.2827  0.7303
18690SOL     OW66383  12.918   4.165   8.000 -0.4892 -0.1619  0.1427
18690SOL    HW166384  12.957   4.195   7.918 -1.3142 -1.1917 -0.6620
18690SOL    HW266385  12.992   4.153   8.059  0.1480  0.3728 -0.5273
18691SOL     OW66386   9.207  10.625   0.166 -0.1066 -1.1857 -0.3181
18691SOL    HW166387   9.208  10.633   0.261 -2.0778 -1.7916 -0.2027
18691SOL    HW266388   9.258  10.700   0.135 -0.2294 -0.4429  1.1902
18692SOL     OW66389   0.491   7.164   4.553 -0.4249  0.2024  0.6321
18692SOL    HW166390   0.555   7.099   4.525 -1.0307 -0.1741  0.1069
18692SOL    HW266391   0.475   7.143   4.645 -0.0078  0.1253  0.6904
18693SOL     OW66392   8.089   2.840   3.556  0.1107  0.2494 -0.2772
18693SOL    HW166393   8.087   2.823   3.462  1.3030  4.0090 -1.1415
18693SOL    HW266394   8.182   2.838   3.579  0.0432  1.7208  0.2345
18694SOL     OW66395   3.364   6.100   4.969 -0.2822  0.1668 -0.4244
18694SOL    HW166396   3.297   6.056   5.021 -0.9985  0.2643 -1.2531
18694SOL    HW266397   3.389   6.035   4.903  1.1195 -0.2107  0.4233
18695SOL     OW66398   4.021   6.614   3.678  0.0857 -0.3126 -0.1098
18695SOL    HW166399   4.020   6.526   3.717  0.8993 -0.8435 -1.2171
18695SOL    HW266400   4.100   6.615   3.624  0.0145  1.0708 -0.2174
18696SOL     OW66401   2.260   4.136  10.182 -0.0928  0.0972 -0.0648
18696SOL    HW166402   2.210   4.217  10.193  0.5437  0.5618 -0.5132
18696SOL    HW266403   2.230   4.100  10.099  1.9247  1.5983 -1.5536
18697SOL     OW66404  10.719   4.229   2.231 -0.2273  0.3783 -0.1297
18697SOL    HW166405  10.625   4.234   2.217 -0.1692 -1.2358 -1.4584
18697SOL    HW266406  10.747   4.321   2.236 -1.7563  0.9023 -0.4958
18698SOL     OW66407   3.395   0.105  12.439 -0.3596  0.6648  0.2484
18698SOL    HW166408   3.329   0.127  12.505  0.6949  0.7358  1.3288
18698SOL    HW266409   3.441   0.188  12.424 -1.4304  0.9638 -1.5999
18699SOL     OW66410  12.602   6.561   3.548 -0.1583  0.1007 -0.2923
18699SOL    HW166411  12.694   6.543   3.533 -0.0417 -0.3263  0.8357
18699SOL    HW266412  12.561   6.551   3.462  0.6570 -0.8669 -0.5800
18700SOL     OW66413   3.566  12.619   6.143 -0.2760 -0.0602 -0.2265
18700SOL    HW166414   3.604  12.600   6.057 -3.0710 -0.0512 -1.5759
18700SOL    HW266415   3.632  12.589   6.205  0.4462 -3.4278 -2.3222
18701SOL     OW66416   4.178   1.675   7.007  0.0805  0.5981 -0.1747
18701SOL    HW166417   4.118   1.747   7.028 -0.3453 -0.0390  0.8624
18701SOL    HW266418   4.265   1.716   7.006 -0.2406  1.2929 -0.4945
18702SOL     OW66419  12.502  10.010   3.461 -0.3591  0.8157 -0.3259
18702SOL    HW166420  12.504   9.920   3.495 -2.6931  0.6802 -0.3378
18702SOL    HW266421  12.583  10.050   3.492  0.0979 -0.8926  0.8272
18703SOL     OW66422   6.979   1.619   1.035 -0.2793 -0.1221  0.0370
18703SOL    HW166423   6.932   1.580   1.108  1.0037 -2.0300 -0.0708
18703SOL    HW266424   6.955   1.565   0.960 -0.6478  1.0769 -0.7370
18704SOL     OW66425  12.898   4.486   3.995  0.3628 -0.7433 -0.1371
18704SOL    HW166426  12.932   4.459   3.909  1.5308 -0.4501  0.2126
18704SOL    HW266427  12.885   4.581   3.986 -2.2902 -1.1083 -0.8840
18705SOL     OW66428   7.429   0.558   6.374 -0.0172  0.3369 -0.7913
18705SOL    HW166429   7.474   0.636   6.408  0.4117  0.0226 -0.6284
18705SOL    HW266430   7.380   0.590   6.299 -0.9661  1.0479  0.0962
18706SOL     OW66431   3.897  11.606   9.556 -0.2839  0.8214 -0.6478
18706SOL    HW166432   3.862  11.555   9.629 -1.0461  0.9439 -0.9093
18706SOL    HW266433   3.877  11.553   9.479  1.9782 -0.0929 -0.6562
18707SOL     OW66434   5.876   8.547  12.544  0.2033  0.1058 -0.5960
18707SOL    HW166435   5.847   8.463  12.508  1.2420 -1.1770  1.3630
18707SOL    HW266436   5.951   8.573  12.490 -0.4403  0.0563 -1.5296
18708SOL     OW66437   8.639   7.533   3.680 -0.3532  0.1648 -0.2107
18708SOL    HW166438   8.678   7.549   3.594  0.0970 -1.8140 -0.4198
18708SOL    HW266439   8.548   7.510   3.660 -0.5861  0.8977 -0.0351
18709SOL     OW66440   2.773   5.796   1.550 -0.2019 -0.1638 -0.5682
18709SOL    HW166441   2.682   5.792   1.581  0.3410  1.3831  1.4464
18709SOL    HW266442   2.824   5.760   1.622  0.8409 -0.3110 -1.3704
18710SOL     OW66443   0.058  12.131   3.558  0.4967  0.1633  0.1571
18710SOL    HW166444  -0.021  12.083   3.580  0.5530  0.4342  0.9832
18710SOL    HW266445   0.119  12.064   3.525  0.7758 -0.4361  1.8154
18711SOL     OW66446   2.776   3.754  12.209  0.3485 -0.2522  0.2988
18711SOL    HW166447   2.750   3.701  12.284  0.7854 -0.9928 -0.0611
18711SOL    HW266448   2.856   3.712  12.176 -0.1447 -0.2720 -0.9211
18712SOL     OW66449   4.029   6.854   7.371  0.6496  0.1581 -0.4719
18712SOL    HW166450   4.076   6.880   7.451  2.1489  0.1324 -1.3033
18712SOL    HW266451   4.009   6.762   7.384  1.4209 -0.0002 -0.3650
18713SOL     OW66452   3.225   9.383   3.793 -0.4405  0.1641  0.1653
18713SOL    HW166453   3.298   9.341   3.746 -0.3109 -0.9793  1.3280
18713SOL    HW266454   3.147   9.352   3.749 -0.3539 -1.5300  1.1416
18714SOL     OW66455   2.107   4.315  12.042 -0.2355  0.4032  0.0858
18714SOL    HW166456   2.178   4.378  12.030  0.3204 -0.5014 -1.6798
18714SOL    HW266457   2.028   4.365  12.024  0.1708  0.7186 -0.9070
18715SOL     OW66458  10.253  10.621   9.681 -0.6216  0.0518  0.5374
18715SOL    HW166459  10.170  10.625   9.633 -1.7187 -1.2502  2.2206
18715SOL    HW266460  10.250  10.695   9.741 -1.5038 -1.1143  1.9765
18716SOL     OW66461   6.304   9.020   2.130  0.3282 -0.1736  0.6712
18716SOL    HW166462   6.223   9.071   2.129  0.2119 -0.2448 -2.4405
18716SOL    HW266463   6.344   9.038   2.045  2.1628 -2.3523  0.9981
18717SOL     OW66464   7.660   4.472  10.945 -0.3404 -0.2694  0.3625
18717SOL    HW166465   7.665   4.560  10.984 -2.3181 -0.0066  0.1259
18717SOL    HW266466   7.607   4.484  10.866 -0.7908 -1.7219  0.4197
18718SOL     OW66467  12.283   7.310   6.090  0.3823 -0.4591 -0.0028
18718SOL    HW166468  12.262   7.247   6.021 -0.0362 -0.2659 -0.0516
18718SOL    HW266469  12.220   7.381   6.079 -0.1372 -0.7457  1.0000
18719SOL     OW66470   6.420   7.143   5.892 -0.4220 -0.0209 -0.5734
18719SOL    HW166471   6.461   7.064   5.927  1.7032  0.1604 -2.3851
18719SOL    HW266472   6.400   7.121   5.801  0.9198  1.7178 -1.3420
18720SOL     OW66473   9.090  11.052  12.643  0.5055 -0.1740 -0.3609
18720SOL    HW166474   9.050  11.131  12.679 -0.2367 -0.6304 -0.1468
18720SOL    HW266475   9.125  11.006  12.720  1.0380 -0.0024 -0.4978
18721SOL     OW66476   0.743  11.442   5.950  0.0713 -0.4546  0.4662
18721SOL    HW166477   0.751  11.447   5.855 -1.4703  0.4485  0.3520
18721SOL    HW266478   0.649  11.436   5.966  0.3230 -0.9206  1.9315
18722SOL     OW66479  11.119   5.153   7.297  0.0724  0.4119 -0.5185
18722SOL    HW166480  11.126   5.080   7.358  1.9825  0.5295 -0.5363
18722SOL    HW266481  11.209   5.168   7.267 -0.3642  2.3810 -0.9791
18723SOL     OW66482   5.774   0.208   2.851  0.3169 -0.0285  0.1820
18723SOL    HW166483   5.829   0.222   2.928  0.3162 -0.1214  0.1991
18723SOL    HW266484   5.835   0.203   2.778  0.5354 -2.2594  0.4437
18724SOL     OW66485  10.815   4.328   3.130  0.0020  0.8770  0.0763
18724SOL    HW166486  10.790   4.274   3.204  1.0949  1.1266  0.6555
18724SOL    HW266487  10.908   4.310   3.118 -0.6092 -1.0242 -2.8151
18725SOL     OW66488   5.380   2.953   7.816  0.0870 -0.1047 -0.7757
18725SOL    HW166489   5.412   2.923   7.731 -1.3005  0.6873 -1.6184
18725SOL    HW266490   5.398   3.047   7.817  0.3718 -0.1633 -0.0588
18726SOL     OW66491   3.349  10.626   7.166  0.3700  0.7995 -0.5765
18726SOL    HW166492   3.298  10.594   7.240  0.0270 -0.7270 -1.4267
18726SOL    HW266493   3.370  10.547   7.115  1.4997  1.6778 -1.5415
18727SOL     OW66494   6.318   1.502  10.612 -0.0297  0.3632  0.4587
18727SOL    HW166495   6.267   1.577  10.581 -1.0120  0.2258  1.6672
18727SOL    HW266496   6.253   1.433  10.626  0.3025  0.4606  2.8870
18728SOL     OW66497   8.179   4.504   5.080  0.1959 -0.1017  0.1252
18728SOL    HW166498   8.146   4.493   5.169  1.3314 -1.4634  0.4060
18728SOL    HW266499   8.138   4.434   5.030  0.0959  0.2425 -0.2842
18729SOL     OW66500  12.377  10.779   3.121 -0.5631 -0.5418 -0.5252
18729SOL    HW166501  12.371  10.761   3.215 -1.5148 -1.7998 -0.8065
18729SOL    HW266502  12.352  10.871   3.113  1.0662  0.0569  0.5908
18730SOL     OW66503   6.057   5.448   7.501  0.3877 -0.2425 -0.1327
18730SOL    HW166504   5.964   5.431   7.487 -0.0902  2.1611 -0.3378
18730SOL    HW266505   6.076   5.408   7.586 -0.3470 -2.3014 -0.8801
18731SOL     OW66506   2.368   5.173   5.760 -0.1723  0.0086 -0.0006
18731SOL    HW166507   2.402   5.262   5.768 -0.9271  0.3385 -0.3829
18731SOL    HW266508   2.286   5.174   5.810 -0.8578 -0.0965 -1.0814
18732SOL     OW66509   3.985   9.648  10.537  0.2226 -0.1375 -0.1709
18732SOL    HW166510   4.053   9.584  10.558 -0.1849 -0.6399 -0.3523
18732SOL    HW266511   3.904   9.597  10.538  0.1122 -0.1055 -2.4098
18733SOL     OW66512   8.903  10.454   5.150  0.4825  0.6707 -0.5227
18733SOL    HW166513   8.846  10.406   5.090 -1.0823  0.1144  1.3276
18733SOL    HW266514   8.980  10.397   5.160 -0.6799 -0.7837  0.4537
18734SOL     OW66515   2.402   3.670   6.980  0.1902 -0.0078  0.2031
18734SOL    HW166516   2.417   3.604   7.048  0.6925 -1.2019 -1.0135
18734SOL    HW266517   2.308   3.686   6.982 -0.2620 -2.1546 -0.6468
18735SOL     OW66518  10.873   4.529  12.504  0.4374 -0.1209 -0.7339
18735SOL    HW166519  10.963   4.558  12.514 -0.2152  2.3668 -1.2640
18735SOL    HW266520  10.870   4.485  12.419  1.2982 -0.9748 -0.3300
18736SOL     OW66521  11.064  12.891   4.725  0.0301 -0.1637  0.5493
18736SOL    HW166522  11.020  12.895   4.640  1.7277 -1.1423 -0.4250
18736SOL    HW266523  11.011  12.832   4.777 -0.2430 -0.7177 -0.3328
18737SOL     OW66524  11.682   1.575   5.033  0.6296 -0.2627 -0.4094
18737SOL    HW166525  11.696   1.492   5.080  0.1373  0.1244  0.4488
18737SOL    HW266526  11.682   1.550   4.941  0.2724 -1.2666 -0.1595
18738SOL     OW66527   1.109  11.970  10.944 -0.0006  0.4893 -0.1932
18738SOL    HW166528   1.138  12.038  10.884 -0.3312  0.7788 -0.0246
18738SOL    HW266529   1.112  11.889  10.892 -0.3036  0.7378 -0.6005
18739SOL     OW66530  10.780   1.491   4.473  0.3293 -0.1473 -0.3221
18739SOL    HW166531  10.837   1.523   4.403 -0.2945 -1.9442 -1.7417
18739SOL    HW266532  10.699   1.542   4.464 -0.2585 -1.2658 -1.8623
18740SOL     OW66533  11.539   3.846   3.783  0.6816 -0.1352  0.1690
18740SOL    HW166534  11.621   3.797   3.791  0.5989 -0.3824 -0.4284
18740SOL    HW266535  11.555   3.927   3.831  0.6514 -0.9537  1.6013
18741SOL     OW66536   4.817   3.419  10.985  0.5552  0.5050 -0.3350
18741SOL    HW166537   4.839   3.330  10.956  1.0799  0.9145 -1.2639
18741SOL    HW266538   4.795   3.410  11.077 -0.2273 -0.7260 -0.6139
18742SOL     OW66539   8.571   1.055  10.422  0.0146  1.0501 -0.2941
18742SOL    HW166540   8.597   0.967  10.395  2.2122  0.9970  1.6867
18742SOL    HW266541   8.611   1.114  10.358 -0.7790  0.6887 -1.1481
18743SOL     OW66542  10.000   7.017   0.864 -0.3034 -0.3988  0.0859
18743SOL    HW166543  10.072   7.077   0.846 -1.5799  1.3157  0.4195
18743SOL    HW266544  10.038   6.948   0.918  1.0917  0.4014  0.1632
18744SOL     OW66545   9.042  10.600   8.777  0.3266  0.1251 -0.2704
18744SOL    HW166546   9.034  10.511   8.811  0.3500 -0.3740 -1.5345
18744SOL    HW266547   8.955  10.637   8.787  0.1452 -0.2723 -0.3614
18745SOL     OW66548  10.745   4.585   1.304  0.3800  0.5553 -0.3813
18745SOL    HW166549  10.838   4.584   1.280  0.1788 -2.5266 -1.5066
18745SOL    HW266550  10.703   4.533   1.236 -2.3650  2.4923 -0.3416
18746SOL     OW66551   8.151  11.095  10.490 -0.2452 -0.3365 -0.0450
18746SOL    HW166552   8.137  11.115  10.397 -0.4654 -0.1953  0.0200
18746SOL    HW266553   8.143  11.179  10.535  1.4375 -0.1318 -0.0740
18747SOL     OW66554  11.654   5.058   5.049 -0.2041  0.7469 -0.5154
18747SOL    HW166555  11.615   5.112   4.980  0.0854 -0.3040 -1.5452
18747SOL    HW266556  11.696   4.986   5.001 -1.1541 -0.7676  0.8215
18748SOL     OW66557  10.223   1.110   0.391 -0.1690  0.1166 -0.8517
18748SOL    HW166558  10.289   1.043   0.372  0.8618  0.8219  0.0484
18748SOL    HW266559  10.271   1.176   0.441 -1.3091  1.2183 -1.1692
18749SOL     OW66560   1.487   2.855   7.700  0.1520 -0.3008  0.1259
18749SOL    HW166561   1.417   2.795   7.728 -0.5231  0.0530 -0.7291
18749SOL    HW266562   1.561   2.798   7.680  0.5422 -0.5920  2.1937
18750SOL     OW66563  11.608   0.702  11.237 -0.1609 -0.2095 -0.0977
18750SOL    HW166564  11.569   0.643  11.172 -0.7437 -1.4031  1.2500
18750SOL    HW266565  11.537   0.763  11.259 -0.5365 -0.8698  0.6027
18751SOL     OW66566   1.753   6.778   0.689 -0.9214  0.2580 -0.0303
18751SOL    HW166567   1.715   6.694   0.717 -0.0424 -0.9643 -2.2444
18751SOL    HW266568   1.843   6.756   0.665 -0.2265  2.1629  0.6617
18752SOL     OW66569  12.482   1.502   7.614 -0.2286 -0.1634  0.5682
18752SOL    HW166570  12.417   1.439   7.583 -0.4915  0.1237  0.5303
18752SOL    HW266571  12.566   1.459   7.599 -0.3589 -0.0934 -0.4210
18753SOL     OW66572   9.420   7.582   7.605  0.6015 -0.0413 -0.6472
18753SOL    HW166573   9.339   7.570   7.556  1.3481 -1.5709 -1.6035
18753SOL    HW266574   9.393   7.578   7.697 -0.3743 -0.9309 -0.9495
18754SOL     OW66575   8.308   3.090   6.527  0.1705 -0.2745 -0.5057
18754SOL    HW166576   8.389   3.141   6.530  1.6000 -2.4653  2.4096
18754SOL    HW266577   8.329   3.015   6.472  0.1386 -0.8138  0.2048
18755SOL     OW66578   7.496   2.088   4.815  0.3585  0.0399 -0.1136
18755SOL    HW166579   7.420   2.067   4.760  0.5631  2.0097 -1.2399
18755SOL    HW266580   7.570   2.090   4.754  1.0085 -0.0698  0.6564
18756SOL     OW66581   8.602   2.081   3.288 -0.4677 -0.3466 -0.2678
18756SOL    HW166582   8.668   2.059   3.223 -1.1287  0.1462 -1.1258
18756SOL    HW266583   8.525   2.030   3.262 -0.8140  0.0356 -0.0052
18757SOL     OW66584   6.740  10.280   5.037  0.6277  0.3974 -0.4689
18757SOL    HW166585   6.816  10.324   5.073 -0.0637  0.4901  0.9220
18757SOL    HW266586   6.753  10.188   5.060 -0.4664  0.6429  1.2593
18758SOL     OW66587   7.262   0.789   4.189  0.6548 -0.2929 -0.3805
18758SOL    HW166588   7.341   0.811   4.239  0.8873  0.4861 -1.0788
18758SOL    HW266589   7.285   0.805   4.098 -0.1456 -0.5647 -0.6433
18759SOL     OW66590   7.505   5.130   4.811  0.1782 -0.3239 -0.0845
18759SOL    HW166591   7.597   5.105   4.810  0.0819 -1.1095  2.4233
18759SOL    HW266592   7.462   5.067   4.753  1.2410  0.2624 -1.5337
18760SOL     OW66593  10.012  12.131   6.707 -0.6063  0.1879 -0.7486
18760SOL    HW166594   9.999  12.206   6.648  0.8852  1.5852  0.6029
18760SOL    HW266595   9.981  12.162   6.792 -0.5248 -0.9704 -0.2764
18761SOL     OW66596   6.386   2.742   9.119  0.3317  0.1153 -0.0269
18761SOL    HW166597   6.451   2.734   9.049  0.6199  4.2083 -0.4632
18761SOL    HW266598   6.301   2.734   9.075  0.5118  2.5420 -0.9421
18762SOL     OW66599   8.801   1.133   6.034 -0.3626 -0.0407  0.2761
18762SOL    HW166600   8.870   1.082   5.991  0.0148  1.3761 -0.8722
18762SOL    HW266601   8.736   1.067   6.060 -0.5088 -1.0377 -2.3111
18763SOL     OW66602   6.943  10.831   2.026  0.3544  0.2469  0.0017
18763SOL    HW166603   7.003  10.904   2.039 -0.3026  0.4564  2.2726
18763SOL    HW266604   6.937  10.789   2.111 -0.1332 -1.8178 -0.9949
18764SOL     OW66605   1.704   8.589  12.461 -0.0850  0.4612  0.0345
18764SOL    HW166606   1.658   8.562  12.382  0.2398  0.4170 -0.1421
18764SOL    HW266607   1.732   8.506  12.501 -1.4331  0.4041  0.9292
18765SOL     OW66608   0.296   1.461  11.148  0.4257 -0.2610 -0.1975
18765SOL    HW166609   0.213   1.449  11.193  0.6023 -0.6151  0.0399
18765SOL    HW266610   0.323   1.372  11.123  1.8855 -0.4422  1.7967
18766SOL     OW66611  10.458  11.812   6.165  0.3746 -0.2077  0.1530
18766SOL    HW166612  10.438  11.833   6.257  0.7300  1.9406 -0.2129
18766SOL    HW266613  10.532  11.752   6.170 -0.5332 -1.2858  1.2949
18767SOL     OW66614   4.309  12.933   0.183 -0.5677  0.7783 -0.0067
18767SOL    HW166615   4.379  12.923   0.247  0.0222  0.3648 -0.6934
18767SOL    HW266616   4.306  13.027   0.165 -0.3390  0.8231  0.1948
18768SOL     OW66617   8.701  11.463  11.941  0.4274 -0.0928 -0.6230
18768SOL    HW166618   8.726  11.442  12.031  0.8382 -1.4826 -1.0397
18768SOL    HW266619   8.754  11.540  11.920 -0.7158  1.1340  0.7739
18769SOL     OW66620  12.105   2.932   0.309 -0.4980 -0.0018 -0.3966
18769SOL    HW166621  12.139   2.849   0.343  1.0862 -0.2223 -2.2982
18769SOL    HW266622  12.163   2.999   0.346 -2.3792  0.4404  1.9345
18770SOL     OW66623  12.498   0.473   2.527  0.1239 -0.1711  0.1781
18770SOL    HW166624  12.433   0.540   2.547 -0.0070  0.0368 -0.9009
18770SOL    HW266625  12.579   0.506   2.566  0.2673  1.0620 -1.1119
18771SOL     OW66626   6.938  12.024  12.796 -0.1789 -1.3210  0.0050
18771SOL    HW166627   6.973  11.998  12.881  0.3510  0.0023  0.2057
18771SOL    HW266628   6.890  12.105  12.813  0.9499 -0.3649 -1.1372
18772SOL     OW66629  10.939   9.298   7.173 -0.4300 -0.0689 -0.5527
18772SOL    HW166630  10.866   9.353   7.205 -0.4304 -0.0874 -0.5213
18772SOL    HW266631  11.014   9.358   7.169 -0.9099  0.4802 -2.5632
18773SOL     OW66632   8.363   9.583  10.446 -0.1344  0.6414  0.2664
18773SOL    HW166633   8.419   9.640  10.394 -1.2022  2.1808  0.7246
18773SOL    HW266634   8.407   9.577  10.531  0.2760  0.2778  0.0331
18774SOL     OW66635   7.931   8.604   3.437  0.2450 -0.2370  0.2480
18774SOL    HW166636   7.874   8.548   3.490  0.7454 -0.6123  0.3923
18774SOL    HW266637   7.907   8.585   3.347  0.7093 -0.9999  0.2831
18775SOL     OW66638   3.366   6.281   3.850  0.3313 -0.1003 -0.4768
18775SOL    HW166639   3.343   6.194   3.881  0.0617  0.3650  0.6571
18775SOL    HW266640   3.420   6.318   3.919  1.3747  0.2358 -1.4403
18776SOL     OW66641   8.882   1.129  12.099  0.3092 -0.0578 -0.3480
18776SOL    HW166642   8.919   1.154  12.015  0.8697  1.1803  0.2408
18776SOL    HW266643   8.809   1.190  12.113 -0.8381 -1.3197 -0.6758
18777SOL     OW66644   8.401   6.718   4.979  0.3779  0.0683  0.0815
18777SOL    HW166645   8.440   6.804   4.965  1.1111 -0.1064  0.9998
18777SOL    HW266646   8.471   6.657   4.958  0.8611 -0.2434  2.4080
18778SOL     OW66647   5.715   7.883   0.190  0.9065  0.2297  0.0160
18778SOL    HW166648   5.766   7.882   0.109  0.8579  2.0806 -0.0836
18778SOL    HW266649   5.761   7.822   0.248  1.6491 -0.1927 -0.9901
18779SOL     OW66650   0.496  11.050  11.742 -0.5965  0.5443  0.5045
18779SOL    HW166651   0.541  11.088  11.818 -1.5880  1.7905  0.5100
18779SOL    HW266652   0.567  11.020  11.684  0.1724 -0.6394  1.9955
18780SOL     OW66653   8.919   8.358   6.983  0.0682  0.3174 -0.0406
18780SOL    HW166654   8.989   8.349   6.918  0.3700  0.4600  0.2633
18780SOL    HW266655   8.951   8.425   7.043  0.0924 -0.3147  0.6558
18781SOL     OW66656   0.438   7.070   1.116  0.1172 -0.3868  0.7285
18781SOL    HW166657   0.504   7.133   1.088 -0.6057 -0.3028 -0.8783
18781SOL    HW266658   0.390   7.115   1.186  0.7654  0.1282  0.8542
18782SOL     OW66659   4.051   2.278  10.958  0.1471 -0.3550  0.2337
18782SOL    HW166660   4.116   2.226  10.912 -0.2757  0.2056 -1.0262
18782SOL    HW266661   4.032   2.351  10.900 -0.0944  0.6214  1.4815
18783SOL     OW66662   7.274   5.443   5.808 -0.0833  0.2800  0.1588
18783SOL    HW166663   7.229   5.499   5.744  0.1279 -0.1460 -0.3779
18783SOL    HW266664   7.204   5.404   5.860 -0.3809 -0.6840 -0.9239
18784SOL     OW66665   9.474  10.892   8.842 -0.6811  0.4745  0.4801
18784SOL    HW166666   9.533  10.817   8.839  1.2881  1.9757 -1.1639
18784SOL    HW266667   9.386  10.853   8.837  0.2653 -1.7197 -0.7984
18785SOL     OW66668   2.886   6.103   8.621 -0.0493 -0.4588 -0.2804
18785SOL    HW166669   2.955   6.160   8.588  0.4336 -0.9320 -0.1088
18785SOL    HW266670   2.805   6.140   8.586 -0.0222  1.7082  1.7509
18786SOL     OW66671   2.401   3.932   0.712 -0.1348  0.1474 -0.7100
18786SOL    HW166672   2.473   3.871   0.691  0.9798  1.0281  0.3930
18786SOL    HW266673   2.377   3.910   0.802  0.1248  1.1728 -0.3785
18787SOL     OW66674   5.973   2.170   0.701  0.2482 -0.6989 -0.5801
18787SOL    HW166675   5.930   2.122   0.771  0.0825 -2.6484 -1.9545
18787SOL    HW266676   6.049   2.117   0.678 -0.5142 -0.9488 -2.8552
18788SOL     OW66677   2.647   6.640   0.403  0.2177  0.0878 -0.4916
18788SOL    HW166678   2.574   6.664   0.345 -0.8552 -1.2312  0.2544
18788SOL    HW266679   2.619   6.558   0.443  0.3804  1.4828  2.7562
18789SOL     OW66680   1.901   2.692   7.737  0.0834 -0.3356  0.1698
18789SOL    HW166681   1.862   2.673   7.822 -1.1201 -0.0680 -0.2975
18789SOL    HW266682   1.969   2.757   7.755 -1.2492  0.9540  0.7435
18790SOL     OW66683   1.159  12.698  10.161  0.6629 -0.1641  0.0609
18790SOL    HW166684   1.075  12.744  10.157 -0.1237 -1.5047  0.5736
18790SOL    HW266685   1.178  12.691  10.254  1.1256 -0.2713 -0.0399
18791SOL     OW66686   1.598  11.626   6.175  0.3638  0.2804  0.8211
18791SOL    HW166687   1.553  11.560   6.123  0.4802  2.4150 -2.2221
18791SOL    HW266688   1.528  11.687   6.202  0.7546  0.9897  0.2517
18792SOL     OW66689   8.765   0.462   9.820 -0.1730  0.1546  0.2026
18792SOL    HW166690   8.695   0.514   9.780 -0.5250  0.1747  0.8329
18792SOL    HW266691   8.734   0.372   9.813  0.1803  0.0700 -0.3759
18793SOL     OW66692   3.364   4.228   2.755 -0.4059  0.2113 -0.0784
18793SOL    HW166693   3.290   4.225   2.694 -0.7513 -0.2673  0.3475
18793SOL    HW266694   3.415   4.150   2.733 -0.4681  0.1018  0.1546
18794SOL     OW66695   3.417  11.342   2.624  0.0686 -0.3738 -0.1223
18794SOL    HW166696   3.339  11.337   2.678  1.7122 -2.4776  2.2759
18794SOL    HW266697   3.464  11.418   2.657 -0.0881 -0.1810 -0.3350
18795SOL     OW66698   1.221   8.351  10.495  0.7504 -0.7845  0.1671
18795SOL    HW166699   1.275   8.409  10.441 -0.3485 -0.1019 -0.2466
18795SOL    HW266700   1.191   8.283  10.435  0.1896 -0.4841  0.0975
18796SOL     OW66701   8.205  10.531   8.460 -0.3052 -0.0356  0.4691
18796SOL    HW166702   8.148  10.552   8.386  0.0058 -0.9319 -0.0353
18796SOL    HW266703   8.273  10.475   8.423 -0.7013 -1.3254  1.6254
18797SOL     OW66704   6.079   0.288   8.705  0.2923 -0.3581 -0.0062
18797SOL    HW166705   6.039   0.325   8.783 -1.7532 -1.3914 -0.4802
18797SOL    HW266706   6.127   0.211   8.737  0.2022 -0.2715  0.3408
18798SOL     OW66707   8.869   8.677   5.635 -0.6432  0.4203 -0.6336
18798SOL    HW166708   8.957   8.704   5.664 -0.6147 -0.1540 -0.1676
18798SOL    HW266709   8.852   8.596   5.682  0.0401 -1.4650 -3.3807
18799SOL     OW66710   1.100  10.706  11.381 -0.0072  0.6802 -0.0038
18799SOL    HW166711   1.151  10.652  11.441  0.6746 -0.3998 -1.4950
18799SOL    HW266712   1.017  10.658  11.370  0.7168 -0.2898 -1.5648
18800SOL     OW66713   4.707  10.963   6.305 -0.1985 -0.4108  0.0629
18800SOL    HW166714   4.698  11.058   6.312  1.3169 -0.2174 -0.1647
18800SOL    HW266715   4.618  10.930   6.295 -0.6769  1.0541 -0.6833
18801SOL     OW66716  12.145   0.519   1.051 -0.0218 -0.2300  0.1758
18801SOL    HW166717  12.231   0.527   1.011  0.5506 -3.0173  0.6902
18801SOL    HW266718  12.093   0.471   0.987 -1.5315  2.1424 -0.4973
18802SOL     OW66719  10.517   9.526  11.575  0.3524 -0.2146  0.3307
18802SOL    HW166720  10.442   9.469  11.554  0.5607 -0.0565 -0.9400
18802SOL    HW266721  10.488   9.613  11.547  0.3978  0.1498  1.3814
18803SOL     OW66722   4.616   2.890   3.820  0.5690  0.4880 -0.1636
18803SOL    HW166723   4.526   2.909   3.792  0.2491  2.1142  1.7299
18803SOL    HW266724   4.659   2.976   3.821  1.5210  0.0213  0.9548
18804SOL     OW66725   2.740   4.233   7.776  0.2677 -0.3127 -0.0130
18804SOL    HW166726   2.741   4.144   7.813 -0.6130 -0.5940 -0.6386
18804SOL    HW266727   2.798   4.283   7.834 -0.2405 -0.9820  1.1181
18805SOL     OW66728   2.686   1.260   9.496 -0.1163 -0.1954 -0.4229
18805SOL    HW166729   2.779   1.259   9.516  0.1713  0.1337 -1.6932
18805SOL    HW266730   2.673   1.337   9.441 -1.1879 -0.0984 -0.0760
18806SOL     OW66731   1.979   1.250   3.980 -0.1360 -0.0054  0.0318
18806SOL    HW166732   1.992   1.283   3.891  0.7256 -0.7810 -0.1437
18806SOL    HW266733   1.888   1.271   4.000 -0.6510 -0.6928 -1.4180
18807SOL     OW66734   2.444   7.267   8.060  0.1599  0.3009 -1.0941
18807SOL    HW166735   2.351   7.290   8.048 -0.2844 -1.0399 -0.3853
18807SOL    HW266736   2.489   7.316   7.991 -1.0674  0.9812 -1.4576
18808SOL     OW66737   6.665   3.374   6.908  0.3973  0.4045  0.6982
18808SOL    HW166738   6.678   3.374   7.003 -1.5193  0.7860  1.0116
18808SOL    HW266739   6.690   3.286   6.880  2.7601  0.8444  1.2396
18809SOL     OW66740   3.129   3.311   6.414  0.2045  0.2094  0.2007
18809SOL    HW166741   3.052   3.320   6.358 -0.0936 -1.0711  0.3572
18809SOL    HW266742   3.169   3.228   6.386  0.6112  0.0492  1.2139
18810SOL     OW66743   7.381   8.652   3.658  0.0730  0.3349  0.1001
18810SOL    HW166744   7.378   8.583   3.592 -0.6236  0.1057  0.3658
18810SOL    HW266745   7.474   8.667   3.673  0.2356  0.1035 -0.6363
18811SOL     OW66746   1.370  10.597   8.499 -0.3953  0.1272  0.8025
18811SOL    HW166747   1.325  10.622   8.418 -0.0050  1.5753  1.0100
18811SOL    HW266748   1.343  10.506   8.514 -3.2243  0.9047  0.9351
18812SOL     OW66749   1.664   3.592   7.266  0.5214  0.2015 -0.3434
18812SOL    HW166750   1.695   3.681   7.251  1.1259 -0.2141 -1.7095
18812SOL    HW266751   1.627   3.565   7.182  0.4099 -0.8527  0.0286
18813SOL     OW66752   1.186  12.063   8.347  0.2423 -0.6384 -0.5974
18813SOL    HW166753   1.143  11.995   8.296  0.8599 -2.1624  0.8055
18813SOL    HW266754   1.243  12.107   8.285 -2.3906  0.7231 -2.2634
18814SOL     OW66755  10.605   1.058   2.508 -0.5072 -0.0595 -0.6484
18814SOL    HW166756  10.522   1.038   2.465 -1.8367  0.0111  1.6864
18814SOL    HW266757  10.642   0.973   2.529  0.1799 -0.0950 -1.9199
18815SOL     OW66758   7.827   7.608   7.148 -0.0808  0.5669 -0.6508
18815SOL    HW166759   7.799   7.592   7.238  0.7263  1.8491 -0.1543
18815SOL    HW266760   7.913   7.648   7.156  0.8087 -0.9403 -2.0693
18816SOL     OW66761   5.889  10.403   4.248 -0.1327  0.0761  0.4755
18816SOL    HW166762   5.922  10.493   4.252  0.6969 -0.2029  0.1815
18816SOL    HW266763   5.794  10.412   4.245 -0.0597  0.9385  0.5549
18817SOL     OW66764  11.199   4.002   7.679  0.0576 -0.5044 -0.6007
18817SOL    HW166765  11.264   4.032   7.616  0.6743  2.2571  1.1669
18817SOL    HW266766  11.121   4.053   7.660 -0.1081 -0.4697  0.1214
18818SOL     OW66767   7.111   5.662  12.118  0.1364 -0.0051 -0.0433
18818SOL    HW166768   7.025   5.675  12.077 -0.5152 -2.4218  0.4254
18818SOL    HW266769   7.166   5.731  12.080 -1.9394  1.5190 -0.4744
18819SOL     OW66770   4.416   9.956   3.872  0.1867 -0.0911 -0.3461
18819SOL    HW166771   4.327   9.921   3.876  0.5822 -0.9911  2.2681
18819SOL    HW266772   4.406  10.050   3.891 -0.3174  0.1174 -1.5683
18820SOL     OW66773   0.702   9.140   7.231  0.4026 -0.5867  0.8384
18820SOL    HW166774   0.790   9.143   7.269  0.7514 -0.6737  0.0460
18820SOL    HW266775   0.713   9.093   7.149 -0.3442 -0.3766  0.6125
18821SOL     OW66776   2.942   7.771   1.868 -0.1381 -0.9594 -0.0500
18821SOL    HW166777   2.864   7.825   1.877  1.0896  0.6398  1.7452
18821SOL    HW266778   2.980   7.797   1.784  0.9924  1.8889  1.2269
18822SOL     OW66779   6.256  12.325   6.297  0.2937  0.1034 -0.3094
18822SOL    HW166780   6.328  12.274   6.260 -0.3917 -0.1628 -1.3220
18822SOL    HW266781   6.181  12.265   6.298  0.0079  0.4548  0.4736
18823SOL     OW66782   6.824   8.425   2.491  0.6727 -0.1289  0.1328
18823SOL    HW166783   6.863   8.400   2.575 -0.6891  0.6268  1.0102
18823SOL    HW266784   6.754   8.486   2.514  1.2480  1.2956 -1.6598
18824SOL     OW66785   5.767  10.608  10.294  0.0399 -0.1138  0.4403
18824SOL    HW166786   5.776  10.695  10.257 -0.0616  0.0627  0.8265
18824SOL    HW266787   5.803  10.549  10.227 -1.4803  0.0555 -0.5896
18825SOL     OW66788  10.333   0.411  11.414  0.2700 -0.4955 -0.4260
18825SOL    HW166789  10.355   0.323  11.446  0.7592 -0.2284 -0.0281
18825SOL    HW266790  10.417   0.453  11.398  0.1995  1.1275  2.7112
18826SOL     OW66791  12.782  12.638   1.206 -0.3845  0.1914 -0.6065
18826SOL    HW166792  12.794  12.719   1.255 -0.0882 -1.0748  1.5164
18826SOL    HW266793  12.852  12.639   1.140 -0.3182  1.5846 -0.5425
18827SOL     OW66794  11.721   9.069   5.795 -0.5492  0.1065  0.2347
18827SOL    HW166795  11.703   9.160   5.818 -2.4984  0.1507 -1.1658
18827SOL    HW266796  11.723   9.023   5.879 -4.3210  0.7303  0.8507
18828SOL     OW66797   0.039  12.502   7.315  0.0064  0.5333  0.6432
18828SOL    HW166798   0.060  12.581   7.265  0.4092  0.7414  1.1330
18828SOL    HW266799  -0.057  12.499   7.315 -0.0502  1.5948  1.4708
18829SOL     OW66800   3.026   8.583  11.172 -0.3637  0.3522 -0.3142
18829SOL    HW166801   3.090   8.566  11.103  0.0444  2.3065 -0.4788
18829SOL    HW266802   3.074   8.632  11.238 -1.0173 -0.5673  0.8918
18830SOL     OW66803   9.526   2.464   8.654  0.3941 -0.1372  0.4833
18830SOL    HW166804   9.473   2.542   8.671  2.3259  1.0752  1.2597
18830SOL    HW266805   9.616   2.496   8.646  1.0254 -2.0482 -1.2744
18831SOL     OW66806   8.804   4.717   7.858 -0.6667  0.4448 -0.2518
18831SOL    HW166807   8.886   4.766   7.857 -0.1374 -0.3770  0.5466
18831SOL    HW266808   8.736   4.784   7.857 -0.0138  1.1278 -1.6473
18832SOL     OW66809   4.621   7.550  11.245  0.3141 -0.0928  0.2613
18832SOL    HW166810   4.569   7.615  11.292 -2.0372 -1.3369 -0.4423
18832SOL    HW266811   4.627   7.585  11.156  0.3596 -0.1266  0.2509
18833SOL     OW66812  12.037   6.534   7.830 -0.1584 -0.5659  0.7380
18833SOL    HW166813  11.944   6.513   7.840 -0.0157 -0.7786  1.7128
18833SOL    HW266814  12.037   6.619   7.786 -0.8153 -0.5794  0.6909
18834SOL     OW66815   0.358   3.155   0.347 -0.2961  0.1201 -0.2631
18834SOL    HW166816   0.403   3.072   0.365  0.5214  0.5642 -0.2635
18834SOL    HW266817   0.427   3.220   0.339 -0.9937  1.1219  1.3405
18835SOL     OW66818   1.570   9.858   4.052  0.0410 -0.3016  0.1242
18835SOL    HW166819   1.582   9.941   4.005  0.6944 -0.5048 -0.0810
18835SOL    HW266820   1.475   9.850   4.064 -0.0145  0.5754  0.3302
18836SOL     OW66821   5.682   9.697   3.148 -0.1652  0.0051 -0.1256
18836SOL    HW166822   5.693   9.790   3.125 -0.0112  0.2444  0.8702
18836SOL    HW266823   5.745   9.651   3.092  0.6956  0.6384  0.3007
18837SOL     OW66824   0.221   9.800  11.233 -0.1156 -0.4714 -0.0024
18837SOL    HW166825   0.288   9.735  11.256  0.3125  0.1048  0.3980
18837SOL    HW266826   0.267   9.861  11.176  0.0934  0.6922  1.3627
18838SOL     OW66827   1.154   5.882   8.644 -0.7913 -0.1013 -0.6403
18838SOL    HW166828   1.127   5.972   8.626 -0.4869  0.4980  1.5636
18838SOL    HW266829   1.248   5.881   8.627 -0.8505 -0.1125 -0.9822
18839SOL     OW66830   8.650   7.490   0.856 -0.0011  0.5330 -0.3185
18839SOL    HW166831   8.558   7.477   0.879 -0.1208  0.9816 -0.5503
18839SOL    HW266832   8.698   7.456   0.932 -0.3810  1.4538  0.3483
18840SOL     OW66833  10.226   2.525  10.684  0.7749 -0.0200  0.5458
18840SOL    HW166834  10.157   2.519  10.750 -0.0260 -0.3226 -0.2779
18840SOL    HW266835  10.269   2.608  10.701 -0.7853  0.9070  0.1820
18841SOL     OW66836   8.212  12.077  10.459  0.6774  0.1770  0.5823
18841SOL    HW166837   8.212  12.172  10.453  0.8517  0.1905  0.7800
18841SOL    HW266838   8.235  12.047  10.372 -0.3852  0.2918  0.2486
18842SOL     OW66839   2.604   6.814   6.295 -0.5081  0.2175 -0.2683
18842SOL    HW166840   2.657   6.740   6.266  0.2364  0.5741  0.1622
18842SOL    HW266841   2.576   6.791   6.383 -0.1551  0.5122 -0.0790
18843SOL     OW66842   7.019  10.506  12.127  0.6100 -0.3889 -0.2410
18843SOL    HW166843   6.987  10.594  12.106  0.5184 -0.5685 -0.8945
18843SOL    HW266844   6.948  10.466  12.177 -0.3293 -0.8506 -1.8425
18844SOL     OW66845   3.013   6.140   6.214  0.4680  0.3637 -0.1533
18844SOL    HW166846   2.938   6.171   6.263  0.2675 -2.1215  1.3001
18844SOL    HW266847   3.066   6.218   6.198 -1.6078  1.9085  0.1854
18845SOL     OW66848   2.091   1.480   7.574  0.2393 -0.1500 -0.5983
18845SOL    HW166849   2.129   1.488   7.486 -0.1921  3.1677 -0.6028
18845SOL    HW266850   2.162   1.501   7.634  0.2747 -1.4603 -0.1288
18846SOL     OW66851  11.991   3.216   1.348 -0.1921  0.4699  0.2757
18846SOL    HW166852  12.070   3.182   1.390 -0.3088  0.9316  0.8742
18846SOL    HW266853  12.024   3.277   1.282  0.0160 -0.7072 -0.7456
18847SOL     OW66854  10.405   2.330   8.131 -0.3732  0.5749 -0.1533
18847SOL    HW166855  10.477   2.388   8.157  0.8239 -0.7958 -0.3335
18847SOL    HW266856  10.402   2.263   8.200  0.3618 -0.9424 -1.5303
18848SOL     OW66857  12.758   2.105   0.448  0.4862  0.0773 -0.1104
18848SOL    HW166858  12.810   2.039   0.493 -0.1534  0.0477  0.5956
18848SOL    HW266859  12.744   2.174   0.513  0.1895  0.3859 -0.4919
18849SOL     OW66860   0.795  10.322  10.942  0.2413 -0.1314  0.3913
18849SOL    HW166861   0.836  10.362  10.866  0.3833 -0.2175  0.4230
18849SOL    HW266862   0.727  10.265  10.905 -1.9596  2.3036  0.4116
18850SOL     OW66863  11.164  12.195  12.903  0.3551  0.7709 -0.1056
18850SOL    HW166864  11.248  12.241  12.910  2.0621 -2.0207 -0.8331
18850SOL    HW266865  11.161  12.165  12.812 -2.8576  3.1371 -0.9485
18851SOL     OW66866   0.305   6.512   6.623  0.8371  0.4310  0.3731
18851SOL    HW166867   0.380   6.556   6.583 -0.2572  1.0513 -1.1112
18851SOL    HW266868   0.321   6.419   6.608  1.6735  0.5132  0.7472
18852SOL     OW66869   5.373  11.834   0.312 -0.0680 -0.2111 -0.6502
18852SOL    HW166870   5.317  11.758   0.303  0.9453 -0.9631 -0.7535
18852SOL    HW266871   5.377  11.872   0.224 -1.3878  0.5911 -0.4043
18853SOL     OW66872   4.234   9.855   1.394  0.5140  0.0361  0.6154
18853SOL    HW166873   4.216   9.793   1.465  0.5587 -1.0556 -0.2919
18853SOL    HW266874   4.311   9.819   1.350  1.6254  1.6903  1.1043
18854SOL     OW66875   7.586  11.859  12.744 -0.4062 -0.4344  0.3041
18854SOL    HW166876   7.507  11.864  12.797 -0.7273  1.3318 -0.2764
18854SOL    HW266877   7.556  11.832  12.657  0.0066 -2.4240  0.7300
18855SOL     OW66878   3.536   6.554  11.834  0.3261 -0.2343 -0.1839
18855SOL    HW166879   3.593   6.518  11.767  0.4703 -0.0488 -0.1622
18855SOL    HW266880   3.590   6.557  11.913 -0.2627 -1.7991  0.3133
18856SOL     OW66881   4.023  11.587  12.907 -0.1643 -0.1446 -0.1789
18856SOL    HW166882   3.928  11.587  12.899 -0.1857 -0.3267  0.0448
18856SOL    HW266883   4.056  11.595  12.818 -0.3887 -1.2912 -0.3761
18857SOL     OW66884   8.363  11.608   0.929 -0.3166  0.4222 -0.5409
18857SOL    HW166885   8.378  11.688   0.878  1.0792  1.0539  0.7861
18857SOL    HW266886   8.282  11.626   0.978 -0.0398  1.0318 -0.2885
18858SOL     OW66887   0.871   0.070  12.876 -0.1214  0.0338  0.3341
18858SOL    HW166888   0.903  -0.014  12.908 -1.6669 -0.6178  0.2716
18858SOL    HW266889   0.832   0.111  12.953 -2.4095 -0.8324 -0.2887
18859SOL     OW66890   6.920   1.599   8.925 -0.3401 -0.7079  0.5177
18859SOL    HW166891   6.896   1.523   8.978 -0.5035 -0.4165  0.8603
18859SOL    HW266892   6.967   1.562   8.850  1.6397 -1.0154  1.8293
18860SOL     OW66893   8.403   0.740   7.822  0.0887  0.3719 -0.1686
18860SOL    HW166894   8.351   0.689   7.884 -0.9116  0.9254 -0.5293
18860SOL    HW266895   8.345   0.811   7.794  0.9875  0.9203 -0.7087
18861SOL     OW66896   0.926   4.300   1.442  0.1656  0.0030  0.8908
18861SOL    HW166897   0.900   4.218   1.483 -0.9421 -0.1400 -0.0488
18861SOL    HW266898   0.901   4.291   1.350  0.9531  1.0051  0.5497
18862SOL     OW66899   0.163   9.809   3.137  0.4360  0.3314 -0.3143
18862SOL    HW166900   0.128   9.879   3.082 -0.3695  0.4789  0.3530
18862SOL    HW266901   0.089   9.784   3.194  1.3018  0.3735  0.8784
18863SOL     OW66902   5.827  12.504  11.716  0.2922 -0.4878 -0.1602
18863SOL    HW166903   5.750  12.458  11.682 -1.3457  1.6553  0.4729
18863SOL    HW266904   5.806  12.522  11.808  1.4181  0.4053 -0.0583
18864SOL     OW66905   2.446   5.335   8.092 -0.1560  0.0218  0.0974
18864SOL    HW166906   2.443   5.260   8.151  1.3607 -0.6637 -0.6269
18864SOL    HW266907   2.539   5.360   8.090 -0.0396 -0.3256 -2.3483
18865SOL     OW66908  10.142   1.797   5.434  0.0666 -0.7686 -0.0864
18865SOL    HW166909  10.071   1.766   5.377 -0.5976 -0.8919  0.7749
18865SOL    HW266910  10.213   1.819   5.374 -0.1173 -2.1703 -0.8589
18866SOL     OW66911   6.172   7.365   9.314  0.6382 -0.0856 -0.0132
18866SOL    HW166912   6.103   7.397   9.257  1.1105  2.0323  0.5177
18866SOL    HW266913   6.221   7.304   9.259  0.4701  1.1060 -1.5764
18867SOL     OW66914  10.003   6.961   7.245 -0.1677 -0.3040 -0.4797
18867SOL    HW166915  10.027   6.948   7.153 -3.1961 -0.5328 -1.3500
18867SOL    HW266916  10.046   6.889   7.291 -0.4345 -1.5457 -2.0868
18868SOL     OW66917   6.797  11.213  11.153  0.2190  0.0042 -0.2383
18868SOL    HW166918   6.813  11.303  11.183  1.4209  0.3328 -1.7101
18868SOL    HW266919   6.884  11.174  11.146 -0.3588 -1.9246  2.0779
18869SOL     OW66920  10.545   1.295   5.393  0.1051 -0.5046 -0.2908
18869SOL    HW166921  10.597   1.270   5.470  1.6968  0.6251 -0.9508
18869SOL    HW266922  10.561   1.225   5.330 -1.3547 -1.5321  0.4309
18870SOL     OW66923   8.632   7.370   4.880 -0.5279  0.0385 -0.4515
18870SOL    HW166924   8.683   7.296   4.846  1.3510 -0.0478  2.2608
18870SOL    HW266925   8.696   7.424   4.925 -2.7735 -0.4626  3.8633
18871SOL     OW66926   0.398   3.528   9.523  0.3149  0.5855  0.2099
18871SOL    HW166927   0.411   3.434   9.509 -1.5933 -0.0398  2.1370
18871SOL    HW266928   0.444   3.546   9.606  0.6384  1.3536 -0.1301
18872SOL     OW66929   3.777   3.359   2.546  0.4998 -0.5751  0.4808
18872SOL    HW166930   3.801   3.269   2.569 -0.7005 -1.0633 -0.1229
18872SOL    HW266931   3.779   3.406   2.630  3.4739 -0.5456  0.5040
18873SOL     OW66932   0.606   5.863   3.170  0.3226  0.0481  0.3952
18873SOL    HW166933   0.557   5.899   3.244  2.6084  0.9940  1.5581
18873SOL    HW266934   0.659   5.793   3.209 -0.6674 -1.5511 -0.9897
18874SOL     OW66935   0.581   6.322   2.247 -0.6985 -0.5124  0.3670
18874SOL    HW166936   0.505   6.370   2.215 -1.0238 -0.7200  0.8112
18874SOL    HW266937   0.570   6.319   2.342  0.2529  0.0925  0.5062
18875SOL     OW66938   2.891  11.236   8.387 -0.3172  0.1452 -0.3927
18875SOL    HW166939   2.841  11.227   8.467  0.6602 -0.1306  0.2073
18875SOL    HW266940   2.928  11.149   8.372 -0.8226  0.0840 -1.3740
18876SOL     OW66941   6.518   6.536   8.102  0.7035 -0.3992 -0.4749
18876SOL    HW166942   6.520   6.631   8.093 -1.1889 -0.4005 -1.3994
18876SOL    HW266943   6.431   6.511   8.070  0.9423 -2.3843  0.3076
18877SOL     OW66944   6.102   9.677   2.450 -0.1873  0.6696  0.2328
18877SOL    HW166945   6.112   9.750   2.511  0.5967 -0.0964  1.0472
18877SOL    HW266946   6.013   9.686   2.416 -0.0581  2.0732  0.2209
18878SOL     OW66947   5.022  10.840   8.486 -0.2049  0.6756 -0.1481
18878SOL    HW166948   4.945  10.800   8.445  1.0194 -0.7033 -1.1979
18878SOL    HW266949   5.047  10.910   8.426  0.2657  0.1132 -0.6147
18879SOL     OW66950   4.716  10.507   4.906  0.3008 -0.7635  0.2983
18879SOL    HW166951   4.635  10.490   4.954 -0.0813 -1.2192 -0.4902
18879SOL    HW266952   4.775  10.436   4.933 -0.3554 -1.7958 -0.8739
18880SOL     OW66953   8.084  10.725   1.806 -0.2744  0.4206  0.1473
18880SOL    HW166954   8.176  10.728   1.780 -0.5357  1.5592 -0.7317
18880SOL    HW266955   8.079  10.653   1.870  0.7630 -1.2463 -1.5409
18881SOL     OW66956   2.155   1.321   3.490  0.5205 -0.0200  0.4644
18881SOL    HW166957   2.154   1.387   3.421 -0.5778  0.0407  0.5204
18881SOL    HW266958   2.132   1.239   3.446  0.7782 -0.1553  0.5845
18882SOL     OW66959   1.190  12.437   0.768 -0.0422 -0.0348  0.4245
18882SOL    HW166960   1.208  12.473   0.681  0.4475 -1.6554 -0.1830
18882SOL    HW266961   1.096  12.451   0.781 -0.0058  0.7595 -0.0994
18883SOL     OW66962   9.668   8.915  12.686  0.2357  0.1527  0.1851
18883SOL    HW166963   9.719   8.987  12.651  1.3795 -0.9187 -0.4183
18883SOL    HW266964   9.632   8.870  12.609  1.0499 -0.9833  0.4377
18884SOL     OW66965   6.499  12.096   4.022 -0.0694 -0.0944 -0.2135
18884SOL    HW166966   6.485  12.169   4.082 -1.3774 -0.3654 -0.1561
18884SOL    HW266967   6.416  12.087   3.976  0.6273 -0.4745 -1.4203
18885SOL     OW66968  12.640   7.067   1.965 -0.0954  0.1282 -0.1918
18885SOL    HW166969  12.651   7.126   2.039  2.2548 -0.3757 -0.0635
18885SOL    HW266970  12.634   7.125   1.889  0.0040  0.5904  0.1498
18886SOL     OW66971   6.665   8.795   8.514  0.2672  0.9958 -0.3439
18886SOL    HW166972   6.605   8.858   8.552  1.1950  0.8698  1.4515
18886SOL    HW266973   6.646   8.713   8.560  1.0206  0.6844 -0.5691
18887SOL     OW66974   2.068   0.462   5.849 -0.2714 -0.6872  0.1425
18887SOL    HW166975   2.080   0.538   5.907  0.1693 -1.4588  1.0943
18887SOL    HW266976   2.016   0.496   5.776 -0.8094  0.3395  0.9668
18888SOL     OW66977   5.790   1.292   4.020 -0.3143 -0.0500  0.2338
18888SOL    HW166978   5.707   1.245   4.008 -0.7551  0.7792 -0.0618
18888SOL    HW266979   5.774   1.378   3.980  0.1235  0.7344  1.6944
18889SOL     OW66980   9.174  10.371   0.051 -0.5065 -0.2163  0.0734
18889SOL    HW166981   9.150  10.456   0.086 -1.7813 -0.9651  1.0993
18889SOL    HW266982   9.091  10.325   0.040  0.0742 -0.9775 -1.4304
18890SOL     OW66983   0.522   3.918  12.984 -0.4165 -0.8939  0.2076
18890SOL    HW166984   0.450   3.898  13.044 -0.2488 -0.2232  0.6473
18890SOL    HW266985   0.492   3.888  12.899 -0.9106 -1.2999  0.5195
18891SOL     OW66986   6.261   2.354   3.246 -0.1747 -0.4060 -0.2095
18891SOL    HW166987   6.247   2.446   3.268  0.1346 -0.3843 -0.0945
18891SOL    HW266988   6.252   2.350   3.151 -1.4100 -0.4814 -0.0958
18892SOL     OW66989   8.932   1.587   2.786  0.0958 -0.4722 -0.4938
18892SOL    HW166990   8.938   1.494   2.762  0.6245 -0.6960  0.4403
18892SOL    HW266991   8.954   1.588   2.879  1.5817  0.7755 -0.8181
18893SOL     OW66992   7.648   9.678   2.127  0.3717 -0.0353  0.1437
18893SOL    HW166993   7.570   9.695   2.180  0.4212 -1.1743  0.6067
18893SOL    HW266994   7.627   9.599   2.078  0.6041  0.5993 -1.0306
18894SOL     OW66995  12.272   4.229  11.184  0.0152  0.6193  0.1152
18894SOL    HW166996  12.210   4.158  11.173 -1.6320  1.9869  0.1109
18894SOL    HW266997  12.317   4.209  11.266  0.4832 -1.0225 -0.5000
18895SOL     OW66998   0.434  10.403   1.572  0.4421 -0.1808  0.0382
18895SOL    HW166999   0.386  10.464   1.515  1.0270  0.7154  0.4656
18895SOL    HW267000   0.501  10.458   1.614  0.0420 -0.8206  1.5777
18896SOL     OW67001   0.814   5.359   3.537  0.1171  0.7549 -0.6035
18896SOL    HW167002   0.773   5.272   3.538  1.4790  0.1008 -0.1991
18896SOL    HW267003   0.815   5.386   3.629  3.9562 -0.9263  0.0430
18897SOL     OW67004   6.189   7.701   0.934  0.4363 -0.6999 -0.7582
18897SOL    HW167005   6.281   7.677   0.937  0.5169 -0.4126 -0.9639
18897SOL    HW267006   6.166   7.720   1.026  0.6129 -0.6435 -0.7257
18898SOL     OW67007  12.662   7.410  12.970 -0.2892  0.1578 -0.0795
18898SOL    HW167008  12.736   7.358  13.001  0.2439  0.0734 -1.4116
18898SOL    HW267009  12.700   7.471  12.907 -1.2871  0.4029 -0.4618
18899SOL     OW67010   9.375  12.034   2.544  0.2661  0.3903 -0.2086
18899SOL    HW167011   9.440  11.973   2.578  0.0028  0.9133  1.3242
18899SOL    HW267012   9.357  12.093   2.617 -1.0141  1.0209 -0.9907
18900SOL     OW67013   1.695   6.849   4.731  0.4814  0.2254 -0.6169
18900SOL    HW167014   1.629   6.824   4.666  2.4978 -0.6715 -2.4410
18900SOL    HW267015   1.707   6.943   4.718  0.6817  0.1003 -1.3833
18901SOL     OW67016   3.436   6.964   6.965  0.0733 -0.0129 -0.0942
18901SOL    HW167017   3.531   6.971   6.959  0.5528 -1.0965  3.8111
18901SOL    HW267018   3.415   6.881   6.920  0.6519  0.9616 -2.3151
18902SOL     OW67019   2.363   7.086   5.196 -0.6121 -0.8646  0.3396
18902SOL    HW167020   2.384   7.058   5.107  0.7464  0.4317  0.2104
18902SOL    HW267021   2.447   7.084   5.242 -0.3024  2.8888  0.2890
18903SOL     OW67022   7.292   0.476  10.764 -0.4615  0.2311  0.1434
18903SOL    HW167023   7.358   0.460  10.697 -0.7980 -0.3822 -0.0517
18903SOL    HW267024   7.236   0.544  10.727  1.3351  2.4577  1.2298
18904SOL     OW67025  11.965   5.503   9.175  0.0440  0.2800  0.2456
18904SOL    HW167026  12.022   5.559   9.228 -1.4204  0.4155  1.7856
18904SOL    HW267027  12.024   5.447   9.126  1.5214  1.8385  0.1561
18905SOL     OW67028   1.638   3.801   1.616  0.1391 -0.3054  0.3963
18905SOL    HW167029   1.613   3.818   1.707  0.7314 -0.7618  0.6495
18905SOL    HW267030   1.588   3.723   1.592  1.4228 -1.3322  0.9648
18906SOL     OW67031  11.455   0.514  11.447 -0.0351 -0.5723 -0.1421
18906SOL    HW167032  11.426   0.593  11.401  0.2487 -0.3202  0.1020
18906SOL    HW267033  11.538   0.540  11.488  0.4851 -1.2433 -0.7413
18907SOL     OW67034   6.747   7.670   4.992 -0.2251  0.0178  0.3182
18907SOL    HW167035   6.791   7.646   5.073  0.4794 -0.3089 -0.1508
18907SOL    HW267036   6.818   7.693   4.932 -0.5086 -2.2832 -1.0366
18908SOL     OW67037   6.839  10.051   3.107  0.2950  0.3128 -1.0541
18908SOL    HW167038   6.840  10.038   3.202  0.9121  1.7388 -0.8466
18908SOL    HW267039   6.803   9.969   3.073  1.9301 -1.0563  0.2749
18909SOL     OW67040   9.108   9.046   6.223 -0.3033  0.3863 -0.0642
18909SOL    HW167041   9.053   8.994   6.163 -0.5217  2.4272 -1.7683
18909SOL    HW267042   9.056   9.053   6.303 -1.3694  0.0428 -0.6979
18910SOL     OW67043   2.247   4.905   6.858  0.3269  0.3598  0.8888
18910SOL    HW167044   2.307   4.830   6.858  0.9284  0.8092 -0.1109
18910SOL    HW267045   2.261   4.946   6.772 -0.0787  1.5466  1.3712
18911SOL     OW67046   3.652   2.925   9.134  0.0748  0.6470 -0.2011
18911SOL    HW167047   3.563   2.920   9.167 -0.3672  0.7519 -1.3462
18911SOL    HW267048   3.698   2.981   9.198 -0.4414 -0.0908  0.8415
18912SOL     OW67049   0.840   2.141   9.574  0.4909 -0.0049 -0.0081
18912SOL    HW167050   0.781   2.138   9.499  0.5249 -0.6936 -0.0120
18912SOL    HW267051   0.864   2.234   9.582  0.0115  0.1636 -0.4711
18913SOL     OW67052  10.371   4.274   2.575  0.3230  0.5952 -0.3133
18913SOL    HW167053  10.279   4.249   2.564  0.0871  1.3401 -0.0590
18913SOL    HW267054  10.412   4.254   2.490  0.0052 -0.0465 -0.3220
18914SOL     OW67055   9.814   1.895   8.898  0.4054 -0.1512  0.4552
18914SOL    HW167056   9.770   1.837   8.836 -0.6338  1.5961 -0.5370
18914SOL    HW267057   9.802   1.854   8.983 -2.8039 -0.0410  0.1825
18915SOL     OW67058   7.950  10.257   4.695 -0.7659  0.4965  0.4663
18915SOL    HW167059   8.016  10.189   4.677  0.5049  1.5021  1.2208
18915SOL    HW267060   7.870  10.208   4.713  0.2417 -0.8322  1.4994
18916SOL     OW67061   4.347  12.459   8.824 -0.3966 -0.0736  0.0576
18916SOL    HW167062   4.341  12.364   8.828  1.1147 -0.1447  2.6972
18916SOL    HW267063   4.263  12.490   8.856 -1.0546 -0.4557 -1.2125
18917SOL     OW67064  10.322   7.072  10.328  0.6901  0.9630  0.3188
18917SOL    HW167065  10.344   7.016  10.403 -0.0526  1.0013  0.5782
18917SOL    HW267066  10.241   7.117  10.355 -0.9547 -0.7658 -1.3838
18918SOL     OW67067   0.662   6.971   3.839  0.0904 -0.4739  0.6076
18918SOL    HW167068   0.580   6.967   3.788 -0.3366 -1.0265  1.3122
18918SOL    HW267069   0.717   6.903   3.801  1.4896  1.8427 -1.9025
18919SOL     OW67070  10.603   6.266   4.230 -0.0483 -0.0077  0.7588
18919SOL    HW167071  10.550   6.293   4.305 -0.3177 -0.7895  0.8592
18919SOL    HW267072  10.576   6.176   4.212 -0.4422  0.3676 -0.6816
18920SOL     OW67073   8.896   6.805   6.009  0.3456 -0.2033  0.1506
18920SOL    HW167074   8.894   6.847   5.923  0.9066 -1.0402 -0.2822
18920SOL    HW267075   8.989   6.794   6.029  0.2140 -0.6393  0.5486
18921SOL     OW67076   5.146  10.184   4.529 -0.1069 -0.2351 -0.1979
18921SOL    HW167077   5.238  10.203   4.508 -0.6492  1.1220 -1.5109
18921SOL    HW267078   5.130  10.231   4.610  0.6772 -1.5413  0.7626
18922SOL     OW67079   5.908   7.751   5.304 -0.0799 -0.2865 -0.1350
18922SOL    HW167080   6.000   7.777   5.295 -0.6084  1.0650 -3.1883
18922SOL    HW267081   5.901   7.713   5.391  2.5117  3.0786  1.7627
18923SOL     OW67082   9.168   2.066  10.271  0.0868  0.2060 -0.0723
18923SOL    HW167083   9.251   2.087  10.227  0.9944  1.4515  2.0862
18923SOL    HW267084   9.162   1.971  10.267  2.2035 -0.0154  0.6822
18924SOL     OW67085  12.146   5.095   0.666 -0.0752  0.6352  0.3751
18924SOL    HW167086  12.137   5.173   0.612  1.3479  0.1295 -0.6561
18924SOL    HW267087  12.183   5.029   0.608  0.6478 -0.2120  1.7337
18925SOL     OW67088  10.978   8.165   0.366  0.3511 -0.6661  0.0964
18925SOL    HW167089  10.907   8.151   0.303  0.9798  1.3977 -1.1704
18925SOL    HW267090  11.058   8.164   0.313  0.7887  2.5912  0.5030
18926SOL     OW67091   6.254   0.708   5.105  0.0534  0.0979  0.0750
18926SOL    HW167092   6.333   0.656   5.120  0.8583  1.6973  1.7205
18926SOL    HW267093   6.279   0.773   5.039 -0.6970 -0.9785 -1.3282
18927SOL     OW67094   9.833   3.027   2.390  0.3590  0.2234 -0.0213
18927SOL    HW167095   9.753   3.058   2.432 -0.1978 -1.1408 -0.0122
18927SOL    HW267096   9.813   2.937   2.365  1.3444  0.3777 -1.4822
18928SOL     OW67097   5.833   9.547   1.782 -0.5316  0.3578  0.4297
18928SOL    HW167098   5.760   9.486   1.793  0.2525 -0.4271  1.4155
18928SOL    HW267099   5.900   9.515   1.841 -0.8276  3.3546  2.6339
18929SOL     OW67100  10.160   0.204   7.775 -0.1442 -0.4818  0.0721
18929SOL    HW167101  10.108   0.239   7.848  1.0787 -0.3068  0.8798
18929SOL    HW267102  10.174   0.280   7.718 -1.6339 -0.7489 -0.7114
18930SOL     OW67103   5.560   9.457   4.530  0.9252 -0.3625 -0.0012
18930SOL    HW167104   5.494   9.390   4.549  1.2342 -0.6249  0.1580
18930SOL    HW267105   5.540   9.486   4.441  0.5071 -0.3373  0.0990
18931SOL     OW67106   4.018   7.830   9.944  0.2116 -0.3652 -0.6128
18931SOL    HW167107   4.042   7.846  10.035 -4.1451  1.7623  0.4560
18931SOL    HW267108   4.033   7.914   9.900 -1.4054 -0.1354 -0.7863
18932SOL     OW67109   4.391   3.371   0.548 -0.0194 -0.3861 -0.0085
18932SOL    HW167110   4.449   3.411   0.482  0.7756 -0.2982  0.7180
18932SOL    HW267111   4.413   3.278   0.545 -1.1745 -0.6487 -1.0165
18933SOL     OW67112  11.720   3.701   3.207 -0.5943  0.3965  0.7241
18933SOL    HW167113  11.725   3.606   3.213 -0.3180  0.4724  1.8790
18933SOL    HW267114  11.810   3.730   3.196 -0.7541  0.4939 -0.5165
18934SOL     OW67115  12.903  10.348   3.556 -0.0145  0.2914 -0.4526
18934SOL    HW167116  12.956  10.268   3.551 -1.0985 -0.4492 -0.5001
18934SOL    HW267117  12.942  10.398   3.628  0.3120 -0.5604 -0.0169
18935SOL     OW67118   0.091   6.374   9.805 -0.0374  0.5901  0.3027
18935SOL    HW167119   0.076   6.463   9.838  4.1270  0.5675  3.0166
18935SOL    HW267120   0.076   6.318   9.881 -1.8663 -1.0290 -1.1752
18936SOL     OW67121   4.987  12.389   6.526  0.1084 -0.5898  0.2314
18936SOL    HW167122   4.988  12.295   6.542  2.7321 -0.6182  0.3588
18936SOL    HW267123   5.041  12.426   6.597  0.3834  0.8233 -0.6760
18937SOL     OW67124   9.933  10.691   7.050 -0.1804  0.6560 -0.7540
18937SOL    HW167125   9.899  10.617   6.999  0.2660 -0.7979  0.9689
18937SOL    HW267126  10.028  10.681   7.046 -0.1241  0.9750 -0.3005
18938SOL     OW67127  12.762   6.681  12.387 -0.0798  0.5540  0.3172
18938SOL    HW167128  12.706   6.608  12.414  0.2830  0.5593  1.1286
18938SOL    HW267129  12.850   6.642  12.379  0.3170  1.0822  1.7748
18939SOL     OW67130  11.234   4.977   4.171  0.2233 -0.1543  0.0155
18939SOL    HW167131  11.246   5.026   4.252 -1.2641  0.5772 -0.1770
18939SOL    HW267132  11.220   4.887   4.200 -1.1974  0.2409  0.6711
18940SOL     OW67133  10.278  10.653   6.382  0.5631 -0.0920  0.3792
18940SOL    HW167134  10.207  10.639   6.444  0.9353 -0.4089  0.7397
18940SOL    HW267135  10.267  10.584   6.317  1.5474 -1.2312  1.3740
18941SOL     OW67136   0.094  12.051   7.513  0.6829  0.2203  0.0437
18941SOL    HW167137   0.180  12.083   7.487  1.3016 -1.0487  0.4449
18941SOL    HW267138   0.033  12.094   7.453  1.3925  2.4486  0.8346
18942SOL     OW67139  12.123   6.138   7.130  0.3842  0.1780  0.1883
18942SOL    HW167140  12.072   6.106   7.204  1.1875  0.7177  0.9947
18942SOL    HW267141  12.076   6.106   7.053 -0.7798  0.0883  0.9132
18943SOL     OW67142   3.756   5.222  11.685  0.4863  0.6582  0.0734
18943SOL    HW167143   3.755   5.296  11.625 -0.0250  0.2467 -0.4448
18943SOL    HW267144   3.787   5.148  11.632 -1.0601  0.0299 -0.0402
18944SOL     OW67145   3.110   8.663  10.871  0.2374 -0.0811 -0.2855
18944SOL    HW167146   3.085   8.596  10.807 -1.6480 -2.1761  2.4268
18944SOL    HW267147   3.197   8.691  10.843 -0.1258 -1.4614 -3.2323
18945SOL     OW67148   1.711  11.122   7.104 -0.1169 -0.0029  0.5442
18945SOL    HW167149   1.703  11.166   7.189 -1.3295  0.6537  0.1080
18945SOL    HW267150   1.646  11.165   7.049  1.7422  0.6812 -1.2171
18946SOL     OW67151   3.057   2.630   7.929 -0.1481  0.3681 -0.3111
18946SOL    HW167152   3.112   2.708   7.927  1.9337 -1.0158 -0.3355
18946SOL    HW267153   3.107   2.566   7.980 -1.4601 -1.1914 -0.8751
18947SOL     OW67154  12.587   1.448   9.229  0.5509 -0.0146  0.2332
18947SOL    HW167155  12.567   1.539   9.255  1.0814  0.3948 -0.7555
18947SOL    HW267156  12.575   1.447   9.134  3.2063 -0.2609 -0.1652
18948SOL     OW67157   6.981  12.680  12.977  0.5530  0.3046 -0.2227
18948SOL    HW167158   7.042  12.607  12.985  1.9924  1.6360  1.7131
18948SOL    HW267159   6.990  12.709  12.887 -0.4651 -2.1717 -1.2203
18949SOL     OW67160  10.846   4.587  11.220 -0.0273  0.0723 -0.0816
18949SOL    HW167161  10.884   4.650  11.282 -0.6187 -0.2313  0.6063
18949SOL    HW267162  10.867   4.502  11.257 -0.3911 -0.1143 -0.2995
18950SOL     OW67163   2.691   5.028   4.130  0.1511  0.6365  0.0682
18950SOL    HW167164   2.604   5.005   4.163  0.0650 -0.0960 -0.6470
18950SOL    HW267165   2.695   5.123   4.139 -1.3218  0.8783 -1.3144
18951SOL     OW67166  10.995  11.762   9.471 -0.0106  0.4517  0.4695
18951SOL    HW167167  10.975  11.760   9.564  1.1585 -1.7709  0.7287
18951SOL    HW267168  11.055  11.836   9.461  0.1793  0.4525  1.5347
18952SOL     OW67169  11.645   6.185   8.530 -1.1026 -0.0276 -0.0701
18952SOL    HW167170  11.595   6.106   8.549 -1.4111 -0.2882 -1.8714
18952SOL    HW267171  11.713   6.156   8.469 -0.5579  0.9048  0.0790
18953SOL     OW67172  12.706   1.910   9.430 -0.2720  0.0071 -0.3093
18953SOL    HW167173  12.786   1.935   9.384  0.2818  0.3417  0.7976
18953SOL    HW267174  12.653   1.989   9.431 -0.9611 -0.4045 -1.6778
18954SOL     OW67175   6.049   2.227   9.064 -0.0242  0.1458 -0.2660
18954SOL    HW167176   6.123   2.166   9.068 -0.2589 -0.0823  0.8239
18954SOL    HW267177   6.082   2.308   9.104 -0.0808  0.3625 -0.6447
18955SOL     OW67178  11.777   1.427  12.424  0.2416  0.1807  0.1144
18955SOL    HW167179  11.748   1.501  12.372  1.1205  0.9097  0.6364
18955SOL    HW267180  11.696   1.385  12.454 -0.3355  2.5680  2.1381
18956SOL     OW67181   5.942  10.796  10.500 -0.1362  0.3166  0.2934
18956SOL    HW167182   5.903  10.727  10.554  0.1840 -0.9156 -0.9946
18956SOL    HW267183   5.872  10.822  10.440 -0.4293  1.5469  1.1207
18957SOL     OW67184   3.653   6.414   7.386  0.3464 -0.5928  0.2776
18957SOL    HW167185   3.607   6.486   7.342  1.8634 -0.8509 -1.8656
18957SOL    HW267186   3.707   6.456   7.451  1.7420  0.3555 -1.4182
18958SOL     OW67187   7.437   2.269   7.229  0.0121 -0.3741  0.1358
18958SOL    HW167188   7.388   2.314   7.298  0.4103  0.9252 -0.3814
18958SOL    HW267189   7.527   2.299   7.242  0.1739 -0.5156 -0.6428
18959SOL     OW67190  11.228   6.628   7.878  0.2379  0.7422 -0.1556
18959SOL    HW167191  11.292   6.626   7.949 -0.5398 -0.2335  0.5395
18959SOL    HW267192  11.278   6.655   7.801  1.5138 -0.1691  0.3295
18960SOL     OW67193   0.566   1.276  10.089  0.0957  0.1106  0.1736
18960SOL    HW167194   0.532   1.196  10.049 -0.3922  0.2843  0.2387
18960SOL    HW267195   0.548   1.265  10.182  0.0912  0.2697  0.1911
18961SOL     OW67196  12.141   6.948   7.661  0.1743 -0.0581  0.6274
18961SOL    HW167197  12.129   6.857   7.634 -0.4925  0.2989 -0.3381
18961SOL    HW267198  12.060   6.992   7.637  1.1804  1.1915 -0.7203
18962SOL     OW67199  10.959   9.061   1.294  0.1490  0.0155  0.1289
18962SOL    HW167200  10.906   9.107   1.229 -0.0529 -1.0802 -0.4979
18962SOL    HW267201  11.023   9.012   1.242 -0.9821 -2.1035  0.6432
18963SOL     OW67202   3.568   5.604   5.921 -0.4009  0.0798 -0.5905
18963SOL    HW167203   3.566   5.512   5.946 -1.8085  0.0954 -0.6032
18963SOL    HW267204   3.510   5.610   5.846 -0.3527  0.9884 -0.5655
18964SOL     OW67205  11.134   8.096  12.940  0.1292  0.4057  0.1324
18964SOL    HW167206  11.151   8.138  13.024 -0.3866  1.8558 -0.4576
18964SOL    HW267207  11.095   8.165  12.886 -1.9784 -1.1818 -0.4852
18965SOL     OW67208   1.311   4.671  12.150  0.2593 -0.0225 -0.3988
18965SOL    HW167209   1.329   4.584  12.187  0.8314  0.3169  0.1565
18965SOL    HW267210   1.298   4.727  12.227 -0.0544  0.3946 -0.7517
18966SOL     OW67211   9.624   7.510   7.838  0.5151  0.1139 -0.3153
18966SOL    HW167212   9.573   7.483   7.762 -0.6315 -0.4352  0.6230
18966SOL    HW267213   9.586   7.593   7.865  0.6222  0.0812 -0.0626
18967SOL     OW67214   0.458   0.695   5.773 -0.5785 -0.4521  0.4871
18967SOL    HW167215   0.550   0.669   5.766 -0.3776  0.4765 -0.7518
18967SOL    HW267216   0.444   0.753   5.698 -2.2699 -0.8368  0.4654
18968SOL     OW67217   2.867  11.839   8.124 -0.2155  0.6607  0.0350
18968SOL    HW167218   2.831  11.751   8.113  0.0310  0.7462 -1.5663
18968SOL    HW267219   2.960  11.825   8.139 -0.2605  0.6389  0.3122
18969SOL     OW67220   5.996   7.093  10.077 -0.0659 -0.1852  0.1335
18969SOL    HW167221   6.080   7.087  10.032  0.2200 -0.1733  0.6673
18969SOL    HW267222   5.933   7.057  10.014  0.2370  0.4300 -0.5333
18970SOL     OW67223   1.945   7.099  12.795 -0.1238 -0.3327  0.2914
18970SOL    HW167224   1.862   7.081  12.840  0.0566  0.1022  0.8057
18970SOL    HW267225   1.969   7.015  12.755 -0.5732 -0.5815  0.5312
18971SOL     OW67226  10.251   5.953   2.785 -0.3536 -0.2438  0.4170
18971SOL    HW167227  10.225   6.029   2.733  0.8729  1.4324  2.0973
18971SOL    HW267228  10.323   5.914   2.736 -1.4609 -0.8080 -0.8230
18972SOL     OW67229   5.911   6.034  11.208 -0.2614 -0.4345  0.5141
18972SOL    HW167230   5.872   5.963  11.158 -0.2723  0.3682 -0.6649
18972SOL    HW267231   5.876   6.023  11.296 -1.5060 -0.9681 -0.0211
18973SOL     OW67232  10.503   0.060   9.474 -0.5605 -0.1205  0.0017
18973SOL    HW167233  10.479   0.045   9.565 -0.1614 -0.1024  0.1112
18973SOL    HW267234  10.569  -0.006   9.455  1.3656  1.5390  0.5526
18974SOL     OW67235  11.618   1.577  11.457  0.2559 -0.1293  0.0821
18974SOL    HW167236  11.699   1.627  11.449 -0.0671  0.7565  1.9294
18974SOL    HW267237  11.574   1.612  11.534 -1.1129 -1.7153  0.1065
18975SOL     OW67238   1.972   6.757  10.839 -1.0684  0.1939 -0.8704
18975SOL    HW167239   2.065   6.747  10.819 -0.4977  1.6063  0.8658
18975SOL    HW267240   1.951   6.845  10.810 -1.4828  0.4278  0.1232
18976SOL     OW67241   7.278  10.111  12.172 -0.1324  0.0150  0.0483
18976SOL    HW167242   7.253  10.019  12.165  0.4126 -0.0628 -0.9862
18976SOL    HW267243   7.222  10.145  12.242  0.7955 -1.4770  1.5713
18977SOL     OW67244   4.606   1.438   4.110 -0.3296 -0.6623  0.1671
18977SOL    HW167245   4.615   1.377   4.183 -0.9905  0.7915  1.5046
18977SOL    HW267246   4.684   1.423   4.056 -0.8563 -3.2425 -0.0203
18978SOL     OW67247   8.862   8.386   8.412 -0.1339  0.1453 -0.0100
18978SOL    HW167248   8.839   8.316   8.350 -1.2473  0.6800 -0.2208
18978SOL    HW267249   8.886   8.460   8.357  2.4933 -0.4655  0.1983
18979SOL     OW67250   1.386   5.984   8.160 -0.1825 -0.0855 -0.1329
18979SOL    HW167251   1.372   6.074   8.190  1.7381  0.1582  0.1796
18979SOL    HW267252   1.466   5.989   8.107 -0.8685 -1.3645 -1.3210
18980SOL     OW67253   8.525   4.325   1.748 -0.0110 -0.7660 -0.0352
18980SOL    HW167254   8.506   4.234   1.770 -0.5276 -1.2570 -2.2219
18980SOL    HW267255   8.612   4.323   1.708 -0.3873 -0.4886 -0.9160
18981SOL     OW67256   5.577   9.138   5.711  0.0425 -0.0950 -0.1116
18981SOL    HW167257   5.671   9.151   5.705 -0.1272  0.7236 -1.6292
18981SOL    HW267258   5.557   9.071   5.646 -0.4948  0.2568 -0.3222
18982SOL     OW67259  12.384  12.979   3.003  0.3303 -0.2696  0.4210
18982SOL    HW167260  12.415  13.022   2.923 -0.1987 -1.7986 -0.6503
18982SOL    HW267261  12.464  12.954   3.049  0.6390  0.6714  0.4268
18983SOL     OW67262  10.939   0.654   7.542  0.6769 -0.2281  0.1192
18983SOL    HW167263  10.907   0.592   7.476 -1.0819  0.4324  0.3134
18983SOL    HW267264  10.922   0.740   7.504 -0.0114  0.1601  1.2787
18984SOL     OW67265   3.502  10.653   0.030  0.1436 -0.0836  0.2320
18984SOL    HW167266   3.585  10.681  -0.007  0.2698  0.6903  1.0644
18984SOL    HW267267   3.515  10.657   0.125 -0.8202 -0.0125  0.3756
18985SOL     OW67268   8.358   8.371   5.986 -0.8994 -0.3155 -0.2061
18985SOL    HW167269   8.381   8.363   5.893 -0.9623 -0.5290 -0.2053
18985SOL    HW267270   8.395   8.455   6.013 -0.9862 -0.1982 -0.4539
18986SOL     OW67271   4.376  12.348   2.498 -0.1244 -0.3299  0.7223
18986SOL    HW167272   4.282  12.344   2.479  0.2159 -1.1785 -0.9998
18986SOL    HW267273   4.385  12.313   2.586 -1.2479 -2.1854  0.1515
18987SOL     OW67274  10.539   8.793   5.545 -0.1445  0.5396  0.0631
18987SOL    HW167275  10.543   8.773   5.451  0.0509  1.4931 -0.1413
18987SOL    HW267276  10.463   8.849   5.555 -0.4580  0.0325  0.5631
18988SOL     OW67277  12.446   4.898   4.035 -0.6352 -0.2821 -0.0648
18988SOL    HW167278  12.515   4.885   4.100 -0.4518 -1.7202 -0.5013
18988SOL    HW267279  12.364   4.895   4.085 -0.4539 -0.2855  0.2336
18989SOL     OW67280  11.293   8.775   7.215  0.0841  0.0380  0.6139
18989SOL    HW167281  11.301   8.726   7.297 -1.6055 -1.1765  0.1172
18989SOL    HW267282  11.363   8.840   7.219  1.4164 -1.3761  2.0385
18990SOL     OW67283   9.727   4.421   8.211  0.3129 -0.1588  0.1506
18990SOL    HW167284   9.682   4.336   8.210  0.0463 -0.0241 -1.0883
18990SOL    HW267285   9.750   4.435   8.302 -1.0658 -0.8190  0.6266
18991SOL     OW67286   9.802   5.289   5.927 -0.0760  0.0168  0.3917
18991SOL    HW167287   9.751   5.224   5.877 -1.9385  0.3811  1.7008
18991SOL    HW267288   9.844   5.238   5.996  0.1818 -0.0910  0.1553
18992SOL     OW67289   8.297   4.911   6.820 -0.0264  0.1106  0.3477
18992SOL    HW167290   8.206   4.897   6.848 -0.0956 -0.1090  0.0214
18992SOL    HW267291   8.350   4.894   6.897 -0.1740 -1.0038  0.2129
18993SOL     OW67292   0.931   7.281   2.019  0.1623 -0.0130  0.4044
18993SOL    HW167293   0.982   7.301   1.941 -1.4127  0.1033 -0.6425
18993SOL    HW267294   0.975   7.205   2.057  1.9641  0.9674  0.4114
18994SOL     OW67295  12.094   6.580   0.754 -0.0808  0.1360 -0.2129
18994SOL    HW167296  12.161   6.642   0.785 -0.8148  0.8470 -0.0210
18994SOL    HW267297  12.111   6.572   0.660 -0.2115  0.9254 -0.3074
18995SOL     OW67298   8.789   9.941  11.941 -0.7312  0.2689 -0.5295
18995SOL    HW167299   8.790   9.973  11.851 -0.0952 -2.3991 -1.5612
18995SOL    HW267300   8.876   9.963  11.975 -0.0507 -0.9061 -1.4497
18996SOL     OW67301   7.197   1.165  10.251  0.0804  0.4368 -0.5699
18996SOL    HW167302   7.122   1.209  10.290  1.1083  0.5912  1.3451
18996SOL    HW267303   7.164   1.130  10.168 -2.1913  0.1489  0.3898
18997SOL     OW67304   2.721   1.303   6.509 -0.0084 -0.5933 -0.4434
18997SOL    HW167305   2.648   1.364   6.505  0.5400  0.0760 -0.3722
18997SOL    HW267306   2.691   1.233   6.567 -0.3407  0.0271  0.1506
18998SOL     OW67307   2.944   2.890  12.116  0.1093 -0.2787 -0.0536
18998SOL    HW167308   3.007   2.912  12.047  0.8936 -1.1743  0.3550
18998SOL    HW267309   2.885   2.966  12.121  1.4292  0.7744 -0.1299
18999SOL     OW67310   5.614  10.856   6.423 -0.3782 -0.1280 -0.0304
18999SOL    HW167311   5.578  10.785   6.370 -0.7188  0.9116 -1.2343
18999SOL    HW267312   5.550  10.867   6.494 -3.4081  2.5882 -2.8478
19000SOL     OW67313   3.697   5.329   6.349  0.0852  0.7902  0.3262
19000SOL    HW167314   3.739   5.247   6.326  0.4328  0.4375  2.1147
19000SOL    HW267315   3.681   5.323   6.443 -0.6858  2.4050  0.3370
19001SOL     OW67316   7.340  11.151   6.275  0.1455 -0.3357  0.4570
19001SOL    HW167317   7.427  11.156   6.315  1.5979 -2.0196 -2.1611
19001SOL    HW267318   7.345  11.074   6.218 -2.2044  1.0013 -1.7500
19002SOL     OW67319   2.843   6.821   0.743 -0.1359  0.4733  0.2523
19002SOL    HW167320   2.779   6.887   0.768 -0.5189 -0.1075  0.8256
19002SOL    HW267321   2.838   6.755   0.812  1.3566  0.6022  0.5285
19003SOL     OW67322  12.660   3.197   3.258  0.4604 -0.1263  0.0948
19003SOL    HW167323  12.726   3.181   3.190  1.5989 -1.1544  1.3998
19003SOL    HW267324  12.605   3.266   3.221  1.8179  0.2554 -1.3412
19004SOL     OW67325   4.321   5.564   7.020 -0.3489  0.2064  0.3303
19004SOL    HW167326   4.279   5.646   7.045 -0.6871  0.0993  0.1350
19004SOL    HW267327   4.268   5.496   7.063 -1.1010  0.0074 -0.8638
19005SOL     OW67328   7.527   7.420   7.197 -0.2267  0.3556 -0.1068
19005SOL    HW167329   7.485   7.422   7.111 -2.0873  0.2764  0.7472
19005SOL    HW267330   7.538   7.513   7.220  0.0030  0.3774 -0.2973
19006SOL     OW67331   4.732   6.268   5.614 -0.2754 -0.7659 -0.0403
19006SOL    HW167332   4.793   6.237   5.681 -1.1476 -2.7727 -0.1080
19006SOL    HW267333   4.761   6.225   5.533 -0.1339  0.4560 -0.6603
19007SOL     OW67334   5.140   8.097   4.423  0.4072  0.5127 -0.1753
19007SOL    HW167335   5.145   8.088   4.519 -2.1818  0.4138  0.0126
19007SOL    HW267336   5.230   8.084   4.394  0.9125 -2.0145  2.0410
19008SOL     OW67337   5.480  11.591   7.191 -0.1722 -0.2918  0.0405
19008SOL    HW167338   5.394  11.550   7.187 -0.7494  0.9487 -0.9389
19008SOL    HW267339   5.470  11.673   7.143  1.3549  0.2513  0.5823
19009SOL     OW67340   0.244   5.119   8.560 -0.5533  0.1759 -0.0571
19009SOL    HW167341   0.198   5.038   8.586  0.2789 -0.3092 -0.0495
19009SOL    HW267342   0.240   5.119   8.465  0.3484 -0.4369 -0.1107
19010SOL     OW67343   8.530   7.014   3.357 -0.0386  0.0829 -0.0213
19010SOL    HW167344   8.450   7.027   3.408 -1.8595 -0.5809 -2.5157
19010SOL    HW267345   8.577   7.097   3.366 -0.6536  0.2837  1.9963
19011SOL     OW67346   9.288   4.563   7.489 -0.1240  0.0882 -0.1608
19011SOL    HW167347   9.342   4.507   7.434  1.1953  0.3355  0.8175
19011SOL    HW267348   9.208   4.576   7.440  0.7967 -0.1193 -1.7695
19012SOL     OW67349   0.612   5.329   9.452  0.3329 -0.2423 -0.1815
19012SOL    HW167350   0.652   5.353   9.369 -1.8696  1.6857 -0.7866
19012SOL    HW267351   0.677   5.353   9.518  1.9198 -1.3478 -1.2523
19013SOL     OW67352   0.250   1.395   4.333 -0.1996  0.1844 -0.2839
19013SOL    HW167353   0.327   1.421   4.382 -0.5748 -0.3460  0.6173
19013SOL    HW267354   0.217   1.476   4.294  0.9036  0.3846 -0.8327
19014SOL     OW67355   6.300  11.566   0.059 -0.5841  0.3526 -0.7756
19014SOL    HW167356   6.332  11.586  -0.029  0.9156 -0.8132 -0.5340
19014SOL    HW267357   6.375  11.529   0.104 -1.4624  0.4605  0.8630
19015SOL     OW67358   4.294   9.489   0.888  0.4449 -0.1484  0.2953
19015SOL    HW167359   4.235   9.478   0.813 -1.8404 -0.2642  2.0084
19015SOL    HW267360   4.366   9.541   0.853 -0.8394  0.3690 -1.8447
19016SOL     OW67361   2.450   5.429   7.816  0.2771  0.2174  0.2207
19016SOL    HW167362   2.444   5.398   7.906  0.9695 -1.5619 -0.3001
19016SOL    HW267363   2.359   5.446   7.790  0.1815  2.4551  1.7582
19017SOL     OW67364  12.025  12.202   7.624 -0.6297 -0.0883  0.2256
19017SOL    HW167365  11.955  12.177   7.563 -0.0549 -1.2393  0.0048
19017SOL    HW267366  12.106  12.190   7.574 -0.1525 -1.0223  1.1752
19018SOL     OW67367   1.231   7.662   0.106 -0.2473  0.3754 -0.1260
19018SOL    HW167368   1.250   7.573   0.136 -1.1958 -0.4622 -1.8902
19018SOL    HW267369   1.267   7.718   0.175  2.9082 -1.2413 -0.2903
19019SOL     OW67370   5.633  12.586   9.501 -0.3023  0.2325 -0.2252
19019SOL    HW167371   5.611  12.504   9.457 -0.5137 -0.8854  1.8459
19019SOL    HW267372   5.550  12.619   9.535 -0.1877  1.2330 -0.8643
19020SOL     OW67373   8.601   8.584   9.699  0.0485 -0.4759  1.2801
19020SOL    HW167374   8.615   8.627   9.784  2.1599  1.8116 -0.1078
19020SOL    HW267375   8.656   8.506   9.703  1.7397  0.6596  1.3696
19021SOL     OW67376   7.693   8.359   2.870 -0.0369  0.1483 -0.3213
19021SOL    HW167377   7.632   8.387   2.937  0.8220  0.4795  0.3396
19021SOL    HW267378   7.645   8.294   2.818 -1.7425  2.0547 -1.2649
19022SOL     OW67379   8.663   1.581   0.927  0.1278 -0.1279 -0.5149
19022SOL    HW167380   8.738   1.603   0.871  0.6520 -0.6270 -0.0283
19022SOL    HW267381   8.679   1.490   0.953 -1.3065 -0.6636 -1.4216
19023SOL     OW67382   8.487   5.203   5.807  0.2642  0.5666  0.1025
19023SOL    HW167383   8.466   5.124   5.756  0.6852  1.5592 -1.6854
19023SOL    HW267384   8.535   5.259   5.746 -0.8710  2.6318  0.9896
19024SOL     OW67385  12.017  11.411   4.350 -0.0516  0.0829 -0.4639
19024SOL    HW167386  11.939  11.467   4.348 -0.6496 -0.7641 -2.5509
19024SOL    HW267387  12.075  11.455   4.412 -2.5937  0.1353  2.1325
19025SOL     OW67388   8.312   7.154   1.491  0.7873  0.0728  0.2969
19025SOL    HW167389   8.361   7.089   1.543  1.0327  1.1617  1.4775
19025SOL    HW267390   8.254   7.101   1.436  1.3930 -1.1720  0.7986
19026SOL     OW67391   5.619  10.891   2.639  0.4563 -0.1242 -0.4563
19026SOL    HW167392   5.653  10.819   2.586 -0.0656 -0.8687  0.1861
19026SOL    HW267393   5.692  10.913   2.698  0.7850  0.2203 -0.9782
19027SOL     OW67394  11.256   2.304   0.484 -0.3453 -0.2620  0.3036
19027SOL    HW167395  11.282   2.389   0.520  0.0810 -0.3081  0.1118
19027SOL    HW267396  11.219   2.257   0.559 -0.9984  0.2554  0.3104
19028SOL     OW67397   3.616  12.371  12.779 -0.0478  0.3382 -0.3599
19028SOL    HW167398   3.668  12.432  12.831 -1.4405  1.0008  0.3119
19028SOL    HW267399   3.664  12.288  12.784 -0.9018 -0.0926  3.3866
19029SOL     OW67400   1.443   1.463   2.065 -0.0707  0.0930 -0.4726
19029SOL    HW167401   1.391   1.410   2.004 -2.1272  1.7359 -0.2954
19029SOL    HW267402   1.434   1.552   2.031  2.0618  0.5507  0.0435
19030SOL     OW67403   7.492   2.255   2.484  0.1409  0.2626  0.3252
19030SOL    HW167404   7.461   2.316   2.417  0.4764  0.0943  0.0148
19030SOL    HW267405   7.499   2.308   2.563  0.5252  0.6497  0.0354
19031SOL     OW67406   6.241  10.302   7.718 -0.4054 -0.3039 -0.2758
19031SOL    HW167407   6.297  10.271   7.789 -0.7610  0.9003  0.5769
19031SOL    HW267408   6.253  10.239   7.648 -0.0334 -1.5371  0.8610
19032SOL     OW67409   1.785   1.723   0.137 -0.1231  0.5642  0.6390
19032SOL    HW167410   1.783   1.752   0.046  1.2682  1.1175  0.7608
19032SOL    HW267411   1.740   1.639   0.137 -0.5129  0.7608 -0.4798
19033SOL     OW67412   5.506   9.423  12.511  0.0834  0.1403  0.3917
19033SOL    HW167413   5.576   9.441  12.573 -1.4069  0.9720  1.9288
19033SOL    HW267414   5.490   9.329  12.520 -0.3876  0.3143  1.6323
19034SOL     OW67415   9.948   9.619  10.401 -0.1570 -0.0858 -0.2928
19034SOL    HW167416   9.983   9.705  10.423  0.2522 -0.2357 -0.3401
19034SOL    HW267417   9.856   9.624  10.424  0.2598 -0.2677  1.6212
19035SOL     OW67418   8.461  10.893   4.826 -0.2599 -0.2466  0.5206
19035SOL    HW167419   8.446  10.983   4.799 -2.1953 -0.9840 -1.1865
19035SOL    HW267420   8.417  10.885   4.911 -1.6145  0.0193 -0.1278
19036SOL     OW67421  12.272  12.237   7.534  0.3057  0.2064  0.0688
19036SOL    HW167422  12.327  12.233   7.456  3.0423 -0.4991  1.8941
19036SOL    HW267423  12.275  12.328   7.562  0.2869  0.2301 -0.0066
19037SOL     OW67424  11.398   2.956   0.612  0.3941 -0.0723 -0.5077
19037SOL    HW167425  11.460   2.944   0.540 -1.1328 -0.7325 -1.7938
19037SOL    HW267426  11.350   3.036   0.589 -1.0691 -1.0606 -1.0118
19038SOL     OW67427   7.346   2.119   1.732 -0.1446 -0.3259  0.2320
19038SOL    HW167428   7.319   2.181   1.665  0.2208  0.5927  0.9162
19038SOL    HW267429   7.374   2.174   1.805  2.6604 -1.2155 -0.0783
19039SOL     OW67430   0.557   7.648   4.436  0.3389 -0.1876 -0.0209
19039SOL    HW167431   0.586   7.566   4.475 -0.8056 -1.1193 -1.0569
19039SOL    HW267432   0.638   7.694   4.414  1.0377 -1.6209 -0.6079
19040SOL     OW67433   5.762   9.459  12.667 -0.0379 -0.4409  0.2034
19040SOL    HW167434   5.737   9.427  12.753  0.9267  0.2078  0.7504
19040SOL    HW267435   5.831   9.523  12.685  0.7606 -0.8975 -1.1047
19041SOL     OW67436  10.073   7.042   6.300 -0.7351 -0.1706  0.4010
19041SOL    HW167437  10.121   6.960   6.285  1.3952  0.7636  1.6899
19041SOL    HW267438   9.998   7.016   6.354 -0.0925 -1.2743  0.7921
19042SOL     OW67439   0.200   8.702   6.389  0.4504  0.1868 -0.3292
19042SOL    HW167440   0.151   8.718   6.469  0.2956 -0.2855 -0.3285
19042SOL    HW267441   0.135   8.709   6.319  0.6555  0.9777 -0.4547
19043SOL     OW67442   2.377   3.611   1.285 -0.5429 -0.4151  0.3034
19043SOL    HW167443   2.442   3.557   1.239  0.6424  0.0745  1.3384
19043SOL    HW267444   2.399   3.599   1.378 -1.5060  0.3138  0.6293
19044SOL     OW67445  11.256   1.081   3.518  0.4258  0.4525  0.4168
19044SOL    HW167446  11.212   1.055   3.600 -1.7946  2.1179 -0.1520
19044SOL    HW267447  11.270   0.998   3.472  0.6625 -0.4152  1.9540
19045SOL     OW67448   9.728  12.488  11.427 -0.0521  0.2000  0.3107
19045SOL    HW167449   9.783  12.560  11.393 -1.7053  0.5523 -1.8703
19045SOL    HW267450   9.657  12.532  11.474 -1.2981  0.1051 -1.3805
19046SOL     OW67451  12.513   9.560   5.171 -0.1666 -0.2529 -0.3993
19046SOL    HW167452  12.523   9.562   5.266 -0.5699 -0.3292 -0.3548
19046SOL    HW267453  12.569   9.631   5.139 -1.8141  1.3368  0.0505
19047SOL     OW67454   6.879  11.680   1.454  0.0226 -0.3446  0.3893
19047SOL    HW167455   6.818  11.607   1.469  1.8603 -1.5968  2.2881
19047SOL    HW267456   6.841  11.753   1.503  0.6828 -1.5360  2.8474
19048SOL     OW67457   1.688   6.604   7.618  0.1922 -0.2053 -0.0096
19048SOL    HW167458   1.619   6.635   7.559  1.3713 -0.0280 -1.3308
19048SOL    HW267459   1.645   6.598   7.703 -1.7627 -1.1656 -0.9911
19049SOL     OW67460   8.956   3.196   1.238  0.4758  0.1832 -0.0605
19049SOL    HW167461   8.892   3.200   1.309 -0.2547 -1.8412 -0.5135
19049SOL    HW267462   9.040   3.213   1.280  0.1350 -1.5265  1.4410
19050SOL     OW67463  11.442   1.089   1.100 -0.0326 -0.7254  0.3762
19050SOL    HW167464  11.478   1.083   1.012 -1.4457  1.1658 -0.4231
19050SOL    HW267465  11.500   1.150   1.146 -0.4899 -0.0341  0.0500
19051SOL     OW67466  11.550   5.712   9.276  0.9978 -0.1011  0.1441
19051SOL    HW167467  11.586   5.637   9.323  3.8559 -0.4347 -2.2506
19051SOL    HW267468  11.511   5.675   9.197  0.6413  0.7936 -0.1134
19052SOL     OW67469   5.435   7.432   3.602  0.1641  0.1688 -0.4084
19052SOL    HW167470   5.430   7.410   3.695 -2.1286 -2.5599 -1.0252
19052SOL    HW267471   5.524   7.462   3.588  0.5466  0.6900  2.6665
19053SOL     OW67472   5.560   9.937  12.294  0.1355 -0.7512 -0.5949
19053SOL    HW167473   5.535   9.872  12.360 -0.5021 -0.3883 -0.4676
19053SOL    HW267474   5.483   9.994  12.287  1.3512  1.1492  0.6828
19054SOL     OW67475   9.528  12.227   7.376 -0.9010 -0.2748 -0.3763
19054SOL    HW167476   9.470  12.166   7.422 -1.6334 -0.2987 -1.3087
19054SOL    HW267477   9.595  12.171   7.337 -2.2657 -0.6735 -2.2806
19055SOL     OW67478   0.877   8.908   1.835 -0.7546 -0.3790 -0.1668
19055SOL    HW167479   0.943   8.844   1.808  0.2051  0.6870 -0.4288
19055SOL    HW267480   0.847   8.877   1.920 -0.6229 -1.4025 -0.4746
19056SOL     OW67481   5.328   7.553   2.706 -0.8145  0.4214 -0.6167
19056SOL    HW167482   5.352   7.469   2.667  1.7310  0.4037  0.7727
19056SOL    HW267483   5.281   7.530   2.786  1.9367  0.1253  1.0413
19057SOL     OW67484   5.872   8.277  11.846  0.5819 -0.0945  0.4611
19057SOL    HW167485   5.912   8.349  11.894  0.8332  0.3773 -0.4241
19057SOL    HW267486   5.858   8.209  11.911  1.8602  0.1398  1.0010
19058SOL     OW67487   9.394   8.558   3.014  0.3316  0.3156 -0.7430
19058SOL    HW167488   9.302   8.534   2.999  0.0275 -0.7003  2.0876
19058SOL    HW267489   9.444   8.482   2.984 -0.0280 -0.4285  0.4593
19059SOL     OW67490   2.117   7.810   0.981  0.3013 -0.4281 -0.1792
19059SOL    HW167491   2.180   7.795   1.051  2.1729  0.2484 -1.6307
19059SOL    HW267492   2.111   7.726   0.935 -0.3655 -0.6657  0.3233
19060SOL     OW67493   6.752   3.009   3.256 -0.0142  0.3672 -0.3359
19060SOL    HW167494   6.668   3.053   3.258  0.3608  1.1241 -0.7952
19060SOL    HW267495   6.757   2.971   3.168 -0.1490 -0.2425 -0.0894
19061SOL     OW67496   4.880   4.198   6.600 -0.4186  0.2431 -0.0736
19061SOL    HW167497   4.884   4.112   6.558 -0.5202  0.3006 -0.2036
19061SOL    HW267498   4.814   4.246   6.550 -0.8683  0.1603  0.4309
19062SOL     OW67499   4.084   4.543   9.922  0.7453 -0.1580 -0.3099
19062SOL    HW167500   4.028   4.490   9.978  0.4466  0.3840 -0.0938
19062SOL    HW267501   4.041   4.541   9.836  1.0783 -0.7950 -0.4652
19063SOL     OW67502   3.441   9.114  10.850  0.1985  0.2136 -0.6039
19063SOL    HW167503   3.466   9.164  10.928  2.0347 -0.5785 -0.6377
19063SOL    HW267504   3.424   9.181  10.783  1.2124  0.8377 -0.2550
19064SOL     OW67505   9.925   2.534   9.524 -0.7506  0.5610  0.1202
19064SOL    HW167506   9.830   2.523   9.517 -0.7024 -0.9883  1.2545
19064SOL    HW267507   9.957   2.516   9.436 -1.3842 -0.8125  0.1377
19065SOL     OW67508   8.609   0.486   7.431  0.3494 -0.0950 -0.2024
19065SOL    HW167509   8.618   0.446   7.517 -1.5115 -1.0250 -0.3708
19065SOL    HW267510   8.559   0.422   7.380  0.8317  0.7207 -1.7736
19066SOL     OW67511   9.845   6.228   6.245  0.4743 -0.0352 -0.4836
19066SOL    HW167512   9.803   6.210   6.329  0.6246  2.7109  0.2756
19066SOL    HW267513   9.808   6.164   6.185 -2.0260 -0.0896  0.9910
19067SOL     OW67514   2.577   8.162   9.625  0.0295 -0.2465  0.7720
19067SOL    HW167515   2.590   8.223   9.552  1.1241  0.5859  1.6201
19067SOL    HW267516   2.660   8.114   9.632 -0.6233 -1.4469  0.4838
19068SOL     OW67517  11.015  12.366   4.943 -0.1839  0.1347  0.2045
19068SOL    HW167518  11.023  12.410   5.027  4.1141  0.2347 -0.0324
19068SOL    HW267519  10.998  12.274   4.966  0.4286  0.2462  1.1708
19069SOL     OW67520  12.216   2.172   3.184 -0.2401 -0.2675  0.5410
19069SOL    HW167521  12.146   2.234   3.159 -0.1525 -0.6656 -0.7440
19069SOL    HW267522  12.177   2.086   3.171  1.1205 -0.5588 -2.3295
19070SOL     OW67523   3.689   9.849   1.689  0.0287 -0.4816  0.1105
19070SOL    HW167524   3.637   9.776   1.723 -2.2771  1.2537  0.5509
19070SOL    HW267525   3.660   9.925   1.740 -0.0992  1.3524 -2.4921
19071SOL     OW67526   7.718   8.314   5.060  0.0162  0.0884  0.2153
19071SOL    HW167527   7.777   8.385   5.087 -0.3013  0.1083  0.8895
19071SOL    HW267528   7.633   8.339   5.096 -0.5085  0.2629 -1.0868
19072SOL     OW67529   5.914   2.973   2.364 -0.0328 -0.4962 -0.2564
19072SOL    HW167530   5.872   3.053   2.396  1.5730  0.1140  0.4062
19072SOL    HW267531   5.903   2.978   2.269  1.4033  1.3649 -0.3909
19073SOL     OW67532   6.718  12.802  10.059 -0.3968  0.3007  0.3000
19073SOL    HW167533   6.800  12.833  10.098 -0.3374 -0.1467  0.5339
19073SOL    HW267534   6.731  12.814   9.965 -0.5445  1.3862  0.4118
19074SOL     OW67535   1.502   6.981   8.738  0.2375 -0.1915  0.9447
19074SOL    HW167536   1.561   6.928   8.792  0.2175 -0.6744  0.4977
19074SOL    HW267537   1.431   7.005   8.798  0.7961  0.2636  1.4401
19075SOL     OW67538   2.718  10.748   7.066 -0.5147  0.2298  0.2647
19075SOL    HW167539   2.786  10.680   7.063  0.9618  1.6766 -1.6597
19075SOL    HW267540   2.694  10.754   7.159  3.2656  0.8261  1.3748
19076SOL     OW67541   6.453   1.790   9.273  0.1959 -0.6411  0.7116
19076SOL    HW167542   6.526   1.770   9.332  0.6619 -1.5212 -0.1393
19076SOL    HW267543   6.495   1.822   9.193 -0.3323 -1.3616  0.1382
19077SOL     OW67544  12.481   1.069   5.816 -0.0626  0.1393  0.2930
19077SOL    HW167545  12.391   1.102   5.821 -0.5051 -0.6361 -1.5362
19077SOL    HW267546  12.482   0.994   5.875 -0.1994  0.9583  1.3714
19078SOL     OW67547   4.070   0.316   5.854 -0.1005  0.0287  0.3742
19078SOL    HW167548   4.135   0.378   5.820 -0.1864  0.9167  1.7463
19078SOL    HW267549   4.046   0.352   5.940  0.3411 -2.2518  1.5209
19079SOL     OW67550   1.541  10.223   9.207  0.0764  0.1197 -0.8329
19079SOL    HW167551   1.607  10.265   9.261 -0.1824  1.4345 -1.5005
19079SOL    HW267552   1.558  10.129   9.216  0.5860  0.3509  0.7924
19080SOL     OW67553   5.245   8.327  12.228  0.4983  0.3090 -0.2276
19080SOL    HW167554   5.204   8.257  12.279  1.3675 -0.7289 -0.9365
19080SOL    HW267555   5.197   8.406  12.254  1.1520 -0.0954  2.5028
19081SOL     OW67556   4.178  12.097   2.102 -0.1572 -0.1765  0.0026
19081SOL    HW167557   4.197  12.158   2.031 -3.5695  0.5949 -0.4268
19081SOL    HW267558   4.116  12.143   2.158 -0.3578 -2.1095  1.4962
19082SOL     OW67559   9.995   3.349   7.541  0.4520 -0.1518 -0.3152
19082SOL    HW167560   9.990   3.440   7.512 -0.0069 -0.0936 -0.0696
19082SOL    HW267561  10.086   3.337   7.569  0.7427 -0.0281 -1.1683
19083SOL     OW67562   6.897  10.324  10.299 -0.0229  0.5083  0.5605
19083SOL    HW167563   6.853  10.245  10.269 -0.1235  1.0865 -0.9083
19083SOL    HW267564   6.927  10.303  10.387 -1.8180 -0.4598  0.9870
19084SOL     OW67565   3.985   6.397   1.231  0.3190 -0.8394  0.4136
19084SOL    HW167566   3.951   6.369   1.316 -1.1389 -1.1127 -0.2151
19084SOL    HW267567   3.932   6.474   1.209  0.1169 -1.2481 -0.5900
19085SOL     OW67568  10.564   4.182   3.743 -0.0710  0.0139  0.3202
19085SOL    HW167569  10.619   4.238   3.687 -0.3958  0.8468  0.8098
19085SOL    HW267570  10.616   4.169   3.822 -0.0571 -0.2565  0.2657
19086SOL     OW67571  10.123   4.492   4.568 -0.3230  0.0265  0.3381
19086SOL    HW167572  10.209   4.523   4.597 -0.5938  0.1240  1.0609
19086SOL    HW267573  10.081   4.570   4.531 -0.7374  0.3782  1.5206
19087SOL     OW67574   9.163   8.395   8.117 -0.2539  0.1305  0.4922
19087SOL    HW167575   9.163   8.467   8.180 -0.9043  0.3070  0.2940
19087SOL    HW267576   9.085   8.409   8.064 -1.5684 -1.8512  1.7439
19088SOL     OW67577   0.125  10.381   8.270  0.1131 -0.3836 -0.2851
19088SOL    HW167578   0.098  10.292   8.248 -2.5596  0.4225 -0.5426
19088SOL    HW267579   0.115  10.386   8.365 -0.2257 -0.2163 -0.3283
19089SOL     OW67580  10.107   9.003   4.705  0.9141  0.2811  0.4070
19089SOL    HW167581  10.079   9.093   4.686 -0.3648 -0.1791  0.0360
19089SOL    HW267582  10.051   8.948   4.649  1.8746 -0.7360  0.4184
19090SOL     OW67583   3.607  12.554   9.965  0.2777 -0.1284 -0.2813
19090SOL    HW167584   3.673  12.542  10.034  1.4545  0.5445 -1.2485
19090SOL    HW267585   3.614  12.475   9.911  1.9842  0.9010 -1.7057
19091SOL     OW67586   6.140   3.994   5.973 -0.6244 -0.2852  0.0798
19091SOL    HW167587   6.053   3.979   5.935 -1.1227 -0.0400  1.0914
19091SOL    HW267588   6.134   4.080   6.013 -0.1844 -0.6287  0.8973
19092SOL     OW67589   0.191   6.879   6.588  0.2937 -0.4438 -0.0277
19092SOL    HW167590   0.177   6.821   6.513 -0.0483  1.1106 -1.2200
19092SOL    HW267591   0.111   6.930   6.593  0.3895 -0.4076  1.3220
19093SOL     OW67592   7.690   1.525   2.213 -0.3834 -0.9419 -0.4710
19093SOL    HW167593   7.643   1.606   2.235 -0.6178 -0.2806 -3.0143
19093SOL    HW267594   7.774   1.534   2.257 -1.2523 -0.4218  1.1714
19094SOL     OW67595  12.451   6.357   0.365  0.5216  0.2915  0.3973
19094SOL    HW167596  12.514   6.287   0.382 -1.5730 -1.4944  1.3972
19094SOL    HW267597  12.449   6.408   0.445 -0.9957 -1.1814  1.3929
19095SOL     OW67598   7.963   8.240   5.913  0.1383 -0.6691 -0.3192
19095SOL    HW167599   7.996   8.271   5.998 -1.0329  1.5347 -0.5920
19095SOL    HW267600   8.007   8.295   5.849 -1.4710 -0.0036 -0.8971
19096SOL     OW67601  11.597   6.112   1.137  0.1235 -0.2859 -0.6137
19096SOL    HW167602  11.645   6.176   1.190 -0.4326  0.7404 -1.3027
19096SOL    HW267603  11.653   6.098   1.060  0.2543 -0.6461 -0.4540
19097SOL     OW67604   1.875   7.836   2.301 -0.8011 -0.7242 -0.2444
19097SOL    HW167605   1.924   7.754   2.303 -0.1524 -0.3436  1.5233
19097SOL    HW267606   1.906   7.880   2.222 -0.3410 -1.6906 -0.6242
19098SOL     OW67607  12.170  11.108  12.465 -0.0151 -0.4915  0.1169
19098SOL    HW167608  12.130  11.093  12.379 -1.0258 -0.9568  0.6439
19098SOL    HW267609  12.208  11.195  12.459  1.3041 -1.0970 -1.2984
19099SOL     OW67610   5.796   7.007   3.022 -0.1656  0.4302 -0.0879
19099SOL    HW167611   5.817   7.057   2.944  1.9592 -1.5987 -0.9270
19099SOL    HW267612   5.833   7.057   3.095  0.6962  0.7620 -0.7453
19100SOL     OW67613   2.877   9.542   8.678 -0.4211 -0.1962  0.3657
19100SOL    HW167614   2.873   9.474   8.744  1.1734  1.0629  1.8451
19100SOL    HW267615   2.953   9.521   8.625 -1.0866 -0.6286 -0.4417
19101SOL     OW67616   1.866   1.843   5.024  0.5324  0.1469  0.5902
19101SOL    HW167617   1.789   1.787   5.031  0.2880  0.2860 -0.7486
19101SOL    HW267618   1.851   1.913   5.088 -1.4365  1.2806 -0.9836
19102SOL     OW67619  10.618   1.129  12.760 -0.0363 -0.4714  0.4422
19102SOL    HW167620  10.663   1.153  12.679 -1.5265 -0.0840 -0.3062
19102SOL    HW267621  10.573   1.209  12.788 -1.0184 -1.0713  0.6396
19103SOL     OW67622  10.623  10.449   2.949 -0.2007  0.4505  0.0833
19103SOL    HW167623  10.644  10.419   2.861  1.2032  1.5408  0.0019
19103SOL    HW267624  10.693  10.413   3.004 -0.6387  0.3988  0.6157
19104SOL     OW67625   1.427  12.839   3.644 -0.1159  0.0613  0.6711
19104SOL    HW167626   1.359  12.827   3.710  0.7381 -0.4616  1.4914
19104SOL    HW267627   1.458  12.929   3.657 -0.2547  0.1071  0.6820
19105SOL     OW67628   0.141   0.253   4.231 -0.1255 -0.3649  0.7118
19105SOL    HW167629   0.145   0.158   4.246  1.6180 -0.2998  0.8419
19105SOL    HW267630   0.069   0.264   4.169  1.1046 -2.0710 -1.1761
19106SOL     OW67631   7.357  12.630   5.192  0.2742  0.0778  0.3223
19106SOL    HW167632   7.408  12.711   5.199 -2.6409  2.1074 -0.2748
19106SOL    HW267633   7.382  12.594   5.107  0.6585  1.0648  0.0005
19107SOL     OW67634   7.708  12.246   8.662  0.5423  0.4948 -0.4917
19107SOL    HW167635   7.751  12.225   8.579  0.2515  1.0803 -0.7993
19107SOL    HW267636   7.776  12.291   8.712  0.3382  1.3244 -0.9361
19108SOL     OW67637   6.859   7.000   2.245 -0.3830 -0.2103  0.1759
19108SOL    HW167638   6.772   7.016   2.209 -0.1169 -0.5767 -0.6550
19108SOL    HW267639   6.878   6.909   2.221  1.5302  0.7778 -2.5271
19109SOL     OW67640  11.861   7.424  12.209 -0.2655 -0.1435 -0.0397
19109SOL    HW167641  11.824   7.492  12.266  1.3408  0.7373 -0.0057
19109SOL    HW267642  11.922   7.376  12.266  0.1439 -0.3000 -0.6057
19110SOL     OW67643   6.939   0.939   2.030  0.0965  0.2632  0.1062
19110SOL    HW167644   6.894   0.855   2.021 -0.3093  0.4379  0.4962
19110SOL    HW267645   6.882   0.991   2.086 -0.1599  1.1602 -0.9576
19111SOL     OW67646  11.484   3.488   4.660  0.2178  0.7210  0.4955
19111SOL    HW167647  11.417   3.501   4.592 -1.0384  0.6183  1.6757
19111SOL    HW267648  11.471   3.561   4.720 -0.2352 -0.4425  1.8510
19112SOL     OW67649   2.662   6.840   9.390  0.1812  0.7991  0.5273
19112SOL    HW167650   2.691   6.807   9.305 -3.2264 -1.3882  0.0258
19112SOL    HW267651   2.738   6.887   9.425  2.2858  0.2747 -2.9015
19113SOL     OW67652  12.540   4.130  12.277  0.0837  0.1713  0.3358
19113SOL    HW167653  12.608   4.193  12.255 -0.1880  0.6130  0.7576
19113SOL    HW267654  12.565   4.096  12.363 -0.9889  1.4124  1.1711
19114SOL     OW67655   2.798   8.109   5.622 -0.3061  0.0001 -0.6816
19114SOL    HW167656   2.765   8.022   5.645 -1.4686  0.1975 -1.5078
19114SOL    HW267657   2.872   8.092   5.565 -0.0085 -0.4503 -0.1745
19115SOL     OW67658   3.484   1.181   9.501 -0.0996 -0.3960  0.0964
19115SOL    HW167659   3.547   1.207   9.568 -1.3297  0.0905  1.1031
19115SOL    HW267660   3.421   1.253   9.497 -0.0709 -0.4420 -1.5643
19116SOL     OW67661   2.327   0.437   0.925  0.1408  0.2058 -0.5329
19116SOL    HW167662   2.378   0.357   0.913  0.6337  0.5831 -1.0407
19116SOL    HW267663   2.238   0.413   0.902  0.5056  0.1019 -1.9001
19117SOL     OW67664   0.420   4.543   2.386  0.2534  0.4949 -0.7627
19117SOL    HW167665   0.455   4.457   2.362  0.1851 -0.1088  1.1255
19117SOL    HW267666   0.431   4.548   2.481 -3.1020  0.9955 -0.2770
19118SOL     OW67667   2.322   8.073   3.753  0.1070 -0.3325 -0.4266
19118SOL    HW167668   2.414   8.046   3.755 -0.0131 -0.7549 -0.5854
19118SOL    HW267669   2.288   8.038   3.671 -0.4299 -0.9646  0.0566
19119SOL     OW67670  11.486   5.029   6.043  0.0091  0.2987 -0.6343
19119SOL    HW167671  11.521   5.080   5.970  0.0296  0.1759 -0.7106
19119SOL    HW267672  11.456   4.948   6.003  1.0959 -0.2669 -0.3388
19120SOL     OW67673  11.232   8.687   0.383 -0.5492 -0.3662  0.6630
19120SOL    HW167674  11.288   8.670   0.308 -0.3887 -2.8334  1.2626
19120SOL    HW267675  11.283   8.747   0.438  0.1603 -0.1128 -0.2478
19121SOL     OW67676   2.813   8.021   7.406 -0.2455 -0.2445  0.0540
19121SOL    HW167677   2.733   8.003   7.454 -0.2960  0.7941  0.3919
19121SOL    HW267678   2.790   8.092   7.346  0.6131  0.6218  0.7157
19122SOL     OW67679   8.678  12.154   7.807 -0.1154  0.2143  0.0563
19122SOL    HW167680   8.613  12.128   7.742  0.6342 -0.6514 -0.3740
19122SOL    HW267681   8.748  12.195   7.756  1.5155 -2.4318 -0.0356
19123SOL     OW67682   8.103   8.298   3.334  0.2971 -0.5409  0.0243
19123SOL    HW167683   8.126   8.391   3.330 -0.7933 -0.2701 -0.4859
19123SOL    HW267684   8.059   8.288   3.418 -2.1793  0.0962 -1.0812
19124SOL     OW67685   2.212   9.457  12.053 -0.4179 -0.7166 -0.2553
19124SOL    HW167686   2.218   9.363  12.070 -0.5582 -0.1629  3.7863
19124SOL    HW267687   2.118   9.475  12.052 -0.4051 -0.2694  2.0909
19125SOL     OW67688   9.095   4.902   1.819 -0.1047 -0.7216  0.8474
19125SOL    HW167689   9.121   4.841   1.888  0.2230 -1.5006  0.0520
19125SOL    HW267690   9.016   4.945   1.854  0.8202 -0.1062  2.2605
19126SOL     OW67691   0.420  12.535   6.085 -0.2171 -0.0333  0.1569
19126SOL    HW167692   0.419  12.442   6.106  0.4117  0.1607  1.1118
19126SOL    HW267693   0.455  12.577   6.164 -3.6596  1.3523  1.1314
19127SOL     OW67694   7.895   8.801  10.362 -0.6855  0.6861  0.0679
19127SOL    HW167695   7.851   8.858  10.299 -0.4565  0.5962 -0.1738
19127SOL    HW267696   7.983   8.789  10.327 -1.0810 -0.7725 -0.5238
19128SOL     OW67697   6.213  10.445   2.198 -0.3919  0.0882  0.1193
19128SOL    HW167698   6.214  10.413   2.108  0.9926  1.3090 -0.3472
19128SOL    HW267699   6.145  10.394   2.242  0.5287 -2.2048 -0.9992
19129SOL     OW67700   6.363   2.029   1.981 -0.0374  0.6029  0.4752
19129SOL    HW167701   6.459   2.035   1.988  0.1686 -1.5852  0.0851
19129SOL    HW267702   6.339   2.106   1.930  1.7355  0.2845 -0.9694
19130SOL     OW67703   1.491   9.891   2.824  0.5251  0.0574  0.2211
19130SOL    HW167704   1.447   9.817   2.866 -0.1889  0.2203 -0.2330
19130SOL    HW267705   1.434   9.916   2.752  1.0885  0.6332 -0.0375
19131SOL     OW67706  12.845  11.682   2.101 -0.4420  0.1243 -0.4956
19131SOL    HW167707  12.811  11.631   2.174  0.0569 -0.1698 -0.4641
19131SOL    HW267708  12.770  11.733   2.070 -0.6981  0.1289  0.1151
19132SOL     OW67709   9.315   1.751   1.858  0.8630  0.1929  0.0457
19132SOL    HW167710   9.382   1.819   1.850  0.9683  0.0745 -0.0629
19132SOL    HW267711   9.245   1.779   1.799  1.4450 -0.4470 -0.9693
19133SOL     OW67712   6.768  10.234   8.694 -0.2110 -0.0783  0.1579
19133SOL    HW167713   6.781  10.216   8.601  1.0601  0.5605  0.1962
19133SOL    HW267714   6.856  10.240   8.730 -0.4931  3.6215  0.6394
19134SOL     OW67715   8.059   2.782   4.498 -0.7440 -0.9291  0.5777
19134SOL    HW167716   8.090   2.707   4.548 -1.4596 -0.5084  1.6730
19134SOL    HW267717   8.041   2.746   4.411  1.0812 -1.5348  0.4178
19135SOL     OW67718   5.197  12.024   7.624 -0.0625 -0.5180 -0.6580
19135SOL    HW167719   5.110  11.989   7.643  0.3652 -1.6896 -0.8131
19135SOL    HW267720   5.233  12.048   7.709  0.6536 -2.9005 -0.2390
19136SOL     OW67721   4.203  10.825  12.757  0.1883 -0.0632 -0.3321
19136SOL    HW167722   4.132  10.887  12.742 -0.0786  0.3711  2.2916
19136SOL    HW267723   4.280  10.879  12.772  0.0376 -0.3060  1.5787
19137SOL     OW67724   1.802   2.011   9.127  0.2758 -0.5777 -0.5621
19137SOL    HW167725   1.732   1.950   9.105 -0.2237 -0.2522  0.0864
19137SOL    HW267726   1.840   1.975   9.208  0.0284 -0.0724 -0.2212
19138SOL     OW67727   9.576  11.028   2.648 -0.1801  0.2064 -0.4146
19138SOL    HW167728   9.521  10.950   2.638  0.9238 -0.6709  0.1248
19138SOL    HW267729   9.531  11.095   2.597 -0.7779 -0.9745 -1.5173
19139SOL     OW67730   0.538   8.293   5.595 -0.3886  0.8457 -0.1055
19139SOL    HW167731   0.620   8.321   5.634 -0.2101  0.0360  0.1159
19139SOL    HW267732   0.482   8.370   5.599  0.0674  1.1502  0.5467
19140SOL     OW67733   9.365   2.262   8.571  0.3390  0.2317  0.3570
19140SOL    HW167734   9.430   2.329   8.591  1.1325 -0.3261 -0.2984
19140SOL    HW267735   9.343   2.275   8.479 -0.3927  0.3386  0.5427
19141SOL     OW67736   3.153   2.904   4.871  0.2785 -0.0974  0.4979
19141SOL    HW167737   3.156   2.877   4.779  1.7768  1.3490  0.0742
19141SOL    HW267738   3.079   2.855   4.908  0.7428 -2.0778 -1.0213
19142SOL     OW67739   6.080  11.994   3.705  0.6705 -0.3442 -0.2242
19142SOL    HW167740   6.026  11.964   3.632 -0.5182  0.0960  0.4476
19142SOL    HW267741   6.056  12.085   3.718  1.5857 -0.1344  0.1010
19143SOL     OW67742  12.047  11.999   4.684 -0.1275  0.0289  0.2357
19143SOL    HW167743  12.121  12.006   4.744  1.1467  2.4376 -1.5028
19143SOL    HW267744  11.971  11.989   4.742  1.4237 -2.3546  2.0580
19144SOL     OW67745   8.515   3.155   1.150  0.2239  0.8408 -0.3188
19144SOL    HW167746   8.593   3.102   1.137  0.2538  0.9166 -0.4485
19144SOL    HW267747   8.442   3.093   1.141  0.2541  0.8385 -0.5712
19145SOL     OW67748   6.610   5.350   1.041 -0.0908 -0.4813  0.2465
19145SOL    HW167749   6.630   5.406   1.116 -0.8869  0.8848 -0.5142
19145SOL    HW267750   6.516   5.332   1.049 -1.2334  3.0975 -2.4924
19146SOL     OW67751   3.167   9.004  10.063  0.5184  0.0737  0.4140
19146SOL    HW167752   3.159   8.910  10.077  0.2564  0.0924  0.3966
19146SOL    HW267753   3.217   9.012   9.982 -0.4759 -0.0621 -0.2264
19147SOL     OW67754  11.102   4.402   4.095 -0.4054  0.3930 -0.5141
19147SOL    HW167755  11.121   4.485   4.051  1.0096  0.5215  0.2956
19147SOL    HW267756  11.102   4.424   4.188  2.4331 -0.9296 -0.1236
19148SOL     OW67757  10.170   8.138  12.457  0.1760 -0.1946 -0.1145
19148SOL    HW167758  10.248   8.082  12.458  0.3537 -0.1400  3.6483
19148SOL    HW267759  10.115   8.102  12.527 -0.6598  3.0200  1.0216
19149SOL     OW67760  10.664  11.257   4.754 -0.5423 -0.0313  0.0583
19149SOL    HW167761  10.687  11.284   4.842 -3.5859  0.1757  0.9187
19149SOL    HW267762  10.625  11.334   4.714 -0.3895 -0.4813 -1.0007
19150SOL     OW67763   1.263   0.251   3.886 -0.5248 -0.0615  0.0854
19150SOL    HW167764   1.257   0.331   3.835 -0.7087 -0.3770 -0.3996
19150SOL    HW267765   1.263   0.181   3.820  0.1394 -0.4364  0.4739
19151SOL     OW67766  10.952   9.895   1.559  0.3641 -0.1111 -0.4919
19151SOL    HW167767  10.939   9.916   1.651  1.7931 -1.7335  0.1449
19151SOL    HW267768  11.041   9.861   1.554 -0.2199 -1.5915 -2.1672
19152SOL     OW67769   0.975   5.448   9.846  0.3252  0.2731 -0.0308
19152SOL    HW167770   0.968   5.375   9.908  1.9214  0.5839  0.5592
19152SOL    HW267771   1.069   5.456   9.829  0.2784  2.6553  0.4833
19153SOL     OW67772   9.481   7.070   7.502  0.1343  0.4056  0.3938
19153SOL    HW167773   9.402   7.065   7.447  0.8990 -0.5633 -0.6654
19153SOL    HW267774   9.464   7.008   7.573  0.7627 -1.4419 -0.9874
19154SOL     OW67775   0.445   9.666   3.459  0.0361  0.2785 -0.3908
19154SOL    HW167776   0.540   9.660   3.447 -0.0956 -1.6837 -0.7052
19154SOL    HW267777   0.421   9.746   3.412  1.3540 -0.0108 -1.6533
19155SOL     OW67778   0.707   9.055   5.788  0.0468 -0.6796 -0.4350
19155SOL    HW167779   0.668   9.142   5.796  0.5712 -0.2669 -1.9879
19155SOL    HW267780   0.658   9.013   5.717 -1.0972 -2.1954  1.1782
19156SOL     OW67781  11.736  11.030   4.885  0.2800 -0.0298 -0.1522
19156SOL    HW167782  11.735  11.036   4.790  1.8782 -0.4410 -0.2209
19156SOL    HW267783  11.821  10.992   4.906 -0.1558 -0.2153  1.4320
19157SOL     OW67784  11.985   5.431   9.535  0.1655 -0.1019 -0.0357
19157SOL    HW167785  11.994   5.511   9.484 -0.3502 -0.0179  0.0101
19157SOL    HW267786  12.059   5.377   9.507 -0.6848 -0.4807 -1.6380
19158SOL     OW67787   6.063  12.424  10.963 -0.2608  0.0732 -0.5821
19158SOL    HW167788   6.060  12.504  11.016 -1.3474  0.4667 -1.1999
19158SOL    HW267789   6.104  12.359  11.019  4.1911  1.9200 -1.2601
19159SOL     OW67790   7.858   4.022   5.521  0.3848 -0.0105  0.1053
19159SOL    HW167791   7.851   4.022   5.617 -2.2962  2.6779  0.0624
19159SOL    HW267792   7.793   4.087   5.492 -0.8813 -2.6146 -3.7055
19160SOL     OW67793   8.259   9.457   4.452 -0.3844  0.2201 -0.0007
19160SOL    HW167794   8.178   9.406   4.449 -0.1206 -0.1775 -0.7652
19160SOL    HW267795   8.329   9.391   4.448 -0.0425  0.6247 -1.2282
19161SOL     OW67796   8.126   3.053   2.321  0.1443 -0.1620 -0.3134
19161SOL    HW167797   8.206   3.017   2.282  0.3196 -0.3057  0.1733
19161SOL    HW267798   8.152   3.080   2.409 -0.4202 -0.5362 -0.0204
19162SOL     OW67799  11.118   9.974   0.101  0.1389  0.2173  0.3869
19162SOL    HW167800  11.024   9.992   0.098  0.3423  1.3072 -2.4277
19162SOL    HW267801  11.125   9.889   0.145 -2.1275  0.2269  0.8526
19163SOL     OW67802   2.365   8.407   4.944 -0.3243 -0.5029  0.0700
19163SOL    HW167803   2.297   8.473   4.927 -0.9740 -1.0920  0.3601
19163SOL    HW267804   2.326   8.348   5.008  0.3407 -1.0457 -0.0140
19164SOL     OW67805   5.579   8.712   3.724  0.0167 -0.0917  0.3740
19164SOL    HW167806   5.501   8.692   3.672  1.1804 -1.5533 -0.9161
19164SOL    HW267807   5.603   8.629   3.765  1.6908 -0.0339 -0.4183
19165SOL     OW67808   9.365  10.815   8.302 -0.2058  0.2758  0.1726
19165SOL    HW167809   9.285  10.765   8.284 -0.5967  0.6849  0.7528
19165SOL    HW267810   9.358  10.840   8.394 -0.3055  1.8828 -0.2400
19166SOL     OW67811   5.307  10.943  10.065 -0.6062 -0.1936  0.0294
19166SOL    HW167812   5.327  11.003   9.993 -1.6777  0.2907  0.1075
19166SOL    HW267813   5.390  10.901  10.086 -0.4235 -0.9925 -2.0530
19167SOL     OW67814   4.326   1.531   2.116  0.4217  0.1996  0.8269
19167SOL    HW167815   4.355   1.603   2.061 -1.7247  0.4585 -0.0603
19167SOL    HW267816   4.359   1.452   2.072  0.4098  0.5083  0.2574
19168SOL     OW67817   0.556   5.504   9.916 -0.3228 -0.4794 -0.3456
19168SOL    HW167818   0.540   5.437   9.982 -1.8376  0.0216 -0.1595
19168SOL    HW267819   0.645   5.534   9.932 -1.0969  0.6239  2.4235
19169SOL     OW67820  11.716   7.065  10.414 -0.0570  0.2176 -0.1909
19169SOL    HW167821  11.754   6.996  10.359 -0.6805  0.7934 -1.3660
19169SOL    HW267822  11.675   7.017  10.486 -0.0381 -0.6095 -0.7137
19170SOL     OW67823   4.682   4.079  10.445  0.1121 -0.2157  0.1877
19170SOL    HW167824   4.711   4.161  10.404 -0.8213 -0.0300 -0.1296
19170SOL    HW267825   4.658   4.023  10.371 -0.7259 -0.2049  0.4431
19171SOL     OW67826   0.549  12.041   2.818  0.6443  0.3965  0.0391
19171SOL    HW167827   0.496  12.004   2.888 -0.4359  0.7052 -0.6003
19171SOL    HW267828   0.601  12.109   2.860  1.8468 -1.0473  1.0205
19172SOL     OW67829   9.620   5.720   1.455 -0.7649 -0.3619 -0.0363
19172SOL    HW167830   9.615   5.625   1.466 -0.6810 -0.1153  3.0220
19172SOL    HW267831   9.571   5.755   1.529  0.5558  1.9944 -0.1782
19173SOL     OW67832  11.734   7.683   8.343  0.8266  0.5399  0.2498
19173SOL    HW167833  11.736   7.594   8.307  1.3881  0.4768  0.4156
19173SOL    HW267834  11.765   7.739   8.272  1.0721  0.5218  0.3383
19174SOL     OW67835   6.483   9.522   8.859 -0.0286  0.0157  0.2330
19174SOL    HW167836   6.571   9.492   8.836 -0.1631 -0.9503  0.9345
19174SOL    HW267837   6.473   9.605   8.811  0.4370 -0.9334 -1.5894
19175SOL     OW67838   7.995   9.038   5.810 -0.4351 -0.1190  0.0139
19175SOL    HW167839   8.044   9.119   5.795 -2.1156  0.9159 -0.1198
19175SOL    HW267840   7.945   9.025   5.730 -2.3045  0.2762  1.0610
19176SOL     OW67841   5.129   7.669  12.850  0.6947  0.1235  0.6160
19176SOL    HW167842   5.093   7.631  12.770  0.1292 -0.0121  0.9277
19176SOL    HW267843   5.203   7.613  12.872  2.1138  1.2948 -0.8806
19177SOL     OW67844   6.856   2.259   6.004 -0.1214 -0.6428  0.1172
19177SOL    HW167845   6.830   2.178   6.048 -1.7832  0.1053  0.6007
19177SOL    HW267846   6.787   2.275   5.940 -0.2523  0.7938  0.5807
19178SOL     OW67847   2.789   0.535   4.569 -0.0123 -0.3782 -0.4654
19178SOL    HW167848   2.851   0.552   4.640 -0.5994 -0.3393  0.0442
19178SOL    HW267849   2.707   0.514   4.613 -0.7574  1.0094 -1.1360
19179SOL     OW67850  12.489   2.763   5.416 -0.2589 -0.0006  0.2972
19179SOL    HW167851  12.578   2.751   5.449  0.4040 -0.1267 -1.4405
19179SOL    HW267852  12.461   2.676   5.387 -1.0798 -0.0204  1.0856
19180SOL     OW67853   1.801   4.407   5.781  0.0097  0.4330  0.2745
19180SOL    HW167854   1.844   4.349   5.844 -0.5773  1.1199  1.3379
19180SOL    HW267855   1.867   4.474   5.763 -0.9667  2.3609  3.0724
19181SOL     OW67856  10.797   3.601   2.023  0.0488 -0.3188  0.2466
19181SOL    HW167857  10.848   3.560   1.953 -1.3307 -2.1995  0.2697
19181SOL    HW267858  10.863   3.629   2.087  1.2368  0.1845 -1.1393
19182SOL     OW67859   4.446   7.518   4.250 -0.0709 -0.3461 -0.2950
19182SOL    HW167860   4.503   7.491   4.178  0.6598  0.6615 -0.1147
19182SOL    HW267861   4.380   7.449   4.256  0.4372 -0.9326 -1.2852
19183SOL     OW67862   1.128   0.993   4.721 -0.0723 -0.2398 -0.2141
19183SOL    HW167863   1.209   0.992   4.670  0.7837  0.7391  1.0695
19183SOL    HW267864   1.130   0.910   4.769  1.5290  0.8820  1.7900
19184SOL     OW67865  11.013   4.084  12.693 -0.0792 -0.6441 -0.2602
19184SOL    HW167866  11.086   4.076  12.631  0.6893  0.4772  0.4600
19184SOL    HW267867  11.050   4.057  12.777 -0.7975 -1.0535 -0.0691
19185SOL     OW67868  10.805   2.202   0.137  0.5170 -0.3690  0.0767
19185SOL    HW167869  10.872   2.223   0.202 -0.2227  0.1744  0.6858
19185SOL    HW267870  10.778   2.287   0.102 -1.4229 -0.3429  1.4643
19186SOL     OW67871   6.356   0.618   6.958 -0.0653  0.0234  0.5534
19186SOL    HW167872   6.396   0.558   6.895 -1.2090 -0.5467  0.3503
19186SOL    HW267873   6.425   0.682   6.977  0.4868 -0.1334 -0.8267
19187SOL     OW67874   7.082   8.395   3.028 -0.0067  0.2654 -0.0703
19187SOL    HW167875   7.036   8.372   3.109  1.4070 -0.8527  0.4477
19187SOL    HW267876   7.149   8.458   3.056  0.1620  0.2643 -0.4696
19188SOL     OW67877   1.911   7.277   5.135  0.4946 -0.0777  0.9157
19188SOL    HW167878   1.914   7.183   5.116 -0.8243 -0.1947  1.2380
19188SOL    HW267879   1.866   7.283   5.219 -1.3319  0.9624 -0.0870
19189SOL     OW67880   4.376   2.291   9.105 -0.5185 -0.1002 -0.0727
19189SOL    HW167881   4.308   2.302   9.039 -0.3954 -0.8167 -0.3345
19189SOL    HW267882   4.330   2.301   9.189 -0.9791 -0.7048 -0.2437
19190SOL     OW67883   2.278   4.912   4.971  1.1474 -0.6890 -0.3774
19190SOL    HW167884   2.366   4.884   4.946  1.0087 -0.2767 -1.3881
19190SOL    HW267885   2.254   4.978   4.906  0.2266 -0.5377  0.0892
19191SOL     OW67886   1.572   5.577   1.504 -0.5728  0.6051  0.3301
19191SOL    HW167887   1.498   5.632   1.530 -1.6407  0.4542 -2.1159
19191SOL    HW267888   1.551   5.550   1.415  2.2907  0.2871 -0.3291
19192SOL     OW67889   3.263  11.011   4.084 -0.5011 -0.1029  0.0388
19192SOL    HW167890   3.210  10.947   4.131  0.7927 -1.2399 -0.0089
19192SOL    HW267891   3.336  11.030   4.143  0.6816 -0.8921 -1.1296
19193SOL     OW67892   3.239   9.987   5.118  0.6307  0.2876 -0.3019
19193SOL    HW167893   3.151   9.979   5.082  0.6882  0.3088 -0.4465
19193SOL    HW267894   3.277  10.061   5.071 -0.1743  1.9739  1.5638
19194SOL     OW67895   1.642   5.467  12.225 -0.1926 -0.5554 -0.0640
19194SOL    HW167896   1.586   5.390  12.234 -0.8779 -0.3230 -1.9461
19194SOL    HW267897   1.623   5.520  12.302 -0.6193 -1.6836  0.6331
19195SOL     OW67898   4.553   6.679   0.455 -0.1204  0.7648 -0.2205
19195SOL    HW167899   4.574   6.602   0.507 -2.9168 -0.4426 -0.7221
19195SOL    HW267900   4.584   6.753   0.508  0.9853 -0.5900  1.1164
19196SOL     OW67901  10.926  10.995   9.750 -0.5694 -0.2079  0.2729
19196SOL    HW167902  11.009  11.038   9.733  0.7756 -3.0261 -0.7892
19196SOL    HW267903  10.910  11.010   9.844  1.3670  0.0108  0.6006
19197SOL     OW67904   7.833   1.266   2.370 -0.2825  0.3251  0.3769
19197SOL    HW167905   7.806   1.254   2.461 -1.8963  1.1757  0.0551
19197SOL    HW267906   7.754   1.296   2.325  0.0564 -1.5211 -1.6432
19198SOL     OW67907   5.654  11.395  10.173  0.2474  0.8528  0.6472
19198SOL    HW167908   5.570  11.412  10.131  0.3184  0.6010  0.4039
19198SOL    HW267909   5.642  11.424  10.263  0.1358  1.5178  0.4220
19199SOL     OW67910   7.782  10.565   8.615  0.0265  0.3126  0.1013
19199SOL    HW167911   7.703  10.618   8.628 -1.3794 -2.1156  2.7306
19199SOL    HW267912   7.835  10.582   8.692 -0.7605 -2.3939  1.3494
19200SOL     OW67913   8.528  11.053  12.059  0.2274  0.3332  0.3010
19200SOL    HW167914   8.461  11.094  12.114 -0.8964 -0.6107 -0.2999
19200SOL    HW267915   8.495  11.063  11.970  0.7250 -0.4358  0.0191
19201SOL     OW67916   4.425  10.036   0.356 -0.2954  0.0318 -0.7240
19201SOL    HW167917   4.342  10.057   0.400  1.2751  4.4230  0.7271
19201SOL    HW267918   4.457   9.958   0.400 -3.2315 -1.3678 -0.8436
19202SOL     OW67919   8.440   2.921   7.907  0.0493  0.0784  0.1870
19202SOL    HW167920   8.417   2.911   7.815  2.2989 -0.7658 -0.3504
19202SOL    HW267921   8.417   2.838   7.948  0.4162 -0.0984  0.0424
19203SOL     OW67922   1.649   4.682   2.128  0.0502 -0.3253 -0.6678
19203SOL    HW167923   1.600   4.760   2.153 -0.3852 -0.4399 -1.1441
19203SOL    HW267924   1.608   4.653   2.047  0.5064 -0.7869 -0.7389
19204SOL     OW67925   1.453   3.635  11.688 -0.1637  0.4162  0.5650
19204SOL    HW167926   1.394   3.613  11.760 -2.0007 -1.1402 -1.2949
19204SOL    HW267927   1.491   3.551  11.662  0.0434  0.8484 -0.5846
19205SOL     OW67928  11.091   4.398   9.825 -0.0711 -0.3173 -0.1050
19205SOL    HW167929  11.136   4.479   9.798 -1.0487  0.4836  0.6171
19205SOL    HW267930  10.999   4.414   9.805 -0.2612 -1.3259 -0.0919
19206SOL     OW67931   6.957   9.759   4.420 -0.2686  0.0649 -0.4997
19206SOL    HW167932   6.909   9.682   4.452  0.3584 -0.4418 -0.7533
19206SOL    HW267933   7.035   9.722   4.379  1.3421  0.9747  1.6051
19207SOL     OW67934   2.222   4.958   0.184  0.5328 -0.5143  0.9157
19207SOL    HW167935   2.217   4.889   0.250  1.6115  0.7628  2.3961
19207SOL    HW267936   2.145   5.012   0.199  0.7758 -0.2259  1.1435
19208SOL     OW67937   1.535   9.652  12.020  0.1192  0.0781 -0.3814
19208SOL    HW167938   1.516   9.726  11.962  0.2325  0.9483  0.6804
19208SOL    HW267939   1.629   9.658  12.036  0.0403 -0.0013  0.1062
19209SOL     OW67940   4.772  12.870  11.605 -0.1917  0.0477 -0.0125
19209SOL    HW167941   4.788  12.893  11.513 -0.8179 -2.1577 -0.7629
19209SOL    HW267942   4.677  12.873  11.614 -0.3270 -2.0270 -0.1873
19210SOL     OW67943   9.441   3.636   7.245  0.0433 -0.1663  0.0008
19210SOL    HW167944   9.532   3.655   7.268 -0.1560  0.2741  0.4660
19210SOL    HW267945   9.393   3.712   7.279 -0.4054 -0.0325 -0.9127
19211SOL     OW67946  12.594   6.207  12.755  0.7499  0.0400 -0.2379
19211SOL    HW167947  12.594   6.144  12.683 -0.5117  0.4118 -0.5871
19211SOL    HW267948  12.543   6.165  12.824  0.3677  0.4337 -0.2720
19212SOL     OW67949   0.373   3.232   8.544  0.4736  0.1155  0.2717
19212SOL    HW167950   0.280   3.255   8.545 -0.2141 -2.4235  1.2074
19212SOL    HW267951   0.416   3.308   8.585 -0.9343  2.0121 -1.5363
19213SOL     OW67952   2.361   1.536   2.563  0.2321  0.2048 -0.3774
19213SOL    HW167953   2.388   1.447   2.541  2.6477  1.0184 -1.0640
19213SOL    HW267954   2.427   1.565   2.627 -0.7628  1.3647  0.1628
19214SOL     OW67955   5.447   2.817   3.448  0.1161 -0.5100  0.8565
19214SOL    HW167956   5.540   2.840   3.438  0.6065 -1.9574  1.7487
19214SOL    HW267957   5.418   2.867   3.525 -0.4348  1.4756 -0.5552
19215SOL     OW67958   5.992  12.805   5.284 -0.7015 -0.2282 -0.3204
19215SOL    HW167959   6.057  12.873   5.264 -0.4779 -0.6654 -1.1236
19215SOL    HW267960   5.927  12.850   5.338  0.3089  0.2014  0.5965
19216SOL     OW67961   0.579   6.056  11.856 -0.7385  0.8350  0.3248
19216SOL    HW167962   0.674   6.062  11.861 -0.6214 -1.2092  2.2530
19216SOL    HW267963   0.562   6.010  11.774 -0.1781  2.2663 -0.6254
19217SOL     OW67964  10.282  10.956   9.117 -0.0985  0.1423 -0.0779
19217SOL    HW167965  10.186  10.959   9.112 -0.3258 -3.0655 -0.0615
19217SOL    HW267966  10.309  10.929   9.029  0.5566 -1.1037  0.4765
19218SOL     OW67967   3.083   3.513   0.765 -0.3283  0.1319 -0.6858
19218SOL    HW167968   3.159   3.477   0.720 -1.0956 -2.4773 -0.0849
19218SOL    HW267969   3.050   3.581   0.707  1.3269 -0.0339 -1.8770
19219SOL     OW67970   6.273  11.994   3.020  0.1582  0.7378 -0.0746
19219SOL    HW167971   6.334  12.065   3.000 -0.6856  1.7035  0.7249
19219SOL    HW267972   6.254  11.955   2.934  3.0159 -0.5863 -0.2270
19220SOL     OW67973   2.154   7.038   3.184 -0.1675 -0.0256  0.1274
19220SOL    HW167974   2.243   7.073   3.182  0.5575 -1.7710 -0.4527
19220SOL    HW267975   2.099   7.107   3.147  1.4166 -0.1089 -2.6485
19221SOL     OW67976   7.665   2.601   1.353  0.5074  0.1368 -0.5892
19221SOL    HW167977   7.578   2.579   1.387  0.8707 -1.1141 -0.4294
19221SOL    HW267978   7.660   2.695   1.334 -1.0867 -0.0390 -1.1836
19222SOL     OW67979   0.655  10.927  10.725 -0.2725  0.1006  0.1312
19222SOL    HW167980   0.647  10.980  10.804 -0.6461 -2.7599  2.1435
19222SOL    HW267981   0.742  10.949  10.691 -0.6782  2.4612  0.4211
19223SOL     OW67982  12.393   3.232  11.919 -0.1037  0.3752 -0.0885
19223SOL    HW167983  12.487   3.233  11.901 -0.1264  0.0527 -0.2319
19223SOL    HW267984  12.352   3.257  11.836 -0.1015  1.8263  0.3219
19224SOL     OW67985   4.339   5.376  11.321 -0.4644 -0.1400 -0.1579
19224SOL    HW167986   4.314   5.432  11.247  1.8556 -0.7638 -1.5396
19224SOL    HW267987   4.435   5.377  11.319 -0.3566 -2.2177  1.2884
19225SOL     OW67988  12.887   2.213   5.835 -0.2830  0.0237  0.7466
19225SOL    HW167989  12.965   2.162   5.812 -1.2524 -0.8006 -0.9069
19225SOL    HW267990  12.905   2.301   5.802 -0.4903 -0.4474 -0.6699
19226SOL     OW67991   7.587  11.931   4.294  0.3218  0.1469  0.8138
19226SOL    HW167992   7.514  11.982   4.260 -0.0962 -0.3274  0.9782
19226SOL    HW267993   7.546  11.860   4.344  0.8935 -0.1324  0.9025
19227SOL     OW67994   2.774   7.130   4.683 -0.3813 -0.5920  0.4822
19227SOL    HW167995   2.690   7.139   4.638  0.9889  0.5771 -2.0526
19227SOL    HW267996   2.806   7.044   4.656  0.2048 -0.1098 -0.3976
19228SOL     OW67997   7.863   1.485  12.815 -0.1159  0.1920  0.0469
19228SOL    HW167998   7.952   1.509  12.841 -0.3485  1.5810 -0.3848
19228SOL    HW267999   7.821   1.458  12.896 -0.1493  2.2989  0.7841
19229SOL     OW68000  12.733   5.546   5.265  0.0645  0.0630 -0.4134
19229SOL    HW168001  12.659   5.605   5.281 -0.8857 -1.1812  0.0363
19229SOL    HW268002  12.776   5.580   5.187 -1.0681  0.7615 -0.7497
19230SOL     OW68003   6.800   6.355   2.395 -0.8428  0.1051 -0.0422
19230SOL    HW168004   6.710   6.322   2.403 -0.9737  0.7037  1.0581
19230SOL    HW268005   6.790   6.449   2.383 -0.3332  0.4949  2.1896
19231SOL     OW68006   6.248   4.803   4.515 -0.2790  0.0478  0.6621
19231SOL    HW168007   6.299   4.724   4.536  1.5941  1.2720  0.9451
19231SOL    HW268008   6.244   4.803   4.419 -1.7822 -1.2346  0.6714
19232SOL     OW68009   3.924  12.530   9.427 -0.7482 -0.2341  0.1669
19232SOL    HW168010   3.874  12.611   9.426  0.8142  0.8065  0.8840
19232SOL    HW268011   3.928  12.506   9.520 -1.1071 -1.0818 -0.0314
19233SOL     OW68012  11.560   8.621  10.368 -0.3453 -0.3606 -0.3608
19233SOL    HW168013  11.593   8.632  10.457  0.5429  1.0605 -0.8187
19233SOL    HW268014  11.557   8.711  10.333  1.3129 -1.0536 -2.4448
19234SOL     OW68015   8.530   4.084   2.076 -0.4263 -0.3133 -0.1428
19234SOL    HW168016   8.574   4.019   2.131  0.0128 -0.5080 -0.7154
19234SOL    HW268017   8.467   4.126   2.135 -0.0910 -0.6378  0.4653
19235SOL     OW68018   4.826   4.137   6.855  0.2692 -0.5692 -0.1959
19235SOL    HW168019   4.899   4.077   6.873  0.7934  0.4001  1.0514
19235SOL    HW268020   4.840   4.166   6.765  1.3383 -0.5245 -0.0242
19236SOL     OW68021  11.072   0.666   8.882 -0.3163  0.1526  0.2143
19236SOL    HW168022  11.122   0.598   8.927  0.6244  0.4235 -0.3915
19236SOL    HW268023  10.988   0.626   8.863  0.0678 -0.6865  0.2721
19237SOL     OW68024   4.882   0.509   4.867 -0.2918 -0.6844 -0.2493
19237SOL    HW168025   4.826   0.497   4.944 -2.3530 -0.2682 -1.6031
19237SOL    HW268026   4.934   0.429   4.861 -0.5704 -0.9961  1.1660
19238SOL     OW68027  11.459   4.338   7.305 -0.0695 -0.2164  0.4848
19238SOL    HW168028  11.518   4.378   7.369 -0.9023  0.6394  0.7378
19238SOL    HW268029  11.517   4.298   7.241  0.8662  2.4043 -0.4285
19239SOL     OW68030   0.301   7.169   0.855 -0.0058 -0.1104 -0.1081
19239SOL    HW168031   0.207   7.180   0.845  0.0580  0.8493  0.2292
19239SOL    HW268032   0.311   7.086   0.902 -0.6443 -0.5656 -0.7528
19240SOL     OW68033   6.153   8.084   5.176 -0.1181  0.4821 -0.0308
19240SOL    HW168034   6.238   8.104   5.217 -0.4259  1.1612  0.2815
19240SOL    HW268035   6.106   8.167   5.175 -0.1284  0.4887 -1.7725
19241SOL     OW68036  12.869   1.474   4.098  0.1245  0.7629  0.6811
19241SOL    HW168037  12.838   1.539   4.035  0.2778 -0.0268 -0.2258
19241SOL    HW268038  12.909   1.406   4.045  1.5095  0.7342  1.7183
19242SOL     OW68039   9.272   6.063   7.150  0.6593  0.3474  0.2612
19242SOL    HW168040   9.294   6.153   7.126 -1.9173  0.9030 -0.3294
19242SOL    HW268041   9.311   6.051   7.236  0.6779  2.1988  0.5526
19243SOL     OW68042  12.836   7.205   6.671  0.2722  0.2286  0.4102
19243SOL    HW168043  12.753   7.163   6.649 -0.7241  2.4319 -0.2616
19243SOL    HW268044  12.836   7.208   6.767 -1.3006  1.7134  0.4244
19244SOL     OW68045   3.597   8.665   8.745 -0.3627  0.2700  0.2117
19244SOL    HW168046   3.597   8.756   8.775 -0.3839 -0.1072  1.3888
19244SOL    HW268047   3.521   8.658   8.688  0.5501  1.4046 -1.2480
19245SOL     OW68048  11.801   5.719  11.042  0.8290  0.5535 -0.4893
19245SOL    HW168049  11.768   5.733  10.953  1.4730  1.7450 -0.5485
19245SOL    HW268050  11.896   5.716  11.033  1.0184  2.6040  0.3871
19246SOL     OW68051   3.615   4.127   9.171  0.4287 -0.4369  0.0290
19246SOL    HW168052   3.527   4.121   9.207 -0.0882  1.3212 -0.8350
19246SOL    HW268053   3.665   4.174   9.239  0.0226  0.8439 -0.5182
19247SOL     OW68054   1.132   7.855   8.457  0.7097 -0.8800  0.2600
19247SOL    HW168055   1.056   7.889   8.503  0.3691 -1.3852  0.0761
19247SOL    HW268056   1.133   7.902   8.374  1.4077  0.1369  0.8246
19248SOL     OW68057   3.350   5.280   4.598  0.5196 -0.1323 -0.0014
19248SOL    HW168058   3.434   5.323   4.588 -0.3272  1.6016 -0.0277
19248SOL    HW268059   3.353   5.241   4.686  1.0062  0.7424  0.3793
19249SOL     OW68060   6.874   0.815   9.821 -0.2054  0.6356 -0.0253
19249SOL    HW168061   6.823   0.896   9.818  0.9347  1.3479 -0.7178
19249SOL    HW268062   6.954   0.834   9.772 -0.4026 -1.2541 -1.1924
19250SOL     OW68063   6.128  12.301   9.739 -0.0022  0.4293  0.1630
19250SOL    HW168064   6.094  12.276   9.653 -1.9907  0.5990  0.8553
19250SOL    HW268065   6.140  12.217   9.784  3.4680  0.1237 -1.0328
19251SOL     OW68066   8.460   3.416   3.004 -0.2195  0.0307  0.2423
19251SOL    HW168067   8.393   3.415   3.073  0.2130 -1.0634  0.6784
19251SOL    HW268068   8.426   3.356   2.937 -0.6481  1.1056 -0.5258
19252SOL     OW68069   3.006   4.325   6.214 -0.4595 -0.1606  0.5093
19252SOL    HW168070   3.022   4.299   6.123 -0.2146 -0.8842  0.7566
19252SOL    HW268071   3.090   4.315   6.257 -0.7802 -0.6859  1.0218
19253SOL     OW68072  10.253   0.978   8.655 -0.4252  0.2332 -0.2590
19253SOL    HW168073  10.320   0.910   8.646 -0.9924 -0.4086  0.2738
19253SOL    HW268074  10.301   1.060   8.646  0.0662 -0.2128 -2.3779
19254SOL     OW68075   4.430   4.752   3.445 -0.0449  0.2756 -0.0733
19254SOL    HW168076   4.346   4.736   3.402  0.2869  0.1109 -0.6883
19254SOL    HW268077   4.490   4.689   3.404  0.3755  0.3875  0.3574
19255SOL     OW68078  12.283   7.869   1.585  0.4891 -0.4358 -0.1000
19255SOL    HW168079  12.311   7.932   1.651  2.0801 -1.2971  0.1001
19255SOL    HW268080  12.198   7.903   1.554  0.5340  0.9109  1.1204
19256SOL     OW68081   6.682   2.272  10.029 -0.2204  0.0913 -0.2192
19256SOL    HW168082   6.669   2.236  10.117 -0.9797  1.3922  0.2270
19256SOL    HW268083   6.619   2.225   9.974 -0.6887  0.1979  0.2128
19257SOL     OW68084  12.269   9.583   3.483 -0.1365 -0.0653 -0.4766
19257SOL    HW168085  12.349   9.570   3.432  0.5661 -2.1200  1.0268
19257SOL    HW268086  12.222   9.500   3.476 -0.3115 -0.1949  1.6444
19258SOL     OW68087  11.067  10.226  10.589 -0.1196 -0.2244  0.4439
19258SOL    HW168088  11.010  10.288  10.635 -0.4870 -0.0675 -0.2096
19258SOL    HW268089  11.115  10.281  10.526  0.4662 -0.4168  0.7159
19259SOL     OW68090   5.098   6.012   9.095  0.4331  0.0847  0.4484
19259SOL    HW168091   5.080   5.961   9.016  3.0160 -1.1193  0.5194
19259SOL    HW268092   5.013   6.021   9.138 -0.8352 -0.2861 -1.8215
19260SOL     OW68093   0.170   7.771   4.265  0.0038  0.1388  0.3790
19260SOL    HW168094   0.186   7.861   4.296  0.1591 -0.1183  1.0605
19260SOL    HW268095   0.183   7.776   4.171  0.2817  0.7757  0.4419
19261SOL     OW68096   6.628  12.038   7.169 -0.1159  0.0758  0.1899
19261SOL    HW168097   6.631  12.028   7.074 -0.1995  1.9127 -0.0291
19261SOL    HW268098   6.719  12.046   7.196 -0.0919 -0.4459  0.2909
19262SOL     OW68099   9.821  12.009   7.595 -0.8338 -0.2248  1.2930
19262SOL    HW168100   9.840  11.933   7.650 -0.3974 -0.9627  0.1540
19262SOL    HW268101   9.813  11.973   7.507  1.2193  1.2760  0.4164
19263SOL     OW68102   7.697   3.733   0.689  0.1011 -0.2083  0.3144
19263SOL    HW168103   7.626   3.795   0.706 -0.2078  0.1121 -1.8469
19263SOL    HW268104   7.776   3.779   0.715 -0.3081  0.1693  0.9308
19264SOL     OW68105   3.175   0.556  11.985  0.2067  0.5852 -0.3078
19264SOL    HW168106   3.112   0.509  11.929  1.4727  0.1285 -1.4144
19264SOL    HW268107   3.156   0.648  11.970 -0.0115  0.4559 -0.8760
19265SOL     OW68108   2.910   8.609   8.429 -0.5571 -0.3518  0.0351
19265SOL    HW168109   2.933   8.698   8.404 -1.9134 -0.1486 -0.6252
19265SOL    HW268110   2.871   8.571   8.349 -3.5239 -0.2348  1.3052
19266SOL     OW68111  12.854   2.468   0.533  0.2495 -0.1364 -0.7280
19266SOL    HW168112  12.918   2.463   0.604  1.3243  0.7226 -1.6249
19266SOL    HW268113  12.777   2.508   0.574  0.9388  0.5896 -0.1046
19267SOL     OW68114   8.246  12.342  11.501 -0.2552 -0.4630 -0.2413
19267SOL    HW168115   8.330  12.355  11.545 -0.7268  0.4456  0.4242
19267SOL    HW268116   8.253  12.256  11.461  0.2539 -1.2639  1.4736
19268SOL     OW68117   4.754  11.948   0.737 -0.1936  0.1902 -0.2416
19268SOL    HW168118   4.846  11.954   0.712 -0.1150  0.4086  0.0942
19268SOL    HW268119   4.723  12.039   0.736 -0.4913  0.0875 -0.6675
19269SOL     OW68120  10.532   2.799   2.196  0.1387  0.1979  0.3408
19269SOL    HW168121  10.626   2.789   2.181 -0.0661 -1.8951  0.0895
19269SOL    HW268122  10.499   2.840   2.117  0.6868 -0.1540 -0.0796
19270SOL     OW68123   7.463   9.285   2.843 -0.2582 -0.3610  0.0756
19270SOL    HW168124   7.399   9.346   2.807  0.2860 -1.0579 -2.2766
19270SOL    HW268125   7.485   9.320   2.929 -3.0748  0.3922  0.5719
19271SOL     OW68126   6.653   5.403   2.878 -0.3146  0.1843 -0.0462
19271SOL    HW168127   6.672   5.335   2.815 -0.8597  0.4684 -0.5253
19271SOL    HW268128   6.559   5.419   2.869 -0.6672 -0.6403  1.7126
19272SOL     OW68129   5.331   7.967   7.510  0.1941  0.5587  0.4264
19272SOL    HW168130   5.263   7.901   7.525 -0.2944  1.4375  2.2441
19272SOL    HW268131   5.361   7.991   7.597  1.5924  1.5017 -0.2841
19273SOL     OW68132   1.220  11.017   3.884  0.0008 -0.0846 -0.6250
19273SOL    HW168133   1.190  10.989   3.971 -0.7281  0.9763 -0.5076
19273SOL    HW268134   1.310  11.047   3.898  0.3243 -1.0838 -0.4965
19274SOL     OW68135  10.687   3.332  11.570  0.0092 -0.2426 -0.1075
19274SOL    HW168136  10.659   3.423  11.579  1.2239  0.2338 -0.8826
19274SOL    HW268137  10.643   3.301  11.490 -0.6065 -0.4323  0.2964
19275SOL     OW68138  11.467   5.788   1.425  0.1541 -0.2344 -0.0051
19275SOL    HW168139  11.424   5.751   1.502  2.1273 -1.5918  0.5188
19275SOL    HW268140  11.406   5.770   1.353 -0.3743 -1.6812  0.7575
19276SOL     OW68141   8.500   6.734   5.393 -0.0946  0.4127 -0.0645
19276SOL    HW168142   8.435   6.699   5.453  0.7326  0.0129  0.6311
19276SOL    HW268143   8.480   6.695   5.308 -1.7006  1.5179 -0.2311
19277SOL     OW68144  11.449   5.609   9.051 -0.3716 -0.4389 -0.3190
19277SOL    HW168145  11.461   5.516   9.031 -0.5220 -0.4237 -0.4886
19277SOL    HW268146  11.359   5.615   9.085  0.1559 -0.5934  1.1663
19278SOL     OW68147   5.381   8.129  10.729 -0.5817 -0.6475 -0.3237
19278SOL    HW168148   5.374   8.056  10.790 -0.2340  2.0632  3.3182
19278SOL    HW268149   5.462   8.112  10.680  0.5814 -1.7727  1.8586
19279SOL     OW68150   8.942   1.715   1.250  0.7749 -0.1741  0.0363
19279SOL    HW168151   8.991   1.718   1.332  1.3066 -2.9348 -0.0945
19279SOL    HW268152   9.003   1.677   1.187 -0.1181  0.5082 -1.3002
19280SOL     OW68153  12.675   9.208   4.854 -0.2472  0.0432  0.3184
19280SOL    HW168154  12.752   9.249   4.814 -0.1824  0.4343  0.8347
19280SOL    HW268155  12.641   9.275   4.913 -2.3826  0.7977 -1.6251
19281SOL     OW68156   5.144   4.379   7.809  0.1877  0.4189  0.2103
19281SOL    HW168157   5.079   4.442   7.779 -0.8545 -0.8875 -0.3892
19281SOL    HW268158   5.148   4.392   7.904 -1.0612  0.4300  0.2771
19282SOL     OW68159  12.952   3.801   4.663 -0.5784  0.0303 -0.0535
19282SOL    HW168160  12.898   3.794   4.741  2.2494 -1.0915  1.9302
19282SOL    HW268161  13.024   3.859   4.688  0.6103 -0.6466 -1.7009
19283SOL     OW68162  12.364   0.582  10.021  0.4196  0.0870  0.3245
19283SOL    HW168163  12.379   0.533  10.102  0.0691  0.0948  0.3951
19283SOL    HW268164  12.431   0.550   9.961  0.5225 -0.1004  0.5379
19284SOL     OW68165   0.935   8.938  11.533 -0.6272 -0.4145  0.4393
19284SOL    HW168166   0.862   8.999  11.544 -0.0123  0.1925  1.3090
19284SOL    HW268167   1.008   8.994  11.506 -0.2123 -0.8534  0.6462
19285SOL     OW68168   8.549  12.724   2.932  0.5474 -0.0369  0.5773
19285SOL    HW168169   8.542  12.731   3.028 -2.1058  0.6704  0.4062
19285SOL    HW268170   8.505  12.802   2.899  0.7101 -0.6756 -1.2441
19286SOL     OW68171  10.172  10.923   3.151 -0.3841 -0.0594 -0.1956
19286SOL    HW168172  10.094  10.978   3.142  0.2228  0.9301  0.3259
19286SOL    HW268173  10.142  10.845   3.197 -1.1428  0.1369 -0.3458
19287SOL     OW68174  12.801   7.365   5.474 -0.2006  0.0260 -0.5937
19287SOL    HW168175  12.857   7.302   5.428 -1.6574 -1.0610 -0.9704
19287SOL    HW268176  12.751   7.313   5.536 -1.1537  0.8580 -0.6221
19288SOL     OW68177   7.594   8.763   3.009 -0.0374  0.1179 -0.1998
19288SOL    HW168178   7.522   8.704   3.033  0.3688 -0.2782  0.0501
19288SOL    HW268179   7.665   8.705   2.981 -0.3829  0.5368 -2.1367
19289SOL     OW68180   9.326   0.104  12.424 -0.7937 -0.3036 -0.1448
19289SOL    HW168181   9.300   0.060  12.344 -0.1755 -1.6846  0.3930
19289SOL    HW268182   9.384   0.175  12.395 -1.5759  0.0071 -0.9889
19290SOL     OW68183   1.507   0.710   3.513 -0.0043 -0.2092  0.1600
19290SOL    HW168184   1.497   0.771   3.439 -0.3391 -0.4141  0.0343
19290SOL    HW268185   1.600   0.717   3.536 -0.2141  1.0347  0.7407
19291SOL     OW68186   0.195   5.249   4.045 -0.3703 -0.4500 -0.2213
19291SOL    HW168187   0.192   5.161   4.007 -0.9894 -0.5763  0.1188
19291SOL    HW268188   0.138   5.245   4.121 -0.9805  0.4379 -0.6095
19292SOL     OW68189   2.681   9.758   6.603  0.2755 -0.1415 -0.3479
19292SOL    HW168190   2.627   9.780   6.527  1.3860 -0.2298 -1.1807
19292SOL    HW268191   2.765   9.730   6.566  1.4032  1.3418  0.9472
19293SOL     OW68192   7.719   8.596  11.484 -0.3196  0.3335 -0.2707
19293SOL    HW168193   7.763   8.522  11.526  1.1555  0.2283 -1.8597
19293SOL    HW268194   7.772   8.673  11.508 -0.4060  0.5007 -0.5977
19294SOL     OW68195   4.287  12.797   8.374  0.1048  0.6389 -0.5233
19294SOL    HW168196   4.198  12.834   8.373  0.2424  0.9871  0.0656
19294SOL    HW268197   4.273  12.702   8.370 -0.3602  0.6025  1.1393
19295SOL     OW68198  12.355   7.000   0.685  0.0520  0.1922  0.4078
19295SOL    HW168199  12.311   6.971   0.605 -0.8282 -0.3007  1.0498
19295SOL    HW268200  12.400   6.922   0.718  0.2897  0.3543  0.4704
19296SOL     OW68201   1.276  12.709   5.303  0.3018  0.6819  1.0082
19296SOL    HW168202   1.194  12.660   5.295  0.3717  0.6450  0.4974
19296SOL    HW268203   1.272  12.748   5.391 -0.5569  1.2003  0.7556
19297SOL     OW68204   9.987   4.233   3.329  0.4676  0.1077 -0.2001
19297SOL    HW168205  10.082   4.239   3.322  0.2645  3.4566 -2.1727
19297SOL    HW268206   9.959   4.191   3.248  0.2103  0.7203 -0.4377
19298SOL     OW68207   1.404   5.944   2.119  0.2395  0.0795 -0.2659
19298SOL    HW168208   1.453   5.928   2.039  0.3222 -1.7993  0.1079
19298SOL    HW268209   1.312   5.933   2.094  0.2492 -0.2236 -0.1764
19299SOL     OW68210   1.292   7.193   4.448  0.2911 -0.2482 -0.2024
19299SOL    HW168211   1.297   7.098   4.442  0.2563 -0.2244 -0.6506
19299SOL    HW268212   1.319   7.224   4.361 -0.1832  0.1314 -0.2204
19300SOL     OW68213  10.087   3.231   0.113 -0.2932  0.0041  0.0161
19300SOL    HW168214  10.080   3.173   0.189 -0.3905 -1.9316 -1.3996
19300SOL    HW268215  10.170   3.206   0.072  0.1626  1.6016 -0.1116
19301SOL     OW68216   2.484   6.102   6.196  0.5638  0.3890  0.6836
19301SOL    HW168217   2.442   6.186   6.211  2.5922  1.1284  2.7463
19301SOL    HW268218   2.545   6.117   6.124  0.5350  0.5241  0.6887
19302SOL     OW68219  11.272  10.332   6.937  0.2499 -0.1784 -0.2695
19302SOL    HW168220  11.282  10.387   6.859 -2.7039  0.7251 -0.1095
19302SOL    HW268221  11.179  10.335   6.957  0.8852 -0.3737  3.3416
19303SOL     OW68222   7.185   9.936  12.553  0.2219  0.5265 -0.3204
19303SOL    HW168223   7.249   9.949  12.623  0.9942 -1.6580 -0.5546
19303SOL    HW268224   7.100   9.935  12.597  0.6505 -0.1531  0.5002
19304SOL     OW68225   2.725   3.039   7.350 -0.0568 -0.2087 -0.2347
19304SOL    HW168226   2.769   3.098   7.288 -1.6155 -0.2316 -1.4441
19304SOL    HW268227   2.775   3.047   7.431  1.3790  0.7080 -1.1599
19305SOL     OW68228   2.336   2.123   2.443  0.1615  0.0304 -0.3503
19305SOL    HW168229   2.283   2.102   2.519 -0.3907  0.6463 -0.5557
19305SOL    HW268230   2.415   2.163   2.479 -0.1765  0.4845 -0.1006
19306SOL     OW68231   0.894  11.737   2.288  0.1777  0.1768 -0.5690
19306SOL    HW168232   0.868  11.791   2.213  0.1430  1.7719  0.5362
19306SOL    HW268233   0.818  11.740   2.346  1.1835  1.2718  0.7423
19307SOL     OW68234   6.873  10.070   4.764  0.1846  0.2402  0.4340
19307SOL    HW168235   6.872   9.975   4.777  1.1737  0.0141 -0.9042
19307SOL    HW268236   6.817  10.104   4.834 -0.7558 -1.3647  0.5227
19308SOL     OW68237  11.789   1.541   7.425 -0.2589 -0.0390  0.3378
19308SOL    HW168238  11.797   1.524   7.518 -0.6796  0.3198  0.4449
19308SOL    HW268239  11.695   1.528   7.406 -0.5853  1.9182  0.3954
19309SOL     OW68240   8.068   9.980   1.953  0.1272 -0.6891  0.3888
19309SOL    HW168241   8.046  10.012   1.865 -0.1257 -0.5807  0.4891
19309SOL    HW268242   8.091  10.059   2.002 -1.6373 -0.4942  0.9678
19310SOL     OW68243   5.024   3.854  10.393  0.7058  0.9157  0.0990
19310SOL    HW168244   5.008   3.826  10.483 -1.1686  1.2802 -0.0832
19310SOL    HW268245   5.025   3.949  10.397 -0.1299  0.9590 -0.3440
19311SOL     OW68246   5.708  12.441   8.653  0.1943 -0.4063 -0.9140
19311SOL    HW168247   5.630  12.418   8.705 -0.8619 -0.0748 -2.2875
19311SOL    HW268248   5.729  12.361   8.605 -0.8144  0.1449 -2.3670
19312SOL     OW68249   5.568   0.073   9.215  0.0938  0.2910  0.1952
19312SOL    HW168250   5.509   0.039   9.282  0.9592  0.8136  1.2721
19312SOL    HW268251   5.552   0.020   9.138  0.5863 -1.7972  1.4608
19313SOL     OW68252   7.253   6.795   8.561 -0.1782  0.0971 -0.3469
19313SOL    HW168253   7.255   6.849   8.639 -0.1984 -1.4146  0.7533
19313SOL    HW268254   7.266   6.856   8.489 -2.1138  1.8194  0.6706
19314SOL     OW68255   4.089  10.315   2.528  0.3155  0.0180 -0.4366
19314SOL    HW168256   4.098  10.358   2.613 -1.0883  1.3583 -0.9086
19314SOL    HW268257   4.016  10.253   2.540  2.6199 -2.7692  0.3754
19315SOL     OW68258   9.351  10.704   5.023  0.0546  0.2073  0.7585
19315SOL    HW168259   9.373  10.693   4.931  2.0482 -1.0215  1.3386
19315SOL    HW268260   9.258  10.727   5.022 -0.4282 -1.4783 -1.4618
19316SOL     OW68261   9.054   2.156   8.410  0.3893 -0.3840 -0.3706
19316SOL    HW168262   9.079   2.090   8.474  0.2604 -0.9785 -0.9204
19316SOL    HW268263   8.981   2.203   8.451 -3.3865 -4.1381 -2.0146
19317SOL     OW68264   7.053  10.881   9.839  0.2753  0.5813 -0.1983
19317SOL    HW168265   7.128  10.863   9.895  1.0493 -1.5123 -1.8025
19317SOL    HW268266   7.027  10.971   9.862  2.3175  0.8162  1.4352
19318SOL     OW68267   0.056   2.754   9.293 -0.0453  0.8369  0.0481
19318SOL    HW168268   0.080   2.665   9.266 -0.2940  0.9025 -0.3972
19318SOL    HW268269   0.007   2.789   9.218 -1.3920  0.7642  0.8629
19319SOL     OW68270   1.150  12.296   9.987  0.0635 -0.0789  0.0376
19319SOL    HW168271   1.195  12.240  10.050 -2.1509 -3.2092 -0.9266
19319SOL    HW268272   1.059  12.296  10.015 -0.6465 -0.0212 -2.0741
19320SOL     OW68273   3.584   1.573   7.637 -0.4237 -0.3343 -0.0322
19320SOL    HW168274   3.526   1.578   7.561 -0.8889 -0.9671  0.2651
19320SOL    HW268275   3.546   1.635   7.700  0.5434  0.9426 -0.6789
19321SOL     OW68276   2.406   9.605   6.031  0.4422  0.2458  0.1953
19321SOL    HW168277   2.467   9.632   5.962 -0.6140 -2.4415 -1.9887
19321SOL    HW268278   2.443   9.525   6.067 -0.2731  0.2513  0.9798
19322SOL     OW68279   8.797   6.700   2.126  0.7610 -0.1630  0.3943
19322SOL    HW168280   8.747   6.635   2.176 -1.0285 -0.9527 -2.2049
19322SOL    HW268281   8.827   6.652   2.049 -0.0107  1.8631 -1.2521
19323SOL     OW68282  12.201  11.438   3.989  0.2940 -0.6186 -0.2559
19323SOL    HW168283  12.209  11.400   3.902  0.0188 -0.4866 -0.3385
19323SOL    HW268284  12.107  11.453   4.001  0.3535 -0.4021 -0.0390
19324SOL     OW68285   6.756  10.672  10.505 -0.3912  0.4469  0.4207
19324SOL    HW168286   6.786  10.632  10.587 -0.1073  1.0345  0.6120
19324SOL    HW268287   6.837  10.687  10.455 -0.5519  0.2153  0.0921
19325SOL     OW68288   1.893   7.094   6.056  0.0482 -0.5779  0.0991
19325SOL    HW168289   1.839   7.173   6.054 -0.4247 -0.9106 -0.9738
19325SOL    HW268290   1.935   7.096   6.142  0.0626  0.8511  0.0889
19326SOL     OW68291   6.369   6.420   9.455  0.0434 -0.7891  0.0437
19326SOL    HW168292   6.373   6.494   9.395 -1.2826 -1.4490 -0.9046
19326SOL    HW268293   6.434   6.440   9.523  0.1271  0.9385 -0.5105
19327SOL     OW68294   5.030  12.396  12.729 -0.2088  0.1487  0.3155
19327SOL    HW168295   5.069  12.358  12.808 -0.4446  1.7589  1.2684
19327SOL    HW268296   4.984  12.473  12.761 -1.1986  0.2598 -1.2813
19328SOL     OW68297   9.612   8.252   7.289  0.3802 -0.2102  0.2831
19328SOL    HW168298   9.651   8.274   7.205  0.4874  0.3440  0.4769
19328SOL    HW268299   9.684   8.257   7.352  0.2481 -0.3786  0.4501
19329SOL     OW68300   9.796  11.013  10.515  1.3006 -0.3925  0.7642
19329SOL    HW168301   9.863  11.082  10.521 -2.0628  3.2551  0.1246
19329SOL    HW268302   9.744  11.023  10.595 -0.3703 -0.9365 -0.2147
19330SOL     OW68303   7.860   1.333  10.033  0.0361 -0.0490  0.0155
19330SOL    HW168304   7.932   1.298  10.087 -0.6272 -1.4105  0.0578
19330SOL    HW268305   7.783   1.286  10.064 -0.2228 -1.6813 -2.7953
19331SOL     OW68306  11.482   8.458  10.942  0.0104 -0.1412 -0.1556
19331SOL    HW168307  11.412   8.483  11.002 -0.6979 -0.9855 -0.6056
19331SOL    HW268308  11.443   8.469  10.855  0.5707 -0.2416 -0.4187
19332SOL     OW68309   3.754   3.822   1.816 -0.7408 -0.0911  0.3418
19332SOL    HW168310   3.689   3.752   1.820  0.1261 -0.8612  1.7884
19332SOL    HW268311   3.721   3.881   1.748 -1.6814 -1.7036 -0.6712
19333SOL     OW68312   6.707   0.568   5.490  0.2202 -0.0006 -0.4951
19333SOL    HW168313   6.691   0.646   5.437 -0.0613 -0.0148 -0.4357
19333SOL    HW268314   6.661   0.586   5.572 -0.4092 -0.5149 -0.7336
19334SOL     OW68315  10.197   5.177  10.032  0.7552 -0.1207 -0.3209
19334SOL    HW168316  10.108   5.188  10.063  0.4384 -0.3327 -1.1280
19334SOL    HW268317  10.195   5.208   9.941  1.2669 -1.0627 -0.6728
19335SOL     OW68318  11.753   0.837   9.573 -0.4978 -0.8093  0.2424
19335SOL    HW168319  11.720   0.753   9.541 -0.5720 -0.1670 -1.4545
19335SOL    HW268320  11.700   0.902   9.528 -1.2177  0.1765  2.4062
19336SOL     OW68321  12.275   0.223   9.024 -0.0830 -0.2004 -0.0374
19336SOL    HW168322  12.209   0.173   9.073  0.8190 -1.0114  0.3722
19336SOL    HW268323  12.316   0.279   9.089  0.6842 -0.8173  0.0127
19337SOL     OW68324   2.082  12.251   1.527  0.2092 -1.0200 -0.3409
19337SOL    HW168325   2.010  12.299   1.568  1.4450  0.8923 -0.2838
19337SOL    HW268326   2.144  12.235   1.599 -0.3165 -3.1156 -0.2776
19338SOL     OW68327   9.105   8.416  11.135 -0.2852 -0.4552  0.1758
19338SOL    HW168328   9.126   8.506  11.110  0.6868 -0.3766  1.1781
19338SOL    HW268329   9.035   8.390  11.076  0.1893  0.5740 -0.8778
19339SOL     OW68330   3.270   2.806  10.962  0.0182 -0.2799 -0.1623
19339SOL    HW168331   3.260   2.736  11.026  2.1799 -0.6337 -0.1469
19339SOL    HW268332   3.344   2.857  10.993  0.7512 -0.1113 -2.0387
19340SOL     OW68333   5.213  10.316   8.799 -0.4964  0.5204 -0.1667
19340SOL    HW168334   5.298  10.305   8.841 -0.5995 -0.6221 -0.2316
19340SOL    HW268335   5.154  10.342   8.869 -0.1835  0.8942 -0.0425
19341SOL     OW68336  12.680   4.999   8.435 -0.0869  0.3092  0.0596
19341SOL    HW168337  12.763   4.980   8.390 -0.7419 -0.3252 -0.9161
19341SOL    HW268338  12.671   5.094   8.431 -1.1668  0.1800 -3.1552
19342SOL     OW68339   4.371   0.456   9.106  0.4865 -0.0742  0.4943
19342SOL    HW168340   4.296   0.466   9.164  1.5542  1.4153  1.7162
19342SOL    HW268341   4.366   0.366   9.075 -1.4319 -0.1929  1.0398
19343SOL     OW68342  11.776   0.481   4.382 -0.7153 -0.2404  0.0066
19343SOL    HW168343  11.722   0.559   4.372 -0.2426  0.6980  3.3597
19343SOL    HW268344  11.749   0.444   4.467  0.7229 -2.3884 -0.3745
19344SOL     OW68345   4.378  10.548   3.410  0.4308  0.0262 -0.1751
19344SOL    HW168346   4.384  10.590   3.496  1.6287 -0.4245 -0.0066
19344SOL    HW268347   4.285  10.548   3.389 -0.1369 -1.5182  1.9695
19345SOL     OW68348   3.343   6.833   2.252 -0.0720 -0.6506  0.1485
19345SOL    HW168349   3.426   6.855   2.294  0.3296 -0.6018 -0.6615
19345SOL    HW268350   3.310   6.916   2.218  0.9765 -1.0759 -2.0660
19346SOL     OW68351   4.804   9.685   0.494 -0.3198  0.1741 -0.8735
19346SOL    HW168352   4.715   9.673   0.462 -0.8173  3.1367 -0.9296
19346SOL    HW268353   4.854   9.710   0.416 -0.1038  1.2299 -0.4151
19347SOL     OW68354   3.372  10.287  10.118 -0.3356 -0.3738  0.1868
19347SOL    HW168355   3.317  10.362  10.140  0.4847  0.9286 -1.9770
19347SOL    HW268356   3.312  10.224  10.078 -0.5684  0.2754 -0.4910
19348SOL     OW68357   1.447   4.410   1.637 -0.1796 -0.6585  0.5177
19348SOL    HW168358   1.373   4.460   1.603 -0.0324 -0.3556  0.6348
19348SOL    HW268359   1.473   4.457   1.716  0.5892 -0.3459  0.0938
19349SOL     OW68360   9.457   9.362   4.976 -0.5623 -0.1031 -0.0086
19349SOL    HW168361   9.552   9.363   4.983 -0.6339  1.7077  1.8935
19349SOL    HW268362   9.438   9.302   4.904  2.0721  1.1003 -1.8484
19350SOL     OW68363  11.561   8.427  12.003  0.0641  0.3353 -0.0414
19350SOL    HW168364  11.478   8.380  12.008  0.5766 -0.4963  1.5199
19350SOL    HW268365  11.597   8.420  12.092  1.2481  1.7003 -0.3821
19351SOL     OW68366   1.693  12.168   2.979  0.0778 -0.3010  0.7924
19351SOL    HW168367   1.725  12.087   2.940  2.3536  2.0458 -2.7795
19351SOL    HW268368   1.762  12.194   3.040 -0.6289 -0.9335  1.9007
19352SOL     OW68369  10.841   4.129  12.457  0.2510  0.2815 -0.2029
19352SOL    HW168370  10.888   4.101  12.535  1.7523  1.6594 -0.5422
19352SOL    HW268371  10.901   4.110  12.385 -0.0469  1.2920 -0.7454
19353SOL     OW68372  12.020   1.367   6.886 -0.1032  0.5860 -0.0985
19353SOL    HW168373  12.033   1.445   6.940  0.9165 -0.4533  1.2327
19353SOL    HW268374  11.997   1.402   6.799 -2.0173  2.3086  1.0129
19354SOL     OW68375   6.145   1.018   3.027 -0.8735 -0.0991 -0.1630
19354SOL    HW168376   6.101   0.934   3.037  0.1978 -0.6508 -0.0347
19354SOL    HW268377   6.172   1.020   2.935 -1.0523  0.1912 -0.2117
19355SOL     OW68378  12.095   9.445   5.305  0.0498  0.3670  0.0170
19355SOL    HW168379  12.027   9.475   5.246 -0.9854 -0.3510  0.8007
19355SOL    HW268380  12.086   9.500   5.383 -1.4252 -1.4080  1.1890
19356SOL     OW68381   5.633  10.173   0.657 -0.1973 -0.0494 -0.1273
19356SOL    HW168382   5.672  10.251   0.616  1.7533 -0.4192  0.9059
19356SOL    HW268383   5.563  10.147   0.597  0.5850  1.1966 -1.6570
19357SOL     OW68384   8.940   8.178  10.218  0.3648  0.1590 -0.2299
19357SOL    HW168385   8.982   8.229  10.149  1.5978  0.5365  0.7588
19357SOL    HW268386   8.987   8.094  10.219  0.0136 -0.0420 -0.1809
19358SOL     OW68387   7.016  12.620   4.174 -0.2123  0.8903 -0.2411
19358SOL    HW168388   6.923  12.636   4.158 -0.2156  0.2304 -0.9594
19358SOL    HW268389   7.018  12.561   4.250 -0.5949 -1.8699 -2.2230
19359SOL     OW68390   5.089   3.973  10.037  0.5998  0.6485 -0.6750
19359SOL    HW168391   5.173   3.931  10.052 -0.4163 -1.3907 -0.3874
19359SOL    HW268392   5.025   3.903  10.048 -1.2790  2.4733  0.7390
19360SOL     OW68393  12.629   8.578   5.123 -0.4357  0.0756  0.0000
19360SOL    HW168394  12.706   8.623   5.158 -0.8085 -0.3394  1.3871
19360SOL    HW268395  12.569   8.571   5.197 -0.9211 -1.5434 -0.5034
19361SOL     OW68396   3.079   8.430  10.643  0.7190  0.1329  0.0573
19361SOL    HW168397   3.053   8.479  10.565  0.3862  0.7152  0.5274
19361SOL    HW268398   3.175   8.432  10.643  0.7038  1.8446  0.7277
19362SOL     OW68399   5.454   8.158   9.571 -0.0275 -0.1645  0.2872
19362SOL    HW168400   5.377   8.114   9.534 -0.2801  0.5469 -0.0583
19362SOL    HW268401   5.425   8.187   9.657  0.3635 -1.2778  0.8054
19363SOL     OW68402   6.306   0.975   5.027  0.8538  0.0396 -0.3527
19363SOL    HW168403   6.331   0.974   4.935 -0.0832 -0.0064 -0.6162
19363SOL    HW268404   6.254   1.055   5.037 -3.2708 -2.2897 -1.0699
19364SOL     OW68405  10.506   4.285   7.960 -0.0347 -0.3645  0.0504
19364SOL    HW168406  10.541   4.233   7.888  0.6615  0.5221 -0.2728
19364SOL    HW268407  10.556   4.367   7.957 -0.3151 -0.1284  1.2540
19365SOL     OW68408   2.018   6.628   8.064  0.0504 -0.4954  0.0851
19365SOL    HW168409   2.014   6.557   8.128  0.9562 -0.8229 -0.2062
19365SOL    HW268410   2.093   6.606   8.009  0.2229  0.5906 -0.1292
19366SOL     OW68411  12.940   7.414   4.676 -0.2586  0.3509 -0.0426
19366SOL    HW168412  12.977   7.327   4.687 -0.0913  0.4939  0.5658
19366SOL    HW268413  12.987   7.451   4.601 -0.5084 -0.1671 -0.4628
19367SOL     OW68414   4.282   3.480  11.140 -0.8744 -0.8674 -0.9863
19367SOL    HW168415   4.353   3.418  11.153  0.2867  0.0452 -2.5321
19367SOL    HW268416   4.266   3.518  11.226  1.7362  0.1271 -0.8514
19368SOL     OW68417  10.421   4.678  12.206  0.5195  0.0516 -0.5228
19368SOL    HW168418  10.495   4.625  12.236  0.7531  0.4445 -0.4080
19368SOL    HW268419  10.398   4.731  12.282  1.9967  2.0824 -1.4257
19369SOL     OW68420  11.005  12.546  11.789 -0.1076 -0.6097 -0.3725
19369SOL    HW168421  10.976  12.508  11.706 -0.9403  1.5172 -1.1383
19369SOL    HW268422  11.093  12.580  11.770 -0.3122 -0.0922 -0.4041
19370SOL     OW68423   1.951   7.272   9.550 -0.2419 -0.0414  0.1010
19370SOL    HW168424   1.996   7.321   9.618 -2.0216  1.4092  0.3340
19370SOL    HW268425   1.929   7.188   9.590  0.0175  0.2270  0.8076
19371SOL     OW68426   0.655   9.475   4.280 -0.0576 -0.6930 -0.0256
19371SOL    HW168427   0.656   9.488   4.185 -0.3357  1.0321  0.1771
19371SOL    HW268428   0.586   9.410   4.294  0.7459 -1.8299 -1.0701
19372SOL     OW68429   3.192   4.170  11.105  0.1690  0.2204  0.3066
19372SOL    HW168430   3.146   4.162  11.188  0.2349 -0.7791  0.2517
19372SOL    HW268431   3.147   4.241  11.059  0.3393  1.0045  1.3186
19373SOL     OW68432   3.458  10.192  12.882 -0.2599  0.0027  0.2726
19373SOL    HW168433   3.519  10.266  12.882 -0.9270  0.5629  0.7311
19373SOL    HW268434   3.397  10.210  12.811  0.2744 -0.7113 -0.3838
19374SOL     OW68435   1.828   6.821   8.147  0.1328  0.3156  0.0669
19374SOL    HW168436   1.862   6.816   8.236  0.9587  0.4473 -0.2311
19374SOL    HW268437   1.884   6.762   8.096 -0.2143  0.3800 -0.3988
19375SOL     OW68438  11.777   2.316   3.443  0.4833  0.5991 -0.1911
19375SOL    HW168439  11.868   2.297   3.422  0.7043  1.6502 -0.2233
19375SOL    HW268440  11.728   2.244   3.402  1.1725  0.8058 -1.4383
19376SOL     OW68441   5.917   9.159   8.014  0.3189  0.0927 -0.0053
19376SOL    HW168442   5.823   9.174   8.015  0.2533 -0.2804 -0.2104
19376SOL    HW268443   5.947   9.188   8.100  0.1268  0.8640 -0.1924
19377SOL     OW68444   7.899   0.890   7.026 -0.0225 -0.0262  0.2773
19377SOL    HW168445   7.932   0.869   7.114 -0.3907 -0.5793  0.2844
19377SOL    HW268446   7.890   0.985   7.027  0.4891  0.0268  0.6585
19378SOL     OW68447  12.075   4.014   2.476  0.4275 -0.2373 -0.0429
19378SOL    HW168448  12.167   3.988   2.475  0.7423  0.7267  1.5185
19378SOL    HW268449  12.028   3.936   2.506  0.8301 -0.4197  0.1113
19379SOL     OW68450   3.476   5.143   0.596  0.2546 -0.4157 -0.3812
19379SOL    HW168451   3.410   5.140   0.527 -1.0280 -1.6311  0.7979
19379SOL    HW268452   3.426   5.162   0.676  1.6346  0.6270  0.2799
19380SOL     OW68453   2.467   4.782   8.890  0.6315 -0.4390 -0.8843
19380SOL    HW168454   2.504   4.870   8.892  3.6854 -1.5901 -1.7660
19380SOL    HW268455   2.374   4.796   8.869  1.2694  2.4930 -2.3395
19381SOL     OW68456   6.374   8.590   9.954  0.1471 -0.1758 -0.5434
19381SOL    HW168457   6.317   8.561   9.883 -0.4930 -0.2220 -0.0285
19381SOL    HW268458   6.362   8.524  10.022 -1.9994  1.6473  1.0042
19382SOL     OW68459   0.722   5.773   0.927  0.6469  0.1072 -0.6461
19382SOL    HW168460   0.636   5.742   0.955  0.0527  1.9797 -0.2562
19382SOL    HW268461   0.759   5.700   0.879 -0.6237 -1.2050  0.2815
19383SOL     OW68462   5.517   9.531  10.307  0.1082  0.0214 -0.1510
19383SOL    HW168463   5.528   9.444  10.345  0.9565  0.0525 -0.3101
19383SOL    HW268464   5.472   9.582  10.374 -0.8115 -0.6631 -0.2358
19384SOL     OW68465   1.946   3.414  12.025  0.2546 -0.0647 -0.2557
19384SOL    HW168466   1.994   3.354  12.083 -0.7900  0.1609  0.8786
19384SOL    HW268467   1.940   3.367  11.942 -0.5986 -1.5830  0.6178
19385SOL     OW68468   5.745   2.040  10.185 -0.0256  0.1751 -0.3894
19385SOL    HW168469   5.722   2.132  10.180 -1.0506 -0.1077 -1.3589
19385SOL    HW268470   5.736   2.008  10.095 -2.0255 -1.3675  0.2712
19386SOL     OW68471   2.822   5.438   7.109 -0.3735 -0.2823 -0.6030
19386SOL    HW168472   2.807   5.408   7.199 -0.7059 -0.1726 -0.6190
19386SOL    HW268473   2.913   5.467   7.108 -0.3884 -0.2203 -0.2823
19387SOL     OW68474  11.009  10.812   5.240 -0.2206 -1.0903  0.3598
19387SOL    HW168475  11.086  10.869   5.227  1.1862 -2.7999  0.8154
19387SOL    HW268476  10.936  10.863   5.205  1.4283 -0.3025 -2.2679
19388SOL     OW68477   0.361   1.925  12.861 -0.0293 -0.3328 -0.0972
19388SOL    HW168478   0.405   1.883  12.787  0.0358 -1.7746  0.7111
19388SOL    HW268479   0.270   1.896  12.854 -0.0755 -0.2739  0.2466
19389SOL     OW68480   8.995   3.309   6.374 -0.0163 -0.4152  0.3818
19389SOL    HW168481   8.965   3.219   6.358  0.9178 -0.5677 -0.6639
19389SOL    HW268482   8.998   3.317   6.469  0.3411 -1.6477  0.4875
19390SOL     OW68483   3.356  10.833   4.893 -0.5842 -0.2551 -0.2014
19390SOL    HW168484   3.354  10.806   4.801  0.2397 -0.6023 -0.1255
19390SOL    HW268485   3.382  10.926   4.890 -0.7135 -0.2236 -0.3305
19391SOL     OW68486  12.351   5.800   0.247 -0.5883 -0.5256 -0.1951
19391SOL    HW168487  12.405   5.876   0.269 -1.4596 -0.0401  0.3787
19391SOL    HW268488  12.362   5.741   0.321 -0.3508 -0.7044 -0.3746
19392SOL     OW68489   6.277  11.986   7.429  0.2468 -0.1642 -0.3117
19392SOL    HW168490   6.363  11.975   7.387 -0.2393 -0.3948 -1.2651
19392SOL    HW268491   6.242  12.067   7.391  0.9094  1.1094  1.6355
19393SOL     OW68492   6.415   6.422   4.612  0.2581 -0.1124  0.2050
19393SOL    HW168493   6.434   6.439   4.704 -0.6534  0.7907  0.2536
19393SOL    HW268494   6.500   6.415   4.570  0.6880 -0.8308  1.1579
19394SOL     OW68495   1.423   5.766   5.182  0.4599 -0.1399  0.2837
19394SOL    HW168496   1.517   5.769   5.201  0.9044  1.2692 -1.7561
19394SOL    HW268497   1.392   5.855   5.202 -0.4324 -0.5815  0.8894
19395SOL     OW68498   5.993   8.256  11.592 -0.2617  0.5598  0.5709
19395SOL    HW168499   5.927   8.244  11.524  1.6112 -3.5162 -0.8577
19395SOL    HW268500   5.944   8.255  11.674 -2.1405 -1.5999 -0.4579
19396SOL     OW68501   6.505  10.989   3.827 -0.2094 -0.5112 -1.0872
19396SOL    HW168502   6.600  10.994   3.814 -0.1730 -2.1097 -1.6169
19396SOL    HW268503   6.488  11.052   3.897  1.9336 -3.2244  2.2270
19397SOL     OW68504   5.622   3.489   8.972  0.0065  0.1825  0.4731
19397SOL    HW168505   5.652   3.479   8.881  1.4634 -2.4365  1.1347
19397SOL    HW268506   5.571   3.409   8.989  0.5670  0.1493  2.2063
19398SOL     OW68507   5.268   1.934   6.265 -0.3339 -0.2502 -0.2115
19398SOL    HW168508   5.347   1.982   6.291 -0.1175 -0.5204 -0.3644
19398SOL    HW268509   5.301   1.854   6.223 -0.6873 -0.3391 -0.3253
19399SOL     OW68510   6.169   0.369   9.537  0.2587  0.0382  0.0072
19399SOL    HW168511   6.175   0.386   9.630  3.4584 -1.4035  0.1759
19399SOL    HW268512   6.174   0.456   9.496  0.9902  0.5513  1.1372
19400SOL     OW68513   7.289   4.276  11.348 -0.5481 -0.1695  0.0684
19400SOL    HW168514   7.238   4.238  11.277 -2.7303 -0.3819  1.6631
19400SOL    HW268515   7.345   4.341  11.305  0.1259 -2.0718 -2.1392
19401SOL     OW68516  11.360   4.638   9.249 -0.3926 -0.0887  0.3461
19401SOL    HW168517  11.391   4.629   9.339 -0.6664  1.0116  0.5713
19401SOL    HW268518  11.266   4.618   9.253 -0.0110 -2.2070 -0.1150
19402SOL     OW68519   1.443   1.564  11.174  0.0294 -0.0978  0.2335
19402SOL    HW168520   1.535   1.591  11.179  0.0380 -0.0578 -0.1442
19402SOL    HW268521   1.395   1.647  11.179  0.0340 -0.0674 -0.1725
19403SOL     OW68522   5.013  10.469   4.522  0.4704  0.1932 -0.0177
19403SOL    HW168523   4.981  10.498   4.607 -0.1167 -0.0622 -0.1441
19403SOL    HW268524   5.108  10.471   4.529  0.4336 -0.8735  0.9979
19404SOL     OW68525   8.033   4.661   2.343  0.5466 -1.2317  0.2528
19404SOL    HW168526   8.104   4.723   2.359  1.0537 -2.1981  2.0052
19404SOL    HW268527   8.065   4.578   2.377 -0.6480 -2.1702 -0.8107
19405SOL     OW68528  12.817   4.669   7.354 -0.6975  0.9857  0.1230
19405SOL    HW168529  12.823   4.585   7.307  1.7288 -0.6428  2.9518
19405SOL    HW268530  12.750   4.654   7.421 -0.9468  1.6665  0.0315
19406SOL     OW68531   0.902   6.327   8.495  0.1917 -0.0560 -0.4711
19406SOL    HW168532   0.984   6.290   8.463  0.2994 -0.4920  0.2783
19406SOL    HW268533   0.834   6.269   8.462  0.2937 -0.4460 -0.0019
19407SOL     OW68534   0.524   2.502   4.851 -0.5074 -0.1145 -0.1264
19407SOL    HW168535   0.518   2.594   4.826  2.1499  0.1651  0.0652
19407SOL    HW268536   0.542   2.504   4.945  1.0720 -0.7363 -0.3859
19408SOL     OW68537   2.831   4.883   6.018  0.0331  0.7288 -0.1445
19408SOL    HW168538   2.918   4.843   6.010  0.5881  2.0721 -1.2218
19408SOL    HW268539   2.773   4.822   5.972  0.8845  1.1532 -1.8920
19409SOL     OW68540   2.524   3.555  10.488  1.0815  0.5120 -0.2934
19409SOL    HW168541   2.544   3.619  10.556  2.0605  0.0619 -0.1335
19409SOL    HW268542   2.565   3.474  10.519  1.2069  0.2013 -1.2309
19410SOL     OW68543   6.188   8.245  10.768 -0.6770  0.0076 -0.0639
19410SOL    HW168544   6.180   8.263  10.862 -0.3717  0.2375 -0.0788
19410SOL    HW268545   6.098   8.244  10.736 -0.8040 -0.3653  0.2832
19411SOL     OW68546   3.481   0.688  12.029 -0.6037  0.2431 -0.0621
19411SOL    HW168547   3.448   0.598  12.021  0.8812 -0.1461 -3.1340
19411SOL    HW268548   3.559   0.680  12.084 -0.7904 -0.2200  0.1448
19412SOL     OW68549   1.133   5.968   3.454 -0.4710 -0.0424  0.4037
19412SOL    HW168550   1.153   5.932   3.367  0.1357  0.6431  0.2466
19412SOL    HW268551   1.060   6.029   3.438  0.8840  1.5611 -0.0055
19413SOL     OW68552   0.970   7.751   0.059  0.1736 -0.0770  0.4881
19413SOL    HW168553   0.917   7.685   0.016  1.7480  0.3861 -2.4455
19413SOL    HW268554   1.051   7.706   0.082 -0.3288 -0.1084  2.4323
19414SOL     OW68555  12.170   9.403   6.756 -0.2867  0.1492 -0.6392
19414SOL    HW168556  12.120   9.450   6.822 -1.2362 -0.6939 -0.7321
19414SOL    HW268557  12.209   9.471   6.702  0.4323  0.8402  0.7282
19415SOL     OW68558   0.613   0.548   5.951  0.2374 -0.4170  0.4870
19415SOL    HW168559   0.607   0.542   6.046 -1.7610  0.5825  0.4783
19415SOL    HW268560   0.523   0.559   5.922  0.8564 -0.1539 -1.4876
19416SOL     OW68561   1.115   1.732   6.404 -0.1642  0.0164  0.4358
19416SOL    HW168562   1.171   1.761   6.332  0.5765  0.8970  1.3456
19416SOL    HW268563   1.027   1.733   6.367  0.2741 -0.2626 -0.6744
19417SOL     OW68564   2.045   2.810   1.028  0.3481 -0.5035  0.2230
19417SOL    HW168565   2.126   2.764   1.008  1.1265  1.5008 -1.6937
19417SOL    HW268566   2.065   2.863   1.105  0.1027 -1.7032  1.1391
19418SOL     OW68567  11.734   8.728   7.052  0.2989 -0.7064 -0.0086
19418SOL    HW168568  11.805   8.686   7.005  1.2308 -0.3047  0.9829
19418SOL    HW268569  11.718   8.672   7.128  0.7898  0.1101  0.7252
19419SOL     OW68570   6.927   8.382   4.813  0.0972  0.2865 -0.1958
19419SOL    HW168571   6.933   8.477   4.804  1.0109  0.1072 -1.7042
19419SOL    HW268572   6.991   8.360   4.881  1.9948  0.5086 -1.8129
19420SOL     OW68573   4.932  12.495   5.304  0.1603  0.0755  0.2855
19420SOL    HW168574   4.993  12.464   5.370 -0.8293 -0.8732  0.7914
19420SOL    HW268575   4.961  12.453   5.223  1.0850  0.8550  0.1995
19421SOL     OW68576   1.151   1.439   8.863  0.4029 -0.6833 -0.1769
19421SOL    HW168577   1.111   1.435   8.950  0.6055 -0.1735 -0.0514
19421SOL    HW268578   1.106   1.511   8.819 -1.0413 -2.1655 -1.2101
19422SOL     OW68579  11.051   8.394   1.231 -0.1286 -0.2830  0.6223
19422SOL    HW168580  11.066   8.322   1.293 -1.3141 -0.6562  0.5143
19422SOL    HW268581  10.990   8.357   1.167  1.3206 -0.0102 -0.9895
19423SOL     OW68582   1.913  12.446   4.151 -0.1025  0.0630 -0.7385
19423SOL    HW168583   1.849  12.476   4.216 -0.2396 -0.3386 -0.6874
19423SOL    HW268584   1.998  12.457   4.194 -0.2621 -1.4679  0.0383
19424SOL     OW68585  11.185   5.586   9.116 -0.1266 -0.0013  0.0775
19424SOL    HW168586  11.181   5.600   9.021  0.8931  1.4675  0.2035
19424SOL    HW268587  11.104   5.540   9.137 -0.1899 -0.7206 -1.5529
19425SOL     OW68588  12.268   2.117   5.266  0.3359  0.1663  0.1212
19425SOL    HW168589  12.274   2.062   5.188 -3.0864 -1.7690  1.0214
19425SOL    HW268590  12.262   2.055   5.339 -1.4025  1.7593  1.4394
19426SOL     OW68591  11.855   1.408  11.967 -0.2690 -0.0331 -0.4443
19426SOL    HW168592  11.771   1.454  11.966  0.3358  1.1040 -0.4424
19426SOL    HW268593  11.911   1.460  11.910  0.1990 -1.2664 -1.1372
19427SOL     OW68594   0.445   6.537   6.316  1.0129  0.1233  0.6929
19427SOL    HW168595   0.463   6.444   6.302  2.1880  0.2001  1.5436
19427SOL    HW268596   0.385   6.561   6.245  2.3861 -0.7908 -0.8722
19428SOL     OW68597   7.220   3.918  10.438  0.0779  0.1417 -0.4520
19428SOL    HW168598   7.142   3.869  10.408 -0.0136  0.0275 -0.0286
19428SOL    HW268599   7.188   3.975  10.507 -0.1292  1.9600 -1.9551
19429SOL     OW68600   2.867   2.212   6.625 -0.3410  0.3566  0.3083
19429SOL    HW168601   2.828   2.184   6.542 -0.4750 -0.0587  0.5056
19429SOL    HW268602   2.806   2.278   6.658 -1.4920 -1.0638  1.1388
19430SOL     OW68603   5.971   5.381   4.591  0.4827 -0.3711  0.8125
19430SOL    HW168604   5.994   5.313   4.655  1.2265 -0.5797  0.3406
19430SOL    HW268605   6.051   5.392   4.539  0.6454  1.4549  1.3959
19431SOL     OW68606   0.808   9.681   2.187  0.4730  0.0021 -0.3634
19431SOL    HW168607   0.786   9.593   2.219 -1.0060  0.5613  0.2575
19431SOL    HW268608   0.898   9.695   2.214  0.5847 -1.1596 -0.0882
19432SOL     OW68609   6.722  10.533   5.443 -0.6469  0.0402 -0.6032
19432SOL    HW168610   6.691  10.550   5.353  0.4797  0.6121 -0.9074
19432SOL    HW268611   6.727  10.438   5.449  0.1717  0.0126 -1.4863
19433SOL     OW68612   2.894   9.394  10.721 -0.0400 -0.3146 -0.2742
19433SOL    HW168613   2.901   9.423  10.812  0.4476 -1.2456  0.0007
19433SOL    HW268614   2.805   9.360  10.714  0.3720 -1.5589  0.2755
19434SOL     OW68615   3.207   0.458   1.446  0.1973  0.2977 -0.4430
19434SOL    HW168616   3.129   0.403   1.441  0.1190  0.2206  1.0812
19434SOL    HW268617   3.276   0.406   1.405 -0.5485  0.4148 -1.9015
19435SOL     OW68618   9.577   9.238  12.813 -0.1730 -0.5423 -0.0502
19435SOL    HW168619   9.672   9.226  12.825 -0.5121 -1.6637  1.9659
19435SOL    HW268620   9.568   9.263  12.722  1.9842 -1.5698 -0.6271
19436SOL     OW68621   0.889  11.777   7.575 -0.2363 -0.1184  0.0242
19436SOL    HW168622   0.941  11.721   7.517  1.3516  0.3320  0.9670
19436SOL    HW268623   0.940  11.784   7.655 -1.5190  0.7810  0.8132
19437SOL     OW68624   4.333  12.622   5.754  0.1392  0.1708  0.0480
19437SOL    HW168625   4.299  12.704   5.720 -2.6479 -0.9836 -0.2211
19437SOL    HW268626   4.340  12.565   5.677  1.7588  0.0308  0.2711
19438SOL     OW68627   2.965  12.815  10.446  0.0181 -0.3611  0.4052
19438SOL    HW168628   2.971  12.878  10.518  0.8343 -0.8981  0.8122
19438SOL    HW268629   2.942  12.869  10.370  0.8444  0.4559  0.7138
19439SOL     OW68630   6.209   5.090   6.898  0.0521  0.2120 -0.8534
19439SOL    HW168631   6.252   5.131   6.824  0.3243  1.1139 -0.2090
19439SOL    HW268632   6.215   5.154   6.969 -1.0830 -0.2180 -0.3344
19440SOL     OW68633   4.184   4.691   3.346  0.1087 -0.3346 -0.7000
19440SOL    HW168634   4.154   4.610   3.388  1.0720 -0.9968 -1.2617
19440SOL    HW268635   4.122   4.757   3.376 -0.1523 -1.0946  0.5188
19441SOL     OW68636   5.705  11.813   6.959  0.2271  0.1348 -0.6979
19441SOL    HW168637   5.791  11.835   6.925  1.1068 -0.4289  1.0553
19441SOL    HW268638   5.660  11.897   6.966  1.0332  0.5610 -0.5586
19442SOL     OW68639   7.571   4.643   4.526 -0.3090 -0.0729 -0.4579
19442SOL    HW168640   7.606   4.717   4.477  0.6262 -0.1814  0.0094
19442SOL    HW268641   7.573   4.570   4.464  1.0331 -0.2533 -0.2374
19443SOL     OW68642   5.278   3.333   7.172 -0.2221  0.0157  0.4565
19443SOL    HW168643   5.343   3.354   7.238  1.8819 -0.0947 -1.4544
19443SOL    HW268644   5.243   3.417   7.144  1.1370  0.3441 -0.3805
19444SOL     OW68645   6.325   8.158   9.513  0.2157  0.5256  0.4779
19444SOL    HW168646   6.370   8.150   9.429  0.5763  3.1699  0.3422
19444SOL    HW268647   6.234   8.132   9.494  0.6645 -0.5619 -0.2832
19445SOL     OW68648   7.601   6.265   3.981  0.1239 -0.1463 -0.5202
19445SOL    HW168649   7.508   6.254   4.002  0.4671 -0.7810  0.7230
19445SOL    HW268650   7.600   6.316   3.900 -1.2920  0.6574 -0.0461
19446SOL     OW68651   4.837  10.653   1.573  0.2565  0.2702 -0.6549
19446SOL    HW168652   4.812  10.561   1.559  0.0380  0.3306 -0.6700
19446SOL    HW268653   4.839  10.663   1.668  1.0814  0.0375 -0.6391
19447SOL     OW68654   8.369   1.407   2.715 -0.0614  0.0925  0.0290
19447SOL    HW168655   8.458   1.372   2.716  0.7172  1.8326  2.8631
19447SOL    HW268656   8.314   1.334   2.743  0.6411 -0.6285 -0.4437
19448SOL     OW68657   3.725   7.240   9.178 -0.0682 -0.1059  0.3800
19448SOL    HW168658   3.753   7.331   9.186  0.3378 -0.3167  1.5350
19448SOL    HW268659   3.637   7.239   9.217 -0.5121 -0.0214 -0.5795
19449SOL     OW68660  12.870   6.419  10.526  0.1361 -0.0354 -0.0075
19449SOL    HW168661  12.781   6.397  10.554 -0.4296 -1.0035 -2.3653
19449SOL    HW268662  12.861   6.504  10.482  0.3951 -0.0854 -0.1571
19450SOL     OW68663  12.617   8.547  12.248  0.7623  0.0035  0.2390
19450SOL    HW168664  12.554   8.492  12.294 -4.2932  3.6478 -1.5196
19450SOL    HW268665  12.680   8.573  12.316 -1.4260 -1.4084  3.0153
19451SOL     OW68666  10.537  12.450   7.150  0.0955 -0.2919 -0.0635
19451SOL    HW168667  10.504  12.534   7.182 -0.1297 -0.8582  1.2455
19451SOL    HW268668  10.508  12.446   7.059  0.1279  1.0529 -0.1522
19452SOL     OW68669   5.993   3.308   7.357  0.4156  0.0264 -0.2127
19452SOL    HW168670   5.950   3.330   7.274 -0.7905 -1.5766 -0.0525
19452SOL    HW268671   6.013   3.215   7.351 -0.9638 -0.4657  1.8019
19453SOL     OW68672   5.672   7.835   0.680  0.2254  0.2432  0.3657
19453SOL    HW168673   5.736   7.825   0.609 -1.1513  1.6299 -1.1561
19453SOL    HW268674   5.680   7.926   0.707  0.2109 -0.0832  1.5128
19454SOL     OW68675   5.785   2.092   6.507  0.2419 -0.3875  0.4095
19454SOL    HW168676   5.740   2.057   6.584 -0.3304 -0.2028  0.1660
19454SOL    HW268677   5.867   2.044   6.504  0.4647 -0.0910  1.3858
19455SOL     OW68678   3.867   3.450   7.681  0.2843  0.2007 -0.4704
19455SOL    HW168679   3.895   3.513   7.748 -0.3708 -0.8016  0.7797
19455SOL    HW268680   3.941   3.445   7.620  1.6297 -0.1846  1.1336
19456SOL     OW68681  10.899   5.343   7.764  0.1713  0.2187 -0.6818
19456SOL    HW168682  10.805   5.326   7.767  0.3014 -0.4429  0.8245
19456SOL    HW268683  10.906   5.434   7.735 -0.9769  0.4993 -0.1646
19457SOL     OW68684   1.501   7.015   7.450 -0.3008  0.2737 -0.4281
19457SOL    HW168685   1.420   7.041   7.406  0.4561 -0.8119 -2.5858
19457SOL    HW268686   1.565   7.081   7.424 -0.3737  0.9877  1.0700
19458SOL     OW68687   4.017   4.049  12.141 -0.1873 -0.3846  0.8217
19458SOL    HW168688   3.984   3.966  12.107 -0.6241  0.1802 -0.1884
19458SOL    HW268689   4.111   4.045  12.128 -0.0428 -1.2461  1.9957
19459SOL     OW68690   2.167   7.445   2.457  0.2017  0.2004 -0.0593
19459SOL    HW168691   2.230   7.478   2.394  0.5558 -0.0023  0.1876
19459SOL    HW268692   2.141   7.359   2.424  2.3546 -1.0876  1.3974
19460SOL     OW68693  11.787  10.182   9.605  0.4613 -0.2471 -0.2393
19460SOL    HW168694  11.696  10.154   9.610  0.0703  1.0734  1.6081
19460SOL    HW268695  11.837  10.102   9.590 -0.8154 -1.4624  1.5140
19461SOL     OW68696  10.336  11.282   5.257 -0.5904 -0.3842  0.0647
19461SOL    HW168697  10.378  11.196   5.250 -0.0053 -0.0424 -0.8386
19461SOL    HW268698  10.245  11.265   5.235 -0.4908 -0.7896 -0.0490
19462SOL     OW68699   5.141   6.039  10.445  0.3383 -0.1534 -0.1693
19462SOL    HW168700   5.058   6.052  10.490  0.2959 -1.0494  0.0388
19462SOL    HW268701   5.207   6.071  10.506  0.1528  0.5381 -0.3255
19463SOL     OW68702   1.646   2.176   2.881  0.0960  0.4808  0.2564
19463SOL    HW168703   1.718   2.145   2.827 -1.7326 -1.3385 -1.2800
19463SOL    HW268704   1.567   2.143   2.838 -1.6374  1.6259  2.3471
19464SOL     OW68705   2.734   6.473   2.824 -0.1726  0.0744 -0.5258
19464SOL    HW168706   2.698   6.410   2.885 -1.1873  1.6038  0.5014
19464SOL    HW268707   2.666   6.539   2.812  0.3281  0.3102 -2.6248
19465SOL     OW68708  11.393   8.500   7.349  0.0112  0.5804 -0.0309
19465SOL    HW168709  11.437   8.429   7.397 -0.5873  0.8368  0.9202
19465SOL    HW268710  11.306   8.467   7.331 -0.3305  1.1230  0.5709
19466SOL     OW68711   8.224  11.616   6.806 -0.4701 -0.3275 -0.0917
19466SOL    HW168712   8.222  11.578   6.719 -1.1322  1.1434 -0.7595
19466SOL    HW268713   8.156  11.683   6.804  0.2887  0.5206  1.1767
19467SOL     OW68714   3.753   1.742   6.905  0.5223  0.4218  0.4282
19467SOL    HW168715   3.808   1.793   6.964 -0.1755 -0.4121  1.8761
19467SOL    HW268716   3.746   1.656   6.948  0.1045 -0.2672 -0.9642
19468SOL     OW68717   1.550   5.658  11.645  0.1940 -0.0969  0.3348
19468SOL    HW168718   1.645   5.667  11.638  0.1363  0.5347  0.3132
19468SOL    HW268719   1.524   5.727  11.706 -0.1418 -0.9113  1.1325
19469SOL     OW68720  11.984   2.675   8.519 -0.2131 -0.0969 -0.4885
19469SOL    HW168721  12.011   2.599   8.571 -1.2299 -0.4346 -0.4313
19469SOL    HW268722  11.932   2.637   8.448 -0.7641  0.5485 -0.4341
19470SOL     OW68723   4.568  12.371  10.095  0.4204 -0.1340  0.3126
19470SOL    HW168724   4.483  12.414  10.086 -0.3151 -1.5281  0.3277
19470SOL    HW268725   4.612  12.388  10.012  1.1430  2.6208  1.1583
19471SOL     OW68726   7.437   6.325   3.207 -0.4947 -0.0350 -0.4618
19471SOL    HW168727   7.482   6.314   3.291  1.0026  1.0475 -1.0714
19471SOL    HW268728   7.377   6.250   3.202 -0.3083 -0.3580  1.3608
19472SOL     OW68729  11.958   3.765   8.881  0.1949  0.1575  0.2020
19472SOL    HW168730  11.917   3.809   8.807  1.2550  1.4338  0.3419
19472SOL    HW268731  11.887   3.753   8.944 -0.1840  1.4035  0.0355
19473SOL     OW68732   1.223   8.544   0.519  0.1994 -0.2135  0.5224
19473SOL    HW168733   1.209   8.508   0.607 -3.4354  0.2379  0.2960
19473SOL    HW268734   1.229   8.638   0.532 -1.4572 -0.0391  0.2883
19474SOL     OW68735   2.354   1.237  12.331  0.6171  0.2860  0.1594
19474SOL    HW168736   2.353   1.142  12.341  0.1340  0.4710  2.4866
19474SOL    HW268737   2.272   1.257  12.287  0.8762 -0.3690 -0.6615
19475SOL     OW68738   1.970   6.223  11.698  0.2178  0.7718 -0.4041
19475SOL    HW168739   2.026   6.168  11.753 -0.3937  1.9078  1.4309
19475SOL    HW268740   2.017   6.229  11.615  1.9005  0.1940  0.4538
19476SOL     OW68741   1.765  11.240   2.846 -0.0821  0.1331  0.2629
19476SOL    HW168742   1.774  11.183   2.770 -1.1026 -0.1076  0.3106
19476SOL    HW268743   1.809  11.193   2.916  0.8439  0.3444 -0.1629
19477SOL     OW68744   7.807   0.643   4.892 -0.4046 -0.0778  0.5000
19477SOL    HW168745   7.823   0.551   4.869  1.2550  0.2571  0.2493
19477SOL    HW268746   7.743   0.638   4.963 -0.8334 -1.3913  0.0660
19478SOL     OW68747   1.473   9.498   6.607 -0.2271 -0.3608  0.5120
19478SOL    HW168748   1.563   9.468   6.620  0.0958  0.4471  0.1898
19478SOL    HW268749   1.454   9.479   6.515 -0.1775 -0.0024  0.4254
19479SOL     OW68750   7.937   8.462  11.646  0.5768  0.8165  0.2737
19479SOL    HW168751   7.977   8.413  11.574  0.2445 -0.2644  0.7950
19479SOL    HW268752   7.879   8.398  11.689 -2.7703  2.6103 -1.2078
19480SOL     OW68753   9.161   3.144   5.524 -0.0233 -0.0773 -0.1759
19480SOL    HW168754   9.203   3.100   5.450  0.7165 -0.7144  0.6112
19480SOL    HW268755   9.153   3.236   5.496 -2.5105 -0.8045 -2.2558
19481SOL     OW68756  10.988  10.969   8.880  0.2243  0.4451 -0.3738
19481SOL    HW168757  10.893  10.971   8.870  0.0577  0.1468  1.0202
19481SOL    HW268758  11.012  10.878   8.861  0.0011  0.0769  0.9986
19482SOL     OW68759   9.796   7.994   8.422  0.3170  0.0990  0.6155
19482SOL    HW168760   9.819   7.957   8.336 -1.1331  1.5193 -0.4572
19482SOL    HW268761   9.754   7.922   8.468  0.5606 -0.5218 -0.1011
19483SOL     OW68762   5.054  12.171   2.832 -0.5169 -0.8343  0.0851
19483SOL    HW168763   5.055  12.254   2.785 -1.9556  0.0805  1.5430
19483SOL    HW268764   5.060  12.104   2.764  0.3922  0.4460 -1.1368
19484SOL     OW68765   2.635   5.046   5.797  0.2445  0.9697  0.5210
19484SOL    HW168766   2.544   5.070   5.781 -0.3242 -0.4121  1.3977
19484SOL    HW268767   2.644   4.958   5.759  0.8654  0.6237  1.4091
19485SOL     OW68768   9.258  12.546   5.362  0.1111 -0.1526  0.1239
19485SOL    HW168769   9.343  12.513   5.389  0.0584 -0.3493  0.0532
19485SOL    HW268770   9.202  12.534   5.438  0.6163  1.8018  0.8723
19486SOL     OW68771   7.821   5.917   4.513 -0.9628  0.3952 -0.4994
19486SOL    HW168772   7.833   6.003   4.555 -1.1324  0.1629  0.0313
19486SOL    HW268773   7.855   5.855   4.577 -2.2376 -0.0529 -0.2262
19487SOL     OW68774  10.375  10.641   2.902 -0.0658 -0.4486  0.0125
19487SOL    HW168775  10.332  10.569   2.948 -0.2854 -0.3287 -0.0073
19487SOL    HW268776  10.386  10.608   2.812 -2.9790  0.6629 -0.8707
19488SOL     OW68777   6.146   8.714  11.921  0.4404  0.3736 -0.5305
19488SOL    HW168778   6.185   8.748  12.001  3.2443 -1.8370 -0.7546
19488SOL    HW268779   6.187   8.765  11.851 -0.6948  1.1612 -0.6304
19489SOL     OW68780   2.539   0.440  12.833  0.0088  0.5254  0.3659
19489SOL    HW168781   2.585   0.396  12.905  0.5057  1.3676  0.5699
19489SOL    HW268782   2.449   0.450  12.864  0.0352  0.1910  0.5561
19490SOL     OW68783   9.393   8.477   0.238  0.3644 -0.7099  0.9715
19490SOL    HW168784   9.334   8.493   0.164  0.9879 -0.5844  0.4902
19490SOL    HW268785   9.415   8.384   0.231  1.0716 -0.5170  0.4987
19491SOL     OW68786   3.305  11.621   1.571  0.2369  0.3588  0.0245
19491SOL    HW168787   3.275  11.626   1.480  0.4335 -0.0495 -0.0632
19491SOL    HW268788   3.374  11.687   1.577  0.5656  0.0475 -0.2585
19492SOL     OW68789   9.566   1.821   7.978 -0.2647 -0.0281 -0.3108
19492SOL    HW168790   9.553   1.771   7.898  2.1595  0.4307 -1.0795
19492SOL    HW268791   9.482   1.815   8.025 -0.4993 -3.7194 -0.9271
19493SOL     OW68792   4.256  11.026   4.732  0.4346 -0.3251 -0.7677
19493SOL    HW168793   4.334  11.061   4.775 -0.4745  0.2722  0.4517
19493SOL    HW268794   4.216  11.103   4.692 -0.5552 -0.2765  0.2847
19494SOL     OW68795  12.963   3.506   1.774  0.0180 -0.1611 -0.4786
19494SOL    HW168796  13.038   3.564   1.787 -0.9286  1.5896 -2.3094
19494SOL    HW268797  12.898   3.535   1.838  0.3891 -0.7955  0.1999
19495SOL     OW68798   7.263   6.125   8.868 -0.0431 -0.1971  0.2092
19495SOL    HW168799   7.358   6.121   8.884  0.0760 -0.2924 -0.4906
19495SOL    HW268800   7.232   6.037   8.888  0.0944 -0.2985 -0.0147
19496SOL     OW68801  11.955   4.678  10.734  0.3328  0.0715  0.0850
19496SOL    HW168802  11.972   4.681  10.640  1.0908  1.5265  0.2447
19496SOL    HW268803  12.041   4.677  10.775  0.0109 -0.8746  0.7760
19497SOL     OW68804  12.717   7.708   5.970 -0.4249  0.2262  1.3305
19497SOL    HW168805  12.653   7.720   6.040 -0.2213  0.0609  1.5483
19497SOL    HW268806  12.753   7.795   5.955 -2.0077  0.7063 -0.0791
19498SOL     OW68807   5.540   4.903   8.450  0.0002 -0.3507 -0.1278
19498SOL    HW168808   5.570   4.836   8.512 -1.3695 -1.5471 -0.6842
19498SOL    HW268809   5.448   4.916   8.472 -0.7622 -1.3952 -2.3561
19499SOL     OW68810   1.806   9.802   7.257 -0.2911  0.0987  0.6005
19499SOL    HW168811   1.792   9.895   7.239  2.7858  0.2692 -1.6566
19499SOL    HW268812   1.772   9.757   7.180  2.7626 -0.1238 -0.7463
19500SOL     OW68813   2.936   6.276  10.898  0.0785  0.0586 -0.6764
19500SOL    HW168814   2.984   6.283  10.816 -0.3011  2.0048 -0.7677
19500SOL    HW268815   2.875   6.349  10.897 -0.2009 -0.1022  1.1605
19501SOL     OW68816  12.288   4.212   8.857 -0.2604 -0.1644  0.0351
19501SOL    HW168817  12.217   4.241   8.801 -0.8184  0.3750  0.9895
19501SOL    HW268818  12.344   4.289   8.867  0.4441 -0.5751 -0.6766
19502SOL     OW68819   3.148  11.507   9.432 -0.0797 -0.1774  0.1167
19502SOL    HW168820   3.136  11.444   9.503  0.4812  0.8441  1.1570
19502SOL    HW268821   3.097  11.472   9.360  1.6675 -2.8075  0.0061
19503SOL     OW68822   0.425   0.401  12.612  0.2507  0.1100 -0.5317
19503SOL    HW168823   0.339   0.426  12.577 -0.1602  0.8184  0.9026
19503SOL    HW268824   0.487   0.442  12.552 -0.4032 -0.1377 -1.4085
19504SOL     OW68825   7.089   3.276   4.927 -0.3989 -0.1506  0.0644
19504SOL    HW168826   7.106   3.284   5.021 -1.3892 -1.5400  0.3843
19504SOL    HW268827   7.027   3.204   4.920 -2.9101  1.9943 -1.3825
19505SOL     OW68828   7.164  10.024   8.892 -0.3961  0.1566  0.2795
19505SOL    HW168829   7.242  10.053   8.938  1.7532  0.5240 -3.2518
19505SOL    HW268830   7.157   9.931   8.914 -0.9894  0.7855  3.1587
19506SOL     OW68831   3.575   2.513   5.494  0.3653  0.2347  0.8037
19506SOL    HW168832   3.568   2.539   5.586 -0.9201  0.3498  0.6838
19506SOL    HW268833   3.659   2.467   5.489 -0.1319 -0.9292  2.3235
19507SOL     OW68834   2.117   3.851   6.271 -0.4183  0.8323 -0.3829
19507SOL    HW168835   2.143   3.937   6.238 -2.5032  1.4929 -0.4527
19507SOL    HW268836   2.072   3.810   6.197 -1.1905  0.5132  0.2520
19508SOL     OW68837   2.133   1.168  11.333 -0.2709  0.0177 -0.0534
19508SOL    HW168838   2.208   1.183  11.391 -2.7131  1.1818  3.1455
19508SOL    HW268839   2.100   1.256  11.314 -0.5765 -0.4452 -1.8102
19509SOL     OW68840   6.591   9.409  11.059  0.2746  0.3526  0.1248
19509SOL    HW168841   6.679   9.394  11.093  0.2828 -2.7831 -0.9296
19509SOL    HW268842   6.604   9.442  10.971  0.3553  1.3610  0.5093
19510SOL     OW68843   8.334   1.478   0.725  0.4044  0.1845 -0.6185
19510SOL    HW168844   8.263   1.486   0.661 -2.3273 -3.0054  1.6391
19510SOL    HW268845   8.398   1.421   0.682 -0.8570 -1.0174 -0.9943
19511SOL     OW68846   7.961   1.358  12.550  0.5224  0.9273 -0.3725
19511SOL    HW168847   7.886   1.362  12.609  0.9714 -0.1250  0.3065
19511SOL    HW268848   8.031   1.401  12.599  1.5483 -2.0020  0.9637
19512SOL     OW68849   0.207   4.243  11.174  0.0302  0.0751  0.2917
19512SOL    HW168850   0.224   4.150  11.155 -0.7651 -0.0230  0.0254
19512SOL    HW268851   0.171   4.278  11.092  0.5567  0.6866  0.3135
19513SOL     OW68852   8.421   7.576   7.829  0.3022  0.3498  0.0043
19513SOL    HW168853   8.468   7.605   7.750 -0.8932 -1.1302 -1.3191
19513SOL    HW268854   8.424   7.652   7.887  0.5213  1.7911 -1.7896
19514SOL     OW68855  12.113   2.207   0.347 -0.2351 -0.6634 -0.5513
19514SOL    HW168856  12.104   2.197   0.442  0.4086 -0.8359 -0.4993
19514SOL    HW268857  12.104   2.118   0.314  0.1093 -0.6835 -0.5953
19515SOL     OW68858   4.895   8.269   6.577  0.0175  0.0452  0.1998
19515SOL    HW168859   4.865   8.351   6.616 -0.9590 -0.1045 -0.2069
19515SOL    HW268860   4.989   8.268   6.592 -0.0630  0.9119  0.8206
19516SOL     OW68861   4.328  11.294   1.290  0.5675  0.8137 -0.4131
19516SOL    HW168862   4.262  11.267   1.355 -0.7996 -0.2999 -2.1778
19516SOL    HW268863   4.391  11.221   1.289  0.5775  0.8209 -0.3748
19517SOL     OW68864   1.208  10.884   7.817 -0.3845 -0.8897  0.2511
19517SOL    HW168865   1.283  10.846   7.771 -0.9057 -1.5571 -0.0602
19517SOL    HW268866   1.231  10.976   7.828  0.4350 -1.0624  0.0635
19518SOL     OW68867   4.664  10.543   3.356 -0.6313  0.8305  0.2046
19518SOL    HW168868   4.574  10.571   3.376 -1.3051 -1.5091  0.8694
19518SOL    HW268869   4.658  10.447   3.353  1.7165  0.6578 -0.5016
19519SOL     OW68870   0.795   1.890   2.523 -0.8144  0.7489  0.1271
19519SOL    HW168871   0.791   1.985   2.511  0.4751  1.2845  2.9646
19519SOL    HW268872   0.886   1.873   2.548 -1.3663 -1.0073  1.1192
19520SOL     OW68873   5.119   1.317   4.826 -0.2963  0.4667  0.7046
19520SOL    HW168874   5.210   1.300   4.852  0.6280  1.6024 -1.5506
19520SOL    HW268875   5.126   1.381   4.756 -2.9247  1.2660  1.0706
19521SOL     OW68876   7.382   7.977   9.247 -0.9180  0.2985 -0.3531
19521SOL    HW168877   7.405   7.894   9.287  0.7584  0.5081 -0.8010
19521SOL    HW268878   7.297   8.000   9.285 -1.2394 -1.4309  0.0274
19522SOL     OW68879   4.654   0.019   6.768  0.4110  0.2663 -0.1406
19522SOL    HW168880   4.600  -0.020   6.700  2.8553 -2.2929 -0.8606
19522SOL    HW268881   4.622  -0.020   6.850  0.4859 -0.4600 -0.4473
19523SOL     OW68882   8.464  12.324   8.883  0.5145 -0.5198  0.0023
19523SOL    HW168883   8.377  12.285   8.893 -0.3452  1.7309  2.0630
19523SOL    HW268884   8.518  12.278   8.947  0.8653 -1.7578 -1.1207
19524SOL     OW68885   1.068   7.827   4.392 -0.0699 -0.4435  0.1714
19524SOL    HW168886   1.110   7.882   4.457  1.2815 -0.6570 -0.4975
19524SOL    HW268887   1.009   7.886   4.345 -0.1776 -0.0368  0.8038
19525SOL     OW68888   5.974  10.439   3.081  0.3941 -0.0279  0.3380
19525SOL    HW168889   5.900  10.389   3.047  1.6104 -1.2180 -0.6492
19525SOL    HW268890   5.934  10.512   3.129 -1.3931  0.2577 -1.4762
19526SOL     OW68891   2.274   8.125   7.608  0.6423 -0.3502 -0.2010
19526SOL    HW168892   2.252   8.216   7.628 -0.1967 -1.0814  2.6136
19526SOL    HW268893   2.353   8.130   7.555 -1.5914  2.1091 -3.6903
19527SOL     OW68894   8.367  10.381   1.822 -0.5611  0.9067 -0.0946
19527SOL    HW168895   8.399  10.420   1.741  0.4810  0.0057 -0.1288
19527SOL    HW268896   8.288  10.333   1.796 -0.2173  0.5990 -0.5827
19528SOL     OW68897   7.228  12.431   7.490  0.1014 -0.0400  0.6975
19528SOL    HW168898   7.256  12.351   7.534  1.5200  0.1925  0.2461
19528SOL    HW268899   7.241  12.413   7.396  0.8208  0.8429  0.6134
19529SOL     OW68900   9.158   1.085   7.433 -0.1146 -0.4910  0.6477
19529SOL    HW168901   9.230   1.025   7.453  0.4479  0.1558  0.6026
19529SOL    HW268902   9.124   1.055   7.349  0.7985 -0.1755  0.1414
19530SOL     OW68903  12.439   2.656   3.827  0.2632 -0.2640 -0.2719
19530SOL    HW168904  12.440   2.613   3.741  0.4778  2.1658 -1.5853
19530SOL    HW268905  12.377   2.728   3.816  1.0216  0.6680  1.3158
19531SOL     OW68906  12.293   0.826   7.832  0.3408 -0.2983  0.0587
19531SOL    HW168907  12.216   0.805   7.779  1.1507 -2.1565 -0.4605
19531SOL    HW268908  12.275   0.786   7.918  0.3353  0.0655  0.2296
19532SOL     OW68909   8.201  10.711   8.904 -0.0899 -0.0934 -0.7451
19532SOL    HW168910   8.200  10.795   8.950  0.0060 -1.4354  1.9717
19532SOL    HW268911   8.235  10.650   8.969 -0.6392 -2.3320 -2.4471
19533SOL     OW68912   6.535   7.111   3.725 -0.0838 -0.1236  0.2236
19533SOL    HW168913   6.565   7.092   3.636 -0.2582 -3.0211  0.7023
19533SOL    HW268914   6.598   7.176   3.757  1.4720 -0.8511 -1.1867
19534SOL     OW68915   1.764   0.110   9.512  0.3291 -0.2241  0.1055
19534SOL    HW168916   1.747   0.072   9.598  0.2512 -1.7015 -0.5333
19534SOL    HW268917   1.734   0.044   9.450  0.8131  0.6140 -1.0675
19535SOL     OW68918   1.756   9.251   1.644  0.0815 -0.1937  0.2284
19535SOL    HW168919   1.679   9.212   1.685 -0.3583 -1.2180 -1.4510
19535SOL    HW268920   1.728   9.269   1.554  1.9785 -1.2156 -0.6301
19536SOL     OW68921   4.741  11.060   4.328 -0.4371  0.2886 -0.5995
19536SOL    HW168922   4.707  11.146   4.302  1.1377  0.4709 -2.2327
19536SOL    HW268923   4.835  11.073   4.338 -0.1975 -1.2080 -0.6794
19537SOL     OW68924  12.140   3.040   4.149  0.4643  0.0303 -0.0019
19537SOL    HW168925  12.177   3.116   4.194 -1.2849 -0.2157  1.9940
19537SOL    HW268926  12.069   3.075   4.096  0.2403 -0.1008  0.2102
19538SOL     OW68927  12.507  11.083   8.615 -0.1902  0.4734 -0.3163
19538SOL    HW168928  12.556  11.112   8.539  1.4219  1.0588  0.8808
19538SOL    HW268929  12.507  11.159   8.674 -1.5168  0.0902  0.2300
19539SOL     OW68930  11.926   0.974  11.681 -0.0698 -0.3400 -0.7805
19539SOL    HW168931  11.907   0.977  11.587  0.1267 -2.5664 -0.9307
19539SOL    HW268932  11.860   0.915  11.718 -0.1992  0.5746  0.5221
19540SOL     OW68933   7.693   3.431   7.977 -0.6929 -0.1446  0.3363
19540SOL    HW168934   7.601   3.419   8.000 -0.2104 -0.0345  2.4591
19540SOL    HW268935   7.719   3.349   7.935 -1.3526 -0.7749  1.1388
19541SOL     OW68936  12.796   2.491   3.092 -0.0659 -0.2886  0.5006
19541SOL    HW168937  12.832   2.527   3.173 -0.1938  1.0404 -0.0016
19541SOL    HW268938  12.871   2.450   3.048  0.4457  0.7748  0.3556
19542SOL     OW68939  12.610   4.210   2.599  0.3499  0.2048 -0.0612
19542SOL    HW168940  12.679   4.238   2.659  1.9813 -2.4866 -0.5727
19542SOL    HW268941  12.531   4.210   2.653  0.8822  2.2072  0.8306
19543SOL     OW68942  10.774   0.331  12.366 -0.3519 -0.2132  0.3717
19543SOL    HW168943  10.812   0.416  12.384  0.4183 -0.8250  1.7101
19543SOL    HW268944  10.721   0.345  12.287 -0.2439  1.4867  0.5699
19544SOL     OW68945  10.119  10.368   1.976 -0.1692  0.6149  0.4148
19544SOL    HW168946  10.128  10.345   2.068 -1.7159 -0.9569  0.2167
19544SOL    HW268947  10.163  10.297   1.929 -2.2914 -0.4136 -0.1226
19545SOL     OW68948   3.318   8.588   0.139 -0.1600 -0.3496  0.5110
19545SOL    HW168949   3.321   8.502   0.181  1.6357 -0.4976  0.1211
19545SOL    HW268950   3.273   8.644   0.203 -1.4551 -1.5767  0.7158
19546SOL     OW68951  11.909   8.691   7.372 -0.3401 -0.2972  0.5517
19546SOL    HW168952  11.830   8.641   7.350  2.0366 -3.9086 -0.7003
19546SOL    HW268953  11.959   8.633   7.429  1.1710  2.1495  1.8820
19547SOL     OW68954   6.278   2.942   4.624  0.3961  0.4539  0.2932
19547SOL    HW168955   6.338   3.017   4.624  0.7075  0.2893 -2.1285
19547SOL    HW268956   6.311   2.886   4.554 -0.5867 -1.3456  1.2247
19548SOL     OW68957   6.176   6.689   4.478  0.7708 -0.1453 -0.0111
19548SOL    HW168958   6.100   6.671   4.532  0.9533  2.8512  1.4269
19548SOL    HW268959   6.244   6.717   4.540  1.3839  2.2064 -1.5975
19549SOL     OW68960   6.912   3.311   4.459  0.0105  0.6337  0.0926
19549SOL    HW168961   6.840   3.254   4.488 -0.9334  2.1467  0.8761
19549SOL    HW268962   6.957   3.261   4.391 -2.0784 -0.2002 -0.7635
19550SOL     OW68963   0.076  11.723   5.576 -0.2261 -0.4208 -0.1582
19550SOL    HW168964   0.070  11.709   5.482 -0.7703 -2.4062  0.1184
19550SOL    HW268965   0.170  11.727   5.594 -0.1057 -0.7020 -0.7077
19551SOL     OW68966   2.398   0.659  11.812  0.1783 -0.3562 -0.0596
19551SOL    HW168967   2.358   0.717  11.748  1.3810  2.7817  1.8185
19551SOL    HW268968   2.468   0.615  11.764  0.9307  1.7443 -0.9914
19552SOL     OW68969   5.574   0.272   7.110  0.1928 -0.2249 -0.4518
19552SOL    HW168970   5.592   0.324   7.032  0.6910 -1.1028 -0.9508
19552SOL    HW268971   5.661   0.255   7.147  0.0590 -0.7894 -0.3807
19553SOL     OW68972   5.395  10.786  10.453  0.2924  0.6960  0.7031
19553SOL    HW168973   5.344  10.732  10.513  0.7845  0.3192  0.7825
19553SOL    HW268974   5.330  10.823  10.394  0.0778 -1.0534 -0.2177
19554SOL     OW68975   7.541   1.006   9.000 -0.2378  0.1566 -0.1020
19554SOL    HW168976   7.555   0.956   8.919  2.6798  0.4837  0.0910
19554SOL    HW268977   7.567   1.095   8.977 -1.5594  0.7474  0.6304
19555SOL     OW68978   7.859   6.538   6.936 -0.2963 -0.4736  0.0519
19555SOL    HW168979   7.844   6.566   7.026  0.6862  0.6838 -0.1258
19555SOL    HW268980   7.954   6.530   6.929 -0.3760 -0.7173 -0.8374
19556SOL     OW68981   1.616   3.467   2.686 -0.4938  0.0937 -0.8810
19556SOL    HW168982   1.574   3.407   2.747 -0.5195  0.7603 -0.2268
19556SOL    HW268983   1.671   3.411   2.631 -0.6372 -0.5381 -0.3898
19557SOL     OW68984  11.215   3.329   2.922  0.4343  0.1900 -0.2793
19557SOL    HW168985  11.134   3.370   2.951  0.6266  0.8250 -0.6088
19557SOL    HW268986  11.250   3.390   2.857  0.3039 -0.9026 -1.4176
19558SOL     OW68987  12.364  11.385   7.964  0.2025  0.3790  0.0086
19558SOL    HW168988  12.392  11.464   8.009 -0.3668  0.5012  0.1572
19558SOL    HW268989  12.284  11.410   7.919 -0.0234 -0.1290  0.1170
19559SOL     OW68990   7.956  10.003  12.210 -0.1795 -0.1000  0.3340
19559SOL    HW168991   7.890   9.940  12.238  0.4795 -0.8839  0.1760
19559SOL    HW268992   7.929  10.030  12.123  0.4398 -1.5018 -0.3277
19560SOL     OW68993   6.639  11.392  11.819  0.2093 -0.1272 -0.6564
19560SOL    HW168994   6.719  11.394  11.871 -1.0252  1.3704  1.3033
19560SOL    HW268995   6.632  11.301  11.790  2.4176 -0.3680 -0.6474
19561SOL     OW68996   2.671   7.159  10.108 -0.4249 -0.2232 -0.4369
19561SOL    HW168997   2.699   7.248  10.091 -0.8171 -0.4280 -2.4590
19561SOL    HW268998   2.681   7.147  10.202  1.1874  1.3974 -0.3686
19562SOL     OW68999   8.645  11.990  11.571 -0.1179 -0.4871 -0.3630
19562SOL    HW169000   8.692  12.054  11.624  0.8004  0.5080 -2.2824
19562SOL    HW269001   8.707  11.918  11.559  0.3368  0.0685 -1.4864
19563SOL     OW69002   6.100  11.041   3.563 -0.6189  0.1824  0.1016
19563SOL    HW169003   6.154  11.116   3.586  0.4132 -0.9761  1.6283
19563SOL    HW269004   6.122  11.023   3.471 -0.8018  1.6209 -0.2542
19564SOL     OW69005  12.136   4.414   6.781 -0.0423 -0.2961  0.8206
19564SOL    HW169006  12.138   4.509   6.775  0.4651 -0.3802 -0.9506
19564SOL    HW269007  12.050   4.390   6.745  0.9948 -0.5862 -1.7326
19565SOL     OW69008   0.267   0.975   3.646  0.2251  1.0268 -0.4882
19565SOL    HW169009   0.314   1.053   3.675 -0.3791  1.4860 -0.7366
19565SOL    HW269010   0.237   0.933   3.726  0.0043  1.3877 -0.3845
19566SOL     OW69011  10.094   2.859   8.816  0.0816  0.1779  0.5540
19566SOL    HW169012  10.054   2.903   8.891  0.1249 -1.0750  1.3406
19566SOL    HW269013  10.074   2.766   8.829 -0.3453 -0.0154 -1.2624
19567SOL     OW69014   2.774  10.166   4.349 -0.3253  0.0596  0.4724
19567SOL    HW169015   2.705  10.198   4.291  0.5132 -0.0058 -0.5848
19567SOL    HW269016   2.851  10.161   4.294  0.8415  1.2786  1.9067
19568SOL     OW69017  10.914   1.180   1.546  0.4050 -0.2336 -0.2371
19568SOL    HW169018  10.936   1.200   1.455 -0.3484  2.9633  0.1860
19568SOL    HW269019  10.987   1.217   1.596  0.3623 -1.1720  0.5294
19569SOL     OW69020  11.417   3.010  10.063 -0.2672 -0.1963 -0.1921
19569SOL    HW169021  11.375   3.060   9.992  0.1423 -1.5381 -1.4325
19569SOL    HW269022  11.384   2.921  10.052  0.4298 -0.5915  0.8274
19570SOL     OW69023  12.524   9.013   5.691 -0.2848  0.4460  0.5246
19570SOL    HW169024  12.543   9.106   5.684 -1.6152  0.7794  1.0297
19570SOL    HW269025  12.482   8.990   5.608  2.5008 -0.3828 -0.7588
19571SOL     OW69026   0.071   4.420   5.455 -0.3472  0.6841 -0.0387
19571SOL    HW169027   0.154   4.423   5.501 -0.3686 -1.7129  0.2727
19571SOL    HW269028   0.046   4.327   5.455 -1.0871  0.7338 -3.5628
19572SOL     OW69029   5.375   8.995  10.963  0.4057  0.3361 -0.1343
19572SOL    HW169030   5.282   9.004  10.985  0.4078 -0.0214  0.0388
19572SOL    HW269031   5.379   8.914  10.912  0.6214  0.3469 -0.1320
19573SOL     OW69032  10.926  12.890   0.411 -0.4364 -0.0047 -0.1195
19573SOL    HW169033  10.842  12.845   0.401 -0.7280  0.6300 -0.5900
19573SOL    HW269034  10.918  12.938   0.493 -0.0678 -0.9085  0.4641
19574SOL     OW69035  10.483  12.638   6.627  0.0212  0.1308  0.2889
19574SOL    HW169036  10.531  12.632   6.544 -0.5478  0.0945 -0.0436
19574SOL    HW269037  10.398  12.600   6.608 -0.2744  0.5400  0.7693
19575SOL     OW69038   3.037   1.446  12.615 -0.3308 -0.5268  0.6668
19575SOL    HW169039   3.041   1.415  12.705 -1.5428  0.3313  1.0417
19575SOL    HW269040   2.958   1.500  12.611  0.9870  1.4735 -0.2455
19576SOL     OW69041   2.240   3.489   3.387  0.4579  0.3217 -0.0558
19576SOL    HW169042   2.318   3.543   3.394  0.1021  0.7178  1.0595
19576SOL    HW269043   2.183   3.536   3.326  0.7684  0.4264 -0.2657
19577SOL     OW69044   8.226   2.538   0.347 -0.0285 -0.4166  0.2588
19577SOL    HW169045   8.144   2.492   0.324 -0.0895  0.2574 -0.9332
19577SOL    HW269046   8.283   2.469   0.380 -0.4602 -1.2179 -0.6003
19578SOL     OW69047  10.581   2.116   2.026 -0.1345  0.3488 -0.3468
19578SOL    HW169048  10.493   2.085   2.006 -0.1677  0.6054 -0.6029
19578SOL    HW269049  10.573   2.211   2.030 -0.4539  0.2972  2.4288
19579SOL     OW69050   6.455   1.267   8.369 -0.3292 -0.2360  0.3114
19579SOL    HW169051   6.513   1.327   8.416  0.1327  0.1652 -0.7469
19579SOL    HW269052   6.483   1.180   8.398 -1.0698  0.0258  1.9293
19580SOL     OW69053   3.808   4.667   0.342 -0.1529  0.4201  0.4174
19580SOL    HW169054   3.791   4.705   0.256  0.0233  1.4476  0.8325
19580SOL    HW269055   3.723   4.634   0.371 -0.3598  0.7253  0.1667
19581SOL     OW69056   8.295   7.706   2.734 -0.2446  0.1110  0.0113
19581SOL    HW169057   8.317   7.642   2.666  0.8777 -1.3024  1.6109
19581SOL    HW269058   8.202   7.692   2.751  0.1684 -1.8038  0.9684
19582SOL     OW69059   7.182   1.809  11.317 -0.1161 -0.0267 -0.0932
19582SOL    HW169060   7.173   1.720  11.352 -0.1405 -0.2806 -0.7250
19582SOL    HW269061   7.273   1.832  11.333  0.2163 -0.6529 -1.0310
19583SOL     OW69062   6.783   1.529   4.439 -0.5916 -0.2976  0.0002
19583SOL    HW169063   6.862   1.478   4.455  0.4468  1.0140 -0.8361
19583SOL    HW269064   6.749   1.495   4.356 -0.5747 -0.4472  0.0544
19584SOL     OW69065   3.186   8.980  10.864 -0.0631 -0.0786  0.1631
19584SOL    HW169066   3.282   8.973  10.863 -0.0115  0.6088  0.1096
19584SOL    HW269067   3.163   9.016  10.779 -0.3125  0.4185  0.4357
19585SOL     OW69068   6.617   2.596   9.282 -0.1896  0.0148 -0.4018
19585SOL    HW169069   6.699   2.610   9.236  0.9125 -1.8719  0.8738
19585SOL    HW269070   6.565   2.542   9.223  1.3907 -2.7751  0.5831
19586SOL     OW69071   3.150   1.237   6.032 -0.2683  0.0067 -0.0705
19586SOL    HW169072   3.113   1.188   6.105  0.3534  1.2865  1.1476
19586SOL    HW269073   3.212   1.176   5.992 -1.4888 -1.1204 -0.3093
19587SOL     OW69074   0.157   7.840   8.943  0.3301 -0.3012  0.2748
19587SOL    HW169075   0.228   7.776   8.942  1.3600  0.7916 -0.8899
19587SOL    HW269076   0.157   7.876   8.854 -1.1839  0.2806  0.4842
19588SOL     OW69077   3.605   1.066   1.171 -0.7298 -0.5061 -0.1520
19588SOL    HW169078   3.668   1.112   1.115 -1.5730 -0.2369 -0.8960
19588SOL    HW269079   3.575   0.993   1.117  1.1718 -2.4875  1.2687
19589SOL     OW69080   7.876   3.814   7.243 -0.1001  0.5701 -0.2620
19589SOL    HW169081   7.816   3.833   7.170  0.3701  1.2440 -0.4865
19589SOL    HW269082   7.941   3.884   7.238 -0.1669  0.7243  0.9303
19590SOL     OW69083  12.478   4.298   3.447 -0.2476  0.0940 -0.2800
19590SOL    HW169084  12.426   4.219   3.431 -1.0230  0.2489  1.2615
19590SOL    HW269085  12.422   4.353   3.502  0.8382  1.0941 -0.1272
19591SOL     OW69086   4.658  10.444   7.488 -0.3193 -0.3020  0.6487
19591SOL    HW169087   4.651  10.357   7.447  0.3169 -0.3008  0.5327
19591SOL    HW269088   4.614  10.503   7.426  1.2665 -0.1813 -0.4293
19592SOL     OW69089   5.172   6.997   2.063 -0.1224 -0.3107 -0.3527
19592SOL    HW169090   5.095   6.940   2.071  0.1600 -0.6150  0.2439
19592SOL    HW269091   5.140   7.074   2.017 -0.7678 -0.4655 -0.1731
19593SOL     OW69092   2.297   8.040   6.904  0.0020  0.6374  0.3295
19593SOL    HW169093   2.302   7.985   6.982 -0.9120  0.4082  0.2312
19593SOL    HW269094   2.297   7.978   6.831 -0.3688  0.7988  0.1933
19594SOL     OW69095  10.299  12.673   2.679 -0.2396  0.0639 -0.3218
19594SOL    HW169096  10.335  12.638   2.761 -1.3625 -0.6416 -0.1095
19594SOL    HW269097  10.239  12.741   2.708  0.9142  1.2729 -0.6768
19595SOL     OW69098  12.387  12.641   5.337  0.2666 -0.0366  0.0039
19595SOL    HW169099  12.422  12.662   5.250  0.3290 -0.4032 -0.0616
19595SOL    HW269100  12.378  12.546   5.337  0.1116 -0.0245  0.3429
19596SOL     OW69101   3.159   7.235   6.615 -0.4917  0.5037 -0.0545
19596SOL    HW169102   3.154   7.295   6.541  2.2957  2.0042  0.8285
19596SOL    HW269103   3.158   7.292   6.692 -1.0777 -0.8408  0.9749
19597SOL     OW69104   9.768   3.130   1.454  0.0969 -0.3256 -0.0120
19597SOL    HW169105   9.766   3.202   1.391  0.4136  1.1991  1.6375
19597SOL    HW269106   9.745   3.171   1.538 -2.3535 -2.6387  0.5876
19598SOL     OW69107   9.980   9.666   9.273 -0.3258 -0.2046 -0.2866
19598SOL    HW169108  10.074   9.682   9.265 -0.5562  0.4536 -2.0847
19598SOL    HW269109   9.939   9.746   9.241 -1.6005  0.8412  3.4278
19599SOL     OW69110   0.666   5.082   2.244  0.1745  0.0577  0.1444
19599SOL    HW169111   0.644   5.175   2.244  0.2406  0.1136 -1.5914
19599SOL    HW269112   0.731   5.073   2.175 -2.4090 -1.7893 -2.2947
19600SOL     OW69113   4.195   9.581   5.268  0.0648 -0.1989  0.2494
19600SOL    HW169114   4.175   9.670   5.238 -0.3306 -1.1315 -2.5716
19600SOL    HW269115   4.152   9.524   5.204  2.6660 -2.3990  0.2871
19601SOL     OW69116   0.286   8.777  12.703  0.3012 -0.0501  0.2882
19601SOL    HW169117   0.376   8.795  12.674  0.4132 -0.6749  0.2412
19601SOL    HW269118   0.270   8.843  12.771  0.4915  0.6050 -0.2821
19602SOL     OW69119   1.956   6.678  12.147  0.0677  0.8085  0.8342
19602SOL    HW169120   2.006   6.756  12.172  0.5126  0.5118  0.8916
19602SOL    HW269121   1.869   6.711  12.127 -0.4359  1.0457  3.1027
19603SOL     OW69122  12.365   9.778  12.911  0.0514  0.1483  0.1606
19603SOL    HW169123  12.386   9.692  12.875 -0.9733 -0.1785  0.3115
19603SOL    HW269124  12.392   9.839  12.843  1.3156 -0.2373  0.2829
19604SOL     OW69125  10.347   0.751   4.573  0.3312  0.2887  0.0746
19604SOL    HW169126  10.275   0.760   4.511  0.9186  1.5545 -0.4581
19604SOL    HW269127  10.313   0.693   4.641 -0.3115 -1.1846 -1.4387
19605SOL     OW69128   1.856   8.487   5.228  0.4390 -0.0608  0.3611
19605SOL    HW169129   1.887   8.521   5.311 -0.3590 -0.5235  0.8622
19605SOL    HW269130   1.773   8.445   5.249  0.2336 -0.1931 -0.6672
19606SOL     OW69131   7.557  11.030  12.477  0.1885 -0.3589  0.8855
19606SOL    HW169132   7.588  11.121  12.480  1.4040 -0.6782 -0.6987
19606SOL    HW269133   7.471  11.036  12.436 -0.4335  0.2210  2.2449
19607SOL     OW69134   5.017   9.200   5.137 -0.1530  0.1244 -0.5954
19607SOL    HW169135   4.934   9.246   5.140 -0.1193  0.1112  1.1440
19607SOL    HW269136   4.998   9.112   5.170  0.3230 -0.2719 -1.3268
19608SOL     OW69137   8.531   0.564  10.577  0.5585  0.4423  0.3974
19608SOL    HW169138   8.538   0.660  10.573  2.0424  0.3306 -0.2790
19608SOL    HW269139   8.566   0.534  10.493 -1.6864 -0.6469 -0.2231
19609SOL     OW69140  11.429   9.760  11.416  0.3150  0.0394 -0.1254
19609SOL    HW169141  11.350   9.813  11.429  1.1970  1.2889  0.3756
19609SOL    HW269142  11.498   9.809  11.461  1.3023 -1.2300 -0.2052
19610SOL     OW69143  11.169   7.969   5.992  0.3012 -0.2180  0.3940
19610SOL    HW169144  11.120   7.975   6.075  2.3113 -0.1048  1.6314
19610SOL    HW269145  11.152   8.052   5.948 -3.3138 -1.4332 -0.8992
19611SOL     OW69146  11.686   0.128   5.906 -0.3339 -0.0596 -0.3784
19611SOL    HW169147  11.749   0.195   5.932 -0.7013 -0.0881  0.6152
19611SOL    HW269148  11.623   0.175   5.851 -1.2760  0.7140  1.3043
19612SOL     OW69149  12.759   3.711   0.514  0.1222  0.2346 -0.0424
19612SOL    HW169150  12.709   3.724   0.433 -2.6581 -2.5960  1.0547
19612SOL    HW269151  12.720   3.772   0.576  1.5103  1.5871 -0.4091
19613SOL     OW69152   4.815  10.363   5.389  0.6622 -0.1361 -0.0657
19613SOL    HW169153   4.829  10.317   5.306 -0.8676 -0.7069 -0.0404
19613SOL    HW269154   4.894  10.344   5.440  0.8627 -1.2392 -0.7412
19614SOL     OW69155  11.658   3.714  12.713 -0.3146  0.1460  0.1664
19614SOL    HW169156  11.578   3.684  12.755 -0.7971  2.1000  0.7792
19614SOL    HW269157  11.716   3.738  12.786 -0.4879  1.9093 -0.2227
19615SOL     OW69158   3.680  12.416   7.594 -0.7577  0.4260 -0.0861
19615SOL    HW169159   3.707  12.427   7.685 -1.3297  1.7143 -0.0471
19615SOL    HW269160   3.719  12.333   7.567 -1.9644 -0.8283  1.8330
19616SOL     OW69161   9.783   1.647   8.379  0.8909 -0.7330 -0.4653
19616SOL    HW169162   9.775   1.662   8.473  0.1550  0.4061 -0.6926
19616SOL    HW269163   9.834   1.722   8.346 -0.9224  0.2039 -1.2987
19617SOL     OW69164  12.882  11.019   2.444  0.3238  0.3192  0.3687
19617SOL    HW169165  12.814  10.987   2.384  1.2193  0.2806 -0.6471
19617SOL    HW269166  12.941  10.945   2.455  0.9919  0.8120  0.0967
19618SOL     OW69167   5.337   4.169   1.220  0.3453  0.2033  0.2111
19618SOL    HW169168   5.411   4.131   1.173  0.0914 -0.9057  0.6904
19618SOL    HW269169   5.300   4.232   1.158  0.6648 -0.4490 -0.6714
19619SOL     OW69170   5.760   7.507   7.882  0.6983 -0.0147 -0.6537
19619SOL    HW169171   5.830   7.466   7.831  1.2025 -0.2386  0.2027
19619SOL    HW269172   5.769   7.600   7.863  0.9523 -0.0809 -0.8795
19620SOL     OW69173   8.844   9.899  10.353  0.1930 -0.4976  0.5332
19620SOL    HW169174   8.767   9.951  10.376  0.9188  0.5714  0.6210
19620SOL    HW269175   8.861   9.845  10.429 -0.6313 -0.9530  0.4068
19621SOL     OW69176  11.778   1.427   2.819 -0.3397 -0.0163  0.3641
19621SOL    HW169177  11.738   1.433   2.905 -1.4578  0.2025 -0.1551
19621SOL    HW269178  11.717   1.471   2.760  0.1505 -0.6090 -0.6329
19622SOL     OW69179  11.400   5.891   5.436  0.6503 -0.0800  0.4180
19622SOL    HW169180  11.309   5.920   5.441  0.1541 -1.3276 -0.9148
19622SOL    HW269181  11.411   5.833   5.511 -0.3590 -1.7442 -0.6795
19623SOL     OW69182   9.999  10.013   1.016 -0.3016  0.4511  0.4029
19623SOL    HW169183  10.078   9.985   1.062  0.5155  0.5144 -0.9239
19623SOL    HW269184  10.029  10.077   0.953 -1.4992  0.8602  0.2258
19624SOL     OW69185   9.784   2.454   3.486 -0.1600 -0.1135 -0.6195
19624SOL    HW169186   9.863   2.400   3.485 -0.8295 -1.1436 -0.2331
19624SOL    HW269187   9.720   2.402   3.535 -1.1490  0.5938 -1.1140
19625SOL     OW69188   3.829   5.063   2.699  0.2940  0.0663  0.7257
19625SOL    HW169189   3.800   5.007   2.771  0.1329 -1.1135 -0.2408
19625SOL    HW269190   3.747   5.093   2.658  0.4043 -0.1015  0.3891
19626SOL     OW69191   4.603   1.838   5.288  0.1629 -0.1714  0.2015
19626SOL    HW169192   4.514   1.813   5.261 -0.5157  0.3675  1.7936
19626SOL    HW269193   4.659   1.811   5.215 -1.2126 -1.2046 -0.5197
19627SOL     OW69194   4.082   6.574   2.575 -0.4600 -0.1094 -0.4012
19627SOL    HW169195   3.994   6.591   2.609 -1.4192 -1.4134 -2.0465
19627SOL    HW269196   4.119   6.660   2.560 -1.7033  0.4812 -0.2466
19628SOL     OW69197   4.800  11.613   4.604  0.1862  0.5242  0.1103
19628SOL    HW169198   4.819  11.522   4.579 -0.0600  0.4263  0.2774
19628SOL    HW269199   4.725  11.606   4.664  1.6950  0.5966  2.1196
19629SOL     OW69200  11.236   8.965   3.111 -0.0845 -0.0630  0.0760
19629SOL    HW169201  11.164   8.936   3.056 -0.2477 -0.8633  0.6935
19629SOL    HW269202  11.252   8.892   3.171  1.4850 -0.0539 -0.2835
19630SOL     OW69203  11.285   4.642   4.691  0.2905 -0.0661 -0.1806
19630SOL    HW169204  11.262   4.549   4.689  1.2858 -0.3138 -1.1558
19630SOL    HW269205  11.213   4.683   4.739 -0.4266 -1.2639 -0.1797
19631SOL     OW69206  10.051   7.430   8.698 -0.5325 -0.0755  0.2110
19631SOL    HW169207  10.142   7.400   8.698 -0.6473 -0.4206  0.5086
19631SOL    HW269208  10.000   7.354   8.668 -0.4799  0.8743 -2.5972
19632SOL     OW69209   9.694   1.732   9.952 -0.1461 -0.1220  0.2173
19632SOL    HW169210   9.752   1.756   9.879  0.9706 -2.1024  0.3680
19632SOL    HW269211   9.641   1.660   9.918  0.4485 -1.1321  1.3383
19633SOL     OW69212   2.608  11.609   3.369 -0.3541 -0.0472 -0.1440
19633SOL    HW169213   2.649  11.696   3.368  0.3501 -0.3699 -0.0753
19633SOL    HW269214   2.581  11.595   3.278 -0.8944  0.4368 -0.0609
19634SOL     OW69215   0.883   6.377   3.814  0.0788  0.3858 -0.8525
19634SOL    HW169216   0.917   6.303   3.762  3.1239 -0.8500  2.4406
19634SOL    HW269217   0.822   6.336   3.875  0.3530  0.9088 -0.2281
19635SOL     OW69218   3.202   3.138   9.776 -0.6421 -0.4773 -0.0762
19635SOL    HW169219   3.175   3.047   9.766 -1.3563 -0.2786 -0.0247
19635SOL    HW269220   3.218   3.148   9.870 -0.8257 -0.4808 -0.0438
19636SOL     OW69221  10.979  11.888   3.372 -0.0646  0.1469  0.2235
19636SOL    HW169222  11.074  11.882   3.360  0.2046 -0.5196  2.2871
19636SOL    HW269223  10.958  11.816   3.432 -1.8474  0.4466  0.0083
19637SOL     OW69224   2.962   9.645   0.804  0.0699  0.6215  0.4411
19637SOL    HW169225   2.920   9.601   0.878  1.0031  0.3890  0.8399
19637SOL    HW269226   2.927   9.734   0.807 -2.0424 -0.1116 -0.5460
19638SOL     OW69227  12.143  12.572   2.347  0.1314  0.0236 -0.0720
19638SOL    HW169228  12.226  12.618   2.337 -0.2058  0.5060 -0.7399
19638SOL    HW269229  12.119  12.587   2.439 -0.2916  1.7756 -0.4287
19639SOL     OW69230   6.749   6.228   7.684  0.0704  0.5567 -0.6282
19639SOL    HW169231   6.700   6.287   7.742  0.7022 -0.9980  1.6503
19639SOL    HW269232   6.835   6.268   7.677  0.4837  0.0170  0.8703
19640SOL     OW69233   3.200  10.458   8.155  0.0790  0.1023  0.6222
19640SOL    HW169234   3.259  10.507   8.212  0.1535  0.1544  0.5018
19640SOL    HW269235   3.207  10.367   8.184  0.2943  0.0927  0.5445
19641SOL     OW69236   4.401   0.165   3.372 -0.5129  1.0467 -0.2691
19641SOL    HW169237   4.487   0.127   3.392 -1.5508  0.2797  3.5764
19641SOL    HW269238   4.338   0.099   3.399 -2.3664  2.2353 -1.4420
19642SOL     OW69239   9.200   5.775   3.518  0.6980  0.2103  0.0479
19642SOL    HW169240   9.148   5.854   3.534  1.1689  0.5287  0.0128
19642SOL    HW269241   9.291   5.805   3.521  0.8531  0.1280 -2.2933
19643SOL     OW69242   4.566   4.687   7.771  0.2889  0.1320  0.0476
19643SOL    HW169243   4.598   4.732   7.693  1.0696 -1.1936 -0.4344
19643SOL    HW269244   4.569   4.594   7.748 -1.9551 -0.1764  0.7400
19644SOL     OW69245   7.938   2.481   5.553 -0.3080 -0.3194 -0.8930
19644SOL    HW169246   8.020   2.518   5.519 -0.6567  2.7960  1.1830
19644SOL    HW269247   7.954   2.468   5.647 -2.1182  0.3670 -0.4319
19645SOL     OW69248  10.140   7.758  10.392  0.4717  0.1454  0.3559
19645SOL    HW169249  10.124   7.786  10.482  0.0543 -0.5589  0.5087
19645SOL    HW269250  10.223   7.800  10.368 -0.0573  1.3685  0.6212
19646SOL     OW69251   5.131   1.107  10.109  0.4146 -0.0226 -0.4170
19646SOL    HW169252   5.095   1.023  10.082  2.4571 -1.0048 -0.2178
19646SOL    HW269253   5.180   1.138  10.033  0.3951  0.5816 -0.1907
19647SOL     OW69254  10.724   6.479   0.015  0.2323 -0.3260 -0.6508
19647SOL    HW169255  10.740   6.541   0.087 -1.2123 -1.1051  0.3861
19647SOL    HW269256  10.642   6.508  -0.024 -1.0518 -2.1740  0.5526
19648SOL     OW69257  12.046   5.653   9.404 -0.3095 -0.1387  0.1324
19648SOL    HW169258  12.133   5.617   9.384 -0.3691 -0.3424  0.2402
19648SOL    HW269259  12.065   5.729   9.460 -0.2159 -0.3507  0.3874
19649SOL     OW69260  10.013   9.484   3.350 -0.0225 -0.3911  0.3827
19649SOL    HW169261   9.952   9.492   3.424  0.8879  0.6749  1.0500
19649SOL    HW269262  10.089   9.440   3.386  0.9198  1.1925  0.4350
19650SOL     OW69263   8.047  10.882   5.356 -0.2309 -0.0900 -0.4106
19650SOL    HW169264   8.114  10.837   5.408 -1.1233 -0.4955  0.4247
19650SOL    HW269265   8.095  10.919   5.282  0.9479 -0.1691  0.2893
19651SOL     OW69266  10.220  10.492  11.057 -0.2744 -0.2899 -0.0186
19651SOL    HW169267  10.279  10.566  11.073 -1.1523  0.5759 -0.6975
19651SOL    HW269268  10.161  10.492  11.133 -0.0569 -0.5201  0.1538
19652SOL     OW69269   5.628   8.281   1.565  0.4046 -0.7693  0.8445
19652SOL    HW169270   5.632   8.376   1.550 -2.0273 -0.6257  0.8393
19652SOL    HW269271   5.576   8.271   1.645 -3.4181 -2.1582 -1.5469
19653SOL     OW69272   3.802   9.646   7.438 -0.1281 -0.4877  0.0669
19653SOL    HW169273   3.852   9.579   7.391  1.7014 -0.7396  2.1955
19653SOL    HW269274   3.853   9.726   7.427  0.1235 -0.4699  1.2382
19654SOL     OW69275   7.719   9.181   3.875 -0.2891  0.1542  0.1603
19654SOL    HW169276   7.782   9.252   3.889 -0.0506 -0.2554  1.2351
19654SOL    HW269277   7.698   9.186   3.781  2.7784 -0.8782 -0.6876
19655SOL     OW69278   7.698   7.441   5.747 -0.8015  0.1605 -0.5869
19655SOL    HW169279   7.729   7.391   5.672 -1.6729  0.9774 -1.5206
19655SOL    HW269280   7.642   7.379   5.795 -0.6237 -0.2215 -0.8645
19656SOL     OW69281   1.693   5.544   5.252 -0.0759 -0.6766 -0.3378
19656SOL    HW169282   1.706   5.630   5.292 -0.5502 -1.0057  0.5721
19656SOL    HW269283   1.753   5.542   5.178  0.2573  0.2716 -0.1078
19657SOL     OW69284   4.325  12.898   6.855 -0.1845  0.5672 -0.4731
19657SOL    HW169285   4.378  12.878   6.932  0.2060  2.1396 -0.2914
19657SOL    HW269286   4.317  12.815   6.808 -0.4491 -0.4336  1.2610
19658SOL     OW69287   8.528   0.378   6.130  0.2381  0.2092  0.1683
19658SOL    HW169288   8.622   0.361   6.142  0.1463 -0.3135  0.1754
19658SOL    HW269289   8.488   0.351   6.212 -0.0602 -0.7395 -0.2838
19659SOL     OW69290   4.538   5.424   8.956 -0.3708 -0.4127  0.0971
19659SOL    HW169291   4.493   5.390   9.034 -3.2337  2.0187 -0.3395
19659SOL    HW269292   4.493   5.506   8.936  1.0715 -0.3260 -3.4500
19660SOL     OW69293   2.531   9.055   9.994 -0.5157 -0.4088 -0.1402
19660SOL    HW169294   2.547   9.093   9.908  0.7502  0.9045  0.6406
19660SOL    HW269295   2.607   9.000  10.010  0.0579  0.6260  0.7985
19661SOL     OW69296  11.384   7.372   5.919  0.1839 -0.5941  0.0277
19661SOL    HW169297  11.385   7.288   5.872 -0.7706  0.4375 -1.9947
19661SOL    HW269298  11.428   7.433   5.859  1.4288  0.2491  1.7341
19662SOL     OW69299   1.408   8.125  10.629  0.5624 -0.0944 -0.1545
19662SOL    HW169300   1.354   8.172  10.693  1.2391 -0.1059  0.4309
19662SOL    HW269301   1.465   8.193  10.592 -0.2884  0.0513 -1.2619
19663SOL     OW69302   9.657  11.963  10.363  0.5986  0.5382 -0.0054
19663SOL    HW169303   9.690  11.966  10.273 -1.0160  1.5531 -0.5912
19663SOL    HW269304   9.709  12.029  10.410  1.0536  0.4063 -0.3184
19664SOL     OW69305   3.794   1.117   6.929 -0.1003 -0.2843  0.2084
19664SOL    HW169306   3.787   1.048   6.864 -0.8742 -0.4694  0.4725
19664SOL    HW269307   3.856   1.180   6.891  1.0841 -1.4073  0.2409
19665SOL     OW69308   4.699   4.431   0.054  0.0360  0.1167  0.2004
19665SOL    HW169309   4.670   4.490  -0.015 -2.9014 -0.4145  0.8673
19665SOL    HW269310   4.687   4.480   0.135 -0.9655 -0.8195  0.6408
19666SOL     OW69311   3.375   2.731   2.239 -0.1066  0.0335 -0.3793
19666SOL    HW169312   3.464   2.766   2.242  0.0648 -0.3324 -1.0053
19666SOL    HW269313   3.335   2.775   2.164 -0.9395  1.2915  0.7597
19667SOL     OW69314   5.125   2.783  11.191  0.6726  0.0023  0.3673
19667SOL    HW169315   5.168   2.725  11.254  0.1224 -0.1857  0.5730
19667SOL    HW269316   5.183   2.860  11.185 -0.6503  1.3875  3.3191
19668SOL     OW69317   2.614   2.872   3.462  0.4224 -0.1981  0.0041
19668SOL    HW169318   2.611   2.824   3.379 -0.1210 -0.7117  0.3092
19668SOL    HW269319   2.705   2.866   3.489  0.4915 -0.5178 -0.2852
19669SOL     OW69320   8.799   9.334   7.813 -0.0429 -0.7232 -0.3255
19669SOL    HW169321   8.863   9.399   7.844 -1.1974  0.2308  0.1731
19669SOL    HW269322   8.799   9.344   7.718 -0.5759  0.4168 -0.2270
19670SOL     OW69323   8.640   3.286   9.165  0.9447 -0.0623 -0.1489
19670SOL    HW169324   8.560   3.237   9.144  1.0209 -0.1258 -0.2962
19670SOL    HW269325   8.644   3.287   9.261  0.9409 -0.3465 -0.1441
19671SOL     OW69326   1.072   3.500   2.940 -0.4516  0.2049 -0.1603
19671SOL    HW169327   1.039   3.590   2.934 -1.9331 -0.3273 -0.4012
19671SOL    HW269328   1.017   3.459   3.006  0.7363 -0.3241  0.5207
19672SOL     OW69329  11.481   2.151   9.983 -0.5882  0.1895  0.2830
19672SOL    HW169330  11.485   2.117  10.073 -0.9338 -0.4231  0.0754
19672SOL    HW269331  11.557   2.113   9.939 -0.0105  1.0752  0.5064
19673SOL     OW69332   4.044   7.226   4.727 -0.2854  0.3596 -0.8036
19673SOL    HW169333   4.078   7.283   4.658 -1.2732  2.7570  0.5564
19673SOL    HW269334   4.087   7.257   4.806 -0.4775 -1.1809 -0.0686
19674SOL     OW69335   8.534   8.491   0.543  0.1325  0.1227 -0.2568
19674SOL    HW169336   8.615   8.519   0.499 -0.1618  0.8052 -0.3765
19674SOL    HW269337   8.489   8.573   0.564 -0.8033 -0.2660 -0.7082
19675SOL     OW69338   0.289   2.181   6.116 -0.4376  0.1831 -0.4921
19675SOL    HW169339   0.368   2.138   6.149 -1.0342 -0.7557 -0.2374
19675SOL    HW269340   0.283   2.262   6.167 -0.8010 -0.7672  1.0515
19676SOL     OW69341   3.584  12.979   8.573 -0.4739  0.1733  0.2026
19676SOL    HW169342   3.594  13.008   8.482  0.1589  1.0909  0.5545
19676SOL    HW269343   3.498  13.010   8.600 -0.8333 -0.4433 -0.1910
19677SOL     OW69344  11.055   4.609   9.296  0.2561 -0.1744  0.2270
19677SOL    HW169345  11.076   4.666   9.369  1.5530  0.8422 -0.8927
19677SOL    HW269346  11.015   4.532   9.337 -2.1778  1.7594  1.7166
19678SOL     OW69347  10.257  10.869   9.761 -0.1057 -0.1838  0.5647
19678SOL    HW169348  10.240  10.941   9.701  0.5205 -0.5569 -0.0843
19678SOL    HW269349  10.322  10.903   9.822  1.3811 -0.6352 -0.6798
19679SOL     OW69350   7.641   7.879   6.375 -0.6199  0.1552 -0.0815
19679SOL    HW169351   7.561   7.852   6.420  0.0843 -0.1350  1.0263
19679SOL    HW269352   7.660   7.966   6.409  0.4162 -0.4330  0.9026
19680SOL     OW69353   2.060   0.652  10.950 -0.2324 -0.0150  0.5152
19680SOL    HW169354   2.007   0.720  10.908  0.5716  0.1901 -0.2082
19680SOL    HW269355   2.045   0.665  11.044 -1.1273  0.2981  0.3461
19681SOL     OW69356   6.476  12.740   2.694 -0.0045 -0.2123 -0.2695
19681SOL    HW169357   6.402  12.734   2.754  1.2630 -2.6019  1.1879
19681SOL    HW269358   6.553  12.740   2.750  1.1918  1.3640 -1.7839
19682SOL     OW69359   4.490   4.003  12.614  0.5204 -0.4654 -0.2329
19682SOL    HW169360   4.535   4.025  12.695 -0.2845 -1.7162  0.5826
19682SOL    HW269361   4.489   3.907  12.611 -1.2505 -0.4855 -0.6636
19683SOL     OW69362   1.506   4.718   0.389 -0.1538 -0.6681 -0.6855
19683SOL    HW169363   1.495   4.666   0.309 -2.7476 -1.1646 -0.0866
19683SOL    HW269364   1.422   4.761   0.401  0.2961 -0.3343  1.6055
19684SOL     OW69365  10.414   8.512  10.688 -0.8448 -0.9092  0.4389
19684SOL    HW169366  10.322   8.535  10.673 -0.3866  0.7999 -0.0598
19684SOL    HW269367  10.462   8.585  10.649  0.8189 -2.8920 -1.3944
19685SOL     OW69368  11.736   0.342  11.438 -1.0183  0.4474  1.3430
19685SOL    HW169369  11.780   0.318  11.356  0.5666  0.4445  2.1606
19685SOL    HW269370  11.650   0.300  11.431  0.5144 -3.1450  1.4149
19686SOL     OW69371   1.435   5.340   2.769  0.9983  0.0328 -0.5488
19686SOL    HW169372   1.513   5.326   2.715  1.5769  1.5741 -0.1772
19686SOL    HW269373   1.374   5.386   2.711  0.4578 -0.9217 -0.7537
19687SOL     OW69374   0.943  10.589   8.398 -0.5786  0.5657 -0.3938
19687SOL    HW169375   0.937  10.673   8.352  2.0167  0.1996 -1.5884
19687SOL    HW269376   0.990  10.532   8.338  0.6002 -0.7569  1.6576
19688SOL     OW69377   5.865  11.667   3.283  0.0202 -0.2494 -0.2608
19688SOL    HW169378   5.915  11.747   3.296  0.1085 -0.2918 -0.3394
19688SOL    HW269379   5.779  11.686   3.322  0.4002 -0.5133  0.7206
19689SOL     OW69380   6.031   8.447   1.077 -0.2602  0.2323  0.1939
19689SOL    HW169381   5.997   8.437   1.166 -1.4424  0.4262 -0.2184
19689SOL    HW269382   5.998   8.370   1.030  0.3268  0.1492 -0.0989
19690SOL     OW69383  12.735  10.631   0.770 -0.2112  0.5051 -0.4477
19690SOL    HW169384  12.747  10.598   0.681  1.5886 -0.1807 -0.0012
19690SOL    HW269385  12.781  10.715   0.770 -0.9911  0.9340 -0.4043
19691SOL     OW69386   3.848   6.662   9.053  0.0985  0.3792 -0.6284
19691SOL    HW169387   3.869   6.689   8.963  0.9927  2.0514  0.0421
19691SOL    HW269388   3.759   6.694   9.067 -0.2519 -0.3729 -1.0915
19692SOL     OW69389   1.212  11.706  12.907 -0.1955 -0.0408  0.5067
19692SOL    HW169390   1.132  11.663  12.875 -0.1580  0.9696 -1.0289
19692SOL    HW269391   1.180  11.785  12.951 -0.1335 -0.5572  1.5042
19693SOL     OW69392   8.168  10.873  12.735 -0.3486 -0.7490 -0.0348
19693SOL    HW169393   8.146  10.818  12.810  3.1367 -0.9994  0.9826
19693SOL    HW269394   8.190  10.958  12.772 -1.4064  0.0415 -1.1384
19694SOL     OW69395  10.312   4.907   2.288 -0.2732 -0.0733  0.2004
19694SOL    HW169396  10.264   4.939   2.212  0.2421 -0.0970 -0.1340
19694SOL    HW269397  10.262   4.940   2.363 -0.1984  0.8446 -0.1424
19695SOL     OW69398   0.152   2.860  11.477  0.2218  0.0803  0.1437
19695SOL    HW169399   0.138   2.947  11.440  3.0502  0.5403 -0.0528
19695SOL    HW269400   0.212   2.817  11.416 -0.8381 -1.9284  0.4174
19696SOL     OW69401   8.299  12.037   3.121 -0.7181 -0.3896  0.0610
19696SOL    HW169402   8.218  12.087   3.132 -0.9396 -0.7549  0.1160
19696SOL    HW269403   8.368  12.100   3.139 -1.0192 -0.4154  1.3794
19697SOL     OW69404   9.505   7.171   2.472  0.5395 -0.2851 -0.5737
19697SOL    HW169405   9.454   7.100   2.509  0.6583  0.2044  0.5739
19697SOL    HW269406   9.449   7.209   2.404 -0.0004 -0.7014 -0.3637
19698SOL     OW69407   7.463  11.666   3.411  0.1042 -0.2746 -0.0412
19698SOL    HW169408   7.455  11.730   3.482 -2.4231  0.7106 -1.0937
19698SOL    HW269409   7.463  11.581   3.454  3.6123  0.2840  1.4036
19699SOL     OW69410   1.086   8.984   7.891 -0.0384 -0.0185  0.2830
19699SOL    HW169411   1.015   9.002   7.829 -0.3432  0.4787  0.7722
19699SOL    HW269412   1.078   9.052   7.958 -0.7703 -1.5596  1.8263
19700SOL     OW69413   7.051   3.010   7.713  0.1602  0.1027 -0.2289
19700SOL    HW169414   6.989   2.942   7.739 -0.1513  0.4908  0.0525
19700SOL    HW269415   7.082   2.982   7.627  0.6723 -0.8266  0.2491
19701SOL     OW69416   4.525   9.837   1.612  0.2482 -0.0670 -0.1179
19701SOL    HW169417   4.477   9.783   1.675 -1.2575 -1.0041 -1.9670
19701SOL    HW269418   4.473   9.917   1.606  1.8240  1.1851  1.7147
19702SOL     OW69419   1.673  12.673   7.067  0.3566  0.2141  0.1265
19702SOL    HW169420   1.758  12.659   7.026  0.4235 -0.2915  0.4299
19702SOL    HW269421   1.684  12.752   7.119  1.7119 -1.6649  2.9349
19703SOL     OW69422   9.544   2.161   7.546  0.4223  0.2575 -0.4415
19703SOL    HW169423   9.601   2.169   7.622 -1.3090  1.8369  0.7586
19703SOL    HW269424   9.564   2.237   7.492 -0.5495  0.8994  0.0526
19704SOL     OW69425   1.549   0.304   8.576  0.5020  0.0246  0.1877
19704SOL    HW169426   1.470   0.252   8.589 -1.1201  1.0127 -4.1819
19704SOL    HW269427   1.524   0.393   8.600  0.6759  0.1283 -0.0091
19705SOL     OW69428  12.873   4.641   9.867  0.1628  0.0892 -0.0320
19705SOL    HW169429  12.907   4.575   9.806 -0.8170  0.8563 -1.4836
19705SOL    HW269430  12.896   4.724   9.827 -2.0995  0.6268 -0.3568
19706SOL     OW69431   4.453  12.318  11.807  0.6742  0.5234 -0.1389
19706SOL    HW169432   4.521  12.274  11.756  1.1022  0.1614  0.7138
19706SOL    HW269433   4.467  12.287  11.897  0.2726  1.5355  0.2899
19707SOL     OW69434  10.158  12.499   9.057 -0.4403 -0.5854  0.5102
19707SOL    HW169435  10.143  12.576   9.002  0.7478  0.7554  1.9612
19707SOL    HW269436  10.081  12.496   9.114 -0.2724 -0.1850  0.7614
19708SOL     OW69437  10.995   6.081   7.534 -0.0722 -0.5547 -0.3903
19708SOL    HW169438  11.085   6.094   7.565 -0.9514 -1.2337  2.8635
19708SOL    HW269439  10.975   6.160   7.485  1.0117  1.6175  2.3727
19709SOL     OW69440   5.829   3.397   4.385  0.3490 -0.1963  0.0358
19709SOL    HW169441   5.876   3.357   4.313  1.6462  1.6529 -0.2109
19709SOL    HW269442   5.897   3.423   4.447 -0.4379  1.3230  0.3067
19710SOL     OW69443   9.773   7.208  10.573  0.1475 -0.2065  0.1652
19710SOL    HW169444   9.681   7.223  10.591 -0.2232 -2.1652  0.1876
19710SOL    HW269445   9.782   7.221  10.478  0.2277  1.5964  0.4015
19711SOL     OW69446   2.953   2.457   3.667  0.7519  0.1461 -0.1284
19711SOL    HW169447   2.903   2.488   3.591  1.6253  2.2704  0.0805
19711SOL    HW269448   2.908   2.378   3.695  0.0837 -0.4140 -2.5396
19712SOL     OW69449  11.876  11.743   9.422  0.3686  0.0694  0.1243
19712SOL    HW169450  11.954  11.700   9.458  0.6928  1.8189  1.6702
19712SOL    HW269451  11.909  11.797   9.350  0.3147 -0.4737 -0.3109
19713SOL     OW69452   2.771   9.687   8.436  0.0542 -0.3855 -0.0861
19713SOL    HW169453   2.739   9.777   8.435  1.0315 -0.0226  0.6033
19713SOL    HW269454   2.866   9.695   8.439  0.3325 -1.4380 -2.8366
19714SOL     OW69455   4.846   1.244  10.422  0.2228  0.3736  0.0141
19714SOL    HW169456   4.856   1.326  10.471  0.6426  1.0588 -1.1806
19714SOL    HW269457   4.838   1.271  10.331  0.5730 -0.9367 -0.4273
19715SOL     OW69458   8.242   6.805   3.625  0.0781  0.5918  0.4640
19715SOL    HW169459   8.310   6.797   3.692 -0.7718 -0.8638  1.2088
19715SOL    HW269460   8.261   6.735   3.563 -0.6315  0.2642  0.6015
19716SOL     OW69461   8.119   5.261   7.633  0.0535 -0.4683  0.2409
19716SOL    HW169462   8.027   5.274   7.610  0.8452  0.1234 -3.0606
19716SOL    HW269463   8.137   5.169   7.615 -0.0095 -0.7539  1.5363
19717SOL     OW69464   9.798   3.076  12.412 -0.1752 -0.4853 -0.4198
19717SOL    HW169465   9.816   3.125  12.493 -0.4377 -1.4293  0.2202
19717SOL    HW269466   9.710   3.104  12.388 -0.8604 -1.5992  0.6774
19718SOL     OW69467   1.751   3.148   9.852  0.2318 -0.1055  0.3677
19718SOL    HW169468   1.687   3.215   9.874 -0.3784 -0.2751 -0.7969
19718SOL    HW269469   1.777   3.168   9.762 -0.7407 -1.9761 -0.4101
19719SOL     OW69470  11.836   4.546   1.805 -0.0978 -0.3741 -0.1402
19719SOL    HW169471  11.884   4.523   1.885 -2.3616 -2.0598  0.8537
19719SOL    HW269472  11.778   4.617   1.831 -1.0591 -1.1296 -0.1465
19720SOL     OW69473   3.016  11.958   4.276 -0.5381 -0.2525  0.1311
19720SOL    HW169474   3.084  12.021   4.296 -0.9142  0.2561 -0.1811
19720SOL    HW269475   3.001  11.967   4.182 -1.4501  0.0615  0.2988
19721SOL     OW69476  11.794   3.194   8.526  0.0830 -0.2406 -0.0515
19721SOL    HW169477  11.800   3.234   8.612 -0.1869  0.0157 -0.1529
19721SOL    HW269478  11.867   3.131   8.524  0.0730 -0.2679  0.3701
19722SOL     OW69479  10.644   7.599   3.361  0.1532 -0.4374 -0.1655
19722SOL    HW169480  10.591   7.641   3.428 -0.0287  0.8759 -1.1101
19722SOL    HW269481  10.581   7.557   3.302  0.2101  0.2406 -0.7101
19723SOL     OW69482   1.633   8.044   9.567  0.3309 -0.0966  0.1820
19723SOL    HW169483   1.693   8.092   9.624  0.1546  0.5429 -0.1614
19723SOL    HW269484   1.556   8.029   9.621  0.9260 -1.2278  0.7376
19724SOL     OW69485  10.592   5.095   0.623 -0.3022 -0.3804 -0.0760
19724SOL    HW169486  10.564   5.182   0.651 -0.7262 -0.3077 -0.7234
19724SOL    HW269487  10.624   5.053   0.704 -1.8964 -0.3308  0.6114
19725SOL     OW69488  11.935   9.393   3.747 -0.2554  0.2734 -0.2901
19725SOL    HW169489  12.009   9.453   3.745 -1.7695  2.2836  0.1898
19725SOL    HW269490  11.885   9.414   3.668 -0.5323 -0.7600 -0.3960
19726SOL     OW69491   9.886   3.000   6.332  0.1104 -0.4046 -0.3385
19726SOL    HW169492   9.880   2.956   6.247 -0.1834  0.2984 -0.6926
19726SOL    HW269493   9.960   2.958   6.376  0.9062 -0.0958 -1.3420
19727SOL     OW69494   1.155   5.160   9.972 -0.6595 -1.0756 -0.4185
19727SOL    HW169495   1.196   5.174   9.887  2.1687  2.8141  1.3093
19727SOL    HW269496   1.112   5.243   9.992  0.1611 -1.2647  2.5832
19728SOL     OW69497   3.907  12.760  12.963 -0.0090  0.3411 -0.3099
19728SOL    HW169498   3.916  12.853  12.942 -1.9566  0.6748  0.1325
19728SOL    HW269499   3.979  12.718  12.916  0.7002  2.0198 -0.8138
19729SOL     OW69500   0.969   6.878   5.514 -0.6876 -0.1695  0.3472
19729SOL    HW169501   1.016   6.915   5.590  1.5797 -0.4250 -0.8292
19729SOL    HW269502   1.023   6.804   5.487 -1.7761 -0.4492 -1.1521
19730SOL     OW69503  11.827  12.486   7.395  0.1903  0.4552 -0.0537
19730SOL    HW169504  11.883  12.555   7.361 -0.7287  2.3149  1.9498
19730SOL    HW269505  11.850  12.480   7.488 -1.3346 -0.3116  0.3186
19731SOL     OW69506   8.296  10.362   6.575  0.2254  0.3969  0.7888
19731SOL    HW169507   8.361  10.431   6.575  0.7239  0.0928 -2.6981
19731SOL    HW269508   8.229  10.391   6.513  0.5235 -2.2169 -0.8969
19732SOL     OW69509   6.928  10.077   4.064  0.0548  0.2810  0.1389
19732SOL    HW169510   6.990  10.129   4.012  0.1991 -0.1647 -0.1316
19732SOL    HW269511   6.956   9.987   4.052 -0.2138  0.1353  0.5941
19733SOL     OW69512   5.423  12.662   8.642 -0.4573 -0.5457  0.7662
19733SOL    HW169513   5.389  12.579   8.607  0.1468 -0.1237 -0.9667
19733SOL    HW269514   5.381  12.672   8.727 -1.0552 -2.3036  0.7164
19734SOL     OW69515  12.912   4.873   0.197  0.4508  0.1754 -0.3643
19734SOL    HW169516  12.891   4.958   0.236 -0.3011  0.5039 -1.4109
19734SOL    HW269517  12.923   4.814   0.271 -1.5015  0.6398  0.3571
19735SOL     OW69518   3.988  12.494   8.479 -0.5081 -0.1923 -0.1625
19735SOL    HW169519   3.993  12.589   8.479 -0.1367 -0.2093 -0.7236
19735SOL    HW269520   4.042  12.467   8.405 -1.1292 -0.8133 -0.3980
19736SOL     OW69521   3.010   4.200  10.060 -0.1787  0.5275  0.1141
19736SOL    HW169522   3.035   4.188  10.152  0.1583  1.0153  0.0890
19736SOL    HW269523   2.961   4.121  10.038  0.2553  0.1348  0.5414
19737SOL     OW69524   1.058   1.091   6.441 -0.3484  0.1063 -0.7091
19737SOL    HW169525   1.000   1.015   6.449 -0.3397  0.2638  1.8035
19737SOL    HW269526   1.138   1.065   6.486 -0.4515  1.6385  0.4605
19738SOL     OW69527  12.841   6.507  10.167 -0.1919 -0.2130  0.4477
19738SOL    HW169528  12.932   6.494  10.139 -0.1468  0.4269  0.2942
19738SOL    HW269529  12.848   6.540  10.257 -0.1511  2.4185 -0.4456
19739SOL     OW69530   9.493   0.314   9.455  0.8467 -0.2981 -0.2262
19739SOL    HW169531   9.588   0.308   9.450  1.0282  1.1249  0.8404
19739SOL    HW269532   9.463   0.223   9.464  2.0496 -0.7923 -1.0782
19740SOL     OW69533   8.513   5.937   6.189  0.3707 -0.1502  0.5474
19740SOL    HW169534   8.479   6.006   6.133  1.3531  1.2879  1.6350
19740SOL    HW269535   8.442   5.919   6.251 -0.8335 -1.9683 -1.2698
19741SOL     OW69536   9.157  11.412   0.559  0.5587 -0.1202  0.0434
19741SOL    HW169537   9.132  11.344   0.495 -1.5701 -0.0484  0.7073
19741SOL    HW269538   9.133  11.374   0.644  2.4217  0.1903  0.7391
19742SOL     OW69539  12.249  12.172   1.558 -0.0761 -0.0506  0.0754
19742SOL    HW169540  12.344  12.181   1.550 -0.2216  0.8153 -0.9078
19742SOL    HW269541  12.219  12.260   1.581 -0.6675 -0.2439  0.0381
19743SOL     OW69542   9.954  11.374   9.960 -0.4090 -0.0306 -0.0536
19743SOL    HW169543   9.904  11.312  10.012 -0.2004  0.9419  1.3803
19743SOL    HW269544   9.946  11.457  10.007  1.6359  0.4064 -0.3631
19744SOL     OW69545  10.917  12.587  10.150  0.1390 -0.1601 -0.4111
19744SOL    HW169546  10.960  12.672  10.162  0.2544 -0.4275  1.3263
19744SOL    HW269547  10.824  12.605  10.167  0.2066 -0.4196  0.2754
19745SOL     OW69548   6.329  12.182   9.995 -0.3221 -0.3399 -0.2190
19745SOL    HW169549   6.377  12.265  10.001 -1.0666  0.1023 -0.2383
19745SOL    HW269550   6.293  12.168  10.082  2.1928 -2.1600  0.6352
19746SOL     OW69551  12.782   9.110   9.599  0.6883 -0.4651  0.1065
19746SOL    HW169552  12.753   9.189   9.645 -2.5626 -0.9008 -0.9714
19746SOL    HW269553  12.759   9.038   9.658  1.7771 -0.7680  0.1974
19747SOL     OW69554   7.177   1.656   4.610  0.0058  0.1361 -0.1234
19747SOL    HW169555   7.191   1.586   4.675  0.0102 -0.6928 -0.9921
19747SOL    HW269556   7.106   1.708   4.647 -1.0217 -1.1941 -0.1204
19748SOL     OW69557  12.018  10.519   7.395 -0.3781  0.3701  0.3412
19748SOL    HW169558  12.068  10.526   7.476  0.7208  1.7081 -0.4071
19748SOL    HW269559  12.048  10.593   7.342 -1.5802 -0.0680 -1.0083
19749SOL     OW69560   3.969   8.531   3.786 -0.2636  0.3402  0.4989
19749SOL    HW169561   3.895   8.470   3.795  1.2575 -1.3541  2.7890
19749SOL    HW269562   4.041   8.477   3.755 -0.0402  2.1115 -2.3978
19750SOL     OW69563   0.408  11.243   2.083  0.1243  0.2171  0.4005
19750SOL    HW169564   0.496  11.252   2.046  0.4424  1.3956  1.3542
19750SOL    HW269565   0.353  11.301   2.030  0.5488  1.7835  1.5918
19751SOL     OW69566  10.447  12.139   8.465 -0.4511 -0.0199 -0.1714
19751SOL    HW169567  10.401  12.114   8.384  1.6157 -0.0831 -1.3906
19751SOL    HW269568  10.466  12.056   8.508 -2.3004  0.0463  0.8845
19752SOL     OW69569   5.385   5.198   8.534  0.3004  0.3595 -0.5426
19752SOL    HW169570   5.375   5.179   8.441 -0.7256  0.4094 -0.4581
19752SOL    HW269571   5.345   5.285   8.546 -2.9425 -1.0988  0.5015
19753SOL     OW69572   1.789   6.829   6.275 -0.1780 -0.4381  0.3735
19753SOL    HW169573   1.805   6.809   6.367  0.1433  0.5693  0.5463
19753SOL    HW269574   1.876   6.831   6.235 -0.3885 -1.9724 -0.1984
19754SOL     OW69575   4.672  12.263   1.223 -0.3354 -0.4992 -0.9871
19754SOL    HW169576   4.582  12.281   1.198 -0.2916  0.0879 -0.7575
19754SOL    HW269577   4.724  12.322   1.168 -0.0305 -1.4289 -1.7172
19755SOL     OW69578   4.846   1.059  10.645 -0.1089  0.6314 -0.1169
19755SOL    HW169579   4.777   1.022  10.589 -0.3037  2.3504 -1.0996
19755SOL    HW269580   4.809   1.057  10.733 -1.8523  2.3510 -0.7424
19756SOL     OW69581   9.951   8.218   5.791 -0.2143 -0.0328  0.1740
19756SOL    HW169582   9.978   8.247   5.878 -0.1322 -0.0233  0.1455
19756SOL    HW269583   9.984   8.285   5.731 -0.8868  0.3277  0.2005
19757SOL     OW69584   8.216   2.295   5.436  0.0627 -0.2172 -0.1773
19757SOL    HW169585   8.235   2.241   5.513  0.1949 -1.5875 -1.1196
19757SOL    HW269586   8.224   2.385   5.467 -2.0051 -0.6554  1.9393
19758SOL     OW69587   8.529   5.436   3.594 -0.5766 -0.2257 -0.1037
19758SOL    HW169588   8.547   5.517   3.642 -0.5646  0.8257 -1.8022
19758SOL    HW269589   8.615   5.396   3.583 -0.6062 -0.6213  0.9354
19759SOL     OW69590  11.943   3.818  11.788  0.4122  0.4952  0.7375
19759SOL    HW169591  11.986   3.811  11.874  1.5072 -0.2476  0.1479
19759SOL    HW269592  11.868   3.875  11.804  1.2647  1.3466  1.9521
19760SOL     OW69593   5.039   0.177   5.853  0.7287 -0.0723  0.2631
19760SOL    HW169594   5.065   0.086   5.869 -0.2223 -0.1124  1.7943
19760SOL    HW269595   4.943   0.176   5.858  0.5993  0.7502 -1.3607
19761SOL     OW69596   2.788   7.545   0.007 -0.5262  0.1620 -0.2890
19761SOL    HW169597   2.777   7.459  -0.033 -0.0975  0.0190 -0.1047
19761SOL    HW269598   2.865   7.582  -0.036 -0.5259  0.3248 -0.1511
19762SOL     OW69599  10.352   6.831  12.077 -0.1996  0.3231 -0.0330
19762SOL    HW169600  10.356   6.756  12.136  0.2011  1.0680  0.9056
19762SOL    HW269601  10.323   6.794  11.993 -2.2980 -0.5285  0.9987
19763SOL     OW69602  10.276   1.542  12.434  0.0156 -0.7246  0.0870
19763SOL    HW169603  10.212   1.587  12.489  0.8147 -2.0689  2.2240
19763SOL    HW269604  10.281   1.596  12.355 -1.0242  1.4395  1.3907
19764SOL     OW69605   2.847   1.959   9.887 -0.3860 -0.3801 -0.4086
19764SOL    HW169606   2.756   1.936   9.869 -0.6699  0.0271  0.4585
19764SOL    HW269607   2.894   1.876   9.884 -1.1000 -0.8610  0.9695
19765SOL     OW69608   7.112  11.361   2.135 -0.1871 -0.0968 -0.3132
19765SOL    HW169609   7.079  11.431   2.078  2.1762  1.8228  0.5321
19765SOL    HW269610   7.184  11.322   2.085 -1.5132 -2.0841 -0.8043
19766SOL     OW69611   1.172  11.173   7.773  0.0475  0.7549 -0.0180
19766SOL    HW169612   1.206  11.244   7.828 -0.1731  2.1941 -1.6405
19766SOL    HW269613   1.103  11.214   7.721  0.7458 -0.3034 -1.8888
19767SOL     OW69614   8.031   1.202  10.208 -0.2905  0.1177  0.1664
19767SOL    HW169615   7.973   1.162  10.272 -0.7433 -0.9800 -0.8900
19767SOL    HW269616   8.113   1.154  10.217 -0.2131  0.2523  0.2003
19768SOL     OW69617   2.940   4.348   1.165  0.1478 -0.3085  0.0449
19768SOL    HW169618   2.902   4.324   1.080 -0.2431 -0.0545  0.1486
19768SOL    HW269619   2.958   4.441   1.159  1.1608 -0.5080 -0.1556
19769SOL     OW69620   7.468  11.750   4.478 -0.1940  0.1293  0.5707
19769SOL    HW169621   7.402  11.779   4.540 -0.0873  0.6074  0.4587
19769SOL    HW269622   7.547  11.737   4.532 -0.3275 -0.2779  0.6743
19770SOL     OW69623   6.173   6.309   8.253  0.0445 -0.2165 -0.1496
19770SOL    HW169624   6.222   6.258   8.318 -0.1748  0.2881  0.4180
19770SOL    HW269625   6.144   6.244   8.190  1.5719 -0.5145 -0.5951
19771SOL     OW69626   4.432   9.053   3.188 -0.1992 -0.1501 -0.0352
19771SOL    HW169627   4.370   9.114   3.148 -2.0229  0.1501  2.9408
19771SOL    HW269628   4.507   9.108   3.211 -0.9261  0.5837  0.6818
19772SOL     OW69629  11.270   9.098   8.700  0.3333  0.4766  0.1138
19772SOL    HW169630  11.328   9.170   8.675  0.5314  0.1373 -0.4145
19772SOL    HW269631  11.305   9.021   8.656 -0.9005  0.3876 -0.7764
19773SOL     OW69632   2.265   5.152  10.294  0.0024  0.0675  0.1648
19773SOL    HW169633   2.243   5.220  10.231 -1.7079  0.3556  1.0064
19773SOL    HW269634   2.361   5.149  10.294  0.0669  0.8624 -1.5538
19774SOL     OW69635  11.616   8.977   6.216  0.0376 -0.0160  0.0455
19774SOL    HW169636  11.581   8.936   6.295  0.6411 -1.0148 -0.1900
19774SOL    HW269637  11.587   8.920   6.144  1.4707 -0.4573 -0.2268
19775SOL     OW69638   8.336  10.994   2.483 -0.0200  0.3846  0.2030
19775SOL    HW169639   8.333  10.919   2.424  1.9623  0.7537 -0.4454
19775SOL    HW269640   8.357  10.958   2.569 -1.2946  0.0107  0.3804
19776SOL     OW69641   2.484   7.956   8.207 -0.0115  0.2568  0.0945
19776SOL    HW169642   2.461   8.038   8.162 -1.7991 -0.7258 -0.9270
19776SOL    HW269643   2.535   7.908   8.142  1.5220  0.7510  0.8957
19777SOL     OW69644   9.746  10.184   7.809 -0.1067  0.2325  0.8378
19777SOL    HW169645   9.686  10.110   7.802 -0.7867  0.7171  1.4352
19777SOL    HW269646   9.752  10.202   7.902 -0.2080  1.1252  0.6841
19778SOL     OW69647   5.615   7.522  10.105 -0.4898 -0.0866 -0.1113
19778SOL    HW169648   5.667   7.448  10.135 -1.6218 -0.7312  0.3399
19778SOL    HW269649   5.624   7.520  10.009  0.6555  0.0958 -0.0198
19779SOL     OW69650   8.298   0.363  10.015 -0.0127  0.1030  0.2229
19779SOL    HW169651   8.335   0.447  10.042 -0.8691  0.5177  0.1114
19779SOL    HW269652   8.264   0.378   9.927 -1.2856  0.0004  0.6757
19780SOL     OW69653  10.165   0.066  10.175  0.9376 -0.2062 -0.2745
19780SOL    HW169654  10.176   0.133  10.241  0.7836 -0.0446 -0.4124
19780SOL    HW269655  10.097   0.100  10.117  1.3711 -0.1493 -0.7602
19781SOL     OW69656   2.856   8.911   4.211  0.2897  0.1015 -0.6549
19781SOL    HW169657   2.866   8.988   4.154  0.2016  1.0143  0.5181
19781SOL    HW269658   2.924   8.922   4.278  0.7619 -1.2497 -0.8773
19782SOL     OW69659   8.354   1.341   1.606  0.1637 -0.0147  0.0057
19782SOL    HW169660   8.296   1.408   1.643  0.2294 -0.1949  0.4476
19782SOL    HW269661   8.429   1.390   1.574  0.2594  0.1183  0.4215
19783SOL     OW69662  11.811   2.313   6.056  0.2871 -0.5162 -0.3969
19783SOL    HW169663  11.830   2.220   6.041  0.5917 -0.4000 -0.7178
19783SOL    HW269664  11.716   2.315   6.068 -0.4071 -0.3653 -4.5083
19784SOL     OW69665   7.113   8.127   0.341  0.2636 -0.0030 -0.1012
19784SOL    HW169666   7.034   8.104   0.291  0.5220  0.4636 -0.7267
19784SOL    HW269667   7.096   8.215   0.373  0.2547 -0.1597  0.3282
19785SOL     OW69668   9.047   7.007   5.853 -0.2327 -0.3859  0.1308
19785SOL    HW169669   9.117   6.946   5.877 -0.7225 -1.3109 -0.6903
19785SOL    HW269670   9.050   7.011   5.757 -1.3468 -0.5181  0.0730
19786SOL     OW69671  11.482   1.112   6.201  0.2285 -0.6056 -0.0661
19786SOL    HW169672  11.570   1.093   6.168 -0.4066 -0.7428 -1.8046
19786SOL    HW269673  11.425   1.105   6.124 -1.2015  0.2942  0.8450
19787SOL     OW69674   6.613   6.822   4.489  0.2675 -0.0532 -0.1337
19787SOL    HW169675   6.703   6.836   4.462  0.1369  0.5127 -0.2984
19787SOL    HW269676   6.611   6.734   4.525  0.7032 -0.3902 -0.9160
19788SOL     OW69677   6.246   5.976   7.921  0.4849  0.2435 -0.3399
19788SOL    HW169678   6.309   5.987   7.849  0.3391  0.3321 -0.4542
19788SOL    HW269679   6.164   5.953   7.878  0.7134 -1.0434 -0.1251
19789SOL     OW69680   6.372   8.129  10.578  0.0838  0.0954 -0.2877
19789SOL    HW169681   6.319   8.051  10.593  2.0281 -1.1201  0.6438
19789SOL    HW269682   6.336   8.194  10.637 -2.8456  0.6678 -2.4494
19790SOL     OW69683   2.264  10.369  12.240  0.0132 -1.0287 -0.1284
19790SOL    HW169684   2.335  10.378  12.177  1.6817 -2.2065  1.5012
19790SOL    HW269685   2.306  10.338  12.320 -2.3460 -1.8369  0.8866
19791SOL     OW69686   3.563   1.146   2.580  0.3845  0.0993  0.0020
19791SOL    HW169687   3.508   1.188   2.646  0.1169 -1.2317  0.6601
19791SOL    HW269688   3.619   1.087   2.630  0.3754 -0.7286 -0.9357
19792SOL     OW69689   9.799   6.769   4.573 -1.5107 -0.3052  0.0029
19792SOL    HW169690   9.850   6.783   4.652 -1.6864  0.3939 -0.0002
19792SOL    HW269691   9.748   6.850   4.563  0.7287  0.9766 -2.4503
19793SOL     OW69692   0.341   0.539   0.476 -0.3100 -0.2934  0.4547
19793SOL    HW169693   0.335   0.561   0.569  0.9379  0.3717  0.4067
19793SOL    HW269694   0.429   0.503   0.465 -0.2728  0.0407 -0.5379
19794SOL     OW69695   5.594   1.816  12.242 -0.2905  0.0207  0.6049
19794SOL    HW169696   5.556   1.845  12.325  0.0181  1.1527  0.3670
19794SOL    HW269697   5.663   1.755  12.268 -1.6849 -1.4512  1.0706
19795SOL     OW69698   6.046  11.229   9.670 -0.0468 -0.9776 -0.1098
19795SOL    HW169699   6.139  11.248   9.687 -0.1621 -0.1592 -0.3747
19795SOL    HW269700   6.019  11.174   9.743 -0.1895  1.3837  1.7146
19796SOL     OW69701   1.372   5.976  11.188  0.8366  0.6313 -0.6629
19796SOL    HW169702   1.421   5.935  11.258  0.9492 -1.6838 -1.9897
19796SOL    HW269703   1.431   5.973  11.112  0.7247  3.0497 -0.9236
19797SOL     OW69704   3.328   3.294   5.053 -0.2362 -0.3741 -0.2933
19797SOL    HW169705   3.240   3.259   5.069 -1.7176  2.9926 -0.3754
19797SOL    HW269706   3.341   3.285   4.959 -0.3317 -1.1314 -0.2439
19798SOL     OW69707   9.806   2.027   2.596 -0.5352  0.0800  0.0897
19798SOL    HW169708   9.823   2.115   2.631  1.1318 -0.5532  1.0027
19798SOL    HW269709   9.717   2.031   2.561 -0.1937  2.3694 -0.6670
19799SOL     OW69710   0.075   1.210   5.702  0.1899  0.1757  0.5901
19799SOL    HW169711   0.041   1.236   5.788  0.1141 -0.7259  0.8368
19799SOL    HW269712  -0.002   1.191   5.650  0.1083  2.6442 -0.3562
19800SOL     OW69713   7.516   0.732   7.282 -0.3564  0.0991  0.3011
19800SOL    HW169714   7.498   0.800   7.347 -0.2765 -0.3712  0.8241
19800SOL    HW269715   7.557   0.778   7.209  0.7705  0.4550  1.1293
19801SOL     OW69716   8.713  10.315   2.615  0.6517  0.2696 -0.3545
19801SOL    HW169717   8.623  10.343   2.630  1.2766  1.5570  1.1986
19801SOL    HW269718   8.706  10.220   2.600 -0.7887 -0.0044  1.6753
19802SOL     OW69719   0.577   6.892  11.451 -0.0905  0.1330  0.0847
19802SOL    HW169720   0.664   6.875  11.487  0.2084 -0.7328 -0.9947
19802SOL    HW269721   0.519   6.833  11.499  0.4386 -1.6563 -1.3575
19803SOL     OW69722   0.372   1.431   5.165  0.3613 -0.1736 -0.1034
19803SOL    HW169723   0.297   1.375   5.146  0.2586 -0.0857  0.0350
19803SOL    HW269724   0.430   1.420   5.090 -0.6453  1.2105 -1.1425
19804SOL     OW69725   3.024   0.145  12.539 -0.5336  0.1054 -0.4218
19804SOL    HW169726   2.967   0.071  12.518  0.1508 -0.1153 -1.6307
19804SOL    HW269727   3.009   0.207  12.468  0.6874  0.0544 -0.7569
19805SOL     OW69728   7.579   4.811   1.856 -0.4989  0.4225 -0.2378
19805SOL    HW169729   7.658   4.841   1.899  0.0912  0.0003 -1.0066
19805SOL    HW269730   7.610   4.758   1.782 -1.5001 -0.6829  0.1088
19806SOL     OW69731   8.197   5.832   3.809  0.9050  0.1185  0.1977
19806SOL    HW169732   8.232   5.848   3.896 -0.1521  0.0765  0.6473
19806SOL    HW269733   8.272   5.804   3.757  1.6702  0.7818  0.9237
19807SOL     OW69734   6.554   8.215   6.672 -0.3220 -0.4395  0.6082
19807SOL    HW169735   6.584   8.135   6.713  1.2317 -0.6667 -0.8934
19807SOL    HW269736   6.600   8.285   6.719 -0.2072 -0.5414  0.6465
19808SOL     OW69737   1.135   8.294   4.909 -0.4120 -0.4288  0.3528
19808SOL    HW169738   1.179   8.269   4.990  0.5594  1.1930  0.3859
19808SOL    HW269739   1.187   8.252   4.840 -0.3210 -0.5680  0.5056
19809SOL     OW69740   3.279   5.195   3.399 -0.0990 -0.4639 -0.8113
19809SOL    HW169741   3.339   5.131   3.361 -1.1609 -1.0290 -1.6019
19809SOL    HW269742   3.244   5.243   3.324 -1.4708 -0.9150 -0.4947
19810SOL     OW69743   3.346  12.226  12.296  0.7034 -0.0087 -0.9436
19810SOL    HW169744   3.426  12.226  12.244  1.4236  3.8941 -0.1310
19810SOL    HW269745   3.352  12.306  12.349 -2.1221 -1.3698  1.7567
19811SOL     OW69746   5.188   1.926   7.316 -0.4054  0.8477 -0.1985
19811SOL    HW169747   5.187   1.971   7.232  2.1345 -0.4781 -1.0540
19811SOL    HW269748   5.278   1.937   7.348 -1.1368  0.7869  2.0782
19812SOL     OW69749  10.802   6.345   6.580  0.2171 -0.4743  0.4056
19812SOL    HW169750  10.846   6.337   6.664  1.7369 -0.3324 -0.3419
19812SOL    HW269751  10.834   6.271   6.529  1.7155  1.0846 -1.0441
19813SOL     OW69752   6.795  11.554  12.914  0.0935 -0.5052 -0.2532
19813SOL    HW169753   6.793  11.607  12.834  0.5795 -0.8931 -0.5282
19813SOL    HW269754   6.824  11.468  12.885  0.3146 -0.6387  0.3454
19814SOL     OW69755   9.452  12.329  11.150 -0.2560 -0.2475 -0.4731
19814SOL    HW169756   9.487  12.398  11.094  1.2059 -1.1761 -0.7457
19814SOL    HW269757   9.406  12.270  11.090 -0.4664 -0.1559 -0.4033
19815SOL     OW69758   2.102   3.484   1.288  0.3476 -0.2976 -0.1680
19815SOL    HW169759   2.101   3.513   1.380  1.5216 -1.7182  0.3349
19815SOL    HW269760   2.160   3.548   1.245 -0.1447  0.3333  0.0849
19816SOL     OW69761  10.885   8.509   4.354  0.4630 -0.0239 -0.0655
19816SOL    HW169762  10.907   8.464   4.435 -1.3904  0.2058  0.6006
19816SOL    HW269763  10.864   8.438   4.293 -1.6209 -0.1691  0.7356
19817SOL     OW69764   1.560   2.206   5.862 -0.1487 -0.2135 -0.1162
19817SOL    HW169765   1.620   2.274   5.833 -0.0610  0.2024  0.9671
19817SOL    HW269766   1.526   2.167   5.782 -0.8728  1.6955 -0.8054
19818SOL     OW69767  10.362   8.690  11.973  0.3164  0.7064  0.1081
19818SOL    HW169768  10.444   8.698  12.022  0.7897 -0.6397 -0.4167
19818SOL    HW269769  10.369   8.755  11.904  2.0740 -0.9422 -1.4116
19819SOL     OW69770  11.029  10.408   1.209 -0.0878 -0.6130  0.2475
19819SOL    HW169771  11.050  10.365   1.292 -2.1717 -1.4121  0.4250
19819SOL    HW269772  10.973  10.345   1.163 -0.1936  0.4285 -1.1160
19820SOL     OW69773   0.484   4.450  10.369  0.0592 -0.4089  0.2738
19820SOL    HW169774   0.403   4.461  10.419 -0.4065 -0.3128 -0.4844
19820SOL    HW269775   0.534   4.529  10.388 -0.2160 -0.2650  0.4105
19821SOL     OW69776   6.424   9.311   9.759  0.2466  0.0853  0.1436
19821SOL    HW169777   6.418   9.356   9.674  2.5033 -0.8127 -0.5598
19821SOL    HW269778   6.394   9.222   9.740  0.8280 -0.1379  0.2610
19822SOL     OW69779   2.933   1.959  11.262  0.0928 -0.1456 -0.2832
19822SOL    HW169780   2.997   1.991  11.199 -1.4481  0.0490 -1.8350
19822SOL    HW269781   2.932   2.024  11.332  2.4348 -0.7895  0.4446
19823SOL     OW69782   0.815   4.278   6.422  0.5726 -0.3088 -0.0270
19823SOL    HW169783   0.753   4.237   6.362 -0.5535  1.2462  0.0212
19823SOL    HW269784   0.762   4.308   6.496  0.8876  3.0648 -0.9893
19824SOL     OW69785   0.970   2.754   4.850  0.0879 -0.2040 -0.5176
19824SOL    HW169786   0.943   2.830   4.799 -2.2427 -1.5423 -1.4718
19824SOL    HW269787   1.059   2.774   4.878 -0.5039  2.9288 -0.5032
19825SOL     OW69788   5.539   0.375   5.877 -0.0918  0.1693 -0.1060
19825SOL    HW169789   5.564   0.467   5.878 -0.9491  0.4645 -1.7689
19825SOL    HW269790   5.521   0.354   5.968 -1.5539  2.1516  0.1251
19826SOL     OW69791   7.172   8.904  12.862  0.2160  0.2380 -0.5471
19826SOL    HW169792   7.213   8.907  12.775  0.0705 -2.5102 -0.8091
19826SOL    HW269793   7.080   8.883  12.845 -0.2744  1.6868  0.2163
19827SOL     OW69794   4.006   3.444   8.666  0.2652  0.0411 -0.0191
19827SOL    HW169795   3.913   3.455   8.645 -0.6290 -3.3727  1.3461
19827SOL    HW269796   4.040   3.387   8.597  1.1762  0.7588 -0.1677
19828SOL     OW69797  10.444  11.354   7.155 -0.3581 -0.2791 -0.1412
19828SOL    HW169798  10.531  11.337   7.119 -0.0608 -0.6705  0.7293
19828SOL    HW269799  10.444  11.447   7.177 -1.0517  0.3316 -2.4285
19829SOL     OW69800   9.456  10.112   9.407  0.2151  0.2814 -0.5573
19829SOL    HW169801   9.418  10.050   9.470 -1.0468  1.1274 -0.4554
19829SOL    HW269802   9.398  10.108   9.331 -1.3072  3.0085  0.3449
19830SOL     OW69803   6.147   6.730   6.978 -0.1188  0.2470  0.1971
19830SOL    HW169804   6.197   6.692   7.050  0.9881  0.3755 -0.4725
19830SOL    HW269805   6.160   6.669   6.905 -1.0505  0.2271  0.0405
19831SOL     OW69806   4.732  12.199   5.701  0.0574  0.0928  0.5310
19831SOL    HW169807   4.826  12.185   5.712 -0.1972 -0.2284  3.0034
19831SOL    HW269808   4.692  12.129   5.754 -1.6536 -1.1109 -2.1583
19832SOL     OW69809   8.930  10.825   5.276  0.1066  0.0135 -0.3259
19832SOL    HW169810   8.890  10.851   5.193  1.3412  0.0945 -0.9133
19832SOL    HW269811   8.875  10.753   5.308  0.4894 -1.0662 -1.9811
19833SOL     OW69812   6.693  10.245  10.669 -0.6773 -0.1965  0.0657
19833SOL    HW169813   6.671  10.160  10.633 -0.3583 -0.2460 -0.0178
19833SOL    HW269814   6.755  10.283  10.606  1.0005 -0.8778  1.2367
19834SOL     OW69815  10.362   6.358   8.060 -0.4330  0.2393  0.0263
19834SOL    HW169816  10.331   6.400   7.979 -1.6138  1.4813  1.0781
19834SOL    HW269817  10.367   6.430   8.123  0.1513 -0.7776  1.1573
19835SOL     OW69818  12.437  10.944  12.420  0.3289  0.3577 -0.5249
19835SOL    HW169819  12.513  10.894  12.448 -0.1441 -0.2982 -0.3980
19835SOL    HW269820  12.443  11.027  12.468  0.8481  0.2251 -0.3607
19836SOL     OW69821   1.265   4.646  11.717  0.0087 -0.0775  0.1554
19836SOL    HW169822   1.225   4.708  11.778 -1.4473  0.1863 -1.0203
19836SOL    HW269823   1.242   4.680  11.630 -1.6935 -2.7334 -0.5359
19837SOL     OW69824  12.320   2.954  12.655 -0.1856  0.1876  0.7886
19837SOL    HW169825  12.332   2.992  12.742  1.9738  0.8216  0.2643
19837SOL    HW269826  12.345   3.024  12.595 -3.6400  0.5295 -0.5093
19838SOL     OW69827   5.844  11.446  11.183 -0.8713 -0.1489  0.2311
19838SOL    HW169828   5.829  11.534  11.217  0.1687 -0.0319  0.4119
19838SOL    HW269829   5.874  11.395  11.258 -2.5229 -0.9707  0.3836
19839SOL     OW69830   2.107  10.640   1.404  0.5561 -0.0780  0.1740
19839SOL    HW169831   2.054  10.711   1.366  1.2728  0.2163 -0.3015
19839SOL    HW269832   2.065  10.620   1.487 -0.6817 -0.2914 -0.4858
19840SOL     OW69833   5.284   5.596  10.234  0.0931 -0.3794 -0.0645
19840SOL    HW169834   5.267   5.659  10.304  1.6914  1.2477 -1.0656
19840SOL    HW269835   5.273   5.510  10.276 -2.4734  0.4927  1.2497
19841SOL     OW69836  11.862   2.636   6.813  0.2829 -0.0077 -0.3537
19841SOL    HW169837  11.826   2.557   6.852  0.0477  0.0624 -0.4231
19841SOL    HW269838  11.862   2.700   6.885 -0.5689  0.2538 -0.5682
19842SOL     OW69839   0.579  12.160   5.106 -0.0727 -0.3087  0.5374
19842SOL    HW169840   0.615  12.123   5.025 -1.2924  0.8899 -0.6156
19842SOL    HW269841   0.642  12.227   5.132 -0.0786 -0.1254  0.0889
19843SOL     OW69842  10.397   2.715  10.078  0.0887  0.3900  0.1121
19843SOL    HW169843  10.363   2.635  10.039  0.1719  0.6835 -0.5722
19843SOL    HW269844  10.352   2.786  10.033 -1.2106  0.7289  1.8536
19844SOL     OW69845   1.567   5.043   2.507  0.7247  0.0904 -0.0124
19844SOL    HW169846   1.506   5.062   2.436  0.3302 -1.8857 -0.2694
19844SOL    HW269847   1.545   5.106   2.576  0.0143  0.9661 -1.0172
19845SOL     OW69848  11.155   2.363   3.710  0.1837 -0.1273 -0.1503
19845SOL    HW169849  11.068   2.366   3.750  1.0590 -0.7762  1.8863
19845SOL    HW269850  11.177   2.454   3.694 -0.7541  0.0606 -0.4621
19846SOL     OW69851  11.934   2.431   1.338 -0.3139 -0.6427 -0.0975
19846SOL    HW169852  11.880   2.509   1.343 -0.2157 -0.4507 -1.5323
19846SOL    HW269853  11.935   2.396   1.427  1.4135  2.1555  1.1064
19847SOL     OW69854   9.843   7.156   9.687  0.3845  0.9865  0.4877
19847SOL    HW169855   9.766   7.141   9.741  0.5737  1.2019  0.8207
19847SOL    HW269856   9.836   7.091   9.617  0.4263  0.3338  1.0816
19848SOL     OW69857   2.490   3.428   3.073  0.3276  0.1880  0.1913
19848SOL    HW169858   2.548   3.377   3.130 -0.5310 -0.4078  0.5546
19848SOL    HW269859   2.410   3.375   3.067  0.5688 -0.0163 -1.9966
19849SOL     OW69860  11.873  11.804   2.231  0.3914  0.0912  0.3459
19849SOL    HW169861  11.949  11.852   2.197  0.8857 -0.0077  1.2855
19849SOL    HW269862  11.874  11.721   2.183  0.9470  0.0427  0.4316
19850SOL     OW69863   3.795   3.458   6.860 -0.2504  0.1475  0.4251
19850SOL    HW169864   3.862   3.526   6.867 -0.4625  0.8996 -2.9270
19850SOL    HW269865   3.722   3.489   6.914  0.6776  1.2112  1.1041
19851SOL     OW69866  10.269   9.355  10.985  0.2746  0.9551 -0.0716
19851SOL    HW169867  10.257   9.318  11.072 -0.0122 -0.9093 -0.8662
19851SOL    HW269868  10.353   9.400  10.990  0.4425  0.5461  1.0538
19852SOL     OW69869  11.451   1.260   3.466  0.1549  0.0294  0.0528
19852SOL    HW169870  11.383   1.193   3.472  0.5257 -0.3126  0.5712
19852SOL    HW269871  11.461   1.292   3.556  1.0026 -0.2530  0.0617
19853SOL     OW69872   5.441  12.641   9.140  0.2317 -0.4472 -0.3077
19853SOL    HW169873   5.365  12.640   9.082 -1.9402 -0.1623  2.3563
19853SOL    HW269874   5.482  12.726   9.125 -0.6251 -0.1439 -1.0111
19854SOL     OW69875   0.513   5.589   8.452 -0.5712 -0.0406 -0.3819
19854SOL    HW169876   0.602   5.566   8.426 -0.5027  0.3010 -0.4459
19854SOL    HW269877   0.458   5.562   8.377 -0.5283 -0.2968 -0.3217
19855SOL     OW69878   9.287   8.000   2.950 -0.1074 -0.3382 -0.7582
19855SOL    HW169879   9.312   8.092   2.937  2.5550 -0.8055  0.2931
19855SOL    HW269880   9.216   8.004   3.014 -0.9997  1.0352 -1.7823
19856SOL     OW69881   9.753  11.545   2.461  0.1615 -0.3687 -0.1514
19856SOL    HW169882   9.733  11.536   2.554  2.7969 -2.7283  0.3215
19856SOL    HW269883   9.846  11.521   2.454 -0.0047 -0.4573 -3.4074
19857SOL     OW69884   8.463   4.723   5.774  0.3708 -0.4540 -0.0935
19857SOL    HW169885   8.515   4.648   5.800 -0.3840 -0.9208  0.1040
19857SOL    HW269886   8.525   4.796   5.773  0.6172 -0.5258  2.3636
19858SOL     OW69887  11.000   3.067   3.256  0.8751 -0.1619  0.5348
19858SOL    HW169888  11.012   3.007   3.330 -1.7730  0.1240  1.3255
19858SOL    HW269889  10.952   3.014   3.191  0.1138  0.5775  0.4868
19859SOL     OW69890  11.695   7.241  12.075 -0.5607  0.4936  0.4746
19859SOL    HW169891  11.627   7.303  12.047  0.6059  1.6211  0.0682
19859SOL    HW269892  11.758   7.295  12.123  0.4668 -0.3792  0.1316
19860SOL     OW69893   1.269   9.585   9.105 -0.5249  0.1404  0.4166
19860SOL    HW169894   1.256   9.678   9.124  0.5755  0.0174  2.0435
19860SOL    HW269895   1.200   9.541   9.155  1.5167 -0.0961  3.3233
19861SOL     OW69896  12.300   3.712   9.464  0.2107 -0.0063  0.3360
19861SOL    HW169897  12.363   3.645   9.493 -1.0578 -1.4642 -0.1704
19861SOL    HW269898  12.236   3.715   9.535 -1.6170 -1.8802 -1.1366
19862SOL     OW69899  12.091   6.989  10.116  0.0993 -0.1635  0.7822
19862SOL    HW169900  12.154   7.034  10.060  0.8518 -0.8020  1.1108
19862SOL    HW269901  12.085   6.901  10.079 -1.0364  0.0424  0.4108
19863SOL     OW69902   8.033   8.072   0.936 -0.3674  0.0372  0.1957
19863SOL    HW169903   8.044   8.077   0.841 -1.8078  0.3490  0.0214
19863SOL    HW269904   8.122   8.072   0.971  0.2486 -1.6216 -1.2152
19864SOL     OW69905   7.769   7.582   8.366 -0.0483 -0.1566  0.4503
19864SOL    HW169906   7.829   7.538   8.426  0.5486  1.0149  0.7407
19864SOL    HW269907   7.691   7.599   8.418 -1.1006 -2.5497 -0.1851
19865SOL     OW69908  10.554  10.057   3.627  0.1061  0.2297 -0.2816
19865SOL    HW169909  10.591  10.023   3.709  1.6904 -0.8847 -1.3999
19865SOL    HW269910  10.527   9.979   3.579 -1.7042  0.9224 -0.4451
19866SOL     OW69911  11.846  11.093  10.931 -0.1029  0.4534  0.1918
19866SOL    HW169912  11.841  11.032  10.857 -2.4712  1.8727 -0.9624
19866SOL    HW269913  11.778  11.063  10.991  0.1935  0.7084  0.6635
19867SOL     OW69914   6.427   1.167   9.506  0.4027 -0.3874 -0.7230
19867SOL    HW169915   6.479   1.106   9.454  1.2450 -0.7848  0.5499
19867SOL    HW269916   6.448   1.146   9.596 -1.3910 -0.0163 -0.1804
19868SOL     OW69917   9.001  11.151   4.103  0.0224  0.9503  0.7422
19868SOL    HW169918   8.912  11.167   4.073  0.5175  0.5930 -1.0554
19868SOL    HW269919   8.991  11.103   4.185 -1.4743 -0.1469 -0.0384
19869SOL     OW69920   0.116   3.358  10.584 -0.1446  0.0329  0.3013
19869SOL    HW169921   0.203   3.373  10.621  0.2234 -0.0080 -0.5411
19869SOL    HW269922   0.069   3.440  10.598 -0.0328 -0.0007  0.9062
19870SOL     OW69923   9.304   3.118   0.178 -0.3695  0.3009  0.2626
19870SOL    HW169924   9.264   3.069   0.250 -0.4781 -0.5718 -0.3857
19870SOL    HW269925   9.397   3.124   0.202 -0.5228  0.6272  0.8082
19871SOL     OW69926   8.707   2.629  11.479 -0.0377 -0.8005 -0.5155
19871SOL    HW169927   8.640   2.696  11.494 -0.0134 -0.7470 -0.6526
19871SOL    HW269928   8.740   2.609  11.567  0.8371  0.2685 -0.5769
19872SOL     OW69929  11.790   0.267   0.814  0.0720 -0.4142  0.4772
19872SOL    HW169930  11.697   0.285   0.829  0.3538  0.5879  1.0912
19872SOL    HW269931  11.790   0.185   0.764 -1.1419 -0.3624  0.3466
19873SOL     OW69932   7.605   1.331   3.248  0.1704  0.0972  0.4539
19873SOL    HW169933   7.690   1.335   3.204 -0.1127 -1.5032 -0.3235
19873SOL    HW269934   7.568   1.418   3.238 -0.0702 -0.2961 -2.9162
19874SOL     OW69935   4.460   4.282   8.538 -0.4176  0.1093 -0.0675
19874SOL    HW169936   4.539   4.235   8.511  0.1197  0.6545  0.4850
19874SOL    HW269937   4.448   4.258   8.630  1.6994  3.3284  1.2501
19875SOL     OW69938   6.234  12.133   1.900  0.5642 -0.2641 -0.0409
19875SOL    HW169939   6.287  12.089   1.834 -1.0033 -0.8275 -0.9875
19875SOL    HW269940   6.167  12.068   1.924  0.8029  0.1001  1.7659
19876SOL     OW69941   3.436   0.858   3.979  0.0171 -0.4698 -0.2568
19876SOL    HW169942   3.414   0.791   4.044  1.3244  0.9904  1.8090
19876SOL    HW269943   3.431   0.941   4.027  4.2035  0.4461 -1.0013
19877SOL     OW69944   5.696   4.035   6.074 -0.3467  0.4333  0.1847
19877SOL    HW169945   5.751   4.005   6.002 -1.3489 -0.6662 -0.1587
19877SOL    HW269946   5.681   4.128   6.056  0.1490  0.3854 -0.5254
19878SOL     OW69947   0.115   0.640  12.337  0.1956  0.3041 -0.0999
19878SOL    HW169948   0.171   0.628  12.413 -0.7325  0.3958  0.6248
19878SOL    HW269949   0.073   0.725  12.352  0.2083  0.4464 -0.8466
19879SOL     OW69950   9.850   7.774  11.863  0.3043 -0.2576  0.5258
19879SOL    HW169951   9.836   7.837  11.934  0.9003  0.9507 -0.3803
19879SOL    HW269952   9.930   7.806  11.820 -0.2719 -0.7362 -0.9200
19880SOL     OW69953   2.339  10.393   8.743 -0.0632  0.2198 -0.3490
19880SOL    HW169954   2.319  10.428   8.657 -2.2309 -1.8085 -0.7711
19880SOL    HW269955   2.413  10.334   8.729 -0.2302  0.1116 -0.7800
19881SOL     OW69956   9.094   0.171   9.922  0.2619 -0.4216 -0.1682
19881SOL    HW169957   9.032   0.201   9.988 -0.3572 -0.8638 -0.5455
19881SOL    HW269958   9.054   0.094   9.884  0.2457  0.2701 -1.6074
19882SOL     OW69959   3.781   5.906   6.337 -0.0211 -0.1820 -0.1322
19882SOL    HW169960   3.850   5.858   6.291  0.9958  1.0187  0.0920
19882SOL    HW269961   3.699   5.869   6.303  0.7201 -2.2488  0.2625
19883SOL     OW69962   7.065  12.341   6.707 -0.0089 -0.1380  0.0302
19883SOL    HW169963   7.042  12.329   6.615  1.4571  0.6084 -0.4737
19883SOL    HW269964   7.047  12.433   6.725  2.0052  0.3654 -0.2668
19884SOL     OW69965   3.250   6.346   0.312  0.6395 -0.1427  0.2672
19884SOL    HW169966   3.292   6.264   0.340  0.3432  0.1975  1.8333
19884SOL    HW269967   3.166   6.319   0.275  0.0501 -0.5183  1.7781
19885SOL     OW69968  12.494   4.711   7.860  0.0713 -0.2488  0.0959
19885SOL    HW169969  12.514   4.658   7.937  1.2457 -2.4294 -1.6001
19885SOL    HW269970  12.428   4.660   7.812  0.1995  0.4943 -0.9096
19886SOL     OW69971   0.012  11.452   3.759 -0.2228 -0.0707  0.3011
19886SOL    HW169972  -0.057  11.479   3.820 -0.1976  1.1281 -0.1670
19886SOL    HW269973  -0.022  11.474   3.672  0.3495 -0.3816 -0.0102
19887SOL     OW69974   7.988   6.960   5.437 -0.4643 -0.9332  0.1252
19887SOL    HW169975   8.007   6.881   5.386  1.7613 -0.8586  0.7266
19887SOL    HW269976   8.013   6.937   5.526 -2.0056 -0.2713  0.7584
19888SOL     OW69977   4.298   3.121  12.013  0.4037  0.1720  0.6832
19888SOL    HW169978   4.323   3.131  11.921  1.0244 -1.9248  0.5626
19888SOL    HW269979   4.208   3.087  12.010 -0.0323  1.2598  0.9160
19889SOL     OW69980  12.312   4.540   4.466  0.4545  0.1760 -0.0232
19889SOL    HW169981  12.377   4.540   4.537  0.1699  0.4929  0.2397
19889SOL    HW269982  12.322   4.454   4.425 -1.0574 -1.0382  1.9610
19890SOL     OW69983   0.957   3.765  10.568 -0.0540 -0.6267  0.0153
19890SOL    HW169984   0.927   3.753  10.478 -2.2129 -1.5843  0.7926
19890SOL    HW269985   0.899   3.832  10.604 -1.5674 -2.6604  1.6287
19891SOL     OW69986  11.876  11.092   9.982 -0.0896 -0.0910 -0.0122
19891SOL    HW169987  11.807  11.053  10.036  1.0040 -0.0914  1.4450
19891SOL    HW269988  11.872  11.185  10.002 -1.0909  0.2384 -1.6252
19892SOL     OW69989   3.582   8.386   4.950  0.1837  0.1853 -0.3010
19892SOL    HW169990   3.506   8.389   4.892 -0.3350  0.9583  0.3969
19892SOL    HW269991   3.548   8.353   5.033  1.0018 -1.3476 -0.5267
19893SOL     OW69992   8.976   9.133   0.348 -0.1856 -0.3008  0.1576
19893SOL    HW169993   8.956   9.188   0.424  1.6435  0.3237  0.2277
19893SOL    HW269994   9.051   9.175   0.307 -0.2465 -1.4286 -1.1990
19894SOL     OW69995  11.861  12.547   2.251  0.1465 -0.2562  0.0378
19894SOL    HW169996  11.951  12.516   2.262  0.2053  0.0072  0.3305
19894SOL    HW269997  11.852  12.564   2.158  0.0902 -1.2213 -0.1392
19895SOL     OW69998  12.733   8.489  10.078  0.0745  0.4816 -0.0875
19895SOL    HW169999  12.684   8.408  10.082  1.2795 -0.2621  0.0730
19895SOL    HW270000  12.779   8.486   9.994  0.9215  0.4935  0.3573
19896SOL     OW70001   8.298   1.245   9.051 -0.2350  0.1499 -0.2435
19896SOL    HW170002   8.323   1.316   9.110 -2.3611  1.0314 -0.3141
19896SOL    HW270003   8.378   1.227   9.001  0.7864  1.4050  0.8418
19897SOL     OW70004   7.001   6.192  11.816 -0.3005 -0.0342  0.1895
19897SOL    HW170005   7.055   6.128  11.770 -1.6097 -1.4611  0.5472
19897SOL    HW270006   7.045   6.205  11.900 -1.4508 -2.7433  1.3359
19898SOL     OW70007   4.851   8.686   9.888 -0.0776 -0.2422  0.3378
19898SOL    HW170008   4.825   8.594   9.890  0.7493 -0.4733  0.8270
19898SOL    HW270009   4.890   8.698   9.801 -1.5361  0.0488 -0.3133
19899SOL     OW70010   8.914  11.835   5.857  0.4603  0.5457  0.6973
19899SOL    HW170011   8.994  11.831   5.909  0.3011 -0.0255  0.9040
19899SOL    HW270012   8.913  11.753   5.808  1.0187  1.4264 -0.8487
19900SOL     OW70013   4.561   8.003   2.565  0.0725 -0.2606 -0.0642
19900SOL    HW170014   4.503   7.966   2.498 -2.5737  1.2942  1.2148
19900SOL    HW270015   4.622   8.058   2.515 -0.5691 -0.6840 -1.3678
19901SOL     OW70016   8.725  12.327   6.315  0.0253 -0.3508 -0.4939
19901SOL    HW170017   8.766  12.315   6.401 -0.2333  0.1672 -0.2873
19901SOL    HW270018   8.748  12.416   6.290 -0.0174 -0.4520 -0.9022
19902SOL     OW70019   0.783   8.948   6.556  0.5590 -0.0868 -0.0179
19902SOL    HW170020   0.767   8.932   6.649  0.0991  0.6541  0.0348
19902SOL    HW270021   0.765   8.864   6.514 -0.9628  0.0309  0.3539
19903SOL     OW70022   8.329   8.732   8.218  0.1844  0.1812  0.6948
19903SOL    HW170023   8.384   8.728   8.297  2.1866  0.1723 -0.6309
19903SOL    HW270024   8.321   8.826   8.199  0.5958  0.1414  0.3211
19904SOL     OW70025  10.800   1.416  10.886  0.0565 -0.1651  0.5707
19904SOL    HW170026  10.770   1.489  10.940 -1.2097 -0.7862  0.7596
19904SOL    HW270027  10.884   1.390  10.925  0.1882  0.7521  0.9130
19905SOL     OW70028   9.839  12.610   5.893 -0.3793 -0.7248  0.6113
19905SOL    HW170029   9.909  12.592   5.830  0.4150  0.5158  1.1141
19905SOL    HW270030   9.759  12.578   5.849  0.0766  0.4746 -1.2036
19906SOL     OW70031   3.181   5.089   8.582  0.7404  0.1952  0.3096
19906SOL    HW170032   3.239   5.126   8.516  0.0334  1.2112  0.2366
19906SOL    HW270033   3.128   5.025   8.534  1.1133 -0.0110  0.1707
19907SOL     OW70034  11.136   4.876   7.197  0.8372 -0.2974 -0.3590
19907SOL    HW170035  11.217   4.842   7.235  1.0118  0.5312  0.0317
19907SOL    HW270036  11.077   4.885   7.271  1.2279  1.4718 -0.2225
19908SOL     OW70037   8.834   2.464   0.053 -0.2719 -0.3132 -0.0638
19908SOL    HW170038   8.896   2.494   0.120  1.9976 -2.6165 -0.9850
19908SOL    HW270039   8.758   2.436   0.103  0.0049  1.1192  1.2576
19909SOL     OW70040   3.939  12.058  10.971 -0.1409  0.1303  0.2473
19909SOL    HW170041   3.875  12.101  10.914 -0.1706  0.0003  0.1828
19909SOL    HW270042   3.893  12.048  11.054 -0.3179 -0.2582  0.1063
19910SOL     OW70043   9.872  10.226   6.344 -0.0038  0.1989  0.5059
19910SOL    HW170044   9.799  10.169   6.369  0.2170  0.0058  0.7103
19910SOL    HW270045   9.872  10.225   6.249  1.9974 -2.7379  0.4207
19911SOL     OW70046   4.452   9.129  12.897 -0.3599  0.1457  0.2481
19911SOL    HW170047   4.372   9.181  12.910 -0.5326 -0.5477  2.4919
19911SOL    HW270048   4.517   9.172  12.952  0.2098 -0.5336  0.1055
19912SOL     OW70049   8.277  12.692  12.525 -0.2600 -0.1803  0.2013
19912SOL    HW170050   8.273  12.726  12.615 -0.0950  0.3456  0.0110
19912SOL    HW270051   8.291  12.598  12.536 -0.6004 -0.1735  0.7315
19913SOL     OW70052   3.716   1.171   0.723  0.2222 -0.2752  0.0353
19913SOL    HW170053   3.622   1.159   0.734  0.6049 -1.9009  2.3857
19913SOL    HW270054   3.748   1.087   0.691  0.8380  0.4421 -1.3011
19914SOL     OW70055   8.931  12.197   4.381  0.1498 -0.0425  0.8317
19914SOL    HW170056   8.985  12.224   4.456  2.1945 -0.6646 -0.3497
19914SOL    HW270057   8.959  12.108   4.362 -1.2439 -0.3459  0.0799
19915SOL     OW70058   3.823   0.243   7.011  0.4984  0.2150 -0.2405
19915SOL    HW170059   3.754   0.230   7.076  0.5946  1.3836  0.1120
19915SOL    HW270060   3.795   0.192   6.936  0.8541 -1.9841  1.0265
19916SOL     OW70061   2.259   5.925   7.132  0.0880  0.2347  0.3212
19916SOL    HW170062   2.338   5.922   7.185  0.5293  0.5457 -0.3089
19916SOL    HW270063   2.205   5.993   7.174  0.8946  1.2590 -0.2440
19917SOL     OW70064   0.748  10.351  12.445 -0.1571  0.3922  0.0318
19917SOL    HW170065   0.745  10.277  12.383  0.5067  0.9950 -0.7453
19917SOL    HW270066   0.687  10.327  12.514  1.6017 -1.9058  0.9338
19918SOL     OW70067   9.601  10.468  11.538 -0.5564  0.2755 -0.7379
19918SOL    HW170068   9.570  10.489  11.626  0.2788 -0.1395 -0.3313
19918SOL    HW270069   9.586  10.547  11.487 -1.0329  0.5234 -0.2216
19919SOL     OW70070  12.843   8.415  11.249 -0.1030  0.1643 -0.5528
19919SOL    HW170071  12.882   8.471  11.316  0.7235 -0.3279 -0.6190
19919SOL    HW270072  12.876   8.451  11.166  1.3166 -1.0765 -0.5486
19920SOL     OW70073   6.111   3.362   4.798 -0.0389  0.4667  0.2147
19920SOL    HW170074   6.183   3.367   4.861  0.5423  1.0018 -0.4770
19920SOL    HW270075   6.068   3.448   4.805 -1.6444 -0.3951  1.7926
19921SOL     OW70076  10.727   4.520  11.514 -0.0949 -0.6628 -0.3034
19921SOL    HW170077  10.805   4.465  11.514  0.3353 -0.0795 -1.1550
19921SOL    HW270078  10.673   4.484  11.443 -0.5236 -0.9608  0.1744
19922SOL     OW70079   8.672   5.383   4.349  0.1151 -0.0875 -0.1500
19922SOL    HW170080   8.716   5.360   4.267  2.0634  1.8241  0.2531
19922SOL    HW270081   8.599   5.439   4.322  0.0682 -0.3723 -0.6259
19923SOL     OW70082   5.142   5.594   6.045 -0.4912  0.4328  0.4717
19923SOL    HW170083   5.177   5.600   6.134  0.3701  0.9043  0.1137
19923SOL    HW270084   5.057   5.638   6.049  0.2674  1.9297  0.6994
19924SOL     OW70085  11.344   5.698   1.652 -0.0091  0.1133 -0.3653
19924SOL    HW170086  11.300   5.743   1.724 -0.9248  0.0033 -0.8462
19924SOL    HW270087  11.290   5.621   1.635  1.7937 -1.5142  0.7853
19925SOL     OW70088   8.615   8.351   7.815  0.2691  0.0576  0.1808
19925SOL    HW170089   8.592   8.436   7.777  1.4869  0.0032 -0.7099
19925SOL    HW270090   8.709   8.344   7.804 -0.0014 -2.1110 -1.2550
19926SOL     OW70091   8.487  12.921   6.194  0.3612 -0.6373  0.4378
19926SOL    HW170092   8.465  12.850   6.134  0.3048 -1.1355  1.0395
19926SOL    HW270093   8.572  12.952   6.164  0.3041 -0.8407  0.0615
19927SOL     OW70094  12.340   6.131   9.570  1.0519 -0.4925  0.7813
19927SOL    HW170095  12.339   6.114   9.476  0.4193 -0.6598  0.8085
19927SOL    HW270096  12.327   6.045   9.610  0.5139 -0.3188  0.9957
19928SOL     OW70097   2.870  10.164   5.989 -0.0186 -0.2804 -0.2948
19928SOL    HW170098   2.951  10.214   5.977  0.2052 -0.3038  0.9347
19928SOL    HW270099   2.810  10.227   6.030  0.5219 -1.1621  2.0339
19929SOL     OW70100   8.330  12.516   7.569  0.3277  0.0835  0.8052
19929SOL    HW170101   8.369  12.463   7.638  1.7872 -2.0433 -1.4723
19929SOL    HW270102   8.252  12.468   7.543  1.3611 -0.7542 -0.9138
19930SOL     OW70103   5.043   7.313   8.333 -0.5723  0.5347  0.2383
19930SOL    HW170104   4.983   7.337   8.262  0.2996 -0.1656 -0.7890
19930SOL    HW270105   5.067   7.396   8.374  0.3985  1.2254 -1.5722
19931SOL     OW70106   8.285  10.907  10.954  0.7394 -0.7209 -0.1872
19931SOL    HW170107   8.214  10.915  11.018 -0.0036 -0.4679 -1.0296
19931SOL    HW270108   8.337  10.986  10.967  0.5293 -0.6178  0.0392
19932SOL     OW70109   8.754   2.728  11.056  0.1010 -0.0899 -0.0170
19932SOL    HW170110   8.729   2.752  10.966  1.5162 -1.2248 -0.7593
19932SOL    HW270111   8.673   2.700  11.097 -0.6065  0.6562 -0.8591
19933SOL     OW70112   2.593  12.355  10.945  0.1570 -0.1801 -0.3935
19933SOL    HW170113   2.679  12.393  10.966  0.2327 -0.5543  0.0010
19933SOL    HW270114   2.567  12.398  10.864 -0.2499  1.4748  0.5842
19934SOL     OW70115  12.272   6.126   9.294 -0.5638  0.1630 -0.5622
19934SOL    HW170116  12.215   6.050   9.298 -0.1128 -0.2132 -1.0120
19934SOL    HW270117  12.213   6.201   9.291 -1.0171 -0.1858 -0.3543
19935SOL     OW70118   5.776   5.376   7.463  0.4808 -0.4146 -0.4578
19935SOL    HW170119   5.694   5.407   7.425 -0.2951 -2.7524 -0.8468
19935SOL    HW270120   5.752   5.298   7.512  2.4143 -0.9404 -0.2578
19936SOL     OW70121   1.719  12.823  11.253 -0.1051 -0.1965 -0.0641
19936SOL    HW170122   1.791  12.759  11.258 -0.6412 -0.8497 -0.5922
19936SOL    HW270123   1.689  12.819  11.163 -1.4618 -0.6677  0.3796
19937SOL     OW70124   2.073   2.868   4.334  0.0565 -0.0455 -0.4775
19937SOL    HW170125   2.026   2.939   4.376 -0.6327 -0.3849 -0.6660
19937SOL    HW270126   2.166   2.891   4.345 -0.1184  0.1956  0.6420
19938SOL     OW70127   1.321   1.700  11.679 -0.8163 -0.1531  0.3006
19938SOL    HW170128   1.294   1.716  11.588  0.7998  1.7217  0.0816
19938SOL    HW270129   1.277   1.767  11.730 -0.9366 -0.5784  0.7617
19939SOL     OW70130   5.837   3.767   5.517  0.2272  0.2181  0.6665
19939SOL    HW170131   5.869   3.718   5.441 -1.8116  1.4022 -1.0519
19939SOL    HW270132   5.865   3.714   5.592  2.8791 -0.6760 -0.8071
19940SOL     OW70133   4.813   8.425   8.144 -0.3260  0.4812 -0.1765
19940SOL    HW170134   4.777   8.446   8.057  1.4333  0.8492 -0.8487
19940SOL    HW270135   4.749   8.462   8.205  0.0154  3.2080 -1.3104
19941SOL     OW70136   7.348  12.575   8.007 -0.0499  0.2666 -0.8281
19941SOL    HW170137   7.272  12.599   8.061 -0.8103 -0.0097 -1.7615
19941SOL    HW270138   7.397  12.657   7.999 -0.5207  0.5742 -0.6563
19942SOL     OW70139   3.929  10.136   4.490 -0.2521 -0.0964 -0.0249
19942SOL    HW170140   3.986  10.090   4.552 -0.2999  0.6264  0.5694
19942SOL    HW270141   3.898  10.213   4.538  2.7728  2.6787 -2.1245
19943SOL     OW70142   0.893   1.818   6.273 -0.1165 -0.7685  0.8419
19943SOL    HW170143   0.884   1.881   6.344 -0.1072  1.2107 -0.8308
19943SOL    HW270144   0.806   1.814   6.233  0.6603  0.8381 -1.1529
19944SOL     OW70145   1.051   0.308   2.193  0.4033  0.5410 -0.6687
19944SOL    HW170146   1.008   0.363   2.127  0.0554  1.2837  0.1446
19944SOL    HW270147   1.045   0.359   2.274  0.5413 -0.4801  0.0068
19945SOL     OW70148   5.943  10.440  12.407  0.0471  0.2709 -0.7779
19945SOL    HW170149   5.917  10.465  12.319 -1.1615 -0.6587 -0.7052
19945SOL    HW270150   5.898  10.357  12.423  1.5916 -0.4533  0.0826
19946SOL     OW70151  12.756   8.191   6.586  0.1184 -0.5056  0.5561
19946SOL    HW170152  12.800   8.272   6.562 -1.2883  0.4351  1.0432
19946SOL    HW270153  12.676   8.191   6.533  0.1587 -1.6532  0.4628
19947SOL     OW70154   6.013   6.274   2.340 -0.0694  0.1088  0.8764
19947SOL    HW170155   6.043   6.226   2.417  0.8293 -0.3052  0.2816
19947SOL    HW270156   6.029   6.366   2.361  0.2002 -0.0044  1.1645
19948SOL     OW70157   1.202   7.433   6.129 -0.7609  0.0449  0.2473
19948SOL    HW170158   1.287   7.476   6.118 -1.0957  0.9782  1.0826
19948SOL    HW270159   1.211   7.385   6.211 -0.4629 -1.3458 -0.5746
19949SOL     OW70160   3.190   5.885   7.425 -0.2833 -0.5358 -0.6037
19949SOL    HW170161   3.171   5.847   7.339  0.2239 -1.2721 -0.4035
19949SOL    HW270162   3.168   5.815   7.486 -0.7569  0.0312 -0.1264
19950SOL     OW70163   1.493   6.273  11.012  0.6499  0.1823 -0.3484
19950SOL    HW170164   1.528   6.270  11.101  0.0755  0.5559 -0.0975
19950SOL    HW270165   1.567   6.252  10.956  2.4747  4.7900 -0.1485
19951SOL     OW70166   2.481   2.653   4.555  0.0153 -0.1788 -0.2489
19951SOL    HW170167   2.571   2.630   4.533  0.0414 -0.4729  0.1481
19951SOL    HW270168   2.464   2.606   4.637  0.6557  2.5784  1.5931
19952SOL     OW70169  10.834   3.554  12.896 -0.4051 -0.4643  0.9718
19952SOL    HW170170  10.813   3.555  12.989  1.7461  0.3871  1.5095
19952SOL    HW270171  10.929   3.541  12.893 -0.4587 -0.6804 -1.1106
19953SOL     OW70172   5.787   1.639  12.267  0.4303 -0.1558  0.1618
19953SOL    HW170173   5.856   1.618  12.204 -1.4796 -0.6711 -1.8719
19953SOL    HW270174   5.747   1.554  12.287 -0.6081  0.3017  0.0759
19954SOL     OW70175  10.553  10.792   1.142 -0.0597 -0.3586 -0.2379
19954SOL    HW170176  10.561  10.714   1.087 -0.6387 -0.5444 -0.0646
19954SOL    HW270177  10.551  10.757   1.232 -2.4229 -0.3470 -0.2189
19955SOL     OW70178   9.630   2.367   0.408  0.0506 -0.0869 -0.3558
19955SOL    HW170179   9.673   2.390   0.490  1.9054 -1.1982 -0.9253
19955SOL    HW270180   9.622   2.271   0.412 -1.2203 -0.0128 -0.8403
19956SOL     OW70181   7.603  11.839   1.495 -0.4588  0.3078 -0.2423
19956SOL    HW170182   7.630  11.922   1.535  0.4091  0.1324 -0.4371
19956SOL    HW270183   7.544  11.865   1.424  3.3012  1.2285 -3.3838
19957SOL     OW70184   2.727   4.994  10.809 -0.3905  0.1731  0.0181
19957SOL    HW170185   2.697   4.903  10.802 -0.8447  0.2450  0.8611
19957SOL    HW270186   2.814   4.994  10.771  0.8730 -1.2671  2.6803
19958SOL     OW70187  10.349   0.092   8.268  0.3583  0.0813 -0.4449
19958SOL    HW170188  10.335   0.184   8.291 -1.9082 -0.3404  0.0805
19958SOL    HW270189  10.329   0.087   8.174 -0.7428 -0.0856 -0.2074
19959SOL     OW70190   8.490  11.273   5.018 -0.4701  0.3131  0.0975
19959SOL    HW170191   8.458  11.261   4.928  1.1408  2.2336 -0.8161
19959SOL    HW270192   8.468  11.363   5.039  0.9406  0.5098  0.8407
19960SOL     OW70193   0.942   5.512  10.644  0.2781 -0.0265  0.3349
19960SOL    HW170194   0.897   5.514  10.559  0.5202  0.1922  0.2083
19960SOL    HW270195   1.025   5.468  10.626 -0.6584 -2.1770  0.9654
19961SOL     OW70196  11.569   8.079   4.639 -0.0957 -0.2812  0.3975
19961SOL    HW170197  11.498   8.064   4.577  0.4031 -0.5444 -0.1111
19961SOL    HW270198  11.524   8.096   4.723 -0.7310 -2.6889  0.6162
19962SOL     OW70199   0.393   6.818   0.126  0.1471  0.5159 -0.4678
19962SOL    HW170200   0.341   6.741   0.105  1.0796 -0.0926 -0.5687
19962SOL    HW270201   0.447   6.833   0.049 -0.4534  1.6429 -0.6928
19963SOL     OW70202   7.527   2.338   1.480  0.2068  0.4795 -0.2368
19963SOL    HW170203   7.440   2.296   1.477 -0.2401  1.3482  0.2231
19963SOL    HW270204   7.581   2.284   1.423 -0.3132 -0.8159  0.4594
19964SOL     OW70205   2.284   0.957   4.488  0.3928 -0.3229  0.4061
19964SOL    HW170206   2.305   0.992   4.574  0.6325 -2.2505  1.1936
19964SOL    HW270207   2.189   0.965   4.480  0.6169  2.5401 -0.4522
19965SOL     OW70208   7.592  12.409   1.805  0.0859  1.0814 -0.1426
19965SOL    HW170209   7.611  12.451   1.889 -0.8193  3.3705 -0.9925
19965SOL    HW270210   7.513  12.356   1.821  0.3104  0.9708  0.5960
19966SOL     OW70211  11.182   7.135   7.548 -0.0719  0.6162  0.0730
19966SOL    HW170212  11.183   7.040   7.560  0.1923  0.7281  0.9992
19966SOL    HW270213  11.111   7.150   7.486 -2.8706  0.1193  2.9158
19967SOL     OW70214   4.054   3.646   5.396  0.1837  0.2927 -0.4056
19967SOL    HW170215   3.978   3.674   5.344 -0.6105  0.4633  0.8085
19967SOL    HW270216   4.035   3.677   5.484  1.7780  0.5187 -0.1139
19968SOL     OW70217   2.057   2.506   2.135 -0.5587  0.1611 -0.2063
19968SOL    HW170218   2.122   2.556   2.184 -0.3841 -0.2537 -0.0151
19968SOL    HW270219   1.998   2.472   2.202 -0.4887 -0.1634 -0.3106
19969SOL     OW70220   2.292   1.390  10.581 -0.5319 -0.0150  0.8694
19969SOL    HW170221   2.212   1.425  10.542 -0.1461  0.4397  0.4704
19969SOL    HW270222   2.263   1.314  10.632 -1.0535 -0.6018 -0.2775
19970SOL     OW70223   7.302   8.844   2.790  0.3395 -0.0680  0.1387
19970SOL    HW170224   7.346   8.759   2.787  0.7183 -0.0643  2.8898
19970SOL    HW270225   7.223   8.832   2.736  2.6732 -0.5902 -3.4896
19971SOL     OW70226  11.709  10.355   9.077  0.4977  0.2549  0.4224
19971SOL    HW170227  11.736  10.321   9.163  2.0787  0.0940 -0.1111
19971SOL    HW270228  11.765  10.310   9.015 -0.0639  0.9888 -0.6429
19972SOL     OW70229   0.370  10.409   7.499 -0.3027  0.0294  0.4739
19972SOL    HW170230   0.385  10.487   7.446 -1.3941  0.0766  0.2138
19972SOL    HW270231   0.444  10.352   7.478  0.9914  1.3352  1.3561
19973SOL     OW70232  10.447   1.226  11.760  0.1913  0.3402 -0.2553
19973SOL    HW170233  10.445   1.320  11.746  0.7834  0.2549 -0.9914
19973SOL    HW270234  10.387   1.211  11.833  1.2860  1.4592  0.9233
19974SOL     OW70235   8.977   2.993  10.318 -0.5763 -0.3121 -0.1148
19974SOL    HW170236   8.995   2.966  10.228  0.5389 -1.9670  0.5712
19974SOL    HW270237   9.039   3.064  10.335  1.0530 -1.7156  0.1312
19975SOL     OW70238   1.858   3.334   7.581  0.0367  0.0468 -0.5021
19975SOL    HW170239   1.820   3.334   7.493 -1.5732 -1.0087  0.1523
19975SOL    HW270240   1.941   3.287   7.571 -0.4243 -0.6293 -1.3381
19976SOL     OW70241   1.136  11.346  12.482 -0.4022  0.4698 -0.0119
19976SOL    HW170242   1.193  11.272  12.504  1.8882  1.9422 -0.6740
19976SOL    HW270243   1.126  11.342  12.387 -2.0608 -0.1649  0.1525
19977SOL     OW70244   1.487   9.648   5.596  0.4067  0.8289  0.3646
19977SOL    HW170245   1.550   9.577   5.606 -1.1460 -0.7936 -0.8292
19977SOL    HW270246   1.439   9.650   5.679  0.7946  0.8564  0.5913
19978SOL     OW70247  12.210   9.316   7.368  0.3936  0.2566 -0.1821
19978SOL    HW170248  12.128   9.322   7.419 -0.1073 -0.2788 -0.8982
19978SOL    HW270249  12.181   9.295   7.280  1.3922 -2.4179  0.0284
19979SOL     OW70250  12.428   2.492  10.942 -0.8125 -0.4484  0.5032
19979SOL    HW170251  12.411   2.417  10.998 -1.2153  0.9023  2.2587
19979SOL    HW270252  12.400   2.568  10.993 -1.0082  0.8798 -1.4435
19980SOL     OW70253   2.892   2.435   4.228  0.3998  0.3788 -0.2824
19980SOL    HW170254   2.964   2.489   4.260 -0.4054  0.5635  1.3039
19980SOL    HW270255   2.875   2.469   4.140  1.9348  0.6274 -0.5138
19981SOL     OW70256   6.477  10.852   5.339  0.9123 -0.4329  0.5274
19981SOL    HW170257   6.522  10.768   5.341  0.2065 -0.8099  1.3491
19981SOL    HW270258   6.428  10.851   5.257  2.6035  0.1279 -0.5478
19982SOL     OW70259   3.977   0.863   8.168  0.1192  0.3609 -0.2803
19982SOL    HW170260   3.993   0.957   8.166 -0.2980  0.4690  0.7584
19982SOL    HW270261   4.060   0.824   8.139  0.7434  1.0310  0.5342
19983SOL     OW70262   3.747   8.637   0.400  0.1981  0.1092  0.9390
19983SOL    HW170263   3.768   8.700   0.331 -0.1784  0.7369  1.3871
19983SOL    HW270264   3.707   8.563   0.355  2.6741 -0.8320  0.1257
19984SOL     OW70265   0.892   3.663   2.480 -0.7182  0.9830 -0.2885
19984SOL    HW170266   0.963   3.616   2.435 -1.6607 -1.1613  0.3342
19984SOL    HW270267   0.863   3.729   2.418  0.7991  0.8883 -1.1428
19985SOL     OW70268  12.727  10.014  11.091  0.1181 -0.2771 -0.5398
19985SOL    HW170269  12.695   9.953  11.157  0.5560 -0.9840 -0.9774
19985SOL    HW270270  12.795  10.064  11.135  0.2861 -0.6252 -0.4016
19986SOL     OW70271   7.045   6.126   7.790  0.0873 -0.1642  0.3382
19986SOL    HW170272   7.123   6.101   7.840 -0.9673 -0.0870  2.1257
19986SOL    HW270273   6.994   6.178   7.852 -0.7235  1.0074 -1.2623
19987SOL     OW70274   2.173   9.014   1.189  0.1442 -0.4896  0.4571
19987SOL    HW170275   2.196   8.921   1.192  0.1228 -0.4766  2.6983
19987SOL    HW270276   2.211   9.051   1.268 -0.0713  1.3894 -0.2522
19988SOL     OW70277  10.908   9.388   8.166 -0.6528 -0.3768 -0.0365
19988SOL    HW170278  10.813   9.390   8.154 -0.5288 -0.8671 -1.2119
19988SOL    HW270279  10.943   9.403   8.079  0.3477 -0.9164  0.2664
19989SOL     OW70280   3.163  11.875   0.885 -0.0505 -0.5888  0.3922
19989SOL    HW170281   3.072  11.874   0.856  0.1342 -0.9428 -0.1977
19989SOL    HW270282   3.212  11.914   0.812 -0.0362  2.1099  1.7395
19990SOL     OW70283   1.145   0.931  11.038 -0.4649 -0.5589  0.0942
19990SOL    HW170284   1.074   0.930  10.973 -0.1479  1.1899 -0.3296
19990SOL    HW270285   1.117   0.868  11.105 -2.8307  0.6726  0.3713
19991SOL     OW70286   6.057   0.058   8.272 -0.5580 -0.1638  0.4236
19991SOL    HW170287   6.080  -0.023   8.227 -1.6203 -0.3414  0.1636
19991SOL    HW270288   6.137   0.111   8.269 -0.1993 -0.7347 -0.4321
19992SOL     OW70289   9.082   8.955   4.034 -0.6036  0.5201 -0.3270
19992SOL    HW170290   9.139   8.889   3.994  0.1618  0.4143  0.8727
19992SOL    HW270291   9.006   8.906   4.065  0.1767  0.0841  0.9794
19993SOL     OW70292   0.023  11.463   1.994  0.4842 -0.1414 -0.3042
19993SOL    HW170293  -0.016  11.395   2.049 -0.1863  0.2100 -0.3313
19993SOL    HW270294  -0.020  11.544   2.023 -0.0873  0.0224 -1.5209
19994SOL     OW70295   3.206   3.529   1.814 -0.5872  0.7170  0.3936
19994SOL    HW170296   3.250   3.558   1.894 -1.6748  1.6040  0.6845
19994SOL    HW270297   3.116   3.559   1.824 -0.9752 -0.0318 -0.7314
19995SOL     OW70298   3.516   7.691   0.130 -0.3759 -0.3732 -0.1936
19995SOL    HW170299   3.421   7.679   0.124 -0.5000  0.3201  0.3327
19995SOL    HW270300   3.542   7.639   0.206 -0.5494  0.5846  0.5375
19996SOL     OW70301   8.922   7.649   0.090 -0.3009 -0.2856  0.1103
19996SOL    HW170302   8.839   7.697   0.088 -0.4748 -0.5891  0.0354
19996SOL    HW270303   8.984   7.706   0.045 -0.5658 -0.2419 -0.2010
19997SOL     OW70304   7.634   3.760   1.862  0.1439  0.2617 -0.1406
19997SOL    HW170305   7.547   3.726   1.840  0.4718 -3.0906  2.8314
19997SOL    HW270306   7.694   3.705   1.812  0.5785 -0.5291  1.1912
19998SOL     OW70307   4.538   8.702   4.843  0.6693  0.1237 -0.4648
19998SOL    HW170308   4.513   8.627   4.897 -0.0957 -0.4318 -1.5742
19998SOL    HW270309   4.456   8.737   4.810  0.9654  1.8367  0.4946
19999SOL     OW70310   8.591   1.971   1.685 -0.2070 -0.1527 -0.0352
19999SOL    HW170311   8.678   1.992   1.719  0.0915 -0.8683 -0.3255
19999SOL    HW270312   8.530   2.008   1.749  0.2852  1.0463 -0.2339
20000SOL     OW70313  12.040  10.064   4.780 -0.2592 -0.6340  0.2409
20000SOL    HW170314  11.977  10.013   4.831 -0.1452 -1.2835 -0.2409
20000SOL    HW270315  12.066  10.135   4.837  2.0406 -2.8928  2.2669
20001SOL     OW70316   4.447  10.289   8.892 -0.2661  0.3081  0.8039
20001SOL    HW170317   4.462  10.224   8.960  0.2063  0.8351  1.2192
20001SOL    HW270318   4.468  10.373   8.934 -1.4321  0.8008  0.4698
20002SOL     OW70319   2.331   2.904   6.931 -0.3912  0.2705 -0.6913
20002SOL    HW170320   2.385   2.963   6.878  1.9078 -2.0715 -1.1767
20002SOL    HW270321   2.394   2.857   6.986 -2.3443 -0.1640  1.3546
20003SOL     OW70322   7.256   9.691   2.489  0.7921 -0.1699  0.0067
20003SOL    HW170323   7.206   9.722   2.414  0.7389 -0.2948 -0.0092
20003SOL    HW270324   7.193   9.643   2.542  1.2127 -1.6495 -0.7816
20004SOL     OW70325  12.435   8.997   6.694 -0.8231 -0.5912  0.3041
20004SOL    HW170326  12.366   8.997   6.761 -2.2503  1.0717 -1.0608
20004SOL    HW270327  12.388   9.010   6.611  1.1478  1.3000 -0.6117
20005SOL     OW70328   7.020   3.949   6.336  0.0288 -0.2251 -0.2007
20005SOL    HW170329   6.936   3.983   6.305 -1.0464  0.2721  2.9253
20005SOL    HW270330   7.032   3.867   6.288 -1.3818  0.5128 -1.9310
20006SOL     OW70331   4.077   1.581   1.301 -0.1837 -0.0665 -0.1409
20006SOL    HW170332   4.159   1.629   1.286 -1.2575  1.5228 -1.2282
20006SOL    HW270333   4.064   1.532   1.220 -0.4530 -0.0749 -0.0913
20007SOL     OW70334   6.190  11.082   6.326 -0.4782 -0.4316  0.9309
20007SOL    HW170335   6.116  11.111   6.272  1.4283  1.6603 -0.7149
20007SOL    HW270336   6.187  10.986   6.320 -0.8881 -0.3206 -2.2029
20008SOL     OW70337   1.968   8.779   1.334 -0.4532 -0.5054 -0.2335
20008SOL    HW170338   2.026   8.784   1.410  2.2088 -0.9144 -2.1313
20008SOL    HW270339   1.927   8.865   1.329 -1.2260 -0.6581  1.9586
20009SOL     OW70340   0.303   7.449   2.313  0.0376 -0.2793  0.2580
20009SOL    HW170341   0.253   7.415   2.238 -0.6946  1.6363 -0.1640
20009SOL    HW270342   0.389   7.471   2.276  0.0597 -0.4006  0.2357
20010SOL     OW70343   0.224   0.531  10.460  0.6240  0.0811  0.3054
20010SOL    HW170344   0.303   0.585  10.450  1.3611 -1.0061  0.1771
20010SOL    HW270345   0.254   0.442  10.444 -1.0673 -0.1381 -1.9800
20011SOL     OW70346   3.223   6.096   3.000 -0.8647  0.6524 -0.0973
20011SOL    HW170347   3.198   6.009   3.030 -1.3922  0.2465 -1.6032
20011SOL    HW270348   3.141   6.145   2.996 -0.4444  1.5755  1.7339
20012SOL     OW70349   9.397   0.685   2.713  0.5669  0.3033 -0.1149
20012SOL    HW170350   9.398   0.754   2.647 -0.4369 -2.4927 -3.3511
20012SOL    HW270351   9.317   0.700   2.763  1.3357  2.4741  0.5600
20013SOL     OW70352   0.690   8.080   3.936 -0.5296  0.5366 -0.1756
20013SOL    HW170353   0.620   8.052   3.996 -0.5316 -0.6820 -0.7102
20013SOL    HW270354   0.652   8.154   3.889 -1.4166  0.0087 -0.3320
20014SOL     OW70355   1.434  12.402   3.205 -0.2621  0.5237 -0.1578
20014SOL    HW170356   1.459  12.492   3.182  1.8629 -0.0395 -0.2362
20014SOL    HW270357   1.344  12.393   3.172 -0.1411  2.2807 -1.0848
20015SOL     OW70358   1.979   3.657   0.639  0.4964  0.2084  0.1153
20015SOL    HW170359   1.889   3.690   0.649 -0.4961 -1.9844 -0.8823
20015SOL    HW270360   2.031   3.735   0.619 -1.3191  1.4364 -0.1246
20016SOL     OW70361  10.675   6.645   4.194  0.2401 -0.0031  0.4035
20016SOL    HW170362  10.619   6.593   4.135  1.4212 -0.9042  0.0413
20016SOL    HW270363  10.636   6.633   4.280 -2.7379  2.9325 -0.2975
20017SOL     OW70364  10.223   2.280   3.730 -0.5315  0.2221  0.5692
20017SOL    HW170365  10.221   2.200   3.677  1.6324  0.4528  0.0776
20017SOL    HW270366  10.233   2.351   3.666 -0.5182  0.7308  1.1304
20018SOL     OW70367  12.332   8.681  12.248 -0.0403 -0.5577  0.4202
20018SOL    HW170368  12.402   8.642  12.196 -0.9669 -0.1025 -1.2619
20018SOL    HW270369  12.364   8.678  12.338  1.1047 -2.5552  0.0053
20019SOL     OW70370  10.823   1.887   9.404  0.5532  0.1383 -0.0698
20019SOL    HW170371  10.874   1.876   9.484  0.4689 -0.7465 -0.1294
20019SOL    HW270372  10.782   1.973   9.414  0.4172 -0.0228  0.9063
20020SOL     OW70373   3.536   1.085  11.364 -0.0765  0.1034  0.0269
20020SOL    HW170374   3.600   1.035  11.415  0.6144  0.6316 -0.3149
20020SOL    HW270375   3.452   1.045  11.386  0.4030 -0.8275  0.2094
20021SOL     OW70376   8.985   6.233   6.469  0.3305  0.2969  0.0722
20021SOL    HW170377   9.056   6.221   6.406 -1.0675  0.6092 -1.6406
20021SOL    HW270378   8.906   6.207   6.422 -0.6138 -1.2618  2.3223
20022SOL     OW70379   3.282   4.811   5.475 -0.4910 -0.0369 -0.3441
20022SOL    HW170380   3.328   4.812   5.391 -1.1810  0.5575 -0.7148
20022SOL    HW270381   3.329   4.874   5.529 -0.5447  0.1781 -0.5487
20023SOL     OW70382   0.548   1.658  12.097  0.0861 -0.1745 -0.2713
20023SOL    HW170383   0.457   1.636  12.078  0.3859 -2.5569  0.6584
20023SOL    HW270384   0.546   1.749  12.124 -2.4273 -0.8181  2.1544
20024SOL     OW70385  11.511   4.084   1.761  0.4355 -0.3000  0.1693
20024SOL    HW170386  11.451   4.157   1.775  2.1862  1.4774 -1.0408
20024SOL    HW270387  11.496   4.058   1.670  1.4570  0.1288 -0.1255
20025SOL     OW70388   4.891   6.721  11.175  0.1074 -1.0519  0.3031
20025SOL    HW170389   4.948   6.714  11.099 -0.9872  0.7310 -0.7708
20025SOL    HW270390   4.803   6.708  11.140 -0.6145  1.8163  0.7913
20026SOL     OW70391   8.841   7.171   2.203 -0.0479 -0.3284  0.1699
20026SOL    HW170392   8.849   7.145   2.111  0.2309  0.6630 -0.1030
20026SOL    HW270393   8.849   7.089   2.252  1.9732 -0.6388 -0.5797
20027SOL     OW70394   3.111   4.691   2.003 -0.2085  0.4936  0.3449
20027SOL    HW170395   3.030   4.677   2.052 -0.1000 -1.0069  0.1492
20027SOL    HW270396   3.163   4.612   2.019  0.1168  0.2588 -1.5964
20028SOL     OW70397   9.666   7.539   0.045  0.2345 -0.4982 -0.2978
20028SOL    HW170398   9.582   7.497   0.025  1.3286 -2.4314 -1.0519
20028SOL    HW270399   9.688   7.508   0.133  0.9646 -1.3982 -0.7871
20029SOL     OW70400  11.561  10.060   1.545  0.6772  0.0819 -0.0865
20029SOL    HW170401  11.503  10.014   1.484  1.3368 -0.1409 -0.5568
20029SOL    HW270402  11.641  10.008   1.545  0.2691 -0.6385  1.9381
20030SOL     OW70403  11.353   9.808  12.372 -0.2717  0.2762 -0.1756
20030SOL    HW170404  11.421   9.875  12.378  2.5581 -2.4074  0.2975
20030SOL    HW270405  11.384   9.737  12.427 -2.6690 -1.8193 -1.3012
20031SOL     OW70406   9.390   1.600   1.107 -0.4638  0.3701  0.1857
20031SOL    HW170407   9.473   1.586   1.061 -0.4693 -0.9201  0.5240
20031SOL    HW270408   9.408   1.576   1.198 -0.6802  2.0871  0.7180
20032SOL     OW70409  11.473   4.631   1.289 -0.3911 -0.0361 -0.3050
20032SOL    HW170410  11.513   4.662   1.371 -1.2448  0.2267  0.0167
20032SOL    HW270411  11.516   4.683   1.221  0.5493 -0.4730 -0.0621
20033SOL     OW70412  12.366   8.017   8.183  0.0158  0.0967 -0.0071
20033SOL    HW170413  12.393   8.042   8.272 -0.8555 -0.3214  0.3907
20033SOL    HW270414  12.358   7.921   8.187 -0.9834  0.1582 -0.2441
20034SOL     OW70415   8.411  10.162   1.612  0.3640  0.4200  0.0940
20034SOL    HW170416   8.481  10.164   1.677  0.0607 -1.0087  0.5094
20034SOL    HW270417   8.408  10.251   1.577  2.1347  0.6175  0.3223
20035SOL     OW70418   0.780  11.786   0.012 -0.1346 -0.2947  0.3953
20035SOL    HW170419   0.784  11.719  -0.056  0.9023 -0.7947  0.9331
20035SOL    HW270420   0.754  11.866  -0.035  1.6459 -0.3620 -0.7927
20036SOL     OW70421  10.584   0.742   7.763 -0.3406  0.0574 -0.1905
20036SOL    HW170422  10.557   0.663   7.715  2.7838 -0.4674 -1.3064
20036SOL    HW270423  10.643   0.710   7.831 -0.0643  1.3390  0.1994
20037SOL     OW70424   1.559   5.948   6.856  0.1359  0.1850  0.4461
20037SOL    HW170425   1.517   5.919   6.937 -0.7784 -0.0840 -0.1124
20037SOL    HW270426   1.585   5.867   6.812 -1.4105  0.2078 -0.5817
20038SOL     OW70427  10.025   2.238   5.699 -0.0277 -0.1625 -0.0292
20038SOL    HW170428  10.057   2.266   5.613  0.5521  0.5385  0.3912
20038SOL    HW270429  10.102   2.246   5.756 -1.0808  2.4213  1.2204
20039SOL     OW70430   8.116  11.353  10.607  0.1159  0.1439 -0.3568
20039SOL    HW170431   8.206  11.374  10.584  0.0896  0.5805 -0.0570
20039SOL    HW270432   8.077  11.436  10.633  0.1229 -0.3047  1.1886
20040SOL     OW70433   8.955  11.580   5.743  0.1433  0.7030  0.3778
20040SOL    HW170434   8.922  11.584   5.653 -0.3645  2.1409  0.6027
20040SOL    HW270435   8.945  11.489   5.768 -0.4998  0.4461 -0.7279
20041SOL     OW70436   7.109   0.854   9.683  0.3752  0.2121  0.3990
20041SOL    HW170437   7.125   0.761   9.703  1.0333  0.5128  1.3612
20041SOL    HW270438   7.131   0.862   9.590  0.7950 -0.4984  0.4269
20042SOL     OW70439   2.727   1.797   3.694 -0.8224 -0.2686  0.1951
20042SOL    HW170440   2.790   1.845   3.640 -2.2771  0.4998 -0.8786
20042SOL    HW270441   2.762   1.708   3.697  0.1341  0.0531 -0.6664
20043SOL     OW70442   2.468   6.589   4.412  0.5614  0.4844  0.5700
20043SOL    HW170443   2.471   6.618   4.503  0.0382  2.0033  0.1458
20043SOL    HW270444   2.375   6.596   4.388  0.8416  1.1747 -0.3811
20044SOL     OW70445   8.644   8.471   1.780  0.2092  0.0996  0.3261
20044SOL    HW170446   8.642   8.437   1.691 -1.5738  2.4612 -0.6285
20044SOL    HW270447   8.553   8.476   1.807  0.6299  0.6881  1.7741
20045SOL     OW70448   0.611   6.564   4.098  0.1094  0.0553 -0.4452
20045SOL    HW170449   0.673   6.624   4.057 -0.4484  0.2387 -1.0327
20045SOL    HW270450   0.527   6.608   4.091  0.0810  0.4264  1.5507
20046SOL     OW70451   0.352   5.539  12.960 -0.3030  0.6336 -0.0140
20046SOL    HW170452   0.283   5.586  13.007  1.9372  1.7470  2.4265
20046SOL    HW270453   0.393   5.607  12.905 -0.0854  0.3997 -0.1416
20047SOL     OW70454   8.687   6.419   7.682 -0.1913  0.2847 -0.3050
20047SOL    HW170455   8.705   6.501   7.635 -0.8581  0.4894 -0.2118
20047SOL    HW270456   8.648   6.447   7.765  1.0630 -0.0666  0.4315
20048SOL     OW70457  12.914   4.059   4.501 -0.1710  0.0247  0.6144
20048SOL    HW170458  12.921   4.043   4.595 -2.6079 -0.2040  0.8046
20048SOL    HW270459  12.969   3.991   4.461 -0.6353 -1.0951  1.8097
20049SOL     OW70460   7.746   9.618   5.332  0.0958 -0.2823  0.8556
20049SOL    HW170461   7.772   9.681   5.398  1.2823 -0.5117  0.6312
20049SOL    HW270462   7.827   9.594   5.288 -0.6779 -0.0064 -0.8082
20050SOL     OW70463   7.404   4.639   1.263  0.1353 -0.0344  0.7627
20050SOL    HW170464   7.369   4.644   1.174 -2.9868 -1.4866  1.7454
20050SOL    HW270465   7.362   4.711   1.309  0.8173  0.0028  1.3466
20051SOL     OW70466   2.704   3.584   9.464  0.0774  0.0414  0.3599
20051SOL    HW170467   2.789   3.610   9.429 -0.1256 -0.4026 -0.4839
20051SOL    HW270468   2.725   3.515   9.527  0.4689  1.0519  1.3597
20052SOL     OW70469  10.832   0.821   1.226  0.2923 -0.1044  0.2535
20052SOL    HW170470  10.835   0.812   1.131 -1.0622  0.7635  0.0877
20052SOL    HW270471  10.901   0.884   1.247 -1.5822  2.3960 -0.6162
20053SOL     OW70472  10.008  11.056   6.150  0.6813 -0.5551  0.3219
20053SOL    HW170473  10.040  10.966   6.138  1.2840 -0.2251 -0.6034
20053SOL    HW270474  10.078  11.100   6.197  0.4727 -0.5145  0.5950
20054SOL     OW70475   0.981   0.570   6.988 -0.3319  0.6682  0.0105
20054SOL    HW170476   0.970   0.622   6.909 -1.4053  0.5048  0.0340
20054SOL    HW270477   0.939   0.621   7.057 -0.3875  0.2963  0.2552
20055SOL     OW70478   9.934   7.710   9.027 -0.1092  0.2576  0.2777
20055SOL    HW170479   9.912   7.617   9.035  0.1476  0.2904  1.5481
20055SOL    HW270480   9.867   7.755   9.079 -0.6401  0.8600 -0.8819
20056SOL     OW70481   8.229   9.866   0.390  0.3022  0.2170 -0.1943
20056SOL    HW170482   8.177   9.901   0.462 -0.8519  1.2972 -1.5266
20056SOL    HW270483   8.174   9.873   0.313  0.5551 -3.1945 -0.8571
20057SOL     OW70484  11.112  11.838   5.319  0.3039  0.1606 -0.1978
20057SOL    HW170485  11.123  11.916   5.266 -2.2520  0.0680 -1.0107
20057SOL    HW270486  11.034  11.855   5.372  1.2483 -0.8050  1.6104
20058SOL     OW70487  10.812  11.045   8.329  0.3971  0.2507 -0.4629
20058SOL    HW170488  10.825  10.959   8.288  0.7970  0.1729 -0.1832
20058SOL    HW270489  10.717  11.056   8.332  0.3592  0.3776 -1.6442
20059SOL     OW70490   7.906   7.158   5.895  0.3882  0.2947 -0.1199
20059SOL    HW170491   7.837   7.111   5.847 -0.6013  1.8278 -0.2882
20059SOL    HW270492   7.976   7.171   5.831  0.7767 -1.0964 -0.0070
20060SOL     OW70493   4.333   4.323   8.114 -0.2330 -0.5073  0.1381
20060SOL    HW170494   4.404   4.289   8.167 -1.6065 -1.5710  1.3576
20060SOL    HW270495   4.348   4.288   8.026 -0.0225 -1.8769  0.7138
20061SOL     OW70496   8.710  12.601   5.390  0.1272 -1.1102  0.4261
20061SOL    HW170497   8.805  12.605   5.384  0.0567  0.2061  0.0829
20061SOL    HW270498   8.682  12.690   5.408 -1.2301 -0.8813 -2.2474
20062SOL     OW70499   6.085   3.258   6.891 -0.1229 -0.2942  0.3361
20062SOL    HW170500   6.157   3.239   6.830  1.4033  1.9115  1.3150
20062SOL    HW270501   6.126   3.308   6.962 -2.5831  0.8311  1.0733
20063SOL     OW70502   6.841  10.585  12.941  0.4905  0.1961 -0.3279
20063SOL    HW170503   6.910  10.563  13.004 -0.2819 -0.8239  0.1805
20063SOL    HW270504   6.770  10.620  12.994 -0.1668 -0.6761 -0.6317
20064SOL     OW70505   3.485   2.124  12.349 -0.3482  0.1209  0.2772
20064SOL    HW170506   3.580   2.126  12.361 -0.3321  2.3137  0.2479
20064SOL    HW270507   3.473   2.126  12.254 -0.4636 -1.3851  0.2329
20065SOL     OW70508   0.643   3.100   3.291  0.2837  0.1450  0.0096
20065SOL    HW170509   0.605   3.021   3.254 -1.8656  1.2613 -0.3306
20065SOL    HW270510   0.677   3.149   3.216 -0.6405  0.6692 -0.0748
20066SOL     OW70511   9.367  12.103   0.526 -0.3250 -0.4520  0.0604
20066SOL    HW170512   9.350  12.019   0.568 -0.3388 -0.7548 -0.5494
20066SOL    HW270513   9.463  12.108   0.520 -0.2914 -0.0822  0.7770
20067SOL     OW70514   2.996   8.006  11.967  0.6664  0.6497 -0.0929
20067SOL    HW170515   2.910   8.049  11.973  0.8560  0.9393  0.6927
20067SOL    HW270516   2.991   7.954  11.887  0.4942  2.2646 -1.1713
20068SOL     OW70517   2.237   3.759  12.784 -0.4911  0.5513 -0.2176
20068SOL    HW170518   2.178   3.828  12.753 -1.0444  0.3926  0.4435
20068SOL    HW270519   2.255   3.706  12.706 -0.8161  0.9050 -0.5379
20069SOL     OW70520   5.763   8.827  11.340 -0.3821  0.1129  0.2854
20069SOL    HW170521   5.821   8.757  11.369 -0.8308 -0.8953 -1.1557
20069SOL    HW270522   5.822   8.891  11.299 -0.0635  0.2188  0.8875
20070SOL     OW70523  12.551  12.587   1.959 -0.0345 -0.1439 -0.2522
20070SOL    HW170524  12.511  12.516   2.008  0.4729 -1.3455 -1.4956
20070SOL    HW270525  12.628  12.612   2.011  0.7707 -1.7204 -0.6253
20071SOL     OW70526   8.652   1.896   9.490 -0.1960 -0.2238 -0.7620
20071SOL    HW170527   8.606   1.812   9.494 -1.4267  0.4675  0.3915
20071SOL    HW270528   8.744   1.872   9.475 -0.5907 -1.7472 -0.9109
20072SOL     OW70529   5.238  11.148   1.386 -0.4457  0.7318 -0.0047
20072SOL    HW170530   5.146  11.162   1.363 -0.2641  1.0182 -0.5703
20072SOL    HW270531   5.277  11.106   1.310 -0.6696 -1.8084  1.1901
20073SOL     OW70532   3.225  11.222   2.365 -0.6364 -0.5464  0.0336
20073SOL    HW170533   3.267  11.190   2.445 -0.6809 -1.2217 -0.2085
20073SOL    HW270534   3.135  11.192   2.371 -0.4401 -1.2829 -0.6375
20074SOL     OW70535  11.058  11.552   6.981  0.2032 -0.1851  0.0713
20074SOL    HW170536  11.089  11.555   7.071 -0.5106  2.8733  0.3183
20074SOL    HW270537  11.120  11.494   6.936  3.7635  2.2322  1.4524
20075SOL     OW70538  12.106   0.614  10.595 -0.3284 -0.0818  0.1228
20075SOL    HW170539  12.127   0.688  10.652 -0.7214 -0.5630  0.9237
20075SOL    HW270540  12.191   0.578  10.570 -0.0996 -1.3586  2.4465
20076SOL     OW70541   8.303  12.585   0.355 -0.4131 -0.5163 -0.2461
20076SOL    HW170542   8.348  12.647   0.297 -0.5813 -0.1799 -0.0151
20076SOL    HW270543   8.338  12.602   0.442 -2.2894  1.0207  0.2745
20077SOL     OW70544  12.273   6.061  11.892 -0.0857  0.2419  0.2505
20077SOL    HW170545  12.216   6.031  11.821 -2.3827  1.1386  1.5903
20077SOL    HW270546  12.340   6.113  11.849 -1.0583  0.2796 -1.3173
20078SOL     OW70547   0.182   8.847   1.931 -0.0923  0.0439  0.4918
20078SOL    HW170548   0.261   8.802   1.958 -0.0799  0.5177  1.2800
20078SOL    HW270549   0.111   8.803   1.978 -0.2721 -0.2392 -0.0398
20079SOL     OW70550   3.851  10.281   0.791  0.0117  0.2193 -0.0174
20079SOL    HW170551   3.881  10.203   0.743 -0.1158 -0.2156  0.5950
20079SOL    HW270552   3.932  10.322   0.823  0.0390 -0.1373  0.3818
20080SOL     OW70553   4.711   4.165   2.750  0.1749 -0.4965 -0.6640
20080SOL    HW170554   4.745   4.255   2.753 -2.8589  0.7788 -1.2318
20080SOL    HW270555   4.730   4.136   2.661 -0.1214  0.1353 -0.9380
20081SOL     OW70556   3.607   1.082   0.352  0.5999  0.5844  0.4680
20081SOL    HW170557   3.524   1.124   0.377 -0.0131  0.5838 -1.4222
20081SOL    HW270558   3.643   1.139   0.284  0.2875 -1.3183 -1.3868
20082SOL     OW70559   4.165  12.625   2.993  0.5889  0.1566 -0.0182
20082SOL    HW170560   4.086  12.590   2.952  0.7755  0.3766 -0.5744
20082SOL    HW270561   4.147  12.621   3.087 -0.8461  1.9485 -0.1702
20083SOL     OW70562  12.010   8.855   6.529 -0.0499 -0.2601 -0.0155
20083SOL    HW170563  11.942   8.822   6.470 -2.0434  1.5419  1.1201
20083SOL    HW270564  12.042   8.934   6.486 -0.6248  0.3706  0.6909
20084SOL     OW70565   2.977   2.052   8.950  0.1874  0.1919  0.2872
20084SOL    HW170566   2.961   1.960   8.970  0.0399  0.7136  2.9046
20084SOL    HW270567   3.072   2.059   8.939  0.2779 -0.1417  0.8569
20085SOL     OW70568   1.045  10.598   8.667  0.0265 -0.1506  0.0798
20085SOL    HW170569   1.029  10.598   8.572  1.9994 -1.5096 -0.3273
20085SOL    HW270570   0.965  10.561   8.705 -0.1142 -1.2946 -1.2409
20086SOL     OW70571   8.567   1.499   6.467 -0.5066  0.0847 -0.5026
20086SOL    HW170572   8.503   1.445   6.419  0.1961  0.6376 -2.1520
20086SOL    HW270573   8.548   1.483   6.559 -1.7126 -1.3062 -0.9541
20087SOL     OW70574  12.868   8.602   2.585  0.1906  0.0888  0.0813
20087SOL    HW170575  12.778   8.633   2.573 -0.2216 -1.2321 -0.3116
20087SOL    HW270576  12.913   8.678   2.622 -0.7585  1.1966 -0.9264
20088SOL     OW70577  11.137   7.797   7.807  0.0976 -0.2298  0.5687
20088SOL    HW170578  11.045   7.823   7.798 -0.0314 -0.8880 -0.1690
20088SOL    HW270579  11.173   7.858   7.872  0.1375  2.6666 -1.9299
20089SOL     OW70580   6.296   8.629   8.892  0.5833 -0.3392  0.1674
20089SOL    HW170581   6.245   8.629   8.811  0.1064 -3.1652  0.3752
20089SOL    HW270582   6.240   8.588   8.957  1.1166  1.5003  1.9026
20090SOL     OW70583   0.119   3.561   4.843 -0.4883  0.1714  0.1469
20090SOL    HW170584   0.027   3.573   4.865 -1.1318 -1.2958 -1.5791
20090SOL    HW270585   0.152   3.500   4.909 -0.8765  0.2748  0.4401
20091SOL     OW70586   7.901   9.095  10.963  0.3584 -0.1516 -0.4370
20091SOL    HW170587   7.826   9.045  10.932 -0.0778 -0.2474  0.7178
20091SOL    HW270588   7.963   9.029  10.993  0.8666 -0.0696 -1.2892
20092SOL     OW70589   5.007   5.096   8.956  0.1246  0.5670 -0.2143
20092SOL    HW170590   4.925   5.046   8.961  0.2596  0.4410  1.5999
20092SOL    HW270591   5.075   5.029   8.956  0.2645  0.6931  0.6375
20093SOL     OW70592   6.342   7.977   9.290 -0.1280  0.0935 -0.3667
20093SOL    HW170593   6.306   7.913   9.352 -0.7115  0.1747 -0.6134
20093SOL    HW270594   6.424   7.938   9.259  0.5009  0.3306  0.9279
20094SOL     OW70595  11.920   5.639   6.885  0.3799 -0.1544 -0.1122
20094SOL    HW170596  11.887   5.682   6.806 -1.7213 -0.7036  0.3938
20094SOL    HW270597  11.907   5.546   6.870 -0.1536 -0.2662  0.8763
20095SOL     OW70598   2.344   3.824   7.602  0.0320 -0.5126  0.6388
20095SOL    HW170599   2.414   3.758   7.605  0.5647  0.0850  1.8926
20095SOL    HW270600   2.263   3.772   7.599  0.5065 -1.2098 -0.6988
20096SOL     OW70601   9.270   8.081   6.962  0.7762  0.2761  0.2543
20096SOL    HW170602   9.286   8.169   6.927 -1.5652  0.6073 -0.1949
20096SOL    HW270603   9.215   8.039   6.895  1.6421 -1.4499  0.5863
20097SOL     OW70604   4.886   3.469   3.934  0.5485  0.5389  0.3726
20097SOL    HW170605   4.833   3.431   4.004  1.5072 -3.6386 -0.8639
20097SOL    HW270606   4.974   3.474   3.969  1.0505 -1.6537 -0.3966
20098SOL     OW70607   1.162  10.499   1.837  0.2283  0.0492 -0.3438
20098SOL    HW170608   1.078  10.453   1.839 -0.9133  1.9984 -0.8217
20098SOL    HW270609   1.227  10.430   1.829 -1.3465 -1.5005 -0.3169
20099SOL     OW70610   5.391   5.263   5.571  0.2773 -0.0063  0.1087
20099SOL    HW170611   5.473   5.310   5.555  1.0341 -0.0896  3.1333
20099SOL    HW270612   5.329   5.330   5.598  0.1180 -0.2501  0.3551
20100SOL     OW70613   3.620   5.870  10.419 -0.3474  0.2218 -0.2795
20100SOL    HW170614   3.627   5.961  10.450  0.2192  0.5475 -1.2897
20100SOL    HW270615   3.691   5.862  10.355  0.5242 -1.3705  0.8125
20101SOL     OW70616   3.109   0.873   8.573  0.6996 -0.2567  0.2032
20101SOL    HW170617   3.123   0.940   8.506 -0.6635 -0.9023 -0.7444
20101SOL    HW270618   3.087   0.924   8.652 -1.7973  0.4556 -0.8506
20102SOL     OW70619  10.416   3.118   5.538 -0.0081 -0.1087  0.2753
20102SOL    HW170620  10.420   3.044   5.478  0.2327 -0.6996  1.0059
20102SOL    HW270621  10.503   3.121   5.577 -0.2281  0.1411  0.7420
20103SOL     OW70622   9.353   3.843   0.359 -0.0116  0.3231 -0.9228
20103SOL    HW170623   9.366   3.800   0.275 -0.1772  0.1095 -0.8393
20103SOL    HW270624   9.414   3.799   0.418 -0.7613 -0.3659 -0.6403
20104SOL     OW70625  10.907   2.068   3.291 -0.6373  0.3116 -0.4693
20104SOL    HW170626  10.996   2.056   3.326 -1.2105 -1.0389  0.6340
20104SOL    HW270627  10.911   2.032   3.202  0.1877  1.3152 -0.8567
20105SOL     OW70628   8.936  10.885   8.224  0.3377 -0.0274 -0.6576
20105SOL    HW170629   8.961  10.972   8.255  1.4517 -0.5584 -0.0008
20105SOL    HW270630   8.973  10.878   8.136  0.4515  0.0777 -0.6179
20106SOL     OW70631   0.736   2.171   4.221 -0.1956 -0.2113  0.2097
20106SOL    HW170632   0.753   2.209   4.307 -2.8705  0.2633  0.6114
20106SOL    HW270633   0.761   2.079   4.230  1.9089  0.3584  0.6672
20107SOL     OW70634   6.240   9.478   4.144  0.2566 -0.4224 -0.0566
20107SOL    HW170635   6.173   9.425   4.188  1.4984 -0.9200  1.3022
20107SOL    HW270636   6.190   9.536   4.087 -1.3766 -0.5259  1.1834
20108SOL     OW70637   5.204   8.551   3.436  0.1370 -0.2486  0.4426
20108SOL    HW170638   5.114   8.535   3.464  0.2897  0.0832  1.1329
20108SOL    HW270639   5.233   8.626   3.487  0.8802 -0.4801  0.3793
20109SOL     OW70640   3.498   9.323   6.467 -0.3629 -0.3580  0.3060
20109SOL    HW170641   3.414   9.292   6.501 -1.0560 -1.0258 -1.8673
20109SOL    HW270642   3.483   9.415   6.445 -1.2921 -0.9930 -2.0934
20110SOL     OW70643   0.374   5.084  12.869 -0.1901 -0.8318  0.1276
20110SOL    HW170644   0.405   5.046  12.787  1.1841  2.2934 -0.9779
20110SOL    HW270645   0.441   5.061  12.933 -0.3337 -1.7424 -0.0318
20111SOL     OW70646  12.851   0.927   8.628  0.3686  0.3512 -0.3807
20111SOL    HW170647  12.869   0.972   8.545  2.1689 -0.1116 -0.2703
20111SOL    HW270648  12.891   0.982   8.695 -1.0640  0.7143  0.2251
20112SOL     OW70649   6.481   8.332   6.412  0.1924  0.7315 -0.0773
20112SOL    HW170650   6.488   8.271   6.486 -0.5706  0.0250 -0.5823
20112SOL    HW270651   6.572   8.347   6.386  0.3878 -0.2375  0.0109
20113SOL     OW70652   4.401   5.404   4.550  0.3658 -0.3352  0.3094
20113SOL    HW170653   4.489   5.436   4.568 -0.2032  1.6191 -0.1539
20113SOL    HW270654   4.398   5.390   4.456  0.4056 -1.2152  0.4243
20114SOL     OW70655   5.913   0.934   1.249  0.1918 -0.3280  0.1963
20114SOL    HW170656   5.926   0.977   1.165  0.6442 -1.2070 -0.1958
20114SOL    HW270657   5.837   0.978   1.287  0.3131  0.4372 -0.4260
20115SOL     OW70658   4.193   3.044   5.510 -0.5805  0.1371 -0.1877
20115SOL    HW170659   4.252   3.118   5.522 -0.3201 -0.2035  0.7050
20115SOL    HW270660   4.110   3.074   5.547 -0.8142  0.4029 -0.9083
20116SOL     OW70661  11.982   4.130   4.687  0.0919  0.2443 -0.2654
20116SOL    HW170662  11.901   4.111   4.735 -0.2646 -2.4012 -1.7212
20116SOL    HW270663  12.051   4.093   4.742  0.2620  1.7524  0.5739
20117SOL     OW70664  10.040   6.495   3.539 -0.3723 -0.5010 -0.4833
20117SOL    HW170665  10.070   6.453   3.620 -0.0330  0.1036 -0.2910
20117SOL    HW270666  10.104   6.470   3.473 -0.1509 -0.2583 -0.3603
20118SOL     OW70667   5.380   8.092  11.231 -0.3229 -0.1283 -0.2649
20118SOL    HW170668   5.315   8.026  11.207  0.3043 -1.0263  0.4179
20118SOL    HW270669   5.450   8.081  11.166 -0.5770  0.4078 -0.6272
20119SOL     OW70670   8.761   8.632   4.415  0.2491 -0.3215 -0.0498
20119SOL    HW170671   8.789   8.555   4.365 -0.3479 -0.8848  0.4707
20119SOL    HW270672   8.819   8.702   4.385  1.1214 -1.0803 -0.1873
20120SOL     OW70673   5.348   3.159   8.499  0.0999 -0.2960 -0.2099
20120SOL    HW170674   5.257   3.141   8.475  0.0405 -0.3658  0.0638
20120SOL    HW270675   5.367   3.244   8.461  0.0907 -0.5241 -0.7337
20121SOL     OW70676   6.879   8.457  11.418 -0.2391 -0.4388 -0.1751
20121SOL    HW170677   6.821   8.519  11.374 -1.3214 -1.8425 -0.8073
20121SOL    HW270678   6.819   8.395  11.460  0.7690  0.1978  2.4013
20122SOL     OW70679   3.087   9.127  12.145 -0.2550 -0.2624  0.1351
20122SOL    HW170680   3.077   9.167  12.231 -0.7679 -1.1697  0.5034
20122SOL    HW270681   3.148   9.185  12.099 -0.2333  0.4081  0.9869
20123SOL     OW70682   6.879   9.575   8.023  0.3547 -0.2244  0.0862
20123SOL    HW170683   6.844   9.505   8.078 -1.2987 -1.8131 -2.7502
20123SOL    HW270684   6.950   9.533   7.975  1.4182  0.9848  0.5480
20124SOL     OW70685   8.020   4.065   1.146 -0.0440  0.0431 -0.3655
20124SOL    HW170686   7.936   4.067   1.101  0.2964 -1.5367 -1.1429
20124SOL    HW270687   8.044   3.972   1.148  0.6448  0.2007  1.8061
20125SOL     OW70688   9.267   7.002   4.192 -0.5578 -0.4971 -0.3953
20125SOL    HW170689   9.312   6.942   4.133 -1.6095  0.0299 -1.8106
20125SOL    HW270690   9.332   7.025   4.258  1.0856 -0.1981 -2.0203
20126SOL     OW70691   0.993  12.460   5.195  0.0158  0.0553  0.0276
20126SOL    HW170692   0.907  12.452   5.237 -0.7497 -0.0320 -1.4902
20126SOL    HW270693   0.977  12.440   5.103  1.6099  0.3948 -0.3574
20127SOL     OW70694   9.657  12.325   9.418 -0.4150  0.1440  0.3242
20127SOL    HW170695   9.656  12.288   9.506 -2.9273 -1.2345 -0.1715
20127SOL    HW270696   9.654  12.249   9.360  0.7408  1.0410 -0.9723
20128SOL     OW70697   8.905  10.814  10.233  0.2214  0.1401  0.3220
20128SOL    HW170698   8.818  10.849  10.218  0.3356 -0.2746 -1.6607
20128SOL    HW270699   8.928  10.771  10.150  1.6130 -1.2574  1.3691
20129SOL     OW70700   2.934   0.957   3.236 -0.4959 -0.1394  0.3479
20129SOL    HW170701   2.847   0.995   3.250 -0.6774 -0.8565  1.3125
20129SOL    HW270702   2.991   1.032   3.222 -1.3778  0.3121 -1.0069
20130SOL     OW70703   6.218   9.009   3.819 -0.3060  0.3975 -0.1851
20130SOL    HW170704   6.200   9.038   3.908  0.7357  0.3280  0.0528
20130SOL    HW270705   6.264   8.925   3.830 -0.2681  0.3343 -0.7909
20131SOL     OW70706  11.395   4.634  12.674 -0.6817 -0.0021  0.5165
20131SOL    HW170707  11.404   4.721  12.635 -0.8096 -0.4721 -0.6091
20131SOL    HW270708  11.393   4.650  12.768  0.3206  1.1211  0.3726
20132SOL     OW70709  12.647   1.177  11.986  0.1171  0.6285  0.0751
20132SOL    HW170710  12.722   1.163  12.044  0.6036  3.1515  0.1785
20132SOL    HW270711  12.571   1.172  12.043 -0.0394 -3.1193 -0.2093
20133SOL     OW70712  10.475  10.968   9.505  0.1848  0.2432 -0.5585
20133SOL    HW170713  10.455  10.978   9.598  1.2667 -1.0560 -0.1667
20133SOL    HW270714  10.569  10.981   9.499  0.2563 -0.5587 -1.3333
20134SOL     OW70715   7.090  12.578   1.455 -0.3462 -0.2962 -0.5958
20134SOL    HW170716   7.040  12.576   1.537 -1.2332  0.1059 -1.1126
20134SOL    HW270717   7.094  12.486   1.427 -1.8986 -0.2140 -1.1834
20135SOL     OW70718   2.195  12.121   7.489  0.3721  0.3671 -0.2826
20135SOL    HW170719   2.145  12.133   7.409  0.4867 -0.0766 -0.4257
20135SOL    HW270720   2.218  12.209   7.517 -2.2503  0.7908  0.9208
20136SOL     OW70721   0.878  10.815   8.256 -0.0262 -0.6089 -0.4943
20136SOL    HW170722   0.898  10.904   8.285  0.8750 -1.6008  2.1820
20136SOL    HW270723   0.919  10.809   8.169  0.6562  1.2875 -0.3547
20137SOL     OW70724   0.873   5.291  12.982 -0.1720 -0.3540  0.4316
20137SOL    HW170725   0.797   5.265  12.930  0.7574  1.0316 -1.7321
20137SOL    HW270726   0.948   5.262  12.931  0.7962  0.5425  1.2934
20138SOL     OW70727   1.039  12.365  11.813  0.1226 -0.0403 -0.2140
20138SOL    HW170728   1.083  12.447  11.787 -0.9163  0.5237 -0.2381
20138SOL    HW270729   1.109  12.313  11.853  0.6656  1.1801  0.5055
20139SOL     OW70730   0.225   6.181   7.113 -0.0570  0.4290  0.0751
20139SOL    HW170731   0.318   6.169   7.131 -0.2791 -0.4976  0.6613
20139SOL    HW270732   0.222   6.221   7.026  0.8707 -0.0623 -0.1872
20140SOL     OW70733   8.672  10.201   4.718  0.5947  0.1410  0.2906
20140SOL    HW170734   8.662  10.292   4.688  0.7747  0.4416  1.1070
20140SOL    HW270735   8.594  10.184   4.771 -0.5091 -0.9163 -1.5814
20141SOL     OW70736   8.468  12.737   1.713 -0.7674 -0.0250 -0.0904
20141SOL    HW170737   8.398  12.738   1.648 -1.4267  2.3332  0.5597
20141SOL    HW270738   8.475  12.828   1.742  1.0948 -0.5950  1.4560
20142SOL     OW70739   8.669   5.283   4.932  0.4191 -0.1283 -0.4595
20142SOL    HW170740   8.631   5.243   5.011  0.5044 -1.4947 -1.0850
20142SOL    HW270741   8.679   5.375   4.955 -0.8312 -0.2288  0.6487
20143SOL     OW70742   6.817   2.669   2.639 -0.1375  1.3117 -0.6261
20143SOL    HW170743   6.814   2.622   2.723 -1.3441 -0.3553 -1.5356
20143SOL    HW270744   6.893   2.726   2.646  1.7116 -1.0964  0.4231
20144SOL     OW70745   0.994   1.684   0.884  0.3071  0.4059 -0.3323
20144SOL    HW170746   0.971   1.600   0.924 -0.6670  1.4758  1.5011
20144SOL    HW270747   1.013   1.662   0.793 -1.0884 -1.6377 -0.2204
20145SOL     OW70748   6.751  10.459  10.091  0.1852  0.4341  0.1336
20145SOL    HW170749   6.697  10.381  10.093 -0.5300  0.9155 -0.0949
20145SOL    HW270750   6.812  10.449  10.164  2.3644 -1.9194 -1.8035
20146SOL     OW70751   5.232   0.059  10.494 -0.2578 -0.1370  0.2547
20146SOL    HW170752   5.179   0.078  10.572  0.9221  0.3243  0.9818
20146SOL    HW270753   5.283   0.139  10.480 -2.1534  0.7351 -2.4741
20147SOL     OW70754  11.276   6.521  11.692 -0.3677  0.0032 -0.8022
20147SOL    HW170755  11.344   6.558  11.747 -0.9880  1.1650 -0.7751
20147SOL    HW270756  11.266   6.585  11.621 -1.1147 -0.3671 -1.0381
20148SOL     OW70757   7.468   1.723  11.996 -0.3279 -0.0818  0.0839
20148SOL    HW170758   7.460   1.676  12.079 -2.2493 -1.7977 -0.9872
20148SOL    HW270759   7.378   1.740  11.969  0.2625  0.8365 -1.4511
20149SOL     OW70760   2.155   4.184   6.542 -0.1042  0.6800 -0.0357
20149SOL    HW170761   2.095   4.240   6.590  0.1502 -0.3720  1.5927
20149SOL    HW270762   2.128   4.095   6.565  0.2583  0.1324 -1.5850
20150SOL     OW70763  12.365   3.535   4.517 -0.1282 -0.9006  0.4050
20150SOL    HW170764  12.347   3.571   4.431  1.1403 -0.5569  0.2704
20150SOL    HW270765  12.341   3.442   4.510 -1.0194 -0.6504  0.0118
20151SOL     OW70766   1.985   3.244  11.318  0.2650 -0.2428  0.1810
20151SOL    HW170767   2.002   3.334  11.346  0.7962  0.0034 -0.8857
20151SOL    HW270768   1.897   3.247  11.281  1.0298  0.3123 -1.6835
20152SOL     OW70769   7.457  12.159   2.980 -0.1245 -0.2318  0.3015
20152SOL    HW170770   7.451  12.131   3.071  0.1808 -1.6068 -0.0795
20152SOL    HW270771   7.536  12.214   2.977  0.7613 -1.4465  0.5728
20153SOL     OW70772   2.327   3.648  11.954  0.4292 -0.1061  0.7988
20153SOL    HW170773   2.339   3.638  11.860  0.8235  0.7176  0.7516
20153SOL    HW270774   2.414   3.633  11.991  0.2498 -0.5464  1.0470
20154SOL     OW70775   5.896   2.075   1.147  0.1714 -0.4592 -0.1995
20154SOL    HW170776   5.923   1.995   1.101 -0.8835 -0.8173 -0.2197
20154SOL    HW270777   5.904   2.053   1.240 -0.5902 -0.7733 -0.1984
20155SOL     OW70778   1.205  11.184   2.448 -0.5535  0.1334 -0.1409
20155SOL    HW170779   1.298  11.210   2.446 -0.3754 -0.2453  1.6043
20155SOL    HW270780   1.199  11.114   2.383  0.2905  0.3890 -0.5231
20156SOL     OW70781   7.308   5.194   5.064  0.0265  0.1456  0.3656
20156SOL    HW170782   7.326   5.286   5.048  0.9479  0.4220  2.5322
20156SOL    HW270783   7.266   5.162   4.984 -0.2850  2.4155 -0.4324
20157SOL     OW70784  10.198   0.636   0.910 -0.1027  0.1235 -0.1564
20157SOL    HW170785  10.185   0.554   0.863  0.2260  0.2596 -0.4916
20157SOL    HW270786  10.113   0.655   0.949  0.2097 -1.1853  1.2605
20158SOL     OW70787   5.003  12.408  10.059 -0.4142  0.0274  0.0473
20158SOL    HW170788   4.968  12.325  10.093  1.1530 -0.2722  1.0391
20158SOL    HW270789   5.095  12.408  10.087  0.3140  0.9308 -2.1338
20159SOL     OW70790   7.724  10.267   2.322 -0.5325 -0.4153 -0.7260
20159SOL    HW170791   7.809  10.286   2.282 -0.0515  0.8023  0.7596
20159SOL    HW270792   7.724  10.318   2.404 -2.7010 -0.3619 -0.6966
20160SOL     OW70793  10.285  10.171   9.365 -0.6325 -0.9688 -0.2393
20160SOL    HW170794  10.223  10.176   9.292 -0.9368 -1.6347 -0.0280
20160SOL    HW270795  10.362  10.129   9.328 -0.5796 -0.8040 -0.3173
20161SOL     OW70796  10.526   3.879   2.396  0.0359  0.0604 -0.1523
20161SOL    HW170797  10.542   3.811   2.461 -1.2813  0.2916  0.4281
20161SOL    HW270798  10.437   3.910   2.413 -0.0771  0.6387 -1.5923
20162SOL     OW70799  10.019   6.044   7.927 -0.2396 -0.3023  1.3168
20162SOL    HW170800  10.033   6.139   7.924  0.3606 -0.4103  0.5624
20162SOL    HW270801   9.975   6.029   8.011  0.3746  0.5494  1.8028
20163SOL     OW70802   4.974   0.910   2.242 -0.2989  0.4946  0.6079
20163SOL    HW170803   4.953   0.878   2.154 -0.6008  0.3878  0.7206
20163SOL    HW270804   5.011   0.834   2.287  0.0638  0.6066  0.5039
20164SOL     OW70805  10.078  11.557  12.159 -0.5882 -0.7659 -0.0864
20164SOL    HW170806  10.144  11.602  12.106 -1.1129  0.8916  0.6032
20164SOL    HW270807   9.999  11.559  12.105 -0.6382 -0.7858 -0.0153
20165SOL     OW70808   9.693   7.523  11.257 -0.1820  0.4249 -0.2506
20165SOL    HW170809   9.671   7.515  11.350  0.7639  1.9458  0.1478
20165SOL    HW270810   9.631   7.588  11.223 -0.6883 -0.3104 -0.7560
20166SOL     OW70811   3.883   4.173  10.198 -0.9074  0.0286  0.6106
20166SOL    HW170812   3.964   4.201  10.156 -0.4373  0.6702  1.8859
20166SOL    HW270813   3.814   4.200  10.137 -0.2050  0.0784 -0.1767
20167SOL     OW70814  12.354   4.076   7.418  0.3070 -0.2102  0.0282
20167SOL    HW170815  12.398   4.160   7.405 -1.0886  0.5225 -0.1391
20167SOL    HW270816  12.278   4.079   7.360 -1.4989 -0.2662  2.2348
20168SOL     OW70817  12.865  10.857   1.447 -0.2907 -0.1910 -0.4926
20168SOL    HW170818  12.854  10.897   1.361 -0.7929 -0.9730 -0.8071
20168SOL    HW270819  12.780  10.817   1.465 -0.7722  1.4143  1.1438
20169SOL     OW70820  10.304   6.178  10.494  0.3756  0.1556 -0.0601
20169SOL    HW170821  10.340   6.107  10.546  0.3309 -0.7463 -1.2215
20169SOL    HW270822  10.366   6.190  10.422  0.7888  1.8295  0.5114
20170SOL     OW70823   9.403   2.272  10.369 -0.0414  0.1007 -0.4595
20170SOL    HW170824   9.373   2.251  10.281 -0.0930 -0.8864 -0.2243
20170SOL    HW270825   9.424   2.187  10.408 -2.4474  0.2552  1.3600
20171SOL     OW70826   1.710   5.810   5.201  0.1395  0.2068 -0.1251
20171SOL    HW170827   1.781   5.817   5.264  1.9196  1.0090 -2.1101
20171SOL    HW270828   1.741   5.856   5.123 -2.4485  0.3410 -1.2000
20172SOL     OW70829   2.482   2.181   5.091  0.3137  0.0852 -0.5206
20172SOL    HW170830   2.497   2.088   5.073 -0.7920 -0.2382  0.1513
20172SOL    HW270831   2.387   2.190   5.094  0.4081  0.9067  1.0257
20173SOL     OW70832   5.115   2.909   2.069 -0.1883 -0.1098 -0.4900
20173SOL    HW170833   5.068   2.833   2.104 -0.7886  0.5148  0.0751
20173SOL    HW270834   5.050   2.956   2.018 -0.3753  1.0792  0.7832
20174SOL     OW70835   6.646   7.397   8.934  0.0197 -0.2068  0.2935
20174SOL    HW170836   6.632   7.476   8.882  0.0294  0.0517  0.6791
20174SOL    HW270837   6.588   7.407   9.009  0.1476 -0.4841  0.4317
20175SOL     OW70838   5.017   0.054   3.299  0.0411 -0.1082  0.0877
20175SOL    HW170839   5.098   0.042   3.250  0.4364  2.4542 -0.0361
20175SOL    HW270840   5.044   0.096   3.381 -1.0869  0.1461  0.3524
20176SOL     OW70841   3.967   9.464   1.750  0.1773  0.2252 -0.1562
20176SOL    HW170842   4.001   9.458   1.661  1.8676  0.6023  0.4207
20176SOL    HW270843   3.970   9.557   1.771  2.5751 -0.0906  1.2584
20177SOL     OW70844   3.442   5.470   0.912 -0.2571 -0.3506 -0.0142
20177SOL    HW170845   3.517   5.447   0.966 -0.5809 -1.3886  0.0342
20177SOL    HW270846   3.466   5.551   0.869  0.5632 -0.2487  0.6182
20178SOL     OW70847  11.075   5.748   4.033  0.0441  0.3124 -0.3466
20178SOL    HW170848  11.163   5.786   4.038  0.1832 -0.1519  3.7328
20178SOL    HW270849  11.026   5.790   4.103 -2.5816 -0.5825 -1.5195
20179SOL     OW70850   9.774   3.977   5.777 -0.5522  0.0807 -0.1099
20179SOL    HW170851   9.798   3.913   5.709  0.1212  1.9995 -1.7673
20179SOL    HW270852   9.698   4.022   5.741 -0.7565  0.5188  0.8520
20180SOL     OW70853   1.434   8.454   4.663  0.1424 -0.1962  0.5642
20180SOL    HW170854   1.351   8.430   4.621 -0.5308  0.1096  1.6830
20180SOL    HW270855   1.415   8.536   4.709  0.5167 -1.0587  2.3464
20181SOL     OW70856   5.531   3.664   1.746  0.0941 -0.3655  0.1900
20181SOL    HW170857   5.592   3.606   1.791 -0.6927 -0.5720  0.9925
20181SOL    HW270858   5.588   3.727   1.700  0.9286 -1.2469 -0.0137
20182SOL     OW70859   6.311   1.284   2.577 -0.4309  0.3729  0.0815
20182SOL    HW170860   6.293   1.358   2.636 -0.1976  0.9353 -0.5379
20182SOL    HW270861   6.262   1.305   2.498 -0.0802  0.0287 -0.2238
20183SOL     OW70862   7.340   3.377   1.169 -0.6278  0.2683 -0.6929
20183SOL    HW170863   7.335   3.328   1.087  0.9221  2.2245 -2.0656
20183SOL    HW270864   7.415   3.340   1.215 -0.6312  0.1032 -0.8199
20184SOL     OW70865  11.155   9.820  11.577  0.3085 -0.3045  1.0366
20184SOL    HW170866  11.061   9.819  11.592 -0.0261 -0.5910 -0.8100
20184SOL    HW270867  11.185   9.733  11.602  0.0027 -0.3618  1.2014
20185SOL     OW70868   2.461  10.626  12.475  0.1024 -0.5204  0.2245
20185SOL    HW170869   2.452  10.619  12.380 -0.0841 -0.3459  0.2272
20185SOL    HW270870   2.373  10.651  12.505  0.2320 -0.2978  0.4150
20186SOL     OW70871   3.543  12.027   7.980  0.0878 -0.4138 -0.5447
20186SOL    HW170872   3.482  12.076   8.036 -1.3004 -1.0154 -1.4729
20186SOL    HW270873   3.606  11.989   8.041 -0.5425  0.1408  0.4756
20187SOL     OW70874  10.119   1.962   1.837  0.1715 -0.3440 -0.1668
20187SOL    HW170875  10.027   1.958   1.812  0.5302 -0.7158 -1.5309
20187SOL    HW270876  10.161   2.013   1.767  0.8116  0.8627  1.0685
20188SOL     OW70877  12.714   1.164   1.931  0.5017  0.3994  0.0901
20188SOL    HW170878  12.619   1.178   1.924  0.4731  0.1665  0.0216
20188SOL    HW270879  12.750   1.210   1.855  0.4089  0.1318 -0.1147
20189SOL     OW70880  12.701  12.128   0.645  0.4010  0.1190  0.0983
20189SOL    HW170881  12.732  12.207   0.602  0.0382  1.0948  1.5516
20189SOL    HW270882  12.660  12.159   0.726  0.0876 -1.5396  0.6186
20190SOL     OW70883  10.423   0.137   0.965  0.5524 -0.0401 -0.1446
20190SOL    HW170884  10.395   0.045   0.974  1.6793 -0.4267 -0.4010
20190SOL    HW270885  10.512   0.138   1.000  0.4648  1.0211  0.0821
20191SOL     OW70886   5.276  11.774   6.700  0.3466  0.2030  0.5519
20191SOL    HW170887   5.282  11.724   6.781 -0.5716 -1.2551 -0.2258
20191SOL    HW270888   5.214  11.725   6.646 -1.3504  2.7162  0.0690
20192SOL     OW70889   9.973   1.378  10.551  0.6700 -0.1689  0.2046
20192SOL    HW170890  10.003   1.390  10.641  0.1586 -1.6787  0.5950
20192SOL    HW270891   9.881   1.353  10.559  0.8212 -1.0757 -0.6939
20193SOL     OW70892  11.637   3.154   9.425 -0.2802  0.3497 -0.6263
20193SOL    HW170893  11.620   3.247   9.412 -1.7728  0.3819  1.0423
20193SOL    HW270894  11.559   3.110   9.390 -0.7989 -0.0355  0.9029
20194SOL     OW70895  10.219  12.698  12.375 -0.1890 -0.0136  0.2465
20194SOL    HW170896  10.295  12.640  12.375  0.4782  0.8098  1.4976
20194SOL    HW270897  10.227  12.747  12.293  0.8683  0.3264  0.5279
20195SOL     OW70898   9.990   8.241   3.958 -0.2567 -0.3023  0.2942
20195SOL    HW170899   9.938   8.285   3.891 -0.3497  0.9584  1.1563
20195SOL    HW270900   9.984   8.148   3.936 -0.5407  0.0507 -1.2448
20196SOL     OW70901  12.522   9.899   0.579  0.2839  0.5077 -0.4965
20196SOL    HW170902  12.531   9.804   0.575 -0.4620  0.3524  1.0789
20196SOL    HW270903  12.459   9.920   0.509 -0.8508 -0.3515  0.2406
20197SOL     OW70904   1.702   2.790   9.574  0.6118  0.2199  0.1284
20197SOL    HW170905   1.653   2.869   9.597  0.0769  0.5749 -2.0802
20197SOL    HW270906   1.699   2.737   9.654 -1.5800  1.1426  0.7305
20198SOL     OW70907   6.623   7.147   8.813 -0.1515  0.1459  0.3960
20198SOL    HW170908   6.658   7.230   8.845  1.2410 -0.4341  0.4413
20198SOL    HW270909   6.699   7.089   8.808 -1.0070 -0.9680 -0.1581
20199SOL     OW70910   7.534  12.973   9.010 -0.0779  0.0663  0.0178
20199SOL    HW170911   7.489  12.892   9.034  1.5950 -0.4767  1.4924
20199SOL    HW270912   7.566  13.008   9.093  1.3828  0.9212 -0.8698
20200SOL     OW70913   0.205   0.965   5.707  0.2377 -0.1716  0.3829
20200SOL    HW170914   0.121   0.937   5.742  0.5628 -0.2386  1.1307
20200SOL    HW270915   0.201   1.061   5.709  0.2005 -0.1749  0.4740
20201SOL     OW70916   1.942   0.585   2.033  0.6431 -0.4618  0.2525
20201SOL    HW170917   1.960   0.632   1.952  2.5739  0.2442  1.0443
20201SOL    HW270918   1.967   0.495   2.015 -0.2168 -0.5972 -0.3299
20202SOL     OW70919   5.373  11.133   9.889 -0.1265 -0.0935 -0.4765
20202SOL    HW170920   5.404  11.138   9.798  0.0816 -0.2841 -0.4163
20202SOL    HW270921   5.316  11.210   9.899 -0.1848 -0.0951 -0.7800
20203SOL     OW70922  12.407   8.903   8.884 -0.0739 -0.4303 -0.0375
20203SOL    HW170923  12.441   8.855   8.809  0.1482  0.6093 -0.6191
20203SOL    HW270924  12.484   8.939   8.928 -0.2642 -0.0735  0.0142
20204SOL     OW70925  11.913   7.212   0.599  0.2075 -0.1246  0.5515
20204SOL    HW170926  11.860   7.240   0.673 -0.8463  1.5236 -0.7573
20204SOL    HW270927  11.859   7.147   0.554  0.9888 -1.3823  1.3652
20205SOL     OW70928   5.020  10.432   3.457 -0.1461  0.0343  0.8291
20205SOL    HW170929   4.976  10.374   3.395  0.5578 -2.3421  2.3866
20205SOL    HW270930   5.090  10.474   3.406 -1.2436  0.2439 -0.5545
20206SOL     OW70931   8.403  12.516  10.399 -0.3852 -0.1990 -0.1872
20206SOL    HW170932   8.433  12.426  10.384 -2.4894 -0.8165 -0.9989
20206SOL    HW270933   8.323  12.507  10.451  0.1027  1.3040  0.8926
20207SOL     OW70934   4.510   3.137   4.363  0.2830 -0.4295 -0.3183
20207SOL    HW170935   4.420   3.108   4.348 -0.4614  2.3466 -1.9457
20207SOL    HW270936   4.553   3.125   4.278  0.7118  0.5463 -0.2545
20208SOL     OW70937  11.485  11.366  10.177  0.2131 -0.0684 -0.1280
20208SOL    HW170938  11.465  11.444  10.127  0.2701 -0.7072 -1.1721
20208SOL    HW270939  11.562  11.328  10.134  1.2227  0.1869  1.3763
20209SOL     OW70940   7.659   5.328  11.761  0.3394 -0.4399  0.6886
20209SOL    HW170941   7.603   5.283  11.824 -1.7115  0.0487 -0.6693
20209SOL    HW270942   7.598   5.361  11.695  2.1295  1.3525 -0.1549
20210SOL     OW70943  11.527   7.994   9.404  0.3943  0.0183 -0.6513
20210SOL    HW170944  11.495   7.943   9.479 -2.4612  0.3439 -1.5185
20210SOL    HW270945  11.556   7.928   9.341 -1.5543 -0.5615 -1.0314
20211SOL     OW70946   1.893  11.356  10.472  0.1331 -0.5573  0.1264
20211SOL    HW170947   1.812  11.308  10.458 -1.2624  1.3024  1.4503
20211SOL    HW270948   1.895  11.422  10.402  0.5200 -0.5782  0.1108
20212SOL     OW70949   1.180  11.539   5.624 -0.1777 -0.6302 -0.1032
20212SOL    HW170950   1.232  11.462   5.647  0.1177 -0.3088  0.3150
20212SOL    HW270951   1.218  11.570   5.541  2.3012  1.3342  1.6167
20213SOL     OW70952   7.490   9.710   0.696  0.2250  0.2045 -0.7822
20213SOL    HW170953   7.536   9.776   0.645 -0.4442  2.4221  1.3226
20213SOL    HW270954   7.400   9.740   0.700  0.1233 -0.1832  1.1422
20214SOL     OW70955  10.222   3.753   3.126 -0.2463  0.0906  0.7532
20214SOL    HW170956  10.199   3.728   3.215  0.4557  0.1062  0.9473
20214SOL    HW270957  10.255   3.672   3.085 -0.0528  0.2004  0.6861
20215SOL     OW70958   9.001  11.419  11.854  0.0558  0.2113  0.2539
20215SOL    HW170959   9.006  11.515  11.858  2.6840  0.2761 -1.5639
20215SOL    HW270960   9.089  11.390  11.880 -0.1562 -1.5976 -0.8873
20216SOL     OW70961   1.742   5.191   7.714  0.0531  0.3771  0.3682
20216SOL    HW170962   1.705   5.266   7.761  0.5423  1.0793 -0.3401
20216SOL    HW270963   1.684   5.179   7.639  0.1792  0.2669  0.2891
20217SOL     OW70964   3.891  12.807  10.017 -0.0818 -0.4401  0.3366
20217SOL    HW170965   3.902  12.726  10.067 -0.2926 -0.9463 -0.4267
20217SOL    HW270966   3.808  12.843  10.048  0.4716 -0.0171  1.3609
20218SOL     OW70967   1.310  12.210   3.378 -0.1304  0.3330  0.1832
20218SOL    HW170968   1.265  12.255   3.449 -0.1997 -0.6978  0.8075
20218SOL    HW270969   1.358  12.279   3.332 -2.6569  1.5848 -0.7928
20219SOL     OW70970   7.835   2.142   5.574  0.1141  0.0462  0.6655
20219SOL    HW170971   7.811   2.072   5.513 -0.8696  1.0931 -0.1987
20219SOL    HW270972   7.752   2.169   5.614  0.2181  1.6917 -0.1193
20220SOL     OW70973   4.745   4.552   0.324  0.3378  0.7717 -0.5219
20220SOL    HW170974   4.816   4.504   0.367 -1.1862  0.0494  1.3538
20220SOL    HW270975   4.756   4.642   0.354  0.2322  0.5798  0.1220
20221SOL     OW70976  11.218   2.129  12.901  0.3867 -0.2577 -0.0395
20221SOL    HW170977  11.284   2.112  12.834  1.2742  0.8041  0.5190
20221SOL    HW270978  11.147   2.069  12.881  1.7055 -1.7592 -0.3958
20222SOL     OW70979  12.596   7.473   4.400  0.0521 -1.0046 -0.2447
20222SOL    HW170980  12.606   7.394   4.452  1.1418  0.1757  1.4309
20222SOL    HW270981  12.658   7.535   4.438 -1.2568  0.9026 -1.0582
20223SOL     OW70982   1.927   4.836  10.400  0.3295 -0.4217  0.2673
20223SOL    HW170983   1.884   4.836  10.485 -2.0659 -0.9589 -0.8421
20223SOL    HW270984   1.874   4.896  10.346 -0.1084 -2.3794 -1.6388
20224SOL     OW70985   1.863   0.614   1.311  0.4244  0.7161 -0.1351
20224SOL    HW170986   1.891   0.704   1.295 -0.1597  0.8722 -0.3179
20224SOL    HW270987   1.942   0.562   1.298  1.1534  1.3495  1.5497
20225SOL     OW70988   1.055   0.291   3.356 -0.0695  0.1161  0.1511
20225SOL    HW170989   1.078   0.384   3.362  0.4664 -0.0546  0.9135
20225SOL    HW270990   1.120   0.254   3.296 -1.0763  0.4708 -1.1851
20226SOL     OW70991   0.489   9.582   6.554  0.4708 -0.7203 -0.4792
20226SOL    HW170992   0.532   9.660   6.517  1.4022 -0.6966  0.6101
20226SOL    HW270993   0.447   9.540   6.478 -0.2794  0.9720 -1.0485
20227SOL     OW70994   1.340   8.409   9.257 -0.1871  0.5667  0.0728
20227SOL    HW170995   1.338   8.380   9.166 -1.5234 -1.5702  0.7056
20227SOL    HW270996   1.303   8.497   9.255  0.5926  0.8901 -1.5320
20228SOL     OW70997   2.272   2.430   5.018 -0.2159  0.5503 -0.3207
20228SOL    HW170998   2.301   2.498   5.078  1.5244 -0.7693  0.4190
20228SOL    HW270999   2.251   2.355   5.074 -1.1069  0.1175 -1.1909
20229SOL     OW71000   6.780   9.304   2.495 -0.3400  0.0293 -0.5399
20229SOL    HW171001   6.841   9.272   2.428  0.4632 -1.5052  0.8389
20229SOL    HW271002   6.728   9.227   2.518  0.6549 -0.0072  1.8656
20230SOL     OW71003   2.456   5.273   3.137  0.0585 -0.0612 -0.2859
20230SOL    HW171004   2.448   5.276   3.042 -2.2505 -0.0144 -0.1471
20230SOL    HW271005   2.383   5.219   3.165 -0.2229  1.1915  1.5611
20231SOL     OW71006   2.969   5.460   9.837  0.9323  0.1909  0.1896
20231SOL    HW171007   2.882   5.477   9.875  1.3815  0.9568  0.9053
20231SOL    HW271008   3.025   5.527   9.875  2.2124 -1.2846  1.0117
20232SOL     OW71009   7.870   0.612  12.167 -0.0206  0.5112  0.2060
20232SOL    HW171010   7.881   0.619  12.262  1.1895  0.9468  0.0515
20232SOL    HW271011   7.844   0.700  12.139  1.7249  0.9661 -0.0990
20233SOL     OW71012  10.540   7.111   4.621 -0.3349 -0.0409  0.8598
20233SOL    HW171013  10.530   7.024   4.660 -0.6886  0.1362  1.1684
20233SOL    HW271014  10.475   7.164   4.665 -0.9118  0.1074 -0.1500
20234SOL     OW71015  10.859   9.608   9.631  0.3528  0.4230 -0.1936
20234SOL    HW171016  10.836   9.697   9.658 -1.5325 -0.1979  0.4358
20234SOL    HW271017  10.833   9.603   9.539 -1.0539  0.0914  0.1928
20235SOL     OW71018   4.882   0.316  11.932  0.4066 -0.5653 -0.1617
20235SOL    HW171019   4.821   0.259  11.884 -0.3425  0.9546 -1.0777
20235SOL    HW271020   4.941   0.350  11.865  0.5036  0.1674  0.2897
20236SOL     OW71021   8.258   7.304   5.508 -0.4098 -0.7424 -0.2612
20236SOL    HW171022   8.172   7.346   5.509 -0.0011  0.1312  0.2999
20236SOL    HW271023   8.319   7.377   5.500  0.3169 -1.2630  0.4304
20237SOL     OW71024  10.598   3.058  11.317  0.2173  0.0535 -0.3240
20237SOL    HW171025  10.532   3.039  11.384  1.1595  0.3049  0.6992
20237SOL    HW271026  10.547   3.083  11.240 -0.9244 -1.4074 -0.0890
20238SOL     OW71027   6.690  12.754   2.859  0.1698 -0.0142 -0.3126
20238SOL    HW171028   6.772  12.707   2.874  0.3526  0.1964 -0.6499
20238SOL    HW271029   6.716  12.844   2.842  0.0150 -0.3086 -2.2887
20239SOL     OW71030   2.206   2.548  11.500  0.3718  0.0332  0.0620
20239SOL    HW171031   2.214   2.643  11.490 -1.2634  0.0343 -1.8482
20239SOL    HW271032   2.288   2.514  11.463 -0.8914  0.6116 -3.6971
20240SOL     OW71033  12.488   4.149  11.879 -0.2648  0.3047  0.3171
20240SOL    HW171034  12.550   4.076  11.874  0.9009  1.0676  2.2703
20240SOL    HW271035  12.410   4.111  11.920 -0.2362 -0.1621 -0.0551
20241SOL     OW71036  10.978   1.534   0.570 -0.1440  0.1245  0.5042
20241SOL    HW171037  11.050   1.557   0.511 -0.5593  1.1542  0.3742
20241SOL    HW271038  10.899   1.550   0.519 -0.5032 -2.5196  0.0826
20242SOL     OW71039   8.222  12.968   8.608 -0.5073  0.2029  0.0347
20242SOL    HW171040   8.185  12.881   8.627  0.2912 -1.0150 -3.2311
20242SOL    HW271041   8.313  12.950   8.585 -0.1732  2.0211 -0.1777
20243SOL     OW71042   7.713   7.380   7.530  0.6735 -0.1137 -0.1166
20243SOL    HW171043   7.700   7.414   7.619  0.8570  0.0366 -0.1468
20243SOL    HW271044   7.750   7.293   7.542  1.4371  0.2146 -0.0535
20244SOL     OW71045   1.798   6.331   2.270 -0.4855 -0.0845  0.5697
20244SOL    HW171046   1.789   6.240   2.300 -1.1628 -0.4604 -0.6990
20244SOL    HW271047   1.715   6.372   2.293 -1.2718 -0.5451 -1.2280
20245SOL     OW71048   0.970   3.823   3.275 -0.0965 -0.7723  0.3573
20245SOL    HW171049   0.995   3.732   3.290  0.5237 -0.2212  3.0981
20245SOL    HW271050   0.888   3.818   3.227  1.0400 -2.7026 -1.5693
20246SOL     OW71051   9.362   2.115   6.639  0.3432 -0.0276  0.2766
20246SOL    HW171052   9.378   2.087   6.729  1.2755 -0.5799 -0.0519
20246SOL    HW271053   9.365   2.034   6.588  0.7445  0.3914 -0.3735
20247SOL     OW71054   2.684   5.940  11.780  0.2315 -0.1301 -0.3340
20247SOL    HW171055   2.638   5.965  11.860 -0.4212 -0.5244 -0.5805
20247SOL    HW271056   2.675   6.016  11.722 -0.1018 -0.1941 -0.3713
20248SOL     OW71057  12.846   8.342   4.442 -0.0332 -0.3973  0.2883
20248SOL    HW171058  12.768   8.393   4.463 -0.7135 -1.0730 -0.5133
20248SOL    HW271059  12.905   8.356   4.516 -0.4329  1.0690  0.3611
20249SOL     OW71060  12.024   3.805   4.333  0.3474  0.0147 -0.1717
20249SOL    HW171061  12.038   3.880   4.275  0.7969 -0.2080 -0.3564
20249SOL    HW271062  12.068   3.829   4.415  0.4775 -0.0353 -0.2256
20250SOL     OW71063   7.316   7.042   6.911  0.3043  0.0068  0.2193
20250SOL    HW171064   7.400   7.061   6.954  0.9628 -0.2689 -0.9247
20250SOL    HW271065   7.313   6.947   6.905 -0.0021  0.0274  0.0678
20251SOL     OW71066   5.732   9.641   5.203  0.5866 -0.1819 -0.4241
20251SOL    HW171067   5.770   9.670   5.121 -0.4062 -0.2242 -0.9118
20251SOL    HW271068   5.711   9.549   5.188  2.0792 -0.7286  0.5120
20252SOL     OW71069   4.804  12.434   1.084 -0.2144  0.1986  0.3723
20252SOL    HW171070   4.846  12.520   1.074 -0.8805  0.5933  0.9331
20252SOL    HW271071   4.798  12.400   0.995 -0.3354  0.9258  0.0964
20253SOL     OW71072   7.718   1.080   1.705 -0.7513  0.1237 -0.1532
20253SOL    HW171073   7.692   1.160   1.751  0.5528 -0.2092  1.2483
20253SOL    HW271074   7.788   1.108   1.646  0.0725 -0.0401  0.7200
20254SOL     OW71075  11.792   3.382   7.262 -0.1741 -0.2643  0.1972
20254SOL    HW171076  11.782   3.295   7.301 -2.1998 -0.9972 -1.7204
20254SOL    HW271077  11.778   3.368   7.168 -0.4332  2.1091 -0.1951
20255SOL     OW71078   7.150   8.227   5.621  0.0242 -0.4013  0.4742
20255SOL    HW171079   7.175   8.146   5.576  0.1407 -0.7109  1.0787
20255SOL    HW271080   7.090   8.198   5.690  0.7819 -0.0884  1.2781
20256SOL     OW71081   6.459   0.722   2.434 -0.1696  0.0507  0.1593
20256SOL    HW171082   6.419   0.640   2.462 -0.4542  0.6598  1.6048
20256SOL    HW271083   6.539   0.730   2.487 -0.3605  0.8946  0.3366
20257SOL     OW71084   3.426   1.136   9.063 -0.4796 -0.6723  0.6208
20257SOL    HW171085   3.497   1.199   9.072 -0.0109 -1.3422  2.1027
20257SOL    HW271086   3.430   1.108   8.972 -0.0271  0.6419  0.2142
20258SOL     OW71087   3.555   6.508  10.160  0.5423 -0.3310 -0.3789
20258SOL    HW171088   3.519   6.490  10.073 -1.7099  2.2275 -0.0948
20258SOL    HW271089   3.506   6.450  10.218 -1.0931  0.9938 -0.3678
20259SOL     OW71090   2.549  12.786  12.449  0.2567 -0.4065  0.0551
20259SOL    HW171091   2.570  12.732  12.526 -1.5964 -0.0670  0.8420
20259SOL    HW271092   2.624  12.845  12.440 -0.0890  0.4861  2.4648
20260SOL     OW71093   6.979   6.350   7.272 -0.3817  0.6821  0.2161
20260SOL    HW171094   6.991   6.363   7.178  1.4492 -1.7837  0.0366
20260SOL    HW271095   6.904   6.291   7.279 -0.4349  0.7585  0.2953
20261SOL     OW71096  12.390   7.919   0.211  0.3456 -0.6140  0.0899
20261SOL    HW171097  12.443   7.894   0.287  2.3404  2.2536 -0.2147
20261SOL    HW271098  12.422   7.864   0.140  0.9326 -0.8357  0.5158
20262SOL     OW71099   7.514  11.329   1.738  0.0064 -1.1143 -0.2391
20262SOL    HW171100   7.530  11.329   1.643 -0.1020 -2.4010 -0.2855
20262SOL    HW271101   7.522  11.237   1.763 -0.2836 -0.8342  0.9558
20263SOL     OW71102   6.597   6.015  11.474  0.2086  0.1650  0.2813
20263SOL    HW171103   6.536   6.088  11.461  0.6060  0.5521  0.5629
20263SOL    HW271104   6.671   6.054  11.522  1.1202 -0.0768 -0.8890
20264SOL     OW71105   9.875   9.579   7.179  0.3224 -0.0975  0.5212
20264SOL    HW171106   9.912   9.548   7.262 -1.8811 -2.0330  0.9185
20264SOL    HW271107   9.792   9.621   7.205 -0.0436 -0.0755 -0.6348
20265SOL     OW71108   5.265   3.133   1.157 -0.1106  0.4309 -0.3185
20265SOL    HW171109   5.211   3.101   1.085  2.1035  0.4590 -2.1219
20265SOL    HW271110   5.303   3.215   1.124  1.0309  0.4097  0.8504
20266SOL     OW71111   7.888   8.091   5.055 -0.3359  0.1139 -0.1618
20266SOL    HW171112   7.823   8.144   5.102  0.1652  0.2335  0.4157
20266SOL    HW271113   7.917   8.146   4.983 -1.4689 -0.2536 -0.9242
20267SOL     OW71114   7.370   2.942   7.640 -0.5605 -0.2104 -0.1957
20267SOL    HW171115   7.435   2.881   7.607 -0.7728 -0.7859  0.4103
20267SOL    HW271116   7.296   2.887   7.666 -0.7265  0.2862  0.4398
20268SOL     OW71117   1.105   8.501   8.361 -0.2102 -0.0189 -0.1032
20268SOL    HW171118   1.081   8.524   8.271  0.3905 -0.0094 -0.2708
20268SOL    HW271119   1.187   8.550   8.376  0.0612 -0.5609  0.2057
20269SOL     OW71120   8.690   7.458   8.512 -0.1359 -0.1272  0.5131
20269SOL    HW171121   8.633   7.423   8.443 -0.9350  1.4411  0.3368
20269SOL    HW271122   8.673   7.552   8.512  2.6372  0.4588  0.2970
20270SOL     OW71123  11.837   7.671  12.662 -0.2291  0.6644 -0.1474
20270SOL    HW171124  11.815   7.708  12.576 -0.6583  0.4822 -0.1151
20270SOL    HW271125  11.771   7.604  12.678 -0.2005  0.7543  0.3668
20271SOL     OW71126   4.875   7.219   8.791 -0.8794 -0.0333 -0.2426
20271SOL    HW171127   4.829   7.304   8.790 -1.2821 -0.2456 -1.2064
20271SOL    HW271128   4.898   7.204   8.699 -0.3412 -0.7274  0.0017
20272SOL     OW71129   2.751   7.571  11.193 -0.1997  0.6032 -0.6428
20272SOL    HW171130   2.745   7.496  11.134  1.9274 -0.0306 -0.1355
20272SOL    HW271131   2.796   7.638  11.141  1.3105  0.1835  0.0753
20273SOL     OW71132  10.370   4.611   6.712  0.4970 -0.0036  0.9389
20273SOL    HW171133  10.307   4.595   6.641  0.7309  1.9329  0.2510
20273SOL    HW271134  10.416   4.527   6.722 -1.5408 -1.1904  0.8465
20274SOL     OW71135  11.240   4.242  12.306 -0.1438  0.3756  0.2954
20274SOL    HW171136  11.284   4.210  12.227 -0.5695 -0.1381  0.2599
20274SOL    HW271137  11.272   4.332  12.316  1.3667 -0.1565  0.5937
20275SOL     OW71138   5.731   8.846   4.737 -0.3252 -0.2091 -0.4385
20275SOL    HW171139   5.717   8.937   4.762 -2.0524 -0.9729  1.7523
20275SOL    HW271140   5.692   8.837   4.651 -2.8899  0.5116  0.5690
20276SOL     OW71141  10.192  11.957   7.971  0.1255  0.4084  0.2311
20276SOL    HW171142  10.286  11.973   7.986  0.5626 -2.5145  1.3286
20276SOL    HW271143  10.175  11.875   8.017 -2.8171  0.4254 -0.6670
20277SOL     OW71144   0.763   8.730   5.908 -0.2648  0.1644 -0.0616
20277SOL    HW171145   0.715   8.813   5.912 -1.1475 -0.3693  0.6905
20277SOL    HW271146   0.820   8.739   5.832  0.2675  1.7908  0.4962
20278SOL     OW71147  11.466   0.860  10.109 -0.4310 -0.3925 -0.0012
20278SOL    HW171148  11.420   0.843  10.027 -0.5672 -0.4755  0.0914
20278SOL    HW271149  11.536   0.922  10.086 -0.2252 -0.7163 -0.2518
20279SOL     OW71150   6.062   8.372  11.295 -0.5273  0.0249 -0.1770
20279SOL    HW171151   6.152   8.350  11.270  0.1653  1.0009  1.3472
20279SOL    HW271152   6.041   8.448  11.241  0.0682  0.6210  0.4125
20280SOL     OW71153   5.062   7.392   0.106 -0.1182  0.1530  0.1704
20280SOL    HW171154   4.974   7.355   0.114 -1.0945  2.4354  0.9525
20280SOL    HW271155   5.121   7.318   0.117 -1.9293 -1.2766  0.7358
20281SOL     OW71156   2.824   4.212   0.941 -0.3228 -0.3420 -0.4880
20281SOL    HW171157   2.851   4.224   0.850  1.1655  0.1558 -0.0183
20281SOL    HW271158   2.828   4.118   0.956  0.3721 -0.3470 -0.6825
20282SOL     OW71159   0.229   0.824  11.054 -0.2184 -0.2874  0.4111
20282SOL    HW171160   0.285   0.880  11.107  0.8213 -2.0066  1.2107
20282SOL    HW271161   0.246   0.851  10.964  1.2671 -0.1893  0.6938
20283SOL     OW71162   4.069   4.233  10.620  0.4995 -0.0419 -0.0375
20283SOL    HW171163   4.033   4.316  10.589  1.0527  0.8899  1.6969
20283SOL    HW271164   3.994   4.187  10.658 -0.2355 -1.2982 -2.7592
20284SOL     OW71165  11.345  12.613  12.813 -0.3619 -0.0574 -0.1217
20284SOL    HW171166  11.392  12.651  12.739  0.2575 -1.4159 -0.4469
20284SOL    HW271167  11.411  12.560  12.859 -0.6356  1.0103  1.6090
20285SOL     OW71168  10.386   0.447   9.651 -0.2525 -0.2163 -0.0783
20285SOL    HW171169  10.328   0.513   9.613 -0.4273 -0.0771  0.4220
20285SOL    HW271170  10.449   0.497   9.703 -0.0451 -0.4091 -0.1387
20286SOL     OW71171   5.796   0.779   2.163  0.5631 -0.8113  0.0865
20286SOL    HW171172   5.768   0.694   2.198 -0.0392 -0.2882  0.9302
20286SOL    HW271173   5.725   0.804   2.104 -1.1119  0.6890  2.5087
20287SOL     OW71174   3.380   3.728   3.476  0.1113 -0.2868 -0.3848
20287SOL    HW171175   3.426   3.667   3.418  0.2814 -1.4208  0.8876
20287SOL    HW271176   3.410   3.704   3.564 -0.8976  0.7254  0.2542
20288SOL     OW71177  11.337   4.888   7.643 -0.4724  0.5284 -0.5125
20288SOL    HW171178  11.343   4.848   7.556 -0.1984 -0.5656 -0.0143
20288SOL    HW271179  11.336   4.982   7.626  1.8676  0.4285 -1.6090
20289SOL     OW71180   3.630   3.702   6.675 -0.4046  0.3910  0.0303
20289SOL    HW171181   3.700   3.653   6.719 -2.0399 -1.5062  0.6984
20289SOL    HW271182   3.636   3.790   6.711  0.5273 -0.1971  1.4186
20290SOL     OW71183   0.646   7.982   8.402  0.3549  0.1190 -0.0235
20290SOL    HW171184   0.564   7.940   8.375 -0.5289  1.5469  0.3068
20290SOL    HW271185   0.711   7.951   8.339  0.0471 -2.6137  0.8587
20291SOL     OW71186   3.366  11.781   5.014 -0.5149  0.6614  0.0024
20291SOL    HW171187   3.444  11.826   5.045 -0.2450 -0.3658  0.8891
20291SOL    HW271188   3.351  11.816   4.926  1.7738 -0.1230 -0.7809
20292SOL     OW71189   6.885   9.695   5.504  0.0982 -0.6714 -0.0818
20292SOL    HW171190   6.931   9.732   5.579 -1.7646 -0.8402  1.2021
20292SOL    HW271191   6.844   9.770   5.461  2.5375 -0.3301 -2.0314
20293SOL     OW71192   0.947   5.747   8.449 -0.3159  0.0598 -0.6059
20293SOL    HW171193   1.010   5.770   8.518  0.9936  0.2681 -1.8344
20293SOL    HW271194   0.862   5.765   8.489  0.4565  2.0852  0.3027
20294SOL     OW71195  10.011  12.619   2.909 -0.2138  1.2540 -0.1506
20294SOL    HW171196  10.006  12.708   2.874  0.8002  1.3901  0.0153
20294SOL    HW271197  10.084  12.579   2.862 -0.2156  0.7403  0.2754
20295SOL     OW71198   2.528   3.299   6.085  0.3902 -0.0618 -0.0107
20295SOL    HW171199   2.479   3.350   6.148 -0.4175 -0.7584 -0.0623
20295SOL    HW271200   2.565   3.226   6.136 -2.0280 -1.8543 -0.6473
20296SOL     OW71201   1.385   4.599   4.063 -0.1859 -0.1273  0.7632
20296SOL    HW171202   1.411   4.517   4.021 -2.1216 -1.3194  1.7696
20296SOL    HW271203   1.431   4.599   4.147 -1.7786 -1.2534  1.6747
20297SOL     OW71204   0.795  11.584   7.885  0.3784  0.1697  0.0913
20297SOL    HW171205   0.838  11.651   7.831  1.1185 -2.0910 -2.3006
20297SOL    HW271206   0.726  11.550   7.829  1.9340 -3.1043 -0.0456
20298SOL     OW71207  11.193   6.280   8.327  0.1552  0.4037 -0.9228
20298SOL    HW171208  11.188   6.295   8.421  0.0934 -1.5771 -0.5775
20298SOL    HW271209  11.216   6.366   8.290  0.6326  1.1020  0.9141
20299SOL     OW71210  11.809  11.590   4.368  0.1267  0.1445 -0.4258
20299SOL    HW171211  11.749  11.589   4.293 -4.4873 -2.4888  2.7233
20299SOL    HW271212  11.808  11.681   4.398 -2.7781  0.2040 -0.3720
20300SOL     OW71213   3.691   4.251   7.762 -0.0714  0.3787  0.1432
20300SOL    HW171214   3.753   4.291   7.823 -0.2698  1.4868 -0.3413
20300SOL    HW271215   3.742   4.186   7.715  0.4821  0.6097  0.4142
20301SOL     OW71216   7.319   6.098  11.481  0.2650  0.2997 -0.1833
20301SOL    HW171217   7.386   6.033  11.502 -1.3906 -0.9725  1.4152
20301SOL    HW271218   7.363   6.182  11.493  1.4783 -0.4976  1.2806
20302SOL     OW71219   5.686   3.435   2.174 -0.1407 -0.4881  0.8278
20302SOL    HW171220   5.692   3.342   2.194 -0.4743 -0.6090  0.3637
20302SOL    HW271221   5.610   3.465   2.223 -0.2905 -0.5470  0.6280
20303SOL     OW71222  10.193  11.636   8.687  0.1240  0.0631  0.1198
20303SOL    HW171223  10.273  11.608   8.732  1.0598 -0.2889 -1.6570
20303SOL    HW271224  10.213  11.725   8.658 -0.2941  0.1342  0.0552
20304SOL     OW71225   6.781   4.033   9.149 -0.5322  0.3005 -0.4426
20304SOL    HW171226   6.717   4.061   9.085 -0.5198  3.9210  0.8839
20304SOL    HW271227   6.864   4.028   9.101 -1.0458 -0.0508 -1.2933
20305SOL     OW71228   1.256  11.027   7.487 -0.7427 -0.5949 -0.3182
20305SOL    HW171229   1.230  11.016   7.579 -2.7903 -2.0246 -1.0101
20305SOL    HW271230   1.280  11.119   7.480 -0.3392 -0.4978  1.6842
20306SOL     OW71231   5.742  11.456   7.307 -0.3005  0.1237 -0.0409
20306SOL    HW171232   5.755  11.497   7.222 -1.7222 -1.3458 -1.0252
20306SOL    HW271233   5.797  11.378   7.305 -1.1657 -0.5124 -0.0994
20307SOL     OW71234   7.995   9.171  10.376 -0.3816 -0.1744 -0.1623
20307SOL    HW171235   8.052   9.235  10.335 -0.5907 -0.2987 -0.6506
20307SOL    HW271236   7.963   9.116  10.304  0.2440 -1.1921  0.3098
20308SOL     OW71237   6.631   1.613   6.333 -0.8762 -0.5472 -0.2220
20308SOL    HW171238   6.558   1.674   6.329 -0.2705  0.3951  1.6228
20308SOL    HW271239   6.680   1.640   6.411  2.8586  0.4310 -2.6657
20309SOL     OW71240  10.995   8.833   6.900  0.1169  0.2746  0.3897
20309SOL    HW171241  10.969   8.921   6.928  0.5336 -0.2508  2.6004
20309SOL    HW271242  10.916   8.794   6.863 -0.4379  1.0623  0.7402
20310SOL     OW71243   0.869  12.061   3.615  0.4600  0.3432  0.4789
20310SOL    HW171244   0.840  12.122   3.546 -0.9910 -1.3615 -0.5030
20310SOL    HW271245   0.797  11.999   3.624  1.9756 -1.3939  1.2484
20311SOL     OW71246   7.226   8.099   8.715 -0.0440 -0.5822 -0.4293
20311SOL    HW171247   7.317   8.070   8.710  0.0096 -0.3361 -0.9502
20311SOL    HW271248   7.189   8.050   8.788  0.5607 -0.5362 -0.0867
20312SOL     OW71249   8.293   7.412   4.699  0.1367  0.1043 -0.1812
20312SOL    HW171250   8.324   7.385   4.612 -0.4592  0.4612 -0.5127
20312SOL    HW271251   8.265   7.503   4.687 -1.1504 -0.2374  0.0627
20313SOL     OW71252  10.253  10.488  12.654 -0.0366 -0.1604 -0.0284
20313SOL    HW171253  10.247  10.395  12.677 -1.1674  0.1057  0.8587
20313SOL    HW271254  10.343  10.513  12.676 -0.2688 -0.6070  1.5672
20314SOL     OW71255  12.363   2.266   3.390 -0.0956 -0.0029 -0.1776
20314SOL    HW171256  12.439   2.301   3.344 -0.2156  0.4597 -0.0275
20314SOL    HW271257  12.318   2.213   3.325  0.1797 -0.0158 -0.3585
20315SOL     OW71258   1.916   6.433   0.081  0.7347  0.4048  0.2063
20315SOL    HW171259   1.963   6.516   0.085  0.1240  0.7957 -0.5060
20315SOL    HW271260   1.958   6.378   0.147  1.2049  1.2474  0.6205
20316SOL     OW71261   3.531   0.534   3.415  0.2213 -0.2324  0.4672
20316SOL    HW171262   3.617   0.492   3.417 -0.3713 -1.6251 -0.9220
20316SOL    HW271263   3.547   0.624   3.443  1.5053 -1.3812  3.8914
20317SOL     OW71264   1.130   1.223   2.846 -0.3527  0.4254 -0.3442
20317SOL    HW171265   1.173   1.194   2.766 -0.1923  0.7531 -0.3817
20317SOL    HW271266   1.131   1.319   2.841 -1.4247  0.4396 -0.5157
20318SOL     OW71267   1.268  11.219   1.815 -0.0073 -0.0485 -0.7207
20318SOL    HW171268   1.352  11.239   1.774 -0.9960  2.2075 -1.8020
20318SOL    HW271269   1.204  11.267   1.764 -1.9174 -1.1513  0.5026
20319SOL     OW71270  10.252   6.706  12.574  0.4074 -0.2675  0.6847
20319SOL    HW171271  10.278   6.781  12.628 -2.1186  1.1529  0.1117
20319SOL    HW271272  10.201   6.651  12.633 -1.6986  0.8995  0.0608
20320SOL     OW71273   0.387   7.004   1.505 -0.1554 -0.2414  0.0818
20320SOL    HW171274   0.329   7.012   1.580 -0.3632  0.2620 -0.1356
20320SOL    HW271275   0.423   7.091   1.493  0.3120 -0.4489 -0.0593
20321SOL     OW71276   7.461  11.455   8.746 -0.3179 -0.1007  0.0610
20321SOL    HW171277   7.398  11.519   8.712 -2.0112 -1.2389  0.8879
20321SOL    HW271278   7.519  11.437   8.672  1.4991  3.7443  0.2973
20322SOL     OW71279   7.554  10.737  11.445 -0.0437 -0.0272 -0.0312
20322SOL    HW171280   7.537  10.789  11.366  0.6964  0.0600 -0.1469
20322SOL    HW271281   7.486  10.671  11.446  0.4247 -0.5607 -1.2196
20323SOL     OW71282   9.149  10.851   8.732 -0.0670  0.2806  0.6646
20323SOL    HW171283   9.125  10.761   8.755  1.0752  0.2812  1.9022
20323SOL    HW271284   9.066  10.890   8.703 -0.2436 -1.7520 -1.9957
20324SOL     OW71285  12.790   1.730   3.982 -0.2080 -0.6130  0.2622
20324SOL    HW171286  12.858   1.781   3.938 -0.6204  0.2528  0.5995
20324SOL    HW271287  12.741   1.795   4.032 -0.8232 -1.3362  0.6089
20325SOL     OW71288  12.361  10.790   6.245 -0.3490  0.1585 -0.6590
20325SOL    HW171289  12.349  10.771   6.338 -0.5395  0.0425 -0.7075
20325SOL    HW271290  12.361  10.705   6.202 -0.7275  0.2363 -0.8191
20326SOL     OW71291  11.718   7.607   5.553  0.1575 -0.6162  0.6401
20326SOL    HW171292  11.713   7.529   5.608  0.5447 -1.4027 -0.4093
20326SOL    HW271293  11.628   7.621   5.524 -0.3378  0.6563  2.5551
20327SOL     OW71294   1.270   3.252   8.693 -0.4658  0.1563  0.5866
20327SOL    HW171295   1.336   3.309   8.732  0.8644  0.1496 -1.5020
20327SOL    HW271296   1.188   3.299   8.705  0.1028  0.8529  1.9619
20328SOL     OW71297   8.203   3.739   4.355  0.0647 -0.3793 -0.8735
20328SOL    HW171298   8.194   3.826   4.393 -1.4891 -0.4814 -0.9145
20328SOL    HW271299   8.125   3.692   4.384  0.5223 -1.5339 -1.4297
20329SOL     OW71300  11.075   5.315   4.628 -0.3849  0.3089 -0.7225
20329SOL    HW171301  11.114   5.359   4.553  0.9449 -2.0882 -1.5457
20329SOL    HW271302  10.999   5.268   4.592  0.0382 -0.5468 -0.5249
20330SOL     OW71303   3.003  12.632   6.667 -0.1741 -0.1154  0.6129
20330SOL    HW171304   2.957  12.558   6.705 -0.2697 -2.0049 -2.8088
20330SOL    HW271305   2.938  12.674   6.610  0.8523  0.4238 -0.2004
20331SOL     OW71306   2.401  10.611   0.385  0.1776 -0.2206 -0.2331
20331SOL    HW171307   2.438  10.522   0.389  0.3760 -0.0969  1.0384
20331SOL    HW271308   2.315  10.599   0.344  0.1637 -1.0083  0.0103
20332SOL     OW71309   0.574   7.197  10.836  0.1860 -0.0481  0.4126
20332SOL    HW171310   0.497   7.224  10.887  0.3648 -0.4077  0.8767
20332SOL    HW271311   0.626   7.144  10.897 -0.1703 -1.4775 -0.4683
20333SOL     OW71312   1.349   5.444   4.204  0.0981 -0.2507  0.6582
20333SOL    HW171313   1.260   5.477   4.219  0.0494 -0.4448  0.8006
20333SOL    HW271314   1.403   5.492   4.266  0.1252  0.0064  0.4415
20334SOL     OW71315   1.883   1.509   2.799  0.0574 -0.5791 -0.2873
20334SOL    HW171316   1.875   1.432   2.743 -1.6156  0.8977 -2.2436
20334SOL    HW271317   1.805   1.506   2.855  1.0515 -1.3405  1.1310
20335SOL     OW71318   4.250   9.267  12.179 -0.2386  0.2636 -0.5436
20335SOL    HW171319   4.198   9.196  12.141  0.5175 -0.1350 -0.8663
20335SOL    HW271320   4.311   9.292  12.108  2.3143 -1.5756  0.8353
20336SOL     OW71321   0.292   2.484  10.720  0.0272  0.0746  0.1309
20336SOL    HW171322   0.266   2.566  10.761 -0.4272 -0.1700  0.3406
20336SOL    HW271323   0.230   2.474  10.647  0.5964  0.3240 -0.4022
20337SOL     OW71324  12.053   3.834   5.113  0.3780 -0.5148 -0.3439
20337SOL    HW171325  12.013   3.762   5.163  2.6604 -1.8633 -0.3197
20337SOL    HW271326  11.983   3.865   5.056 -1.7336 -0.3048  2.1756
20338SOL     OW71327   3.938   6.467   0.096  0.1801 -0.1646  0.4657
20338SOL    HW171328   4.014   6.503   0.050  1.0278 -1.1395  1.0565
20338SOL    HW271329   3.935   6.375   0.068 -0.4627 -0.2617  0.8456
20339SOL     OW71330   5.392   8.075   9.186  0.0549 -0.3323  0.3591
20339SOL    HW171331   5.313   8.035   9.150  0.6344 -1.3364  0.1676
20339SOL    HW271332   5.388   8.167   9.156  0.4755 -1.0854 -2.3292
20340SOL     OW71333   1.826   8.560   2.471  0.3278  0.2575 -0.1586
20340SOL    HW171334   1.810   8.471   2.502  1.6361  0.3349  0.8026
20340SOL    HW271335   1.836   8.551   2.376  0.4309 -0.6207 -0.0730
20341SOL     OW71336   0.221   8.215  10.153 -0.6720 -0.0091 -0.0947
20341SOL    HW171337   0.301   8.165  10.170  0.3536  1.4812 -0.2953
20341SOL    HW271338   0.155   8.175  10.209  0.4109 -0.7982  0.6595
20342SOL     OW71339   2.389  11.003  10.316  0.5302 -0.0202  0.7211
20342SOL    HW171340   2.356  11.075  10.262  1.1836 -1.8863 -2.4741
20342SOL    HW271341   2.452  11.043  10.375  0.2934  2.1232 -0.4014
20343SOL     OW71342   1.664   3.533  12.385 -0.2547 -0.1980  0.0364
20343SOL    HW171343   1.623   3.567  12.464 -0.1984 -1.8036  0.8067
20343SOL    HW271344   1.599   3.473  12.348 -0.1134  0.2151 -0.9042
20344SOL     OW71345   6.062  12.219   5.301  0.3115 -0.0084 -0.4663
20344SOL    HW171346   6.092  12.266   5.222  0.6093  0.0990 -0.2921
20344SOL    HW271347   5.970  12.243   5.309  1.2166  3.4731  1.6198
20345SOL     OW71348   4.331   7.471  11.113 -0.2033 -0.6047 -0.4139
20345SOL    HW171349   4.311   7.556  11.153 -2.0193 -0.5274 -1.3888
20345SOL    HW271350   4.405   7.489  11.055 -0.3421  0.2338 -0.3476
20346SOL     OW71351   8.899   1.937   5.748  0.5030  0.0440  0.3648
20346SOL    HW171352   8.892   2.032   5.756  1.5390  0.1028  0.8091
20346SOL    HW271353   8.854   1.915   5.667  0.7329  0.9791 -0.0215
20347SOL     OW71354   4.866   9.282   4.268  0.0080 -0.1211  0.0694
20347SOL    HW171355   4.921   9.351   4.230 -1.2292 -0.1981 -1.9846
20347SOL    HW271356   4.797   9.268   4.203 -1.9482 -0.6535  2.1538
20348SOL     OW71357   5.442   1.240   0.838 -0.2528  0.2381  0.0194
20348SOL    HW171358   5.511   1.295   0.874 -0.1560  0.5654 -0.6477
20348SOL    HW271359   5.396   1.296   0.776  0.2520 -0.5989 -1.1596
20349SOL     OW71360   2.009   1.009  11.098 -0.4080  0.1595  0.0062
20349SOL    HW171361   1.933   1.065  11.113 -0.6648 -0.4323  0.9954
20349SOL    HW271362   2.082   1.055  11.141 -0.8407 -0.7744  1.8550
20350SOL     OW71363   4.274  10.090   4.794 -0.1738 -0.1193  0.5009
20350SOL    HW171364   4.325  10.118   4.718 -1.0918  2.2875  0.6625
20350SOL    HW271365   4.331  10.106   4.869 -0.0443 -0.4483  0.4749
20351SOL     OW71366  11.660   3.112   3.874  0.1767 -0.8275 -0.5728
20351SOL    HW171367  11.703   3.074   3.797  0.3789  0.2028 -0.9759
20351SOL    HW271368  11.660   3.041   3.938 -0.0070 -1.7128 -1.5199
20352SOL     OW71369   9.302   4.229   1.119 -0.2306  0.1342  0.2283
20352SOL    HW171370   9.371   4.285   1.084  1.0117 -0.4558  1.6203
20352SOL    HW271371   9.234   4.228   1.051  1.1594  0.6750 -1.2202
20353SOL     OW71372   3.215   3.841   1.942  0.5132 -0.5152 -0.2960
20353SOL    HW171373   3.142   3.891   1.978  0.4196 -0.4323 -0.6005
20353SOL    HW271374   3.230   3.879   1.856  1.7992  0.3572  0.2932
20354SOL     OW71375  10.721   9.308   3.153 -0.5576 -0.1653 -0.1608
20354SOL    HW171376  10.627   9.318   3.168 -0.3797  1.2967  0.1207
20354SOL    HW271377  10.742   9.221   3.187 -1.4982  0.1745  1.3919
20355SOL     OW71378   3.721   7.319   2.365  0.4253  0.0740  0.3898
20355SOL    HW171379   3.652   7.386   2.364 -0.5220 -0.8703  1.1175
20355SOL    HW271380   3.800   7.367   2.391  0.2077  1.2903 -1.0265
20356SOL     OW71381   4.750   7.739   6.914 -0.0733  0.0997 -0.0677
20356SOL    HW171382   4.805   7.661   6.915 -0.5999 -0.2816 -0.1285
20356SOL    HW271383   4.810   7.811   6.931  0.3287 -0.3792  0.6190
20357SOL     OW71384   9.612  11.594   9.078  0.3974 -0.7755  0.5848
20357SOL    HW171385   9.579  11.669   9.029 -2.0047 -0.2164  2.8220
20357SOL    HW271386   9.564  11.519   9.043  1.1188 -0.9282 -0.1029
20358SOL     OW71387   9.459  11.953   4.381 -0.0343  0.2442 -0.8835
20358SOL    HW171388   9.426  11.877   4.429 -0.3930  1.5222  1.0107
20358SOL    HW271389   9.539  11.978   4.427  1.1939 -0.1357 -2.7077
20359SOL     OW71390   4.458   6.844   9.709 -0.0634 -0.1702  0.2085
20359SOL    HW171391   4.490   6.932   9.732 -1.7401  0.6105 -0.2407
20359SOL    HW271392   4.362   6.854   9.708 -0.3250 -2.1984  0.8676
20360SOL     OW71393   6.872  11.164   2.740  0.2886  0.1317  0.0005
20360SOL    HW171394   6.858  11.236   2.679  1.1042 -0.1479 -0.5280
20360SOL    HW271395   6.787  11.153   2.784  0.5397  2.3910  1.2102
20361SOL     OW71396   0.226   7.149   3.499  0.1283 -0.3723  0.1739
20361SOL    HW171397   0.305   7.171   3.549 -0.1914 -0.8299  0.8882
20361SOL    HW271398   0.241   7.189   3.413  1.7390 -1.5680 -0.1598
20362SOL     OW71399   2.228   3.060   5.541 -0.3978  0.0823  0.5548
20362SOL    HW171400   2.305   3.098   5.582  0.7043 -2.6579  1.1927
20362SOL    HW271401   2.156   3.117   5.568  0.9500  0.9044  2.6052
20363SOL     OW71402   0.883   2.688   8.023  0.0869 -0.2884 -0.4925
20363SOL    HW171403   0.952   2.697   8.089  0.5665  0.0238 -1.0231
20363SOL    HW271404   0.891   2.597   7.993 -1.1316 -0.8975  0.9426
20364SOL     OW71405   2.966   4.193  12.001  0.5467  0.5836  0.0528
20364SOL    HW171406   2.941   4.101  12.010  1.3858  0.1968 -1.3202
20364SOL    HW271407   2.915   4.226  11.927  1.9057  0.5734 -0.9225
20365SOL     OW71408   3.700   9.540   9.385 -0.7736  0.2770 -0.1667
20365SOL    HW171409   3.731   9.627   9.359 -0.4867  0.3756  0.4858
20365SOL    HW271410   3.744   9.480   9.325 -0.0400  0.4910  0.1473
20366SOL     OW71411   8.675   4.577   1.504 -0.0634 -0.2186 -0.2235
20366SOL    HW171412   8.593   4.615   1.536 -0.6740 -1.8774  0.2641
20366SOL    HW271413   8.740   4.599   1.571 -0.2362  0.5209 -0.2844
20367SOL     OW71414   6.790  11.269   3.940 -0.2624  0.4040  0.0937
20367SOL    HW171415   6.792  11.198   3.877 -2.1479 -0.4093  0.8994
20367SOL    HW271416   6.699  11.295   3.945  0.4356  3.3932 -0.6699
20368SOL     OW71417   8.759   0.123   6.655  0.4341 -0.6320  0.6106
20368SOL    HW171418   8.757   0.081   6.569 -1.0158 -3.1454  1.7766
20368SOL    HW271419   8.672   0.163   6.664  1.1596  1.1373  0.2952
20369SOL     OW71420   4.461   7.622  12.920 -0.0332  0.2726  0.4736
20369SOL    HW171421   4.502   7.706  12.899  0.9848 -0.1899  0.5581
20369SOL    HW271422   4.373   7.629  12.883  0.8403  0.4458 -1.7560
20370SOL     OW71423   4.177   7.927  10.632  0.3138 -0.2364 -0.1822
20370SOL    HW171424   4.212   8.011  10.605  1.2652 -0.7835 -0.7325
20370SOL    HW271425   4.111   7.948  10.698  1.1053  0.8932  0.2864
20371SOL     OW71426   2.563   6.180   0.156  0.4408 -0.2005  0.6665
20371SOL    HW171427   2.567   6.228   0.074  1.2250 -0.4226  0.5652
20371SOL    HW271428   2.643   6.127   0.157  1.2826  1.0126  2.3182
20372SOL     OW71429   9.298   7.880   6.199 -0.2804  0.3048 -0.1175
20372SOL    HW171430   9.386   7.850   6.224  0.0039  0.8630 -0.4268
20372SOL    HW271431   9.244   7.863   6.276  0.1135  0.0140  0.0972
20373SOL     OW71432   2.033   1.076   9.343  0.3023 -0.0748  0.2398
20373SOL    HW171433   2.009   1.168   9.331  1.7434  0.4571  1.2056
20373SOL    HW271434   1.968   1.028   9.291  0.1199  1.5299 -1.1169
20374SOL     OW71435   3.990   0.036  12.951 -0.3192  0.4994 -0.2473
20374SOL    HW171436   3.995   0.082  12.867 -1.7334  2.3529  0.6217
20374SOL    HW271437   4.044   0.087  13.011  1.3845 -1.2855 -0.1496
20375SOL     OW71438   9.351   9.739  11.865  0.1984  0.5897  0.1446
20375SOL    HW171439   9.309   9.669  11.815  0.1094  0.5082  0.3342
20375SOL    HW271440   9.371   9.700  11.950  1.8046  0.2355 -0.3574
20376SOL     OW71441   6.992   5.036   3.876 -0.1084 -0.3457  0.5399
20376SOL    HW171442   6.913   5.034   3.823  0.5779 -1.4851 -0.4977
20376SOL    HW271443   6.964   5.011   3.964 -1.0615  0.3560  0.4432
20377SOL     OW71444   0.667   9.188   8.222  0.5993  0.1331 -0.0195
20377SOL    HW171445   0.695   9.245   8.150 -1.8903  1.4912 -0.0238
20377SOL    HW271446   0.642   9.248   8.292  0.6784 -1.0925  1.0972
20378SOL     OW71447  12.452   6.782  10.110  0.3022 -0.1184  0.1126
20378SOL    HW171448  12.445   6.864  10.159  0.8207  0.6199 -1.0069
20378SOL    HW271449  12.456   6.714  10.177  1.0661  0.8672  1.0983
20379SOL     OW71450   3.954   0.140  11.867 -0.2308 -0.1638  0.2992
20379SOL    HW171451   3.862   0.162  11.881 -0.3373 -0.9517  0.9473
20379SOL    HW271452   4.003   0.209  11.911 -0.4804  0.8110 -0.8978
20380SOL     OW71453   9.849   1.570  12.077  0.5124 -0.1810  0.2708
20380SOL    HW171454   9.824   1.520  11.999  0.8801  1.7270 -1.1402
20380SOL    HW271455   9.898   1.508  12.130  1.5893 -1.1581 -1.7396
20381SOL     OW71456   5.933   6.240   3.335 -0.3869  0.2166 -0.4173
20381SOL    HW171457   5.946   6.233   3.240 -0.9202 -0.8538 -0.4288
20381SOL    HW271458   5.945   6.333   3.354 -0.9151  0.5616 -1.6414
20382SOL     OW71459   6.099   0.455   3.290  0.2713 -0.4374 -0.0849
20382SOL    HW171460   6.068   0.377   3.335 -1.9893  0.4829  0.0859
20382SOL    HW271461   6.024   0.515   3.291  1.8723  1.6932 -0.3280
20383SOL     OW71462   4.812   9.478   6.513 -0.2746 -0.3283 -0.5454
20383SOL    HW171463   4.898   9.516   6.533  0.1998 -1.6807  0.0564
20383SOL    HW271464   4.821   9.446   6.423  0.3465 -1.7676  0.0077
20384SOL     OW71465   1.112   8.143  11.684 -0.3194 -0.2504 -0.3129
20384SOL    HW171466   1.131   8.215  11.624  1.3785 -1.7129 -1.6358
20384SOL    HW271467   1.189   8.137  11.740 -0.2528 -1.3053 -0.5029
20385SOL     OW71468  10.325  11.791   9.951  0.1945 -0.3772 -0.2329
20385SOL    HW171469  10.336  11.845   9.872  1.4376 -0.0103  0.1686
20385SOL    HW271470  10.309  11.703   9.917 -1.6404  0.1600 -0.8993
20386SOL     OW71471   3.642   3.380   2.313  0.0361  0.0280 -0.1981
20386SOL    HW171472   3.674   3.468   2.295  0.3093 -0.0325 -0.0153
20386SOL    HW271473   3.672   3.361   2.402 -1.3114  0.3261  0.3464
20387SOL     OW71474   8.106  11.990   9.337  0.2528  0.2185  0.3669
20387SOL    HW171475   8.072  12.079   9.348  0.9966  0.3567  1.8153
20387SOL    HW271476   8.179  11.985   9.398  0.1702 -1.4176  0.3678
20388SOL     OW71477   4.053   3.755  10.345 -0.1240 -0.0049 -0.0143
20388SOL    HW171478   4.074   3.752  10.251 -0.3775 -0.6179 -0.0581
20388SOL    HW271479   4.021   3.843  10.360 -0.4995 -0.0378 -0.6036
20389SOL     OW71480   0.129  10.250   0.875  0.4039  0.1890 -1.5860
20389SOL    HW171481   0.076  10.202   0.812 -1.4137 -0.3197  0.2042
20389SOL    HW271482   0.074  10.256   0.953  2.6224  0.5361  0.0697
20390SOL     OW71483   6.803  10.878   1.253  0.1702  0.4013 -0.2570
20390SOL    HW171484   6.797  10.954   1.310 -1.5139 -0.0071  0.1664
20390SOL    HW271485   6.887  10.838   1.275 -0.6587 -0.0738  2.4147
20391SOL     OW71486   7.013   5.867   7.708  1.0038 -0.4979  0.1491
20391SOL    HW171487   6.986   5.955   7.734  0.4442 -0.4001 -0.7060
20391SOL    HW271488   7.056   5.880   7.623 -0.1772 -1.1788 -0.5884
20392SOL     OW71489   4.345   1.949   5.952  0.0751  0.0501 -0.1516
20392SOL    HW171490   4.405   2.018   5.979 -0.1045 -0.1620  0.8179
20392SOL    HW271491   4.261   1.992   5.943  0.5547  0.6206 -2.7554
20393SOL     OW71492   3.537   0.838   1.604 -0.3103 -0.3385 -0.0221
20393SOL    HW171493   3.614   0.808   1.653  0.9128  2.1817 -0.2825
20393SOL    HW271494   3.465   0.826   1.666  0.6014 -0.8249  0.9941
20394SOL     OW71495  10.704  11.356   2.057 -0.1567  1.0345 -0.4400
20394SOL    HW171496  10.742  11.269   2.052 -2.4415 -0.1757  1.5341
20394SOL    HW271497  10.704  11.377   2.150 -0.9856  2.5249 -0.7488
20395SOL     OW71498   9.999   8.448   4.465  0.6398 -0.0762  0.0965
20395SOL    HW171499   9.967   8.390   4.395 -0.4065  1.3353 -0.6569
20395SOL    HW271500   9.925   8.456   4.524  0.3873  1.3113 -0.3758
20396SOL     OW71501  12.152   3.010  10.517  0.5311  0.0167 -0.2816
20396SOL    HW171502  12.097   3.062  10.576  1.2874  1.7123 -0.9870
20396SOL    HW271503  12.097   2.996  10.440  0.5757  0.4495 -0.3955
20397SOL     OW71504   5.954   6.593   7.928  0.0976 -0.2136  0.0702
20397SOL    HW171505   5.892   6.527   7.957  0.4015 -0.5951 -0.1370
20397SOL    HW271506   5.913   6.677   7.950  0.2753 -0.4729  1.5259
20398SOL     OW71507   8.698   1.458   5.337  0.0038  0.2549  0.3496
20398SOL    HW171508   8.774   1.494   5.383  0.9639 -0.1304 -0.8715
20398SOL    HW271509   8.720   1.366   5.323  0.4026  0.6405 -2.0586
20399SOL     OW71510  12.026   4.378   5.440 -0.0197  0.2688  0.0645
20399SOL    HW171511  11.949   4.323   5.453 -0.4017  0.1624 -2.2012
20399SOL    HW271512  12.084   4.357   5.513 -1.1585 -1.3733  0.5353
20400SOL     OW71513   9.884  12.668   4.405 -0.7322 -0.5502  0.1242
20400SOL    HW171514   9.803  12.706   4.441 -1.4589 -0.5826 -1.3955
20400SOL    HW271515   9.915  12.733   4.343 -1.2583 -1.8057 -1.5195
20401SOL     OW71516  10.030   7.461  11.626 -0.2452  0.3106 -0.4352
20401SOL    HW171517  10.113   7.424  11.595  1.0035  1.1414  1.6674
20401SOL    HW271518   9.964   7.398  11.598  1.2986 -1.2485 -0.7726
20402SOL     OW71519  11.351   3.673   3.889  0.2425 -0.0787 -0.2873
20402SOL    HW171520  11.424   3.728   3.860 -0.1443  0.7306  0.2663
20402SOL    HW271521  11.371   3.587   3.852  0.6453  0.5135 -1.5078
20403SOL     OW71522   5.967   4.238   4.569  0.5536  0.1614 -0.2900
20403SOL    HW171523   6.060   4.238   4.588  0.5651  0.5853 -0.3348
20403SOL    HW271524   5.947   4.329   4.546  0.1715  0.0313 -0.4817
20404SOL     OW71525   5.283   4.275   7.600  0.0256 -0.0205 -0.2713
20404SOL    HW171526   5.200   4.250   7.558 -1.0842  1.5771  0.8246
20404SOL    HW271527   5.256   4.327   7.676  2.0382 -0.2000  0.6170
20405SOL     OW71528   9.938   4.604   8.234  0.0059 -0.1780  0.6293
20405SOL    HW171529   9.959   4.510   8.226  3.6472  0.6254 -1.9793
20405SOL    HW271530   9.885   4.623   8.157  2.0234  0.3952 -0.6913
20406SOL     OW71531   5.092   5.482   8.835 -0.0545 -0.5895 -0.4081
20406SOL    HW171532   5.126   5.475   8.746 -0.0970 -1.6241 -0.3605
20406SOL    HW271533   5.137   5.557   8.873 -0.4446  0.1991 -1.4761
20407SOL     OW71534  12.886  12.949  11.975  0.0474 -0.7351  0.2068
20407SOL    HW171535  12.955  12.950  11.908 -0.3251  1.4348 -0.1917
20407SOL    HW271536  12.895  13.033  12.020 -3.3403  0.3825 -0.9316
20408SOL     OW71537   3.428   8.983   9.399  0.0815 -0.0648 -0.3168
20408SOL    HW171538   3.498   8.992   9.464  0.2929  0.2834 -0.5920
20408SOL    HW271539   3.434   8.892   9.370 -0.1574 -0.2885  0.3101
20409SOL     OW71540  10.686   0.527   5.893 -0.1987  0.6277 -0.5621
20409SOL    HW171541  10.772   0.519   5.853 -0.2644  1.6694 -0.9435
20409SOL    HW271542  10.648   0.607   5.855 -0.6144  1.1905  0.9101
20410SOL     OW71543  11.529   2.925   9.625  0.0995 -0.0843  0.0712
20410SOL    HW171544  11.452   2.976   9.604  0.8353  0.4753 -1.4074
20410SOL    HW271545  11.539   2.864   9.552  1.5611  0.4876 -0.2523
20411SOL     OW71546  12.498  12.357   6.896  0.0483  0.5577  0.0919
20411SOL    HW171547  12.492  12.274   6.849  0.8120  1.4739 -1.7320
20411SOL    HW271548  12.412  12.369   6.935  0.2410 -1.5720  1.2958
20412SOL     OW71549   7.909  11.312   9.684  0.0538 -0.6721 -0.6757
20412SOL    HW171550   7.858  11.314   9.765  1.1452  0.5111  0.0154
20412SOL    HW271551   7.858  11.256   9.625 -0.3736 -2.1803  1.0647
20413SOL     OW71552   4.443   0.829   5.097  0.4812 -0.0247  0.0495
20413SOL    HW171553   4.530   0.823   5.057  0.5822  3.3420 -0.5182
20413SOL    HW271554   4.383   0.831   5.022  0.2120  0.8720  0.2794
20414SOL     OW71555   9.134   8.350   7.547 -0.2111 -0.3515  0.0316
20414SOL    HW171556   9.040   8.347   7.529 -0.0270 -1.3877 -0.8700
20414SOL    HW271557   9.175   8.314   7.469  1.0821  1.9669 -0.4504
20415SOL     OW71558   6.670   4.879   6.692 -0.0607 -0.1099  1.2890
20415SOL    HW171559   6.732   4.911   6.626  1.0567 -0.0427  2.3420
20415SOL    HW271560   6.608   4.951   6.704  0.8416  0.6117  1.6734
20416SOL     OW71561  10.420   0.576   8.374 -0.1158 -0.2308  0.5461
20416SOL    HW171562  10.468   0.659   8.373  1.4985 -1.1057  1.8315
20416SOL    HW271563  10.448   0.532   8.294  0.0326 -0.0826  0.5150
20417SOL     OW71564   5.760  10.983   9.961  0.0430  0.4043  0.1447
20417SOL    HW171565   5.810  11.064   9.973  1.9317 -0.8035  0.9473
20417SOL    HW271566   5.750  10.948  10.050  2.0185 -1.7493 -0.3824
20418SOL     OW71567   2.962   1.134   0.527 -0.6017 -0.0839 -0.0484
20418SOL    HW171568   2.891   1.198   0.516 -0.8143 -0.2183  0.5202
20418SOL    HW271569   2.926   1.052   0.492 -0.2072  0.1699 -1.1006
20419SOL     OW71570   9.730   8.527  10.893  0.3142 -0.2068  0.0748
20419SOL    HW171571   9.678   8.535  10.973  0.1808  0.3347 -0.0638
20419SOL    HW271572   9.672   8.557  10.824  0.0452 -1.7152 -0.3860
20420SOL     OW71573   8.381  10.649   6.295  0.6596 -0.6306  0.0519
20420SOL    HW171574   8.359  10.689   6.379 -1.4261  0.7675 -1.0785
20420SOL    HW271575   8.477  10.647   6.294  0.8472  2.3379  1.1758
20421SOL     OW71576  10.041   1.865   4.466  0.2147  0.4665 -1.1613
20421SOL    HW171577  10.062   1.898   4.553  0.0334  1.0745 -1.3392
20421SOL    HW271578   9.977   1.928   4.432  0.5414  0.4334 -1.8640
20422SOL     OW71579   5.981   9.067   9.298  0.0563 -0.5463 -0.2118
20422SOL    HW171580   6.020   9.077   9.385 -2.2244  0.7631  0.7406
20422SOL    HW271581   5.951   9.155   9.275  2.4077 -0.3800 -3.3247
20423SOL     OW71582   0.539   9.687   9.249  0.5596 -0.2201  0.3398
20423SOL    HW171583   0.541   9.692   9.153 -0.2880 -0.7627  0.2805
20423SOL    HW271584   0.563   9.596   9.268 -0.7775 -0.5363  0.5635
20424SOL     OW71585   9.300   3.302   2.730  0.1925 -0.3090  0.2116
20424SOL    HW171586   9.307   3.217   2.774 -0.0384  0.0885  1.0173
20424SOL    HW271587   9.390   3.335   2.727 -0.0850  0.9365  2.9507
20425SOL     OW71588   1.891   1.331   1.460 -0.1517  0.1791  0.4637
20425SOL    HW171589   1.885   1.426   1.453  1.2742  0.1987 -1.0507
20425SOL    HW271590   1.973   1.316   1.507  0.6816 -0.2918 -1.0765
20426SOL     OW71591   9.155   3.360   0.473  0.2075  0.4249 -0.3426
20426SOL    HW171592   9.179   3.400   0.556  0.0068 -0.2433  0.0439
20426SOL    HW271593   9.078   3.307   0.493  0.6589 -0.4221 -0.7619
20427SOL     OW71594   0.796  10.936  11.622  0.4345  0.0781 -0.0338
20427SOL    HW171595   0.846  10.870  11.670  2.3617  1.2009 -0.4061
20427SOL    HW271596   0.854  10.963  11.551 -0.2780  2.2286  0.1504
20428SOL     OW71597   4.208   3.652   4.164 -1.1726 -0.1261 -0.0845
20428SOL    HW171598   4.144   3.673   4.232 -0.1060  0.6333  0.7155
20428SOL    HW271599   4.256   3.734   4.151 -1.6474 -0.1173 -2.1063
20429SOL     OW71600   8.087   1.253   8.345  0.1725 -0.0325  0.3590
20429SOL    HW171601   8.102   1.159   8.351  1.0732  0.0341 -0.6441
20429SOL    HW271602   8.171   1.289   8.318  0.5211  1.3347  2.9097
20430SOL     OW71603   1.957   6.692   5.201 -0.0544  0.0703 -0.1213
20430SOL    HW171604   1.962   6.624   5.268 -2.0000  0.2523  0.2790
20430SOL    HW271605   2.041   6.687   5.155  0.7265 -1.0690  1.3464
20431SOL     OW71606   2.637   7.168   8.228  0.2562 -0.3871 -0.1589
20431SOL    HW171607   2.720   7.206   8.197 -0.8766  2.1477 -0.3068
20431SOL    HW271608   2.571   7.202   8.168 -1.2070 -0.3507  1.3983
20432SOL     OW71609  10.112   6.086   9.143  0.0119 -0.2723 -0.1182
20432SOL    HW171610  10.057   6.015   9.110  0.7437 -0.2647 -1.4099
20432SOL    HW271611  10.076   6.106   9.230 -1.4305 -0.8871 -0.5454
20433SOL     OW71612   7.390   2.531   3.468  0.2752  0.4478 -0.2820
20433SOL    HW171613   7.426   2.596   3.527 -0.1978  0.7664 -0.3333
20433SOL    HW271614   7.295   2.535   3.482  0.3068 -1.2975  0.8161
20434SOL     OW71615   7.092   9.800   3.598 -0.1738  0.2642 -0.8740
20434SOL    HW171616   6.997   9.806   3.594 -0.2556 -0.5753 -0.3976
20434SOL    HW271617   7.116   9.858   3.670 -0.7300 -2.6442  1.8875
20435SOL     OW71618  10.788   7.525   2.011  0.7940  0.2887 -0.0361
20435SOL    HW171619  10.757   7.613   2.031  1.5983  0.5929 -0.0945
20435SOL    HW271620  10.710   7.469   2.020 -0.3232  1.3282 -2.4420
20436SOL     OW71621   2.076  10.892  11.253  0.1459 -0.1432  0.1717
20436SOL    HW171622   2.013  10.937  11.197 -0.4274 -1.1077  0.0129
20436SOL    HW271623   2.157  10.942  11.243 -0.6016  1.1722  0.4495
20437SOL     OW71624   3.814   3.621  10.216  0.2231  0.4164  0.2850
20437SOL    HW171625   3.802   3.596  10.308  2.4785 -1.8055  0.0625
20437SOL    HW271626   3.907   3.642  10.209  0.0037  0.9327 -1.4375
20438SOL     OW71627   2.036   4.101   2.004  1.0532 -0.3444  0.7928
20438SOL    HW171628   2.088   4.028   1.969  1.6909  0.6258 -0.3279
20438SOL    HW271629   2.037   4.167   1.935 -1.5812 -0.2254  0.7777
20439SOL     OW71630   6.536   0.200  10.464 -0.0802  0.5041 -0.2713
20439SOL    HW171631   6.537   0.214  10.369  0.7794  0.7388 -0.2388
20439SOL    HW271632   6.614   0.246  10.496  0.8399 -1.3499  0.2940
20440SOL     OW71633   8.643   5.220   7.396 -0.2815  0.0213  0.2508
20440SOL    HW171634   8.587   5.284   7.441  1.3804  1.8467 -0.1105
20440SOL    HW271635   8.723   5.217   7.449  0.7991  0.4689 -1.2692
20441SOL     OW71636   8.382   6.017   3.981  0.5820  0.4613 -0.0625
20441SOL    HW171637   8.375   6.101   4.025 -1.2372 -0.3826  1.4402
20441SOL    HW271638   8.396   6.038   3.889 -0.6330  2.4208  0.1600
20442SOL     OW71639  10.076   6.768  10.293 -0.3768 -0.5071 -0.0340
20442SOL    HW171640  10.065   6.712  10.216 -2.6299  0.4922 -0.5218
20442SOL    HW271641  10.089   6.856  10.257 -3.1770  0.2715  0.6016
20443SOL     OW71642  11.167   0.462   6.035 -0.6430 -0.3844 -0.5519
20443SOL    HW171643  11.090   0.492   5.987  0.5788  0.2136 -2.2206
20443SOL    HW271644  11.133   0.436   6.121 -2.8468 -1.1414 -1.5837
20444SOL     OW71645   2.048  10.470   8.364 -0.7979  0.1549  0.1235
20444SOL    HW171646   2.068  10.398   8.424 -0.6284  0.5362  0.5346
20444SOL    HW271647   2.054  10.549   8.419 -0.8324  0.4928 -0.3519
20445SOL     OW71648   4.040   4.558   5.018 -0.4095  0.4140  0.3393
20445SOL    HW171649   4.033   4.464   4.997 -0.1233 -0.0122  2.0282
20445SOL    HW271650   3.952   4.593   5.000  0.0704  0.3684 -2.5660
20446SOL     OW71651   9.611   8.201  12.067 -0.7250 -0.4195  0.2655
20446SOL    HW171652   9.653   8.276  12.108 -0.6486  0.8105 -1.9287
20446SOL    HW271653   9.678   8.166  12.008 -1.5048 -0.8342 -0.3818
20447SOL     OW71654   6.065   1.969  10.466 -0.0419 -0.2660 -0.2210
20447SOL    HW171655   5.981   1.946  10.428  0.2275  0.1155 -1.0924
20447SOL    HW271656   6.079   1.906  10.536  0.2288 -2.1285 -1.8726
20448SOL     OW71657   7.554   8.563   8.892  0.3954 -0.3269 -0.3416
20448SOL    HW171658   7.522   8.653   8.881 -0.1042 -0.5391 -0.6740
20448SOL    HW271659   7.483   8.508   8.857  0.2121 -0.9022  0.8899
20449SOL     OW71660   6.147   5.642   4.249  0.2149 -0.0167  0.1707
20449SOL    HW171661   6.102   5.664   4.330  0.6100  3.2281 -0.3438
20449SOL    HW271662   6.239   5.637   4.273  0.1938 -0.4348  0.1640
20450SOL     OW71663   1.744   7.355   7.890 -0.1779  0.4397 -0.0511
20450SOL    HW171664   1.828   7.396   7.911 -0.4616 -0.1201  2.4473
20450SOL    HW271665   1.765   7.263   7.877 -0.4836  0.1228  1.5119
20451SOL     OW71666   3.468  11.207   3.463  0.3668  0.6378 -0.3446
20451SOL    HW171667   3.543  11.169   3.508  0.6360  1.3083 -0.2134
20451SOL    HW271668   3.445  11.144   3.395 -0.6327 -0.8786  1.2983
20452SOL     OW71669  11.437   6.050   8.709 -0.4600  0.1246  0.0377
20452SOL    HW171670  11.476   5.977   8.757  0.8399 -0.1855 -1.4057
20452SOL    HW271671  11.344   6.045   8.730 -0.4460 -2.0927 -0.1560
20453SOL     OW71672   2.619   9.048   9.648  0.1029 -0.0499 -0.1668
20453SOL    HW171673   2.696   8.993   9.662 -0.5922 -0.5742  1.8116
20453SOL    HW271674   2.606   9.046   9.553  1.3622 -1.5485 -0.3521
20454SOL     OW71675   0.084   8.300   0.605 -0.3146 -0.1955  0.5310
20454SOL    HW171676   0.095   8.220   0.553  2.4425  1.0828 -1.1358
20454SOL    HW271677   0.058   8.367   0.541  0.6095  0.9005  1.2535
20455SOL     OW71678  10.201   8.111   6.488  0.2625  0.0633 -0.1474
20455SOL    HW171679  10.289   8.124   6.524  0.1393 -2.5641  1.3849
20455SOL    HW271680  10.143   8.128   6.561 -0.3800 -0.0771 -0.6188
20456SOL     OW71681  12.763   1.167   5.811 -0.0363 -0.3573  0.3476
20456SOL    HW171682  12.677   1.133   5.785  0.3531  0.2988 -2.1038
20456SOL    HW271683  12.743   1.232   5.878 -1.4115 -0.5804  0.2038
20457SOL     OW71684   0.455   6.454   7.678 -0.2769  0.1992 -0.1504
20457SOL    HW171685   0.526   6.409   7.633 -1.8213 -1.2486 -1.2745
20457SOL    HW271686   0.390   6.471   7.610 -1.8076 -0.1981  1.1341
20458SOL     OW71687   9.939   2.995   5.264 -0.0782  0.6056 -0.3776
20458SOL    HW171688   9.996   3.003   5.187 -0.5272 -0.0982 -0.7868
20458SOL    HW271689   9.985   3.045   5.332  0.1765  1.5005 -1.1755
20459SOL     OW71690  10.476   4.050   4.665  0.2742 -0.3645 -0.4856
20459SOL    HW171691  10.525   3.985   4.715 -0.3321 -1.4906 -1.3342
20459SOL    HW271692  10.504   4.038   4.574 -1.0889 -0.6134 -0.8973
20460SOL     OW71693   2.545   3.981   5.662  0.0193 -0.0463 -0.2086
20460SOL    HW171694   2.561   3.921   5.589  1.1811 -0.0379  0.0256
20460SOL    HW271695   2.538   3.924   5.738 -0.5644 -0.0022 -0.2214
20461SOL     OW71696   5.345   8.739   2.491 -0.1105  0.3700  0.4235
20461SOL    HW171697   5.317   8.782   2.572  1.4762 -0.4461  1.4619
20461SOL    HW271698   5.432   8.704   2.511  0.6565  0.7631 -1.8754
20462SOL     OW71699   2.341   2.701   1.328  0.4521 -0.0197  0.9097
20462SOL    HW171700   2.337   2.615   1.370 -1.0737 -1.3088 -1.6369
20462SOL    HW271701   2.417   2.695   1.269 -0.2997 -0.0903 -0.0869
20463SOL     OW71702   8.868   0.311   4.892  0.5088  0.0588 -0.2363
20463SOL    HW171703   8.846   0.274   4.978  1.1855 -0.2741 -0.1976
20463SOL    HW271704   8.785   0.345   4.858  0.6920  2.9215  1.8241
20464SOL     OW71705  12.388  10.292   4.277 -0.0393 -0.6546 -0.0600
20464SOL    HW171706  12.304  10.266   4.240 -0.6262  1.2568 -0.1335
20464SOL    HW271707  12.387  10.254   4.366 -0.8584 -0.8570 -0.1441
20465SOL     OW71708  12.845   1.334   1.743  0.1425  0.1847 -0.1127
20465SOL    HW171709  12.863   1.424   1.714 -0.5389  0.4022  0.1089
20465SOL    HW271710  12.838   1.284   1.661 -0.7627  0.5969 -0.3025
20466SOL     OW71711   0.095   8.274  12.928 -0.5446 -0.0858 -0.4849
20466SOL    HW171712   0.043   8.237  12.856 -0.9763  1.4073 -0.9880
20466SOL    HW271713   0.070   8.367  12.929 -0.5411 -0.0741  1.6045
20467SOL     OW71714  10.386   6.033   9.095  0.1376  0.4402  0.0755
20467SOL    HW171715  10.300   6.060   9.127 -0.7631 -0.0216 -1.8143
20467SOL    HW271716  10.371   6.011   9.002  2.1529 -0.2864 -0.1168
20468SOL     OW71717   9.309   2.139  11.420 -0.0446 -0.1678 -0.1313
20468SOL    HW171718   9.355   2.164  11.500 -0.7561  1.4045 -0.1911
20468SOL    HW271719   9.282   2.221  11.380  1.0408 -0.8583 -2.4776
20469SOL     OW71720   6.859  12.575   9.879  0.1510  0.4128  0.2896
20469SOL    HW171721   6.767  12.601   9.873  0.2862  0.8776  0.1815
20469SOL    HW271722   6.869  12.539   9.967 -0.1620  0.2446  0.2579
20470SOL     OW71723   7.258  11.458   1.742 -0.6652  0.1789  0.2888
20470SOL    HW171724   7.342  11.413   1.735 -1.3626 -1.9236  3.5645
20470SOL    HW271725   7.267  11.535   1.686  1.8896 -2.1194 -2.8087
20471SOL     OW71726   2.235   1.892   9.138  0.0436 -0.0419 -0.3575
20471SOL    HW171727   2.175   1.946   9.189  2.6538  1.8577  0.9238
20471SOL    HW271728   2.255   1.818   9.196 -1.3233 -0.9299 -0.9709
20472SOL     OW71729   7.322   3.551   3.015  0.3147  0.0818  0.2759
20472SOL    HW171730   7.254   3.504   2.967  2.3135  0.4504 -3.2265
20472SOL    HW271731   7.373   3.482   3.058 -0.9397 -0.3449  1.1225
20473SOL     OW71732   7.196  11.886   6.591 -0.6398  0.8154 -0.6123
20473SOL    HW171733   7.151  11.827   6.652 -0.9410  0.2546 -1.3672
20473SOL    HW271734   7.288  11.883   6.618 -1.0063  1.9149  0.8973
20474SOL     OW71735   1.925   3.437   1.908  0.2161 -0.2974 -0.3144
20474SOL    HW171736   1.918   3.472   1.820  1.8508  2.2366  0.4544
20474SOL    HW271737   1.887   3.506   1.964 -0.8128 -1.8421  0.9856
20475SOL     OW71738   0.168   2.288   1.813  0.5109  0.2168  0.4333
20475SOL    HW171739   0.242   2.242   1.774 -0.1165 -0.2979 -0.1860
20475SOL    HW271740   0.117   2.319   1.738  0.1263  0.6027  0.8515
20476SOL     OW71741   2.864  10.921   7.476 -0.8249  0.0293  0.5808
20476SOL    HW171742   2.808  10.929   7.399 -1.2004  0.1185  0.8629
20476SOL    HW271743   2.814  10.868   7.537 -0.0531 -1.0311  0.3292
20477SOL     OW71744   5.637   5.401   5.810  0.3688  0.4084  0.0612
20477SOL    HW171745   5.573   5.467   5.785  0.7199  0.4679 -0.7051
20477SOL    HW271746   5.678   5.375   5.728  0.1372 -0.8762  0.3261
20478SOL     OW71747  11.683  11.676   0.918  0.1159 -0.0728  0.3553
20478SOL    HW171748  11.774  11.657   0.939  0.7716  1.4081 -0.9695
20478SOL    HW271749  11.643  11.590   0.903  1.1652 -0.7588  1.3515
20479SOL     OW71750   2.199   2.407   8.740 -0.0930  0.2965  0.1632
20479SOL    HW171751   2.164   2.462   8.670  0.4723  1.9054  1.0966
20479SOL    HW271752   2.288   2.440   8.754 -0.4963  0.6072  2.2096
20480SOL     OW71753  10.687   7.742   9.402  0.4078  0.4181 -0.0612
20480SOL    HW171754  10.595   7.730   9.424  0.6492 -0.2535  0.6212
20480SOL    HW271755  10.691   7.730   9.307 -0.0580 -0.5346  0.0269
20481SOL     OW71756   1.195   7.262  10.645  0.1117 -0.6890 -0.3131
20481SOL    HW171757   1.163   7.207  10.574 -0.8423 -0.0859 -0.3552
20481SOL    HW271758   1.272   7.306  10.609 -0.1365 -0.6807 -0.8319
20482SOL     OW71759  10.279   9.358   5.002 -0.1333  0.3853 -0.1768
20482SOL    HW171760  10.362   9.403   5.014  0.0877 -0.0369 -0.1147
20482SOL    HW271761  10.214   9.415   5.045  0.4878 -0.5685  2.1964
20483SOL     OW71762   5.012   6.110   6.754 -0.2432 -0.2202  0.4906
20483SOL    HW171763   4.942   6.135   6.814  1.0206  0.6760  1.6572
20483SOL    HW271764   5.049   6.194   6.724  0.3666 -0.6693 -0.0474
20484SOL     OW71765   5.156  10.847  10.286 -0.8335 -0.2572 -0.7171
20484SOL    HW171766   5.202  10.897  10.219 -2.2473  0.5936 -1.0902
20484SOL    HW271767   5.111  10.778  10.238 -2.0168  0.4782 -0.7060
20485SOL     OW71768   0.626   0.587   7.046  0.0741  0.6969 -0.0698
20485SOL    HW171769   0.657   0.612   6.959 -0.2575 -1.0012 -0.7165
20485SOL    HW271770   0.581   0.665   7.079  0.4529  1.4568 -1.2910
20486SOL     OW71771  12.690   5.159   6.437 -0.1805 -0.1232  0.0503
20486SOL    HW171772  12.631   5.233   6.450  1.0843  1.3135 -1.7853
20486SOL    HW271773  12.733   5.177   6.353  1.5904 -1.9768  0.4771
20487SOL     OW71774   8.439   2.882   5.443 -0.5951 -0.0236  0.1320
20487SOL    HW171775   8.467   2.844   5.526 -1.3928 -1.9983 -0.4507
20487SOL    HW271776   8.431   2.807   5.383  0.1104  1.3458 -1.7876
20488SOL     OW71777   5.530   1.766   7.632 -0.2217  0.6658 -0.3121
20488SOL    HW171778   5.586   1.810   7.695  0.6707  0.0412 -0.6434
20488SOL    HW271779   5.544   1.673   7.649  1.3572  0.4253 -2.4879
20489SOL     OW71780   0.580   1.319   6.479  0.5497 -0.1204  0.1481
20489SOL    HW171781   0.659   1.351   6.522  1.7326  1.1065 -2.6523
20489SOL    HW271782   0.604   1.232   6.446  1.2568  0.7402 -1.7564
20490SOL     OW71783   5.500   3.734   7.460 -0.2327 -0.0556  0.0558
20490SOL    HW171784   5.426   3.687   7.420 -0.0752  0.4013 -0.7815
20490SOL    HW271785   5.462   3.773   7.539 -1.1024  0.8439 -0.7777
20491SOL     OW71786  11.290  10.364   8.909 -0.2053  0.5288  0.0486
20491SOL    HW171787  11.231  10.351   8.834 -0.7722  1.3119  0.3473
20491SOL    HW271788  11.254  10.308   8.977 -1.7499  2.3735  0.8396
20492SOL     OW71789   5.523   5.652   6.376  0.4170  0.4249  0.4260
20492SOL    HW171790   5.550   5.714   6.308  1.4576 -0.1864  0.2700
20492SOL    HW271791   5.578   5.575   6.363  0.1070 -0.0032  1.4875
20493SOL     OW71792   9.878  12.130   2.303  0.0366 -0.0518  0.4258
20493SOL    HW171793   9.868  12.223   2.325 -0.3751  0.7800 -2.7706
20493SOL    HW271794   9.791  12.103   2.273  0.5781 -0.9262 -0.4123
20494SOL     OW71795   4.129   6.527   2.189  0.2133 -0.1240  0.0491
20494SOL    HW171796   4.043   6.569   2.193 -0.4180 -1.1755 -1.3663
20494SOL    HW271797   4.178   6.579   2.125 -0.0842 -0.6763 -0.6455
20495SOL     OW71798   3.976   1.077   5.061 -0.3711 -0.4834  0.0931
20495SOL    HW171799   3.947   1.168   5.063 -0.5572 -0.4762 -1.4808
20495SOL    HW271800   3.946   1.040   5.144 -0.3377  0.8650  0.7311
20496SOL     OW71801   7.430  10.536   1.612 -0.3074 -0.0815 -0.3212
20496SOL    HW171802   7.517  10.505   1.636 -0.5035  0.6421  1.4621
20496SOL    HW271803   7.417  10.614   1.664 -3.3235 -1.9922  2.1412
20497SOL     OW71804   4.975   2.123   5.555 -0.0880  0.4223 -0.2335
20497SOL    HW171805   4.986   2.032   5.583 -0.1398  0.8270  1.2137
20497SOL    HW271806   5.061   2.163   5.569 -0.2978  0.8031 -0.0289
20498SOL     OW71807   4.077   6.329   3.967  0.2534  0.1621  0.4882
20498SOL    HW171808   4.064   6.391   4.039  0.3256  0.5617  0.1562
20498SOL    HW271809   4.156   6.359   3.923 -1.9459  2.4431 -2.2881
20499SOL     OW71810   2.690  11.583   2.232 -0.4518 -0.3966 -0.3271
20499SOL    HW171811   2.634  11.630   2.170 -0.0897 -0.6353 -0.8377
20499SOL    HW271812   2.703  11.645   2.304 -1.1836 -0.2570 -0.3111
20500SOL     OW71813   6.153   2.346   2.330 -1.0064  0.3268 -0.1369
20500SOL    HW171814   6.084   2.281   2.334 -2.0726  1.4793  0.7785
20500SOL    HW271815   6.233   2.298   2.353 -1.3106 -1.2119 -2.0904
20501SOL     OW71816   1.205  11.221   4.748 -0.5202 -0.1513 -0.0528
20501SOL    HW171817   1.174  11.175   4.826 -2.2920  0.3209 -0.4455
20501SOL    HW271818   1.246  11.301   4.782  0.4773 -0.8560  0.4775
20502SOL     OW71819   1.990   7.836   6.235 -0.0075 -0.3001  0.0520
20502SOL    HW171820   2.063   7.791   6.195  0.3403 -0.0344  0.3749
20502SOL    HW271821   2.003   7.928   6.213  0.1032 -0.1698  0.6318
20503SOL     OW71822  10.404   0.698  11.791 -0.4905  0.3948 -0.6107
20503SOL    HW171823  10.317   0.735  11.777 -1.2065 -0.8422  0.3638
20503SOL    HW271824  10.388   0.607  11.818  1.0038  0.6017  1.2051
20504SOL     OW71825   2.270   4.370   8.340  0.1522 -0.0159  0.0734
20504SOL    HW171826   2.193   4.421   8.367  1.2780  2.4299 -1.0093
20504SOL    HW271827   2.237   4.281   8.328 -2.0935  0.5625  1.3865
20505SOL     OW71828   6.602   5.036   2.963  0.3910 -0.0410 -0.8308
20505SOL    HW171829   6.535   4.968   2.966  1.3832 -1.0224  0.7556
20505SOL    HW271830   6.568   5.104   3.021  0.5245 -0.3121 -0.4291
20506SOL     OW71831   9.035   3.951   5.137  0.1775  0.1052 -0.1903
20506SOL    HW171832   9.030   3.995   5.052 -0.6501 -0.9313 -0.7017
20506SOL    HW271833   8.991   4.009   5.198 -0.4771  0.2102 -0.7612
20507SOL     OW71834   5.299   4.085   7.804  0.2957 -0.3325 -0.6266
20507SOL    HW171835   5.350   4.146   7.856 -2.3113  2.3600 -0.9708
20507SOL    HW271836   5.259   4.139   7.736  0.1068 -2.9773 -2.7735
20508SOL     OW71837  11.244   5.744   5.864 -0.2365 -0.1995  0.3437
20508SOL    HW171838  11.257   5.706   5.951  0.4207 -1.0382 -0.1123
20508SOL    HW271839  11.172   5.693   5.826  0.7922 -1.1911 -0.3547
20509SOL     OW71840   9.308  10.526   5.327  0.0539 -0.9428  0.4991
20509SOL    HW171841   9.391  10.483   5.346 -0.1641 -1.1950  0.8846
20509SOL    HW271842   9.245  10.485   5.386 -0.0340  0.3659  1.3501
20510SOL     OW71843   2.095   5.328   3.355  0.1855 -0.2818  0.5554
20510SOL    HW171844   2.107   5.277   3.436 -1.4387  0.6265  1.4145
20510SOL    HW271845   2.147   5.281   3.290  1.9213 -0.8050  2.1951
20511SOL     OW71846   3.026   8.855  11.061  0.1800 -0.2027  0.0648
20511SOL    HW171847   3.046   8.899  10.979  0.9110  0.3793  0.5428
20511SOL    HW271848   3.015   8.763  11.038  0.6706 -0.0862 -0.6326
20512SOL     OW71849   4.904   3.601   5.738 -0.1160 -0.5497  0.3648
20512SOL    HW171850   4.998   3.589   5.754  0.2428 -0.6139 -1.6327
20512SOL    HW271851   4.873   3.515   5.712 -1.0616 -0.8530  2.3007
20513SOL     OW71852   3.251   6.125   4.648 -0.6804  0.1883  0.3183
20513SOL    HW171853   3.247   6.151   4.556  0.5786  0.0523  0.2100
20513SOL    HW271854   3.343   6.106   4.664 -1.1462 -1.6802  1.0847
20514SOL     OW71855  12.273   5.598  11.835 -0.2820  0.4217 -0.0435
20514SOL    HW171856  12.262   5.556  11.920  0.6529  0.5293  0.1488
20514SOL    HW271857  12.341   5.664  11.849 -0.1179  0.4496 -0.8677
20515SOL     OW71858  11.334   0.136   1.535 -0.3847  0.6790 -0.3406
20515SOL    HW171859  11.366   0.055   1.496 -1.8700  0.6465 -1.5735
20515SOL    HW271860  11.383   0.205   1.489 -1.7389  0.6166 -1.9751
20516SOL     OW71861  12.189  12.358   6.675 -1.4443  0.0910  1.1631
20516SOL    HW171862  12.096  12.337   6.682 -1.3006 -0.6232  0.9899
20516SOL    HW271863  12.198  12.398   6.588 -1.4745 -0.4589  0.9052
20517SOL     OW71864   5.362   8.608   7.573  0.3491 -0.4942 -0.1147
20517SOL    HW171865   5.304   8.673   7.533 -1.5387 -1.8106  0.3128
20517SOL    HW271866   5.411   8.658   7.639 -1.5297  0.4305  0.6842
20518SOL     OW71867  11.797   3.367   1.687 -0.6681 -0.2211 -0.0065
20518SOL    HW171868  11.892   3.371   1.698 -0.6881 -1.0739  0.6352
20518SOL    HW271869  11.764   3.446   1.729 -0.3257 -0.6318  1.0675
20519SOL     OW71870   6.594  11.736   4.513 -0.0277  0.5275 -0.6882
20519SOL    HW171871   6.626  11.820   4.546  0.5962 -0.1604  0.5118
20519SOL    HW271872   6.500  11.749   4.499  0.0189  1.3468 -0.2712
20520SOL     OW71873   3.598  10.632   5.350 -0.3727  0.1315  0.1458
20520SOL    HW171874   3.522  10.629   5.291 -0.1743 -1.4878 -0.0558
20520SOL    HW271875   3.568  10.688   5.423 -1.6673 -0.2405 -0.0645
20521SOL     OW71876  12.620   0.115  10.733  0.0079 -0.1099  0.2178
20521SOL    HW171877  12.656   0.131  10.646 -0.4359  1.1843  0.2531
20521SOL    HW271878  12.693   0.134  10.793  0.8191 -2.5125  0.1337
20522SOL     OW71879   4.695   1.882   3.447  0.4478 -0.3943 -0.4210
20522SOL    HW171880   4.642   1.962   3.451  1.7573  0.4709  1.3037
20522SOL    HW271881   4.691   1.855   3.356 -1.9591  0.2784 -0.5928
20523SOL     OW71882  12.937  11.928   2.019 -0.3595  0.1271 -0.4318
20523SOL    HW171883  12.897  11.841   2.013 -2.1912  0.9119 -0.3923
20523SOL    HW271884  12.964  11.936   2.110 -0.3570 -0.3287 -0.3915
20524SOL     OW71885   8.859   6.137   8.312  0.4203  0.2711 -0.2146
20524SOL    HW171886   8.939   6.117   8.264  1.5217  1.3436  1.0879
20524SOL    HW271887   8.884   6.132   8.404 -0.5997  2.1246  0.2181
20525SOL     OW71888   1.399   5.752  12.349 -0.1023  0.0239  0.2157
20525SOL    HW171889   1.459   5.689  12.389 -0.5234  0.0857  0.9750
20525SOL    HW271890   1.448   5.833  12.345  0.2123 -0.1808 -0.1282
20526SOL     OW71891   1.760   5.151  12.246  0.3856  0.4753  0.4459
20526SOL    HW171892   1.666   5.156  12.264  0.4534  0.2330  0.8777
20526SOL    HW271893   1.797   5.104  12.321  0.5865 -1.2508 -0.7040
20527SOL     OW71894   5.618   2.893   9.165  0.2758 -0.0223 -0.4754
20527SOL    HW171895   5.546   2.832   9.150 -0.8280  1.1447 -0.1127
20527SOL    HW271896   5.678   2.846   9.223 -1.0810 -0.4032  0.6655
20528SOL     OW71897  11.141   6.908  11.794 -0.3345 -0.3472  0.0144
20528SOL    HW171898  11.148   6.869  11.707 -2.9436 -1.2433  0.1305
20528SOL    HW271899  11.231   6.934  11.816  1.1865 -3.8890 -1.2109
20529SOL     OW71900   7.228   1.341   1.918 -0.7013 -0.3555 -0.6102
20529SOL    HW171901   7.170   1.305   1.851 -0.6131  0.0542 -0.9130
20529SOL    HW271902   7.297   1.276   1.928 -1.7207 -1.3250  0.4673
20530SOL     OW71903   9.295   3.096   2.899  0.3490 -0.9198 -0.6594
20530SOL    HW171904   9.272   3.047   2.977  3.0010 -0.0879  0.7883
20530SOL    HW271905   9.307   3.030   2.831  0.3466 -1.8990  0.2702
20531SOL     OW71906   5.929   2.551   3.146  0.3704 -0.4323 -0.2940
20531SOL    HW171907   5.848   2.586   3.107  0.6158  0.0311 -0.3859
20531SOL    HW271908   5.997   2.612   3.119  0.4183  0.4158  1.6105
20532SOL     OW71909   8.999  11.892   8.012 -0.6723 -0.4067  0.1204
20532SOL    HW171910   9.029  11.816   8.062  2.0062 -0.6127 -1.6057
20532SOL    HW271911   8.960  11.856   7.933 -2.2975 -0.0168  0.7193
20533SOL     OW71912   2.873   4.710   2.449 -0.5435  0.2495  0.8697
20533SOL    HW171913   2.919   4.734   2.530 -0.1974 -3.1323  1.8221
20533SOL    HW271914   2.787   4.680   2.478  0.4754 -3.5527  0.4840
20534SOL     OW71915   3.025   6.077  11.050 -0.2286 -0.3088 -0.5678
20534SOL    HW171916   3.113   6.112  11.060 -0.0849 -0.6191 -0.7348
20534SOL    HW271917   2.985   6.131  10.981 -0.4357  0.3317  0.0427
20535SOL     OW71918   1.520   0.747   9.493 -0.3659  0.2559 -0.3748
20535SOL    HW171919   1.449   0.696   9.532  0.3523 -0.6150 -0.1769
20535SOL    HW271920   1.574   0.774   9.567 -1.6547  2.8492 -0.2594
20536SOL     OW71921  12.373  12.704   2.290 -0.0209  0.1573  0.0966
20536SOL    HW171922  12.403  12.616   2.266  1.9122  0.3923  1.4386
20536SOL    HW271923  12.437  12.735   2.354 -0.9538  2.3539  0.0617
20537SOL     OW71924   4.840  10.770  11.871  0.0046 -0.1416 -0.3904
20537SOL    HW171925   4.838  10.684  11.914 -0.9154  0.2230  0.3401
20537SOL    HW271926   4.933  10.792  11.865  0.2450 -1.1556 -0.5219
20538SOL     OW71927  10.569   1.287  10.755  0.2257 -0.1063 -0.1736
20538SOL    HW171928  10.483   1.318  10.725 -0.5557 -1.9818 -0.0562
20538SOL    HW271929  10.581   1.328  10.841 -0.8107 -0.2015  0.0345
20539SOL     OW71930  12.115   2.196   1.685 -0.2752  0.4657 -0.2521
20539SOL    HW171931  12.103   2.111   1.642  0.5582  0.5568 -0.6925
20539SOL    HW271932  12.082   2.183   1.774  0.4072 -0.5192 -0.1216
20540SOL     OW71933  11.274  12.874   4.139  0.1521 -0.2355  0.4233
20540SOL    HW171934  11.210  12.879   4.209  1.5080  0.9626  1.6697
20540SOL    HW271935  11.256  12.792   4.094 -2.4320  0.2200  0.4930
20541SOL     OW71936   2.760   0.680   2.027 -0.1272 -0.3609 -0.5035
20541SOL    HW171937   2.715   0.687   1.943  2.7224 -0.2750 -2.1553
20541SOL    HW271938   2.825   0.610   2.014 -0.1933 -0.9764  1.9578
20542SOL     OW71939   7.239  10.764  10.077  0.1121  0.4486 -0.2395
20542SOL    HW171940   7.218  10.854  10.100  0.5440  0.1790  1.3910
20542SOL    HW271941   7.310  10.741  10.137  0.6158 -0.6902 -1.2409
20543SOL     OW71942  11.395   4.648   9.884  0.1519 -0.1620  0.3031
20543SOL    HW171943  11.427   4.729   9.923  3.4157 -0.6139 -1.0544
20543SOL    HW271944  11.386   4.587   9.957 -1.3676  1.0651  1.1998
20544SOL     OW71945   0.328   3.862   1.634  0.0046 -0.8944  0.6104
20544SOL    HW171946   0.373   3.787   1.594 -0.6034 -0.6101 -0.6762
20544SOL    HW271947   0.237   3.833   1.644 -0.3275 -0.2216 -0.2722
20545SOL     OW71948  11.523  10.099   4.647 -0.3581  0.4228  0.4309
20545SOL    HW171949  11.557  10.091   4.736 -1.3229 -1.7121  0.6780
20545SOL    HW271950  11.472  10.180   4.648 -0.3897  0.4111  1.8602
20546SOL     OW71951   7.898   3.065   0.772 -0.2534  0.0637 -0.0391
20546SOL    HW171952   7.966   3.111   0.723  0.9153 -1.1034  0.4385
20546SOL    HW271953   7.832   3.133   0.790  2.0857  2.0158  1.9692
20547SOL     OW71954   2.653  11.278   0.394 -0.2725  0.3338  0.4995
20547SOL    HW171955   2.583  11.214   0.407  0.6913 -0.7340  0.5742
20547SOL    HW271956   2.634  11.316   0.308 -0.6827 -0.2737  0.3134
20548SOL     OW71957   3.259   9.701   1.890 -0.0745 -0.2101  0.2581
20548SOL    HW171958   3.168   9.697   1.920 -0.3839 -1.5234 -0.7798
20548SOL    HW271959   3.276   9.614   1.854  1.2767  0.3389 -0.4795
20549SOL     OW71960   9.831  10.832  10.069  0.1993 -0.6072  0.2011
20549SOL    HW171961   9.914  10.802  10.032 -0.4578 -1.0168 -0.9846
20549SOL    HW271962   9.766  10.808  10.003 -0.7881  0.2293  0.8555
20550SOL     OW71963   7.164  10.924   4.692 -0.2350 -0.2892 -0.0403
20550SOL    HW171964   7.149  10.864   4.619 -2.2286  0.4787 -0.3437
20550SOL    HW271965   7.087  10.912   4.748  1.4111 -1.1092  2.1658
20551SOL     OW71966   1.922  12.796  10.353 -0.4395 -0.3921  0.4144
20551SOL    HW171967   1.945  12.739  10.427 -0.9143  0.2242  1.0626
20551SOL    HW271968   2.005  12.832  10.323 -0.2499 -0.5705  0.7155
20552SOL     OW71969   5.168   0.036   7.898 -0.6558 -0.6382  0.2068
20552SOL    HW171970   5.102  -0.019   7.854 -0.2222 -0.2173 -0.9970
20552SOL    HW271971   5.251   0.007   7.862 -0.4499  1.1609 -0.8864
20553SOL     OW71972   7.411  12.668   3.333 -0.3141  0.3445 -0.1704
20553SOL    HW171973   7.465  12.643   3.408  0.8599 -1.5316 -1.5497
20553SOL    HW271974   7.438  12.758   3.312 -2.0663  1.6966  2.7499
20554SOL     OW71975  12.158   8.203   9.122  0.7700 -0.0947  0.0350
20554SOL    HW171976  12.126   8.287   9.155 -2.1107 -0.8719 -0.4943
20554SOL    HW271977  12.104   8.138   9.167  0.0138 -1.4191 -2.5657
20555SOL     OW71978   9.743   9.368   2.059  0.2369 -0.1204 -0.0096
20555SOL    HW171979   9.779   9.311   1.991  1.2051  1.4035 -0.8386
20555SOL    HW271980   9.810   9.371   2.127 -1.4488 -3.0678  2.0015
20556SOL     OW71981   2.670   6.276   2.999  0.3205  0.2946  0.1468
20556SOL    HW171982   2.639   6.314   3.081 -2.8899  0.5201 -1.0303
20556SOL    HW271983   2.626   6.191   2.994  2.1526 -0.6719 -0.3937
20557SOL     OW71984   9.687  11.801  11.615  0.0340  0.1118  0.2767
20557SOL    HW171985   9.609  11.856  11.607  0.0019  0.0525  0.1742
20557SOL    HW271986   9.657  11.713  11.594 -0.1752 -0.1621  1.6145
20558SOL     OW71987   0.081   5.771   1.435  0.0605 -0.0837  0.2060
20558SOL    HW171988   0.058   5.818   1.354  1.2308 -0.7642 -0.5577
20558SOL    HW271989   0.044   5.683   1.422 -0.8034  0.1624  0.9559
20559SOL     OW71990   3.520   9.605   6.468 -0.4931 -0.6671 -0.4095
20559SOL    HW171991   3.576   9.678   6.442  0.0744 -0.8928  0.1432
20559SOL    HW271992   3.447   9.606   6.406  0.9549 -1.3883 -2.1906
20560SOL     OW71993   5.698  12.562   3.017 -0.0411 -0.1379 -0.4834
20560SOL    HW171994   5.624  12.619   2.997 -0.2242  0.1546  0.9455
20560SOL    HW271995   5.699  12.498   2.946 -0.4126  1.0603 -1.6125
20561SOL     OW71996  12.350  10.462  10.427 -0.1747 -0.1349  0.4119
20561SOL    HW171997  12.309  10.377  10.414 -0.4743 -0.0417  0.7353
20561SOL    HW271998  12.435  10.442  10.465  0.5648 -0.3938 -1.2848
20562SOL     OW71999   2.883   7.316   2.392 -0.0334  0.6653 -0.7522
20562SOL    HW172000   2.845   7.252   2.451 -0.0335  0.9932 -0.3992
20562SOL    HW272001   2.842   7.399   2.415 -0.9759  0.5937 -2.0472
20563SOL     OW72002  12.538   2.520  12.666 -0.0941 -0.2018 -0.1950
20563SOL    HW172003  12.526   2.611  12.639  0.4921 -0.1291 -0.2369
20563SOL    HW272004  12.459   2.475  12.636  0.6896 -0.2147 -2.4678
20564SOL     OW72005  12.746   9.413   7.307  0.4497 -0.4323 -0.4424
20564SOL    HW172006  12.658   9.388   7.280  0.2584  0.2765 -0.4693
20564SOL    HW272007  12.797   9.332   7.297 -0.4230 -1.1532  0.6277
20565SOL     OW72008   7.982   8.110   6.412 -0.1382 -0.2977 -0.1355
20565SOL    HW172009   8.024   8.068   6.337  0.1459  1.1823 -0.8373
20565SOL    HW272010   8.040   8.183   6.434 -0.6841 -0.1717  0.9664
20566SOL     OW72011  10.981   2.450   7.992 -0.2405 -0.1284  0.3111
20566SOL    HW172012  11.011   2.534   8.028  0.9711 -1.0706  1.6018
20566SOL    HW272013  10.905   2.427   8.045  0.5375 -0.7084  1.2047
20567SOL     OW72014   6.411   4.903   4.911  0.1972  0.2665 -0.4465
20567SOL    HW172015   6.485   4.951   4.874  1.7017 -2.3666 -1.1073
20567SOL    HW272016   6.446   4.815   4.929 -1.3076  0.3812  4.2719
20568SOL     OW72017   5.162   3.551   6.795 -0.1107  0.1589  0.2382
20568SOL    HW172018   5.223   3.487   6.831 -0.9631 -0.5469  0.4615
20568SOL    HW272019   5.207   3.586   6.718  1.0414  0.4850  1.0181
20569SOL     OW72020   1.126   0.762  10.766  0.1374 -0.0641  0.0562
20569SOL    HW172021   1.181   0.735  10.839 -0.2474 -1.0822 -0.0103
20569SOL    HW272022   1.175   0.832  10.723  1.7871 -1.4849 -0.5024
20570SOL     OW72023   4.457   1.082   1.837  0.0563  0.3212  0.6175
20570SOL    HW172024   4.543   1.042   1.826  0.4987  1.0020  1.4580
20570SOL    HW272025   4.421   1.086   1.748 -0.5520 -3.0025  0.5951
20571SOL     OW72026   6.027   6.415  10.276  0.3326 -0.2091 -0.3592
20571SOL    HW172027   5.942   6.437  10.315  0.1656  1.6778 -1.6676
20571SOL    HW272028   6.010   6.407  10.183  1.9330  2.7280 -1.0314
20572SOL     OW72029   5.474  10.977   3.956 -0.2446 -0.3067 -0.7796
20572SOL    HW172030   5.413  11.024   3.901  0.0462 -0.0550 -0.8885
20572SOL    HW272031   5.556  10.976   3.906 -0.4689 -1.6874 -1.1783
20573SOL     OW72032   4.460   7.253   4.864  0.1355  0.0633 -0.4848
20573SOL    HW172033   4.499   7.308   4.797  1.0927 -1.1946 -0.9950
20573SOL    HW272034   4.380   7.299   4.890  0.2663  1.0503 -1.7707
20574SOL     OW72035   1.813   7.279   9.117 -0.3812 -0.0503  0.4015
20574SOL    HW172036   1.805   7.288   9.212  1.1033  1.2972  0.4449
20574SOL    HW272037   1.816   7.369   9.085  0.7467 -0.4769 -0.7573
20575SOL     OW72038  12.009   2.283  12.885 -0.1002  0.0301  0.0356
20575SOL    HW172039  11.997   2.189  12.893 -1.8451  0.2632  0.6176
20575SOL    HW272040  12.058   2.308  12.964 -0.0180 -0.3168  0.0949
20576SOL     OW72041   8.708   0.640   6.951 -0.5646 -0.7373 -0.4004
20576SOL    HW172042   8.706   0.565   6.893  0.4130  0.4240 -2.0098
20576SOL    HW272043   8.690   0.715   6.894 -0.2241  0.3867  0.9116
20577SOL     OW72044   1.933  10.544   4.852 -0.5406 -0.4891  0.0627
20577SOL    HW172045   1.873  10.490   4.801 -0.7284 -0.8914  0.7080
20577SOL    HW272046   1.943  10.623   4.799 -0.7508 -0.8876 -0.5903
20578SOL     OW72047  12.144  11.769   7.988  0.2032  0.8051 -0.3331
20578SOL    HW172048  12.098  11.787   8.070  1.9020  0.4003  0.7459
20578SOL    HW272049  12.220  11.827   7.990  0.5255  0.4324 -1.3946
20579SOL     OW72050   2.798  12.776  12.617 -0.0543  0.2153  0.0768
20579SOL    HW172051   2.791  12.693  12.665 -0.1331  0.2126  0.0615
20579SOL    HW272052   2.890  12.800  12.624 -0.3057  0.8718  1.3301
20580SOL     OW72053   0.109   9.360   5.928  0.3919 -0.1331 -0.2395
20580SOL    HW172054   0.040   9.303   5.894  0.9898 -0.3660 -1.0970
20580SOL    HW272055   0.186   9.304   5.935  0.5395  0.1562  0.5914
20581SOL     OW72056  12.240   5.862   0.913 -0.7451 -0.2986 -0.6951
20581SOL    HW172057  12.303   5.932   0.933 -1.3700  0.1356 -0.2144
20581SOL    HW272058  12.294   5.783   0.908 -0.1666  0.0432 -0.1415
20582SOL     OW72059   5.037   3.938   7.498 -0.4113 -0.0252 -0.4416
20582SOL    HW172060   5.027   4.033   7.503  1.0935  0.1187  0.2375
20582SOL    HW272061   5.002   3.915   7.412  0.4150  1.3081 -1.1655
20583SOL     OW72062   0.142   0.545   6.570 -0.3329  0.7004 -0.3885
20583SOL    HW172063   0.102   0.517   6.653 -0.6721 -0.4460 -0.9197
20583SOL    HW272064   0.235   0.526   6.581 -0.5238 -0.4851 -0.6501
20584SOL     OW72065  12.351   5.509   3.629 -0.2806 -0.2769 -0.2477
20584SOL    HW172066  12.340   5.453   3.552 -0.4480 -0.0438 -0.3952
20584SOL    HW272067  12.304   5.463   3.699 -0.6090 -0.2135 -0.4220
20585SOL     OW72068   1.938   4.355   2.886 -0.1316  0.1134  0.0688
20585SOL    HW172069   1.961   4.446   2.872 -0.2698 -0.0186 -1.1060
20585SOL    HW272070   2.014   4.317   2.930 -0.4288  0.9858  1.3706
20586SOL     OW72071   5.919  10.721  12.093 -0.4778  0.4092  0.5977
20586SOL    HW172072   5.898  10.628  12.104 -0.3897  0.4237  0.8772
20586SOL    HW272073   5.842  10.767  12.125 -1.6497  0.4048 -1.9334
20587SOL     OW72074  11.345   2.584   9.649  0.4124  0.2637  0.3382
20587SOL    HW172075  11.307   2.507   9.692  1.5459 -0.6616 -0.2477
20587SOL    HW272076  11.337   2.566   9.556 -0.4131  1.4375  0.1616
20588SOL     OW72077   9.390  12.680   4.438 -0.2563  0.0239  0.0616
20588SOL    HW172078   9.463  12.711   4.385 -0.1041  0.4995  0.5429
20588SOL    HW272079   9.411  12.706   4.527 -0.4190 -0.9334  0.4000
20589SOL     OW72080   5.436   8.461  12.456  0.4231  0.2035 -0.8681
20589SOL    HW172081   5.356   8.411  12.441  1.9688 -1.7780 -3.4334
20589SOL    HW272082   5.407   8.541  12.501 -2.4537 -1.9633  1.4983
20590SOL     OW72083   5.258   0.039   3.197  0.0458 -0.3949 -0.3295
20590SOL    HW172084   5.325  -0.025   3.170  0.5163 -1.3049  2.6269
20590SOL    HW272085   5.301   0.091   3.265 -1.8397 -0.1996  0.7883
20591SOL     OW72086   3.516   4.846   5.317 -0.1633 -0.6262  0.4310
20591SOL    HW172087   3.586   4.867   5.255  0.6184 -1.3155  1.0617
20591SOL    HW272088   3.526   4.911   5.387 -0.2376 -0.6455  0.4597
20592SOL     OW72089   7.127   2.236   2.349  0.2490 -0.1670 -0.1852
20592SOL    HW172090   7.151   2.186   2.427  0.4588 -0.5300 -0.4753
20592SOL    HW272091   7.055   2.293   2.378  1.2889  0.7681  0.6431
20593SOL     OW72092   0.613   6.241   5.383 -0.6293  0.3557 -0.1973
20593SOL    HW172093   0.642   6.264   5.471 -0.4387 -1.8011  0.3655
20593SOL    HW272094   0.517   6.243   5.388 -0.6406 -1.0829  0.4729
20594SOL     OW72095   3.178   2.312   9.674  0.8127  0.3046  0.2474
20594SOL    HW172096   3.139   2.349   9.753 -1.0626 -1.6324  0.3175
20594SOL    HW272097   3.195   2.221   9.696 -3.4310 -1.4672 -2.5951
20595SOL     OW72098  10.615   7.938  12.945  0.6132  0.0188  0.3635
20595SOL    HW172099  10.598   7.890  12.864 -3.1500 -0.6507  1.3407
20595SOL    HW272100  10.688   7.996  12.924 -0.4537  0.1871 -3.6354
20596SOL     OW72101  10.392   7.951   9.777 -0.1454 -0.8379  0.5638
20596SOL    HW172102  10.461   7.889   9.751  1.2332 -0.2194  2.5294
20596SOL    HW272103  10.439   8.020   9.824 -1.9520  0.4516  0.5572
20597SOL     OW72104   8.625   0.329  12.344 -0.3536 -0.1045  0.0885
20597SOL    HW172105   8.616   0.245  12.301 -2.0601  0.0534  0.0680
20597SOL    HW272106   8.563   0.326  12.417 -0.3082  1.0608  0.2002
20598SOL     OW72107   9.838   7.500  10.644 -0.2786 -0.4158 -0.1879
20598SOL    HW172108   9.807   7.413  10.669  0.0922 -0.4495  0.1660
20598SOL    HW272109   9.923   7.508  10.687 -0.9747  0.7256  1.0284
20599SOL     OW72110  12.659   8.539   4.528 -0.2672  0.5113  0.1398
20599SOL    HW172111  12.598   8.465   4.533  1.7823 -1.3572 -0.7576
20599SOL    HW272112  12.680   8.559   4.619  0.8688 -1.5964  0.4029
20600SOL     OW72113  10.967  11.242  11.796  0.1219  0.0560 -0.2474
20600SOL    HW172114  11.044  11.187  11.806 -0.5827 -0.9283 -0.0003
20600SOL    HW272115  10.975  11.308  11.865  0.7442 -0.0377 -0.2263
20601SOL     OW72116   8.260   6.225  11.346  0.8006  0.0044  0.2309
20601SOL    HW172117   8.323   6.263  11.408  1.5170 -1.1804  0.2614
20601SOL    HW272118   8.313   6.171  11.289  0.0496  0.5627 -1.0311
20602SOL     OW72119   2.347   5.670   7.471 -0.0497 -0.8466 -0.2523
20602SOL    HW172120   2.298   5.590   7.450 -1.1735 -0.3879  0.4998
20602SOL    HW272121   2.290   5.717   7.531  0.5788  0.5570 -0.7272
20603SOL     OW72122   3.816   5.762   0.887 -0.1901  0.1928  0.0989
20603SOL    HW172123   3.864   5.738   0.808  0.2134 -1.5971  0.8506
20603SOL    HW272124   3.810   5.681   0.938 -2.2167  0.8269  0.9874
20604SOL     OW72125   4.024   4.764   1.455 -0.2586  0.4359 -0.2902
20604SOL    HW172126   3.934   4.746   1.482 -0.3295  0.4038 -0.5450
20604SOL    HW272127   4.071   4.783   1.537 -0.4422  0.2183 -0.1335
20605SOL     OW72128  11.081   1.564  10.706 -0.2082 -0.1404 -0.2852
20605SOL    HW172129  11.005   1.616  10.680 -0.6077 -1.7847 -2.7005
20605SOL    HW272130  11.156   1.614  10.676 -0.4443  0.2782 -0.1874
20606SOL     OW72131   8.713   1.967  10.845 -0.1425  0.0601 -0.2044
20606SOL    HW172132   8.646   1.960  10.912 -1.5063 -0.0633 -1.5261
20606SOL    HW272133   8.751   1.879  10.840  0.2579  0.1745  0.6677
20607SOL     OW72134   3.374   2.959   5.570 -0.5346 -0.1721 -0.4084
20607SOL    HW172135   3.331   2.874   5.579  0.5816 -0.6692  0.4626
20607SOL    HW272136   3.309   3.014   5.526 -2.2078 -0.7692  1.1701
20608SOL     OW72137   6.126   8.111   2.411  0.1352 -0.1254  0.0700
20608SOL    HW172138   6.147   8.021   2.436 -0.3723 -0.0142  0.9331
20608SOL    HW272139   6.105   8.106   2.318 -3.0308 -1.5082  0.7120
20609SOL     OW72140   6.807   2.989   7.181 -0.2395 -0.1173  0.1630
20609SOL    HW172141   6.802   3.082   7.157  1.0634  0.1469  0.8336
20609SOL    HW272142   6.862   2.950   7.113 -1.6964 -0.6628 -0.7581
20610SOL     OW72143   4.257   7.752  12.779 -0.1880  0.1903  0.5396
20610SOL    HW172144   4.208   7.784  12.703 -1.2806 -1.6460  0.4334
20610SOL    HW272145   4.226   7.805  12.852  0.6077  1.7301 -0.1756
20611SOL     OW72146   7.315  12.324   4.265  0.3806 -0.2314 -0.1698
20611SOL    HW172147   7.344  12.276   4.342 -0.8616  0.4202  0.7279
20611SOL    HW272148   7.297  12.413   4.296  1.1698  0.4344 -1.4943
20612SOL     OW72149   3.954   1.616   4.910 -1.1404 -0.2672 -0.6209
20612SOL    HW172150   3.951   1.662   4.826  0.0137  0.4356 -0.2998
20612SOL    HW272151   3.886   1.659   4.963 -0.5004  0.6750 -0.5355
20613SOL     OW72152   0.418  11.906   6.918  0.0286 -0.0012  0.4613
20613SOL    HW172153   0.421  11.939   7.008  0.1791  0.1886  0.3864
20613SOL    HW272154   0.412  11.985   6.864  1.2258 -0.0529  0.2341
20614SOL     OW72155   9.216   2.349   4.576 -0.1240 -0.8017 -0.2856
20614SOL    HW172156   9.193   2.344   4.669  0.8505 -1.7375 -0.0670
20614SOL    HW272157   9.132   2.340   4.530 -0.3789 -2.9242  0.4886
20615SOL     OW72158  11.486   8.472   7.863  0.3318  0.3243  0.4676
20615SOL    HW172159  11.538   8.427   7.930  1.0346  0.4273  0.0011
20615SOL    HW272160  11.535   8.458   7.782 -0.4021  0.3829  0.0120
20616SOL     OW72161  11.701   2.052   1.613 -0.4894  0.6450 -0.3413
20616SOL    HW172162  11.712   2.100   1.695 -1.9035  2.5020 -1.1687
20616SOL    HW272163  11.714   2.118   1.545  0.5910 -0.8436 -1.6485
20617SOL     OW72164   5.591   3.967   2.953 -0.1333 -0.5844 -0.0398
20617SOL    HW172165   5.552   3.978   2.866 -0.2329 -0.6772 -0.0069
20617SOL    HW272166   5.676   4.012   2.947 -0.5974  0.3319  0.1426
20618SOL     OW72167  12.365  10.694   5.108  0.1201 -0.1666  0.1613
20618SOL    HW172168  12.417  10.769   5.135  0.3765 -0.8145  1.6014
20618SOL    HW272169  12.410  10.619   5.148 -0.3668 -1.0408 -0.8847
20619SOL     OW72170   6.443   3.824  11.163  0.4323  0.3339  0.3731
20619SOL    HW172171   6.427   3.758  11.096  1.8886  0.1829  0.1515
20619SOL    HW272172   6.379   3.893  11.144 -0.3144 -0.4587 -0.1109
20620SOL     OW72173   0.130  12.399  12.124  0.8076 -0.0804 -0.0463
20620SOL    HW172174   0.130  12.307  12.100 -1.3149 -0.5574  1.4880
20620SOL    HW272175   0.108  12.399  12.217  0.0253  1.9847 -0.1768
20621SOL     OW72176  10.226   7.755  11.874 -0.3450 -0.2358  0.0376
20621SOL    HW172177  10.184   7.668  11.870  1.5356 -1.1799 -0.1458
20621SOL    HW272178  10.243   7.777  11.783  2.3815 -1.3660  0.1792
20622SOL     OW72179   2.363  10.711   4.133 -0.0068 -0.3033 -0.3972
20622SOL    HW172180   2.354  10.709   4.037  0.1580 -0.5876 -0.4084
20622SOL    HW272181   2.290  10.660   4.166 -0.1836 -0.0281 -0.3614
20623SOL     OW72182   9.245   6.274   0.872  0.2864 -0.2519 -0.2242
20623SOL    HW172183   9.201   6.231   0.946  0.5604 -1.5146 -0.7695
20623SOL    HW272184   9.335   6.288   0.902 -0.2387  1.6740  0.6260
20624SOL     OW72185   3.963   8.853   2.780 -0.0619  0.3848 -0.3146
20624SOL    HW172186   3.904   8.870   2.854 -0.0898  0.7924 -0.4254
20624SOL    HW272187   4.042   8.904   2.801 -0.1101  0.5806 -0.6144
20625SOL     OW72188   4.075   5.009  10.463  0.1990  0.8965 -0.0752
20625SOL    HW172189   4.081   5.093  10.509 -0.2205  0.9549 -0.1257
20625SOL    HW272190   4.013   5.025  10.391 -0.3675  0.3792  0.2876
20626SOL     OW72191   6.513   3.886   7.451  0.1158  0.3450  0.3286
20626SOL    HW172192   6.607   3.888   7.435 -0.0523  1.1671 -0.5932
20626SOL    HW272193   6.491   3.974   7.480 -0.5087  0.4003 -0.2903
20627SOL     OW72194   0.549   0.346  10.637 -0.3031  0.4084 -0.4732
20627SOL    HW172195   0.506   0.423  10.673 -1.2533 -0.9377  1.4271
20627SOL    HW272196   0.632   0.341  10.684  0.1219  0.6914 -1.1737
20628SOL     OW72197   7.033   1.158   9.058  0.2396 -0.6257 -0.0043
20628SOL    HW172198   7.121   1.150   9.095  0.3883  1.9489  0.3902
20628SOL    HW272199   7.039   1.114   8.973  1.8250 -0.7291  0.1262
20629SOL     OW72200   1.486   9.257   9.052  0.1886 -0.0956 -0.8513
20629SOL    HW172201   1.437   9.244   8.971 -0.1559 -2.1273 -0.3820
20629SOL    HW272202   1.562   9.199   9.044  0.8034  0.5982 -0.2242
20630SOL     OW72203   2.888   0.844   9.390  0.1058 -0.2715  0.1080
20630SOL    HW172204   2.837   0.920   9.362  0.8075  0.0473 -0.3606
20630SOL    HW272205   2.887   0.786   9.314 -0.0445 -0.5271  0.3038
20631SOL     OW72206   3.639   6.177   6.282  0.1067  0.6792  0.3413
20631SOL    HW172207   3.644   6.212   6.371  1.3045 -1.0659  1.0204
20631SOL    HW272208   3.626   6.254   6.226 -0.2067  1.8623  1.9715
20632SOL     OW72209   3.610   6.051   7.798 -0.3780  0.7660 -0.3652
20632SOL    HW172210   3.611   6.024   7.890 -0.8966  3.0042  0.3687
20632SOL    HW272211   3.643   5.975   7.750  0.7403 -0.1639  1.7470
20633SOL     OW72212   3.858   0.742   4.484  0.1759 -0.2801 -0.0295
20633SOL    HW172213   3.788   0.796   4.448 -0.5427 -1.9061 -1.2057
20633SOL    HW272214   3.931   0.753   4.423  0.0957 -0.4984 -0.1641
20634SOL     OW72215   3.793   5.546  11.313  0.4282 -0.1348 -0.5240
20634SOL    HW172216   3.832   5.628  11.342 -0.1038  0.0529 -0.3257
20634SOL    HW272217   3.715   5.571  11.266 -0.5973 -0.5647  0.8759
20635SOL     OW72218   0.461  12.716   4.085  0.3253  0.6355 -0.0126
20635SOL    HW172219   0.451  12.773   4.161  0.8243  3.1067 -1.6962
20635SOL    HW272220   0.371  12.695   4.058  0.1093  1.5979 -0.0563
20636SOL     OW72221  11.118   8.741   1.546 -0.1996  0.3165 -0.2005
20636SOL    HW172222  11.176   8.802   1.502 -2.0002  1.4899 -1.0793
20636SOL    HW272223  11.138   8.656   1.506  0.0759  0.9001 -1.3564
20637SOL     OW72224  11.363  10.620   4.317 -0.2301  0.1998  0.0735
20637SOL    HW172225  11.324  10.608   4.403  1.1488 -1.2873  0.5356
20637SOL    HW272226  11.456  10.630   4.333  0.2411 -1.4204 -1.2879
20638SOL     OW72227   9.169   2.206   0.217 -0.0447 -0.3205 -0.6181
20638SOL    HW172228   9.190   2.236   0.128  0.1734  0.0912 -0.4336
20638SOL    HW272229   9.189   2.113   0.216  1.5630 -0.0093 -0.5397
20639SOL     OW72230   0.669   4.009  12.630 -0.0019  0.3562 -0.1484
20639SOL    HW172231   0.615   4.059  12.568 -1.7361 -0.0240  0.9847
20639SOL    HW272232   0.606   3.954  12.677  1.7365 -2.4797 -0.9092
20640SOL     OW72233   6.294   6.570   3.378 -0.1435  0.4706  0.2099
20640SOL    HW172234   6.207   6.611   3.380 -1.1919 -1.5123 -1.0559
20640SOL    HW272235   6.331   6.596   3.294 -0.1522  0.1104  0.0921
20641SOL     OW72236   2.823  12.707   9.572 -0.0674 -0.2383  0.4016
20641SOL    HW172237   2.841  12.768   9.643  1.1415 -0.8856  0.6772
20641SOL    HW272238   2.812  12.622   9.615 -0.8639 -0.3659 -0.0495
20642SOL     OW72239   2.685   4.864   6.982 -0.5962  0.1768  0.2314
20642SOL    HW172240   2.707   4.810   6.907  1.7053  1.2079  0.0915
20642SOL    HW272241   2.661   4.949   6.944  0.1789  0.5783  0.6170
20643SOL     OW72242  10.718  11.753   2.189 -0.7404 -0.2582 -0.0019
20643SOL    HW172243  10.711  11.704   2.271  0.2548 -2.6453 -1.2547
20643SOL    HW272244  10.628  11.783   2.172 -0.7430  1.5602  2.6080
20644SOL     OW72245   6.541   1.025   0.004 -0.3968  0.1528 -0.0845
20644SOL    HW172246   6.598   0.959  -0.033 -2.7281 -2.0426 -0.0517
20644SOL    HW272247   6.502   1.069  -0.072  0.7100  1.1218 -0.1094
20645SOL     OW72248  12.181   7.369   8.783 -0.2321 -0.1320  0.0785
20645SOL    HW172249  12.185   7.286   8.830  1.0030 -0.5574 -0.7357
20645SOL    HW272250  12.208   7.348   8.693  1.9427  1.4440  0.2884
20646SOL     OW72251   4.919   3.922   5.091 -0.2504 -0.2410  0.3331
20646SOL    HW172252   4.915   3.843   5.145 -1.6563 -0.6163 -0.3016
20646SOL    HW272253   4.916   3.994   5.155  0.8586 -0.6652  0.9007
20647SOL     OW72254  11.159   7.710  11.246  0.1744 -0.3623  0.0357
20647SOL    HW172255  11.070   7.676  11.261  0.1610 -0.7342 -0.7836
20647SOL    HW272256  11.216   7.645  11.286  0.0587  0.5730  1.7940
20648SOL     OW72257  12.289   6.434   7.548  0.4594  0.6966 -0.1681
20648SOL    HW172258  12.256   6.442   7.458 -1.7865 -1.7148  0.3097
20648SOL    HW272259  12.362   6.372   7.541 -1.3562 -1.5775 -0.1174
20649SOL     OW72260   7.081  12.704  12.723  0.5822  0.2557  0.3952
20649SOL    HW172261   7.172  12.675  12.719  0.1794 -0.9151 -0.7466
20649SOL    HW272262   7.063  12.739  12.636 -0.6413 -1.3689 -0.0302
20650SOL     OW72263  11.986   2.450  11.809 -0.1957  0.4490  0.5362
20650SOL    HW172264  12.019   2.498  11.885 -2.1473  0.0216  1.7276
20650SOL    HW272265  11.990   2.358  11.835  0.0646  0.2220 -0.2855
20651SOL     OW72266   8.385   8.389   5.702  0.4643 -0.1127 -0.9601
20651SOL    HW172267   8.471   8.427   5.720  0.1908 -0.7012  2.1617
20651SOL    HW272268   8.325   8.463   5.704  0.4308 -0.1471  1.1312
20652SOL     OW72269  10.927   5.621   3.841 -0.2482  0.1560 -0.3644
20652SOL    HW172270  10.903   5.678   3.769 -1.7026  1.9113  1.3946
20652SOL    HW272271  10.989   5.671   3.894  1.9717 -1.6595 -1.0777
20653SOL     OW72272   3.324   9.196  10.144 -0.1270  0.3324  0.5149
20653SOL    HW172273   3.246   9.148  10.117 -0.2469  0.9452 -0.2547
20653SOL    HW272274   3.322   9.277  10.093 -0.1274  1.3513  2.0605
20654SOL     OW72275   3.205   7.131   0.898  0.2096  0.0506 -0.3652
20654SOL    HW172276   3.159   7.052   0.871  0.4256 -0.4070  0.5753
20654SOL    HW272277   3.289   7.100   0.933 -0.4053  0.4893  1.6635
20655SOL     OW72278   3.307   2.710  11.712 -0.4811 -0.3022 -0.3633
20655SOL    HW172279   3.278   2.630  11.757  0.1420  0.1527  0.8868
20655SOL    HW272280   3.399   2.694  11.691 -0.3462  0.0878 -0.0802
20656SOL     OW72281   0.277   7.011   8.536  0.3907  0.1125  0.1745
20656SOL    HW172282   0.291   7.050   8.449  0.2967 -1.0029 -0.3512
20656SOL    HW272283   0.312   6.923   8.530 -0.4023 -0.2845  1.0012
20657SOL     OW72284  11.014   2.557   2.754  0.2408  0.2854  0.6705
20657SOL    HW172285  11.078   2.564   2.683  0.2653  1.3421  0.7842
20657SOL    HW272286  11.005   2.463   2.769 -0.0104  0.0192 -0.9611
20658SOL     OW72287  10.185   1.995   6.764  0.2303  0.4137  0.1737
20658SOL    HW172288  10.096   1.994   6.799  0.0854 -1.6550 -0.1230
20658SOL    HW272289  10.221   1.909   6.788  2.2166  1.2602  0.4324
20659SOL     OW72290   0.089   3.596   6.091  0.0748 -0.1000 -0.1807
20659SOL    HW172291   0.138   3.529   6.138 -0.2388 -0.2387 -0.0500
20659SOL    HW272292   0.041   3.643   6.158 -1.4630 -1.1889 -0.4658
20660SOL     OW72293  11.782  10.915   4.093  0.0603 -0.2524 -0.6172
20660SOL    HW172294  11.812  10.926   4.183  1.0904 -1.3025 -0.8041
20660SOL    HW272295  11.689  10.894   4.101 -0.0838  0.6430  0.1315
20661SOL     OW72296   7.522   4.823   2.303  0.1904 -0.2369 -0.3420
20661SOL    HW172297   7.604   4.774   2.298 -0.2384 -0.9777 -0.1964
20661SOL    HW272298   7.479   4.791   2.383 -0.2485  0.1314 -0.4242
20662SOL     OW72299   0.699  12.062   0.412  0.4480 -0.1736 -0.3429
20662SOL    HW172300   0.698  11.985   0.356  1.1341  1.1560 -2.2919
20662SOL    HW272301   0.771  12.115   0.380  0.1150  1.2141  1.0517
20663SOL     OW72302   2.023   3.993   3.546 -0.1000  0.0108 -0.1300
20663SOL    HW172303   2.098   3.956   3.593  0.2398  0.0718 -0.6213
20663SOL    HW272304   2.055   4.009   3.458  0.2028  2.7769  0.3881
20664SOL     OW72305   4.257  10.487  12.913  0.3024 -0.5276 -0.3099
20664SOL    HW172306   4.212  10.403  12.902 -0.8714  0.0111  0.1479
20664SOL    HW272307   4.325  10.487  12.846 -0.4658 -1.3241 -1.1172
20665SOL     OW72308   9.424   0.474  12.923 -0.3482  0.5795 -0.1679
20665SOL    HW172309   9.333   0.498  12.941 -0.0146  2.3619 -0.7212
20665SOL    HW272310   9.444   0.514  12.839  0.0336 -2.4437 -1.6433
20666SOL     OW72311   4.791   0.907   7.477  0.0436  0.1818  0.0246
20666SOL    HW172312   4.860   0.938   7.419  0.5666  1.0023  1.0431
20666SOL    HW272313   4.731   0.982   7.484 -0.3311 -0.1213  0.0594
20667SOL     OW72314   7.728   4.227   3.479 -0.2960  0.1185  0.2924
20667SOL    HW172315   7.724   4.244   3.385 -1.8933 -1.5684  0.0022
20667SOL    HW272316   7.639   4.242   3.510 -0.0402 -0.3817  1.3214
20668SOL     OW72317   5.152   6.751  11.478 -0.9952 -0.1697 -0.1443
20668SOL    HW172318   5.199   6.816  11.529 -2.3411  0.7677 -0.0385
20668SOL    HW272319   5.211   6.730  11.405  0.2355 -0.2690  0.8446
20669SOL     OW72320   8.506  11.655   6.801 -0.1721  0.6060 -0.7959
20669SOL    HW172321   8.542  11.590   6.740  0.5069  0.4105 -0.1977
20669SOL    HW272322   8.413  11.635   6.804  0.1439 -0.9197  0.0294
20670SOL     OW72323   2.687  12.579   5.434  0.2276  0.3084 -0.2083
20670SOL    HW172324   2.728  12.663   5.415  1.6108 -0.1662  0.5771
20670SOL    HW272325   2.755  12.514   5.418 -0.5494 -0.5952  0.0528
20671SOL     OW72326  12.035  10.674   4.687 -0.0189 -0.4634  0.2455
20671SOL    HW172327  12.112  10.701   4.636 -0.4801  1.1298  0.3608
20671SOL    HW272328  12.064  10.678   4.778  0.2594 -1.5441  0.2159
20672SOL     OW72329  11.792   5.479   4.048 -0.6284 -0.0057  1.2318
20672SOL    HW172330  11.850   5.542   4.006 -0.5287  0.4238  2.0129
20672SOL    HW272331  11.798   5.401   3.993  1.6784 -0.4278  1.9913
20673SOL     OW72332  11.978   0.809   5.149 -0.6954  0.1154 -0.3771
20673SOL    HW172333  11.899   0.755   5.151  0.0328 -1.0576 -1.9831
20673SOL    HW272334  11.946   0.897   5.172 -2.2940 -0.5086 -0.0368
20674SOL     OW72335   5.548   3.895   8.056 -0.0374  0.3151 -0.1167
20674SOL    HW172336   5.458   3.873   8.033  0.7230 -0.5589 -2.4749
20674SOL    HW272337   5.587   3.927   7.975  2.0666 -0.2460  0.6091
20675SOL     OW72338   6.473   8.466   7.811 -0.5798  0.6294  0.5445
20675SOL    HW172339   6.486   8.462   7.906 -0.6019  1.0236  0.5645
20675SOL    HW272340   6.394   8.518   7.799 -1.2924 -0.4636  0.3544
20676SOL     OW72341   3.066   8.370  11.768  0.1264  0.3839 -0.3367
20676SOL    HW172342   3.074   8.446  11.711  1.3306 -0.3910 -1.2336
20676SOL    HW272343   3.143   8.374  11.824 -1.6474  1.8497  2.2188
20677SOL     OW72344   3.917   6.255  12.811  0.0454 -0.2530 -0.2392
20677SOL    HW172345   3.827   6.279  12.835 -0.4677 -0.5870 -1.7395
20677SOL    HW272346   3.966   6.337  12.816 -0.5249  0.0932 -0.2140
20678SOL     OW72347   8.428   1.665   9.026 -0.2184  0.6107  0.4051
20678SOL    HW172348   8.466   1.733   9.081  0.1871 -0.3265  1.3427
20678SOL    HW272349   8.447   1.691   8.936  0.1329  1.5914  0.7578
20679SOL     OW72350   1.929  12.599   1.152 -0.9314  0.0025  0.4147
20679SOL    HW172351   1.906  12.572   1.063  1.0265  0.5247 -0.3022
20679SOL    HW272352   1.968  12.521   1.191  1.6276  0.7498 -0.5047
20680SOL     OW72353   8.539   1.649  11.684 -0.1294 -0.6350 -0.4209
20680SOL    HW172354   8.558   1.672  11.593  0.5019  0.5988 -0.0103
20680SOL    HW272355   8.501   1.728  11.721 -1.0798 -1.3682  0.2044
20681SOL     OW72356   0.647   8.445   0.464  0.7497  0.0287  0.4067
20681SOL    HW172357   0.603   8.415   0.544  1.3369  2.1332  1.5967
20681SOL    HW272358   0.704   8.516   0.493 -0.9232  2.6869 -2.1960
20682SOL     OW72359   1.536   3.570  10.844  0.1191 -0.0132  0.2937
20682SOL    HW172360   1.611   3.557  10.902  0.4153  0.9397  0.1559
20682SOL    HW272361   1.469   3.611  10.900  0.0098 -0.0847  0.2164
20683SOL     OW72362  12.033   2.060   9.291 -0.1843 -0.0760 -0.0653
20683SOL    HW172363  12.085   2.052   9.211 -1.3847 -2.5878 -0.6861
20683SOL    HW272364  12.066   1.991   9.348 -0.5741  0.5066  0.8839
20684SOL     OW72365   0.429   7.430   9.488 -0.6078 -0.4381  0.4434
20684SOL    HW172366   0.454   7.423   9.580 -2.2180  0.6108  0.9993
20684SOL    HW272367   0.508   7.404   9.440  0.1289 -1.4436  2.0990
20685SOL     OW72368   5.680   0.964   2.647 -0.2070 -0.4652 -0.4782
20685SOL    HW172369   5.707   0.907   2.575  0.3282 -0.1504 -0.5275
20685SOL    HW272370   5.592   0.933   2.670 -1.2863  0.7354 -2.6510
20686SOL     OW72371   0.538   5.108   7.099 -0.4721 -0.7788  0.5656
20686SOL    HW172372   0.631   5.119   7.121 -0.4139  1.6016 -0.5583
20686SOL    HW272373   0.496   5.186   7.134 -1.2795  0.3712 -2.6827
20687SOL     OW72374   7.610   9.893   7.016  0.0473  0.2663  0.1475
20687SOL    HW172375   7.651   9.826   6.962 -0.8140 -0.0554 -0.1269
20687SOL    HW272376   7.519   9.864   7.026  0.4752 -0.3949  2.9016
20688SOL     OW72377   7.761  11.446   2.285 -0.3968 -0.1028  0.0629
20688SOL    HW172378   7.694  11.391   2.327  1.0057 -1.5069  0.5380
20688SOL    HW272379   7.792  11.503   2.355 -0.9031  0.3946 -0.1047
20689SOL     OW72380   8.657   2.021   8.663  0.0775  0.1446  0.1358
20689SOL    HW172381   8.571   2.052   8.636 -0.4848 -2.2103 -0.9875
20689SOL    HW272382   8.714   2.039   8.589 -0.2909 -1.4950 -0.5964
20690SOL     OW72383   8.575   8.061  10.837  0.3207  0.5579  0.1144
20690SOL    HW172384   8.529   7.978  10.844 -2.7175  1.8498 -2.1493
20690SOL    HW272385   8.566   8.101  10.924  0.2834 -0.7093  0.7061
20691SOL     OW72386   7.837  11.232   2.536 -0.0497 -0.3820  0.1846
20691SOL    HW172387   7.746  11.227   2.565 -0.0053  0.9681  0.6241
20691SOL    HW272388   7.853  11.326   2.525  0.9285 -0.6722 -1.0599
20692SOL     OW72389   0.336  11.165   4.368  0.0107 -0.0171  0.0710
20692SOL    HW172390   0.401  11.206   4.310 -1.8558  0.1518 -2.0542
20692SOL    HW272391   0.310  11.234   4.428  3.2182 -0.6456  2.4212
20693SOL     OW72392   8.687   5.167   3.527 -0.2635  0.4314  0.2809
20693SOL    HW172393   8.752   5.098   3.509 -0.5448 -0.2207  1.6180
20693SOL    HW272394   8.739   5.244   3.549  0.0536  0.5881 -0.9344
20694SOL     OW72395   5.294   7.104   1.790  0.1844  0.2097  0.0723
20694SOL    HW172396   5.368   7.124   1.848 -0.1027 -0.2452  0.6089
20694SOL    HW272397   5.316   7.019   1.752  0.2543  0.3912 -0.2949
20695SOL     OW72398   3.640   4.464   1.368 -0.2787  0.0203  0.3466
20695SOL    HW172399   3.599   4.520   1.434  1.2742 -0.7136  1.9897
20695SOL    HW272400   3.580   4.389   1.360 -1.2101  0.7960 -0.2032
20696SOL     OW72401   2.067  10.487   6.365 -0.1100 -0.0777 -0.0637
20696SOL    HW172402   2.081  10.411   6.309 -2.7485 -0.3689 -0.4575
20696SOL    HW272403   2.020  10.451   6.441 -2.0118  1.1784 -0.5731
20697SOL     OW72404   6.991   1.276   8.492  0.7395 -0.1345  0.4921
20697SOL    HW172405   6.932   1.202   8.507  1.3472 -0.6657  0.3203
20697SOL    HW272406   6.938   1.339   8.443  0.1255 -0.3314  0.8877
20698SOL     OW72407   1.881  11.084  11.424  0.0188 -0.3589  0.0831
20698SOL    HW172408   1.942  11.116  11.358  1.4161 -0.4811  1.2712
20698SOL    HW272409   1.818  11.155  11.435 -0.4836 -0.4962 -1.6432
20699SOL     OW72410   9.473   7.136   5.888 -0.0457 -0.2844  0.3361
20699SOL    HW172411   9.491   7.059   5.941  0.1964 -0.9949 -0.7444
20699SOL    HW272412   9.559   7.177   5.876 -0.3918  1.1595  2.3486
20700SOL     OW72413   1.039  10.030   7.304  0.6340  0.0731  0.4300
20700SOL    HW172414   1.111  10.093   7.301  0.2531  0.5925  1.4368
20700SOL    HW272415   1.027  10.012   7.397  0.7251 -1.5046  0.1631
20701SOL     OW72416   1.553   5.149   4.819  0.4975 -0.4074 -0.2137
20701SOL    HW172417   1.567   5.237   4.854  1.2246 -1.0659  1.2400
20701SOL    HW272418   1.524   5.097   4.894  0.2665 -1.4547 -1.0018
20702SOL     OW72419  11.816   0.212   7.822 -0.4787  0.3099 -0.1773
20702SOL    HW172420  11.806   0.117   7.811  0.8332  0.2565 -1.1745
20702SOL    HW272421  11.883   0.221   7.889  0.5508  0.4850 -1.1971
20703SOL     OW72422   3.256   8.693   9.884 -0.2687  0.6745 -0.2057
20703SOL    HW172423   3.232   8.705   9.976 -0.5843 -0.7541 -0.0793
20703SOL    HW272424   3.258   8.598   9.872  2.3342  0.7557 -1.0048
20704SOL     OW72425  10.652   4.745   9.246  0.4003  0.6911 -0.6199
20704SOL    HW172426  10.574   4.748   9.301  0.2213  0.3108 -0.8437
20704SOL    HW272427  10.696   4.829   9.261  0.2776  0.6552 -0.0164
20705SOL     OW72428   3.416   3.298   5.660 -0.3941  0.2361 -0.4418
20705SOL    HW172429   3.376   3.366   5.607 -1.1482  1.4327  1.5325
20705SOL    HW272430   3.504   3.287   5.624 -0.8250  1.0737 -1.8071
20706SOL     OW72431   3.898   5.612  10.249  0.1977 -0.3509 -0.1469
20706SOL    HW172432   3.954   5.681  10.284  0.1134 -1.0021  1.3668
20706SOL    HW272433   3.947   5.531  10.264 -1.2103 -0.9625  1.4753
20707SOL     OW72434   1.489   5.749   0.573 -0.3421  0.0966 -0.2218
20707SOL    HW172435   1.414   5.719   0.523  0.0901  0.8634 -1.3642
20707SOL    HW272436   1.462   5.834   0.608 -0.6911 -0.4880  1.0095
20708SOL     OW72437   0.481   5.026   7.459  0.3910  0.5707  0.0896
20708SOL    HW172438   0.389   5.029   7.487  0.4174 -0.0421  0.2614
20708SOL    HW272439   0.480   4.974   7.379  0.7956 -0.9608  1.0303
20709SOL     OW72440   3.454   6.056  12.314 -0.0726 -0.1441 -0.2355
20709SOL    HW172441   3.527   6.118  12.319 -0.8297  0.7244  0.4033
20709SOL    HW272442   3.479   5.995  12.244  0.6859  0.8782 -0.8829
20710SOL     OW72443   7.022   7.819   9.836 -0.0001  0.0482  0.0693
20710SOL    HW172444   7.079   7.897   9.835  0.9666 -0.6430 -0.3591
20710SOL    HW272445   6.976   7.825   9.920  0.7033  0.6343  0.4331
20711SOL     OW72446   4.147  10.682   2.552  0.2754  0.6813 -0.0713
20711SOL    HW172447   4.073  10.738   2.533  0.3814  0.3899 -1.4497
20711SOL    HW272448   4.223  10.740   2.550  0.3288  0.5913 -0.9842
20712SOL     OW72449  11.754  12.811   8.095  0.7863  0.1577  0.3498
20712SOL    HW172450  11.778  12.756   8.021 -0.9866 -0.2038 -0.0164
20712SOL    HW272451  11.800  12.893   8.080  1.0269 -0.1631 -0.7690
20713SOL     OW72452  10.988  11.658   1.458 -0.4469 -0.3518  0.0969
20713SOL    HW172453  11.019  11.748   1.456 -0.1154 -0.4488  0.5064
20713SOL    HW272454  10.933  11.649   1.381  1.2399 -0.4019 -1.1661
20714SOL     OW72455  10.740   1.222  11.227  0.0485 -0.3103  0.0186
20714SOL    HW172456  10.772   1.131  11.230  1.0583  0.0376  0.2366
20714SOL    HW272457  10.805   1.268  11.174 -0.2838  0.3594  0.1920
20715SOL     OW72458   2.268   7.339   5.280  0.6690  0.0105 -0.2360
20715SOL    HW172459   2.316   7.267   5.238 -0.5616 -0.8274 -0.2419
20715SOL    HW272460   2.194   7.297   5.323 -0.0185  1.2693 -0.1530
20716SOL     OW72461   7.118   0.117   0.142  0.0374 -0.1494 -0.2115
20716SOL    HW172462   7.040   0.100   0.194  0.7672 -0.3517  0.8493
20716SOL    HW272463   7.103   0.204   0.104  0.1219  0.7086  1.5834
20717SOL     OW72464  11.996   2.889   7.450 -0.0175 -0.0358 -0.1754
20717SOL    HW172465  12.004   2.906   7.543 -2.4125  2.4083 -0.2658
20717SOL    HW272466  11.942   2.810   7.444 -1.7657  1.0388  0.6226
20718SOL     OW72467   7.618  11.458  10.638 -0.3808 -0.3669  0.0763
20718SOL    HW172468   7.601  11.364  10.646 -3.2218  0.0409 -0.0243
20718SOL    HW272469   7.533  11.495  10.615  0.9048  2.1307 -0.9482
20719SOL     OW72470   0.802   6.655   3.721  0.3764  0.6099 -0.0251
20719SOL    HW172471   0.892   6.687   3.726 -0.0144  1.6655  0.7150
20719SOL    HW272472   0.806   6.565   3.756  1.4109 -0.0249 -1.6720
20720SOL     OW72473   1.473   7.901   3.168  0.5703 -0.0860  0.4224
20720SOL    HW172474   1.506   7.815   3.141  0.0131 -0.1564 -0.0356
20720SOL    HW272475   1.538   7.962   3.134  0.2438 -0.2274 -0.4824
20721SOL     OW72476   1.396  11.215   2.114 -0.1062  0.0926 -0.0634
20721SOL    HW172477   1.342  11.155   2.165 -1.6340  0.9632 -0.5977
20721SOL    HW272478   1.357  11.214   2.026  2.1118 -0.9471 -1.1170
20722SOL     OW72479   4.741   4.335   4.049  0.4449  0.1555 -0.1019
20722SOL    HW172480   4.785   4.263   4.004  0.5477  0.8340 -1.0947
20722SOL    HW272481   4.648   4.318   4.036  0.4889  0.7796 -1.2521
20723SOL     OW72482   3.708  10.482   0.991  0.6977 -0.2250 -0.0740
20723SOL    HW172483   3.724  10.421   1.062 -0.7969 -1.1715 -0.5115
20723SOL    HW272484   3.665  10.429   0.923 -1.4056  1.4295 -0.1461
20724SOL     OW72485   2.295  12.374   1.967 -0.3654 -0.0838 -0.1793
20724SOL    HW172486   2.204  12.394   1.949  0.1782  0.7402 -2.2336
20724SOL    HW272487   2.339  12.459   1.967  0.6465 -0.5906 -0.8004
20725SOL     OW72488   1.641   3.989   5.135  0.0944  0.0540  0.0724
20725SOL    HW172489   1.691   3.921   5.181  1.8090  1.8733  1.0326
20725SOL    HW272490   1.574   4.016   5.198 -0.2123 -0.3097 -0.0915
20726SOL     OW72491   4.373   8.022   1.841  0.2915 -0.1438 -0.2996
20726SOL    HW172492   4.322   8.031   1.761  0.2515 -0.6420 -0.3329
20726SOL    HW272493   4.308   8.025   1.911  0.4569  1.8034 -0.1797
20727SOL     OW72494   7.526   2.469   9.594 -0.2810 -0.2917 -0.4054
20727SOL    HW172495   7.557   2.484   9.504  0.8094  3.3587  0.4126
20727SOL    HW272496   7.446   2.520   9.600 -2.3024 -3.2438 -0.1424
20728SOL     OW72497   6.579  10.926  10.572  0.1198 -0.0165 -0.1597
20728SOL    HW172498   6.638  10.865  10.527  1.5088  0.3978  1.0435
20728SOL    HW272499   6.632  10.963  10.642 -2.1935 -1.3355  2.4507
20729SOL     OW72500   1.206  10.122  11.864 -0.3689 -0.3784  0.5395
20729SOL    HW172501   1.242  10.049  11.914  0.8259  0.0314  0.3191
20729SOL    HW272502   1.259  10.125  11.784 -1.3430 -0.1654 -0.1155
20730SOL     OW72503   0.361   5.807   2.734 -0.3146 -0.3211 -0.2263
20730SOL    HW172504   0.297   5.767   2.793  0.4554 -2.0042 -0.5006
20730SOL    HW272505   0.383   5.891   2.776 -2.9310  0.4974 -0.3126
20731SOL     OW72506   0.466   9.450   2.223 -0.0343 -0.2403  0.7075
20731SOL    HW172507   0.409   9.395   2.276 -0.3296  0.1482  0.8060
20731SOL    HW272508   0.433   9.439   2.134  0.4729 -0.9068  0.6000
20732SOL     OW72509   6.238   0.042  10.972  0.3534 -0.3021  0.5276
20732SOL    HW172510   6.279   0.037  11.059  1.0397 -0.8344  0.1878
20732SOL    HW272511   6.260  -0.041  10.931  1.0530  0.4138 -0.5992
20733SOL     OW72512   3.065   5.034  11.399 -0.2403 -0.8829  0.7185
20733SOL    HW172513   3.000   5.075  11.456 -0.2540  3.2425 -1.8669
20733SOL    HW272514   3.013   4.995  11.328 -0.0577 -2.0446  1.2165
20734SOL     OW72515   4.421   3.792   1.471  0.7903  0.4907  0.9202
20734SOL    HW172516   4.373   3.713   1.494  1.5201 -0.2565 -0.0216
20734SOL    HW272517   4.357   3.862   1.479 -1.3572 -0.7404 -2.8877
20735SOL     OW72518   7.861   2.050   5.240 -0.1678  0.2189 -0.2561
20735SOL    HW172519   7.807   2.054   5.162 -0.8600  0.2572  0.2140
20735SOL    HW272520   7.813   1.992   5.300  1.8843 -2.5348 -1.0379
20736SOL     OW72521   1.055   0.490   1.930  0.0595 -0.0103  0.6369
20736SOL    HW172522   1.000   0.437   1.871  1.5559 -2.2025  1.0752
20736SOL    HW272523   1.102   0.549   1.871 -1.3196  0.5771  0.0737
20737SOL     OW72524   0.397   5.576  10.432 -0.1900 -0.5871 -0.2999
20737SOL    HW172525   0.416   5.601  10.523  1.1981 -1.3600 -0.3433
20737SOL    HW272526   0.319   5.626  10.410 -1.2382 -1.2245  1.6823
20738SOL     OW72527   9.536   6.998   5.341  0.2028  0.3548 -0.3722
20738SOL    HW172528   9.626   6.969   5.356  0.1130  0.5761  0.7135
20738SOL    HW272529   9.492   6.985   5.425 -0.7918  0.2199 -0.8968
20739SOL     OW72530   4.923   9.176   5.506  0.3506  0.2178  0.2840
20739SOL    HW172531   4.972   9.244   5.459  1.8503  0.1534  1.6412
20739SOL    HW272532   4.832   9.205   5.502  0.6382  0.9949 -1.2812
20740SOL     OW72533   2.470   9.360   9.099 -0.4719  0.0645  0.5997
20740SOL    HW172534   2.539   9.344   9.036 -0.7380  0.7462  0.1242
20740SOL    HW272535   2.438   9.273   9.123 -0.8370 -0.1870 -0.7343
20741SOL     OW72536   2.562   5.806  10.631  0.1675  0.1937 -0.4816
20741SOL    HW172537   2.632   5.758  10.675  0.5045 -1.1067 -2.3108
20741SOL    HW272538   2.590   5.897  10.634 -1.4406  0.8698  4.8892
20742SOL     OW72539   6.986  10.792   2.307 -0.6734  0.2619 -0.5180
20742SOL    HW172540   6.984  10.872   2.359  2.0881  1.6835 -2.3424
20742SOL    HW272541   7.071  10.753   2.326 -1.1104 -1.1070 -1.2609
20743SOL     OW72542   7.525   6.808   8.818  0.3702 -0.4066 -0.3137
20743SOL    HW172543   7.504   6.900   8.833 -1.2494 -0.7464 -0.3034
20743SOL    HW272544   7.620   6.802   8.831  0.5301  1.2915 -0.5545
20744SOL     OW72545   0.341   8.769  10.525  0.6216 -0.2792 -0.0937
20744SOL    HW172546   0.253   8.801  10.541  0.6878 -0.7903  1.3945
20744SOL    HW272547   0.330   8.696  10.464  0.2444  0.9671 -1.5703
20745SOL     OW72548  10.919   1.026   0.325  0.1297  0.9131  0.1931
20745SOL    HW172549  10.837   0.982   0.304  0.5239  0.1054  0.3106
20745SOL    HW272550  10.923   1.100   0.264 -0.1528  0.3131 -0.5654
20746SOL     OW72551   3.766  10.727  12.936 -0.1174  0.0351  0.3808
20746SOL    HW172552   3.801  10.814  12.953  1.5704 -0.5629  0.1744
20746SOL    HW272553   3.831  10.667  12.975  0.7550 -1.2270 -2.7143
20747SOL     OW72554   4.135   8.082   4.376 -0.8243  0.2640  0.7547
20747SOL    HW172555   4.206   8.063   4.437  0.5903  0.2060 -0.8326
20747SOL    HW272556   4.112   7.996   4.339 -0.0085  0.5651 -0.5081
20748SOL     OW72557   0.662   9.300   3.859  0.2369 -0.8396  0.0514
20748SOL    HW172558   0.721   9.375   3.868 -2.2282  1.1098  1.0345
20748SOL    HW272559   0.704   9.244   3.793  2.7726  0.7607  0.1715
20749SOL     OW72560   2.543   5.755   3.138  0.0233 -0.0791 -0.1030
20749SOL    HW172561   2.631   5.756   3.177 -0.7370  0.1430  1.7248
20749SOL    HW272562   2.558   5.762   3.044  1.9293  0.9726  0.2300
20750SOL     OW72563   0.717   1.141   1.800 -0.4488 -0.1589 -0.2623
20750SOL    HW172564   0.701   1.194   1.722  0.4870 -0.1253 -0.4435
20750SOL    HW272565   0.812   1.128   1.801 -0.3589  0.4070  1.2311
20751SOL     OW72566   1.380   5.175   8.694 -0.4572  0.0181  0.0079
20751SOL    HW172567   1.433   5.228   8.753 -0.4306  0.3782 -0.3355
20751SOL    HW272568   1.422   5.185   8.609  0.8008 -2.2418  0.3025
20752SOL     OW72569   2.358   3.840  12.178  0.1226  0.1294  1.1216
20752SOL    HW172570   2.366   3.804  12.089  0.1139 -1.2016  1.6322
20752SOL    HW272571   2.386   3.931  12.169  1.4992 -0.3522  0.0126
20753SOL     OW72572   5.322  12.431   0.230  0.1774 -0.5334  0.1763
20753SOL    HW172573   5.341  12.348   0.273 -2.8170 -1.4139  0.0278
20753SOL    HW272574   5.261  12.408   0.160  0.7307  1.5892 -1.1033
20754SOL     OW72575  11.272   1.056   6.849 -0.6987  0.5001  0.1328
20754SOL    HW172576  11.193   1.068   6.797 -0.1743  1.2454 -0.5142
20754SOL    HW272577  11.316   1.141   6.846 -0.0915  0.2303  0.8618
20755SOL     OW72578   3.124   8.425   3.875 -0.1604  0.5989  0.7685
20755SOL    HW172579   3.082   8.440   3.791  0.5670  2.1170  0.6479
20755SOL    HW272580   3.071   8.476   3.937 -1.7700 -1.8776  1.6188
20756SOL     OW72581   1.191  11.172   8.337  0.1278  0.2744  0.0909
20756SOL    HW172582   1.198  11.123   8.419 -1.5973  1.0469  0.7566
20756SOL    HW272583   1.177  11.262   8.365 -0.5235  0.5420 -1.0536
20757SOL     OW72584  12.233   1.235   2.099 -0.0483  0.5125 -0.4015
20757SOL    HW172585  12.204   1.317   2.139  1.0895  1.0284 -0.5899
20757SOL    HW272586  12.179   1.168   2.140  1.1905  0.9798  2.2157
20758SOL     OW72587   1.014   5.551   6.736 -0.2231 -0.4505 -0.5364
20758SOL    HW172588   1.029   5.522   6.826 -0.6312  1.4177  0.1668
20758SOL    HW272589   0.955   5.626   6.744 -1.6702 -1.2903 -2.4877
20759SOL     OW72590   7.365   3.409   8.391  0.4960  0.5943 -0.4942
20759SOL    HW172591   7.416   3.362   8.324  0.6717  1.4401 -0.9735
20759SOL    HW272592   7.336   3.490   8.347 -1.6846 -0.0653 -0.4021
20760SOL     OW72593  11.703   5.217   3.864 -0.2913 -0.1175  0.1443
20760SOL    HW172594  11.791   5.232   3.828 -0.1849  1.4932  0.9874
20760SOL    HW272595  11.712   5.138   3.918  1.3209  1.3706  2.2205
20761SOL     OW72596  10.387   8.793   6.442 -0.3263  0.0590  0.0437
20761SOL    HW172597  10.453   8.733   6.476 -1.6597 -0.7663  1.2767
20761SOL    HW272598  10.397   8.788   6.347  2.8559  1.7130  0.1838
20762SOL     OW72599   0.100  11.836   0.405  0.1863  0.3144  0.0452
20762SOL    HW172600   0.142  11.815   0.322  1.2487 -2.0596  1.0970
20762SOL    HW272601   0.142  11.917   0.433  2.3056 -0.6640 -0.1388
20763SOL     OW72602   0.228  12.943  11.063 -0.2378 -0.0957 -0.1563
20763SOL    HW172603   0.181  12.868  11.101  0.8191 -0.4505  0.4986
20763SOL    HW272604   0.288  12.971  11.132 -0.9842  1.7284 -0.1816
20764SOL     OW72605   1.502   6.698   3.830 -0.4971 -0.5543  0.3056
20764SOL    HW172606   1.529   6.621   3.780 -0.1500 -1.0184  1.1874
20764SOL    HW272607   1.575   6.716   3.888  0.0632  1.3763 -0.9148
20765SOL     OW72608   3.027   7.623   0.534 -0.4774  0.2691 -0.0733
20765SOL    HW172609   3.070   7.705   0.559 -0.9060  0.7165 -0.7650
20765SOL    HW272610   2.958   7.650   0.474 -1.9516 -0.4007  1.2596
20766SOL     OW72611   6.906   9.897   3.374 -0.5897  0.1501 -0.1897
20766SOL    HW172612   6.975   9.962   3.364 -0.2107 -0.2180  0.0207
20766SOL    HW272613   6.921   9.834   3.304 -2.6992  1.7984 -2.2954
20767SOL     OW72614   9.516   5.935   6.040 -0.1569 -0.0836  0.3636
20767SOL    HW172615   9.462   5.894   5.973 -1.5233  0.3779  1.1503
20767SOL    HW272616   9.605   5.929   6.005 -0.5361 -1.9483 -0.4082
20768SOL     OW72617   0.982   2.400   4.829  0.4387  0.1516 -0.1000
20768SOL    HW172618   0.942   2.454   4.761 -0.0018 -0.5132 -0.3720
20768SOL    HW272619   1.013   2.464   4.894 -0.6289  0.7121 -0.1103
20769SOL     OW72620   0.818   1.249   8.965  0.0325  0.7450  0.3201
20769SOL    HW172621   0.865   1.318   9.014 -1.2870  0.6619  1.7799
20769SOL    HW272622   0.760   1.296   8.906  0.7945  0.8549 -0.3531
20770SOL     OW72623   7.789   8.223   9.419  0.3556  0.0864  0.6385
20770SOL    HW172624   7.824   8.266   9.341 -0.7766  2.9962  1.5885
20770SOL    HW272625   7.695   8.221   9.405  0.0436  1.4195  2.2012
20771SOL     OW72626   0.129   6.005   7.985  0.5713  0.2190  0.2352
20771SOL    HW172627   0.079   6.016   8.066 -0.5687  1.0356 -0.5627
20771SOL    HW272628   0.187   5.931   8.004  0.2479  0.3061  1.7530
20772SOL     OW72629   2.551   7.584  12.617 -0.5226  0.1388  0.5217
20772SOL    HW172630   2.528   7.507  12.564 -0.9541  0.3362  0.4201
20772SOL    HW272631   2.631   7.558  12.663 -1.2785 -0.7906  1.3556
20773SOL     OW72632  11.416  12.766   0.080  0.2270 -0.1551  0.7093
20773SOL    HW172633  11.402  12.852   0.119  0.9920  0.5199 -0.4300
20773SOL    HW272634  11.409  12.781  -0.014  2.1504 -0.9556  0.3858
20774SOL     OW72635   0.955   9.683   6.284 -0.5818 -0.5350  0.4710
20774SOL    HW172636   0.921   9.632   6.211  3.4478 -1.3996 -1.0682
20774SOL    HW272637   0.969   9.619   6.354 -0.5048 -0.5052  0.4836
20775SOL     OW72638   7.052  11.420   6.063  0.5181  0.0887 -0.3607
20775SOL    HW172639   7.080  11.343   6.013  4.0045  0.3395  0.9374
20775SOL    HW272640   7.128  11.443   6.117 -1.6358  2.2687  2.0378
20776SOL     OW72641   3.857   8.128   1.342  0.7596  0.1403 -0.4941
20776SOL    HW172642   3.950   8.143   1.358  0.8586 -1.2455  0.3362
20776SOL    HW272643   3.846   8.148   1.249  1.9246  0.1114 -0.6561
20777SOL     OW72644  10.371   6.732   3.432  0.8569  1.1437  0.3981
20777SOL    HW172645  10.384   6.683   3.514  0.5362  0.6444  0.1566
20777SOL    HW272646  10.349   6.820   3.461  0.3936  0.8862  0.8633
20778SOL     OW72647  11.128   8.143  12.578 -0.2538 -0.4743 -0.1118
20778SOL    HW172648  11.091   8.198  12.647  0.0960 -2.5173  1.7903
20778SOL    HW272649  11.063   8.147  12.507 -1.1528  0.8081  0.7512
20779SOL     OW72650   3.616   9.744  10.874  0.6492  0.0716  0.2862
20779SOL    HW172651   3.659   9.806  10.815 -1.4267  1.9191  0.5921
20779SOL    HW272652   3.677   9.735  10.948  0.7156  2.4027  0.5933
20780SOL     OW72653   4.063   1.225   9.976  0.5415  0.0672  0.7489
20780SOL    HW172654   4.108   1.173  10.042  0.0908  1.2525  2.0514
20780SOL    HW272655   4.120   1.302   9.963  1.7892 -1.1882 -2.0029
20781SOL     OW72656  12.338   6.392   4.063  0.3894  0.5403 -0.3210
20781SOL    HW172657  12.396   6.454   4.019 -0.5984  3.3270  1.9783
20781SOL    HW272658  12.312   6.437   4.143 -0.0724 -3.0814  1.7791
20782SOL     OW72659   4.917   6.176   7.941  0.2165  0.3484  0.6006
20782SOL    HW172660   4.995   6.150   7.892 -0.3618  1.4874 -0.9789
20782SOL    HW272661   4.949   6.239   8.006  0.5845  0.9773 -0.1827
20783SOL     OW72662  12.943   3.611   0.700 -0.0334 -0.7884 -0.1098
20783SOL    HW172663  12.886   3.552   0.749  0.2114 -0.6027  0.3989
20783SOL    HW272664  12.885   3.651   0.635 -1.5197  2.3029  2.7867
20784SOL     OW72665  11.352   0.156   6.702  0.4144  0.6443  0.1692
20784SOL    HW172666  11.326   0.153   6.794 -0.2731  0.1814 -0.0272
20784SOL    HW272667  11.341   0.066   6.672 -0.5057  1.0230 -0.6628
20785SOL     OW72668   3.559  11.105  10.389  0.1308  0.6591  0.5975
20785SOL    HW172669   3.621  11.060  10.446  0.9402 -1.3368 -1.6860
20785SOL    HW272670   3.611  11.135  10.314 -1.4403 -0.2931 -0.9776
20786SOL     OW72671   6.796   9.865   8.595 -0.1187  0.6294  0.3891
20786SOL    HW172672   6.791   9.858   8.691  1.0617  0.5682  0.4544
20786SOL    HW272673   6.884   9.898   8.578  0.3130 -0.9906 -0.7480
20787SOL     OW72674   9.024   2.201   9.341  0.1384  0.1501  0.0989
20787SOL    HW172675   8.965   2.179   9.270 -0.8942  3.3552 -0.2255
20787SOL    HW272676   9.104   2.152   9.323 -1.0776 -1.3162 -1.6107
20788SOL     OW72677  11.343   9.509   6.999 -0.2843  0.0302  0.2346
20788SOL    HW172678  11.379   9.597   7.003 -1.8193  0.6417  2.6479
20788SOL    HW272679  11.419   9.453   6.982  0.8399  1.7204 -0.5647
20789SOL     OW72680   0.354  10.641  11.818  0.3746 -0.3234  0.0122
20789SOL    HW172681   0.355  10.611  11.727  3.2888  2.1378 -0.9273
20789SOL    HW272682   0.339  10.735  11.813 -0.2827 -0.2666  2.1674
20790SOL     OW72683   2.824  11.420   5.880  0.2170  0.3669  0.0718
20790SOL    HW172684   2.870  11.440   5.962  2.5925  0.0867 -1.0983
20790SOL    HW272685   2.883  11.452   5.811  0.4552 -3.2472 -1.6394
20791SOL     OW72686   5.447   6.001   7.627 -0.2178 -0.0790  0.1542
20791SOL    HW172687   5.352   6.004   7.613 -0.0301  1.4887 -0.9854
20791SOL    HW272688   5.463   6.064   7.696  0.2822  2.0813 -1.8139
20792SOL     OW72689   6.072   7.055  10.830  0.0237  0.0382 -0.0431
20792SOL    HW172690   6.024   7.065  10.912 -3.7694  0.2854 -2.0880
20792SOL    HW272691   6.076   6.960  10.817 -0.4330  0.0255 -0.1122
20793SOL     OW72692   5.588   1.453   2.893  0.4755 -0.6968 -0.4782
20793SOL    HW172693   5.667   1.442   2.947  0.6672  1.6003 -0.1876
20793SOL    HW272694   5.579   1.369   2.847  0.6229 -2.5963  2.6624
20794SOL     OW72695  10.789   8.516   0.156 -0.1049 -0.2156  0.2797
20794SOL    HW172696  10.694   8.509   0.148  0.0083 -0.3452 -1.2380
20794SOL    HW272697  10.807   8.497   0.248 -1.4828 -0.8710  0.4385
20795SOL     OW72698   5.860   7.113  10.590  0.4993  0.3577 -0.3940
20795SOL    HW172699   5.815   7.173  10.530 -0.9707  0.2464  0.5414
20795SOL    HW272700   5.874   7.165  10.669  2.6760  0.5915 -0.8647
20796SOL     OW72701   3.189   9.392   6.173 -0.2993  0.3469  0.2010
20796SOL    HW172702   3.232   9.477   6.180 -0.4122  0.3179  1.3470
20796SOL    HW272703   3.175   9.363   6.263  1.3143 -1.7109 -0.1261
20797SOL     OW72704   0.728   9.357   1.099  0.4740  0.1429 -0.0695
20797SOL    HW172705   0.699   9.267   1.085  0.7097  0.2479 -1.3756
20797SOL    HW272706   0.672   9.409   1.041  1.0677  0.7041 -0.1476
20798SOL     OW72707   7.736   3.737   1.106 -0.4668 -0.6422  0.1836
20798SOL    HW172708   7.671   3.780   1.050  0.6259  0.1940 -0.4833
20798SOL    HW272709   7.745   3.649   1.069  0.7108  0.0984 -1.4179
20799SOL     OW72710   1.936   4.826  11.198  0.5115 -0.1427  0.4115
20799SOL    HW172711   1.853   4.779  11.196  0.4049  0.0680 -0.3851
20799SOL    HW272712   1.985   4.791  11.123  1.6131 -1.0917  1.5369
20800SOL     OW72713   3.217  10.398   1.601 -0.1688  0.4570  0.9935
20800SOL    HW172714   3.309  10.410   1.576 -1.0325  1.8717 -2.0058
20800SOL    HW272715   3.210  10.438   1.688  1.7146  1.9080  0.5438
20801SOL     OW72716   6.471   8.693   4.588  0.1826 -0.2647 -0.1147
20801SOL    HW172717   6.408   8.692   4.516  1.1587  0.0424 -0.9931
20801SOL    HW272718   6.556   8.701   4.545  0.6976  1.2664  1.1287
20802SOL     OW72719   3.889   4.105  12.946  0.0171  0.4112  0.3882
20802SOL    HW172720   3.821   4.147  12.998 -0.9929  0.1792 -0.7048
20802SOL    HW272721   3.915   4.029  12.997 -1.2196 -0.0202  0.3961
20803SOL     OW72722  11.279   2.299   5.240  0.3014  0.1231  0.2618
20803SOL    HW172723  11.329   2.218   5.246 -0.2330 -0.1403  1.4178
20803SOL    HW272724  11.273   2.317   5.146  1.4138 -0.5452  0.0525
20804SOL     OW72725   7.824   0.137   4.690  0.4225 -0.2980  0.1446
20804SOL    HW172726   7.789   0.084   4.761  1.5661 -1.6096 -0.2230
20804SOL    HW272727   7.747   0.174   4.647 -0.3380 -0.5397  1.2383
20805SOL     OW72728   8.763   9.090   7.007 -0.4078 -0.4472 -0.2301
20805SOL    HW172729   8.765   9.022   6.940 -2.3388 -0.9186  0.1100
20805SOL    HW272730   8.842   9.076   7.058  0.2281 -1.1642 -1.3763
20806SOL     OW72731   3.649   1.313   1.363 -0.3775  0.0389 -0.6206
20806SOL    HW172732   3.640   1.244   1.298  0.6237  1.5363 -2.4609
20806SOL    HW272733   3.607   1.389   1.323 -0.6832  0.7488  0.9647
20807SOL     OW72734   0.268   8.528   0.081 -0.3266 -0.0528 -0.1211
20807SOL    HW172735   0.180   8.543   0.115 -0.1823 -0.1519  0.3046
20807SOL    HW272736   0.309   8.469   0.145  0.5112  1.0869  0.4268
20808SOL     OW72737  10.301   9.978   5.332  0.4143 -0.5602 -0.0781
20808SOL    HW172738  10.375   9.922   5.354  1.6029  0.8257 -0.4176
20808SOL    HW272739  10.313  10.056   5.385 -0.9059 -0.3672 -0.0272
20809SOL     OW72740   5.495  10.283   4.240 -0.6130 -0.0901 -0.8556
20809SOL    HW172741   5.479  10.190   4.221 -0.9683 -0.1377 -0.3342
20809SOL    HW272742   5.480  10.327   4.156 -2.3016 -0.2861 -0.6891
20810SOL     OW72743  11.777   6.438   2.671  0.0192 -0.1266 -0.5479
20810SOL    HW172744  11.827   6.362   2.644  0.6395  0.3616 -0.7756
20810SOL    HW272745  11.791   6.503   2.602 -0.8077  0.0701 -0.5466
20811SOL     OW72746   7.366   1.191   8.801 -0.8848  0.5946  0.0774
20811SOL    HW172747   7.432   1.218   8.865 -1.3637 -1.6873  1.6566
20811SOL    HW272748   7.415   1.145   8.732 -0.5874  1.1294 -0.0671
20812SOL     OW72749  12.457   8.673   9.809  0.0677  0.8305  0.6665
20812SOL    HW172750  12.552   8.674   9.796  0.1605  1.7686  1.3008
20812SOL    HW272751  12.445   8.697   9.901 -0.8425  2.8532  0.0709
20813SOL     OW72752   6.344   1.618   6.087 -0.3753 -0.0662 -0.3424
20813SOL    HW172753   6.264   1.669   6.087 -0.7653 -0.6594 -0.5727
20813SOL    HW272754   6.393   1.649   6.163 -1.0908 -0.1053  0.1435
20814SOL     OW72755   4.627   8.462   1.876  0.5411 -0.2187 -0.6845
20814SOL    HW172756   4.547   8.487   1.922  1.4493  0.6310  0.4870
20814SOL    HW272757   4.668   8.545   1.852  2.7019 -0.4844  1.6811
20815SOL     OW72758  11.816   3.293   6.034 -0.0076  0.3514 -0.1869
20815SOL    HW172759  11.857   3.216   6.072  0.1620  0.2950 -0.4767
20815SOL    HW272760  11.882   3.362   6.041  0.1232  0.2759 -0.5973
20816SOL     OW72761   4.919   0.436   2.463 -0.4945 -0.1483  0.3087
20816SOL    HW172762   4.896   0.516   2.416 -0.6321 -1.2697 -1.6488
20816SOL    HW272763   4.835   0.397   2.488 -0.4558 -0.0906  0.5299
20817SOL     OW72764   3.569  11.671   4.446  0.0002  0.2636 -0.2552
20817SOL    HW172765   3.490  11.707   4.406 -0.4385 -0.1934  0.1834
20817SOL    HW272766   3.614  11.626   4.375 -0.0056  0.7448 -0.5621
20818SOL     OW72767  11.467   5.464   3.064 -0.5676  0.2338 -0.2051
20818SOL    HW172768  11.536   5.413   3.023  0.0580  0.9636 -0.0853
20818SOL    HW272769  11.509   5.506   3.139 -1.5086 -0.4734  0.7579
20819SOL     OW72770  11.278   0.342   8.400 -0.2525 -0.4097  0.1572
20819SOL    HW172771  11.308   0.335   8.491 -1.5033 -0.6990  0.5578
20819SOL    HW272772  11.292   0.255   8.363 -2.4140 -1.1344  0.9366
20820SOL     OW72773   8.714   8.449   2.036  0.6121 -0.4287 -0.2051
20820SOL    HW172774   8.636   8.496   2.066  1.8381  1.0790  0.7887
20820SOL    HW272775   8.715   8.461   1.941  0.0679  0.2315 -0.1361
20821SOL     OW72776   2.152   0.732   9.223 -0.4711  0.5048 -0.0886
20821SOL    HW172777   2.222   0.679   9.184 -0.8874  0.3796 -0.6815
20821SOL    HW272778   2.098   0.760   9.149  0.2291  2.5244  0.1093
20822SOL     OW72779   4.895   2.292   5.834 -0.2784  1.1344 -0.1601
20822SOL    HW172780   4.923   2.260   5.749 -1.8263  2.1128 -1.0897
20822SOL    HW272781   4.894   2.215   5.890 -1.6130 -0.0126 -1.6928
20823SOL     OW72782  10.234   0.277   3.232  0.0567  0.2615  0.1418
20823SOL    HW172783  10.255   0.284   3.138 -3.6180 -0.6249 -0.9280
20823SOL    HW272784  10.213   0.366   3.258 -1.0173  0.2166 -0.5159
20824SOL     OW72785   6.926   7.337   2.903 -0.2029  0.3105  0.0660
20824SOL    HW172786   6.870   7.259   2.898 -0.9744  0.8376  0.4066
20824SOL    HW272787   6.969   7.330   2.988  3.1476 -2.0154 -1.6055
20825SOL     OW72788   6.082   9.590   9.445  0.0300  0.1199  0.3687
20825SOL    HW172789   6.028   9.626   9.375  0.8967 -1.0713 -0.9800
20825SOL    HW272790   6.027   9.595   9.523 -0.5236  2.6319 -0.0845
20826SOL     OW72791  11.291   6.064   0.472 -0.4438  0.6164 -0.1595
20826SOL    HW172792  11.325   6.127   0.409  0.0656  1.1317  0.6087
20826SOL    HW272793  11.213   6.028   0.430  0.8975 -0.4458 -1.8696
20827SOL     OW72794   8.096   0.366   7.183 -0.3455  0.1450  0.1767
20827SOL    HW172795   8.079   0.399   7.095 -1.3906 -2.3769 -0.6611
20827SOL    HW272796   8.017   0.389   7.232 -1.0618 -0.9910 -0.3954
20828SOL     OW72797   1.430  12.145   8.185  0.3583  0.0539  0.0423
20828SOL    HW172798   1.466  12.206   8.250 -0.9031 -0.3888  1.2138
20828SOL    HW272799   1.503  12.088   8.162  0.6858 -0.1984  1.5869
20829SOL     OW72800   4.241   6.829   2.938  0.4377  0.1871  0.1161
20829SOL    HW172801   4.236   6.739   2.970 -0.2786 -0.1316 -0.8707
20829SOL    HW272802   4.333   6.852   2.946  1.0844 -1.4798 -1.8660
20830SOL     OW72803   6.340  10.995  11.230 -0.0091  0.1134 -0.3544
20830SOL    HW172804   6.320  11.020  11.320 -1.2313  1.9443 -1.0711
20830SOL    HW272805   6.398  11.064  11.197 -0.2482 -0.0721 -1.2006
20831SOL     OW72806   2.968   9.522  12.310  0.2442  0.1878  0.1704
20831SOL    HW172807   2.979   9.531  12.405 -2.0607  2.1119  0.3490
20831SOL    HW272808   2.946   9.430  12.296 -0.9489  0.2143  1.7061
20832SOL     OW72809   3.793   6.578  10.758  0.4000  0.2045  0.2235
20832SOL    HW172810   3.809   6.650  10.820 -2.2966  1.1141 -0.0394
20832SOL    HW272811   3.734   6.615  10.693 -0.5777 -2.0802 -0.2628
20833SOL     OW72812  11.305   0.671   2.625 -0.4454  0.0912  0.4152
20833SOL    HW172813  11.339   0.757   2.600  0.2969  0.5181  2.6947
20833SOL    HW272814  11.374   0.610   2.599 -1.8582 -0.1875 -3.1889
20834SOL     OW72815   3.943  11.799   8.394 -0.1646  0.5028 -0.5665
20834SOL    HW172816   3.884  11.795   8.469 -0.8046  0.1973 -1.0759
20834SOL    HW272817   3.985  11.885   8.401  0.5838  0.0545  0.7213
20835SOL     OW72818   1.918   2.491   0.665  0.0333 -0.2236 -0.1829
20835SOL    HW172819   1.984   2.560   0.667  2.0250 -1.9213 -2.2329
20835SOL    HW272820   1.871   2.506   0.583 -0.8169 -0.2360  0.2849
20836SOL     OW72821  10.515  11.186  12.671 -0.1614  0.1209 -0.1046
20836SOL    HW172822  10.476  11.139  12.597 -2.2941  0.7639  0.5565
20836SOL    HW272823  10.531  11.119  12.737  0.9380 -0.3179 -0.7871
20837SOL     OW72824   7.641  10.995   6.890 -0.5743  0.0151 -0.2238
20837SOL    HW172825   7.633  10.974   6.797 -0.8870 -1.2121  0.0604
20837SOL    HW272826   7.567  11.053   6.908  0.0386  1.0511 -0.9316
20838SOL     OW72827   1.375   0.166   0.065 -1.0044  0.0994  0.0871
20838SOL    HW172828   1.454   0.116   0.046 -0.4718  1.0137 -0.1914
20838SOL    HW272829   1.382   0.243   0.009 -2.6170 -0.3093 -0.7226
20839SOL     OW72830   5.354  11.343   0.335  0.1390 -0.8574 -0.3439
20839SOL    HW172831   5.320  11.253   0.336  0.6651 -1.0826 -1.4388
20839SOL    HW272832   5.424  11.342   0.270 -0.9647  0.7356 -1.6557
20840SOL     OW72833   6.526   5.548   4.338 -0.2755  0.2821 -0.1771
20840SOL    HW172834   6.454   5.515   4.391 -0.3439 -0.5951 -0.7980
20840SOL    HW272835   6.603   5.497   4.366 -0.4531 -0.6835 -1.3806
20841SOL     OW72836   2.620  12.980  12.067 -0.0729 -0.2877 -0.1476
20841SOL    HW172837   2.695  13.029  12.100  0.1053  0.1927 -1.2184
20841SOL    HW272838   2.550  13.044  12.059 -1.0042 -0.9635  1.9847
20842SOL     OW72839   4.298   0.661   0.302 -0.1353  0.0235 -0.1889
20842SOL    HW172840   4.361   0.636   0.235  0.8533  0.9449  0.3603
20842SOL    HW272841   4.252   0.580   0.322  0.9322 -0.7082 -0.5504
20843SOL     OW72842  11.544   5.504   8.611 -0.1209 -0.2159  0.7653
20843SOL    HW172843  11.544   5.473   8.521  1.9632  1.9446 -0.0864
20843SOL    HW272844  11.461   5.473   8.647 -1.3112 -0.6225 -2.0662
20844SOL     OW72845   3.683   7.603  12.422  0.3492 -0.0011 -0.2506
20844SOL    HW172846   3.692   7.525  12.478  1.2411  1.0437  1.1090
20844SOL    HW272847   3.734   7.581  12.343  2.7925  0.1323  1.1884
20845SOL     OW72848   7.627   1.536   4.979 -0.6138 -0.4778 -0.5029
20845SOL    HW172849   7.567   1.571   5.044  0.6332 -0.5462  0.7366
20845SOL    HW272850   7.648   1.612   4.923  0.3775  0.2814  0.8330
20846SOL     OW72851   4.671   1.654   7.306  0.2290  0.0342  0.0014
20846SOL    HW172852   4.757   1.661   7.264 -0.6416  0.5684 -1.8085
20846SOL    HW272853   4.620   1.598   7.247 -0.8230  0.1705  0.7482
20847SOL     OW72854   0.433   5.645   1.463 -0.0620 -0.3084  0.5301
20847SOL    HW172855   0.398   5.703   1.530 -0.2391 -0.9518  0.9989
20847SOL    HW272856   0.525   5.634   1.486  0.2429  0.6305 -0.1700
20848SOL     OW72857   5.465   7.629   2.168  0.0835 -0.5690 -0.2174
20848SOL    HW172858   5.491   7.609   2.258 -1.2055 -4.4822 -0.5084
20848SOL    HW272859   5.374   7.656   2.175 -0.7635 -3.0960 -0.3746
20849SOL     OW72860   3.664   6.988   1.830  0.1646 -0.4633 -0.1342
20849SOL    HW172861   3.663   7.046   1.906  0.2271  0.9179 -1.1522
20849SOL    HW272862   3.620   7.038   1.761  0.0602 -1.7047 -0.9996
20850SOL     OW72863   7.413  12.088   3.238  0.6028 -0.1382 -0.1804
20850SOL    HW172864   7.432  12.178   3.263 -0.0980 -0.0586  0.0804
20850SOL    HW272865   7.356  12.055   3.307 -0.9206 -0.0886 -1.3654
20851SOL     OW72866  10.637   1.668   2.938 -0.3691 -0.1118 -0.0546
20851SOL    HW172867  10.677   1.598   2.887 -0.9214 -0.3292 -0.1984
20851SOL    HW272868  10.687   1.670   3.020 -0.6958 -1.0370  0.1776
20852SOL     OW72869  11.452   8.141   3.698  0.0576 -0.5445 -0.1593
20852SOL    HW172870  11.362   8.109   3.703  0.2365 -0.8670  1.5017
20852SOL    HW272871  11.443   8.237   3.700 -0.2865 -0.5474 -1.1273
20853SOL     OW72872   6.245   5.312   5.639 -0.2265  0.6674 -0.7808
20853SOL    HW172873   6.154   5.332   5.615 -0.1991 -0.5227 -1.9714
20853SOL    HW272874   6.242   5.297   5.734 -1.6599 -1.2380 -1.0698
20854SOL     OW72875   0.449   5.352   7.170  0.3589 -0.2405 -0.2600
20854SOL    HW172876   0.530   5.359   7.222 -0.2207 -1.1994  0.8075
20854SOL    HW272877   0.431   5.442   7.142 -0.1135  0.6193  2.4994
20855SOL     OW72878   7.322   8.726   1.012 -0.7884  0.6084  0.1906
20855SOL    HW172879   7.305   8.805   1.064  1.0107  0.8153  0.5493
20855SOL    HW272880   7.390   8.680   1.061 -1.2701 -0.7861 -0.4164
20856SOL     OW72881   1.951   7.329   7.470  0.1645 -0.3980  1.0257
20856SOL    HW172882   2.015   7.261   7.451  0.6898  0.1897  0.6236
20856SOL    HW272883   1.900   7.337   7.390  0.5109  0.0983  0.8458
20857SOL     OW72884   3.907   2.737  11.583 -0.4710 -0.3239 -0.3510
20857SOL    HW172885   3.888   2.805  11.518 -1.0906 -1.1311 -1.0336
20857SOL    HW272886   3.917   2.657  11.531 -0.0915 -0.8187  0.4765
20858SOL     OW72887   1.694   0.087   0.018 -0.5436  0.8168  0.5134
20858SOL    HW172888   1.655   0.111  -0.066  1.2384  1.7543 -0.0905
20858SOL    HW272889   1.749   0.011  -0.001 -0.7942  0.4944  1.0296
20859SOL     OW72890   9.172   1.338   4.128 -0.2242  0.0936 -0.3354
20859SOL    HW172891   9.143   1.377   4.211 -0.3815 -1.1895  0.2350
20859SOL    HW272892   9.105   1.363   4.065 -0.2355  0.8751 -0.0264
20860SOL     OW72893  11.663   8.662   5.451  0.5677  0.4055 -0.4638
20860SOL    HW172894  11.652   8.747   5.408  1.8101  0.0378 -1.5827
20860SOL    HW272895  11.750   8.633   5.424  0.6902 -0.6381  0.9696
20861SOL     OW72896   6.059   8.452   5.266  0.8378 -0.6079 -0.4459
20861SOL    HW172897   5.996   8.521   5.287  2.1427  1.0428 -1.6600
20861SOL    HW272898   6.006   8.373   5.255 -0.7105  0.1542  1.0200
20862SOL     OW72899  10.774   9.186   8.512  0.3444 -0.0397  0.1708
20862SOL    HW172900  10.702   9.249   8.501 -0.7115 -1.1440  0.4728
20862SOL    HW272901  10.734   9.101   8.492  1.6305 -0.6626  0.1645
20863SOL     OW72902   1.022  11.536   6.992  0.2553  0.5871  0.0401
20863SOL    HW172903   1.104  11.492   6.968 -0.0409  0.4416 -0.7267
20863SOL    HW272904   1.006  11.509   7.082  1.2003  0.8455  0.3039
20864SOL     OW72905   7.761   7.094   8.233  0.3042  0.2433 -0.0787
20864SOL    HW172906   7.726   7.027   8.173  2.1471  0.5062 -1.5400
20864SOL    HW272907   7.713   7.173   8.209 -0.3141 -0.0650  0.1196
20865SOL     OW72908   5.997   3.824   8.116  0.0011  0.3929  0.2213
20865SOL    HW172909   5.977   3.785   8.031  0.7762  2.1565 -0.8344
20865SOL    HW272910   6.087   3.796   8.134  0.3413  1.1593 -0.2441
20866SOL     OW72911   4.560   4.262   7.666  0.1870 -0.2680 -0.6475
20866SOL    HW172912   4.586   4.199   7.599  0.8768 -0.0157 -0.6281
20866SOL    HW272913   4.595   4.345   7.635  1.9904 -0.4216  0.8259
20867SOL     OW72914  12.185   2.166   2.339 -0.3401  0.1238  0.1656
20867SOL    HW172915  12.126   2.118   2.280 -1.1106  0.5882  0.5393
20867SOL    HW272916  12.141   2.250   2.354 -1.3358 -0.8089  3.2224
20868SOL     OW72917   8.012  12.081   8.792  0.0872  0.5040  0.4137
20868SOL    HW172918   7.964  12.052   8.870 -0.1272 -0.1739  0.0393
20868SOL    HW272919   8.029  12.000   8.744  2.7812  0.5318  1.1667
20869SOL     OW72920   3.823   0.551   3.494 -0.3893 -0.4957  0.2161
20869SOL    HW172921   3.849   0.464   3.525  1.6502  0.0358  0.1607
20869SOL    HW272922   3.866   0.559   3.409  0.6002  1.0603  0.8282
20870SOL     OW72923   2.404   2.667   5.651 -0.2656 -0.4864 -0.2676
20870SOL    HW172924   2.405   2.733   5.582  0.0635  0.1531  0.3240
20870SOL    HW272925   2.430   2.716   5.730 -0.4852 -1.2261  0.2717
20871SOL     OW72926  10.711   4.657  11.986 -0.2953 -0.3233  0.3783
20871SOL    HW172927  10.728   4.563  11.981 -2.1349 -0.8541  2.6357
20871SOL    HW272928  10.784   4.691  12.039  0.8643 -0.2702 -1.1877
20872SOL     OW72929   1.687   1.306  11.685 -0.0999  0.4194  0.6016
20872SOL    HW172930   1.728   1.239  11.630  1.1123  1.2218  0.4748
20872SOL    HW272931   1.602   1.322  11.644  0.1077 -0.1535 -0.0807
20873SOL     OW72932  10.676   3.291   0.590  0.1742 -0.4487  0.2351
20873SOL    HW172933  10.585   3.263   0.582  0.5657 -1.3701 -1.7456
20873SOL    HW272934  10.715   3.269   0.505  1.4574  2.8655 -0.1823
20874SOL     OW72935   5.168   8.571   8.454 -0.1182  0.3701  0.2482
20874SOL    HW172936   5.224   8.648   8.459  0.5135  0.0086 -0.9013
20874SOL    HW272937   5.079   8.607   8.444  0.1951  0.9678 -0.5591
20875SOL     OW72938   6.214   3.741   2.696 -0.0465 -0.0038  0.4134
20875SOL    HW172939   6.148   3.809   2.710  0.8397  0.5762  2.0319
20875SOL    HW272940   6.218   3.694   2.780  1.8876  0.2591  0.5122
20876SOL     OW72941   9.735  12.404  10.085  0.5817  0.4922 -0.2776
20876SOL    HW172942   9.659  12.443  10.043  0.6756 -0.4174 -1.3495
20876SOL    HW272943   9.778  12.476  10.131 -1.2223  0.9057  0.8171
20877SOL     OW72944   2.276  10.909  11.829 -0.3388  0.2936 -0.2385
20877SOL    HW172945   2.275  10.996  11.790 -0.7085  1.1884  1.6358
20877SOL    HW272946   2.184  10.892  11.851 -0.4920 -1.2318 -1.9048
20878SOL     OW72947   7.460   5.856   9.429  0.1416  0.2658  0.3706
20878SOL    HW172948   7.520   5.783   9.418 -0.8165 -0.5859  0.6905
20878SOL    HW272949   7.373   5.816   9.433 -0.4764  1.4865 -0.2549
20879SOL     OW72950  12.090  11.154   0.500 -0.0451 -0.4116 -0.7246
20879SOL    HW172951  12.019  11.091   0.512  0.0427 -0.4267 -0.2529
20879SOL    HW272952  12.147  11.141   0.576  1.1666 -1.2878 -1.7473
20880SOL     OW72953   9.603   9.761   0.918 -0.0315  0.1315  0.2437
20880SOL    HW172954   9.549   9.822   0.969  1.1016  2.0855 -0.7968
20880SOL    HW272955   9.611   9.802   0.832  1.3152 -1.1983 -0.3116
20881SOL     OW72956   3.821   1.910   4.935  0.6142 -0.5753 -0.4793
20881SOL    HW172957   3.753   1.946   4.992 -0.8504 -1.4894 -1.5671
20881SOL    HW272958   3.904   1.937   4.976 -0.3752  1.2820  0.4401
20882SOL     OW72959   6.504  12.691   6.975  0.0001 -0.1799  0.4113
20882SOL    HW172960   6.437  12.627   6.997  0.7320 -1.7446 -1.6188
20882SOL    HW272961   6.534  12.724   7.059  0.0169 -2.9772  1.6051
20883SOL     OW72962  11.066   9.034   6.646 -0.0273  0.4740 -0.2346
20883SOL    HW172963  11.079   8.945   6.679  1.3996  0.7418  0.0047
20883SOL    HW272964  11.042   9.023   6.554  2.4555 -0.1527 -0.8917
20884SOL     OW72965   3.420  12.572   1.734 -0.3040 -0.2628  0.0703
20884SOL    HW172966   3.511  12.556   1.710 -1.2650 -2.0274 -2.9901
20884SOL    HW272967   3.385  12.484   1.750 -1.8508  0.2059 -0.5697
20885SOL     OW72968  11.624   9.668   3.187 -0.3973 -0.3210  0.0603
20885SOL    HW172969  11.664   9.744   3.229 -1.1536  0.1062  0.0293
20885SOL    HW272970  11.596   9.700   3.101  1.3089 -1.2439 -0.8831
20886SOL     OW72971  10.765  10.708   2.098 -0.5009  0.1279 -0.1832
20886SOL    HW172972  10.856  10.679   2.106 -0.3188  1.1520  2.4660
20886SOL    HW272973  10.761  10.753   2.014  1.2447 -0.5712 -0.6816
20887SOL     OW72974   3.949   7.869  11.907  0.0732 -0.1886 -0.2963
20887SOL    HW172975   3.859   7.847  11.884  0.5230 -1.1926 -1.2027
20887SOL    HW272976   3.947   7.963  11.925 -0.5826  0.5314 -3.5102
20888SOL     OW72977   3.796   1.139   7.796  0.2834 -0.0960  0.1453
20888SOL    HW172978   3.755   1.073   7.741 -0.1470  0.7977 -0.6278
20888SOL    HW272979   3.883   1.151   7.758 -0.2688  1.0324 -0.7919
20889SOL     OW72980   3.421  12.603  12.015  0.2409  0.4688  0.1844
20889SOL    HW172981   3.424  12.581  11.922 -1.0608  2.1048 -0.2985
20889SOL    HW272982   3.504  12.648  12.032  0.1447  0.8669 -0.3888
20890SOL     OW72983   8.180  10.852   9.172 -0.4885 -0.1275 -0.4535
20890SOL    HW172984   8.175  10.947   9.188  1.6961 -0.0354 -0.0248
20890SOL    HW272985   8.113  10.815   9.229 -0.1045  1.0388  0.8130
20891SOL     OW72986   8.592   0.967   9.377  0.0402 -0.7010  0.0958
20891SOL    HW172987   8.524   1.021   9.417 -0.2093  0.2210 -1.4732
20891SOL    HW272988   8.544   0.900   9.328 -0.0237  1.5025 -3.2362
20892SOL     OW72989   9.261   3.553   5.680 -0.1359 -0.0390  0.6729
20892SOL    HW172990   9.267   3.514   5.767 -1.8783  0.1850  0.9204
20892SOL    HW272991   9.313   3.495   5.625  2.6580  0.8628  2.1488
20893SOL     OW72992   1.197   9.752  10.904 -0.1150 -0.5985  0.1031
20893SOL    HW172993   1.146   9.766  10.824 -0.2433  0.2460  0.3257
20893SOL    HW272994   1.254   9.678  10.883 -1.0124 -1.1810 -0.3514
20894SOL     OW72995  12.118   1.439  10.016  0.4044 -0.4030  0.3715
20894SOL    HW172996  12.058   1.401   9.952 -0.2333  0.9902  0.0956
20894SOL    HW272997  12.142   1.366  10.073 -1.5908 -1.0159  0.5119
20895SOL     OW72998   2.542   0.878   2.529 -0.4265 -0.3957  0.5029
20895SOL    HW172999   2.455   0.874   2.491 -0.4161  1.6328  0.1795
20895SOL    HW273000   2.574   0.966   2.508  0.2673  0.2356  3.6571
20896SOL     OW73001   3.813  11.801   1.759 -0.1491 -0.1450 -0.1449
20896SOL    HW173002   3.901  11.781   1.792 -0.1457  1.4474  0.9146
20896SOL    HW273003   3.774  11.715   1.743  0.2103 -1.0747  3.1229
20897SOL     OW73004  10.060   4.891   5.170 -0.4296 -0.0239  0.5097
20897SOL    HW173005   9.999   4.819   5.152 -0.5799  0.3129 -0.3521
20897SOL    HW273006  10.038   4.958   5.106  1.8223 -0.4770 -0.8264
20898SOL     OW73007  11.669   9.854   5.545 -0.3305 -0.0331 -0.4441
20898SOL    HW173008  11.586   9.901   5.539 -1.3486 -1.5843  0.6712
20898SOL    HW273009  11.705   9.857   5.456 -2.0198 -0.0824 -1.1710
20899SOL     OW73010   9.327   8.552   9.538  0.3478  0.0939  0.2144
20899SOL    HW173011   9.256   8.521   9.594  1.0844  0.7938  1.5622
20899SOL    HW273012   9.310   8.646   9.529  1.8605  0.5572  1.7337
20900SOL     OW73013   8.085   5.489   7.047 -0.0645  0.2202  0.0210
20900SOL    HW173014   8.164   5.470   6.997  0.5855  0.6545  0.8741
20900SOL    HW273015   8.035   5.407   7.044  0.3554 -0.0204 -0.6196
20901SOL     OW73016  12.318   9.657   7.837  0.0700  0.5068 -0.3356
20901SOL    HW173017  12.386   9.714   7.873 -0.8559  1.8779 -0.7011
20901SOL    HW273018  12.260   9.639   7.912  0.8518 -0.7562  0.0041
20902SOL     OW73019  10.294   5.801   3.725 -0.0071 -0.2254  0.2056
20902SOL    HW173020  10.216   5.756   3.758  0.8657 -1.7328  0.3013
20902SOL    HW273021  10.330   5.741   3.660 -0.7631  1.9510 -2.3760
20903SOL     OW73022   0.584   1.702   4.351  0.8272  0.2080  0.0443
20903SOL    HW173023   0.621   1.697   4.440  1.9627 -2.1618 -0.4782
20903SOL    HW273024   0.623   1.781   4.314  0.1465  1.3863  1.6794
20904SOL     OW73025   9.241   9.965   3.795 -0.0618 -0.9786  0.7320
20904SOL    HW173026   9.200  10.048   3.819 -0.1653 -0.3240 -1.4466
20904SOL    HW273027   9.330   9.988   3.770 -0.5011 -1.2064 -1.2751
20905SOL     OW73028   1.147  11.342   9.880  0.4979  0.2970  0.5272
20905SOL    HW173029   1.158  11.320   9.788 -1.8401  1.6144 -0.1335
20905SOL    HW273030   1.052  11.344   9.893  0.6931  2.7603  2.2791
20906SOL     OW73031   3.547   2.254   3.829 -0.1500 -0.0241 -0.2273
20906SOL    HW173032   3.622   2.198   3.810  0.8378  0.3859  2.1092
20906SOL    HW273033   3.577   2.313   3.899 -1.7663  2.1066 -1.1899
20907SOL     OW73034   9.310   9.009   8.338  0.2068  0.1445 -0.1968
20907SOL    HW173035   9.377   9.063   8.380 -0.3970  0.4486  0.3945
20907SOL    HW273036   9.245   8.994   8.407  0.3120 -1.2530 -0.3797
20908SOL     OW73037   0.974   6.460   8.098 -0.3393 -0.0556  0.6611
20908SOL    HW173038   1.033   6.497   8.164 -0.5125  1.6168 -0.0692
20908SOL    HW273039   0.990   6.366   8.102  0.6580  0.1372  2.1171
20909SOL     OW73040   2.800   2.629   7.342 -0.3236 -0.2524 -0.4606
20909SOL    HW173041   2.843   2.545   7.325  0.6564  0.5666 -2.3723
20909SOL    HW273042   2.861   2.676   7.398 -1.0590 -0.9217  0.9537
20910SOL     OW73043  10.282   3.647   7.818 -0.5239  0.2937 -0.3576
20910SOL    HW173044  10.220   3.585   7.857 -1.1930 -0.2852 -2.2105
20910SOL    HW273045  10.343   3.668   7.888 -2.7612  0.8385  1.5746
20911SOL     OW73046  12.135  11.042   4.526  0.7775 -0.0943 -0.3762
20911SOL    HW173047  12.206  11.034   4.462  1.3679  0.0755  0.2408
20911SOL    HW273048  12.068  11.094   4.482  2.7608  3.4281  0.4151
20912SOL     OW73049   0.532  11.439   1.099 -0.4343 -0.2168  0.2058
20912SOL    HW173050   0.522  11.346   1.079  0.6975 -0.6737  1.6114
20912SOL    HW273051   0.614  11.464   1.057  0.0201 -0.2542  1.0347
20913SOL     OW73052  10.920   4.713   4.809  0.3549 -0.4314  0.2775
20913SOL    HW173053  11.003   4.754   4.833  0.3479 -0.1999 -0.0859
20913SOL    HW273054  10.891   4.668   4.889  0.1364  0.6515  0.8245
20914SOL     OW73055   5.606  11.257   3.718 -0.4145  0.0333 -0.3009
20914SOL    HW173056   5.670  11.290   3.782  1.6234 -1.4679 -1.4515
20914SOL    HW273057   5.550  11.332   3.700  0.9783  1.4200  0.8062
20915SOL     OW73058   2.422   9.508   5.121 -0.0991 -0.0989  0.0777
20915SOL    HW173059   2.488   9.546   5.062 -1.2056  0.6554 -0.7164
20915SOL    HW273060   2.342   9.557   5.102 -1.4075 -2.2765 -0.3976
20916SOL     OW73061  11.871   9.934   6.476  0.5006  0.0327  0.2459
20916SOL    HW173062  11.855   9.969   6.563 -3.0747 -0.2349 -0.1348
20916SOL    HW273063  11.888   9.840   6.490 -1.0559 -0.2123  0.6429
20917SOL     OW73064  12.762  12.554   7.361  0.3073  0.3832  0.3552
20917SOL    HW173065  12.699  12.510   7.304  0.2930  1.2475 -0.3063
20917SOL    HW273066  12.742  12.520   7.449  0.8909 -1.6123 -0.2261
20918SOL     OW73067   0.282  11.679  12.883  0.0172 -0.1347  0.3125
20918SOL    HW173068   0.298  11.610  12.818  2.3818  0.2607  0.3930
20918SOL    HW273069   0.209  11.645  12.935 -0.9619 -1.1280 -1.5881
20919SOL     OW73070   3.760   2.155   8.207  0.3105  0.2882 -0.3087
20919SOL    HW173071   3.802   2.202   8.135 -1.4126  0.7342 -1.0637
20919SOL    HW273072   3.820   2.166   8.281 -0.1867  4.1238 -0.2759
20920SOL     OW73073  10.558   4.833   4.337  0.0372 -0.1179  0.8723
20920SOL    HW173074  10.617   4.881   4.396  2.3576  0.5837 -1.7625
20920SOL    HW273075  10.470   4.860   4.363  1.0772  2.2111  2.2876
20921SOL     OW73076   9.679   9.581  12.220 -0.2549  0.2309  0.2423
20921SOL    HW173077   9.743   9.646  12.248 -0.8566  0.7475  0.4597
20921SOL    HW273078   9.601   9.601  12.272 -0.2795 -1.0240  0.7204
20922SOL     OW73079   2.083   0.865   6.113  0.1632 -0.3679 -0.2576
20922SOL    HW173080   1.999   0.818   6.114  0.4529 -0.8806  0.5520
20922SOL    HW273081   2.059   0.957   6.109 -0.4372 -0.5176 -0.1879
20923SOL     OW73082   7.171   8.507   5.661 -0.3985  0.2011 -0.8950
20923SOL    HW173083   7.169   8.412   5.666 -1.8891  0.1495 -1.7758
20923SOL    HW273084   7.146   8.527   5.570 -1.2583  1.4451 -0.4137
20924SOL     OW73085  10.651   7.538   2.450  0.2260 -0.3007  0.0867
20924SOL    HW173086  10.584   7.548   2.382  0.1517 -1.4861 -0.0361
20924SOL    HW273087  10.710   7.612   2.436  0.1339 -0.4392 -1.1833
20925SOL     OW73088   3.130  10.436   7.864 -0.1569  0.1873  0.2853
20925SOL    HW173089   3.158  10.410   7.952 -0.3344  1.6371  0.7953
20925SOL    HW273090   3.200  10.493   7.832 -1.5995  2.4484  0.8879
20926SOL     OW73091   9.842   9.915   6.179 -0.0450  0.6524  0.2797
20926SOL    HW173092   9.827   9.964   6.260  0.8664  1.8382 -0.2221
20926SOL    HW273093   9.926   9.872   6.192 -0.4129 -0.0469  0.3674
20927SOL     OW73094   4.898   5.610   4.274 -0.1547  0.4358  0.3603
20927SOL    HW173095   4.977   5.605   4.328  0.8371 -0.3716 -1.0826
20927SOL    HW273096   4.850   5.530   4.295  0.1102  0.2406  0.2297
20928SOL     OW73097   6.352  11.155   0.198  0.2800 -0.0440 -0.3935
20928SOL    HW173098   6.352  11.066   0.165  0.3853  0.0129 -0.5506
20928SOL    HW273099   6.404  11.204   0.134 -0.5574  0.3143 -0.8178
20929SOL     OW73100   9.398   0.310  12.093 -0.3351  0.1486  0.1516
20929SOL    HW173101   9.449   0.344  12.018  1.0788  0.1315  1.0652
20929SOL    HW273102   9.357   0.388  12.130  2.2682  0.8943  1.7657
20930SOL     OW73103   2.890   1.393   9.964 -0.1453 -0.3513  0.4787
20930SOL    HW173104   2.899   1.352  10.050 -1.7745 -1.0431  0.3605
20930SOL    HW273105   2.825   1.339   9.918 -0.7896  1.1350 -0.4553
20931SOL     OW73106  12.637   8.867   0.860 -0.1497  0.5376  0.1801
20931SOL    HW173107  12.638   8.962   0.845 -1.4822  0.3253 -1.5118
20931SOL    HW273108  12.554   8.851   0.905 -0.3765  0.0677 -0.3984
20932SOL     OW73109  11.939   3.653  10.696 -0.0299 -0.1670 -0.0823
20932SOL    HW173110  11.864   3.713  10.695  0.4548  0.4406 -0.7262
20932SOL    HW273111  11.972   3.658  10.786 -0.0467  0.4755 -0.1089
20933SOL     OW73112  12.581  12.349   9.845  0.2857 -0.5364 -0.6122
20933SOL    HW173113  12.497  12.370   9.804  0.3345  0.0810 -0.3987
20933SOL    HW273114  12.563  12.351   9.939  1.0942  2.1459 -0.4391
20934SOL     OW73115   4.006   7.550   4.845  0.1789  0.1538  0.1586
20934SOL    HW173116   3.942   7.600   4.794  0.2356  0.6605  0.5790
20934SOL    HW273117   3.961   7.530   4.927 -0.3576 -1.7267 -0.5375
20935SOL     OW73118   2.013   6.641   5.897 -0.1792 -0.2915 -0.4761
20935SOL    HW173119   2.054   6.710   5.844  0.0953 -1.8619 -2.4283
20935SOL    HW273120   1.922   6.639   5.866 -0.2741 -0.5776 -0.1797
20936SOL     OW73121   0.640   2.988   0.994 -0.5034  0.9874  0.0907
20936SOL    HW173122   0.623   2.899   1.025  1.6629  0.2986 -0.5667
20936SOL    HW273123   0.661   3.037   1.074  1.6650  0.0435  0.1669
20937SOL     OW73124   3.701   9.946  10.714 -0.5444 -0.3662  0.5504
20937SOL    HW173125   3.707  10.031  10.758  0.1820 -0.3667  0.4646
20937SOL    HW273126   3.791   9.926  10.689 -0.5662 -1.6084  1.4053
20938SOL     OW73127   4.694   5.314   5.682  0.4138 -0.0499  0.2767
20938SOL    HW173128   4.696   5.219   5.688  1.2013 -0.1564 -1.0387
20938SOL    HW273129   4.643   5.332   5.603 -0.5676  0.6759  1.0526
20939SOL     OW73130   6.966   9.769  11.153  0.0648 -0.2151 -0.0054
20939SOL    HW173131   7.024   9.736  11.221 -1.7846  0.5687  2.0724
20939SOL    HW273132   6.987   9.716  11.076  3.1217 -0.2800  0.7384
20940SOL     OW73133   7.571   3.007   5.426 -0.5112 -0.0976  0.3552
20940SOL    HW173134   7.659   3.040   5.441 -0.4083 -0.0308 -0.3498
20940SOL    HW273135   7.580   2.946   5.352 -1.3901  1.5605 -1.2121
20941SOL     OW73136  12.792   1.554  10.152  0.5920 -0.2769 -0.2151
20941SOL    HW173137  12.791   1.633  10.098  1.4486 -1.4908 -2.0995
20941SOL    HW273138  12.872   1.561  10.204 -0.3957  1.0488  1.2124
20942SOL     OW73139   4.975   9.311   0.343 -0.0261  0.6327 -0.6962
20942SOL    HW173140   4.956   9.378   0.409 -2.4671  0.1495 -0.8257
20942SOL    HW273141   4.987   9.360   0.261  0.1742  1.0285 -0.4334
20943SOL     OW73142  10.474   1.122  10.496  0.3447  0.2685 -0.2105
20943SOL    HW173143  10.444   1.072  10.571 -1.3006 -0.5036 -1.3082
20943SOL    HW273144  10.539   1.183  10.531  0.9558 -1.2869  1.4862
20944SOL     OW73145   5.497   0.004  10.344 -0.6626 -0.1610 -0.2353
20944SOL    HW173146   5.492   0.099  10.355  1.4648  0.0077 -0.1919
20944SOL    HW273147   5.410  -0.027  10.367 -0.8963  1.6075  1.6965
20945SOL     OW73148   8.885   8.096   4.241  0.4891 -0.5630  0.6545
20945SOL    HW173149   8.885   8.187   4.270  2.8601 -0.0451 -0.7030
20945SOL    HW273150   8.951   8.053   4.296  1.2275 -0.8027 -0.3703
20946SOL     OW73151  10.500   7.893   8.358  0.0453  0.5453 -0.4757
20946SOL    HW173152  10.433   7.838   8.399  0.6851  0.0622 -0.0648
20946SOL    HW273153  10.474   7.899   8.266  0.0734 -0.6165 -0.5733
20947SOL     OW73154  12.482   7.838  10.328 -0.3214  0.3573 -0.2167
20947SOL    HW173155  12.513   7.854  10.417  0.6568  0.3345 -0.5429
20947SOL    HW273156  12.387   7.843  10.335 -0.3641 -1.4905  1.1921
20948SOL     OW73157  12.801   9.222  10.025 -0.6630  0.5632 -0.6266
20948SOL    HW173158  12.885   9.267  10.013 -1.0835  1.2174 -1.2733
20948SOL    HW273159  12.814   9.165  10.101  0.5043  0.3008 -1.0043
20949SOL     OW73160  11.180   6.885   7.401  0.0146 -0.0387 -0.0989
20949SOL    HW173161  11.155   6.913   7.313 -0.6338  0.6021  0.2822
20949SOL    HW273162  11.151   6.794   7.407 -1.6956  0.4795  0.0982
20950SOL     OW73163   8.601  10.295   5.509  0.0423  0.3864  0.1926
20950SOL    HW173164   8.587  10.344   5.427  0.3793 -0.5958 -0.4718
20950SOL    HW273165   8.606  10.204   5.481  1.4851  0.1503  1.1410
20951SOL     OW73166  10.662   8.978   4.641  0.0435 -0.2009  0.0216
20951SOL    HW173167  10.687   8.975   4.548  0.4958  0.1009  0.1271
20951SOL    HW273168  10.572   9.010   4.641  0.3747  0.7909 -0.2712
20952SOL     OW73169  12.726   5.012   7.463  0.3930  0.1925  0.2494
20952SOL    HW173170  12.690   5.098   7.443  0.2953 -0.2477 -1.7405
20952SOL    HW273171  12.814   5.030   7.496  1.0795  1.0695 -1.8474
20953SOL     OW73172   8.804   1.246   5.000 -0.2928 -0.3569  0.1116
20953SOL    HW173173   8.885   1.200   5.022 -0.3256 -0.6812 -0.4254
20953SOL    HW273174   8.758   1.255   5.083  1.0736  1.3899  0.7485
20954SOL     OW73175  12.455   5.578  11.378 -0.1251 -0.2039 -0.3796
20954SOL    HW173176  12.491   5.492  11.356  0.3156  0.2371 -1.4319
20954SOL    HW273177  12.362   5.562  11.390 -0.1176 -0.7596 -0.9779
20955SOL     OW73178  12.084   3.074  11.790 -0.2296 -0.2932 -0.5489
20955SOL    HW173179  12.171   3.079  11.752 -0.8166 -1.9965 -2.2424
20955SOL    HW273180  12.084   2.993  11.841 -0.8645 -0.3811 -0.6776
20956SOL     OW73181   6.641   8.948  12.495  0.1965 -0.0394  0.2984
20956SOL    HW173182   6.551   8.979  12.490  0.1953 -0.0989 -0.0571
20956SOL    HW273183   6.640   8.885  12.567  0.1717  0.6758  0.9374
20957SOL     OW73184   6.230   1.487   5.730 -0.0804  0.1787 -0.2247
20957SOL    HW173185   6.302   1.455   5.785  1.3464  0.0398 -2.0727
20957SOL    HW273186   6.188   1.408   5.696  0.8800  0.2131 -1.5730
20958SOL     OW73187   2.934   9.854  10.444  0.0256 -0.1666 -0.3002
20958SOL    HW173188   3.026   9.873  10.426  0.0542  0.1960  0.2236
20958SOL    HW273189   2.923   9.872  10.537 -0.6643  0.1485 -0.4334
20959SOL     OW73190   1.502  10.772   0.366 -0.2520  0.4411 -0.3636
20959SOL    HW173191   1.576  10.788   0.424 -0.8969 -0.1932  0.6733
20959SOL    HW273192   1.497  10.849   0.310 -0.5679  1.8019  1.4770
20960SOL     OW73193  12.547   0.314  11.078  0.7470  0.2068  0.3165
20960SOL    HW173194  12.508   0.250  11.138  0.1753  2.0025  1.9675
20960SOL    HW273195  12.502   0.301  10.995 -0.9001 -0.1010  1.2256
20961SOL     OW73196   9.933   6.664   8.951 -0.4720 -0.6609  0.2350
20961SOL    HW173197   9.995   6.725   8.911 -1.0428 -0.3205 -0.1311
20961SOL    HW273198   9.869   6.720   8.995 -1.2377 -0.9839 -0.4526
20962SOL     OW73199   2.579   9.410   3.071  0.0047 -0.5479  0.8011
20962SOL    HW173200   2.597   9.328   3.119 -0.0422 -0.3411  1.1749
20962SOL    HW273201   2.636   9.405   2.994  0.4180 -0.6793  1.1092
20963SOL     OW73202  12.201   1.582   1.967 -0.0034 -0.0324 -0.5764
20963SOL    HW173203  12.176   1.508   2.022  1.6706 -2.6197 -3.0154
20963SOL    HW273204  12.120   1.607   1.922 -0.7931  0.3285  0.9919
20964SOL     OW73205   1.728   4.047   4.185 -0.5000 -0.0521  0.4357
20964SOL    HW173206   1.778   4.030   4.105  0.0688 -1.1425  1.0049
20964SOL    HW273207   1.750   4.137   4.208 -1.4904  0.6562 -1.1847
20965SOL     OW73208   4.626   6.944   0.506 -0.1306 -0.3916 -0.2435
20965SOL    HW173209   4.613   6.994   0.425  0.3869  0.4500  0.1746
20965SOL    HW273210   4.677   7.003   0.562 -1.5297 -0.4716  1.1703
20966SOL     OW73211   4.593   7.421   4.695  0.6571  0.3118 -0.3034
20966SOL    HW173212   4.649   7.438   4.619 -0.1916  0.8896 -0.8230
20966SOL    HW273213   4.511   7.465   4.674 -0.1062 -0.7829  0.2966
20967SOL     OW73214   8.823   7.635   9.564  0.2717 -0.1963 -0.4072
20967SOL    HW173215   8.801   7.675   9.649 -1.8227 -1.4604 -0.2870
20967SOL    HW273216   8.742   7.640   9.514  0.7270 -1.8646 -1.3717
20968SOL     OW73217   9.498   7.911   2.426  0.8110  0.0579  0.2268
20968SOL    HW173218   9.589   7.940   2.435  1.1644 -1.0307  0.3675
20968SOL    HW273219   9.446   7.982   2.462  1.6334  0.5606  0.4426
20969SOL     OW73220   7.135   2.396   0.837 -0.2369 -0.3729 -0.2490
20969SOL    HW173221   7.060   2.410   0.780 -0.2467 -2.2643 -0.7702
20969SOL    HW273222   7.098   2.385   0.924 -0.3014  1.5221 -0.0033
20970SOL     OW73223   0.641   1.176  12.810  0.1202 -0.0185 -0.2841
20970SOL    HW173224   0.691   1.197  12.730 -2.6678  2.2262 -1.6262
20970SOL    HW273225   0.659   1.249  12.869 -0.1445 -0.1354 -0.0563
20971SOL     OW73226  11.360   1.755   6.344 -0.4864  0.3331  0.3363
20971SOL    HW173227  11.387   1.836   6.386 -0.3355  1.0094 -0.9930
20971SOL    HW273228  11.364   1.775   6.250 -1.6903 -0.8181  0.0190
20972SOL     OW73229   9.807   2.724   1.045  0.5988 -0.2876  0.0329
20972SOL    HW173230   9.780   2.814   1.028  0.5790 -0.0082  1.4222
20972SOL    HW273231   9.726   2.674   1.044  0.5265 -0.1681 -0.0431
20973SOL     OW73232   3.488  11.986   5.407 -0.0768 -0.4492 -0.0445
20973SOL    HW173233   3.507  11.904   5.362 -0.8246 -0.8214  0.2903
20973SOL    HW273234   3.515  12.055   5.346 -0.2644 -0.9447 -0.6979
20974SOL     OW73235   7.928   9.439   6.298  0.4948  0.1711  0.3436
20974SOL    HW173236   7.844   9.475   6.268  1.1899  1.1154 -0.5326
20974SOL    HW273237   7.908   9.348   6.320 -0.7069  0.3090 -0.0805
20975SOL     OW73238   0.484   1.896  10.754  0.1586 -0.2451  0.0112
20975SOL    HW173239   0.493   1.842  10.832 -1.8025 -0.8147 -0.0980
20975SOL    HW273240   0.516   1.982  10.780  0.1083 -0.5813  1.2517
20976SOL     OW73241   0.025   2.747   4.286 -0.0530  0.2767  0.2656
20976SOL    HW173242   0.042   2.836   4.253  0.8590 -0.0065 -0.0651
20976SOL    HW273243   0.012   2.694   4.207 -3.0819  0.5256  0.4661
20977SOL     OW73244   1.402   9.802   7.246  0.6297 -0.2798 -0.0300
20977SOL    HW173245   1.438   9.866   7.184 -0.5866 -0.1034 -0.5782
20977SOL    HW273246   1.388   9.852   7.326  1.4517 -0.3197  0.1499
20978SOL     OW73247   7.520   7.378   0.607 -0.1393  0.2926  0.1669
20978SOL    HW173248   7.573   7.413   0.679 -0.9516 -1.0922  1.5219
20978SOL    HW273249   7.550   7.287   0.599 -1.1541 -0.0148 -0.1687
20979SOL     OW73250   3.255   1.541   8.131  0.4227 -0.2245 -0.0904
20979SOL    HW173251   3.194   1.537   8.058  1.8166 -0.3545 -1.2944
20979SOL    HW273252   3.222   1.612   8.186 -0.4500  0.1292 -1.0406
20980SOL     OW73253  10.511  11.719   9.389 -0.8746 -0.2646  0.0790
20980SOL    HW173254  10.564  11.701   9.312 -0.4898 -0.3599  0.3597
20980SOL    HW273255  10.434  11.662   9.379 -1.3766  0.5391 -0.7808
20981SOL     OW73256   2.369   6.594   8.758 -0.0588 -0.2946  0.2700
20981SOL    HW173257   2.451   6.560   8.793  0.7814  0.1213 -1.2148
20981SOL    HW273258   2.302   6.562   8.819  1.0371 -1.8218  0.7473
20982SOL     OW73259   1.619   1.740  11.451 -0.3135  0.7992  0.1012
20982SOL    HW173260   1.526   1.730  11.473 -0.6926 -1.6697 -2.1664
20982SOL    HW273261   1.620   1.795  11.373  0.1515  0.9009  0.1748
20983SOL     OW73262  11.019   2.215   9.243  0.1387  0.0729  0.3389
20983SOL    HW173263  10.953   2.220   9.313 -1.5665  1.2384 -1.2788
20983SOL    HW273264  11.006   2.128   9.205 -1.5330  0.8273 -0.9123
20984SOL     OW73265   2.218   7.563   6.799  0.4010  0.2749 -0.1190
20984SOL    HW173266   2.168   7.548   6.879  2.6038 -0.0453  1.2614
20984SOL    HW273267   2.155   7.604   6.740 -1.2785  0.6029  1.7724
20985SOL     OW73268   1.363   2.271  10.911  0.4575 -0.0952 -0.4471
20985SOL    HW173269   1.449   2.229  10.909  0.0027 -1.2234  1.3604
20985SOL    HW273270   1.314   2.222  10.977 -1.1554  1.3432 -0.5097
20986SOL     OW73271   7.365   8.430  12.700  0.3871 -0.0911  0.6082
20986SOL    HW173272   7.368   8.384  12.784  1.0833  1.4523  1.4603
20986SOL    HW273273   7.439   8.490  12.702 -0.4677  1.0682 -0.4738
20987SOL     OW73274   1.045   4.502  11.981 -0.0806  0.9496 -0.6298
20987SOL    HW173275   1.136   4.518  11.954  0.4276 -0.9663 -0.2271
20987SOL    HW273276   1.039   4.407  11.987 -1.9700  1.0716 -0.0708
20988SOL     OW73277   7.722   5.544   4.917 -0.4357  0.5291 -0.1507
20988SOL    HW173278   7.676   5.470   4.957  0.2611 -1.8641 -3.3773
20988SOL    HW273279   7.775   5.580   4.988 -2.0661 -0.9632  1.9596
20989SOL     OW73280   0.851   0.041   3.857 -0.5300  0.0808  0.2177
20989SOL    HW173281   0.843   0.023   3.951 -0.8062  0.5345  0.2835
20989SOL    HW273282   0.894   0.126   3.853  0.3313 -0.3555 -0.0851
20990SOL     OW73283   3.614  10.126   4.089  0.4741 -0.0785 -0.2547
20990SOL    HW173284   3.629  10.190   4.020  0.4904  0.6236  0.3853
20990SOL    HW273285   3.701  10.111   4.128  0.3445  0.1224  0.1198
20991SOL     OW73286   6.768   8.328   7.289  0.3150 -0.1917 -0.1810
20991SOL    HW173287   6.804   8.410   7.255  2.1324 -0.1905  1.5551
20991SOL    HW273288   6.675   8.345   7.301  0.3640  1.0670 -1.3613
20992SOL     OW73289  10.223   4.784   6.220 -0.2093 -0.1407 -0.3509
20992SOL    HW173290  10.235   4.727   6.144  2.5176  0.1144 -0.2121
20992SOL    HW273291  10.257   4.733   6.294  0.9886  1.1286  0.0036
20993SOL     OW73292   3.315   5.966   6.362  0.3520 -0.9636  0.0989
20993SOL    HW173293   3.244   5.914   6.325  0.7108 -1.4570  0.0941
20993SOL    HW273294   3.385   5.962   6.297  0.1622  0.0570 -0.1934
20994SOL     OW73295   0.343   8.284  11.289 -0.0087  0.0817 -1.1304
20994SOL    HW173296   0.282   8.211  11.298 -1.6246  1.2418 -2.1646
20994SOL    HW273297   0.363   8.310  11.379  0.6694 -1.6587 -0.7485
20995SOL     OW73298  12.982   1.293  12.765 -0.3933  0.1736  0.3607
20995SOL    HW173299  12.994   1.264  12.675 -0.7546  0.9303  0.0571
20995SOL    HW273300  12.927   1.225  12.805 -0.8014  0.1735 -0.1864
20996SOL     OW73301   1.175   5.685   4.051 -0.1228  0.8705 -0.2812
20996SOL    HW173302   1.083   5.658   4.059 -0.1899  0.7845 -1.2893
20996SOL    HW273303   1.224   5.603   4.051 -0.0511  0.9099  0.0837
20997SOL     OW73304   0.180   1.473  11.755 -0.1822 -0.0693  0.2135
20997SOL    HW173305   0.251   1.509  11.704  0.6125  0.8587  1.8961
20997SOL    HW273306   0.110   1.456  11.691  1.2328 -0.2714 -1.3435
20998SOL     OW73307   0.112  11.082   1.696  0.4493  0.2277 -0.1180
20998SOL    HW173308   0.201  11.091   1.729  0.2741  2.1304 -0.0524
20998SOL    HW273309   0.058  11.077   1.775  0.5326 -1.9817 -0.1423
20999SOL     OW73310   0.264   4.277   1.031 -0.2636  0.1361 -0.3203
20999SOL    HW173311   0.201   4.340   0.996 -0.5881  0.8934  1.4880
20999SOL    HW273312   0.235   4.262   1.121  0.8144 -1.2901 -0.1836
21000SOL     OW73313   7.223   3.098   7.904  0.0294 -0.0781  0.3346
21000SOL    HW173314   7.176   3.060   7.829 -1.8388  2.9453 -0.1920
21000SOL    HW273315   7.281   3.164   7.866 -2.2367  2.7831  1.4607
21001SOL     OW73316   2.904   5.353   2.884  0.3783 -0.3101  0.0661
21001SOL    HW173317   2.839   5.364   2.954  0.6906 -1.3103  0.5254
21001SOL    HW273318   2.857   5.375   2.804  0.4529  2.5569  0.6927
21002SOL     OW73319   3.070   2.195   8.412  0.0588  0.1918  0.2270
21002SOL    HW173320   3.064   2.101   8.428 -1.4786 -0.3520 -2.8053
21002SOL    HW273321   3.164   2.214   8.413  0.3464 -1.1627  1.8180
21003SOL     OW73322   8.044   6.820   3.022 -0.3192 -0.4693  0.6947
21003SOL    HW173323   8.128   6.781   3.049 -0.1151  0.1199  0.9300
21003SOL    HW273324   8.063   6.913   3.011  0.0307 -0.8373 -3.1559
21004SOL     OW73325  10.127   2.222  11.153  0.1974 -0.0444  0.3024
21004SOL    HW173326  10.070   2.174  11.213  0.1540 -1.9014 -1.1266
21004SOL    HW273327  10.128   2.311  11.187 -0.8098 -0.7370  2.3188
21005SOL     OW73328   0.087   0.393   5.951 -0.0205 -0.0118  0.3110
21005SOL    HW173329   0.092   0.448   6.029 -1.2074 -0.7754  0.9596
21005SOL    HW273330   0.102   0.453   5.878  0.8458  0.7628  1.1001
21006SOL     OW73331   7.820   3.669   4.062  0.2288 -0.6460 -0.2115
21006SOL    HW173332   7.796   3.679   3.970 -0.0990 -2.4307 -0.3571
21006SOL    HW273333   7.914   3.681   4.064  0.1447  0.1271 -0.6556
21007SOL     OW73334   0.120  12.659   6.530  0.1928  0.2096  0.0763
21007SOL    HW173335   0.136  12.689   6.620  0.8406 -0.9559  0.3809
21007SOL    HW273336   0.040  12.606   6.538 -0.1120  0.6354 -0.1611
21008SOL     OW73337   0.512   2.582  11.984 -0.1530 -0.1563  0.1807
21008SOL    HW173338   0.461   2.588  11.903 -0.1441  0.5970  0.2253
21008SOL    HW273339   0.585   2.642  11.971  1.5157 -2.1994 -0.4246
21009SOL     OW73340   5.227   0.657  10.144  0.2515 -0.0574  0.3616
21009SOL    HW173341   5.228   0.562  10.136  1.5605 -0.3736  3.2470
21009SOL    HW273342   5.161   0.685  10.080 -0.7654 -2.9371 -0.0069
21010SOL     OW73343   5.228   7.717   2.248  0.5313  0.0648  0.0708
21010SOL    HW173344   5.249   7.810   2.237  2.2255  0.1362  2.9043
21010SOL    HW273345   5.170   7.714   2.324  0.3547 -1.2018 -0.0888
21011SOL     OW73346   4.250   0.203   7.042 -0.2175  0.1019 -0.5366
21011SOL    HW173347   4.222   0.135   7.103 -3.2750  1.0567 -0.7097
21011SOL    HW273348   4.238   0.165   6.955 -0.2190  0.2657 -0.6090
21012SOL     OW73349   8.308  12.862  11.251 -0.3238 -0.2357  0.5616
21012SOL    HW173350   8.257  12.941  11.234 -0.5199  0.2559  3.0212
21012SOL    HW273351   8.400  12.890  11.248 -0.3819  0.0087  0.9915
21013SOL     OW73352   8.739  11.713   9.457  0.4961 -0.3989 -0.0444
21013SOL    HW173353   8.739  11.719   9.362 -1.3286 -0.9717 -0.1172
21013SOL    HW273354   8.810  11.652   9.478  0.4512 -0.8206 -1.0753
21014SOL     OW73355   9.211   3.188   8.069  0.1258 -0.7082  0.2985
21014SOL    HW173356   9.160   3.168   7.991  0.1844  0.1910  0.0229
21014SOL    HW273357   9.299   3.154   8.049 -0.0140 -1.0362  0.2295
21015SOL     OW73358   6.456   8.302   9.247 -0.5392  0.2592 -0.5471
21015SOL    HW173359   6.416   8.353   9.318 -0.7485 -0.8547  0.1722
21015SOL    HW273360   6.482   8.220   9.289  0.3681  0.0241 -1.5301
21016SOL     OW73361   4.249   4.335   4.363 -0.2138 -0.2832 -0.9583
21016SOL    HW173362   4.344   4.351   4.358  0.0026 -1.7650 -2.2845
21016SOL    HW273363   4.210   4.416   4.332  0.6262  0.2128 -0.7644
21017SOL     OW73364   4.161   0.911   5.729 -0.0948 -0.1699  0.0504
21017SOL    HW173365   4.091   0.866   5.683  1.5705 -3.1230  0.1840
21017SOL    HW273366   4.183   0.985   5.672 -1.9288 -0.3427 -0.9528
21018SOL     OW73367   2.966  11.239   9.526 -0.0680  0.4990  0.1970
21018SOL    HW173368   2.896  11.176   9.511  0.1248  0.6586 -1.6268
21018SOL    HW273369   2.948  11.310   9.464  0.5878  1.4943  1.1185
21019SOL     OW73370   2.157  11.019   3.161 -0.5637  0.2211 -0.5704
21019SOL    HW173371   2.226  10.983   3.105 -1.0571  0.0597 -1.0790
21019SOL    HW273372   2.133  10.946   3.219  0.3094  0.5403  0.2223
21020SOL     OW73373   4.920   3.435   6.844 -0.2670  0.0727 -0.3487
21020SOL    HW173374   5.002   3.480   6.824 -0.8099  1.0669 -0.3661
21020SOL    HW273375   4.926   3.412   6.937  0.6994 -1.3025 -0.7145
21021SOL     OW73376   9.543   0.319   2.912 -0.4125 -0.1152  0.4280
21021SOL    HW173377   9.548   0.352   2.822 -0.9878  0.4182  0.5862
21021SOL    HW273378   9.473   0.371   2.952 -0.6260 -0.8281  0.9817
21022SOL     OW73379   3.434   7.173  11.935 -0.0662  0.9664 -0.0826
21022SOL    HW173380   3.498   7.188  11.865 -0.2609  0.4131 -0.3839
21022SOL    HW273381   3.378   7.102  11.902 -0.3762  0.9365  0.4902
21023SOL     OW73382   6.768   8.900   2.233  0.2120 -0.4970  0.6353
21023SOL    HW173383   6.714   8.841   2.286 -0.0652 -0.6069  0.2325
21023SOL    HW273384   6.816   8.841   2.174  1.7397 -0.5264  1.8140
21024SOL     OW73385   3.581   3.326   9.565 -0.0940  0.2539 -0.2455
21024SOL    HW173386   3.618   3.239   9.548  0.9258  0.4629  0.7774
21024SOL    HW273387   3.642   3.367   9.626 -1.2681  1.2011  0.3379
21025SOL     OW73388   5.732   1.116   1.071 -0.5881 -0.0847 -0.5994
21025SOL    HW173389   5.731   1.160   1.155  0.5967  1.9288 -1.5778
21025SOL    HW273390   5.645   1.077   1.064 -0.1091 -2.0006  2.3358
21026SOL     OW73391   2.430   9.805   4.035 -0.1027  0.0517  0.3739
21026SOL    HW173392   2.418   9.828   4.126  2.2178  0.7959  0.5679
21026SOL    HW273393   2.459   9.713   4.037  0.8155  0.3316  0.4937
21027SOL     OW73394  12.842   6.140   1.757 -0.3278  0.6229 -0.4100
21027SOL    HW173395  12.929   6.112   1.729 -0.5877 -2.1377  1.1564
21027SOL    HW273396  12.782   6.101   1.693 -0.5285  0.3666 -0.0712
21028SOL     OW73397   3.464   2.287  11.377  0.1202 -0.0774  0.0736
21028SOL    HW173398   3.390   2.318  11.326 -0.7704  0.7813  1.7770
21028SOL    HW273399   3.431   2.209  11.422  0.4927 -0.1364  0.2517
21029SOL     OW73400   0.283   0.319   1.929 -0.3236  0.0441  0.0237
21029SOL    HW173401   0.295   0.296   1.837  2.6221  0.0475  0.2969
21029SOL    HW273402   0.245   0.407   1.927 -0.1576  0.1071 -1.2109
21030SOL     OW73403   0.590   3.354   0.949  1.0095  0.6238  0.6999
21030SOL    HW173404   0.497   3.351   0.929  0.9183  0.8536  1.0851
21030SOL    HW273405   0.631   3.300   0.881  0.7190  1.4893 -0.1852
21031SOL     OW73406   1.740   4.849   8.603  0.7753 -0.1127 -0.3094
21031SOL    HW173407   1.746   4.783   8.535  1.1821 -0.8067  0.3853
21031SOL    HW273408   1.728   4.932   8.556 -2.8506 -0.9602 -1.1627
21032SOL     OW73409   5.851   3.905   4.545 -0.1325 -0.2143  0.1662
21032SOL    HW173410   5.852   3.923   4.451  2.9485 -0.3278  0.0868
21032SOL    HW273411   5.789   3.969   4.581  0.5377  1.5559 -1.6456
21033SOL     OW73412   9.497   6.011   1.446  0.3368 -0.2447  0.1469
21033SOL    HW173413   9.540   6.089   1.412 -1.4206  0.4621 -0.5883
21033SOL    HW273414   9.495   6.024   1.541  1.5927 -0.2544  0.1920
21034SOL     OW73415  10.634   5.305   1.488 -0.0273 -0.1663  0.4769
21034SOL    HW173416  10.677   5.390   1.500  0.0870 -0.2603  0.7516
21034SOL    HW273417  10.705   5.242   1.494  0.0355 -0.2312 -0.6835
21035SOL     OW73418   4.155  11.273   7.842 -0.2224  0.1076  0.0768
21035SOL    HW173419   4.169  11.223   7.761  0.1055  1.2890 -0.6200
21035SOL    HW273420   4.243  11.298   7.870 -0.3919  0.4005  0.3504
21036SOL     OW73421   6.023   8.460  11.977  0.0521 -0.1425 -0.6238
21036SOL    HW173422   6.044   8.550  11.954  0.9712 -0.5387 -1.4061
21036SOL    HW273423   5.996   8.464  12.069 -0.6421  1.0251 -0.8608
21037SOL     OW73424   6.254  10.363   1.066  0.4581 -0.2499 -0.4877
21037SOL    HW173425   6.185  10.430   1.059  0.5608 -0.2763 -1.8312
21037SOL    HW273426   6.323  10.405   1.118 -0.7096 -0.3680  1.2781
21038SOL     OW73427  10.959   3.136   5.613 -0.1218  0.1328 -0.1788
21038SOL    HW173428  11.012   3.090   5.548 -0.1112  0.9400 -0.7559
21038SOL    HW273429  10.982   3.095   5.696 -0.5343 -1.2866 -0.7232
21039SOL     OW73430   6.853  12.116   2.987 -0.0865  0.6275 -0.0061
21039SOL    HW173431   6.797  12.049   2.947  0.2156  0.6683 -0.5126
21039SOL    HW273432   6.821  12.198   2.950  0.7193  0.5956 -0.8180
21040SOL     OW73433   5.247   2.007   1.007  0.1204 -0.0675 -0.2013
21040SOL    HW173434   5.301   1.983   1.082 -0.1143 -1.1816 -0.3692
21040SOL    HW273435   5.282   2.091   0.978  1.0175 -0.2268  0.3819
21041SOL     OW73436  10.510   8.720  12.647 -0.1983  0.2493  0.0998
21041SOL    HW173437  10.436   8.705  12.589 -0.9423 -0.8213  1.2726
21041SOL    HW273438  10.571   8.774  12.596 -0.6860 -0.8946 -1.7683
21042SOL     OW73439   8.197   6.884   7.232 -0.3530  0.5402 -0.2318
21042SOL    HW173440   8.152   6.922   7.308  0.2454 -0.7145  0.7838
21042SOL    HW273441   8.276   6.937   7.221 -1.5986  2.2319 -1.5073
21043SOL     OW73442   9.856   0.850   2.931 -0.1201 -0.1510  0.0045
21043SOL    HW173443   9.882   0.837   2.840  0.5591  2.0459 -0.1872
21043SOL    HW273444   9.781   0.792   2.944 -0.9472  0.3079 -2.3007
21044SOL     OW73445   8.548  12.915   0.929  0.2944 -0.1857  0.1737
21044SOL    HW173446   8.571  12.843   0.870  0.4807  0.2394 -0.2862
21044SOL    HW273447   8.491  12.971   0.876 -1.6872 -1.1079  1.2118
21045SOL     OW73448  11.487   3.924   7.615 -0.5336  0.0449  0.1424
21045SOL    HW173449  11.466   3.956   7.527  0.6380 -0.2789 -0.2870
21045SOL    HW273450  11.549   3.988   7.650 -0.9514  0.1424  0.7071
21046SOL     OW73451  11.712   3.959   7.008 -0.2471 -0.2426 -0.2404
21046SOL    HW173452  11.796   3.917   6.986 -0.7362 -1.3449 -0.0927
21046SOL    HW273453  11.680   3.909   7.083 -1.7247 -0.7950 -1.1917
21047SOL     OW73454   7.300  10.429   8.084 -0.4344 -0.0595 -0.2214
21047SOL    HW173455   7.309  10.522   8.066  1.0468 -0.5211 -2.2457
21047SOL    HW273456   7.211  10.407   8.057 -0.1874  0.4514 -1.5218
21048SOL     OW73457   1.490   0.955   5.392  0.0389  0.1334 -0.5420
21048SOL    HW173458   1.496   0.952   5.487  0.3358 -3.1930 -0.5767
21048SOL    HW273459   1.466   1.046   5.373  0.9874  1.1609  2.5959
21049SOL     OW73460   6.949   9.716  12.006  0.6098 -0.1912 -0.5568
21049SOL    HW173461   6.867   9.764  11.997 -0.7084 -2.1875  0.1145
21049SOL    HW273462   6.970   9.720  12.099  0.0619 -1.5290 -0.3601
21050SOL     OW73463   2.549  10.389   5.848  0.0886  0.2274 -0.2182
21050SOL    HW173464   2.579  10.462   5.792 -1.1996  1.5290  0.7291
21050SOL    HW273465   2.616  10.382   5.915 -0.1511  1.0800  0.1273
21051SOL     OW73466   3.810   3.817   0.976 -0.3567 -0.3457 -0.9135
21051SOL    HW173467   3.838   3.820   1.068 -0.3611 -1.3855 -0.8681
21051SOL    HW273468   3.822   3.907   0.945  0.2020 -0.1075 -0.0635
21052SOL     OW73469   4.138   4.143   7.764  0.0595 -0.1385 -0.3995
21052SOL    HW173470   4.109   4.086   7.693  0.6525 -0.4484 -0.3988
21052SOL    HW273471   4.076   4.127   7.835  0.6416 -1.3493 -0.1335
21053SOL     OW73472   5.960   0.699   8.951  0.0151  0.0523 -0.2709
21053SOL    HW173473   5.993   0.694   8.861  0.2939  0.3199 -0.1839
21053SOL    HW273474   6.031   0.740   9.000 -0.3449  0.3971 -0.0310
21054SOL     OW73475  11.876   0.324  11.196 -0.2488 -0.0069  0.4008
21054SOL    HW173476  11.863   0.376  11.117  0.6232 -0.8609 -0.3351
21054SOL    HW273477  11.970   0.330  11.214  0.1611 -2.3304 -0.4962
21055SOL     OW73478   2.308   2.583  10.741 -0.3169  0.3453 -0.4189
21055SOL    HW173479   2.289   2.583  10.835 -0.1768 -0.2695 -0.3848
21055SOL    HW273480   2.272   2.500  10.709  0.4663  0.1137 -0.7332
21056SOL     OW73481   9.832  10.121   9.616 -0.0550 -0.4264 -0.1100
21056SOL    HW173482   9.909  10.150   9.568 -0.7836 -0.4036 -1.3040
21056SOL    HW273483   9.866  10.089   9.699  1.2080 -0.1523 -0.5061
21057SOL     OW73484  10.624   3.349  12.172 -0.2404  0.4244 -0.0626
21057SOL    HW173485  10.675   3.270  12.154  1.1505  1.3229 -0.2388
21057SOL    HW273486  10.628   3.359  12.267  0.6288  0.9340 -0.1438
21058SOL     OW73487   9.301   2.766   2.938  0.0700 -0.2750 -0.6091
21058SOL    HW173488   9.315   2.674   2.958  1.7333 -0.1704 -1.1019
21058SOL    HW273489   9.211   2.771   2.907 -0.7472 -1.3588  1.4294
21059SOL     OW73490  12.459   7.140   4.313 -0.3492  0.1286 -0.3630
21059SOL    HW173491  12.450   7.116   4.221 -0.7788  2.6001 -1.0314
21059SOL    HW273492  12.549   7.173   4.321  0.2879 -1.6712  0.5712
21060SOL     OW73493   7.807   1.652  12.608 -0.0698 -0.1307  0.0685
21060SOL    HW173494   7.833   1.723  12.667 -1.4419 -0.3139  0.9267
21060SOL    HW273495   7.830   1.572  12.656  1.4605 -0.3085 -0.8907
21061SOL     OW73496   3.051   0.549   3.278 -1.1204 -0.5097 -0.3450
21061SOL    HW173497   3.021   0.463   3.250 -0.2379 -0.5982 -1.0499
21061SOL    HW273498   3.139   0.557   3.241 -0.2564 -0.2613  1.6311
21062SOL     OW73499   2.477   9.510   8.410  0.4306 -0.1104 -0.2989
21062SOL    HW173500   2.460   9.604   8.413  2.1726  0.2464 -0.3574
21062SOL    HW273501   2.458   9.485   8.319 -1.6148 -0.1781  0.1136
21063SOL     OW73502  10.558   4.421   8.902 -0.4198  0.4254  0.4450
21063SOL    HW173503  10.587   4.510   8.926  1.7540  0.0519 -0.5412
21063SOL    HW273504  10.485   4.403   8.961 -1.1765  3.0095  0.4266
21064SOL     OW73505  11.579   5.410   1.048  0.8311 -0.7074  0.0728
21064SOL    HW173506  11.496   5.453   1.030  1.6160  0.7791 -0.1802
21064SOL    HW273507  11.593   5.422   1.142  1.2047 -0.1073 -0.0556
21065SOL     OW73508   8.708   7.352   9.705 -0.0242  0.2081  0.0769
21065SOL    HW173509   8.728   7.409   9.631 -2.1182  0.3585 -0.4301
21065SOL    HW273510   8.641   7.293   9.673 -0.6263 -0.0482  1.7171
21066SOL     OW73511   1.980   2.196  11.323  0.1703  0.2869  0.3276
21066SOL    HW173512   1.895   2.228  11.294 -0.4838 -0.8927  0.8798
21066SOL    HW273513   2.000   2.249  11.400 -1.0525 -0.7930  1.4338
21067SOL     OW73514   8.496   8.450   3.772  0.4441  0.5510 -0.2074
21067SOL    HW173515   8.478   8.485   3.685  0.0480 -0.6962 -0.6433
21067SOL    HW273516   8.506   8.355   3.759 -3.1868 -0.2378  1.5677
21068SOL     OW73517   3.953   5.030  12.984 -0.3202 -0.6355  0.2305
21068SOL    HW173518   4.046   5.011  12.975 -0.3356 -0.7979  0.4141
21068SOL    HW273519   3.938   5.034  13.078 -0.4231 -0.2337  0.1969
21069SOL     OW73520  12.538   6.971   3.266 -0.3234 -0.1227 -0.2820
21069SOL    HW173521  12.539   6.906   3.196 -1.5807 -2.0775  1.3817
21069SOL    HW273522  12.500   7.049   3.227  0.5596 -0.5752 -2.1654
21070SOL     OW73523  12.710   1.077   0.346 -0.0013  0.4103 -0.2547
21070SOL    HW173524  12.680   1.005   0.402  1.7830 -0.4646 -0.3589
21070SOL    HW273525  12.637   1.139   0.347 -0.8880 -0.5687  1.2775
21071SOL     OW73526   6.957   3.749   3.918  0.5618  0.1986  0.1758
21071SOL    HW173527   6.933   3.741   3.826  1.1022  1.0716 -0.0485
21071SOL    HW273528   7.003   3.667   3.937  0.1581 -0.1292 -0.2360
21072SOL     OW73529  12.576   5.387  11.965  0.3260  0.0607  0.2932
21072SOL    HW173530  12.517   5.371  11.891  0.4728  1.5396 -0.1727
21072SOL    HW273531  12.664   5.375  11.928  0.3920  0.5259  0.3014
21073SOL     OW73532  12.049   3.954   0.876 -0.5706  0.1799  0.3816
21073SOL    HW173533  11.990   3.883   0.900 -0.2371 -0.2479 -0.0440
21073SOL    HW273534  12.041   3.962   0.781  2.0946 -1.7798 -0.1106
21074SOL     OW73535   3.561  10.315   3.501 -0.5846 -0.3572  0.0964
21074SOL    HW173536   3.480  10.299   3.453  0.2603 -0.1742 -1.4762
21074SOL    HW273537   3.571  10.239   3.558 -1.7305 -0.4895  0.1478
21075SOL     OW73538   2.151   6.757   3.817 -0.0244 -0.4952  0.0479
21075SOL    HW173539   2.075   6.777   3.872  0.3847 -1.0016  0.8066
21075SOL    HW273540   2.182   6.842   3.787 -1.1116 -0.3029 -0.5689
21076SOL     OW73541   8.261  12.826  12.773 -0.2517 -0.5468 -0.2946
21076SOL    HW173542   8.200  12.897  12.756  0.3404 -0.1049 -0.6510
21076SOL    HW273543   8.225  12.780  12.849 -0.5271  0.2684  0.0821
21077SOL     OW73544   2.305   1.308  12.599  0.1102 -0.0702 -0.7586
21077SOL    HW173545   2.390   1.311  12.643  0.3731  1.3716 -1.3357
21077SOL    HW273546   2.326   1.287  12.508 -0.1580  0.3095 -0.9068
21078SOL     OW73547  10.424  12.913  10.874  0.0330  0.3292  0.3681
21078SOL    HW173548  10.423  12.991  10.819 -0.0749  0.2354  0.2382
21078SOL    HW273549  10.472  12.848  10.822  1.7353  0.8534  1.2064
21079SOL     OW73550   3.097   5.117  11.833  0.3867 -0.1861  0.4216
21079SOL    HW173551   3.112   5.211  11.829 -1.4133  0.0780 -1.4649
21079SOL    HW273552   3.158   5.080  11.769 -0.3964 -0.0465 -0.4303
21080SOL     OW73553   7.553   2.475   9.322 -0.0418 -0.2645 -0.3188
21080SOL    HW173554   7.475   2.419   9.317 -0.5799  0.3935  0.4887
21080SOL    HW273555   7.575   2.491   9.230 -0.1060 -1.4661 -0.5701
21081SOL     OW73556   1.870   6.528   8.890 -0.2160  0.0738 -0.7934
21081SOL    HW173557   1.838   6.532   8.800 -1.0221  1.3763 -0.4881
21081SOL    HW273558   1.899   6.617   8.908 -0.4570 -0.0654  0.3620
21082SOL     OW73559   8.069  11.929   6.990  0.2973 -0.4901  0.5805
21082SOL    HW173560   8.080  11.867   7.062  0.8757 -1.5589 -0.4073
21082SOL    HW273561   8.070  11.875   6.911 -0.9673  0.5836 -0.2133
21083SOL     OW73562  10.811   8.483   9.589 -0.0603 -0.3533 -0.2938
21083SOL    HW173563  10.843   8.437   9.666  1.0929  0.9372  0.0433
21083SOL    HW273564  10.873   8.460   9.520  0.3370  0.4120 -0.2013
21084SOL     OW73565   8.983  10.883   1.743 -0.5573  0.3552 -0.1929
21084SOL    HW173566   8.936  10.967   1.743 -0.5130  0.3803 -0.9101
21084SOL    HW273567   9.005  10.867   1.652  1.2191  0.5553  0.1555
21085SOL     OW73568  11.806  10.853   2.103 -0.0997  0.7282 -0.0956
21085SOL    HW173569  11.814  10.764   2.135  0.8240  1.4351  1.7802
21085SOL    HW273570  11.886  10.868   2.053  0.3627  0.8917  0.6727
21086SOL     OW73571   1.432   4.442   3.423  0.3641 -0.3474 -0.0666
21086SOL    HW173572   1.349   4.407   3.391  0.2130 -1.0800  1.0665
21086SOL    HW273573   1.419   4.453   3.517  1.1504  0.7055 -0.0601
21087SOL     OW73574   4.981   5.327   3.045  0.6400 -0.3150  0.8945
21087SOL    HW173575   5.006   5.381   2.970 -2.7688  0.8998  0.4423
21087SOL    HW273576   5.014   5.240   3.023  2.4591  0.6408 -0.4821
21088SOL     OW73577  11.557   2.000   5.855 -0.1783  0.5944 -0.3913
21088SOL    HW173578  11.589   1.936   5.792  2.7127  0.5140  0.9510
21088SOL    HW273579  11.598   2.082   5.827  0.8554  0.6243  1.0762
21089SOL     OW73580   3.609   5.497   2.671 -0.2055 -0.9198  0.1464
21089SOL    HW173581   3.557   5.442   2.730 -2.5003 -1.3049 -2.0463
21089SOL    HW273582   3.598   5.456   2.585  0.5407  1.2791 -1.0713
21090SOL     OW73583   5.182   5.704   1.455  0.0455 -0.1262  0.0825
21090SOL    HW173584   5.105   5.669   1.410  0.4933  0.2521 -0.9913
21090SOL    HW273585   5.253   5.695   1.392  0.1500  2.9201 -0.3560
21091SOL     OW73586   1.926  10.639   3.159  0.2838 -0.4017 -0.4466
21091SOL    HW173587   1.863  10.570   3.136  0.6283 -1.1632  0.8309
21091SOL    HW273588   1.938  10.688   3.077 -0.4851 -1.4269 -1.2005
21092SOL     OW73589  11.472   2.902  10.641  0.6682  0.5916  0.1424
21092SOL    HW173590  11.422   2.868  10.715  3.1865 -0.1556  1.6472
21092SOL    HW273591  11.512   2.982  10.673  2.0440  0.1017 -0.2478
21093SOL     OW73592   9.412   6.576   7.843 -0.6567  0.1337  0.4677
21093SOL    HW173593   9.438   6.625   7.921 -1.6818  0.8390  0.3932
21093SOL    HW273594   9.323   6.607   7.824 -0.6421 -0.4480 -0.6434
21094SOL     OW73595   0.846   3.484  11.166  0.1853 -0.1514 -0.0947
21094SOL    HW173596   0.896   3.464  11.087  0.5406  0.0059  0.0907
21094SOL    HW273597   0.912   3.506  11.232  0.0365 -2.3254  0.8611
21095SOL     OW73598   0.790  10.393   7.160  0.5057 -0.2677  1.0556
21095SOL    HW173599   0.861  10.387   7.097  1.9875 -1.4823  2.7332
21095SOL    HW273600   0.711  10.403   7.107  1.8192  0.3932 -0.8962
21096SOL     OW73601  11.031   8.047   1.172 -0.3156 -0.2106  0.0113
21096SOL    HW173602  10.991   8.088   1.095  1.6798  0.3309 -0.7951
21096SOL    HW273603  11.033   7.954   1.151 -3.6068 -0.6966  1.2670
21097SOL     OW73604   1.670   7.510   6.245 -0.3340 -0.4883 -0.0184
21097SOL    HW173605   1.757   7.538   6.216 -0.0707 -1.9018 -0.6948
21097SOL    HW273606   1.662   7.545   6.334  1.6286 -1.7218  0.6969
21098SOL     OW73607  12.982   0.878   8.273 -0.6073  0.0887  0.2026
21098SOL    HW173608  13.012   0.926   8.196  0.7511  0.9953  1.2709
21098SOL    HW273609  12.915   0.934   8.312 -0.1365  0.3975  0.5756
21099SOL     OW73610   1.047  10.944   3.537 -0.1869  0.1875 -0.0750
21099SOL    HW173611   1.045  11.024   3.589 -2.8888  0.8566 -1.0563
21099SOL    HW273612   1.001  10.879   3.590 -0.6864  0.1529 -0.5462
21100SOL     OW73613   1.966   2.513   7.322  0.0942 -0.4564  0.0127
21100SOL    HW173614   1.988   2.605   7.337  1.0610 -0.4196 -1.4147
21100SOL    HW273615   1.881   2.502   7.364 -1.3700  1.8298 -2.0185
21101SOL     OW73616   3.304   0.980  12.297 -0.2140 -0.3418  0.2184
21101SOL    HW173617   3.307   1.042  12.370 -1.0916 -0.9471  0.8038
21101SOL    HW273618   3.376   1.005  12.240 -0.6857  1.3521  0.3210
21102SOL     OW73619   1.459   9.220   5.084  0.7422 -0.5948  0.2950
21102SOL    HW173620   1.405   9.294   5.057  1.3075 -0.1542  0.3486
21102SOL    HW273621   1.532   9.219   5.022  0.4050 -1.5104 -0.1031
21103SOL     OW73622  10.860  12.858  12.248 -0.0491  0.4925 -0.2779
21103SOL    HW173623  10.878  12.793  12.315 -2.2286  0.2420  0.1282
21103SOL    HW273624  10.858  12.941  12.296 -2.6592  0.2009  0.2516
21104SOL     OW73625  11.418  11.554   6.993 -0.1956  0.5832  0.0149
21104SOL    HW173626  11.505  11.574   6.956 -0.6264  3.2550  0.2601
21104SOL    HW273627  11.435  11.537   7.086  0.0718  1.5377  0.1595
21105SOL     OW73628   7.734  12.262   8.361  0.3155  0.3374  0.2473
21105SOL    HW173629   7.659  12.203   8.370 -0.7147  1.5026 -0.4026
21105SOL    HW273630   7.807  12.205   8.338 -0.6790 -0.6720 -0.5186
21106SOL     OW73631   8.401   2.589   2.790 -0.2080  0.4989 -0.1961
21106SOL    HW173632   8.444   2.672   2.811  0.3587 -0.2845  1.9540
21106SOL    HW273633   8.316   2.616   2.754  0.9743  2.0080 -2.1553
21107SOL     OW73634   5.940   2.247  10.524  0.1327 -0.0112 -0.4319
21107SOL    HW173635   6.005   2.176  10.518  1.0262  0.7180  0.3935
21107SOL    HW273636   5.966   2.308  10.455  0.1893  0.1721 -0.2485
21108SOL     OW73637  10.927   7.931   4.518  0.1361 -0.1119  0.2096
21108SOL    HW173638  10.845   7.897   4.554  0.2107  0.9619  1.4931
21108SOL    HW273639  10.905   8.018   4.484  0.7115  0.1751  0.5393
21109SOL     OW73640  10.667   6.495   9.735 -0.7225 -0.1509 -0.0807
21109SOL    HW173641  10.680   6.477   9.828 -0.4618  1.0057  0.1231
21109SOL    HW273642  10.754   6.512   9.701 -0.4402 -3.1323 -1.1717
21110SOL     OW73643   4.152  12.655   9.276 -0.1823 -1.3487  0.3131
21110SOL    HW173644   4.209  12.586   9.241  1.9959 -0.0837  1.1597
21110SOL    HW273645   4.091  12.609   9.334  0.6566 -2.6597  0.1847
21111SOL     OW73646   3.790   8.025   8.928  0.1037  0.1131 -0.1045
21111SOL    HW173647   3.767   8.056   8.841  0.6153  2.8378  0.6383
21111SOL    HW273648   3.885   8.035   8.932 -0.0168  1.0137  1.0733
21112SOL     OW73649   7.896   2.911   6.807 -0.1136 -0.9392  0.2495
21112SOL    HW173650   7.834   2.853   6.763  0.1511 -1.2237  0.2512
21112SOL    HW273651   7.979   2.897   6.761 -0.0639 -0.5214  0.2143
21113SOL     OW73652   9.205   2.501   2.472  0.1020  0.0771  0.0745
21113SOL    HW173653   9.137   2.527   2.410 -0.5016 -0.6332  0.4224
21113SOL    HW273654   9.158   2.480   2.552  0.7423 -0.3464  0.3460
21114SOL     OW73655   4.366  12.722   6.062 -0.3380 -0.3056  0.2696
21114SOL    HW173656   4.443  12.666   6.065  0.8222  1.2080  0.0527
21114SOL    HW273657   4.350  12.737   5.969 -0.0261  0.5006  0.3362
21115SOL     OW73658   7.152   8.534  12.297 -0.3787  0.0083  0.1584
21115SOL    HW173659   7.067   8.572  12.275  0.6982  0.6696 -3.6459
21115SOL    HW273660   7.136   8.440  12.298 -1.2774  0.1459  0.0885
21116SOL     OW73661   9.908  10.015  11.372 -0.4038  0.5927 -0.0837
21116SOL    HW173662   9.817  10.039  11.358 -0.2247  1.3368  0.0057
21116SOL    HW273663   9.954  10.050  11.296 -0.0878  0.8359  0.2175
21117SOL     OW73664   6.976   9.111   9.453 -0.0420 -0.0479 -0.5829
21117SOL    HW173665   6.896   9.160   9.434  0.4458  1.0681  0.0795
21117SOL    HW273666   7.006   9.079   9.368 -1.3483 -0.7606 -0.7967
21118SOL     OW73667   7.315   8.720   8.677  0.2924  0.1222 -0.4024
21118SOL    HW173668   7.311   8.778   8.601  1.4908 -1.4760 -1.7686
21118SOL    HW273669   7.361   8.771   8.744  0.6620  1.0057 -1.3042
21119SOL     OW73670   9.974   2.732   4.910  0.3909 -0.1416  0.3328
21119SOL    HW173671   9.970   2.815   4.958 -2.0191 -0.5994  1.0752
21119SOL    HW273672   9.983   2.758   4.819 -0.2957  0.9713  0.5588
21120SOL     OW73673   3.297   7.646   5.111 -0.1657 -0.1107  0.2702
21120SOL    HW173674   3.372   7.620   5.163 -1.0551 -1.8500  0.7429
21120SOL    HW273675   3.279   7.736   5.137  0.1000 -0.5761  2.1479
21121SOL     OW73676   0.616   1.229   1.566  0.2139  0.9923  0.0345
21121SOL    HW173677   0.588   1.141   1.541 -0.5368  0.4163  2.5679
21121SOL    HW273678   0.535   1.277   1.581  0.6172  1.7497 -0.1650
21122SOL     OW73679   3.116   5.639   5.428 -0.3858  0.4875  0.3724
21122SOL    HW173680   3.204   5.672   5.413 -0.2696 -0.0474 -0.1449
21122SOL    HW273681   3.069   5.714   5.466  0.0245  1.0729 -0.2460
21123SOL     OW73682  12.591   4.812   9.943 -0.5992 -0.2649  0.7111
21123SOL    HW173683  12.616   4.744  10.004  0.8208 -0.5211 -0.1091
21123SOL    HW273684  12.590   4.769   9.857  0.6469  0.7825  0.1361
21124SOL     OW73685   0.905   0.595   0.678  0.0648  0.1051  0.5178
21124SOL    HW173686   0.883   0.582   0.770  0.4334 -2.0686  0.3463
21124SOL    HW273687   0.952   0.515   0.653 -3.1723 -1.1066 -2.5101
21125SOL     OW73688   5.076   0.837   4.205  0.1049  0.2006  0.1351
21125SOL    HW173689   5.052   0.798   4.289  3.9055 -1.5412  0.6183
21125SOL    HW273690   5.005   0.812   4.146 -0.4467 -2.5359  1.7851
21126SOL     OW73691   4.632   3.766   1.640 -0.1915 -0.1085 -0.2831
21126SOL    HW173692   4.619   3.681   1.683  0.3339  0.0186  0.1208
21126SOL    HW273693   4.570   3.764   1.567 -0.6027 -0.5996  0.0689
21127SOL     OW73694   6.350  11.168   1.311  0.1355 -0.3273 -0.4105
21127SOL    HW173695   6.444  11.154   1.317  0.3242  1.0899  0.4644
21127SOL    HW273696   6.336  11.194   1.220  1.0742  2.3012  0.1105
21128SOL     OW73697   1.371   4.904  11.231  0.6313  0.0509  0.0675
21128SOL    HW173698   1.356   4.863  11.146 -0.2737 -0.5381  0.5016
21128SOL    HW273699   1.356   4.997  11.216  1.8052  0.1392 -0.7135
21129SOL     OW73700   6.439  12.767  11.077  0.1699  0.4844 -0.4137
21129SOL    HW173701   6.450  12.843  11.020  0.7927  1.3273  0.7646
21129SOL    HW273702   6.481  12.695  11.031  1.0957  1.2499 -0.7952
21130SOL     OW73703  12.354   5.266   3.478 -0.3114 -0.7897  0.9381
21130SOL    HW173704  12.318   5.244   3.393  0.0998  0.4484  0.4155
21130SOL    HW273705  12.339   5.188   3.532  0.6253 -2.1159 -0.6288
21131SOL     OW73706   2.061   3.936  12.697 -0.3290  0.0220  0.6642
21131SOL    HW173707   1.971   3.913  12.720 -0.2698 -1.3822 -0.3637
21131SOL    HW273708   2.052   3.987  12.616 -0.2303  0.1639  0.7448
21132SOL     OW73709   2.971   0.801   6.617  0.3060 -0.1694  0.1733
21132SOL    HW173710   2.953   0.831   6.528  0.0654 -0.4119  0.1390
21132SOL    HW273711   2.956   0.707   6.614  0.6724 -0.2346  0.3772
21133SOL     OW73712   6.873  10.855   4.318  0.2126  0.9010 -0.0957
21133SOL    HW173713   6.948  10.811   4.357  0.8276  1.1517 -0.9479
21133SOL    HW273714   6.884  10.947   4.340  0.0403  0.9104 -0.0455
21134SOL     OW73715   8.030   1.335   7.560  0.0437 -0.0425  0.2364
21134SOL    HW173716   8.056   1.245   7.541 -1.3115 -0.8134  1.7332
21134SOL    HW273717   7.963   1.354   7.495  0.7167  0.0889 -0.4242
21135SOL     OW73718  11.777   6.484   7.818 -0.3304  0.3905 -0.1826
21135SOL    HW173719  11.727   6.433   7.755  0.7369 -2.3281  1.0511
21135SOL    HW273720  11.714   6.548   7.852 -1.6007  0.2383 -2.0783
21136SOL     OW73721   3.323   0.761   4.506  0.1209  0.4666  0.2572
21136SOL    HW173722   3.356   0.847   4.531  0.6554  0.9106 -1.7995
21136SOL    HW273723   3.228   0.770   4.508  0.1707  1.3422 -0.6231
21137SOL     OW73724  12.653   9.009   8.960 -0.2262  0.2618 -0.0351
21137SOL    HW173725  12.720   9.068   8.924 -0.2610 -0.7503 -1.8789
21137SOL    HW273726  12.703   8.943   9.008  0.1654 -0.5335 -1.4702
21138SOL     OW73727   9.548   8.324   1.591 -0.4678  0.9070  0.4486
21138SOL    HW173728   9.467   8.352   1.634 -0.9449 -0.4259  0.4692
21138SOL    HW273729   9.597   8.277   1.659 -0.7029 -0.2061 -0.1122
21139SOL     OW73730   9.966   7.527  10.378 -0.2414 -0.2155 -0.2057
21139SOL    HW173731  10.030   7.598  10.379 -0.6607  0.1987 -1.5213
21139SOL    HW273732   9.934   7.523  10.468  1.6764 -0.4967  0.5170
21140SOL     OW73733  12.036  11.815  12.915 -0.3447  0.7241  0.1320
21140SOL    HW173734  11.969  11.763  12.959 -0.4224 -0.3492 -1.1871
21140SOL    HW273735  12.081  11.860  12.985 -0.6625 -0.6897  1.2894
21141SOL     OW73736   5.751   4.131   3.234 -0.4978  0.1249  0.1413
21141SOL    HW173737   5.742   4.215   3.189  0.1714  0.3090  0.3298
21141SOL    HW273738   5.663   4.095   3.238 -0.3950 -0.6951 -2.8610
21142SOL     OW73739   4.331   2.709   6.140  0.5398 -0.1772 -0.0657
21142SOL    HW173740   4.368   2.660   6.213  0.9496  0.7379  0.3486
21142SOL    HW273741   4.304   2.793   6.177  0.7088  0.2824 -0.9431
21143SOL     OW73742   2.000   3.039   9.863  0.7623 -0.3167 -0.4282
21143SOL    HW173743   1.910   3.071   9.858  0.5075 -0.7600  0.9440
21143SOL    HW273744   1.991   2.944   9.868  1.1635 -0.2898  1.7167
21144SOL     OW73745   8.083   1.203  10.899  0.4682 -0.0224  0.1033
21144SOL    HW173746   8.065   1.173  10.988  1.9257  0.1328  0.4768
21144SOL    HW273747   8.155   1.147  10.868 -1.0190 -1.1297 -1.5904
21145SOL     OW73748   3.474   7.383   3.398 -0.0075 -0.2189  0.0604
21145SOL    HW173749   3.546   7.320   3.395 -0.7424 -1.0464 -2.0369
21145SOL    HW273750   3.478   7.420   3.486  2.5630 -0.7095  0.2302
21146SOL     OW73751   9.839  11.837  12.350 -0.5403  0.2195 -0.2753
21146SOL    HW173752   9.858  11.872  12.437  0.7121  0.7022 -0.7178
21146SOL    HW273753   9.830  11.743  12.364 -0.3275  0.2895  0.3751
21147SOL     OW73754   2.250  10.490  10.733  0.4725 -0.2564 -0.0689
21147SOL    HW173755   2.158  10.511  10.719  0.2190 -1.3313 -0.1009
21147SOL    HW273756   2.290  10.573  10.759 -0.7396 -0.0147  1.1101
21148SOL     OW73757   7.311  12.227   3.599  0.3578 -0.4607  0.0486
21148SOL    HW173758   7.251  12.266   3.662  0.3623  0.3329 -0.4172
21148SOL    HW273759   7.378  12.294   3.585  1.2025 -1.2266  0.3518
21149SOL     OW73760   1.648   3.675  10.604 -0.6663 -0.5654 -0.3727
21149SOL    HW173761   1.720   3.621  10.569  1.0011  0.7519  0.8777
21149SOL    HW273762   1.617   3.627  10.680 -1.2390 -1.2014 -0.9882
21150SOL     OW73763   5.495  12.104   3.681  0.4170 -0.0033 -0.3342
21150SOL    HW173764   5.489  12.085   3.588 -0.7489 -0.2995 -0.2082
21150SOL    HW273765   5.587  12.088   3.702  0.3724 -1.4878 -1.1038
21151SOL     OW73766   3.525  12.339   7.963  0.3410 -0.1289 -0.0323
21151SOL    HW173767   3.553  12.401   7.895 -1.1681  0.3208 -0.2719
21151SOL    HW273768   3.563  12.372   8.044 -0.5043  1.1697 -0.1471
21152SOL     OW73769   3.297   4.592   3.676  0.1750 -0.9135  0.9763
21152SOL    HW173770   3.292   4.652   3.751  1.4766 -0.1543  0.4898
21152SOL    HW273771   3.387   4.601   3.644 -0.2982 -1.3813 -0.5640
21153SOL     OW73772   7.548   4.204   7.941  0.3575  0.4267  0.0502
21153SOL    HW173773   7.531   4.112   7.963 -0.0492  0.5445  0.2449
21153SOL    HW273774   7.620   4.201   7.878 -0.4779 -0.1006 -0.9069
21154SOL     OW73775   2.842   3.020   4.718 -0.7922  0.3515 -0.5153
21154SOL    HW173776   2.786   3.020   4.641 -0.0274  2.6735 -1.1716
21154SOL    HW273777   2.792   2.975   4.785 -1.4870 -1.7319 -2.3336
21155SOL     OW73778  12.509   9.892   2.728  0.2415 -0.1198 -0.1675
21155SOL    HW173779  12.593   9.911   2.686  2.4041 -4.0101  1.7775
21155SOL    HW273780  12.458   9.849   2.659  0.1228  1.5178 -1.1408
21156SOL     OW73781   8.290   5.356   5.127 -0.1124 -0.0161 -0.2519
21156SOL    HW173782   8.373   5.315   5.154 -0.4085 -0.2521  0.3152
21156SOL    HW273783   8.317   5.438   5.086  0.3788  0.1536  0.3868
21157SOL     OW73784   1.834   6.418   1.993  0.7390  0.1004 -0.3261
21157SOL    HW173785   1.927   6.401   1.980  0.8437  0.0731  0.4054
21157SOL    HW273786   1.816   6.385   2.081  0.5245  2.0751  0.4090
21158SOL     OW73787  10.842   3.772   8.614  0.1251 -0.4312  0.1851
21158SOL    HW173788  10.831   3.726   8.698 -0.2168 -0.5062  0.1036
21158SOL    HW273789  10.936   3.779   8.602  0.1798  0.4273  1.0343
21159SOL     OW73790   5.297   8.862   4.585 -0.0080  0.3835  0.0723
21159SOL    HW173791   5.265   8.904   4.505 -1.9244  0.6253  0.9065
21159SOL    HW273792   5.282   8.927   4.654  0.4014 -0.3045  0.8284
21160SOL     OW73793  10.251   5.707   9.421  0.5597  0.2612 -0.3664
21160SOL    HW173794  10.222   5.636   9.477  2.2246 -0.8423 -0.8279
21160SOL    HW273795  10.229   5.787   9.470 -2.5969 -0.4351 -0.4405
21161SOL     OW73796   5.131   7.803   8.109  0.6741 -0.0923  0.1780
21161SOL    HW173797   5.139   7.871   8.176 -0.2676  0.6363 -0.4329
21161SOL    HW273798   5.037   7.793   8.095  0.8387 -0.7064 -0.5674
21162SOL     OW73799   5.403   7.433   3.928 -0.1131  0.0473  0.2133
21162SOL    HW173800   5.355   7.515   3.931 -1.2129 -0.5810  0.3395
21162SOL    HW273801   5.356   7.375   3.988  1.0336 -0.4797  0.6368
21163SOL     OW73802   2.442   4.889   4.159 -0.0328 -0.0123 -0.4572
21163SOL    HW173803   2.360   4.917   4.200 -0.1818  0.3524 -1.0025
21163SOL    HW273804   2.475   4.821   4.218 -1.5523 -1.3499 -1.0685
21164SOL     OW73805   3.749  10.719  10.757 -0.2094  0.2068  0.4144
21164SOL    HW173806   3.656  10.700  10.751 -0.5367  1.8705 -0.5358
21164SOL    HW273807   3.768  10.723  10.850 -1.5585  1.8442  0.6486
21165SOL     OW73808   3.801   1.809   7.188 -0.1023 -0.0386 -0.0774
21165SOL    HW173809   3.879   1.853   7.155 -0.1750 -0.5513 -0.9530
21165SOL    HW273810   3.828   1.774   7.273  0.9925 -1.1864 -0.8616
21166SOL     OW73811   4.289  12.950  11.209  0.2841  0.1436  0.5928
21166SOL    HW173812   4.221  12.953  11.276  0.7322  2.0522  1.0127
21166SOL    HW273813   4.366  12.916  11.255 -0.0538 -0.9343  0.3943
21167SOL     OW73814   1.263  10.130  12.603 -0.2908 -0.0984 -0.5669
21167SOL    HW173815   1.254  10.225  12.611  0.5749 -0.1698  2.4361
21167SOL    HW273816   1.347  10.111  12.643 -0.5532 -2.1659 -0.9120
21168SOL     OW73817   1.585   8.119   4.851  0.0687 -0.3694  0.0518
21168SOL    HW173818   1.574   8.208   4.884 -0.0258 -0.8071  1.2508
21168SOL    HW273819   1.497   8.091   4.828 -0.0496 -0.5109  0.6581
21169SOL     OW73820  11.359   5.752  11.354  0.1423 -0.0095  0.0281
21169SOL    HW173821  11.341   5.846  11.361  0.2740  0.1099 -1.0302
21169SOL    HW273822  11.420   5.745  11.281 -0.9314 -1.0278 -0.8192
21170SOL     OW73823   6.566   2.451   8.619 -0.0401  0.4485 -0.8277
21170SOL    HW173824   6.490   2.505   8.640 -0.4577 -0.0924 -0.9426
21170SOL    HW273825   6.641   2.504   8.647 -0.5161  0.3647  0.7091
21171SOL     OW73826   4.820   7.591   9.756 -0.3835 -0.4640  0.8645
21171SOL    HW173827   4.822   7.682   9.787  1.1241  0.1076 -0.6958
21171SOL    HW273828   4.879   7.544   9.814 -0.4510 -0.2311  1.1224
21172SOL     OW73829  12.114  12.894   3.498  0.0234  0.5308  0.1129
21172SOL    HW173830  12.094  12.987   3.508 -1.3264  0.0865  2.0403
21172SOL    HW273831  12.186  12.879   3.559  1.0217  0.5158 -1.0425
21173SOL     OW73832   7.168   7.832   4.876  0.8480  0.1085  0.5752
21173SOL    HW173833   7.251   7.816   4.921 -0.2065  0.0389  2.6319
21173SOL    HW273834   7.120   7.749   4.883  0.2362  0.4200  0.2437
21174SOL     OW73835  11.002  10.932   7.988  0.1324 -0.0646 -0.2581
21174SOL    HW173836  10.994  10.902   8.079  0.8964 -0.0162 -0.1714
21174SOL    HW273837  10.996  11.027   7.993  2.3366  0.1154  0.0204
21175SOL     OW73838   0.028  11.537   3.220 -0.0889  0.1247  0.1341
21175SOL    HW173839  -0.028  11.555   3.144  0.8806  1.0389 -0.3769
21175SOL    HW273840   0.049  11.624   3.255  1.5458 -0.1680 -0.0783
21176SOL     OW73841   8.329   5.194   6.408  0.1958  0.6392  0.4768
21176SOL    HW173842   8.352   5.233   6.493  0.3791  2.4438 -0.3460
21176SOL    HW273843   8.282   5.264   6.363 -1.2313 -0.8101 -0.3542
21177SOL     OW73844   2.050   0.394  11.009 -0.4993  0.3391 -0.1865
21177SOL    HW173845   2.012   0.373  11.094 -0.2514  0.4337 -0.0525
21177SOL    HW273846   2.020   0.483  10.991 -1.4262 -0.0665 -0.6873
21178SOL     OW73847   6.648  11.503   2.969 -0.1527  0.0550 -0.4597
21178SOL    HW173848   6.587  11.457   3.026 -2.1819 -1.2463 -3.4399
21178SOL    HW273849   6.636  11.596   2.990 -1.2800 -0.3509  0.7568
21179SOL     OW73850  10.859   4.165   5.003 -0.1060 -0.3686  0.0443
21179SOL    HW173851  10.786   4.112   4.972 -3.5481  3.1334  1.3281
21179SOL    HW273852  10.851   4.164   5.098  0.9705  0.7785  0.1759
21180SOL     OW73853   0.540   9.915   0.182 -0.4287 -0.0707 -0.3409
21180SOL    HW173854   0.627   9.916   0.141 -0.1045 -2.0287  0.2249
21180SOL    HW273855   0.483   9.956   0.116  0.8502  0.9699 -0.8445
21181SOL     OW73856  12.302   6.435  11.069 -0.0410  0.0960 -0.1173
21181SOL    HW173857  12.354   6.483  11.134  1.9127 -0.0686 -1.4584
21181SOL    HW273858  12.321   6.343  11.086 -1.1991 -0.0630  0.3846
21182SOL     OW73859   2.069  12.940   0.636 -0.1261 -0.4772 -0.1723
21182SOL    HW173860   2.000  12.923   0.701 -2.5744  1.1747 -2.1131
21182SOL    HW273861   2.122  13.009   0.675 -1.0589 -0.0686  0.4032
21183SOL     OW73862  10.710   2.550   9.613 -0.0877  0.1542 -0.2622
21183SOL    HW173863  10.645   2.547   9.684  1.7106 -0.9161  1.4585
21183SOL    HW273864  10.719   2.643   9.593 -2.5478  0.2904 -0.9943
21184SOL     OW73865   1.066  11.806  12.591 -0.5817  0.1703  0.0350
21184SOL    HW173866   1.145  11.787  12.540 -0.6664 -0.1660  0.0248
21184SOL    HW273867   1.067  11.741  12.661 -1.4852 -0.6227 -0.6694
21185SOL     OW73868   1.312   0.920   9.659 -0.4341 -0.3499 -0.4874
21185SOL    HW173869   1.229   0.900   9.702 -0.0582 -1.5936 -0.2973
21185SOL    HW273870   1.309   0.871   9.577 -0.0184 -0.1806 -0.6067
21186SOL     OW73871  12.958   1.845   4.492  0.5535 -0.3605 -0.4196
21186SOL    HW173872  12.920   1.759   4.513 -1.5300  0.7033  0.4091
21186SOL    HW273873  12.967   1.888   4.577  1.3628  0.3509 -0.8562
21187SOL     OW73874   0.764   8.797   1.559 -0.8060  0.3597  0.1944
21187SOL    HW173875   0.776   8.702   1.564  2.3470  0.6544 -0.1796
21187SOL    HW273876   0.796   8.830   1.643 -0.0985  1.2175 -0.3910
21188SOL     OW73877   4.016   2.449   8.323 -0.0431  0.1302  0.2019
21188SOL    HW173878   4.004   2.386   8.393 -0.1891  0.9067  0.8907
21188SOL    HW273879   3.991   2.533   8.361 -1.1266  0.4323 -1.0730
21189SOL     OW73880   2.537   1.211   5.997  0.0737 -0.4379  0.5624
21189SOL    HW173881   2.608   1.205   5.934 -0.5989 -2.2922 -0.1067
21189SOL    HW273882   2.555   1.290   6.047  2.3637 -0.6313  0.1345
21190SOL     OW73883  11.539   7.774   9.608  0.0020 -0.0900  0.4143
21190SOL    HW173884  11.615   7.812   9.651 -0.2334 -0.2167  0.9433
21190SOL    HW273885  11.469   7.778   9.673 -0.4049 -0.1229 -0.0105
21191SOL     OW73886   8.212   8.547   3.380 -0.0001  0.4606  0.0771
21191SOL    HW173887   8.283   8.606   3.403 -0.3525  0.6921  0.5848
21191SOL    HW273888   8.136   8.580   3.428 -0.4096  0.1123 -0.3177
21192SOL     OW73889   8.496   7.666   5.521  0.4102 -0.0152  0.0510
21192SOL    HW173890   8.485   7.747   5.472 -0.5651  1.3182  2.2948
21192SOL    HW273891   8.554   7.613   5.468 -0.5683  1.2960 -2.4948
21193SOL     OW73892  12.698   1.788   4.701 -0.1803 -0.0639 -0.5677
21193SOL    HW173893  12.750   1.726   4.650  2.7905  1.1395  0.7210
21193SOL    HW273894  12.706   1.756   4.791 -0.3445  1.0250 -0.1541
21194SOL     OW73895   5.943   2.380   8.475 -0.4816  0.5955  0.1314
21194SOL    HW173896   5.859   2.401   8.435 -2.5539 -2.1670  2.6229
21194SOL    HW273897   5.924   2.368   8.568  2.6194 -0.3248  0.7661
21195SOL     OW73898   6.450   5.646   5.785 -0.3331 -0.2439  0.1310
21195SOL    HW173899   6.427   5.604   5.703  0.9179 -2.0655  0.6425
21195SOL    HW273900   6.525   5.702   5.764 -0.1705 -0.5170 -0.0141
21196SOL     OW73901   7.242   9.299   6.082 -0.2173  0.0565  0.0083
21196SOL    HW173902   7.242   9.207   6.107  1.4901  0.3049  1.1317
21196SOL    HW273903   7.247   9.299   5.987  3.4095 -1.1277  0.0515
21197SOL     OW73904   2.493   1.206   5.301 -0.3775 -0.6492  0.3835
21197SOL    HW173905   2.451   1.285   5.267 -0.5440 -1.3078 -1.0239
21197SOL    HW273906   2.503   1.223   5.395 -1.1241  0.7097  0.2516
21198SOL     OW73907   9.983   4.439   9.960  0.1414  0.5316  0.7006
21198SOL    HW173908  10.035   4.377  10.012 -2.4990 -0.9201  1.8006
21198SOL    HW273909   9.935   4.384   9.899  1.2043  2.0006 -1.5736
21199SOL     OW73910   9.481  11.447   5.901 -0.1442  0.0874 -0.4078
21199SOL    HW173911   9.480  11.355   5.874  0.0521  0.3971 -1.5199
21199SOL    HW273912   9.388  11.473   5.903 -0.1496  0.1732 -1.2482
21200SOL     OW73913   2.587  10.060  11.363 -0.5896  0.4928  0.4392
21200SOL    HW173914   2.519   9.993  11.355  0.4875 -0.4735 -1.1024
21200SOL    HW273915   2.667  10.016  11.335  0.5630  1.8126  1.5239
21201SOL     OW73916   7.503   5.215   7.648 -0.3555  0.2011  0.1308
21201SOL    HW173917   7.482   5.128   7.614  0.4660 -0.3115  0.8823
21201SOL    HW273918   7.464   5.276   7.586  0.1503 -0.7035 -1.1156
21202SOL     OW73919   7.386   6.785   7.337  0.7038  0.1937 -0.2700
21202SOL    HW173920   7.322   6.849   7.306 -2.0906 -1.3589  1.7747
21202SOL    HW273921   7.437   6.831   7.403 -1.2018  0.4047  1.1145
21203SOL     OW73922  10.738   8.355   5.966 -0.6692  0.2375  0.2668
21203SOL    HW173923  10.734   8.274   6.017 -1.3052 -0.6316 -1.0865
21203SOL    HW273924  10.824   8.392   5.985 -0.6272 -0.4225  1.4100
21204SOL     OW73925  10.705   9.200   0.316  0.3131  0.4663 -0.3519
21204SOL    HW173926  10.745   9.150   0.386 -0.9504 -0.6456 -0.3931
21204SOL    HW273927  10.694   9.138   0.244 -2.8889  0.2241  0.1885
21205SOL     OW73928   5.650  10.138   0.136  0.0686 -0.2641 -0.0609
21205SOL    HW173929   5.577  10.162   0.193  0.1910 -0.4550  0.1762
21205SOL    HW273930   5.693  10.221   0.115 -0.0905 -0.1737 -0.0332
21206SOL     OW73931   1.724   6.691   2.799  0.7227 -0.0392  0.3808
21206SOL    HW173932   1.698   6.657   2.713 -0.7494  0.4947  0.5954
21206SOL    HW273933   1.722   6.786   2.788  0.8768  0.0266  0.9178
21207SOL     OW73934  12.806   0.214   8.033 -0.0597 -0.4292 -0.3176
21207SOL    HW173935  12.851   0.143   7.987  0.7550  0.6142 -1.2045
21207SOL    HW273936  12.876   0.273   8.061 -0.7663  0.4648 -0.3794
21208SOL     OW73937  10.587   0.432   1.050 -0.2252  0.2018 -0.4682
21208SOL    HW173938  10.561   0.366   1.114 -0.5733  2.1007  1.4697
21208SOL    HW273939  10.602   0.511   1.102 -0.1527  1.7592 -2.7109
21209SOL     OW73940  11.801   2.415  10.834  0.0887  0.1911 -0.7844
21209SOL    HW173941  11.750   2.409  10.914  1.7754  3.7561  0.7989
21209SOL    HW273942  11.848   2.332  10.829 -1.2810 -0.7591  1.0075
21210SOL     OW73943   1.401   2.655   6.347  0.7182  0.4943  0.0436
21210SOL    HW173944   1.466   2.644   6.277  1.8550  1.1310  0.9542
21210SOL    HW273945   1.406   2.748   6.370 -0.8037  0.6375 -0.1127
21211SOL     OW73946   5.008   2.515   7.773  0.1400  0.1971 -0.2168
21211SOL    HW173947   5.099   2.539   7.790 -0.2189  0.2693  1.8062
21211SOL    HW273948   4.980   2.574   7.703  1.2051  1.2026  0.1820
21212SOL     OW73949  11.618   4.518   9.359 -0.4451  0.0454 -0.0907
21212SOL    HW173950  11.527   4.530   9.333 -0.0014  1.0392 -1.3070
21212SOL    HW273951  11.632   4.423   9.355 -1.8797 -0.2952  1.8324
21213SOL     OW73952   2.216  10.540   9.275 -0.4951 -0.3280  0.0179
21213SOL    HW173953   2.262  10.483   9.214 -0.3288  0.0853 -0.2467
21213SOL    HW273954   2.169  10.603   9.220  1.6839  1.6741  0.2905
21214SOL     OW73955  12.239   6.820   5.017 -0.1444 -0.1657 -0.7681
21214SOL    HW173956  12.162   6.763   5.015  0.0279 -0.3924 -1.0486
21214SOL    HW273957  12.308   6.767   5.056 -0.5675  0.6103  1.1382
21215SOL     OW73958   1.070  10.499   4.641 -0.0385 -0.0231 -0.1866
21215SOL    HW173959   1.036  10.533   4.724  0.0433  1.0198 -0.5567
21215SOL    HW273960   0.993  10.473   4.592 -0.3047  1.6601 -0.7375
21216SOL     OW73961   0.600   7.897  12.172 -0.5158  0.2028  0.1443
21216SOL    HW173962   0.657   7.890  12.249  0.6983  3.0766 -0.3719
21216SOL    HW273963   0.650   7.950  12.110 -2.5897  0.2979 -1.5415
21217SOL     OW73964   5.493   1.940  12.024  0.2379 -0.2042 -0.5545
21217SOL    HW173965   5.402   1.910  12.017  0.3461 -0.7924  0.3798
21217SOL    HW273966   5.528   1.893  12.100  1.4934 -0.4131 -1.2423
21218SOL     OW73967  11.377  12.956   2.973 -0.2552  0.0845  0.2275
21218SOL    HW173968  11.440  12.884   2.976 -0.0029  0.3348  1.7055
21218SOL    HW273969  11.293  12.915   2.994 -0.2528  0.0848  0.2375
21219SOL     OW73970  10.160   0.547  11.089  0.5461  0.2424  0.2541
21219SOL    HW173971  10.129   0.481  11.151  0.6007  0.7095  0.7999
21219SOL    HW273972  10.143   0.511  11.003  2.8337 -1.5853  0.4778
21220SOL     OW73973   7.256   4.357   8.600 -0.0346  0.7514 -0.3534
21220SOL    HW173974   7.246   4.390   8.511  0.4319 -0.7425 -0.9925
21220SOL    HW273975   7.290   4.432   8.650 -0.7903  1.7499 -1.2987
21221SOL     OW73976   8.720   8.144  10.621 -0.2019  0.0147  0.2463
21221SOL    HW173977   8.672   8.097  10.689 -0.3584 -0.1724  0.0064
21221SOL    HW273978   8.724   8.083  10.547 -0.0869  0.2398  0.0644
21222SOL     OW73979   1.408   5.306   8.454 -0.5504 -0.3456  0.5860
21222SOL    HW173980   1.461   5.325   8.377  1.6337 -1.4452  1.7079
21222SOL    HW273981   1.326   5.271   8.420  0.1572 -0.3261 -1.2298
21223SOL     OW73982  12.455   4.055   1.083 -0.0945 -0.9754  0.1538
21223SOL    HW173983  12.402   4.098   1.150  0.5688  3.0558 -1.6326
21223SOL    HW273984  12.391   4.025   1.018 -0.4700 -1.3027  0.6618
21224SOL     OW73985   5.833   6.688   3.845 -0.5458  0.4612  0.0009
21224SOL    HW173986   5.820   6.748   3.771  0.6289  1.3058  0.4490
21224SOL    HW273987   5.903   6.629   3.816 -0.1862  0.7005  0.3615
21225SOL     OW73988   5.997   2.593  10.070 -0.1161 -0.0158  0.2586
21225SOL    HW173989   6.053   2.615  10.144  1.6264 -0.6783 -0.7894
21225SOL    HW273990   6.038   2.638   9.996 -0.1630 -1.5978 -0.7825
21226SOL     OW73991  12.600   6.303   6.256 -0.0525  0.5508 -0.0469
21226SOL    HW173992  12.521   6.343   6.293 -0.4871 -0.7808  0.5674
21226SOL    HW273993  12.567   6.239   6.193  0.6271  1.3542 -1.2536
21227SOL     OW73994   9.890   4.588   3.806 -0.5778  0.3481  0.4830
21227SOL    HW173995   9.946   4.533   3.750 -0.9356 -0.0820  0.5457
21227SOL    HW273996   9.881   4.538   3.887  0.2798  1.1561  1.0972
21228SOL     OW73997  10.648   2.447   4.008  0.3343 -0.3182  0.3364
21228SOL    HW173998  10.685   2.460   4.095  1.0286 -0.7121  0.1108
21228SOL    HW273999  10.627   2.535   3.978  0.7999 -0.1075  0.6039
21229SOL     OW74000   4.109   4.248   1.850 -0.3066  0.2118 -0.0779
21229SOL    HW174001   4.165   4.170   1.849 -1.9775 -1.1006 -2.6092
21229SOL    HW274002   4.170   4.321   1.862  1.6832 -1.2662 -0.6004
21230SOL     OW74003   8.819   1.518   3.377  0.0659 -0.1071  0.0360
21230SOL    HW174004   8.838   1.436   3.331 -0.5013  1.1863 -2.6939
21230SOL    HW274005   8.898   1.536   3.428  1.4591 -0.7758 -1.8016
21231SOL     OW74006   0.697   3.713   6.976 -0.1893  0.8368  0.3688
21231SOL    HW174007   0.672   3.708   6.884  0.0959  1.5563  0.2418
21231SOL    HW274008   0.633   3.772   7.016  0.0513  1.0173  0.4937
21232SOL     OW74009   8.853   6.745   3.756 -0.6286 -0.2634 -0.2983
21232SOL    HW174010   8.794   6.746   3.832  1.0738 -1.7933  1.1334
21232SOL    HW274011   8.940   6.740   3.793  0.3399 -0.1097 -2.3951
21233SOL     OW74012   4.853  11.567   5.405  0.2706  0.2961 -0.5019
21233SOL    HW174013   4.933  11.615   5.423  0.6035  0.2862 -1.9031
21233SOL    HW274014   4.798  11.584   5.482  1.9466 -0.4861  0.9560
21234SOL     OW74015  12.858   3.763   1.064  0.3648 -0.1523  0.1453
21234SOL    HW174016  12.879   3.677   1.100  0.0575 -0.1288  0.3927
21234SOL    HW274017  12.771   3.783   1.099 -0.1152 -0.2919 -0.9207
21235SOL     OW74018   0.108   2.667   6.257 -0.3159  0.3257  0.4529
21235SOL    HW174019   0.093   2.749   6.210 -0.3081  0.0412 -0.0611
21235SOL    HW274020   0.190   2.680   6.304 -0.5399  0.7658  0.7234
21236SOL     OW74021   8.424   8.242  10.085  0.1653  0.8961 -0.3423
21236SOL    HW174022   8.348   8.184  10.080 -0.8573  1.7533  2.7955
21236SOL    HW274023   8.491   8.191  10.132  1.3842  0.3765 -2.5186
21237SOL     OW74024  11.943  11.765   2.845  0.3593  0.2826 -0.0118
21237SOL    HW174025  11.903  11.723   2.769  0.6874  0.8922 -0.5294
21237SOL    HW274026  12.022  11.712   2.862 -0.1426 -0.3494  0.4290
21238SOL     OW74027   8.757   5.104   2.413 -0.2359  0.3407 -0.1774
21238SOL    HW174028   8.718   5.182   2.455 -2.2936  0.1077 -1.5032
21238SOL    HW274029   8.828   5.138   2.359  0.2079  1.0346  0.8097
21239SOL     OW74030   6.439   0.077   8.031 -0.0948  0.1087  0.4239
21239SOL    HW174031   6.384   0.102   8.105 -0.4111  0.0214  0.2214
21239SOL    HW274032   6.513   0.030   8.071 -0.0163  0.4825  0.7184
21240SOL     OW74033  11.746   2.160   9.625  0.2873  0.1938  0.0629
21240SOL    HW174034  11.795   2.078   9.627 -0.5074 -0.3071 -0.4096
21240SOL    HW274035  11.798   2.220   9.679  1.4395 -0.2932 -0.4715
21241SOL     OW74036   0.724  11.312   4.730 -0.4579 -0.6766  0.3857
21241SOL    HW174037   0.628  11.320   4.732 -0.3137  1.6892  0.1892
21241SOL    HW274038   0.755  11.371   4.799  0.8783 -1.9603  0.9440
21242SOL     OW74039   6.512  10.620   7.654 -0.3543  0.2806  0.3137
21242SOL    HW174040   6.574  10.690   7.633 -1.1448  0.4326 -1.7789
21242SOL    HW274041   6.566  10.546   7.679  0.6955  0.5530 -1.0135
21243SOL     OW74042  12.538   6.986   9.102  0.0753  0.6415 -0.0399
21243SOL    HW174043  12.499   6.898   9.097  0.9118  0.2786 -0.3399
21243SOL    HW274044  12.472   7.038   9.148 -0.7491  0.0355 -0.4954
21244SOL     OW74045   8.929   4.477   3.665  0.3122  0.8063  0.4666
21244SOL    HW174046   8.922   4.476   3.761 -1.5029 -0.9196  0.3842
21244SOL    HW274047   8.877   4.402   3.636  0.9128  1.2070 -1.8893
21245SOL     OW74048   2.107   6.978   1.359  0.1587 -0.0569  0.7040
21245SOL    HW174049   2.044   7.015   1.297  0.1395 -0.7134  0.3212
21245SOL    HW274050   2.170   6.932   1.304  1.1673  0.8510  1.0566
21246SOL     OW74051   5.397   9.522   9.306 -0.1134 -0.1268 -0.4116
21246SOL    HW174052   5.371   9.440   9.265 -0.0854  0.1768 -1.0478
21246SOL    HW274053   5.361   9.590   9.249 -1.2547  0.3323  0.7887
21247SOL     OW74054   6.629  12.597  10.653 -0.1238 -0.2838 -0.6962
21247SOL    HW174055   6.652  12.688  10.674  0.6970 -0.3804 -1.1597
21247SOL    HW274056   6.589  12.602  10.566 -1.7632 -0.1452  0.0092
21248SOL     OW74057   4.045   6.329   8.324 -0.1515  0.5122 -0.5794
21248SOL    HW174058   4.069   6.413   8.363 -0.6544  0.1767  0.5066
21248SOL    HW274059   4.050   6.267   8.397  2.6946 -0.9373 -1.8390
21249SOL     OW74060   7.145   7.106   3.959 -0.1280  0.0187 -0.2859
21249SOL    HW174061   7.162   7.013   3.944  0.3942  0.1141 -0.2993
21249SOL    HW274062   7.201   7.151   3.896 -2.0989  0.3061 -1.9085
21250SOL     OW74063   7.588   0.617  12.642 -0.5127  0.0775 -0.0413
21250SOL    HW174064   7.684   0.611  12.637 -0.5564 -0.6791 -0.1731
21250SOL    HW274065   7.571   0.682  12.710  0.0946  0.9062 -0.6512
21251SOL     OW74066  11.715   3.480   7.007  0.1581 -0.3179 -0.4096
21251SOL    HW174067  11.789   3.541   7.009  0.1597 -0.2855 -1.0577
21251SOL    HW274068  11.676   3.495   6.921  1.1209 -2.3719 -1.2580
21252SOL     OW74069  12.160   3.817   4.582  0.4711 -0.0502 -0.1159
21252SOL    HW174070  12.207   3.900   4.573 -0.8668  0.9575  1.5960
21252SOL    HW274071  12.211   3.766   4.645  0.1812  0.3601  0.4586
21253SOL     OW74072  10.283   4.462   7.105  0.0025 -0.2591 -0.8846
21253SOL    HW174073  10.257   4.553   7.096 -1.4827 -0.3141  1.7784
21253SOL    HW274074  10.339   4.460   7.183 -1.2906 -1.7784  0.0773
21254SOL     OW74075   0.806  11.487  10.645 -0.4681 -0.2307 -0.1226
21254SOL    HW174076   0.730  11.525  10.601  0.0821 -0.3230 -1.1835
21254SOL    HW274077   0.825  11.548  10.717  0.3205  1.4982 -1.7047
21255SOL     OW74078  10.496  12.977  12.472  0.5081  0.3717  0.5466
21255SOL    HW174079  10.414  12.971  12.522 -0.0353  2.8568  0.1107
21255SOL    HW274080  10.467  12.985  12.381  1.2547  0.8009  0.3413
21256SOL     OW74081   9.480   9.126  11.973  0.9037 -0.1798 -0.1991
21256SOL    HW174082   9.489   9.221  11.965 -0.7366  0.1656  1.3428
21256SOL    HW274083   9.492   9.093  11.885  0.3905  1.5717 -0.9732
21257SOL     OW74084   6.807   2.388   9.431 -0.4293  0.1989  0.5311
21257SOL    HW174085   6.827   2.442   9.355 -1.0034 -0.0075  0.2259
21257SOL    HW274086   6.777   2.305   9.395  0.7545 -0.4604  1.0013
21258SOL     OW74087   8.085   0.709   4.869  0.0361  0.5512  0.4117
21258SOL    HW174088   7.992   0.714   4.891 -0.4353  0.9889 -1.5531
21258SOL    HW274089   8.092   0.639   4.805  1.1382  0.2323  0.8546
21259SOL     OW74090  11.284   2.869   9.818  0.3220 -0.2922  0.0157
21259SOL    HW174091  11.236   2.796   9.778  0.0755 -1.0556  1.6462
21259SOL    HW274092  11.376   2.847   9.805  0.2766  0.1769 -1.3310
21260SOL     OW74093   1.662   1.676   5.078 -0.5358 -0.1385  0.6140
21260SOL    HW174094   1.716   1.672   5.156  0.9299 -0.1048 -0.3627
21260SOL    HW274095   1.676   1.592   5.034  0.4307  0.6733 -0.7213
21261SOL     OW74096  12.451   7.555   9.783  0.5804 -0.3385  0.7192
21261SOL    HW174097  12.400   7.611   9.842 -0.1136 -0.0999 -0.0936
21261SOL    HW274098  12.455   7.603   9.701  1.5042 -0.6896  0.5465
21262SOL     OW74099   9.083  11.943   6.480  0.2120  0.1498 -0.3242
21262SOL    HW174100   9.047  11.905   6.400 -3.1405  0.3055  0.9168
21262SOL    HW274101   9.066  12.036   6.472  1.7115  0.4584 -0.2314
21263SOL     OW74102   3.498  10.385   8.393 -0.3063  0.2821  0.4861
21263SOL    HW174103   3.592  10.388   8.414  0.1490  2.4484 -1.3714
21263SOL    HW274104   3.482  10.293   8.370  1.7398  0.1008 -0.5038
21264SOL     OW74105   7.906   9.690   1.524 -0.1107 -0.9657  0.4449
21264SOL    HW174106   7.948   9.617   1.479  1.4123  0.6087 -0.8340
21264SOL    HW274107   7.927   9.676   1.616  2.0113 -1.0609  0.0076
21265SOL     OW74108   8.232   1.019   1.365 -0.4255 -0.1409  0.3139
21265SOL    HW174109   8.169   0.990   1.430 -0.7013  0.1212  0.1731
21265SOL    HW274110   8.250   0.942   1.312  0.9376 -0.7338  1.5949
21266SOL     OW74111   8.154   0.230   2.273 -0.4973  0.5152 -0.3696
21266SOL    HW174112   8.135   0.136   2.281  0.4293  0.4463  1.4781
21266SOL    HW274113   8.068   0.271   2.260 -1.1829 -0.3803  1.1564
21267SOL     OW74114   8.788   3.535   3.967  0.9859  0.2124  0.1865
21267SOL    HW174115   8.701   3.498   3.951  1.2931 -0.6555  0.4686
21267SOL    HW274116   8.771   3.611   4.022  0.6157 -1.8072  3.0673
21268SOL     OW74117   0.167   5.327   1.986 -0.4879  0.2212  0.3111
21268SOL    HW174118   0.160   5.361   2.076 -0.5719 -2.4741  1.4253
21268SOL    HW274119   0.079   5.338   1.950 -0.1300  2.5920 -0.0238
21269SOL     OW74120   7.968   4.171   3.169  0.6847 -0.2880 -0.2399
21269SOL    HW174121   7.986   4.161   3.075 -0.0650 -0.4408 -0.3722
21269SOL    HW274122   8.047   4.213   3.204  0.4042  1.1124 -1.2017
21270SOL     OW74123  12.356  10.198  11.624 -0.1836 -0.3014 -0.6199
21270SOL    HW174124  12.413  10.125  11.599 -1.0196 -1.4338  0.6568
21270SOL    HW274125  12.273  10.180  11.580  0.0084  0.5926 -1.3529
21271SOL     OW74126   2.137   8.064   4.953  0.7354 -0.1064 -0.6180
21271SOL    HW174127   2.046   8.040   4.938  0.1691  1.8196 -0.5381
21271SOL    HW274128   2.147   8.065   5.048  0.4501  0.8870 -0.5807
21272SOL     OW74129   0.150   9.640   9.586  0.1104 -0.0395  0.0063
21272SOL    HW174130   0.147   9.623   9.680 -0.5484 -0.3324 -0.0613
21272SOL    HW274131   0.120   9.558   9.546 -0.5720  0.4084 -0.4176
21273SOL     OW74132  12.831   5.952  12.941  0.8861  0.1957  0.0585
21273SOL    HW174133  12.875   5.879  12.897  1.0484  0.8987 -0.9795
21273SOL    HW274134  12.901   6.016  12.957  0.6448  0.3619  0.4595
21274SOL     OW74135   9.213   7.738   3.337 -0.6310  0.0167 -0.0061
21274SOL    HW174136   9.290   7.794   3.324  0.5899 -1.9177 -1.9464
21274SOL    HW274137   9.143   7.783   3.289  0.0453  0.4408 -0.6371
21275SOL     OW74138  11.467   7.834   1.417  0.2841 -0.6334  0.6869
21275SOL    HW174139  11.402   7.904   1.430 -1.0933 -1.6512 -0.4297
21275SOL    HW274140  11.522   7.865   1.345 -1.1329 -1.2045 -0.6958
21276SOL     OW74141  11.095   9.644   1.389 -0.3948 -0.1166  0.1463
21276SOL    HW174142  11.177   9.641   1.438  0.0951 -0.0992 -0.6697
21276SOL    HW274143  11.120   9.670   1.301 -1.3661  0.6195  0.0712
21277SOL     OW74144   1.813  11.222   0.442  0.0028 -0.1089  0.2586
21277SOL    HW174145   1.754  11.203   0.516 -0.5257  0.1094 -0.1024
21277SOL    HW274146   1.827  11.316   0.446 -2.0494  0.3216 -1.3896
21278SOL     OW74147   0.982   4.787   0.568  0.3365  0.0208 -0.5518
21278SOL    HW174148   0.992   4.823   0.480  0.2313  0.0969 -0.5340
21278SOL    HW274149   0.905   4.730   0.562  0.4691 -0.1583 -0.5658
21279SOL     OW74150  11.772   7.267   2.863 -0.4849  0.2866 -0.0042
21279SOL    HW174151  11.680   7.248   2.842 -0.0717 -1.1248 -0.6745
21279SOL    HW274152  11.821   7.222   2.795  0.7710 -0.2159  1.2009
21280SOL     OW74153  10.593   3.557   1.739 -0.4841  0.1668 -0.0969
21280SOL    HW174154  10.600   3.462   1.732 -2.1972  0.1109 -1.6810
21280SOL    HW274155  10.606   3.589   1.650 -0.7064  1.3490  0.2766
21281SOL     OW74156   4.789   5.552  12.629  0.2559  0.2566  0.3755
21281SOL    HW174157   4.839   5.539  12.549  0.6007 -1.6034  0.8479
21281SOL    HW274158   4.851   5.588  12.692  1.0047 -1.7875  0.8776
21282SOL     OW74159   3.497   4.177   8.115 -0.3131  0.0269 -0.8431
21282SOL    HW174160   3.501   4.133   8.029  0.7690 -1.7263  0.0320
21282SOL    HW274161   3.494   4.270   8.094 -2.1489 -0.3987 -2.8010
21283SOL     OW74162   3.648  10.583  12.281 -0.1677 -0.0354 -0.1103
21283SOL    HW174163   3.719  10.606  12.221 -0.2683 -0.0928 -0.2539
21283SOL    HW274164   3.651  10.487  12.285  0.9636  0.0223  1.3585
21284SOL     OW74165   9.169   9.397   2.915 -0.4050 -0.1440  0.1253
21284SOL    HW174166   9.074   9.384   2.905 -0.4448 -1.9937  1.9269
21284SOL    HW274167   9.206   9.311   2.896  1.2668  1.1203 -2.9961
21285SOL     OW74168   7.255   0.254  12.816  0.9130  0.3675  0.9162
21285SOL    HW174169   7.286   0.345  12.809  1.5520  0.1078  0.1886
21285SOL    HW274170   7.224   0.233  12.727  1.3006 -0.3125  0.9378
21286SOL     OW74171   9.863   8.807   3.578  0.1661  0.1076  0.1268
21286SOL    HW174172   9.804   8.803   3.503 -1.2683  0.4462  1.1858
21286SOL    HW274173   9.941   8.851   3.546 -0.1605 -0.3039 -1.3079
21287SOL     OW74174   2.375  12.931   8.482 -0.0167  0.3422 -0.5156
21287SOL    HW174175   2.393  12.992   8.554 -0.4472 -0.0733 -0.0454
21287SOL    HW274176   2.324  12.982   8.419  0.1041  0.6261 -0.3838
21288SOL     OW74177   4.119   0.238   9.930  0.0912  0.3451  0.1996
21288SOL    HW174178   4.090   0.208  10.016 -0.0956  1.4878  0.5489
21288SOL    HW274179   4.185   0.305   9.949 -0.3031  0.9578 -0.5258
21289SOL     OW74180  11.074   0.689  11.179 -0.3885  0.1425  0.5016
21289SOL    HW174181  11.065   0.663  11.271 -1.7430  1.4841  0.7825
21289SOL    HW274182  11.136   0.762  11.181  1.4235 -1.3140  0.0205
21290SOL     OW74183   6.968   7.223  10.012  0.8517 -0.2118  0.0357
21290SOL    HW174184   6.886   7.198  10.054  0.6621 -0.1076 -0.2652
21290SOL    HW274185   6.941   7.261   9.928  1.2496 -1.1236 -0.5327
21291SOL     OW74186   4.863   4.465   3.492  0.3819  0.2484  0.2455
21291SOL    HW174187   4.915   4.519   3.432  1.9630  1.8659  2.8714
21291SOL    HW274188   4.901   4.378   3.485  0.6152  0.4321 -0.9721
21292SOL     OW74189   0.245   0.661  12.589 -0.0169  0.2311 -0.0531
21292SOL    HW174190   0.201   0.609  12.657 -0.6871 -1.1774 -1.4989
21292SOL    HW274191   0.216   0.751  12.606 -0.1606 -0.0748  1.5113
21293SOL     OW74192   7.613   8.636   0.470 -0.7979  0.6790  0.2142
21293SOL    HW174193   7.703   8.665   0.485 -1.0788  1.1529  1.0821
21293SOL    HW274194   7.600   8.644   0.376  0.2465  0.0763  0.0132
21294SOL     OW74195   0.406   2.757   4.152  0.2211  0.0514 -0.3561
21294SOL    HW174196   0.323   2.750   4.103 -0.1366  2.5066 -0.2510
21294SOL    HW274197   0.440   2.843   4.128  0.9742  0.5751  2.2827
21295SOL     OW74198   1.601   3.745   1.292 -0.0553  0.0391 -1.0166
21295SOL    HW174199   1.577   3.656   1.317  1.9612 -0.7483 -1.6308
21295SOL    HW274200   1.569   3.754   1.203 -2.0990  0.7446 -0.2784
21296SOL     OW74201   3.288   1.019  11.470 -0.2401  0.3987  0.0155
21296SOL    HW174202   3.325   0.988  11.552 -0.7528 -1.3541 -0.3679
21296SOL    HW274203   3.261   1.109  11.488  0.6400  0.4119  1.4260
21297SOL     OW74204   7.831   7.293   8.701 -0.2982 -0.2625 -0.7374
21297SOL    HW174205   7.772   7.240   8.648  0.2489 -1.0803 -0.5474
21297SOL    HW274206   7.777   7.324   8.774 -1.0549  0.8749 -1.7498
21298SOL     OW74207  12.309   4.552  11.245 -0.0904 -0.1531  0.1324
21298SOL    HW174208  12.392   4.504  11.240  1.0309  1.6638  0.6326
21298SOL    HW274209  12.264   4.514  11.321  1.7466  1.0003  1.8744
21299SOL     OW74210   1.828  10.841  12.084  1.3392  0.0396 -0.6967
21299SOL    HW174211   1.816  10.935  12.073  2.9568  0.4642  0.6600
21299SOL    HW274212   1.764  10.815  12.150  0.1617 -0.0625 -1.8359
21300SOL     OW74213  11.325   4.751  11.644  0.5209  0.1022  0.0656
21300SOL    HW174214  11.286   4.692  11.579 -0.2615  0.9640 -0.2680
21300SOL    HW274215  11.261   4.752  11.715  0.5325  0.5539  0.0687
21301SOL     OW74216  10.783   2.718   9.008  0.1070  0.5789 -0.1017
21301SOL    HW174217  10.878   2.718   8.998  0.0251  0.8328 -1.0202
21301SOL    HW274218  10.750   2.703   8.919 -0.7457  3.0080 -0.2717
21302SOL     OW74219  10.696   5.064   7.566 -0.2553  0.0969 -0.3894
21302SOL    HW174220  10.710   4.980   7.523 -1.3901  0.2728 -1.1421
21302SOL    HW274221  10.723   5.129   7.501 -0.5390  0.3315 -0.2753
21303SOL     OW74222   3.173   2.055   9.842  0.2429 -0.2664  0.2952
21303SOL    HW174223   3.115   2.117   9.887  1.8312  0.9858  0.7326
21303SOL    HW274224   3.242   2.036   9.907  1.4148 -0.1020 -0.8632
21304SOL     OW74225   6.486  10.231   5.517  0.0695  0.1201  0.3236
21304SOL    HW174226   6.571  10.255   5.480 -1.0807  0.2323 -2.4310
21304SOL    HW274227   6.472  10.141   5.489  0.2377 -0.7474  2.7697
21305SOL     OW74228   6.535   1.860   5.077 -0.1388  0.3168 -0.3383
21305SOL    HW174229   6.565   1.890   4.992  1.3195 -0.3028 -0.0738
21305SOL    HW274230   6.471   1.791   5.057  0.2706  0.1040 -0.9343
21306SOL     OW74231   9.782  11.227   0.466  0.1139 -0.4646 -0.0005
21306SOL    HW174232   9.721  11.200   0.535  0.3404 -0.5076  0.1843
21306SOL    HW274233   9.795  11.321   0.481 -2.1139  0.2052 -1.7544
21307SOL     OW74234  10.739   5.234  10.626  0.2340 -1.2020  0.4280
21307SOL    HW174235  10.702   5.194  10.548 -0.5908 -1.3685  0.8892
21307SOL    HW274236  10.834   5.225  10.615  0.1579 -0.6756 -0.8294
21308SOL     OW74237   6.083   4.369   8.096 -0.3712 -0.7276  0.0568
21308SOL    HW174238   6.094   4.274   8.095 -0.7781 -0.7805  0.2253
21308SOL    HW274239   5.994   4.382   8.128 -0.9164 -0.3444 -1.5113
21309SOL     OW74240  10.935   7.624   9.584 -0.2857 -0.2845 -0.3349
21309SOL    HW174241  10.945   7.720   9.586 -1.2328 -0.1782 -0.5673
21309SOL    HW274242  10.851   7.608   9.626 -0.2289 -1.0036 -0.4946
21310SOL     OW74243   8.749   3.150   2.309 -0.7041  0.2481  0.4941
21310SOL    HW174244   8.725   3.140   2.401  0.9247  0.1491  0.9460
21310SOL    HW274245   8.708   3.075   2.265 -0.4827 -0.3956  1.3624
21311SOL     OW74246   5.558   6.777   1.464 -0.4432  0.1566 -0.1828
21311SOL    HW174247   5.652   6.760   1.468 -0.5696 -0.3613  1.7177
21311SOL    HW274248   5.550   6.871   1.452  0.2947  0.1221 -1.0249
21312SOL     OW74249   6.897   3.948   3.014 -0.0427 -0.4961  0.1760
21312SOL    HW174250   6.965   3.996   3.061  0.7612  0.0363 -1.4630
21312SOL    HW274251   6.946   3.888   2.956 -0.9886 -0.9688 -0.1520
21313SOL     OW74252  11.037   6.705   0.773 -0.4459  0.5833  0.0355
21313SOL    HW174253  11.000   6.629   0.818  1.0626 -0.5908 -0.6431
21313SOL    HW274254  11.109   6.734   0.829  2.3669 -1.7472 -2.0821
21314SOL     OW74255   1.723   2.652   4.079  0.1488  0.4200  0.0455
21314SOL    HW174256   1.785   2.703   4.027 -0.6173  0.4227 -0.8815
21314SOL    HW274257   1.765   2.644   4.165  1.1441  0.9541 -0.3773
21315SOL     OW74258   7.137  10.552   5.833 -0.6410  0.4677 -0.1667
21315SOL    HW174259   7.172  10.554   5.744 -0.1079 -1.8721 -0.0655
21315SOL    HW274260   7.043  10.569   5.821 -0.8118 -1.0547 -1.3579
21316SOL     OW74261   6.522  12.443   0.975  0.0431  0.0567 -0.0710
21316SOL    HW174262   6.591  12.403   1.029 -1.1678 -0.7659  0.9296
21316SOL    HW274263   6.569  12.477   0.899  1.5728 -0.3611  0.6251
21317SOL     OW74264   5.187   9.676   5.710 -0.0956 -0.1379  0.0235
21317SOL    HW174265   5.175   9.644   5.800 -1.2393 -1.4568 -0.5746
21317SOL    HW274266   5.265   9.630   5.679  0.2253  0.2229  0.2644
21318SOL     OW74267   8.597   6.566   8.949  0.5499  0.0703  0.1176
21318SOL    HW174268   8.633   6.530   8.868 -2.9678  0.7230 -1.9214
21318SOL    HW274269   8.604   6.661   8.938 -0.7126  0.1784  0.1903
21319SOL     OW74270  11.792  12.693   9.044  0.4269 -0.2293  0.2324
21319SOL    HW174271  11.702  12.690   9.077 -0.2665  0.4371 -1.4809
21319SOL    HW274272  11.846  12.700   9.123 -1.0164 -0.5068  1.2973
21320SOL     OW74273   5.923   8.423   8.344  0.3481 -0.0799 -0.0901
21320SOL    HW174274   5.982   8.360   8.303 -0.0371  0.4620 -1.5468
21320SOL    HW274275   5.887   8.377   8.419  1.8458 -0.7655  0.2321
21321SOL     OW74276  12.402   8.766   5.722 -0.1258  0.5781 -0.0542
21321SOL    HW174277  12.468   8.829   5.752 -0.4013  0.5938  0.5359
21321SOL    HW274278  12.392   8.785   5.629  2.4010 -0.9697 -0.7299
21322SOL     OW74279   7.083  10.151  12.373  0.0064 -0.1109  0.5940
21322SOL    HW174280   7.026  10.088  12.328  0.8011 -0.1758 -0.3531
21322SOL    HW274281   7.106  10.107  12.455 -1.3883 -0.0279  1.0532
21323SOL     OW74282  10.899  11.278  12.305  0.0291 -0.0855  0.1323
21323SOL    HW174283  10.906  11.193  12.349  0.6397  0.2819  0.7639
21323SOL    HW274284  10.805  11.291  12.293 -0.2283  0.1976  2.1467
21324SOL     OW74285   7.518   1.871   1.879  0.1541  0.3637  0.3935
21324SOL    HW174286   7.504   1.828   1.963 -0.6364  0.1076  0.1419
21324SOL    HW274287   7.611   1.897   1.880 -0.0065  0.9934  1.6259
21325SOL     OW74288  10.759   8.112   9.651  0.5566 -0.3421  0.1395
21325SOL    HW174289  10.815   8.190   9.646  0.1345  0.0043  0.6687
21325SOL    HW274290  10.704   8.127   9.728  0.9129 -1.4666  0.6395
21326SOL     OW74291   1.679  10.822   2.769  0.0089 -0.2441 -0.0819
21326SOL    HW174292   1.669  10.789   2.680  1.0296  0.8023 -0.6270
21326SOL    HW274293   1.590  10.834   2.801 -0.4222 -3.0795  0.0369
21327SOL     OW74294  11.992   8.913   4.043  0.1059  0.2832  0.2949
21327SOL    HW174295  11.924   8.853   4.015 -2.0213  2.0578  1.3773
21327SOL    HW274296  11.999   8.899   4.138 -1.3017  2.4494  0.7996
21328SOL     OW74297  12.948   7.067   3.601 -0.0841  0.1767  0.4499
21328SOL    HW174298  12.892   7.065   3.523 -1.8974  0.7998  1.6619
21328SOL    HW274299  13.033   7.098   3.569 -0.8460  0.6506 -1.2408
21329SOL     OW74300   5.137   7.987  12.692 -0.5892 -0.3717 -0.0181
21329SOL    HW174301   5.106   7.915  12.637  0.2053  0.0405 -1.0306
21329SOL    HW274302   5.124   7.956  12.782  0.2184 -1.9997 -0.4322
21330SOL     OW74303  12.677   9.707  12.819  0.5600 -0.0100  0.0090
21330SOL    HW174304  12.693   9.798  12.844  1.1948 -0.1788  0.2342
21330SOL    HW274305  12.665   9.661  12.902  1.6042 -0.3755 -0.0341
21331SOL     OW74306   9.610   7.768   2.177  0.2431 -0.0669  0.2232
21331SOL    HW174307   9.673   7.827   2.134  0.5708 -1.2328 -0.9665
21331SOL    HW274308   9.562   7.824   2.237  1.3694  1.1698  0.0145
21332SOL     OW74309   8.781   5.999   4.342  0.3504 -0.2406 -0.4429
21332SOL    HW174310   8.691   6.017   4.313 -1.3049 -2.4003  2.7518
21332SOL    HW274311   8.795   5.907   4.321  1.2425 -0.3272  0.4638
21333SOL     OW74312   0.690   5.401   0.577 -0.0259  0.2794 -0.2452
21333SOL    HW174313   0.670   5.334   0.511  1.0644 -1.6315  1.2541
21333SOL    HW274314   0.699   5.482   0.527  1.8786 -1.2667 -2.6417
21334SOL     OW74315   9.570   1.545  12.198 -0.2181 -0.1834 -0.1186
21334SOL    HW174316   9.657   1.558  12.160  0.0048  0.5434  0.6192
21334SOL    HW274317   9.530   1.477  12.144 -0.4949  1.8252 -2.6468
21335SOL     OW74318  11.811   8.424  10.801  0.2168 -0.3471  0.1035
21335SOL    HW174319  11.783   8.332  10.800  0.1015 -0.3058 -0.3870
21335SOL    HW274320  11.786   8.455  10.888  1.5230 -1.1741  0.8128
21336SOL     OW74321   6.762   3.085   5.260  0.0019 -0.0401 -0.0440
21336SOL    HW174322   6.733   3.061   5.172 -0.1017 -2.7242  0.6626
21336SOL    HW274323   6.716   3.025   5.318  0.2002  1.5520  1.8845
21337SOL     OW74324   8.172   7.740   5.908 -0.1632  0.3907  0.3358
21337SOL    HW174325   8.258   7.769   5.877  0.1061 -0.9594 -0.2306
21337SOL    HW274326   8.186   7.652   5.941 -1.1039  0.5964  1.3833
21338SOL     OW74327  11.515   4.418   5.252 -0.3633 -0.0825  0.0184
21338SOL    HW174328  11.552   4.332   5.233  0.4603  0.4892 -1.0908
21338SOL    HW274329  11.523   4.427   5.347 -0.0871 -1.0550  0.1028
21339SOL     OW74330   2.069   1.082  12.982 -0.1584 -0.2859 -0.4714
21339SOL    HW174331   2.040   1.173  12.995  1.3485  0.3505 -1.3118
21339SOL    HW274332   2.067   1.069  12.888  2.6736 -0.0043 -0.6525
21340SOL     OW74333  10.537   3.549   6.838  0.4020 -0.1544  0.3405
21340SOL    HW174334  10.499   3.584   6.918 -0.3164  0.8423 -0.4187
21340SOL    HW274335  10.573   3.464   6.864 -1.0277 -0.4598  1.4098
21341SOL     OW74336   5.117   5.585   4.425 -0.3350  0.1420 -0.5035
21341SOL    HW174337   5.089   5.512   4.480  1.8643 -0.8787 -0.6520
21341SOL    HW274338   5.132   5.657   4.487  1.0040 -0.6533  0.1304
21342SOL     OW74339   3.985   8.478   3.474 -0.2462 -0.1534 -0.1914
21342SOL    HW174340   3.930   8.506   3.401  1.3768 -1.3958 -2.0102
21342SOL    HW274341   3.961   8.386   3.489  0.4966 -0.3637 -0.2300
21343SOL     OW74342   0.442  12.629   7.484  0.0501 -0.7005 -0.1141
21343SOL    HW174343   0.368  12.689   7.498  1.9303  1.5472  0.9655
21343SOL    HW274344   0.463  12.596   7.571  0.9814 -0.4072 -0.2131
21344SOL     OW74345   4.330   1.175   3.315 -0.2718  0.7075  0.3416
21344SOL    HW174346   4.304   1.083   3.309  1.1166  0.3730 -1.4127
21344SOL    HW274347   4.425   1.173   3.329 -0.4342  1.8996  2.0014
21345SOL     OW74348   3.270   6.129   4.338  0.5205 -0.1024  0.2487
21345SOL    HW174349   3.288   6.036   4.326 -0.0439 -0.2054  0.1835
21345SOL    HW274350   3.321   6.172   4.269  0.3565 -0.4052 -0.0679
21346SOL     OW74351   1.617   5.611  11.977  0.4251 -0.2335 -0.3703
21346SOL    HW174352   1.587   5.560  12.052  0.6166 -1.6048 -1.1858
21346SOL    HW274353   1.653   5.546  11.917  0.4899  0.8562 -1.5547
21347SOL     OW74354   4.312   4.849   7.828  0.4209 -0.0446  0.3604
21347SOL    HW174355   4.296   4.808   7.913  0.8329 -0.5596  0.1899
21347SOL    HW274356   4.394   4.810   7.797  0.2458  0.1003 -0.2971
21348SOL     OW74357   4.885   7.385   8.107 -0.2431 -0.0733  0.4663
21348SOL    HW174358   4.961   7.434   8.077 -0.9683  0.6326 -0.2662
21348SOL    HW274359   4.846   7.349   8.027  1.1442 -3.2526  1.0501
21349SOL     OW74360   0.148   7.378   9.787  0.1667 -0.2629  0.0708
21349SOL    HW174361   0.142   7.286   9.759 -0.0401 -0.2208 -0.0206
21349SOL    HW274362   0.100   7.380   9.870  0.6887 -0.3647  0.3817
21350SOL     OW74363  10.019   9.285   0.853  0.0388  0.1416 -0.2487
21350SOL    HW174364  10.021   9.335   0.934  2.6543  1.0343 -0.7502
21350SOL    HW274365  10.004   9.350   0.784 -1.7344 -0.5464 -0.5487
21351SOL     OW74366  10.103  12.391   3.257 -0.7490  0.1826  0.2610
21351SOL    HW174367  10.157  12.352   3.326 -0.2968  0.8037  0.2674
21351SOL    HW274368  10.125  12.342   3.178  0.0650  0.6409  0.2008
21352SOL     OW74369  12.764   4.873   0.549  0.1639 -0.3906 -0.4328
21352SOL    HW174370  12.753   4.966   0.531  0.5650 -0.1665  0.4343
21352SOL    HW274371  12.689   4.832   0.505  0.1314  0.3007 -1.0507
21353SOL     OW74372   7.234   7.753   1.189 -0.5937  0.0025  0.5240
21353SOL    HW174373   7.208   7.699   1.264  0.5608 -0.9071  0.3054
21353SOL    HW274374   7.321   7.786   1.213 -0.4808  0.2054 -0.1464
21354SOL     OW74375  11.191  10.727  11.891 -0.1028 -0.0472  0.3495
21354SOL    HW174376  11.190  10.745  11.797  0.5285 -0.2111  0.3102
21354SOL    HW274377  11.266  10.669  11.904 -1.8248 -2.3692  0.5292
21355SOL     OW74378   3.067   4.525   3.563 -0.5489  0.2065 -0.1716
21355SOL    HW174379   3.031   4.566   3.642 -0.8416  0.6178 -0.5127
21355SOL    HW274380   3.158   4.552   3.561 -0.1737 -0.9224  0.7523
21356SOL     OW74381   0.777   5.615   2.954 -0.2409  0.2968  0.2097
21356SOL    HW174382   0.687   5.604   2.924 -0.2847  2.5986 -0.7282
21356SOL    HW274383   0.774   5.594   3.048 -1.9137  1.0361  0.3469
21357SOL     OW74384   1.284  11.691  12.016 -0.1642  0.1905 -0.5323
21357SOL    HW174385   1.293  11.782  12.046  0.1198 -0.2644  0.8266
21357SOL    HW274386   1.370  11.652  12.030 -0.4635 -0.4652 -0.4807
21358SOL     OW74387   4.210   0.466  11.834 -0.1054  0.1909  0.9063
21358SOL    HW174388   4.211   0.394  11.772  0.4438  0.9000  0.0581
21358SOL    HW274389   4.140   0.445  11.895 -1.7934  0.2487 -0.9134
21359SOL     OW74390   8.168  11.961  12.598 -0.0209 -0.1896  0.2407
21359SOL    HW174391   8.194  11.981  12.508  0.5439 -2.3808 -0.1397
21359SOL    HW274392   8.078  11.930  12.590 -0.9086  2.0310  0.8282
21360SOL     OW74393  11.580   7.815  10.192  1.1180 -0.4052  0.3658
21360SOL    HW174394  11.554   7.863  10.270 -1.2251  0.0520 -0.6162
21360SOL    HW274395  11.599   7.727  10.223  4.3873  0.7222  2.0295
21361SOL     OW74396   2.708   5.466   7.683  0.3306  0.5466  0.2429
21361SOL    HW174397   2.652   5.461   7.761  1.9956 -0.0965  1.4529
21361SOL    HW274398   2.715   5.559   7.664 -0.4066  0.6882  0.6112
21362SOL     OW74399   4.873   7.923   4.478 -0.0080 -0.3698  0.1587
21362SOL    HW174400   4.955   7.971   4.488 -0.5051  0.3193  1.1662
21362SOL    HW274401   4.858   7.918   4.384 -0.6061  2.6620  0.0045
21363SOL     OW74402   1.537   0.688   5.396 -0.0348  0.7472 -0.0038
21363SOL    HW174403   1.510   0.778   5.412  1.3818  0.7789  2.5933
21363SOL    HW274404   1.519   0.642   5.478  1.7423 -0.6928 -0.3528
21364SOL     OW74405   2.760   5.153   5.421 -0.3419 -0.6204  0.1798
21364SOL    HW174406   2.736   5.065   5.392 -0.5690 -1.0741  1.6962
21364SOL    HW274407   2.680   5.204   5.411 -0.2580 -0.6099 -0.5336
21365SOL     OW74408   5.808  11.504   3.649  0.4881  0.2011  0.2760
21365SOL    HW174409   5.802  11.600   3.642  1.4649  0.3536  1.3060
21365SOL    HW274410   5.773  11.472   3.566  0.9100  1.4817 -0.4152
21366SOL     OW74411   5.524   2.103  10.404  0.4025 -0.3867  0.4542
21366SOL    HW174412   5.573   2.134  10.328 -1.0429 -0.5716 -0.5786
21366SOL    HW274413   5.526   2.177  10.465 -0.7419  0.8120 -0.8900
21367SOL     OW74414   1.307   6.875   3.954 -0.4619  0.1210  0.0111
21367SOL    HW174415   1.245   6.841   4.018 -0.6683  0.5574  0.0458
21367SOL    HW274416   1.371   6.805   3.942 -0.4955 -0.0080  0.5968
21368SOL     OW74417  11.257   1.976   4.302  0.1431  0.2062 -0.1173
21368SOL    HW174418  11.217   1.998   4.386  0.1887  2.0274 -0.5189
21368SOL    HW274419  11.259   1.880   4.300 -2.6301  0.0337  0.6519
21369SOL     OW74420   3.072   9.553   5.579 -0.2433  0.1749  0.4653
21369SOL    HW174421   3.118   9.470   5.595  1.3404  0.9284  0.0923
21369SOL    HW274422   3.104   9.611   5.649  0.1243  1.0050 -0.3762
21370SOL     OW74423   9.230   6.784   5.858  0.0278 -0.2282  0.1631
21370SOL    HW174424   9.314   6.800   5.815  0.3264 -2.0219  0.0049
21370SOL    HW274425   9.246   6.710   5.917 -1.1990  0.0514  0.9001
21371SOL     OW74426   6.630  10.405  12.742 -0.2765 -0.2663 -0.2986
21371SOL    HW174427   6.680  10.338  12.696  0.1185 -1.5502  1.8809
21371SOL    HW274428   6.691  10.478  12.753 -0.4887  0.2265 -2.0340
21372SOL     OW74429   7.942   7.688   6.054  0.0691 -0.0895 -0.7265
21372SOL    HW174430   8.023   7.704   6.005  0.2063  2.0750  0.0998
21372SOL    HW274431   7.932   7.593   6.053  2.2872 -0.3807 -1.3642
21373SOL     OW74432  10.616  11.370   8.540  0.5619  0.9925 -0.0910
21373SOL    HW174433  10.635  11.463   8.553  0.8984  0.7921  0.9566
21373SOL    HW274434  10.697  11.325   8.565  0.3205  0.4025 -0.3503
21374SOL     OW74435   4.957   9.635   4.430 -0.4433 -0.0293  0.0674
21374SOL    HW174436   4.972   9.721   4.393 -1.1854 -0.5001 -1.4015
21374SOL    HW274437   5.043   9.592   4.427 -0.2149  0.4153  0.1851
21375SOL     OW74438   6.932   5.106   1.644 -0.4307 -0.2169 -0.0483
21375SOL    HW174439   6.929   5.186   1.696 -0.7052  0.1437 -0.6110
21375SOL    HW274440   6.871   5.122   1.572  1.5421  0.2024 -1.7427
21376SOL     OW74441   7.604  11.992   0.455 -0.3145  0.5520  0.2952
21376SOL    HW174442   7.543  11.984   0.381 -2.3272  1.5579  1.7428
21376SOL    HW274443   7.604  11.905   0.495  0.0498  0.2588 -0.3296
21377SOL     OW74444  11.920   5.958   7.251  0.3137 -0.1849  0.6556
21377SOL    HW174445  11.860   5.952   7.325  0.3496 -0.4239  0.6664
21377SOL    HW274446  11.929   5.868   7.220 -3.5403  0.2544 -2.7027
21378SOL     OW74447   7.081   7.570   0.248 -0.4863 -0.7600 -0.2696
21378SOL    HW174448   7.121   7.633   0.187 -0.0429 -0.5363  0.2435
21378SOL    HW274449   6.998   7.610   0.272 -0.5379 -0.7182 -0.5126
21379SOL     OW74450   2.270   4.274   2.104  0.4160 -0.3517 -0.3916
21379SOL    HW174451   2.178   4.278   2.129  0.8505 -0.2630  1.3530
21379SOL    HW274452   2.299   4.366   2.106  0.6006 -0.4018 -0.6936
21380SOL     OW74453   1.783   4.404   7.430 -0.4074 -0.4441 -0.4670
21380SOL    HW174454   1.695   4.376   7.454 -0.7743  1.4295  0.5873
21380SOL    HW274455   1.841   4.337   7.468 -1.2743 -0.3269  1.1480
21381SOL     OW74456   8.878   5.235   6.921 -0.6150  0.2415 -0.1362
21381SOL    HW174457   8.839   5.149   6.909  0.6853 -0.6306  1.4992
21381SOL    HW274458   8.807   5.288   6.958 -0.4396 -1.2572  2.5785
21382SOL     OW74459  11.675   7.202   7.839  0.4594 -0.1291 -0.3716
21382SOL    HW174460  11.674   7.138   7.909  0.8639 -0.4475 -0.6502
21382SOL    HW274461  11.629   7.161   7.767  1.0122 -0.2464 -0.6646
21383SOL     OW74462  12.558   9.650   8.127  0.2828 -0.2087 -0.2902
21383SOL    HW174463  12.549   9.569   8.076 -2.3120 -0.1051 -0.1582
21383SOL    HW274464  12.517   9.717   8.072 -0.3245  0.3882  0.8463
21384SOL     OW74465   0.027   7.870   2.160  0.0185  0.0817 -0.0629
21384SOL    HW174466  -0.066   7.873   2.184  0.4199 -1.9005  2.1071
21384SOL    HW274467   0.064   7.805   2.219  2.5955  0.0097 -1.6485
21385SOL     OW74468  11.055   9.734   7.614 -0.1550  0.5015 -0.3142
21385SOL    HW174469  11.038   9.803   7.678 -0.5486  1.9274 -1.8803
21385SOL    HW274470  11.148   9.715   7.623 -0.3525  0.1664  1.1460
21386SOL     OW74471   6.435   4.240   9.077 -0.0818  0.0936 -0.1522
21386SOL    HW174472   6.438   4.215   8.984  1.2997  1.4255 -0.4964
21386SOL    HW274473   6.487   4.320   9.082  1.4184 -0.9214  2.0876
21387SOL     OW74474   2.063   9.799   1.042 -0.3083  0.7574 -0.2841
21387SOL    HW174475   1.980   9.751   1.042  0.0190  0.0395  2.0153
21387SOL    HW274476   2.036   9.892   1.041 -1.1646  0.5368  0.4072
21388SOL     OW74477   6.129   1.926   6.095 -0.5188  0.9896  0.3775
21388SOL    HW174478   6.223   1.933   6.111  0.0697 -0.2714 -1.9973
21388SOL    HW274479   6.100   2.015   6.075  0.6656  1.1142 -0.9627
21389SOL     OW74480   4.700  11.856  10.124 -0.1050  0.2529 -0.0434
21389SOL    HW174481   4.622  11.826  10.079  1.1275  0.1457 -2.2399
21389SOL    HW274482   4.700  11.807  10.207 -2.3552  0.3322  0.0659
21390SOL     OW74483   6.855   9.942  10.521  0.0348 -0.2691 -0.1029
21390SOL    HW174484   6.868   9.906  10.433  0.3256  2.5193 -1.3175
21390SOL    HW274485   6.939   9.929  10.565  0.1806 -0.8767 -0.5395
21391SOL     OW74486   1.322   6.792  11.141 -0.3648  0.4173  0.3901
21391SOL    HW174487   1.331   6.719  11.081  1.3166  0.1659  0.9011
21391SOL    HW274488   1.235   6.782  11.180  0.4237 -2.2590  1.6549
21392SOL     OW74489   5.077   4.586   5.350 -0.3046 -0.6440  0.0766
21392SOL    HW174490   5.052   4.625   5.433 -0.5980  0.9327 -0.7192
21392SOL    HW274491   5.170   4.605   5.340 -0.6487  0.8027 -0.7545
21393SOL     OW74492   5.214   1.023   1.912  0.0494  0.0179  0.3559
21393SOL    HW174493   5.269   1.101   1.923 -0.2477  0.3881 -0.7083
21393SOL    HW274494   5.130   1.048   1.950 -0.5284  0.7879 -1.3493
21394SOL     OW74495   4.124   0.021  11.402  0.4828  0.0021 -0.2968
21394SOL    HW174496   4.042   0.069  11.415 -0.1466 -0.4653 -2.1619
21394SOL    HW274497   4.138  -0.026  11.484 -0.9883  0.2862  0.1480
21395SOL     OW74498   2.283  10.107   6.288  0.8589  0.1913  0.0985
21395SOL    HW174499   2.303  10.028   6.237  1.0013  0.1327  0.2428
21395SOL    HW274500   2.338  10.099   6.366 -0.9414 -0.8097  1.3456
21396SOL     OW74501   4.436   2.638   2.729  0.1721  0.1691  0.4088
21396SOL    HW174502   4.501   2.699   2.764  0.3052 -0.1207  0.6734
21396SOL    HW274503   4.361   2.693   2.705  0.8993  0.6296 -0.8443
21397SOL     OW74504   5.110  12.058  11.082 -0.2268 -0.4842  0.6345
21397SOL    HW174505   5.176  12.013  11.028 -0.0576 -0.1681  0.5756
21397SOL    HW274506   5.098  12.000  11.157 -0.8698 -1.2045  0.0013
21398SOL     OW74507  12.291   9.638   4.084  0.6898  0.1019 -0.4025
21398SOL    HW174508  12.342   9.592   4.150  0.1061 -1.0431 -0.7217
21398SOL    HW274509  12.212   9.585   4.073  0.7149  0.3259 -1.9178
21399SOL     OW74510   3.441   2.196   8.758 -0.6128  0.4718 -0.3927
21399SOL    HW174511   3.361   2.162   8.798 -0.1592 -0.3464 -0.1664
21399SOL    HW274512   3.508   2.130   8.777 -0.3576  0.0654 -2.4648
21400SOL     OW74513  12.092   0.472   6.476  0.0268 -0.1568  0.4115
21400SOL    HW174514  12.005   0.508   6.464  0.1272  0.1934  0.7080
21400SOL    HW274515  12.116   0.436   6.390  0.7973  2.4144 -0.5492
21401SOL     OW74516   9.844  10.683  12.414  0.2332  0.2292 -0.4066
21401SOL    HW174517   9.787  10.724  12.349 -3.1857 -0.1054  2.1432
21401SOL    HW274518   9.873  10.755  12.470 -0.2673  0.0283  0.1200
21402SOL     OW74519   0.306   4.854  10.545 -0.0102 -0.1820  0.8318
21402SOL    HW174520   0.310   4.810  10.460  0.7474  1.1529  0.1530
21402SOL    HW274521   0.217   4.839  10.575 -0.4059 -0.3610 -0.3774
21403SOL     OW74522  12.299  12.897  10.500  0.2605 -0.1395 -0.0893
21403SOL    HW174523  12.387  12.887  10.462  0.1891 -0.8890 -0.0697
21403SOL    HW274524  12.243  12.843  10.445 -0.1807  0.2766 -0.0542
21404SOL     OW74525   5.123   6.722   0.912  0.4411 -0.1717  0.0991
21404SOL    HW174526   5.044   6.766   0.942  0.2675  2.2340 -3.2463
21404SOL    HW274527   5.192   6.756   0.968 -0.4579  0.2876  0.9488
21405SOL     OW74528  12.261   0.148   7.542 -0.1090  0.2030 -0.2576
21405SOL    HW174529  12.197   0.160   7.472 -0.2747  0.4015 -0.0725
21405SOL    HW274530  12.211   0.113   7.615 -0.0233  0.4387 -0.0834
21406SOL     OW74531  11.178   2.172   8.955 -0.1242  0.0129 -0.7005
21406SOL    HW174532  11.210   2.256   8.989  0.2728 -0.7652  0.9645
21406SOL    HW274533  11.094   2.193   8.914 -1.9961  0.7371  3.0609
21407SOL     OW74534   4.291  12.108   4.285 -0.1192  0.8683  0.2844
21407SOL    HW174535   4.362  12.061   4.241 -0.0287 -0.5185  1.8050
21407SOL    HW274536   4.321  12.118   4.375 -2.2519 -0.7431  1.2675
21408SOL     OW74537   0.197   2.743   6.869 -0.0565  0.8829  0.1947
21408SOL    HW174538   0.212   2.816   6.810  0.7270  1.1216  0.6651
21408SOL    HW274539   0.197   2.782   6.957 -0.7696  0.4795  0.3811
21409SOL     OW74540   6.732   2.224  12.752 -0.2224 -0.3768 -0.7573
21409SOL    HW174541   6.745   2.142  12.800 -0.5591 -1.1967 -2.0192
21409SOL    HW274542   6.655   2.208  12.697  0.7451  0.1439 -2.3421
21410SOL     OW74543   1.046   6.645   5.821  0.2848 -0.0275 -0.4221
21410SOL    HW174544   1.128   6.597   5.838 -0.2801 -0.5647  0.9123
21410SOL    HW274545   1.075   6.729   5.785  1.3855 -0.5702 -0.8578
21411SOL     OW74546   6.712   9.646   8.399 -0.5187  0.3083  0.0091
21411SOL    HW174547   6.760   9.723   8.429  0.3464 -0.0075 -0.5201
21411SOL    HW274548   6.630   9.681   8.365 -0.8985  0.8099  1.3696
21412SOL     OW74549  10.688   6.008   9.846  0.5486  0.1801 -0.1889
21412SOL    HW174550  10.741   6.008   9.766  2.1827 -1.8458  0.8187
21412SOL    HW274551  10.714   6.088   9.891 -0.1405  1.1726 -1.4754
21413SOL     OW74552  11.326  12.069   1.444 -0.0556 -0.2707  0.3872
21413SOL    HW174553  11.267  11.998   1.420 -1.8978  0.6275  1.9915
21413SOL    HW274554  11.393  12.027   1.498 -2.6140 -0.5548  3.6422
21414SOL     OW74555   1.562   4.211   9.335  0.4831 -0.7099 -0.0426
21414SOL    HW174556   1.479   4.206   9.288 -0.4286  2.3985  0.9999
21414SOL    HW274557   1.552   4.151   9.409 -1.6457  0.9518  1.1088
21415SOL     OW74558   1.811   1.032   8.740  0.5655 -0.9061 -0.2236
21415SOL    HW174559   1.905   1.032   8.721  1.0830 -1.7002  2.0217
21415SOL    HW274560   1.781   0.946   8.710  0.2513 -0.2094 -2.0381
21416SOL     OW74561   1.328  11.535   6.484 -0.2516 -0.5349 -0.1372
21416SOL    HW174562   1.252  11.513   6.539 -2.0869 -0.1166 -2.3233
21416SOL    HW274563   1.332  11.631   6.487  1.7975 -0.6106  1.8804
21417SOL     OW74564  11.070   8.266   2.508 -0.0740  0.2018 -0.3748
21417SOL    HW174565  11.136   8.220   2.561 -0.4157 -0.2745 -0.3615
21417SOL    HW274566  11.103   8.260   2.418 -0.5515 -0.8304 -0.4860
21418SOL     OW74567   4.593   3.476   0.774 -0.4683 -0.4476 -0.4161
21418SOL    HW174568   4.678   3.443   0.745 -0.4227 -0.3887 -0.3498
21418SOL    HW274569   4.532   3.448   0.706 -0.3084 -0.0201 -0.7395
21419SOL     OW74570  10.680  11.866   3.760 -0.3994 -0.8493  0.4434
21419SOL    HW174571  10.630  11.918   3.697 -0.5978  1.5765  2.4505
21419SOL    HW274572  10.620  11.796   3.786 -1.2987 -0.2776 -0.0311
21420SOL     OW74573  12.892   2.333   8.621  0.5536 -0.2137  0.6335
21420SOL    HW174574  12.813   2.381   8.646  0.8106  0.8555 -0.5032
21420SOL    HW274575  12.894   2.258   8.681 -1.4986 -0.4700  0.4550
21421SOL     OW74576  10.160   8.667  12.399  0.1353  0.6205 -0.4305
21421SOL    HW174577  10.116   8.748  12.421 -0.0828  0.4286 -0.1482
21421SOL    HW274578  10.144   8.609  12.474 -1.1857 -0.2728 -1.3492
21422SOL     OW74579   8.191  11.114  11.995  0.4028 -0.1790  0.1648
21422SOL    HW174580   8.273  11.123  11.946 -0.0600 -0.6198 -0.7070
21422SOL    HW274581   8.218  11.114  12.087  1.2776  0.7879 -0.0662
21423SOL     OW74582   9.626  10.844   2.198 -0.3527  0.1327  0.1093
21423SOL    HW174583   9.690  10.912   2.176 -1.9709  1.3189 -1.2017
21423SOL    HW274584   9.551  10.891   2.232 -1.1406 -1.0986  0.1395
21424SOL     OW74585   9.121   6.767   3.867 -0.0021 -0.1654  0.1693
21424SOL    HW174586   9.173   6.847   3.872  1.3983 -1.0421  0.2180
21424SOL    HW274587   9.126   6.730   3.956 -1.5255  0.2005  0.4391
21425SOL     OW74588   9.641   4.667   8.622  0.4157 -0.2249 -0.4243
21425SOL    HW174589   9.632   4.630   8.710 -0.2838 -2.3294 -1.3436
21425SOL    HW274590   9.676   4.596   8.569 -1.0184  0.3896 -2.2898
21426SOL     OW74591   9.042   9.259   6.071 -0.7007 -0.0249  0.5610
21426SOL    HW174592   9.058   9.232   6.162 -0.5010 -1.2429  0.1756
21426SOL    HW274593   9.129   9.276   6.036 -0.7638  0.2483  0.5357
21427SOL     OW74594   5.218   2.687   1.412  0.0611 -0.1932  0.3086
21427SOL    HW174595   5.232   2.636   1.332 -0.7462 -0.1833  0.1595
21427SOL    HW274596   5.230   2.778   1.386  2.3540 -0.3051  0.7490
21428SOL     OW74597  12.194  12.423   4.199 -0.2035 -0.4251 -0.4377
21428SOL    HW174598  12.117  12.434   4.142 -1.5881 -0.8840  1.2340
21428SOL    HW274599  12.217  12.331   4.189 -0.4008 -0.4894 -0.3091
21429SOL     OW74600   4.618  12.456   2.571 -0.0163  0.1100  0.4193
21429SOL    HW174601   4.560  12.430   2.642  0.0356 -0.4105  0.2770
21429SOL    HW274602   4.576  12.422   2.492  1.2243 -1.6375  0.4539
21430SOL     OW74603   0.854   8.284   9.630  0.5773  0.2644  0.0952
21430SOL    HW174604   0.836   8.210   9.572 -0.0515  0.7723 -0.3711
21430SOL    HW274605   0.935   8.260   9.675 -0.0935 -1.1082  0.6246
21431SOL     OW74606  10.078  11.849   1.223 -0.5433 -0.2629 -0.0755
21431SOL    HW174607  10.043  11.773   1.271 -0.1144 -2.0823 -2.4298
21431SOL    HW274608  10.173  11.838   1.227 -0.5024 -1.1419 -2.2297
21432SOL     OW74609  10.743   2.335   8.087  0.0575  0.2428 -0.4970
21432SOL    HW174610  10.748   2.392   8.164 -0.8710 -0.5924  0.2123
21432SOL    HW274611  10.725   2.394   8.014  1.8869  1.1738 -0.2644
21433SOL     OW74612  12.612  11.093   8.366  0.1183  0.3669 -0.0573
21433SOL    HW174613  12.573  11.006   8.374 -0.5039  0.6814  0.5047
21433SOL    HW274614  12.545  11.145   8.321 -0.1537  0.9299  0.9593
21434SOL     OW74615  11.557  11.400   7.484  0.1840 -0.2271  0.0561
21434SOL    HW174616  11.477  11.349   7.500 -1.4965  1.0489 -3.2747
21434SOL    HW274617  11.548  11.475   7.543 -0.1688 -0.9651  0.9695
21435SOL     OW74618   9.160   9.761   7.587  0.4714  0.2762 -0.2178
21435SOL    HW174619   9.111   9.739   7.508  0.1479 -1.7216  0.4587
21435SOL    HW274620   9.239   9.805   7.557  1.2276 -2.0274 -1.8149
21436SOL     OW74621   3.759   9.213  10.589 -0.0179  0.0270 -0.4251
21436SOL    HW174622   3.782   9.161  10.511 -0.7487 -0.9298 -0.0211
21436SOL    HW274623   3.664   9.217  10.587 -0.1002 -0.9040  0.9873
21437SOL     OW74624  11.316   9.134   3.980 -0.1013 -0.7638 -0.9348
21437SOL    HW174625  11.334   9.142   3.887  0.4950 -1.6442 -0.9037
21437SOL    HW274626  11.307   9.225   4.010 -0.1878 -0.4689 -1.8161
21438SOL     OW74627  11.496  10.319   9.484 -0.6096 -0.0507  0.2320
21438SOL    HW174628  11.431  10.343   9.550 -1.2138 -0.3245 -0.2539
21438SOL    HW274629  11.512  10.226   9.498  1.4885  0.4713  1.8996
21439SOL     OW74630   2.944   1.065   4.777  0.4220 -0.1923 -0.4352
21439SOL    HW174631   2.850   1.077   4.769  0.5167 -0.0207 -1.5357
21439SOL    HW274632   2.965   1.095   4.865 -0.3969  0.8458 -0.5653
21440SOL     OW74633  11.336   5.806   9.676  1.0067 -0.5120  0.0570
21440SOL    HW174634  11.331   5.768   9.588 -1.5687  0.9165 -0.5206
21440SOL    HW274635  11.386   5.886   9.664  2.8192 -1.5265  0.4568
21441SOL     OW74636   7.121   5.307   3.820  0.2270  0.5179 -0.2804
21441SOL    HW174637   7.088   5.220   3.797  1.4231 -0.3037  0.9137
21441SOL    HW274638   7.192   5.323   3.758  0.6031  0.2254  0.0685
21442SOL     OW74639   3.278  12.750   5.851  0.2112 -0.1592 -0.3635
21442SOL    HW174640   3.195  12.707   5.831  0.2165 -1.3518  1.8192
21442SOL    HW274641   3.344  12.685   5.826  0.2827 -0.8403  1.4301
21443SOL     OW74642  11.211   2.067  10.594  0.5738  0.3999  0.6986
21443SOL    HW174643  11.212   2.001  10.525 -0.3595 -0.9260  1.8810
21443SOL    HW274644  11.168   2.143  10.555 -0.2769 -0.4551 -0.0669
21444SOL     OW74645  12.517  11.262  10.830 -0.0811 -0.2357 -0.1664
21444SOL    HW174646  12.515  11.167  10.823  0.0093 -0.3904  1.4761
21444SOL    HW274647  12.428  11.287  10.853  0.0989 -0.0245  0.3218
21445SOL     OW74648  11.887  11.858   5.401  0.5645  0.4662 -0.1174
21445SOL    HW174649  11.848  11.772   5.386  1.6506  0.0594 -0.6584
21445SOL    HW274650  11.924  11.853   5.489 -1.6070  1.2674  0.9252
21446SOL     OW74651   3.285  11.790   9.730 -0.8033  0.1212 -0.3764
21446SOL    HW174652   3.380  11.794   9.716 -0.6763  0.7680  0.5340
21446SOL    HW274653   3.267  11.698   9.748 -0.3737 -0.0384 -0.7483
21447SOL     OW74654   1.751  10.752  11.090 -0.7045  0.1467  0.2598
21447SOL    HW174655   1.672  10.796  11.058 -0.2679 -0.2351 -1.4465
21447SOL    HW274656   1.731  10.658  11.084 -0.0408  0.0382 -0.4739
21448SOL     OW74657   8.876   2.243  12.860  0.5263 -0.4396  0.1553
21448SOL    HW174658   8.794   2.215  12.901  0.6071 -1.0054 -0.0598
21448SOL    HW274659   8.888   2.333  12.890  0.9946 -1.0716  2.0122
21449SOL     OW74660  11.149   6.169   1.372  0.2985 -0.1511  0.1972
21449SOL    HW174661  11.058   6.182   1.346 -0.5819 -0.6810  2.7057
21449SOL    HW274662  11.157   6.075   1.386  0.9642 -0.0061  0.8549
21450SOL     OW74663   8.939   1.415   8.404  0.0982  0.5023 -0.2185
21450SOL    HW174664   8.965   1.350   8.340  0.7432 -0.1106  0.6456
21450SOL    HW274665   8.940   1.369   8.488 -2.9191  0.6702  0.0234
21451SOL     OW74666   1.695   1.034   9.086  0.6433 -0.4464 -0.1407
21451SOL    HW174667   1.683   1.001   8.997 -1.6991  1.6382 -0.7242
21451SOL    HW274668   1.721   0.958   9.137  0.9234 -1.9459 -2.3752
21452SOL     OW74669   6.170   4.168   8.923  0.0224  0.2892  0.2336
21452SOL    HW174670   6.108   4.222   8.874  2.0672  3.0154  0.3315
21452SOL    HW274671   6.232   4.232   8.960  1.5522 -2.0612  2.0313
21453SOL     OW74672   4.656   8.757  11.153  0.2306 -0.7292  0.3065
21453SOL    HW174673   4.561   8.745  11.158  0.3431 -1.5939  0.6203
21453SOL    HW274674   4.684   8.694  11.087  0.4111  0.6683 -0.9816
21454SOL     OW74675   2.127   2.983   2.814  0.4006 -0.2706  0.0579
21454SOL    HW174676   2.181   3.022   2.883  0.2057  0.3592 -0.1381
21454SOL    HW274677   2.053   3.043   2.805  1.0397  0.3357 -1.5559
21455SOL     OW74678  11.054   2.797  12.786  0.2909 -0.2740 -0.4778
21455SOL    HW174679  11.097   2.843  12.858  0.6463 -0.4598 -0.5693
21455SOL    HW274680  11.097   2.712  12.783  0.0533 -0.3870 -0.7025
21456SOL     OW74681   8.620   5.628   1.534 -0.3925  0.1731  0.7219
21456SOL    HW174682   8.699   5.624   1.587  0.7264  0.5333 -0.8540
21456SOL    HW274683   8.548   5.616   1.597  0.9434 -1.7614  1.9919
21457SOL     OW74684  10.574  10.281   9.162  0.4698 -0.0420  0.4983
21457SOL    HW174685  10.615  10.306   9.244 -0.6927 -0.2432  1.1740
21457SOL    HW274686  10.617  10.199   9.137  1.5372  0.5477  0.3466
21458SOL     OW74687  11.048   2.418  11.597  0.0154  0.0723 -0.0157
21458SOL    HW174688  11.079   2.469  11.671 -0.7382  2.4442 -1.2464
21458SOL    HW274689  10.967   2.461  11.569  0.4016 -0.5485 -2.3530
21459SOL     OW74690   4.388   4.503   0.086 -0.0927 -0.0217  0.2225
21459SOL    HW174691   4.418   4.504  -0.005  0.6343  0.9949  0.4556
21459SOL    HW274692   4.420   4.420   0.121  1.5869  0.5565  0.1532
21460SOL     OW74693  12.953   5.929   5.102 -0.2458 -0.4583 -0.2649
21460SOL    HW174694  13.026   5.968   5.054 -1.0428  1.0775 -0.2932
21460SOL    HW274695  12.886   5.914   5.035 -0.9784  0.7512  0.1629
21461SOL     OW74696   6.410   1.378   5.905 -0.3812 -0.0796 -0.1458
21461SOL    HW174697   6.413   1.304   5.966  0.3266 -1.2390 -1.5356
21461SOL    HW274698   6.442   1.453   5.956  1.6358 -1.3175  0.5077
21462SOL     OW74699   9.553   5.739   6.866  0.2821 -0.2812  0.1455
21462SOL    HW174700   9.477   5.711   6.814 -0.0503  0.4970  0.1924
21462SOL    HW274701   9.591   5.811   6.816  0.3691  0.0210  0.6410
21463SOL     OW74702   1.871   5.324   4.988 -0.3617 -0.0622 -0.0866
21463SOL    HW174703   1.860   5.281   4.903  2.1684  0.1067 -0.5845
21463SOL    HW274704   1.867   5.252   5.051 -2.8650 -0.1210 -0.2146
21464SOL     OW74705   8.166   1.490   2.448 -0.5695  0.1311  0.2395
21464SOL    HW174706   8.199   1.410   2.408 -1.4907  0.6905 -1.7511
21464SOL    HW274707   8.244   1.542   2.466 -0.1303 -0.0390 -1.1113
21465SOL     OW74708   3.672   6.956   4.782 -0.4322  0.1254 -0.1142
21465SOL    HW174709   3.729   6.915   4.847  0.3092 -0.5228 -1.1280
21465SOL    HW274710   3.584   6.928   4.805 -0.2205  0.1685  0.7863
21466SOL     OW74711   6.775   8.995   4.019 -0.4142  0.3854  0.3686
21466SOL    HW174712   6.732   8.956   3.943 -0.5701  1.7252 -0.2626
21466SOL    HW274713   6.852   8.939   4.035  0.1179  0.5799 -1.3266
21467SOL     OW74714   2.596   5.940   1.204 -0.6705 -0.3804 -0.4087
21467SOL    HW174715   2.530   5.896   1.257  0.2473 -1.7340 -0.3694
21467SOL    HW274716   2.631   5.872   1.147  1.2168  0.1446  0.0711
21468SOL     OW74717   0.662   8.167  12.362  0.7460  0.6238 -0.3248
21468SOL    HW174718   0.591   8.223  12.329  0.3361  0.4534  0.2530
21468SOL    HW274719   0.619   8.110  12.426  1.3067  0.1557 -0.3646
21469SOL     OW74720   0.710  10.653   7.950  0.1516  0.0165  0.0264
21469SOL    HW174721   0.710  10.613   8.037 -2.3717  0.6564  0.3773
21469SOL    HW274722   0.802  10.679   7.937  1.5587 -3.9264  0.6034
21470SOL     OW74723   7.011  10.668   9.642 -0.1444 -0.6459  0.2543
21470SOL    HW174724   7.094  10.686   9.596 -0.4532  0.1895  0.0014
21470SOL    HW274725   7.013  10.727   9.717 -0.0132 -1.4307  0.8790
21471SOL     OW74726   2.081   9.135   0.803  0.0498  0.1195 -0.8037
21471SOL    HW174727   2.109   9.222   0.833  0.1014  0.0913 -0.7694
21471SOL    HW274728   2.024   9.103   0.873  1.1469 -0.4612 -0.1578
21472SOL     OW74729   1.380   1.253   1.881 -0.1523 -0.1255 -0.3739
21472SOL    HW174730   1.308   1.308   1.852  0.0025  0.3392  0.1187
21472SOL    HW274731   1.349   1.213   1.962 -0.3689 -0.9859 -0.8653
21473SOL     OW74732   1.177   1.547  10.110 -0.0171 -0.0940  0.2098
21473SOL    HW174733   1.136   1.601  10.043  0.3973  0.2617  0.2326
21473SOL    HW274734   1.170   1.458  10.076 -0.2657  0.0276 -0.0669
21474SOL     OW74735   8.568   5.821   4.892 -0.4414  0.0520 -0.0506
21474SOL    HW174736   8.511   5.820   4.969 -0.8460 -2.7887 -0.2612
21474SOL    HW274737   8.534   5.891   4.838 -0.3006  1.9724  2.1905
21475SOL     OW74738  10.013  11.589   3.831 -0.0978 -0.4374  0.3881
21475SOL    HW174739  10.029  11.518   3.769  1.0316  0.4739 -0.4178
21475SOL    HW274740  10.027  11.549   3.917  2.9851 -0.7094 -0.1021
21476SOL     OW74741   2.678  10.514   5.634 -0.1420 -0.1442  0.7054
21476SOL    HW174742   2.653  10.478   5.550 -1.8431 -0.2252  1.2051
21476SOL    HW274743   2.770  10.490   5.645 -0.5453 -2.2333 -0.0506
21477SOL     OW74744   0.050   6.248   9.550  0.1626  0.6322 -0.5844
21477SOL    HW174745  -0.003   6.174   9.582  0.4907 -0.5219 -2.5663
21477SOL    HW274746   0.036   6.317   9.615 -0.6114 -0.9694  1.0383
21478SOL     OW74747   2.621   1.801   8.484  0.2281 -0.0855 -0.1263
21478SOL    HW174748   2.668   1.815   8.566  0.4449 -1.5528  0.0286
21478SOL    HW274749   2.683   1.827   8.416  0.4529  0.0773  0.1410
21479SOL     OW74750   0.857  11.249   9.646  0.4749 -0.2129  0.0336
21479SOL    HW174751   0.763  11.264   9.638  0.5787 -0.3197 -2.3528
21479SOL    HW274752   0.896  11.309   9.583  2.1010  0.4077  1.5509
21480SOL     OW74753   2.331  11.439   2.054 -0.2969 -0.3610 -0.2008
21480SOL    HW174754   2.325  11.532   2.077 -0.7818 -0.1261 -1.2097
21480SOL    HW274755   2.414  11.431   2.008  0.4718 -0.7488  1.1853
21481SOL     OW74756   8.707   0.104   7.426  0.3610  0.3301 -0.2582
21481SOL    HW174757   8.674   0.170   7.487  0.9738  2.2421 -1.8836
21481SOL    HW274758   8.632   0.048   7.409 -0.6656  1.5818 -0.0557
21482SOL     OW74759  12.191  10.713   3.948 -0.4272 -0.3420 -0.2564
21482SOL    HW174760  12.183  10.634   3.894  0.8502  0.1460 -1.2243
21482SOL    HW274761  12.108  10.758   3.937 -0.7397 -0.9958 -0.6294
21483SOL     OW74762  11.843  12.078   2.056 -0.0740 -0.0853 -0.0953
21483SOL    HW174763  11.810  12.072   2.145  0.4108 -1.2924  0.0086
21483SOL    HW274764  11.776  12.034   2.003 -0.9822  1.6804 -0.5318
21484SOL     OW74765  12.718   1.648   6.057 -0.6754  0.0921  0.1123
21484SOL    HW174766  12.697   1.675   6.146  0.4889  0.2698  0.3500
21484SOL    HW274767  12.812   1.665   6.048 -0.3880 -1.6645 -0.5368
21485SOL     OW74768   5.507   7.119   5.828  0.1592  0.3947  0.1041
21485SOL    HW174769   5.597   7.143   5.849  0.3575 -0.3990  0.1987
21485SOL    HW274770   5.506   7.023   5.833 -0.3018  0.2955 -1.4624
21486SOL     OW74771  10.995   9.025   0.049 -0.5918 -0.1095  0.2636
21486SOL    HW174772  11.005   8.959   0.118 -0.5206 -0.5409 -0.1468
21486SOL    HW274773  11.032   8.983  -0.029 -0.2754  0.5337  0.0580
21487SOL     OW74774   8.986   8.413  10.337  0.0816  0.0912  0.6722
21487SOL    HW174775   8.908   8.460  10.368  0.5169  0.2510  1.5577
21487SOL    HW274776   8.954   8.328  10.308 -0.2836 -0.2698  2.0765
21488SOL     OW74777   8.309   1.094   9.998 -0.1939  0.1066 -0.5309
21488SOL    HW174778   8.274   1.014  10.038 -0.1001  0.1900 -0.2799
21488SOL    HW274779   8.232   1.142   9.968 -0.3169  0.3928  0.2192
21489SOL     OW74780   7.027   2.520   2.117  0.4309 -0.3084  0.1788
21489SOL    HW174781   7.018   2.484   2.028  0.3708 -3.9825  1.4876
21489SOL    HW274782   6.939   2.549   2.140  0.4519  0.6944 -0.9433
21490SOL     OW74783  11.983   4.453  11.307  0.0913  0.3634  0.1020
21490SOL    HW174784  12.034   4.493  11.377 -0.4629  0.2906  0.5569
21490SOL    HW274785  12.027   4.369  11.291  1.4290  1.2363 -1.0520
21491SOL     OW74786   2.976   4.361  11.556  0.4781 -0.6918 -0.1690
21491SOL    HW174787   3.026   4.302  11.501  1.2897 -0.0378 -0.1522
21491SOL    HW274788   2.957   4.437  11.501 -2.7819 -1.9570 -1.0398
21492SOL     OW74789  10.302   3.957   2.596 -0.1605 -0.5226  0.4104
21492SOL    HW174790  10.210   3.931   2.606  0.3652 -2.0848  1.4311
21492SOL    HW274791  10.320   4.010   2.674 -0.1895 -0.1640  0.1791
21493SOL     OW74792  12.051   9.549   6.289 -0.1435 -0.2943  0.0356
21493SOL    HW174793  12.086   9.621   6.341 -1.1439 -0.8678  1.6080
21493SOL    HW274794  12.096   9.555   6.205  0.4660  1.5817  0.4459
21494SOL     OW74795   7.085   0.397   0.052 -0.1002 -0.0682 -0.7820
21494SOL    HW174796   7.174   0.370   0.032 -0.4015 -0.5165 -1.5716
21494SOL    HW274797   7.040   0.398  -0.033 -0.9799 -0.3588 -0.3372
21495SOL     OW74798   0.741  11.870   1.786 -0.3449  0.1414 -1.2469
21495SOL    HW174799   0.777  11.876   1.697 -0.1381 -0.8378 -1.2409
21495SOL    HW274800   0.661  11.820   1.776  0.3975 -1.2014 -0.6986
21496SOL     OW74801  12.410   7.085  10.895  0.3803 -0.1308 -0.5330
21496SOL    HW174802  12.482   7.102  10.955 -0.7398 -0.0007  0.8291
21496SOL    HW274803  12.393   7.169  10.853 -0.5486  0.4905  0.9805
21497SOL     OW74804   9.533  10.049   3.749 -0.4497 -0.0859 -0.0229
21497SOL    HW174805   9.532  10.144   3.759 -0.0596 -0.1847  1.1700
21497SOL    HW274806   9.565  10.034   3.661 -0.2543  0.8845 -0.1239
21498SOL     OW74807  12.196  10.830  12.329 -0.4477 -0.3718 -0.4283
21498SOL    HW174808  12.284  10.862  12.349 -0.9023  0.7153 -0.1294
21498SOL    HW274809  12.172  10.875  12.249 -0.1295 -1.8648 -1.3951
21499SOL     OW74810   7.149   6.787   1.896  0.1861  0.1793  0.2760
21499SOL    HW174811   7.228   6.839   1.879 -0.2666  0.1316 -2.3564
21499SOL    HW274812   7.077   6.846   1.875 -0.3720 -0.9441 -1.1071
21500SOL     OW74813   2.226   8.436   7.574 -0.5955  0.1444  0.0519
21500SOL    HW174814   2.290   8.474   7.514 -0.4760 -1.3301 -0.7927
21500SOL    HW274815   2.185   8.512   7.616  1.2861  1.1285  0.1998
21501SOL     OW74816   6.277   8.152   6.622  0.3067  0.0581 -0.0748
21501SOL    HW174817   6.268   8.091   6.695 -0.1252  1.0751  0.7522
21501SOL    HW274818   6.366   8.186   6.630  0.3349  0.0034 -0.1547
21502SOL     OW74819   9.671  10.532  10.180  0.8550  0.3467  0.1972
21502SOL    HW174820   9.620  10.469  10.130 -0.3056  1.7682 -0.4868
21502SOL    HW274821   9.674  10.610  10.124 -0.8879  2.1650  2.4554
21503SOL     OW74822   7.502   0.153  10.723  0.3676 -0.0161 -0.2432
21503SOL    HW174823   7.538   0.064  10.716  1.3967  0.4259 -0.8244
21503SOL    HW274824   7.553   0.203  10.659  1.6291  1.5864  1.8997
21504SOL     OW74825   6.781   9.765   7.532 -0.1521  1.2319 -0.4168
21504SOL    HW174826   6.866   9.745   7.492 -0.7540  0.2125 -1.2407
21504SOL    HW274827   6.758   9.685   7.579 -1.8978  0.4053 -2.4977
21505SOL     OW74828  11.608   2.545   7.272 -0.0592  0.3363  0.6216
21505SOL    HW174829  11.647   2.463   7.300 -1.2053  0.3559  2.3910
21505SOL    HW274830  11.600   2.537   7.177  4.2024  0.3666  0.0841
21506SOL     OW74831   3.553   8.969  11.860 -0.1488 -0.5253 -0.0414
21506SOL    HW174832   3.601   8.905  11.912  1.1860  0.5634  0.1165
21506SOL    HW274833   3.565   9.052  11.906 -0.7054  0.0874 -0.9561
21507SOL     OW74834   1.932   8.272   0.443 -0.2755  0.3334 -0.0870
21507SOL    HW174835   1.873   8.344   0.420 -0.5623  0.2144  0.2605
21507SOL    HW274836   1.998   8.313   0.499 -0.8040  0.2166  0.6486
21508SOL     OW74837   4.954   8.121  10.260  0.6840  0.5024 -0.5453
21508SOL    HW174838   5.045   8.096  10.244  0.2961 -0.1501 -1.8524
21508SOL    HW274839   4.954   8.217  10.258  1.5207  0.5507  0.6365
21509SOL     OW74840   6.293   7.944   0.805  0.6114  0.1661  0.1091
21509SOL    HW174841   6.246   7.882   0.861 -0.5917  1.3343  0.4550
21509SOL    HW274842   6.226   8.007   0.779  1.1881 -0.1874 -2.4519
21510SOL     OW74843   4.038  11.380  10.820 -0.1589 -0.0444 -0.7878
21510SOL    HW174844   4.065  11.331  10.742 -0.3614  1.2628 -1.7049
21510SOL    HW274845   4.104  11.358  10.885  0.1775 -0.9442 -1.4058
21511SOL     OW74846   5.936   0.293   0.344  0.4274 -0.2627  0.3314
21511SOL    HW174847   5.949   0.374   0.393  0.0063  0.8298 -1.2739
21511SOL    HW274848   5.949   0.223   0.409 -0.3750  1.0906  2.0484
21512SOL     OW74849   5.481   4.999   2.533 -0.3020 -0.3327  0.0808
21512SOL    HW174850   5.420   5.002   2.607  0.3956 -1.6407  0.7478
21512SOL    HW274851   5.462   5.078   2.483 -1.7769 -0.1538  0.8721
21513SOL     OW74852  11.279   4.157   7.450  0.0922  0.7558 -0.5140
21513SOL    HW174853  11.332   4.222   7.404 -1.5914  1.7130 -1.1743
21513SOL    HW274854  11.237   4.106   7.380  1.0048 -0.7711 -0.0025
21514SOL     OW74855   8.429   2.591   1.335  0.1233 -0.1388  0.1163
21514SOL    HW174856   8.400   2.659   1.396 -0.9057  0.0697 -0.5916
21514SOL    HW274857   8.395   2.510   1.373 -0.3857 -0.0254 -0.0816
21515SOL     OW74858   9.372   2.826   7.537  0.0891  0.0918 -0.7468
21515SOL    HW174859   9.453   2.775   7.545 -0.3525 -0.5321 -0.2042
21515SOL    HW274860   9.396   2.900   7.481  0.9238 -0.3236 -0.9510
21516SOL     OW74861   4.383   7.919   1.252  0.2249  0.6440  0.0152
21516SOL    HW174862   4.377   7.824   1.236  2.2566  0.5955 -0.6592
21516SOL    HW274863   4.298   7.953   1.222  0.0826 -0.7562 -1.3123
21517SOL     OW74864  10.407  11.935   6.431 -0.5780  0.0907 -0.0378
21517SOL    HW174865  10.331  11.888   6.462 -1.7089  1.3672 -0.7677
21517SOL    HW274866  10.448  11.970   6.510 -0.0676 -1.5261  0.4565
21518SOL     OW74867   0.786   8.075   5.489  0.4429 -0.2342 -0.2651
21518SOL    HW174868   0.823   8.068   5.400 -0.7672  2.0842 -1.0375
21518SOL    HW274869   0.702   8.029   5.484  0.1421  0.3234 -0.5052
21519SOL     OW74870   0.346   6.336   4.110  0.3148 -0.3030 -0.1229
21519SOL    HW174871   0.309   6.375   4.031 -2.0388 -2.2907 -0.1232
21519SOL    HW274872   0.408   6.401   4.142  0.5196  1.0402 -2.9660
21520SOL     OW74873   2.304   7.172   4.539  0.0108  0.0918 -0.2103
21520SOL    HW174874   2.300   7.083   4.502 -0.7260 -0.4920  1.1712
21520SOL    HW274875   2.242   7.223   4.487 -2.1715 -1.0859  1.0709
21521SOL     OW74876  12.286   7.755   8.214  0.4188 -0.5275  0.1596
21521SOL    HW174877  12.204   7.733   8.258 -0.4429  0.3866 -0.9401
21521SOL    HW274878  12.342   7.678   8.228 -1.0371 -1.6765 -0.0980
21522SOL     OW74879   6.837  11.723  12.119 -0.2324  0.1891 -0.3341
21522SOL    HW174880   6.778  11.792  12.092 -1.0478 -0.2226  0.3542
21522SOL    HW274881   6.844  11.733  12.214  1.9229  1.1014 -0.5337
21523SOL     OW74882  11.252  10.355  10.413  0.4121 -0.7559 -0.3704
21523SOL    HW174883  11.287  10.337  10.325  1.4156 -0.6832  0.0007
21523SOL    HW274884  11.326  10.392  10.461 -0.2369 -0.4266  0.3954
21524SOL     OW74885  11.587   2.186   8.313 -0.0330  0.3792  0.0734
21524SOL    HW174886  11.605   2.137   8.233  0.6675  1.1787 -0.2797
21524SOL    HW274887  11.587   2.119   8.382  0.6373 -0.1578 -0.4255
21525SOL     OW74888   1.354   3.113   2.161  0.1003 -0.2604  0.0342
21525SOL    HW174889   1.382   3.083   2.075 -1.0751 -0.1020 -0.4161
21525SOL    HW274890   1.287   3.050   2.188 -0.5382  0.4849  0.2127
21526SOL     OW74891   2.458  12.434   3.282 -0.1405 -0.2031 -0.1231
21526SOL    HW174892   2.510  12.373   3.230  0.4282  0.5366 -0.4491
21526SOL    HW274893   2.402  12.479   3.218 -0.1185  0.0423  0.0273
21527SOL     OW74894   1.713  12.971   2.839  0.3839 -0.0261  0.3918
21527SOL    HW174895   1.764  12.917   2.778  0.6209 -0.2257  0.7626
21527SOL    HW274896   1.623  12.965   2.806  0.0404 -2.2943  1.5426
21528SOL     OW74897   2.097   3.687  10.624  0.1943 -0.5333 -0.2723
21528SOL    HW174898   2.085   3.592  10.611  0.7159 -0.5064 -1.0011
21528SOL    HW274899   2.163   3.712  10.560  0.3164  0.2707  0.1520
21529SOL     OW74900  10.121   7.422   1.554  0.2232 -0.2850  0.2857
21529SOL    HW174901  10.077   7.504   1.529  0.2267 -0.6375 -0.9651
21529SOL    HW274902  10.053   7.370   1.595 -0.3447 -0.4755 -0.8440
21530SOL     OW74903   2.839   4.906   9.172  0.2955  0.1258  0.0096
21530SOL    HW174904   2.863   4.873   9.086  0.0908 -0.5579  0.2092
21530SOL    HW274905   2.870   4.996   9.173  0.6759  0.0033 -0.6214
21531SOL     OW74906   3.551  12.928   1.107 -0.1812 -0.2154  0.3645
21531SOL    HW174907   3.574  12.842   1.141 -0.6942  0.1042  1.5943
21531SOL    HW274908   3.472  12.952   1.156  0.1066  1.0582  0.2301
21532SOL     OW74909   7.675   0.333   5.561 -0.0327 -0.5453  0.6176
21532SOL    HW174910   7.644   0.297   5.644  0.2933 -0.4538  0.7794
21532SOL    HW274911   7.658   0.263   5.497  0.7676 -1.0627  0.9642
21533SOL     OW74912  10.727   6.695   0.207 -0.3005 -0.2857 -0.1360
21533SOL    HW174913  10.727   6.758   0.279  0.2874 -1.4386  0.9113
21533SOL    HW274914  10.734   6.749   0.128 -1.1285  1.0200  0.6452
21534SOL     OW74915   5.747   3.602   3.278  0.4970 -0.2262 -0.1924
21534SOL    HW174916   5.694   3.647   3.343 -1.3797  0.3872 -2.0279
21534SOL    HW274917   5.830   3.583   3.323  0.4420  2.7676  1.4491
21535SOL     OW74918   7.480   4.736   5.198  0.3683 -0.7613  1.5176
21535SOL    HW174919   7.418   4.698   5.135  0.2782 -0.0646  1.1827
21535SOL    HW274920   7.440   4.818   5.226  1.0063 -0.4399  1.5077
21536SOL     OW74921   6.991   6.479   6.646 -0.0864  0.2365  0.0074
21536SOL    HW174922   6.973   6.467   6.552  1.0607 -1.6683 -0.0185
21536SOL    HW274923   7.072   6.430   6.661 -1.7635 -2.0209  2.5608
21537SOL     OW74924   2.596   4.314  12.408  0.6174  0.5693  0.0557
21537SOL    HW174925   2.585   4.364  12.489 -0.7886 -0.2514  0.4082
21537SOL    HW274926   2.630   4.229  12.436  3.7024  1.4354 -0.6000
21538SOL     OW74927  12.936   7.312   8.248 -0.2219 -0.4917 -0.6527
21538SOL    HW174928  12.923   7.218   8.247 -0.1781 -0.5468  0.9753
21538SOL    HW274929  12.904   7.340   8.334  1.7188  0.6600 -0.2245
21539SOL     OW74930   3.805  11.404   8.432  0.7597 -0.2158  0.4724
21539SOL    HW174931   3.719  11.438   8.408  1.1131  0.9245  0.7406
21539SOL    HW274932   3.787  11.326   8.484 -0.0737 -0.8168 -0.6772
21540SOL     OW74933   3.942  12.342   6.416 -0.3878  0.0695 -0.4481
21540SOL    HW174934   3.990  12.286   6.477  0.1522 -0.0243 -0.9484
21540SOL    HW274935   3.941  12.292   6.334 -2.2225 -0.3848 -0.1937
21541SOL     OW74936   0.497   6.300  11.145  0.1128  0.3616  0.0041
21541SOL    HW174937   0.488   6.219  11.195 -1.6463  1.1311  1.0241
21541SOL    HW274938   0.528   6.271  11.058 -0.6350 -1.4093  0.2776
21542SOL     OW74939   7.356   8.155   3.574 -0.9541 -0.2584  0.6892
21542SOL    HW174940   7.385   8.243   3.595 -0.4199 -0.2572 -0.0016
21542SOL    HW274941   7.404   8.133   3.494  1.1753 -2.2707  2.3610
21543SOL     OW74942   9.506   6.861   5.931 -0.0350 -0.4717  0.2009
21543SOL    HW174943   9.489   6.860   6.025 -1.1368 -0.9045 -0.0001
21543SOL    HW274944   9.541   6.774   5.912 -2.4111 -1.3958 -0.2362
21544SOL     OW74945   8.369   9.247   8.435 -0.2916 -1.4221  0.5417
21544SOL    HW174946   8.378   9.324   8.492 -0.0498 -0.7151 -0.4188
21544SOL    HW274947   8.355   9.174   8.495  0.6764 -0.8144  1.5453
21545SOL     OW74948   4.572   0.434   9.456 -0.0654 -0.0349 -0.0394
21545SOL    HW174949   4.547   0.348   9.488  2.1136 -0.2848  1.1988
21545SOL    HW274950   4.560   0.492   9.531 -2.3991  1.0024 -1.1205
21546SOL     OW74951   6.655   3.802   8.420 -0.0137 -0.3473  0.1275
21546SOL    HW174952   6.720   3.857   8.463  1.1826 -0.7299 -1.1141
21546SOL    HW274953   6.622   3.856   8.348  0.7987 -1.0331 -0.7884
21547SOL     OW74954   7.673   1.955   3.052  0.2519  0.3249 -0.0632
21547SOL    HW174955   7.739   2.017   3.083 -0.1131  0.1920  1.0214
21547SOL    HW274956   7.699   1.935   2.962  2.2543 -0.4434  0.6165
21548SOL     OW74957   2.432  11.941   9.604 -0.4747  0.1449  0.4609
21548SOL    HW174958   2.365  12.003   9.634 -0.4849  0.4748 -0.2203
21548SOL    HW274959   2.383  11.863   9.580 -0.4865 -0.0526  1.0979
21549SOL     OW74960   5.256   0.332   0.952  0.4686 -0.9567  0.0397
21549SOL    HW174961   5.299   0.267   0.897  2.3445  1.8745 -2.1465
21549SOL    HW274962   5.172   0.348   0.908  0.0337 -1.7939  0.5427
21550SOL     OW74963  10.107   2.060  12.741  0.2893  0.0028 -0.3220
21550SOL    HW174964  10.063   2.067  12.826 -1.2262 -1.3906 -0.9464
21550SOL    HW274965  10.179   1.998  12.758 -0.2164 -0.5422 -0.1164
21551SOL     OW74966   8.835   3.297   7.827 -0.6587 -0.4636  0.3824
21551SOL    HW174967   8.847   3.224   7.888  0.9930 -2.5753 -2.2276
21551SOL    HW274968   8.912   3.295   7.771 -1.4208  2.2147 -0.9611
21552SOL     OW74969   8.657   9.238   5.608  0.3809 -0.6904 -0.3087
21552SOL    HW174970   8.733   9.253   5.552  0.0291  1.4919 -0.2807
21552SOL    HW274971   8.671   9.295   5.684 -0.7063 -1.1631  0.2695
21553SOL     OW74972  11.521  12.153   7.043 -0.6652 -0.4472 -0.0785
21553SOL    HW174973  11.492  12.117   7.127 -2.3154 -1.0061 -0.8582
21553SOL    HW274974  11.585  12.089   7.011 -0.8537 -0.8053  0.2466
21554SOL     OW74975   3.115  10.849   7.524  0.2635 -0.5732  0.3977
21554SOL    HW174976   3.028  10.871   7.492  0.5411  0.9053  0.5758
21554SOL    HW274977   3.171  10.852   7.446  0.3867 -0.1069  0.4970
21555SOL     OW74978   8.290   7.915   0.733  0.0936  0.0061 -0.5604
21555SOL    HW174979   8.368   7.967   0.714 -0.3066  1.8124  2.1839
21555SOL    HW274980   8.303   7.884   0.823 -0.2254 -3.8437 -1.6694
21556SOL     OW74981   1.452   2.767   9.162 -0.1724  0.5939  0.5091
21556SOL    HW174982   1.524   2.707   9.182 -0.2329  0.4534  0.3115
21556SOL    HW274983   1.446   2.824   9.238 -0.8674 -0.3985  1.2206
21557SOL     OW74984  10.705   7.297   0.928  0.3117 -0.5607  0.1392
21557SOL    HW174985  10.667   7.306   1.015  0.9135  0.7051  0.2793
21557SOL    HW274986  10.775   7.233   0.939 -1.6363 -2.9003 -0.1101
21558SOL     OW74987   4.055  12.373   2.849  0.0045 -0.0117 -0.1734
21558SOL    HW174988   4.014  12.354   2.934 -0.6126 -0.3257 -0.5331
21558SOL    HW274989   4.109  12.296   2.831 -2.3943 -1.5039 -1.5675
21559SOL     OW74990   4.286   6.983  12.544 -0.2044 -0.3100  0.4733
21559SOL    HW174991   4.264   7.072  12.514  1.1075 -0.2249 -0.3506
21559SOL    HW274992   4.283   6.989  12.640 -0.5730  0.5121  0.4234
21560SOL     OW74993  12.502   0.212   8.862 -0.1263 -0.4037  0.4192
21560SOL    HW174994  12.546   0.296   8.876 -0.0787 -0.0711 -1.4062
21560SOL    HW274995  12.428   0.214   8.922 -1.6728  2.1681 -1.3465
21561SOL     OW74996   1.692   0.263   8.815 -0.2562  0.3538 -0.7968
21561SOL    HW174997   1.679   0.169   8.815 -1.5370  0.5012  0.5884
21561SOL    HW274998   1.667   0.291   8.727  0.0686 -0.5713 -1.1896
21562SOL     OW74999  11.210   1.472  10.348  0.2033  0.3125  0.1141
21562SOL    HW175000  11.270   1.444  10.278  1.2054  0.0710  1.0481
21562SOL    HW275001  11.226   1.566  10.357  0.8480  0.1534  0.7223
21563SOL     OW75002  11.516  11.397   1.768 -0.5791 -0.0419 -0.0354
21563SOL    HW175003  11.497  11.303   1.764 -0.7992  0.0216 -0.6368
21563SOL    HW275004  11.592  11.408   1.710  0.3299 -0.0561  1.1299
21564SOL     OW75005   6.266   0.055   8.717 -0.3945  0.1798  0.0598
21564SOL    HW175006   6.220   0.003   8.784 -0.9832  2.3516  1.4406
21564SOL    HW275007   6.353   0.070   8.754 -0.5688  1.0084  0.1558
21565SOL     OW75008   9.649   1.403   5.869  0.1158  0.4967  0.1250
21565SOL    HW175009   9.719   1.468   5.879  0.0566  0.5959 -0.1004
21565SOL    HW275010   9.685   1.323   5.907  0.6043  0.3667 -0.5839
21566SOL     OW75011   3.625   3.054  11.554  0.8890 -0.5210  0.0947
21566SOL    HW175012   3.570   3.132  11.549  1.1471 -0.3489 -0.0555
21566SOL    HW275013   3.660   3.054  11.643  3.0196  0.9939 -0.6559
21567SOL     OW75014   3.474   8.381   5.961 -0.3730  0.1835  0.1029
21567SOL    HW175015   3.455   8.472   5.983 -0.4687 -0.2252  1.8073
21567SOL    HW275016   3.388   8.341   5.945 -0.3141  0.4374 -0.9183
21568SOL     OW75017   1.024  11.888   3.335 -0.3219 -0.0230 -0.0308
21568SOL    HW175018   1.053  11.799   3.315 -1.0082 -0.5553  1.2127
21568SOL    HW275019   1.070  11.943   3.272  0.8372 -1.1667 -0.2225
21569SOL     OW75020  10.540   3.666   0.613  0.5596 -0.1949 -0.1093
21569SOL    HW175021  10.486   3.657   0.692  1.1046 -2.8684  0.0641
21569SOL    HW275022  10.488   3.625   0.544  1.4261 -0.8502 -0.3971
21570SOL     OW75023   7.410  11.213   8.306 -0.3833 -0.1612  0.1466
21570SOL    HW175024   7.465  11.288   8.332 -1.3931  0.7085 -0.1746
21570SOL    HW275025   7.354  11.197   8.383 -1.2362  0.4236 -0.3400
21571SOL     OW75026   1.367   0.008   6.028  0.8844 -0.0423  0.0150
21571SOL    HW175027   1.435   0.053   5.978  0.3981  0.9574  0.2419
21571SOL    HW275028   1.394   0.017   6.119  0.6257  0.0553  0.0818
21572SOL     OW75029  12.379   0.209  10.811 -0.2272 -0.4150 -0.5268
21572SOL    HW175030  12.473   0.206  10.792 -0.1660  2.4525 -1.0308
21572SOL    HW275031  12.338   0.222  10.726 -0.9351  0.2892 -0.0847
21573SOL     OW75032   6.890   3.217   3.496 -0.1430 -0.1446  0.2834
21573SOL    HW175033   6.865   3.169   3.418  2.3461 -2.0438  0.5402
21573SOL    HW275034   6.868   3.159   3.569  0.4837  0.2209  0.7769
21574SOL     OW75035  12.023   7.579   1.407 -0.6776  0.0139  0.2860
21574SOL    HW175036  11.953   7.514   1.407 -1.3673  0.7096  1.9419
21574SOL    HW275037  12.103   7.528   1.423 -0.5353 -0.9494 -2.7868
21575SOL     OW75038  12.381   8.943   6.069  0.2762 -0.3600  0.8747
21575SOL    HW175039  12.475   8.949   6.050  0.1088 -1.4871 -0.4865
21575SOL    HW275040  12.339   8.963   5.985 -0.6818 -0.6953  1.2656
21576SOL     OW75041  11.623   8.611   3.684 -0.3532 -0.6510  0.6680
21576SOL    HW175042  11.563   8.676   3.649 -1.6956 -1.5701  1.1985
21576SOL    HW275043  11.677   8.660   3.747  0.5249  0.4964 -0.9122
21577SOL     OW75044   9.496  10.215   2.563 -0.5674 -0.1494  0.0746
21577SOL    HW175045   9.461  10.300   2.537 -0.1539  0.4377  1.3850
21577SOL    HW275046   9.576  10.205   2.510 -1.3822 -0.4165 -1.1602
21578SOL     OW75047   4.282   2.970   3.277 -0.0658  0.2669  0.7990
21578SOL    HW175048   4.268   3.032   3.349 -1.1196  2.6298 -1.3180
21578SOL    HW275049   4.369   2.991   3.243  0.0326 -0.2048  0.7433
21579SOL     OW75050   6.871  11.861   9.109 -0.2324 -0.1740 -0.2190
21579SOL    HW175051   6.836  11.775   9.085 -1.6379 -0.0575  1.2278
21579SOL    HW275052   6.807  11.924   9.076  0.8091  0.3552 -1.3042
21580SOL     OW75053   0.101  10.384  11.028 -0.6523 -0.0954 -0.4700
21580SOL    HW175054   0.176  10.370  11.086 -0.2475 -2.5579 -1.4710
21580SOL    HW275055   0.025  10.374  11.085 -0.2524 -0.3901  0.0194
21581SOL     OW75056   7.438  11.957   7.806  0.1631  0.0797 -0.2645
21581SOL    HW175057   7.357  11.921   7.769  0.8311 -2.3928  0.5144
21581SOL    HW275058   7.408  12.018   7.873 -1.0949 -1.1864  0.3731
21582SOL     OW75059   7.039  12.940  11.864 -0.2894 -0.1377  0.2071
21582SOL    HW175060   7.119  12.917  11.911 -0.4909  2.7341  2.2341
21582SOL    HW275061   6.969  12.920  11.926 -0.9891 -0.5738 -0.7079
21583SOL     OW75062   0.135   5.803   4.765 -0.3035 -0.3125  0.0857
21583SOL    HW175063   0.105   5.717   4.736 -0.7950 -0.7162  1.6993
21583SOL    HW275064   0.204   5.784   4.829 -0.9461  0.4586  1.0317
21584SOL     OW75065   6.457  12.141   4.359 -0.2191  0.0526  1.1699
21584SOL    HW175066   6.452  12.150   4.454 -2.4324  1.1921  1.0264
21584SOL    HW275067   6.471  12.230   4.327 -1.4775 -0.0077  0.3827
21585SOL     OW75068   4.548  10.070   2.338  0.5382 -0.2763  0.2102
21585SOL    HW175069   4.575  10.005   2.403  1.2582  1.4156  1.6990
21585SOL    HW275070   4.548  10.023   2.255  2.2066 -1.8731  1.0473
21586SOL     OW75071   4.456   7.613   1.201 -0.1329 -1.1208  0.7471
21586SOL    HW175072   4.542   7.637   1.235  0.3177 -0.5985 -0.7070
21586SOL    HW275073   4.416   7.562   1.272  0.1223  1.2051  2.6889
21587SOL     OW75074   5.898   6.618   2.100 -0.3245  0.6766 -0.3759
21587SOL    HW175075   5.918   6.577   2.016 -1.8298 -0.2104 -0.3371
21587SOL    HW275076   5.978   6.666   2.123  1.1125 -1.3432 -0.9461
21588SOL     OW75077  10.603  10.521   0.589 -0.2394 -0.6382 -0.3397
21588SOL    HW175078  10.577  10.605   0.551 -1.7089 -0.5670  0.7099
21588SOL    HW275079  10.694  10.534   0.615 -1.0051  1.4341  1.7364
21589SOL     OW75080   2.019   7.039  10.167  0.4162  0.9593 -0.5484
21589SOL    HW175081   2.029   7.011  10.076  2.8286  0.1162 -0.1042
21589SOL    HW275082   2.084   7.108  10.178  0.2229  0.9776  0.5607
21590SOL     OW75083  12.915   9.494   7.030  0.0305  0.5351 -0.1894
21590SOL    HW175084  12.899   9.587   7.014  0.6379  0.7848  0.5944
21590SOL    HW275085  12.932   9.489   7.124 -1.7091 -0.6203  0.1029
21591SOL     OW75086   4.762   5.164   9.192  0.6045  0.0948  0.9389
21591SOL    HW175087   4.797   5.075   9.182  0.2285 -0.2001  2.1096
21591SOL    HW275088   4.688   5.154   9.252 -0.6315  0.9315 -0.3938
21592SOL     OW75089   8.396  11.488   1.204 -0.6095  0.1100 -0.4441
21592SOL    HW175090   8.309  11.456   1.180 -1.4064  0.8978  1.2025
21592SOL    HW275091   8.412  11.450   1.290 -0.6161  2.2144  0.5663
21593SOL     OW75092   5.156   2.631   7.267  0.2782  0.1281 -0.7593
21593SOL    HW175093   5.185   2.719   7.291 -0.0232  0.5655 -1.9613
21593SOL    HW275094   5.121   2.640   7.179 -0.2964 -1.0873 -0.6755
21594SOL     OW75095  10.187   4.032  10.695  0.3412  0.0812  0.1799
21594SOL    HW175096  10.223   3.977  10.625 -2.1615  0.3167 -1.4626
21594SOL    HW275097  10.138   3.972  10.750 -1.9554  0.4221 -1.3171
21595SOL     OW75098   4.634   2.288   7.369  0.2502 -0.7686 -0.3200
21595SOL    HW175099   4.636   2.334   7.453 -1.9408 -1.9054  0.4275
21595SOL    HW275100   4.706   2.225   7.376  1.4245  0.5339 -0.1912
21596SOL     OW75101   2.233   7.418   0.669 -0.2623  0.1798 -0.0873
21596SOL    HW175102   2.223   7.380   0.582  1.5158  2.0487 -1.1920
21596SOL    HW275103   2.319   7.388   0.698 -0.5108  0.2164  0.6987
21597SOL     OW75104   2.435   3.923   5.225  0.1092  0.5281 -0.2938
21597SOL    HW175105   2.393   3.847   5.264 -1.2910  0.2835 -2.1271
21597SOL    HW275106   2.386   3.998   5.260 -2.1056  0.2413 -2.4725
21598SOL     OW75107  11.407   1.946   3.390 -0.2554 -0.1590 -0.6174
21598SOL    HW175108  11.407   1.962   3.484  0.8101  0.7111 -0.7414
21598SOL    HW275109  11.419   1.851   3.381  2.0487  0.0080  0.1307
21599SOL     OW75110   5.957   1.649   3.903 -0.1265 -0.1631  0.1647
21599SOL    HW175111   5.983   1.652   3.996 -0.1998 -1.3155  0.2378
21599SOL    HW275112   6.037   1.624   3.857 -0.3465 -0.6605  0.0445
21600SOL     OW75113   0.899   5.073   0.527  0.4195  0.1703  0.0158
21600SOL    HW175114   0.900   5.001   0.464  1.3090  0.0426  0.1548
21600SOL    HW275115   0.816   5.063   0.574 -1.1344  1.3194 -2.3014
21601SOL     OW75116   3.735   5.103   5.329  0.3444 -0.3734  0.0230
21601SOL    HW175117   3.704   5.057   5.408  1.7153  0.0227  0.8165
21601SOL    HW275118   3.790   5.039   5.284  1.1726  0.0376  0.4358
21602SOL     OW75119  11.142  10.509   7.718 -0.3312  0.1674 -0.0332
21602SOL    HW175120  11.208  10.474   7.777 -0.4866 -0.5855 -0.2955
21602SOL    HW275121  11.058  10.488   7.759 -0.4201  1.3987  0.4559
21603SOL     OW75122   1.801   3.468  10.858  0.1243  0.4400  0.1928
21603SOL    HW175123   1.867   3.491  10.792  0.9645 -0.8504  0.5557
21603SOL    HW275124   1.801   3.373  10.859 -1.8621  0.4083  0.1279
21604SOL     OW75125   3.444  12.185   4.955  0.1295 -0.5826  0.1990
21604SOL    HW175126   3.465  12.164   4.864 -1.0590  0.0019 -0.2348
21604SOL    HW275127   3.362  12.139   4.972 -0.7606  0.9715  0.2901
21605SOL     OW75128   7.474   0.976   8.657  0.8314  0.5792 -0.9156
21605SOL    HW175129   7.509   0.988   8.569  0.1162  0.4789 -1.2179
21605SOL    HW275130   7.546   0.936   8.706  1.8080  2.1213 -1.0125
21606SOL     OW75131   1.140   6.694   7.921 -0.6412  0.2005  0.1901
21606SOL    HW175132   1.114   6.655   7.838  0.8152  0.7793 -0.5755
21606SOL    HW275133   1.134   6.623   7.984  0.1250 -0.7819 -0.8101
21607SOL     OW75134   8.218   4.222   3.772  0.0523  0.5048 -0.3650
21607SOL    HW175135   8.209   4.288   3.841  2.3801  1.8458 -1.2280
21607SOL    HW275136   8.312   4.215   3.758 -0.3155  0.3773 -3.4872
21608SOL     OW75137   4.224   2.452   4.278  0.0883 -0.7387 -0.1001
21608SOL    HW175138   4.310   2.416   4.300  0.3329 -0.8633 -1.2350
21608SOL    HW275139   4.237   2.547   4.277  0.5508 -0.8048 -1.5947
21609SOL     OW75140   8.826  12.702   2.278  0.4073  0.2267  0.0668
21609SOL    HW175141   8.870  12.756   2.213 -0.8646  0.9140 -0.2611
21609SOL    HW275142   8.761  12.761   2.318  0.0511 -0.6369  0.8024
21610SOL     OW75143   1.526   5.708  10.461 -0.2530 -0.5411 -0.5679
21610SOL    HW175144   1.499   5.750  10.543 -1.3446  0.6282 -1.4765
21610SOL    HW275145   1.544   5.782  10.402  0.2196 -1.3610 -1.4699
21611SOL     OW75146   8.172   8.804   8.892  0.2247  0.1080  0.1587
21611SOL    HW175147   8.115   8.819   8.816 -0.5824  2.2202  1.1208
21611SOL    HW275148   8.142   8.720   8.928 -1.1978  0.3921 -0.3077
21612SOL     OW75149  12.486  12.032  12.475  0.0677  0.6705  0.3728
21612SOL    HW175150  12.526  11.964  12.421 -1.9856 -0.5504  0.3136
21612SOL    HW275151  12.472  11.990  12.560 -1.4852  0.8829  0.2506
21613SOL     OW75152   1.123   7.637   3.208 -0.0670  1.1294 -0.3176
21613SOL    HW175153   1.212   7.611   3.187 -0.2124  0.1972  0.1685
21613SOL    HW275154   1.087   7.563   3.258 -1.0649  1.5415 -0.3950
21614SOL     OW75155   1.568   0.788  10.194  0.3101  0.1531  0.4269
21614SOL    HW175156   1.505   0.770  10.125  1.2420 -1.9218  0.0433
21614SOL    HW275157   1.647   0.816  10.147  0.5708 -0.1017  0.7084
21615SOL     OW75158   1.591   5.368   6.002 -0.1679 -0.1373 -0.2367
21615SOL    HW175159   1.581   5.274   5.986 -1.2661  0.2182 -1.8393
21615SOL    HW275160   1.646   5.399   5.931 -1.4012  0.7330 -0.8410
21616SOL     OW75161  12.034  11.701  12.052  0.1978  0.3585 -0.2724
21616SOL    HW175162  12.068  11.620  12.016  1.5746  0.3081  1.0529
21616SOL    HW275163  12.105  11.765  12.040 -0.4442  1.0856 -0.3035
21617SOL     OW75164   8.044  10.927  11.111 -0.0874  0.3074 -0.2930
21617SOL    HW175165   7.993  10.965  11.040 -1.6222  0.3210  0.7626
21617SOL    HW275166   8.052  10.997  11.175  0.1294 -0.0977  0.1319
21618SOL     OW75167  10.587  10.183  12.504  0.5834 -0.2414  0.4032
21618SOL    HW175168  10.613  10.096  12.534  1.5368 -0.6780 -1.5687
21618SOL    HW275169  10.494  10.174  12.482  0.4476 -0.4919  1.0365
21619SOL     OW75170   0.204   0.284  10.738 -0.0268 -0.1219 -0.7327
21619SOL    HW175171   0.269   0.338  10.693  0.3406 -0.0658 -0.1494
21619SOL    HW275172   0.141   0.347  10.772 -0.6421 -0.2077 -1.6804
21620SOL     OW75173   7.469  12.428   7.038 -0.1894 -0.3674  0.7785
21620SOL    HW175174   7.448  12.337   7.017  1.5483 -0.7773  0.6773
21620SOL    HW275175   7.533  12.454   6.971 -2.1261  1.6264 -0.4458
21621SOL     OW75176   9.468   8.579  12.558 -0.0445 -0.0293 -0.3412
21621SOL    HW175177   9.527   8.504  12.565  0.5545  0.5257  0.8147
21621SOL    HW275178   9.518   8.645  12.509 -0.1742 -0.0081 -0.4452
21622SOL     OW75179   9.005   7.922   0.802  0.3119  0.1864  0.0426
21622SOL    HW175180   9.032   8.013   0.797 -1.0482  0.5677 -0.5993
21622SOL    HW275181   8.929   7.915   0.745  0.0082 -1.2071  0.5611
21623SOL     OW75182   0.749   9.311   7.511  0.1800 -0.8655  0.0262
21623SOL    HW175183   0.806   9.247   7.468  1.3037 -0.0650  0.2987
21623SOL    HW275184   0.724   9.268   7.594  1.7366 -0.5885  0.6757
21624SOL     OW75185  10.499   8.627   9.809  0.1739 -0.0194 -0.1735
21624SOL    HW175186  10.434   8.640   9.741 -0.3624  0.9343  0.4978
21624SOL    HW275187  10.449   8.620   9.890  0.8252 -0.6580  0.1817
21625SOL     OW75188   1.811   9.446  11.023  0.6176  0.3433 -0.0220
21625SOL    HW175189   1.790   9.534  11.055 -0.7253 -0.1473  0.5124
21625SOL    HW275190   1.780   9.446  10.932 -0.1166  0.1802  0.2233
21626SOL     OW75191   7.782   4.000   5.209 -0.0382  0.0366 -0.0387
21626SOL    HW175192   7.714   4.066   5.196  1.3930  1.5778  0.0631
21626SOL    HW275193   7.827   4.027   5.289  2.5512  0.7723 -1.6276
21627SOL     OW75194   8.265   0.365  11.718  0.7375 -0.0731  0.2066
21627SOL    HW175195   8.195   0.404  11.665 -1.3995 -2.7414  0.8772
21627SOL    HW275196   8.294   0.289  11.667  0.5119 -1.1432  1.6286
21628SOL     OW75197  10.979   5.970   6.647  1.0539 -0.1083 -0.2595
21628SOL    HW175198  11.019   5.904   6.589  1.1343 -0.4398  0.1653
21628SOL    HW275199  10.925   6.024   6.589  0.6576 -0.8070 -0.5526
21629SOL     OW75200   5.842   2.359   1.148  0.3087 -0.3049 -0.0701
21629SOL    HW175201   5.894   2.420   1.095  1.1167  0.0866  1.1491
21629SOL    HW275202   5.872   2.273   1.121 -0.8490 -0.2086 -1.8227
21630SOL     OW75203   5.836   4.039   4.980 -0.2350  0.2658 -0.0586
21630SOL    HW175204   5.818   4.129   4.951 -1.4263  0.0525 -0.0260
21630SOL    HW275205   5.812   4.039   5.073 -0.1170 -0.0494 -0.0292
21631SOL     OW75206   9.777   7.604   0.711 -0.2697 -0.2550 -0.5414
21631SOL    HW175207   9.802   7.680   0.764  1.3370 -1.4599  0.5191
21631SOL    HW275208   9.685   7.589   0.733  0.1904 -0.3939  1.5779
21632SOL     OW75209   2.688   7.093   8.499 -0.4164  0.2925  0.1866
21632SOL    HW175210   2.653   7.111   8.412 -0.4050  1.4614  0.4113
21632SOL    HW275211   2.667   7.001   8.515 -0.9768  0.2431 -0.7841
21633SOL     OW75212   1.202   1.200   0.738 -0.0517  0.3273  0.1601
21633SOL    HW175213   1.257   1.204   0.660 -0.6616 -0.3118 -0.3181
21633SOL    HW275214   1.126   1.254   0.717 -0.4506 -0.2456  0.1158
21634SOL     OW75215   1.692   0.408   9.990  0.5275  0.5841  0.9218
21634SOL    HW175216   1.734   0.452  10.064 -1.0315  0.2813  2.0117
21634SOL    HW275217   1.754   0.339   9.966  1.4250  1.1988  1.3976
21635SOL     OW75218   4.104   4.886   5.229 -0.0186  0.2025 -0.5225
21635SOL    HW175219   4.199   4.893   5.242 -0.1051  1.2766 -0.3789
21635SOL    HW275220   4.079   4.808   5.279  0.2456  1.9968  2.6840
21636SOL     OW75221  12.262  11.944   6.835 -0.7053 -0.1113  0.6531
21636SOL    HW175222  12.330  12.007   6.810  0.1615 -1.0163  0.6526
21636SOL    HW275223  12.181  11.994   6.833  0.0884  1.3045  1.7990
21637SOL     OW75224   3.589   2.294   5.866  0.2170  0.5270  0.1316
21637SOL    HW175225   3.578   2.324   5.956  0.8654  0.5353  0.2165
21637SOL    HW275226   3.513   2.328   5.819  1.0417  2.5539  0.1564
21638SOL     OW75227  10.022   8.098   7.297 -0.1252  0.0589  0.2259
21638SOL    HW175228  10.100   8.104   7.242  0.9346  0.5398  1.6963
21638SOL    HW275229  10.050   8.131   7.382 -1.9622  0.2782  0.8030
21639SOL     OW75230   1.330   7.734   5.009  0.3174  0.3682 -0.0445
21639SOL    HW175231   1.330   7.736   4.913  1.6247 -0.8631 -0.0870
21639SOL    HW275232   1.408   7.685   5.032 -1.8145 -2.5689  1.5797
21640SOL     OW75233   5.142   6.481   3.993 -0.5375 -0.7169 -0.6092
21640SOL    HW175234   5.105   6.549   4.050  0.0415 -0.0028 -1.0599
21640SOL    HW275235   5.236   6.496   3.996 -0.3375 -1.9337 -0.1978
21641SOL     OW75236   1.348   5.998  10.483 -0.2046  0.2941  0.1329
21641SOL    HW175237   1.266   6.041  10.459 -0.7987 -1.0067 -0.2922
21641SOL    HW275238   1.337   5.973  10.575 -0.7498 -0.8138 -0.2088
21642SOL     OW75239   1.499   7.128  10.098  0.1805  0.5969 -0.0452
21642SOL    HW175240   1.489   7.214  10.139  0.2610  0.5273  0.1217
21642SOL    HW275241   1.434   7.073  10.141  1.7967 -0.0890  1.6731
21643SOL     OW75242   6.392   8.544   8.481  0.2623 -0.0766  0.2620
21643SOL    HW175243   6.472   8.562   8.531  0.6266 -0.1976 -0.2624
21643SOL    HW275244   6.384   8.618   8.422  0.3805 -0.4087 -0.1726
21644SOL     OW75245   8.944   1.301   6.185 -0.0916  0.0261 -0.1619
21644SOL    HW175246   8.876   1.249   6.142 -1.0305  1.3199 -0.3189
21644SOL    HW275247   8.897   1.351   6.253  0.8914  0.1258  0.4734
21645SOL     OW75248   7.245   1.546  11.451 -0.7147  0.3869  0.2994
21645SOL    HW175249   7.294   1.569  11.530 -1.9028  2.3162  0.5404
21645SOL    HW275250   7.154   1.539  11.480 -0.7689 -2.6641 -0.2239
21646SOL     OW75251   0.977   0.310  11.433  0.3195 -0.3655 -0.5593
21646SOL    HW175252   1.068   0.329  11.414  0.5070 -0.7017 -0.0282
21646SOL    HW275253   0.972   0.214  11.435  0.3553 -0.3628  1.1998
21647SOL     OW75254  11.698   2.108   0.920 -0.5079 -0.1354  0.5789
21647SOL    HW175255  11.730   2.141   1.004  0.7239  1.9242 -0.5959
21647SOL    HW275256  11.640   2.177   0.888 -1.1878 -1.0157 -0.1495
21648SOL     OW75257   6.162   8.858   4.187  0.0708  0.4279  0.1256
21648SOL    HW175258   6.104   8.887   4.116  0.4782 -0.5379 -0.6191
21648SOL    HW275259   6.167   8.763   4.176  1.4118  0.4437  0.4688
21649SOL     OW75260   7.996   5.427   8.510  0.0369 -0.1496  0.0094
21649SOL    HW175261   8.091   5.435   8.497  0.3193 -1.4109  1.0257
21649SOL    HW275262   7.981   5.463   8.597 -0.0824 -1.7222  0.6772
21650SOL     OW75263   9.879   8.042   7.846 -0.3774 -0.0562 -0.4894
21650SOL    HW175264   9.865   8.091   7.765 -0.1853  1.4365  0.3576
21650SOL    HW275265   9.799   8.056   7.896  0.6410  1.5013  0.7959
21651SOL     OW75266  12.005   6.571   8.732  0.0247 -0.0878  0.7728
21651SOL    HW175267  11.962   6.646   8.691 -0.6297 -0.7964  0.1051
21651SOL    HW275268  11.942   6.540   8.797  0.4010  0.0898  1.2243
21652SOL     OW75269   0.757   9.656  12.923 -0.3538 -0.2794 -0.3613
21652SOL    HW175270   0.727   9.713  12.852  0.4296 -0.6180 -0.9799
21652SOL    HW275271   0.814   9.593  12.880 -2.5537 -2.6804 -0.0261
21653SOL     OW75272   5.191   3.050   2.762 -0.1546 -0.1172 -0.1282
21653SOL    HW175273   5.175   3.101   2.683 -0.3907  1.6829  1.0255
21653SOL    HW275274   5.122   3.076   2.823  0.5597 -0.7488  0.9983
21654SOL     OW75275  11.558   1.984   8.485  0.4774  0.6096 -1.2775
21654SOL    HW175276  11.644   2.005   8.521  0.4461  0.6911 -1.2493
21654SOL    HW275277  11.535   1.900   8.526  0.8271  0.2605 -1.7880
21655SOL     OW75278  12.785  10.158   7.693  0.0192  0.1319  0.0614
21655SOL    HW175279  12.733  10.082   7.718 -0.2118  0.5872  1.0155
21655SOL    HW275280  12.815  10.138   7.604 -1.4564 -0.3135 -0.3789
21656SOL     OW75281   1.639   3.336   7.055 -0.4571 -0.4094 -0.4832
21656SOL    HW175282   1.580   3.395   7.009  1.1695  1.0384 -0.8224
21656SOL    HW275283   1.698   3.303   6.987  0.9360  0.4640  0.2338
21657SOL     OW75284   2.806   1.023   2.138 -0.6842 -0.0123  0.1998
21657SOL    HW175285   2.745   0.960   2.177  1.4524 -1.7304  0.9301
21657SOL    HW275286   2.882   0.971   2.112  0.7316  2.1138 -0.1968
21658SOL     OW75287   0.671   4.763   3.556  0.4440  0.7303 -0.1121
21658SOL    HW175288   0.608   4.759   3.485  1.0994 -1.8545 -0.6520
21658SOL    HW275289   0.618   4.778   3.634 -0.5960  0.8490 -0.8200
21659SOL     OW75290   0.403   7.672   9.375  0.4119  0.3003  0.1112
21659SOL    HW175291   0.308   7.675   9.385  0.1820  0.8765 -1.7654
21659SOL    HW275292   0.429   7.591   9.418 -1.0963 -0.5616 -0.5151
21660SOL     OW75293   3.012   6.044   9.792 -0.0927  0.1662 -0.7328
21660SOL    HW175294   3.054   6.128   9.810  0.2264 -0.0837 -0.2852
21660SOL    HW275295   3.061   6.008   9.717  1.3626 -0.6916  0.5578
21661SOL     OW75296   2.925   1.337   1.919  0.1131 -0.1582 -0.4144
21661SOL    HW175297   2.956   1.281   1.989 -0.1428 -0.2260 -0.3545
21661SOL    HW275298   2.837   1.304   1.898 -0.5764  1.0196  0.5009
21662SOL     OW75299   6.006   9.467   5.685 -0.1057 -0.3108 -0.2554
21662SOL    HW175300   6.048   9.389   5.720  1.9938  0.3254 -1.2211
21662SOL    HW275301   6.034   9.538   5.743  0.8270  0.2389 -1.3365
21663SOL     OW75302  10.460   0.541   0.775  0.1189 -0.0040  0.8911
21663SOL    HW175303  10.371   0.506   0.783 -0.0358 -0.3735 -1.5902
21663SOL    HW275304  10.512   0.468   0.741  0.8714  0.8094  0.2282
21664SOL     OW75305  12.407   4.457   9.473  0.4712 -0.8143 -0.3351
21664SOL    HW175306  12.392   4.363   9.458  0.7560 -0.8874 -0.1712
21664SOL    HW275307  12.501   4.464   9.487  0.4060 -0.5467 -0.0166
21665SOL     OW75308   3.697   9.618  11.781  0.0790 -0.1957 -0.1222
21665SOL    HW175309   3.630   9.671  11.738  0.0532 -0.9378 -1.0162
21665SOL    HW275310   3.648   9.549  11.825  0.2463 -0.5774 -0.5415
21666SOL     OW75311  10.402  10.207   2.738 -0.2640 -0.3643  0.1265
21666SOL    HW175312  10.371  10.161   2.659 -1.0018 -1.1181  0.8353
21666SOL    HW275313  10.476  10.154   2.768  0.6951  0.4995 -0.6136
21667SOL     OW75314   2.025   2.865   0.275 -0.3434 -0.0612 -0.1913
21667SOL    HW175315   2.026   2.939   0.336  0.3211  1.4518 -1.9179
21667SOL    HW275316   1.933   2.856   0.251 -0.6305 -0.7582  1.0860
21668SOL     OW75317   0.072  10.769   9.350  0.0125  0.1257  0.1761
21668SOL    HW175318  -0.009  10.797   9.309  0.1523  1.7394  0.9342
21668SOL    HW275319   0.052  10.682   9.386 -1.7032  0.9189  1.2458
21669SOL     OW75320   6.640  10.525   3.635  0.2860  0.5533  0.0537
21669SOL    HW175321   6.721  10.573   3.619 -0.2048  1.3069 -0.2167
21669SOL    HW275322   6.576  10.593   3.655 -0.7782  0.1403 -1.7922
21670SOL     OW75323   3.921   2.930   1.612  0.2522  0.0350 -0.1825
21670SOL    HW175324   3.970   2.952   1.533 -0.2719 -1.6134 -0.9924
21670SOL    HW275325   3.985   2.885   1.668 -0.2149 -1.9486 -1.1619
21671SOL     OW75326   1.225   8.815   8.073  0.6208 -0.6488 -0.1825
21671SOL    HW175327   1.186   8.867   8.003  0.3366 -0.2376  0.2814
21671SOL    HW275328   1.180   8.730   8.067  0.0120 -0.3409  0.0305
21672SOL     OW75329   6.021   4.609   2.162 -0.0110  0.3854  0.8312
21672SOL    HW175330   6.074   4.656   2.225  0.1195  1.5674 -0.1330
21672SOL    HW275331   5.939   4.590   2.208  0.3195  0.6853  1.5430
21673SOL     OW75332   9.452   3.168   2.289  0.5073 -0.3976 -0.1773
21673SOL    HW175333   9.458   3.132   2.201  2.3903 -0.8846  0.1131
21673SOL    HW275334   9.458   3.263   2.277  0.1783 -0.4254 -0.5914
21674SOL     OW75335   2.106   2.988  12.259  0.1055  0.2765  0.4279
21674SOL    HW175336   2.044   2.921  12.287 -0.5924  0.4634 -0.6266
21674SOL    HW275337   2.188   2.941  12.245 -0.1621 -0.2130  0.5084
21675SOL     OW75338  12.295  12.775   9.129  0.1210 -0.6544  0.1702
21675SOL    HW175339  12.355  12.849   9.136  1.3918 -1.4439 -1.5787
21675SOL    HW275340  12.241  12.780   9.208  0.8299  1.5295  0.5765
21676SOL     OW75341   4.022   9.763   3.719 -0.1933  0.1222 -0.5624
21676SOL    HW175342   4.089   9.702   3.749  0.4704  0.1693 -1.8790
21676SOL    HW275343   4.028   9.837   3.781  0.3516 -0.2639 -0.1450
21677SOL     OW75344  12.345  10.824   6.507  0.0926 -0.0538  0.3117
21677SOL    HW175345  12.281  10.895   6.503  0.3681  0.2678  1.2797
21677SOL    HW275346  12.425  10.865   6.541  0.8825 -0.4197 -1.0234
21678SOL     OW75347   9.130   6.568   6.741 -0.5818 -0.5147  0.5822
21678SOL    HW175348   9.118   6.553   6.647 -0.6436  0.0917  0.4922
21678SOL    HW275349   9.225   6.561   6.754 -0.0968  2.9373 -0.1805
21679SOL     OW75350   5.159  10.098   4.250  0.2077  0.5725 -0.1392
21679SOL    HW175351   5.148  10.129   4.340 -0.6387 -0.7751  0.2589
21679SOL    HW275352   5.098  10.150   4.199 -1.7109 -0.8178  0.6260
21680SOL     OW75353   1.417   4.330  12.976 -0.1045 -0.2520  0.2348
21680SOL    HW175354   1.455   4.277  13.046 -0.5752  0.9438  1.4151
21680SOL    HW275355   1.324   4.333  12.995  0.0385  1.8660  0.8315
21681SOL     OW75356   7.166   6.865   5.974 -0.0340 -0.5199  0.0691
21681SOL    HW175357   7.130   6.853   5.886 -0.5453  0.1371  0.1755
21681SOL    HW275358   7.189   6.777   6.003 -1.1191 -0.9173 -0.2059
21682SOL     OW75359   5.447  10.786   6.614  0.0484  0.5888 -0.1884
21682SOL    HW175360   5.461  10.702   6.658  0.8915  0.9277  0.2253
21682SOL    HW275361   5.367  10.775   6.563 -0.3214 -0.1777  0.5591
21683SOL     OW75362   3.285   1.941   1.802  0.3062 -0.1968  0.1025
21683SOL    HW175363   3.238   2.005   1.855 -0.0043 -0.1765 -0.2007
21683SOL    HW275364   3.217   1.883   1.767  0.3048  0.8567 -1.7486
21684SOL     OW75365   7.161   3.130   9.535  0.0419 -0.3591  0.0709
21684SOL    HW175366   7.152   3.204   9.476 -0.2381  0.3992  1.0401
21684SOL    HW275367   7.137   3.164   9.621  1.8535 -1.0398  0.9014
21685SOL     OW75368   5.569   3.506   6.783 -0.0052 -0.4291 -0.5367
21685SOL    HW175369   5.537   3.433   6.836  1.7429 -0.4883  0.5110
21685SOL    HW275370   5.552   3.584   6.836  3.6946 -0.6525  1.2863
21686SOL     OW75371   5.289  11.458   8.524  0.2213  0.0672  0.2993
21686SOL    HW175372   5.308  11.436   8.615  0.5436  1.0906  0.4871
21686SOL    HW275373   5.254  11.547   8.527  2.5900  1.1243 -0.7954
21687SOL     OW75374   5.917   9.320   6.355 -0.4686 -0.2417 -0.0200
21687SOL    HW175375   6.008   9.291   6.352 -0.3876  0.0858 -0.6535
21687SOL    HW275376   5.900   9.357   6.269 -0.9352  0.5227  0.3876
21688SOL     OW75377  12.331  11.529   3.151 -0.3367 -0.2799 -0.2923
21688SOL    HW175378  12.326  11.440   3.184  0.1576  0.2996  1.4497
21688SOL    HW275379  12.418  11.534   3.111  0.1827 -0.2181  0.8049
21689SOL     OW75380  10.223   7.553   4.687 -0.0261  0.2184 -0.7195
21689SOL    HW175381  10.195   7.644   4.672 -0.2380  0.3629  0.4294
21689SOL    HW275382  10.262   7.554   4.774 -0.0312 -0.7997 -0.6911
21690SOL     OW75383   3.217   5.235   8.936  0.1387 -0.0854  0.2675
21690SOL    HW175384   3.192   5.305   8.997 -0.2701 -1.3087  1.5556
21690SOL    HW275385   3.166   5.253   8.858 -1.0256  0.2939  1.0831
21691SOL     OW75386  10.319   5.318   8.372 -0.2019  0.0433 -0.0892
21691SOL    HW175387  10.390   5.288   8.430 -0.8391 -0.6877  0.3320
21691SOL    HW275388  10.337   5.411   8.358 -0.4751  0.4460  1.9615
21692SOL     OW75389   9.026   3.259   9.841  0.4994  0.0558  0.3882
21692SOL    HW175390   9.051   3.192   9.777  1.3862  0.6465  0.0972
21692SOL    HW275391   8.931   3.253   9.845  0.6197 -2.4129  1.6985
21693SOL     OW75392   2.211   0.814   2.603  0.5984 -0.0404 -0.1623
21693SOL    HW175393   2.260   0.852   2.676  1.5175 -0.5671 -0.4870
21693SOL    HW275394   2.119   0.826   2.626  0.8797  0.0477  0.9425
21694SOL     OW75395   6.421   9.933   7.430  0.2788  0.3491 -0.4153
21694SOL    HW175396   6.398   9.898   7.516  1.3651 -0.4172 -0.4221
21694SOL    HW275397   6.391  10.024   7.433 -0.9982 -0.0671  0.2352
21695SOL     OW75398   9.218   6.676   7.212  0.3749 -0.1223 -0.6397
21695SOL    HW175399   9.129   6.706   7.231  1.1642  1.1020  1.4848
21695SOL    HW275400   9.229   6.599   7.267  0.4691 -0.5705 -1.2823
21696SOL     OW75401  10.224   1.098  11.558 -0.0131  0.2507 -0.0778
21696SOL    HW175402  10.224   1.103  11.462  2.5074 -2.1556 -0.3300
21696SOL    HW275403  10.176   1.176  11.586  0.9907  2.2113 -3.2585
21697SOL     OW75404   2.710   8.836   7.275 -0.4255  0.6112  0.0909
21697SOL    HW175405   2.805   8.829   7.283 -0.4662 -3.2237 -0.9720
21697SOL    HW275406   2.679   8.832   7.366  0.3765  0.3831  0.3685
21698SOL     OW75407  10.254  11.671   3.674 -0.0956  0.4315 -0.0926
21698SOL    HW175408  10.306  11.708   3.745 -0.3099 -0.8203  0.7554
21698SOL    HW275409  10.163  11.676   3.706 -0.0460 -1.8515  0.6016
21699SOL     OW75410  11.886   0.023   9.305 -0.2791 -0.0466 -0.1356
21699SOL    HW175411  11.892   0.087   9.376  1.0706  0.4765 -0.6970
21699SOL    HW275412  11.801  -0.021   9.320  0.3453 -0.6037  2.3239
21700SOL     OW75413   7.014   6.122   4.135  0.1930  0.2119 -0.2270
21700SOL    HW175414   7.099   6.082   4.154 -0.2302 -0.9748 -0.7445
21700SOL    HW275415   6.951   6.065   4.179 -0.3268  1.3378  0.5429
21701SOL     OW75416  10.724  11.579   3.823  0.5777  0.2955  0.0677
21701SOL    HW175417  10.694  11.489   3.832  0.8416  0.3205  1.3319
21701SOL    HW275418  10.729  11.593   3.728 -1.7696 -0.2353 -0.1827
21702SOL     OW75419   7.602   2.502   5.872 -0.4578  0.0152 -0.2823
21702SOL    HW175420   7.602   2.515   5.777  1.7465 -1.6796 -0.5938
21702SOL    HW275421   7.673   2.559   5.904  0.8286 -1.6364 -0.0866
21703SOL     OW75422   4.612  10.856   0.113  0.6775 -0.4088  0.0770
21703SOL    HW175423   4.626  10.767   0.081  1.4158  0.0915 -1.0753
21703SOL    HW275424   4.696  10.899   0.100  0.0742  0.7051 -0.2660
21704SOL     OW75425   9.648   0.742   9.598  0.3188 -0.2358 -0.2101
21704SOL    HW175426   9.603   0.680   9.655  0.5400 -1.2192 -1.0723
21704SOL    HW275427   9.712   0.784   9.655  1.0775 -1.7612  0.1269
21705SOL     OW75428   6.698   4.601   2.409 -0.5394  0.9145 -0.5046
21705SOL    HW175429   6.632   4.546   2.452  0.2008 -0.5077 -1.1281
21705SOL    HW275430   6.738   4.544   2.343  0.0235  2.3158 -1.4309
21706SOL     OW75431  10.206   0.793  10.793  0.1809 -0.7174  0.1268
21706SOL    HW175432  10.257   0.729  10.744 -0.4993 -0.2555 -1.2436
21706SOL    HW275433  10.132   0.743  10.827 -0.5082 -0.6505 -1.1918
21707SOL     OW75434   4.203   7.588   2.836  0.4230  0.3719  0.2695
21707SOL    HW175435   4.246   7.521   2.889  1.8612  0.6069 -0.5591
21707SOL    HW275436   4.237   7.671   2.869  0.2857  0.5847 -0.1106
21708SOL     OW75437   0.692   4.046   6.350  0.2212  0.1793 -0.0395
21708SOL    HW175438   0.631   4.084   6.285 -0.3670 -0.6991 -0.0161
21708SOL    HW275439   0.710   3.958   6.317  1.5495  0.4516 -0.0752
21709SOL     OW75440   4.318   7.356   7.804  0.4945 -0.1197 -0.5919
21709SOL    HW175441   4.275   7.439   7.782 -0.7770 -0.5552  0.1526
21709SOL    HW275442   4.406   7.382   7.831  0.6257  0.8287 -1.8542
21710SOL     OW75443   3.592  10.264   2.017  0.2631  0.5377  0.5911
21710SOL    HW175444   3.579  10.351   1.979  0.0778  0.4766  0.5108
21710SOL    HW275445   3.596  10.279   2.111 -0.0220  0.6052  0.5932
21711SOL     OW75446  11.771   4.076   6.247  0.0426 -0.0269  0.1103
21711SOL    HW175447  11.764   4.142   6.315 -0.4601 -0.1331  0.1725
21711SOL    HW275448  11.680   4.050   6.230  0.3180 -2.3124  1.6878
21712SOL     OW75449  10.175   6.068   5.374  0.5821  0.1712  0.1302
21712SOL    HW175450  10.083   6.043   5.370  0.4835  0.6724 -1.0877
21712SOL    HW275451  10.214   6.006   5.437 -0.6197  0.1358  0.8720
21713SOL     OW75452   4.935   3.995   3.572 -0.4389  0.1893  0.4880
21713SOL    HW175453   4.841   3.978   3.575 -0.1499 -1.4779  1.1641
21713SOL    HW275454   4.948   4.046   3.492 -1.7701 -0.6597 -0.3046
21714SOL     OW75455   0.157   6.163   3.277 -0.3730 -0.2397 -0.2921
21714SOL    HW175456   0.185   6.213   3.353  0.0509 -0.7000 -0.1451
21714SOL    HW275457   0.109   6.227   3.223 -0.3925  0.1650  0.1963
21715SOL     OW75458   7.931  12.817   3.968 -0.1466  0.5864  0.1223
21715SOL    HW175459   7.852  12.872   3.961 -0.6208 -0.2744 -2.1886
21715SOL    HW275460   7.920  12.769   4.050 -0.1829  3.1453  1.7344
21716SOL     OW75461  12.430   3.936  12.556 -0.8335  0.4236 -0.0685
21716SOL    HW175462  12.514   3.892  12.565 -0.9819  0.0966 -0.2775
21716SOL    HW275463  12.397   3.943  12.646 -2.1524 -2.5209 -0.2298
21717SOL     OW75464   1.976   0.314   8.560 -0.2918  0.4969  0.8863
21717SOL    HW175465   1.905   0.265   8.520  0.4319  0.0187  0.1634
21717SOL    HW275466   2.003   0.260   8.634  0.8284 -0.4776 -0.1953
21718SOL     OW75467  12.371   6.545   9.328 -0.0394  0.2493 -0.2148
21718SOL    HW175468  12.306   6.500   9.275 -0.4642  0.3628  0.1955
21718SOL    HW275469  12.351   6.518   9.418  0.5901  0.1495 -0.1021
21719SOL     OW75470   0.865   0.613  10.793  0.5856 -0.1877  0.1155
21719SOL    HW175471   0.938   0.668  10.765 -0.5757  0.6578 -1.4128
21719SOL    HW275472   0.797   0.675  10.819  0.6134 -0.9654  2.1810
21720SOL     OW75473   2.333  10.349  12.517  0.5599 -0.7049  0.2791
21720SOL    HW175474   2.300  10.431  12.555 -1.5656 -1.3751 -0.0116
21720SOL    HW275475   2.428  10.363  12.511  0.8415  0.1907  4.0246
21721SOL     OW75476   2.981   8.992   7.664  0.2166 -0.2771  0.3851
21721SOL    HW175477   2.901   9.027   7.704 -0.2609  0.2152 -0.9293
21721SOL    HW275478   3.004   9.057   7.597  0.1191 -1.7588 -1.1492
21722SOL     OW75479   0.184   2.721   9.953 -0.2182 -0.4795 -0.2858
21722SOL    HW175480   0.114   2.659   9.934 -0.5503  0.1814 -1.3206
21722SOL    HW275481   0.195   2.770   9.871 -0.1752  1.0180  0.5897
21723SOL     OW75482   9.690   3.841   4.313  0.0545  0.0217 -0.6980
21723SOL    HW175483   9.673   3.935   4.323  0.6937  0.2162 -1.3739
21723SOL    HW275484   9.737   3.834   4.230 -0.8480 -1.0052 -1.1415
21724SOL     OW75485   7.563   0.582   9.462  0.1625  0.0430  0.4132
21724SOL    HW175486   7.638   0.555   9.409 -0.7481 -1.9046 -0.0015
21724SOL    HW275487   7.500   0.615   9.398 -0.2577 -0.6440  0.4599
21725SOL     OW75488  10.801   8.528  10.342 -0.4418 -0.5219 -0.1168
21725SOL    HW175489  10.766   8.614  10.362  1.7406  0.7264 -1.2550
21725SOL    HW275490  10.802   8.482  10.426 -2.8053  0.0295  0.2977
21726SOL     OW75491  11.868   5.904   1.534  0.0091 -0.0836  0.1183
21726SOL    HW175492  11.839   5.895   1.625 -1.3242 -0.6844 -0.3334
21726SOL    HW275493  11.830   5.828   1.489 -0.7232  1.0328 -1.2634
21727SOL     OW75494   7.176   9.189   6.790 -0.9314  0.0631  0.0337
21727SOL    HW175495   7.126   9.243   6.851 -2.0844 -0.6206 -0.2774
21727SOL    HW275496   7.199   9.248   6.718 -0.0515  0.7270  0.8439
21728SOL     OW75497   5.895   4.236   2.184 -0.4081  0.5277 -0.2078
21728SOL    HW175498   5.853   4.285   2.113 -2.5826 -0.1035  0.5653
21728SOL    HW275499   5.829   4.235   2.254  1.2310  0.1282  1.3797
21729SOL     OW75500   2.914   4.528  10.840 -0.4161  0.3113 -0.5504
21729SOL    HW175501   2.852   4.575  10.896 -0.4354 -0.5526  0.1711
21729SOL    HW275502   2.858   4.473  10.784 -0.3392  0.1526 -0.4719
21730SOL     OW75503  11.559   2.116   2.206 -0.5625  0.0584 -0.5379
21730SOL    HW175504  11.584   2.097   2.296  1.3835 -0.9148 -1.2226
21730SOL    HW275505  11.642   2.116   2.158 -1.5941  0.1647 -2.4064
21731SOL     OW75506  12.457   4.076   6.625  0.5545 -0.0973 -0.3391
21731SOL    HW175507  12.487   4.025   6.550  1.6990 -0.5518  0.3908
21731SOL    HW275508  12.538   4.112   6.663 -0.1507  1.7864 -0.4844
21732SOL     OW75509   0.976   2.691  12.477 -0.2581  0.0154  0.3603
21732SOL    HW175510   1.030   2.648  12.544 -0.2794  1.7000  1.5384
21732SOL    HW275511   0.981   2.784  12.499  0.6800  0.8034 -2.7032
21733SOL     OW75512   0.271   9.688  12.858  0.2059 -0.2367  0.2939
21733SOL    HW175513   0.241   9.609  12.904 -1.3521  0.8418  1.2046
21733SOL    HW275514   0.320   9.737  12.924  1.8968 -0.7855 -0.4952
21734SOL     OW75515   0.492  12.077   8.138 -0.3126 -0.2575  0.3722
21734SOL    HW175516   0.562  12.031   8.184 -0.2947 -0.3524  0.2503
21734SOL    HW275517   0.414  12.022   8.150 -0.6073  0.3354  1.3509
21735SOL     OW75518  10.610   8.351   1.525 -0.1768  0.1351  0.8569
21735SOL    HW175519  10.535   8.399   1.488 -0.3473 -1.1979 -0.6791
21735SOL    HW275520  10.682   8.369   1.464 -0.3533 -1.7854 -0.0170
21736SOL     OW75521   0.919   4.184   8.707  0.2666 -0.0998  0.9330
21736SOL    HW175522   0.937   4.184   8.613  0.4751 -0.0330  0.9732
21736SOL    HW275523   1.004   4.197   8.748 -0.2335  3.8976  1.0810
21737SOL     OW75524   5.176   9.369   3.640 -0.0987  0.5350  0.0709
21737SOL    HW175525   5.108   9.340   3.580  1.0201  1.2917 -1.6479
21737SOL    HW275526   5.149   9.457   3.668  0.0547  0.7553 -0.4600
21738SOL     OW75527  11.643   9.699   1.861 -0.2295 -0.0034 -0.3449
21738SOL    HW175528  11.591   9.747   1.925  0.1012  1.3532 -1.0516
21738SOL    HW275529  11.719   9.755   1.845  1.6134 -1.9934  0.7952
21739SOL     OW75530   7.882  11.031   0.461  0.3661  0.7057  0.0221
21739SOL    HW175531   7.916  11.035   0.550 -1.0977  0.3073  0.6341
21739SOL    HW275532   7.885  11.121   0.430  2.4830  0.6021 -0.1894
21740SOL     OW75533   3.309   1.218   1.578 -0.3023 -0.4815 -0.0395
21740SOL    HW175534   3.365   1.215   1.501 -0.2818 -1.7144 -0.0042
21740SOL    HW275535   3.222   1.195   1.545 -0.2857 -1.0520  0.2948
21741SOL     OW75536  11.823   2.160   4.629 -0.5094 -0.0795 -0.3604
21741SOL    HW175537  11.836   2.193   4.540 -1.1114 -2.4230 -1.3774
21741SOL    HW275538  11.903   2.112   4.649 -0.3083  0.5655  0.4748
21742SOL     OW75539   2.826   1.544   3.671 -0.2630  0.3958 -0.4800
21742SOL    HW175540   2.920   1.528   3.659 -0.0671  0.2427  1.0700
21742SOL    HW275541   2.791   1.460   3.699 -0.5196  0.8805  0.7162
21743SOL     OW75542  12.790   1.772   8.272  0.0717 -0.7344  0.0040
21743SOL    HW175543  12.837   1.699   8.232 -1.0756  0.6363 -4.4057
21743SOL    HW275544  12.858   1.836   8.292  0.7939 -1.8607  1.2861
21744SOL     OW75545   0.079  10.626   4.538 -0.7032  0.5340  0.5321
21744SOL    HW175546  -0.003  10.631   4.588  0.3787 -1.3808  2.6979
21744SOL    HW275547   0.095  10.532   4.529  1.0854  0.8714 -0.1837
21745SOL     OW75548   5.249   1.092  12.699  0.2665  0.0968  0.3550
21745SOL    HW175549   5.309   1.167  12.703  0.5918 -0.1541  0.2790
21745SOL    HW275550   5.183   1.117  12.635  0.2479  0.4104  0.4965
21746SOL     OW75551   5.404   3.132   5.634  0.1341 -0.4768 -0.7351
21746SOL    HW175552   5.354   3.177   5.702 -0.7562 -3.4734  0.7586
21746SOL    HW275553   5.496   3.144   5.660 -0.0703  0.3932 -0.3738
21747SOL     OW75554   0.549   0.611  10.469  0.4734 -0.1905 -0.6305
21747SOL    HW175555   0.628   0.660  10.446 -1.0394  2.4454 -0.5802
21747SOL    HW275556   0.554   0.602  10.564  0.5122  0.3827 -0.5725
21748SOL     OW75557   1.255  10.986  12.019 -0.3788 -0.0117  0.2597
21748SOL    HW175558   1.266  11.046  11.945 -1.1526 -1.3465 -0.9993
21748SOL    HW275559   1.167  11.006  12.053  0.1641  0.9317  1.1693
21749SOL     OW75560  11.339   7.820  10.766 -0.1377 -0.1968  0.2075
21749SOL    HW175561  11.353   7.888  10.832  0.9393 -0.0229 -0.1799
21749SOL    HW275562  11.352   7.738  10.814 -0.4782 -0.1085  0.4564
21750SOL     OW75563   5.473  11.517   6.007 -0.2549 -0.0276  0.3681
21750SOL    HW175564   5.556  11.475   6.030 -0.7822 -1.0816  0.3635
21750SOL    HW275565   5.481  11.537   5.914 -0.6080 -1.5815 -0.0240
21751SOL     OW75566   2.487   7.531  10.255 -0.3396  0.2223  0.1360
21751SOL    HW175567   2.425   7.539  10.328  0.1330  2.4625  0.3755
21751SOL    HW275568   2.434   7.500  10.182 -1.1924 -0.3580  0.9688
21752SOL     OW75569   3.284   7.801  11.914  0.0471  0.7521 -0.2192
21752SOL    HW175570   3.212   7.817  11.852  1.9707 -0.4688 -2.9460
21752SOL    HW275571   3.263   7.716  11.954  0.5195 -0.2056 -1.9344
21753SOL     OW75572   7.363  10.513  11.464 -0.3307 -0.1265 -0.1076
21753SOL    HW175573   7.289  10.454  11.479 -0.1497  0.0471  1.7282
21753SOL    HW275574   7.365  10.525  11.369 -1.7763 -1.2540 -0.3233
21754SOL     OW75575   2.406   3.131  11.026 -0.2699 -0.3633 -0.3704
21754SOL    HW175576   2.330   3.167  11.072  0.1523 -0.6252  0.5342
21754SOL    HW275577   2.467   3.106  11.095  0.3561 -0.7980 -1.0693
21755SOL     OW75578   6.666  11.961   2.800 -0.5544 -0.1168 -0.5131
21755SOL    HW175579   6.734  11.962   2.732 -0.2017 -0.9168 -0.1873
21755SOL    HW275580   6.584  11.955   2.752 -0.3099 -0.6105 -0.8699
21756SOL     OW75581   7.693   4.337   7.351 -0.3364  0.2473 -0.5481
21756SOL    HW175582   7.704   4.428   7.378  1.8229  0.1705 -0.9466
21756SOL    HW275583   7.676   4.342   7.257  0.6156  0.2367 -0.7316
21757SOL     OW75584   1.584   3.553   9.336 -0.1721 -0.0683  0.1819
21757SOL    HW175585   1.604   3.492   9.265 -0.6362 -0.9763  0.8082
21757SOL    HW275586   1.641   3.527   9.408 -2.2115 -1.5586  1.3786
21758SOL     OW75587   7.663   1.548   1.432  0.4577 -0.0433 -0.4130
21758SOL    HW175588   7.739   1.517   1.481  1.4883  1.0240 -1.3028
21758SOL    HW275589   7.609   1.469   1.421  0.3805 -0.4190  2.0164
21759SOL     OW75590   2.796   0.116   4.671 -0.1905  0.5107  0.0738
21759SOL    HW175591   2.795   0.183   4.602 -0.1391  0.6718  0.2289
21759SOL    HW275592   2.888   0.110   4.697 -0.0604 -0.2419 -0.5410
21760SOL     OW75593   0.563   1.633   8.108  0.2256 -0.0142 -0.0816
21760SOL    HW175594   0.591   1.543   8.098  0.9273  0.2960 -1.1178
21760SOL    HW275595   0.538   1.660   8.019  0.1149  0.8318  0.1980
21761SOL     OW75596  11.283   6.174  12.456  0.5946  0.3461  0.0231
21761SOL    HW175597  11.221   6.205  12.521 -2.4999 -0.8208 -2.0914
21761SOL    HW275598  11.316   6.253  12.414 -0.6137  1.0066  0.2715
21762SOL     OW75599   6.023  10.293  11.164  0.3521  0.0888  0.2127
21762SOL    HW175600   6.063  10.223  11.111  1.4454 -0.6916  1.9973
21762SOL    HW275601   6.068  10.372  11.136 -1.0547  0.2003 -1.9965
21763SOL     OW75602  10.107  10.412   8.518  0.0671 -0.3511 -0.5186
21763SOL    HW175603  10.177  10.477   8.514 -0.1947  0.0195  0.6197
21763SOL    HW275604  10.140  10.338   8.467  0.2359  0.7865 -2.1347
21764SOL     OW75605   0.553  12.090   0.657  0.1409  0.4347  0.0289
21764SOL    HW175606   0.580  12.066   0.568  1.6717  0.3066  0.4933
21764SOL    HW275607   0.615  12.044   0.713 -2.4108 -1.6818  1.3173
21765SOL     OW75608  11.007  11.864  12.285 -0.2477  0.5616 -0.1939
21765SOL    HW175609  10.957  11.924  12.229 -0.5267  0.9328  0.4343
21765SOL    HW275610  10.940  11.813  12.330 -0.1686  2.0572  1.7542
21766SOL     OW75611   2.852   1.747   7.277  0.1392 -0.5642  0.0501
21766SOL    HW175612   2.902   1.829   7.281 -1.2525  0.3229 -0.1595
21766SOL    HW275613   2.803   1.753   7.195  0.3146 -1.7914 -0.1567
21767SOL     OW75614  12.942   3.827  11.441  0.2141  0.6295  0.0784
21767SOL    HW175615  13.017   3.886  11.437  0.6583  0.1322  0.7095
21767SOL    HW275616  12.879   3.871  11.498  0.7377  0.2959  0.9316
21768SOL     OW75617   9.777   8.324   9.693 -0.0525 -0.4674 -0.3102
21768SOL    HW175618   9.865   8.360   9.707 -0.1286 -0.4024  0.0198
21768SOL    HW275619   9.719   8.390   9.730 -0.2147 -0.7311 -0.0885
21769SOL     OW75620   9.811   1.223   7.292  0.2761  0.0783 -0.1668
21769SOL    HW175621   9.892   1.196   7.335  1.1561 -0.4819 -2.0808
21769SOL    HW275622   9.742   1.196   7.353  1.4545 -0.3457  1.0391
21770SOL     OW75623   6.766   7.730   6.623  0.2466 -0.0370  0.3583
21770SOL    HW175624   6.687   7.783   6.630  1.2729  1.7584 -0.8875
21770SOL    HW275625   6.742   7.646   6.661 -2.3373  0.3676 -0.2030
21771SOL     OW75626  11.771   6.739   0.424  0.5238  0.5194 -0.2341
21771SOL    HW175627  11.683   6.733   0.461  0.1459  0.5221 -1.0974
21771SOL    HW275628  11.826   6.689   0.484 -0.1722  0.0200  0.0011
21772SOL     OW75629   5.284   2.168  12.018 -0.4707 -0.0817 -0.0054
21772SOL    HW175630   5.304   2.135  12.105 -0.3552  2.0876  0.8674
21772SOL    HW275631   5.293   2.093  11.960 -4.6999 -2.7262  2.3138
21773SOL     OW75632   7.856   8.015  12.374  0.6137 -0.2136 -0.2563
21773SOL    HW175633   7.898   8.079  12.316  1.7488 -0.5109  0.2158
21773SOL    HW275634   7.824   8.067  12.447  0.0304  0.0297 -0.6741
21774SOL     OW75635   4.389  12.434   9.497  0.0425  0.0945 -0.7029
21774SOL    HW175636   4.350  12.475   9.575  1.7275 -0.4884  0.4989
21774SOL    HW275637   4.445  12.365   9.532  2.0685  0.8315 -2.3367
21775SOL     OW75638   5.727  12.949   0.523  0.9786 -0.3388  0.2191
21775SOL    HW175639   5.753  12.864   0.489 -0.1911  0.1438 -2.1034
21775SOL    HW275640   5.646  12.933   0.571  1.5525 -0.7350  1.0678
21776SOL     OW75641   5.179   8.111   6.999  1.1010  0.3022 -0.3335
21776SOL    HW175642   5.219   8.188   6.958 -0.3039 -0.1291 -2.6821
21776SOL    HW275643   5.144   8.060   6.926 -2.3661 -0.1006  1.4062
21777SOL     OW75644   1.427   1.401   4.221  0.0728 -0.9991 -0.1445
21777SOL    HW175645   1.390   1.475   4.269 -1.1519 -0.0841 -2.3367
21777SOL    HW275646   1.510   1.434   4.186 -0.4224 -0.6523 -1.0323
21778SOL     OW75647   9.453   2.445   2.514 -0.2977 -0.1730 -0.3108
21778SOL    HW175648   9.471   2.539   2.513  0.6098 -0.3435 -1.4797
21778SOL    HW275649   9.360   2.438   2.493 -0.4865  0.4780  0.2705
21779SOL     OW75650   6.144   7.324   4.461  0.0614  0.4247  0.8620
21779SOL    HW175651   6.214   7.316   4.396 -1.4359  0.9218 -0.9207
21779SOL    HW275652   6.113   7.235   4.475  0.2647  0.3328  0.7244
21780SOL     OW75653   6.510   8.616   9.082  0.0739  0.1146 -0.1230
21780SOL    HW175654   6.552   8.543   9.037  1.7814  0.1769  1.2511
21780SOL    HW275655   6.435   8.638   9.027 -0.3402 -2.4625 -0.7474
21781SOL     OW75656   6.023   4.314   5.923 -0.2103 -0.1383  0.0657
21781SOL    HW175657   5.998   4.365   6.001 -0.5248  2.3040 -1.5285
21781SOL    HW275658   5.941   4.303   5.875  0.4275  1.2422 -1.4513
21782SOL     OW75659   8.955   0.157   4.376  0.0033 -0.2668 -0.5166
21782SOL    HW175660   8.926   0.243   4.346  0.0488  0.0636  0.3860
21782SOL    HW275661   8.884   0.126   4.432 -0.6113 -1.3846 -1.8257
21783SOL     OW75662   5.362   6.134   4.040  0.3339  0.5896 -0.1194
21783SOL    HW175663   5.287   6.079   4.063  0.3879  1.1148  1.4457
21783SOL    HW275664   5.357   6.143   3.945  0.8620 -2.8313 -0.5960
21784SOL     OW75665   8.296   9.532   9.563 -0.2712  0.4488  0.0011
21784SOL    HW175666   8.284   9.522   9.469 -0.0757  0.0054  0.0206
21784SOL    HW275667   8.338   9.617   9.573  0.1154  0.3025 -0.3490
21785SOL     OW75668   3.388   8.773   3.492  0.2491 -0.3994 -0.6935
21785SOL    HW175669   3.417   8.749   3.580  0.5089 -0.4283 -0.7878
21785SOL    HW275670   3.358   8.691   3.454 -2.8520  0.0505  0.4705
21786SOL     OW75671   0.674  12.510   3.309  0.6956  0.1282  0.0495
21786SOL    HW175672   0.640  12.553   3.231  1.4013  0.7497  0.0725
21786SOL    HW275673   0.694  12.582   3.370 -0.1359 -0.3597  0.9316
21787SOL     OW75674   9.222   3.786   1.319 -0.2894 -0.0825  0.1337
21787SOL    HW175675   9.261   3.754   1.401 -1.3655  0.0083  0.6927
21787SOL    HW275676   9.202   3.878   1.336 -1.0933 -0.2257 -0.0099
21788SOL     OW75677   5.525  10.818   4.522 -0.0724 -0.3363  0.2419
21788SOL    HW175678   5.432  10.818   4.547 -0.5014 -1.0570 -1.1950
21788SOL    HW275679   5.530  10.754   4.450  1.3320  0.4792 -0.4371
21789SOL     OW75680  11.481   0.688  12.865  0.0530 -0.0529  0.1814
21789SOL    HW175681  11.437   0.604  12.869 -0.7796  0.3638  0.0014
21789SOL    HW275682  11.449   0.737  12.941 -0.2273  0.4527 -0.2526
21790SOL     OW75683   4.892   6.788  11.444 -0.3431 -0.4057 -0.0446
21790SOL    HW175684   4.987   6.797  11.440 -0.3151  0.1300  1.4192
21790SOL    HW275685   4.868   6.751  11.359  1.2683 -1.4101 -0.1034
21791SOL     OW75686   7.338  12.175   6.161  0.5637  0.5222  0.0829
21791SOL    HW175687   7.332  12.259   6.206 -0.5316  0.9008 -0.7202
21791SOL    HW275688   7.336  12.110   6.232 -0.3592  1.1209  0.6310
21792SOL     OW75689   5.230  10.021   7.950  0.6762 -0.2020 -0.1067
21792SOL    HW175690   5.234   9.926   7.949 -0.5650 -0.2995  0.9722
21792SOL    HW275691   5.238  10.044   8.043 -0.6136  0.6375 -0.1735
21793SOL     OW75692   6.106   9.649   2.134 -0.2156  0.3124  0.4452
21793SOL    HW175693   6.067   9.684   2.214  0.2372  0.7380  0.4816
21793SOL    HW275694   6.093   9.555   2.140 -1.4164  0.4545  0.3694
21794SOL     OW75695   8.248   3.837   3.173  0.0838 -0.7189  0.0422
21794SOL    HW175696   8.323   3.792   3.210  1.7703 -1.3846 -3.7127
21794SOL    HW275697   8.276   3.928   3.164  0.7102 -1.0581 -1.7897
21795SOL     OW75698  10.360  12.798   5.695 -0.2910 -0.3670  0.1747
21795SOL    HW175699  10.436  12.798   5.754 -1.3025  2.0134  1.6403
21795SOL    HW275700  10.299  12.860   5.735 -1.6810  0.2585 -2.6520
21796SOL     OW75701   1.756  12.555   3.343 -0.5129  0.1720  0.0864
21796SOL    HW175702   1.722  12.490   3.405 -1.5936  0.2973 -0.3421
21796SOL    HW275703   1.828  12.597   3.389  0.4637 -1.5682  0.2461
21797SOL     OW75704   8.341   4.383   6.600  0.7334 -0.0258 -0.1774
21797SOL    HW175705   8.371   4.317   6.538  2.1621 -1.5778  2.0269
21797SOL    HW275706   8.416   4.400   6.656  0.0120  2.5838  0.1452
21798SOL     OW75707   3.867   1.033   5.443 -0.1836  0.3157 -0.0804
21798SOL    HW175708   3.838   0.961   5.500 -0.5246  0.3128 -0.2555
21798SOL    HW275709   3.962   1.034   5.454 -0.3007  0.8133  1.0919
21799SOL     OW75710   2.287   1.483   7.070 -0.3266 -0.1401  0.1952
21799SOL    HW175711   2.281   1.578   7.066 -0.0035 -0.0959  0.7002
21799SOL    HW275712   2.311   1.457   6.981 -2.6109  0.0635 -0.5254
21800SOL     OW75713  12.782   0.345  11.427 -0.5399 -0.3154 -0.5489
21800SOL    HW175714  12.686   0.350  11.421 -0.8644  1.2133  3.1515
21800SOL    HW275715  12.799   0.271  11.485  0.3824  0.4734  0.2252
21801SOL     OW75716   4.130  10.235  12.858  0.4169  0.0386 -0.2752
21801SOL    HW175717   4.039  10.216  12.835 -0.0482  1.3811  0.3480
21801SOL    HW275718   4.182  10.173  12.806 -0.7821  0.0955 -1.5780
21802SOL     OW75719  11.049   8.617  10.243 -0.2474  0.2800 -0.0621
21802SOL    HW175720  10.967   8.567  10.249 -1.2770  1.9705  0.4587
21802SOL    HW275721  11.102   8.584  10.316 -0.7698 -0.2853  0.0707
21803SOL     OW75722   2.307   8.907   6.504  0.1540 -0.6117 -0.1985
21803SOL    HW175723   2.242   8.936   6.568  1.2128  1.9082 -0.1466
21803SOL    HW275724   2.364   8.848   6.553  0.3478  0.4844  0.9462
21804SOL     OW75725  12.815   0.034   7.292 -0.0799  0.0006 -0.1745
21804SOL    HW175726  12.751   0.091   7.249 -0.1496 -0.2001 -0.3390
21804SOL    HW275727  12.762  -0.032   7.337  0.0012  0.0334 -0.0326
21805SOL     OW75728   9.313   0.411   4.390  0.4844 -0.1602 -0.4993
21805SOL    HW175729   9.321   0.451   4.304  0.6810  0.9007 -0.0150
21805SOL    HW275730   9.273   0.480   4.444  1.8196 -0.2153  0.6237
21806SOL     OW75731  11.948   6.885   5.245 -0.5965  0.6542  0.5394
21806SOL    HW175732  11.858   6.894   5.214 -0.1414  1.5577 -0.5884
21806SOL    HW275733  11.948   6.802   5.293 -1.9200  0.4214  0.1905
21807SOL     OW75734   1.096   4.353   0.879 -0.4509  0.3290  0.1603
21807SOL    HW175735   1.087   4.447   0.863 -1.1178  0.4649  1.2544
21807SOL    HW275736   1.035   4.334   0.951  0.2713 -0.7865  0.5156
21808SOL     OW75737   3.835   5.459   5.215 -0.1776  0.0395 -0.3323
21808SOL    HW175738   3.899   5.412   5.267  1.1097  1.5700 -0.4649
21808SOL    HW275739   3.766   5.483   5.277  0.3593  0.0990  0.2482
21809SOL     OW75740   2.631   0.057   4.254 -0.7301  0.7854  0.5154
21809SOL    HW175741   2.579   0.034   4.177  0.3049  2.1341 -0.6474
21809SOL    HW275742   2.700  -0.010   4.257 -0.3637  1.1075 -0.1863
21810SOL     OW75743   0.947   9.818   6.602  0.5385 -0.9056  0.3136
21810SOL    HW175744   1.018   9.759   6.625  2.6033  0.6282 -1.7221
21810SOL    HW275745   0.930   9.802   6.509  2.9160  3.1200 -1.1060
21811SOL     OW75746   9.933  11.849   3.911 -0.1586 -0.3730 -0.0070
21811SOL    HW175747   9.941  11.770   3.857  0.0023 -0.9023  0.7815
21811SOL    HW275748   9.840  11.853   3.935 -0.5836  0.7764 -1.6577
21812SOL     OW75749   5.349  10.973   4.186  0.5700  0.0458 -0.7612
21812SOL    HW175750   5.396  10.989   4.104  0.0571 -0.3321 -1.1343
21812SOL    HW275751   5.340  10.878   4.190 -0.4555  0.1331 -0.8612
21813SOL     OW75752   2.869   2.087  12.078  0.1857 -0.3704  0.3645
21813SOL    HW175753   2.945   2.042  12.040 -0.2650 -0.5549 -0.3189
21813SOL    HW275754   2.883   2.179  12.058  0.9409 -0.2194  1.4750
21814SOL     OW75755   9.929   7.838   6.810  0.2233 -0.5255  0.1184
21814SOL    HW175756   9.938   7.746   6.834 -0.2746 -0.3165  1.1762
21814SOL    HW275757   9.946   7.886   6.891 -0.7020  0.2567 -0.1292
21815SOL     OW75758   1.439   8.685  11.172 -0.1592 -0.0248  0.8347
21815SOL    HW175759   1.480   8.769  11.148 -1.4205  0.0690 -1.3224
21815SOL    HW275760   1.369   8.674  11.107 -1.5393 -1.6387  2.5034
21816SOL     OW75761   2.503  12.240  12.590  0.1359 -0.4929 -0.4426
21816SOL    HW175762   2.411  12.222  12.571 -0.2729  0.6078  0.4027
21816SOL    HW275763   2.532  12.166  12.642 -1.1702  0.5654  1.9389
21817SOL     OW75764  10.190  12.026   1.810 -0.1353  0.2605 -0.1274
21817SOL    HW175765  10.128  11.989   1.874  2.7950 -2.6249  1.3151
21817SOL    HW275766  10.155  11.997   1.725 -0.7743 -1.4245  0.6433
21818SOL     OW75767  12.261  11.939   3.614 -0.4563  0.3087 -0.2222
21818SOL    HW175768  12.245  11.855   3.656 -2.3589  0.2040 -1.0697
21818SOL    HW275769  12.191  11.996   3.646  0.7159  1.5673  0.2238
21819SOL     OW75770   0.171   9.633   1.168 -0.0245 -0.1381  0.0049
21819SOL    HW175771   0.133   9.661   1.251  2.0976 -0.8031  1.2760
21819SOL    HW275772   0.156   9.707   1.109  0.5791  1.4169  1.6991
21820SOL     OW75773   2.472   6.517  10.664  0.6222  0.0440  0.0686
21820SOL    HW175774   2.426   6.526  10.748  0.3004 -2.2218  0.1894
21820SOL    HW275775   2.415   6.562  10.602  1.1684  2.2982  1.0984
21821SOL     OW75776   4.093   2.765   6.370 -0.3527  0.0418 -0.2607
21821SOL    HW175777   4.170   2.806   6.332 -0.9201 -0.1641 -1.6845
21821SOL    HW275778   4.110   2.671   6.361 -0.4927 -0.0091  0.0032
21822SOL     OW75779   1.641   5.747   5.871 -0.0673  0.1929 -0.4266
21822SOL    HW175780   1.711   5.706   5.819 -1.2005  0.4525 -2.2614
21822SOL    HW275781   1.673   5.834   5.890  0.4991 -0.0054 -0.4577
21823SOL     OW75782   3.084   5.056   0.661 -0.3337 -0.1201 -0.6452
21823SOL    HW175783   3.159   5.010   0.698 -0.6155  1.0085  1.4755
21823SOL    HW275784   3.119   5.100   0.584  1.1241  0.0766  0.0826
21824SOL     OW75785   1.148   4.296   0.016 -0.0340 -0.4686 -0.2726
21824SOL    HW175786   1.083   4.353   0.057  0.9330 -1.4487  2.8837
21824SOL    HW275787   1.099   4.216  -0.006 -0.3169 -0.4529  0.2734
21825SOL     OW75788   7.905   9.826   6.573  0.2166  0.0490  0.1149
21825SOL    HW175789   7.904   9.731   6.564  0.7963  0.1550 -1.5569
21825SOL    HW275790   7.979   9.854   6.518 -0.5047  1.5128 -0.1584
21826SOL     OW75791   6.063   9.921   6.597  1.1368 -0.0645  0.3547
21826SOL    HW175792   6.063  10.013   6.621 -1.9402  0.2640 -0.4495
21826SOL    HW275793   5.980   9.887   6.633  0.9841 -1.8696 -1.5143
21827SOL     OW75794   5.030   0.463   6.597  1.1680  0.3217  0.7967
21827SOL    HW175795   5.012   0.485   6.688  0.1708  0.1435  0.6622
21827SOL    HW275796   5.083   0.536   6.564  1.1508  0.6094  1.3937
21828SOL     OW75797   3.720  11.261   0.096  0.0381  0.3503 -0.6750
21828SOL    HW175798   3.637  11.296   0.062  0.0174  0.1337 -0.8493
21828SOL    HW275799   3.694  11.183   0.145  0.1046  0.4669 -0.4570
21829SOL     OW75800   9.104  10.404   4.024  0.2670 -0.0128 -0.3353
21829SOL    HW175801   9.126  10.408   4.117  0.3896 -1.8388 -0.2342
21829SOL    HW275802   9.011  10.423   4.020  0.1223 -0.5935  0.2483
21830SOL     OW75803   0.413   3.933   0.280 -0.1745 -0.5577 -0.2919
21830SOL    HW175804   0.403   4.025   0.256 -1.9948 -0.9941 -1.5068
21830SOL    HW275805   0.470   3.933   0.356 -2.8008  1.8941  1.9208
21831SOL     OW75806  10.429   9.274   3.168  0.2638 -0.0128  0.5559
21831SOL    HW175807  10.405   9.319   3.249  0.3811  0.0719  0.5439
21831SOL    HW275808  10.369   9.311   3.102  0.1322 -0.1203  0.6144
21832SOL     OW75809   0.358   4.350  12.856  0.3080 -0.2814 -0.1245
21832SOL    HW175810   0.319   4.342  12.769  0.4034 -0.2712 -0.1684
21832SOL    HW275811   0.326   4.434  12.889  1.2171  0.2785 -0.6338
21833SOL     OW75812  12.934   2.803   3.223 -0.0481 -0.7882 -0.2079
21833SOL    HW175813  12.964   2.736   3.284  2.4811 -0.0937 -0.5765
21833SOL    HW275814  12.931   2.758   3.138 -0.3625 -0.9368 -0.1190
21834SOL     OW75815   1.790   2.450  11.981 -0.0098  0.3977 -0.3434
21834SOL    HW175816   1.758   2.496  12.059 -2.3492  0.0314 -1.0281
21834SOL    HW275817   1.727   2.380  11.967  0.6980  0.0974 -2.2407
21835SOL     OW75818   4.405   9.816   9.347 -0.1443  0.1346 -0.3053
21835SOL    HW175819   4.399   9.835   9.440 -1.0023 -0.8151 -0.1494
21835SOL    HW275820   4.499   9.821   9.327  0.2141 -1.0973  0.9372
21836SOL     OW75821   3.374   8.005   9.297  0.1246 -0.4930 -0.7546
21836SOL    HW175822   3.323   8.086   9.301  0.2826 -0.3226 -1.9520
21836SOL    HW275823   3.458   8.028   9.337 -0.4149 -0.5595  0.4882
21837SOL     OW75824   4.868   0.359   1.014  0.3359 -0.1461  0.3171
21837SOL    HW175825   4.918   0.318   0.943  1.3000  0.1386  0.8281
21837SOL    HW275826   4.777   0.354   0.984  0.6830 -0.4336 -0.7401
21838SOL     OW75827   9.580   5.288   7.066  0.0254  0.3140 -0.2283
21838SOL    HW175828   9.585   5.357   7.132 -0.3918 -0.5352  0.7189
21838SOL    HW275829   9.487   5.267   7.059  0.3412 -2.2261  1.7636
21839SOL     OW75830   2.206   1.292   8.812  0.1337  0.5282 -0.2474
21839SOL    HW175831   2.229   1.289   8.905 -1.0737  1.8436  0.1389
21839SOL    HW275832   2.112   1.311   8.812  0.3084  1.5143 -1.7255
21840SOL     OW75833   0.004  11.808   3.311  0.0816  0.4972  0.1030
21840SOL    HW175834   0.040  11.893   3.338  0.5817 -0.0891  1.3608
21840SOL    HW275835  -0.090  11.819   3.319 -0.0311  1.6874 -2.1132
21841SOL     OW75836   0.935   0.037   1.842  0.0249  0.2582 -0.3200
21841SOL    HW175837   0.923   0.045   1.936 -1.0224  0.7442 -0.4800
21841SOL    HW275838   0.987  -0.043   1.831 -0.9309 -0.5253  0.6058
21842SOL     OW75839  10.691   4.430   3.954  0.6942  0.1274  0.1712
21842SOL    HW175840  10.707   4.336   3.951 -0.8336 -0.1693  0.1946
21842SOL    HW275841  10.656   4.445   4.042  0.4622  0.6259 -0.0061
21843SOL     OW75842  10.915   1.352   6.608  0.5042  0.8480 -0.0556
21843SOL    HW175843  10.959   1.410   6.670  2.4815 -0.2858 -0.3153
21843SOL    HW275844  10.880   1.281   6.662  2.4502 -0.2744 -0.1931
21844SOL     OW75845   0.447   6.692   7.840 -0.2305  0.3433  0.4601
21844SOL    HW175846   0.541   6.712   7.835 -0.0176 -0.0823  2.2822
21844SOL    HW275847   0.440   6.602   7.809 -0.0329  0.3612  0.3629
21845SOL     OW75848   7.195  10.217   3.538 -0.6103 -0.6608 -0.3917
21845SOL    HW175849   7.276  10.267   3.528 -1.0496 -0.3090 -3.1161
21845SOL    HW275850   7.138  10.273   3.591  0.3917 -0.2612  0.2958
21846SOL     OW75851   9.917   0.477   8.827 -0.5638  0.1723 -0.3676
21846SOL    HW175852   9.902   0.518   8.742  1.3656  0.3584 -0.6595
21846SOL    HW275853   9.836   0.428   8.845 -1.6742  1.5360 -1.4727
21847SOL     OW75854   4.116  11.131   0.097  0.4690 -0.1269  0.4479
21847SOL    HW175855   4.154  11.218   0.110  0.1678 -0.2126  2.1525
21847SOL    HW275856   4.023  11.147   0.085  0.7175 -0.0586 -1.9267
21848SOL     OW75857  10.191   0.599   1.664 -0.0659 -0.2843  0.3982
21848SOL    HW175858  10.226   0.521   1.620 -0.1028  0.3247 -0.7647
21848SOL    HW275859  10.263   0.630   1.719  0.7164  0.0514 -0.7651
21849SOL     OW75860   6.047   1.025   1.804 -0.2572 -0.2524  0.1489
21849SOL    HW175861   6.037   0.937   1.840 -0.8767 -0.7263 -1.1111
21849SOL    HW275862   6.107   1.069   1.864  0.1918 -1.5859  0.7154
21850SOL     OW75863   7.027   8.876   8.550  0.3721 -0.1903 -0.7359
21850SOL    HW175864   7.017   8.961   8.592  0.1953 -0.4189 -0.3043
21850SOL    HW275865   6.956   8.871   8.486  0.3622 -0.0272 -0.7364
21851SOL     OW75866  12.767   4.038  12.459 -0.3941 -0.1297  0.5865
21851SOL    HW175867  12.810   3.966  12.412  1.1065  0.3313  1.2140
21851SOL    HW275868  12.787   4.022  12.551 -1.0839  0.4428  0.8468
21852SOL     OW75869  11.265   6.111  11.222  0.7214  0.7514  0.0711
21852SOL    HW175870  11.204   6.138  11.290  1.4725 -0.0711  1.1134
21852SOL    HW275871  11.274   6.188  11.166  1.0461  1.9117  1.6326
21853SOL     OW75872   2.701  10.584   0.027  0.5543  0.2682  0.6125
21853SOL    HW175873   2.705  10.498  -0.015 -0.1800 -0.0467  1.1735
21853SOL    HW275874   2.710  10.566   0.121 -0.3122  0.7379  0.7944
21854SOL     OW75875   9.644  11.987   8.005 -0.6426 -0.1348  0.1864
21854SOL    HW175876   9.583  12.021   8.070 -0.0403  0.8168  0.2791
21854SOL    HW275877   9.617  12.027   7.923  0.1762  0.7449  0.3253
21855SOL     OW75878  11.013   3.532   4.475  0.4462  0.2241  0.4703
21855SOL    HW175879  10.967   3.487   4.547  1.0017  0.3666  0.9245
21855SOL    HW275880  11.013   3.624   4.501  0.1822  0.3522  0.0232
21856SOL     OW75881   0.617   2.439   7.257 -0.4893 -1.1456 -0.5076
21856SOL    HW175882   0.530   2.478   7.249  0.8054  2.1327  0.1412
21856SOL    HW275883   0.636   2.442   7.350  0.6979 -0.9206 -0.7440
21857SOL     OW75884   3.363   4.470   6.400  0.0784 -0.0366  0.3228
21857SOL    HW175885   3.406   4.491   6.483 -0.5183  1.4825  0.2840
21857SOL    HW275886   3.383   4.546   6.344 -1.3841 -0.0006 -0.1776
21858SOL     OW75887   1.909   5.563   3.874 -0.2533 -0.1773  0.4115
21858SOL    HW175888   1.837   5.625   3.884 -0.1262 -0.0033  0.2626
21858SOL    HW275889   1.982   5.617   3.842 -0.2840 -0.4903 -0.2046
21859SOL     OW75890   1.875  12.600   6.912 -0.2551 -0.6507  0.0771
21859SOL    HW175891   1.885  12.530   6.977  0.1720 -2.0516 -1.4098
21859SOL    HW275892   1.903  12.559   6.829  0.1277  1.3363 -0.8315
21860SOL     OW75893   5.969   2.728  11.493 -0.4327  0.3537 -0.4627
21860SOL    HW175894   5.946   2.675  11.417  1.3014 -0.9512 -0.1349
21860SOL    HW275895   5.983   2.816  11.457 -3.5642  0.7761 -0.9723
21861SOL     OW75896   9.805   9.487   5.586  0.1121  0.0292  0.0190
21861SOL    HW175897   9.803   9.582   5.586  2.4432  0.1522 -1.5570
21861SOL    HW275898   9.807   9.463   5.493 -0.1708 -1.5511  0.3925
21862SOL     OW75899  12.025  10.558   8.550  0.1427 -0.5900 -0.1819
21862SOL    HW175900  12.100  10.522   8.502 -1.6120 -1.0766 -2.7512
21862SOL    HW275901  12.061  10.582   8.636  3.2248 -0.7562 -1.2946
21863SOL     OW75902   6.193   4.650   2.875  0.0340 -0.0537 -0.1831
21863SOL    HW175903   6.236   4.591   2.937  1.2545 -0.5043 -1.4020
21863SOL    HW275904   6.215   4.615   2.789 -3.0345 -0.4605 -0.9248
21864SOL     OW75905   5.228  11.769   4.261  0.6088  0.2805  0.1431
21864SOL    HW175906   5.181  11.696   4.222 -0.5468 -0.3130  2.4662
21864SOL    HW275907   5.263  11.817   4.186 -1.2120 -0.9095 -1.5961
21865SOL     OW75908   4.395  10.347   1.475 -0.0298  0.4997 -0.2533
21865SOL    HW175909   4.434  10.418   1.424 -1.3152  1.0385 -0.5010
21865SOL    HW275910   4.318  10.385   1.517 -1.1789 -0.9063 -0.9847
21866SOL     OW75911   7.856   5.825   8.330  0.7250 -0.3238 -0.3753
21866SOL    HW175912   7.835   5.857   8.242 -3.1488  0.7052  0.7534
21866SOL    HW275913   7.877   5.732   8.317 -0.2772 -0.3344 -2.3208
21867SOL     OW75914   3.443   8.165   8.696 -0.3814  0.6264  0.0949
21867SOL    HW175915   3.414   8.177   8.605 -0.3215 -1.7875 -0.2928
21867SOL    HW275916   3.525   8.117   8.689  0.1854  1.3511  1.4178
21868SOL     OW75917   3.965   9.036  11.225 -0.0932  0.5835 -0.5131
21868SOL    HW175918   3.889   9.007  11.274  0.1855 -0.4976 -0.6904
21868SOL    HW275919   3.981   9.126  11.254 -0.7751  0.4392  0.3153
21869SOL     OW75920  10.027   4.575   9.317 -0.2387 -0.5209  0.0489
21869SOL    HW175921  10.033   4.483   9.346 -1.2956 -0.9763 -1.0812
21869SOL    HW275922  10.072   4.624   9.385  0.0140 -1.8463  0.8853
21870SOL     OW75923   1.122  11.759  10.771 -0.6800  0.4615  0.0003
21870SOL    HW175924   1.071  11.768  10.690 -2.5277 -0.8599  0.9476
21870SOL    HW275925   1.153  11.669  10.770  3.9176  1.7360 -1.6791
21871SOL     OW75926   3.575  10.861   3.167  0.7241 -0.2307  0.4230
21871SOL    HW175927   3.543  10.806   3.096 -1.4474  1.7308 -0.2258
21871SOL    HW275928   3.665  10.884   3.142  0.4494 -0.6445 -0.9910
21872SOL     OW75929   1.568   2.305   6.680  0.2281 -0.2208 -0.1877
21872SOL    HW175930   1.641   2.244   6.671  1.0932  0.6927  0.4101
21872SOL    HW275931   1.524   2.278   6.760  1.0705  0.3685  0.5048
21873SOL     OW75932   1.216   0.097   9.308  0.2528  0.8008 -0.0102
21873SOL    HW175933   1.217   0.088   9.404  0.1338  2.3363  0.1615
21873SOL    HW275934   1.148   0.036   9.279  1.0046 -0.4494  0.7741
21874SOL     OW75935   4.535  11.017   8.313 -0.2122  0.1658 -0.0593
21874SOL    HW175936   4.626  11.041   8.330  0.1148 -0.6454 -0.5967
21874SOL    HW275937   4.521  10.936   8.362 -0.0583 -0.7410 -1.4483
21875SOL     OW75938   5.609   2.407   4.807  0.5610  0.4903 -0.2679
21875SOL    HW175939   5.703   2.401   4.787  0.7807 -0.1625  0.8639
21875SOL    HW275940   5.606   2.446   4.894 -0.2530  1.0923 -0.5596
21876SOL     OW75941   5.140  10.316   2.761  0.0050 -0.0696 -0.2116
21876SOL    HW175942   5.079  10.308   2.688 -0.1382 -0.9608  0.0037
21876SOL    HW275943   5.134  10.408   2.787  0.5122  0.4085 -1.7011
21877SOL     OW75944   1.919   7.409   5.929  0.2226 -0.2540 -0.1289
21877SOL    HW175945   1.830   7.375   5.922  0.4805 -0.8795 -0.4800
21877SOL    HW275946   1.918   7.465   6.006 -0.1330 -1.3723  0.6982
21878SOL     OW75947  10.636  11.927  12.672 -0.3874  0.0909 -0.6531
21878SOL    HW175948  10.612  11.879  12.751  1.6733 -0.6157 -0.4107
21878SOL    HW275949  10.690  12.000  12.703  2.8566 -1.7658 -1.4743
21879SOL     OW75950   8.764   0.347   1.898 -0.1136 -0.4916 -0.0505
21879SOL    HW175951   8.760   0.355   1.803 -2.8967 -1.2043 -0.0950
21879SOL    HW275952   8.771   0.438   1.929 -1.5661 -0.0277 -0.9472
21880SOL     OW75953   4.153  11.571  12.633  0.1715 -0.1694 -0.1264
21880SOL    HW175954   4.243  11.581  12.601  0.2281 -0.8709 -0.2037
21880SOL    HW275955   4.142  11.476  12.644 -0.7374 -0.1358 -0.6362
21881SOL     OW75956  12.933  11.690  10.358  0.5803  0.1055  0.1394
21881SOL    HW175957  12.864  11.638  10.399  0.2184  0.8529  0.4998
21881SOL    HW275958  12.970  11.632  10.292  2.4645 -1.8586  2.7206
21882SOL     OW75959   5.643  12.863  12.203  0.1494 -0.6831  0.3256
21882SOL    HW175960   5.709  12.924  12.173  0.4994 -1.4371 -0.4837
21882SOL    HW275961   5.639  12.877  12.298  0.8226 -0.0095  0.2656
21883SOL     OW75962   4.568   5.853   7.932 -0.0369  0.5680  0.0044
21883SOL    HW175963   4.607   5.938   7.954 -1.8182  2.5606 -3.5597
21883SOL    HW275964   4.493   5.845   7.991  0.6808  0.9803  1.0026
21884SOL     OW75965   6.554   1.581   6.851 -0.0724 -0.0052  0.3825
21884SOL    HW175966   6.614   1.529   6.797 -1.0583 -0.8714  0.0925
21884SOL    HW275967   6.477   1.593   6.797 -1.3224 -1.3820  1.7481
21885SOL     OW75968   9.822  11.695   0.748 -0.2203  0.2850 -0.0046
21885SOL    HW175969   9.855  11.607   0.731 -1.2263 -0.1230  0.1016
21885SOL    HW275970   9.868  11.723   0.827  0.8767  0.2832 -0.6186
21886SOL     OW75971   6.011   3.490   3.349  0.1535  0.0473 -0.4720
21886SOL    HW175972   6.014   3.509   3.443 -1.8366 -0.1619 -0.3165
21886SOL    HW275973   6.058   3.562   3.308 -0.8857  1.3590  0.5594
21887SOL     OW75974   2.282  12.948   1.534  0.8021 -0.5338 -0.5065
21887SOL    HW175975   2.320  12.998   1.606  2.9167 -0.4846 -1.5781
21887SOL    HW275976   2.254  13.014   1.471 -0.3521 -0.6033 -0.0920
21888SOL     OW75977   3.067   7.312   4.808 -0.3852  0.3324  0.1000
21888SOL    HW175978   3.011   7.253   4.859  0.4257 -0.2734  0.3238
21888SOL    HW275979   3.133   7.254   4.769  1.4583  1.2415  1.6742
21889SOL     OW75980   6.574  12.522   8.257 -0.2133  0.2602 -0.4644
21889SOL    HW175981   6.620  12.441   8.278 -0.5946  0.0374 -0.4698
21889SOL    HW275982   6.600  12.583   8.326 -0.0747  0.0766 -0.3535
21890SOL     OW75983   5.745   4.241   8.777 -0.1755  0.2970  0.0169
21890SOL    HW175984   5.755   4.336   8.773  1.6454  0.1197 -0.5451
21890SOL    HW275985   5.737   4.221   8.870  1.4439  0.8554  0.2963
21891SOL     OW75986  11.001  11.711   6.202  0.2964 -0.3832  0.1595
21891SOL    HW175987  10.943  11.663   6.262 -0.4000 -2.8554 -2.2664
21891SOL    HW275988  11.087  11.672   6.216  0.1565 -0.8822 -0.3301
21892SOL     OW75989   2.999   5.544  11.835 -0.2046 -0.2451 -0.0364
21892SOL    HW175990   2.977   5.625  11.789 -0.4381 -0.3109 -0.0430
21892SOL    HW275991   2.988   5.565  11.928 -0.6959 -0.3937 -0.0580
21893SOL     OW75992   6.814   2.589  10.184 -0.3675 -0.1723  0.0985
21893SOL    HW175993   6.765   2.616  10.106  0.2621  0.3596 -0.1195
21893SOL    HW275994   6.886   2.537  10.149  0.9186  1.4802  0.1527
21894SOL     OW75995   6.613  12.225   5.933 -0.1320  0.8587  0.3470
21894SOL    HW175996   6.538  12.224   5.873  0.8626  0.0350 -0.9664
21894SOL    HW275997   6.679  12.172   5.888  1.5582  2.2710  1.0316
21895SOL     OW75998  12.368   2.581   0.042  0.3352  0.1470 -0.3798
21895SOL    HW175999  12.280   2.612   0.063  0.1152 -0.6544 -0.0933
21895SOL    HW276000  12.407   2.652  -0.009 -0.5618  0.4044 -0.7232
21896SOL     OW76001   0.694   5.506   6.301  0.1937  0.2098 -0.5281
21896SOL    HW176002   0.730   5.586   6.264 -3.1775  1.1084 -2.3053
21896SOL    HW276003   0.713   5.439   6.236 -0.4528  0.4751 -1.0019
21897SOL     OW76004  12.779   0.503   5.647  0.2074  0.4631 -0.2010
21897SOL    HW176005  12.856   0.458   5.612  1.0640  0.3639  1.7116
21897SOL    HW276006  12.735   0.437   5.700 -1.1912  0.5504 -1.2010
21898SOL     OW76007   5.052   0.158  10.034 -0.0708  0.2878 -0.0197
21898SOL    HW176008   5.006   0.084   9.995 -0.6533  0.1428  0.9133
21898SOL    HW276009   5.103   0.120  10.105 -0.8436  0.8560  0.8540
21899SOL     OW76010   4.758  12.920   1.117 -0.2681  0.1244  0.0228
21899SOL    HW176011   4.778  12.987   1.182 -1.2800 -0.1355  0.6239
21899SOL    HW276012   4.713  12.966   1.047  1.9098  0.6236 -1.1052
21900SOL     OW76013   0.115  10.171   6.581  0.5439  0.5159 -0.0510
21900SOL    HW176014   0.067  10.171   6.498  0.7358  2.1812 -0.1971
21900SOL    HW276015   0.067  10.109   6.636  0.1229 -0.2374 -1.2354
21901SOL     OW76016   1.730   7.617   5.869 -0.0906 -0.2300  0.2303
21901SOL    HW176017   1.761   7.700   5.905 -0.7300  0.3203 -0.4495
21901SOL    HW276018   1.811   7.569   5.849  0.4905  1.6746 -2.6629
21902SOL     OW76019   3.017   8.058   7.166  0.0621  0.2459  0.4587
21902SOL    HW176020   3.105   8.032   7.193  0.0899 -1.3280 -0.9723
21902SOL    HW276021   2.982   7.980   7.122 -0.9161  1.8239 -1.6862
21903SOL     OW76022   7.878   0.649   6.589  0.0316  1.1015 -0.3353
21903SOL    HW176023   7.911   0.641   6.499  0.6938  1.7596 -0.1565
21903SOL    HW276024   7.951   0.688   6.638 -0.4907  1.1810  0.3872
21904SOL     OW76025  12.636   3.089   6.529 -0.4118 -0.1543  0.2110
21904SOL    HW176026  12.553   3.048   6.504  0.9370 -3.6168  0.9152
21904SOL    HW276027  12.630   3.100   6.624 -0.6398  1.1566  0.0686
21905SOL     OW76028   0.476   7.385   9.759  0.5553 -0.5595  0.1158
21905SOL    HW176029   0.522   7.414   9.838 -0.5307 -0.0731  0.5987
21905SOL    HW276030   0.393   7.349   9.791 -0.6594  1.1689 -0.8663
21906SOL     OW76031  12.599  11.908   0.904  0.1194  0.0939  0.4429
21906SOL    HW176032  12.516  11.860   0.895  0.0432  0.4357 -0.8627
21906SOL    HW276033  12.630  11.885   0.992  0.6713 -3.2587 -0.5013
21907SOL     OW76034   5.305   9.959  10.329  0.3441  0.3291 -0.0974
21907SOL    HW176035   5.350  10.043  10.330  0.2253  0.3922  0.0238
21907SOL    HW276036   5.244   9.963  10.403 -1.9548  1.3999 -1.8905
21908SOL     OW76037   3.009   1.699   0.978  0.1282 -0.2379  0.1034
21908SOL    HW176038   2.995   1.780   1.027  2.6474  0.4083 -0.1377
21908SOL    HW276039   3.101   1.701   0.953 -0.0902 -2.5098 -1.1651
21909SOL     OW76040   3.669  11.674   4.080  0.1196 -0.1678  0.0944
21909SOL    HW176041   3.705  11.662   3.992  0.0097  0.6193 -0.0656
21909SOL    HW276042   3.621  11.593   4.097 -0.7692  0.1038 -1.0114
21910SOL     OW76043   1.694   1.183   3.044 -0.0795 -0.3558  0.3444
21910SOL    HW176044   1.693   1.094   3.009  0.1725  0.3153 -1.5085
21910SOL    HW276045   1.742   1.234   2.979  2.4109  0.6319  2.7626
21911SOL     OW76046   5.137   0.568   3.006  0.3236 -0.3116  0.5318
21911SOL    HW176047   5.097   0.529   2.929 -1.1013  1.3223  0.3880
21911SOL    HW276048   5.074   0.633   3.036  1.7027  0.4610  1.9262
21912SOL     OW76049  11.065   9.707   6.445  0.0512 -0.1878  0.4966
21912SOL    HW176050  11.093   9.657   6.521  0.9569  0.4836  0.6150
21912SOL    HW276051  11.124   9.782   6.441 -0.3309  0.0873 -0.5450
21913SOL     OW76052   2.305   3.741  10.441 -0.3007  0.6790  0.2680
21913SOL    HW176053   2.350   3.814  10.399 -1.7190  1.9873  0.9610
21913SOL    HW276054   2.371   3.671  10.443  1.3085  2.1277  0.2009
21914SOL     OW76055  11.439  12.578   1.918  0.0856 -0.1943  0.0888
21914SOL    HW176056  11.450  12.622   2.002  0.7039 -0.7724  0.3203
21914SOL    HW276057  11.503  12.507   1.919  1.3348  0.8095 -1.5798
21915SOL     OW76058   9.881   7.614   0.339 -0.3575 -0.3918 -0.2594
21915SOL    HW176059   9.956   7.656   0.379 -0.2747 -1.5463  0.8530
21915SOL    HW276060   9.809   7.630   0.400 -0.1948 -2.2941  0.5038
21916SOL     OW76061  11.636   4.686   8.571 -0.4512  0.1761 -0.3038
21916SOL    HW176062  11.589   4.718   8.648 -0.1660 -0.0556 -0.0316
21916SOL    HW276063  11.700   4.755   8.552  0.4706 -0.4283  0.5554
21917SOL     OW76064   5.475   1.882   4.856 -0.1863 -0.0401 -0.4970
21917SOL    HW176065   5.554   1.865   4.907 -0.5494  0.3274  0.2193
21917SOL    HW276066   5.478   1.820   4.784 -0.0855 -1.1978  0.4618
21918SOL     OW76067   4.936   9.364   4.617  0.1068 -0.2542 -0.5208
21918SOL    HW176068   4.860   9.420   4.605 -0.2995 -0.7793 -0.4606
21918SOL    HW276069   4.910   9.280   4.579  0.5901 -0.4893 -0.3423
21919SOL     OW76070   8.383   3.187   5.040 -0.3774 -0.2463 -0.2929
21919SOL    HW176071   8.454   3.124   5.047 -1.4760 -1.4593  0.4260
21919SOL    HW276072   8.386   3.235   5.123 -0.9877 -0.9709  0.1596
21920SOL     OW76073   5.549   2.051   5.287  0.2890 -0.4156  0.8648
21920SOL    HW176074   5.455   2.052   5.272  0.4009  0.6014  0.1214
21920SOL    HW276075   5.567   1.962   5.317 -1.0272 -0.3495  1.9379
21921SOL     OW76076   4.290   8.680  10.413 -0.2999 -0.1784  0.3162
21921SOL    HW176077   4.302   8.700  10.506 -0.3674  0.4808  0.1864
21921SOL    HW276078   4.368   8.717  10.370 -0.3374 -0.3566  0.0898
21922SOL     OW76079   7.433   2.903   3.352  0.4992 -0.2177  0.0817
21922SOL    HW176080   7.512   2.919   3.300  0.2385  0.0910 -0.2282
21922SOL    HW276081   7.438   2.966   3.424  2.0408 -2.1867  1.8153
21923SOL     OW76082   1.813   1.026   6.702 -0.1819  0.3616  0.2353
21923SOL    HW176083   1.801   1.031   6.608  1.1718 -1.5962 -0.1043
21923SOL    HW276084   1.878   0.957   6.714  0.4999  1.3201  2.5498
21924SOL     OW76085   4.550   3.083   0.407 -0.3258 -0.4385 -0.2065
21924SOL    HW176086   4.546   3.045   0.494 -1.6052  1.6197  0.7076
21924SOL    HW276087   4.462   3.071   0.371  0.0752 -0.9006 -1.0681
21925SOL     OW76088   3.651   3.736   2.599 -0.4788  0.2628 -0.0849
21925SOL    HW176089   3.639   3.742   2.505 -0.3575  1.1317 -0.0492
21925SOL    HW276090   3.743   3.759   2.614 -0.5618  0.3797  0.2679
21926SOL     OW76091  11.419   2.065  11.968  0.2445 -0.5734  0.3106
21926SOL    HW176092  11.512   2.044  11.969 -0.2586 -3.1076  1.5180
21926SOL    HW276093  11.406   2.122  12.044  1.1547  1.9928 -1.3314
21927SOL     OW76094   7.023  10.057   9.872  0.3669 -0.1410  0.2817
21927SOL    HW176095   6.960  10.116   9.914 -0.0954  0.0632 -0.6698
21927SOL    HW276096   6.971   9.982   9.845  0.7424 -0.4677  0.4472
21928SOL     OW76097   1.969  10.946  10.144  0.3231  0.3555  0.2508
21928SOL    HW176098   1.948  10.965  10.236  0.0366  0.5612  0.1465
21928SOL    HW276099   1.897  10.891  10.113  0.7799 -0.3048  0.3428
21929SOL     OW76100   8.485   2.613  10.097  0.7261  0.1949 -0.1097
21929SOL    HW176101   8.431   2.647  10.169  0.5470 -0.0032 -0.1490
21929SOL    HW276102   8.503   2.689  10.042 -0.0335  0.1480 -0.4290
21930SOL     OW76103   0.663   7.410   8.856  0.0597  0.1032 -0.3229
21930SOL    HW176104   0.610   7.343   8.900 -0.4264 -0.9083 -2.3171
21930SOL    HW276105   0.716   7.361   8.793  1.7518  1.3529  0.0602
21931SOL     OW76106   5.004   2.087   2.812 -0.4024  0.0072  0.0210
21931SOL    HW176107   5.028   2.149   2.743 -3.0348  0.4991 -0.5851
21931SOL    HW276108   4.963   2.014   2.766  1.7120 -1.7796  0.8150
21932SOL     OW76109   9.971  10.520   1.761 -0.0515  1.1196  0.3095
21932SOL    HW176110  10.050  10.574   1.755  1.6374 -1.3391 -1.5361
21932SOL    HW276111   9.984  10.469   1.841 -0.2353  1.3654  0.4980
21933SOL     OW76112   5.710   3.548   5.741  0.8022 -0.0783  0.1322
21933SOL    HW176113   5.651   3.520   5.671 -0.0603  0.8020  0.4846
21933SOL    HW276114   5.797   3.539   5.704  0.5069 -1.9466 -0.2151
21934SOL     OW76115   3.768   0.779   9.395  0.3055  0.2759 -0.2676
21934SOL    HW176116   3.834   0.815   9.454 -0.2377 -0.2514  0.6858
21934SOL    HW276117   3.712   0.854   9.373 -0.5679  0.1641  1.3670
21935SOL     OW76118   8.421  12.709   5.591  0.1042 -0.2730  0.0437
21935SOL    HW176119   8.510  12.708   5.624 -0.4490 -1.7278  1.6196
21935SOL    HW276120   8.378  12.780   5.638  0.2578 -0.0190 -0.2025
21936SOL     OW76121   6.458  11.590  11.784  0.7151 -0.7935  0.3203
21936SOL    HW176122   6.516  11.516  11.804  1.8799 -0.1098 -0.4042
21936SOL    HW276123   6.491  11.661  11.839  0.4390 -0.4501  0.0427
21937SOL     OW76124   6.767   8.089   3.350  0.4616 -0.2868  0.3302
21937SOL    HW176125   6.808   8.066   3.267  0.6687  0.2893  0.2651
21937SOL    HW276126   6.676   8.060   3.341  1.0575 -2.4394  0.8330
21938SOL     OW76127   2.246   8.967   9.223  0.3292  0.1620  0.6677
21938SOL    HW176128   2.237   8.934   9.313  2.0514 -1.3086  0.3559
21938SOL    HW276129   2.339   8.958   9.203  0.1143  1.2191 -1.0074
21939SOL     OW76130  11.495   1.515   7.398  0.0031  0.0984 -0.0340
21939SOL    HW176131  11.416   1.556   7.362 -0.9284 -1.7293 -0.1971
21939SOL    HW276132  11.467   1.479   7.482  0.7553 -0.3178  0.0489
21940SOL     OW76133   0.864   0.625   9.211 -0.9858 -0.3279 -0.2454
21940SOL    HW176134   0.945   0.667   9.242  0.0380 -0.9336 -1.9626
21940SOL    HW276135   0.892   0.567   9.141 -2.7664 -1.6223  0.0391
21941SOL     OW76136   1.769   5.765   4.825  0.2542  0.5483 -0.2591
21941SOL    HW176137   1.794   5.817   4.902  0.9047  1.0945 -0.8250
21941SOL    HW276138   1.675   5.753   4.834  0.0034  2.1970 -0.3219
21942SOL     OW76139   3.122   8.433   4.274  0.3224 -0.1333  0.0250
21942SOL    HW176140   3.151   8.370   4.339 -0.2196 -0.1597  0.2508
21942SOL    HW276141   3.146   8.395   4.190  0.7141 -0.2645  0.1975
21943SOL     OW76142   5.452   0.329   3.823  0.0678  0.0777 -0.1008
21943SOL    HW176143   5.521   0.303   3.884  0.5404 -1.0847 -1.0950
21943SOL    HW276144   5.371   0.311   3.871  0.4235  1.4974  1.0898
21944SOL     OW76145   0.620   4.748   0.252  0.0353 -0.4640 -0.5885
21944SOL    HW176146   0.590   4.677   0.196 -0.4731 -1.2110  0.5991
21944SOL    HW276147   0.585   4.728   0.338  2.7040 -0.5929  0.5775
21945SOL     OW76148   2.644   0.096   8.139  0.2772  0.6248 -0.1449
21945SOL    HW176149   2.683   0.122   8.222  1.4998  1.0625 -0.8350
21945SOL    HW276150   2.575   0.033   8.163  0.7699  0.5689  1.1689
21946SOL     OW76151   6.585  11.588   9.527 -0.0151 -0.5765  0.0705
21946SOL    HW176152   6.592  11.671   9.575  0.1161 -0.3904 -0.2693
21946SOL    HW276153   6.566  11.614   9.437  0.2099 -0.9116 -0.0737
21947SOL     OW76154   2.439   3.433   6.347 -0.5391  0.2683 -0.5155
21947SOL    HW176155   2.527   3.450   6.381 -1.1536  1.4999  0.5185
21947SOL    HW276156   2.392   3.515   6.358 -2.3195 -0.8213  0.5156
21948SOL     OW76157  10.112   5.110   7.296 -0.0237 -0.2652 -0.6760
21948SOL    HW176158  10.065   5.181   7.251 -2.6083 -0.7030  1.0786
21948SOL    HW276159  10.099   5.129   7.389  0.8916 -2.0105 -0.1544
21949SOL     OW76160   2.023   1.505   6.717 -0.9700  0.0441 -0.1265
21949SOL    HW176161   1.998   1.497   6.625 -0.0568 -0.4938 -0.3422
21949SOL    HW276162   2.102   1.559   6.715 -0.2612 -0.9465  0.2086
21950SOL     OW76163   4.597  11.108   5.229  0.5731  0.1058  0.0585
21950SOL    HW176164   4.557  11.068   5.307  0.4716  1.3118  0.6605
21950SOL    HW276165   4.601  11.202   5.250  2.4394  0.2046 -0.5564
21951SOL     OW76166   8.089   8.611   9.297 -0.4876 -0.0306  0.2744
21951SOL    HW176167   8.055   8.670   9.365  1.0546  0.1669  0.9281
21951SOL    HW276168   8.123   8.536   9.346 -0.7040 -0.5799 -0.4095
21952SOL     OW76169  10.774  10.128   8.004  0.6332  0.1981 -0.3498
21952SOL    HW176170  10.732  10.165   7.927 -1.3742  0.9780  1.0445
21952SOL    HW276171  10.862  10.166   8.005  1.3315 -1.0870 -3.0626
21953SOL     OW76172   6.268   0.163   7.196  0.3856  0.9989 -0.0342
21953SOL    HW176173   6.360   0.138   7.185  0.1001  0.0033 -0.1941
21953SOL    HW276174   6.256   0.169   7.291  0.3251 -0.0222  0.0358
21954SOL     OW76175   0.849   8.455  12.760 -0.3231 -0.2416 -0.2053
21954SOL    HW176176   0.945   8.455  12.763 -0.3349  0.0539  1.0700
21954SOL    HW276177   0.823   8.472  12.851 -1.5930 -1.0451 -0.3999
21955SOL     OW76178   5.189  12.197   3.070  0.3045 -0.0311  0.6428
21955SOL    HW176179   5.161  12.234   2.986 -0.4747 -0.9400  0.4868
21955SOL    HW276180   5.206  12.105   3.051 -0.1062 -0.2972  1.5341
21956SOL     OW76181   8.857  11.011   6.137 -0.0883 -0.4199 -0.5217
21956SOL    HW176182   8.863  11.037   6.045  3.4129  0.1242 -0.2788
21956SOL    HW276183   8.842  10.917   6.134 -2.4465 -0.0948 -1.5317
21957SOL     OW76184   4.528   9.095   8.637 -0.4568  0.0132  0.1481
21957SOL    HW176185   4.445   9.080   8.591 -1.0284  3.1148 -0.0597
21957SOL    HW276186   4.595   9.068   8.575 -1.2840 -0.5195 -0.5325
21958SOL     OW76187  11.234   4.541   1.303  0.0712 -0.0759 -0.2217
21958SOL    HW176188  11.321   4.577   1.288  0.6975 -1.2132  0.5378
21958SOL    HW276189  11.250   4.453   1.338 -1.3792 -0.2971 -0.0546
21959SOL     OW76190   2.794   5.738  12.893 -0.9766  0.1267 -0.9364
21959SOL    HW176191   2.774   5.649  12.862 -0.0883 -0.5591  0.3503
21959SOL    HW276192   2.713   5.769  12.933 -0.7559 -0.9219  0.3945
21960SOL     OW76193   9.632   9.544   0.159 -0.0178  0.1597 -0.0314
21960SOL    HW176194   9.678   9.587   0.230 -1.6010  0.6678  0.7321
21960SOL    HW276195   9.670   9.456   0.155  1.2126  0.6619  0.3373
21961SOL     OW76196   8.961   5.074   6.025  0.4000 -0.8563 -0.1411
21961SOL    HW176197   8.914   5.072   6.108  0.3663  2.5520  0.0461
21961SOL    HW276198   9.053   5.072   6.050  0.4020  0.8919  0.0801
21962SOL     OW76199   4.692   3.126   7.808 -0.3337 -0.5505  0.1483
21962SOL    HW176200   4.615   3.088   7.851 -0.3502  0.0478  0.6522
21962SOL    HW276201   4.760   3.059   7.818 -0.2143 -0.2485  1.4854
21963SOL     OW76202   0.592   9.462  11.663  0.0596  0.3996 -0.3768
21963SOL    HW176203   0.509   9.432  11.625  0.2521 -1.2946  0.4162
21963SOL    HW276204   0.630   9.383  11.702  1.9376  1.1907 -0.5025
21964SOL     OW76205  12.376   6.643   8.059 -0.2041 -0.1107 -0.1512
21964SOL    HW176206  12.398   6.674   7.971  0.2836  1.1514  0.3790
21964SOL    HW276207  12.288   6.607   8.051  0.0010 -0.3995 -1.2389
21965SOL     OW76208  12.650  10.958  11.836  0.3631  0.0126 -0.3296
21965SOL    HW176209  12.608  10.881  11.796 -1.2297  0.7628 -0.1845
21965SOL    HW276210  12.703  10.921  11.906 -1.4349 -0.9230  0.6309
21966SOL     OW76211   3.381  11.936   6.623 -0.6089  0.3900  0.6791
21966SOL    HW176212   3.440  11.865   6.596  0.5912  1.5478  0.0992
21966SOL    HW276213   3.369  11.923   6.717  0.7781  0.2464  0.8575
21967SOL     OW76214   8.453  12.564   6.699 -0.6649  0.5353 -0.2714
21967SOL    HW176215   8.517  12.614   6.750 -1.3098  0.6273  0.4746
21967SOL    HW276216   8.387  12.629   6.675  0.2109  0.7473 -2.2604
21968SOL     OW76217  10.902   5.580   8.942  0.6278 -0.3632 -0.0180
21968SOL    HW176218  10.888   5.537   8.858 -0.8066 -1.5877  0.7912
21968SOL    HW276219  10.848   5.659   8.938 -0.4163 -1.0401  0.1619
21969SOL     OW76220  10.669   0.716   5.094 -0.3116 -0.7682 -0.0101
21969SOL    HW176221  10.726   0.742   5.166 -1.0736 -1.2305  0.7890
21969SOL    HW276222  10.585   0.756   5.114 -0.3469 -0.2934 -1.0466
21970SOL     OW76223   3.431  10.061   9.147  0.1734 -0.2283 -0.3318
21970SOL    HW176224   3.462  10.148   9.122 -4.6934  2.2363  0.9233
21970SOL    HW276225   3.405  10.020   9.065 -0.1201  0.7298 -0.7314
21971SOL     OW76226   7.467   4.128   6.495 -0.0128  0.0121 -0.0412
21971SOL    HW176227   7.544   4.076   6.472  0.5584  1.6066 -2.0433
21971SOL    HW276228   7.398   4.064   6.511  1.7531 -1.4755  2.1780
21972SOL     OW76229  12.906  12.962   9.848  0.2629 -0.3570 -0.4879
21972SOL    HW176230  12.828  12.962   9.904 -0.3474  1.0628 -1.2875
21972SOL    HW276231  12.960  13.033   9.882  2.9285 -3.3783  2.2155
21973SOL     OW76232  12.356   7.694  10.013 -0.2076  0.3540 -0.4147
21973SOL    HW176233  12.435   7.671  10.063  1.4394  2.3309 -1.9260
21973SOL    HW276234  12.325   7.776  10.053  0.1708  1.0707 -1.5453
21974SOL     OW76235   4.704   9.194   7.294  0.3917  0.8618  0.6198
21974SOL    HW176236   4.657   9.263   7.342 -1.1426 -0.6367  1.3796
21974SOL    HW276237   4.715   9.124   7.358  0.6179 -0.1813 -0.5202
21975SOL     OW76238   6.303   6.465   9.084 -0.1280 -0.0744  0.2920
21975SOL    HW176239   6.278   6.483   8.993 -1.9363 -0.9220  0.5738
21975SOL    HW276240   6.337   6.549   9.116 -1.6428  0.9017 -0.4989
21976SOL     OW76241   8.821   3.601   5.819 -0.0946 -0.6140  1.4104
21976SOL    HW176242   8.866   3.517   5.820 -0.3731 -0.8226 -0.2391
21976SOL    HW276243   8.870   3.653   5.755 -2.7935 -1.2738 -1.4681
21977SOL     OW76244   2.717  11.600   4.733 -0.3259  0.2410  0.2453
21977SOL    HW176245   2.673  11.515   4.728  0.2436 -0.0060 -0.9055
21977SOL    HW276246   2.778  11.600   4.659  2.9669 -0.1833  2.6717
21978SOL     OW76247   4.267   6.599   3.097  0.3987  0.0314  0.3380
21978SOL    HW176248   4.216   6.523   3.071  0.6371 -0.4611  1.2475
21978SOL    HW276249   4.341   6.563   3.146 -0.0119  0.8786  1.6499
21979SOL     OW76250   6.135   1.735   4.997  0.3095  0.0623 -0.1218
21979SOL    HW176251   6.132   1.696   5.085  2.0322 -0.7315 -0.3821
21979SOL    HW276252   6.068   1.687   4.948  1.1168 -1.3218  0.0763
21980SOL     OW76253   4.804  12.504   1.658 -0.0483  0.0914 -0.1590
21980SOL    HW176254   4.836  12.513   1.569 -0.1646 -1.5615 -0.3975
21980SOL    HW276255   4.709  12.499   1.649  0.0289 -3.1535 -0.3329
21981SOL     OW76256   4.239   2.916   8.814 -0.5424  0.1487 -0.2326
21981SOL    HW176257   4.333   2.925   8.796 -0.6147 -0.4420 -0.9473
21981SOL    HW276258   4.225   2.822   8.823 -1.7380 -0.2569 -4.2348
21982SOL     OW76259   9.410   2.764   5.343  0.0046 -0.1639  0.4911
21982SOL    HW176260   9.488   2.781   5.290  0.8111 -1.7649  1.0809
21982SOL    HW276261   9.407   2.836   5.406 -0.8531  1.6587 -1.5224
21983SOL     OW76262   9.264  10.457   4.267 -0.1583  0.5168 -0.4689
21983SOL    HW176263   9.323  10.384   4.249 -1.6016 -0.5379 -1.1847
21983SOL    HW276264   9.218  10.433   4.347  0.1384  1.1677 -0.0972
21984SOL     OW76265  12.811   7.948   1.712  0.1174 -0.1481 -0.4949
21984SOL    HW176266  12.814   7.861   1.752  2.6521 -2.0516 -4.1658
21984SOL    HW276267  12.723   7.955   1.674  0.5034 -2.2097 -1.9696
21985SOL     OW76268   2.283   5.348  11.301 -0.5081 -0.7636  0.6164
21985SOL    HW176269   2.271   5.257  11.272 -1.2266 -0.5017  0.0819
21985SOL    HW276270   2.236   5.353  11.383  0.1881 -1.0731  1.0505
21986SOL     OW76271   6.182  10.734   3.547 -0.1309 -0.0251  0.0399
21986SOL    HW176272   6.139  10.818   3.567 -0.9886 -0.0649 -1.5288
21986SOL    HW276273   6.111  10.678   3.516  0.6642 -0.9075 -0.1977
21987SOL     OW76274   9.295  10.435   5.016 -0.1645 -0.3066 -0.1077
21987SOL    HW176275   9.374  10.397   4.977  0.7476  2.3138 -1.0299
21987SOL    HW276276   9.323  10.521   5.048 -2.3707  0.1648  0.7365
21988SOL     OW76277   6.801   3.214   2.688  0.6112  0.1578  0.1413
21988SOL    HW176278   6.860   3.289   2.695  1.4258 -0.4643  0.2032
21988SOL    HW276279   6.714   3.252   2.681  1.1208  1.1513 -1.3082
21989SOL     OW76280   4.703   4.426   1.886  0.1227  0.7891 -0.4305
21989SOL    HW176281   4.778   4.458   1.937  1.7841 -3.8206  0.5208
21989SOL    HW276282   4.683   4.340   1.924 -4.2469  0.7839 -2.1744
21990SOL     OW76283   7.691  12.230   3.958  0.4646 -0.2972 -0.0384
21990SOL    HW176284   7.617  12.271   3.912  0.4293 -0.3105  0.0071
21990SOL    HW276285   7.677  12.252   4.050  1.6870  1.5541 -0.2430
21991SOL     OW76286  12.596  12.842  11.052  0.3034 -0.1155  0.0167
21991SOL    HW176287  12.563  12.811  11.136  0.3772 -3.5665 -1.0596
21991SOL    HW276288  12.680  12.882  11.072 -0.3557  0.4976  1.7252
21992SOL     OW76289   2.407  11.522   9.767 -0.0427  0.1335 -0.7118
21992SOL    HW176290   2.398  11.429   9.787  0.0822 -0.1600 -1.9464
21992SOL    HW276291   2.424  11.525   9.672 -1.4579  1.4776 -0.9637
21993SOL     OW76292   5.120   3.153   4.511 -0.6205  0.4551 -0.0549
21993SOL    HW176293   5.074   3.105   4.580  1.0618 -0.6200  0.3657
21993SOL    HW276294   5.203   3.178   4.550  0.2688  0.0417 -1.5920
21994SOL     OW76295   6.174   1.222   8.284  0.2601  0.6229  0.5829
21994SOL    HW176296   6.159   1.295   8.224  1.7643 -0.7701 -1.6135
21994SOL    HW276297   6.257   1.242   8.327 -0.8345  1.6386  2.3292
21995SOL     OW76298   5.057  11.341   0.463  0.9289  0.4867 -0.1882
21995SOL    HW176299   5.097  11.424   0.489 -0.6757  1.0250  0.6907
21995SOL    HW276300   5.114  11.275   0.501  1.1610  1.2151  0.7734
21996SOL     OW76301  10.504   0.222  10.723 -0.6884  0.5528  0.4584
21996SOL    HW176302  10.535   0.220  10.633 -0.6714 -0.7841  0.4659
21996SOL    HW276303  10.497   0.315  10.745 -0.9058  0.8933 -0.9841
21997SOL     OW76304   2.777   0.975   7.805  0.2814  0.0220 -0.6102
21997SOL    HW176305   2.832   0.897   7.811  1.0305  0.4898 -1.3380
21997SOL    HW276306   2.838   1.049   7.806 -0.2656  0.5297 -2.2533
21998SOL     OW76307   7.209  12.044   1.435  0.1101  0.4022 -0.2168
21998SOL    HW176308   7.256  12.089   1.365 -0.7512  1.3542 -0.2107
21998SOL    HW276309   7.118  12.039   1.405 -0.0624 -0.1590  0.3602
21999SOL     OW76310  11.010   3.921   1.599  0.7366  0.2468 -0.0710
21999SOL    HW176311  11.068   3.978   1.650  0.7986 -0.9257  1.2336
21999SOL    HW276312  10.925   3.967   1.601 -0.2680 -1.3108  4.2511
22000SOL     OW76313   9.602   7.520   6.826 -0.7627 -0.2375  0.4055
22000SOL    HW176314   9.573   7.606   6.856 -2.2776 -0.6090  0.1112
22000SOL    HW276315   9.658   7.486   6.896  0.3230  1.1992  0.2721
22001SOL     OW76316   1.765  12.837   1.123  0.3087 -0.1421 -0.5671
22001SOL    HW176317   1.676  12.805   1.107 -0.6077 -0.0099  3.2745
22001SOL    HW276318   1.812  12.762   1.157  1.0719  0.2919 -0.6361
22002SOL     OW76319   2.248   7.894   7.170 -0.4008  0.2888 -0.5858
22002SOL    HW176320   2.156   7.867   7.170 -0.7703  1.3770  1.2268
22002SOL    HW276321   2.295   7.819   7.206 -0.8334  0.3705  0.1744
22003SOL     OW76322   2.999  11.679   9.580 -0.2566  0.1202 -0.2334
22003SOL    HW176323   2.995  11.775   9.576 -1.1735  0.0669 -0.8017
22003SOL    HW276324   3.031  11.653   9.493 -0.5778 -0.1116 -0.2848
22004SOL     OW76325   4.259   6.147  10.857  0.5978  0.0525  0.0393
22004SOL    HW176326   4.251   6.182  10.768  1.9820  0.6116  0.1056
22004SOL    HW276327   4.261   6.225  10.913  1.1065 -0.2308  0.4259
22005SOL     OW76328  12.793   1.452   7.782  0.3044  0.2555  0.7322
22005SOL    HW176329  12.807   1.497   7.699 -0.1023  0.3242  0.6987
22005SOL    HW276330  12.739   1.376   7.760  1.6671 -0.7377  0.6509
22006SOL     OW76331  10.297   3.746   7.491 -0.2571 -0.1221 -0.3044
22006SOL    HW176332  10.336   3.674   7.442  0.2434  0.2199 -0.4130
22006SOL    HW276333  10.207   3.717   7.508  0.6900 -1.9882  2.0804
22007SOL     OW76334   7.798   7.026   4.777  0.7368 -0.2619 -0.2956
22007SOL    HW176335   7.824   7.033   4.869  0.4314 -0.1642 -0.2163
22007SOL    HW276336   7.879   7.008   4.730  1.1472  1.2688 -0.2049
22008SOL     OW76337  10.329   2.505   7.921 -0.2385 -0.1068 -0.2915
22008SOL    HW176338  10.418   2.528   7.892 -0.8129 -0.3696 -2.4130
22008SOL    HW276339  10.343   2.454   8.000  1.4678  0.4805 -0.1595
22009SOL     OW76340   0.868   3.027   7.975 -0.1058  0.3824 -0.5277
22009SOL    HW176341   0.909   3.110   7.999 -0.0133  0.1601  0.0998
22009SOL    HW276342   0.924   2.992   7.906  1.3248 -0.3543  0.9383
22010SOL     OW76343  11.906   7.351   3.834 -0.3705  0.6294 -0.6081
22010SOL    HW176344  11.983   7.327   3.782 -0.3641 -0.2714 -0.2054
22010SOL    HW276345  11.893   7.276   3.892  0.0220  1.8875  1.1613
22011SOL     OW76346   3.270   2.892   6.011  0.2936 -0.0974  0.3788
22011SOL    HW176347   3.259   2.821   5.947  0.6498 -0.2113  0.4424
22011SOL    HW276348   3.288   2.969   5.957  1.1447 -0.3007  0.3570
22012SOL     OW76349   9.571   0.537  10.384 -0.4656 -0.2636  0.0376
22012SOL    HW176350   9.555   0.631  10.384 -0.3569 -0.2396  0.8103
22012SOL    HW276351   9.602   0.518  10.295 -2.2240  0.1122 -0.6877
22013SOL     OW76352   2.032   3.868   5.208  0.3191 -0.3139  0.1232
22013SOL    HW176353   2.011   3.932   5.141  0.3069  0.0439  0.4673
22013SOL    HW276354   1.948   3.851   5.251  0.2773 -0.7376 -0.1204
22014SOL     OW76355   6.524   0.166   1.406 -0.4233  0.2044 -0.9894
22014SOL    HW176356   6.476   0.095   1.449  1.9243 -0.6177  0.4885
22014SOL    HW276357   6.573   0.123   1.336  0.3458  0.4708 -0.6306
22015SOL     OW76358   8.248   2.134   7.021 -0.1250  0.5198  0.2710
22015SOL    HW176359   8.265   2.185   6.942 -2.3755  0.2541 -0.4731
22015SOL    HW276360   8.162   2.164   7.050 -0.1287 -0.6777  1.5847
22016SOL     OW76361   1.129  12.583  10.720  0.0318 -0.3781  0.0872
22016SOL    HW176362   1.149  12.663  10.769  2.2404  1.2359 -3.0434
22016SOL    HW276363   1.191  12.518  10.754 -1.8847 -0.9691  2.7683
22017SOL     OW76364   9.292   8.423   1.721  0.0763 -0.1123  0.1220
22017SOL    HW176365   9.306   8.496   1.661 -1.2969 -0.3004 -0.4636
22017SOL    HW276366   9.239   8.459   1.792  0.3239 -0.2752  0.3918
22018SOL     OW76367   4.144   5.991   8.808  0.2220 -0.9194  0.0524
22018SOL    HW176368   4.134   5.917   8.867  1.5732 -1.4753 -0.3719
22018SOL    HW276369   4.225   5.973   8.761  1.0581  1.2704  0.5468
22019SOL     OW76370   3.588   8.477   3.333 -0.2333  0.1676  0.4590
22019SOL    HW176371   3.531   8.511   3.402 -1.2342  0.3297 -0.4219
22019SOL    HW276372   3.544   8.397   3.303 -0.1600  0.4562 -0.4413
22020SOL     OW76373   2.384   3.884   6.590 -0.2371  0.5032 -0.2440
22020SOL    HW176374   2.301   3.882   6.638 -0.2059  1.1654 -0.1508
22020SOL    HW276375   2.363   3.845   6.505 -0.6667  0.7394 -0.2491
22021SOL     OW76376  12.483   8.549   5.348  0.7465 -0.1292 -0.6375
22021SOL    HW176377  12.527   8.620   5.393  2.0442  0.3687 -2.5793
22021SOL    HW276378  12.497   8.472   5.403 -0.2864  0.9711  1.2525
22022SOL     OW76379   2.052   9.281   0.153  0.3900  0.2176 -0.0977
22022SOL    HW176380   2.102   9.270   0.234  0.3290 -1.1359 -0.2082
22022SOL    HW276381   2.032   9.191   0.126  0.2431  0.6628 -1.5131
22023SOL     OW76382   0.269   8.928   9.894  0.0517 -0.0461  0.1680
22023SOL    HW176383   0.297   9.012   9.931 -0.6569  1.8155 -3.1446
22023SOL    HW276384   0.174   8.931   9.897  0.0129 -0.4815 -0.4928
22024SOL     OW76385   9.472   1.914  12.809 -0.3163  0.1669 -0.1590
22024SOL    HW176386   9.412   1.916  12.884  0.4286 -0.2437  0.4615
22024SOL    HW276387   9.555   1.948  12.843  0.1634 -0.4567 -0.6664
22025SOL     OW76388   5.415   9.309   9.103  0.2756 -0.0265  0.4120
22025SOL    HW176389   5.351   9.328   9.034  0.8065 -0.9266 -0.3596
22025SOL    HW276390   5.419   9.213   9.106  2.0495 -0.0097 -0.0357
22026SOL     OW76391   4.970   7.146   4.176  0.3234  0.0114  0.6774
22026SOL    HW176392   4.875   7.158   4.178  0.2875 -0.0917 -0.0480
22026SOL    HW276393   4.987   7.080   4.242 -0.1329 -0.0859  0.7030
22027SOL     OW76394   9.272  12.359   7.983  0.0310  0.0207 -0.0688
22027SOL    HW176395   9.179  12.338   7.996  0.6255 -1.9501  1.4165
22027SOL    HW276396   9.288  12.434   8.040 -0.1383 -1.1373  1.5679
22028SOL     OW76397  12.976   9.406   8.456  0.1138  0.3080  0.8790
22028SOL    HW176398  12.991   9.377   8.366  0.3407 -0.8745  1.2772
22028SOL    HW276399  13.049   9.466   8.474 -0.0033  0.6488  0.2416
22029SOL     OW76400   7.174   3.282   3.456  0.2637 -0.4384 -0.1545
22029SOL    HW176401   7.262   3.244   3.444  0.4239 -0.0093 -0.3530
22029SOL    HW276402   7.115   3.217   3.418  0.5658 -0.3190 -0.8471
22030SOL     OW76403   0.947  10.325   0.869 -0.1930 -0.1850 -0.4581
22030SOL    HW176404   0.911  10.316   0.957  1.4404  0.4641  0.3118
22030SOL    HW276405   0.918  10.246   0.823 -0.4243 -0.9132  0.8908
22031SOL     OW76406  11.785   0.182   9.520 -0.7043  0.1632 -0.4870
22031SOL    HW176407  11.720   0.130   9.568 -0.7481  1.6556  1.1957
22031SOL    HW276408  11.844   0.215   9.588  1.5573 -0.7056 -1.9166
22032SOL     OW76409   4.229   8.766   5.141  0.3299  0.2299  0.2167
22032SOL    HW176410   4.193   8.853   5.157  1.1640  0.8247 -1.0232
22032SOL    HW276411   4.170   8.727   5.076 -0.0932 -0.1835  0.8333
22033SOL     OW76412   8.744   0.690   3.703  0.3688  0.3714  0.4141
22033SOL    HW176413   8.725   0.614   3.758 -0.4581  0.1822 -0.1109
22033SOL    HW276414   8.737   0.765   3.762 -0.6702  0.1877  0.5354
22034SOL     OW76415   4.438   4.777   1.335 -0.1330  0.2795 -0.2482
22034SOL    HW176416   4.411   4.866   1.355  0.2644  0.1919  0.7283
22034SOL    HW276417   4.533   4.776   1.348 -0.0444 -0.1308 -0.8620
22035SOL     OW76418   2.704  11.383   4.089  0.2612 -0.1646 -0.1946
22035SOL    HW176419   2.670  11.309   4.039  1.2411 -1.3085  0.7639
22035SOL    HW276420   2.673  11.367   4.179  1.7345 -0.2400  0.3245
22036SOL     OW76421   5.848   7.647   9.874 -0.6345 -0.7627 -0.4802
22036SOL    HW176422   5.827   7.560   9.840  0.2666 -1.2957  0.2670
22036SOL    HW276423   5.942   7.657   9.857 -0.5666 -0.2791  0.1632
22037SOL     OW76424   4.314   0.269   1.062 -0.6974 -0.2276  0.0997
22037SOL    HW176425   4.319   0.335   1.132  3.3348 -1.0874  0.8491
22037SOL    HW276426   4.300   0.319   0.982  0.3149  1.3858  0.8815
22038SOL     OW76427   4.102   0.508   7.731 -0.2563  0.9743  0.1163
22038SOL    HW176428   4.102   0.418   7.698 -0.1977  0.3981  1.6277
22038SOL    HW276429   4.031   0.551   7.684 -1.2907 -0.2839  0.4830
22039SOL     OW76430   5.197   8.778   6.815  0.8780  0.0054  0.2186
22039SOL    HW176431   5.231   8.749   6.731 -1.1936  1.9838 -1.4075
22039SOL    HW276432   5.131   8.713   6.838  1.1428 -0.2987  0.1363
22040SOL     OW76433  12.472   3.126   4.918  0.1692  0.1834 -0.2791
22040SOL    HW176434  12.567   3.134   4.922  0.3036  0.6111 -3.0108
22040SOL    HW276435  12.456   3.039   4.882 -0.6466 -1.0644  2.7302
22041SOL     OW76436  11.155   6.923   9.506 -0.0457 -0.5202  0.3981
22041SOL    HW176437  11.217   6.972   9.451  0.8899 -1.7226  0.3309
22041SOL    HW276438  11.070   6.962   9.487  0.3605 -0.4008 -1.3469
22042SOL     OW76439   6.983   6.660   2.589  0.6737  0.2100 -0.7637
22042SOL    HW176440   7.038   6.627   2.518  1.2879 -0.9441  0.1886
22042SOL    HW276441   7.041   6.716   2.641  0.6024  0.0165 -0.4680
22043SOL     OW76442   0.852  12.646   7.217 -0.6647  0.4720 -0.3527
22043SOL    HW176443   0.868  12.722   7.162 -0.5469  0.5857 -0.1633
22043SOL    HW276444   0.805  12.680   7.293 -0.5624  0.3658 -0.2401
22044SOL     OW76445   1.417  12.243  10.650  0.4687  0.4033 -0.3501
22044SOL    HW176446   1.506  12.214  10.669  0.7684  0.8659 -1.0093
22044SOL    HW276447   1.384  12.275  10.734  0.2403 -1.4647  0.3241
22045SOL     OW76448   4.833   1.175   4.068 -0.0865 -0.0467  0.8107
22045SOL    HW176449   4.826   1.254   4.014  0.3481 -0.3235  0.3393
22045SOL    HW276450   4.747   1.165   4.108 -0.2550  0.4598  0.5850
22046SOL     OW76451   6.612  10.835   0.642 -0.1625 -0.2181  0.7385
22046SOL    HW176452   6.674  10.769   0.673  1.0942  0.8369  0.5868
22046SOL    HW276453   6.556  10.788   0.580  2.5565 -0.6343 -1.6818
22047SOL     OW76454   9.077   6.172   2.573 -0.1828 -0.0916 -0.3277
22047SOL    HW176455   9.024   6.188   2.651  0.2604  0.9132 -0.2175
22047SOL    HW276456   9.097   6.079   2.576 -0.2286 -0.0761  0.7297
22048SOL     OW76457   2.324   4.271  12.334  0.4935  0.0525 -0.7347
22048SOL    HW176458   2.292   4.361  12.339 -0.5265 -0.3840  1.3914
22048SOL    HW276459   2.419   4.279  12.347  0.0900  0.6601  2.6134
22049SOL     OW76460   8.933   8.755   7.048  0.3876 -0.2467 -0.2964
22049SOL    HW176461   8.940   8.820   6.978 -1.2542  1.4828  1.0011
22049SOL    HW276462   8.923   8.808   7.127  0.4063 -2.1269  1.0089
22050SOL     OW76463   6.961  11.012   2.497  0.1781  0.3149 -0.4711
22050SOL    HW176464   6.918  11.060   2.568  0.2230  0.1291 -0.3158
22050SOL    HW276465   6.957  11.071   2.422 -1.6621 -0.2768 -0.8711
22051SOL     OW76466  11.269   6.228   1.130 -0.6840  0.1282  0.0831
22051SOL    HW176467  11.251   6.207   1.222 -1.7366  0.4264 -0.0465
22051SOL    HW276468  11.198   6.185   1.082  0.1695 -0.4959 -0.6496
22052SOL     OW76469  12.091  10.136   8.681 -0.1297  0.0190  0.6877
22052SOL    HW176470  12.120  10.086   8.604  0.6806  0.4729  0.6871
22052SOL    HW276471  12.083  10.071   8.750 -0.5320 -0.3407  0.3146
22053SOL     OW76472  10.640   9.417   8.168 -0.0012 -0.0776 -0.3102
22053SOL    HW176473  10.636   9.352   8.097  1.8445 -1.0051  0.3864
22053SOL    HW276474  10.566   9.395   8.225  0.3504 -1.3258 -0.3092
22054SOL     OW76475   8.956   4.511   5.633  0.0738  0.4580  0.2958
22054SOL    HW176476   9.018   4.484   5.566 -0.4937 -0.9271  0.2742
22054SOL    HW276477   8.942   4.604   5.618  2.5457  0.9512  0.6583
22055SOL     OW76478  10.962   9.143   9.568 -0.3067 -0.0030 -0.4481
22055SOL    HW176479  11.051   9.117   9.544  0.1190 -2.8569  3.2632
22055SOL    HW276480  10.974   9.223   9.620  0.3027 -0.9094  0.8689
22056SOL     OW76481   3.619   3.656   0.651  0.3249 -0.5201  0.6144
22056SOL    HW176482   3.642   3.749   0.649  0.1063 -0.4676 -1.1115
22056SOL    HW276483   3.561   3.648   0.726  0.1545  0.7974  0.6584
22057SOL     OW76484   0.294   9.517   3.650  0.1104 -0.2351 -0.0709
22057SOL    HW176485   0.365   9.552   3.595 -1.1872  0.5435 -1.3279
22057SOL    HW276486   0.258   9.594   3.694  0.2350 -0.6743  0.8192
22058SOL     OW76487   4.660   5.525  10.156 -0.2730 -0.0696  0.2677
22058SOL    HW176488   4.707   5.599  10.195 -1.9901  1.3291 -0.2109
22058SOL    HW276489   4.585   5.511  10.213 -0.4184 -0.8932 -0.1124
22059SOL     OW76490   4.870   3.170   0.427 -0.0799  0.6435  0.5173
22059SOL    HW176491   4.920   3.200   0.352 -0.5529 -0.8740 -0.4674
22059SOL    HW276492   4.780   3.164   0.396  0.1516 -3.2429 -0.0107
22060SOL     OW76493   3.583   2.780   1.349  0.0321 -0.2200  0.9052
22060SOL    HW176494   3.586   2.723   1.273 -2.3232  1.5029 -0.6047
22060SOL    HW276495   3.642   2.852   1.327  0.5654 -0.4838  1.4349
22061SOL     OW76496  11.652   8.784   1.208  0.1475  0.1864  0.4731
22061SOL    HW176497  11.675   8.877   1.216  0.5006  0.0766  0.6972
22061SOL    HW276498  11.626   8.758   1.297  3.8318 -0.9618  1.3710
22062SOL     OW76499   3.666  12.612  11.298  0.4273  0.1521  0.5546
22062SOL    HW176500   3.725  12.549  11.340 -0.6685 -0.0845  1.8040
22062SOL    HW276501   3.619  12.654  11.371  0.1043  1.3895 -0.3287
22063SOL     OW76502   1.053   1.419  11.844 -0.3948 -0.1863 -0.2679
22063SOL    HW176503   1.017   1.506  11.857 -2.1378 -0.6288 -1.7369
22063SOL    HW276504   1.094   1.397  11.928  1.9938  2.8212 -0.4903
22064SOL     OW76505   3.840   3.084   9.865  0.2975 -0.2777  0.7457
22064SOL    HW176506   3.802   3.135   9.937  0.3028  0.1417  0.4535
22064SOL    HW276507   3.772   3.022   9.840 -0.1292  0.3480  0.3448
22065SOL     OW76508   5.806  10.105   1.098 -0.1305 -0.4988 -0.8049
22065SOL    HW176509   5.757  10.064   1.027 -0.0590 -1.5119 -0.2848
22065SOL    HW276510   5.761  10.079   1.178 -0.8527  1.5280 -0.5052
22066SOL     OW76511   3.341   5.081  11.348 -0.3407 -0.2402  0.5918
22066SOL    HW176512   3.253   5.046  11.362 -0.9907  1.3772  0.7570
22066SOL    HW276513   3.333   5.140  11.273  0.0588  1.6195  1.9320
22067SOL     OW76514  10.605   9.946   0.250 -0.7996 -0.3008  0.2382
22067SOL    HW176515  10.615  10.032   0.291 -0.8253 -0.5728  0.8352
22067SOL    HW276516  10.565   9.892   0.318 -0.7853 -0.7857 -0.1308
22068SOL     OW76517   6.152   1.948   3.816  0.3513 -0.1080 -0.1171
22068SOL    HW176518   6.125   2.009   3.747 -1.1680  0.7093  1.1308
22068SOL    HW276519   6.233   1.985   3.850  0.6438 -0.0380 -0.8750
22069SOL     OW76520   0.832   7.661   3.989 -0.2893 -0.1548  0.3536
22069SOL    HW176521   0.773   7.662   3.914  0.5518  0.0600 -0.3251
22069SOL    HW276522   0.779   7.626   4.061 -0.8650 -1.1994 -0.5510
22070SOL     OW76523  12.266  11.380  10.883 -0.0442 -0.5849 -0.2819
22070SOL    HW176524  12.258  11.445  10.953  3.3450 -0.5287  0.2294
22070SOL    HW276525  12.178  11.343  10.874 -1.3564  1.7945  1.6247
22071SOL     OW76526   5.826   7.750   0.426 -0.2963 -0.2144 -0.4745
22071SOL    HW176527   5.766   7.678   0.446  1.5737 -1.7087 -0.0073
22071SOL    HW276528   5.909   7.708   0.407  0.6263  1.7947 -1.1898
22072SOL     OW76529   3.596  12.280   8.671 -0.4456  0.8481  0.2078
22072SOL    HW176530   3.690  12.279   8.686 -0.6424  0.0062  1.6053
22072SOL    HW276531   3.566  12.361   8.711 -0.3458  1.0034 -0.0300
22073SOL     OW76532  10.980  10.835  12.012 -0.0439  0.2062  0.2972
22073SOL    HW176533  11.064  10.801  11.984 -0.7403  0.0565 -1.8348
22073SOL    HW276534  10.955  10.896  11.942 -2.1652 -0.5777  0.2982
22074SOL     OW76535   4.676   5.420   9.900  0.1344  0.1323 -0.3704
22074SOL    HW176536   4.735   5.477   9.851  1.2558 -0.2238  0.5487
22074SOL    HW276537   4.690   5.443   9.992 -0.7709 -0.3247 -0.1037
22075SOL     OW76538   3.466   7.455  12.673  0.0159 -0.0065 -0.2400
22075SOL    HW176539   3.466   7.550  12.664  0.9705 -0.0369 -0.6400
22075SOL    HW276540   3.502   7.439  12.760 -2.5758  0.0528  0.9363
22076SOL     OW76541   9.343   8.917   1.513  0.2704  0.2576  0.3888
22076SOL    HW176542   9.307   8.957   1.434 -0.3780 -1.3814 -0.1815
22076SOL    HW276543   9.424   8.875   1.484  0.3693  0.2051  0.7368
22077SOL     OW76544  10.374  10.831  10.404 -0.2927 -0.4525 -0.1502
22077SOL    HW176545  10.304  10.877  10.358 -0.7458  0.3584  1.3020
22077SOL    HW276546  10.332  10.795  10.482  1.0167  0.6027  1.0906
22078SOL     OW76547   2.236   7.528   4.605 -0.7054  0.0705  0.2095
22078SOL    HW176548   2.171   7.593   4.632  0.5832  2.4759 -2.0175
22078SOL    HW276549   2.314   7.549   4.658 -0.5456 -0.1867  0.0775
22079SOL     OW76550   7.498   3.118   3.533  0.4780  0.2419 -0.3193
22079SOL    HW176551   7.572   3.073   3.573  1.9723  2.7045 -0.0779
22079SOL    HW276552   7.471   3.183   3.598 -2.2772 -0.8900 -0.2093
22080SOL     OW76553   5.594   8.526   6.678  0.4052 -0.0896 -0.1089
22080SOL    HW176554   5.501   8.518   6.698  0.2933  0.0681 -0.5569
22080SOL    HW276555   5.634   8.557   6.760  0.4692 -2.5989  0.9063
22081SOL     OW76556   1.757   7.684   1.921 -0.3908  0.5544  0.2532
22081SOL    HW176557   1.709   7.601   1.917 -0.4568  0.5977  0.1336
22081SOL    HW276558   1.805   7.680   2.004  2.2289 -1.0735 -1.2177
22082SOL     OW76559  11.416   3.456   2.261  0.0038  0.2990 -0.0238
22082SOL    HW176560  11.477   3.413   2.321  1.1759 -0.4424 -1.6527
22082SOL    HW276561  11.361   3.510   2.317  1.9314  0.7418  1.5675
22083SOL     OW76562   1.276   9.292   9.925  0.3022  0.3934  0.4433
22083SOL    HW176563   1.187   9.289   9.960  0.6416  1.2235  1.4299
22083SOL    HW276564   1.300   9.201   9.911 -0.9072  0.1864 -0.3893
22084SOL     OW76565   4.013   1.283   5.401  0.0933 -0.1144  0.2223
22084SOL    HW176566   4.056   1.204   5.433 -2.5089 -1.3010  1.0606
22084SOL    HW276567   3.994   1.334   5.480 -0.3540  0.2021 -0.0859
22085SOL     OW76568   2.393   3.633   2.404 -0.6221 -0.3950  0.2197
22085SOL    HW176569   2.323   3.628   2.339 -0.9399 -0.4496  0.5655
22085SOL    HW276570   2.453   3.699   2.369 -1.3043  0.3201  0.3644
22086SOL     OW76571  10.536   0.414   2.071 -0.0288  0.8535 -0.2048
22086SOL    HW176572  10.611   0.356   2.084  0.1818  1.4525  1.5770
22086SOL    HW276573  10.567   0.481   2.009 -0.0856 -0.5313 -1.7955
22087SOL     OW76574   6.169  10.960   3.830 -0.1871  0.0477 -0.0375
22087SOL    HW176575   6.139  10.990   3.744 -0.7377  3.6064  1.2220
22087SOL    HW276576   6.245  11.015   3.850 -0.1728 -0.5599  1.8163
22088SOL     OW76577  10.129  10.140  10.125  0.0547 -0.0762  0.4072
22088SOL    HW176578  10.202  10.183  10.081 -0.1317 -0.2681 -0.0897
22088SOL    HW276579  10.113  10.194  10.203  0.1259  0.4941  0.0360
22089SOL     OW76580   0.043   9.206   3.261  0.4620  0.5911  0.0220
22089SOL    HW176581   0.050   9.291   3.219  1.0183  0.8094  0.5608
22089SOL    HW276582   0.086   9.216   3.346  1.6351 -0.5602 -0.4027
22090SOL     OW76583   8.395   5.377   1.451 -0.0796  0.2757  0.0245
22090SOL    HW176584   8.436   5.374   1.364 -0.3192  0.6891 -0.1041
22090SOL    HW276585   8.404   5.468   1.478  0.7578 -0.0265  0.8053
22091SOL     OW76586   2.812   5.754   3.310  0.0161  0.4121 -0.2313
22091SOL    HW176587   2.777   5.665   3.323 -1.6591  1.0841  0.0560
22091SOL    HW276588   2.884   5.760   3.374  0.2331 -0.7727 -0.3396
22092SOL     OW76589  10.581  11.023   8.099  0.3491 -0.1684  0.1660
22092SOL    HW176590  10.553  10.945   8.148 -1.6860 -0.4339 -1.2603
22092SOL    HW276591  10.556  11.096   8.155  1.1678 -0.4997  0.9867
22093SOL     OW76592   6.202   2.666   6.095  0.0325  0.3124  0.5510
22093SOL    HW176593   6.192   2.571   6.102  0.2009  0.0515 -1.9989
22093SOL    HW276594   6.192   2.685   6.002  2.2242  2.5397  0.6612
22094SOL     OW76595   8.933   0.767   2.124  0.0782  0.1642  0.1014
22094SOL    HW176596   9.012   0.713   2.113 -0.3388 -0.3427 -0.5095
22094SOL    HW276597   8.889   0.760   2.039 -0.5417  0.5765  0.3903
22095SOL     OW76598   2.560   0.539  10.856  0.5415  0.1714  0.1465
22095SOL    HW176599   2.592   0.596  10.787 -0.5265  1.3640  0.5936
22095SOL    HW276600   2.487   0.587  10.895  0.0360 -1.2148  0.9884
22096SOL     OW76601   5.163  10.548   6.221 -0.6670  0.3450  0.8332
22096SOL    HW176602   5.143  10.570   6.312  1.5369 -1.4590  1.8433
22096SOL    HW276603   5.104  10.475   6.201  0.6160 -0.9795  1.7457
22097SOL     OW76604   6.972   0.285   9.431  0.1189 -0.0533 -0.0648
22097SOL    HW176605   6.965   0.259   9.339 -1.3925 -0.8629  0.2512
22097SOL    HW276606   6.972   0.202   9.479  0.4742  0.3777  0.6959
22098SOL     OW76607   0.474   2.959   1.279 -0.1996 -0.1375  0.1383
22098SOL    HW176608   0.417   3.030   1.250 -1.7138 -0.1404  2.7778
22098SOL    HW276609   0.415   2.884   1.292  0.9575 -1.1333 -0.1367
22099SOL     OW76610   2.356   8.267   6.545 -0.0180 -0.2530 -0.6407
22099SOL    HW176611   2.380   8.317   6.467 -0.7909  0.8582 -0.1797
22099SOL    HW276612   2.440   8.241   6.583  0.4399  1.2955 -0.5141
22100SOL     OW76613  10.718   9.818   6.998  0.3362 -0.1132  0.1844
22100SOL    HW176614  10.804   9.782   6.977 -0.5382 -2.7325  0.7814
22100SOL    HW276615  10.732   9.867   7.079  1.7281  1.7894 -1.1084
22101SOL     OW76616   4.596  12.485   2.011  0.0096 -0.3062  0.2301
22101SOL    HW176617   4.521  12.485   2.070 -0.2750 -0.3609 -0.1240
22101SOL    HW276618   4.562  12.521   1.929  0.2786 -0.6827 -0.0509
22102SOL     OW76619  11.472   0.572   2.894 -0.6261 -0.0110  0.1748
22102SOL    HW176620  11.514   0.570   2.808  0.8398 -0.1843  0.8693
22102SOL    HW276621  11.484   0.661   2.925 -3.5325  0.8778 -0.8663
22103SOL     OW76622   6.737  11.610  10.041 -0.4328  0.1510  0.1471
22103SOL    HW176623   6.707  11.538  10.096  1.1744 -0.3348  0.4288
22103SOL    HW276624   6.706  11.689  10.085 -0.5666 -0.2980  0.8648
22104SOL     OW76625  12.549  11.177   3.586  0.0699 -0.2052 -0.3217
22104SOL    HW176626  12.641  11.198   3.602  0.0948 -0.1282 -0.5591
22104SOL    HW276627  12.550  11.088   3.551  0.0883 -0.0667 -0.6807
22105SOL     OW76628   0.210  10.994  12.970 -0.1565 -0.2082  0.3636
22105SOL    HW176629   0.163  11.009  12.888  1.1130  1.2395 -0.1660
22105SOL    HW276630   0.147  11.016  13.039 -0.3942  1.3231 -0.3078
22106SOL     OW76631   4.143   7.954   1.154 -0.6254  0.2322 -0.3359
22106SOL    HW176632   4.096   7.871   1.166  0.6527 -0.6150 -0.9935
22106SOL    HW276633   4.097   7.997   1.081 -0.6836 -0.3570 -0.6491
22107SOL     OW76634   9.728  12.682   9.724  0.4746 -0.5834  0.3352
22107SOL    HW176635   9.653  12.636   9.686  1.7079 -2.0445 -0.4224
22107SOL    HW276636   9.795  12.680   9.656  1.2668  0.5634  1.0511
22108SOL     OW76637  11.097   3.034   0.190  0.2172 -0.0385  0.3060
22108SOL    HW176638  11.124   3.116   0.148  0.4167  0.9825  2.2840
22108SOL    HW276639  11.175   2.978   0.186  0.6011  0.4836  0.3159
22109SOL     OW76640   2.655  12.637   7.144  0.5225  0.5940 -0.0793
22109SOL    HW176641   2.639  12.679   7.228  0.9993 -1.7380  1.2908
22109SOL    HW276642   2.751  12.634   7.136  0.5586 -1.0787  0.4165
22110SOL     OW76643   4.094   9.997   6.007 -0.6024  0.2706 -0.0929
22110SOL    HW176644   4.042   9.935   5.955 -1.5742  0.4451  0.6334
22110SOL    HW276645   4.068  10.083   5.975  1.6042  0.3493 -1.9111
22111SOL     OW76646   9.107  12.348   0.039  0.2286 -0.6763 -0.4861
22111SOL    HW176647   9.086  12.264  -0.001 -3.7058  1.0215 -2.4719
22111SOL    HW276648   9.160  12.393  -0.026 -1.7156  0.0786 -1.6299
22112SOL     OW76649   5.704   1.620   8.797  0.4529  0.3375  0.2330
22112SOL    HW176650   5.614   1.653   8.788  0.3554 -0.3924 -2.1073
22112SOL    HW276651   5.701   1.562   8.873 -0.5049  1.9806  1.5154
22113SOL     OW76652   6.785   3.364  10.980 -0.0529 -0.2641 -0.0986
22113SOL    HW176653   6.805   3.274  11.003  1.0232  0.3645  1.6898
22113SOL    HW276654   6.840   3.382  10.904  2.2592 -0.2389  1.4437
22114SOL     OW76655  10.633  12.096   5.414 -0.1591 -0.3517 -0.5547
22114SOL    HW176656  10.624  12.133   5.326 -0.5610 -0.3629 -0.5197
22114SOL    HW276657  10.698  12.152   5.457 -1.2525  0.7650 -0.2733
22115SOL     OW76658   7.993   0.977   8.827  0.0266 -0.3067 -0.1193
22115SOL    HW176659   7.981   1.045   8.761  0.9690 -2.4067 -2.6434
22115SOL    HW276660   7.904   0.949   8.849 -0.3051 -0.4384 -1.5199
22116SOL     OW76661   7.400   3.526   5.069 -0.1888  0.4542  0.1550
22116SOL    HW176662   7.386   3.580   4.992  2.2726  2.7092  1.1213
22116SOL    HW276663   7.344   3.564   5.136 -1.5700 -0.8756 -0.1953
22117SOL     OW76664   1.197  10.688   9.181  0.4829 -0.5008 -0.2819
22117SOL    HW176665   1.258  10.632   9.133 -2.9866 -1.6928 -3.7455
22117SOL    HW276666   1.162  10.632   9.251  0.6342 -1.0108 -0.6127
22118SOL     OW76667   6.948   8.326   7.937  0.0109  0.2916  0.3411
22118SOL    HW176668   6.990   8.324   7.851  0.8060  1.6850  0.6571
22118SOL    HW276669   7.009   8.374   7.992 -0.8444  0.1030  1.4941
22119SOL     OW76670  10.142  12.189   6.306 -0.7760 -0.0840  0.0471
22119SOL    HW176671  10.091  12.178   6.386  1.6822  1.1786  1.9308
22119SOL    HW276672  10.192  12.269   6.321  1.3214 -0.9445 -1.8918
22120SOL     OW76673   0.354   6.456   2.135  0.1011  0.1923 -0.1301
22120SOL    HW176674   0.285   6.474   2.199 -1.7048  0.2401 -1.9981
22120SOL    HW276675   0.307   6.432   2.055  2.2097  1.5430 -1.8816
22121SOL     OW76676  12.030   9.179   4.049  0.2249  0.1877  0.1860
22121SOL    HW176677  12.009   9.087   4.033  0.6652  0.0044  0.6265
22121SOL    HW276678  11.948   9.218   4.077 -0.2660  0.2248 -1.2361
22122SOL     OW76679   9.133  10.005   0.285  0.2218  0.4306  0.3369
22122SOL    HW176680   9.133   9.910   0.282 -1.1747  0.4342 -0.3809
22122SOL    HW276681   9.161  10.026   0.374  3.2370 -0.5567 -0.2537
22123SOL     OW76682   9.595   9.045   7.849  0.6729  0.2173 -0.1503
22123SOL    HW176683   9.602   8.950   7.860 -0.0077  0.2168  0.3398
22123SOL    HW276684   9.602   9.080   7.937  0.4683  0.5912 -0.2803
22124SOL     OW76685  10.521  11.286   4.441  0.1613  0.4886  0.3889
22124SOL    HW176686  10.536  11.351   4.510  0.4299 -1.5951  2.4394
22124SOL    HW276687  10.538  11.202   4.484 -0.9694 -1.0088 -1.8957
22125SOL     OW76688  11.664   9.327   9.419 -0.3991 -0.2919  0.2192
22125SOL    HW176689  11.749   9.320   9.463  0.1313  0.5949 -0.6339
22125SOL    HW276690  11.615   9.391   9.472 -0.2888 -0.2894  0.3182
22126SOL     OW76691   1.517   9.646   0.296 -0.1538  0.5056 -0.0229
22126SOL    HW176692   1.566   9.577   0.340 -0.3676  0.8001  0.6927
22126SOL    HW276693   1.568   9.666   0.218 -0.0688 -0.4243 -0.2049
22127SOL     OW76694  11.969  12.895   9.852 -0.3560 -0.4411  0.9755
22127SOL    HW176695  12.059  12.887   9.820 -0.9338 -1.4011 -0.5135
22127SOL    HW276696  11.950  12.989   9.847 -0.2688 -0.4888 -1.1911
22128SOL     OW76697   6.341  12.102   8.662 -0.0186  0.0363 -0.1888
22128SOL    HW176698   6.341  12.197   8.678 -1.4988  0.1477 -0.7090
22128SOL    HW276699   6.434  12.080   8.651  0.4013  1.3115  0.5489
22129SOL     OW76700   6.864   7.471   6.541  0.3489  0.2156  0.3355
22129SOL    HW176701   6.934   7.475   6.475  0.5358 -1.3545  0.4042
22129SOL    HW276702   6.805   7.542   6.516  2.2563  2.0124  0.6593
22130SOL     OW76703   4.465   7.456   6.531 -0.4296 -0.0050  0.2212
22130SOL    HW176704   4.496   7.494   6.448 -2.1937  0.8252 -0.1186
22130SOL    HW276705   4.526   7.489   6.597 -0.2736  1.1492 -0.4620
22131SOL     OW76706   0.912   1.841  11.265 -0.5890 -0.3064 -0.0982
22131SOL    HW176707   0.892   1.802  11.351  2.4748  2.9793  2.4168
22131SOL    HW276708   0.956   1.771  11.217 -0.1278 -1.5939  2.0525
22132SOL     OW76709   9.658  10.551   3.742 -0.3027  0.2636 -0.0081
22132SOL    HW176710   9.611  10.471   3.763  0.5446 -0.1534  0.3568
22132SOL    HW276711   9.591  10.620   3.741 -1.0998 -0.5015 -0.7247
22133SOL     OW76712   7.414  10.653  12.619 -0.0160  0.1327  0.3581
22133SOL    HW176713   7.439  10.678  12.529  1.3417  0.2116  0.7315
22133SOL    HW276714   7.496  10.655  12.667 -0.9200  1.5287  1.9577
22134SOL     OW76715   1.811   7.982   5.699  0.0094  0.4330  0.5076
22134SOL    HW176716   1.743   7.972   5.765 -1.0902 -2.3041 -0.8698
22134SOL    HW276717   1.781   8.056   5.645 -2.4133 -1.1910 -0.5377
22135SOL     OW76718   2.179   6.892   9.465 -0.2695 -0.1874  0.2799
22135SOL    HW176719   2.229   6.965   9.428 -2.3638  0.8865 -0.6278
22135SOL    HW276720   2.098   6.932   9.497 -0.5663 -1.8247  1.7348
22136SOL     OW76721   8.603  12.570   9.114  0.2972 -0.2923  0.1213
22136SOL    HW176722   8.508  12.557   9.120  0.2315  0.6088  1.8337
22136SOL    HW276723   8.635  12.550   9.202  1.4880  0.8187 -0.0275
22137SOL     OW76724  12.800   5.726   8.407 -0.5664 -0.1255 -0.0505
22137SOL    HW176725  12.725   5.704   8.462  0.1599  0.7009  1.3314
22137SOL    HW276726  12.788   5.819   8.386 -0.8168 -0.4234 -1.2831
22138SOL     OW76727   5.497   4.833   3.542  1.2017  0.7638  0.7897
22138SOL    HW176728   5.578   4.851   3.494  1.8901  1.2886  2.1037
22138SOL    HW276729   5.521   4.765   3.605  0.6142  0.9091  1.1735
22139SOL     OW76730  11.006   5.435   7.358  0.0506 -0.2125  0.0570
22139SOL    HW176731  11.047   5.349   7.350  1.5427  0.2506  1.9584
22139SOL    HW276732  10.986   5.444   7.452 -1.9102  0.7236 -0.3962
22140SOL     OW76733  12.248   0.458   1.439  0.1104  0.1118 -0.5040
22140SOL    HW176734  12.334   0.441   1.399  0.0794 -0.8704 -0.1803
22140SOL    HW276735  12.202   0.375   1.431  0.0469 -0.0860  1.4406
22141SOL     OW76736   4.055   8.765   7.924  0.3322 -0.6658  0.1086
22141SOL    HW176737   4.022   8.693   7.870 -1.0422 -0.9160  1.2259
22141SOL    HW276738   4.067   8.727   8.011 -1.0191  0.5452  0.8834
22142SOL     OW76739   6.126   5.959   4.258  0.0598  0.4530 -0.2100
22142SOL    HW176740   6.058   5.973   4.191 -1.1511  1.8404  1.2116
22142SOL    HW276741   6.113   5.869   4.287 -0.0519  0.1574 -1.1617
22143SOL     OW76742   1.716   1.337   3.877  0.0806  0.0880  0.2185
22143SOL    HW176743   1.621   1.326   3.881 -0.3439  1.9411 -2.2860
22143SOL    HW276744   1.742   1.288   3.799  0.9846  0.6759  0.1385
22144SOL     OW76745   2.314   8.970   0.188  0.3363 -0.3536 -0.4167
22144SOL    HW176746   2.290   9.058   0.158  2.1463 -0.1581 -1.4393
22144SOL    HW276747   2.291   8.912   0.116 -0.0047 -0.5986 -0.1143
22145SOL     OW76748   3.161  12.366  10.291 -0.1631  1.1964  0.3009
22145SOL    HW176749   3.141  12.293  10.233  0.0492  1.6967 -0.4170
22145SOL    HW276750   3.151  12.330  10.380  0.0015  0.2896 -0.0378
22146SOL     OW76751   2.369   6.597  11.656  0.0583  0.7247  0.4357
22146SOL    HW176752   2.397   6.667  11.597  1.0218 -0.0751 -0.0794
22146SOL    HW276753   2.273   6.601  11.653  0.0692  2.5590  1.0806
22147SOL     OW76754   5.196   0.464  10.908 -0.0787  0.2091 -0.5402
22147SOL    HW176755   5.133   0.413  10.960  0.0049  1.8100  1.2207
22147SOL    HW276756   5.261   0.400  10.880 -1.8429 -1.2824 -1.4447
22148SOL     OW76757   7.789   7.261   7.996  0.0863 -0.0871  0.3601
22148SOL    HW176758   7.870   7.293   8.034 -0.8044  1.6595  0.8920
22148SOL    HW276759   7.723   7.276   8.064 -1.0177  0.3518 -0.7764
22149SOL     OW76760  10.233  12.062  10.654  0.3029 -0.0856  0.0961
22149SOL    HW176761  10.311  12.010  10.669  0.6930  0.5738  0.4098
22149SOL    HW276762  10.173  12.004  10.608  0.5524 -0.9468  0.8368
22150SOL     OW76763   9.458   7.780   6.755 -0.3199 -0.3518 -0.0364
22150SOL    HW176764   9.500   7.855   6.713 -2.4981  1.7073  1.1909
22150SOL    HW276765   9.431   7.723   6.683  1.9936 -0.3559 -0.9625
22151SOL     OW76766   2.529   7.589   0.624 -0.3083 -0.0370  0.8506
22151SOL    HW176767   2.538   7.568   0.717 -0.9752  0.1589  0.9658
22151SOL    HW276768   2.618   7.586   0.590 -0.0586 -0.1157  1.4951
22152SOL     OW76769  10.979   0.556   8.108  0.6388  0.0382 -0.2210
22152SOL    HW176770  10.943   0.484   8.159  0.2002  0.3056 -0.1462
22152SOL    HW276771  11.061   0.522   8.072  0.0951 -0.7400 -0.7649
22153SOL     OW76772   6.435  11.741   9.955  0.2476 -0.1658 -0.1476
22153SOL    HW176773   6.509  11.767   9.899  0.5525 -0.5297  0.0826
22153SOL    HW276774   6.470  11.745  10.044  0.1126 -0.7420 -0.0673
22154SOL     OW76775   8.515   2.572  11.279 -0.0794 -0.4943 -0.3641
22154SOL    HW176776   8.434   2.530  11.309 -0.0370 -0.4881 -0.2405
22154SOL    HW276777   8.575   2.563  11.352  0.0366 -0.5097 -0.4615
22155SOL     OW76778   0.752   7.363   7.210  0.1727 -0.4267  0.0210
22155SOL    HW176779   0.695   7.329   7.142 -1.6145  0.1999  1.1234
22155SOL    HW276780   0.833   7.386   7.165 -0.7068 -0.6580 -1.7452
22156SOL     OW76781  12.966   4.294   5.143 -0.1853 -0.2519  0.3855
22156SOL    HW176782  12.940   4.211   5.182 -1.6909 -0.3559 -0.7909
22156SOL    HW276783  13.061   4.287   5.133 -0.1485 -1.3700  1.3244
22157SOL     OW76784  11.904   0.747   8.681  0.2239 -0.1629 -0.2684
22157SOL    HW176785  11.866   0.663   8.657  0.1615 -0.3999  0.6229
22157SOL    HW276786  11.998   0.736   8.665  0.0832  0.0124 -1.2917
22158SOL     OW76787   9.226  11.220   2.725  0.5815 -0.0383  0.3579
22158SOL    HW176788   9.173  11.292   2.760  0.4479 -0.2349  0.5626
22158SOL    HW276789   9.165  11.171   2.670  1.0546  0.8895 -1.0510
22159SOL     OW76790  12.827  10.083   5.979  0.2195 -0.6315 -0.1908
22159SOL    HW176791  12.800  10.070   6.070  0.1112  0.1614 -0.1047
22159SOL    HW276792  12.772  10.154   5.947  0.2219 -0.9381 -0.8963
22160SOL     OW76793  12.520   3.786   5.011  0.1547 -0.6182  0.1116
22160SOL    HW176794  12.449   3.785   5.076 -0.7249 -0.5350 -0.8231
22160SOL    HW276795  12.553   3.696   5.010  0.1046 -0.6438  0.5980
22161SOL     OW76796  10.898   3.068   0.001 -0.5252 -0.4066  0.2196
22161SOL    HW176797  10.967   3.065   0.067 -1.3405 -0.2633  1.0971
22161SOL    HW276798  10.836   2.999   0.027 -1.0660 -0.0674 -0.1462
22162SOL     OW76799   7.172   8.048   3.989  0.0838  0.0803 -0.2269
22162SOL    HW176800   7.176   7.980   3.922 -0.5758  1.3160 -1.5885
22162SOL    HW276801   7.153   8.128   3.940  2.8403  1.6575  1.0542
22163SOL     OW76802   6.266   5.675   7.707  0.3957 -0.2069  0.2773
22163SOL    HW176803   6.253   5.744   7.771 -0.6861 -1.9389  2.0310
22163SOL    HW276804   6.193   5.685   7.645 -0.3307 -0.3580  1.0925
22164SOL     OW76805   4.890   0.652   6.919 -0.3074 -0.2238 -0.3416
22164SOL    HW176806   4.855   0.738   6.939 -2.1273 -0.9848 -0.0911
22164SOL    HW276807   4.824   0.591   6.950  1.2574 -1.7625  0.1697
22165SOL     OW76808   0.790   5.207   5.249 -0.1658  0.3492  0.6043
22165SOL    HW176809   0.838   5.286   5.227 -0.5507  0.3878 -0.1459
22165SOL    HW276810   0.753   5.224   5.335  0.8517  0.4549  1.0315
22166SOL     OW76811  12.779  12.800   8.317  0.3676  0.5419 -0.4279
22166SOL    HW176812  12.858  12.806   8.370 -0.5999 -1.6825  1.4864
22166SOL    HW276813  12.715  12.853   8.364 -0.2839 -0.8380  0.3367
22167SOL     OW76814  10.353  10.468   2.650 -0.5585 -0.3037  0.7021
22167SOL    HW176815  10.364  10.388   2.701  0.3415 -1.0088 -0.5329
22167SOL    HW276816  10.266  10.460   2.610 -0.0619 -1.1951 -0.2481
22168SOL     OW76817   6.506   2.328  11.442 -0.0048  0.1916  1.0871
22168SOL    HW176818   6.554   2.332  11.359  0.7380  1.5456  1.5502
22168SOL    HW276819   6.423   2.287  11.420 -0.5141  2.0357 -0.6951
22169SOL     OW76820   8.882   9.103   7.976 -0.1437  0.5007  0.1883
22169SOL    HW176821   8.846   9.168   7.916  2.8472  1.5289 -0.6913
22169SOL    HW276822   8.874   9.019   7.929  1.3600  1.1678 -1.3995
22170SOL     OW76823  12.612   7.254   0.380  0.0473  0.3867 -0.7212
22170SOL    HW176824  12.675   7.190   0.349  1.8865  2.4288 -1.4690
22170SOL    HW276825  12.641   7.276   0.468 -0.5260  0.2644 -0.4938
22171SOL     OW76826  11.115   5.989   5.431  0.0489  0.0308 -0.1424
22171SOL    HW176827  11.127   6.037   5.512  1.2179 -1.2763  0.5066
22171SOL    HW276828  11.045   5.927   5.450  0.2900 -0.2434 -0.1353
22172SOL     OW76829   2.816   8.560   2.209 -0.2613  0.2042  0.2284
22172SOL    HW176830   2.804   8.641   2.257 -0.6401 -0.8738  2.0241
22172SOL    HW276831   2.890   8.578   2.149  1.3586  1.0982  2.3718
22173SOL     OW76832  10.030   8.113   1.209 -0.4030  0.1182  0.0430
22173SOL    HW176833   9.978   8.034   1.193  1.5603 -1.2877  0.2706
22173SOL    HW276834   9.984   8.158   1.280 -2.4331  0.0612 -1.1504
22174SOL     OW76835   0.841   1.947   6.612  0.0392  0.0941 -0.2976
22174SOL    HW176836   0.934   1.963   6.626  0.3588 -0.7763 -1.2887
22174SOL    HW276837   0.814   2.015   6.550  0.1411  0.0514 -0.3895
22175SOL     OW76838   3.514   8.951   5.657 -0.1732 -0.5447 -0.3210
22175SOL    HW176839   3.463   8.985   5.731 -1.1073  0.2457 -1.2867
22175SOL    HW276840   3.517   8.856   5.671 -1.4622 -0.5524  0.0580
22176SOL     OW76841   2.583   8.976   2.445  0.0782 -0.6188  0.0955
22176SOL    HW176842   2.563   8.892   2.486 -0.7806 -0.4911 -0.0433
22176SOL    HW276843   2.502   9.027   2.454  0.1006 -0.3429 -1.1421
22177SOL     OW76844  12.982   1.520   3.793 -0.0837 -0.3818  0.2673
22177SOL    HW176845  12.889   1.540   3.782 -0.0267  0.0680  0.6031
22177SOL    HW276846  13.002   1.459   3.721 -0.3530  0.4393 -0.5122
22178SOL     OW76847  12.984   3.027   7.840 -0.5761 -0.2439 -0.6338
22178SOL    HW176848  13.057   3.010   7.900 -0.0580 -0.5989 -1.3553
22178SOL    HW276849  13.026   3.048   7.756 -1.3082 -1.3006 -1.2905
22179SOL     OW76850   5.157   2.511   3.313  0.0989 -0.1050 -0.1582
22179SOL    HW176851   5.132   2.458   3.238 -1.3293 -0.1547  0.3320
22179SOL    HW276852   5.075   2.547   3.346  0.7465  0.2283  1.1498
22180SOL     OW76853  12.619   3.675   7.677 -0.3279  0.2105  0.0076
22180SOL    HW176854  12.610   3.594   7.627 -1.2831  1.5371 -2.1097
22180SOL    HW276855  12.687   3.656   7.742  0.5732 -1.7843 -1.4130
22181SOL     OW76856   9.406   9.646   6.653 -0.2897  0.4453 -0.5546
22181SOL    HW176857   9.384   9.553   6.655  2.8669 -0.4246  2.2267
22181SOL    HW276858   9.347   9.686   6.717 -0.2261 -0.0879 -0.1529
22182SOL     OW76859   3.496   4.023   7.884  0.3722  0.8074  0.4449
22182SOL    HW176860   3.490   4.076   7.805  0.4801 -0.6304 -0.5610
22182SOL    HW276861   3.588   3.996   7.888  0.1684  0.1135  0.5429
22183SOL     OW76862   8.931  12.345   4.103  0.1361  0.0470 -0.1658
22183SOL    HW176863   8.844  12.318   4.132  0.8249 -0.4868  1.5473
22183SOL    HW276864   8.938  12.436   4.130  0.3526 -0.1167  0.3491
22184SOL     OW76865   6.595   2.172   6.394 -0.5710  0.1538 -0.2030
22184SOL    HW176866   6.585   2.227   6.472 -1.0403  0.8670 -0.7622
22184SOL    HW276867   6.682   2.134   6.404 -0.1318  1.1829  0.0730
22185SOL     OW76868   5.746   7.072   8.143 -0.5880 -0.0298 -0.0891
22185SOL    HW176869   5.796   7.105   8.218 -0.4815  0.0175 -0.1827
22185SOL    HW276870   5.655   7.095   8.163 -0.5340  0.1683 -0.0753
22186SOL     OW76871   5.783   0.843   7.726 -0.0236  0.3404  0.3840
22186SOL    HW176872   5.832   0.766   7.754 -1.2242 -0.9228 -0.8597
22186SOL    HW276873   5.851   0.908   7.705  1.0030 -0.3809  1.3558
22187SOL     OW76874   1.017  10.887  12.536 -0.0385 -0.5395  0.1320
22187SOL    HW176875   0.981  10.849  12.456  0.4503 -2.2131  0.6685
22187SOL    HW276876   0.967  10.846  12.607  1.2157 -1.0165  0.7715
22188SOL     OW76877   2.546   4.409   0.325  0.3437 -0.0498  0.2207
22188SOL    HW176878   2.542   4.501   0.301  0.2537 -0.3034 -0.7692
22188SOL    HW276879   2.614   4.373   0.268  2.2718 -0.0809  2.3788
22189SOL     OW76880   9.615   4.805   4.481 -0.4140 -0.2376 -0.0754
22189SOL    HW176881   9.559   4.851   4.545 -0.5432 -0.2356 -0.1881
22189SOL    HW276882   9.702   4.842   4.495 -0.8411  1.3732 -1.3991
22190SOL     OW76883   1.021   8.315   8.981  0.5668  0.3735 -0.0768
22190SOL    HW176884   0.978   8.299   8.897  0.2421  1.9912 -0.2445
22190SOL    HW276885   0.950   8.342   9.039  0.8308 -0.4646  0.6735
22191SOL     OW76886   7.051   1.496  10.327  0.4400  0.5901  0.4182
22191SOL    HW176887   6.977   1.436  10.334 -1.5498  2.9359  0.9093
22191SOL    HW276888   7.093   1.491  10.413 -1.8996  2.4454  1.7761
22192SOL     OW76889   2.637   8.233   1.442 -0.1008  0.6551 -0.6575
22192SOL    HW176890   2.611   8.141   1.446  0.1924  0.6072  1.6185
22192SOL    HW276891   2.555   8.281   1.440 -0.3353  0.3692  0.8177
22193SOL     OW76892   1.416   6.600   6.722 -0.0054 -0.4460 -0.0815
22193SOL    HW176893   1.474   6.559   6.658  2.8272 -0.1450  2.0838
22193SOL    HW276894   1.378   6.526   6.770 -0.3962 -0.6213 -0.6491
22194SOL     OW76895   7.100   3.802   4.650  0.0956 -0.5397  0.0030
22194SOL    HW176896   7.115   3.894   4.631 -0.2309 -0.8410 -1.8861
22194SOL    HW276897   7.173   3.776   4.706  0.9901  0.5096 -0.6494
22195SOL     OW76898   8.738  12.929  12.201 -0.0337 -0.1831  0.3196
22195SOL    HW176899   8.830  12.908  12.215  0.0025  0.7381  1.7723
22195SOL    HW276900   8.714  12.981  12.278 -0.9463  2.1688 -1.4227
22196SOL     OW76901   3.153   7.547  11.339 -0.3034 -0.5048 -0.2789
22196SOL    HW176902   3.070   7.562  11.385  0.0891  0.5512  0.1095
22196SOL    HW276903   3.206   7.624  11.359  0.3991 -0.6866 -1.3614
22197SOL     OW76904   3.803   1.859   3.133  0.2388  0.5229 -0.2290
22197SOL    HW176905   3.837   1.837   3.219  2.2745  0.2761 -1.0332
22197SOL    HW276906   3.813   1.955   3.127  0.0351  0.5476 -0.1482
22198SOL     OW76907   8.792   0.846   8.886 -0.2136  0.0974 -0.0584
22198SOL    HW176908   8.775   0.902   8.962  1.0860  1.3504 -0.6471
22198SOL    HW276909   8.794   0.906   8.812  2.1562 -0.5731 -0.5994
22199SOL     OW76910   1.463  12.819   6.796  0.2477  0.3719  0.2536
22199SOL    HW176911   1.557  12.833   6.787  0.5462 -1.6593 -0.2845
22199SOL    HW276912   1.434  12.887   6.857  1.6998  2.2407 -1.0397
22200SOL     OW76913  11.659   1.662   1.291 -0.6072 -0.1364  0.0295
22200SOL    HW176914  11.649   1.618   1.375 -1.4158 -0.3035 -0.1539
22200SOL    HW276915  11.604   1.612   1.231  0.3007 -0.2764 -0.7017
22201SOL     OW76916   7.525  10.430   4.102  0.0515  0.2985  0.2872
22201SOL    HW176917   7.531  10.432   4.006 -0.6429  1.4624  0.2508
22201SOL    HW276918   7.431  10.426   4.120  0.1829  0.0237  0.9164
22202SOL     OW76919   7.889  11.130   8.273  0.1423 -0.3453  0.7539
22202SOL    HW176920   7.978  11.136   8.308  0.2412  2.0493  0.3013
22202SOL    HW276921   7.898  11.155   8.181 -1.0649  0.7666  0.9049
22203SOL     OW76922   3.164   6.536   1.883 -0.0465  0.5222  0.2119
22203SOL    HW176923   3.124   6.483   1.952 -0.1877  1.9741  1.3207
22203SOL    HW276924   3.257   6.514   1.886 -0.1613  0.0448  0.3675
22204SOL     OW76925   9.641   2.115   2.841  0.4653  0.4871  0.4158
22204SOL    HW176926   9.655   2.031   2.797  0.7140 -1.0709  3.2450
22204SOL    HW276927   9.556   2.105   2.884  1.2373  1.0145  2.1273
22205SOL     OW76928   3.662   7.912  11.607  0.1470 -0.0641 -0.0318
22205SOL    HW176929   3.571   7.885  11.618 -0.4595  1.8970  0.2077
22205SOL    HW276930   3.708   7.875  11.682  0.0521 -2.8607 -1.2453
22206SOL     OW76931  10.606   0.376   0.294 -0.2954  0.1386 -0.0679
22206SOL    HW176932  10.652   0.364   0.212 -2.3040 -2.3205 -0.9940
22206SOL    HW276933  10.513   0.372   0.270 -0.9468  0.1666  2.2016
22207SOL     OW76934   8.554  10.808   3.195 -0.3447 -0.1862  0.5480
22207SOL    HW176935   8.534  10.761   3.114  1.7105  0.3165 -0.3025
22207SOL    HW276936   8.606  10.747   3.246  1.7334  0.8180 -0.2576
22208SOL     OW76937  10.454   2.358   6.258 -0.0049  0.3834 -0.0199
22208SOL    HW176938  10.543   2.330   6.237 -0.1169 -0.0077  0.0215
22208SOL    HW276939  10.413   2.375   6.173  0.1449  0.6891 -0.0347
22209SOL     OW76940   7.298   3.155   3.839 -0.4477 -0.2946 -0.0512
22209SOL    HW176941   7.302   3.158   3.935 -0.9553 -0.1590 -0.0303
22209SOL    HW276942   7.206   3.135   3.821 -0.0801 -1.7572 -0.4723
22210SOL     OW76943   3.703   5.341  12.213 -0.2852 -0.2010  0.7150
22210SOL    HW176944   3.617   5.379  12.195  0.0901  1.3189  1.9208
22210SOL    HW276945   3.712   5.347  12.308  0.4005 -2.0765  0.8095
22211SOL     OW76946   6.592   5.153   6.167 -0.3174 -0.2274  0.2782
22211SOL    HW176947   6.596   5.058   6.153  1.8988  0.0870 -1.7725
22211SOL    HW276948   6.673   5.174   6.213 -1.0939  0.6288  1.3064
22212SOL     OW76949  12.072   1.447  12.723  0.2646  0.2227 -0.3873
22212SOL    HW176950  11.992   1.467  12.771 -0.3597  0.9928 -1.7328
22212SOL    HW276951  12.093   1.357  12.749  1.3652  1.3250  3.2758
22213SOL     OW76952   2.564   8.606   1.228  0.6198 -0.1141  0.3237
22213SOL    HW176953   2.643   8.589   1.279  0.3354  0.1005  0.8354
22213SOL    HW276954   2.511   8.527   1.239  0.2204  0.2388  0.9959
22214SOL     OW76955   4.968   3.874   4.622 -0.4298  0.0885 -0.0974
22214SOL    HW176956   5.017   3.843   4.546 -0.7390 -0.8943  0.0921
22214SOL    HW276957   5.035   3.892   4.688 -0.1434  1.1439 -0.6574
22215SOL     OW76958   4.825   4.459   5.496 -0.4261 -0.6031 -0.3475
22215SOL    HW176959   4.831   4.535   5.554  1.6701 -0.2828 -0.9208
22215SOL    HW276960   4.739   4.421   5.516  0.2615 -0.6528  3.0972
22216SOL     OW76961   2.437   9.770   7.017 -0.2489  0.0012 -0.0792
22216SOL    HW176962   2.391   9.689   6.995  0.4000 -0.0716 -1.2664
22216SOL    HW276963   2.455   9.811   6.933 -1.5627  1.9750  0.5343
22217SOL     OW76964   9.606  11.110   0.176 -0.1443 -0.1598 -0.3495
22217SOL    HW176965   9.611  11.053   0.100  1.2420  0.5035 -0.7996
22217SOL    HW276966   9.653  11.063   0.245 -1.7562 -0.9478  0.2686
22218SOL     OW76967  10.402   7.391   6.391 -0.4186  0.0934 -0.0619
22218SOL    HW176968  10.338   7.388   6.319 -1.4024 -1.7288  0.8186
22218SOL    HW276969  10.372   7.463   6.446 -1.2279 -0.1880 -0.1177
22219SOL     OW76970   9.479   7.245  10.472 -0.4292 -0.1666 -0.3863
22219SOL    HW176971   9.425   7.177  10.431  0.7346 -1.9003  0.8183
22219SOL    HW276972   9.457   7.240  10.565 -1.1613  1.9643 -0.3711
22220SOL     OW76973   8.021  10.209   9.153  0.0352  0.1322 -0.4693
22220SOL    HW176974   7.949  10.174   9.101 -1.2838 -0.0525  1.3781
22220SOL    HW276975   8.058  10.279   9.099 -2.4580  1.2117 -0.9321
22221SOL     OW76976   4.445   5.894   2.178 -0.2853  0.4588  0.0018
22221SOL    HW176977   4.456   5.800   2.191 -2.2023  0.0980 -0.7134
22221SOL    HW276978   4.534   5.929   2.176  0.4343 -1.1714  1.3222
22222SOL     OW76979   2.635   9.105   2.801 -0.0396  0.2727  0.1382
22222SOL    HW176980   2.728   9.131   2.800  0.3545 -1.0668 -0.3480
22222SOL    HW276981   2.635   9.017   2.765 -1.6229  0.5864 -0.6952
22223SOL     OW76982   0.769   3.175   8.466  0.1249 -0.0253  0.1805
22223SOL    HW176983   0.742   3.235   8.535 -3.1941  0.6903 -1.5214
22223SOL    HW276984   0.688   3.152   8.421  1.6784 -3.2349 -1.3360
22224SOL     OW76985   0.927  11.489   2.063  0.3060 -0.2569 -0.0223
22224SOL    HW176986   0.994  11.474   1.996  1.2559 -0.1296  0.8746
22224SOL    HW276987   0.911  11.583   2.059 -0.4912 -0.4099 -0.8383
22225SOL     OW76988   2.036   3.129  11.759 -0.3348  0.7244 -0.0092
22225SOL    HW176989   2.095   3.193  11.798 -0.2594  0.9798 -0.5240
22225SOL    HW276990   2.092   3.077  11.701 -0.3747  0.1139  0.4916
22226SOL     OW76991   4.576   1.373  12.198  0.3368  0.1572  0.4204
22226SOL    HW176992   4.530   1.353  12.280  1.0558  0.6804  0.9591
22226SOL    HW276993   4.528   1.447  12.161 -0.7836 -0.8762 -0.3133
22227SOL     OW76994  12.422  11.834  12.712  0.4841  0.3987  0.2300
22227SOL    HW176995  12.353  11.802  12.653 -0.3097  0.3350  1.1626
22227SOL    HW276996  12.409  11.784  12.792 -0.0913  2.2407  1.3543
22228SOL     OW76997   2.842  12.887   2.515  0.1145 -0.0118 -0.1701
22228SOL    HW176998   2.754  12.910   2.546  0.6143  0.4699  0.9416
22228SOL    HW276999   2.834  12.887   2.420 -0.9877  0.4525 -0.0962
22229SOL     OW77000   2.918   8.657   6.819  0.1191 -0.7081  0.4344
22229SOL    HW177001   2.859   8.674   6.893  0.6439 -0.7469  0.8633
22229SOL    HW277002   2.997   8.620   6.858  1.5666  1.8802  0.2195
22230SOL     OW77003   4.161   3.378   2.246 -0.2242 -0.6072 -0.2796
22230SOL    HW177004   4.212   3.455   2.224 -0.8214 -0.3208 -0.6776
22230SOL    HW277005   4.090   3.410   2.301  0.6456 -1.1656  1.2460
22231SOL     OW77006   2.713   3.735  10.254  0.4110 -0.2470 -0.1932
22231SOL    HW177007   2.620   3.720  10.268  0.3069  1.5863  1.6399
22231SOL    HW277008   2.716   3.803  10.186  0.4539 -0.6235 -0.5747
22232SOL     OW77009  12.731   4.812  12.441  0.6342  0.3571 -0.6489
22232SOL    HW177010  12.698   4.734  12.486 -1.2772  0.7609 -1.2742
22232SOL    HW277011  12.782   4.859  12.507 -2.0355  0.9067  1.1311
22233SOL     OW77012   6.934   2.611  11.285 -0.3423 -0.0725  0.0366
22233SOL    HW177013   6.878   2.682  11.315  0.0243  0.7650 -1.1414
22233SOL    HW277014   7.023   2.645  11.296  0.0092 -1.4864  2.1442
22234SOL     OW77015   3.840   9.127   1.263 -0.0472 -0.4824  0.0400
22234SOL    HW177016   3.930   9.120   1.232  0.1051 -0.6857  0.5084
22234SOL    HW277017   3.792   9.061   1.213 -0.0203 -0.1060 -0.4905
22235SOL     OW77018   8.212   3.126   2.553 -0.0374  0.4820  0.4306
22235SOL    HW177019   8.306   3.114   2.558  0.1453  2.0863  1.5280
22235SOL    HW277020   8.179   3.099   2.638 -0.5286  0.2280  0.1625
22236SOL     OW77021  10.802   3.100   9.317  0.3536 -1.1293 -0.5731
22236SOL    HW177022  10.869   3.151   9.271  0.7367 -0.4086  0.7179
22236SOL    HW277023  10.747   3.064   9.248  0.2534  0.8047 -1.5830
22237SOL     OW77024   8.158   8.443  12.752  0.2374 -0.3336  0.2385
22237SOL    HW177025   8.223   8.427  12.820  1.4242 -0.2181 -0.8263
22237SOL    HW277026   8.102   8.512  12.788  0.6638 -0.4781  1.2012
22238SOL     OW77027   2.499  10.078   3.980  0.2142  0.4428 -0.2074
22238SOL    HW177028   2.485  10.129   3.901  0.6518 -1.4815 -1.5973
22238SOL    HW277029   2.454   9.995   3.963 -0.2844  0.2398  1.8603
22239SOL     OW77030  11.348   9.108   9.390  0.1398 -0.6732 -0.0742
22239SOL    HW177031  11.440   9.082   9.385 -0.2658 -2.0766 -0.9685
22239SOL    HW277032  11.313   9.056   9.463  0.3824  1.0493  1.3287
22240SOL     OW77033   9.461   8.701   9.101 -0.3300  0.2757 -0.1467
22240SOL    HW177034   9.523   8.758   9.148  0.1048  0.3835 -0.8393
22240SOL    HW277035   9.512   8.663   9.030 -1.2612  1.0354 -1.2664
22241SOL     OW77036   7.623   6.866   4.637 -0.4593 -0.0008  0.3127
22241SOL    HW177037   7.685   6.918   4.690 -0.4529  0.6089 -0.2838
22241SOL    HW277038   7.544   6.919   4.634 -1.2382 -1.0245  1.5332
22242SOL     OW77039  11.419  12.003   6.838  0.1107 -0.3004 -0.1979
22242SOL    HW177040  11.429  11.918   6.881  1.4616  0.7912  1.8090
22242SOL    HW277041  11.423  12.066   6.910 -1.0174  1.4804 -1.6160
22243SOL     OW77042   9.649   3.723   1.272 -0.1630 -0.1001  0.4276
22243SOL    HW177043   9.624   3.806   1.231  0.8329 -1.2180 -2.6797
22243SOL    HW277044   9.721   3.746   1.330  0.1920  1.2167 -0.4860
22244SOL     OW77045  10.404   0.932   1.611 -0.1625 -0.2832  0.0977
22244SOL    HW177046  10.386   0.893   1.525 -1.4908  1.5913 -0.5246
22244SOL    HW277047  10.492   0.900   1.633 -1.2168 -3.8744 -0.1606
22245SOL     OW77048   3.089  10.347   3.976  0.0189  0.1978 -0.4287
22245SOL    HW177049   3.098  10.256   3.947  1.3705  0.7467 -1.8484
22245SOL    HW277050   3.002  10.351   4.016 -0.7474 -1.3174 -1.8387
22246SOL     OW77051   8.850   1.027  11.412  0.6147 -0.0706 -0.0792
22246SOL    HW177052   8.776   0.980  11.450  1.2288 -0.9730  0.0234
22246SOL    HW277053   8.817   1.115  11.397 -0.1688 -0.1771  0.9279
22247SOL     OW77054   8.257  11.253   2.580 -0.4557  0.2647 -0.0972
22247SOL    HW177055   8.193  11.200   2.627 -1.1101  0.5626 -0.6286
22247SOL    HW277056   8.311  11.189   2.534 -0.4814  0.0144  0.2157
22248SOL     OW77057   3.421  11.049   0.004  0.5194  0.5755 -0.1435
22248SOL    HW177058   3.380  10.966   0.029  0.3624  0.6090 -0.2850
22248SOL    HW277059   3.403  11.107   0.078  1.1521  0.3115  0.2233
22249SOL     OW77060  12.649   7.481   9.286  0.0285 -0.1739  0.3884
22249SOL    HW177061  12.591   7.506   9.214  0.1115  1.2811  0.8036
22249SOL    HW277062  12.595   7.426   9.343 -0.0359 -1.3557 -0.7657
22250SOL     OW77063   0.857  10.508   2.994  0.0030 -0.0564 -0.5284
22250SOL    HW177064   0.886  10.593   2.959 -1.1463  0.4209 -0.3583
22250SOL    HW277065   0.844  10.453   2.916  0.5516 -0.0207 -0.6499
22251SOL     OW77066   5.724   5.690   8.123 -0.3145 -0.1189  0.1436
22251SOL    HW177067   5.672   5.627   8.173  0.1669 -1.4971 -1.0314
22251SOL    HW277068   5.668   5.768   8.117 -0.3373  0.1724  2.8824
22252SOL     OW77069  11.153   2.675  12.325  0.3063  0.1741 -0.0821
22252SOL    HW177070  11.093   2.638  12.390  0.9795  0.0254  0.4723
22252SOL    HW277071  11.172   2.763  12.358  3.1562 -0.9681  1.7383
22253SOL     OW77072   9.583   2.928  12.775  0.1790  0.0541  0.3813
22253SOL    HW177073   9.584   2.904  12.683 -1.2533 -0.3988  0.4637
22253SOL    HW277074   9.674   2.947  12.796  1.1278 -3.2803 -0.2239
22254SOL     OW77075   7.451   7.110   8.336  0.2972 -0.4265  0.3897
22254SOL    HW177076   7.356   7.109   8.345  0.1217  0.4217 -1.0301
22254SOL    HW277077   7.470   7.046   8.268  0.4661  1.1667 -1.1410
22255SOL     OW77078   6.199   6.931   3.422 -0.1269  0.1355  0.0503
22255SOL    HW177079   6.199   6.862   3.356 -0.1075 -0.4551  0.6656
22255SOL    HW277080   6.251   7.001   3.382  0.0675 -0.3002 -0.4759
22256SOL     OW77081   6.459   6.136   4.787 -0.3120 -0.6324  0.4045
22256SOL    HW177082   6.410   6.061   4.753  0.5127 -1.1407  0.2910
22256SOL    HW277083   6.534   6.144   4.728 -0.6003  0.5503  0.1708
22257SOL     OW77084   6.987   0.586   9.928 -0.0628  0.4600  0.4317
22257SOL    HW177085   6.950   0.541   9.852 -1.1263  1.0941  0.5624
22257SOL    HW277086   6.952   0.675   9.922  0.7714  0.8319  1.0359
22258SOL     OW77087   1.632   2.434   2.790  0.3337 -0.5318  0.0887
22258SOL    HW177088   1.678   2.492   2.850  0.8919  0.0339 -0.8542
22258SOL    HW277089   1.654   2.346   2.820 -0.1811 -0.2806  1.2807
22259SOL     OW77090   5.783  12.304   7.877  0.7556 -0.4161 -0.4751
22259SOL    HW177091   5.734  12.294   7.795 -1.6708 -1.8509  1.0119
22259SOL    HW277092   5.861  12.354   7.853 -0.6133  0.5510 -3.3504
22260SOL     OW77093   2.559  10.655   8.272 -0.5053  0.3953  0.9586
22260SOL    HW177094   2.625  10.714   8.235  0.0499  0.6906  2.3375
22260SOL    HW277095   2.515  10.707   8.339 -1.7846  0.0217  0.4331
22261SOL     OW77096   4.195   2.795  11.593 -0.0754 -0.2431  0.0353
22261SOL    HW177097   4.100   2.799  11.597 -0.0650  1.4942 -0.5415
22261SOL    HW277098   4.214   2.743  11.515 -0.5966  0.9924 -0.9450
22262SOL     OW77099   0.251   5.015   6.145 -0.0410  0.1603 -0.0576
22262SOL    HW177100   0.222   4.926   6.166  0.3052  0.1248  0.2898
22262SOL    HW277101   0.238   5.023   6.051 -1.0131  0.0879  0.0592
22263SOL     OW77102   4.773   2.239  11.279  0.0288 -0.5793  0.7293
22263SOL    HW177103   4.865   2.263  11.267  0.2602 -2.0757 -1.0019
22263SOL    HW277104   4.744   2.211  11.192 -1.0193 -3.5041  1.8829
22264SOL     OW77105  10.640   9.743  11.973 -0.2634 -0.2559 -0.0650
22264SOL    HW177106  10.705   9.805  11.939  1.8480 -2.0540  0.4585
22264SOL    HW277107  10.560   9.795  11.982  0.5528  1.6181 -2.5142
22265SOL     OW77108   3.406   6.601   6.532  0.1314  0.2286 -0.5903
22265SOL    HW177109   3.396   6.695   6.521 -0.9005  0.2463  0.3493
22265SOL    HW277110   3.500   6.589   6.549  0.4724  0.9459 -1.8306
22266SOL     OW77111   1.967   6.846   4.700 -0.2837 -0.5837  0.3123
22266SOL    HW177112   1.994   6.852   4.608 -0.6455 -1.5071  0.1360
22266SOL    HW277113   1.871   6.846   4.696 -0.3068 -1.9460  0.5854
22267SOL     OW77114   2.274  10.749   5.380  0.1391  0.2183  0.2431
22267SOL    HW177115   2.316  10.823   5.423 -1.7617  0.7814  1.2647
22267SOL    HW277116   2.346  10.699   5.340  1.6610  1.3960  1.4171
22268SOL     OW77117  11.038   9.604   9.222 -0.2298  0.2025 -0.4855
22268SOL    HW177118  11.052   9.559   9.305 -1.2465 -0.5679 -0.7200
22268SOL    HW277119  11.126   9.632   9.195  0.0095  1.3317  1.3127
22269SOL     OW77120   2.615   3.213  12.590  0.1078 -0.6202  0.2176
22269SOL    HW177121   2.604   3.140  12.651  0.0224 -0.7894  0.0052
22269SOL    HW277122   2.589   3.290  12.640 -3.9756 -1.1326 -0.7065
22270SOL     OW77123   6.657   0.818   5.650 -0.3916  0.5576 -0.2820
22270SOL    HW177124   6.672   0.846   5.560 -0.9016 -0.5472 -0.7282
22270SOL    HW277125   6.628   0.897   5.695 -1.3147  0.8731 -1.3826
22271SOL     OW77126   9.533   7.762  11.233  0.3238 -0.0617  0.4154
22271SOL    HW177127   9.445   7.749  11.267  0.2526  0.5469  0.4719
22271SOL    HW277128   9.521   7.783  11.141  0.4007  0.1725  0.4582
22272SOL     OW77129   7.849   1.406   6.812 -0.0793  0.0193  0.2377
22272SOL    HW177130   7.806   1.429   6.730 -0.4073  0.3488  0.5040
22272SOL    HW277131   7.941   1.427   6.797 -0.0059 -0.6293 -0.3093
22273SOL     OW77132   8.579   9.232   3.936 -0.1188  0.3301 -0.5498
22273SOL    HW177133   8.594   9.244   3.842  1.2517 -1.0920 -0.5436
22273SOL    HW277134   8.667   9.221   3.973 -0.7409 -1.0084  0.6126
22274SOL     OW77135   2.167   6.658   6.651 -0.2515  0.4179 -0.0643
22274SOL    HW177136   2.223   6.667   6.574  0.0379  1.3538  0.2529
22274SOL    HW277137   2.228   6.649   6.724 -0.5232  0.8133  0.2096
22275SOL     OW77138  12.966   9.312   5.601  0.3155 -0.2808 -0.6204
22275SOL    HW177139  13.041   9.253   5.606  0.9058  0.5168  0.3546
22275SOL    HW277140  12.988   9.374   5.531  1.2208  0.7709  0.5374
22276SOL     OW77141   8.141   1.587  12.170 -0.2457 -0.2688 -0.5514
22276SOL    HW177142   8.061   1.539  12.193 -1.0624  0.9220 -0.8024
22276SOL    HW277143   8.209   1.521  12.167 -0.7140 -0.9870  2.1322
22277SOL     OW77144   2.509   5.691  11.770 -0.3953  0.6707 -0.2134
22277SOL    HW177145   2.568   5.759  11.736  0.8223  0.0471  0.5911
22277SOL    HW277146   2.554   5.655  11.846 -1.9797  0.3779  0.6338
22278SOL     OW77147   6.580  11.773  10.192 -0.1422  0.3126  0.3003
22278SOL    HW177148   6.565  11.724  10.273 -1.0294  0.5647  0.3013
22278SOL    HW277149   6.629  11.851  10.220  0.4878 -0.1187  0.4273
22279SOL     OW77150   4.941   0.871   5.675  0.1938  0.0092  0.2518
22279SOL    HW177151   5.030   0.852   5.645 -0.5415 -0.9793 -1.4220
22279SOL    HW277152   4.940   0.966   5.688  1.4566  0.0437  0.2191
22280SOL     OW77153  11.694  10.421   5.757  0.2505  0.3615 -0.0188
22280SOL    HW177154  11.688  10.471   5.676 -0.1980 -1.3823 -1.1239
22280SOL    HW277155  11.786  10.426   5.782  0.5755  0.1789 -1.1403
22281SOL     OW77156   1.671  12.087  10.538 -0.2258  0.3386 -0.4402
22281SOL    HW177157   1.725  12.104  10.616 -0.9272  0.8764 -0.0534
22281SOL    HW277158   1.692  11.997  10.513  1.8274  0.9513 -1.0977
22282SOL     OW77159   8.478   8.799   4.954  0.1074  0.6519 -0.6924
22282SOL    HW177160   8.541   8.848   4.901  0.2824  1.3972  0.1786
22282SOL    HW277161   8.505   8.708   4.946 -0.7629  0.5306 -3.1028
22283SOL     OW77162   0.135   5.606   0.112 -0.2253  0.0123 -0.3125
22283SOL    HW177163   0.078   5.545   0.065 -0.7102  0.3396 -0.1484
22283SOL    HW277164   0.098   5.612   0.200 -1.5215  2.2435 -0.9384
22284SOL     OW77165   9.707   0.052  11.405 -0.1711 -0.0591 -0.4293
22284SOL    HW177166   9.624   0.004  11.408  0.6008 -1.6336 -2.2201
22284SOL    HW277167   9.748   0.024  11.324  2.2423  0.5005  0.5152
22285SOL     OW77168  11.333  11.971   2.076  0.2539  0.0393 -0.0715
22285SOL    HW177169  11.316  12.019   2.157 -1.7741 -0.0252 -0.4103
22285SOL    HW277170  11.336  11.879   2.103  0.8452  0.1098  0.1081
22286SOL     OW77171  11.064   4.343   7.282 -0.1174 -0.3758 -0.1754
22286SOL    HW177172  10.973   4.341   7.312  0.1943 -3.5074  0.9728
22286SOL    HW277173  11.093   4.432   7.300 -2.5351  0.3073  0.7525
22287SOL     OW77174   7.152   3.704   3.559 -0.0186  0.5770 -0.4668
22287SOL    HW177175   7.178   3.778   3.614 -1.4064  2.7775 -2.5515
22287SOL    HW277176   7.232   3.680   3.513  0.1825  1.7069 -0.7530
22288SOL     OW77177  12.974  12.721   0.579 -0.2698 -0.2759  0.3572
22288SOL    HW177178  12.968  12.716   0.675  0.1580 -0.2446  0.3900
22288SOL    HW277179  13.047  12.781   0.563  2.8349 -3.7333  0.1043
22289SOL     OW77180   4.933  10.083   2.187 -0.1127  0.3030  0.3777
22289SOL    HW177181   4.941   9.996   2.149 -1.8627  1.4021 -3.0394
22289SOL    HW277182   4.838  10.097   2.194  0.1404  1.2756  2.6678
22290SOL     OW77183   6.066   3.331   1.028 -0.0100 -0.2393 -0.4226
22290SOL    HW177184   5.978   3.365   1.046  0.3900  0.4337  0.3807
22290SOL    HW277185   6.079   3.346   0.934 -0.5862  0.0527 -0.4613
22291SOL     OW77186   0.164   5.026   5.449  0.3711  0.2491 -0.4099
22291SOL    HW177187   0.252   5.032   5.412  1.3997 -2.8922  1.1672
22291SOL    HW277188   0.123   4.953   5.401 -0.9549  0.8893 -0.3018
22292SOL     OW77189  12.826   9.801   7.449 -0.1080  0.0754  0.5130
22292SOL    HW177190  12.770   9.762   7.381  0.5096 -1.6699  0.9334
22292SOL    HW277191  12.896   9.737   7.461  0.6919  1.1210  1.6555
22293SOL     OW77192   8.241   6.064   5.774 -0.4912  0.1199  0.1252
22293SOL    HW177193   8.187   6.143   5.779 -1.0892 -0.2154 -0.7992
22293SOL    HW277194   8.199   6.003   5.834  0.9344  1.0043  2.1727
22294SOL     OW77195   1.739  10.114   6.316 -0.0602  0.0381 -0.0741
22294SOL    HW177196   1.817  10.072   6.352 -0.7678 -0.1516  1.2661
22294SOL    HW277197   1.689  10.042   6.277  0.5219  0.1948 -1.1796
22295SOL     OW77198  12.308   6.897   9.650 -0.5322 -0.1295 -0.1952
22295SOL    HW177199  12.271   6.825   9.599 -0.2144  1.0081 -2.1422
22295SOL    HW277200  12.319   6.862   9.738 -0.5335 -2.3913 -1.0461
22296SOL     OW77201   2.957   5.981   8.924  0.2736  0.1065  0.3102
22296SOL    HW177202   2.952   5.933   8.841  0.7755 -0.9014  0.8543
22296SOL    HW277203   3.035   5.948   8.967  0.5395  1.2978  0.7873
22297SOL     OW77204   0.538  11.527   2.711  0.0349  0.0762 -0.2230
22297SOL    HW177205   0.503  11.534   2.622  1.8028 -2.3976 -1.2140
22297SOL    HW277206   0.476  11.470   2.757 -0.4069  0.6398 -0.1037
22298SOL     OW77207   7.697  10.913   0.311 -0.3461 -0.3923 -0.1960
22298SOL    HW177208   7.753  10.873   0.378 -1.2721 -1.2706  0.0903
22298SOL    HW277209   7.699  11.007   0.329 -1.3172 -0.6922  1.6755
22299SOL     OW77210  11.823  11.894   2.478 -0.4048  0.1431 -0.1335
22299SOL    HW177211  11.843  11.875   2.386  0.0200  0.0683 -0.0296
22299SOL    HW277212  11.779  11.815   2.510 -0.2056  0.0142 -0.1710
22300SOL     OW77213   0.341   5.110   1.425  0.4181  1.1083 -0.0566
22300SOL    HW177214   0.313   5.026   1.388  0.9693 -0.1056  2.0990
22300SOL    HW277215   0.421   5.132   1.378  0.0675  0.6374 -0.9018
22301SOL     OW77216   5.070   7.045   6.881 -0.3747 -0.2904  0.1903
22301SOL    HW177217   5.088   6.976   6.945  0.4142 -0.3265 -0.0565
22301SOL    HW277218   5.149   7.048   6.827 -1.5090 -1.1558 -1.5995
22302SOL     OW77219   2.478   0.231   5.927  0.7271 -1.1003  0.3900
22302SOL    HW177220   2.565   0.238   5.968 -0.3814 -1.3448  3.0213
22302SOL    HW277221   2.437   0.316   5.946  0.3459 -1.0242 -0.7426
22303SOL     OW77222   6.436   2.113   7.022 -0.3802  0.0162  0.4694
22303SOL    HW177223   6.439   2.041   7.085  0.9279  1.0673  1.6894
22303SOL    HW277224   6.394   2.185   7.069 -0.1066  0.5716 -0.1107
22304SOL     OW77225  11.382  10.456  12.084  0.3874  1.1855  0.0543
22304SOL    HW177226  11.387  10.506  12.002  0.1151 -0.1236 -0.7952
22304SOL    HW277227  11.452  10.493  12.139  0.2344  2.4383 -0.5535
22305SOL     OW77228  10.377   7.486   1.099 -0.0857 -0.1794  0.1592
22305SOL    HW177229  10.460   7.455   1.135  0.5032  0.1365 -0.8717
22305SOL    HW277230  10.401   7.562   1.046 -1.1937  0.6268  0.7645
22306SOL     OW77231   6.447  12.976  10.611 -0.3414  0.6458 -1.0920
22306SOL    HW177232   6.477  13.036  10.542 -1.3776  2.2000 -0.2279
22306SOL    HW277233   6.505  12.995  10.685 -2.2472  2.4838  0.0322
22307SOL     OW77234   5.512   8.220  12.220  0.5393  0.5638 -0.1679
22307SOL    HW177235   5.425   8.259  12.226 -0.4274 -0.9232 -2.9161
22307SOL    HW277236   5.548   8.253  12.138  0.8583 -1.8830 -1.1002
22308SOL     OW77237   8.663  11.699   8.045  0.0306 -0.0672 -0.1847
22308SOL    HW177238   8.665  11.764   7.974 -1.2878 -0.4218 -0.5815
22308SOL    HW277239   8.617  11.624   8.007 -0.2923 -0.4378  0.9056
22309SOL     OW77240   6.868  10.159   3.686  0.3456  0.0803  0.8977
22309SOL    HW177241   6.929  10.110   3.741 -0.5417  0.1531  1.9784
22309SOL    HW277242   6.805  10.093   3.657 -0.2396  0.3644  1.4879
22310SOL     OW77243   6.536  10.742   1.505 -0.0240 -0.6113  0.3662
22310SOL    HW177244   6.500  10.792   1.432 -0.3187 -1.7218 -0.2759
22310SOL    HW277245   6.535  10.651   1.475  1.5478 -0.8981  1.0652
22311SOL     OW77246  12.212   5.408   9.944  0.0725 -0.5029  0.2807
22311SOL    HW177247  12.276   5.379   9.879  0.9535  0.1753  0.8255
22311SOL    HW277248  12.135   5.431   9.892  1.4593  2.0431 -0.8400
22312SOL     OW77249  11.704   9.475  10.854  0.4124  0.5028  0.2108
22312SOL    HW177250  11.619   9.506  10.823 -0.1197 -2.0421 -1.1679
22312SOL    HW277251  11.767   9.523  10.801 -0.1425  1.7952  0.6550
22313SOL     OW77252   7.966  10.208  11.363 -0.5490  0.1752  0.2797
22313SOL    HW177253   8.004  10.293  11.339  2.5745 -1.4236 -0.9855
22313SOL    HW277254   7.897  10.193  11.299 -1.8681  2.1317  1.1446
22314SOL     OW77255   1.592   9.323  10.047  0.2469 -0.5046 -0.0986
22314SOL    HW177256   1.536   9.374  10.105  0.9893 -0.5458  0.6787
22314SOL    HW277257   1.680   9.355  10.065  0.5684 -1.0643 -0.6444
22315SOL     OW77258  11.579  12.772   4.018 -0.0624  0.0620  0.0782
22315SOL    HW177259  11.486  12.763   3.996 -0.1501  2.1922 -0.6874
22315SOL    HW277260  11.624  12.770   3.934  0.8686 -2.8115  0.5350
22316SOL     OW77261   5.611   6.138   3.717 -0.5103  0.1296 -0.0552
22316SOL    HW177262   5.684   6.076   3.713  0.3875  1.1691  0.0659
22316SOL    HW277263   5.534   6.082   3.729  0.3879 -0.9122  1.0809
22317SOL     OW77264  10.406   6.436   2.952 -0.4052 -0.5060  0.3955
22317SOL    HW177265  10.317   6.470   2.943 -1.4711 -3.5972 -2.7126
22317SOL    HW277266  10.444   6.444   2.864  1.0381 -2.5730  0.7603
22318SOL     OW77267   5.723   8.136  10.662  0.3842 -0.6063 -0.8279
22318SOL    HW177268   5.692   8.112  10.575 -0.8309  0.9132 -0.8496
22318SOL    HW277269   5.808   8.177  10.646  2.0339 -3.7355 -0.8729
22319SOL     OW77270   0.136   0.229   3.737  0.0610 -0.8834  0.2005
22319SOL    HW177271   0.188   0.277   3.802 -1.1935 -1.3921  1.6423
22319SOL    HW277272   0.190   0.153   3.715  1.2709  0.2089 -0.7210
22320SOL     OW77273   7.967  11.819  12.239  0.7437 -0.5592  0.1966
22320SOL    HW177274   8.042  11.831  12.180 -0.9059  0.0471 -1.8853
22320SOL    HW277275   7.935  11.731  12.218 -1.2894  0.5399 -1.6586
22321SOL     OW77276   7.795   4.281   2.227  0.3653 -0.3068  0.3969
22321SOL    HW177277   7.823   4.204   2.277  0.4621  0.1909  1.1311
22321SOL    HW277278   7.707   4.301   2.260  0.3232 -0.1292  0.1797
22322SOL     OW77279   5.321   8.841   1.070 -0.1954 -0.1375 -0.5362
22322SOL    HW177280   5.227   8.859   1.066 -0.3351 -0.4272  0.7790
22322SOL    HW277281   5.345   8.817   0.981 -1.0272  1.5035 -1.2418
22323SOL     OW77282   3.774   2.796   8.088  0.2456 -0.5297  0.2522
22323SOL    HW177283   3.868   2.789   8.070  0.8168  0.5562  2.4691
22323SOL    HW277284   3.739   2.843   8.012  1.2677 -1.8258 -1.0882
22324SOL     OW77285  10.785   2.449  10.824  0.5994  0.2267 -0.7021
22324SOL    HW177286  10.873   2.455  10.862  0.4816 -0.5728 -0.2776
22324SOL    HW277287  10.765   2.355  10.825 -1.0595  0.5274  1.1187
22325SOL     OW77288   0.883   5.435  11.638 -0.4450  0.4064 -0.0641
22325SOL    HW177289   0.892   5.458  11.545  0.4800  1.2753  0.2247
22325SOL    HW277290   0.865   5.341  11.637  0.1138  0.2868 -1.1123
22326SOL     OW77291   8.813   0.737   7.504  0.1332 -0.4358  0.0054
22326SOL    HW177292   8.765   0.688   7.438 -2.0783  2.1377 -0.4640
22326SOL    HW277293   8.747   0.757   7.571  1.1057  1.1831  0.5347
22327SOL     OW77294   8.455  11.357   9.814  0.7077 -0.0707 -0.1173
22327SOL    HW177295   8.436  11.305   9.736 -1.9933  1.2451 -0.4622
22327SOL    HW277296   8.504  11.298   9.871 -0.6662 -2.3974 -1.2081
22328SOL     OW77297   0.002  11.553   7.890 -0.2206  0.0904 -0.0541
22328SOL    HW177298   0.094  11.529   7.878  0.3896  1.8676  0.7642
22328SOL    HW277299  -0.022  11.597   7.809 -0.9096 -1.8153 -0.9585
22329SOL     OW77300   9.137   9.364   5.650 -0.0269 -0.1586 -0.4979
22329SOL    HW177301   9.179   9.334   5.570 -0.7619 -0.2325 -0.8642
22329SOL    HW277302   9.206   9.411   5.698  0.2333  0.5109 -1.5045
22330SOL     OW77303   8.915  12.968   7.527  0.1115 -0.3869 -0.1724
22330SOL    HW177304   8.981  13.036   7.523  0.7628 -0.8939  1.2877
22330SOL    HW277305   8.837  13.008   7.489  0.3821  1.2865  0.9303
22331SOL     OW77306   1.870   5.591   4.526  0.0065 -0.1304  0.4039
22331SOL    HW177307   1.811   5.520   4.503 -0.2123  0.5954 -1.3911
22331SOL    HW277308   1.835   5.668   4.482  0.3694  1.0839  2.1070
22332SOL     OW77309   5.956  11.853  11.067  0.5633  0.2597  0.0887
22332SOL    HW177310   5.875  11.872  11.020 -0.1306  0.8334  1.4622
22332SOL    HW277311   5.927  11.812  11.148  1.5817  1.4229  1.0661
22333SOL     OW77312  12.766   6.095   3.637 -0.0760 -0.0962  0.2629
22333SOL    HW177313  12.713   6.069   3.562 -1.0484 -0.8781  1.1756
22333SOL    HW277314  12.830   6.024   3.647 -0.0450 -0.0681  0.2650
22334SOL     OW77315   9.008  11.910   3.674  0.3602  0.4022  0.6444
22334SOL    HW177316   8.967  11.992   3.645  1.2398  1.2098  1.6147
22334SOL    HW277317   9.085  11.901   3.619 -0.8471 -0.9144 -0.9134
22335SOL     OW77318   3.974  10.480   9.987 -0.3135  0.2046  0.1407
22335SOL    HW177319   3.954  10.390  10.010 -0.2486 -0.3922 -1.9470
22335SOL    HW277320   3.933  10.493   9.901 -3.3736  3.2835  1.7860
22336SOL     OW77321   7.604   0.234   9.639 -0.1041 -0.4254  0.1538
22336SOL    HW177322   7.686   0.218   9.591 -0.2394  2.3686 -1.2351
22336SOL    HW277323   7.540   0.176   9.597  0.8534 -1.6590  0.3541
22337SOL     OW77324   5.110   0.790   3.530  0.5409  0.1504  0.3873
22337SOL    HW177325   5.181   0.854   3.531  1.7328 -1.0946  1.9208
22337SOL    HW277326   5.147   0.714   3.486  1.2564 -1.5305  3.5826
22338SOL     OW77327   5.612   7.208   6.992 -0.3983  0.3206 -0.0688
22338SOL    HW177328   5.601   7.282   7.052  0.9675 -0.4074  1.1402
22338SOL    HW277329   5.602   7.247   6.905 -2.2004  1.4463  0.5766
22339SOL     OW77330   2.150   3.436   9.971  0.1473  0.1565  0.1203
22339SOL    HW177331   2.060   3.449  10.002 -0.1141 -0.9063 -0.1427
22339SOL    HW277332   2.194   3.390  10.042  0.1524 -0.3574 -0.2096
22340SOL     OW77333   8.958   6.837   7.237 -0.5546  0.0865 -0.4267
22340SOL    HW177334   8.903   6.811   7.163 -0.3431 -0.8435 -0.2613
22340SOL    HW277335   8.900   6.893   7.290 -1.3343 -0.8438 -0.2765
22341SOL     OW77336   0.308   8.524   1.759  0.4293  0.4749  0.5114
22341SOL    HW177337   0.370   8.467   1.804 -0.4699  0.8824  2.3396
22341SOL    HW277338   0.363   8.585   1.711  1.4153 -0.6391  0.1660
22342SOL     OW77339   3.292   7.374   8.138  0.2480  0.0670 -0.3696
22342SOL    HW177340   3.333   7.318   8.073  0.5357 -1.7108  1.2625
22342SOL    HW277341   3.308   7.330   8.221 -0.3976  2.0804  0.8880
22343SOL     OW77342   4.567   7.653   5.803  0.3697 -0.2346  0.0832
22343SOL    HW177343   4.513   7.584   5.841 -0.0462  0.3378  0.5363
22343SOL    HW277344   4.638   7.665   5.866  0.1936  0.0676  0.2220
22344SOL     OW77345   2.949   4.657   3.773 -0.4245 -0.7720 -0.0207
22344SOL    HW177346   2.964   4.604   3.852  1.5292 -2.2739 -1.2879
22344SOL    HW277347   2.989   4.742   3.793 -0.2069 -1.0395  0.7165
22345SOL     OW77348   2.409  11.994   2.119 -0.2380  0.2156 -0.5528
22345SOL    HW177349   2.322  11.987   2.080 -1.9935  2.2784  2.6128
22345SOL    HW277350   2.429  12.087   2.117  1.2553 -0.0716  0.1212
22346SOL     OW77351   3.705   8.188   8.412  0.1081  0.3285 -1.1869
22346SOL    HW177352   3.657   8.248   8.469  0.1757  0.4204 -1.2249
22346SOL    HW277353   3.639   8.126   8.381  0.4892 -1.2086  0.8682
22347SOL     OW77354  11.968   1.821   6.389 -0.2317  0.0075  0.0451
22347SOL    HW177355  12.034   1.754   6.368 -1.5703 -1.1317 -0.7083
22347SOL    HW277356  12.009   1.903   6.363  0.8059 -0.6992 -0.6531
22348SOL     OW77357   5.512   0.503   7.284 -0.1066  0.4672  0.0025
22348SOL    HW177358   5.607   0.513   7.278  0.0913 -0.5887  0.9008
22348SOL    HW277359   5.490   0.443   7.213 -0.0210  0.3220  0.0972
22349SOL     OW77360   3.031   5.824  12.703  0.1309  0.1162 -0.6081
22349SOL    HW177361   2.968   5.810  12.775  0.4096  2.0754  0.0742
22349SOL    HW277362   2.978   5.815  12.623 -0.6670  0.0858 -0.0885
22350SOL     OW77363   1.657   4.463  10.732 -0.1229 -0.1064 -0.2958
22350SOL    HW177364   1.666   4.383  10.784  1.8440 -0.0917 -0.5407
22350SOL    HW277365   1.729   4.519  10.762  0.0416  0.5632 -1.8516
22351SOL     OW77366   0.054  10.180   1.851 -0.0613 -0.3389 -0.1049
22351SOL    HW177367   0.116  10.147   1.916 -0.1594 -0.8372 -0.2648
22351SOL    HW277368  -0.029  10.139   1.874 -0.8250  1.7972  1.3014
22352SOL     OW77369   2.867   6.889  10.114 -0.2771  0.4319  0.0537
22352SOL    HW177370   2.896   6.810  10.069  0.6628 -0.0385  1.4114
22352SOL    HW277371   2.772   6.876  10.126 -0.1356 -0.4900  0.2697
22353SOL     OW77372   8.094  11.558   8.123 -0.0830 -0.1461 -0.1213
22353SOL    HW177373   8.188  11.541   8.117 -0.2441 -1.0906 -0.0941
22353SOL    HW277374   8.084  11.610   8.203  0.4250  0.0716 -0.1951
22354SOL     OW77375   4.890   4.442   7.663  0.3647 -0.4611 -0.0576
22354SOL    HW177376   4.816   4.445   7.603 -0.5109  1.9207  1.0099
22354SOL    HW277377   4.851   4.435   7.750  1.4273 -0.1583  0.4622
22355SOL     OW77378   2.945  12.974   6.600 -0.1166 -0.5790 -0.0005
22355SOL    HW177379   2.911  13.036   6.535 -1.2340 -0.4817  0.6588
22355SOL    HW277380   3.031  12.950   6.567 -0.5627 -0.3404 -1.3996
22356SOL     OW77381   5.921  11.539  10.140 -0.0444  0.3493  0.0870
22356SOL    HW177382   5.975  11.466  10.107 -0.8571  0.2903 -1.1920
22356SOL    HW277383   5.838  11.498  10.165 -0.6547  0.8648 -1.0247
22357SOL     OW77384   4.269   4.343   2.531  0.3683  0.2592 -0.4423
22357SOL    HW177385   4.188   4.295   2.549  0.9807 -0.1542  1.5118
22357SOL    HW277386   4.292   4.319   2.441  0.8711 -3.5800  0.5260
22358SOL     OW77387   5.366   0.044   3.695 -0.1869  0.0652 -0.1329
22358SOL    HW177388   5.419   0.110   3.740  1.3057 -1.5937  0.7061
22358SOL    HW277389   5.392   0.051   3.603  0.0486  0.5600 -0.0306
22359SOL     OW77390   8.436   4.227   1.077 -0.4191  0.3384 -0.7076
22359SOL    HW177391   8.456   4.142   1.118  5.2428  2.0787  0.9751
22359SOL    HW277392   8.374   4.268   1.137 -0.2782 -1.1211  0.5132
22360SOL     OW77393   1.860   6.811   3.720  0.7034  0.0324 -0.0422
22360SOL    HW177394   1.886   6.844   3.806  2.7403 -0.0229 -0.5826
22360SOL    HW277395   1.829   6.722   3.736  1.1739 -0.0133  0.6247
22361SOL     OW77396  10.246  10.438   8.072  0.1130 -0.1366 -0.4613
22361SOL    HW177397  10.298  10.371   8.115 -0.8815 -0.4752  0.2468
22361SOL    HW277398  10.170  10.391   8.038  0.8228  0.1260 -2.5688
22362SOL     OW77399   1.130   8.610   2.663 -0.1932  0.4532  0.4167
22362SOL    HW177400   1.113   8.549   2.591  0.4092  0.2059  0.4694
22362SOL    HW277401   1.105   8.696   2.629 -0.8673  0.2043  0.2725
22363SOL     OW77402  12.875   0.390   1.892  0.2043 -0.3289 -0.7451
22363SOL    HW177403  12.793   0.423   1.855 -0.8473 -0.1454  1.5594
22363SOL    HW277404  12.888   0.441   1.971  1.3043 -1.9427  0.1699
22364SOL     OW77405   6.107   9.231  11.913 -0.2667  0.2396  0.3680
22364SOL    HW177406   6.093   9.143  11.949 -0.9323 -0.1935 -0.8729
22364SOL    HW277407   6.043   9.286  11.957  0.5038  0.2332  1.5366
22365SOL     OW77408  10.966   8.174   6.872  0.0352  0.9407 -0.2833
22365SOL    HW177409  10.870   8.167   6.875  0.1551 -1.4218  0.7630
22365SOL    HW277410  10.983   8.236   6.801 -2.2643  2.7834  0.6263
22366SOL     OW77411   6.088   3.915   3.822  0.0146  0.0158 -0.6118
22366SOL    HW177412   6.137   3.976   3.877  0.3183  0.6134 -1.5170
22366SOL    HW277413   6.104   3.829   3.861 -2.1659  0.6273  2.0191
22367SOL     OW77414   4.245   2.570   8.560 -0.4279  0.2549 -0.2569
22367SOL    HW177415   4.242   2.598   8.469 -0.9962  1.1787  0.0305
22367SOL    HW277416   4.331   2.599   8.591 -0.3106  0.1081 -0.4425
22368SOL     OW77417   6.363   1.822   1.555  0.5245 -0.9663  0.5306
22368SOL    HW177418   6.376   1.765   1.630  1.7391 -1.5942 -0.1066
22368SOL    HW277419   6.269   1.831   1.546  0.3557 -0.1834  2.6124
22369SOL     OW77420   2.958   5.988   5.745  0.2040  0.1111  0.4762
22369SOL    HW177421   2.960   6.079   5.715  1.3562  0.0747  0.4077
22369SOL    HW277422   2.951   5.994   5.840  0.6890  0.2801  0.5019
22370SOL     OW77423   7.488   9.227   7.787 -0.1872  0.6902  0.0849
22370SOL    HW177424   7.406   9.275   7.797  0.0812  0.9853  1.0785
22370SOL    HW277425   7.489   9.199   7.696 -1.0100  1.3771 -0.1535
22371SOL     OW77426   9.500   4.170   2.855 -0.1749 -0.4959  0.1644
22371SOL    HW177427   9.487   4.263   2.868  0.9105 -0.3578  0.4050
22371SOL    HW277428   9.522   4.161   2.762 -2.7762 -0.8491 -0.4870
22372SOL     OW77429   8.653  12.683   4.325 -0.1805 -0.4724 -0.1723
22372SOL    HW177430   8.569  12.654   4.359 -0.0302  0.7056  1.3433
22372SOL    HW277431   8.715  12.615   4.351  0.1555  0.9642  3.2248
22373SOL     OW77432  12.469   7.361  12.056  0.0118  0.0375  0.7919
22373SOL    HW177433  12.561   7.340  12.075  0.4558  0.9041 -0.2487
22373SOL    HW277434  12.434   7.390  12.140 -0.0042 -2.5077  1.7440
22374SOL     OW77435   1.703   1.380   5.082  0.7019 -0.7699  0.7114
22374SOL    HW177436   1.645   1.357   5.154  2.3308 -0.4942  2.1825
22374SOL    HW277437   1.788   1.342   5.106  1.3228 -0.5804 -1.0199
22375SOL     OW77438   6.120  11.748  10.829  0.1975  0.1085 -0.2285
22375SOL    HW177439   6.077  11.785  10.906 -0.7733 -2.6574  0.6794
22375SOL    HW277440   6.126  11.821  10.767 -3.6839  1.2884  0.5073
22376SOL     OW77441   8.483  11.563  11.090 -0.1246 -0.0485 -0.3501
22376SOL    HW177442   8.452  11.488  11.039 -0.4675  0.5253 -1.0020
22376SOL    HW277443   8.426  11.566  11.166 -1.3947  0.6976 -1.2926
22377SOL     OW77444  10.077   7.943   9.101 -0.0260 -0.3319  0.2381
22377SOL    HW177445  10.094   7.871   9.162 -0.0268 -0.3551  0.2108
22377SOL    HW277446  10.154   8.000   9.109  0.6376 -1.0626 -0.7984
22378SOL     OW77447   9.986   7.543   9.350 -0.1293  0.0301  0.2092
22378SOL    HW177448   9.980   7.472   9.414 -0.8668 -0.7293 -0.6728
22378SOL    HW277449  10.067   7.525   9.302  0.7527  0.9374  1.2635
22379SOL     OW77450   5.454  10.091   5.915 -0.1303  0.1444  0.6520
22379SOL    HW177451   5.492  10.152   5.852  0.7027 -0.0498  0.9553
22379SOL    HW277452   5.368  10.127   5.935  0.5796  1.5563  1.2814
22380SOL     OW77453   9.021  10.994   4.723 -0.2313  0.5550 -0.2904
22380SOL    HW177454   9.115  10.980   4.728 -0.5089 -1.4455  0.2316
22380SOL    HW277455   8.999  11.040   4.804  0.4263  2.0156 -0.9237
22381SOL     OW77456   4.044  12.231   4.468  0.6166 -0.0884  0.1015
22381SOL    HW177457   3.951  12.209   4.467  0.7149 -0.6334  0.9925
22381SOL    HW277458   4.080  12.187   4.391  0.5344 -1.8553  1.0184
22382SOL     OW77459   3.276  10.538   6.697 -0.3478 -0.0849  0.2598
22382SOL    HW177460   3.223  10.474   6.649 -1.3143  0.4838  0.5467
22382SOL    HW277461   3.365  10.526   6.662 -0.7316 -0.7796 -0.5143
22383SOL     OW77462   1.542   2.560   7.994 -0.1437  0.3364 -0.1527
22383SOL    HW177463   1.520   2.518   7.911  1.8934  0.1338 -0.6438
22383SOL    HW277464   1.561   2.651   7.970  1.4103  0.0530 -0.1153
22384SOL     OW77465   6.585   3.435   8.659  0.0243 -0.1257 -0.3246
22384SOL    HW177466   6.675   3.429   8.626 -0.2096 -0.8462 -0.8551
22384SOL    HW277467   6.539   3.485   8.593  0.7114  3.1811  1.4641
22385SOL     OW77468   7.315   7.418   5.989 -0.1600 -0.6805 -0.5295
22385SOL    HW177469   7.318   7.513   5.997  1.3193 -0.7580  0.2935
22385SOL    HW277470   7.362   7.386   6.067 -0.5932 -2.0749 -0.8100
22386SOL     OW77471  10.754   4.340   2.842 -0.0997  0.0407  0.1851
22386SOL    HW177472  10.692   4.272   2.815  0.8042 -0.3982 -0.8361
22386SOL    HW277473  10.746   4.342   2.938 -0.9358 -0.7282  0.1509
22387SOL     OW77474  11.437   6.286  12.190 -0.0749 -0.0590 -0.5774
22387SOL    HW177475  11.348   6.295  12.224  0.2623  1.3019  0.0165
22387SOL    HW277476  11.428   6.296  12.095 -0.3280  2.5197 -0.3535
22388SOL     OW77477   7.756   0.258   0.713  1.2058 -0.0197  0.4926
22388SOL    HW177478   7.682   0.268   0.652  3.6792 -0.9909 -2.9501
22388SOL    HW277479   7.732   0.183   0.768 -0.4468 -0.1676 -0.3659
22389SOL     OW77480  12.120   2.749   2.887  0.7653  0.1392  0.5305
22389SOL    HW177481  12.162   2.664   2.900  1.6461  0.2000 -1.5495
22389SOL    HW277482  12.184   2.813   2.920  1.0402  0.0898  0.0962
22390SOL     OW77483   3.343   9.147   3.979 -0.0800  0.2497  0.4718
22390SOL    HW177484   3.405   9.206   4.023  0.3201 -0.1242  0.4119
22390SOL    HW277485   3.350   9.169   3.887 -0.9115  1.0260  0.5775
22391SOL     OW77486   9.220  12.889   0.547 -0.3372 -0.8774 -0.0066
22391SOL    HW177487   9.211  12.985   0.544 -1.9357 -0.6898  4.1149
22391SOL    HW277488   9.164  12.858   0.476 -0.6836  1.2120 -0.7203
22392SOL     OW77489   1.335   5.250   4.675  0.3038  0.0823  0.2175
22392SOL    HW177490   1.355   5.281   4.587  0.4391  0.2883  0.3191
22392SOL    HW277491   1.420   5.224   4.711  0.4920  1.5496  0.8772
22393SOL     OW77492   3.639   2.576   2.270  0.2703 -0.8197  0.3329
22393SOL    HW177493   3.704   2.625   2.321 -0.0940 -0.1731  0.1704
22393SOL    HW277494   3.625   2.628   2.191  0.8923 -1.8549 -0.4929
22394SOL     OW77495   0.538   2.603   9.874 -0.3334 -0.5826  0.3185
22394SOL    HW177496   0.534   2.567   9.963 -1.4021  0.8349  0.8922
22394SOL    HW277497   0.616   2.658   9.873  2.1744 -3.8213 -1.0154
22395SOL     OW77498   2.084   0.516   4.459 -0.2175  0.4365  0.1752
22395SOL    HW177499   1.997   0.516   4.500 -0.2114 -1.8298  0.3199
22395SOL    HW277500   2.112   0.425   4.463  3.3882  1.4507  2.6423
22396SOL     OW77501  12.401   0.940   3.694  0.1946  0.4471 -0.2474
22396SOL    HW177502  12.465   0.869   3.695 -1.0049 -0.6915 -1.0892
22396SOL    HW277503  12.326   0.906   3.741 -1.5799 -0.0751 -3.2090
22397SOL     OW77504   2.592   0.649   1.241 -0.1224 -0.3269 -0.1726
22397SOL    HW177505   2.621   0.667   1.151 -0.6708 -0.1646 -0.3252
22397SOL    HW277506   2.603   0.732   1.287  2.7682 -1.0647  0.6811
22398SOL     OW77507   0.859   5.065   2.044 -0.4784 -0.3949  0.1661
22398SOL    HW177508   0.844   5.041   1.953  0.3857  1.0999 -0.3912
22398SOL    HW277509   0.912   4.993   2.079  0.4934 -0.2539 -0.9533
22399SOL     OW77510  11.321  12.235   9.747  0.4173  0.2851  0.1034
22399SOL    HW177511  11.246  12.181   9.774 -0.3143  0.7638 -0.8796
22399SOL    HW277512  11.351  12.276   9.828 -0.2710 -0.0687  0.5508
22400SOL     OW77513  11.382   8.031  12.539 -0.1059  0.1622  0.1903
22400SOL    HW177514  11.303   8.085  12.533  0.2271  0.5455 -1.0770
22400SOL    HW277515  11.395   8.017  12.633 -2.0170 -0.4063  0.4156
22401SOL     OW77516  12.716   2.878   8.104  0.1415  1.4118  0.2551
22401SOL    HW177517  12.712   2.822   8.182  0.9696  0.9980  0.0179
22401SOL    HW277518  12.752   2.821   8.036 -2.8372  1.0352 -1.1268
22402SOL     OW77519  12.531  10.284   5.561  0.4943  0.0863  0.2091
22402SOL    HW177520  12.449  10.270   5.512  0.1817 -0.2248  0.8162
22402SOL    HW277521  12.550  10.377   5.547  0.8485 -0.1672 -1.1657
22403SOL     OW77522   7.633  10.438   4.357 -0.2123 -0.1092 -0.4041
22403SOL    HW177523   7.661  10.526   4.380  1.6149 -0.2232 -1.9563
22403SOL    HW277524   7.580  10.450   4.278 -1.3785 -0.2790  0.3267
22404SOL     OW77525   1.222   7.084   6.909  0.2717 -0.4922  0.2085
22404SOL    HW177526   1.154   7.044   6.963 -0.1932 -0.9602 -0.7182
22404SOL    HW277527   1.178   7.159   6.868  0.3014 -0.8035 -0.4011
22405SOL     OW77528   9.803   3.560   1.867  0.3426 -0.0971 -0.4323
22405SOL    HW177529   9.898   3.569   1.859  0.9745 -3.5133  1.2327
22405SOL    HW277530   9.790   3.530   1.957 -2.2072 -0.6836 -0.9267
22406SOL     OW77531   8.141   0.139   1.292 -0.1948 -0.2546 -0.3510
22406SOL    HW177532   8.189   0.220   1.309  1.6754 -1.9261  3.5450
22406SOL    HW277533   8.202   0.085   1.242 -0.2933 -0.3079 -0.4139
22407SOL     OW77534   7.731   1.639   0.700 -0.0134 -0.2692  0.1881
22407SOL    HW177535   7.775   1.561   0.668 -0.0349 -0.6943  1.1470
22407SOL    HW277536   7.751   1.707   0.636  0.5458 -0.9005 -0.3119
22408SOL     OW77537  12.907  12.603   2.831 -0.0070  0.0059  0.0769
22408SOL    HW177538  12.974  12.541   2.803  0.7598  1.2210 -0.8707
22408SOL    HW277539  12.953  12.686   2.840 -1.6533  1.2887 -2.2964
22409SOL     OW77540   7.967   5.393   4.882 -0.4884  0.2518 -0.0016
22409SOL    HW177541   7.883   5.437   4.890 -0.5884 -0.0850  0.8653
22409SOL    HW277542   7.957   5.313   4.934  0.5321  0.4517  0.5174
22410SOL     OW77543  12.076   0.319   6.864  0.9880  0.2088  0.2537
22410SOL    HW177544  11.997   0.345   6.912 -1.0194  0.5356 -2.9285
22410SOL    HW277545  12.096   0.394   6.808  2.0426 -0.7870 -0.7734
22411SOL     OW77546   1.241  12.726   6.659 -0.0504  0.2042 -0.0578
22411SOL    HW177547   1.330  12.725   6.694 -0.1983 -0.4709  0.3130
22411SOL    HW277548   1.187  12.690   6.730 -1.0263  3.0339  0.7824
22412SOL     OW77549   3.134  12.539   4.613 -0.3182 -0.5441  0.1682
22412SOL    HW177550   3.159  12.446   4.608  1.3505 -0.1390  0.4630
22412SOL    HW277551   3.132  12.568   4.522  0.3940 -0.5765  0.1350
22413SOL     OW77552   3.051   7.417  10.615  0.1991 -0.2477  0.6090
22413SOL    HW177553   3.055   7.480  10.686 -0.0038 -0.2354  0.6101
22413SOL    HW277554   3.090   7.463  10.540 -0.0942 -0.0654  0.5696
22414SOL     OW77555   3.405   1.871   8.036  0.3823  0.1743 -0.3228
22414SOL    HW177556   3.317   1.888   8.071 -0.1581 -0.6760 -1.2065
22414SOL    HW277557   3.464   1.902   8.104 -0.5867  1.4614 -0.0334
22415SOL     OW77558  11.793  10.562   6.245  0.5235 -0.1159 -0.5480
22415SOL    HW177559  11.854  10.605   6.306 -1.0490  1.2826  0.1268
22415SOL    HW277560  11.756  10.635   6.194 -1.7265 -0.6821  0.1525
22416SOL     OW77561   5.424   6.906  10.444 -0.4029 -0.6382 -0.7256
22416SOL    HW177562   5.395   6.984  10.491 -1.2280 -0.8112 -0.9255
22416SOL    HW277563   5.487   6.939  10.380  2.6307 -0.6876  1.9912
22417SOL     OW77564   2.968  10.884  12.723  0.0325  0.1453 -0.2148
22417SOL    HW177565   2.964  10.861  12.630 -0.6609 -0.8464  0.0476
22417SOL    HW277566   3.061  10.895  12.741  0.3164 -1.4977 -0.5967
22418SOL     OW77567   1.860   8.615   3.410 -0.1252 -0.0459  0.2295
22418SOL    HW177568   1.869   8.536   3.464  3.2138  0.7140  0.9644
22418SOL    HW277569   1.879   8.585   3.321 -0.8240 -0.3942  0.1873
22419SOL     OW77570   2.135   6.199  10.024  0.1483 -0.5530  0.2534
22419SOL    HW177571   2.197   6.254   9.976  0.5411  0.0264  1.3821
22419SOL    HW277572   2.128   6.119   9.973  0.5196  0.0594 -0.7799
22420SOL     OW77573   9.822   5.112  12.974  0.0450  0.1377  0.2597
22420SOL    HW177574   9.799   5.165  13.050  0.9660  1.4912 -0.3643
22420SOL    HW277575   9.739   5.095  12.930 -0.3933  0.0596  1.0993
22421SOL     OW77576   6.933   2.638   1.860  0.0129  0.7563  0.3612
22421SOL    HW177577   6.999   2.669   1.799 -0.6871  0.0371 -0.8077
22421SOL    HW277578   6.877   2.714   1.875  0.4567  1.0644  0.4784
22422SOL     OW77579   4.799   3.932   1.763  0.0125  0.3342 -0.1508
22422SOL    HW177580   4.879   3.878   1.764 -0.3472 -0.3869 -3.0924
22422SOL    HW277581   4.733   3.877   1.721 -0.9010  2.3621 -1.5328
22423SOL     OW77582   2.238   6.792   5.436 -0.0698 -0.1186 -0.0753
22423SOL    HW177583   2.330   6.815   5.429  0.2620 -1.4074 -0.1821
22423SOL    HW277584   2.228   6.714   5.381 -0.9465 -0.7000  0.8650
22424SOL     OW77585   5.490   4.185   7.475  0.1939 -0.0296  0.6190
22424SOL    HW177586   5.570   4.197   7.527 -0.0291 -1.6997  1.4437
22424SOL    HW277587   5.419   4.205   7.535 -0.0301 -0.0648  0.3681
22425SOL     OW77588   1.706   2.895   9.276  0.5208  0.0391 -0.1735
22425SOL    HW177589   1.733   2.843   9.352  1.1635 -0.1348 -0.5109
22425SOL    HW277590   1.619   2.928   9.299  1.6198  1.9081  1.5996
22426SOL     OW77591  10.018   6.695   1.796 -0.6473  0.1284 -0.4464
22426SOL    HW177592  10.107   6.701   1.760 -0.6411 -2.2526 -0.9838
22426SOL    HW277593   9.988   6.608   1.770 -2.4499  0.1692  1.3198
22427SOL     OW77594  11.340   4.793   7.369 -0.6545  0.5200 -0.4311
22427SOL    HW177595  11.311   4.702   7.361 -0.8542  0.6211 -0.9301
22427SOL    HW277596  11.428   4.793   7.332 -0.6297  0.5161 -0.3721
22428SOL     OW77597   0.144   3.067   1.499 -0.5390 -0.0300 -0.5400
22428SOL    HW177598   0.181   3.034   1.581 -2.4542  1.7759  1.1408
22428SOL    HW277599   0.220   3.074   1.440  1.0451 -0.5256  1.3264
22429SOL     OW77600   4.285   3.737   4.521  0.7267  0.3397  0.2243
22429SOL    HW177601   4.212   3.702   4.469  0.3726 -0.2913  1.1251
22429SOL    HW277602   4.337   3.660   4.544  0.7487  0.5858  1.0140
22430SOL     OW77603   0.329   0.414   4.587  0.1374  0.1500  0.2296
22430SOL    HW177604   0.294   0.456   4.509 -0.0641  0.7039  0.6125
22430SOL    HW277605   0.257   0.360   4.620  0.7086 -1.2994 -0.8148
22431SOL     OW77606   2.633   3.930  10.040  0.8883  0.4243  0.9010
22431SOL    HW177607   2.543   3.904  10.016  1.0835  1.6978 -1.5127
22431SOL    HW277608   2.622   4.007  10.095  0.4752  0.7361  0.3973
22432SOL     OW77609   7.991  12.863   5.270  0.3358 -0.0389  0.0234
22432SOL    HW177610   7.999  12.897   5.359 -1.6203 -1.0011  0.6365
22432SOL    HW277611   7.910  12.903   5.237  0.0961 -1.0297 -0.6478
22433SOL     OW77612  10.077  10.112   0.413  0.2807 -0.1672 -0.2951
22433SOL    HW177613  10.012  10.057   0.369  0.2911  0.4997 -1.1671
22433SOL    HW277614  10.025  10.176   0.462  0.2777  0.3467 -0.9675
22434SOL     OW77615   2.493   5.364  12.768 -0.5973  0.4577  0.2492
22434SOL    HW177616   2.578   5.324  12.785 -0.7494 -0.5555 -1.2186
22434SOL    HW277617   2.475   5.345  12.676 -2.3955  0.6626  0.5191
22435SOL     OW77618   0.099   2.127   7.667 -0.3744 -0.0257 -0.7489
22435SOL    HW177619   0.191   2.138   7.690  0.4060 -2.2541 -2.4024
22435SOL    HW277620   0.084   2.190   7.596  0.2344 -0.4764 -1.2867
22436SOL     OW77621   0.439  10.467   1.890  0.0754  0.1090 -1.0053
22436SOL    HW177622   0.363  10.460   1.831 -0.4330  0.1486 -0.3657
22436SOL    HW277623   0.500  10.401   1.857 -1.4987 -2.1378  0.2972
22437SOL     OW77624   1.953   5.609   1.289  0.0373  0.6596  0.7003
22437SOL    HW177625   1.942   5.645   1.201  0.2784 -0.6017  0.1338
22437SOL    HW277626   1.885   5.543   1.297  0.3687  0.3753  1.2423
22438SOL     OW77627  12.705  12.839   7.476  0.0518  0.3858 -0.4860
22438SOL    HW177628  12.733  12.880   7.558 -0.4488  0.0889 -0.1640
22438SOL    HW277629  12.729  12.747   7.486  0.7270  0.4890 -1.0120
22439SOL     OW77630  10.955   7.493   4.424 -0.1361  0.2178  0.2951
22439SOL    HW177631  11.003   7.412   4.404 -1.1042 -0.0791 -0.8875
22439SOL    HW277632  10.922   7.480   4.513 -0.3889 -0.7372  0.0661
22440SOL     OW77633   8.579  10.448  10.261  0.2289  0.2980 -0.3204
22440SOL    HW177634   8.569  10.537  10.295  0.2611 -0.3865  1.5897
22440SOL    HW277635   8.496  10.430  10.216  0.4042  1.4266 -1.1611
22441SOL     OW77636   9.298   4.280   5.015  0.1157  0.5515  0.5153
22441SOL    HW177637   9.321   4.290   5.107  0.8384 -1.5084  0.6330
22441SOL    HW277638   9.382   4.258   4.972 -0.2859  1.0245 -0.5589
22442SOL     OW77639   7.929   0.849   4.256 -0.0500 -0.4533 -0.2953
22442SOL    HW177640   7.927   0.930   4.308 -1.5231  0.3906 -1.5800
22442SOL    HW277641   8.020   0.843   4.225  0.6887 -0.6343  1.7961
22443SOL     OW77642  11.622   5.922   5.784 -0.1024 -0.0174  1.0339
22443SOL    HW177643  11.592   6.005   5.748  0.1583  0.2721  1.4807
22443SOL    HW277644  11.550   5.861   5.766  0.0809  0.0866 -0.0780
22444SOL     OW77645   8.111   2.126   8.237 -0.1226 -0.1490 -0.0472
22444SOL    HW177646   8.032   2.175   8.261 -0.6165  0.5956 -2.8124
22444SOL    HW277647   8.183   2.180   8.271 -0.7572  0.3140  0.5920
22445SOL     OW77648   4.354   2.321   0.117 -0.0215  0.0437  0.1633
22445SOL    HW177649   4.342   2.244   0.062 -1.1150  0.2437  0.1075
22445SOL    HW277650   4.265   2.352   0.135  0.3596  2.9453 -2.1737
22446SOL     OW77651  11.951  12.425   4.052 -0.0293 -0.3883 -0.8503
22446SOL    HW177652  11.908  12.362   3.993 -0.6660 -0.6833 -0.1027
22446SOL    HW277653  11.905  12.507   4.036 -1.9775 -1.0107  0.9762
22447SOL     OW77654   8.181   0.977   6.484 -0.3626 -0.3774  0.0979
22447SOL    HW177655   8.175   0.893   6.530 -0.9253 -0.9550 -1.0002
22447SOL    HW277656   8.275   0.999   6.486 -0.1731 -1.1757  0.1248
22448SOL     OW77657   0.763  10.862   7.531  0.3756 -0.6295  0.0629
22448SOL    HW177658   0.829  10.922   7.564 -0.0487 -0.7775  1.2471
22448SOL    HW277659   0.798  10.829   7.449  1.0379  0.5089 -0.1233
22449SOL     OW77660   6.705   1.303   5.987  0.1810  0.2591  0.4223
22449SOL    HW177661   6.633   1.274   6.043  1.5052 -0.8833  1.6066
22449SOL    HW277662   6.688   1.396   5.972 -1.5657 -0.0017  0.5934
22450SOL     OW77663   3.220   1.348   9.970  0.1236 -0.1289  0.0277
22450SOL    HW177664   3.188   1.335  10.059  1.0882 -1.0959  0.2584
22450SOL    HW277665   3.310   1.315   9.972  0.5078  0.7739 -1.0568
22451SOL     OW77666   4.224   7.145  11.982 -0.0187 -0.0634 -0.0207
22451SOL    HW177667   4.287   7.076  12.004  1.6494  0.8811 -1.4957
22451SOL    HW277668   4.269   7.198  11.916 -2.4179  0.6286 -1.2436
22452SOL     OW77669   5.354   7.288  10.614  0.3827  0.1631  0.2443
22452SOL    HW177670   5.409   7.242  10.677  1.3577  0.4815 -0.3590
22452SOL    HW277671   5.318   7.363  10.663  1.9604  1.0066  0.1792
22453SOL     OW77672   3.678   6.000  11.887 -0.4851 -0.4089 -0.5097
22453SOL    HW177673   3.700   6.089  11.915  2.8547 -1.8722  2.2252
22453SOL    HW277674   3.677   6.005  11.791  1.5238  2.2118 -0.5291
22454SOL     OW77675   5.527  10.901   0.523 -0.1393 -0.1832 -0.1346
22454SOL    HW177676   5.603  10.847   0.543  2.0547  2.7210  0.0055
22454SOL    HW277677   5.539  10.927   0.432 -0.1454  1.4589  0.3034
22455SOL     OW77678  12.791   8.055   6.130  0.3545 -0.0925 -0.1940
22455SOL    HW177679  12.832   8.020   6.050 -0.1364 -0.7496 -0.1678
22455SOL    HW277680  12.804   7.986   6.195 -0.1365  0.0152  0.0170
22456SOL     OW77681   1.124   1.696  12.277 -0.2060 -0.1946  0.4421
22456SOL    HW177682   1.108   1.697  12.372 -0.4300  3.0235  0.4826
22456SOL    HW277683   1.046   1.738  12.240  0.0623 -1.0444 -1.1562
22457SOL     OW77684   2.017   7.968   8.946  0.3693  0.1509 -0.2998
22457SOL    HW177685   2.018   7.953   9.040 -1.3856  0.8181 -0.1260
22457SOL    HW277686   2.108   7.956   8.918  1.0651  0.6857  1.5883
22458SOL     OW77687   5.222   7.884   7.145 -0.1666 -0.1631 -0.1815
22458SOL    HW177688   5.205   7.966   7.098  1.3267  1.3015  1.6476
22458SOL    HW277689   5.305   7.853   7.110 -0.4397 -0.5890 -0.4579
22459SOL     OW77690   6.030  11.624   9.888  0.4665 -0.1139  0.5471
22459SOL    HW177691   5.954  11.618   9.830  1.3266  1.2657 -0.7832
22459SOL    HW277692   5.994  11.614   9.976 -0.9589 -1.6727 -0.1554
22460SOL     OW77693  11.630   6.711   7.869 -0.1202  0.5076 -0.0760
22460SOL    HW177694  11.635   6.725   7.775  2.8648  0.7639  0.0106
22460SOL    HW277695  11.635   6.799   7.907 -1.1184  0.3936  0.3671
22461SOL     OW77696   4.259  12.186   7.049  0.1031  0.4860  0.1764
22461SOL    HW177697   4.236  12.278   7.063 -0.0317  0.4165  0.4286
22461SOL    HW277698   4.175  12.139   7.056 -0.2129  0.5687 -2.1724
22462SOL     OW77699  12.612   8.802   4.457 -0.6242 -0.1112  0.7952
22462SOL    HW177700  12.688   8.829   4.406 -1.3321 -0.2953 -0.3831
22462SOL    HW277701  12.626   8.709   4.476 -1.5266 -0.7060 -1.2452
22463SOL     OW77702   1.111   0.051   0.068 -0.2833  0.4031  0.2701
22463SOL    HW177703   1.104  -0.035   0.026  0.1382  0.9553 -0.9686
22463SOL    HW277704   1.203   0.075   0.059 -0.5305  1.2810  0.0167
22464SOL     OW77705   2.312   8.480   9.836  0.3643 -0.3686  0.0058
22464SOL    HW177706   2.383   8.531   9.797 -0.9908  0.4331 -1.5416
22464SOL    HW277707   2.337   8.389   9.821  1.5115 -0.1239  0.3480
22465SOL     OW77708   1.895   9.429   8.560 -0.7004 -0.1696  0.5647
22465SOL    HW177709   1.898   9.496   8.629 -0.2378  1.9399 -1.3577
22465SOL    HW277710   1.987   9.406   8.545 -0.7628 -0.2835  0.3515
22466SOL     OW77711   2.200   1.068   8.231  0.2379 -0.2445 -0.0367
22466SOL    HW177712   2.151   1.015   8.170 -2.4549  0.4253  1.4038
22466SOL    HW277713   2.206   1.154   8.189 -0.1060 -0.2437 -0.0852
22467SOL     OW77714   8.071   4.683   0.907 -0.4336 -0.0652 -0.1037
22467SOL    HW177715   8.102   4.599   0.940 -0.5452  0.0105  0.2033
22467SOL    HW277716   8.083   4.679   0.812  1.7114  0.4425  0.1124
22468SOL     OW77717  11.954  12.984  10.518  0.3943  0.5471  0.1067
22468SOL    HW177718  12.014  12.963  10.589  1.7610  0.8309 -0.9195
22468SOL    HW277719  11.892  12.911  10.516 -0.7938  1.3543  2.6742
22469SOL     OW77720   2.263   7.743   9.504 -0.2329 -0.3318 -0.1398
22469SOL    HW177721   2.278   7.655   9.539 -1.3849 -0.7054 -0.5452
22469SOL    HW277722   2.299   7.739   9.416  2.1519  0.4391  0.7321
22470SOL     OW77723   7.868   0.955   5.278  0.4422  0.4721 -0.0170
22470SOL    HW177724   7.796   0.897   5.304 -0.1174 -0.0183 -2.4269
22470SOL    HW277725   7.830   1.043   5.283  1.0131  0.6550  2.7402
22471SOL     OW77726  11.448   5.149   6.922 -0.0009  0.0112  0.0750
22471SOL    HW177727  11.378   5.084   6.915  0.2342 -0.2877  0.4136
22471SOL    HW277728  11.406   5.233   6.904 -0.4155 -0.1815  0.1458
22472SOL     OW77729   6.154  10.041   1.493 -0.7082  0.1831  0.4373
22472SOL    HW177730   6.065  10.006   1.499 -0.5116 -0.3047  0.5392
22472SOL    HW277731   6.209   9.965   1.478 -0.4959  0.6577 -1.5137
22473SOL     OW77732  10.389   5.566   4.920  0.1543  0.0055  0.2412
22473SOL    HW177733  10.414   5.655   4.945  1.8155 -0.2082 -0.5211
22473SOL    HW277734  10.308   5.576   4.871  1.0720  1.2757 -1.0812
22474SOL     OW77735   4.013   9.126   7.643 -0.2721  0.2214 -0.0207
22474SOL    HW177736   4.045   9.043   7.608 -0.6904 -0.3936  1.0431
22474SOL    HW277737   4.092   9.169   7.677 -0.2557 -0.3531  0.6779
22475SOL     OW77738  11.502   1.723   0.201 -1.0744 -0.0426  0.0599
22475SOL    HW177739  11.409   1.738   0.215 -1.2880 -0.6268 -0.6947
22475SOL    HW277740  11.514   1.629   0.210 -0.5074  0.0537  0.4029
22476SOL     OW77741   1.019   4.881   1.222  0.9217 -0.2256  0.0839
22476SOL    HW177742   0.981   4.957   1.267  2.1714 -0.1066  0.9958
22476SOL    HW277743   1.022   4.907   1.130 -0.6032 -0.0147  0.0569
22477SOL     OW77744   5.147   3.236   2.169  0.2954  0.1808  0.4768
22477SOL    HW177745   5.128   3.145   2.191  0.8048  0.5386  2.5875
22477SOL    HW277746   5.234   3.252   2.205  1.1963  0.9067 -1.8150
22478SOL     OW77747   0.692   0.231   6.265  0.1960 -0.0396  0.0754
22478SOL    HW177748   0.705   0.148   6.218  0.8871 -1.1986  2.1806
22478SOL    HW277749   0.764   0.234   6.328 -1.4311  0.7678  1.9863
22479SOL     OW77750   7.230   2.749   9.859  0.2660 -0.0843  0.3707
22479SOL    HW177751   7.296   2.680   9.854 -1.0552 -1.3169 -1.3764
22479SOL    HW277752   7.216   2.775   9.768  0.3043  2.1399  0.9343
22480SOL     OW77753   4.616   2.325  12.058 -0.1018  0.5362  0.5945
22480SOL    HW177754   4.595   2.234  12.077 -0.9234  0.7524  0.7531
22480SOL    HW277755   4.547   2.354  11.998  1.4326  0.3851 -1.3835
22481SOL     OW77756   9.303   0.086   6.424 -0.2057 -0.7455  0.1261
22481SOL    HW177757   9.397   0.076   6.411  0.0622  0.0846  1.1912
22481SOL    HW277758   9.271  -0.003   6.436  0.4019 -1.0570 -0.4535
22482SOL     OW77759   2.521   0.803  12.025  0.3772 -0.0966  0.5399
22482SOL    HW177760   2.607   0.823  11.987  0.0145  1.6640  0.5538
22482SOL    HW277761   2.479   0.746  11.962  0.8437  0.5834 -0.4094
22483SOL     OW77762   7.197  12.226  11.971  0.3178  0.1748  0.1384
22483SOL    HW177763   7.214  12.315  11.942 -0.1702  0.5721  1.0586
22483SOL    HW277764   7.139  12.189  11.904  1.0461  0.3157 -0.5895
22484SOL     OW77765   4.532   6.493   2.209  0.0074  0.5348 -0.2572
22484SOL    HW177766   4.562   6.403   2.201 -0.9662  0.2810 -1.3327
22484SOL    HW277767   4.607   6.540   2.246  1.2839 -0.3008 -1.6664
22485SOL     OW77768  11.297   1.070   3.908 -0.0229  0.6573 -0.2992
22485SOL    HW177769  11.366   1.050   3.971 -0.9758 -1.8260  0.0841
22485SOL    HW277770  11.249   1.143   3.947 -1.5288 -1.7574  2.7616
22486SOL     OW77771   7.431  10.159   0.434  0.0492 -0.4774  0.2079
22486SOL    HW177772   7.339  10.175   0.413  0.2465 -1.3608 -1.4431
22486SOL    HW277773   7.430  10.080   0.489 -0.0696 -1.8257 -1.6395
22487SOL     OW77774   2.680   0.096   8.454  0.2485 -0.0063 -0.6171
22487SOL    HW177775   2.611   0.117   8.516  0.1857  0.4624 -0.8444
22487SOL    HW277776   2.688   0.001   8.459  0.7341  0.0861  0.6199
22488SOL     OW77777   3.599  12.624   3.788 -0.2228 -0.2294  0.2161
22488SOL    HW177778   3.530  12.612   3.723  0.2932  1.5908 -0.7348
22488SOL    HW277779   3.584  12.555   3.852 -2.6072 -0.2081 -0.2308
22489SOL     OW77780   4.428   1.720   6.089  0.4950 -0.0469 -0.0098
22489SOL    HW177781   4.363   1.678   6.032  0.7685  0.2566 -0.5398
22489SOL    HW277782   4.399   1.811   6.096 -0.3001 -0.3676  1.4288
22490SOL     OW77783   2.901   7.515  12.243 -0.2615 -0.2777 -0.2462
22490SOL    HW177784   2.978   7.550  12.198 -0.3035 -0.7118 -0.6664
22490SOL    HW277785   2.933   7.490  12.330  0.4575 -1.8958 -0.9266
22491SOL     OW77786  11.694   7.410   5.769  0.3027 -0.6355  0.1839
22491SOL    HW177787  11.734   7.333   5.728 -2.0510 -0.8824 -1.9224
22491SOL    HW277788  11.641   7.373   5.840 -0.0693 -0.8862 -0.2139
22492SOL     OW77789   6.410   6.376  10.646 -0.5660 -0.0267  0.4342
22492SOL    HW177790   6.461   6.415  10.575  0.1886 -0.4526  0.7388
22492SOL    HW277791   6.337   6.332  10.601 -1.4520  1.7017  0.0846
22493SOL     OW77792   3.569   5.100  12.299  0.5943  0.1961  0.4289
22493SOL    HW177793   3.480   5.125  12.276  0.7652 -0.4116 -0.9876
22493SOL    HW277794   3.621   5.180  12.287  0.6999 -0.1215 -1.5392
22494SOL     OW77795   9.191   7.211   1.270  0.2248 -0.2845 -0.4508
22494SOL    HW177796   9.276   7.169   1.267  0.0053 -1.1302  2.3865
22494SOL    HW277797   9.193   7.265   1.349 -1.7401  0.0019 -0.5298
22495SOL     OW77798  10.122   7.841  12.862  0.3232  0.3749 -0.4998
22495SOL    HW177799  10.061   7.800  12.924 -0.7657  0.7536 -1.2905
22495SOL    HW277800  10.180   7.770  12.834 -0.8573 -0.3954 -1.0380
22496SOL     OW77801   8.935  10.581   7.366  0.1540  0.3356 -0.1987
22496SOL    HW177802   8.854  10.575   7.415 -0.2509  0.4962 -0.8314
22496SOL    HW277803   8.932  10.507   7.305 -0.6195  1.6246 -1.8117
22497SOL     OW77804   4.925  12.462   7.734  0.1605  0.2475  0.2694
22497SOL    HW177805   5.007  12.428   7.698  0.3350  0.5234  0.4015
22497SOL    HW277806   4.952  12.519   7.807 -0.2436 -1.7815  2.1069
22498SOL     OW77807   0.415   2.412   3.385  0.3244  0.3347 -0.6623
22498SOL    HW177808   0.482   2.480   3.396  0.5177  0.1202 -0.4968
22498SOL    HW277809   0.332   2.457   3.400  0.5025  0.3344  0.4437
22499SOL     OW77810  10.617   0.716   2.226 -0.0088 -0.5745  0.3978
22499SOL    HW177811  10.573   0.659   2.289  0.9581 -2.4601 -0.5394
22499SOL    HW277812  10.699   0.739   2.269  0.0417 -0.7286  0.3853
22500SOL     OW77813   4.703   2.864   2.536  0.4887  0.1699  0.3003
22500SOL    HW177814   4.793   2.880   2.507  0.8596 -0.6302  0.9647
22500SOL    HW277815   4.709   2.788   2.594 -0.6684 -0.1070  0.0948
22501SOL     OW77816  12.414   4.280   4.139  0.0896  0.4354 -0.1381
22501SOL    HW177817  12.370   4.364   4.152  0.8020  0.7053  0.6724
22501SOL    HW277818  12.501   4.303   4.107 -0.0209 -0.0437 -0.7941
22502SOL     OW77819   7.430   3.418   1.552 -0.2583  0.0119  0.2808
22502SOL    HW177820   7.476   3.382   1.476 -0.9327 -1.9833  0.7610
22502SOL    HW277821   7.421   3.344   1.612  0.2340  1.5312  2.3347
22503SOL     OW77822   2.549   3.709  10.726 -0.4143  0.1363 -0.6502
22503SOL    HW177823   2.602   3.683  10.801  0.6584 -0.9449 -1.7553
22503SOL    HW277824   2.459   3.695  10.755  0.0060 -1.1190  0.1450
22504SOL     OW77825   1.928   7.652   1.230 -0.3744 -0.0907 -0.3718
22504SOL    HW177826   1.958   7.721   1.170  0.2437 -0.1575 -0.1429
22504SOL    HW277827   1.894   7.699   1.306  0.2064 -0.0377 -0.1410
22505SOL     OW77828   1.042   9.444   4.041 -0.1362 -0.3488 -0.2445
22505SOL    HW177829   1.109   9.512   4.046 -1.3999  1.0121 -1.1100
22505SOL    HW277830   0.959   9.490   4.052 -1.0508 -1.7147 -1.0264
22506SOL     OW77831   1.535  10.798   6.959 -0.2231 -0.2242  0.5818
22506SOL    HW177832   1.461  10.848   6.992  0.2042  1.0682 -0.3405
22506SOL    HW277833   1.591  10.783   7.036 -1.8886 -2.1185  1.5007
22507SOL     OW77834  12.687   3.467   5.743 -0.0743 -0.2340 -0.4876
22507SOL    HW177835  12.648   3.388   5.781 -1.2479  0.1837 -0.7772
22507SOL    HW277836  12.614   3.510   5.698  0.8528  0.3064 -1.5194
22508SOL     OW77837   4.774   9.175   2.863 -0.0826 -0.1670  0.0142
22508SOL    HW177838   4.728   9.182   2.779  1.8579 -0.1708 -1.1341
22508SOL    HW277839   4.710   9.200   2.929 -1.7572 -0.4324 -1.4445
22509SOL     OW77840  12.335   4.850   5.920  0.5479  0.0104  0.1232
22509SOL    HW177841  12.242   4.845   5.899  0.4055 -0.3870  0.8224
22509SOL    HW277842  12.362   4.759   5.932  0.6744  0.1944  1.3710
22510SOL     OW77843   0.282  12.326   4.797 -0.4839 -0.4099  0.1485
22510SOL    HW177844   0.339  12.366   4.863  1.5140 -1.4168 -0.8971
22510SOL    HW277845   0.257  12.399   4.739  1.4824 -0.2637 -0.5782
22511SOL     OW77846   8.436   6.713   2.066  0.4506  0.2319 -0.1405
22511SOL    HW177847   8.505   6.773   2.092  0.0108  0.3873  0.6725
22511SOL    HW277848   8.469   6.626   2.090  0.1453  0.3534  0.7360
22512SOL     OW77849   4.662   9.434   4.645 -0.0334 -0.2617  0.0711
22512SOL    HW177850   4.625   9.437   4.734  2.0699  0.2326  0.9889
22512SOL    HW277851   4.684   9.341   4.632 -0.2874 -0.3251  0.0839
22513SOL     OW77852   9.011  10.057   1.227 -0.1111 -0.2080  0.0433
22513SOL    HW177853   8.954  10.031   1.300 -0.5709 -0.9323 -0.5623
22513SOL    HW277854   8.955  10.050   1.150  0.1844  1.1760 -0.3223
22514SOL     OW77855   4.908   3.559   2.250  0.3753  0.4067  0.0500
22514SOL    HW177856   4.949   3.638   2.286  0.3308 -0.2336  1.5596
22514SOL    HW277857   4.879   3.509   2.326 -0.4762 -0.6216 -0.9022
22515SOL     OW77858   0.541   8.516  10.492 -0.0359 -0.6636  0.1648
22515SOL    HW177859   0.474   8.582  10.510  2.5642  2.1582  0.3123
22515SOL    HW277860   0.588   8.508  10.575 -1.7602 -4.8089  0.9868
22516SOL     OW77861   3.776   2.088   3.809  0.0259  0.1743  0.2761
22516SOL    HW177862   3.817   2.017   3.858  0.0921 -0.3699 -0.5520
22516SOL    HW277863   3.831   2.164   3.826  2.4003 -0.8704 -2.0837
22517SOL     OW77864   2.046   5.920   4.316 -0.1572  0.3437 -0.6269
22517SOL    HW177865   2.075   5.897   4.404 -2.2088  2.8256  0.8439
22517SOL    HW277866   1.962   5.964   4.330 -0.3409  1.1965 -3.8103
22518SOL     OW77867   5.298   8.994  12.906 -0.2198 -0.5431  0.1677
22518SOL    HW177868   5.229   8.954  12.853 -0.0012 -0.5398 -0.1240
22518SOL    HW277869   5.278   9.088  12.904  0.1412 -0.4706 -0.4407
22519SOL     OW77870   8.658  10.559   0.401 -0.5352  0.4166 -0.2390
22519SOL    HW177871   8.598  10.544   0.328 -0.4810  0.3640 -0.2723
22519SOL    HW277872   8.744  10.531   0.369 -0.5928 -0.0598  0.0082
22520SOL     OW77873   6.755   7.913   3.131  0.3637 -0.0046 -0.3669
22520SOL    HW177874   6.771   7.915   3.037  0.7703  0.3756 -0.2919
22520SOL    HW277875   6.820   7.851   3.165  1.2852  1.0436 -0.1464
22521SOL     OW77876   9.034   9.524   3.286  0.0568  0.0281  0.6097
22521SOL    HW177877   9.053   9.616   3.270  0.7760 -0.2108  0.0105
22521SOL    HW277878   9.113   9.478   3.257 -2.1195 -1.2655 -4.3091
22522SOL     OW77879   1.349  12.421   0.206 -0.1935 -0.2712  0.6914
22522SOL    HW177880   1.297  12.346   0.177 -0.4904 -0.3586  1.4415
22522SOL    HW277881   1.432  12.384   0.236  0.1754 -0.1656 -0.1593
22523SOL     OW77882   8.620   7.338   8.262  0.1233  0.4217 -0.0754
22523SOL    HW177883   8.538   7.388   8.257 -1.2542 -1.6922  0.3867
22523SOL    HW277884   8.679   7.386   8.204 -0.5408  3.5218  1.5819
22524SOL     OW77885  11.400   2.077   0.658  0.1726  0.1769 -0.0133
22524SOL    HW177886  11.371   1.989   0.680 -1.6798  1.3913  2.9058
22524SOL    HW277887  11.450   2.105   0.734 -1.3606  2.4825  0.2330
22525SOL     OW77888   6.131   6.035   9.060 -0.0082  0.2512 -0.2275
22525SOL    HW177889   6.140   5.953   9.011  0.2047  0.1808 -0.0727
22525SOL    HW277890   6.170   6.101   9.003 -0.2374  0.2551 -0.3811
22526SOL     OW77891  12.307   6.749   0.841 -0.1427  0.3501 -0.2177
22526SOL    HW177892  12.374   6.731   0.907 -0.8007 -0.5976  0.2082
22526SOL    HW277893  12.252   6.816   0.881  1.1308  1.9161 -0.9901
22527SOL     OW77894  11.853  11.302  11.124 -0.5724  0.3916  0.1199
22527SOL    HW177895  11.885  11.275  11.210  1.3599  0.5040 -0.5122
22527SOL    HW277896  11.840  11.220  11.077 -2.1388  0.3045  0.6516
22528SOL     OW77897   6.255   2.665  11.801 -0.9419 -0.0960  0.3496
22528SOL    HW177898   6.198   2.728  11.758 -1.6727 -1.1849 -0.3156
22528SOL    HW277899   6.321   2.643  11.735 -1.1990 -0.6719  0.2830
22529SOL     OW77900   1.549   5.926  10.988  1.0204  0.1085 -0.2204
22529SOL    HW177901   1.640   5.953  10.972  1.5448 -1.2975  0.2506
22529SOL    HW277902   1.554   5.831  11.000 -0.9339 -0.5670 -3.3580
22530SOL     OW77903   3.085  12.824   5.542 -0.3441 -0.2327  0.0233
22530SOL    HW177904   3.124  12.748   5.499 -1.1950 -0.2492 -0.7477
22530SOL    HW277905   3.040  12.787   5.619 -1.1387 -0.5872 -0.5953
22531SOL     OW77906  10.676  11.112   3.475  0.7939 -0.1788 -0.1688
22531SOL    HW177907  10.605  11.060   3.513  2.7107 -1.0766  2.4078
22531SOL    HW277908  10.660  11.108   3.380 -2.1158 -0.9682  0.2668
22532SOL     OW77909   2.402  12.654   4.828 -0.6509  0.0702 -0.5943
22532SOL    HW177910   2.366  12.579   4.782 -0.7066  0.3710 -1.0456
22532SOL    HW277911   2.413  12.624   4.918  0.0909 -0.7456 -0.9381
22533SOL     OW77912  12.592   0.656  11.457  1.1510 -0.5073  0.6455
22533SOL    HW177913  12.528   0.586  11.469 -1.0511  1.2719 -0.2261
22533SOL    HW277914  12.651   0.623  11.389 -0.5815 -1.0469 -0.6449
22534SOL     OW77915   1.281   2.257   9.709  0.1963  0.0487  0.3964
22534SOL    HW177916   1.307   2.167   9.724 -0.9843 -0.3239  0.2908
22534SOL    HW277917   1.325   2.281   9.627 -0.4759 -0.8527 -0.2436
22535SOL     OW77918  12.951   3.225   2.637 -0.3241  0.0043 -0.6560
22535SOL    HW177919  12.959   3.309   2.683 -1.0472  0.5990 -1.5861
22535SOL    HW277920  12.964   3.159   2.705  1.7163  0.8414 -0.1501
22536SOL     OW77921   6.800   0.676   2.063  0.1288  0.2672 -0.1466
22536SOL    HW177922   6.705   0.686   2.070  0.0454  1.1531 -1.8705
22536SOL    HW277923   6.812   0.593   2.017  0.2853 -0.5924  1.3709
22537SOL     OW77924   6.984   5.246   3.499  0.4435 -0.4912  0.6516
22537SOL    HW177925   7.056   5.193   3.534  4.6080  3.3683 -1.1347
22537SOL    HW277926   6.990   5.329   3.546 -0.7219  1.0927 -1.8095
22538SOL     OW77927   2.336  10.633   1.772 -0.0798  0.0740  0.4472
22538SOL    HW177928   2.404  10.678   1.722  0.4934 -0.9939  0.2384
22538SOL    HW277929   2.317  10.554   1.720  0.9696 -1.3995  2.1928
22539SOL     OW77930   5.611   6.784   5.563 -0.4315  0.2914 -0.3127
22539SOL    HW177931   5.562   6.702   5.567  0.4428 -0.1981  1.2520
22539SOL    HW277932   5.702   6.757   5.553  0.0092  0.9850  1.4541
22540SOL     OW77933   0.736   4.964   4.879 -0.1523 -0.7698  0.0715
22540SOL    HW177934   0.778   4.911   4.812 -0.1129  0.6105 -1.0240
22540SOL    HW277935   0.698   5.038   4.832  1.6424  1.3700  1.7744
22541SOL     OW77936  11.013   6.164   4.392  0.5779  0.3098  0.0800
22541SOL    HW177937  11.019   6.095   4.325  1.5927  0.8668 -0.4281
22541SOL    HW277938  11.062   6.129   4.466  0.1273  0.0206  0.2454
22542SOL     OW77939   9.538   1.787   3.858 -0.7231 -0.5084  0.3917
22542SOL    HW177940   9.468   1.735   3.819  0.9929 -1.3483 -1.8041
22542SOL    HW277941   9.589   1.819   3.783  0.5881  1.0116  1.8500
22543SOL     OW77942  12.357   2.950   3.044  0.6601  0.2451 -0.7812
22543SOL    HW177943  12.403   3.034   3.049  0.0746  0.5189  0.2825
22543SOL    HW277944  12.423   2.889   3.011  1.6980  0.7022  0.3685
22544SOL     OW77945   9.266  11.857   9.213  0.3948 -0.1471  0.3730
22544SOL    HW177946   9.301  11.823   9.295  0.0258  0.4082  0.7626
22544SOL    HW277947   9.190  11.802   9.194  1.5065 -1.4425 -0.5446
22545SOL     OW77948  12.832   8.828  12.358  0.7397 -0.1006 -0.2534
22545SOL    HW177949  12.830   8.915  12.318  0.1169  0.3358  0.6804
22545SOL    HW277950  12.917   8.823  12.402  1.4546 -0.6080 -1.6306
22546SOL     OW77951   3.477  10.641   8.715 -0.2736  0.1541 -0.2522
22546SOL    HW177952   3.510  10.643   8.805 -0.8173  1.8511 -0.0430
22546SOL    HW277953   3.522  10.713   8.671  1.4022 -1.7929 -1.9364
22547SOL     OW77954   9.869  10.724   8.439  0.1836 -0.5220  0.3387
22547SOL    HW177955   9.848  10.641   8.483  0.5443  0.1575  1.8781
22547SOL    HW277956   9.785  10.752   8.401 -0.3876 -0.6755  1.4390
22548SOL     OW77957   1.732   7.504   9.832  0.0406  0.0020  0.0792
22548SOL    HW177958   1.652   7.549   9.804  0.3936 -0.4447 -1.8331
22548SOL    HW277959   1.798   7.573   9.835  0.2091 -0.0699 -1.2305
22549SOL     OW77960   9.668   9.012   4.408  0.2573  0.5658 -0.1197
22549SOL    HW177961   9.684   9.048   4.495  1.3544 -1.8768  0.7941
22549SOL    HW277962   9.618   8.932   4.424 -0.5744  0.6837 -1.8587
22550SOL     OW77963   9.453   5.536   1.866  0.1176 -0.3298  0.1290
22550SOL    HW177964   9.474   5.481   1.941  1.0179  0.3140  0.3675
22550SOL    HW277965   9.385   5.488   1.819 -0.8905 -0.4718  1.6744
22551SOL     OW77966   9.641   9.148   6.187  0.1223 -0.0074  0.3642
22551SOL    HW177967   9.625   9.054   6.181  0.8229 -0.0814 -0.4480
22551SOL    HW277968   9.557   9.184   6.217 -0.6026 -0.7334 -0.7008
22552SOL     OW77969   3.084   2.900   5.698  0.9382 -0.0150  0.1501
22552SOL    HW177970   3.140   2.823   5.695  1.0104  0.0025  0.8227
22552SOL    HW277971   3.061   2.917   5.607 -0.4566 -1.8347  0.1232
22553SOL     OW77972   1.534   3.160   3.960  0.0888 -0.0814  0.8788
22553SOL    HW177973   1.614   3.128   4.003  0.1716 -1.8530 -0.4401
22553SOL    HW277974   1.537   3.120   3.873 -1.5358  0.9900  0.2877
22554SOL     OW77975   2.331   7.102  10.454 -0.5567  0.2426 -0.0403
22554SOL    HW177976   2.358   7.138  10.538 -0.8034 -1.2435  0.7108
22554SOL    HW277977   2.276   7.027  10.477  1.3137 -1.6940 -1.4469
22555SOL     OW77978  11.543   4.607   9.051 -0.0689  0.4415  0.2050
22555SOL    HW177979  11.500   4.567   8.975  0.5408  0.8249 -0.3626
22555SOL    HW277980  11.476   4.609   9.119 -1.5063  2.4567 -1.1363
22556SOL     OW77981   1.199   5.092   8.285  0.2184  0.6263  0.8521
22556SOL    HW177982   1.222   5.167   8.230  0.3969 -0.5011 -0.6901
22556SOL    HW277983   1.174   5.024   8.222 -0.9012 -0.3000  2.2372
22557SOL     OW77984   2.302   8.067   0.341  0.5057  0.1999  0.2211
22557SOL    HW177985   2.274   8.033   0.426 -1.4912 -1.1285 -0.8945
22557SOL    HW277986   2.345   7.993   0.299  1.2053  0.7622 -0.0851
22558SOL     OW77987  12.472   3.575  10.838  0.0809  0.1989  0.0406
22558SOL    HW177988  12.388   3.621  10.840 -0.3362 -0.5563 -0.0360
22558SOL    HW277989  12.480   3.544  10.747  0.0823 -0.3869  0.2364
22559SOL     OW77990   7.583  11.996  12.110  0.4442  0.1943 -0.6518
22559SOL    HW177991   7.549  12.045  12.185  0.0236 -1.4241  0.2577
22559SOL    HW277992   7.677  11.991  12.127  0.3886  0.0705 -0.3708
22560SOL     OW77993   2.131  10.949  12.887 -0.2151 -0.2392  0.8156
22560SOL    HW177994   2.209  10.901  12.862 -0.0146  0.7769 -0.6039
22560SOL    HW277995   2.144  11.037  12.852 -1.6779  0.1500  1.1694
22561SOL     OW77996   0.894   7.000  10.240  0.7333 -0.1324 -0.1663
22561SOL    HW177997   0.835   6.929  10.266  0.4649  0.1670  0.0679
22561SOL    HW277998   0.941   7.023  10.320 -1.6420  2.2513  0.7294
22562SOL     OW77999  12.984  12.258   0.991  0.0477 -0.3897  0.0186
22562SOL    HW178000  12.984  12.346   1.027  0.3716 -0.2922 -0.2146
22562SOL    HW278001  12.893  12.229   0.997 -0.0258 -0.1079  0.2597
22563SOL     OW78002   5.877   0.017  12.602 -0.0456  0.2318 -0.1019
22563SOL    HW178003   5.809   0.040  12.539 -1.0483  1.2421  1.3023
22563SOL    HW278004   5.835   0.023  12.687  0.7603 -2.8583  0.6699
22564SOL     OW78005   6.192   2.691  10.291  0.6272  0.4571  0.4009
22564SOL    HW178006   6.216   2.669  10.381  0.5595 -2.3779 -0.1896
22564SOL    HW278007   6.225   2.618  10.239 -1.1049  1.0309 -1.6254
22565SOL     OW78008   1.033   8.195  10.121 -0.4399  0.5051  0.2175
22565SOL    HW178009   0.971   8.267  10.130 -2.1685 -1.0216  1.3369
22565SOL    HW278010   0.997   8.125  10.176  3.0695 -0.0192  2.0942
22566SOL     OW78011  12.474   1.831  11.074 -0.3820  0.1704 -0.0891
22566SOL    HW178012  12.459   1.902  11.012  0.5895 -0.4263 -1.0535
22566SOL    HW278013  12.567   1.809  11.062 -0.5537 -0.9337  0.5321
22567SOL     OW78014   5.092   8.465   8.077  0.1671 -0.2642 -0.0067
22567SOL    HW178015   5.072   8.510   7.995  1.2432 -0.3624 -0.3442
22567SOL    HW278016   5.012   8.474   8.129 -0.9765 -1.2678 -1.5081
22568SOL     OW78017   1.407  11.726   2.102  0.5417 -0.5954  0.1919
22568SOL    HW178018   1.373  11.737   2.014  0.8960  1.6598  0.2782
22568SOL    HW278019   1.329  11.728   2.158  0.5255  1.1418  0.1398
22569SOL     OW78020   8.607  10.615   3.906 -0.4526  0.1379 -0.6439
22569SOL    HW178021   8.675  10.683   3.908  0.3489 -0.6497 -0.8911
22569SOL    HW278022   8.653  10.534   3.927 -1.2487 -0.4733 -1.2014
22570SOL     OW78023  10.062  10.041   2.499 -0.1922 -0.2553  0.2789
22570SOL    HW178024  10.050  10.081   2.585  2.1643  0.3223  0.4179
22570SOL    HW278025  10.115   9.963   2.516  0.6552  0.0900 -0.6575
22571SOL     OW78026   9.509   7.716   8.049  0.0409  0.3508  0.0733
22571SOL    HW178027   9.489   7.764   7.969  1.5705 -0.3718 -0.7989
22571SOL    HW278028   9.481   7.626   8.031 -0.1855  0.3047  0.6096
22572SOL     OW78029   3.506   6.077   5.206  0.3663  0.1340  0.3187
22572SOL    HW178030   3.444   6.085   5.133  0.9740 -1.1051 -0.3567
22572SOL    HW278031   3.504   5.984   5.229  2.3029 -0.0354 -0.0236
22573SOL     OW78032   4.303   2.236   1.683 -0.5495 -0.2947  0.0550
22573SOL    HW178033   4.267   2.251   1.770  0.7706  0.8589  0.4434
22573SOL    HW278034   4.382   2.290   1.680 -1.0924  0.5058 -2.2252
22574SOL     OW78035  12.817   3.723   4.875 -0.0344  0.6750 -0.2113
22574SOL    HW178036  12.855   3.719   4.963  1.9204  1.5027 -0.9548
22574SOL    HW278037  12.736   3.671   4.881  1.2004 -1.2210  1.4913
22575SOL     OW78038   1.249   1.990   0.791  0.1139  0.3722  0.4561
22575SOL    HW178039   1.196   1.989   0.712  1.8443  3.3017 -0.9107
22575SOL    HW278040   1.327   1.938   0.768  0.3730  0.7759  0.4123
22576SOL     OW78041   9.513   7.730   6.324  0.5148  0.4004 -0.0609
22576SOL    HW178042   9.444   7.667   6.302 -0.6003  1.8831 -1.0823
22576SOL    HW278043   9.590   7.677   6.341  0.1202 -1.2023 -2.6748
22577SOL     OW78044  11.835  10.662   3.657  0.1072  0.0160 -0.3573
22577SOL    HW178045  11.870  10.700   3.577 -0.5169  0.0139 -0.6382
22577SOL    HW278046  11.878  10.709   3.728 -3.4339  4.1592 -0.5642
22578SOL     OW78047   9.451   5.632   0.525 -0.2503  0.2587  0.4947
22578SOL    HW178048   9.489   5.719   0.511  1.5120 -0.9009 -3.0038
22578SOL    HW278049   9.368   5.634   0.478  0.4191 -0.2688 -0.7691
22579SOL     OW78050   2.785  12.140   3.080 -0.3215  0.1476 -0.4434
22579SOL    HW178051   2.690  12.129   3.079 -0.2070 -1.3838  1.0126
22579SOL    HW278052   2.808  12.144   3.173  1.1903 -1.3879 -0.6929
22580SOL     OW78053   1.093   3.341   7.487 -0.1109 -0.7262 -0.0211
22580SOL    HW178054   1.096   3.380   7.400 -0.4360  0.7393  0.5911
22580SOL    HW278055   1.178   3.298   7.498  1.0130  1.3462 -0.0826
22581SOL     OW78056   5.078   8.706   2.353 -0.7748 -0.1220  0.3659
22581SOL    HW178057   5.045   8.795   2.350 -1.6584 -0.4393  0.4087
22581SOL    HW278058   5.161   8.712   2.400 -0.7484  0.6961  0.2151
22582SOL     OW78059   2.371  10.266  10.663 -0.2920  0.7643  0.3327
22582SOL    HW178060   2.333  10.352  10.677  0.4471  1.2363 -0.4607
22582SOL    HW278061   2.312  10.223  10.602  0.9210  1.8896 -1.7474
22583SOL     OW78062   5.630   8.937   6.947  0.3155  0.3748 -0.6348
22583SOL    HW178063   5.643   8.968   7.036  0.5708 -2.3876  0.3811
22583SOL    HW278064   5.664   9.008   6.892  1.9579  1.3701  1.4912
22584SOL     OW78065  11.214  12.567  12.520  0.4805  0.2970 -0.0551
22584SOL    HW178066  11.248  12.487  12.480  1.0328  0.5200 -0.0397
22584SOL    HW278067  11.291  12.624  12.528 -0.0364  1.0902 -0.6803
22585SOL     OW78068   4.131   5.597   0.879 -0.5362  0.4031 -0.8965
22585SOL    HW178069   4.168   5.675   0.921 -3.7463  1.3804  0.3773
22585SOL    HW278070   4.095   5.629   0.796  0.5139 -0.3334 -1.6658
22586SOL     OW78071   3.897   6.250  11.333 -0.2818 -0.3201 -0.6227
22586SOL    HW178072   3.944   6.322  11.374  1.1706 -2.0973  1.0481
22586SOL    HW278073   3.833   6.223  11.400 -1.1183 -0.3120 -1.4040
22587SOL     OW78074   1.897   6.739   2.429 -0.2344 -0.1598 -0.4282
22587SOL    HW178075   1.829   6.674   2.444 -0.0244 -0.1680  0.6024
22587SOL    HW278076   1.975   6.688   2.408  0.6796 -0.5311  3.1340
22588SOL     OW78077  11.189   2.082   5.585 -0.0247  0.3321  0.3477
22588SOL    HW178078  11.277   2.064   5.552  0.3632  1.2368  0.8860
22588SOL    HW278079  11.150   2.138   5.518 -0.8171 -1.4053 -0.7356
22589SOL     OW78080  10.780  12.921  12.881 -0.1003 -0.3542  0.0798
22589SOL    HW178081  10.805  12.829  12.877 -0.2765 -0.4415  0.8372
22589SOL    HW278082  10.850  12.963  12.931  1.1365  0.3518 -2.1397
22590SOL     OW78083   4.426  12.177   8.845 -0.6849  0.3762 -0.3454
22590SOL    HW178084   4.512  12.218   8.833 -0.2859 -0.6961 -1.2948
22590SOL    HW278085   4.406  12.137   8.760 -2.9966  2.1652 -0.7449
22591SOL     OW78086   3.440   9.070  12.452  0.1158  0.0145  0.2752
22591SOL    HW178087   3.410   9.061  12.543  2.1099  1.4619  1.1581
22591SOL    HW278088   3.442   9.165  12.437 -0.8435 -0.2151 -1.5512
22592SOL     OW78089   4.238   8.675   9.083 -0.4857 -0.1064 -0.0256
22592SOL    HW178090   4.145   8.651   9.075 -0.4794 -1.1068  2.2333
22592SOL    HW278091   4.246   8.709   9.172  1.3857 -0.3227 -0.0794
22593SOL     OW78092   9.370   6.865   3.987 -0.3259  0.2873 -0.4079
22593SOL    HW178093   9.356   6.901   3.899 -0.0400  1.6618  0.0908
22593SOL    HW278094   9.363   6.770   3.975 -0.7083  0.4720 -1.8365
22594SOL     OW78095   6.646   5.737   2.940 -0.0729 -0.1776  0.6743
22594SOL    HW178096   6.703   5.675   2.895 -1.2613 -0.8240 -0.0078
22594SOL    HW278097   6.616   5.797   2.871 -0.1308  0.2150  1.0366
22595SOL     OW78098   9.519   1.682   5.466 -0.6972 -0.6637  0.8212
22595SOL    HW178099   9.441   1.737   5.461  0.5515  1.2538  1.5895
22595SOL    HW278100   9.501   1.621   5.538 -1.3828 -0.0612  1.1699
22596SOL     OW78101   3.499  11.398   0.030 -0.0836  0.0596  0.3604
22596SOL    HW178102   3.447  11.395  -0.051  0.9954  2.1429 -0.5015
22596SOL    HW278103   3.489  11.488   0.061  0.6500 -0.3314  1.8148
22597SOL     OW78104   2.001   9.283  11.772  0.0668  0.4050  0.3204
22597SOL    HW178105   2.006   9.350  11.841  0.1208  0.8423 -0.1043
22597SOL    HW278106   1.999   9.200  11.820 -1.1815  0.7394  0.9080
22598SOL     OW78107   7.253   0.392   8.596  0.1068 -0.4519  0.1575
22598SOL    HW178108   7.258   0.483   8.624 -1.2067 -0.2738 -0.0949
22598SOL    HW278109   7.327   0.380   8.537 -1.1623  1.2200 -1.8937
22599SOL     OW78110  12.556   7.998   7.221 -0.4931  0.2922  0.0458
22599SOL    HW178111  12.495   7.925   7.231  0.8306 -0.8090  0.1942
22599SOL    HW278112  12.600   7.981   7.138  1.1526 -0.0959  0.9740
22600SOL     OW78113   5.543   4.429   1.722  0.7795 -0.3513  0.6068
22600SOL    HW178114   5.552   4.342   1.682  1.8662  0.1015 -0.1738
22600SOL    HW278115   5.485   4.477   1.663  0.4202 -0.4435  0.8804
22601SOL     OW78116   2.277  11.450   2.366 -0.0634  0.0800 -0.3534
22601SOL    HW178117   2.316  11.369   2.399 -0.3962 -0.4188 -1.1365
22601SOL    HW278118   2.266  11.434   2.272 -2.7744 -0.0670 -0.0926
22602SOL     OW78119   0.863   0.944  12.530 -0.7513 -0.1799  0.2043
22602SOL    HW178120   0.862   0.986  12.616  1.4122  0.1717  0.1326
22602SOL    HW278121   0.877   1.016  12.468  2.4626 -0.8071  0.0324
22603SOL     OW78122   4.233   9.489  10.634  0.0463  0.3636 -0.3776
22603SOL    HW178123   4.261   9.398  10.619 -0.8496  0.1037 -0.5469
22603SOL    HW278124   4.313   9.535  10.659  0.9029 -0.0266 -2.2714
22604SOL     OW78125   6.838   1.480   8.307 -0.1362  0.2845  0.2383
22604SOL    HW178126   6.822   1.503   8.216  2.7902  1.6123 -0.0433
22604SOL    HW278127   6.871   1.561   8.347 -0.0656 -0.6173  2.1399
22605SOL     OW78128  11.842   5.508   2.521 -0.1939 -0.4004 -0.4235
22605SOL    HW178129  11.846   5.415   2.542 -0.7016 -0.3791 -0.2056
22605SOL    HW278130  11.748   5.527   2.517 -0.0918  0.1907 -0.0760
22606SOL     OW78131  12.472   7.483   6.932  0.3913  0.2439  0.0470
22606SOL    HW178132  12.542   7.459   6.993 -0.1703 -0.0971  0.5693
22606SOL    HW278133  12.486   7.577   6.916  0.7203  0.2734  0.4740
22607SOL     OW78134  12.803   6.538   0.600 -0.4537 -0.6663  0.1244
22607SOL    HW178135  12.716   6.547   0.637 -0.3921 -0.9560  0.3438
22607SOL    HW278136  12.860   6.518   0.674 -0.4241 -1.8148 -0.1779
22608SOL     OW78137   4.281   4.502   5.264 -1.0670 -0.1318 -0.5758
22608SOL    HW178138   4.355   4.558   5.243  0.8414 -1.6874  1.4837
22608SOL    HW278139   4.292   4.426   5.206 -1.4905 -0.0132 -0.8084
22609SOL     OW78140   2.596   7.342   6.777 -0.1673  0.0227  0.2058
22609SOL    HW178141   2.686   7.363   6.753 -0.2830 -0.3570 -0.5960
22609SOL    HW278142   2.566   7.281   6.709 -0.6680 -0.7283  1.0714
22610SOL     OW78143  12.452   0.179  12.487  0.1516 -0.0033  0.1307
22610SOL    HW178144  12.528   0.174  12.545 -0.2623 -0.5609  0.6510
22610SOL    HW278145  12.437   0.272  12.473  1.7887  0.0983 -1.1492
22611SOL     OW78146   5.628   3.436   3.604 -0.6706  0.8641  0.1126
22611SOL    HW178147   5.696   3.458   3.667  0.9005  2.8442 -2.1074
22611SOL    HW278148   5.646   3.345   3.579  0.4508  0.9953  0.4043
22612SOL     OW78149   4.223  11.626  10.576 -0.0299  0.4254 -0.0271
22612SOL    HW178150   4.294  11.689  10.590 -0.5453  0.6280  2.0961
22612SOL    HW278151   4.150  11.660  10.627 -0.3831 -1.7587  1.0760
22613SOL     OW78152   5.795   1.508  10.204 -0.3003 -1.1164  0.1688
22613SOL    HW178153   5.849   1.586  10.191 -2.7206  0.7296  0.2843
22613SOL    HW278154   5.823   1.446  10.137  1.4710 -0.0146 -0.1561
22614SOL     OW78155   5.026  11.977   3.222  0.6504  0.0426  0.0714
22614SOL    HW178156   5.097  11.961   3.160 -1.0956 -2.0105 -1.5638
22614SOL    HW278157   5.053  11.930   3.302  1.2996 -0.4037 -0.4015
22615SOL     OW78158   3.517   9.687   0.599 -0.8100 -0.5874  0.0269
22615SOL    HW178159   3.439   9.635   0.618  0.0122 -1.3096  1.5939
22615SOL    HW278160   3.525   9.746   0.674  0.4501 -0.8910  0.1349
22616SOL     OW78161  12.885   6.051   9.232 -0.6788  0.7183  0.3302
22616SOL    HW178162  12.824   6.080   9.300  0.5502  0.4273  1.6001
22616SOL    HW278163  12.971   6.058   9.273  0.0298 -0.2565 -0.9354
22617SOL     OW78164   9.511  12.358  12.930 -0.0500  0.6639  0.0638
22617SOL    HW178165   9.563  12.314  12.862 -2.0771  0.0636 -1.1863
22617SOL    HW278166   9.499  12.447  12.897  0.2616  0.8263  0.3893
22618SOL     OW78167   4.616   9.103   3.800  0.0444  0.0615  0.5281
22618SOL    HW178168   4.654   9.022   3.833  2.0090 -0.1394 -1.9360
22618SOL    HW278169   4.553   9.075   3.734  0.6602  0.5015 -0.2678
22619SOL     OW78170   6.763  12.127   4.110  0.9488 -0.2363  0.1562
22619SOL    HW178171   6.741  12.209   4.065  1.5499  0.1174  0.4866
22619SOL    HW278172   6.686  12.072   4.099 -0.2261  1.0536  1.5155
22620SOL     OW78173   1.543   5.361   7.909 -0.1297 -0.1869  0.2917
22620SOL    HW178174   1.456   5.364   7.868  0.0048 -0.9620 -0.0543
22620SOL    HW278175   1.577   5.450   7.899  0.4212 -0.6175 -2.4535
22621SOL     OW78176  12.374   8.906   2.470 -0.0695  0.1166 -0.3906
22621SOL    HW178177  12.279   8.899   2.459 -0.2422  0.1355  0.9516
22621SOL    HW278178  12.387   8.983   2.526  0.7801  0.4338 -0.9972
22622SOL     OW78179  11.800   5.439   7.530  0.3155  0.0036 -0.4504
22622SOL    HW178180  11.737   5.370   7.550 -0.0576  0.3638 -0.3844
22622SOL    HW278181  11.880   5.392   7.505  0.1589 -0.4512 -0.1029
22623SOL     OW78182   7.938  12.865   0.186 -0.4640 -0.0926  0.1589
22623SOL    HW178183   7.965  12.947   0.228  0.9737 -0.0367 -0.8309
22623SOL    HW278184   7.931  12.803   0.259 -0.8271  0.6964  0.8217
22624SOL     OW78185   2.652   7.339   7.555  0.0786 -0.0361 -0.0183
22624SOL    HW178186   2.696   7.402   7.612 -1.4656  0.5878  0.5448
22624SOL    HW278187   2.676   7.253   7.590 -0.5917  0.3284  1.4079
22625SOL     OW78188   7.389  12.579   8.441 -0.1233 -0.4503 -0.0213
22625SOL    HW178189   7.455  12.611   8.379  0.5121  1.9311  1.7651
22625SOL    HW278190   7.422  12.494   8.470  0.5955 -0.6666 -1.3890
22626SOL     OW78191   3.911   7.168   0.747  0.4909  0.0046  0.2677
22626SOL    HW178192   3.957   7.084   0.752 -0.5806 -0.5675  0.8638
22626SOL    HW278193   3.833   7.150   0.695  0.5268  0.7774 -0.0761
22627SOL     OW78194   7.912   1.550   3.335 -0.4325 -0.3020 -0.3663
22627SOL    HW178195   7.984   1.523   3.392 -0.1980 -1.0564 -1.0096
22627SOL    HW278196   7.930   1.643   3.317 -1.9572  0.7930  2.9089
22628SOL     OW78197  11.765   1.190   5.960  0.2227 -0.4131  0.4490
22628SOL    HW178198  11.722   1.135   5.894  1.1649 -0.8668  0.1944
22628SOL    HW278199  11.855   1.199   5.928 -0.2038  2.3910 -0.2016
22629SOL     OW78200   8.752   8.016   1.724  0.0650  0.6133  0.2908
22629SOL    HW178201   8.757   8.053   1.812  0.7574 -1.7006  1.3005
22629SOL    HW278202   8.737   7.922   1.738  0.2381  0.1709 -2.0634
22630SOL     OW78203   3.878   2.368   5.217 -0.1005  0.5612  0.2095
22630SOL    HW178204   3.963   2.369   5.173 -0.9269 -0.3701 -1.5392
22630SOL    HW278205   3.827   2.436   5.173 -0.6619  0.2413  0.3495
22631SOL     OW78206   3.437   2.942   4.599 -0.0054  0.2619 -0.1567
22631SOL    HW178207   3.361   2.886   4.583  0.6823 -0.6783 -0.2682
22631SOL    HW278208   3.401   3.027   4.620 -1.0721  0.2370 -1.7071
22632SOL     OW78209   9.247   4.463   8.094  0.0559  0.3752 -0.1156
22632SOL    HW178210   9.220   4.422   8.011  0.7058  2.5426 -1.4812
22632SOL    HW278211   9.342   4.471   8.086  0.3606 -0.9364  1.6503
22633SOL     OW78212  11.651   3.433   9.129 -0.1193  0.1645 -0.1585
22633SOL    HW178213  11.580   3.406   9.071 -0.9130 -3.2845  2.1429
22633SOL    HW278214  11.612   3.498   9.186 -1.1364 -0.8290  0.3149
22634SOL     OW78215   4.206  12.607   5.086  0.3603 -0.1228 -0.1835
22634SOL    HW178216   4.226  12.538   5.149  0.0427  0.9074  1.0707
22634SOL    HW278217   4.210  12.563   5.001 -1.0562 -1.9725  0.6493
22635SOL     OW78218  10.320   1.947   9.823 -0.2419 -0.1354  0.4897
22635SOL    HW178219  10.338   1.854   9.836  0.1007 -0.0540  0.5959
22635SOL    HW278220  10.260   1.949   9.748  1.0570 -0.3452 -0.5996
22636SOL     OW78221   5.439   6.139   8.125  0.1393 -0.0773  0.2491
22636SOL    HW178222   5.404   6.165   8.040 -0.2660 -3.2098 -0.6769
22636SOL    HW278223   5.378   6.177   8.189 -1.0474  0.1879 -0.9951
22637SOL     OW78224   0.715   2.186   2.525 -0.1495 -0.3770 -0.1298
22637SOL    HW178225   0.761   2.182   2.609  0.9975  1.7760 -0.5946
22637SOL    HW278226   0.623   2.197   2.549  0.1099 -0.2439  0.8533
22638SOL     OW78227   2.192   8.789   9.808  0.7381 -0.2190 -0.5582
22638SOL    HW178228   2.278   8.762   9.776  0.7305 -1.3330  0.3202
22638SOL    HW278229   2.195   8.885   9.806  2.3358 -0.2186  0.3067
22639SOL     OW78230  11.090   2.106   5.320  0.6850  0.6925  0.0735
22639SOL    HW178231  11.144   2.180   5.295  0.6902  0.0994 -1.8457
22639SOL    HW278232  11.081   2.055   5.239 -0.3232 -0.7459  1.0504
22640SOL     OW78233   5.964  12.560   5.129  0.6658 -0.3208  0.5463
22640SOL    HW178234   5.967  12.616   5.207 -1.1151 -0.5293  0.7906
22640SOL    HW278235   5.999  12.615   5.059  2.1967 -0.0947  1.4221
22641SOL     OW78236   9.775   5.430   8.457 -0.3565  0.0822  0.5020
22641SOL    HW178237   9.766   5.346   8.411  0.8147  0.4633 -0.4787
22641SOL    HW278238   9.803   5.407   8.545 -0.0989 -0.5626  0.2558
22642SOL     OW78239   4.750   0.083  10.678 -0.3725  0.1856  0.3191
22642SOL    HW178240   4.681   0.018  10.665 -2.2180  2.1737 -0.2321
22642SOL    HW278241   4.812   0.067  10.607 -2.4099  0.9826 -1.7414
22643SOL     OW78242   5.859   2.572  10.427  0.3294  0.2403 -0.2710
22643SOL    HW178243   5.874   2.480  10.406  0.7025  0.6117 -1.7661
22643SOL    HW278244   5.910   2.620  10.362 -0.9690  1.5013 -0.4215
22644SOL     OW78245  10.523   0.245   9.809  0.0777 -0.5771  0.6530
22644SOL    HW178246  10.484   0.318   9.762 -1.1305 -0.8220  1.2026
22644SOL    HW278247  10.518   0.271   9.901 -0.7009 -1.4742  0.8813
22645SOL     OW78248   2.643  10.851   2.517  0.1569  0.1976 -0.1001
22645SOL    HW178249   2.717  10.806   2.476 -0.9110 -1.2804 -0.4843
22645SOL    HW278250   2.630  10.929   2.463 -0.0807 -0.7899 -1.5141
22646SOL     OW78251   3.460   2.063   2.682  0.5970  0.4528 -0.0426
22646SOL    HW178252   3.518   2.137   2.698 -0.0965  0.9821  0.0965
22646SOL    HW278253   3.390   2.099   2.627 -0.1269  0.0888  0.6205
22647SOL     OW78254   8.008  12.841   2.788 -0.4554  0.0712 -0.3519
22647SOL    HW178255   7.966  12.762   2.754 -0.9625  0.7505 -1.3504
22647SOL    HW278256   8.091  12.846   2.740 -0.5351  0.2797 -0.4662
22648SOL     OW78257   5.404   2.764   4.577  0.0866 -0.5114  0.0448
22648SOL    HW178258   5.427   2.671   4.575 -0.7492 -0.7257  0.1046
22648SOL    HW278259   5.470   2.806   4.522 -0.0428 -1.2576 -0.7040
22649SOL     OW78260   9.417   3.635   6.820 -0.3403  0.0168 -0.0250
22649SOL    HW178261   9.500   3.592   6.838 -0.1300  0.6951  0.6689
22649SOL    HW278262   9.399   3.687   6.898 -1.6259 -0.4386  0.0128
22650SOL     OW78263   1.529   2.450   6.046 -0.7659  0.3716  0.1167
22650SOL    HW178264   1.593   2.437   5.975 -1.1801  0.9993 -0.3830
22650SOL    HW278265   1.573   2.509   6.107  0.9773 -2.7843  2.2077
22651SOL     OW78266   8.577   7.285  11.711  0.1260  0.8626  0.2909
22651SOL    HW178267   8.636   7.282  11.636  0.3591  1.6194  0.4314
22651SOL    HW278268   8.523   7.363  11.697 -0.9864  0.0767  0.0692
22652SOL     OW78269   5.297   3.312   0.903 -0.6362 -0.6508 -0.0547
22652SOL    HW178270   5.323   3.399   0.872 -1.0578 -0.4349  0.1973
22652SOL    HW278271   5.208   3.300   0.870 -0.3085 -1.3027 -0.7291
22653SOL     OW78272   2.472   7.542   5.548  0.3512  0.0986  0.0640
22653SOL    HW178273   2.378   7.531   5.565 -0.2819  0.3282 -2.7562
22653SOL    HW278274   2.502   7.598   5.619 -1.8569  0.7611  0.5713
22654SOL     OW78275   8.942   1.758   2.316  0.6068  1.2669  0.4371
22654SOL    HW178276   8.884   1.741   2.241  1.2693 -1.0299  0.3682
22654SOL    HW278277   9.028   1.770   2.277  0.9801 -0.0936  0.8065
22655SOL     OW78278   2.848   2.324  11.882 -0.3932 -0.0485 -0.1711
22655SOL    HW178279   2.815   2.410  11.909 -0.6305  0.5648 -2.2542
22655SOL    HW278280   2.780   2.263  11.908  0.4031  0.1251  2.6537
22656SOL     OW78281   1.160   0.952   9.043 -0.0361  0.3885 -0.7233
22656SOL    HW178282   1.199   1.037   9.063 -1.1354  1.0102 -1.1199
22656SOL    HW278283   1.078   0.973   8.998 -0.3844 -0.8813 -0.7309
22657SOL     OW78284   0.537   7.308  10.187  0.1488  0.3674  0.4520
22657SOL    HW178285   0.628   7.293  10.163  0.5824  0.9640  1.6305
22657SOL    HW278286   0.505   7.223  10.216  0.5927  0.3399  0.8603
22658SOL     OW78287   0.918   8.255  11.921  0.0150 -0.0954  0.1344
22658SOL    HW178288   0.920   8.176  11.867 -3.4579 -0.3870  0.2222
22658SOL    HW278289   0.904   8.223  12.010 -1.5521  0.5520  0.1519
22659SOL     OW78290   2.555   6.482   8.909 -0.2347  0.5291  0.0678
22659SOL    HW178291   2.639   6.521   8.932  0.2518 -0.5681  0.2523
22659SOL    HW278292   2.544   6.411   8.972  0.6819 -1.9834 -2.3604
22660SOL     OW78293   3.030   9.193  10.252 -0.4666 -0.3983  0.3476
22660SOL    HW178294   3.075   9.110  10.237 -0.1939 -0.2661  0.4206
22660SOL    HW278295   2.976   9.205  10.174  0.3435 -0.1059 -0.1830
22661SOL     OW78296  12.839   5.570   2.843  0.1899  0.2468  0.1269
22661SOL    HW178297  12.871   5.487   2.877  0.3721  0.5790  0.7799
22661SOL    HW278298  12.816   5.551   2.752 -1.1658 -0.8712  0.6798
22662SOL     OW78299   2.222   0.131   3.250 -0.2152 -0.2099 -0.0277
22662SOL    HW178300   2.247   0.150   3.160 -2.0577 -1.5899 -0.9205
22662SOL    HW278301   2.287   0.068   3.281  0.4662  0.3275 -0.3468
22663SOL     OW78302   5.863   6.389   8.964 -0.3278 -0.6236  0.1069
22663SOL    HW178303   5.790   6.368   8.906  0.1067 -0.4193 -0.5264
22663SOL    HW278304   5.920   6.445   8.911 -0.1807  0.0009  0.9041
22664SOL     OW78305   7.399   8.038   4.707 -0.4062  0.4501  0.1590
22664SOL    HW178306   7.350   8.105   4.661  0.9121  1.5433  0.2592
22664SOL    HW278307   7.439   8.085   4.781  1.3979 -0.1826 -0.3649
22665SOL     OW78308  12.847   0.544   2.895 -0.8631 -0.3459 -0.0234
22665SOL    HW178309  12.908   0.492   2.844 -1.4745  0.5740 -1.7863
22665SOL    HW278310  12.877   0.635   2.883 -1.6923 -0.0203  0.2901
22666SOL     OW78311   7.294   1.172   0.417 -0.2490 -0.5331  0.5881
22666SOL    HW178312   7.310   1.122   0.497  0.5964 -0.2464  0.6074
22666SOL    HW278313   7.199   1.169   0.405 -0.5576  0.6785  2.4055
22667SOL     OW78314  12.235   0.252   8.221 -0.0171 -0.0376 -0.8142
22667SOL    HW178315  12.264   0.329   8.271  2.2428 -1.6043  0.4629
22667SOL    HW278316  12.250   0.276   8.130  1.6406  0.7151 -0.3889
22668SOL     OW78317  10.280  10.372  10.529  0.5269  0.6098 -0.4424
22668SOL    HW178318  10.350  10.309  10.548  0.3571  0.3598 -0.6438
22668SOL    HW278319  10.313  10.455  10.565  1.2666  0.6744 -1.2247
22669SOL     OW78320   3.903   4.546   3.084 -0.1696  0.1660  0.4370
22669SOL    HW178321   3.834   4.607   3.059  0.8205  1.9413  1.8002
22669SOL    HW278322   3.961   4.597   3.141  1.4875 -1.6624  0.5049
22670SOL     OW78323   4.913  10.249   2.568 -0.3200  0.5170 -0.2244
22670SOL    HW178324   4.919  10.175   2.629 -0.4715  2.6222  2.5485
22670SOL    HW278325   4.835  10.297   2.596 -0.5063  1.5066 -2.2539
22671SOL     OW78326  12.917   0.578  12.598  0.4138  0.1632 -0.0757
22671SOL    HW178327  12.887   0.648  12.655  0.7453  1.0759 -0.9967
22671SOL    HW278328  12.964   0.518  12.657 -0.2763  0.4555  0.7943
22672SOL     OW78329   2.413  12.648   3.914 -0.3698 -0.1920 -0.4306
22672SOL    HW178330   2.340  12.589   3.931 -1.7807  1.3965 -0.7424
22672SOL    HW278331   2.451  12.616   3.832 -1.9931  0.1131 -1.3512
22673SOL     OW78332   1.550   3.264   9.503 -0.1030 -0.2877  0.9283
22673SOL    HW178333   1.571   3.305   9.587 -1.0020 -1.2332  1.6522
22673SOL    HW278334   1.455   3.276   9.494  0.1945  1.1656 -0.7330
22674SOL     OW78335   2.849   7.347  11.045 -0.5352  0.0557  0.4277
22674SOL    HW178336   2.935   7.342  11.087 -0.2615  0.8818 -0.0195
22674SOL    HW278337   2.810   7.261  11.061  0.2546 -0.2285  0.8878
22675SOL     OW78338   7.176   5.082   3.606 -0.0934  0.4865  0.1075
22675SOL    HW178339   7.249   5.105   3.548  0.9624 -1.6863  0.4853
22675SOL    HW278340   7.207   5.006   3.654 -1.9605  0.6261  1.6217
22676SOL     OW78341  10.541   0.071  10.342  0.0411 -0.2473  0.2966
22676SOL    HW178342  10.488   0.151  10.348 -2.0262 -1.6808  2.7849
22676SOL    HW278343  10.589   0.067  10.424 -1.3928 -2.4737  1.1156
22677SOL     OW78344  10.550   1.017   3.112  0.1356  0.2913  0.2517
22677SOL    HW178345  10.620   0.959   3.082  2.0478  1.3730  2.2726
22677SOL    HW278346  10.524   1.066   3.035  0.7705 -0.9348 -0.7826
22678SOL     OW78347   0.036   0.750   1.664 -0.2069 -0.5247  0.1995
22678SOL    HW178348   0.075   0.760   1.751 -0.3560 -1.0536  0.3345
22678SOL    HW278349   0.007   0.659   1.662  1.6081 -1.1435 -1.1452
22679SOL     OW78350  10.740   5.013   0.835  0.1567  0.7718 -0.3420
22679SOL    HW178351  10.824   5.058   0.821  1.0090 -0.9757 -1.2611
22679SOL    HW278352  10.702   5.056   0.911  2.6263  0.6600  1.0875
22680SOL     OW78353  10.192   2.700  12.094  0.3375  0.9511 -0.1120
22680SOL    HW178354  10.158   2.615  12.066 -0.0338  1.2182 -0.4603
22680SOL    HW278355  10.152   2.714  12.180 -1.0116  1.5951 -0.8247
22681SOL     OW78356  11.662   5.111   3.396 -0.2319 -0.2185  0.6260
22681SOL    HW178357  11.621   5.121   3.310  0.8210  0.1279  0.1439
22681SOL    HW278358  11.660   5.199   3.434 -0.7290 -0.3783  0.9738
22682SOL     OW78359   7.471   1.935   6.415 -0.8798  0.1132  0.8935
22682SOL    HW178360   7.434   1.963   6.332  0.3730  0.7849  0.5305
22682SOL    HW278361   7.534   2.004   6.437  0.5959 -1.2703  1.1605
22683SOL     OW78362   0.951  11.912   2.994  0.2643 -0.2697  0.2453
22683SOL    HW178363   0.934  11.965   3.072  0.7647 -0.6356  0.6105
22683SOL    HW278364   1.004  11.968   2.938 -0.6960  0.2537 -0.1509
22684SOL     OW78365   0.220   9.992  12.394 -0.1109  0.0114 -0.6751
22684SOL    HW178366   0.138  10.013  12.348 -1.0823  1.3318  1.4959
22684SOL    HW278367   0.220   9.896  12.399 -1.5731 -0.0236 -0.6863
22685SOL     OW78368   3.610   1.908   9.243 -0.4801  0.3352  0.1939
22685SOL    HW178369   3.541   1.842   9.252  0.5901 -0.7984  0.3847
22685SOL    HW278370   3.634   1.930   9.333 -1.8241  2.1116  0.1670
22686SOL     OW78371   4.146   7.840   0.026 -0.1281 -0.1961 -0.1883
22686SOL    HW178372   4.121   7.806   0.112 -1.9938  1.2572 -0.0818
22686SOL    HW278373   4.221   7.896   0.043 -1.5373  1.4655  0.8464
22687SOL     OW78374   4.025   3.108   3.489  0.2163  0.0677 -0.1794
22687SOL    HW178375   3.975   3.178   3.448 -1.6007 -0.0451  1.6638
22687SOL    HW278376   3.973   3.083   3.566  2.8952 -0.3926  1.6238
22688SOL     OW78377   1.044   2.235   8.326 -0.4574 -0.0863 -0.8242
22688SOL    HW178378   1.133   2.245   8.360 -0.3526  1.3529 -1.4770
22688SOL    HW278379   1.023   2.143   8.344  1.1478 -0.4626 -0.6444
22689SOL     OW78380   5.251   8.220  12.624 -0.5205  0.2720  0.2181
22689SOL    HW178381   5.227   8.129  12.641  1.9258 -0.5013 -0.0667
22689SOL    HW278382   5.189   8.248  12.556 -2.4211 -0.5746  1.4973
22690SOL     OW78383   0.734   0.437   2.999  0.1046 -0.0769 -0.0054
22690SOL    HW178384   0.767   0.475   3.080  1.0246  0.9035 -0.8133
22690SOL    HW278385   0.720   0.344   3.020  0.2272  0.1771  1.2864
22691SOL     OW78386   0.293   1.698   5.159  0.3152 -0.2844 -0.3394
22691SOL    HW178387   0.368   1.755   5.176 -0.6756  1.5217 -1.6641
22691SOL    HW278388   0.319   1.613   5.194  1.3362  1.2419  3.0090
22692SOL     OW78389   2.769  11.576   1.260  0.0586  0.0154 -0.0737
22692SOL    HW178390   2.861  11.588   1.285 -0.3501  1.3039  0.9736
22692SOL    HW278391   2.765  11.602   1.168  0.8976 -0.9620 -0.4030
22693SOL     OW78392   5.735   2.621  10.924 -0.1309 -0.4527  0.5156
22693SOL    HW178393   5.683   2.701  10.920  0.3998 -0.1589 -0.7055
22693SOL    HW278394   5.801   2.630  10.855 -0.2468 -2.0676  0.1411
22694SOL     OW78395   6.712   9.793  10.046  0.0207 -0.1395 -0.0553
22694SOL    HW178396   6.745   9.733  10.112 -2.4902 -0.4951  0.9687
22694SOL    HW278397   6.671   9.736   9.980  0.5028  0.3253 -0.7732
22695SOL     OW78398   8.403   3.963   2.426  0.0443 -0.4684 -0.1631
22695SOL    HW178399   8.474   3.915   2.468  0.7995  1.0397  0.3505
22695SOL    HW278400   8.361   3.898   2.369  1.8056 -1.4087 -0.4758
22696SOL     OW78401  10.592   1.636   6.278  0.5000 -0.3367 -0.2138
22696SOL    HW178402  10.595   1.575   6.351  0.0049 -0.2284 -0.1020
22696SOL    HW278403  10.684   1.655   6.260  0.6101  0.9234  1.4556
22697SOL     OW78404  12.100   6.846   5.617  0.3921 -0.2175  0.0451
22697SOL    HW178405  12.008   6.835   5.640  0.8121 -0.9405  1.4775
22697SOL    HW278406  12.103   6.930   5.571 -0.6109  1.0616  2.1493
22698SOL     OW78407  12.120   0.285   9.975 -0.3913  0.1538  0.4328
22698SOL    HW178408  12.161   0.221  10.033 -1.6688 -0.2275  0.9403
22698SOL    HW278409  12.109   0.363  10.029 -0.2222  0.3070  0.2510
22699SOL     OW78410   2.140  12.110   6.229  0.1468 -0.2897 -0.1128
22699SOL    HW178411   2.048  12.086   6.218 -0.2467  0.3890  1.4008
22699SOL    HW278412   2.138  12.185   6.288  1.7615 -1.7003  1.9218
22700SOL     OW78413   6.232   0.215  12.066  0.3188  0.0000 -0.3527
22700SOL    HW178414   6.184   0.183  12.142  1.0248  0.3367  0.2435
22700SOL    HW278415   6.323   0.192  12.084  0.8270  2.0877 -0.0277
22701SOL     OW78416   9.731   8.932  11.638  0.2349  0.0224 -0.0582
22701SOL    HW178417   9.692   8.849  11.664  0.1969  0.4296  1.2419
22701SOL    HW278418   9.805   8.908  11.582  1.3016 -0.9764  1.7145
22702SOL     OW78419   7.994   1.267   8.991  0.8024  0.0341 -0.0150
22702SOL    HW178420   8.088   1.263   9.008  0.3300 -1.2290  2.8325
22702SOL    HW278421   7.954   1.224   9.066 -2.1359  1.5773 -0.5462
22703SOL     OW78422   7.510   9.162   2.156  0.1805 -0.4156 -0.3265
22703SOL    HW178423   7.446   9.111   2.207 -0.0300 -0.7410 -0.9038
22703SOL    HW278424   7.519   9.113   2.074  1.8853 -0.8887  0.1130
22704SOL     OW78425   3.046   9.863   9.377  0.4696  0.5597  0.1683
22704SOL    HW178426   3.008   9.867   9.288 -0.0887  0.0318  0.3734
22704SOL    HW278427   3.126   9.915   9.371  0.2415  0.8485 -0.5505
22705SOL     OW78428   9.480   7.452   5.030  0.5020  0.3847  0.3222
22705SOL    HW178429   9.396   7.449   5.077 -0.7684  2.2784 -1.6076
22705SOL    HW278430   9.544   7.417   5.092 -1.6698 -1.0131  1.9311
22706SOL     OW78431   2.942   7.586   7.243 -0.4135  0.5946  0.1074
22706SOL    HW178432   3.002   7.642   7.293 -0.4355  1.1397 -0.4719
22706SOL    HW278433   2.869   7.570   7.303 -0.2739  0.9559  0.3779
22707SOL     OW78434   4.360   3.050   7.372  0.0192 -0.1843  0.2755
22707SOL    HW178435   4.407   3.025   7.451 -0.7431 -0.3281  0.6986
22707SOL    HW278436   4.427   3.082   7.312  0.3443  2.9015  2.0845
22708SOL     OW78437   1.295   0.761   0.096 -0.1743 -0.0949 -0.0146
22708SOL    HW178438   1.246   0.761   0.014 -0.8597  1.6772  0.3514
22708SOL    HW278439   1.272   0.678   0.138 -0.1095 -0.8519 -1.4155
22709SOL     OW78440   7.816   7.143   2.314 -0.5179 -0.0218 -0.3025
22709SOL    HW178441   7.754   7.141   2.386  0.0616  1.1117  0.2534
22709SOL    HW278442   7.772   7.097   2.243 -1.2508 -0.8197  0.6470
22710SOL     OW78443   6.455  10.244   6.567 -0.5101 -0.3230  0.7236
22710SOL    HW178444   6.478  10.204   6.484 -2.7276  0.4640 -0.3471
22710SOL    HW278445   6.495  10.188   6.633 -0.6110 -2.2920 -0.8199
22711SOL     OW78446   0.536   4.594   0.725 -0.4473 -0.0052  0.1899
22711SOL    HW178447   0.545   4.506   0.761 -0.3158 -0.8210 -1.7041
22711SOL    HW278448   0.463   4.632   0.774 -1.9256 -1.9504 -0.3587
22712SOL     OW78449   0.491   0.903   5.012 -0.4075 -0.0801  0.3174
22712SOL    HW178450   0.568   0.917   4.959  0.9844  0.1176  2.2696
22712SOL    HW278451   0.517   0.929   5.100 -1.6026 -3.0703  1.7297
22713SOL     OW78452  11.244   8.297   8.295 -0.1119  0.0857 -0.0355
22713SOL    HW178453  11.153   8.298   8.326 -0.3643  1.2051 -0.7307
22713SOL    HW278454  11.279   8.214   8.325 -0.7920  0.4599  1.9138
22714SOL     OW78455   0.693   2.204  10.599 -0.2020  0.1526 -0.2843
22714SOL    HW178456   0.645   2.221  10.518  0.4435 -0.6728 -0.8716
22714SOL    HW278457   0.771   2.155  10.570 -0.7082 -1.4903  0.9873
22715SOL     OW78458  11.956   8.595   6.932 -0.6280  0.0841  0.4127
22715SOL    HW178459  11.968   8.588   6.838  0.1949  1.3671  0.3960
22715SOL    HW278460  12.035   8.555   6.970 -0.5437  0.3565  0.5293
22716SOL     OW78461  11.119   2.927  11.200 -0.0405 -0.0111  0.3969
22716SOL    HW178462  11.049   2.935  11.135 -0.4664 -0.0769  0.8401
22716SOL    HW278463  11.168   3.008  11.192 -0.9038  0.5812  0.9178
22717SOL     OW78464  12.395   7.820  11.209 -0.3545  0.5274 -0.3994
22717SOL    HW178465  12.393   7.733  11.169  2.4563 -0.5535  1.4525
22717SOL    HW278466  12.486   7.849  11.199 -0.9639  2.8127  0.0076
22718SOL     OW78467  12.541   1.367   8.317  0.0391 -0.2690 -1.1467
22718SOL    HW178468  12.516   1.384   8.226 -2.9466  0.9693 -0.2291
22718SOL    HW278469  12.502   1.282   8.336 -0.9969  0.3140 -0.5530
22719SOL     OW78470   2.509   8.059  12.695  0.3155  0.2990  0.3985
22719SOL    HW178471   2.585   8.079  12.749  0.1771 -1.5947  1.4235
22719SOL    HW278472   2.530   7.975  12.654 -2.1263 -1.7445  2.8389
22720SOL     OW78473   6.929  11.984   7.761 -0.2210  0.1757  0.2977
22720SOL    HW178474   6.895  11.900   7.729 -0.7375 -0.4623  2.3764
22720SOL    HW278475   7.005  11.961   7.813 -0.2053  1.0362  0.6694
22721SOL     OW78476   6.340   5.397   3.717 -0.0256 -0.7349  0.0434
22721SOL    HW178477   6.292   5.346   3.652  0.3783 -0.9083 -0.1201
22721SOL    HW278478   6.362   5.479   3.673  0.4697 -0.9561 -0.1231
22722SOL     OW78479   0.698   1.795   3.249 -0.8075 -0.0556  0.1205
22722SOL    HW178480   0.758   1.856   3.207 -1.4994  0.5792  0.0393
22722SOL    HW278481   0.632   1.777   3.183  0.8633 -3.1834 -0.9462
22723SOL     OW78482   0.812   0.776   1.802 -0.1008 -0.1583  0.3136
22723SOL    HW178483   0.761   0.757   1.881 -0.5208 -2.0256 -0.3634
22723SOL    HW278484   0.893   0.814   1.835 -0.4575 -0.4843  1.6262
22724SOL     OW78485  10.831  10.708   6.225  0.0304  0.1940 -0.5577
22724SOL    HW178486  10.783  10.779   6.182 -0.4444 -0.3392 -0.9252
22724SOL    HW278487  10.919  10.711   6.187  0.5328  1.6372  0.6399
22725SOL     OW78488   3.605   4.254   4.435  0.3624  0.1718 -0.1147
22725SOL    HW178489   3.578   4.188   4.498 -0.9920  1.5783  0.8675
22725SOL    HW278490   3.578   4.218   4.350 -0.4634 -0.4730  0.4047
22726SOL     OW78491   8.589   8.695  12.425 -0.1935  0.6431  0.0697
22726SOL    HW178492   8.568   8.757  12.355 -1.4647 -0.7759 -0.8713
22726SOL    HW278493   8.508   8.689  12.476  0.1149  0.2138  0.5202
22727SOL     OW78494   6.111   7.044   4.505  0.6927 -0.3042 -0.1579
22727SOL    HW178495   6.051   6.976   4.476 -0.6495  0.3107  1.0715
22727SOL    HW278496   6.160   7.004   4.577  1.1077 -0.4997 -0.5430
22728SOL     OW78497   1.202   3.298   6.120  0.1532  0.3292 -0.5162
22728SOL    HW178498   1.123   3.317   6.171  0.0613  0.4892 -0.7165
22728SOL    HW278499   1.172   3.241   6.050  0.0107  1.2364 -1.2149
22729SOL     OW78500   9.679  12.064  12.942  0.3349 -0.0368 -0.3506
22729SOL    HW178501   9.660  11.972  12.923  0.9353  0.0665 -1.5342
22729SOL    HW278502   9.594  12.108  12.938  0.3693 -0.0375 -2.8692
22730SOL     OW78503   2.600   6.961   4.284 -0.5456  0.2404 -0.3991
22730SOL    HW178504   2.688   6.926   4.272 -1.1155 -1.5895  0.3895
22730SOL    HW278505   2.611   7.027   4.353  0.3182  0.5467 -0.8119
22731SOL     OW78506   1.854   7.742  12.941  0.2220 -0.3014 -0.4649
22731SOL    HW178507   1.788   7.680  12.971 -1.4098  1.7927  0.4926
22731SOL    HW278508   1.924   7.737  13.006 -0.0502 -0.8748 -0.2134
22732SOL     OW78509   0.864   5.672   7.091 -0.2693 -0.6966  0.0127
22732SOL    HW178510   0.816   5.699   7.170 -0.0346 -0.5562  0.1094
22732SOL    HW278511   0.809   5.605   7.051 -0.4645 -0.6585  0.2141
22733SOL     OW78512   1.582   6.223  11.279  0.2930  0.3592  0.0720
22733SOL    HW178513   1.573   6.140  11.232 -0.4286  0.9064 -0.7936
22733SOL    HW278514   1.637   6.202  11.354  0.3885 -0.8317 -0.3055
22734SOL     OW78515   7.957   7.702   4.731 -0.3829 -0.1483  0.3938
22734SOL    HW178516   7.993   7.643   4.797  0.3365  2.1593  2.2196
22734SOL    HW278517   8.032   7.725   4.677  0.1853  1.7146  1.8622
22735SOL     OW78518   3.532   3.555  11.592 -0.1895 -0.0008 -0.6184
22735SOL    HW178519   3.519   3.498  11.668  0.6595  0.3100 -0.2314
22735SOL    HW278520   3.456   3.538  11.536 -0.3438 -0.9276 -0.1417
22736SOL     OW78521   2.054   1.761   4.632  0.0875 -0.2297 -0.4494
22736SOL    HW178522   1.971   1.781   4.588  1.5877  0.9774 -2.9355
22736SOL    HW278523   2.082   1.845   4.669  0.8824 -0.2793 -0.9216
22737SOL     OW78524   6.890   7.953   0.746  0.2578 -0.3009 -0.1016
22737SOL    HW178525   6.950   7.959   0.672  0.4670  1.3027  0.1530
22737SOL    HW278526   6.805   7.979   0.710 -0.3767 -2.6782 -0.4890
22738SOL     OW78527   0.110   1.644   8.248  0.6996 -0.4047 -0.5067
22738SOL    HW178528   0.186   1.677   8.295  1.5127  0.4958 -2.3518
22738SOL    HW278529   0.132   1.553   8.228  0.9556 -0.3703 -0.3825
22739SOL     OW78530   1.079  12.088   0.494 -0.3134 -0.4501 -0.4541
22739SOL    HW178531   1.046  12.126   0.575 -0.5858 -0.4891 -0.5458
22739SOL    HW278532   1.009  12.104   0.430  0.5503  1.0166 -1.0882
22740SOL     OW78533   2.937   8.215   9.326  0.2250  0.5115 -0.5818
22740SOL    HW178534   2.945   8.251   9.415 -1.4943  0.1457 -0.2309
22740SOL    HW278535   2.970   8.126   9.333  0.6247  0.6688 -0.4516
22741SOL     OW78536   1.459   7.823   0.786 -0.1852 -0.5325 -0.2440
22741SOL    HW178537   1.373   7.850   0.754 -0.2953  0.7788  1.0389
22741SOL    HW278538   1.474   7.737   0.745 -0.7250  0.5536 -2.9108
22742SOL     OW78539   3.093   9.459   6.430 -0.0288  0.2833 -0.1783
22742SOL    HW178540   3.009   9.489   6.464  0.1320 -0.9123  1.4010
22742SOL    HW278541   3.130   9.405   6.501  0.9595 -1.2346 -1.7639
22743SOL     OW78542   2.208   1.046  10.402 -0.2765 -0.3380 -0.2304
22743SOL    HW178543   2.215   1.128  10.352  0.7807  0.2169  0.7941
22743SOL    HW278544   2.125   1.054  10.450  1.1536  1.5172  2.1684
22744SOL     OW78545   3.821  11.461   2.821 -0.5113  0.3388 -0.3020
22744SOL    HW178546   3.743  11.479   2.872  0.7939  0.5797  1.7085
22744SOL    HW278547   3.887  11.436   2.885  1.0799  0.1230 -1.9265
22745SOL     OW78548   4.787   7.860   4.212  0.7725 -0.1034 -0.2002
22745SOL    HW178549   4.730   7.784   4.202  1.2923 -0.3901 -1.0813
22745SOL    HW278550   4.727   7.935   4.208  0.3563 -0.4292 -0.1608
22746SOL     OW78551   0.975   1.593   2.283  0.7137 -0.7238  0.3652
22746SOL    HW178552   0.980   1.502   2.256  0.9407 -0.8268  0.7408
22746SOL    HW278553   1.052   1.634   2.244 -0.4339 -0.2267 -1.4790
22747SOL     OW78554   1.741   1.233  12.757 -0.3103  0.3822 -0.1174
22747SOL    HW178555   1.734   1.207  12.665 -0.6424  1.4972 -0.4254
22747SOL    HW278556   1.658   1.277  12.776  0.8288  2.7064 -0.1500
22748SOL     OW78557   5.719   6.510   9.697  0.4681  0.6318  0.2649
22748SOL    HW178558   5.676   6.500   9.611  0.9871 -0.9281  0.1525
22748SOL    HW278559   5.688   6.594   9.729 -0.8729  0.6066 -0.8319
22749SOL     OW78560   5.169  12.300  11.437  0.2817  0.3659  0.0649
22749SOL    HW178561   5.173  12.205  11.428  0.0792  0.3782 -0.1481
22749SOL    HW278562   5.133  12.331  11.354 -0.2430  0.5804  0.3678
22750SOL     OW78563   7.222   4.497   1.754 -0.2023  0.0095 -0.3882
22750SOL    HW178564   7.257   4.419   1.712  0.7205  1.2571 -2.0856
22750SOL    HW278565   7.178   4.465   1.832 -2.3327 -2.5413 -2.4416
22751SOL     OW78566   1.419  10.642   9.857  0.1281 -0.8209  0.3389
22751SOL    HW178567   1.514  10.640   9.866  0.1575 -0.6095  0.0650
22751SOL    HW278568   1.397  10.563   9.808  0.4707  0.7040 -2.4863
22752SOL     OW78569   3.284  10.763   6.396 -0.3884 -0.6955 -0.3830
22752SOL    HW178570   3.334  10.800   6.469  1.7341 -1.2336 -1.4682
22752SOL    HW278571   3.308  10.817   6.321 -1.2581 -1.1460 -0.9963
22753SOL     OW78572  11.356   6.694   5.671 -0.1834  0.0159  0.3436
22753SOL    HW178573  11.317   6.645   5.742 -0.2359  0.7462  0.8283
22753SOL    HW278574  11.426   6.745   5.712 -1.1666  1.5772  0.1551
22754SOL     OW78575   9.425   3.551   8.917  1.2420 -0.5623 -0.0280
22754SOL    HW178576   9.462   3.465   8.901  0.7435 -1.4377  2.8909
22754SOL    HW278577   9.341   3.550   8.871  1.3917 -1.5108 -0.3025
22755SOL     OW78578   7.678   9.585   2.776 -0.7638 -0.0563  0.3827
22755SOL    HW178579   7.613   9.653   2.756  0.0925  0.9774  0.9786
22755SOL    HW278580   7.659   9.515   2.714 -1.2857  0.9883 -0.6920
22756SOL     OW78581   3.628   7.117  10.072  0.0847 -0.0872 -0.0833
22756SOL    HW178582   3.560   7.177  10.105  0.0500 -0.9741  1.5836
22756SOL    HW278583   3.585   7.032  10.069  0.6528 -0.3566 -0.6493
22757SOL     OW78584  12.822   4.903   3.128 -0.3180 -0.6291  0.0501
22757SOL    HW178585  12.889   4.848   3.088  0.8214  0.6281  0.1453
22757SOL    HW278586  12.761   4.841   3.169 -0.3716 -1.8757 -1.7898
22758SOL     OW78587  10.532  11.218   5.912  0.0697  0.3685 -0.0017
22758SOL    HW178588  10.616  11.264   5.919  0.3242 -0.2231  0.9870
22758SOL    HW278589  10.484  11.243   5.990  0.9809 -2.4794  1.6051
22759SOL     OW78590  12.420   8.794  11.513 -0.0580  0.4502  0.1207
22759SOL    HW178591  12.425   8.886  11.487  0.0124  0.6323  0.7658
22759SOL    HW278592  12.352   8.791  11.580  0.3716  0.1433  0.5499
22760SOL     OW78593   2.604   6.813   5.924 -0.0148 -0.2073  0.5059
22760SOL    HW178594   2.667   6.778   5.861  0.8685  0.9590  0.7216
22760SOL    HW278595   2.571   6.893   5.883  0.1402  0.2521  1.2664
22761SOL     OW78596  12.080   1.241   1.160  0.0552  0.3181 -0.0084
22761SOL    HW178597  12.010   1.205   1.105  0.4441 -2.0971  0.9440
22761SOL    HW278598  12.057   1.333   1.170 -3.2189 -0.4201  0.5465
22762SOL     OW78599   3.170   1.864   5.813  0.1688 -0.3840  0.3516
22762SOL    HW178600   3.177   1.839   5.721 -1.1416 -0.7989  0.3478
22762SOL    HW278601   3.237   1.932   5.824  1.6861 -1.6942 -0.3963
22763SOL     OW78602   6.988   8.835   7.666  0.7173 -0.2615  0.0020
22763SOL    HW178603   6.963   8.759   7.719  1.1553 -0.2170  0.2812
22763SOL    HW278604   7.017   8.798   7.583 -1.9246 -0.2187 -1.0169
22764SOL     OW78605  11.089   2.800   8.332 -0.3119 -0.2400  0.4656
22764SOL    HW178606  11.045   2.846   8.403  0.7345  1.4706  0.0697
22764SOL    HW278607  11.166   2.760   8.373 -0.9093 -1.1719  0.6988
22765SOL     OW78608   2.475   3.283   3.615  0.1071  0.2910  0.1422
22765SOL    HW178609   2.554   3.330   3.644  0.5618 -0.9627  1.0590
22765SOL    HW278610   2.407   3.311   3.676  0.0118  0.8186 -0.1970
22766SOL     OW78611   5.624  12.796  11.490 -0.1134  0.3064 -0.2011
22766SOL    HW178612   5.540  12.827  11.524 -0.3059  1.0844 -1.3340
22766SOL    HW278613   5.601  12.741  11.415  0.3326 -0.8504  0.4717
22767SOL     OW78614  10.191   9.297   9.712  0.4810  0.2802 -0.1626
22767SOL    HW178615  10.163   9.353   9.640  0.5153 -0.3729 -0.6915
22767SOL    HW278616  10.228   9.358   9.777  0.9175  0.8318 -0.9102
22768SOL     OW78617   6.919   8.792  12.752  0.1062 -0.0078 -0.4767
22768SOL    HW178618   6.826   8.815  12.762 -0.5795 -2.4120 -0.7776
22768SOL    HW278619   6.930   8.714  12.806  2.2092  0.7414  0.2605
22769SOL     OW78620   4.474   5.730  10.844  0.0567  0.3805  0.6251
22769SOL    HW178621   4.420   5.735  10.924  0.8541 -0.5100  1.2377
22769SOL    HW278622   4.469   5.638  10.818 -1.1456  0.8838 -1.0517
22770SOL     OW78623  11.586  11.937   8.970  0.0733  0.2299 -0.1680
22770SOL    HW178624  11.636  11.980   9.040  0.3176  0.3366 -0.4051
22770SOL    HW278625  11.508  11.991   8.961 -0.8005 -0.7327  1.1817
22771SOL     OW78626   3.928   6.452   5.976  0.1131  0.2165 -0.3542
22771SOL    HW178627   4.016   6.484   5.954  0.7007 -0.1806  1.2768
22771SOL    HW278628   3.939   6.409   6.060 -1.7030  0.3423 -0.0188
22772SOL     OW78629   4.472  11.214   3.597  1.1437  0.5857  0.6979
22772SOL    HW178630   4.528  11.164   3.537  0.6116  0.4691  0.2847
22772SOL    HW278631   4.527  11.285   3.629  1.5599  0.4055  0.3832
22773SOL     OW78632   3.314   5.407  11.820 -0.0476 -0.2750 -0.4934
22773SOL    HW178633   3.252   5.385  11.751  1.2293  2.2800 -2.6214
22773SOL    HW278634   3.384   5.342  11.811 -0.8569 -1.2026 -0.2074
22774SOL     OW78635  11.185   3.998   9.396  0.5615  0.3592  0.2689
22774SOL    HW178636  11.165   3.911   9.361 -4.7687  1.0396  0.8996
22774SOL    HW278637  11.209   4.050   9.319  2.3697 -1.2070 -0.3070
22775SOL     OW78638  10.130  10.529   4.421 -0.1498 -0.0831  0.1022
22775SOL    HW178639  10.099  10.461   4.481 -2.7942  0.7947 -0.1073
22775SOL    HW278640  10.218  10.550   4.452 -0.5444 -1.2624  2.2332
22776SOL     OW78641   9.856   9.204  12.910 -0.1770  0.3617  0.0551
22776SOL    HW178642   9.800   9.239  12.979  2.3060  2.0035  1.3841
22776SOL    HW278643   9.922   9.153  12.956  1.3443  1.2238 -1.0621
22777SOL     OW78644  12.094  10.419  11.454 -0.4502 -0.1399 -0.2608
22777SOL    HW178645  12.095  10.440  11.361 -0.2991  0.8941 -0.0293
22777SOL    HW278646  12.124  10.498  11.498 -2.2031 -0.0002  0.7955
22778SOL     OW78647   8.046  12.304   1.099  0.1613 -0.7069  0.0185
22778SOL    HW178648   8.121  12.245   1.093 -0.0595 -1.0164  0.2861
22778SOL    HW278649   8.076  12.384   1.057  0.9806 -0.5041  0.9300
22779SOL     OW78650   5.363   0.292   5.327 -0.0245 -0.0982  0.1654
22779SOL    HW178651   5.453   0.324   5.326 -0.3430  0.8702 -1.2618
22779SOL    HW278652   5.319   0.342   5.257 -1.3305 -1.4860 -0.0562
22780SOL     OW78653  10.290   7.337   7.330 -0.0595  0.1979 -0.0311
22780SOL    HW178654  10.300   7.279   7.255 -0.9819 -0.9180  0.6862
22780SOL    HW278655  10.355   7.306   7.394 -0.7934 -0.2949  0.4897
22781SOL     OW78656   0.463   7.607  11.820 -0.3046  0.0812 -0.1247
22781SOL    HW178657   0.388   7.665  11.806  0.5961  1.9494  2.0961
22781SOL    HW278658   0.532   7.643  11.763 -1.0777 -1.8600 -2.4560
22782SOL     OW78659   0.555  10.270   0.014  0.8406 -0.0523 -0.3625
22782SOL    HW178660   0.466  10.250   0.044 -0.0767  0.7519 -2.3048
22782SOL    HW278661   0.577  10.352   0.057  0.7223 -0.3498  0.2704
22783SOL     OW78662  10.340   7.801  10.993  0.0792 -0.0125 -0.6547
22783SOL    HW178663  10.346   7.895  10.980 -1.4310  0.1209 -0.4915
22783SOL    HW278664  10.407   7.782  11.059 -0.1105  1.0642 -0.1290
22784SOL     OW78665  11.136  10.702  12.292 -0.2239  0.0158 -0.0584
22784SOL    HW178666  11.097  10.789  12.276  0.6349  0.7047  1.3936
22784SOL    HW278667  11.062  10.641  12.282 -0.7834  0.8627 -1.3926
22785SOL     OW78668   2.249   5.910   1.819  0.3119  0.3999  0.5132
22785SOL    HW178669   2.181   5.961   1.863 -1.6898 -0.1809 -1.7097
22785SOL    HW278670   2.295   5.973   1.764  0.3136  0.4673  0.5916
22786SOL     OW78671   2.791  12.445   9.691  0.0694 -0.1073 -0.8450
22786SOL    HW178672   2.714  12.420   9.742  0.5744 -0.4859 -0.2509
22786SOL    HW278673   2.859  12.460   9.756  0.7891 -0.8042 -1.4154
22787SOL     OW78674  11.476   9.861   2.454  0.4424  0.3899  0.0774
22787SOL    HW178675  11.418   9.786   2.446 -1.3793  1.7957 -0.5510
22787SOL    HW278676  11.563   9.826   2.432 -0.5927 -1.1931 -1.8564
22788SOL     OW78677   4.760   9.644   9.696 -0.5121 -0.1747 -0.4316
22788SOL    HW178678   4.754   9.555   9.661  0.2981  0.3700 -2.0650
22788SOL    HW278679   4.841   9.645   9.746 -0.8159 -0.4881  0.0856
22789SOL     OW78680   0.188   5.408   8.671 -0.0149 -0.0293 -0.4239
22789SOL    HW178681   0.123   5.448   8.613 -0.3969  0.3029  0.2205
22789SOL    HW278682   0.232   5.343   8.616  0.5784  1.2072 -1.4839
22790SOL     OW78683  10.995   0.643   8.506  0.1516  0.3318  0.1754
22790SOL    HW178684  11.021   0.712   8.566  1.7906 -0.7186  0.7324
22790SOL    HW278685  11.007   0.681   8.419  1.0973  0.7354  0.4743
22791SOL     OW78686  11.242   2.404   8.623 -0.3642 -0.5206 -0.0289
22791SOL    HW178687  11.327   2.360   8.629 -0.0528 -0.1811 -1.5859
22791SOL    HW278688  11.184   2.338   8.584  0.3381  0.6466 -3.3000
22792SOL     OW78689   1.197   8.658   9.246  0.6226  0.4439 -0.5343
22792SOL    HW178690   1.107   8.627   9.248  0.6433  0.4056 -0.0248
22792SOL    HW278691   1.191   8.753   9.258  0.6306  0.4838 -0.8430
22793SOL     OW78692  12.748   2.854   4.368  0.1444  0.0404  0.0811
22793SOL    HW178693  12.734   2.771   4.414 -0.3631 -0.8964 -1.6443
22793SOL    HW278694  12.828   2.840   4.317 -0.2373  0.3864 -0.6425
22794SOL     OW78695   7.389   5.933   3.592 -0.4360 -0.2225 -0.1943
22794SOL    HW178696   7.462   5.871   3.594 -0.0096  0.2790  0.0769
22794SOL    HW278697   7.337   5.911   3.670 -1.1804 -1.2800 -0.9621
22795SOL     OW78698   2.464   6.323   6.754  0.8036 -0.0254  0.0265
22795SOL    HW178699   2.507   6.282   6.829  0.7004  1.1373  0.7409
22795SOL    HW278700   2.375   6.343   6.785  0.7318  0.3796 -0.4259
22796SOL     OW78701  11.206   4.752   6.586 -0.4561  0.2377  0.4703
22796SOL    HW178702  11.205   4.754   6.490 -0.1273 -0.7155  0.4309
22796SOL    HW278703  11.297   4.770   6.610 -0.0062 -1.7838  0.4883
22797SOL     OW78704   2.257   1.091   7.158  0.2779 -0.1590 -0.4534
22797SOL    HW178705   2.189   1.059   7.217 -1.8021  1.8503 -1.5600
22797SOL    HW278706   2.294   1.167   7.203 -1.0160  1.1142 -1.3965
22798SOL     OW78707  12.666   9.900   7.643 -0.5964 -0.2184  0.3097
22798SOL    HW178708  12.714   9.847   7.580  0.6612 -1.4802  2.1968
22798SOL    HW278709  12.584   9.922   7.599  0.3903 -0.6567 -1.8750
22799SOL     OW78710  10.681   2.766   0.738 -0.4137  0.0312  0.0888
22799SOL    HW178711  10.740   2.841   0.747  0.2589 -0.5083  0.1522
22799SOL    HW278712  10.715   2.717   0.663 -0.3884 -0.6435  0.5376
22800SOL     OW78713   7.390  12.252   4.850  0.6617 -0.0636 -0.1727
22800SOL    HW178714   7.380  12.164   4.813  0.0156 -0.1070  0.0981
22800SOL    HW278715   7.302  12.277   4.878  0.4183  1.5091 -2.0986
22801SOL     OW78716   3.923   2.530   1.387  0.3528  0.1340  0.1321
22801SOL    HW178717   3.859   2.580   1.437  0.4469 -0.0860  0.4756
22801SOL    HW278718   3.919   2.567   1.298 -2.0777 -1.5635 -0.5511
22802SOL     OW78719   9.816   3.775   8.424 -0.0533 -0.2034  0.0469
22802SOL    HW178720   9.732   3.800   8.386  0.0014  2.3673  1.3731
22802SOL    HW278721   9.795   3.742   8.511  0.1846 -1.5669 -0.3947
22803SOL     OW78722   7.942   4.990   1.724 -0.6641  0.2152  0.0996
22803SOL    HW178723   7.932   5.083   1.708 -1.2154  0.4512  1.6807
22803SOL    HW278724   8.032   4.980   1.755  0.3879 -0.2366 -2.7316
22804SOL     OW78725   3.688   6.698   6.881  0.2761  0.1681 -0.8273
22804SOL    HW178726   3.660   6.610   6.906  0.3984  0.3676  0.0167
22804SOL    HW278727   3.757   6.720   6.944  1.8413 -0.0288 -2.3856
22805SOL     OW78728   9.488  10.842   5.215 -0.2719 -0.0732 -0.1390
22805SOL    HW178729   9.410  10.882   5.253 -0.6323  1.1536 -2.0445
22805SOL    HW278730   9.455  10.789   5.142  0.5815 -0.4329 -0.2791
22806SOL     OW78731   3.093   6.844   6.628 -0.0676  0.1721  0.4496
22806SOL    HW178732   3.027   6.775   6.619  0.5905 -0.6625  1.6702
22806SOL    HW278733   3.153   6.831   6.555 -0.3973 -0.0341  0.2139
22807SOL     OW78734   2.387   2.668  12.890 -0.2028 -0.4158  0.2446
22807SOL    HW178735   2.386   2.743  12.950  1.2145 -0.1523 -0.0144
22807SOL    HW278736   2.295   2.655  12.867 -0.6484  0.2668  1.4869
22808SOL     OW78737   8.050   0.770   2.207 -0.1304  0.0687 -0.4116
22808SOL    HW178738   8.145   0.762   2.209 -0.2390 -1.6084  1.4221
22808SOL    HW278739   8.034   0.864   2.196  1.7249  0.4009 -0.6289
22809SOL     OW78740   1.889   9.604   8.767  0.0554  0.0966  0.5624
22809SOL    HW178741   1.876   9.535   8.831  0.3769  0.2133  0.7593
22809SOL    HW278742   1.951   9.664   8.809  1.3492 -0.5185 -0.3749
22810SOL     OW78743   3.526  10.602   6.606  0.3129  0.4648  0.2086
22810SOL    HW178744   3.515  10.696   6.593 -3.1919  0.4661  2.0742
22810SOL    HW278745   3.569  10.595   6.691  0.5844  0.3540  0.0644
22811SOL     OW78746   7.561   4.051   7.520  0.3402  0.4378  0.6760
22811SOL    HW178747   7.628   4.111   7.552  0.1583  0.8259  0.3388
22811SOL    HW278748   7.589   3.965   7.551  1.4592  0.4632 -0.2016
22812SOL     OW78749   6.231   0.932  10.218  0.1427  0.2113  0.2896
22812SOL    HW178750   6.140   0.939  10.190  0.6907 -0.8343 -1.9926
22812SOL    HW278751   6.265   1.022  10.214 -0.7823  0.6146  1.2341
22813SOL     OW78752   8.232   7.074   5.347 -0.0698 -0.0065 -0.6721
22813SOL    HW178753   8.140   7.054   5.365 -0.0080  0.3607  0.0917
22813SOL    HW278754   8.259   7.130   5.420  1.3079 -1.7326  0.2206
22814SOL     OW78755   0.441   0.702   0.136  0.0948  0.4934  0.0528
22814SOL    HW178756   0.414   0.793   0.122 -0.1270  0.1702 -1.8865
22814SOL    HW278757   0.534   0.708   0.156  0.0267  1.1579  0.2092
22815SOL     OW78758   9.482   9.788   4.720 -0.0790 -0.0936 -0.4251
22815SOL    HW178759   9.535   9.781   4.641  1.8893 -0.0167  0.8033
22815SOL    HW278760   9.512   9.869   4.762 -0.4191 -0.5831  0.8264
22816SOL     OW78761  10.545  12.441   9.632 -0.3778 -0.1801 -0.1329
22816SOL    HW178762  10.596  12.414   9.556  2.3791 -0.8497  1.8049
22816SOL    HW278763  10.454  12.420   9.609  0.3851 -0.6562 -3.0577
22817SOL     OW78764   7.914  12.472   0.158  0.0145 -0.2570  0.2128
22817SOL    HW178765   7.825  12.468   0.123  0.0557  1.4000 -0.1377
22817SOL    HW278766   7.924  12.391   0.208 -2.0855  0.0362  1.1931
22818SOL     OW78767  11.444   8.000   7.995 -0.2637  0.7944  0.0301
22818SOL    HW178768  11.453   8.093   7.978  1.1692  0.7262  0.2672
22818SOL    HW278769  11.516   7.960   7.947 -1.0739 -0.2450 -0.3693
22819SOL     OW78770   4.393   4.830   7.370 -1.0969  0.3991 -0.7804
22819SOL    HW178771   4.468   4.887   7.389  0.1439 -1.4449  0.1688
22819SOL    HW278772   4.375   4.842   7.277 -1.9553  3.5078 -0.3152
22820SOL     OW78773  10.643   6.611   7.024 -0.0639  0.9113 -0.0323
22820SOL    HW178774  10.666   6.666   6.949  1.1038  2.0905  1.1435
22820SOL    HW278775  10.620   6.526   6.986  1.1474  1.2778 -1.6719
22821SOL     OW78776  12.490   0.807   7.606  0.4413 -0.8329  0.0878
22821SOL    HW178777  12.444   0.759   7.537  1.0595  0.8171 -1.5612
22821SOL    HW278778  12.427   0.871   7.638 -0.2132 -2.3063  1.9251
22822SOL     OW78779   7.228   3.669   8.306 -0.1099  0.1656  0.0057
22822SOL    HW178780   7.264   3.731   8.242  1.1132 -0.5852 -0.0670
22822SOL    HW278781   7.144   3.644   8.269 -1.1311  2.5168  0.5213
22823SOL     OW78782   1.281  12.070   9.207  0.0937  0.1425 -0.0474
22823SOL    HW178783   1.282  12.007   9.280 -1.3283  2.0822  1.7954
22823SOL    HW278784   1.207  12.043   9.153 -0.4215  0.0855  0.6562
22824SOL     OW78785   1.321  12.450   8.479  0.3076 -0.0288 -0.1833
22824SOL    HW178786   1.405  12.427   8.520 -0.5255 -0.8204  1.1410
22824SOL    HW278787   1.268  12.485   8.551 -1.1127 -1.2432 -0.6012
22825SOL     OW78788   6.041  11.074   9.902 -0.7093 -0.3312 -0.5167
22825SOL    HW178789   6.020  11.048   9.992 -1.4352 -0.2500 -0.6545
22825SOL    HW278790   6.086  10.998   9.865  0.9430  0.1794  0.3595
22826SOL     OW78791   4.634  12.939   6.001  0.2818  0.0868  0.0896
22826SOL    HW178792   4.721  12.905   5.980  0.5570  0.7052  0.2114
22826SOL    HW278793   4.610  12.993   5.926  0.2511  0.3864  0.3146
22827SOL     OW78794  11.241  12.314   4.207  0.4772 -0.0212 -0.4100
22827SOL    HW178795  11.164  12.258   4.205  1.5162 -1.5620  0.7803
22827SOL    HW278796  11.314  12.256   4.188  1.4357  1.2938 -0.9267
22828SOL     OW78797  11.629   4.034   2.030  0.0394 -0.4976 -0.2165
22828SOL    HW178798  11.560   4.071   2.085  0.2448 -1.0958  0.4750
22828SOL    HW278799  11.593   4.035   1.941 -0.1794  0.7812 -0.1331
22829SOL     OW78800   3.345   5.718  11.252  0.4203 -0.0447  0.6660
22829SOL    HW178801   3.299   5.654  11.306  0.1006  0.7653  1.3800
22829SOL    HW278802   3.279   5.784  11.231  0.4914 -0.4431 -0.9083
22830SOL     OW78803   0.552   7.976   3.349 -0.1307 -0.0333  0.3359
22830SOL    HW178804   0.602   8.045   3.392 -0.8923  0.9707 -0.3453
22830SOL    HW278805   0.611   7.943   3.281  0.2496 -0.0915  0.6858
22831SOL     OW78806   9.366   9.300   1.586  0.1601  0.3301  0.0105
22831SOL    HW178807   9.449   9.252   1.584  0.1137  0.2489 -1.6717
22831SOL    HW278808   9.303   9.239   1.622  0.5350 -0.1134 -0.0798
22832SOL     OW78809   7.344   6.561   1.798 -0.3336  0.0430  0.4247
22832SOL    HW178810   7.318   6.652   1.791  1.5841  0.8171  2.4091
22832SOL    HW278811   7.262   6.514   1.815 -1.5477  1.1138 -1.9334
22833SOL     OW78812   2.681  10.500  10.808 -0.5257 -0.1385  0.1936
22833SOL    HW178813   2.608  10.484  10.748  0.0627 -0.6553 -0.4016
22833SOL    HW278814   2.720  10.413  10.821  0.3978  0.2401 -0.0294
22834SOL     OW78815   0.924   3.350   3.880 -0.0590 -0.5101  0.4562
22834SOL    HW178816   0.861   3.410   3.921  0.8765 -0.4406  1.8500
22834SOL    HW278817   0.874   3.269   3.867 -0.7610 -0.0867  0.4335
22835SOL     OW78818  12.889   5.311  12.565  0.0398  0.1569  0.0196
22835SOL    HW178819  12.840   5.239  12.604  0.3227 -0.1109 -0.1144
22835SOL    HW278820  12.980   5.283  12.570  0.2706  1.0106  1.0320
22836SOL     OW78821  10.209  11.469   0.662 -0.1685  0.1310 -0.1010
22836SOL    HW178822  10.164  11.448   0.580  0.2410  0.3542 -0.3891
22836SOL    HW278823  10.289  11.513   0.634  0.6097 -0.9496  0.3685
22837SOL     OW78824   0.744  12.268   3.418 -0.2230 -0.1857 -0.6780
22837SOL    HW178825   0.726  12.351   3.375  1.7042 -0.5364 -2.3237
22837SOL    HW278826   0.772  12.210   3.347 -1.3602 -2.2275  0.4292
22838SOL     OW78827   8.142   9.745   2.051  0.3150 -0.1828 -0.4223
22838SOL    HW178828   8.237   9.740   2.037  0.2204 -0.4645 -0.9915
22838SOL    HW278829   8.117   9.829   2.012  0.6084  0.8149  1.4420
22839SOL     OW78830  10.901  12.134   4.418 -0.4553 -0.2112 -0.1869
22839SOL    HW178831  10.833  12.169   4.476 -2.1928 -3.0661 -0.3567
22839SOL    HW278832  10.903  12.195   4.344 -1.7895  0.6967  0.4921
22840SOL     OW78833   2.660   4.126   5.983  0.2305 -0.1335  0.5335
22840SOL    HW178834   2.690   4.133   5.893  0.2567 -2.1926  0.3245
22840SOL    HW278835   2.565   4.116   5.977  0.2472 -0.4362  0.7036
22841SOL     OW78836   2.921   5.608   9.165  0.6103  0.0507  0.8308
22841SOL    HW178837   2.846   5.648   9.121 -0.1646 -1.5838  0.5860
22841SOL    HW278838   2.977   5.681   9.189  0.6154  1.0969 -2.0399
22842SOL     OW78839   7.408  11.170   9.198 -0.1666 -0.1166 -0.1944
22842SOL    HW178840   7.464  11.196   9.125  1.0131 -0.8840  0.4011
22842SOL    HW278841   7.451  11.092   9.234 -0.5316  0.4511  1.5383
22843SOL     OW78842   8.140   4.696   1.696  0.2744  0.0429  0.7192
22843SOL    HW178843   8.192   4.621   1.667  0.8837  0.4513  0.7481
22843SOL    HW278844   8.073   4.658   1.753  1.9055 -0.2611  2.5133
22844SOL     OW78845   6.843   8.762  10.368  0.4482 -0.4657 -0.3569
22844SOL    HW178846   6.859   8.856  10.361 -1.2359 -0.1702 -0.8810
22844SOL    HW278847   6.783   8.743  10.296  0.3765 -1.8546  0.0382
22845SOL     OW78848   9.211  11.526   5.913 -0.1511 -0.0209 -0.1162
22845SOL    HW178849   9.166  11.442   5.925 -1.1041  0.4372 -0.3829
22845SOL    HW278850   9.151  11.577   5.859 -0.1062  1.2502  0.9950
22846SOL     OW78851   6.067   9.158   8.255 -0.3030 -0.6682 -0.0431
22846SOL    HW178852   6.032   9.076   8.289  0.2681 -0.3057  1.5143
22846SOL    HW278853   6.070   9.217   8.331  0.7475  0.2893 -0.7802
22847SOL     OW78854   8.880   0.661   6.619  0.0434 -0.0877  0.3067
22847SOL    HW178855   8.876   0.565   6.610  0.0608 -0.2505  1.8424
22847SOL    HW278856   8.959   0.677   6.671  0.2473  0.8017 -0.2525
22848SOL     OW78857   4.652   0.179   7.414  0.2943  0.2189 -0.7115
22848SOL    HW178858   4.743   0.150   7.404  0.1540  0.4420 -3.5331
22848SOL    HW278859   4.603   0.099   7.431  0.9974  0.1270  1.0825
22849SOL     OW78860   6.857   2.390   1.745  0.3086 -0.2688 -0.4831
22849SOL    HW178861   6.886   2.481   1.757 -1.4125  0.3697 -0.8966
22849SOL    HW278862   6.776   2.397   1.694 -1.2668 -1.8728  1.6412
22850SOL     OW78863  12.023   2.475   0.335  0.0139 -0.4811 -0.7182
22850SOL    HW178864  12.042   2.493   0.427  2.7256 -0.5189 -1.1816
22850SOL    HW278865  12.048   2.384   0.322 -0.0536 -0.3911 -1.5520
22851SOL     OW78866   6.290   9.656  11.571 -0.2693  0.1031  0.7050
22851SOL    HW178867   6.242   9.694  11.644  0.1561  1.5968  0.2378
22851SOL    HW278868   6.316   9.731  11.517 -0.0388 -0.9111 -0.6556
22852SOL     OW78869   1.323   6.077   5.571  0.4658 -0.0379  0.2865
22852SOL    HW178870   1.360   6.120   5.494  1.2311 -0.4763  0.4004
22852SOL    HW278871   1.233   6.110   5.576  0.5372  0.3115 -0.5508
22853SOL     OW78872   4.294   6.536   7.594 -0.2021 -0.3921  0.3777
22853SOL    HW178873   4.213   6.559   7.549 -1.6708 -1.7981  2.1277
22853SOL    HW278874   4.339   6.477   7.533 -1.2719 -0.8363 -0.0183
22854SOL     OW78875   9.964  10.828   1.539 -0.0139 -0.2915  0.2145
22854SOL    HW178876   9.931  10.878   1.614 -0.5740 -1.2670  0.6479
22854SOL    HW278877  10.003  10.894   1.482  0.0082  0.5351  1.1392
22855SOL     OW78878   0.608   0.590  11.849 -0.1907  0.5290 -0.0823
22855SOL    HW178879   0.519   0.556  11.858  0.2303 -0.5845  0.0399
22855SOL    HW278880   0.664   0.514  11.861  0.7817  1.1851 -0.3301
22856SOL     OW78881   5.340   6.532  12.561  0.2671  0.3184  0.2533
22856SOL    HW178882   5.302   6.593  12.625 -4.0082 -1.0139 -0.6670
22856SOL    HW278883   5.276   6.461  12.556  2.3087 -1.5152 -2.7458
22857SOL     OW78884   8.582   9.122   4.517  0.7687  0.3509  0.3994
22857SOL    HW178885   8.486   9.122   4.513  0.8143  0.5310 -1.8888
22857SOL    HW278886   8.610   9.112   4.426  2.9317  1.7539  0.8278
22858SOL     OW78887   5.332   8.036   6.066 -0.3519  0.4664  0.4553
22858SOL    HW178888   5.347   8.130   6.077 -0.8163  0.4197  1.6608
22858SOL    HW278889   5.403   7.994   6.114  0.8470  0.1490 -1.4884
22859SOL     OW78890  11.012   6.349   7.130  0.0290 -0.1632 -0.4530
22859SOL    HW178891  10.952   6.421   7.149 -1.6985 -1.5343 -0.3522
22859SOL    HW278892  11.013   6.342   7.035 -2.7851 -2.2247 -0.4623
22860SOL     OW78893  11.886   5.516   5.002  0.4312 -0.4985  0.6297
22860SOL    HW178894  11.844   5.451   4.945  2.0011 -1.0016  0.0092
22860SOL    HW278895  11.889   5.596   4.950  1.5636 -0.8695  0.0838
22861SOL     OW78896   3.419   2.958   7.531  0.3646 -0.1787  0.2477
22861SOL    HW178897   3.508   2.978   7.502 -0.6672  0.4659 -2.7724
22861SOL    HW278898   3.396   2.878   7.485 -0.6377 -0.3540  1.0120
22862SOL     OW78899   0.062  12.498   7.887  0.6520 -0.1451 -0.0886
22862SOL    HW178900  -0.033  12.501   7.898  0.4693  1.5932 -1.6778
22862SOL    HW278901   0.075  12.476   7.795  1.8385 -1.3608  0.3384
22863SOL     OW78902  11.015   1.677   9.332  0.4049  0.3791  0.0680
22863SOL    HW178903  11.103   1.714   9.342  1.0161 -0.2978 -2.1032
22863SOL    HW278904  10.957   1.753   9.325  0.8308  0.8359  1.2923
22864SOL     OW78905   1.236   2.001  12.494  0.1400 -0.3260 -0.0422
22864SOL    HW178906   1.268   1.929  12.549  0.6319 -0.2129 -0.1777
22864SOL    HW278907   1.231   2.076  12.554  1.4598  0.0078 -0.3115
22865SOL     OW78908   1.530  12.735   5.181 -0.7398 -0.2403 -0.4361
22865SOL    HW178909   1.448  12.717   5.226 -0.2596 -0.1324  0.4916
22865SOL    HW278910   1.574  12.650   5.177 -0.1416  0.0033  0.6074
22866SOL     OW78911   8.211  12.685   5.148  0.0134  0.7287 -0.1370
22866SOL    HW178912   8.257  12.754   5.101  0.2743  0.5981 -0.0787
22866SOL    HW278913   8.137  12.729   5.190  0.5100  1.0916  0.3804
22867SOL     OW78914  12.838   7.838   6.298 -0.1151  0.3480  0.0092
22867SOL    HW178915  12.903   7.768   6.308 -0.0379  0.2408 -1.1768
22867SOL    HW278916  12.754   7.794   6.305 -0.0658  0.1436 -0.6626
22868SOL     OW78917  12.456   1.223   2.953  0.3689 -0.2579  0.7921
22868SOL    HW178918  12.497   1.140   2.977  2.9036  0.7693  0.4266
22868SOL    HW278919  12.382   1.232   3.012 -1.8612 -4.0851 -1.0875
22869SOL     OW78920   9.409   1.661   9.860 -0.1018  0.2606  0.1916
22869SOL    HW178921   9.434   1.748   9.892 -0.4138 -0.2050  1.8054
22869SOL    HW278922   9.334   1.636   9.914  1.1047 -1.7484  1.0592
22870SOL     OW78923   5.852  11.241   5.504 -0.1837 -0.1964  0.1641
22870SOL    HW178924   5.882  11.154   5.529 -0.1758  0.5467  3.1263
22870SOL    HW278925   5.774  11.256   5.558 -2.7468  0.1107 -3.2571
22871SOL     OW78926   0.063   7.326   3.762  0.2252 -0.2918 -0.0730
22871SOL    HW178927   0.000   7.282   3.820 -1.2383 -0.3664 -1.6224
22871SOL    HW278928   0.147   7.284   3.781 -0.1733 -0.2479  2.0106
22872SOL     OW78929   9.479  12.809   0.619  0.0834  0.4538  0.1715
22872SOL    HW178930   9.530  12.889   0.627 -1.5255  1.5421 -0.0300
22872SOL    HW278931   9.395  12.837   0.585 -0.7391 -1.2486  0.6758
22873SOL     OW78932  11.013   1.012  11.778 -0.1454 -0.4935  0.2448
22873SOL    HW178933  11.107   1.023  11.787 -0.2652  1.9275 -0.7064
22873SOL    HW278934  10.984   0.987  11.865  1.2882 -0.4878  0.7517
22874SOL     OW78935   5.189   5.195   1.708 -0.4460  0.2650 -0.6609
22874SOL    HW178936   5.209   5.286   1.685 -0.8874  0.4290 -0.4088
22874SOL    HW278937   5.218   5.187   1.798  0.0561  0.0100 -0.8466
22875SOL     OW78938  12.507  12.901   5.945 -0.5002 -0.4639  0.1112
22875SOL    HW178939  12.448  12.884   5.871  0.2831 -0.4886 -0.5135
22875SOL    HW278940  12.448  12.928   6.015 -1.4671 -2.2873  0.0890
22876SOL     OW78941   3.611   6.667  10.575 -0.2718  0.2297  0.1095
22876SOL    HW178942   3.543   6.685  10.509  1.2798 -0.9894 -1.9614
22876SOL    HW278943   3.685   6.720  10.548  0.3276 -0.1152  1.0484
22877SOL     OW78944   3.763   6.269  11.913 -0.6575  0.4395  0.0603
22877SOL    HW178945   3.692   6.241  11.971  0.0634  0.1144  0.8096
22877SOL    HW278946   3.757   6.365  11.911 -0.2194  0.5082  1.3129
22878SOL     OW78947  10.416   4.764   6.456  0.2712  0.1251  0.0347
22878SOL    HW178948  10.446   4.839   6.508 -0.5203 -0.4227  1.3359
22878SOL    HW278949  10.420   4.690   6.516 -0.9306 -0.4863 -0.5956
22879SOL     OW78950   3.972  11.724   6.693 -0.4123 -0.2936 -0.1548
22879SOL    HW178951   4.042  11.664   6.718  1.0226  1.3245 -0.0594
22879SOL    HW278952   3.932  11.749   6.776 -1.7453 -1.8942 -0.2719
22880SOL     OW78953   3.390  12.462   4.786  0.0048  0.5095 -0.3615
22880SOL    HW178954   3.395  12.557   4.797 -0.2606  0.3624  1.3109
22880SOL    HW278955   3.296  12.443   4.790  0.0683  0.1685 -0.5367
22881SOL     OW78956   5.414   4.218   7.201 -0.3205  0.7230  0.2524
22881SOL    HW178957   5.507   4.200   7.186 -0.0663  0.9456  1.3996
22881SOL    HW278958   5.404   4.213   7.296 -1.5537  0.4075  0.1249
22882SOL     OW78959   1.474  10.119   1.411 -0.0461 -0.1109  0.4402
22882SOL    HW178960   1.566  10.107   1.434 -0.5850 -1.5504  2.0859
22882SOL    HW278961   1.470  10.207   1.374  2.2367 -0.5643 -1.0949
22883SOL     OW78962   2.058   8.665  11.570 -0.0637 -0.1560  0.8379
22883SOL    HW178963   2.072   8.657  11.476 -0.4523 -2.1906  0.8927
22883SOL    HW278964   2.091   8.582  11.606 -0.2529  0.4283  2.4489
22884SOL     OW78965   1.522  12.302   9.437 -0.0291  0.9478  0.2014
22884SOL    HW178966   1.528  12.209   9.460  1.5803  0.7375 -0.8530
22884SOL    HW278967   1.476  12.342   9.510 -1.4400 -0.7900  0.3396
22885SOL     OW78968   1.228  12.940   5.046 -0.3872 -0.2961  0.5786
22885SOL    HW178969   1.291  12.871   5.026  1.9528  2.1677 -1.4937
22885SOL    HW278970   1.258  12.975   5.131  1.1063  0.7916 -0.3423
22886SOL     OW78971   7.162   0.974   4.538  0.9784 -0.1320  0.5096
22886SOL    HW178972   7.084   0.925   4.514  0.3581  1.4491 -0.8709
22886SOL    HW278973   7.228   0.946   4.475  0.7708  0.4038  0.0462
22887SOL     OW78974  12.352   6.369   6.393  0.2238  0.8532  0.1087
22887SOL    HW178975  12.274   6.320   6.367  0.6016  0.7750 -0.9227
22887SOL    HW278976  12.320   6.458   6.409 -0.2629  0.5582  0.8140
22888SOL     OW78977  11.011   6.230   3.556 -0.2019  0.3295 -0.0177
22888SOL    HW178978  11.028   6.153   3.610  0.2690  0.2231 -0.3115
22888SOL    HW278979  11.090   6.283   3.565 -0.0404  0.2259 -0.7315
22889SOL     OW78980   8.175   6.349   8.724 -0.7993  0.0725  0.3353
22889SOL    HW178981   8.242   6.386   8.666 -1.1287 -1.0231 -0.7920
22889SOL    HW278982   8.094   6.392   8.697 -0.6060  1.3003  1.6103
22890SOL     OW78983  11.804   1.540  12.859 -0.2249 -0.4910  0.6258
22890SOL    HW178984  11.744   1.558  12.786  0.7523  0.4338  0.0130
22890SOL    HW278985  11.778   1.601  12.927  0.9691  1.0446 -0.2224
22891SOL     OW78986   8.073  10.492  10.663  0.9015 -0.1254  0.6394
22891SOL    HW178987   8.164  10.511  10.688  0.9939 -1.5693  1.4861
22891SOL    HW278988   8.028  10.576  10.674  1.9142  0.3704  1.2100
22892SOL     OW78989   0.733   7.960   4.560 -0.3918  0.3352 -0.1192
22892SOL    HW178990   0.726   8.043   4.606  2.5559 -0.1119  1.3626
22892SOL    HW278991   0.744   7.895   4.630  0.2384 -0.9032 -1.3213
22893SOL     OW78992   1.790   0.240   7.808 -0.6139 -0.1606 -0.3767
22893SOL    HW178993   1.768   0.263   7.717 -0.3347 -1.7257 -0.8589
22893SOL    HW278994   1.762   0.149   7.818 -0.4307 -0.0846  1.0498
22894SOL     OW78995   1.560   2.137  12.267  0.1787  0.6710  0.2850
22894SOL    HW178996   1.618   2.069  12.232 -0.7056  0.8675 -1.6744
22894SOL    HW278997   1.564   2.207  12.202 -2.1591  0.7230  0.1314
22895SOL     OW78998  12.546   7.047   3.652  0.5650  0.0783  0.0888
22895SOL    HW178999  12.458   7.032   3.619  0.4707  1.4123 -0.3209
22895SOL    HW279000  12.584   6.959   3.661 -0.9711 -0.5505  0.7784
22896SOL     OW79001   8.060   9.774   3.519 -0.0380 -0.4661 -0.4552
22896SOL    HW179002   8.062   9.747   3.427  1.0032 -0.4274 -0.4460
22896SOL    HW279003   8.095   9.863   3.519 -0.4799 -0.2882 -0.0736
22897SOL     OW79004   3.428   8.922  10.608  1.0253  0.0042 -0.4043
22897SOL    HW179005   3.410   9.006  10.650  0.4534 -0.3570  0.0731
22897SOL    HW279006   3.436   8.859  10.680  0.4316 -0.5442 -0.8037
22898SOL     OW79007  11.101   9.356   0.486 -0.2836  0.6536  0.1538
22898SOL    HW179008  11.101   9.443   0.525  1.1809 -0.0188  1.8217
22898SOL    HW279009  11.139   9.300   0.554 -0.1242 -1.0824 -1.2956
22899SOL     OW79010   6.321   0.947   2.042  0.2074  0.7478 -0.1070
22899SOL    HW179011   6.341   0.984   1.956  0.8673  2.7540  0.8316
22899SOL    HW279012   6.226   0.955   2.050  0.3335  2.6089  0.1420
22900SOL     OW79013   1.608  12.092   7.462 -0.0135 -0.2927 -0.4650
22900SOL    HW179014   1.659  12.136   7.530 -1.3546 -0.8391  0.9383
22900SOL    HW279015   1.576  12.163   7.406  2.3738  0.0502 -1.5129
22901SOL     OW79016   4.390   2.444  12.471  0.4137  0.1300 -0.2604
22901SOL    HW179017   4.483   2.434  12.493  0.1510  0.6027  1.1242
22901SOL    HW279018   4.391   2.471  12.379  1.7995  2.5901  0.3814
22902SOL     OW79019   6.569  11.097   8.048 -0.2642 -0.0600 -0.6291
22902SOL    HW179020   6.488  11.048   8.045 -1.6889  1.8920  1.7807
22902SOL    HW279021   6.548  11.183   8.011  1.0038  0.1529 -0.9343
22903SOL     OW79022  10.848   0.111  10.249  0.1258  0.1455 -0.2475
22903SOL    HW179023  10.760   0.085  10.275 -0.2533  0.8642 -0.7849
22903SOL    HW279024  10.844   0.206  10.241  1.6601  0.5481  2.3732
22904SOL     OW79025  10.771   8.386  12.414  0.1070 -0.1726  0.2920
22904SOL    HW179026  10.865   8.405  12.404  0.1128  1.1317  2.3499
22904SOL    HW279027  10.729   8.438  12.345  0.8882 -0.7983 -0.6740
22905SOL     OW79028   5.871   1.897   3.215  0.4016 -0.2098  0.3045
22905SOL    HW179029   5.799   1.839   3.241  1.2332 -0.6374  1.8044
22905SOL    HW279030   5.934   1.891   3.287  1.4963  0.9191 -0.5027
22906SOL     OW79031   9.984  12.979   1.901 -0.2653 -0.2273  0.0270
22906SOL    HW179032   9.966  13.024   1.983  0.3453 -0.7233  0.4391
22906SOL    HW279033   9.985  13.048   1.835 -0.3317  0.2236  0.4970
22907SOL     OW79034   3.179   2.888   9.520 -0.0340 -0.2493  0.7792
22907SOL    HW179035   3.262   2.839   9.519  1.5898  2.3048  0.8041
22907SOL    HW279036   3.140   2.866   9.604  2.0708  0.6217  2.0825
22908SOL     OW79037   5.567  11.229  12.449 -0.5207  0.5988  0.6040
22908SOL    HW179038   5.536  11.265  12.366 -1.4849  1.1034  1.1695
22908SOL    HW279039   5.488  11.208  12.498  0.0333  0.3064  1.4088
22909SOL     OW79040  12.867  10.710   6.591 -0.1772  0.5057 -0.2889
22909SOL    HW179041  12.785  10.689   6.636 -1.1133  0.8222 -1.7684
22909SOL    HW279042  12.877  10.805   6.602 -0.6232  0.6520 -1.0415
22910SOL     OW79043   9.840   6.890   9.097  0.0930  0.1585 -0.2028
22910SOL    HW179044   9.926   6.932   9.109 -0.0382  0.2108  0.6164
22910SOL    HW279045   9.778   6.953   9.133 -0.2707  0.0199 -0.5892
22911SOL     OW79046   5.563   1.300  12.034  0.5373 -0.0758 -0.4138
22911SOL    HW179047   5.595   1.390  12.025  0.0928  0.1710  0.4033
22911SOL    HW279048   5.614   1.263  12.105  1.4352 -0.8173 -1.4046
22912SOL     OW79049   7.399  12.499   2.981  0.2868 -0.4797 -0.0181
22912SOL    HW179050   7.434  12.464   2.899 -1.0462 -1.0000 -0.3993
22912SOL    HW279051   7.447  12.452   3.050  1.3481 -0.1048 -0.4870
22913SOL     OW79052   9.233   6.043   5.066 -0.7982  0.6103 -0.5015
22913SOL    HW179053   9.226   5.976   5.134 -0.2057  0.8833 -0.1646
22913SOL    HW279054   9.214   5.996   4.984  0.6295 -0.2014 -0.3938
22914SOL     OW79055   3.883   4.036  11.616  0.5921 -0.3625 -0.1873
22914SOL    HW179056   3.885   3.961  11.557  0.5174  0.8074 -1.7663
22914SOL    HW279057   3.795   4.073  11.604  1.8301  2.2125 -2.5199
22915SOL     OW79058   4.954   5.190   5.824  0.2258 -0.1092  0.4159
22915SOL    HW179059   4.971   5.277   5.788  0.6924  0.5947  2.2219
22915SOL    HW279060   4.904   5.145   5.756  0.3564  1.4079 -0.7392
22916SOL     OW79061   0.597   7.564   1.366  0.0937 -0.1792 -0.0552
22916SOL    HW179062   0.590   7.660   1.366 -0.0025 -0.1693 -1.3836
22916SOL    HW279063   0.506   7.534   1.369  0.1053 -0.2202 -0.1209
22917SOL     OW79064   5.370   1.707   3.516 -0.4914 -0.2583 -0.1739
22917SOL    HW179065   5.277   1.689   3.503 -0.3565 -1.2592  0.1685
22917SOL    HW279066   5.372   1.780   3.577 -1.0581 -1.0057  0.7652
22918SOL     OW79067  10.635   6.068   8.965 -0.2010  0.2168 -0.0403
22918SOL    HW179068  10.591   6.111   8.892  1.9249  0.7154 -1.1081
22918SOL    HW279069  10.564   6.042   9.024 -1.8949  0.8599 -1.6950
22919SOL     OW79070   9.204   2.885   0.695  0.1083 -0.2624 -0.0237
22919SOL    HW179071   9.148   2.923   0.762  0.6480 -3.2478  2.3281
22919SOL    HW279072   9.144   2.838   0.637 -0.2300  1.0467 -0.7564
22920SOL     OW79073   4.896   1.037   5.084  0.3056  0.0959  0.7404
22920SOL    HW179074   4.814   1.070   5.123  0.7446  2.0795  0.1267
22920SOL    HW279075   4.885   1.052   4.990  2.1419  2.4440  0.7978
22921SOL     OW79076   7.102   0.256  10.839 -0.1847 -0.2724  0.1310
22921SOL    HW179077   7.191   0.287  10.823 -0.9356  0.8438 -2.4776
22921SOL    HW279078   7.106   0.162  10.821  0.4172 -0.1791 -0.2694
22922SOL     OW79079   5.945   1.072   3.769 -0.0411  0.4540 -0.4556
22922SOL    HW179080   5.884   1.142   3.745 -1.7603 -0.8375 -0.1100
22922SOL    HW279081   5.900   0.991   3.742  1.4334 -0.5708  0.0431
22923SOL     OW79082  11.639   7.327  11.214 -0.3531  0.1148  0.1217
22923SOL    HW179083  11.715   7.371  11.177  0.3966  0.4457  1.9740
22923SOL    HW279084  11.656   7.324  11.308 -2.2024 -0.6433  0.4726
22924SOL     OW79085   4.340   9.048  10.739  0.0059  0.2471  0.3569
22924SOL    HW179086   4.382   9.065  10.655  0.5614  2.2171  0.9931
22924SOL    HW279087   4.261   9.101  10.739 -1.0148 -1.2182  0.3424
22925SOL     OW79088   3.841  10.919   0.539  0.2547  0.3049  0.1615
22925SOL    HW179089   3.787  10.955   0.608  1.7074 -1.5748  2.4453
22925SOL    HW279090   3.923  10.894   0.583  0.2938 -3.3918 -1.6045
22926SOL     OW79091   5.064   3.490  11.108 -0.3667 -0.1803 -0.4533
22926SOL    HW179092   5.013   3.523  11.182  1.1135  1.4682 -0.1167
22926SOL    HW279093   4.998   3.454  11.048 -1.8379  0.9456  0.4164
22927SOL     OW79094   4.156   8.995   0.399  0.0062  0.4938 -0.2986
22927SOL    HW179095   4.075   8.956   0.432 -1.3071  2.1868 -1.3745
22927SOL    HW279096   4.139   9.089   0.396  2.0710  0.9217 -0.4514
22928SOL     OW79097   3.889   8.946   4.529 -0.3439 -0.6885 -0.4761
22928SOL    HW179098   3.832   8.948   4.452 -1.2125  2.2387  0.0883
22928SOL    HW279099   3.975   8.974   4.497 -0.2722 -1.1235 -0.6618
22929SOL     OW79100   2.962   1.974  10.507  0.4077 -0.2062 -0.0773
22929SOL    HW179101   2.884   1.925  10.483  0.2094  0.7155 -1.3976
22929SOL    HW279102   2.951   1.992  10.601 -0.0260 -1.7102  0.1929
22930SOL     OW79103  11.137   4.022   4.704 -0.0090  0.3407  0.5898
22930SOL    HW179104  11.185   3.980   4.775 -0.0678 -1.9284 -0.6147
22930SOL    HW279105  11.047   4.025   4.735 -0.4501 -2.5925 -0.0672
22931SOL     OW79106   9.674   6.631   6.942 -0.3119 -0.0208 -0.4721
22931SOL    HW179107   9.735   6.704   6.933  0.8825 -0.6995  1.5981
22931SOL    HW279108   9.690   6.577   6.865  0.0152  1.0021 -1.1435
22932SOL     OW79109   5.997  11.222   5.865 -0.3796 -0.2959 -0.0394
22932SOL    HW179110   6.078  11.175   5.848 -1.9850 -2.3711 -2.6700
22932SOL    HW279111   6.017  11.314   5.846  1.8024 -0.3992  1.4067
22933SOL     OW79112   0.421   1.379   1.662 -0.1488 -0.4492  0.2011
22933SOL    HW179113   0.364   1.306   1.687  0.9404 -1.5068 -0.2930
22933SOL    HW279114   0.365   1.456   1.668 -1.3922 -1.3401  0.5550
22934SOL     OW79115   0.038  12.694  11.874  0.0647  0.3860 -0.0512
22934SOL    HW179116  -0.056  12.681  11.861  0.1554 -1.6937  1.0424
22934SOL    HW279117   0.061  12.763  11.811 -1.8593 -0.2236 -1.5327
22935SOL     OW79118   4.642   7.775   0.459  0.1085 -0.3490  0.4697
22935SOL    HW179119   4.610   7.843   0.400  1.2959  0.4340  0.6907
22935SOL    HW279120   4.596   7.793   0.542  0.2814  0.0906  0.4766
22936SOL     OW79121   6.005   3.422   7.986 -0.3016  0.1926  0.0859
22936SOL    HW179122   5.987   3.466   8.070  0.3594  0.4034  0.1276
22936SOL    HW279123   5.933   3.360   7.975 -1.5465  1.6460 -0.2343
22937SOL     OW79124  10.105   3.915   3.475  0.0471  0.5781 -0.0043
22937SOL    HW179125  10.071   3.965   3.402  1.5436 -0.3045 -1.3762
22937SOL    HW279126  10.195   3.946   3.486  0.8899 -1.4667 -0.6539
22938SOL     OW79127   1.115   0.552   5.963  0.3582 -1.0254 -0.4659
22938SOL    HW179128   1.206   0.523   5.972  0.5146 -0.7857 -1.2335
22938SOL    HW279129   1.070   0.512   6.038  1.1050 -1.0911 -0.0344
22939SOL     OW79130  11.524   2.348   3.530 -0.4116  0.0435  0.3110
22939SOL    HW179131  11.604   2.380   3.489 -0.2664 -1.3865 -0.5613
22939SOL    HW279132  11.549   2.327   3.620  0.2493 -0.6010 -0.0205
22940SOL     OW79133   4.672   7.135  11.407  0.1649 -0.0029 -0.2750
22940SOL    HW179134   4.664   7.124  11.312  0.9263 -0.3006 -0.3059
22940SOL    HW279135   4.636   7.222  11.423 -0.5984 -0.2097 -0.7444
22941SOL     OW79136   8.781   7.842   3.866  0.3574 -0.7936 -0.3495
22941SOL    HW179137   8.708   7.780   3.869 -0.6701  0.3726 -0.1341
22941SOL    HW279138   8.763   7.903   3.938  0.7326  0.3679 -1.2072
22942SOL     OW79139   3.213   0.312   9.501  0.6108 -0.5201 -0.2437
22942SOL    HW179140   3.250   0.247   9.560 -1.5098 -0.7380  0.9269
22942SOL    HW279141   3.121   0.287   9.491 -0.0260  1.7132 -0.5379
22943SOL     OW79142   9.908   8.584   4.155  0.0633 -0.3991 -0.1731
22943SOL    HW179143   9.884   8.566   4.064  0.0149 -0.5734 -0.1257
22943SOL    HW279144  10.003   8.593   4.153 -0.0258  0.6821 -0.4287
22944SOL     OW79145   7.827   8.285   5.437 -0.4477 -0.2042  0.2102
22944SOL    HW179146   7.753   8.345   5.425 -0.8387 -0.6135  0.5432
22944SOL    HW279147   7.900   8.328   5.392 -0.7452  0.4790  0.3584
22945SOL     OW79148   9.586   2.384   8.375  0.6150 -0.1389 -0.1325
22945SOL    HW179149   9.520   2.451   8.391 -0.0958 -1.3372  2.5019
22945SOL    HW279150   9.660   2.431   8.336 -1.0459  1.5415 -1.4275
22946SOL     OW79151   3.626  11.651   0.135 -0.3888 -0.3677 -0.3222
22946SOL    HW179152   3.645  11.735   0.177 -2.9719 -0.5879  1.5669
22946SOL    HW279153   3.616  11.590   0.208 -0.6607 -1.8308 -1.5312
22947SOL     OW79154   4.298   9.899   8.800  0.1297  0.6614 -0.2345
22947SOL    HW179155   4.392   9.901   8.778  0.2038  1.7193  0.1376
22947SOL    HW279156   4.254   9.923   8.719  0.0817 -1.0324 -0.7658
22948SOL     OW79157  11.038  12.111   5.675 -0.2067 -0.5001  0.1001
22948SOL    HW179158  10.972  12.128   5.608  1.8583  1.2437 -1.6395
22948SOL    HW279159  11.112  12.075   5.626  0.5340 -1.4691  1.8506
22949SOL     OW79160   8.538   1.770  10.273  0.2716  0.4918 -0.3012
22949SOL    HW179161   8.509   1.725  10.193  0.6572  1.0696 -0.7779
22949SOL    HW279162   8.551   1.699  10.337 -1.6213  0.1629 -0.2282
22950SOL     OW79163   1.579  11.222   0.629 -0.2369 -0.6554 -0.5186
22950SOL    HW179164   1.513  11.264   0.574  0.8691 -0.6288 -1.8545
22950SOL    HW279165   1.584  11.278   0.707 -0.0038  0.7467 -1.5086
22951SOL     OW79166  11.664   5.855   7.867  0.4685 -0.2035 -0.2393
22951SOL    HW179167  11.681   5.772   7.823  0.6260  0.2125 -0.9905
22951SOL    HW279168  11.722   5.917   7.823  1.4126  0.0263  1.2704
22952SOL     OW79169   4.485   1.457   5.099  0.3246 -0.4121  0.1573
22952SOL    HW179170   4.424   1.503   5.042  0.2668 -0.6517  0.0247
22952SOL    HW279171   4.433   1.431   5.174  0.7728  1.4489  1.1885
22953SOL     OW79172   4.657   1.903   5.958  0.4118 -0.7059  0.0285
22953SOL    HW179173   4.599   1.830   5.936  0.1257 -0.6144  0.4597
22953SOL    HW279174   4.652   1.962   5.883  2.6325 -2.3104 -1.5108
22954SOL     OW79175   7.737   5.157   7.004 -0.2532 -0.6253  0.3472
22954SOL    HW179176   7.699   5.157   7.092  0.0751  0.8120  0.5210
22954SOL    HW279177   7.722   5.246   6.971  1.8173 -0.3688 -0.0615
22955SOL     OW79178   2.759   3.596   0.421  0.6501 -0.4639  0.0864
22955SOL    HW179179   2.799   3.516   0.455  0.0904  0.0545  2.0689
22955SOL    HW279180   2.695   3.565   0.357  1.2072 -1.5224  0.0125
22956SOL     OW79181   7.277   9.362   1.035 -0.6283  0.3946  0.2391
22956SOL    HW179182   7.347   9.420   1.005 -1.9573  2.3190  0.6091
22956SOL    HW279183   7.277   9.289   0.973  0.2946  1.4608 -1.0711
22957SOL     OW79184   3.031   2.168   9.485 -0.5529  0.0259  0.3406
22957SOL    HW179185   3.042   2.203   9.397 -0.7824 -1.2621 -0.2243
22957SOL    HW279186   3.085   2.225   9.540  0.7718 -0.0245 -0.8428
22958SOL     OW79187   8.011   0.027  12.137  0.4885  0.5241 -0.2188
22958SOL    HW179188   7.972  -0.056  12.166  1.1440 -0.0913 -1.0526
22958SOL    HW279189   7.938   0.089  12.136 -0.5937 -0.6757 -2.0850
22959SOL     OW79190   4.266  12.445   3.303 -0.1037  0.0092 -0.3924
22959SOL    HW179191   4.204  12.518   3.310  1.3223  1.2296  0.2099
22959SOL    HW279192   4.346  12.486   3.269  0.9944 -1.1119  0.7530
22960SOL     OW79193   8.170   1.840   3.041  0.3716 -0.5282 -0.4877
22960SOL    HW179194   8.203   1.784   2.970 -0.1445  0.8196 -1.8587
22960SOL    HW279195   8.171   1.928   3.003 -1.3672  0.0242  0.6698
22961SOL     OW79196   0.029  10.790   1.705  0.0614  0.7680  0.5477
22961SOL    HW179197  -0.036  10.725   1.677  2.0263 -0.9944 -0.1728
22961SOL    HW279198   0.065  10.755   1.786  1.4886  0.6406 -0.1040
22962SOL     OW79199   1.499   4.861   0.793 -0.4659 -0.4549  0.2528
22962SOL    HW179200   1.531   4.851   0.882  0.3556  1.5961  0.2349
22962SOL    HW279201   1.540   4.790   0.744 -0.3443 -1.1518  1.3487
22963SOL     OW79202   0.108   8.778   7.477 -0.2256  0.3772 -0.3748
22963SOL    HW179203   0.063   8.694   7.471  1.0142 -0.2844 -1.0090
22963SOL    HW279204   0.191   8.763   7.431  0.2263  1.8092 -0.0676
22964SOL     OW79205   0.206  10.665   5.784  0.2104 -0.3596  0.0266
22964SOL    HW179206   0.172  10.613   5.857 -0.6143 -2.2559 -1.5881
22964SOL    HW279207   0.195  10.756   5.811 -0.7415 -1.0030  1.9533
22965SOL     OW79208   2.506   9.947   2.837 -0.1219  0.2179  0.5036
22965SOL    HW179209   2.487   9.902   2.755 -0.4599  1.1005  0.0888
22965SOL    HW279210   2.519  10.038   2.812  0.2318  0.4167  1.3739
22966SOL     OW79211  10.448   1.228   5.716 -0.2311  0.4378  0.2532
22966SOL    HW179212  10.540   1.248   5.700 -0.4385  0.0341 -1.6444
22966SOL    HW279213  10.430   1.152   5.660 -1.4291 -0.2224  1.4834
22967SOL     OW79214   0.373  11.963  11.998 -0.2470  0.5675  0.6780
22967SOL    HW179215   0.310  12.018  11.951  1.0877  2.8298  1.4343
22967SOL    HW279216   0.345  11.966  12.089 -0.1870 -0.0778  0.7241
22968SOL     OW79217   8.851   6.797   8.014  0.4540  0.2693  0.7598
22968SOL    HW179218   8.813   6.789   7.926 -0.1089 -1.1081  1.1135
22968SOL    HW279219   8.895   6.714   8.029 -1.6967 -0.5866  2.8041
22969SOL     OW79220   0.035   1.699   5.329 -0.2286 -0.3051  0.3535
22969SOL    HW179221   0.104   1.673   5.268 -1.0324  0.4616 -0.9414
22969SOL    HW279222  -0.008   1.618   5.354 -0.3894 -0.5809 -0.7607
22970SOL     OW79223  11.024   1.113   8.120  1.0628 -0.1305  0.0378
22970SOL    HW179224  11.035   1.059   8.199  0.5237 -1.2412 -0.6258
22970SOL    HW279225  11.087   1.077   8.058 -1.9669 -2.7372 -1.7994
22971SOL     OW79226  11.197   7.434   4.716 -0.2295  0.0461  0.5510
22971SOL    HW179227  11.290   7.452   4.730 -0.1329 -0.0633  0.0512
22971SOL    HW279228  11.191   7.339   4.711 -0.4180  0.0381  0.9223
22972SOL     OW79229   6.347  10.795   5.090  0.2820  0.5204 -0.1336
22972SOL    HW179230   6.261  10.826   5.061 -0.2713 -0.2638  0.6433
22972SOL    HW279231   6.396  10.781   5.008 -0.7150 -0.1330 -0.6319
22973SOL     OW79232   6.703  12.567   5.371  0.2557 -0.7412  0.0670
22973SOL    HW179233   6.780  12.510   5.372 -0.7746 -2.2951 -1.8638
22973SOL    HW279234   6.717  12.625   5.297 -0.0988 -0.5281  0.1642
22974SOL     OW79235   6.866   7.259   8.193 -0.7595 -0.0463 -0.0646
22974SOL    HW179236   6.829   7.328   8.137  1.1791  1.6847  0.6258
22974SOL    HW279237   6.948   7.235   8.150 -0.2123 -0.1228  0.9900
22975SOL     OW79238   8.940   4.231   3.377  0.1935  0.2278  0.0508
22975SOL    HW179239   8.945   4.138   3.399  0.3099 -0.3349 -2.1378
22975SOL    HW279240   9.006   4.272   3.433  1.3400 -1.2550 -0.1483
22976SOL     OW79241   6.338   3.183   3.046 -0.0793 -0.2625 -0.0944
22976SOL    HW179242   6.370   3.273   3.057 -0.3482 -0.4042  2.7119
22976SOL    HW279243   6.303   3.180   2.957 -0.2437  2.4674 -0.2097
22977SOL     OW79244   1.840  11.056   2.658  0.0247  0.2972  0.0676
22977SOL    HW179245   1.927  11.019   2.675  0.2201 -0.2130 -1.8144
22977SOL    HW279246   1.779  10.992   2.695  0.3876 -1.5901 -2.3414
22978SOL     OW79247   1.235  10.087   2.846  0.0138  0.2963 -0.6653
22978SOL    HW179248   1.266  10.173   2.875 -0.6085  0.0447  0.8413
22978SOL    HW279249   1.190  10.105   2.764  0.5846  1.2866 -0.7829
22979SOL     OW79250  11.813   8.545  11.874  0.1664  0.1540 -0.4165
22979SOL    HW179251  11.718   8.550  11.885  0.2778  1.4377  0.1484
22979SOL    HW279252  11.848   8.569  11.960  1.0001 -0.8964 -0.4497
22980SOL     OW79253   3.131   3.262  12.449 -0.2463 -0.1795  0.1779
22980SOL    HW179254   3.124   3.172  12.480 -0.4409 -0.1869  0.1140
22980SOL    HW279255   3.190   3.257  12.373  0.9893 -0.0220  1.1043
22981SOL     OW79256  11.734   2.563  10.596 -0.4193  0.6473  0.0216
22981SOL    HW179257  11.647   2.543  10.563 -1.3194  2.0628  1.4294
22981SOL    HW279258  11.740   2.518  10.680  0.5414 -0.0973 -0.4159
22982SOL     OW79259   9.704  10.906   1.066  0.3570  0.5641  0.4063
22982SOL    HW179260   9.758  10.982   1.089  0.3930  0.4853  0.5881
22982SOL    HW279261   9.622  10.943   1.034  0.4528  0.6834  0.2986
22983SOL     OW79262   2.200   1.921  12.195 -0.1809  0.0184  0.4020
22983SOL    HW179263   2.270   1.985  12.199 -0.7687  0.6797  0.3913
22983SOL    HW279264   2.191   1.901  12.102 -0.6809  0.7085  0.2937
22984SOL     OW79265  11.946  12.239  12.163 -0.3099  0.4362  0.6545
22984SOL    HW179266  12.016  12.269  12.222 -0.5210  0.5931  0.8288
22984SOL    HW279267  11.879  12.204  12.222 -0.6191  0.7955  0.5265
22985SOL     OW79268   2.543   3.554   3.750  0.4212  0.3296  0.1029
22985SOL    HW179269   2.456   3.563   3.787  0.3967  0.3984  0.0296
22985SOL    HW279270   2.597   3.520   3.822  0.3596  0.3977  0.1814
22986SOL     OW79271  12.157  12.127   7.831  0.3509 -0.0940  0.4038
22986SOL    HW179272  12.106  12.186   7.886  1.6781 -0.1608  1.7773
22986SOL    HW279273  12.120  12.137   7.743  0.3710  2.5731  0.6347
22987SOL     OW79274  10.972   7.225   0.562  0.1007  0.2797  0.2262
22987SOL    HW179275  11.060   7.196   0.537 -1.0214 -2.0952 -1.3310
22987SOL    HW279276  10.987   7.284   0.636  2.9535 -0.4845  0.3939
22988SOL     OW79277   6.216   9.115   5.092  0.4448 -0.6532  0.1500
22988SOL    HW179278   6.185   9.035   5.051  0.8568 -0.9700  0.4471
22988SOL    HW279279   6.252   9.087   5.176  0.3032 -0.1159  0.3969
22989SOL     OW79280  10.223   1.521   7.482  0.1146 -0.0070  0.5493
22989SOL    HW179281  10.170   1.580   7.537  0.5356  1.6034 -0.7036
22989SOL    HW279282  10.301   1.503   7.534 -0.0529  0.4748  0.9718
22990SOL     OW79283   7.064   0.099   2.063 -0.2410 -0.4655  0.3534
22990SOL    HW179284   7.115   0.174   2.034 -0.6556  0.4263  1.8200
22990SOL    HW279285   7.102   0.024   2.016  1.7233  0.3023  0.6271
22991SOL     OW79286   7.236   4.739   3.460 -0.2281  0.1061 -0.4587
22991SOL    HW179287   7.219   4.790   3.381 -0.7152 -0.4378 -0.7069
22991SOL    HW279288   7.158   4.686   3.473  0.7659 -1.5576 -0.9579
22992SOL     OW79289  11.019  11.817  10.672  0.3420 -0.2035 -0.2520
22992SOL    HW179290  10.924  11.825  10.668  0.2773 -0.9872 -0.5177
22992SOL    HW279291  11.035  11.753  10.741  0.7471  0.8910  0.7044
22993SOL     OW79292  11.812   8.163   0.486  0.2663 -0.3165  0.1939
22993SOL    HW179293  11.775   8.194   0.569 -0.6725  1.6987 -0.9078
22993SOL    HW279294  11.797   8.068   0.487 -0.2335 -0.2643  2.0538
22994SOL     OW79295  10.870   6.225   2.060 -0.5516 -0.4189  0.2028
22994SOL    HW179296  10.931   6.270   2.119 -0.3523  0.2639 -0.5141
22994SOL    HW279297  10.808   6.183   2.119 -0.2272  0.0646  0.9123
22995SOL     OW79298   4.268  12.958   4.617 -0.5064  0.4132  0.7348
22995SOL    HW179299   4.276  12.900   4.692  0.5505  0.2299  0.5044
22995SOL    HW279300   4.292  13.045   4.650 -0.8142  0.4771  0.7886
22996SOL     OW79301   9.122   9.508   4.860  0.3839 -0.1501  0.3994
22996SOL    HW179302   9.108   9.504   4.955 -0.6394  1.3351  0.3398
22996SOL    HW279303   9.087   9.593   4.834  2.6544  0.4548 -0.9951
22997SOL     OW79304   7.097   5.983   5.689  0.3483 -0.0143 -0.3996
22997SOL    HW179305   7.147   5.984   5.608 -0.5535  1.4821 -0.9875
22997SOL    HW279306   7.163   5.986   5.758  1.1041  0.3154 -1.1177
22998SOL     OW79307  10.555   0.052  11.091  0.1373 -0.1065 -0.0388
22998SOL    HW179308  10.481   0.007  11.049 -1.5642  0.6617  1.9756
22998SOL    HW279309  10.575  -0.002  11.167 -0.2350  1.1389  0.9785
22999SOL     OW79310   4.288   1.263   3.746  0.2593 -0.0297 -0.1506
22999SOL    HW179311   4.320   1.174   3.756  0.6789 -0.1423 -2.1446
22999SOL    HW279312   4.233   1.260   3.667 -2.9551  0.6413  1.8646
23000SOL     OW79313   0.008   8.168  11.334 -0.6166  0.2141  0.0821
23000SOL    HW179314  -0.013   8.124  11.417 -3.6396 -1.1021 -1.2169
23000SOL    HW279315  -0.035   8.253  11.340  0.0723  0.5647  0.2211
23001SOL     OW79316   4.905   3.673   8.595  0.1417 -0.3475 -0.2166
23001SOL    HW179317   4.975   3.626   8.550 -1.5733 -1.8403 -1.4725
23001SOL    HW279318   4.826   3.652   8.545 -1.7403 -1.2108  2.8297
23002SOL     OW79319   0.032   4.287  12.869 -0.2692 -0.3634  0.3283
23002SOL    HW179320  -0.048   4.333  12.841 -1.1941 -2.4740 -0.6894
23002SOL    HW279321   0.098   4.312  12.805 -0.7894 -0.5269 -0.2781
23003SOL     OW79322   8.740   2.520   4.437  0.0040 -0.4034 -0.0088
23003SOL    HW179323   8.686   2.451   4.475  0.6585 -0.2042  1.3579
23003SOL    HW279324   8.684   2.597   4.437  0.3703 -0.0820  1.8327
23004SOL     OW79325   0.406   8.730  12.109 -0.1619  0.0646 -0.7954
23004SOL    HW179326   0.449   8.682  12.039  0.5489 -0.0032 -0.3243
23004SOL    HW279327   0.313   8.726  12.088  0.0683  0.2786 -1.8665
23005SOL     OW79328  11.413  10.652   4.774  0.2010  0.0185 -0.0336
23005SOL    HW179329  11.473  10.720   4.744 -0.9283  1.0855  0.0601
23005SOL    HW279330  11.345  10.648   4.707 -0.5274  0.0372  0.6884
23006SOL     OW79331   8.520   9.755  10.257 -0.1297  0.2418 -0.0409
23006SOL    HW179332   8.566   9.817  10.314 -0.3700  0.8121 -0.4577
23006SOL    HW279333   8.432   9.793  10.247 -0.3357 -0.2631 -0.1534
23007SOL     OW79334  10.018   2.215  12.336 -0.1013  0.2417 -0.0116
23007SOL    HW179335   9.987   2.125  12.348  1.6602 -0.3121  0.8576
23007SOL    HW279336  10.078   2.229  12.410  2.2578  0.8980 -1.9015
23008SOL     OW79337   8.311   3.116   6.816  0.0319 -0.6219 -0.5331
23008SOL    HW179338   8.303   3.093   6.724  0.3596  1.7510 -1.2066
23008SOL    HW279339   8.249   3.188   6.829 -0.2933 -1.1557  1.2110
23009SOL     OW79340   7.073   1.239   0.712 -0.4815 -0.6222  0.1144
23009SOL    HW179341   7.113   1.312   0.665 -0.4917  0.8651  2.3074
23009SOL    HW279342   7.137   1.168   0.703 -0.0569 -0.1058 -1.2907
23010SOL     OW79343   0.508   3.478  12.013 -0.4594  0.4259 -0.3995
23010SOL    HW179344   0.527   3.426  12.090 -0.2703 -0.4646 -1.0321
23010SOL    HW279345   0.504   3.415  11.941 -0.7302  1.2197 -1.1044
23011SOL     OW79346   8.822   6.913   2.342 -0.1263  0.1668  0.0164
23011SOL    HW179347   8.761   6.891   2.413 -0.8043 -0.8892 -0.8544
23011SOL    HW279348   8.787   6.866   2.266  1.1734  0.4336 -0.7642
23012SOL     OW79349   2.438   5.773  10.386  0.3105  0.2902 -0.0701
23012SOL    HW179350   2.351   5.811  10.398 -0.0926 -1.0530  1.6882
23012SOL    HW279351   2.486   5.799  10.465  1.8927  1.8634 -1.4620
23013SOL     OW79352   3.609   2.258   4.633  0.1048  0.7100 -0.3316
23013SOL    HW179353   3.628   2.184   4.575  0.2396  0.9763 -0.6321
23013SOL    HW279354   3.637   2.228   4.720  1.4156  0.8857 -0.6701
23014SOL     OW79355   1.993   3.845   1.812 -0.6109 -0.2320 -0.1629
23014SOL    HW179356   1.900   3.837   1.793 -0.8942  0.0945  0.9947
23014SOL    HW279357   2.026   3.911   1.751 -1.3995  0.5551  0.2581
23015SOL     OW79358   1.710  12.051   0.546  0.6926  0.5483 -0.1469
23015SOL    HW179359   1.646  12.121   0.541 -0.9828 -0.9749 -1.0616
23015SOL    HW279360   1.732  12.031   0.455  0.9360 -0.3059  0.0902
23016SOL     OW79361   9.903   1.820   6.081 -0.0227 -0.1255  0.1432
23016SOL    HW179362   9.952   1.901   6.098 -1.2766  0.6133  0.3981
23016SOL    HW279363   9.874   1.828   5.990 -3.2242  1.5219  1.1490
23017SOL     OW79364   9.754  11.121   0.774 -0.1020  0.1715  0.0807
23017SOL    HW179365   9.678  11.173   0.750  1.1956  1.6601 -1.0235
23017SOL    HW279366   9.718  11.047   0.822 -2.0678  1.8006  1.2628
23018SOL     OW79367   6.437   6.198   2.132 -0.0946  0.2379  0.2341
23018SOL    HW179368   6.522   6.153   2.133 -0.1361  0.1573  0.1588
23018SOL    HW279369   6.459   6.290   2.142 -0.0344  0.1633  0.7779
23019SOL     OW79370   0.626   8.734  10.830  0.4904  0.0119 -0.0633
23019SOL    HW179371   0.597   8.647  10.805  1.1906 -0.3258  0.2645
23019SOL    HW279372   0.720   8.734  10.813  0.8708  0.0165  1.7765
23020SOL     OW79373   1.743   6.782  11.619 -0.5870  0.1922 -0.3148
23020SOL    HW179374   1.800   6.803  11.693  1.1807  3.6037 -2.3706
23020SOL    HW279375   1.794   6.721  11.566 -0.2816  0.5739 -0.4669
23021SOL     OW79376   6.524   3.998   8.256  0.3979  0.4792 -0.2194
23021SOL    HW179377   6.565   4.081   8.282  1.7961 -0.5266  0.9757
23021SOL    HW279378   6.522   4.001   8.161  0.8017  1.7131 -0.2083
23022SOL     OW79379   7.067   9.714   9.890  0.2863  0.2764  0.2113
23022SOL    HW179380   6.990   9.767   9.867  0.6501  1.6396  1.9133
23022SOL    HW279381   7.126   9.726   9.816 -0.6317  0.2497 -0.5443
23023SOL     OW79382   5.194   1.885  10.511 -1.0536  0.9371 -0.0194
23023SOL    HW179383   5.269   1.870  10.454  0.3160  3.7490  0.8420
23023SOL    HW279384   5.125   1.915  10.452 -1.5649 -1.5549 -0.8030
23024SOL     OW79385   3.513   7.662   8.770  0.0013  0.2327  0.1865
23024SOL    HW179386   3.519   7.576   8.811 -0.7411  0.4166  0.7151
23024SOL    HW279387   3.549   7.722   8.836  0.2570  0.3558 -0.0657
23025SOL     OW79388  12.294   8.079  11.332  0.4967  0.4736 -0.1101
23025SOL    HW179389  12.302   7.985  11.317  0.9775  0.4701  0.1426
23025SOL    HW279390  12.225   8.087  11.398  1.6839  0.1659  1.2324
23026SOL     OW79391   0.182   8.165   0.163  0.2117  0.6914 -0.6781
23026SOL    HW179392   0.254   8.112   0.130 -0.5448 -0.4697 -0.5101
23026SOL    HW279393   0.132   8.190   0.086 -0.9938 -1.1934 -0.5648
23027SOL     OW79394   1.782   1.072   6.443 -0.1869  0.2609  0.3854
23027SOL    HW179395   1.860   1.113   6.405 -0.0425  1.9131  2.2838
23027SOL    HW279396   1.723   1.145   6.461 -0.7096 -0.5536  2.1976
23028SOL     OW79397   4.869   9.529  10.413  0.2975  0.0245 -0.9983
23028SOL    HW179398   4.799   9.480  10.457  1.1791 -0.4600 -0.0854
23028SOL    HW279399   4.855   9.512  10.320  0.0913 -1.3076 -0.7502
23029SOL     OW79400  10.863   8.520  11.723  0.3715  0.1079  0.5077
23029SOL    HW179401  10.784   8.571  11.744  0.3288  0.9976 -1.6095
23029SOL    HW279402  10.909   8.572  11.657  0.7649 -2.1609 -1.1369
23030SOL     OW79403   6.490   1.308  12.448  0.0798  0.4959 -0.5375
23030SOL    HW179404   6.475   1.272  12.360  4.0334 -1.7213 -0.5756
23030SOL    HW279405   6.568   1.362  12.438  0.3826  0.5044  1.5286
23031SOL     OW79406   2.226   3.160  10.045  0.2729  0.2521  0.0351
23031SOL    HW179407   2.210   3.162  10.139 -1.1900  3.1402 -0.1714
23031SOL    HW279408   2.176   3.085  10.013 -0.0941 -0.1050  1.4051
23032SOL     OW79409   9.243  12.606  12.868 -0.0503 -0.0862  0.4171
23032SOL    HW179410   9.323  12.605  12.815  0.1815  1.2044  0.7112
23032SOL    HW279411   9.273  12.605  12.958 -0.4346 -1.6411  0.5475
23033SOL     OW79412   9.174   9.184   2.624 -0.5373  0.1380 -0.2757
23033SOL    HW179413   9.119   9.174   2.703 -0.2075  0.0269 -0.0586
23033SOL    HW279414   9.207   9.273   2.629 -0.2220  0.0112 -0.0972
23034SOL     OW79415   2.422   0.515   2.292  0.1254 -0.1618 -0.2307
23034SOL    HW179416   2.517   0.524   2.283 -0.0263  1.4083 -0.5831
23034SOL    HW279417   2.389   0.605   2.289 -1.3572 -0.6634  0.1485
23035SOL     OW79418  12.493   9.280   9.003  0.0687  0.5603 -0.7454
23035SOL    HW179419  12.536   9.199   9.027 -0.7408  0.5847  0.9593
23035SOL    HW279420  12.510   9.291   8.910  1.3305 -0.8513 -0.6960
23036SOL     OW79421   4.820   3.965   2.115  0.4147 -0.0290 -0.5233
23036SOL    HW179422   4.781   4.015   2.187  0.0937 -1.7170  0.5456
23036SOL    HW279423   4.854   4.031   2.055 -1.2252  1.4656  0.1092
23037SOL     OW79424   9.701   3.591   0.173  0.2785  0.0033  0.2006
23037SOL    HW179425   9.765   3.534   0.131  0.9712  0.8044  0.1501
23037SOL    HW279426   9.750   3.670   0.195 -0.4965  0.2941  0.9220
23038SOL     OW79427   8.876   4.673   1.679 -0.3265 -0.0823 -0.1620
23038SOL    HW179428   8.939   4.603   1.693 -0.3816  0.1811  1.7487
23038SOL    HW279429   8.843   4.693   1.767 -1.9102  0.8598 -0.9196
23039SOL     OW79430   4.866   1.077   3.509  0.7094  0.2559 -0.4272
23039SOL    HW179431   4.859   1.096   3.602 -1.2552 -0.8457 -0.2996
23039SOL    HW279432   4.778   1.096   3.474  1.3700  0.5254 -2.0375
23040SOL     OW79433  12.819  12.089  12.460 -0.4698 -0.3664 -0.2874
23040SOL    HW179434  12.781  12.132  12.537  0.9408 -0.8242  0.7211
23040SOL    HW279435  12.761  12.015  12.442  0.9239 -2.3590  2.5464
23041SOL     OW79436  10.457   9.086   7.184  0.1543 -0.5693  0.0432
23041SOL    HW179437  10.406   9.079   7.103 -0.5170  2.6911  0.0455
23041SOL    HW279438  10.395   9.066   7.253  0.2546 -1.5616 -0.1375
23042SOL     OW79439   0.628  11.907   3.707 -0.3930 -0.4660  0.0114
23042SOL    HW179440   0.555  11.877   3.652  0.8513 -0.2522 -1.8529
23042SOL    HW279441   0.592  11.980   3.756 -1.7106 -0.9922 -0.1219
23043SOL     OW79442   5.472   0.959   9.609  0.1202 -0.0935  0.3702
23043SOL    HW179443   5.420   0.891   9.566 -1.9804  1.7647 -0.2419
23043SOL    HW279444   5.422   1.040   9.594  2.0224  1.4464  1.8477
23044SOL     OW79445   2.301   6.195   7.835 -0.2728  0.0875  0.3830
23044SOL    HW179446   2.250   6.274   7.821 -0.0271  0.6528  2.3125
23044SOL    HW279447   2.247   6.141   7.892 -0.1772 -0.8951 -0.4210
23045SOL     OW79448   5.560  11.244  10.613 -0.4917  0.1975 -0.0519
23045SOL    HW179449   5.516  11.273  10.692  1.0050  1.3758  0.4036
23045SOL    HW279450   5.601  11.160  10.637 -1.4175 -0.2788 -0.1085
23046SOL     OW79451   2.187   3.449   6.722 -0.0166 -0.2550 -0.4232
23046SOL    HW179452   2.252   3.414   6.783  1.1917 -0.6813 -1.8903
23046SOL    HW279453   2.110   3.393   6.734 -0.4690  0.7577  1.9218
23047SOL     OW79454   8.034  12.565  11.712 -0.2124 -0.0067 -0.0377
23047SOL    HW179455   7.956  12.580  11.766  0.0603  0.7547  0.1560
23047SOL    HW279456   8.106  12.601  11.764  0.0690  0.6546 -0.8736
23048SOL     OW79457   5.046   2.796  10.637 -0.1948 -0.0950  0.1555
23048SOL    HW179458   5.079   2.724  10.584 -1.4202  0.6213 -1.6939
23048SOL    HW279459   5.067   2.771  10.727 -0.4228 -2.6848 -0.4138
23049SOL     OW79460   0.505   8.752   0.702 -0.1931 -0.8994  0.4621
23049SOL    HW179461   0.514   8.820   0.768 -1.7847 -1.0730  0.8971
23049SOL    HW279462   0.548   8.675   0.741 -2.5867 -1.5051  2.1255
23050SOL     OW79463   7.151   7.190   6.742  0.1259 -0.4429 -0.1376
23050SOL    HW179464   7.217   7.165   6.808  0.6790  1.6305  0.1492
23050SOL    HW279465   7.184   7.151   6.661  0.8333 -0.8113  0.3045
23051SOL     OW79466   5.410  10.848  12.540  0.0312  0.0244 -0.0662
23051SOL    HW179467   5.388  10.804  12.622  0.6252  0.5511  0.3881
23051SOL    HW279468   5.505  10.857  12.542  0.1369 -0.6026 -1.1570
23052SOL     OW79469   3.902   9.415   6.175  0.3025 -0.2486 -0.4711
23052SOL    HW179470   3.888   9.470   6.253  0.4034 -0.6579 -0.1576
23052SOL    HW279471   3.822   9.362   6.170 -0.7500  1.3843 -2.0080
23053SOL     OW79472   3.777   4.295   3.290  0.0447 -0.2792  0.3932
23053SOL    HW179473   3.726   4.372   3.265  1.6534  1.4129  1.9751
23053SOL    HW279474   3.764   4.233   3.218 -0.5405  1.8594 -1.4448
23054SOL     OW79475  10.745   4.493   9.276  0.2262  0.8265 -0.7554
23054SOL    HW179476  10.693   4.574   9.268 -0.4071  0.3457 -1.6117
23054SOL    HW279477  10.795   4.488   9.194  0.0174  0.1801 -0.8447
23055SOL     OW79478   9.503  12.551   0.639 -0.0015  0.2548 -0.4131
23055SOL    HW179479   9.417  12.515   0.617 -0.4475  1.0410 -0.0099
23055SOL    HW279480   9.495  12.645   0.622  0.6891  0.3789 -0.0988
23056SOL     OW79481   0.017   2.401   2.902  0.2629 -0.4735  0.8032
23056SOL    HW179482   0.059   2.476   2.859 -1.1111 -0.4524 -0.5534
23056SOL    HW279483  -0.006   2.342   2.831 -2.0306 -0.4668  1.4750
23057SOL     OW79484   8.718   4.872   5.804 -0.2219 -0.3936  0.0768
23057SOL    HW179485   8.722   4.964   5.778 -1.7031 -0.1563  0.6103
23057SOL    HW279486   8.795   4.860   5.860 -0.2187  0.6243  0.3074
23058SOL     OW79487  11.403   6.087   8.283 -0.0764  0.0194  0.4043
23058SOL    HW179488  11.324   6.135   8.307 -0.4287 -0.4064  0.1218
23058SOL    HW279489  11.465   6.154   8.254 -0.0023  0.4484  1.4968
23059SOL     OW79490   1.726   7.421   2.989 -0.4130  0.1471  0.2120
23059SOL    HW179491   1.643   7.454   2.954 -0.3168 -0.0919 -0.2555
23059SOL    HW279492   1.793   7.459   2.932 -0.1628  0.7719  0.9212
23060SOL     OW79493   0.197  10.159   4.341 -0.0487  0.1167  0.4247
23060SOL    HW179494   0.101  10.160   4.338 -0.1127  0.8980 -3.9935
23060SOL    HW279495   0.219  10.225   4.407 -2.6487  2.2452 -0.6406
23061SOL     OW79496  11.382   8.401   0.416  0.5695 -0.5278  0.3684
23061SOL    HW179497  11.356   8.407   0.324  1.2144  0.5611  0.2297
23061SOL    HW279498  11.383   8.308   0.435  0.9876 -0.8048 -0.9036
23062SOL     OW79499   7.794   2.337   9.317 -0.7442 -0.2198 -0.1686
23062SOL    HW179500   7.710   2.378   9.335 -0.6675 -0.0644 -0.1643
23062SOL    HW279501   7.823   2.303   9.402 -1.6584 -1.9018 -0.4805
23063SOL     OW79502   0.967   8.211   4.515  0.3039  0.2285 -0.0987
23063SOL    HW179503   0.958   8.186   4.423 -0.6150 -1.9550  0.5084
23063SOL    HW279504   0.876   8.217   4.547  0.5350 -2.6032  1.4552
23064SOL     OW79505  11.645   8.391   8.570 -0.3228 -0.4650 -0.1387
23064SOL    HW179506  11.691   8.314   8.605 -1.9101 -0.7581  1.4309
23064SOL    HW279507  11.606   8.433   8.647  0.3945  1.8922 -0.9672
23065SOL     OW79508   1.043  10.449  11.188 -0.0938  0.0071 -0.5116
23065SOL    HW179509   1.126  10.478  11.149 -0.8207  0.2390 -1.9851
23065SOL    HW279510   1.039  10.494  11.272  0.2162  1.8628 -1.4223
23066SOL     OW79511   7.364  11.351   7.201 -0.4392  0.1039  0.0584
23066SOL    HW179512   7.387  11.419   7.265 -0.1987 -1.9207  2.2354
23066SOL    HW279513   7.278  11.320   7.229 -1.6458  1.0559 -2.3366
23067SOL     OW79514  11.184   4.715  11.198  0.1635 -0.4976 -0.7596
23067SOL    HW179515  11.275   4.708  11.170 -0.1920  0.1887 -2.1904
23067SOL    HW279516  11.154   4.624  11.207  1.0577 -0.7244 -0.0015
23068SOL     OW79517  12.681   5.553   1.851 -0.0179 -0.1399  0.3966
23068SOL    HW179518  12.609   5.530   1.792  1.2452  1.5838 -2.0301
23068SOL    HW279519  12.660   5.641   1.880  0.8971  0.2454 -0.0655
23069SOL     OW79520  10.749   7.002   3.741 -0.0911  0.0132 -0.1834
23069SOL    HW179521  10.831   6.955   3.758 -1.0396 -1.6974 -0.1372
23069SOL    HW279522  10.710   6.957   3.667 -0.9850  0.8281 -0.2254
23070SOL     OW79523   2.876  12.890   9.767  0.5513 -0.0850 -0.9166
23070SOL    HW179524   2.971  12.882   9.775  0.4056 -0.8752  0.5018
23070SOL    HW279525   2.857  12.981   9.786  0.9552 -0.1511 -0.1821
23071SOL     OW79526  10.890   3.211  10.717 -0.1020 -0.0793 -0.2043
23071SOL    HW179527  10.906   3.212  10.812 -0.0723 -0.2161 -0.2081
23071SOL    HW279528  10.977   3.204  10.678  0.0272  1.5978 -0.2843
23072SOL     OW79529   0.071   7.750  10.281 -0.3486 -0.4690 -0.3564
23072SOL    HW179530   0.154   7.794  10.297  0.2165 -1.5511 -0.2065
23072SOL    HW279531   0.023   7.759  10.363  0.2166 -1.0631  0.0555
23073SOL     OW79532   9.933   0.785   0.731  0.4501 -0.1117 -0.6524
23073SOL    HW179533   9.934   0.735   0.812  0.4640 -0.3100 -0.7729
23073SOL    HW279534   9.855   0.755   0.684 -1.0526  1.8814  0.4319
23074SOL     OW79535  10.445   1.194   4.584 -0.0734  0.0571 -0.4983
23074SOL    HW179536  10.412   1.219   4.670 -1.3755  2.0690 -1.5015
23074SOL    HW279537  10.369   1.201   4.526  1.2167  0.9839 -2.1912
23075SOL     OW79538   8.628   1.442   9.758  0.1467  0.3807 -0.0674
23075SOL    HW179539   8.646   1.366   9.814 -1.8913  0.3495  0.6293
23075SOL    HW279540   8.640   1.409   9.669 -1.0318 -0.9107  0.2026
23076SOL     OW79541   8.319   8.996   3.065  0.5078  0.1819  0.6241
23076SOL    HW179542   8.260   9.045   3.122  1.9728  3.5779 -0.5190
23076SOL    HW279543   8.401   8.991   3.113  1.4997  2.3221 -0.7326
23077SOL     OW79544   4.261  10.825   9.942 -0.7940  0.4334 -1.2987
23077SOL    HW179545   4.217  10.834   9.857  1.2703 -0.2130 -2.5192
23077SOL    HW279546   4.243  10.735   9.968 -1.9721  0.8231 -0.6808
23078SOL     OW79547   3.093   0.180  10.034  0.0651  0.0716 -0.4729
23078SOL    HW179548   3.166   0.241  10.040 -0.6504  0.9853 -0.8381
23078SOL    HW279549   3.056   0.196   9.947 -1.4946  0.6960  0.2718
23079SOL     OW79550   0.124   5.795   5.376 -0.8128 -0.5798  0.1108
23079SOL    HW179551   0.031   5.806   5.360 -0.8023  1.2175  1.0741
23079SOL    HW279552   0.165   5.873   5.337  0.2800 -1.2664 -0.1695
23080SOL     OW79553  11.328   1.195   8.990 -0.1242 -0.2439  0.3485
23080SOL    HW179554  11.313   1.101   8.982 -0.4631 -0.3106  1.6025
23080SOL    HW279555  11.420   1.206   8.967  0.0081 -0.9237  0.5191
23081SOL     OW79556   6.680   2.769   7.311  0.1640  0.1812  0.6073
23081SOL    HW179557   6.721   2.829   7.250  2.1514 -0.0427  1.6520
23081SOL    HW279558   6.741   2.696   7.318 -1.3374 -1.1304  0.7554
23082SOL     OW79559   9.183   6.720   4.751  0.0005  0.7222 -0.3164
23082SOL    HW179560   9.207   6.674   4.672 -0.9110  1.3533 -0.9872
23082SOL    HW279561   9.188   6.654   4.820  1.5216  0.3530 -0.7611
23083SOL     OW79562   8.966   1.877   3.396  0.4165  0.1268  0.5894
23083SOL    HW179563   8.879   1.891   3.433 -0.8700  2.0179 -2.6664
23083SOL    HW279564   8.949   1.836   3.311  2.7245  0.4437 -0.0869
23084SOL     OW79565  11.788   3.525   9.399 -0.0151  0.1721  0.1349
23084SOL    HW179566  11.864   3.535   9.342  1.4183  0.9784  2.0611
23084SOL    HW279567  11.815   3.460   9.464 -0.8264  0.6938  1.0361
23085SOL     OW79568  10.700   6.815  11.037 -0.0718  0.0894  0.0738
23085SOL    HW179569  10.771   6.755  11.014  0.0989  1.0186 -2.0582
23085SOL    HW279570  10.743   6.887  11.082 -0.0483 -0.5340  1.0875
23086SOL     OW79571   6.113   0.120   5.766  0.7543 -0.2868 -0.0040
23086SOL    HW179572   6.165   0.063   5.709  1.2777  0.9017 -0.7461
23086SOL    HW279573   6.031   0.134   5.718  1.3648  1.0620 -0.7058
23087SOL     OW79574   5.226   2.567   2.922 -0.0771 -0.0563  0.0040
23087SOL    HW179575   5.281   2.630   2.969  0.1701  0.9675 -1.5642
23087SOL    HW279576   5.198   2.504   2.988  0.3794  1.2250  1.4522
23088SOL     OW79577   1.747   3.001   7.337 -0.2889 -0.9258  0.2001
23088SOL    HW179578   1.666   3.026   7.293  0.4860  1.7220  0.1056
23088SOL    HW279579   1.740   3.038   7.425  1.1334  0.0859 -0.0776
23089SOL     OW79580   6.092  11.835   0.641  0.1389  0.2175 -0.1590
23089SOL    HW179581   6.092  11.850   0.735  1.1093  1.2504 -0.3027
23089SOL    HW279582   6.059  11.746   0.631  1.0046 -0.2936  1.2386
23090SOL     OW79583   1.423   5.407   5.774 -0.2462 -0.2656 -0.3258
23090SOL    HW179584   1.412   5.325   5.725  1.6614 -1.2772  0.8524
23090SOL    HW279585   1.421   5.381   5.866  0.0925  1.0528  0.0753
23091SOL     OW79586   4.245   9.321  12.658 -0.4974  0.2031  0.1922
23091SOL    HW179587   4.310   9.261  12.622 -0.0886  0.2347  0.8619
23091SOL    HW279588   4.161   9.278  12.640 -0.1812 -0.9604  1.3351
23092SOL     OW79589   8.791   6.681   0.620  0.0501 -0.3756  0.2713
23092SOL    HW179590   8.771   6.703   0.530  0.2585 -0.8441  0.1042
23092SOL    HW279591   8.843   6.755   0.652 -0.5080  0.0556  0.1897
23093SOL     OW79592   2.502   3.675   1.612 -0.3211 -0.3086  0.0538
23093SOL    HW179593   2.570   3.676   1.680  0.1299  0.6814 -0.3858
23093SOL    HW279594   2.550   3.684   1.530 -0.8578 -1.5421 -0.4173
23094SOL     OW79595  12.481   4.097   8.465 -0.1095  0.7899  0.0193
23094SOL    HW179596  12.571   4.092   8.433 -0.0188 -2.2215  0.5007
23094SOL    HW279597  12.429   4.117   8.386  0.8094  0.9342 -0.5638
23095SOL     OW79598   6.559   9.193   0.976  0.4526  0.1192 -0.2119
23095SOL    HW179599   6.615   9.266   1.001  0.3706 -0.1372  0.7765
23095SOL    HW279600   6.513   9.223   0.898  0.5432  1.0530  0.0862
23096SOL     OW79601   0.484   6.157   2.658 -0.3756  0.3581 -0.0949
23096SOL    HW179602   0.426   6.175   2.584 -0.9124 -0.0369  0.2196
23096SOL    HW279603   0.529   6.076   2.635 -1.0093 -0.1119  0.2707
23097SOL     OW79604  11.171   8.198   2.785 -0.0258 -0.6154 -0.8480
23097SOL    HW179605  11.157   8.283   2.827  0.0495 -0.2119 -1.6189
23097SOL    HW279606  11.236   8.154   2.840  0.3365  0.0484 -0.7411
23098SOL     OW79607   1.940   6.362   7.139  0.1854  0.1578 -0.4862
23098SOL    HW179608   1.936   6.420   7.063  0.5905 -0.5674 -1.0807
23098SOL    HW279609   1.958   6.420   7.213 -0.8654  0.9581 -0.8267
23099SOL     OW79610   1.677   9.757   2.184 -0.3398 -0.4339 -0.2603
23099SOL    HW179611   1.723   9.673   2.186  0.2937 -0.0985  1.7709
23099SOL    HW279612   1.746   9.822   2.196 -0.9942  0.2931 -0.3668
23100SOL     OW79613   5.415   9.246   3.556  0.2182  0.0103 -0.1847
23100SOL    HW179614   5.360   9.308   3.604 -0.9278 -1.4164  0.4165
23100SOL    HW279615   5.403   9.270   3.464  0.5919  1.2941  0.0831
23101SOL     OW79616   0.400   5.865   7.257  0.0030 -0.0171 -0.3238
23101SOL    HW179617   0.312   5.829   7.262 -0.0124 -0.0643 -0.8773
23101SOL    HW279618   0.394   5.950   7.302 -0.5733  0.4461 -1.2452
23102SOL     OW79619  12.482  12.217   3.275  0.2326 -0.4343  0.4239
23102SOL    HW179620  12.429  12.141   3.299  1.3079 -1.2030  0.3870
23102SOL    HW279621  12.555  12.182   3.225  0.1005  0.7568 -0.6731
23103SOL     OW79622   9.870   4.399   7.887  0.6131 -0.0578 -0.4417
23103SOL    HW179623   9.962   4.420   7.871  0.5016  0.4799 -0.3828
23103SOL    HW279624   9.824   4.483   7.882  0.2772 -0.1717  0.5938
23104SOL     OW79625   5.281   9.747   7.913  0.0864  0.5023  0.4308
23104SOL    HW179626   5.185   9.745   7.918  0.0490  0.3603 -0.2067
23104SOL    HW279627   5.309   9.678   7.974 -0.2817 -0.4841 -0.4717
23105SOL     OW79628   4.314   4.235  12.601 -0.1334  0.5452 -0.3813
23105SOL    HW179629   4.281   4.213  12.513  0.2254  1.6572 -0.8214
23105SOL    HW279630   4.372   4.163  12.624 -1.1635 -0.3587 -0.5303
23106SOL     OW79631   2.993   7.209   2.153 -0.1131 -0.1882  0.0903
23106SOL    HW179632   2.971   7.245   2.239  0.3512  0.4345 -0.0439
23106SOL    HW279633   2.940   7.130   2.146 -1.4151  0.6538  0.2424
23107SOL     OW79634   5.355   8.756   7.179  0.0589 -0.1298 -0.3708
23107SOL    HW179635   5.408   8.828   7.215  0.9700 -0.3843 -1.1626
23107SOL    HW279636   5.418   8.702   7.132 -0.9708 -0.2264 -1.6772
23108SOL     OW79637   9.639   0.543   0.088 -0.5212 -0.3742 -0.0842
23108SOL    HW179638   9.579   0.508   0.023  0.4644  1.5073 -2.1237
23108SOL    HW279639   9.586   0.606   0.138 -0.9280 -0.7667 -0.0194
23109SOL     OW79640   5.832  12.369   9.600 -0.4394 -0.0762  0.4590
23109SOL    HW179641   5.857  12.461   9.589 -2.0330  0.3686  0.3624
23109SOL    HW279642   5.905  12.320   9.561  0.7107  1.1141  1.0346
23110SOL     OW79643   8.399   0.004   2.918  0.3290 -0.3999  0.2403
23110SOL    HW179644   8.410   0.081   2.974 -0.5981 -0.9900  1.2713
23110SOL    HW279645   8.338  -0.052   2.966  0.9795 -1.7790 -0.4840
23111SOL     OW79646  12.792   8.670   9.688  0.9585  0.2477  0.5545
23111SOL    HW179647  12.810   8.586   9.729  2.6902 -0.0154 -0.6635
23111SOL    HW279648  12.878   8.704   9.663  0.2923  2.2902  0.8071
23112SOL     OW79649   9.710   8.675  11.926  0.0770  0.3005 -0.1824
23112SOL    HW179650   9.723   8.581  11.934  0.4810  0.3125 -0.6494
23112SOL    HW279651   9.796   8.713  11.948 -0.0309  0.5502 -0.1866
23113SOL     OW79652   4.176   7.481   0.879 -0.0490  0.0870  0.0165
23113SOL    HW179653   4.125   7.561   0.868  0.9581  0.8747  0.7729
23113SOL    HW279654   4.168   7.460   0.972 -1.0234 -1.2224 -0.3348
23114SOL     OW79655   2.145   5.808  10.681 -0.3741 -0.2743 -0.0054
23114SOL    HW179656   2.109   5.864  10.749 -3.0973 -0.3749 -1.2524
23114SOL    HW279657   2.134   5.858  10.600  3.2502  0.0632 -0.4802
23115SOL     OW79658   9.797  11.778   9.706  0.1844  0.1384  0.0270
23115SOL    HW179659   9.881  11.813   9.733 -0.1401  0.7205  0.2938
23115SOL    HW279660   9.739  11.791   9.781 -0.4776  0.9188 -0.5931
23116SOL     OW79661   8.625   0.256   8.207  0.3394  0.6110  0.0892
23116SOL    HW179662   8.671   0.243   8.290 -1.6629  3.4084  1.8112
23116SOL    HW279663   8.667   0.331   8.168 -0.5604  1.1001  0.0317
23117SOL     OW79664  10.216   0.828  12.859 -0.2655  0.6093 -0.2386
23117SOL    HW179665  10.233   0.793  12.772  1.5543 -0.8520  0.6349
23117SOL    HW279666  10.236   0.921  12.852  2.6546  0.0287 -0.7773
23118SOL     OW79667   0.620   7.743   6.449  0.2396  0.0032  0.0633
23118SOL    HW179668   0.567   7.810   6.407 -1.3913 -1.3932 -0.2278
23118SOL    HW279669   0.571   7.720   6.528  1.2266 -0.2279  0.6209
23119SOL     OW79670   9.952   6.114   9.558 -0.2864 -0.3429  0.0993
23119SOL    HW179671   9.943   6.144   9.468  0.6950  0.4527  0.2439
23119SOL    HW279672   9.980   6.191   9.607 -0.9564 -0.7283  1.1187
23120SOL     OW79673   2.949   9.187   4.283  0.1893 -0.5150  0.0740
23120SOL    HW179674   3.025   9.235   4.314  1.3410 -2.1606 -0.0255
23120SOL    HW279675   2.897   9.171   4.361 -0.7466  1.7003 -0.0386
23121SOL     OW79676   2.312   7.615  12.765  0.1194  0.5587  0.3052
23121SOL    HW179677   2.306   7.601  12.860 -0.3075 -3.6195 -0.1402
23121SOL    HW279678   2.406   7.614  12.747  0.3023  3.1663  0.7689
23122SOL     OW79679   2.077   9.995   3.928  0.2157 -0.7357  0.3263
23122SOL    HW179680   2.093   9.945   3.848  0.1592 -1.3162  0.6741
23122SOL    HW279681   2.089   9.932   3.999  1.5755  0.0757  0.8540
23123SOL     OW79682  12.155   6.379   9.214 -0.1525 -0.0038  0.4501
23123SOL    HW179683  12.154   6.398   9.120  1.5578 -1.7967 -0.0089
23123SOL    HW279684  12.065   6.355   9.235 -0.6719  0.9431 -0.5990
23124SOL     OW79685   1.902   4.898  11.955  0.3057  0.0815  0.0836
23124SOL    HW179686   1.996   4.891  11.976  0.5083  0.6036 -0.6147
23124SOL    HW279687   1.867   4.811  11.974  1.0755 -0.3328 -0.3383
23125SOL     OW79688   3.147   4.989   4.389 -0.2349  0.1242  0.3007
23125SOL    HW179689   3.145   4.902   4.430 -0.7440  0.1328  0.3060
23125SOL    HW279690   3.089   4.981   4.314  0.2923  0.2603 -0.1239
23126SOL     OW79691   6.607   4.053   7.818  0.0046 -0.0464 -0.0494
23126SOL    HW179692   6.622   3.962   7.792  0.1065 -0.2138  0.5751
23126SOL    HW279693   6.601   4.050   7.914 -0.8979  0.4655 -0.0728
23127SOL     OW79694   0.371   2.715   5.086  0.3016 -0.6344 -0.4051
23127SOL    HW179695   0.332   2.773   5.151  2.4393 -0.5066  0.8625
23127SOL    HW279696   0.313   2.638   5.083 -2.5136  1.3461 -2.0094
23128SOL     OW79697   3.108   3.657   7.420  0.3363 -0.1748 -0.3777
23128SOL    HW179698   3.133   3.606   7.497 -0.1594 -1.0211 -0.7584
23128SOL    HW279699   3.189   3.669   7.372  0.4599 -0.6768 -0.3078
23129SOL     OW79700   1.712   8.434   0.508  0.3121 -0.0207 -0.0575
23129SOL    HW179701   1.713   8.502   0.440  0.4561 -0.8735 -0.9280
23129SOL    HW279702   1.694   8.482   0.589 -2.2852  0.7330 -0.9896
23130SOL     OW79703  11.866   9.006   4.355 -0.1469 -0.9895  0.2885
23130SOL    HW179704  11.871   9.101   4.353 -0.4666 -0.9595  0.7380
23130SOL    HW279705  11.818   8.982   4.275 -0.3147 -0.7557  0.3186
23131SOL     OW79706   5.136   7.740   5.703  0.0100  0.5707 -0.3409
23131SOL    HW179707   5.137   7.774   5.792  0.2845  0.6581 -0.3740
23131SOL    HW279708   5.093   7.655   5.709  0.6148  0.2794 -0.0101
23132SOL     OW79709   0.918   6.423  10.888  0.3332 -0.1470 -0.0606
23132SOL    HW179710   0.936   6.421  10.982 -0.4589  1.4195  0.1681
23132SOL    HW279711   0.883   6.336  10.868  2.6175 -1.2989  0.5983
23133SOL     OW79712   6.154   5.824  11.391  0.1572 -0.2430  0.0881
23133SOL    HW179713   6.151   5.899  11.450  1.9801 -1.4778  1.8759
23133SOL    HW279714   6.243   5.825  11.356  0.8468 -2.5393  1.5834
23134SOL     OW79715  12.177   0.942   5.297 -0.3245  0.2111 -0.1505
23134SOL    HW179716  12.095   0.904   5.265 -1.1772 -0.2964  2.4158
23134SOL    HW279717  12.216   0.873   5.350  1.1030  0.9265 -0.2397
23135SOL     OW79718   2.230  10.066   8.442 -0.0218 -0.5372 -0.2454
23135SOL    HW179719   2.291  10.128   8.403  0.3748 -0.4595  0.4920
23135SOL    HW279720   2.182  10.030   8.367 -1.8987  2.3223 -0.5961
23136SOL     OW79721   0.565   4.487   0.081 -0.4886 -0.6684  0.2594
23136SOL    HW179722   0.584   4.409   0.029 -1.4133 -1.9005  1.6878
23136SOL    HW279723   0.471   4.499   0.074 -0.3095  0.6588 -0.3394
23137SOL     OW79724   5.833   1.612   3.043  0.1608  0.5362 -0.5709
23137SOL    HW179725   5.817   1.605   3.137 -1.7903 -2.3012 -0.9606
23137SOL    HW279726   5.787   1.691   3.016  1.1303  1.6393  0.8845
23138SOL     OW79727   4.257   7.069   4.947 -0.3101 -0.0874 -0.1743
23138SOL    HW179728   4.338   7.056   4.898 -0.2357 -0.3274  0.0072
23138SOL    HW279729   4.206   6.990   4.929 -0.0605 -0.4296  0.5525
23139SOL     OW79730   3.187  12.604  10.114  0.3817 -0.8772  0.2655
23139SOL    HW179731   3.187  12.526  10.169  2.3134 -0.9722  0.1997
23139SOL    HW279732   3.241  12.667  10.162 -1.0135  0.3864  0.2393
23140SOL     OW79733   1.520  12.467  12.375 -0.1705  0.2781  0.1669
23140SOL    HW179734   1.576  12.531  12.331  0.5409  0.2102  0.9445
23140SOL    HW279735   1.581  12.407  12.418 -0.8390 -0.4319  0.1347
23141SOL     OW79736  11.879   3.400   5.426  0.0447  0.2417 -0.9775
23141SOL    HW179737  11.881   3.391   5.522  0.6916  3.2952 -0.6137
23141SOL    HW279738  11.904   3.313   5.394 -1.0963 -1.1493  1.5677
23142SOL     OW79739   3.824  12.978   1.489 -0.2525  0.1373  0.3447
23142SOL    HW179740   3.891  12.912   1.507  0.2812  0.5640 -0.0365
23142SOL    HW279741   3.871  13.050   1.447 -1.0406  0.1987 -0.4831
23143SOL     OW79742   8.717   2.180   9.442 -0.2767 -0.5374 -0.2344
23143SOL    HW179743   8.680   2.095   9.469 -2.0599 -0.0463 -1.0128
23143SOL    HW279744   8.762   2.161   9.360 -1.8478 -0.5051 -1.1330
23144SOL     OW79745  10.610   2.088  10.020 -0.2049  0.6419 -0.4636
23144SOL    HW179746  10.529   2.134  10.041 -0.9918 -0.9700  0.1100
23144SOL    HW279747  10.583   2.016   9.964  0.6756 -0.5083  0.5436
23145SOL     OW79748   5.034   6.255   4.118  0.5571 -0.1503 -0.2858
23145SOL    HW179749   5.069   6.170   4.092 -0.1070 -0.6990  0.5978
23145SOL    HW279750   5.085   6.318   4.066  1.5687 -1.0307 -0.4021
23146SOL     OW79751   5.170   2.476   0.007 -0.4074 -0.3857  0.3385
23146SOL    HW179752   5.182   2.569   0.026 -1.2846 -0.4334  1.2839
23146SOL    HW279753   5.076   2.468  -0.008  0.1719 -0.2525 -5.0707
23147SOL     OW79754   3.917   3.112  12.480 -0.1057 -0.7719 -0.0906
23147SOL    HW179755   3.856   3.146  12.545  0.8023  2.2556 -0.6349
23147SOL    HW279756   3.948   3.190  12.434  1.7228 -2.4976 -1.9864
23148SOL     OW79757   6.851  12.570   3.222 -0.0156  0.3775  0.1950
23148SOL    HW179758   6.917  12.538   3.284  0.8591  1.9622  0.1203
23148SOL    HW279759   6.832  12.659   3.251 -3.0177 -0.3987  0.9042
23149SOL     OW79760  10.642   1.997   7.438  0.0398  0.3800  0.2107
23149SOL    HW179761  10.644   2.081   7.484 -0.3328  1.0450 -0.9405
23149SOL    HW279762  10.700   1.941   7.488  0.8625  1.5463  0.6048
23150SOL     OW79763  12.613   5.537   9.899 -0.1791 -0.1995 -0.2203
23150SOL    HW179764  12.530   5.567   9.938 -0.2522 -0.6281 -0.0339
23150SOL    HW279765  12.677   5.547   9.970 -0.2865 -0.8574 -0.0201
23151SOL     OW79766   5.869   8.179   1.962 -0.0103  0.1234 -0.4410
23151SOL    HW179767   5.869   8.084   1.960  0.9194  0.0057  1.7764
23151SOL    HW279768   5.854   8.206   1.871 -0.9440 -2.1057 -1.0068
23152SOL     OW79769   0.144   5.793   8.254 -0.0198 -0.3993 -0.5757
23152SOL    HW179770   0.182   5.864   8.307  0.5864 -1.4934  0.5249
23152SOL    HW279771   0.202   5.786   8.178  0.2204 -0.0526 -0.4297
23153SOL     OW79772   8.001   6.208   8.165 -0.2466  0.4292  0.2521
23153SOL    HW179773   8.037   6.149   8.099 -0.3357  0.4918  0.1466
23153SOL    HW279774   7.907   6.193   8.163 -0.3486  1.0830 -0.2808
23154SOL     OW79775  11.771   4.215   0.791 -0.2227  0.5171  0.6083
23154SOL    HW179776  11.844   4.271   0.815  0.8090 -0.1570 -0.7699
23154SOL    HW279777  11.724   4.264   0.724 -1.5080  1.2531  1.9837
23155SOL     OW79778  11.728   9.837   7.832 -0.3038 -0.3206 -0.2367
23155SOL    HW179779  11.790   9.860   7.763  1.4732 -1.7694  0.7790
23155SOL    HW279780  11.783   9.821   7.909 -1.7471 -3.1475  0.3347
23156SOL     OW79781   7.613  12.519  10.278  0.1795 -0.2630 -0.5858
23156SOL    HW179782   7.689  12.496  10.223 -0.1308  0.0837 -1.1747
23156SOL    HW279783   7.561  12.578  10.223 -1.2916 -1.6672 -0.7652
23157SOL     OW79784   2.190  11.201   0.632  0.1837 -0.3003 -0.1752
23157SOL    HW179785   2.224  11.114   0.610  3.4462  1.0584 -1.0249
23157SOL    HW279786   2.201  11.253   0.553 -1.3149  1.0702  0.4352
23158SOL     OW79787   7.460   2.268   3.699 -0.1207  0.1634 -0.0917
23158SOL    HW179788   7.368   2.256   3.675  0.0985 -0.8722 -0.4852
23158SOL    HW279789   7.460   2.270   3.795 -0.4355 -1.1158 -0.0451
23159SOL     OW79790  12.477  12.639   5.726 -0.8512  0.6274  0.2923
23159SOL    HW179791  12.565  12.676   5.736 -0.8474  0.4025  1.1005
23159SOL    HW279792  12.418  12.712   5.745 -0.8385  0.4926  0.8684
23160SOL     OW79793   0.934   5.105  10.819 -0.4009  0.4251  0.7324
23160SOL    HW179794   0.862   5.108  10.882 -0.6663  0.1869  0.4417
23160SOL    HW279795   0.912   5.033  10.760 -0.3268  0.8629  0.1585
23161SOL     OW79796   3.374   0.033   9.197 -0.1330 -0.8387 -0.1909
23161SOL    HW179797   3.434  -0.001   9.263 -1.6749 -0.0392  1.7154
23161SOL    HW279798   3.362   0.125   9.221 -1.5627 -0.8055 -0.9604
23162SOL     OW79799   2.813   0.181   5.768  0.4619 -0.3396  0.2062
23162SOL    HW179800   2.837   0.170   5.676 -0.6644  0.7390 -0.2380
23162SOL    HW279801   2.731   0.133   5.778  0.5846 -0.4619  0.6573
23163SOL     OW79802   5.884   3.983   5.888  0.0804  0.3048 -0.1624
23163SOL    HW179803   5.814   3.929   5.851 -0.5863  1.0168  0.0155
23163SOL    HW279804   5.878   4.065   5.839  0.7392  0.4057 -0.0764
23164SOL     OW79805  11.537   4.429   4.548 -0.1420  0.5842 -0.2342
23164SOL    HW179806  11.630   4.444   4.564 -0.6202  1.4047  2.1792
23164SOL    HW279807  11.500   4.517   4.536 -0.9762  0.5038  1.4310
23165SOL     OW79808   9.539   3.009   8.282 -0.0578  0.6730  0.0785
23165SOL    HW179809   9.538   3.101   8.254 -1.6981  0.4837 -0.5836
23165SOL    HW279810   9.609   2.969   8.230 -0.4119  1.2053 -0.8356
23166SOL     OW79811   3.919   0.400   4.319 -0.2289  0.9676  0.3031
23166SOL    HW179812   3.872   0.331   4.273  0.6804 -0.0960  0.9229
23166SOL    HW279813   3.880   0.402   4.407  1.4620 -0.6187  1.1615
23167SOL     OW79814  12.891   2.858   7.154 -0.0940 -0.1171  0.2482
23167SOL    HW179815  12.961   2.922   7.163  0.0054 -0.2501  0.4132
23167SOL    HW279816  12.820   2.906   7.111 -0.4422  0.4258  1.4036
23168SOL     OW79817   9.623  12.864   5.313 -0.1877 -0.3449 -0.1673
23168SOL    HW179818   9.581  12.856   5.399 -0.9406 -0.1411 -0.5039
23168SOL    HW279819   9.693  12.799   5.313  2.0636  1.8523  1.8792
23169SOL     OW79820   9.794   5.774   4.154 -0.2840  0.6842  0.1394
23169SOL    HW179821   9.702   5.801   4.162 -1.2713 -2.4212  0.6325
23169SOL    HW279822   9.837   5.815   4.229 -2.0890 -0.4796  1.9574
23170SOL     OW79823   9.910   8.318   4.250  0.0191  0.8090  0.0001
23170SOL    HW179824   9.924   8.294   4.159  3.3144 -0.0237  0.6097
23170SOL    HW279825   9.864   8.402   4.246 -0.8981  0.2605 -2.3663
23171SOL     OW79826   8.926   5.942   7.384 -0.0676 -0.3441  0.3821
23171SOL    HW179827   8.948   5.939   7.291  1.1054 -1.2230  0.6613
23171SOL    HW279828   9.010   5.941   7.429 -0.6148  0.2535  1.4593
23172SOL     OW79829   1.501  10.472   1.734  0.0658 -0.1980 -0.4903
23172SOL    HW179830   1.510  10.503   1.825 -1.6497  0.7842 -0.6000
23172SOL    HW279831   1.453  10.390   1.742 -3.0287  1.4333 -0.5635
23173SOL     OW79832   5.211  11.669   3.433  0.3089 -0.2445  0.2728
23173SOL    HW179833   5.306  11.680   3.426  0.3994 -0.7702  0.5989
23173SOL    HW279834   5.194  11.583   3.396 -0.5634  1.3927 -3.6205
23174SOL     OW79835   1.096   3.912   7.751 -0.3174 -0.0195 -0.1060
23174SOL    HW179836   1.051   3.997   7.749 -0.5885 -0.1158  1.0638
23174SOL    HW279837   1.155   3.918   7.826  1.2819 -0.0880 -1.3017
23175SOL     OW79838   1.392  11.384   0.971 -0.4422 -0.3944 -0.1021
23175SOL    HW179839   1.353  11.317   0.916  2.7549 -1.8418 -0.8475
23175SOL    HW279840   1.396  11.462   0.915  0.0449 -0.9722 -0.8873
23176SOL     OW79841   7.926   0.434   0.865 -0.0495 -0.0888 -0.4555
23176SOL    HW179842   8.016   0.402   0.864  0.0180  0.1131 -0.8408
23176SOL    HW279843   7.879   0.377   0.805  0.1175  0.6507 -1.3196
23177SOL     OW79844   5.332   9.105   8.575 -0.2628 -0.6390 -0.2740
23177SOL    HW179845   5.332   9.089   8.669 -1.7140 -0.5465 -0.2258
23177SOL    HW279846   5.303   9.023   8.536  1.1462 -0.9512 -0.7275
23178SOL     OW79847   9.523   9.376   6.687  0.4262 -0.1798  0.6197
23178SOL    HW179848   9.567   9.316   6.627 -1.7170 -0.5847 -0.6742
23178SOL    HW279849   9.462   9.321   6.736  1.5389  0.2903  2.6305
23179SOL     OW79850   7.867   2.502   4.310  0.5020 -0.6255  0.1461
23179SOL    HW179851   7.874   2.411   4.280  0.9968 -2.0103  3.9319
23179SOL    HW279852   7.948   2.543   4.279  1.1333 -1.9794 -0.0930
23180SOL     OW79853   4.386  12.409   7.467 -0.3060 -0.3857  0.4288
23180SOL    HW179854   4.467  12.405   7.519  1.4658  2.1510 -1.8335
23180SOL    HW279855   4.389  12.330   7.413  1.7174  0.4527 -0.8463
23181SOL     OW79856   4.827   3.258   1.503  0.3535  0.4546  0.2963
23181SOL    HW179857   4.901   3.216   1.460  1.1887  0.8905  1.2784
23181SOL    HW279858   4.787   3.312   1.434  0.0335 -0.9291 -0.6333
23182SOL     OW79859  11.671   3.530  10.388  0.5488  0.4627 -0.2505
23182SOL    HW179860  11.609   3.466  10.353  0.6125  1.0492 -1.5108
23182SOL    HW279861  11.756   3.485  10.386  0.3317  0.0109  0.4946
23183SOL     OW79862   2.681   7.553   7.327 -0.2461  0.2037 -0.0067
23183SOL    HW179863   2.625   7.574   7.253  0.2190 -0.6788 -0.6309
23183SOL    HW279864   2.634   7.485   7.375 -1.1066  1.5994  1.2237
23184SOL     OW79865   9.974   9.964   5.364  0.3857 -0.2772  0.1131
23184SOL    HW179866  10.063   9.933   5.383  0.3751  0.7425  2.2370
23184SOL    HW279867   9.935   9.896   5.311  2.4917 -0.6774 -1.0262
23185SOL     OW79868  12.958  10.960  10.179  0.1532 -0.0105  0.4906
23185SOL    HW179869  12.991  10.876  10.210  0.3742 -0.7415 -1.5774
23185SOL    HW279870  12.966  10.956  10.084 -2.4095  1.2455  0.1132
23186SOL     OW79871   8.994  12.663   5.287  0.1027 -0.0802 -0.5547
23186SOL    HW179872   9.075  12.634   5.328  2.1193  0.5303 -3.7198
23186SOL    HW279873   8.976  12.596   5.220 -0.7993  0.8487 -1.2746
23187SOL     OW79874   1.456  10.165   2.595 -0.0366  0.0659  0.0307
23187SOL    HW179875   1.503  10.123   2.524  0.1532  1.2526 -0.5764
23187SOL    HW279876   1.364  10.161   2.569 -0.1519 -1.0122  0.5518
23188SOL     OW79877   7.748  12.892   4.851  0.6135  0.2822 -0.0315
23188SOL    HW179878   7.680  12.889   4.784 -1.1814  0.2817  1.6862
23188SOL    HW279879   7.787  12.804   4.849 -2.2840 -1.1976  1.6141
23189SOL     OW79880   2.911  12.967  10.161  0.3527  0.2228 -0.3084
23189SOL    HW179881   2.831  13.007  10.125 -0.3911 -0.4420  0.5575
23189SOL    HW279882   2.982  13.017  10.121 -0.4894  0.8426 -1.0976
23190SOL     OW79883   8.969   3.474   7.398  0.1726  0.2602  0.0478
23190SOL    HW179884   9.035   3.429   7.345  0.3379 -0.2339  0.6626
23190SOL    HW279885   8.890   3.473   7.344  0.1410 -0.8819  0.0994
23191SOL     OW79886   3.576   3.250   5.384 -0.1061  0.0706 -0.3170
23191SOL    HW179887   3.599   3.185   5.451  2.0213  1.2368  0.1695
23191SOL    HW279888   3.551   3.198   5.308  1.6281 -1.3497  0.0240
23192SOL     OW79889   8.704   8.627   1.126  0.0440 -0.2501 -0.1189
23192SOL    HW179890   8.758   8.706   1.135 -1.0857  0.4385  0.9682
23192SOL    HW279891   8.756   8.568   1.072  2.0688  0.2334  1.1924
23193SOL     OW79892   3.604   1.395  11.866 -0.4860  0.6276  0.1490
23193SOL    HW179893   3.642   1.469  11.913 -0.8989  1.6326 -1.0434
23193SOL    HW279894   3.541   1.434  11.806 -0.8319 -0.7058 -0.4061
23194SOL     OW79895   6.695   2.363   1.111  0.2912 -0.2899 -0.4397
23194SOL    HW179896   6.606   2.334   1.130  0.5088 -0.5111  0.2774
23194SOL    HW279897   6.696   2.456   1.135  0.2046 -0.2351 -0.6410
23195SOL     OW79898   8.627   3.285   3.499 -0.0832  0.0168  0.5300
23195SOL    HW179899   8.578   3.366   3.484  0.1101  0.2144  0.9380
23195SOL    HW279900   8.683   3.305   3.574  1.6300  0.2632 -0.7430
23196SOL     OW79901   6.981   0.191   5.195  0.2020  0.0803  0.4348
23196SOL    HW179902   6.908   0.188   5.258  0.0502  0.5237  0.2874
23196SOL    HW279903   7.059   0.176   5.248  0.0788  0.5036  0.7441
23197SOL     OW79904  10.929   6.834   4.706 -0.2774 -0.0532 -0.2851
23197SOL    HW179905  10.938   6.898   4.635  1.7045  1.1876  0.9460
23197SOL    HW279906  11.019   6.807   4.724 -0.8244 -1.0328  1.1305
23198SOL     OW79907   9.897   3.975  12.376 -0.2496  0.0237 -0.5178
23198SOL    HW179908   9.845   3.913  12.325 -0.3302  0.8816 -1.5152
23198SOL    HW279909   9.833   4.038  12.410 -0.0246  0.3094 -0.6210
23199SOL     OW79910   5.712  12.419   6.419  0.0573 -0.8853  0.0895
23199SOL    HW179911   5.645  12.411   6.487 -1.0195  1.2417 -0.6488
23199SOL    HW279912   5.730  12.328   6.393 -2.9712 -1.5575 -0.0740
23200SOL     OW79913   7.574   8.132   4.033  0.3147  0.7870 -0.4686
23200SOL    HW179914   7.600   8.114   3.942  0.4675 -2.0485  0.0576
23200SOL    HW279915   7.479   8.148   4.028  0.4463  1.4325 -1.1843
23201SOL     OW79916   3.922   6.585   9.790 -0.3839  0.0464 -0.1473
23201SOL    HW179917   3.871   6.513   9.754 -0.9116  0.2259  0.2355
23201SOL    HW279918   4.000   6.589   9.735 -0.4501 -0.6770 -0.3031
23202SOL     OW79919   1.015   5.714  10.838 -0.1709 -0.3027  0.3722
23202SOL    HW179920   1.111   5.720  10.841  0.1024  2.0437 -4.0524
23202SOL    HW279921   0.998   5.647  10.772 -1.4737  0.7139 -0.3617
23203SOL     OW79922   3.045   1.480   9.747 -0.1654  0.0623 -0.3589
23203SOL    HW179923   3.013   1.413   9.687  1.0424 -1.5548  0.7159
23203SOL    HW279924   3.004   1.460   9.831  1.7663 -0.6650  0.4770
23204SOL     OW79925  11.985  12.898   1.146 -0.2974  0.0255 -0.0277
23204SOL    HW179926  12.051  12.964   1.167 -0.0773 -0.2660  0.2042
23204SOL    HW279927  12.034  12.827   1.104 -0.5727  0.1210 -0.5186
23205SOL     OW79928   2.220   4.507   8.972  0.8695  0.5972  0.0706
23205SOL    HW179929   2.206   4.601   8.958  1.2918  0.5456 -0.7227
23205SOL    HW279930   2.277   4.480   8.900  0.7799 -0.2642  0.3139
23206SOL     OW79931  11.796   3.373   3.973 -0.2282  0.0890  0.6313
23206SOL    HW179932  11.742   3.302   3.940 -0.7317  0.6272  0.2799
23206SOL    HW279933  11.886   3.346   3.954 -0.4249 -0.3839  0.3679
23207SOL     OW79934   3.652   5.366   6.619  0.3657 -0.6436 -0.1298
23207SOL    HW179935   3.605   5.447   6.637  0.7452 -0.4553  0.0314
23207SOL    HW279936   3.699   5.347   6.701  2.6921  0.6097 -1.0606
23208SOL     OW79937   5.203   6.963   9.928  0.0979  0.3296 -0.3604
23208SOL    HW179938   5.118   6.931   9.960  0.6069  0.0283  0.7256
23208SOL    HW279939   5.262   6.888   9.935  0.3624  0.4070 -1.5504
23209SOL     OW79940  12.865   2.643  11.109  0.1155 -0.3890 -0.3892
23209SOL    HW179941  12.933   2.627  11.174 -0.8087 -1.9191  0.2400
23209SOL    HW279942  12.888   2.728  11.072  1.3835 -0.0617  1.0299
23210SOL     OW79943   6.609   7.122   1.511 -0.3021 -0.0214 -0.2665
23210SOL    HW179944   6.689   7.170   1.534 -0.4613  1.0346 -1.7730
23210SOL    HW279945   6.596   7.062   1.584  2.0894 -0.5117 -0.1388
23211SOL     OW79946   2.262  10.515   0.719  0.5482 -0.0590  0.0487
23211SOL    HW179947   2.320  10.587   0.742  0.0449  0.5826 -0.6451
23211SOL    HW279948   2.174  10.551   0.727  0.1809 -1.2279  1.8053
23212SOL     OW79949  11.363   6.357   7.848  0.1250  0.0544  0.1037
23212SOL    HW179950  11.441   6.371   7.795 -0.5999  1.3205 -0.6652
23212SOL    HW279951  11.371   6.420   7.920  0.9648 -1.4607  1.4092
23213SOL     OW79952   0.938   7.477   0.248  0.0281  0.5124 -0.2241
23213SOL    HW179953   1.002   7.517   0.308  0.0973 -0.0935  0.1115
23213SOL    HW279954   0.863   7.537   0.251 -0.1725  0.2289  0.8808
23214SOL     OW79955   8.268   1.376   7.813 -0.1410 -0.1942 -1.0942
23214SOL    HW179956   8.194   1.389   7.754  0.6756  0.6597 -1.9828
23214SOL    HW279957   8.344   1.406   7.763  0.4808  1.4977  0.7405
23215SOL     OW79958   4.826   5.341   9.002  0.4798  0.1641 -0.1916
23215SOL    HW179959   4.827   5.296   9.087  0.1786 -0.3040 -0.4288
23215SOL    HW279960   4.736   5.373   8.993  0.8442  1.3163  0.2306
23216SOL     OW79961  12.336   0.621   6.434 -0.0063  0.0565 -0.3472
23216SOL    HW179962  12.280   0.548   6.461 -0.1971  0.2955 -0.0994
23216SOL    HW279963  12.328   0.686   6.504  0.4888  0.1450 -0.3641
23217SOL     OW79964   4.477   8.712   6.729 -0.3179 -0.1712 -0.3453
23217SOL    HW179965   4.442   8.753   6.650  0.1579  0.3789 -0.2764
23217SOL    HW279966   4.463   8.776   6.798  0.4683 -0.0982 -0.2413
23218SOL     OW79967   4.796   6.908   0.198  0.0867  0.0782  0.4438
23218SOL    HW179968   4.764   6.998   0.190  1.6507  0.5932 -0.1881
23218SOL    HW279969   4.721   6.854   0.172 -0.3069  1.2459 -0.9535
23219SOL     OW79970   0.032  11.785   4.297 -0.2719 -0.1665 -0.8540
23219SOL    HW179971   0.042  11.707   4.243 -2.3004  0.2678 -1.9789
23219SOL    HW279972   0.074  11.854   4.247 -1.2356  0.0290 -1.4371
23220SOL     OW79973   8.811   9.410   5.413 -0.2009 -1.0495 -0.1814
23220SOL    HW179974   8.886   9.458   5.448 -0.5377 -2.1568  2.2328
23220SOL    HW279975   8.850   9.338   5.363  0.3068 -0.4364 -0.6950
23221SOL     OW79976   6.221   3.058   6.436  0.3735 -0.3164  0.2180
23221SOL    HW179977   6.175   3.125   6.386 -0.4485  0.0780  1.4393
23221SOL    HW279978   6.238   3.100   6.521  2.2911 -0.7267  0.0936
23222SOL     OW79979   6.546   7.856   9.858  0.0389  0.1758  0.3719
23222SOL    HW179980   6.492   7.906   9.796 -2.5512 -2.7185  0.0921
23222SOL    HW279981   6.525   7.892   9.944 -0.8131  0.4070  0.0707
23223SOL     OW79982   7.286   4.499   2.162 -0.6479  0.5322  0.0587
23223SOL    HW179983   7.364   4.445   2.149  0.1238  1.2221  1.6330
23223SOL    HW279984   7.305   4.581   2.117 -1.0384  0.2005 -0.7194
23224SOL     OW79985   9.682  11.537  10.183 -0.3946 -0.1652 -0.1796
23224SOL    HW179986   9.605  11.588  10.209  0.1105  2.7316 -3.6252
23224SOL    HW279987   9.746  11.553  10.253 -1.1291  1.9923  0.0823
23225SOL     OW79988   0.575   9.327   9.944  0.0564 -0.6800 -0.8347
23225SOL    HW179989   0.655   9.360   9.985 -0.5772 -0.6469  0.4258
23225SOL    HW279990   0.531   9.406   9.910 -0.0008 -0.5567 -0.4829
23226SOL     OW79991   4.255   7.048   1.388  0.3041 -0.5278 -0.2554
23226SOL    HW179992   4.200   7.011   1.457 -1.6266  2.1674 -0.1902
23226SOL    HW279993   4.214   7.018   1.307  0.1791 -0.4879 -0.2080
23227SOL     OW79994  12.005   4.654   5.514  0.7818 -0.0448  0.2466
23227SOL    HW179995  12.048   4.646   5.600  0.8018 -0.4202  0.1993
23227SOL    HW279996  12.037   4.579   5.464  0.8412  0.2254 -0.1213
23228SOL     OW79997  12.194   6.206   6.765 -0.1847  0.0043 -0.2417
23228SOL    HW179998  12.187   6.124   6.813 -1.7149 -0.6926 -1.5521
23228SOL    HW279999  12.181   6.182   6.673 -2.8141  1.9224 -0.4984
23229SOL     OW80000   9.052  12.560   3.840 -0.0087  0.0323 -0.3726
23229SOL    HW180001   9.054  12.523   3.752  0.2327  0.4902 -0.5606
23229SOL    HW280002   8.959  12.571   3.859 -0.1069 -0.9632 -0.1835
23230SOL     OW80003   9.132   4.901   1.565  0.4768  0.2045 -0.0196
23230SOL    HW180004   9.121   4.911   1.659  0.3987  1.0420 -0.1080
23230SOL    HW280005   9.046   4.872   1.533  0.4607  0.0744  0.1407
23231SOL     OW80006   5.586   7.882   9.380  0.5900 -0.0325  0.0532
23231SOL    HW180007   5.503   7.924   9.359  0.7357 -0.3518 -1.2055
23231SOL    HW280008   5.614   7.924   9.461 -0.3833  0.6655  0.0451
23232SOL     OW80009   0.128   8.202   7.888 -0.4035  0.1987 -0.0074
23232SOL    HW180010   0.050   8.147   7.887 -1.6751  1.9234 -0.5251
23232SOL    HW280011   0.152   8.209   7.981  0.6799 -2.3344 -0.0218
23233SOL     OW80012   4.935   6.440   9.620  0.0268 -0.5739 -0.1548
23233SOL    HW180013   4.964   6.502   9.687 -0.9565  0.2435 -0.4621
23233SOL    HW280014   4.865   6.485   9.573 -0.5009 -1.7964 -0.6057
23234SOL     OW80015   1.741   0.559  10.798 -0.5039 -0.1875 -0.6205
23234SOL    HW180016   1.789   0.480  10.770 -0.3986 -0.3597  0.0264
23234SOL    HW280017   1.754   0.562  10.893 -0.9712  0.3080 -0.5701
23235SOL     OW80018   9.285  10.424   1.488 -0.4559  0.1210  0.8052
23235SOL    HW180019   9.226  10.442   1.415  0.2323 -0.6635  0.0289
23235SOL    HW280020   9.285  10.504   1.540 -0.8642  0.7343 -0.1203
23236SOL     OW80021  10.031  11.470   4.998 -0.0007 -0.1993 -0.0087
23236SOL    HW180022  10.018  11.376   4.987  2.0775 -0.6876  1.2602
23236SOL    HW280023   9.946  11.509   4.976 -0.2439 -2.1156 -3.0864
23237SOL     OW80024   3.096   6.939   5.819  0.4968  0.2502 -0.0833
23237SOL    HW180025   3.064   6.962   5.732 -0.1332 -0.5547 -0.0721
23237SOL    HW280026   3.187   6.968   5.819  0.8534 -0.7377 -1.4231
23238SOL     OW80027   4.546   8.219   0.864 -0.5530  1.2637  0.1225
23238SOL    HW180028   4.589   8.295   0.905 -0.1603  1.1705 -0.1138
23238SOL    HW280029   4.538   8.155   0.935 -0.7654  1.4707  0.2903
23239SOL     OW80030  12.373   7.796   7.561  0.0936  0.3530 -0.5546
23239SOL    HW180031  12.342   7.856   7.630  2.7519  0.7087  0.4614
23239SOL    HW280032  12.293   7.766   7.518 -1.7770 -0.0967  2.8548
23240SOL     OW80033  10.450   5.564   1.325  0.0274 -0.4197 -0.3411
23240SOL    HW180034  10.491   5.479   1.310  0.7458  0.0131 -0.8987
23240SOL    HW280035  10.439   5.602   1.238  0.0025  0.1869 -0.0848
23241SOL     OW80036   3.840  11.653  11.625 -0.2527 -0.2451  0.2850
23241SOL    HW180037   3.818  11.595  11.698 -0.9399 -0.1687  0.1490
23241SOL    HW280038   3.880  11.595  11.560 -0.9092 -0.5639  0.1625
23242SOL     OW80039   4.697   9.815   3.395  0.0826  0.2631 -0.6140
23242SOL    HW180040   4.770   9.873   3.417  1.1387 -0.7306 -1.3255
23242SOL    HW280041   4.632   9.832   3.462  1.0673  1.0252  0.1910
23243SOL     OW80042  12.933   3.597   4.290 -0.1814  0.0190 -0.7847
23243SOL    HW180043  12.971   3.509   4.296 -0.0644  0.0744 -0.7215
23243SOL    HW280044  12.852   3.592   4.341 -0.4959 -0.2282 -1.2930
23244SOL     OW80045   8.648  11.297   2.452 -0.0089 -0.0098 -0.2803
23244SOL    HW180046   8.664  11.205   2.476 -1.1233  0.5687  3.1624
23244SOL    HW280047   8.731  11.325   2.413  0.6716 -2.2148 -0.6117
23245SOL     OW80048   9.369  10.347   7.383 -0.1365 -0.0541 -0.1289
23245SOL    HW180049   9.392  10.286   7.453 -0.5086 -0.3464 -0.2600
23245SOL    HW280050   9.410  10.430   7.409 -0.9342  0.0558  0.8558
23246SOL     OW80051   1.760   7.634   7.529  0.6883  0.0872  0.3014
23246SOL    HW180052   1.718   7.556   7.565 -0.0565  0.6512  0.6793
23246SOL    HW280053   1.723   7.644   7.442 -1.3904  1.5921  1.2718
23247SOL     OW80054   3.028   7.339  12.741  0.4684 -0.0974 -0.6187
23247SOL    HW180055   3.037   7.263  12.799 -1.8710  1.1423  1.5864
23247SOL    HW280056   3.051   7.414  12.796  0.2991  0.9835 -1.9621
23248SOL     OW80057   8.819  10.373   1.532 -0.0990  0.0115  0.0864
23248SOL    HW180058   8.759  10.438   1.494  0.3950  0.5040  0.1343
23248SOL    HW280059   8.862  10.420   1.604 -0.1078 -0.5290  0.4492
23249SOL     OW80060   7.361   8.620  11.241  0.5587 -0.8182 -0.0339
23249SOL    HW180061   7.432   8.676  11.210 -0.3064  0.7687  0.7219
23249SOL    HW280062   7.288   8.637  11.181  0.2138 -0.9792  0.3296
23250SOL     OW80063   3.501  10.292   9.348 -0.2595 -0.2084 -0.2978
23250SOL    HW180064   3.495  10.199   9.369 -0.9687 -0.1489 -0.2030
23250SOL    HW280065   3.464  10.336   9.425  0.2969  0.1620 -0.2401
23251SOL     OW80066   1.158   8.917   2.212 -0.4271 -0.0782 -0.0875
23251SOL    HW180067   1.123   9.006   2.203  0.1748  0.3837  1.7375
23251SOL    HW280068   1.080   8.862   2.214 -1.2663  0.9409  3.9458
23252SOL     OW80069  12.622   0.892   4.885 -0.1043  0.0227  0.2069
23252SOL    HW180070  12.642   0.972   4.835  0.3000 -0.2064  0.0003
23252SOL    HW280071  12.707   0.849   4.895 -0.1812  0.0737  1.1065
23253SOL     OW80072  12.042   5.152   6.117 -0.2607  0.1940 -0.4255
23253SOL    HW180073  11.989   5.213   6.169  0.7515  0.1190  0.7498
23253SOL    HW280074  12.011   5.163   6.027 -0.6264  1.8598 -0.1219
23254SOL     OW80075   6.194   8.856  11.682  0.0486 -0.2803 -0.5230
23254SOL    HW180076   6.142   8.877  11.604  2.0267 -0.2200 -1.9116
23254SOL    HW280077   6.245   8.779  11.657  1.0366 -0.0061  0.5468
23255SOL     OW80078   7.372  11.828  12.907  0.2119 -0.4026 -0.2565
23255SOL    HW180079   7.346  11.738  12.928 -1.0825  0.1283  0.6175
23255SOL    HW280080   7.291  11.869  12.877  1.0696  0.1394 -1.9522
23256SOL     OW80081   3.814   7.214   1.022 -0.2517  0.1222  0.1290
23256SOL    HW180082   3.841   7.130   1.058 -1.9772 -0.3247  0.4886
23256SOL    HW280083   3.870   7.227   0.946  0.5178 -1.0062  0.4767
23257SOL     OW80084   5.342   4.370   2.062  0.1244 -0.5459 -0.2725
23257SOL    HW180085   5.346   4.460   2.030 -0.7537  0.2064  1.6175
23257SOL    HW280086   5.434   4.343   2.068  0.3562 -0.4934 -2.6136
23258SOL     OW80087   6.499   2.683   3.761  0.6509  0.0435  0.0894
23258SOL    HW180088   6.442   2.728   3.824  2.0881  0.6099  1.0423
23258SOL    HW280089   6.456   2.599   3.746  0.2709 -0.1329  1.8712
23259SOL     OW80090  11.254   6.956   1.734 -0.4464  0.3785  0.0687
23259SOL    HW180091  11.227   7.013   1.662  0.1665  0.9340  0.2739
23259SOL    HW280092  11.285   7.016   1.802  1.6236 -0.2153 -0.2796
23260SOL     OW80093   5.152   3.755   9.716  0.0549 -0.0054 -0.0415
23260SOL    HW180094   5.227   3.812   9.731  1.5564 -1.8875 -0.0370
23260SOL    HW280095   5.182   3.691   9.652 -1.1098 -1.5311  0.8455
23261SOL     OW80096   1.744   2.046   3.924 -0.0314  0.5134 -0.9267
23261SOL    HW180097   1.695   2.125   3.943  0.4650  0.9787 -1.5300
23261SOL    HW280098   1.695   1.976   3.967 -1.9246  0.7746 -2.5138
23262SOL     OW80099   6.398   5.430   8.179 -0.3326 -0.2954 -0.2521
23262SOL    HW180100   6.450   5.447   8.100  0.8366 -0.9438  0.3571
23262SOL    HW280101   6.350   5.349   8.160  0.3124 -0.7088 -0.1185
23263SOL     OW80102   0.465   5.971   2.959 -0.5739  0.0185 -0.7130
23263SOL    HW180103   0.509   5.935   3.036  1.3775 -1.2843 -2.3165
23263SOL    HW280104   0.462   6.066   2.974  1.6358  0.0100  0.0928
23264SOL     OW80105  12.149  11.128   5.379  0.7565 -0.2225 -0.3440
23264SOL    HW180106  12.126  11.105   5.469  2.7407  1.1360  0.5788
23264SOL    HW280107  12.241  11.153   5.383  0.7991  0.2582 -2.6959
23265SOL     OW80108   4.084   3.111   3.919 -0.1867  0.2244 -0.1759
23265SOL    HW180109   4.149   3.179   3.932  0.3689 -0.5457  1.3707
23265SOL    HW280110   4.088   3.090   3.825  1.6421  0.3356 -0.1427
23266SOL     OW80111   0.196   6.308   6.341  0.0245  0.0074 -0.4564
23266SOL    HW180112   0.157   6.388   6.307 -1.3342 -0.9978 -1.3913
23266SOL    HW280113   0.224   6.259   6.263 -0.2746 -0.9553  0.0209
23267SOL     OW80114   4.320   0.789  11.527  0.5766  0.2170  0.6744
23267SOL    HW180115   4.354   0.876  11.547 -1.9187  1.3852  0.2975
23267SOL    HW280116   4.259   0.770  11.598  0.5579 -0.9063  0.3743
23268SOL     OW80117   0.299   6.019  12.717  0.1533 -0.0696 -0.3180
23268SOL    HW180118   0.323   5.966  12.641  2.3807 -0.6490  0.7329
23268SOL    HW280119   0.209   6.047  12.698  0.5415 -0.3417 -3.0647
23269SOL     OW80120   1.898  12.015   2.606 -0.1606 -0.2370 -0.1471
23269SOL    HW180121   1.988  11.993   2.629 -0.2023 -0.1443  0.1149
23269SOL    HW280122   1.889  11.992   2.514  0.5573  1.1022 -0.5785
23270SOL     OW80123   1.012   3.383  11.373  0.0252 -0.0414 -0.0205
23270SOL    HW180124   0.950   3.421  11.436 -0.1402 -0.7079  0.2272
23270SOL    HW280125   1.055   3.313  11.422  2.3794  1.6159  0.4295
23271SOL     OW80126   9.550   6.082   5.329 -0.1226 -0.1803  0.5304
23271SOL    HW180127   9.557   6.032   5.411 -0.7348 -0.8868  0.1618
23271SOL    HW280128   9.600   6.030   5.266  1.8239  1.2278  0.8173
23272SOL     OW80129  12.883  11.551   8.813  0.5055  0.4999  0.2191
23272SOL    HW180130  12.901  11.488   8.744  0.1471  0.4690  0.1483
23272SOL    HW280131  12.884  11.636   8.770  1.7055  0.6113  0.4514
23273SOL     OW80132   8.497   0.723   5.966  0.1540 -0.2830 -0.5476
23273SOL    HW180133   8.440   0.665   6.016 -0.7830  0.6062 -0.5543
23273SOL    HW280134   8.450   0.739   5.885  0.3920  0.4903 -0.5431
23274SOL     OW80135  11.729   0.766  11.723 -0.0534 -0.4726  0.5907
23274SOL    HW180136  11.799   0.723  11.773  0.4554 -2.6949 -1.8111
23274SOL    HW280137  11.702   0.701  11.659 -1.5391  1.7668 -1.2095
23275SOL     OW80138  10.404   8.435   9.089 -0.0069  0.6130 -0.0937
23275SOL    HW180139  10.311   8.431   9.069 -0.1620 -2.4441  0.6380
23275SOL    HW280140  10.447   8.401   9.010  0.6324  2.9687 -0.8227
23276SOL     OW80141   1.668   8.657   9.087  0.4478  0.0984 -0.8992
23276SOL    HW180142   1.726   8.620   9.021  0.2224  0.3521 -1.2396
23276SOL    HW280143   1.597   8.698   9.037  0.7533  1.0888 -0.5241
23277SOL     OW80144   7.473  10.722   3.511  0.0167 -1.0611  0.1348
23277SOL    HW180145   7.394  10.668   3.502  1.3489 -3.2275  0.6389
23277SOL    HW280146   7.514  10.691   3.592  0.9187  0.6740  0.3795
23278SOL     OW80147   9.875  11.286   8.460  0.5773  0.2783  0.3890
23278SOL    HW180148   9.943  11.349   8.437  0.3093  0.1961 -0.7105
23278SOL    HW280149   9.914  11.201   8.440 -0.0025  0.2572 -0.7201
23279SOL     OW80150  10.544   9.599   2.382  0.4572  0.2296  0.4755
23279SOL    HW180151  10.621   9.547   2.404  0.1473  0.8912  3.6178
23279SOL    HW280152  10.478   9.572   2.446 -1.6086  0.4899 -1.4126
23280SOL     OW80153   4.430   3.511  12.786 -0.3422  0.1214 -0.4848
23280SOL    HW180154   4.511   3.466  12.763  0.9566  1.4200  1.2537
23280SOL    HW280155   4.420   3.577  12.718 -1.3791 -1.6463 -2.1307
23281SOL     OW80156   8.098  12.979  10.542 -0.7328 -0.0136  0.4068
23281SOL    HW180157   8.052  13.031  10.608 -1.7511  0.5015 -0.6815
23281SOL    HW280158   8.056  12.893  10.546 -0.3267 -0.1943  0.8936
23282SOL     OW80159  10.076   7.774  10.872  0.2585  0.1618  0.2156
23282SOL    HW180160  10.024   7.806  10.946 -1.6968 -1.7520 -0.2096
23282SOL    HW280161  10.154   7.736  10.912 -0.3153  0.0112  1.2321
23283SOL     OW80162  12.822   7.226   7.457 -0.7712 -0.1519 -0.0325
23283SOL    HW180163  12.886   7.189   7.518 -0.5169 -1.0808 -0.8289
23283SOL    HW280164  12.803   7.313   7.492  1.5306  0.5012 -0.1863
23284SOL     OW80165   6.219   6.910   2.506  0.0368 -0.2529  0.4888
23284SOL    HW180166   6.266   6.834   2.540  0.8322  0.6819  1.5638
23284SOL    HW280167   6.269   6.937   2.429 -1.8720 -2.4856 -1.6764
23285SOL     OW80168   0.177  11.084   9.184 -0.1031  0.4372 -0.1896
23285SOL    HW180169   0.120  11.051   9.115 -2.5085  1.9836  0.9342
23285SOL    HW280170   0.228  11.153   9.142  0.6140 -0.6081 -1.0828
23286SOL     OW80171   7.781   6.204  11.261  0.0345  0.3958 -0.4978
23286SOL    HW180172   7.811   6.153  11.337  1.6268 -1.5944 -2.3510
23286SOL    HW280173   7.841   6.278  11.257  1.6586 -0.8988 -1.2706
23287SOL     OW80174   0.131   4.587   1.079 -0.6221  0.7747 -0.3703
23287SOL    HW180175   0.061   4.566   1.141  0.5105  3.1955  1.9600
23287SOL    HW280176   0.211   4.557   1.122  0.1377  1.7938 -1.0090
23288SOL     OW80177   1.261  12.495   2.001 -0.1924 -0.1334 -0.0256
23288SOL    HW180178   1.166  12.505   1.998 -0.1468  0.1222 -1.7176
23288SOL    HW280179   1.282  12.440   1.925  0.9818 -0.4988  0.5321
23289SOL     OW80180   1.471   6.813   0.932  0.0260  0.7508 -0.0398
23289SOL    HW180181   1.426   6.866   0.867  0.4812  0.9208 -0.2171
23289SOL    HW280182   1.505   6.876   0.995  0.6901  0.6861 -0.3267
23290SOL     OW80183   5.122  11.937   2.602  0.3455  0.6371  0.0534
23290SOL    HW180184   5.027  11.946   2.591  0.2724 -1.3752 -1.3792
23290SOL    HW280185   5.157  12.022   2.576 -1.0886  1.7700  1.6100
23291SOL     OW80186  11.780  10.030   4.218  0.3121 -0.2089 -0.1021
23291SOL    HW180187  11.724   9.994   4.148  0.4752 -0.5396 -0.0673
23291SOL    HW280188  11.869  10.014   4.187  0.4246 -2.2051  1.0738
23292SOL     OW80189  11.322   8.478  10.678 -0.2534 -0.0058 -0.1366
23292SOL    HW180190  11.307   8.496  10.585 -1.3876 -0.6470 -0.0907
23292SOL    HW280191  11.234   8.472  10.716  0.1947  0.0610  0.9422
23293SOL     OW80192   4.514   8.849   0.093  0.2218 -0.1614  0.1124
23293SOL    HW180193   4.608   8.850   0.111  0.0941  1.1922  0.7945
23293SOL    HW280194   4.506   8.892   0.008  0.1082  1.0214  0.7103
23294SOL     OW80195   4.255   8.642   3.868  0.0244  0.0566  0.3984
23294SOL    HW180196   4.190   8.572   3.864 -0.8542  0.8921 -0.5166
23294SOL    HW280197   4.329   8.609   3.816 -0.2274 -0.3475  0.2894
23295SOL     OW80198   2.356   7.706   1.130 -0.0894 -0.1411  0.6992
23295SOL    HW180199   2.410   7.712   1.208  0.0326 -1.1926  0.7025
23295SOL    HW280200   2.344   7.612   1.115  1.5580 -0.0575 -1.6649
23296SOL     OW80201  12.003   4.120   3.862 -0.0855  0.2724  0.2986
23296SOL    HW180202  12.011   4.214   3.878 -2.2326  0.5354  0.2245
23296SOL    HW280203  11.954   4.087   3.937 -0.7917 -0.4705 -0.4636
23297SOL     OW80204   2.925   4.918   5.725  0.4060 -0.6922  0.4082
23297SOL    HW180205   3.014   4.890   5.748  1.3070  1.2154 -0.5295
23297SOL    HW280206   2.895   4.854   5.661  0.9068 -1.6313  1.0951
23298SOL     OW80207   5.021   9.821   5.002  0.6279 -0.2294 -0.0225
23298SOL    HW180208   4.990   9.860   4.920  0.0149  0.1132  0.3638
23298SOL    HW280209   5.044   9.731   4.979  0.1037 -0.2460 -0.4871
23299SOL     OW80210  10.040   4.078  12.975 -0.0496 -0.0967 -0.1917
23299SOL    HW180211   9.966   4.119  12.931  1.0456  2.2468  0.0094
23299SOL    HW280212  10.117   4.114  12.932  1.0080 -1.4446  0.4890
23300SOL     OW80213   6.059   3.877   2.414 -0.4415  0.2336 -0.5068
23300SOL    HW180214   6.030   3.937   2.482 -0.7413  0.6316 -0.9727
23300SOL    HW280215   6.063   3.931   2.335 -1.8891 -0.5970 -1.1972
23301SOL     OW80216   7.241   8.026   4.250 -0.6844 -0.1029 -0.2044
23301SOL    HW180217   7.154   7.994   4.275 -0.8445  0.5989  0.1774
23301SOL    HW280218   7.230   8.057   4.159 -1.0509  0.7170  0.1048
23302SOL     OW80219   7.026  12.177  10.349  0.4911  0.1933 -0.5054
23302SOL    HW180220   7.061  12.190  10.437  0.3572  0.1415 -0.4435
23302SOL    HW280221   7.100  12.144  10.298  0.6108  0.3800 -0.4524
23303SOL     OW80222  12.782   5.279   8.120  0.0677 -0.7433 -0.3268
23303SOL    HW180223  12.828   5.251   8.041  0.8054 -0.9130  0.1503
23303SOL    HW280224  12.814   5.368   8.136 -0.0934 -0.7023 -0.2232
23304SOL     OW80225   6.364   5.659  11.815 -0.5697 -0.0346  0.1665
23304SOL    HW180226   6.441   5.614  11.849 -0.7579 -0.9839 -0.6339
23304SOL    HW280227   6.398   5.716  11.746 -0.6898 -1.3028 -0.9816
23305SOL     OW80228   4.935   7.517   8.866  0.4878  0.2505 -0.2397
23305SOL    HW180229   4.885   7.555   8.794  0.8312  2.2918  0.5486
23305SOL    HW280230   4.908   7.566   8.943  1.0952 -1.0154  0.8119
23306SOL     OW80231   5.845   2.689   8.884 -0.2176  0.2681 -0.2995
23306SOL    HW180232   5.892   2.755   8.935  2.1505 -1.0480 -0.6010
23306SOL    HW280233   5.791   2.739   8.823  0.9431  1.9176 -0.0467
23307SOL     OW80234   6.304   0.761   0.315 -0.1669 -0.1843  0.3746
23307SOL    HW180235   6.373   0.778   0.251  0.1170 -0.3244  0.6377
23307SOL    HW280236   6.352   0.736   0.395 -0.4884  1.0236  0.9538
23308SOL     OW80237   8.094  10.564   3.282  0.4004 -0.1757  0.5156
23308SOL    HW180238   8.006  10.598   3.299 -0.3867 -1.9573  0.3045
23308SOL    HW280239   8.125  10.533   3.367  1.9801  2.7701  1.1482
23309SOL     OW80240   3.243   4.444   4.657  0.2020 -0.4108  0.2741
23309SOL    HW180241   3.200   4.413   4.577 -0.0230  0.1355  0.1782
23309SOL    HW280242   3.323   4.392   4.662  1.9824  1.7800 -2.1904
23310SOL     OW80243   1.360   9.806   9.435 -0.4116 -0.0356  0.6049
23310SOL    HW180244   1.332   9.727   9.482 -1.2924 -0.3040 -0.3399
23310SOL    HW280245   1.280   9.855   9.419  0.0634  0.7897  0.6929
23311SOL     OW80246   3.244   3.360   8.151 -0.2704 -0.4889 -0.4212
23311SOL    HW180247   3.314   3.341   8.213  0.8588 -0.4876 -1.6615
23311SOL    HW280248   3.261   3.301   8.077 -2.3970 -1.5080 -0.1666
23312SOL     OW80249   7.928   3.680  12.316 -0.4114 -0.1299  0.1349
23312SOL    HW180250   7.971   3.765  12.303 -1.6355  0.4698 -0.1902
23312SOL    HW280251   7.949   3.630  12.237  1.3478 -0.6151  0.8754
23313SOL     OW80252   2.443  10.213  11.836 -0.2348  0.3540 -0.3700
23313SOL    HW180253   2.491  10.136  11.863 -0.1959  0.5628  0.1675
23313SOL    HW280254   2.476  10.234  11.749  2.2268  1.7505  0.8009
23314SOL     OW80255   9.620  12.980   9.217 -0.2957  0.0744  0.2410
23314SOL    HW180256   9.548  13.043   9.216  0.4151  0.8929 -0.1975
23314SOL    HW280257   9.586  12.904   9.169 -0.5754  0.8017 -0.7549
23315SOL     OW80258   1.038   1.581   4.709 -0.1635 -0.5618 -0.6199
23315SOL    HW180259   1.084   1.499   4.723 -1.1888 -1.1251 -0.4366
23315SOL    HW280260   1.062   1.607   4.620 -0.3566 -1.4149 -0.9331
23316SOL     OW80261   5.120   4.350   2.952 -0.1038 -0.6391 -0.5084
23316SOL    HW180262   5.190   4.414   2.948 -0.1266 -0.6552 -1.3201
23316SOL    HW280263   5.042   4.398   2.922 -0.0386 -1.1469 -1.5231
23317SOL     OW80264   9.420   4.985   4.105  0.0308  0.2256 -0.1728
23317SOL    HW180265   9.422   4.928   4.182 -0.9281  0.9179  0.3811
23317SOL    HW280266   9.512   4.996   4.082  0.2416 -2.8859 -1.3421
23318SOL     OW80267   5.265  10.250   3.025  0.7823  0.2475 -0.2134
23318SOL    HW180268   5.240  10.255   2.933  1.5153  0.1481 -0.4242
23318SOL    HW280269   5.251  10.158   3.049  0.2372  0.3515 -0.1167
23319SOL     OW80270   7.302   2.382   7.730 -0.0703 -0.2407  0.0198
23319SOL    HW180271   7.283   2.290   7.749 -0.6068  0.1791  1.6920
23319SOL    HW280272   7.230   2.430   7.770  1.5810  1.0687  1.5953
23320SOL     OW80273   6.589   6.966   3.471  0.1335 -0.1237 -0.1456
23320SOL    HW180274   6.579   6.877   3.506 -0.2616  0.1545  0.4817
23320SOL    HW280275   6.682   6.984   3.480 -0.2328  0.8597  3.2253
23321SOL     OW80276   3.877   2.198   0.038  0.5689 -0.8206  0.3094
23321SOL    HW180277   3.881   2.136  -0.035  1.1039  0.6848 -0.9914
23321SOL    HW280278   3.948   2.260   0.021 -0.2948  0.4852  1.2607
23322SOL     OW80279   8.007  11.843  11.882 -0.0722 -0.8541  0.1312
23322SOL    HW180280   8.011  11.885  11.797 -1.7103 -0.5659  0.1747
23322SOL    HW280281   7.936  11.779  11.875  0.8903 -2.0602  0.7703
23323SOL     OW80282  12.341  11.623   2.170  0.2025 -0.1316  0.3646
23323SOL    HW180283  12.306  11.709   2.191 -0.1542 -0.2413  0.2332
23323SOL    HW280284  12.266  11.575   2.133  0.0765 -0.9076  1.5850
23324SOL     OW80285  10.996   7.576  12.198  0.6000 -0.4812 -0.5701
23324SOL    HW180286  10.907   7.540  12.191  0.7059 -0.5799 -1.5625
23324SOL    HW280287  10.984   7.670  12.189  0.5309 -0.4391 -0.0461
23325SOL     OW80288   7.723   0.716   4.635  0.0639 -0.4299 -0.1215
23325SOL    HW180289   7.811   0.736   4.602  0.3324  0.9811  1.3305
23325SOL    HW280290   7.737   0.682   4.723 -0.7282 -2.7647 -0.8232
23326SOL     OW80291   8.506   1.172   8.590  0.2484  0.2250 -0.3907
23326SOL    HW180292   8.503   1.085   8.629 -1.2774  0.0155 -0.8912
23326SOL    HW280293   8.566   1.221   8.645  0.9781 -1.0791  0.0236
23327SOL     OW80294  12.536   5.933   7.171 -0.0760  0.2996 -0.4297
23327SOL    HW180295  12.459   5.938   7.227 -0.2138  1.1111 -0.6665
23327SOL    HW280296  12.501   5.912   7.084 -0.2754  2.3893 -0.9302
23328SOL     OW80297  12.788   2.325   2.651 -0.4002  0.2310 -0.4390
23328SOL    HW180298  12.852   2.294   2.586 -0.1196 -0.1546  0.0212
23328SOL    HW280299  12.774   2.250   2.709 -1.1367  0.3691 -0.4276
23329SOL     OW80300   9.462   1.915  11.274 -0.0027  0.1761  0.0544
23329SOL    HW180301   9.407   1.969  11.330  0.1129  0.1812  0.1627
23329SOL    HW280302   9.404   1.887  11.203 -1.4033 -3.3397  2.3193
23330SOL     OW80303   3.637   8.550   1.099  0.2811  0.1501  0.8856
23330SOL    HW180304   3.672   8.629   1.140  1.8723 -0.8211  1.5031
23330SOL    HW280305   3.636   8.485   1.170 -0.0462 -0.6615  0.1599
23331SOL     OW80306   6.680   1.234   6.603  0.2865 -0.0031 -0.2701
23331SOL    HW180307   6.708   1.269   6.518  1.2481 -0.5504 -0.1989
23331SOL    HW280308   6.726   1.288   6.667 -0.6584  0.5931 -0.0709
23332SOL     OW80309   5.773   1.416   1.816 -0.4565  0.0461 -0.5372
23332SOL    HW180310   5.733   1.462   1.890 -0.9483 -1.0659 -0.0971
23332SOL    HW280311   5.703   1.361   1.781  0.5314 -1.6171 -0.0093
23333SOL     OW80312   7.856  12.758   7.998  0.1747 -0.2028  0.2691
23333SOL    HW180313   7.926  12.731   8.057 -0.0786 -0.1873  0.5772
23333SOL    HW280314   7.879  12.718   7.914  0.3958 -0.4396  0.4403
23334SOL     OW80315   5.884   2.894  12.346  0.1439 -0.4181  0.2172
23334SOL    HW180316   5.955   2.837  12.319  0.3787  0.1635 -0.3913
23334SOL    HW280317   5.910   2.926  12.433 -1.1527 -3.2146  1.7931
23335SOL     OW80318   2.646   1.302   9.097 -0.1408  0.7572  0.5587
23335SOL    HW180319   2.628   1.348   9.015  0.1153  2.5317  1.4517
23335SOL    HW280320   2.659   1.211   9.071 -0.2530  1.2452 -1.3434
23336SOL     OW80321   4.835   8.628   5.003 -0.1910  0.0355 -0.1134
23336SOL    HW180322   4.865   8.556   4.947  1.8459 -0.4043  1.3999
23336SOL    HW280323   4.763   8.668   4.954 -1.8761 -3.3789 -0.7689
23337SOL     OW80324  11.759   8.661   5.881  0.1966  0.1405  0.1967
23337SOL    HW180325  11.767   8.571   5.851 -0.3183  0.5482 -1.2320
23337SOL    HW280326  11.697   8.701   5.821  0.8277  1.6021  0.4761
23338SOL     OW80327  11.944   0.430   8.741 -0.7827  0.0460 -0.0256
23338SOL    HW180328  11.978   0.340   8.740  0.1453  0.3811 -0.1471
23338SOL    HW280329  12.018   0.484   8.712 -0.6525  1.0595  2.0145
23339SOL     OW80330   2.269  12.259   2.886  0.5221  0.5791 -0.1792
23339SOL    HW180331   2.178  12.289   2.884  0.5071  0.5123 -0.5485
23339SOL    HW280332   2.263  12.164   2.896  0.5822  0.8037  2.8990
23340SOL     OW80333   7.053   4.266   8.777 -0.3196 -0.1053 -0.7348
23340SOL    HW180334   7.082   4.219   8.855 -1.8888 -0.3498 -0.2579
23340SOL    HW280335   7.131   4.271   8.722  0.8231  0.0088  0.8002
23341SOL     OW80336   0.527   4.432   7.988 -0.3235  0.2616  0.2836
23341SOL    HW180337   0.508   4.473   7.904  0.0105  1.4687  0.7743
23341SOL    HW280338   0.442   4.429   8.033 -0.2231  1.1943  0.5615
23342SOL     OW80339  10.085   9.571  11.427  0.6598 -0.4115  0.2341
23342SOL    HW180340  10.058   9.550  11.337 -0.8536 -0.3892  0.6475
23342SOL    HW280341  10.012   9.623  11.462  1.6843  0.4406  1.1529
23343SOL     OW80342   8.003   7.267   1.379  0.1174  0.3210 -0.3214
23343SOL    HW180343   8.032   7.177   1.366 -1.9099 -0.7121  1.7174
23343SOL    HW280344   7.994   7.276   1.474  0.3604  2.7261 -0.4730
23344SOL     OW80345  12.572   9.120   0.776  0.2318  0.4127  0.1315
23344SOL    HW180346  12.496   9.159   0.818  0.3125  2.3815 -1.3753
23344SOL    HW280347  12.537   9.075   0.699  0.3961 -0.5045  0.5804
23345SOL     OW80348  12.715   2.900   3.036  0.1727  0.5522 -0.1632
23345SOL    HW180349  12.714   2.994   3.020  1.1063  0.1522 -3.0616
23345SOL    HW280350  12.754   2.891   3.123  1.7770  2.7774 -0.5731
23346SOL     OW80351   8.541   2.340   7.489  0.2895  0.4204 -0.0041
23346SOL    HW180352   8.489   2.412   7.526 -0.3979  0.0402 -0.2110
23346SOL    HW280353   8.622   2.382   7.459 -0.3550  1.2175 -0.6774
23347SOL     OW80354   4.297   8.716   4.740  0.3257  0.1750  0.1368
23347SOL    HW180355   4.272   8.671   4.659 -0.1738 -0.6345  0.7245
23347SOL    HW280356   4.222   8.771   4.761 -0.7588 -1.6624  1.4764
23348SOL     OW80357  12.144  10.488   6.272  0.1885  0.4222 -0.6462
23348SOL    HW180358  12.102  10.467   6.355  0.9997 -2.6948 -0.8925
23348SOL    HW280359  12.235  10.510   6.296  0.3370 -0.1571 -0.6695
23349SOL     OW80360  11.050  10.266   8.333  0.2224 -0.5928  0.1486
23349SOL    HW180361  10.985  10.213   8.379 -1.4194  1.7525  0.6473
23349SOL    HW280362  11.134  10.229   8.361 -0.7985 -3.5360 -0.3084
23350SOL     OW80363   8.944   0.157  12.311 -0.3524 -0.3965  0.2518
23350SOL    HW180364   8.998   0.079  12.298 -0.6321 -0.6798  0.7377
23350SOL    HW280365   8.912   0.179  12.224  0.6041 -0.1824 -0.0558
23351SOL     OW80366   9.292   3.877   1.584  0.1090 -0.1703 -0.1072
23351SOL    HW180367   9.252   3.932   1.652  0.6504 -0.7596  0.7115
23351SOL    HW280368   9.373   3.921   1.561  1.4806 -1.4637  1.8690
23352SOL     OW80369   4.554  12.785   6.989  0.0515 -0.2145  0.0339
23352SOL    HW180370   4.540  12.721   6.919 -0.1498  0.4134 -0.5072
23352SOL    HW280371   4.607  12.738   7.053  0.1842 -0.8257 -0.5082
23353SOL     OW80372   5.932  11.071  11.738  0.0235  0.1152 -0.3080
23353SOL    HW180373   5.989  10.997  11.758 -0.2592  0.0088  0.1215
23353SOL    HW280374   5.988  11.133  11.692  0.1023 -0.6501 -1.2837
23354SOL     OW80375   9.233   9.509  11.797 -0.3088  0.0004  0.3439
23354SOL    HW180376   9.141   9.521  11.819 -0.5631  0.5240 -0.9372
23354SOL    HW280377   9.233   9.451  11.721  0.5240 -1.3803  1.3359
23355SOL     OW80378   8.571   4.674   2.710 -0.6536 -0.3496 -0.1718
23355SOL    HW180379   8.619   4.749   2.676 -1.2575  0.9120  1.6288
23355SOL    HW280380   8.568   4.688   2.804 -1.9985 -1.9159  0.0592
23356SOL     OW80381   0.204   7.880   6.926 -0.1322  0.1980 -0.0007
23356SOL    HW180382   0.216   7.876   6.831  0.3973 -0.2608  0.0790
23356SOL    HW280383   0.134   7.818   6.944 -0.2650  0.3195 -0.0933
23357SOL     OW80384   6.274  10.995   2.700 -0.0993  0.0592 -0.2928
23357SOL    HW180385   6.341  11.062   2.686  0.4503 -0.5158 -0.4342
23357SOL    HW280386   6.193  11.045   2.713  0.2853  0.7474 -0.4889
23358SOL     OW80387   1.538   1.620  10.514 -0.1775 -0.0297 -0.0521
23358SOL    HW180388   1.522   1.547  10.455 -2.5271 -0.9259  1.5347
23358SOL    HW280389   1.632   1.635  10.509  0.0425 -1.6692 -2.1105
23359SOL     OW80390   1.566   0.145  12.771  0.7043  0.2604  0.0708
23359SOL    HW180391   1.488   0.178  12.727 -0.7264 -0.3273  2.0197
23359SOL    HW280392   1.639   0.183  12.723 -0.7796  1.2148 -1.5302
23360SOL     OW80393   1.027   4.090  12.270 -0.3501  0.6040  0.3329
23360SOL    HW180394   1.053   3.999  12.256 -2.5418 -0.1626  0.8720
23360SOL    HW280395   1.091   4.124  12.332  0.1119 -0.7772  0.6400
23361SOL     OW80396  12.800  11.843   5.564 -0.0259 -0.4685  0.3179
23361SOL    HW180397  12.869  11.778   5.556  2.2051  1.7149  0.7893
23361SOL    HW280398  12.821  11.909   5.498 -1.8148  0.1811  0.3322
23362SOL     OW80399   0.737   4.794   5.471 -0.8330 -0.1433 -0.2283
23362SOL    HW180400   0.710   4.747   5.392 -0.1527 -2.1814  0.7045
23362SOL    HW280401   0.827   4.821   5.452 -1.3655  1.2841 -0.9354
23363SOL     OW80402   2.897   6.003   6.004 -0.0835 -0.3089 -0.0466
23363SOL    HW180403   2.831   6.072   6.011 -0.1246 -0.4254  0.8426
23363SOL    HW280404   2.969   6.033   6.060 -0.2165 -1.1050  0.5727
23364SOL     OW80405  11.619   4.017   4.341 -0.2731 -0.1372  0.0130
23364SOL    HW180406  11.668   4.099   4.352  0.7949 -0.7949  0.4056
23364SOL    HW280407  11.530   4.045   4.322  0.1923  1.1194 -0.4953
23365SOL     OW80408   4.825   5.420   7.078  0.1476  0.4702  0.2637
23365SOL    HW180409   4.845   5.375   6.996  0.8973  0.6201  0.3510
23365SOL    HW280410   4.869   5.505   7.069  1.4579 -0.0512  1.3825
23366SOL     OW80411   3.951  12.302   1.202 -0.4791  0.0591  0.1717
23366SOL    HW180412   3.913  12.214   1.193  0.1834 -0.2224  0.0952
23366SOL    HW280413   3.977  12.308   1.293 -2.3097  0.9231  0.6795
23367SOL     OW80414   8.821  10.194   6.091 -0.0604  0.3254 -0.0941
23367SOL    HW180415   8.853  10.257   6.026  1.0774 -0.2670 -0.1286
23367SOL    HW280416   8.743  10.156   6.051  0.7283 -0.1687 -1.2135
23368SOL     OW80417   7.253   1.796   2.559 -0.1588 -0.1819  0.7048
23368SOL    HW180418   7.245   1.890   2.542 -2.3433 -0.4598 -0.1503
23368SOL    HW280419   7.167   1.771   2.592  0.5476 -1.8097  1.3980
23369SOL     OW80420   6.312   9.069   8.490 -0.3287  0.5478  0.0615
23369SOL    HW180421   6.374   9.133   8.523  0.1527 -0.2989  0.8617
23369SOL    HW280422   6.226   9.103   8.514 -0.0480  0.6152  1.0039
23370SOL     OW80423  12.382   4.006   4.569  0.5089 -0.4912  0.6330
23370SOL    HW180424  12.450   3.970   4.512 -0.8566 -1.5430 -0.3675
23370SOL    HW280425  12.360   4.090   4.529 -0.1124 -1.0147 -0.1492
23371SOL     OW80426   9.606   3.344  10.585  0.0550 -0.0989  0.0096
23371SOL    HW180427   9.619   3.439  10.594  1.8937 -0.4508  1.7832
23371SOL    HW280428   9.690   3.311  10.555  0.5819 -1.4962  2.6909
23372SOL     OW80429   0.077  11.842   4.847 -0.2033 -0.0154 -0.0135
23372SOL    HW180430   0.145  11.909   4.847 -0.7154  0.5536 -1.4299
23372SOL    HW280431   0.031  11.855   4.764 -3.0703  0.6713  1.5396
23373SOL     OW80432   9.053  10.477   3.183  0.3118 -0.4899 -0.4757
23373SOL    HW180433   9.009  10.497   3.100 -1.0279 -2.4047 -0.3136
23373SOL    HW280434   9.052  10.559   3.232  1.9579  0.9424 -2.6605
23374SOL     OW80435   1.485   0.242   6.883  0.6831 -0.1285 -0.3561
23374SOL    HW180436   1.498   0.238   6.977  1.6786  0.1632 -0.4738
23374SOL    HW280437   1.477   0.150   6.855 -0.4022 -0.1872  0.1020
23375SOL     OW80438   8.632   1.217  10.840 -0.1170 -0.2496  0.6437
23375SOL    HW180439   8.694   1.209  10.767 -0.8309  0.1930 -0.0326
23375SOL    HW280440   8.641   1.135  10.888  0.5505 -0.4480  0.2010
23376SOL     OW80441  12.221   3.732   8.926  0.1289 -0.9013 -0.1533
23376SOL    HW180442  12.139   3.771   8.895  1.9187  2.5295 -1.0482
23376SOL    HW280443  12.267   3.708   8.845  1.3759  0.3730  0.1513
23377SOL     OW80444   7.390   5.046   7.083  0.0201 -0.0383  0.1489
23377SOL    HW180445   7.315   5.064   7.139 -0.7855  0.7780 -1.1293
23377SOL    HW280446   7.463   5.090   7.126 -0.5864  0.6166  0.5309
23378SOL     OW80447  11.525   1.310  11.417  0.1141 -0.0330 -0.2622
23378SOL    HW180448  11.554   1.397  11.443 -0.9011  0.1128  0.4158
23378SOL    HW280449  11.546   1.254  11.492  0.1964 -0.2656 -0.4535
23379SOL     OW80450   1.802   3.897   4.880 -0.3969 -0.8451 -0.2217
23379SOL    HW180451   1.842   3.971   4.926  0.3157 -1.2875 -0.1127
23379SOL    HW280452   1.798   3.828   4.945 -1.0859 -0.9046 -0.3174
23380SOL     OW80453   7.404   3.053   0.721  0.1732 -0.1513 -0.2019
23380SOL    HW180454   7.466   3.045   0.793 -1.0422 -1.2606  0.7697
23380SOL    HW280455   7.458   3.073   0.644  1.3744  2.8607  1.2651
23381SOL     OW80456   0.870   5.143   1.242  0.2884 -0.0210  0.0465
23381SOL    HW180457   0.839   5.106   1.325  0.8066  1.3306  0.8889
23381SOL    HW280458   0.844   5.235   1.247 -0.1082 -0.0242 -1.5300
23382SOL     OW80459   4.838  12.400  11.162 -0.4251 -0.3669 -0.2111
23382SOL    HW180460   4.773  12.353  11.109 -0.4110 -0.6243  0.0021
23382SOL    HW280461   4.796  12.411  11.247 -0.8598  0.9482 -0.5664
23383SOL     OW80462   3.550   3.745   3.056  0.0621  0.1093  0.1024
23383SOL    HW180463   3.508   3.694   3.125  0.0646  1.2624  0.9848
23383SOL    HW280464   3.526   3.836   3.074 -0.3900  0.4086 -1.7438
23384SOL     OW80465   2.743   5.406   5.986 -0.7387  0.5527  0.0252
23384SOL    HW180466   2.720   5.499   5.993  3.6900  1.8993 -0.2590
23384SOL    HW280467   2.804   5.390   6.058 -0.3181 -1.7584 -0.7455
23385SOL     OW80468   8.205   9.463   9.018 -0.0502  0.2309 -0.2777
23385SOL    HW180469   8.264   9.506   9.080  0.6102 -0.7277 -0.2187
23385SOL    HW280470   8.175   9.384   9.064 -0.7007  0.2574 -0.6435
23386SOL     OW80471  11.661   9.375   1.329  0.1291 -0.5433  0.2442
23386SOL    HW180472  11.746   9.335   1.311  0.0471 -0.7744  0.3598
23386SOL    HW280473  11.641   9.350   1.420  0.7422  0.9716  0.8332
23387SOL     OW80474   8.268   7.487   5.945  0.3432  0.0138 -0.1287
23387SOL    HW180475   8.361   7.467   5.930  0.3401 -1.1400  1.1489
23387SOL    HW280476   8.223   7.456   5.867  0.9656 -0.0446 -0.4664
23388SOL     OW80477   1.000   7.600   5.120 -0.0907  0.1415 -0.1944
23388SOL    HW180478   1.039   7.545   5.053  1.5975  1.0206  0.0124
23388SOL    HW280479   0.905   7.591   5.107  0.1623 -1.7550 -0.9749
23389SOL     OW80480   0.033   3.291   8.251  0.4473  0.6290  0.6147
23389SOL    HW180481   0.031   3.297   8.155 -1.0181 -0.2077  0.5731
23389SOL    HW280482  -0.014   3.211   8.272 -2.1627  2.4206  2.1449
23390SOL     OW80483   4.182   8.650   9.869  0.0648 -0.4935 -0.5224
23390SOL    HW180484   4.237   8.594   9.814  1.3576 -0.1146  0.3347
23390SOL    HW280485   4.147   8.591   9.936  2.7713 -0.1134  1.4066
23391SOL     OW80486   7.911  12.638   7.483 -0.4665  0.2408 -0.2081
23391SOL    HW180487   7.971  12.597   7.545  0.4993  1.8350 -0.0290
23391SOL    HW280488   7.963  12.705   7.440 -1.4796  0.0387 -1.8330
23392SOL     OW80489   9.067   2.964   4.389 -0.1674 -0.5775 -0.0331
23392SOL    HW180490   9.115   2.891   4.429  0.1056  0.4042  1.4979
23392SOL    HW280491   8.978   2.956   4.426 -0.3208 -0.5175 -0.3858
23393SOL     OW80492  12.036  10.646   0.418  0.2049 -0.3610 -0.0199
23393SOL    HW180493  12.103  10.701   0.460  0.9139 -1.0996 -0.1474
23393SOL    HW280494  12.053  10.654   0.324 -1.1652  1.0183 -0.1860
23394SOL     OW80495   4.238   6.354   8.646 -0.2797  0.5214 -0.8202
23394SOL    HW180496   4.249   6.448   8.660  0.1485  0.2448  0.8655
23394SOL    HW280497   4.301   6.333   8.577 -0.6109  1.5132 -1.4471
23395SOL     OW80498  12.430  12.396   0.038  0.2849  0.2759 -0.3773
23395SOL    HW180499  12.335  12.403   0.037  0.2162 -0.5215 -0.3645
23395SOL    HW280500  12.450  12.333  -0.031  0.6113 -1.3943  1.1448
23396SOL     OW80501   2.943   1.075   6.140 -0.4401 -0.1749  0.4206
23396SOL    HW180502   2.909   1.038   6.059 -1.4238 -0.0708  0.7824
23396SOL    HW280503   2.874   1.133   6.172  1.2417  2.4549 -0.3946
23397SOL     OW80504   7.709   9.374   1.046 -0.1801 -0.5148  0.7511
23397SOL    HW180505   7.750   9.367   1.133  0.9118 -0.4270  0.2587
23397SOL    HW280506   7.713   9.285   1.011  1.4319 -0.1464 -0.0909
23398SOL     OW80507   6.162   9.638   3.947  0.1478 -0.2982  0.2577
23398SOL    HW180508   6.233   9.651   3.885 -0.0534 -0.3529  0.0178
23398SOL    HW280509   6.105   9.574   3.906  0.0139 -0.3365  0.4995
23399SOL     OW80510   9.094   0.763   0.725  0.0647 -0.3415  0.0301
23399SOL    HW180511   9.107   0.856   0.703  0.3421 -0.4209 -0.1488
23399SOL    HW280512   9.002   0.757   0.751 -0.0758 -0.1013 -0.3977
23400SOL     OW80513  11.250   5.545   1.217  0.9745  0.0999  0.2962
23400SOL    HW180514  11.195   5.603   1.269 -1.7067 -1.8458 -0.1448
23400SOL    HW280515  11.308   5.604   1.168 -3.2228  2.7701 -2.0878
23401SOL     OW80516   4.903   2.690   7.432 -0.2489  0.1316 -0.3760
23401SOL    HW180517   4.989   2.663   7.399 -0.1629 -1.6632  1.1205
23401SOL    HW280518   4.841   2.634   7.386 -0.4827  0.4431 -0.4381
23402SOL     OW80519   1.059   5.512   8.306 -0.6695 -0.6155 -0.0453
23402SOL    HW180520   1.008   5.590   8.283 -0.1374 -0.5929 -1.2311
23402SOL    HW280521   1.000   5.439   8.291 -0.6046 -0.5444 -0.6500
23403SOL     OW80522   1.401   2.947   0.548  0.3621  0.1082  0.7305
23403SOL    HW180523   1.328   2.894   0.515 -0.1312  1.0929  0.1913
23403SOL    HW280524   1.454   2.965   0.471  1.5989 -1.1788  1.2240
23404SOL     OW80525  11.689   1.507   7.844 -0.2293 -0.9043  0.3101
23404SOL    HW180526  11.704   1.568   7.916 -1.7420 -0.4444  0.2579
23404SOL    HW280527  11.656   1.428   7.885 -0.5196 -0.8522  0.1793
23405SOL     OW80528  10.932   1.947   3.023 -0.2438 -0.6422  0.1909
23405SOL    HW180529  10.977   1.977   2.944 -0.5862  0.9060  0.5495
23405SOL    HW280530  10.851   1.907   2.991  0.5754 -1.9109 -0.3475
23406SOL     OW80531   5.739  11.410   3.905  0.1347  0.2798 -0.0618
23406SOL    HW180532   5.758  11.474   3.837  2.1812  1.7192  1.7234
23406SOL    HW280533   5.821  11.362   3.917  0.5536  1.4847  2.7095
23407SOL     OW80534   5.738   1.913   9.963 -0.0020 -0.3604  0.4647
23407SOL    HW180535   5.832   1.929   9.970 -0.2118  0.9099  0.6701
23407SOL    HW280536   5.712   1.962   9.885 -0.1167 -2.6628 -1.0334
23408SOL     OW80537   2.464   0.465  12.562 -0.1328 -0.0802 -0.4735
23408SOL    HW180538   2.535   0.408  12.533 -1.0205 -0.5840 -1.7246
23408SOL    HW280539   2.467   0.461  12.658  2.5217  1.1850 -0.4305
23409SOL     OW80540  10.541   5.160  10.959 -0.0673  0.5445  0.5265
23409SOL    HW180541  10.554   5.108  11.039  0.6894 -1.1448 -0.6371
23409SOL    HW280542  10.628   5.195  10.940 -0.3385  1.3207  0.6582
23410SOL     OW80543   2.624  10.998   4.541 -0.4705  0.8372  0.4092
23410SOL    HW180544   2.601  11.065   4.605 -1.6071  0.9041 -0.0535
23410SOL    HW280545   2.618  11.043   4.457  0.6917  0.6622  0.2186
23411SOL     OW80546   8.470   0.472  12.598  0.3060 -0.1782  0.0223
23411SOL    HW180547   8.480   0.560  12.635  0.6403  0.1422 -0.8083
23411SOL    HW280548   8.401   0.481  12.533  2.3913  0.2415 -2.3010
23412SOL     OW80549   8.654   8.635   8.916  1.0403 -0.1230 -0.2285
23412SOL    HW180550   8.731   8.578   8.919  0.2633 -1.1866  0.1829
23412SOL    HW280551   8.630   8.649   9.007  1.4781  1.2441 -0.3098
23413SOL     OW80552   4.636   9.206   0.719  0.3091 -0.2123 -0.4989
23413SOL    HW180553   4.600   9.122   0.690 -0.9211  0.2227 -0.2800
23413SOL    HW280554   4.637   9.260   0.639 -2.0602  0.6318 -0.0234
23414SOL     OW80555   5.190   4.321  12.420  0.3965  0.2152 -0.2364
23414SOL    HW180556   5.181   4.239  12.370  0.7593 -0.7637  1.2487
23414SOL    HW280557   5.113   4.323  12.476  0.5129  0.7871 -0.0935
23415SOL     OW80558  11.797  12.725   5.490 -0.1156  0.1387 -0.0305
23415SOL    HW180559  11.704  12.708   5.474 -0.0242  1.1579 -1.9928
23415SOL    HW280560  11.801  12.760   5.579 -1.6405  0.3447 -0.0157
23416SOL     OW80561   1.069   8.902   5.044 -0.6948  0.1842  0.0125
23416SOL    HW180562   1.060   8.814   5.081 -1.0974 -0.5217 -1.7127
23416SOL    HW280563   1.078   8.959   5.121  0.0897 -1.4004  1.1501
23417SOL     OW80564   5.327  12.510   3.660  0.2560 -0.0812 -0.0883
23417SOL    HW180565   5.249  12.466   3.626  0.2392 -0.4480  0.4198
23417SOL    HW280566   5.300  12.547   3.743  0.3629  0.6208 -0.3599
23418SOL     OW80567   8.842  11.510   2.721 -0.2523 -0.9771  0.2470
23418SOL    HW180568   8.934  11.495   2.746  0.0688  1.7768  1.0387
23418SOL    HW280569   8.842  11.497   2.626  0.5605 -2.5550  0.4118
23419SOL     OW80570   8.287   2.346   0.640 -0.2812 -0.0342 -0.0820
23419SOL    HW180571   8.336   2.340   0.558 -1.2085  0.6886 -0.7196
23419SOL    HW280572   8.340   2.403   0.695  0.3725 -0.5618 -0.1594
23420SOL     OW80573   2.420  11.234   9.101 -0.1330  0.6635  0.7734
23420SOL    HW180574   2.434  11.140   9.111 -0.6612  0.3454 -1.0699
23420SOL    HW280575   2.501  11.265   9.060 -0.9663  0.4833 -1.1371
23421SOL     OW80576   5.515   4.740   9.330  0.0849 -0.1640 -0.3875
23421SOL    HW180577   5.572   4.794   9.385 -1.2650  0.6852  0.2114
23421SOL    HW280578   5.467   4.802   9.275  0.4455 -0.9248 -1.6211
23422SOL     OW80579   4.253   6.495   2.809  0.7024  0.7587  0.2217
23422SOL    HW180580   4.211   6.504   2.723  0.0202 -3.8428 -0.1622
23422SOL    HW280581   4.181   6.504   2.872  0.9305  2.4591  0.2955
23423SOL     OW80582  11.727   6.620   8.532 -0.1647  0.3701 -0.5646
23423SOL    HW180583  11.776   6.698   8.556 -0.6207  0.4925 -0.0112
23423SOL    HW280584  11.730   6.619   8.436  2.0622 -0.3840 -0.5426
23424SOL     OW80585   7.831   9.127  11.462 -0.1369  1.1713 -0.2640
23424SOL    HW180586   7.864   9.147  11.550 -0.4802  0.8580 -0.0558
23424SOL    HW280587   7.817   9.032  11.464  2.3833  0.6903 -1.5335
23425SOL     OW80588   6.382   3.275   2.315 -0.5445 -0.8435  0.0585
23425SOL    HW180589   6.440   3.202   2.335 -1.4062 -0.9006  2.9141
23425SOL    HW280590   6.301   3.234   2.284 -0.2032 -0.9352 -0.7307
23426SOL     OW80591  11.902   0.744   1.491 -0.3034  0.2983  0.4632
23426SOL    HW180592  11.890   0.826   1.539 -0.5000  0.6970 -0.2439
23426SOL    HW280593  11.827   0.740   1.431 -0.6883 -0.7653  0.9910
23427SOL     OW80594  12.451   4.477   2.517  0.3115  0.4084  0.5094
23427SOL    HW180595  12.398   4.472   2.596  1.8356  0.3116  1.5773
23427SOL    HW280596  12.416   4.408   2.460 -0.8600  0.5326  1.0449
23428SOL     OW80597  10.427  11.617   0.293 -0.6246  0.3315 -0.2231
23428SOL    HW180598  10.498  11.579   0.241 -0.4533  0.7895 -0.3274
23428SOL    HW280599  10.347  11.576   0.258 -0.5271  0.7449 -0.9462
23429SOL     OW80600   4.033   9.475   6.676 -0.4835  0.4586 -0.0405
23429SOL    HW180601   3.986   9.442   6.600  0.1016  0.2544 -0.3217
23429SOL    HW280602   4.084   9.549   6.642 -0.4408  0.5482  0.2151
23430SOL     OW80603   4.967  12.045   5.935  0.1672  0.2903  0.3700
23430SOL    HW180604   4.995  11.970   5.883  0.4500  1.3769 -1.0942
23430SOL    HW280605   4.879  12.023   5.964 -0.9314  0.5357 -2.4541
23431SOL     OW80606  10.391   6.175   0.150 -0.2511 -0.6325 -0.4663
23431SOL    HW180607  10.480   6.202   0.129  0.3531 -0.8882  1.4998
23431SOL    HW280608  10.359   6.133   0.070  1.7939 -1.5086 -0.9093
23432SOL     OW80609   4.241   7.918   5.344 -0.0558  0.0663  0.1011
23432SOL    HW180610   4.207   7.903   5.256  0.0428 -0.4772  0.1489
23432SOL    HW280611   4.286   8.002   5.339  1.2457 -0.6452 -0.7596
23433SOL     OW80612  12.576  12.719  12.134  0.4723 -0.7262 -0.3588
23433SOL    HW180613  12.648  12.658  12.144  1.2430  0.1520 -0.3977
23433SOL    HW280614  12.581  12.775  12.212  0.3003 -0.1959 -0.7219
23434SOL     OW80615   6.636   2.222   9.301  0.0423 -0.0750  0.2938
23434SOL    HW180616   6.668   2.238   9.212 -1.4633  2.9065  0.1500
23434SOL    HW280617   6.583   2.143   9.294 -1.7286  1.1996 -2.0073
23435SOL     OW80618   4.254   5.342   0.845 -0.1073  0.4799 -0.1374
23435SOL    HW180619   4.264   5.352   0.750 -1.0510  0.0318 -0.2944
23435SOL    HW280620   4.221   5.427   0.874  2.0886  1.3168  0.1119
23436SOL     OW80621   5.045   9.398   1.110 -0.6489  0.6449 -0.5680
23436SOL    HW180622   5.135   9.379   1.081  0.4917  2.1416  1.7114
23436SOL    HW280623   5.012   9.314   1.142  0.8991  0.5355  0.8743
23437SOL     OW80624   3.777   1.803  11.628  0.3314  0.4126 -0.1038
23437SOL    HW180625   3.838   1.752  11.680  1.6106  2.0730  0.1189
23437SOL    HW280626   3.794   1.775  11.538  0.6718  0.1072  0.0505
23438SOL     OW80627   4.847   4.336   9.412  0.2390 -0.1111  0.1853
23438SOL    HW180628   4.864   4.347   9.318  0.0203 -0.9999  0.0296
23438SOL    HW280629   4.868   4.421   9.450  0.6056  0.1804 -0.6308
23439SOL     OW80630   5.573   1.265   7.005  0.3182  0.3092 -0.5365
23439SOL    HW180631   5.541   1.352   7.029 -1.4719 -0.5001  0.0967
23439SOL    HW280632   5.621   1.235   7.082  0.7501  0.6290 -0.6750
23440SOL     OW80633   0.864   5.709  11.436  0.2048 -0.1604 -0.2921
23440SOL    HW180634   0.819   5.643  11.383  1.5571  0.9426 -3.0289
23440SOL    HW280635   0.821   5.791  11.412  1.2640  0.4490 -0.1412
23441SOL     OW80636   0.186  10.627  12.586  0.2839 -0.1772  0.5937
23441SOL    HW180637   0.107  10.574  12.591  0.6383 -0.6822  1.0159
23441SOL    HW280638   0.177  10.690  12.658  1.2071 -1.5984  2.0537
23442SOL     OW80639   7.363   7.211   4.476 -0.0762  0.1333 -0.0389
23442SOL    HW180640   7.378   7.238   4.385 -0.0297 -0.1294 -0.1104
23442SOL    HW280641   7.374   7.291   4.527  0.3766  0.1913 -0.2180
23443SOL     OW80642  11.287   5.839  12.053  0.0133  0.6373  0.1856
23443SOL    HW180643  11.260   5.875  12.138  2.8471 -0.3366  1.6329
23443SOL    HW280644  11.267   5.746  12.058 -0.5596  0.7093 -0.5827
23444SOL     OW80645   4.087   9.220   8.287  0.6007 -0.2569 -0.0181
23444SOL    HW180646   4.012   9.250   8.236  2.4694  0.8937 -2.2915
23444SOL    HW280647   4.085   9.124   8.278  0.7964 -0.1021 -2.2387
23445SOL     OW80648   6.746  12.275   9.472  0.3769  0.2369  0.4800
23445SOL    HW180649   6.742  12.369   9.489 -0.0529  0.4914 -0.8970
23445SOL    HW280650   6.678  12.260   9.406  0.6086 -1.0020  0.5040
23446SOL     OW80651   1.908   9.369   5.555  0.5146 -0.2999 -0.1255
23446SOL    HW180652   1.955   9.289   5.536  0.3827 -0.5008  0.3897
23446SOL    HW280653   1.930   9.428   5.482  1.3531 -0.4718 -0.0180
23447SOL     OW80654   5.543  12.811  10.105  1.0700  0.1427 -0.2090
23447SOL    HW180655   5.532  12.889  10.160  1.7111  0.6498 -0.7661
23447SOL    HW280656   5.455  12.791  10.074  0.7470  0.0377  0.7291
23448SOL     OW80657   9.098   7.100   9.931 -0.2404 -0.5341  0.4815
23448SOL    HW180658   9.100   7.005   9.926  1.7787 -0.6521  2.3697
23448SOL    HW280659   9.009   7.123   9.903 -0.7971 -2.9372  0.0150
23449SOL     OW80660   9.318   5.640  11.666 -0.1037 -0.4184 -0.2470
23449SOL    HW180661   9.323   5.675  11.578 -0.1467 -1.0313 -0.4984
23449SOL    HW280662   9.255   5.568  11.660 -0.2197 -0.3695  0.3135
23450SOL     OW80663   8.596   9.852   0.969 -0.1637 -0.7281  0.4908
23450SOL    HW180664   8.621   9.822   0.882 -0.8278 -0.7256  0.2962
23450SOL    HW280665   8.523   9.796   0.994 -1.2143  0.5014  0.2620
23451SOL     OW80666   3.675   2.619  11.730  0.4184  0.6382 -0.0437
23451SOL    HW180667   3.662   2.530  11.695 -0.2360  0.9149 -0.5253
23451SOL    HW280668   3.744   2.656  11.676 -0.6144  1.0784 -1.1129
23452SOL     OW80669  11.602   7.404   8.506 -0.0461 -0.3104 -0.1207
23452SOL    HW180670  11.609   7.309   8.497 -0.1164 -0.3476  0.2136
23452SOL    HW280671  11.690   7.432   8.532  0.4873 -0.0632 -2.0330
23453SOL     OW80672   4.982   3.794   2.336 -0.3482 -0.1823  0.0336
23453SOL    HW180673   4.963   3.846   2.257 -0.0041 -2.1065 -1.4045
23453SOL    HW280674   4.980   3.858   2.407 -2.9352  1.3093 -1.1874
23454SOL     OW80675   5.321   9.838   7.295 -0.2977  0.2364 -0.5353
23454SOL    HW180676   5.305   9.750   7.329 -0.6814 -0.4013 -2.2670
23454SOL    HW280677   5.246   9.889   7.325 -0.6649 -0.3138 -0.5025
23455SOL     OW80678   9.163   8.174  12.747 -0.1413  0.1216 -0.0507
23455SOL    HW180679   9.255   8.198  12.742 -0.1523  0.0817 -0.5422
23455SOL    HW280680   9.118   8.256  12.768  0.1067 -0.0761  1.2987
23456SOL     OW80681  10.283   0.449  11.785  0.3588 -0.4441  0.1129
23456SOL    HW180682  10.270   0.412  11.872  3.6383 -0.4777  0.7327
23456SOL    HW280683  10.269   0.376  11.725  2.3385 -1.6421  1.0073
23457SOL     OW80684   4.240   8.248   6.247  0.0315 -0.3807 -0.0962
23457SOL    HW180685   4.300   8.210   6.183 -1.0323 -2.1195 -0.1161
23457SOL    HW280686   4.157   8.201   6.234 -0.7744  0.5815  1.2487
23458SOL     OW80687   8.612   0.104   1.564 -0.3599  0.1725 -0.5379
23458SOL    HW180688   8.693   0.052   1.561  0.5929  1.5460  0.2302
23458SOL    HW280689   8.542   0.039   1.558  0.7451 -0.9638 -3.0823
23459SOL     OW80690   6.533   7.468   6.582  0.3342  0.6236  0.5881
23459SOL    HW180691   6.579   7.439   6.661 -0.3513  0.0889  0.8002
23459SOL    HW280692   6.601   7.470   6.515  0.8992  0.9502  1.1583
23460SOL     OW80693   4.643   4.503   7.561 -0.5054 -0.0435  0.4671
23460SOL    HW180694   4.583   4.476   7.492 -0.0024 -0.5274  0.2101
23460SOL    HW280695   4.688   4.579   7.525 -0.3799 -0.1803  0.3301
23461SOL     OW80696   9.507   2.048  10.450  0.3400  0.9300 -0.0846
23461SOL    HW180697   9.600   2.047  10.430  0.1651  1.1815 -0.9649
23461SOL    HW280698   9.497   1.987  10.524  1.4256  2.1978  1.1554
23462SOL     OW80699   9.311   7.146   6.726 -0.0327 -0.6588  0.4183
23462SOL    HW180700   9.316   7.133   6.631 -2.2658  0.9604 -0.0099
23462SOL    HW280701   9.314   7.242   6.737 -2.1466 -0.6653  1.7266
23463SOL     OW80702   9.461   3.135  10.684  0.8346 -0.3748  0.4518
23463SOL    HW180703   9.485   3.217  10.641  3.2474 -0.4695  1.4603
23463SOL    HW280704   9.388   3.158  10.741 -0.2443  0.4572 -1.2025
23464SOL     OW80705   9.348   4.566   0.904  0.0004 -0.5025  0.0673
23464SOL    HW180706   9.289   4.521   0.964 -0.7933  0.6060  0.1536
23464SOL    HW280707   9.432   4.523   0.917 -0.2566 -0.6116  1.6326
23465SOL     OW80708   1.051   7.154  11.789  0.0063 -0.1413 -0.1221
23465SOL    HW180709   0.958   7.155  11.769  0.0090 -0.9120 -0.2288
23465SOL    HW280710   1.074   7.061  11.790  0.9502  0.0632 -0.9289
23466SOL     OW80711   4.168  12.118   6.419  0.4903 -0.0355  0.0031
23466SOL    HW180712   4.105  12.061   6.464  0.3711 -0.9799 -1.2986
23466SOL    HW280713   4.137  12.120   6.328  1.4548  0.7687 -0.3187
23467SOL     OW80714  10.459   4.043   9.169 -0.2881  0.2677  0.6708
23467SOL    HW180715  10.511   4.121   9.192  0.1410  0.6868 -1.5443
23467SOL    HW280716  10.371   4.062   9.203  0.2516  0.8812  1.7838
23468SOL     OW80717  11.603   2.097   4.753 -1.0286 -0.1820  0.3068
23468SOL    HW180718  11.673   2.108   4.689  0.5868 -1.2979  1.7680
23468SOL    HW280719  11.534   2.049   4.707 -0.0847 -0.6174 -0.6944
23469SOL     OW80720   6.944   4.900  11.966  0.0453 -0.2717 -0.1499
23469SOL    HW180721   6.878   4.835  11.945  0.0581 -0.3498  0.0577
23469SOL    HW280722   7.003   4.899  11.890 -1.2823  1.2146 -1.2887
23470SOL     OW80723   2.797   1.689  12.949 -0.1614  0.1942  0.1591
23470SOL    HW180724   2.715   1.738  12.951  0.0601  0.6299 -0.9707
23470SOL    HW280725   2.816   1.671  13.041 -2.2787 -1.2003  0.4096
23471SOL     OW80726   1.882  11.029   5.034 -0.3893 -0.2853  0.4518
23471SOL    HW180727   1.954  11.070   5.082  0.0170 -1.6233  1.0233
23471SOL    HW280728   1.922  10.956   4.987 -1.1073 -0.0959 -0.4785
23472SOL     OW80729   8.683   2.288  11.217  0.4143 -0.3266  0.9213
23472SOL    HW180730   8.639   2.269  11.134 -2.3720 -0.1684  2.2200
23472SOL    HW280731   8.722   2.374  11.204  1.1232 -0.8258 -0.5725
23473SOL     OW80732  11.931   5.122  12.543 -0.8984  0.2226 -0.4405
23473SOL    HW180733  11.869   5.173  12.491 -0.9888  1.4196  0.7977
23473SOL    HW280734  11.965   5.184  12.607 -1.3202 -1.3805  1.4070
23474SOL     OW80735   6.464   0.394  10.992 -0.2658  0.5968  0.4282
23474SOL    HW180736   6.412   0.393  10.912 -2.6524  0.8589  1.8768
23474SOL    HW280737   6.448   0.480  11.030  1.3282  0.7161  0.9166
23475SOL     OW80738   5.701  10.999   3.818  0.0620  0.6334 -0.6625
23475SOL    HW180739   5.793  10.979   3.802  0.1360  0.7671 -0.4161
23475SOL    HW280740   5.684  11.079   3.770  0.2285  0.9238 -0.2413
23476SOL     OW80741   0.904   2.274   1.888 -0.1587  0.1004 -0.0270
23476SOL    HW180742   0.988   2.251   1.849  0.3200 -0.2715  1.1899
23476SOL    HW280743   0.872   2.192   1.925 -0.4352  0.5179  0.6679
23477SOL     OW80744   3.718   9.795   6.422 -0.0999  0.2351  0.1037
23477SOL    HW180745   3.772   9.858   6.470 -2.3990  1.7605  0.8238
23477SOL    HW280746   3.661   9.848   6.367 -2.4279 -1.1254  1.0597
23478SOL     OW80747   5.796   3.791   6.451 -0.4760  0.0808  0.2256
23478SOL    HW180748   5.715   3.796   6.400 -1.1424 -0.0494  1.2471
23478SOL    HW280749   5.797   3.702   6.486 -0.6733  0.5492  1.4616
23479SOL     OW80750   0.690  10.552   5.126  0.8934 -0.2065 -0.3095
23479SOL    HW180751   0.732  10.539   5.041  1.2188  0.4694 -0.2537
23479SOL    HW280752   0.743  10.500   5.187  0.6609 -0.6890 -0.5144
23480SOL     OW80753   8.453   5.669   6.568  0.1447  0.7418 -0.3229
23480SOL    HW180754   8.513   5.738   6.596  0.0145  0.8296 -0.2552
23480SOL    HW280755   8.444   5.613   6.646  2.0066 -0.6397 -1.0411
23481SOL     OW80756   4.913   2.619   8.058  0.0870  0.3206 -0.1768
23481SOL    HW180757   4.931   2.539   8.009 -1.4840  0.7816 -1.6135
23481SOL    HW280758   4.999   2.657   8.074  0.8734 -1.6984  0.6588
23482SOL     OW80759   5.379   2.729   9.015 -0.7098  0.1677 -0.1747
23482SOL    HW180760   5.444   2.663   9.038 -1.0781  0.2826  1.2465
23482SOL    HW280761   5.317   2.683   8.958  0.4704  0.0036 -1.3925
23483SOL     OW80762  11.411   7.352  11.961 -0.1833  0.0162 -0.2773
23483SOL    HW180763  11.342   7.381  12.020  0.2048  1.1413 -0.3596
23483SOL    HW280764  11.364   7.309  11.889 -0.8865  1.5608 -0.7874
23484SOL     OW80765   2.837   6.791   2.371 -0.7336 -0.3066  0.3233
23484SOL    HW180766   2.752   6.834   2.369 -0.1298  0.8946 -0.3131
23484SOL    HW280767   2.843   6.749   2.285 -0.3160  0.3620  0.0211
23485SOL     OW80768  12.339   9.001   6.427  0.1641  0.1846  0.0619
23485SOL    HW180769  12.420   8.989   6.378  0.1408 -1.1963  0.3173
23485SOL    HW280770  12.324   9.096   6.427  0.9524  0.3304 -1.3034
23486SOL     OW80771  12.723   0.291   2.769 -0.0515  0.3552  0.6936
23486SOL    HW180772  12.712   0.208   2.814 -0.7042 -0.4523 -0.8631
23486SOL    HW280773  12.651   0.345   2.800 -1.2285 -0.6202 -0.2692
23487SOL     OW80774   7.634   0.761   6.634  0.4394 -0.3536 -0.4720
23487SOL    HW180775   7.649   0.849   6.667 -1.0467 -0.7186  1.3215
23487SOL    HW280776   7.720   0.718   6.640  1.2080  0.9663 -1.5101
23488SOL     OW80777   1.246   5.448   1.332 -0.3150  0.3298 -0.6868
23488SOL    HW180778   1.235   5.382   1.263  1.2775 -0.3624 -0.3352
23488SOL    HW280779   1.160   5.457   1.371 -0.4323 -2.1658 -0.2293
23489SOL     OW80780   2.260   2.326   4.751 -0.1269  0.0986  0.1715
23489SOL    HW180781   2.321   2.256   4.726 -0.8020 -0.2811 -0.4391
23489SOL    HW280782   2.277   2.340   4.844 -0.0191 -0.9203  0.3164
23490SOL     OW80783   3.988   3.294   4.618 -0.3313  0.5170 -0.4482
23490SOL    HW180784   3.957   3.207   4.592  1.4055 -0.4952  0.6908
23490SOL    HW280785   3.926   3.321   4.686  0.0313 -0.5645  0.3373
23491SOL     OW80786  12.574   0.759   3.711  0.8581 -0.0133  0.0970
23491SOL    HW180787  12.566   0.711   3.793 -1.4934  0.1273  0.0143
23491SOL    HW280788  12.590   0.691   3.645 -3.1096 -0.9709 -0.1290
23492SOL     OW80789  11.633   3.209   5.289 -0.2355 -0.0580  0.2961
23492SOL    HW180790  11.691   3.195   5.364 -1.1719 -0.2733  1.0044
23492SOL    HW280791  11.675   3.278   5.238  0.3141  0.2372  1.1354
23493SOL     OW80792   4.008   6.918   2.863 -0.1253  0.0033  0.6057
23493SOL    HW180793   4.099   6.902   2.885 -1.0292 -3.3271  2.7676
23493SOL    HW280794   3.979   6.985   2.924  0.9739  1.6483 -0.6116
23494SOL     OW80795   5.992   1.137   9.332  0.7360 -0.0564  0.2253
23494SOL    HW180796   5.913   1.185   9.353  0.7405 -0.0052  0.1265
23494SOL    HW280797   6.021   1.099   9.415  0.7498  0.1362  0.3083
23495SOL     OW80798   9.613   0.268  11.843 -0.2647 -0.4425 -0.3067
23495SOL    HW180799   9.639   0.247  11.753 -2.3176 -2.6551 -0.4813
23495SOL    HW280800   9.610   0.184  11.887  0.1071  0.5481  1.7067
23496SOL     OW80801   4.558   4.044   8.046  0.0782 -0.5553  0.6585
23496SOL    HW180802   4.644   4.045   8.004  0.0500 -1.3127  0.5710
23496SOL    HW280803   4.503   4.099   7.989  1.1061  2.1030  2.0963
23497SOL     OW80804   9.899  10.567   2.452  0.2912 -0.1133  0.0204
23497SOL    HW180805   9.842  10.586   2.525  0.1814  1.9607 -0.5451
23497SOL    HW280806   9.955  10.496   2.483  0.3658  0.8102  2.1781
23498SOL     OW80807   0.181   6.800  10.115 -0.2554 -0.5232  0.3485
23498SOL    HW180808   0.131   6.870  10.074 -2.0218 -1.1631  1.2762
23498SOL    HW280809   0.188   6.826  10.207 -0.5675 -1.3450  0.6161
23499SOL     OW80810  10.982   8.843   3.233 -0.2943  0.0870 -0.1983
23499SOL    HW180811  11.031   8.763   3.256  0.4152  1.2178  2.6474
23499SOL    HW280812  10.909   8.845   3.294 -1.1637  0.8858 -1.2294
23500SOL     OW80813   2.137   5.676  12.710  0.2296 -0.6561 -0.2171
23500SOL    HW180814   2.076   5.603  12.722  0.4190 -0.3325  4.3853
23500SOL    HW280815   2.223   5.634  12.704  0.2505 -0.9286  1.5069
23501SOL     OW80816   2.896   4.899   0.746  0.4579  0.8524  0.7284
23501SOL    HW180817   2.963   4.967   0.738  0.9243  0.5277  1.6946
23501SOL    HW280818   2.938   4.830   0.797  0.0687 -0.2767 -0.4283
23502SOL     OW80819   6.040  11.878   6.194 -0.1563  0.3643  0.0343
23502SOL    HW180820   5.998  11.818   6.133  3.0747 -0.3107 -1.8152
23502SOL    HW280821   6.056  11.957   6.143  0.8400  0.5508  0.5944
23503SOL     OW80822   3.170   3.047   2.456 -0.0973 -0.3379 -0.2572
23503SOL    HW180823   3.253   3.051   2.504 -1.3403 -1.4293  2.1532
23503SOL    HW280824   3.151   2.953   2.450 -0.6537 -0.1657 -1.8060
23504SOL     OW80825   6.885  10.349   2.765 -0.5920  0.2862  0.1146
23504SOL    HW180826   6.809  10.310   2.721 -0.2051  0.1550 -0.4544
23504SOL    HW280827   6.927  10.400   2.697 -0.0693  0.2117  0.3806
23505SOL     OW80828  11.821   8.348   2.995  0.2046 -0.0677 -0.1736
23505SOL    HW180829  11.799   8.338   3.088 -0.8676 -1.4654 -0.5513
23505SOL    HW280830  11.737   8.359   2.951  0.4672 -1.9202 -1.2451
23506SOL     OW80831   9.943  11.270   4.328 -0.3360 -0.5158  0.2300
23506SOL    HW180832   9.991  11.350   4.307 -0.3589 -0.7733 -0.8198
23506SOL    HW280833   9.965  11.209   4.258 -0.8097 -1.2292  0.6881
23507SOL     OW80834   8.196   6.043   4.337 -0.2602 -0.5063 -0.6386
23507SOL    HW180835   8.180   6.130   4.300 -2.2874 -0.5010  0.1009
23507SOL    HW280836   8.215   6.060   4.430  0.9600 -0.7721 -0.8248
23508SOL     OW80837   2.345  10.158   1.836 -0.6385  0.4957 -0.0837
23508SOL    HW180838   2.302  10.233   1.877 -0.0310  1.2730 -0.8379
23508SOL    HW280839   2.304  10.151   1.750 -0.4920  0.1338 -0.1259
23509SOL     OW80840   6.818   0.168   3.646 -0.5897 -0.4367  0.0625
23509SOL    HW180841   6.738   0.151   3.697 -0.0228  1.6831  1.8251
23509SOL    HW280842   6.838   0.260   3.664  1.7438 -0.6539 -1.1177
23510SOL     OW80843  12.521  10.829   9.091  0.8652  0.1046  0.8132
23510SOL    HW180844  12.614  10.848   9.103  1.2544 -1.0553 -0.1859
23510SOL    HW280845  12.487  10.905   9.043  1.4999  0.1325  0.3991
23511SOL     OW80846   3.833   4.511   9.284 -0.0741  0.0969  0.0401
23511SOL    HW180847   3.908   4.561   9.252 -0.1575  0.3010  0.1618
23511SOL    HW280848   3.863   4.420   9.283  1.1252  0.3745  2.6155
23512SOL     OW80849   3.705   0.920   9.083  0.3483 -0.7176 -0.3600
23512SOL    HW180850   3.666   0.909   9.170  2.6178 -0.4449  0.7512
23512SOL    HW280851   3.646   0.981   9.038 -1.5179 -1.7979  0.5063
23513SOL     OW80852   1.715   2.344   1.310 -0.2559  0.2930  0.5397
23513SOL    HW180853   1.691   2.430   1.275  1.4552  0.7779  0.4742
23513SOL    HW280854   1.691   2.283   1.240 -2.2419  0.5781  0.9060
23514SOL     OW80855   8.064   9.064  10.106 -0.5999  0.3673 -0.6003
23514SOL    HW180856   8.077   9.094  10.016 -1.1263  2.0701 -0.1352
23514SOL    HW280857   7.974   9.031  10.107  0.1714 -1.9989 -1.2706
23515SOL     OW80858   2.611   8.238  11.300  0.2646  0.0912  0.4541
23515SOL    HW180859   2.689   8.195  11.264 -0.5846 -0.1877 -1.1030
23515SOL    HW280860   2.587   8.303  11.235 -1.3329 -0.4491  0.4543
23516SOL     OW80861   8.464   9.325  11.180 -0.0737  0.0605 -0.6541
23516SOL    HW180862   8.467   9.260  11.250  5.3617  1.2625  0.7019
23516SOL    HW280863   8.426   9.403  11.220 -0.7150 -0.4044 -0.3401
23517SOL     OW80864   0.391  12.678   2.830 -0.0843  0.2958 -0.4570
23517SOL    HW180865   0.308  12.722   2.848 -0.0760  0.0857  0.0998
23517SOL    HW280866   0.453  12.718   2.890 -0.7543 -2.6840  2.4885
23518SOL     OW80867   6.098   3.960   4.840 -0.3399  0.0540 -0.3351
23518SOL    HW180868   6.101   3.981   4.747 -0.2380  0.4793 -0.2398
23518SOL    HW280869   6.004   3.959   4.861 -0.4099 -0.9724 -0.6394
23519SOL     OW80870   1.327  10.258  12.314  0.5513  0.1493  0.3704
23519SOL    HW180871   1.246  10.240  12.267  0.1553  2.5199  0.0468
23519SOL    HW280872   1.298  10.295  12.397  1.3141 -0.9572  1.1629
23520SOL     OW80873   3.483  12.135   3.450  0.2708  0.0711 -0.1091
23520SOL    HW180874   3.483  12.060   3.510  2.6931 -0.9743 -1.3190
23520SOL    HW280875   3.521  12.206   3.502  0.7031 -0.3377  0.1465
23521SOL     OW80876  12.297  10.930   8.702  0.7500  0.0539 -0.2283
23521SOL    HW180877  12.366  10.980   8.657 -0.1079  0.3303 -1.2702
23521SOL    HW280878  12.259  10.993   8.764  2.1438 -0.4178  1.1698
23522SOL     OW80879   0.608  12.840   9.393  0.0933 -0.4113 -0.0891
23522SOL    HW180880   0.658  12.764   9.423  0.5548  0.0057  0.1955
23522SOL    HW280881   0.641  12.913   9.445 -3.4489 -0.7276  2.9938
23523SOL     OW80882  11.667   4.462   5.772 -0.1346 -0.0211  0.0452
23523SOL    HW180883  11.755   4.425   5.770 -1.3777 -3.8025  2.8782
23523SOL    HW280884  11.653   4.484   5.864 -1.3604  3.1171 -0.7422
23524SOL     OW80885   7.953  10.333   2.698 -0.3034  0.0981  0.5773
23524SOL    HW180886   7.883  10.399   2.703  1.6246  2.2592  0.9271
23524SOL    HW280887   7.907  10.249   2.696 -2.9356  1.4475 -0.5770
23525SOL     OW80888   7.261   0.870  11.777 -0.1636 -0.5531 -0.2429
23525SOL    HW180889   7.333   0.928  11.801  1.2419 -0.7380 -3.4853
23525SOL    HW280890   7.281   0.788  11.823 -0.4553  0.4857  1.8651
23526SOL     OW80891  10.683   2.143   8.804  0.4667 -0.7639  0.0583
23526SOL    HW180892  10.644   2.227   8.827  2.1156 -0.6546  2.9559
23526SOL    HW280893  10.776   2.162   8.792  1.3896 -2.4056  3.3656
23527SOL     OW80894   0.643   5.576   3.193  0.0488  0.3803  0.3177
23527SOL    HW180895   0.554   5.561   3.161  0.2984  1.1942 -0.8249
23527SOL    HW280896   0.636   5.564   3.288 -0.7096 -2.1560  0.0185
23528SOL     OW80897  10.756   0.860   0.505  0.4896  0.5950 -0.0700
23528SOL    HW180898  10.668   0.892   0.527  1.0672  0.7527  2.2352
23528SOL    HW280899  10.741   0.780   0.455 -0.9460  2.0691 -2.2043
23529SOL     OW80900   3.706   0.314   9.684  0.2204  0.1767 -0.5601
23529SOL    HW180901   3.631   0.369   9.661 -0.0116  0.6509  1.2088
23529SOL    HW280902   3.779   0.376   9.692 -0.1548  0.3717  1.9629
23530SOL     OW80903   1.977   0.811   7.202 -0.0211 -0.1905 -0.3213
23530SOL    HW180904   1.886   0.801   7.173 -0.2397 -0.1628  0.3366
23530SOL    HW280905   1.992   0.736   7.259  0.9839 -1.2427 -1.9079
23531SOL     OW80906   3.263   5.764   5.707  0.4833 -0.7128 -0.4414
23531SOL    HW180907   3.335   5.813   5.746 -0.4622  0.4098 -0.0500
23531SOL    HW280908   3.295   5.738   5.621  1.3070 -0.1400 -0.3231
23532SOL     OW80909   7.235  12.862   4.480  0.2199 -0.1241  0.1852
23532SOL    HW180910   7.229  12.835   4.389  0.0788  2.0110 -0.4861
23532SOL    HW280911   7.144  12.873   4.508  0.2805  1.3764 -0.1348
23533SOL     OW80912   7.854   8.733  12.472 -0.0177  0.2964 -0.3593
23533SOL    HW180913   7.798   8.686  12.410 -0.2906  1.1655 -0.7773
23533SOL    HW280914   7.804   8.736  12.553 -0.0715  0.0343 -0.3810
23534SOL     OW80915   8.395   9.666  11.519  0.6122 -0.6360  0.1855
23534SOL    HW180916   8.343   9.620  11.585 -2.3218  0.2863 -1.3184
23534SOL    HW280917   8.371   9.624  11.437 -0.9357  2.4222 -1.0428
23535SOL     OW80918   3.625   1.774   2.441 -0.2666  0.6902 -0.3754
23535SOL    HW180919   3.651   1.718   2.514  2.6675  2.0466 -0.2481
23535SOL    HW280920   3.572   1.718   2.385 -1.4975 -0.7733  2.0803
23536SOL     OW80921   6.684   5.974   7.624  0.3341  0.1543 -0.0319
23536SOL    HW180922   6.727   6.059   7.631  0.8119  0.0338 -1.1882
23536SOL    HW280923   6.638   5.978   7.540  0.2915 -0.6913 -0.0535
23537SOL     OW80924   6.449   6.292   9.971  0.2450 -0.1936  0.3592
23537SOL    HW180925   6.361   6.282   9.936  0.3792  1.1090 -0.4316
23537SOL    HW280926   6.506   6.253   9.905  0.4737  1.9823 -0.8311
23538SOL     OW80927   9.625  10.006   4.849  0.3126 -0.1536  0.4115
23538SOL    HW180928   9.705  10.052   4.823 -0.3102 -0.3625 -2.1732
23538SOL    HW280929   9.650   9.956   4.926  2.8278 -0.5808 -0.5768
23539SOL     OW80930   4.239   6.586  12.345 -0.1625  0.4928 -0.5718
23539SOL    HW180931   4.188   6.583  12.264 -2.2750  0.4024  0.6940
23539SOL    HW280932   4.191   6.530  12.406  0.2505  2.1450  1.3646
23540SOL     OW80933   9.911  11.961   5.646 -0.0624 -0.2633  0.3966
23540SOL    HW180934   9.975  11.953   5.717 -1.3616  0.3972  1.6916
23540SOL    HW280935   9.829  11.984   5.689 -1.6158 -2.6705 -1.0271
23541SOL     OW80936   3.561   3.054   6.783 -0.0820  0.1755 -0.1448
23541SOL    HW180937   3.467   3.033   6.789 -0.3040  0.9299 -0.8116
23541SOL    HW280938   3.587   3.070   6.873 -0.6208  0.0461  0.0415
23542SOL     OW80939   1.961   0.839  10.257  0.0601 -0.1563 -0.3344
23542SOL    HW180940   1.961   0.835  10.162 -0.6873 -0.5204 -0.3250
23542SOL    HW280941   2.047   0.805  10.283  0.5697  0.6748 -0.8975
23543SOL     OW80942   1.480   7.468  12.553 -0.7395  0.4122 -0.2815
23543SOL    HW180943   1.460   7.551  12.594 -1.2569 -1.9255  4.9460
23543SOL    HW280944   1.398   7.418  12.557 -0.2482 -0.7142 -2.5310
23544SOL     OW80945   8.666  12.400   0.794 -0.5997 -0.0770  0.3497
23544SOL    HW180946   8.658  12.372   0.885  0.8498 -0.0778  0.5070
23544SOL    HW280947   8.662  12.319   0.744 -0.6792 -0.1484  0.4712
23545SOL     OW80948   3.111  10.051   3.941 -0.4528  0.6076 -0.5525
23545SOL    HW180949   3.204  10.041   3.961 -0.4290  0.3754 -0.7722
23545SOL    HW280950   3.092   9.979   3.881 -0.7059  0.8254 -0.7343
23546SOL     OW80951   9.805   1.546   7.296  0.1924  0.3808 -0.3190
23546SOL    HW180952   9.737   1.594   7.249 -1.3612 -0.6311  0.8096
23546SOL    HW280953   9.827   1.473   7.239 -1.4046 -0.6177  0.2718
23547SOL     OW80954  11.812  11.681   0.584 -0.2894 -0.2348  0.3559
23547SOL    HW180955  11.775  11.597   0.555  1.5522 -0.9706 -0.0181
23547SOL    HW280956  11.737  11.731   0.616 -1.4847 -1.9093  0.2906
23548SOL     OW80957   7.636   9.539   1.752 -0.2205 -0.7236  0.5285
23548SOL    HW180958   7.562   9.508   1.700 -1.0302  1.1859  0.4749
23548SOL    HW280959   7.629   9.492   1.835 -1.4114 -0.6815  0.4614
23549SOL     OW80960   3.198   4.498   6.076 -0.1025  0.2259 -0.2997
23549SOL    HW180961   3.165   4.427   6.021  0.0855 -0.0199 -0.1014
23549SOL    HW280962   3.292   4.499   6.060 -0.2535  1.2589 -1.2464
23550SOL     OW80963   6.993  12.323  12.209  0.4809  0.1407 -0.3012
23550SOL    HW180964   7.074  12.281  12.181  0.2426  0.0206 -0.8202
23550SOL    HW280965   7.021  12.390  12.272  0.9451 -0.1329 -0.2127
23551SOL     OW80966   8.119  12.602   3.739 -0.0988  0.2181  0.6880
23551SOL    HW180967   8.179  12.577   3.809  1.4657  2.2581  0.1687
23551SOL    HW280968   8.032  12.586   3.775  0.6739  0.7352  2.9179
23552SOL     OW80969  11.965  12.019  11.984 -0.3141 -0.1711 -0.0836
23552SOL    HW180970  11.913  11.965  12.043  0.9319  0.3138  1.5187
23552SOL    HW280971  11.997  12.091  12.038  0.4644  0.5830 -1.4757
23553SOL     OW80972  11.013  11.797  10.323 -0.3103  0.4651 -0.1777
23553SOL    HW180973  11.027  11.706  10.300  0.3042  1.0750 -2.4093
23553SOL    HW280974  10.925  11.799  10.363 -0.0422 -1.1587  0.5458
23554SOL     OW80975   3.571   9.275   3.414  0.1651  0.3282  0.1670
23554SOL    HW180976   3.531   9.217   3.349 -0.9310  1.2128  0.0220
23554SOL    HW280977   3.627   9.333   3.363  1.9378 -1.1071  0.4026
23555SOL     OW80978  11.543   6.853   9.393  0.2638 -0.5551 -0.0075
23555SOL    HW180979  11.615   6.864   9.330  0.7270  1.0899  0.7382
23555SOL    HW280980  11.470   6.902   9.355  0.3075 -0.2000  0.3525
23556SOL     OW80981   7.764   9.815  10.650 -0.2082  0.1508 -0.5908
23556SOL    HW180982   7.771   9.883  10.716 -0.2304 -0.0888 -0.3405
23556SOL    HW280983   7.843   9.824  10.597 -1.1203  1.6495 -1.7941
23557SOL     OW80984   3.485   1.754   4.892  0.4584  0.3896  0.6351
23557SOL    HW180985   3.553   1.780   4.954  0.3998 -0.7796  1.2189
23557SOL    HW280986   3.479   1.827   4.831  2.7173  0.2479  0.1570
23558SOL     OW80987   3.573   9.449   3.009  0.1547  0.1382  1.1079
23558SOL    HW180988   3.625   9.525   2.980  0.5187 -0.0628  1.2258
23558SOL    HW280989   3.540   9.411   2.928 -0.9416  1.0513  1.0986
23559SOL     OW80990   6.338   2.643   7.984 -0.4776  0.4475  0.1753
23559SOL    HW180991   6.328   2.585   8.060 -0.9787  0.6133  0.2405
23559SOL    HW280992   6.414   2.698   8.005 -0.8003  0.6996  0.6944
23560SOL     OW80993  10.051   2.606  10.387 -0.2491 -0.0031 -0.0003
23560SOL    HW180994  10.082   2.685  10.433 -0.7489 -0.8813  1.9853
23560SOL    HW280995   9.956   2.616  10.384 -0.2383 -0.0734 -0.6594
23561SOL     OW80996   5.813   2.569  11.334  0.0748 -0.2551  0.5561
23561SOL    HW180997   5.750   2.548  11.265  0.9077 -0.5027 -0.1477
23561SOL    HW280998   5.863   2.488  11.347  1.3211  0.3893 -0.0569
23562SOL     OW80999  12.693   6.611   5.665  0.7017  0.0975 -0.1012
23562SOL    HW181000  12.698   6.517   5.684  0.7366 -0.4289 -2.4660
23562SOL    HW281001  12.741   6.652   5.737 -0.3805 -1.5656  1.6822
23563SOL     OW81002   7.976   1.149   3.010  0.1559 -0.1108 -0.7064
23563SOL    HW181003   8.001   1.217   2.947 -0.0860  1.7056  1.0890
23563SOL    HW281004   8.005   1.182   3.095 -0.5528 -1.9755  0.3241
23564SOL     OW81005  10.075  12.064   0.538 -0.3153 -0.1818 -0.1863
23564SOL    HW181006  10.040  12.152   0.549  1.3035  0.6332 -1.2813
23564SOL    HW281007  10.126  12.048   0.618 -0.1008  0.1206 -0.2630
23565SOL     OW81008   8.691   3.072   6.216  0.5371  0.2878 -0.3723
23565SOL    HW181009   8.619   3.127   6.247  0.7508  1.4861 -1.9111
23565SOL    HW281010   8.755   3.074   6.287 -0.9486 -0.9353  1.1135
23566SOL     OW81011   2.429   0.331   9.078 -0.0002  0.0164 -0.1089
23566SOL    HW181012   2.481   0.265   9.124  1.2447  0.5582 -0.6814
23566SOL    HW281013   2.358   0.282   9.038  0.8684 -0.9924 -0.4763
23567SOL     OW81014   4.421   3.472  10.534 -0.6377  0.1325 -0.5386
23567SOL    HW181015   4.441   3.546  10.590  0.3470 -1.4133  1.2469
23567SOL    HW281016   4.337   3.438  10.567 -0.8271  0.1181 -1.0123
23568SOL     OW81017   0.023   4.424   1.545 -0.4008  0.0381 -0.0424
23568SOL    HW181018   0.069   4.340   1.548  1.2946  0.9401  1.4821
23568SOL    HW281019   0.063   4.476   1.615 -1.4623  2.0937 -0.8617
23569SOL     OW81020   4.729   2.329   9.299  0.0331 -0.1067 -0.4552
23569SOL    HW181021   4.706   2.236   9.304  2.2719 -0.7259 -0.7806
23569SOL    HW281022   4.721   2.351   9.206  2.6174 -0.8907 -0.9211
23570SOL     OW81023   4.628  11.524   5.602 -0.4811  0.5410  0.1023
23570SOL    HW181024   4.586  11.610   5.612 -0.3819  0.4824  1.1636
23570SOL    HW281025   4.572  11.465   5.652 -1.8488 -0.4910 -2.4759
23571SOL     OW81026   3.157   9.794   9.924  0.0862 -0.4658 -0.0077
23571SOL    HW181027   3.218   9.845   9.977 -0.8820 -1.3202  2.0501
23571SOL    HW281028   3.141   9.848   9.846  1.7468  0.7351  0.4340
23572SOL     OW81029   5.788   2.651   2.715 -0.0527 -0.2719  0.6937
23572SOL    HW181030   5.833   2.732   2.689  0.5857 -0.9409 -0.3549
23572SOL    HW281031   5.810   2.589   2.646 -3.5569 -0.3519 -0.5536
23573SOL     OW81032  10.808   3.706   8.280 -0.2939 -0.1381  0.2782
23573SOL    HW181033  10.717   3.680   8.293 -1.4511  2.2194 -2.0516
23573SOL    HW281034  10.841   3.724   8.368 -1.5305 -2.4838  1.3110
23574SOL     OW81035   4.776   9.797   1.367  0.1424  0.2876  0.0114
23574SOL    HW181036   4.777   9.767   1.276  0.0053 -2.8778  0.9540
23574SOL    HW281037   4.713   9.740   1.411  1.5914  0.4673  2.4877
23575SOL     OW81038   3.438   2.357   7.558 -0.5375 -0.8160 -0.3098
23575SOL    HW181039   3.379   2.320   7.624  0.0677 -0.7495  0.2869
23575SOL    HW281040   3.464   2.282   7.504 -0.4522 -1.0099 -0.0031
23576SOL     OW81041   0.272   6.151   9.428 -0.1128 -0.1058 -0.2822
23576SOL    HW181042   0.283   6.230   9.376  1.5799  0.4818  0.9050
23576SOL    HW281043   0.194   6.168   9.481  0.0962  0.6718 -0.2152
23577SOL     OW81044   6.054   3.904   9.711 -0.0610 -0.3109  0.0069
23577SOL    HW181045   6.131   3.957   9.731 -0.0153  1.0066 -3.0786
23577SOL    HW281046   5.980   3.957   9.739  0.0529 -0.9468  1.6308
23578SOL     OW81047  10.882  12.904  11.563  0.2046 -0.1548 -0.7683
23578SOL    HW181048  10.898  12.823  11.515  4.2388  0.3817 -0.6167
23578SOL    HW281049  10.872  12.970  11.495 -1.1697 -0.4195 -0.8576
23579SOL     OW81050   7.854   0.544  12.625 -0.1651  0.1658 -0.3992
23579SOL    HW181051   7.925   0.540  12.689  0.3105 -1.2910 -0.9738
23579SOL    HW281052   7.897   0.542  12.540 -0.8571  0.1460 -0.7601
23580SOL     OW81053   3.271   0.049   1.735  0.0162 -0.1346  0.1979
23580SOL    HW181054   3.292   0.142   1.735 -1.6772  0.2849 -1.0443
23580SOL    HW281055   3.305   0.016   1.652  0.0285 -0.4811  0.3395
23581SOL     OW81056  11.553   8.056   6.949  0.5169 -0.6217  0.0805
23581SOL    HW181057  11.499   8.046   6.870  1.2828  1.8801 -0.8668
23581SOL    HW281058  11.502   8.113   7.006  2.1493  2.0849 -0.9833
23582SOL     OW81059   1.510   1.250   1.312 -0.4927 -0.1155  0.0250
23582SOL    HW181060   1.444   1.250   1.381 -2.0473 -0.6009 -1.4059
23582SOL    HW281061   1.494   1.170   1.263 -0.0749  0.7004 -1.5054
23583SOL     OW81062   4.088   1.656  10.744 -0.0440 -0.0612  0.2121
23583SOL    HW181063   4.089   1.751  10.739 -1.0252  0.0230  1.1570
23583SOL    HW281064   4.003   1.631  10.706 -0.0127 -0.5194  0.4322
23584SOL     OW81065   7.500   9.456   4.529 -0.3467 -0.2843  0.6904
23584SOL    HW181066   7.591   9.474   4.553 -0.3528 -0.1499  0.6180
23584SOL    HW281067   7.481   9.518   4.459 -0.4792 -0.3439  0.6723
23585SOL     OW81068   0.605   0.451   0.473  0.3619 -0.1112  0.5787
23585SOL    HW181069   0.620   0.544   0.483  0.7725  0.1350 -1.6445
23585SOL    HW281070   0.688   0.417   0.438 -0.4534 -0.8845 -0.6825
23586SOL     OW81071   0.902   5.480   5.280  0.4465  0.1734  0.7681
23586SOL    HW181072   0.858   5.493   5.364  0.3660  0.6601  0.6539
23586SOL    HW281073   0.989   5.518   5.292  0.3408  0.4870  0.5489
23587SOL     OW81074   9.008   3.657   3.064  0.4396 -0.0017 -0.4013
23587SOL    HW181075   9.098   3.671   3.092 -0.1092  0.3156  1.3161
23587SOL    HW281076   8.973   3.745   3.048 -0.1343  0.0203  0.8829
23588SOL     OW81077   4.560   3.905   8.955 -0.1293  0.1293  0.0839
23588SOL    HW181078   4.640   3.896   9.007  1.0202 -1.0450 -1.7470
23588SOL    HW281079   4.570   3.990   8.911  0.5776 -0.3981 -0.8133
23589SOL     OW81080   6.356   0.699  11.805  0.4074  0.6303  0.0762
23589SOL    HW181081   6.324   0.773  11.858  1.2030 -0.1024  1.6392
23589SOL    HW281082   6.432   0.734  11.759  0.2910  1.0088  0.1644
23590SOL     OW81083   2.457   1.691   8.011 -0.3426 -0.1821  0.8367
23590SOL    HW181084   2.400   1.615   8.025 -0.0478 -0.5324  0.1435
23590SOL    HW281085   2.544   1.654   8.002 -0.3961  0.0740 -1.1376
23591SOL     OW81086   4.647   1.689  10.620 -0.5139  0.5399  0.1251
23591SOL    HW181087   4.723   1.650  10.577 -0.4713  0.9674 -0.1976
23591SOL    HW281088   4.647   1.780  10.590 -0.0764  1.0430  1.5607
23592SOL     OW81089   2.658   5.515   5.560  0.3387  0.2263  0.1432
23592SOL    HW181090   2.593   5.480   5.499  3.7331 -2.8931 -2.0658
23592SOL    HW281091   2.640   5.468   5.642 -0.4754 -0.2049 -0.2642
23593SOL     OW81092   4.497   3.296  11.105 -0.6086 -0.0792  0.4638
23593SOL    HW181093   4.500   3.216  11.051  0.0790 -1.5799  2.5840
23593SOL    HW281094   4.589   3.317  11.122 -0.7645  1.6543 -0.6904
23594SOL     OW81095   0.481  11.586   1.904 -0.0999  0.1073 -0.0494
23594SOL    HW181096   0.419  11.614   1.972 -1.6462 -2.4253 -0.3098
23594SOL    HW281097   0.549  11.538   1.952  1.1528  1.9014  0.0961
23595SOL     OW81098   7.371  11.177   7.490 -0.4608 -0.0846  0.2453
23595SOL    HW181099   7.424  11.248   7.525  1.9301 -1.1455 -1.0353
23595SOL    HW281100   7.281  11.208   7.499  0.4765  3.1278 -0.2899
23596SOL     OW81101   4.978  12.006   7.307 -0.0537 -0.2911  0.2721
23596SOL    HW181102   4.914  12.033   7.372 -0.1845 -0.0007  0.0247
23596SOL    HW281103   4.943  11.923   7.273 -1.4191  0.8945 -1.3622
23597SOL     OW81104   1.780   9.675  10.838  0.5573 -0.5454  0.0116
23597SOL    HW181105   1.768   9.747  10.899 -0.0805 -0.3015 -0.3994
23597SOL    HW281106   1.731   9.700  10.760  1.2043 -0.9364 -0.5407
23598SOL     OW81107   4.312   5.046   6.591  0.0414 -0.4424 -0.1245
23598SOL    HW181108   4.287   5.090   6.673  0.4060  0.7447 -0.6317
23598SOL    HW281109   4.401   5.075   6.575  0.6840 -2.2283  0.0599
23599SOL     OW81110  12.116  11.071   2.996  0.0785  0.2195 -0.4978
23599SOL    HW181111  12.049  11.140   2.993 -2.3109 -1.9165  0.4018
23599SOL    HW281112  12.113  11.031   2.909 -0.7238 -0.6416 -0.0907
23600SOL     OW81113   3.840   0.634  10.439  1.0926 -0.0641  0.5611
23600SOL    HW181114   3.754   0.597  10.416  1.2328 -1.0126  1.4478
23600SOL    HW281115   3.820   0.713  10.488  0.7817  1.2219 -1.5206
23601SOL     OW81116  10.461   0.514   9.275 -0.2818 -0.0470  0.7035
23601SOL    HW181117  10.515   0.531   9.352  0.9914  0.1808 -0.1991
23601SOL    HW281118  10.463   0.419   9.265 -0.5794 -0.0906  1.0291
23602SOL     OW81119   1.236  12.320  11.995 -0.1482  0.1384  0.1200
23602SOL    HW181120   1.279  12.298  12.078 -0.4071  0.0491  0.2318
23602SOL    HW281121   1.298  12.377  11.950 -0.3882  0.9402  0.7709
23603SOL     OW81122  10.056   2.657   6.128  0.1592  0.0288  0.2355
23603SOL    HW181123  10.021   2.630   6.043  0.0418 -3.0686  1.1557
23603SOL    HW281124  10.150   2.637   6.123  0.1021 -0.4398  0.8947
23604SOL     OW81125  12.573   8.571   3.504 -0.0768  0.0081  0.1623
23604SOL    HW181126  12.587   8.563   3.599 -0.4966  0.2410  0.2430
23604SOL    HW281127  12.506   8.506   3.485 -1.0489  0.9593  0.2655
23605SOL     OW81128   5.037   0.925   0.441  0.5253 -0.3526 -0.0316
23605SOL    HW181129   4.959   0.869   0.440  0.8000 -0.8190  1.3901
23605SOL    HW281130   5.107   0.869   0.407  0.6899 -0.7137  0.8754
23606SOL     OW81131   2.445   4.478   8.533 -0.4722 -0.3349 -0.1777
23606SOL    HW181132   2.400   4.411   8.480 -0.3905  0.3146 -1.0899
23606SOL    HW281133   2.537   4.465   8.512 -0.5495  0.9606 -1.4739
23607SOL     OW81134   0.797   0.413   7.529 -0.1890 -0.2439  0.5061
23607SOL    HW181135   0.795   0.374   7.442  0.9412 -1.5864  1.0325
23607SOL    HW281136   0.828   0.502   7.515 -1.7034  0.1364 -0.6253
23608SOL     OW81137  12.542   9.442   4.942 -0.7722 -0.6030 -0.1406
23608SOL    HW181138  12.537   9.495   4.862 -1.7245 -1.1132 -0.4376
23608SOL    HW281139  12.515   9.502   5.011 -0.3646 -0.2784 -0.2590
23609SOL     OW81140   3.693   0.951   8.306 -0.2860  0.2008  0.0294
23609SOL    HW181141   3.751   1.022   8.280  0.4246  0.6142  2.5169
23609SOL    HW281142   3.725   0.875   8.257 -0.5826  1.3774 -2.0830
23610SOL     OW81143   7.928   9.107   5.295  0.1609  0.5293  0.0183
23610SOL    HW181144   7.972   9.191   5.309  0.7382  0.1658  0.4639
23610SOL    HW281145   7.996   9.050   5.259 -0.0116  0.0417  0.4434
23611SOL     OW81146   0.357  11.605   9.659 -0.7031  0.3188 -0.0941
23611SOL    HW181147   0.437  11.658   9.651 -0.4380 -0.0789 -0.1244
23611SOL    HW281148   0.351  11.560   9.575 -0.1542 -0.7750  0.4395
23612SOL     OW81149   7.188   3.774   7.892 -0.1913  0.0824 -0.3247
23612SOL    HW181150   7.250   3.715   7.935  0.0850 -0.7628 -1.8358
23612SOL    HW281151   7.113   3.776   7.951  0.7524  0.1376  0.9248
23613SOL     OW81152   8.625   9.378  11.780  0.5549 -0.1509 -0.0897
23613SOL    HW181153   8.596   9.320  11.709  1.7123  0.6586 -1.2867
23613SOL    HW281154   8.680   9.323  11.835 -0.5755 -0.8627  0.3538
23614SOL     OW81155   2.399   8.080  10.897  0.2900 -0.4361 -0.2738
23614SOL    HW181156   2.466   8.121  10.953 -1.0326  1.5959 -0.0559
23614SOL    HW281157   2.418   8.113  10.809  0.9663 -1.7588 -0.6404
23615SOL     OW81158   4.877   6.294   7.149 -0.4362 -0.3434  0.0878
23615SOL    HW181159   4.892   6.248   7.232 -4.1400 -2.0461  0.0030
23615SOL    HW281160   4.892   6.387   7.170  0.8433 -0.9257  2.0326
23616SOL     OW81161   9.721   7.225   9.942  0.0083 -1.0040 -0.8615
23616SOL    HW181162   9.690   7.271  10.019 -2.2404 -0.9557 -1.7365
23616SOL    HW281163   9.803   7.270   9.918 -0.1893  0.0927  0.4455
23617SOL     OW81164   9.772  11.622   1.078  0.7210  0.5973  0.0279
23617SOL    HW181165   9.771  11.543   1.024  0.7937  0.6576 -0.0640
23617SOL    HW281166   9.822  11.685   1.026 -0.0678  0.9760 -0.2989
23618SOL     OW81167   9.913   5.902  10.002  0.6041 -0.4105  0.0691
23618SOL    HW181168   9.960   5.908  10.085  0.1703  0.6844  0.2487
23618SOL    HW281169   9.971   5.947   9.939  0.6402 -0.6810 -0.0921
23619SOL     OW81170   7.156  10.494   1.600 -0.1246 -0.5906  0.0953
23619SOL    HW181171   7.131  10.470   1.511  0.5793 -1.6011  0.1634
23619SOL    HW281172   7.251  10.505   1.597 -0.2012  0.2855  0.5215
23620SOL     OW81173   2.473  11.631  11.660 -0.0771  0.3593  0.4937
23620SOL    HW181174   2.431  11.716  11.651 -0.5975  0.0940  0.3839
23620SOL    HW281175   2.456  11.587  11.576  0.1697  0.1428  0.5563
23621SOL     OW81176   9.133   0.711   2.791  0.0432 -0.0158  0.0897
23621SOL    HW181177   9.060   0.750   2.743  0.3777 -0.4088 -0.7672
23621SOL    HW281178   9.127   0.748   2.879 -1.1950 -0.0542  0.0366
23622SOL     OW81179   8.493   0.212   8.790 -0.2543  0.5252  0.1067
23622SOL    HW181180   8.587   0.191   8.798  0.0066  1.4447 -0.4579
23622SOL    HW281181   8.484   0.248   8.702 -0.8567  1.8878  0.6978
23623SOL     OW81182   7.994   6.401   4.566 -0.4120 -0.1897 -0.0979
23623SOL    HW181183   7.937   6.454   4.510 -0.6328 -0.6659 -0.3305
23623SOL    HW281184   8.055   6.464   4.605 -0.9278  0.2877 -0.0504
23624SOL     OW81185  12.473   8.230  10.437  0.3630 -0.5850 -0.1192
23624SOL    HW181186  12.507   8.251  10.524  0.8881 -0.3568 -0.3751
23624SOL    HW281187  12.511   8.144  10.416 -0.1130 -0.8414  0.0546
23625SOL     OW81188   1.424   3.109  10.189  0.4703 -0.3485  0.0046
23625SOL    HW181189   1.382   3.024  10.200  1.4424 -0.8909 -0.2824
23625SOL    HW281190   1.353   3.173  10.195 -0.0505 -1.0409  2.0641
23626SOL     OW81191   9.702   1.460   1.257 -0.6091  0.2883  0.4467
23626SOL    HW181192   9.688   1.525   1.188  0.4400 -0.5445 -0.5616
23626SOL    HW281193   9.661   1.380   1.225 -1.0232  0.1589  1.2524
23627SOL     OW81194   9.033   2.520   7.534  0.6553 -0.3719 -0.0812
23627SOL    HW181195   9.082   2.553   7.610  0.8845 -0.4728 -0.1833
23627SOL    HW281196   9.037   2.425   7.543  0.1463 -0.3792  0.1182
23628SOL     OW81197   8.099  10.971   4.455  0.3957  0.0403 -0.5397
23628SOL    HW181198   8.167  10.977   4.387  1.2599  0.3292  0.3286
23628SOL    HW281199   8.019  10.997   4.410  0.8321 -0.3886 -1.6166
23629SOL     OW81200   7.997   1.000   2.614  0.0366  0.5834 -0.0522
23629SOL    HW181201   8.015   0.961   2.699  0.5643  0.2543 -0.3136
23629SOL    HW281202   8.081   1.036   2.586 -0.2259  1.0399 -0.2561
23630SOL     OW81203  12.432   8.511   4.921  0.3105 -0.7243  0.2503
23630SOL    HW181204  12.383   8.496   5.002  0.6544 -0.3389  0.5317
23630SOL    HW281205  12.524   8.508   4.946  0.4117  0.4935  0.0864
23631SOL     OW81206   4.613   7.656  10.994 -0.9925  0.0007  0.0163
23631SOL    HW181207   4.604   7.627  10.903 -2.1318  1.8128 -0.5122
23631SOL    HW281208   4.549   7.727  11.002  1.5145  2.2725  1.2162
23632SOL     OW81209   3.734   0.526  12.278 -0.0157  0.2181 -0.4595
23632SOL    HW181210   3.804   0.507  12.215 -1.0200 -2.2111 -0.9717
23632SOL    HW281211   3.655   0.493  12.236 -0.8976 -0.4449  1.5828
23633SOL     OW81212   2.778  10.191   2.609  0.4744  0.2622  0.7775
23633SOL    HW181213   2.764  10.284   2.595  0.0286  0.4050  1.9795
23633SOL    HW281214   2.749  10.149   2.528  0.8902  1.1749  0.1485
23634SOL     OW81215  10.892   9.552   1.093  0.3402  0.3523  0.3341
23634SOL    HW181216  10.899   9.500   1.013  1.1643 -0.9821  1.2214
23634SOL    HW281217  10.823   9.508   1.144  0.2301  0.8387  0.6115
23635SOL     OW81218   1.370   0.707   7.741  0.0881  0.6758 -0.1528
23635SOL    HW181219   1.397   0.620   7.771  0.1236  0.9311  0.5797
23635SOL    HW281220   1.424   0.723   7.663  1.3847  0.7710  0.7217
23636SOL     OW81221  10.315   9.859   5.947  0.6544 -0.0629  0.0344
23636SOL    HW181222  10.360   9.834   6.028 -2.3719 -2.4656  1.1532
23636SOL    HW281223  10.308   9.778   5.897  0.6455  0.9653 -1.7172
23637SOL     OW81224   1.968   5.974   4.750  0.2830  0.2381  0.0766
23637SOL    HW181225   1.894   5.949   4.694 -2.1435  0.6052  2.8635
23637SOL    HW281226   2.012   6.043   4.701 -0.8898 -0.3171 -1.9143
23638SOL     OW81227  10.484   5.536   2.333 -0.2793  0.2040  0.1428
23638SOL    HW181228  10.559   5.552   2.276 -1.2236 -0.0549 -1.2347
23638SOL    HW281229  10.521   5.531   2.421  0.9681  2.6810 -0.1759
23639SOL     OW81230   9.394   9.440   5.263 -0.5448 -0.2896  0.2468
23639SOL    HW181231   9.336   9.382   5.313 -3.0743  1.6674 -0.2544
23639SOL    HW281232   9.400   9.398   5.177  0.4776 -1.5137  0.8658
23640SOL     OW81233   3.729   2.583   5.107 -0.7844  0.6666 -0.5540
23640SOL    HW181234   3.678   2.607   5.185  2.2570  0.5891  1.6252
23640SOL    HW281235   3.792   2.655   5.096  2.1066 -1.5553  0.2106
23641SOL     OW81236   6.580   9.696   6.009 -0.7191  0.2964  0.1325
23641SOL    HW181237   6.486   9.698   5.988 -1.1830  2.2721  2.0282
23641SOL    HW281238   6.615   9.777   5.974 -0.1675  0.5248  1.1663
23642SOL     OW81239   7.052  11.042  12.117 -0.6771 -1.1509 -0.2809
23642SOL    HW181240   6.971  11.020  12.071 -0.9983 -1.5668  0.4653
23642SOL    HW281241   7.072  11.131  12.090 -1.0443 -1.2637 -0.9505
23643SOL     OW81242  10.467   8.066  12.543  0.2072  0.4720  0.8202
23643SOL    HW181243  10.498   8.155  12.528 -0.6583  0.7577  0.6905
23643SOL    HW281244  10.403   8.074  12.614 -1.9220  0.3923 -1.0006
23644SOL     OW81245   4.933   7.475   6.961 -0.5014 -0.0346 -0.4112
23644SOL    HW181246   4.934   7.385   6.930 -1.9725  0.1124 -0.9972
23644SOL    HW281247   4.925   7.468   7.056 -3.0125 -0.6111 -0.5769
23645SOL     OW81248   2.182   8.789   7.457  0.5450 -0.3636  0.1810
23645SOL    HW181249   2.125   8.715   7.477 -1.9060  1.2635 -0.3497
23645SOL    HW281250   2.237   8.798   7.535  0.9421 -2.6872  0.2483
23646SOL     OW81251   0.570   0.457   4.202 -0.2604 -0.0598  0.6305
23646SOL    HW181252   0.589   0.537   4.152  0.2790 -0.0530  0.8388
23646SOL    HW281253   0.612   0.387   4.153 -2.3675 -0.5323 -0.6204
23647SOL     OW81254   7.005   8.161   9.604 -0.3232 -0.0297 -0.2745
23647SOL    HW181255   6.947   8.218   9.654  0.5805 -0.8583  1.8511
23647SOL    HW281256   6.946   8.100   9.559 -1.1468  0.2384  0.4190
23648SOL     OW81257  10.275  10.771  12.954  0.2175  0.0105  0.1004
23648SOL    HW181258  10.199  10.829  12.942 -0.9207 -1.0009  2.0317
23648SOL    HW281259  10.237  10.684  12.967  1.7270 -0.5791  0.7526
23649SOL     OW81260   0.183   7.405  11.927 -0.4072  0.0138  0.1983
23649SOL    HW181261   0.172   7.490  11.969 -1.1679 -0.6919  1.4855
23649SOL    HW281262   0.239   7.356  11.986  0.5021 -0.2139 -0.8177
23650SOL     OW81263   2.205   6.699   0.813 -0.5118 -0.3612 -0.3263
23650SOL    HW181264   2.224   6.605   0.815  0.1034 -0.3225 -2.1407
23650SOL    HW281265   2.142   6.710   0.741 -1.8981  0.4279  0.9639
23651SOL     OW81266   2.734   2.072  11.581 -0.2798  0.4576 -0.0815
23651SOL    HW181267   2.700   2.070  11.670 -0.0489  1.1316  0.0282
23651SOL    HW281268   2.769   1.984  11.567 -0.5283  0.2767  0.4052
23652SOL     OW81269   1.517   1.674  12.063  0.4717 -0.1380  0.0363
23652SOL    HW181270   1.481   1.697  12.148 -0.7678  1.3303 -0.8324
23652SOL    HW281271   1.497   1.581  12.053 -0.2447 -0.0909  0.9235
23653SOL     OW81272   8.624   0.064   9.952 -0.3611  0.3321  0.1535
23653SOL    HW181273   8.588  -0.017   9.916  2.5098 -1.4151  0.8901
23653SOL    HW281274   8.652   0.114   9.875 -1.2077  0.1459 -0.2797
23654SOL     OW81275   3.469   4.789   4.582 -0.7337 -0.3894  0.2995
23654SOL    HW181276   3.458   4.873   4.537 -0.0590 -0.4671 -0.0253
23654SOL    HW281277   3.407   4.731   4.538 -2.0979  0.2317  1.3410
23655SOL     OW81278   9.213   6.945   6.212 -0.0769  0.4528 -0.4302
23655SOL    HW181279   9.280   6.879   6.192  0.0911  0.3052  0.5957
23655SOL    HW281280   9.253   7.028   6.185 -0.1385  0.1919 -1.3681
23656SOL     OW81281   9.758  10.363  10.601  0.2242  0.5420 -0.2627
23656SOL    HW181282   9.731  10.283  10.557  1.0249  0.1096 -0.0048
23656SOL    HW281283   9.730  10.434  10.543 -0.1123  0.0564 -0.7008
23657SOL     OW81284   7.194  12.218  11.323  0.1162  0.2751  0.2858
23657SOL    HW181285   7.106  12.201  11.289  0.4915  1.0042 -1.1207
23657SOL    HW281286   7.210  12.146  11.385 -1.0987 -0.3971 -0.1503
23658SOL     OW81287  10.539   7.094   4.966 -0.1848 -0.7450 -0.1307
23658SOL    HW181288  10.461   7.053   4.928 -0.8524 -1.7651  2.1840
23658SOL    HW281289  10.612   7.051   4.923 -0.8592 -0.2317 -1.8833
23659SOL     OW81290   7.648   8.080  11.158  0.0390 -0.2223  0.0857
23659SOL    HW181291   7.626   8.033  11.239  1.7423 -0.4850  0.4165
23659SOL    HW281292   7.624   8.171  11.176 -1.1313 -0.5502  0.2695
23660SOL     OW81293   6.584   2.353   2.167 -0.0876 -0.3888  0.0704
23660SOL    HW181294   6.521   2.362   2.096 -0.2704 -3.0151 -0.1821
23660SOL    HW281295   6.668   2.379   2.128 -0.4289 -0.3589 -0.6482
23661SOL     OW81296   7.015   7.766   1.482 -0.8323  0.0880 -0.0329
23661SOL    HW181297   6.946   7.828   1.459 -0.2058  1.0115  0.5184
23661SOL    HW281298   7.074   7.815   1.538 -0.8410 -1.3041  1.2594
23662SOL     OW81299   5.531  12.039  11.377 -0.3628 -0.9667 -0.0544
23662SOL    HW181300   5.449  11.996  11.350  0.6209 -2.1367 -1.3077
23662SOL    HW281301   5.537  12.021  11.471 -2.2247  0.3475  0.3623
23663SOL     OW81302   3.254   4.321  10.583 -0.0304  0.3068 -0.2303
23663SOL    HW181303   3.332   4.373  10.603  0.0973 -0.2872  0.9032
23663SOL    HW281304   3.282   4.231  10.596 -0.8281  0.0758 -0.1203
23664SOL     OW81305   1.869   8.043   0.565  0.2237 -0.0757 -0.5890
23664SOL    HW181306   1.954   7.999   0.576 -0.4510 -1.0974  0.8059
23664SOL    HW281307   1.892   8.133   0.540  1.7978  0.2232  1.6596
23665SOL     OW81308   3.561  10.484   3.182 -0.3078  0.1093  0.3413
23665SOL    HW181309   3.538  10.495   3.274  1.8887 -1.7818  1.2144
23665SOL    HW281310   3.657  10.487   3.181 -0.2003 -1.7995 -1.5831
23666SOL     OW81311   8.600   4.324   6.188 -0.2300  0.3425  0.1293
23666SOL    HW181312   8.642   4.241   6.212 -1.6605 -0.0448  1.5003
23666SOL    HW281313   8.511   4.299   6.163 -0.8118  1.5075  0.9703
23667SOL     OW81314   9.210   4.738   1.348  0.1759  0.2172  0.2770
23667SOL    HW181315   9.229   4.770   1.436 -2.5494 -0.7866  1.3145
23667SOL    HW281316   9.118   4.760   1.333  0.7496  1.0856 -2.7007
23668SOL     OW81317   3.936   5.118   8.655  0.2620  0.0098  0.2443
23668SOL    HW181318   3.999   5.168   8.708  0.7344 -0.4773  0.1479
23668SOL    HW281319   3.855   5.169   8.660  0.6889  0.6958  0.2873
23669SOL     OW81320  12.554  12.848   5.445 -0.1033 -0.3141 -0.1221
23669SOL    HW181321  12.613  12.806   5.507  0.3271 -0.4197 -0.5968
23669SOL    HW281322  12.486  12.783   5.428  1.2382 -1.3744 -1.8404
23670SOL     OW81323   2.574   5.721   7.323  0.4689 -0.0720 -0.8309
23670SOL    HW181324   2.503   5.686   7.377 -0.7519  0.3962 -2.0824
23670SOL    HW281325   2.639   5.753   7.386 -0.7493  0.1427  0.3578
23671SOL     OW81326  11.123   3.149   4.516 -0.1007  0.1755  0.2473
23671SOL    HW181327  11.052   3.098   4.557  1.2097 -2.4861 -0.5283
23671SOL    HW281328  11.157   3.204   4.586  0.1786 -2.1010  2.0085
23672SOL     OW81329   1.279   6.006   5.215  0.1125 -0.3425 -0.4502
23672SOL    HW181330   1.196   5.961   5.226  0.2075 -0.6593 -0.9732
23672SOL    HW281331   1.259   6.098   5.230 -0.8932 -0.0469 -3.0178
23673SOL     OW81332   7.747   8.946  11.206  0.4937 -0.1886 -0.3256
23673SOL    HW181333   7.727   9.040  11.212 -0.4827 -0.3247 -1.1055
23673SOL    HW281334   7.667   8.907  11.171  0.6211 -1.4303  0.7057
23674SOL     OW81335   7.010   2.865   2.672  0.1054 -0.3875  0.1191
23674SOL    HW181336   7.088   2.817   2.645 -0.5249 -0.9910 -0.6850
23674SOL    HW281337   7.043   2.950   2.701  1.2569 -1.3023  1.6346
23675SOL     OW81338   5.812   8.509   8.095  0.0583 -0.1726  0.6002
23675SOL    HW181339   5.776   8.597   8.105  0.3378  0.3338 -1.9551
23675SOL    HW281340   5.839   8.483   8.183  2.0124  3.2246  1.1826
23676SOL     OW81341   2.453   8.954   5.440  0.3705 -0.1747  0.5382
23676SOL    HW181342   2.492   9.039   5.420  0.4698 -0.2242  0.5187
23676SOL    HW281343   2.380   8.945   5.379  0.3874 -0.1224  0.5110
23677SOL     OW81344   2.525   9.261   7.686  0.0977 -0.1914 -0.3178
23677SOL    HW181345   2.574   9.339   7.659  1.1331 -0.1063  1.6277
23677SOL    HW281346   2.457   9.295   7.745  0.4572 -0.7293  0.4188
23678SOL     OW81347   8.696   3.677   3.354 -0.0606  0.3686  0.0153
23678SOL    HW181348   8.657   3.595   3.383  1.3321  0.1660  1.4532
23678SOL    HW281349   8.780   3.652   3.315  1.2521  1.1740  2.1469
23679SOL     OW81350   6.083   2.530   7.838 -0.1110  0.0400  0.1532
23679SOL    HW181351   6.095   2.551   7.745  1.1361  1.2065  0.5392
23679SOL    HW281352   6.164   2.560   7.880  1.2751 -4.2776  1.0481
23680SOL     OW81353  11.443   0.366  10.823 -0.6428  0.0207 -0.5957
23680SOL    HW181354  11.423   0.307  10.750 -0.5725  0.9798 -1.4138
23680SOL    HW281355  11.373   0.431  10.822 -0.0995  0.6228 -0.4489
23681SOL     OW81356   9.136   1.603  10.879  0.4357  0.4409 -0.1247
23681SOL    HW181357   9.195   1.596  10.954 -0.3619 -0.2840  0.4553
23681SOL    HW281358   9.091   1.519  10.876 -0.4166  0.9054 -0.6699
23682SOL     OW81359   1.280   1.993  12.918  0.1555 -0.8172 -0.1160
23682SOL    HW181360   1.232   2.006  13.000 -1.5834 -2.4924 -0.7812
23682SOL    HW281361   1.332   1.915  12.933  2.1236  0.5175  0.3113
23683SOL     OW81362   4.538  11.081  12.143 -0.0168  0.3927  0.1893
23683SOL    HW181363   4.528  11.162  12.193 -1.1503 -0.6140  1.7031
23683SOL    HW281364   4.458  11.074  12.091 -0.6631 -0.4813  1.2502
23684SOL     OW81365   6.182   8.665   8.628  0.2191  0.0686 -0.2137
23684SOL    HW181366   6.239   8.599   8.589  1.0912  0.7005 -0.0255
23684SOL    HW281367   6.236   8.743   8.634 -0.0242  0.1183  1.8521
23685SOL     OW81368   6.355  12.016   5.181  0.2267  0.1925 -0.0529
23685SOL    HW181369   6.336  12.077   5.253  0.8370 -0.1305  0.3942
23685SOL    HW281370   6.269  11.993   5.147 -0.1451 -0.2956  1.1347
23686SOL     OW81371   6.794   3.855   4.116 -0.5830  0.4439  0.2830
23686SOL    HW181372   6.848   3.930   4.140 -1.8859  1.7784 -0.7461
23686SOL    HW281373   6.847   3.805   4.054 -0.2397  1.3440 -0.1697
23687SOL     OW81374   9.599   0.990   4.485 -0.2138  0.0927 -0.6854
23687SOL    HW181375   9.661   1.004   4.414 -0.6736 -1.8484 -1.5382
23687SOL    HW281376   9.601   0.896   4.501 -0.8485  0.3507  1.2367
23688SOL     OW81377   5.982   4.089   2.601 -0.1412 -0.1472 -0.1154
23688SOL    HW181378   6.058   4.136   2.566  1.1526 -1.0491  1.3919
23688SOL    HW281379   5.978   4.115   2.693 -0.4074 -1.6631  0.3255
23689SOL     OW81380  12.983   5.549  10.290  0.1374 -0.1222  0.7931
23689SOL    HW181381  13.016   5.466  10.323 -0.3651 -0.5760  0.1820
23689SOL    HW281382  13.043   5.615  10.325  0.6944 -0.7658  1.0631
23690SOL     OW81383  12.660   2.223   4.095  0.3665 -0.8138 -0.1242
23690SOL    HW181384  12.726   2.201   4.029  0.6202 -0.4025 -0.0114
23690SOL    HW281385  12.675   2.316   4.113 -1.0359 -0.3977 -0.9798
23691SOL     OW81386  12.972   7.588   5.788  0.3157  0.1606  0.1388
23691SOL    HW181387  13.008   7.676   5.785  1.4526 -0.2541 -3.2853
23691SOL    HW281388  12.894   7.592   5.733  0.7267 -1.0370 -0.5762
23692SOL     OW81389   8.049   7.010   2.678  0.3025  0.6077 -0.0517
23692SOL    HW181390   7.963   7.044   2.656 -0.1443 -0.4822 -0.0479
23692SOL    HW281391   8.071   7.050   2.762 -0.0897  1.0747 -0.1711
23693SOL     OW81392   1.751   9.425   6.572 -0.3353  0.5127  0.4574
23693SOL    HW181393   1.808   9.465   6.507 -0.4678  0.3490  0.2375
23693SOL    HW281394   1.776   9.465   6.655  1.4754 -0.9816  0.6988
23694SOL     OW81395   7.776   7.703   2.520  0.6190 -0.0952  0.1085
23694SOL    HW181396   7.759   7.610   2.536  0.0971  0.0416  0.3933
23694SOL    HW281397   7.751   7.716   2.429 -1.2930  0.1765  0.6103
23695SOL     OW81398   7.908   4.368   0.134  0.8465  0.4092 -0.1925
23695SOL    HW181399   7.913   4.460   0.160 -0.2600  0.2256  0.7813
23695SOL    HW281400   7.872   4.371   0.045  0.5601  0.9108 -0.0680
23696SOL     OW81401   4.455   1.296   6.072 -0.1202  0.5058  0.0796
23696SOL    HW181402   4.380   1.236   6.066  1.0712 -1.0224  0.0832
23696SOL    HW281403   4.531   1.239   6.077  0.9972  2.0176  1.0767
23697SOL     OW81404   5.688  11.821  11.897  0.3824  0.5284  0.4231
23697SOL    HW181405   5.673  11.766  11.974  1.7465 -0.8556 -0.2442
23697SOL    HW281406   5.682  11.910  11.930  1.3586 -0.0247  2.2367
23698SOL     OW81407   8.388   1.026   8.047  0.8384  0.4297 -0.4900
23698SOL    HW181408   8.370   1.007   7.955 -1.7939 -2.5587  0.4458
23698SOL    HW281409   8.450   0.958   8.074  0.2685  0.1832  0.2669
23699SOL     OW81410   0.626  10.708  11.446 -0.0260  0.5613 -0.5267
23699SOL    HW181411   0.568  10.683  11.373 -0.0051  0.6356 -0.5690
23699SOL    HW281412   0.612  10.802  11.457  0.1976  0.6088 -0.6345
23700SOL     OW81413   1.030   1.177   4.459  0.5315 -0.4383 -0.4652
23700SOL    HW181414   1.004   1.226   4.381  2.1549  2.0097  0.4046
23700SOL    HW281415   0.947   1.146   4.496 -0.4288  0.1307 -2.0269
23701SOL     OW81416   4.011   7.268   5.102 -0.0265  0.3693 -0.7457
23701SOL    HW181417   4.094   7.297   5.067  0.5974  0.4859  0.7380
23701SOL    HW281418   3.992   7.186   5.056  0.6250  0.6224 -1.4772
23702SOL     OW81419   6.460   1.021   9.755 -0.3338 -0.9212  0.6847
23702SOL    HW181420   6.419   1.092   9.804  0.4166 -1.5609  2.2811
23702SOL    HW281421   6.446   0.943   9.809  0.4774 -1.6656 -0.1444
23703SOL     OW81422   6.405   8.840   6.409  0.7418  0.3284 -0.2786
23703SOL    HW181423   6.346   8.795   6.469  3.0931 -0.0057  1.9483
23703SOL    HW281424   6.402   8.788   6.329  0.3769 -1.5168  0.8700
23704SOL     OW81425   0.595   7.967  10.363 -0.4323  0.4102  0.4135
23704SOL    HW181426   0.613   8.059  10.381 -1.7113  0.4380  1.7262
23704SOL    HW281427   0.599   7.925  10.448 -0.0240 -0.7373 -0.1556
23705SOL     OW81428   8.299   0.801   2.936  0.2232 -0.4721  0.2012
23705SOL    HW181429   8.205   0.782   2.938  0.0852  0.2296  1.2864
23705SOL    HW281430   8.309   0.874   2.997  1.1027  1.1274 -1.7365
23706SOL     OW81431   2.649   4.542   1.697  0.2137 -0.0013 -0.5143
23706SOL    HW181432   2.709   4.514   1.628  0.0627 -3.8577  0.6886
23706SOL    HW281433   2.703   4.548   1.776 -0.6331 -2.7235  0.4082
23707SOL     OW81434   4.950   1.832   2.672 -0.6479 -0.1530  0.3104
23707SOL    HW181435   5.009   1.765   2.637 -0.2291 -0.9625  2.4189
23707SOL    HW281436   4.866   1.787   2.682 -0.2570 -0.5466  2.1349
23708SOL     OW81437  12.099   1.065   3.266 -0.6406 -0.3280  0.1032
23708SOL    HW181438  12.058   1.035   3.347 -1.3241 -0.3595 -0.2445
23708SOL    HW281439  12.161   0.995   3.244 -1.1306 -0.7743  0.1060
23709SOL     OW81440   3.263   4.023   5.954 -0.3670 -0.1920  0.0017
23709SOL    HW181441   3.173   4.044   5.931  0.1825  2.9863  0.1863
23709SOL    HW281442   3.257   3.979   6.039 -1.7567  1.4491  0.8236
23710SOL     OW81443   0.175   1.539   1.440 -0.3384  0.0491  0.3722
23710SOL    HW181444   0.089   1.556   1.401 -0.5480 -0.1042  0.7679
23710SOL    HW281445   0.161   1.550   1.534 -0.1185 -0.7762  0.5094
23711SOL     OW81446   1.118   9.556   8.273  0.2108 -0.4460  0.5624
23711SOL    HW181447   1.186   9.512   8.324  0.9359 -1.2589 -1.0483
23711SOL    HW281448   1.159   9.637   8.242  0.7403 -1.2958 -1.0409
23712SOL     OW81449   4.954   8.995   0.908  0.0544 -0.0596 -0.4268
23712SOL    HW181450   4.964   8.966   0.998 -0.3946  1.6991  0.2193
23712SOL    HW281451   5.041   8.984   0.869 -0.4154 -3.8705 -0.8072
23713SOL     OW81452   7.619   7.767   3.479  0.5496 -0.3390  0.2296
23713SOL    HW181453   7.672   7.689   3.463  1.6182  0.2637  0.7457
23713SOL    HW281454   7.571   7.747   3.560  0.6078 -0.5713  0.2079
23714SOL     OW81455   2.574   0.636   9.178 -1.0225  0.0028  0.1216
23714SOL    HW181456   2.555   0.699   9.248 -0.9859 -0.7845  0.8445
23714SOL    HW281457   2.619   0.564   9.221  2.9751  1.3632 -1.3474
23715SOL     OW81458   8.805  10.947   9.445 -0.0441  0.1034  0.0139
23715SOL    HW181459   8.849  10.876   9.490 -0.9158 -0.1410  0.5128
23715SOL    HW281460   8.730  10.968   9.501 -1.0905 -0.1215 -1.2490
23716SOL     OW81461   0.163   5.391   3.601 -0.0701  0.3941 -0.0375
23716SOL    HW181462   0.136   5.372   3.691  1.1210  0.8259  0.4295
23716SOL    HW281463   0.256   5.409   3.607  0.4728 -1.4912 -1.6503
23717SOL     OW81464   5.632   7.998   9.114  0.5066 -0.1260  0.3742
23717SOL    HW181465   5.559   8.024   9.170  1.8444  0.3407  1.9868
23717SOL    HW281466   5.596   7.997   9.026 -1.1216  1.3180  0.9745
23718SOL     OW81467   7.184   3.634   9.476  0.2348  0.1506 -0.5117
23718SOL    HW181468   7.278   3.615   9.481  0.3918  0.7253 -1.1385
23718SOL    HW281469   7.174   3.684   9.395 -0.9054 -1.5493 -1.4531
23719SOL     OW81470   2.667   3.320   3.909 -0.2760 -0.1854  0.3853
23719SOL    HW181471   2.585   3.276   3.932 -0.5804  0.2328  0.1094
23719SOL    HW281472   2.687   3.375   3.985 -0.1632 -0.4105  0.5198
23720SOL     OW81473   0.286  10.899  11.850  0.0539 -0.0206 -0.4960
23720SOL    HW181474   0.291  10.926  11.941  2.7591 -3.1896  0.5149
23720SOL    HW281475   0.355  10.950  11.806  1.2825 -1.0709  0.1368
23721SOL     OW81476   0.932   6.960  12.501  0.2928  0.1977 -0.0415
23721SOL    HW181477   0.849   7.008  12.502 -0.8475 -1.6523  1.2905
23721SOL    HW281478   0.968   6.973  12.588  0.3409 -0.7178  0.0833
23722SOL     OW81479   4.671   8.006   7.572 -0.0663 -0.4778 -0.4612
23722SOL    HW181480   4.669   7.915   7.542 -0.6347 -0.9267  0.8812
23722SOL    HW281481   4.761   8.019   7.602  0.2842 -0.2739 -1.5348
23723SOL     OW81482   1.897  10.180   1.324  0.3038 -0.5509 -0.0043
23723SOL    HW181483   1.847  10.170   1.405 -2.5424  0.5168 -1.4874
23723SOL    HW281484   1.963  10.247   1.343 -1.0935  0.5577  1.1146
23724SOL     OW81485   2.260  11.750  12.226 -0.0639 -0.3175 -0.4697
23724SOL    HW181486   2.335  11.758  12.286 -0.2737 -0.5571 -0.1735
23724SOL    HW281487   2.300  11.736  12.140  0.2582  1.2094 -0.5827
23725SOL     OW81488   3.126  10.329   7.181 -0.2219 -0.0331  0.2856
23725SOL    HW181489   3.151  10.390   7.251 -1.2900  0.9699 -0.1883
23725SOL    HW281490   3.171  10.247   7.204 -0.2873  0.3632  1.9658
23726SOL     OW81491   3.141   7.043   6.928  0.5262 -0.0306 -0.4780
23726SOL    HW181492   3.072   7.069   6.988 -0.0957  1.3280 -1.7088
23726SOL    HW281493   3.218   7.028   6.983 -0.7149 -1.6192  0.9284
23727SOL     OW81494  12.449   4.823   6.911 -0.0290 -0.1901 -0.0595
23727SOL    HW181495  12.475   4.835   6.820 -2.4947 -0.8418 -0.9422
23727SOL    HW281496  12.460   4.909   6.951  3.0773 -0.3546 -0.3214
23728SOL     OW81497   2.763  12.929  12.349  0.4220  0.0992  0.0153
23728SOL    HW181498   2.819  12.968  12.283 -0.2357  0.0656 -0.5798
23728SOL    HW281499   2.818  12.864  12.393  0.5408 -0.7287 -1.3067
23729SOL     OW81500   8.753   2.136   2.106 -0.6946 -0.4743 -0.2201
23729SOL    HW181501   8.845   2.158   2.122 -1.2684  1.3611  0.8783
23729SOL    HW281502   8.749   2.120   2.012  0.1747  2.8499 -0.9481
23730SOL     OW81503   0.040   3.285   1.162  0.1822 -0.1292  0.1156
23730SOL    HW181504   0.028   3.231   1.240 -0.5568 -0.5428 -0.2747
23730SOL    HW281505   0.101   3.235   1.108 -2.4260 -1.9186 -1.4031
23731SOL     OW81506   5.961   8.519   1.803  0.0123  0.3218 -0.4292
23731SOL    HW181507   5.927   8.441   1.759 -0.9531 -0.8709  2.2438
23731SOL    HW281508   6.054   8.500   1.817  0.1590  0.4028 -1.2268
23732SOL     OW81509   8.393   0.028   1.212 -0.0354 -0.3076  0.3518
23732SOL    HW181510   8.437   0.110   1.190  0.3528  0.1777  2.6359
23732SOL    HW281511   8.411  -0.030   1.138  2.6292  0.5684  0.2054
23733SOL     OW81512   6.505  10.005   1.767 -0.3012 -0.1112  0.1611
23733SOL    HW181513   6.415  10.033   1.748  0.0025 -0.7490 -2.7751
23733SOL    HW281514   6.551  10.016   1.684  1.5650 -2.6918  0.7352
23734SOL     OW81515   1.511   8.834   4.614 -0.4707 -0.1756 -0.0696
23734SOL    HW181516   1.474   8.784   4.541  0.2498 -0.0982 -0.4925
23734SOL    HW281517   1.454   8.911   4.621 -0.9321 -0.5098 -0.1254
23735SOL     OW81518  11.009  11.822   9.143  0.0058  0.0702  0.5609
23735SOL    HW181519  11.026  11.904   9.095  1.2946 -0.1764  0.5542
23735SOL    HW281520  10.945  11.846   9.209 -0.7309  0.7516 -0.3703
23736SOL     OW81521  12.659   1.915   0.747  0.1985 -0.2273  0.4551
23736SOL    HW181522  12.730   1.898   0.684 -1.2256 -0.4978 -1.1633
23736SOL    HW281523  12.636   2.006   0.733 -0.5869 -0.4774  0.0798
23737SOL     OW81524   6.115   0.821   1.434  0.3656 -0.0636 -0.1204
23737SOL    HW181525   6.174   0.799   1.363 -0.7314 -1.9864 -0.5117
23737SOL    HW281526   6.051   0.882   1.395  1.7687  1.7089  0.2084
23738SOL     OW81527   8.476  10.203   5.825 -0.7751 -0.0389  0.3854
23738SOL    HW181528   8.404  10.149   5.792 -0.1339 -0.0607 -1.0698
23738SOL    HW281529   8.509  10.249   5.748  0.9352 -0.2211  0.9569
23739SOL     OW81530   6.348   6.077   7.276 -0.2289 -0.3998 -0.8850
23739SOL    HW181531   6.298   6.122   7.207 -0.4644  1.0376  0.1819
23739SOL    HW281532   6.305   6.103   7.357  1.9638  0.5633  0.0519
23740SOL     OW81533   2.618   5.010   7.984  0.0194  0.5554 -0.0377
23740SOL    HW181534   2.533   4.984   8.019 -0.2048 -1.0754 -1.6585
23740SOL    HW281535   2.673   4.932   7.995  0.1074  0.1611 -2.6556
23741SOL     OW81536   3.447  10.693   3.008  0.6376 -0.9287 -0.4001
23741SOL    HW181537   3.355  10.696   2.984 -0.0401  2.8429  1.7502
23741SOL    HW281538   3.452  10.628   3.078 -0.6276 -0.5128  0.1034
23742SOL     OW81539   3.469  11.453  12.088 -0.2007  0.3951  0.4075
23742SOL    HW181540   3.383  11.494  12.083  0.5457  2.0779  0.5667
23742SOL    HW281541   3.497  11.445  11.997 -1.0983 -1.5705  0.2396
23743SOL     OW81542  12.953   5.234   6.775 -0.0613 -0.1356 -0.0031
23743SOL    HW181543  12.884   5.277   6.725 -1.8612  0.9196  3.1363
23743SOL    HW281544  12.930   5.141   6.772  0.2813 -0.1922 -1.6472
23744SOL     OW81545  10.503  12.291   6.632  0.3210 -0.2230  0.4808
23744SOL    HW181546  10.590  12.323   6.607  0.1968  0.3883  0.8201
23744SOL    HW281547  10.517  12.197   6.648  0.8193 -0.2213  0.0839
23745SOL     OW81548   0.105   3.498  11.343  0.0565  0.3726  0.2461
23745SOL    HW181549   0.194   3.484  11.310 -0.3182  0.7111 -0.9561
23745SOL    HW281550   0.057   3.420  11.315 -0.1031  0.3383  0.6144
23746SOL     OW81551   6.255   8.487   3.028 -0.2618  0.0111 -0.0425
23746SOL    HW181552   6.225   8.487   2.937  1.6857  0.2666 -0.7308
23746SOL    HW281553   6.274   8.578   3.047 -2.3770  0.2329  1.2828
23747SOL     OW81554   0.851   8.489   2.364 -0.8497 -0.1723  0.0211
23747SOL    HW181555   0.786   8.509   2.297 -0.4313 -1.1842 -0.7070
23747SOL    HW281556   0.809   8.422   2.418  0.1526 -2.0698 -1.4392
23748SOL     OW81557  10.331  10.223   7.134  0.2653  0.0774 -0.6041
23748SOL    HW181558  10.424  10.219   7.113  0.2501  0.8717 -0.8588
23748SOL    HW281559  10.301  10.304   7.092 -0.7259 -0.6210 -1.2990
23749SOL     OW81560   7.238   0.602   9.683 -0.1071 -0.2521 -0.1462
23749SOL    HW181561   7.268   0.526   9.635 -0.8743 -0.0051 -1.0471
23749SOL    HW281562   7.260   0.583   9.775  0.4697 -1.1656 -0.4640
23750SOL     OW81563   0.456   0.410   0.138  0.2136  0.6634  0.1130
23750SOL    HW181564   0.432   0.491   0.183 -2.9925 -0.2208  0.2383
23750SOL    HW281565   0.476   0.438   0.049  0.1035  1.6970  0.3914
23751SOL     OW81566   1.240   8.691   1.271  0.3106  0.5117  0.2126
23751SOL    HW181567   1.222   8.686   1.177  0.4928  1.1364  0.1397
23751SOL    HW281568   1.242   8.600   1.300 -0.0810  0.3250 -0.3257
23752SOL     OW81569   6.019   8.544   2.518  0.0987 -0.3865 -0.1204
23752SOL    HW181570   5.994   8.596   2.442 -1.8583  0.1388  0.8256
23752SOL    HW281571   6.002   8.454   2.491 -0.2667 -0.2326 -0.4232
23753SOL     OW81572  11.413   1.275   9.254  0.1376 -0.5452  0.1401
23753SOL    HW181573  11.402   1.270   9.159  1.4761 -0.2112 -0.0508
23753SOL    HW281574  11.421   1.185   9.283 -1.6100 -0.7461  0.1447
23754SOL     OW81575   4.538   0.878  11.032  0.1320 -0.5679  0.3457
23754SOL    HW181576   4.560   0.917  11.117  0.7865 -1.0764  0.4197
23754SOL    HW281577   4.582   0.793  11.033 -1.9192 -1.6908  0.5188
23755SOL     OW81578   4.264   1.479   0.068 -0.3555 -0.2889 -0.6365
23755SOL    HW181579   4.330   1.494   0.000  1.2254  0.3769  0.9793
23755SOL    HW281580   4.271   1.554   0.126 -2.4550 -0.2923 -0.3101
23756SOL     OW81581   0.968   4.507  12.981 -0.1346 -0.4938  0.3050
23756SOL    HW181582   0.978   4.579  12.918 -1.0319  0.0878  0.7958
23756SOL    HW281583   0.959   4.429  12.927  3.3217 -0.6479 -0.2267
23757SOL     OW81584   1.282   0.407  12.372  0.3150 -0.2341 -0.4344
23757SOL    HW181585   1.350   0.472  12.390  0.9421 -0.9622 -0.1120
23757SOL    HW281586   1.330   0.330  12.342 -0.4610 -0.3400 -1.4480
23758SOL     OW81587   6.488   1.872   6.632 -0.6594 -0.1635  0.3551
23758SOL    HW181588   6.466   1.891   6.541  0.1941  3.4830  0.7543
23758SOL    HW281589   6.408   1.888   6.680 -0.1751  1.7270  0.5922
23759SOL     OW81590  11.652  12.767   6.175 -0.0956 -0.3896 -0.2732
23759SOL    HW181591  11.628  12.767   6.083  0.5518 -0.9391 -0.4486
23759SOL    HW281592  11.651  12.674   6.200 -2.6210 -0.1350  0.9081
23760SOL     OW81593  12.185   7.929  10.683  0.1308 -0.3350  1.0089
23760SOL    HW181594  12.209   7.927  10.776  0.4229  0.6388  0.9632
23760SOL    HW281595  12.223   7.848  10.648  1.0922 -0.1095  1.4902
23761SOL     OW81596   6.092   8.511  11.651 -0.0495  0.7606  0.2552
23761SOL    HW181597   6.075   8.418  11.633  1.3895  0.2309  1.4797
23761SOL    HW281598   6.043   8.529  11.731 -2.3480  1.7850 -1.2578
23762SOL     OW81599   3.612   0.403   6.457  0.2364 -0.1511  0.2043
23762SOL    HW181600   3.582   0.485   6.417 -0.4447 -0.6385 -0.3141
23762SOL    HW281601   3.685   0.375   6.401 -0.1581 -0.3856 -0.2082
23763SOL     OW81602   5.296   3.726   1.848  0.4931 -0.0726  0.0416
23763SOL    HW181603   5.274   3.648   1.899  1.1577 -0.9119 -0.9251
23763SOL    HW281604   5.384   3.709   1.814  1.1643  1.6298  0.8044
23764SOL     OW81605   6.786   1.552   8.047  0.3873 -0.0975 -0.1804
23764SOL    HW181606   6.812   1.629   7.996  0.3739  0.0379  0.0116
23764SOL    HW281607   6.693   1.543   8.032 -0.0700  1.2131  1.4500
23765SOL     OW81608   0.443   2.051   5.570 -0.0690  0.0056 -0.5854
23765SOL    HW181609   0.466   2.098   5.490  1.3111 -2.1363 -1.5317
23765SOL    HW281610   0.526   2.014   5.600 -1.0797 -1.8742  0.0438
23766SOL     OW81611   1.036   5.218  12.194  0.1368  0.3804  0.6157
23766SOL    HW181612   1.120   5.253  12.165 -0.9163  2.3300 -0.2809
23766SOL    HW281613   0.971   5.278  12.158 -1.6904 -1.2704  0.9581
23767SOL     OW81614   7.627   8.511  11.079 -0.0460 -0.0523  0.7809
23767SOL    HW181615   7.622   8.597  11.039  2.6003 -1.2173 -2.4969
23767SOL    HW281616   7.721   8.496  11.093 -0.5417 -1.7674  2.9470
23768SOL     OW81617   8.917  12.138  11.862 -0.1639  0.2288 -0.4598
23768SOL    HW181618   8.968  12.217  11.877 -0.0651 -0.2297  1.9138
23768SOL    HW281619   8.972  12.084  11.805  1.1589  0.5649  0.4537
23769SOL     OW81620  11.682   1.344   3.345  0.5726 -0.3917  0.4610
23769SOL    HW181621  11.601   1.312   3.384  0.0045 -0.2633 -0.5800
23769SOL    HW281622  11.714   1.410   3.407  1.1637 -2.0949  2.0641
23770SOL     OW81623   4.900   6.324   4.362  0.0296  0.2005 -0.6881
23770SOL    HW181624   4.982   6.369   4.383 -0.4434  1.3193 -1.1712
23770SOL    HW281625   4.915   6.288   4.274 -0.4210  1.4739 -1.2991
23771SOL     OW81626  11.983   1.681   1.549  0.0134 -0.4250  0.0870
23771SOL    HW181627  12.060   1.628   1.528 -0.4063 -1.5108  1.1668
23771SOL    HW281628  11.928   1.624   1.602 -1.4969  0.3804 -0.5535
23772SOL     OW81629   9.146   1.544  10.000 -0.4106 -0.7423  0.2060
23772SOL    HW181630   9.071   1.514   9.948 -0.0723 -0.0056 -0.7255
23772SOL    HW281631   9.166   1.469  10.057 -1.2028 -1.3249 -0.2479
23773SOL     OW81632   5.973   0.046   6.843  0.0719 -0.4314 -0.5115
23773SOL    HW181633   5.974  -0.022   6.911 -0.0100 -0.0845 -0.1586
23773SOL    HW281634   5.912   0.112   6.876  0.4696  0.0135 -0.6565
23774SOL     OW81635  11.665   4.727   5.222 -0.3899 -0.1782  0.0216
23774SOL    HW181636  11.684   4.641   5.259  0.3041 -1.2138 -2.5468
23774SOL    HW281637  11.726   4.786   5.266  1.4156 -1.6013 -0.4431
23775SOL     OW81638   9.431  10.982   4.179  0.0600 -0.7386 -0.5839
23775SOL    HW181639   9.410  11.034   4.101 -1.0372  1.9977  1.4040
23775SOL    HW281640   9.348  10.974   4.226  1.2016  0.4841  1.8428
23776SOL     OW81641  12.125  11.341   3.704 -0.3804 -0.0698 -0.2468
23776SOL    HW181642  12.089  11.368   3.619  0.0848  0.3482 -0.3171
23776SOL    HW281643  12.068  11.271   3.733 -2.1882  1.5663  0.3547
23777SOL     OW81644   2.724   3.674   3.987 -0.5036  0.7900 -0.0865
23777SOL    HW181645   2.725   3.588   4.030 -0.1309  0.5809 -0.4993
23777SOL    HW281646   2.684   3.732   4.051 -0.3582  0.3935  0.3758
23778SOL     OW81647   7.177   0.925   5.033 -0.1831  0.4788  0.5955
23778SOL    HW181648   7.082   0.934   5.026 -0.3789 -1.5110  0.0878
23778SOL    HW281649   7.200   0.859   4.968  1.7735  1.9636 -0.3147
23779SOL     OW81650   2.660   1.396   7.528 -0.3207  0.1491 -0.2406
23779SOL    HW181651   2.669   1.407   7.434 -1.8939  1.9418 -0.2304
23779SOL    HW281652   2.740   1.435   7.564  0.0165 -0.0254 -0.7946
23780SOL     OW81653   4.672   0.435  11.363  0.0748  0.1704 -0.3394
23780SOL    HW181654   4.766   0.437  11.345 -0.0885 -0.7535 -1.4524
23780SOL    HW281655   4.637   0.375  11.297 -1.3261  0.6465 -0.0545
23781SOL     OW81656   6.024   1.840  10.706  0.8299 -0.5032 -0.1342
23781SOL    HW181657   6.051   1.879  10.789 -1.4152 -0.2064  0.5383
23781SOL    HW281658   5.990   1.754  10.731  1.2503 -0.9010 -0.9189
23782SOL     OW81659   4.453   1.566   3.438  0.4751  0.2346 -0.4721
23782SOL    HW181660   4.367   1.576   3.479  1.3376  3.3092  0.9098
23782SOL    HW281661   4.505   1.518   3.502  0.6963  1.4448  0.2846
23783SOL     OW81662   3.934   7.750   1.199  0.7598  0.1993  0.0584
23783SOL    HW181663   3.878   7.740   1.122  0.1966  1.5717  0.2615
23783SOL    HW281664   3.917   7.671   1.251 -0.7184  0.4017 -0.0690
23784SOL     OW81665   4.678   5.546   1.423  0.0746  0.2804  0.4797
23784SOL    HW181666   4.636   5.627   1.394  2.3170  0.4730 -2.7041
23784SOL    HW281667   4.637   5.477   1.371  1.5136  0.1002 -0.4878
23785SOL     OW81668   3.482   2.040  10.017 -0.3345 -0.2855 -0.0178
23785SOL    HW181669   3.572   2.023  10.046  0.4128 -0.3655 -2.1906
23785SOL    HW281670   3.463   1.969   9.957 -0.5378  1.5568 -2.2626
23786SOL     OW81671  11.034   7.297   5.671 -0.1489 -0.3264  0.2824
23786SOL    HW181672  10.989   7.341   5.743  2.6813  1.4464  1.1400
23786SOL    HW281673  11.093   7.235   5.714  1.7635  0.9257 -0.3862
23787SOL     OW81674   9.679   2.419   0.065 -0.2303 -0.1802 -0.5386
23787SOL    HW181675   9.703   2.480  -0.004 -0.7672  0.1447 -0.4433
23787SOL    HW281676   9.736   2.441   0.139 -1.7290  1.5414  0.1860
23788SOL     OW81677   9.354  10.057   8.054 -0.0790 -0.0401  0.7263
23788SOL    HW181678   9.284  10.008   8.011 -0.0637 -0.0465  0.7086
23788SOL    HW281679   9.400  10.101   7.982  1.3456 -1.8104  0.4890
23789SOL     OW81680   8.268  10.758   0.540 -0.0193 -0.3060  0.3295
23789SOL    HW181681   8.219  10.677   0.530  1.4772 -1.3520  0.9362
23789SOL    HW281682   8.317  10.746   0.622  1.4264  0.5382 -0.3652
23790SOL     OW81683  10.444   3.113   5.150 -0.1363 -0.0019  0.0372
23790SOL    HW181684  10.468   3.096   5.059  1.4091  2.4304 -0.1073
23790SOL    HW281685  10.507   3.180   5.179 -2.4830  1.5400  1.9471
23791SOL     OW81686   3.959   3.812   1.545 -0.4460 -0.2112  0.3431
23791SOL    HW181687   3.952   3.869   1.469 -0.1147  0.6990  0.9753
23791SOL    HW281688   3.871   3.810   1.582 -0.3108  0.4568  0.7118
23792SOL     OW81689  10.927  12.560   6.162 -0.1534 -0.1753 -0.1726
23792SOL    HW181690  10.961  12.642   6.197  2.7715 -1.7352  1.0378
23792SOL    HW281691  10.879  12.585   6.082  1.5598  2.5674 -0.4644
23793SOL     OW81692   4.603  12.968   2.434  0.1380 -0.0558 -0.1319
23793SOL    HW181693   4.601  12.970   2.338  3.2998  0.4724 -0.2949
23793SOL    HW281694   4.611  12.875   2.455 -0.9841 -0.2108 -0.3179
23794SOL     OW81695   9.395  11.452   8.885  0.2131 -0.6183 -0.0548
23794SOL    HW181696   9.433  11.398   8.954  0.1327 -1.1405 -0.4157
23794SOL    HW281697   9.301  11.447   8.899  0.2516  0.9528  1.0480
23795SOL     OW81698  12.491   5.623   7.898 -0.1349  0.2994  0.3306
23795SOL    HW181699  12.511   5.552   7.837  0.5007  0.7568 -0.0020
23795SOL    HW281700  12.566   5.682   7.891 -0.0544  0.3613  1.5545
23796SOL     OW81701  12.579   3.191  11.265  0.0009 -0.0499 -0.5860
23796SOL    HW181702  12.488   3.183  11.296 -0.1032 -1.9221 -1.2332
23796SOL    HW281703  12.575   3.163  11.173  0.8240  2.3942 -1.4258
23797SOL     OW81704   7.673   3.922   6.449 -0.1933 -0.0794 -0.7875
23797SOL    HW181705   7.747   3.940   6.507 -2.1708  0.8553  1.6330
23797SOL    HW281706   7.699   3.843   6.402  0.9832 -1.8979  2.5346
23798SOL     OW81707  10.522   7.272   3.688 -0.0012  0.4304  0.1568
23798SOL    HW181708  10.547   7.316   3.769  1.0364 -0.5340  0.3809
23798SOL    HW281709  10.426   7.266   3.692  0.1268 -3.2238  3.3490
23799SOL     OW81710  11.503   6.528   0.970 -0.3836  0.6934 -0.0717
23799SOL    HW181711  11.499   6.502   1.062  0.2256 -0.4227 -0.3462
23799SOL    HW281712  11.484   6.447   0.921 -0.4583  1.2163 -0.9375
23800SOL     OW81713   0.247   0.399   1.468  0.4920  0.2651  0.0752
23800SOL    HW181714   0.229   0.493   1.476  0.3577  0.4941 -2.2072
23800SOL    HW281715   0.161   0.357   1.477  0.6439  0.2521  1.8270
23801SOL     OW81716   7.996  12.542  12.882  0.2132 -0.0474 -0.2461
23801SOL    HW181717   7.958  12.522  12.967 -0.0663  0.5519 -0.2286
23801SOL    HW281718   7.941  12.494  12.820 -0.5642  0.7648 -0.2162
23802SOL     OW81719   1.129   0.661   8.530 -0.4457  0.6656  0.2297
23802SOL    HW181720   1.114   0.597   8.599 -0.0367  0.7780  0.4277
23802SOL    HW281721   1.092   0.742   8.565 -0.4107  0.6789  0.2358
23803SOL     OW81722  12.019   3.930   3.650 -0.2961 -0.0716  0.6482
23803SOL    HW181723  12.106   3.893   3.663  0.2067  0.4240 -0.9497
23803SOL    HW281724  12.018   4.008   3.706  0.4673  0.1505  0.3777
23804SOL     OW81725   7.708   7.929   0.046 -0.0039  0.8052 -0.6471
23804SOL    HW181726   7.668   7.970  -0.030 -0.5760 -0.0280 -0.8081
23804SOL    HW281727   7.697   7.835   0.032  1.6133  0.5589 -0.4786
23805SOL     OW81728   2.950  11.996  11.169  0.1167 -0.2268 -0.4158
23805SOL    HW181729   2.980  11.978  11.080  1.3749 -0.8723  0.1126
23805SOL    HW281730   3.024  12.042  11.210  0.1782 -1.3152  0.7470
23806SOL     OW81731   0.454   5.904   0.981  0.2186 -0.0428  0.5008
23806SOL    HW181732   0.468   5.884   1.074  0.2345 -0.9807  0.3083
23806SOL    HW281733   0.372   5.859   0.959  0.0770  0.3933  0.1255
23807SOL     OW81734   1.358  12.057   9.998 -0.0049  0.0131 -0.5211
23807SOL    HW181735   1.415  12.004  10.054 -1.0353  0.1439  0.7046
23807SOL    HW281736   1.281  12.074  10.052 -0.6143  0.9860 -1.6513
23808SOL     OW81737  12.077   6.959   1.612 -0.7851  0.1420  0.2576
23808SOL    HW181738  11.982   6.966   1.604 -1.0953 -1.6908  1.6048
23808SOL    HW281739  12.104   6.908   1.535 -0.5431  2.3368 -1.2243
23809SOL     OW81740   7.977   6.533   8.666  0.5919 -0.3489 -0.3945
23809SOL    HW181741   8.005   6.620   8.638  0.8629 -0.6320 -1.0279
23809SOL    HW281742   7.916   6.549   8.737  0.6915  0.3572 -0.4598
23810SOL     OW81743  12.198   2.812   4.686  0.2877 -0.2272  0.0254
23810SOL    HW181744  12.134   2.773   4.626  0.9071  0.7883 -1.3470
23810SOL    HW281745  12.259   2.741   4.705 -0.8594 -1.0304  0.8331
23811SOL     OW81746   6.533   2.757   2.597  0.1989 -0.4551  0.1723
23811SOL    HW181747   6.534   2.690   2.529  0.4222 -1.5005  1.1813
23811SOL    HW281748   6.617   2.747   2.641 -0.3539 -0.4616  1.2473
23812SOL     OW81749   5.053  12.732   9.202 -0.1918 -0.1834  0.0995
23812SOL    HW181750   4.968  12.725   9.158  0.9558 -1.2696 -2.1651
23812SOL    HW281751   5.075  12.825   9.198 -0.9270 -0.0079  0.0125
23813SOL     OW81752   5.892   5.836   2.627 -0.2199  0.9221 -0.2050
23813SOL    HW181753   5.879   5.806   2.537 -0.7523  1.8578 -0.4514
23813SOL    HW281754   5.976   5.882   2.625 -0.1803  0.8485 -0.2039
23814SOL     OW81755  10.883   9.516   3.259 -0.0742  0.2471 -0.1873
23814SOL    HW181756  10.820   9.475   3.199  0.5090  0.9816 -1.3427
23814SOL    HW281757  10.968   9.504   3.216  0.4258  0.3556  0.7530
23815SOL     OW81758   8.742   9.842   1.200  0.2105 -0.0714  0.0899
23815SOL    HW181759   8.681   9.818   1.270 -0.0438 -0.3514 -0.2298
23815SOL    HW281760   8.708   9.798   1.122  1.2770 -0.9110  0.0803
23816SOL     OW81761  12.049   3.537   9.240 -0.7480  0.0556 -0.5054
23816SOL    HW181762  12.099   3.614   9.213 -0.6237 -0.6782 -2.5672
23816SOL    HW281763  12.114   3.479   9.280 -0.6127  0.4929 -0.0820
23817SOL     OW81764   2.126   8.292   2.478 -0.0447  0.6322 -0.2220
23817SOL    HW181765   2.059   8.246   2.427 -1.6230  0.4020  1.8879
23817SOL    HW281766   2.195   8.227   2.491 -0.0485  0.4095 -1.2537
23818SOL     OW81767   6.344   1.718   1.004 -0.1200 -0.1261 -0.4220
23818SOL    HW181768   6.281   1.667   0.952 -1.3216 -0.7130  1.5126
23818SOL    HW281769   6.427   1.672   0.993 -0.7663 -1.3754 -0.2814
23819SOL     OW81770  12.565   0.986   6.327 -0.4003 -0.0918  0.3293
23819SOL    HW181771  12.646   0.960   6.370 -0.4049 -0.1454  0.3053
23819SOL    HW281772  12.590   1.061   6.273 -0.5081  0.3102  0.8385
23820SOL     OW81773   0.684   9.287   1.833  0.7693 -0.5722 -0.0536
23820SOL    HW181774   0.647   9.230   1.901  0.6834 -1.5032 -0.8520
23820SOL    HW281775   0.707   9.368   1.879 -3.2013  0.5307  0.3134
23821SOL     OW81776  10.699  10.461   8.178 -0.7927  0.4564  0.0844
23821SOL    HW181777  10.759  10.454   8.104 -1.0370 -0.7212 -0.0199
23821SOL    HW281778  10.756  10.457   8.256 -0.6716  0.1680 -0.0207
23822SOL     OW81779   0.556   3.108  12.471 -0.0401  0.0765 -0.6037
23822SOL    HW181780   0.531   3.099  12.563  0.7522  0.1034 -0.3785
23822SOL    HW281781   0.524   3.027  12.431  1.7511 -1.0925  0.2064
23823SOL     OW81782   9.860   0.719   0.161  0.6273 -0.2065 -0.2017
23823SOL    HW181783   9.792   0.665   0.121  1.1868 -0.2343 -1.1387
23823SOL    HW281784   9.817   0.802   0.180  0.2083 -0.3917 -0.3313
23824SOL     OW81785   1.406   1.178   9.743  0.3181 -0.4663  0.0750
23824SOL    HW181786   1.482   1.156   9.797  1.9482 -0.8845 -2.2449
23824SOL    HW281787   1.384   1.097   9.697 -1.2856 -0.2348  0.3827
23825SOL     OW81788   0.531   8.099   7.648  0.4243 -0.3854 -0.2159
23825SOL    HW181789   0.509   8.163   7.715  1.4344  0.8885 -1.0572
23825SOL    HW281790   0.607   8.053   7.682  0.3167 -0.4441 -0.0543
23826SOL     OW81791   7.270   1.590   5.556  0.1003 -0.2110  0.1561
23826SOL    HW181792   7.221   1.528   5.502 -0.5498 -1.6058  2.2112
23826SOL    HW281793   7.261   1.556   5.645  4.9994 -0.7866  0.7344
23827SOL     OW81794   9.616   8.636   1.176 -0.0502 -0.3923  0.4992
23827SOL    HW181795   9.682   8.633   1.106 -0.2390 -1.6129  0.3557
23827SOL    HW281796   9.650   8.578   1.244 -0.1003  0.4221  1.2317
23828SOL     OW81797   0.988   2.192   9.956  0.3159  0.4166 -0.4447
23828SOL    HW181798   1.068   2.142   9.940  0.2533 -0.9526  2.7490
23828SOL    HW281799   1.002   2.275   9.910  3.6276  0.2896  0.0701
23829SOL     OW81800  10.057   2.191   6.438  0.3775 -0.0718 -0.0025
23829SOL    HW181801  10.007   2.262   6.399 -1.7526 -0.4694  1.7872
23829SOL    HW281802  10.142   2.195   6.395 -1.3642  0.1640 -3.8185
23830SOL     OW81803   5.684   7.450   7.133 -0.4053  0.1236  0.4195
23830SOL    HW181804   5.643   7.515   7.190  2.0395  1.3450  0.8855
23830SOL    HW281805   5.756   7.496   7.090  1.1188 -2.1238  0.3740
23831SOL     OW81806   5.571   6.000   2.280  0.0650 -0.7647 -0.2450
23831SOL    HW181807   5.611   5.967   2.200  2.1606 -0.7138  0.7148
23831SOL    HW281808   5.643   6.040   2.328 -1.5025  0.9714  0.8059
23832SOL     OW81809  10.001   9.515   6.188 -0.1713 -0.3897  0.5152
23832SOL    HW181810  10.053   9.595   6.183  1.4678 -1.3334  1.3830
23832SOL    HW281811   9.974   9.510   6.280 -1.0473 -0.3759  0.2661
23833SOL     OW81812   4.431  10.886   8.791 -0.0731 -0.4623 -0.0390
23833SOL    HW181813   4.520  10.883   8.757 -0.4532  0.4751 -1.1618
23833SOL    HW281814   4.390  10.960   8.747 -2.0792 -2.1515 -1.2079
23834SOL     OW81815   2.480   9.673   3.080 -0.3426 -0.0660  0.0980
23834SOL    HW181816   2.496   9.578   3.085 -0.1859  0.0154  1.6157
23834SOL    HW281817   2.454   9.688   2.989 -3.4619 -2.0516  0.4970
23835SOL     OW81818   6.320   3.695   7.481  0.0114 -0.0306 -0.1659
23835SOL    HW181819   6.381   3.768   7.473 -1.1814  0.8487 -1.4275
23835SOL    HW281820   6.364   3.622   7.437  0.9673  0.0327  0.6328
23836SOL     OW81821   5.079   7.240   1.946 -0.0974  0.0883  0.1622
23836SOL    HW181822   5.121   7.280   2.022  0.0094 -2.3985  1.5241
23836SOL    HW281823   5.151   7.217   1.888 -0.0531  0.7506 -0.0430
23837SOL     OW81824  10.081   0.146   1.223  0.2401 -0.0482 -0.4114
23837SOL    HW181825  10.162   0.193   1.205  0.0746  0.8208  0.9160
23837SOL    HW281826  10.052   0.180   1.308 -0.1451 -2.2401  0.3944
23838SOL     OW81827   0.982   5.653   3.675  0.4796 -0.4490  1.0170
23838SOL    HW181828   0.914   5.718   3.692  0.4806  0.4737 -1.9060
23838SOL    HW281829   1.064   5.702   3.678  0.5638 -0.4772 -0.1799
23839SOL     OW81830  10.499   8.140   1.374  0.9504 -0.6788 -0.1613
23839SOL    HW181831  10.572   8.079   1.385  2.4531  0.4588 -2.9555
23839SOL    HW281832  10.527   8.221   1.416 -0.1687 -1.1761  1.6714
23840SOL     OW81833   7.492   5.827   8.764  0.4118 -0.2047 -0.5352
23840SOL    HW181834   7.581   5.792   8.759  0.7126  0.3941  0.3930
23840SOL    HW281835   7.503   5.915   8.799 -0.6724 -0.8302  1.5956
23841SOL     OW81836   0.043  10.750   7.955 -0.3176 -0.7324 -0.5005
23841SOL    HW181837   0.138  10.732   7.952 -0.5768 -2.1031 -1.6550
23841SOL    HW281838   0.004  10.663   7.965 -1.4922 -0.2817 -1.0778
23842SOL     OW81839   4.350   7.148   9.731  0.6893 -0.6483  0.0157
23842SOL    HW181840   4.284   7.151   9.800  0.0318  1.0548 -0.6324
23842SOL    HW281841   4.433   7.163   9.776  0.4174 -0.8235  0.5809
23843SOL     OW81842  10.195  10.517   8.976  0.7271 -0.1095 -0.2916
23843SOL    HW181843  10.227  10.572   8.904 -0.0890 -0.2579 -0.7772
23843SOL    HW281844  10.252  10.539   9.050  0.8120  0.9304 -0.6508
23844SOL     OW81845   6.945   5.771  11.636 -0.1410  0.4810  0.1678
23844SOL    HW181846   6.902   5.773  11.550  1.4608  2.8417 -0.6833
23844SOL    HW281847   6.890   5.826  11.691 -0.2331  0.4041  0.1530
23845SOL     OW81848  11.922   0.252   4.396 -0.1796 -0.2223 -0.1453
23845SOL    HW181849  11.859   0.322   4.382  1.2053  1.1018 -0.0720
23845SOL    HW281850  11.872   0.171   4.387 -1.3062  0.6738 -3.0790
23846SOL     OW81851  10.835  12.794   7.481  0.1476  0.3191  0.4394
23846SOL    HW181852  10.750  12.750   7.485  0.7529 -0.8019  1.6121
23846SOL    HW281853  10.820  12.870   7.425 -1.4617 -0.2157  0.0962
23847SOL     OW81854   2.763  11.577  12.904 -0.2124  0.5040  0.2044
23847SOL    HW181855   2.726  11.661  12.931 -0.9967 -0.1481  1.2271
23847SOL    HW281856   2.802  11.541  12.984 -0.0759 -0.2024 -0.1702
23848SOL     OW81857   4.442   5.531   0.066 -0.4328 -0.1327 -0.6245
23848SOL    HW181858   4.517   5.590   0.071 -0.7985  0.4056 -1.2932
23848SOL    HW281859   4.423   5.524  -0.027 -0.6400 -1.0122 -0.5280
23849SOL     OW81860  10.998   6.549   5.623  0.0750  0.1381  1.0321
23849SOL    HW181861  11.058   6.482   5.592 -1.8550 -0.4236 -1.8240
23849SOL    HW281862  10.932   6.501   5.674 -1.3099 -0.2565 -1.0170
23850SOL     OW81863   6.423   0.454   2.543 -0.4713  0.4911 -0.1934
23850SOL    HW181864   6.454   0.410   2.622  0.1644  0.5781 -0.3957
23850SOL    HW281865   6.331   0.426   2.535 -0.2101 -0.4296 -0.0572
23851SOL     OW81866   8.067   5.378   6.595 -0.4707  0.1437 -0.3997
23851SOL    HW181867   8.063   5.450   6.658 -0.3182  0.2268 -0.4852
23851SOL    HW281868   8.060   5.421   6.510 -0.4207  0.0540 -0.4489
23852SOL     OW81869   7.248  12.960  10.392 -0.5386  0.6766  0.0373
23852SOL    HW181870   7.247  13.056  10.389  0.6709  0.6876 -0.4618
23852SOL    HW281871   7.340  12.937  10.378 -0.6240 -0.5246  1.2248
23853SOL     OW81872  12.909  11.556  11.690  0.0242  0.5046 -0.4817
23853SOL    HW181873  12.858  11.596  11.760 -1.4788  1.5993 -2.1250
23853SOL    HW281874  12.846  11.539  11.620  1.4130 -0.8082 -1.4966
23854SOL     OW81875   3.557   4.590   0.392  0.3179  0.2637  0.0264
23854SOL    HW181876   3.473   4.578   0.349  0.4655 -1.0516  0.0494
23854SOL    HW281877   3.554   4.531   0.467  1.4511 -0.1921 -0.2689
23855SOL     OW81878  12.727   7.937   9.575  0.2395 -0.3619 -0.4684
23855SOL    HW181879  12.664   7.996   9.535  0.5424  0.1621 -0.1889
23855SOL    HW281880  12.806   7.990   9.586  0.5606 -0.8585 -0.3410
23856SOL     OW81881   9.219   2.582   3.207 -0.1525 -0.6017 -0.2769
23856SOL    HW181882   9.234   2.496   3.247  3.0356 -0.4211 -0.8248
23856SOL    HW281883   9.232   2.568   3.113 -3.5068 -0.1914 -0.9550
23857SOL     OW81884   7.667  11.831   7.203 -0.1781  0.0495  0.1340
23857SOL    HW181885   7.712  11.747   7.202  1.4039  0.8435 -1.4257
23857SOL    HW281886   7.590  11.817   7.258  1.1840 -1.7946  1.7097
23858SOL     OW81887   9.685   2.210   4.583  0.0222 -0.7698  0.3613
23858SOL    HW181888   9.601   2.190   4.542  0.4762 -1.2265 -0.3486
23858SOL    HW281889   9.665   2.283   4.643 -0.6142  0.0290 -0.7826
23859SOL     OW81890   9.202   8.871   5.360 -0.2527 -0.1152  0.1543
23859SOL    HW181891   9.160   8.791   5.390 -1.2864  0.7581  1.1339
23859SOL    HW281892   9.293   8.863   5.388 -0.5910 -0.4877  1.1742
23860SOL     OW81893   5.346  10.255   1.738 -0.7367  0.1169 -0.0020
23860SOL    HW181894   5.295  10.325   1.778  0.4472  1.1535 -0.2689
23860SOL    HW281895   5.337  10.269   1.644 -2.0900 -1.2873 -0.1296
23861SOL     OW81896   2.540   4.112   6.730  0.5056  0.0935 -0.2120
23861SOL    HW181897   2.461   4.098   6.781  0.0979  0.6207 -0.6819
23861SOL    HW281898   2.513   4.098   6.639  1.3284 -1.3014 -0.2688
23862SOL     OW81899   8.719   2.793   1.768  0.2495  0.0706  0.2253
23862SOL    HW181900   8.678   2.748   1.694 -1.4790  0.7490  0.7199
23862SOL    HW281901   8.806   2.754   1.775 -0.5994 -2.0652 -0.3521
23863SOL     OW81902   5.134   9.073   9.532  0.2860  0.5008 -0.0994
23863SOL    HW181903   5.136   8.980   9.554 -0.6762  0.5384  0.2143
23863SOL    HW281904   5.121   9.075   9.437  0.4791  0.3201 -0.1296
23864SOL     OW81905   6.740   0.836  12.946 -0.1634  0.5454 -0.2254
23864SOL    HW181906   6.768   0.764  13.003 -1.3937 -0.5108 -0.9155
23864SOL    HW281907   6.821   0.867  12.905  0.9297  2.0410  2.7973
23865SOL     OW81908   8.433   9.724   6.285 -0.7829 -0.0829 -0.4032
23865SOL    HW181909   8.445   9.629   6.283 -1.4581 -0.2428  1.3178
23865SOL    HW281910   8.453   9.749   6.376 -0.9504  1.3726 -0.7321
23866SOL     OW81911   6.534   9.822  11.852 -0.5362  0.2371 -0.4197
23866SOL    HW181912   6.479   9.880  11.905 -1.2252 -0.4591 -0.3649
23866SOL    HW281913   6.523   9.853  11.762 -1.5267 -0.2999 -0.4897
23867SOL     OW81914   9.472   2.859   9.567 -0.4436 -0.7430 -0.2427
23867SOL    HW181915   9.522   2.928   9.524 -2.0990  0.1281 -0.8261
23867SOL    HW281916   9.456   2.794   9.498  0.7855 -1.5730  0.2135
23868SOL     OW81917   6.132  10.512   6.380  0.2364  0.4103  0.4810
23868SOL    HW181918   6.109  10.576   6.447  0.3664 -0.5900  1.5059
23868SOL    HW281919   6.225  10.493   6.396 -0.5990 -2.6272  2.5109
23869SOL     OW81920   5.179   5.319   9.089  0.4300 -0.0082 -0.0736
23869SOL    HW181921   5.261   5.367   9.098  0.0903  0.5327  0.2180
23869SOL    HW281922   5.116   5.372   9.138  0.1059 -0.8963  0.4731
23870SOL     OW81923  11.367   1.031   7.129  0.1792 -0.5212  0.0026
23870SOL    HW181924  11.327   1.052   7.044 -0.0246  1.1625  0.4894
23870SOL    HW281925  11.392   1.115   7.165  2.1596 -1.3691  0.7296
23871SOL     OW81926  12.906   2.109   5.070  0.2656  0.5171 -0.0929
23871SOL    HW181927  12.997   2.111   5.099 -0.4130 -1.2816  2.5630
23871SOL    HW281928  12.873   2.024   5.099 -2.2333  1.0298 -1.1246
23872SOL     OW81929   5.028   0.694   4.494  0.3950  0.1034 -0.0834
23872SOL    HW181930   5.084   0.636   4.546  1.5408  1.5254  0.3542
23872SOL    HW281931   4.945   0.697   4.541  0.4414 -0.8724  0.0835
23873SOL     OW81932  10.238  11.665   7.689 -0.0042 -0.1630 -0.4137
23873SOL    HW181933  10.170  11.663   7.622 -1.1134 -0.8728  0.7117
23873SOL    HW281934  10.315  11.701   7.643 -0.8986 -0.0522 -1.8921
23874SOL     OW81935   5.197  11.625   5.053 -0.0997  0.1197  0.3105
23874SOL    HW181936   5.115  11.646   5.008 -1.0335 -1.4404  1.1700
23874SOL    HW281937   5.252  11.585   4.986 -0.7262 -0.3923  0.0840
23875SOL     OW81938   1.010   4.380   7.895 -0.2273  0.1822  0.1607
23875SOL    HW181939   1.021   4.428   7.977 -0.4884 -0.5737  0.6496
23875SOL    HW281940   0.927   4.412   7.860 -0.1039  0.5261  0.1816
23876SOL     OW81941   6.391   2.134   9.087 -0.1966 -0.3199 -0.0194
23876SOL    HW181942   6.482   2.106   9.078  0.4896  0.9316  2.4279
23876SOL    HW281943   6.387   2.218   9.042 -0.3219 -0.6298 -0.6072
23877SOL     OW81944   1.811  11.804  10.621  0.0318  0.1483 -0.6372
23877SOL    HW181945   1.888  11.841  10.664 -0.3635  0.1604  0.0723
23877SOL    HW281946   1.825  11.820  10.528 -0.2597  2.3817 -0.3503
23878SOL     OW81947   4.381  11.967  12.248 -0.2776  0.0531  0.1967
23878SOL    HW181948   4.328  11.889  12.261 -1.2489  0.5179 -0.8292
23878SOL    HW281949   4.322  12.030  12.206  1.1428  0.4717 -1.3006
23879SOL     OW81950   7.239  11.553   3.949  0.0338 -0.2536  0.2061
23879SOL    HW181951   7.235  11.460   3.926 -1.5070 -0.1625  0.0180
23879SOL    HW281952   7.157  11.570   3.995 -0.8024  1.5082 -1.7771
23880SOL     OW81953   4.452   1.216  12.726  0.1976 -0.2689  0.5855
23880SOL    HW181954   4.432   1.134  12.770 -0.9069  0.1645  0.9294
23880SOL    HW281955   4.369   1.265  12.727  0.9677  1.0810  0.8850
23881SOL     OW81956   0.116   9.265  11.941  0.6897 -0.0174 -0.0656
23881SOL    HW181957   0.186   9.291  11.881  2.7048  0.2146  2.2559
23881SOL    HW281958   0.038   9.310  11.907  1.5366 -0.4585 -2.8530
23882SOL     OW81959   1.597   5.703   7.290 -0.2613 -0.3515  0.1532
23882SOL    HW181960   1.670   5.648   7.317  0.0697 -0.1298 -0.2835
23882SOL    HW281961   1.614   5.788   7.332 -0.9436 -0.6580  1.0982
23883SOL     OW81962   1.438   4.317   4.415 -0.2372 -0.7811 -0.1085
23883SOL    HW181963   1.355   4.289   4.376 -0.5703 -0.4115  0.3183
23883SOL    HW281964   1.462   4.396   4.366 -1.6261  0.8119  1.5841
23884SOL     OW81965  12.419   5.537   0.576 -0.0707  0.7212  0.5012
23884SOL    HW181966  12.344   5.534   0.518  0.2369  0.0846  0.1293
23884SOL    HW281967  12.391   5.490   0.655  0.5817 -1.2974 -0.4179
23885SOL     OW81968   8.183  10.131   4.620  0.1019  0.3875  0.0361
23885SOL    HW181969   8.255  10.193   4.606 -1.4476  1.8551 -2.3518
23885SOL    HW281970   8.220  10.063   4.676  3.0452  1.5360 -0.3047
23886SOL     OW81971   9.304   2.603   7.059 -0.3568  0.5581 -0.1434
23886SOL    HW181972   9.289   2.562   7.144 -0.2737 -0.0446 -0.4183
23886SOL    HW281973   9.380   2.659   7.073 -0.2732  0.3717  0.1524
23887SOL     OW81974  10.223   4.201   6.987 -0.3474 -0.2044  0.1181
23887SOL    HW181975  10.284   4.148   7.038  0.1614 -0.3825 -0.6408
23887SOL    HW281976  10.238   4.290   7.017  0.6322 -0.1860 -0.3598
23888SOL     OW81977   3.016   1.064  12.523 -0.2520  0.1137 -0.2170
23888SOL    HW181978   3.007   0.989  12.583  1.1949  0.6703  0.7794
23888SOL    HW281979   3.105   1.096  12.540 -0.6641  1.7489 -0.9857
23889SOL     OW81980   4.852   5.667  12.199  0.0744  0.2089 -0.5619
23889SOL    HW181981   4.808   5.676  12.114  0.7487 -0.7263 -1.0336
23889SOL    HW281982   4.913   5.741  12.202  0.4233 -0.0487 -1.1388
23890SOL     OW81983   2.610  10.056  12.514 -0.1539 -0.4990 -0.0731
23890SOL    HW181984   2.669  10.131  12.512  0.7099 -1.1640 -1.8838
23890SOL    HW281985   2.523  10.095  12.521  0.1935  0.7735 -1.9780
23891SOL     OW81986   2.786  11.111  10.485  0.1989  0.0614  0.8037
23891SOL    HW181987   2.821  11.106  10.395 -1.1658 -0.7669  0.2926
23891SOL    HW281988   2.777  11.205  10.501  1.7985  0.2844  0.6411
23892SOL     OW81989   4.425  11.223   4.606 -0.7838  0.7206  0.2227
23892SOL    HW181990   4.423  11.213   4.511 -1.7481  0.5979  0.2462
23892SOL    HW281991   4.488  11.294   4.621 -2.0853  2.1498 -0.6595
23893SOL     OW81992   1.736   5.198   5.549  0.2862  0.1185 -0.0045
23893SOL    HW181993   1.779   5.127   5.502  0.3462  1.0514 -1.4352
23893SOL    HW281994   1.807   5.260   5.569  0.1430  0.0604  0.7025
23894SOL     OW81995   8.230   5.433   3.176  0.4552 -0.0398  0.3298
23894SOL    HW181996   8.154   5.377   3.163 -0.1863  1.1147 -1.1058
23894SOL    HW281997   8.281   5.389   3.244 -0.0767 -2.3035 -0.6566
23895SOL     OW81998   9.601   7.590   9.509  0.0236  0.1085 -0.1974
23895SOL    HW181999   9.517   7.633   9.489 -0.2204 -0.6459 -0.8165
23895SOL    HW282000   9.603   7.587   9.605 -0.3111  0.7928 -0.1555
23896SOL     OW82001   9.430   2.133   4.464 -0.2658  0.6695  0.3602
23896SOL    HW182002   9.446   2.146   4.370 -0.6216 -0.7584  0.0708
23896SOL    HW282003   9.350   2.183   4.482 -1.0565 -0.2489 -0.4609
23897SOL     OW82004   0.081   5.114  10.009 -0.0169 -0.2780  0.4244
23897SOL    HW182005  -0.003   5.074   9.985 -0.5216  0.5565  0.7357
23897SOL    HW282006   0.145   5.075   9.949 -0.4046 -1.8304  0.9841
23898SOL     OW82007   3.072   2.854   9.752 -0.5102  0.0408 -0.4180
23898SOL    HW182008   2.999   2.915   9.741  0.9853  1.9793 -0.0528
23898SOL    HW282009   3.051   2.807   9.833 -1.1258  0.9097 -0.0559
23899SOL     OW82010  12.209   5.436  12.040 -0.3385  0.2357 -0.5100
23899SOL    HW182011  12.141   5.372  12.018  0.4238  0.1077 -2.7361
23899SOL    HW282012  12.280   5.384  12.077 -0.5583  0.0795 -0.3043
23900SOL     OW82013   4.190   9.894  11.258  0.0065  0.2487 -0.2134
23900SOL    HW182014   4.193   9.984  11.227  0.1498 -0.2633 -1.8277
23900SOL    HW282015   4.140   9.847  11.191 -1.7057 -0.5505  1.5320
23901SOL     OW82016   3.153   5.973   5.139 -0.3310  0.1919 -0.1617
23901SOL    HW182017   3.092   5.902   5.121 -1.1184  1.1096 -1.2841
23901SOL    HW282018   3.143   5.991   5.232  0.5200 -1.7060  0.3395
23902SOL     OW82019   9.368   4.531   8.366 -0.0206 -0.7652  0.1827
23902SOL    HW182020   9.296   4.491   8.317 -1.2083 -1.3612  2.3019
23902SOL    HW282021   9.413   4.458   8.408  3.3528 -0.6826 -2.8336
23903SOL     OW82022   0.377  10.650  11.313  0.0831 -0.3863 -0.2145
23903SOL    HW182023   0.355  10.648  11.406  0.3548 -1.6555 -0.1600
23903SOL    HW282024   0.387  10.743  11.293 -2.5212  0.0877  0.3887
23904SOL     OW82025  11.938   9.722   4.134  0.0384 -0.1708 -0.0419
23904SOL    HW182026  11.990   9.643   4.147  2.0197  1.0492 -0.0132
23904SOL    HW282027  11.864   9.694   4.081  0.8774 -1.9627 -0.3399
23905SOL     OW82028   2.610   4.754   5.117 -0.1948 -0.4762  0.4647
23905SOL    HW182029   2.610   4.793   5.029 -0.6792 -1.4514  0.0165
23905SOL    HW282030   2.690   4.702   5.120 -0.9829 -1.7655 -0.0275
23906SOL     OW82031  11.768   2.117  10.229  0.1988  0.2381  0.6631
23906SOL    HW182032  11.779   2.164  10.146  2.3351 -1.3767 -0.0685
23906SOL    HW282033  11.853   2.075  10.244 -0.2502  0.1347  3.4940
23907SOL     OW82034   3.854   2.973   7.269  0.5532  0.6143  0.3192
23907SOL    HW182035   3.890   3.011   7.189 -1.2416  0.0012 -0.8280
23907SOL    HW282036   3.875   2.880   7.264 -0.4528  0.3864  0.0084
23908SOL     OW82037   0.621   6.160   1.201  0.0066  0.6005 -0.2689
23908SOL    HW182038   0.551   6.223   1.222 -1.3531 -0.9256 -0.0324
23908SOL    HW282039   0.628   6.106   1.280 -0.9231 -1.3662 -1.4593
23909SOL     OW82040   7.959   3.798   3.603 -0.1240 -0.1367 -0.2611
23909SOL    HW182041   7.924   3.740   3.536  1.9405 -0.5742 -1.0256
23909SOL    HW282042   8.039   3.834   3.565  1.7903 -1.3187  2.3650
23910SOL     OW82043   1.984  10.317  11.064  0.0483 -0.3474 -0.5267
23910SOL    HW182044   2.063  10.369  11.082 -0.0063 -0.7695  1.0545
23910SOL    HW282045   1.999  10.235  11.109 -0.5002 -1.1816 -1.8003
23911SOL     OW82046   6.351  10.681   4.701  0.2843  0.3844  0.6483
23911SOL    HW182047   6.293  10.695   4.626  0.5769  1.4512  0.6105
23911SOL    HW282048   6.292  10.669   4.775 -0.0697  3.4119  0.9855
23912SOL     OW82049  11.004   6.450  10.365  0.3598 -0.1069  0.1800
23912SOL    HW182050  11.004   6.480  10.274  1.7129  2.8429  1.0417
23912SOL    HW282051  10.915   6.468  10.396  0.3839  0.5175 -0.0937
23913SOL     OW82052  11.222   1.566   7.384 -0.0450 -0.0094 -0.3948
23913SOL    HW182053  11.205   1.548   7.477 -0.2553 -2.0507 -0.8024
23913SOL    HW282054  11.230   1.662   7.380 -2.4437  0.3551  1.3359
23914SOL     OW82055   7.509   2.685   0.726  0.3523  0.5903 -0.2166
23914SOL    HW182056   7.507   2.763   0.782 -2.5044  0.3657  0.1281
23914SOL    HW282057   7.496   2.719   0.637  0.8033  0.6068 -0.2819
23915SOL     OW82058  12.674  12.072   3.099 -0.0362 -0.1780 -0.5617
23915SOL    HW182059  12.607  12.099   3.036 -0.9100 -0.6845  0.1224
23915SOL    HW282060  12.757  12.095   3.058 -0.5941 -0.3332 -1.8081
23916SOL     OW82061  10.127   9.431   8.104 -0.4405 -0.1911 -0.3153
23916SOL    HW182062  10.173   9.382   8.174 -1.3938  0.4888  0.8224
23916SOL    HW282063  10.038   9.396   8.105 -0.8101  0.7125 -0.2936
23917SOL     OW82064   7.441  10.191  12.588 -0.2241 -0.3556  0.5332
23917SOL    HW182065   7.431  10.250  12.513 -0.1660 -1.5568 -0.4449
23917SOL    HW282066   7.516  10.225  12.635  1.2576 -0.9266 -1.2776
23918SOL     OW82067   5.774  10.946   6.697  0.6443  0.0436  0.2010
23918SOL    HW182068   5.863  10.953   6.732  0.3302 -0.7862  1.2291
23918SOL    HW282069   5.758  11.031   6.655  0.0099  2.4317  4.6613
23919SOL     OW82070   3.304   9.449  11.490  0.4317 -0.5461 -0.1397
23919SOL    HW182071   3.376   9.458  11.427  0.7072 -0.0026  0.2281
23919SOL    HW282072   3.225   9.451  11.437  0.6633 -0.2398 -0.4885
23920SOL     OW82073   6.343  10.091   1.151  0.2421  0.2722  0.6094
23920SOL    HW182074   6.321  10.184   1.153 -0.8124  0.0735  3.4325
23920SOL    HW282075   6.258  10.047   1.148  0.7044 -0.6082 -0.0238
23921SOL     OW82076  11.485   1.514   1.134  0.1250  0.1270  0.3181
23921SOL    HW182077  11.440   1.539   1.053 -0.7655  0.7641  0.9838
23921SOL    HW282078  11.416   1.479   1.190  1.0305 -2.0416  0.1570
23922SOL     OW82079  12.493   7.432   3.914  0.1357 -0.0692  0.0957
23922SOL    HW182080  12.410   7.410   3.956  0.2806 -0.5540  0.1433
23922SOL    HW282081  12.501   7.527   3.923 -0.2087 -0.0745  0.4713
23923SOL     OW82082   2.219   5.684   3.860 -0.4935 -0.4436  0.3852
23923SOL    HW182083   2.187   5.773   3.843 -0.7561 -0.2209  1.8940
23923SOL    HW282084   2.312   5.695   3.877 -0.5942 -0.4012  0.9226
23924SOL     OW82085   3.265   2.281   6.930 -0.3523 -0.3668 -0.0055
23924SOL    HW182086   3.270   2.365   6.883 -1.1845  0.1693  0.8299
23924SOL    HW282087   3.190   2.237   6.891  0.0939 -0.7482 -0.4541
23925SOL     OW82088  11.439  10.887   1.414 -0.8114  0.1030 -0.3868
23925SOL    HW182089  11.399  10.974   1.419 -0.6290  0.1603  0.3099
23925SOL    HW282090  11.388  10.840   1.349 -0.7892  0.7976 -0.9172
23926SOL     OW82091   1.431   7.522   9.808 -1.0167  0.0557 -0.1998
23926SOL    HW182092   1.434   7.606   9.855  0.9427  0.7072 -1.3320
23926SOL    HW282093   1.339   7.498   9.807 -1.4132  1.2384  1.7804
23927SOL     OW82094   3.432  11.516   9.107  0.6423 -0.1283 -0.4855
23927SOL    HW182095   3.359  11.568   9.074 -0.1417  1.4987  3.2386
23927SOL    HW282096   3.510  11.554   9.066 -0.2356  1.4237 -0.7695
23928SOL     OW82097   4.962   2.371  10.156  0.4617 -0.1243 -0.5608
23928SOL    HW182098   5.025   2.400  10.221  0.5043 -0.6262 -0.3728
23928SOL    HW282099   4.999   2.398  10.072  1.0250 -0.6096 -0.4669
23929SOL     OW82100   9.465   8.832   9.725  0.4384 -0.1239  0.5369
23929SOL    HW182101   9.469   8.906   9.666 -1.1448  0.4170  1.0442
23929SOL    HW282102   9.540   8.842   9.783  1.2476  0.0637 -0.5199
23930SOL     OW82103   5.933   8.124   9.674 -0.3157  0.6213 -0.6895
23930SOL    HW182104   5.984   8.158   9.747 -1.3805  1.6390 -0.3775
23930SOL    HW282105   5.986   8.142   9.597  0.1796  0.8539 -0.2989
23931SOL     OW82106   6.256  10.737  11.228  0.1993 -0.2528  0.1351
23931SOL    HW182107   6.277  10.830  11.236 -2.7127  0.4655  0.9846
23931SOL    HW282108   6.214  10.729  11.142 -0.0874 -0.6470  0.3082
23932SOL     OW82109  11.318  11.219   9.408  0.3348  0.5023  0.2648
23932SOL    HW182110  11.297  11.150   9.345  0.0863  2.3785 -1.8238
23932SOL    HW282111  11.412  11.233   9.399  0.6037 -0.2905  1.5290
23933SOL     OW82112  11.154  12.775   0.248  0.3351 -0.4845  0.0045
23933SOL    HW182113  11.193  12.758   0.333  0.3998 -0.2531  0.0223
23933SOL    HW282114  11.080  12.833   0.266 -1.4999 -2.7263  0.2672
23934SOL     OW82115   0.272  10.313  12.503  0.0889 -0.1759 -0.6535
23934SOL    HW182116   0.179  10.310  12.480  0.3730  0.6314 -2.0991
23934SOL    HW282117   0.313  10.247  12.447  0.2489 -1.4524  0.9051
23935SOL     OW82118  11.482   8.862   3.577  0.8176 -0.5193  0.0278
23935SOL    HW182119  11.516   8.950   3.592 -0.9610 -0.0751  1.7007
23935SOL    HW282120  11.480   8.854   3.481  1.3662  1.0843 -0.1544
23936SOL     OW82121   9.164   1.700   6.728 -0.4054 -0.7732  0.3202
23936SOL    HW182122   9.193   1.634   6.665 -1.3114 -1.0002  0.1231
23936SOL    HW282123   9.068   1.697   6.723 -0.4937  1.8423 -1.0449
23937SOL     OW82124  11.648   5.170   2.058  0.0136  0.7839  0.6843
23937SOL    HW182125  11.626   5.217   2.139  0.1908 -0.2283  1.3422
23937SOL    HW282126  11.696   5.092   2.088 -2.3696 -1.1340 -0.1504
23938SOL     OW82127   7.460   8.927   3.579  0.2296  0.1589 -0.1352
23938SOL    HW182128   7.448   8.833   3.590  1.8210  0.0503  0.8829
23938SOL    HW282129   7.440   8.943   3.486 -0.0044 -1.1702 -0.3321
23939SOL     OW82130   3.132   4.119   4.779 -0.7608  0.7148  1.0645
23939SOL    HW182131   3.213   4.104   4.730 -0.8864 -0.6521  1.2468
23939SOL    HW282132   3.159   4.124   4.870 -0.9923 -0.9193  1.2446
23940SOL     OW82133   8.379   2.746   5.961  0.0016  0.0257 -0.0783
23940SOL    HW182134   8.404   2.660   5.995 -0.5947  0.2222  0.8877
23940SOL    HW282135   8.294   2.731   5.919  0.8235 -0.2611 -1.7471
23941SOL     OW82136   1.196   4.754   5.984 -0.6794  0.2723  0.5667
23941SOL    HW182137   1.107   4.760   6.021 -0.4014 -0.2667  1.3486
23941SOL    HW282138   1.191   4.680   5.922 -0.8768  0.5091  0.2959
23942SOL     OW82139   4.353   3.302  12.204 -0.4818  0.0259  0.1281
23942SOL    HW182140   4.362   3.238  12.134 -1.4348  0.7812 -0.7181
23942SOL    HW282141   4.397   3.262  12.280  0.0697 -1.0430 -0.7324
23943SOL     OW82142  12.545  10.277   8.439  0.4560  0.5622 -0.3216
23943SOL    HW182143  12.611  10.333   8.398  1.2522 -0.7877 -0.9639
23943SOL    HW282144  12.526  10.319   8.523  3.4735  0.1131  0.7235
23944SOL     OW82145   4.541   2.063   2.470 -0.0453  0.2321  0.0195
23944SOL    HW182146   4.536   1.970   2.494 -0.2610  0.0469 -0.7206
23944SOL    HW282147   4.581   2.105   2.546  1.4442 -0.6950 -0.2111
23945SOL     OW82148  11.210   4.509   2.762  1.0675 -0.3828  0.2199
23945SOL    HW182149  11.151   4.448   2.718  2.2430 -1.3963 -0.0119
23945SOL    HW282150  11.212   4.479   2.853  4.0797 -2.8050 -0.4813
23946SOL     OW82151  12.702  10.697   9.688  0.6460  0.1159  0.5830
23946SOL    HW182152  12.681  10.613   9.730  1.0244 -0.2781 -0.0097
23946SOL    HW282153  12.716  10.675   9.596  0.9940  0.7935  0.4707
23947SOL     OW82154   5.868  10.614   3.933 -0.0267 -0.3618  0.1361
23947SOL    HW182155   5.891  10.663   4.012  0.0179 -1.5636  0.8948
23947SOL    HW282156   5.875  10.678   3.863 -1.7921  1.2127  1.2887
23948SOL     OW82157   8.223   5.903   3.219 -0.7447 -0.0821 -0.1382
23948SOL    HW182158   8.142   5.941   3.186 -1.2271 -1.1856 -0.2676
23948SOL    HW282159   8.220   5.918   3.313 -1.6155 -1.0355  0.0017
23949SOL     OW82160   0.882  11.360   4.135  0.7354 -0.1945 -0.1435
23949SOL    HW182161   0.927  11.279   4.158  3.7168  0.8845 -1.6947
23949SOL    HW282162   0.915  11.425   4.197  1.2088  0.5771 -1.1690
23950SOL     OW82163  12.167   5.317   2.649 -0.1945 -0.2965  0.2619
23950SOL    HW182164  12.241   5.294   2.706 -0.0817  0.4310  0.4113
23950SOL    HW282165  12.092   5.321   2.708 -0.0625  0.5423  0.3775
23951SOL     OW82166  10.864   8.805   0.177 -0.4460  0.2620  0.0800
23951SOL    HW182167  10.901   8.766   0.256  1.1992  0.8897 -0.3414
23951SOL    HW282168  10.828   8.731   0.128  2.2200 -0.7577 -0.5137
23952SOL     OW82169   5.545  11.097  10.267  0.5666  0.6722  0.0717
23952SOL    HW182170   5.543  11.131  10.177  0.9789  1.1709  0.2486
23952SOL    HW282171   5.624  11.135  10.306  1.2101 -0.7206  0.1938
23953SOL     OW82172   9.834   8.214   6.282 -0.4623  0.0156  0.0355
23953SOL    HW182173   9.760   8.239   6.338 -0.4488 -0.0176  0.0686
23953SOL    HW282174   9.899   8.283   6.295  0.2944 -0.9231  1.4904
23954SOL     OW82175   0.691   1.193   9.213  0.4609  0.1460  0.2751
23954SOL    HW182176   0.706   1.287   9.225  0.2710  0.3919 -1.1959
23954SOL    HW282177   0.751   1.169   9.142  2.9522 -1.5748  2.7702
23955SOL     OW82178   9.258   1.465  11.692  0.5664  0.2622 -0.1283
23955SOL    HW182179   9.167   1.493  11.679  0.0478 -1.5032 -0.5427
23955SOL    HW282180   9.307   1.507  11.621  0.0868  1.1977  0.0768
23956SOL     OW82181   5.851   9.270   1.116 -0.4603  0.3107 -0.4842
23956SOL    HW182182   5.946   9.273   1.125 -0.3584  0.6790 -1.4492
23956SOL    HW282183   5.819   9.343   1.169 -0.3042 -0.4902  0.7424
23957SOL     OW82184  11.103  10.962  12.779 -0.8628  0.0671 -0.4872
23957SOL    HW182185  11.117  11.017  12.701 -0.6028 -1.4480 -1.5530
23957SOL    HW282186  11.190  10.953  12.817 -0.6048 -0.9394 -1.2684
23958SOL     OW82187   5.775   8.317   2.653  0.5159 -0.2498  0.2038
23958SOL    HW182188   5.741   8.229   2.668  0.7095 -0.5081 -0.8014
23958SOL    HW282189   5.836   8.307   2.579  1.5262  0.4886  0.9140
23959SOL     OW82190   3.205   6.501   6.398  0.7221  0.4488  0.0314
23959SOL    HW182191   3.270   6.562   6.431  2.3630 -1.4428  0.5175
23959SOL    HW282192   3.239   6.415   6.422 -2.1660 -0.6342  0.6320
23960SOL     OW82193  11.296   7.293   3.519 -0.0952 -0.6370  0.3991
23960SOL    HW182194  11.207   7.264   3.538 -1.8512  1.7040 -3.1499
23960SOL    HW282195  11.315   7.360   3.584 -1.2493 -0.6039  0.7137
23961SOL     OW82196   5.204   7.272   2.669 -0.4756  0.1460  0.3526
23961SOL    HW182197   5.224   7.182   2.642  1.3758  0.3559  0.8412
23961SOL    HW282198   5.178   7.264   2.760  0.1912  0.1272  0.5519
23962SOL     OW82199   7.252  11.852   7.628  0.1079  0.2647  0.2211
23962SOL    HW182200   7.302  11.774   7.603  1.6119  0.7241  1.6282
23962SOL    HW282201   7.249  11.905   7.548 -0.7778 -1.1158 -0.6989
23963SOL     OW82202   2.939   3.415   1.901 -0.3408  0.3195  0.4590
23963SOL    HW182203   2.985   3.441   1.981 -1.7633 -0.7119  1.6625
23963SOL    HW282204   3.001   3.357   1.856  0.5678  1.0939  0.6568
23964SOL     OW82205   4.439   3.928   6.483  0.2550  0.5180  0.1821
23964SOL    HW182206   4.452   3.840   6.448 -2.6889  0.3742 -0.7908
23964SOL    HW282207   4.463   3.986   6.411  0.6939  0.4740  0.2887
23965SOL     OW82208   0.773   2.925  12.338  0.1570 -0.0264 -0.4159
23965SOL    HW182209   0.690   2.879  12.325 -1.4062  2.6558 -0.7197
23965SOL    HW282210   0.813   2.927  12.251 -0.1701 -0.0966 -0.5703
23966SOL     OW82211   3.953   3.745   4.765 -0.5230 -0.2801  0.1600
23966SOL    HW182212   3.970   3.684   4.837  0.9871 -0.4170 -0.2836
23966SOL    HW282213   3.954   3.690   4.686 -0.6842  0.0875 -0.1022
23967SOL     OW82214   7.692   7.088   5.263 -0.3515 -0.3493 -0.8909
23967SOL    HW182215   7.633   7.013   5.264  2.9999 -3.2643  0.0970
23967SOL    HW282216   7.744   7.077   5.183  1.8249 -0.6017  0.4749
23968SOL     OW82217   1.160   7.098  10.858  0.2840  0.2400 -0.0716
23968SOL    HW182218   1.187   7.171  10.802  0.8082 -0.5717 -0.9018
23968SOL    HW282219   1.186   7.126  10.946  1.4219  0.6342 -0.5065
23969SOL     OW82220   0.211   6.034   2.271  0.2673 -0.4526 -0.2275
23969SOL    HW182221   0.117   6.017   2.281  0.2080 -1.5865 -2.1511
23969SOL    HW282222   0.219   6.069   2.182  1.3812  2.2963  0.8501
23970SOL     OW82223  12.316  10.644   2.503  0.0498  0.5603 -0.0212
23970SOL    HW182224  12.370  10.565   2.508  1.3299  1.3602 -0.7693
23970SOL    HW282225  12.233  10.618   2.543 -0.1739 -1.6525 -1.7063
23971SOL     OW82226  11.168  10.967  12.508 -0.2753  0.0971  0.0282
23971SOL    HW182227  11.216  11.027  12.450  1.3345 -1.7271 -0.6241
23971SOL    HW282228  11.128  10.904  12.448 -1.7888  0.3479  0.7195
23972SOL     OW82229   2.446  11.584   2.821 -0.1575 -0.2219 -0.1424
23972SOL    HW182230   2.457  11.582   2.726 -2.4828  0.5423 -0.4942
23972SOL    HW282231   2.436  11.677   2.842  1.3094 -0.2803  1.0384
23973SOL     OW82232  10.022   7.532   3.105 -0.6109  0.0767 -0.0563
23973SOL    HW182233   9.956   7.597   3.130  1.3032  2.8812 -1.8461
23973SOL    HW282234   9.974   7.471   3.049 -2.3351  0.1756  1.2129
23974SOL     OW82235   8.809   5.885   5.010  0.2980  0.0982 -0.0359
23974SOL    HW182236   8.835   5.946   4.941  0.8616  0.8419  0.8235
23974SOL    HW282237   8.736   5.836   4.971 -0.2211  1.3616 -0.7258
23975SOL     OW82238   9.020   4.811   3.852  0.0268  0.2950  0.2590
23975SOL    HW182239   9.053   4.721   3.859 -1.2179 -0.3114 -1.1169
23975SOL    HW282240   9.095   4.866   3.875  0.4352 -1.0906  2.4405
23976SOL     OW82241  12.571  10.931   5.121 -0.2533  0.4960 -0.8004
23976SOL    HW182242  12.499  10.963   5.067 -1.3830  0.7294  0.7673
23976SOL    HW282243  12.626  11.008   5.135 -1.7385  1.3094  1.0538
23977SOL     OW82244  11.713   2.862  10.062 -0.2294  0.5394  0.5611
23977SOL    HW182245  11.639   2.850  10.121 -0.9585 -0.4902 -0.4852
23977SOL    HW282246  11.774   2.791  10.084 -0.4738  0.1915  0.1519
23978SOL     OW82247   4.754   8.840  10.112  0.1392  0.1267 -0.5043
23978SOL    HW182248   4.792   8.786  10.043 -1.2015 -0.8183 -0.5313
23978SOL    HW282249   4.773   8.930  10.085  0.1131 -0.2494 -1.8228
23979SOL     OW82250  11.312   6.702  12.694 -0.5872  0.4096 -0.1215
23979SOL    HW182251  11.285   6.693  12.603 -1.0416  0.4495  0.0102
23979SOL    HW282252  11.406   6.684  12.692 -0.6109  0.3188 -0.5835
23980SOL     OW82253  10.030  12.746   0.522  0.3267 -0.4173  0.0097
23980SOL    HW182254  10.014  12.839   0.509  0.3421 -0.3786  0.2673
23980SOL    HW282255  10.005  12.729   0.613 -1.3779 -1.0216 -0.5251
23981SOL     OW82256   0.781   4.134   7.891  0.0371  0.3615  0.7146
23981SOL    HW182257   0.832   4.206   7.928 -0.1591 -0.0311  1.7897
23981SOL    HW282258   0.784   4.066   7.958 -2.4345  0.5521  1.1250
23982SOL     OW82259   7.587   8.097   0.528  0.1340 -0.1216  0.7020
23982SOL    HW182260   7.681   8.078   0.532 -0.2770 -2.5274  0.4706
23982SOL    HW282261   7.556   8.047   0.453 -1.5126 -0.3091  1.4662
23983SOL     OW82262   5.493   1.077  11.173 -0.4071  0.4513  0.1760
23983SOL    HW182263   5.428   1.013  11.201 -0.3463  0.7709  1.0617
23983SOL    HW282264   5.502   1.062  11.079 -1.2100 -0.0911  0.1781
23984SOL     OW82265   0.632   0.234   8.183 -0.4593  0.7310  0.5364
23984SOL    HW182266   0.598   0.215   8.270 -1.2777  1.7827  0.4771
23984SOL    HW282267   0.717   0.276   8.198 -0.7074  1.1312  0.8533
23985SOL     OW82268   7.892   4.575  11.985  0.0184 -0.3131 -0.4260
23985SOL    HW182269   7.839   4.595  11.908 -1.0271 -0.8163  0.1506
23985SOL    HW282270   7.864   4.488  12.011  1.5735 -0.8508 -0.4540
23986SOL     OW82271  10.395  11.136   1.269 -0.2384 -0.6059 -0.9828
23986SOL    HW182272  10.302  11.158   1.258 -0.0791 -0.2311 -1.6625
23986SOL    HW282273  10.428  11.202   1.331 -0.3470 -0.5203 -1.0157
23987SOL     OW82274  11.552   7.077  11.171 -0.0883 -0.2432  0.0879
23987SOL    HW182275  11.579   7.165  11.200 -3.2272  0.6794  0.6551
23987SOL    HW282276  11.551   7.082  11.076 -0.6158  0.4806  0.1256
23988SOL     OW82277  11.886   9.431   9.689 -0.0773  0.1652 -0.8906
23988SOL    HW182278  11.905   9.350   9.642 -0.9315 -0.4975 -0.1396
23988SOL    HW282279  11.924   9.418   9.776 -1.2457  0.0655 -0.3785
23989SOL     OW82280   1.408   4.047   5.328  0.5670  0.5279  0.2226
23989SOL    HW182281   1.411   4.140   5.308  2.3070  0.9087  1.9685
23989SOL    HW282282   1.323   4.033   5.368 -0.7443  0.8054 -2.2797
23990SOL     OW82283   0.844   8.102  11.559 -0.2058  0.6360 -0.4996
23990SOL    HW182284   0.869   8.061  11.476 -0.2613 -1.9160  0.6832
23990SOL    HW282285   0.924   8.144  11.589 -0.3465  2.2046 -2.1062
23991SOL     OW82286   3.566   5.654  12.044 -0.5227 -0.3889 -0.0236
23991SOL    HW182287   3.657   5.645  12.015 -0.6978  0.5681 -0.9511
23991SOL    HW282288   3.567   5.730  12.103 -0.4373 -1.4232  1.3534
23992SOL     OW82289   6.211   4.063   4.025 -0.0843  0.1351  0.1619
23992SOL    HW182290   6.260   4.114   3.962 -1.6940 -0.5113 -1.7158
23992SOL    HW282291   6.275   3.999   4.059  0.9372  0.8310 -0.4008
23993SOL     OW82292   7.218   2.618   7.563 -0.1372  0.4201  0.4764
23993SOL    HW182293   7.249   2.656   7.645  2.7725 -1.1712  0.2302
23993SOL    HW282294   7.211   2.524   7.580 -1.7488  0.3233 -0.4932
23994SOL     OW82295   7.798  11.222   1.528  0.1267 -0.3614  0.9496
23994SOL    HW182296   7.804  11.282   1.602 -2.2228 -0.1450  1.0410
23994SOL    HW282297   7.759  11.142   1.564  2.8678 -1.9198  0.7502
23995SOL     OW82298  12.666   6.457  11.038  0.3412 -0.2715  0.1581
23995SOL    HW182299  12.758   6.472  11.058  0.5920 -0.5056 -0.7835
23995SOL    HW282300  12.645   6.522  10.970 -0.0382 -0.5856 -0.0281
23996SOL     OW82301   1.553   3.052   8.128  0.5691 -0.2424 -0.4634
23996SOL    HW182302   1.513   3.032   8.213  0.9772  0.4067 -0.1064
23996SOL    HW282303   1.554   3.148   8.125  0.6535 -0.2639 -1.1599
23997SOL     OW82304   1.502   5.419   9.375  0.2297 -0.2722 -0.5334
23997SOL    HW182305   1.572   5.483   9.387  0.6528 -0.5652 -1.2998
23997SOL    HW282306   1.486   5.420   9.280 -0.7966 -0.2241 -0.3713
23998SOL     OW82307   7.473  12.183  10.010 -0.4056  0.1725  0.4593
23998SOL    HW182308   7.476  12.108   9.950 -1.7894 -0.1405  0.7490
23998SOL    HW282309   7.559  12.185  10.050 -0.1938 -0.9936  0.1015
23999SOL     OW82310   4.129   8.399   4.046 -0.3108  0.0961 -0.0317
23999SOL    HW182311   4.205   8.378   4.101 -1.1246 -0.3954  0.9304
23999SOL    HW282312   4.064   8.333   4.070 -0.3267 -0.8212 -2.3820
24000SOL     OW82313   8.458  11.217   3.781 -0.2631  0.0138 -0.0763
24000SOL    HW182314   8.541  11.263   3.792 -0.1527  0.5953 -2.7441
24000SOL    HW282315   8.482  11.126   3.769 -0.2527 -0.2712  1.7715
24001SOL     OW82316   6.092   0.728   6.373  0.1583  0.6322  0.4582
24001SOL    HW182317   6.165   0.770   6.419  0.7743 -0.1567  0.2233
24001SOL    HW282318   6.086   0.776   6.291 -1.2291  2.3368  1.4889
24002SOL     OW82319   3.206   9.334   4.340  0.3859  0.4861 -0.4413
24002SOL    HW182320   3.173   9.418   4.372 -1.3167  0.1366 -1.1503
24002SOL    HW282321   3.298   9.334   4.364  0.2306  2.1844  0.3378
24003SOL     OW82322   6.967  11.505   4.010 -0.1617  0.1954  0.5220
24003SOL    HW182323   6.954  11.434   3.947 -0.4134  1.8535 -1.3921
24003SOL    HW282324   6.889  11.501   4.066 -1.7922  0.8360 -1.5437
24004SOL     OW82325   2.945   2.220  11.492  0.3577 -0.1091  0.0814
24004SOL    HW182326   3.013   2.200  11.557  1.4080  1.2691 -0.5582
24004SOL    HW282327   2.872   2.163  11.517  0.5373  0.6762  2.7482
24005SOL     OW82328   7.603  11.026   3.577  0.6786 -0.2463  1.0133
24005SOL    HW182329   7.539  11.080   3.623  0.7929  0.7444  0.0657
24005SOL    HW282330   7.576  10.936   3.594  0.3531  0.1026  2.4481
24006SOL     OW82331   3.308  11.682   8.294  1.4154  0.1578 -0.4095
24006SOL    HW182332   3.368  11.628   8.243  2.0483  0.4356  0.0323
24006SOL    HW282333   3.333  11.668   8.385 -0.9069 -1.7767  0.0315
24007SOL     OW82334  10.291   9.007   7.378 -0.0032  0.6386  0.4294
24007SOL    HW182335  10.246   9.088   7.353  0.6211  1.2625  1.2447
24007SOL    HW282336  10.297   9.012   7.474  1.0484  0.1867  0.4029
24008SOL     OW82337   3.620   0.917   4.738  0.0767  0.3151  0.1034
24008SOL    HW182338   3.543   0.963   4.705  0.5214  2.1379  1.4547
24008SOL    HW282339   3.690   0.940   4.678 -0.4409 -1.6587 -1.3552
24009SOL     OW82340   4.816   8.889   3.865 -0.3827  0.4639  0.0585
24009SOL    HW182341   4.869   8.964   3.838  1.4614 -0.4415  0.9702
24009SOL    HW282342   4.871   8.843   3.929 -1.5458 -1.5504 -0.3235
24010SOL     OW82343   7.842   7.589   8.118 -0.0681  0.3999 -0.3081
24010SOL    HW182344   7.774   7.651   8.091 -0.1699  0.3673 -0.1252
24010SOL    HW282345   7.847   7.598   8.213  0.0543  0.2683 -0.3011
24011SOL     OW82346   0.642  11.177   1.904  0.2763 -0.0252  0.1050
24011SOL    HW182347   0.724  11.150   1.863  0.0146  2.4869 -2.3803
24011SOL    HW282348   0.645  11.272   1.905 -2.2562  0.1364  0.7513
24012SOL     OW82349   4.137   6.494   0.512 -0.7100 -0.3294 -0.0640
24012SOL    HW182350   4.211   6.549   0.487 -1.2989  0.2353 -0.5929
24012SOL    HW282351   4.114   6.523   0.600  0.9041 -1.8259  0.9173
24013SOL     OW82352   7.523   8.834   1.265 -0.4636  0.0809  0.3518
24013SOL    HW182353   7.595   8.780   1.234 -0.8056  0.0894 -0.4870
24013SOL    HW282354   7.558   8.923   1.265  0.1747 -0.1499  1.9641
24014SOL     OW82355   4.119   5.697   8.531 -0.0961 -0.3085 -0.1652
24014SOL    HW182356   4.179   5.637   8.575  1.0332 -0.2236 -1.5462
24014SOL    HW282357   4.043   5.643   8.509 -1.9324  0.1312  3.9861
24015SOL     OW82358   7.053  10.808   5.606  0.4263 -0.0003 -0.3734
24015SOL    HW182359   7.103  10.732   5.576  1.1057 -0.2405  1.2725
24015SOL    HW282360   6.962  10.787   5.585  0.7262 -0.7354 -1.0076
24016SOL     OW82361   4.624   1.372   1.834  0.2964 -0.6271  0.3744
24016SOL    HW182362   4.636   1.455   1.879  0.5801 -0.9567  0.9241
24016SOL    HW282363   4.584   1.315   1.900 -1.9313 -0.3306 -0.6263
24017SOL     OW82364   5.316   6.371   2.927  0.4067 -0.0201 -0.0716
24017SOL    HW182365   5.361   6.295   2.890  0.5337  1.0178 -2.1702
24017SOL    HW282366   5.224   6.360   2.900 -0.2674 -0.9985  2.3309
24018SOL     OW82367   0.686   1.003   4.554  0.1371  0.5752 -0.3376
24018SOL    HW182368   0.620   0.992   4.486 -0.0957 -1.0190  0.1214
24018SOL    HW282369   0.739   0.924   4.550  0.1022  0.4380  1.3485
24019SOL     OW82370   6.071  12.120   4.057 -0.4824 -0.3334 -0.1624
24019SOL    HW182371   6.061  12.200   4.108  0.9179 -0.5448  0.4855
24019SOL    HW282372   5.988  12.073   4.070 -1.2106  0.8488 -0.3207
24020SOL     OW82373   9.232   4.686   6.139 -0.1583 -0.1490 -0.2589
24020SOL    HW182374   9.269   4.655   6.221 -0.0239 -0.9718 -0.6196
24020SOL    HW282375   9.140   4.659   6.144 -0.4195  0.7814  0.0943
24021SOL     OW82376  12.319   8.691   3.202  0.6069  0.3618 -0.2889
24021SOL    HW182377  12.364   8.742   3.269  0.7224 -1.5009  1.1175
24021SOL    HW282378  12.388   8.645   3.155  0.3338 -1.4914  1.0283
24022SOL     OW82379   4.500   7.657   4.992  0.2236  0.2027 -0.2538
24022SOL    HW182380   4.514   7.746   5.022  2.3100 -0.3324  0.5582
24022SOL    HW282381   4.413   7.634   5.024  0.6680  1.1148  1.7713
24023SOL     OW82382   0.039   2.168   0.186 -0.4035  0.7163 -0.1733
24023SOL    HW182383   0.067   2.229   0.118  0.0884 -0.0784 -0.7024
24023SOL    HW282384   0.067   2.208   0.268  1.5468  0.3852 -0.6244
24024SOL     OW82385   3.258   8.105  11.867 -0.4507 -0.1222 -0.2313
24024SOL    HW182386   3.278   8.032  11.807 -2.1465 -1.4511  0.7493
24024SOL    HW282387   3.182   8.075  11.917  0.0664  1.5072  1.6410
24025SOL     OW82388  11.610   0.416   3.081 -0.1658  0.3603 -0.2309
24025SOL    HW182389  11.558   0.450   3.008  0.2953 -0.5929 -1.0297
24025SOL    HW282390  11.570   0.454   3.159 -1.3335  0.5594 -0.9094
24026SOL     OW82391   1.776   5.516   8.319  0.8566 -0.5992 -0.0023
24026SOL    HW182392   1.812   5.455   8.383  1.0352  0.0870  0.5585
24026SOL    HW282393   1.757   5.595   8.369  2.5952  0.5545 -1.0928
24027SOL     OW82394   8.903   8.010   1.492  0.3580 -0.5862 -0.1376
24027SOL    HW182395   8.880   7.917   1.481  2.3922 -1.2428  0.6151
24027SOL    HW282396   8.851   8.039   1.567 -1.3935 -0.6487 -1.2554
24028SOL     OW82397   9.777  10.859   6.525  0.1999 -0.0565  0.1444
24028SOL    HW182398   9.718  10.933   6.507 -0.5931 -0.2705  1.7400
24028SOL    HW282399   9.845  10.896   6.581 -1.3180 -0.8845  2.7126
24029SOL     OW82400  10.426   9.629   3.038 -0.0989 -0.5378 -0.3816
24029SOL    HW182401  10.415   9.723   3.047 -1.6659 -0.6605 -0.6942
24029SOL    HW282402  10.449   9.599   3.126  0.2697  0.1079 -0.2515
24030SOL     OW82403   5.766   7.885   7.529  0.7216 -0.0098 -0.0708
24030SOL    HW182404   5.774   7.847   7.616  0.5469 -0.5804 -0.2959
24030SOL    HW282405   5.728   7.815   7.476  0.1409  0.5724 -0.4375
24031SOL     OW82406   0.453   9.159  11.199 -0.1432  0.2042 -0.1838
24031SOL    HW182407   0.474   9.146  11.107  0.0714 -1.7327  0.0834
24031SOL    HW282408   0.412   9.245  11.203  2.9562  1.9013 -1.5243
24032SOL     OW82409   9.657  10.915  12.470  0.1188  0.2433  0.1072
24032SOL    HW182410   9.710  10.968  12.411 -0.5881  0.3562 -0.4432
24032SOL    HW282411   9.577  10.967  12.484 -1.1039 -1.1271 -1.3615
24033SOL     OW82412   3.017   2.667  11.897  0.1517  1.4233 -0.1169
24033SOL    HW182413   3.058   2.583  11.876 -0.0940  1.4631 -0.7901
24033SOL    HW282414   2.948   2.646  11.960  0.8726  1.2892  0.6304
24034SOL     OW82415   6.686  11.046   0.812  0.0649 -0.7821 -0.6332
24034SOL    HW182416   6.656  10.984   0.745  0.3933  0.3925 -1.9229
24034SOL    HW282417   6.608  11.064   0.864 -0.2059 -1.7106 -0.6870
24035SOL     OW82418   3.689   2.256   1.143  0.3103 -0.4432  0.8402
24035SOL    HW182419   3.761   2.192   1.145  2.5427  1.8954  0.5505
24035SOL    HW282420   3.701   2.302   1.060  0.0101  1.6525  1.9027
24036SOL     OW82421  11.572   5.792   4.664 -0.0595  0.2623  0.2096
24036SOL    HW182422  11.575   5.737   4.586 -0.0625  0.1595  0.2818
24036SOL    HW282423  11.555   5.731   4.736 -0.5834  0.4214  0.2258
24037SOL     OW82424   7.710   4.310  12.451 -0.6109  0.3084 -0.4223
24037SOL    HW182425   7.784   4.285  12.507  0.5599  1.4766 -1.3571
24037SOL    HW282426   7.683   4.396  12.484 -0.5192  0.5824 -1.0282
24038SOL     OW82427   5.011   4.869   2.715 -0.2793 -0.6342 -0.4552
24038SOL    HW182428   5.045   4.945   2.667  1.1783 -0.0009  1.4239
24038SOL    HW282429   5.037   4.794   2.662  1.9959 -0.0091 -0.3262
24039SOL     OW82430  12.750   6.820   7.471 -0.0025 -0.4152 -0.7135
24039SOL    HW182431  12.719   6.768   7.396  0.1020 -0.7964 -0.4928
24039SOL    HW282432  12.685   6.803   7.539 -0.9765  1.1590 -1.1933
24040SOL     OW82433   9.388   3.104   8.676  0.2428  0.3805 -0.6287
24040SOL    HW182434   9.361   3.036   8.614 -0.1489  1.0126 -1.1590
24040SOL    HW282435   9.313   3.113   8.735 -1.0681  2.5620 -2.4612
24041SOL     OW82436   4.755   1.704   8.377  0.5899  0.6984  0.2799
24041SOL    HW182437   4.700   1.719   8.453 -0.9847 -3.2217  0.1299
24041SOL    HW282438   4.706   1.742   8.304 -0.4787 -0.1173  0.5576
24042SOL     OW82439   0.397   1.569   5.582 -0.2738  0.1638  0.2326
24042SOL    HW182440   0.324   1.614   5.624 -0.7093 -0.5016  0.2099
24042SOL    HW282441   0.356   1.498   5.532  0.4256 -0.5815  0.6877
24043SOL     OW82442   1.301   7.186  11.864  0.1500 -0.2206  0.3433
24043SOL    HW182443   1.210   7.174  11.839 -0.1318  0.0280  1.2204
24043SOL    HW282444   1.344   7.216  11.784 -0.6450  0.2041  0.0680
24044SOL     OW82445   4.809  10.693   2.573  0.3769 -0.4390 -0.0526
24044SOL    HW182446   4.718  10.676   2.548  0.5672  0.2090 -1.2958
24044SOL    HW282447   4.808  10.781   2.610  0.6740  0.1013 -1.2673
24045SOL     OW82448  11.721   6.208   4.930  0.7821 -0.2057  0.6940
24045SOL    HW182449  11.753   6.204   5.020  0.9491  1.1212  0.7088
24045SOL    HW282450  11.643   6.264   4.935  0.1597 -0.9929  0.1736
24046SOL     OW82451  12.437   0.279   3.636 -0.0687 -0.2276 -0.0648
24046SOL    HW182452  12.519   0.243   3.601  0.6684  0.8337  0.4913
24046SOL    HW282453  12.420   0.226   3.714  0.1388 -0.4071 -0.1392
24047SOL     OW82454   1.021  11.991   8.550  0.2975  0.7964 -0.0420
24047SOL    HW182455   1.080  12.032   8.487  1.2581  1.5372  1.3076
24047SOL    HW282456   1.069  11.990   8.633 -0.8160 -0.4359  0.6432
24048SOL     OW82457   1.237   3.525  11.271 -0.1789 -0.0992 -0.1437
24048SOL    HW182458   1.235   3.523  11.175 -1.8625 -1.4626 -0.1478
24048SOL    HW282459   1.175   3.457  11.297 -0.5200  0.9209  1.9249
24049SOL     OW82460   4.771  10.395   1.492 -0.3405  0.4192 -0.1593
24049SOL    HW182461   4.796  10.307   1.464 -1.7442  0.2002 -0.8002
24049SOL    HW282462   4.718  10.381   1.570 -0.1694  0.7368  0.0163
24050SOL     OW82463   3.537  12.261  10.480  0.4433 -0.1747  0.9251
24050SOL    HW182464   3.530  12.175  10.438 -3.3277 -0.4887  1.8124
24050SOL    HW282465   3.526  12.243  10.573  1.9832  1.1200  1.4054
24051SOL     OW82466  12.596  12.369   7.814  0.4243 -0.4874 -0.3473
24051SOL    HW182467  12.572  12.280   7.842 -2.2340  0.4561  0.7568
24051SOL    HW282468  12.657  12.400   7.881 -1.1006 -0.4490  1.1116
24052SOL     OW82469   5.082   6.172   0.687  0.1841  0.4007  0.5381
24052SOL    HW182470   5.163   6.168   0.635 -0.2080 -0.3419 -0.0277
24052SOL    HW282471   5.016   6.132   0.631 -0.3046 -0.1958  1.5239
24053SOL     OW82472   1.489   4.975  12.938  0.0627 -0.4586  0.3979
24053SOL    HW182473   1.496   4.880  12.938  0.8983 -0.4651 -2.3520
24053SOL    HW282474   1.564   5.006  12.888 -0.6885  1.6179  0.4180
24054SOL     OW82475   9.101   1.839   8.230 -0.5912 -0.0886 -0.0888
24054SOL    HW182476   9.012   1.863   8.257 -0.2469  2.1071 -0.6864
24054SOL    HW282477   9.096   1.746   8.209 -1.9367 -0.8570  3.0774
24055SOL     OW82478   2.905   7.820   7.061 -0.2386  0.2139  0.2156
24055SOL    HW182479   2.978   7.762   7.044 -0.4905 -0.1086  0.2276
24055SOL    HW282480   2.858   7.780   7.133  0.1699  0.9783  0.9239
24056SOL     OW82481   1.073   8.398  12.400  0.1763 -0.2740  0.2029
24056SOL    HW182482   1.060   8.463  12.331  0.5071  0.7021  1.0441
24056SOL    HW282483   1.157   8.421  12.439  0.7839 -1.8145 -0.1251
24057SOL     OW82484   8.878   9.666   8.970  0.1485  0.2779  0.3665
24057SOL    HW182485   8.950   9.700   9.023  1.3470 -0.7221 -0.5429
24057SOL    HW282486   8.921   9.607   8.907 -1.2881  0.8959 -1.2649
24058SOL     OW82487   0.974  11.511  11.672  0.0824 -0.0459 -0.1373
24058SOL    HW182488   1.061  11.488  11.640  0.4363  0.8294  0.1523
24058SOL    HW282489   0.991  11.570  11.746 -0.7368 -0.9548  0.8092
24059SOL     OW82490   5.978  11.770   2.640  0.2430  0.6143  0.2951
24059SOL    HW182491   6.022  11.691   2.607 -0.4238  0.8500 -1.2675
24059SOL    HW282492   6.013  11.841   2.586 -0.1485  1.1901  0.7873
24060SOL     OW82493  12.355  11.470   7.015  0.0231  0.4243  0.2236
24060SOL    HW182494  12.267  11.490   7.046  0.2290  0.0241  1.0852
24060SOL    HW282495  12.371  11.533   6.944 -0.7849  0.7743  0.3489
24061SOL     OW82496   8.205  11.495  10.228  0.6406 -0.2385  0.5330
24061SOL    HW182497   8.155  11.535  10.300 -0.1449 -0.8805  0.3721
24061SOL    HW282498   8.294  11.486  10.262  0.9335  1.9259  0.4421
24062SOL     OW82499   2.594   3.000   5.173  0.7742  0.7606 -0.1475
24062SOL    HW182500   2.500   3.011   5.163  0.5313 -1.1120 -0.2834
24062SOL    HW282501   2.621   3.071   5.231 -1.4643 -1.1073  3.5223
24063SOL     OW82502   6.495   8.113  11.573 -0.1279  0.1334  0.1520
24063SOL    HW182503   6.407   8.143  11.551 -0.7606 -1.0462  1.0002
24063SOL    HW282504   6.482   8.033  11.623  1.4132  0.3274  0.9191
24064SOL     OW82505  10.983   2.332   3.315 -0.2960 -0.1704 -0.4094
24064SOL    HW182506  11.072   2.333   3.348 -0.7153 -0.6183  0.7973
24064SOL    HW282507  10.949   2.246   3.339 -1.1461  0.1059 -0.5613
24065SOL     OW82508  12.667   7.453   7.123 -0.4102 -0.0331  0.0486
24065SOL    HW182509  12.750   7.502   7.128 -1.3924  1.8265 -0.6705
24065SOL    HW282510  12.679   7.381   7.184  1.4978  0.5618  0.4752
24066SOL     OW82511   6.838  10.858   8.636 -0.5810  0.1787 -0.1926
24066SOL    HW182512   6.809  10.946   8.613  0.8649  0.9372  0.7223
24066SOL    HW282513   6.797  10.801   8.571 -1.4434  1.5345 -0.8734
24067SOL     OW82514   4.185   0.106   3.156 -0.5364 -0.1793 -0.2378
24067SOL    HW182515   4.190   0.067   3.244  0.7993  0.4518 -0.0045
24067SOL    HW282516   4.204   0.199   3.170 -1.3374  0.1188 -1.0769
24068SOL     OW82517  12.253   9.758   7.597 -0.1062 -0.1168  0.2405
24068SOL    HW182518  12.158   9.775   7.596 -0.0397  0.2506  0.1925
24068SOL    HW282519  12.270   9.728   7.687 -0.1353  0.5849  0.4857
24069SOL     OW82520   6.794  10.837   9.628 -0.3555  0.1041 -0.0247
24069SOL    HW182521   6.878  10.798   9.606 -0.3430 -0.1307  0.4333
24069SOL    HW282522   6.760  10.784   9.700 -0.7174  0.4283  0.0515
24070SOL     OW82523   3.874   9.533   9.599 -0.5575  0.3233 -0.8596
24070SOL    HW182524   3.795   9.547   9.547 -1.1190  1.1333  0.1684
24070SOL    HW282525   3.904   9.621   9.621  0.4871  0.0164 -1.0170
24071SOL     OW82526   1.324   9.129   7.797 -0.1491 -0.2292  0.3663
24071SOL    HW182527   1.336   9.136   7.702  1.2729  0.5061  0.5713
24071SOL    HW282528   1.266   9.054   7.808  1.0646 -1.4430 -1.0171
24072SOL     OW82529  10.079   5.016   8.064  0.0413 -0.4300  0.0533
24072SOL    HW182530  10.084   5.086   8.130  1.1305 -0.3040 -0.1436
24072SOL    HW282531  10.114   4.939   8.109 -1.6624 -1.0127  0.4474
24073SOL     OW82532  10.303   5.719   1.499 -0.3814 -0.4334 -0.1843
24073SOL    HW182533  10.232   5.668   1.538 -0.4156 -0.1203  0.1604
24073SOL    HW282534  10.352   5.655   1.447 -0.9351 -0.6402 -0.4531
24074SOL     OW82535   4.065   5.630   3.793  0.1042 -0.1460 -0.1953
24074SOL    HW182536   4.021   5.583   3.863 -0.1381  1.8174  1.0293
24074SOL    HW282537   4.097   5.561   3.734 -3.6019 -1.7510 -0.6121
24075SOL     OW82538   9.148   1.043   4.076 -0.1455  0.2190  0.0946
24075SOL    HW182539   9.066   1.012   4.115 -0.5664 -0.2373 -1.1096
24075SOL    HW282540   9.157   1.133   4.107 -1.0965  0.2626  0.2643
24076SOL     OW82541   8.560   8.560  10.563 -0.1689 -0.2673  0.6825
24076SOL    HW182542   8.506   8.564  10.484  0.7077  1.5840  0.1284
24076SOL    HW282543   8.612   8.480  10.552 -0.4002 -0.2894 -0.3825
24077SOL     OW82544   9.946   9.897   2.780  0.1437 -0.1440  0.3157
24077SOL    HW182545   9.892   9.863   2.851 -0.0883  0.2731  0.3365
24077SOL    HW282546  10.036   9.887   2.812  0.0001  1.7855  1.4697
24078SOL     OW82547   3.101  10.219  12.501  0.5485 -0.1368 -0.3422
24078SOL    HW182548   3.150  10.267  12.568 -0.2513  0.7592 -0.3874
24078SOL    HW282549   3.082  10.135  12.542  0.5214  0.2062  0.3659
24079SOL     OW82550   0.942   8.817   9.317  0.2444 -0.2989 -0.4154
24079SOL    HW182551   0.878   8.790   9.251 -0.7131  1.7394 -0.4181
24079SOL    HW282552   0.891   8.823   9.399  0.2173  1.8296 -0.5185
24080SOL     OW82553  12.397   4.976   5.021  0.6280  0.2595 -0.2320
24080SOL    HW182554  12.383   4.903   5.081  2.9668 -0.3731 -0.3470
24080SOL    HW282555  12.441   5.043   5.075 -1.5917  1.6920 -0.0904
24081SOL     OW82556   4.284   1.096  11.415 -0.0999  0.3605 -0.0863
24081SOL    HW182557   4.196   1.075  11.383 -0.9491  1.2414  1.5362
24081SOL    HW282558   4.340   1.092  11.338 -1.7542  0.8409 -1.3501
24082SOL     OW82559   4.419  10.064   3.305  0.2573  0.1330 -0.0236
24082SOL    HW182560   4.426  10.054   3.210 -1.2996 -2.8161  0.0791
24082SOL    HW282561   4.361  10.139   3.318 -0.8538 -0.4436 -1.4637
24083SOL     OW82562   4.743   5.481   2.107 -0.9473 -0.1234 -1.1365
24083SOL    HW182563   4.810   5.539   2.072 -0.6947  1.3302  1.4941
24083SOL    HW282564   4.791   5.406   2.142 -1.0366 -0.6486 -2.0927
24084SOL     OW82565  12.931   9.946   3.406  0.3381  0.0714  0.5675
24084SOL    HW182566  12.956   9.859   3.375  1.4208  0.7085 -0.4072
24084SOL    HW282567  12.857   9.930   3.464 -1.2110 -1.2879 -1.6208
24085SOL     OW82568   6.818  11.328  11.538 -0.6202  0.3117 -0.1923
24085SOL    HW182569   6.764  11.350  11.614 -0.5004  1.0105 -0.2984
24085SOL    HW282570   6.830  11.233  11.542 -1.8137  0.1586 -0.1392
24086SOL     OW82571   3.375  11.659   6.855 -0.4688 -0.1484 -0.3475
24086SOL    HW182572   3.303  11.603   6.826 -0.5536  0.3420 -1.1115
24086SOL    HW282573   3.454  11.613   6.828 -0.4825 -0.6895  0.4974
24087SOL     OW82574   7.544  12.786   8.257 -0.4541  0.0141 -0.6968
24087SOL    HW182575   7.597  12.707   8.270  2.1744  1.6664 -0.5065
24087SOL    HW282576   7.591  12.854   8.305 -3.1978  1.5308  0.0550
24088SOL     OW82577   3.462   7.710  12.567  0.6939 -0.1164  0.5459
24088SOL    HW182578   3.493   7.769  12.635  0.2270  0.3398  0.3623
24088SOL    HW282579   3.536   7.703  12.506  0.0733  1.9343 -0.5318
24089SOL     OW82580   8.965  12.853   8.774  0.0187 -0.1528  0.6613
24089SOL    HW182581   8.962  12.766   8.735  0.7370  0.3986 -0.6953
24089SOL    HW282582   9.040  12.850   8.833 -0.7473 -0.8279  1.6385
24090SOL     OW82583   3.497   4.985   6.857  0.2935  0.0332 -0.1176
24090SOL    HW182584   3.553   4.996   6.934 -0.6866 -1.8171  0.9261
24090SOL    HW282585   3.537   4.912   6.809 -0.9742 -1.0423  0.4309
24091SOL     OW82586   5.656   2.964   1.853 -0.4253 -0.4623  0.1796
24091SOL    HW182587   5.581   2.983   1.796  1.3692  3.0713 -1.2976
24091SOL    HW282588   5.705   2.897   1.806 -0.7431 -0.0442 -0.7870
24092SOL     OW82589   8.293  10.734   6.542 -0.3099 -0.7384  0.0508
24092SOL    HW182590   8.236  10.804   6.575 -0.6541 -0.3845 -1.2557
24092SOL    HW282591   8.324  10.690   6.621 -2.3824 -0.9475  0.8203
24093SOL     OW82592   4.197  11.938   3.007  0.6801  0.4188 -0.3097
24093SOL    HW182593   4.128  11.875   2.988  2.0138 -0.9993 -0.6912
24093SOL    HW282594   4.216  11.925   3.100 -0.1299  1.4183  0.0076
24094SOL     OW82595   5.648   9.058   1.979  0.4434 -0.7045 -0.3542
24094SOL    HW182596   5.651   9.104   2.063 -0.5150  0.8425 -1.1386
24094SOL    HW282597   5.696   9.114   1.919 -1.5566 -0.1759 -1.5464
24095SOL     OW82598   8.957   8.283  11.592 -0.3175  0.6403 -0.4952
24095SOL    HW182599   8.990   8.203  11.633 -0.7660  0.3252 -0.7366
24095SOL    HW282600   8.907   8.327  11.661  1.0868  1.4327  0.0579
24096SOL     OW82601  10.311   8.535   3.606 -0.1124 -0.5947 -0.2397
24096SOL    HW182602  10.375   8.561   3.540  0.0308 -1.1461 -0.3212
24096SOL    HW282603  10.281   8.618   3.645  2.4564 -0.3691  1.5263
24097SOL     OW82604   6.084   0.826   3.551 -0.5816  0.1383  0.1502
24097SOL    HW182605   6.106   0.815   3.644 -1.6605 -0.5549  0.3349
24097SOL    HW282606   6.151   0.887   3.519  0.9887 -1.1081  0.9013
24098SOL     OW82607  11.005   9.854   3.379 -0.5806 -0.8789  0.7939
24098SOL    HW182608  11.092   9.849   3.340  0.1972  0.0162  2.3206
24098SOL    HW282609  10.949   9.888   3.309  0.1179 -2.0949 -0.4213
24099SOL     OW82610   5.901   1.453   1.084 -0.5116 -0.1809 -0.3955
24099SOL    HW182611   5.916   1.464   1.178  1.9617  0.5343 -0.8178
24099SOL    HW282612   5.976   1.402   1.053  0.3283  2.1340 -2.4694
24100SOL     OW82613   6.731   8.272  11.529 -0.4351 -0.2431  0.1083
24100SOL    HW182614   6.740   8.312  11.616 -0.5302 -1.5583  0.7427
24100SOL    HW282615   6.636   8.258  11.519 -0.2394 -2.5975  0.9975
24101SOL     OW82616   1.515   2.101   8.271  0.0416  0.1509 -0.1576
24101SOL    HW182617   1.554   2.140   8.349 -0.5606  0.9076 -0.2134
24101SOL    HW282618   1.488   2.176   8.218  0.5470 -0.3505 -1.1517
24102SOL     OW82619   6.844  11.588   9.041 -0.3246  0.3041  0.4473
24102SOL    HW182620   6.855  11.554   9.130 -1.3827 -1.2323  0.0213
24102SOL    HW282621   6.782  11.528   9.000  0.6133  0.6214 -1.5361
24103SOL     OW82622   2.566  10.710   3.005  0.1474  0.4315  0.4663
24103SOL    HW182623   2.600  10.713   2.915 -0.8418  0.3700  0.0832
24103SOL    HW282624   2.644  10.697   3.059  0.6821 -0.2595 -0.4345
24104SOL     OW82625   9.434   9.448   8.328  0.0054 -0.4057 -0.2423
24104SOL    HW182626   9.349   9.426   8.290 -0.5113 -1.7300  1.5383
24104SOL    HW282627   9.426   9.541   8.350  0.3156  0.4162 -3.1422
24105SOL     OW82628   9.512   9.473   9.572 -0.2010  0.8214  0.2168
24105SOL    HW182629   9.605   9.454   9.587 -0.3037  0.6222  0.6069
24105SOL    HW282630   9.466   9.397   9.608 -0.4746  0.5068 -0.7486
24106SOL     OW82631   0.252   1.767   1.916 -0.4835 -0.2448  0.2660
24106SOL    HW182632   0.194   1.836   1.950  0.3467 -0.2091  1.7079
24106SOL    HW282633   0.340   1.799   1.937  0.0381 -0.5785 -1.3371
24107SOL     OW82634   3.625   0.304   0.682  0.2759  0.1870 -0.5224
24107SOL    HW182635   3.671   0.386   0.698 -1.1081  0.8532  0.2543
24107SOL    HW282636   3.536   0.331   0.658  0.2950 -1.0376 -2.1568
24108SOL     OW82637   0.318   4.289   4.568  0.3333  0.6842  0.2272
24108SOL    HW182638   0.299   4.260   4.657  1.8689  0.4239  0.5130
24108SOL    HW282639   0.236   4.278   4.520  0.2434 -2.2897  0.8264
24109SOL     OW82640  11.173   4.409   0.771  0.4710  0.1159  0.0093
24109SOL    HW182641  11.246   4.466   0.795  1.2184 -0.6747 -0.2988
24109SOL    HW282642  11.096   4.450   0.810  1.0186  1.1910 -0.0071
24110SOL     OW82643   6.566   6.527   6.489  0.0154  0.3516  0.4008
24110SOL    HW182644   6.627   6.455   6.499  3.2841  2.7806 -0.1903
24110SOL    HW282645   6.602   6.579   6.417 -3.7668  1.1474 -1.1785
24111SOL     OW82646   3.972   8.542   8.369 -0.4542  0.0284 -0.1819
24111SOL    HW182647   4.048   8.547   8.427 -0.8620  0.5728  0.3209
24111SOL    HW282648   3.935   8.455   8.385 -0.0034 -0.2014 -0.3587
24112SOL     OW82649   5.449  11.651   8.861  0.3886 -0.3873 -0.3545
24112SOL    HW182650   5.502  11.634   8.784  2.0521  0.2673  0.6069
24112SOL    HW282651   5.496  11.610   8.933 -0.9004 -0.6085  0.4029
24113SOL     OW82652   5.713   3.910   4.051  0.2829 -0.1708 -0.3109
24113SOL    HW182653   5.780   3.967   4.015 -0.6345  0.8137 -0.4920
24113SOL    HW282654   5.647   3.969   4.088 -0.5496 -1.1043 -0.2432
24114SOL     OW82655   2.948   8.791   8.956  0.0017  0.5249 -0.2765
24114SOL    HW182656   2.939   8.734   8.879 -1.0002 -0.0814  0.2722
24114SOL    HW282657   2.996   8.738   9.019  1.3436  1.2291 -0.6568
24115SOL     OW82658   3.447   3.281   8.815  0.9696 -0.3421 -0.6412
24115SOL    HW182659   3.518   3.330   8.857 -0.4459 -0.2803  1.8989
24115SOL    HW282660   3.380   3.347   8.798  0.6863 -0.7276 -1.0257
24116SOL     OW82661   1.786   6.136   0.952  0.1867  0.2822  0.2497
24116SOL    HW182662   1.715   6.194   0.981  1.6357  2.0376  0.4915
24116SOL    HW282663   1.866   6.180   0.981  1.3969 -1.7829  0.2633
24117SOL     OW82664  10.446   1.173   0.019 -0.3161  0.4365  0.1775
24117SOL    HW182665  10.509   1.118   0.066  0.1372  0.6721 -0.1578
24117SOL    HW282666  10.488   1.258   0.011  0.5831 -0.1666 -2.5878
24118SOL     OW82667   6.108   3.517   0.476  0.4890  0.4251 -0.7505
24118SOL    HW182668   6.130   3.609   0.488  1.8986  0.0870 -0.5050
24118SOL    HW282669   6.016   3.511   0.499  0.2412  1.8515 -1.2513
24119SOL     OW82670   6.070   7.086   7.519  0.4710  0.6896 -0.0321
24119SOL    HW182671   6.085   7.008   7.572 -1.5217  0.4431  0.2671
24119SOL    HW282672   6.074   7.056   7.429 -1.4295 -0.0670  0.0854
24120SOL     OW82673   3.569  10.892   3.661  0.0543 -0.7262  0.4774
24120SOL    HW182674   3.541  10.966   3.714  0.4846 -1.5800  1.9686
24120SOL    HW282675   3.540  10.815   3.710  0.9176 -1.5593 -0.2683
24121SOL     OW82676   1.467   5.211  12.314 -0.4689 -0.0914 -0.1745
24121SOL    HW182677   1.410   5.288  12.312 -0.8846 -0.3480  0.8404
24121SOL    HW282678   1.452   5.173  12.401  1.9439  0.3589  0.5210
24122SOL     OW82679   7.667   3.356   4.204  0.3693  0.1784  0.4695
24122SOL    HW182680   7.601   3.289   4.219  0.9653 -0.0730  2.2170
24122SOL    HW282681   7.716   3.325   4.127 -0.4095 -0.5246  0.2471
24123SOL     OW82682   9.702   0.127   1.676  0.0694 -0.1235 -0.3226
24123SOL    HW182683   9.712   0.033   1.664  0.3674  0.1895 -3.0194
24123SOL    HW282684   9.792   0.159   1.685  0.0886  0.0737 -1.1464
24124SOL     OW82685  11.676   0.073   2.277 -0.1625  0.0168  0.2502
24124SOL    HW182686  11.680  -0.020   2.258  2.4057  0.2931 -0.9582
24124SOL    HW282687  11.696   0.080   2.370  2.1555 -0.5706 -0.1435
24125SOL     OW82688   0.083   4.972   3.994 -0.0378 -0.0094 -0.9428
24125SOL    HW182689   0.096   4.880   4.019 -0.4248 -0.2573 -1.6500
24125SOL    HW282690   0.064   5.016   4.077 -0.3613 -0.6580 -0.6646
24126SOL     OW82691   4.472   6.456  11.025 -0.0327 -0.1679 -0.2367
24126SOL    HW182692   4.382   6.487  11.023 -1.0598 -2.8966 -0.9514
24126SOL    HW282693   4.481   6.402  10.947  1.2873 -2.2379  1.2238
24127SOL     OW82694  10.123   7.054   4.820 -0.1648 -0.4403  0.7379
24127SOL    HW182695  10.140   7.072   4.912 -0.7371  1.1381  0.5546
24127SOL    HW282696  10.087   7.135   4.785  0.4454 -0.8611 -0.9880
24128SOL     OW82697   1.293   5.815   3.636  0.4276 -0.0572 -0.2117
24128SOL    HW182698   1.386   5.810   3.657  0.2980  0.8806  0.6138
24128SOL    HW282699   1.291   5.855   3.549  0.7734  0.2399 -0.0840
24129SOL     OW82700   0.065   9.163   6.864 -0.0300 -0.0920 -0.1983
24129SOL    HW182701   0.080   9.120   6.780 -1.2967  0.8885 -0.9525
24129SOL    HW282702   0.098   9.253   6.851  0.6660 -0.2031  0.6857
24130SOL     OW82703   8.176   5.618   7.714 -0.3412  0.4851 -0.4040
24130SOL    HW182704   8.137   5.690   7.764 -0.3352  0.6131 -0.5815
24130SOL    HW282705   8.186   5.653   7.626 -1.0692 -0.0071 -0.6836
24131SOL     OW82706   4.283   4.165   8.818 -0.0804 -0.3102  0.0391
24131SOL    HW182707   4.262   4.074   8.794 -0.3222 -0.5329  1.0682
24131SOL    HW282708   4.287   4.164   8.913 -0.1224  0.7812  0.0562
24132SOL     OW82709   3.816   2.450   3.791 -0.2432  0.8462 -0.1716
24132SOL    HW182710   3.825   2.436   3.697 -0.9604  1.1206 -0.2878
24132SOL    HW282711   3.761   2.528   3.799 -0.7971  0.4092  0.4629
24133SOL     OW82712  11.702  10.579  12.534 -0.4125  0.1921  0.3416
24133SOL    HW182713  11.641  10.506  12.535 -0.4856  0.2340 -0.4873
24133SOL    HW282714  11.767  10.556  12.467  0.0461  0.5006  0.6699
24134SOL     OW82715   4.554  10.651   2.555  0.3970  0.4070  0.4447
24134SOL    HW182716   4.545  10.556   2.563  0.0160  0.1136 -2.4682
24134SOL    HW282717   4.480  10.687   2.603 -0.1804 -0.8376  0.5010
24135SOL     OW82718   4.059   5.737  12.029  0.0562 -0.0856 -0.2854
24135SOL    HW182719   4.140   5.787  12.014  1.2736 -1.7227  0.5492
24135SOL    HW282720   4.089   5.651  12.056 -2.0095 -0.4869  0.8790
24136SOL     OW82721   6.546   8.206   2.391  0.3318 -0.0397  0.3407
24136SOL    HW182722   6.539   8.214   2.486 -0.2351 -1.0796  0.4015
24136SOL    HW282723   6.625   8.155   2.377  0.0698 -0.4360  0.2886
24137SOL     OW82724   2.217   9.630   0.882  0.3451 -0.1806 -0.1029
24137SOL    HW182725   2.309   9.654   0.896  0.3188  0.8207 -1.4626
24137SOL    HW282726   2.167   9.693   0.935  0.4268 -2.3290  2.7712
24138SOL     OW82727   6.555   4.458   3.165  0.2322  0.0372  0.1455
24138SOL    HW182728   6.578   4.381   3.113  0.6397 -0.0639  0.4697
24138SOL    HW282729   6.465   4.442   3.193 -0.3643  0.5632 -1.3657
24139SOL     OW82730   0.563   1.802   9.994 -0.0946 -0.5065  0.3766
24139SOL    HW182731   0.499   1.735  10.018  0.1518 -1.0076 -0.3226
24139SOL    HW282732   0.625   1.757   9.936  0.9001 -0.0262  1.0367
24140SOL     OW82733   9.598  10.876  11.343  0.5949 -0.3222  0.0381
24140SOL    HW182734   9.562  10.917  11.265  0.5822 -0.3333  0.0381
24140SOL    HW282735   9.603  10.946  11.407  1.0355 -0.2046 -0.1180
24141SOL     OW82736   7.045   0.820   8.822 -0.3109  0.2772 -0.0751
24141SOL    HW182737   7.072   0.911   8.805 -0.9534  0.2096 -1.6339
24141SOL    HW282738   7.115   0.768   8.782  0.1820  0.0609  1.0325
24142SOL     OW82739   0.816  10.750   3.260 -0.2975  0.4707 -0.0127
24142SOL    HW182740   0.828  10.656   3.269  0.3554  0.4552 -0.9063
24142SOL    HW282741   0.721  10.763   3.261 -0.3694 -0.0955  0.9887
24143SOL     OW82742   4.922   0.013   8.327  0.1282  0.2909 -0.4869
24143SOL    HW182743   4.854  -0.029   8.275  0.0270 -0.5281  0.2856
24143SOL    HW282744   4.981   0.052   8.262  1.2187 -2.5716 -1.3622
24144SOL     OW82745   8.889  10.366   5.874  0.6220  0.4448  0.1015
24144SOL    HW182746   8.939  10.446   5.891 -1.1997  1.4040  1.3567
24144SOL    HW282747   8.919  10.337   5.788  1.8228  2.0990 -0.0994
24145SOL     OW82748   5.104   5.976   4.069  0.3208 -0.0088 -0.0697
24145SOL    HW182749   5.043   5.930   4.126  0.7131  0.3971  0.6890
24145SOL    HW282750   5.133   5.909   4.007 -1.3055 -0.0790 -0.8152
24146SOL     OW82751   5.925   9.875   6.865 -0.9228 -0.1158  0.1467
24146SOL    HW182752   5.970   9.829   6.937  0.0213 -1.1083 -1.0335
24146SOL    HW282753   5.960   9.964   6.868  1.2049 -0.8482 -0.7161
24147SOL     OW82754   4.128   8.874  11.375  0.0378  0.0148  0.6199
24147SOL    HW182755   4.066   8.814  11.416  1.4241 -2.7246 -1.0086
24147SOL    HW282756   4.077   8.919  11.308 -1.0436  0.8062  1.9135
24148SOL     OW82757   1.857   3.140   6.911 -0.3641 -0.0110 -0.2369
24148SOL    HW182758   1.786   3.076   6.911  0.8071 -1.3827  0.8310
24148SOL    HW282759   1.910   3.117   6.988  1.2181  0.9667 -0.9840
24149SOL     OW82760   9.145   3.480   2.580  0.0136  0.1928  0.4571
24149SOL    HW182761   9.132   3.549   2.644  1.2840  0.8755  0.0200
24149SOL    HW282762   9.205   3.418   2.623 -0.0507  0.0582  0.3551
24150SOL     OW82763   1.145  10.620  12.681 -0.1316  0.3001 -0.3894
24150SOL    HW182764   1.189  10.685  12.736  0.0120  0.0773 -0.2394
24150SOL    HW282765   1.064  10.600  12.727  0.0227  0.0605 -0.2263
24151SOL     OW82766  11.247   4.965   6.859 -0.3191  0.8725 -0.1370
24151SOL    HW182767  11.256   4.874   6.886  0.3891  0.9906  0.0576
24151SOL    HW282768  11.254   4.963   6.763 -2.9349  0.4396 -0.4074
24152SOL     OW82769   2.935   4.945   1.107  0.1228 -0.4865  0.3847
24152SOL    HW182770   2.911   5.035   1.083  0.4865 -0.7148 -0.9566
24152SOL    HW282771   3.030   4.941   1.092 -0.0376 -1.3459 -0.5220
24153SOL     OW82772  10.564   5.592   9.357  0.3564 -0.3032 -0.1356
24153SOL    HW182773  10.479   5.624   9.388  0.3165  0.5083 -1.0341
24153SOL    HW282774  10.575   5.632   9.271  0.4203 -2.5771 -1.2662
24154SOL     OW82775   2.788   4.489   6.286 -0.5155  0.7933  0.2065
24154SOL    HW182776   2.721   4.447   6.231  0.6006 -0.2774 -0.3903
24154SOL    HW282777   2.868   4.440   6.267  0.4289  2.0014  0.9541
24155SOL     OW82778   2.375   2.352  12.833  0.6559  0.4219 -0.1796
24155SOL    HW182779   2.377   2.337  12.927 -1.8597  0.2665 -0.0941
24155SOL    HW282780   2.395   2.445  12.823 -1.1640  0.9557  0.7269
24156SOL     OW82781   9.610   3.013  11.185  0.4953  0.2979 -0.1930
24156SOL    HW182782   9.638   2.941  11.129  1.0106 -0.5607  1.0975
24156SOL    HW282783   9.667   3.086  11.162  1.3075 -0.3162 -0.1780
24157SOL     OW82784   6.675   5.456   5.352 -0.1855 -0.1882 -0.0952
24157SOL    HW182785   6.757   5.490   5.387 -0.8168 -0.2755  1.5184
24157SOL    HW282786   6.607   5.493   5.408 -1.0594 -2.2664  0.3300
24158SOL     OW82787   8.258   1.569   9.990 -0.1426 -0.1324 -0.4441
24158SOL    HW182788   8.170   1.598  10.015 -0.3181  0.8583 -2.0644
24158SOL    HW282789   8.260   1.476  10.014 -2.0820 -0.4898 -1.4381
24159SOL     OW82790   0.771  11.691   6.218 -0.0338 -0.1755  0.3545
24159SOL    HW182791   0.846  11.645   6.180 -2.1498 -2.2207 -1.6695
24159SOL    HW282792   0.773  11.778   6.178  1.2682 -0.1908  0.3678
24160SOL     OW82793   8.808  12.164   0.056 -0.0040  0.4057  0.3005
24160SOL    HW182794   8.896  12.169   0.019  0.4685 -0.0865  1.3192
24160SOL    HW282795   8.751  12.194  -0.014  0.8604 -0.4151 -0.7899
24161SOL     OW82796   3.789   9.477   8.508 -0.3537  0.2521  0.4451
24161SOL    HW182797   3.878   9.445   8.497  0.0155  1.6128 -0.9277
24161SOL    HW282798   3.743   9.407   8.554  1.3632 -0.5533  1.0011
24162SOL     OW82799  11.810   7.142   0.847 -0.4097 -0.8394 -0.5439
24162SOL    HW182800  11.815   7.063   0.793  0.7511 -0.4999 -0.9672
24162SOL    HW282801  11.719   7.146   0.875 -1.5379 -0.1509 -3.8701
24163SOL     OW82802   5.722  12.778  12.452  0.2570 -0.1805  0.2444
24163SOL    HW182803   5.709  12.849  12.515  0.4264 -0.6188  0.7781
24163SOL    HW282804   5.683  12.701  12.494 -0.2848 -0.3268 -0.4990
24164SOL     OW82805   2.653   1.479   0.691 -0.0490  0.1917  0.6390
24164SOL    HW182806   2.605   1.459   0.611 -0.7295  3.3395  0.1363
24164SOL    HW282807   2.616   1.420   0.757 -0.7524 -1.2043 -0.9493
24165SOL     OW82808  11.858   1.967   8.174  0.5724 -0.1352  0.1136
24165SOL    HW182809  11.860   1.885   8.223 -1.0436  0.3524  1.0500
24165SOL    HW282810  11.781   1.960   8.118 -0.5991  1.4132  1.4647
24166SOL     OW82811   1.172   0.655   1.722 -0.2698 -0.4771 -0.0741
24166SOL    HW182812   1.225   0.678   1.646 -0.4727  0.4279  0.0457
24166SOL    HW282813   1.093   0.615   1.685 -0.7361  0.6926 -0.3969
24167SOL     OW82814   1.854   8.615   4.474 -0.2078 -0.1695 -0.4321
24167SOL    HW182815   1.815   8.597   4.559 -0.3008  2.8686  0.2976
24167SOL    HW282816   1.781   8.616   4.413 -0.5578  0.4277 -0.0095
24168SOL     OW82817   4.055   2.390  11.217  0.1120  0.0267 -0.1640
24168SOL    HW182818   4.042   2.342  11.136  1.3781 -0.9042  0.1630
24168SOL    HW282819   4.106   2.331  11.273  0.7918  1.3308  0.6472
24169SOL     OW82820   1.309   9.288   5.943  0.0239 -0.9867  0.0223
24169SOL    HW182821   1.373   9.275   5.873 -0.0514 -0.6693 -0.1070
24169SOL    HW282822   1.350   9.352   6.001  0.3415 -1.6933  0.5907
24170SOL     OW82823   2.047   3.978  12.105  0.3642 -0.6785  0.7882
24170SOL    HW182824   2.036   3.885  12.083 -1.0081 -0.4632  0.4299
24170SOL    HW282825   2.104   4.012  12.037 -0.1785 -0.9910  0.1646
24171SOL     OW82826  11.453  10.252   2.849 -0.4768 -0.1922  0.2427
24171SOL    HW182827  11.362  10.274   2.830 -0.9791 -2.8640 -0.9166
24171SOL    HW282828  11.475  10.183   2.786  2.2037  0.0233  0.8117
24172SOL     OW82829   8.625   6.325  11.433  0.0453 -0.3195 -0.3531
24172SOL    HW182830   8.616   6.362  11.346 -3.3086 -0.0343 -0.0360
24172SOL    HW282831   8.538   6.336  11.472  0.9688 -1.9382  2.4183
24173SOL     OW82832  10.746   0.805   2.958  0.5505  0.4396 -0.0984
24173SOL    HW182833  10.688   0.796   2.883 -0.8951 -2.5430  1.2046
24173SOL    HW282834  10.825   0.846   2.923 -0.3647 -0.1012 -3.0298
24174SOL     OW82835  12.049  12.819  11.047  0.0923 -0.3564  0.2880
24174SOL    HW182836  12.061  12.734  11.003  0.9020  0.4537 -1.1027
24174SOL    HW282837  12.133  12.863  11.039 -0.9698  1.5368 -1.1106
24175SOL     OW82838   0.251   4.592  12.936 -0.1185 -0.0027  0.3628
24175SOL    HW182839   0.173   4.646  12.923 -0.0292 -0.1168 -0.7880
24175SOL    HW282840   0.322   4.642  12.895  0.5062  0.2967  1.7706
24176SOL     OW82841   4.182   4.832   9.210 -0.2059 -0.0104 -0.0375
24176SOL    HW182842   4.096   4.872   9.227 -0.7288 -1.0981 -0.0077
24176SOL    HW282843   4.173   4.743   9.244  0.9839 -0.1036  0.0509
24177SOL     OW82844   9.707   9.576   6.626 -0.0492  0.2978  0.3832
24177SOL    HW182845   9.772   9.519   6.668 -0.8977 -1.4974 -0.6259
24177SOL    HW282846   9.624   9.531   6.639 -0.2774 -1.0511 -4.1054
24178SOL     OW82847   0.880  12.573   0.821 -0.2725  0.5079 -0.0916
24178SOL    HW182848   0.910  12.553   0.910  0.5731 -0.8011 -0.6446
24178SOL    HW282849   0.935  12.645   0.793 -0.3318  0.7212  0.3303
24179SOL     OW82850  12.874   6.651  10.408 -0.0654 -0.0171 -0.0296
24179SOL    HW182851  12.860   6.740  10.376 -1.9198 -0.5200 -0.7067
24179SOL    HW282852  12.949   6.659  10.467 -1.5494  2.4480  1.7422
24180SOL     OW82853   3.144   3.181   2.163  0.6521  0.3438 -0.1902
24180SOL    HW182854   3.146   3.276   2.173 -0.4337  0.4434 -0.7620
24180SOL    HW282855   3.107   3.149   2.245  1.3699  0.3755  0.1542
24181SOL     OW82856   4.948   5.486   0.630 -0.0845 -0.1615  0.6211
24181SOL    HW182857   4.912   5.575   0.631 -0.2800 -0.1571 -1.6235
24181SOL    HW282858   4.924   5.452   0.544  0.4905 -2.1968  1.2219
24182SOL     OW82859   6.445   3.366   3.557 -0.1759  0.0903 -0.0551
24182SOL    HW182860   6.372   3.317   3.520 -0.6175  0.9511 -0.3595
24182SOL    HW282861   6.516   3.356   3.494 -0.3824  0.1497 -0.2990
24183SOL     OW82862  10.777   4.920   6.580 -0.1196 -0.3077 -0.1229
24183SOL    HW182863  10.864   4.912   6.618 -0.6383  1.5577  1.6552
24183SOL    HW282864  10.787   4.890   6.490  2.7728  1.4289 -0.5146
24184SOL     OW82865   5.545   3.359   4.272 -0.0621  0.3394 -0.0205
24184SOL    HW182866   5.484   3.289   4.295 -1.0990  1.0640 -0.4896
24184SOL    HW282867   5.631   3.324   4.295 -0.5490 -1.0918 -0.2849
24185SOL     OW82868   2.419   9.213   5.605  0.1754 -0.1030  0.0893
24185SOL    HW182869   2.422   9.241   5.696  1.8524  1.2393 -0.3354
24185SOL    HW282870   2.420   9.294   5.554 -1.5809 -0.7922 -1.1670
24186SOL     OW82871   6.685   2.081   7.281 -0.0984 -0.2460 -0.3552
24186SOL    HW182872   6.686   2.073   7.186 -1.1134 -1.8043 -0.2695
24186SOL    HW282873   6.597   2.115   7.301 -0.4180 -1.3022  0.0930
24187SOL     OW82874  12.129   3.829   8.389 -0.0803  0.0356 -0.5005
24187SOL    HW182875  12.062   3.801   8.327  1.4671 -0.7909 -1.8833
24187SOL    HW282876  12.101   3.916   8.417 -3.9251 -1.8275  2.2970
24188SOL     OW82877   6.235  11.563   3.342  0.3010  0.2657 -0.0788
24188SOL    HW182878   6.257  11.543   3.433 -1.4862  0.2490  0.3790
24188SOL    HW282879   6.238  11.658   3.337  0.0521  0.2821  0.0874
24189SOL     OW82880   0.847   2.426   4.046 -0.4815  0.3819 -0.0554
24189SOL    HW182881   0.912   2.443   4.114 -0.8810  0.0639  0.4110
24189SOL    HW282882   0.763   2.439   4.089 -0.8347 -2.3692  0.2671
24190SOL     OW82883   4.598   7.048   1.255  0.2034 -0.3842  0.0530
24190SOL    HW182884   4.606   6.957   1.226 -0.3337 -0.2300 -0.6066
24190SOL    HW282885   4.623   7.046   1.347 -1.1051 -1.4329  0.4160
24191SOL     OW82886   7.135   4.757   1.777 -0.7691  0.2370 -0.2232
24191SOL    HW182887   7.160   4.668   1.752  0.5504  0.1546  1.2130
24191SOL    HW282888   7.041   4.752   1.789 -0.5706 -1.3664  1.1472
24192SOL     OW82889   7.134   4.661  12.762 -0.0900 -0.3489  0.0820
24192SOL    HW182890   7.126   4.566  12.757  0.8649 -0.3978 -0.9369
24192SOL    HW282891   7.057   4.689  12.811 -2.1134 -1.3924 -2.3039
24193SOL     OW82892   9.382  10.602   9.431 -0.2605  0.7012 -0.1176
24193SOL    HW182893   9.379  10.625   9.524 -1.1664  0.1305  0.0073
24193SOL    HW282894   9.319  10.661   9.390 -1.8226 -0.7769  0.0492
24194SOL     OW82895   8.846   8.134  12.941 -0.1769  0.8689 -0.6912
24194SOL    HW182896   8.904   8.063  12.913 -0.2404  2.0458 -4.4254
24194SOL    HW282897   8.815   8.172  12.859 -1.7832  3.9111  1.1674
24195SOL     OW82898   2.610   0.820   4.722  0.1143 -0.6200 -0.1291
24195SOL    HW182899   2.532   0.816   4.667 -0.1912 -0.3535  0.2793
24195SOL    HW282900   2.585   0.773   4.802  0.7676 -1.5796 -0.4605
24196SOL     OW82901   6.248   0.951   6.861 -0.1390 -0.3853 -0.5259
24196SOL    HW182902   6.299   0.950   6.942 -0.3684 -0.6030 -0.3839
24196SOL    HW282903   6.310   0.923   6.793  0.5107  1.3393 -0.6999
24197SOL     OW82904   6.099   7.140   1.012  0.0237 -0.2283 -0.0165
24197SOL    HW182905   6.023   7.095   0.975 -0.7108 -0.3485  1.5399
24197SOL    HW282906   6.137   7.188   0.939 -1.9597  0.3776 -0.7135
24198SOL     OW82907   9.399   8.097  12.176 -0.0864 -0.1253 -0.9700
24198SOL    HW182908   9.326   8.126  12.122  0.4264 -0.1740 -1.7005
24198SOL    HW282909   9.478   8.128  12.130  0.3906 -0.9556 -0.7449
24199SOL     OW82910   5.720   2.732   5.612 -0.9151 -0.2758  0.9431
24199SOL    HW182911   5.695   2.643   5.587 -0.6900  0.3811 -1.9303
24199SOL    HW282912   5.813   2.738   5.591 -1.2282  1.0093 -0.2625
24200SOL     OW82913   0.556   8.336   1.008 -0.1924 -0.2447  0.1903
24200SOL    HW182914   0.543   8.427   1.034  1.5738 -0.2666  1.3237
24200SOL    HW282915   0.591   8.293   1.086  2.0315 -1.1320 -1.1722
24201SOL     OW82916   8.051   9.622   2.999  0.7954  0.5804  0.6194
24201SOL    HW182917   7.983   9.688   3.009 -0.6296 -0.7341  0.0065
24201SOL    HW282918   8.086   9.610   3.087  0.3150  1.3513  0.9239
24202SOL     OW82919   8.952   7.133   0.607  0.1602  0.2190  0.4016
24202SOL    HW182920   8.966   7.192   0.681 -0.4596  2.6045 -1.2466
24202SOL    HW282921   8.857   7.134   0.594 -0.0024 -2.0781  0.9688
24203SOL     OW82922   7.312  11.711   2.612 -0.0615 -0.6001 -0.5699
24203SOL    HW182923   7.273  11.791   2.647 -1.6953 -0.1371 -3.1429
24203SOL    HW282924   7.290  11.644   2.676 -0.4945  0.6337  0.6253
24204SOL     OW82925   4.130   3.621   5.866 -0.2938  0.4782  0.0381
24204SOL    HW182926   4.091   3.599   5.951  0.6524 -1.8646 -0.0669
24204SOL    HW282927   4.213   3.663   5.888  0.1666 -0.5463  0.3008
24205SOL     OW82928  10.402   8.770   8.007  0.0102 -0.0580 -0.0154
24205SOL    HW182929  10.471   8.802   8.065  1.1704 -2.1540 -0.1486
24205SOL    HW282930  10.448   8.748   7.926 -0.6022 -2.4245  0.2327
24206SOL     OW82931   5.890  10.569   4.870 -0.1352 -0.3853 -0.5145
24206SOL    HW182932   5.888  10.537   4.960  1.6139 -0.5427 -0.4806
24206SOL    HW282933   5.809  10.617   4.859 -0.3236 -0.2655  1.1912
24207SOL     OW82934   8.655   9.498   3.577  0.3994  0.6125  0.2213
24207SOL    HW182935   8.665   9.444   3.499  2.5012  0.7999  0.3189
24207SOL    HW282936   8.562   9.492   3.598  0.0186 -0.4337 -1.5676
24208SOL     OW82937   9.103   1.307   7.238 -0.7184 -0.6136  0.6122
24208SOL    HW182938   9.117   1.342   7.326 -1.1703 -2.0585  1.2841
24208SOL    HW282939   9.009   1.291   7.234 -0.5959 -1.2373  0.1277
24209SOL     OW82940  12.344   3.506   2.278  0.2576  0.0497 -0.2541
24209SOL    HW182941  12.258   3.480   2.245 -0.4917  0.1053  1.5528
24209SOL    HW282942  12.395   3.424   2.279  0.2800  0.0327 -1.4097
24210SOL     OW82943   8.326   5.897   6.384 -0.4489  0.5783 -0.1297
24210SOL    HW182944   8.288   5.817   6.422 -0.5871  1.0412  0.7406
24210SOL    HW282945   8.268   5.967   6.412 -0.7514  0.9106 -1.5324
24211SOL     OW82946   2.108   4.014   8.743 -0.6023 -0.1365  0.4767
24211SOL    HW182947   2.105   4.013   8.838  0.3309 -0.1703  0.5201
24211SOL    HW282948   2.079   3.926   8.717  0.3561 -0.5612  0.7933
24212SOL     OW82949  12.212  12.830   7.074 -0.1672  0.0557 -0.2002
24212SOL    HW182950  12.254  12.900   7.124  0.8008 -1.6385  1.4768
24212SOL    HW282951  12.245  12.842   6.985  0.8104  1.1159  0.2714
24213SOL     OW82952   4.258  11.353   9.858 -0.1379  0.2476  0.0697
24213SOL    HW182953   4.172  11.392   9.878  0.8795  2.7184 -0.0110
24213SOL    HW282954   4.304  11.352   9.942 -0.0056 -0.4928 -0.0036
24214SOL     OW82955   1.870  12.819  12.929  0.0337 -0.4236 -0.2361
24214SOL    HW182956   1.954  12.774  12.923  0.9598  1.0174  0.9717
24214SOL    HW282957   1.807  12.751  12.951  0.8531 -1.5544 -1.2744
24215SOL     OW82958   0.572  12.472   9.128 -0.6075 -0.2223 -0.2649
24215SOL    HW182959   0.576  12.480   9.033 -0.5508  0.6467 -0.2017
24215SOL    HW282960   0.484  12.501   9.151 -0.2162  0.7833  0.0394
24216SOL     OW82961   9.713  12.261  12.724  0.1903  0.1340 -0.0569
24216SOL    HW182962   9.702  12.179  12.675  1.6045  0.2399 -0.6103
24216SOL    HW282963   9.754  12.233  12.806  2.7359  0.4371 -1.1317
24217SOL     OW82964   0.298   0.077  10.123  0.3477  0.5414 -0.1694
24217SOL    HW182965   0.298   0.013  10.052  1.5135 -0.0757  0.3537
24217SOL    HW282966   0.236   0.145  10.094  0.2231 -0.0652 -1.4135
24218SOL     OW82967   4.484  10.103   1.507 -0.2676 -0.0105  0.7484
24218SOL    HW182968   4.452  10.193   1.511  0.8054  0.3331  2.6817
24218SOL    HW282969   4.574  10.108   1.539  0.7860 -1.3962 -1.6542
24219SOL     OW82970   1.257  11.524   6.227  0.1353 -0.3517  0.5974
24219SOL    HW182971   1.333  11.508   6.170 -0.7033  0.5114 -0.8300
24219SOL    HW282972   1.295  11.541   6.313  1.7021  1.5647 -0.3791
24220SOL     OW82973   5.681   7.570   3.606 -0.2188  0.1452 -0.2493
24220SOL    HW182974   5.763   7.619   3.606  0.0898 -0.3632 -0.7540
24220SOL    HW282975   5.676   7.532   3.694 -0.4647  1.0752  0.1504
24221SOL     OW82976   9.006   4.476   8.414  0.5732 -0.0472  0.0948
24221SOL    HW182977   9.033   4.513   8.498 -3.7369 -0.0225  1.6903
24221SOL    HW282978   9.009   4.381   8.427  1.9123 -0.1296 -0.5558
24222SOL     OW82979   5.178  12.298   9.462  0.7624 -0.5401 -0.7406
24222SOL    HW182980   5.264  12.258   9.473  1.8261  0.7527 -3.4504
24222SOL    HW282981   5.196  12.389   9.440 -1.1931 -0.4692 -2.4461
24223SOL     OW82982   9.548   2.598   4.342  0.4876  0.5797  0.0386
24223SOL    HW182983   9.531   2.611   4.436 -2.7456  1.6004 -0.5781
24223SOL    HW282984   9.605   2.671   4.318  0.2218  1.0967  0.9267
24224SOL     OW82985   5.248   2.280   8.356 -0.2717  0.0237 -0.0105
24224SOL    HW182986   5.231   2.263   8.263 -0.6084  0.9678 -0.1345
24224SOL    HW282987   5.162   2.305   8.391  0.2084  1.6847  0.0799
24225SOL     OW82988   3.053   2.934   5.239 -0.1319  0.1020  0.5856
24225SOL    HW182989   3.030   2.881   5.162  2.1681  2.0528 -1.6288
24225SOL    HW282990   2.980   2.921   5.299 -2.8749 -0.3950 -2.5262
24226SOL     OW82991  10.496   4.972  10.516 -0.1550 -0.2671  0.0046
24226SOL    HW182992  10.566   4.917  10.550 -0.0769 -0.1175  0.0882
24226SOL    HW282993  10.448   5.001  10.594  0.7023  0.9853  0.0830
24227SOL     OW82994   7.391   4.911   5.884  0.1075  0.1808 -0.0534
24227SOL    HW182995   7.337   4.975   5.930 -1.5966  0.9421 -2.8601
24227SOL    HW282996   7.480   4.927   5.915 -0.8240  1.0357  2.3865
24228SOL     OW82997   1.499   5.381   8.871 -0.0943 -0.1624  0.2479
24228SOL    HW182998   1.500   5.381   8.967 -0.5419 -1.8598  0.2880
24228SOL    HW282999   1.425   5.438   8.848 -0.4906 -0.3861  0.9324
24229SOL     OW83000   8.214  10.835   1.033 -0.1038  0.6682  0.0384
24229SOL    HW183001   8.118  10.827   1.034 -0.0400 -0.4952 -0.9409
24229SOL    HW283002   8.243  10.784   1.109 -0.2247  0.2366 -0.2009
24230SOL     OW83003   8.366   9.874   9.303 -0.2187 -0.3624  0.1527
24230SOL    HW183004   8.324   9.956   9.329 -1.6048 -1.4768  1.6347
24230SOL    HW283005   8.385   9.830   9.386 -0.0519 -1.8005 -0.6199
24231SOL     OW83006  10.146   7.247  12.888  0.0897 -0.6379 -0.5794
24231SOL    HW183007  10.216   7.224  12.827 -0.0472 -0.0897 -0.9609
24231SOL    HW283008  10.139   7.173  12.947  1.8256 -0.2095  0.2356
24232SOL     OW83009   8.719   2.338   1.767 -0.0132 -0.9433  0.2676
24232SOL    HW183010   8.749   2.330   1.677 -0.7728 -0.6190 -0.0203
24232SOL    HW283011   8.799   2.333   1.819  0.6928  0.9175 -0.5379
24233SOL     OW83012  12.638   9.943   7.015 -0.0832  0.8418 -0.5674
24233SOL    HW183013  12.595   9.891   6.948  0.4314 -1.1754  0.5909
24233SOL    HW283014  12.572   9.953   7.083  0.1909  0.6642 -0.2714
24234SOL     OW83015  12.128   0.544   4.008  0.1074 -0.2236 -0.4674
24234SOL    HW183016  12.086   0.520   4.091  1.9638  0.0440  0.6011
24234SOL    HW283017  12.197   0.478   3.997  1.0844  0.8371 -0.8182
24235SOL     OW83018   9.175   4.374   3.537 -0.1916 -0.4083 -0.9625
24235SOL    HW183019   9.155   4.461   3.502  0.9357 -0.1376 -0.9506
24235SOL    HW283020   9.148   4.380   3.629  2.4456  0.8868 -0.1777
24236SOL     OW83021  12.199   9.244   2.621 -0.0082 -0.3436 -0.5800
24236SOL    HW183022  12.128   9.249   2.685 -0.5312 -0.5707 -1.1360
24236SOL    HW283023  12.223   9.336   2.606 -0.8160 -0.2003 -1.0745
24237SOL     OW83024   5.170  10.771   6.438  0.2519 -0.2524  0.5031
24237SOL    HW183025   5.083  10.776   6.399  1.5136  0.3744 -2.5091
24237SOL    HW283026   5.187  10.859   6.470  0.8527  0.4844 -1.6573
24238SOL     OW83027   2.963   6.892   7.536  0.6815  0.1015  0.7689
24238SOL    HW183028   2.913   6.843   7.472  0.3392  0.7856  0.4962
24238SOL    HW283029   2.955   6.843   7.617  2.4465 -1.6510 -0.0394
24239SOL     OW83030   6.815   8.941   2.802 -0.2563 -0.2622  0.5780
24239SOL    HW183031   6.846   8.851   2.788 -0.4948 -0.4711  1.3692
24239SOL    HW283032   6.755   8.934   2.876  1.1389  0.8614  1.8684
24240SOL     OW83033   9.775   6.043   9.300  0.5686 -0.4777  0.4918
24240SOL    HW183034   9.787   5.997   9.217  0.3026 -1.6995  1.1134
24240SOL    HW283035   9.748   6.132   9.274 -1.4218 -1.3580 -0.7322
24241SOL     OW83036   4.437  10.378  11.478  0.0977  0.3474 -0.1856
24241SOL    HW183037   4.389  10.311  11.525  0.5319  0.0885 -0.1065
24241SOL    HW283038   4.409  10.461  11.517 -0.3909  0.2060 -0.2411
24242SOL     OW83039   8.483   7.945   5.915 -0.5915  0.3920 -0.2540
24242SOL    HW183040   8.399   7.992   5.913 -0.5698  0.4015 -1.4397
24242SOL    HW283041   8.466   7.864   5.867 -0.1619 -0.0364  0.3075
24243SOL     OW83042   6.416  10.501   6.446  0.4603 -0.0813 -0.2850
24243SOL    HW183043   6.430  10.435   6.514 -1.6551 -1.1555 -0.8248
24243SOL    HW283044   6.504  10.534   6.427  1.4178 -1.7070  1.0224
24244SOL     OW83045   1.524  10.445   2.624 -0.1046 -0.4187  0.2579
24244SOL    HW183046   1.548  10.439   2.717 -0.9004  0.1393  0.5106
24244SOL    HW283047   1.550  10.360   2.588  1.8871  0.0115  0.5743
24245SOL     OW83048   7.792   4.330   5.681  0.5779  0.2249  0.2641
24245SOL    HW183049   7.885   4.352   5.679  0.0860  2.4535 -0.2871
24245SOL    HW283050   7.755   4.383   5.751 -0.1321 -1.4481  1.2088
24246SOL     OW83051   8.249   1.796   9.399  0.0382  0.2362 -0.3117
24246SOL    HW183052   8.177   1.735   9.415  0.4091  0.0441  0.6880
24246SOL    HW283053   8.276   1.825   9.486  1.4294  0.0038 -0.6409
24247SOL     OW83054   1.907  10.367   7.674 -0.1714 -0.1164 -0.0227
24247SOL    HW183055   1.984  10.313   7.689 -0.1540  0.2747  1.4768
24247SOL    HW283056   1.887  10.406   7.759 -1.3077  0.7503 -0.6371
24248SOL     OW83057   5.002  11.012   6.339  0.7621 -0.1052  0.2153
24248SOL    HW183058   4.913  10.984   6.320 -0.7242  2.5866  2.4457
24248SOL    HW283059   5.033  11.052   6.258 -0.3875 -0.2744 -0.3204
24249SOL     OW83060  10.249  11.573   4.875 -0.1670 -0.4515 -0.6761
24249SOL    HW183061  10.336  11.538   4.895 -0.3277 -0.7624 -0.5187
24249SOL    HW283062  10.188  11.514   4.919 -0.3781  1.3099  1.6275
24250SOL     OW83063  12.765   8.593  12.467  0.3434  0.6187  0.2431
24250SOL    HW183064  12.819   8.671  12.453  1.6516  0.0454  1.7994
24250SOL    HW283065  12.755   8.588  12.562 -1.2645 -0.1229  0.0696
24251SOL     OW83066  11.900   6.392   4.857 -0.6133 -0.0840 -0.7872
24251SOL    HW183067  11.828   6.336   4.885 -0.2864 -0.6621 -1.0784
24251SOL    HW283068  11.859   6.456   4.799 -0.8565 -0.6178 -1.2253
24252SOL     OW83069   9.127   8.725   4.718  0.3846  0.7973  0.1148
24252SOL    HW183070   9.150   8.782   4.646  1.1271  1.2608  0.7036
24252SOL    HW283071   9.032   8.737   4.729  0.2605  0.6977 -0.7805
24253SOL     OW83072   7.482  11.238   5.460 -0.1987  0.1414  0.4270
24253SOL    HW183073   7.473  11.150   5.497  0.0309 -0.3364 -0.6151
24253SOL    HW283074   7.555  11.231   5.398  0.9057  1.4774  1.4946
24254SOL     OW83075   7.355  12.163  12.757 -0.1754  0.2479  0.1657
24254SOL    HW183076   7.302  12.151  12.836 -0.1758 -0.5884  0.0483
24254SOL    HW283077   7.342  12.082  12.707  1.9384 -0.4161  0.5696
24255SOL     OW83078  11.812   5.247  11.661 -0.5555  0.2311 -0.1795
24255SOL    HW183079  11.748   5.250  11.732 -1.0140 -2.7002 -0.3628
24255SOL    HW283080  11.763   5.213  11.586  0.5742  0.6586 -1.1402
24256SOL     OW83081   5.324   2.945  10.552  0.3528 -0.4840  0.8523
24256SOL    HW183082   5.325   2.849  10.553  0.2094 -0.4856  0.6065
24256SOL    HW283083   5.232   2.969  10.551  0.3919 -0.3411  0.7157
24257SOL     OW83084   7.583   3.750   3.720 -0.2769 -0.7099  0.9638
24257SOL    HW183085   7.556   3.819   3.781  0.2081 -0.4827  0.9299
24257SOL    HW283086   7.591   3.795   3.636 -0.9087 -1.0144  0.7357
24258SOL     OW83087   1.644   2.969   5.806  0.4209  0.1711 -0.1768
24258SOL    HW183088   1.721   3.012   5.843  1.2725  0.6222 -2.3523
24258SOL    HW283089   1.644   2.882   5.847 -0.6104  1.6341  3.3076
24259SOL     OW83090  12.127   4.749   4.542 -0.2572 -0.3333  0.0203
24259SOL    HW183091  12.176   4.676   4.503 -0.4830 -0.1442 -0.6281
24259SOL    HW283092  12.174   4.768   4.623 -2.0009 -3.2815  1.8968
24260SOL     OW83093   5.595   2.197   4.631 -0.4197  0.1390 -0.0080
24260SOL    HW183094   5.689   2.179   4.626  0.1445  2.0878  2.1414
24260SOL    HW283095   5.588   2.273   4.688 -3.2795  0.5553 -0.7619
24261SOL     OW83096  10.483   8.640   1.278  0.3217  0.0431 -0.1924
24261SOL    HW183097  10.500   8.665   1.187 -0.4243 -3.7588 -1.5646
24261SOL    HW283098  10.559   8.588   1.303  0.4006  0.8395  1.3419
24262SOL     OW83099   1.710   2.798   3.755 -0.4359  0.4948 -0.5546
24262SOL    HW183100   1.754   2.832   3.833 -0.1187 -0.7518 -0.1667
24262SOL    HW283101   1.650   2.732   3.788  1.2236 -1.5987 -1.4774
24263SOL     OW83102   1.876  11.456   1.219  0.0030 -0.4285  0.8191
24263SOL    HW183103   1.821  11.415   1.287 -1.0821 -0.6012 -0.1325
24263SOL    HW283104   1.878  11.391   1.149  0.3331  0.1414  0.3005
24264SOL     OW83105  10.802   9.452   6.860 -0.5742 -0.4500 -0.5013
24264SOL    HW183106  10.788   9.363   6.827  0.4707 -1.8287  2.3826
24264SOL    HW283107  10.893   9.452   6.890 -0.8588  1.2625  0.4781
24265SOL     OW83108   8.724  12.095  10.540  0.0940 -0.5859 -0.2254
24265SOL    HW183109   8.705  12.143  10.459  0.4663 -0.2300 -0.1080
24265SOL    HW283110   8.671  12.139  10.606 -1.7234 -2.1057 -0.6199
24266SOL     OW83111   1.657  12.204   5.425 -0.2494 -0.7576  0.0158
24266SOL    HW183112   1.575  12.248   5.449  0.1532 -1.2306  2.4816
24266SOL    HW283113   1.663  12.216   5.330 -2.4777  0.4579 -0.0478
24267SOL     OW83114   6.885   9.573   6.204  0.0757  0.2692 -0.2779
24267SOL    HW183115   6.860   9.546   6.116  0.6108  0.1712 -0.4063
24267SOL    HW283116   6.830   9.520   6.262 -0.9169  0.9726 -0.5500
24268SOL     OW83117   7.020   4.875  12.541 -0.0112  0.3543 -0.0391
24268SOL    HW183118   7.042   4.822  12.617 -0.3042 -0.4396 -0.4954
24268SOL    HW283119   7.104   4.891  12.498 -0.0527 -0.9726 -0.6786
24269SOL     OW83120   4.428  11.638   1.888 -0.3525 -0.1518 -0.2108
24269SOL    HW183121   4.459  11.657   1.799  2.3592 -2.8063 -0.0186
24269SOL    HW283122   4.440  11.719   1.936  0.2260  0.7128 -1.7450
24270SOL     OW83123   7.307   3.909   7.111 -0.1250  0.3441 -0.0311
24270SOL    HW183124   7.328   3.895   7.204 -2.4247 -0.3706  0.4384
24270SOL    HW283125   7.284   4.002   7.106 -1.2800  0.0898  0.4053
24271SOL     OW83126   7.075   3.187   9.162  0.1452  0.1534  0.2585
24271SOL    HW183127   7.016   3.245   9.115  1.0886 -0.5265 -1.9281
24271SOL    HW283128   7.113   3.241   9.231 -1.6108  1.1007  0.5253
24272SOL     OW83129  10.503   3.191   9.855  0.5493 -0.4088  0.1991
24272SOL    HW183130  10.593   3.213   9.831  0.0018 -0.0444 -1.6251
24272SOL    HW283131  10.489   3.104   9.818  0.3677 -0.7940  1.1339
24273SOL     OW83132   0.031   9.698   5.659 -0.1794 -0.4109  0.1008
24273SOL    HW183133  -0.058   9.724   5.682 -0.2465 -0.6251  0.0929
24273SOL    HW283134   0.079   9.780   5.650 -0.2766 -0.3065  0.5019
24274SOL     OW83135   9.855   0.203   2.429  0.2472  0.3912  0.0176
24274SOL    HW183136   9.799   0.184   2.354 -0.2147 -0.0896  0.4713
24274SOL    HW283137   9.796   0.244   2.492  0.4007 -0.1189  0.5030
24275SOL     OW83138  10.647   9.768   9.376 -0.1305  0.4074  0.5141
24275SOL    HW183139  10.630   9.678   9.403  1.7768 -0.1958 -0.1418
24275SOL    HW283140  10.685   9.760   9.289 -3.0694  2.0948 -1.0991
24276SOL     OW83141  11.015   9.370  10.487 -0.0968  0.4585  0.1181
24276SOL    HW183142  11.008   9.459  10.521 -1.1748  0.4707 -0.1059
24276SOL    HW283143  10.988   9.314  10.559  2.1689  0.1629  0.8299
24277SOL     OW83144   1.342   1.836   9.374 -0.8413 -0.3786  0.0780
24277SOL    HW183145   1.346   1.906   9.439 -1.8416 -0.3625  0.1402
24277SOL    HW283146   1.433   1.809   9.363 -0.4603  0.7598  0.2327
24278SOL     OW83147  12.657   4.130   5.442 -0.4034  0.8174  0.2639
24278SOL    HW183148  12.626   4.136   5.352  0.4100  1.1570  0.0001
24278SOL    HW283149  12.593   4.180   5.493 -0.5900  1.0431 -0.1861
24279SOL     OW83150  11.761  10.013   0.828  0.3346 -0.6254  0.1451
24279SOL    HW183151  11.759   9.926   0.868 -1.2359  0.2375  2.1639
24279SOL    HW283152  11.692  10.012   0.762 -1.2386 -0.3461  1.6885
24280SOL     OW83153  10.932  12.740   1.203  0.2253  0.4561  0.2987
24280SOL    HW183154  10.982  12.660   1.186 -1.3423 -0.1341 -2.0457
24280SOL    HW283155  10.990  12.811   1.174  0.9718  0.0596  0.7838
24281SOL     OW83156   4.672   2.459  11.574 -0.3035  0.4477 -0.0047
24281SOL    HW183157   4.736   2.443  11.642  0.0630  1.4882 -0.0962
24281SOL    HW283158   4.720   2.448  11.492 -0.2425  1.2138 -0.0733
24282SOL     OW83159   2.684   2.966   2.053 -0.2904  0.0313 -0.3021
24282SOL    HW183160   2.709   2.876   2.076  0.8050  0.0198 -1.4603
24282SOL    HW283161   2.753   2.996   1.995 -1.0161  1.3924 -0.4947
24283SOL     OW83162   1.553   4.750  11.722  0.4628 -0.1406  0.3117
24283SOL    HW183163   1.461   4.740  11.698  1.0160 -1.9357 -1.3900
24283SOL    HW283164   1.554   4.743  11.817 -1.0415 -1.4059  0.2794
24284SOL     OW83165   2.824  10.785   4.542 -0.5753 -0.2904 -0.2188
24284SOL    HW183166   2.752  10.724   4.551 -0.7686 -0.0541 -0.1478
24284SOL    HW283167   2.794  10.865   4.586 -0.0086 -0.4101  0.4045
24285SOL     OW83168   4.610  12.616   7.347  1.0464  0.1380 -0.1004
24285SOL    HW183169   4.532  12.581   7.305  0.8282 -2.7970  2.3936
24285SOL    HW283170   4.673  12.626   7.276 -0.8263  0.4310 -1.8277
24286SOL     OW83171   7.223   6.369  10.457  0.5008 -0.5949  0.3318
24286SOL    HW183172   7.193   6.437  10.396  1.4192  0.9629  1.5267
24286SOL    HW283173   7.161   6.297  10.445 -1.2498  0.9163 -0.1499
24287SOL     OW83174   4.751  12.954  11.328  0.0124  0.1454 -0.0611
24287SOL    HW183175   4.680  13.019  11.330 -1.9513 -1.8618 -0.8944
24287SOL    HW283176   4.776  12.948  11.236  1.2580  0.7465  0.2104
24288SOL     OW83177   8.588   8.877   3.974 -0.0629 -0.9401 -0.3773
24288SOL    HW183178   8.538   8.949   3.935  0.2395 -1.3002 -1.4608
24288SOL    HW283179   8.522   8.811   3.994 -0.4122 -0.1976  1.0760
24289SOL     OW83180   9.314   9.711   3.719 -0.0786  0.2134 -0.4444
24289SOL    HW183181   9.269   9.796   3.722 -3.4099 -1.2736 -2.3552
24289SOL    HW283182   9.298   9.672   3.805 -3.2120 -0.4868 -1.2172
24290SOL     OW83183   9.503  11.495   6.996 -0.3009 -0.1276 -0.2241
24290SOL    HW183184   9.566  11.560   6.966  1.2359 -1.0204  0.9514
24290SOL    HW283185   9.504  11.427   6.929 -1.1917  0.5567 -0.9659
24291SOL     OW83186   9.888   3.402   0.081 -0.2113 -0.1016 -0.2513
24291SOL    HW183187   9.848   3.357   0.155 -0.4341  0.2139 -0.1793
24291SOL    HW283188   9.959   3.344   0.053 -0.3908 -0.4185 -0.0548
24292SOL     OW83189   8.677   5.336   2.483 -0.4553  0.3995  0.0224
24292SOL    HW183190   8.727   5.378   2.554 -0.9475 -0.0724  0.6628
24292SOL    HW283191   8.586   5.344   2.510 -0.6555  0.2521 -0.5901
24293SOL     OW83192   3.744  12.869   6.033  0.2083  0.2343 -0.4784
24293SOL    HW183193   3.649  12.864   6.019  0.3175  0.2900 -1.2760
24293SOL    HW283194   3.754  12.874   6.128 -0.6323  1.1155 -0.4185
24294SOL     OW83195  11.468   6.082   3.735  0.3614  0.3971 -0.5372
24294SOL    HW183196  11.487   6.008   3.678 -0.0773  0.6320 -0.9902
24294SOL    HW283197  11.501   6.055   3.821 -0.9163 -0.8462 -0.4054
24295SOL     OW83198   8.185  12.842   3.899  0.8190 -0.3119 -0.4914
24295SOL    HW183199   8.091  12.824   3.903  0.6771  0.2048 -1.2854
24295SOL    HW283200   8.204  12.892   3.979  0.4132 -0.3636 -0.3628
24296SOL     OW83201   3.889   9.758   6.731 -0.3073  0.1556 -0.2211
24296SOL    HW183202   3.841   9.841   6.726  0.5764  0.8363  1.4785
24296SOL    HW283203   3.957   9.766   6.664  0.4015  1.3024  0.5749
24297SOL     OW83204  10.563   2.045  10.311 -0.4201  0.6092 -1.1729
24297SOL    HW183205  10.593   2.062  10.222  0.6267 -0.0639 -0.9670
24297SOL    HW283206  10.585   2.124  10.359  0.1063  0.5173 -1.2563
24298SOL     OW83207   0.355   2.625  12.464 -0.3719 -0.3850 -0.1848
24298SOL    HW183208   0.433   2.570  12.458 -0.1286  0.0078 -0.6588
24298SOL    HW283209   0.285   2.571  12.428  0.0780  0.0058 -1.7068
24299SOL     OW83210  12.263   6.819   4.527 -0.6736  0.3438 -0.1707
24299SOL    HW183211  12.189   6.761   4.510  0.4900 -0.5122 -2.8640
24299SOL    HW283212  12.247   6.853   4.616 -2.4594 -2.4748  0.7181
24300SOL     OW83213   1.617  10.279   7.734  0.0694  0.1866  0.1021
24300SOL    HW183214   1.700  10.305   7.695  0.3895 -0.1293  0.5632
24300SOL    HW283215   1.551  10.331   7.688  0.2227 -1.4840 -2.2052
24301SOL     OW83216   5.190   7.847   1.896  0.6774 -0.4788 -1.1698
24301SOL    HW183217   5.266   7.900   1.921  0.1881 -1.3043  2.5905
24301SOL    HW283218   5.116   7.908   1.901  0.6878 -0.4210 -1.6702
24302SOL     OW83219   8.448   5.210   6.877 -0.4827  0.1403  0.4135
24302SOL    HW183220   8.514   5.181   6.940  0.9889 -0.7957 -1.4709
24302SOL    HW283221   8.374   5.151   6.891 -0.0052 -0.3415  0.9457
24303SOL     OW83222   5.653  10.916   7.084 -0.2214 -0.0840  0.5450
24303SOL    HW183223   5.701  10.995   7.060  0.1658  0.0374  1.6636
24303SOL    HW283224   5.594  10.900   7.011 -0.5159  1.4074  0.4401
24304SOL     OW83225   1.463   4.735  12.479 -0.2163 -0.0496  0.6559
24304SOL    HW183226   1.374   4.701  12.469 -0.5856  1.0482  0.0796
24304SOL    HW283227   1.518   4.666  12.443 -1.0607  0.5809 -2.0933
24305SOL     OW83228   1.749   8.036   4.120  0.2844  0.1732  0.0338
24305SOL    HW183229   1.688   7.977   4.077  0.4886  0.6452 -0.9307
24305SOL    HW283230   1.832   7.989   4.122  0.0005 -0.3035  0.9658
24306SOL     OW83231   5.358  11.844   4.919 -0.1317  0.3143 -0.3714
24306SOL    HW183232   5.446  11.858   4.955 -0.1779 -0.3236  0.0074
24306SOL    HW283233   5.307  11.812   4.994 -0.8621  1.2998 -0.4205
24307SOL     OW83234   2.406   4.407   6.984 -0.2445 -0.0561  0.5917
24307SOL    HW183235   2.359   4.488   7.000  1.2168  1.0466 -0.4314
24307SOL    HW283236   2.469   4.400   7.055  0.1328  0.1015  0.2760
24308SOL     OW83237  10.238   2.662   8.148 -0.9455 -0.2894  0.4571
24308SOL    HW183238  10.303   2.727   8.173  0.1436 -0.1453 -2.3118
24308SOL    HW283239  10.224   2.610   8.227  2.5618 -0.3292  1.2469
24309SOL     OW83240  10.050  12.202  12.745 -0.0144  0.0494  0.2787
24309SOL    HW183241  10.025  12.290  12.770  0.8971  0.6557 -0.8188
24309SOL    HW283242  10.146  12.205  12.740  0.0194 -0.9602  0.0965
24310SOL     OW83243   6.515   3.475   1.634 -0.2841 -0.2108  0.5501
24310SOL    HW183244   6.606   3.445   1.644 -0.0131  0.3722 -0.1285
24310SOL    HW283245   6.473   3.405   1.584  0.3727  0.5445 -1.1202
24311SOL     OW83246   5.490   0.925   8.477  0.2299  0.3033 -0.5330
24311SOL    HW183247   5.528   0.978   8.547  0.3291 -0.0933 -0.2848
24311SOL    HW283248   5.565   0.887   8.431  0.1497 -1.5821  0.8035
24312SOL     OW83249   3.939   8.618   5.142 -0.5953  0.0372 -0.4170
24312SOL    HW183250   3.864   8.594   5.088 -0.1336 -1.9171 -0.2575
24312SOL    HW283251   3.983   8.688   5.093 -1.9056  0.4759 -1.0142
24313SOL     OW83252   9.427   9.899  12.422 -0.2206  0.0436 -0.1873
24313SOL    HW183253   9.372   9.924  12.496 -0.6046  1.3897 -0.9027
24313SOL    HW283254   9.476   9.978  12.401 -0.6030 -0.1106 -1.7794
24314SOL     OW83255  11.143   1.534   5.503 -0.3624 -0.0221 -0.5497
24314SOL    HW183256  11.178   1.463   5.558  0.5398  1.3806  0.7456
24314SOL    HW283257  11.198   1.531   5.425  2.3572  1.6710  1.1476
24315SOL     OW83258  10.171   8.386   5.063  0.9067  0.7953  0.3371
24315SOL    HW183259  10.106   8.440   5.109  2.3984  2.2879  0.7941
24315SOL    HW283260  10.208   8.444   4.997  2.5691  0.3728  0.8558
24316SOL     OW83261   4.888   5.022   1.377  0.1753 -0.0446 -0.1505
24316SOL    HW183262   4.909   5.035   1.469 -0.1550 -0.5075 -0.0101
24316SOL    HW283263   4.879   5.111   1.342 -0.3350  0.1296  0.4121
24317SOL     OW83264   6.501   0.731  12.801 -0.0204 -0.2817 -0.2115
24317SOL    HW183265   6.519   0.641  12.773 -0.6927 -0.7532  0.8039
24317SOL    HW283266   6.582   0.759  12.843  0.0173 -0.5938 -0.0734
24318SOL     OW83267   4.862   1.948   7.200  0.1350  0.2516  0.0361
24318SOL    HW183268   4.856   1.853   7.211 -1.7973  0.4464  1.2306
24318SOL    HW283269   4.772   1.976   7.181  0.2075  2.0435  1.9115
24319SOL     OW83270   6.632   4.586   7.093 -0.2979  0.0265  0.0303
24319SOL    HW183271   6.711   4.544   7.057 -1.9868 -3.7491  0.2664
24319SOL    HW283272   6.589   4.624   7.017  1.1933  1.2683 -0.2477
24320SOL     OW83273   1.220  12.381   4.432 -0.0638  0.3022  0.1074
24320SOL    HW183274   1.213  12.475   4.453  1.7780  0.8799 -1.5498
24320SOL    HW283275   1.290  12.350   4.490 -0.6018 -0.0533  0.5802
24321SOL     OW83276  12.487   2.637   2.595 -0.3194 -0.1811  0.5564
24321SOL    HW183277  12.518   2.547   2.610 -0.1676 -0.1329  0.5300
24321SOL    HW283278  12.524   2.687   2.667  2.2941  0.5048 -1.1211
24322SOL     OW83279   4.829  12.109   0.432 -0.0797 -0.2639 -0.7127
24322SOL    HW183280   4.754  12.052   0.448 -0.0733 -0.4927 -1.4457
24322SOL    HW283281   4.904  12.060   0.465 -0.4703  1.0583  2.5398
24323SOL     OW83282   7.441   2.904   3.785  0.2632  0.2319 -0.1107
24323SOL    HW183283   7.363   2.958   3.772 -0.5510 -1.1611 -1.2602
24323SOL    HW283284   7.444   2.888   3.879 -1.5412 -0.6849 -0.1826
24324SOL     OW83285   7.701  11.262   5.273 -0.2626  0.3517 -0.3662
24324SOL    HW183286   7.635  11.314   5.228  0.9407  2.0635 -0.2663
24324SOL    HW283287   7.729  11.196   5.209  0.4525  1.8785 -1.6913
24325SOL     OW83288   7.366   1.986  10.681 -0.2325  0.0306  0.4242
24325SOL    HW183289   7.336   2.075  10.701 -2.9180 -0.6045 -0.4474
24325SOL    HW283290   7.298   1.929  10.715  2.3244 -1.9179  2.6624
24326SOL     OW83291   3.238   1.892   8.572 -0.4616  0.6096  0.4965
24326SOL    HW183292   3.322   1.933   8.549 -0.6157  1.6660  1.7050
24326SOL    HW283293   3.243   1.879   8.667 -0.8853 -1.1933  0.2984
24327SOL     OW83294   0.069  12.052  11.398  0.0825  0.6814 -0.4788
24327SOL    HW183295  -0.005  12.032  11.340 -0.1540 -0.5191  0.1961
24327SOL    HW283296   0.138  11.993  11.369 -0.0543  0.0283  0.4628
24328SOL     OW83297  12.595   8.760   2.441  0.4279 -0.1401  0.2067
24328SOL    HW183298  12.675   8.813   2.446 -0.2232  0.7635  2.1617
24328SOL    HW283299  12.524   8.823   2.446 -0.3852 -1.0732  0.9595
24329SOL     OW83300   6.159   1.869   7.407  0.6611 -0.4028  0.3771
24329SOL    HW183301   6.096   1.822   7.462  1.4857 -1.2218  0.6510
24329SOL    HW283302   6.109   1.943   7.371 -0.0855 -0.2592  1.6499
24330SOL     OW83303   2.908   5.472   5.003 -0.5637  0.3717 -0.4418
24330SOL    HW183304   2.840   5.486   4.938 -0.5898 -1.4013 -0.8443
24330SOL    HW283305   2.989   5.464   4.952 -0.0030  2.4430  0.0282
24331SOL     OW83306   8.561   0.066   3.336 -0.0747 -0.2689 -0.5167
24331SOL    HW183307   8.616   0.143   3.347 -0.6375 -0.0265  0.7174
24331SOL    HW283308   8.527   0.047   3.423  0.1448 -1.9991 -0.7698
24332SOL     OW83309  10.435  11.238   0.496  0.3937  0.0051 -0.3630
24332SOL    HW183310  10.505  11.302   0.488  1.8010 -1.2774  0.9711
24332SOL    HW283311  10.356  11.286   0.471  1.4494  2.0841  0.0310
24333SOL     OW83312  10.827  10.114   8.867  0.1852 -0.7235 -0.6069
24333SOL    HW183313  10.738  10.112   8.833  0.4643  3.0246 -2.0317
24333SOL    HW283314  10.821  10.071   8.953 -3.3218  0.5731 -0.0448
24334SOL     OW83315   6.431  12.431   7.309  0.4774 -0.6076  0.0427
24334SOL    HW183316   6.460  12.416   7.220  2.6042 -3.1171  1.0487
24334SOL    HW283317   6.338  12.407   7.308 -0.3670  2.1355 -1.9826
24335SOL     OW83318   1.799  12.351   6.527  0.4716 -0.2002 -0.3980
24335SOL    HW183319   1.821  12.391   6.610 -0.2151  0.9723 -0.7560
24335SOL    HW283320   1.768  12.263   6.550 -1.7922  0.8230  0.8540
24336SOL     OW83321   1.034   2.883   7.742  0.2319 -0.1157  0.1879
24336SOL    HW183322   0.970   2.832   7.691  0.0513  2.2203 -2.1740
24336SOL    HW283323   1.031   2.970   7.702  1.5375  1.3803  3.0727
24337SOL     OW83324  11.523   6.087  12.751 -0.8697  0.2809 -0.3345
24337SOL    HW183325  11.487   6.051  12.833 -0.7594  0.9505  0.0175
24337SOL    HW283326  11.551   6.010  12.702  0.7812 -0.0668  1.0574
24338SOL     OW83327   1.403   5.810   8.404 -0.2586 -0.2317 -0.2090
24338SOL    HW183328   1.468   5.877   8.427 -0.0830  0.3418 -2.1690
24338SOL    HW283329   1.396   5.816   8.309 -1.6374 -1.7470 -0.2387
24339SOL     OW83330  11.361   5.396   6.698 -0.0332  0.3777  0.4029
24339SOL    HW183331  11.402   5.454   6.762 -2.2557  1.0153  1.3389
24339SOL    HW283332  11.308   5.454   6.643  0.7244 -0.3444 -1.1664
24340SOL     OW83333   1.312   6.334   0.600 -0.4994 -0.2043 -0.3450
24340SOL    HW183334   1.299   6.262   0.537  2.0976 -0.3354 -0.8413
24340SOL    HW283335   1.353   6.292   0.675 -3.3144  0.0078  1.4445
24341SOL     OW83336   9.878   9.907   8.085 -0.2799 -0.3821  0.2071
24341SOL    HW183337   9.825   9.831   8.108 -0.0944 -0.7574 -0.5775
24341SOL    HW283338   9.886   9.956   8.167  0.7193 -1.8881  1.0428
24342SOL     OW83339   8.671   3.272   8.159  0.4448 -0.4126 -0.1385
24342SOL    HW183340   8.617   3.351   8.162  0.4514 -0.4273  0.3382
24342SOL    HW283341   8.754   3.298   8.198  0.8254 -0.3641 -0.9517
24343SOL     OW83342   0.578   7.452  12.032  0.2758 -0.0325  0.0740
24343SOL    HW183343   0.522   7.484  11.961  2.3827  1.7081 -0.9139
24343SOL    HW283344   0.551   7.503  12.109  0.0838  0.3321 -0.2326
24344SOL     OW83345  10.381  11.193   9.310 -0.1913 -0.6985  0.5663
24344SOL    HW183346  10.436  11.249   9.255 -0.9632 -0.3932  0.0888
24344SOL    HW283347  10.388  11.232   9.398  0.9268 -1.1004  0.6714
24345SOL     OW83348  12.318   0.234   2.298 -0.1741  0.1693  1.0672
24345SOL    HW183349  12.366   0.303   2.345  0.7602 -0.3444  0.9057
24345SOL    HW283350  12.369   0.221   2.218 -0.4688 -0.5475  0.9941
24346SOL     OW83351  12.821   5.841   7.132  0.7125  0.0890 -0.2370
24346SOL    HW183352  12.861   5.926   7.111  0.5637  0.0941 -0.4997
24346SOL    HW283353  12.737   5.863   7.172  0.0001  0.0521 -1.6584
24347SOL     OW83354   2.481   9.447   0.001  0.4082  0.8029 -0.2419
24347SOL    HW183355   2.574   9.458   0.023  0.3460 -0.4276  0.7785
24347SOL    HW283356   2.478   9.363  -0.045 -0.4695 -0.3360  1.7713
24348SOL     OW83357  12.982   1.781   6.896 -0.6185 -0.0785  0.3230
24348SOL    HW183358  13.050   1.836   6.858 -0.7792 -1.1938 -1.7270
24348SOL    HW283359  12.900   1.827   6.875 -0.6206  0.3834  1.2705
24349SOL     OW83360   0.749   5.019   8.972 -0.0259  0.1623  0.1901
24349SOL    HW183361   0.828   5.021   8.918  0.6204 -3.9885  0.6324
24349SOL    HW283362   0.702   4.941   8.942 -4.1006  2.4383 -0.0328
24350SOL     OW83363   6.855  11.490   5.164  0.1181  0.2430 -0.2643
24350SOL    HW183364   6.829  11.525   5.078 -1.3485 -1.1078 -0.4203
24350SOL    HW283365   6.848  11.565   5.223  1.3330  1.2497 -1.3167
24351SOL     OW83366   4.092   5.264   8.826  0.3903  0.0516 -0.6985
24351SOL    HW183367   4.077   5.231   8.915  1.7034 -0.0357 -0.4826
24351SOL    HW283368   4.188   5.269   8.819  0.2925  3.5406 -0.8479
24352SOL     OW83369   7.638  12.926  12.151  0.4532  0.0736 -0.2299
24352SOL    HW183370   7.546  12.954  12.153  0.6603  0.7644 -0.2698
24352SOL    HW283371   7.688  13.007  12.160  1.0627 -0.2923 -0.2888
24353SOL     OW83372   2.225   2.312   0.921 -0.2660 -0.2667  0.6018
24353SOL    HW183373   2.271   2.345   0.998  0.8804  1.6913 -0.8193
24353SOL    HW283374   2.149   2.370   0.912  0.8753  1.1096 -0.9806
24354SOL     OW83375   0.100   1.350   8.250 -0.0840  0.5391 -0.3469
24354SOL    HW183376   0.094   1.370   8.343  0.8092  2.0095 -0.5832
24354SOL    HW283377   0.027   1.289   8.234 -1.3383  1.6335  0.9483
24355SOL     OW83378   5.563   8.731   5.305 -0.2483  0.1059  0.3477
24355SOL    HW183379   5.590   8.739   5.214  0.2562 -1.8500  0.2767
24355SOL    HW283380   5.468   8.718   5.302  0.1767 -4.3278 -0.3529
24356SOL     OW83381  12.406  11.184   7.792 -0.3578  0.6261 -0.2462
24356SOL    HW183382  12.402  11.266   7.841  2.4667  0.7677 -0.0878
24356SOL    HW283383  12.416  11.211   7.700  1.9846  0.5967 -0.0698
24357SOL     OW83384   5.447   7.070   8.664  0.2051  0.0115 -0.6173
24357SOL    HW183385   5.533   7.052   8.702  0.2569  0.0914 -0.6940
24357SOL    HW283386   5.447   7.021   8.582  0.8477  1.3546 -1.4547
24358SOL     OW83387   0.748  12.782   9.156 -0.1734 -0.0152 -0.1752
24358SOL    HW183388   0.695  12.784   9.077 -1.7344 -0.0621  0.8377
24358SOL    HW283389   0.691  12.816   9.225  1.2044  0.1985  0.9139
24359SOL     OW83390   3.087  11.593   2.017 -0.3639  0.2119 -0.1792
24359SOL    HW183391   3.000  11.619   2.049 -0.3480 -0.3542  0.3272
24359SOL    HW283392   3.147  11.649   2.066 -0.4771  1.3064 -1.2378
24360SOL     OW83393   7.659   2.972   9.085  0.2637  0.7801 -0.4559
24360SOL    HW183394   7.651   3.046   9.024 -0.4745 -0.8432 -2.4418
24360SOL    HW283395   7.680   2.897   9.029  1.9880 -0.3697  1.5972
24361SOL     OW83396   4.015  12.340   7.809  0.0541  0.1833 -0.0122
24361SOL    HW183397   3.993  12.248   7.795  0.2067  0.2881 -1.0008
24361SOL    HW283398   3.930  12.385   7.808 -0.4835 -0.3347  4.2748
24362SOL     OW83399   5.003   9.539   5.185 -0.0760 -0.4647 -0.1659
24362SOL    HW183400   5.094   9.548   5.156 -0.4213 -0.9876 -1.4548
24362SOL    HW283401   4.954   9.517   5.106 -0.9102 -2.9765  0.9541
24363SOL     OW83402   6.457  11.862   2.648  0.3172  0.6014  0.5940
24363SOL    HW183403   6.387  11.927   2.651 -0.4224 -0.1855  3.3284
24363SOL    HW283404   6.412  11.778   2.646  1.2414  0.1081 -0.5713
24364SOL     OW83405  11.271   3.777   0.393  0.1118  0.6282 -0.1054
24364SOL    HW183406  11.227   3.768   0.478  0.4099  0.8143  0.0712
24364SOL    HW283407  11.304   3.690   0.375 -0.4618  0.4469 -0.3163
24365SOL     OW83408  10.665  12.717  10.245 -0.3557 -0.6750 -0.0990
24365SOL    HW183409  10.645  12.650  10.311  0.6395  0.5990  1.5942
24365SOL    HW283410  10.648  12.800  10.290  2.4016  0.3037 -0.7084
24366SOL     OW83411   1.871   3.074   7.801 -0.2224  0.1906  0.1214
24366SOL    HW183412   1.869   3.019   7.879 -1.5726  1.1167  0.7721
24366SOL    HW283413   1.856   3.163   7.834  1.2471  0.8891 -0.9734
24367SOL     OW83414   7.523   2.236   0.638  0.1975  0.1076 -0.7554
24367SOL    HW183415   7.508   2.174   0.709 -0.7201  0.1244 -0.9283
24367SOL    HW283416   7.437   2.252   0.600  0.5775  0.6153 -1.4473
24368SOL     OW83417   5.557  12.435  10.070 -0.2141  0.0371 -0.6319
24368SOL    HW183418   5.585  12.476   9.988 -1.4816 -1.0349 -1.6437
24368SOL    HW283419   5.462  12.426  10.062 -0.2394 -1.0595  0.5084
24369SOL     OW83420   4.282   1.660   2.356 -0.0836  0.7529  0.3990
24369SOL    HW183421   4.290   1.611   2.274 -1.4306  0.6025  0.3245
24369SOL    HW283422   4.360   1.636   2.407  0.2110 -0.0084 -0.3944
24370SOL     OW83423   1.845  12.440   0.491  0.1084 -0.2207  0.0534
24370SOL    HW183424   1.891  12.478   0.417 -2.5919 -0.9772 -2.2000
24370SOL    HW283425   1.891  12.358   0.509  1.3194  0.3951 -0.1679
24371SOL     OW83426   4.185  11.904   5.304  0.1632 -0.4571  0.4229
24371SOL    HW183427   4.122  11.918   5.234  1.2518  2.7456 -0.0693
24371SOL    HW283428   4.261  11.864   5.261 -0.3401 -1.4821  0.4484
24372SOL     OW83429  10.704   1.529   5.168 -0.2192 -0.6405  0.3663
24372SOL    HW183430  10.642   1.594   5.201  1.1619  0.0048  1.7941
24372SOL    HW283431  10.649   1.458   5.134 -1.7435 -0.2537  1.9189
24373SOL     OW83432  11.624   5.142   5.838 -0.2764  0.2505  0.2407
24373SOL    HW183433  11.558   5.123   5.772  0.1734 -2.7527  0.5158
24373SOL    HW283434  11.686   5.200   5.794 -2.0961  1.6833 -0.5787
24374SOL     OW83435   0.650  10.334   2.596  0.0926 -0.7280  0.2058
24374SOL    HW183436   0.651  10.263   2.531 -1.6936 -1.2181  0.6492
24374SOL    HW283437   0.594  10.401   2.557  0.8674 -0.0374  0.2750
24375SOL     OW83438   0.914   8.623   5.317  0.1634 -0.4847 -0.9323
24375SOL    HW183439   0.916   8.543   5.370 -0.0382 -0.5448 -1.0150
24375SOL    HW283440   0.969   8.684   5.365 -1.2427 -0.0241  0.1924
24376SOL     OW83441  12.139   6.299   5.172 -0.5907  0.2557 -0.0234
24376SOL    HW183442  12.158   6.373   5.230  0.6077 -0.5248  0.6267
24376SOL    HW283443  12.194   6.314   5.095 -0.1398 -0.0845  0.2274
24377SOL     OW83444   4.765   1.381   8.970  0.1324 -0.7501  0.2584
24377SOL    HW183445   4.786   1.448   9.035  0.4826 -1.3891  0.8152
24377SOL    HW283446   4.761   1.428   8.887 -0.4121  0.0964  0.7466
24378SOL     OW83447  11.713  11.989   6.965 -0.1308  0.4727  0.5717
24378SOL    HW183448  11.745  11.936   6.892  1.3134  1.0168  0.7869
24378SOL    HW283449  11.777  11.976   7.035 -1.8585 -0.6167  2.0582
24379SOL     OW83450   9.129   0.667   3.325 -0.3248  0.2258  0.0602
24379SOL    HW183451   9.200   0.717   3.365 -0.9261  0.3422  1.0181
24379SOL    HW283452   9.097   0.723   3.254  2.0834 -0.8353 -2.0262
24380SOL     OW83453  11.625   8.205  10.872  0.0198  0.1192 -0.0686
24380SOL    HW183454  11.600   8.280  10.926 -0.2088  0.6680 -0.9050
24380SOL    HW283455  11.587   8.224  10.786  2.1703  0.3465 -1.0406
24381SOL     OW83456  10.791   9.097   3.379 -0.5062  0.1421  0.3636
24381SOL    HW183457  10.776   9.049   3.461 -2.6224  0.6245  0.3097
24381SOL    HW283458  10.706   9.097   3.335 -0.0547  2.1420 -0.6168
24382SOL     OW83459   0.648   1.734   4.607 -0.4514 -0.5054  0.0390
24382SOL    HW183460   0.556   1.759   4.614 -0.3515  0.0686 -0.5983
24382SOL    HW283461   0.665   1.682   4.686 -0.9235  0.6575  0.9242
24383SOL     OW83462   2.185  10.812   1.136  0.2026  0.8278  0.0048
24383SOL    HW183463   2.148  10.780   1.054 -0.8817 -0.7655  1.0411
24383SOL    HW283464   2.250  10.746   1.160 -2.3408 -1.0691  2.3849
24384SOL     OW83465  10.388  11.622   4.143  0.2600  0.5517  0.1955
24384SOL    HW183466  10.462  11.636   4.202  1.1671 -0.3400 -0.6820
24384SOL    HW283467  10.321  11.684   4.172  0.6198  0.0427  2.2277
24385SOL     OW83468  11.333   3.617   5.024 -0.3051 -0.0267  0.5325
24385SOL    HW183469  11.363   3.529   5.003  1.8070  0.5706  0.7885
24385SOL    HW283470  11.241   3.607   5.048 -0.8403 -1.7615 -1.9379
24386SOL     OW83471   4.387   8.805   9.962  0.1372 -0.2767 -0.6843
24386SOL    HW183472   4.361   8.897   9.957  0.8383  0.0406  0.8275
24386SOL    HW283473   4.309   8.756   9.938 -0.0759  0.6999 -2.1302
24387SOL     OW83474   3.211   1.989  10.904 -0.1846 -0.0409  0.4481
24387SOL    HW183475   3.252   2.027  10.826 -0.1445  0.0317  0.5049
24387SOL    HW283476   3.207   2.061  10.966  0.4628 -0.2896  0.7863
24388SOL     OW83477   8.730  10.359   2.320 -0.0203 -0.5986 -0.4610
24388SOL    HW183478   8.666  10.290   2.306 -2.2740  1.3839 -0.4625
24388SOL    HW283479   8.732  10.372   2.415 -1.4477  0.9077 -0.5975
24389SOL     OW83480   5.867   3.127   3.808  0.1297  0.0060 -0.2922
24389SOL    HW183481   5.884   3.221   3.811  1.4154 -0.2346  0.6225
24389SOL    HW283482   5.789   3.116   3.862  1.1941  0.3184  1.3719
24390SOL     OW83483  12.416   4.432   5.829 -0.0773 -0.1701  1.1626
24390SOL    HW183484  12.482   4.440   5.760 -1.0756  0.4276  0.2416
24390SOL    HW283485  12.443   4.356   5.879  2.2895  1.0510  1.9075
24391SOL     OW83486   9.790   5.803   6.657  0.4142 -0.1030 -0.1591
24391SOL    HW183487   9.843   5.822   6.579 -1.6956 -1.5045 -2.0646
24391SOL    HW283488   9.812   5.873   6.719  0.0291  2.8365 -3.0843
24392SOL     OW83489   7.634   9.092   6.476  0.5148 -0.3823 -0.6963
24392SOL    HW183490   7.603   9.008   6.511  0.4715 -0.6744 -1.4225
24392SOL    HW283491   7.555   9.136   6.445  0.6549 -0.4995 -1.2210
24393SOL     OW83492   7.727  10.663   4.507 -0.8009  0.4093 -0.1265
24393SOL    HW183493   7.688  10.649   4.593  0.4211 -0.4096  0.3214
24393SOL    HW283494   7.821  10.660   4.523 -0.5566  0.0783 -1.5194
24394SOL     OW83495   4.703   7.233   1.976 -0.2601  0.5300 -0.0519
24394SOL    HW183496   4.714   7.315   2.024  0.5666 -0.8050  2.1797
24394SOL    HW283497   4.789   7.214   1.941  0.2374 -0.6545  1.6949
24395SOL     OW83498  12.899   6.206   4.223  0.3844 -0.4986 -0.4568
24395SOL    HW183499  12.850   6.201   4.305 -1.0691  0.6009 -1.2071
24395SOL    HW283500  12.929   6.116   4.207 -1.4151 -1.2282  0.0518
24396SOL     OW83501   5.516   6.410   6.454  0.0190  0.0259  0.0175
24396SOL    HW183502   5.605   6.445   6.458  0.0534  0.1029 -1.1990
24396SOL    HW283503   5.521   6.329   6.504  0.5447  0.4867  0.7366
24397SOL     OW83504   8.594  11.472   6.609 -0.4336  0.2832 -0.6068
24397SOL    HW183505   8.681  11.510   6.622  0.0852 -0.4596 -1.7739
24397SOL    HW283506   8.607  11.404   6.543 -1.5099 -1.3393  0.7804
24398SOL     OW83507   8.725   1.277  11.350  0.0936 -0.0213  0.3538
24398SOL    HW183508   8.657   1.240  11.293  1.1863 -1.0868 -0.3192
24398SOL    HW283509   8.719   1.371  11.336  0.7793 -0.2675 -2.1352
24399SOL     OW83510   4.145   1.264   3.495 -0.0567 -0.0969  0.4799
24399SOL    HW183511   4.209   1.243   3.426 -1.1605 -1.5658 -0.1611
24399SOL    HW283512   4.121   1.355   3.480  1.2761  0.2305  0.2401
24400SOL     OW83513   0.061   0.753   9.821 -0.3466 -0.2233  0.1492
24400SOL    HW183514   0.101   0.693   9.759  0.0223  0.0681  0.1041
24400SOL    HW283515   0.065   0.707   9.905  0.7149  0.0796  0.2787
24401SOL     OW83516   3.338   3.604   8.042 -0.3055  0.0508  0.0876
24401SOL    HW183517   3.396   3.583   7.968 -0.7793 -0.4388 -0.1529
24401SOL    HW283518   3.311   3.518   8.076 -1.7867  0.2594 -0.5095
24402SOL     OW83519   2.677   3.041   4.487 -0.0491 -0.0675 -0.2078
24402SOL    HW183520   2.654   3.132   4.468 -0.0776 -0.2853 -1.2858
24402SOL    HW283521   2.594   3.000   4.512  0.1562  0.4659  1.5233
24403SOL     OW83522   8.513   4.915   3.430 -0.1675  0.2040 -0.6772
24403SOL    HW183523   8.449   4.933   3.499  0.1062 -1.0336 -0.0654
24403SOL    HW283524   8.510   4.992   3.374 -2.9891 -0.2744 -1.3133
24404SOL     OW83525   8.357  11.827  10.528  0.3709  0.5505  0.0955
24404SOL    HW183526   8.346  11.835  10.433 -0.7823 -0.1815  0.1631
24404SOL    HW283527   8.349  11.917  10.560 -0.0072  0.7040 -0.4209
24405SOL     OW83528   0.448   1.765  10.998 -0.0589  0.3266  0.6012
24405SOL    HW183529   0.390   1.791  11.069 -0.2875 -1.0596  0.9495
24405SOL    HW283530   0.499   1.692  11.034  0.1616 -0.0764 -0.4928
24406SOL     OW83531  10.368   3.589   8.213 -0.2957  0.6231  0.4537
24406SOL    HW183532  10.277   3.619   8.204 -0.3226  0.0107 -1.9532
24406SOL    HW283533  10.412   3.623   8.135  1.0161 -0.8403  0.5115
24407SOL     OW83534  12.113   4.977  10.763 -0.0742 -0.5095  0.1642
24407SOL    HW183535  12.158   4.914  10.820  0.2865 -1.4755 -1.1483
24407SOL    HW283536  12.047   4.926  10.718 -2.7206  0.9047  2.1321
24408SOL     OW83537   8.019  12.973   1.474 -0.9773 -0.2486 -0.2984
24408SOL    HW183538   8.098  12.924   1.498 -0.9261 -0.5590 -1.0490
24408SOL    HW283539   8.049  13.032   1.405 -0.9042  1.3113  1.0198
24409SOL     OW83540  12.847  12.942  12.725  0.1157 -0.1270 -0.5275
24409SOL    HW183541  12.757  12.964  12.701 -0.1503 -0.4885  0.1039
24409SOL    HW283542  12.893  12.933  12.642 -0.0958  1.4113 -0.8279
24410SOL     OW83543   6.318   9.079   5.356  0.2060  0.8777  0.2689
24410SOL    HW183544   6.273   9.044   5.434  2.2232  0.9266  1.5247
24410SOL    HW283545   6.376   9.009   5.328 -1.1266  0.5215 -1.8118
24411SOL     OW83546   0.667   4.613   2.841  0.1021 -0.7161  0.2016
24411SOL    HW183547   0.746   4.584   2.887  0.3996 -1.0040 -0.4771
24411SOL    HW283548   0.653   4.702   2.872  0.3089 -0.9021  0.8359
24412SOL     OW83549   1.728   6.667   2.054 -0.9568  0.3773  0.3618
24412SOL    HW183550   1.664   6.639   2.119  0.7160 -1.0101  1.5142
24412SOL    HW283551   1.760   6.585   2.016  0.9339  0.9264  0.6671
24413SOL     OW83552  12.860   3.691   2.262 -0.1907  0.0191  0.8454
24413SOL    HW183553  12.765   3.679   2.265 -0.8500  3.6993 -0.3003
24413SOL    HW283554  12.879   3.752   2.333  1.3298 -0.6778  1.0642
24414SOL     OW83555   5.189   8.435   5.154  0.5548  0.1037  0.0025
24414SOL    HW183556   5.260   8.380   5.124  1.4677  1.4091 -0.3258
24414SOL    HW283557   5.128   8.375   5.196  1.2373 -1.2059 -0.8140
24415SOL     OW83558   3.148  10.784   7.032 -0.3283  0.0364 -0.1314
24415SOL    HW183559   3.183  10.872   7.022  1.6076 -0.8676 -2.1998
24415SOL    HW283560   3.221  10.733   7.066 -0.4436 -1.3363 -1.8130
24416SOL     OW83561  11.987   3.158  10.652 -0.3630 -0.3335  0.5269
24416SOL    HW183562  11.968   3.095  10.722  0.9185 -1.1202  0.2074
24416SOL    HW283563  11.946   3.240  10.681 -2.9183 -1.5058  0.5047
24417SOL     OW83564  11.501   5.290   8.365  0.0681 -0.4471 -0.0129
24417SOL    HW183565  11.469   5.305   8.276 -1.7872 -1.4724  0.4349
24417SOL    HW283566  11.473   5.201   8.387  0.5449 -0.2510  1.5709
24418SOL     OW83567   2.459   7.106  11.719 -0.1000 -0.0689  0.0976
24418SOL    HW183568   2.555   7.095  11.722 -0.3077 -2.2101  1.7400
24418SOL    HW283569   2.431   7.096  11.810 -1.9740 -0.6024 -0.4903
24419SOL     OW83570   4.145   7.995   3.690 -0.0976 -0.2251  0.2627
24419SOL    HW183571   4.213   7.999   3.623 -0.1923 -1.3431  0.0700
24419SOL    HW283572   4.180   7.935   3.755 -0.3848  0.1595  0.7729
24420SOL     OW83573  12.848  10.487   6.082 -0.0813 -0.2875 -0.2728
24420SOL    HW183574  12.849  10.449   6.170  1.0863 -1.5877 -0.8097
24420SOL    HW283575  12.759  10.471   6.050  0.2443 -2.2284 -0.3040
24421SOL     OW83576   7.980  10.624   0.144  0.0665  0.7158  0.9808
24421SOL    HW183577   8.057  10.572   0.165 -1.5601 -1.9772  0.7426
24421SOL    HW283578   7.921  10.610   0.219 -1.5218 -0.1945 -0.3632
24422SOL     OW83579   5.053   4.168   2.754  0.0060  0.2048 -0.1815
24422SOL    HW183580   5.047   4.077   2.783 -0.9591  0.2371 -0.2536
24422SOL    HW283581   5.070   4.218   2.834 -2.9584  0.3323  0.4856
24423SOL     OW83582   6.369  10.771   3.762 -0.1923  0.4159 -0.0166
24423SOL    HW183583   6.310  10.782   3.687 -0.0324  1.0694 -0.0547
24423SOL    HW283584   6.409  10.857   3.774 -0.0011  0.2427  0.6453
24424SOL     OW83585   2.768   8.347   0.688 -0.0038  0.5225 -0.9973
24424SOL    HW183586   2.826   8.279   0.653  1.1928  1.1173 -0.2414
24424SOL    HW283587   2.709   8.301   0.747  0.2586  0.0231 -1.1228
24425SOL     OW83588   9.635   4.629   2.868  0.1461 -0.0800 -0.2809
24425SOL    HW183589   9.706   4.691   2.883 -0.5980  1.2367 -1.8978
24425SOL    HW283590   9.655   4.555   2.926  1.6844  1.1492  0.8337
24426SOL     OW83591   1.293   0.572   2.852  0.0623  0.6123 -0.1372
24426SOL    HW183592   1.274   0.626   2.775 -0.2904  0.4437 -0.1736
24426SOL    HW283593   1.279   0.482   2.822 -1.8227  0.6257  0.5792
24427SOL     OW83594  12.881   5.569   8.178  0.2343  0.1056  0.1576
24427SOL    HW183595  12.887   5.624   8.100 -1.4431 -1.2755 -1.0107
24427SOL    HW283596  12.850   5.628   8.246 -2.1343  0.5598 -1.2147
24428SOL     OW83597   4.865   7.282   9.093  0.8317  0.3471  0.0580
24428SOL    HW183598   4.887   7.315   9.006 -1.0840 -0.5168 -0.8089
24428SOL    HW283599   4.913   7.339   9.153  0.9275  2.0180 -1.5136
24429SOL     OW83600   3.303   1.352   0.888  0.4548  0.4530  0.0040
24429SOL    HW183601   3.278   1.275   0.836 -1.0840  0.6648  0.3719
24429SOL    HW283602   3.322   1.318   0.975 -1.1849  0.5707  0.4321
24430SOL     OW83603   2.903  10.470  12.211  0.0931  0.1801  1.1196
24430SOL    HW183604   2.977  10.529  12.225  0.3362 -0.4320  2.6639
24430SOL    HW283605   2.845  10.487  12.286 -1.5218  0.8627 -0.2062
24431SOL     OW83606   1.961   4.420  12.917  0.7729  0.0907 -0.1839
24431SOL    HW183607   1.977   4.423  13.012  0.5938  0.6966 -0.1645
24431SOL    HW283608   2.047   4.423  12.877  0.8419  0.0246 -0.0394
24432SOL     OW83609   7.378   4.711  11.049  0.3058  0.2961 -0.0788
24432SOL    HW183610   7.363   4.625  11.011  1.2262 -0.2026  0.6393
24432SOL    HW283611   7.298   4.732  11.095 -1.0612  1.1426 -2.6381
24433SOL     OW83612   7.951   1.916   0.286  0.2010 -0.5923  0.0233
24433SOL    HW183613   7.974   1.982   0.351 -0.7811  0.6493 -0.8231
24433SOL    HW283614   8.034   1.897   0.241  0.5679 -0.2125  0.5260
24434SOL     OW83615  11.214  12.512   3.095 -0.3997 -0.7434  0.1470
24434SOL    HW183616  11.264  12.574   3.042 -0.9897 -0.5974 -0.2597
24434SOL    HW283617  11.128  12.553   3.104 -0.3599 -0.8446  1.0954
24435SOL     OW83618   4.691  12.288  12.451  0.2093  0.0344 -0.5925
24435SOL    HW183619   4.732  12.283  12.537 -0.3747  3.6814  0.0671
24435SOL    HW283620   4.601  12.258  12.465 -0.7330  3.1729  0.8720
24436SOL     OW83621   9.285   7.551   7.871 -0.1090 -0.0665  0.2996
24436SOL    HW183622   9.228   7.477   7.854 -0.7838  0.5366 -0.1425
24436SOL    HW283623   9.227   7.627   7.871  0.8215  0.7071 -1.3179
24437SOL     OW83624   8.614   3.430  11.541 -0.4668 -0.0324  0.1900
24437SOL    HW183625   8.660   3.377  11.475  0.0346  0.1557  0.3886
24437SOL    HW283626   8.566   3.495  11.489 -2.4139 -1.6486 -0.1772
24438SOL     OW83627   0.037   7.501   8.714  0.9493  0.5873 -0.3448
24438SOL    HW183628   0.067   7.476   8.801  1.0029 -0.8261 -0.7348
24438SOL    HW283629   0.018   7.594   8.720 -2.0014 -0.0283  2.0098
24439SOL     OW83630  11.609   4.352   1.283 -0.2770  0.1498  0.0431
24439SOL    HW183631  11.571   4.384   1.365  2.7809 -0.4966  1.8972
24439SOL    HW283632  11.655   4.428   1.247  0.7150 -0.2093  0.4878
24440SOL     OW83633  11.028   3.972   4.368 -0.0502  0.5764 -0.2143
24440SOL    HW183634  11.059   3.904   4.429  1.1676  0.1539 -1.2561
24440SOL    HW283635  11.088   4.045   4.382 -0.5355  0.9456 -0.0412
24441SOL     OW83636  10.573   8.664   4.791 -0.0548  0.1205 -0.9965
24441SOL    HW183637  10.625   8.671   4.711 -0.5196  0.9852 -1.2353
24441SOL    HW283638  10.526   8.580   4.783 -1.2189  0.8613 -2.3319
24442SOL     OW83639   0.175   9.836   4.327  0.2660 -0.1138  0.2549
24442SOL    HW183640   0.192   9.913   4.381  0.4036  1.3240 -1.7166
24442SOL    HW283641   0.257   9.788   4.327  1.1971  1.3706 -0.9014
24443SOL     OW83642  12.929   9.456  11.023 -0.3686  0.0683 -0.2491
24443SOL    HW183643  13.021   9.451  11.049 -1.0078 -0.0780  2.2216
24443SOL    HW283644  12.915   9.376  10.972  1.1421  0.7170 -1.7798
24444SOL     OW83645   9.818   7.287  10.321  0.8635  0.4294  0.4643
24444SOL    HW183646   9.748   7.317  10.263  1.4652  1.2251  0.1326
24444SOL    HW283647   9.873   7.364  10.334  3.0631 -0.7041 -1.2776
24445SOL     OW83648  10.342   9.039   3.994 -0.2056 -0.1018 -0.5344
24445SOL    HW183649  10.298   8.995   4.066 -0.0931 -0.0654 -0.4426
24445SOL    HW283650  10.280   9.035   3.922 -0.8883  1.0709 -0.0415
24446SOL     OW83651   1.999  10.248  10.800 -0.5438  0.4561 -0.0052
24446SOL    HW183652   2.052  10.325  10.780 -2.0707  1.7133  0.6040
24446SOL    HW283653   1.996  10.245  10.896  0.6772 -1.2411  0.0295
24447SOL     OW83654   1.417  11.711  11.751  0.6183 -0.3951  0.3717
24447SOL    HW183655   1.387  11.788  11.702  0.6924  0.2373  1.3036
24447SOL    HW283656   1.337  11.668  11.781  0.5927 -0.1884  0.6002
24448SOL     OW83657  12.884   5.256   7.177  0.0533  0.5996  0.5549
24448SOL    HW183658  12.839   5.193   7.121  0.1639  0.5436  0.5270
24448SOL    HW283659  12.977   5.238   7.161  0.0865  0.9878  0.2942
24449SOL     OW83660   1.569   7.274   3.147 -0.2557  0.5753  0.0319
24449SOL    HW183661   1.615   7.274   3.230  1.3090 -1.4895 -0.7420
24449SOL    HW283662   1.630   7.314   3.085 -0.4589  0.0221 -0.5432
24450SOL     OW83663   2.902   9.221   6.234  1.3570 -0.1923 -0.1405
24450SOL    HW183664   2.920   9.154   6.300 -0.4444 -2.0423 -1.3842
24450SOL    HW283665   2.919   9.177   6.150 -1.9998  0.0402 -1.0999
24451SOL     OW83666   5.529  12.395   9.706  0.2148 -0.1730  0.1184
24451SOL    HW183667   5.562  12.340   9.635  0.3584  0.4808 -0.3234
24451SOL    HW283668   5.606  12.441   9.739  0.4898 -1.7337  1.8671
24452SOL     OW83669   7.174  10.226   0.334  0.2055 -0.0244 -0.0128
24452SOL    HW183670   7.124  10.219   0.253  1.4743 -2.0085 -0.6952
24452SOL    HW283671   7.121  10.180   0.399 -0.2371  0.4884 -0.0070
24453SOL     OW83672   6.167   5.299   5.271  0.0553  0.5193 -0.5115
24453SOL    HW183673   6.188   5.223   5.217 -0.3532 -0.8773  1.2025
24453SOL    HW283674   6.236   5.300   5.338 -1.1028  0.3828  0.7141
24454SOL     OW83675   4.369  10.631   7.314  0.2538 -0.0085 -0.2121
24454SOL    HW183676   4.350  10.724   7.328  1.1212 -0.0405  1.3459
24454SOL    HW283677   4.463  10.628   7.298 -0.0231 -0.4751 -1.8758
24455SOL     OW83678  12.477   8.615   0.619  0.1410 -0.2513 -0.5860
24455SOL    HW183679  12.413   8.583   0.683 -0.8739 -0.8805 -1.8640
24455SOL    HW283680  12.562   8.587   0.654 -0.3530 -0.2714  0.6509
24456SOL     OW83681   6.745   9.511  12.055 -0.2442  0.0517 -0.1552
24456SOL    HW183682   6.809   9.575  12.023 -0.2684 -0.3931 -1.1358
24456SOL    HW283683   6.788   9.426  12.044 -1.1772 -0.3002 -1.3463
24457SOL     OW83684   9.002   9.236   1.193 -0.0144  0.1229 -0.0707
24457SOL    HW183685   8.991   9.220   1.099  1.4836  0.4882 -0.3443
24457SOL    HW283686   8.960   9.321   1.208  2.9498  1.9630 -1.2490
24458SOL     OW83687   1.961   1.678  11.832  0.4823 -0.1010 -0.1061
24458SOL    HW183688   1.933   1.720  11.751  0.4887  0.7130  0.2996
24458SOL    HW283689   1.911   1.596  11.835 -0.8693  0.6841 -0.0738
24459SOL     OW83690   7.521   1.326   1.427  0.4906  0.1404  0.3414
24459SOL    HW183691   7.443   1.352   1.476 -0.4940 -0.2470 -0.9573
24459SOL    HW283692   7.507   1.233   1.408 -0.7156  0.9052 -3.2773
24460SOL     OW83693   2.256   7.355   6.620 -0.4783 -0.0876  0.1380
24460SOL    HW183694   2.246   7.428   6.681  0.4071  0.2440 -0.0973
24460SOL    HW283695   2.244   7.277   6.673  2.6262  0.0934  1.3071
24461SOL     OW83696  11.945   8.035   9.219  0.6385 -0.3287  0.2582
24461SOL    HW183697  11.921   7.943   9.215 -0.7606  0.0767 -2.7472
24461SOL    HW283698  11.890   8.071   9.289 -1.0558 -1.2127 -0.5662
24462SOL     OW83699   6.392  12.044   9.395  0.4079 -0.1042 -0.4843
24462SOL    HW183700   6.380  12.125   9.443 -1.7569  0.3662 -1.6728
24462SOL    HW283701   6.435  12.071   9.313 -0.2987 -0.1472 -0.8732
24463SOL     OW83702   0.380   5.932  11.539 -0.4128 -0.3765 -0.2346
24463SOL    HW183703   0.468   5.916  11.574 -0.2284  1.0321 -0.0070
24463SOL    HW283704   0.322   5.924  11.616  0.0154  2.9313  0.5739
24464SOL     OW83705   4.138   1.171  11.904  0.7441 -0.0276  0.4077
24464SOL    HW183706   4.065   1.154  11.845 -0.3966  0.3718  1.6527
24464SOL    HW283707   4.214   1.177  11.846 -0.1869 -0.4699 -0.9267
24465SOL     OW83708   5.617   9.707   7.021 -0.1072 -0.1042 -0.5086
24465SOL    HW183709   5.618   9.681   7.113 -1.6715 -1.9423 -0.9518
24465SOL    HW283710   5.693   9.662   6.983  0.8800  1.1185 -0.0439
24466SOL     OW83711   4.153   3.268   9.642  0.1700 -0.1691  0.2857
24466SOL    HW183712   4.130   3.212   9.716 -1.4259  0.7459  0.5217
24466SOL    HW283713   4.166   3.355   9.681  1.8722 -0.1707 -0.1808
24467SOL     OW83714   0.901  12.873   4.102 -0.0240 -0.4302  0.4759
24467SOL    HW183715   0.957  12.798   4.116 -0.4187 -1.0079 -0.8629
24467SOL    HW283716   0.959  12.949   4.112  0.7675 -0.9726  0.0861
24468SOL     OW83717   4.811  11.701  11.069 -0.5835  0.5081  0.2896
24468SOL    HW183718   4.801  11.606  11.068 -0.9896  0.5487 -0.1411
24468SOL    HW283719   4.899  11.716  11.102 -0.7751  0.0048  1.0480
24469SOL     OW83720   7.355   1.458   7.956 -0.6933 -0.0274 -0.2430
24469SOL    HW183721   7.263   1.454   7.982 -0.6714 -2.4363 -0.3816
24469SOL    HW283722   7.362   1.399   7.880  1.4211 -2.0424  1.3756
24470SOL     OW83723   1.832   7.287  10.219 -0.8711 -0.0459  0.4496
24470SOL    HW183724   1.835   7.300  10.124  0.8666 -0.7484  0.3591
24470SOL    HW283725   1.844   7.192  10.230 -0.1320  0.1406  1.3756
24471SOL     OW83726   5.207   7.569   7.274  0.2845 -0.2246  0.5825
24471SOL    HW183727   5.145   7.500   7.296 -0.7195  0.9382  1.5927
24471SOL    HW283728   5.256   7.535   7.199 -0.8683 -1.5971  0.4126
24472SOL     OW83729   2.915   9.845   2.829 -0.1595  0.3524  0.3109
24472SOL    HW183730   2.901   9.793   2.750 -2.3451  0.6572  0.4409
24472SOL    HW283731   2.850   9.812   2.891 -0.8548  2.4340  0.7752
24473SOL     OW83732   0.147   8.583   7.937 -0.1633  0.0563 -0.5084
24473SOL    HW183733   0.090   8.654   7.967  0.2201 -0.4081  1.4672
24473SOL    HW283734   0.092   8.531   7.879 -0.2497  2.3150 -2.6387
24474SOL     OW83735  11.783  12.924   5.733  0.5722 -0.1582  0.0519
24474SOL    HW183736  11.878  12.933   5.732  0.5149  0.5747  0.1070
24474SOL    HW283737  11.755  12.974   5.810  0.1002  0.1668 -0.3170
24475SOL     OW83738   9.326  11.394   4.672 -0.5327  0.0342  0.0660
24475SOL    HW183739   9.333  11.356   4.760  0.3945 -0.2808 -0.1302
24475SOL    HW283740   9.390  11.345   4.620 -0.8970  0.3884 -0.7260
24476SOL     OW83741   0.558   8.456  10.761 -0.1069  0.2761  0.1294
24476SOL    HW183742   0.465   8.478  10.765  0.0678  0.8808  1.1507
24476SOL    HW283743   0.577   8.419  10.848  0.3590 -0.8870 -0.4485
24477SOL     OW83744   5.409   1.922  10.721 -0.3173  0.4744  0.4634
24477SOL    HW183745   5.338   1.929  10.656 -1.2298  0.5683  1.4374
24477SOL    HW283746   5.402   2.003  10.773  2.5113  2.0397 -1.3162
24478SOL     OW83747   9.804   5.281   3.406 -0.2803 -0.2974  0.0620
24478SOL    HW183748   9.864   5.268   3.480 -0.8891  1.9009  1.0180
24478SOL    HW283749   9.725   5.233   3.431 -0.1099 -0.4412  0.3345
24479SOL     OW83750   3.695   1.318   0.208 -0.5731  0.1333 -0.4706
24479SOL    HW183751   3.739   1.334   0.124  0.3940  0.4842  0.0954
24479SOL    HW283752   3.624   1.382   0.210  0.4058  1.2459 -0.3096
24480SOL     OW83753   3.132   1.209   2.638  0.7836 -0.0956  0.5018
24480SOL    HW183754   3.162   1.159   2.715 -0.2878 -0.5839  0.6111
24480SOL    HW283755   3.150   1.300   2.661  2.2599 -0.3670  0.5251
24481SOL     OW83756  11.868  12.800   2.493 -0.2204 -0.4861  0.7408
24481SOL    HW183757  11.959  12.800   2.524 -0.4158 -2.0410  1.3910
24481SOL    HW283758  11.816  12.813   2.572 -0.6315 -1.8094  0.6993
24482SOL     OW83759   4.274  12.986   2.439  0.4742 -0.5718  0.0994
24482SOL    HW183760   4.245  13.048   2.373 -0.8977 -0.8021  0.4372
24482SOL    HW283761   4.365  13.009   2.456  0.8556 -0.4983 -1.8281
24483SOL     OW83762   3.556   5.997   2.711  0.3394 -0.0413  0.2688
24483SOL    HW183763   3.493   5.943   2.759  0.8352  1.6420  3.0419
24483SOL    HW283764   3.526   6.087   2.726  2.1158  0.6779 -0.2627
24484SOL     OW83765   4.801   7.664  12.502  0.3022  0.0687  0.0019
24484SOL    HW183766   4.720   7.646  12.454 -0.0934  1.1849  0.2037
24484SOL    HW283767   4.850   7.582  12.499  0.1849  0.0401 -2.0850
24485SOL     OW83768  10.183  10.671   0.287  0.1600 -1.0933 -0.5516
24485SOL    HW183769  10.105  10.642   0.241  0.7785 -2.2374 -0.9243
24485SOL    HW283770  10.219  10.741   0.232  0.6160 -2.1019 -1.5945
24486SOL     OW83771   3.660  11.170   5.851 -1.6396 -0.2326  0.1316
24486SOL    HW183772   3.668  11.084   5.892 -1.6040 -1.0062 -1.4414
24486SOL    HW283773   3.748  11.208   5.857 -1.2035 -1.0618 -0.7309
24487SOL     OW83774   0.015   1.169   7.087 -0.2330  0.2408 -0.1785
24487SOL    HW183775   0.076   1.115   7.137 -1.3101 -2.2393 -1.3365
24487SOL    HW283776  -0.072   1.138   7.113 -0.8977  1.1928 -1.1457
24488SOL     OW83777   6.554   2.976   2.862  0.1383 -0.4964 -0.1339
24488SOL    HW183778   6.507   3.055   2.890 -1.0112 -1.7087  1.5849
24488SOL    HW283779   6.507   2.945   2.785  0.5166  0.4067 -0.7377
24489SOL     OW83780   5.292   0.431   8.860 -0.1589  0.7860 -0.3307
24489SOL    HW183781   5.376   0.419   8.815  0.0452 -1.4841  0.5325
24489SOL    HW283782   5.316   0.449   8.951 -0.5806  0.0758 -0.0697
24490SOL     OW83783   5.708   3.844   2.615 -0.5893  0.0379  0.2631
24490SOL    HW183784   5.759   3.832   2.695  1.2551  0.5491 -0.7777
24490SOL    HW283785   5.654   3.921   2.633  0.4663  0.7001  0.7346
24491SOL     OW83786   3.705  12.571   0.498  0.5493 -0.3161  0.4509
24491SOL    HW183787   3.626  12.534   0.537 -0.3754  0.5145 -0.5738
24491SOL    HW283788   3.713  12.527   0.413  0.8486  0.0327  0.2948
24492SOL     OW83789   9.118  12.876  10.213 -0.2609  0.0588  0.6308
24492SOL    HW183790   9.203  12.918  10.198 -1.0489  1.3360 -0.3948
24492SOL    HW283791   9.068  12.940  10.264 -1.5143  0.4779 -1.0323
24493SOL     OW83792  11.083   4.401  12.062  0.4129 -0.3175 -0.4906
24493SOL    HW183793  11.150   4.367  12.003  1.0486 -0.1147  0.1062
24493SOL    HW283794  11.091   4.496  12.056  1.5587 -0.2715  1.0852
24494SOL     OW83795  10.340   3.479   6.581 -0.1644  0.0359  0.2147
24494SOL    HW183796  10.402   3.474   6.654 -0.1678  1.3631  0.3300
24494SOL    HW283797  10.394   3.505   6.506 -0.6088  1.4876  0.3765
24495SOL     OW83798  12.685   9.984   8.751  0.1531  0.2188  0.0079
24495SOL    HW183799  12.718   9.996   8.840 -0.8439 -0.2415  0.4592
24495SOL    HW283800  12.709   9.894   8.728  1.5984  0.7581 -0.7346
24496SOL     OW83801   4.656  11.251  11.859  0.2658  0.0863 -0.2117
24496SOL    HW183802   4.619  11.275  11.944  0.1355 -0.2416 -0.1743
24496SOL    HW283803   4.687  11.161  11.870 -0.3006 -0.1747 -0.6829
24497SOL     OW83804  12.338  12.752  12.846  0.1748  0.1273  0.2808
24497SOL    HW183805  12.360  12.663  12.873 -0.0371 -0.5194 -1.5085
24497SOL    HW283806  12.362  12.755  12.753  0.4828  2.0548  0.3816
24498SOL     OW83807  12.203   8.130   7.104 -0.1698 -0.9062 -0.5665
24498SOL    HW183808  12.182   8.095   7.018 -1.5026 -0.9695 -0.2317
24498SOL    HW283809  12.244   8.215   7.086 -2.6143  0.2298 -1.2569
24499SOL     OW83810   0.286  10.293   5.562 -0.6523  0.3615 -0.2136
24499SOL    HW183811   0.200  10.285   5.520  0.2447 -1.6499 -1.8858
24499SOL    HW283812   0.336  10.352   5.505  0.4008 -1.9660 -1.8771
24500SOL     OW83813  10.778   4.075   7.053 -0.4617  0.3017 -0.6794
24500SOL    HW183814  10.853   4.030   7.015 -1.2182 -0.2681 -1.5194
24500SOL    HW283815  10.761   4.028   7.136 -0.5181 -0.2229 -0.9832
24501SOL     OW83816   5.679   2.030   3.497  0.1239 -1.3125 -0.5324
24501SOL    HW183817   5.595   2.076   3.503  1.0481  0.3771  0.3551
24501SOL    HW283818   5.660   1.942   3.529 -0.8764 -0.3001  1.9308
24502SOL     OW83819   4.222  11.615   2.873 -0.1223  0.0318 -0.0678
24502SOL    HW183820   4.252  11.549   2.935  0.1174 -0.4619 -0.7035
24502SOL    HW283821   4.292  11.681   2.873  0.0633 -0.1651 -0.1171
24503SOL     OW83822   1.145   3.447   2.599 -0.2797  0.6168  0.0715
24503SOL    HW183823   1.236   3.469   2.582  0.1285 -1.1606 -0.3039
24503SOL    HW283824   1.101   3.458   2.514  0.4838 -2.3504 -0.8449
24504SOL     OW83825   4.064   0.322   3.403 -0.5420 -0.0238 -0.2131
24504SOL    HW183826   4.109   0.406   3.396  0.7062 -0.5236  1.2554
24504SOL    HW283827   4.033   0.319   3.493  0.1679 -1.4671  0.0151
24505SOL     OW83828  10.525   6.139   3.942  0.5768 -0.4518  0.3355
24505SOL    HW183829  10.514   6.099   4.028  1.5525  0.1568  0.7536
24505SOL    HW283830  10.619   6.159   3.936  0.3203  0.6594 -0.3491
24506SOL     OW83831   3.781   5.845   4.372 -0.1324 -0.0745 -0.4229
24506SOL    HW183832   3.712   5.817   4.432  0.3065  1.8627  1.0848
24506SOL    HW283833   3.745   5.924   4.330 -0.0626 -0.8850 -2.0587
24507SOL     OW83834   5.685   4.198   7.152 -0.1044 -0.5125 -0.1858
24507SOL    HW183835   5.736   4.252   7.092  2.6778 -1.1085  1.4499
24507SOL    HW283836   5.745   4.180   7.225 -2.1763 -2.6185  1.1493
24508SOL     OW83837   9.368  12.236   8.367  0.0636 -0.3239  0.4331
24508SOL    HW183838   9.389  12.266   8.456  1.9104  3.4806 -1.0853
24508SOL    HW283839   9.437  12.175   8.345  1.3084  0.9351  0.6798
24509SOL     OW83840  11.524   8.676   4.030 -0.7000 -0.1544  0.1402
24509SOL    HW183841  11.487   8.704   3.946 -2.0396 -1.0943  0.3794
24509SOL    HW283842  11.448   8.663   4.087  0.1688  0.1832  1.4170
24510SOL     OW83843   5.784   0.222   2.358  0.2847 -0.3709 -0.0433
24510SOL    HW183844   5.712   0.218   2.295 -0.7358  0.9063  0.9895
24510SOL    HW283845   5.863   0.215   2.304 -0.5492  0.8719 -1.5101
24511SOL     OW83846   2.971   9.741   6.181 -0.1603  0.1226  0.1258
24511SOL    HW183847   3.049   9.792   6.205  1.7325 -1.5586 -1.9986
24511SOL    HW283848   2.918   9.801   6.130  0.7649  0.7309 -0.1468
24512SOL     OW83849   0.235   6.862   2.894 -0.3079  0.5615  0.2879
24512SOL    HW183850   0.168   6.824   2.837  0.0792  0.9317 -0.4375
24512SOL    HW283851   0.318   6.837   2.854 -0.0384  1.4658  0.2454
24513SOL     OW83852  11.722   4.021   0.979 -0.0692  0.0861  0.3227
24513SOL    HW183853  11.761   3.937   0.954 -1.5132 -0.6027  0.2741
24513SOL    HW283854  11.727   4.074   0.899 -0.4387 -0.4764 -0.0881
24514SOL     OW83855   3.341   0.171   7.268 -0.3062 -0.0608 -0.0946
24514SOL    HW183856   3.335   0.155   7.362 -1.5151 -0.1619 -0.1654
24514SOL    HW283857   3.431   0.197   7.253 -0.3679  1.0041  1.2552
24515SOL     OW83858   9.049  10.601   5.893  0.2145  0.3393  0.1611
24515SOL    HW183859   9.112  10.538   5.928  3.7277  2.3064 -2.0608
24515SOL    HW283860   9.073  10.609   5.800 -1.7703  3.0220 -0.2354
24516SOL     OW83861   3.587   2.490   1.216 -0.7605  0.5172 -0.1898
24516SOL    HW183862   3.636   2.411   1.193 -0.7026  0.1171  1.1846
24516SOL    HW283863   3.619   2.557   1.156 -1.0455 -0.5755 -1.5976
24517SOL     OW83864   7.220   4.566   2.409  0.0143  0.5370 -0.2459
24517SOL    HW183865   7.293   4.626   2.429 -0.7648  1.9257 -1.3627
24517SOL    HW283866   7.235   4.541   2.318 -0.3606  0.0143 -0.1675
24518SOL     OW83867  12.357  12.622   2.731 -0.0787  0.0879 -0.3566
24518SOL    HW183868  12.451  12.623   2.749 -0.2644 -2.1446  1.0801
24518SOL    HW283869  12.322  12.694   2.783  0.5839 -0.4688  0.8899
24519SOL     OW83870   9.587   0.239   6.491  0.2749  0.1009 -0.7866
24519SOL    HW183871   9.645   0.212   6.419  0.1756  1.4665 -1.4237
24519SOL    HW283872   9.506   0.266   6.447 -0.8028 -1.6098  0.0852
24520SOL     OW83873   3.389   3.894   8.711 -0.1035 -0.5881  0.4007
24520SOL    HW183874   3.327   3.931   8.648 -0.6090  0.7833  1.6287
24520SOL    HW283875   3.474   3.926   8.682 -0.4267  0.7693  0.8617
24521SOL     OW83876   5.595  12.289   1.293  0.0692  0.6559  0.1666
24521SOL    HW183877   5.650  12.339   1.232 -0.9757  1.9524  0.2560
24521SOL    HW283878   5.507  12.294   1.255 -0.8263  2.4297  2.3027
24522SOL     OW83879   7.309   6.395   8.926 -0.3269 -0.2219 -0.6008
24522SOL    HW183880   7.270   6.309   8.912 -1.1548 -0.0887  0.7884
24522SOL    HW283881   7.273   6.449   8.855 -1.5375 -0.4714 -0.2003
24523SOL     OW83882   3.937   8.426   0.132 -0.4497  0.3029 -0.6519
24523SOL    HW183883   3.938   8.340   0.174 -1.5123  1.4621  1.9506
24523SOL    HW283884   4.028   8.442   0.109 -0.0534 -1.0558 -0.1275
24524SOL     OW83885   0.998   1.034   3.638 -0.3797  0.3867  0.5334
24524SOL    HW183886   1.014   1.041   3.733 -0.6101  0.3962  0.5718
24524SOL    HW283887   1.085   1.025   3.600 -0.3345 -0.6845  0.8367
24525SOL     OW83888   0.870  11.854   2.040  0.2214  0.0541 -0.2621
24525SOL    HW183889   0.827  11.872   1.956 -0.4058  0.8853  0.2165
24525SOL    HW283890   0.959  11.885   2.029 -0.2639  1.5706 -0.1537
24526SOL     OW83891   3.142   5.894  10.059  0.0488  0.5002  0.5518
24526SOL    HW183892   3.159   5.929  10.146  1.7939  1.6133 -0.1756
24526SOL    HW283893   3.188   5.954  10.000 -0.4257 -0.6698 -1.0728
24527SOL     OW83894   4.446   3.771   9.599  0.4129 -0.5231 -0.2465
24527SOL    HW183895   4.439   3.860   9.566  0.1653 -0.2796  0.4436
24527SOL    HW283896   4.431   3.779   9.694  2.9923 -0.9435  0.2773
24528SOL     OW83897   1.033   9.870  10.680 -0.1246 -0.1348 -0.5515
24528SOL    HW183898   1.041   9.965  10.669 -0.6464  0.3175  2.1816
24528SOL    HW283899   0.973   9.860  10.754 -0.7336 -2.6505 -1.2961
24529SOL     OW83900  11.145  12.862   7.490  0.1092 -0.1015 -0.1047
24529SOL    HW183901  11.101  12.778   7.488  0.7779 -0.5107  1.2746
24529SOL    HW283902  11.083  12.923   7.450 -0.6143 -1.1282 -0.5790
24530SOL     OW83903   8.274  10.116   7.285  0.0423  0.3516 -0.5245
24530SOL    HW183904   8.179  10.109   7.289 -0.0345  1.2634 -0.4540
24530SOL    HW283905   8.302  10.046   7.227 -0.5979 -0.4683  0.1385
24531SOL     OW83906   6.151   9.966   4.804  0.3244  0.1399  0.0687
24531SOL    HW183907   6.245   9.949   4.818  0.2734  0.0837  0.3381
24531SOL    HW283908   6.107   9.889   4.841  0.2772 -1.0162 -2.2150
24532SOL     OW83909  12.625   4.326   9.193  0.4492  0.0988  0.1146
24532SOL    HW183910  12.634   4.321   9.097 -2.0419 -2.7764 -0.1100
24532SOL    HW283911  12.593   4.415   9.209 -2.1112 -0.2818 -2.1481
24533SOL     OW83912   9.238   8.495  11.998 -0.1570  0.1834  0.2552
24533SOL    HW183913   9.330   8.483  12.021 -0.8181 -1.5481  2.4018
24533SOL    HW283914   9.190   8.472  12.078 -2.6414 -3.4862 -1.9828
24534SOL     OW83915  11.606   5.521   5.818  0.2054 -0.5721  0.5658
24534SOL    HW183916  11.676   5.456   5.809 -0.2472 -0.9563 -0.4087
24534SOL    HW283917  11.614   5.575   5.739 -1.6616 -1.7275 -0.5129
24535SOL     OW83918   9.299   0.832   3.959 -0.3004  0.2230 -0.6263
24535SOL    HW183919   9.379   0.858   4.005 -0.0830 -2.3207  0.5732
24535SOL    HW283920   9.232   0.892   3.993  0.4555  0.2910  0.8261
24536SOL     OW83921  12.854   3.961   5.919 -0.0848 -0.0650  0.0925
24536SOL    HW183922  12.932   4.001   5.879 -0.0455 -0.0842  0.1485
24536SOL    HW283923  12.838   3.883   5.865 -0.4238  0.2673 -0.2889
24537SOL     OW83924   4.226   8.681   2.819 -0.6784 -0.6369 -0.0421
24537SOL    HW183925   4.148   8.634   2.788  0.0253 -2.0732  0.2718
24537SOL    HW283926   4.211   8.693   2.912 -1.0413  0.1793 -0.1918
24538SOL     OW83927   2.772   7.004  12.493 -0.8977 -0.2114  0.1732
24538SOL    HW183928   2.831   6.929  12.483  0.1231  0.7385 -1.2124
24538SOL    HW283929   2.687   6.972  12.460  0.2091  0.0228 -3.3490
24539SOL     OW83930  12.816  11.152   3.693  0.0403 -0.3688 -0.5174
24539SOL    HW183931  12.855  11.120   3.612 -0.5443  1.0121 -1.3777
24539SOL    HW283932  12.880  11.216   3.726  0.0963 -0.6427 -0.0871
24540SOL     OW83933  11.793   6.409   1.906 -0.0213 -0.5213 -0.1011
24540SOL    HW183934  11.761   6.455   1.828  0.2661  0.6013  0.4217
24540SOL    HW283935  11.750   6.323   1.902  0.6762 -0.8386 -1.9571
24541SOL     OW83936   4.250   7.731  10.821 -0.7868  0.2013 -0.2186
24541SOL    HW183937   4.206   7.780  10.752 -0.4754 -0.9091 -1.2496
24541SOL    HW283938   4.332   7.702  10.781 -0.9815 -1.1767  0.3108
24542SOL     OW83939  10.106   8.652   0.015  0.2811  0.6157  0.4780
24542SOL    HW183940  10.144   8.680  -0.069 -1.0518  0.6316 -0.1447
24542SOL    HW283941  10.030   8.600  -0.010 -0.4345  1.0554  1.6887
24543SOL     OW83942   1.978   5.679   5.726  0.5884 -0.2332  0.5133
24543SOL    HW183943   1.890   5.701   5.696  0.6774  0.3848  0.6945
24543SOL    HW283944   1.969   5.667   5.820  0.6196 -0.5695  0.4735
24544SOL     OW83945   0.414   6.787   0.395  0.3935 -0.2909  0.1923
24544SOL    HW183946   0.391   6.767   0.304  1.9258  0.8179 -0.4904
24544SOL    HW283947   0.402   6.705   0.442  0.2576 -1.0742 -1.1619
24545SOL     OW83948   3.266   7.639  11.093 -0.0013 -1.2161  0.4779
24545SOL    HW183949   3.216   7.610  11.169  0.5865  0.4083  1.5344
24545SOL    HW283950   3.358   7.635  11.121  0.2949 -1.5287 -0.4891
24546SOL     OW83951   9.474  10.115   8.654  0.3463  0.4928  0.3040
24546SOL    HW183952   9.466  10.116   8.559  0.7504  1.3490  0.2752
24546SOL    HW283953   9.434  10.197   8.683  0.4162  0.3376  0.8559
24547SOL     OW83954  10.298   7.064   2.330  0.5562 -0.4522 -0.3641
24547SOL    HW183955  10.263   7.033   2.246  0.7007  0.4620 -0.7720
24547SOL    HW283956  10.265   7.001   2.394 -0.5979 -0.4520 -0.9376
24548SOL     OW83957  11.594  10.748   3.720  0.1194 -0.6924 -0.0494
24548SOL    HW183958  11.652  10.699   3.661  0.1940 -1.5927  0.7564
24548SOL    HW283959  11.613  10.713   3.807 -0.6941 -0.0629  0.3937
24549SOL     OW83960   7.595  10.473  11.102  0.7571  0.6005  0.0528
24549SOL    HW183961   7.624  10.469  11.193  0.7192 -0.8883  0.0116
24549SOL    HW283962   7.676  10.480  11.051  0.7474  2.2681  0.2138
24550SOL     OW83963   0.354   5.639   9.287 -0.2231 -0.2797  0.2744
24550SOL    HW183964   0.347   5.691   9.207 -1.0166  1.6970  1.5492
24550SOL    HW283965   0.446   5.647   9.312  0.0400 -0.9443 -0.4193
24551SOL     OW83966   1.616   8.398   9.814 -0.1736  0.6752 -0.0770
24551SOL    HW183967   1.628   8.305   9.832 -0.1159  0.9275  1.2218
24551SOL    HW283968   1.699   8.439   9.836 -1.1114  1.4478  2.4168
24552SOL     OW83969  10.073   0.201   5.888  0.1851  0.0856 -0.1959
24552SOL    HW183970   9.988   0.217   5.845 -0.1557 -1.0581  0.0340
24552SOL    HW283971  10.137   0.244   5.831 -0.3842 -0.3876 -1.2176
24553SOL     OW83972   2.096   1.041   2.398 -0.3404  0.5961  0.8352
24553SOL    HW183973   2.068   0.997   2.478  0.0272 -0.9413  0.1611
24553SOL    HW283974   2.018   1.043   2.343  0.2450 -1.7900 -0.2139
24554SOL     OW83975  11.903   2.484   3.976  0.0886  0.4808  0.5184
24554SOL    HW183976  11.854   2.517   4.051  1.1456  0.5035  1.2121
24554SOL    HW283977  11.928   2.563   3.928  0.1653  0.5162  0.6173
24555SOL     OW83978   1.264   3.345   7.037 -0.8878  0.6015 -0.1950
24555SOL    HW183979   1.252   3.345   6.942  1.1058  0.6413 -0.4779
24555SOL    HW283980   1.322   3.419   7.054 -2.0369  1.2394  1.1971
24556SOL     OW83981  11.453   8.726   7.536  0.1577  0.2052  0.3154
24556SOL    HW183982  11.466   8.662   7.606  0.3509  0.4251  0.4803
24556SOL    HW283983  11.410   8.676   7.467  0.1088 -0.0524  0.5282
24557SOL     OW83984   2.281   9.634   5.459  0.2935  0.0618 -0.1165
24557SOL    HW183985   2.188   9.645   5.442  0.4458  0.6872 -0.5520
24557SOL    HW283986   2.325   9.683   5.390  0.9451  0.1505  0.3474
24558SOL     OW83987   6.209   2.471   4.548  0.4299 -0.2086 -0.4856
24558SOL    HW183988   6.294   2.508   4.571  0.2467 -1.1976  2.1458
24558SOL    HW283989   6.146   2.536   4.580  0.1655 -0.4746 -0.4666
24559SOL     OW83990   6.307   8.209   7.837  0.0121 -0.0784 -0.3949
24559SOL    HW183991   6.259   8.291   7.853 -1.5065 -1.1031  0.5817
24559SOL    HW283992   6.273   8.148   7.903  0.0260 -1.9351 -2.0169
24560SOL     OW83993   2.662  11.126   1.587  0.3031  0.1839  0.0361
24560SOL    HW183994   2.662  11.203   1.530  0.1352  0.3059  0.2007
24560SOL    HW283995   2.755  11.108   1.602  0.3383  0.7775  0.5643
24561SOL     OW83996   3.281   2.555   3.025  0.2991 -0.0535 -0.3485
24561SOL    HW183997   3.315   2.531   2.938 -0.8867  0.8315 -1.0840
24561SOL    HW283998   3.353   2.535   3.085  0.8570 -1.4664 -1.4249
24562SOL     OW83999   6.340   6.544   3.996  0.3700  0.2245 -0.9389
24562SOL    HW184000   6.301   6.559   4.082  1.2479 -2.2594 -0.0182
24562SOL    HW284001   6.267   6.516   3.941  0.2161 -0.7600 -0.2516
24563SOL     OW84002   7.357   7.842   6.445  0.2172  0.2262 -0.2817
24563SOL    HW184003   7.349   7.750   6.420 -0.4749  0.3852 -0.6478
24563SOL    HW284004   7.272   7.865   6.481 -0.3681  1.3601 -2.2834
24564SOL     OW84005   0.854   9.341  10.383 -0.0093  0.4980  0.1566
24564SOL    HW184006   0.798   9.285  10.436  0.2796  1.0098  1.0382
24564SOL    HW284007   0.801   9.418  10.365 -0.5843 -0.2566 -1.4895
24565SOL     OW84008  11.832  11.899   1.615  0.1924  0.6907  0.0531
24565SOL    HW184009  11.867  11.985   1.593  1.0807  0.3342  0.0585
24565SOL    HW284010  11.821  11.855   1.530 -0.1227  0.7458  0.0614
24566SOL     OW84011   7.432   1.158   1.907  0.0632 -1.1836 -0.2132
24566SOL    HW184012   7.493   1.214   1.858  0.2779 -2.0649 -0.9729
24566SOL    HW284013   7.392   1.102   1.841 -1.6596 -0.5807  0.2663
24567SOL     OW84014   3.527  11.410   5.979 -0.1626 -0.3678 -0.7355
24567SOL    HW184015   3.517  11.491   5.930 -0.5277 -0.0243 -0.0996
24567SOL    HW284016   3.578  11.353   5.920  0.1795  0.3455 -1.1454
24568SOL     OW84017  10.854   9.898   9.680 -0.3114 -0.2956 -0.7930
24568SOL    HW184018  10.846   9.976   9.625 -3.4096 -0.7555 -1.1550
24568SOL    HW284019  10.790   9.909   9.749  0.8519 -1.4953  0.5582
24569SOL     OW84020   4.887   4.300   7.078  0.2171  0.2266 -0.5926
24569SOL    HW184021   4.981   4.287   7.074  0.4640  1.1268  1.0356
24569SOL    HW284022   4.853   4.258   7.000  1.6031 -3.1888  0.4605
24570SOL     OW84023   6.667  10.746   2.148 -0.2651 -0.3810 -0.3874
24570SOL    HW184024   6.595  10.685   2.164  1.2611 -2.4771 -1.1024
24570SOL    HW284025   6.739  10.714   2.201 -0.3165  2.9062  2.0089
24571SOL     OW84026   1.335   6.534   7.383 -0.3662  0.4780 -0.4018
24571SOL    HW184027   1.250   6.494   7.361 -0.4551  1.9173 -3.1322
24571SOL    HW284028   1.399   6.470   7.353 -0.5225  0.7343 -1.3341
24572SOL     OW84029   4.187   3.660   1.563 -0.3614 -0.1900 -0.0393
24572SOL    HW184030   4.166   3.570   1.538  0.3881 -0.3943  0.0461
24572SOL    HW284031   4.107   3.710   1.544 -1.1949 -1.0778  1.0402
24573SOL     OW84032  11.748   9.488  12.888  0.2422 -0.3634  0.1436
24573SOL    HW184033  11.791   9.488  12.803  0.5566 -1.3439  0.2864
24573SOL    HW284034  11.730   9.395  12.905 -1.2480 -0.0551  0.4288
24574SOL     OW84035   7.134   3.393   1.583  0.2806 -0.1505 -0.8285
24574SOL    HW184036   7.133   3.357   1.494  1.0046 -1.5638 -0.2939
24574SOL    HW284037   7.225   3.419   1.597  0.0850  0.4450 -0.6346
24575SOL     OW84038   7.254  12.120  10.189 -0.4501  0.0467 -0.3247
24575SOL    HW184039   7.327  12.168  10.150 -0.6586  1.5394  0.9970
24575SOL    HW284040   7.294  12.066  10.256 -0.3431 -0.8001 -1.0533
24576SOL     OW84041  11.790   8.275   1.016  0.2294  0.5351 -0.1553
24576SOL    HW184042  11.718   8.326   1.055 -1.2674 -0.6371 -1.2805
24576SOL    HW284043  11.754   8.187   1.006  2.0250 -0.2259 -0.2832
24577SOL     OW84044   3.624   3.825   0.162  0.3711  0.2762  0.0065
24577SOL    HW184045   3.578   3.906   0.182  0.9221  0.6580 -0.2600
24577SOL    HW284046   3.568   3.780   0.098 -0.5345 -0.1298  1.0405
24578SOL     OW84047   9.643  12.097   0.512  0.0907  0.0783 -0.3741
24578SOL    HW184048   9.669  12.189   0.510  0.8403 -0.1250 -0.4811
24578SOL    HW284049   9.718  12.052   0.552  0.2118 -0.6307 -1.3531
24579SOL     OW84050   9.100  10.801  10.726  0.0335  0.3367  0.0819
24579SOL    HW184051   9.154  10.816  10.804 -1.4872 -3.0505  2.0309
24579SOL    HW284052   9.148  10.734  10.677 -0.0693  0.8693 -0.7591
24580SOL     OW84053   9.596   9.006   2.249  0.6340 -0.6452  0.2448
24580SOL    HW184054   9.547   9.086   2.229  0.6484 -0.6110  0.3450
24580SOL    HW284055   9.684   9.024   2.216  0.2861 -1.1632 -1.0290
24581SOL     OW84056   9.158   3.313   8.646 -0.1225  0.2146 -0.2492
24581SOL    HW184057   9.248   3.330   8.618  0.4865  0.6889  1.8483
24581SOL    HW284058   9.156   3.218   8.662  0.5900  0.4633  1.4960
24582SOL     OW84059  11.090   0.971   3.755 -0.7871 -0.3860  0.2895
24582SOL    HW184060  11.033   1.015   3.818 -1.2543 -3.0429  1.8591
24582SOL    HW284061  11.176   0.971   3.796 -0.5403  0.0467 -0.2214
24583SOL     OW84062   0.536  11.094  11.029  0.1935 -0.5085 -0.2041
24583SOL    HW184063   0.553  11.160  10.961 -0.3028 -0.1689 -0.0021
24583SOL    HW284064   0.621  11.083  11.073  0.2131  0.2072 -0.0525
24584SOL     OW84065  12.451   9.987   7.500  0.0436 -0.5250 -0.2296
24584SOL    HW184066  12.377   9.952   7.548 -0.6122 -2.6990 -2.6003
24584SOL    HW284067  12.415  10.063   7.453 -0.2953 -0.6617 -0.1930
24585SOL     OW84068  10.547   6.103   5.979  0.4689  1.0820  0.3207
24585SOL    HW184069  10.637   6.105   5.946 -0.3584 -0.5313 -2.3320
24585SOL    HW284070  10.508   6.027   5.937 -2.2362  1.9082  1.1429
24586SOL     OW84071   1.172   9.088   9.659 -0.0582  0.5947  0.3182
24586SOL    HW184072   1.137   9.169   9.623 -0.8831  1.3833  2.6595
24586SOL    HW284073   1.189   9.033   9.583 -3.3638  1.3847 -1.1798
24587SOL     OW84074   8.049  11.815   5.632 -0.1543 -0.2639  0.4462
24587SOL    HW184075   8.020  11.724   5.642 -0.3829 -0.2904 -0.3794
24587SOL    HW284076   8.100  11.833   5.711  1.6330 -1.7785 -0.2892
24588SOL     OW84077   3.605   4.072  11.533  0.3510 -0.3339 -0.3576
24588SOL    HW184078   3.581   4.007  11.599  1.7602  1.0069  1.5910
24588SOL    HW284079   3.532   4.071  11.471 -0.8619 -1.9428  0.9904
24589SOL     OW84080   1.343   6.012   7.487 -0.1016  0.0286 -0.2107
24589SOL    HW184081   1.393   6.019   7.568 -1.0588  0.5256  0.3628
24589SOL    HW284082   1.370   6.087   7.434  0.0400  0.0768 -0.0669
24590SOL     OW84083   2.703   6.085   0.925 -0.1156  0.0223 -0.6418
24590SOL    HW184084   2.703   6.071   1.020 -1.7269  0.5089 -0.5394
24590SOL    HW284085   2.794   6.106   0.904  0.2901 -0.2231  0.7725
24591SOL     OW84086   5.410   7.539   9.391  0.0615  0.8379 -0.3520
24591SOL    HW184087   5.460   7.502   9.464 -0.6483 -0.8365 -0.6500
24591SOL    HW284088   5.476   7.558   9.324  0.4477 -0.2327 -0.3014
24592SOL     OW84089  10.528   2.552  11.520 -0.1167 -0.9622  0.6127
24592SOL    HW184090  10.541   2.458  11.537  1.6180 -0.8408  0.1356
24592SOL    HW284091  10.534   2.559  11.425 -0.1042 -0.3455  0.6603
24593SOL     OW84092  11.474  11.774   4.353  0.4358 -0.6043 -0.0154
24593SOL    HW184093  11.409  11.843   4.359 -2.3096 -3.0934  2.0035
24593SOL    HW284094  11.459  11.733   4.268 -1.0972 -1.4524  0.6229
24594SOL     OW84095   1.448  11.326   3.246  0.0318  0.7244  0.0446
24594SOL    HW184096   1.476  11.281   3.326  0.3239  4.0552  2.0062
24594SOL    HW284097   1.352  11.322   3.248  0.0616 -0.8794 -0.5497
24595SOL     OW84098   7.951  12.983   7.502 -0.0991  0.3925  0.0394
24595SOL    HW184099   7.865  12.947   7.523 -0.3338 -0.2234 -1.8046
24595SOL    HW284100   7.969  12.951   7.414  1.7509  1.0367  0.1541
24596SOL     OW84101  10.071   2.300   5.440 -0.4218  0.0538  0.3963
24596SOL    HW184102  10.137   2.356   5.480 -0.0726 -0.0288 -0.0573
24596SOL    HW284103  10.024   2.357   5.379 -0.3724 -0.0299  0.2782
24597SOL     OW84104   3.030  10.513   7.580  0.0385 -0.3568  0.7456
24597SOL    HW184105   3.054  10.597   7.617 -0.4965 -0.6318  1.7479
24597SOL    HW284106   2.959  10.533   7.519  1.1054  0.1328 -0.3701
24598SOL     OW84107  11.261   4.938   2.385 -0.0423  0.0160 -0.5612
24598SOL    HW184108  11.250   4.859   2.439  0.1280  0.6336  0.4016
24598SOL    HW284109  11.356   4.950   2.381 -0.0851  1.6151  1.5054
24599SOL     OW84110   3.192   0.179   0.960  0.0719  0.0015 -0.0379
24599SOL    HW184111   3.163   0.114   1.023 -0.3872  0.4823  0.2533
24599SOL    HW284112   3.261   0.135   0.910  1.2282 -0.0325  1.5315
24600SOL     OW84113   3.694   8.438   4.658 -0.1459 -0.3980 -0.2581
24600SOL    HW184114   3.678   8.477   4.744  0.9725 -0.8218  0.1566
24600SOL    HW284115   3.650   8.496   4.597 -0.2812  0.3514  0.5354
24601SOL     OW84116   6.863   6.077   5.457  0.4045  0.2745 -0.6034
24601SOL    HW184117   6.796   6.078   5.388 -0.6324 -1.1342  0.3290
24601SOL    HW284118   6.904   5.991   5.449  0.7496  0.3704  0.0949
24602SOL     OW84119   9.040   1.052   5.054 -0.6277  0.7056  0.5308
24602SOL    HW184120   8.992   1.008   5.124  0.4616  0.4560  1.1481
24602SOL    HW284121   9.132   1.045   5.080 -0.1756  0.3659 -1.0593
24603SOL     OW84122  10.517   9.069   5.737 -0.3888 -0.0270  0.0020
24603SOL    HW184123  10.463   9.147   5.752  0.7798  1.4000 -2.4948
24603SOL    HW284124  10.471   9.021   5.668  0.4957  0.1857 -0.7572
24604SOL     OW84125   9.966   1.205   5.208  0.5516 -0.3586  0.0262
24604SOL    HW184126  10.045   1.236   5.252  0.8107 -0.2605 -0.4970
24604SOL    HW284127   9.906   1.280   5.212  0.2015 -0.6790  1.0744
24605SOL     OW84128   1.974   6.514   5.398  0.3828 -0.6940 -0.2531
24605SOL    HW184129   2.047   6.506   5.459  0.6619 -2.2364 -0.7415
24605SOL    HW284130   1.897   6.524   5.454  0.9883  1.6034  0.2625
24606SOL     OW84131   2.454  11.432  10.168 -0.1227  0.0899 -0.2573
24606SOL    HW184132   2.506  11.512  10.165 -0.6567  0.5037  0.9456
24606SOL    HW284133   2.450  11.409  10.261 -0.3819 -1.0675 -0.5344
24607SOL     OW84134  10.459   2.092  12.578  0.2885 -0.2756 -0.1166
24607SOL    HW184135  10.502   2.008  12.562 -1.4307 -1.6117  1.7164
24607SOL    HW284136  10.378   2.087  12.527 -0.2894 -0.1517  0.7827
24608SOL     OW84137   0.214   6.232  11.981 -0.1368 -0.4025  0.4331
24608SOL    HW184138   0.180   6.229  11.891 -0.5668  0.3725  0.5590
24608SOL    HW284139   0.214   6.325  12.003  1.2915 -0.4545  0.7461
24609SOL     OW84140   7.883   0.380   4.836 -0.5275 -0.0406  0.2407
24609SOL    HW184141   7.900   0.291   4.803  0.4844  0.0148  0.5692
24609SOL    HW284142   7.869   0.368   4.930 -0.2681  0.1549  0.3057
24610SOL     OW84143   5.079   5.985   9.802  0.3796 -0.2560  0.2587
24610SOL    HW184144   5.127   6.054   9.848  2.6414 -0.8182 -1.1132
24610SOL    HW284145   5.055   5.922   9.870  1.4712  0.1322  1.0186
24611SOL     OW84146   9.460   9.467   0.936  0.3742 -0.3940  0.1349
24611SOL    HW184147   9.435   9.384   0.976 -0.6881 -0.1912 -0.0884
24611SOL    HW284148   9.434   9.533   0.999  2.0710 -0.2544  0.7335
24612SOL     OW84149   5.857   9.691   1.020  0.2803 -0.3085  0.8473
24612SOL    HW184150   5.928   9.752   1.042  0.4439  0.1347 -0.7679
24612SOL    HW284151   5.890   9.643   0.944 -0.3709 -1.5264  1.3043
24613SOL     OW84152   9.815   4.109   2.057 -0.3664  0.3757  0.1906
24613SOL    HW184153   9.723   4.084   2.054  0.0449 -1.5221  1.5332
24613SOL    HW284154   9.857   4.056   1.989 -0.1345  0.6050  0.1528
24614SOL     OW84155   2.504  11.903   4.048 -0.1955 -0.0649 -0.2317
24614SOL    HW184156   2.599  11.908   4.039 -0.0364 -0.5681  1.0109
24614SOL    HW284157   2.480  11.818   4.009 -0.2857  0.4924 -1.4611
24615SOL     OW84158   6.641   5.516   2.359 -0.1347  0.4768 -0.0978
24615SOL    HW184159   6.582   5.531   2.433  1.3264  2.9858  0.7071
24615SOL    HW284160   6.724   5.489   2.400  0.2381  0.3330 -0.9388
24616SOL     OW84161   8.198   0.817   5.581  0.4836 -0.1156 -0.6910
24616SOL    HW184162   8.277   0.839   5.630  0.9287 -0.6998 -1.1234
24616SOL    HW284163   8.230   0.795   5.493 -0.0754 -1.0147 -0.6851
24617SOL     OW84164   7.252   0.818  12.899 -0.1360  0.5109  0.1277
24617SOL    HW184165   7.222   0.808  12.989 -0.1605  1.9666  0.3041
24617SOL    HW284166   7.172   0.830  12.848 -0.1125 -0.1673 -0.0878
24618SOL     OW84167   8.488   3.751   8.402  0.2284 -0.0241  0.3428
24618SOL    HW184168   8.424   3.823   8.408  0.1837 -0.1417  1.5989
24618SOL    HW284169   8.566   3.791   8.363 -0.6930  0.0432 -1.5504
24619SOL     OW84170   3.576   5.407   0.675  0.7260 -0.7297 -0.3587
24619SOL    HW184171   3.557   5.333   0.616 -0.5000 -0.4473 -0.3527
24619SOL    HW284172   3.518   5.476   0.645 -0.0722 -0.6438  1.2948
24620SOL     OW84173  10.184   0.587   8.801 -0.1128  0.7746 -0.2034
24620SOL    HW184174  10.195   0.676   8.834  0.3154  2.0298 -3.3619
24620SOL    HW284175  10.102   0.557   8.841 -0.0195  2.3881  1.3120
24621SOL     OW84176   4.665   2.683   7.754  0.4165 -0.7320  0.1478
24621SOL    HW184177   4.623   2.704   7.837  0.3769  3.2813 -0.6903
24621SOL    HW284178   4.594   2.650   7.699 -0.6397  1.2003  0.2852
24622SOL     OW84179   0.369   6.540   3.198  0.1969 -0.2118  0.0618
24622SOL    HW184180   0.402   6.570   3.283 -1.9078  0.5461  0.6666
24622SOL    HW284181   0.440   6.561   3.137  1.1436  0.6445  1.3848
24623SOL     OW84182  11.168   5.179   1.868  1.0739  0.3129 -0.1707
24623SOL    HW184183  11.231   5.152   1.935  2.3411  0.2027 -1.3668
24623SOL    HW284184  11.083   5.147   1.901  1.4732  1.1728  1.8654
24624SOL     OW84185   8.347   3.543   8.862 -0.1522  0.0592 -0.2709
24624SOL    HW184186   8.272   3.560   8.804 -0.5002 -0.0033  0.1544
24624SOL    HW284187   8.414   3.507   8.805 -0.0302  1.2018 -0.8775
24625SOL     OW84188  11.753   5.662   4.433 -0.3466 -0.4575 -0.2995
24625SOL    HW184189  11.806   5.713   4.495 -1.8880  0.9705 -0.0954
24625SOL    HW284190  11.816   5.628   4.369  0.7465  1.8032 -0.4948
24626SOL     OW84191   4.202   0.196   0.113  0.1326  0.0557 -0.0473
24626SOL    HW184192   4.228   0.235   0.196  1.0326  0.0780 -0.3255
24626SOL    HW284193   4.209   0.267   0.049 -0.4275  0.0064 -0.1737
24627SOL     OW84194   1.796   6.025   3.165 -0.3134  0.1428 -0.0265
24627SOL    HW184195   1.737   6.073   3.222 -0.2472  0.7534 -0.4680
24627SOL    HW284196   1.879   6.022   3.213 -0.1741  0.9080 -0.2112
24628SOL     OW84197   2.520   2.274   5.406  0.1596  0.0447 -0.2015
24628SOL    HW184198   2.535   2.304   5.316 -1.3152 -0.0775 -0.5161
24628SOL    HW284199   2.467   2.344   5.446  0.3735 -0.1378  0.4123
24629SOL     OW84200   2.141  10.616   0.328  0.2291  0.4881 -0.8210
24629SOL    HW184201   2.078  10.665   0.380  0.7214 -0.3457  0.6319
24629SOL    HW284202   2.165  10.675   0.257 -1.2294  1.2864 -0.6843
24630SOL     OW84203   5.512   2.399   4.132  0.4125 -0.6735 -0.0381
24630SOL    HW184204   5.439   2.384   4.192 -2.0699 -1.6245 -3.1043
24630SOL    HW284205   5.559   2.315   4.131  1.8249 -0.0109  2.0637
24631SOL     OW84206  12.078   1.618   5.643  0.2026 -0.0424 -0.0330
24631SOL    HW184207  12.020   1.542   5.652  0.1517  0.1062  1.0846
24631SOL    HW284208  12.100   1.642   5.734 -1.5311  2.6295 -0.2173
24632SOL     OW84209   0.609   6.010   8.993  0.0703 -0.4295  0.2207
24632SOL    HW184210   0.515   5.998   8.980 -0.6179  1.0124  2.9870
24632SOL    HW284211   0.632   5.950   9.065  0.9096  0.3055  0.5936
24633SOL     OW84212   4.187   4.311   3.829 -0.1025 -0.1102  0.4090
24633SOL    HW184213   4.105   4.318   3.879  0.6390 -0.8839  1.7617
24633SOL    HW284214   4.236   4.389   3.852 -0.3672  0.2704 -0.2754
24634SOL     OW84215  10.418  10.693   4.524  0.0098 -0.6203  0.2541
24634SOL    HW184216  10.447  10.661   4.439  0.1670 -1.1040  0.4877
24634SOL    HW284217  10.389  10.783   4.507  1.6438 -0.1183  0.0299
24635SOL     OW84218   2.530  11.133   9.434 -0.2980  0.3801 -0.5641
24635SOL    HW184219   2.456  11.191   9.417  0.0998  1.3462  0.8058
24635SOL    HW284220   2.546  11.142   9.528  0.6836 -0.8873 -0.5824
24636SOL     OW84221   4.354  11.621   6.590  0.0551  0.0663  0.3521
24636SOL    HW184222   4.273  11.656   6.553  0.0441  1.0200  1.2393
24636SOL    HW284223   4.349  11.641   6.684  1.8127  1.1908  0.2643
24637SOL     OW84224   4.581  11.866   9.254  0.1800 -0.6304 -0.2916
24637SOL    HW184225   4.664  11.819   9.245  0.7065  0.4500 -1.3204
24637SOL    HW284226   4.521  11.819   9.196  0.0818 -1.3373  0.3600
24638SOL     OW84227   6.687   4.583   6.516 -0.0798  0.1039 -0.5410
24638SOL    HW184228   6.740   4.550   6.589 -0.5669  1.8815  0.7076
24638SOL    HW284229   6.750   4.601   6.446  0.5622 -0.5387 -0.1409
24639SOL     OW84230  11.045   4.644  10.173  0.4089  0.3916  0.2698
24639SOL    HW184231  10.974   4.708  10.182 -0.5000 -0.6031  0.3481
24639SOL    HW284232  11.119   4.696  10.141 -0.7832  1.2009 -1.3301
24640SOL     OW84233   1.693   8.091  12.771 -0.2375  0.1506  0.3430
24640SOL    HW184234   1.780   8.101  12.808 -0.5426  0.8788  0.8907
24640SOL    HW284235   1.641   8.159  12.813 -0.8120  0.4407 -0.7884
24641SOL     OW84236  10.214   4.541   0.772 -0.2449  0.7236  0.4480
24641SOL    HW184237  10.266   4.554   0.852 -0.6450 -0.2615  0.8864
24641SOL    HW284238  10.124   4.534   0.804 -0.4137  0.4009 -0.1026
24642SOL     OW84239   4.706   1.761   8.938  0.0268 -0.5232  0.6052
24642SOL    HW184240   4.707   1.729   8.848  1.0499 -0.0024  0.4133
24642SOL    HW284241   4.622   1.731   8.974 -0.5915 -0.3581 -0.6570
24643SOL     OW84242  10.820   2.630   1.395 -0.7082  0.2467 -0.9262
24643SOL    HW184243  10.745   2.572   1.388  2.6249 -4.4569 -2.3500
24643SOL    HW284244  10.826   2.651   1.488 -2.7347 -0.7144 -0.5394
24644SOL     OW84245   0.748   1.971  10.945 -0.4563  0.4740 -0.1746
24644SOL    HW184246   0.785   1.884  10.929  1.1762  1.2257 -0.7731
24644SOL    HW284247   0.701   1.963  11.028 -0.6736 -1.0663 -0.4238
24645SOL     OW84248  11.846   8.431   7.729  0.1396  0.0148 -0.4831
24645SOL    HW184249  11.886   8.427   7.816 -0.6108 -0.0337 -0.1289
24645SOL    HW284250  11.808   8.519   7.726 -0.4910 -0.2535 -0.4590
24646SOL     OW84251   7.542  12.620   7.224  0.2122  0.6815  0.4515
24646SOL    HW184252   7.525  12.546   7.167 -0.3508  1.1001  0.0659
24646SOL    HW284253   7.545  12.696   7.166  0.8782  0.9568  0.8286
24647SOL     OW84254  11.131  12.364   3.897  0.2779 -0.2237  0.1397
24647SOL    HW184255  11.221  12.387   3.920  0.1402 -0.9425  1.5033
24647SOL    HW284256  11.103  12.433   3.837  1.5637  0.2848  0.0907
24648SOL     OW84257   6.288   1.189   9.854  0.0062 -0.1008  0.0344
24648SOL    HW184258   6.194   1.203   9.863  0.1432  0.6100  0.3737
24648SOL    HW284259   6.326   1.276   9.851  0.6123 -0.3752 -0.6804
24649SOL     OW84260   5.980   0.425   8.917  0.0766  0.0942 -0.9301
24649SOL    HW184261   5.926   0.396   8.990  0.2566 -1.1611 -1.2619
24649SOL    HW284262   5.963   0.518   8.909 -3.7528 -0.5639 -2.4201
24650SOL     OW84263   6.324  11.308   6.489 -0.1182 -0.1167 -0.3176
24650SOL    HW184264   6.290  11.250   6.421  0.4383 -0.0790 -0.6416
24650SOL    HW284265   6.371  11.376   6.441 -0.2443  0.2550  0.0830
24651SOL     OW84266   5.345   2.305  12.929 -0.0720 -0.1408  0.0163
24651SOL    HW184267   5.381   2.270  13.011  0.5254 -2.3390 -1.1184
24651SOL    HW284268   5.288   2.376  12.957  0.1571 -0.7927  2.3481
24652SOL     OW84269  10.625  10.225   0.104  0.9336 -0.0146  0.1623
24652SOL    HW184270  10.616  10.234   0.199 -0.5257  1.6271 -0.0749
24652SOL    HW284271  10.641  10.314   0.073  0.2923 -0.3463 -1.2182
24653SOL     OW84272   0.112   2.397   0.394 -0.0032 -0.0807 -0.2015
24653SOL    HW184273   0.021   2.407   0.423  0.8244  3.8344  1.7586
24653SOL    HW284274   0.154   2.347   0.465 -0.0187  0.8668  0.4916
24654SOL     OW84275   3.735   1.833   5.267  0.5063 -0.3150 -0.0081
24654SOL    HW184276   3.650   1.875   5.259  1.2491  1.0828 -1.2850
24654SOL    HW284277   3.718   1.740   5.256 -0.9535 -0.1841  0.8288
24655SOL     OW84278   4.235  12.427   7.936  0.3072  0.8324  0.6678
24655SOL    HW184279   4.253  12.520   7.920 -0.9980  0.9802 -0.0705
24655SOL    HW284280   4.164  12.406   7.876  0.4564 -0.6078  0.9702
24656SOL     OW84281   5.015   5.231   8.719 -0.2944  0.0059 -0.2444
24656SOL    HW184282   5.004   5.297   8.651 -1.7601 -0.9196 -0.9546
24656SOL    HW284283   5.001   5.148   8.674 -2.8085 -0.5663  1.4050
24657SOL     OW84284   1.507   1.409   2.314  0.1105  0.0274 -0.0820
24657SOL    HW184285   1.487   1.426   2.222 -0.4295 -1.0461 -0.1795
24657SOL    HW284286   1.549   1.324   2.314  0.0719 -0.0000  0.6711
24658SOL     OW84287   8.595   1.082   2.670  0.4069  0.1510  0.4320
24658SOL    HW184288   8.601   0.990   2.646  1.4180  0.7005 -1.5951
24658SOL    HW284289   8.579   1.128   2.588  0.6186  1.8499  1.2986
24659SOL     OW84290   4.023   6.777  11.444  0.7127  0.5792 -0.4741
24659SOL    HW184291   4.083   6.758  11.372  1.0868  0.7040 -0.1930
24659SOL    HW284292   4.056   6.858  11.482  0.4725  0.5507 -0.2037
24660SOL     OW84293   5.716   8.614   0.794 -0.7103 -0.0049 -0.0503
24660SOL    HW184294   5.717   8.524   0.763 -2.4411 -0.0582 -0.0513
24660SOL    HW284295   5.803   8.647   0.775  0.6755 -2.2822  1.7986
24661SOL     OW84296  11.613   9.636   2.687 -0.2253  0.1907  0.1900
24661SOL    HW184297  11.642   9.715   2.642  1.3139 -1.0318 -1.0831
24661SOL    HW284298  11.542   9.602   2.633 -0.1286  0.1170  0.1078
24662SOL     OW84299   5.543   3.740   4.273 -0.0635 -0.3365 -0.3224
24662SOL    HW184300   5.548   3.798   4.349 -2.8944  1.6872 -1.4935
24662SOL    HW284301   5.580   3.791   4.201  2.2532 -2.0935 -0.4914
24663SOL     OW84302   8.434   9.813  12.580 -0.2553 -0.2462  0.2609
24663SOL    HW184303   8.424   9.833  12.487 -1.3751 -0.3643  0.3372
24663SOL    HW284304   8.496   9.879  12.612  0.2797 -0.3122 -0.5919
24664SOL     OW84305   3.844   0.811   7.049  0.0844 -0.2093  0.6591
24664SOL    HW184306   3.907   0.883   7.058  0.5980 -0.8836  2.9983
24664SOL    HW284307   3.765   0.843   7.091 -0.1538 -0.4969  0.4312
24665SOL     OW84308   0.832   4.052   1.532 -0.2006 -0.2188 -0.6314
24665SOL    HW184309   0.788   4.023   1.612  0.3246 -0.0492 -0.2790
24665SOL    HW284310   0.807   3.986   1.467  1.6728 -2.0169  0.3503
24666SOL     OW84311  12.418  10.904   0.613  0.2469  0.1581  0.3169
24666SOL    HW184312  12.459  10.831   0.659 -1.9654 -0.3825  1.5451
24666SOL    HW284313  12.477  10.978   0.628  2.8434 -1.3930 -1.4322
24667SOL     OW84314   1.520   8.493  12.904 -0.3983  0.4939 -0.1921
24667SOL    HW184315   1.606   8.467  12.937 -1.6769 -1.4764  1.9545
24667SOL    HW284316   1.510   8.584  12.932  0.5637  0.4110  0.4922
24668SOL     OW84317   6.776  11.137  10.267  0.5141 -0.1984  0.0219
24668SOL    HW184318   6.735  11.059  10.304 -1.9541  1.0066  0.0420
24668SOL    HW284319   6.857  11.105  10.226  0.2468 -2.5116  1.1486
24669SOL     OW84320   1.417   7.626   6.187 -0.3494  0.3321  0.2681
24669SOL    HW184321   1.433   7.690   6.255 -1.2930 -0.6647  1.4743
24669SOL    HW284322   1.495   7.570   6.188 -0.2109  0.5285  0.3050
24670SOL     OW84323   6.914  11.708   5.348 -0.5186  0.4941 -0.4808
24670SOL    HW184324   6.947  11.708   5.438  1.3691  1.4866 -1.1067
24670SOL    HW284325   6.848  11.777   5.347 -1.9054 -0.7524  0.5373
24671SOL     OW84326   7.555   1.656   7.007  0.9199 -0.7295  0.4482
24671SOL    HW184327   7.526   1.719   7.073 -0.1960 -1.9542  1.1877
24671SOL    HW284328   7.640   1.626   7.037  1.8590  0.9855 -0.3506
24672SOL     OW84329  11.067   0.717   2.712 -0.2099 -0.6864 -0.0670
24672SOL    HW184330  11.084   0.809   2.731  0.7082 -0.2187 -2.6766
24672SOL    HW284331  11.146   0.687   2.667 -0.1833 -3.0094  1.3786
24673SOL     OW84332   9.735   8.972   3.017  0.2747 -0.2971  0.2232
24673SOL    HW184333   9.703   8.881   3.023  1.4927 -0.7747 -0.3162
24673SOL    HW284334   9.813   8.966   2.962  0.3509  1.0973  0.1628
24674SOL     OW84335   2.817   8.159  10.908 -0.0273  0.6896 -0.1992
24674SOL    HW184336   2.799   8.235  10.854 -0.4814  0.5003 -0.3148
24674SOL    HW284337   2.883   8.110  10.859 -0.4387  0.5170 -0.5860
24675SOL     OW84338   5.525   0.177   0.271  0.0609  0.0506 -0.5089
24675SOL    HW184339   5.483   0.185   0.185  1.2303 -2.5492 -1.4436
24675SOL    HW284340   5.499   0.090   0.302  1.8852 -0.2043  0.4530
24676SOL     OW84341   3.262   4.898   6.452 -0.2479  0.2812 -0.1413
24676SOL    HW184342   3.204   4.924   6.523 -0.1741 -1.0059  0.4027
24676SOL    HW284343   3.224   4.817   6.418  0.7852 -0.1478 -0.3038
24677SOL     OW84344  11.335   8.913   1.433 -0.4588 -0.2289  0.0684
24677SOL    HW184345  11.361   9.004   1.416 -1.5082  0.0114 -0.3166
24677SOL    HW284346  11.412   8.874   1.475 -0.7789  1.4531  2.4396
24678SOL     OW84347   3.790   3.370   4.760  0.5419 -0.1742  0.1156
24678SOL    HW184348   3.739   3.290   4.746 -0.2066  0.1458  0.9316
24678SOL    HW284349   3.724   3.439   4.764  1.2809  0.7684 -2.3534
24679SOL     OW84350   7.496  12.447   6.657 -0.2047 -0.0166  0.4171
24679SOL    HW184351   7.566  12.439   6.722  1.0019 -2.7574 -1.0607
24679SOL    HW284352   7.440  12.371   6.672  0.2831 -0.8994 -1.8298
24680SOL     OW84353   5.297   8.485   7.236  0.0722 -0.5568 -0.3651
24680SOL    HW184354   5.313   8.578   7.219  0.2467 -0.9517 -2.6378
24680SOL    HW284355   5.349   8.466   7.315  1.9926  0.7418 -1.2251
24681SOL     OW84356   1.136  11.471   5.907  0.5072 -0.0803 -0.7442
24681SOL    HW184357   1.179  11.531   5.846  2.4169 -0.4341  0.1698
24681SOL    HW284358   1.169  11.385   5.883 -1.6280 -0.7325 -1.5547
24682SOL     OW84359   0.189   1.260   3.198 -0.9828 -0.2007 -0.4009
24682SOL    HW184360   0.158   1.170   3.191 -1.5224 -0.0068 -0.5783
24682SOL    HW284361   0.219   1.269   3.288 -0.6408 -0.6441 -0.4661
24683SOL     OW84362   0.038   6.731  11.845 -0.2434  0.1733  0.4928
24683SOL    HW184363  -0.032   6.772  11.896  0.7835  0.0301  2.0880
24683SOL    HW284364  -0.008   6.683  11.776 -1.6088  1.5281  0.3982
24684SOL     OW84365   2.256   4.315   4.485  0.0952  0.8866 -0.0231
24684SOL    HW184366   2.191   4.292   4.419  0.6682 -2.5475  0.4627
24684SOL    HW284367   2.330   4.347   4.435 -0.7290  1.6778 -0.7780
24685SOL     OW84368   3.572   8.160   9.862  0.3597 -0.0657  1.0529
24685SOL    HW184369   3.606   8.072   9.851 -1.1078 -0.5817  0.3676
24685SOL    HW284370   3.493   8.149   9.915 -1.8243  0.2894 -1.8358
24686SOL     OW84371   7.045   2.905  12.700  0.0184  0.4084  0.0400
24686SOL    HW184372   7.061   2.854  12.620 -0.5464  1.2753 -0.6546
24686SOL    HW284373   7.000   2.844  12.758  2.6412 -1.0302  0.7374
24687SOL     OW84374  11.653   9.568   6.956  0.7516  0.3359 -0.4864
24687SOL    HW184375  11.675   9.501   6.892 -1.4226  0.8594 -1.9009
24687SOL    HW284376  11.662   9.525   7.041 -0.1221 -1.6173 -1.3346
24688SOL     OW84377   0.274   1.030   7.900  0.1185 -0.2158  0.1996
24688SOL    HW184378   0.283   1.084   7.979  0.4338 -1.0197  0.7246
24688SOL    HW284379   0.364   1.016   7.871  0.0397 -0.4968  0.0894
24689SOL     OW84380   6.860   0.302  11.907 -0.2080  0.7134  0.3008
24689SOL    HW184381   6.844   0.308  11.813  1.8279  1.7451 -0.0362
24689SOL    HW284382   6.774   0.318  11.947 -1.0792  0.3981 -1.3594
24690SOL     OW84383  10.182  11.396   5.896  0.1920  0.2053 -0.4698
24690SOL    HW184384  10.089  11.396   5.919  0.4139  1.9310  0.5422
24690SOL    HW284385  10.184  11.359   5.807 -1.4096 -0.1146 -0.4067
24691SOL     OW84386  12.468   3.282   8.228 -0.1968 -0.2834  0.0847
24691SOL    HW184387  12.534   3.341   8.192  0.9444 -2.1224 -1.0219
24691SOL    HW284388  12.496   3.268   8.319 -0.0312  0.2703  0.1231
24692SOL     OW84389   5.906   0.873   0.956  0.6055 -0.5499  0.5392
24692SOL    HW184390   5.888   0.929   0.881  0.5534  0.4027  1.2340
24692SOL    HW284391   5.829   0.817   0.964  0.2860 -0.1473  0.3237
24693SOL     OW84392  11.124   0.923  12.645  0.1024  0.0741 -0.4461
24693SOL    HW184393  11.143   0.992  12.709  0.2403  0.8612 -1.3163
24693SOL    HW284394  11.205   0.915  12.594 -0.1708 -0.1996 -0.8433
24694SOL     OW84395   5.025   3.264   2.910 -0.2247 -0.1974  0.0584
24694SOL    HW184396   5.009   3.278   3.003  0.7676  0.1349  0.1880
24694SOL    HW284397   5.040   3.352   2.875  1.1111 -0.4668 -0.0794
24695SOL     OW84398   4.957   8.295   2.613  0.4486 -0.1269 -0.0755
24695SOL    HW184399   4.950   8.336   2.527  3.2678  1.1409  0.1936
24695SOL    HW284400   4.988   8.365   2.670 -2.5579 -0.5831  2.3596
24696SOL     OW84401   4.277  11.719  11.551 -0.4931 -0.4787  0.2297
24696SOL    HW184402   4.203  11.734  11.492  0.8822  0.0312 -1.4217
24696SOL    HW284403   4.246  11.751  11.636 -2.6211 -1.4854 -0.0885
24697SOL     OW84404   0.505   0.948  11.155  0.5334 -0.2404  0.0210
24697SOL    HW184405   0.453   0.942  11.236 -1.2033  1.2519 -0.8927
24697SOL    HW284406   0.563   0.872  11.158  0.5267 -0.2533  2.6482
24698SOL     OW84407   3.838   1.713   1.471  0.3298 -0.5394  0.4333
24698SOL    HW184408   3.861   1.639   1.527  1.1212 -0.6238  0.0263
24698SOL    HW284409   3.918   1.730   1.421  0.2624  0.8152  0.7658
24699SOL     OW84410   5.343   0.792   2.962 -0.3110  0.0162  0.6590
24699SOL    HW184411   5.408   0.781   3.031  0.1298 -1.1686  0.0991
24699SOL    HW284412   5.318   0.702   2.939  1.1251  0.2130 -2.1339
24700SOL     OW84413   3.468   0.783   1.336  0.5730 -0.1772 -0.2080
24700SOL    HW184414   3.374   0.775   1.318  0.6128 -0.5830 -0.2436
24700SOL    HW284415   3.476   0.770   1.430  0.4325  1.3509  0.0419
24701SOL     OW84416   2.539  11.731   4.968 -0.4628 -0.3168 -0.1740
24701SOL    HW184417   2.591  11.668   4.919  2.0080  1.3906  0.0382
24701SOL    HW284418   2.477  11.767   4.904 -0.0542 -0.9995 -0.9690
24702SOL     OW84419  10.021   3.378   0.889  0.8538 -0.0118 -0.1550
24702SOL    HW184420   9.938   3.420   0.867  1.9520  1.6112 -1.4683
24702SOL    HW284421  10.022   3.298   0.838  1.6991  1.8454 -3.2883
24703SOL     OW84422   4.223   0.787   2.483 -0.3732  0.0803  0.1363
24703SOL    HW184423   4.301   0.834   2.511 -0.1796  1.5063 -2.4133
24703SOL    HW284424   4.150   0.845   2.506 -0.5519 -0.4375  0.9202
24704SOL     OW84425   7.847   7.133   1.946  0.4687  0.0456 -0.4024
24704SOL    HW184426   7.796   7.165   2.020  3.3134  1.0783  1.2763
24704SOL    HW284427   7.809   7.176   1.870 -0.5313  1.5398  0.8879
24705SOL     OW84428   6.068  10.202   6.600  0.1019 -0.4449 -0.5003
24705SOL    HW184429   6.129  10.239   6.664 -0.4232 -0.8815  0.2729
24705SOL    HW284430   6.113  10.210   6.516  0.9094 -0.0804 -0.0437
24706SOL     OW84431  12.736   8.698  12.765 -0.6902 -1.0006 -0.6655
24706SOL    HW184432  12.777   8.754  12.832 -0.6783 -2.3908  0.5466
24706SOL    HW284433  12.672   8.754  12.723 -0.3799  0.0482  0.2183
24707SOL     OW84434   4.890   1.165  11.135 -0.0877  0.1911  0.1678
24707SOL    HW184435   4.941   1.210  11.201  1.8134  0.2627 -1.2771
24707SOL    HW284436   4.912   1.208  11.052 -1.1904 -0.8747 -0.7368
24708SOL     OW84437   4.671   8.644   3.891 -0.8100 -0.2495  0.1806
24708SOL    HW184438   4.706   8.728   3.862 -1.5950  0.4828  1.3048
24708SOL    HW284439   4.676   8.646   3.986 -2.4539 -0.7406  0.3166
24709SOL     OW84440  12.128   4.654   2.522 -0.4668  0.5257 -0.5231
24709SOL    HW184441  12.209   4.619   2.558 -0.8421  0.5184  0.3423
24709SOL    HW284442  12.148   4.670   2.430 -0.3942 -2.3213 -1.0999
24710SOL     OW84443  10.856  12.282   3.182  0.0246  0.0354 -0.2347
24710SOL    HW184444  10.806  12.355   3.144  0.3879  0.3353 -0.1420
24710SOL    HW284445  10.947  12.313   3.182  0.2334 -0.5649 -0.5306
24711SOL     OW84446  10.393   8.244   5.174 -0.9435 -0.2859 -0.0313
24711SOL    HW184447  10.309   8.289   5.173 -1.4669 -1.2352 -0.4078
24711SOL    HW284448  10.459   8.314   5.178 -1.7560  0.4538  0.7930
24712SOL     OW84449  10.047  11.077   7.987 -0.2223  0.4566  0.4095
24712SOL    HW184450   9.995  11.077   7.906 -1.2533  0.5052  1.0509
24712SOL    HW284451   9.982  11.066   8.057  0.6532  0.4178  1.2330
24713SOL     OW84452   2.399   6.892   6.104  0.2883 -0.1723  0.0678
24713SOL    HW184453   2.491   6.897   6.079 -0.1002 -0.1489 -1.4622
24713SOL    HW284454   2.390   6.804   6.141  1.3524  0.5657  2.2287
24714SOL     OW84455   6.749  12.027   7.961  0.2018  0.2363  0.5681
24714SOL    HW184456   6.796  12.031   7.878 -0.3614  1.6007  0.2858
24714SOL    HW284457   6.793  11.959   8.011  2.8343  1.7691  0.5317
24715SOL     OW84458   3.156   6.241   5.649  0.6420 -0.5666  0.5736
24715SOL    HW184459   3.115   6.277   5.570 -0.0376 -0.9607  0.7392
24715SOL    HW284460   3.233   6.194   5.616 -0.9126 -2.7450 -0.1647
24716SOL     OW84461   3.409  11.647  12.756  0.8004  0.2121 -0.4228
24716SOL    HW184462   3.436  11.645  12.664 -1.1254  0.2767 -1.0240
24716SOL    HW284463   3.427  11.737  12.784 -0.1747  0.6798 -1.2518
24717SOL     OW84464   4.786   7.731   0.206 -0.7501  0.0468 -0.4444
24717SOL    HW184465   4.774   7.726   0.301  0.3284 -2.0458 -0.3628
24717SOL    HW284466   4.748   7.650   0.172  1.0025 -0.3897 -1.5157
24718SOL     OW84467   0.895   1.808  12.150 -0.4876  0.0264 -0.4806
24718SOL    HW184468   0.803   1.826  12.131 -0.1121  1.2441 -1.2859
24718SOL    HW284469   0.940   1.889  12.127  0.7177 -0.3392  0.4973
24719SOL     OW84470   5.503   5.348   6.310 -0.0750  0.1739 -0.0437
24719SOL    HW184471   5.471   5.346   6.220 -0.2772  0.5817  0.0200
24719SOL    HW284472   5.425   5.354   6.364  0.0829  0.7392  0.1280
24720SOL     OW84473   2.323  11.858   0.418  0.1604  0.2500 -0.0122
24720SOL    HW184474   2.315  11.766   0.394  0.8430  0.1165  0.2510
24720SOL    HW284475   2.279  11.866   0.502 -1.8167  0.6194 -1.0126
24721SOL     OW84476   1.246   2.147   0.453  0.5087 -0.0018  0.1868
24721SOL    HW184477   1.203   2.224   0.491 -1.8557 -1.0833 -0.1212
24721SOL    HW284478   1.194   2.073   0.483  1.0659 -1.2395 -1.7005
24722SOL     OW84479   6.185   6.387   5.461  0.2502 -0.2015 -0.0224
24722SOL    HW184480   6.171   6.355   5.372  1.3419  0.1321 -0.3286
24722SOL    HW284481   6.266   6.344   5.489  1.9957  2.4696 -0.5849
24723SOL     OW84482   9.436   8.153  11.479 -0.7408 -0.0060  0.4030
24723SOL    HW184483   9.422   8.246  11.461  1.7405  0.1674 -1.0692
24723SOL    HW284484   9.348   8.115  11.480 -1.6775  1.5404 -3.6942
24724SOL     OW84485   1.339   1.509   7.113 -0.2473  0.6429 -0.4923
24724SOL    HW184486   1.265   1.566   7.091 -1.5185 -0.0310  1.7163
24724SOL    HW284487   1.299   1.425   7.135  1.0581  0.4759  1.5308
24725SOL     OW84488   4.878   3.083   7.216  0.1812 -0.4301 -0.4920
24725SOL    HW184489   4.820   3.056   7.144 -1.3423  0.0403  0.5237
24725SOL    HW284490   4.834   3.051   7.295  0.5465  1.2467  0.4197
24726SOL     OW84491   6.718   1.357  10.584 -0.2800  0.0183  0.2414
24726SOL    HW184492   6.689   1.275  10.624  0.7632 -0.6871 -0.4073
24726SOL    HW284493   6.809   1.342  10.561 -0.6114  0.6594 -1.6853
24727SOL     OW84494   4.208   8.414   0.086 -0.4179  0.1599  0.3465
24727SOL    HW184495   4.291   8.461   0.095 -1.3943  1.9290  0.6096
24727SOL    HW284496   4.232   8.330   0.048  1.4474  0.7765  0.0548
24728SOL     OW84497   6.226   9.392   5.021  0.4767 -0.1887  0.2799
24728SOL    HW184498   6.171   9.418   5.095 -0.3957 -0.2818 -0.3127
24728SOL    HW284499   6.251   9.301   5.041  0.1978 -0.2340  0.4347
24729SOL     OW84500  10.148   4.701   3.636 -0.2122  0.2914  0.0272
24729SOL    HW184501  10.182   4.611   3.637  0.6643  0.6035 -0.8622
24729SOL    HW284502  10.178   4.738   3.719  1.7311  0.5739 -0.7442
24730SOL     OW84503   5.792   6.523   2.773 -0.1010  0.5180  0.7283
24730SOL    HW184504   5.804   6.445   2.719  0.2995 -0.2172  1.8544
24730SOL    HW284505   5.697   6.539   2.771  0.0471  1.5856 -1.6265
24731SOL     OW84506  11.175   3.508   0.981 -0.1421  0.3384  0.3588
24731SOL    HW184507  11.090   3.539   1.013 -2.1784 -3.2126 -1.0623
24731SOL    HW284508  11.221   3.477   1.060 -0.5433  1.3538  1.0163
24732SOL     OW84509   5.907   5.933   5.740 -0.6961 -0.1296 -0.4513
24732SOL    HW184510   5.847   6.008   5.732 -0.9195  0.0647  2.1119
24732SOL    HW284511   5.850   5.858   5.751 -0.5109 -0.1434  0.5472
24733SOL     OW84512   3.701   6.374  10.907  0.1140  0.7512  0.0527
24733SOL    HW184513   3.722   6.449  10.852  1.7086  4.0253  4.5429
24733SOL    HW284514   3.786   6.343  10.939 -0.6378 -2.0393 -0.3474
24734SOL     OW84515   6.384   6.721   9.613 -0.9818  0.6359 -0.4781
24734SOL    HW184516   6.320   6.711   9.683 -0.2421  0.5808  0.2049
24734SOL    HW284517   6.445   6.649   9.625 -2.3691 -1.1302 -2.9147
24735SOL     OW84518   8.397   0.159   0.759 -0.4366  0.3775  0.0662
24735SOL    HW184519   8.303   0.176   0.765 -0.4684  0.7912 -1.2096
24735SOL    HW284520   8.422   0.195   0.674  0.1671 -3.0378 -1.3363
24736SOL     OW84521   1.516   8.652   1.040 -0.2842 -0.2718  0.3615
24736SOL    HW184522   1.611   8.656   1.045 -0.2033 -1.6561  0.4545
24736SOL    HW284523   1.492   8.718   0.975  0.8872 -1.0386 -0.9019
24737SOL     OW84524   4.825   3.831  12.776 -0.5316 -0.0157 -0.0786
24737SOL    HW184525   4.793   3.761  12.719 -2.0848  0.7722 -0.2232
24737SOL    HW284526   4.746   3.864  12.820  0.2468  1.2489  0.4158
24738SOL     OW84527   4.217   1.386  11.081 -0.1763 -0.1301 -0.1705
24738SOL    HW184528   4.126   1.410  11.095 -0.1995 -0.0980 -0.3859
24738SOL    HW284529   4.232   1.398  10.987  0.1077  0.0754 -0.1045
24739SOL     OW84530  12.853   5.730  10.713 -0.3661 -0.2168  0.3928
24739SOL    HW184531  12.907   5.791  10.764  0.2577 -0.2559 -0.1980
24739SOL    HW284532  12.821   5.667  10.778 -0.6407  0.4689  0.9342
24740SOL     OW84533   9.778   9.415   3.542 -0.0405  0.4302  0.0806
24740SOL    HW184534   9.716   9.381   3.477 -0.4076  0.0833  0.6067
24740SOL    HW284535   9.728   9.480   3.591 -0.3568 -0.6540  1.2520
24741SOL     OW84536   6.848   6.989   2.655  0.0651  0.0930 -0.3141
24741SOL    HW184537   6.783   6.945   2.599  0.4433 -0.4541 -0.3272
24741SOL    HW284538   6.807   6.991   2.742 -0.0104 -0.1577 -0.3435
24742SOL     OW84539   0.788   1.248   5.905 -0.1207  0.0186 -0.2121
24742SOL    HW184540   0.791   1.159   5.868 -1.4363 -0.2389  0.2387
24742SOL    HW284541   0.727   1.241   5.978  0.2393  1.1717  0.2112
24743SOL     OW84542   2.163  11.669   5.948 -0.2497  0.2748  0.4475
24743SOL    HW184543   2.223  11.731   5.991 -1.2925  0.9075  1.0250
24743SOL    HW284544   2.221  11.602   5.911  0.7591  0.1995  2.0477
24744SOL     OW84545  10.551  12.462  12.865 -0.1019 -0.6047  0.0418
24744SOL    HW184546  10.629  12.454  12.809 -0.6024  1.4487 -1.0348
24744SOL    HW284547  10.526  12.554  12.859 -1.0019 -0.6055  2.6224
24745SOL     OW84548   8.356  11.313   0.918  0.8304 -0.3300  0.0953
24745SOL    HW184549   8.289  11.284   0.856  1.8710  0.7370 -1.6031
24745SOL    HW284550   8.336  11.405   0.933 -0.9170 -1.1142  3.4364
24746SOL     OW84551   6.293  12.859   0.899 -0.2125  0.1252  0.6178
24746SOL    HW184552   6.222  12.833   0.840 -0.3150  0.4950  0.5762
24746SOL    HW284553   6.355  12.787   0.894  0.5859  0.8848 -1.2492
24747SOL     OW84554   1.577   4.078   9.615 -0.0875  0.2769  0.0968
24747SOL    HW184555   1.553   4.001   9.562  0.4438  0.5234 -0.5117
24747SOL    HW284556   1.493   4.111   9.648 -0.1756 -2.0689  2.5468
24748SOL     OW84557  10.556   0.739   2.733 -0.0579 -0.1132  0.1610
24748SOL    HW184558  10.467   0.755   2.763  0.0034  1.4587 -0.3610
24748SOL    HW284559  10.577   0.651   2.762 -0.6316  0.6162  3.1191
24749SOL     OW84560   0.311   7.260   4.087 -0.2553  0.4542 -0.6524
24749SOL    HW184561   0.346   7.265   4.176 -0.5412 -1.5092 -0.3990
24749SOL    HW284562   0.234   7.317   4.088  0.1954  1.0773  0.1077
24750SOL     OW84563   2.870   8.154  11.223 -0.5520  0.7901  0.2844
24750SOL    HW184564   2.869   8.161  11.127  1.0436  0.2374  0.1927
24750SOL    HW284565   2.881   8.061  11.240  0.5014  1.0154  0.9532
24751SOL     OW84566   3.159  10.132  10.006  0.1029  0.3753 -0.7532
24751SOL    HW184567   3.190  10.046   9.978 -0.5701  0.4948 -1.8926
24751SOL    HW284568   3.079  10.114  10.056  0.8953  0.2243  0.5100
24752SOL     OW84569   2.354   4.644  12.675  0.0684 -0.4509  0.2004
24752SOL    HW184570   2.300   4.664  12.751  1.1300 -0.5911  1.0267
24752SOL    HW284571   2.428   4.705  12.681  0.3287 -0.6812 -0.5388
24753SOL     OW84572   9.209  12.485   4.469  0.1274  0.1258  0.0619
24753SOL    HW184573   9.201  12.448   4.381  1.0630 -0.1883  0.1059
24753SOL    HW284574   9.280  12.548   4.462 -0.4081  0.7795  0.3783
24754SOL     OW84575  10.516  10.251  11.529  0.1374 -0.7541 -0.3745
24754SOL    HW184576  10.495  10.163  11.500  0.9529 -1.0132 -0.1987
24754SOL    HW284577  10.600  10.271  11.488 -0.0000 -0.0834 -0.3525
24755SOL     OW84578   8.479  12.448   6.075  0.4275  0.7311 -0.0195
24755SOL    HW184579   8.416  12.439   6.004  0.3512 -0.0655  0.1359
24755SOL    HW284580   8.564  12.434   6.034  0.2660 -1.6484  0.3386
24756SOL     OW84581  12.608   1.853  11.312  0.0856  0.3038  0.1014
24756SOL    HW184582  12.577   1.781  11.367 -1.6577  0.3273 -0.7991
24756SOL    HW284583  12.554   1.849  11.233  0.2604  2.3120 -0.1854
24757SOL     OW84584   9.944   3.448  11.774  0.4737 -0.1501 -0.1699
24757SOL    HW184585   9.916   3.539  11.763 -1.2256 -0.7418 -1.1684
24757SOL    HW284586   9.877   3.408  11.828  2.0562 -0.4694  1.6636
24758SOL     OW84587   1.937   9.043  12.881  0.3856 -0.6377  0.4747
24758SOL    HW184588   1.978   9.019  12.965  0.7288 -1.9911 -0.0463
24758SOL    HW284589   1.999   9.011  12.815 -1.2723 -2.4092 -0.3339
24759SOL     OW84590   3.097   8.630   0.767 -0.6201 -0.2536 -0.3777
24759SOL    HW184591   3.164   8.658   0.829 -1.0664  1.8404 -0.7591
24759SOL    HW284592   3.018   8.620   0.820 -0.0434 -2.9117  0.1060
24760SOL     OW84593  12.199  12.947   2.647  0.2200 -0.3965  0.0208
24760SOL    HW184594  12.224  13.038   2.667  0.9258 -0.5786 -0.0094
24760SOL    HW284595  12.200  12.943   2.551  1.6805 -0.8149  0.0178
24761SOL     OW84596   2.149   0.993   3.398  0.8032 -0.1298 -0.4883
24761SOL    HW184597   2.184   0.912   3.360 -1.6044 -1.2783 -0.3982
24761SOL    HW284598   2.056   0.976   3.409  0.5798  1.9469  1.4380
24762SOL     OW84599   0.947  11.509   5.307  0.4674  0.2043  0.2117
24762SOL    HW184600   0.944  11.585   5.365 -0.2638 -0.8070  1.5487
24762SOL    HW284601   0.909  11.540   5.225  1.2138  1.5746  0.3597
24763SOL     OW84602   6.656  10.055   2.778  0.5492 -0.4894 -0.1081
24763SOL    HW184603   6.625  10.000   2.706  1.1175 -1.0679  0.0823
24763SOL    HW284604   6.641  10.003   2.857  1.9377 -0.7707 -0.0046
24764SOL     OW84605  10.427   2.037   4.796 -0.4004  0.1117 -0.1415
24764SOL    HW184606  10.418   2.128   4.823 -1.7151 -0.5336  1.8104
24764SOL    HW284607  10.447   1.990   4.876 -0.9693 -1.4729 -0.8942
24765SOL     OW84608   0.617   1.036   6.441  0.0828  0.8441 -0.2876
24765SOL    HW184609   0.531   1.000   6.421  1.0234 -2.4219  0.9096
24765SOL    HW284610   0.676   0.993   6.379  1.2531  0.4386  1.0423
24766SOL     OW84611   5.266   1.997   5.790  0.3899 -0.1005  0.4569
24766SOL    HW184612   5.258   2.027   5.699  2.7996 -0.3657  0.0901
24766SOL    HW284613   5.314   2.068   5.834  0.3169 -0.5152  1.2114
24767SOL     OW84614   5.307  11.051  10.696  0.1866  0.1542 -0.1738
24767SOL    HW184615   5.291  11.075  10.605 -1.0303  0.7162  0.1742
24767SOL    HW284616   5.223  11.062  10.739 -0.0931 -3.2213  0.3661
24768SOL     OW84617   3.088  11.232   4.149  0.5296 -0.4719 -0.3439
24768SOL    HW184618   3.022  11.236   4.079 -0.0195 -2.6116 -0.0009
24768SOL    HW284619   3.141  11.155   4.128  1.2414 -0.3356  0.8546
24769SOL     OW84620  12.523   8.772   7.795 -0.3118 -0.3246 -0.0775
24769SOL    HW184621  12.532   8.865   7.774  0.4140 -0.2795  0.4004
24769SOL    HW284622  12.491   8.771   7.885  1.0304 -0.5254  0.4271
24770SOL     OW84623   1.693   2.203   3.461  0.3645  0.2744  0.1049
24770SOL    HW184624   1.752   2.169   3.528 -0.7368  0.1247  1.0287
24770SOL    HW284625   1.748   2.260   3.407  1.8747 -1.6023 -0.4525
24771SOL     OW84626  12.870   2.010   7.254  0.6046  0.1520  0.4281
24771SOL    HW184627  12.841   1.977   7.169  1.0594  0.4493  0.1542
24771SOL    HW284628  12.807   1.974   7.317  0.0335  0.2569 -0.0796
24772SOL     OW84629   9.949  10.397  12.258 -0.2577 -0.3104  0.0064
24772SOL    HW184630   9.912  10.482  12.284 -2.2601 -0.9193 -0.6497
24772SOL    HW284631  10.015  10.378  12.325 -1.0132  0.9533  1.1595
24773SOL     OW84632   9.221   7.487   7.020 -0.1420  0.4617 -0.2466
24773SOL    HW184633   9.167   7.477   7.098  0.4552 -0.8926  0.0439
24773SOL    HW284634   9.221   7.580   7.002 -0.2702  0.8211  1.4028
24774SOL     OW84635   7.529   3.932   0.716 -0.0278  0.0980  0.7485
24774SOL    HW184636   7.500   3.957   0.627  0.2514 -0.1687  0.5830
24774SOL    HW284637   7.586   4.004   0.743  0.2566 -0.0453  0.5291
24775SOL     OW84638  10.936   9.344  11.461  0.2925  0.1553  0.0045
24775SOL    HW184639  10.979   9.344  11.375 -0.5823  1.0337 -0.4426
24775SOL    HW284640  10.985   9.409  11.512  1.1379 -0.7301  0.3614
24776SOL     OW84641   3.218   1.363   7.180 -0.1366 -0.6070  0.5857
24776SOL    HW184642   3.281   1.423   7.220 -0.3388 -0.1957  0.2950
24776SOL    HW284643   3.266   1.281   7.171  0.8598  0.0914 -0.9527
24777SOL     OW84644   4.462  11.597   5.178 -0.3183  0.2461 -0.0014
24777SOL    HW184645   4.545  11.551   5.163  0.2887  0.6728  1.7572
24777SOL    HW284646   4.431  11.563   5.262 -2.1447 -0.1715 -0.7857
24778SOL     OW84647   6.948   9.584   7.232  0.3990 -0.0928 -0.7053
24778SOL    HW184648   6.990   9.634   7.162 -0.6725  1.5986 -0.1889
24778SOL    HW284649   6.999   9.604   7.310  0.7196 -0.8296 -0.7179
24779SOL     OW84650  10.936   0.562   5.775  0.0645  0.6572 -0.2931
24779SOL    HW184651  10.915   0.508   5.698  1.7592 -0.3955 -0.0910
24779SOL    HW284652  10.994   0.630   5.741 -1.0538  1.6387 -0.3151
24780SOL     OW84653   8.205   0.630   0.289 -0.1362 -0.5160 -0.1535
24780SOL    HW184654   8.272   0.596   0.229 -0.6654  2.0795 -2.4188
24780SOL    HW284655   8.123   0.618   0.241 -0.6964  0.7655  0.4634
24781SOL     OW84656   7.727   4.690   1.674  0.1221 -0.4168  0.2058
24781SOL    HW184657   7.758   4.734   1.595  1.1840  0.0872  0.8780
24781SOL    HW284658   7.804   4.643   1.707 -0.5023 -1.2355  0.5413
24782SOL     OW84659   7.425  11.621   0.885 -0.3588 -0.0067 -0.2851
24782SOL    HW184660   7.352  11.683   0.888 -0.1593  0.2148  0.0591
24782SOL    HW284661   7.438  11.605   0.792 -1.1296 -0.3856 -0.3389
24783SOL     OW84662  11.953  10.667   6.865 -0.5619  0.5607  0.1878
24783SOL    HW184663  11.879  10.673   6.804 -0.4157 -1.0621 -0.1774
24783SOL    HW284664  11.999  10.751   6.854  0.0792 -0.0610 -2.7429
24784SOL     OW84665   4.878  10.244  10.737  0.2167 -0.1703 -0.2040
24784SOL    HW184666   4.970  10.236  10.712  0.6892  1.4384  0.8106
24784SOL    HW284667   4.840  10.301  10.671 -0.1389 -1.0411 -0.7684
24785SOL     OW84668   7.990  10.056   6.839  0.6601 -0.0358 -0.2789
24785SOL    HW184669   8.067  10.112   6.847  1.0419 -0.3363 -1.5417
24785SOL    HW284670   7.921  10.115   6.806  1.1328 -0.3322 -1.8621
24786SOL     OW84671   2.605   5.502   6.338  0.1667  0.0459 -0.1412
24786SOL    HW184672   2.581   5.558   6.412  0.1380 -1.1280  0.7732
24786SOL    HW284673   2.697   5.482   6.351  0.4341  0.6337 -0.9987
24787SOL     OW84674   7.379   1.270  12.169  0.7293  0.3308  0.5815
24787SOL    HW184675   7.453   1.322  12.140  0.9491  0.6083  1.6174
24787SOL    HW284676   7.383   1.272  12.265 -1.2864  1.3675  0.7195
24788SOL     OW84677   7.756   8.447  11.920 -0.4007 -0.3067  0.2915
24788SOL    HW184678   7.683   8.389  11.900  0.0826 -1.0376  0.5946
24788SOL    HW284679   7.801   8.405  11.994 -0.6615  1.0123  1.2317
24789SOL     OW84680   4.916   8.129   8.156 -0.3085  0.2836  0.3066
24789SOL    HW184681   5.010   8.135   8.176 -0.6107 -1.3968  2.7090
24789SOL    HW284682   4.880   8.214   8.181  0.1543 -0.0916  2.4451
24790SOL     OW84683   6.404   0.120   7.469 -0.2259  0.2630  0.0393
24790SOL    HW184684   6.499   0.126   7.464 -0.3448  2.1567 -0.9766
24790SOL    HW284685   6.385   0.027   7.470  1.5056 -0.2191 -2.8987
24791SOL     OW84686  11.504   3.970   4.892  0.5711 -0.6457 -0.2022
24791SOL    HW184687  11.517   4.036   4.960 -1.5913 -0.7447  0.3616
24791SOL    HW284688  11.424   3.997   4.847  0.1325 -2.3876 -0.5346
24792SOL     OW84689  11.265   2.844   1.847  0.1634 -0.0518 -0.2713
24792SOL    HW184690  11.293   2.893   1.924 -0.6537 -0.9943  0.6546
24792SOL    HW284691  11.346   2.823   1.801  0.5020  3.2367 -1.4393
24793SOL     OW84692   7.986   9.299   2.655  0.3549  0.1334 -0.6198
24793SOL    HW184693   8.076   9.308   2.687  0.2401  0.0934 -0.2831
24793SOL    HW284694   7.946   9.385   2.670  0.1165 -0.0694 -0.0823
24794SOL     OW84695  10.704   0.946   8.670 -0.1290  0.4927  0.2224
24794SOL    HW184696  10.712   1.011   8.600 -0.5776 -0.2110 -0.5057
24794SOL    HW284697  10.727   0.994   8.750  2.3467  0.8295 -0.6017
24795SOL     OW84698  11.569   4.931   0.039 -0.3668 -0.1329  0.0980
24795SOL    HW184699  11.623   4.993  -0.010 -1.2975  0.4640 -0.1888
24795SOL    HW284700  11.625   4.904   0.113  0.4221  0.2468 -0.3451
24796SOL     OW84701   5.295   3.698   9.184  0.0248 -0.2879 -0.4058
24796SOL    HW184702   5.338   3.764   9.237 -0.3023  1.2387 -1.9303
24796SOL    HW284703   5.332   3.709   9.096 -0.3088 -1.8913 -0.7888
24797SOL     OW84704  11.880   2.799   3.923  0.1386 -0.2208 -0.1001
24797SOL    HW184705  11.813   2.832   3.983  0.2704 -0.8852  0.4138
24797SOL    HW284706  11.831   2.766   3.848 -0.1019 -0.5499  0.2000
24798SOL     OW84707  11.823  10.848   4.601  0.2732  0.2607  0.1296
24798SOL    HW184708  11.870  10.854   4.518  0.9739 -0.4718  0.4505
24798SOL    HW284709  11.871  10.781   4.650  0.4964  1.3943  1.5192
24799SOL     OW84710   3.686  11.757   4.714  0.0112  0.2474  0.2750
24799SOL    HW184711   3.780  11.740   4.711 -0.0099  0.2514 -1.0536
24799SOL    HW284712   3.654  11.731   4.628 -1.3463 -0.4993  0.9711
24800SOL     OW84713   8.643  12.221   9.494 -0.0969  0.1204  0.3924
24800SOL    HW184714   8.582  12.283   9.533 -2.2386 -1.5862 -0.1153
24800SOL    HW284715   8.654  12.152   9.559  0.7123  0.0038  0.1527
24801SOL     OW84716   9.813  11.146   1.156  0.1944 -0.1522  0.9240
24801SOL    HW184717   9.842  11.232   1.126 -1.6858  0.3838  0.4867
24801SOL    HW284718   9.747  11.165   1.223 -0.2887 -1.2411  0.7801
24802SOL     OW84719   4.199  11.192   1.771 -0.1136 -0.0835 -0.0604
24802SOL    HW184720   4.275  11.135   1.785 -0.5954 -0.4159  1.4665
24802SOL    HW284721   4.182  11.187   1.677 -0.2788 -2.6628  0.0436
24803SOL     OW84722   9.168   4.309   3.827  0.5817 -0.1883 -0.4211
24803SOL    HW184723   9.259   4.302   3.854  0.9281  0.5004 -1.3514
24803SOL    HW284724   9.149   4.224   3.785  0.3950 -0.8093  0.8903
24804SOL     OW84725  11.147   3.870   3.800 -0.3034  0.4776  0.0135
24804SOL    HW184726  11.136   3.890   3.893  0.2288  0.0364  0.1772
24804SOL    HW284727  11.219   3.806   3.798 -1.3674 -0.7413 -0.5541
24805SOL     OW84728  10.611  11.848   3.328 -0.1473 -0.3091 -0.1488
24805SOL    HW184729  10.547  11.846   3.399  1.2195 -0.1889  1.1349
24805SOL    HW284730  10.671  11.919   3.351  0.5917 -0.5593 -1.1868
24806SOL     OW84731   6.936   7.347   6.770 -0.5057 -0.6544 -0.2252
24806SOL    HW184732   6.915   7.395   6.690  1.3711  0.9620  0.1719
24806SOL    HW284733   7.012   7.294   6.746  0.0117 -0.2265  0.4271
24807SOL     OW84734   8.789   7.858   3.567 -0.0865 -0.5082  0.0489
24807SOL    HW184735   8.790   7.827   3.658  0.2292 -2.3802 -0.5582
24807SOL    HW284736   8.852   7.930   3.566 -1.8604  1.2373  1.8187
24808SOL     OW84737   7.856   7.640   5.629 -0.0361 -0.1016 -0.3811
24808SOL    HW184738   7.877   7.584   5.554 -0.8496 -0.8155 -0.0883
24808SOL    HW284739   7.806   7.583   5.688 -2.2060  1.3200 -0.7523
24809SOL     OW84740  12.150   6.047   8.466  0.0704 -0.2815 -0.3377
24809SOL    HW184741  12.214   6.001   8.412  0.8145 -0.7318  0.8862
24809SOL    HW284742  12.174   6.139   8.461  1.0012 -0.4796  0.3375
24810SOL     OW84743   4.444   9.126   1.981  1.0297 -0.3872  0.5721
24810SOL    HW184744   4.496   9.058   1.939 -0.5574 -0.4614 -1.4576
24810SOL    HW284745   4.364   9.081   2.009 -0.8826  0.8035 -2.4466
24811SOL     OW84746   4.012  11.620  10.941 -0.2501 -0.2196  0.2185
24811SOL    HW184747   4.044  11.578  11.020 -1.8653 -0.7285  0.6463
24811SOL    HW284748   3.991  11.548  10.882  1.7345  0.1675 -1.0574
24812SOL     OW84749   9.841   0.690   4.193  0.4340 -1.0008 -0.3885
24812SOL    HW184750   9.878   0.775   4.217 -0.5530 -0.7949  0.4612
24812SOL    HW284751   9.820   0.698   4.100  0.7201 -0.4533 -0.4093
24813SOL     OW84752   7.425   3.964   6.881  0.0938 -0.3379 -0.3532
24813SOL    HW184753   7.471   3.890   6.843  1.1473 -0.1362  0.4850
24813SOL    HW284754   7.398   3.935   6.968  0.0792  0.0913 -0.2085
24814SOL     OW84755   3.808   5.255   7.410  0.1600  0.4111  0.0535
24814SOL    HW184756   3.746   5.258   7.483  0.7730 -1.1223  0.7003
24814SOL    HW284757   3.753   5.241   7.333 -0.4144  0.8385  0.3721
24815SOL     OW84758   5.829  12.404   9.269  0.0808  0.3070  0.0185
24815SOL    HW184759   5.738  12.431   9.279  0.4321  1.6139 -0.0333
24815SOL    HW284760   5.879  12.473   9.313  1.1221  0.4684 -1.3385
24816SOL     OW84761   8.420   9.982   3.993  0.7047  0.4615 -0.0183
24816SOL    HW184762   8.464  10.015   4.071  1.9359  0.3807 -0.6658
24816SOL    HW284763   8.333   9.955   4.024  1.7699 -1.1883  1.6549
24817SOL     OW84764   5.508   3.019   3.250 -0.0280  0.7178  0.4904
24817SOL    HW184765   5.441   2.988   3.310 -0.3093 -1.7738 -0.9737
24817SOL    HW284766   5.590   2.983   3.285  0.3176  2.0443  1.1373
24818SOL     OW84767   9.177  11.959   5.639  0.4094  0.4024 -0.4393
24818SOL    HW184768   9.250  11.923   5.690  0.3985  1.0933  0.0713
24818SOL    HW284769   9.205  11.947   5.548 -0.0771 -1.8867 -0.3483
24819SOL     OW84770   0.344  12.163   3.274 -0.1180  0.4157  0.0812
24819SOL    HW184771   0.338  12.248   3.230 -1.6898  0.1784 -0.2192
24819SOL    HW284772   0.378  12.184   3.361 -1.2590  1.4895  0.3051
24820SOL     OW84773   7.933   5.341   2.636  0.4801 -0.0675 -0.1676
24820SOL    HW184774   7.866   5.348   2.568  1.1317 -0.5119 -0.8759
24820SOL    HW284775   7.948   5.431   2.665 -0.0523  0.0875 -0.3647
24821SOL     OW84776  10.081   3.943   4.015  0.4161  0.3311  0.1401
24821SOL    HW184777  10.076   3.982   4.102  0.6238  0.2575  0.1864
24821SOL    HW284778  10.175   3.929   4.001  0.3695  0.1828 -0.0241
24822SOL     OW84779   8.179  10.245   0.184  0.3251 -0.3887  0.0645
24822SOL    HW184780   8.167  10.338   0.203  1.2916  0.3126 -2.3190
24822SOL    HW284781   8.274  10.232   0.189  0.1251 -1.5514  1.4398
24823SOL     OW84782  11.342   4.304  12.734  0.0357  0.1277  0.4766
24823SOL    HW184783  11.295   4.387  12.720 -0.3204 -0.2567 -0.6867
24823SOL    HW284784  11.284   4.237  12.697 -0.1259 -0.7722  2.2541
24824SOL     OW84785   6.775   5.627  10.991  0.5446 -0.4778 -0.4302
24824SOL    HW184786   6.865   5.600  11.011  0.6587 -0.4559 -0.8995
24824SOL    HW284787   6.752   5.575  10.914  0.4707  0.1602 -0.8448
24825SOL     OW84788   9.810  12.101  11.794 -0.1858  0.2159  0.4760
24825SOL    HW184789   9.842  12.105  11.704  1.0855 -0.1575  0.8886
24825SOL    HW284790   9.786  12.010  11.807 -0.1087  0.2156  0.6091
24826SOL     OW84791   3.691  12.950   7.081 -0.3541 -0.4760 -0.6746
24826SOL    HW184792   3.638  13.026   7.106  1.0630  0.2388  0.3763
24826SOL    HW284793   3.715  12.967   6.990 -2.0049 -0.8978 -1.2212
24827SOL     OW84794   1.367   1.927   1.573 -0.6128 -0.1373 -0.6857
24827SOL    HW184795   1.342   1.947   1.663 -3.3272 -1.1645 -1.1218
24827SOL    HW284796   1.389   1.834   1.575 -0.5536 -0.1315 -1.0494
24828SOL     OW84797   3.333   5.127   4.839  0.0235 -0.0449 -0.1806
24828SOL    HW184798   3.247   5.091   4.864 -1.2082  0.6203 -3.0621
24828SOL    HW284799   3.390   5.051   4.834 -0.4155 -0.5431  1.4569
24829SOL     OW84800   1.497   2.672   3.185  0.3094  0.1691 -0.0511
24829SOL    HW184801   1.516   2.589   3.141 -0.1664  0.3330 -0.5783
24829SOL    HW284802   1.577   2.723   3.176  0.0184  0.4272 -1.2660
24830SOL     OW84803  12.538  11.223   9.535  0.0228  0.7595  0.2125
24830SOL    HW184804  12.449  11.186   9.537  0.5954 -0.7986 -1.2118
24830SOL    HW284805  12.573  11.205   9.623  0.5855 -3.0990 -0.6119
24831SOL     OW84806   0.492   4.787   7.720 -0.2569  0.4301 -0.3191
24831SOL    HW184807   0.447   4.704   7.737  2.0500 -0.8092  0.2153
24831SOL    HW284808   0.496   4.793   7.625  1.8660 -1.5088 -0.4286
24832SOL     OW84809  10.890  11.806   9.785 -0.1256 -0.5634  0.1724
24832SOL    HW184810  10.881  11.840   9.874 -1.1265 -1.7052  0.5386
24832SOL    HW284811  10.817  11.845   9.737  0.1384 -0.3146 -0.0280
24833SOL     OW84812  10.134   9.919   8.567 -0.3779  0.5328 -0.5721
24833SOL    HW184813  10.088   9.847   8.611 -0.3940  0.3204 -0.9311
24833SOL    HW284814  10.182   9.963   8.637  1.8835 -1.5027 -0.6971
24834SOL     OW84815   0.724  12.135   2.235  0.1513 -0.0760 -0.0182
24834SOL    HW184816   0.819  12.138   2.251  0.1083  0.3123  0.1780
24834SOL    HW284817   0.716  12.135   2.140  0.3930 -1.7527 -0.0667
24835SOL     OW84818   0.725   1.933   7.723 -0.2408  0.6487  0.0903
24835SOL    HW184819   0.783   1.862   7.749 -1.3759  0.2390  1.6266
24835SOL    HW284820   0.638   1.892   7.718 -0.7040  1.6523 -0.2632
24836SOL     OW84821   8.166   7.845   3.206 -0.2487 -0.1168  0.1286
24836SOL    HW184822   8.079   7.825   3.170  0.3596  1.2219 -2.3066
24836SOL    HW284823   8.180   7.937   3.187  1.3030 -0.0345  1.4478
24837SOL     OW84824  11.885   0.477   9.581  0.5878 -0.1951 -0.9022
24837SOL    HW184825  11.816   0.457   9.645 -0.0249  0.9639 -1.1589
24837SOL    HW284826  11.848   0.548   9.528  1.1965 -0.9630 -2.3856
24838SOL     OW84827   5.002   5.620  11.535 -0.2753  0.1876 -0.4085
24838SOL    HW184828   5.020   5.713  11.526  0.9123 -0.0826 -1.1367
24838SOL    HW284829   5.087   5.578  11.526 -0.7699 -0.9719  0.0249
24839SOL     OW84830   7.369   1.570  10.266  0.3379 -0.0456 -0.1534
24839SOL    HW184831   7.275   1.569  10.246 -0.8379 -1.4288  4.3436
24839SOL    HW284832   7.391   1.663  10.269 -1.1102  0.3375 -0.4780
24840SOL     OW84833   0.684   4.641  10.922 -0.6810  0.5107  0.0574
24840SOL    HW184834   0.748   4.676  10.984  0.9802  0.6621 -1.6514
24840SOL    HW284835   0.626   4.715  10.903 -0.0542  0.9962  0.0053
24841SOL     OW84836   3.949   7.841   0.685  0.2451  0.1967 -0.0653
24841SOL    HW184837   3.929   7.923   0.640 -0.2245  0.5876  0.8391
24841SOL    HW284838   4.045   7.837   0.687  0.2816 -0.0264 -1.4347
24842SOL     OW84839   0.585   6.735   7.567 -0.2497  0.0972  0.3446
24842SOL    HW184840   0.669   6.693   7.584 -0.0481  0.1899 -0.3854
24842SOL    HW284841   0.528   6.705   7.638  0.0342 -1.0040  0.1233
24843SOL     OW84842   4.471  10.374   0.306  0.1297  0.2969  1.1059
24843SOL    HW184843   4.462  10.305   0.241  2.3824 -0.8442  1.8973
24843SOL    HW284844   4.383  10.385   0.342 -0.2774 -2.3277  1.0911
24844SOL     OW84845   5.434  12.426  11.109 -0.0473 -0.0573  0.2543
24844SOL    HW184846   5.393  12.461  11.031  0.3978 -0.3913 -0.1360
24844SOL    HW284847   5.407  12.334  11.111  0.2301 -0.1382  0.3009
24845SOL     OW84848   1.992  12.118   2.039  0.0604 -0.0897 -0.2428
24845SOL    HW184849   2.006  12.212   2.033 -0.7485  0.0087 -0.5979
24845SOL    HW284850   1.903  12.104   2.007 -0.4087 -0.7928  1.2420
24846SOL     OW84851   7.020   8.431   2.756 -0.0963  0.3914 -0.3328
24846SOL    HW184852   7.044   8.412   2.846 -1.1160 -1.0589 -0.3277
24846SOL    HW284853   7.095   8.402   2.704 -1.0876 -2.6821 -0.2150
24847SOL     OW84854   1.851   7.062   7.847 -0.2981  0.1671 -0.1642
24847SOL    HW184855   1.879   6.971   7.845  1.7756  0.7599 -0.4214
24847SOL    HW284856   1.858   7.087   7.939  1.1793  0.6258 -0.3823
24848SOL     OW84857   8.972  10.209   8.352  0.2485 -0.2428 -0.4325
24848SOL    HW184858   9.061  10.210   8.389 -0.2993 -0.7309  0.9610
24848SOL    HW284859   8.981  10.253   8.268  1.6223  0.6643  0.1417
24849SOL     OW84860   3.161  10.098  10.724  0.2541  0.6805 -0.1161
24849SOL    HW184861   3.086  10.045  10.751  1.5154 -0.8638  0.5100
24849SOL    HW284862   3.127  10.154  10.654 -1.3857 -0.2210 -0.0872
24850SOL     OW84863   5.453   8.362  10.979 -0.1255  0.0129 -0.0897
24850SOL    HW184864   5.425   8.433  11.038  0.1696 -0.0768  0.1630
24850SOL    HW284865   5.374   8.339  10.930 -0.5193 -0.2781  0.6521
24851SOL     OW84866   5.878  11.264   6.828  0.2298 -0.5523  0.1318
24851SOL    HW184867   5.960  11.219   6.809  0.2891 -0.1106 -0.6911
24851SOL    HW284868   5.820  11.241   6.756 -0.2871 -0.6440  0.5680
24852SOL     OW84869   9.354   4.971   1.949 -0.0738 -0.3562 -0.2689
24852SOL    HW184870   9.324   4.883   1.928 -2.2959  0.5284 -1.0449
24852SOL    HW284871   9.415   4.993   1.878  0.5441 -1.2462 -0.0368
24853SOL     OW84872   1.535   0.588   2.955 -0.4836 -0.1061  0.0025
24853SOL    HW184873   1.458   0.585   2.898  0.3133 -2.7108 -1.0846
24853SOL    HW284874   1.608   0.563   2.898  0.9692  0.8783  1.3409
24854SOL     OW84875   1.632   5.638  10.998  0.2109  0.1094 -0.0061
24854SOL    HW184876   1.575   5.562  10.982 -0.4453  0.3246  1.2392
24854SOL    HW284877   1.716   5.599  11.022  0.1251 -0.2184 -0.2185
24855SOL     OW84878   8.048   2.243   1.321 -0.0384  0.0785  0.4390
24855SOL    HW184879   8.097   2.286   1.391 -1.0776  0.3126  1.0428
24855SOL    HW284880   8.079   2.285   1.240  3.0473 -1.9307  0.4352
24856SOL     OW84881   2.546   1.816   1.793 -0.2138 -0.1232  0.2994
24856SOL    HW184882   2.630   1.772   1.810  0.6079  1.0721 -0.4638
24856SOL    HW284883   2.530   1.801   1.700  0.5844  1.9171 -0.2329
24857SOL     OW84884   1.835   7.961   8.429  0.0822  0.0466  0.5868
24857SOL    HW184885   1.895   7.936   8.359  1.9373  1.2732  1.6825
24857SOL    HW284886   1.749   7.932   8.397  1.0992 -1.0252 -1.3850
24858SOL     OW84887   7.507   0.479   3.355 -0.5767 -0.3862 -0.3846
24858SOL    HW184888   7.546   0.493   3.442  1.4672 -0.0758 -1.3110
24858SOL    HW284889   7.418   0.513   3.364 -0.2606  0.0778  1.4550
24859SOL     OW84890   4.488   3.660  10.702 -0.1067 -0.3055 -0.5820
24859SOL    HW184891   4.422   3.659  10.772  1.5598  1.2439  1.1332
24859SOL    HW284892   4.495   3.752  10.678  1.4337 -0.4220 -0.6778
24860SOL     OW84893   7.453   1.242   4.452  0.2279  0.3176 -0.2463
24860SOL    HW184894   7.522   1.301   4.421  1.1936 -0.9787 -0.6582
24860SOL    HW284895   7.471   1.159   4.408  0.0878 -0.8567  1.7870
24861SOL     OW84896  10.052   3.463   4.890 -0.2683  0.2103 -0.3806
24861SOL    HW184897  10.067   3.389   4.949  0.2656  1.5472  1.2476
24861SOL    HW284898   9.961   3.454   4.863 -1.3907  0.8723  2.7021
24862SOL     OW84899   7.495  12.738   7.715  0.0300  0.1260 -0.0180
24862SOL    HW184900   7.540  12.679   7.655 -1.4819 -1.5541  0.3888
24862SOL    HW284901   7.543  12.730   7.798  0.4202  0.2442 -0.2310
24863SOL     OW84902  11.779  12.567   4.432 -0.1282 -0.0404 -0.3220
24863SOL    HW184903  11.726  12.611   4.498  1.5150  0.3313  0.8228
24863SOL    HW284904  11.728  12.490   4.406 -0.0215 -1.3020  2.8253
24864SOL     OW84905   5.564   3.613  11.097  0.1000  0.9304 -0.8408
24864SOL    HW184906   5.477   3.605  11.135  0.6547 -0.3527  0.2653
24864SOL    HW284907   5.582   3.707  11.096  0.2752  1.0844  2.7793
24865SOL     OW84908  10.323   8.984   2.208 -0.7865  0.3147 -0.0811
24865SOL    HW184909  10.394   8.987   2.272  0.5545  2.6959 -1.5207
24865SOL    HW284910  10.245   9.009   2.258 -0.2028 -0.0443  1.0484
24866SOL     OW84911  10.812   5.676   3.179  0.5698  0.3152 -0.3595
24866SOL    HW184912  10.735   5.627   3.207  1.4808 -0.9514  0.0115
24866SOL    HW284913  10.886   5.624   3.210  1.5798  1.1956 -1.2262
24867SOL     OW84914   1.391   0.718  10.548 -0.7371 -0.5237  0.0020
24867SOL    HW184915   1.402   0.813  10.539 -0.4156 -0.4800  0.7750
24867SOL    HW284916   1.416   0.700  10.639  1.5460 -1.6700 -0.7937
24868SOL     OW84917   4.839  12.095   4.452  0.5983  0.5793 -0.1470
24868SOL    HW184918   4.861  12.011   4.491 -2.4053 -0.7155 -0.9453
24868SOL    HW284919   4.801  12.146   4.524 -0.1244  0.1737 -0.2311
24869SOL     OW84920  11.225   9.082   5.954 -0.9384  0.1722 -0.0222
24869SOL    HW184921  11.251   8.998   5.917 -1.2768  0.3106 -0.5936
24869SOL    HW284922  11.306   9.120   5.988 -1.1672 -1.5248  2.6756
24870SOL     OW84923   2.310   9.203   1.361  0.3989  0.0455  0.0750
24870SOL    HW184924   2.339   9.274   1.303  1.0362 -1.0642 -1.0097
24870SOL    HW284925   2.227   9.234   1.397 -0.4971  0.4317 -2.1241
24871SOL     OW84926   8.477   9.771   4.324  0.4441  0.2704  0.2248
24871SOL    HW184927   8.400   9.720   4.300  1.6342 -1.2306 -0.6514
24871SOL    HW284928   8.551   9.711   4.309  1.7368  1.3423  1.8515
24872SOL     OW84929  12.575   8.508   6.163 -0.5445  0.3206 -0.9893
24872SOL    HW184930  12.576   8.413   6.155 -0.6584  0.2520 -0.3001
24872SOL    HW284931  12.502   8.536   6.108 -1.3247 -0.1096 -0.2072
24873SOL     OW84932   2.779   0.188   9.843 -0.2780  0.0690 -0.0918
24873SOL    HW184933   2.723   0.241   9.786 -0.2065  0.3587  0.1018
24873SOL    HW284934   2.867   0.223   9.829 -0.4152  0.9521  1.0776
24874SOL     OW84935   2.514   3.457   8.232  0.4004 -0.1831 -0.6336
24874SOL    HW184936   2.443   3.521   8.221  1.2867  0.8931 -0.3918
24874SOL    HW284937   2.585   3.508   8.272  1.7755 -0.8919 -2.0617
24875SOL     OW84938  10.097   0.467  12.581 -0.3965 -0.1896  0.1977
24875SOL    HW184939  10.067   0.408  12.513 -0.5266 -0.5510  0.5657
24875SOL    HW284940  10.038   0.451  12.655 -0.5134  0.4842  0.2621
24876SOL     OW84941   1.535   0.786   7.538  0.3339  0.3322  0.0320
24876SOL    HW184942   1.554   0.869   7.495  0.7253  0.0296 -0.3840
24876SOL    HW284943   1.587   0.721   7.491  1.4487  0.1166  1.4799
24877SOL     OW84944   2.400   1.428   6.822  0.1272  0.1852 -0.3128
24877SOL    HW184945   2.409   1.349   6.769 -0.1196  0.4531 -0.7650
24877SOL    HW284946   2.357   1.491   6.764  1.4349  1.0622 -0.3778
24878SOL     OW84947   4.832   4.213   7.355  0.0906  0.1688  0.4246
24878SOL    HW184948   4.744   4.175   7.357  0.5426 -0.9158  0.5191
24878SOL    HW284949   4.860   4.205   7.264 -0.4830  1.9458  0.0510
24879SOL     OW84950  11.089  11.111   4.677 -0.2364  0.3240 -0.1529
24879SOL    HW184951  11.015  11.084   4.730 -1.6514  1.2889 -1.5355
24879SOL    HW284952  11.135  11.177   4.730 -0.2256 -0.4373  0.7994
24880SOL     OW84953  12.490   2.987   7.580 -0.3321  0.4872  0.2646
24880SOL    HW184954  12.403   2.963   7.549  0.2027  1.9106 -2.6929
24880SOL    HW284955  12.549   2.928   7.534  0.3570  0.0297  1.6816
24881SOL     OW84956  11.267   3.516   9.972  0.1057 -0.3389  0.0659
24881SOL    HW184957  11.311   3.599   9.993 -0.7645  0.3642 -0.7861
24881SOL    HW284958  11.271   3.511   9.876  0.6017 -1.5519  0.1391
24882SOL     OW84959   2.227   6.232   8.775  0.0249 -0.1431  0.3362
24882SOL    HW184960   2.199   6.307   8.828  0.6536  0.0925  0.3467
24882SOL    HW284961   2.244   6.162   8.839 -3.3432 -1.2894  0.1703
24883SOL     OW84962   6.391   1.451   9.259  0.1854 -0.0235 -0.3416
24883SOL    HW184963   6.416   1.486   9.174 -0.3996 -1.1430 -1.0116
24883SOL    HW284964   6.411   1.357   9.254  2.2112  0.2147  1.5721
24884SOL     OW84965   0.129   7.340   0.094  0.7437  0.5476  0.8314
24884SOL    HW184966   0.197   7.336   0.026 -0.0379  1.0510 -0.0032
24884SOL    HW284967   0.177   7.333   0.176  1.6719 -0.6278  0.2210
24885SOL     OW84968   7.093   1.816   9.429  0.2562  0.2664 -0.0145
24885SOL    HW184969   7.065   1.750   9.366  1.7385 -0.2991 -0.1379
24885SOL    HW284970   7.031   1.888   9.419 -0.1525 -0.2544 -1.3607
24886SOL     OW84971   7.618  10.884  10.006 -0.1168  0.0899  0.0511
24886SOL    HW184972   7.627  10.978  10.024  0.9537 -0.0304  0.2375
24886SOL    HW284973   7.597  10.880   9.912 -3.4096  0.6164  0.6720
24887SOL     OW84974  12.543   6.259   9.232  0.2815 -0.0125 -0.4851
24887SOL    HW184975  12.556   6.351   9.211 -0.1697 -0.0901 -1.1290
24887SOL    HW284976  12.449   6.251   9.248  0.4440 -0.1850  0.4861
24888SOL     OW84977   9.702   2.099  10.686  0.2417 -0.0410 -0.0119
24888SOL    HW184978   9.704   2.033  10.617 -2.2094  0.0242 -0.2565
24888SOL    HW284979   9.739   2.177  10.646 -0.8928 -0.0828 -1.2184
24889SOL     OW84980  10.582   1.728   6.646 -0.1015  0.5002  0.2487
24889SOL    HW184981  10.564   1.755   6.736 -1.2852 -1.3749  0.6284
24889SOL    HW284982  10.677   1.728   6.638 -0.0066  1.2993  1.2904
24890SOL     OW84983   6.215   6.215   7.475 -0.2440  0.0532  0.3924
24890SOL    HW184984   6.284   6.177   7.529 -0.6324 -0.2089  0.7070
24890SOL    HW284985   6.148   6.244   7.538 -1.8933 -2.5360  0.0005
24891SOL     OW84986  12.450   2.104   4.316 -1.0100 -0.4159 -0.0384
24891SOL    HW184987  12.474   2.187   4.276  0.4699 -1.6046 -1.8057
24891SOL    HW284988  12.520   2.086   4.379 -0.4350 -1.0504 -0.8354
24892SOL     OW84989   1.261   8.526   3.334 -0.4485  0.2042  0.2910
24892SOL    HW184990   1.284   8.551   3.244 -2.6061 -0.7603 -0.5991
24892SOL    HW284991   1.237   8.609   3.376 -0.0219  0.5910 -0.2125
24893SOL     OW84992  10.123   9.905   4.724 -0.2430 -0.1031  0.1934
24893SOL    HW184993  10.207   9.897   4.769  1.1104  1.8444 -1.7403
24893SOL    HW284994  10.118   9.827   4.668 -0.6955 -1.1945  1.6949
24894SOL     OW84995  10.510  12.162   2.071 -0.1358  0.2678  0.4627
24894SOL    HW184996  10.450  12.235   2.057 -0.1069  0.1512 -0.3269
24894SOL    HW284997  10.492  12.102   1.998  0.6846  0.0669  0.4163
24895SOL     OW84998  11.275  12.836   4.876  0.3746  0.4582 -0.0630
24895SOL    HW184999  11.203  12.860   4.817 -0.5996  0.0988  0.9660
24895SOL    HW285000  11.282  12.741   4.868 -0.0244  0.3580  0.6784
24896SOL     OW85001   1.061  10.858   3.232 -0.1481 -0.4242 -0.3533
24896SOL    HW185002   0.971  10.828   3.244 -0.0501 -0.3124  0.7734
24896SOL    HW285003   1.087  10.892   3.317  0.8382 -0.1039 -0.7620
24897SOL     OW85004   2.774   9.731   3.852  0.3392  0.3810  0.0249
24897SOL    HW185005   2.742   9.806   3.902  0.7762  0.6667 -0.1233
24897SOL    HW285006   2.696   9.677   3.839  0.0827  0.6556  0.3964
24898SOL     OW85007   4.886   3.285   7.961  0.2916  0.4957 -0.3120
24898SOL    HW185008   4.816   3.236   7.919  0.0803 -0.3384  0.9536
24898SOL    HW285009   4.869   3.377   7.938 -0.8598  0.2420 -0.5082
24899SOL     OW85010   6.726  12.875   8.372 -0.2504 -0.1663 -0.5909
24899SOL    HW185011   6.645  12.923   8.355  0.0030  0.4471 -0.1319
24899SOL    HW285012   6.794  12.930   8.333  0.6325  2.3974  3.8269
24900SOL     OW85013   5.401   6.656  11.001 -0.3779 -0.1569  0.0592
24900SOL    HW185014   5.452   6.706  10.938  0.2826 -1.1947 -0.2706
24900SOL    HW285015   5.394   6.569  10.962 -1.5912 -0.2961  0.5544
24901SOL     OW85016   8.902  12.212   9.873  0.4006  0.3241 -0.1003
24901SOL    HW185017   8.966  12.165   9.820 -1.4852  0.1458 -2.3802
24901SOL    HW285018   8.910  12.303   9.845  0.6699  0.5674  0.7274
24902SOL     OW85019   5.080   1.283   1.628  0.2419  0.4373  0.0551
24902SOL    HW185020   5.066   1.259   1.720 -0.8606  1.1001  0.0701
24902SOL    HW285021   5.124   1.207   1.590  0.0383 -0.1427  0.9506
24903SOL     OW85022  10.193   1.310   5.749 -0.6091  0.1495  0.5243
24903SOL    HW185023  10.206   1.383   5.809  1.3807 -1.8992  2.7828
24903SOL    HW285024  10.281   1.276   5.732 -1.3410 -0.8776 -1.6666
24904SOL     OW85025  10.928   7.897   9.577  0.2700 -0.3180 -0.3126
24904SOL    HW185026  10.985   7.935   9.510  1.0916  0.1878  0.6512
24904SOL    HW285027  10.919   7.965   9.643 -1.6461 -0.2992 -0.5184
24905SOL     OW85028   3.874   4.892   4.239 -0.0169  0.1704  0.2224
24905SOL    HW185029   3.890   4.888   4.333  0.6777  0.0717  0.1044
24905SOL    HW285030   3.785   4.927   4.231  0.3051  1.1559  0.8837
24906SOL     OW85031   8.172   6.357   5.752 -0.0089 -0.4116  0.1046
24906SOL    HW185032   8.246   6.406   5.716 -0.6138  0.4889  0.0589
24906SOL    HW285033   8.172   6.377   5.845  1.0276 -2.0544  0.4966
24907SOL     OW85034   3.429   2.518   9.295 -0.0471  0.2215 -0.6446
24907SOL    HW185035   3.436   2.423   9.286  0.2317  0.3896 -2.6737
24907SOL    HW285036   3.501   2.552   9.242 -0.7743  1.5890 -0.7940
24908SOL     OW85037   2.062   6.257   6.314  0.7251  0.1845  0.3461
24908SOL    HW185038   2.019   6.247   6.229  2.7208 -0.4281 -0.6580
24908SOL    HW285039   2.009   6.205   6.374  0.1709 -0.7132 -0.8725
24909SOL     OW85040   0.376   5.809   3.583 -0.2020 -0.1496  0.2313
24909SOL    HW185041   0.357   5.784   3.493 -1.9215 -0.0108  0.5139
24909SOL    HW285042   0.339   5.898   3.591  0.3365  0.0202  0.9449
24910SOL     OW85043   4.302  12.452   6.186 -0.4140  0.3338 -0.3795
24910SOL    HW185044   4.268  12.420   6.103 -0.8499  0.0563 -0.0997
24910SOL    HW285045   4.381  12.501   6.163 -0.5587  0.2978 -0.9572
24911SOL     OW85046  10.671  12.793   4.491  0.6349 -0.7297 -0.6727
24911SOL    HW185047  10.692  12.762   4.404  3.0724 -2.3339  0.3738
24911SOL    HW285048  10.659  12.714   4.543 -3.3370  0.1184  0.0587
24912SOL     OW85049   2.972   0.222  11.308 -0.8907  0.2197  0.4574
24912SOL    HW185050   3.020   0.298  11.342 -1.1420  0.0933  1.1161
24912SOL    HW285051   2.918   0.193  11.382 -0.6562 -0.7147  0.2779
24913SOL     OW85052   8.007   8.058   0.101 -0.2901 -0.0445 -0.5229
24913SOL    HW185053   8.099   8.079   0.087 -0.1625 -0.8486 -0.9901
24913SOL    HW285054   8.009   7.980   0.157 -0.6855  0.0575 -0.3672
24914SOL     OW85055   3.342   3.376   1.021 -0.0934 -0.5470  0.0826
24914SOL    HW185056   3.278   3.307   1.007 -0.8591  0.1919 -0.1882
24914SOL    HW285057   3.426   3.337   0.999 -0.1451 -2.2212  2.5696
24915SOL     OW85058   1.217   4.733   8.944 -0.1950  0.4602  0.2214
24915SOL    HW185059   1.263   4.654   8.972  0.9669  0.7240 -0.8536
24915SOL    HW285060   1.169   4.762   9.022  1.6401  0.2714  1.4750
24916SOL     OW85061  11.725   1.278   6.561 -0.6375  0.0085  0.3074
24916SOL    HW185062  11.731   1.187   6.531  0.8403  0.2477 -0.1966
24916SOL    HW285063  11.711   1.328   6.481 -2.0623  0.2125  0.6456
24917SOL     OW85064   6.099   2.564   7.568 -0.3399  0.0689  0.4444
24917SOL    HW185065   6.043   2.539   7.494 -1.1375  0.1554  1.0073
24917SOL    HW285066   6.135   2.649   7.543  0.6944 -0.6414 -0.5510
24918SOL     OW85067   7.951   8.402   4.680  0.5595  0.0860  0.3171
24918SOL    HW185068   7.877   8.374   4.627 -0.3207 -0.3127  1.6914
24918SOL    HW285069   8.022   8.415   4.618 -1.0936  2.1317 -1.2911
24919SOL     OW85070  10.300   4.564   4.234 -0.1127 -0.0700  0.1450
24919SOL    HW185071  10.218   4.562   4.185  0.2034 -0.6710 -0.3799
24919SOL    HW285072  10.297   4.647   4.282 -0.8429  0.1034 -0.1774
24920SOL     OW85073  11.381  12.620   6.699 -0.6692  0.3267 -0.8999
24920SOL    HW185074  11.398  12.555   6.767  0.2291  2.7171  1.3817
24920SOL    HW285075  11.351  12.570   6.624 -1.2798 -2.5504  1.0993
24921SOL     OW85076   2.605   5.913   9.332  0.1309 -0.1728  0.1769
24921SOL    HW185077   2.695   5.882   9.322  0.4695  1.1518 -1.3207
24921SOL    HW285078   2.613   6.008   9.342 -1.0370 -0.1840  1.5002
24922SOL     OW85079   4.193  11.783  12.965  0.1252  0.1586 -0.1697
24922SOL    HW185080   4.133  11.709  12.961 -1.4275  1.2753  1.2187
24922SOL    HW285081   4.144  11.852  13.009  1.9244  1.6420 -0.3496
24923SOL     OW85082   0.942   5.499  11.883 -0.0437  0.3543 -0.0521
24923SOL    HW185083   0.910   5.433  11.943  0.2651  0.1264 -0.1365
24923SOL    HW285084   0.942   5.456  11.797  2.2936 -0.3094  0.2074
24924SOL     OW85085   3.878   3.923  12.367 -0.1247 -0.4259 -0.4082
24924SOL    HW185086   3.849   3.997  12.419 -1.0588 -1.4225  0.5329
24924SOL    HW285087   3.890   3.958  12.279 -1.8956  0.5474 -0.2863
24925SOL     OW85088  10.667   1.235   5.144  0.3748 -0.1627  0.2265
24925SOL    HW185089  10.592   1.203   5.095 -0.1837  0.6118  0.5461
24925SOL    HW285090  10.725   1.159   5.153 -0.6536 -0.9333  0.5170
24926SOL     OW85091  11.816  12.141   9.508  0.0122 -0.1944 -0.2856
24926SOL    HW185092  11.907  12.110   9.518 -0.1044 -0.3031  0.4906
24926SOL    HW285093  11.763  12.071   9.544 -0.2712  0.7995  1.2945
24927SOL     OW85094  11.764   4.886   5.909 -0.0788 -0.2063  0.0164
24927SOL    HW185095  11.718   4.970   5.906  0.8050  0.2921 -0.3249
24927SOL    HW285096  11.739   4.841   5.829 -0.9259 -0.4867  0.4259
24928SOL     OW85097   2.614   9.258   8.915  0.3247  0.1931  0.5334
24928SOL    HW185098   2.565   9.217   8.843 -1.1247 -1.6930  2.4669
24928SOL    HW285099   2.686   9.197   8.931  1.1868  1.0849  0.1057
24929SOL     OW85100  10.505   6.431   7.584  0.5783  0.1452 -0.6451
24929SOL    HW185101  10.443   6.372   7.627 -1.4683  1.3028 -1.8617
24929SOL    HW285102  10.482   6.428   7.491  1.1959  1.9405 -0.8981
24930SOL     OW85103   8.320  12.977   7.787 -0.5867  0.1197 -0.0825
24930SOL    HW185104   8.287  12.888   7.773 -2.3964  0.4078  1.8476
24930SOL    HW285105   8.362  12.974   7.872 -1.2685  1.2347  0.3262
24931SOL     OW85106   7.355   8.544  10.751 -0.5736 -0.7603  0.3116
24931SOL    HW185107   7.263   8.525  10.769 -0.0976 -0.0828  4.3825
24931SOL    HW285108   7.400   8.460  10.764 -0.6077 -1.5143 -3.3208
24932SOL     OW85109   3.850   8.680   2.422 -0.1348 -0.4913  0.0918
24932SOL    HW185110   3.857   8.668   2.327  0.0032  0.8616 -0.0837
24932SOL    HW285111   3.906   8.611   2.459 -1.2419 -1.8947 -0.7394
24933SOL     OW85112  10.121   1.520   3.030 -0.6681  0.0931 -0.3630
24933SOL    HW185113  10.103   1.492   3.120 -0.9317  0.3087 -0.3480
24933SOL    HW285114  10.132   1.614   3.036  2.2224 -0.1552 -0.0778
24934SOL     OW85115   5.005   1.650   8.299  0.4095  0.0268 -0.3664
24934SOL    HW185116   5.060   1.709   8.351  1.4262  0.2162 -1.6062
24934SOL    HW285117   4.917   1.660   8.337  1.0939  0.1706  1.2718
24935SOL     OW85118   3.288   6.823   9.701  0.0482 -0.6377  0.2671
24935SOL    HW185119   3.259   6.905   9.741 -0.0790 -0.2015 -0.6785
24935SOL    HW285120   3.328   6.850   9.618 -0.7066 -1.5901 -0.4266
24936SOL     OW85121   4.311   8.620  12.134 -0.2611 -0.1842  0.2234
24936SOL    HW185122   4.332   8.594  12.044 -0.0332  0.0772  0.2006
24936SOL    HW285123   4.291   8.537  12.178 -0.4034 -0.3117 -0.0740
24937SOL     OW85124   2.791   9.962   1.202  0.0651 -0.1997  0.2324
24937SOL    HW185125   2.765  10.017   1.276 -0.0418 -0.9699  0.7714
24937SOL    HW285126   2.715   9.962   1.144 -0.0618 -0.0714  0.3993
24938SOL     OW85127  10.152   0.617  11.379  0.1543 -0.3919 -0.3300
24938SOL    HW185128  10.210   0.686  11.411  0.4361 -1.5545  1.8810
24938SOL    HW285129  10.207   0.538  11.378 -0.6599 -0.9633 -0.9014
24939SOL     OW85130   8.631   9.157   6.587  0.1193  0.3581 -0.3304
24939SOL    HW185131   8.583   9.174   6.668 -1.2176 -2.8528 -0.3181
24939SOL    HW285132   8.564   9.158   6.519  0.5525 -1.0011 -0.7902
24940SOL     OW85133   0.617   4.790   3.824  0.2042  0.2917 -0.2520
24940SOL    HW185134   0.550   4.816   3.888 -0.8318 -0.5560 -0.9631
24940SOL    HW285135   0.700   4.817   3.865 -0.3505 -0.8334  1.7708
24941SOL     OW85136   2.717  12.119   1.359 -0.4184 -0.5991  0.2156
24941SOL    HW185137   2.728  12.024   1.356 -0.1232 -0.5439 -0.7676
24941SOL    HW285138   2.720  12.146   1.267 -0.9535  0.3126  0.4570
24942SOL     OW85139   6.651   1.678   2.047 -0.1406 -0.1493  0.6899
24942SOL    HW185140   6.583   1.665   2.113 -0.9083 -0.0256 -0.0611
24942SOL    HW285141   6.636   1.766   2.014  0.8425  0.1531  1.0190
24943SOL     OW85142   4.131  12.272  12.521  0.0947  0.0288 -0.3779
24943SOL    HW185143   4.068  12.300  12.588 -0.6039 -1.4234 -0.3782
24943SOL    HW285144   4.192  12.346  12.513 -1.3070  1.2890 -0.0106
24944SOL     OW85145   0.646  11.515   5.139  0.3013 -0.5101 -0.2268
24944SOL    HW185146   0.563  11.472   5.158  0.5571  0.2677  3.4912
24944SOL    HW285147   0.625  11.608   5.137  0.8278 -0.3926 -1.1922
24945SOL     OW85148   3.233   1.644   9.601  0.4132 -0.0985 -0.0871
24945SOL    HW185149   3.174   1.597   9.661  2.7830 -1.7509  1.1165
24945SOL    HW285150   3.201   1.734   9.601 -1.0666 -0.5616  1.8569
24946SOL     OW85151   1.490  10.665  11.365  0.6197  0.1428  0.4010
24946SOL    HW185152   1.439  10.648  11.444 -0.8640  0.0039 -0.5434
24946SOL    HW285153   1.541  10.584  11.353 -1.2997 -1.0378 -0.3181
24947SOL     OW85154  10.415  11.386  12.463  0.6263 -0.3753 -0.0023
24947SOL    HW185155  10.496  11.390  12.411  0.1307  2.6156 -0.7518
24947SOL    HW285156  10.348  11.362  12.399  0.5620 -0.5242  0.1203
24948SOL     OW85157   6.504   0.061   8.405  0.7559  0.2852  0.3768
24948SOL    HW185158   6.415   0.027   8.412  1.0746 -0.5008  0.7839
24948SOL    HW285159   6.497   0.153   8.430 -0.3068  0.8639 -1.7829
24949SOL     OW85160   2.863   6.079   2.298 -0.0837  0.1441  0.2388
24949SOL    HW185161   2.908   6.132   2.364  0.4111 -0.0589  0.0678
24949SOL    HW285162   2.799   6.027   2.347  0.2946 -0.0181  0.5615
24950SOL     OW85163   9.724  12.541  12.681  0.3758 -0.3537  0.0724
24950SOL    HW185164   9.759  12.564  12.767  0.9091 -0.7008 -0.0484
24950SOL    HW285165   9.730  12.445  12.678  0.5038 -0.3295 -0.4173
24951SOL     OW85166   9.547   5.861   4.263  0.2830 -0.1482 -0.0410
24951SOL    HW185167   9.480   5.844   4.329 -0.9980 -0.2878 -1.3308
24951SOL    HW285168   9.506   5.835   4.181  1.7703  0.2081 -0.9206
24952SOL     OW85169  11.004   0.596   1.704 -0.3326 -0.3464  0.0784
24952SOL    HW185170  11.083   0.593   1.758 -0.2418 -1.0465 -0.0810
24952SOL    HW285171  10.996   0.687   1.677  0.8499 -0.4158 -0.5435
24953SOL     OW85172   2.064   7.644   0.248  0.4576 -0.3862  0.0676
24953SOL    HW185173   2.090   7.630   0.339 -0.1974 -2.1032  0.0298
24953SOL    HW285174   2.147   7.658   0.202  0.6891  2.2208  1.1374
24954SOL     OW85175   8.990  10.650  10.435  0.3113  0.1914  0.5894
24954SOL    HW185176   9.065  10.706  10.454 -0.4408  1.5264 -0.2829
24954SOL    HW285177   8.937  10.699  10.373 -1.0295 -0.9516  0.7631
24955SOL     OW85178  11.134   9.639   1.112  0.0902  0.5216  0.7851
24955SOL    HW185179  11.046   9.603   1.118 -0.4752  1.9426  1.3907
24955SOL    HW285180  11.170   9.600   1.032 -0.2623 -1.7544  1.6652
24956SOL     OW85181  10.345   0.379   5.270 -0.3338  0.2594 -0.1011
24956SOL    HW185182  10.328   0.327   5.191  2.9927 -2.3905  0.7293
24956SOL    HW285183  10.261   0.379   5.317 -1.3884 -1.3150 -1.8563
24957SOL     OW85184   0.361   9.154  10.000  0.7798 -0.3635 -0.0127
24957SOL    HW185185   0.398   9.227   9.950 -1.4075  0.8733  0.0279
24957SOL    HW285186   0.406   9.157  10.085 -0.3408  2.0140  0.5727
24958SOL     OW85187   2.044   1.579   8.530 -0.6830 -0.3801  0.1465
24958SOL    HW185188   2.126   1.587   8.579 -0.0792  1.2547 -1.0397
24958SOL    HW285189   2.065   1.608   8.441 -2.6204  0.4410 -0.1099
24959SOL     OW85190   1.769   9.684   4.904 -0.6660 -0.5402  0.6127
24959SOL    HW185191   1.747   9.605   4.954 -0.2138 -1.4441 -0.5739
24959SOL    HW285192   1.734   9.756   4.957 -1.7928 -1.5781  1.3449
24960SOL     OW85193   8.772   7.712   9.188 -0.5135 -0.1640  0.0538
24960SOL    HW185194   8.810   7.633   9.226 -0.2506  0.6560  1.5624
24960SOL    HW285195   8.711   7.744   9.255 -1.3160  0.4046 -0.9240
24961SOL     OW85196   2.736  10.677  11.856 -0.3518  0.3383  0.1415
24961SOL    HW185197   2.667  10.710  11.798  0.4221  0.1656 -0.9162
24961SOL    HW285198   2.722  10.583  11.858 -1.0352  0.4385  1.1458
24962SOL     OW85199  12.883   8.435   8.060  0.0220 -0.1413 -0.0572
24962SOL    HW185200  12.810   8.386   8.022  0.2076 -0.0060 -0.5997
24962SOL    HW285201  12.873   8.524   8.027  0.1409 -0.0023  0.2785
24963SOL     OW85202   0.832   3.816   7.298 -0.3822 -0.1695  0.4547
24963SOL    HW185203   0.855   3.811   7.391 -0.0950 -1.0690  0.3462
24963SOL    HW285204   0.736   3.810   7.297 -0.4113  0.2302  0.7118
24964SOL     OW85205   3.818   6.219   8.153  0.7874  0.4394  0.3251
24964SOL    HW185206   3.765   6.287   8.194  0.6027 -0.0335  0.8766
24964SOL    HW285207   3.756   6.170   8.098  1.1524  1.4755 -1.0772
24965SOL     OW85208   5.180   9.617   6.007  0.0439  0.3291  0.2123
24965SOL    HW185209   5.264   9.580   6.033 -1.3014 -3.6489 -0.4037
24965SOL    HW285210   5.125   9.609   6.085 -0.7481 -0.7364 -0.4209
24966SOL     OW85211   4.339   3.058  12.838  0.0419 -0.3347  0.0869
24966SOL    HW185212   4.291   3.114  12.898 -0.3698 -1.0425  0.4314
24966SOL    HW285213   4.274   3.034  12.771  0.1086 -0.7231  0.1616
24967SOL     OW85214   7.426  10.114   1.625 -0.7060  0.4783  0.0399
24967SOL    HW185215   7.489  10.069   1.681 -0.5317  0.1035 -0.4549
24967SOL    HW285216   7.477  10.147   1.552 -1.1394 -0.1697 -0.5649
24968SOL     OW85217  10.428   2.676   0.027 -0.0433  0.5598  0.2948
24968SOL    HW185218  10.339   2.684  -0.010 -0.2982 -2.0358  0.2170
24968SOL    HW285219  10.485   2.679  -0.050 -0.2777 -0.4778  0.0623
24969SOL     OW85220   5.403   0.711   0.546 -0.6931 -0.5772 -0.0397
24969SOL    HW185221   5.357   0.761   0.478 -0.8529 -2.0021 -1.0086
24969SOL    HW285222   5.494   0.739   0.539 -0.9823  0.5556  0.3535
24970SOL     OW85223   2.906  12.290   8.368 -0.1954  0.5673 -0.3188
24970SOL    HW185224   2.905  12.196   8.385  1.0728  0.7369  0.8926
24970SOL    HW285225   2.878  12.298   8.276 -1.7310 -0.8515 -0.0302
24971SOL     OW85226  12.259  10.414   8.575 -0.0830 -0.2761 -0.3067
24971SOL    HW185227  12.238  10.332   8.529  2.3825 -0.7232 -0.7659
24971SOL    HW285228  12.222  10.403   8.662 -1.2523 -1.1487 -0.8775
24972SOL     OW85229  10.463   4.900   7.319 -0.0490 -0.4702 -0.9112
24972SOL    HW185230  10.475   4.805   7.317  0.4102 -0.5170  1.3506
24972SOL    HW285231  10.549   4.935   7.297  0.4326 -0.6421  0.5899
24973SOL     OW85232   0.919   0.623  10.094  0.1083 -0.0492 -0.3200
24973SOL    HW185233   0.912   0.694  10.030 -0.9563  1.0415  0.9341
24973SOL    HW285234   1.011   0.625  10.121  0.0225  1.1226 -0.0539
24974SOL     OW85235   8.950   3.201   0.561  0.0128  0.0867 -0.1123
24974SOL    HW185236   8.982   3.141   0.629  2.9082  0.0252 -1.3500
24974SOL    HW285237   8.904   3.145   0.499 -0.4847 -0.2478  0.5477
24975SOL     OW85238   4.974   8.364   5.853  0.2876  0.3897 -0.8406
24975SOL    HW185239   4.954   8.406   5.937 -1.2605 -0.9435 -0.4808
24975SOL    HW285240   4.898   8.385   5.798  0.0306 -0.9328 -1.0137
24976SOL     OW85241  11.369   2.577   0.348  0.2859  0.0053 -0.0498
24976SOL    HW185242  11.388   2.572   0.442  1.5188  1.9310 -0.1516
24976SOL    HW285243  11.454   2.593   0.307 -0.3613  0.0911 -1.4186
24977SOL     OW85244   6.946   0.006   7.828  0.3550  0.3942 -0.4271
24977SOL    HW185245   6.895  -0.070   7.856  0.2620  0.9763  1.0238
24977SOL    HW285246   7.023  -0.031   7.786 -0.7402 -0.5003 -1.7461
24978SOL     OW85247   9.233   2.919   8.908  0.1511  0.4198 -0.1208
24978SOL    HW185248   9.319   2.891   8.876  0.2751  1.7908 -1.0739
24978SOL    HW285249   9.192   2.962   8.833 -1.9331 -1.3292 -0.0928
24979SOL     OW85250  10.179   8.456   0.201  0.0473  0.3853 -0.1095
24979SOL    HW185251  10.160   8.520   0.133 -1.1884  1.2918  1.0267
24979SOL    HW285252  10.271   8.471   0.222 -0.3414  2.2540  0.5284
24980SOL     OW85253   0.351   2.262  12.331 -0.5935 -0.0448 -0.0686
24980SOL    HW185254   0.393   2.267  12.416 -1.6554 -2.4924  0.6863
24980SOL    HW285255   0.288   2.334  12.331  0.2639  0.7238  0.6996
24981SOL     OW85256   8.788  11.124   6.959 -0.1907  0.5157 -0.5177
24981SOL    HW185257   8.778  11.156   6.869 -3.0146 -1.1265 -0.9250
24981SOL    HW285258   8.745  11.190   7.013  0.0911  0.7367 -0.5646
24982SOL     OW85259   1.729  10.773   5.406 -0.5184  0.4274 -0.2610
24982SOL    HW185260   1.706  10.690   5.364 -0.3409 -0.0511  0.5648
24982SOL    HW285261   1.820  10.788   5.381 -0.9117  1.0100 -1.4146
24983SOL     OW85262   1.802   5.904   0.437 -0.3041 -0.4204 -0.0448
24983SOL    HW185263   1.870   5.963   0.468  0.4227 -1.4026  0.2891
24983SOL    HW285264   1.808   5.908   0.341 -0.6936  0.5126 -0.0377
24984SOL     OW85265  12.508   0.214  11.709  0.0229 -0.0098  0.6055
24984SOL    HW185266  12.494   0.268  11.786 -0.5620  1.4714 -0.4897
24984SOL    HW285267  12.570   0.147  11.738  0.1386  0.7433  2.2364
24985SOL     OW85268   3.932  12.488   8.143 -0.0733 -0.0351  0.0618
24985SOL    HW185269   3.864  12.551   8.168 -0.3971 -0.3885  0.0862
24985SOL    HW285270   3.883  12.410   8.117  0.3421 -0.6053  0.9321
24986SOL     OW85271   8.236  12.803  11.541 -0.4936 -0.1142  0.2909
24986SOL    HW185272   8.283  12.830  11.462  2.1041 -1.5584  1.2288
24986SOL    HW285273   8.209  12.713  11.523 -1.7366  0.2338  0.3097
24987SOL     OW85274   9.431   9.465   2.401  0.2359 -0.2607  0.2619
24987SOL    HW185275   9.425   9.525   2.326 -0.1826  0.3372  0.7619
24987SOL    HW285276   9.499   9.504   2.456  0.2787 -0.4973  0.3752
24988SOL     OW85277   4.575   9.633   1.435  0.2511 -0.0982  0.6321
24988SOL    HW185278   4.559   9.711   1.489 -1.2438 -0.5253  0.8465
24988SOL    HW285279   4.496   9.623   1.383  1.1225 -0.4970 -0.6766
24989SOL     OW85280   5.243   4.896   3.648  0.2887 -0.0006  0.1382
24989SOL    HW185281   5.187   4.903   3.570  0.4529  0.0609  0.0268
24989SOL    HW285282   5.329   4.872   3.614  0.3039 -0.2093  0.3212
24990SOL     OW85283  10.863   3.862   7.810 -0.5946  0.2003  0.2056
24990SOL    HW185284  10.861   3.835   7.718 -0.5030  0.3512  0.1598
24990SOL    HW285285  10.928   3.805   7.850 -0.4339  0.3204  0.1178
24991SOL     OW85286  11.189   4.095  11.446 -0.3491  0.7331  0.0858
24991SOL    HW185287  11.202   4.014  11.496 -2.7553 -1.1349 -2.0223
24991SOL    HW285288  11.194   4.164  11.512  0.7014 -1.1776  2.1915
24992SOL     OW85289   0.508   2.762   7.444 -0.3436 -0.0526 -0.5577
24992SOL    HW185290   0.575   2.771   7.376 -0.0703 -0.4484 -0.3401
24992SOL    HW285291   0.427   2.792   7.402 -0.0004  0.5913 -0.7688
24993SOL     OW85292   9.083  12.125   6.778 -0.0332 -0.2207  0.2142
24993SOL    HW185293   9.000  12.077   6.774 -0.0289 -0.2598  0.6100
24993SOL    HW285294   9.150  12.057   6.773 -0.0271 -0.2562  0.7381
24994SOL     OW85295  12.656  11.254   4.086  0.1985  0.2571 -0.1766
24994SOL    HW185296  12.711  11.179   4.109  0.3772  0.6702  0.8356
24994SOL    HW285297  12.659  11.258   3.991 -0.7572 -1.7146 -0.3429
24995SOL     OW85298   4.247   6.637   7.190  0.0984  0.0000 -0.4333
24995SOL    HW185299   4.231   6.586   7.270  2.3699 -0.1402 -0.0088
24995SOL    HW285300   4.288   6.717   7.220 -0.0239  0.4344 -1.3892
24996SOL     OW85301   0.739   1.302   8.680 -0.0139 -0.1359 -0.4195
24996SOL    HW185302   0.676   1.356   8.728  0.7347 -0.2075  0.6822
24996SOL    HW285303   0.804   1.364   8.647  0.0729 -0.2129 -0.3932
24997SOL     OW85304   2.292  12.149  11.680 -0.5016  0.3151 -0.1162
24997SOL    HW185305   2.205  12.113  11.659 -0.8987  0.6900  0.8103
24997SOL    HW285306   2.348  12.072  11.688 -1.0243 -0.0240  0.4435
24998SOL     OW85307   1.055   9.644  12.901 -0.6538 -0.4610  0.2425
24998SOL    HW185308   1.053   9.637  12.805 -0.0698 -2.0256  0.2990
24998SOL    HW285309   1.029   9.734  12.919  0.1475  0.1751 -1.4351
24999SOL     OW85310   1.402   7.854   9.695 -0.5824 -0.3001  0.1253
24999SOL    HW185311   1.476   7.800   9.668  0.7515  0.4440  2.1221
24999SOL    HW285312   1.372   7.816   9.777 -1.3116  0.4393  0.2162
25000SOL     OW85313   9.662  11.610  12.084 -0.3128 -0.4121  0.2390
25000SOL    HW185314   9.618  11.530  12.113 -0.5029  0.1563  1.6275
25000SOL    HW285315   9.635  11.676  12.148 -1.0207  1.0441 -1.4586
25001SOL     OW85316   3.317  10.021   2.367 -0.1121 -0.1423  0.3709
25001SOL    HW185317   3.279   9.982   2.289 -0.7644 -0.8185  1.0114
25001SOL    HW285318   3.381   9.957   2.398 -0.1282 -0.0452  0.6058
25002SOL     OW85319   6.470   0.625   0.481 -0.1984  0.6980  0.2198
25002SOL    HW185320   6.556   0.593   0.453 -0.3985 -0.9067  1.3004
25002SOL    HW285321   6.432   0.552   0.531 -2.7358  0.8503 -1.2828
25003SOL     OW85322  11.319   1.008  10.335  0.3394 -0.0986  0.2410
25003SOL    HW185323  11.312   1.080  10.273  0.5599 -0.5658 -0.3386
25003SOL    HW285324  11.344   0.933  10.281 -0.3727 -0.7197  0.7614
25004SOL     OW85325  11.025  12.766   3.936 -0.5478  0.5767  0.1503
25004SOL    HW185326  11.017  12.814   4.018 -0.8581  0.4519  0.1904
25004SOL    HW285327  10.967  12.690   3.946 -1.5915  1.2398 -0.6758
25005SOL     OW85328  12.855   2.590   2.658 -0.7159  0.1186 -0.7580
25005SOL    HW185329  12.803   2.634   2.725 -0.5066 -0.4988 -0.1752
25005SOL    HW285330  12.827   2.498   2.662  1.2901 -0.5047  0.4634
25006SOL     OW85331  11.789  12.922   7.780  0.4620 -0.1380 -0.0119
25006SOL    HW185332  11.708  12.871   7.774  0.5154 -0.3155  0.6639
25006SOL    HW285333  11.844  12.888   7.710  0.3949 -0.8449  0.2639
25007SOL     OW85334  12.639   1.278   2.225 -0.2029  0.3216  0.4767
25007SOL    HW185335  12.677   1.278   2.137  1.8716 -1.4932  1.2655
25007SOL    HW285336  12.706   1.319   2.280 -0.9177  0.2967  1.3897
25008SOL     OW85337   9.493  12.071   8.890  0.3960  0.2640  0.0465
25008SOL    HW185338   9.420  12.009   8.896  0.7432 -0.4197 -1.8610
25008SOL    HW285339   9.459  12.152   8.929 -0.8386 -0.4887  0.5827
25009SOL     OW85340   4.773   5.917   7.052  0.9214  0.0530 -0.1313
25009SOL    HW185341   4.820   5.925   7.135  0.1521 -0.0958  0.3314
25009SOL    HW285342   4.809   5.987   6.997  1.6518 -0.0432  0.2231
25010SOL     OW85343   0.049   6.126  12.645  0.3705 -0.1012  0.6332
25010SOL    HW185344   0.087   6.191  12.586 -0.5867 -0.7910 -0.7844
25010SOL    HW285345  -0.031   6.167  12.678 -0.3648 -0.6202 -0.4553
25011SOL     OW85346   7.968   8.551   5.382 -0.8745 -0.4171  0.5483
25011SOL    HW185347   7.894   8.609   5.397  0.0899  0.6416  1.3882
25011SOL    HW285348   8.045   8.607   5.391  0.1362 -1.9536  2.1464
25012SOL     OW85349  11.144   1.732   8.402 -0.3863  0.5908 -0.0605
25012SOL    HW185350  11.189   1.789   8.464 -0.4141  1.0132 -0.4169
25012SOL    HW285351  11.213   1.698   8.345 -0.2051 -0.7447  0.9267
25013SOL     OW85352   0.655   5.668   8.741  0.1180  0.4862  0.4917
25013SOL    HW185353   0.561   5.683   8.746  0.3960  2.5125  0.2697
25013SOL    HW285354   0.663   5.576   8.716 -1.7845  0.1408  1.0167
25014SOL     OW85355  10.420   9.858   1.948  0.3959  0.6966 -0.3963
25014SOL    HW185356  10.350   9.793   1.951  1.5652 -0.6111 -0.6899
25014SOL    HW285357  10.486   9.826   2.010  0.6075  2.0789  0.1263
25015SOL     OW85358  10.536   1.013   5.318  0.3116 -0.4447 -0.0746
25015SOL    HW185359  10.472   0.955   5.277  0.2656  1.1394 -2.4331
25015SOL    HW285360  10.621   0.971   5.302  0.0830 -1.4847  1.2214
25016SOL     OW85361  12.376  11.096   7.337 -0.4894  0.2386  0.1644
25016SOL    HW185362  12.453  11.129   7.384 -0.3780 -0.1704  0.2732
25016SOL    HW285363  12.405  11.091   7.245  0.1602 -1.4516  0.4252
25017SOL     OW85364   4.257   8.566   3.078  0.1052 -0.5852 -0.2908
25017SOL    HW185365   4.337   8.523   3.047  0.0011 -1.8201  1.0442
25017SOL    HW285366   4.239   8.525   3.162 -0.4861  1.5195  0.6872
25018SOL     OW85367   5.628   3.950   3.546 -0.3581 -0.2234  0.1177
25018SOL    HW185368   5.630   3.857   3.521 -1.0289 -0.2270  0.0672
25018SOL    HW285369   5.569   3.991   3.483  1.8328  0.7330 -1.4387
25019SOL     OW85370  12.206   1.559   2.813  0.1586  0.1300 -0.4018
25019SOL    HW185371  12.227   1.652   2.800  1.9919 -0.1709  0.2547
25019SOL    HW285372  12.248   1.515   2.740 -1.4798 -0.1483 -1.2394
25020SOL     OW85373   2.964  12.595   5.094 -0.1759 -0.2134  0.2139
25020SOL    HW185374   3.008  12.517   5.060 -0.1084 -0.1877  0.2430
25020SOL    HW285375   2.872  12.583   5.070 -0.0779 -0.0458 -0.2627
25021SOL     OW85376   3.978   7.014   2.602 -0.1898 -0.2242 -0.3449
25021SOL    HW185377   3.947   7.102   2.621 -0.3832 -0.2786 -0.4134
25021SOL    HW285378   3.988   6.973   2.688 -2.6678 -1.0317 -0.3738
25022SOL     OW85379   7.502   0.924   7.086 -0.6659  0.6885 -0.2933
25022SOL    HW185380   7.431   0.914   7.022 -2.7762  0.6443  1.9405
25022SOL    HW285381   7.541   1.009   7.065 -1.7207  0.9681 -1.2396
25023SOL     OW85382   8.343   6.747   6.318  0.0516 -0.1245 -0.1795
25023SOL    HW185383   8.256   6.729   6.353 -0.1183  0.2996 -0.3822
25023SOL    HW285384   8.350   6.842   6.317  0.3227 -0.1472 -0.6431
25024SOL     OW85385  12.366   0.691  10.356 -0.4209 -0.0943 -0.0348
25024SOL    HW185386  12.347   0.738  10.438  1.3742 -1.2340  1.1128
25024SOL    HW285387  12.416   0.754  10.304 -0.2567  0.1401  0.3995
25025SOL     OW85388  10.616   3.293  10.700  0.1213 -0.2303 -0.0432
25025SOL    HW185389  10.626   3.220  10.762  0.9778 -1.0251 -1.0732
25025SOL    HW285390  10.693   3.286  10.643 -0.0872  1.1444 -0.5204
25026SOL     OW85391   4.969   2.968   2.502  0.9779 -0.0355  0.3851
25026SOL    HW185392   4.965   3.019   2.421  1.8974  0.0135  0.3584
25026SOL    HW285393   4.946   3.030   2.571  3.1393  0.7571  0.4792
25027SOL     OW85394   2.239  11.114   4.799  0.4125  0.7690 -0.4650
25027SOL    HW185395   2.282  11.179   4.855  0.2524  0.2934  0.2128
25027SOL    HW285396   2.162  11.160   4.765  1.2764  1.5339 -1.4648
25028SOL     OW85397  12.444   4.594   6.052  0.4060 -0.5628 -0.1355
25028SOL    HW185398  12.509   4.523   6.047  0.6337 -0.3772  0.1673
25028SOL    HW285399  12.363   4.554   6.022  0.4712 -1.0343  0.3087
25029SOL     OW85400  10.253   6.915   4.619  0.1344 -0.0594  0.1372
25029SOL    HW185401  10.334   6.886   4.660 -0.8116 -0.9591  1.4776
25029SOL    HW285402  10.209   6.967   4.686 -1.3974 -1.4642  0.3190
25030SOL     OW85403  11.946  11.999   6.528 -0.0757 -0.3219  0.2960
25030SOL    HW185404  11.954  12.031   6.438 -0.6887  1.3642  0.7954
25030SOL    HW285405  11.958  12.077   6.582  1.2626 -1.4734  1.7376
25031SOL     OW85406   8.345   3.800   4.699 -0.3182 -0.3094 -0.0511
25031SOL    HW185407   8.290   3.878   4.705  0.6217  0.4766 -1.1865
25031SOL    HW285408   8.343   3.775   4.607 -0.0443 -1.2183  0.1691
25032SOL     OW85409   2.677   4.881   9.854 -0.4259 -0.4343  0.3886
25032SOL    HW185410   2.762   4.914   9.826 -1.3887  1.0991 -0.9371
25032SOL    HW285411   2.692   4.789   9.874  1.5861 -0.1281  0.4763
25033SOL     OW85412   5.906   7.618   5.061 -0.0946  0.0388  0.0553
25033SOL    HW185413   5.894   7.642   5.153  1.1716 -0.2377  0.3124
25033SOL    HW285414   5.855   7.538   5.050 -2.1566  1.3035 -0.1153
25034SOL     OW85415   3.790   0.922  12.107  0.3282 -0.8818  0.1141
25034SOL    HW185416   3.749   0.904  12.191 -1.2008  0.7932 -0.2027
25034SOL    HW285417   3.754   0.856  12.048  1.3413 -2.0082  0.7109
25035SOL     OW85418  11.969   6.877   4.695  0.1325 -0.2130  0.0141
25035SOL    HW185419  11.902   6.834   4.748 -0.3439 -1.6307 -1.6772
25035SOL    HW285420  11.925   6.899   4.613  1.3422  0.2121 -0.5435
25036SOL     OW85421   5.647   8.529   0.256  0.1492 -0.0173  0.1231
25036SOL    HW185422   5.607   8.560   0.338  1.6633  1.4626  0.3527
25036SOL    HW285423   5.659   8.607   0.203  2.1241 -0.4601 -0.1804
25037SOL     OW85424  12.148  12.495   5.640  0.0498  0.5415 -0.0131
25037SOL    HW185425  12.185  12.567   5.590 -0.6868  0.0540 -1.3236
25037SOL    HW285426  12.221  12.460   5.690  0.6352  1.5581 -0.1360
25038SOL     OW85427  11.113   8.488   8.643  0.3010  0.3920  0.4188
25038SOL    HW185428  11.205   8.478   8.621  0.2366 -0.6857  0.5792
25038SOL    HW285429  11.068   8.428   8.583 -0.4134  1.6904 -0.4132
25039SOL     OW85430  11.702   7.477   7.891 -0.8537  0.3986  0.1354
25039SOL    HW185431  11.795   7.496   7.903 -0.9923  1.8052 -0.7762
25039SOL    HW285432  11.699   7.382   7.880  0.2381  0.0925  1.9614
25040SOL     OW85433  10.436   0.689   6.504 -0.0737  0.3610 -0.0797
25040SOL    HW185434  10.506   0.734   6.456 -0.4074 -1.0483 -1.9585
25040SOL    HW285435  10.396   0.630   6.441 -1.4849 -0.5607  1.5716
25041SOL     OW85436  10.272   9.564   0.221  0.0994 -0.2313 -0.0604
25041SOL    HW185437  10.292   9.648   0.262  1.5701 -0.8839  0.6257
25041SOL    HW285438  10.357   9.530   0.193 -0.1976 -2.2989  1.2884
25042SOL     OW85439   8.988  11.338   3.905  0.5435  0.0935  0.2933
25042SOL    HW185440   9.069  11.385   3.887  1.3829 -1.8068 -1.2751
25042SOL    HW285441   9.003  11.295   3.989  1.7095 -1.2553 -0.5607
25043SOL     OW85442   0.439   2.395   0.960 -0.0196  0.7517  0.0414
25043SOL    HW185443   0.498   2.424   0.890  0.0294  1.0229  0.1953
25043SOL    HW285444   0.385   2.327   0.918 -0.8833  1.8297 -0.6433
25044SOL     OW85445   9.199  10.480   8.520 -0.2573  0.7660 -0.2986
25044SOL    HW185446   9.192  10.524   8.435 -1.7040 -0.7229 -0.9909
25044SOL    HW285447   9.121  10.508   8.568 -1.7648 -1.7044 -1.1305
25045SOL     OW85448   7.720   2.322   4.660 -0.2562  0.2203 -0.3646
25045SOL    HW185449   7.628   2.344   4.647 -0.3380  0.5589  0.7125
25045SOL    HW285450   7.767   2.377   4.598 -0.5782  2.3098  1.1343
25046SOL     OW85451   6.396   0.902   3.627 -0.4532 -0.0183  0.2922
25046SOL    HW185452   6.331   0.842   3.663 -1.8523  1.6297  0.6108
25046SOL    HW285453   6.474   0.848   3.615 -1.9549 -2.1456 -0.4270
25047SOL     OW85454   9.457  12.437   8.887  0.1613  0.3108  0.2825
25047SOL    HW185455   9.421  12.362   8.840  2.7775 -0.0602 -1.3208
25047SOL    HW285456   9.398  12.509   8.867 -3.1519 -1.4253  2.8648
25048SOL     OW85457   4.975   9.842   6.039 -0.5882 -0.3474 -0.0594
25048SOL    HW185458   5.013   9.756   6.058 -0.6573 -0.8061 -1.7920
25048SOL    HW285459   4.883   9.823   6.019 -0.8833  0.2912  0.6517
25049SOL     OW85460   9.196   5.441   1.746  0.0302 -0.2129 -0.6521
25049SOL    HW185461   9.156   5.520   1.783  0.3113  0.1450 -1.0984
25049SOL    HW285462   9.122   5.386   1.721 -0.2149  0.5397 -1.6751
25050SOL     OW85463   3.239  10.779   0.333  0.1316  0.4953  0.2944
25050SOL    HW185464   3.268  10.699   0.377  0.5075 -0.4380 -1.5459
25050SOL    HW285465   3.144  10.770   0.328  0.2223 -0.1957 -0.4876
25051SOL     OW85466   3.614  10.297   2.283 -0.3890 -0.1074 -0.1082
25051SOL    HW185467   3.694  10.341   2.311 -1.2098  0.7954  0.9187
25051SOL    HW285468   3.603  10.224   2.344 -0.9404  0.4546  0.4752
25052SOL     OW85469   1.082   7.018   9.594 -0.3035  0.1834 -0.4640
25052SOL    HW185470   1.160   7.005   9.649  0.1355  0.2179 -1.0744
25052SOL    HW285471   1.018   6.955   9.628 -0.8016  1.6257  1.4825
25053SOL     OW85472  10.664   6.210   9.384  0.0565 -0.3451  0.4434
25053SOL    HW185473  10.601   6.279   9.363  1.2219  0.2846 -1.2515
25053SOL    HW285474  10.619   6.128   9.362 -1.0746 -0.1054  1.7691
25054SOL     OW85475   5.673   7.802  10.728 -0.3917  0.2004  0.1121
25054SOL    HW185476   5.666   7.896  10.710 -1.0429 -0.0959 -1.3483
25054SOL    HW285477   5.707   7.764  10.647  1.6900 -0.6368  1.2938
25055SOL     OW85478   3.272  10.835   0.708  0.0828  0.3958  0.3395
25055SOL    HW185479   3.328  10.780   0.762  0.3516  0.9351  0.6160
25055SOL    HW285480   3.198  10.778   0.685  1.1473 -0.6013 -0.7659
25056SOL     OW85481   1.506   0.804   4.558  0.1831  0.2720  0.3211
25056SOL    HW185482   1.512   0.719   4.601  0.5739  0.8415  1.4464
25056SOL    HW285483   1.412   0.821   4.551 -0.0001  1.3288  3.4860
25057SOL     OW85484   6.274   8.103   5.706 -0.1560  0.5794  0.6832
25057SOL    HW185485   6.310   8.162   5.641  0.4693  2.2805  2.4750
25057SOL    HW285486   6.260   8.158   5.784 -3.4876 -0.6959  1.1757
25058SOL     OW85487  12.745   5.490   2.595 -0.1082 -0.1630  0.1833
25058SOL    HW185488  12.651   5.500   2.608  0.0555  1.8429  0.0998
25058SOL    HW285489  12.768   5.554   2.528  1.5632  0.5261  1.3384
25059SOL     OW85490   2.496   6.063   3.831 -0.2422  0.3654  0.2380
25059SOL    HW185491   2.588   6.072   3.854 -0.0799  0.0527 -0.2765
25059SOL    HW285492   2.451   6.052   3.915  0.1426  0.8764  0.5170
25060SOL     OW85493   0.381   1.757   0.287 -0.1403 -0.3545  0.4509
25060SOL    HW185494   0.311   1.796   0.234  2.3031  0.2122 -2.6505
25060SOL    HW285495   0.365   1.663   0.283  0.8487 -0.4978 -2.9254
25061SOL     OW85496   0.831   2.069   2.054 -0.1432  0.2901  0.3688
25061SOL    HW185497   0.820   2.140   2.117 -2.7545  0.7416 -0.4470
25061SOL    HW285498   0.800   1.991   2.100 -1.8432  0.5836 -0.1740
25062SOL     OW85499   3.998   1.100   2.173 -0.2982  0.1394 -0.1705
25062SOL    HW185500   4.066   1.046   2.213  0.0431  1.0495  0.5231
25062SOL    HW285501   3.956   1.144   2.247 -1.0141  0.3115 -0.6682
25063SOL     OW85502   7.609   9.300   7.277  0.6016  0.2252 -0.3697
25063SOL    HW185503   7.699   9.326   7.296  1.8049 -3.2589 -0.5369
25063SOL    HW285504   7.600   9.309   7.182  1.3136 -0.7602 -0.5464
25064SOL     OW85505   3.335   7.910   4.204  0.3240 -0.1617  0.7241
25064SOL    HW185506   3.326   7.857   4.125  1.7140  1.8794 -0.9189
25064SOL    HW285507   3.418   7.883   4.243  0.7301  0.3459  0.2275
25065SOL     OW85508   0.483  10.902  11.321 -0.6904 -0.5110 -0.7536
25065SOL    HW185509   0.409  10.955  11.289  0.3344  0.3805 -1.7494
25065SOL    HW285510   0.551  10.966  11.343 -0.4955 -1.2611  1.0098
25066SOL     OW85511   2.954   1.952   6.990  0.1420 -0.3021  0.8841
25066SOL    HW185512   2.948   1.857   6.983  0.6870 -0.4758  2.3907
25066SOL    HW285513   3.009   1.967   7.067  1.8274  1.2318 -0.5021
25067SOL     OW85514   2.129   0.561   4.831  0.0660 -0.0787 -0.3336
25067SOL    HW185515   2.134   0.572   4.736 -2.4484  0.3764 -0.4698
25067SOL    HW285516   2.051   0.609   4.857 -0.2503 -1.5703  1.7586
25068SOL     OW85517   3.261  11.509   3.651  0.1037  0.1334 -0.2039
25068SOL    HW185518   3.184  11.565   3.646 -0.7878 -0.6796  2.5380
25068SOL    HW285519   3.230  11.423   3.621  0.8915  0.5067 -2.2746
25069SOL     OW85520   6.717   6.998   9.669 -0.4554  0.2971 -0.4884
25069SOL    HW185521   6.752   6.999   9.580 -1.8372  0.8119 -1.0464
25069SOL    HW285522   6.725   6.907   9.696  0.3725  0.2146 -0.9703
25070SOL     OW85523  11.668   0.595   0.844  0.3034 -0.4078 -0.4333
25070SOL    HW185524  11.615   0.665   0.882  1.3148 -0.3853  1.0429
25070SOL    HW285525  11.719   0.638   0.775 -1.7498 -0.4964 -2.0879
25071SOL     OW85526   1.213   4.971   0.613 -0.4569 -0.3564  0.4338
25071SOL    HW185527   1.118   4.960   0.616 -0.5557  0.4908  0.6765
25071SOL    HW285528   1.236   4.952   0.522 -0.7704 -1.1854  0.5219
25072SOL     OW85529   9.745   0.676   3.948  0.1043 -0.4509  0.6484
25072SOL    HW185530   9.817   0.643   3.895  0.1151 -0.3021  0.5722
25072SOL    HW285531   9.680   0.707   3.885  0.4178  0.3737  0.7299
25073SOL     OW85532  10.653   5.659   6.130  0.3110  0.8445  0.1755
25073SOL    HW185533  10.558   5.672   6.124  0.5838  2.2972 -3.3918
25073SOL    HW285534  10.672   5.593   6.064  1.8168  0.6606  0.7626
25074SOL     OW85535   9.700   0.331   8.889 -0.0221 -0.3377 -0.1007
25074SOL    HW185536   9.754   0.253   8.907 -0.5193 -0.4787  0.8786
25074SOL    HW285537   9.646   0.340   8.967 -0.5256  0.5441 -0.5430
25075SOL     OW85538   4.244   1.689   2.650 -0.7198 -0.7162 -0.0740
25075SOL    HW185539   4.196   1.704   2.568  0.0022  0.6930 -0.2741
25075SOL    HW285540   4.202   1.747   2.714 -2.0171 -2.6446  0.8896
25076SOL     OW85541  10.914   2.464   2.005 -0.4856 -0.2023  0.0615
25076SOL    HW185542  10.979   2.504   1.947 -1.2202 -0.7549 -1.1863
25076SOL    HW285543  10.965   2.423   2.075  0.3266  2.8565  1.4331
25077SOL     OW85544   4.839   7.997  11.926  0.1371  0.1560 -0.0767
25077SOL    HW185545   4.925   8.022  11.891 -0.3972 -1.2841 -2.6687
25077SOL    HW285546   4.788   8.078  11.925  0.5394  0.4087 -1.5698
25078SOL     OW85547   3.961   7.941  12.567  0.4035  0.1647 -0.8719
25078SOL    HW185548   4.009   7.977  12.642  2.8606  0.3471 -2.4262
25078SOL    HW285549   3.884   7.899  12.606  0.9703  1.2568  1.6215
25079SOL     OW85550   8.348  10.319   9.840  0.5836  0.2810 -0.1470
25079SOL    HW185551   8.436  10.352   9.821  1.1823 -0.8195  0.5592
25079SOL    HW285552   8.300  10.329   9.758  0.2822  4.0462  0.3254
25080SOL     OW85553   9.992   5.450   5.782 -0.6309 -0.3574  0.1915
25080SOL    HW185554   9.998   5.434   5.688  2.4642 -0.7936  0.3562
25080SOL    HW285555   9.914   5.402   5.810  1.3392 -5.0970 -1.3658
25081SOL     OW85556  10.369   0.131   4.765  0.1254 -0.3181 -0.1761
25081SOL    HW185557  10.280   0.130   4.728 -0.0001  0.1836  0.0978
25081SOL    HW285558  10.396   0.039   4.766 -0.5390 -0.5144  0.1028
25082SOL     OW85559   6.951   2.177  10.400  0.0771  0.2909  0.1273
25082SOL    HW185560   6.862   2.161  10.369 -0.4176  0.0612  1.6241
25082SOL    HW285561   6.969   2.268  10.375 -0.6271  0.3843 -0.0647
25083SOL     OW85562   6.122   6.730  10.441 -0.2808  0.2835 -0.6424
25083SOL    HW185563   6.115   6.822  10.465  2.3669  0.0401  1.5538
25083SOL    HW285564   6.198   6.727  10.382  1.3735 -0.7060  1.3973
25084SOL     OW85565  11.542  12.563   0.956 -0.0599  0.7834  0.2005
25084SOL    HW185566  11.621  12.509   0.951 -0.7626 -0.2083 -0.6914
25084SOL    HW285567  11.530  12.580   1.050 -1.1290 -2.6869  0.8577
25085SOL     OW85568   8.411   6.333  11.615 -0.4571  0.3818  0.3169
25085SOL    HW185569   8.443   6.292  11.696  1.4587  0.2946 -0.4252
25085SOL    HW285570   8.417   6.427  11.633 -0.2868  0.3596  0.3868
25086SOL     OW85571  12.664  11.283  10.055 -0.6349 -0.1992  0.7153
25086SOL    HW185572  12.662  11.191  10.081  1.0338 -0.8325 -1.1566
25086SOL    HW285573  12.756  11.307  10.060 -0.7309  0.6714 -1.0145
25087SOL     OW85574  11.036   3.376  11.008  0.0770 -0.1457 -0.6413
25087SOL    HW185575  11.065   3.293  11.046 -0.0085 -0.8806 -2.1040
25087SOL    HW285576  11.116   3.420  10.982  0.2580  1.1680  1.8811
25088SOL     OW85577   5.740  11.970   4.383  0.3315  0.7906  0.4885
25088SOL    HW185578   5.750  11.990   4.290 -0.4550  0.1798  0.2630
25088SOL    HW285579   5.657  12.012   4.407 -0.1175 -0.1414  0.5953
25089SOL     OW85580  11.227  11.073  12.120 -0.1669  0.1850 -0.4747
25089SOL    HW185581  11.217  11.051  12.028 -0.7279 -1.2114 -0.0947
25089SOL    HW285582  11.144  11.049  12.160  0.6282 -0.7381  0.6859
25090SOL     OW85583   2.950   0.999   3.698 -0.8819 -0.0396 -0.0622
25090SOL    HW185584   2.892   0.943   3.646 -2.0606 -0.2681  1.4091
25090SOL    HW285585   3.016   0.939   3.732 -0.8501 -0.1283 -0.2817
25091SOL     OW85586   2.163  10.128   9.896  0.1438  0.2927  0.1746
25091SOL    HW185587   2.167  10.220   9.922  1.9647 -0.0949  1.4586
25091SOL    HW285588   2.205  10.081   9.969  2.4087 -1.2306 -1.9593
25092SOL     OW85589  11.464   2.643   7.491 -0.8833 -0.4124  0.6172
25092SOL    HW185590  11.491   2.601   7.409  2.6186 -2.4828  2.5825
25092SOL    HW285591  11.369   2.655   7.482 -0.9382 -2.2019 -2.9806
25093SOL     OW85592   1.994   4.457   4.785 -0.5144  0.3495 -0.6216
25093SOL    HW185593   1.973   4.439   4.694 -1.7273 -0.3312 -0.2220
25093SOL    HW285594   1.913   4.441   4.833  0.3811 -0.4006  0.7206
25094SOL     OW85595   5.251   2.410   9.808  0.1112  0.1623 -0.2197
25094SOL    HW185596   5.302   2.491   9.808  0.8009 -0.2177 -1.9568
25094SOL    HW285597   5.160   2.439   9.805  0.3189  0.8711  0.2185
25095SOL     OW85598   7.198  11.887   6.992 -0.0009 -0.0122  0.2434
25095SOL    HW185599   7.219  11.830   7.066  1.8405  0.0104 -0.1950
25095SOL    HW285600   7.274  11.878   6.934 -0.7723  1.0494 -0.9668
25096SOL     OW85601  12.587   6.461  12.470  0.4225 -0.5336  0.6160
25096SOL    HW185602  12.642   6.384  12.485 -0.8785 -1.3919  1.1129
25096SOL    HW285603  12.564   6.492  12.558 -0.0447 -0.2994  0.4151
25097SOL     OW85604   1.984   8.191   3.136  0.3909 -0.2407 -0.3624
25097SOL    HW185605   2.014   8.102   3.158 -0.2602 -0.6063 -0.9358
25097SOL    HW285606   2.063   8.235   3.104  0.5777 -0.8312 -0.7343
25098SOL     OW85607  11.331   4.274   9.954  0.1676  0.2321 -0.1794
25098SOL    HW185608  11.268   4.300   9.886 -2.0588 -2.0282  0.8012
25098SOL    HW285609  11.289   4.300  10.036  0.8799 -0.6351  0.4740
25099SOL     OW85610   7.044   9.322   7.415 -0.1670  0.1633 -0.3480
25099SOL    HW185611   6.968   9.267   7.429  0.1700 -0.0137  0.9553
25099SOL    HW285612   7.017   9.385   7.348 -0.8673 -0.9741 -1.1627
25100SOL     OW85613   2.482   7.467  10.580  0.2464 -0.2695 -0.2813
25100SOL    HW185614   2.426   7.522  10.525  0.2434 -0.0135 -0.0255
25100SOL    HW285615   2.556   7.524  10.602 -0.7365  0.3531  1.6800
25101SOL     OW85616   2.988   7.319   7.876 -0.3160 -0.6867  0.0294
25101SOL    HW185617   3.023   7.245   7.827  0.5650 -0.4100  0.2160
25101SOL    HW285618   2.974   7.285   7.964 -0.8884 -0.9035 -0.1459
25102SOL     OW85619   1.390   8.124   6.952 -0.3797  0.1090  0.0168
25102SOL    HW185620   1.414   8.138   6.860 -0.9856 -1.2552 -0.3778
25102SOL    HW285621   1.333   8.047   6.950  0.8514 -0.9170  1.7084
25103SOL     OW85622   2.201   6.853   1.611  0.1195 -0.1990  0.2255
25103SOL    HW185623   2.288   6.877   1.642 -0.2808  1.8513 -0.0832
25103SOL    HW285624   2.206   6.863   1.516 -0.7288  0.9707  0.2905
25104SOL     OW85625  12.505   3.515  12.017  0.2428 -0.0298  0.0548
25104SOL    HW185626  12.443   3.457  12.062 -0.4963 -0.4922 -1.4946
25104SOL    HW285627  12.549   3.458  11.954  1.5830  0.5069  0.4828
25105SOL     OW85628   5.054   1.101   8.442  0.0502 -0.7833 -0.2113
25105SOL    HW185629   5.087   1.188   8.419 -1.0705 -0.0919  0.6860
25105SOL    HW285630   5.102   1.042   8.384  0.8141  0.4233 -0.8736
25106SOL     OW85631   3.476   0.224   3.562 -0.0588  0.4067  0.5304
25106SOL    HW185632   3.425   0.177   3.628 -0.1517  1.3011  1.1036
25106SOL    HW285633   3.414   0.243   3.492  0.0420 -0.5474  0.1640
25107SOL     OW85634   4.645  12.738   2.565 -0.1707  0.3754  0.3003
25107SOL    HW185635   4.620  12.649   2.589  0.2093  0.4073  0.8438
25107SOL    HW285636   4.740  12.741   2.580  0.2509  0.1521 -2.0088
25108SOL     OW85637   0.574   5.666   3.702 -0.3790 -0.7676 -0.0415
25108SOL    HW185638   0.490   5.682   3.657 -0.8211 -2.2587  0.2035
25108SOL    HW285639   0.568   5.718   3.781 -1.3830 -1.3579  0.2952
25109SOL     OW85640   8.675  10.233   7.898  0.5997  0.5117  0.2149
25109SOL    HW185641   8.724  10.303   7.855 -0.0573  1.5788  1.1571
25109SOL    HW285642   8.589  10.234   7.857  1.1142 -0.9480 -0.9981
25110SOL     OW85643   8.119   4.377   3.964  0.1863  0.2149  0.7014
25110SOL    HW185644   8.077   4.437   3.902  0.6956 -0.3387 -0.2079
25110SOL    HW285645   8.119   4.424   4.047 -0.6671  0.9115  0.3203
25111SOL     OW85646   5.231  10.309   8.309 -0.0769 -0.2744 -0.2348
25111SOL    HW185647   5.197  10.343   8.391 -1.2035 -1.1704 -0.3101
25111SOL    HW285648   5.183  10.357   8.241  1.4788  1.1033 -0.4160
25112SOL     OW85649   1.621   7.419   7.612  0.0905  0.0274  0.0438
25112SOL    HW185650   1.691   7.413   7.677  1.2732 -0.3259 -1.2062
25112SOL    HW285651   1.549   7.463   7.658  1.1636  0.5142  1.3314
25113SOL     OW85652   5.398   1.768   5.738 -0.7343  0.4138  0.1546
25113SOL    HW185653   5.338   1.833   5.774 -1.2319 -0.4226  0.8847
25113SOL    HW285654   5.351   1.685   5.746  0.2677 -0.1751  0.1489
25114SOL     OW85655   5.822   6.219  10.560  0.0509  0.0531 -0.0558
25114SOL    HW185656   5.848   6.220  10.652 -0.9456 -1.1283  0.2740
25114SOL    HW285657   5.836   6.308  10.530  2.8720 -0.1192  0.4868
25115SOL     OW85658   0.809   4.328   0.715 -0.0656 -0.6292 -0.0095
25115SOL    HW185659   0.851   4.254   0.672  0.9255 -0.6876  1.0335
25115SOL    HW285660   0.720   4.298   0.734 -0.1366 -1.0161 -0.9211
25116SOL     OW85661   1.594   8.961   2.949 -0.5983 -0.2711  0.1252
25116SOL    HW185662   1.564   8.882   2.993 -0.4768 -0.1599  0.4109
25116SOL    HW285663   1.679   8.938   2.912  0.1002  0.1313  1.4142
25117SOL     OW85664   9.873  11.923   3.473  0.0178  0.2474  0.0044
25117SOL    HW185665   9.871  11.989   3.404  1.9987  0.8066  0.4123
25117SOL    HW285666   9.831  11.964   3.548 -1.2107  0.0166 -0.5376
25118SOL     OW85667   4.830   8.218  12.552 -0.0800 -0.4600  0.0305
25118SOL    HW185668   4.784   8.135  12.564 -0.2525 -0.2606  0.7624
25118SOL    HW285669   4.831   8.258  12.638  0.8016 -0.1091 -0.1334
25119SOL     OW85670  11.829   3.420   2.722  0.0159 -0.7842 -0.3855
25119SOL    HW185671  11.761   3.352   2.717 -2.9752  1.9777 -0.6926
25119SOL    HW285672  11.874   3.403   2.805 -1.7425 -2.1691  0.3545
25120SOL     OW85673   1.030   4.658  12.240 -0.2858  0.1405  0.2192
25120SOL    HW185674   1.038   4.635  12.147  0.6744  2.0092 -0.2028
25120SOL    HW285675   0.951   4.713  12.244  0.9365  1.9882  0.0491
25121SOL     OW85676   4.875   1.138   9.889 -0.0710 -0.0241 -0.3954
25121SOL    HW185677   4.892   1.225   9.924 -0.1105 -0.4854  0.8363
25121SOL    HW285678   4.957   1.113   9.847  0.4099  0.0698  0.4546
25122SOL     OW85679   0.703   6.599   1.951 -0.8765 -0.1737 -0.4079
25122SOL    HW185680   0.723   6.534   2.018 -4.1879  0.0234  0.9955
25122SOL    HW285681   0.711   6.683   1.996 -0.6129  0.1306 -1.0132
25123SOL     OW85682   2.140   5.233   8.182 -0.0813 -0.3998 -0.0883
25123SOL    HW185683   2.128   5.174   8.107  1.9023  0.6818 -1.3453
25123SOL    HW285684   2.151   5.320   8.143 -1.3018  0.5927  1.6326
25124SOL     OW85685   2.775   1.291   0.431  0.0397  0.7074  0.2347
25124SOL    HW185686   2.685   1.309   0.459 -0.7773 -2.4982 -0.0088
25124SOL    HW285687   2.786   1.343   0.352 -2.3168 -0.2523 -0.8108
25125SOL     OW85688  12.586   6.114   6.929  0.1151 -0.9889  0.4051
25125SOL    HW185689  12.505   6.156   6.959  1.3224  2.4461 -0.7429
25125SOL    HW285690  12.556   6.032   6.889 -2.9504  0.5908 -0.8911
25126SOL     OW85691  11.405  11.142   8.348 -0.0759  0.7013 -0.1388
25126SOL    HW185692  11.317  11.113   8.371  0.0950  1.7379  2.0695
25126SOL    HW285693  11.392  11.227   8.306 -0.1860  0.2206 -1.1095
25127SOL     OW85694   4.430   6.951   8.400  0.6674  0.1334  0.4903
25127SOL    HW185695   4.417   6.908   8.316  0.7858  0.7566  0.1489
25127SOL    HW285696   4.525   6.946   8.414  0.4095 -2.4685  1.9416
25128SOL     OW85697   3.537  12.703   8.489  0.1184 -0.3037 -0.0818
25128SOL    HW185698   3.597  12.693   8.563 -0.4340  1.8326  0.7276
25128SOL    HW285699   3.515  12.796   8.488 -0.8153 -0.4801 -2.2409
25129SOL     OW85700  12.684   8.812  11.416  0.0988 -0.0686  0.1466
25129SOL    HW185701  12.608   8.792  11.471  0.3241  1.6698  1.1665
25129SOL    HW285702  12.648   8.861  11.342  0.2376  0.9270  0.7317
25130SOL     OW85703   9.333  11.901  11.556  0.3657  0.0880 -0.2730
25130SOL    HW185704   9.352  11.821  11.508  0.3088 -0.2930  0.3225
25130SOL    HW285705   9.324  11.969  11.489  0.7510 -0.3390 -0.7564
25131SOL     OW85706   5.218   9.919  10.085 -0.0930 -0.4143  0.1705
25131SOL    HW185707   5.253   9.914  10.174 -1.5491  1.5570  0.9163
25131SOL    HW285708   5.123   9.906  10.096 -0.2850 -0.1971 -1.1024
25132SOL     OW85709   1.434   4.869   1.367  0.0926  0.4109 -0.3663
25132SOL    HW185710   1.353   4.817   1.370 -0.1099  0.5273 -2.2254
25132SOL    HW285711   1.493   4.817   1.312  1.2113  0.4449  0.7785
25133SOL     OW85712   4.020   6.906   4.445  0.6965 -0.1331 -0.1243
25133SOL    HW185713   3.982   6.820   4.466  0.6864 -0.1052 -0.0258
25133SOL    HW285714   3.968   6.968   4.497 -0.4233  0.1146 -1.4962
25134SOL     OW85715   6.243  12.932   5.583 -0.1321  0.3834 -0.1196
25134SOL    HW185716   6.220  12.854   5.532 -0.5340  0.9690 -0.8673
25134SOL    HW285717   6.314  12.972   5.533 -1.0821  1.4058 -0.6824
25135SOL     OW85718   5.229   9.813   5.205 -0.6124 -0.0765 -0.4641
25135SOL    HW185719   5.318   9.830   5.174 -0.8260  0.5805 -0.7267
25135SOL    HW285720   5.196   9.746   5.144 -0.7890  0.7081 -1.2574
25136SOL     OW85721   3.836   4.461   6.432  0.0309 -0.0787 -0.0911
25136SOL    HW185722   3.850   4.507   6.515  0.1697  1.1490 -0.7690
25136SOL    HW285723   3.763   4.402   6.450 -0.0539  0.2906  0.8638
25137SOL     OW85724   4.337   0.127   5.079 -0.4445 -0.1230  0.2343
25137SOL    HW185725   4.271   0.189   5.050 -2.2701 -2.2295 -0.3861
25137SOL    HW285726   4.291   0.069   5.139  1.1298 -0.9940  0.6477
25138SOL     OW85727   8.219   6.150   5.142  0.1714  0.2493 -0.0403
25138SOL    HW185728   8.129   6.138   5.113  0.6530  0.9560 -2.0348
25138SOL    HW285729   8.232   6.085   5.211 -1.1947 -1.3916 -1.2456
25139SOL     OW85730  12.609   5.630  12.060  0.1437 -0.5618  0.3421
25139SOL    HW185731  12.581   5.541  12.039 -3.3572  0.1466  1.2146
25139SOL    HW285732  12.561   5.685  11.998 -0.1374  0.8368  1.7302
25140SOL     OW85733   7.703   1.333   4.357 -0.6173 -0.0665 -0.3958
25140SOL    HW185734   7.769   1.327   4.289  0.5203 -0.6723  0.7257
25140SOL    HW285735   7.751   1.360   4.435 -1.7917  0.0622  0.3122
25141SOL     OW85736   4.206   3.213   9.352  0.0159  0.1508 -0.0668
25141SOL    HW185737   4.146   3.276   9.313 -0.4839 -0.7126 -0.7258
25141SOL    HW285738   4.191   3.220   9.446 -1.4362 -0.3478 -0.2415
25142SOL     OW85739  12.152   6.214   3.906  0.0149  0.4174  0.8107
25142SOL    HW185740  12.205   6.149   3.861 -0.1852  0.7548  0.0587
25142SOL    HW285741  12.214   6.283   3.930 -0.2151  1.3261 -1.0381
25143SOL     OW85742   4.422   7.947   0.423 -0.6624 -0.1665 -0.1002
25143SOL    HW185743   4.485   7.982   0.485  0.3649 -1.2847 -0.4690
25143SOL    HW285744   4.439   7.994   0.341 -0.8223  0.0603 -0.0044
25144SOL     OW85745  10.861   1.051   3.563 -0.9031 -0.5890  0.5371
25144SOL    HW185746  10.841   1.064   3.656 -2.1922  0.4727  0.1365
25144SOL    HW285747  10.782   1.077   3.517  0.3158  0.6745 -0.9776
25145SOL     OW85748   0.473   3.297  12.985 -0.2001 -0.4767  0.6793
25145SOL    HW185749   0.411   3.301  13.057 -1.0389  0.5901 -0.0694
25145SOL    HW285750   0.558   3.281  13.027 -0.5009  1.1205  1.9956
25146SOL     OW85751   1.344   6.876   0.100 -0.5529  0.0994 -0.1241
25146SOL    HW185752   1.302   6.852   0.017 -0.1407 -1.6160  0.1250
25146SOL    HW285753   1.431   6.836   0.094 -0.6937 -0.4699  1.3233
25147SOL     OW85754   5.431   2.277   7.342  0.5228 -0.0793  0.0364
25147SOL    HW185755   5.496   2.215   7.308 -0.3732 -0.6113 -0.7633
25147SOL    HW285756   5.351   2.226   7.350  0.1020  0.6557  0.6594
25148SOL     OW85757   4.118   6.610   1.491  0.1470 -0.3935  0.2865
25148SOL    HW185758   4.078   6.528   1.521  1.0361 -0.9236  0.0378
25148SOL    HW285759   4.133   6.660   1.571 -0.8974 -0.2292  0.3968
25149SOL     OW85760   8.173   2.648   6.415  0.0787 -0.0055 -0.5387
25149SOL    HW185761   8.175   2.690   6.500  0.3049 -0.5019 -0.2949
25149SOL    HW285762   8.223   2.706   6.358  2.9813 -1.3619  0.4646
25150SOL     OW85763   1.380   3.683   7.737 -0.4117  0.2301 -0.7012
25150SOL    HW185764   1.415   3.745   7.801 -0.1380  0.0503 -0.6753
25150SOL    HW285765   1.352   3.738   7.663 -1.7214  0.5459  0.0005
25151SOL     OW85766  12.756   8.671   2.892 -0.0265  0.0556  0.4134
25151SOL    HW185767  12.766   8.678   2.987  0.3252  1.4295  0.3021
25151SOL    HW285768  12.832   8.718   2.856 -0.3028 -0.1947 -0.5457
25152SOL     OW85769   0.397  10.844   4.831  0.9798 -0.1297  0.5333
25152SOL    HW185770   0.349  10.926   4.820 -0.5274 -1.1052 -0.6933
25152SOL    HW285771   0.407  10.834   4.925 -1.7509 -0.0856  0.9230
25153SOL     OW85772   9.905   0.222   1.440 -0.2423  0.4157  0.3704
25153SOL    HW185773   9.813   0.205   1.421 -0.0005  2.5538 -3.9309
25153SOL    HW285774   9.906   0.310   1.478  0.0235  0.0929  1.1330
25154SOL     OW85775   5.694   2.409   2.871  0.2434  0.5057  0.1140
25154SOL    HW185776   5.686   2.503   2.858 -1.0666  0.6951  1.8021
25154SOL    HW285777   5.788   2.392   2.874  0.5365  1.3713 -2.4210
25155SOL     OW85778   2.632   8.666   2.538 -0.3414  0.0188  0.1477
25155SOL    HW185779   2.647   8.575   2.562  1.2874 -0.2636 -1.7172
25155SOL    HW285780   2.707   8.690   2.484 -1.4567  2.0175 -0.6387
25156SOL     OW85781   3.431   6.497   1.827 -0.4978 -0.0300  0.4977
25156SOL    HW185782   3.518   6.527   1.852  0.7732 -2.2664 -0.9481
25156SOL    HW285783   3.419   6.528   1.738 -0.3110 -1.3942 -0.0256
25157SOL     OW85784   0.039   1.325   4.533  0.7470  0.4629 -0.2443
25157SOL    HW185785   0.113   1.346   4.476 -0.7435  0.7723 -2.1416
25157SOL    HW285786   0.028   1.230   4.523 -1.0239  0.8272 -2.5065
25158SOL     OW85787   7.605   0.140   4.315  0.0308  0.1531  0.6795
25158SOL    HW185788   7.699   0.152   4.331  0.3042  2.3204 -1.8148
25158SOL    HW285789   7.599   0.055   4.272  1.2429  0.9226 -1.1652
25159SOL     OW85790   2.130   7.134   5.702 -0.3813  0.4781 -0.0007
25159SOL    HW185791   2.127   7.041   5.725 -1.4515  0.3778 -0.4770
25159SOL    HW285792   2.195   7.171   5.761  0.1937 -0.6015  0.0761
25160SOL     OW85793   7.477   4.802   2.798 -0.6008  0.2231 -0.6595
25160SOL    HW185794   7.476   4.778   2.891  0.3980  1.1176 -0.4121
25160SOL    HW285795   7.559   4.849   2.785 -0.2288 -0.7787 -2.2370
25161SOL     OW85796  12.072   7.499   9.705  0.1309 -0.1482 -0.0053
25161SOL    HW185797  11.994   7.554   9.714 -0.4021 -1.0774  1.1331
25161SOL    HW285798  12.143   7.562   9.690 -0.7490  0.7336 -0.5982
25162SOL     OW85799  10.592   5.019   5.346 -0.2689 -1.2110 -0.3992
25162SOL    HW185800  10.569   4.967   5.423 -0.2468 -1.7030 -0.7177
25162SOL    HW285801  10.639   4.958   5.289  0.4813 -0.6216 -0.4291
25163SOL     OW85802   3.529  11.457   4.117 -0.1249 -0.3538 -0.1254
25163SOL    HW185803   3.479  11.459   4.199 -0.3658 -1.9884 -0.2035
25163SOL    HW285804   3.463  11.471   4.049  0.3429  3.1435 -0.0350
25164SOL     OW85805  10.018   8.031   8.808  0.5128  0.1562 -0.0454
25164SOL    HW185806  10.071   8.110   8.801  0.5356  0.0076 -2.9697
25164SOL    HW285807   9.931   8.058   8.776  0.1635 -0.7115  0.1374
25165SOL     OW85808   5.648   3.617   7.263  0.4925  0.2846  0.4827
25165SOL    HW185809   5.718   3.646   7.205  0.4682 -0.6145 -0.0247
25165SOL    HW285810   5.631   3.692   7.320 -0.0101  1.4816 -1.1596
25166SOL     OW85811   9.142   8.540   4.912  0.4263 -0.0159  0.4994
25166SOL    HW185812   9.125   8.470   4.848  1.1310 -0.4573  0.7749
25166SOL    HW285813   9.146   8.620   4.860 -0.2532 -0.1990  0.1597
25167SOL     OW85814  10.734   8.772   6.812  0.0418 -0.0235 -0.1083
25167SOL    HW185815  10.749   8.678   6.820  0.6065  0.1166  0.5511
25167SOL    HW285816  10.642   8.779   6.788  0.4391 -0.8163 -2.0422
25168SOL     OW85817   1.329   9.264   6.735 -0.0628 -0.3084 -0.4925
25168SOL    HW185818   1.376   9.326   6.679 -0.5253  1.1176  0.6288
25168SOL    HW285819   1.394   9.197   6.756  0.9629  0.6715 -0.4153
25169SOL     OW85820   5.552  11.390   7.480  0.3510  0.4884  0.0492
25169SOL    HW185821   5.600  11.434   7.410  0.3914  1.4367  0.6488
25169SOL    HW285822   5.465  11.430   7.477  0.1569  0.0741  0.1328
25170SOL     OW85823   6.147  10.741   4.502 -0.2483  0.6361 -0.4615
25170SOL    HW185824   6.172  10.701   4.419 -0.4373 -0.4942  0.0127
25170SOL    HW285825   6.062  10.702   4.523 -0.6111  1.5728 -0.1655
25171SOL     OW85826   0.972   7.329   3.216  0.2177  0.6613  0.2159
25171SOL    HW185827   0.964   7.376   3.299 -1.6720  0.9184 -0.0633
25171SOL    HW285828   1.015   7.247   3.239 -1.4701  0.1303  1.7410
25172SOL     OW85829   9.416   3.975   1.149 -0.0520 -0.7919  0.1256
25172SOL    HW185830   9.394   3.987   1.242  0.7633  0.2891  0.1973
25172SOL    HW285831   9.380   4.051   1.105 -1.1919 -1.7221 -0.6114
25173SOL     OW85832   8.081  11.873   0.367 -0.3041 -0.1074 -0.1030
25173SOL    HW185833   8.039  11.800   0.414 -0.5294  1.2762  1.9401
25173SOL    HW285834   8.086  11.842   0.276 -1.2854 -2.2684  0.5015
25174SOL     OW85835   3.007   1.768   5.577 -0.2616 -0.1261 -0.1149
25174SOL    HW185836   3.097   1.735   5.571 -0.5628 -0.8830 -0.7430
25174SOL    HW285837   3.016   1.863   5.570  0.5892 -0.0807  1.1748
25175SOL     OW85838   2.178   5.543   6.779 -0.3853 -0.4015 -0.2382
25175SOL    HW185839   2.107   5.574   6.723  0.0252  0.1595 -0.4680
25175SOL    HW285840   2.197   5.618   6.836  0.4633 -0.2974 -0.6373
25176SOL     OW85841  11.193   9.522   3.191 -0.3002 -0.2457  0.1711
25176SOL    HW185842  11.231   9.580   3.257  1.4212  0.6063 -1.4662
25176SOL    HW285843  11.242   9.440   3.199 -0.4828 -0.3459  0.2935
25177SOL     OW85844   4.767   0.285   7.784 -0.3125  0.4770 -0.4065
25177SOL    HW185845   4.844   0.266   7.729 -0.1221 -0.5658  0.1994
25177SOL    HW285846   4.804   0.312   7.868 -0.5952  2.5333 -0.8979
25178SOL     OW85847   9.218   9.130  10.805  0.0763 -0.5765 -0.0727
25178SOL    HW185848   9.276   9.193  10.847 -0.2391 -0.7904  0.7106
25178SOL    HW285849   9.130   9.162  10.825 -0.0795 -0.8421 -0.3290
25179SOL     OW85850   0.903   6.437   8.745 -0.4996  0.1120 -0.7436
25179SOL    HW185851   0.969   6.392   8.797 -1.0289  0.0157 -0.1334
25179SOL    HW285852   0.912   6.401   8.657  0.8740  0.7747 -0.8906
25180SOL     OW85853   1.711   1.672   8.941  0.4575  0.4181 -0.6200
25180SOL    HW185854   1.668   1.706   8.863 -0.7087 -0.4410 -0.3781
25180SOL    HW285855   1.692   1.578   8.939 -0.4489  0.5185  1.1981
25181SOL     OW85856   4.326   1.112   6.398 -0.0502  0.0993 -0.6150
25181SOL    HW185857   4.305   1.205   6.411  1.6795  0.2655  1.5790
25181SOL    HW285858   4.246   1.066   6.425 -0.9638  0.8975 -1.8191
25182SOL     OW85859  11.320  10.977  11.074 -0.2872  0.2984  0.1017
25182SOL    HW185860  11.331  10.993  10.980  1.7854 -1.5636 -0.0739
25182SOL    HW285861  11.368  11.049  11.116  1.4651 -0.5221 -0.3997
25183SOL     OW85862  11.447   3.266   9.701  0.7395  0.4324  0.0000
25183SOL    HW185863  11.382   3.216   9.750  0.7224  1.3768  0.9697
25183SOL    HW285864  11.450   3.224   9.615  1.0821 -1.5323  0.9277
25184SOL     OW85865   3.146   1.666   3.222 -0.4918  0.6294 -0.1767
25184SOL    HW185866   3.188   1.704   3.145  1.6004  0.9401  1.0427
25184SOL    HW285867   3.187   1.579   3.232 -0.1470  0.8953  0.9771
25185SOL     OW85868   7.699   6.900   8.517 -0.5318 -0.4374 -0.1160
25185SOL    HW185869   7.685   6.887   8.424 -3.7667  0.8966  0.0582
25185SOL    HW285870   7.640   6.838   8.560 -0.1829 -0.0209  1.0093
25186SOL     OW85871   7.020   2.736   9.313 -0.5159  0.0123 -0.6116
25186SOL    HW185872   7.105   2.692   9.320 -1.8608 -2.8712 -0.5786
25186SOL    HW285873   6.970   2.679   9.253 -2.2705  1.8821 -1.0120
25187SOL     OW85874  12.852   7.137   0.359 -0.0714 -0.6210 -0.2297
25187SOL    HW185875  12.894   7.167   0.439 -3.3510  1.6864  0.8510
25187SOL    HW285876  12.818   7.050   0.381 -2.4484  0.6704  1.6641
25188SOL     OW85877   3.541   3.772  11.211  0.5139  0.3265 -0.2334
25188SOL    HW185878   3.496   3.687  11.214 -3.2611  2.0756 -0.9040
25188SOL    HW285879   3.553   3.789  11.118  0.3474  0.9263 -0.1489
25189SOL     OW85880   2.492   7.081   6.957 -0.6167  0.5945  0.3597
25189SOL    HW185881   2.466   7.067   6.866 -1.6997  0.1150  0.7236
25189SOL    HW285882   2.540   7.164   6.956 -1.1471  0.9035 -0.5425
25190SOL     OW85883   0.060   7.436   4.402  0.1787 -0.4662 -0.9717
25190SOL    HW185884   0.154   7.440   4.420  0.1441 -0.0433 -0.8787
25190SOL    HW285885   0.043   7.343   4.384 -0.0236 -1.2495  2.5157
25191SOL     OW85886   1.213   3.819   2.390 -0.0702 -0.4797  0.4337
25191SOL    HW185887   1.192   3.767   2.467 -0.2964 -1.7939 -0.4894
25191SOL    HW285888   1.301   3.854   2.408 -0.5391  0.1091  1.7190
25192SOL     OW85889   6.860   4.839   4.397 -0.3334 -0.1705 -0.7314
25192SOL    HW185890   6.826   4.796   4.476  0.1020 -1.5261 -1.2659
25192SOL    HW285891   6.945   4.797   4.381  0.0342  0.7755 -1.3796
25193SOL     OW85892   1.919   0.885   1.263 -0.1087  0.0564  0.6131
25193SOL    HW185893   1.892   0.974   1.242 -3.3905 -1.3864 -2.2818
25193SOL    HW285894   2.002   0.873   1.217  0.2836  1.5191  0.9015
25194SOL     OW85895   1.484  10.674   6.245  0.1056  0.1902 -0.1029
25194SOL    HW185896   1.461  10.643   6.158 -0.7289 -2.6006  0.9884
25194SOL    HW285897   1.561  10.622   6.269  0.5858  1.2214  0.6899
25195SOL     OW85898   0.589   1.841   2.775  0.0699 -0.2802  0.1716
25195SOL    HW185899   0.669   1.802   2.809  0.5130  0.3149 -0.1753
25195SOL    HW285900   0.618   1.921   2.730 -0.5997 -0.5334 -0.7498
25196SOL     OW85901   5.353   3.039   5.065  0.0061 -0.1211  0.6560
25196SOL    HW185902   5.445   3.042   5.088  0.3351 -0.2132 -0.5739
25196SOL    HW285903   5.316   2.970   5.120  0.7418 -0.3230  0.8991
25197SOL     OW85904   0.618  10.286   8.300 -0.4721 -0.1815  0.3559
25197SOL    HW185905   0.682  10.216   8.312 -1.3691 -0.9445  0.7657
25197SOL    HW285906   0.543  10.245   8.258  0.1052  1.1589 -2.1668
25198SOL     OW85907   6.439   6.224   5.446 -0.6142 -0.4255 -0.4088
25198SOL    HW185908   6.404   6.138   5.421  0.2108 -0.5841 -1.0683
25198SOL    HW285909   6.500   6.247   5.376  2.4316 -1.2416  1.7204
25199SOL     OW85910   2.577  11.185   9.718 -0.6965  0.7804  0.5613
25199SOL    HW185911   2.487  11.205   9.745 -0.9676 -1.0346  1.1248
25199SOL    HW285912   2.626  11.180   9.800  0.3654  3.3727  0.2017
25200SOL     OW85913   2.552   4.076   0.292  0.4305  0.1833  0.9068
25200SOL    HW185914   2.515   4.113   0.372 -0.4448  1.5110 -0.0742
25200SOL    HW285915   2.516   3.987   0.287 -1.1026  0.7774  0.9796
25201SOL     OW85916   1.254   9.573   5.169  0.3164 -0.2502  0.0075
25201SOL    HW185917   1.170   9.619   5.164 -0.1972 -1.2211 -0.5159
25201SOL    HW285918   1.268   9.540   5.080  1.3359  0.0337  0.0542
25202SOL     OW85919   6.071  12.535  12.467 -0.1374  0.0940  0.5145
25202SOL    HW185920   6.026  12.526  12.551 -0.3820  0.2071  0.3979
25202SOL    HW285921   6.055  12.626  12.441 -1.0783 -0.2502 -0.2186
25203SOL     OW85922  10.550   0.015   6.977  0.0960  0.3617  0.2017
25203SOL    HW185923  10.544  -0.015   6.887 -1.5330  0.5568  0.2217
25203SOL    HW285924  10.580  -0.062   7.026  1.6241  0.4356 -0.5761
25204SOL     OW85925   1.029  11.192   2.054 -0.3035 -0.1098  0.7744
25204SOL    HW185926   1.121  11.175   2.075  0.4924  2.5991 -0.0633
25204SOL    HW285927   1.004  11.265   2.112 -1.2661  0.5669 -0.4390
25205SOL     OW85928   3.788   1.594  10.641  0.3643  0.3488 -0.2130
25205SOL    HW185929   3.824   1.507  10.624 -1.2101 -0.6173  1.1321
25205SOL    HW285930   3.698   1.578  10.669 -0.2116  2.4761 -0.6677
25206SOL     OW85931  12.150  12.876   1.634  0.4795 -0.5172  0.7867
25206SOL    HW185932  12.096  12.888   1.713  0.2890  1.6140  0.3671
25206SOL    HW285933  12.102  12.921   1.565  1.3776 -1.1152 -0.2512
25207SOL     OW85934   1.386   9.681   6.809  0.1095  0.5046  0.8531
25207SOL    HW185935   1.472   9.721   6.793  1.0591 -1.9073 -0.5393
25207SOL    HW285936   1.385   9.603   6.754 -2.2343 -0.6035  2.3088
25208SOL     OW85937   6.468   0.854  12.427 -0.1060  0.8981 -0.2003
25208SOL    HW185938   6.396   0.889  12.480 -0.7137  0.4362 -0.7113
25208SOL    HW285939   6.479   0.764  12.457 -1.0857  0.3185 -1.4694
25209SOL     OW85940  10.857   0.671   9.746  0.0732  0.4409  0.4215
25209SOL    HW185941  10.832   0.754   9.785  0.9764 -0.0800  2.2258
25209SOL    HW285942  10.941   0.687   9.703 -0.6072  0.8514 -0.8276
25210SOL     OW85943  12.465   0.550  11.171 -0.0376 -0.2674  0.4293
25210SOL    HW185944  12.524   0.475  11.171 -0.6461 -0.7677  1.4794
25210SOL    HW285945  12.407   0.535  11.097  0.8975  0.0451 -0.3912
25211SOL     OW85946   5.315   9.949   3.309  0.0610  0.1449  0.3380
25211SOL    HW185947   5.264   9.937   3.229  2.2257 -1.4317 -0.9123
25211SOL    HW285948   5.381   9.881   3.306  2.4515  2.2189  1.7035
25212SOL     OW85949   1.117   8.209   0.565 -0.6590  0.1171  0.4934
25212SOL    HW185950   1.156   8.276   0.621  1.3706 -0.7457  0.2066
25212SOL    HW285951   1.105   8.253   0.480  0.3117  0.2420  0.4112
25213SOL     OW85952   2.321   8.427   8.237 -0.0506  0.1594 -0.7419
25213SOL    HW185953   2.262   8.414   8.162 -0.5111 -0.2094 -0.3239
25213SOL    HW285954   2.366   8.343   8.245 -1.3426 -0.4509  0.5289
25214SOL     OW85955  12.743   2.789  12.019  0.1375 -0.1856  0.4352
25214SOL    HW185956  12.660   2.815  11.977  0.8354 -1.1356 -1.6428
25214SOL    HW285957  12.789   2.871  12.033  0.0674  0.1350 -1.1112
25215SOL     OW85958   5.658  10.525   4.094  0.1097 -0.0630 -0.1917
25215SOL    HW185959   5.719  10.550   4.024 -0.9430  0.6325 -0.8917
25215SOL    HW285960   5.571  10.530   4.053 -0.5577  0.6553  1.2372
25216SOL     OW85961  11.401   6.692   7.151 -0.0321 -0.0731 -0.0233
25216SOL    HW185962  11.414   6.598   7.159  0.0400  0.0377  1.7707
25216SOL    HW285963  11.481   6.730   7.188 -0.8530  0.6523  1.1023
25217SOL     OW85964  10.120   0.215   6.418  0.1780 -0.1391 -0.0794
25217SOL    HW185965  10.086   0.220   6.329 -0.0121  0.7409  0.0334
25217SOL    HW285966  10.059   0.269   6.470 -0.0515 -1.1160  0.6873
25218SOL     OW85967  11.199  12.364  11.234  0.5755  0.0274  0.3013
25218SOL    HW185968  11.224  12.305  11.163 -1.2855  0.0087 -0.3938
25218SOL    HW285969  11.213  12.451  11.198  0.5564  0.0154  0.2640
25219SOL     OW85970   1.218  12.347  10.458 -0.8609  0.2634  0.1074
25219SOL    HW185971   1.201  12.435  10.426 -3.4968  0.3691  1.5318
25219SOL    HW285972   1.309  12.350  10.488 -0.2519  1.8631 -1.7122
25220SOL     OW85973   3.829   8.616   5.768 -0.3531 -0.2216 -0.3155
25220SOL    HW185974   3.759   8.635   5.706  0.2696 -0.7083 -1.1891
25220SOL    HW285975   3.895   8.569   5.717 -0.2627 -1.5449  0.9424
25221SOL     OW85976   4.881   0.257   1.328  0.1243  0.1701 -0.4262
25221SOL    HW185977   4.935   0.184   1.299 -0.8016 -0.6100 -0.2147
25221SOL    HW285978   4.921   0.286   1.410  0.9788  0.4410 -0.9331
25222SOL     OW85979   7.265   1.943   5.557 -0.4831  0.3566  0.1505
25222SOL    HW185980   7.323   1.977   5.488 -0.9239  0.2936 -0.2560
25222SOL    HW285981   7.314   1.957   5.638 -0.7706  2.2853  0.0488
25223SOL     OW85982   8.145   1.487  12.759 -0.1965  0.0459 -0.0438
25223SOL    HW185983   8.232   1.461  12.791 -0.2766 -1.4072 -0.9096
25223SOL    HW285984   8.151   1.581  12.747  0.8745  0.1453  1.0449
25224SOL     OW85985  12.068   1.931   3.101 -0.1773  0.2272 -0.0290
25224SOL    HW185986  12.136   1.864   3.101 -0.6414 -0.2505  0.2760
25224SOL    HW285987  12.004   1.901   3.036  0.2557  1.0499 -0.8606
25225SOL     OW85988   7.730  11.459   1.310 -0.6811  0.6828 -0.0970
25225SOL    HW185989   7.732  11.510   1.229 -0.2411  1.7091  0.5400
25225SOL    HW285990   7.787  11.384   1.293 -0.6287  0.8623 -0.7434
25226SOL     OW85991  11.043   7.693   7.469  0.1108 -0.5608  0.2920
25226SOL    HW185992  10.973   7.653   7.521  0.4053 -1.0799  0.2972
25226SOL    HW285993  11.040   7.786   7.492  0.6984 -0.8867  1.7961
25227SOL     OW85994   7.880   9.249   4.259  0.0401  0.6338  0.1155
25227SOL    HW185995   7.814   9.217   4.321  0.4780  1.6574  1.1585
25227SOL    HW285996   7.914   9.170   4.217 -1.2091  0.0253  0.2107
25228SOL     OW85997   0.049   7.898   8.517 -0.1433  0.3721  0.5849
25228SOL    HW185998   0.141   7.884   8.538 -0.2048  0.4630  0.9291
25228SOL    HW285999   0.040   7.993   8.510 -0.1508  0.3472  0.2736
25229SOL     OW86000   2.483  12.593   9.415 -0.1702  0.1317 -0.0151
25229SOL    HW186001   2.462  12.686   9.410 -2.3535 -0.3477 -1.0552
25229SOL    HW286002   2.493  12.565   9.324  1.8158 -0.4321  0.3220
25230SOL     OW86003   5.582   9.483   4.852  0.2176 -0.5054  0.2119
25230SOL    HW186004   5.654   9.439   4.898 -0.5796 -3.2228 -0.9548
25230SOL    HW286005   5.613   9.489   4.762  0.0670  0.8760  0.2390
25231SOL     OW86006   8.050   2.555   5.176  0.0110 -1.1133 -0.4202
25231SOL    HW186007   8.130   2.502   5.168  1.5576  0.6962  1.5635
25231SOL    HW286008   8.032   2.585   5.088  1.5886 -1.5295 -0.9277
25232SOL     OW86009   6.635   7.651   7.859  0.1581  0.0016 -0.9958
25232SOL    HW186010   6.606   7.733   7.900 -2.9891 -1.4707  0.0961
25232SOL    HW286011   6.643   7.672   7.766  0.2220  1.7226 -0.6326
25233SOL     OW86012   0.160   8.659   2.998  0.3050 -0.3051  0.0513
25233SOL    HW186013   0.104   8.725   2.958  1.7077  1.5229  0.9678
25233SOL    HW286014   0.187   8.698   3.081  1.7724 -1.7376  0.2861
25234SOL     OW86015   0.927   3.976   6.931  0.0794 -0.2554  0.0864
25234SOL    HW186016   0.839   3.995   6.965 -0.1716 -0.0644 -0.6563
25234SOL    HW286017   0.912   3.918   6.857  0.6237 -0.6875  0.3117
25235SOL     OW86018   9.926  10.083   9.947 -0.8888 -0.2777  0.0500
25235SOL    HW186019   9.872  10.161   9.960 -0.1159  0.0586  1.5053
25235SOL    HW286020   9.997  10.093  10.011 -0.6448 -2.0605  0.0897
25236SOL     OW86021  12.808   0.192  10.534 -0.7958 -0.6226 -0.1708
25236SOL    HW186022  12.833   0.200  10.442  0.9814  1.1018  0.3998
25236SOL    HW286023  12.890   0.201  10.582 -1.7892 -0.7394  1.6291
25237SOL     OW86024  10.475   7.892   1.120 -0.2064  0.5975  0.2255
25237SOL    HW186025  10.402   7.891   1.182  0.0232 -0.5826  0.4897
25237SOL    HW286026  10.488   7.985   1.100 -0.6535  0.9520  1.4962
25238SOL     OW86027   5.738  12.851   9.795 -0.3528 -0.5857 -0.7553
25238SOL    HW186028   5.746  12.944   9.815  0.4843  0.2865 -4.4124
25238SOL    HW286029   5.659  12.844   9.742  0.4212 -1.6689 -1.8214
25239SOL     OW86030   7.292   9.957   0.186  0.9591 -0.1892 -0.2010
25239SOL    HW186031   7.272  10.050   0.193  1.5187 -0.1494  1.3314
25239SOL    HW286032   7.361   9.952   0.121  1.4683  0.5753  0.2583
25240SOL     OW86033   2.207   8.229   8.018 -0.4010 -0.6940  0.3685
25240SOL    HW186034   2.210   8.143   7.976 -0.6087 -0.0807 -0.9673
25240SOL    HW286035   2.216   8.291   7.946  0.1035  0.4137  1.3454
25241SOL     OW86036   4.826   4.079   2.992  0.9027 -0.2440  0.0567
25241SOL    HW186037   4.788   4.126   2.918  1.6684  1.1326  0.5078
25241SOL    HW286038   4.901   4.033   2.956  1.6308  0.9040  0.0564
25242SOL     OW86039  12.307   2.833   5.908  0.5714 -0.2384  0.2122
25242SOL    HW186040  12.289   2.745   5.876 -0.8964  0.1964 -0.2410
25242SOL    HW286041  12.296   2.827   6.003  2.0762 -0.8706  0.3866
25243SOL     OW86042   1.896   2.957   8.069 -0.0561 -0.7089 -0.0157
25243SOL    HW186043   1.836   2.968   8.142 -2.9082  0.2242 -2.2832
25243SOL    HW286044   1.879   2.868   8.037  0.3167 -0.7073 -0.2282
25244SOL     OW86045   1.855  11.402  11.355  0.4387  0.0588 -0.0172
25244SOL    HW186046   1.763  11.389  11.374  0.3649  0.4306 -0.0981
25244SOL    HW286047   1.860  11.492  11.322  0.5053 -0.6008 -1.9782
25245SOL     OW86048   7.434   2.355   6.145 -0.1639 -0.0711  0.5680
25245SOL    HW186049   7.341   2.337   6.132 -0.3637 -0.0923  1.8694
25245SOL    HW286050   7.465   2.383   6.059 -0.9799 -1.7226 -0.3293
25246SOL     OW86051  12.159   0.258   7.304  0.0538 -0.3857  0.2952
25246SOL    HW186052  12.217   0.188   7.274 -0.4486 -0.7264  0.1040
25246SOL    HW286053  12.218   0.325   7.339  0.5120 -1.3056  1.3544
25247SOL     OW86054   9.040   8.279   6.291  0.2917  0.1939  0.0188
25247SOL    HW186055   9.111   8.229   6.249  1.1617  1.0094  0.4702
25247SOL    HW286056   9.065   8.371   6.279 -0.0843  0.4741  1.2111
25248SOL     OW86057   2.588   0.279   0.497 -0.0935 -0.4684  0.4620
25248SOL    HW186058   2.496   0.263   0.518  0.4064 -0.5516  2.8660
25248SOL    HW286059   2.602   0.370   0.521  0.1352  0.0085 -1.3321
25249SOL     OW86060   5.396  10.492   8.526  0.4242  0.2222  0.4198
25249SOL    HW186061   5.489  10.505   8.543  0.1893 -0.6951  2.7560
25249SOL    HW286062   5.380  10.401   8.550 -1.0094  0.2395 -0.3774
25250SOL     OW86063  12.720   8.666   4.767  0.3193 -0.7115  0.5054
25250SOL    HW186064  12.796   8.725   4.762  0.0009 -0.3659 -0.4608
25250SOL    HW286065  12.649   8.721   4.798 -0.4273 -0.0725 -2.0849
25251SOL     OW86066   1.357   5.031   7.533  0.1223 -0.0243 -0.2461
25251SOL    HW186067   1.426   5.023   7.468  0.2886 -0.6527 -0.0037
25251SOL    HW286068   1.385   5.102   7.590 -0.6947  1.4757 -1.6435
25252SOL     OW86069   4.408  11.661  12.568  0.3906  0.0393  0.0498
25252SOL    HW186070   4.434  11.690  12.655  2.0110 -0.4049 -0.2455
25252SOL    HW286071   4.469  11.590  12.547 -0.8979 -0.8677 -0.8686
25253SOL     OW86072   5.609   5.167   7.836 -0.0987 -0.5961  0.1502
25253SOL    HW186073   5.638   5.085   7.797 -0.1370 -0.7068  0.3556
25253SOL    HW286074   5.563   5.212   7.765 -0.4770 -0.9556  0.1609
25254SOL     OW86075  11.058   2.556   8.756 -0.5438  0.8428 -0.0972
25254SOL    HW186076  11.069   2.589   8.845 -1.3367  1.8135 -0.3423
25254SOL    HW286077  11.143   2.519   8.733 -0.8394 -1.2356  1.7713
25255SOL     OW86078   0.702   7.430   1.945 -0.2217 -0.4354 -0.2129
25255SOL    HW186079   0.782   7.399   1.988  1.0816  1.3212 -1.2566
25255SOL    HW286080   0.709   7.396   1.856 -0.5215 -0.0758 -0.3716
25256SOL     OW86081  12.735   1.878   6.852  0.1888 -0.6198 -0.3986
25256SOL    HW186082  12.715   1.946   6.917  0.2508 -1.8894  0.9932
25256SOL    HW286083  12.659   1.820   6.854  0.0871 -0.5671 -1.6599
25257SOL     OW86084  10.173   6.949   6.691 -0.1055 -0.9413 -0.0606
25257SOL    HW186085  10.089   6.907   6.674 -0.4607 -0.2632 -0.0276
25257SOL    HW286086  10.185   6.942   6.785 -0.0697 -1.1325 -0.0785
25258SOL     OW86087   5.142   1.389  10.909  0.0819 -0.1656  0.1018
25258SOL    HW186088   5.221   1.410  10.860  1.0847 -1.5685  1.0762
25258SOL    HW286089   5.169   1.324  10.974 -1.6187  0.1811  1.2349
25259SOL     OW86090  11.759   3.191  12.087 -0.2783  0.1201  0.1152
25259SOL    HW186091  11.770   3.234  12.002  0.1693  0.7199  0.4676
25259SOL    HW286092  11.748   3.098  12.065 -0.7966  0.3462 -0.6280
25260SOL     OW86093  10.328  10.954   8.841 -0.6176  0.5185  0.5499
25260SOL    HW186094  10.244  10.976   8.801 -0.3420 -1.6865 -1.4920
25260SOL    HW286095  10.391  11.013   8.800 -0.7173 -0.0399 -0.4291
25261SOL     OW86096   9.201  11.793  12.007  0.3095 -0.5081  0.0107
25261SOL    HW186097   9.201  11.886  12.032 -4.0635 -0.1556 -0.5455
25261SOL    HW286098   9.213  11.746  12.090  1.6790  0.4734  0.4173
25262SOL     OW86099   9.075  12.914   1.214 -0.2623  0.6698 -0.2310
25262SOL    HW186100   9.117  12.940   1.296  0.5261 -1.0688 -0.0500
25262SOL    HW286101   9.147  12.906   1.152 -0.4488 -1.0681 -0.2615
25263SOL     OW86102   1.284   4.403   9.828  0.3385  0.5028  0.1304
25263SOL    HW186103   1.262   4.471   9.892  1.0899 -0.4899  1.5140
25263SOL    HW286104   1.212   4.340   9.835  1.5840 -0.8526  1.9035
25264SOL     OW86105   0.140   0.985   1.906  0.0654 -0.0907  0.2052
25264SOL    HW186106   0.097   1.039   1.973  0.5729 -0.6425  0.9981
25264SOL    HW286107   0.104   0.898   1.920 -1.0651  0.0926 -1.3443
25265SOL     OW86108  10.105   6.772   3.157  0.1046 -0.2659  0.2090
25265SOL    HW186109  10.027   6.727   3.125 -0.3118  0.6096 -0.0492
25265SOL    HW286110  10.076   6.862   3.173  1.7107  0.9056 -2.6732
25266SOL     OW86111  12.963  12.801   1.879 -0.3812  0.4458  0.1596
25266SOL    HW186112  13.016  12.859   1.824 -0.8085  1.9387  1.2465
25266SOL    HW286113  13.025  12.736   1.911  0.0701  0.1331 -1.2647
25267SOL     OW86114   0.848   9.009  10.294 -0.0183 -0.0920  0.0889
25267SOL    HW186115   0.866   8.991  10.387  1.2195 -0.4324 -0.1967
25267SOL    HW286116   0.804   8.929  10.263  1.1801 -0.7295 -0.0286
25268SOL     OW86117   8.385   2.846   4.860  0.2871 -0.2181 -0.4670
25268SOL    HW186118   8.398   2.854   4.766  1.4890 -0.1138 -0.3144
25268SOL    HW286119   8.474   2.840   4.896 -0.1725 -0.9865  0.5940
25269SOL     OW86120   0.067   5.673   8.676 -0.0865  0.5137  0.7169
25269SOL    HW186121   0.042   5.765   8.688 -1.3929  0.0705  1.5215
25269SOL    HW286122   0.086   5.666   8.583  0.6799  1.7438  0.7465
25270SOL     OW86123  10.035   5.746   2.237 -0.0575 -0.4352 -0.0908
25270SOL    HW186124  10.100   5.752   2.167 -0.6706  0.1946 -0.6183
25270SOL    HW286125   9.951   5.744   2.191 -0.4096 -1.6143  0.5648
25271SOL     OW86126  12.396   3.041   0.189 -0.2941  0.3017 -0.0704
25271SOL    HW186127  12.405   3.120   0.136  0.6621 -0.2666 -0.8002
25271SOL    HW286128  12.446   3.059   0.268  0.1663  0.3378 -0.3622
25272SOL     OW86129  10.958  10.650   7.302  0.4564 -0.2443  0.3385
25272SOL    HW186130  10.886  10.683   7.356  2.1757  2.1272  1.3929
25272SOL    HW286131  10.993  10.575   7.350 -1.2265 -1.3788 -0.1608
25273SOL     OW86132   4.681  10.283   2.110  0.3739  0.7265  0.1349
25273SOL    HW186133   4.611  10.243   2.059 -1.2810  1.8426  1.4167
25273SOL    HW286134   4.636  10.328   2.181  2.4033  1.6453  0.9185
25274SOL     OW86135  12.868  12.605   5.478 -0.3436 -0.0912  0.2219
25274SOL    HW186136  12.876  12.572   5.389 -1.1868 -0.2053  0.1856
25274SOL    HW286137  12.779  12.582   5.505  0.4421 -1.6694  1.7285
25275SOL     OW86138   5.409   4.022   6.512 -0.3310  0.6252 -0.4340
25275SOL    HW186139   5.314   4.034   6.518 -0.1985  1.2509  0.8537
25275SOL    HW286140   5.445   4.088   6.571  0.8100 -1.1581  0.9695
25276SOL     OW86141   6.990   1.144  10.645  0.3568  0.0929  0.2868
25276SOL    HW186142   7.041   1.114  10.720  2.0865 -1.6222 -1.4605
25276SOL    HW286143   7.032   1.225  10.617  2.0904 -1.1672 -0.9735
25277SOL     OW86144   9.458   0.893   3.179  0.1564 -0.0491 -0.4101
25277SOL    HW186145   9.394   0.957   3.147  0.9133  0.6232 -0.6192
25277SOL    HW286146   9.543   0.929   3.151  0.6380 -0.7991  0.0762
25278SOL     OW86147  10.348   1.194   7.306 -0.1178 -0.0966  0.3111
25278SOL    HW186148  10.266   1.242   7.312 -0.6715 -1.1028  1.0762
25278SOL    HW286149  10.342   1.126   7.373  1.7863  0.4580  1.1212
25279SOL     OW86150  12.465  11.740  10.292 -0.2854  0.2530 -0.8785
25279SOL    HW186151  12.538  11.801  10.291  0.5033 -0.6673 -1.2763
25279SOL    HW286152  12.506  11.654  10.288 -1.4135 -0.2671 -1.7610
25280SOL     OW86153   1.427  10.083   5.796 -0.0867 -0.3099 -0.1251
25280SOL    HW186154   1.490  10.056   5.729 -0.3009 -1.7145  0.2141
25280SOL    HW286155   1.427  10.179   5.791  0.0879 -0.3723 -1.9454
25281SOL     OW86156   2.574  11.868   0.851 -0.1420 -0.4904 -0.2865
25281SOL    HW186157   2.519  11.947   0.850 -1.3875 -1.3309 -0.9049
25281SOL    HW286158   2.634  11.880   0.778 -0.8277 -0.4455 -0.8546
25282SOL     OW86159   7.064   4.916   2.610  0.7472  0.1985  0.0586
25282SOL    HW186160   7.071   4.918   2.514  2.1957 -2.3627  0.0272
25282SOL    HW286161   7.052   4.824   2.632 -1.1460  0.8867  2.3147
25283SOL     OW86162  11.046   1.760   3.798 -0.0334  0.0540 -0.1133
25283SOL    HW186163  10.998   1.835   3.763 -0.4131 -0.0137  0.2647
25283SOL    HW286164  11.138   1.780   3.779 -0.0077  1.2243  1.0940
25284SOL     OW86165  12.118  11.918   0.191  0.3839 -0.1988 -0.1785
25284SOL    HW186166  12.077  11.868   0.261  0.8611 -0.8897 -0.3755
25284SOL    HW286167  12.212  11.913   0.210  0.4760  0.1341 -0.5258
25285SOL     OW86168  12.499  10.855   1.715  0.0742  0.2967 -0.2310
25285SOL    HW186169  12.446  10.934   1.728 -0.7558  0.1103 -2.1501
25285SOL    HW286170  12.585  10.887   1.689 -0.2009  0.5820 -0.8020
25286SOL     OW86171   8.785   9.941  11.091 -0.5509  0.0786 -0.0633
25286SOL    HW186172   8.707   9.966  11.141  0.2774  1.0241  0.8110
25286SOL    HW286173   8.826  10.024  11.067  1.6701 -0.3327  1.9138
25287SOL     OW86174   4.713   9.015  12.757  0.4715 -0.1185  0.5562
25287SOL    HW186175   4.691   8.955  12.685  0.9917 -0.5254  0.7324
25287SOL    HW286176   4.628   9.041  12.792  0.0766  1.9291 -1.6628
25288SOL     OW86177   6.596   0.344   0.344  0.0727  0.6450 -1.1325
25288SOL    HW186178   6.623   0.309   0.259  1.0135  0.4253 -0.7506
25288SOL    HW286179   6.581   0.267   0.398  1.2507  0.8000 -0.5631
25289SOL     OW86180   0.655   7.611   3.789  0.2795 -0.1685 -0.1121
25289SOL    HW186181   0.584   7.612   3.852  1.0300  1.0372  0.7634
25289SOL    HW286182   0.646   7.527   3.744 -1.6476 -0.0650 -0.0089
25290SOL     OW86183   7.998  10.907   7.617 -0.4756  0.2350  0.2662
25290SOL    HW186184   7.934  10.911   7.688 -0.1545  0.3104  0.5529
25290SOL    HW286185   8.081  10.888   7.661 -0.1247  1.0927  0.0015
25291SOL     OW86186   8.768   2.069  11.723  0.2397 -0.2023  0.0252
25291SOL    HW186187   8.746   2.013  11.649  0.6641  0.4485 -0.6092
25291SOL    HW286188   8.753   2.158  11.691  1.6031  0.1467  0.3044
25292SOL     OW86189   8.825  12.915   9.557 -0.0801 -0.2555  0.5883
25292SOL    HW186190   8.894  12.851   9.575  0.1750 -0.3898 -0.7443
25292SOL    HW286191   8.864  12.999   9.580  0.6385 -0.3050 -0.3653
25293SOL     OW86192   4.706  11.639   8.069  0.7488 -0.3683  0.2001
25293SOL    HW186193   4.690  11.733   8.078  1.8157 -0.2203  0.7418
25293SOL    HW286194   4.625  11.598   8.099 -0.3144  0.3823 -1.4856
25294SOL     OW86195   4.748   9.677  12.562  0.2531 -0.0346 -0.0342
25294SOL    HW186196   4.765   9.748  12.500 -0.9801  0.8037  0.5481
25294SOL    HW286197   4.653   9.665  12.559  0.2870 -0.6386  0.9745
25295SOL     OW86198  10.264   2.189   7.889 -0.6121  0.0680  0.2318
25295SOL    HW186199  10.308   2.233   7.961  0.3278  1.0982 -0.9205
25295SOL    HW286200  10.192   2.141   7.930  0.0016  0.4799  1.8507
25296SOL     OW86201   9.338   7.172   4.967  0.0463 -0.1675 -0.1951
25296SOL    HW186202   9.366   7.246   5.021  1.4964  0.0716 -1.2247
25296SOL    HW286203   9.349   7.096   5.025  0.6699  0.1869  0.1659
25297SOL     OW86204  11.165   4.688   0.542  0.1323 -0.6525 -0.5007
25297SOL    HW186205  11.196   4.610   0.588  0.9496  1.4717  2.8766
25297SOL    HW286206  11.070   4.687   0.554  0.1495 -1.1026 -0.4048
25298SOL     OW86207   9.261   8.809   7.053  0.1252  0.3867  0.0449
25298SOL    HW186208   9.206   8.877   7.090  0.1479 -0.2643  1.3220
25298SOL    HW286209   9.330   8.795   7.118  0.3620 -0.5433 -0.3859
25299SOL     OW86210   2.974  11.852   1.660 -0.3827  0.1750  0.1888
25299SOL    HW186211   3.063  11.817   1.651  0.1784  0.4790  3.2668
25299SOL    HW286212   2.917  11.775   1.659 -0.2120  0.0132 -2.2876
25300SOL     OW86213   0.178   4.221   2.756 -0.7517  0.0242  0.5540
25300SOL    HW186214   0.096   4.263   2.779 -0.6072 -0.1735  1.4644
25300SOL    HW286215   0.159   4.127   2.759 -0.6716 -0.0121  0.0614
25301SOL     OW86216   0.165   7.453   7.234 -0.4795  0.4236  0.2251
25301SOL    HW186217   0.130   7.473   7.321  1.6895  0.9105  1.0455
25301SOL    HW286218   0.253   7.419   7.250 -0.2843 -0.1321 -1.7490
25302SOL     OW86219   0.861   2.686  12.176 -0.5535  0.3108  0.2193
25302SOL    HW186220   0.783   2.641  12.209 -0.4932  1.2275  1.7185
25302SOL    HW286221   0.934   2.635  12.210 -0.4488 -0.9753 -1.7966
25303SOL     OW86222   8.839   7.167   9.887 -0.4932 -0.8751  0.4039
25303SOL    HW186223   8.810   7.198   9.973  0.1643 -2.8202  1.3907
25303SOL    HW286224   8.809   7.234   9.826  0.3876  1.3834  2.2884
25304SOL     OW86225   0.692   3.029   9.691  0.2654  0.5050  0.1995
25304SOL    HW186226   0.676   3.092   9.761  1.2819  1.8269 -0.7090
25304SOL    HW286227   0.618   2.968   9.697  0.5116  0.3680  2.6024
25305SOL     OW86228   6.462   9.423   2.477  0.4443 -0.3550 -0.6608
25305SOL    HW186229   6.554   9.451   2.483  0.0886  0.5245  1.8530
25305SOL    HW286230   6.456   9.347   2.534 -0.4702 -0.1069 -0.4058
25306SOL     OW86231   6.866  10.685   3.505 -0.3799  0.0555  0.1899
25306SOL    HW186232   6.954  10.722   3.495 -1.3359  2.1521 -1.1957
25306SOL    HW286233   6.873  10.597   3.468  0.8210  0.7412 -1.3674
25307SOL     OW86234   0.775   5.993   2.075  0.1908  0.2281  0.4956
25307SOL    HW186235   0.789   5.929   2.145  1.6736  2.0177  1.9616
25307SOL    HW286236   0.693   6.036   2.098  0.7284  0.8859  1.2454
25308SOL     OW86237   1.992   8.902  10.797 -0.1594 -0.2601 -0.3431
25308SOL    HW186238   1.954   8.986  10.773 -1.3588 -1.0185 -1.2228
25308SOL    HW286239   1.955   8.882  10.882  1.0955  0.6509  0.4461
25309SOL     OW86240  12.838   5.609  11.686  0.0083 -0.2167  0.0588
25309SOL    HW186241  12.779   5.643  11.619 -1.4912 -0.9542  0.9295
25309SOL    HW286242  12.923   5.647  11.666 -0.4570 -0.1932 -2.0691
25310SOL     OW86243   8.991  12.715  12.909 -0.2492  0.1103 -0.2765
25310SOL    HW186244   9.082  12.687  12.912 -0.4871 -0.7032 -0.4280
25310SOL    HW286245   8.956  12.691  12.995 -0.5990 -0.5809 -0.6047
25311SOL     OW86246  11.349   7.419   0.225 -0.4305 -0.8555 -0.4649
25311SOL    HW186247  11.413   7.358   0.260 -1.3521 -1.4506  0.2326
25311SOL    HW286248  11.293   7.366   0.169 -0.2376 -0.3153 -1.1749
25312SOL     OW86249   9.620  10.400   8.667 -0.3547 -0.7875  0.4023
25312SOL    HW186250   9.557  10.329   8.676  0.3682 -1.4179  0.6175
25312SOL    HW286251   9.579  10.461   8.606 -1.2100 -1.1337  0.6142
25313SOL     OW86252   5.204  12.013   9.860 -0.0805 -0.2392 -0.1275
25313SOL    HW186253   5.110  12.019   9.876  0.0977  0.3565  0.7451
25313SOL    HW286254   5.226  12.095   9.817  0.4384  0.6969  1.8277
25314SOL     OW86255   9.930  11.382   9.484  0.7597  0.3259  0.0306
25314SOL    HW186256   9.896  11.430   9.560  0.4231 -1.2060  0.8952
25314SOL    HW286257   9.897  11.430   9.408 -0.5366  0.8019  0.8597
25315SOL     OW86258   7.235   5.657   7.727  0.0893 -0.3405  0.2225
25315SOL    HW186259   7.184   5.728   7.689 -1.5498 -2.2616 -1.3930
25315SOL    HW286260   7.262   5.690   7.813 -2.6547  1.3260  0.5464
25316SOL     OW86261   7.331   6.387   6.993 -0.5825  0.3860 -0.3593
25316SOL    HW186262   7.376   6.340   7.064 -1.4831  0.6412  0.3983
25316SOL    HW286263   7.357   6.479   7.006 -0.6664  0.4186 -0.4245
25317SOL     OW86264   9.098   0.144   7.042  0.2602  0.4434  0.1613
25317SOL    HW186265   9.019   0.159   7.093  0.6249 -1.8888  1.5244
25317SOL    HW286266   9.074   0.077   6.978  1.5406 -1.7935  1.8917
25318SOL     OW86267   0.770   6.956   5.120 -0.0079  0.0166  0.2699
25318SOL    HW186268   0.753   6.991   5.207  1.8565 -1.3189  1.2558
25318SOL    HW286269   0.850   6.903   5.131 -0.2273 -0.9158 -2.0538
25319SOL     OW86270  10.090   5.854   2.999  0.3228  0.3422 -0.0032
25319SOL    HW186271  10.093   5.767   2.960  0.1818  0.5853 -0.5711
25319SOL    HW286272  10.171   5.897   2.969  0.9967 -0.0006  1.2736
25320SOL     OW86273   1.278   6.369   0.078 -0.7603  0.3185 -0.3726
25320SOL    HW186274   1.185   6.394   0.079 -0.7578  0.3636  0.7725
25320SOL    HW286275   1.325   6.452   0.070 -0.8061  0.4409  0.4887
25321SOL     OW86276   7.190   6.278   6.160 -0.2920 -0.6703 -0.2368
25321SOL    HW186277   7.144   6.237   6.233 -1.9200  1.4941  0.0684
25321SOL    HW286278   7.280   6.247   6.168 -0.2453 -0.0662  3.1061
25322SOL     OW86279   8.701   0.032  12.477  0.3555  0.5632 -0.5207
25322SOL    HW186280   8.637   0.079  12.530  1.2172  0.4731  0.6468
25322SOL    HW286281   8.782   0.038  12.528  0.5647 -1.9475 -0.4663
25323SOL     OW86282   4.543   0.524   6.013  0.3067  0.3530  0.1580
25323SOL    HW186283   4.616   0.575   5.979 -0.5743  2.0414  0.6807
25323SOL    HW286284   4.577   0.482   6.092  0.9935  0.2272 -0.1915
25324SOL     OW86285   7.160   7.182   3.501 -0.0702 -0.4508 -0.5098
25324SOL    HW186286   7.208   7.189   3.419  1.1920 -1.0307  0.1570
25324SOL    HW286287   7.146   7.088   3.513 -0.1779 -0.3773 -0.0256
25325SOL     OW86288   8.963   8.205   2.785  0.5290 -0.4377  0.0260
25325SOL    HW186289   8.965   8.121   2.739 -0.2394 -0.8008  0.6355
25325SOL    HW286290   8.896   8.194   2.853  0.9037  0.4364  0.5581
25326SOL     OW86291   2.476   9.068   1.516  0.0458  0.0375  0.5571
25326SOL    HW186292   2.407   9.104   1.460 -0.7878 -2.1327  0.0636
25326SOL    HW286293   2.507   8.991   1.469  1.3996 -0.1966  1.7445
25327SOL     OW86294   9.193   1.318   6.316  0.4129 -0.4314  0.0470
25327SOL    HW186295   9.276   1.288   6.279  1.4317  2.9653 -0.7429
25327SOL    HW286296   9.129   1.304   6.246  0.3539 -2.5102  0.4472
25328SOL     OW86297  12.579   4.195   9.654  0.0779  0.2336  0.5521
25328SOL    HW186298  12.503   4.139   9.639  0.8703 -0.4581 -1.2660
25328SOL    HW286299  12.545   4.272   9.698 -1.5436 -0.3836  0.4273
25329SOL     OW86300   2.085   7.652   6.447  0.5264 -0.1329  0.2674
25329SOL    HW186301   2.021   7.679   6.380  0.4279 -2.1246 -0.5196
25329SOL    HW286302   2.039   7.661   6.530  0.1369  0.9750 -0.0599
25330SOL     OW86303   9.863   2.429   0.258  0.1507 -0.0445 -0.1225
25330SOL    HW186304   9.797   2.368   0.288 -0.6817  0.1178 -1.5391
25330SOL    HW286305   9.879   2.487   0.333 -1.6623  0.2040  0.1024
25331SOL     OW86306   1.491  12.269   9.166 -0.3446 -0.3148 -0.2163
25331SOL    HW186307   1.516  12.279   9.258  2.0215 -1.1052 -0.6966
25331SOL    HW286308   1.423  12.203   9.167  0.0503 -0.7380  0.9428
25332SOL     OW86309   4.979  10.289   5.623  0.1131 -0.7201 -0.5103
25332SOL    HW186310   4.958  10.197   5.608 -1.5853 -0.3864 -0.4172
25332SOL    HW286311   4.979  10.299   5.718 -1.6387 -0.2558 -0.5293
25333SOL     OW86312   2.917   9.685  10.175 -0.1471  0.4546  0.5858
25333SOL    HW186313   3.012   9.681  10.190  0.0625 -0.4113 -0.7702
25333SOL    HW286314   2.907   9.670  10.081 -1.5776  1.7735  0.4917
25334SOL     OW86315  11.790   3.456   4.245 -0.6670 -0.1159  0.1659
25334SOL    HW186316  11.768   3.541   4.283 -0.0746  0.4962 -0.8459
25334SOL    HW286317  11.735   3.450   4.167  0.5008  0.0717 -0.6807
25335SOL     OW86318  10.263   9.042   0.345 -0.4525  0.5141 -0.1869
25335SOL    HW186319  10.169   9.023   0.341 -0.4584  0.7259 -1.4693
25335SOL    HW286320  10.269   9.122   0.397 -0.8773 -0.1323  0.8700
25336SOL     OW86321   7.524   1.696   5.603  0.7955 -0.5966  0.2054
25336SOL    HW186322   7.435   1.685   5.570  0.3827  0.3215  0.9616
25336SOL    HW286323   7.519   1.773   5.660  1.7327 -1.4434  1.4722
25337SOL     OW86324  11.011   7.549   7.800  0.4474  0.2551  0.5175
25337SOL    HW186325  11.047   7.638   7.805 -2.6132  1.5674  2.0814
25337SOL    HW286326  10.941   7.557   7.735  0.9246 -1.3947 -0.2357
25338SOL     OW86327   7.723   2.010   5.007 -0.3572  0.1167 -0.2703
25338SOL    HW186328   7.633   2.015   4.977 -0.5166 -0.4274  0.0985
25338SOL    HW286329   7.748   1.918   4.995 -0.1207  0.0849  0.3686
25339SOL     OW86330   2.808   1.553   6.304 -0.5508  0.5437  0.1002
25339SOL    HW186331   2.885   1.589   6.347 -0.5345  0.6198  0.0088
25339SOL    HW286332   2.844   1.498   6.233 -0.5703  0.1402  0.4004
25340SOL     OW86333   6.514   0.375   8.727 -0.4764 -0.5188 -0.1551
25340SOL    HW186334   6.603   0.360   8.696  0.1184 -1.2204  1.7334
25340SOL    HW286335   6.493   0.297   8.778 -1.5599  0.3402  0.7655
25341SOL     OW86336   1.982   3.862   0.207 -0.0203  0.1256 -0.4701
25341SOL    HW186337   1.914   3.826   0.150  0.5195 -1.5579 -0.1207
25341SOL    HW286338   2.062   3.820   0.177  0.5806  0.7022  0.2889
25342SOL     OW86339  11.377   3.809   3.298 -0.3140 -0.5030  0.0310
25342SOL    HW186340  11.432   3.865   3.243 -0.8916 -0.9355 -1.0133
25342SOL    HW286341  11.395   3.838   3.388 -0.1793  0.9711 -0.4471
25343SOL     OW86342   5.753   1.795   1.905 -0.2730  0.2991  0.1355
25343SOL    HW186343   5.676   1.849   1.923 -1.7837 -1.8045  0.3582
25343SOL    HW286344   5.724   1.706   1.922  1.6794 -0.7486 -1.6113
25344SOL     OW86345   0.258  11.997   9.996  0.1282 -0.5820  0.2881
25344SOL    HW186346   0.186  12.035   9.946  0.3643 -0.9750 -0.3552
25344SOL    HW286347   0.307  11.946   9.932  1.4313  0.3106  0.5468
25345SOL     OW86348  12.498   8.297   6.687  0.4341 -0.5551 -0.2752
25345SOL    HW186349  12.484   8.336   6.601 -0.7090 -0.7822 -0.2088
25345SOL    HW286350  12.470   8.206   6.678  1.7469 -1.0148 -0.0533
25346SOL     OW86351  10.909   4.693   0.581  0.3929 -0.4477  0.2076
25346SOL    HW186352  10.828   4.726   0.619 -0.0645  0.9524 -1.8254
25346SOL    HW286353  10.882   4.612   0.536 -0.0208  0.2382 -0.8290
25347SOL     OW86354   0.741   2.754   7.792  0.0278 -0.2491  0.2458
25347SOL    HW186355   0.805   2.755   7.863  0.2202  1.3335  0.0814
25347SOL    HW286356   0.735   2.661   7.766 -0.2474 -0.9078  2.4800
25348SOL     OW86357  10.698  12.778  12.071  0.3944 -0.6465 -0.8129
25348SOL    HW186358  10.768  12.811  12.127 -0.2454 -1.9729  0.8365
25348SOL    HW286359  10.744  12.737  11.998  1.2904 -0.2037 -0.5131
25349SOL     OW86360   1.821   3.669   0.041  0.1035 -0.3391  0.1949
25349SOL    HW186361   1.789   3.609   0.109  1.2910 -0.2577  0.8566
25349SOL    HW286362   1.888   3.619  -0.004  2.0191  0.8581  1.5765
25350SOL     OW86363   2.198   2.177   5.140 -0.8098  0.3459  0.6106
25350SOL    HW186364   2.193   2.092   5.097 -0.6479  0.1186  1.0375
25350SOL    HW286365   2.120   2.181   5.195 -1.2056  0.7859  0.0375
25351SOL     OW86366  12.729  11.177   0.380 -0.4902 -0.0105  0.0231
25351SOL    HW186367  12.641  11.215   0.372 -0.1956  0.3510 -1.7272
25351SOL    HW286368  12.780  11.244   0.424 -0.3499  1.0867 -1.7262
25352SOL     OW86369  10.810   3.378   1.112 -0.0826 -0.0021 -0.5711
25352SOL    HW186370  10.722   3.340   1.115  0.8777 -2.5625 -1.9417
25352SOL    HW286371  10.829   3.386   1.018  2.2865 -2.6005 -0.4480
25353SOL     OW86372   8.135  12.339   1.410 -0.1781  0.5982  0.1024
25353SOL    HW186373   8.096  12.402   1.350 -0.1721  0.5046  0.0010
25353SOL    HW286374   8.217  12.313   1.368 -0.6960 -0.2950 -0.3731
25354SOL     OW86375   3.041   6.626   5.970  0.2127  0.2390 -0.1406
25354SOL    HW186376   3.136   6.616   5.973  0.1663  0.0183  0.6218
25354SOL    HW286377   3.016   6.589   5.885  0.6330 -1.2017  0.3476
25355SOL     OW86378   0.135   5.066   2.597  0.4438 -0.1683  0.1868
25355SOL    HW186379   0.070   5.098   2.534  0.5713 -0.4038 -0.0643
25355SOL    HW286380   0.171   4.987   2.557  1.7336  0.6040 -0.2196
25356SOL     OW86381  10.181   1.600   6.439 -0.3313 -0.2437 -0.0393
25356SOL    HW186382  10.262   1.564   6.475  0.7372  0.4664 -1.6349
25356SOL    HW286383  10.150   1.661   6.506 -0.3030 -1.5073  1.1698
25357SOL     OW86384  12.303   3.651   8.693  0.3700  0.3149 -0.4884
25357SOL    HW186385  12.337   3.725   8.642 -0.5899  0.0576 -1.5511
25357SOL    HW286386  12.315   3.576   8.635 -0.1976 -0.0854 -0.0869
25358SOL     OW86387   6.394   7.766   7.617 -0.0251 -0.4138 -0.4922
25358SOL    HW186388   6.443   7.835   7.571 -1.1721  0.5982 -0.2560
25358SOL    HW286389   6.386   7.799   7.707 -2.8402  0.4462 -0.9835
25359SOL     OW86390   2.963   4.937   7.147 -0.3113 -0.0693 -0.8136
25359SOL    HW186391   2.903   4.864   7.165 -0.0206  0.1730  1.4245
25359SOL    HW286392   2.930   4.976   7.066 -2.1789 -0.9303 -0.5156
25360SOL     OW86393   0.657   8.955   5.537  0.1889  0.4558  0.0066
25360SOL    HW186394   0.649   8.964   5.442 -3.0896  1.8276  0.3006
25360SOL    HW286395   0.654   8.860   5.552 -1.2870  0.2836 -1.1625
25361SOL     OW86396   0.388  11.717   5.513  0.0940 -0.0060 -0.2405
25361SOL    HW186397   0.425  11.733   5.600 -2.3823  2.6113  0.4603
25361SOL    HW286398   0.461  11.736   5.452  1.4269 -0.3932  1.1783
25362SOL     OW86399   8.898   3.709   5.160  0.1543 -0.4197  0.2627
25362SOL    HW186400   8.851   3.738   5.238  0.7230 -0.2878  0.5665
25362SOL    HW286401   8.945   3.787   5.130 -0.7784 -0.2309 -0.7515
25363SOL     OW86402   1.939   3.223   0.169  0.4151  0.7194  0.1242
25363SOL    HW186403   2.010   3.286   0.173  0.0835  1.0482  0.8816
25363SOL    HW286404   1.941   3.179   0.254  0.3961 -0.0284 -0.2491
25364SOL     OW86405   8.463  12.478  10.826  0.0547  0.0919 -0.1632
25364SOL    HW186406   8.477  12.490  10.920  1.6930 -1.4208 -0.1650
25364SOL    HW286407   8.511  12.398  10.804 -1.5380 -0.4411 -2.0205
25365SOL     OW86408  10.930   9.799  11.233 -0.4394  0.1795  0.2505
25365SOL    HW186409  10.896   9.773  11.148 -1.5361  1.7503  0.1742
25365SOL    HW286410  11.018   9.761  11.236 -1.2054 -1.7811 -0.6213
25366SOL     OW86411   9.538   6.102   7.737  0.0111  0.0885 -0.4349
25366SOL    HW186412   9.508   6.189   7.711 -0.0153  0.1238 -0.2912
25366SOL    HW286413   9.572   6.062   7.657  0.1596  0.2881 -0.4723
25367SOL     OW86414   7.512  12.934   0.514  0.2588 -0.1856  0.2448
25367SOL    HW186415   7.603  12.905   0.510  0.4650  0.5418 -0.7713
25367SOL    HW286416   7.463  12.865   0.470  0.6815  0.6310 -1.6623
25368SOL     OW86417   7.200  12.017   7.403 -0.1820 -0.0536 -0.0980
25368SOL    HW186418   7.208  12.054   7.315  1.5402  0.4287  0.2205
25368SOL    HW286419   7.187  12.093   7.460  2.5814  0.0959  0.4646
25369SOL     OW86420   7.140   1.415   1.345  0.3767 -0.4527 -0.2562
25369SOL    HW186421   7.118   1.350   1.278  0.4996 -0.4470 -0.3011
25369SOL    HW286422   7.235   1.408   1.355  0.3199 -0.7018  0.1647
25370SOL     OW86423   9.458   2.924   6.830 -0.3269  0.1863 -0.0745
25370SOL    HW186424   9.530   2.931   6.893  0.5918  1.3463 -1.1973
25370SOL    HW286425   9.418   3.011   6.830  0.0801  0.4053 -1.5032
25371SOL     OW86426   5.301   5.349   6.950 -0.0832  0.6035  0.3327
25371SOL    HW186427   5.258   5.274   6.992  1.1395 -0.0302  0.4701
25371SOL    HW286428   5.354   5.311   6.881  1.6095  1.1936  1.2530
25372SOL     OW86429   1.233   6.780   0.381  0.2304  0.3166  0.7205
25372SOL    HW186430   1.150   6.736   0.365 -0.5859  1.7885  0.7298
25372SOL    HW286431   1.270   6.794   0.293  1.1790 -1.5528  0.7653
25373SOL     OW86432   2.502  11.371  10.774 -0.7520 -0.1593 -0.3601
25373SOL    HW186433   2.575  11.309  10.774 -0.4816  0.1432 -1.2273
25373SOL    HW286434   2.424  11.316  10.775 -0.5413 -0.4836  1.2001
25374SOL     OW86435   9.451   3.831   4.140 -0.0136 -0.1246  0.0157
25374SOL    HW186436   9.510   3.824   4.215  0.6499 -0.1170 -0.5030
25374SOL    HW286437   9.468   3.751   4.089  0.7089  0.6309 -0.9647
25375SOL     OW86438  11.207   0.359   2.675 -0.4683 -0.4284  0.8250
25375SOL    HW186439  11.226   0.301   2.748 -0.2354  0.1039  1.1904
25375SOL    HW286440  11.200   0.446   2.714 -1.7698 -0.3256  0.4297
25376SOL     OW86441  11.625   4.470  12.601 -0.3983  0.2213 -0.2802
25376SOL    HW186442  11.610   4.385  12.642  0.2998  0.5841  0.7438
25376SOL    HW286443  11.549   4.522  12.625  0.2205  0.5774  0.9738
25377SOL     OW86444  11.313   2.359   2.826  0.2579 -0.3148 -0.1417
25377SOL    HW186445  11.280   2.362   2.736 -1.4538  0.2350  0.4871
25377SOL    HW286446  11.236   2.367   2.881  1.4320  1.0331  1.3953
25378SOL     OW86447   0.393   3.769   2.216 -0.2535  0.3578  0.1130
25378SOL    HW186448   0.324   3.821   2.175  1.3543  3.4638  1.0088
25378SOL    HW286449   0.469   3.781   2.158  0.4754  0.0129  0.9770
25379SOL     OW86450  10.801   3.613   6.960  0.1979  0.2356 -0.3352
25379SOL    HW186451  10.778   3.520   6.972  0.0058  0.3444  0.1691
25379SOL    HW286452  10.725   3.651   6.916  0.7802 -0.1009 -1.6768
25380SOL     OW86453   1.683  12.421   2.822  0.1361  0.1547 -0.5005
25380SOL    HW186454   1.690  12.364   2.899  1.8772  0.4666 -0.3980
25380SOL    HW286455   1.665  12.361   2.750  0.8703 -0.4112 -0.2233
25381SOL     OW86456  12.128   1.776  10.499  0.4052  0.4113 -0.1162
25381SOL    HW186457  12.179   1.822  10.566  1.5693  0.0605 -0.7593
25381SOL    HW286458  12.094   1.846  10.443  0.6846  0.6056 -0.0433
25382SOL     OW86459   2.929   7.089   9.895 -0.3685  0.1130 -0.2240
25382SOL    HW186460   2.869   7.023   9.928  0.7276 -0.4781  0.6262
25382SOL    HW286461   2.884   7.126   9.819 -0.9963 -1.6222 -0.7364
25383SOL     OW86462  12.209   8.797  11.307 -0.0444 -0.3059 -0.0804
25383SOL    HW186463  12.205   8.731  11.377 -1.2549 -0.7443 -0.5281
25383SOL    HW286464  12.245   8.750  11.232  1.8473  0.3268  0.3882
25384SOL     OW86465   5.808  10.042   3.409 -0.0336 -0.6162 -0.5177
25384SOL    HW186466   5.845  10.104   3.471 -0.2263 -0.8191 -0.1999
25384SOL    HW286467   5.722  10.079   3.386  0.5498  0.1098 -1.6305
25385SOL     OW86468   7.794   9.844   1.305  0.7442 -0.0857 -0.0121
25385SOL    HW186469   7.873   9.812   1.348  0.2361 -1.4676 -0.0324
25385SOL    HW286470   7.724   9.832   1.370  0.2186 -0.8332 -0.6903
25386SOL     OW86471  12.072   8.221   4.329 -0.3147  0.2969 -0.3235
25386SOL    HW186472  12.009   8.162   4.370  2.7764 -1.1309  2.8983
25386SOL    HW286473  12.109   8.171   4.256  0.4980 -0.8306  0.8296
25387SOL     OW86474   9.762   8.051   7.011 -0.2906  0.0443  0.5248
25387SOL    HW186475   9.768   8.028   6.919  1.0996 -1.3016  0.9088
25387SOL    HW286476   9.669   8.049   7.031 -0.6167  0.5288 -0.8731
25388SOL     OW86477   1.389  10.070   4.769 -0.1344 -1.1705  0.5282
25388SOL    HW186478   1.360  10.069   4.860  1.1351 -2.0650  0.9558
25388SOL    HW286479   1.308  10.077   4.718 -0.9895 -2.1943  1.6794
25389SOL     OW86480   8.207   5.742   8.500  0.0323  0.1361  0.0563
25389SOL    HW186481   8.189   5.789   8.419 -1.1570 -0.6322 -0.1631
25389SOL    HW286482   8.223   5.652   8.472  2.2035  0.3461  0.4710
25390SOL     OW86483   9.587   3.816   2.654 -0.7431 -0.4336  0.1705
25390SOL    HW186484   9.658   3.768   2.612 -1.3139  0.3141 -1.7383
25390SOL    HW286485   9.588   3.786   2.745  2.2001 -0.2402  0.2942
25391SOL     OW86486   4.321   3.402   8.356  0.1340  0.4373  0.4102
25391SOL    HW186487   4.226   3.403   8.359  0.1464  0.3962  0.7808
25391SOL    HW286488   4.345   3.494   8.343  0.0560  0.4982  0.6915
25392SOL     OW86489   7.215   6.383   4.962  0.2110 -0.1715  0.3488
25392SOL    HW186490   7.281   6.365   4.895  1.7727 -0.4391  1.8719
25392SOL    HW286491   7.135   6.343   4.928  0.7805  0.2578 -1.6171
25393SOL     OW86492   7.903  10.642   2.918 -0.0608 -0.2973 -0.3756
25393SOL    HW186493   7.839  10.656   2.987  1.2906 -0.0357  0.8632
25393SOL    HW286494   7.987  10.638   2.963  1.0160  1.0900 -2.0924
25394SOL     OW86495  12.404   8.863   5.469  0.7313  0.6302  0.5047
25394SOL    HW186496  12.438   8.937   5.419  0.6034  0.6287  0.4126
25394SOL    HW286497  12.310   8.879   5.473  0.7483  0.6560  0.7902
25395SOL     OW86498   0.893   2.410   9.562  1.1661 -0.3167 -0.2070
25395SOL    HW186499   0.895   2.438   9.471  1.8337  0.3256 -0.0056
25395SOL    HW286500   0.820   2.459   9.601  1.7137  0.4293 -0.0898
25396SOL     OW86501   7.502  10.368   6.579  0.5408 -0.1934 -0.0083
25396SOL    HW186502   7.526  10.289   6.531 -0.7120 -0.7173  0.1954
25396SOL    HW286503   7.422  10.399   6.536  0.8036  0.7538  0.1615
25397SOL     OW86504   1.212   5.166  11.944  0.1650  0.0869  0.0379
25397SOL    HW186505   1.204   5.259  11.965 -1.6984 -0.5117  2.4242
25397SOL    HW286506   1.304   5.146  11.959  0.4713  1.4135  0.0642
25398SOL     OW86507   8.034   4.607  11.652  0.1087  0.5099 -0.0907
25398SOL    HW186508   7.953   4.593  11.602  0.8225  0.8985 -1.4090
25398SOL    HW286509   8.020   4.689  11.698  0.3587  1.4667 -1.6446
25399SOL     OW86510   1.236   5.669  12.841 -0.4665 -0.3401  0.1449
25399SOL    HW186511   1.145   5.674  12.872 -0.7920  1.1347 -0.9279
25399SOL    HW286512   1.284   5.630  12.913 -2.0609 -1.8226  0.4966
25400SOL     OW86513   1.983   2.983  11.406 -0.2765 -0.3674  0.2167
25400SOL    HW186514   1.918   2.945  11.346 -1.1020  1.6220 -0.2532
25400SOL    HW286515   1.996   3.072  11.372  0.2647  0.3511  2.2063
25401SOL     OW86516   5.408  11.186   5.421  0.1840 -0.1015  0.0665
25401SOL    HW186517   5.371  11.238   5.493  0.7344  0.2971  0.0726
25401SOL    HW286518   5.340  11.122   5.400 -0.4044  0.4521  0.2405
25402SOL     OW86519   8.160   1.417   2.038  0.3273  0.1056  0.4509
25402SOL    HW186520   8.092   1.472   2.076  1.7501  1.3172  1.3719
25402SOL    HW286521   8.198   1.371   2.113 -0.4315 -1.7373 -0.2279
25403SOL     OW86522   2.356   5.824   1.277 -0.2961 -0.0421 -0.7428
25403SOL    HW186523   2.328   5.767   1.348 -0.3196 -0.8208 -1.3636
25403SOL    HW286524   2.290   5.893   1.274 -1.5139 -1.1861 -1.3812
25404SOL     OW86525   4.887  10.416   8.340 -0.2331  0.3837 -0.0538
25404SOL    HW186526   4.960  10.398   8.400  0.2097  1.3970 -0.2721
25404SOL    HW286527   4.813  10.435   8.398  0.1148  1.0514  0.1770
25405SOL     OW86528   9.611  12.749   7.191  0.3855  0.7188 -0.1459
25405SOL    HW186529   9.597  12.824   7.250 -0.2173  1.5422 -1.2973
25405SOL    HW286530   9.670  12.781   7.124  1.7362 -0.4674  0.4163
25406SOL     OW86531   8.321  10.045   0.651 -0.1263  0.1659 -0.2142
25406SOL    HW186532   8.344  10.036   0.558  0.4012  0.1374 -0.0864
25406SOL    HW286533   8.237  10.002   0.660 -0.0650 -0.0426 -0.6343
25407SOL     OW86534   2.053  12.848   7.078  0.3239 -0.0162  0.2658
25407SOL    HW186535   2.077  12.794   7.002  0.2852  0.8369 -0.3668
25407SOL    HW286536   2.125  12.910   7.086 -0.8840  1.5649 -0.6749
25408SOL     OW86537   8.566   5.041   6.544 -0.1361  0.1164 -0.0147
25408SOL    HW186538   8.567   5.081   6.457 -0.2503 -1.5911 -0.8291
25408SOL    HW286539   8.658   5.042   6.571  0.0746 -0.3800 -0.6703
25409SOL     OW86540   0.904   3.550   6.030  0.2340 -0.0978  0.1566
25409SOL    HW186541   0.902   3.540   5.934 -0.5591  1.1125  0.0288
25409SOL    HW286542   0.955   3.629   6.044  2.1566 -1.3903  0.8803
25410SOL     OW86543   5.477   8.797   4.253 -0.1601 -0.2379 -0.0354
25410SOL    HW186544   5.483   8.892   4.259  0.9037 -0.2276 -0.9945
25410SOL    HW286545   5.462   8.779   4.160 -4.6816 -0.8558  0.5895
25411SOL     OW86546   4.482  12.536   4.300  0.4609 -0.0585  0.0497
25411SOL    HW186547   4.571  12.570   4.305  0.7872 -0.8980  0.0783
25411SOL    HW286548   4.489  12.445   4.328 -0.4959  0.0065  0.5738
25412SOL     OW86549   4.273  11.353  10.989  0.7057 -0.1725  0.6155
25412SOL    HW186550   4.276  11.321  11.079  0.9651 -2.8547 -0.2708
25412SOL    HW286551   4.365  11.360  10.963  0.6357  0.7193  0.5792
25413SOL     OW86552   6.656   1.820  10.685 -0.2627  0.3262 -0.5486
25413SOL    HW186553   6.642   1.729  10.713  0.7295 -0.1993 -1.6974
25413SOL    HW286554   6.689   1.865  10.763  0.1657 -0.5320 -0.2289
25414SOL     OW86555   2.498   7.164   0.477  0.8706 -0.4790  0.2156
25414SOL    HW186556   2.439   7.232   0.445  2.5161  0.8035 -0.2871
25414SOL    HW286557   2.462   7.082   0.443 -1.3318  0.0760  1.0675
25415SOL     OW86558   5.784   7.158   0.396  0.2706  0.3770  0.3030
25415SOL    HW186559   5.753   7.087   0.340 -0.1991 -0.0216  1.0427
25415SOL    HW286560   5.874   7.174   0.368  0.1134  0.0369 -0.4062
25416SOL     OW86561   7.592   8.122   2.628 -0.3144 -0.6324  0.1879
25416SOL    HW186562   7.552   8.057   2.570  1.0089  0.0877 -1.6371
25416SOL    HW286563   7.665   8.077   2.668  1.4811 -0.0095 -2.1586
25417SOL     OW86564   1.706   2.750   7.575 -0.1317 -0.0150  0.0863
25417SOL    HW186565   1.739   2.821   7.520  1.2657 -0.8150 -0.1455
25417SOL    HW286566   1.783   2.718   7.622 -0.4551 -2.1829 -0.7462
25418SOL     OW86567   5.426   6.439  10.845 -0.1248  0.5899 -0.4051
25418SOL    HW186568   5.450   6.414  10.756 -1.6164  0.9500 -0.9353
25418SOL    HW286569   5.377   6.364  10.879 -0.7439  0.9806 -0.4005
25419SOL     OW86570   7.496   0.431   2.657 -0.7653  0.7631 -0.5733
25419SOL    HW186571   7.483   0.356   2.599 -1.2923  0.9887 -0.7444
25419SOL    HW286572   7.554   0.489   2.608  1.4540 -0.4905  0.4123
25420SOL     OW86573   4.938   6.179   3.342  0.2623  0.4016  0.7589
25420SOL    HW186574   4.948   6.145   3.431  0.9558 -0.8192  0.2485
25420SOL    HW286575   4.856   6.142   3.311  1.4663 -1.7023 -0.1254
25421SOL     OW86576   4.527  10.470   5.899 -0.1431 -0.2414 -0.1375
25421SOL    HW186577   4.601  10.529   5.910 -0.3991  0.1026 -0.2146
25421SOL    HW286578   4.565  10.387   5.871  0.2124 -0.0779 -0.1386
25422SOL     OW86579  10.408   4.070   7.780 -0.6115 -0.0181 -0.0673
25422SOL    HW186580  10.327   4.025   7.805  0.4470 -2.2652 -0.4467
25422SOL    HW286581  10.478   4.013   7.812  0.8326  1.4241 -0.5256
25423SOL     OW86582   1.026   9.837   4.370 -0.5598  0.4935  0.1464
25423SOL    HW186583   0.983   9.819   4.286 -1.9042  0.0175  0.9064
25423SOL    HW286584   1.044   9.931   4.369 -0.5182  0.4838 -0.6881
25424SOL     OW86585   8.450   0.953   3.130 -0.0318 -0.6133  0.6637
25424SOL    HW186586   8.507   1.029   3.120  0.1697 -0.8976 -0.4682
25424SOL    HW286587   8.495   0.882   3.083 -1.0461 -0.9725  0.1939
25425SOL     OW86588   5.328   8.394   8.367 -0.3205  0.2522  0.1383
25425SOL    HW186589   5.283   8.471   8.400  2.6062  2.0098  0.3723
25425SOL    HW286590   5.344   8.413   8.274  0.2468 -0.1755  0.1435
25426SOL     OW86591  10.249   2.569   1.899 -0.4837  0.1182  0.1677
25426SOL    HW186592  10.158   2.555   1.926 -0.0529  1.0813  2.2650
25426SOL    HW286593  10.255   2.663   1.884 -0.2069 -0.1396 -1.5852
25427SOL     OW86594   7.472   8.521  11.464  0.1353 -0.5927 -0.7508
25427SOL    HW186595   7.431   8.571  11.393 -1.2780  1.5365  1.4419
25427SOL    HW286596   7.562   8.552  11.466  0.5254 -1.5128 -2.2770
25428SOL     OW86597   5.002   1.883   4.795 -0.4422 -0.2487 -0.0761
25428SOL    HW186598   4.908   1.883   4.776  0.0268 -1.8919 -2.9584
25428SOL    HW286599   5.040   1.936   4.726  0.8571 -0.6281  0.3256
25429SOL     OW86600   0.210   1.575   3.277  0.4579  0.3668 -0.0746
25429SOL    HW186601   0.222   1.659   3.232 -2.1782  0.3795 -0.8891
25429SOL    HW286602   0.173   1.517   3.211 -0.6251 -0.5296  1.2662
25430SOL     OW86603   1.048   0.105  12.658 -0.9315 -0.0055 -0.9563
25430SOL    HW186604   1.060   0.025  12.607  1.0385 -0.8183  0.6714
25430SOL    HW286605   0.974   0.088  12.715 -0.2569 -0.8612 -0.3190
25431SOL     OW86606   4.739   9.158   0.347  0.3977  0.5326 -0.0753
25431SOL    HW186607   4.751   9.073   0.390 -0.9876  0.5306  0.3551
25431SOL    HW286608   4.780   9.221   0.407 -0.9138  0.4531  0.9578
25432SOL     OW86609   2.051   6.778   1.840 -0.7614  0.5123  0.5360
25432SOL    HW186610   2.081   6.756   1.928 -1.8375  0.3349  0.8779
25432SOL    HW286611   2.098   6.858   1.818  2.4709 -1.4293 -0.3344
25433SOL     OW86612   9.886   9.156  10.600 -0.1360  0.0768  0.6548
25433SOL    HW186613   9.899   9.093  10.529 -0.1683  0.7665  0.0184
25433SOL    HW286614   9.953   9.134  10.665 -1.1423 -1.5969  1.1808
25434SOL     OW86615  12.840  12.591   5.191  0.0710  0.1430 -0.7555
25434SOL    HW186616  12.787  12.543   5.128  0.1250  0.1857 -0.8328
25434SOL    HW286617  12.789  12.668   5.212 -0.6011 -0.5609  0.3251
25435SOL     OW86618   7.585  11.539  12.798 -0.2460 -0.6414 -0.3437
25435SOL    HW186619   7.497  11.569  12.819  0.2267 -0.2203  1.1671
25435SOL    HW286620   7.580  11.444  12.799 -0.8123 -0.6259 -0.9318
25436SOL     OW86621   7.241  11.055   4.399  0.2128 -0.1308 -0.1828
25436SOL    HW186622   7.174  11.103   4.448 -0.5569 -3.0671  1.9197
25436SOL    HW286623   7.324  11.096   4.423 -0.1523 -1.3065  3.6993
25437SOL     OW86624   7.563   9.141   5.860 -0.1647  0.0832 -0.7752
25437SOL    HW186625   7.605   9.058   5.839  0.6586  0.7489 -1.9226
25437SOL    HW286626   7.568   9.147   5.955  1.7990 -0.1777 -0.8084
25438SOL     OW86627  11.384   4.137  12.102 -0.1474  0.3580  0.4341
25438SOL    HW186628  11.473   4.167  12.084  1.1404 -0.7401  4.1097
25438SOL    HW286629  11.389   4.042  12.092 -0.3564  0.1119  2.3518
25439SOL     OW86630  10.317  12.337   8.866 -0.4320 -0.4379  0.3097
25439SOL    HW186631  10.313  12.377   8.779 -0.5573  0.0072  0.5173
25439SOL    HW286632  10.286  12.405   8.925  2.3127  0.3056  1.0401
25440SOL     OW86633   0.596   0.092  10.392  0.1339 -0.2420 -0.8724
25440SOL    HW186634   0.683   0.073  10.428  0.7842 -1.0975 -2.7966
25440SOL    HW286635   0.570   0.012  10.348 -0.7246  0.6760 -2.0893
25441SOL     OW86636   9.083   0.215   1.795  0.3107 -0.1493  0.2106
25441SOL    HW186637   8.998   0.202   1.837  0.3822  1.7231  1.0778
25441SOL    HW286638   9.068   0.195   1.702 -0.4826 -1.9641  0.6851
25442SOL     OW86639   2.793   5.737  10.724 -0.3385 -0.0260  0.3738
25442SOL    HW186640   2.777   5.781  10.807 -1.0997  1.6460 -0.5906
25442SOL    HW286641   2.839   5.657  10.747 -0.6269  0.3414  2.3984
25443SOL     OW86642  11.235   1.432   8.223 -0.0918  0.2552  0.4290
25443SOL    HW186643  11.221   1.440   8.318  0.9973  2.1696  0.4956
25443SOL    HW286644  11.323   1.396   8.216 -0.3441 -0.3076  0.1255
25444SOL     OW86645   6.146   4.123   3.313  0.5100 -0.0454 -0.0498
25444SOL    HW186646   6.121   4.193   3.253  1.5964 -1.2776 -2.0860
25444SOL    HW286647   6.063   4.082   3.338  0.0299  0.1676 -1.2097
25445SOL     OW86648   4.070  10.844   1.174  0.3813  0.0100  0.2811
25445SOL    HW186649   4.045  10.752   1.166 -0.3847  0.1034  1.3483
25445SOL    HW286650   4.030  10.873   1.257  0.4537  1.3500 -0.1200
25446SOL     OW86651   7.485   7.530   5.190 -0.1723  0.4079  0.0795
25446SOL    HW186652   7.449   7.446   5.218  2.9478 -0.2694  2.6990
25446SOL    HW286653   7.443   7.595   5.246 -0.1790  0.1467  0.3780
25447SOL     OW86654   7.585   1.423  12.493 -1.2889  0.2386 -0.3815
25447SOL    HW186655   7.627   1.468  12.420 -0.0273  0.0009  0.1717
25447SOL    HW286656   7.572   1.491  12.559 -2.7628  0.5332 -0.9213
25448SOL     OW86657   5.232  12.040   3.461 -0.0240 -0.0011 -0.4072
25448SOL    HW186658   5.319  12.000   3.456  0.6300  1.0445  1.7160
25448SOL    HW286659   5.241  12.122   3.413  0.0577 -0.0319 -0.4458
25449SOL     OW86660   1.199   1.550   7.481 -0.3816  0.2083  0.8286
25449SOL    HW186661   1.183   1.457   7.493 -2.0322  0.3476 -0.0445
25449SOL    HW286662   1.159   1.592   7.558  1.4625  0.1684  1.8864
25450SOL     OW86663   1.311   1.803  11.134  0.2154  0.5100 -0.2144
25450SOL    HW186664   1.217   1.784  11.126 -0.1412  1.8505  0.4678
25450SOL    HW286665   1.339   1.823  11.044 -0.2328  0.4782 -0.3646
25451SOL     OW86666   3.626   4.622   5.737  0.7678  0.0509 -0.0297
25451SOL    HW186667   3.680   4.625   5.658 -1.0787 -0.4890 -1.3689
25451SOL    HW286668   3.654   4.699   5.788  2.3926  0.0782 -0.9090
25452SOL     OW86669   7.171  11.896   2.756 -0.0762  0.0363  0.1545
25452SOL    HW186670   7.157  11.894   2.851 -2.3502 -1.9662 -0.1269
25452SOL    HW286671   7.200  11.985   2.738  0.3196  0.4979  2.7037
25453SOL     OW86672   4.533   2.839   6.858  0.0415 -1.0725 -0.1956
25453SOL    HW186673   4.538   2.758   6.808 -0.5112 -0.2813 -1.5808
25453SOL    HW286674   4.463   2.889   6.816  1.3973  0.7751 -0.3875
25454SOL     OW86675  12.296  11.701  10.076 -0.0734 -0.1193 -0.0834
25454SOL    HW186676  12.352  11.729  10.148  1.7170 -0.6703 -1.1892
25454SOL    HW286677  12.353  11.705   9.998 -1.9523  0.5595 -1.5097
25455SOL     OW86678  11.668   1.728   8.059 -0.1001  0.3891 -0.6351
25455SOL    HW186679  11.658   1.679   8.141 -1.2993 -1.1364 -1.6451
25455SOL    HW286680  11.598   1.793   8.061 -0.4820 -0.0201 -0.6984
25456SOL     OW86681   7.402   3.085   2.063 -0.8518 -0.4956 -0.5633
25456SOL    HW186682   7.352   3.162   2.089 -0.4536 -0.8043  1.2263
25456SOL    HW286683   7.493   3.110   2.078 -0.7990 -1.8440  1.6700
25457SOL     OW86684   5.903   7.759   3.594  0.4251  0.2882  0.1585
25457SOL    HW186685   5.935   7.782   3.507  0.4371 -0.1059  0.0553
25457SOL    HW286686   5.966   7.799   3.654  0.9779 -0.2637 -0.0381
25458SOL     OW86687   2.067   5.047   1.243  0.0789 -0.5704  0.1119
25458SOL    HW186688   1.991   4.999   1.274  0.3126 -1.0944 -0.1118
25458SOL    HW286689   2.130   4.979   1.218 -0.1890 -0.1787 -1.7542
25459SOL     OW86690   7.484   9.083   4.287 -0.8644 -0.1727  0.0733
25459SOL    HW186691   7.534   9.094   4.368  0.8531 -1.2677 -0.7873
25459SOL    HW286692   7.439   8.999   4.297 -1.7547  0.3201  0.4063
25460SOL     OW86693   1.430  12.549   3.570 -0.2489 -0.1326  0.1425
25460SOL    HW186694   1.349  12.558   3.521  0.0356 -0.3503 -0.3765
25460SOL    HW286695   1.466  12.637   3.574 -0.6801  0.0242  0.6772
25461SOL     OW86696   8.116   8.433  11.861  0.0982 -0.3743  0.2844
25461SOL    HW186697   8.084   8.345  11.840 -2.3917  0.2407  1.1747
25461SOL    HW286698   8.081   8.488  11.790  2.4793 -0.1785 -0.8258
25462SOL     OW86699   0.514   7.199   4.845  0.2554 -0.3502  0.1898
25462SOL    HW186700   0.490   7.277   4.896 -0.6492 -1.4854  1.5961
25462SOL    HW286701   0.604   7.181   4.871  0.3877  0.0858  0.0444
25463SOL     OW86702   9.496   8.885  10.793 -0.6178 -0.7754 -0.6157
25463SOL    HW186703   9.518   8.855  10.705  0.0117  0.3502 -0.8617
25463SOL    HW286704   9.554   8.960  10.808 -3.2917  1.4460 -0.7049
25464SOL     OW86705   4.846   4.490   7.319 -0.0389  0.3532  0.2583
25464SOL    HW186706   4.847   4.395   7.332 -1.7177  0.4739  1.6896
25464SOL    HW286707   4.780   4.505   7.251  0.8877  0.4638 -0.6413
25465SOL     OW86708   5.526   2.284   3.619  0.1979 -0.0778 -0.2057
25465SOL    HW186709   5.458   2.318   3.561  0.9197  1.8291 -0.0187
25465SOL    HW286710   5.478   2.232   3.684 -0.7069 -1.5295 -1.9333
25466SOL     OW86711   6.513   8.920   7.657 -0.1333 -0.0358 -0.0368
25466SOL    HW186712   6.588   8.969   7.691 -0.4958  2.9131 -2.9754
25466SOL    HW286713   6.527   8.831   7.687  3.1295  0.9021  1.7242
25467SOL     OW86714   9.241   5.541   8.853  0.1682 -0.0549  0.2790
25467SOL    HW186715   9.147   5.559   8.859  0.1946  0.2103 -0.0526
25467SOL    HW286716   9.256   5.523   8.760  0.6628  1.1916  0.0982
25468SOL     OW86717   4.712   6.431   0.166  0.1394  0.1023 -0.0128
25468SOL    HW186718   4.791   6.448   0.217 -1.0349  1.1929  1.5541
25468SOL    HW286719   4.666   6.363   0.215 -1.0523  1.2311  0.4853
25469SOL     OW86720   1.358   1.447   2.637 -0.6061 -0.1635  0.3649
25469SOL    HW186721   1.347   1.352   2.649 -0.6561  0.0720  2.7184
25469SOL    HW286722   1.452   1.458   2.624 -0.4884 -0.4882  0.8953
25470SOL     OW86723   0.966   6.107   4.887  0.6006  0.8365 -0.1269
25470SOL    HW186724   0.984   6.060   4.969 -0.1852  2.1575  0.8407
25470SOL    HW286725   0.887   6.066   4.853  1.1731 -0.0048 -0.4563
25471SOL     OW86726   1.261   0.381  10.667 -0.0011  0.6483 -0.4522
25471SOL    HW186727   1.311   0.353  10.743 -0.7264 -4.1559 -1.4173
25471SOL    HW286728   1.319   0.366  10.593 -1.3309 -0.9476 -1.2487
25472SOL     OW86729   3.360   4.289   8.341 -0.0050  0.4092  0.3359
25472SOL    HW186730   3.412   4.319   8.266 -1.6350 -2.0308 -1.9254
25472SOL    HW286731   3.426   4.269   8.408  1.6847  0.7370 -1.1380
25473SOL     OW86732   9.303   1.922   3.259  1.0160  0.3139 -0.2138
25473SOL    HW186733   9.228   1.980   3.255  0.5820 -0.2278 -0.0238
25473SOL    HW286734   9.266   1.835   3.275  1.7429  0.1965  0.9268
25474SOL     OW86735  11.984   1.825   3.343 -0.0462  0.0446 -0.0313
25474SOL    HW186736  12.056   1.815   3.404 -0.2160 -3.3598 -0.1970
25474SOL    HW286737  12.019   1.878   3.272  2.2068 -1.2282  0.0632
25475SOL     OW86738   5.053   3.999   6.912 -0.3204  0.0566  0.1175
25475SOL    HW186739   5.014   3.923   6.956 -0.9878  0.8313  0.9083
25475SOL    HW286740   5.147   3.988   6.923 -0.3322 -1.2327 -0.7754
25476SOL     OW86741  10.144   8.765   1.486  0.3861 -0.3249 -0.3719
25476SOL    HW186742  10.220   8.821   1.469  0.4575 -0.2848  0.0743
25476SOL    HW286743  10.142   8.756   1.581 -0.0781 -0.4538 -0.3942
25477SOL     OW86744   5.662   2.094   8.457 -0.2308  0.5354 -0.1039
25477SOL    HW186745   5.603   2.146   8.511 -0.5311  1.5136 -1.3161
25477SOL    HW286746   5.619   2.092   8.371  0.2715 -0.8891 -0.3441
25478SOL     OW86747  11.315   7.739   7.428 -0.0646  0.0879 -0.4020
25478SOL    HW186748  11.223   7.714   7.423  0.2167 -0.7150 -2.4254
25478SOL    HW286749  11.363   7.657   7.437  0.4825  0.4934  0.6294
25479SOL     OW86750   1.811   8.375  12.837  0.0610  0.0120  0.3166
25479SOL    HW186751   1.887   8.433  12.839 -1.5666  2.2693  1.9343
25479SOL    HW286752   1.784   8.373  12.746  0.2822  1.6887  0.1892
25480SOL     OW86753   9.085   4.548   0.488 -0.3350  0.1655 -0.4812
25480SOL    HW186754   9.151   4.492   0.529 -1.0532 -1.2415 -1.1573
25480SOL    HW286755   9.080   4.625   0.544  4.0112  1.8107 -1.9162
25481SOL     OW86756   0.683   5.108   2.829 -0.5634  0.0653  0.5455
25481SOL    HW186757   0.756   5.058   2.865 -0.1838  0.5553  0.4555
25481SOL    HW286758   0.609   5.047   2.833 -0.0910 -0.5311  0.3758
25482SOL     OW86759  11.397   8.965   7.704 -0.1127  0.0616 -0.3866
25482SOL    HW186760  11.390   8.898   7.637  0.0806  0.1539 -0.4992
25482SOL    HW286761  11.368   8.922   7.784  2.0516 -0.8209 -0.0043
25483SOL     OW86762   3.031   4.727   9.618  0.4832  0.1367  0.1808
25483SOL    HW186763   3.001   4.780   9.692  0.9978  0.1109  0.4131
25483SOL    HW286764   2.985   4.644   9.628 -0.5479  0.6245 -0.3463
25484SOL     OW86765   5.060   1.551   2.012 -0.0988  0.3642 -0.4825
25484SOL    HW186766   4.995   1.618   1.991 -0.4021 -0.0711 -0.9418
25484SOL    HW286767   5.058   1.545   2.107 -1.1852 -0.0806 -0.5195
25485SOL     OW86768   6.729   8.723   0.798 -0.1648 -0.4003 -0.0470
25485SOL    HW186769   6.680   8.641   0.793  0.9064 -1.1442  1.0864
25485SOL    HW286770   6.662   8.790   0.808 -1.0359 -1.1930 -0.4197
25486SOL     OW86771   1.461  12.578   1.629 -0.4811  0.1930 -0.4579
25486SOL    HW186772   1.403  12.510   1.662 -0.9101  1.0629  0.6617
25486SOL    HW286773   1.484  12.630   1.706  2.1644 -0.3621 -0.7827
25487SOL     OW86774  10.400   8.744   9.554 -0.2545 -0.4512 -0.3258
25487SOL    HW186775  10.321   8.732   9.502  0.9195 -0.1382 -2.3088
25487SOL    HW286776  10.446   8.817   9.512  0.6981 -0.0522  1.2955
25488SOL     OW86777  10.359   3.964   0.756 -0.0449 -0.4894 -0.2123
25488SOL    HW186778  10.301   4.038   0.737 -0.0966 -0.7052 -0.9477
25488SOL    HW286779  10.352   3.909   0.678 -0.4326 -1.5468  0.5586
25489SOL     OW86780   8.477   9.817   4.615  0.1199  0.0462 -0.1380
25489SOL    HW186781   8.443   9.795   4.528  0.9210 -0.5462 -0.3099
25489SOL    HW286782   8.561   9.772   4.620 -0.1938 -0.4310  1.1870
25490SOL     OW86783   4.948   7.770   1.509 -0.2084  0.1282  0.2056
25490SOL    HW186784   4.857   7.756   1.483 -0.1050 -0.7748  0.3043
25490SOL    HW286785   4.977   7.685   1.544  0.5129  0.5442  0.6536
25491SOL     OW86786  11.738   5.301   0.574  0.0612  0.0188  0.5613
25491SOL    HW186787  11.700   5.234   0.631  0.3020 -1.9415 -1.4278
25491SOL    HW286788  11.717   5.272   0.485  2.1875  1.3475 -0.4708
25492SOL     OW86789   8.523  10.776  11.580  0.4720 -0.1539 -0.5207
25492SOL    HW186790   8.606  10.780  11.533  1.7622  0.8060  1.7015
25492SOL    HW286791   8.483  10.862  11.565  0.6124 -0.0557 -0.3369
25493SOL     OW86792   9.880   6.359   7.760  0.3243 -0.0488 -0.0660
25493SOL    HW186793   9.793   6.362   7.801  0.8402 -0.5273  1.1190
25493SOL    HW286794   9.941   6.356   7.834  1.3370 -0.1804 -0.8814
25494SOL     OW86795   8.158   2.428   6.049  0.2316 -0.2330  0.7220
25494SOL    HW186796   8.140   2.406   6.140  0.7705 -0.2355  0.8278
25494SOL    HW286797   8.251   2.449   6.047  0.2678 -0.4397  0.1311
25495SOL     OW86798   0.546  10.784   3.331  0.4681  0.2745 -0.4739
25495SOL    HW186799   0.513  10.873   3.329  1.8295  0.8297  0.3891
25495SOL    HW286800   0.555  10.763   3.424  1.4383 -0.2498 -0.6694
25496SOL     OW86801  10.054  10.175   2.748  0.1896 -0.0755 -0.2288
25496SOL    HW186802   9.970  10.212   2.773  0.5541  0.3802  0.3476
25496SOL    HW286803  10.080  10.122   2.824  1.1237  1.0053  0.2463
25497SOL     OW86804   2.452  10.956   3.050 -0.3410 -0.1061 -0.3574
25497SOL    HW186805   2.450  10.968   3.145 -2.8228 -2.0836 -0.0635
25497SOL    HW286806   2.477  10.865   3.038 -0.0627  0.1159 -1.6296
25498SOL     OW86807   9.143  10.677   8.286 -0.5620 -0.1717  0.0190
25498SOL    HW186808   9.076  10.744   8.297 -0.5965 -0.1963 -0.0403
25498SOL    HW286809   9.094  10.597   8.265 -0.4186  0.2338 -2.0376
25499SOL     OW86810   1.210   7.845   2.530  0.4889 -0.5515 -0.4917
25499SOL    HW186811   1.120   7.831   2.559  0.8588 -0.6024  0.6679
25499SOL    HW286812   1.253   7.887   2.605  0.7449  2.0815 -1.9842
25500SOL     OW86813   3.210   0.556   3.039  0.1043  0.2921  0.2194
25500SOL    HW186814   3.305   0.553   3.028  0.2689  0.6692  1.4281
25500SOL    HW286815   3.177   0.487   2.981  1.2181 -0.6903  0.7167
25501SOL     OW86816   9.130   4.774   2.857 -0.0446  0.1672  0.2649
25501SOL    HW186817   9.092   4.702   2.807  0.2450 -0.0912  0.4115
25501SOL    HW286818   9.116   4.852   2.803  1.0284 -0.2296 -0.6308
25502SOL     OW86819   7.295  11.107   8.552 -0.2818 -0.5389  0.1863
25502SOL    HW186820   7.253  11.105   8.637 -0.3051 -0.5882  0.1736
25502SOL    HW286821   7.231  11.069   8.492  0.1433 -1.5063  0.3251
25503SOL     OW86822  11.097   3.182   8.451  0.0315 -0.5968  0.2433
25503SOL    HW186823  11.125   3.163   8.362  0.3693 -1.1881  0.4690
25503SOL    HW286824  11.149   3.123   8.506  0.8532  0.7264  0.9581
25504SOL     OW86825   5.871   9.950   4.819 -0.0530 -0.6560  0.7009
25504SOL    HW186826   5.961   9.984   4.814  0.1145 -1.2300 -0.5767
25504SOL    HW286827   5.816  10.026   4.804  0.2135 -0.3281  1.3333
25505SOL     OW86828   1.959   7.168  12.510  0.0922 -0.4932  0.3732
25505SOL    HW186829   1.967   7.168  12.605 -0.3332 -1.0362  0.4169
25505SOL    HW286830   1.909   7.089  12.491  0.7196 -0.7243 -0.3520
25506SOL     OW86831   6.746  12.510   9.285  0.0037  0.0091 -0.2151
25506SOL    HW186832   6.692  12.588   9.303  0.6205 -0.4609  5.7633
25506SOL    HW286833   6.682  12.440   9.269 -0.8276  0.7114 -0.0632
25507SOL     OW86834   5.751   0.665   8.643  0.3253 -0.4199 -0.7938
25507SOL    HW186835   5.824   0.657   8.582  1.6453  0.5495  0.5833
25507SOL    HW286836   5.701   0.741   8.613  0.9290  0.0108 -0.7237
25508SOL     OW86837   8.240   7.242   2.669  0.4810  0.1110 -0.2577
25508SOL    HW186838   8.320   7.277   2.711  0.4290 -0.6448  0.4940
25508SOL    HW286839   8.170   7.298   2.703  0.5337 -0.0341  0.1006
25509SOL     OW86840   8.920   9.357  10.218  0.1059 -0.4712  0.2727
25509SOL    HW186841   8.884   9.395  10.298 -1.3752 -0.2865 -0.4499
25509SOL    HW286842   8.920   9.262  10.234 -0.2962 -0.4429  0.4583
25510SOL     OW86843   3.328   2.588   4.610  0.2284  0.2275  0.1736
25510SOL    HW186844   3.362   2.521   4.550  1.0188  1.2858 -0.6096
25510SOL    HW286845   3.406   2.623   4.653 -0.3863 -1.0519  2.4702
25511SOL     OW86846  12.014   0.208   1.008 -0.0533  0.3052  0.1568
25511SOL    HW186847  11.967   0.131   0.976  1.6651 -0.0853 -1.6982
25511SOL    HW286848  11.991   0.278   0.947  0.3106  0.5903  0.3400
25512SOL     OW86849   0.268   7.229   3.229  0.0957 -0.0454  0.7086
25512SOL    HW186850   0.194   7.268   3.182 -0.8010  0.1587  2.2173
25512SOL    HW286851   0.288   7.150   3.179  0.8869  1.4191 -1.4639
25513SOL     OW86852  10.675   9.987   1.217 -0.5406  0.0553  0.0156
25513SOL    HW186853  10.654  10.075   1.186 -0.4080  0.3907  0.8716
25513SOL    HW286854  10.679   9.994   1.312 -0.9069 -0.9599  0.1260
25514SOL     OW86855   3.371   0.898   7.346 -0.1634  0.0627 -0.1831
25514SOL    HW186856   3.344   0.819   7.392  1.9950 -0.0706  1.0210
25514SOL    HW286857   3.406   0.954   7.415 -0.2612  1.4399 -1.2161
25515SOL     OW86858  10.507   6.609   5.730 -0.1257  0.1581  0.4119
25515SOL    HW186859  10.504   6.598   5.635 -2.0557 -1.5878  0.6207
25515SOL    HW286860  10.451   6.540   5.764 -0.3614  1.4320  2.7928
25516SOL     OW86861   2.306   4.556  10.609 -0.1025 -0.1772  0.8732
25516SOL    HW186862   2.352   4.561  10.693 -1.1853 -0.2001  1.4888
25516SOL    HW286863   2.365   4.508  10.552  1.1566  0.8350  1.2779
25517SOL     OW86864   3.434   6.158   8.437  0.6863 -0.1847 -0.6946
25517SOL    HW186865   3.401   6.224   8.377 -3.1027 -2.0091 -0.8966
25517SOL    HW286866   3.481   6.096   8.381 -0.9870 -0.7684 -1.4884
25518SOL     OW86867  11.281   9.596   1.902  0.3017  0.0866 -0.1269
25518SOL    HW186868  11.198   9.602   1.950  0.8187  1.5644  0.6378
25518SOL    HW286869  11.267   9.524   1.840 -0.0262 -2.7474  2.9576
25519SOL     OW86870   5.503   7.527   1.261  0.0299  0.1439 -0.0406
25519SOL    HW186871   5.498   7.495   1.351 -0.1604 -1.4365 -0.5878
25519SOL    HW286872   5.587   7.494   1.229 -0.5310 -0.5076 -0.8725
25520SOL     OW86873   6.479   1.377   0.672  0.5822  0.3525  0.1530
25520SOL    HW186874   6.462   1.322   0.748 -1.5626  0.2614 -0.3213
25520SOL    HW286875   6.523   1.320   0.609 -0.0533 -0.3510  0.3304
25521SOL     OW86876   2.143   6.715  11.411 -0.2433  0.6060  0.0314
25521SOL    HW186877   2.177   6.628  11.429  1.3637  1.4155  1.0577
25521SOL    HW286878   2.161   6.729  11.318 -1.3496 -0.4865 -0.3703
25522SOL     OW86879   6.716   5.479  11.228 -0.2628 -0.5465 -0.4467
25522SOL    HW186880   6.728   5.532  11.149 -2.4318  1.2224  0.3033
25522SOL    HW286881   6.661   5.533  11.284 -0.3014 -2.5331  1.5306
25523SOL     OW86882  10.515   4.031   5.139  0.2569 -0.0502 -0.3351
25523SOL    HW186883  10.542   4.122   5.128 -1.7077  0.5174 -0.7629
25523SOL    HW286884  10.554   4.004   5.223 -0.1170  1.5685  0.3894
25524SOL     OW86885   7.660   1.847   9.600 -0.0117 -0.0676 -0.0602
25524SOL    HW186886   7.737   1.796   9.625 -0.3621  0.1017  1.4889
25524SOL    HW286887   7.657   1.918   9.664 -2.3393 -0.9830  0.9504
25525SOL     OW86888   9.147   8.438   9.735 -0.4301 -0.1675 -0.6783
25525SOL    HW186889   9.177   8.525   9.761  0.0765 -0.7659  0.8435
25525SOL    HW286890   9.178   8.380   9.804 -0.8331 -1.5620 -1.6160
25526SOL     OW86891  11.155   4.613   8.174  0.7333  0.3292  0.0004
25526SOL    HW186892  11.214   4.635   8.247  0.2768  1.2938  0.1032
25526SOL    HW286893  11.079   4.670   8.187 -0.1908 -0.8197 -0.1850
25527SOL     OW86894  12.423   4.049   8.192  0.0292  0.5043 -0.4348
25527SOL    HW186895  12.411   3.977   8.130 -0.2056  0.9116 -0.8746
25527SOL    HW286896  12.511   4.081   8.176 -0.2054  0.9256 -0.9072
25528SOL     OW86897   6.120   2.749   9.327 -0.1155 -0.5624 -0.2996
25528SOL    HW186898   6.185   2.708   9.270  3.0747  2.4739  0.7800
25528SOL    HW286899   6.125   2.843   9.307 -1.2229  0.2538  2.6479
25529SOL     OW86900   7.358   1.936   9.757 -0.1253  0.4929  0.3784
25529SOL    HW186901   7.359   1.866   9.823  0.3189  0.6080  0.5000
25529SOL    HW286902   7.366   1.891   9.673 -0.0114  0.3878  0.4468
25530SOL     OW86903   7.522  12.433   1.139  0.3017 -0.0728  0.2371
25530SOL    HW186904   7.493  12.508   1.085  0.6652  1.1144  1.6193
25530SOL    HW286905   7.571  12.378   1.079 -1.9000 -0.4073 -1.3883
25531SOL     OW86906   7.804   7.862   7.782 -0.3634 -0.0433  0.4184
25531SOL    HW186907   7.813   7.830   7.872  0.6647  0.3817  0.4895
25531SOL    HW286908   7.713   7.891   7.775 -0.9155 -1.6070  0.7938
25532SOL     OW86909   4.804   6.971   4.651 -0.0540 -0.3839 -0.1281
25532SOL    HW186910   4.896   6.960   4.673 -0.2936 -1.9300  0.1967
25532SOL    HW286911   4.786   7.063   4.669  1.1808 -0.2880  0.7340
25533SOL     OW86912  10.933   5.908   7.741  0.1939 -0.8344 -0.7627
25533SOL    HW186913  10.999   5.950   7.795 -2.6352  0.8378  1.7103
25533SOL    HW286914  10.897   5.978   7.687 -0.0212 -1.5685 -1.6084
25534SOL     OW86915   2.813   7.940  12.773  0.3063  0.4027  0.5969
25534SOL    HW186916   2.815   8.034  12.791  0.8636  0.3374  0.9312
25534SOL    HW286917   2.900   7.909  12.800  0.0168 -0.2582  0.7932
25535SOL     OW86918  11.960   1.776   0.354  0.2660 -0.5003 -0.0253
25535SOL    HW186919  11.993   1.788   0.443  0.9935  0.8560 -0.4517
25535SOL    HW286920  11.896   1.705   0.361  0.4020 -0.4866  1.5504
25536SOL     OW86921   5.253  12.691  10.212  0.2547 -0.0725 -0.2801
25536SOL    HW186922   5.320  12.644  10.261 -1.3121 -1.6146  0.4612
25536SOL    HW286923   5.170  12.657  10.245 -0.9518  2.3565 -0.5908
25537SOL     OW86924   8.530   3.422   3.900  0.7195  0.3400  0.3242
25537SOL    HW186925   8.460   3.418   3.835  1.3415  1.0882 -0.4054
25537SOL    HW286926   8.535   3.333   3.935  0.4829 -0.1167 -0.7568
25538SOL     OW86927  12.479   0.633   8.041  0.4925 -0.6035  1.0484
25538SOL    HW186928  12.501   0.561   8.101  0.4296 -0.9738  0.6371
25538SOL    HW286929  12.467   0.590   7.956 -1.0296 -0.3226  1.0834
25539SOL     OW86930   7.031   5.240   4.122 -0.3275  0.4147 -0.0699
25539SOL    HW186931   7.023   5.299   4.047 -0.4236  2.0024  1.1567
25539SOL    HW286932   6.971   5.168   4.103 -0.8368  1.1211 -1.2002
25540SOL     OW86933  12.881   9.813   0.593 -0.5521 -0.0067  0.0395
25540SOL    HW186934  12.964   9.813   0.641  0.4556 -1.5424 -1.5725
25540SOL    HW286935  12.815   9.790   0.659  0.3142  0.9470  1.2888
25541SOL     OW86936   6.452   2.182   8.694  0.2034 -0.4107 -0.1159
25541SOL    HW186937   6.521   2.138   8.745 -0.1238  0.5063  1.1557
25541SOL    HW286938   6.486   2.271   8.680  0.3703 -0.6823 -1.7143
25542SOL     OW86939   3.834   2.698  10.237  0.5074  0.3992 -0.4831
25542SOL    HW186940   3.920   2.677  10.274 -0.0649 -0.7459  0.2787
25542SOL    HW286941   3.837   2.792  10.222  1.1730  0.7488  1.4878
25543SOL     OW86942   9.366   6.557   6.504 -0.6724 -0.2149 -0.7313
25543SOL    HW186943   9.333   6.492   6.442 -0.8624 -2.7560  1.8588
25543SOL    HW286944   9.311   6.634   6.490 -2.5694 -1.6745 -1.7901
25544SOL     OW86945   7.916   5.013   3.451 -0.0002 -0.3593  0.7125
25544SOL    HW186946   7.971   4.936   3.435 -0.7030 -0.5202 -1.2731
25544SOL    HW286947   7.977   5.083   3.471  0.8258 -0.8878  0.0859
25545SOL     OW86948   4.561  11.893   7.194  0.2230  0.2005 -0.0286
25545SOL    HW186949   4.629  11.927   7.252  2.0063  1.3164 -2.5795
25545SOL    HW286950   4.609  11.851   7.122 -1.7126  1.2025 -2.0589
25546SOL     OW86951   1.971   6.456   0.449  0.5151  0.3731  0.2514
25546SOL    HW186952   1.953   6.529   0.389  1.8181 -1.2527 -2.3398
25546SOL    HW286953   1.896   6.398   0.439  1.4811 -0.7088 -1.2595
25547SOL     OW86954   5.270   6.428   7.465 -0.0632  0.6405  0.0484
25547SOL    HW186955   5.364   6.442   7.480 -0.0859  1.1820 -0.2782
25547SOL    HW286956   5.263   6.416   7.370 -0.3201  0.5358  0.0805
25548SOL     OW86957   2.138   7.854   7.626 -0.1827 -0.1953 -0.3823
25548SOL    HW186958   2.228   7.837   7.596 -0.1905 -0.9274 -0.0081
25548SOL    HW286959   2.136   7.949   7.641 -0.0001  0.0990 -2.0666
25549SOL     OW86960   2.974   5.716   4.504  0.4126  0.4292 -0.2095
25549SOL    HW186961   2.964   5.698   4.410 -4.4152  0.3143  0.0786
25549SOL    HW286962   2.998   5.809   4.508 -0.5576  0.7825 -1.6216
25550SOL     OW86963   7.702   4.124   0.798 -0.1082  0.1790  0.1196
25550SOL    HW186964   7.709   4.166   0.884 -1.7610 -0.4103  0.5766
25550SOL    HW286965   7.688   4.196   0.737 -2.6055  0.4246  0.8536
25551SOL     OW86966   4.223  11.963   7.808 -0.1315 -0.2493 -0.0630
25551SOL    HW186967   4.227  12.038   7.748 -0.3747  0.4621  0.7978
25551SOL    HW286968   4.130  11.940   7.812 -0.0276 -0.7901 -0.5412
25552SOL     OW86969   8.029  10.054  12.804 -0.1393  0.3625 -0.2226
25552SOL    HW186970   8.097  10.096  12.752  0.8547  1.6862  1.9878
25552SOL    HW286971   7.992  10.126  12.857 -1.7128 -0.7427  0.2594
25553SOL     OW86972   5.685   1.677   2.717  0.1230  0.0861 -0.4479
25553SOL    HW186973   5.664   1.604   2.775 -0.8207 -0.2454 -1.1758
25553SOL    HW286974   5.777   1.695   2.732  0.4863 -1.5644 -0.5918
25554SOL     OW86975   7.068   3.964   9.077 -0.0122  0.0876  0.0912
25554SOL    HW186976   7.023   3.941   8.996 -1.8502  3.4397 -0.0237
25554SOL    HW286977   7.110   4.048   9.059 -1.6469  1.6637  2.9258
25555SOL     OW86978  12.042   4.996  10.302  0.1564  0.8876  0.5263
25555SOL    HW186979  12.072   4.946  10.226  0.8661  0.4101  1.1054
25555SOL    HW286980  12.035   5.086  10.270 -0.3765  0.5603 -0.3253
25556SOL     OW86981   6.401   9.328   3.056  0.5296  0.3297 -0.4156
25556SOL    HW186982   6.325   9.376   3.023 -1.1870 -1.3696  0.8165
25556SOL    HW286983   6.443   9.389   3.117 -0.8549  0.7542  0.1710
25557SOL     OW86984   0.876   8.574  12.245  0.2325  0.7873 -0.3672
25557SOL    HW186985   0.789   8.606  12.269 -0.1495 -0.2895 -0.2899
25557SOL    HW286986   0.869   8.479  12.248  1.1443  0.6700 -1.3242
25558SOL     OW86987   8.573  10.091  12.610  0.3077  0.2547  0.0931
25558SOL    HW186988   8.549  10.177  12.645 -1.0678  0.0345 -0.2558
25558SOL    HW286989   8.511  10.077  12.538  2.1984  0.1327 -1.6226
25559SOL     OW86990  12.931  10.674  11.989  0.1521  0.1220 -0.1341
25559SOL    HW186991  12.964  10.758  12.019  1.5789 -0.2141 -0.6309
25559SOL    HW286992  12.966  10.611  12.052 -1.4267 -0.0612  0.5973
25560SOL     OW86993  11.310  11.338  12.144 -0.4651  0.3062 -0.3251
25560SOL    HW186994  11.258  11.376  12.215 -1.9733  0.5718 -1.5318
25560SOL    HW286995  11.289  11.244  12.147  0.1834  0.1667  0.1357
25561SOL     OW86996   4.062  12.828   9.097 -0.0462 -0.1080 -0.7956
25561SOL    HW186997   4.123  12.841   9.025  1.0580  2.0066  0.4480
25561SOL    HW286998   4.107  12.768   9.157 -0.9543 -1.8467 -1.7481
25562SOL     OW86999   9.208   8.482  11.706  0.1636 -0.8164 -1.0132
25562SOL    HW187000   9.158   8.412  11.749  0.4630  0.2622  1.2940
25562SOL    HW287001   9.275   8.506  11.770  0.0821  1.5395 -1.7051
25563SOL     OW87002   9.962   4.769   4.415  0.4565 -0.4112 -0.2516
25563SOL    HW187003   9.925   4.697   4.365 -0.0814 -2.4785  2.7978
25563SOL    HW287004   9.960   4.738   4.506  3.0459  2.2868  0.8932
25564SOL     OW87005   2.896   0.953   1.104 -0.2632 -0.3570  0.2325
25564SOL    HW187006   2.844   0.894   1.159  0.5815 -0.5853  0.7926
25564SOL    HW287007   2.851   1.037   1.110 -0.8283 -0.6611  0.3421
25565SOL     OW87008   4.426   9.232   4.753 -0.5551 -0.1533  0.5055
25565SOL    HW187009   4.519   9.255   4.754 -0.1093 -1.2895 -2.8554
25565SOL    HW287010   4.420   9.152   4.806  0.7159 -0.9880 -0.5638
25566SOL     OW87011  10.896   2.829   3.413 -0.0446  0.3398 -0.1641
25566SOL    HW187012  10.927   2.741   3.393 -2.4097 -1.2755  2.5217
25566SOL    HW287013  10.846   2.855   3.335  1.7133 -0.0934 -1.4843
25567SOL     OW87014   3.168   4.840   1.781  0.2232  0.1265 -0.2474
25567SOL    HW187015   3.181   4.773   1.713 -0.1809 -0.7606  0.5222
25567SOL    HW287016   3.155   4.790   1.861  0.4725  1.1572  0.4556
25568SOL     OW87017   9.687   0.460   3.182  0.1621 -0.4454  0.2674
25568SOL    HW187018   9.751   0.430   3.119  0.3632  2.4647 -1.0700
25568SOL    HW287019   9.738   0.481   3.260  1.1766  2.6761 -1.0630
25569SOL     OW87020   1.251   0.673   9.047  0.2877  0.0812  0.5153
25569SOL    HW187021   1.225   0.652   8.957  1.9199 -0.8452  0.2307
25569SOL    HW287022   1.201   0.753   9.068 -1.6016 -0.7650 -0.4892
25570SOL     OW87023  10.697   7.069   6.595  0.6170 -0.1010 -0.2515
25570SOL    HW187024  10.753   7.116   6.534  0.5934 -0.0472 -0.2321
25570SOL    HW287025  10.608   7.093   6.569  0.5805 -0.7298 -0.7238
25571SOL     OW87026   4.786  12.441   2.828  0.1305  0.8910 -0.6568
25571SOL    HW187027   4.873  12.481   2.827  0.4742  0.1689 -0.4976
25571SOL    HW287028   4.785  12.383   2.752  0.1977  0.0748 -0.0489
25572SOL     OW87029   2.451   6.982   9.670  0.9015  0.1328  0.6339
25572SOL    HW187030   2.457   6.890   9.697 -0.6016  0.5410  2.6473
25572SOL    HW287031   2.443   6.978   9.575 -0.3170 -1.9273  0.7444
25573SOL     OW87032  11.241   6.286   8.979  0.0244 -0.0641 -0.7229
25573SOL    HW187033  11.188   6.282   9.059  2.0036 -1.4424  0.6245
25573SOL    HW287034  11.282   6.372   8.982  0.3505 -0.2312 -0.0324
25574SOL     OW87035  11.211  12.563  11.563  0.0999  0.2291  0.5602
25574SOL    HW187036  11.171  12.488  11.519  1.4172 -0.9991  1.3688
25574SOL    HW287037  11.216  12.631  11.496 -3.4828  0.5867  0.4538
25575SOL     OW87038  12.205  12.785   9.385  0.2481  0.0036 -0.0995
25575SOL    HW187039  12.176  12.875   9.403 -2.8236 -1.4732  3.8310
25575SOL    HW287040  12.248  12.757   9.466  0.5684 -2.2424 -0.9763
25576SOL     OW87041   2.017  12.453   6.701  0.0518  0.0538  0.3806
25576SOL    HW187042   2.082  12.506   6.655 -0.8947  1.3492  0.4836
25576SOL    HW287043   2.069  12.389   6.750  1.2225  0.7213  0.0641
25577SOL     OW87044   7.540   0.151   2.482  0.1027  0.1243 -0.4371
25577SOL    HW187045   7.560   0.058   2.483 -0.2160  0.0310  1.7636
25577SOL    HW287046   7.452   0.156   2.445  0.0357 -0.4661 -0.3642
25578SOL     OW87047   8.494  10.289   1.230 -0.0435  0.1602  0.3562
25578SOL    HW187048   8.585  10.302   1.257 -0.2815  0.3662  1.1004
25578SOL    HW287049   8.458  10.378   1.224  0.0253  0.1252 -0.7629
25579SOL     OW87050   1.828  12.130  10.807  0.0083  0.1916  0.3143
25579SOL    HW187051   1.770  12.161  10.877 -0.1916 -0.0299  0.2482
25579SOL    HW287052   1.892  12.075  10.851 -0.9691 -1.1149  0.1437
25580SOL     OW87053   9.412  10.734  11.521  0.0294  0.1021 -0.1652
25580SOL    HW187054   9.418  10.821  11.558  2.1531 -0.3693  0.7383
25580SOL    HW287055   9.480  10.732  11.453  1.3218 -1.3790  1.0917
25581SOL     OW87056   0.298   3.981  11.139  0.4433  0.4172 -0.0232
25581SOL    HW187057   0.381   3.946  11.105  1.2589 -0.2680  2.4439
25581SOL    HW287058   0.257   3.907  11.183 -0.5601  1.2171  0.4214
25582SOL     OW87059   6.165   7.439   2.561  0.2555 -0.7059 -0.1221
25582SOL    HW187060   6.197   7.349   2.549 -0.4658 -0.9667 -0.1871
25582SOL    HW287061   6.112   7.456   2.483  1.3204  0.2126 -0.6706
25583SOL     OW87062   2.734   8.792   3.008 -0.3549  0.3177 -0.2419
25583SOL    HW187063   2.649   8.812   3.047  0.4004 -0.2525  1.8110
25583SOL    HW287064   2.752   8.702   3.034  0.7145  0.2915 -0.9906
25584SOL     OW87065   8.887   9.982   5.056  0.1873  1.1587 -0.4985
25584SOL    HW187066   8.865   9.921   4.987  0.7126  0.4260 -0.0303
25584SOL    HW287067   8.877  10.069   5.016 -0.9387  0.7888 -1.0516
25585SOL     OW87068   4.159  10.652  11.485  0.2313 -0.1326  0.2561
25585SOL    HW187069   4.219  10.686  11.551 -0.1677 -0.0340  0.5764
25585SOL    HW287070   4.212  10.641  11.406  0.3309  1.3990  0.0951
25586SOL     OW87071   0.654   6.875   0.303 -0.7045  0.2930  0.2497
25586SOL    HW187072   0.697   6.826   0.233  2.7791 -0.1014  2.3838
25586SOL    HW287073   0.574   6.827   0.321  1.0792 -3.0242  0.2146
25587SOL     OW87074   4.284   0.772  11.254 -0.3645  0.6392 -0.2022
25587SOL    HW187075   4.277   0.780  11.349 -0.3148 -0.8956 -0.0419
25587SOL    HW287076   4.351   0.836  11.230  2.6983 -1.7000  1.3551
25588SOL     OW87077  11.095   4.816  11.794  0.6077 -0.1090  0.1129
25588SOL    HW187078  11.099   4.884  11.727 -0.0938 -0.1307  0.0430
25588SOL    HW287079  11.031   4.849  11.858 -2.3466 -2.0879 -1.5539
25589SOL     OW87080   1.245   3.803  12.859  0.0070 -0.2661  0.2366
25589SOL    HW187081   1.266   3.717  12.824 -0.2096 -1.0245  1.8871
25589SOL    HW287082   1.227   3.857  12.782 -0.3938 -1.8283 -0.7999
25590SOL     OW87083  11.443   8.706  12.189 -0.1369  0.3125 -0.0401
25590SOL    HW187084  11.391   8.725  12.111 -0.8119 -1.3494 -0.0316
25590SOL    HW287085  11.412   8.620  12.219  1.5597 -0.0468  0.8453
25591SOL     OW87086   4.066  11.439  11.535  0.3453  0.5052  0.0463
25591SOL    HW187087   4.133  11.415  11.471 -0.6383  2.1550 -1.7260
25591SOL    HW287088   4.000  11.370  11.527  1.6683 -1.0731  1.7318
25592SOL     OW87089  11.060   0.778   8.263  0.0017  0.8188  0.0549
25592SOL    HW187090  11.147   0.762   8.225  0.7794  0.7321  1.7784
25592SOL    HW287091  11.000   0.730   8.207  0.9643  1.5065 -1.6373
25593SOL     OW87092   4.589   0.808  12.330  0.7075  0.5638  0.6016
25593SOL    HW187093   4.509   0.774  12.369  0.7740 -1.4926 -0.8823
25593SOL    HW287094   4.583   0.903  12.341 -1.8676  0.4674  0.6262
25594SOL     OW87095  11.131   5.281   1.236  0.4073  0.0103  0.7656
25594SOL    HW187096  11.191   5.218   1.196  0.1017 -0.2402  0.6974
25594SOL    HW287097  11.187   5.355   1.262  0.8910 -0.5913  1.4870
25595SOL     OW87098   3.809   7.669   9.529 -0.1006  1.0384  0.6611
25595SOL    HW187099   3.793   7.579   9.499 -0.9093  0.4246  2.7455
25595SOL    HW287100   3.753   7.723   9.472 -0.4143  0.1143  0.0626
25596SOL     OW87101   2.210   4.952   8.397  0.4500  0.0199  0.3968
25596SOL    HW187102   2.225   4.869   8.443  2.2487  0.0907  0.0128
25596SOL    HW287103   2.116   4.954   8.382  0.3590 -1.9955  0.3516
25597SOL     OW87104  12.479   0.592   0.356 -0.1373 -0.2070 -0.0289
25597SOL    HW187105  12.426   0.512   0.363  2.4162 -1.9172  1.8801
25597SOL    HW287106  12.512   0.591   0.267  0.2205 -1.6257  0.0858
25598SOL     OW87107   3.043  11.120   5.113  0.1028  0.2107 -0.5221
25598SOL    HW187108   2.993  11.200   5.100 -0.5664 -0.1663 -0.3179
25598SOL    HW287109   3.088  11.106   5.030  1.2393  1.4705 -0.1568
25599SOL     OW87110  10.405   3.044  11.505  0.2330  0.1358  0.2526
25599SOL    HW187111  10.359   3.070  11.585  0.2379  0.4547  0.1541
25599SOL    HW287112  10.376   2.954  11.489  0.4159 -0.0108  0.7417
25600SOL     OW87113   9.351  12.253   2.706  0.5774 -0.2719  0.2322
25600SOL    HW187114   9.315  12.332   2.664 -0.1189  0.7254  2.5262
25600SOL    HW287115   9.439  12.278   2.734  0.2598 -0.2017  1.1965
25601SOL     OW87116   7.315   8.067  11.257  0.2766 -0.3597 -0.0187
25601SOL    HW187117   7.365   8.111  11.188 -0.8319 -0.5105 -0.9664
25601SOL    HW287118   7.381   8.034  11.318  1.2897 -0.0713 -0.9238
25602SOL     OW87119   5.111   6.899   8.376  0.3650 -0.3578 -0.6940
25602SOL    HW187120   5.161   6.973   8.340 -1.1599  1.0038 -0.1294
25602SOL    HW287121   5.099   6.921   8.468  0.3833 -1.6290 -0.3669
25603SOL     OW87122  11.398   2.047   6.740  0.1843 -0.0958 -0.3346
25603SOL    HW187123  11.372   2.023   6.829 -1.3291  0.3336 -0.6334
25603SOL    HW287124  11.408   2.142   6.742  1.2983 -0.1984 -0.3560
25604SOL     OW87125   4.068   3.489   3.845  0.0892  0.2822  0.8724
25604SOL    HW187126   4.164   3.492   3.849  0.2520 -2.0010  0.0872
25604SOL    HW287127   4.042   3.468   3.935  0.2334  1.7229  1.2775
25605SOL     OW87128   2.304   4.777   1.777 -0.2794 -0.0936  0.1454
25605SOL    HW187129   2.268   4.690   1.798 -0.8865 -0.7616 -3.1091
25605SOL    HW287130   2.242   4.814   1.714 -0.0678  2.8179  1.4954
25606SOL     OW87131  12.162   7.932   5.578  0.1750 -0.2480  0.3038
25606SOL    HW187132  12.156   7.937   5.673 -1.6644  0.8250  0.1742
25606SOL    HW287133  12.122   7.848   5.555 -2.0428  0.7163  0.3622
25607SOL     OW87134   0.053   4.224   1.202 -0.4334 -0.4926 -0.6757
25607SOL    HW187135   0.110   4.188   1.270  0.3650  1.5515 -0.1985
25607SOL    HW287136   0.057   4.160   1.131  2.6660 -0.3527 -0.7430
25608SOL     OW87137  11.976   9.996   1.215 -0.0218  0.1432 -0.1713
25608SOL    HW187138  11.980   9.935   1.289  1.9951  1.1917  0.6597
25608SOL    HW287139  11.883  10.004   1.196 -0.5202 -1.0883  1.4622
25609SOL     OW87140   4.521  10.699  10.829 -0.4159 -0.5406  0.4575
25609SOL    HW187141   4.599  10.679  10.880 -0.0642 -0.7269 -0.1472
25609SOL    HW287142   4.451  10.650  10.872 -0.2006 -0.3922  0.9845
25610SOL     OW87143   3.739  10.427   8.490 -0.3174 -0.1548 -0.0096
25610SOL    HW187144   3.775  10.395   8.573 -1.9940  0.5008  1.0023
25610SOL    HW287145   3.800  10.497   8.463  0.1077 -0.2132  0.7768
25611SOL     OW87146   2.954   9.294  12.499 -0.5234 -0.8755  0.1443
25611SOL    HW187147   3.011   9.228  12.539  1.3298  0.4729 -0.1053
25611SOL    HW287148   2.929   9.255  12.415  2.6702 -0.3533 -1.1897
25612SOL     OW87149   0.065   3.828   4.421 -0.2906 -0.1345 -0.0526
25612SOL    HW187150   0.060   3.792   4.510  0.4388  0.4984  0.2546
25612SOL    HW287151   0.016   3.765   4.367  0.0662 -1.0272  0.6352
25613SOL     OW87152   8.385  11.147   5.264  0.0384  0.3791 -0.2343
25613SOL    HW187153   8.450  11.183   5.203 -0.4619  1.2338 -0.2758
25613SOL    HW287154   8.433  11.079   5.312  0.1181 -1.1873 -2.4013
25614SOL     OW87155   2.171   0.745   5.884 -0.3273 -0.1345 -0.1814
25614SOL    HW187156   2.122   0.761   5.965 -0.3826  1.7172 -0.5327
25614SOL    HW287157   2.247   0.802   5.891 -0.0928 -0.2997 -1.2333
25615SOL     OW87158   8.063   3.385   6.386  0.1721 -0.2939 -0.5346
25615SOL    HW187159   7.971   3.375   6.358 -0.2625 -3.5116  1.4767
25615SOL    HW287160   8.105   3.432   6.314 -3.3187  2.8160 -0.8257
25616SOL     OW87161   5.875   9.309   9.226 -0.4200  0.7322 -0.2556
25616SOL    HW187162   5.944   9.373   9.207 -0.1394  0.8203  0.9639
25616SOL    HW287163   5.797   9.344   9.183 -0.4686  2.3458  1.0560
25617SOL     OW87164  12.571  10.359   2.147  0.0279 -0.2958  0.4363
25617SOL    HW187165  12.511  10.433   2.138 -0.0299 -0.5161 -1.4198
25617SOL    HW287166  12.520  10.293   2.193  0.0306  0.7392  1.9963
25618SOL     OW87167   6.090   5.675   3.339  0.0369 -0.5086 -0.0410
25618SOL    HW187168   6.010   5.672   3.287 -0.3957 -1.1894  0.6394
25618SOL    HW287169   6.142   5.601   3.306 -0.6895 -1.6065  1.1575
25619SOL     OW87170   2.425   2.397   1.064  0.6009 -0.0583 -0.4234
25619SOL    HW187171   2.462   2.415   1.150  0.8020  2.1978 -0.9067
25619SOL    HW287172   2.500   2.383   1.007  0.5535  0.1529 -0.5426
25620SOL     OW87173   1.626   7.796   0.289  0.1586 -0.1854 -0.3034
25620SOL    HW187174   1.615   7.816   0.196 -0.4724  0.8873 -0.0070
25620SOL    HW287175   1.721   7.793   0.301  0.2443 -0.4385 -1.0035
25621SOL     OW87176  12.769   7.781   8.895 -0.1805 -0.3688 -0.3118
25621SOL    HW187177  12.820   7.859   8.873 -0.1002 -0.4536 -0.4255
25621SOL    HW287178  12.678   7.810   8.890 -0.1485 -0.2610 -0.2723
25622SOL     OW87179   8.537   9.903  11.619  0.4440  0.1614  0.1736
25622SOL    HW187180   8.458   9.854  11.598 -0.0417  0.8981  0.2320
25622SOL    HW287181   8.520   9.943  11.704  0.8757  0.3354  0.1843
25623SOL     OW87182   1.326   1.612   9.023  0.0700  0.2821 -0.1133
25623SOL    HW187183   1.315   1.695   8.977 -0.8968  0.4742  0.4391
25623SOL    HW287184   1.318   1.546   8.955  1.6468  0.6433 -0.6925
25624SOL     OW87185  12.937   1.545   6.995  0.1478  0.0085  0.1599
25624SOL    HW187186  12.974   1.630   6.970 -0.4573  0.4278  0.6405
25624SOL    HW287187  12.961   1.535   7.087 -0.9497  0.3142  0.4963
25625SOL     OW87188   7.496   1.719   0.815 -0.1285 -0.7148  0.6243
25625SOL    HW187189   7.586   1.709   0.783 -0.3222  0.2035 -0.2661
25625SOL    HW287190   7.499   1.684   0.904  0.9287 -1.4061  0.3437
25626SOL     OW87191   1.617   9.784   6.460  0.1054  0.1337  0.3238
25626SOL    HW187192   1.647   9.778   6.551 -1.0769 -1.9341  0.6287
25626SOL    HW287193   1.521   9.788   6.467 -0.0316 -0.7624 -0.8510
25627SOL     OW87194   9.100   6.933   9.580 -0.7830  0.0135  0.0863
25627SOL    HW187195   9.082   6.845   9.549  1.5623 -0.5166  0.0327
25627SOL    HW287196   9.130   6.921   9.671  1.0580  0.5256 -0.4098
25628SOL     OW87197   9.324   7.859  10.257 -0.6269 -0.3544  0.7043
25628SOL    HW187198   9.345   7.841  10.349  1.2605  0.1456  0.4186
25628SOL    HW287199   9.323   7.773  10.215 -0.3406 -0.4985  0.9871
25629SOL     OW87200   3.207   6.659   0.272 -0.0419 -0.0699  0.2969
25629SOL    HW187201   3.237   6.568   0.266  1.8157  0.5642 -1.5476
25629SOL    HW287202   3.277   6.704   0.320 -0.4271  0.5669  0.2707
25630SOL     OW87203   6.290   5.384   4.504  0.1224  0.2549 -0.2666
25630SOL    HW187204   6.283   5.379   4.408  0.0165  0.2572 -0.2597
25630SOL    HW287205   6.333   5.302   4.529 -0.6595 -0.1658 -0.2457
25631SOL     OW87206   5.742   0.425   8.019  0.5464  0.2344 -0.1786
25631SOL    HW187207   5.674   0.441   8.084  0.6916 -1.1948  0.3600
25631SOL    HW287208   5.717   0.480   7.945 -2.1842 -1.4553 -0.6697
25632SOL     OW87209  12.596  10.883  10.602 -0.0941  0.0055  0.1708
25632SOL    HW187210  12.683  10.865  10.638  1.0130 -1.4131 -2.8311
25632SOL    HW287211  12.604  10.968  10.560  0.1604 -0.5122 -0.8620
25633SOL     OW87212   7.090   8.890   2.613 -0.1489 -0.2165 -0.1951
25633SOL    HW187213   7.116   8.835   2.539 -2.1279  1.6151 -2.4131
25633SOL    HW287214   7.031   8.835   2.665  0.7760 -1.3210 -0.2842
25634SOL     OW87215   9.276  12.310   5.921 -0.1478 -0.1273  0.0103
25634SOL    HW187216   9.333  12.290   5.846 -0.0239  0.9109 -0.1836
25634SOL    HW287217   9.196  12.344   5.881  0.2286  1.2223  0.3415
25635SOL     OW87218  10.725   1.520  10.595  0.0167 -0.2074  0.1717
25635SOL    HW187219  10.786   1.593  10.608 -0.7171  0.1172  2.0752
25635SOL    HW287220  10.651   1.558  10.548  0.2941 -0.1021 -0.1915
25636SOL     OW87221   6.824   6.802   9.494  0.8098 -0.4559 -0.7527
25636SOL    HW187222   6.873   6.756   9.425  2.8489 -1.1963  1.0865
25636SOL    HW287223   6.813   6.738   9.563  0.3519  0.7618  0.3523
25637SOL     OW87224   7.791   6.808   8.855  0.2316 -0.8775 -0.3892
25637SOL    HW187225   7.850   6.795   8.780  1.3960 -2.9101  0.8169
25637SOL    HW287226   7.848   6.806   8.931 -1.2344 -1.6035  0.7368
25638SOL     OW87227  11.897   8.423   4.298  0.0746 -0.4882 -0.0682
25638SOL    HW187228  11.965   8.471   4.251 -0.1728 -0.2994 -0.2337
25638SOL    HW287229  11.935   8.336   4.312  0.3225 -0.4054 -0.2222
25639SOL     OW87230  11.823   4.486  10.886 -0.1623 -0.1963  0.6664
25639SOL    HW187231  11.863   4.561  10.842  0.2816 -1.2964 -0.8774
25639SOL    HW287232  11.794   4.521  10.971  0.6734  1.5296  0.2872
25640SOL     OW87233   0.308   6.287   8.006 -0.0393  0.2655 -0.1906
25640SOL    HW187234   0.403   6.285   7.996  0.1621  1.2409  1.2375
25640SOL    HW287235   0.282   6.195   8.005  1.0786 -0.0836  0.7142
25641SOL     OW87236   0.117   7.423   6.678  0.2165  0.6140  0.0483
25641SOL    HW187237   0.210   7.401   6.676 -0.7005 -4.6747  0.3395
25641SOL    HW287238   0.088   7.413   6.588 -0.4701 -0.6060  0.3772
25642SOL     OW87239   8.557   9.077   4.216  1.0892 -0.4930 -0.0872
25642SOL    HW187240   8.574   9.025   4.137  0.2875 -1.5856  0.4354
25642SOL    HW287241   8.461   9.079   4.223  1.1289  0.3912  0.3543
25643SOL     OW87242   8.777   4.936   7.095 -0.6315  1.0950  0.2318
25643SOL    HW187243   8.722   5.008   7.065 -3.4227 -0.9558  0.0146
25643SOL    HW287244   8.724   4.891   7.161  1.5213 -0.0315  1.3012
25644SOL     OW87245   7.748   2.728   8.236 -0.1219 -0.8737 -0.0654
25644SOL    HW187246   7.705   2.787   8.298 -1.9220  2.4083 -3.9841
25644SOL    HW287247   7.829   2.773   8.213 -0.6606 -0.7099 -1.7937
25645SOL     OW87248  10.929   6.801  12.493 -0.0917  0.1464 -0.2283
25645SOL    HW187249  10.998   6.801  12.427  0.3780  0.8316  0.2512
25645SOL    HW287250  10.862   6.743  12.457  0.3784  0.1025 -1.0653
25646SOL     OW87251   7.146   4.535   6.466  0.1247  0.2202 -0.4916
25646SOL    HW187252   7.080   4.541   6.534  0.4104 -1.2973 -0.0604
25646SOL    HW287253   7.129   4.611   6.410 -0.7322  0.9379  0.6941
25647SOL     OW87254  12.705   3.054   3.494 -0.2361  0.0607  0.1386
25647SOL    HW187255  12.663   3.105   3.425  0.1541  3.4719  2.2011
25647SOL    HW287256  12.798   3.073   3.484  0.1796 -1.9062 -0.1890
25648SOL     OW87257   2.376   9.670  12.078 -0.0221 -0.1371  0.6218
25648SOL    HW187258   2.412   9.638  12.161  1.7457  0.3809  0.1078
25648SOL    HW287259   2.320   9.599  12.048 -0.4794 -0.4487  2.1164
25649SOL     OW87260   2.192   6.855   8.625  0.6350 -0.2261  0.0620
25649SOL    HW187261   2.172   6.779   8.681  3.5526 -0.5606  0.8159
25649SOL    HW287262   2.106   6.893   8.605 -0.7569 -2.1915  1.8230
25650SOL     OW87263   1.341   7.398   5.015 -0.2754  0.2626  0.0201
25650SOL    HW187264   1.346   7.417   5.109  0.4320  1.3017 -0.2136
25650SOL    HW287265   1.282   7.464   4.980 -0.8247 -0.3419 -0.2250
25651SOL     OW87266   3.700   7.044   4.493 -0.2803 -0.3426 -0.6477
25651SOL    HW187267   3.717   7.134   4.520 -2.1195  0.7662 -2.8287
25651SOL    HW287268   3.731   6.991   4.566  0.4859  2.0539  0.8925
25652SOL     OW87269  12.406   6.643   8.745 -0.1534  0.6090  0.1346
25652SOL    HW187270  12.490   6.599   8.733 -0.3248 -0.3497  2.0741
25652SOL    HW287271  12.428   6.734   8.764  0.3554  0.6794 -0.7503
25653SOL     OW87272   0.494   6.380   2.835 -0.1345  0.3601 -0.0217
25653SOL    HW187273   0.485   6.301   2.783  0.1768 -0.0678  0.5551
25653SOL    HW287274   0.425   6.373   2.902 -1.0901  1.3201 -0.8737
25654SOL     OW87275   1.111  10.101   4.687 -0.3270  0.3020  0.3587
25654SOL    HW187276   1.118  10.174   4.626 -0.1243  3.0681  3.4029
25654SOL    HW287277   1.022  10.069   4.676 -0.6526  1.4656 -0.5829
25655SOL     OW87278   6.702   7.773   4.348  0.7195 -0.8464 -0.1755
25655SOL    HW187279   6.611   7.795   4.331  0.5416 -1.0162  0.5262
25655SOL    HW287280   6.702   7.734   4.436  1.4060 -1.2205 -0.3280
25656SOL     OW87281   7.567   1.050   4.324  0.0683 -0.0394  0.3482
25656SOL    HW187282   7.614   1.068   4.406  1.8161 -2.1247 -0.1172
25656SOL    HW287283   7.630   1.067   4.255 -0.0500 -2.1166 -0.3432
25657SOL     OW87284   8.791   6.406   7.227  1.0660 -0.3764 -0.3801
25657SOL    HW187285   8.869   6.354   7.241  0.9175 -0.3567  0.5750
25657SOL    HW287286   8.734   6.385   7.300 -0.2968 -1.2165 -1.6265
25658SOL     OW87287   7.374   2.630   8.358 -0.2625 -0.4495 -0.0116
25658SOL    HW187288   7.377   2.715   8.401  0.4721 -0.4435 -0.0615
25658SOL    HW287289   7.391   2.649   8.266  0.3876 -0.6972  0.0535
25659SOL     OW87290   1.069   0.019   7.577  0.8475  0.1397  0.9157
25659SOL    HW187291   1.042  -0.070   7.601 -0.3121 -0.0703 -0.9464
25659SOL    HW287292   1.157   0.008   7.541  1.3165 -0.0036  2.0598
25660SOL     OW87293   4.195   8.449   6.539 -0.3228 -0.1791  0.3947
25660SOL    HW187294   4.230   8.385   6.600 -0.8826 -1.6931 -0.8258
25660SOL    HW287295   4.272   8.498   6.508  0.6037 -2.4223 -1.0754
25661SOL     OW87296   1.392   2.099   7.452  1.0619  0.2379  0.0264
25661SOL    HW187297   1.469   2.141   7.492  2.1130 -1.1488 -0.4583
25661SOL    HW287298   1.380   2.019   7.503 -1.3649  1.3648  1.4011
25662SOL     OW87299   0.950   9.332   7.044  0.5708 -0.2914  0.2569
25662SOL    HW187300   0.977   9.405   7.098 -1.2606  0.4401  0.2583
25662SOL    HW287301   0.960   9.363   6.954  0.5436 -0.3187  0.2442
25663SOL     OW87302   4.548   4.346   4.684  0.7597 -0.6279  0.4055
25663SOL    HW187303   4.583   4.315   4.600  1.5076  0.6027  0.2487
25663SOL    HW287304   4.497   4.424   4.662  3.1631  1.3157  1.3598
25664SOL     OW87305   0.777  12.493   6.366  0.2329 -0.0737 -0.7286
25664SOL    HW187306   0.694  12.446   6.376  1.6449 -2.5704  0.2852
25664SOL    HW287307   0.827  12.470   6.444  1.8646  1.4195 -1.2732
25665SOL     OW87308  11.517   7.203   6.869  0.8761  0.2364 -0.2635
25665SOL    HW187309  11.540   7.209   6.962 -0.0256  2.3057 -0.1248
25665SOL    HW287310  11.531   7.291   6.835 -0.6819  0.0082 -1.6074
25666SOL     OW87311   0.106   8.573   0.919  0.1336 -0.2547  0.0493
25666SOL    HW187312   0.142   8.488   0.893  1.3183 -0.2173  1.4324
25666SOL    HW287313   0.043   8.552   0.989  1.1103  0.0499  1.0459
25667SOL     OW87314   5.901   8.061   0.406 -0.0258  0.3090  0.1725
25667SOL    HW187315   5.873   8.147   0.377 -0.2173  0.0529 -0.4078
25667SOL    HW287316   5.851   7.999   0.353  0.2128 -0.1608  0.4820
25668SOL     OW87317   5.462   0.893  10.165 -0.2510 -0.1632  0.3733
25668SOL    HW187318   5.530   0.839  10.124 -0.0722  0.1205  0.2915
25668SOL    HW287319   5.381   0.864  10.124 -0.0382  0.3490 -0.4405
25669SOL     OW87320  11.523   3.660   1.939  0.1556 -0.3322  0.6123
25669SOL    HW187321  11.465   3.622   1.873 -1.5992  2.9660  0.0325
25669SOL    HW287322  11.464   3.712   1.995  2.3699  2.4941  0.5433
25670SOL     OW87323  10.504   6.885   1.737 -0.6112 -0.0348 -0.5002
25670SOL    HW187324  10.498   6.823   1.664 -1.3582  0.8059 -1.1771
25670SOL    HW287325  10.571   6.848   1.795  0.7906 -0.1833 -2.1367
25671SOL     OW87326   7.768   9.757   6.831 -0.5240 -0.6744 -0.4566
25671SOL    HW187327   7.812   9.783   6.750 -0.9823 -0.0779 -0.5271
25671SOL    HW287328   7.681   9.728   6.803 -1.6834  2.0369  0.0079
25672SOL     OW87329   9.598   9.583  12.693 -0.3184 -0.3648  0.0839
25672SOL    HW187330   9.520   9.639  12.693 -0.0916 -0.0474  0.2202
25672SOL    HW287331   9.572   9.507  12.640 -0.9212 -0.5511  0.6329
25673SOL     OW87332  11.834   1.814   5.600  0.4132 -0.6991  0.2692
25673SOL    HW187333  11.871   1.765   5.527  2.3924 -0.9832  1.3695
25673SOL    HW287334  11.887   1.893   5.605 -0.6767  0.0409  0.4842
25674SOL     OW87335  10.289  12.409   9.531 -0.3545  0.0462  0.4374
25674SOL    HW187336  10.264  12.390   9.441 -2.1000 -0.1521  0.9413
25674SOL    HW287337  10.250  12.338   9.582 -2.7312  2.1634  1.7713
25675SOL     OW87338   7.545   8.978   0.671 -0.1698  0.6241 -0.6390
25675SOL    HW187339   7.557   8.976   0.576 -0.6972 -1.1372 -0.6920
25675SOL    HW287340   7.474   8.916   0.688 -1.1911  2.0969  0.7770
25676SOL     OW87341   5.520  12.310   6.948  1.0655 -0.2190  0.2788
25676SOL    HW187342   5.564  12.331   6.865  0.2766 -0.2489 -0.1597
25676SOL    HW287343   5.428  12.325   6.930 -0.1275 -6.2125 -0.9403
25677SOL     OW87344  10.977  11.084  11.282  0.2110  0.5265  0.1924
25677SOL    HW187345  10.894  11.132  11.289 -0.4725 -0.6064  0.0952
25677SOL    HW287346  11.016  11.116  11.200 -0.3054  0.7831  0.0427
25678SOL     OW87347  10.690   9.770  12.556  0.3444  0.1418  0.0095
25678SOL    HW187348  10.647   9.768  12.471 -1.9810 -0.1993  1.1177
25678SOL    HW287349  10.769   9.716  12.544 -1.0485 -1.7046 -1.3824
25679SOL     OW87350  12.884  11.366   4.923 -0.2685  0.2773  0.0504
25679SOL    HW187351  12.789  11.376   4.926 -0.2423  0.3150  1.7616
25679SOL    HW287352  12.905  11.364   4.829 -1.9564  0.1283 -0.3621
25680SOL     OW87353   8.506  10.194   4.990 -0.4298  0.6090  0.1918
25680SOL    HW187354   8.448  10.134   4.943  1.0389 -0.3907 -0.4405
25680SOL    HW287355   8.448  10.244   5.048 -1.8039 -0.8631  0.1575
25681SOL     OW87356   7.211  11.562   9.596 -0.3374 -0.4145 -0.0717
25681SOL    HW187357   7.199  11.588   9.505 -0.0125  0.9743  0.2566
25681SOL    HW287358   7.265  11.631   9.634 -1.4655 -0.3356  1.4810
25682SOL     OW87359   0.569   7.046  12.121  0.4068 -0.5534 -0.1727
25682SOL    HW187360   0.638   6.995  12.079 -0.1106 -1.2836 -0.1331
25682SOL    HW287361   0.573   7.020  12.213 -0.1911 -0.9006 -0.2447
25683SOL     OW87362   9.051  12.496  11.133  0.0803  0.5857  0.2770
25683SOL    HW187363   9.088  12.562  11.074 -1.6855  1.5407  0.1615
25683SOL    HW287364   9.022  12.546  11.210 -1.5198  0.0402  0.0736
25684SOL     OW87365   7.391   8.181   1.621  0.1802 -0.0622  0.3096
25684SOL    HW187366   7.436   8.101   1.647 -1.0319 -0.5969  0.7995
25684SOL    HW287367   7.330   8.154   1.553  0.0285  0.5209  0.2074
25685SOL     OW87368  11.865  12.087   2.969 -0.2749 -0.3331  0.4974
25685SOL    HW187369  11.885  12.124   2.884  0.7390 -2.1154 -0.0828
25685SOL    HW287370  11.801  12.018   2.951  0.3981 -1.1298  1.0705
25686SOL     OW87371   0.565   1.785  12.418  0.6745 -0.3641  0.2010
25686SOL    HW187372   0.476   1.759  12.395  0.9357 -1.6357  0.5464
25686SOL    HW287373   0.618   1.708  12.397  1.4796 -0.1522  1.3809
25687SOL     OW87374   1.399  12.062  12.431 -1.0154 -0.0729 -0.0935
25687SOL    HW187375   1.396  12.125  12.503 -1.9337  1.5458 -1.4700
25687SOL    HW287376   1.492  12.040  12.422 -1.0717 -2.2690  3.1056
25688SOL     OW87377   9.022   9.579   6.158  0.4267 -0.2144  0.7141
25688SOL    HW187378   9.007   9.523   6.234 -0.0244 -0.5396  0.3891
25688SOL    HW287379   9.117   9.590   6.154  0.4080  0.7506  2.0040
25689SOL     OW87380  11.788   7.115   3.888  0.1209 -0.1346  0.8910
25689SOL    HW187381  11.814   7.086   3.801 -1.4135 -1.4707  0.8264
25689SOL    HW287382  11.833   7.055   3.948  1.7193  1.2024  1.1140
25690SOL     OW87383   4.696  12.980   9.074 -0.1926  0.4146 -0.5753
25690SOL    HW187384   4.687  12.967   9.169  2.1067 -0.1998 -0.3774
25690SOL    HW287385   4.625  12.929   9.036  1.0261 -2.4536  0.7316
25691SOL     OW87386   9.569   1.481   3.733 -0.2974  0.5392  0.2434
25691SOL    HW187387   9.481   1.501   3.701 -0.6022  0.9741  1.2882
25691SOL    HW287388   9.558   1.474   3.828  0.7660  0.4300  0.3635
25692SOL     OW87389   4.689   1.615  11.554  0.3797  0.3523  0.1708
25692SOL    HW187390   4.741   1.696  11.556 -0.4144  0.8742  0.0664
25692SOL    HW287391   4.665   1.604  11.462 -0.0601  0.3557  0.2834
25693SOL     OW87392  10.982   0.107  11.367 -0.4028  0.3773 -0.2671
25693SOL    HW187393  10.967   0.197  11.340  0.5470  1.0292  1.2969
25693SOL    HW287394  11.076   0.093  11.353  0.0853  0.6517  2.2739
25694SOL     OW87395   2.360   7.791  10.883 -0.1724  0.2575 -0.1253
25694SOL    HW187396   2.353   7.881  10.915 -0.0651 -0.3534  1.7433
25694SOL    HW287397   2.453   7.769  10.892 -0.5596 -0.8270  1.8806
25695SOL     OW87398   5.300  11.798   0.766 -0.0793 -0.3028 -0.7272
25695SOL    HW187399   5.338  11.746   0.836  0.3394  0.3057 -0.4933
25695SOL    HW287400   5.351  11.879   0.766 -0.9468  0.2529 -0.8453
25696SOL     OW87401   4.526  12.513   8.077 -0.4852  0.4142  0.2534
25696SOL    HW187402   4.469  12.579   8.036  1.5896  1.4081 -1.2166
25696SOL    HW287403   4.597  12.500   8.014  0.5815 -1.2921  1.6990
25697SOL     OW87404   2.567   9.246   8.470 -0.3770  0.4408  0.4366
25697SOL    HW187405   2.576   9.257   8.564 -1.2706  0.4552  0.5281
25697SOL    HW287406   2.473   9.238   8.455 -0.1656 -1.2294 -0.2626
25698SOL     OW87407   5.710   9.369   7.700 -0.0165  0.4700  0.2076
25698SOL    HW187408   5.707   9.400   7.790 -0.7927  1.4137 -0.1208
25698SOL    HW287409   5.725   9.275   7.707 -2.3388  0.1302  1.4059
25699SOL     OW87410   2.713   3.698   3.190 -0.0138 -0.2042  0.0286
25699SOL    HW187411   2.634   3.742   3.156  0.4696  0.9735  0.3597
25699SOL    HW287412   2.765   3.680   3.112 -1.0483 -1.9513 -0.3051
25700SOL     OW87413  12.808  12.430   2.000 -0.0329 -0.1095 -0.6054
25700SOL    HW187414  12.765  12.374   2.064 -0.0457 -1.6618 -1.9217
25700SOL    HW287415  12.900  12.403   2.001 -0.1969 -0.7394 -1.8385
25701SOL     OW87416   1.130   8.793   3.363 -0.4090 -0.2455 -0.4794
25701SOL    HW187417   1.119   8.887   3.372  1.1608 -0.0939  0.1632
25701SOL    HW287418   1.048   8.763   3.323 -1.3672  1.2285  0.2904
25702SOL     OW87419   9.344  12.358   7.231  0.0255  0.9007 -0.4191
25702SOL    HW187420   9.416  12.313   7.276  0.7337  1.5189 -0.9257
25702SOL    HW287421   9.324  12.301   7.157 -0.2442  0.5606 -0.0948
25703SOL     OW87422  11.476  10.156  12.432  0.2810  0.1896 -0.5057
25703SOL    HW187423  11.474  10.245  12.397  0.3009  0.3182 -0.1861
25703SOL    HW287424  11.406  10.154  12.497  0.3142 -0.0130 -0.4754
25704SOL     OW87425   3.826   8.615   3.262 -0.4665 -1.1793 -0.0206
25704SOL    HW187426   3.738   8.582   3.283 -0.5295 -0.4375  0.9652
25704SOL    HW287427   3.820   8.709   3.278  0.5325 -1.1368  0.1519
25705SOL     OW87428   3.275  11.982  12.160 -0.0917  0.0978  0.2148
25705SOL    HW187429   3.319  12.019  12.084 -2.7460  0.0767 -1.4518
25705SOL    HW287430   3.301  12.038  12.233  0.6316  1.6033 -1.1469
25706SOL     OW87431   5.910   2.517   5.813 -0.2915 -0.2001 -0.1411
25706SOL    HW187432   5.883   2.485   5.727  0.6264 -1.7553  0.1088
25706SOL    HW287433   5.981   2.459   5.839  0.2391  0.9711  1.1706
25707SOL     OW87434  11.885   5.902   3.786  0.1118 -0.1113 -0.3679
25707SOL    HW187435  11.831   5.829   3.816 -1.1809  0.9412 -0.0403
25707SOL    HW287436  11.910   5.947   3.867 -1.1554  1.2026 -0.6738
25708SOL     OW87437   1.860   4.663   4.277  0.3565 -0.0833 -0.1099
25708SOL    HW187438   1.905   4.695   4.198  1.3793 -0.6235  0.2314
25708SOL    HW287439   1.850   4.741   4.332 -0.7148  0.3756 -0.9183
25709SOL     OW87440   3.856   5.828  11.322 -0.4471 -0.0296  0.1091
25709SOL    HW187441   3.942   5.864  11.299 -0.3729 -0.2045  0.1098
25709SOL    HW287442   3.793   5.885  11.278 -0.4829  2.0223  2.5865
25710SOL     OW87443   0.141   3.508   0.499 -0.0759  0.3085  0.0193
25710SOL    HW187444   0.085   3.558   0.557  0.6872  2.2624 -0.8200
25710SOL    HW287445   0.168   3.571   0.432  1.0654 -1.2118 -1.0241
25711SOL     OW87446   5.561   8.586   3.382  0.0393 -0.3988 -0.6028
25711SOL    HW187447   5.514   8.527   3.441 -0.5288  1.1688  0.5514
25711SOL    HW287448   5.513   8.580   3.299 -0.3863 -1.0684 -0.3132
25712SOL     OW87449   8.296   2.902   2.173  0.1408 -0.2177 -0.3205
25712SOL    HW187450   8.274   2.923   2.082  2.1754 -2.1780 -1.3690
25712SOL    HW287451   8.287   2.807   2.178  2.1358 -0.3890  0.8985
25713SOL     OW87452   3.544   8.944  10.116  0.3156 -0.0196 -0.1231
25713SOL    HW187453   3.616   8.884  10.098  0.4934  0.4859 -1.1769
25713SOL    HW287454   3.482   8.893  10.168  1.2563 -0.5719  0.4680
25714SOL     OW87455  12.858   9.963   4.921 -0.5783  1.1144 -0.6373
25714SOL    HW187456  12.838  10.057   4.915  0.4292  1.3893  0.0773
25714SOL    HW287457  12.837   9.929   4.834  0.0217  2.2128 -1.2461
25715SOL     OW87458   6.353   2.668   2.842 -0.1250  0.1562  0.0012
25715SOL    HW187459   6.446   2.683   2.860 -0.0577 -1.4301  1.1894
25715SOL    HW287460   6.342   2.692   2.750  1.6227 -0.2976 -0.3620
25716SOL     OW87461   5.653   7.789   5.182 -0.1424 -0.8724 -0.2487
25716SOL    HW187462   5.743   7.786   5.215  0.2138 -1.3152 -1.2312
25716SOL    HW287463   5.619   7.701   5.198 -0.6299 -0.5308  0.6953
25717SOL     OW87464   8.102   1.610   8.692 -0.2440 -0.0685  0.5218
25717SOL    HW187465   8.195   1.605   8.669 -0.1540  0.4637  0.7403
25717SOL    HW287466   8.063   1.532   8.654  0.1588  0.0915 -0.2460
25718SOL     OW87467   5.506   1.089   5.461 -0.0218  0.4133 -0.3723
25718SOL    HW187468   5.568   1.134   5.404  2.7916 -2.1434  0.3952
25718SOL    HW287469   5.470   1.158   5.517 -0.3211  2.4519 -2.9001
25719SOL     OW87470  10.676  12.883   8.698  0.5688 -0.7480 -0.0906
25719SOL    HW187471  10.720  12.921   8.621 -1.9551  2.0400 -0.3285
25719SOL    HW287472  10.714  12.929   8.773 -0.2748 -0.0229 -0.1003
25720SOL     OW87473   7.758   4.424   2.505 -0.2482  0.8130  0.3136
25720SOL    HW187474   7.841   4.378   2.519 -0.5054  0.5567  1.0387
25720SOL    HW287475   7.780   4.495   2.445  0.7638  1.5191  1.4785
25721SOL     OW87476  11.117  10.519   0.826 -0.0515 -0.0818  0.2971
25721SOL    HW187477  11.136  10.478   0.741 -2.6991  0.6323 -0.7368
25721SOL    HW287478  11.148  10.609   0.816  0.8488 -0.3399  0.6188
25722SOL     OW87479   5.177   9.654   3.055 -0.3176 -0.2744 -0.5757
25722SOL    HW187480   5.267   9.647   3.087 -0.6731 -1.9044  0.1668
25722SOL    HW287481   5.175   9.737   3.008  0.8472  1.2005  1.7587
25723SOL     OW87482  10.145   7.648   6.764  0.6921  0.2076  0.2774
25723SOL    HW187483  10.120   7.741   6.762 -1.7445 -0.3952 -0.4403
25723SOL    HW287484  10.214   7.640   6.698 -0.2752  1.2072 -0.8956
25724SOL     OW87485  12.545   8.213   3.023  0.6910  0.2465 -0.1028
25724SOL    HW187486  12.632   8.173   3.018  1.2331  0.9538  2.4235
25724SOL    HW287487  12.495   8.156   3.081  0.2511  1.1384  0.4155
25725SOL     OW87488   0.210   5.299   0.149  0.1821  0.2527 -0.3489
25725SOL    HW187489   0.239   5.347   0.071  1.4182 -0.9180 -0.6341
25725SOL    HW287490   0.271   5.326   0.217 -0.3917  0.6366  0.0260
25726SOL     OW87491   6.455   9.468   8.026 -0.0729 -0.2816  0.4557
25726SOL    HW187492   6.400   9.406   7.979  0.1169 -0.8640  0.9921
25726SOL    HW287493   6.396   9.510   8.089 -0.6809  1.5682 -1.2306
25727SOL     OW87494  11.165   6.105   9.173 -0.5538 -0.0589  0.5804
25727SOL    HW187495  11.072   6.091   9.158 -0.9560  2.0724  0.7683
25727SOL    HW287496  11.175   6.096   9.268 -1.0147  1.7820  0.8383
25728SOL     OW87497   2.057   8.323   7.264  0.1234 -0.4510 -0.5956
25728SOL    HW187498   2.137   8.271   7.269  1.3197  0.6485 -4.4371
25728SOL    HW287499   2.088   8.411   7.242 -2.0413  1.0793  1.8970
25729SOL     OW87500  12.937  11.925   6.860 -0.5760 -0.3438 -0.1789
25729SOL    HW187501  12.944  11.883   6.774 -1.3203 -1.9993  0.5125
25729SOL    HW287502  12.857  11.976   6.855 -0.5243 -0.2913 -0.5291
25730SOL     OW87503   3.985   4.685   8.669  0.1458  0.2226  0.1019
25730SOL    HW187504   3.919   4.642   8.613 -0.1024  0.8446 -0.0968
25730SOL    HW287505   3.934   4.745   8.724  0.5525  0.7642 -0.1037
25731SOL     OW87506  10.349   4.089  12.534 -0.2406 -0.0242 -0.9352
25731SOL    HW187507  10.365   4.093  12.440 -0.1990  1.6931 -0.8847
25731SOL    HW287508  10.268   4.138  12.547 -1.5877 -2.2667 -0.3119
25732SOL     OW87509  10.961   0.548   2.371  0.1357 -0.4650 -0.3798
25732SOL    HW187510  10.908   0.567   2.448  0.6755 -0.6356  0.0397
25732SOL    HW287511  10.958   0.628   2.319  0.0888 -0.2119  0.0107
25733SOL     OW87512   4.545   8.132   9.417  0.4239 -0.5201 -0.1932
25733SOL    HW187513   4.557   8.138   9.322  0.7002  0.0286 -0.1293
25733SOL    HW287514   4.532   8.039   9.434 -0.6807 -0.5104 -0.8921
25734SOL     OW87515   0.065   5.411   7.896 -0.2238 -0.1057  0.0873
25734SOL    HW187516   0.160   5.423   7.887 -0.1108 -0.9613  0.1131
25734SOL    HW287517   0.030   5.500   7.890  0.5917  0.2391  0.2419
25735SOL     OW87518   6.622  11.264   4.543  0.6309  0.2588  0.3258
25735SOL    HW187519   6.674  11.344   4.548  2.1364 -0.5948 -0.8568
25735SOL    HW287520   6.616  11.233   4.634  0.3797  1.4649  0.7371
25736SOL     OW87521  11.724   2.495   9.171 -0.2689  0.1014 -0.0538
25736SOL    HW187522  11.771   2.463   9.094  0.3124  1.7088 -0.4051
25736SOL    HW287523  11.762   2.446   9.244 -0.3905 -0.9910 -0.7048
25737SOL     OW87524   7.591   8.244   7.963 -0.0533 -0.0435  0.9720
25737SOL    HW187525   7.673   8.195   7.961  0.3306  0.5778  1.3309
25737SOL    HW287526   7.617   8.336   7.965 -0.7483  0.1508  1.6093
25738SOL     OW87527   3.360   4.825   4.105 -0.2298 -0.1635  0.2077
25738SOL    HW187528   3.321   4.782   4.029  2.0671 -0.4033 -0.9218
25738SOL    HW287529   3.390   4.753   4.161 -1.1296  0.0130  0.9352
25739SOL     OW87530   0.256   2.889   4.405  0.2391 -0.6027 -0.1600
25739SOL    HW187531   0.217   2.897   4.318  0.8039  2.0468 -0.2702
25739SOL    HW287532   0.350   2.896   4.389  0.3395 -0.0362  0.6421
25740SOL     OW87533   1.667   0.180   5.892  0.1756 -0.3280  0.5624
25740SOL    HW187534   1.762   0.184   5.902  0.2235 -0.6624  0.2657
25740SOL    HW287535   1.639   0.271   5.895  0.6160 -0.1489 -0.4318
25741SOL     OW87536  10.854  10.143   4.590  0.5621 -0.3673 -0.1133
25741SOL    HW187537  10.851  10.227   4.634  1.2804 -0.7534  0.7096
25741SOL    HW287538  10.816  10.159   4.503 -1.2729  0.3177  0.7748
25742SOL     OW87539   6.134   1.092   7.407 -0.6207 -0.0977 -0.6495
25742SOL    HW187540   6.187   1.095   7.327  0.4463 -0.3994  0.0322
25742SOL    HW287541   6.104   1.182   7.419  2.3943  0.8390  0.6761
25743SOL     OW87542   3.312   4.674   9.284  0.3540  0.0092 -0.2905
25743SOL    HW187543   3.230   4.700   9.325 -0.6714 -1.6893 -1.1239
25743SOL    HW287544   3.379   4.700   9.347 -0.9225  0.1359  1.0949
25744SOL     OW87545   0.891  12.708   8.277 -0.0497  0.7320  0.0958
25744SOL    HW187546   0.942  12.746   8.348 -0.6400  0.4880  0.6582
25744SOL    HW287547   0.888  12.614   8.297  1.1538  0.4054 -1.1222
25745SOL     OW87548   2.564   2.761  11.865  0.2569  0.0324  0.1098
25745SOL    HW187549   2.645   2.811  11.872 -1.1273  2.8850 -2.1074
25745SOL    HW287550   2.495   2.827  11.869 -1.8037 -1.8746 -1.5410
25746SOL     OW87551   1.503  12.660   1.880 -0.2797 -0.7850  0.0238
25746SOL    HW187552   1.595  12.666   1.903 -0.5685  1.6671  0.8461
25746SOL    HW287553   1.463  12.611   1.952  0.0623 -0.0301  0.7377
25747SOL     OW87554  12.111   1.892   8.649 -0.9178  0.3187 -0.9216
25747SOL    HW187555  12.163   1.820   8.685 -0.6058  1.8816  2.0630
25747SOL    HW287556  12.020   1.867   8.666 -0.8364  0.3590 -0.4055
25748SOL     OW87557   6.630   9.080   0.337  0.3058  0.5847 -0.1958
25748SOL    HW187558   6.722   9.060   0.320  0.2406 -0.3489  0.4178
25748SOL    HW287559   6.611   9.034   0.420 -0.5122  1.3626  0.0631
25749SOL     OW87560   6.430   9.722   1.798 -0.0712 -0.5731 -0.7149
25749SOL    HW187561   6.473   9.806   1.812 -1.0200  0.3348 -2.7788
25749SOL    HW287562   6.500   9.663   1.769  0.2911  0.0344 -1.0809
25750SOL     OW87563   6.733  11.183   0.154  0.2279  0.3154  0.4864
25750SOL    HW187564   6.781  11.258   0.189  0.7296  1.3279 -2.1707
25750SOL    HW287565   6.793  11.142   0.092 -0.8152 -1.0197  0.2982
25751SOL     OW87566  10.396   0.855   2.200  0.1891 -0.0908 -0.4059
25751SOL    HW187567  10.464   0.791   2.217 -0.0870  0.1044  1.6314
25751SOL    HW287568  10.357   0.827   2.116  2.5640 -0.3154 -1.5131
25752SOL     OW87569  11.550   9.453   4.368  0.8296 -0.3505  0.1033
25752SOL    HW187570  11.534   9.544   4.343  1.1035 -0.0127  1.1083
25752SOL    HW287571  11.643   9.438   4.348  0.5495 -0.7273 -0.9811
25753SOL     OW87572   3.531   6.451   9.216  0.2009  0.1375 -0.0214
25753SOL    HW187573   3.622   6.446   9.246  0.1062 -0.4827  0.1835
25753SOL    HW287574   3.487   6.378   9.261 -0.3309  0.2563 -0.3401
25754SOL     OW87575   5.061   3.517   2.875  0.3633 -0.1635  0.1460
25754SOL    HW187576   5.125   3.562   2.819  1.5691 -0.3035  1.3576
25754SOL    HW287577   4.990   3.580   2.886  1.3992  0.9460  0.7031
25755SOL     OW87578   0.084   3.037   3.630  0.3063  0.3459  0.5064
25755SOL    HW187579   0.049   3.112   3.678 -0.5884  0.0402  0.3425
25755SOL    HW287580   0.054   3.049   3.540 -0.1882 -0.4030  0.5573
25756SOL     OW87581   7.827   5.112  11.728 -0.3579 -0.7255 -0.0528
25756SOL    HW187582   7.885   5.122  11.653  0.9362 -0.3199  0.9694
25756SOL    HW287583   7.777   5.194  11.730  3.2170  1.6819  2.4312
25757SOL     OW87584   3.338   5.392   3.856 -0.3621  0.5642 -0.0353
25757SOL    HW187585   3.383   5.371   3.774  1.0955 -1.1227  1.1135
25757SOL    HW287586   3.313   5.307   3.892 -2.8565  1.3706  0.3095
25758SOL     OW87587  12.161   3.863   5.536  0.2846  0.1686  0.2657
25758SOL    HW187588  12.080   3.886   5.491  0.6311  1.9964  0.5012
25758SOL    HW287589  12.156   3.911   5.619  1.4727  0.0849  0.3931
25759SOL     OW87590   9.864   4.173   8.031  0.0419 -0.4265  0.5674
25759SOL    HW187591   9.954   4.152   8.010  0.3195  0.2066  1.0867
25759SOL    HW287592   9.843   4.249   7.977  0.3138  0.3479  1.5077
25760SOL     OW87593   6.531   8.686   7.318 -0.3644 -0.2843 -0.5472
25760SOL    HW187594   6.474   8.762   7.315  1.1674  0.9586  0.1965
25760SOL    HW287595   6.580   8.690   7.235 -0.5677 -0.7043 -0.6904
25761SOL     OW87596  12.035   5.637  10.765  0.9262  0.0392  0.1425
25761SOL    HW187597  11.952   5.621  10.720 -0.0950  3.7376  0.3457
25761SOL    HW287598  12.093   5.568  10.733 -2.3180 -3.1829  0.5286
25762SOL     OW87599  11.277   7.363   0.760 -0.1440 -0.1745 -0.2912
25762SOL    HW187600  11.302   7.327   0.845 -0.9560  0.0865  0.0647
25762SOL    HW287601  11.182   7.366   0.762 -0.1639  0.0527 -1.1260
25763SOL     OW87602  12.592   0.048   6.279 -0.0035  0.2053  0.3171
25763SOL    HW187603  12.679   0.012   6.301  0.0059 -0.4066 -0.6376
25763SOL    HW287604  12.531  -0.023   6.300 -0.1441  0.1751 -0.1978
25764SOL     OW87605   2.143  11.358  10.553 -0.1948  0.3473  0.2400
25764SOL    HW187606   2.077  11.309  10.504  1.5677 -2.1944  0.1695
25764SOL    HW287607   2.135  11.448  10.522 -2.7036 -0.1190 -0.6858
25765SOL     OW87608   2.148   7.198   9.379  0.3268 -0.0415  0.5216
25765SOL    HW187609   2.078   7.205   9.445 -1.1997  0.2183 -1.0511
25765SOL    HW287610   2.104   7.164   9.301  1.6533  1.4555 -0.9596
25766SOL     OW87611   9.426   6.352   7.697  0.0960  0.0265  0.3556
25766SOL    HW187612   9.427   6.440   7.734  0.3274  0.4912 -0.6985
25766SOL    HW287613   9.342   6.345   7.652 -0.2312 -0.5712  1.0264
25767SOL     OW87614   3.259   4.474   2.081  0.0134  0.7644  0.3531
25767SOL    HW187615   3.221   4.393   2.116  0.1354 -0.0526 -1.2586
25767SOL    HW287616   3.342   4.446   2.042 -0.5864  1.3488 -1.4831
25768SOL     OW87617   3.002   0.530   9.650  0.7200 -0.5616 -0.4568
25768SOL    HW187618   3.012   0.623   9.634 -1.3313 -0.2689 -0.2603
25768SOL    HW287619   3.088   0.492   9.627  1.4584  1.2855 -0.9040
25769SOL     OW87620   2.953   7.665  11.827 -0.5713 -0.0530 -0.8464
25769SOL    HW187621   2.869   7.705  11.805 -0.9644 -1.0032 -1.1736
25769SOL    HW287622   2.980   7.620  11.746  0.6384  0.8628 -0.9880
25770SOL     OW87623   1.956   6.856   5.574  0.0377  0.3798 -0.0670
25770SOL    HW187624   2.021   6.831   5.509 -0.8647 -0.3165 -0.7341
25770SOL    HW287625   1.876   6.871   5.523 -0.4202  0.8525  0.7706
25771SOL     OW87626   4.453   4.446   1.554  0.2611 -0.0463 -0.5330
25771SOL    HW187627   4.467   4.468   1.461  1.9787 -0.6886 -0.4601
25771SOL    HW287628   4.495   4.518   1.602 -1.1905  0.6273 -0.2106
25772SOL     OW87629  12.166   7.345   0.089  0.2181  0.0692  0.5391
25772SOL    HW187630  12.110   7.415   0.056  0.8430  0.1042 -0.4979
25772SOL    HW287631  12.163   7.354   0.184 -2.1572 -0.4167  0.5739
25773SOL     OW87632   9.499   8.460   4.065  0.1116 -0.0409 -0.3974
25773SOL    HW187633   9.554   8.538   4.075  0.1305 -0.1163  0.1516
25773SOL    HW287634   9.412   8.494   4.045 -0.2014  0.2063  1.1999
25774SOL     OW87635  12.604  11.482   3.321  0.3689  0.2064  0.1746
25774SOL    HW187636  12.684  11.440   3.289  0.8839 -0.1263  1.8167
25774SOL    HW287637  12.543  11.410   3.335 -0.7180  0.5561 -2.2326
25775SOL     OW87638   4.983   6.292   9.889  0.1245 -0.6573 -0.1030
25775SOL    HW187639   4.954   6.338   9.810  0.5472 -0.9155 -0.4143
25775SOL    HW287640   4.918   6.315   9.955  0.8846  1.2633  0.0465
25776SOL     OW87641  10.723   1.832   3.469  0.2640  0.2238  0.4570
25776SOL    HW187642  10.711   1.919   3.507  0.0181  0.0183  0.8569
25776SOL    HW287643  10.802   1.797   3.511 -0.4288 -0.3016  1.3502
25777SOL     OW87644   7.662  12.479   0.070  0.1699 -0.2294  0.5421
25777SOL    HW187645   7.593  12.414   0.080  0.3958 -0.1343  3.6662
25777SOL    HW287646   7.618  12.554   0.030 -1.1689 -0.7102  1.0614
25778SOL     OW87647   3.205   2.889  11.335 -0.1206  0.7243  0.4416
25778SOL    HW187648   3.159   2.958  11.288  0.6519  0.8282 -0.1809
25778SOL    HW287649   3.298   2.911  11.324  0.1344 -0.4143  0.2284
25779SOL     OW87650   7.139   8.657   1.831 -0.0875  0.0259 -0.4347
25779SOL    HW187651   7.128   8.709   1.752 -2.4924  0.0218 -0.1703
25779SOL    HW287652   7.084   8.580   1.817 -0.3362 -0.1173  1.1124
25780SOL     OW87653   2.610  10.717   3.843  0.3510  0.9492  0.2141
25780SOL    HW187654   2.529  10.763   3.820  0.6235  1.6917  0.7010
25780SOL    HW287655   2.636  10.756   3.926  1.9224  1.6466 -0.5724
25781SOL     OW87656   3.955   3.909   0.499 -0.0380  0.1037  0.2894
25781SOL    HW187657   3.875   3.873   0.461  0.2806 -0.1833 -0.1256
25781SOL    HW287658   3.961   3.870   0.586  0.5735 -1.2973 -0.3405
25782SOL     OW87659  11.913   3.128   5.401  0.1047  0.2369 -0.4920
25782SOL    HW187660  11.921   3.069   5.476 -0.6734  2.5743  1.5696
25782SOL    HW287661  11.944   3.077   5.326 -0.8798 -2.8532  1.0760
25783SOL     OW87662   1.384  10.473   5.593 -0.0350  0.6046  0.2279
25783SOL    HW187663   1.412  10.406   5.531  1.9741 -2.5212  4.0763
25783SOL    HW287664   1.464  10.522   5.614  0.0422 -0.2660  2.2527
25784SOL     OW87665   3.661  12.498   4.078 -0.8914 -0.4718  0.1160
25784SOL    HW187666   3.713  12.445   4.017 -1.8237 -0.8085 -0.4080
25784SOL    HW287667   3.674  12.588   4.050 -0.6055 -0.5570 -0.0250
25785SOL     OW87668   3.321   7.395   5.507 -0.0176  0.5155  0.0913
25785SOL    HW187669   3.229   7.419   5.491  0.3459  2.2541  0.4100
25785SOL    HW287670   3.349   7.454   5.577  1.9131  1.4684 -1.3855
25786SOL     OW87671   7.269   8.073   2.408  0.1041 -0.1171 -0.2804
25786SOL    HW187672   7.319   8.082   2.327 -2.3912 -0.3043 -1.9388
25786SOL    HW287673   7.288   7.984   2.438  1.4652  0.1316 -0.3246
25787SOL     OW87674  11.197  12.050   5.136  0.4576  0.2424 -0.1192
25787SOL    HW187675  11.282  12.090   5.120  1.7048 -1.7417  1.0829
25787SOL    HW287676  11.186  11.988   5.063  0.1755  0.2905 -0.1181
25788SOL     OW87677   9.631   8.081  10.563 -0.1105  0.1451 -0.4266
25788SOL    HW187678   9.576   8.151  10.528 -0.2509 -0.5057 -1.5185
25788SOL    HW287679   9.572   8.029  10.618  0.3869  1.9064  1.9518
25789SOL     OW87680  11.182  11.829   7.888  0.0900  0.2986 -0.1015
25789SOL    HW187681  11.166  11.742   7.925 -0.2473  0.6509  0.6009
25789SOL    HW287682  11.104  11.880   7.910 -0.4983  0.3192 -2.0027
25790SOL     OW87683  12.548  10.877  11.169  0.1396 -0.5725 -0.4552
25790SOL    HW187684  12.597  10.795  11.161 -0.4098 -1.1623  1.6010
25790SOL    HW287685  12.613  10.945  11.152  0.7532 -1.4050 -1.5842
25791SOL     OW87686   1.487   1.733   7.782  0.5245  0.1324 -0.0857
25791SOL    HW187687   1.567   1.747   7.832 -0.0979  0.6675  0.7774
25791SOL    HW287688   1.500   1.647   7.741  2.3504  1.0308 -1.5768
25792SOL     OW87689   9.971   2.248   8.471 -0.0859 -0.6130  0.0752
25792SOL    HW187690   9.964   2.273   8.379 -0.2393  1.0161  0.5120
25792SOL    HW287691  10.030   2.172   8.470  0.1489 -0.4433 -1.3267
25793SOL     OW87692   7.753   2.273   3.293  0.6139 -0.8080  0.3725
25793SOL    HW187693   7.698   2.202   3.326  0.0581  0.0117  1.2564
25793SOL    HW287694   7.759   2.335   3.366  0.8069  0.2218 -0.4864
25794SOL     OW87695  11.338   2.893   8.103  0.3791 -0.7368 -0.1044
25794SOL    HW187696  11.365   2.808   8.137 -1.0010 -1.8708 -1.7159
25794SOL    HW287697  11.369   2.893   8.012 -2.0429 -0.7199 -0.9807
25795SOL     OW87698   3.697   7.372  10.829  0.2883 -0.6289  0.0377
25795SOL    HW187699   3.721   7.285  10.797  1.8116 -0.3876  0.4266
25795SOL    HW287700   3.625   7.399  10.773 -1.5865 -2.9393  1.1727
25796SOL     OW87701   0.783  10.222  11.326 -0.7133 -0.1430  0.1044
25796SOL    HW187702   0.821  10.135  11.336 -0.1641  0.0445 -0.3406
25796SOL    HW287703   0.853  10.276  11.289 -1.4138  0.1843 -0.8037
25797SOL     OW87704   7.407   6.767   4.808 -0.2354 -0.7582  0.0876
25797SOL    HW187705   7.421   6.692   4.750  1.5760 -0.0618 -0.4327
25797SOL    HW287706   7.386   6.839   4.749 -2.6340 -0.9301  0.6273
25798SOL     OW87707   9.158   0.460   1.858  0.1543 -0.1766 -0.4745
25798SOL    HW187708   9.143   0.367   1.841 -0.1355 -0.1206 -0.5309
25798SOL    HW287709   9.080   0.503   1.824  0.6929  0.1784 -1.2927
25799SOL     OW87710   5.059   9.865   1.391  0.1663 -0.3273 -0.0974
25799SOL    HW187711   5.065   9.958   1.369  0.0739  0.0284  1.3128
25799SOL    HW287712   4.965   9.848   1.400  0.1276 -0.7755 -1.1430
25800SOL     OW87713   2.103   5.977   9.875  0.5030  0.1534  0.2584
25800SOL    HW187714   2.083   5.950   9.785  0.8499  0.4517  0.0845
25800SOL    HW287715   2.170   5.915   9.904 -0.3734 -0.6072  0.7023
25801SOL     OW87716   5.016   7.424  12.161 -0.4500  0.2460 -0.0898
25801SOL    HW187717   5.056   7.356  12.108 -1.5649  0.4922 -1.3025
25801SOL    HW287718   4.968   7.478  12.098 -1.8719  0.5143  1.1690
25802SOL     OW87719  10.702   7.546   9.746  0.1972  0.0034 -0.8955
25802SOL    HW187720  10.666   7.545   9.835  0.8286 -0.0262 -0.6343
25802SOL    HW287721  10.735   7.457   9.733 -0.2267 -0.0982 -1.3041
25803SOL     OW87722   2.467   0.208   0.167  0.4174  0.1177  0.2015
25803SOL    HW187723   2.519   0.244   0.239 -1.2999  1.4565  0.8255
25803SOL    HW287724   2.516   0.131   0.139  0.5772 -1.1775  3.5921
25804SOL     OW87725  10.923   3.780  11.646  0.0999 -0.3116 -0.6822
25804SOL    HW187726  10.902   3.742  11.561 -0.4208 -0.6579 -0.3966
25804SOL    HW287727  10.906   3.874  11.635  0.8625 -0.2220 -1.2162
25805SOL     OW87728   5.531   9.403  10.704  0.0738 -0.1786 -0.0026
25805SOL    HW187729   5.468   9.469  10.735 -2.4545 -0.8618 -3.0629
25805SOL    HW287730   5.522   9.330  10.765 -2.0268 -0.1415 -0.1922
25806SOL     OW87731  11.493   8.798   6.058 -0.0308  0.6378  0.1859
25806SOL    HW187732  11.504   8.705   6.080  2.7791  0.8380 -0.0389
25806SOL    HW287733  11.451   8.796   5.972 -0.2883 -0.4307  0.3139
25807SOL     OW87734  12.544  10.569   0.965 -0.1351  0.4746  0.4550
25807SOL    HW187735  12.622  10.574   0.910 -0.3298  0.8912  0.2160
25807SOL    HW287736  12.535  10.658   1.001  0.3844  0.0474  1.7026
25808SOL     OW87737  12.017   3.196   9.092  0.2343 -0.7659 -0.4480
25808SOL    HW187738  11.926   3.166   9.103  0.4166 -0.7588  1.3723
25808SOL    HW287739  12.040   3.235   9.177  1.3097  1.0137 -1.4894
25809SOL     OW87740   2.226   0.871   7.531  0.1709 -0.4481  0.1299
25809SOL    HW187741   2.247   0.939   7.595 -1.0491  0.2515 -0.1792
25809SOL    HW287742   2.208   0.793   7.583  0.3953 -0.2209  0.5573
25810SOL     OW87743   0.538   3.979   9.149 -0.7389 -0.1224 -0.3648
25810SOL    HW187744   0.468   3.934   9.197 -0.0768 -1.7412 -0.8417
25810SOL    HW287745   0.603   3.911   9.133  1.0104  1.3401  0.1464
25811SOL     OW87746   5.436   2.781   9.516  0.1634  0.6661 -0.3773
25811SOL    HW187747   5.409   2.808   9.428  0.1253  0.4116 -0.4433
25811SOL    HW287748   5.466   2.691   9.506 -1.5641  0.0015  0.2075
25812SOL     OW87749   2.491   3.203   7.495  0.3485  0.8340  0.4374
25812SOL    HW187750   2.431   3.133   7.521  0.9249  0.0128 -0.3568
25812SOL    HW287751   2.564   3.157   7.452  1.1467  1.8635  0.6456
25813SOL     OW87752   5.394   5.297   2.729  0.5332  0.2665  0.0409
25813SOL    HW187753   5.368   5.389   2.730  0.1008  0.1572 -0.6463
25813SOL    HW287754   5.485   5.298   2.702  0.2250  0.4300 -1.0142
25814SOL     OW87755  10.904   9.482  11.026  0.1952  0.1434  0.6118
25814SOL    HW187756  10.828   9.482  11.084  0.4296  1.7328  0.9478
25814SOL    HW287757  10.940   9.570  11.033  1.7066 -0.3889 -0.0299
25815SOL     OW87758   4.155   6.218   0.111 -0.2204  0.1088  0.1673
25815SOL    HW187759   4.070   6.175   0.122 -0.1447 -0.0673  0.0646
25815SOL    HW287760   4.214   6.148   0.085 -0.6934  0.7198 -3.0084
25816SOL     OW87761  11.810   0.602   6.509  0.3307  0.9281 -0.2524
25816SOL    HW187762  11.736   0.556   6.549 -0.4110  2.1614 -0.1626
25816SOL    HW287763  11.819   0.563   6.422  1.8226 -1.6369  0.9117
25817SOL     OW87764   5.160   2.219   9.379 -0.0120 -0.3318  0.7183
25817SOL    HW187765   5.246   2.258   9.393 -0.4075  0.5513  0.7951
25817SOL    HW287766   5.099   2.281   9.419 -0.8960  0.4742 -1.6433
25818SOL     OW87767   4.326   3.803   7.169  0.5978  0.0486 -0.0903
25818SOL    HW187768   4.382   3.788   7.244  1.6261  0.3761 -0.7770
25818SOL    HW287769   4.264   3.730   7.171  1.0128 -0.2948  0.7048
25819SOL     OW87770   2.313   2.576   8.108 -0.0710  0.3403 -0.6036
25819SOL    HW187771   2.334   2.629   8.031  1.6683  2.5858  1.2673
25819SOL    HW287772   2.226   2.604   8.133 -0.5934 -0.3020 -1.6117
25820SOL     OW87773   1.227   2.152  11.110 -0.0175 -0.0926  0.5659
25820SOL    HW187774   1.145   2.198  11.095 -0.8403 -0.0865  4.1920
25820SOL    HW287775   1.201   2.065  11.140  1.2826 -0.3603  0.9916
25821SOL     OW87776  12.818   3.480   2.469  0.1127 -1.0372  0.3670
25821SOL    HW187777  12.846   3.557   2.420 -2.7355  0.1538  0.3914
25821SOL    HW287778  12.835   3.503   2.561 -2.1352  0.3543  0.5204
25822SOL     OW87779   7.469   9.012   4.563  0.4397 -0.2962 -0.4581
25822SOL    HW187780   7.379   8.980   4.551  0.5545 -0.3120 -1.2874
25822SOL    HW287781   7.506   8.952   4.628 -0.3192  0.0617  0.3354
25823SOL     OW87782   2.582   6.251  10.127 -0.5736 -0.4414  0.4500
25823SOL    HW187783   2.540   6.188  10.069 -1.5911  1.3119 -0.8459
25823SOL    HW287784   2.510   6.302  10.164  0.2403  0.5737  0.6934
25824SOL     OW87785   7.138   1.841  12.567 -0.8035  0.2822 -0.2907
25824SOL    HW187786   7.156   1.890  12.647  1.1976  0.1527 -0.6037
25824SOL    HW287787   7.209   1.865  12.508 -0.7947 -1.5758 -1.1065
25825SOL     OW87788  10.212   9.250   7.304 -0.3803  0.2112  0.2598
25825SOL    HW187789  10.261   9.331   7.291  0.0089 -0.2048 -0.9833
25825SOL    HW287790  10.140   9.255   7.241 -1.7046  0.5958  1.7379
25826SOL     OW87791   7.226   0.878   1.712 -0.6045 -0.1646 -0.7881
25826SOL    HW187792   7.316   0.909   1.701 -1.1122  0.8357 -2.4368
25826SOL    HW287793   7.234   0.783   1.713  0.6770 -0.0934  1.3707
25827SOL     OW87794   3.204  12.006   1.807 -0.0952 -0.2104 -0.1227
25827SOL    HW187795   3.144  12.079   1.788  0.0652  0.2211  0.9233
25827SOL    HW287796   3.229  11.972   1.721  0.2876  1.3567 -0.6633
25828SOL     OW87797  10.340   2.382   6.650  0.4180 -0.3395 -0.6331
25828SOL    HW187798  10.252   2.417   6.662  0.3016 -0.2897 -1.5055
25828SOL    HW287799  10.327   2.291   6.625  0.7130 -0.9720  1.4031
25829SOL     OW87800   7.010   9.122  10.090  0.2310  0.1585  0.1933
25829SOL    HW187801   7.094   9.078  10.077  1.0228  1.7490 -0.3142
25829SOL    HW287802   7.033   9.206  10.130 -0.9653  1.2313 -1.2549
25830SOL     OW87803  11.476   4.682   4.430 -0.2956  0.3557  0.0917
25830SOL    HW187804  11.426   4.718   4.504 -0.0963  0.1984  0.3043
25830SOL    HW287805  11.412   4.676   4.359 -0.0834  2.1185 -0.2823
25831SOL     OW87806   2.818   5.427  11.553 -0.8125 -0.3309  0.0420
25831SOL    HW187807   2.890   5.449  11.495  0.0755 -0.5583  1.0112
25831SOL    HW287808   2.759   5.502  11.549  0.6532  0.9459  1.0083
25832SOL     OW87809   1.498  10.433   3.238  0.0559  0.4981  0.4402
25832SOL    HW187810   1.488  10.476   3.153 -1.6346 -0.0579  0.3273
25832SOL    HW287811   1.558  10.360   3.221 -0.8075 -0.0278 -0.4488
25833SOL     OW87812   4.209   0.285   1.995  0.3041 -0.2650 -0.1428
25833SOL    HW187813   4.254   0.334   1.926 -1.1077  2.4354  0.7623
25833SOL    HW287814   4.129   0.253   1.954  0.6460 -0.8095 -0.3995
25834SOL     OW87815   5.252   5.909  10.168  0.4945 -0.3297 -0.1179
25834SOL    HW187816   5.341   5.877  10.156  1.1007  0.9824  0.7498
25834SOL    HW287817   5.242   5.921  10.262 -0.5877 -0.4084 -0.2019
25835SOL     OW87818  10.903  11.635   3.238 -0.9126  0.4487 -0.1540
25835SOL    HW187819  10.933  11.689   3.165  1.0665  0.6398  0.7346
25835SOL    HW287820  10.981  11.624   3.293 -2.1024 -0.5246  1.4126
25836SOL     OW87821  10.000  12.134  11.204  0.5439  0.0619 -0.4754
25836SOL    HW187822  10.004  12.202  11.270 -0.4989  0.2217 -0.5734
25836SOL    HW287823   9.910  12.135  11.173  1.3692  1.1690 -3.1277
25837SOL     OW87824   0.466  11.631  10.801  0.1131 -0.0987  0.2926
25837SOL    HW187825   0.531  11.618  10.731 -1.4753  0.7397 -1.4395
25837SOL    HW287826   0.398  11.686  10.760 -0.6916  0.7840  2.6455
25838SOL     OW87827  11.605  10.588   5.552  0.0703  0.0348 -0.4553
25838SOL    HW187828  11.639  10.677   5.566 -1.3224  0.2968  1.5268
25838SOL    HW287829  11.515  10.601   5.524  0.2042 -0.7669 -1.3183
25839SOL     OW87830   7.389   5.421   2.838  0.4686 -0.1558  0.6892
25839SOL    HW187831   7.320   5.380   2.890  0.1673 -0.1102  0.3318
25839SOL    HW287832   7.419   5.352   2.778  0.5052 -0.0800  0.6193
25840SOL     OW87833   9.635  11.741   0.025 -0.0458  0.2560 -0.1781
25840SOL    HW187834   9.541  11.749   0.043 -0.5440  2.0287 -2.9851
25840SOL    HW287835   9.640  11.713  -0.066  2.1801 -0.2865  0.0510
25841SOL     OW87836   6.344   4.858   2.510  0.4552  0.6589  0.3651
25841SOL    HW187837   6.365   4.805   2.587  0.8659  0.5839  0.2021
25841SOL    HW287838   6.425   4.861   2.461  0.5270  1.7296  0.5392
25842SOL     OW87839  11.682   1.469   4.185 -0.4101  0.3669 -0.1897
25842SOL    HW187840  11.756   1.409   4.195 -0.3839 -0.0063 -2.1065
25842SOL    HW287841  11.630   1.457   4.264  1.3884  0.4051  1.0691
25843SOL     OW87842  11.371   3.180  10.890 -0.3495 -0.5418 -0.0363
25843SOL    HW187843  11.448   3.151  10.842 -0.8450 -1.8021 -0.1152
25843SOL    HW287844  11.297   3.150  10.836 -0.9338  2.2305 -0.9029
25844SOL     OW87845   8.786   1.337  11.624  0.0574 -0.0319 -0.3352
25844SOL    HW187846   8.753   1.323  11.535  1.6069 -2.0114 -0.6804
25844SOL    HW287847   8.708   1.341  11.679 -0.8978 -3.0826 -1.2865
25845SOL     OW87848   5.889   4.581   7.046 -0.6082 -0.0083 -0.3554
25845SOL    HW187849   5.870   4.487   7.050  0.3542 -0.3041 -1.7402
25845SOL    HW287850   5.839   4.613   6.972 -0.1740  0.3625 -0.4987
25846SOL     OW87851   4.925   5.163   1.947  0.2770 -0.4237 -0.1636
25846SOL    HW187852   4.855   5.122   1.997  0.2012 -0.4689 -0.3061
25846SOL    HW287853   5.005   5.141   1.995  0.2331 -0.7195 -0.2277
25847SOL     OW87854   5.907  11.425   9.093  0.5663 -0.4731 -0.2102
25847SOL    HW187855   5.940  11.401   9.006  0.4963 -1.4683  0.0225
25847SOL    HW287856   5.984  11.421   9.149  1.0402  2.1393 -0.5473
25848SOL     OW87857   0.999   0.188   4.060 -0.1402  0.4607 -0.1063
25848SOL    HW187858   1.005   0.239   3.979 -1.7574  1.1889  0.1879
25848SOL    HW287859   1.089   0.185   4.093  0.1495  2.4593 -0.5571
25849SOL     OW87860   1.372   6.435   4.061  0.6012  0.0719 -0.0067
25849SOL    HW187861   1.436   6.497   4.096  0.3941 -0.5806  1.5864
25849SOL    HW287862   1.425   6.365   4.022  0.9321 -0.8513  1.9792
25850SOL     OW87863  10.917   4.983   6.264 -0.0330  0.4579  0.1790
25850SOL    HW187864  10.868   4.902   6.250  0.1777  0.3386  0.1343
25850SOL    HW287865  10.984   4.983   6.196 -1.3792  1.7312 -1.2263
25851SOL     OW87866   4.356  12.336   3.549  0.0854 -0.2338 -0.4227
25851SOL    HW187867   4.332  12.384   3.469 -1.0131 -0.9755 -0.5585
25851SOL    HW287868   4.275  12.294   3.577  0.4380  0.0345  1.1198
25852SOL     OW87869  11.144   3.550   0.278  1.0360  0.5220  0.1105
25852SOL    HW187870  11.131   3.533   0.184 -0.4753  0.4101  0.3012
25852SOL    HW287871  11.230   3.514   0.297  0.6289 -1.1079 -0.8722
25853SOL     OW87872   8.834   3.805   5.403  0.5601  0.4468 -0.0451
25853SOL    HW187873   8.920   3.805   5.445  0.1734  1.9367  0.8039
25853SOL    HW287874   8.780   3.747   5.457  0.8402  0.0344 -0.2022
25854SOL     OW87875   6.447  11.850   0.706 -0.2854  0.1951 -0.5132
25854SOL    HW187876   6.424  11.824   0.617  0.3135  0.4632 -0.7472
25854SOL    HW287877   6.457  11.767   0.753 -0.8026  0.0559 -0.6402
25855SOL     OW87878   4.706   1.318  11.588  0.2433  0.4749  0.4036
25855SOL    HW187879   4.732   1.407  11.564  1.2999  0.4525  1.4066
25855SOL    HW287880   4.679   1.278  11.505  2.6854  0.7735 -0.6333
25856SOL     OW87881   1.687   1.218   1.938  0.2735 -0.4081 -0.1869
25856SOL    HW187882   1.624   1.278   1.899  0.6509 -0.9722 -1.7398
25856SOL    HW287883   1.634   1.146   1.972  0.0662 -1.6780 -2.9007
25857SOL     OW87884   4.700  12.557   9.161  0.2033 -0.1137 -0.2577
25857SOL    HW187885   4.671  12.579   9.072  0.4450  0.3589 -0.2223
25857SOL    HW287886   4.634  12.595   9.218  0.2356 -0.1125 -0.2207
25858SOL     OW87887   5.927  11.906   6.846 -0.2523  0.1673 -0.0790
25858SOL    HW187888   5.857  11.892   6.782  1.0603  0.3081 -1.5916
25858SOL    HW287889   5.944  12.000   6.843 -1.2968  0.4724  1.7468
25859SOL     OW87890   3.364   3.155   4.755 -0.2768 -0.1343 -0.7591
25859SOL    HW187891   3.275   3.136   4.784  0.0774 -1.0327 -0.2416
25859SOL    HW287892   3.358   3.242   4.716 -0.8972  0.8821  1.4662
25860SOL     OW87893   4.293   7.476   2.103 -0.2982 -0.5246 -0.4586
25860SOL    HW187894   4.385   7.495   2.082 -0.7686 -1.0470 -3.4313
25860SOL    HW287895   4.286   7.381   2.095 -0.8699 -0.6186  0.9527
25861SOL     OW87896  11.630   4.280   6.035 -0.3450  0.0588  0.0217
25861SOL    HW187897  11.541   4.314   6.027  0.1939  1.2440 -1.3509
25861SOL    HW287898  11.624   4.189   6.004 -1.0866  0.0881  0.0617
25862SOL     OW87899  10.800   3.616   3.690 -0.2032 -0.2534  0.6098
25862SOL    HW187900  10.872   3.648   3.636  0.7822  0.2104  2.1254
25862SOL    HW287901  10.737   3.579   3.628  1.7002 -1.4228 -0.7160
25863SOL     OW87902  11.126   7.412  12.397 -0.1069  0.5221  0.0655
25863SOL    HW187903  11.119   7.451  12.485 -3.3138 -0.3958  0.3226
25863SOL    HW287904  11.094   7.481  12.338  3.5696  1.7746 -0.7643
25864SOL     OW87905   0.676   3.980   3.847  0.4348  0.2602 -0.1911
25864SOL    HW187906   0.771   3.981   3.840  0.5442 -1.0198  0.6715
25864SOL    HW287907   0.647   3.923   3.776  0.4841 -0.8962  0.6757
25865SOL     OW87908   9.824   1.648   3.852  0.2251  0.0282 -0.2392
25865SOL    HW187909   9.809   1.624   3.943 -0.6269  1.3517  0.0089
25865SOL    HW287910   9.738   1.638   3.810  0.5411 -0.2824 -0.8265
25866SOL     OW87911  12.470   6.545   2.173 -0.2263  0.2649  0.2988
25866SOL    HW187912  12.557   6.579   2.154 -0.5458  1.0821  0.2438
25866SOL    HW287913  12.461   6.468   2.115  0.6146 -0.0967  0.6332
25867SOL     OW87914  12.079  11.156   8.555  0.1923 -0.4888 -0.0266
25867SOL    HW187915  12.073  11.131   8.648  0.5492 -0.7106 -0.0625
25867SOL    HW287916  12.084  11.073   8.508  0.9337 -0.3692 -0.1776
25868SOL     OW87917   3.002   3.788   5.162 -0.1227  0.6250  0.2194
25868SOL    HW187918   2.963   3.747   5.239  1.4657  0.5583  1.0396
25868SOL    HW287919   2.951   3.756   5.088 -0.6400 -0.6307  1.0955
25869SOL     OW87920   4.614   3.321   8.061  0.1904  0.2298  0.2922
25869SOL    HW187921   4.596   3.284   8.147  1.5675 -0.4940  0.3021
25869SOL    HW287922   4.546   3.285   8.004 -2.0840  2.4237  1.4423
25870SOL     OW87923  11.965  12.160   4.464  0.6753  0.1590  0.3897
25870SOL    HW187924  11.958  12.106   4.543  0.7259  1.2876  1.1886
25870SOL    HW287925  12.018  12.107   4.404  0.5758 -0.7486  1.0817
25871SOL     OW87926  12.866   3.802   7.079  0.3733 -0.5292  0.4892
25871SOL    HW187927  12.834   3.733   7.138 -1.3542 -0.9806 -0.8933
25871SOL    HW287928  12.796   3.812   7.014  1.4323  1.2089 -0.4468
25872SOL     OW87929   5.659  11.065   9.195  0.0082 -0.3450  0.3727
25872SOL    HW187930   5.749  11.088   9.173 -0.1251 -1.0788 -1.0877
25872SOL    HW287931   5.666  11.018   9.278  0.9691 -0.3994  0.2731
25873SOL     OW87932  10.948   6.910  10.146  0.3093  0.3299 -0.5993
25873SOL    HW187933  11.011   6.961  10.197  1.7961 -1.5675 -0.4017
25873SOL    HW287934  10.901   6.975  10.094  1.3045  1.9827  0.4595
25874SOL     OW87935   8.180   3.323   2.005 -0.3037 -0.4391 -0.2969
25874SOL    HW187936   8.268   3.293   2.027 -0.3773 -1.5283 -1.3606
25874SOL    HW287937   8.173   3.309   1.910 -1.7172 -0.6512 -0.1838
25875SOL     OW87938   0.826   4.963  11.505  0.1983 -0.1525 -0.3712
25875SOL    HW187939   0.780   4.884  11.534 -1.2599  0.9776  0.5004
25875SOL    HW287940   0.902   4.929  11.456 -0.9269 -2.0867 -0.9019
25876SOL     OW87941   3.137  12.262  10.537 -0.8599  0.0832  0.3030
25876SOL    HW187942   3.195  12.229  10.606  0.0972  0.6871 -0.1924
25876SOL    HW287943   3.059  12.292  10.583 -0.7464 -0.6558  0.9944
25877SOL     OW87944   4.225  12.014   4.946  0.1406 -0.2612 -0.1552
25877SOL    HW187945   4.277  11.969   5.012  0.0574  3.1628  2.5093
25877SOL    HW287946   4.138  11.973   4.952  0.7497 -1.5583  0.1346
25878SOL     OW87947  11.420  10.689  12.345  0.3923  0.6783  0.0313
25878SOL    HW187948  11.328  10.672  12.324  0.2804  0.5741  0.5879
25878SOL    HW287949  11.429  10.784  12.336  0.2695  0.6717 -0.1751
25879SOL     OW87950   0.043   8.148  12.155  0.5081  0.1183  0.0477
25879SOL    HW187951   0.016   8.191  12.074  0.9820 -0.9905 -0.7157
25879SOL    HW287952   0.015   8.208  12.224  0.4785  1.2846 -0.9462
25880SOL     OW87953   6.249   8.796   9.422 -0.5563 -0.2215  0.3400
25880SOL    HW187954   6.211   8.708   9.418 -1.3137  0.0367  1.4471
25880SOL    HW287955   6.279   8.805   9.513 -1.4497  1.0361  0.5373
25881SOL     OW87956  11.502   4.406  10.411  0.3378  0.0497 -0.0346
25881SOL    HW187957  11.552   4.440  10.486 -0.1600 -0.1963  0.4149
25881SOL    HW287958  11.412   4.436  10.427 -0.0072 -1.0006  0.0928
25882SOL     OW87959   5.236   9.219   8.036  0.1440 -0.5496 -0.1592
25882SOL    HW187960   5.188   9.171   7.968  0.5366 -1.1569 -0.0155
25882SOL    HW287961   5.275   9.293   7.990 -1.1333  0.1048 -0.2337
25883SOL     OW87962   4.416   2.613  10.884  0.4897 -0.3818 -0.5937
25883SOL    HW187963   4.370   2.696  10.873 -3.6227 -2.3984 -0.5933
25883SOL    HW287964   4.361   2.563  10.944  3.7456 -2.5162  0.8569
25884SOL     OW87965   3.594   5.404   3.341 -0.2293 -0.0756  0.1820
25884SOL    HW187966   3.662   5.414   3.408  0.4213  2.0228 -0.7105
25884SOL    HW287967   3.624   5.331   3.287  1.1976  0.6486 -0.0435
25885SOL     OW87968   6.571   3.853   4.683 -0.5253 -0.2643 -0.4894
25885SOL    HW187969   6.660   3.871   4.714 -1.1991 -0.3012  1.6210
25885SOL    HW287970   6.546   3.932   4.635 -0.0025  0.5173  0.4803
25886SOL     OW87971   2.048  10.217   1.706 -0.2467 -0.0101  0.9919
25886SOL    HW187972   2.119  10.176   1.656 -0.1991 -0.7087  1.6071
25886SOL    HW287973   2.026  10.295   1.656  0.1098 -0.4453  0.1242
25887SOL     OW87974  10.036   1.596   6.179 -0.6238  0.3053  0.1795
25887SOL    HW187975  10.024   1.611   6.273 -0.4058  0.7027  0.1458
25887SOL    HW287976  10.031   1.683   6.140 -0.0447  0.2173 -0.0973
25888SOL     OW87977   5.142   1.225  10.355  0.4824 -0.2803  0.1005
25888SOL    HW187978   5.171   1.315  10.340  0.0975 -0.1335  0.2148
25888SOL    HW287979   5.142   1.185  10.268 -1.2250  0.4069 -0.2655
25889SOL     OW87980  11.087   3.310  10.197  0.0207 -0.2633  0.0310
25889SOL    HW187981  11.124   3.234  10.153 -0.9066 -0.7542  0.0520
25889SOL    HW287982  11.162   3.359  10.230  0.6216 -1.9792  1.3611
25890SOL     OW87983  12.481   6.131  10.739 -0.0793 -0.2341  0.4275
25890SOL    HW187984  12.529   6.055  10.706  1.7779  1.0786 -0.0266
25890SOL    HW287985  12.494   6.127  10.834  1.3547  0.3398  0.2799
25891SOL     OW87986  11.950   6.769   4.203 -0.4433  0.5365  0.5409
25891SOL    HW187987  11.991   6.750   4.119  0.9611  0.1013  1.2944
25891SOL    HW287988  11.931   6.684   4.241 -0.5673  0.7267  0.9133
25892SOL     OW87989   4.728   3.589   8.384  0.6661  0.5800  0.0869
25892SOL    HW187990   4.746   3.496   8.400 -1.7914  0.2005  1.2062
25892SOL    HW287991   4.711   3.594   8.290  0.8718 -0.0844  0.0017
25893SOL     OW87992   0.230   5.820   6.931 -0.3223  0.2820  0.2870
25893SOL    HW187993   0.297   5.880   6.900 -0.8438  0.4284 -0.5661
25893SOL    HW287994   0.153   5.840   6.879 -1.0785  0.1917  1.3265
25894SOL     OW87995  12.248   6.157  12.536 -0.3237  0.1723 -0.0287
25894SOL    HW187996  12.331   6.149  12.490  0.1409 -1.1652  0.9776
25894SOL    HW287997  12.263   6.227  12.599 -0.1208  0.2635 -0.1760
25895SOL     OW87998   6.717   9.228  11.897  0.0007  0.2480  0.2263
25895SOL    HW187999   6.703   9.153  11.839  0.1060  1.2735 -1.2018
25895SOL    HW288000   6.658   9.214  11.970  1.4604 -2.2244  1.0570
25896SOL     OW88001   3.566   5.048   2.611 -0.1055  0.4158 -0.2645
25896SOL    HW188002   3.573   5.018   2.521  1.5104  1.3303 -0.4818
25896SOL    HW288003   3.518   4.978   2.656  1.9855 -1.6994 -1.1131
25897SOL     OW88004   4.587   2.856   6.543  0.2013  0.1708 -0.4853
25897SOL    HW188005   4.584   2.936   6.596  1.8272 -0.5763  0.8271
25897SOL    HW288006   4.606   2.887   6.454  0.0595  1.2678 -0.1560
25898SOL     OW88007   0.289   3.479   5.173 -0.0294 -0.3458  0.3017
25898SOL    HW188008   0.267   3.389   5.198  2.5587 -1.4911 -1.0516
25898SOL    HW288009   0.269   3.532   5.250 -0.6125 -2.2568  1.5261
25899SOL     OW88010   7.557  10.154   1.379 -0.2672  0.5459 -0.8482
25899SOL    HW188011   7.597  10.120   1.299  0.8428  1.9458 -0.9234
25899SOL    HW288012   7.501  10.225   1.349  1.1863  1.9695 -0.3140
25900SOL     OW88013  12.327   7.146   8.297 -0.2160 -0.1865  0.1824
25900SOL    HW188014  12.241   7.176   8.267  0.3252 -0.3538 -1.7175
25900SOL    HW288015  12.385   7.219   8.280  0.5612 -1.1527 -1.6375
25901SOL     OW88016   9.477  11.052   0.974  0.1168 -0.3558 -0.5718
25901SOL    HW188017   9.440  11.140   0.978 -0.6324 -0.6812 -0.0731
25901SOL    HW288018   9.407  10.998   0.937 -0.4754 -1.2413  1.6626
25902SOL     OW88019   2.091   5.660   2.501 -0.2406  0.5848 -0.4500
25902SOL    HW188020   2.008   5.635   2.462 -0.7632  1.5843  0.0119
25902SOL    HW288021   2.136   5.576   2.516 -1.0452  0.0558 -0.9204
25903SOL     OW88022   7.403   2.042   9.023  0.7030 -0.8253  0.4304
25903SOL    HW188023   7.473   2.034   9.088  2.6668 -3.5318 -1.7611
25903SOL    HW288024   7.332   1.988   9.058  1.5735 -1.9102  0.5934
25904SOL     OW88025  12.158   0.688   8.722  0.0080  0.4184 -0.3997
25904SOL    HW188026  12.211   0.715   8.796 -1.2432  1.7550  0.0504
25904SOL    HW288027  12.199   0.607   8.690  1.2641  0.4944  0.9810
25905SOL     OW88028   5.270   6.241  10.924 -0.3500 -0.6641  0.3528
25905SOL    HW188029   5.311   6.156  10.940  0.1272 -0.1686  1.9465
25905SOL    HW288030   5.208   6.251  10.996  1.0306  1.1695  1.3790
25906SOL     OW88031   0.780  12.826  12.217  0.0805 -0.6990 -0.1219
25906SOL    HW188032   0.820  12.887  12.155  0.6570 -2.6047 -1.7019
25906SOL    HW288033   0.712  12.781  12.167 -1.5772 -0.1655  1.5177
25907SOL     OW88034   3.037   7.277   3.677 -0.3374  0.4298  0.2680
25907SOL    HW188035   2.990   7.292   3.759  0.4505 -1.7045  1.1845
25907SOL    HW288036   2.975   7.228   3.622 -0.0601 -0.2778  0.5623
25908SOL     OW88037   4.388   2.396  11.518  0.1605  0.6642  0.5098
25908SOL    HW188038   4.308   2.440  11.547 -0.6461  0.1537 -0.8356
25908SOL    HW288039   4.458   2.438  11.567 -1.0157  0.3673  2.5882
25909SOL     OW88040   0.976   6.888   6.801 -0.5091 -0.0078  0.2641
25909SOL    HW188041   0.981   6.978   6.769  1.0671  0.9766  2.9427
25909SOL    HW288042   1.019   6.837   6.733 -0.0690  1.5008 -0.6499
25910SOL     OW88043   6.698   6.506  10.355 -0.2539  0.2266 -0.4243
25910SOL    HW188044   6.757   6.465  10.291  1.4957  1.1514  0.5342
25910SOL    HW288045   6.617   6.454  10.349  0.4314 -0.7492 -2.1645
25911SOL     OW88046   2.393   3.508   7.263 -0.0990  0.1611  0.2041
25911SOL    HW188047   2.427   3.518   7.352  1.4055  0.8953 -0.4200
25911SOL    HW288048   2.461   3.458   7.217 -0.7748 -0.0537 -0.5944
25912SOL     OW88049   2.850   0.633   5.574 -0.0949 -0.2922 -0.2337
25912SOL    HW188050   2.829   0.565   5.510 -1.2066  0.1391 -0.3522
25912SOL    HW288051   2.833   0.592   5.659  1.8739 -1.0328 -0.1526
25913SOL     OW88052   8.329   9.599   0.362  0.2014 -0.5890 -0.2725
25913SOL    HW188053   8.414   9.621   0.323  0.2994  0.1994  0.3605
25913SOL    HW288054   8.282   9.683   0.366 -0.1619 -0.8201  0.4431
25914SOL     OW88055   8.933   8.697  11.262  0.2995  0.5542 -0.0165
25914SOL    HW188056   8.920   8.614  11.308  1.5429 -0.0701 -0.7381
25914SOL    HW288057   8.913   8.764  11.327  0.5864 -0.3026  0.9854
25915SOL     OW88058   6.835   9.178   1.270 -0.5492  0.2014  0.3179
25915SOL    HW188059   6.876   9.114   1.212 -1.8809  0.1579 -0.6462
25915SOL    HW288060   6.807   9.128   1.346 -0.9801 -0.2395 -0.1230
25916SOL     OW88061  10.694   9.044   0.063  0.7312 -0.1747 -0.1014
25916SOL    HW188062  10.784   9.010   0.060  0.3064 -1.3172 -1.3164
25916SOL    HW288063  10.665   9.040  -0.028  0.2632  2.5448 -0.1280
25917SOL     OW88064   4.984  10.519   0.945 -1.0346 -0.4875  0.2061
25917SOL    HW188065   5.054  10.567   0.901 -1.0161 -1.0437 -0.3767
25917SOL    HW288066   4.904  10.563   0.916 -0.9541 -0.0421  0.6374
25918SOL     OW88067  10.792  11.720   4.035  0.4826  0.0125 -0.7047
25918SOL    HW188068  10.745  11.685   3.960 -0.8080  0.4491 -0.1200
25918SOL    HW288069  10.779  11.814   4.031  0.9982  0.1068 -0.3246
25919SOL     OW88070   7.181  11.540   7.949 -0.2403 -0.1723 -0.1842
25919SOL    HW188071   7.250  11.487   7.989 -0.2781 -0.1629 -0.1083
25919SOL    HW288072   7.101  11.491   7.963 -0.5613  0.7547  1.4871
25920SOL     OW88073   2.617   9.695   5.830 -0.1913  0.0241 -0.1708
25920SOL    HW188074   2.650   9.605   5.833 -0.0515  0.0995  2.0367
25920SOL    HW288075   2.679   9.741   5.773  1.7892 -0.5275  1.4270
25921SOL     OW88076  10.498  11.515   7.473  0.5989 -0.4299 -0.2922
25921SOL    HW188077  10.453  11.600   7.476  3.1177  1.1009 -2.2659
25921SOL    HW288078  10.528  11.502   7.563  1.0706  1.3175 -0.1548
25922SOL     OW88079  12.181   8.253   3.307  0.8879  0.5376 -0.1192
25922SOL    HW188080  12.185   8.316   3.235 -2.8979  1.3659  0.2061
25922SOL    HW288081  12.183   8.167   3.264  0.9087  0.9792 -1.0206
25923SOL     OW88082  10.650   1.231  11.953 -0.2728  0.5017 -0.2946
25923SOL    HW188083  10.690   1.307  11.910 -3.8836  2.2868 -0.9052
25923SOL    HW288084  10.594   1.192  11.885 -1.2653 -0.5046  1.0412
25924SOL     OW88085   3.807   8.156   3.711 -0.2545 -0.4106 -0.3501
25924SOL    HW188086   3.869   8.226   3.728 -0.5435 -0.1629 -0.3086
25924SOL    HW288087   3.859   8.086   3.671  0.5751 -1.2290  1.9784
25925SOL     OW88088   8.747  10.192   7.237  1.2180 -0.5155  0.3795
25925SOL    HW188089   8.809  10.241   7.183 -0.7823  1.1946 -0.5258
25925SOL    HW288090   8.686  10.153   7.175  0.1358 -0.3430  1.2960
25926SOL     OW88091   7.176  12.347   4.977  0.3684  0.5435  0.0163
25926SOL    HW188092   7.104  12.304   5.023  0.3397 -0.0872 -0.6049
25926SOL    HW288093   7.138  12.428   4.944  0.2160  0.6906  0.5503
25927SOL     OW88094   3.244   8.655   7.206  0.2054  0.3958  0.1729
25927SOL    HW188095   3.281   8.570   7.233  0.8501  0.6526  0.1237
25927SOL    HW288096   3.244   8.707   7.285  0.8290  0.7030 -0.0206
25928SOL     OW88097   2.286  12.278   1.706  0.3355 -0.0858  0.0077
25928SOL    HW188098   2.292  12.373   1.694 -2.8678  0.4401  1.5124
25928SOL    HW288099   2.291  12.265   1.800  0.2817 -1.3789 -0.1478
25929SOL     OW88100   6.490   8.124   1.067  0.2128  0.0971  0.3071
25929SOL    HW188101   6.436   8.195   1.032 -1.3826 -0.9170  0.6128
25929SOL    HW288102   6.521   8.077   0.990  1.1259  0.9820  0.1099
25930SOL     OW88103   4.266   3.413   3.492  0.0680  0.0356 -0.4040
25930SOL    HW188104   4.311   3.497   3.480 -2.7932  2.1527  2.1247
25930SOL    HW288105   4.180   3.426   3.452 -0.9419 -1.1321  1.2724
25931SOL     OW88106   0.303   2.926   0.058 -0.3746 -0.4485  0.1752
25931SOL    HW188107   0.378   2.919  -0.001  1.2451 -1.6759  2.2159
25931SOL    HW288108   0.303   3.018   0.085  0.3350 -0.3913  0.0145
25932SOL     OW88109   6.728   7.825   7.565  0.7497  0.3630 -0.1768
25932SOL    HW188110   6.667   7.897   7.580  1.1887  0.6102  0.4661
25932SOL    HW288111   6.809   7.853   7.608  1.3215  0.0340 -0.9996
25933SOL     OW88112  12.503  10.115   4.956  0.7100  0.5351  0.0136
25933SOL    HW188113  12.557  10.191   4.934  0.7172  0.0002 -2.0613
25933SOL    HW288114  12.545  10.042   4.910 -1.1521 -0.0894 -0.7795
25934SOL     OW88115  10.366   9.437   9.428  0.0228  0.6244 -0.6644
25934SOL    HW188116  10.417   9.364   9.395  1.9775  1.2237  0.8296
25934SOL    HW288117  10.280   9.428   9.386  0.4354 -2.0528 -1.0842
25935SOL     OW88118   1.543   9.695   9.829  0.2507  0.0151 -0.4648
25935SOL    HW188119   1.612   9.632   9.809  0.2210 -0.3793  0.6357
25935SOL    HW288120   1.541   9.753   9.752 -1.0629 -2.4638 -2.4604
25936SOL     OW88121   2.815  10.862  11.450 -0.1211  0.0339  0.1505
25936SOL    HW188122   2.850  10.918  11.518  2.5533 -0.3863 -0.7800
25936SOL    HW288123   2.878  10.791  11.441 -0.7667 -0.3468 -2.2154
25937SOL     OW88124   2.437   3.690   3.392  0.5347  0.0154  0.1802
25937SOL    HW188125   2.435   3.786   3.398  1.9079  0.3430 -2.8281
25937SOL    HW288126   2.521   3.670   3.351 -0.5628 -2.2845 -1.1547
25938SOL     OW88127   1.698  12.593  10.770  0.2397 -0.8293  0.2222
25938SOL    HW188128   1.610  12.560  10.793  0.4538 -1.9426 -0.4439
25938SOL    HW288129   1.746  12.515  10.742  1.4117 -0.2115  0.4532
25939SOL     OW88130   0.812   3.614   0.538 -0.1981  0.1988  0.0316
25939SOL    HW188131   0.782   3.702   0.559  1.8388  0.2283  3.6759
25939SOL    HW288132   0.900   3.626   0.501 -0.0330 -0.2855  0.2503
25940SOL     OW88133   2.718   2.000  10.941 -0.0533  0.1223 -0.0842
25940SOL    HW188134   2.701   2.077  10.995 -0.1668  0.0985 -0.0847
25940SOL    HW288135   2.645   1.997  10.880  0.2471  0.3367 -0.4549
25941SOL     OW88136   4.251   1.664  11.730 -0.4725 -0.8089  0.6782
25941SOL    HW188137   4.286   1.733  11.674 -0.1255 -0.7974  0.9062
25941SOL    HW288138   4.312   1.591  11.718 -1.8075 -1.7179 -0.9390
25942SOL     OW88139  11.496   0.547   4.926  0.2517  0.0283  0.0921
25942SOL    HW188140  11.434   0.494   4.875  0.2355 -0.4794  0.6358
25942SOL    HW288141  11.512   0.624   4.871 -0.5222 -0.0452 -0.2487
25943SOL     OW88142   2.331  12.906   3.668  0.3636 -0.4189 -0.6945
25943SOL    HW188143   2.423  12.881   3.671  0.6326  0.6101  0.5985
25943SOL    HW288144   2.314  12.947   3.753 -0.3564  2.6447 -2.1679
25944SOL     OW88145  10.113   4.205   8.356 -0.4897 -0.1512 -0.0320
25944SOL    HW188146  10.094   4.203   8.262 -1.0117 -2.3719  0.0584
25944SOL    HW288147  10.079   4.289   8.386 -0.2969  0.6020 -1.8241
25945SOL     OW88148   6.931   4.713   1.133  0.0809 -0.0078  0.0179
25945SOL    HW188149   6.964   4.649   1.197  0.5314 -0.4707 -0.6546
25945SOL    HW288150   6.878   4.661   1.073  0.1206  0.3276 -0.3084
25946SOL     OW88151   4.943   0.415  11.316  0.1752  0.0429  0.1025
25946SOL    HW188152   4.963   0.385  11.405  0.1985  0.8956  0.3904
25946SOL    HW288153   5.005   0.367  11.261  0.8706  0.2724  0.6595
25947SOL     OW88154   7.487   0.630   5.353 -0.0430  0.2290 -0.0653
25947SOL    HW188155   7.398   0.657   5.332 -0.9220 -0.8424  1.9819
25947SOL    HW288156   7.476   0.556   5.413  2.2416 -0.6508 -0.6212
25948SOL     OW88157   0.042   9.863   1.008  0.3738 -0.2830  1.0458
25948SOL    HW188158   0.059   9.942   1.059 -0.2143  0.7879 -0.3465
25948SOL    HW288159  -0.053   9.854   1.009  0.0171  1.5813 -2.3438
25949SOL     OW88160  12.626  11.251   9.781 -0.3923  0.1892 -0.4128
25949SOL    HW188161  12.625  11.250   9.877  0.7090  0.0544 -0.3888
25949SOL    HW288162  12.658  11.339   9.759 -0.8350  0.2890 -0.6618
25950SOL     OW88163  10.275  11.653   2.011  0.2356 -0.4691  0.1267
25950SOL    HW188164  10.281  11.648   1.915  1.1033 -0.2262  0.1566
25950SOL    HW288165  10.209  11.720   2.027  2.0327  1.5078 -0.3400
25951SOL     OW88166   4.838  10.814   9.131  0.0667 -0.5069  1.1178
25951SOL    HW188167   4.851  10.865   9.211 -0.3370 -0.8391  1.3942
25951SOL    HW288168   4.911  10.752   9.131  2.5246  2.0735 -0.8456
25952SOL     OW88169   6.148  11.709   2.383  0.1507 -0.5077 -0.1354
25952SOL    HW188170   6.162  11.802   2.361  0.4777 -0.6935 -0.7340
25952SOL    HW288171   6.179  11.662   2.306  0.9354 -1.1609  0.5695
25953SOL     OW88172   1.536   5.937   7.699 -0.5000 -0.2426  0.8434
25953SOL    HW188173   1.463   5.951   7.759 -1.6742  0.2722 -0.6368
25953SOL    HW288174   1.595   6.010   7.716 -0.6933 -0.2341  1.5183
25954SOL     OW88175   9.429   0.856  11.263 -0.0557  0.6062 -0.1814
25954SOL    HW188176   9.515   0.842  11.223  0.4449  1.8609  0.4008
25954SOL    HW288177   9.432   0.807  11.344 -0.9316 -1.6266 -1.4267
25955SOL     OW88178   0.245   4.929   3.466  0.0616 -0.2557 -0.3997
25955SOL    HW188179   0.180   4.998   3.452  0.2665  0.0816  0.2729
25955SOL    HW288180   0.223   4.893   3.552  0.2382 -0.7159 -0.5475
25956SOL     OW88181  12.203   2.255   7.972  0.1058 -0.6203  0.2576
25956SOL    HW188182  12.281   2.198   7.973 -0.2428 -1.0941  0.8406
25956SOL    HW288183  12.217   2.316   8.044  0.2255 -0.3110 -0.0273
25957SOL     OW88184   7.351  12.971   0.110  0.0278 -0.8328  0.3188
25957SOL    HW188185   7.264  13.011   0.098  0.1612 -0.5097  0.4165
25957SOL    HW288186   7.339  12.880   0.085  0.3355 -0.1841 -2.6001
25958SOL     OW88187   9.850   4.560   4.278  0.0087  0.0772 -1.3298
25958SOL    HW188188   9.855   4.478   4.228 -0.4072 -0.5872 -0.3222
25958SOL    HW288189   9.761   4.592   4.262 -0.8217 -1.1774  0.5176
25959SOL     OW88190  11.827   2.286   2.241  0.0160 -0.0932 -0.2331
25959SOL    HW188191  11.828   2.381   2.226  0.1458 -0.0493  0.0374
25959SOL    HW288192  11.803   2.278   2.334  0.8187 -0.2952 -0.0357
25960SOL     OW88193  11.955   5.533   6.429  0.0455  0.2591 -0.0772
25960SOL    HW188194  11.880   5.577   6.387  1.0722  0.5659 -1.6929
25960SOL    HW288195  11.923   5.510   6.516 -1.0842  2.7881  0.2885
25961SOL     OW88196   2.358   7.358   1.308 -0.0265  0.1825  0.1014
25961SOL    HW188197   2.439   7.366   1.259  0.1037 -1.8823 -0.0834
25961SOL    HW288198   2.294   7.327   1.244 -0.9257  1.5046  0.3107
25962SOL     OW88199   9.098  10.504   2.374  0.1903 -0.4488 -0.4809
25962SOL    HW188200   9.049  10.573   2.418  0.8988 -0.6830  0.7267
25962SOL    HW288201   9.045  10.482   2.297 -0.5042  0.7744 -0.3688
25963SOL     OW88202   3.361   3.677   4.736 -0.0208  0.2795  0.0472
25963SOL    HW188203   3.408   3.756   4.763  0.6366 -0.1662  0.2575
25963SOL    HW288204   3.293   3.666   4.802  0.3338  0.2819  0.4188
25964SOL     OW88205   9.020   9.132   8.367 -0.3195  0.0324 -0.0791
25964SOL    HW188206   9.099   9.161   8.413  1.3517 -0.1367 -2.6871
25964SOL    HW288207   8.985   9.211   8.326 -1.5688  0.1063  1.0588
25965SOL     OW88208   1.644   6.499  11.291 -0.5826  0.0689 -0.1563
25965SOL    HW188209   1.615   6.415  11.327 -0.9938  0.4438  0.4259
25965SOL    HW288210   1.564   6.539  11.257 -0.5479  0.5930  0.3578
25966SOL     OW88211   2.618   2.154  10.556  0.2299 -1.1080 -0.0862
25966SOL    HW188212   2.683   2.216  10.589 -1.0558 -0.5076  1.4249
25966SOL    HW288213   2.562   2.205  10.498 -0.1252 -1.1203  0.2393
25967SOL     OW88214  11.645   5.210   7.286  0.1607 -0.4015  0.1280
25967SOL    HW188215  11.637   5.153   7.209 -2.7819 -0.4690  0.3546
25967SOL    HW288216  11.656   5.298   7.250  2.2117 -0.7666 -0.2551
25968SOL     OW88217   2.145   3.207   1.226 -0.2723  0.0754  0.0851
25968SOL    HW188218   2.065   3.160   1.248  0.2519 -0.5161  0.7557
25968SOL    HW288219   2.123   3.299   1.240 -1.6228  0.1824 -2.2291
25969SOL     OW88220   3.415   2.718   7.366  0.5950 -0.1821 -0.0295
25969SOL    HW188221   3.430   2.741   7.274  0.6505 -2.6028 -0.6935
25969SOL    HW288222   3.503   2.702   7.401  0.7883  2.8213  1.1458
25970SOL     OW88223   2.637   1.769   7.065  0.5564  0.7175 -0.0982
25970SOL    HW188224   2.595   1.834   7.009 -0.5973 -0.2920 -0.4535
25970SOL    HW288225   2.712   1.739   7.013  0.0678  0.5016 -0.6967
25971SOL     OW88226   4.580  12.625  11.030  0.1472 -0.6830 -0.2276
25971SOL    HW188227   4.523  12.691  10.991  0.6797  0.2898  0.5634
25971SOL    HW288228   4.620  12.580  10.956  0.3473  0.4118 -0.7991
25972SOL     OW88229   1.872   7.658  11.921 -0.1605  0.3610 -0.3794
25972SOL    HW188230   1.939   7.667  11.853  1.2449  0.2453  0.9356
25972SOL    HW288231   1.835   7.571  11.908 -0.1878  0.4971 -1.2311
25973SOL     OW88232   1.084  10.533   5.721  0.2198  0.5592  0.0200
25973SOL    HW188233   1.174  10.509   5.697 -0.4827 -1.5946 -0.6467
25973SOL    HW288234   1.061  10.603   5.660  0.6320 -0.5609 -1.4740
25974SOL     OW88235   4.991  10.590  11.210  0.5024 -0.2479  0.0029
25974SOL    HW188236   5.040  10.607  11.291  2.5107 -0.0648 -1.1812
25974SOL    HW288237   4.952  10.675  11.188  0.9464  0.0011  0.1566
25975SOL     OW88238  12.281   6.152  10.561 -0.4088  0.1786  0.6565
25975SOL    HW188239  12.316   6.124  10.645  1.1760  0.4395  0.1151
25975SOL    HW288240  12.315   6.241  10.550 -2.3213  0.9534  0.6702
25976SOL     OW88241   2.904   0.369   6.248  0.2085 -0.0228 -0.5496
25976SOL    HW188242   2.959   0.294   6.230  1.7862  0.9832 -0.0837
25976SOL    HW288243   2.833   0.334   6.302  2.1019 -0.8283  1.5770
25977SOL     OW88244   6.787   8.872   9.363  0.2363 -0.3002  0.1009
25977SOL    HW188245   6.870   8.830   9.341 -0.5159 -2.7737  1.4573
25977SOL    HW288246   6.722   8.824   9.312 -0.4702  0.9076 -0.1624
25978SOL     OW88247   7.160   9.794   8.614  0.7170  0.8959 -0.0294
25978SOL    HW188248   7.254   9.811   8.601  0.6104  2.0419  0.6242
25978SOL    HW288249   7.119   9.879   8.605 -0.2216  0.4691  0.1488
25979SOL     OW88250   0.847   2.524   4.625  0.3788  0.1608 -0.2857
25979SOL    HW188251   0.799   2.523   4.542  1.1702  1.4428 -0.7827
25979SOL    HW288252   0.810   2.599   4.672  0.4179 -0.1430  0.2337
25980SOL     OW88253   0.748   8.059   6.550  0.0431 -0.1101 -0.2055
25980SOL    HW188254   0.723   7.987   6.492  0.6298 -1.5852  1.2873
25980SOL    HW288255   0.664   8.098   6.576 -0.4225 -1.4165  0.3527
25981SOL     OW88256   5.940  12.879   4.929 -0.0194 -0.0914  0.2749
25981SOL    HW188257   5.999  12.945   4.967  0.0412 -0.0073  0.0397
25981SOL    HW288258   5.873  12.930   4.884  0.0059 -0.1880  0.1244
25982SOL     OW88259   5.583  12.385  12.605 -0.5304  0.2885 -0.4082
25982SOL    HW188260   5.533  12.339  12.537 -1.1927 -0.9566  0.8565
25982SOL    HW288261   5.563  12.336  12.685  0.9493  1.1562  0.5212
25983SOL     OW88262   0.105  12.255   9.004 -0.1840  0.0999 -0.0372
25983SOL    HW188263   0.099  12.235   9.098  1.2870  1.5243  0.4183
25983SOL    HW288264   0.020  12.293   8.982 -0.4917 -0.0960  0.7658
25984SOL     OW88265   3.307  12.596   9.848 -0.0910  0.0777 -0.0176
25984SOL    HW188266   3.266  12.585   9.934  0.5051  1.5043  0.4847
25984SOL    HW288267   3.399  12.616   9.868 -0.3423  2.3318 -0.8828
25985SOL     OW88268   5.248   8.290  11.943 -0.3722 -0.3198  0.2750
25985SOL    HW188269   5.234   8.292  12.038 -0.9555  2.3844  0.2075
25985SOL    HW288270   5.160   8.278  11.906 -0.2728 -0.3440  0.0457
25986SOL     OW88271   3.171  10.334   6.563  0.4327 -0.4311 -0.1067
25986SOL    HW188272   3.100  10.270   6.550 -0.0214  0.2366 -1.0284
25986SOL    HW288273   3.250  10.281   6.567  0.1181 -1.0390 -1.3229
25987SOL     OW88274   3.968   0.266   7.241 -0.2780 -0.1955  0.0894
25987SOL    HW188275   3.921   0.250   7.159 -2.1448  1.8367  0.6656
25987SOL    HW288276   4.051   0.304   7.214 -0.4572 -0.4460 -0.8628
25988SOL     OW88277   9.347   8.726   3.233 -0.2380 -0.3041  0.4274
25988SOL    HW188278   9.398   8.802   3.205  0.0247 -0.3085  0.8907
25988SOL    HW288279   9.341   8.671   3.154  0.4078 -0.2673  0.3435
25989SOL     OW88280  11.404   6.584   3.778  0.3267 -0.1898  0.5757
25989SOL    HW188281  11.454   6.505   3.761  0.7055 -0.0187  0.8781
25989SOL    HW288282  11.382   6.618   3.691  0.6376 -0.3306  0.4417
25990SOL     OW88283   3.171   3.951   0.298 -0.1561 -0.7092 -0.4743
25990SOL    HW188284   3.116   3.944   0.220 -1.4890 -2.7961  0.5417
25990SOL    HW288285   3.228   3.873   0.295  2.2590  0.9720 -1.0677
25991SOL     OW88286   5.488   4.465   2.555 -0.8074 -0.4281 -0.3027
25991SOL    HW188287   5.575   4.483   2.589 -0.2844 -1.7968 -0.8244
25991SOL    HW288288   5.442   4.549   2.559 -0.0182 -0.0303  1.5232
25992SOL     OW88289   0.227   0.171   2.433  0.5381 -0.0760  0.3365
25992SOL    HW188290   0.182   0.087   2.425 -1.3765  0.7205  2.0043
25992SOL    HW288291   0.272   0.167   2.517  3.0647 -0.5189 -0.9156
25993SOL     OW88292   2.344   2.666  11.244 -0.5443  0.2300 -0.0010
25993SOL    HW188293   2.317   2.641  11.332  0.7854 -1.4795 -0.0219
25993SOL    HW288294   2.430   2.708  11.257  0.1120 -0.9103 -0.5384
25994SOL     OW88295   2.212   4.885   6.166 -0.2977 -0.6300 -0.3970
25994SOL    HW188296   2.207   4.891   6.070 -0.1611 -0.8249 -0.4177
25994SOL    HW288297   2.141   4.826   6.190 -0.6025 -0.2345 -0.3416
25995SOL     OW88298   5.771  11.477   4.236  0.5607  0.7532 -0.0203
25995SOL    HW188299   5.751  11.459   4.327  0.2251  0.2714 -0.1884
25995SOL    HW288300   5.850  11.532   4.239  2.2484 -1.5695  0.4584
25996SOL     OW88301   0.010   6.462   2.808  0.2159  0.4908 -0.3726
25996SOL    HW188302   0.027   6.413   2.888 -0.6823  2.3427  1.0372
25996SOL    HW288303  -0.060   6.413   2.764  0.9182 -0.6998 -0.2030
25997SOL     OW88304   3.745  11.043  12.316 -0.7835  0.3912 -0.0078
25997SOL    HW188305   3.757  10.998  12.399  0.2115 -1.7449 -1.2520
25997SOL    HW288306   3.747  11.136  12.339  1.2956 -0.0989  2.1172
25998SOL     OW88307   4.894   7.265   6.110 -0.1865 -0.4593  0.6038
25998SOL    HW188308   4.891   7.361   6.111  1.6745 -0.3594  1.1190
25998SOL    HW288309   4.882   7.242   6.018 -1.2720  0.2222  0.5624
25999SOL     OW88310   7.524  12.795  11.232  0.3285 -0.3325 -0.0830
25999SOL    HW188311   7.490  12.857  11.167  0.5583 -0.3064 -0.1786
25999SOL    HW288312   7.477  12.714  11.214 -0.8451  0.1132  0.7895
26000SOL     OW88313   8.002   2.083  10.681  0.5983  0.2488  0.1816
26000SOL    HW188314   8.047   2.116  10.759  1.6623 -0.9656  0.1219
26000SOL    HW288315   8.073   2.060  10.621 -0.1343 -0.9348 -0.2524
26001SOL     OW88316  11.199   5.954  12.292  0.5142  0.1716 -0.1214
26001SOL    HW188317  11.253   6.032  12.279  1.0001  0.1097  1.3151
26001SOL    HW288318  11.142   5.977  12.365 -0.0254 -0.4735 -0.3335
26002SOL     OW88319  12.339   3.099   2.129 -0.6460  0.3532 -0.3447
26002SOL    HW188320  12.354   3.045   2.052  0.6735  1.9135 -1.2425
26002SOL    HW288321  12.317   3.037   2.198  1.0069 -1.3555 -1.2662
26003SOL     OW88322   0.836   1.815   4.222  0.2655  0.0887  0.1498
26003SOL    HW188323   0.899   1.826   4.293 -0.4811  0.9899  0.6973
26003SOL    HW288324   0.887   1.825   4.142  0.8713  0.4908  0.5816
26004SOL     OW88325  12.565   9.420  11.125 -0.4925  0.3592  0.4716
26004SOL    HW188326  12.622   9.475  11.072  5.6456 -2.4534  3.1771
26004SOL    HW288327  12.523   9.360  11.063  2.1271  0.6028 -1.6791
26005SOL     OW88328  10.693   3.879   9.652  0.2019  0.3064 -0.1101
26005SOL    HW188329  10.782   3.913   9.657  0.2908  0.5480 -2.3835
26005SOL    HW288330  10.659   3.889   9.741  2.2906  0.5712  0.7158
26006SOL     OW88331   7.926   1.021  12.345  0.0220 -0.0767  0.3343
26006SOL    HW188332   7.927   1.099  12.400  1.3537  0.2415 -0.1109
26006SOL    HW288333   7.894   1.052  12.260 -1.9592 -0.5527  0.8493
26007SOL     OW88334  11.067   0.353  10.014 -0.0731  0.2752 -0.3506
26007SOL    HW188335  11.000   0.421  10.003 -1.3945 -0.0597  3.8608
26007SOL    HW288336  11.047   0.289   9.946 -1.9773  1.6931 -1.2504
26008SOL     OW88337   4.197  12.569  10.677 -0.0641  0.3477  0.9377
26008SOL    HW188338   4.289  12.575  10.649  0.0339 -0.5617  1.0492
26008SOL    HW288339   4.195  12.495  10.737 -1.1498 -0.5967 -0.2213
26009SOL     OW88340   7.871  11.726   5.203  0.0039 -0.1972 -0.9143
26009SOL    HW188341   7.888  11.680   5.121 -1.1927  0.8862 -1.8197
26009SOL    HW288342   7.789  11.774   5.186  0.6515  1.4206  0.3159
26010SOL     OW88343   1.506   8.756   3.124  0.2677  0.5784  0.0193
26010SOL    HW188344   1.547   8.733   3.207  2.1462  0.2304 -0.9756
26010SOL    HW288345   1.448   8.682   3.104 -0.3957  0.7763  1.0967
26011SOL     OW88346   0.859   7.970   4.164  0.4844 -0.3239 -0.3704
26011SOL    HW188347   0.814   7.970   4.080 -0.8095  0.0463  0.3068
26011SOL    HW288348   0.938   8.022   4.148  0.1308 -0.0496 -1.2915
26012SOL     OW88349   5.713  12.805  11.173  0.1242  0.5036 -0.5514
26012SOL    HW188350   5.645  12.870  11.194 -0.3406 -0.1154 -0.0851
26012SOL    HW288351   5.795  12.850  11.192 -0.2240  0.5770  0.9212
26013SOL     OW88352   0.897  12.123  11.755 -0.9099  0.1789  0.0312
26013SOL    HW188353   0.832  12.176  11.708 -2.8584 -1.5397  0.6286
26013SOL    HW288354   0.954  12.187  11.797 -1.8700  1.7817 -0.9990
26014SOL     OW88355  12.958   4.813   1.420  0.0943 -0.3700 -0.1753
26014SOL    HW188356  12.939   4.900   1.456 -1.9944 -0.7046 -0.3341
26014SOL    HW288357  12.916   4.814   1.334 -1.9106 -2.2326  0.6942
26015SOL     OW88358   7.902   8.817  11.529 -0.2489 -0.6354  0.0825
26015SOL    HW188359   7.959   8.851  11.599 -0.9663  0.2095  0.2914
26015SOL    HW288360   7.961   8.797  11.457  0.2167  1.4000 -0.1649
26016SOL     OW88361  11.738   2.938   5.068 -0.6379  0.3484 -0.5758
26016SOL    HW188362  11.719   2.845   5.057 -2.0587  0.7328 -1.7540
26016SOL    HW288363  11.833   2.941   5.084 -0.4416 -1.2381 -1.2030
26017SOL     OW88364   5.508   5.038   5.317 -0.1877 -0.0630 -0.1660
26017SOL    HW188365   5.424   5.083   5.308 -1.4010 -1.9993  0.7528
26017SOL    HW288366   5.562   5.074   5.247 -1.7442  1.3151 -0.7257
26018SOL     OW88367   2.923   2.580   6.446  1.0979  0.2814 -0.3011
26018SOL    HW188368   3.006   2.563   6.403  1.0466  1.4486 -0.9176
26018SOL    HW288369   2.943   2.577   6.539  1.8409  0.5556 -0.4453
26019SOL     OW88370   9.874   5.523   0.233 -0.7394 -0.2916 -0.0918
26019SOL    HW188371   9.794   5.491   0.274 -1.0163 -0.0891 -0.4643
26019SOL    HW288372   9.945   5.489   0.287 -1.1339  2.1167  2.1200
26020SOL     OW88373  11.564   3.256   2.734  0.1645 -0.3148  0.1939
26020SOL    HW188374  11.612   3.251   2.816 -0.2519 -2.9752  0.3809
26020SOL    HW288375  11.550   3.165   2.709  1.4209  0.3395 -3.5595
26021SOL     OW88376   7.694  12.897   1.286 -0.1202  0.8615  0.4746
26021SOL    HW188377   7.610  12.928   1.252 -0.6761  0.0424  1.0688
26021SOL    HW288378   7.672  12.819   1.337  0.7661  1.6811  2.1749
26022SOL     OW88379   5.579   6.451   3.687  0.5123 -0.4095 -0.0813
26022SOL    HW188380   5.600   6.357   3.682  2.0478 -0.1971  1.4825
26022SOL    HW288381   5.657   6.495   3.652  0.5072  0.3089  0.7842
26023SOL     OW88382   4.649   6.813   1.849  0.0481 -0.8543  0.0312
26023SOL    HW188383   4.609   6.819   1.762  0.5142  0.4547 -0.1172
26023SOL    HW288384   4.598   6.747   1.895 -1.5564 -0.0421 -0.5332
26024SOL     OW88385  11.989  11.836   9.175  0.0836 -0.1355  0.1235
26024SOL    HW188386  11.947  11.771   9.117 -3.2096  0.5367  1.5158
26024SOL    HW288387  11.935  11.914   9.166  0.9870  0.7931  2.1571
26025SOL     OW88388   8.729  12.857   2.552 -0.1322 -0.1991  0.9598
26025SOL    HW188389   8.720  12.770   2.593 -0.4527  0.0163  1.3551
26025SOL    HW288390   8.661  12.909   2.593 -0.3024  0.0890  0.3076
26026SOL     OW88391   8.449   9.383   5.822  0.2690  0.2087 -0.4977
26026SOL    HW188392   8.510   9.433   5.768  0.9104 -0.8191 -0.7474
26026SOL    HW288393   8.388   9.449   5.856  2.2438  1.5071  0.7966
26027SOL     OW88394   0.649   6.849   7.060 -0.3486 -0.2355 -0.0607
26027SOL    HW188395   0.608   6.768   7.029 -1.3081 -0.3124  1.3413
26027SOL    HW288396   0.739   6.823   7.081 -0.7564 -1.0397  0.7489
26028SOL     OW88397   8.919   8.326  10.968  0.0918 -0.0625  0.8126
26028SOL    HW188398   8.918   8.241  10.924  0.7672  0.3265  0.0370
26028SOL    HW288399   8.842   8.372  10.934  1.3647  0.7743 -1.0689
26029SOL     OW88400  11.370   8.145   7.216  0.0529 -0.2192 -0.3286
26029SOL    HW188401  11.302   8.130   7.150 -2.6419 -0.4664  2.3430
26029SOL    HW288402  11.421   8.219   7.181 -1.6635  0.0993 -2.3432
26030SOL     OW88403   3.160  12.059   7.277  0.2457  0.1679  0.1955
26030SOL    HW188404   3.200  12.002   7.342  0.5706  0.8563  0.6060
26030SOL    HW288405   3.142  12.001   7.202  1.2247 -0.3239  0.3263
26031SOL     OW88406  10.237   6.847   8.112 -0.1933 -0.7214  0.3106
26031SOL    HW188407  10.221   6.911   8.181  1.7520  1.6901 -1.3032
26031SOL    HW288408  10.150   6.826   8.078 -0.8892  1.8775  0.2660
26032SOL     OW88409   9.945   0.140   2.127 -0.0705 -0.1424 -0.4863
26032SOL    HW188410   9.862   0.102   2.156  0.1954  0.1028  0.6530
26032SOL    HW288411   9.921   0.224   2.088 -0.1788  1.5632  2.8293
26033SOL     OW88412  11.405  11.314  12.922 -0.3669  0.6690 -0.0361
26033SOL    HW188413  11.313  11.288  12.923 -0.2035 -0.1108  2.4929
26033SOL    HW288414  11.404  11.408  12.909 -1.3792  0.4258 -2.0184
26034SOL     OW88415  12.078  12.689  12.484 -0.6936 -0.2002 -0.1289
26034SOL    HW188416  12.080  12.734  12.400 -0.7285  0.8374  0.3938
26034SOL    HW288417  12.107  12.756  12.547  0.4809 -1.2817  0.5450
26035SOL     OW88418   9.244   3.968   4.075 -0.1688  0.5291  0.2931
26035SOL    HW188419   9.256   3.989   3.982  0.3827  0.1443  0.2689
26035SOL    HW288420   9.326   3.927   4.100 -0.9756 -1.0165  0.4916
26036SOL     OW88421   5.560   3.063   6.499  0.1579  0.0410 -0.4294
26036SOL    HW188422   5.611   3.002   6.552  1.1789  1.2271  0.0124
26036SOL    HW288423   5.505   3.109   6.562  2.2217  2.2951 -0.0967
26037SOL     OW88424  10.866   8.032  12.430  0.2344  0.1884  0.3651
26037SOL    HW188425  10.850   8.115  12.384 -1.5631  0.1409  0.8351
26037SOL    HW288426  10.794   7.975  12.404  1.2853 -1.1528  0.2820
26038SOL     OW88427   2.548   5.684   7.880  0.3057 -0.0352  0.0644
26038SOL    HW188428   2.494   5.723   7.948  0.6317  0.7206 -0.0930
26038SOL    HW288429   2.515   5.595   7.870 -0.7003  0.3133  0.1876
26039SOL     OW88430   7.264  10.397   4.105 -0.3652 -0.4056  0.1599
26039SOL    HW188431   7.183  10.381   4.153 -1.0677  0.9957 -0.4945
26039SOL    HW288432   7.236  10.415   4.016  0.7756 -1.0719 -0.3547
26040SOL     OW88433   6.529   4.146   7.580 -0.3481  0.3407  0.6010
26040SOL    HW188434   6.544   4.116   7.670  2.1479  0.9554  0.4618
26040SOL    HW288435   6.472   4.222   7.588  0.2477  0.6804  1.7185
26041SOL     OW88436   0.313   2.993   6.729 -0.4136  0.6859  0.0525
26041SOL    HW188437   0.313   3.064   6.664 -0.2211  0.5609 -0.0867
26041SOL    HW288438   0.336   3.037   6.812 -0.2069  0.7732 -0.0499
26042SOL     OW88439  10.083   4.596   4.091 -0.0388  0.1895 -1.0081
26042SOL    HW188440  10.008   4.557   4.137  1.5096 -1.1070  0.5342
26042SOL    HW288441  10.101   4.537   4.019 -0.3505  0.3931 -1.2573
26043SOL     OW88442   6.812   9.358  12.769 -0.0034 -0.6018  0.2507
26043SOL    HW188443   6.886   9.300  12.791  1.5189  0.9217 -0.6202
26043SOL    HW288444   6.770   9.316  12.694  0.9310 -0.7114 -0.2235
26044SOL     OW88445  11.516   2.370  12.838  0.2787  0.0911  0.2978
26044SOL    HW188446  11.597   2.375  12.889  0.2511 -1.3128  0.5093
26044SOL    HW288447  11.447   2.392  12.901  0.4497  0.9996  0.1879
26045SOL     OW88448   4.184  11.705   6.375 -0.1541  0.2234  0.0951
26045SOL    HW188449   4.097  11.664   6.377 -0.4129  0.7729  0.1183
26045SOL    HW288450   4.228  11.662   6.302 -0.2228 -0.5004  0.4699
26046SOL     OW88451   3.868  10.576   7.042  0.5939  0.4357 -0.4730
26046SOL    HW188452   3.813  10.616   6.975  0.8651  0.5930 -0.6076
26046SOL    HW288453   3.850  10.483   7.036 -2.2468  0.7008  1.7976
26047SOL     OW88454  12.984   6.918   1.699  0.2715  0.7463  0.0429
26047SOL    HW188455  12.972   6.909   1.604 -0.0352 -0.2358  0.1705
26047SOL    HW288456  13.069   6.963   1.707  0.7701 -0.0318 -0.6785
26048SOL     OW88457   1.858   0.814  12.620  0.7761 -0.1809  0.0853
26048SOL    HW188458   1.897   0.744  12.671  0.1331 -0.2855  0.4498
26048SOL    HW288459   1.928   0.879  12.610  0.8307 -0.0051  1.3954
26049SOL     OW88460   5.598  11.543   5.205  0.2120  0.3285  0.2716
26049SOL    HW188461   5.599  11.634   5.176 -1.3485  1.4897  3.3432
26049SOL    HW288462   5.659  11.540   5.278  0.4777 -1.1850  0.0215
26050SOL     OW88463  10.997   7.631   9.035  0.1888  0.7868 -0.0756
26050SOL    HW188464  11.016   7.537   9.042 -0.5278  0.6883  0.6543
26050SOL    HW288465  11.018   7.666   9.121  0.8105  1.3728 -0.4576
26051SOL     OW88466   0.193   9.392   3.403 -0.2790 -0.2362 -0.2446
26051SOL    HW188467   0.229   9.451   3.469 -3.9017  1.1492  0.6846
26051SOL    HW288468   0.219   9.432   3.319 -0.1583  1.0389  0.3751
26052SOL     OW88469   3.924   3.463   4.075 -0.2709 -0.1925  0.2424
26052SOL    HW188470   3.847   3.519   4.061  0.4688  1.1579  1.3802
26052SOL    HW288471   3.926   3.449   4.170  0.0654 -1.4500  0.0622
26053SOL     OW88472  12.793  10.065  10.069 -0.5077 -0.5526  0.0109
26053SOL    HW188473  12.790  10.148  10.117  1.4272 -1.0131  1.0634
26053SOL    HW288474  12.721  10.014  10.105 -0.3223 -0.1323  1.0209
26054SOL     OW88475   3.262   1.727   0.916 -0.9586 -0.1163  0.2941
26054SOL    HW188476   3.326   1.674   0.869 -0.5621 -0.8880  1.6390
26054SOL    HW288477   3.307   1.810   0.930  0.3977 -1.1358  2.4989
26055SOL     OW88478   7.355   7.815   0.448 -0.3812 -0.1547 -0.6445
26055SOL    HW188479   7.377   7.843   0.359 -0.0983  0.3202 -0.4291
26055SOL    HW288480   7.408   7.737   0.463 -0.8015 -0.5303 -1.0694
26056SOL     OW88481   8.285   8.108   1.046  0.0030  0.0092 -0.1616
26056SOL    HW188482   8.310   8.142   1.132 -0.3866 -0.7632  0.2646
26056SOL    HW288483   8.368   8.085   1.005  0.2284  0.8729 -0.2111
26057SOL     OW88484   5.667   9.709   9.770  0.3774  0.3044  0.2346
26057SOL    HW188485   5.612   9.694   9.693 -0.4978  0.3301  0.8311
26057SOL    HW288486   5.606   9.704   9.844  0.6921  2.7586  0.7682
26058SOL     OW88487   1.352   0.219   8.304  0.0122  0.5032 -0.0056
26058SOL    HW188488   1.427   0.257   8.258 -0.5083  1.0667 -0.4004
26058SOL    HW288489   1.318   0.290   8.358  1.6361 -0.5973  2.6183
26059SOL     OW88490   4.159   9.830   9.860 -0.6329 -0.2996 -0.0661
26059SOL    HW188491   4.201   9.746   9.876 -0.7289 -0.2220  0.6425
26059SOL    HW288492   4.228   9.887   9.827 -0.5579 -0.6430 -0.5022
26060SOL     OW88493   4.259   5.539   4.047 -0.3134  0.2596 -0.5135
26060SOL    HW188494   4.248   5.496   3.962  0.5191  0.8644 -0.9335
26060SOL    HW288495   4.284   5.629   4.026  0.7476  0.1908  0.3600
26061SOL     OW88496  11.872   9.469   0.754 -0.3585 -0.1665  0.2456
26061SOL    HW188497  11.949   9.415   0.739 -0.7387 -0.7668  0.4063
26061SOL    HW288498  11.882   9.543   0.694  0.9678  0.4430  1.1903
26062SOL     OW88499  10.050  10.713  12.728  0.2437  0.0847  0.1501
26062SOL    HW188500  10.083  10.660  12.655  0.5807 -1.1478  1.1421
26062SOL    HW288501  10.097  10.796  12.721  0.7072 -0.2374 -0.6942
26063SOL     OW88502   5.957   3.408   4.129 -0.7325  0.4561 -0.4277
26063SOL    HW188503   5.927   3.406   4.038 -1.7245  1.8067 -0.1571
26063SOL    HW288504   5.949   3.499   4.155 -0.6535  0.0557  1.0858
26064SOL     OW88505   8.799   2.027   1.821 -0.1675 -0.2257 -0.6354
26064SOL    HW188506   8.835   1.950   1.867 -0.6646 -1.0427 -1.5834
26064SOL    HW288507   8.875   2.084   1.807  0.1135 -0.2807  0.5609
26065SOL     OW88508   4.603  12.815   0.165  0.0115 -0.3992 -0.4258
26065SOL    HW188509   4.580  12.748   0.229  1.5355 -1.6230 -1.0762
26065SOL    HW288510   4.661  12.875   0.213 -0.2906 -0.2802 -0.2018
26066SOL     OW88511  12.563   4.446  11.239 -0.3333 -0.3090  0.1040
26066SOL    HW188512  12.637   4.390  11.262  1.0877  0.6582 -1.7352
26066SOL    HW288513  12.543   4.494  11.319 -0.2259 -1.9321  1.1384
26067SOL     OW88514  10.297   7.268   4.683 -0.0826  0.1222  0.0214
26067SOL    HW188515  10.283   7.362   4.688 -1.3091 -0.0622  0.2543
26067SOL    HW288516  10.237   7.230   4.747  0.0040 -0.8484 -0.4412
26068SOL     OW88517  11.742   8.635   6.170  0.9014 -0.0663  0.1437
26068SOL    HW188518  11.708   8.545   6.164  0.0752  0.1890  0.9055
26068SOL    HW288519  11.744   8.666   6.079 -1.0637 -0.0362  0.0798
26069SOL     OW88520   0.972   4.748  12.611 -0.1746  0.4713  0.3691
26069SOL    HW188521   0.907   4.679  12.609 -0.0592  0.2929  1.7962
26069SOL    HW288522   0.928   4.824  12.573 -1.0146  0.1868  0.7483
26070SOL     OW88523   3.924   0.959  12.667  0.0397  0.2566 -0.1802
26070SOL    HW188524   3.931   0.948  12.572  0.1755  1.0850 -0.2774
26070SOL    HW288525   3.914   0.871  12.701 -2.9347  0.1252 -1.1800
26071SOL     OW88526   1.577   8.865  10.773  0.4993  0.0200  0.1003
26071SOL    HW188527   1.598   8.776  10.745  0.7301  0.1264 -0.0703
26071SOL    HW288528   1.626   8.921  10.712  0.1622  0.2652  0.0533
26072SOL     OW88529   9.329   9.532   1.790 -0.5410 -0.3758 -0.4915
26072SOL    HW188530   9.243   9.511   1.755 -0.6540  0.3930 -0.6800
26072SOL    HW288531   9.359   9.450   1.830 -1.3316 -0.6616 -0.4678
26073SOL     OW88532   6.612   1.286   5.603 -0.1436 -0.5173 -0.0646
26073SOL    HW188533   6.614   1.379   5.626 -0.0758 -0.0439 -1.8766
26073SOL    HW288534   6.636   1.283   5.511 -2.7190 -2.0786 -0.7824
26074SOL     OW88535  10.899   2.596   5.722 -0.4194  0.1546  0.4649
26074SOL    HW188536  10.852   2.677   5.703 -0.6673 -0.1225 -0.1192
26074SOL    HW288537  10.867   2.533   5.658 -0.7623 -0.6205  1.3680
26075SOL     OW88538   6.606  10.662   9.350 -0.3038  0.0342  0.4083
26075SOL    HW188539   6.573  10.730   9.408 -0.1667  1.3093 -0.9577
26075SOL    HW288540   6.694  10.644   9.382 -0.3352  0.4971  0.7642
26076SOL     OW88541   6.062   4.744   6.733 -0.3207  0.4376 -0.0225
26076SOL    HW188542   6.030   4.831   6.756 -0.1682  0.1734  1.2524
26076SOL    HW288543   6.066   4.744   6.637  0.0747  1.9689 -0.0237
26077SOL     OW88544   8.674   0.397   6.459  0.2925  0.2208  0.6311
26077SOL    HW188545   8.761   0.357   6.451  0.4219  0.5045  0.6052
26077SOL    HW288546   8.684   0.484   6.420  0.3740  0.8246  1.9477
26078SOL     OW88547   1.664  12.217  11.012 -0.1229 -0.3409 -0.4300
26078SOL    HW188548   1.629  12.266  11.087 -2.9686 -1.7542 -0.6853
26078SOL    HW288549   1.617  12.133  11.015  0.3502 -0.8045 -3.2624
26079SOL     OW88550   0.400   2.064  11.093 -0.6235  0.1025  0.2601
26079SOL    HW188551   0.408   2.096  11.003  0.1497  1.2574  0.7120
26079SOL    HW288552   0.315   2.021  11.095 -1.7794  2.2373 -0.3893
26080SOL     OW88553   3.694   7.506   0.288  0.3467 -0.1238 -0.0809
26080SOL    HW188554   3.775   7.463   0.316 -0.1945 -1.0470  0.0928
26080SOL    HW288555   3.651   7.443   0.230 -0.4391  0.2036  0.1252
26081SOL     OW88556   2.174   0.138  12.342  0.1374 -0.1916 -0.0789
26081SOL    HW188557   2.232   0.065  12.361  1.7500  1.4151  1.5738
26081SOL    HW288558   2.214   0.182  12.267  1.7843  1.5350  1.7171
26082SOL     OW88559   3.787   5.673   3.551  0.0040  0.1080  0.2146
26082SOL    HW188560   3.819   5.702   3.465  0.8544  2.3118  1.1898
26082SOL    HW288561   3.860   5.691   3.610 -0.5159 -1.5281  1.3912
26083SOL     OW88562   0.890   7.951   0.214  0.3226  0.3450 -0.0686
26083SOL    HW188563   0.899   8.031   0.162  0.8027  0.5025  0.2359
26083SOL    HW288564   0.933   7.883   0.162 -1.4640 -0.0763 -1.0523
26084SOL     OW88565   4.841   7.479   7.486 -0.1723 -0.2433 -0.0191
26084SOL    HW188566   4.847   7.569   7.517 -0.3603 -0.2876  0.1469
26084SOL    HW288567   4.818   7.487   7.393  0.8214 -0.1024 -0.2617
26085SOL     OW88568   4.755   7.899   3.274  0.4484  0.4249  0.4905
26085SOL    HW188569   4.750   7.855   3.359 -1.2447 -0.8133 -0.1942
26085SOL    HW288570   4.674   7.949   3.267  1.3111  1.8552  0.2578
26086SOL     OW88571  10.473  12.858   4.713 -0.7874 -0.6698 -0.6635
26086SOL    HW188572  10.544  12.844   4.651 -0.6225 -0.8538 -0.4348
26086SOL    HW288573  10.428  12.774   4.718 -1.8238 -0.2124 -1.7867
26087SOL     OW88574  11.510  10.870   4.151 -0.1725 -0.4050  0.1264
26087SOL    HW188575  11.439  10.906   4.099  0.3270  0.0198 -0.2746
26087SOL    HW288576  11.485  10.888   4.242 -1.0067 -1.0796  0.0410
26088SOL     OW88577  12.596   8.196   0.524 -0.0755 -0.1608  0.5543
26088SOL    HW188578  12.522   8.211   0.583  0.6981 -0.5364  1.6473
26088SOL    HW288579  12.631   8.283   0.506 -1.9500  0.2627 -1.6077
26089SOL     OW88580  10.540   3.162   3.788  0.2144 -0.2055  0.3979
26089SOL    HW188581  10.494   3.245   3.793 -3.2176 -1.9498  0.5879
26089SOL    HW288582  10.507   3.121   3.708  1.8088 -1.4490  0.3163
26090SOL     OW88583   3.834   9.393   7.920  0.2379 -0.2984 -0.1079
26090SOL    HW188584   3.835   9.308   7.877  0.6406  0.2820 -1.2864
26090SOL    HW288585   3.834   9.457   7.849  1.4330  0.7038  0.7308
26091SOL     OW88586   6.137   2.823   8.045  0.4792 -0.2992  0.4455
26091SOL    HW188587   6.218   2.773   8.035  1.4578  1.0952  1.0850
26091SOL    HW288588   6.122   2.862   7.959 -1.6045 -3.4362 -0.8106
26092SOL     OW88589  11.742   2.359   0.004 -0.4415  0.1714  0.6335
26092SOL    HW188590  11.837   2.370  -0.003 -0.6017  2.1859  0.8102
26092SOL    HW288591  11.731   2.276   0.050  1.2590  0.1646  1.1167
26093SOL     OW88592   4.654   8.500  12.543 -0.6508  0.3120 -0.1646
26093SOL    HW188593   4.674   8.434  12.477 -0.4313  0.8133 -0.6063
26093SOL    HW288594   4.711   8.478  12.617  3.0143  2.6849 -1.9658
26094SOL     OW88595   3.056   3.342   9.643 -0.0868 -0.3025 -0.0546
26094SOL    HW188596   3.107   3.294   9.707  0.2606 -0.2563 -0.2946
26094SOL    HW288597   3.106   3.336   9.561 -0.1267  0.3003 -0.1338
26095SOL     OW88598   4.104   2.529   3.172 -0.2810  0.5584 -0.3623
26095SOL    HW188599   4.197   2.543   3.153 -0.6296  0.6128 -2.1979
26095SOL    HW288600   4.067   2.497   3.090 -2.0796  1.4366  0.0593
26096SOL     OW88601   7.113   7.674   3.899 -0.1574 -0.1982 -0.2045
26096SOL    HW188602   7.121   7.624   3.818  2.2279  1.3494 -1.0327
26096SOL    HW288603   7.165   7.753   3.884 -2.4665  1.8177  1.6078
26097SOL     OW88604   9.421   0.956   3.737 -0.1974 -0.1343 -0.4173
26097SOL    HW188605   9.470   0.888   3.691  0.0092 -0.5421  0.3942
26097SOL    HW288606   9.406   0.920   3.825  2.2284  1.8471  0.9587
26098SOL     OW88607   5.232  12.533  12.368  0.1732 -0.0655 -0.2198
26098SOL    HW188608   5.171  12.583  12.314 -0.5651 -1.6998 -0.9978
26098SOL    HW288609   5.298  12.500  12.307  1.8583  1.6212  0.6031
26099SOL     OW88610   0.718   2.072   8.913 -0.1471 -0.5270 -0.2115
26099SOL    HW188611   0.728   2.150   8.969  0.0998 -0.6635 -0.0615
26099SOL    HW288612   0.770   2.092   8.835  0.0130 -0.5873 -0.1216
26100SOL     OW88613   0.833  11.453  12.972  0.3398  0.4163  0.5590
26100SOL    HW188614   0.760  11.501  12.934  0.1313  1.7359  2.4810
26100SOL    HW288615   0.808  11.361  12.964  0.1099  0.6285 -1.9475
26101SOL     OW88616   1.291  11.170   0.806  0.6422 -0.0240  0.0872
26101SOL    HW188617   1.217  11.227   0.785  1.8630  1.6299  0.0316
26101SOL    HW288618   1.302  11.115   0.728  0.4069  0.7828 -0.5237
26102SOL     OW88619  11.297   2.684   8.491 -0.2021  0.4247  0.0533
26102SOL    HW188620  11.270   2.592   8.500 -0.7460  0.6726  1.0904
26102SOL    HW288621  11.387   2.686   8.523  0.1957  0.0722 -0.9861
26103SOL     OW88622   7.750  11.118  11.927  0.9397 -0.0260 -0.3488
26103SOL    HW188623   7.689  11.137  11.855 -0.7671  0.3938  1.1232
26103SOL    HW288624   7.761  11.023  11.925  2.6895  0.1537 -2.4789
26104SOL     OW88625   4.306   1.320   3.076  0.7130 -0.0370 -0.1166
26104SOL    HW188626   4.299   1.411   3.104  0.8636 -0.3706  1.0390
26104SOL    HW288627   4.284   1.269   3.154  0.9898 -0.9966 -0.6535
26105SOL     OW88628  11.435   0.920   2.498 -0.2875  0.0996  0.4838
26105SOL    HW188629  11.437   1.010   2.467  2.4341  0.4741  1.4859
26105SOL    HW288630  11.460   0.867   2.422  1.4020  0.5457  0.6965
26106SOL     OW88631   7.272   9.914   6.674  0.1979 -0.4744  0.0119
26106SOL    HW188632   7.290   9.921   6.768 -0.1275 -3.5474  0.4218
26106SOL    HW288633   7.217   9.990   6.655 -0.7674 -0.3918  2.6076
26107SOL     OW88634   0.539   3.211   5.157 -0.8090  0.3765 -0.2001
26107SOL    HW188635   0.515   3.249   5.072 -1.3645 -1.1451 -0.7527
26107SOL    HW288636   0.630   3.183   5.147 -0.4384  1.4003  0.1680
26108SOL     OW88637  11.289   9.106   9.683  0.0911  0.0691 -0.2823
26108SOL    HW188638  11.366   9.119   9.737 -0.6489  0.2027  0.7693
26108SOL    HW288639  11.257   9.018   9.707 -0.5100  0.3206 -0.1377
26109SOL     OW88640   4.056   2.689   4.127  0.2879  1.1345 -0.1981
26109SOL    HW188641   4.135   2.713   4.177  0.2637  1.6898 -0.4182
26109SOL    HW288642   3.999   2.765   4.135 -1.1371 -0.0413  1.7052
26110SOL     OW88643  12.285   6.328   9.776 -0.0396 -0.2095  0.2751
26110SOL    HW188644  12.347   6.280   9.830  0.4629  1.3197  1.1275
26110SOL    HW288645  12.268   6.271   9.701  2.7525 -0.5232 -0.2245
26111SOL     OW88646  11.751  10.050  12.464  0.3449  0.6119  0.2518
26111SOL    HW188647  11.712  10.131  12.431  0.1163  0.2956 -0.2614
26111SOL    HW288648  11.699  10.028  12.541  0.0437  0.6384  0.0559
26112SOL     OW88649   7.728   2.810   2.909  0.1273 -0.3513  0.0136
26112SOL    HW188650   7.635   2.826   2.925 -0.5495 -2.2969 -1.4522
26112SOL    HW288651   7.763   2.780   2.993 -0.2419  1.5547  0.8824
26113SOL     OW88652   1.061  10.146   0.312 -0.2049  0.3650  0.0621
26113SOL    HW188653   1.078  10.228   0.265 -1.8087  0.6197 -0.1029
26113SOL    HW288654   1.147  10.122   0.349  0.7805  0.9158 -1.7586
26114SOL     OW88655   7.928   0.242   3.044  0.8213  0.1205 -0.2224
26114SOL    HW188656   7.878   0.281   2.973 -1.1321  0.8269  1.4382
26114SOL    HW288657   7.931   0.309   3.112  1.7542 -0.8702  0.7752
26115SOL     OW88658   0.660   5.265   1.806  0.3693 -0.5033 -0.2514
26115SOL    HW188659   0.619   5.201   1.747  0.0185  0.3626 -0.9858
26115SOL    HW288660   0.598   5.275   1.877  0.5340 -1.1448 -0.0083
26116SOL     OW88661  11.274  12.117   7.565  1.0283  0.4063 -0.0052
26116SOL    HW188662  11.328  12.067   7.626  0.1267  0.4725  0.8689
26116SOL    HW288663  11.293  12.209   7.585 -0.9048  0.4855  1.7547
26117SOL     OW88664   5.800   8.032   5.036  0.4330 -0.1408 -0.0778
26117SOL    HW188665   5.812   7.941   5.063  1.8807  0.1367  0.3464
26117SOL    HW288666   5.798   8.029   4.941 -1.0231 -0.7521 -0.0520
26118SOL     OW88667   9.775   1.300   3.618 -0.6503  0.6046  0.1557
26118SOL    HW188668   9.714   1.373   3.629 -0.9953  0.2172  0.9027
26118SOL    HW288669   9.725   1.223   3.644  0.1896  0.2947  0.8871
26119SOL     OW88670   2.843   3.047  10.715  0.2439  0.2679 -0.3061
26119SOL    HW188671   2.897   3.058  10.793 -0.9361  2.6191  0.2811
26119SOL    HW288672   2.834   3.135  10.679 -1.9678 -0.2352 -1.1857
26120SOL     OW88673   5.138   9.558  10.401  0.2100  0.2556 -0.4542
26120SOL    HW188674   5.162   9.465  10.404 -0.4301  0.1004  2.2329
26120SOL    HW288675   5.042   9.557  10.398  0.1786  0.8202  0.2674
26121SOL     OW88676   7.525   3.587   8.207  0.6573 -0.1758 -0.2013
26121SOL    HW188677   7.534   3.681   8.220 -0.0378 -0.0987 -0.2392
26121SOL    HW288678   7.607   3.550   8.240  0.3783  0.3250  1.1103
26122SOL     OW88679  12.237   1.161   4.192  0.1188  0.1298  0.3374
26122SOL    HW188680  12.226   1.240   4.139  1.0174 -0.1689 -0.3087
26122SOL    HW288681  12.309   1.183   4.252  1.1907 -0.6084 -0.6571
26123SOL     OW88682   6.053  12.186  12.209 -0.0536 -0.1519  0.2973
26123SOL    HW188683   6.032  12.276  12.183  1.1101  0.2051  0.5327
26123SOL    HW288684   6.051  12.187  12.304  0.0478 -0.3519  0.3016
26124SOL     OW88685   3.979  10.449  10.800 -0.1790 -0.0624  0.2725
26124SOL    HW188686   3.954  10.376  10.743 -0.3991  0.2430 -0.0331
26124SOL    HW288687   3.918  10.444  10.874  0.4012 -0.7310  0.7126
26125SOL     OW88688   1.031   0.621   2.188 -0.2756 -0.7003 -0.1090
26125SOL    HW188689   1.034   0.586   2.099 -0.8271  1.1472 -0.9034
26125SOL    HW288690   0.944   0.598   2.220 -0.1781 -1.1344 -0.1588
26126SOL     OW88691  11.402   7.837   7.152 -0.1043  0.2871 -0.1463
26126SOL    HW188692  11.344   7.876   7.087  1.7380  0.5028 -1.7257
26126SOL    HW288693  11.374   7.877   7.235 -3.0102 -0.5717 -0.5849
26127SOL     OW88694   8.075  12.463   5.017 -0.4508  0.1037 -0.1989
26127SOL    HW188695   8.096  12.547   5.058 -1.5213 -0.0563  0.7256
26127SOL    HW288696   8.149  12.406   5.040 -0.5654  0.3012  0.7055
26128SOL     OW88697   1.261   4.603   8.301 -0.0715 -0.5429 -0.5232
26128SOL    HW188698   1.196   4.624   8.369  1.2511  1.3101  0.2556
26128SOL    HW288699   1.236   4.658   8.227 -0.6046 -1.4091 -0.9984
26129SOL     OW88700   5.394   2.562   8.205 -0.3328 -0.3729  0.2343
26129SOL    HW188701   5.467   2.504   8.228 -0.6676 -0.6504  0.6109
26129SOL    HW288702   5.412   2.642   8.255 -0.8098 -0.8063  1.1238
26130SOL     OW88703   1.112   1.055   0.470 -0.2622 -0.4417  0.7154
26130SOL    HW188704   1.102   0.979   0.528  1.1150 -0.8049  0.5177
26130SOL    HW288705   1.148   1.018   0.389  0.4148  0.4131  0.6177
26131SOL     OW88706   6.466  12.276   6.498 -0.3636 -0.0723 -0.2285
26131SOL    HW188707   6.431  12.360   6.468  1.4272 -0.0712 -2.6275
26131SOL    HW288708   6.551  12.298   6.537 -0.2397 -0.6788 -0.1421
26132SOL     OW88709   0.957  11.718  11.450 -0.1330  0.1277 -0.2012
26132SOL    HW188710   0.907  11.686  11.525  2.2738 -0.0536  1.4733
26132SOL    HW288711   0.979  11.639  11.401 -0.2878  0.0423 -0.1341
26133SOL     OW88712   2.302   5.704   1.024  0.3446 -0.8300 -0.0331
26133SOL    HW188713   2.228   5.756   0.993 -1.2540 -2.5466  0.6636
26133SOL    HW288714   2.312   5.729   1.116 -0.8496 -2.1097  0.4876
26134SOL     OW88715   4.479   6.364   4.384 -0.2985 -0.0888  0.2446
26134SOL    HW188716   4.428   6.358   4.465 -0.9794  0.4236 -0.1394
26134SOL    HW288717   4.556   6.415   4.408  0.2373 -1.1819  0.9189
26135SOL     OW88718  11.416   2.267   0.261  0.2093 -0.0572 -0.5378
26135SOL    HW188719  11.367   2.295   0.339  0.0565 -0.6892 -0.4033
26135SOL    HW288720  11.496   2.229   0.296 -0.9706 -2.6939 -0.5107
26136SOL     OW88721   7.296   6.980   9.157 -0.4151 -0.6732 -0.2910
26136SOL    HW188722   7.305   6.936   9.241  1.1864  1.1141  0.5479
26136SOL    HW288723   7.325   6.916   9.093  3.0546 -0.5709  0.9878
26137SOL     OW88724   5.895  11.705  11.296 -0.1776 -0.1230 -0.1458
26137SOL    HW188725   5.905  11.635  11.361  0.9171 -0.9168 -1.1277
26137SOL    HW288726   5.908  11.786  11.346  1.2621 -0.7318  0.5332
26138SOL     OW88727   8.412   9.617   7.698  0.4286 -0.2371 -0.8387
26138SOL    HW188728   8.335   9.626   7.642 -0.0951  0.0607 -0.0952
26138SOL    HW288729   8.399   9.532   7.742 -1.3788  1.3031  1.9787
26139SOL     OW88730   1.666   1.378  10.007 -0.1615  0.2658 -0.4903
26139SOL    HW188731   1.679   1.377   9.912  2.6332  0.7338 -0.1899
26139SOL    HW288732   1.688   1.289  10.035  0.5737  0.5521 -0.1393
26140SOL     OW88733   4.736   1.113   9.103  0.5495  0.0616  0.4911
26140SOL    HW188734   4.757   1.183   9.041  1.6769 -1.5035 -0.9799
26140SOL    HW288735   4.669   1.061   9.058  2.1870 -1.7391 -0.0020
26141SOL     OW88736   1.189   6.194   6.805 -0.0208  0.0535 -0.0403
26141SOL    HW188737   1.166   6.284   6.828 -1.3077  0.1167 -1.4612
26141SOL    HW288738   1.232   6.201   6.720 -2.5932 -0.8555 -1.5340
26142SOL     OW88739   3.416   3.542   1.632 -0.5752 -0.1315  0.0931
26142SOL    HW188740   3.341   3.526   1.690  0.4761  2.0757  2.2607
26142SOL    HW288741   3.490   3.554   1.691  0.7748  1.3004 -1.7519
26143SOL     OW88742  11.695  11.836  11.411  0.1002  0.2288 -0.1242
26143SOL    HW188743  11.682  11.744  11.433 -1.7524  0.3582 -0.5332
26143SOL    HW288744  11.704  11.879  11.496 -2.3181  0.0727  0.2981
26144SOL     OW88745   4.868   2.957   4.379 -0.6543  0.0563 -0.1064
26144SOL    HW188746   4.868   2.954   4.474 -0.7528 -0.2534 -0.1161
26144SOL    HW288747   4.856   3.050   4.358 -1.6387  0.0015  0.1808
26145SOL     OW88748   7.233   9.413   3.657  0.6413 -0.0231 -0.0673
26145SOL    HW188749   7.229   9.452   3.744  0.8842 -1.6340  0.6983
26145SOL    HW288750   7.152   9.364   3.649  0.2883  0.6808 -1.0615
26146SOL     OW88751   9.171   3.650   3.927 -0.5796 -0.1213 -0.4805
26146SOL    HW188752   9.259   3.649   3.965 -0.6360  1.9452 -0.2006
26146SOL    HW288753   9.177   3.588   3.854  1.2347  0.2291 -0.7020
26147SOL     OW88754   2.032  12.415   1.993  0.7175  0.3543  0.2956
26147SOL    HW188755   1.993  12.456   1.916  0.7487  0.0805  0.1311
26147SOL    HW288756   1.993  12.461   2.067 -0.3446 -0.2646  0.1438
26148SOL     OW88757   0.416   9.214   3.794 -0.1697  0.0718  0.1381
26148SOL    HW188758   0.368   9.269   3.856  1.3018  0.5223  0.9185
26148SOL    HW288759   0.507   9.238   3.805  0.3160 -1.0897 -0.9800
26149SOL     OW88760   2.608   3.302  10.583  0.1297 -0.1150 -0.3849
26149SOL    HW188761   2.689   3.260  10.554 -0.8059 -1.4663 -1.1450
26149SOL    HW288762   2.590   3.265  10.669 -0.3148 -0.7675 -0.7478
26150SOL     OW88763   3.610   0.231   7.986  0.2006  1.1841 -0.0048
26150SOL    HW188764   3.574   0.285   7.915  0.6061  0.5677 -0.6880
26150SOL    HW288765   3.681   0.284   8.022 -0.6549  1.9395  0.6282
26151SOL     OW88766   1.199   5.515   5.082  0.4654 -0.5445 -0.5344
26151SOL    HW188767   1.169   5.606   5.076  1.1229 -0.3393 -0.7504
26151SOL    HW288768   1.231   5.494   4.994  0.6462 -0.8720 -0.3935
26152SOL     OW88769   3.736   4.909   9.604  0.0710  0.6972  0.4207
26152SOL    HW188770   3.771   4.931   9.690 -0.6644  2.5741  0.2765
26152SOL    HW288771   3.770   4.977   9.545 -0.9258  0.5185 -0.4008
26153SOL     OW88772   8.166   6.602   3.169 -0.0357  0.7697  0.4458
26153SOL    HW188773   8.162   6.651   3.252 -0.2527 -0.0452  0.9290
26153SOL    HW288774   8.253   6.563   3.169 -0.0174  0.8113  0.2570
26154SOL     OW88775   5.872   0.670  12.864  0.2136  0.1439  0.2404
26154SOL    HW188776   5.778   0.675  12.847 -0.1445 -1.8195  1.3714
26154SOL    HW288777   5.906   0.755  12.834 -1.7610  0.5680 -0.9825
26155SOL     OW88778   9.844   3.434   9.532  0.0737  0.4609 -0.3459
26155SOL    HW188779   9.768   3.493   9.536 -0.4216 -0.1450 -0.7506
26155SOL    HW288780   9.876   3.431   9.623 -1.2385 -0.3772  0.1119
26156SOL     OW88781   6.461   7.853   4.176 -0.3530 -0.1761 -0.3613
26156SOL    HW188782   6.425   7.797   4.245 -0.9384 -0.8262 -1.1714
26156SOL    HW288783   6.396   7.922   4.164 -0.7964 -0.6927 -1.0168
26157SOL     OW88784   0.122   3.483   2.272 -0.1268  0.6716 -0.4702
26157SOL    HW188785   0.091   3.397   2.303 -3.9261  2.2852  0.8941
26157SOL    HW288786   0.150   3.528   2.352 -1.8871  1.9486 -0.5121
26158SOL     OW88787   8.215  12.344   5.584  0.0869 -0.6715 -0.1785
26158SOL    HW188788   8.208  12.403   5.509 -0.6433 -1.2844 -0.6048
26158SOL    HW288789   8.217  12.256   5.546 -3.0082 -1.1793  0.5454
26159SOL     OW88790   4.482   2.044   3.987 -0.2149  0.0463  0.3957
26159SOL    HW188791   4.463   2.013   4.076 -0.3028  2.2855  1.2175
26159SOL    HW288792   4.396   2.050   3.945 -0.2231 -0.5099  0.3267
26160SOL     OW88793  10.396  12.927   8.804 -0.2575 -0.4324  0.2648
26160SOL    HW188794  10.490  12.938   8.817 -0.3641  0.7800  0.1416
26160SOL    HW288795  10.386  12.915   8.709 -0.1541 -1.5706  0.3838
26161SOL     OW88796   6.704   0.973  12.002  0.2462  0.3421 -0.4789
26161SOL    HW188797   6.620   0.937  12.030 -0.2585  0.2214 -2.0372
26161SOL    HW288798   6.686   1.007  11.914  2.0922 -0.6780 -1.2945
26162SOL     OW88799  12.790   8.719   7.706  0.0961 -0.0761 -0.4917
26162SOL    HW188800  12.775   8.739   7.614  0.5278  0.7513 -0.3931
26162SOL    HW288801  12.703   8.700   7.741 -0.1758  0.4211 -0.8857
26163SOL     OW88802  10.263  12.498   2.903 -0.8562 -0.3064 -0.4289
26163SOL    HW188803  10.325  12.445   2.853  0.1582  0.8363 -0.4245
26163SOL    HW288804  10.212  12.434   2.953 -0.6659 -1.3596 -1.5222
26164SOL     OW88805   9.957   3.065   0.935 -0.0475 -0.1179 -0.2564
26164SOL    HW188806   9.872   3.040   0.899  0.3307 -0.6079 -0.8164
26164SOL    HW288807  10.008   3.095   0.860 -0.3520  2.0538  0.3289
26165SOL     OW88808   6.517  12.045   3.674  0.0278  0.8561 -0.4790
26165SOL    HW188809   6.603  12.010   3.697  0.8699  1.5300 -2.3689
26165SOL    HW288810   6.496  12.106   3.744  0.8143  0.2647  0.3017
26166SOL     OW88811   7.538   2.644   3.677 -0.5897  0.6331 -0.5334
26166SOL    HW188812   7.628   2.665   3.652 -0.6414 -0.1424 -1.4023
26166SOL    HW288813   7.498   2.729   3.696 -0.2275  1.1716 -2.0624
26167SOL     OW88814   8.330   6.140   8.172  0.4410 -0.5328  0.1507
26167SOL    HW188815   8.315   6.050   8.141 -0.9928  0.6332 -2.9677
26167SOL    HW288816   8.242   6.178   8.175  1.2602  1.7469 -2.0784
26168SOL     OW88817   4.667  12.288   4.292 -0.5672 -0.4697  0.4077
26168SOL    HW188818   4.731  12.219   4.307 -0.4690 -0.6485 -0.7515
26168SOL    HW288819   4.719  12.363   4.263 -0.7435 -0.1378  0.9385
26169SOL     OW88820   8.593   1.305   0.311  0.2006 -0.5462 -0.5389
26169SOL    HW188821   8.571   1.223   0.266  0.6123 -1.6279  1.1378
26169SOL    HW288822   8.688   1.305   0.317  0.1926 -0.0303 -0.3690
26170SOL     OW88823  11.798   6.578   0.685  0.1446 -0.2375  0.5252
26170SOL    HW188824  11.787   6.492   0.644 -2.4513 -0.2776  1.1092
26170SOL    HW288825  11.886   6.577   0.721  0.5546 -2.2332 -0.4350
26171SOL     OW88826  10.149   9.757  12.453 -0.1000 -0.3884  0.2748
26171SOL    HW188827  10.213   9.829  12.450 -0.2502 -0.2356 -2.8670
26171SOL    HW288828  10.199   9.680  12.428 -0.6587 -0.6662 -0.0114
26172SOL     OW88829  11.292   3.240   3.756  0.6170  0.4786 -0.1295
26172SOL    HW188830  11.295   3.180   3.682 -1.2222 -0.7144  0.7045
26172SOL    HW288831  11.203   3.275   3.755  0.5606  0.4379  1.5015
26173SOL     OW88832   7.319   8.963   8.521 -0.0244 -0.4427  0.8070
26173SOL    HW188833   7.245   8.919   8.479  1.0803 -1.4838 -0.1307
26173SOL    HW288834   7.308   9.056   8.498 -0.0972 -0.8270 -0.8252
26174SOL     OW88835   9.782   6.631   0.551  0.2534  0.4851 -0.5144
26174SOL    HW188836   9.694   6.594   0.544  0.4825  0.0091 -0.9556
26174SOL    HW288837   9.774   6.719   0.514  0.0993  0.2060 -1.1544
26175SOL     OW88838   6.722   0.382   5.860 -0.1307  0.4662  0.1097
26175SOL    HW188839   6.770   0.394   5.778  1.5004  0.9014  1.0642
26175SOL    HW288840   6.710   0.471   5.893  1.0607  0.2210  1.3024
26176SOL     OW88841  11.815  12.624   1.993 -0.0492  0.2059 -0.6450
26176SOL    HW188842  11.746  12.619   1.927  0.3749  0.4950 -1.1221
26176SOL    HW288843  11.871  12.695   1.962  0.8149 -0.4486 -0.6163
26177SOL     OW88844   2.139   3.625   7.549 -0.9558  0.3555  0.5685
26177SOL    HW188845   2.192   3.545   7.556 -3.0552 -1.1029  1.0275
26177SOL    HW288846   2.063   3.598   7.497 -1.9039  1.9634  1.0696
26178SOL     OW88847   9.492   4.079  12.384  0.1847 -0.3122  0.0584
26178SOL    HW188848   9.567   4.104  12.439 -1.3757 -0.9470  2.6614
26178SOL    HW288849   9.443   4.160  12.371  0.3515 -0.2316 -0.0675
26179SOL     OW88850  12.848   3.508   9.079  0.2986 -0.0258 -0.1509
26179SOL    HW188851  12.818   3.541   9.164  2.4127  0.8676  0.3137
26179SOL    HW288852  12.895   3.582   9.040 -1.1627 -0.1964 -2.4439
26180SOL     OW88853   5.703  12.693   5.489  0.1174  0.5333  0.0771
26180SOL    HW188854   5.690  12.673   5.582  1.3752 -0.2212  0.1070
26180SOL    HW288855   5.747  12.778   5.488  0.9501  0.1107  0.2181
26181SOL     OW88856   8.710  12.290   4.510  0.3912 -0.3418  0.3252
26181SOL    HW188857   8.726  12.385   4.503 -1.8656  0.0086 -1.4394
26181SOL    HW288858   8.787  12.250   4.471  1.0744  0.8036  0.4520
26182SOL     OW88859  10.121  12.958   8.654  0.6944 -0.0466 -0.1117
26182SOL    HW188860  10.177  12.983   8.728  0.3359  0.0002  0.1440
26182SOL    HW288861  10.177  12.970   8.577  0.6878  1.0826  0.0399
26183SOL     OW88862   6.525   0.955   2.194  0.1058 -0.2786 -0.2456
26183SOL    HW188863   6.490   1.009   2.264 -0.6663 -1.0839  0.0232
26183SOL    HW288864   6.453   0.950   2.130  1.4238  1.9844 -2.0421
26184SOL     OW88865   7.954   9.292   7.607  0.2316  0.2486  0.4551
26184SOL    HW188866   8.041   9.286   7.647  0.3050  2.9681  0.8609
26184SOL    HW288867   7.906   9.354   7.661 -1.5017 -0.0955 -0.6059
26185SOL     OW88868   0.688   0.181   1.352  0.8485 -0.3756 -0.8092
26185SOL    HW188869   0.728   0.099   1.323 -0.0774 -0.5478 -1.6467
26185SOL    HW288870   0.609   0.154   1.398 -0.0455  0.0675 -2.0354
26186SOL     OW88871   6.376   9.888   6.676  0.1227 -0.4852  0.8361
26186SOL    HW188872   6.289   9.894   6.716  0.4527 -0.1749  1.5191
26186SOL    HW288873   6.358   9.879   6.582 -0.6597 -1.4770  1.0707
26187SOL     OW88874   6.158   1.250   3.694  0.0232  0.2187  0.2326
26187SOL    HW188875   6.095   1.191   3.736  2.0144 -1.1382  1.5139
26187SOL    HW288876   6.193   1.198   3.621 -0.7322  1.1865 -0.8477
26188SOL     OW88877  10.563   7.581  11.097  1.1538  0.5099  0.0591
26188SOL    HW188878  10.558   7.650  11.163  3.3723 -0.0294  0.8556
26188SOL    HW288879  10.655   7.577  11.073  0.6836 -0.5566 -1.7635
26189SOL     OW88880   2.832   0.544   7.600  0.4725  0.2903  0.2717
26189SOL    HW188881   2.795   0.502   7.678  0.1561 -2.5899 -1.2811
26189SOL    HW288882   2.793   0.631   7.598 -0.8574 -0.1961  2.3857
26190SOL     OW88883   7.434   9.550  12.029 -0.0963 -0.0547  0.3021
26190SOL    HW188884   7.460   9.518  12.115 -0.3397 -0.1017  0.3595
26190SOL    HW288885   7.516   9.557  11.980  0.0893  0.3592  0.6654
26191SOL     OW88886   2.122   1.895   8.874  0.0157  0.0043  0.0139
26191SOL    HW188887   2.157   1.883   8.962  2.1174  2.6397 -0.3382
26191SOL    HW288888   2.197   1.884   8.816 -1.1711 -0.9252 -1.4223
26192SOL     OW88889  12.776   6.122   1.091  0.0832  0.0812  0.2420
26192SOL    HW188890  12.689   6.082   1.097 -0.0058  0.3846  1.2361
26192SOL    HW288891  12.769   6.201   1.146  0.4762  1.0622 -1.0621
26193SOL     OW88892  12.308   0.170   3.388  0.9990  0.1021 -0.3760
26193SOL    HW188893  12.324   0.080   3.416 -0.7056  0.5263  2.2477
26193SOL    HW288894  12.330   0.223   3.464  0.6339  1.7945 -1.4086
26194SOL     OW88895   7.838   2.613  10.348  0.4730 -0.8093 -0.6629
26194SOL    HW188896   7.843   2.630  10.442  0.3353 -0.2466 -0.7552
26194SOL    HW288897   7.746   2.591  10.333  0.4213 -0.5598 -0.7199
26195SOL     OW88898   0.588  10.630   3.636  0.4488 -0.0552 -0.3503
26195SOL    HW188899   0.509  10.651   3.686 -0.0222  0.1433 -1.1595
26195SOL    HW288900   0.660  10.640   3.699 -0.0519  0.9585  0.0823
26196SOL     OW88901   4.230   4.998   7.591  0.0988 -0.0112 -0.0416
26196SOL    HW188902   4.257   4.917   7.547  1.8104  0.7283 -0.4742
26196SOL    HW288903   4.192   4.970   7.674 -0.3555 -1.2925 -0.6642
26197SOL     OW88904   8.245   0.325  10.770  0.3934 -0.1590  0.1740
26197SOL    HW188905   8.304   0.395  10.743 -0.2337  0.0616 -0.6603
26197SOL    HW288906   8.173   0.369  10.815  0.6040 -0.3860  0.7508
26198SOL     OW88907   5.523  12.860   0.696  0.1647  0.0489  0.1518
26198SOL    HW188908   5.562  12.925   0.755  0.5438  0.0628 -0.1112
26198SOL    HW288909   5.460  12.813   0.751  1.0458 -0.4321  0.7723
26199SOL     OW88910   2.808   3.806   3.447  0.4110  0.0471 -0.7595
26199SOL    HW188911   2.892   3.806   3.492  0.5864 -0.6922 -1.0804
26199SOL    HW288912   2.825   3.764   3.363 -0.4618 -0.9368 -0.4689
26200SOL     OW88913   5.455   8.010   5.837 -0.3195  0.5319 -0.5169
26200SOL    HW188914   5.489   7.921   5.829 -0.1005  0.5891 -0.2107
26200SOL    HW288915   5.397   8.006   5.913 -1.2272  0.3632 -1.2008
26201SOL     OW88916  11.887   1.355  11.126 -0.4693  0.5860  0.3471
26201SOL    HW188917  11.898   1.264  11.096 -1.2408  0.7181 -0.3867
26201SOL    HW288918  11.794   1.374  11.112 -1.1420  0.3809  3.7682
26202SOL     OW88919   1.228   6.167   7.903  0.0652 -0.0695 -0.2280
26202SOL    HW188920   1.271   6.252   7.904 -0.9055  0.4369 -0.1296
26202SOL    HW288921   1.141   6.184   7.941  0.2457 -1.3145  0.8031
26203SOL     OW88922   4.399  12.399   0.625 -0.7016 -0.0828  0.3643
26203SOL    HW188923   4.385  12.455   0.549  1.7520 -1.5853 -1.3264
26203SOL    HW288924   4.318  12.347   0.632 -0.5453 -0.7490 -1.9994
26204SOL     OW88925   0.332   2.540   9.726 -0.4477 -0.5064 -0.1397
26204SOL    HW188926   0.278   2.473   9.769 -0.1072 -1.1575 -0.7109
26204SOL    HW288927   0.412   2.542   9.778  0.7144 -2.5728 -1.7055
26205SOL     OW88928   0.717  11.051   4.769  0.2686  0.4630  0.1012
26205SOL    HW188929   0.744  11.142   4.756  1.4882  0.0835 -0.1482
26205SOL    HW288930   0.649  11.037   4.703 -1.0828  1.6402  1.1745
26206SOL     OW88931   4.336  10.421   7.513  0.4302 -0.0978 -0.0101
26206SOL    HW188932   4.329  10.476   7.435 -0.5363 -0.8744 -0.4906
26206SOL    HW288933   4.254  10.436   7.560  1.3845  1.0854  1.3810
26207SOL     OW88934   6.411   8.439   5.867 -0.3539  0.2728 -0.1572
26207SOL    HW188935   6.424   8.534   5.865  1.8785  0.0386 -0.0397
26207SOL    HW288936   6.447   8.412   5.952 -0.3229 -0.7369 -0.4828
26208SOL     OW88937   2.133   3.104   5.059  0.2476 -0.1430  0.4243
26208SOL    HW188938   2.040   3.128   5.065  0.0895 -0.3108 -1.0417
26208SOL    HW288939   2.149   3.094   4.965  1.2760 -1.9834  0.7642
26209SOL     OW88940   7.232   9.637   0.576 -0.3885 -0.4899 -0.1591
26209SOL    HW188941   7.269   9.549   0.577 -1.4106 -0.9812 -1.7544
26209SOL    HW288942   7.184   9.642   0.493 -0.5918  1.4734  0.0288
26210SOL     OW88943  12.890   2.389  11.477 -0.1656  0.3326 -0.3732
26210SOL    HW188944  12.930   2.455  11.534 -0.1696  1.1490 -1.3007
26210SOL    HW288945  12.914   2.306  11.517  1.6685  0.8298 -0.3785
26211SOL     OW88946   6.074   8.608   0.015 -0.0745  0.2704  0.4162
26211SOL    HW188947   5.994   8.566  -0.019 -0.5434  2.3462 -1.2474
26211SOL    HW288948   6.142   8.584  -0.048 -0.0746  0.9229  0.1581
26212SOL     OW88949   4.815   4.877   9.153 -0.2325  0.5107  0.0653
26212SOL    HW188950   4.757   4.815   9.198 -0.9566  0.5993 -0.7179
26212SOL    HW288951   4.882   4.822   9.113 -1.2005  0.1525 -1.1194
26213SOL     OW88952   2.461   6.685   0.191  0.3570  0.5083 -0.2175
26213SOL    HW188953   2.493   6.706   0.103 -0.2587 -0.5119 -0.7084
26213SOL    HW288954   2.367   6.669   0.178  0.6783 -1.9335  0.1977
26214SOL     OW88955   8.733   7.512   5.832  0.2539  0.5518  0.4199
26214SOL    HW188956   8.771   7.516   5.744 -1.4255 -3.2428 -0.7075
26214SOL    HW288957   8.788   7.448   5.879 -1.9652 -1.7094  0.1540
26215SOL     OW88958   7.718   4.510   5.867 -0.5508  0.4961 -0.3261
26215SOL    HW188959   7.777   4.583   5.852 -0.4423  0.7442  1.1186
26215SOL    HW288960   7.632   4.541   5.840 -0.4898  1.1409  0.2038
26216SOL     OW88961   0.528   1.338  10.721  0.0208 -0.1239 -0.1245
26216SOL    HW188962   0.548   1.428  10.698 -2.3000  0.2844 -0.8304
26216SOL    HW288963   0.461   1.311  10.657 -0.9259 -1.5827  1.3881
26217SOL     OW88964  11.357   6.041   1.664 -0.4210 -0.4350  0.1088
26217SOL    HW188965  11.431   6.041   1.603  0.1220 -0.7131  0.7586
26217SOL    HW288966  11.389   5.995   1.741 -1.6583 -1.6161 -0.0403
26218SOL     OW88967   7.367   1.808   6.626 -0.3188 -0.0468  0.6077
26218SOL    HW188968   7.391   1.862   6.550 -0.6141  0.8853  1.1675
26218SOL    HW288969   7.440   1.817   6.687 -1.1852  1.2595  1.5002
26219SOL     OW88970   7.280   0.346   9.522  0.0312 -0.0673  0.6229
26219SOL    HW188971   7.336   0.269   9.513  0.2897  0.2442 -0.6561
26219SOL    HW288972   7.203   0.314   9.567  0.6712 -0.8003  1.2214
26220SOL     OW88973   4.547   9.315   7.526 -0.5317  0.0790 -0.0377
26220SOL    HW188974   4.530   9.256   7.600  1.5344 -1.1656 -0.4953
26220SOL    HW288975   4.590   9.391   7.566  0.8581 -0.7267  0.0376
26221SOL     OW88976   5.683  12.233   6.096 -0.3225 -0.2461  0.1935
26221SOL    HW188977   5.704  12.202   6.184  1.1138 -2.8427 -0.9273
26221SOL    HW288978   5.750  12.299   6.077  0.2787 -0.7375  0.5471
26222SOL     OW88979   7.823  11.614   7.150 -0.3151  0.3976 -0.2477
26222SOL    HW188980   7.864  11.589   7.233 -0.1573  0.4502 -0.3105
26222SOL    HW288981   7.855  11.549   7.087 -2.1562 -1.0098  0.1785
26223SOL     OW88982  11.838   4.697   7.045 -0.2188 -0.0055  0.5911
26223SOL    HW188983  11.845   4.661   7.134 -0.4329 -0.9819  0.2296
26223SOL    HW288984  11.928   4.698   7.013 -0.3521 -1.7609  0.0419
26224SOL     OW88985   7.865   5.883   7.272 -0.4516  0.3640 -0.3415
26224SOL    HW188986   7.849   5.963   7.223  0.0780  1.2860  0.9218
26224SOL    HW288987   7.919   5.829   7.214  0.9167  1.7941 -0.4425
26225SOL     OW88988   1.969   4.236   4.209 -0.1308  0.4656 -0.0527
26225SOL    HW188989   1.909   4.299   4.248  1.0639  0.7704  1.3798
26225SOL    HW288990   2.040   4.288   4.174  0.6073 -0.0155  0.6714
26226SOL     OW88991   0.976   4.120   5.513  0.7474  0.1048 -0.4224
26226SOL    HW188992   1.041   4.189   5.527 -0.9115  1.4519  0.9331
26226SOL    HW288993   1.009   4.073   5.436  1.3125  3.1694 -2.2395
26227SOL     OW88994   4.773   8.868   0.105 -0.7669  0.6169  0.5366
26227SOL    HW188995   4.851   8.825   0.070 -1.3501 -0.6083  0.6769
26227SOL    HW288996   4.806   8.945   0.150  0.2523  0.7556 -0.3934
26228SOL     OW88997  11.833   4.709   4.536 -0.7213 -0.7954  0.3544
26228SOL    HW188998  11.926   4.729   4.532 -0.7263  0.0790  2.9186
26228SOL    HW288999  11.823   4.656   4.616 -2.6148  0.5679  1.0916
26229SOL     OW89000  11.975  11.956   8.708  0.0437  0.1263 -0.2418
26229SOL    HW189001  12.060  11.914   8.695  0.9809  1.5153  1.0530
26229SOL    HW289002  11.996  12.040   8.748 -1.9613  0.4348  0.2708
26230SOL     OW89003   0.909   3.811   6.678 -0.4540  0.0168 -0.0972
26230SOL    HW189004   0.951   3.740   6.629  1.2826  1.0836 -0.2453
26230SOL    HW289005   0.837   3.839   6.622  0.0637 -0.3389 -0.9638
26231SOL     OW89006   1.794   4.651  10.858 -0.0062  0.1664 -0.1371
26231SOL    HW189007   1.882   4.614  10.867 -0.2813 -0.3675  0.3383
26231SOL    HW289008   1.762   4.661  10.947 -0.6050 -0.0447 -0.3247
26232SOL     OW89009   9.595   8.561   3.678  0.5218 -0.3769  0.5503
26232SOL    HW189010   9.547   8.643   3.665 -0.3965 -0.4677  2.8576
26232SOL    HW289011   9.541   8.495   3.637  0.8393  0.0455 -0.5777
26233SOL     OW89012   0.371   1.492   2.911  0.0269  0.0427  0.9816
26233SOL    HW189013   0.460   1.512   2.941  0.0625  0.1033  0.8309
26233SOL    HW289014   0.357   1.549   2.836 -0.1541  0.0604  1.0283
26234SOL     OW89015   3.143   0.621   0.674  0.2998 -0.6504  0.1619
26234SOL    HW189016   3.084   0.645   0.604 -0.9913  2.2825  2.0578
26234SOL    HW289017   3.111   0.535   0.705 -1.2206 -0.4028 -0.6423
26235SOL     OW89018   9.622   7.072   9.119  0.0522  0.4578  0.2453
26235SOL    HW189019   9.555   7.059   9.051  0.5337 -0.5937 -0.0523
26235SOL    HW289020   9.628   7.167   9.129 -1.3034  0.5907  0.1001
26236SOL     OW89021   4.503   7.556   9.297 -0.3215 -0.7449 -0.2796
26236SOL    HW189022   4.458   7.473   9.279  0.4797 -2.0116  2.8957
26236SOL    HW289023   4.549   7.541   9.380  1.2293  2.3738 -0.4355
26237SOL     OW89024   2.209   8.760   1.834 -0.0852  0.2666  0.0672
26237SOL    HW189025   2.120   8.738   1.860 -1.0866  2.5106 -1.2126
26237SOL    HW289026   2.245   8.808   1.908 -0.6890  1.1419 -0.1948
26238SOL     OW89027  11.264  11.063   8.990  0.4955  0.3495  0.5813
26238SOL    HW189028  11.352  11.102   8.993  0.7345 -0.1133 -0.1773
26238SOL    HW289029  11.267  10.992   9.053  0.7068  0.2575  0.4685
26239SOL     OW89030  11.211   2.870  12.562  0.4552 -0.8278  0.5368
26239SOL    HW189031  11.180   2.806  12.626 -1.0282 -1.3248 -0.6327
26239SOL    HW289032  11.138   2.931  12.551  0.6140 -0.8528 -0.7978
26240SOL     OW89033   1.028  10.481   2.702  0.4771 -0.9636  0.0581
26240SOL    HW189034   1.116  10.460   2.734  0.0995 -1.2887  0.8863
26240SOL    HW289035   0.976  10.403   2.720 -0.2666 -0.3415  0.6327
26241SOL     OW89036   9.226   5.249   1.285  0.1107  0.3494  0.0945
26241SOL    HW189037   9.246   5.338   1.257  0.5052 -0.3578 -2.0814
26241SOL    HW289038   9.271   5.238   1.369 -0.1150  2.2264  0.4975
26242SOL     OW89039   9.927   6.584   5.796 -0.0952 -0.0238  0.5285
26242SOL    HW189040  10.017   6.563   5.769 -0.5441 -3.4680  1.2723
26242SOL    HW289041   9.938   6.652   5.863  1.6019  2.1488 -1.7246
26243SOL     OW89042  11.541  12.921   5.581  0.5143  0.7021  0.1450
26243SOL    HW189043  11.456  12.923   5.626  0.5374 -1.4017  0.3947
26243SOL    HW289044  11.605  12.914   5.651  0.7487  0.2842 -0.1091
26244SOL     OW89045   8.736   0.036  11.937  0.7312 -0.5828 -0.3220
26244SOL    HW189046   8.658  -0.005  11.902 -0.7332  1.9047 -0.2091
26244SOL    HW289047   8.746   0.000  12.025 -0.0256 -1.2217 -0.4927
26245SOL     OW89048  11.352   7.703   1.192  0.0283 -0.1448 -0.2684
26245SOL    HW189049  11.387   7.739   1.274 -0.7743  1.2626 -0.4995
26245SOL    HW289050  11.424   7.651   1.156  0.4190 -0.7518  1.2868
26246SOL     OW89051   7.933  11.546  10.679  0.4573 -0.0534  0.3854
26246SOL    HW189052   7.911  11.603  10.752 -0.7105 -0.0912  0.0983
26246SOL    HW289053   7.852  11.497  10.663  0.9158 -0.5545 -0.4693
26247SOL     OW89054   3.063  10.691   5.253 -0.3577  0.1542  0.2128
26247SOL    HW189055   3.042  10.781   5.277  0.8327 -0.0249  2.2171
26247SOL    HW289056   3.094  10.696   5.163 -0.6518  1.6906  0.1775
26248SOL     OW89057   8.736   7.285  11.475 -0.1511 -0.2582  0.1754
26248SOL    HW189058   8.736   7.347  11.403  0.7515 -0.0684  0.3307
26248SOL    HW289059   8.798   7.217  11.449  1.4465  0.6259  1.4312
26249SOL     OW89060  12.841   5.534  10.945 -0.1712 -0.1637 -0.1570
26249SOL    HW189061  12.918   5.590  10.938  1.2597 -1.9168  0.9006
26249SOL    HW289062  12.787   5.576  11.011  0.1676  0.7251 -0.4203
26250SOL     OW89063   7.256   7.425  10.587  0.2103  0.2574 -0.5157
26250SOL    HW189064   7.197   7.408  10.514 -0.5561 -1.2656  0.4142
26250SOL    HW289065   7.280   7.338  10.620  1.2551  0.8935  0.4894
26251SOL     OW89066   2.691   8.847  12.784 -0.0535 -0.6527  0.0045
26251SOL    HW189067   2.631   8.775  12.804 -0.2444 -0.7639 -0.9048
26251SOL    HW289068   2.669   8.872  12.694  1.7479 -1.1868 -0.6257
26252SOL     OW89069   5.086   1.881  12.244 -0.0309  0.1177  0.5502
26252SOL    HW189070   5.107   1.911  12.333  2.7841  1.6792 -0.5069
26252SOL    HW289071   5.076   1.962  12.193 -0.6406 -0.7523 -0.7806
26253SOL     OW89072   1.670  12.115   0.271  0.7437  0.1667  0.6128
26253SOL    HW189073   1.620  12.197   0.275  1.1549  0.5648 -1.4838
26253SOL    HW289074   1.736  12.130   0.203 -1.6863 -3.1830 -2.9432
26254SOL     OW89075   0.134   4.152   1.587  0.3425  0.1740 -0.3507
26254SOL    HW189076   0.107   4.107   1.507 -0.3696 -2.4851  1.2485
26254SOL    HW289077   0.226   4.126   1.599  0.9144  1.7618 -1.0051
26255SOL     OW89078   2.468   3.886   8.758 -0.0874 -0.2557  0.3820
26255SOL    HW189079   2.429   3.896   8.671  0.5291  1.5340  0.2630
26255SOL    HW289080   2.422   3.951   8.812  1.8952  1.1729  0.4850
26256SOL     OW89081  10.818   6.403  10.687  0.4831 -0.5213  0.0192
26256SOL    HW189082  10.775   6.347  10.622 -1.1713  0.3002  0.3550
26256SOL    HW289083  10.878   6.457  10.637  2.0889 -2.5146 -0.3227
26257SOL     OW89084  10.473   0.814   3.493 -0.5574 -0.1753 -0.1339
26257SOL    HW189085  10.558   0.773   3.476 -0.8111 -0.7714 -0.0029
26257SOL    HW289086  10.477   0.898   3.448 -0.5000 -0.8925 -1.4978
26258SOL     OW89087   4.565  11.296   8.267  0.0730 -0.4452 -0.9440
26258SOL    HW189088   4.542  11.204   8.262  2.2256 -1.1055  0.0521
26258SOL    HW289089   4.637  11.307   8.205  0.3096  0.3976 -0.5407
26259SOL     OW89090   6.756   2.311  10.976  0.1376 -0.0872 -0.0806
26259SOL    HW189091   6.707   2.290  10.897 -0.6578 -0.9548  0.6173
26259SOL    HW289092   6.826   2.245  10.979 -0.7972 -1.0706  0.7555
26260SOL     OW89093   1.294   3.810  10.046 -0.4457 -0.2144  0.1403
26260SOL    HW189094   1.204   3.786  10.070 -1.1290  1.6686 -0.3384
26260SOL    HW289095   1.283   3.868   9.970  1.3522 -2.2330 -1.8162
26261SOL     OW89096  10.781   8.306   4.223  0.6955  0.3921 -0.4069
26261SOL    HW189097  10.714   8.361   4.183  0.9791  1.2347  0.2543
26261SOL    HW289098  10.774   8.222   4.177 -0.8918  0.4180 -0.2681
26262SOL     OW89099   5.061   7.375   3.115 -0.6340 -0.5043  0.2305
26262SOL    HW189100   5.105   7.297   3.148  0.3226  0.3131  0.9646
26262SOL    HW289101   5.042   7.427   3.193 -2.0613 -0.3911 -0.1613
26263SOL     OW89102   3.492   4.535  10.634 -0.1731 -0.3419 -0.5570
26263SOL    HW189103   3.543   4.575  10.704  0.9635 -0.2614 -1.3902
26263SOL    HW289104   3.411   4.586  10.631 -0.4579 -0.6557  0.9829
26264SOL     OW89105   1.710   3.638  11.778 -0.2296  0.1157  0.3086
26264SOL    HW189106   1.728   3.720  11.824  0.1797 -0.9373  2.1377
26264SOL    HW289107   1.615   3.638  11.766 -0.1786  1.0924 -0.2324
26265SOL     OW89108   9.780   4.707   1.763  0.1106 -0.2015  0.1303
26265SOL    HW189109   9.694   4.675   1.789 -0.5624  0.5772 -1.0239
26265SOL    HW289110   9.764   4.798   1.735  1.4475  0.2114  0.6234
26266SOL     OW89111   6.368   3.076   7.437  0.1356 -0.0449 -0.0307
26266SOL    HW189112   6.320   3.029   7.368  0.7207  0.4623 -0.8028
26266SOL    HW289113   6.433   3.013   7.468  0.2485 -0.0925 -0.3551
26267SOL     OW89114   5.192   2.375   6.939  0.2443  0.4949 -0.3355
26267SOL    HW189115   5.259   2.441   6.924  1.2466 -0.6434 -1.0717
26267SOL    HW289116   5.220   2.299   6.887  0.4808 -1.4303  2.3663
26268SOL     OW89117  11.083   8.515  12.616  0.2609 -0.3526 -0.4837
26268SOL    HW189118  11.061   8.466  12.696  1.4174  1.3759  0.9699
26268SOL    HW289119  11.175   8.538  12.626  0.8018 -1.1874 -2.9729
26269SOL     OW89120   4.544   3.746   2.061  0.4570  0.1048  0.0367
26269SOL    HW189121   4.525   3.820   2.004 -1.5102 -0.7653 -0.5505
26269SOL    HW289122   4.593   3.685   2.006 -1.0414 -0.5332 -0.6673
26270SOL     OW89123   2.204   3.135   9.077 -0.2343 -0.2986 -0.1169
26270SOL    HW189124   2.198   3.040   9.075  0.1294 -0.3915  1.6529
26270SOL    HW289125   2.298   3.153   9.081 -0.1765  0.2461 -2.5291
26271SOL     OW89126  12.550   1.227   6.995  0.0959  0.7865 -0.0536
26271SOL    HW189127  12.625   1.176   7.026  0.7884  0.9940 -1.2889
26271SOL    HW289128  12.505   1.169   6.934 -0.7083  0.6972  0.6158
26272SOL     OW89129   1.780   2.414   5.491  0.2473  0.4001 -0.1262
26272SOL    HW189130   1.844   2.484   5.481  0.9445 -0.3019 -0.7360
26272SOL    HW289131   1.748   2.422   5.581  1.3142  0.6690  0.2357
26273SOL     OW89132   5.535   0.713   8.175  0.4797  0.4916 -0.0900
26273SOL    HW189133   5.625   0.742   8.158  0.7394 -0.2709 -0.0525
26273SOL    HW289134   5.540   0.618   8.176 -0.0799  0.4575  1.3253
26274SOL     OW89135  10.856   0.431   0.511  0.3344 -0.3226 -0.2041
26274SOL    HW189136  10.801   0.416   0.433  1.3484 -1.9999 -0.6471
26274SOL    HW289137  10.932   0.479   0.478 -0.9304  2.4067  0.4865
26275SOL     OW89138   6.137   4.060   7.438  0.3377 -0.7341 -0.0979
26275SOL    HW189139   6.148   4.146   7.480 -0.4758 -0.3005 -0.7264
26275SOL    HW289140   6.158   3.997   7.506  2.4455 -0.0360 -0.0388
26276SOL     OW89141  10.283   2.237   5.785  0.2148  0.4906 -0.2681
26276SOL    HW189142  10.315   2.165   5.840  0.9582  2.1123  1.5312
26276SOL    HW289143  10.340   2.236   5.709  0.7284 -0.3193  0.1119
26277SOL     OW89144  12.484   3.483   2.866 -0.2095 -0.4801 -0.0090
26277SOL    HW189145  12.495   3.435   2.783  0.3252 -1.3829  0.5720
26277SOL    HW289146  12.542   3.559   2.857  0.5581 -1.0638 -0.1038
26278SOL     OW89147   9.644   1.734   8.756 -0.2515 -0.2594 -0.5118
26278SOL    HW189148   9.571   1.768   8.705  0.5814 -0.1507 -1.6735
26278SOL    HW289149   9.657   1.645   8.724  1.0304  0.2096 -1.3691
26279SOL     OW89150   2.268  12.049   3.908  0.7617  0.0578  0.0477
26279SOL    HW189151   2.176  12.042   3.882  0.8242  0.6941 -0.3461
26279SOL    HW289152   2.288  11.963   3.946  0.3501 -0.5037 -0.9649
26280SOL     OW89153   7.590   1.065   2.453 -0.4912  0.3032 -0.3732
26280SOL    HW189154   7.649   1.106   2.516  0.1267 -1.9181  0.6019
26280SOL    HW289155   7.570   1.134   2.390  1.2298  1.7856  0.6073
26281SOL     OW89156   8.491   3.136   7.411 -0.3270  0.5860 -0.3743
26281SOL    HW189157   8.463   3.049   7.385  1.2178  0.2106 -0.9207
26281SOL    HW289158   8.437   3.158   7.487 -1.7212 -0.2355 -1.0971
26282SOL     OW89159   4.277   5.277  12.676 -0.6358 -0.5690  0.5294
26282SOL    HW189160   4.297   5.184  12.669 -0.0562 -0.4243  0.1667
26282SOL    HW289161   4.188   5.285  12.642 -0.9444 -1.0871  1.2143
26283SOL     OW89162   0.763   0.903   2.044  0.1175 -0.2814  0.3017
26283SOL    HW189163   0.699   0.973   2.027  0.3727 -0.0689  0.2090
26283SOL    HW289164   0.713   0.822   2.033 -0.5925 -0.1142  2.0533
26284SOL     OW89165   4.861   9.477   5.397  0.6225 -0.2592 -0.5643
26284SOL    HW189166   4.885   9.539   5.466  0.8449 -0.7660 -0.1772
26284SOL    HW289167   4.923   9.495   5.326  2.1429 -1.4720  0.3776
26285SOL     OW89168   6.303   2.534   8.686  0.8070  0.2472  0.6822
26285SOL    HW189169   6.266   2.454   8.722 -0.7606  1.1922  1.2785
26285SOL    HW289170   6.273   2.536   8.596 -1.0291  1.1895  1.2618
26286SOL     OW89171   3.221   3.455  11.091  0.1415 -0.9794  0.1385
26286SOL    HW189172   3.219   3.445  10.996 -0.6847  0.2948 -0.0045
26286SOL    HW289173   3.131   3.439  11.119  0.4226 -1.5600  0.7461
26287SOL     OW89174  12.499   6.031   0.909 -0.5717 -0.0335 -0.5924
26287SOL    HW189175  12.577   5.985   0.877  0.3752  2.1753 -1.6985
26287SOL    HW289176  12.509   6.032   1.004  0.1650 -0.7823 -0.6490
26288SOL     OW89177  11.056  12.460   3.517 -0.0301  0.4425  0.3422
26288SOL    HW189178  10.975  12.487   3.474  0.6951  1.2430 -0.5537
26288SOL    HW289179  11.124  12.476   3.453  0.5850 -2.8864 -0.0093
26289SOL     OW89180   1.669   6.548   6.082 -0.1144 -0.0157  0.6218
26289SOL    HW189181   1.581   6.585   6.087  0.1193  0.7684 -0.7451
26289SOL    HW289182   1.706   6.562   6.169 -1.4015 -0.5733  1.2920
26290SOL     OW89183   7.032   4.336   2.174  0.2306 -0.3637 -0.8718
26290SOL    HW189184   7.087   4.260   2.192  0.5271  0.0922  0.1898
26290SOL    HW289185   7.094   4.407   2.158 -0.0148  0.2482  0.7265
26291SOL     OW89186   2.817  10.469   2.303 -0.4725 -0.5711 -0.1028
26291SOL    HW189187   2.747  10.534   2.292 -0.8004 -0.7725  0.7063
26291SOL    HW289188   2.878  10.510   2.364  0.0938 -0.4258 -0.7522
26292SOL     OW89189   4.817   2.726   0.421  0.9747  0.1267  0.2265
26292SOL    HW189190   4.832   2.754   0.511  2.8666  0.6415 -0.2090
26292SOL    HW289191   4.869   2.786   0.367 -0.9016  0.4865 -1.3318
26293SOL     OW89192   2.688   2.997   5.979  0.0382  0.3134  0.4797
26293SOL    HW189193   2.660   3.022   6.067  0.7539  1.2131  0.4541
26293SOL    HW289194   2.760   3.056   5.958  0.2668 -0.2827 -0.4815
26294SOL     OW89195  12.461  12.869   4.149  0.5522  0.4380 -0.6045
26294SOL    HW189196  12.403  12.802   4.185  0.1075  0.6273 -0.9619
26294SOL    HW289197  12.402  12.938   4.120  0.9271  0.4388 -1.3766
26295SOL     OW89198  10.624   2.670  10.813 -0.0608  0.2201 -0.0100
26295SOL    HW189199  10.694   2.607  10.795 -0.8780 -1.4182  2.1251
26295SOL    HW289200  10.635   2.691  10.906 -1.0946  1.6726 -0.1812
26296SOL     OW89201  12.890   8.015   5.144 -0.2095 -0.1963 -0.3834
26296SOL    HW189202  12.853   8.103   5.134  0.2438  0.0749  0.2278
26296SOL    HW289203  12.859   7.967   5.068 -1.0151  0.3028 -0.3896
26297SOL     OW89204   9.289   2.357  10.595  0.2831 -0.4590  0.4267
26297SOL    HW189205   9.277   2.445  10.559 -0.4655  0.0635  1.8832
26297SOL    HW289206   9.338   2.310  10.527 -0.3378  0.7164 -0.8958
26298SOL     OW89207   6.507   1.641   8.317 -0.5613  0.2221  0.0891
26298SOL    HW189208   6.442   1.584   8.276 -1.7986 -0.0041  2.2308
26298SOL    HW289209   6.456   1.701   8.371  0.9439  0.8931  0.8279
26299SOL     OW89210   8.849   1.171   7.726 -0.1186  0.2543  0.5991
26299SOL    HW189211   8.848   1.089   7.776 -0.8249  0.5472  1.0805
26299SOL    HW289212   8.764   1.211   7.745  0.2802  1.1674  0.4682
26300SOL     OW89213   4.242   1.067   6.900  0.1039  0.0743 -0.0452
26300SOL    HW189214   4.296   1.131   6.945  0.3861 -1.2271  1.5859
26300SOL    HW289215   4.200   1.018   6.970 -1.3446 -0.5057 -1.2513
26301SOL     OW89216   6.883  11.799   4.033  0.0913 -0.3852  0.0051
26301SOL    HW189217   6.905  11.708   4.011  0.2644 -0.3126 -0.1258
26301SOL    HW289218   6.843  11.834   3.953  0.9517 -0.0451 -0.2825
26302SOL     OW89219   3.173   2.775  10.194 -0.6008 -0.2482  0.6890
26302SOL    HW189220   3.201   2.693  10.233 -1.9220 -2.4498 -2.5675
26302SOL    HW289221   3.081   2.762  10.174 -0.3945  1.2633 -1.6200
26303SOL     OW89222   8.824   9.638   1.902  0.5845  0.3677  0.4951
26303SOL    HW189223   8.803   9.556   1.857 -0.9746  0.8626  0.2616
26303SOL    HW289224   8.909   9.622   1.944  0.2145 -1.4318  0.6207
26304SOL     OW89225   8.871   4.086   0.586  0.4071 -0.6119  0.4994
26304SOL    HW189226   8.802   4.034   0.627 -0.6182 -0.2818 -0.7536
26304SOL    HW289227   8.836   4.108   0.500  1.3898  0.9788  0.4761
26305SOL     OW89228   0.385   8.986   5.817  0.3181 -0.1873 -0.8528
26305SOL    HW189229   0.355   8.896   5.802  0.8527 -0.3784 -0.8256
26305SOL    HW289230   0.401   9.022   5.730 -0.6647  0.1582 -0.8968
26306SOL     OW89231   8.436   4.066   3.993  0.4170  0.2036  0.1824
26306SOL    HW189232   8.447   4.009   3.916  1.5734  1.2714 -0.4667
26306SOL    HW289233   8.513   4.049   4.047  0.9226  1.3307 -0.1545
26307SOL     OW89234   9.949  12.531   9.231 -0.6070 -0.0241 -0.4330
26307SOL    HW189235   9.976  12.441   9.249 -0.8759 -0.0433 -0.1030
26307SOL    HW289236   9.867  12.542   9.281  0.5836  1.1092  1.4023
26308SOL     OW89237   1.015   8.878   1.174 -0.4156 -0.0732 -0.2351
26308SOL    HW189238   1.075   8.806   1.194 -0.0926 -0.1427 -1.4209
26308SOL    HW289239   1.057   8.955   1.214 -1.2726 -0.6493  1.9468
26309SOL     OW89240   7.343   9.677   5.390  0.1737 -0.2292  0.1500
26309SOL    HW189241   7.319   9.669   5.482 -1.5899  1.0177 -0.1373
26309SOL    HW289242   7.278   9.624   5.343  1.5133 -1.4824 -0.3737
26310SOL     OW89243   6.798   1.415   9.835  0.7360 -0.7298  0.3001
26310SOL    HW189244   6.866   1.474   9.802  1.3939 -1.6923 -0.0956
26310SOL    HW289245   6.733   1.413   9.765  1.1912 -1.2364 -0.1198
26311SOL     OW89246  11.290  11.817  10.949 -0.1858  0.5158  0.3429
26311SOL    HW189247  11.213  11.871  10.966  0.1882  1.0365  0.3893
26311SOL    HW289248  11.289  11.803  10.855 -0.5098  0.2539  0.3809
26312SOL     OW89249   3.973   5.783   9.439  0.5172 -0.1876  0.2541
26312SOL    HW189250   4.060   5.788   9.400  0.4091 -3.0267 -0.5724
26312SOL    HW289251   3.915   5.821   9.373  1.0279  1.4013  0.6664
26313SOL     OW89252   9.588   4.264   0.144  0.2869 -0.1255 -0.9356
26313SOL    HW189253   9.643   4.343   0.151 -0.8850  0.6744 -0.3332
26313SOL    HW289254   9.609   4.213   0.223 -1.2264  1.1507  0.3816
26314SOL     OW89255  12.666   4.523  10.042  0.2351  0.4473 -0.2278
26314SOL    HW189256  12.597   4.506   9.977 -1.2355  1.9327  0.8682
26314SOL    HW289257  12.741   4.553   9.990 -0.2795 -0.1732 -1.3660
26315SOL     OW89258   9.792   4.658  11.380 -0.1831  0.3329  0.4312
26315SOL    HW189259   9.699   4.670  11.400 -0.6234 -0.2569 -1.1012
26315SOL    HW289260   9.817   4.739  11.335 -0.3507 -0.0958 -0.4481
26316SOL     OW89261   3.222   8.300   0.976  0.2400 -0.0100 -0.4720
26316SOL    HW189262   3.129   8.287   0.958  0.0545 -2.0829  1.4841
26316SOL    HW289263   3.233   8.394   0.985 -1.5817  0.2903 -1.0960
26317SOL     OW89264   0.235   9.303  12.721  0.4706 -0.5736  0.1812
26317SOL    HW189265   0.260   9.316  12.813 -1.0577  0.0515  0.5315
26317SOL    HW289266   0.250   9.209  12.705 -0.8694 -1.0693  1.6051
26318SOL     OW89267  12.699   0.936   5.277  0.4374  0.0539  0.3650
26318SOL    HW189268  12.653   1.008   5.233  0.9595  0.4949  0.5227
26318SOL    HW289269  12.692   0.957   5.370  0.0014 -0.4690  0.4531
26319SOL     OW89270   6.740   2.525   7.684  0.1064  0.4953  0.0437
26319SOL    HW189271   6.755   2.431   7.699 -0.7899  0.2972 -0.2563
26319SOL    HW289272   6.703   2.556   7.767  1.4725  0.8413  0.5472
26320SOL     OW89273  10.430  11.793   4.530 -1.0155 -1.0120 -0.2442
26320SOL    HW189274  10.449  11.856   4.460 -1.3026 -1.6776 -0.9387
26320SOL    HW289275  10.418  11.847   4.608 -2.1151 -0.1104 -0.9978
26321SOL     OW89276  12.213   1.018  10.266  0.2802  0.4871  0.0877
26321SOL    HW189277  12.182   0.934  10.232  2.1964 -0.0686 -0.3604
26321SOL    HW289278  12.307   1.007  10.276  0.2900  1.8743  2.0903
26322SOL     OW89279  10.414   6.639   1.206 -0.1667 -0.4343  0.4937
26322SOL    HW189280  10.380   6.654   1.118  0.4688 -0.7108  0.1999
26322SOL    HW289281  10.507   6.659   1.201 -0.2198  0.0724  1.2382
26323SOL     OW89282   9.086   7.404   6.134  0.0188 -0.5859 -0.3873
26323SOL    HW189283   9.042   7.488   6.133 -2.1576 -1.6518 -1.0698
26323SOL    HW289284   9.101   7.384   6.226 -2.1664 -0.7433 -0.0232
26324SOL     OW89285   0.911   7.122   3.836 -0.2435 -0.2603 -0.7039
26324SOL    HW189286   0.905   7.190   3.903  0.9089 -1.9365  1.2168
26324SOL    HW289287   0.965   7.054   3.876 -0.6615 -1.9584 -2.8456
26325SOL     OW89288   6.763   6.401   6.810  0.0418  0.7870  0.3279
26325SOL    HW189289   6.840   6.419   6.755 -0.4639 -0.4532 -0.8267
26325SOL    HW289290   6.798   6.403   6.899  2.0481 -2.2703 -0.2246
26326SOL     OW89291   0.255   2.872  11.987 -0.7733 -0.5180 -0.2647
26326SOL    HW189292   0.290   2.955  12.019 -2.6427 -0.0079  0.5781
26326SOL    HW289293   0.227   2.891  11.897 -1.7406 -0.0358  0.1200
26327SOL     OW89294   8.898  11.421   1.971 -1.0027  0.2360 -0.2990
26327SOL    HW189295   8.950  11.497   1.996 -0.7688 -0.3320  0.9818
26327SOL    HW289296   8.859  11.446   1.887  1.3206  0.6726 -1.3358
26328SOL     OW89297   5.914  12.199  11.562 -0.1214 -0.2144  0.5625
26328SOL    HW189298   5.934  12.291  11.550 -0.5144 -0.3333 -1.2976
26328SOL    HW289299   5.845  12.197  11.629  0.3351  0.7804  1.0645
26329SOL     OW89300   7.465   7.839   1.319 -0.0760  0.0280 -0.1953
26329SOL    HW189301   7.552   7.827   1.359  0.2544  1.4111 -0.4510
26329SOL    HW289302   7.480   7.898   1.245 -0.6830 -2.4790 -2.4644
26330SOL     OW89303   4.607   6.599   6.871  0.1245 -0.0135  0.3094
26330SOL    HW189304   4.556   6.518   6.878 -0.1324  0.1032 -0.1275
26330SOL    HW289305   4.567   6.646   6.798 -0.1614  0.8211  0.9855
26331SOL     OW89306  10.075   0.577   2.133  0.3993  0.4643 -0.3125
26331SOL    HW189307  10.111   0.646   2.077  0.8574  3.2611  3.1077
26331SOL    HW289308  10.151   0.531   2.168  0.1901 -0.1449 -0.6394
26332SOL     OW89309  10.282   5.107  11.716 -0.8638 -0.2327 -0.0184
26332SOL    HW189310  10.295   5.033  11.775  0.0893 -1.2658 -1.4624
26332SOL    HW289311  10.359   5.162  11.730 -1.0672 -0.0279  0.3121
26333SOL     OW89312  11.103   3.978   2.036  0.3663 -0.2028 -0.1918
26333SOL    HW189313  11.137   4.007   1.952  1.9317 -1.1724  0.0750
26333SOL    HW289314  11.162   4.015   2.101  0.2859 -0.9977  0.3549
26334SOL     OW89315   7.528   9.982  12.415  0.2502  0.1469 -1.0385
26334SOL    HW189316   7.456  10.027  12.459 -0.4049  0.4663 -2.3861
26334SOL    HW289317   7.585  10.053  12.384  1.7530 -0.1179  0.9147
26335SOL     OW89318   0.282   4.457   1.299  0.7374 -0.4245 -0.4639
26335SOL    HW189319   0.281   4.545   1.336 -0.3021 -0.1506 -1.1153
26335SOL    HW289320   0.369   4.423   1.321  0.7530  0.3320  0.7727
26336SOL     OW89321   3.234   6.209  12.089  0.2823 -0.1296  0.3046
26336SOL    HW189322   3.227   6.284  12.148  1.0541  0.5150 -0.3916
26336SOL    HW289323   3.144   6.180  12.075 -0.1104  1.1903 -0.0534
26337SOL     OW89324  11.001  12.227   2.307  0.4578 -0.8349 -0.2297
26337SOL    HW189325  10.961  12.241   2.393  0.7250  1.9375 -0.4855
26337SOL    HW289326  10.928  12.209   2.249  0.0087 -0.1108  0.1033
26338SOL     OW89327   7.101   9.085   5.663  0.4480 -0.2226  0.3015
26338SOL    HW189328   7.161   9.015   5.688  2.8128  0.9291 -1.8017
26338SOL    HW289329   7.157   9.158   5.639 -1.8861  1.6847  0.2310
26339SOL     OW89330   4.496  11.352   1.916  0.4801 -0.1000  0.0229
26339SOL    HW189331   4.426  11.333   1.854 -1.1038  0.2179  1.6235
26339SOL    HW289332   4.513  11.446   1.906 -0.7973  0.2558  1.0483
26340SOL     OW89333   6.574   8.679  10.835  0.4751 -0.6302 -0.1701
26340SOL    HW189334   6.654   8.679  10.887 -0.1747 -0.0896  0.8674
26340SOL    HW289335   6.604   8.666  10.745  1.7982  0.3608  0.0952
26341SOL     OW89336  12.228   5.490   3.269 -0.7955 -0.0172 -0.7552
26341SOL    HW189337  12.284   5.568   3.270  0.0533 -0.5307 -2.8400
26341SOL    HW289338  12.166   5.504   3.341 -0.6473  2.5687 -1.0359
26342SOL     OW89339   7.085  10.064   2.250 -0.5273  0.5630  0.0641
26342SOL    HW189340   7.176  10.065   2.282 -0.1840 -0.2134 -0.8210
26342SOL    HW289341   7.038  10.121   2.310  0.0355 -0.9546  2.0504
26343SOL     OW89342   9.893   4.915   5.606 -0.2045 -0.0501  0.0247
26343SOL    HW189343   9.909   4.825   5.580 -0.4366 -0.4224  1.1099
26343SOL    HW289344   9.933   4.922   5.693  1.5309  1.4528 -0.8407
26344SOL     OW89345   2.353   4.514  12.125 -0.6271 -0.0047  0.1020
26344SOL    HW189346   2.444   4.514  12.156 -0.0688  0.7421 -1.4280
26344SOL    HW289347   2.301   4.531  12.203  0.4636 -1.3773  1.1794
26345SOL     OW89348   3.442   6.218  10.186  0.0893 -0.3761 -0.0955
26345SOL    HW189349   3.398   6.178  10.111 -0.2055 -0.1820 -0.0276
26345SOL    HW289350   3.531   6.183  10.182  0.0070 -0.5630 -0.3904
26346SOL     OW89351   0.520   1.671  12.790 -0.4751  0.3122  0.0175
26346SOL    HW189352   0.580   1.731  12.747  0.6038 -0.3921  0.5005
26346SOL    HW289353   0.534   1.685  12.884  0.2434 -1.0941  0.1474
26347SOL     OW89354   1.728   7.599   1.053  0.3458  0.2083  0.2391
26347SOL    HW189355   1.785   7.628   1.124  0.7390 -0.0288  0.0245
26347SOL    HW289356   1.788   7.561   0.988 -0.1380 -0.9367  0.4384
26348SOL     OW89357  10.889  10.605   8.576  0.7606 -0.1238  0.1213
26348SOL    HW189358  10.893  10.518   8.616 -1.4704 -1.4013 -2.1533
26348SOL    HW289359  10.906  10.590   8.483  0.1476  1.8433 -0.3587
26349SOL     OW89360   6.774   1.246   8.768  0.1465 -0.3849  0.3768
26349SOL    HW189361   6.764   1.193   8.847  1.2286 -1.0783  0.0722
26349SOL    HW289362   6.780   1.182   8.697  0.2416  0.1991 -0.1514
26350SOL     OW89363   1.340  10.440   6.577 -0.0776  0.0233 -0.0027
26350SOL    HW189364   1.256  10.446   6.531 -1.5073 -0.3087  2.3879
26350SOL    HW289365   1.344  10.519   6.631  0.7124 -0.4127  0.6062
26351SOL     OW89366  11.086   6.664   3.598  0.4971 -0.6232  0.2108
26351SOL    HW189367  11.061   6.622   3.516  0.6938 -0.4620  0.0675
26351SOL    HW289368  11.180   6.649   3.605  0.7532  0.6510 -0.3357
26352SOL     OW89369   2.623   5.631   0.702  0.1510 -0.1326 -0.0622
26352SOL    HW189370   2.570   5.554   0.681  0.5803 -0.4291 -0.0767
26352SOL    HW289371   2.560   5.698   0.728 -0.3380 -0.0603 -1.3448
26353SOL     OW89372   9.299   0.523   7.158 -0.7512 -0.3851 -0.1914
26353SOL    HW189373   9.305   0.501   7.065  2.0069 -0.4392 -0.0866
26353SOL    HW289374   9.390   0.535   7.185 -1.5785  1.4082  2.0951
26354SOL     OW89375   7.805   0.308   2.814  0.2952  0.2149  0.8494
26354SOL    HW189376   7.804   0.228   2.761 -0.6410  0.8798 -0.1809
26354SOL    HW289377   7.780   0.377   2.753  1.1439  1.3174  1.7161
26355SOL     OW89378   5.073   0.886   1.727  0.5280 -0.3760 -0.5045
26355SOL    HW189379   5.017   0.960   1.703  1.0858 -0.3739 -1.8624
26355SOL    HW289380   5.139   0.924   1.785 -0.3150 -0.2028  0.3638
26356SOL     OW89381  11.650  10.582   2.050 -0.1118  0.0318  0.6044
26356SOL    HW189382  11.618  10.639   1.981  0.1507  0.6559  0.9833
26356SOL    HW289383  11.571  10.548   2.092 -0.2766 -0.5947 -0.1814
26357SOL     OW89384   2.176   4.469   5.225  0.3003 -0.3082 -0.2433
26357SOL    HW189385   2.154   4.533   5.157  0.5234  1.6412  1.4286
26357SOL    HW289386   2.265   4.492   5.251  0.9337 -2.2289 -0.5233
26358SOL     OW89387   5.092   1.336   7.018 -0.0638 -0.4073 -0.3761
26358SOL    HW189388   5.154   1.272   6.983  0.4280 -0.3040  0.2987
26358SOL    HW289389   5.145   1.412   7.040 -0.7312  0.4919 -1.7445
26359SOL     OW89390   0.542   4.461   3.564 -0.1188  0.1542 -0.0981
26359SOL    HW189391   0.606   4.396   3.534  0.8302  1.6071 -1.4050
26359SOL    HW289392   0.593   4.519   3.621  0.0276  1.8465 -1.8490
26360SOL     OW89393   7.448   9.613  12.677 -0.0490 -0.0700 -0.5342
26360SOL    HW189394   7.510   9.650  12.615  0.2111 -0.5396 -0.5564
26360SOL    HW289395   7.471   9.653  12.761  1.6545 -1.7809 -0.1140
26361SOL     OW89396   2.239   9.267   7.130 -0.4843 -0.1530  0.5193
26361SOL    HW189397   2.183   9.268   7.052 -1.8125 -0.7344  1.4238
26361SOL    HW289398   2.199   9.331   7.188  0.6566  0.4741  0.6348
26362SOL     OW89399   9.759  10.706   0.904 -0.5419 -0.3062 -0.1203
26362SOL    HW189400   9.852  10.720   0.918 -0.7707  1.1265  0.0939
26362SOL    HW289401   9.716  10.766   0.966 -1.6010 -0.2978 -0.8315
26363SOL     OW89402   9.604   4.209   0.643  0.0765 -0.7679  0.2349
26363SOL    HW189403   9.656   4.256   0.578 -2.5984  0.9767 -0.8098
26363SOL    HW289404   9.607   4.264   0.721 -0.0072 -0.7951  0.2574
26364SOL     OW89405   1.578   6.784   8.090  0.0816  0.5242  0.0905
26364SOL    HW189406   1.673   6.786   8.103  0.1265 -0.3955 -0.0425
26364SOL    HW289407   1.563   6.844   8.016  0.8732 -1.2475 -1.5958
26365SOL     OW89408   8.026   3.494  12.494  0.4851 -0.0637 -0.0075
26365SOL    HW189409   7.986   3.518  12.578  0.6825  1.8279 -0.4165
26365SOL    HW289410   7.985   3.552  12.430 -0.4316 -2.1810 -1.4589
26366SOL     OW89411   4.914  11.520   6.761  0.2473 -0.4922  0.5263
26366SOL    HW189412   4.905  11.435   6.717  0.2070 -0.3960  0.3478
26366SOL    HW289413   4.922  11.583   6.690 -2.0146 -0.0608  0.5760
26367SOL     OW89414   6.141  11.556  10.413 -0.0997 -0.1238 -0.4779
26367SOL    HW189415   6.108  11.538  10.502 -0.6703 -1.6242 -0.9550
26367SOL    HW289416   6.073  11.610  10.373 -0.8257 -1.1034 -0.6250
26368SOL     OW89417   9.544   3.236   2.971 -0.2212  0.5483 -0.2570
26368SOL    HW189418   9.615   3.179   2.941 -0.0379  1.2693 -1.2342
26368SOL    HW289419   9.464   3.188   2.949 -0.0558 -0.0976  0.5052
26369SOL     OW89420   1.771   9.313  11.336  0.4336 -0.0441 -0.4438
26369SOL    HW189421   1.760   9.281  11.247  3.4619  0.4269 -1.0793
26369SOL    HW289422   1.840   9.258  11.373 -1.6532 -1.1430  2.1600
26370SOL     OW89423   7.458   1.672  11.155 -0.0641  0.8107  0.1868
26370SOL    HW189424   7.468   1.734  11.226  0.1419  0.5273  0.4077
26370SOL    HW289425   7.395   1.713  11.096 -0.8017  0.7267  0.8964
26371SOL     OW89426   8.872   1.365   7.091  0.1102  0.2010 -0.6361
26371SOL    HW189427   8.911   1.442   7.049  0.2197  0.3724 -0.2360
26371SOL    HW289428   8.876   1.386   7.185 -0.2206 -0.1248 -0.5487
26372SOL     OW89429   0.020  10.554  12.834 -0.0024 -0.4047 -0.0624
26372SOL    HW189430   0.084  10.483  12.849  1.7696  1.1421  0.0454
26372SOL    HW289431  -0.039  10.518  12.768  0.3672 -2.2658  0.5455
26373SOL     OW89432   2.652   2.150   0.388  0.8634  0.7825  0.1804
26373SOL    HW189433   2.557   2.156   0.380  0.7116 -1.1759 -0.0952
26373SOL    HW289434   2.667   2.111   0.475  1.2948 -0.5669 -0.4689
26374SOL     OW89435   2.582   5.477   5.101  0.2079 -0.3735  0.5281
26374SOL    HW189436   2.532   5.536   5.045  0.1093  0.0437  1.0456
26374SOL    HW289437   2.599   5.400   5.047  1.7962  0.8095 -0.7563
26375SOL     OW89438   9.926   0.077  12.555  0.3506 -0.0741  0.4383
26375SOL    HW189439   9.863   0.135  12.597  0.9675 -0.9356  2.6588
26375SOL    HW289440   9.880  -0.006  12.546  0.2833  0.0461 -0.5265
26376SOL     OW89441   7.375   9.981   7.779  0.3241  0.3328  0.3679
26376SOL    HW189442   7.392   9.972   7.685  0.9131 -0.6703  0.5573
26376SOL    HW289443   7.333  10.067   7.787 -1.4326 -0.3216 -1.0434
26377SOL     OW89444   3.098  12.742   8.258  0.8627  0.1032 -0.4099
26377SOL    HW189445   3.140  12.656   8.264  1.7009  0.4787 -0.8197
26377SOL    HW289446   3.096  12.774   8.348  0.4754 -0.3735 -0.2439
26378SOL     OW89447   6.052   7.912   8.367 -0.1795  0.0889 -0.4391
26378SOL    HW189448   6.093   7.954   8.442 -0.6188  0.8248 -0.6076
26378SOL    HW289449   6.122   7.908   8.301 -0.5363  2.0403 -1.0027
26379SOL     OW89450   3.098   8.799  12.594 -0.8110  0.3756 -0.7009
26379SOL    HW189451   3.057   8.765  12.514  1.4171 -0.7331 -1.4431
26379SOL    HW289452   3.063   8.744  12.664 -0.3268 -0.8029 -1.3687
26380SOL     OW89453   0.294   7.164   3.828  0.3241  0.6318  0.0048
26380SOL    HW189454   0.347   7.206   3.760  0.8989  1.6360  1.0199
26380SOL    HW289455   0.322   7.208   3.909  0.5431 -1.3607  1.0612
26381SOL     OW89456  11.027  11.821   6.706  0.2508  0.1776 -0.3668
26381SOL    HW189457  10.953  11.812   6.767  0.6799  0.4098  0.2016
26381SOL    HW289458  11.075  11.739   6.715 -0.7709 -0.6100 -1.8808
26382SOL     OW89459   8.065   0.044   3.164 -0.3371 -0.6881 -1.0538
26382SOL    HW189460   7.998   0.100   3.125  0.3126 -1.2110 -3.0353
26382SOL    HW289461   8.123   0.104   3.210 -3.2337 -0.3873  2.6101
26383SOL     OW89462   1.679   8.590   1.480  0.4956  0.1056  0.3000
26383SOL    HW189463   1.740   8.642   1.532  0.0833 -0.1899  1.1064
26383SOL    HW289464   1.675   8.506   1.525 -0.1562 -0.0331 -0.0035
26384SOL     OW89465   2.534  11.907   7.784  0.3399 -0.1429  0.1625
26384SOL    HW189466   2.514  11.861   7.866 -0.6474  2.6418  1.6205
26384SOL    HW289467   2.471  11.871   7.721 -0.7937 -0.4242  1.3986
26385SOL     OW89468  12.274  12.592   4.902  0.5450 -0.1401  0.2248
26385SOL    HW189469  12.269  12.497   4.909  2.6657 -0.4455 -1.3174
26385SOL    HW289470  12.262  12.609   4.808  0.7688  1.0520  0.4043
26386SOL     OW89471   3.468   4.852   0.295 -0.0106  0.3860 -0.1820
26386SOL    HW189472   3.542   4.792   0.290 -1.3578 -1.5836  1.5540
26386SOL    HW289473   3.394   4.800   0.263 -1.1045  1.3751  0.6586
26387SOL     OW89474   5.619  11.244   5.660 -0.1406  1.0667 -0.1158
26387SOL    HW189475   5.528  11.228   5.684  0.4322  0.9123  2.2156
26387SOL    HW289476   5.669  11.189   5.721  1.5101  1.4815 -1.0622
26388SOL     OW89477   5.072   8.776   7.882  0.3734 -0.2517 -0.0176
26388SOL    HW189478   5.067   8.684   7.856  2.6639 -0.3709 -0.2236
26388SOL    HW289479   5.061   8.824   7.800  0.0782 -0.3815 -0.0534
26389SOL     OW89480   4.471  10.606   6.632 -0.5292  0.0500  0.5025
26389SOL    HW189481   4.434  10.521   6.653 -0.4594 -0.2975 -0.6855
26389SOL    HW289482   4.562  10.600   6.661 -0.6133 -0.1537  0.7294
26390SOL     OW89483   7.972   9.222   0.656  0.4169 -0.3042  0.1571
26390SOL    HW189484   7.920   9.270   0.591 -0.9282 -1.3707  0.3846
26390SOL    HW289485   8.051   9.195   0.610  0.2975  0.4700 -0.5102
26391SOL     OW89486   6.402   4.164   3.228 -0.1177 -0.2603  0.4716
26391SOL    HW189487   6.374   4.239   3.174 -0.2981  0.3559  1.4086
26391SOL    HW289488   6.336   4.159   3.297  0.2275 -0.9204  0.7552
26392SOL     OW89489   1.737   7.551   4.693  0.0067  0.3256  0.5422
26392SOL    HW189490   1.799   7.483   4.718  1.8450  1.7186  0.0088
26392SOL    HW289491   1.692   7.574   4.774 -0.0357 -0.9066  0.8829
26393SOL     OW89492   6.763   3.319   2.390  0.3844  0.5886  0.2595
26393SOL    HW189493   6.806   3.333   2.474 -0.2174 -1.1186  0.8803
26393SOL    HW289494   6.669   3.323   2.409  0.2380 -0.0858 -0.2835
26394SOL     OW89495  11.871  10.802   8.864 -0.2343 -0.0144 -0.5564
26394SOL    HW189496  11.913  10.777   8.782  1.1828 -0.9445  0.4072
26394SOL    HW289497  11.889  10.730   8.924 -1.5926  0.4508  0.4763
26395SOL     OW89498   9.173   4.075   1.361 -0.0088  0.3298 -0.5432
26395SOL    HW189499   9.092   4.112   1.395  0.2913  0.9182 -0.4477
26395SOL    HW289500   9.169   4.088   1.267  0.0776  0.5700 -0.5137
26396SOL     OW89501   2.361   3.458  12.219  0.3824  0.0435  0.2277
26396SOL    HW189502   2.302   3.519  12.264  1.5912  1.2500  0.2461
26396SOL    HW289503   2.423   3.514  12.172  1.8597 -1.1465  0.6503
26397SOL     OW89504   4.666   2.644   2.130  0.0587  0.3991 -0.4671
26397SOL    HW189505   4.642   2.596   2.209  2.2195  2.4415  1.5821
26397SOL    HW289506   4.675   2.576   2.063 -0.3871 -1.6150  1.3853
26398SOL     OW89507   1.866   6.798  12.973  0.2132  0.1560 -0.7338
26398SOL    HW189508   1.943   6.746  12.996  2.3532  2.7665 -1.4846
26398SOL    HW289509   1.815   6.803  13.054  2.8501  1.4950  1.0026
26399SOL     OW89510   6.626   8.258   0.292  0.2204 -0.0997  0.6706
26399SOL    HW189511   6.538   8.251   0.330 -0.1840  1.2989  0.0544
26399SOL    HW289512   6.669   8.325   0.344  0.3283  0.4408 -0.0975
26400SOL     OW89513   4.087   6.824   9.083 -0.0203  0.1643 -0.1737
26400SOL    HW189514   4.047   6.910   9.088 -2.5236 -0.9965  2.4533
26400SOL    HW289515   4.014   6.765   9.063  0.3126 -1.9569  3.8844
26401SOL     OW89516   9.968   4.568   5.231  0.0392 -0.2610 -0.2465
26401SOL    HW189517  10.026   4.502   5.192  1.4673  0.4441  0.5804
26401SOL    HW289518   9.929   4.612   5.156  1.2633 -0.1861 -0.8746
26402SOL     OW89519   3.533  10.529   2.672  0.2006  0.2237 -0.4204
26402SOL    HW189520   3.607  10.527   2.611  0.8669  1.6122  0.2968
26402SOL    HW289521   3.537  10.615   2.712 -1.7950  0.3025 -0.2994
26403SOL     OW89522  11.374  12.095   8.930  0.2480  0.3656  0.1307
26403SOL    HW189523  11.286  12.102   8.966  1.0603 -0.4851  2.4612
26403SOL    HW289524  11.399  12.185   8.910 -1.8020  0.4923 -2.4845
26404SOL     OW89525   6.499   7.773  10.887  0.0416  0.0059  0.7913
26404SOL    HW189526   6.501   7.868  10.901 -0.7036 -0.0969  1.6759
26404SOL    HW289527   6.586   7.752  10.853  0.1752  1.0159  0.4744
26405SOL     OW89528   0.901  11.344   3.374 -0.4685 -0.5098  0.1544
26405SOL    HW189529   0.914  11.405   3.446  0.6332 -0.2558 -0.2385
26405SOL    HW289530   0.873  11.399   3.301  0.9695 -0.3632 -0.3311
26406SOL     OW89531   6.276  11.794   1.253  0.4983 -0.1852  0.2003
26406SOL    HW189532   6.322  11.736   1.192 -0.1286 -1.5188  0.9619
26406SOL    HW289533   6.329  11.792   1.333  0.6551  0.5830  0.1229
26407SOL     OW89534   5.410   4.542   7.193 -0.0851  0.2105 -0.2084
26407SOL    HW189535   5.369   4.455   7.197  0.0816  0.1067 -0.6984
26407SOL    HW289536   5.354   4.597   7.248 -0.9676  0.0976 -0.9731
26408SOL     OW89537  12.951   5.323   2.758 -0.1922  0.1631 -0.2063
26408SOL    HW189538  12.861   5.317   2.727 -0.5808 -0.9027  1.0753
26408SOL    HW289539  12.969   5.239   2.799  0.8606  0.9168  0.9596
26409SOL     OW89540   2.390   7.422   7.493  0.1283  0.5550 -0.3792
26409SOL    HW189541   2.473   7.386   7.525  0.4644  0.6873 -1.0871
26409SOL    HW289542   2.329   7.407   7.565  0.3471 -1.0784 -0.4973
26410SOL     OW89543   4.728   1.785  11.124 -0.7484 -0.2183 -0.0200
26410SOL    HW189544   4.737   1.702  11.077 -1.1595  1.0083 -2.4497
26410SOL    HW289545   4.802   1.786  11.185 -1.3061 -2.7670  0.8414
26411SOL     OW89546  11.851   5.706   2.993 -0.1178 -0.2716  0.0545
26411SOL    HW189547  11.932   5.670   2.958 -0.5192 -2.1552  0.9558
26411SOL    HW289548  11.787   5.634   2.987 -2.0013  1.3970 -1.4063
26412SOL     OW89549   7.110   1.110   1.453  0.3878  0.5955 -0.0102
26412SOL    HW189550   7.194   1.114   1.408  0.6586 -1.3725  0.2391
26412SOL    HW289551   7.132   1.104   1.545 -0.0593  1.0807  0.1315
26413SOL     OW89552   3.671   0.929   3.354 -0.1287 -0.6656  0.6514
26413SOL    HW189553   3.722   0.901   3.430  1.2297 -0.5368 -0.1713
26413SOL    HW289554   3.730   0.988   3.307 -1.2738 -0.0560 -0.0351
26414SOL     OW89555  11.659   4.673   4.221 -0.3604 -0.2539 -0.8992
26414SOL    HW189556  11.581   4.662   4.275  0.8041  0.8479  1.1381
26414SOL    HW289557  11.690   4.584   4.204 -0.9291 -0.6411  0.0165
26415SOL     OW89558   8.900   6.136   2.798  0.3347 -0.1686  0.3889
26415SOL    HW189559   8.883   6.053   2.843 -2.2048 -0.2610 -0.5376
26415SOL    HW289560   8.845   6.200   2.844 -1.1731  0.0348 -1.5406
26416SOL     OW89561  12.676  10.406   2.853 -0.6360  0.3043 -0.4140
26416SOL    HW189562  12.672  10.317   2.818 -1.1228  0.7041 -1.4132
26416SOL    HW289563  12.704  10.395   2.944 -0.1575 -0.8274 -0.6844
26417SOL     OW89564   7.137   6.801   8.264 -0.0095 -0.1341 -0.0961
26417SOL    HW189565   7.173   6.870   8.319  0.7376 -0.0625 -0.6575
26417SOL    HW289566   7.072   6.846   8.209 -0.6838 -0.1891  0.6287
26418SOL     OW89567  11.556   2.529   4.027 -0.3900 -0.4044 -0.0825
26418SOL    HW189568  11.540   2.435   4.017  0.1131 -0.3196 -2.3497
26418SOL    HW289569  11.469   2.569   4.021 -0.9932 -0.7744  3.6845
26419SOL     OW89570   5.570  11.559   6.919 -0.3460  0.1284  0.3089
26419SOL    HW189571   5.603  11.649   6.922  1.1062 -0.2745 -1.5585
26419SOL    HW289572   5.578  11.527   7.009  1.2191  1.1849  0.5914
26420SOL     OW89573  12.785   8.449   4.910 -0.5910  0.5123 -0.1706
26420SOL    HW189574  12.751   8.472   4.996 -0.0094 -0.9843  0.4922
26420SOL    HW289575  12.778   8.530   4.859  2.7387  2.7022  2.4025
26421SOL     OW89576  12.118   1.394   3.516  0.0514 -0.2582 -0.1934
26421SOL    HW189577  12.138   1.313   3.470  3.4614  0.9929 -1.2787
26421SOL    HW289578  12.142   1.377   3.607 -0.9424 -0.9514 -0.0510
26422SOL     OW89579   0.841  11.089   3.385  0.1338  0.4359  0.6218
26422SOL    HW189580   0.886  11.170   3.360  0.3620 -0.1925 -1.1876
26422SOL    HW289581   0.906  11.039   3.434  0.2494  0.9976  1.0583
26423SOL     OW89582   9.628   0.157   7.198  0.2042  0.0462 -0.2204
26423SOL    HW189583   9.628   0.220   7.126  0.7816 -0.7539 -0.9315
26423SOL    HW289584   9.554   0.100   7.180 -0.2622  0.4485  0.3749
26424SOL     OW89585   3.659  11.752   5.536  0.2266  0.0335  0.3674
26424SOL    HW189586   3.690  11.842   5.527  1.2132 -0.1098  1.8667
26424SOL    HW289587   3.614  11.733   5.454 -0.7421  2.1673  0.3384
26425SOL     OW89588   4.498   1.473   1.181 -0.4756 -0.1490  0.1605
26425SOL    HW189589   4.434   1.502   1.116  0.1929  0.7344 -0.1234
26425SOL    HW289590   4.484   1.531   1.256 -0.2194 -0.1596  0.2170
26426SOL     OW89591  12.818  10.472   7.232  0.5400 -0.2736  0.3557
26426SOL    HW189592  12.775  10.532   7.171  0.4728 -1.1817 -0.5199
26426SOL    HW289593  12.785  10.497   7.318  0.0575  0.5490 -0.0573
26427SOL     OW89594   1.639   9.226   1.402 -0.9358  0.3580 -0.2427
26427SOL    HW189595   1.619   9.318   1.382  0.4749  1.1277  1.6593
26427SOL    HW289596   1.576   9.176   1.349 -0.6254  2.3313 -2.6269
26428SOL     OW89597   7.007  10.914   3.124 -0.2029 -0.2893 -0.0582
26428SOL    HW189598   7.063  10.841   3.097  1.6771  0.3035  1.9290
26428SOL    HW289599   6.922  10.895   3.084  0.9045 -2.1998 -1.6958
26429SOL     OW89600   0.795   4.421   8.416 -0.3709  0.4922  0.0875
26429SOL    HW189601   0.746   4.364   8.357 -1.2375  1.6277 -0.3294
26429SOL    HW289602   0.790   4.507   8.376 -0.3280  1.1507  1.4234
26430SOL     OW89603   2.907   5.117  11.621  0.5380  0.1859 -0.1304
26430SOL    HW189604   2.880   5.209  11.626  0.6964  0.4111 -2.3203
26430SOL    HW289605   2.969   5.107  11.693  0.8885  1.9437 -0.1242
26431SOL     OW89606   3.129  11.585   0.716 -0.1209 -0.3281 -0.3241
26431SOL    HW189607   3.079  11.622   0.643  0.2875  1.4082  0.2202
26431SOL    HW289608   3.212  11.631   0.714  0.5865 -1.5310  0.1917
26432SOL     OW89609   1.448   0.502  11.122 -0.0133  0.1322  0.0367
26432SOL    HW189610   1.508   0.475  11.191 -0.1690 -0.3994 -0.0324
26432SOL    HW289611   1.445   0.598  11.129 -0.8061  0.0420  1.4278
26433SOL     OW89612   5.584  12.618   4.967  0.7108  0.1600  0.2452
26433SOL    HW189613   5.525  12.584   4.900  0.4386  2.0106 -0.5116
26433SOL    HW289614   5.670  12.617   4.925  0.5614  1.1907 -0.1214
26434SOL     OW89615   0.720   1.388   7.118  0.1764  0.1778 -0.5976
26434SOL    HW189616   0.741   1.295   7.127  1.2702  0.5046  0.5005
26434SOL    HW289617   0.784   1.421   7.054  0.0080  0.2421 -0.7334
26435SOL     OW89618   5.127   5.877   5.884 -0.2570  0.4766  0.1671
26435SOL    HW189619   5.035   5.888   5.908 -0.0751  0.2909  0.9874
26435SOL    HW289620   5.166   5.964   5.895 -0.5273  0.7676 -1.0872
26436SOL     OW89621   5.439  12.635   1.870 -0.7995  0.3418 -0.3080
26436SOL    HW189622   5.466  12.673   1.954  1.0602  1.1107 -1.2182
26436SOL    HW289623   5.508  12.573   1.848 -2.4069 -1.6031 -0.2156
26437SOL     OW89624   1.716  11.694  11.340 -0.0688 -0.0714 -0.3346
26437SOL    HW189625   1.631  11.704  11.382 -0.1522 -3.0681  0.4359
26437SOL    HW289626   1.707  11.619  11.282  1.7716  0.2036 -1.0739
26438SOL     OW89627   0.221   6.856  10.384 -0.2751  0.4795 -0.0881
26438SOL    HW189628   0.311   6.888  10.385  0.3079 -1.0412 -1.0413
26438SOL    HW289629   0.199   6.843  10.477  0.5205  0.7614  0.1448
26439SOL     OW89630   9.768  12.636   5.285  0.1124  0.3843  0.0604
26439SOL    HW189631   9.840  12.573   5.288  0.5416  0.9107  1.4197
26439SOL    HW289632   9.705  12.598   5.223  0.4703 -1.2539  0.6538
26440SOL     OW89633  12.655  11.928  10.790 -0.2813 -0.1919 -0.9423
26440SOL    HW189634  12.734  11.875  10.801 -1.0756 -1.1994  0.1482
26440SOL    HW289635  12.605  11.882  10.722 -0.6848 -0.4938 -0.4458
26441SOL     OW89636   0.803   5.349  12.066  0.6477 -0.4806  0.3036
26441SOL    HW189637   0.789   5.256  12.087  0.9824 -0.2650  1.5796
26441SOL    HW289638   0.719   5.379  12.031  0.9076 -1.5593 -1.3805
26442SOL     OW89639  10.928   4.438   2.131 -0.4050  0.0744 -0.5241
26442SOL    HW189640  11.022   4.436   2.149 -0.7130  1.3329  1.5672
26442SOL    HW289641  10.898   4.522   2.165 -2.3491 -0.3857 -0.9224
26443SOL     OW89642   8.869   5.854   5.785 -0.1862  0.1406  0.2640
26443SOL    HW189643   8.833   5.939   5.811  2.2319  1.3326 -0.0261
26443SOL    HW289644   8.868   5.856   5.690 -2.0139 -1.0792  0.2035
26444SOL     OW89645   6.823  10.827   0.976  0.6191  0.4614 -0.8753
26444SOL    HW189646   6.798  10.847   1.066 -0.8306 -0.5035 -1.0336
26444SOL    HW289647   6.797  10.904   0.926  0.4991  0.5887 -0.6168
26445SOL     OW89648  12.328  11.062   5.698 -0.4461 -0.7625 -0.1989
26445SOL    HW189649  12.375  11.000   5.753 -0.3981 -0.5194  0.0392
26445SOL    HW289650  12.281  11.008   5.635  0.9937 -0.9914 -1.1397
26446SOL     OW89651   5.576   4.549   7.587 -0.6171  0.3679  0.3455
26446SOL    HW189652   5.549   4.608   7.517  0.3150  0.0991 -0.2541
26446SOL    HW289653   5.672   4.558   7.590 -0.4458 -1.1981  0.1587
26447SOL     OW89654   4.130   2.678   0.606 -0.3204  0.4161 -0.0361
26447SOL    HW189655   4.189   2.694   0.532 -1.2726  1.3289 -0.6204
26447SOL    HW289656   4.050   2.643   0.567 -0.4025 -0.2441  0.6903
26448SOL     OW89657  11.847  11.243   0.777  0.1906  0.2018  0.1795
26448SOL    HW189658  11.781  11.307   0.805 -0.7841 -0.3647 -0.7422
26448SOL    HW289659  11.807  11.199   0.702  1.8690  0.2115 -0.7472
26449SOL     OW89660   8.339   0.076  10.786  0.9959  0.1512 -0.4379
26449SOL    HW189661   8.335   0.063  10.691 -0.8993 -1.4012 -0.2228
26449SOL    HW289662   8.308   0.165  10.800  1.0929  0.3211 -1.2513
26450SOL     OW89663   3.679   3.735  12.287  0.3023 -0.8863  0.1947
26450SOL    HW189664   3.661   3.726  12.381  2.6115 -1.7554  0.6162
26450SOL    HW289665   3.771   3.714  12.278  1.1482  2.7997 -1.7903
26451SOL     OW89666  10.412   3.313   0.282  0.3109  0.1294 -0.2577
26451SOL    HW189667  10.363   3.291   0.362  0.0316  0.8122 -0.2357
26451SOL    HW289668  10.500   3.333   0.313 -0.4365  2.9801  0.2400
26452SOL     OW89669  12.838   9.133  12.745 -0.0593  0.5658  0.5088
26452SOL    HW189670  12.872   9.215  12.781  0.8049  0.3406  0.2045
26452SOL    HW289671  12.749   9.155  12.716 -0.1192  1.1949  1.1367
26453SOL     OW89672  10.392   9.093   7.950  0.1692  0.1970  1.0664
26453SOL    HW189673  10.359   9.168   7.901  1.2379  0.1525  0.2482
26453SOL    HW289674  10.329   9.023   7.930  0.9430 -0.0106 -0.8427
26454SOL     OW89675   3.817  10.293   7.055 -0.1984  0.2661 -0.2985
26454SOL    HW189676   3.886  10.260   7.112  0.0388 -0.3690 -0.9449
26454SOL    HW289677   3.836  10.255   6.969 -1.7777 -0.5613 -0.3255
26455SOL     OW89678   8.599  10.982   9.604 -0.0648 -0.0241  0.4063
26455SOL    HW189679   8.534  11.052   9.609  0.7430  0.7944 -0.1243
26455SOL    HW289680   8.548  10.902   9.590 -1.0805  0.2759  2.0649
26456SOL     OW89681   6.724   4.728  11.994  0.6879 -1.0059 -0.0423
26456SOL    HW189682   6.695   4.710  12.083  0.5196 -2.8016 -0.4329
26456SOL    HW289683   6.693   4.654  11.943  1.5673 -0.4494 -1.4355
26457SOL     OW89684   1.614   7.267  12.632 -0.7716 -0.2902 -0.3505
26457SOL    HW189685   1.677   7.302  12.695  0.9239 -1.1361 -1.5032
26457SOL    HW289686   1.579   7.344  12.588 -0.6242  0.1993  0.3717
26458SOL     OW89687   0.393   4.047   5.291 -0.2075 -0.0287 -0.0493
26458SOL    HW189688   0.387   4.069   5.384 -0.5633 -1.2999  0.2422
26458SOL    HW289689   0.468   4.098   5.259  0.4832 -0.2781  1.1377
26459SOL     OW89690   0.695   4.190   3.381  0.1145  0.8390  0.3504
26459SOL    HW189691   0.613   4.155   3.417 -0.5602  1.9932  0.0085
26459SOL    HW289692   0.763   4.157   3.439 -0.6142  0.0536  0.7918
26460SOL     OW89693   0.162   3.963   5.808  0.1140  0.7316  0.1154
26460SOL    HW189694   0.215   3.922   5.876 -1.2036  0.5823  1.0908
26460SOL    HW289695   0.179   4.057   5.817  0.0418  0.6999  0.5619
26461SOL     OW89696  11.208   0.971   9.966  0.4197  0.4508 -0.5999
26461SOL    HW189697  11.276   0.982   9.900  2.2048 -1.3820  0.7948
26461SOL    HW289698  11.220   1.046  10.025  0.6416  0.5964 -0.8262
26462SOL     OW89699   3.199   5.611   4.623  0.0931  0.1054 -0.4620
26462SOL    HW189700   3.126   5.662   4.590  1.3002  0.5217 -2.6729
26462SOL    HW289701   3.241   5.576   4.545  1.1021 -1.7751  0.8451
26463SOL     OW89702   4.522   9.599   0.738  0.0227 -0.2582  0.2259
26463SOL    HW189703   4.559   9.558   0.661  2.0813  2.8087 -0.6096
26463SOL    HW289704   4.597   9.637   0.784 -1.3776 -0.1329  2.5901
26464SOL     OW89705  11.813   1.400   4.550  0.0357 -0.1467  0.1366
26464SOL    HW189706  11.892   1.408   4.496 -0.7949  1.3937 -0.9252
26464SOL    HW289707  11.741   1.405   4.487 -0.9280 -1.7252  1.0671
26465SOL     OW89708  11.884   8.280  11.840  0.0869 -0.1740  0.6722
26465SOL    HW189709  11.944   8.282  11.915 -2.2084 -1.4517  2.7054
26465SOL    HW289710  11.832   8.360  11.848  0.1156 -0.1084  0.2081
26466SOL     OW89711   9.607   1.842   2.867 -0.0305  0.4973 -0.2046
26466SOL    HW189712   9.622   1.748   2.867 -1.6366  0.2199 -0.4584
26466SOL    HW289713   9.513   1.852   2.876 -0.1387  2.0347 -2.2549
26467SOL     OW89714  12.223   3.017   1.802  0.3654 -0.2279  0.2051
26467SOL    HW189715  12.314   3.011   1.831  0.8141  0.3617 -1.0212
26467SOL    HW289716  12.227   3.065   1.720 -1.0146 -0.5921 -0.0991
26468SOL     OW89717   0.141   9.153   0.119 -0.3197 -0.3402 -0.3994
26468SOL    HW189718   0.114   9.223   0.179 -0.7080  0.3214 -1.3253
26468SOL    HW289719   0.068   9.090   0.122  0.0365 -0.7427  0.4440
26469SOL     OW89720   0.189  11.019   7.253 -0.4404 -0.6263  0.5416
26469SOL    HW189721   0.246  10.972   7.193  0.6295  0.9036  0.3120
26469SOL    HW289722   0.102  10.981   7.238 -0.1074 -0.6636 -1.5858
26470SOL     OW89723   3.562   0.260  11.612  0.2248  0.7385 -0.5878
26470SOL    HW189724   3.528   0.181  11.570 -0.7181  1.1194 -0.5773
26470SOL    HW289725   3.573   0.236  11.704 -0.4459  0.7294 -0.5045
26471SOL     OW89726   8.376   7.370   8.550 -0.1366 -0.0050 -0.1223
26471SOL    HW189727   8.342   7.424   8.479  0.3310  1.1921  0.5410
26471SOL    HW289728   8.331   7.286   8.540  0.8116 -0.2851 -2.5432
26472SOL     OW89729   0.792   6.812   8.177 -0.2635  0.4681  0.0666
26472SOL    HW189730   0.824   6.752   8.245 -0.6096 -0.0597 -0.2295
26472SOL    HW289731   0.699   6.790   8.167 -0.4234  1.1406  0.0391
26473SOL     OW89732   8.792   2.525   1.261 -0.4599 -0.2228 -0.5988
26473SOL    HW189733   8.836   2.576   1.330 -0.8100 -0.5578 -0.1210
26473SOL    HW289734   8.740   2.590   1.213  2.3415  0.6505 -2.7233
26474SOL     OW89735   9.707   7.652   7.559 -0.0554  0.4700  0.4760
26474SOL    HW189736   9.727   7.567   7.518 -0.2628  1.0554 -0.9060
26474SOL    HW289737   9.611   7.654   7.563 -0.1366  1.2315 -0.9203
26475SOL     OW89738  10.688   2.373   3.698 -0.5000  0.4484 -0.1368
26475SOL    HW189739  10.654   2.432   3.631 -0.9380  1.1416  0.6727
26475SOL    HW289740  10.634   2.390   3.775  1.0199  0.9007  0.9017
26476SOL     OW89741   2.049   1.154   4.790 -0.6619 -0.3904 -0.5512
26476SOL    HW189742   2.142   1.151   4.766 -0.6232  1.7509 -0.8578
26476SOL    HW289743   2.045   1.218   4.861 -1.8129 -0.9915 -0.0603
26477SOL     OW89744  11.646   4.778   5.688 -0.0954  0.1647 -0.0761
26477SOL    HW189745  11.554   4.776   5.662 -0.0360 -0.4074 -0.2632
26477SOL    HW289746  11.668   4.686   5.703  0.3711  0.3240  0.2301
26478SOL     OW89747   5.669   8.707  12.382 -0.2007  0.1293  0.2148
26478SOL    HW189748   5.729   8.664  12.444  1.3143  1.6022 -0.1597
26478SOL    HW289749   5.678   8.657  12.301  2.1159  1.4352 -0.4456
26479SOL     OW89750   8.078  10.500   1.997  0.2461  0.3354  0.0001
26479SOL    HW189751   8.013  10.543   2.053  0.8558 -0.8335  1.6801
26479SOL    HW289752   8.153  10.486   2.054  1.3826  0.2028 -1.4705
26480SOL     OW89753  10.382  12.606   4.747  0.1228  0.0050  0.2675
26480SOL    HW189754  10.359  12.513   4.745 -1.0589  0.1957  2.3571
26480SOL    HW289755  10.299  12.651   4.763  0.9432  1.2683  1.1505
26481SOL     OW89756   7.077   8.664   5.423 -0.4547 -0.1582 -0.0719
26481SOL    HW189757   7.098   8.725   5.353  0.4217 -0.6046 -0.2013
26481SOL    HW289758   7.020   8.598   5.381 -2.2028  1.0435  0.2824
26482SOL     OW89759   7.889   4.179   0.519 -0.0869 -0.4877  0.0902
26482SOL    HW189760   7.800   4.208   0.538  0.2062  0.4781  0.0612
26482SOL    HW289761   7.881   4.123   0.442 -0.4618  1.0748 -1.0601
26483SOL     OW89762   8.302   0.239   1.565 -0.4691  0.4780 -0.1460
26483SOL    HW189763   8.346   0.255   1.481  0.8199 -1.1108  0.1818
26483SOL    HW289764   8.308   0.144   1.578 -0.7847  0.6658  1.6594
26484SOL     OW89765   6.927   0.450   1.916 -0.1314  0.1237 -0.0486
26484SOL    HW189766   6.874   0.373   1.937 -0.1230  0.2236  0.3476
26484SOL    HW289767   6.949   0.440   1.824  1.1821 -1.1364  0.3795
26485SOL     OW89768   0.375   8.047   2.402  0.0680 -0.6607  0.0547
26485SOL    HW189769   0.351   8.137   2.424  0.6900 -0.1970 -1.1246
26485SOL    HW289770   0.308   8.019   2.340  0.3392 -0.7320 -0.2064
26486SOL     OW89771   7.127   9.881   1.205 -0.4782 -0.0480  0.3403
26486SOL    HW189772   7.200   9.914   1.153  0.0593 -0.4196  0.8484
26486SOL    HW289773   7.158   9.797   1.241 -2.0139 -1.4578 -1.4019
26487SOL     OW89774   5.296   1.546   9.529 -0.4989  0.5807 -0.1500
26487SOL    HW189775   5.316   1.595   9.609  0.5829 -0.5099  0.2806
26487SOL    HW289776   5.378   1.549   9.478 -0.9643  0.6844 -0.9067
26488SOL     OW89777   3.308   8.686   6.456  0.0047 -0.3231  0.6041
26488SOL    HW189778   3.334   8.735   6.377 -1.4718  0.7383  0.7260
26488SOL    HW289779   3.330   8.745   6.528  0.5668 -0.9335  0.9325
26489SOL     OW89780   0.323   3.265   1.347 -0.2375 -0.7088 -1.1625
26489SOL    HW189781   0.360   3.332   1.290  0.5268 -0.4594 -0.4130
26489SOL    HW289782   0.272   3.314   1.412 -0.1504 -0.8898 -0.9551
26490SOL     OW89783   0.473  12.805   1.540 -0.5266 -0.0438  0.0844
26490SOL    HW189784   0.557  12.851   1.545  0.5595 -1.9051 -0.1760
26490SOL    HW289785   0.496  12.716   1.517 -2.4912 -0.9509  1.3495
26491SOL     OW89786   3.622  12.798   7.788 -0.2356  0.3152 -0.0712
26491SOL    HW189787   3.694  12.814   7.848  0.0292 -0.7559 -0.0825
26491SOL    HW289788   3.616  12.878   7.735  2.7884 -0.5528 -1.9973
26492SOL     OW89789   3.612   5.795   5.534  0.1850  0.2225  0.3465
26492SOL    HW189790   3.607   5.814   5.441  0.9360 -1.4524 -0.0681
26492SOL    HW289791   3.705   5.788   5.553  0.0079 -0.8201  0.9104
26493SOL     OW89792  10.577   4.117  12.745  0.2774  0.7370 -1.0192
26493SOL    HW189793  10.658   4.130  12.793  0.0883  1.1899 -0.8175
26493SOL    HW289794  10.594   4.152  12.658  0.6170 -0.0770 -1.2902
26494SOL     OW89795  12.810   4.047   1.615  0.5681  0.2930 -0.0653
26494SOL    HW189796  12.757   4.126   1.628 -1.5320 -1.2755  1.9275
26494SOL    HW289797  12.796   4.023   1.524  0.4792  1.6772 -0.4390
26495SOL     OW89798   7.498   2.893   6.310  0.1581 -0.2055 -0.0253
26495SOL    HW189799   7.544   2.925   6.387  0.9115 -1.7990  0.2359
26495SOL    HW289800   7.537   2.941   6.237 -1.3027  2.1132  0.6120
26496SOL     OW89801   3.963   4.939   7.905  0.1433  0.1971 -0.1244
26496SOL    HW189802   3.989   4.897   7.987  0.3168 -0.8825 -0.7253
26496SOL    HW289803   3.987   4.877   7.837 -2.4346 -0.1359 -0.8492
26497SOL     OW89804   7.836   3.562   3.168  0.0038  0.1783 -0.1152
26497SOL    HW189805   7.873   3.474   3.157 -0.0944 -0.1020  1.6484
26497SOL    HW289806   7.912   3.619   3.178  0.0923  0.4256 -1.7709
26498SOL     OW89807   1.426  10.237   3.650  0.1145 -0.2446  0.6580
26498SOL    HW189808   1.417  10.292   3.573 -0.4118 -0.2814  0.6863
26498SOL    HW289809   1.339  10.200   3.663 -0.1233  0.7008  1.9632
26499SOL     OW89810   4.575   6.582  12.569  0.7835 -0.1962  0.2742
26499SOL    HW189811   4.507   6.514  12.578  0.0583  0.7294  2.3057
26499SOL    HW289812   4.533   6.651  12.519  1.0378 -0.6068 -0.5236
26500SOL     OW89813   9.735   5.375   2.645  0.1650 -0.0641  0.4216
26500SOL    HW189814   9.705   5.402   2.732  0.5737  0.7642  0.3160
26500SOL    HW289815   9.659   5.386   2.589 -0.6147 -2.1901  0.9433
26501SOL     OW89816   5.298   7.219   1.543 -0.6108 -0.5104  0.0775
26501SOL    HW189817   5.244   7.299   1.544 -2.4307 -1.6740 -0.4072
26501SOL    HW289818   5.270   7.171   1.621  0.1146 -0.9214  0.0914
26502SOL     OW89819  12.773  11.345  12.725  0.4274  0.9489  0.2532
26502SOL    HW189820  12.824  11.401  12.666  1.4490 -1.9820 -1.9283
26502SOL    HW289821  12.682  11.371  12.711  0.7882  1.3981 -1.5114
26503SOL     OW89822   7.471   5.657   5.794 -0.0542 -0.5209 -0.4107
26503SOL    HW189823   7.421   5.576   5.788 -0.9849  0.0242 -0.2564
26503SOL    HW289824   7.510   5.669   5.708 -1.4492 -0.1769 -1.0157
26504SOL     OW89825  11.804   0.494  10.996 -0.1457 -0.1350 -0.2886
26504SOL    HW189826  11.798   0.548  10.917  1.8532  1.0993  0.3338
26504SOL    HW289827  11.850   0.549  11.059  1.6092 -2.3930  0.5325
26505SOL     OW89828   8.141   3.364   4.480 -0.0057  0.0044  0.0804
26505SOL    HW189829   8.139   3.311   4.560 -1.4406  1.1674  0.8756
26505SOL    HW289830   8.125   3.302   4.409  0.3853 -0.9093  0.7664
26506SOL     OW89831   5.565   6.738   7.995  0.1705 -0.1343  0.5733
26506SOL    HW189832   5.481   6.721   8.038  1.1143 -0.2498  2.4954
26506SOL    HW289833   5.617   6.782   8.062  0.7264  2.5480 -1.4676
26507SOL     OW89834   9.660  10.402   7.121 -0.3060 -0.4883 -0.3628
26507SOL    HW189835   9.667  10.442   7.207 -0.1474 -0.3592 -0.4354
26507SOL    HW289836   9.605  10.325   7.134  1.0680 -1.3985  0.1635
26508SOL     OW89837   4.788   4.318   3.180 -0.2387  0.0380 -0.7995
26508SOL    HW189838   4.829   4.276   3.105  2.1850 -1.1106  0.9917
26508SOL    HW289839   4.798   4.411   3.164 -1.5738 -0.1117 -2.7593
26509SOL     OW89840   2.076   2.334   8.964  0.1682  0.4629 -0.1335
26509SOL    HW189841   2.112   2.363   8.880 -0.4281 -0.0615 -0.5860
26509SOL    HW289842   2.138   2.269   8.996 -1.2280 -1.8714 -1.8355
26510SOL     OW89843   0.611  12.002  10.397  0.3527  0.2639 -0.3353
26510SOL    HW189844   0.632  12.078  10.342 -1.3965  0.3909 -0.8786
26510SOL    HW289845   0.583  11.934  10.336  1.3266 -0.6442  0.1949
26511SOL     OW89846   1.606   6.737   7.218 -0.4658 -0.4313  0.0650
26511SOL    HW189847   1.649   6.821   7.232 -0.0439 -0.5960 -0.2357
26511SOL    HW289848   1.513   6.758   7.214 -0.3144  0.1206 -0.7582
26512SOL     OW89849   7.647   4.569  12.492  0.2640  0.2048  0.1658
26512SOL    HW189850   7.708   4.621  12.440  1.2578 -1.2055 -0.1592
26512SOL    HW289851   7.643   4.613  12.576  1.1970  0.7191 -0.0405
26513SOL     OW89852   6.297  10.857   8.598 -0.1336 -0.2970  0.0861
26513SOL    HW189853   6.241  10.780   8.588 -1.7632  0.5273  2.2688
26513SOL    HW289854   6.371  10.825   8.650  0.1754 -0.8158 -0.6601
26514SOL     OW89855  10.765  11.442   5.763  0.5160  0.0306 -0.3134
26514SOL    HW189856  10.785  11.476   5.850 -1.3990  0.5273 -0.0272
26514SOL    HW289857  10.819  11.494   5.704 -0.0387  1.4226  0.3758
26515SOL     OW89858   3.732   4.589  11.332  0.3204  0.1289 -0.1853
26515SOL    HW189859   3.665   4.644  11.372  0.3718  0.6897 -0.8475
26515SOL    HW289860   3.758   4.529  11.401 -2.3408 -1.5268 -0.4578
26516SOL     OW89861  12.467   1.330   4.521  0.3934 -0.8536 -0.3965
26516SOL    HW189862  12.412   1.380   4.461 -1.1261 -0.1576  1.4941
26516SOL    HW289863  12.556   1.345   4.488 -0.0287  2.4726 -0.4341
26517SOL     OW89864  10.637   2.405   2.015 -0.3362  0.6014 -0.5264
26517SOL    HW189865  10.607   2.461   2.086 -0.0064  0.5947 -0.3833
26517SOL    HW289866  10.732   2.414   2.015 -0.2374 -0.3193 -0.1969
26518SOL     OW89867   8.765   6.098   3.094  0.3389 -0.1084  0.0299
26518SOL    HW189868   8.846   6.148   3.104  0.8031 -0.9995  0.9195
26518SOL    HW289869   8.714   6.148   3.031  2.7454 -0.9790 -2.8727
26519SOL     OW89870   2.702   7.441   6.364  0.4743 -0.4291 -0.0777
26519SOL    HW189871   2.622   7.394   6.389  0.9962 -0.7843  0.9824
26519SOL    HW289872   2.690   7.529   6.399  0.9722 -0.7729  0.9936
26520SOL     OW89873   9.012  12.153   2.616 -0.3502  0.0937  0.7760
26520SOL    HW189874   8.971  12.239   2.624 -0.7258 -0.0864  0.8094
26520SOL    HW289875   8.980  12.104   2.692  0.2249  0.0702  1.0114
26521SOL     OW89876   2.572   3.645   4.493  0.5547 -0.0453  0.3844
26521SOL    HW189877   2.500   3.681   4.440 -0.5302 -1.2714  0.9709
26521SOL    HW289878   2.593   3.714   4.556 -1.3045 -0.2761  1.3171
26522SOL     OW89879   7.972  10.799   0.733  0.3584  0.3683  0.0955
26522SOL    HW189880   7.952  10.832   0.821  1.0745  0.2228  0.3264
26522SOL    HW289881   8.064  10.772   0.739  1.0284  2.1276 -1.2311
26523SOL     OW89882   0.557   9.484   3.186  0.0395 -0.4824 -0.0148
26523SOL    HW189883   0.550   9.455   3.277 -2.9680  1.1141  0.3933
26523SOL    HW289884   0.466   9.495   3.158  0.8994 -0.0371 -2.9585
26524SOL     OW89885   9.601   5.729   7.744  0.1064  0.4435 -0.2228
26524SOL    HW189886   9.663   5.801   7.750 -1.2554  1.7030 -0.6415
26524SOL    HW289887   9.586   5.702   7.834  0.5454  0.7729 -0.0501
26525SOL     OW89888   0.966   2.702   3.539 -0.0174 -0.0749  0.2795
26525SOL    HW189889   0.995   2.678   3.627 -2.0015  0.7569  1.1980
26525SOL    HW289890   0.893   2.761   3.553 -0.4321  0.0058 -1.9489
26526SOL     OW89891   8.427   7.527   8.305 -0.0909  0.1646 -0.0666
26526SOL    HW189892   8.351   7.482   8.269 -0.0225 -0.3258  0.3910
26526SOL    HW289893   8.411   7.620   8.286  0.1258 -0.0983 -1.6760
26527SOL     OW89894   7.004  12.810   1.017 -0.4483 -0.0718  0.3613
26527SOL    HW189895   7.071  12.837   0.954  0.6700 -4.0043 -0.4162
26527SOL    HW289896   6.921  12.825   0.971  0.2455 -0.7196 -1.1870
26528SOL     OW89897   1.186  10.014   8.823  0.4432  0.6325  0.5292
26528SOL    HW189898   1.253  10.083   8.828  0.4012  0.5876  2.3854
26528SOL    HW289899   1.173   9.987   8.914 -0.8616 -0.5701  0.0141
26529SOL     OW89900   4.087  12.858  12.528 -0.1433 -0.4322  0.0827
26529SOL    HW189901   4.167  12.854  12.581 -0.9333 -1.5270  1.2705
26529SOL    HW289902   4.068  12.766  12.508 -1.1101 -0.1875 -0.1609
26530SOL     OW89903  10.047  10.333  11.989 -0.6273 -0.4840  0.5609
26530SOL    HW189904   9.997  10.378  11.920 -1.4143 -0.5302  1.0888
26530SOL    HW289905   9.995  10.346  12.068 -0.1373 -1.1207  0.9956
26531SOL     OW89906   5.877   6.110   6.542 -0.0831  0.1289 -0.0832
26531SOL    HW189907   5.862   6.173   6.472  0.4631  1.8446  1.2924
26531SOL    HW289908   5.792   6.104   6.587  0.1041  0.6065  0.3441
26532SOL     OW89909   9.816   0.757   2.126 -0.1615  0.0371  0.0868
26532SOL    HW189910   9.885   0.781   2.064 -1.3806  1.0364 -0.9304
26532SOL    HW289911   9.734   0.775   2.080 -1.1252 -0.4697  1.5131
26533SOL     OW89912   8.174  11.946   5.857 -0.0373  0.5608 -0.2669
26533SOL    HW189913   8.250  11.987   5.897 -0.4474  2.5484 -1.4005
26533SOL    HW289914   8.150  11.876   5.917  2.2218  0.3634  0.4785
26534SOL     OW89915  12.781   1.645   9.622 -0.1238  0.4378  0.0050
26534SOL    HW189916  12.736   1.713   9.571 -0.7247  0.3385  0.3952
26534SOL    HW289917  12.792   1.684   9.709  0.4188  0.4020 -0.0407
26535SOL     OW89918   5.433  12.666   0.320  0.1440 -0.2911 -0.5363
26535SOL    HW189919   5.409  12.595   0.261 -2.5847  0.3777 -0.3620
26535SOL    HW289920   5.416  12.632   0.408 -0.6519  0.3801 -0.4216
26536SOL     OW89921   9.123   2.101  12.616  0.1726 -0.4028  0.1368
26536SOL    HW189922   9.101   2.131  12.528  0.9329 -1.1353 -0.3170
26536SOL    HW289923   9.213   2.069  12.609  1.0811  1.5499  1.6757
26537SOL     OW89924   0.091   5.319   0.922  0.2407  0.0424 -0.4207
26537SOL    HW189925   0.149   5.297   0.849 -0.4502  0.7980 -1.2282
26537SOL    HW289926   0.020   5.369   0.882 -0.2582  0.3127  0.7485
26538SOL     OW89927  10.784   3.976   4.486  0.3853 -0.2228  0.3117
26538SOL    HW189928  10.842   3.965   4.411 -1.9348 -1.6146 -1.4289
26538SOL    HW289929  10.705   4.017   4.449 -0.9529 -1.2418  1.9161
26539SOL     OW89930   4.240   9.990   9.038 -0.5490 -0.0439  0.2482
26539SOL    HW189931   4.259   9.970   8.946  0.2443 -2.1318  0.7846
26539SOL    HW289932   4.316  10.041   9.067  0.0534 -0.8426  0.1398
26540SOL     OW89933   6.135   2.620   2.377  0.0670 -0.3830 -0.2996
26540SOL    HW189934   6.206   2.659   2.326  2.0614 -2.1037  1.0175
26540SOL    HW289935   6.151   2.526   2.374 -0.3223 -0.6487  2.5331
26541SOL     OW89936   4.464   8.448   0.637  0.5185 -0.0245  0.0369
26541SOL    HW189937   4.440   8.492   0.719 -0.6749  2.0928 -1.3848
26541SOL    HW289938   4.381   8.421   0.598  0.9598  0.3031 -1.1750
26542SOL     OW89939  10.210   8.777  12.740 -0.2614 -0.2006 -0.1010
26542SOL    HW189940  10.144   8.811  12.680 -0.6062 -0.6055  0.0439
26542SOL    HW289941  10.271   8.850  12.754 -0.3781  0.0020 -0.6608
26543SOL     OW89942   8.823   7.113   1.310 -0.1139  0.0793  0.2557
26543SOL    HW189943   8.737   7.078   1.286  0.2527 -0.5581 -0.1668
26543SOL    HW289944   8.858   7.148   1.228  0.0568  0.2749  0.4123
26544SOL     OW89945   5.109   2.296   2.134  0.1846  0.3269  0.3129
26544SOL    HW189946   5.035   2.241   2.162  2.1150 -2.4061  0.4310
26544SOL    HW289947   5.166   2.300   2.211  1.5169 -0.1101 -0.6092
26545SOL     OW89948   4.039  12.067  10.641 -0.2130  0.3716  0.4498
26545SOL    HW189949   3.966  12.128  10.649 -0.4916  0.2685 -0.9589
26545SOL    HW289950   4.014  12.009  10.568  0.5519 -0.6987  1.0108
26546SOL     OW89951   9.271   0.605   9.226 -0.0361  0.0744 -0.1617
26546SOL    HW189952   9.312   0.617   9.312 -0.3987 -1.4198  0.2351
26546SOL    HW289953   9.340   0.570   9.171 -0.0717  0.1063 -0.2275
26547SOL     OW89954  10.663  11.395   2.338 -0.2475  0.7125  0.1183
26547SOL    HW189955  10.608  11.320   2.358 -0.5691  1.0970  0.6871
26547SOL    HW289956  10.624  11.468   2.387  1.1940  0.8426  1.1398
26548SOL     OW89957   3.132   8.391  10.150 -0.3925 -0.4315 -0.0899
26548SOL    HW189958   3.087   8.475  10.157 -2.7201 -1.5110 -0.9046
26548SOL    HW289959   3.075   8.338  10.093  1.6714 -2.1263 -0.7015
26549SOL     OW89960  12.949   0.366   4.455  0.4136 -0.1137 -0.1844
26549SOL    HW189961  12.869   0.313   4.450  1.2059 -1.4581  0.8734
26549SOL    HW289962  13.001   0.337   4.380 -0.3296  1.2690 -1.2990
26550SOL     OW89963   4.037   0.932   0.217  0.3595  0.5450 -0.1114
26550SOL    HW189964   4.016   1.024   0.205 -1.3262  0.3250  0.9224
26550SOL    HW289965   4.121   0.932   0.264  0.3963  1.5407 -0.1623
26551SOL     OW89966   0.453   2.122   7.146  0.5708  0.3357  0.0683
26551SOL    HW189967   0.441   2.189   7.079  0.3434 -0.1755 -0.4112
26551SOL    HW289968   0.544   2.093   7.136  0.7832  0.8235  0.5211
26552SOL     OW89969  12.276  12.441   1.681  0.3672  0.5033  0.1002
26552SOL    HW189970  12.200  12.493   1.706 -0.3033 -1.0894  1.6628
26552SOL    HW289971  12.344  12.505   1.659 -1.2084  1.9577 -0.7078
26553SOL     OW89972   4.252   6.951   0.266 -0.4622  0.2360  0.1748
26553SOL    HW189973   4.311   6.932   0.193 -0.1507  3.4151 -0.5804
26553SOL    HW289974   4.230   6.866   0.303  0.0378 -1.4604 -3.0940
26554SOL     OW89975  12.344   2.303   6.185 -0.0422 -0.8515 -0.3510
26554SOL    HW189976  12.333   2.355   6.265  1.2051 -1.5424  0.3023
26554SOL    HW289977  12.255   2.284   6.156 -0.5162  0.0864  0.4191
26555SOL     OW89978   9.978   8.992   2.594 -0.0535 -0.7205  0.3049
26555SOL    HW189979   9.885   8.985   2.617 -0.0815  1.3296  1.0970
26555SOL    HW289980  10.024   8.957   2.670 -0.1960 -0.3650  0.5625
26556SOL     OW89981   4.928   2.740   2.129 -0.3161  0.4031 -0.0193
26556SOL    HW189982   4.988   2.707   2.197  0.3643  0.5570 -0.5346
26556SOL    HW289983   4.843   2.705   2.154  0.2251 -0.9781 -0.0335
26557SOL     OW89984   4.280   9.569   9.863 -0.0265 -0.3030  0.2417
26557SOL    HW189985   4.357   9.525   9.899 -0.0818 -0.0471  0.6768
26557SOL    HW289986   4.227   9.498   9.827 -0.0614 -0.5834  0.8364
26558SOL     OW89987   1.929   6.000   0.227  0.3035  0.0670 -0.2855
26558SOL    HW189988   1.950   6.088   0.258 -0.2006 -0.0668  0.4821
26558SOL    HW289989   1.995   5.981   0.160  1.7478  0.1868  1.0512
26559SOL     OW89990   5.908   9.201   5.409 -0.1087  0.3856 -0.1095
26559SOL    HW189991   5.822   9.218   5.447  0.0665 -0.8575  0.9229
26559SOL    HW289992   5.961   9.171   5.483  1.0648  0.6250 -0.8320
26560SOL     OW89993   4.262   7.510   3.343  0.2309  0.1385 -0.3129
26560SOL    HW189994   4.305   7.443   3.396  1.4203  1.9856  1.2208
26560SOL    HW289995   4.248   7.583   3.404 -2.3402  0.7986 -1.5216
26561SOL     OW89996   2.129  12.752   0.898 -0.4342  0.2272  0.3438
26561SOL    HW189997   2.128  12.734   0.804 -0.8891 -0.1888  0.4215
26561SOL    HW289998   2.040  12.781   0.918 -0.3809  0.1735  0.6691
26562SOL     OW89999   6.453  12.578  12.201  0.3840 -0.2457 -0.2870
26562SOL    HW190000   6.461  12.580  12.106  2.4481  0.7420 -0.1527
26562SOL    HW290001   6.360  12.594  12.218 -0.0825 -0.7296 -2.1173
26563SOL     OW90002   0.947   7.764  12.658  0.3215  0.2002 -0.3357
26563SOL    HW190003   0.989   7.696  12.605  1.7193  0.1607  0.7723
26563SOL    HW290004   0.940   7.839  12.598  1.8414  0.1513 -0.6274
26564SOL     OW90005   6.019   6.329   3.115 -0.1869  0.2715 -0.5316
26564SOL    HW190006   6.048   6.262   3.053 -1.4921  0.2684 -1.1772
26564SOL    HW290007   6.074   6.405   3.097 -0.6976  0.3452 -1.8600
26565SOL     OW90008   7.715   1.405   3.488  0.1708  0.1267 -0.7504
26565SOL    HW190009   7.780   1.445   3.430 -0.1202 -0.3306 -1.4017
26565SOL    HW290010   7.652   1.365   3.428  0.4348 -1.2878 -0.1200
26566SOL     OW90011   5.407   1.126   6.327  0.1440 -0.2350  0.3185
26566SOL    HW190012   5.362   1.086   6.252  1.5434 -1.3154  0.0257
26566SOL    HW290013   5.438   1.210   6.294 -1.0864  0.2599  0.3473
26567SOL     OW90014   0.119  12.245   0.110 -0.2151  0.4712  0.0709
26567SOL    HW190015   0.050  12.188   0.076 -2.4739  0.6290  3.9085
26567SOL    HW290016   0.098  12.331   0.073 -1.3198  0.2589  0.1639
26568SOL     OW90017   1.017   5.085  12.424  0.2433  0.0332 -0.1608
26568SOL    HW190018   0.923   5.070  12.435  0.4221 -0.7572  0.4352
26568SOL    HW290019   1.025   5.125  12.338 -0.7589  1.4997  0.3883
26569SOL     OW90020   0.419   9.113   7.960 -0.5017 -0.0573 -0.1703
26569SOL    HW190021   0.383   9.159   8.036  2.9050 -0.0527  1.6509
26569SOL    HW290022   0.445   9.028   7.994 -0.0318 -0.5462 -1.6730
26570SOL     OW90023   1.654   1.743   2.168 -0.0435 -0.7772  0.2961
26570SOL    HW190024   1.616   1.730   2.254  0.2390 -1.1287  0.3694
26570SOL    HW290025   1.748   1.736   2.182  0.0685  0.2868  0.1505
26571SOL     OW90026   2.577   0.205   4.480  0.0462  0.0345  0.2648
26571SOL    HW190027   2.667   0.236   4.481  1.0593 -2.6805  1.6151
26571SOL    HW290028   2.570   0.153   4.400 -0.7146  1.0864 -0.3933
26572SOL     OW90029   2.287   1.489   4.335  0.1383  0.2785  0.3416
26572SOL    HW190030   2.285   1.467   4.242  0.1402 -2.0919  0.8217
26572SOL    HW290031   2.276   1.584   4.338  1.3715  0.5785 -2.1206
26573SOL     OW90032   5.578   5.915   4.905  0.3578 -0.2436  0.1319
26573SOL    HW190033   5.534   5.879   4.981  0.3879 -0.5538  0.0024
26573SOL    HW290034   5.569   6.010   4.915  1.3940 -0.2244  1.1408
26574SOL     OW90035   3.383  11.709   0.746 -0.2349  0.3462 -0.3119
26574SOL    HW190036   3.456  11.733   0.688 -0.6703  0.9190 -0.6387
26574SOL    HW290037   3.425  11.688   0.829  0.2358  1.8395 -0.1238
26575SOL     OW90038   1.792  10.017   7.029 -0.4335 -0.2685 -0.9584
26575SOL    HW190039   1.811  10.106   7.058  2.9604 -0.5797 -1.8201
26575SOL    HW290040   1.697  10.013   7.027 -0.7770  3.7783 -2.2130
26576SOL     OW90041   9.666   0.201   4.313 -0.2785  0.2094  0.0444
26576SOL    HW190042   9.707   0.260   4.250 -2.1710  0.0860 -1.4117
26576SOL    HW290043   9.737   0.173   4.370  1.7642 -0.4007 -2.5966
26577SOL     OW90044   1.065  10.891   2.868 -0.0583  0.6870  0.3217
26577SOL    HW190045   1.070  10.979   2.829  0.2090  1.0796  1.2032
26577SOL    HW290046   0.972  10.869   2.867 -0.2757  1.4912  1.1579
26578SOL     OW90047   8.465   2.279   0.443  0.0722 -0.5905  0.3555
26578SOL    HW190048   8.511   2.196   0.456  0.9672 -0.3904 -1.2668
26578SOL    HW290049   8.533   2.339   0.413 -0.9555  0.1467 -0.5836
26579SOL     OW90050   2.044   4.198   0.608  0.4026  0.0605  0.0131
26579SOL    HW190051   2.097   4.184   0.530  0.4688  1.3176 -0.1954
26579SOL    HW290052   2.061   4.289   0.632 -0.7664  0.1320  0.6234
26580SOL     OW90053  10.108   5.716   6.001  0.4639 -0.5500 -1.2861
26580SOL    HW190054  10.045   5.719   5.929 -1.0187 -1.2633 -0.0586
26580SOL    HW290055  10.123   5.808   6.023  0.7291 -0.3359 -2.3034
26581SOL     OW90056   8.052  11.193   4.936 -0.0141  0.5714  0.0058
26581SOL    HW190057   8.087  11.150   4.858  1.6020  0.6884  0.6172
26581SOL    HW290058   7.980  11.247   4.904  0.1604  0.0663 -1.2944
26582SOL     OW90059   4.462   9.640  12.040  0.1152  0.2519 -0.0154
26582SOL    HW190060   4.371   9.611  12.040  0.6457 -1.5067 -0.4479
26582SOL    HW290061   4.456   9.735  12.026 -1.5893 -0.0341 -1.6657
26583SOL     OW90062   7.062   4.488   4.666 -0.3421  0.3369  0.6763
26583SOL    HW190063   7.123   4.467   4.737  2.0814  2.6418 -0.5484
26583SOL    HW290064   7.113   4.473   4.586 -2.4296 -0.5415 -0.5625
26584SOL     OW90065   5.663   3.891   7.801  0.7839 -0.1948  0.3842
26584SOL    HW190066   5.604   3.852   7.736 -0.3792 -0.3721  1.5204
26584SOL    HW290067   5.693   3.972   7.758 -0.9374  0.3322  0.0678
26585SOL     OW90068  11.038  10.534   4.894  0.2611 -0.1872  0.5147
26585SOL    HW190069  10.985  10.456   4.880 -0.8093  0.4179  1.0725
26585SOL    HW290070  11.082  10.548   4.810  2.8418 -3.0339  1.1924
26586SOL     OW90071  12.804  12.082   7.821 -0.2018  0.0367 -0.2897
26586SOL    HW190072  12.825  12.066   7.913 -0.0111 -1.2006 -0.5233
26586SOL    HW290073  12.710  12.066   7.815 -0.3062  0.6228 -0.2115
26587SOL     OW90074   0.782   9.291   9.212  0.3902 -0.1207  0.1055
26587SOL    HW190075   0.817   9.235   9.281 -0.1899 -1.4300 -0.6174
26587SOL    HW290076   0.723   9.234   9.163  0.4023  0.9107 -1.1664
26588SOL     OW90077   9.479   1.448   5.683  0.6080 -0.0361  0.2084
26588SOL    HW190078   9.542   1.463   5.753  0.5878  2.0897 -0.1632
26588SOL    HW290079   9.394   1.448   5.727  0.7342 -1.2123  0.4840
26589SOL     OW90080  11.863   9.853   3.812  0.5967 -0.2073  0.3304
26589SOL    HW190081  11.915   9.822   3.738 -1.9391  2.4239 -2.8745
26589SOL    HW290082  11.898   9.940   3.830 -1.1224  0.6667 -0.3614
26590SOL     OW90083   3.104   5.014   6.613 -0.4336 -0.5059 -0.2136
26590SOL    HW190084   3.144   5.026   6.699 -1.1738  0.7749 -0.0231
26590SOL    HW290085   3.010   5.011   6.630 -0.7219  1.5614 -1.0973
26591SOL     OW90086  11.506  11.929   5.952 -0.9220  0.2256  0.2250
26591SOL    HW190087  11.572  11.976   5.902 -1.2635  0.4500 -0.0167
26591SOL    HW290088  11.548  11.913   6.037 -1.1318  1.7878  0.6571
26592SOL     OW90089   6.149   1.328   1.023  0.2848 -0.6215  0.7790
26592SOL    HW190090   6.231   1.373   1.043  0.3092 -1.2536  2.2513
26592SOL    HW290091   6.168   1.235   1.036 -0.4621 -0.8436  0.3906
26593SOL     OW90092   3.531  11.915   3.582  0.4488  0.0875 -0.1268
26593SOL    HW190093   3.495  11.900   3.669  2.1000 -0.6371  0.4634
26593SOL    HW290094   3.531  11.828   3.541  0.9696  0.1772 -0.3241
26594SOL     OW90095   0.378  11.890   4.516  0.1776 -0.5866 -0.6570
26594SOL    HW190096   0.405  11.809   4.560 -1.3272 -1.9223 -2.0687
26594SOL    HW290097   0.284  11.896   4.533 -0.3837 -0.9505 -3.2658
26595SOL     OW90098   4.459   6.371   6.942 -0.1969  0.5239  0.1331
26595SOL    HW190099   4.502   6.298   6.897  1.4625  2.3100 -1.3734
26595SOL    HW290100   4.463   6.347   7.035  0.4702 -1.1756 -0.2839
26596SOL     OW90101   1.960   6.144   8.653  0.5797 -0.3543 -0.2174
26596SOL    HW190102   2.034   6.183   8.698  0.2807  0.7220 -0.6235
26596SOL    HW290103   1.995   6.112   8.570  0.4635  0.8137 -0.7305
26597SOL     OW90104   5.564   1.720  10.800  0.5717  0.1904  0.2737
26597SOL    HW190105   5.516   1.657  10.854 -0.6451  0.3070 -0.6219
26597SOL    HW290106   5.498   1.785  10.774  0.3862 -1.2140 -3.4066
26598SOL     OW90107   4.382   6.403   5.029 -0.7583 -0.5144  0.2495
26598SOL    HW190108   4.345   6.470   5.087  0.9223 -0.5572  1.4289
26598SOL    HW290109   4.430   6.453   4.963  0.9889 -0.4882  1.4640
26599SOL     OW90110   3.141  11.329   2.719  0.2134  0.8498 -0.0203
26599SOL    HW190111   3.065  11.340   2.662  0.4141  1.4786 -0.1798
26599SOL    HW290112   3.120  11.254   2.774  0.4619 -0.4606 -1.6458
26600SOL     OW90113   6.385  10.947  12.985 -0.0771  0.0902  0.2297
26600SOL    HW190114   6.295  10.963  12.957 -0.5810 -1.4144  0.9322
26600SOL    HW290115   6.438  10.971  12.908 -1.0879  0.5525 -0.3459
26601SOL     OW90116  11.828   3.215   2.382 -0.1810  0.5120 -0.0753
26601SOL    HW190117  11.917   3.186   2.405  0.1969  1.9904  0.4232
26601SOL    HW290118  11.830   3.225   2.287  0.1630  0.4955 -0.0713
26602SOL     OW90119   1.791   4.036   6.821  0.2817  0.4209 -0.3770
26602SOL    HW190120   1.804   3.942   6.833 -0.2596  0.4108  0.1847
26602SOL    HW290121   1.755   4.066   6.905  0.3194  1.1027 -0.6006
26603SOL     OW90122  10.637   4.659   8.988  0.5069  0.2886 -0.3741
26603SOL    HW190123  10.651   4.681   9.080  2.5755  0.2127 -0.6244
26603SOL    HW290124  10.669   4.735   8.940 -0.2082  0.1689 -1.0617
26604SOL     OW90125  10.319   5.443   7.980  0.4942 -0.5308 -0.0326
26604SOL    HW190126  10.273   5.524   8.003 -1.3325 -1.8801  1.4673
26604SOL    HW290127  10.379   5.428   8.053  0.2438 -0.9290  0.0921
26605SOL     OW90128   9.571  11.638  12.740  0.2856  0.1570 -0.1125
26605SOL    HW190129   9.644  11.640  12.679 -0.8381  1.3126 -1.5096
26605SOL    HW290130   9.524  11.720  12.724 -1.3758 -0.5901  0.6631
26606SOL     OW90131   4.021   6.802   8.292  0.4425  0.5352 -0.1388
26606SOL    HW190132   3.930   6.806   8.262  0.8153 -1.1765 -1.7014
26606SOL    HW290133   4.018   6.833   8.382 -1.8367 -0.2426  0.1186
26607SOL     OW90134   5.915   9.224   5.112 -0.3606  0.0635  0.5769
26607SOL    HW190135   5.896   9.184   5.196 -0.6219  1.9661  1.4736
26607SOL    HW290136   6.011   9.226   5.108 -0.3465 -0.7177  0.4789
26608SOL     OW90137  11.021   9.925   1.265  0.1669 -0.0815 -0.5948
26608SOL    HW190138  10.993   9.878   1.343  1.2141 -0.6869 -0.5805
26608SOL    HW290139  11.002   9.865   1.193 -0.4165  0.3150 -0.7820
26609SOL     OW90140  12.577   2.085   9.833  0.6866 -0.2826 -0.5174
26609SOL    HW190141  12.490   2.116   9.810  0.9628  0.1062 -1.0565
26609SOL    HW290142  12.633   2.115   9.762  0.8259 -2.7545 -1.5733
26610SOL     OW90143   3.738   7.999   4.035  0.0895 -0.3081  0.0415
26610SOL    HW190144   3.832   8.016   4.049  0.2827 -1.1537 -0.1903
26610SOL    HW290145   3.735   7.942   3.958 -0.6188 -0.2877  0.0480
26611SOL     OW90146   0.884   9.817   4.124 -0.1273 -0.3654  0.2958
26611SOL    HW190147   0.957   9.784   4.071 -0.0628 -2.2093  1.4473
26611SOL    HW290148   0.811   9.826   4.062  0.3320 -1.1274 -0.3761
26612SOL     OW90149   5.834   1.460   4.278 -0.2045 -0.2802  0.1666
26612SOL    HW190150   5.897   1.530   4.290 -2.2468  1.5953  0.5485
26612SOL    HW290151   5.881   1.393   4.228  3.0047 -0.3685  2.9290
26613SOL     OW90152   1.707   4.412   8.188  0.0767 -0.1650  0.0325
26613SOL    HW190153   1.626   4.434   8.234 -0.4085 -1.7121 -0.0368
26613SOL    HW290154   1.756   4.358   8.250 -0.1608 -1.4759 -0.8901
26614SOL     OW90155   3.915   3.224   2.887  0.3018 -0.4279  0.6593
26614SOL    HW190156   3.980   3.158   2.861 -1.1222 -0.9382 -1.9815
26614SOL    HW290157   3.833   3.175   2.897 -0.2658  0.5822  1.1222
26615SOL     OW90158   6.157   7.225   5.279 -0.1691  0.0317  0.2938
26615SOL    HW190159   6.222   7.253   5.215  0.0190  0.1328  0.5263
26615SOL    HW290160   6.144   7.132   5.262 -3.3743  0.8460 -2.8214
26616SOL     OW90161   8.141  12.709   0.814  0.0850 -0.0448 -0.1730
26616SOL    HW190162   8.181  12.745   0.734  0.5149 -0.7617 -0.2867
26616SOL    HW290163   8.072  12.651   0.782 -0.9019  0.9867  0.0194
26617SOL     OW90164   5.233   6.078   6.060 -0.1299 -0.0411  0.2310
26617SOL    HW190165   5.245   6.017   6.133  1.5737  0.8097  0.6958
26617SOL    HW290166   5.246   6.165   6.099  0.8932  0.4194 -1.0869
26618SOL     OW90167   1.170   6.526   6.498 -0.1481 -0.4953  0.2874
26618SOL    HW190168   1.247   6.472   6.514 -1.2465 -2.3753 -0.4512
26618SOL    HW290169   1.111   6.469   6.449 -1.6480  1.1868  0.0580
26619SOL     OW90170   2.175   6.441   7.779 -0.0366  0.1092  0.0165
26619SOL    HW190171   2.087   6.448   7.818  0.2591 -1.3672  1.0175
26619SOL    HW290172   2.227   6.506   7.827 -0.5415  0.9211 -0.5115
26620SOL     OW90173   1.809   8.854   4.690 -0.1058 -0.3252 -0.6531
26620SOL    HW190174   1.901   8.836   4.708  0.1100  1.2601  0.0587
26620SOL    HW290175   1.763   8.776   4.720  1.0292 -1.3584 -1.5001
26621SOL     OW90176   9.727   4.346   4.551 -0.4967  0.3642  0.0890
26621SOL    HW190177   9.736   4.437   4.578 -1.4142  0.6527 -0.5440
26621SOL    HW290178   9.643   4.342   4.506  0.0261 -0.5642 -0.8444
26622SOL     OW90179  11.393  12.340   0.024 -0.2093 -0.0051 -0.6028
26622SOL    HW190180  11.318  12.385   0.061  0.4104  0.2755  0.3367
26622SOL    HW290181  11.469  12.385   0.060  0.4331 -1.6429  0.1937
26623SOL     OW90182   7.602  10.817   9.609  0.1128 -0.1623 -0.5484
26623SOL    HW190183   7.688  10.834   9.648 -0.4001  2.3212 -0.3303
26623SOL    HW290184   7.544  10.882   9.650 -1.4419 -0.5029 -2.0922
26624SOL     OW90185   9.990   3.915   3.726 -0.6223  0.1720  0.6504
26624SOL    HW190186  10.025   3.926   3.638 -0.5479  1.4540  0.8196
26624SOL    HW290187  10.062   3.875   3.776 -0.4764 -0.0520  0.2651
26625SOL     OW90188   3.091  12.115  12.615 -0.0244  0.4258 -0.5102
26625SOL    HW190189   3.024  12.138  12.551 -1.1850  2.8567  1.3980
26625SOL    HW290190   3.049  12.051  12.672  0.6653 -0.9821 -1.5403
26626SOL     OW90191   6.431   0.318   6.927 -0.1324 -0.0269 -0.1562
26626SOL    HW190192   6.369   0.247   6.945  0.5793 -0.2703  1.6377
26626SOL    HW290193   6.486   0.321   7.006 -0.0187  2.3956 -0.2560
26627SOL     OW90194  10.881   5.163   1.957  0.2690 -0.1565  0.1369
26627SOL    HW190195  10.804   5.151   2.013  0.1578  0.5355  0.1440
26627SOL    HW290196  10.847   5.207   1.879  0.3031 -1.7139 -0.7954
26628SOL     OW90197  12.000  10.443  10.905  0.6188  0.0530 -0.3598
26628SOL    HW190198  11.907  10.429  10.885  0.1606 -1.8844  2.5239
26628SOL    HW290199  12.038  10.356  10.906  1.6854  0.4766  1.6244
26629SOL     OW90200   1.144   7.831   3.408  0.3078 -0.1476 -0.1601
26629SOL    HW190201   1.116   7.767   3.342  0.5026  0.3785 -0.7609
26629SOL    HW290202   1.126   7.916   3.369  0.0824  0.1764  0.6205
26630SOL     OW90203  10.942   9.851   8.608  0.4891  0.5140  0.2394
26630SOL    HW190204  10.887   9.774   8.596  1.4990 -0.3579  1.0104
26630SOL    HW290205  10.946   9.864   8.702  1.4063  0.6763  0.1944
26631SOL     OW90206   6.280   6.519   1.978 -0.0789  0.1666  0.1907
26631SOL    HW190207   6.195   6.496   2.013 -0.3882  0.0591 -0.6064
26631SOL    HW290208   6.327   6.436   1.972 -0.6093 -0.0618 -1.1490
26632SOL     OW90209  11.821  11.873  10.477  0.5358 -0.0757  0.1131
26632SOL    HW190210  11.786  11.822  10.404  0.6576 -0.0877  0.0632
26632SOL    HW290211  11.911  11.893  10.451  1.0376 -1.2569  0.8664
26633SOL     OW90212   3.725   4.723   4.978 -0.3802  0.1529 -0.4478
26633SOL    HW190213   3.731   4.702   4.884 -1.6783  1.3963 -0.8510
26633SOL    HW290214   3.634   4.704   5.001  0.0405 -0.5612  0.6923
26634SOL     OW90215   1.175   9.158  11.410 -0.1576 -0.1767  0.5306
26634SOL    HW190216   1.198   9.113  11.329  0.3869  1.1089 -0.0577
26634SOL    HW290217   1.192   9.250  11.392  2.4703 -0.0619  2.9188
26635SOL     OW90218   3.073   0.228   8.209  0.3831 -0.3193 -0.1908
26635SOL    HW190219   2.997   0.282   8.186  2.6389  3.2316 -0.2026
26635SOL    HW290220   3.085   0.243   8.303  0.2950 -2.0017  0.1131
26636SOL     OW90221  10.422   4.879  10.007 -0.6231  0.2310 -0.4954
26636SOL    HW190222  10.401   4.872  10.100  0.6566  1.5148 -0.0665
26636SOL    HW290223  10.455   4.793   9.983 -2.6109 -0.6410 -0.2351
26637SOL     OW90224   9.748   5.775   4.657 -0.2401  0.0171  0.7304
26637SOL    HW190225   9.682   5.729   4.604  0.2700 -0.7154  0.7154
26637SOL    HW290226   9.830   5.730   4.638 -0.0091 -0.1335  1.9778
26638SOL     OW90227   4.465   7.740   8.000  0.2631 -0.8239  0.1024
26638SOL    HW190228   4.447   7.813   7.940  2.8400 -0.8941 -0.9159
26638SOL    HW290229   4.425   7.766   8.082  2.5000  2.6870  0.3188
26639SOL     OW90230   6.928   3.670   2.550 -0.3028 -0.1085 -0.4149
26639SOL    HW190231   6.939   3.738   2.483  0.1518  0.4746  0.2296
26639SOL    HW290232   6.850   3.697   2.599 -0.9979 -0.8695 -1.0898
26640SOL     OW90233   4.344   8.435   8.219  0.6691  0.0054  0.6803
26640SOL    HW190234   4.331   8.343   8.195 -1.9653  0.3268  0.5598
26640SOL    HW290235   4.439   8.448   8.215  1.1015 -2.6667  0.6172
26641SOL     OW90236   6.748  12.777   2.455 -0.4404 -0.4118  0.1770
26641SOL    HW190237   6.775  12.730   2.376  1.8274  0.6879  0.2193
26641SOL    HW290238   6.777  12.721   2.527 -0.9639 -0.6057  0.2407
26642SOL     OW90239   2.929  10.736   3.265 -0.1699 -0.2272 -0.4327
26642SOL    HW190240   2.854  10.702   3.315  0.2619 -0.4172  0.0926
26642SOL    HW290241   3.002  10.733   3.326 -0.0049  1.2033 -0.5339
26643SOL     OW90242   0.603  10.764   1.085  0.2943 -0.2652  0.1678
26643SOL    HW190243   0.687  10.803   1.061 -0.8816  1.5616 -1.3451
26643SOL    HW290244   0.541  10.838   1.082 -1.5058 -1.6969  0.3271
26644SOL     OW90245   5.350   6.726  12.347 -0.0417 -0.3101 -0.3147
26644SOL    HW190246   5.318   6.666  12.415  0.3470  0.6891  0.7930
26644SOL    HW290247   5.273   6.777  12.322 -0.0716 -0.3149 -0.2322
26645SOL     OW90248   3.440  12.084   4.201  0.5950  0.0340  0.0307
26645SOL    HW190249   3.524  12.040   4.210 -0.4677 -1.6881  2.4719
26645SOL    HW290250   3.396  12.037   4.130  1.6326  0.9931 -1.3149
26646SOL     OW90251  11.943   6.222   2.279 -0.3011 -0.1642 -0.0518
26646SOL    HW190252  12.038   6.220   2.267 -0.4189 -0.0919 -1.0706
26646SOL    HW290253  11.931   6.204   2.372  0.7359  0.3514  0.2051
26647SOL     OW90254  10.054   5.002   7.608 -0.7538 -0.0404 -0.0930
26647SOL    HW190255  10.133   4.994   7.554 -0.9367 -1.8091 -0.1410
26647SOL    HW290256  10.082   5.051   7.685  0.3412 -0.4557 -0.2149
26648SOL     OW90257  11.899   1.239  11.633  0.0298 -0.4110  0.1166
26648SOL    HW190258  11.956   1.250  11.557  0.2283  2.0428  0.5669
26648SOL    HW290259  11.925   1.154  11.670  1.7038 -0.4612 -1.0754
26649SOL     OW90260   0.862   6.032  11.829  0.1305 -0.7261  0.6450
26649SOL    HW190261   0.887   5.939  11.827 -0.8488 -1.0399  1.8065
26649SOL    HW290262   0.874   6.058  11.920  1.1575  0.5343  0.1848
26650SOL     OW90263  11.947   1.630  12.538  0.6444  0.0731  0.0105
26650SOL    HW190264  12.021   1.583  12.575 -0.0571 -1.9153 -0.9976
26650SOL    HW290265  11.891   1.562  12.500 -0.7589  1.6643 -0.9225
26651SOL     OW90266  11.387   6.877   2.314  0.4934 -0.5216 -0.3774
26651SOL    HW190267  11.401   6.793   2.357 -1.0349 -0.7363 -0.2613
26651SOL    HW290268  11.428   6.868   2.228  0.6992 -1.2250 -0.2074
26652SOL     OW90269   9.039   1.794  12.443 -0.0161 -0.1097 -0.0438
26652SOL    HW190270   9.039   1.769  12.535 -0.8641 -0.8098 -0.2255
26652SOL    HW290271   9.109   1.741  12.404 -1.0738 -1.4591 -0.2063
26653SOL     OW90272   3.030   1.952   1.109 -0.1928 -0.0837  1.0336
26653SOL    HW190273   3.021   2.005   1.188  0.8897 -0.4576  1.4318
26653SOL    HW290274   3.125   1.942   1.098 -0.3349 -0.2974 -0.1408
26654SOL     OW90275   7.164   5.878   7.443  0.4719  0.1501 -0.0987
26654SOL    HW190276   7.086   5.917   7.404 -0.8116  1.1173  3.1007
26654SOL    HW290277   7.217   5.952   7.472 -0.6773 -0.2942  3.5901
26655SOL     OW90278   5.984   0.493   9.866  0.0565  0.8002 -0.0707
26655SOL    HW190279   5.971   0.500   9.771  0.7247  0.3143 -0.2063
26655SOL    HW290280   5.939   0.412   9.890  0.1448  0.7641 -0.0268
26656SOL     OW90281   5.678   1.713   8.388 -0.7914 -0.1893  0.5292
26656SOL    HW190282   5.721   1.648   8.444  0.4397  1.5620  1.7285
26656SOL    HW290283   5.724   1.708   8.305  0.0389 -0.1071  0.9748
26657SOL     OW90284   9.050   8.805   9.696  0.3578 -0.4400  0.7226
26657SOL    HW190285   9.112   8.758   9.751  0.1102  0.4598  1.8287
26657SOL    HW290286   9.001   8.860   9.757 -0.3168  0.1907 -0.3414
26658SOL     OW90287   0.511   2.878   1.676 -0.5587  0.1142 -0.6384
26658SOL    HW190288   0.510   2.792   1.717 -0.4648 -0.1114 -1.0967
26658SOL    HW290289   0.574   2.869   1.604  1.4545  1.2868  0.8397
26659SOL     OW90290   2.391   3.015   4.445  0.2372 -0.0211 -0.0951
26659SOL    HW190291   2.384   2.964   4.365  0.2078 -2.3904  1.3292
26659SOL    HW290292   2.356   3.101   4.422 -0.2948 -0.7997 -2.4332
26660SOL     OW90293   7.184   5.027   1.323 -0.1687  0.2519  0.5610
26660SOL    HW190294   7.267   5.067   1.349  0.1386  0.2369 -0.3886
26660SOL    HW290295   7.124   5.049   1.395  0.6638  0.2106  1.2818
26661SOL     OW90296   6.217   2.103   1.323  0.0694  0.0412  0.2282
26661SOL    HW190297   6.226   2.045   1.247 -1.3540 -0.1874  0.2048
26661SOL    HW290298   6.140   2.070   1.369  2.4083 -1.6259  3.3873
26662SOL     OW90299   6.752   9.616   4.097  0.3487  0.3469 -0.1089
26662SOL    HW190300   6.709   9.554   4.038  0.7059  0.1889 -0.2053
26662SOL    HW290301   6.788   9.683   4.039  1.4095 -0.2378 -0.1458
26663SOL     OW90302   5.270   7.137   2.249  0.2574 -0.5729  0.3363
26663SOL    HW190303   5.356   7.148   2.211 -0.1648  3.3853  0.0560
26663SOL    HW290304   5.227   7.071   2.195  2.7978 -2.1200  0.0670
26664SOL     OW90305   3.716   0.208   8.811  0.4675  0.5866 -0.0770
26664SOL    HW190306   3.766   0.183   8.733  0.3474  0.3344 -0.0734
26664SOL    HW290307   3.781   0.216   8.880  0.5396  0.5434 -0.1396
26665SOL     OW90308   7.083   6.261   5.508 -0.1022 -0.0988  0.5524
26665SOL    HW190309   7.139   6.196   5.465 -0.5481  0.5215 -1.0516
26665SOL    HW290310   6.996   6.219   5.510 -0.2932  0.2594 -0.0737
26666SOL     OW90311  11.287   4.310  11.925  0.2349 -0.4734 -0.4363
26666SOL    HW190312  11.329   4.396  11.919 -1.9159  0.6276 -0.9734
26666SOL    HW290313  11.318   4.273  12.007  0.0182  1.5297  0.6183
26667SOL     OW90314  12.270   5.018   2.230 -0.4646  0.3098  0.0768
26667SOL    HW190315  12.269   5.035   2.324 -0.7852  0.4945  0.0417
26667SOL    HW290316  12.246   4.926   2.221  1.1252 -0.1625  0.2622
26668SOL     OW90317   5.681   4.308   5.301  0.3368  0.2156  0.0047
26668SOL    HW190318   5.752   4.372   5.304 -0.2261  0.8726 -0.3003
26668SOL    HW290319   5.628   4.326   5.379  0.5039 -0.2756  0.2363
26669SOL     OW90320  12.831   0.472  12.896  0.2941  0.1267  0.4194
26669SOL    HW190321  12.861   0.419  12.969 -0.1217 -0.2138  0.3501
26669SOL    HW290322  12.800   0.409  12.831  1.2341  0.3979 -0.3179
26670SOL     OW90323  12.173   9.951   9.899 -0.9355 -0.4663 -0.0939
26670SOL    HW190324  12.216   9.966   9.983 -0.3518 -0.7270 -0.3426
26670SOL    HW290325  12.163  10.039   9.862  0.9054 -0.5075 -0.7686
26671SOL     OW90326   3.513   7.096   7.464  0.0848 -0.0870 -0.1760
26671SOL    HW190327   3.466   7.118   7.544 -1.6043 -2.4722 -0.4136
26671SOL    HW290328   3.596   7.060   7.494  0.5211  1.2998  0.3668
26672SOL     OW90329   0.544   2.941   7.657  0.3160  0.0742 -0.3627
26672SOL    HW190330   0.612   2.902   7.713  1.7078  0.8977 -1.4385
26672SOL    HW290331   0.522   2.872   7.595  1.4571  0.3496 -1.1061
26673SOL     OW90332   0.852   7.119   4.284 -0.3239 -0.0843  0.3755
26673SOL    HW190333   0.922   7.130   4.221 -0.1871  1.1332  0.6994
26673SOL    HW290334   0.892   7.140   4.369 -1.3993  2.2052  0.3907
26674SOL     OW90335   1.172   7.555   9.192  0.3493  0.5367 -0.4473
26674SOL    HW190336   1.159   7.524   9.102 -1.1223 -0.2811  0.0199
26674SOL    HW290337   1.109   7.505   9.244  1.0882  1.0914  1.0314
26675SOL     OW90338  11.603   1.486  10.454  0.3750  0.2141 -0.0880
26675SOL    HW190339  11.662   1.418  10.487  2.6419  2.1699  0.1929
26675SOL    HW290340  11.630   1.500  10.364 -0.4607  0.3841 -0.3236
26676SOL     OW90341   3.626   5.849   5.277  0.2777 -0.0840 -0.6310
26676SOL    HW190342   3.603   5.770   5.227 -0.5568  0.1699 -0.6669
26676SOL    HW290343   3.712   5.875   5.243  0.6437 -1.0662 -0.5033
26677SOL     OW90344   1.334   3.454  11.941  0.6578 -0.5961  0.9927
26677SOL    HW190345   1.352   3.545  11.964  0.0289 -0.0581 -0.5268
26677SOL    HW290346   1.389   3.403  12.001 -0.8886  0.6543  3.6392
26678SOL     OW90347   1.285  11.367  10.277 -0.4701  0.3389 -0.3477
26678SOL    HW190348   1.290  11.276  10.248 -1.1096  0.2219 -0.0895
26678SOL    HW290349   1.255  11.415  10.199 -0.9271  0.2100 -0.2540
26679SOL     OW90350   0.233   8.955  12.963  0.3502 -0.5423  0.4440
26679SOL    HW190351   0.315   8.987  12.924 -0.1581  0.1062 -0.1299
26679SOL    HW290352   0.200   9.030  13.012 -1.1538  0.0638 -1.3900
26680SOL     OW90353   9.058   2.151   8.793 -0.0758 -0.2622  0.1245
26680SOL    HW190354   9.039   2.232   8.744  0.4224 -0.9352 -1.2389
26680SOL    HW290355   9.065   2.084   8.725  4.2741 -0.6315  0.6405
26681SOL     OW90356   5.722   1.398   7.843 -0.1808 -0.0281  0.5932
26681SOL    HW190357   5.669   1.341   7.898 -1.1120  0.6403  0.4164
26681SOL    HW290358   5.667   1.417   7.767  0.8075 -0.3581 -0.2329
26682SOL     OW90359   0.732   8.259   8.827  0.0239  0.2386  0.0155
26682SOL    HW190360   0.658   8.296   8.779  0.6618  0.7518 -0.5953
26682SOL    HW290361   0.715   8.282   8.918 -0.2760  0.8671 -0.1908
26683SOL     OW90362   9.537  12.625   3.356 -0.0116 -0.2687  0.5038
26683SOL    HW190363   9.631  12.614   3.342  0.3705  2.3247  0.4457
26683SOL    HW290364   9.499  12.626   3.268  0.2864  1.0082  0.3616
26684SOL     OW90365  12.363   4.191   2.426  0.0983 -0.3863  0.1074
26684SOL    HW190366  12.334   4.182   2.517 -3.2006  0.3563 -0.7140
26684SOL    HW290367  12.456   4.169   2.428  0.0117 -1.0507  3.5192
26685SOL     OW90368   2.903   6.507  10.622 -0.1892  0.1167 -0.5904
26685SOL    HW190369   2.828   6.448  10.624 -0.4613  0.3782 -1.9744
26685SOL    HW290370   2.977   6.451  10.598 -0.1373  0.0497 -0.2769
26686SOL     OW90371  11.069   3.084   5.887  0.0896 -0.1646 -0.1593
26686SOL    HW190372  11.123   3.032   5.947  0.9974 -1.3249 -1.8799
26686SOL    HW290373  11.107   3.171   5.890  0.5737 -0.3897  0.4204
26687SOL     OW90374   4.738   1.943   4.749 -0.2403  0.1313  0.2474
26687SOL    HW190375   4.712   1.968   4.838 -0.5204 -0.0230  0.2079
26687SOL    HW290376   4.710   2.017   4.695  1.2676  0.9151  0.4829
26688SOL     OW90377   6.186   6.202   7.083  0.3440  0.0805  0.5088
26688SOL    HW190378   6.125   6.131   7.068 -2.5428  2.5533 -0.3706
26688SOL    HW290379   6.243   6.202   7.005 -1.5344  0.4697 -0.9267
26689SOL     OW90380   0.681   2.600   9.027  0.0099 -0.1820 -0.5964
26689SOL    HW190381   0.605   2.545   9.010 -0.2846  0.1945 -0.5191
26689SOL    HW290382   0.746   2.571   8.963 -0.7668  0.6023 -1.7897
26690SOL     OW90383   3.118   2.390  10.389 -0.0349 -0.3825 -0.1479
26690SOL    HW190384   3.096   2.310  10.341 -0.3836 -0.6638  0.4593
26690SOL    HW290385   3.154   2.358  10.472 -0.0101  0.0898  0.0238
26691SOL     OW90386   1.880   5.736  11.144  0.3712 -0.1794  0.4892
26691SOL    HW190387   1.918   5.685  11.216 -0.0053 -0.2044  0.6746
26691SOL    HW290388   1.845   5.814  11.186  2.9872  1.4248 -0.0715
26692SOL     OW90389   4.206   9.899  10.208  0.0410 -0.2240 -0.2596
26692SOL    HW190390   4.297   9.898  10.177 -0.5564 -0.7418 -2.1265
26692SOL    HW290391   4.211   9.867  10.298  1.5394 -2.0053 -0.9079
26693SOL     OW90392   8.983   0.434   7.898  0.0170 -0.1782 -0.2360
26693SOL    HW190393   8.983   0.422   7.993 -2.6694 -1.6843 -0.3463
26693SOL    HW290394   9.075   0.448   7.876  0.5023  2.8221  2.8372
26694SOL     OW90395   0.225   5.637   9.596 -0.2166 -0.4659 -0.1727
26694SOL    HW190396   0.273   5.557   9.617  3.2079  0.8762 -2.1235
26694SOL    HW290397   0.259   5.664   9.511 -2.1140  2.4439 -0.1457
26695SOL     OW90398   9.016   2.330   4.887  0.3275  0.5829  0.5200
26695SOL    HW190399   9.001   2.368   4.974 -0.2519  1.0321  0.2262
26695SOL    HW290400   9.110   2.310   4.886  0.0377 -1.1015  1.9075
26696SOL     OW90401   6.220  11.043   7.465 -0.0729 -0.2694  0.2019
26696SOL    HW190402   6.130  11.073   7.480 -0.4646 -0.8250 -0.9383
26696SOL    HW290403   6.235  10.979   7.534 -0.2489  0.4219  0.9022
26697SOL     OW90404   2.951  10.856  10.700  0.0500 -0.2581  0.1891
26697SOL    HW190405   2.997  10.937  10.677  1.0504 -1.1455 -1.0495
26697SOL    HW290406   2.873  10.885  10.747  0.7505  1.3903  0.3923
26698SOL     OW90407  12.375   8.358   2.103  0.3161 -0.1420  0.2269
26698SOL    HW190408  12.453   8.346   2.049  0.7584  0.0140  0.8228
26698SOL    HW290409  12.409   8.373   2.192 -0.3708  0.5320  0.3874
26699SOL     OW90410  12.041   2.757   6.602 -0.1650  0.2413  0.1299
26699SOL    HW190411  11.985   2.690   6.642  0.1541 -1.2602 -1.7968
26699SOL    HW290412  12.130   2.732   6.628 -0.1260  0.5124  0.2523
26700SOL     OW90413   2.123   9.477   9.072 -0.2065  0.0381 -0.3114
26700SOL    HW190414   2.200   9.532   9.085 -1.1442  1.2797  0.2801
26700SOL    HW290415   2.155   9.388   9.083  1.1239  0.5274  0.0096
26701SOL     OW90416   7.554   3.700  10.182 -0.2465 -0.4312  0.2007
26701SOL    HW190417   7.540   3.784  10.227 -3.0742  0.9832 -2.9191
26701SOL    HW290418   7.527   3.634  10.245  1.1403  0.9629  2.4059
26702SOL     OW90419   0.884  12.826   7.025 -0.0258 -0.8318  0.0418
26702SOL    HW190420   0.909  12.825   6.933 -1.6207  1.7951 -0.5061
26702SOL    HW290421   0.909  12.913   7.056 -0.6286 -1.2299  1.7690
26703SOL     OW90422   5.582  11.762   7.477 -0.0291 -0.0673  0.2327
26703SOL    HW190423   5.530  11.689   7.511 -1.1094  0.3740 -0.4051
26703SOL    HW290424   5.630  11.726   7.403 -1.5531  0.1448 -0.8964
26704SOL     OW90425   0.853   7.550  11.364  0.0321  0.7485  0.0367
26704SOL    HW190426   0.822   7.463  11.338  1.0153  0.8248 -1.5641
26704SOL    HW290427   0.789   7.581  11.428 -0.5850 -0.9541  0.2792
26705SOL     OW90428   7.230  10.804   7.884 -0.6864 -0.1750  0.3393
26705SOL    HW190429   7.284  10.762   7.951 -1.4743 -0.1783  0.9859
26705SOL    HW290430   7.291  10.861   7.836 -0.1538 -0.0059  1.1954
26706SOL     OW90431   0.998   4.169   7.650 -0.0426 -0.1378 -0.2633
26706SOL    HW190432   0.961   4.225   7.718 -0.6028  0.2816 -0.9031
26706SOL    HW290433   0.932   4.170   7.580  1.0137  0.3272 -1.2774
26707SOL     OW90434   7.520   7.832   6.774  0.3577  0.0649 -0.1166
26707SOL    HW190435   7.466   7.893   6.722  0.0436 -0.2010 -0.1008
26707SOL    HW290436   7.556   7.772   6.709 -0.2110 -0.4035 -0.0113
26708SOL     OW90437   1.304   9.162   4.331 -0.1694  0.1234  0.1866
26708SOL    HW190438   1.245   9.170   4.256 -0.8090 -2.0550  0.3900
26708SOL    HW290439   1.391   9.153   4.291 -0.5170 -1.1563 -0.3501
26709SOL     OW90440   6.888   4.519   5.285  0.0776 -0.1662  0.0542
26709SOL    HW190441   6.898   4.432   5.323 -0.9610 -0.5310 -0.4683
26709SOL    HW290442   6.959   4.570   5.324  1.7223 -1.6481 -0.8645
26710SOL     OW90443  11.091   2.713   8.084 -0.3634 -0.0235 -0.0041
26710SOL    HW190444  11.083   2.755   8.170  0.6641  0.4969 -0.1452
26710SOL    HW290445  11.185   2.711   8.067 -0.5043 -0.8751 -0.7546
26711SOL     OW90446  12.647   5.327   3.525  0.1699  0.3162 -0.6833
26711SOL    HW190447  12.669   5.341   3.433 -0.6105  1.0228 -0.7702
26711SOL    HW290448  12.553   5.313   3.525  0.4688 -2.0968 -0.2474
26712SOL     OW90449   6.742   3.437   6.052  0.4172 -0.3565 -1.1336
26712SOL    HW190450   6.749   3.500   5.980  1.0691  1.3997  0.3766
26712SOL    HW290451   6.791   3.477   6.124 -1.6037 -1.2062  0.8513
26713SOL     OW90452   6.778  10.635   4.671 -0.0371  0.3305  0.4330
26713SOL    HW190453   6.729  10.553   4.671 -0.6687  0.7041  0.5625
26713SOL    HW290454   6.717  10.699   4.634  0.6064  0.6494 -0.0902
26714SOL     OW90455   1.131   2.167   9.357  0.6523  0.2169  0.3650
26714SOL    HW190456   1.220   2.165   9.392  0.0172 -0.3219  2.0405
26714SOL    HW290457   1.097   2.079   9.374 -0.0668  0.2780 -0.6736
26715SOL     OW90458   2.919  11.119   9.162 -0.3004 -0.7447  0.0037
26715SOL    HW190459   2.923  11.094   9.069 -3.2743 -3.1595  0.3560
26715SOL    HW290460   2.976  11.057   9.206 -0.4347 -0.8952 -0.0314
26716SOL     OW90461   2.029   8.592   9.372 -0.2834 -0.0436 -0.9397
26716SOL    HW190462   2.036   8.514   9.318 -0.2933 -0.6549 -0.0876
26716SOL    HW290463   1.979   8.654   9.319 -0.9192 -0.8771 -1.3440
26717SOL     OW90464   3.485  11.628   2.726  0.9928 -0.5062  0.3289
26717SOL    HW190465   3.400  11.652   2.763  1.6987  2.1653  0.4952
26717SOL    HW290466   3.549  11.659   2.791  2.1267 -1.4015 -0.3102
26718SOL     OW90467   3.375  12.329  10.974  0.7057  0.3522  0.1069
26718SOL    HW190468   3.362  12.264  11.043  1.1077 -0.0656 -0.2039
26718SOL    HW290469   3.367  12.413  11.019 -0.3588  0.1020  0.4180
26719SOL     OW90470   2.965   7.191  11.687  0.2740  0.0261 -0.4954
26719SOL    HW190471   2.993   7.254  11.753  0.5721 -1.2623  0.6564
26719SOL    HW290472   3.043   7.138  11.670 -0.5261 -1.4337  0.2085
26720SOL     OW90473  10.483   8.463   1.784 -0.2496 -0.5388 -0.9176
26720SOL    HW190474  10.409   8.459   1.724 -1.0360 -1.8466  0.0729
26720SOL    HW290475  10.554   8.416   1.739 -0.8079 -1.4436 -0.8744
26721SOL     OW90476   7.061   0.496   5.557 -0.0319  0.0570 -0.4354
26721SOL    HW190477   7.007   0.417   5.550 -0.0497 -0.0838  0.9716
26721SOL    HW290478   7.006   0.559   5.602 -0.3135  1.2018 -2.2725
26722SOL     OW90479   1.294   5.807   9.656 -0.0054 -0.0590  0.2100
26722SOL    HW190480   1.334   5.721   9.670 -1.8209 -1.0421 -0.2919
26722SOL    HW290481   1.280   5.842   9.744 -2.4317 -1.8789  0.6519
26723SOL     OW90482   4.834   1.215   5.937 -0.4345 -0.0544  0.2498
26723SOL    HW190483   4.809   1.202   5.845  0.4363  1.7745 -0.2974
26723SOL    HW290484   4.781   1.151   5.985 -0.8090 -1.1633 -1.5188
26724SOL     OW90485   4.295  12.512   4.003  0.3045  0.4121 -0.6116
26724SOL    HW190486   4.239  12.559   3.941 -1.3206  0.1341  0.5747
26724SOL    HW290487   4.335  12.581   4.056  1.4929  0.6362 -1.7347
26725SOL     OW90488   3.861   1.517   1.667 -0.1631 -0.3379 -0.1798
26725SOL    HW190489   3.928   1.449   1.672  1.0981  0.8939  0.2780
26725SOL    HW290490   3.781   1.474   1.698  0.4517 -1.7781 -0.5159
26726SOL     OW90491   3.056  11.464   3.414 -0.3972  0.2506  0.0165
26726SOL    HW190492   3.152  11.465   3.413 -0.3733 -0.8244  0.2686
26726SOL    HW290493   3.031  11.457   3.322 -0.1733 -1.4392  0.0500
26727SOL     OW90494   4.733   3.126   0.054 -0.3086  0.1984 -0.6541
26727SOL    HW190495   4.749   3.090  -0.033 -1.1120  0.3399 -0.8701
26727SOL    HW290496   4.680   3.059   0.098  0.3552 -0.0179 -0.1500
26728SOL     OW90497  10.694   9.401   1.966  0.0512 -0.0814 -0.6037
26728SOL    HW190498  10.616   9.387   2.020  0.6995  1.0625  0.6837
26728SOL    HW290499  10.724   9.313   1.944 -1.2738 -0.5451 -0.6440
26729SOL     OW90500   3.058   8.312   0.409 -0.2308  0.2907  0.4989
26729SOL    HW190501   3.099   8.339   0.491 -0.0588 -0.1672  0.5655
26729SOL    HW290502   2.987   8.253   0.436  0.4269 -0.6144  0.2714
26730SOL     OW90503   2.709   3.779   7.327 -0.9215 -0.4213  0.0841
26730SOL    HW190504   2.784   3.837   7.339 -1.1828 -0.3587  1.6986
26730SOL    HW290505   2.672   3.804   7.242  0.5377 -0.0811 -0.4752
26731SOL     OW90506   4.488  10.130   4.091  0.0870  0.5734  0.2085
26731SOL    HW190507   4.542  10.170   4.022 -0.6325  1.4265  0.1237
26731SOL    HW290508   4.479  10.198   4.157  1.1280 -0.3794  1.3859
26732SOL     OW90509  12.127   0.856  11.944  0.3802 -0.2250  0.3099
26732SOL    HW190510  12.044   0.830  11.905  0.6131 -0.5550  0.0251
26732SOL    HW290511  12.180   0.887  11.871  0.2817  0.6129  0.5795
26733SOL     OW90512   9.588   1.615   9.084  0.2059  0.2425 -0.5759
26733SOL    HW190513   9.567   1.707   9.075  2.3495  0.6747 -2.0848
26733SOL    HW290514   9.522   1.570   9.031 -1.9875  0.6505  1.6430
26734SOL     OW90515   5.680  12.637  12.712  0.0996  0.0589 -0.4581
26734SOL    HW190516   5.636  12.552  12.704 -1.4965  0.9757 -2.7102
26734SOL    HW290517   5.610  12.701  12.697  1.6772  1.7016 -1.1784
26735SOL     OW90518   1.933   9.496  11.959  0.0111 -0.2851  0.0274
26735SOL    HW190519   1.889   9.454  12.032 -0.1805  0.2739  0.2420
26735SOL    HW290520   1.891   9.582  11.953  0.5908 -0.0191 -0.2192
26736SOL     OW90521  12.646  12.896   8.009  0.7272 -0.0692  0.5139
26736SOL    HW190522  12.635  12.985   8.040 -0.5438 -0.1630  0.4177
26736SOL    HW290523  12.564  12.852   8.033  0.6594 -0.7650 -0.8486
26737SOL     OW90524   4.619  11.388   1.285 -0.3089  0.0637 -0.3681
26737SOL    HW190525   4.685  11.382   1.354 -0.6456  1.4335  0.1060
26737SOL    HW290526   4.546  11.335   1.317  0.2101 -0.7448 -0.4977
26738SOL     OW90527   1.569   2.868   6.632 -0.4939 -0.5416 -0.6353
26738SOL    HW190528   1.475   2.851   6.634 -0.1532 -2.9725  1.4336
26738SOL    HW290529   1.603   2.818   6.706  2.1588  2.3017  0.2771
26739SOL     OW90530   3.991  10.177   5.799 -0.4273 -0.2364  0.2675
26739SOL    HW190531   4.009  10.086   5.776 -1.9467 -0.7007  0.8118
26739SOL    HW290532   3.948  10.213   5.722  0.3201  0.0882 -0.0095
26740SOL     OW90533   6.461   6.797   4.885  1.0674 -0.2031  0.0173
26740SOL    HW190534   6.543   6.812   4.838  0.2040  0.3476 -1.3886
26740SOL    HW290535   6.482   6.814   4.976  1.4528  4.7390 -0.7400
26741SOL     OW90536  12.256   6.435  12.577 -0.1626  0.2597  0.3445
26741SOL    HW190537  12.198   6.380  12.524 -0.6009  0.0708  1.0109
26741SOL    HW290538  12.203   6.458  12.654  0.4616  0.5452  0.6913
26742SOL     OW90539  10.520   3.720   6.519  0.2678  0.1687  0.1711
26742SOL    HW190540  10.463   3.788   6.485 -0.4137 -0.1274  0.6901
26742SOL    HW290541  10.514   3.729   6.614  1.8955  0.7904  0.2467
26743SOL     OW90542   7.302   0.573   0.807 -0.0299 -0.0517 -0.1796
26743SOL    HW190543   7.216   0.541   0.836 -0.5020  0.5682 -0.8640
26743SOL    HW290544   7.357   0.566   0.884 -0.4736 -1.2467  0.0509
26744SOL     OW90545  11.484   1.912   1.515 -0.3904  0.1226 -0.1103
26744SOL    HW190546  11.569   1.911   1.560 -0.6436 -1.3768  0.3990
26744SOL    HW290547  11.495   1.976   1.445  1.2667 -0.2589 -0.2505
26745SOL     OW90548   8.139   1.702   4.605 -0.6102  0.0289  0.1654
26745SOL    HW190549   8.102   1.637   4.665 -1.2777  1.5349  1.4566
26745SOL    HW290550   8.075   1.773   4.604  1.8873  2.5551  2.1272
26746SOL     OW90551   0.939  10.975   8.466  0.0203  0.3188 -0.4649
26746SOL    HW190552   0.889  10.926   8.532 -0.6976  0.5584 -0.8162
26746SOL    HW290553   1.027  10.983   8.503 -0.6702  1.4998  1.0221
26747SOL     OW90554   7.839  10.267   7.276 -0.0446 -0.2913 -0.1017
26747SOL    HW190555   7.763  10.210   7.283 -3.0225  3.1185 -1.5493
26747SOL    HW290556   7.832  10.326   7.351  0.4366  0.8111 -0.8920
26748SOL     OW90557   3.844  10.084   8.098 -0.2212  0.0280  0.0381
26748SOL    HW190558   3.937  10.107   8.088 -0.1497 -0.2626  0.0231
26748SOL    HW290559   3.845   9.991   8.119 -0.6681 -0.8859 -3.4287
26749SOL     OW90560  11.860   7.970   1.827  0.2191  0.4234 -0.3122
26749SOL    HW190561  11.877   8.004   1.739  0.8565  0.0644 -0.3371
26749SOL    HW290562  11.832   7.879   1.812 -0.2501  0.5386 -0.1719
26750SOL     OW90563   9.106   2.550  11.125 -0.1816  0.4219 -0.1126
26750SOL    HW190564   9.018   2.515  11.144  0.7539 -2.3241 -0.4071
26750SOL    HW290565   9.133   2.506  11.045  1.1040  2.0022 -0.6014
26751SOL     OW90566   4.720   9.791   0.032  0.0512  0.8238  0.2598
26751SOL    HW190567   4.758   9.874   0.063  0.5286  0.2422  1.2693
26751SOL    HW290568   4.725   9.797  -0.063  1.3933  1.3724  0.3382
26752SOL     OW90569   2.762  11.474   7.601  0.0623 -0.3200  0.4456
26752SOL    HW190570   2.794  11.453   7.689  1.5520  0.5041  0.1300
26752SOL    HW290571   2.679  11.519   7.616 -0.3535 -1.3361  1.3581
26753SOL     OW90572  11.916   2.438   5.353  0.2093 -0.1736  0.2632
26753SOL    HW190573  11.881   2.444   5.264 -3.4860  3.4009  1.6467
26753SOL    HW290574  11.849   2.389   5.401  1.0747 -0.1961  1.4756
26754SOL     OW90575   8.801   0.001   7.936  0.3532  0.3808  0.4073
26754SOL    HW190576   8.800   0.086   7.891  0.4481 -0.1449 -0.6076
26754SOL    HW290577   8.842   0.019   8.021 -0.8607  1.6226  0.7663
26755SOL     OW90578   0.149  10.207   9.617 -0.3327 -0.2867  0.2181
26755SOL    HW190579   0.166  10.116   9.591 -2.5910 -0.4790 -0.8933
26755SOL    HW290580   0.133  10.253   9.535 -0.9442  0.7140  0.8753
26756SOL     OW90581   1.618  12.267   6.324 -0.0730  0.5258  0.0026
26756SOL    HW190582   1.639  12.174   6.313  0.7539  0.8339 -1.2705
26756SOL    HW290583   1.690  12.301   6.377  0.3129  0.6798 -0.6052
26757SOL     OW90584  12.853  10.999  10.901  0.7202  0.3187  0.1672
26757SOL    HW190585  12.913  11.061  10.860  1.4445  0.4782  1.4008
26757SOL    HW290586  12.890  10.984  10.988 -0.8837  0.2026  0.8657
26758SOL     OW90587   6.613   4.993   4.148 -0.3111  0.0707  0.4104
26758SOL    HW190588   6.568   5.017   4.229 -1.0602  1.5096 -0.3982
26758SOL    HW290589   6.543   4.961   4.090 -0.3562  2.1953 -0.8069
26759SOL     OW90590   8.933   8.074   0.396 -0.4485  0.2979  0.3196
26759SOL    HW190591   9.014   8.071   0.346 -0.6481 -1.1152  0.0409
26759SOL    HW290592   8.866   8.098   0.332 -0.4454  0.2204  0.2881
26760SOL     OW90593  12.350   5.627   0.995 -0.2326 -0.0162 -0.2142
26760SOL    HW190594  12.339   5.578   0.914 -1.4056 -0.1774  0.0174
26760SOL    HW290595  12.337   5.562   1.064  1.4139 -0.0206  0.1295
26761SOL     OW90596   0.295   2.013  12.594 -0.3657 -0.4576 -0.4224
26761SOL    HW190597   0.234   2.085  12.611  0.7858  1.2740 -2.8709
26761SOL    HW290598   0.374   2.037  12.643 -1.3394 -2.4559  2.3639
26762SOL     OW90599   9.148   0.003  10.591  0.1972  0.5989 -0.0710
26762SOL    HW190600   9.175   0.091  10.566  1.9851 -0.3043 -1.5807
26762SOL    HW290601   9.226  -0.034  10.633 -1.2699  0.4756  2.7694
26763SOL     OW90602   0.050   6.227   5.005 -0.2945  0.1832 -0.1417
26763SOL    HW190603   0.076   6.194   4.919  0.0437  0.7383 -0.2548
26763SOL    HW290604  -0.044   6.244   4.997 -0.9656 -2.6798  0.5394
26764SOL     OW90605   0.999  11.284  10.216  0.5885  0.3015  0.3396
26764SOL    HW190606   0.969  11.290  10.306  0.0375 -0.7999  0.2474
26764SOL    HW290607   0.963  11.361  10.173 -2.8934 -1.3387  0.0354
26765SOL     OW90608  10.588   5.114  11.247 -0.4967  0.1039 -0.1288
26765SOL    HW190609  10.496   5.123  11.273 -0.8629 -0.9541 -0.9705
26765SOL    HW290610  10.617   5.033  11.289  1.0698  2.0313  2.8073
26766SOL     OW90611   7.905   2.805   7.070  0.3389  0.0102  0.2398
26766SOL    HW190612   7.814   2.783   7.089  0.5724 -0.6102  0.6984
26766SOL    HW290613   7.901   2.864   6.995 -0.3809 -1.0690 -0.6117
26767SOL     OW90614   5.283  11.667   3.106 -0.2488 -0.3903  0.1944
26767SOL    HW190615   5.226  11.598   3.138  0.2503 -0.3080  1.3281
26767SOL    HW290616   5.336  11.625   3.038 -0.7971 -0.7813 -0.0005
26768SOL     OW90617   8.340  12.722   2.648 -0.4412  0.2593  0.0757
26768SOL    HW190618   8.293  12.689   2.725 -1.5278  1.8512  0.1362
26768SOL    HW290619   8.370  12.643   2.603 -0.3436 -0.7140  1.7796
26769SOL     OW90620   0.357   7.243  12.138 -0.0253  0.2076  0.7237
26769SOL    HW190621   0.443   7.206  12.118 -0.5774 -0.4908 -0.5137
26769SOL    HW290622   0.325   7.191  12.211  0.8506  0.8889  1.6110
26770SOL     OW90623   5.184   8.250   6.686 -0.4657  0.1455  0.2334
26770SOL    HW190624   5.241   8.239   6.762 -0.1188 -1.0638 -0.1771
26770SOL    HW290625   5.233   8.212   6.613 -0.8785  1.0985 -0.5605
26771SOL     OW90626  10.625   9.841   4.746 -0.3107 -0.0515 -0.4141
26771SOL    HW190627  10.616   9.802   4.659 -0.6164  0.8273 -0.7833
26771SOL    HW290628  10.717   9.867   4.752 -0.2771 -0.1609 -0.4488
26772SOL     OW90629   9.922   0.465   2.848 -0.3137  0.2401  0.1883
26772SOL    HW190630   9.998   0.472   2.791 -0.8796  1.8969 -0.4099
26772SOL    HW290631   9.871   0.544   2.831 -2.5629 -1.1257 -0.0017
26773SOL     OW90632   8.375   3.114  10.846  0.0876 -0.2310  0.4562
26773SOL    HW190633   8.387   3.078  10.934  0.5502  1.0074  0.9294
26773SOL    HW290634   8.463   3.135  10.816 -0.1992  1.4961  0.6694
26774SOL     OW90635   1.194   8.069   5.514 -0.2081  0.7332  0.5727
26774SOL    HW190636   1.284   8.101   5.512  0.4094 -0.9179  0.1399
26774SOL    HW290637   1.166   8.082   5.605  1.1605 -0.4821  1.2110
26775SOL     OW90638   4.708   7.281   7.002 -0.2846  0.6750  0.0232
26775SOL    HW190639   4.764   7.221   7.051 -0.6575  1.2127  1.1529
26775SOL    HW290640   4.762   7.309   6.928  0.7113  0.6731  0.7218
26776SOL     OW90641   1.664   7.552   0.065  0.4792  0.0312 -0.0248
26776SOL    HW190642   1.622   7.625   0.110 -0.9387 -0.2866 -0.7876
26776SOL    HW290643   1.621   7.474   0.100  4.0624 -0.8516  3.1323
26777SOL     OW90644   7.896   5.538   8.251  0.9483 -0.2587  0.2199
26777SOL    HW190645   7.886   5.470   8.185  1.5967 -0.9467  0.8087
26777SOL    HW290646   7.924   5.491   8.330  0.2472  0.5472  0.9717
26778SOL     OW90647   6.925   7.858   4.575 -0.2443  0.0095  0.1028
26778SOL    HW190648   6.890   7.884   4.489  0.6853  0.1632 -0.2374
26778SOL    HW290649   6.914   7.936   4.630  0.1150  0.2646 -0.1778
26779SOL     OW90650   9.883  10.495   3.465  0.2238 -0.3218 -0.0171
26779SOL    HW190651   9.863  10.432   3.534  1.0016 -0.0201  0.5044
26779SOL    HW290652   9.813  10.560   3.471  2.1639  1.7449  3.0249
26780SOL     OW90653   4.639  10.613  12.280  0.4243  0.7332  0.3239
26780SOL    HW190654   4.652  10.708  12.273  1.1361  0.5550 -1.2602
26780SOL    HW290655   4.557  10.597  12.234 -0.4689  0.7222  1.8641
26781SOL     OW90656   1.525   6.925  10.994  0.0696  0.3638 -0.0386
26781SOL    HW190657   1.433   6.912  11.016 -0.8845  1.6323 -2.7570
26781SOL    HW290658   1.563   6.837  10.997 -1.6030 -0.4074 -0.2826
26782SOL     OW90659  10.564   2.780   4.528 -0.1424 -0.4022  0.0844
26782SOL    HW190660  10.643   2.740   4.565 -0.2717 -0.4902  0.2692
26782SOL    HW290661  10.526   2.829   4.601 -0.5167 -0.7547  0.1286
26783SOL     OW90662   9.670   6.355   0.380 -0.4744  0.3746 -0.0980
26783SOL    HW190663   9.762   6.373   0.400 -0.5981  1.2898 -0.3070
26783SOL    HW290664   9.671   6.319   0.292 -0.4296  1.7172 -0.6646
26784SOL     OW90665   5.276   3.587   2.692  0.1061 -0.3282  0.8921
26784SOL    HW190666   5.290   3.582   2.598  0.3914 -0.7965  0.9537
26784SOL    HW290667   5.291   3.498   2.724 -1.8546 -0.6163  1.1437
26785SOL     OW90668   7.841  12.327   7.059  0.7130 -0.1994 -0.4320
26785SOL    HW190669   7.837  12.368   7.146  1.2009 -0.2329 -0.3914
26785SOL    HW290670   7.846  12.233   7.078  1.0177 -0.1966 -0.4882
26786SOL     OW90671   1.116  12.452   1.562 -0.1040 -0.5156 -0.2303
26786SOL    HW190672   1.131  12.528   1.506 -0.5130 -0.5153 -0.3429
26786SOL    HW290673   1.026  12.463   1.594  0.3530 -0.1420  0.9983
26787SOL     OW90674   8.112  12.437   6.001  0.1565 -0.0411 -0.6448
26787SOL    HW190675   8.101  12.348   6.034  1.8780 -0.3301 -0.7685
26787SOL    HW290676   8.040  12.486   6.040  0.1465 -1.1300  0.7922
26788SOL     OW90677   5.183  11.960   1.894 -0.1031  0.6004  0.1149
26788SOL    HW190678   5.157  12.048   1.921 -2.7591  0.2362 -0.9450
26788SOL    HW290679   5.111  11.903   1.924  0.9597 -1.0307 -0.2919
26789SOL     OW90680   7.191  10.914   3.689  0.3742  0.4455  0.4238
26789SOL    HW190681   7.170  10.885   3.601  1.0358 -0.9552  0.7072
26789SOL    HW290682   7.275  10.874   3.709 -0.0196  0.2819  1.9040
26790SOL     OW90683   0.824   3.602   0.015  0.0361 -0.3969 -0.7549
26790SOL    HW190684   0.878   3.636  -0.057  1.6629  1.8887  1.3773
26790SOL    HW290685   0.797   3.680   0.063  0.8819 -1.8843  2.3714
26791SOL     OW90686   6.299   4.307   5.135  0.2505  0.4254  0.0589
26791SOL    HW190687   6.233   4.260   5.186 -0.4574  0.9573 -0.3595
26791SOL    HW290688   6.377   4.252   5.142 -0.0599  0.0833  1.0456
26792SOL     OW90689   9.890  11.120   9.384 -0.2677  0.5899 -0.2567
26792SOL    HW190690   9.947  11.142   9.311  1.8481  0.4470  1.2450
26792SOL    HW290691   9.877  11.204   9.429  0.6721  0.2756  0.6511
26793SOL     OW90692   1.476   1.729   1.946  0.1814 -0.5283  0.1597
26793SOL    HW190693   1.523   1.756   2.025 -1.0327  0.6781  0.5045
26793SOL    HW290694   1.544   1.694   1.888  1.5880  1.6736  0.3891
26794SOL     OW90695   3.437  11.235   5.130 -0.0465 -0.1808  0.3000
26794SOL    HW190696   3.434  11.288   5.210  1.3937  0.1916  0.1390
26794SOL    HW290697   3.424  11.145   5.160  0.1512 -0.0116  0.9111
26795SOL     OW90698   9.624  11.122  11.474  0.3245  0.0074  0.2308
26795SOL    HW190699   9.637  11.188  11.405  0.6790  0.6733  0.9148
26795SOL    HW290700   9.712  11.104  11.506  0.2775 -1.1318 -0.2302
26796SOL     OW90701  12.096   9.130   7.793 -0.0511  0.1236  0.1097
26796SOL    HW190702  12.071   9.143   7.884 -0.9963 -0.4111 -0.0548
26796SOL    HW290703  12.145   9.208   7.770  1.2736 -0.2715  1.4232
26797SOL     OW90704   0.693   3.762   5.811 -0.0077 -0.2439  0.4613
26797SOL    HW190705   0.737   3.805   5.884 -1.0382 -0.1459  1.0400
26797SOL    HW290706   0.764   3.724   5.760  0.7047 -0.7908  1.8112
26798SOL     OW90707   7.206  12.135   0.004  0.0859 -0.2292  0.0991
26798SOL    HW190708   7.256  12.128   0.086  0.9781 -1.7327 -0.5393
26798SOL    HW290709   7.134  12.073   0.015 -1.6774  1.8497  0.9716
26799SOL     OW90710   9.205   7.621   4.913 -0.0925 -0.1729 -0.3408
26799SOL    HW190711   9.151   7.619   4.835 -1.1000 -0.9171  0.3415
26799SOL    HW290712   9.190   7.536   4.954 -2.8600  1.5807  2.7917
26800SOL     OW90713   9.191   7.884   5.939 -0.4462  0.0099  0.1188
26800SOL    HW190714   9.100   7.913   5.941 -0.8441 -1.0843 -0.9057
26800SOL    HW290715   9.212   7.862   6.030 -1.6412 -0.9694  0.1776
26801SOL     OW90716   3.568  11.932   6.178  0.2572  0.1889  0.6277
26801SOL    HW190717   3.639  11.975   6.226  0.1539  2.6276 -1.1872
26801SOL    HW290718   3.612  11.872   6.118  0.6246  0.0232  1.0598
26802SOL     OW90719  12.829  10.041   8.052  0.1690 -0.3272 -0.7930
26802SOL    HW190720  12.811   9.975   7.985  0.2226 -0.8639 -0.2872
26802SOL    HW290721  12.793  10.003   8.133  0.8430 -0.0534 -0.3604
26803SOL     OW90722  11.984   8.127   3.038 -0.2838  0.0335 -0.1755
26803SOL    HW190723  11.924   8.188   2.996 -1.8107 -0.0169  1.7861
26803SOL    HW290724  11.928   8.067   3.087  1.3249 -0.6252  0.9744
26804SOL     OW90725   8.841   2.319   0.437  0.1632 -0.5269 -0.3122
26804SOL    HW190726   8.846   2.285   0.526  0.1580 -1.9096 -0.8105
26804SOL    HW290727   8.932   2.334   0.411  0.1844 -0.4699 -0.2058
26805SOL     OW90728   2.497   3.105   3.414 -0.5031  0.6288  0.4572
26805SOL    HW190729   2.511   3.166   3.487 -0.1571 -0.2158  1.1183
26805SOL    HW290730   2.534   3.023   3.445 -1.8407 -0.1821 -0.0260
26806SOL     OW90731   7.446   5.603   3.348  0.6794 -0.2845  0.6503
26806SOL    HW190732   7.475   5.667   3.284  0.9481  1.3293  2.2853
26806SOL    HW290733   7.487   5.521   3.321  2.0770  0.6917 -0.3289
26807SOL     OW90734   7.899  12.778  12.220  0.0529 -0.1148  0.0528
26807SOL    HW190735   7.817  12.805  12.261  0.5546 -1.6531  2.2131
26807SOL    HW290736   7.953  12.746  12.292  2.7916  1.2686 -1.2172
26808SOL     OW90737   0.302   7.873  10.248  0.2870 -0.0095  0.1817
26808SOL    HW190738   0.344   7.789  10.230  1.2593  0.0489  1.9226
26808SOL    HW290739   0.352   7.936  10.196  0.3492 -0.3575 -0.1809
26809SOL     OW90740   0.383   8.482   6.349 -0.2963  0.0689  0.1757
26809SOL    HW190741   0.411   8.474   6.440  0.0092 -0.3351  0.0470
26809SOL    HW290742   0.319   8.554   6.350 -1.8024 -1.2256  1.0644
26810SOL     OW90743   4.819   7.236  10.444 -0.2450  0.1104  0.4145
26810SOL    HW190744   4.877   7.219  10.370 -1.1166 -2.3322  0.1726
26810SOL    HW290745   4.854   7.181  10.514 -2.3259 -1.7100  0.1618
26811SOL     OW90746   7.954   3.318   9.043 -0.2058  0.6774 -0.0017
26811SOL    HW190747   8.044   3.327   9.075 -0.6811  1.6010  1.1520
26811SOL    HW290748   7.903   3.374   9.101 -1.1739  2.1863 -2.1983
26812SOL     OW90749   7.970   2.340   7.171 -0.1875 -0.8457 -1.1720
26812SOL    HW190750   7.950   2.337   7.264  0.1305  0.0105 -1.0727
26812SOL    HW290751   8.054   2.385   7.165  0.1691 -1.5723 -1.8213
26813SOL     OW90752   8.119   2.684  10.657  0.2093 -0.6827  0.2039
26813SOL    HW190753   8.144   2.776  10.672 -0.8495 -0.5111  1.1348
26813SOL    HW290754   8.026   2.689  10.634  0.1678 -1.5102  0.1807
26814SOL     OW90755   2.181   5.179   2.899 -0.2135  0.0653 -0.0462
26814SOL    HW190756   2.189   5.095   2.854 -0.1231  0.4733 -0.8187
26814SOL    HW290757   2.250   5.233   2.861 -0.3784  0.5371  0.3157
26815SOL     OW90758   2.421   6.305  11.656  0.4124  0.1426 -0.1528
26815SOL    HW190759   2.403   6.399  11.666  1.3946  0.3723 -0.4263
26815SOL    HW290760   2.440   6.295  11.563 -0.5044 -0.4890 -0.2866
26816SOL     OW90761  11.404   0.229   5.835 -0.7183  0.0050  0.1975
26816SOL    HW190762  11.454   0.228   5.754 -0.9543 -0.3838  0.0546
26816SOL    HW290763  11.401   0.321   5.860  0.1512  0.0206  0.2634
26817SOL     OW90764   6.468  11.722  12.833  0.3756  0.5084  0.2276
26817SOL    HW190765   6.459  11.631  12.805 -0.9683 -0.2573  2.8753
26817SOL    HW290766   6.413  11.772  12.773  2.3323 -0.0923 -2.2548
26818SOL     OW90767  12.278  10.135   9.263  0.4224  0.5669 -0.1757
26818SOL    HW190768  12.300  10.115   9.172  0.3541 -2.0249  0.2992
26818SOL    HW290769  12.355  10.109   9.313  0.1925  1.2981  0.5900
26819SOL     OW90770   1.458   1.555   7.384 -0.1170  0.2912 -0.2518
26819SOL    HW190771   1.436   1.547   7.291  0.4069  2.2100 -0.5726
26819SOL    HW290772   1.375   1.567   7.428 -0.5119 -1.9325 -0.2523
26820SOL     OW90773  10.946   3.394   4.860 -0.2200 -0.4265 -0.1489
26820SOL    HW190774  10.943   3.388   4.765  1.6068 -0.9193 -0.2084
26820SOL    HW290775  10.950   3.303   4.890 -0.4882 -0.2669  0.3862
26821SOL     OW90776   5.027   6.071   8.227 -0.0686  0.0593  0.7764
26821SOL    HW190777   5.064   6.156   8.202 -0.0269 -0.3680 -0.7447
26821SOL    HW290778   4.933   6.087   8.235 -0.0954  0.2146  0.2244
26822SOL     OW90779  12.596   3.161   0.383  0.3942  0.2346 -0.0345
26822SOL    HW190780  12.660   3.116   0.328 -0.1450 -0.1745 -0.3328
26822SOL    HW290781  12.624   3.253   0.382  1.4160 -0.0491  0.4572
26823SOL     OW90782  12.813   3.588   1.999 -0.0417  0.3771  0.2383
26823SOL    HW190783  12.744   3.524   2.016  1.2621 -0.9726  0.6789
26823SOL    HW290784  12.854   3.602   2.085 -0.0024  1.4419  0.0537
26824SOL     OW90785   3.886  12.300   8.638 -0.1295  0.1230 -0.7411
26824SOL    HW190786   3.887  12.340   8.725 -2.3861 -0.3855 -0.4091
26824SOL    HW290787   3.923  12.367   8.580 -0.9409  1.4828  0.2528
26825SOL     OW90788   1.733   0.756   4.764 -0.7111 -0.0246  0.2951
26825SOL    HW190789   1.821   0.792   4.751 -0.3572 -1.4637 -1.9868
26825SOL    HW290790   1.674   0.828   4.745 -0.0052  0.1570 -1.3850
26826SOL     OW90791   8.760   4.727   3.191  0.1259 -0.7299 -0.4394
26826SOL    HW190792   8.840   4.676   3.204 -0.5051 -1.8377 -0.8285
26826SOL    HW290793   8.690   4.672   3.225 -0.6229 -0.3203 -1.2727
26827SOL     OW90794  10.386   5.223   2.069 -0.2325  0.4956 -0.6024
26827SOL    HW190795  10.304   5.210   2.021 -0.9498  2.1543  0.1099
26827SOL    HW290796  10.420   5.306   2.037  0.7362  0.2479 -0.2544
26828SOL     OW90797   8.544  12.402   8.384  0.0613 -0.1687 -0.2309
26828SOL    HW190798   8.605  12.328   8.379  1.3858  0.6987  1.7206
26828SOL    HW290799   8.590  12.474   8.341 -1.2372 -0.4106 -2.1572
26829SOL     OW90800   4.751   8.033   1.469 -0.2051  0.5064 -0.1945
26829SOL    HW190801   4.836   8.031   1.513 -0.7037 -1.1966  0.7963
26829SOL    HW290802   4.717   8.120   1.488 -0.1398  0.0560  2.4114
26830SOL     OW90803   6.221   7.851   5.888  0.0758  0.2787  0.1720
26830SOL    HW190804   6.245   7.863   5.980  0.0060  0.2082  0.2005
26830SOL    HW290805   6.261   7.925   5.842  0.6171 -0.0110  0.1685
26831SOL     OW90806   3.733   4.653   5.445 -0.3610 -0.0362 -0.1476
26831SOL    HW190807   3.761   4.599   5.370 -1.8025 -1.8695  0.5396
26831SOL    HW290808   3.744   4.743   5.415  2.1705 -0.6565 -1.3677
26832SOL     OW90809   6.134   3.387   2.123  0.2080  0.2745  0.2846
26832SOL    HW190810   6.109   3.300   2.155 -2.3944  0.6040 -0.6105
26832SOL    HW290811   6.127   3.380   2.028 -0.7536  1.6325  0.2374
26833SOL     OW90812  12.172   3.713   2.769 -0.0816 -0.9115  0.2047
26833SOL    HW190813  12.087   3.751   2.747  0.7955  1.0096 -0.1126
26833SOL    HW290814  12.204   3.677   2.687  0.3580  0.3938 -0.2211
26834SOL     OW90815   4.215   6.673   3.943 -0.6172  0.5325  0.0843
26834SOL    HW190816   4.234   6.624   3.863 -2.1704  0.1593 -0.0950
26834SOL    HW290817   4.143   6.731   3.919  0.6208  2.3157  0.5332
26835SOL     OW90818   2.325  12.518  11.163 -0.4422  0.0338  0.2983
26835SOL    HW190819   2.295  12.469  11.240  1.3877 -0.5988  0.6703
26835SOL    HW290820   2.357  12.450  11.104  1.1768  0.6915  0.3801
26836SOL     OW90821   7.573  11.005   3.981  0.9686 -0.4784 -0.2319
26836SOL    HW190822   7.520  11.010   4.061 -1.9099 -0.7062 -1.9821
26836SOL    HW290823   7.634  11.079   3.988 -0.9276  1.0752  1.0635
26837SOL     OW90824   3.669   5.982   5.962  0.1812  0.0480  0.6652
26837SOL    HW190825   3.723   5.904   5.953 -1.2846 -0.9944  0.5171
26837SOL    HW290826   3.731   6.052   5.980  1.5504 -1.1258  0.7102
26838SOL     OW90827   7.595   0.456   1.410  0.0320 -0.4724  0.3271
26838SOL    HW190828   7.613   0.487   1.321  0.7160  1.1092  0.9677
26838SOL    HW290829   7.559   0.368   1.398  0.8096 -0.6017 -1.4651
26839SOL     OW90830   1.272   2.135   1.193  0.1000 -0.2763 -0.3779
26839SOL    HW190831   1.353   2.095   1.225 -0.7457 -0.3445  1.8776
26839SOL    HW290832   1.277   2.226   1.223 -0.7381 -0.3416 -0.0092
26840SOL     OW90833   6.740   9.270   6.923  0.2475 -1.1538  0.2584
26840SOL    HW190834   6.784   9.293   7.005  0.4492 -1.7442  0.3216
26840SOL    HW290835   6.648   9.291   6.938  0.3971 -0.5566  0.3689
26841SOL     OW90836   1.018   8.025   3.219  0.4208 -0.5552  0.8084
26841SOL    HW190837   1.084   7.988   3.161  0.4781  0.6117  0.1061
26841SOL    HW290838   0.941   8.036   3.163  0.1701 -0.2968  1.1998
26842SOL     OW90839  12.798   8.394   2.846 -0.0318  0.3467 -0.1148
26842SOL    HW190840  12.791   8.488   2.867  0.5791  0.1217  1.1937
26842SOL    HW290841  12.722   8.377   2.790  0.4078  1.8377 -1.2387
26843SOL     OW90842   0.726   4.416   4.855 -0.5305 -0.0818  0.6646
26843SOL    HW190843   0.742   4.507   4.879  1.7437 -0.2705  0.0821
26843SOL    HW290844   0.690   4.421   4.766 -1.7523  0.2757  1.1596
26844SOL     OW90845   2.475  11.608   7.456  0.6635 -0.0650  0.0183
26844SOL    HW190846   2.488  11.514   7.443  1.5597  0.3158 -2.1913
26844SOL    HW290847   2.467  11.644   7.368  0.4666  1.9712  0.8106
26845SOL     OW90848   5.565   6.199  10.147 -0.2533 -0.0251 -0.0396
26845SOL    HW190849   5.623   6.193  10.071 -1.5844 -0.5889 -1.0410
26845SOL    HW290850   5.480   6.223  10.111 -0.5592  1.3348  1.4551
26846SOL     OW90851   7.291  10.825   1.031  0.6592 -0.0325  0.2684
26846SOL    HW190852   7.299  10.744   0.981 -0.8258  0.2197 -0.4564
26846SOL    HW290853   7.228  10.878   0.981  0.6945  1.0767  1.3422
26847SOL     OW90854   7.245   1.158   7.042  0.5733  0.4370 -0.3226
26847SOL    HW190855   7.188   1.178   7.116  0.1751  1.5283 -0.9111
26847SOL    HW290856   7.327   1.203   7.062  0.8428 -0.1721 -0.0326
26848SOL     OW90857   5.631   0.392   5.362  0.1457  0.1578 -0.0418
26848SOL    HW190858   5.647   0.399   5.456  1.0799 -0.6759 -0.1266
26848SOL    HW290859   5.643   0.482   5.330 -0.5060  0.5109  0.6677
26849SOL     OW90860   5.233   0.765  10.406  0.3080  0.4198  0.3424
26849SOL    HW190861   5.328   0.782  10.409  0.4884 -0.6335  1.6873
26849SOL    HW290862   5.220   0.720  10.323  1.1563 -0.1798  0.5110
26850SOL     OW90863   4.402   7.920   2.352  0.3712 -0.1790 -0.0573
26850SOL    HW190864   4.473   7.888   2.297  1.1679 -0.5159  1.1406
26850SOL    HW290865   4.348   7.972   2.292  1.6983  0.2110 -0.9672
26851SOL     OW90866   3.176   7.559   6.538  0.2801  0.2692 -0.2008
26851SOL    HW190867   3.209   7.590   6.622 -1.7873 -0.7416  1.0940
26851SOL    HW290868   3.116   7.628   6.509  0.2849  0.2055 -0.3602
26852SOL     OW90869  11.032  10.432   7.481  0.4128 -0.3423  0.2685
26852SOL    HW190870  11.068  10.455   7.567 -0.3093  1.2341  0.1805
26852SOL    HW290871  11.109  10.419   7.426  0.8930  0.6384  0.6743
26853SOL     OW90872  10.694  10.566   9.657 -0.2513 -0.4279 -0.2070
26853SOL    HW190873  10.759  10.635   9.676  1.5256 -1.6092 -1.5970
26853SOL    HW290874  10.691  10.513   9.736 -0.7444  0.5358  0.4443
26854SOL     OW90875   7.810  11.100   9.169 -0.0400 -0.6839  0.0738
26854SOL    HW190876   7.825  11.194   9.183 -0.0601 -0.7486  0.5605
26854SOL    HW290877   7.785  11.093   9.077  0.2764 -0.2492 -0.0525
26855SOL     OW90878  10.561   3.836  11.288  0.3025  0.2717  0.2830
26855SOL    HW190879  10.509   3.770  11.243 -1.1653  0.9379  0.9384
26855SOL    HW290880  10.601   3.887  11.217  1.9674 -1.6181 -0.2443
26856SOL     OW90881   9.922   7.802   7.472 -0.0425  0.2240  0.1514
26856SOL    HW190882   9.891   7.880   7.424  0.5431  0.5095  0.2207
26856SOL    HW290883   9.843   7.751   7.488 -0.5983  1.2959  1.0026
26857SOL     OW90884   9.823   9.459  12.486 -0.0690 -0.3183 -0.2591
26857SOL    HW190885   9.817   9.408  12.566  0.1332 -2.1362 -1.3591
26857SOL    HW290886   9.772   9.411  12.422  0.8789  0.3633 -1.5806
26858SOL     OW90887  12.319   0.056   6.097  0.3171  0.2239 -0.2640
26858SOL    HW190888  12.370   0.133   6.122 -0.0504 -0.2592  2.2425
26858SOL    HW290889  12.240   0.091   6.056 -0.1494  1.2716  1.4272
26859SOL     OW90890   6.172   0.390   2.499  0.0749 -0.2793  0.6609
26859SOL    HW190891   6.077   0.395   2.482  0.1236 -0.1571  0.4170
26859SOL    HW290892   6.190   0.296   2.498  0.1862 -0.2628 -0.6535
26860SOL     OW90893   7.716  12.873   2.090  0.1674 -0.2584  0.0699
26860SOL    HW190894   7.642  12.882   2.150  0.9008 -1.1118  1.1307
26860SOL    HW290895   7.775  12.811   2.133  2.5145  1.9743  0.2874
26861SOL     OW90896   5.184   4.827   7.594  0.0260  0.0030  0.8420
26861SOL    HW190897   5.128   4.834   7.671  0.0638  0.2387  0.8515
26861SOL    HW290898   5.142   4.762   7.539 -0.5663  0.5812  0.5925
26862SOL     OW90899  11.475   3.971   0.183  0.0567  0.5755  0.0121
26862SOL    HW190900  11.385   4.002   0.169 -0.6390 -0.1354  2.5104
26862SOL    HW290901  11.508   4.025   0.255  1.5252  0.5315 -0.5901
26863SOL     OW90902  12.705   0.616   6.552 -0.0477 -0.2996  0.2113
26863SOL    HW190903  12.731   0.557   6.482  0.5676  0.7941 -0.5113
26863SOL    HW290904  12.649   0.681   6.509 -2.1182 -1.2629  1.3048
26864SOL     OW90905   2.227   3.701   5.585  0.5210  0.2121  0.3654
26864SOL    HW190906   2.177   3.769   5.629  0.9265  1.0479 -0.4288
26864SOL    HW290907   2.306   3.689   5.638  0.5116  0.4603  0.4329
26865SOL     OW90908  10.512   5.686   9.727 -0.3684  0.3680 -0.4036
26865SOL    HW190909  10.526   5.607   9.778 -1.8831 -0.1420 -0.7238
26865SOL    HW290910  10.446   5.735   9.776  0.2833  1.2649 -0.3977
26866SOL     OW90911   3.036   8.832   0.046 -0.3079  0.0267 -0.7076
26866SOL    HW190912   3.000   8.920   0.053 -0.7732 -0.2830  1.7951
26866SOL    HW290913   3.079   8.817   0.130  2.5489 -1.0186 -2.1994
26867SOL     OW90914   8.302  10.990   4.271  0.1848 -0.2571 -0.7384
26867SOL    HW190915   8.335  10.969   4.183  1.8049  0.0598 -0.2416
26867SOL    HW290916   8.375  10.970   4.329 -0.3907  0.8011  0.3967
26868SOL     OW90917  12.250  11.983  11.931  0.3227 -0.2423 -0.3251
26868SOL    HW190918  12.269  12.073  11.956  1.2391 -1.0297  2.0992
26868SOL    HW290919  12.161  11.987  11.895  0.0461  1.5214  0.4452
26869SOL     OW90920  12.645   3.692   6.075 -0.5495  0.0589 -0.0879
26869SOL    HW190921  12.712   3.711   6.009 -0.7902 -1.1746 -0.7308
26869SOL    HW290922  12.682   3.722   6.157  1.6897 -2.3698 -0.0776
26870SOL     OW90923   2.363   9.382  11.068  0.2765 -0.1268 -0.2572
26870SOL    HW190924   2.359   9.392  11.163  1.1117 -1.3824 -0.0543
26870SOL    HW290925   2.319   9.459  11.033 -1.0151 -0.1838  1.1593
26871SOL     OW90926  11.540  12.542  10.291  0.2851  0.0298 -0.1951
26871SOL    HW190927  11.458  12.581  10.321 -0.2518 -0.4473 -0.9878
26871SOL    HW290928  11.585  12.515  10.371 -0.7077 -0.4298  0.2248
26872SOL     OW90929   9.990   7.240   7.731  0.3447  0.0361  0.3852
26872SOL    HW190930  10.081   7.226   7.760  0.8840  2.0131 -0.1969
26872SOL    HW290931   9.958   7.312   7.786  0.1975  1.4392 -1.4406
26873SOL     OW90932   2.070   8.138   0.219 -0.2482 -0.3332 -0.1247
26873SOL    HW190933   2.021   8.162   0.298 -0.9787  0.4148 -0.7936
26873SOL    HW290934   2.159   8.121   0.250 -0.6155 -0.4239  0.9154
26874SOL     OW90935   8.760   9.949   9.881 -0.0636  0.1358 -0.0612
26874SOL    HW190936   8.697   9.882   9.907 -1.1768  0.4582 -1.7347
26874SOL    HW290937   8.715  10.032   9.898  0.3254  0.4020 -0.3151
26875SOL     OW90938   9.596   7.756   5.942  0.1625  0.9880  0.4100
26875SOL    HW190939   9.552   7.840   5.956  2.1981  2.2158 -0.0739
26875SOL    HW290940   9.656   7.748   6.017  0.6978  0.4640 -0.0661
26876SOL     OW90941   5.695   7.462   1.791  0.3855 -0.1630  0.1857
26876SOL    HW190942   5.647   7.426   1.866 -0.5539  2.4146  0.9310
26876SOL    HW290943   5.658   7.418   1.715  0.9239 -2.3851  1.1354
26877SOL     OW90944   3.357  10.258  11.087 -0.3037 -0.4895  0.6123
26877SOL    HW190945   3.363  10.338  11.141  2.6721  1.3312 -2.0247
26877SOL    HW290946   3.316  10.194  11.144 -0.2067  2.1022  3.9383
26878SOL     OW90947  12.275   9.040  10.355 -0.4423  0.1049  0.2895
26878SOL    HW190948  12.269   9.064  10.262 -0.8315 -0.2675  0.2120
26878SOL    HW290949  12.294   9.122  10.400  0.0610  0.2334 -0.1523
26879SOL     OW90950   1.659   0.674   6.651  0.0318 -0.3345 -0.2225
26879SOL    HW190951   1.681   0.708   6.737 -1.0762  0.7872 -0.3539
26879SOL    HW290952   1.633   0.583   6.667  2.6939 -1.1052  0.1841
26880SOL     OW90953   0.377   7.790   2.116 -0.5244 -0.0756  0.5173
26880SOL    HW190954   0.469   7.809   2.131 -0.5284  0.2699  0.1374
26880SOL    HW290955   0.338   7.875   2.095 -0.7030 -0.3816 -0.4447
26881SOL     OW90956  11.973   2.109   1.323 -0.3673  0.1172 -0.1260
26881SOL    HW190957  12.011   2.049   1.259 -0.9362  0.6846 -1.0317
26881SOL    HW290958  12.006   2.195   1.297 -1.3897  0.4811 -0.2946
26882SOL     OW90959   9.888   7.196   8.918 -0.0604 -0.0886  0.1540
26882SOL    HW190960   9.965   7.144   8.941 -0.2091  0.1831  1.3058
26882SOL    HW290961   9.816   7.157   8.966 -0.4667  0.2462 -0.1713
26883SOL     OW90962   8.343   3.354   0.931  0.0576  0.1377  0.5574
26883SOL    HW190963   8.436   3.333   0.924  0.0520  0.4865 -0.8100
26883SOL    HW290964   8.298   3.273   0.910  0.0633  0.2999 -0.1199
26884SOL     OW90965  11.378   5.939   1.126 -0.0301  0.0404 -0.4237
26884SOL    HW190966  11.451   6.002   1.120  0.1275 -0.0294  0.6873
26884SOL    HW290967  11.305   5.985   1.085  0.4845  0.3361 -1.0434
26885SOL     OW90968   4.223  10.859   1.461  0.2615 -0.0893 -0.2715
26885SOL    HW190969   4.254  10.874   1.372  0.3470  1.7371  0.0166
26885SOL    HW290970   4.287  10.801   1.501  0.2773 -0.8272 -1.3658
26886SOL     OW90971  12.129   2.168   7.014  0.5437  0.1158 -0.3552
26886SOL    HW190972  12.168   2.117   7.085  0.5405  2.7731  1.7489
26886SOL    HW290973  12.200   2.185   6.954  0.9303 -0.8878 -0.2022
26887SOL     OW90974  12.067   4.424   4.629 -0.0990  0.3227  0.0963
26887SOL    HW190975  12.057   4.340   4.674  0.0832 -0.3995 -1.1585
26887SOL    HW290976  12.110   4.481   4.693 -0.8927 -0.3117  1.2167
26888SOL     OW90977   6.006   4.642   8.962 -0.2956  0.5057 -0.3845
26888SOL    HW190978   5.931   4.587   8.938 -1.3706  1.7402  0.0689
26888SOL    HW290979   6.023   4.694   8.883  0.6463 -0.3427 -0.7702
26889SOL     OW90980   2.435   7.872   0.200  0.5953 -0.3905  0.4203
26889SOL    HW190981   2.449   7.781   0.226 -1.1936 -0.7243  0.3335
26889SOL    HW290982   2.482   7.880   0.116  1.0338 -1.1306  0.5858
26890SOL     OW90983  11.751   7.819   6.230 -0.1635  0.1520 -0.5451
26890SOL    HW190984  11.846   7.805   6.239  0.0311  1.3550 -0.5565
26890SOL    HW290985  11.740   7.913   6.241 -1.1895  0.2372 -1.9843
26891SOL     OW90986  12.445   9.575  10.042  0.1737  0.6432  0.2215
26891SOL    HW190987  12.488   9.621  10.114  3.5733 -0.0595 -1.1594
26891SOL    HW290988  12.444   9.638   9.969 -0.3871  0.3425 -0.0464
26892SOL     OW90989   6.148   8.271   5.461 -0.3156  0.0594  0.2970
26892SOL    HW190990   6.117   8.344   5.407  0.2579  0.3328  0.3338
26892SOL    HW290991   6.139   8.304   5.551  2.0004  0.9396  0.2574
26893SOL     OW90992   6.809   7.532   4.267 -0.3588 -0.2529 -1.0820
26893SOL    HW190993   6.828   7.625   4.278  2.0224 -0.7937 -0.0294
26893SOL    HW290994   6.724   7.530   4.223 -1.6747  2.3539  1.0946
26894SOL     OW90995  12.561   4.642  11.739 -0.6638  0.5907  0.3505
26894SOL    HW190996  12.479   4.670  11.779 -1.2370  0.0338 -0.4063
26894SOL    HW290997  12.581   4.558  11.781 -2.7608 -1.4696 -2.3796
26895SOL     OW90998   4.253   7.619   5.091  0.5419  0.5319  0.1925
26895SOL    HW190999   4.216   7.700   5.057 -0.2340  0.3767  0.6649
26895SOL    HW291000   4.239   7.623   5.186  0.9474  0.0712  0.2779
26896SOL     OW91001   7.549   8.056   4.465  0.9783 -0.2315  0.7448
26896SOL    HW191002   7.613   8.105   4.517 -1.0820  1.7078  1.6845
26896SOL    HW291003   7.498   8.008   4.531 -0.6313  0.9525  0.4144
26897SOL     OW91004   9.262  10.563   6.470 -0.0360 -0.2027  0.6549
26897SOL    HW191005   9.173  10.587   6.495 -0.8983 -1.8461 -0.6668
26897SOL    HW291006   9.314  10.580   6.549 -1.7952 -0.7031  1.9952
26898SOL     OW91007   4.065   3.449  10.389  1.2314 -0.0227  0.5165
26898SOL    HW191008   4.121   3.485  10.320 -0.0464  0.5868 -0.2279
26898SOL    HW291009   4.095   3.493  10.469  0.1243  2.3099 -0.2724
26899SOL     OW91010   1.991  11.945  10.921  0.6428 -0.2838  0.0628
26899SOL    HW191011   1.959  11.921  11.007  1.0465  0.7242  0.5049
26899SOL    HW291012   2.025  11.864  10.885 -0.0865 -0.8421  0.5932
26900SOL     OW91013   1.531   2.634   3.913 -0.3607 -0.3035 -0.0449
26900SOL    HW191014   1.595   2.613   3.980 -1.2543  0.7748  1.2201
26900SOL    HW291015   1.447   2.631   3.958 -1.0543 -0.1174 -1.2625
26901SOL     OW91016   7.269  10.885   7.224  0.2075  0.2120  0.0080
26901SOL    HW191017   7.276  10.795   7.257  0.2106 -0.2944 -1.3145
26901SOL    HW291018   7.199  10.924   7.275  0.6917 -0.3034  1.1025
26902SOL     OW91019  10.235   3.419  12.537  0.2654 -0.1608  0.1553
26902SOL    HW191020  10.153   3.445  12.579 -0.3470 -1.4033 -0.2263
26902SOL    HW291021  10.299   3.484  12.567 -0.4131 -0.2841  1.9943
26903SOL     OW91022   0.017   4.602   6.024 -0.4166 -0.4083 -0.3399
26903SOL    HW191023  -0.053   4.608   5.959  0.3676 -0.8013 -1.2522
26903SOL    HW291024   0.051   4.513   6.013 -0.1770 -0.4277  0.5149
26904SOL     OW91025   2.980   0.317  12.332 -0.2174 -0.0118  0.3593
26904SOL    HW191026   2.986   0.400  12.379  0.3744  0.3429 -0.3221
26904SOL    HW291027   3.048   0.323  12.265 -1.6289 -0.1356 -1.1452
26905SOL     OW91028   8.550   5.631   6.326  0.0960  0.1228  0.2505
26905SOL    HW191029   8.507   5.651   6.409  0.3882  1.7247  0.0481
26905SOL    HW291030   8.561   5.716   6.284  0.1350 -0.6367 -1.3481
26906SOL     OW91031  12.304   7.358   6.653 -0.1257 -0.1762  0.2390
26906SOL    HW191032  12.348   7.359   6.738 -0.5770 -0.2142  0.4814
26906SOL    HW291033  12.220   7.402   6.670 -0.3976 -0.5622 -0.0782
26907SOL     OW91034  11.879   3.295   9.602 -0.6499 -0.0876 -0.5385
26907SOL    HW191035  11.950   3.326   9.659 -2.1198  0.9103  0.8355
26907SOL    HW291036  11.807   3.276   9.662 -1.5555 -1.1066 -1.8929
26908SOL     OW91037   2.689   0.386  11.932  0.2489 -0.1757  0.1236
26908SOL    HW191038   2.714   0.377  12.025  1.5313 -1.5034 -0.3096
26908SOL    HW291039   2.605   0.340  11.925  0.1639 -0.1009  0.6108
26909SOL     OW91040  12.417   0.568   1.117 -0.4250  0.0607  0.1417
26909SOL    HW191041  12.469   0.490   1.133  1.0599  0.8432 -0.5948
26909SOL    HW291042  12.430   0.623   1.194  0.7367  0.6906 -0.4663
26910SOL     OW91043   4.806   6.584   2.665  0.2746  0.5949  0.2274
26910SOL    HW191044   4.865   6.646   2.622  0.9463 -0.4786 -0.4444
26910SOL    HW291045   4.719   6.619   2.648  0.5939  0.8793 -0.9419
26911SOL     OW91046   8.421   2.437   6.332 -0.0806  0.1463  0.0806
26911SOL    HW191047   8.469   2.355   6.342  0.1865 -0.0362 -2.1344
26911SOL    HW291048   8.330   2.413   6.349  0.4177  0.5065  4.3627
26912SOL     OW91049   2.633   9.956   1.778  0.4348  0.0430  0.7432
26912SOL    HW191050   2.610   9.863   1.771 -0.4333  0.2689  0.4438
26912SOL    HW291051   2.631   9.988   1.687  1.1354  0.2709  0.7990
26913SOL     OW91052  12.707   4.150   1.061 -0.2156  0.1628  0.4288
26913SOL    HW191053  12.619   4.114   1.052 -0.8125  1.3131  1.3412
26913SOL    HW291054  12.699   4.241   1.033  0.5796  0.3975  0.9160
26914SOL     OW91055   9.454   0.961   2.844  0.3164 -0.3406  0.0333
26914SOL    HW191056   9.429   0.956   2.751 -0.7101 -2.9462  0.3665
26914SOL    HW291057   9.495   0.877   2.862  1.5358  0.5649  1.7046
26915SOL     OW91058   0.936   3.789  12.037 -0.1324 -0.0427  0.2511
26915SOL    HW191059   0.973   3.862  11.987 -1.6539 -0.8432 -2.2212
26915SOL    HW291060   0.944   3.713  11.979 -0.6049 -1.4064  1.8650
26916SOL     OW91061   2.713   2.944   6.892  0.3471 -0.2488  0.3975
26916SOL    HW191062   2.710   2.864   6.838  3.1034 -0.1992  0.0411
26916SOL    HW291063   2.782   2.927   6.956  0.8746  1.7864  0.4257
26917SOL     OW91064   3.404   7.694   7.115  0.7091 -0.0027 -0.0056
26917SOL    HW191065   3.414   7.649   7.200  2.8655 -0.4970 -0.4830
26917SOL    HW291066   3.425   7.785   7.133  0.8983 -0.0559  0.0431
26918SOL     OW91067   0.047   0.877   6.093  0.1394 -0.5065 -0.2605
26918SOL    HW191068   0.008   0.875   6.006  2.7658  0.8074 -1.5570
26918SOL    HW291069   0.121   0.817   6.089 -0.3920 -1.3827  1.5099
26919SOL     OW91070   3.945   5.542  11.062  0.1347  0.2524  0.2989
26919SOL    HW191071   3.881   5.500  11.004  0.3241  0.2703  0.0768
26919SOL    HW291072   3.906   5.535  11.149  0.5726 -1.2171  0.4124
26920SOL     OW91073  10.600   5.168   5.061 -0.3266  0.4673  0.2580
26920SOL    HW191074  10.611   5.136   5.150  1.3853 -1.7901 -0.6609
26920SOL    HW291075  10.509   5.151   5.039 -0.5068  0.1401  1.2347
26921SOL     OW91076  10.824   6.592   1.866 -0.4954 -0.0902 -0.2233
26921SOL    HW191077  10.860   6.581   1.954 -1.5105  1.3127  0.4088
26921SOL    HW291078  10.899   6.620   1.813  0.0825 -0.7467  0.2347
26922SOL     OW91079  11.083   5.493  11.791  0.1076  0.4327 -0.3414
26922SOL    HW191080  11.074   5.587  11.803 -0.9697  0.4448 -1.1032
26922SOL    HW291081  11.014   5.456  11.847 -1.5355  0.2639 -2.3738
26923SOL     OW91082  10.402   0.016   9.717 -0.0870 -0.5121  0.0700
26923SOL    HW191083  10.459   0.085   9.752  1.2740 -1.5623 -0.0004
26923SOL    HW291084  10.357  -0.019   9.794 -1.0115  0.6279  0.0675
26924SOL     OW91085   7.716   5.279   7.854  0.0670 -0.1358 -0.4836
26924SOL    HW191086   7.737   5.187   7.868  0.4457  0.0685  0.4198
26924SOL    HW291087   7.626   5.280   7.821  0.6148 -0.9059 -2.0837
26925SOL     OW91088  10.794   7.939   8.144 -0.1212 -0.0151  0.5023
26925SOL    HW191089  10.841   7.919   8.225 -0.9716 -2.5756  0.4263
26925SOL    HW291090  10.743   7.861   8.125 -2.1178  1.5514 -1.0505
26926SOL     OW91091   7.795   8.251   1.558  0.7866 -0.0589  0.7169
26926SOL    HW191092   7.718   8.212   1.517  1.3005  0.3635 -0.7195
26926SOL    HW291093   7.869   8.204   1.520  1.3338  1.1677  0.1775
26927SOL     OW91094   1.468   6.639   6.366  0.3335  0.0445  0.1816
26927SOL    HW191095   1.489   6.639   6.272  0.3423  3.1179  0.1089
26927SOL    HW291096   1.373   6.647   6.369  0.0414 -2.6005  0.5274
26928SOL     OW91097  10.953  12.303   4.207  0.5102  0.1383 -0.5013
26928SOL    HW191098  10.879  12.311   4.146 -0.2873 -2.2960  0.0299
26928SOL    HW291099  10.970  12.393   4.236 -2.7553  0.7452 -0.0732
26929SOL     OW91100   8.411   2.253   0.956 -0.1353  0.0193  0.6689
26929SOL    HW191101   8.435   2.163   0.980 -1.9759 -0.8420 -0.4120
26929SOL    HW291102   8.350   2.280   1.024 -0.4468  0.0045  0.4000
26930SOL     OW91103   6.539   5.290   4.151  0.3525  0.0728  0.5532
26930SOL    HW191104   6.631   5.264   4.153  0.5853  0.8749  0.7121
26930SOL    HW291105   6.496   5.230   4.212  1.0456  0.6873  1.6831
26931SOL     OW91106  12.635  12.770   0.713 -0.3142  0.2684 -0.3559
26931SOL    HW191107  12.686  12.792   0.635  2.4123  0.5477  1.3549
26931SOL    HW291108  12.586  12.691   0.689  2.6189 -1.3522 -1.5193
26932SOL     OW91109   5.871  10.593  11.028 -0.1819  0.0161  0.3550
26932SOL    HW191110   5.810  10.662  11.004 -0.6583 -0.2448  0.7902
26932SOL    HW291111   5.956  10.624  10.998 -0.7968 -0.5159 -2.1606
26933SOL     OW91112  10.080   1.685   9.192 -0.1225 -0.3451  0.0628
26933SOL    HW191113  10.082   1.631   9.113  0.4661  1.2501 -1.0793
26933SOL    HW291114  10.128   1.764   9.168 -1.1708  0.8131  1.5604
26934SOL     OW91115   4.514   5.647   2.873  0.2428 -0.0874 -0.5626
26934SOL    HW191116   4.488   5.681   2.959  1.4672  0.5044 -0.4050
26934SOL    HW291117   4.448   5.681   2.813 -0.4703 -0.2795  0.0858
26935SOL     OW91118  12.807  12.378  12.841  0.3751  0.2220 -0.1859
26935SOL    HW191119  12.768  12.352  12.925  0.7371  0.6991  0.1360
26935SOL    HW291120  12.847  12.463  12.859  2.8109 -0.8608 -0.1072
26936SOL     OW91121   7.172  10.479   6.154  0.4845 -0.3413  0.4392
26936SOL    HW191122   7.248  10.507   6.103 -0.7224  1.3215 -0.5292
26936SOL    HW291123   7.098  10.487   6.094 -0.6584 -0.6478  1.7498
26937SOL     OW91124  10.301  10.882   6.252 -0.1840  0.6708  0.3035
26937SOL    HW191125  10.270  10.851   6.168  1.1494  0.2782 -0.0677
26937SOL    HW291126  10.304  10.804   6.308  0.3167  0.6687  0.2752
26938SOL     OW91127   0.510  11.738   7.995  0.2265 -0.0737  0.1375
26938SOL    HW191128   0.428  11.783   7.972  0.1834  0.1330  0.6848
26938SOL    HW291129   0.578  11.790   7.953 -0.0050 -1.0784 -1.5798
26939SOL     OW91130   3.091   7.588   4.936 -0.4871 -0.1940 -0.2613
26939SOL    HW191131   3.099   7.499   4.902  0.5267 -0.7072  1.1932
26939SOL    HW291132   3.176   7.605   4.978 -1.3408  0.6803  1.2040
26940SOL     OW91133   2.284   8.622   9.005 -0.4143  0.0373  0.1548
26940SOL    HW191134   2.240   8.704   8.986 -0.7662 -0.3002 -0.5226
26940SOL    HW291135   2.217   8.555   8.990 -0.1833 -0.3606  0.8644
26941SOL     OW91136   3.165  12.805   7.857 -0.0493  0.4791  0.7280
26941SOL    HW191137   3.245  12.772   7.899  1.9608  1.6792 -1.8627
26941SOL    HW291138   3.142  12.882   7.909  1.1947  0.7819  0.8761
26942SOL     OW91139   9.034   4.208   6.156 -0.0872 -0.2003 -0.2341
26942SOL    HW191140   9.021   4.170   6.243 -0.0436  1.1158  0.3675
26942SOL    HW291141   9.122   4.182   6.131  0.6373  0.9869  0.9645
26943SOL     OW91142   8.002   1.799   3.296 -0.1121 -0.4395  0.0571
26943SOL    HW191143   7.973   1.890   3.303 -1.7594 -0.9251  0.0960
26943SOL    HW291144   8.044   1.793   3.210 -0.6708  0.1930 -0.2704
26944SOL     OW91145  11.822   9.162   0.172 -0.6980 -0.2866 -0.2264
26944SOL    HW191146  11.788   9.189   0.258 -2.3645  0.0254 -0.9445
26944SOL    HW291147  11.881   9.089   0.191 -1.3635 -0.4954  1.1524
26945SOL     OW91148   8.422   0.232   7.437 -0.4503  0.4243  0.0944
26945SOL    HW191149   8.379   0.272   7.512 -1.1347  0.7902 -0.4774
26945SOL    HW291150   8.404   0.138   7.447 -0.1754  0.4262  0.6094
26946SOL     OW91151  12.664   3.960  11.475 -0.0067 -0.4579  0.1773
26946SOL    HW191152  12.696   3.980  11.563 -2.4336 -0.3908  1.1038
26946SOL    HW291153  12.573   3.933  11.488 -1.1190  1.5762 -2.5073
26947SOL     OW91154   3.797   1.669   7.437  0.0038 -0.0864 -0.3436
26947SOL    HW191155   3.704   1.646   7.428  0.4093 -1.6981 -0.6680
26947SOL    HW291156   3.838   1.591   7.473  1.3170  0.4564 -0.6097
26948SOL     OW91157   6.171  10.283   4.697 -0.1073 -0.0863 -0.6253
26948SOL    HW191158   6.208  10.331   4.771 -0.8569 -0.3467 -0.0743
26948SOL    HW291159   6.099  10.232   4.735 -1.2442  0.6527 -1.7314
26949SOL     OW91160   3.449   4.473  11.316 -0.3650  0.3670 -0.6329
26949SOL    HW191161   3.429   4.386  11.281 -1.9693  0.4993 -0.1029
26949SOL    HW291162   3.415   4.533  11.251 -1.2531  0.5977  0.0290
26950SOL     OW91163   1.346   3.147  10.480  0.1717  0.1642 -0.3012
26950SOL    HW191164   1.295   3.153  10.561  0.0880  0.6678 -0.3938
26950SOL    HW291165   1.287   3.101  10.419 -0.1159  0.6128 -0.3620
26951SOL     OW91166   7.264  12.660   0.624  0.0331 -0.9178  0.2298
26951SOL    HW191167   7.179  12.625   0.598  0.2256 -0.3061 -1.3553
26951SOL    HW291168   7.307  12.683   0.541  1.4015 -0.4302  1.0365
26952SOL     OW91169   1.001   9.624   3.805  0.0432 -0.0618  0.0886
26952SOL    HW191170   1.010   9.719   3.807 -3.0497  0.3863 -1.6253
26952SOL    HW291171   1.046   9.598   3.724  1.0425 -0.1511  0.6456
26953SOL     OW91172  11.707  11.466   3.810 -0.0127  0.2696 -0.1686
26953SOL    HW191173  11.663  11.417   3.880  1.1896 -0.2020  0.2831
26953SOL    HW291174  11.661  11.550   3.808 -1.9570 -0.7363 -0.7768
26954SOL     OW91175  12.682   6.801   3.668  0.2073 -0.5371 -0.5891
26954SOL    HW191176  12.672   6.718   3.622 -0.1892 -0.5736 -0.4419
26954SOL    HW291177  12.670   6.779   3.761  1.8450 -0.6147 -0.3661
26955SOL     OW91178   5.360   0.269  12.629  0.3726 -0.2602 -0.3050
26955SOL    HW191179   5.289   0.325  12.597 -1.4415 -1.1516  1.9188
26955SOL    HW291180   5.331   0.180  12.608  0.1838 -0.7116  1.7076
26956SOL     OW91181   0.245   4.212   7.241  0.3541 -0.2973 -0.5389
26956SOL    HW191182   0.151   4.224   7.235 -0.1250 -2.6119  0.8600
26956SOL    HW291183   0.275   4.283   7.298 -1.0673 -1.1463  1.4083
26957SOL     OW91184   3.099   0.072   4.765 -0.8181 -0.0372 -0.2230
26957SOL    HW191185   3.189   0.040   4.765 -0.0491  1.9759  0.6189
26957SOL    HW291186   3.056   0.024   4.835 -0.5890 -1.4058 -0.9832
26958SOL     OW91187  12.084   2.330   4.732  0.5277  0.5182 -0.2850
26958SOL    HW191188  12.133   2.352   4.653  0.5764 -2.4377 -1.2257
26958SOL    HW291189  12.127   2.251   4.765 -1.4297 -0.1396  0.8606
26959SOL     OW91190   1.217  10.038   5.436 -0.3306  0.6267 -0.0251
26959SOL    HW191191   1.193  10.060   5.526 -1.0826  3.4470 -0.8034
26959SOL    HW291192   1.154   9.971   5.410 -1.2037  1.0085  1.0406
26960SOL     OW91193  12.533   0.917   7.198  0.1069 -0.3205 -0.0336
26960SOL    HW191194  12.541   0.840   7.255  0.8277 -0.3228 -0.1210
26960SOL    HW291195  12.477   0.977   7.246  3.1083  0.9894  2.2019
26961SOL     OW91196   0.651   8.379  11.765 -0.0307 -0.4858  0.0369
26961SOL    HW191197   0.727   8.346  11.812 -0.8920 -0.8091  1.2737
26961SOL    HW291198   0.686   8.415  11.684  1.3040 -1.5298  0.1183
26962SOL     OW91199   4.071   9.389   4.124 -0.0860 -0.0491 -0.0946
26962SOL    HW191200   3.977   9.395   4.144 -0.2096 -0.9373 -0.3549
26962SOL    HW291201   4.074   9.340   4.041  0.5688  0.7750 -0.5741
26963SOL     OW91202   2.733   2.196   4.576 -0.2831 -0.1435  0.6546
26963SOL    HW191203   2.703   2.221   4.489 -0.2611 -0.4187  0.5689
26963SOL    HW291204   2.801   2.131   4.561  0.7161  0.8340  0.8290
26964SOL     OW91205   5.983  12.328   3.690 -0.6108 -0.4660 -0.4188
26964SOL    HW191206   6.046  12.345   3.620  0.1832  0.0374  0.3893
26964SOL    HW291207   6.019  12.374   3.766 -0.9860 -1.7090  0.5530
26965SOL     OW91208  11.967  12.407  10.240 -0.4641  0.7591  0.4626
26965SOL    HW191209  12.008  12.322  10.258  1.2850  1.3016 -0.7939
26965SOL    HW291210  12.026  12.451  10.179 -1.2896  2.9277  1.1223
26966SOL     OW91211   1.449  12.524  10.546  0.0742 -0.1373 -0.4497
26966SOL    HW191212   1.512  12.493  10.481 -0.7282 -1.5625 -0.5925
26966SOL    HW291213   1.475  12.479  10.627  1.2936  1.9039  0.3541
26967SOL     OW91214   8.614   2.320   4.570 -0.7095 -0.3998  0.6318
26967SOL    HW191215   8.579   2.239   4.532  0.3191 -0.3737 -0.4528
26967SOL    HW291216   8.635   2.297   4.660 -2.7622 -0.6107  1.1004
26968SOL     OW91217   5.072   4.497   8.926  0.0413  0.7653  0.2743
26968SOL    HW191218   5.052   4.581   8.967 -0.7732  0.1100  1.2746
26968SOL    HW291219   5.108   4.444   8.997 -1.3375 -0.3759  0.1511
26969SOL     OW91220  12.180   4.327   3.171 -0.1898 -0.4084 -0.1395
26969SOL    HW191221  12.170   4.317   3.076 -1.1840  1.1577 -0.2326
26969SOL    HW291222  12.099   4.370   3.199  1.0618  1.3206  1.0542
26970SOL     OW91223  11.501   6.869  10.209  0.1868  0.4281 -0.1399
26970SOL    HW191224  11.446   6.843  10.135 -0.1996  1.7863 -0.3684
26970SOL    HW291225  11.556   6.793  10.227 -2.0051 -1.1168  0.3441
26971SOL     OW91226  12.367   0.914   8.748  0.7524  0.2283 -0.2856
26971SOL    HW191227  12.334   0.848   8.809  0.0045 -1.0296 -1.9732
26971SOL    HW291228  12.321   0.995   8.772 -1.4514 -0.8170 -0.7414
26972SOL     OW91229  10.785  11.129  12.903  0.0762  0.3047 -0.2998
26972SOL    HW191230  10.783  11.194  12.833 -0.2366  0.8353  0.1806
26972SOL    HW291231  10.868  11.144  12.948 -0.1938  0.6825  0.0845
26973SOL     OW91232   3.589   7.125   3.354 -0.4404 -0.2469 -0.7226
26973SOL    HW191233   3.635   7.160   3.278 -1.9635  0.6100 -1.2862
26973SOL    HW291234   3.651   7.063   3.393  0.2306 -1.0077 -2.8689
26974SOL     OW91235  10.221   2.714   6.613 -0.0625 -0.0993  0.3537
26974SOL    HW191236  10.227   2.667   6.696  0.3091 -2.0621 -0.7327
26974SOL    HW291237  10.308   2.753   6.601 -0.0230 -0.0686  0.7145
26975SOL     OW91238   0.787  11.078  11.126 -0.1822 -0.0322 -0.0581
26975SOL    HW191239   0.829  11.045  11.046  0.1790 -0.3343  0.2551
26975SOL    HW291240   0.817  11.019  11.195 -1.7341 -0.7242  0.0630
26976SOL     OW91241   9.852   8.562  12.928 -0.9507  0.4647  0.6268
26976SOL    HW191242   9.832   8.494  12.992  0.9880  0.5865  1.4313
26976SOL    HW291243   9.844   8.517  12.843  0.0016 -0.7217  1.1282
26977SOL     OW91244   0.072  12.924  11.503  0.0631 -0.3703 -0.3006
26977SOL    HW191245   0.152  12.870  11.509  1.1862  0.7804 -3.0467
26977SOL    HW291246   0.011  12.870  11.454 -0.4988 -0.8287  0.8672
26978SOL     OW91247   1.691   9.710   7.839 -0.3625 -0.6670 -0.1352
26978SOL    HW191248   1.706   9.785   7.782  1.3464 -0.6619  0.2478
26978SOL    HW291249   1.777   9.668   7.845 -0.3719 -0.5014  2.6125
26979SOL     OW91250   2.722   3.633  11.175  0.3335  0.3508 -0.2339
26979SOL    HW191251   2.697   3.725  11.176 -0.6294  0.1375 -1.8338
26979SOL    HW291252   2.663   3.592  11.112 -0.4933 -1.7345  1.7480
26980SOL     OW91253   7.927  12.040   4.686  0.1181  0.3769  0.1517
26980SOL    HW191254   7.861  12.041   4.616 -0.0870 -0.4116  0.3191
26980SOL    HW291255   7.891  11.978   4.750  1.0978 -0.1857  0.1707
26981SOL     OW91256   7.650   9.627   8.644  0.2795 -0.5435  0.9721
26981SOL    HW191257   7.715   9.690   8.614  0.3591 -0.5945  1.0378
26981SOL    HW291258   7.663   9.550   8.589  1.6956 -1.3583  2.3540
26982SOL     OW91259   6.410   9.307   6.415  0.1237 -0.0286 -0.5179
26982SOL    HW191260   6.475   9.335   6.480 -0.7855 -2.1406  1.4433
26982SOL    HW291261   6.456   9.241   6.362  0.1323 -0.1286 -0.3856
26983SOL     OW91262  12.679   1.924   6.571 -0.2940 -0.6172 -0.4418
26983SOL    HW191263  12.610   1.985   6.596 -0.7538 -1.0490 -0.6634
26983SOL    HW291264  12.717   1.895   6.654 -1.0998 -1.2191 -0.2762
26984SOL     OW91265  11.662  12.076   1.118 -0.1844 -0.3658 -0.0827
26984SOL    HW191266  11.576  12.110   1.094 -0.8550 -1.1571  1.1067
26984SOL    HW291267  11.647  11.983   1.136 -0.1341  0.3127  4.6269
26985SOL     OW91268  11.667  11.994  10.813 -0.8520 -0.5446 -0.0622
26985SOL    HW191269  11.676  11.910  10.769 -1.4817 -1.0718  0.7935
26985SOL    HW291270  11.634  11.973  10.900 -1.8102  0.6398 -0.1047
26986SOL     OW91271   6.070   4.678   5.351  0.1363  0.0385  0.1871
26986SOL    HW191272   6.158   4.663   5.387 -0.1368 -0.2368  0.7675
26986SOL    HW291273   6.068   4.771   5.331  1.1356 -0.2457 -1.4454
26987SOL     OW91274  10.466   4.811   1.748  0.0385 -0.4350 -0.3425
26987SOL    HW191275  10.540   4.754   1.727  0.3346 -0.1569 -0.0644
26987SOL    HW291276  10.430   4.775   1.829  0.1920 -0.2561 -0.1957
26988SOL     OW91277  11.283   7.418   8.025 -0.3419 -0.2424 -0.0091
26988SOL    HW191278  11.199   7.428   8.069 -0.2257  1.1678 -0.0672
26988SOL    HW291279  11.279   7.478   7.951  0.5934 -0.4061 -0.2135
26989SOL     OW91280   9.043   0.814   3.079  0.4709  0.0582  0.4688
26989SOL    HW191281   8.962   0.859   3.103  1.4347  0.7164  2.7535
26989SOL    HW291282   9.107   0.885   3.069  1.2269 -0.5696  0.7383
26990SOL     OW91283   0.043  10.936   9.920  0.1456 -0.2454  0.7104
26990SOL    HW191284  -0.031  10.929   9.860  0.7576  0.0952 -0.0996
26990SOL    HW291285   0.120  10.921   9.865  0.7380  0.3449  1.3637
26991SOL     OW91286  10.914  12.563  11.036 -0.1585 -0.7189  0.4733
26991SOL    HW191287  10.884  12.647  11.071  1.1906  0.5228 -1.1981
26991SOL    HW291288  11.004  12.556  11.065 -0.2107 -1.5307  0.4655
26992SOL     OW91289  12.366  12.835   6.619  0.2372 -0.3474 -0.5537
26992SOL    HW191290  12.396  12.778   6.691  2.0400 -0.8174 -1.6047
26992SOL    HW291291  12.274  12.812   6.607 -0.6146  0.9042  2.6263
26993SOL     OW91292  10.918   1.048   2.458  0.7705  0.3741  0.4108
26993SOL    HW191293  10.997   0.997   2.442  0.5580 -0.2086  1.1765
26993SOL    HW291294  10.857   0.987   2.499  0.5944  1.2877  1.5724
26994SOL     OW91295   9.557   2.921   5.749 -0.2914 -0.0061 -0.2970
26994SOL    HW191296   9.574   2.848   5.809 -0.1478  0.0148 -0.3113
26994SOL    HW291297   9.473   2.957   5.778  0.1572  0.5127  0.4025
26995SOL     OW91298  10.692   1.366   4.846 -0.3126 -0.5493 -0.5958
26995SOL    HW191299  10.732   1.282   4.867 -0.7357 -0.5949  0.0599
26995SOL    HW291300  10.599   1.354   4.865 -0.3971  0.0217 -0.6206
26996SOL     OW91301   0.932   2.885  10.761 -0.8020  0.4539 -0.0894
26996SOL    HW191302   0.902   2.826  10.831 -1.6511 -0.2724 -1.0287
26996SOL    HW291303   0.862   2.949  10.752 -1.5199 -0.4642 -1.3987
26997SOL     OW91304   4.117   2.438   5.094  0.0132 -0.5482  0.1925
26997SOL    HW191305   4.183   2.372   5.114  0.9735 -0.9512 -3.6138
26997SOL    HW291306   4.167   2.518   5.077 -0.6797 -0.2112 -0.3147
26998SOL     OW91307   8.510   8.352   1.072  0.0715  0.3616 -0.9491
26998SOL    HW191308   8.592   8.305   1.086  0.5204  0.9927 -1.4055
26998SOL    HW291309   8.531   8.416   1.004 -0.8103  0.5074 -1.0899
26999SOL     OW91310   4.909  10.947   8.878 -0.2683 -0.2664 -0.1709
26999SOL    HW191311   4.904  10.917   8.968  0.6292 -2.7373 -0.8662
26999SOL    HW291312   5.003  10.951   8.859 -0.4346  0.6096 -0.8935
27000SOL     OW91313   3.144  10.856   9.109 -0.3079  0.8881  0.1528
27000SOL    HW191314   3.174  10.942   9.080 -2.4331  1.5264 -0.2919
27000SOL    HW291315   3.098  10.873   9.191 -1.5297  0.3364 -0.3959
27001SOL     OW91316   0.679   9.062   1.085  0.1453  0.4107 -0.0311
27001SOL    HW191317   0.600   9.009   1.091  0.5971 -0.6830 -2.4381
27001SOL    HW291318   0.718   9.056   1.172 -2.8637  1.8610  1.5628
27002SOL     OW91319   5.538   7.935   6.238  0.2789 -0.4844 -0.3724
27002SOL    HW191320   5.487   7.863   6.276  1.3546 -0.8578  0.4444
27002SOL    HW291321   5.626   7.897   6.225  0.3610  0.1324 -1.7370
27003SOL     OW91322   4.324   4.983   0.807  0.0754  0.0309 -0.0482
27003SOL    HW191323   4.355   5.051   0.866 -1.3297 -0.2923  1.1186
27003SOL    HW291324   4.338   5.019   0.720  0.3437  1.3570  0.5142
27004SOL     OW91325   4.612   1.170  11.369 -0.1731 -0.2595  0.6706
27004SOL    HW191326   4.568   1.196  11.288 -0.4387  0.4264  1.0273
27004SOL    HW291327   4.667   1.095  11.344 -0.1598  0.0224 -0.1664
27005SOL     OW91328  11.744   5.725  10.148  0.2787 -0.2773  0.6666
27005SOL    HW191329  11.778   5.741  10.235  2.2312  1.9309 -0.3992
27005SOL    HW291330  11.807   5.663  10.109  0.6103  0.3661  0.1597
27006SOL     OW91331   1.538   7.182   3.423 -0.3234  0.3969 -0.3650
27006SOL    HW191332   1.446   7.187   3.451 -0.5335  0.0717 -0.9794
27006SOL    HW291333   1.556   7.089   3.418  0.6357  0.4202  1.6101
27007SOL     OW91334   8.928   8.435   0.211  0.4763  0.2307  0.8050
27007SOL    HW191335   8.983   8.356   0.214 -1.4232 -1.2856 -1.2172
27007SOL    HW291336   8.971   8.490   0.145  0.2782 -0.4119  0.1190
27008SOL     OW91337  10.292  10.176   5.524 -0.4210  0.2385  0.0634
27008SOL    HW191338  10.285  10.155   5.617  1.2922  1.9786  0.6602
27008SOL    HW291339  10.214  10.229   5.506 -0.8475 -0.2416  0.4509
27009SOL     OW91340   7.852   5.821   2.575 -0.2702 -0.0643  0.3338
27009SOL    HW191341   7.763   5.825   2.611 -0.5497 -1.4843 -0.1012
27009SOL    HW291342   7.842   5.849   2.484 -0.0938  0.6808  0.5384
27010SOL     OW91343   1.540   9.660   2.585 -0.0369 -0.1306 -0.3398
27010SOL    HW191344   1.509   9.746   2.615 -0.9462  0.2663 -2.2669
27010SOL    HW291345   1.479   9.598   2.624 -0.5713  0.2689 -0.5296
27011SOL     OW91346   7.091   7.223  12.493  0.4918  0.0894  0.2621
27011SOL    HW191347   7.148   7.299  12.504  0.2795  0.2760  0.0823
27011SOL    HW291348   7.025   7.251  12.428  1.5996 -0.9166 -1.3718
27012SOL     OW91349   8.589   0.900  11.488 -0.2761  0.2954  0.2057
27012SOL    HW191350   8.551   0.988  11.489  0.8883  0.8370  2.0427
27012SOL    HW291351   8.572   0.865  11.575  0.4553 -0.7856 -0.0598
27013SOL     OW91352   5.636  10.428  11.950  0.3190 -0.1063 -0.3234
27013SOL    HW191353   5.598  10.495  12.007  0.8774 -0.1367  0.0886
27013SOL    HW291354   5.565  10.404  11.891 -0.1522  0.1952  0.1178
27014SOL     OW91355   3.665  10.006   7.454 -0.1397 -0.4905 -0.4770
27014SOL    HW191356   3.610  10.084   7.467  0.2338  0.1263 -2.3692
27014SOL    HW291357   3.604   9.933   7.455 -0.3913 -0.3501  2.3524
27015SOL     OW91358  12.720   4.657   1.306 -0.1906 -0.4927  0.4061
27015SOL    HW191359  12.790   4.592   1.301  0.9696  0.6410  1.3392
27015SOL    HW291360  12.720   4.699   1.220  0.5160 -0.2691  0.5109
27016SOL     OW91361   2.524   5.382  11.189  0.0634 -0.0938 -0.6100
27016SOL    HW191362   2.570   5.335  11.259  0.4119 -1.0311 -1.4593
27016SOL    HW291363   2.438   5.401  11.227 -0.2311 -1.7683 -0.3656
27017SOL     OW91364   9.926   8.566   9.241  0.1806  0.1935  0.2614
27017SOL    HW191365   9.921   8.583   9.335  1.2951 -1.1999  0.6113
27017SOL    HW291366   9.840   8.531   9.219 -0.4812  1.5874  0.4942
27018SOL     OW91367   4.064   5.255   1.777  0.1301  0.2733  0.2130
27018SOL    HW191368   4.068   5.334   1.831  3.5624  1.5629 -1.5955
27018SOL    HW291369   3.989   5.269   1.718  1.8867  3.4269 -1.5522
27019SOL     OW91370  11.794   3.154   7.405 -0.2865  0.2454 -0.2331
27019SOL    HW191371  11.830   3.067   7.384 -0.7024  0.3020 -1.2528
27019SOL    HW291372  11.818   3.168   7.497 -1.8275 -1.7505  0.5444
27020SOL     OW91373   4.315   0.119   1.784 -0.6618 -0.0018  0.3410
27020SOL    HW191374   4.340   0.210   1.798  1.5187 -0.3686 -0.7344
27020SOL    HW291375   4.346   0.073   1.861  2.9166 -0.5452 -1.2092
27021SOL     OW91376   6.422  11.525   6.386  0.0229 -0.1268 -0.3425
27021SOL    HW191377   6.499  11.492   6.339 -0.5083 -1.5617 -0.2481
27021SOL    HW291378   6.457  11.562   6.466  0.7285  0.3578 -0.8603
27022SOL     OW91379   7.943  10.865   1.026  0.4920 -1.0063 -0.2698
27022SOL    HW191380   7.903  10.781   1.047 -0.5279 -0.5366 -0.2947
27022SOL    HW291381   7.900  10.928   1.084 -0.7928 -0.0456 -2.1650
27023SOL     OW91382   6.219   1.808   1.868  0.3160 -0.1701 -0.7585
27023SOL    HW191383   6.150   1.873   1.856 -0.4862 -0.9201 -0.2636
27023SOL    HW291384   6.294   1.859   1.900  0.4715  0.8734 -2.6294
27024SOL     OW91385   1.687   2.725   5.940 -0.3292 -0.2120  0.0710
27024SOL    HW191386   1.673   2.686   6.027 -0.2213  0.5826  0.4557
27024SOL    HW291387   1.694   2.650   5.881 -0.4670 -0.7638  0.7378
27025SOL     OW91388   3.977  12.195   2.598 -0.1916  0.2607  0.7873
27025SOL    HW191389   3.953  12.110   2.561 -1.0938 -0.2015  2.3301
27025SOL    HW291390   4.056  12.178   2.648  1.9731  1.2144 -2.0566
27026SOL     OW91391   6.585   8.976   9.651 -0.8105 -0.1966  0.9353
27026SOL    HW191392   6.648   9.018   9.710 -0.8556 -0.1258  0.9315
27026SOL    HW291393   6.637   8.910   9.604 -0.1903  1.4456 -0.8088
27027SOL     OW91394   2.471   6.900   4.722  0.2351 -0.4362 -0.7700
27027SOL    HW191395   2.409   6.939   4.661 -2.0050 -0.0988  1.5387
27027SOL    HW291396   2.453   6.806   4.719 -1.4747 -0.2230  0.8683
27028SOL     OW91397   0.702   4.027   4.519 -0.3572 -0.1302  0.0329
27028SOL    HW191398   0.797   4.031   4.526 -0.4280 -0.0974  1.4834
27028SOL    HW291399   0.685   4.006   4.428  1.0702 -0.8657 -0.1009
27029SOL     OW91400   8.700   5.202  10.501  0.6137 -0.1277 -0.3459
27029SOL    HW191401   8.666   5.114  10.486  0.6064 -0.1095 -0.4382
27029SOL    HW291402   8.709   5.209  10.596 -0.5245  0.2031 -0.2516
27030SOL     OW91403   3.810   2.673   0.604  0.2067  0.4388  0.0525
27030SOL    HW191404   3.769   2.609   0.547 -0.0750 -0.7363  1.5066
27030SOL    HW291405   3.801   2.756   0.558 -1.1776 -0.2548 -0.9865
27031SOL     OW91406  10.890   6.369   1.317  0.2553  0.0359  0.0006
27031SOL    HW191407  10.904   6.462   1.303 -0.5379  0.0995 -0.4294
27031SOL    HW291408  10.913   6.329   1.232  0.1689 -0.1154  0.0492
27032SOL     OW91409   3.394   8.703  10.234  0.3266 -1.0095  0.0512
27032SOL    HW191410   3.302   8.703  10.210 -0.0205 -1.1010  1.3501
27032SOL    HW291411   3.432   8.629  10.185 -0.3282 -1.1169 -0.2999
27033SOL     OW91412  10.984   9.542  12.156  0.4864  0.2373 -0.9070
27033SOL    HW191413  11.064   9.580  12.194 -0.4374  0.5242  0.8549
27033SOL    HW291414  10.920   9.546  12.227 -0.9811 -0.3882 -2.1517
27034SOL     OW91415   3.943   6.784   7.018  0.6309 -0.3079 -0.3125
27034SOL    HW191416   3.992   6.863   7.038  0.2124 -0.4325  1.3486
27034SOL    HW291417   3.985   6.748   6.940  0.5334  1.7676 -1.3782
27035SOL     OW91418   7.761   2.130  11.537  0.1106 -0.4499  0.2975
27035SOL    HW191419   7.764   2.111  11.443 -0.5687  0.3708  0.0933
27035SOL    HW291420   7.808   2.212  11.547  1.2458 -1.1487  0.8693
27036SOL     OW91421   1.197   3.893   9.236  0.3029  0.0710 -0.8861
27036SOL    HW191422   1.281   3.850   9.223  0.7374  0.6211  0.0193
27036SOL    HW291423   1.183   3.942   9.155  0.2917 -0.9149 -1.5072
27037SOL     OW91424   7.153   9.696   6.576  0.3344  0.1671 -0.0890
27037SOL    HW191425   7.205   9.768   6.611  0.3063  0.6613 -1.0273
27037SOL    HW291426   7.185   9.685   6.486 -0.6707 -0.0085 -0.4385
27038SOL     OW91427   3.147   0.467   2.183 -0.1851  0.0413 -0.5600
27038SOL    HW191428   3.182   0.552   2.209  0.0306  0.0439 -0.8441
27038SOL    HW291429   3.224   0.409   2.184 -0.4878 -0.3573  0.4949
27039SOL     OW91430   7.226   4.530   7.899 -0.0109 -0.0325 -0.5334
27039SOL    HW191431   7.201   4.465   7.833  0.7113 -0.4069 -0.4515
27039SOL    HW291432   7.281   4.481   7.961  0.2825  0.5854 -0.2994
27040SOL     OW91433   2.380   7.118  11.985  0.3589  0.0394 -0.2641
27040SOL    HW191434   2.395   7.096  12.077  1.3595 -0.4743 -0.5337
27040SOL    HW291435   2.359   7.211  11.986  0.1645  0.0000  0.5002
27041SOL     OW91436  12.942   1.405   0.285 -0.0469 -0.1389  0.0983
27041SOL    HW191437  12.977   1.329   0.240 -0.6125  0.6611 -1.8318
27041SOL    HW291438  12.965   1.479   0.228 -4.1328  0.5213 -1.0754
27042SOL     OW91439   0.565   6.528   0.377  0.0171 -0.0008  0.1948
27042SOL    HW191440   0.486   6.529   0.430  0.7163  0.7298  1.2590
27042SOL    HW291441   0.636   6.512   0.439  0.9918  2.1227 -0.2800
27043SOL     OW91442  10.390   0.909   0.292  0.5702  0.6066 -0.4717
27043SOL    HW191443  10.335   0.841   0.330  2.4996  0.7287  2.8695
27043SOL    HW291444  10.434   0.865   0.218 -1.3914 -0.4380 -1.0855
27044SOL     OW91445   9.023   2.105   6.456  0.4746  0.2141  0.1402
27044SOL    HW191446   9.100   2.056   6.426  0.1686  0.5347 -1.2187
27044SOL    HW291447   9.023   2.185   6.404 -1.2091 -0.1367 -0.4804
27045SOL     OW91448  11.038   3.714   2.122  0.3297 -0.3327 -0.2153
27045SOL    HW191449  11.076   3.783   2.068  0.8308 -1.1152 -0.8722
27045SOL    HW291450  11.099   3.641   2.115  1.0224 -0.0896  2.3348
27046SOL     OW91451  10.602   7.499  10.006  0.7678 -0.0392  0.2653
27046SOL    HW191452  10.635   7.470  10.092 -1.0420 -0.1199  0.9719
27046SOL    HW291453  10.572   7.588  10.021  0.9133  0.1259 -0.4237
27047SOL     OW91454  10.115   6.203   0.832 -0.1914 -0.4017  0.1497
27047SOL    HW191455  10.204   6.218   0.862  0.0053  0.5159 -0.8265
27047SOL    HW291456  10.070   6.286   0.848  0.0412  0.2961 -2.3800
27048SOL     OW91457   3.882   1.673   0.332  0.1529 -0.5692 -0.2870
27048SOL    HW191458   3.963   1.713   0.365  0.4132  0.8614 -2.4485
27048SOL    HW291459   3.909   1.589   0.297  1.0607  0.4670 -2.2463
27049SOL     OW91460   9.304   1.904  10.986 -0.5415  0.6174 -0.0611
27049SOL    HW191461   9.254   1.911  10.904 -1.1518  1.5351  0.3736
27049SOL    HW291462   9.360   1.982  10.986 -0.3067  0.4469  0.2401
27050SOL     OW91463   6.897   1.527   5.275  0.5568 -0.4033 -0.2892
27050SOL    HW191464   6.898   1.603   5.332 -0.7850  0.6299 -1.5597
27050SOL    HW291465   6.960   1.548   5.206 -0.0891 -0.2505 -0.8446
27051SOL     OW91466  10.731   5.032  11.474  0.5999 -0.0870  0.6333
27051SOL    HW191467  10.707   5.010  11.564 -0.4925  0.1664  0.4253
27051SOL    HW291468  10.713   4.953  11.424  1.0466 -0.1744  0.6078
27052SOL     OW91469  12.198   7.804   6.666  1.4092  0.5504 -0.0363
27052SOL    HW191470  12.228   7.768   6.582  1.9243 -2.6111  1.3653
27052SOL    HW291471  12.112   7.764   6.680  1.7943  0.1654  1.4054
27053SOL     OW91472  12.726   4.742   3.989 -0.5304 -0.4477  0.3525
27053SOL    HW191473  12.764   4.745   4.077 -0.8091  0.9866  0.4521
27053SOL    HW291474  12.646   4.690   4.000 -0.5353 -0.3311  0.9474
27054SOL     OW91475   5.100  12.623   8.377 -0.0815  0.1624 -0.2183
27054SOL    HW191476   5.087  12.573   8.297 -1.7116 -1.8202  1.1492
27054SOL    HW291477   5.193  12.616   8.396  0.0956 -0.4601 -1.2589
27055SOL     OW91478   2.067   7.671   2.271  0.0921  0.1958  0.0067
27055SOL    HW191479   2.161   7.654   2.280  0.0119  0.0481  0.6090
27055SOL    HW291480   2.043   7.630   2.188  0.7900  1.2468 -0.7486
27056SOL     OW91481   1.376  10.352  12.852 -0.0318 -0.4634  0.1184
27056SOL    HW191482   1.462  10.335  12.813  0.5131  0.6930  0.7702
27056SOL    HW291483   1.393  10.415  12.922 -1.4405 -0.0727  0.1404
27057SOL     OW91484   9.812  12.820   3.743  0.5079 -0.2063 -0.2245
27057SOL    HW191485   9.758  12.890   3.779 -0.1947 -1.9405  2.3851
27057SOL    HW291486   9.865  12.862   3.675 -1.8077  2.2112 -0.6627
27058SOL     OW91487   2.460   4.552   5.554  0.9403 -0.3408  0.0280
27058SOL    HW191488   2.490   4.558   5.464 -0.1065 -2.1622 -0.4919
27058SOL    HW291489   2.473   4.461   5.578 -1.5962 -0.6058  0.6637
27059SOL     OW91490   4.516   8.626   2.143 -0.3672  0.8728  0.0893
27059SOL    HW191491   4.520   8.623   2.238  0.1764 -0.0195  0.0495
27059SOL    HW291492   4.607   8.635   2.115 -0.2283 -1.3518 -0.3905
27060SOL     OW91493   2.420   9.498  11.582 -0.4490  0.3991  0.5646
27060SOL    HW191494   2.411   9.479  11.675 -0.4164 -1.9992  0.1346
27060SOL    HW291495   2.512   9.524  11.572  0.0123 -1.0165  0.9630
27061SOL     OW91496  12.931  11.349  12.076 -0.5751  0.1291  1.2149
27061SOL    HW191497  12.966  11.336  11.988 -0.8387 -1.9658  1.3628
27061SOL    HW291498  12.892  11.264  12.099  1.4659 -0.1709  4.2179
27062SOL     OW91499   6.946   9.706  12.339 -0.6784 -0.1951 -0.3690
27062SOL    HW191500   6.888   9.631  12.348 -1.3368  0.5115  1.6590
27062SOL    HW291501   6.888   9.782  12.339  0.1152  0.4314 -0.1033
27063SOL     OW91502   7.792  10.871   5.409  0.2334 -0.8433  0.0733
27063SOL    HW191503   7.871  10.882   5.356 -0.1629  0.5049 -0.2860
27063SOL    HW291504   7.720  10.866   5.346 -0.3736  1.8549  0.3845
27064SOL     OW91505   6.986   4.046   5.973  0.0887  0.0636  0.3866
27064SOL    HW191506   6.954   4.123   6.020 -0.7194 -0.4452  0.6832
27064SOL    HW291507   7.063   4.018   6.024 -0.7752 -0.4792  1.4255
27065SOL     OW91508   5.524  10.390   6.410  0.2956 -0.1580 -0.1951
27065SOL    HW191509   5.567  10.439   6.480  0.3008  1.8354 -1.5179
27065SOL    HW291510   5.500  10.456   6.345 -0.3964 -1.8325 -1.7384
27066SOL     OW91511  10.164  12.867  10.915 -0.0331  0.1396  0.4711
27066SOL    HW191512  10.145  12.911  10.998  0.3236  1.2122  0.0057
27066SOL    HW291513  10.259  12.863  10.911 -0.0607 -1.0696  0.6888
27067SOL     OW91514   8.016  10.639   5.051 -0.4498 -0.5822 -0.1289
27067SOL    HW191515   7.922  10.653   5.058 -0.7663 -1.4946 -1.9695
27067SOL    HW291516   8.025  10.551   5.014  1.0181  0.5291 -2.6670
27068SOL     OW91517   6.061  11.326  10.036  0.0787 -0.0399  0.4820
27068SOL    HW191518   6.136  11.302   9.982 -0.0712  0.6324 -0.0413
27068SOL    HW291519   5.991  11.268  10.006  0.5588 -1.2052  1.4971
27069SOL     OW91520   0.053   4.774   5.391 -0.0758  0.2591  0.3086
27069SOL    HW191521   0.020   4.703   5.336  0.8916  0.4609 -0.5588
27069SOL    HW291522   0.145   4.753   5.405 -0.2605  0.2717  1.7897
27070SOL     OW91523   7.575  12.835   4.652 -0.4208 -0.3348 -0.5542
27070SOL    HW191524   7.532  12.756   4.620 -0.8387 -0.6016  0.6265
27070SOL    HW291525   7.503  12.891   4.680 -0.0765  0.0320 -0.3983
27071SOL     OW91526   2.368  12.004   0.184 -0.8723 -0.0737  0.2125
27071SOL    HW191527   2.322  11.971   0.106  2.7735 -5.1935 -0.3247
27071SOL    HW291528   2.336  11.949   0.255  0.3260  0.1479  0.9465
27072SOL     OW91529  11.792  12.282   8.555  0.2199  0.0425  0.7510
27072SOL    HW191530  11.771  12.270   8.648  1.4624 -0.5171  0.9960
27072SOL    HW291531  11.709  12.270   8.510 -0.1128 -1.4286  1.6748
27073SOL     OW91532   8.300   2.901  12.537  0.3973  0.0491  0.3342
27073SOL    HW191533   8.256   2.946  12.465  2.9895  0.3250 -1.2033
27073SOL    HW291534   8.282   2.955  12.614 -2.5367 -0.3126 -0.0072
27074SOL     OW91535   4.475  10.382   7.967 -0.0705 -0.5381  0.1699
27074SOL    HW191536   4.470  10.456   8.027  2.4558  0.9429 -1.2553
27074SOL    HW291537   4.506  10.420   7.885 -1.2822 -2.8094 -1.4474
27075SOL     OW91538   0.052   0.524   7.686 -0.1257 -0.2289  0.1022
27075SOL    HW191539   0.029   0.579   7.762 -0.9650 -1.9341  1.1533
27075SOL    HW291540   0.147   0.533   7.678  0.0466 -0.2864  1.6263
27076SOL     OW91541   3.439  10.645   0.881  0.7010  0.1284  0.3565
27076SOL    HW191542   3.387  10.639   0.961  1.5973  0.5166  0.9844
27076SOL    HW291543   3.513  10.586   0.895 -0.3986 -1.7307 -1.2185
27077SOL     OW91544   1.631   9.105  11.666  0.0572  0.3109 -0.0220
27077SOL    HW191545   1.630   9.188  11.619 -0.8339  0.0692 -0.4628
27077SOL    HW291546   1.647   9.128  11.757  1.0772  0.8501 -0.3216
27078SOL     OW91547   2.031   7.475  10.251  0.5752 -0.8523 -0.7223
27078SOL    HW191548   1.960   7.413  10.269 -0.1537 -0.0713 -0.8414
27078SOL    HW291549   1.987   7.552  10.215  1.2896  0.2698  0.6840
27079SOL     OW91550   5.224   9.729   9.900  0.2719  0.1728  0.2895
27079SOL    HW191551   5.235   9.805   9.957  0.1606  0.0296  0.5030
27079SOL    HW291552   5.146   9.684   9.934  0.2093  0.0843  0.0294
27080SOL     OW91553  11.088   9.225  12.801  0.5619 -0.0001 -0.2783
27080SOL    HW191554  11.138   9.240  12.881 -0.9857 -2.6091  1.3228
27080SOL    HW291555  11.103   9.132  12.780 -1.8073 -0.2992 -0.9580
27081SOL     OW91556   9.426  12.214   1.215 -0.3052  0.4538 -0.3638
27081SOL    HW191557   9.428  12.168   1.299  0.5214  1.2898  0.1051
27081SOL    HW291558   9.416  12.306   1.239 -0.5762  0.6518 -1.2144
27082SOL     OW91559   1.169   1.513   1.040 -0.5020 -0.3582 -0.2116
27082SOL    HW191560   1.090   1.473   1.004  0.0894  0.4059 -2.6049
27082SOL    HW291561   1.184   1.589   0.983  1.8926 -0.4335  0.2244
27083SOL     OW91562  11.071   2.313  10.815  0.1242  0.3597  0.2467
27083SOL    HW191563  11.033   2.364  10.744  1.0315 -1.0796 -1.3424
27083SOL    HW291564  11.139   2.369  10.852 -1.2962  1.6770  0.9729
27084SOL     OW91565   4.710   0.562  11.817 -0.7205  1.0287 -0.3835
27084SOL    HW191566   4.637   0.509  11.848 -0.3494  0.1391 -1.0199
27084SOL    HW291567   4.749   0.598  11.897 -1.1654  0.6061  0.0258
27085SOL     OW91568   8.434   1.039  12.197 -0.5800 -0.6475 -0.3438
27085SOL    HW191569   8.460   0.947  12.207 -0.0507 -0.5292 -0.6435
27085SOL    HW291570   8.346   1.042  12.234  0.0209 -0.9417  1.1942
27086SOL     OW91571   7.552   9.340  12.845  0.0416 -0.1844  0.2884
27086SOL    HW191572   7.591   9.425  12.863  2.3008 -0.6305 -1.9330
27086SOL    HW291573   7.464   9.360  12.813  1.0157  1.5217 -1.5976
27087SOL     OW91574   2.431   2.363  10.447  0.1924  0.2128 -0.2693
27087SOL    HW191575   2.351   2.409  10.421  0.4522  0.1651 -1.1725
27087SOL    HW291576   2.486   2.430  10.487 -0.8772 -0.0315  1.7207
27088SOL     OW91577   7.034  10.869  12.814  0.1973 -0.2021 -0.1717
27088SOL    HW191578   7.083  10.887  12.733 -0.5529  0.0768 -0.5760
27088SOL    HW291579   7.102  10.851  12.879  0.8111 -0.6341 -0.9094
27089SOL     OW91580   2.960   4.986   4.186  0.2507 -0.6285 -0.3332
27089SOL    HW191581   2.868   4.996   4.165 -0.3309 -2.4075  1.0798
27089SOL    HW291582   2.983   4.899   4.153  1.4799 -0.1414 -0.8196
27090SOL     OW91583   0.978   5.440   1.407  0.2708 -0.5422 -0.6662
27090SOL    HW191584   0.950   5.350   1.426  0.8990 -0.7371 -0.6648
27090SOL    HW291585   0.957   5.453   1.315  1.4410 -1.1653 -1.0352
27091SOL     OW91586   2.688   1.096   4.710  0.3196  0.3572  0.3158
27091SOL    HW191587   2.652   1.007   4.710 -0.4823  0.6673 -0.5365
27091SOL    HW291588   2.618   1.151   4.674  1.3249  1.1078 -0.5855
27092SOL     OW91589   3.142  10.972   3.218 -0.5956 -0.1342 -0.7593
27092SOL    HW191590   3.101  11.004   3.299  0.3322 -1.0865  0.1309
27092SOL    HW291591   3.074  10.919   3.176 -1.1591  0.5493 -0.7321
27093SOL     OW91592  10.299   5.834   1.761 -0.0875  0.6129  0.7261
27093SOL    HW191593  10.258   5.773   1.700  0.5121  0.9435 -0.0300
27093SOL    HW291594  10.391   5.835   1.736  0.1019  1.0397  1.4014
27094SOL     OW91595  12.649   2.427  10.075 -0.4202  0.3529 -0.5890
27094SOL    HW191596  12.600   2.432  10.158 -0.6509 -1.1044 -0.6072
27094SOL    HW291597  12.724   2.484  10.089 -1.5737  1.8587 -0.1852
27095SOL     OW91598   7.632  11.851   5.155  0.5194 -0.2994  1.0220
27095SOL    HW191599   7.622  11.945   5.170  0.2801 -0.4923  2.1423
27095SOL    HW291600   7.543  11.817   5.162  0.8032 -0.8341  2.3368
27096SOL     OW91601  11.853  12.651   7.038  0.1527  0.1708 -0.0586
27096SOL    HW191602  11.938  12.620   7.068 -0.7976 -1.6390  0.9432
27096SOL    HW291603  11.800  12.572   7.029 -1.6453  1.2928  0.0334
27097SOL     OW91604  11.576   4.692   0.599 -0.3460 -0.2681  0.2197
27097SOL    HW191605  11.628   4.731   0.670 -0.5142  1.0602 -0.3445
27097SOL    HW291606  11.562   4.764   0.537 -0.3269 -1.3532 -1.1047
27098SOL     OW91607   6.637  11.771   3.017 -0.0116 -0.5209  0.3275
27098SOL    HW191608   6.663  11.837   2.952  1.3466 -0.1231  1.2385
27098SOL    HW291609   6.551  11.799   3.047 -0.8439 -0.9140 -1.5351
27099SOL     OW91610   9.346   0.169   7.161  0.2452 -0.2929 -0.0857
27099SOL    HW191611   9.383   0.105   7.100  1.3816  2.0223 -2.0226
27099SOL    HW291612   9.253   0.172   7.138  0.6145  0.3613 -1.6054
27100SOL     OW91613   8.045   6.931   4.726 -0.9760  0.0839  0.3837
27100SOL    HW191614   8.060   6.905   4.817  1.1600  1.1112  0.3835
27100SOL    HW291615   8.113   6.995   4.707 -0.2395 -1.3524 -2.4794
27101SOL     OW91616   4.441   9.738   0.977 -0.3777 -0.4451  0.7121
27101SOL    HW191617   4.381   9.813   0.972  2.1044  1.8736  2.6151
27101SOL    HW291618   4.455   9.714   0.886 -0.9003  1.7628 -0.0321
27102SOL     OW91619   1.880  12.774   6.174  0.3322 -0.1499  0.2185
27102SOL    HW191620   1.822  12.845   6.146  1.2634  0.4729 -0.1627
27102SOL    HW291621   1.822  12.714   6.221 -0.6299  0.4407 -0.1692
27103SOL     OW91622  11.058  11.978   2.953 -0.0500 -0.3704  0.6074
27103SOL    HW191623  11.037  12.055   2.900  1.1115  0.1654  0.8935
27103SOL    HW291624  11.150  11.990   2.978 -0.6121 -0.4855  2.9329
27104SOL     OW91625   0.457   7.662   5.724 -0.0197 -0.2630  0.5286
27104SOL    HW191626   0.503   7.697   5.647 -0.2102 -1.0495  0.0414
27104SOL    HW291627   0.365   7.687   5.710 -0.1706 -1.0158  0.1348
27105SOL     OW91628  12.514  12.095   1.237  0.7058 -0.1893 -0.0832
27105SOL    HW191629  12.529  12.159   1.306  0.1108  1.1144 -1.1127
27105SOL    HW291630  12.591  12.038   1.239  1.1599  0.4414  0.9796
27106SOL     OW91631   8.159   1.789   0.892  0.0544  0.7221  0.3802
27106SOL    HW191632   8.250   1.758   0.891  1.5761  4.6300  0.5134
27106SOL    HW291633   8.137   1.802   0.799 -0.6319 -0.7196  0.3153
27107SOL     OW91634   2.089   0.087   6.396 -0.2828 -0.2314  0.4092
27107SOL    HW191635   2.144   0.158   6.430 -0.3775 -0.1880  0.4709
27107SOL    HW291636   2.070   0.114   6.306  0.5200 -0.6670  0.0971
27108SOL     OW91637   6.866   6.305  10.489  0.0734  0.0274 -0.0655
27108SOL    HW191638   6.939   6.245  10.480  1.2176  1.4003 -0.2780
27108SOL    HW291639   6.788   6.250  10.479  1.0759 -1.1183 -2.1825
27109SOL     OW91640  12.464   5.860  12.233  0.1802 -0.3412  0.1866
27109SOL    HW191641  12.517   5.795  12.186  0.8517 -0.8062  1.5357
27109SOL    HW291642  12.375   5.843  12.204  0.5693 -0.5701 -0.9529
27110SOL     OW91643   0.695   3.206   3.016  0.1878 -0.1391  0.0596
27110SOL    HW191644   0.685   3.114   2.989 -0.2585 -0.0513 -0.0885
27110SOL    HW291645   0.692   3.256   2.935  1.3936 -0.0547  0.0540
27111SOL     OW91646   0.686   9.086   9.810 -0.0230 -0.1756  0.2626
27111SOL    HW191647   0.664   9.154   9.874 -0.8168 -0.9657  0.8538
27111SOL    HW291648   0.655   9.004   9.850 -1.9941 -0.5348 -1.7885
27112SOL     OW91649   2.070   8.385   0.083  0.1866  0.1487  0.4880
27112SOL    HW191650   2.060   8.445   0.157 -0.3860 -0.6381  1.0572
27112SOL    HW291651   2.116   8.309   0.119  0.8710  0.2079 -0.2216
27113SOL     OW91652  10.979   9.750   8.891  0.5667  0.0802  0.1624
27113SOL    HW191653  11.020   9.825   8.935  0.7430 -1.5028  2.9197
27113SOL    HW291654  11.052   9.691   8.871  0.2306 -0.2150 -0.2072
27114SOL     OW91655   3.671   5.277   1.128 -0.0591  0.3247 -0.0318
27114SOL    HW191656   3.743   5.214   1.132 -0.8393 -0.6320 -0.6177
27114SOL    HW291657   3.713   5.360   1.106  0.8269 -0.2891 -0.7116
27115SOL     OW91658  11.491  12.890   8.958  0.6879  0.0444 -0.1402
27115SOL    HW191659  11.549  12.849   8.893  0.6534 -0.6848  0.2755
27115SOL    HW291660  11.531  12.975   8.975  1.3616 -0.2451 -0.2331
27116SOL     OW91661   4.381   6.542   5.503  0.3615 -0.4208 -0.4062
27116SOL    HW191662   4.349   6.537   5.413  0.9459  2.3043 -0.8609
27116SOL    HW291663   4.322   6.604   5.546  0.1557 -1.5993  1.1027
27117SOL     OW91664   0.318   8.555  10.857  0.5889 -0.5526 -0.5132
27117SOL    HW191665   0.253   8.505  10.906 -0.2549  0.0276 -1.0121
27117SOL    HW291666   0.338   8.630  10.912  1.9802 -1.4654  0.3124
27118SOL     OW91667   7.121  10.307   8.378  0.2550 -0.1467 -0.1288
27118SOL    HW191668   7.155  10.279   8.294 -0.4271  0.3569 -0.5884
27118SOL    HW291669   7.035  10.266   8.385  0.8886 -1.3717  0.9959
27119SOL     OW91670  10.617   1.204   6.015  0.6079 -0.5840  0.1219
27119SOL    HW191671  10.632   1.132   5.954  0.8469 -0.1303 -0.3705
27119SOL    HW291672  10.535   1.182   6.059  0.3562 -0.8510 -0.4695
27120SOL     OW91673   1.451   4.463   1.053  0.1681  0.4759  0.2260
27120SOL    HW191674   1.412   4.549   1.035  1.0719  0.6975 -0.7107
27120SOL    HW291675   1.445   4.455   1.148  0.9715  2.0227  0.4460
27121SOL     OW91676   2.957   2.417   7.373  0.1305 -0.8169  0.2756
27121SOL    HW191677   2.904   2.350   7.417 -0.2134 -1.5763 -1.2244
27121SOL    HW291678   3.048   2.390   7.389  0.0640 -0.2493  1.7391
27122SOL     OW91679  12.832   7.443   1.489  0.0095 -0.1188  0.2469
27122SOL    HW191680  12.790   7.379   1.432 -0.2153  0.4671 -0.2593
27122SOL    HW291681  12.759   7.488   1.532  0.1739 -0.4826  0.9235
27123SOL     OW91682   2.979   4.194   2.407 -0.4439 -1.2009  0.2215
27123SOL    HW191683   2.886   4.191   2.432 -0.3268 -0.0550  0.8641
27123SOL    HW291684   2.979   4.179   2.312 -1.3868 -0.1815  0.0412
27124SOL     OW91685   9.711   7.920   1.036 -0.3267 -0.0283 -0.3987
27124SOL    HW191686   9.673   8.004   1.063  1.5345 -0.0358  2.7286
27124SOL    HW291687   9.768   7.895   1.109  2.2684 -2.0910 -2.8918
27125SOL     OW91688   9.203   9.455   2.112  0.1644  0.2085 -0.6120
27125SOL    HW191689   9.187   9.502   2.031 -0.3040  0.8406 -0.1622
27125SOL    HW291690   9.273   9.503   2.155 -1.3804  1.4885  0.5946
27126SOL     OW91691  10.371   9.996   0.843 -0.0188  0.3686  0.4818
27126SOL    HW191692  10.323  10.047   0.777 -1.6112 -1.3970  0.1823
27126SOL    HW291693  10.348   9.905   0.824  1.2025 -0.3450  2.1668
27127SOL     OW91694   6.461  10.105  11.326  0.4270  0.6118  0.7195
27127SOL    HW191695   6.440  10.196  11.349  0.0478  0.4839  0.8784
27127SOL    HW291696   6.417  10.091  11.242 -0.7486  0.1180  1.3980
27128SOL     OW91697   5.379   9.571   8.085 -0.2077  1.1956 -0.3809
27128SOL    HW191698   5.406   9.479   8.074 -0.8431  1.0683 -0.8860
27128SOL    HW291699   5.444   9.607   8.146 -0.0446  0.3716 -0.0533
27129SOL     OW91700   2.776   5.264  10.142  0.1810 -0.0593  0.0988
27129SOL    HW191701   2.762   5.359  10.141 -1.9070 -0.3103 -0.3135
27129SOL    HW291702   2.839   5.249  10.071 -0.6858  0.9054 -0.9326
27130SOL     OW91703   5.695   1.374  12.284  0.2187 -0.0868  0.2600
27130SOL    HW191704   5.608   1.373  12.325  0.6915  1.7968  1.4370
27130SOL    HW291705   5.752   1.331  12.348  0.5374  0.6881  0.5017
27131SOL     OW91706   1.620  12.623   1.405 -0.0422  0.0557 -0.2263
27131SOL    HW191707   1.611  12.714   1.378 -0.8305  0.1416  0.3193
27131SOL    HW291708   1.566  12.615   1.484  1.5214 -0.4114  0.8481
27132SOL     OW91709   1.782  11.533   5.619 -0.4435  0.4895  0.1811
27132SOL    HW191710   1.867  11.558   5.653 -1.3016  0.7474  2.2887
27132SOL    HW291711   1.762  11.598   5.551  0.2936  1.4593  0.8735
27133SOL     OW91712   1.406   5.209   1.844  0.3240 -0.1538 -0.2144
27133SOL    HW191713   1.338   5.258   1.889  1.4683 -0.8461  2.4594
27133SOL    HW291714   1.465   5.275   1.809  0.4435  0.4267  1.0514
27134SOL     OW91715   6.820  12.359   2.157 -0.5302  0.3373  0.2236
27134SOL    HW191716   6.784  12.337   2.071  1.2189 -2.1915 -0.0060
27134SOL    HW291717   6.849  12.275   2.192  0.5339  1.5573  2.4853
27135SOL     OW91718   5.715   5.905   7.862 -0.8455  0.3368 -0.4083
27135SOL    HW191719   5.652   5.834   7.876 -0.1715  0.0942  1.6519
27135SOL    HW291720   5.668   5.984   7.888 -0.0211  0.0299  2.3146
27136SOL     OW91721   4.081   4.429  10.311 -0.0905  0.0750 -0.0257
27136SOL    HW191722   4.012   4.451  10.248 -0.5237  0.1303  0.4687
27136SOL    HW291723   4.038   4.433  10.396  0.2789 -0.8944  0.2084
27137SOL     OW91724   2.966   7.831   5.542 -0.1836  1.0802 -0.3667
27137SOL    HW191725   2.871   7.818   5.537  0.1478 -2.0406 -0.5741
27137SOL    HW291726   2.992   7.858   5.454 -0.8654  2.2910 -0.2226
27138SOL     OW91727   6.235   0.777  10.476 -0.7063 -0.1229  0.1190
27138SOL    HW191728   6.174   0.813  10.541  1.3862  1.7604  1.1804
27138SOL    HW291729   6.212   0.820  10.394 -1.0026  0.3366  0.4412
27139SOL     OW91730  12.680   6.443   1.535 -0.0142 -0.0338  0.0883
27139SOL    HW191731  12.618   6.419   1.465  0.5961 -0.7112 -0.2333
27139SOL    HW291732  12.764   6.451   1.490  0.4876 -1.0124  0.8422
27140SOL     OW91733   4.444  10.320   1.147 -0.0974  0.0368 -0.5709
27140SOL    HW191734   4.530  10.279   1.136  0.4874  1.5397 -2.2853
27140SOL    HW291735   4.386  10.249   1.173  1.6180 -1.0458  0.5180
27141SOL     OW91736   9.324   9.736   8.290 -0.2768  0.4432  0.1487
27141SOL    HW191737   9.338   9.730   8.195 -0.3248  1.5238  0.0606
27141SOL    HW291738   9.230   9.745   8.299 -0.2249  0.8912  0.2610
27142SOL     OW91739   3.418   3.330   3.628  0.6451  0.3369 -0.3458
27142SOL    HW191740   3.384   3.414   3.660  2.1211  1.3004 -1.1566
27142SOL    HW291741   3.352   3.266   3.653 -1.2054  1.9283 -0.8852
27143SOL     OW91742  12.850   6.841   7.092  0.4832 -0.0470 -0.1532
27143SOL    HW191743  12.864   6.901   7.019  2.0391  1.0912  0.9964
27143SOL    HW291744  12.887   6.887   7.168  0.1818 -1.7614  1.0954
27144SOL     OW91745   3.102   7.167   1.300  0.2102 -0.3754 -0.1663
27144SOL    HW191746   3.087   7.221   1.222  1.6259 -0.0908 -0.2742
27144SOL    HW291747   3.186   7.199   1.335 -1.6344  1.3834  3.0729
27145SOL     OW91748   8.997  12.452   8.909 -0.5901 -0.5218 -0.0708
27145SOL    HW191749   8.905  12.451   8.883 -0.4310  0.6216 -0.7637
27145SOL    HW291750   9.045  12.467   8.827  0.0770  0.8983  0.5308
27146SOL     OW91751   0.750  12.220   5.926  0.4788  0.2643  0.2525
27146SOL    HW191752   0.743  12.125   5.939 -0.7835  0.4993  1.6267
27146SOL    HW291753   0.662  12.246   5.897  0.7810  1.0334  0.0193
27147SOL     OW91754   2.477   6.838   3.676 -0.0986  0.2694  0.0760
27147SOL    HW191755   2.387   6.862   3.698 -0.9571 -0.8751 -1.9152
27147SOL    HW291756   2.493   6.758   3.726 -0.1300  0.5523  0.5434
27148SOL     OW91757   9.976   0.504   6.062 -0.2232 -0.2598  0.8590
27148SOL    HW191758   9.936   0.480   5.978  0.7245  0.7402  0.1017
27148SOL    HW291759  10.054   0.554   6.038  1.6758 -2.3505  2.2607
27149SOL     OW91760   0.611   2.052   9.934  0.0602 -0.3094  0.2559
27149SOL    HW191761   0.690   2.029   9.885 -0.4638 -2.2209  0.2198
27149SOL    HW291762   0.590   1.973   9.984 -1.7560  0.1903  0.3422
27150SOL     OW91763  10.347   8.734   2.809  0.4931 -0.3876 -0.1432
27150SOL    HW191764  10.396   8.776   2.879 -0.5274  0.7810 -0.0957
27150SOL    HW291765  10.412   8.681   2.763  1.7578  0.9129  0.0619
27151SOL     OW91766   8.335  10.310  10.248  0.1088 -0.5368  0.5886
27151SOL    HW191767   8.261  10.370  10.256  0.7364  0.4205 -0.5269
27151SOL    HW291768   8.370  10.304  10.337 -0.5130  0.0199  0.8827
27152SOL     OW91769   8.546   3.424   7.627 -0.3775 -0.3436 -0.7930
27152SOL    HW191770   8.517   3.456   7.712  0.9316  0.5004 -0.6265
27152SOL    HW291771   8.578   3.335   7.644 -2.3634 -1.1197 -0.9049
27153SOL     OW91772  11.615   1.404  11.159  0.1743  0.2445  0.7621
27153SOL    HW191773  11.589   1.383  11.249  1.6656  0.1069  1.1773
27153SOL    HW291774  11.536   1.386  11.107 -1.1290  1.5529  2.1765
27154SOL     OW91775   9.121  12.496  12.144  0.1576  0.0112  0.0553
27154SOL    HW191776   9.141  12.450  12.226 -1.0226  1.9317  1.4996
27154SOL    HW291777   9.046  12.551  12.165 -1.0699 -0.4488 -2.7390
27155SOL     OW91778   4.816  10.086   9.898 -0.5468 -0.4987  0.6538
27155SOL    HW191779   4.871  10.071   9.821 -0.4465 -2.2333  1.0323
27155SOL    HW291780   4.743  10.138   9.865  0.5283  0.5470 -0.1661
27156SOL     OW91781   0.153   9.134   7.858  0.4803 -0.0379  0.6176
27156SOL    HW191782   0.066   9.102   7.834  0.7249  0.2591 -0.7327
27156SOL    HW291783   0.142   9.171   7.946 -0.4457 -1.1899  1.0111
27157SOL     OW91784  10.473   8.806   0.035  0.1802 -0.0767 -0.0893
27157SOL    HW191785  10.467   8.712   0.051  0.9295  0.0394  0.9912
27157SOL    HW291786  10.524   8.813  -0.046  1.6183 -0.5965  0.7223
27158SOL     OW91787   6.746   6.262   5.622  0.0581 -0.4548  0.2850
27158SOL    HW191788   6.692   6.219   5.688  3.3640 -1.4182  2.6315
27158SOL    HW291789   6.783   6.190   5.571 -0.9069  0.2015 -1.4615
27159SOL     OW91790  11.844  12.528   3.550 -0.6179  0.3139  0.1344
27159SOL    HW191791  11.801  12.466   3.491 -1.4689 -0.5305  1.5645
27159SOL    HW291792  11.886  12.591   3.492  0.4856 -1.6952 -1.4079
27160SOL     OW91793   2.434   8.362  11.128  0.5203 -0.0205  0.4431
27160SOL    HW191794   2.440   8.448  11.169  0.3729  0.3228 -0.2316
27160SOL    HW291795   2.421   8.381  11.035 -1.7596 -0.7328  0.5540
27161SOL     OW91796   6.123  10.186   3.399 -0.1170 -0.4222 -0.1391
27161SOL    HW191797   6.073  10.229   3.468  2.8005  0.7463  1.4123
27161SOL    HW291798   6.119  10.093   3.422 -1.5497 -0.3745 -0.0991
27162SOL     OW91799   3.048   0.235   7.455 -0.0713 -0.3905  0.3951
27162SOL    HW191800   3.103   0.308   7.427 -0.7275  0.1673  0.5472
27162SOL    HW291801   3.100   0.190   7.522  0.3812 -0.1346  0.2193
27163SOL     OW91802   4.194  10.523   6.915 -0.3685 -0.6859 -0.3506
27163SOL    HW191803   4.188  10.616   6.939 -1.7696 -0.9955  0.6465
27163SOL    HW291804   4.242  10.483   6.988 -0.3866 -0.8569 -0.4341
27164SOL     OW91805   5.736   9.609   0.627 -0.3319  0.1689 -0.2541
27164SOL    HW191806   5.779   9.530   0.660  1.5022  0.6010 -1.4442
27164SOL    HW291807   5.689   9.645   0.702  2.5203  0.3933  1.5486
27165SOL     OW91808  11.971   4.493   5.901  0.0097  0.1960 -0.1425
27165SOL    HW191809  11.914   4.460   5.971  0.1351  2.1693  0.9560
27165SOL    HW291810  11.958   4.432   5.829 -2.0118 -0.5092  0.7514
27166SOL     OW91811   9.354  12.873   1.986 -1.4005 -0.3132  0.4556
27166SOL    HW191812   9.348  12.941   2.054 -3.2518 -0.6333  0.6610
27166SOL    HW291813   9.292  12.901   1.919 -0.7147 -0.7992 -0.3886
27167SOL     OW91814   2.047   1.923  11.424  0.0516 -0.3908 -0.0329
27167SOL    HW191815   2.141   1.923  11.446  0.0278 -0.6782  0.0789
27167SOL    HW291816   2.022   2.015  11.423  0.3738 -0.3031 -0.2202
27168SOL     OW91817   4.847  10.499   7.677  0.4608  0.3324 -0.0573
27168SOL    HW191818   4.796  10.493   7.596  0.1801  1.1109  0.0554
27168SOL    HW291819   4.881  10.411   7.691  1.5318  0.4486 -1.6926
27169SOL     OW91820  12.679   5.067   7.102 -0.2226 -0.1418  0.0664
27169SOL    HW191821  12.646   5.122   7.032 -0.7042  0.1375  0.5091
27169SOL    HW291822  12.601   5.029   7.142 -0.2050  1.8517  2.2192
27170SOL     OW91823  12.242   9.445  10.204 -0.2354 -0.0217  0.3056
27170SOL    HW191824  12.236   9.367  10.149  1.2588  0.3322 -0.4036
27170SOL    HW291825  12.303   9.503  10.158 -0.2067  0.9729  1.5287
27171SOL     OW91826   3.349   1.706  12.558  0.2715  0.0522 -0.5493
27171SOL    HW191827   3.364   1.799  12.542  0.3083 -0.0523 -1.1524
27171SOL    HW291828   3.274   1.704  12.618  0.0427  0.4660 -0.8129
27172SOL     OW91829   7.709   6.998   7.976  0.0078  0.4201 -0.6162
27172SOL    HW191830   7.780   6.935   7.981 -1.0359 -0.9417 -2.1391
27172SOL    HW291831   7.750   7.078   7.944  1.2363  0.3776  0.7334
27173SOL     OW91832   8.464   1.924   2.967 -0.3049 -0.3286  0.4439
27173SOL    HW191833   8.415   1.991   3.015  0.6138 -0.1788  1.2173
27173SOL    HW291834   8.411   1.845   2.972 -0.7384 -0.0160  0.7416
27174SOL     OW91835   6.916   5.272   2.220 -0.1634  0.3132 -0.3773
27174SOL    HW191836   6.933   5.353   2.269  0.6490 -0.0518 -0.0341
27174SOL    HW291837   6.998   5.223   2.226 -0.3372 -0.1249 -1.3812
27175SOL     OW91838   7.404   8.739  10.562 -0.1267  0.1261 -0.3131
27175SOL    HW191839   7.376   8.693  10.640  1.2843 -0.0711  0.1085
27175SOL    HW291840   7.421   8.828  10.591  0.2369  0.0970 -0.4299
27176SOL     OW91841   1.581  12.885   5.437  0.1057  0.4495 -0.3606
27176SOL    HW191842   1.566  12.826   5.363  1.5695 -1.7115  0.9808
27176SOL    HW291843   1.519  12.856   5.504  0.2305  1.0306  0.0151
27177SOL     OW91844   5.166  11.864   1.137 -0.0816  0.0502  0.4528
27177SOL    HW191845   5.113  11.913   1.073  0.8622 -0.6391 -0.9079
27177SOL    HW291846   5.208  11.932   1.190  1.3108  0.7828 -1.4949
27178SOL     OW91847   8.109   2.281   3.646  0.4055  0.3731 -0.0495
27178SOL    HW191848   8.022   2.245   3.630  1.3657 -1.6361 -1.1564
27178SOL    HW291849   8.152   2.217   3.703  1.3990  0.9524 -0.1147
27179SOL     OW91850   5.397   2.929  12.103 -0.7100 -0.0299 -0.1323
27179SOL    HW191851   5.383   2.959  12.193  1.8570 -0.6815  0.5920
27179SOL    HW291852   5.428   3.006  12.057  1.0637 -0.3600  0.4305
27180SOL     OW91853   8.182   1.009   6.805  0.5506  0.6038  0.1114
27180SOL    HW191854   8.263   1.059   6.803 -0.7240  2.7256 -1.6244
27180SOL    HW291855   8.121   1.063   6.856 -0.0578 -0.5872  0.7097
27181SOL     OW91856   0.841   9.463   4.519  0.2470 -0.5172 -0.3748
27181SOL    HW191857   0.792   9.431   4.444  1.3489 -0.7748 -1.0141
27181SOL    HW291858   0.930   9.429   4.506  1.4040  2.3300 -0.8516
27182SOL     OW91859   7.247   2.376   3.970  0.2208  0.2426  0.2641
27182SOL    HW191860   7.299   2.456   3.976 -0.1408  0.5268 -0.2931
27182SOL    HW291861   7.161   2.401   4.004  0.0154  0.1813 -0.1954
27183SOL     OW91862   7.323   7.206   2.498  0.2981 -0.1140 -0.4008
27183SOL    HW191863   7.276   7.286   2.479  0.5077 -0.1150 -0.9517
27183SOL    HW291864   7.255   7.140   2.513  0.1293  0.0803 -0.3130
27184SOL     OW91865   0.160   3.625  10.985  0.5895 -0.0758 -0.4022
27184SOL    HW191866   0.105   3.625  11.063 -0.1072 -0.1884 -0.8845
27184SOL    HW291867   0.247   3.604  11.017  0.9637  2.8608  0.7673
27185SOL     OW91868   9.096   7.175   8.326  0.1233  0.5497  0.2346
27185SOL    HW191869   9.024   7.173   8.388 -0.3270  2.4159 -0.1498
27185SOL    HW291870   9.133   7.263   8.335 -0.9697  1.5187 -3.1811
27186SOL     OW91871  12.884   1.352   7.418 -0.2146  0.3558  0.2515
27186SOL    HW191872  12.879   1.431   7.363 -3.4048  1.2232  1.5369
27186SOL    HW291873  12.895   1.386   7.507 -2.1233 -0.5204  0.8857
27187SOL     OW91874  12.880   7.172   9.321  0.3853 -0.4630 -0.2136
27187SOL    HW191875  12.957   7.164   9.377  0.1796  0.9827  0.3197
27187SOL    HW291876  12.819   7.106   9.353 -0.0937  0.9175  1.9334
27188SOL     OW91877   0.497   3.850  10.755 -0.3727 -0.5978 -0.4584
27188SOL    HW191878   0.528   3.819  10.841 -0.5115 -1.3116 -0.6531
27188SOL    HW291879   0.411   3.809  10.746 -0.9575  0.5624 -0.3551
27189SOL     OW91880  12.552   7.319  11.794  0.5863 -0.5982  0.4958
27189SOL    HW191881  12.571   7.408  11.766  2.4563 -0.9588  0.4682
27189SOL    HW291882  12.510   7.328  11.879 -1.1042  0.3519 -0.3996
27190SOL     OW91883  11.341   8.276   5.057  0.6211  0.2412 -0.2264
27190SOL    HW191884  11.359   8.221   4.980  0.0663  0.8149 -0.7843
27190SOL    HW291885  11.245   8.278   5.062  0.6542  0.1758  0.5120
27191SOL     OW91886   1.595   0.657   1.342  0.0732 -0.0657 -0.0631
27191SOL    HW191887   1.689   0.651   1.322 -0.1510  2.8606 -3.0012
27191SOL    HW291888   1.553   0.604   1.274 -0.4181 -0.0472  0.2233
27192SOL     OW91889  12.262   5.768  11.254 -0.4519 -0.7969 -0.1802
27192SOL    HW191890  12.344   5.817  11.251 -0.8308  0.0055  1.5548
27192SOL    HW291891  12.288   5.680  11.283 -0.1994 -0.5480  0.3557
27193SOL     OW91892   5.012   6.124   3.669 -0.2489 -0.2276 -0.8425
27193SOL    HW191893   5.058   6.095   3.748  1.5373  2.2992 -0.8378
27193SOL    HW291894   4.964   6.202   3.697  0.8449  1.0425 -2.2871
27194SOL     OW91895  10.985   4.907   2.332 -0.5513 -0.1904  0.0841
27194SOL    HW191896  10.993   4.987   2.384 -0.6905  0.0429 -0.2450
27194SOL    HW291897  11.073   4.894   2.297 -1.2468  1.9382 -2.8968
27195SOL     OW91898   0.887   8.567   3.971  0.4589  0.7436  0.0973
27195SOL    HW191899   0.890   8.643   4.028  2.3292  1.6059 -1.0436
27195SOL    HW291900   0.826   8.591   3.901  0.2853  0.7880  0.2636
27196SOL     OW91901  11.961   1.522   0.670 -0.2448  0.3576 -0.7972
27196SOL    HW191902  12.027   1.578   0.710  0.5678 -0.2806 -1.2145
27196SOL    HW291903  11.990   1.510   0.580  0.2565 -1.6784 -0.4203
27197SOL     OW91904   4.454  12.852   2.733 -0.3510  0.3235  0.1547
27197SOL    HW191905   4.508  12.895   2.667 -0.4182  1.3108  0.7234
27197SOL    HW291906   4.499  12.770   2.752  1.0088  1.1696  0.6871
27198SOL     OW91907   4.704   7.810   6.236  0.0351  0.3800 -0.0027
27198SOL    HW191908   4.724   7.903   6.223 -0.8419  0.5840  0.0162
27198SOL    HW291909   4.621   7.811   6.284  0.9896 -0.3887  1.7367
27199SOL     OW91910   9.677   8.456   5.804 -0.1168 -0.3531  0.5487
27199SOL    HW191911   9.588   8.424   5.793  0.0993 -0.5443 -0.9251
27199SOL    HW291912   9.694   8.506   5.724  1.1269 -0.4084  0.7580
27200SOL     OW91913  10.728   5.253   9.896 -0.3258  0.0865  0.3103
27200SOL    HW191914  10.805   5.301   9.864  0.9074 -3.3398 -2.6411
27200SOL    HW291915  10.659   5.319   9.900  1.2926  2.3075 -2.9670
27201SOL     OW91916   7.942   3.151   8.787  0.1468 -0.0680 -0.3770
27201SOL    HW191917   7.976   3.062   8.795  2.1194  0.4669 -1.8562
27201SOL    HW291918   7.980   3.198   8.862  1.3422  0.1221 -1.0802
27202SOL     OW91919   6.061   9.713   1.374  0.6681 -0.3302  0.4070
27202SOL    HW191920   6.145   9.736   1.415  0.7576  1.0982 -0.5111
27202SOL    HW291921   5.997   9.770   1.416  0.6195  0.5388 -0.7989
27203SOL     OW91922   0.849  10.816   9.495  0.1427  0.2410  0.5125
27203SOL    HW191923   0.803  10.866   9.563  1.4931  0.3468  1.3768
27203SOL    HW291924   0.907  10.880   9.453 -2.6490  0.9510 -2.7954
27204SOL     OW91925  12.621   4.351   0.057 -1.1577  0.0960 -0.2578
27204SOL    HW191926  12.675   4.335   0.134 -0.5956  1.2017 -0.4037
27204SOL    HW291927  12.547   4.291   0.067 -0.6951 -0.3390  0.7305
27205SOL     OW91928   3.419   7.324   5.250  0.5332  0.7245 -0.4611
27205SOL    HW191929   3.390   7.307   5.339 -2.2324  0.6015 -1.2999
27205SOL    HW291930   3.435   7.418   5.248  0.8775  0.6887  0.2117
27206SOL     OW91931   2.369   3.744   4.011 -0.3099  0.0489 -0.3580
27206SOL    HW191932   2.451   3.778   4.048 -0.0919  0.9571 -1.5960
27206SOL    HW291933   2.311   3.820   4.006  0.5724  0.6735 -4.2211
27207SOL     OW91934   8.926   0.314  12.532 -0.4493 -0.2797  0.0893
27207SOL    HW191935   8.933   0.264  12.451 -2.1752 -0.3033 -0.0869
27207SOL    HW291936   8.906   0.403  12.503 -0.0738 -0.0705  0.4655
27208SOL     OW91937   7.816   1.379   6.145  0.2784 -0.2912 -0.1874
27208SOL    HW191938   7.760   1.445   6.187  0.5076 -0.8244  1.0132
27208SOL    HW291939   7.897   1.383   6.196  1.5738  0.8430 -2.2258
27209SOL     OW91940   8.575   3.394   6.400  0.4389  0.0085  0.0409
27209SOL    HW191941   8.590   3.324   6.465  0.6534 -0.9702 -1.0348
27209SOL    HW291942   8.563   3.347   6.317 -2.9245  0.9939 -0.1833
27210SOL     OW91943   9.609  11.663   4.640  0.0885  0.1542  0.0302
27210SOL    HW191944   9.608  11.741   4.696  0.3557  0.1942 -0.0153
27210SOL    HW291945   9.625  11.591   4.701  0.2291  0.1814  0.0280
27211SOL     OW91946  10.707   8.965   4.351  0.2554  0.6138  0.7303
27211SOL    HW191947  10.665   9.023   4.287 -0.1244  0.8675  1.2074
27211SOL    HW291948  10.801   8.977   4.336  0.1690  0.3253 -0.0900
27212SOL     OW91949   1.753   3.267   0.518  0.3333  0.4504 -0.5514
27212SOL    HW191950   1.733   3.344   0.571  1.0888  0.4080 -0.2020
27212SOL    HW291951   1.827   3.293   0.464  0.3881  0.0686 -0.6621
27213SOL     OW91952   8.140   3.986   4.440 -0.7636  0.2602  0.6406
27213SOL    HW191953   8.222   4.032   4.425 -0.5768 -0.6324 -1.4843
27213SOL    HW291954   8.073   4.044   4.405 -0.8417  0.1640  0.6298
27214SOL     OW91955   5.710  11.835   8.412 -0.8307 -0.0986 -0.2905
27214SOL    HW191956   5.764  11.849   8.490  0.6816 -0.5845 -1.2039
27214SOL    HW291957   5.621  11.823   8.446 -0.2728  0.0542  1.3222
27215SOL     OW91958   0.768   9.138   0.102 -0.1024  0.3718 -0.7254
27215SOL    HW191959   0.746   9.192   0.027 -0.1699  1.8403  0.3144
27215SOL    HW291960   0.705   9.162   0.169  0.1551 -0.6769 -0.0780
27216SOL     OW91961   3.918   5.095  11.875  0.2786 -0.5291 -0.1976
27216SOL    HW191962   3.863   5.154  11.824 -2.7219 -1.3905  1.8329
27216SOL    HW291963   3.917   5.013  11.825 -0.7323 -0.6901  0.0729
27217SOL     OW91964   6.422   1.595   4.459 -0.1046 -0.2256  0.1391
27217SOL    HW191965   6.415   1.674   4.512  1.5910  1.2954 -1.7459
27217SOL    HW291966   6.414   1.626   4.368  4.5503 -1.4496 -0.9703
27218SOL     OW91967   4.998  10.629   8.665 -0.2040 -0.7515 -0.7148
27218SOL    HW191968   4.915  10.616   8.711 -0.8772  1.1942 -1.2731
27218SOL    HW291969   4.990  10.716   8.626  1.9779 -0.6741 -1.0905
27219SOL     OW91970   3.388   0.108   3.777  0.0586 -0.6216 -0.5294
27219SOL    HW191971   3.326   0.035   3.773 -0.9490  0.2011 -0.4041
27219SOL    HW291972   3.386   0.137   3.868 -0.5466  0.3730 -0.8406
27220SOL     OW91973   1.167   5.450   2.436 -0.1727 -0.6369 -0.4282
27220SOL    HW191974   1.081   5.430   2.472 -1.1140 -0.5569 -2.4574
27220SOL    HW291975   1.149   5.484   2.348  1.9512 -1.2839 -1.1943
27221SOL     OW91976  10.321   0.019   1.341  0.3637  0.2052  0.7639
27221SOL    HW191977  10.286   0.106   1.358 -1.8127 -0.4220 -0.1324
27221SOL    HW291978  10.264  -0.041   1.389 -0.3005 -0.9091 -1.2528
27222SOL     OW91979   2.349   5.510   2.791  0.7454 -0.2055  0.1183
27222SOL    HW191980   2.383   5.421   2.787 -1.4755 -1.0857 -0.5031
27222SOL    HW291981   2.316   5.528   2.703  0.3624  0.8887  0.4667
27223SOL     OW91982   6.184   9.254   7.342  0.2043 -0.7890  0.5562
27223SOL    HW191983   6.262   9.281   7.295 -0.4498 -0.2861 -0.2534
27223SOL    HW291984   6.197   9.286   7.431  0.7690 -0.4289  0.3461
27224SOL     OW91985  10.438   8.525   0.833 -0.2882 -0.9605  0.1731
27224SOL    HW191986  10.447   8.553   0.742 -0.3451 -0.0689  0.4338
27224SOL    HW291987  10.347   8.499   0.841  0.0482 -2.3710 -0.3804
27225SOL     OW91988  10.059   7.246   5.589  0.2729  0.1894  0.2275
27225SOL    HW191989  10.064   7.151   5.582  1.0372  0.2243  0.2386
27225SOL    HW291990  10.029   7.274   5.502 -2.5344 -0.2069  0.9649
27226SOL     OW91991   6.761   8.820   5.240 -0.3773 -0.4100 -0.5166
27226SOL    HW191992   6.794   8.875   5.169  1.9229  0.5772  1.2125
27226SOL    HW291993   6.789   8.731   5.217 -0.7004 -0.2938 -1.3966
27227SOL     OW91994   4.164   0.587   2.795 -0.2284 -0.3063  0.4473
27227SOL    HW191995   4.155   0.492   2.800 -0.1616 -0.2582  1.8251
27227SOL    HW291996   4.085   0.617   2.749 -0.0019 -1.0473 -0.4675
27228SOL     OW91997   4.397  11.528   7.305  0.1540  0.2427  0.1109
27228SOL    HW191998   4.386  11.476   7.226  1.9927 -0.9933  0.6071
27228SOL    HW291999   4.444  11.471   7.366  1.8808  2.2863  0.8396
27229SOL     OW92000   2.701   6.862   4.571  0.3808  0.3081  0.2155
27229SOL    HW192001   2.621   6.894   4.611 -0.7751 -0.0128 -1.6886
27229SOL    HW292002   2.724   6.784   4.621 -2.1811 -1.3030 -0.8944
27230SOL     OW92003   0.615   4.892   5.728 -0.0227  0.2406 -0.4143
27230SOL    HW192004   0.561   4.870   5.652 -1.1084  3.7068 -0.8380
27230SOL    HW292005   0.697   4.846   5.714  0.1814  1.4666 -4.2740
27231SOL     OW92006   4.022  11.219   2.936  0.2840  0.4556 -0.0251
27231SOL    HW192007   4.080  11.173   2.996 -0.5900  1.7001  1.8977
27231SOL    HW292008   4.075  11.234   2.858  2.0620  0.2788  1.0873
27232SOL     OW92009  12.652   3.703   8.673 -0.2098  0.0146  0.0210
27232SOL    HW192010  12.736   3.662   8.693  0.7883  2.1788  0.5137
27232SOL    HW292011  12.638   3.684   8.580  2.4397  2.1866 -0.9632
27233SOL     OW92012   9.756  10.468   7.365 -0.3865  0.7519  0.0526
27233SOL    HW192013   9.847  10.482   7.340 -0.8295  1.7757 -1.0990
27233SOL    HW292014   9.760  10.430   7.453  1.1160  1.9068  0.5102
27234SOL     OW92015   1.191   1.204  12.274 -0.9016  0.1049 -0.1789
27234SOL    HW192016   1.117   1.169  12.323 -0.1927  0.4679  1.2028
27234SOL    HW292017   1.214   1.285  12.320 -0.1494  0.4137 -1.0652
27235SOL     OW92018   9.548   4.075   7.502  0.2350 -0.3364 -0.0172
27235SOL    HW192019   9.581   4.007   7.561  0.7764  1.2982  1.6349
27235SOL    HW292020   9.459   4.093   7.533  0.5671  0.6218  0.3977
27236SOL     OW92021   9.266  11.709   3.712  0.5665 -0.0903  0.6116
27236SOL    HW192022   9.336  11.769   3.737  1.3589 -0.7493  0.0256
27236SOL    HW292023   9.267  11.641   3.780 -0.1172  0.3759  1.0989
27237SOL     OW92024   8.289   4.589  11.602  0.1645 -0.1496  0.9679
27237SOL    HW192025   8.194   4.587  11.611 -0.0443 -1.1420 -0.8953
27237SOL    HW292026   8.322   4.579  11.691 -1.5048 -2.1431  1.4433
27238SOL     OW92027   1.451   7.481   1.833 -0.2762  0.4209 -0.1502
27238SOL    HW192028   1.422   7.556   1.780 -1.4077  0.5595  0.6396
27238SOL    HW292029   1.375   7.458   1.886  0.6760 -0.0476  1.0523
27239SOL     OW92030  10.961  11.487   3.993  0.2344 -0.4562  0.7385
27239SOL    HW192031  10.907  11.560   3.963 -0.5565 -1.0229  0.7491
27239SOL    HW292032  10.953  11.421   3.924  1.8160 -0.1378  0.2106
27240SOL     OW92033   0.055  12.919   0.854 -0.3769 -0.5242  0.3642
27240SOL    HW192034  -0.008  12.991   0.845  0.8654  0.5137 -0.3944
27240SOL    HW292035   0.139  12.958   0.830  0.1830 -2.5187 -1.1326
27241SOL     OW92036   8.182  11.882   8.659 -0.2584  0.5608  1.0864
27241SOL    HW192037   8.251  11.883   8.726  0.0386 -1.1280  0.8595
27241SOL    HW292038   8.138  11.798   8.672 -0.4143  0.3530 -0.6179
27242SOL     OW92039   2.851  12.316   1.552 -0.4594  0.1448 -0.0786
27242SOL    HW192040   2.766  12.335   1.592  0.5578  0.5586  2.0419
27242SOL    HW292041   2.834  12.319   1.458 -2.3287  2.5081  0.2146
27243SOL     OW92042   0.924   3.718   8.154 -0.2921 -0.0558 -0.1549
27243SOL    HW192043   1.008   3.706   8.108 -0.4596 -0.0536 -0.4627
27243SOL    HW292044   0.944   3.696   8.245 -0.2032 -1.0748 -0.4030
27244SOL     OW92045   2.989   3.698   0.610  0.4762  0.2900 -0.5286
27244SOL    HW192046   2.926   3.711   0.539  1.1649  2.0834 -0.8610
27244SOL    HW292047   2.955   3.754   0.681  1.0604  0.3471 -0.2934
27245SOL     OW92048   5.079   5.635   7.480  0.0213 -0.0729  0.2680
27245SOL    HW192049   4.998   5.585   7.491 -0.9510  1.8873  3.2237
27245SOL    HW292050   5.120   5.634   7.567  0.8791  2.6105 -0.0154
27246SOL     OW92051   7.866   8.830   1.347  0.2506  0.1525 -0.1463
27246SOL    HW192052   7.807   8.759   1.322 -0.1068  0.2895  0.2744
27246SOL    HW292053   7.807   8.899   1.378  0.5981  0.5877 -0.4434
27247SOL     OW92054   2.813   2.606   0.504 -0.0257  0.4388 -0.1555
27247SOL    HW192055   2.880   2.633   0.441  0.0685 -0.5053 -0.4807
27247SOL    HW292056   2.856   2.612   0.589 -0.3363  2.3016 -0.0880
27248SOL     OW92057   3.418   8.526   8.216 -0.2583  0.0803 -0.5392
27248SOL    HW192058   3.481   8.541   8.287 -0.1282 -0.7928 -0.4659
27248SOL    HW292059   3.414   8.611   8.171 -0.9371  0.8954  0.9676
27249SOL     OW92060  12.765   9.741   9.570  0.1716 -0.4585 -0.3307
27249SOL    HW192061  12.749   9.671   9.633 -1.6721  0.7034  0.5817
27249SOL    HW292062  12.715   9.715   9.493  1.0550 -1.0500 -0.7246
27250SOL     OW92063   0.890   0.826   7.809 -0.3988 -0.0311 -0.2874
27250SOL    HW192064   0.885   0.845   7.902  0.7407  1.7245 -0.5327
27250SOL    HW292065   0.965   0.767   7.800  0.8283  1.4579 -0.2628
27251SOL     OW92066   1.474   8.390   7.420  0.0397  0.4118  0.6630
27251SOL    HW192067   1.408   8.411   7.355 -0.7400 -2.3366  0.4470
27251SOL    HW292068   1.557   8.398   7.374 -0.2950  1.4206  0.2181
27252SOL     OW92069   7.800   6.512   4.402  0.4080 -0.3453 -0.4364
27252SOL    HW192070   7.784   6.440   4.341 -1.0091 -0.1983 -0.2716
27252SOL    HW292071   7.842   6.580   4.349 -0.7921 -0.2296 -1.2662
27253SOL     OW92072  12.061  11.074  11.591 -0.5895  0.1280  0.4928
27253SOL    HW192073  12.023  11.023  11.519  0.2312 -1.0103  0.8313
27253SOL    HW292074  12.131  11.124  11.550  2.3223 -3.2016  0.9375
27254SOL     OW92075   8.422   2.328   1.699  0.3208  0.1110 -0.0699
27254SOL    HW192076   8.377   2.307   1.781 -0.0920 -0.7231 -0.4927
27254SOL    HW292077   8.513   2.301   1.714  0.0848 -0.7541 -0.1318
27255SOL     OW92078   3.205   8.527   4.920  0.5009  0.1651 -0.5972
27255SOL    HW192079   3.294   8.545   4.889 -0.0493  0.5847 -1.9873
27255SOL    HW292080   3.148   8.553   4.848 -0.8068  0.6093  0.5413
27256SOL     OW92081   7.074   0.330  10.424 -0.8500 -0.0095  0.7298
27256SOL    HW192082   7.023   0.341  10.344 -1.1302  0.5464  0.9785
27256SOL    HW292083   7.111   0.417  10.441 -1.4666  0.0863  1.6477
27257SOL     OW92084  11.575   7.683   4.235  0.5611  0.0856  0.0901
27257SOL    HW192085  11.644   7.686   4.302  1.2573  0.1019 -0.6156
27257SOL    HW292086  11.548   7.591   4.232  1.5869 -0.2035 -0.6562
27258SOL     OW92087   9.788  11.459   2.054  0.7177 -0.0214  0.2722
27258SOL    HW192088   9.848  11.498   1.990  0.9256 -0.3674  0.2535
27258SOL    HW292089   9.811  11.366   2.054 -1.1602 -0.5614 -1.2405
27259SOL     OW92090   0.439   3.549   1.914 -0.0375  0.2786 -0.6484
27259SOL    HW192091   0.358   3.584   1.875  0.2818  0.8016 -0.8516
27259SOL    HW292092   0.408   3.489   1.982 -0.6026  0.7277 -0.4979
27260SOL     OW92093   4.426  11.238   7.281  0.1478 -0.1529 -0.0631
27260SOL    HW192094   4.507  11.232   7.331  2.0092  2.6346 -2.3765
27260SOL    HW292095   4.358  11.259   7.345  1.7707  0.1205  1.6278
27261SOL     OW92096   2.138  12.916  10.266  0.0311  0.6034 -0.6433
27261SOL    HW192097   2.176  12.952  10.346 -1.6870 -1.5370  1.2425
27261SOL    HW292098   2.164  12.824  10.265 -1.3189  0.1928 -1.6942
27262SOL     OW92099  10.027   0.090   4.095  0.3577 -0.1783  0.1590
27262SOL    HW192100  10.122   0.100   4.087  0.0477  2.3933 -1.0920
27262SOL    HW292101  10.001   0.156   4.159 -0.6351 -0.6011  0.2080
27263SOL     OW92102   0.285   0.438   4.086  0.8655 -0.0714 -0.0957
27263SOL    HW192103   0.241   0.363   4.127  0.9889 -0.0341  0.1067
27263SOL    HW292104   0.321   0.488   4.160 -1.8300  1.8871  0.0627
27264SOL     OW92105   5.903   0.153   6.509  0.9571  0.6537 -0.5239
27264SOL    HW192106   5.930   0.239   6.541 -1.7168  1.6091 -0.5293
27264SOL    HW292107   5.812   0.166   6.480  1.2421 -1.6221 -2.7945
27265SOL     OW92108   9.479   7.891   4.796  0.7107  0.3943  0.5413
27265SOL    HW192109   9.391   7.865   4.768  0.9479  0.5164 -0.3483
27265SOL    HW292110   9.484   7.864   4.888 -0.2415  0.3553  0.5916
27266SOL     OW92111   9.992   6.718   3.800 -0.0084 -0.6237 -0.1093
27266SOL    HW192112  10.032   6.632   3.806 -0.5380 -0.9795 -1.3158
27266SOL    HW292113   9.932   6.712   3.725  0.1376  0.8648 -0.3839
27267SOL     OW92114   9.554   8.925   2.500  0.1995 -0.0373 -0.0694
27267SOL    HW192115   9.461   8.926   2.478  0.2602 -2.0576 -0.5730
27267SOL    HW292116   9.599   8.923   2.416  0.6435 -0.8168  0.1788
27268SOL     OW92117   8.078   5.888   2.062  0.4197  0.1667 -0.3002
27268SOL    HW192118   8.033   5.972   2.048  0.8035  0.9268  2.4737
27268SOL    HW292119   8.171   5.911   2.062  0.6018 -0.5436 -1.0628
27269SOL     OW92120  12.073   7.855   8.786 -0.0500  0.0034  0.3085
27269SOL    HW192121  11.985   7.837   8.752 -0.9440  0.7104  2.1417
27269SOL    HW292122  12.123   7.879   8.708 -1.6053  0.0671 -0.7329
27270SOL     OW92123   4.487   1.385   5.422  0.1736  0.0524  0.4488
27270SOL    HW192124   4.561   1.437   5.455 -0.7443  0.9899  1.0645
27270SOL    HW292125   4.525   1.298   5.407  1.8060  0.9274 -0.8763
27271SOL     OW92126   0.961   4.016   5.221 -0.0441  0.2000  0.0945
27271SOL    HW192127   1.035   4.076   5.231  0.5734 -0.6179  0.6553
27271SOL    HW292128   0.905   4.057   5.156  0.6877  1.0561 -0.0177
27272SOL     OW92129   3.227  10.495  11.625 -0.0794  0.1933  0.6800
27272SOL    HW192130   3.196  10.522  11.712 -0.2581 -0.0444  0.6894
27272SOL    HW292131   3.290  10.425  11.643 -0.2476  0.0245  0.6056
27273SOL     OW92132   3.000  10.888   2.168  0.2548 -0.3324  0.4666
27273SOL    HW192133   3.056  10.962   2.143  0.1787 -0.7206 -0.9246
27273SOL    HW292134   3.058  10.830   2.218  1.3952 -1.1489 -1.6767
27274SOL     OW92135   2.734   3.922   9.175  0.6915 -0.1502 -0.4328
27274SOL    HW192136   2.709   3.845   9.123  2.2495 -0.0379 -1.4205
27274SOL    HW292137   2.828   3.914   9.185  0.5197  0.2312  1.8151
27275SOL     OW92138   5.125   2.978   0.978  0.2296 -0.9183  0.3194
27275SOL    HW192139   5.060   3.048   0.979 -0.2466 -1.3491  0.1532
27275SOL    HW292140   5.110   2.933   0.894  1.2657 -0.5397 -0.0766
27276SOL     OW92141   8.106   2.802   0.626 -0.3077  0.2487 -0.8731
27276SOL    HW192142   8.133   2.832   0.540 -1.5987  1.0728 -1.0213
27276SOL    HW292143   8.026   2.851   0.645 -0.6455 -0.6950  0.3325
27277SOL     OW92144   2.155   8.410   1.721 -0.8082  0.1093  0.1471
27277SOL    HW192145   2.061   8.425   1.711 -0.6655 -0.0748 -1.9533
27277SOL    HW292146   2.164   8.375   1.809 -2.8478 -0.9341  0.0089
27278SOL     OW92147   2.226  12.183   9.219  0.6139  0.0863 -0.0914
27278SOL    HW192148   2.203  12.268   9.257  0.9108 -0.4603  1.3603
27278SOL    HW292149   2.146  12.130   9.228  0.5355  0.0865 -0.6909
27279SOL     OW92150   5.276   5.026   9.695  0.2935 -0.0043  0.2268
27279SOL    HW192151   5.275   4.939   9.733 -0.5675  0.2231  0.7515
27279SOL    HW292152   5.362   5.034   9.655  1.5178  0.0050  2.7078
27280SOL     OW92153   9.817   0.500   7.337 -0.1924  0.8568 -0.0358
27280SOL    HW192154   9.911   0.512   7.351  0.2071 -0.5598 -1.2408
27280SOL    HW292155   9.802   0.532   7.248 -0.6463  0.1376 -0.2272
27281SOL     OW92156  11.646   5.190   6.673  0.4671 -0.6229  0.2539
27281SOL    HW192157  11.709   5.249   6.715  1.3006  1.5387 -3.6357
27281SOL    HW292158  11.560   5.225   6.698  0.8932  0.0410  0.8443
27282SOL     OW92159   3.670  12.940  10.118 -0.1461  0.2659  1.0628
27282SOL    HW192160   3.650  12.931  10.211 -3.2501  0.4685  0.5437
27282SOL    HW292161   3.653  13.032  10.098  0.6911  0.2694  0.3302
27283SOL     OW92162  10.224   9.542  12.920  0.2627  0.2643  0.0019
27283SOL    HW192163  10.162   9.574  12.854 -0.0767  1.3803  0.8300
27283SOL    HW292164  10.174   9.540  13.001  1.1668  0.6950  0.5866
27284SOL     OW92165   9.011  12.396   3.604 -0.0013  0.1547  0.1059
27284SOL    HW192166   8.964  12.324   3.646  0.3011 -0.5224 -0.6959
27284SOL    HW292167   9.095  12.357   3.577  0.5315  1.0340  0.4379
27285SOL     OW92168  11.762   8.963  10.699  0.4081  0.0927 -0.1595
27285SOL    HW192169  11.776   8.922  10.784  0.7554  0.3660 -0.0808
27285SOL    HW292170  11.684   8.920  10.664  1.6501 -1.7760 -0.7924
27286SOL     OW92171   8.350   0.457   4.958 -0.3463 -0.9757 -0.2673
27286SOL    HW192172   8.342   0.528   4.895  1.7154  0.4051  0.9020
27286SOL    HW292173   8.392   0.386   4.910  0.4829 -0.2259 -0.6700
27287SOL     OW92174  10.774   9.325  10.714 -0.1302 -0.0071  0.1597
27287SOL    HW192175  10.850   9.281  10.753 -0.9726 -0.3687  1.4287
27287SOL    HW292176  10.764   9.406  10.763 -2.2866 -1.2892  2.0789
27288SOL     OW92177   0.619  10.472   7.780 -0.0429  0.9050 -0.1382
27288SOL    HW192178   0.569  10.505   7.705 -1.0276  0.4205  0.2896
27288SOL    HW292179   0.643  10.551   7.829  2.2942  1.4403 -1.9127
27289SOL     OW92180   5.737   5.009   2.472 -0.0712 -0.8692 -0.3251
27289SOL    HW192181   5.650   4.980   2.500 -0.0318 -0.0785  0.6813
27289SOL    HW292182   5.750   5.093   2.518  1.3839 -1.1709 -0.1396
27290SOL     OW92183   3.495   8.015   6.312  0.0170 -0.8615 -0.4586
27290SOL    HW192184   3.512   7.921   6.309  1.6756 -0.6450  0.9711
27290SOL    HW292185   3.410   8.022   6.356 -0.3710 -1.6874 -1.0369
27291SOL     OW92186   7.738   4.056   1.410 -0.4213 -0.5549  0.0223
27291SOL    HW192187   7.779   4.106   1.481  0.1247  0.4202 -0.9533
27291SOL    HW292188   7.653   4.029   1.446  0.7801 -2.1334  1.8844
27292SOL     OW92189  11.245   4.284   9.053 -0.0959  0.4819 -0.2615
27292SOL    HW192190  11.183   4.335   9.000 -1.1631 -0.1119  0.3943
27292SOL    HW292191  11.331   4.320   9.029 -0.6471  1.0709 -1.4583
27293SOL     OW92192   1.034   2.660   3.828  0.0670 -0.4683  0.1992
27293SOL    HW192193   0.964   2.623   3.881 -0.2690 -1.1350 -0.6996
27293SOL    HW292194   1.095   2.698   3.892 -1.6042  1.0745  0.9620
27294SOL     OW92195   0.738   4.050   9.777 -0.4228  0.1842 -0.8419
27294SOL    HW192196   0.749   4.053   9.682  0.7214  1.0175 -0.6995
27294SOL    HW292197   0.656   4.097   9.793  0.3713  1.7468 -1.2792
27295SOL     OW92198   8.883   9.934   2.639 -0.0035  0.2980  0.3976
27295SOL    HW192199   8.938   9.991   2.694 -0.0028  0.4730  0.2156
27295SOL    HW292200   8.801   9.983   2.629  0.2467  0.5768 -0.3292
27296SOL     OW92201   0.195   2.313  11.334  0.1568 -0.5831 -0.2787
27296SOL    HW192202   0.179   2.407  11.324  0.6236 -0.3454  0.9532
27296SOL    HW292203   0.112   2.272  11.311 -0.1813  0.1619 -0.4189
27297SOL     OW92204   9.654  10.510   0.756 -0.2530 -0.1429 -0.3209
27297SOL    HW192205   9.616  10.528   0.670  2.2604  0.0323 -1.4755
27297SOL    HW292206   9.659  10.596   0.798 -0.1603 -0.0160 -0.5879
27298SOL     OW92207   4.179   2.516  12.676 -0.3585  0.0645  0.1959
27298SOL    HW192208   4.153   2.606  12.695 -0.1853  0.1339  0.1094
27298SOL    HW292209   4.243   2.524  12.605  0.3503 -0.0512  0.8045
27299SOL     OW92210   2.665  11.403   8.982  0.8327  0.0715  0.2817
27299SOL    HW192211   2.678  11.330   8.920 -1.4721 -0.5950  0.4852
27299SOL    HW292212   2.681  11.481   8.929  3.0294 -0.4938 -0.0335
27300SOL     OW92213   3.761   7.070   0.437  0.1075 -0.1384 -0.3729
27300SOL    HW192214   3.791   6.979   0.442 -0.2584 -0.2501 -0.1596
27300SOL    HW292215   3.833   7.117   0.396 -0.2168 -0.7654 -1.7290
27301SOL     OW92216   3.989   7.953   4.044 -0.0203  0.2760 -0.7537
27301SOL    HW192217   4.004   7.865   4.078 -1.5225  1.1946  2.7556
27301SOL    HW292218   4.073   7.981   4.009  1.1213 -1.6759  0.3000
27302SOL     OW92219  10.699   8.073   9.339  0.4554 -0.3669  0.0347
27302SOL    HW192220  10.728   8.092   9.250  0.4037 -0.8188 -0.0788
27302SOL    HW292221  10.614   8.117   9.346 -0.1899 -1.4704 -0.5994
27303SOL     OW92222   7.304   3.457   9.141  0.0485 -0.7721 -0.2837
27303SOL    HW192223   7.230   3.462   9.081  0.2782 -2.1390 -0.7212
27303SOL    HW292224   7.375   3.504   9.097 -0.4996  0.4333  0.0800
27304SOL     OW92225   3.595   9.449   2.176 -0.6556  0.8913 -0.5164
27304SOL    HW192226   3.675   9.396   2.174 -0.2941  1.2070  2.1064
27304SOL    HW292227   3.535   9.403   2.117  0.7276 -0.6045 -0.8446
27305SOL     OW92228   4.939   6.437   6.580 -0.0376  0.2819  0.1665
27305SOL    HW192229   4.956   6.448   6.674 -1.4140  0.1608  0.4506
27305SOL    HW292230   4.996   6.501   6.538 -0.0648  0.9857  1.1536
27306SOL     OW92231   6.214   1.607   6.815 -0.2180 -0.5318  0.3067
27306SOL    HW192232   6.121   1.623   6.798 -0.9400 -3.1281  1.3103
27306SOL    HW292233   6.238   1.537   6.754  1.2235  0.3735 -0.2107
27307SOL     OW92234   1.807   0.941   0.166 -0.0171  0.4429  0.4661
27307SOL    HW192235   1.798   0.989   0.248 -2.9307  1.0990 -0.1216
27307SOL    HW292236   1.731   0.883   0.164  1.5128 -1.6434 -0.5101
27308SOL     OW92237  10.571  10.243   1.216  0.2032  0.3969  0.0835
27308SOL    HW192238  10.498  10.231   1.278  0.5536 -1.4437  0.2214
27308SOL    HW292239  10.629  10.305   1.260 -0.9161  1.3135  0.3078
27309SOL     OW92240   2.685   0.626   6.699  0.5402  0.2319 -0.1225
27309SOL    HW192241   2.650   0.544   6.666 -0.2776  1.5069 -2.7348
27309SOL    HW292242   2.780   0.620   6.686  0.5117 -0.3879 -0.0338
27310SOL     OW92243  10.827   6.995   5.287 -0.0103 -0.3387  0.3189
27310SOL    HW192244  10.774   7.066   5.250  1.5968  0.5418 -0.3824
27310SOL    HW292245  10.836   6.932   5.216  0.7529  0.0340  0.0680
27311SOL     OW92246  11.141   0.202   9.644  1.0075 -0.8953 -0.2139
27311SOL    HW192247  11.106   0.193   9.556  0.4766 -1.8949  0.0780
27311SOL    HW292248  11.169   0.293   9.650 -2.9699  0.5297 -0.0002
27312SOL     OW92249  10.342   4.882  12.773 -0.2467  0.1621  0.6457
27312SOL    HW192250  10.263   4.834  12.747  0.8314 -1.2012 -0.2595
27312SOL    HW292251  10.310   4.968  12.799 -2.0300 -0.3459  0.2840
27313SOL     OW92252   2.378   0.137   1.733  0.0246 -0.9480 -0.1911
27313SOL    HW192253   2.360   0.220   1.690 -0.4369 -0.9161  0.0633
27313SOL    HW292254   2.474   0.134   1.741 -0.0168  0.1682  0.9936
27314SOL     OW92255   9.324   2.763   1.747  0.6962 -0.4788 -0.4463
27314SOL    HW192256   9.288   2.768   1.835 -0.4822  0.8945 -0.9620
27314SOL    HW292257   9.399   2.823   1.747  1.7775 -1.7845  0.0631
27315SOL     OW92258   4.948   6.706   7.510  0.6265  0.3097  0.6647
27315SOL    HW192259   4.978   6.651   7.582 -1.4823 -0.3079  1.1469
27315SOL    HW292260   5.021   6.705   7.447  2.8343  1.4826  3.0310
27316SOL     OW92261   2.589   6.606   6.086  0.6503 -1.0156 -0.4456
27316SOL    HW192262   2.508   6.612   6.138  1.1393 -2.6611  0.5670
27316SOL    HW292263   2.587   6.684   6.030 -0.9526 -0.2988  0.5360
27317SOL     OW92264   2.528   2.723   2.687 -0.5834 -0.3685  0.0249
27317SOL    HW192265   2.542   2.718   2.781 -1.0307  1.5686  0.2311
27317SOL    HW292266   2.615   2.708   2.649  0.2231  1.7267  0.8900
27318SOL     OW92267   6.286   8.847   0.298 -0.2528  0.4046 -0.0130
27318SOL    HW192268   6.254   8.831   0.387  1.1044 -0.7581  0.3060
27318SOL    HW292269   6.324   8.764   0.271 -1.3353  0.5050 -2.0138
27319SOL     OW92270  11.740   9.156  10.421 -0.0550  0.4288 -0.3989
27319SOL    HW192271  11.659   9.207  10.415 -0.1026  0.1724 -2.6141
27319SOL    HW292272  11.781   9.187  10.502 -2.4747  0.3426  0.9750
27320SOL     OW92273  10.368  10.657   3.457 -0.1492  0.0720  0.3178
27320SOL    HW192274  10.277  10.626   3.460 -0.0017 -0.4338 -0.3287
27320SOL    HW292275  10.395  10.660   3.549 -1.1416  1.2072  0.5923
27321SOL     OW92276   5.957   0.617   7.516 -0.1877 -0.3302  0.5782
27321SOL    HW192277   5.936   0.613   7.609  0.2959  0.8297  0.7477
27321SOL    HW292278   6.015   0.692   7.507  1.0657 -1.3758 -0.4269
27322SOL     OW92279   2.596   9.322  10.155  0.8795 -0.5219 -0.1272
27322SOL    HW192280   2.557   9.295  10.237  1.3505 -1.3846 -0.1787
27322SOL    HW292281   2.542   9.282  10.087  0.4044  0.3045 -0.2580
27323SOL     OW92282   6.236   2.884  12.651  0.2370 -0.2003 -0.6756
27323SOL    HW192283   6.291   2.906  12.726 -1.9434  1.8549  0.4567
27323SOL    HW292284   6.264   2.943  12.581  0.5231 -0.2913 -0.6380
27324SOL     OW92285   2.816   1.018  11.370  0.2575  0.4478 -0.3381
27324SOL    HW192286   2.877   0.964  11.421  0.9409 -0.0617 -1.6453
27324SOL    HW292287   2.803   1.097  11.422  2.5710  0.8720 -0.3228
27325SOL     OW92288  10.807   4.865  12.820 -0.3452 -0.0339  0.4506
27325SOL    HW192289  10.827   4.894  12.731  0.4474 -2.1712 -0.1272
27325SOL    HW292290  10.812   4.944  12.873  0.7772  1.0144 -1.1562
27326SOL     OW92291  11.883  10.217  11.099 -0.3292  0.3556 -0.3026
27326SOL    HW192292  11.892  10.202  11.193 -1.1531  0.5697 -0.1905
27326SOL    HW292293  11.831  10.296  11.091  0.6314  0.9410 -0.9395
27327SOL     OW92294   0.116   0.888   7.172 -0.3424  0.0333 -0.2154
27327SOL    HW192295   0.058   0.828   7.125  0.6379 -0.6882 -0.5287
27327SOL    HW292296   0.202   0.874   7.133  0.9011 -1.8070  2.7851
27328SOL     OW92297   3.395   8.848   1.539 -0.3389 -0.0562 -0.6230
27328SOL    HW192298   3.334   8.885   1.475  0.9656  0.3266 -1.6905
27328SOL    HW292299   3.398   8.913   1.609 -0.5972  0.2591 -0.9001
27329SOL     OW92300   5.269   8.179   5.688 -0.0656 -0.4392 -0.4631
27329SOL    HW192301   5.189   8.131   5.709 -0.1437 -0.0964  0.0591
27329SOL    HW292302   5.340   8.122   5.717 -0.1746  0.0461  0.8467
27330SOL     OW92303   5.572   2.867   5.845  0.3967 -0.5056  0.0205
27330SOL    HW192304   5.614   2.949   5.821  1.3697 -0.8505  0.5313
27330SOL    HW292305   5.628   2.829   5.912 -0.2453 -1.4092  0.0654
27331SOL     OW92306   4.620  11.691   6.507 -0.1063 -0.1368  0.4105
27331SOL    HW192307   4.529  11.672   6.531  0.5996  0.4470  4.2337
27331SOL    HW292308   4.634  11.642   6.426 -3.5201 -1.0135  0.1814
27332SOL     OW92309   3.764  11.680   7.818  0.3509 -0.1422  0.2349
27332SOL    HW192310   3.682  11.639   7.844  0.5596 -1.3202 -0.8563
27332SOL    HW292311   3.827  11.608   7.813  1.7807  0.8799  2.1431
27333SOL     OW92312   5.326  12.882   6.966 -0.0900 -0.2585 -0.3940
27333SOL    HW192313   5.301  12.941   6.894 -1.1529 -0.0610  0.1137
27333SOL    HW292314   5.302  12.930   7.045 -0.5989 -1.1997  0.0404
27334SOL     OW92315   6.114   6.495   9.874  0.2682  0.1720  0.3414
27334SOL    HW192316   6.163   6.414   9.864  0.3992 -0.0301  2.3610
27334SOL    HW292317   6.036   6.471   9.923 -0.0423  1.1547  0.3567
27335SOL     OW92318  11.778   1.356   3.748  0.3866 -0.5624 -0.3532
27335SOL    HW192319  11.768   1.423   3.681 -0.3448 -1.1046 -0.8088
27335SOL    HW292320  11.708   1.374   3.811  0.8645 -0.2545  0.0992
27336SOL     OW92321  12.140  12.672   1.022  0.4244 -0.4078 -0.6092
27336SOL    HW192322  12.211  12.638   0.966  1.2966  2.3615 -1.3308
27336SOL    HW292323  12.153  12.629   1.106  3.3303  0.3497 -0.5697
27337SOL     OW92324   7.532   4.506   1.899  0.0391  0.0147 -0.1047
27337SOL    HW192325   7.478   4.545   1.830  0.3968 -1.2606 -1.1304
27337SOL    HW292326   7.620   4.542   1.884 -0.1136  0.6420  0.4287
27338SOL     OW92327   2.316   5.340   7.213  0.6973 -0.0023  0.3228
27338SOL    HW192328   2.379   5.404   7.179  1.0228 -0.3091  0.3359
27338SOL    HW292329   2.361   5.256   7.205  0.4687 -0.1704  0.7751
27339SOL     OW92330   3.973   1.393   6.550  0.3831 -0.2856 -0.2994
27339SOL    HW192331   3.886   1.374   6.586 -0.2322  1.0434 -1.0127
27339SOL    HW292332   3.963   1.478   6.507  1.8743 -0.4268 -0.9801
27340SOL     OW92333   4.804   7.851   9.285  0.4616 -0.4171 -0.4071
27340SOL    HW192334   4.764   7.893   9.209  2.3664  0.1136 -1.1720
27340SOL    HW292335   4.737   7.857   9.353 -0.8259  0.2229 -1.6708
27341SOL     OW92336  12.567   4.594  11.458 -0.6505 -0.1721  0.1227
27341SOL    HW192337  12.551   4.619  11.549 -0.7424 -0.5345  0.2055
27341SOL    HW292338  12.656   4.624  11.440 -0.3889 -0.6866  0.5367
27342SOL     OW92339   5.730   8.327   0.759 -0.1896  0.1519  0.2739
27342SOL    HW192340   5.680   8.250   0.732 -1.1267  0.5520  0.8369
27342SOL    HW292341   5.778   8.353   0.680  0.4332 -1.2038  0.1642
27343SOL     OW92342   4.176   8.811   0.107 -0.4767 -0.2949 -0.7484
27343SOL    HW192343   4.251   8.751   0.111 -1.1862 -1.1623 -0.0892
27343SOL    HW292344   4.184   8.853   0.021 -0.1585 -1.5941 -1.3819
27344SOL     OW92345   8.382   8.817   5.726 -0.3868 -0.9707 -0.3492
27344SOL    HW192346   8.380   8.869   5.806 -0.7128 -0.0390 -0.9448
27344SOL    HW292347   8.314   8.752   5.737  0.2757 -1.5251  0.5647
27345SOL     OW92348   9.755   5.566   6.283 -0.0573  0.2245  0.5341
27345SOL    HW192349   9.837   5.555   6.236  0.1286  1.7715  0.4372
27345SOL    HW292350   9.723   5.477   6.297  1.9801 -0.4555  1.2008
27346SOL     OW92351   2.137   4.122   1.310  0.6087 -0.1487  0.6247
27346SOL    HW192352   2.204   4.061   1.280  1.7362  1.8039 -1.0878
27346SOL    HW292353   2.174   4.209   1.292 -1.1220  1.0599  2.4832
27347SOL     OW92354  11.084   3.525   2.711  0.3358 -0.2528  0.0703
27347SOL    HW192355  11.021   3.454   2.719 -0.0356  0.1386  0.7206
27347SOL    HW292356  11.161   3.485   2.671  0.5423 -1.2846  1.4161
27348SOL     OW92357   0.510   2.189   5.860  0.3641 -0.0117 -0.1733
27348SOL    HW192358   0.529   2.130   5.787 -0.4762 -0.2114 -0.2400
27348SOL    HW292359   0.524   2.136   5.938 -0.4064 -0.3121 -0.2337
27349SOL     OW92360   1.006   4.677   2.357 -0.2870 -0.6947  0.8266
27349SOL    HW192361   1.074   4.695   2.421  1.1346 -3.3247  0.1863
27349SOL    HW292362   0.926   4.664   2.409 -0.2422  1.6509  1.6339
27350SOL     OW92363   6.703   5.631   3.324 -0.0746  0.3450  0.0361
27350SOL    HW192364   6.779   5.587   3.362  0.1395  0.9218  0.2804
27350SOL    HW292365   6.702   5.718   3.364 -1.3240  0.0726  0.6403
27351SOL     OW92366  12.162   5.698   3.840  0.1555 -0.3917  0.0933
27351SOL    HW192367  12.206   5.715   3.924 -0.3348 -0.9396  0.4705
27351SOL    HW292368  12.229   5.717   3.774  0.8579 -0.8776  0.6452
27352SOL     OW92369  12.167   1.444   7.861 -0.4230  0.0136  0.3980
27352SOL    HW192370  12.143   1.480   7.776  2.8562  1.1889 -0.1758
27352SOL    HW292371  12.184   1.351   7.844 -1.3281 -0.1164  0.1619
27353SOL     OW92372   9.250   8.152   5.876  0.5634 -0.5894  0.0617
27353SOL    HW192373   9.324   8.163   5.817  2.0756 -1.0012  1.7842
27353SOL    HW292374   9.239   8.057   5.885 -0.7795 -0.5501 -0.8548
27354SOL     OW92375   3.385   9.526   9.367 -0.5288 -0.1716 -0.6716
27354SOL    HW192376   3.481   9.529   9.356 -0.2480 -0.5930  1.2730
27354SOL    HW292377   3.372   9.483   9.451 -2.3867  1.3922 -0.0973
27355SOL     OW92378   2.708  10.346   3.032 -0.0827 -0.1691 -0.0811
27355SOL    HW192379   2.739  10.398   2.958  1.3078 -0.7177  0.0792
27355SOL    HW292380   2.720  10.255   3.005  0.6912 -0.3772  0.8940
27356SOL     OW92381  11.335   5.020   5.075  0.7299  0.2005 -0.4480
27356SOL    HW192382  11.386   4.939   5.062 -0.1368 -0.3711 -0.3330
27356SOL    HW292383  11.369   5.080   5.009  0.3818 -0.7516 -1.5251
27357SOL     OW92384   9.934   3.079   7.503  0.1644  0.3623 -0.1390
27357SOL    HW192385   9.971   3.166   7.521 -1.1738  0.9050  0.0825
27357SOL    HW292386   9.863   3.070   7.566  0.2985 -0.9075 -0.1544
27358SOL     OW92387   4.170   7.557  11.809 -1.0313  0.1507 -0.0210
27358SOL    HW192388   4.104   7.501  11.768 -0.8872 -0.9691  1.2214
27358SOL    HW292389   4.126   7.592  11.887 -0.1321 -0.7658  0.9281
27359SOL     OW92390   8.934   9.696   5.454 -0.3261 -0.0316  0.3569
27359SOL    HW192391   8.915   9.687   5.547  0.7518  0.1895  0.6120
27359SOL    HW292392   9.025   9.728   5.451 -0.5488  0.5447 -0.7474
27360SOL     OW92393  11.316   8.423   2.237  0.4127 -0.4520  0.6183
27360SOL    HW192394  11.252   8.484   2.274 -0.0330 -0.2044 -0.5211
27360SOL    HW292395  11.267   8.341   2.225  0.1164 -0.0917 -0.8032
27361SOL     OW92396   1.836   8.837  11.020  0.2090  0.1228 -0.8048
27361SOL    HW192397   1.876   8.872  11.100  0.6354 -1.3030 -0.3515
27361SOL    HW292398   1.746   8.869  11.022 -0.1081 -0.7388  0.8387
27362SOL     OW92399   3.527   1.731   8.849  0.5937  0.0319 -0.1418
27362SOL    HW192400   3.554   1.711   8.759  0.5653  1.0578 -0.3850
27362SOL    HW292401   3.440   1.769   8.841  0.5015 -0.0663  0.3442
27363SOL     OW92402   8.632   9.928   3.838 -0.5682  0.2772  0.7197
27363SOL    HW192403   8.553   9.950   3.887 -0.8851 -1.2794  0.9319
27363SOL    HW292404   8.616   9.841   3.803  1.2374 -0.2655  1.1489
27364SOL     OW92405   0.297   9.518   9.075 -0.0840 -0.0264  0.1960
27364SOL    HW192406   0.371   9.549   9.025  0.7025  0.4503  1.6075
27364SOL    HW292407   0.335   9.474   9.151 -1.1611  2.1748  2.1636
27365SOL     OW92408   2.887   4.892  12.463  0.4701 -0.8872 -0.5174
27365SOL    HW192409   2.908   4.815  12.410 -1.9601 -2.5333  0.7047
27365SOL    HW292410   2.801   4.921  12.431 -0.1650 -0.7513  1.1990
27366SOL     OW92411  10.417   1.343   4.925  0.0642  0.1648 -0.1798
27366SOL    HW192412  10.379   1.431   4.928  0.3969  0.2917  0.8410
27366SOL    HW292413  10.351   1.287   4.966 -0.0086 -0.0142 -0.5337
27367SOL     OW92414   8.003  12.524   0.617 -0.2043 -0.1488 -0.4664
27367SOL    HW192415   8.039  12.460   0.556  0.0146  0.9323 -1.5057
27367SOL    HW292416   7.942  12.575   0.565 -1.4228 -0.3819  0.6904
27368SOL     OW92417   0.496  10.493   2.453  0.3420 -0.1952  0.0366
27368SOL    HW192418   0.467  10.473   2.363  2.5741 -1.2876 -0.4876
27368SOL    HW292419   0.452  10.576   2.473 -0.8510 -0.3254 -1.7558
27369SOL     OW92420   6.178  10.073   3.781 -0.1578  0.2620 -0.3846
27369SOL    HW192421   6.119  10.002   3.804 -2.9210  2.4505 -0.1663
27369SOL    HW292422   6.188  10.124   3.862  0.7894  0.8187 -0.8242
27370SOL     OW92423  11.728   5.165   9.471 -0.2762 -0.2060  0.2613
27370SOL    HW192424  11.774   5.187   9.552 -1.1402 -0.8110  0.9280
27370SOL    HW292425  11.786   5.102   9.427  0.5959  0.7617 -0.0269
27371SOL     OW92426   5.984  12.112   6.542  0.6167 -0.8867 -0.2841
27371SOL    HW192427   6.018  12.025   6.525  0.7114 -1.0337  0.6348
27371SOL    HW292428   5.983  12.120   6.637 -2.0467 -0.9704 -0.2127
27372SOL     OW92429   4.844   5.027   7.819 -0.3194  0.0148  0.2342
27372SOL    HW192430   4.809   4.939   7.830  1.6265 -0.7062  1.2544
27372SOL    HW292431   4.816   5.053   7.731 -0.8408 -1.6711 -0.1452
27373SOL     OW92432   2.263   7.008  11.118 -0.1143 -0.6806  0.0991
27373SOL    HW192433   2.280   7.012  11.024  0.2449 -0.4247  0.1718
27373SOL    HW292434   2.269   7.099  11.147  2.0160 -0.9874  0.7506
27374SOL     OW92435  11.426   8.322  12.725  0.1740 -0.4423  0.6602
27374SOL    HW192436  11.399   8.413  12.737 -1.0150 -0.7202  0.2410
27374SOL    HW292437  11.349   8.271  12.751 -0.2255 -1.2527 -1.8529
27375SOL     OW92438  11.545   3.435   9.422  0.9185 -0.7156 -0.0399
27375SOL    HW192439  11.503   3.502   9.369  0.4113 -0.9549  0.0480
27375SOL    HW292440  11.636   3.463   9.429  0.9907 -0.6847 -1.0239
27376SOL     OW92441  11.651   6.747  11.035 -0.0464 -0.3838 -0.0093
27376SOL    HW192442  11.640   6.794  10.952 -0.0794 -0.2574  0.0654
27376SOL    HW292443  11.746   6.745  11.049 -0.0927  0.8314  0.6407
27377SOL     OW92444   0.455   9.095  12.830  0.7615 -0.1767 -0.7734
27377SOL    HW192445   0.502   9.175  12.855 -0.4296  0.5834 -0.9151
27377SOL    HW292446   0.487   9.076  12.742 -0.0990  1.0460 -1.3673
27378SOL     OW92447   6.551   9.075   8.781 -0.5752 -0.1248 -0.4025
27378SOL    HW192448   6.477   9.124   8.818  1.1740  1.5896  1.0226
27378SOL    HW292449   6.577   9.015   8.851 -0.1330 -0.1862 -0.6181
27379SOL     OW92450  12.333   1.329   7.477  0.0572 -0.1130 -0.1612
27379SOL    HW192451  12.383   1.384   7.416 -2.0226  0.5649 -1.3717
27379SOL    HW292452  12.243   1.336   7.446 -0.5147 -3.0130  0.6088
27380SOL     OW92453   1.481   9.939   2.383 -1.1027  0.3036 -0.0024
27380SOL    HW192454   1.447   9.957   2.296  0.3712  2.2372 -0.2547
27380SOL    HW292455   1.549   9.873   2.370 -0.6397  0.8488 -0.3990
27381SOL     OW92456  11.032  11.650  12.099 -0.2066  0.4757  0.1406
27381SOL    HW192457  11.064  11.739  12.118 -0.0062  0.1809  1.2382
27381SOL    HW292458  11.099  11.613  12.042  0.2595  0.6606  0.5594
27382SOL     OW92459   8.592   8.495  10.154 -0.0481 -0.1785  0.5093
27382SOL    HW192460   8.610   8.408  10.119 -0.0902  0.2800 -0.7068
27382SOL    HW292461   8.501   8.491  10.184 -0.4466 -0.2461 -0.6275
27383SOL     OW92462   5.861  11.158   9.477  0.7187  0.1306  0.0758
27383SOL    HW192463   5.929  11.211   9.518  0.1487  2.8536 -2.1437
27383SOL    HW292464   5.901  11.126   9.396  0.0092  0.0736 -0.2647
27384SOL     OW92465   5.120   2.919   3.098  0.4719 -0.5729  0.2895
27384SOL    HW192466   5.174   2.855   3.143  1.3466  0.5979  0.9345
27384SOL    HW292467   5.169   3.001   3.104 -0.3258  0.0358 -1.0664
27385SOL     OW92468   6.771   4.216   8.466  1.2281  0.6049  0.4573
27385SOL    HW192469   6.686   4.250   8.493  1.4020  0.3609  1.3458
27385SOL    HW292470   6.798   4.273   8.394  1.2774  2.0372  1.5596
27386SOL     OW92471   5.122   3.166   4.252  0.0807  0.4353  0.2323
27386SOL    HW192472   5.142   3.078   4.222 -0.8170  0.3640 -0.1911
27386SOL    HW292473   5.101   3.155   4.345  0.1987  0.2342  0.2350
27387SOL     OW92474   0.613   5.986   0.719 -0.3242 -0.0199 -0.1873
27387SOL    HW192475   0.684   5.937   0.678  0.7850  1.5591 -0.2360
27387SOL    HW292476   0.569   5.923   0.776 -0.3246 -1.6069 -1.8790
27388SOL     OW92477   7.869   8.454   1.368  0.0149 -0.2754 -0.1377
27388SOL    HW192478   7.832   8.415   1.448  0.5089  0.2367  0.3475
27388SOL    HW292479   7.963   8.440   1.377  0.0440 -0.4853 -0.7803
27389SOL     OW92480   2.099   2.928   6.716  0.3832 -0.0890 -0.3166
27389SOL    HW192481   2.041   2.875   6.771  0.1142 -1.3432 -1.7326
27389SOL    HW292482   2.187   2.908   6.748  0.3128 -1.6725 -0.9867
27390SOL     OW92483   4.688   1.686   0.175 -0.2704  0.1188 -0.4999
27390SOL    HW192484   4.698   1.708   0.268 -0.5999 -0.7501 -0.2408
27390SOL    HW292485   4.647   1.599   0.176  0.6809 -0.3682 -1.4486
27391SOL     OW92486   4.762   6.297   8.844  0.2361 -0.4514 -0.6635
27391SOL    HW192487   4.691   6.244   8.880  0.3170 -0.1927 -0.1199
27391SOL    HW292488   4.749   6.384   8.883  0.2747 -0.1453 -1.3179
27392SOL     OW92489   5.007   9.900   8.407  0.7752 -0.3493  0.2162
27392SOL    HW192490   5.056   9.857   8.476  1.4007  1.8686  1.2530
27392SOL    HW292491   4.934   9.944   8.451  0.5594  0.2256 -0.6623
27393SOL     OW92492   9.743   2.254  11.124  0.3859  0.1478  0.1489
27393SOL    HW192493   9.669   2.243  11.064  0.2480 -1.2324  0.5530
27393SOL    HW292494   9.785   2.168  11.127  1.8110  0.8291  0.1882
27394SOL     OW92495   2.846  11.929   3.578 -1.0237  0.4637 -0.1862
27394SOL    HW192496   2.917  11.977   3.620  0.7417 -2.5639  0.6208
27394SOL    HW292497   2.824  11.860   3.641 -2.8997 -0.2597 -1.5527
27395SOL     OW92498   5.469   9.554   2.957  0.0154 -0.1420  0.1137
27395SOL    HW192499   5.525   9.605   3.015  0.7297  0.2706 -0.9193
27395SOL    HW292500   5.519   9.546   2.876 -0.6348 -1.3698 -0.1955
27396SOL     OW92501   1.357  10.854   5.960 -0.2908  0.1429 -0.3766
27396SOL    HW192502   1.352  10.761   5.980 -0.5103  0.3197  0.4402
27396SOL    HW292503   1.384  10.858   5.868  1.4246 -0.7135  0.0482
27397SOL     OW92504   4.552   7.035   4.967  0.5686  0.0783 -0.3631
27397SOL    HW192505   4.631   7.068   5.011 -0.8434  1.2010  1.5194
27397SOL    HW292506   4.512   7.114   4.930 -1.0144  0.0094  1.0727
27398SOL     OW92507   7.942   0.147  12.453 -0.9403 -0.1751  0.2395
27398SOL    HW192508   7.898   0.232  12.451  0.4005  0.5398  0.3228
27398SOL    HW292509   7.872   0.085  12.476 -1.7227  1.0323  1.2756
27399SOL     OW92510  12.004  12.874   8.446  0.6086  0.4781 -0.2909
27399SOL    HW192511  12.031  12.820   8.520  0.5736 -0.2813 -0.8159
27399SOL    HW292512  11.937  12.821   8.402  0.7816  0.8223 -0.9816
27400SOL     OW92513   1.758  11.765   1.908  0.5570  0.0862 -0.0722
27400SOL    HW192514   1.793  11.689   1.862  2.5230  0.6606  0.3706
27400SOL    HW292515   1.707  11.812   1.842 -0.2979 -1.3452 -0.4662
27401SOL     OW92516   0.324   6.633  12.442 -0.0840  0.1878 -0.2095
27401SOL    HW192517   0.249   6.584  12.475 -0.3525 -0.1505 -1.2720
27401SOL    HW292518   0.395   6.613  12.504 -0.7364  0.1393  0.5357
27402SOL     OW92519   2.187   7.367   7.985  0.0112 -0.2662  0.2757
27402SOL    HW192520   2.153   7.312   8.056  0.6282  0.0665  0.8388
27402SOL    HW292521   2.118   7.433   7.972 -1.1846 -1.6948 -1.0732
27403SOL     OW92522   8.741   6.615   5.516 -0.2692 -0.0243 -0.1286
27403SOL    HW192523   8.782   6.563   5.448  0.9214  1.3674 -0.5299
27403SOL    HW292524   8.654   6.636   5.481 -0.1382 -0.3696 -0.6703
27404SOL     OW92525  12.603   3.025   4.133 -0.2445 -0.1123 -0.3192
27404SOL    HW192526  12.683   2.999   4.179 -0.8177 -0.3815  0.5569
27404SOL    HW292527  12.540   2.956   4.154 -0.9203  0.4736 -0.3918
27405SOL     OW92528   1.671  12.759  10.988  0.5277  0.2288  0.3091
27405SOL    HW192529   1.694  12.693  10.923 -1.4070  0.6922 -0.9268
27405SOL    HW292530   1.706  12.841  10.953 -0.0954  0.4014  0.0830
27406SOL     OW92531   8.568   6.807   2.411  0.5909 -0.4344  0.0963
27406SOL    HW192532   8.506   6.848   2.472  0.1122 -1.9565  0.6889
27406SOL    HW292533   8.605   6.733   2.460  1.3265 -0.7971 -0.9567
27407SOL     OW92534  10.942   5.877   6.097  0.7091  0.5021  0.1532
27407SOL    HW192535  10.976   5.793   6.064 -0.2460  0.2152 -0.1530
27407SOL    HW292536  10.888   5.852   6.172 -1.4518  0.5361 -1.2811
27408SOL     OW92537   8.541   9.451   0.099 -0.1554  1.0705 -0.0937
27408SOL    HW192538   8.475   9.465   0.032  0.5383  1.0167 -0.8052
27408SOL    HW292539   8.500   9.392   0.162 -1.2156  2.0287  0.1359
27409SOL     OW92540   1.516   9.577   8.851  0.3268 -0.0538 -0.1067
27409SOL    HW192541   1.534   9.572   8.945 -1.2403  1.5294  0.3154
27409SOL    HW292542   1.528   9.669   8.829  0.4439 -0.3673 -1.4420
27410SOL     OW92543   5.117  12.576   7.058  0.1055 -0.2596 -0.5387
27410SOL    HW192544   5.181  12.626   7.008  0.5967 -1.3372 -1.0086
27410SOL    HW292545   5.169  12.520   7.116 -0.3560 -1.8970 -1.6447
27411SOL     OW92546   9.745   2.476   6.555  0.2712  0.4900  0.1738
27411SOL    HW192547   9.770   2.434   6.472 -0.1902 -0.1048  0.3235
27411SOL    HW292548   9.808   2.547   6.566  1.6387 -0.7044  0.3369
27412SOL     OW92549   9.901   2.991   4.416  0.6594  0.5381  0.2813
27412SOL    HW192550   9.912   2.912   4.470  1.0443  0.9150  0.7622
27412SOL    HW292551   9.920   2.962   4.327  2.4646  0.4395  0.6632
27413SOL     OW92552   7.648   6.309   6.608 -0.2312 -0.1211  0.6040
27413SOL    HW192553   7.742   6.326   6.621  0.1979 -1.8245  0.0133
27413SOL    HW292554   7.611   6.312   6.696  0.9353 -2.2246  1.2482
27414SOL     OW92555   6.530  11.531   2.309  0.2286 -0.0402 -0.2119
27414SOL    HW192556   6.577  11.613   2.325 -0.9536  0.7372 -0.5700
27414SOL    HW292557   6.596  11.473   2.271  1.0348  0.8175 -0.1749
27415SOL     OW92558   8.057  11.682   0.860  0.5695 -0.3010  0.5484
27415SOL    HW192559   8.015  11.752   0.810 -1.6879 -0.6656  1.8213
27415SOL    HW292560   8.099  11.728   0.934 -0.5513 -0.1928  1.1497
27416SOL     OW92561   0.088   5.766  12.862  0.2765  0.6205 -0.5460
27416SOL    HW192562   0.131   5.707  12.800 -0.2029  0.4743 -0.7463
27416SOL    HW292563   0.080   5.714  12.942 -0.9439  0.0786 -0.9863
27417SOL     OW92564  12.163   0.966   0.239  0.4465 -0.1109 -0.0627
27417SOL    HW192565  12.201   0.994   0.323 -1.8855 -2.9752  2.1727
27417SOL    HW292566  12.236   0.923   0.194  1.1219 -1.1162  1.8622
27418SOL     OW92567   6.378  12.219   5.742 -0.4680 -0.0129  0.2181
27418SOL    HW192568   6.325  12.298   5.733 -2.4199 -0.6852  3.6917
27418SOL    HW292569   6.346  12.160   5.674 -3.3383  0.1514  1.2713
27419SOL     OW92570   0.585   2.398  11.003 -0.2853 -0.2128 -0.3666
27419SOL    HW192571   0.584   2.471  10.941 -0.4663  0.5024  0.4616
27419SOL    HW292572   0.614   2.323  10.951  0.4948  0.5705 -1.0890
27420SOL     OW92573   6.353   1.913   7.173  0.2744 -0.1131 -0.4231
27420SOL    HW192574   6.272   1.875   7.208  1.9189 -0.9852  2.8025
27420SOL    HW292575   6.393   1.841   7.123  0.3813 -0.6464  0.4026
27421SOL     OW92576   3.364   4.642  11.053  0.5454  0.1298 -0.2043
27421SOL    HW192577   3.362   4.720  10.998 -0.3557  1.2793  1.3946
27421SOL    HW292578   3.457   4.624  11.065  0.8487  2.1908  1.0389
27422SOL     OW92579   3.930  12.892  10.353 -0.0889 -0.1048  1.0060
27422SOL    HW192580   3.940  12.962  10.418 -1.6636  0.3959  0.7579
27422SOL    HW292581   3.971  12.816  10.394 -0.4243  0.3779  2.2912
27423SOL     OW92582   0.182   6.745  11.123 -0.3096  0.2307 -0.0875
27423SOL    HW192583   0.153   6.784  11.041 -3.2808  0.2805  0.8601
27423SOL    HW292584   0.241   6.675  11.096 -0.7916  0.5705 -2.2475
27424SOL     OW92585  12.634   4.272   6.931 -0.2381 -0.1457 -0.0912
27424SOL    HW192586  12.685   4.207   6.882 -0.2639 -0.1221 -0.1499
27424SOL    HW292587  12.599   4.330   6.864  0.8457  0.6867  0.0540
27425SOL     OW92588   6.694   0.278   8.243  0.8904 -0.0379  0.0478
27425SOL    HW192589   6.627   0.268   8.310  0.2840 -0.3222 -0.5966
27425SOL    HW292590   6.756   0.208   8.260  1.3081  0.5334  0.9585
27426SOL     OW92591   8.272   1.729  12.506 -0.3719  0.1576 -0.1801
27426SOL    HW192592   8.289   1.644  12.547 -0.0114  0.2483 -0.1347
27426SOL    HW292593   8.339   1.737  12.438  2.6422  2.3573  2.7125
27427SOL     OW92594   1.995  10.565   8.755 -0.0897 -0.4463  0.0109
27427SOL    HW192595   2.026  10.511   8.827  0.8179 -1.1338 -0.8621
27427SOL    HW292596   2.008  10.511   8.677  2.0176  1.4143 -1.0555
27428SOL     OW92597   2.107   9.367   1.435 -0.2530  0.1220  0.1554
27428SOL    HW192598   2.036   9.415   1.392 -0.4884  0.0286  0.4395
27428SOL    HW292599   2.178   9.430   1.440 -0.4717  0.3613  0.2844
27429SOL     OW92600   9.997   9.267   0.361  0.7384  0.6633 -0.4463
27429SOL    HW192601  10.091   9.276   0.377  1.2568 -2.8824 -0.7447
27429SOL    HW292602   9.960   9.240   0.445  0.6453 -1.3659 -1.0803
27430SOL     OW92603   3.398   8.463   0.635 -0.1502  0.2617 -0.2156
27430SOL    HW192604   3.464   8.472   0.704  1.1002  1.5044 -1.5137
27430SOL    HW292605   3.420   8.382   0.590 -0.4942 -0.1433  0.3301
27431SOL     OW92606   0.247  12.072   8.532  0.1904 -0.0272  0.0003
27431SOL    HW192607   0.266  12.134   8.603 -0.4789  0.2083 -0.0182
27431SOL    HW292608   0.194  12.004   8.575 -1.0382  0.6134 -0.4741
27432SOL     OW92609   7.206   1.856   9.144  0.4978  0.4379 -0.5352
27432SOL    HW192610   7.209   1.775   9.193  1.4378  1.0422  0.4515
27432SOL    HW292611   7.173   1.921   9.206  0.2216  0.9065 -1.1594
27433SOL     OW92612   7.807  12.624   9.867 -0.2974  0.0984  0.5191
27433SOL    HW192613   7.729  12.576   9.839 -0.6063  0.1755  1.2111
27433SOL    HW292614   7.860  12.632   9.788  0.7396 -3.1595  0.7413
27434SOL     OW92615  10.695  10.713   3.001  0.0848  0.0507 -0.4612
27434SOL    HW192616  10.634  10.724   3.073  1.4767  1.2153  0.6142
27434SOL    HW292617  10.690  10.620   2.978  0.5827 -0.6774  2.0761
27435SOL     OW92618  12.589   6.443   8.347 -0.3496  0.2861 -0.5328
27435SOL    HW192619  12.622   6.455   8.258  2.9494  1.2656  0.6553
27435SOL    HW292620  12.637   6.508   8.399 -0.5194 -1.6630  2.2770
27436SOL     OW92621  12.654   5.930  11.673  0.0877 -0.1858 -0.3140
27436SOL    HW192622  12.725   5.967  11.622 -1.3287  0.3333 -1.9950
27436SOL    HW292623  12.599   6.006  11.697  0.0760 -0.5677  0.9727
27437SOL     OW92624   8.869   0.214   2.554 -0.0469 -0.2441 -0.7567
27437SOL    HW192625   8.803   0.218   2.485  0.5709 -0.9528 -1.4153
27437SOL    HW292626   8.819   0.209   2.635 -0.7891  1.1347 -1.0997
27438SOL     OW92627  10.480   4.273   0.058 -0.1918  0.1596 -0.4698
27438SOL    HW192628  10.562   4.299   0.017  1.3240  0.8906  2.7219
27438SOL    HW292629  10.448   4.353   0.099 -1.4288 -0.5889  0.0779
27439SOL     OW92630   5.348   1.963   3.635  0.2585 -0.1188  0.1649
27439SOL    HW192631   5.334   1.985   3.542  1.3019 -2.7719 -0.7233
27439SOL    HW292632   5.260   1.964   3.673  0.0870  5.1768  0.3817
27440SOL     OW92633   1.549   8.156   0.035  0.1566 -0.2523  0.5329
27440SOL    HW192634   1.608   8.216   0.083 -0.0977 -0.1645  0.7354
27440SOL    HW292635   1.466   8.203   0.031 -0.7134 -1.4775  2.6089
27441SOL     OW92636  11.757   8.783   3.845  0.2610  0.2198  0.3827
27441SOL    HW192637  11.696   8.785   3.918 -0.1938  2.3131  0.0147
27441SOL    HW292638  11.817   8.712   3.866 -0.5991 -0.0491  2.1520
27442SOL     OW92639  12.297   3.803   1.029 -0.8780  0.4595  0.4132
27442SOL    HW192640  12.291   3.725   1.083 -0.4424 -0.1183 -0.3559
27442SOL    HW292641  12.219   3.799   0.973 -0.4902  0.1966 -0.1146
27443SOL     OW92642   2.568   2.001   9.059 -0.4130  0.7784  0.1945
27443SOL    HW192643   2.495   1.994   8.998  1.7425  0.2385 -2.4920
27443SOL    HW292644   2.583   1.912   9.089 -1.4745  1.0426  1.6866
27444SOL     OW92645   0.153   2.694   7.411  0.2984 -0.7037  0.3510
27444SOL    HW192646   0.171   2.732   7.497 -0.0744 -0.8681  0.5070
27444SOL    HW292647   0.181   2.760   7.348 -2.4066  0.8589  0.6315
27445SOL     OW92648   2.526   1.857   6.152  0.0256  0.6483  0.0100
27445SOL    HW192649   2.508   1.935   6.100 -0.4986 -0.1197 -0.9854
27445SOL    HW292650   2.611   1.826   6.119  0.1730  0.7187  0.3179
27446SOL     OW92651   3.015   7.739   6.460 -0.6945  0.2426  0.0537
27446SOL    HW192652   2.939   7.787   6.491 -0.0878  1.6380 -0.5157
27446SOL    HW292653   3.046   7.790   6.384 -0.9012 -1.8611 -1.5465
27447SOL     OW92654  10.644   3.185   1.308  0.3550  0.4644 -0.5187
27447SOL    HW192655  10.612   3.247   1.243  1.8930  0.9885 -0.8357
27447SOL    HW292656  10.642   3.100   1.264  1.0023  0.7540 -1.1319
27448SOL     OW92657   3.537   4.516  10.231 -0.3352  0.1575  0.4560
27448SOL    HW192658   3.505   4.427  10.218  0.3100 -0.3693  2.1852
27448SOL    HW292659   3.458   4.570  10.231 -0.7051 -0.3397 -0.9823
27449SOL     OW92660   1.338   7.355   1.079  0.1080 -0.4984  0.3183
27449SOL    HW192661   1.340   7.428   1.017 -3.0101 -0.1313  0.4707
27449SOL    HW292662   1.319   7.279   1.025  1.3991 -0.8912  0.3942
27450SOL     OW92663   3.170   5.611   3.741 -0.3541  0.4502  0.4295
27450SOL    HW192664   3.234   5.546   3.769  0.4899  0.2337 -1.7781
27450SOL    HW292665   3.085   5.574   3.765  0.2174 -0.5734  0.9234
27451SOL     OW92666  12.058   4.581   0.171  0.3135  0.3415  0.0099
27451SOL    HW192667  11.975   4.587   0.218  1.6358  0.6678  2.4467
27451SOL    HW292668  12.086   4.490   0.183  0.2996  0.2117 -0.8621
27452SOL     OW92669   2.652   9.284   5.034 -0.4801 -0.3121 -0.1474
27452SOL    HW192670   2.610   9.236   5.105  0.1539  0.8436  1.0421
27452SOL    HW292671   2.598   9.264   4.957 -1.3219 -1.3844  0.6862
27453SOL     OW92672  10.893   0.831  10.951  0.8704 -0.4872 -0.0065
27453SOL    HW192673  10.915   0.741  10.975 -0.8981 -1.2266 -0.9949
27453SOL    HW292674  10.978   0.875  10.941  1.9528 -2.9870 -3.0296
27454SOL     OW92675   9.690   2.874   1.401  0.2830  0.6386  0.2166
27454SOL    HW192676   9.738   2.957   1.400  3.3179 -0.9575 -0.9573
27454SOL    HW292677   9.652   2.870   1.489  1.8649  2.3270  1.0653
27455SOL     OW92678   6.583  12.554  10.977 -0.5021 -0.0185 -0.1963
27455SOL    HW192679   6.565  12.498  11.052 -1.1922 -1.4162 -1.3326
27455SOL    HW292680   6.597  12.492  10.905  0.7530  1.2585 -1.0896
27456SOL     OW92681   6.220   9.101   0.209  1.3103 -0.2083 -0.1397
27456SOL    HW192682   6.265   9.019   0.230  2.3397  0.1113 -1.0429
27456SOL    HW292683   6.127   9.077   0.207  1.6075 -1.3966 -0.5834
27457SOL     OW92684   5.282   8.392   2.545  0.1449 -0.0858  0.4938
27457SOL    HW192685   5.298   8.301   2.570  0.9928 -0.1374 -0.2051
27457SOL    HW292686   5.366   8.436   2.559  0.2183  0.2180 -0.7889
27458SOL     OW92687   4.828  12.506   3.732 -0.0510 -0.5974 -0.0788
27458SOL    HW192688   4.784  12.423   3.711  1.8362 -1.9921  1.1718
27458SOL    HW292689   4.907  12.505   3.679  0.2888  0.1401  0.4048
27459SOL     OW92690   5.437   4.155   9.259  0.4807 -0.5951  0.7623
27459SOL    HW192691   5.352   4.179   9.293  0.5583 -0.0153  0.5494
27459SOL    HW292692   5.499   4.213   9.303  0.6486 -0.2865  0.1328
27460SOL     OW92693   3.409   2.485  12.136  0.3198  0.0185  0.2110
27460SOL    HW192694   3.314   2.478  12.147  0.3097 -0.2155 -0.0111
27460SOL    HW292695   3.435   2.399  12.104  0.4568  0.4435 -0.8509
27461SOL     OW92696  10.502   1.668   8.804  0.5393 -0.0002  0.6104
27461SOL    HW192697  10.473   1.758   8.792 -0.8617 -0.4858  0.0985
27461SOL    HW292698  10.597   1.672   8.797  0.3932  0.9625 -3.3622
27462SOL     OW92699   0.755   7.996  12.612 -0.1378  0.7494 -0.4669
27462SOL    HW192700   0.809   8.075  12.605 -1.0992  1.3849 -0.9198
27462SOL    HW292701   0.785   7.954  12.692  1.2307  0.9213 -0.8585
27463SOL     OW92702  10.313   0.757   5.393 -0.4376  0.3832  0.5383
27463SOL    HW192703  10.238   0.813   5.372 -0.8491  0.0259  1.0087
27463SOL    HW292704  10.287   0.713   5.474  0.7249  1.0672  1.3230
27464SOL     OW92705   5.297   3.320  12.697 -0.0964  0.8262 -0.6060
27464SOL    HW192706   5.290   3.284  12.785  0.7623  0.6967 -0.5812
27464SOL    HW292707   5.307   3.414  12.710 -0.3090  0.8439 -0.5767
27465SOL     OW92708   5.702   7.067   3.853 -0.3420  0.1973 -0.2310
27465SOL    HW192709   5.642   7.123   3.902 -1.3153  0.8136 -2.0411
27465SOL    HW292710   5.786   7.076   3.899 -0.9112  1.7298  0.5782
27466SOL     OW92711  10.574  12.794  10.670 -0.5602 -0.5732  0.5089
27466SOL    HW192712  10.483  12.785  10.643 -0.7770  0.3808  0.9040
27466SOL    HW292713  10.613  12.708  10.652 -1.6564 -1.1520  0.8246
27467SOL     OW92714   1.826   6.195  11.931  0.1705  0.5947 -0.0751
27467SOL    HW192715   1.878   6.226  11.858  0.1625 -1.6845 -1.1467
27467SOL    HW292716   1.772   6.125  11.894 -1.4944  0.8856  1.6404
27468SOL     OW92717   9.426   1.733   9.337 -0.2684 -0.2607  0.6818
27468SOL    HW192718   9.506   1.716   9.386  0.8000  0.0869 -0.8704
27468SOL    HW292719   9.456   1.766   9.252 -2.0794  0.6541  0.3492
27469SOL     OW92720   8.435   9.509   6.117 -0.0429 -0.4422  0.3067
27469SOL    HW192721   8.367   9.521   6.050 -0.7964 -0.6014  1.0240
27469SOL    HW292722   8.516   9.501   6.067 -0.7669 -2.2248 -0.6994
27470SOL     OW92723   4.621  11.053   6.651 -0.8133 -0.0146  1.3326
27470SOL    HW192724   4.527  11.044   6.634 -0.3899 -0.7952 -1.0465
27470SOL    HW292725   4.657  10.967   6.629  0.9969  1.5498 -2.9370
27471SOL     OW92726   1.286  10.743   1.747  0.0575 -0.5523  0.4718
27471SOL    HW192727   1.233  10.668   1.776 -0.3159  0.3785  2.3627
27471SOL    HW292728   1.222  10.813   1.734  0.2476 -0.7875 -2.4394
27472SOL     OW92729   0.701  11.611  12.327  0.1619  0.3150 -0.1036
27472SOL    HW192730   0.763  11.586  12.395 -1.6611  0.2497  1.6472
27472SOL    HW292731   0.729  11.698  12.299  0.8476  0.4226  0.8756
27473SOL     OW92732   5.348   1.468   1.104 -0.5561 -0.4886  0.0778
27473SOL    HW192733   5.369   1.476   1.011 -0.4876 -0.0328  0.1269
27473SOL    HW292734   5.253   1.483   1.108 -0.5358 -0.3639  0.0965
27474SOL     OW92735   9.635  11.910   5.249 -0.1240  0.4978  0.1692
27474SOL    HW192736   9.607  11.963   5.174  0.4242 -0.7629 -0.9534
27474SOL    HW292737   9.716  11.868   5.221 -1.0971 -1.8255  0.5574
27475SOL     OW92738   5.412   8.575   5.678  0.5990 -0.2030 -0.3884
27475SOL    HW192739   5.447   8.512   5.614  0.6818 -0.5775  0.0186
27475SOL    HW292740   5.321   8.548   5.690  0.2571  0.5678 -1.1975
27476SOL     OW92741   0.587   6.635   3.052 -0.1352 -0.0127 -0.4618
27476SOL    HW192742   0.674   6.598   3.071 -0.6479 -0.8841  0.2492
27476SOL    HW292743   0.589   6.722   3.092 -0.7053 -1.2812  2.6144
27477SOL     OW92744  12.338   7.018  12.445  0.5928 -0.0754 -0.6196
27477SOL    HW192745  12.371   7.089  12.499 -0.3879  0.4775 -0.7253
27477SOL    HW292746  12.395   6.943  12.466 -0.0093 -0.0089  1.4786
27478SOL     OW92747   7.781  10.455   1.610 -0.1119  0.0210  0.4626
27478SOL    HW192748   7.798  10.533   1.557 -0.2802 -0.3200 -0.1029
27478SOL    HW292749   7.774  10.488   1.700 -0.4875  0.6981  0.1908
27479SOL     OW92750   2.089  12.115   7.222 -0.0169 -0.2149  0.0049
27479SOL    HW192751   2.098  12.025   7.190 -1.1491 -0.2383 -0.2797
27479SOL    HW292752   2.169  12.158   7.193  0.5177 -1.1185  0.1040
27480SOL     OW92753   3.929   8.595   7.001 -0.0226 -0.1419 -0.1359
27480SOL    HW192754   3.978   8.522   6.963 -1.8513 -0.4387 -2.1582
27480SOL    HW292755   3.993   8.665   7.009  1.3950 -1.4186  0.2180
27481SOL     OW92756   1.048   0.569   3.517  0.6219 -0.4475 -0.4255
27481SOL    HW192757   0.983   0.617   3.568  0.6020  0.3608 -1.1938
27481SOL    HW292758   1.032   0.596   3.426  2.3003  0.0979 -0.5902
27482SOL     OW92759  11.773   8.373   7.019 -0.7385  0.2191 -0.0574
27482SOL    HW192760  11.841   8.419   6.970 -1.4010  2.4426  0.9699
27482SOL    HW292761  11.781   8.281   6.992  0.1174  1.0307 -2.8843
27483SOL     OW92762   3.329  10.681   9.177 -0.3698 -0.1361 -0.1527
27483SOL    HW192763   3.257  10.739   9.153 -1.2673 -0.7798  0.8683
27483SOL    HW292764   3.331  10.615   9.108 -0.4633  0.1523 -0.4308
27484SOL     OW92765  12.422   0.313   6.113  0.1681  0.3931 -0.0895
27484SOL    HW192766  12.472   0.329   6.193 -0.2680  1.1795  0.0366
27484SOL    HW292767  12.479   0.345   6.043  0.1317  0.6482 -0.0054
27485SOL     OW92768   1.571   8.439   8.474 -0.5064  0.7867 -0.4013
27485SOL    HW192769   1.630   8.404   8.408  0.2505  1.4493 -0.0887
27485SOL    HW292770   1.629   8.476   8.541 -1.2498  0.2474  0.5705
27486SOL     OW92771   1.481   3.022   4.574  0.1553  0.1867 -0.2945
27486SOL    HW192772   1.490   2.928   4.555 -0.1046 -0.0229  0.5766
27486SOL    HW292773   1.392   3.043   4.546  0.6699  0.5134 -1.7958
27487SOL     OW92774   3.835   9.157   0.621 -0.6451 -0.3630 -0.0060
27487SOL    HW192775   3.860   9.140   0.712  1.3789 -2.0076 -0.7850
27487SOL    HW292776   3.783   9.238   0.625  0.4680  0.3281  2.4417
27488SOL     OW92777   2.959   0.745  10.993 -0.3581  0.1654  0.5778
27488SOL    HW192778   2.935   0.652  10.992 -0.3316  0.1615 -0.0500
27488SOL    HW292779   2.995   0.759  11.081  1.3948 -0.8879  0.0969
27489SOL     OW92780   5.766   2.554   0.750  0.2011  0.5801 -0.0266
27489SOL    HW192781   5.839   2.606   0.716  0.0570  1.4343  0.9126
27489SOL    HW292782   5.789   2.463   0.728 -0.3115  1.0877 -3.1259
27490SOL     OW92783  12.634  11.621   6.387  0.1127 -0.1880 -0.1138
27490SOL    HW192784  12.634  11.609   6.292 -1.4252 -3.3328  0.1730
27490SOL    HW292785  12.713  11.577   6.417  0.3893  0.4587  0.1339
27491SOL     OW92786   8.574  12.734  12.127  0.9669  0.2835  0.0802
27491SOL    HW192787   8.635  12.801  12.157  0.8452  1.0682 -1.3458
27491SOL    HW292788   8.491  12.756  12.169  0.6657  1.6773 -1.1825
27492SOL     OW92789  11.915   3.906  11.117  0.1539 -0.3366 -0.3204
27492SOL    HW192790  11.887   3.825  11.074  1.0118 -0.7813 -0.0585
27492SOL    HW292791  11.843   3.927  11.177 -1.2816  0.5398 -2.2170
27493SOL     OW92792   6.711   3.047   8.966 -0.0740 -0.0391 -0.1202
27493SOL    HW192793   6.767   2.988   9.016 -1.1778 -0.5844  0.5015
27493SOL    HW292794   6.657   3.091   9.032 -0.2449  0.6178 -0.6901
27494SOL     OW92795  11.343   1.502  11.802  0.3886 -0.6874 -0.3930
27494SOL    HW192796  11.378   1.570  11.746  1.3705 -0.1001  0.8836
27494SOL    HW292797  11.290   1.447  11.744  0.8747  0.2372 -1.7410
27495SOL     OW92798  12.054   3.157   4.459  0.4185  0.1369 -0.6304
27495SOL    HW192799  12.065   3.171   4.365  0.8957  0.6083 -0.5093
27495SOL    HW292800  12.006   3.234   4.489 -0.3336 -0.3327 -0.5931
27496SOL     OW92801   4.539  11.068   9.961  0.0133 -0.0054 -0.1696
27496SOL    HW192802   4.502  11.037   9.878  0.0233  1.4976 -0.7659
27496SOL    HW292803   4.463  11.094  10.013  0.1202  1.7957 -0.8643
27497SOL     OW92804   1.237   0.725  12.539  0.4079 -0.3575  0.0866
27497SOL    HW192805   1.184   0.733  12.460  2.0877  0.3377 -1.0229
27497SOL    HW292806   1.197   0.653  12.588  0.4862 -2.1461 -2.3329
27498SOL     OW92807   7.881   7.738   1.630 -0.0256  0.0113 -0.0448
27498SOL    HW192808   7.925   7.741   1.716 -0.1357  1.1443 -0.0155
27498SOL    HW292809   7.937   7.681   1.577  1.1659  0.9226  0.1870
27499SOL     OW92810   3.793   3.925  12.725  0.2144  0.3452  0.9249
27499SOL    HW192811   3.854   3.981  12.772  1.9630 -0.5008 -0.1831
27499SOL    HW292812   3.750   3.983  12.662  2.3775  0.4502 -0.5693
27500SOL     OW92813  12.291   2.531   8.731  0.2396  0.2573  0.2670
27500SOL    HW192814  12.217   2.502   8.678  0.3919  0.5797 -0.1187
27500SOL    HW292815  12.368   2.504   8.682  0.3857 -0.4575  0.8721
27501SOL     OW92816   0.976   1.618   8.734 -0.2576  0.1378 -0.0064
27501SOL    HW192817   0.935   1.674   8.668  0.7058  2.6647  1.4262
27501SOL    HW292818   0.913   1.616   8.806 -0.1002 -0.3080  0.1205
27502SOL     OW92819   9.494   9.876   8.781  0.1436  0.2779 -0.0126
27502SOL    HW192820   9.471   9.952   8.728  0.3700  2.0073  2.2154
27502SOL    HW292821   9.590   9.877   8.783  0.1243  1.2426  1.7276
27503SOL     OW92822   6.130   3.771   7.674 -0.3034 -0.4611  0.3645
27503SOL    HW192823   6.042   3.751   7.645 -0.4322 -0.3069  0.6458
27503SOL    HW292824   6.187   3.732   7.608 -0.6126  1.0197 -0.8169
27504SOL     OW92825   5.487   6.859   8.961 -0.7538 -0.1593 -0.0332
27504SOL    HW192826   5.582   6.852   8.952 -0.5940  0.8222  0.7030
27504SOL    HW292827   5.454   6.870   8.872  0.0402  1.6474 -0.1467
27505SOL     OW92828   2.425   9.810   1.001  0.4234  0.1997 -0.0990
27505SOL    HW192829   2.478   9.888   1.018  0.3943  0.4490 -1.0713
27505SOL    HW292830   2.357   9.840   0.939  0.8713 -0.7512 -1.0903
27506SOL     OW92831   6.685   2.389   4.671 -0.3505 -0.6154  0.2395
27506SOL    HW192832   6.757   2.366   4.730  0.3890 -0.5208 -0.6016
27506SOL    HW292833   6.682   2.317   4.608  0.6295  0.5511 -1.1845
27507SOL     OW92834   4.283   9.223   5.612 -0.2931  0.4925  0.4776
27507SOL    HW192835   4.339   9.254   5.541 -0.5609  1.5223  0.6944
27507SOL    HW292836   4.342   9.174   5.669  0.1577  0.6234  0.1325
27508SOL     OW92837   2.753   7.920  12.306  0.0047  0.0640  0.5467
27508SOL    HW192838   2.704   7.957  12.233  2.1111  0.8050 -0.6006
27508SOL    HW292839   2.687   7.897  12.371 -1.8381  0.6417 -1.0314
27509SOL     OW92840   0.262   6.993   7.519 -0.0577  0.5414 -0.0499
27509SOL    HW192841   0.203   6.994   7.444 -0.4473 -0.2686  0.2336
27509SOL    HW292842   0.250   7.078   7.560 -1.1521  0.3344  0.0840
27510SOL     OW92843   0.865   4.590   8.993  0.2031 -0.1623  0.8277
27510SOL    HW192844   0.895   4.578   8.903 -1.4042 -2.4764  0.5124
27510SOL    HW292845   0.946   4.594   9.045  1.1196 -0.6834 -0.5060
27511SOL     OW92846   8.270   7.972   4.925  0.6017 -0.1873  0.1317
27511SOL    HW192847   8.204   8.024   4.879  0.3676 -0.8602 -0.3052
27511SOL    HW292848   8.238   7.965   5.014 -0.0401 -0.7217 -0.1403
27512SOL     OW92849   3.118   8.394   1.527  0.3957 -0.1573  0.6640
27512SOL    HW192850   3.190   8.402   1.590 -2.2712 -2.8941  4.5794
27512SOL    HW292851   3.039   8.415   1.578 -1.8704 -0.3762 -2.4670
27513SOL     OW92852   9.448   2.996   5.515  0.6361 -0.4876  0.9453
27513SOL    HW192853   9.495   2.985   5.598 -0.9378  1.1268  2.1309
27513SOL    HW292854   9.448   3.090   5.501  1.1533 -0.7540 -1.1200
27514SOL     OW92855  12.141   0.424  10.228  0.3313 -0.0854 -0.5030
27514SOL    HW192856  12.235   0.436  10.211  0.2342  0.4625 -0.7051
27514SOL    HW292857  12.136   0.401  10.320  0.4368  3.9491  0.7120
27515SOL     OW92858   1.599   7.481   4.445 -0.3189  0.2802 -0.0958
27515SOL    HW192859   1.627   7.407   4.499  0.0140 -0.4424 -1.2321
27515SOL    HW292860   1.596   7.555   4.506 -2.3192 -0.9670  1.4708
27516SOL     OW92861   1.147  12.455  12.894  0.7202 -0.1571  0.4887
27516SOL    HW192862   1.071  12.474  12.838  2.0269  0.9977 -0.9798
27516SOL    HW292863   1.204  12.402  12.839  1.4810 -0.0688  1.1854
27517SOL     OW92864   8.409   1.909   7.044 -0.4502 -0.2905 -0.0010
27517SOL    HW192865   8.344   1.980   7.053  0.3979  0.7305 -1.5312
27517SOL    HW292866   8.374   1.854   6.974 -1.0650 -1.3807  1.1319
27518SOL     OW92867  12.239   8.672   9.983  0.5805  0.2942  0.0997
27518SOL    HW192868  12.173   8.603   9.990  1.6792 -0.9821 -1.3590
27518SOL    HW292869  12.203   8.745  10.034 -0.6885 -1.2902  1.6023
27519SOL     OW92870   9.399  11.813   7.225 -1.0137  0.0604 -0.1771
27519SOL    HW192871   9.352  11.741   7.181  1.1881 -1.5764 -0.0227
27519SOL    HW292872   9.439  11.862   7.153 -1.0332  0.0453 -0.1983
27520SOL     OW92873   3.210  10.197   4.595 -0.1590  0.1361 -0.3059
27520SOL    HW192874   3.286  10.179   4.649 -1.2763  0.5557  1.5074
27520SOL    HW292875   3.185  10.112   4.558  0.0089 -0.3766  0.7269
27521SOL     OW92876   8.643   8.627   8.043 -0.1097  0.0516  0.1057
27521SOL    HW192877   8.607   8.597   8.127 -0.5543  1.6908  0.5209
27521SOL    HW292878   8.726   8.578   8.035 -0.9818 -1.5793  0.5293
27522SOL     OW92879   8.065   7.073   6.637  0.0765 -0.2863 -0.2144
27522SOL    HW192880   8.121   7.105   6.568  1.1432 -0.8244  0.3753
27522SOL    HW292881   8.036   7.151   6.684 -0.7443  0.0839 -1.3124
27523SOL     OW92882   4.291   8.248  11.275  0.7488  0.0370  0.0654
27523SOL    HW192883   4.362   8.309  11.296  2.5062 -1.6965 -0.5465
27523SOL    HW292884   4.260   8.218  11.361 -0.7703  2.3504  0.4227
27524SOL     OW92885   7.017  10.223   0.114 -0.0575  0.1233 -0.2967
27524SOL    HW192886   7.052  10.288   0.054  0.6570  2.4922  2.4572
27524SOL    HW292887   6.924  10.217   0.092  0.2766  0.4460 -1.9505
27525SOL     OW92888  12.611   9.375   1.911 -0.4965  0.2683  0.0048
27525SOL    HW192889  12.613   9.281   1.893  0.2823  0.4481 -0.8759
27525SOL    HW292890  12.597   9.380   2.006 -1.7554 -0.7154 -0.0992
27526SOL     OW92891   3.158  12.538   2.614  0.2263  0.0592  0.4700
27526SOL    HW192892   3.186  12.448   2.596 -1.4680 -0.5765  0.7551
27526SOL    HW292893   3.093  12.556   2.546  0.0070  0.7772  0.8635
27527SOL     OW92894  10.845  10.703   2.461 -0.4772  0.4448  0.2166
27527SOL    HW192895  10.858  10.648   2.538  0.2821  0.8865  0.4156
27527SOL    HW292896  10.780  10.656   2.408 -1.6780  0.5607  1.5298
27528SOL     OW92897   2.371   3.306   6.869 -0.0657  0.2716 -0.4253
27528SOL    HW192898   2.426   3.339   6.940 -0.3938 -1.2160  0.5725
27528SOL    HW292899   2.425   3.241   6.824 -0.2549  0.3790 -0.8142
27529SOL     OW92900   2.373   3.096   9.305 -0.3451  0.3091  0.1645
27529SOL    HW192901   2.292   3.081   9.354 -1.9376  2.9564 -1.3564
27529SOL    HW292902   2.378   3.024   9.243 -1.5087  0.0444  0.3552
27530SOL     OW92903   4.253   3.420   6.962 -0.5178 -0.1032 -0.2202
27530SOL    HW192904   4.234   3.348   6.902  1.2874 -0.0579 -0.8864
27530SOL    HW292905   4.345   3.441   6.947 -0.3563  0.7665  1.6576
27531SOL     OW92906   6.317   3.406   8.203  0.0144 -0.1248  0.1514
27531SOL    HW192907   6.285   3.316   8.213 -1.2687 -0.0155 -2.2744
27531SOL    HW292908   6.243   3.461   8.229  0.1981  0.2024 -0.0152
27532SOL     OW92909  11.898  10.219  11.388 -0.0193  0.5575  0.3865
27532SOL    HW192910  11.957  10.283  11.427  0.5824  0.0257  0.3645
27532SOL    HW292911  11.901  10.144  11.447 -0.7622  0.5585  0.4454
27533SOL     OW92912   0.991   0.072   7.117 -0.1757  0.2870  0.1510
27533SOL    HW192913   1.014   0.150   7.067  1.2407  1.0720  1.8931
27533SOL    HW292914   0.999   0.099   7.208 -1.3574 -1.4371  0.8198
27534SOL     OW92915   3.590   6.175   4.631 -0.7097 -0.4621 -0.6337
27534SOL    HW192916   3.546   6.106   4.680  1.0594 -1.3759 -0.2323
27534SOL    HW292917   3.598   6.139   4.542  0.6872 -1.0677 -0.2997
27535SOL     OW92918  10.181   4.091   9.767  0.3965  0.1460 -0.1751
27535SOL    HW192919  10.205   4.034   9.694 -0.4321 -1.7866  0.9907
27535SOL    HW292920  10.098   4.130   9.741  1.1623  1.2000 -1.1483
27536SOL     OW92921   4.706  10.085   4.931  0.4757 -0.4812  0.2501
27536SOL    HW192922   4.741  10.004   4.969  1.2175 -0.1724  0.2517
27536SOL    HW292923   4.771  10.110   4.865  0.2546  0.1106  0.2491
27537SOL     OW92924   4.677   9.928   1.829  0.0697  0.4910  0.0153
27537SOL    HW192925   4.700   9.839   1.857 -0.0602  0.8267  1.2299
27537SOL    HW292926   4.653   9.918   1.737  0.0455 -0.7336  0.1320
27538SOL     OW92927   7.378  11.056  11.010 -0.1780 -0.0015 -0.2507
27538SOL    HW192928   7.284  11.076  11.016  0.3717  2.7691  0.5113
27538SOL    HW292929   7.421  11.135  11.040  2.4474 -1.4973  0.2029
27539SOL     OW92930   8.117   1.503   0.552 -0.8134 -0.2808  0.5369
27539SOL    HW192931   8.034   1.484   0.596 -0.2117  0.8901  2.2938
27539SOL    HW292932   8.096   1.574   0.491 -1.0950  0.1218  1.0864
27540SOL     OW92933   5.699   9.747   4.232 -0.1183  0.3375 -0.5625
27540SOL    HW192934   5.739   9.750   4.319  0.7502  0.3981 -0.9585
27540SOL    HW292935   5.747   9.812   4.181  0.4415 -0.7820 -1.5136
27541SOL     OW92936   9.413   0.241   1.990 -0.8071  0.4065  0.0699
27541SOL    HW192937   9.354   0.190   2.046  0.1072 -1.2257 -0.4018
27541SOL    HW292938   9.371   0.239   1.904  1.2636 -3.4482 -1.0839
27542SOL     OW92939   6.269   1.792   0.395 -0.1092 -0.3710  0.3561
27542SOL    HW192940   6.335   1.737   0.438 -0.1467  1.3867  2.9196
27542SOL    HW292941   6.313   1.826   0.317  1.3700 -0.7233  1.0045
27543SOL     OW92942   8.319  10.165  12.840  0.4845 -0.5729  0.1154
27543SOL    HW192943   8.308  10.139  12.749  0.8133 -1.1548  0.2351
27543SOL    HW292944   8.308  10.260  12.840 -0.2290 -0.6540 -0.4134
27544SOL     OW92945   9.553   3.313   2.652 -0.3077  0.0877 -0.0214
27544SOL    HW192946   9.568   3.219   2.638 -0.7219 -0.0632  0.5372
27544SOL    HW292947   9.641   3.351   2.652 -0.0453 -0.4993  1.1045
27545SOL     OW92948   4.888   6.570   1.388 -0.1355  0.1530  0.2943
27545SOL    HW192949   4.935   6.524   1.458  0.3275 -0.3156 -0.3106
27545SOL    HW292950   4.950   6.571   1.315 -0.4962  0.9195 -0.0077
27546SOL     OW92951   0.076   4.179   6.363  0.0400  1.0369 -0.6462
27546SOL    HW192952   0.120   4.225   6.435  1.4884 -0.2576 -0.6644
27546SOL    HW292953   0.145   4.130   6.320 -1.3891 -0.9174 -0.8335
27547SOL     OW92954   9.987   7.003  12.310  0.3152 -0.1901 -0.5048
27547SOL    HW192955   9.927   7.022  12.382 -0.5618 -2.4869 -0.5407
27547SOL    HW292956  10.062   7.060  12.325 -0.8941  1.1096  0.8464
27548SOL     OW92957  12.257   6.619  12.373  0.0273  0.0085 -0.0211
27548SOL    HW192958  12.316   6.603  12.299  0.1642  1.3297 -0.2111
27548SOL    HW292959  12.293   6.565  12.444  2.2581  1.7049  0.2529
27549SOL     OW92960  10.475  11.800  11.313  0.1271  0.4342 -0.2521
27549SOL    HW192961  10.415  11.873  11.325 -1.0191 -0.4247 -0.6022
27549SOL    HW292962  10.541  11.812  11.382  0.2856  2.0782 -0.6498
27550SOL     OW92963  11.960   1.595   2.913 -0.3788  1.0335 -0.1719
27550SOL    HW192964  11.907   1.525   2.875 -1.0162  1.0750  0.6048
27550SOL    HW292965  12.049   1.576   2.884 -0.0690 -1.6497  2.0751
27551SOL     OW92966   7.689  10.344   0.488  0.2191 -0.1766 -0.0284
27551SOL    HW192967   7.772  10.296   0.489  0.9019  0.9211 -1.3477
27551SOL    HW292968   7.624  10.279   0.461  0.8653 -0.7410 -0.2536
27552SOL     OW92969  12.361  12.874   8.615 -0.1798 -0.2679  0.1302
27552SOL    HW192970  12.295  12.889   8.682  0.6017 -0.0200  0.8660
27552SOL    HW292971  12.444  12.899   8.657  0.2287  0.7880 -1.2300
27553SOL     OW92972   6.869   5.036  12.716  0.3115  0.3252  0.5372
27553SOL    HW192973   6.873   5.008  12.625 -1.9478  2.0027 -0.1884
27553SOL    HW292974   6.824   5.121  12.713  0.0362  0.3688  3.2222
27554SOL     OW92975   7.221  10.584   3.505  0.2247 -0.0630  0.3919
27554SOL    HW192976   7.171  10.541   3.574  0.2769  0.4692  0.7614
27554SOL    HW292977   7.182  10.552   3.424 -1.1241  0.8007  0.6723
27555SOL     OW92978   6.046   4.594   6.126 -0.4826 -0.5066  0.0000
27555SOL    HW192979   5.991   4.517   6.138 -1.2102 -0.0080 -0.0203
27555SOL    HW292980   6.099   4.599   6.205 -0.9254 -0.6431  0.3094
27556SOL     OW92981   8.932  12.386   0.763  0.1951  0.0902 -0.0521
27556SOL    HW192982   8.839  12.391   0.783  0.3648 -0.6001  1.0181
27556SOL    HW292983   8.970  12.465   0.801 -0.2958  1.7706 -2.8318
27557SOL     OW92984  11.095   4.533  11.757 -0.1720  0.9153 -0.2240
27557SOL    HW192985  11.033   4.521  11.685 -0.9586  3.0127  0.0411
27557SOL    HW292986  11.089   4.626  11.778  1.4403  0.7106  1.3094
27558SOL     OW92987  10.966  12.184   5.184 -0.1903 -0.1412  0.2145
27558SOL    HW192988  10.946  12.168   5.276  1.2217  1.0391  0.7705
27558SOL    HW292989  11.057  12.158   5.174 -0.3340 -0.2661 -0.8538
27559SOL     OW92990  11.582   6.922   6.832  0.0539 -0.2193  0.7253
27559SOL    HW192991  11.678   6.928   6.833 -0.0137  1.1892  0.4043
27559SOL    HW292992  11.552   7.012   6.821 -1.2944 -0.7315 -0.0829
27560SOL     OW92993   4.165   9.637  11.977 -0.9424 -0.4672 -0.0471
27560SOL    HW192994   4.072   9.647  11.957 -1.0571  0.2514  0.7888
27560SOL    HW292995   4.207   9.711  11.932 -0.8686 -0.3827  0.1588
27561SOL     OW92996  11.583   6.055   7.143  0.1688  0.0285 -0.4646
27561SOL    HW192997  11.672   6.083   7.120 -0.1838  0.6989 -1.0395
27561SOL    HW292998  11.531   6.075   7.065 -0.2594 -1.5264 -0.6270
27562SOL     OW92999   9.949   8.015   3.553 -0.0722 -0.0898 -0.0847
27562SOL    HW193000   9.963   8.082   3.486 -0.9428  0.1476 -0.0400
27562SOL    HW293001   9.932   8.064   3.633  0.1650 -0.3671  0.1386
27563SOL     OW93002   5.399  11.013   0.731  0.3786 -0.1795 -0.1727
27563SOL    HW193003   5.451  10.964   0.668  3.8359  2.1277  0.6265
27563SOL    HW293004   5.446  11.096   0.742 -3.0052  1.7485  1.4398
27564SOL     OW93005   5.718   8.212   1.299 -0.0676 -0.5454  0.4303
27564SOL    HW193006   5.628   8.209   1.266 -0.3132 -1.9247  1.1261
27564SOL    HW293007   5.709   8.230   1.393  0.4680  0.5694  0.2875
27565SOL     OW93008   6.037  11.794   3.936 -0.7150 -0.2541 -0.6784
27565SOL    HW193009   5.981  11.854   3.985  0.4393  0.2596  0.0444
27565SOL    HW293010   6.050  11.836   3.851  0.4307  0.7518 -0.0271
27566SOL     OW93011   2.611  10.255   3.413 -0.0431 -0.3545 -0.3068
27566SOL    HW193012   2.586  10.275   3.323  0.3458  0.9192 -0.1446
27566SOL    HW293013   2.530  10.221   3.453 -0.9100  1.4331 -0.4615
27567SOL     OW93014   8.848  10.369   0.946  0.3019  0.2325  0.2871
27567SOL    HW193015   8.834  10.276   0.958  1.5208 -0.4911 -2.9152
27567SOL    HW293016   8.761  10.408   0.949 -0.3417 -1.1722  0.3985
27568SOL     OW93017   4.106   6.775  10.175 -0.5821 -0.3213 -0.2471
27568SOL    HW193018   4.046   6.848  10.196 -1.9576 -1.3457 -0.4692
27568SOL    HW293019   4.052   6.697  10.186  0.5292 -1.2482 -1.2221
27569SOL     OW93020   9.352   9.318   7.531  0.1068  0.2587 -0.3533
27569SOL    HW193021   9.318   9.351   7.614 -1.6235  0.6488 -1.1900
27569SOL    HW293022   9.385   9.230   7.552 -1.3690 -0.1082  0.5192
27570SOL     OW93023   8.312   7.120   8.482 -0.4330 -0.0925  0.5315
27570SOL    HW193024   8.238   7.140   8.424 -1.1945 -0.8889  1.2039
27570SOL    HW293025   8.360   7.051   8.436 -0.8059 -0.4327  0.6400
27571SOL     OW93026   6.894  12.827   5.699 -0.0345 -0.4728 -0.2671
27571SOL    HW193027   6.940  12.868   5.773  0.3652  1.2264 -1.4006
27571SOL    HW293028   6.963  12.788   5.646 -0.2042 -0.6779 -0.3383
27572SOL     OW93029  10.934   4.181   5.716  0.3526 -0.0360 -0.2558
27572SOL    HW193030  10.907   4.102   5.668  0.3103 -0.0496 -0.2097
27572SOL    HW293031  10.863   4.244   5.700 -0.0868 -0.3278  0.5010
27573SOL     OW93032   8.037   0.871   9.195  0.1797 -0.8232  0.1766
27573SOL    HW193033   8.104   0.939   9.204 -1.8695  1.5358 -1.0931
27573SOL    HW293034   8.070   0.798   9.248  2.5147  1.1461  1.6797
27574SOL     OW93035   5.664  11.761   0.410 -0.1155 -0.3131 -0.1616
27574SOL    HW193036   5.598  11.740   0.477  0.0352 -1.4960 -0.3696
27574SOL    HW293037   5.613  11.787   0.333 -0.2937  2.0600  0.6615
27575SOL     OW93038   4.771   5.355   0.096 -0.5657  0.2158  0.0416
27575SOL    HW193039   4.738   5.367   0.007  0.4649  0.2491 -0.3425
27575SOL    HW293040   4.854   5.310   0.085 -0.5754 -0.0688  1.0138
27576SOL     OW93041   1.531   9.270   4.561 -0.5306  0.2991  0.6575
27576SOL    HW193042   1.547   9.226   4.478  2.8721  1.0688  0.7239
27576SOL    HW293043   1.569   9.212   4.627 -1.0581  0.7723  1.4023
27577SOL     OW93044   9.142   0.640  11.349  0.4139 -0.2303  0.2804
27577SOL    HW193045   9.218   0.638  11.406  0.8149  0.3909 -0.2204
27577SOL    HW293046   9.173   0.679  11.267 -0.2057 -0.8751 -0.2830
27578SOL     OW93047   6.635   0.167   9.545 -0.4598 -0.2349 -0.0803
27578SOL    HW193048   6.557   0.115   9.558 -2.0078  2.3238  2.0976
27578SOL    HW293049   6.624   0.242   9.604  3.8406  0.0705  0.6959
27579SOL     OW93050   9.829  11.820   3.051  0.6535 -0.0336  0.2044
27579SOL    HW193051   9.880  11.820   2.970 -1.5590  1.3663 -1.2973
27579SOL    HW293052   9.761  11.885   3.037  1.0713  1.4342  3.8387
27580SOL     OW93053   8.236   4.136   1.659  0.1730  0.3317  0.4886
27580SOL    HW193054   8.306   4.100   1.714 -0.5557 -0.4772  0.9230
27580SOL    HW293055   8.202   4.060   1.611  1.9952  1.2836 -2.5464
27581SOL     OW93056  11.143   3.543   6.196 -0.3693 -0.2490 -0.4397
27581SOL    HW193057  11.068   3.600   6.178 -1.6213 -0.8378  2.3129
27581SOL    HW293058  11.106   3.455   6.202  0.2888 -0.4538  1.7417
27582SOL     OW93059   0.509   5.750  12.859 -0.3964 -0.2318  0.4493
27582SOL    HW193060   0.481   5.839  12.882 -0.3448 -0.6962  2.5380
27582SOL    HW293061   0.546   5.758  12.772 -0.3626  1.8080  0.6044
27583SOL     OW93062   2.353   0.399   5.731 -0.0192 -0.1710 -0.0892
27583SOL    HW193063   2.278   0.427   5.783 -1.3228 -1.8576 -0.9734
27583SOL    HW293064   2.365   0.307   5.753 -0.3886 -0.8494 -2.4234
27584SOL     OW93065   1.137  11.842   0.581  0.1865  0.0719 -0.7655
27584SOL    HW193066   1.120  11.842   0.487 -0.7503  0.3645 -0.5952
27584SOL    HW293067   1.144  11.934   0.605  0.0759  0.0099 -0.4859
27585SOL     OW93068   5.619   5.969   3.094 -0.1395  0.1529  0.6112
27585SOL    HW193069   5.648   5.955   3.184 -1.1790 -0.6102  0.8375
27585SOL    HW293070   5.659   5.897   3.045 -0.5024 -0.1041  0.6826
27586SOL     OW93071   6.465   2.704   2.008 -0.5842  0.3966  0.1938
27586SOL    HW193072   6.508   2.682   1.926 -2.7938  3.4251 -2.0240
27586SOL    HW293073   6.445   2.797   2.000 -1.2426  0.7470  4.0632
27587SOL     OW93074   1.338   2.865   8.758  0.2018 -0.0001 -0.0251
27587SOL    HW193075   1.274   2.821   8.702  0.8025  1.4369 -1.9545
27587SOL    HW293076   1.367   2.798   8.819 -0.0816 -1.8200 -1.8066
27588SOL     OW93077  12.558   5.088   2.242  0.1583  0.5518  0.6360
27588SOL    HW193078  12.592   5.062   2.328  1.0225  1.7699  0.6919
27588SOL    HW293079  12.467   5.059   2.242  0.5324 -0.6827  1.4245
27589SOL     OW93080   3.315   7.262  11.020 -0.1775 -0.1573  0.3255
27589SOL    HW193081   3.285   7.293  11.105  2.9816  1.2681  1.0532
27589SOL    HW293082   3.297   7.168  11.021  0.2829 -0.2925  2.8278
27590SOL     OW93083   3.273   2.739   9.150 -0.5055  0.0371  0.4345
27590SOL    HW193084   3.331   2.805   9.187  0.0075 -0.2705  0.1818
27590SOL    HW293085   3.310   2.655   9.177  1.4584 -0.3504 -2.8893
27591SOL     OW93086   0.664   8.790   3.093 -0.1580  0.4331  0.5274
27591SOL    HW193087   0.675   8.705   3.051 -0.6884  1.8737 -2.8095
27591SOL    HW293088   0.684   8.854   3.025  0.8855  3.0713  3.0637
27592SOL     OW93089   2.045   5.078   6.513  0.0754 -0.3826 -0.1003
27592SOL    HW193090   2.000   5.098   6.595  1.4325  1.5020  0.2550
27592SOL    HW293091   2.055   4.983   6.513 -0.6253 -0.4793  1.5604
27593SOL     OW93092   7.298  10.936   6.116  0.0893 -0.6153 -0.1935
27593SOL    HW193093   7.232  10.952   6.048 -1.3899 -1.9567  0.8484
27593SOL    HW293094   7.348  10.861   6.084 -0.7457 -1.3838  0.2439
27594SOL     OW93095   6.557   2.996   1.175 -0.2104  0.1510  0.0789
27594SOL    HW193096   6.550   3.082   1.216  0.1880  0.3516 -0.2651
27594SOL    HW293097   6.642   2.963   1.203 -0.8733 -0.6585  1.1947
27595SOL     OW93098  10.099   4.328   7.726  0.6460 -0.1293  0.5945
27595SOL    HW193099  10.162   4.262   7.696  1.1060  0.4041  0.3383
27595SOL    HW293100  10.055   4.356   7.646  1.9168  1.3426  0.3524
27596SOL     OW93101   8.757   1.318   1.039 -0.2447 -0.4038 -0.2554
27596SOL    HW193102   8.775   1.224   1.050 -1.3582 -0.6785 -0.6646
27596SOL    HW293103   8.716   1.344   1.122  0.2411 -0.2256 -0.0672
27597SOL     OW93104   0.029   4.358  12.309 -0.5887  0.0081  0.3680
27597SOL    HW193105   0.023   4.264  12.325  0.8915  0.1457  2.1324
27597SOL    HW293106   0.106   4.368  12.253 -1.7587  0.0796 -1.2940
27598SOL     OW93107   2.075   2.208   4.023  0.2105 -0.6644 -0.6216
27598SOL    HW193108   2.090   2.291   3.976 -1.8481  1.1141  1.6011
27598SOL    HW293109   2.105   2.225   4.112 -0.9076 -2.0585  0.0669
27599SOL     OW93110  11.907   3.797   8.213 -0.1622  0.2504  0.4577
27599SOL    HW193111  11.842   3.814   8.282 -0.0826 -0.8934  0.8532
27599SOL    HW293112  11.865   3.825   8.132 -1.2873 -0.7022  0.6775
27600SOL     OW93113  11.880   8.783   3.414  0.4046 -0.2729  0.1013
27600SOL    HW193114  11.866   8.822   3.500  1.1428 -4.5534  2.4869
27600SOL    HW293115  11.975   8.767   3.410  0.4008 -0.0412 -1.5818
27601SOL     OW93116   5.109  11.288   6.632  0.1339  0.4190  0.0587
27601SOL    HW193117   5.038  11.253   6.687  0.4866  0.4189  0.5203
27601SOL    HW293118   5.189  11.252   6.670  0.3369 -0.2981 -0.9926
27602SOL     OW93119   9.183   1.522   5.770  0.2561 -0.1920 -0.0488
27602SOL    HW193120   9.137   1.523   5.854 -1.8860 -1.3024 -1.1410
27602SOL    HW293121   9.161   1.605   5.730 -0.1086 -0.3769 -0.2283
27603SOL     OW93122   6.436   1.365  10.885 -0.4420  0.1772  0.1609
27603SOL    HW193123   6.481   1.416  10.817 -1.0210  0.7236  0.1844
27603SOL    HW293124   6.493   1.372  10.962  0.7613 -1.3148 -0.5338
27604SOL     OW93125   6.049   9.741  11.200 -0.0443 -0.3729 -0.1290
27604SOL    HW193126   6.007   9.778  11.276  0.6908  0.3899 -0.0804
27604SOL    HW293127   5.995   9.768  11.126 -0.3391 -0.4736  0.0515
27605SOL     OW93128   0.346   8.857   5.533 -0.3142 -0.2082 -0.1470
27605SOL    HW193129   0.364   8.855   5.439 -1.1639 -0.5566 -0.3152
27605SOL    HW293130   0.371   8.770   5.564  0.6544  0.1532  0.0858
27606SOL     OW93131   8.294   6.635   5.557 -0.6929 -0.0225  0.3723
27606SOL    HW193132   8.233   6.653   5.629 -2.1802  2.7480 -1.3693
27606SOL    HW293133   8.241   6.592   5.491  0.0564 -0.4391  0.0315
27607SOL     OW93134   2.053  12.358   1.267 -0.2660  0.7327 -0.0785
27607SOL    HW193135   2.121  12.312   1.218  0.2859  1.8356 -0.3814
27607SOL    HW293136   2.049  12.312   1.351  0.0561 -0.0455 -0.4825
27608SOL     OW93137   4.477   9.583  10.318 -0.0197 -0.0434  0.2311
27608SOL    HW193138   4.552   9.626  10.358  0.3445  2.5409 -2.8599
27608SOL    HW293139   4.404   9.645  10.330 -0.2809  0.0279 -1.5425
27609SOL     OW93140  10.112   1.334   8.903 -0.2439  0.2013  0.4543
27609SOL    HW193141  10.061   1.353   8.981  1.5459  0.9241  1.5103
27609SOL    HW293142  10.058   1.273   8.853 -1.3406 -0.4510  2.3422
27610SOL     OW93143   2.511   3.556  12.567 -0.1819  0.2177 -0.0773
27610SOL    HW193144   2.435   3.596  12.525 -1.0446 -0.4188  0.8228
27610SOL    HW293145   2.577   3.625  12.571 -1.3444  1.3124  0.7131
27611SOL     OW93146  12.362  12.158   5.900  0.4224  0.1512 -0.4671
27611SOL    HW193147  12.407  12.080   5.932 -0.0549 -0.1952 -0.6383
27611SOL    HW293148  12.357  12.215   5.976  0.2713 -0.2167 -0.1981
27612SOL     OW93149   5.299   9.033   3.676 -0.2517  0.0720  0.5020
27612SOL    HW193150   5.247   9.069   3.748  1.0689 -0.1616  1.6085
27612SOL    HW293151   5.324   9.110   3.624 -1.5309  0.2024  0.0588
27613SOL     OW93152   3.700   4.580   9.518 -1.1197 -0.6624 -0.1059
27613SOL    HW193153   3.733   4.563   9.429 -0.7585  0.2745 -0.1590
27613SOL    HW293154   3.640   4.653   9.508  0.6045  0.9303  0.7302
27614SOL     OW93155   6.466   1.953   2.933 -0.0834 -0.8346 -0.2395
27614SOL    HW193156   6.386   1.900   2.924  0.4561 -1.7000 -0.0682
27614SOL    HW293157   6.468   1.976   3.026 -0.3028 -0.5248 -0.3085
27615SOL     OW93158   4.539   0.923   3.249 -0.0569 -0.3678  0.1027
27615SOL    HW193159   4.497   0.909   3.164  0.7727 -1.9551 -0.0653
27615SOL    HW293160   4.472   0.900   3.313 -0.2874 -0.3304 -0.1236
27616SOL     OW93161  12.602   5.443   0.410 -0.4035 -0.1161  0.0492
27616SOL    HW193162  12.525   5.476   0.456  0.4114 -1.9550  3.0356
27616SOL    HW293163  12.630   5.515   0.354 -2.3114  1.8170  1.4407
27617SOL     OW93164   2.941  10.969   8.326 -0.2312  0.1552 -0.1657
27617SOL    HW193165   2.871  10.946   8.388 -0.3194  0.4340 -0.1634
27617SOL    HW293166   3.012  10.909   8.348 -0.1926  0.3776  0.3386
27618SOL     OW93167  11.550   8.292   2.904 -0.0067 -0.0403 -0.1626
27618SOL    HW193168  11.510   8.287   2.817 -2.6545  0.4906  0.9149
27618SOL    HW293169  11.482   8.331   2.959  1.0568 -1.6036  2.4439
27619SOL     OW93170   1.456  12.511   7.165 -0.5133 -0.3585  0.1511
27619SOL    HW193171   1.365  12.498   7.139 -0.4545  0.5308 -0.5610
27619SOL    HW293172   1.498  12.548   7.087 -0.1183  1.4994  1.1895
27620SOL     OW93173   9.505   3.055   3.786 -0.1552 -0.1704 -0.4622
27620SOL    HW193174   9.490   2.964   3.813  0.6378 -0.4282 -0.8726
27620SOL    HW293175   9.597   3.071   3.807 -0.7198  1.1242  1.2774
27621SOL     OW93176   5.452   2.995   7.095  0.6108 -0.4961 -0.3588
27621SOL    HW193177   5.438   2.940   7.018 -0.4663  0.1857 -0.6780
27621SOL    HW293178   5.366   3.035   7.112  0.9289 -0.3240  0.9566
27622SOL     OW93179   0.896   2.909   8.222 -0.3768  0.3384  0.2151
27622SOL    HW193180   0.964   2.842   8.210 -1.8132 -1.0166 -0.7065
27622SOL    HW293181   0.886   2.948   8.136 -2.9140 -1.6823 -0.5277
27623SOL     OW93182   4.800  12.168   7.707 -0.2018 -0.3001 -0.1716
27623SOL    HW193183   4.734  12.158   7.776 -1.1979 -0.9061 -1.1883
27623SOL    HW293184   4.883  12.160   7.754 -0.6966  2.6924  1.5022
27624SOL     OW93185   2.892  11.468   3.885  0.6603 -0.1477  0.3469
27624SOL    HW193186   2.931  11.382   3.871 -0.8013 -1.2044  2.3229
27624SOL    HW293187   2.800  11.450   3.906  0.0941  1.9688 -0.0726
27625SOL     OW93188   6.075   8.807   1.588 -0.0695  0.2217  0.3077
27625SOL    HW193189   6.032   8.775   1.667 -1.0437 -1.9215 -1.0099
27625SOL    HW293190   6.166   8.777   1.596 -0.5707 -1.4978 -0.1153
27626SOL     OW93191   5.145   6.326   0.076  0.8216 -0.8152  0.5468
27626SOL    HW193192   5.071   6.361   0.024  1.2302  0.3443  0.7093
27626SOL    HW293193   5.222   6.366   0.036  1.2933 -1.3976  0.8767
27627SOL     OW93194   6.483   7.056   4.547 -0.4351 -0.0034 -0.0306
27627SOL    HW193195   6.491   6.962   4.533 -0.7699 -0.0548  0.1242
27627SOL    HW293196   6.571   7.090   4.531  0.0333 -0.5208  1.3272
27628SOL     OW93197   6.999   9.413   0.754 -0.0157  0.0267 -0.4205
27628SOL    HW193198   6.921   9.411   0.698 -0.5577 -1.9810  0.3189
27628SOL    HW293199   6.998   9.501   0.792 -0.2997  1.0210 -2.5706
27629SOL     OW93200  10.504   6.292   9.607 -0.5702 -0.1503  0.5818
27629SOL    HW193201  10.527   6.382   9.626  3.2365 -1.0538  0.9720
27629SOL    HW293202  10.581   6.255   9.565 -2.6439 -2.7958 -1.3088
27630SOL     OW93203   4.406   6.815   3.670  0.4110 -0.1823 -0.1932
27630SOL    HW193204   4.485   6.834   3.619  0.9608  2.8635  1.5436
27630SOL    HW293205   4.435   6.750   3.735  0.4238 -1.9145 -1.8306
27631SOL     OW93206   3.263  12.504   6.725 -0.2002 -0.4699  0.3195
27631SOL    HW193207   3.199  12.558   6.678  0.3396  0.1208  0.2539
27631SOL    HW293208   3.226  12.492   6.812  0.1810  0.9463  0.7008
27632SOL     OW93209   4.099   4.649   1.000 -0.1007 -0.1400  0.0407
27632SOL    HW193210   4.024   4.591   0.987 -0.1222 -0.3607  1.0706
27632SOL    HW293211   4.123   4.637   1.091 -0.5783  2.0350  0.5155
27633SOL     OW93212   9.811   8.306  11.508 -0.0588  0.1846  0.4571
27633SOL    HW193213   9.820   8.383  11.452  0.5123  1.2005  1.8871
27633SOL    HW293214   9.773   8.239  11.451  2.1411  0.5793 -1.6757
27634SOL     OW93215   0.164   2.983   8.063  0.7594  0.0638  0.5176
27634SOL    HW193216   0.103   2.954   8.131  0.7403  2.1657  1.4655
27634SOL    HW293217   0.221   3.046   8.107  0.7251  1.5246 -1.3981
27635SOL     OW93218  10.661   7.184   7.840  0.3673 -0.1991 -0.5943
27635SOL    HW193219  10.617   7.099   7.837 -0.1154 -0.0445  1.1120
27635SOL    HW293220  10.747   7.165   7.876 -0.0584  0.1174  0.6527
27636SOL     OW93221   1.880   2.279   6.970 -0.2455  0.5945  0.6308
27636SOL    HW193222   1.785   2.292   6.970 -0.3650 -0.0053 -1.2752
27636SOL    HW293223   1.914   2.349   6.913  0.2719 -0.1721 -0.0249
27637SOL     OW93224   7.326   1.783  11.611 -0.0905 -0.3151  0.2150
27637SOL    HW193225   7.244   1.749  11.646 -0.3268 -1.4154 -1.3170
27637SOL    HW293226   7.349   1.856  11.670  0.1208 -2.6635  3.2699
27638SOL     OW93227   5.085   2.621   8.522  0.0742  0.6136  0.1064
27638SOL    HW193228   5.039   2.591   8.444  0.2195  0.2822  0.1434
27638SOL    HW293229   5.016   2.638   8.586 -0.0458  0.8994 -0.0960
27639SOL     OW93230   8.518   5.089   4.400  0.5029 -0.3076  0.2902
27639SOL    HW193231   8.510   5.181   4.425  1.4548  0.6243 -2.5361
27639SOL    HW293232   8.427   5.059   4.390  0.1956  0.4072  0.8102
27640SOL     OW93233   9.622   7.661  12.499  0.1895 -0.3897  0.3766
27640SOL    HW193234   9.684   7.705  12.556 -0.6787  0.0917  0.9804
27640SOL    HW293235   9.538   7.704  12.517 -0.1432 -0.3545 -1.1258
27641SOL     OW93236   3.318  10.034   0.044 -0.2772 -0.2659  0.4959
27641SOL    HW193237   3.359  10.088  -0.024  0.1300 -1.5940 -0.3569
27641SOL    HW293238   3.389  10.020   0.107 -0.3651  0.1283  0.6867
27642SOL     OW93239   5.483   5.070   7.156 -0.5054 -0.0873 -0.1565
27642SOL    HW193240   5.566   5.105   7.186 -1.5036  1.8279  0.5561
27642SOL    HW293241   5.497   4.976   7.148  1.0899 -0.1006  2.0526
27643SOL     OW93242  12.649   8.242  11.234  0.0900 -0.0787  0.7095
27643SOL    HW193243  12.591   8.282  11.300 -1.3045  0.4406 -0.7749
27643SOL    HW293244  12.729   8.294  11.240 -0.1867  0.2820  1.6462
27644SOL     OW93245   9.477   0.322  12.383  0.3449 -0.2170  0.5421
27644SOL    HW193246   9.517   0.332  12.297  0.5126 -1.4164  0.4617
27644SOL    HW293247   9.470   0.411  12.417  1.8161  0.1414 -0.0189
27645SOL     OW93248   3.096   9.203   5.010  0.1892 -0.2024 -0.2278
27645SOL    HW193249   3.048   9.268   4.958  1.1786  0.4042 -0.4062
27645SOL    HW293250   3.089   9.123   4.958 -0.3559 -0.0493 -0.4069
27646SOL     OW93251   5.013  11.744   4.877 -0.2284 -0.6815 -0.0028
27646SOL    HW193252   5.037  11.821   4.825  1.7065 -1.7645 -0.7837
27646SOL    HW293253   4.918  11.752   4.887 -0.0311  2.1146  0.4869
27647SOL     OW93254   7.807  11.249   7.645  0.3216  0.1875 -0.1123
27647SOL    HW193255   7.806  11.302   7.566 -0.8136  0.4689  0.0696
27647SOL    HW293256   7.754  11.172   7.623 -2.2149  1.4323  1.0847
27648SOL     OW93257   5.880   1.395  12.501  0.0641  0.5511  0.1064
27648SOL    HW193258   5.891   1.361  12.590  1.0992  0.1157 -0.1784
27648SOL    HW293259   5.941   1.469  12.495 -0.6665  1.1695  0.0428
27649SOL     OW93260   1.838   9.224   4.468 -0.3027 -0.0103 -0.3130
27649SOL    HW193261   1.874   9.239   4.555 -0.3371  0.8549 -0.4390
27649SOL    HW293262   1.812   9.311   4.437 -0.7577 -0.3727 -0.9824
27650SOL     OW93263   7.296   6.111   5.429  0.5130  0.0106 -0.1353
27650SOL    HW193264   7.359   6.150   5.490  2.2115 -1.1862 -1.0683
27650SOL    HW293265   7.303   6.017   5.445 -1.5175 -0.1515  0.1445
27651SOL     OW93266   8.045   4.485   5.421  0.3908  0.3644 -0.4174
27651SOL    HW193267   8.001   4.422   5.478  3.2110 -1.9800 -0.5741
27651SOL    HW293268   7.996   4.566   5.433 -0.8527 -0.7017  3.2364
27652SOL     OW93269  10.018  12.173   8.017 -0.0652 -0.1977  0.0403
27652SOL    HW193270   9.973  12.100   8.058  0.3150  0.6131  1.9832
27652SOL    HW293271  10.105  12.138   7.995  0.6911  0.0480  2.4190
27653SOL     OW93272   6.259   7.354   7.055 -0.2889 -0.3070 -0.1156
27653SOL    HW193273   6.352   7.372   7.047 -0.3892  1.1480  1.3680
27653SOL    HW293274   6.224   7.368   6.967  0.6931  0.4360 -0.4088
27654SOL     OW93275   9.035  11.614  10.688  0.1596  0.1897  0.0686
27654SOL    HW193276   9.032  11.684  10.623  0.1011 -2.4169 -2.9533
27654SOL    HW293277   8.965  11.637  10.750 -0.2819  2.4391 -1.1425
27655SOL     OW93278   2.715   9.704  10.833 -0.2748  0.2017  0.0351
27655SOL    HW193279   2.676   9.686  10.919 -3.0136  0.0608 -1.1489
27655SOL    HW293280   2.766   9.626  10.813 -2.1446 -1.1447  0.2450
27656SOL     OW93281  11.639  10.444   6.893  0.3872 -0.5077 -0.1410
27656SOL    HW193282  11.685  10.495   6.959 -1.0555  1.1409 -0.3173
27656SOL    HW293283  11.695  10.447   6.816 -0.4096  2.4080 -0.7114
27657SOL     OW93284   4.324  11.451   4.363 -0.0633 -0.1761  0.0958
27657SOL    HW193285   4.296  11.459   4.272 -1.6628 -0.6188  0.5192
27657SOL    HW293286   4.362  11.363   4.369 -0.8443 -0.5195  0.0704
27658SOL     OW93287   0.171   0.577   5.764 -0.5541  0.1581  0.0147
27658SOL    HW193288   0.253   0.614   5.731 -1.0197  0.4540 -0.8491
27658SOL    HW293289   0.130   0.648   5.813 -1.6249  0.9905 -1.9531
27659SOL     OW93290   1.894   0.773   5.444 -0.1053 -0.7215  0.0673
27659SOL    HW193291   1.974   0.738   5.481  0.4102 -0.2675 -0.5866
27659SOL    HW293292   1.865   0.839   5.506  0.0121 -0.9066  0.3186
27660SOL     OW93293  12.465   5.484  10.754  0.3819 -0.4887 -0.4303
27660SOL    HW193294  12.521   5.413  10.721  0.0311 -0.1596 -1.8040
27660SOL    HW293295  12.394   5.489  10.690 -1.9016 -1.6460  1.8433
27661SOL     OW93296  10.938   4.615   5.273  0.3121 -0.2271  0.0750
27661SOL    HW193297  10.926   4.568   5.355  1.1318 -0.0780  0.2852
27661SOL    HW293298  10.929   4.708   5.296  1.8698 -0.0970  0.2646
27662SOL     OW93299   4.450   4.444   2.134  0.0117  0.0076 -0.0693
27662SOL    HW193300   4.355   4.445   2.144  0.1794 -0.1652  1.9516
27662SOL    HW293301   4.467   4.494   2.054 -1.6714  1.7705  0.6140
27663SOL     OW93302   8.522   0.698   5.408 -0.2882 -0.4274 -0.4000
27663SOL    HW193303   8.427   0.702   5.398 -0.4125  1.0957  0.9493
27663SOL    HW293304   8.538   0.614   5.453 -0.9759 -0.7372 -0.7204
27664SOL     OW93305  10.714   9.121   5.146  0.2196 -0.1886  0.1741
27664SOL    HW193306  10.726   9.088   5.235 -0.6050 -2.3224 -0.4586
27664SOL    HW293307  10.794   9.095   5.100  0.1465 -0.0960 -0.0056
27665SOL     OW93308   8.331   0.215   8.994  0.4330 -0.2017 -0.9565
27665SOL    HW193309   8.391   0.210   8.920  1.1015  0.4960 -0.4722
27665SOL    HW293310   8.341   0.131   9.039  3.1618  0.8615  0.6943
27666SOL     OW93311   1.320  10.959   7.038 -0.3555  0.7643  0.2780
27666SOL    HW193312   1.284  10.935   7.123 -0.8507 -1.0459 -0.3909
27666SOL    HW293313   1.251  11.011   6.997 -0.4985  0.8432  0.6141
27667SOL     OW93314   2.841   3.477  10.301  0.1817  0.2878 -0.0540
27667SOL    HW193315   2.803   3.565  10.303 -1.3794 -0.3423 -0.1307
27667SOL    HW293316   2.873   3.467  10.211 -0.7158  0.3708 -0.3965
27668SOL     OW93317  11.165  11.341   2.209  0.5345 -0.4092 -0.3140
27668SOL    HW193318  11.252  11.306   2.230  0.6535 -1.1035 -1.8201
27668SOL    HW293319  11.128  11.277   2.147 -0.4145  0.6680 -0.8994
27669SOL     OW93320   4.427  10.186   5.004  0.6040 -0.0288  0.5369
27669SOL    HW193321   4.523  10.190   5.000  0.6025  1.7491  1.3756
27669SOL    HW293322   4.404  10.241   5.079 -1.0948 -0.1535  0.1360
27670SOL     OW93323   0.688   0.325  12.354  0.3835  0.5633 -0.2039
27670SOL    HW193324   0.697   0.352  12.445  1.1720  1.0209 -0.4097
27670SOL    HW293325   0.730   0.239  12.350  1.8202  1.2455 -0.4588
27671SOL     OW93326   3.048   4.633   0.847  0.1544  0.1503  0.2092
27671SOL    HW193327   3.134   4.631   0.805 -0.1399 -1.4992 -0.3992
27671SOL    HW293328   3.004   4.554   0.814 -1.1314  0.3096  1.4613
27672SOL     OW93329   7.066   9.170  11.626 -0.2599 -0.2107 -0.1790
27672SOL    HW193330   7.037   9.101  11.686 -1.2902 -0.5093 -0.9877
27672SOL    HW293331   7.057   9.251  11.677  0.4890 -0.5987  0.6110
27673SOL     OW93332   9.346   2.545   5.067  0.6440  0.3025  0.0692
27673SOL    HW193333   9.285   2.577   5.133  0.9796 -0.8385  0.9718
27673SOL    HW293334   9.432   2.563   5.103  0.9232  2.5040 -1.4926
27674SOL     OW93335   7.853  11.805   2.198  0.2845  0.4862 -0.0024
27674SOL    HW193336   7.842  11.869   2.128 -0.2882 -0.1888 -0.5557
27674SOL    HW293337   7.813  11.725   2.164  2.9259 -0.8451 -0.2307
27675SOL     OW93338   4.010   9.152   6.242  0.2340 -0.0831  0.0184
27675SOL    HW193339   4.089   9.098   6.244 -0.2649 -0.9330 -1.2594
27675SOL    HW293340   4.043   9.242   6.237  1.1363 -0.4124 -0.3526
27676SOL     OW93341  12.517   7.697   1.840 -0.1403  0.7679  0.0407
27676SOL    HW193342  12.530   7.635   1.912 -1.3897 -0.5962 -0.8472
27676SOL    HW293343  12.601   7.743   1.833  0.7594 -0.6577  0.9018
27677SOL     OW93344  12.674   8.749   2.183  0.3446 -0.0003 -0.5016
27677SOL    HW193345  12.704   8.840   2.178  1.3693 -0.2935  0.0881
27677SOL    HW293346  12.656   8.735   2.276  0.2355 -0.4174 -0.5862
27678SOL     OW93347   2.805   9.695  12.139  0.6257  0.1687 -0.5965
27678SOL    HW193348   2.772   9.668  12.053 -0.7768  0.6488 -0.2326
27678SOL    HW293349   2.873   9.631  12.159 -0.9758 -1.7004 -0.7994
27679SOL     OW93350   2.628   7.563   4.489 -0.2202  0.2961  0.1937
27679SOL    HW193351   2.595   7.483   4.529  0.9878  0.5505  1.8025
27679SOL    HW293352   2.576   7.633   4.529  0.0502  0.4519  0.2788
27680SOL     OW93353   3.066  11.807   4.638  0.0538 -0.2458  0.1678
27680SOL    HW193354   3.007  11.882   4.654 -1.2025 -0.9569 -0.9300
27680SOL    HW293355   3.080  11.807   4.544  2.8999  0.6266  0.4993
27681SOL     OW93356   7.118   9.457   7.934 -0.3444 -0.3915 -0.6780
27681SOL    HW193357   7.096   9.406   7.856  0.2004 -1.8849  0.1047
27681SOL    HW293358   7.195   9.508   7.909 -0.5916 -0.3280 -1.3192
27682SOL     OW93359  12.324  10.441   1.811 -0.4590 -0.0483 -0.2543
27682SOL    HW193360  12.303  10.474   1.898  1.2770 -0.8284  0.5108
27682SOL    HW293361  12.346  10.520   1.760 -1.7844  0.4376 -0.1062
27683SOL     OW93362  12.909   8.550  11.018  0.4855  0.4794  0.7313
27683SOL    HW193363  12.893   8.643  11.036 -0.6292  0.2239  1.0988
27683SOL    HW293364  12.845   8.527  10.952 -1.1758 -0.7013  2.6392
27684SOL     OW93365   9.883   3.246   6.833  0.1391  0.4338  0.5423
27684SOL    HW193366   9.874   3.222   6.925  0.6080  3.6144  1.5457
27684SOL    HW293367   9.815   3.196   6.789  1.1746 -2.7204  2.2037
27685SOL     OW93368   2.081  11.605   0.176  0.5280 -0.4435  0.1682
27685SOL    HW193369   2.017  11.537   0.196  1.8772 -1.4882  1.1753
27685SOL    HW293370   2.029  11.682   0.154 -1.0528 -1.3143  0.6911
27686SOL     OW93371   2.745   2.736  12.502  0.0311  0.4819  0.2367
27686SOL    HW193372   2.740   2.830  12.521 -0.7955  0.3949  0.5097
27686SOL    HW293373   2.700   2.695  12.576 -0.3955 -0.0753 -0.3262
27687SOL     OW93374   5.828   8.599   4.233  0.0700  0.4085 -0.6659
27687SOL    HW193375   5.763   8.628   4.169 -0.2324  0.7203 -0.2205
27687SOL    HW293376   5.778   8.546   4.296  0.6588 -1.3756 -1.6391
27688SOL     OW93377   9.537  11.098  12.773 -0.2282 -0.2164  0.2273
27688SOL    HW193378   9.485  11.178  12.783  1.1660  1.6231 -4.6251
27688SOL    HW293379   9.482  11.040  12.721 -0.2877 -1.5822  1.7239
27689SOL     OW93380   8.725   7.380   1.100 -0.5475 -0.2357 -0.7126
27689SOL    HW193381   8.784   7.307   1.080 -0.1942 -1.1953  3.0761
27689SOL    HW293382   8.647   7.339   1.137 -0.4334  1.2078  1.3142
27690SOL     OW93383  11.881   9.424   8.417  0.4628 -0.5376  0.6114
27690SOL    HW193384  11.896   9.350   8.476  0.5107 -0.9858  0.0473
27690SOL    HW293385  11.789   9.445   8.429 -0.3595 -2.5972 -1.3494
27691SOL     OW93386   2.193  10.951   3.994  0.3067 -0.6805  0.2137
27691SOL    HW193387   2.120  10.979   3.939  0.4322 -0.9568 -0.1006
27691SOL    HW293388   2.158  10.951   4.083 -0.0330 -0.6770  0.0804
27692SOL     OW93389  12.950   5.129   5.922 -0.4163 -0.1472 -0.5005
27692SOL    HW193390  13.045   5.122   5.916 -0.0369  1.0718  2.2775
27692SOL    HW293391  12.922   5.042   5.951  0.3814  0.4006  2.2324
27693SOL     OW93392   6.017   5.112   7.234  0.2902  0.5469  0.0003
27693SOL    HW193393   6.009   5.027   7.190  0.9077  0.1232  0.6911
27693SOL    HW293394   6.044   5.091   7.323 -0.5047  1.4197  0.4681
27694SOL     OW93395   4.848   8.394   2.362 -0.3451  0.2276 -0.4624
27694SOL    HW193396   4.793   8.349   2.298  0.6349 -1.5828 -0.1086
27694SOL    HW293397   4.889   8.465   2.312 -0.2535 -0.6264 -1.6502
27695SOL     OW93398  11.131   9.727   2.418  0.4159 -0.1247 -0.0787
27695SOL    HW193399  11.194   9.655   2.424 -0.9738 -1.2842  1.7089
27695SOL    HW293400  11.059   9.691   2.365  0.0070  0.1831  0.2587
27696SOL     OW93401   1.243   2.624   5.745  0.6000  0.3696  0.6438
27696SOL    HW193402   1.202   2.703   5.780  1.1078  0.4375  1.1068
27696SOL    HW293403   1.199   2.552   5.790  1.0163  0.4440  1.1799
27697SOL     OW93404  11.529  10.280   0.108 -0.4958 -0.0250  0.2622
27697SOL    HW193405  11.469  10.327   0.050  0.6152 -2.1648 -2.8804
27697SOL    HW293406  11.614  10.321   0.092  0.1111 -1.6600 -0.9638
27698SOL     OW93407   0.265   5.492  11.667 -0.2787  0.6273 -0.3537
27698SOL    HW193408   0.206   5.539  11.608  0.7983  1.8269 -0.5215
27698SOL    HW293409   0.329   5.451  11.609 -0.9446 -0.7527 -0.1790
27699SOL     OW93410   9.216   8.276   5.329  0.0939  0.5618  0.2473
27699SOL    HW193411   9.133   8.303   5.367 -0.2235 -0.1263  0.0631
27699SOL    HW293412   9.272   8.257   5.404 -0.5305 -0.7996  0.3933
27700SOL     OW93413   2.162   7.988  12.370  0.5251 -0.5980  0.2546
27700SOL    HW193414   2.144   7.935  12.448  0.6714  0.1068  0.7814
27700SOL    HW293415   2.222   8.057  12.401 -1.8100  1.5659  0.2664
27701SOL     OW93416   4.903   5.153   6.827 -0.1953  0.1051  0.8646
27701SOL    HW193417   4.954   5.230   6.847 -0.1922  0.0814  0.9443
27701SOL    HW293418   4.967   5.087   6.800 -0.2521  0.3572  0.0761
27702SOL     OW93419   2.071   6.086   1.938  0.6800  0.1303 -0.3560
27702SOL    HW193420   2.105   6.068   2.025  2.2068 -1.5852 -1.2404
27702SOL    HW293421   2.091   6.178   1.922  1.2238  0.2062  0.7285
27703SOL     OW93422  11.578   0.287   2.727  0.4665 -0.3749  0.0106
27703SOL    HW193423  11.495   0.266   2.771  0.8571  0.6237  1.2911
27703SOL    HW293424  11.645   0.271   2.793  1.0522  1.4472 -0.0974
27704SOL     OW93425   3.536   9.511   7.776 -0.0783  0.0575  0.5863
27704SOL    HW193426   3.508   9.503   7.685 -0.8331  0.5269  0.7624
27704SOL    HW293427   3.480   9.450   7.824  0.4965 -0.3812  0.7036
27705SOL     OW93428   3.578   2.281   2.107 -0.2512  0.3271 -0.2136
27705SOL    HW193429   3.625   2.320   2.034  1.7266 -1.4363  0.0239
27705SOL    HW293430   3.514   2.223   2.066 -0.6034  0.9340 -0.5318
27706SOL     OW93431   4.518  10.333   6.312 -0.6319  0.5068  0.2653
27706SOL    HW193432   4.522  10.250   6.264  1.1493  0.3217  0.6641
27706SOL    HW293433   4.589  10.385   6.274  0.4079  0.5908  2.2156
27707SOL     OW93434   3.040   9.201   9.620 -0.9351 -0.3925  0.2001
27707SOL    HW193435   3.085   9.117   9.606 -1.7430 -0.8692  0.4354
27707SOL    HW293436   2.962   9.197   9.566 -1.2393  0.0031  0.5952
27708SOL     OW93437   6.961   9.975   1.916  0.3001  0.1071  0.2163
27708SOL    HW193438   7.047   9.947   1.947  0.0612  0.0716  0.8614
27708SOL    HW293439   6.974  10.067   1.892  0.4922  0.1384  0.4296
27709SOL     OW93440  12.387   5.049   7.144 -0.4711  0.6448  0.2199
27709SOL    HW193441  12.332   4.971   7.152 -0.0223  0.2972 -0.0608
27709SOL    HW293442  12.367   5.100   7.222 -2.3465  1.2665 -0.5969
27710SOL     OW93443   3.531   8.941  11.173 -0.2194 -0.4432  0.4554
27710SOL    HW193444   3.577   8.952  11.090  0.6873 -2.3185  0.6573
27710SOL    HW293445   3.576   9.001  11.233  0.3754 -0.4807  0.0558
27711SOL     OW93446   0.320   4.927   9.205 -0.3278  0.1223  0.3232
27711SOL    HW193447   0.349   5.015   9.229 -0.5975  0.2851  0.0706
27711SOL    HW293448   0.369   4.869   9.263  0.9946  0.3435 -0.5190
27712SOL     OW93449   4.462   4.009   9.499 -0.9750  0.2495 -0.0513
27712SOL    HW193450   4.422   4.030   9.414 -0.2440  0.2143 -0.4076
27712SOL    HW293451   4.554   4.031   9.488 -0.4500 -1.7748  0.0376
27713SOL     OW93452  12.768   4.884  12.916 -0.1268  0.0962  0.3605
27713SOL    HW193453  12.707   4.858  12.984  1.1047  0.3322  1.6015
27713SOL    HW293454  12.849   4.903  12.963  1.4912 -1.9959 -1.3809
27714SOL     OW93455   0.426   7.614   3.935  0.0234  0.4044  0.2268
27714SOL    HW193456   0.335   7.632   3.913  0.5797 -0.0636 -2.9779
27714SOL    HW293457   0.447   7.675   4.006 -2.2414  1.7575 -0.1825
27715SOL     OW93458   0.379  12.642   2.267  0.0069  0.0797 -0.3934
27715SOL    HW193459   0.347  12.668   2.353  0.2449  0.7150 -0.4960
27715SOL    HW293460   0.422  12.720   2.232 -1.1272  0.1968 -1.5916
27716SOL     OW93461   4.104   5.411   4.244 -0.2392  0.4264  0.4015
27716SOL    HW193462   4.113   5.467   4.321  0.6566  0.7174  0.1031
27716SOL    HW293463   4.145   5.461   4.174 -0.8697  0.0813 -0.2317
27717SOL     OW93464   6.008   7.465   7.503  0.3877 -0.1131 -0.0899
27717SOL    HW193465   6.015   7.526   7.577  0.4291 -1.1742  0.8054
27717SOL    HW293466   5.947   7.398   7.533  2.4746 -2.0559  0.0705
27718SOL     OW93467   7.998   0.611   5.351 -0.0712 -0.8911  0.5082
27718SOL    HW193468   7.966   0.607   5.441 -1.2206 -1.7447  0.1010
27718SOL    HW293469   7.919   0.617   5.298  0.5788 -0.5749 -0.4533
27719SOL     OW93470   5.489   1.507   9.808  0.0818  0.4501 -0.5492
27719SOL    HW193471   5.552   1.544   9.869 -1.2786 -1.6623  2.3789
27719SOL    HW293472   5.412   1.564   9.816 -1.1115 -1.3204  2.0626
27720SOL     OW93473   2.057   0.106  10.064 -0.0716  0.2320  0.1077
27720SOL    HW193474   2.071   0.037  10.130 -2.5810  0.9664  1.5386
27720SOL    HW293475   2.131   0.165  10.076  0.9040 -1.0127  0.4409
27721SOL     OW93476  11.096   5.157   5.844 -0.0841 -0.0170 -0.4283
27721SOL    HW193477  11.010   5.194   5.825  0.1262  0.3815 -0.6200
27721SOL    HW293478  11.158   5.215   5.800  0.2178 -1.0268 -1.3826
27722SOL     OW93479   9.444   5.886   3.509  0.2169  0.1004 -0.4659
27722SOL    HW193480   9.484   5.959   3.556  0.8093 -0.4798 -0.0474
27722SOL    HW293481   9.508   5.815   3.516 -0.3375 -0.4507 -0.8817
27723SOL     OW93482   0.134   2.480  12.382  0.2777 -0.1273  0.0531
27723SOL    HW193483   0.076   2.554  12.371  0.8061 -0.0237 -2.7620
27723SOL    HW293484   0.078   2.410  12.417 -1.1800  0.4307 -1.0639
27724SOL     OW93485  11.447   6.768   8.933 -0.2511  0.1570  0.0266
27724SOL    HW193486  11.449   6.843   8.873 -0.8608  0.3869  0.2884
27724SOL    HW293487  11.484   6.696   8.882  0.2150  0.6010 -0.2711
27725SOL     OW93488  10.299   0.290   1.301 -0.3155 -0.3213 -0.1140
27725SOL    HW193489  10.299   0.380   1.267  0.8250 -0.5762 -0.8378
27725SOL    HW293490  10.391   0.263   1.296 -0.4076 -1.0109  1.5141
27726SOL     OW93491   1.646   8.865   7.123 -0.3203 -0.1913  0.5750
27726SOL    HW193492   1.697   8.874   7.042 -1.9491  0.4506 -0.4279
27726SOL    HW293493   1.573   8.809   7.099  0.2775 -1.7519  2.2032
27727SOL     OW93494   2.450   4.057   2.061 -0.1945  0.1042 -0.0927
27727SOL    HW193495   2.444   4.005   2.140  1.2463 -0.9202 -0.6175
27727SOL    HW293496   2.384   4.126   2.072 -1.0041 -0.8551  1.3358
27728SOL     OW93497  10.542  11.432   7.730 -0.1072 -0.0940  1.2890
27728SOL    HW193498  10.517  11.489   7.802  0.5168  1.9840 -0.0510
27728SOL    HW293499  10.466  11.374   7.717 -0.6560  0.2412  2.8565
27729SOL     OW93500  11.872  12.511  10.847 -0.1998 -0.1399  0.2762
27729SOL    HW193501  11.929  12.463  10.788  0.9504  0.2069  1.0704
27729SOL    HW293502  11.848  12.590  10.799  0.5048  0.0118  0.1725
27730SOL     OW93503   9.618   0.395   7.810  0.1081  0.1432 -0.6428
27730SOL    HW193504   9.557   0.377   7.738  0.2709 -0.0949 -0.7190
27730SOL    HW293505   9.691   0.335   7.797 -0.8865 -1.5220  0.9971
27731SOL     OW93506   0.066   2.165   2.103  0.4309 -0.7413 -0.2063
27731SOL    HW193507   0.104   2.244   2.064 -1.7153 -0.5564 -2.1353
27731SOL    HW293508   0.084   2.096   2.039 -2.2877 -0.6479 -1.1912
27732SOL     OW93509   5.880   5.554   2.780 -0.1170 -0.0480 -0.1060
27732SOL    HW193510   5.928   5.556   2.697  0.4669  0.3392  0.2426
27732SOL    HW293511   5.934   5.604   2.841  0.4021 -1.8772  1.0278
27733SOL     OW93512   0.854   0.730   3.645  0.7031 -0.1625 -0.0417
27733SOL    HW193513   0.868   0.824   3.632 -1.9132  0.5755  1.5563
27733SOL    HW293514   0.759   0.720   3.641  0.9749 -3.2443 -2.6677
27734SOL     OW93515   0.910   8.154  10.958 -0.4208  0.1393  0.1779
27734SOL    HW193516   0.858   8.143  10.879  0.1102 -3.2254  0.1533
27734SOL    HW293517   0.873   8.092  11.021  1.1957  0.3814  1.4498
27735SOL     OW93518   2.159   6.829   5.756 -0.2070  0.1069  0.0078
27735SOL    HW193519   2.231   6.798   5.701 -0.7226 -0.4516 -0.3684
27735SOL    HW293520   2.082   6.824   5.699 -1.2580 -2.9826  1.4902
27736SOL     OW93521   8.699  10.041   0.727 -0.3101 -0.3024 -0.8975
27736SOL    HW193522   8.714  10.134   0.711  0.2651 -0.0857  0.7762
27736SOL    HW293523   8.628  10.018   0.667 -1.1732  1.4566 -0.6219
27737SOL     OW93524   2.052   3.411   4.852 -0.2905 -0.2267 -0.1239
27737SOL    HW193525   2.045   3.504   4.872  1.5138 -0.1575  0.3754
27737SOL    HW293526   2.141   3.400   4.818  0.8144 -2.2708  3.0040
27738SOL     OW93527   3.799   5.134   9.025  0.7505 -0.0823  0.6431
27738SOL    HW193528   3.732   5.125   9.093  1.5387 -1.2782  1.3073
27738SOL    HW293529   3.753   5.116   8.943  0.2412 -0.8907  1.0848
27739SOL     OW93530   6.517  11.815   5.761 -0.1197 -0.1048  0.3278
27739SOL    HW193531   6.522  11.831   5.855  0.0660  0.2064  0.2672
27739SOL    HW293532   6.553  11.727   5.750 -0.7119 -0.3875  0.6133
27740SOL     OW93533  12.117   9.554   1.977 -0.1292  0.1672  0.1321
27740SOL    HW193534  12.166   9.629   2.011  1.1727 -0.4459 -0.2988
27740SOL    HW293535  12.183   9.502   1.929 -0.5287 -2.2326  1.9785
27741SOL     OW93536  10.467   9.311   4.582 -0.6899  0.3175  0.3634
27741SOL    HW193537  10.563   9.311   4.582 -0.6901  0.5261  0.1365
27741SOL    HW293538  10.443   9.305   4.489 -0.8982 -0.5602  0.4567
27742SOL     OW93539  12.563   3.227   7.745  0.2397  0.8505 -0.3761
27742SOL    HW193540  12.536   3.150   7.695 -1.3166  0.9913  0.1871
27742SOL    HW293541  12.624   3.193   7.811  0.9726  0.4034 -1.2639
27743SOL     OW93542   4.779   0.831   8.517 -0.2533 -0.3099 -0.0076
27743SOL    HW193543   4.704   0.774   8.501  0.9331 -2.0485  0.3566
27743SOL    HW293544   4.849   0.794   8.462  0.9886 -0.1884  1.4417
27744SOL     OW93545   1.217   8.528   3.848 -0.0675 -0.7251  0.3265
27744SOL    HW193546   1.201   8.581   3.769 -0.9203 -0.1309  0.8772
27744SOL    HW293547   1.312   8.514   3.848 -0.0887 -1.0517 -0.9936
27745SOL     OW93548   5.586  10.224   1.515 -0.4693 -0.4022 -0.0631
27745SOL    HW193549   5.497  10.257   1.522 -0.8072 -1.3413  0.3285
27745SOL    HW293550   5.635  10.271   1.582 -0.7580 -0.1572 -0.0250
27746SOL     OW93551   2.319   6.265   9.824  0.5048  0.3750  0.2633
27746SOL    HW193552   2.394   6.240   9.769 -0.5728 -1.5954 -0.4140
27746SOL    HW293553   2.258   6.308   9.764 -0.4111 -1.2326 -0.0028
27747SOL     OW93554   6.291  11.961   8.127 -0.2797 -0.3289  0.3038
27747SOL    HW193555   6.209  12.005   8.149 -0.7822 -0.8882 -0.4224
27747SOL    HW293556   6.277  11.927   8.039  1.0827  0.4078 -0.2156
27748SOL     OW93557   6.876  12.291   8.069 -0.1351  0.1848 -0.2523
27748SOL    HW193558   6.840  12.214   8.024 -0.8917  0.2667  0.2006
27748SOL    HW293559   6.815  12.361   8.048 -0.8867  0.0728  1.4641
27749SOL     OW93560   9.350   5.557   6.079 -0.0353 -0.3091  0.2931
27749SOL    HW193561   9.392   5.526   6.159 -2.0526 -0.4991  1.3327
27749SOL    HW293562   9.317   5.478   6.037 -0.6051 -0.0447  0.2391
27750SOL     OW93563   1.707   9.409   4.295 -0.2578  0.6124  0.3125
27750SOL    HW193564   1.690   9.489   4.246  1.5792  0.6936 -0.2508
27750SOL    HW293565   1.638   9.348   4.266 -1.5191  1.8745  0.5674
27751SOL     OW93566   6.521   8.029   3.711 -0.2386 -0.1759 -0.3760
27751SOL    HW193567   6.554   7.940   3.722 -1.7281 -0.5581  1.3272
27751SOL    HW293568   6.457   8.041   3.780 -0.8182  1.9013 -1.1691
27752SOL     OW93569   8.889   8.479   9.647 -0.0382 -0.0489 -0.0897
27752SOL    HW193570   8.978   8.490   9.679 -0.4739  0.7330  0.9336
27752SOL    HW293571   8.841   8.442   9.722 -0.9351  1.1384 -0.0418
27753SOL     OW93572  11.317  12.380   9.070  0.1386 -0.1057  0.1648
27753SOL    HW193573  11.306  12.475   9.064  1.5946  0.0539 -0.6099
27753SOL    HW293574  11.380  12.359   9.001 -0.2249 -1.6556  0.2645
27754SOL     OW93575  10.699   3.424   2.721  0.2893 -0.2298 -0.6476
27754SOL    HW193576  10.633   3.403   2.655 -0.9254  0.5413  0.2721
27754SOL    HW293577  10.781   3.392   2.684 -0.5379 -0.9046 -1.9840
27755SOL     OW93578   5.478   5.658   9.504 -0.6926  0.2157  0.3913
27755SOL    HW193579   5.430   5.728   9.459 -0.0044  1.5766  1.7014
27755SOL    HW293580   5.565   5.658   9.464 -0.4811  0.5625  0.8509
27756SOL     OW93581   6.997   9.182   5.191  0.0489  0.2176  0.1165
27756SOL    HW193582   7.019   9.272   5.166 -3.0600  0.9313 -0.4704
27756SOL    HW293583   6.938   9.192   5.266  0.9724 -1.4579  1.1288
27757SOL     OW93584  11.827   6.773   2.922  0.8542 -0.0484 -0.1282
27757SOL    HW193585  11.762   6.832   2.960 -0.6371 -1.6036 -0.0967
27757SOL    HW293586  11.819   6.786   2.828 -2.0400 -2.5197 -0.4005
27758SOL     OW93587   0.982  12.735   2.834  0.2039 -0.5357  0.1460
27758SOL    HW193588   0.960  12.818   2.878  0.0829 -0.0291 -0.8422
27758SOL    HW293589   0.964  12.752   2.741  2.4239 -0.8919 -0.3973
27759SOL     OW93590   2.688   6.446   1.709  0.1459  0.4224 -0.3214
27759SOL    HW193591   2.749   6.463   1.638 -0.2912  0.7365 -0.6227
27759SOL    HW293592   2.648   6.362   1.688  1.8986 -0.7991  0.8848
27760SOL     OW93593   8.080  11.851   4.884  0.5336  0.7113 -0.8217
27760SOL    HW193594   7.988  11.827   4.900  1.0060 -0.3230  0.4913
27760SOL    HW293595   8.109  11.788   4.817  0.6561  0.1435 -0.2455
27761SOL     OW93596   9.354   4.014   7.175 -0.0918 -0.0281 -0.0821
27761SOL    HW193597   9.401   4.084   7.219  1.6792 -0.9724 -0.3712
27761SOL    HW293598   9.326   3.955   7.245 -0.6449  0.3963  0.0643
27762SOL     OW93599  11.769   1.973   2.390  0.2266 -0.0967 -0.3462
27762SOL    HW193600  11.698   1.912   2.369 -0.0698  0.5575 -1.3022
27762SOL    HW293601  11.807   1.938   2.470 -0.3080 -1.2124 -0.5598
27763SOL     OW93602   4.083   0.971   7.089  0.0694  0.1452 -0.4337
27763SOL    HW193603   4.095   0.890   7.138  0.4853  1.1668  1.2847
27763SOL    HW293604   4.038   1.029   7.151 -0.6839  1.0630 -1.7921
27764SOL     OW93605   3.228  11.154   6.258  0.4077 -0.5643 -0.0503
27764SOL    HW193606   3.312  11.112   6.275  1.0737 -0.6718 -3.1250
27764SOL    HW293607   3.223  11.162   6.163 -2.7769  0.0819  0.0492
27765SOL     OW93608   2.194   2.293   7.178  0.3456 -0.4784 -0.1883
27765SOL    HW193609   2.114   2.327   7.217  1.5946  0.6516  1.4950
27765SOL    HW293610   2.248   2.370   7.161  3.0546 -1.3431  3.2712
27766SOL     OW93611   2.488   0.102   1.122  0.2371  0.2519 -0.3800
27766SOL    HW193612   2.393   0.117   1.118  0.2038  0.2457  0.2383
27766SOL    HW293613   2.514   0.087   1.031 -0.3426  0.3315 -0.5638
27767SOL     OW93614   3.154   8.067   0.278 -0.3538  0.1095  0.3059
27767SOL    HW193615   3.139   8.084   0.371  1.3364 -0.8745  0.8179
27767SOL    HW293616   3.077   8.103   0.234 -1.4369  0.1721  2.1211
27768SOL     OW93617   4.204   9.838   2.100 -0.1646 -0.5390 -0.5107
27768SOL    HW193618   4.197   9.753   2.145  1.5681 -1.4110 -1.7830
27768SOL    HW293619   4.215   9.902   2.171 -0.7457 -1.4437  0.4343
27769SOL     OW93620   9.435   3.550   2.550  0.3107  0.2856 -0.0515
27769SOL    HW193621   9.449   3.578   2.640 -0.7900  0.7844 -0.0148
27769SOL    HW293622   9.473   3.462   2.546 -0.4627 -0.1399  1.1797
27770SOL     OW93623   8.277   0.638   8.858 -0.3912 -0.0199  0.2377
27770SOL    HW193624   8.370   0.648   8.836 -0.6018 -0.2078 -0.7553
27770SOL    HW293625   8.255   0.719   8.905 -0.7710  2.0743 -3.2158
27771SOL     OW93626  10.169   7.868   1.620 -0.4317 -0.2637  0.1567
27771SOL    HW193627  10.221   7.789   1.634  0.1263  0.1413  0.4150
27771SOL    HW293628  10.080   7.844   1.646  0.2752  0.0348  3.2591
27772SOL     OW93629   5.848  11.925   0.558 -0.0895 -0.5976  0.1651
27772SOL    HW193630   5.786  11.863   0.519  0.3715 -0.4320 -0.8614
27772SOL    HW293631   5.927  11.874   0.573  0.2158 -0.3267 -0.4757
27773SOL     OW93632   7.890   9.349   0.159  0.1501 -0.1468  0.1373
27773SOL    HW193633   7.834   9.345   0.236 -1.6935 -2.5163 -1.2025
27773SOL    HW293634   7.977   9.371   0.193 -0.8870  0.3070  2.6794
27774SOL     OW93635   3.761  10.905   6.696  0.1393 -0.1405 -0.0311
27774SOL    HW193636   3.803  10.951   6.623  0.7479 -1.7864 -0.7995
27774SOL    HW293637   3.672  10.887   6.665  0.2028 -0.2881 -0.1340
27775SOL     OW93638   6.069   9.149   6.760  0.1883  0.6089  0.1069
27775SOL    HW193639   6.158   9.124   6.733 -0.2097 -1.8296  0.8137
27775SOL    HW293640   6.083   9.219   6.824  1.4972  1.3547 -0.9371
27776SOL     OW93641  10.607   6.477   7.979  0.0371 -0.0856 -0.1211
27776SOL    HW193642  10.653   6.399   7.950  1.1486 -0.2327  1.8759
27776SOL    HW293643  10.520   6.447   8.003  0.1424 -0.5281 -0.2910
27777SOL     OW93644  12.278   0.855   4.803  0.8200 -0.0281  0.3286
27777SOL    HW193645  12.241   0.938   4.835  0.0263 -0.0216 -0.5267
27777SOL    HW293646  12.318   0.815   4.879  2.7363  1.9224  0.4524
27778SOL     OW93647   0.375   0.497   9.189 -0.2081  0.2864  0.3678
27778SOL    HW193648   0.289   0.501   9.231 -1.6919 -0.0504 -2.4153
27778SOL    HW293649   0.391   0.403   9.176 -0.4607  0.4149 -1.0232
27779SOL     OW93650   9.867   1.994   8.653 -0.0542 -0.6430 -0.3142
27779SOL    HW193651   9.803   2.058   8.620  0.5301 -0.3419 -0.8836
27779SOL    HW293652   9.842   1.980   8.744 -1.3129 -0.9861 -0.6829
27780SOL     OW93653   4.339  11.047  10.448  0.0145  0.4401 -0.0118
27780SOL    HW193654   4.307  11.126  10.404 -1.6268 -0.0234  0.2775
27780SOL    HW293655   4.292  10.975  10.405  0.0975 -0.2062  0.9462
27781SOL     OW93656   7.126   8.210  10.707  0.2570  0.2315 -0.4436
27781SOL    HW193657   7.213   8.243  10.683 -0.0622  1.5711  0.1424
27781SOL    HW293658   7.068   8.286  10.699 -0.2308  0.3020  2.5173
27782SOL     OW93659   1.209   9.538  12.320  0.0198  0.0292 -0.0300
27782SOL    HW193660   1.154   9.459  12.323  0.2922 -0.3834 -2.9721
27782SOL    HW293661   1.294   9.507  12.289  0.5261  1.3015  0.0408
27783SOL     OW93662   8.547   8.347  11.720  0.2630  0.1714 -0.0192
27783SOL    HW193663   8.490   8.404  11.772  0.8014  0.1169  0.6427
27783SOL    HW293664   8.514   8.355  11.630 -0.1795  0.8881  0.2016
27784SOL     OW93665   3.788  10.809   4.571 -0.5576 -0.0058 -0.9126
27784SOL    HW193666   3.704  10.776   4.603 -0.5838  1.1958  0.2951
27784SOL    HW293667   3.823  10.861   4.642  0.4881  0.8163 -1.9909
27785SOL     OW93668   2.288  11.614   1.595 -0.1171  0.2887 -0.0887
27785SOL    HW193669   2.332  11.530   1.589 -0.4138  0.2392 -2.3094
27785SOL    HW293670   2.319  11.663   1.519 -0.1935  2.0858  0.9797
27786SOL     OW93671   9.205   4.523   7.747  0.0572  0.1670  0.0788
27786SOL    HW193672   9.238   4.541   7.659 -0.1081 -0.4426 -0.1135
27786SOL    HW293673   9.179   4.609   7.781 -1.4673  0.2257 -1.1175
27787SOL     OW93674   2.244   4.395   0.699  0.7037  0.6005  0.4915
27787SOL    HW193675   2.237   4.367   0.790  1.8004 -0.5586  0.2576
27787SOL    HW293676   2.313   4.461   0.699  1.3207 -0.0300  0.3944
27788SOL     OW93677   3.696   0.533   4.513  0.1819  0.4091 -0.4195
27788SOL    HW193678   3.643   0.535   4.593  0.9784 -2.1515  0.2841
27788SOL    HW293679   3.763   0.600   4.526 -0.6718  1.1505  0.3049
27789SOL     OW93680   2.478   2.476   4.792 -0.1155  0.6132  0.5527
27789SOL    HW193681   2.410   2.421   4.753 -0.9598  0.9215  1.5626
27789SOL    HW293682   2.544   2.413   4.823 -0.5085  0.2433  0.6439
27790SOL     OW93683   2.670   1.710   6.493  0.2127 -0.3923  0.4344
27790SOL    HW193684   2.687   1.674   6.406 -0.6372 -0.2270  0.1951
27790SOL    HW293685   2.639   1.635   6.545 -1.3815 -0.0836 -0.0148
27791SOL     OW93686   3.708   0.120   0.974  0.1675  0.3162  0.2330
27791SOL    HW193687   3.753   0.048   0.929 -0.7923  1.6086 -3.0431
27791SOL    HW293688   3.640   0.076   1.026  1.6567 -1.2851  0.9323
27792SOL     OW93689   1.427   3.483   0.468 -0.4283  0.4362  0.0825
27792SOL    HW193690   1.389   3.570   0.479  2.1154  1.4980  1.3808
27792SOL    HW293691   1.420   3.443   0.554 -1.5662 -0.6767 -0.5066
27793SOL     OW93692  12.914   5.856   3.656  0.1238  0.0173 -0.4974
27793SOL    HW193693  13.006   5.843   3.678  0.3748 -0.5324 -1.8147
27793SOL    HW293694  12.879   5.768   3.645  0.5533  0.1510 -4.2759
27794SOL     OW93695  12.270  11.147   9.845 -0.2928  0.1621  0.2049
27794SOL    HW193696  12.269  11.089   9.769  1.0054 -1.3227  1.2557
27794SOL    HW293697  12.311  11.095   9.914  0.0339  2.0162  1.4787
27795SOL     OW93698   2.051   9.660  10.031 -0.0992 -0.5949  0.0466
27795SOL    HW193699   2.133   9.695  10.066 -1.0459  0.6875  1.0852
27795SOL    HW293700   2.075   9.622   9.947  1.6655 -0.8132  0.6079
27796SOL     OW93701   0.116   3.662   9.261  0.2399  0.2658 -0.3825
27796SOL    HW193702   0.122   3.756   9.246 -0.0691  0.2371 -0.6859
27796SOL    HW293703   0.062   3.654   9.340 -3.1431  0.2393 -2.4820
27797SOL     OW93704  10.017   7.393   9.615  0.0341 -0.0412 -0.0700
27797SOL    HW193705  10.100   7.354   9.642 -0.7610  0.8328  4.5817
27797SOL    HW293706   9.951   7.327   9.640 -0.8168 -0.2492 -2.6146
27798SOL     OW93707   6.299   8.348  11.954 -0.7787  0.0782  0.2472
27798SOL    HW193708   6.326   8.430  11.914 -0.5962  0.8397  1.8346
27798SOL    HW293709   6.212   8.331  11.916  0.2401 -0.3902 -2.0160
27799SOL     OW93710  11.437  12.140   4.980  0.6256 -0.2862  0.1396
27799SOL    HW193711  11.377  12.077   4.940  2.0026 -0.9572 -0.9488
27799SOL    HW293712  11.458  12.202   4.909 -1.6403  2.2519  1.4719
27800SOL     OW93713   4.747  10.884  12.234 -0.4041  0.3238  0.1832
27800SOL    HW193714   4.671  10.930  12.198 -2.0167 -1.1354  1.5638
27800SOL    HW293715   4.798  10.953  12.278 -1.7927  1.0956  0.6397
27801SOL     OW93716   4.849   6.844   5.118 -0.8516 -0.2929 -0.0261
27801SOL    HW193717   4.899   6.763   5.133 -1.3257 -0.2091  2.5660
27801SOL    HW293718   4.909   6.901   5.072  0.4600 -1.1926  0.5085
27802SOL     OW93719   0.070   5.084   0.600 -0.1035  0.0543  0.8759
27802SOL    HW193720   0.103   5.064   0.512  0.0724 -0.6322  1.0903
27802SOL    HW293721  -0.025   5.077   0.592 -0.1177  0.5131  0.6181
27803SOL     OW93722  12.061   4.911   0.896 -0.0539 -0.2288  0.0801
27803SOL    HW193723  12.046   4.958   0.978  1.4539 -1.7957  1.3178
27803SOL    HW293724  12.068   4.980   0.830 -0.4752  1.1117  1.3852
27804SOL     OW93725  10.757   3.799  11.862 -0.5787  0.9123 -0.8116
27804SOL    HW193726  10.822   3.760  11.803 -0.0874  2.5955 -1.4591
27804SOL    HW293727  10.782   3.768  11.949  0.1888  0.3470 -1.2175
27805SOL     OW93728  12.181   8.272  10.802 -0.3534 -0.5875 -0.1835
27805SOL    HW193729  12.261   8.228  10.832 -0.5562 -2.0938 -1.6893
27805SOL    HW293730  12.183   8.262  10.707 -0.0003  3.5188 -0.7799
27806SOL     OW93731   0.089   4.529   2.105  0.4646 -0.3449 -0.6389
27806SOL    HW193732   0.149   4.600   2.128 -1.0402  0.9440 -0.5099
27806SOL    HW293733   0.064   4.490   2.190 -0.0787  0.1466 -0.5704
27807SOL     OW93734   0.157   5.311  10.728  0.2002  0.3911 -0.5132
27807SOL    HW193735   0.187   5.397  10.758  0.4530  0.9733 -2.3236
27807SOL    HW293736   0.226   5.281  10.669  0.0195 -0.9820 -0.0570
27808SOL     OW93737   5.926   9.040   1.556 -0.0755  0.1714 -0.2368
27808SOL    HW193738   5.951   8.950   1.577  0.8022  0.5431  0.3703
27808SOL    HW293739   5.999   9.093   1.588 -1.8967  1.3642  2.2098
27809SOL     OW93740  12.596   4.622   5.281  0.0379 -0.2820  0.3257
27809SOL    HW193741  12.548   4.556   5.230  0.9142  0.4269 -1.5328
27809SOL    HW293742  12.685   4.587   5.287 -0.1335 -0.5182  1.7368
27810SOL     OW93743   6.727   1.035   9.750  0.0867  0.5116  0.4399
27810SOL    HW193744   6.632   1.035   9.754  0.0871  1.5478  0.8267
27810SOL    HW293745   6.749   1.106   9.689  0.5962 -0.0109  0.0102
27811SOL     OW93746  12.319  11.682  11.704 -0.3227  0.4269  0.1274
27811SOL    HW193747  12.373  11.647  11.633 -2.3497  0.2606 -1.4279
27811SOL    HW293748  12.256  11.612  11.723 -0.8808  1.1242  0.9179
27812SOL     OW93749  11.568   1.405   6.113 -0.5903  0.0471 -0.4800
27812SOL    HW193750  11.559   1.414   6.208 -2.4848 -1.3488 -0.4915
27812SOL    HW293751  11.622   1.327   6.101  0.5330  0.8137 -0.5736
27813SOL     OW93752   1.945   0.483   1.551 -0.2945 -0.3901 -0.0364
27813SOL    HW193753   1.884   0.556   1.538 -0.7223 -0.3933  1.6695
27813SOL    HW293754   2.032   0.522   1.543 -0.5246  0.2563  0.4741
27814SOL     OW93755   4.032   5.333   0.212 -0.1155  0.3023  0.0175
27814SOL    HW193756   4.095   5.285   0.158  1.3031  0.1263  1.7328
27814SOL    HW293757   4.057   5.313   0.302 -2.1923  0.8486  0.7830
27815SOL     OW93758   8.472   0.203   7.061  0.2719 -0.0904  0.1039
27815SOL    HW193759   8.477   0.297   7.073  0.2001 -0.0272 -0.3292
27815SOL    HW293760   8.562   0.172   7.073  0.0190 -0.2099  2.0510
27816SOL     OW93761   6.971   1.995   7.232 -0.6055 -0.1068 -0.2457
27816SOL    HW193762   7.004   2.077   7.197 -3.2148  0.3090 -2.0685
27816SOL    HW293763   6.980   1.932   7.161 -1.3812 -0.5914  0.0594
27817SOL     OW93764   3.530  10.629   6.161  0.0571 -0.7436  0.3117
27817SOL    HW193765   3.500  10.627   6.252  0.1514  1.2037  0.4302
27817SOL    HW293766   3.449  10.625   6.109 -0.3781  1.9553  0.5996
27818SOL     OW93767   3.757  12.744  10.642 -0.1689 -0.6706  0.5957
27818SOL    HW193768   3.713  12.828  10.655  0.6403  0.1059 -1.1996
27818SOL    HW293769   3.843  12.755  10.683  0.7302  0.1977 -1.3833
27819SOL     OW93770  10.816   3.715   1.569  0.1952  0.1972  0.1946
27819SOL    HW193771  10.878   3.787   1.557 -1.3427  1.6805  0.7116
27819SOL    HW293772  10.869   3.644   1.607  1.9344  0.6983 -1.1485
27820SOL     OW93773   6.567   0.400   9.334 -0.2488  0.2167 -0.0403
27820SOL    HW193774   6.616   0.482   9.333  2.3597 -1.2243 -1.9035
27820SOL    HW293775   6.599   0.353   9.411 -0.4605  0.2312  0.0572
27821SOL     OW93776   6.286   0.340   9.801 -0.1235  0.2944 -0.0912
27821SOL    HW193777   6.292   0.362   9.894 -0.0095 -2.3330  0.6073
27821SOL    HW293778   6.216   0.275   9.797  0.6889 -0.5413 -1.6340
27822SOL     OW93779   9.611   9.950   5.392 -0.2075  0.3372 -0.6381
27822SOL    HW193780   9.547   9.942   5.322 -0.0378  0.1848 -0.7775
27822SOL    HW293781   9.590  10.033   5.435  1.0079  1.5084 -2.2150
27823SOL     OW93782  12.185   7.657   3.742  0.2815  0.3716 -0.6013
27823SOL    HW193783  12.216   7.748   3.739 -0.5301  0.7095  0.6157
27823SOL    HW293784  12.097   7.661   3.704  0.1731  0.1304 -0.3792
27824SOL     OW93785   5.095   6.404   8.351 -0.0299 -0.0869  0.4788
27824SOL    HW193786   5.128   6.398   8.441 -2.4005  0.2854  1.4575
27824SOL    HW293787   5.045   6.485   8.349 -0.7846 -0.5499 -0.8986
27825SOL     OW93788   9.526  11.865   3.467 -0.6622 -0.4121  0.3907
27825SOL    HW193789   9.598  11.918   3.501 -0.2553 -0.5569 -0.2293
27825SOL    HW293790   9.561  11.824   3.388 -2.1009  1.3828 -1.3147
27826SOL     OW93791   4.556   8.458   7.982 -0.1316  0.3945  0.6077
27826SOL    HW193792   4.538   8.429   7.893  3.2791  0.7550 -0.3329
27826SOL    HW293793   4.509   8.541   7.990 -1.8507 -0.4417 -0.1872
27827SOL     OW93794   6.946   7.791   5.436  0.2372 -0.4938 -0.1331
27827SOL    HW193795   6.893   7.865   5.466  1.0266 -0.0635  0.2388
27827SOL    HW293796   6.890   7.744   5.375 -1.0152 -0.7423  1.1410
27828SOL     OW93797  10.378   9.569  10.700  0.2177  0.0751 -0.1876
27828SOL    HW193798  10.404   9.485  10.662  0.2769  0.4812 -1.0529
27828SOL    HW293799  10.447   9.630  10.675 -0.0744  0.4969  0.0193
27829SOL     OW93800   1.883   5.807   6.435 -0.4175 -0.3800  0.1022
27829SOL    HW193801   1.843   5.745   6.496 -0.9881 -1.0169 -0.8975
27829SOL    HW293802   1.901   5.756   6.357  1.2479  0.1931  0.0785
27830SOL     OW93803   2.210   7.650  12.391 -0.0685 -0.1397 -0.3763
27830SOL    HW193804   2.140   7.651  12.326  1.7244  1.8282 -2.4667
27830SOL    HW293805   2.282   7.604  12.348 -0.1269 -2.5625  1.9027
27831SOL     OW93806   4.381   4.954   3.255  0.7366  0.4882 -0.3285
27831SOL    HW193807   4.395   4.913   3.340  2.3939  2.0672  0.2207
27831SOL    HW293808   4.454   4.925   3.201  0.1685  0.1892 -0.9570
27832SOL     OW93809   0.727   2.543   7.551  0.3047  0.1080 -0.1399
27832SOL    HW193810   0.657   2.544   7.616 -1.8092 -0.3523 -2.2549
27832SOL    HW293811   0.784   2.472   7.579  0.5674  1.1520  2.2067
27833SOL     OW93812   0.817  11.810  10.117  0.0451  0.1624  0.3704
27833SOL    HW193813   0.748  11.868  10.086 -1.9251 -0.9441  2.4208
27833SOL    HW293814   0.884  11.869  10.153 -0.4284  1.2232 -0.4481
27834SOL     OW93815   1.262  11.932   2.590 -0.4049  0.0905  0.2331
27834SOL    HW193816   1.350  11.929   2.552  0.0097  2.0078  0.9359
27834SOL    HW293817   1.268  11.874   2.667  0.4165  0.6130  0.5792
27835SOL     OW93818   2.436   4.531   1.878  0.0043  0.0646 -0.0061
27835SOL    HW193819   2.396   4.462   1.825 -0.1227 -0.5389  0.8547
27835SOL    HW293820   2.524   4.541   1.840 -0.2147 -0.0769 -0.5698
27836SOL     OW93821   5.609   3.990   0.701 -0.1274 -0.0690  0.2570
27836SOL    HW193822   5.568   3.910   0.667  0.8200 -0.4124 -0.1291
27836SOL    HW293823   5.658   4.025   0.627 -1.8745  1.8288 -0.0709
27837SOL     OW93824   2.095   1.800   1.877 -0.3355 -0.1631 -0.5629
27837SOL    HW193825   2.169   1.860   1.885 -0.6656  0.0834  1.0828
27837SOL    HW293826   2.103   1.742   1.953 -1.5250 -0.4864 -0.6600
27838SOL     OW93827   6.190   0.411   8.487 -0.3511 -0.3665  0.5457
27838SOL    HW193828   6.206   0.499   8.522 -2.1902 -0.2097  1.0741
27838SOL    HW293829   6.170   0.357   8.563  0.5414 -1.2103  0.2039
27839SOL     OW93830   3.172   6.379   2.208 -0.2581 -0.3657  0.0865
27839SOL    HW193831   3.190   6.460   2.256  0.5584 -0.0302 -0.7494
27839SOL    HW293832   3.178   6.310   2.274  1.8234 -0.0244  0.3468
27840SOL     OW93833  10.123   9.204   5.271  0.5270 -0.4986  0.1405
27840SOL    HW193834  10.089   9.287   5.236 -0.3832 -0.1163  1.8046
27840SOL    HW293835  10.194   9.181   5.212 -0.1525  0.7016 -1.2283
27841SOL     OW93836   7.935  10.553   6.014  0.0109  0.0180  0.5189
27841SOL    HW193837   7.855  10.501   6.004 -0.0891 -0.2636  2.4136
27841SOL    HW293838   8.000  10.507   5.961 -0.7942 -0.4072 -0.1168
27842SOL     OW93839  11.406   7.476   0.569  0.0016  0.2035 -0.0844
27842SOL    HW193840  11.419   7.390   0.527 -2.0078 -0.4745  0.5487
27842SOL    HW293841  11.370   7.455   0.655 -0.7654  1.6780 -0.0099
27843SOL     OW93842   4.737   2.454   9.969 -0.2716  0.4289 -0.3677
27843SOL    HW193843   4.728   2.414  10.056  0.1942  0.2598 -0.3931
27843SOL    HW293844   4.735   2.548   9.985 -2.1317  0.4277 -0.3816
27844SOL     OW93845  10.280   0.345   8.726 -0.2371  0.3509  0.2392
27844SOL    HW193846  10.237   0.422   8.765  0.0531  0.0801  1.1112
27844SOL    HW293847  10.374   0.361   8.738 -0.1754 -0.1439  0.4317
27845SOL     OW93848   4.254   0.761   8.084 -0.4692 -0.1189  0.1007
27845SOL    HW193849   4.272   0.750   7.991 -1.6077  0.9337 -0.2723
27845SOL    HW293850   4.309   0.835   8.110  1.0604 -1.3991  0.6834
27846SOL     OW93851  11.561   7.286   8.933  0.1814 -0.1267  1.0344
27846SOL    HW193852  11.643   7.257   8.892 -0.9469  1.9001 -3.3225
27846SOL    HW293853  11.584   7.367   8.977  0.7411 -0.1324  0.7627
27847SOL     OW93854   4.791   4.938   5.162  0.3119 -0.1984 -0.1468
27847SOL    HW193855   4.790   4.846   5.187 -0.0068  0.2840  1.7645
27847SOL    HW293856   4.858   4.978   5.217 -0.3705  0.9210 -0.0943
27848SOL     OW93857   9.090   0.059   9.455 -0.5148 -0.7314 -0.0875
27848SOL    HW193858   9.144   0.070   9.533  1.8563 -0.3251 -1.6708
27848SOL    HW293859   9.122  -0.021   9.415  0.0006  0.3028 -1.8450
27849SOL     OW93860   8.234   5.334   8.155 -0.2135 -0.1843  0.0002
27849SOL    HW193861   8.250   5.379   8.072 -2.4759  0.2249 -0.2795
27849SOL    HW293862   8.154   5.284   8.140 -1.3453  0.8095  2.2267
27850SOL     OW93863  10.926   5.121   1.081  0.5479  0.4241 -0.1609
27850SOL    HW193864  10.958   5.190   1.139  0.7976 -0.3348  0.6285
27850SOL    HW293865  10.998   5.059   1.075 -0.2901 -0.6636  0.5998
27851SOL     OW93866   8.976   4.741   0.650 -0.2601 -0.2678 -0.0448
27851SOL    HW193867   8.895   4.694   0.669 -0.9927  0.3555 -1.4515
27851SOL    HW293868   8.958   4.831   0.675 -1.7419  0.8927 -4.3384
27852SOL     OW93869   7.094   9.355   9.476 -0.0702  0.6374  0.1699
27852SOL    HW193870   7.060   9.267   9.462  0.7383  0.4468 -0.7046
27852SOL    HW293871   7.042   9.411   9.419 -0.2340  0.6540  0.3330
27853SOL     OW93872   2.637   7.639   2.654 -0.2606 -0.0168 -0.0222
27853SOL    HW193873   2.683   7.647   2.738  0.7526 -0.6306 -0.5128
27853SOL    HW293874   2.657   7.721   2.608  1.1819 -0.6809 -0.6307
27854SOL     OW93875  11.280   3.043   4.134  0.0517  0.3739 -0.1298
27854SOL    HW193876  11.361   3.048   4.084  0.3230  2.7486  0.4275
27854SOL    HW293877  11.234   3.124   4.113 -2.5744 -1.2210 -0.9959
27855SOL     OW93878   0.605   5.007   9.503  0.0342 -0.0456 -0.2452
27855SOL    HW193879   0.654   5.038   9.427  1.6156 -0.2516  0.6552
27855SOL    HW293880   0.564   4.926   9.473  1.0491 -0.3900 -0.7507
27856SOL     OW93881   0.355  10.985   8.976 -0.5021 -0.1193  0.2459
27856SOL    HW193882   0.415  10.947   9.040 -0.5160  1.5250  1.2893
27856SOL    HW293883   0.318  10.910   8.930  0.3788 -1.2903  1.3853
27857SOL     OW93884   5.518   7.173   2.409  0.7818 -0.2046  0.8881
27857SOL    HW193885   5.600   7.143   2.449  2.3960 -0.3794 -2.2930
27857SOL    HW293886   5.540   7.255   2.366  0.3587 -1.8332 -2.8533
27858SOL     OW93887  10.030   3.869   4.774  0.0280  0.1228  0.3106
27858SOL    HW193888   9.944   3.826   4.782  0.2728 -0.2705  0.9724
27858SOL    HW293889  10.091   3.806   4.811  0.5502  0.5850  0.2463
27859SOL     OW93890  10.483   8.056  12.128 -0.1951  0.6113 -0.0191
27859SOL    HW193891  10.519   8.006  12.201  0.8732  2.4118  0.7652
27859SOL    HW293892  10.395   8.021  12.115 -0.3972  0.2301  2.1388
27860SOL     OW93893   9.386   1.518   8.931 -0.1204  0.1980 -0.1537
27860SOL    HW193894   9.406   1.461   8.856  0.8549  0.2703  0.0275
27860SOL    HW293895   9.378   1.606   8.892 -1.8448 -0.0647 -0.4639
27861SOL     OW93896  12.328  10.904  10.004  0.0598 -0.8462  0.3566
27861SOL    HW193897  12.293  10.870  10.086 -1.6691  0.2190  0.1207
27861SOL    HW293898  12.252  10.909   9.946  0.2958  2.5017  0.1100
27862SOL     OW93899   4.222   2.792  10.167  1.0090 -0.1062 -0.2796
27862SOL    HW193900   4.240   2.838  10.250  1.2068 -0.7566  0.0493
27862SOL    HW293901   4.178   2.711  10.194  0.8542 -0.2089 -0.8309
27863SOL     OW93902   2.725  11.719  10.448 -0.2101  0.0424 -0.2330
27863SOL    HW193903   2.653  11.656  10.443 -2.4673  2.4162  0.3335
27863SOL    HW293904   2.686  11.803  10.425  2.6900  1.2940 -1.1012
27864SOL     OW93905   7.982  12.361   6.590  0.1337 -0.3063 -0.1707
27864SOL    HW193906   7.999  12.344   6.683 -2.3828  0.5308  0.5130
27864SOL    HW293907   7.982  12.274   6.549 -1.3049 -0.9579  1.1260
27865SOL     OW93908   3.720   6.672   0.109 -0.4042  0.1246  0.1601
27865SOL    HW193909   3.780   6.604   0.078 -0.0508  0.7858 -0.6212
27865SOL    HW293910   3.777   6.745   0.135 -0.7533 -0.0242  1.4275
27866SOL     OW93911  11.028  12.005  11.873  0.4248  0.0671 -0.4638
27866SOL    HW193912  11.114  12.007  11.915  0.9398 -2.6075 -1.2009
27866SOL    HW293913  10.966  11.996  11.946  0.9340 -0.0517 -0.0394
27867SOL     OW93914   7.840  11.843  12.847 -0.2315  0.1898  0.2187
27867SOL    HW193915   7.744  11.838  12.844 -0.1949 -1.1456  0.6273
27867SOL    HW293916   7.866  11.855  12.755 -0.7599 -0.3673 -0.0161
27868SOL     OW93917  11.947  10.811   6.220 -0.1375  0.1772  0.7008
27868SOL    HW193918  12.029  10.850   6.190 -0.6531  0.2748 -0.6515
27868SOL    HW293919  11.948  10.823   6.315  2.1942 -1.3295  0.9460
27869SOL     OW93920   9.836  12.923  10.039 -0.0107 -0.2970 -0.0823
27869SOL    HW193921   9.849  13.018  10.044  0.1331 -0.3413  0.4011
27869SOL    HW293922   9.867  12.900   9.952 -0.3922  0.1506 -0.3471
27870SOL     OW93923  12.800  11.168  11.725 -0.3472  0.5892  0.4945
27870SOL    HW193924  12.746  11.098  11.762 -1.1672  0.6752 -0.5013
27870SOL    HW293925  12.873  11.177  11.787 -0.8328 -0.3536  1.2335
27871SOL     OW93926  11.774   3.496   0.998  0.0786 -0.1884 -0.0180
27871SOL    HW193927  11.735   3.579   1.028  0.0051  0.2873 -1.3509
27871SOL    HW293928  11.861   3.495   1.038  0.2284  0.7356 -0.2942
27872SOL     OW93929   3.606   9.055   7.632  0.1069  0.4485 -0.0809
27872SOL    HW193930   3.666   9.098   7.693  1.5471 -1.8998  0.2666
27872SOL    HW293931   3.522   9.100   7.646  0.5853  0.5862  3.0127
27873SOL     OW93932   0.007   4.277   8.882  0.0565  0.4439  0.1485
27873SOL    HW193933  -0.031   4.253   8.798 -0.8652 -0.6596  0.8478
27873SOL    HW293934  -0.065   4.316   8.932  0.1991 -0.2529  0.9327
27874SOL     OW93935   9.179   6.296   3.048  0.7547  0.1775 -0.1432
27874SOL    HW193936   9.272   6.310   3.031  1.0692 -0.8238  0.5971
27874SOL    HW293937   9.167   6.201   3.037 -0.2285  0.3312 -0.4643
27875SOL     OW93938  10.416   4.607   4.628 -0.5517 -0.2786 -0.1258
27875SOL    HW193939  10.447   4.601   4.718  1.9631  0.9226 -0.8181
27875SOL    HW293940  10.400   4.700   4.614  1.2521 -0.1262 -1.5118
27876SOL     OW93941  11.415   4.012  11.201 -0.4484 -0.2170  0.0034
27876SOL    HW193942  11.319   4.002  11.202 -0.5058  0.3051  0.4544
27876SOL    HW293943  11.430   4.093  11.250  0.2201 -0.2393 -0.1688
27877SOL     OW93944  11.104   8.999   2.517 -0.1949  0.1962 -0.3166
27877SOL    HW193945  11.074   8.963   2.434  0.3017  0.2854 -0.5363
27877SOL    HW293946  11.165   9.068   2.493 -1.8316  1.8641  0.0655
27878SOL     OW93947   5.028  12.574   7.434  0.0083  0.1621 -0.3338
27878SOL    HW193948   5.031  12.639   7.505 -1.5824  0.1785 -0.2423
27878SOL    HW293949   4.995  12.623   7.359 -3.5972 -0.9057  0.3239
27879SOL     OW93950   1.110   0.865   8.329  0.4191 -0.4384 -0.2915
27879SOL    HW193951   1.103   0.795   8.394  2.3703 -0.2275  0.2232
27879SOL    HW293952   1.103   0.821   8.245 -2.7038 -0.6519 -0.0489
27880SOL     OW93953   6.983  10.707   7.921  0.0311 -0.2849  0.6314
27880SOL    HW193954   6.947  10.795   7.935  0.7658  0.2079 -0.5153
27880SOL    HW293955   7.072  10.721   7.890  0.3315 -1.4563  0.8979
27881SOL     OW93956   0.782   3.652   2.720  0.0030  0.4503 -0.1132
27881SOL    HW193957   0.696   3.685   2.694 -0.4988 -0.6919  0.0409
27881SOL    HW293958   0.832   3.649   2.639 -0.3191  0.5024 -0.3145
27882SOL     OW93959  12.053  12.796   5.966 -0.2921  0.6953  0.2689
27882SOL    HW193960  11.989  12.847   6.015  0.4425  0.8011  1.1489
27882SOL    HW293961  12.123  12.779   6.029  0.6043  0.6912 -0.7066
27883SOL     OW93962   5.930   2.805   8.602  0.2629  0.0203  0.4451
27883SOL    HW193963   5.999   2.855   8.647  0.3808 -0.0785  0.3725
27883SOL    HW293964   5.974   2.766   8.527  0.3091 -0.6634  0.8164
27884SOL     OW93965   4.681   8.090   8.628 -0.7707 -0.1587  0.0539
27884SOL    HW193966   4.670   8.146   8.550  0.2634  0.9716  0.6888
27884SOL    HW293967   4.752   8.030   8.604 -0.1305  0.4995  0.2872
27885SOL     OW93968   3.452   6.546  10.818 -0.1539  0.3593 -0.2493
27885SOL    HW193969   3.534   6.512  10.853 -0.7419  0.4437  1.2596
27885SOL    HW293970   3.479   6.603  10.746  1.0826  0.0582 -0.0517
27886SOL     OW93971   1.231   2.626   0.723 -0.4271 -0.1750  0.7278
27886SOL    HW193972   1.196   2.610   0.811 -0.6245 -1.5931  0.4217
27886SOL    HW293973   1.326   2.630   0.736 -0.4773 -0.0230  1.0600
27887SOL     OW93974   3.619   0.543   7.765  0.2655 -0.5716 -0.5346
27887SOL    HW193975   3.705   0.568   7.732  0.0329  0.5662 -0.3003
27887SOL    HW293976   3.570   0.624   7.769 -0.7024 -1.1543 -0.2963
27888SOL     OW93977   5.142   5.528   9.979  0.0631  1.0312  0.2935
27888SOL    HW193978   5.187   5.444   9.974 -1.7016 -0.0870  2.0412
27888SOL    HW293979   5.190   5.578  10.045  0.3548  0.9154  0.1701
27889SOL     OW93980   3.641  11.257   1.492  0.1552  0.1927  0.1037
27889SOL    HW193981   3.573  11.265   1.425 -0.9700  0.7463  1.2649
27889SOL    HW293982   3.613  11.184   1.546  1.0900 -0.2925 -0.0401
27890SOL     OW93983   6.006  10.662  12.906  0.1494  0.2964 -0.2489
27890SOL    HW193984   6.050  10.616  12.835  0.7884 -0.0067  0.3416
27890SOL    HW293985   6.058  10.643  12.983 -0.8333  0.1907  0.4050
27891SOL     OW93986   8.623  12.855   9.382  0.2216 -0.1064 -0.0027
27891SOL    HW193987   8.656  12.767   9.360 -0.6771 -0.1041 -1.5246
27891SOL    HW293988   8.689  12.891   9.440  1.8546 -0.8905 -1.2690
27892SOL     OW93989   8.919  12.184   3.749  0.0895  0.2513  0.4665
27892SOL    HW193990   8.831  12.148   3.753  0.9892 -2.4191 -0.8706
27892SOL    HW293991   8.971  12.126   3.806  1.2378  0.7615 -0.0236
27893SOL     OW93992   6.665   8.411  10.581  0.0464  0.2366  0.0445
27893SOL    HW193993   6.569   8.419  10.587 -0.1125  0.6016 -2.0376
27893SOL    HW293994   6.692   8.491  10.535  1.3374  0.0445  0.4561
27894SOL     OW93995  10.044  12.449   4.896 -0.1666 -0.0848  0.3779
27894SOL    HW193996   9.963  12.426   4.850  0.7886 -1.8754 -0.5095
27894SOL    HW293997  10.052  12.383   4.965  1.7286 -1.5190 -1.0920
27895SOL     OW93998   2.581   0.106   6.319  0.2453 -0.2521 -0.1072
27895SOL    HW193999   2.584   0.201   6.305  0.5765 -0.2669 -0.1560
27895SOL    HW294000   2.574   0.069   6.231  0.8845 -0.2972 -0.1419
27896SOL     OW94001   2.731   9.034   1.691 -0.1908 -0.2804 -0.3731
27896SOL    HW194002   2.638   9.057   1.696 -0.1549  0.0745 -1.1943
27896SOL    HW294003   2.759   9.027   1.782 -0.7319  0.8099 -0.1129
27897SOL     OW94004  10.376   6.989   8.348  0.2224  0.9407  0.0065
27897SOL    HW194005  10.293   7.027   8.318 -1.3173 -0.1058  2.5786
27897SOL    HW294006  10.435   7.063   8.357 -1.4284  2.1932  1.0273
27898SOL     OW94007   8.707  10.217   8.441  0.4461  0.0629  0.3292
27898SOL    HW194008   8.716  10.185   8.530  0.7838  0.1115  0.3138
27898SOL    HW294009   8.796  10.235   8.412  0.2762  1.0202  0.3426
27899SOL     OW94010  10.097   2.428   4.134  0.6071 -0.4062 -0.7923
27899SOL    HW194011  10.179   2.452   4.091  2.4269 -0.4827  2.3206
27899SOL    HW294012  10.077   2.340   4.102  2.1003 -0.6236 -1.2031
27900SOL     OW94013   9.592   8.164   1.073  0.4874  0.4297 -0.5707
27900SOL    HW194014   9.649   8.230   1.034 -0.1590  0.2415 -1.8661
27900SOL    HW294015   9.556   8.206   1.151  1.7201  0.8524 -0.2075
27901SOL     OW94016   8.548   6.100   6.836  0.1313  0.3942 -0.1557
27901SOL    HW194017   8.536   6.127   6.745 -0.8709 -0.3935 -0.2817
27901SOL    HW294018   8.635   6.132   6.860 -0.4181  2.4614 -0.7230
27902SOL     OW94019  11.965   3.742   1.637  0.1373 -0.2586 -0.2718
27902SOL    HW194020  12.004   3.704   1.558 -0.7805  1.4366 -1.6034
27902SOL    HW294021  12.022   3.714   1.708  1.7585 -0.7353 -1.7056
27903SOL     OW94022   6.398   7.448   8.529 -0.8165  0.0466 -0.2805
27903SOL    HW194023   6.489   7.444   8.500 -0.7406 -1.8295  0.0532
27903SOL    HW294024   6.403   7.482   8.618 -0.6627  1.8943 -0.9650
27904SOL     OW94025   9.612   7.605   0.481 -0.3537 -0.1014  0.0282
27904SOL    HW194026   9.517   7.606   0.476 -0.3150 -1.5631 -2.3651
27904SOL    HW294027   9.633   7.676   0.542 -2.9566 -0.3147  1.3318
27905SOL     OW94028   8.133   0.797   7.738  0.3830  0.2947 -0.0344
27905SOL    HW194029   8.144   0.736   7.665 -1.0337 -1.0452  0.8045
27905SOL    HW294030   8.143   0.884   7.699  1.1337 -0.4303 -1.5241
27906SOL     OW94031   4.218   3.576  11.397 -0.3609 -0.2212 -0.3532
27906SOL    HW194032   4.124   3.568  11.407 -0.4047  0.1347 -0.4549
27906SOL    HW294033   4.243   3.646  11.457 -0.0977 -0.6049 -0.0076
27907SOL     OW94034   8.151   0.089  11.123  0.0697 -0.2081  0.3056
27907SOL    HW194035   8.228   0.136  11.094 -0.8777  0.9805 -0.3575
27907SOL    HW294036   8.097   0.155  11.166 -1.2131 -0.6806 -0.5053
27908SOL     OW94037   7.132   1.350  11.970 -0.2552  0.1869 -0.3570
27908SOL    HW194038   7.088   1.299  12.039  0.9950  0.5803  0.7807
27908SOL    HW294039   7.209   1.387  12.014  0.8718  0.0259 -2.1046
27909SOL     OW94040   4.518  12.942   5.561  0.4346 -0.3643 -0.1711
27909SOL    HW194041   4.552  12.939   5.472  0.0929  0.0837 -0.3260
27909SOL    HW294042   4.567  13.013   5.603 -0.4281  0.4392 -0.4637
27910SOL     OW94043   2.594   4.447   4.562  0.4604 -0.0098  0.5152
27910SOL    HW194044   2.666   4.504   4.534  0.1778  0.2209  0.2499
27910SOL    HW294045   2.563   4.487   4.644  1.6843 -1.0299  1.5229
27911SOL     OW94046   2.845   3.840   0.799  0.3862 -0.1802 -0.2672
27911SOL    HW194047   2.801   3.924   0.781 -1.4747 -1.2610 -1.0261
27911SOL    HW294048   2.818   3.818   0.888  1.4282  0.3356  0.1854
27912SOL     OW94049   6.540  10.226   9.617  0.1915  0.4359 -0.2999
27912SOL    HW194050   6.556  10.134   9.641  0.2513  0.3544 -0.6467
27912SOL    HW294051   6.609  10.275   9.660  2.6098 -0.0895 -3.2653
27913SOL     OW94052   2.749   8.481   1.387  0.3063  0.4435 -0.1249
27913SOL    HW194053   2.834   8.467   1.346  0.5386  0.6794  0.2775
27913SOL    HW294054   2.710   8.393   1.392  0.6390  0.3001 -0.0584
27914SOL     OW94055  11.343   1.747  10.625  0.4508  0.1339 -0.3998
27914SOL    HW194056  11.435   1.755  10.598  0.7690  0.5186  0.7033
27914SOL    HW294057  11.296   1.811  10.571  1.2156  1.5919  0.5693
27915SOL     OW94058  12.560   1.089  11.341  0.4797 -0.0738 -0.4143
27915SOL    HW194059  12.540   0.997  11.321 -0.0308  0.0971 -0.7071
27915SOL    HW294060  12.610   1.119  11.265  0.6662 -0.1081 -0.3085
27916SOL     OW94061   2.071   6.971  11.562 -0.0238 -0.2907  0.0108
27916SOL    HW194062   2.067   6.918  11.483 -0.6548  0.8826 -0.7748
27916SOL    HW294063   2.105   6.912  11.629 -0.1613 -1.5056 -0.9589
27917SOL     OW94064  11.575   7.770   4.563 -0.1398 -0.4633 -0.2370
27917SOL    HW194065  11.642   7.701   4.557 -1.1837 -1.5983  0.7542
27917SOL    HW294066  11.622   7.845   4.599  0.9601 -0.7252 -1.0708
27918SOL     OW94067   3.239   8.843   2.796  0.3891  0.0609  0.0238
27918SOL    HW194068   3.292   8.887   2.729 -0.0065  0.6154  0.0693
27918SOL    HW294069   3.159   8.818   2.751 -0.7894  2.2725  0.7322
27919SOL     OW94070   8.459  10.868   9.143 -0.0927 -0.2116  0.2216
27919SOL    HW194071   8.471  10.947   9.196 -1.4350  0.1148  0.0573
27919SOL    HW294072   8.366  10.849   9.148  0.3297 -2.3592  1.0468
27920SOL     OW94073  11.238   8.900  10.348 -0.2051  0.6529  0.4527
27920SOL    HW194074  11.252   8.841  10.274  0.5720  3.3848 -1.7631
27920SOL    HW294075  11.143   8.907  10.356 -0.2987  0.7494 -0.6722
27921SOL     OW94076  12.739   8.808  11.839  0.0141  0.3376 -0.3633
27921SOL    HW194077  12.757   8.744  11.908  0.8709  1.4616  0.4933
27921SOL    HW294078  12.643   8.811  11.834 -0.0478 -0.3131  0.2321
27922SOL     OW94079   7.539  12.660   6.207 -0.2053  0.1510  0.1704
27922SOL    HW194080   7.568  12.580   6.164  1.8253  0.7793  0.2978
27922SOL    HW294081   7.458  12.634   6.252  0.9204 -2.0917  1.0596
27923SOL     OW94082   4.260  12.177  12.131  0.2530 -0.2794 -0.3529
27923SOL    HW194083   4.182  12.151  12.083  0.4771 -0.4721 -0.6176
27923SOL    HW294084   4.233  12.254  12.182 -0.4900 -1.2095  0.6927
27924SOL     OW94085   9.432  12.013   1.384 -0.5447  0.6416 -0.2799
27924SOL    HW194086   9.490  11.991   1.311  1.5323  2.1299  0.8318
27924SOL    HW294087   9.408  11.928   1.422  1.1072 -0.0307 -0.6516
27925SOL     OW94088   3.226   5.903   1.285  0.1401 -0.0456 -0.1645
27925SOL    HW194089   3.163   5.917   1.214 -0.5372  1.3957  0.6821
27925SOL    HW294090   3.204   5.968   1.351  2.4541  0.4389  0.2370
27926SOL     OW94091  11.421  12.609   0.647 -0.2450 -0.2524 -0.2222
27926SOL    HW194092  11.513  12.614   0.670 -0.2393 -0.8848 -0.0758
27926SOL    HW294093  11.376  12.657   0.717  0.0579  1.1826 -0.9849
27927SOL     OW94094   9.325   4.212   0.396  0.0084 -0.0046  0.3919
27927SOL    HW194095   9.285   4.262   0.467  1.3255  0.1505  1.0469
27927SOL    HW294096   9.399   4.265   0.368 -0.3249 -0.1907 -0.9464
27928SOL     OW94097  12.595  12.747  11.548 -0.0149  0.0114 -0.1186
27928SOL    HW194098  12.504  12.751  11.578 -0.1866 -1.3393 -0.4261
27928SOL    HW294099  12.595  12.799  11.467 -0.3359  0.6338  0.2686
27929SOL     OW94100   8.775   5.745   4.248 -0.2384  0.8781  0.0696
27929SOL    HW194101   8.838   5.684   4.286 -0.9996 -0.1898 -0.3307
27929SOL    HW294102   8.809   5.763   4.161  0.4083  1.6807  0.4730
27930SOL     OW94103   1.352   2.944   4.102  0.0190  0.1287 -0.4181
27930SOL    HW194104   1.440   2.978   4.120  0.4696 -1.1316 -0.2003
27930SOL    HW294105   1.346   2.945   4.007 -0.7052  2.5750 -0.4314
27931SOL     OW94106   8.773  11.490   6.177 -0.1620  0.0048  0.9335
27931SOL    HW194107   8.778  11.584   6.197  1.8386  0.1561  0.0160
27931SOL    HW294108   8.734  11.486   6.090  1.3399  0.1318  0.2350
27932SOL     OW94109   4.465  11.329   0.076 -0.5759  0.6274  0.0058
27932SOL    HW194110   4.454  11.306   0.168 -2.0310  0.4725 -0.1866
27932SOL    HW294111   4.380  11.312   0.036  0.0949  0.4230 -1.4361
27933SOL     OW94112   9.592  12.069   3.242  0.7970 -0.0732 -0.1586
27933SOL    HW194113   9.582  11.982   3.203  2.2424 -0.9063  1.1697
27933SOL    HW294114   9.682  12.094   3.220  0.1432  1.5010 -1.2295
27934SOL     OW94115  12.317  11.547   3.463  0.3694 -0.4177 -0.5827
27934SOL    HW194116  12.284  11.558   3.374 -0.1354 -0.4783 -0.4031
27934SOL    HW294117  12.355  11.459   3.464  0.7304 -0.2669 -0.8477
27935SOL     OW94118   0.452  10.490  12.678  0.3674  0.5711  0.3057
27935SOL    HW194119   0.412  10.569  12.714 -0.5153 -0.2546  1.2156
27935SOL    HW294120   0.377  10.436  12.652  0.9650  0.2429 -0.7842
27936SOL     OW94121   4.578   7.547  10.375  0.0364 -0.0370 -0.3579
27936SOL    HW194122   4.543   7.632  10.404  0.2845  0.3099 -1.0606
27936SOL    HW294123   4.660   7.537  10.424 -0.3865 -0.2550  0.3272
27937SOL     OW94124   7.164   8.208   7.772  0.0234 -0.2099 -0.1990
27937SOL    HW194125   7.112   8.226   7.694 -0.2689  0.7656  0.2062
27937SOL    HW294126   7.156   8.113   7.785 -1.9458 -0.0557  0.0523
27938SOL     OW94127  12.963   8.808   6.591 -0.1769  0.3070  0.6422
27938SOL    HW194128  12.873   8.821   6.562 -0.5623  0.1988  1.7280
27938SOL    HW294129  12.955   8.775   6.681  0.9476  0.5439  0.8500
27939SOL     OW94130   7.294   7.924   5.950  0.0944 -0.6109  0.2490
27939SOL    HW194131   7.208   7.961   5.969 -1.2891 -2.5706 -1.6354
27939SOL    HW294132   7.354   7.999   5.955 -1.6194  0.7445  2.0013
27940SOL     OW94133   0.823   0.794   9.662  0.3225 -0.0305 -0.6252
27940SOL    HW194134   0.919   0.787   9.663  0.3866  0.4534 -1.9610
27940SOL    HW294135   0.804   0.852   9.589 -0.9031  1.8122  1.0719
27941SOL     OW94136   4.028   1.818   3.019  0.0814 -0.4103  0.2135
27941SOL    HW194137   4.005   1.728   2.992 -1.6324  0.2693 -0.7851
27941SOL    HW294138   3.945   1.854   3.051  0.6905  0.8950  0.3558
27942SOL     OW94139   2.185   2.861  10.692  0.0852 -0.2366  0.2988
27942SOL    HW194140   2.107   2.845  10.746 -0.8554 -0.1299 -0.9978
27942SOL    HW294141   2.200   2.778  10.647 -1.4451  0.7300 -2.1573
27943SOL     OW94142   5.799   2.645   4.563 -0.0482  0.8606 -0.1968
27943SOL    HW194143   5.894   2.642   4.576  0.1106  0.7007 -1.2831
27943SOL    HW294144   5.788   2.637   4.468 -1.1761  0.2571 -0.0266
27944SOL     OW94145   8.281   1.196  10.455  0.3865  0.4994 -0.3277
27944SOL    HW194146   8.295   1.136  10.528 -0.3369  0.5749 -0.1215
27944SOL    HW294147   8.369   1.213  10.420  0.7108  0.2909  0.3825
27945SOL     OW94148  10.286   8.161   8.151  0.0470  0.1697 -0.1713
27945SOL    HW194149  10.313   8.242   8.193  0.0540 -0.5318  1.2296
27945SOL    HW294150  10.205   8.183   8.106  0.2682  1.0478 -0.1603
27946SOL     OW94151  10.945   4.409   9.472  0.3571 -0.4995 -0.5595
27946SOL    HW194152  10.873   4.426   9.411  0.2327  0.4447 -0.1581
27946SOL    HW294153  10.907   4.421   9.559  1.0996  0.4492 -0.3539
27947SOL     OW94154   7.682   0.965   7.872 -0.1668 -0.0733  0.0283
27947SOL    HW194155   7.679   1.044   7.818  0.5137  0.6727  1.0403
27947SOL    HW294156   7.754   0.980   7.934 -1.6520 -0.3493  1.9437
27948SOL     OW94157  12.777   0.563   0.760 -0.8016 -0.2821  0.6193
27948SOL    HW194158  12.872   0.560   0.749 -0.6167  1.8258  1.0454
27948SOL    HW294159  12.742   0.507   0.692  0.7505 -1.0282  0.4025
27949SOL     OW94160   4.721   8.818   1.032  0.0461 -0.4216  0.5019
27949SOL    HW194161   4.738   8.902   1.074 -2.2833  0.2008  0.3464
27949SOL    HW294162   4.632   8.795   1.059 -0.6099 -1.2222 -2.0318
27950SOL     OW94163   6.750  10.587   1.897  0.0479  0.3310 -0.4291
27950SOL    HW194164   6.685  10.595   1.967  1.2165 -1.6662  0.9964
27950SOL    HW294165   6.709  10.529   1.833 -0.1276  0.2435 -0.2368
27951SOL     OW94166   0.713  10.010   4.981  0.5262  0.5396  0.8107
27951SOL    HW194167   0.758  10.083   5.023 -0.3185  0.6194  1.5987
27951SOL    HW294168   0.620  10.028   4.994  0.1746  0.9896 -1.8064
27952SOL     OW94169   4.804  10.793   8.084  0.3040 -0.7595 -0.9579
27952SOL    HW194170   4.822  10.786   8.177 -0.5541  1.2650 -0.5760
27952SOL    HW294171   4.840  10.713   8.046  1.1675 -1.3670  1.0139
27953SOL     OW94172   0.917  11.141   1.825  0.8797  0.1685 -1.2025
27953SOL    HW194173   0.978  11.069   1.807  0.2657 -0.4718 -0.7747
27953SOL    HW294174   0.952  11.182   1.904  1.8340  1.0383 -2.0419
27954SOL     OW94175   3.716   0.579   4.195  0.0806 -0.2068 -0.3318
27954SOL    HW194176   3.719   0.652   4.257 -0.6152 -1.4256  1.2041
27954SOL    HW294177   3.793   0.527   4.216 -0.0694 -0.5345 -0.5918
27955SOL     OW94178   2.183  10.570   8.130  0.2811  0.0140 -0.7576
27955SOL    HW194179   2.167  10.663   8.147  1.2107  0.1681 -0.6729
27955SOL    HW294180   2.130  10.524   8.195 -0.4605  0.4707 -1.0225
27956SOL     OW94181  10.402   1.524   2.546  0.1792 -0.1036 -0.4334
27956SOL    HW194182  10.330   1.476   2.588 -0.1327 -0.9204 -1.8378
27956SOL    HW294183  10.475   1.462   2.547 -0.0761 -0.4454 -1.8136
27957SOL     OW94184   8.299   8.437   2.146  0.1523 -0.1002  0.2102
27957SOL    HW194185   8.260   8.349   2.144  0.0496 -0.0465 -0.1464
27957SOL    HW294186   8.366   8.432   2.214  0.2694 -0.5059  0.0655
27958SOL     OW94187   7.355   7.025   2.978  0.3794 -0.2044  0.0544
27958SOL    HW194188   7.379   7.084   2.906  0.6201 -1.1232 -0.6340
27958SOL    HW294189   7.422   6.957   2.976 -0.5200 -1.1126  0.1128
27959SOL     OW94190   5.458  10.917   8.063 -0.1140 -0.2675  0.3146
27959SOL    HW194191   5.532  10.977   8.073  0.8407 -1.5470  1.3884
27959SOL    HW294192   5.462  10.891   7.971 -0.2857  0.9633 -0.0583
27960SOL     OW94193   2.967   9.230   8.206  0.5543 -0.2005  0.1123
27960SOL    HW194194   2.981   9.311   8.157  1.2118 -0.2650  0.1912
27960SOL    HW294195   3.030   9.233   8.278  0.6485 -0.8210  0.0640
27961SOL     OW94196   4.830   2.646   4.572 -0.0652  0.0023 -0.1118
27961SOL    HW194197   4.887   2.668   4.498 -0.4430 -0.9049 -0.6903
27961SOL    HW294198   4.787   2.728   4.594  0.6063  0.4455 -0.4103
27962SOL     OW94199   7.415   7.575   6.330  0.0112  0.1456 -0.4037
27962SOL    HW194200   7.347   7.512   6.354 -1.7627  1.8461 -0.6896
27962SOL    HW294201   7.496   7.537   6.362 -1.2262 -1.4429  0.9817
27963SOL     OW94202   1.441  12.658   3.041 -0.0348  0.1938 -0.1705
27963SOL    HW194203   1.360  12.708   3.050  0.1292  0.6491 -1.0677
27963SOL    HW294204   1.454  12.650   2.946  1.2272  0.5793 -0.0513
27964SOL     OW94205  11.876   1.440   7.671 -0.7240  0.5293  0.8413
27964SOL    HW194206  11.821   1.469   7.744  0.0757 -1.1970  2.2090
27964SOL    HW294207  11.947   1.503   7.669 -0.7992  0.6491  1.5148
27965SOL     OW94208   9.990   7.456   2.397 -0.1505  0.0581 -0.7925
27965SOL    HW194209  10.053   7.384   2.393 -0.0045  0.2113 -1.3024
27965SOL    HW294210   9.908   7.414   2.424  0.0928 -0.1888 -0.4205
27966SOL     OW94211   1.802   7.500   4.997  0.0939 -0.5222  1.1182
27966SOL    HW194212   1.863   7.441   5.041 -0.3664 -0.6079  1.6659
27966SOL    HW294213   1.737   7.442   4.957  0.0233 -0.4107  1.0698
27967SOL     OW94214   1.557   3.005   5.548 -0.7102  0.7197 -0.0495
27967SOL    HW194215   1.578   3.008   5.641 -0.0677  1.0059 -0.1939
27967SOL    HW294216   1.535   3.095   5.526 -1.1792  0.5916 -0.1046
27968SOL     OW94217  10.539   1.777   5.200  0.0824 -0.1265 -0.2038
27968SOL    HW194218  10.495   1.705   5.245 -1.4722 -0.7572 -2.5723
27968SOL    HW294219  10.481   1.852   5.212  0.3893  0.0745  0.0460
27969SOL     OW94220  12.385   0.223   1.171 -0.0762  0.5587  0.1936
27969SOL    HW194221  12.391   0.129   1.190 -0.2268  0.5450  0.1755
27969SOL    HW294222  12.464   0.260   1.209  0.4665  0.2859 -0.6410
27970SOL     OW94223   9.434   3.102   2.025  0.3287 -0.4611 -0.1341
27970SOL    HW194224   9.442   3.118   1.931  0.9248 -0.6804 -0.1245
27970SOL    HW294225   9.471   3.015   2.037 -1.3711 -1.1943  0.0526
27971SOL     OW94226  12.260   1.555  10.576 -0.1822 -0.6518 -0.0195
27971SOL    HW194227  12.205   1.484  10.612 -0.3303  0.4691  2.1774
27971SOL    HW294228  12.198   1.624  10.553 -0.0274 -1.1333 -2.0375
27972SOL     OW94229  12.472  12.529   9.053  0.6628  0.2336 -0.1437
27972SOL    HW194230  12.449  12.575   9.133 -1.1964 -2.1247  0.7698
27972SOL    HW294231  12.435  12.441   9.063 -0.3728  0.0428 -3.8833
27973SOL     OW94232  12.032   4.865   5.987  0.1202  0.0092 -0.2502
27973SOL    HW194233  12.050   4.954   6.019 -0.7217  0.1491 -0.1598
27973SOL    HW294234  11.942   4.868   5.955  0.1200 -0.7893 -0.3486
27974SOL     OW94235   9.248   5.052   5.779  0.2199 -0.0326 -0.2843
27974SOL    HW194236   9.311   5.124   5.785  0.4047 -0.2079 -0.0537
27974SOL    HW294237   9.238   5.037   5.685 -0.0515  0.4907 -0.3380
27975SOL     OW94238   8.720  12.467   2.412 -0.3593  0.2018 -0.6360
27975SOL    HW194239   8.772  12.533   2.364 -1.5034 -0.4770 -2.9629
27975SOL    HW294240   8.706  12.397   2.348 -2.0044 -0.7713  0.7227
27976SOL     OW94241   8.834  12.048   6.785  0.2378 -0.0158 -0.1423
27976SOL    HW194242   8.789  12.118   6.832  1.7972  0.1348  1.1958
27976SOL    HW294243   8.777  11.972   6.796  0.6302 -0.0504  2.2588
27977SOL     OW94244   4.718   5.753   9.954  0.3070  0.4701  0.1378
27977SOL    HW194245   4.812   5.737   9.945  0.0129 -1.1016 -0.5302
27977SOL    HW294246   4.702   5.750  10.048  0.7267 -0.7183  0.1963
27978SOL     OW94247  11.442   6.016  11.896 -0.1158  0.2703  0.6000
27978SOL    HW194248  11.385   5.954  11.941 -1.2965  0.1645 -0.9514
27978SOL    HW294249  11.387   6.052  11.826  1.4906  0.7432 -0.4634
27979SOL     OW94250   3.861   4.078   3.728  0.3459  0.2799 -0.5407
27979SOL    HW194251   3.942   4.056   3.682 -0.0462  0.8056 -1.5233
27979SOL    HW294252   3.796   4.088   3.658 -0.3272  0.8672  0.1484
27980SOL     OW94253   8.930   1.298   3.196 -0.3705  0.3297 -0.0812
27980SOL    HW194254   8.982   1.234   3.244 -0.3280  0.0059 -0.5521
27980SOL    HW294255   8.872   1.246   3.140  0.3934  0.6910 -1.2481
27981SOL     OW94256   0.670   5.835  10.448  0.2015 -0.1808  0.2588
27981SOL    HW194257   0.717   5.812  10.368 -0.4653 -1.6499  0.2476
27981SOL    HW294258   0.693   5.926  10.465  0.0259  0.3054 -1.8502
27982SOL     OW94259   9.681   6.751   1.269 -0.2730 -0.1794  0.0349
27982SOL    HW194260   9.634   6.671   1.244 -1.0582  0.2006  0.2313
27982SOL    HW294261   9.645   6.819   1.212 -0.6587  0.3073  0.8340
27983SOL     OW94262  10.497   4.929   7.726 -0.0064  0.6109 -0.3864
27983SOL    HW194263  10.555   4.854   7.745  0.0640  0.7118 -0.2016
27983SOL    HW294264  10.553   4.991   7.680 -0.0619  0.5569 -0.5277
27984SOL     OW94265   0.042   1.341  12.310  0.2056 -0.3945 -0.0681
27984SOL    HW194266   0.059   1.324  12.402 -0.2119  0.4547  0.1744
27984SOL    HW294267   0.127   1.367  12.274  0.0901  0.6818  0.4090
27985SOL     OW94268   6.628   6.920   6.519 -0.1198  0.5940  0.0089
27985SOL    HW194269   6.681   6.999   6.532 -0.2083  0.8298 -0.9602
27985SOL    HW294270   6.678   6.850   6.561  0.3196  1.0417  0.2364
27986SOL     OW94271   5.091   6.859   4.942 -0.1407 -0.0234 -0.4626
27986SOL    HW194272   5.090   6.883   4.849  0.3739  0.6982 -0.3002
27986SOL    HW294273   5.156   6.789   4.948  0.3030  0.3736 -0.5555
27987SOL     OW94274   6.080   9.425  11.577  0.0525  0.1726 -0.2395
27987SOL    HW194275   6.136   9.489  11.532  0.5416 -0.5408 -0.6776
27987SOL    HW294276   6.108   9.341  11.541  1.4376 -0.5871  2.3605
27988SOL     OW94277   1.412   3.149  12.119 -0.0311 -0.1956  0.6204
27988SOL    HW194278   1.482   3.094  12.155 -1.6289 -1.6847  1.6295
27988SOL    HW294279   1.418   3.138  12.025  0.1837 -1.5362  0.7674
27989SOL     OW94280  10.981   8.044   8.429 -0.0277  0.0478 -0.0969
27989SOL    HW194281  10.998   7.987   8.354  0.0561 -1.3168  0.9187
27989SOL    HW294282  10.899   8.010   8.467 -0.3660  1.0666  0.1131
27990SOL     OW94283  11.157   6.898   1.331 -0.7399 -0.3810 -0.6838
27990SOL    HW194284  11.102   6.820   1.331 -0.7509 -0.3967 -1.8644
27990SOL    HW294285  11.246   6.864   1.318 -0.6536 -0.2453 -0.4475
27991SOL     OW94286   6.864   6.214   5.110  0.4688  0.0295 -0.7315
27991SOL    HW194287   6.945   6.201   5.160  0.6809  1.2804 -0.7187
27991SOL    HW294288   6.857   6.135   5.056 -0.8266 -2.3843  2.6126
27992SOL     OW94289   1.091   4.088   2.384 -0.3344  0.2817  0.3758
27992SOL    HW194290   1.122   3.999   2.367  1.7085  0.3235  3.1526
27992SOL    HW294291   1.157   4.145   2.345 -0.9655  0.5609 -0.2968
27993SOL     OW94292   6.866   4.436   3.692 -0.2125  0.4683 -0.6663
27993SOL    HW194293   6.861   4.355   3.643 -1.3384  1.2267 -1.8643
27993SOL    HW294294   6.777   4.452   3.723 -0.2861  1.8414 -1.4907
27994SOL     OW94295   8.109   6.656   5.800  0.8347 -0.0508 -0.2626
27994SOL    HW194296   8.107   6.750   5.784 -0.5572 -0.0299 -0.0591
27994SOL    HW294297   8.180   6.644   5.863  0.0971  1.0548  0.8214
27995SOL     OW94298   5.322  12.496  10.876  0.4196  0.6393 -0.0701
27995SOL    HW194299   5.278  12.413  10.857  1.5435  0.1271 -0.4915
27995SOL    HW294300   5.288  12.556  10.810  0.2678  0.2812 -0.3215
27996SOL     OW94301   1.574   8.166   1.881 -0.3886 -0.4769  0.1923
27996SOL    HW194302   1.576   8.207   1.794  0.7674  0.3076  0.5698
27996SOL    HW294303   1.513   8.093   1.871 -1.2470  0.3611 -0.9356
27997SOL     OW94304   1.545   9.955   9.282  0.8373 -0.0581  0.0964
27997SOL    HW194305   1.476   9.894   9.309 -0.7964  1.7394  0.1716
27997SOL    HW294306   1.625   9.903   9.286 -0.4267 -2.1024  0.4630
27998SOL     OW94307   3.513   4.425   1.979 -0.4260 -0.0143  0.4866
27998SOL    HW194308   3.583   4.398   1.919  0.6654 -0.1748  1.7717
27998SOL    HW294309   3.557   4.479   2.045 -1.0453 -1.9681  2.6250
27999SOL     OW94310   6.315   3.104   8.912 -0.1033 -0.3224 -0.3785
27999SOL    HW194311   6.363   3.179   8.946 -2.1762  0.9514 -0.0594
27999SOL    HW294312   6.223   3.132   8.914 -0.7115 -1.8881 -2.7888
28000SOL     OW94313   2.611   4.813  12.733 -0.3554 -0.8936  0.4574
28000SOL    HW194314   2.675   4.852  12.791  1.0431 -0.8646 -1.0226
28000SOL    HW294315   2.547   4.882  12.717  0.5311 -0.1340  0.1250
28001SOL     OW94316   1.286  10.032   1.607 -0.3272  0.0428  0.0906
28001SOL    HW194317   1.230   9.982   1.547 -1.3281  0.3189  0.7672
28001SOL    HW294318   1.351  10.074   1.550  1.6941 -3.3612 -0.3643
28002SOL     OW94319   2.092  11.847   7.103 -0.4077  0.0968 -0.3177
28002SOL    HW194320   2.145  11.785   7.052  3.3700  1.0272  2.0915
28002SOL    HW294321   2.034  11.791   7.156  0.8133 -1.2489 -0.3356
28003SOL     OW94322   6.610   1.396   9.556  0.5001  0.5295 -0.2056
28003SOL    HW194323   6.580   1.305   9.550  1.0344  0.2298  1.2866
28003SOL    HW294324   6.530   1.448   9.551  0.0843 -0.0803  0.0065
28004SOL     OW94325   0.916  12.829  11.935  0.2368  0.1833 -0.5384
28004SOL    HW194326   0.883  12.911  11.972  0.8108 -0.1463  0.7509
28004SOL    HW294327   1.011  12.837  11.940  0.2978 -0.8399  0.2500
28005SOL     OW94328  11.881   5.922   2.427 -0.3902 -0.2019 -0.2340
28005SOL    HW194329  11.816   5.852   2.437  0.5333 -0.9850  0.4874
28005SOL    HW294330  11.845   5.979   2.358 -1.8877 -0.5402  0.2367
28006SOL     OW94331   6.225  10.069   1.764 -0.1869 -0.5099  0.1444
28006SOL    HW194332   6.169  10.045   1.839 -1.2171  1.4093  0.0510
28006SOL    HW294333   6.166  10.065   1.689 -0.2714  1.6285  0.0548
28007SOL     OW94334   9.906   3.952   0.694 -0.2541 -0.0184  0.1706
28007SOL    HW194335   9.923   3.873   0.746 -1.0749 -0.9538 -0.9093
28007SOL    HW294336   9.881   3.918   0.608  2.7371  1.4798 -1.4524
28008SOL     OW94337   6.862  12.695   4.722  0.5359 -0.2941 -0.2654
28008SOL    HW194338   6.853  12.791   4.729 -0.3052 -0.4592  1.3554
28008SOL    HW294339   6.779  12.666   4.684  0.4320 -0.4647  0.0956
28009SOL     OW94340   1.415   6.617   4.673  1.0401  0.5452 -0.0521
28009SOL    HW194341   1.450   6.684   4.614 -0.0684  0.4093 -0.8887
28009SOL    HW294342   1.468   6.539   4.654  1.0306  0.6458 -0.5058
28010SOL     OW94343   0.537   6.665   6.536 -0.0403  0.2010 -0.1191
28010SOL    HW194344   0.525   6.759   6.519 -0.5943 -0.0126 -0.9665
28010SOL    HW294345   0.508   6.623   6.455  2.2675 -0.5953 -0.6027
28011SOL     OW94346   4.243   6.138   7.622 -0.3005 -0.1651 -0.0890
28011SOL    HW194347   4.266   6.197   7.694  0.5053  0.1245 -0.5679
28011SOL    HW294348   4.190   6.070   7.663 -0.3864  0.3392  0.6582
28012SOL     OW94349  12.172  10.156  12.458  0.4987  0.5495  0.1542
28012SOL    HW194350  12.114  10.080  12.470 -0.4620  1.4753  1.8950
28012SOL    HW294351  12.120  10.218  12.408  0.2983  1.0311  0.9400
28013SOL     OW94352   9.005  10.607  12.070  0.1871 -0.4745  0.2492
28013SOL    HW194353   8.963  10.542  12.126  0.4310 -0.0978  0.8751
28013SOL    HW294354   8.976  10.691  12.104  1.7807 -0.1839  0.9860
28014SOL     OW94355   8.782  11.173   0.540  0.1023  0.2829  0.5571
28014SOL    HW194356   8.725  11.139   0.471  0.4785 -0.2155  0.4886
28014SOL    HW294357   8.783  11.105   0.607  0.3374  0.4389  0.7144
28015SOL     OW94358   9.103  12.847   7.323  0.0459 -0.3522  0.3580
28015SOL    HW194359   9.181  12.840   7.378 -0.1752  1.8153  1.0628
28015SOL    HW294360   9.030  12.851   7.385 -0.3747  0.2394 -0.1568
28016SOL     OW94361   2.206   0.172   7.844  0.0963  0.2026 -0.1112
28016SOL    HW194362   2.280   0.204   7.792  0.4644 -1.6348 -0.7858
28016SOL    HW294363   2.214   0.219   7.927  0.7480  1.6185 -0.9260
28017SOL     OW94364   3.461  12.032   9.434  0.4314  0.2570  0.0644
28017SOL    HW194365   3.504  11.997   9.357 -0.1547 -0.1762 -0.0725
28017SOL    HW294366   3.369  12.040   9.409  0.3932  0.9953  0.4124
28018SOL     OW94367   8.662   4.419   2.882  0.3251  0.4195 -0.2315
28018SOL    HW194368   8.607   4.484   2.839 -1.2369 -0.6889  0.0459
28018SOL    HW294369   8.734   4.470   2.920 -0.8697  1.9832 -0.0045
28019SOL     OW94370  11.362   2.745   4.719 -0.2152  0.0916 -0.4753
28019SOL    HW194371  11.413   2.669   4.693  0.2332  0.4744 -0.7226
28019SOL    HW294372  11.352   2.797   4.639 -1.7996 -0.4325 -0.6623
28020SOL     OW94373   1.639   2.370   4.322  0.1096 -0.4475 -0.0992
28020SOL    HW194374   1.701   2.301   4.346 -0.5012 -1.0519 -0.2398
28020SOL    HW294375   1.615   2.351   4.231 -1.3066 -1.0287  0.3642
28021SOL     OW94376   5.660   7.380   3.861  0.4715  0.1063  0.3131
28021SOL    HW194377   5.575   7.408   3.897  0.4997 -0.5275  0.8841
28021SOL    HW294378   5.724   7.413   3.923  0.7100  1.1683 -0.4643
28022SOL     OW94379  11.090   3.578  10.585  0.4654 -0.1619 -0.2281
28022SOL    HW194380  11.092   3.543  10.496  1.5333 -0.4524 -0.1012
28022SOL    HW294381  11.001   3.561  10.615 -0.4194  1.3969 -1.8014
28023SOL     OW94382   9.383   1.319   7.757 -0.7914 -0.3828 -0.2009
28023SOL    HW194383   9.297   1.279   7.764 -1.2978  0.6919 -0.1767
28023SOL    HW294384   9.417   1.289   7.672 -0.6891 -1.7344  0.2980
28024SOL     OW94385   2.756   7.050   3.290  0.1903 -0.0157  0.0621
28024SOL    HW194386   2.765   6.991   3.215  0.9087  0.7944 -0.5022
28024SOL    HW294387   2.662   7.047   3.311 -0.3285  0.9675 -1.8925
28025SOL     OW94388  10.276   7.194   1.852 -0.3608 -0.2622 -0.3971
28025SOL    HW194389  10.371   7.205   1.854 -0.5332  2.0743 -1.3324
28025SOL    HW294390  10.257   7.162   1.764 -0.6075  2.7721 -1.5754
28026SOL     OW94391   4.960   4.385   5.159  0.6134  0.3002  0.7186
28026SOL    HW194392   5.001   4.443   5.222  2.1038  1.8469 -1.5116
28026SOL    HW294393   5.005   4.403   5.076 -1.4911 -1.2864 -0.9139
28027SOL     OW94394   0.742   1.091   7.086 -0.0109 -0.3400  0.0459
28027SOL    HW194395   0.654   1.066   7.056  0.0272 -1.9889  1.1832
28027SOL    HW294396   0.800   1.062   7.016 -0.3411  0.6940 -0.6795
28028SOL     OW94397   8.155   0.795   0.021 -0.0851  0.1184  0.1667
28028SOL    HW194398   8.237   0.754   0.048 -0.6541 -0.6937  0.6918
28028SOL    HW294399   8.176   0.888   0.014  0.7972 -0.0389  0.6066
28029SOL     OW94400   9.957   2.774   1.597  0.2688 -0.0545  1.1015
28029SOL    HW194401   9.883   2.805   1.649 -1.8481 -0.7290 -1.3270
28029SOL    HW294402   9.995   2.853   1.561  0.5703  0.2740  2.0935
28030SOL     OW94403   9.509   8.903   6.167  0.3488  0.3972 -0.3316
28030SOL    HW194404   9.461   8.826   6.136 -0.1496 -0.2080  1.7545
28030SOL    HW294405   9.600   8.873   6.173  0.0805 -0.2414  0.9538
28031SOL     OW94406   5.035   4.428   4.267 -0.3547 -0.2918  0.2607
28031SOL    HW194407   5.067   4.385   4.188  0.5234 -0.8541  0.9105
28031SOL    HW294408   5.104   4.489   4.291 -0.8983  0.3443  0.2468
28032SOL     OW94409   9.662   4.430   5.593  0.0194 -0.6841  0.1735
28032SOL    HW194410   9.610   4.489   5.538 -0.9688 -2.2845 -0.7018
28032SOL    HW294411   9.688   4.483   5.667 -0.6914  0.8911 -0.6527
28033SOL     OW94412   1.844  10.215  11.740 -0.0849 -0.4733  0.2111
28033SOL    HW194413   1.921  10.270  11.758  0.9439 -2.0819  0.9898
28033SOL    HW294414   1.832  10.222  11.646  0.7528  0.1586  0.1311
28034SOL     OW94415   9.204   7.730   7.285  0.0553 -0.1325 -0.5534
28034SOL    HW194416   9.167   7.762   7.203  0.1454  1.5341  0.0350
28034SOL    HW294417   9.297   7.755   7.282 -0.1735  0.9319  0.5110
28035SOL     OW94418   0.830   5.763   2.208 -0.1015 -0.5700  0.8625
28035SOL    HW194419   0.739   5.752   2.237 -0.7962 -1.0155 -1.2707
28035SOL    HW294420   0.854   5.678   2.172  0.5981 -0.0069 -0.0228
28036SOL     OW94421   1.756  12.981   6.429  0.5361 -0.2444 -0.5458
28036SOL    HW194422   1.828  13.043   6.423 -0.1742  0.7367  0.6918
28036SOL    HW294423   1.764  12.942   6.516  0.3678 -1.1407 -0.9177
28037SOL     OW94424   7.421   1.703  12.738 -0.3287 -0.4365  0.4986
28037SOL    HW194425   7.332   1.712  12.774 -0.6814  0.5557 -0.5301
28037SOL    HW294426   7.455   1.793  12.738 -0.2902 -0.4028 -1.4075
28038SOL     OW94427   4.430   2.714   5.158  0.5127 -0.5000 -0.4933
28038SOL    HW194428   4.468   2.793   5.197  0.0433 -0.1933 -0.6478
28038SOL    HW294429   4.473   2.642   5.205  0.4981 -0.1500  0.0802
28039SOL     OW94430   7.554   0.213   6.022  0.5601 -0.1704 -0.2984
28039SOL    HW194431   7.554   0.306   6.042  3.0972 -0.1514 -0.0977
28039SOL    HW294432   7.550   0.170   6.107 -1.7983 -0.3602 -0.4116
28040SOL     OW94433   9.317   1.798   4.054 -0.4984  0.6469  0.0951
28040SOL    HW194434   9.292   1.725   3.997 -0.4545  0.5858  0.1536
28040SOL    HW294435   9.411   1.810   4.037 -0.1948 -0.1790  1.0488
28041SOL     OW94436   3.002  11.731   1.142 -0.0678 -0.6433 -0.4151
28041SOL    HW194437   3.007  11.796   1.212  1.2098 -2.3236  1.1703
28041SOL    HW294438   2.984  11.781   1.063  1.4350  1.6766  0.6191
28042SOL     OW94439   7.019  10.972   0.286  0.3269  0.3717 -0.4153
28042SOL    HW194440   6.941  10.952   0.338  0.9823 -2.9723 -0.4752
28042SOL    HW294441   7.069  11.032   0.341 -0.2400 -0.9887  1.7190
28043SOL     OW94442   5.356   8.229   2.012  1.0091 -0.1507  0.6122
28043SOL    HW194443   5.406   8.148   2.001  1.3645 -0.3956  3.1976
28043SOL    HW294444   5.394   8.269   2.090 -1.7526  0.4647  1.7587
28044SOL     OW94445   2.657   3.974  10.686  0.1600  0.5369  0.1308
28044SOL    HW194446   2.609   3.894  10.705 -0.0905  0.3743 -1.1187
28044SOL    HW294447   2.593   4.032  10.646  0.7582  0.7114 -0.5907
28045SOL     OW94448   1.216  10.509   1.103 -0.5511 -0.5117 -0.2251
28045SOL    HW194449   1.193  10.495   1.011  0.1856  1.2312 -0.7220
28045SOL    HW294450   1.131  10.520   1.147 -0.8786  1.2453 -1.1989
28046SOL     OW94451   4.395   6.239   1.411 -0.0328 -0.3758  0.4800
28046SOL    HW194452   4.477   6.269   1.372 -0.8452  0.8699 -0.3208
28046SOL    HW294453   4.404   6.260   1.504 -0.4166  2.1122  0.0053
28047SOL     OW94454   8.811   4.584   5.291 -0.1526  0.0091  0.0173
28047SOL    HW194455   8.793   4.642   5.365 -0.8551 -0.2684  0.0772
28047SOL    HW294456   8.905   4.589   5.278 -0.0507  0.2132  0.8114
28048SOL     OW94457   8.219   6.546   2.895  0.2020  0.3492  0.1255
28048SOL    HW194458   8.277   6.623   2.892  1.0206 -0.2288  0.6904
28048SOL    HW294459   8.155   6.567   2.963  0.4629  0.5071  0.3260
28049SOL     OW94460   2.695  10.570   1.370 -0.0642 -0.1382 -0.2919
28049SOL    HW194461   2.615  10.523   1.395 -1.4281  1.7713 -0.8100
28049SOL    HW294462   2.750  10.566   1.448  0.1124 -2.9207 -0.4703
28050SOL     OW94463  12.243   2.964   4.909  0.3992  0.4758  0.3903
28050SOL    HW194464  12.241   3.051   4.869  2.3410  0.2448 -0.3210
28050SOL    HW294465  12.221   2.904   4.837  3.1326  0.1185 -0.2636
28051SOL     OW94466   9.290  10.670   8.988 -0.3972 -0.7375  0.4271
28051SOL    HW194467   9.373  10.672   9.036  1.2335  1.5484 -2.1623
28051SOL    HW294468   9.312  10.635   8.902 -1.5172  1.8435 -1.0555
28052SOL     OW94469   2.553   2.539   0.622  0.0486  0.2094 -0.1705
28052SOL    HW194470   2.600   2.490   0.555 -1.0364 -2.2667  0.7453
28052SOL    HW294471   2.552   2.481   0.698 -1.9464  1.3651  0.7740
28053SOL     OW94472   0.737   9.578   5.928  0.1449  0.4497  0.6418
28053SOL    HW194473   0.696   9.556   5.844  0.2018 -0.2161  0.7795
28053SOL    HW294474   0.827   9.601   5.905  0.7967 -1.7977  0.6990
28054SOL     OW94475   6.016   3.612   4.532  0.4979 -0.5069  0.4086
28054SOL    HW194476   6.090   3.660   4.494 -0.4871 -0.4859 -1.6138
28054SOL    HW294477   6.034   3.610   4.626  3.1408 -0.6456 -0.0379
28055SOL     OW94478   9.132  12.060  10.675  0.0424 -0.0002 -0.8503
28055SOL    HW194479   9.214  12.111  10.675 -0.1115  0.3248  0.6837
28055SOL    HW294480   9.066  12.121  10.708 -0.1468 -1.1444  1.0602
28056SOL     OW94481   4.635   9.832   9.863 -0.3718 -0.3507  0.8159
28056SOL    HW194482   4.694   9.906   9.848 -0.8389 -0.2841 -1.0023
28056SOL    HW294483   4.670   9.762   9.807 -1.3056 -0.7060  0.6530
28057SOL     OW94484  10.368   4.397   1.293  0.0998  0.2750 -0.4811
28057SOL    HW194485  10.334   4.350   1.216 -2.1298 -0.0668  0.6440
28057SOL    HW294486  10.300   4.387   1.359  2.1716  0.1177  1.7503
28058SOL     OW94487   1.527   0.501   0.631 -0.4926 -0.0953 -0.3077
28058SOL    HW194488   1.476   0.565   0.680 -0.5176  1.0209 -1.7153
28058SOL    HW294489   1.461   0.445   0.589 -0.4688 -1.3589  1.2460
28059SOL     OW94490   3.268  12.951   3.407 -0.2495  0.4291  0.1632
28059SOL    HW194491   3.231  12.910   3.329 -2.4160  0.9485  0.8533
28059SOL    HW294492   3.274  13.044   3.386  1.7888  0.2427 -0.3120
28060SOL     OW94493   7.976   0.550  12.388  0.1896 -0.2074 -0.5080
28060SOL    HW194494   8.006   0.471  12.344  2.3538 -0.2543  0.8844
28060SOL    HW294495   8.056   0.600  12.404 -0.7688  0.8746  1.2597
28061SOL     OW94496   8.968   9.985   0.657 -0.4154  0.0476  0.3019
28061SOL    HW194497   8.928   9.939   0.583 -0.3641 -0.9599  0.8788
28061SOL    HW294498   8.910  10.058   0.674  0.2336  1.0535 -1.5272
28062SOL     OW94499   0.858   1.467   6.294 -0.0643 -0.1807  0.6033
28062SOL    HW194500   0.943   1.502   6.267 -1.1445  1.4802 -0.8849
28062SOL    HW294501   0.860   1.471   6.389  1.8699 -1.1277  0.6621
28063SOL     OW94502   1.824   6.240   5.349 -0.3756  0.3174  0.1892
28063SOL    HW194503   1.748   6.298   5.353  0.1465  1.0175  0.3109
28063SOL    HW294504   1.863   6.245   5.437  0.0034  0.2432  0.0299
28064SOL     OW94505   9.669   1.126   0.807  0.3885 -0.7983  0.2738
28064SOL    HW194506   9.642   1.183   0.879 -0.2852 -0.5807 -0.1370
28064SOL    HW294507   9.754   1.161   0.779 -0.5970  0.8972 -0.8522
28065SOL     OW94508   2.663   0.299   2.687  0.2816 -0.3954  0.6222
28065SOL    HW194509   2.595   0.320   2.623 -0.4046 -1.7270  0.8952
28065SOL    HW294510   2.690   0.385   2.722  0.0514  0.2763 -0.8014
28066SOL     OW94511   2.114   9.193   5.899  0.2894 -0.0178  0.7777
28066SOL    HW194512   2.107   9.243   5.981  0.3471 -1.1149  1.4748
28066SOL    HW294513   2.035   9.217   5.850 -1.1029 -1.2734  2.2811
28067SOL     OW94514   1.000   4.977   7.635 -0.6142  0.1595 -0.0658
28067SOL    HW194515   0.995   4.972   7.540  3.8228 -1.6233 -0.4558
28067SOL    HW294516   1.017   5.069   7.653  0.0193  0.2776 -1.1768
28068SOL     OW94517   2.123   2.450  10.088 -0.1624  0.9641  0.2139
28068SOL    HW194518   2.071   2.445  10.008 -1.4908  1.8269  0.9786
28068SOL    HW294519   2.151   2.360  10.105 -4.6462 -0.3905  1.7860
28069SOL     OW94520   9.503   6.833   4.533  0.3203 -0.3374 -0.3537
28069SOL    HW194521   9.461   6.845   4.618 -1.3342  0.4800 -1.2490
28069SOL    HW294522   9.540   6.744   4.538  0.0557 -0.4017  1.1139
28070SOL     OW94523  12.364   2.226   8.531 -0.2246 -0.0344  0.2913
28070SOL    HW194524  12.354   2.148   8.476  1.0853  0.4392 -0.6734
28070SOL    HW294525  12.339   2.198   8.618 -0.1512 -1.4351 -0.1227
28071SOL     OW94526   4.374  12.220   1.343 -0.0027 -0.3855 -0.0159
28071SOL    HW194527   4.341  12.306   1.317  0.5052 -0.5091 -1.1200
28071SOL    HW294528   4.323  12.197   1.421 -1.1757  0.2648 -0.5666
28072SOL     OW94529  10.175   3.702   4.144 -0.0177  0.3704 -0.2244
28072SOL    HW194530  10.202   3.624   4.193  0.1562  0.4927 -0.1259
28072SOL    HW294531  10.125   3.754   4.207 -1.8460 -0.5864 -0.8282
28073SOL     OW94532  10.589  10.780   2.303  0.6776  0.3861  0.2649
28073SOL    HW194533  10.657  10.779   2.237  0.8816  0.5452  0.4721
28073SOL    HW294534  10.581  10.872   2.330 -0.1242  0.4832 -0.2764
28074SOL     OW94535   9.736   1.086   7.731  0.0907 -0.0429 -0.0641
28074SOL    HW194536   9.782   1.006   7.754 -0.5316 -0.5209 -0.4516
28074SOL    HW294537   9.703   1.070   7.642  1.0117  1.1112 -0.6517
28075SOL     OW94538   4.834   9.275  11.101 -0.4990  0.0337  0.1639
28075SOL    HW194539   4.787   9.335  11.042 -0.2849  0.4708  0.4378
28075SOL    HW294540   4.805   9.300  11.188  1.2773  1.2488  0.4606
28076SOL     OW94541  10.000   2.789   0.658 -0.1868  0.1010  0.1626
28076SOL    HW194542  10.048   2.768   0.738  1.5603  0.1923 -0.8111
28076SOL    HW294543  10.067   2.825   0.599 -1.5133  0.4462 -1.1842
28077SOL     OW94544   0.607   0.677   1.996  0.2387 -0.5290  0.2685
28077SOL    HW194545   0.527   0.702   2.042 -0.0137  0.6074 -0.7322
28077SOL    HW294546   0.596   0.584   1.977 -1.3023 -0.1829 -0.7097
28078SOL     OW94547   5.908   1.953   9.086  0.0928 -0.4187 -0.4024
28078SOL    HW194548   5.901   2.048   9.095  0.6257 -0.4462  0.4645
28078SOL    HW294549   6.002   1.937   9.077 -0.1002 -0.7614 -2.0819
28079SOL     OW94550  11.986   7.091   6.001 -0.4943  0.0166 -0.5493
28079SOL    HW194551  12.033   7.143   5.936  0.8438  0.8138  0.9662
28079SOL    HW294552  11.903   7.137   6.014  0.8831  2.2708  1.1837
28080SOL     OW94553   1.373   1.960   8.055  0.3502 -0.0330 -0.1688
28080SOL    HW194554   1.439   1.996   8.115 -0.3051 -1.7329  1.7076
28080SOL    HW294555   1.317   2.034   8.033  0.7418  0.6945  1.1614
28081SOL     OW94556   6.156   8.499   9.489 -0.3105  0.2239  0.1682
28081SOL    HW194557   6.242   8.463   9.467 -0.0833  0.0417  1.2688
28081SOL    HW294558   6.094   8.433   9.457  0.0235 -0.2452  0.4635
28082SOL     OW94559   8.049   9.815   7.927 -0.8752  0.2156 -0.1023
28082SOL    HW194560   8.019   9.902   7.901  0.6497  0.7553 -0.1513
28082SOL    HW294561   8.011   9.801   8.014 -2.0477  0.4349 -0.5636
28083SOL     OW94562   8.507  11.170  12.708 -0.1032  0.2995  0.4547
28083SOL    HW194563   8.557  11.095  12.675 -0.3121  0.4505 -0.2167
28083SOL    HW294564   8.515  11.236  12.640  1.4182  1.5201  1.7361
28084SOL     OW94565   2.022   9.915  11.564  0.1926 -0.0911  0.0505
28084SOL    HW194566   2.098   9.859  11.580 -0.0249  0.2055  2.5142
28084SOL    HW294567   2.059  10.002  11.553  0.4854 -0.5196 -3.2295
28085SOL     OW94568   1.713   4.007   2.446 -0.0939  0.2848 -0.0019
28085SOL    HW194569   1.733   3.929   2.498 -0.7494 -0.8803 -1.4240
28085SOL    HW294570   1.795   4.029   2.403  0.8078  2.0242  2.3766
28086SOL     OW94571   1.468   7.738   2.133  0.2605  0.7830  0.1517
28086SOL    HW194572   1.467   7.776   2.221  1.7685  0.8140  0.1847
28086SOL    HW294573   1.521   7.799   2.081  0.2398  0.2416 -0.5150
28087SOL     OW94574   4.065  11.806   7.175 -0.0493  0.5301 -0.1948
28087SOL    HW194575   4.155  11.775   7.162  0.1663  0.6240  0.9544
28087SOL    HW294576   4.069  11.900   7.161 -0.0973  0.4550 -0.7343
28088SOL     OW94577   5.444   0.019   2.337 -0.1236  0.2590 -0.3367
28088SOL    HW194578   5.407   0.059   2.415 -1.3694  0.6655 -1.1012
28088SOL    HW294579   5.389   0.052   2.265  0.6272 -0.5527 -1.3098
28089SOL     OW94580   9.016   9.441   7.108 -0.3400 -0.2037  0.4393
28089SOL    HW194581   8.946   9.502   7.130  0.6443  0.7515  1.0301
28089SOL    HW294582   9.062   9.427   7.190  2.1923  1.8707 -0.4706
28090SOL     OW94583   9.429  12.144   5.342 -0.5903 -0.6848  0.1708
28090SOL    HW194584   9.442  12.089   5.265 -1.1077 -0.3310 -0.1747
28090SOL    HW294585   9.460  12.091   5.415 -1.0265 -1.4041 -0.1614
28091SOL     OW94586   4.261   7.040  12.797  0.2602  0.0666 -0.0792
28091SOL    HW194587   4.209   6.974  12.842 -0.4138  0.2786 -0.5310
28091SOL    HW294588   4.245   7.121  12.847  0.1394  0.1359 -0.2297
28092SOL     OW94589  11.530  10.198   3.899  0.1836  0.1109 -0.1276
28092SOL    HW194590  11.469  10.141   3.852 -0.2398  0.0681  0.4491
28092SOL    HW294591  11.513  10.285   3.865 -1.4376  0.3713  1.2091
28093SOL     OW94592  12.357   9.739   1.459 -0.7694  0.3571 -0.0621
28093SOL    HW194593  12.364   9.645   1.472 -1.0283  0.3034 -0.2986
28093SOL    HW294594  12.340   9.750   1.365 -3.2982  0.4811  0.3280
28094SOL     OW94595   2.133  10.566   7.411 -0.4273 -0.6044 -0.0471
28094SOL    HW194596   2.060  10.611   7.369  0.4986 -0.2687 -1.3807
28094SOL    HW294597   2.126  10.475   7.380 -0.2822 -0.5673 -0.1954
28095SOL     OW94598   4.122   2.160   6.418 -0.6699 -0.3442  0.5278
28095SOL    HW194599   4.032   2.192   6.412 -0.3028  0.7705  0.7455
28095SOL    HW294600   4.113   2.065   6.423 -1.7382 -0.4318 -1.6476
28096SOL     OW94601   4.516   1.438   4.679 -0.6119  0.3487  0.3340
28096SOL    HW194602   4.608   1.452   4.702 -0.4793 -1.3864  0.9826
28096SOL    HW294603   4.469   1.509   4.724  0.3956  1.3419 -0.1310
28097SOL     OW94604  11.569   9.226   0.680 -0.4023 -0.0870  0.2480
28097SOL    HW194605  11.642   9.181   0.724 -0.2649  0.5627  0.7028
28097SOL    HW294606  11.547   9.298   0.739 -1.5271 -0.3640  0.1921
28098SOL     OW94607  11.362   8.462   0.142 -0.1921  0.0715 -0.0545
28098SOL    HW194608  11.405   8.547   0.154  2.0336 -1.0305  0.3272
28098SOL    HW294609  11.432   8.403   0.114 -1.3475 -1.9590  1.0412
28099SOL     OW94610  10.756   6.233  10.442  0.0751 -0.0863  0.1775
28099SOL    HW194611  10.804   6.211  10.362 -1.6679 -1.7141 -0.5019
28099SOL    HW294612  10.668   6.253  10.413 -0.6212 -0.7792  1.6892
28100SOL     OW94613   8.328   1.324   4.675  0.1936 -0.0805  0.2251
28100SOL    HW194614   8.400   1.351   4.732  0.4860  0.7075 -0.4930
28100SOL    HW294615   8.321   1.229   4.688  1.7010 -0.2623 -0.0648
28101SOL     OW94616   3.048   4.666  12.083 -0.0655  0.2256 -0.0732
28101SOL    HW194617   3.065   4.705  12.169 -0.2357  0.6855 -0.2509
28101SOL    HW294618   3.113   4.705  12.025 -0.6229  0.7005 -0.3823
28102SOL     OW94619   1.365   4.842   5.560  0.2364  0.1016  0.3035
28102SOL    HW194620   1.413   4.824   5.479  2.1983 -0.4676  1.5095
28102SOL    HW294621   1.318   4.923   5.543  0.7155  0.0706 -1.3475
28103SOL     OW94622   5.374  12.968   9.401 -0.4130 -0.3113  0.1032
28103SOL    HW194623   5.347  13.034   9.465 -1.4914  0.0716 -0.7062
28103SOL    HW294624   5.298  12.957   9.344 -0.2233 -2.1849  0.1382
28104SOL     OW94625  10.099  11.776  11.047 -0.3352 -0.1540  0.2530
28104SOL    HW194626  10.040  11.733  10.986  1.2594 -0.4021 -1.2000
28104SOL    HW294627  10.106  11.866  11.015 -0.0116 -0.0955  0.4786
28105SOL     OW94628   5.392  12.165   7.528  0.0521 -0.1055 -0.4523
28105SOL    HW194629   5.347  12.248   7.510  0.5281  0.6740  1.6428
28105SOL    HW294630   5.321  12.103   7.546 -0.2768  0.3939  0.0226
28106SOL     OW94631   3.454   7.343   7.267  0.5774  0.6637 -0.1682
28106SOL    HW194632   3.509   7.361   7.191  1.0695 -0.2370 -0.0431
28106SOL    HW294633   3.497   7.269   7.310 -0.2570  0.5096  0.4193
28107SOL     OW94634  11.777   9.587   4.900  0.2924  0.3195  0.2010
28107SOL    HW194635  11.776   9.663   4.842 -0.8920  0.9955  1.0510
28107SOL    HW294636  11.770   9.512   4.842 -0.9402  0.9780 -0.5448
28108SOL     OW94637   1.917   1.291   8.793 -0.6169 -0.3206 -0.6327
28108SOL    HW194638   1.899   1.320   8.704 -2.2045 -1.2676 -0.6703
28108SOL    HW294639   1.884   1.201   8.795 -1.0209 -0.1598  1.0263
28109SOL     OW94640  12.978   4.252   1.911  0.4234  0.0095  0.0647
28109SOL    HW194641  12.994   4.230   1.819  1.8050 -2.5416  0.8034
28109SOL    HW294642  12.884   4.267   1.916  0.2366 -0.3190 -1.6695
28110SOL     OW94643   6.593   7.694   8.618 -0.1398  0.0143  0.2416
28110SOL    HW194644   6.648   7.702   8.696 -0.3316  1.2935  0.2673
28110SOL    HW294645   6.627   7.617   8.573  0.3159 -0.4303  1.3197
28111SOL     OW94646   8.203   7.804  11.030 -0.0578  0.3220 -0.4545
28111SOL    HW194647   8.136   7.851  10.980 -1.5453 -1.3627 -0.1479
28111SOL    HW294648   8.155   7.764  11.103  1.2845 -0.9137 -0.1960
28112SOL     OW94649   6.292   0.680   4.412 -0.1143 -0.7943  0.4523
28112SOL    HW194650   6.212   0.648   4.453 -1.1351 -1.0105 -1.5581
28112SOL    HW294651   6.262   0.747   4.351  1.1731 -1.2181 -0.7065
28113SOL     OW94652   3.764   7.064   8.463 -0.6376  0.0344  0.4493
28113SOL    HW194653   3.788   7.039   8.553  1.8112  0.4302 -0.0508
28113SOL    HW294654   3.699   7.133   8.475 -1.3569 -0.8280  1.8890
28114SOL     OW94655   8.459   9.129   6.831 -0.3294  0.0008 -0.0479
28114SOL    HW194656   8.466   9.062   6.899 -2.6345 -1.2218 -0.9096
28114SOL    HW294657   8.431   9.208   6.878  1.2744  0.1128  0.8102
28115SOL     OW94658   7.195   3.402   2.522 -0.1326  0.2325 -0.8590
28115SOL    HW194659   7.158   3.406   2.434  0.0461  1.8274 -0.8915
28115SOL    HW294660   7.288   3.423   2.510 -0.4828  2.4262 -0.1073
28116SOL     OW94661   6.689   0.448  10.023 -0.1488 -0.6482  0.5871
28116SOL    HW194662   6.642   0.366  10.036 -1.5338 -0.3547 -1.8714
28116SOL    HW294663   6.774   0.423   9.989 -1.0192 -1.1112 -1.3704
28117SOL     OW94664   9.070  10.118   2.296  0.7453  0.2169 -0.3290
28117SOL    HW194665   9.106  10.071   2.221  0.9244 -0.4316  0.1501
28117SOL    HW294666   9.145  10.138   2.351  0.4222 -1.0882  0.6438
28118SOL     OW94667   5.786  12.869   3.090 -0.4203  0.2995  0.1233
28118SOL    HW194668   5.847  12.936   3.058  2.0911 -1.9797 -0.2447
28118SOL    HW294669   5.749  12.831   3.011 -0.7206  0.2756  0.2747
28119SOL     OW94670   2.004   7.704  11.685 -0.2792 -0.6922  0.4461
28119SOL    HW194671   2.021   7.660  11.602  1.6626  0.8616 -0.0745
28119SOL    HW294672   2.070   7.775  11.688 -4.0929  3.2843  0.4083
28120SOL     OW94673   6.662   2.740   5.043 -0.7110 -0.0882  0.5666
28120SOL    HW194674   6.755   2.746   5.024 -1.1718  1.6466 -1.5722
28120SOL    HW294675   6.628   2.680   4.977 -1.4008  0.9950 -0.0981
28121SOL     OW94676   4.910   1.097   3.195 -0.2581 -0.2561  0.3380
28121SOL    HW194677   4.933   1.183   3.160 -1.9577 -0.1601 -0.6582
28121SOL    HW294678   4.851   1.116   3.267  0.1483 -0.5825  0.7642
28122SOL     OW94679  12.249   0.769   1.533  0.0011  0.3843 -0.5684
28122SOL    HW194680  12.339   0.782   1.562  0.1826  0.6856 -1.2628
28122SOL    HW294681  12.199   0.837   1.578  0.1773  0.4482 -0.4710
28123SOL     OW94682   3.150  11.145  12.810 -0.2574  0.1943  0.0059
28123SOL    HW194683   3.085  11.212  12.834 -0.0670  0.9686 -1.4712
28123SOL    HW294684   3.233  11.192  12.808  0.0369 -0.3279 -0.0463
28124SOL     OW94685   3.525   5.625   3.580 -0.0604 -0.1740  0.0922
28124SOL    HW194686   3.619   5.622   3.563  0.1890  0.2554  1.2606
28124SOL    HW294687   3.490   5.686   3.515  0.4361 -0.4805 -0.4671
28125SOL     OW94688   0.523   6.802   8.107 -0.6389  0.4765 -0.6608
28125SOL    HW194689   0.524   6.824   8.013 -1.8717  0.1230 -0.7691
28125SOL    HW294690   0.445   6.747   8.118  0.8342 -1.6151  0.1018
28126SOL     OW94691   1.730   5.809   0.051 -0.4125  0.5622  0.3503
28126SOL    HW194692   1.703   5.830  -0.039 -0.8585  0.1539  0.3848
28126SOL    HW294693   1.792   5.878   0.074 -0.1095  0.5405 -0.3575
28127SOL     OW94694  11.134   4.072   8.346 -0.2993 -0.2393 -0.0651
28127SOL    HW194695  11.117   4.071   8.252  0.0076  0.6944 -0.1411
28127SOL    HW294696  11.098   3.989   8.378 -1.6035  0.0077 -0.7984
28128SOL     OW94697  10.575  10.023   5.144 -0.2503 -0.0848  0.4681
28128SOL    HW194698  10.618   9.941   5.171  1.1894  0.2749 -0.6182
28128SOL    HW294699  10.617  10.091   5.197  0.2584  0.2218 -0.3088
28129SOL     OW94700  12.830   8.683   8.429  0.2156 -0.8342 -0.2935
28129SOL    HW194701  12.800   8.650   8.514 -0.2565 -0.6189 -0.3719
28129SOL    HW294702  12.878   8.763   8.450  1.9075 -1.8665 -0.0420
28130SOL     OW94703   4.346   2.572   4.702 -0.3998 -0.5539  0.1120
28130SOL    HW194704   4.287   2.504   4.670 -0.5377 -0.4971  0.2473
28130SOL    HW294705   4.409   2.526   4.757  1.3004 -1.0611 -2.0847
28131SOL     OW94706   6.833   8.296   5.519 -0.4953  0.2228 -0.0183
28131SOL    HW194707   6.798   8.386   5.517 -1.2423 -0.0753 -0.9435
28131SOL    HW294708   6.898   8.295   5.449 -1.4639 -0.3331 -0.9259
28132SOL     OW94709   4.515   8.546   3.020  0.0483  0.3296 -0.1309
28132SOL    HW194710   4.522   8.543   2.925  0.4351  1.1620 -0.1398
28132SOL    HW294711   4.605   8.547   3.051 -0.0578 -1.2125  0.3186
28133SOL     OW94712  11.536   9.809   5.173 -0.5348 -0.2207 -0.5118
28133SOL    HW194713  11.629   9.821   5.191 -0.6140  1.0203 -0.8308
28133SOL    HW294714  11.503   9.758   5.247 -0.1433  1.7574  1.1220
28134SOL     OW94715   9.569  11.332   3.279  0.2771 -0.5455  0.4875
28134SOL    HW194716   9.542  11.274   3.350  0.6119 -0.2410  0.8682
28134SOL    HW294717   9.635  11.283   3.231  0.0969 -0.7286  0.4296
28135SOL     OW94718   7.474   9.656   4.892  0.2199  0.1244 -0.2671
28135SOL    HW194719   7.536   9.587   4.866 -0.7530 -0.1969 -1.8848
28135SOL    HW294720   7.477   9.655   4.988  3.6305  1.0084 -0.2276
28136SOL     OW94721   3.815  11.456   7.191  0.4050 -0.0109 -0.1632
28136SOL    HW194722   3.823  11.531   7.250 -0.1680  0.4991 -0.7167
28136SOL    HW294723   3.856  11.384   7.238 -2.4279 -0.3268  2.0525
28137SOL     OW94724  12.898   7.201   5.256  0.0201 -0.6017 -0.0201
28137SOL    HW194725  12.866   7.246   5.177 -0.6590 -0.2479  0.4413
28137SOL    HW294726  12.935   7.119   5.224  0.3125 -0.1840 -0.7727
28138SOL     OW94727   4.734   1.445   3.424  0.6055  0.3436  0.5560
28138SOL    HW194728   4.704   1.359   3.453 -0.0537  0.4216  0.1307
28138SOL    HW294729   4.679   1.465   3.348  1.7867  0.4755 -0.2804
28139SOL     OW94730   0.004  12.798   4.713 -0.3859  0.4429  0.5528
28139SOL    HW194731  -0.045  12.827   4.636 -0.4857  2.6571  1.3683
28139SOL    HW294732   0.007  12.875   4.770  2.0023 -0.2965  1.5783
28140SOL     OW94733  10.588   7.002   0.198 -0.4379 -0.3092 -0.2346
28140SOL    HW194734  10.599   7.082   0.146 -1.4288 -1.6514 -2.7188
28140SOL    HW294735  10.643   7.015   0.275 -0.2489  2.5640 -0.7388
28141SOL     OW94736  12.709   4.216   4.228  0.8170 -0.0537 -0.1978
28141SOL    HW194737  12.707   4.306   4.261 -0.3118 -0.0707 -0.1670
28141SOL    HW294738  12.798   4.204   4.196  0.9216  1.1499 -0.4127
28142SOL     OW94739   4.272   4.712   2.333  0.2026  0.1133  0.2067
28142SOL    HW194740   4.231   4.739   2.250  0.3030 -0.7558 -0.1341
28142SOL    HW294741   4.305   4.793   2.371 -0.2241  0.5797 -0.4007
28143SOL     OW94742   9.359   0.140   2.687 -0.2984  0.0154 -0.2339
28143SOL    HW194743   9.320   0.058   2.717 -1.5497  0.3071 -1.0018
28143SOL    HW294744   9.312   0.208   2.734 -0.9097  0.3829 -1.3365
28144SOL     OW94745   4.274   5.214   8.537 -0.1610 -0.5207 -0.7103
28144SOL    HW194746   4.277   5.309   8.526  0.5520 -0.5241 -0.5572
28144SOL    HW294747   4.365   5.188   8.549 -0.4502 -1.0865  0.3893
28145SOL     OW94748   5.352   1.203   4.984 -0.7143  0.4715 -0.0969
28145SOL    HW194749   5.288   1.165   5.044 -0.1375 -0.1650  0.1289
28145SOL    HW294750   5.429   1.222   5.039 -0.5377  0.8011 -0.4505
28146SOL     OW94751   5.665   0.927   6.498 -0.0103  0.3516 -0.0763
28146SOL    HW194752   5.732   0.863   6.521 -1.1440 -1.1600 -0.8623
28146SOL    HW294753   5.646   0.912   6.406 -1.6296  0.5401  0.1890
28147SOL     OW94754   0.952   3.223  10.496  0.3166 -0.5781  0.1553
28147SOL    HW194755   0.938   3.315  10.521 -0.8650 -1.0098  1.2185
28147SOL    HW294756   1.041   3.203  10.527  1.0408  0.5007 -1.1165
28148SOL     OW94757  11.355   9.851   9.725  0.1174  0.0944  0.3780
28148SOL    HW194758  11.272   9.805   9.742  0.9647 -1.3747  0.7410
28148SOL    HW294759  11.414   9.782   9.695  0.9110  1.3228 -0.9420
28149SOL     OW94760  12.852   5.553   3.381 -0.0881 -0.4838 -0.4865
28149SOL    HW194761  12.805   5.534   3.462 -1.5194  0.8962 -0.9222
28149SOL    HW294762  12.944   5.544   3.403 -0.4799 -0.8827  1.0784
28150SOL     OW94763   9.255   4.277   8.350  0.0112  0.2237  0.6373
28150SOL    HW194764   9.217   4.208   8.405 -1.7319  2.2565  2.1618
28150SOL    HW294765   9.182   4.308   8.296  0.5213  1.4436  0.6095
28151SOL     OW94766  11.936   7.420   3.348 -0.1881 -0.2028 -0.2156
28151SOL    HW194767  11.864   7.432   3.411 -1.4778  0.0979 -1.6726
28151SOL    HW294768  12.012   7.401   3.402 -1.8300 -3.1074  1.3527
28152SOL     OW94769  11.370   5.511   7.209 -0.1302  0.3607  0.6231
28152SOL    HW194770  11.452   5.476   7.174 -0.4608 -0.7193  0.9002
28152SOL    HW294771  11.310   5.509   7.135  0.4846  2.6450 -0.0278
28153SOL     OW94772   3.578   6.174   0.654  0.0783 -0.1444  0.2076
28153SOL    HW194773   3.540   6.190   0.567  1.7043 -1.2408 -0.7655
28153SOL    HW294774   3.565   6.081   0.670  1.5783 -0.3922  0.1814
28154SOL     OW94775   6.621   0.784   7.021  0.3220 -0.2425 -0.5994
28154SOL    HW194776   6.655   0.784   6.931 -1.6727  1.2963 -1.4236
28154SOL    HW294777   6.680   0.725   7.068  1.4202 -1.1314 -2.9002
28155SOL     OW94778   3.198  10.936   2.740 -0.0549 -0.4159 -0.0745
28155SOL    HW194779   3.195  10.986   2.822  2.0130 -0.0848 -0.1583
28155SOL    HW294780   3.154  10.854   2.761 -0.4960  0.0784  1.0518
28156SOL     OW94781   1.164   4.142   1.991  0.6763  0.1301 -0.5317
28156SOL    HW194782   1.134   4.232   2.005 -1.6334 -0.3338 -1.9199
28156SOL    HW294783   1.121   4.116   1.909 -0.0183 -2.7611  0.6417
28157SOL     OW94784   2.391   0.643   5.567 -0.3034  0.3723 -0.2485
28157SOL    HW194785   2.474   0.690   5.571  0.0756 -0.3520  0.5191
28157SOL    HW294786   2.408   0.560   5.610 -0.9158 -0.5569 -1.7353
28158SOL     OW94787   0.217   4.709   0.534  0.3507 -0.4078  0.3990
28158SOL    HW194788   0.228   4.776   0.600  0.1483 -0.4221  0.4482
28158SOL    HW294789   0.220   4.626   0.582  3.4937 -0.6340  0.0362
28159SOL     OW94790   0.229   9.595  12.183 -0.6166 -0.3444  0.2465
28159SOL    HW194791   0.274   9.512  12.199  1.0593  0.4794  0.1075
28159SOL    HW294792   0.264   9.654  12.251 -0.6762  0.6136 -0.5314
28160SOL     OW94793   4.879  10.535   6.975  0.1519 -0.3966  0.0794
28160SOL    HW194794   4.891  10.629   6.962 -0.9937  0.0083  1.6396
28160SOL    HW294795   4.963  10.504   7.007  0.9130 -0.1738 -1.5840
28161SOL     OW94796   0.362   7.458   1.278 -0.4066 -0.4951 -0.4412
28161SOL    HW194797   0.337   7.384   1.334 -0.3861  0.0116  0.2549
28161SOL    HW294798   0.319   7.441   1.195  0.6894 -1.9998 -0.7569
28162SOL     OW94799  10.987   9.702   6.967  0.0973 -0.5954  0.0509
28162SOL    HW194800  11.009   9.613   6.939  1.2456 -0.1260 -0.6338
28162SOL    HW294801  11.072   9.747   6.972 -0.4397  0.3972  0.6290
28163SOL     OW94802   6.616   9.567   1.661  0.2918  0.7474 -0.4334
28163SOL    HW194803   6.550   9.566   1.592  0.8691  1.9598 -1.0328
28163SOL    HW294804   6.678   9.635   1.634  1.2817  0.2865  0.5837
28164SOL     OW94805  10.144   1.678   1.445  0.0983  0.6970  0.5305
28164SOL    HW194806  10.185   1.595   1.424  1.6573  1.5187  0.1362
28164SOL    HW294807  10.130   1.674   1.540 -1.2903 -0.5989  0.2993
28165SOL     OW94808   0.076  12.958  12.533  0.3350  0.2891 -0.2704
28165SOL    HW194809   0.142  12.920  12.590  0.1205  0.5887  0.1814
28165SOL    HW294810   0.111  12.945  12.445 -0.0941 -1.6615 -0.2018
28166SOL     OW94811   8.850  10.872   6.682  0.0172 -0.0345  0.8426
28166SOL    HW194812   8.842  10.918   6.766  1.1704  0.8887  0.4867
28166SOL    HW294813   8.762  10.875   6.645 -0.1152  1.2468  1.1917
28167SOL     OW94814   1.013   4.746   0.131 -0.5160  0.1103 -0.9461
28167SOL    HW194815   0.974   4.659   0.141  0.8371 -0.4641 -0.4903
28167SOL    HW294816   1.063   4.741   0.050 -0.7102  0.5777 -1.0958
28168SOL     OW94817  11.684   6.677   9.628 -0.0286 -0.0160 -0.0223
28168SOL    HW194818  11.615   6.740   9.608  1.8962  2.1360 -0.3175
28168SOL    HW294819  11.692   6.681   9.724 -1.2550 -1.3863  0.1648
28169SOL     OW94820  11.680   0.343  10.523 -0.0676  0.1045 -0.2493
28169SOL    HW194821  11.699   0.293  10.602 -0.5075 -0.5504 -0.5537
28169SOL    HW294822  11.639   0.280  10.463  1.4464  0.2305 -1.5094
28170SOL     OW94823   1.429   3.139  11.821 -0.2863  0.1693  0.1703
28170SOL    HW194824   1.445   3.228  11.791  0.4766 -0.2455 -0.7145
28170SOL    HW294825   1.501   3.088  11.784 -0.7742 -0.8381  0.5661
28171SOL     OW94826  12.527   7.765   3.898  0.1796  0.7972 -0.0324
28171SOL    HW194827  12.442   7.792   3.864  0.2335 -1.1386 -1.9288
28171SOL    HW294828  12.506   7.722   3.981 -1.0939 -1.6916 -1.5199
28172SOL     OW94829   5.164  11.365   7.670  0.2976 -0.0172 -0.2107
28172SOL    HW194830   5.179  11.307   7.744 -2.0515 -2.8616 -1.7924
28172SOL    HW294831   5.252  11.391   7.642  1.5092 -3.1805  0.3435
28173SOL     OW94832   2.714   7.000   8.988 -0.0537  0.3252  0.2533
28173SOL    HW194833   2.797   7.015   8.943 -0.6565 -0.8187 -1.3452
28173SOL    HW294834   2.686   7.086   9.018  2.8905  0.4503  3.1294
28174SOL     OW94835   9.021   6.330   3.876  0.3229  0.4695 -0.6387
28174SOL    HW194836   9.098   6.375   3.842  1.1636 -1.5808 -1.5696
28174SOL    HW294837   9.052   6.244   3.902 -1.5099 -0.1397 -0.3093
28175SOL     OW94838   6.934   2.718   5.013  0.3693 -0.8661  0.2955
28175SOL    HW194839   6.979   2.675   4.941  0.6950 -0.3006  0.1560
28175SOL    HW294840   6.997   2.782   5.046  0.4686 -1.5444  1.5012
28176SOL     OW94841   9.355   4.213   6.390  0.1059  0.2962 -0.0099
28176SOL    HW194842   9.342   4.307   6.381 -4.5203  0.0282  1.5284
28176SOL    HW294843   9.430   4.194   6.332  0.6240  4.6685 -1.1604
28177SOL     OW94844   9.325   5.955   2.851 -0.4387  0.2387  0.3515
28177SOL    HW194845   9.363   6.028   2.803 -0.5867  0.0541 -0.0519
28177SOL    HW294846   9.290   5.994   2.931  2.1357  0.1868  1.6165
28178SOL     OW94847  10.362  12.877  10.254 -0.2378  0.4889  0.7798
28178SOL    HW194848  10.426  12.948  10.257  0.1729  0.3685 -1.9926
28178SOL    HW294849  10.283  12.917  10.217  0.3381 -0.5768 -1.8644
28179SOL     OW94850   5.122  10.200   5.193 -0.3080 -0.0764  0.0447
28179SOL    HW194851   5.171  10.143   5.252  0.5658  0.5018 -0.1049
28179SOL    HW294852   5.172  10.282   5.192 -0.6308  0.1165 -1.0362
28180SOL     OW94853   9.673   1.672  12.461  0.2625  0.1764 -0.0574
28180SOL    HW194854   9.640   1.630  12.541  0.9561 -0.3076 -0.0206
28180SOL    HW294855   9.619   1.634  12.391  1.2849 -1.2929 -0.0999
28181SOL     OW94856  10.637   0.592   4.093 -0.5000  0.2952 -1.3870
28181SOL    HW194857  10.567   0.597   4.159  2.6588  0.6063  2.3389
28181SOL    HW294858  10.641   0.500   4.069 -0.3548 -0.2974  0.6871
28182SOL     OW94859   6.065   9.198  10.501 -0.1004  0.1719  0.1325
28182SOL    HW194860   6.019   9.280  10.520 -1.2811 -0.5527  0.4811
28182SOL    HW294861   6.098   9.168  10.586 -1.2574 -0.6270  0.3278
28183SOL     OW94862   1.851  10.461  12.005  0.4838 -0.3865 -0.0134
28183SOL    HW194863   1.902  10.533  11.967  0.4020  0.4464  1.3976
28183SOL    HW294864   1.917  10.400  12.037  0.6060  0.2682  1.0180
28184SOL     OW94865   0.218   0.079   8.841  0.3401  0.5027  0.0814
28184SOL    HW194866   0.281   0.050   8.775  1.1321  0.4507  0.8499
28184SOL    HW294867   0.192  -0.002   8.886  0.0596  0.5818  0.0628
28185SOL     OW94868   2.417   3.641   4.945 -0.5826 -0.1497  0.9683
28185SOL    HW194869   2.365   3.646   5.025 -0.7276  0.0917  0.8594
28185SOL    HW294870   2.396   3.721   4.897 -1.4001 -0.8479  0.1348
28186SOL     OW94871   6.292  10.252   0.361 -0.4439 -0.0052  0.0019
28186SOL    HW194872   6.288  10.195   0.438 -0.4360  0.5110  0.3904
28186SOL    HW294873   6.297  10.192   0.287  0.0529 -0.5048  0.4331
28187SOL     OW94874   4.730   1.342   5.045  0.1228  0.1235  0.3100
28187SOL    HW194875   4.719   1.284   4.969 -0.1518  1.6094 -0.8371
28187SOL    HW294876   4.641   1.364   5.072  0.1844  1.4658 -0.4691
28188SOL     OW94877   7.883   1.351   8.129 -0.5895  0.2087  0.1619
28188SOL    HW194878   7.802   1.345   8.178 -0.9580  0.5521 -0.3922
28188SOL    HW294879   7.949   1.312   8.186 -1.0862  0.2054  0.7392
28189SOL     OW94880   2.251  11.348   0.383 -0.3351  0.2352 -0.3796
28189SOL    HW194881   2.274  11.441   0.385 -1.6107  0.5557  1.3101
28189SOL    HW294882   2.168  11.344   0.335 -0.1593 -0.0792 -0.6655
28190SOL     OW94883   5.089   0.012   1.992 -0.0390 -0.1655  0.2134
28190SOL    HW194884   5.051   0.024   1.905  0.2475  0.3569  0.1595
28190SOL    HW294885   5.146  -0.063   1.984 -1.8983 -1.7032  0.5641
28191SOL     OW94886   8.502   7.693   1.184 -0.2432  0.3666 -0.1054
28191SOL    HW194887   8.487   7.624   1.120 -0.1566  1.1180 -0.9558
28191SOL    HW294888   8.511   7.773   1.132 -1.1341  1.1551  0.9080
28192SOL     OW94889   9.328   3.282   5.118 -0.1192 -0.1931  0.4039
28192SOL    HW194890   9.367   3.364   5.147  0.1802 -0.2482  0.1541
28192SOL    HW294891   9.234   3.293   5.135 -0.2211  0.6041 -0.5988
28193SOL     OW94892   5.022  10.856   5.594  0.0447 -0.0369 -0.2525
28193SOL    HW194893   5.018  10.781   5.534 -2.4357 -2.1418  2.2698
28193SOL    HW294894   5.071  10.823   5.670 -1.7518  0.5628  1.2273
28194SOL     OW94895   6.302   5.231   7.123  0.4262  0.1732 -0.1239
28194SOL    HW194896   6.392   5.216   7.150  0.5546 -0.9310 -1.1253
28194SOL    HW294897   6.249   5.185   7.189  0.6310 -0.1661 -0.1985
28195SOL     OW94898   8.869   9.749   9.490 -0.4081  0.8434  0.3207
28195SOL    HW194899   8.811   9.751   9.566 -1.8285 -2.3409 -0.5367
28195SOL    HW294900   8.829   9.809   9.427 -1.1340  0.8901  0.8223
28196SOL     OW94901   0.260   3.042   7.664  0.7324 -0.6214  0.4921
28196SOL    HW194902   0.309   2.963   7.643  1.3770 -0.2503  0.5667
28196SOL    HW294903   0.208   3.060   7.586  0.7238 -1.0186  0.4073
28197SOL     OW94904   2.643   4.048  12.501 -0.4091 -0.0382 -0.7210
28197SOL    HW194905   2.560   4.003  12.486  0.3986 -1.5021 -1.0184
28197SOL    HW294906   2.657   4.041  12.595 -0.8237  0.6100 -0.6032
28198SOL     OW94907   4.713   9.691   5.251  0.6042 -0.2519  0.0976
28198SOL    HW194908   4.801   9.671   5.284  0.5658  1.5598  1.4600
28198SOL    HW294909   4.655   9.631   5.298  0.9345 -0.1926  0.5829
28199SOL     OW94910   4.724  10.239   6.791 -0.1184 -0.1124  0.9730
28199SOL    HW194911   4.802  10.286   6.761 -0.0846 -0.4028  0.6035
28199SOL    HW294912   4.757  10.178   6.857  0.5799 -2.7550 -1.6117
28200SOL     OW94913   5.742   3.246   8.808  0.1295  0.1099 -0.2413
28200SOL    HW194914   5.740   3.330   8.762 -1.7154 -0.1701 -0.7598
28200SOL    HW294915   5.707   3.183   8.744  1.2124 -1.0305  0.2305
28201SOL     OW94916   3.028   4.932   3.807 -0.7928 -0.0030 -0.8653
28201SOL    HW194917   2.938   4.953   3.785 -0.9040  2.5941  1.5069
28201SOL    HW294918   3.081   4.996   3.759 -0.6147  1.4183  1.1071
28202SOL     OW94919   8.895   9.010   4.558 -0.0900 -0.2738  0.3371
28202SOL    HW194920   8.903   9.098   4.521 -3.8168 -0.5530 -1.6086
28202SOL    HW294921   8.938   8.953   4.495  1.8618  0.0327  1.3352
28203SOL     OW94922   2.321   7.378   5.016  0.3335 -0.3745 -0.2023
28203SOL    HW194923   2.249   7.412   5.069  0.3092 -0.4243 -0.2036
28203SOL    HW294924   2.281   7.311   4.961  0.6232 -1.3268  0.7153
28204SOL     OW94925   9.846   8.766   6.954  0.3648  0.2043  0.1521
28204SOL    HW194926   9.882   8.690   6.910  0.4140  0.4978 -0.3145
28204SOL    HW294927   9.869   8.840   6.899 -0.9704  0.3999 -0.1892
28205SOL     OW94928   5.809   0.417  11.948  0.2094 -0.5228 -0.2945
28205SOL    HW194929   5.868   0.387  12.017  1.3301 -0.6436 -1.2643
28205SOL    HW294930   5.820   0.512  11.945 -1.3042 -0.2726  0.9620
28206SOL     OW94931   3.537   8.378   7.358 -0.4943  0.4139  0.1138
28206SOL    HW194932   3.605   8.363   7.424  0.7098  1.4539 -0.8255
28206SOL    HW294933   3.556   8.466   7.324 -1.4503  0.1557 -1.1573
28207SOL     OW94934   2.303   4.997   6.613 -0.5800 -0.6974 -0.0926
28207SOL    HW194935   2.285   5.068   6.552 -0.6321 -1.3709 -0.8826
28207SOL    HW294936   2.289   4.917   6.561 -1.0166 -1.2874  0.9068
28208SOL     OW94937   8.750  10.853   3.907  0.7585 -0.8954 -0.6354
28208SOL    HW194938   8.808  10.799   3.854  0.9636  0.1470 -1.5070
28208SOL    HW294939   8.785  10.942   3.899  0.6560 -0.6583  1.0687
28209SOL     OW94940   7.387   2.044   1.333 -0.3190  0.1959 -0.2939
28209SOL    HW194941   7.378   2.139   1.327 -1.6179  0.0550 -1.0628
28209SOL    HW294942   7.310   2.010   1.287  0.7520 -1.2386 -1.1328
28210SOL     OW94943   1.604  10.781  12.232  0.1662 -0.4359  0.3003
28210SOL    HW194944   1.629  10.702  12.280 -0.1452 -0.4293  0.4791
28210SOL    HW294945   1.518  10.761  12.195  0.3383 -0.3839 -0.1325
28211SOL     OW94946   1.793   0.475   6.505 -0.4556  0.3769  0.0129
28211SOL    HW194947   1.713   0.528   6.502 -0.6325  0.0866 -0.6617
28211SOL    HW294948   1.778   0.413   6.576 -0.9917  0.0859 -0.3411
28212SOL     OW94949   1.993   6.618  12.529 -0.3256 -0.0704  0.4310
28212SOL    HW194950   1.953   6.539  12.564  0.5134 -0.5955  0.2247
28212SOL    HW294951   1.945   6.690  12.571  0.0692 -0.6789  1.9719
28213SOL     OW94952   1.103  12.227   3.609  0.5638 -0.8587 -0.6002
28213SOL    HW194953   1.045  12.151   3.610  0.4919 -0.8016  0.4882
28213SOL    HW294954   1.044  12.302   3.612  0.6773 -0.7868 -0.2118
28214SOL     OW94955   8.994   3.634   1.216  0.6618 -0.5501  0.2878
28214SOL    HW194956   8.951   3.602   1.295  1.3784  1.0097  1.3714
28214SOL    HW294957   9.054   3.702   1.247 -0.1017  1.1727 -1.7357
28215SOL     OW94958   0.158   8.718   0.678 -0.0387 -0.0392 -0.3034
28215SOL    HW194959   0.100   8.788   0.707  0.1120  0.8117 -1.9351
28215SOL    HW294960   0.185   8.674   0.759 -2.2207  0.0950  0.5481
28216SOL     OW94961   7.290   5.521   6.889 -0.1837 -0.4187 -0.0280
28216SOL    HW194962   7.238   5.596   6.858  0.6726  0.7268  1.1978
28216SOL    HW294963   7.300   5.466   6.812 -1.8095  0.1409 -0.7015
28217SOL     OW94964   2.470  11.634   0.940  0.2348  0.7407  0.1987
28217SOL    HW194965   2.468  11.651   1.034 -1.6768  1.8480  0.0109
28217SOL    HW294966   2.537  11.693   0.906  2.3380 -1.0313  1.0363
28218SOL     OW94967   4.381   2.619   7.621  0.5942 -0.3899  0.4430
28218SOL    HW194968   4.416   2.620   7.532 -0.5201 -1.4864 -0.0471
28218SOL    HW294969   4.319   2.691   7.623  1.1071  0.0505  0.5456
28219SOL     OW94970   1.999   7.751   3.064  0.7052 -0.0655 -0.5938
28219SOL    HW194971   2.050   7.831   3.064 -0.9102  1.0249 -1.8825
28219SOL    HW294972   1.914   7.776   3.029 -1.0456 -1.6044  2.1399
28220SOL     OW94973   6.859   2.063   9.413 -0.3031 -0.2719  0.0701
28220SOL    HW194974   6.854   2.043   9.507 -0.6767 -2.5963 -0.3887
28220SOL    HW294975   6.768   2.076   9.387 -0.2169  0.1447 -0.0295
28221SOL     OW94976   5.251  12.060  12.646 -0.2323  0.1887 -0.8213
28221SOL    HW194977   5.261  12.140  12.595 -0.1773  0.0143 -1.0843
28221SOL    HW294978   5.159  12.036  12.634 -0.0038 -0.3532 -1.5903
28222SOL     OW94979   5.044   8.864   4.909 -0.1469 -0.1627  0.0861
28222SOL    HW194980   5.013   8.806   4.839 -0.1578  0.0905 -0.1189
28222SOL    HW294981   4.967   8.881   4.962 -0.6826  1.4786 -1.1263
28223SOL     OW94982   2.394   8.000   6.477  1.0502  0.1491  0.3869
28223SOL    HW194983   2.486   8.006   6.500  1.8430  0.2661 -2.3900
28223SOL    HW294984   2.357   8.085   6.500  1.7517  0.2927  1.0208
28224SOL     OW94985  12.425  10.491   3.903 -0.0901 -0.1385 -0.0300
28224SOL    HW194986  12.400  10.554   3.971 -0.0899 -1.2029  0.9901
28224SOL    HW294987  12.499  10.533   3.858 -0.7911  1.0527 -0.1087
28225SOL     OW94988   4.400   8.091   6.026 -0.2306  0.2873 -0.2953
28225SOL    HW194989   4.457   8.083   6.102 -0.3931 -0.5480 -0.2514
28225SOL    HW294990   4.317   8.052   6.054 -0.1298 -0.5123 -1.0626
28226SOL     OW94991  11.668   0.951   5.793  0.2947 -0.2830 -0.5128
28226SOL    HW194992  11.724   0.916   5.862  0.7406  1.3686  0.0026
28226SOL    HW294993  11.615   0.877   5.765 -1.8949 -0.4801  3.5126
28227SOL     OW94994  10.653   2.237   0.824 -0.0270 -0.0322  0.1430
28227SOL    HW194995  10.686   2.254   0.912 -0.5293  2.3022 -0.0474
28227SOL    HW294996  10.731   2.245   0.768  0.2189 -1.1194  0.3057
28228SOL     OW94997   0.272   6.405   0.732 -0.4909  0.2531  0.4972
28228SOL    HW194998   0.178   6.421   0.742 -0.0852  1.7091  2.6549
28228SOL    HW294999   0.283   6.313   0.758 -1.3528 -0.0695 -0.2289
28229SOL     OW95000  12.295   1.650   6.150  0.0678 -0.1061  0.4467
28229SOL    HW195001  12.363   1.621   6.090 -0.6623 -1.9728  0.4373
28229SOL    HW295002  12.330   1.729   6.191  1.8486 -0.5257 -0.1950
28230SOL     OW95003   0.075   0.858   1.254 -0.4511 -0.4829 -0.4491
28230SOL    HW195004   0.027   0.913   1.192 -2.7422 -2.0174 -0.1679
28230SOL    HW295005   0.055   0.896   1.339  3.1914  2.0002 -0.5000
28231SOL     OW95006   5.053   8.159  11.759 -0.0035  0.1160 -0.2498
28231SOL    HW195007   5.107   8.127  11.687 -1.1196 -0.5347 -0.8304
28231SOL    HW295008   4.977   8.198  11.716 -0.5110  0.0424  0.5586
28232SOL     OW95009  11.507   9.540   6.186 -0.1670  0.2125  0.7624
28232SOL    HW195010  11.599   9.557   6.206  0.5432 -1.3295 -0.9515
28232SOL    HW295011  11.472   9.625   6.160  0.5126  0.9926  2.2958
28233SOL     OW95012   7.597   0.085   0.062  0.1642  0.2187  0.1430
28233SOL    HW195013   7.511   0.060   0.094 -0.0883  1.0973  0.1773
28233SOL    HW295014   7.635   0.137   0.133  1.6837 -2.0752  1.1009
28234SOL     OW95015   4.677  11.834   6.942 -0.6186  0.4926 -0.0602
28234SOL    HW195016   4.698  11.881   6.862  2.2065 -0.6508 -0.1274
28234SOL    HW295017   4.667  11.743   6.914  0.0405  0.1370  0.8132
28235SOL     OW95018   8.196   1.820  10.995 -0.1880 -0.1687  0.0408
28235SOL    HW195019   8.135   1.824  10.922  1.8532 -1.0555 -1.8496
28235SOL    HW295020   8.194   1.908  11.033 -1.0057  0.4520 -1.3653
28236SOL     OW95021   6.763  11.467   4.899  0.9092 -0.5732 -0.1563
28236SOL    HW195022   6.791  11.482   4.809  1.6980  1.4945  0.3623
28236SOL    HW295023   6.710  11.388   4.895  0.0639  0.0274 -2.6120
28237SOL     OW95024  10.539   8.799   5.857  0.1465  0.1748 -0.0485
28237SOL    HW195025  10.532   8.788   5.762  0.1371 -0.6356  0.0381
28237SOL    HW295026  10.555   8.892   5.869  1.9119  0.0259 -0.9596
28238SOL     OW95027   3.323  10.576   8.481 -0.4913 -0.6663 -1.5434
28238SOL    HW195028   3.372  10.522   8.420 -0.7018 -0.8367 -1.5636
28238SOL    HW295029   3.381  10.586   8.556  0.2339  0.4968 -2.2290
28239SOL     OW95030   7.168  12.631   1.107  0.8777 -0.3798  0.3141
28239SOL    HW195031   7.142  12.605   1.195 -0.2354 -0.6166 -0.0766
28239SOL    HW295032   7.093  12.677   1.071  2.0408  1.5462  0.1931
28240SOL     OW95033   8.090  10.096   2.400  0.7984 -0.0225 -0.2510
28240SOL    HW195034   8.079  10.094   2.495 -1.3123  1.9553 -0.3634
28240SOL    HW295035   8.172  10.048   2.384  1.3750 -0.1437  2.5580
28241SOL     OW95036   8.582   9.574   8.231  0.1885  0.2375 -0.6575
28241SOL    HW195037   8.548   9.485   8.230 -0.7803  0.5778 -0.1697
28241SOL    HW295038   8.629   9.583   8.148  1.0190 -0.9775 -0.3431
28242SOL     OW95039   9.159   0.398   4.905 -0.3337  0.1617 -0.1168
28242SOL    HW195040   9.159   0.362   4.817 -1.6628 -0.2837  0.0440
28242SOL    HW295041   9.071   0.380   4.939  0.4006 -0.4569  1.6059
28243SOL     OW95042   3.030   6.334  12.822  0.1356 -0.1853  0.0752
28243SOL    HW195043   3.088   6.266  12.789  2.4325  2.6381 -2.2823
28243SOL    HW295044   2.995   6.377  12.743 -0.7928  1.6738  1.4092
28244SOL     OW95045   3.171   1.651   0.625 -0.4048 -0.1151 -0.1749
28244SOL    HW195046   3.232   1.578   0.615 -0.9847 -0.7895  1.0850
28244SOL    HW295047   3.095   1.614   0.669 -0.5908  1.3103  0.7762
28245SOL     OW95048  11.915   6.537  11.476  0.1383 -0.6699  0.0941
28245SOL    HW195049  11.911   6.602  11.546  1.9335 -0.7532  0.3120
28245SOL    HW295050  11.841   6.559  11.419 -0.4654  0.3173  1.2166
28246SOL     OW95051   3.999  11.567   6.171 -0.2734 -0.3482 -0.1444
28246SOL    HW195052   4.072  11.508   6.151 -0.4702 -0.4119 -0.7042
28246SOL    HW295053   3.923  11.509   6.181 -0.1352 -0.3339  1.0384
28247SOL     OW95054   1.498   7.068   3.861  0.4446  0.0936  0.4909
28247SOL    HW195055   1.522   7.100   3.948 -0.4971  0.1221  0.7540
28247SOL    HW295056   1.461   6.981   3.877  3.0060 -1.2191 -0.2262
28248SOL     OW95057   2.399   6.427  10.191  0.2248 -0.2989  0.4993
28248SOL    HW195058   2.410   6.454  10.282 -0.8370  0.7317  0.3470
28248SOL    HW295059   2.341   6.493  10.153  3.4178  1.4228 -1.9026
28249SOL     OW95060  11.023   3.733   3.602 -0.2778  0.1264  0.4591
28249SOL    HW195061  11.069   3.763   3.524  0.3493  1.0380  1.1558
28249SOL    HW295062  11.070   3.774   3.675 -0.2869 -1.4275  1.3800
28250SOL     OW95063  11.135   4.238  10.229  0.3462  0.1542 -0.2358
28250SOL    HW195064  11.057   4.219  10.282 -0.2733  1.2374 -0.7210
28250SOL    HW295065  11.149   4.157  10.179 -0.6574  0.0406 -0.3612
28251SOL     OW95066   3.801   7.190   7.354 -0.2960 -0.1990 -0.1137
28251SOL    HW195067   3.836   7.116   7.403  1.7256 -0.3033 -1.5744
28251SOL    HW295068   3.771   7.251   7.421  1.1230 -0.9007  1.2137
28252SOL     OW95069  12.687   6.328   4.059 -0.0260  0.9498  0.3507
28252SOL    HW195070  12.778   6.306   4.078 -0.8376 -1.2288  2.1250
28252SOL    HW295071  12.685   6.339   3.964  1.9944  0.5315  0.2106
28253SOL     OW95072   3.051  12.103   3.693  0.2426 -0.2541 -0.1752
28253SOL    HW195073   3.121  12.105   3.758  1.6899 -0.2160 -1.6922
28253SOL    HW295074   3.007  12.187   3.702  0.3892 -0.2660  0.7597
28254SOL     OW95075   4.138   7.486   9.405  0.7172  0.3340 -0.1546
28254SOL    HW195076   4.199   7.438   9.350  0.2352 -1.0124  0.4560
28254SOL    HW295077   4.114   7.425   9.474 -0.8776  1.0239 -0.0535
28255SOL     OW95078   8.986  12.302   4.682  0.1088  0.3068  0.3530
28255SOL    HW195079   8.904  12.260   4.706  0.7113 -0.2587  1.4710
28255SOL    HW295080   8.969  12.396   4.692 -0.5895  0.2268 -0.0562
28256SOL     OW95081   3.775   8.697   7.430 -0.2431 -0.1684  0.2879
28256SOL    HW195082   3.866   8.671   7.446 -0.1301 -0.2060 -0.3730
28256SOL    HW295083   3.735   8.700   7.517  0.1191 -1.1704  0.5069
28257SOL     OW95084   9.857   4.129   1.385  0.0443  0.5318  0.0703
28257SOL    HW195085   9.867   4.130   1.480 -1.3047  0.7725  0.2342
28257SOL    HW295086   9.905   4.052   1.356 -0.5175 -0.2120  1.0741
28258SOL     OW95087   4.483   5.215   1.653 -0.2785  0.3466 -0.0366
28258SOL    HW195088   4.511   5.306   1.660 -1.1687  0.9360 -2.8859
28258SOL    HW295089   4.520   5.184   1.571 -0.2986 -1.7918  0.6945
28259SOL     OW95090   1.688   9.700   3.810 -0.0607 -0.1048 -0.0713
28259SOL    HW195091   1.657   9.768   3.871  0.4885  1.1386 -1.1272
28259SOL    HW295092   1.615   9.686   3.750 -0.5746 -1.2766  0.7979
28260SOL     OW95093   0.522   5.341  12.367 -0.0724 -0.1320 -0.5026
28260SOL    HW195094   0.566   5.410  12.417 -0.2497 -0.5587  0.2588
28260SOL    HW295095   0.573   5.262  12.385 -0.7703 -0.5039 -0.1187
28261SOL     OW95096   5.383   2.036   9.946  0.2455  0.2473  0.4765
28261SOL    HW195097   5.288   2.028   9.941  0.2774 -0.2711  0.6476
28261SOL    HW295098   5.407   1.985  10.023  0.6009  0.9133  0.8164
28262SOL     OW95099  12.004   7.801   7.050 -0.0594 -0.1044 -0.3081
28262SOL    HW195100  11.946   7.764   6.984 -0.1297  0.8408 -0.7974
28262SOL    HW295101  12.090   7.802   7.008 -0.1868  0.9155 -0.5682
28263SOL     OW95102   9.724   9.755   2.327  0.0021  0.4591 -0.1467
28263SOL    HW195103   9.700   9.846   2.341  0.8162  0.7411 -0.5375
28263SOL    HW295104   9.811   9.758   2.288  0.2594 -0.5026  0.3146
28264SOL     OW95105   9.534   3.420   2.185 -0.2591 -0.0442 -0.5935
28264SOL    HW195106   9.568   3.506   2.208  1.7944 -1.0433  0.4944
28264SOL    HW295107   9.493   3.431   2.099  1.5811  1.6480 -1.3169
28265SOL     OW95108  11.117  11.553  11.203 -0.2016  0.5447  0.7514
28265SOL    HW195109  11.095  11.522  11.114 -0.7831  1.0739  0.7003
28265SOL    HW295110  11.118  11.473  11.256  2.3803 -0.0881 -0.1270
28266SOL     OW95111   1.551   1.748   8.735 -0.5316 -1.1080  0.1856
28266SOL    HW195112   1.590   1.820   8.686  0.6094 -0.1197  2.3768
28266SOL    HW295113   1.474   1.787   8.778 -0.3640 -1.4090  0.7641
28267SOL     OW95114   5.936   1.922   0.205 -0.3021 -0.1245  0.1049
28267SOL    HW195115   5.937   1.921   0.109 -1.8126  0.4375  0.0519
28267SOL    HW295116   5.963   1.834   0.230  1.4180  0.0975 -0.7770
28268SOL     OW95117   4.655   0.727  12.920  0.6310 -0.1729  0.2044
28268SOL    HW195118   4.647   0.822  12.923 -3.4694 -0.2825 -1.2122
28268SOL    HW295119   4.722   0.710  12.854 -0.9190  1.8129 -2.0145
28269SOL     OW95120   9.162   4.911   3.273 -0.0752 -0.0091 -0.2158
28269SOL    HW195121   9.193   4.844   3.212 -3.5539 -1.6120 -0.4667
28269SOL    HW295122   9.126   4.980   3.218  1.2575  0.9408  0.0647
28270SOL     OW95123   2.086   9.390   8.816 -0.3173 -0.4848  0.1687
28270SOL    HW195124   2.080   9.405   8.910 -0.5271  3.0576 -0.3001
28270SOL    HW295125   2.024   9.318   8.800 -0.6965 -0.7930  2.6266
28271SOL     OW95126   6.861   6.437   8.994  0.9842 -0.0443 -0.7539
28271SOL    HW195127   6.936   6.452   9.051  1.0847 -2.0392 -0.2902
28271SOL    HW295128   6.796   6.394   9.050 -0.2035  0.8878 -1.3577
28272SOL     OW95129   2.601   7.846  12.046 -0.3106  0.0595 -0.4749
28272SOL    HW195130   2.650   7.780  12.095  0.0210 -1.0188 -2.1666
28272SOL    HW295131   2.545   7.795  11.987  1.4722  1.1793 -3.3455
28273SOL     OW95132   0.183   9.939   9.610  0.1282  0.4542  0.1917
28273SOL    HW195133   0.232   9.897   9.540 -1.1835  1.2571 -1.2673
28273SOL    HW295134   0.097   9.896   9.609  0.0472  0.5768  1.2051
28274SOL     OW95135  10.632   7.204  12.510  0.0739 -0.0948  0.5510
28274SOL    HW195136  10.625   7.265  12.584 -1.6891  1.0896 -0.5339
28274SOL    HW295137  10.723   7.173  12.514  0.7992  1.9434  1.6553
28275SOL     OW95138   0.551   6.953  12.380  0.5471 -0.2155 -0.5021
28275SOL    HW195139   0.466   6.928  12.414  0.7919 -0.1691  0.1537
28275SOL    HW295140   0.595   6.869  12.362  0.5771 -0.2418 -0.3053
28276SOL     OW95141  12.313  10.931   7.845 -0.4224  0.3020  0.6460
28276SOL    HW195142  12.368  10.999   7.805 -1.0512  0.6909  0.4298
28276SOL    HW295143  12.224  10.952   7.816 -0.4374 -1.6511 -0.9415
28277SOL     OW95144   0.075   9.273   9.989 -0.8780 -0.2729  0.5707
28277SOL    HW195145   0.128   9.335  10.038 -0.8973  3.1149 -3.2089
28277SOL    HW295146   0.138   9.207   9.958 -0.3941 -0.7812  2.5018
28278SOL     OW95147  12.202   6.515   5.288  0.7003 -0.1390 -0.0365
28278SOL    HW195148  12.269   6.555   5.344  0.4690  0.4724 -0.1833
28278SOL    HW295149  12.127   6.573   5.296  0.2743 -0.6793 -0.0808
28279SOL     OW95150   5.374   1.267   6.545  0.1312  0.1494  0.1007
28279SOL    HW195151   5.417   1.346   6.515 -0.3627  0.2124 -0.4446
28279SOL    HW295152   5.350   1.220   6.465 -1.2711  0.3655  0.3715
28280SOL     OW95153  10.907   7.089   7.895  0.2831  0.0476 -0.3953
28280SOL    HW195154  10.955   7.053   7.969 -1.1067  0.3381  0.6943
28280SOL    HW295155  10.965   7.157   7.859  0.9908 -0.1238  0.4012
28281SOL     OW95156   2.432   0.472   9.497 -0.3282 -0.2489  0.2607
28281SOL    HW195157   2.359   0.434   9.449 -1.3699  0.7390  1.0193
28281SOL    HW295158   2.437   0.562   9.465 -0.8785  0.3504  1.8010
28282SOL     OW95159   1.319   6.705   1.807 -0.1346 -0.6265 -0.0049
28282SOL    HW195160   1.375   6.676   1.734  2.6990 -1.8435  2.4563
28282SOL    HW295161   1.368   6.777   1.847 -1.8115  0.2396  0.5492
28283SOL     OW95162   9.241  11.396   2.465 -0.1729 -0.3482  0.7939
28283SOL    HW195163   9.229  11.421   2.373  1.5070 -1.0988  0.3353
28283SOL    HW295164   9.180  11.323   2.478 -0.3479 -0.3006  0.2493
28284SOL     OW95165   9.751  11.188   3.504 -0.2530  0.3500  0.4146
28284SOL    HW195166   9.761  11.264   3.560  0.0083 -0.2954  1.2671
28284SOL    HW295167   9.657  11.171   3.503 -0.2290  0.1916  0.8949
28285SOL     OW95168   2.174  10.136  10.474  0.3865 -0.2851  0.7978
28285SOL    HW195169   2.111  10.207  10.484  2.2973  1.9733 -1.7567
28285SOL    HW295170   2.135  10.076  10.410  0.1828  0.2928  0.3784
28286SOL     OW95171   3.441   5.464   4.829 -0.0301  0.0900 -0.4611
28286SOL    HW195172   3.495   5.435   4.756 -0.3159 -0.6374 -0.3955
28286SOL    HW295173   3.497   5.453   4.906  0.6889  1.9650 -0.6622
28287SOL     OW95174   3.024   3.465  11.810  0.1083 -0.3501  0.0542
28287SOL    HW195175   2.979   3.383  11.790  3.0142 -2.2265  0.5121
28287SOL    HW295176   3.084   3.442  11.881  1.7218  1.9361 -0.4548
28288SOL     OW95177  11.830   0.014   6.682  0.2299 -0.2160  0.0270
28288SOL    HW195178  11.811  -0.046   6.610  0.8074 -0.8398  0.3695
28288SOL    HW295179  11.760   0.079   6.679 -0.1845 -0.6763 -0.6140
28289SOL     OW95180   0.043   0.050  10.725 -0.3508 -0.2345 -0.0343
28289SOL    HW195181   0.034  -0.031  10.675  0.0683 -0.5081  0.3332
28289SOL    HW295182   0.093   0.108  10.667  0.6955 -0.7710  0.3064
28290SOL     OW95183  12.517   8.407  10.684  0.0586  0.4825 -0.4084
28290SOL    HW195184  12.445   8.465  10.660  0.4248  1.7097  1.2794
28290SOL    HW295185  12.475   8.322  10.697 -0.6762  0.6053 -1.8120
28291SOL     OW95186   1.934   9.837  11.317  0.2998 -0.4746  0.4015
28291SOL    HW195187   1.905   9.750  11.344  0.7638 -0.4729  0.9085
28291SOL    HW295188   1.975   9.874  11.394  0.3572  0.0876  0.1055
28292SOL     OW95189   9.123   3.255   1.019  0.2979 -0.0041 -0.1298
28292SOL    HW195190   9.058   3.237   1.086  0.8392 -0.0139  0.3994
28292SOL    HW295191   9.129   3.351   1.017  0.3591 -0.0071 -0.0889
28293SOL     OW95192   2.648   3.905   5.382  0.1686 -0.1432 -0.2054
28293SOL    HW195193   2.698   3.987   5.376 -1.6091  1.0425  0.4712
28293SOL    HW295194   2.590   3.906   5.306  0.3260 -0.9245 -0.3437
28294SOL     OW95195   8.025  11.641  11.574 -0.3737  0.0041 -0.3657
28294SOL    HW195196   8.000  11.549  11.585 -0.2886 -0.0740 -0.8175
28294SOL    HW295197   8.103  11.651  11.630 -1.6446  0.3712  1.4312
28295SOL     OW95198   9.579   6.771   6.591  0.0506  0.0893 -0.1265
28295SOL    HW195199   9.609   6.695   6.640 -3.8988 -0.8611  1.1876
28295SOL    HW295200   9.554   6.737   6.506 -0.8938  0.0228  0.1608
28296SOL     OW95201   5.296   6.960   3.322 -0.1709  0.2221  0.0185
28296SOL    HW195202   5.382   6.943   3.361  0.5977  2.1463 -0.7289
28296SOL    HW295203   5.275   6.880   3.274  0.2344 -1.0522  1.8424
28297SOL     OW95204   7.598   7.673   5.831  0.3545  0.5895  0.8892
28297SOL    HW195205   7.561   7.647   5.915 -0.9224 -0.8614 -0.0618
28297SOL    HW295206   7.625   7.590   5.790 -1.0411  0.9936 -1.0040
28298SOL     OW95207  12.774   0.757   9.488 -0.1184  0.2416  0.0035
28298SOL    HW195208  12.825   0.832   9.518 -1.3613  0.7159  0.9912
28298SOL    HW295209  12.703   0.795   9.437  0.7168 -0.4379 -1.7787
28299SOL     OW95210   5.843   8.977   3.377 -0.4363 -0.1611 -0.0686
28299SOL    HW195211   5.760   8.957   3.421 -0.6343 -0.1233 -0.4242
28299SOL    HW295212   5.817   9.021   3.296 -0.0149  2.7571  1.2389
28300SOL     OW95213   8.897   0.759   2.415  0.2606 -0.0510  0.0329
28300SOL    HW195214   8.984   0.725   2.395  0.1362 -0.3274 -0.0496
28300SOL    HW295215   8.852   0.761   2.331  0.6636  1.5015 -0.1772
28301SOL     OW95216   5.228   1.607   5.486  0.5098 -0.4644 -0.2388
28301SOL    HW195217   5.187   1.528   5.449 -0.8481  0.0199  0.1623
28301SOL    HW295218   5.256   1.580   5.573  0.1636 -0.5470 -0.1494
28302SOL     OW95219   5.029   9.450   1.788 -0.4574 -0.3736  0.5847
28302SOL    HW195220   5.103   9.396   1.759  0.7716  0.2875  2.3120
28302SOL    HW295221   4.977   9.465   1.709  0.9552 -1.3244 -0.5695
28303SOL     OW95222  12.777   9.308   6.909  0.4667  1.2218  0.2189
28303SOL    HW195223  12.835   9.373   6.947  0.9613  0.3707  0.9417
28303SOL    HW295224  12.835   9.240   6.876 -0.0249  1.2852 -0.8366
28304SOL     OW95225   1.290   3.470   9.353 -0.0569 -0.3605 -0.7509
28304SOL    HW195226   1.372   3.516   9.370  0.2242 -0.6731 -1.2431
28304SOL    HW295227   1.314   3.398   9.295 -0.9544  0.6430 -2.4465
28305SOL     OW95228   2.675   9.428  10.477 -0.4581 -0.1446 -0.6310
28305SOL    HW195229   2.737   9.357  10.458  0.2182  0.3127 -0.1808
28305SOL    HW295230   2.688   9.491  10.406  0.1590  0.3102 -0.1320
28306SOL     OW95231   7.755   5.022   7.847 -0.1803  0.0442  0.4309
28306SOL    HW195232   7.698   4.946   7.856  0.7288 -0.8367 -0.8752
28306SOL    HW295233   7.844   4.985   7.847  0.2767  1.0953 -0.2663
28307SOL     OW95234   1.517   5.986   2.362  0.5276  0.4620  0.3112
28307SOL    HW195235   1.478   5.963   2.277  1.3092 -0.6255  0.2151
28307SOL    HW295236   1.488   5.916   2.420  1.4777  0.2009  0.4834
28308SOL     OW95237   5.082   2.671  12.095 -0.6647 -0.1545 -0.3950
28308SOL    HW195238   5.086   2.592  12.149 -1.4224  0.1305  0.0968
28308SOL    HW295239   5.028   2.646  12.020  0.3672 -0.5431 -1.0285
28309SOL     OW95240  12.599   1.988   7.351  0.0147 -0.3183 -0.5046
28309SOL    HW195241  12.615   2.071   7.395  0.9122 -0.1974 -1.0180
28309SOL    HW295242  12.567   1.929   7.419 -1.5990  0.7178 -0.3312
28310SOL     OW95243   1.721   0.587   5.121 -0.1983  0.6672  0.3034
28310SOL    HW195244   1.770   0.512   5.090  0.3412  1.3546 -0.5738
28310SOL    HW295245   1.714   0.575   5.216  1.3312  0.3636  0.3991
28311SOL     OW95246   2.944   5.811  10.505 -0.1877  0.1244  0.0028
28311SOL    HW195247   3.022   5.861  10.530  1.3077 -2.1708  0.2207
28311SOL    HW295248   2.913   5.773  10.588 -0.1799 -0.7849 -0.4030
28312SOL     OW95249  10.022   1.380   6.762 -0.0961 -0.2473  0.0967
28312SOL    HW195250   9.979   1.343   6.839  0.4230  0.5422  0.7709
28312SOL    HW295251   9.964   1.451   6.734  0.5487  0.5470  0.7581
28313SOL     OW95252   4.883   9.916   4.235 -0.1571 -0.2349  0.6051
28313SOL    HW195253   4.937   9.922   4.313  0.0093  2.1934  0.3817
28313SOL    HW295254   4.857  10.006   4.217 -1.6153 -0.9465 -1.1609
28314SOL     OW95255  11.814   5.063   7.897  0.5657 -0.0148  0.3811
28314SOL    HW195256  11.752   5.114   7.949  0.8143  0.4150  0.2625
28314SOL    HW295257  11.893   5.118   7.893  0.5614 -0.0440 -0.4225
28315SOL     OW95258  11.685   5.805   7.019 -0.2293 -0.4792  0.2595
28315SOL    HW195259  11.740   5.853   6.957  0.0489  0.9074  1.5073
28315SOL    HW295260  11.618   5.868   7.045 -1.8899 -1.8586 -0.5333
28316SOL     OW95261   1.224   4.181   7.172  0.5422 -0.1623 -0.2968
28316SOL    HW195262   1.148   4.129   7.197  0.2900 -0.1021 -0.9139
28316SOL    HW295263   1.294   4.117   7.161  0.7341 -0.1613  0.8089
28317SOL     OW95264   0.113   7.086  11.127 -0.1696 -0.1400 -0.5530
28317SOL    HW195265   0.034   7.136  11.148 -0.3757  0.0954 -1.7999
28317SOL    HW295266   0.122   7.025  11.200 -0.7056  0.7686  0.3035
28318SOL     OW95267  10.748   1.497   3.681  0.2743 -0.1127  0.4113
28318SOL    HW195268  10.750   1.472   3.774 -1.0188  0.0204  0.5046
28318SOL    HW295269  10.716   1.588   3.683 -0.7537 -0.4416 -0.1958
28319SOL     OW95270   8.633   9.521   4.254  0.1871  0.3015 -0.4446
28319SOL    HW195271   8.677   9.439   4.229  0.2364 -0.2992  1.4094
28319SOL    HW295272   8.680   9.589   4.206 -0.2764 -0.7772 -2.5457
28320SOL     OW95273   8.335   2.104   9.098 -0.3514  0.4508  0.1412
28320SOL    HW195274   8.300   2.193   9.094 -0.6420  0.3449  0.3403
28320SOL    HW295275   8.380   2.092   9.014 -1.9895  0.0965 -0.7298
28321SOL     OW95276   2.414   5.180   3.534  0.0044  0.1466 -0.1917
28321SOL    HW195277   2.319   5.178   3.527 -0.0812 -1.1769  0.9203
28321SOL    HW295278   2.442   5.094   3.503  0.9904  0.9960 -1.8551
28322SOL     OW95279   2.284  10.387   2.023  0.5726 -0.3751  0.4520
28322SOL    HW195280   2.197  10.418   1.998  1.3720  0.8336 -0.9678
28322SOL    HW295281   2.272  10.354   2.112 -1.2261  0.2082  0.4769
28323SOL     OW95282   7.180   6.100   8.442  0.2967 -0.0228  0.0105
28323SOL    HW195283   7.156   6.141   8.525 -0.5204  2.1050 -1.1982
28323SOL    HW295284   7.096   6.085   8.398  0.6043 -2.5683  0.1425
28324SOL     OW95285   1.644   8.407  10.263 -0.1543 -0.4996 -0.4040
28324SOL    HW195286   1.739   8.411  10.255 -0.1862  0.1566 -0.5214
28324SOL    HW295287   1.612   8.468  10.197 -0.5863  0.9756  1.0781
28325SOL     OW95288   4.888   8.328   1.478  0.3593  0.0877  0.0574
28325SOL    HW195289   4.965   8.382   1.458  0.2467  0.4349  0.5410
28325SOL    HW295290   4.925   8.250   1.521  0.5401 -0.3329 -0.8518
28326SOL     OW95291   0.738   7.119   8.494 -0.9721 -0.4637  0.1335
28326SOL    HW195292   0.685   7.097   8.570 -0.9338  2.5006  1.1071
28326SOL    HW295293   0.686   7.088   8.419 -2.3061 -0.9582  1.2253
28327SOL     OW95294   3.578   1.969   8.232 -0.4080  0.2957  0.2558
28327SOL    HW195295   3.521   1.996   8.304 -0.9663 -0.5349  0.1364
28327SOL    HW295296   3.646   2.037   8.229 -0.7364  0.6829  1.1460
28328SOL     OW95297   3.780  10.320   1.248 -0.0869 -0.0170 -0.1074
28328SOL    HW195298   3.737  10.236   1.263  0.3742 -0.0517  1.1362
28328SOL    HW295299   3.874  10.298   1.246  0.0235  0.4420  0.0589
28329SOL     OW95300  11.091   1.822   7.591  0.5797 -0.6484  0.3255
28329SOL    HW195301  11.099   1.901   7.644 -0.8730 -0.2297 -0.0356
28329SOL    HW295302  10.997   1.813   7.575  0.7018 -2.4738  0.3883
28330SOL     OW95303   9.748   1.837   5.527 -0.2790  0.1958 -0.1692
28330SOL    HW195304   9.669   1.785   5.514 -0.1203 -0.5281  1.5037
28330SOL    HW295305   9.812   1.800   5.465 -0.2341 -1.5081  0.8413
28331SOL     OW95306  10.270   1.593   3.727  0.1091 -0.5343 -0.4245
28331SOL    HW195307  10.176   1.609   3.725  0.2400  1.6860  3.3055
28331SOL    HW295308  10.307   1.667   3.678  0.0027 -0.3361 -0.2048
28332SOL     OW95309   8.725   6.473   2.341  0.1602 -0.4038  0.2937
28332SOL    HW195310   8.649   6.493   2.396  1.3014  0.7131  1.5608
28332SOL    HW295311   8.799   6.476   2.402  1.5850  1.6088 -1.3805
28333SOL     OW95312   4.192  12.347  11.466  0.4104 -0.4948 -0.7362
28333SOL    HW195313   4.274  12.322  11.422  1.1717 -1.4644  1.1490
28333SOL    HW295314   4.193  12.299  11.548 -0.2950  2.2592  1.0117
28334SOL     OW95315  11.308   9.546   3.701  0.3289  0.4141 -0.3990
28334SOL    HW195316  11.343   9.628   3.735  0.7983  0.2422 -0.4571
28334SOL    HW295317  11.232   9.572   3.649  0.4187  0.8016 -0.3404
28335SOL     OW95318   5.752  10.492   6.506 -1.0729 -0.1114 -0.1979
28335SOL    HW195319   5.784  10.415   6.553 -2.8529 -0.8033 -0.0456
28335SOL    HW295320   5.755  10.562   6.571 -2.0005 -0.6951  0.4930
28336SOL     OW95321   3.211   7.672  12.690  0.1836 -0.2909 -0.1039
28336SOL    HW195322   3.298   7.692  12.653 -0.4177  0.1259 -1.3650
28336SOL    HW295323   3.181   7.596  12.640 -0.0740 -0.6089  0.5236
28337SOL     OW95324   3.176  10.156  10.451 -0.0115 -0.1115 -0.3862
28337SOL    HW195325   3.108  10.159  10.384  0.7696  1.6714 -1.1664
28337SOL    HW295326   3.211  10.067  10.446 -2.6871 -1.3041  0.5111
28338SOL     OW95327   0.609   4.247   5.312  0.1600  0.2083  0.6114
28338SOL    HW195328   0.677   4.260   5.247 -0.4958  1.1039  0.0795
28338SOL    HW295329   0.653   4.260   5.396  1.3071 -2.2177  0.4676
28339SOL     OW95330   2.232   9.017   5.721  0.0046 -0.1807 -0.2605
28339SOL    HW195331   2.210   9.085   5.785  2.3174  0.2441  0.1755
28339SOL    HW295332   2.293   9.060   5.661  0.7784 -1.6046 -0.5356
28340SOL     OW95333  11.232  11.606   6.656  0.3841  0.4577 -0.2034
28340SOL    HW195334  11.216  11.562   6.573 -0.2133  0.3116 -0.0181
28340SOL    HW295335  11.315  11.652   6.644  0.2780  0.4735 -0.8911
28341SOL     OW95336   5.516  10.264   3.670 -0.3163  0.1329  0.2930
28341SOL    HW195337   5.441  10.304   3.625  0.8171 -0.5653 -2.4371
28341SOL    HW295338   5.582  10.333   3.670  1.2122 -1.1398 -3.3021
28342SOL     OW95339   1.589   2.523   5.314 -0.1799  0.1158  0.0058
28342SOL    HW195340   1.642   2.492   5.388 -0.9587 -1.6684 -0.1259
28342SOL    HW295341   1.629   2.481   5.237 -1.7634 -1.3545 -0.0856
28343SOL     OW95342   8.895   3.726   8.133 -0.0869  0.0399  0.0082
28343SOL    HW195343   8.891   3.690   8.045 -2.7214 -0.9311  0.4448
28343SOL    HW295344   8.805   3.751   8.153  0.3375 -0.1973  2.5965
28344SOL     OW95345  11.705   5.205   7.614 -0.1228  0.4432  0.0531
28344SOL    HW195346  11.714   5.179   7.705  0.7308  0.1054 -0.1110
28344SOL    HW295347  11.750   5.135   7.565 -0.5548  0.6274 -0.6168
28345SOL     OW95348   4.216   8.350   1.734  0.2675  0.1719 -0.0514
28345SOL    HW195349   4.304   8.333   1.699  0.9943  1.5936  0.9936
28345SOL    HW295350   4.231   8.398   1.815 -1.4248 -1.7761  1.5117
28346SOL     OW95351   6.432  12.564   6.454  0.2390 -0.0429 -0.1103
28346SOL    HW195352   6.405  12.587   6.543  4.1444 -1.6668  1.7456
28346SOL    HW295353   6.486  12.637   6.425 -1.4951  0.7579 -1.5219
28347SOL     OW95354  10.871   5.309   5.646  0.1436 -0.2232 -0.2732
28347SOL    HW195355  10.963   5.329   5.628  0.3616 -0.2135  0.7831
28347SOL    HW295356  10.834   5.392   5.676 -0.1686 -0.2696 -0.5265
28348SOL     OW95357   4.412   5.175   0.619  0.4529  0.1395 -0.2499
28348SOL    HW195358   4.360   5.255   0.615  1.1053  0.5924  0.0270
28348SOL    HW295359   4.437   5.157   0.528 -0.9191 -0.5922 -0.5018
28349SOL     OW95360   7.934   3.729   6.174 -0.3464 -0.2787 -0.5729
28349SOL    HW195361   8.025   3.734   6.204  0.0545  1.3667 -1.9643
28349SOL    HW295362   7.939   3.687   6.088 -1.2332 -2.6598  0.4487
28350SOL     OW95363  12.223   5.063   6.306 -0.3649 -0.2767 -0.2156
28350SOL    HW195364  12.260   5.148   6.330 -2.2141  0.3691  0.5671
28350SOL    HW295365  12.142   5.085   6.260 -2.7200 -1.5183  2.9672
28351SOL     OW95366   5.967  10.766   6.943 -0.5179 -0.4885  0.2249
28351SOL    HW195367   6.050  10.727   6.915 -0.4567 -0.7416  0.7424
28351SOL    HW295368   5.974  10.858   6.918  0.3693 -0.2675  1.2229
28352SOL     OW95369   0.398   0.843   6.040  0.2069 -0.0912 -0.3815
28352SOL    HW195370   0.428   0.934   6.037 -3.3728  1.2199 -2.4124
28352SOL    HW295371   0.416   0.808   5.953  0.1741 -0.8132 -0.1037
28353SOL     OW95372   5.849  12.979  10.088  0.0111  0.0898  0.0837
28353SOL    HW195373   5.829  13.012  10.000 -1.7208  0.8403  0.7089
28353SOL    HW295374   5.839  12.884  10.081 -0.7326  0.1934 -0.4183
28354SOL     OW95375   8.882   8.414   5.762 -0.3380  0.6164  0.1711
28354SOL    HW195376   8.904   8.327   5.728  0.7265  0.4576  1.2142
28354SOL    HW295377   8.919   8.415   5.850 -2.9665  1.0349  1.3490
28355SOL     OW95378   4.307   2.065  11.261 -0.1986 -0.2710  0.0313
28355SOL    HW195379   4.344   2.154  11.262 -1.6678  0.4057 -1.2506
28355SOL    HW295380   4.363   2.016  11.201  0.4124 -0.1416  0.4800
28356SOL     OW95381   2.887   5.219   8.006  0.2452  0.1723 -0.4193
28356SOL    HW195382   2.841   5.138   7.983  0.1792  0.1685 -0.2734
28356SOL    HW295383   2.891   5.268   7.924 -0.6704  0.4973 -0.2847
28357SOL     OW95384   4.578  11.172   0.959  0.3288  0.3103 -0.3909
28357SOL    HW195385   4.652  11.185   0.900 -0.0116  1.3663 -0.6031
28357SOL    HW295386   4.539  11.258   0.967 -0.4530 -0.1009  0.2942
28358SOL     OW95387   5.260   1.502   1.802  0.3586  0.1105 -0.1217
28358SOL    HW195388   5.246   1.591   1.770 -0.8155  0.5792  1.5669
28358SOL    HW295389   5.187   1.486   1.862 -0.1651 -2.4553 -1.2739
28359SOL     OW95390   0.378   5.122  10.230  0.7190  0.0624  0.3220
28359SOL    HW195391   0.419   5.036  10.233  0.8401  0.1241  0.4115
28359SOL    HW295392   0.293   5.110  10.272  0.8043  0.0248  0.4821
28360SOL     OW95393  10.888  10.580   7.037 -0.4472  0.3210 -0.6092
28360SOL    HW195394  10.912  10.607   7.125 -0.8128  0.1619 -0.4577
28360SOL    HW295395  10.861  10.661   6.993  0.4406  0.5180 -0.8139
28361SOL     OW95396  12.841   3.437  10.712  0.0646 -0.1570 -0.2880
28361SOL    HW195397  12.772   3.472  10.654 -0.0303 -1.9424 -1.3302
28361SOL    HW295398  12.832   3.342  10.705  0.5564 -0.4441  2.1230
28362SOL     OW95399   8.122   1.570   1.056  0.3354  0.1338  0.8431
28362SOL    HW195400   8.209   1.529   1.056  0.2169 -0.3193 -1.8436
28362SOL    HW295401   8.130   1.641   0.992 -1.0963  0.5732  1.1225
28363SOL     OW95402   3.056   8.333  12.143 -0.6000 -0.5319 -0.0143
28363SOL    HW195403   3.006   8.342  12.062  2.1736  0.3857 -1.7782
28363SOL    HW295404   3.043   8.242  12.169 -0.0936 -1.4419 -2.6256
28364SOL     OW95405   4.292  11.705   8.325 -0.2958 -0.4012  0.1547
28364SOL    HW195406   4.347  11.660   8.260 -1.4055 -0.7729 -0.5556
28364SOL    HW295407   4.206  11.665   8.316 -0.9627  0.8874  0.5065
28365SOL     OW95408   9.809   8.423  11.949  0.4662  0.1832 -0.1370
28365SOL    HW195409   9.808   8.337  11.909 -0.8463  0.8178 -1.5646
28365SOL    HW295410   9.900   8.436  11.975  1.9472  0.3740 -4.5144
28366SOL     OW95411   3.355   6.505   4.889 -0.2553  0.1363  0.2033
28366SOL    HW195412   3.348   6.529   4.797 -1.2517  0.8308  0.4474
28366SOL    HW295413   3.273   6.460   4.908 -0.4155  0.7317  0.9595
28367SOL     OW95414   1.549   0.424   6.199 -0.1264  0.0959 -0.4274
28367SOL    HW195415   1.521   0.507   6.236  0.0478  0.2059 -0.5399
28367SOL    HW295416   1.632   0.444   6.156 -0.8150  0.2144 -1.7594
28368SOL     OW95417  10.350  11.747   3.412  0.4002  0.3766  0.1868
28368SOL    HW195418  10.303  11.716   3.490 -0.0141  1.4867  0.4041
28368SOL    HW295419  10.310  11.832   3.393  1.1104  0.5219 -0.7099
28369SOL     OW95420   2.606   6.737   1.287 -0.1333  0.3569  0.3491
28369SOL    HW195421   2.630   6.645   1.281  0.5289  0.4922  0.8587
28369SOL    HW295422   2.618   6.760   1.379 -0.3972  0.9203  0.2479
28370SOL     OW95423  12.754   1.794  12.360  0.2043  0.4671  0.7096
28370SOL    HW195424  12.787   1.705  12.343 -1.1688  0.1619 -0.5247
28370SOL    HW295425  12.828   1.851  12.340  0.7752 -0.3403  0.4660
28371SOL     OW95426   3.849   2.253   9.408  0.2398  0.0231  0.0082
28371SOL    HW195427   3.771   2.245   9.352  0.6737 -2.9271 -0.3135
28371SOL    HW295428   3.900   2.324   9.367 -0.2266 -0.9504 -2.4426
28372SOL     OW95429  10.257   9.589   5.665 -0.2579 -0.3982 -0.2167
28372SOL    HW195430  10.171   9.580   5.707 -0.5328 -0.5668 -0.8046
28372SOL    HW295431  10.319   9.558   5.731 -0.6082  0.1293  0.3741
28373SOL     OW95432   7.501   3.951   3.890  0.2257 -0.6467 -0.4659
28373SOL    HW195433   7.444   4.019   3.925  2.0737  1.0816 -0.5878
28373SOL    HW295434   7.535   3.905   3.967 -1.1387 -1.5769 -0.3897
28374SOL     OW95435   2.003   4.899   4.818  0.6734  0.0992  0.3644
28374SOL    HW195436   2.030   4.913   4.727  0.2132  0.1141  0.2268
28374SOL    HW295437   2.018   4.983   4.861 -0.1212  0.4144  0.0418
28375SOL     OW95438   7.968   4.523   1.795  0.1466 -0.1708  0.0389
28375SOL    HW195439   7.907   4.547   1.866 -0.3536  0.5085 -0.6073
28375SOL    HW295440   8.010   4.443   1.826 -0.7181 -0.3766  0.7243
28376SOL     OW95441   1.719  11.254   1.279  0.2104 -0.3765  0.2692
28376SOL    HW195442   1.711  11.257   1.183  1.4245  1.5457  0.1766
28376SOL    HW295443   1.797  11.201   1.295 -1.6146 -3.2645  0.4076
28377SOL     OW95444   8.271  12.378   8.418  0.5111 -0.1594 -0.6234
28377SOL    HW195445   8.272  12.286   8.392  2.7085 -0.3376 -0.1501
28377SOL    HW295446   8.361  12.408   8.405 -0.1677  1.9877 -0.8922
28378SOL     OW95447   2.903  12.679   4.713 -0.3511 -0.4858 -0.7466
28378SOL    HW195448   2.981  12.631   4.686  0.4776  0.0792  0.5719
28378SOL    HW295449   2.843  12.611   4.744  0.0524 -0.8266 -0.7096
28379SOL     OW95450   6.943  11.407   9.253  0.1300  0.2908 -0.0549
28379SOL    HW195451   6.862  11.355   9.254  0.5326 -0.3355  0.3081
28379SOL    HW295452   7.013  11.342   9.255  0.6442  0.8350  1.4257
28380SOL     OW95453   1.358   7.750   9.936  0.4603  0.4042  0.1378
28380SOL    HW195454   1.451   7.744   9.955  0.5732  0.0737 -0.4978
28380SOL    HW295455   1.324   7.811  10.001  0.9542 -0.1730  0.9578
28381SOL     OW95456  10.898   8.466   6.824  0.0858 -0.0407  0.1312
28381SOL    HW195457  10.828   8.401   6.837 -1.2521  1.6611  2.1192
28381SOL    HW295458  10.903   8.512   6.907  3.0521  0.4903 -0.2565
28382SOL     OW95459   1.920   7.422   2.778  0.1795 -0.4131 -0.0147
28382SOL    HW195460   1.936   7.343   2.726 -1.5632 -0.1068 -1.0534
28382SOL    HW295461   1.992   7.480   2.755  2.1051 -1.9951  1.5366
28383SOL     OW95462   0.167   4.485  11.739 -0.5247  0.5460 -0.3948
28383SOL    HW195463   0.192   4.550  11.805  0.9225  0.1247 -0.4919
28383SOL    HW295464   0.187   4.401  11.781 -0.7292  0.2330 -0.9175
28384SOL     OW95465   2.021   6.191   2.660  0.1490  0.5167  0.1818
28384SOL    HW195466   1.936   6.235   2.667 -0.0255  0.1352  0.4465
28384SOL    HW295467   2.001   6.098   2.661  0.4612  0.4146 -1.1431
28385SOL     OW95468  12.168   2.578   5.961 -0.5888 -0.4333  0.7739
28385SOL    HW195469  12.212   2.511   5.908 -0.1913 -0.0437  0.6063
28385SOL    HW295470  12.146   2.533   6.043 -0.7715 -0.9036  0.4707
28386SOL     OW95471   5.275   3.780   8.697  0.0984  0.7483 -0.1861
28386SOL    HW195472   5.369   3.787   8.714 -0.2085  0.1472  2.0885
28386SOL    HW295473   5.255   3.688   8.713 -0.3283 -0.0455 -4.2370
28387SOL     OW95474   1.876   8.096   3.470  0.1170 -0.0533  0.3175
28387SOL    HW195475   1.892   8.007   3.440  1.0599  0.3351 -0.3892
28387SOL    HW295476   1.940   8.109   3.540  1.8278  0.9141 -1.3312
28388SOL     OW95477   6.023   1.535   2.174  0.1244  0.6606  0.2029
28388SOL    HW195478   5.971   1.506   2.249  1.0581  0.2926  0.7361
28388SOL    HW295479   6.095   1.586   2.214  1.4762 -0.7819 -0.2919
28389SOL     OW95480   9.516   4.117   1.393 -0.6266 -0.1646 -0.0749
28389SOL    HW195481   9.590   4.162   1.351  0.8154  0.5742  2.9396
28389SOL    HW295482   9.454   4.186   1.415 -0.2525 -0.1454  1.0206
28390SOL     OW95483   8.550   6.730   5.739 -0.6713  0.3664 -0.0267
28390SOL    HW195484   8.582   6.795   5.677 -1.3160 -0.2840 -1.0734
28390SOL    HW295485   8.593   6.752   5.822 -0.6178  1.9031 -0.4377
28391SOL     OW95486   2.954   9.215   6.641 -0.1266 -0.1038  0.0456
28391SOL    HW195487   2.998   9.175   6.715 -2.4001  0.7990  2.0381
28391SOL    HW295488   2.923   9.142   6.589  1.5057 -0.7536 -0.0655
28392SOL     OW95489  11.170   8.818   0.629 -0.5940  0.2484  0.2419
28392SOL    HW195490  11.080   8.848   0.640 -0.6885 -0.3738  1.3168
28392SOL    HW295491  11.169   8.728   0.661 -0.1880 -0.7441 -2.2932
28393SOL     OW95492   9.629   2.696   6.393  0.0073 -0.2674  0.1534
28393SOL    HW195493   9.569   2.743   6.452  0.8413  1.8773 -0.5856
28393SOL    HW295494   9.661   2.623   6.445 -1.9332 -0.4961  1.1358
28394SOL     OW95495  10.868  10.570   0.641 -0.3799  0.1287  0.2048
28394SOL    HW195496  10.912  10.486   0.655  0.1376  0.4921  0.7949
28394SOL    HW295497  10.912  10.608   0.565  0.4732  0.5722  0.9018
28395SOL     OW95498   9.269   1.186   8.491  0.1677  0.1720 -0.4527
28395SOL    HW195499   9.310   1.100   8.486  1.4138  0.6987  0.2209
28395SOL    HW295500   9.316   1.239   8.426 -1.3803  0.0771 -1.7299
28396SOL     OW95501  11.251   3.153   0.767 -0.3216  0.0155  0.3044
28396SOL    HW195502  11.232   3.238   0.728 -1.1194 -0.8469 -1.2777
28396SOL    HW295503  11.347   3.149   0.769 -0.2154 -0.0458 -2.0307
28397SOL     OW95504   7.640   4.725   0.505  0.2412 -0.2098 -0.3483
28397SOL    HW195505   7.545   4.737   0.509  0.3761  0.8686  0.1955
28397SOL    HW295506   7.667   4.718   0.596  0.7140 -0.1904 -0.4846
28398SOL     OW95507   7.309   1.256   9.777  0.4674  0.0116 -0.0327
28398SOL    HW195508   7.309   1.312   9.698  0.5758  1.1886  0.7738
28398SOL    HW295509   7.216   1.240   9.794  0.4724 -2.3723 -1.8129
28399SOL     OW95510  10.149  12.940   0.865  0.7135 -0.3298 -0.4101
28399SOL    HW195511  10.100  12.858   0.870  0.4226 -0.1973 -0.9960
28399SOL    HW295512  10.200  12.943   0.946  0.3493 -0.8504 -0.1595
28400SOL     OW95513   2.002  12.430  11.209 -0.4193  0.0230 -0.3930
28400SOL    HW195514   2.026  12.448  11.119 -0.0042 -1.1309 -0.5293
28400SOL    HW295515   1.976  12.515  11.245  1.5083  0.8866 -0.9425
28401SOL     OW95516  12.401   1.352   2.581 -0.5278  0.1226 -0.0027
28401SOL    HW195517  12.393   1.365   2.486 -0.2110 -0.2549 -0.0836
28401SOL    HW295518  12.488   1.384   2.603 -0.8373  0.7920  0.2681
28402SOL     OW95519   9.933   3.810   5.101 -0.1347  0.0182  0.4979
28402SOL    HW195520   9.922   3.748   5.030  1.0536 -2.1406  2.0598
28402SOL    HW295521   9.849   3.856   5.107 -1.0854 -1.4755 -0.7260
28403SOL     OW95522   1.857   7.740  10.169 -0.7711 -0.7300  0.7756
28403SOL    HW195523   1.791   7.770  10.233 -1.0346 -0.1564  0.2519
28403SOL    HW295524   1.886   7.821  10.126 -1.3793 -1.2081 -0.5739
28404SOL     OW95525   4.897   8.888   6.666 -0.0736  0.1904  0.7082
28404SOL    HW195526   4.915   8.824   6.735 -0.3820 -1.0973 -0.3640
28404SOL    HW295527   4.839   8.953   6.707 -2.1824 -1.7930  1.0473
28405SOL     OW95528  12.506   1.735   0.911 -0.5925  0.2269  0.2232
28405SOL    HW195529  12.415   1.728   0.880 -0.2908  0.5887 -0.8074
28405SOL    HW295530  12.531   1.826   0.890  0.4463 -0.2728 -0.8244
28406SOL     OW95531   3.066  11.757   8.413 -0.0170  0.2290  0.0425
28406SOL    HW195532   3.150  11.766   8.368  0.2927  0.2234  0.6003
28406SOL    HW295533   3.037  11.668   8.391  0.7226 -0.2201  0.8225
28407SOL     OW95534  10.353   3.219   2.261  0.1753 -0.4448  0.1570
28407SOL    HW195535  10.285   3.154   2.241  0.5903 -0.7962 -0.1376
28407SOL    HW295536  10.411   3.217   2.185  0.6051 -0.2683  0.4755
28408SOL     OW95537  11.156   6.268   7.713 -0.3036  0.0432  0.4023
28408SOL    HW195538  11.221   6.312   7.768  2.0142  0.4866 -2.4613
28408SOL    HW295539  11.205   6.197   7.671 -1.7799  0.1037 -1.5443
28409SOL     OW95540   6.166   6.992   3.030  0.5599 -0.1645 -0.1210
28409SOL    HW195541   6.260   7.005   3.015  0.4572  0.5222 -0.2114
28409SOL    HW295542   6.143   7.059   3.094  0.2408 -0.6946  0.3215
28410SOL     OW95543   4.556  12.544   6.117 -0.3287 -0.4002 -0.1983
28410SOL    HW195544   4.626  12.566   6.056 -0.7163  0.6266 -0.2860
28410SOL    HW295545   4.593  12.475   6.172  0.5888 -0.1803 -0.5269
28411SOL     OW95546   0.523   8.382   8.705  0.0340 -0.4527 -0.0822
28411SOL    HW195547   0.507   8.299   8.660 -0.9185  0.0292 -0.6463
28411SOL    HW295548   0.450   8.438   8.679  1.3451  1.0044 -0.7790
28412SOL     OW95549   0.492  12.904   4.301  0.4443 -0.0083 -0.6764
28412SOL    HW195550   0.432  12.975   4.278 -0.1812  0.0855  1.0691
28412SOL    HW295551   0.579  12.946   4.300  0.0567  0.9100  0.6115
28413SOL     OW95552   5.940   2.740   6.985  0.1791 -0.3416 -0.0794
28413SOL    HW195553   5.955   2.831   6.960  0.9523 -1.0446 -2.4478
28413SOL    HW295554   5.846   2.728   6.974  0.0232  0.2393  0.5491
28414SOL     OW95555   8.718  10.740   9.291 -0.2754  0.1852  0.1577
28414SOL    HW195556   8.634  10.763   9.252 -1.1922 -0.6476  1.5723
28414SOL    HW295557   8.745  10.820   9.338  0.2922  0.8143 -1.1739
28415SOL     OW95558   8.335   3.725   7.361 -0.1422 -0.2821  0.4056
28415SOL    HW195559   8.240   3.714   7.368 -0.0768  0.2625  3.7925
28415SOL    HW295560   8.371   3.638   7.380  0.0487 -0.3245 -0.1387
28416SOL     OW95561   1.185   1.361   4.652  0.5838 -0.2669 -0.0240
28416SOL    HW195562   1.252   1.317   4.704  0.2916 -1.5495 -0.6813
28416SOL    HW295563   1.151   1.293   4.594 -0.9996  0.4438  0.0080
28417SOL     OW95564   4.585   3.248  12.686  0.7097 -0.1033  0.0671
28417SOL    HW195565   4.610   3.287  12.770 -1.3591 -2.0317  1.6879
28417SOL    HW295566   4.581   3.154  12.703  0.3603 -0.5744 -2.2566
28418SOL     OW95567   1.462   9.549  10.216  0.2646  0.3776  0.0259
28418SOL    HW195568   1.398   9.524  10.149 -1.0292  1.5468  0.7726
28418SOL    HW295569   1.451   9.644  10.225  2.5375  0.7275 -0.2180
28419SOL     OW95570   1.421   8.850  12.700  0.0116  0.0060  0.2525
28419SOL    HW195571   1.362   8.781  12.728  1.8183 -1.3070  1.0204
28419SOL    HW295572   1.406   8.921  12.763 -0.5564 -0.4027  0.5903
28420SOL     OW95573  11.936  12.016   9.794  0.3588 -0.0277  0.4049
28420SOL    HW195574  11.860  12.072   9.809  0.0427 -0.3244 -0.0614
28420SOL    HW295575  11.900  11.929   9.779  0.6364  0.1598 -1.6779
28421SOL     OW95576   3.281   3.781   5.088  0.0543 -0.0642 -0.0684
28421SOL    HW195577   3.188   3.765   5.075 -0.4472  1.7347  0.9851
28421SOL    HW295578   3.303   3.846   5.022  0.6746 -0.7345 -0.5410
28422SOL     OW95579   7.806  11.327   4.871  0.1239  0.2413  1.0708
28422SOL    HW195580   7.781  11.380   4.795  0.0594 -1.0938  0.1386
28422SOL    HW295581   7.726  11.279   4.894  0.2430  0.3696  1.7765
28423SOL     OW95582   2.339   7.640   2.733 -0.8620  0.2799  0.2693
28423SOL    HW195583   2.418   7.661   2.685 -0.2817 -0.6436  0.7764
28423SOL    HW295584   2.267   7.667   2.676 -0.2005  2.1471  0.2719
28424SOL     OW95585   4.065  12.744   0.467  0.2018  0.5127  0.1361
28424SOL    HW195586   4.060  12.808   0.397  3.4408  0.2616 -0.4568
28424SOL    HW295587   4.154  12.710   0.463  0.0165 -0.7245  3.3421
28425SOL     OW95588   5.565   4.370   5.052 -0.1128 -0.0009 -0.5399
28425SOL    HW195589   5.606   4.456   5.044 -0.0320 -0.1980 -2.6309
28425SOL    HW295590   5.604   4.333   5.131 -0.3110  1.9425  0.5384
28426SOL     OW95591   6.275   4.719   6.016 -0.3976  0.0516  0.1513
28426SOL    HW195592   6.185   4.690   5.997 -0.7634  0.3476  1.3659
28426SOL    HW295593   6.281   4.719   6.111 -0.2009  3.1660  0.2561
28427SOL     OW95594   4.300   9.668   4.150  0.2225 -0.5091  0.5056
28427SOL    HW195595   4.309   9.609   4.225 -2.6056 -0.3867  1.0630
28427SOL    HW295596   4.363   9.738   4.166  1.0150 -1.4737  1.7542
28428SOL     OW95597  11.131   7.526   1.616 -0.1169  0.5527  0.3924
28428SOL    HW195598  11.074   7.550   1.689  1.2024  1.5916  1.1228
28428SOL    HW295599  11.204   7.480   1.657  0.7656  1.3748 -0.2193
28429SOL     OW95600   1.060   2.151   7.647 -0.2197  0.3006 -0.5848
28429SOL    HW195601   1.082   2.098   7.723  0.4380  1.0761 -0.2193
28429SOL    HW295602   1.038   2.087   7.579 -0.5184 -0.4066  0.1556
28430SOL     OW95603   0.324   9.187   7.104 -0.2487 -0.6161  0.0295
28430SOL    HW195604   0.296   9.104   7.144 -1.3147 -0.5567 -0.5533
28430SOL    HW295605   0.401   9.164   7.052 -0.8075 -1.3487 -0.4973
28431SOL     OW95606   1.902   7.798   6.968 -0.4293 -0.1715 -0.1316
28431SOL    HW195607   1.936   7.794   7.057  0.9105  0.0436 -0.6078
28431SOL    HW295608   1.843   7.874   6.968 -0.8001 -0.4444  0.6673
28432SOL     OW95609   5.395   1.589   9.089  0.5012  0.1056  0.3055
28432SOL    HW195610   5.472   1.579   9.144 -0.6585  1.0694  2.1879
28432SOL    HW295611   5.335   1.521   9.119 -0.4145  1.0872  0.7322
28433SOL     OW95612   0.436   2.735   7.907  0.1857 -0.2102 -0.9233
28433SOL    HW195613   0.467   2.820   7.876  0.0739 -0.0182 -0.5143
28433SOL    HW295614   0.464   2.730   7.998 -1.9826  0.5015 -0.1415
28434SOL     OW95615  10.986   0.487   2.872  0.2828 -0.3872  0.1947
28434SOL    HW195616  11.024   0.525   2.793 -1.1661 -0.3207 -0.5229
28434SOL    HW295617  10.920   0.425   2.838  0.1701 -0.9198  1.3536
28435SOL     OW95618   5.069   4.911   3.445  0.0651  0.5587 -0.4852
28435SOL    HW195619   5.044   5.004   3.443  0.2226  0.5888 -1.5780
28435SOL    HW295620   4.993   4.866   3.481 -0.8068  0.8881 -1.8522
28436SOL     OW95621   4.383   8.889   1.450  0.8096 -0.0179  0.3523
28436SOL    HW195622   4.347   8.952   1.388  0.1447 -0.6762  0.0468
28436SOL    HW295623   4.443   8.940   1.505  0.9670  0.6918 -0.4571
28437SOL     OW95624  12.869   8.646   5.236  0.0988  0.0952 -0.6134
28437SOL    HW195625  12.921   8.663   5.314 -0.6384 -0.1473 -0.0513
28437SOL    HW295626  12.919   8.684   5.164  1.9302 -1.6876 -0.3560
28438SOL     OW95627  11.037   5.947   8.499 -0.1927  0.6068  0.0246
28438SOL    HW195628  10.996   5.982   8.578 -0.9342  0.5056 -0.3104
28438SOL    HW295629  11.127   5.929   8.525  0.1392  2.4805  0.2750
28439SOL     OW95630   4.641   6.567   6.483  0.1331 -0.1173 -0.3056
28439SOL    HW195631   4.712   6.627   6.462  1.0562 -0.5302  1.4174
28439SOL    HW295632   4.673   6.518   6.559 -2.9394  1.4741  2.2510
28440SOL     OW95633   3.683   8.938   0.135  0.4402  0.7717 -0.2842
28440SOL    HW195634   3.736   8.879   0.188 -2.0815 -0.1058  1.4477
28440SOL    HW295635   3.650   8.883   0.064  1.3108  1.1558 -0.9976
28441SOL     OW95636   5.953  11.311   6.137 -0.2064  0.0425  0.2136
28441SOL    HW195637   6.033  11.309   6.086 -0.1914  0.3462  0.2243
28441SOL    HW295638   5.934  11.219   6.156 -0.4050 -0.0972 -0.6385
28442SOL     OW95639   9.049   1.453   4.844  0.2690  0.4101  0.3041
28442SOL    HW195640   9.141   1.472   4.865  0.3439 -0.7403  1.0671
28442SOL    HW295641   9.021   1.392   4.912 -1.0411  0.6590  0.0090
28443SOL     OW95642   0.511   6.278   5.682 -0.0560 -0.1111 -0.4587
28443SOL    HW195643   0.433   6.237   5.644  0.3383  0.2863 -1.7715
28443SOL    HW295644   0.514   6.365   5.643 -0.8255  1.2069  2.2012
28444SOL     OW95645   0.987   9.403  12.100  0.2073  0.1939  0.1498
28444SOL    HW195646   1.004   9.315  12.067  0.3143  0.7180 -1.2972
28444SOL    HW295647   0.971   9.392  12.193 -0.8277 -1.4941 -0.1838
28445SOL     OW95648   3.605  12.592   5.146  0.1987 -0.0196 -0.4885
28445SOL    HW195649   3.664  12.653   5.191 -0.0617 -0.8598  1.0717
28445SOL    HW295650   3.518  12.626   5.164 -0.0359 -1.5189  1.5705
28446SOL     OW95651   0.658   1.938  12.066 -0.1506 -0.8885 -0.2416
28446SOL    HW195652   0.684   1.937  11.974  0.5462 -1.0113 -0.0501
28446SOL    HW295653   0.573   1.982  12.066 -0.4325 -1.3942 -1.0106
28447SOL     OW95654   1.316  10.686   8.257  0.4092 -0.3138  0.0882
28447SOL    HW195655   1.392  10.638   8.223  0.1738 -1.0700  0.6049
28447SOL    HW295656   1.261  10.702   8.180  1.7999  1.6239 -0.5781
28448SOL     OW95657   0.271   9.584  11.843  0.9189 -0.4187  0.1238
28448SOL    HW195658   0.176   9.583  11.858  0.9191 -0.8198  0.1133
28448SOL    HW295659   0.281   9.636  11.763  0.6748 -0.6685 -0.0740
28449SOL     OW95660   2.375   4.072  11.706  0.3890  0.1331  0.1966
28449SOL    HW195661   2.451   4.017  11.722  1.3063  1.1186 -0.6099
28449SOL    HW295662   2.323   4.023  11.642  1.3379  0.2977 -0.7297
28450SOL     OW95663   1.853   4.304  10.322 -0.5656 -0.1257  0.1588
28450SOL    HW195664   1.840   4.391  10.361 -0.6382  0.4196 -1.0455
28450SOL    HW295665   1.945   4.303  10.296 -0.0939 -1.0901  1.7336
28451SOL     OW95666   1.017   2.502   3.363 -0.3328  0.3515  0.1078
28451SOL    HW195667   1.038   2.572   3.425  0.0303 -0.5417  1.0159
28451SOL    HW295668   0.997   2.548   3.282  2.3436  1.4154 -0.0457
28452SOL     OW95669   6.044   5.903   3.102  0.6249 -0.2603  0.3682
28452SOL    HW195670   6.023   5.959   3.027  0.6330 -1.6859 -0.7481
28452SOL    HW295671   5.973   5.839   3.104  0.9217 -0.5691  1.2345
28453SOL     OW95672   5.029   2.736   1.644  0.1957 -0.0498  0.4465
28453SOL    HW195673   4.985   2.781   1.572 -1.1693 -0.7700  0.7931
28453SOL    HW295674   5.120   2.732   1.618  0.0010  1.1485 -0.4865
28454SOL     OW95675  10.633  10.766   3.984 -0.2509 -0.2048 -0.7224
28454SOL    HW195676  10.678  10.808   4.058 -1.0782  1.7476 -1.2573
28454SOL    HW295677  10.629  10.674   4.008 -0.2473  0.3174  1.5648
28455SOL     OW95678   6.651   0.780   4.351 -0.1070 -0.0107 -0.7162
28455SOL    HW195679   6.672   0.744   4.266  0.7168  0.4821 -0.7291
28455SOL    HW295680   6.657   0.875   4.339 -0.9668  0.1048 -0.3576
28456SOL     OW95681   0.941   0.288   1.758 -0.1756  0.5557 -0.0399
28456SOL    HW195682   0.849   0.314   1.764 -0.1954  0.2226  1.5502
28456SOL    HW295683   0.942   0.197   1.788  0.6774  0.5321 -0.1038
28457SOL     OW95684   6.892   3.191   1.111 -0.2719 -0.6930 -0.2682
28457SOL    HW195685   6.866   3.124   1.174  0.9192 -0.8078  0.1297
28457SOL    HW295686   6.910   3.144   1.030  1.0710 -0.9511  0.1563
28458SOL     OW95687   0.973  10.245   8.549  0.3882 -0.4001  0.0608
28458SOL    HW195688   0.936  10.185   8.613 -0.4123 -0.3314 -0.3266
28458SOL    HW295689   0.902  10.305   8.527  0.8321 -0.0392 -0.4332
28459SOL     OW95690   2.898   8.853   1.292 -0.8457  0.4030 -0.0810
28459SOL    HW195691   2.886   8.877   1.384 -0.8869  1.0738 -0.2579
28459SOL    HW295692   2.981   8.805   1.291 -1.7193 -1.2152  0.5836
28460SOL     OW95693   2.152  12.192   2.582 -0.1274  0.1414 -0.1405
28460SOL    HW195694   2.135  12.244   2.503 -3.9125  0.4458  0.6775
28460SOL    HW295695   2.119  12.246   2.654 -0.8936 -1.9057  1.1221
28461SOL     OW95696   2.983   6.116  10.373  0.2101  0.0496 -1.1447
28461SOL    HW195697   2.949   6.062  10.302  0.3597  1.4621 -2.3300
28461SOL    HW295698   3.075   6.090  10.380  0.8335  1.5632 -3.1289
28462SOL     OW95699   6.238   4.109   7.187 -0.1638  0.2644 -0.0443
28462SOL    HW195700   6.193   4.061   7.258 -0.4012  1.0651  0.3572
28462SOL    HW295701   6.326   4.073   7.187 -0.8524 -1.6024 -1.0847
28463SOL     OW95702  10.088  11.409   5.389 -0.4276 -0.2805  0.3825
28463SOL    HW195703  10.004  11.400   5.435 -1.3125  1.6740 -0.7467
28463SOL    HW295704  10.153  11.408   5.459 -1.3814 -1.6180  1.3097
28464SOL     OW95705  12.472  11.324   8.742 -0.3004  0.3860 -0.5256
28464SOL    HW195706  12.461  11.375   8.662 -0.2726  1.2068 -0.0156
28464SOL    HW295707  12.544  11.366   8.788  1.6322 -1.7848 -1.3629
28465SOL     OW95708   1.301  11.470   2.906  0.4620 -0.3099  0.3912
28465SOL    HW195709   1.211  11.437   2.909 -0.5203  2.1927  1.7528
28465SOL    HW295710   1.292  11.564   2.922  3.2575  0.2098 -0.5435
28466SOL     OW95711   1.994  12.008   3.910 -0.0738  0.3113 -0.2163
28466SOL    HW195712   1.950  12.059   3.978  0.9279  1.5122 -0.4308
28466SOL    HW295713   1.953  12.038   3.829  0.0235  0.2380 -0.2914
28467SOL     OW95714   5.182   9.449   4.469 -0.0810 -0.4304  0.4328
28467SOL    HW195715   5.096   9.420   4.499 -0.0078 -0.3032  0.7808
28467SOL    HW295716   5.238   9.372   4.477 -0.2941 -0.6669 -0.3433
28468SOL     OW95717   9.881   7.106   2.845 -0.4831 -0.3299 -0.1970
28468SOL    HW195718   9.868   7.089   2.751 -0.4148 -1.3353 -0.0315
28468SOL    HW295719   9.850   7.027   2.888 -1.0722  0.3647  0.6811
28469SOL     OW95720   3.683   9.921   7.810 -0.1602 -0.1432 -0.6364
28469SOL    HW195721   3.750   9.985   7.834  0.8751 -0.5213 -2.3376
28469SOL    HW295722   3.613   9.973   7.769 -1.7213  0.4456  2.4782
28470SOL     OW95723   1.718   0.001   6.098 -0.5934  0.4048 -0.0422
28470SOL    HW195724   1.668   0.053   6.161 -1.3390  1.3052 -1.3480
28470SOL    HW295725   1.690   0.033   6.012  2.8021  1.5861 -0.8766
28471SOL     OW95726   6.383   4.832  12.076  0.4769 -0.0994  0.6351
28471SOL    HW195727   6.305   4.791  12.038  0.1612 -0.6231  1.7967
28471SOL    HW295728   6.424   4.763  12.128  1.4526  0.3097  0.4398
28472SOL     OW95729  12.562   1.711   4.320  0.0795 -0.0083  0.4954
28472SOL    HW195730  12.510   1.714   4.240 -0.9284 -1.4490  1.0520
28472SOL    HW295731  12.611   1.793   4.320 -0.0187  0.1123 -1.5007
28473SOL     OW95732  12.944  10.204   3.304 -0.0725  0.0618 -0.1509
28473SOL    HW195733  12.926  10.253   3.384 -0.3546 -0.4775  0.1290
28473SOL    HW295734  12.940  10.112   3.331 -1.4659 -0.1704 -1.0317
28474SOL     OW95735   8.414   8.192   2.307  0.0442  0.0059 -0.1924
28474SOL    HW195736   8.472   8.231   2.372 -2.0366  1.8115  0.7213
28474SOL    HW295737   8.330   8.184   2.352 -1.3165  0.7213 -2.4374
28475SOL     OW95738   9.969   1.986   6.924  0.4022 -0.2227 -0.2252
28475SOL    HW195739   9.964   1.890   6.927  1.4870 -0.2898 -0.0620
28475SOL    HW295740   9.950   2.013   7.013 -2.8050 -0.0728 -0.8355
28476SOL     OW95741   3.684   0.905  10.354  0.0751 -0.8749  0.0168
28476SOL    HW195742   3.735   0.960  10.414 -2.3745  2.8743 -1.0185
28476SOL    HW295743   3.731   0.908  10.271  0.8383 -1.9071  0.3831
28477SOL     OW95744   1.542   4.892  10.584  0.0076 -0.2610  0.3784
28477SOL    HW195745   1.562   4.884  10.491  0.1738 -2.7770  0.5765
28477SOL    HW295746   1.628   4.888  10.627 -0.0472  1.1486  0.6595
28478SOL     OW95747  12.645  11.318   6.837  0.2478 -0.3809  0.1726
28478SOL    HW195748  12.710  11.251   6.860  1.1285  0.4019  0.0190
28478SOL    HW295749  12.694  11.383   6.788 -0.0803  1.5099  2.2199
28479SOL     OW95750   1.319   7.646   2.820 -0.0883  0.2571  0.4037
28479SOL    HW195751   1.253   7.640   2.889 -1.5592 -0.1460 -0.9858
28479SOL    HW295752   1.327   7.557   2.786  1.6179  0.1766  0.8971
28480SOL     OW95753   3.120   8.152   5.677  0.2350  0.5331 -0.7646
28480SOL    HW195754   3.058   8.103   5.731  0.6936  0.3543 -0.3985
28480SOL    HW295755   3.094   8.132   5.587  1.2375 -1.4684 -0.6576
28481SOL     OW95756   1.564   0.922  11.395 -0.1873 -0.1185 -0.3860
28481SOL    HW195757   1.567   0.934  11.300 -0.9040  0.5332 -0.3323
28481SOL    HW295758   1.471   0.925  11.417 -0.0909 -1.1096  0.2436
28482SOL     OW95759   9.885  10.691   3.759  0.0357  0.4697 -0.0264
28482SOL    HW195760   9.950  10.645   3.813  1.6445  0.9696 -1.4494
28482SOL    HW295761   9.810  10.631   3.756  0.6333 -0.3921  1.1799
28483SOL     OW95762   1.970   4.116   9.814  0.0996  0.3669 -0.2690
28483SOL    HW195763   1.921   4.047   9.768  1.3733  0.1228 -1.3138
28483SOL    HW295764   1.903   4.179   9.841 -1.3411 -1.9634  2.0512
28484SOL     OW95765   0.090   9.024  12.057  0.1161  0.5623 -0.5782
28484SOL    HW195766   0.004   9.012  12.018  0.3356  0.4502 -1.0314
28484SOL    HW295767   0.126   9.100  12.012  0.2610  0.6038 -0.3943
28485SOL     OW95768  10.332   1.699   3.251  0.2147 -0.1499  0.2816
28485SOL    HW195769  10.242   1.702   3.284 -0.1744 -0.7790 -0.6614
28485SOL    HW295770  10.385   1.676   3.327 -0.6561 -1.5674  0.4985
28486SOL     OW95771   5.380   0.463   4.296 -0.0741 -0.3588 -0.6031
28486SOL    HW195772   5.289   0.468   4.325  0.4476  0.9484  0.9716
28486SOL    HW295773   5.393   0.543   4.244  0.5883  0.3648  0.6112
28487SOL     OW95774   2.120   2.122  10.577  0.1821  0.2303 -0.7117
28487SOL    HW195775   2.167   2.047  10.612  0.7499  0.6644 -0.5264
28487SOL    HW295776   2.065   2.086  10.508 -1.1509 -0.6814  0.7708
28488SOL     OW95777   7.511   9.438  12.265 -0.3653 -0.1295 -0.3095
28488SOL    HW195778   7.431   9.434  12.318 -0.4687 -0.7870 -0.5097
28488SOL    HW295779   7.569   9.372  12.303  0.1703  0.4837 -0.0346
28489SOL     OW95780   2.264   7.798   4.189  0.3523 -0.5832 -0.4014
28489SOL    HW195781   2.259   7.801   4.094  1.4067  0.9998 -0.4441
28489SOL    HW295782   2.358   7.795   4.208  0.1373 -1.6829  0.5850
28490SOL     OW95783   4.887   9.716   2.574  0.1945  0.1455 -0.1354
28490SOL    HW195784   4.804   9.758   2.595  0.1433 -0.0914  0.1390
28490SOL    HW295785   4.936   9.716   2.656  0.4646  0.2773 -0.2922
28491SOL     OW95786   9.987  11.899   0.369  0.3277  0.6080  0.0587
28491SOL    HW195787   9.916  11.947   0.325  0.6703  0.8967 -0.1922
28491SOL    HW295788  10.025  11.963   0.429 -1.3642 -0.3170  2.2562
28492SOL     OW95789   9.949   3.112  10.900 -0.8816  0.1211  0.3660
28492SOL    HW195790   9.883   3.042  10.900 -0.1654 -0.6340  2.3733
28492SOL    HW295791  10.032   3.066  10.887 -0.5043  0.7271  0.6002
28493SOL     OW95792   4.416  11.545   6.933  0.2468  0.0067 -0.1031
28493SOL    HW195793   4.398  11.452   6.925 -0.4665 -0.0001  1.3075
28493SOL    HW295794   4.510  11.553   6.914  0.2805 -0.9595 -0.4024
28494SOL     OW95795  11.351   8.285   6.817 -0.0649  0.3685 -0.3981
28494SOL    HW195796  11.290   8.303   6.745  1.3365  1.4951 -1.3754
28494SOL    HW295797  11.437   8.300   6.779  0.7106  1.3607  1.6182
28495SOL     OW95798   4.664   2.717   5.550 -0.1926  0.1473  0.5440
28495SOL    HW195799   4.644   2.722   5.456  0.2646 -0.3896  0.4077
28495SOL    HW295800   4.622   2.794   5.588 -0.0292  0.6043 -0.1714
28496SOL     OW95801  10.459   8.187   3.163  0.4914 -0.5111  0.4378
28496SOL    HW195802  10.447   8.188   3.258  0.8005 -1.0754  0.4874
28496SOL    HW295803  10.551   8.163   3.151  0.9926  1.3957  0.0326
28497SOL     OW95804   8.624   1.240   5.625  0.0019 -0.2599 -0.0877
28497SOL    HW195805   8.535   1.255   5.593  0.0493 -0.5621 -0.3707
28497SOL    HW295806   8.643   1.149   5.600 -0.7613 -1.2750  2.6465
28498SOL     OW95807  11.573   4.140   6.679 -0.9143  0.0379  0.4871
28498SOL    HW195808  11.520   4.151   6.600  0.2749 -0.1666 -0.3618
28498SOL    HW295809  11.539   4.206   6.739 -2.8593 -0.7937  0.4029
28499SOL     OW95810   1.991   3.184   3.753 -0.5628  0.2241 -0.3400
28499SOL    HW195811   2.001   3.241   3.677  0.1220 -0.2501 -0.6194
28499SOL    HW295812   2.075   3.137   3.759 -1.1691 -0.8812 -0.2246
28500SOL     OW95813   8.125   8.909   0.621 -0.3178 -0.8587  0.1067
28500SOL    HW195814   8.159   8.945   0.703  0.0200 -2.1160  0.5410
28500SOL    HW295815   8.033   8.890   0.640 -0.3686 -0.6820  0.0357
28501SOL     OW95816  11.490   1.320   9.732 -0.1834 -0.1908  0.0915
28501SOL    HW195817  11.562   1.339   9.672 -0.2713 -0.7557 -0.2032
28501SOL    HW295818  11.412   1.321   9.676 -0.3218 -0.2335  0.2840
28502SOL     OW95819   4.947  12.533  12.496 -0.3971  0.0902 -0.0553
28502SOL    HW195820   5.020  12.532  12.433 -1.3061  1.1703 -1.1771
28502SOL    HW295821   4.975  12.474  12.566  1.1999 -0.1573 -0.8558
28503SOL     OW95822   1.425   2.435  11.658  0.6028 -0.2331 -0.1680
28503SOL    HW195823   1.410   2.350  11.618 -2.7575  0.0235  0.3128
28503SOL    HW295824   1.398   2.425  11.749 -1.8672  1.7633 -0.5659
28504SOL     OW95825   6.656  12.293   2.448 -0.2251  0.4937  0.1952
28504SOL    HW195826   6.728  12.325   2.503  0.7125  0.4051 -0.9410
28504SOL    HW295827   6.699  12.243   2.379 -1.2603  1.7101 -1.3896
28505SOL     OW95828   9.040  11.070   7.311 -0.6089  0.0602  0.2380
28505SOL    HW195829   9.035  10.975   7.294  0.8053 -0.0085  0.0673
28505SOL    HW295830   9.134  11.088   7.318 -0.6654  1.8841 -2.2835
28506SOL     OW95831   3.250   2.464  11.830 -0.3294  0.5114 -0.1089
28506SOL    HW195832   3.244   2.418  11.913 -2.2877 -1.9967 -1.4951
28506SOL    HW295833   3.267   2.396  11.765  0.6655  2.3029 -1.8659
28507SOL     OW95834  11.381   5.166   1.426  0.4473  0.1368  0.5898
28507SOL    HW195835  11.301   5.161   1.479 -0.2518  1.4094 -0.2855
28507SOL    HW295836  11.351   5.201   1.342  1.7108 -0.7585 -0.2677
28508SOL     OW95837   5.638   9.437   9.115 -0.4128  0.0617 -0.1916
28508SOL    HW195838   5.556   9.394   9.140 -0.1554 -0.9129 -0.9565
28508SOL    HW295839   5.618   9.482   9.033 -0.2722  0.0848 -0.2139
28509SOL     OW95840   2.001  12.898   3.885  0.1224 -0.6041  0.1787
28509SOL    HW195841   2.049  12.962   3.938 -0.4429  0.3502 -0.4348
28509SOL    HW295842   1.980  12.828   3.946  0.5317 -0.0900  0.9304
28510SOL     OW95843   9.302  12.406   4.721  0.5174  0.2398  0.7550
28510SOL    HW195844   9.225  12.434   4.670 -1.0971  0.5600  3.2144
28510SOL    HW295845   9.287  12.312   4.736  0.8844  0.1897  0.8034
28511SOL     OW95846   7.621   9.884   9.014  0.2293  0.0960  0.0490
28511SOL    HW195847   7.556   9.899   9.082  1.3393  0.4943  1.0522
28511SOL    HW295848   7.692   9.945   9.034 -0.3219  1.8011 -2.7318
28512SOL     OW95849   6.972   8.994   3.124 -0.1263 -0.1498 -0.1802
28512SOL    HW195850   6.979   9.042   3.041  3.0478  0.1336  0.1399
28512SOL    HW295851   6.900   9.037   3.170 -1.1571  0.4926 -2.2263
28513SOL     OW95852   4.547   5.383   0.259 -0.0611 -0.1476  0.3442
28513SOL    HW195853   4.626   5.399   0.207 -1.7040  0.5853 -2.1144
28513SOL    HW295854   4.478   5.431   0.213 -2.0487 -1.1144  2.1431
28514SOL     OW95855   1.520   8.483   1.928  0.3269  0.0199  0.4248
28514SOL    HW195856   1.458   8.438   1.986 -0.7867  0.0977 -0.6620
28514SOL    HW295857   1.530   8.425   1.853 -0.0774  0.9413 -0.3739
28515SOL     OW95858   9.573   6.727   1.535  0.3176  0.4435  0.0816
28515SOL    HW195859   9.625   6.766   1.465 -0.1897  1.3621  0.1953
28515SOL    HW295860   9.626   6.654   1.567  0.7648  0.3082 -0.9349
28516SOL     OW95861   7.837   8.120   8.005  0.2361 -0.3190  0.3522
28516SOL    HW195862   7.884   8.039   8.025  0.6704 -0.3741 -0.7995
28516SOL    HW295863   7.904   8.179   7.969 -0.0526  0.6006  1.2807
28517SOL     OW95864   2.899   1.256   2.962  0.0332 -0.1539  0.1965
28517SOL    HW195865   2.864   1.336   3.002  1.9697  1.1287 -0.5114
28517SOL    HW295866   2.867   1.258   2.872  0.3587  0.0356  0.0807
28518SOL     OW95867   9.497   1.210   4.649  0.2488 -0.1459  0.1780
28518SOL    HW195868   9.550   1.149   4.597 -1.0767 -1.5584  0.4143
28518SOL    HW295869   9.475   1.279   4.587  1.8083  0.1620 -0.0923
28519SOL     OW95870   4.900   8.619   0.077  0.2513  0.3005 -0.1199
28519SOL    HW195871   4.958   8.633   0.002  0.7083  3.0840  0.6329
28519SOL    HW295872   4.960   8.602   0.150  0.1883  2.2941  0.4769
28520SOL     OW95873   0.816   6.798  10.883 -0.5128  0.3421 -0.4926
28520SOL    HW195874   0.766   6.738  10.939 -0.8523  1.1672  0.0978
28520SOL    HW295875   0.773   6.883  10.895  1.3511  1.2047  0.4862
28521SOL     OW95876   2.647  10.175  11.641 -0.2535  0.1298 -0.2482
28521SOL    HW195877   2.664  10.142  11.552  1.5950  0.6582 -0.1276
28521SOL    HW295878   2.674  10.103  11.698 -1.3239 -0.1610 -0.1003
28522SOL     OW95879   3.280   7.896   5.206 -0.2974  0.6220  0.3384
28522SOL    HW195880   3.303   7.935   5.122  1.5705 -0.2683  0.3751
28522SOL    HW295881   3.344   7.934   5.268  1.4464 -2.1719  0.4161
28523SOL     OW95882  11.108   7.680   2.285 -0.3914 -0.0036 -0.5686
28523SOL    HW195883  11.053   7.602   2.280 -0.1263 -0.3259  1.1092
28523SOL    HW295884  11.195   7.649   2.259 -0.3388 -0.2017 -0.1520
28524SOL     OW95885   7.891   7.520   4.260  0.1161 -0.7028  0.0134
28524SOL    HW195886   7.879   7.611   4.288  1.1683  0.2040 -2.2600
28524SOL    HW295887   7.907   7.473   4.342 -1.8071  0.8661  1.3985
28525SOL     OW95888  11.168   2.983   8.793 -0.2020 -1.0086 -0.5125
28525SOL    HW195889  11.094   2.948   8.742  0.0077 -0.9361 -0.8705
28525SOL    HW295890  11.238   2.993   8.729 -0.6465  1.3413 -0.7048
28526SOL     OW95891  11.214   5.565  12.095  0.0122  0.1837  0.0051
28526SOL    HW195892  11.126   5.528  12.104 -0.1260  0.0362 -1.7354
28526SOL    HW295893  11.271   5.489  12.082  0.0280  0.4090 -1.3853
28527SOL     OW95894   0.255   7.029   1.747  0.6790 -0.4956  0.6380
28527SOL    HW195895   0.271   6.945   1.790  1.5575  0.2572  1.8450
28527SOL    HW295896   0.292   7.093   1.806  0.4205  0.7266 -0.4867
28528SOL     OW95897  11.836  10.897   1.049 -0.6448 -0.4578 -0.0591
28528SOL    HW195898  11.894  10.972   1.035 -1.7702  0.1893 -1.6540
28528SOL    HW295899  11.767  10.931   1.105 -0.7567 -0.5089 -0.1647
28529SOL     OW95900   9.661   5.388  12.694  0.3781  0.6572 -0.2259
28529SOL    HW195901   9.716   5.456  12.732  1.5195 -0.1287 -0.4213
28529SOL    HW295902   9.588   5.379  12.755  1.3845  0.4888  0.9981
28530SOL     OW95903   9.542  12.794   3.587 -0.2580 -0.0092 -0.2028
28530SOL    HW195904   9.517  12.875   3.544 -1.3608 -0.4892 -0.5265
28530SOL    HW295905   9.564  12.734   3.515 -1.2183 -0.5335 -0.0826
28531SOL     OW95906  11.473   2.297  12.407  0.0422  0.1075  0.2234
28531SOL    HW195907  11.557   2.334  12.378 -0.4639 -0.3454 -1.9960
28531SOL    HW295908  11.432   2.264  12.327 -2.6543  1.0625  1.0987
28532SOL     OW95909   8.434   9.181   0.960  0.3100  0.0241 -0.6903
28532SOL    HW195910   8.439   9.096   0.917 -1.5386 -0.8925  0.7777
28532SOL    HW295911   8.525   9.212   0.962  0.7527 -0.8655 -3.1796
28533SOL     OW95912   3.559  12.423   8.256 -0.2736  0.0791  0.3348
28533SOL    HW195913   3.490  12.488   8.249 -0.3874  0.1781  2.0832
28533SOL    HW295914   3.637  12.472   8.280 -0.1950 -0.3221  0.9321
28534SOL     OW95915  12.187   4.865   7.170 -0.4529  0.0115  0.1730
28534SOL    HW195916  12.099   4.903   7.173 -1.2239 -1.6267 -0.1047
28534SOL    HW295917  12.185   4.807   7.093  0.7234 -0.3761  0.4155
28535SOL     OW95918   4.868   7.593   6.338 -0.0234 -0.1269 -0.0658
28535SOL    HW195919   4.842   7.552   6.420 -1.1259 -1.1607 -0.8873
28535SOL    HW295920   4.810   7.669   6.329  0.2902  0.1494  0.2440
28536SOL     OW95921   5.496   2.249   1.660  0.5637 -0.1230  0.3464
28536SOL    HW195922   5.484   2.318   1.595  0.0235 -1.4803 -1.0576
28536SOL    HW295923   5.447   2.279   1.736 -2.3101 -0.2862 -1.2967
28537SOL     OW95924  12.232   8.008   8.929 -0.5517  0.1938 -0.1810
28537SOL    HW195925  12.169   7.946   8.893 -1.8504  1.2283  0.1989
28537SOL    HW295926  12.185   8.051   9.001  0.0615  2.0625 -0.8293
28538SOL     OW95927   3.322   3.493   9.124 -0.2228  0.0312 -0.2939
28538SOL    HW195928   3.409   3.481   9.086 -0.5275  2.0211 -1.7278
28538SOL    HW295929   3.335   3.479   9.218  2.0590  2.1456 -0.2072
28539SOL     OW95930   3.815   2.660  12.202  0.1932  0.0845 -0.0748
28539SOL    HW195931   3.732   2.670  12.155 -1.0512 -0.2243  1.9320
28539SOL    HW295932   3.880   2.647  12.134 -1.3399  0.7777 -1.7392
28540SOL     OW95933  10.638   4.933   8.113  0.1559  0.4238  0.5174
28540SOL    HW195934  10.706   4.981   8.066  0.8610 -0.7794  0.2632
28540SOL    HW295935  10.556   4.969   8.080  0.6658  1.6244  0.5378
28541SOL     OW95936   7.212   3.028   6.700 -0.6094 -0.0385 -0.3246
28541SOL    HW195937   7.255   3.103   6.740  0.2785 -1.6168  1.8948
28541SOL    HW295938   7.147   3.000   6.765 -3.1583  0.6048 -2.4313
28542SOL     OW95939  11.363  10.425   9.690 -0.3653 -0.0264 -0.1437
28542SOL    HW195940  11.280  10.460   9.658  0.0235  1.3249  0.2404
28542SOL    HW295941  11.339  10.354   9.748 -1.2432  0.2002 -0.2149
28543SOL     OW95942   7.818   2.721   0.806 -0.0116  0.0114  0.5909
28543SOL    HW195943   7.775   2.636   0.805 -0.2666  0.1305  1.0460
28543SOL    HW295944   7.911   2.701   0.807 -0.0303 -0.2498 -0.8225
28544SOL     OW95945   2.092   0.531   3.505 -0.0433 -0.1075 -0.1317
28544SOL    HW195946   2.116   0.473   3.433 -0.7651 -0.4401 -0.1081
28544SOL    HW295947   2.000   0.552   3.490  0.6636  2.6308 -1.2431
28545SOL     OW95948   1.884   0.660   2.520  0.0241  0.0282 -0.4905
28545SOL    HW195949   1.923   0.747   2.526  2.8495 -1.1386  0.2091
28545SOL    HW295950   1.952   0.602   2.554 -1.0495 -2.6338 -2.4992
28546SOL     OW95951   5.110   2.208   3.588  0.9774 -0.6179 -0.6081
28546SOL    HW195952   5.159   2.286   3.615  2.0350 -1.2362 -0.6833
28546SOL    HW295953   5.064   2.181   3.668  1.3716 -0.4747 -0.3294
28547SOL     OW95954  11.067   0.046   1.782  0.0716 -0.0942 -0.1444
28547SOL    HW195955  10.993   0.024   1.839  0.8861 -0.2170  0.8860
28547SOL    HW295956  11.138  -0.012   1.811  0.2454 -0.8374 -1.9096
28548SOL     OW95957   3.750   3.197   4.247 -0.5809  0.5816  0.0875
28548SOL    HW195958   3.823   3.136   4.240 -1.4603 -0.6161  0.8870
28548SOL    HW295959   3.715   3.183   4.335 -3.4523 -0.9149 -1.1619
28549SOL     OW95960   3.609  10.591   3.457 -0.0776 -0.2254  0.1710
28549SOL    HW195961   3.696  10.593   3.498  0.0900 -1.1102 -0.1093
28549SOL    HW295962   3.574  10.505   3.480 -0.3752 -0.3578 -0.7320
28550SOL     OW95963   7.039   6.451   6.037  0.3249  0.6848 -0.4491
28550SOL    HW195964   7.103   6.391   6.075  0.3831  0.0101 -1.5622
28550SOL    HW295965   7.025   6.418   5.949 -0.2532  1.8500 -0.8175
28551SOL     OW95966   7.507  11.909   4.748 -0.3151  0.1380  0.4128
28551SOL    HW195967   7.553  11.971   4.804  0.1151  0.3002 -0.1153
28551SOL    HW295968   7.576  11.864   4.700 -0.6857  0.1849 -0.1762
28552SOL     OW95969   7.852   1.380   3.918  0.0388  0.5042  0.4140
28552SOL    HW195970   7.834   1.443   3.988  1.1916  0.4692  0.7525
28552SOL    HW295971   7.771   1.379   3.866 -0.5683  1.0685  1.3199
28553SOL     OW95972   5.446   0.532  11.713 -0.0391  0.1802 -0.8271
28553SOL    HW195973   5.394   0.536  11.633 -0.8623  0.0120 -0.3069
28553SOL    HW295974   5.509   0.603  11.705  0.3342 -0.2637 -1.9329
28554SOL     OW95975   4.806   4.424   2.821 -0.1406 -0.4995  0.4251
28554SOL    HW195976   4.794   4.495   2.759 -0.7811 -1.7428 -0.9510
28554SOL    HW295977   4.733   4.433   2.883 -0.2148  0.0410  0.2591
28555SOL     OW95978   0.149   9.813   0.723 -0.3856  0.0337 -0.0423
28555SOL    HW195979   0.124   9.809   0.816 -0.3048  1.4948  0.0708
28555SOL    HW295980   0.195   9.897   0.715  1.1247 -0.8420 -1.0502
28556SOL     OW95981  11.896   8.575   5.364 -0.5953 -0.3432 -0.3897
28556SOL    HW195982  11.945   8.493   5.357 -1.2065 -0.8721  1.1312
28556SOL    HW295983  11.936   8.620   5.438 -0.7362  0.4204 -0.7685
28557SOL     OW95984   5.197   0.201   8.691  0.3365 -0.0288  0.1882
28557SOL    HW195985   5.280   0.153   8.696  1.4329  1.6462 -0.7094
28557SOL    HW295986   5.187   0.222   8.598 -1.3915 -0.6396  0.2031
28558SOL     OW95987   4.060   4.225  11.542 -0.1014  0.5665 -0.2610
28558SOL    HW195988   4.049   4.186  11.455  0.6846  0.1534 -0.1917
28558SOL    HW295989   4.003   4.173  11.599 -1.2371  1.3482 -0.6551
28559SOL     OW95990   4.025   1.007   1.328 -0.2353 -0.4653  0.1559
28559SOL    HW195991   4.015   1.102   1.335 -0.5102 -0.5546  1.2779
28559SOL    HW295992   3.942   0.972   1.361 -0.2023 -1.0951 -0.4163
28560SOL     OW95993   5.887   6.485   4.953 -0.0813 -0.2049  0.3686
28560SOL    HW195994   5.803   6.528   4.940 -0.3151 -0.9071 -0.5465
28560SOL    HW295995   5.945   6.526   4.889  0.1642 -0.0209  0.7056
28561SOL     OW95996   3.535   0.280   3.989  0.1782 -0.1683  0.1534
28561SOL    HW195997   3.483   0.291   4.068  0.6528  1.5171  0.2519
28561SOL    HW295998   3.512   0.354   3.933  1.7224  0.0571 -0.2241
28562SOL     OW95999  10.359   5.245   0.377  0.2364  0.0313  0.1297
28562SOL    HW196000  10.440   5.197   0.394  0.6671  1.2823  1.9656
28562SOL    HW296001  10.314   5.246   0.461 -0.9490  0.6969 -0.4895
28563SOL     OW96002   6.103   3.069   0.640  0.0232 -0.1018  0.0156
28563SOL    HW196003   6.011   3.091   0.622 -0.0665 -0.5144 -0.0367
28563SOL    HW296004   6.152   3.144   0.606 -0.2842  0.0653 -0.0700
28564SOL     OW96005   9.721   6.385   5.774 -0.6358 -0.0300  0.2966
28564SOL    HW196006   9.785   6.453   5.797  1.5054 -1.3836 -1.3097
28564SOL    HW296007   9.739   6.366   5.682 -2.1932 -1.7205  0.2986
28565SOL     OW96008   2.310   1.632   0.075 -0.1805 -0.8349 -0.2906
28565SOL    HW196009   2.404   1.618   0.062 -0.1326  0.3488 -1.5261
28565SOL    HW296010   2.278   1.657  -0.012 -1.0888  1.5793  0.6500
28566SOL     OW96011   9.134   0.950   4.414  0.2860  0.0549 -1.0744
28566SOL    HW196012   9.054   0.947   4.361 -0.6369  0.1433  0.2347
28566SOL    HW296013   9.114   0.893   4.489  1.5177 -0.0407 -0.7957
28567SOL     OW96014   2.618   5.934   4.864 -0.7429  0.3314 -0.2002
28567SOL    HW196015   2.564   5.874   4.812 -0.1566  0.3761 -0.8683
28567SOL    HW296016   2.705   5.928   4.825 -0.3925  0.6954  0.5092
28568SOL     OW96017   9.764   7.385   1.412 -0.2616  0.3147  0.6543
28568SOL    HW196018   9.790   7.438   1.336 -1.7686  1.5707  0.9890
28568SOL    HW296019   9.838   7.324   1.424  1.0807  1.6730 -0.3299
28569SOL     OW96020   6.205  12.272   7.276  0.3699 -0.2590  0.1292
28569SOL    HW196021   6.112  12.272   7.299  0.3020 -0.5178 -0.1272
28569SOL    HW296022   6.205  12.254   7.182  0.6994 -0.8369  0.2326
28570SOL     OW96023   6.697   5.844  11.168 -0.2976 -0.0260 -0.4939
28570SOL    HW196024   6.766   5.910  11.153  0.5699 -0.3929  1.5717
28570SOL    HW296025   6.717   5.774  11.106 -0.4316  1.0406 -1.7846
28571SOL     OW96026   8.416  12.936   6.466 -0.7579 -0.1787 -0.0915
28571SOL    HW196027   8.322  12.939   6.483 -1.2240 -4.1733 -0.8937
28571SOL    HW296028   8.423  12.940   6.371 -0.4696 -2.5078 -0.2336
28572SOL     OW96029  10.789   5.906   2.436 -0.6498  0.4018  0.7081
28572SOL    HW196030  10.783   5.817   2.400  0.3207  0.9771 -1.0078
28572SOL    HW296031  10.855   5.899   2.506  0.9140  0.1166 -0.7380
28573SOL     OW96032   7.915   0.091   2.672  0.2768  0.4907  0.1086
28573SOL    HW196033   7.982   0.107   2.606 -0.4233 -0.0998 -0.7677
28573SOL    HW296034   7.945   0.013   2.719 -0.3895 -0.5380 -1.1183
28574SOL     OW96035  11.451  12.964  11.814  0.1704  0.2713  0.1157
28574SOL    HW196036  11.487  12.974  11.726  0.9035 -0.2770  0.3464
28574SOL    HW296037  11.357  12.956  11.801  0.1865  1.0648 -0.5463
28575SOL     OW96038   8.440   1.066   5.909 -0.0961  0.2549 -0.6538
28575SOL    HW196039   8.457   1.159   5.896  0.3210  0.0912 -1.3427
28575SOL    HW296040   8.511   1.036   5.965  0.8046 -0.0065 -1.8861
28576SOL     OW96041  12.126   1.080   4.523 -0.1800 -0.3483 -0.3477
28576SOL    HW196042  12.038   1.078   4.562  0.0243  0.3344  0.1782
28576SOL    HW296043  12.183   1.043   4.591  0.0832  0.1905 -0.2716
28577SOL     OW96044   6.155  11.533  11.034  0.3614  0.3273 -0.1890
28577SOL    HW196045   6.079  11.556  11.087  0.3659 -0.2916  0.0998
28577SOL    HW296046   6.167  11.607  10.975 -0.2737  0.5663 -0.0235
28578SOL     OW96047   2.837   4.303  11.784  0.5794 -0.6321  0.7199
28578SOL    HW196048   2.798   4.389  11.801 -0.7395 -1.4444  2.0063
28578SOL    HW296049   2.875   4.311  11.696  1.8235  1.7140  1.3722
28579SOL     OW96050  10.658   0.501  10.513  0.3089 -0.3368  0.2323
28579SOL    HW196051  10.588   0.449  10.473  0.4240 -0.0766 -0.3274
28579SOL    HW296052  10.615   0.581  10.542  0.8158  1.2989 -2.9714
28580SOL     OW96053   3.378   5.665  12.377 -0.1795  1.1479 -0.9667
28580SOL    HW196054   3.457   5.706  12.344  1.5004 -1.9410 -1.2140
28580SOL    HW296055   3.373   5.691  12.469  0.7154  1.9427 -1.1386
28581SOL     OW96056  10.016   0.293  12.400 -0.3359 -0.0048  0.1981
28581SOL    HW196057  10.019   0.225  12.467  0.4111 -0.6315 -0.4476
28581SOL    HW296058   9.972   0.251  12.326 -0.0765  0.2917 -0.1280
28582SOL     OW96059   0.294  12.489  10.215 -0.0425  0.2513  0.1395
28582SOL    HW196060   0.344  12.462  10.292 -0.9156 -0.5164  0.4484
28582SOL    HW296061   0.354  12.475  10.141  0.8349  1.0848  0.6634
28583SOL     OW96062   8.538   2.557   8.325 -0.0170  0.1831  0.1437
28583SOL    HW196063   8.560   2.649   8.342 -1.0200 -0.0378  3.2191
28583SOL    HW296064   8.451   2.561   8.285  0.1983  0.5845 -0.2999
28584SOL     OW96065   1.818   4.432   6.204  0.9767  0.2420 -0.4187
28584SOL    HW196066   1.893   4.416   6.261  1.3806  0.9691 -0.7288
28584SOL    HW296067   1.824   4.525   6.182  0.6784  0.0393 -1.4216
28585SOL     OW96068   7.348   0.020   4.722  0.4896  0.6349  0.0399
28585SOL    HW196069   7.301  -0.036   4.660  1.1843 -0.0783  0.1414
28585SOL    HW296070   7.306   0.105   4.713 -1.1447 -0.0794  0.4636
28586SOL     OW96071   1.745   7.342   9.370  0.3570 -0.0050  0.6602
28586SOL    HW196072   1.661   7.362   9.411  0.0116 -0.4496  0.1860
28586SOL    HW296073   1.806   7.336   9.443 -0.1026 -0.0848  1.0468
28587SOL     OW96074   9.723   1.433  12.632 -0.0164 -0.0567  0.2159
28587SOL    HW196075   9.817   1.424  12.649  0.1333 -0.4662 -0.7423
28587SOL    HW296076   9.694   1.499  12.694  1.0467  0.5769  0.0716
28588SOL     OW96077   3.133   7.509   6.273  0.0320  0.0197  0.4259
28588SOL    HW196078   3.096   7.421   6.269 -2.4364  0.9717  0.8058
28588SOL    HW296079   3.151   7.523   6.366  1.9750 -0.6205  0.1949
28589SOL     OW96080   2.384   9.537  10.312 -0.0632 -0.6266 -0.1194
28589SOL    HW196081   2.347   9.573  10.392 -3.3128 -1.2231 -1.1761
28589SOL    HW296082   2.377   9.442  10.323  0.2016 -0.7307 -0.7679
28590SOL     OW96083   9.354   4.777   9.444  0.5126  0.6278  0.4269
28590SOL    HW196084   9.407   4.772   9.524 -0.5947 -0.7578  1.1432
28590SOL    HW296085   9.289   4.844   9.463  0.1665  0.2060  0.7683
28591SOL     OW96086   6.208  11.854  10.095  0.4035  0.3573 -0.3067
28591SOL    HW196087   6.130  11.817  10.054  0.0939  0.5128  0.1283
28591SOL    HW296088   6.281  11.824  10.042 -0.0394  1.0855 -1.3626
28592SOL     OW96089   3.826   9.696   0.260  0.3566 -0.0747  0.7569
28592SOL    HW196090   3.771   9.636   0.311 -1.3674  0.4866 -0.3509
28592SOL    HW296091   3.808   9.782   0.296  0.7649  0.0855  0.5833
28593SOL     OW96092   4.403  12.558  11.690 -0.0051  0.1498 -0.3018
28593SOL    HW196093   4.309  12.570  11.700  0.2318  1.2862  0.9124
28593SOL    HW296094   4.424  12.481  11.743  0.2100  2.0466  2.6283
28594SOL     OW96095   3.422  11.893   2.243 -0.1005 -0.1073  0.2892
28594SOL    HW196096   3.468  11.809   2.241 -0.3564 -0.2403 -0.5880
28594SOL    HW296097   3.461  11.941   2.316  0.5700 -0.6946  0.3190
28595SOL     OW96098  11.496   6.311   4.236 -0.4014 -0.2493  0.1366
28595SOL    HW196099  11.424   6.338   4.293 -0.3264 -2.3397  1.3024
28595SOL    HW296100  11.571   6.300   4.296  1.4008  3.1215 -1.1771
28596SOL     OW96101   1.447  11.646   0.981  0.0678 -0.6026  0.0313
28596SOL    HW196102   1.507  11.635   1.054 -0.1361 -2.5583 -0.0460
28596SOL    HW296103   1.365  11.675   1.022  0.9825  2.1019  0.1313
28597SOL     OW96104   0.170   3.111  11.036  0.3656  0.1586 -0.2840
28597SOL    HW196105   0.113   3.128  11.111 -0.4535 -2.9468 -0.0723
28597SOL    HW296106   0.148   3.179  10.973 -0.5589  1.4979  1.4080
28598SOL     OW96107   6.305  10.481  12.169 -0.2000 -0.0703  0.3740
28598SOL    HW196108   6.398  10.482  12.194 -0.7720 -1.1673  2.7889
28598SOL    HW296109   6.297  10.406  12.111  0.1243 -1.1224  1.6465
28599SOL     OW96110   2.594   0.498   5.799 -0.4567  0.2188  0.0768
28599SOL    HW196111   2.502   0.472   5.802 -0.0010 -1.5925  0.1097
28599SOL    HW296112   2.628   0.455   5.720  0.5333  0.1286  0.5328
28600SOL     OW96113   1.420   6.759   2.518  0.3460  0.4525 -0.6344
28600SOL    HW196114   1.468   6.735   2.438  1.2514  2.7041 -0.8213
28600SOL    HW296115   1.482   6.811   2.569 -0.9596  0.9506  0.5091
28601SOL     OW96116   4.526   5.958   4.163  0.2746  0.0459 -0.0644
28601SOL    HW196117   4.434   5.979   4.152 -0.0028 -1.6948 -1.5988
28601SOL    HW296118   4.571   6.013   4.100 -0.0296 -0.9440 -1.1877
28602SOL     OW96119  11.402   4.335   3.451 -0.1380 -0.4406 -1.3973
28602SOL    HW196120  11.435   4.249   3.477 -0.1580 -0.0536 -0.0004
28602SOL    HW296121  11.475   4.376   3.405  0.6283 -0.4018 -0.1870
28603SOL     OW96122   7.551   8.201   2.287 -0.9314  0.2016  0.0130
28603SOL    HW196123   7.605   8.225   2.212 -0.9126 -0.1278 -0.0795
28603SOL    HW296124   7.549   8.280   2.341 -1.5001  0.6563 -0.6604
28604SOL     OW96125   5.928  10.536  10.091  0.3329 -0.7385  0.7281
28604SOL    HW196126   5.963  10.452  10.061  0.3684 -0.4974  0.0741
28604SOL    HW296127   5.999  10.599  10.075  0.5268 -0.6756  1.7675
28605SOL     OW96128   8.441   7.788  10.223  0.4189 -1.0138 -0.2024
28605SOL    HW196129   8.530   7.794  10.188  0.1556 -2.3909 -1.1417
28605SOL    HW296130   8.453   7.789  10.318  1.1356  2.9081 -0.1575
28606SOL     OW96131   8.352  10.697   5.942  0.1561  0.4319 -0.0979
28606SOL    HW196132   8.290  10.673   6.012  0.9751 -1.2404  0.0989
28606SOL    HW296133   8.349  10.624   5.881 -0.0249  1.5648 -1.5010
28607SOL     OW96134   9.374   5.884   2.370  0.0349 -0.3731  0.4222
28607SOL    HW196135   9.385   5.812   2.308 -3.5715 -0.7067 -0.0487
28607SOL    HW296136   9.411   5.851   2.452  0.6555 -1.7911 -0.3861
28608SOL     OW96137   2.381   6.803   6.839 -0.4054 -0.2718  0.2546
28608SOL    HW196138   2.447   6.826   6.904  0.1667  0.1337 -0.4585
28608SOL    HW296139   2.321   6.745   6.886 -1.3328  1.8313  1.8567
28609SOL     OW96140   0.702  12.292   7.382 -0.1890 -0.2108  0.3349
28609SOL    HW196141   0.617  12.330   7.361  0.3812 -0.3428 -2.7164
28609SOL    HW296142   0.695  12.201   7.353  1.2095  0.0153 -0.8516
28610SOL     OW96143   9.257   7.489   3.226 -0.2611 -0.0667 -0.0091
28610SOL    HW196144   9.256   7.582   3.249 -0.7838  0.5627 -2.2690
28610SOL    HW296145   9.348   7.472   3.199  0.0436 -0.4676  1.2098
28611SOL     OW96146   4.366   3.252   1.030 -0.2320  0.6639  0.3292
28611SOL    HW196147   4.373   3.271   0.936  0.7736  1.4096  0.5374
28611SOL    HW296148   4.451   3.277   1.066  0.6314 -2.6732  0.9525
28612SOL     OW96149   3.946   4.516   9.667  0.1996 -0.2185 -0.1280
28612SOL    HW196150   3.857   4.512   9.631 -0.3340 -0.1151  1.1445
28612SOL    HW296151   3.995   4.567   9.602 -0.3711 -1.2564 -1.4069
28613SOL     OW96152   1.804   9.019   1.332  0.1192  0.3987 -0.1096
28613SOL    HW196153   1.741   8.948   1.330  0.0629  0.1862  3.1460
28613SOL    HW296154   1.757   9.092   1.374  0.7280  1.7817 -1.7046
28614SOL     OW96155  11.588  11.719   3.838 -0.3805 -0.2879 -0.1639
28614SOL    HW196156  11.659  11.783   3.834 -1.0540  0.7096  2.1994
28614SOL    HW296157  11.508  11.769   3.819 -0.9944 -0.1850  2.4073
28615SOL     OW96158  10.813  11.046  10.352 -0.0134  0.2183  0.0564
28615SOL    HW196159  10.765  11.001  10.421  1.2087 -0.6669  0.3762
28615SOL    HW296160  10.885  11.089  10.398  0.2407  0.4443 -0.5456
28616SOL     OW96161   1.541   4.277   4.657  0.3840  0.1255  0.3144
28616SOL    HW196162   1.516   4.279   4.565 -1.1694  0.9451  0.7212
28616SOL    HW296163   1.637   4.281   4.656  0.4251 -0.4684 -1.2595
28617SOL     OW96164   0.711  12.752   7.419  0.0161 -0.3995 -0.1976
28617SOL    HW196165   0.639  12.689   7.409  0.1045 -0.8340  1.5984
28617SOL    HW296166   0.671  12.826   7.464  0.6751 -0.6616  0.8497
28618SOL     OW96167  12.054   5.145   6.975 -0.0886 -0.3969  0.0884
28618SOL    HW196168  11.975   5.193   6.951 -1.1488 -1.5084  1.2161
28618SOL    HW296169  12.023   5.074   7.031  1.8717 -0.0007  1.7884
28619SOL     OW96170   9.071   9.373   0.787 -0.5440  0.1425 -0.1131
28619SOL    HW196171   9.062   9.455   0.835  0.8392  1.1200 -1.4550
28619SOL    HW296172   9.054   9.305   0.853 -1.1100  1.4708  1.1661
28620SOL     OW96173   9.995   0.627  10.458 -0.2092 -0.1040 -0.3291
28620SOL    HW196174  10.033   0.689  10.520  1.5502 -1.4206 -0.0254
28620SOL    HW296175   9.936   0.573  10.511 -0.6722  0.3814 -0.3328
28621SOL     OW96176   6.364   2.257   0.569  0.3587  0.3824  0.0496
28621SOL    HW196177   6.322   2.342   0.554  0.1701  0.0591 -1.4447
28621SOL    HW296178   6.453   2.278   0.595 -0.1019  1.0447  1.1630
28622SOL     OW96179   1.682   4.076   6.552  0.1402  0.3908 -0.1961
28622SOL    HW196180   1.692   4.031   6.636 -0.4202 -0.7020 -0.6931
28622SOL    HW296181   1.717   4.164   6.567 -0.1877  0.2942  1.2427
28623SOL     OW96182   5.859   3.196   0.633 -0.0522  0.0735 -0.0178
28623SOL    HW196183   5.767   3.172   0.643 -0.0979  1.0610  2.6411
28623SOL    HW296184   5.858   3.290   0.620  0.5616  0.0050 -0.5830
28624SOL     OW96185   4.829   7.258   5.819  0.2799  0.2115  0.1759
28624SOL    HW196186   4.858   7.202   5.747  1.3487 -0.7948  1.3501
28624SOL    HW296187   4.735   7.242   5.826  0.4791 -1.0890  0.1629
28625SOL     OW96188   7.892   2.986   1.087 -0.1427 -0.5124 -0.1248
28625SOL    HW196189   7.845   2.978   1.004 -1.0234 -0.4694  0.3526
28625SOL    HW296190   7.943   2.906   1.094 -2.1071 -1.7740  0.5051
28626SOL     OW96191   5.142   7.797   5.976 -0.2020 -0.0978 -0.3213
28626SOL    HW196192   5.191   7.858   6.031 -1.7887 -0.4528  1.5956
28626SOL    HW296193   5.057   7.840   5.962  0.0782 -0.1042 -2.4043
28627SOL     OW96194   4.201   3.948   0.417 -0.2520 -0.3239 -0.0226
28627SOL    HW196195   4.206   4.019   0.353 -2.2839  2.2784  2.4562
28627SOL    HW296196   4.108   3.940   0.438 -0.0586 -3.5346  0.1075
28628SOL     OW96197   8.081  12.411   7.572 -0.5363  0.6234  0.0872
28628SOL    HW196198   8.048  12.365   7.649 -0.0709  1.4508  0.8001
28628SOL    HW296199   8.072  12.348   7.500 -0.4607 -0.3632  0.9211
28629SOL     OW96200  12.467   4.366  10.318 -0.3390  0.3102  0.0547
28629SOL    HW196201  12.467   4.273  10.342 -0.7391  0.5333  0.9873
28629SOL    HW296202  12.460   4.366  10.223  0.4908 -0.6222 -0.0209
28630SOL     OW96203   4.441  10.285  12.731 -0.0907 -0.0516  0.6621
28630SOL    HW196204   4.398  10.340  12.665  1.2783  1.2341  0.7818
28630SOL    HW296205   4.374  10.222  12.757 -1.0517  0.1943 -1.0499
28631SOL     OW96206   4.867   1.958  11.891  0.0277  0.5954  0.6654
28631SOL    HW196207   4.811   1.900  11.943  0.6724  0.0042  0.7109
28631SOL    HW296208   4.909   2.015  11.956  0.0890  0.5095  0.7004
28632SOL     OW96209   0.471   7.771  10.550 -0.4867  0.2506 -0.0936
28632SOL    HW196210   0.524   7.749  10.627 -1.4283  3.3413  1.5903
28632SOL    HW296211   0.493   7.703  10.486  1.6247 -1.4912  2.2742
28633SOL     OW96212   6.491  12.695   1.068 -0.0879 -0.0657 -0.0203
28633SOL    HW196213   6.577  12.730   1.044  0.9692 -1.2080  1.8285
28633SOL    HW296214   6.490  12.607   1.031  0.9095 -1.2331  2.4159
28634SOL     OW96215   4.198   2.414   3.884  0.3860 -0.4618 -0.5642
28634SOL    HW196216   4.212   2.508   3.889  0.8417 -0.4953 -1.1768
28634SOL    HW296217   4.280   2.376   3.915  0.1299 -0.6686 -0.1093
28635SOL     OW96218   1.760   4.143   8.562 -0.3605  0.0707  0.4649
28635SOL    HW196219   1.724   4.175   8.645 -1.3708  0.8471 -0.2337
28635SOL    HW296220   1.737   4.050   8.559 -3.0146  0.6565 -0.2351
28636SOL     OW96221   6.563   2.863   5.774 -0.6001  0.3280  0.7738
28636SOL    HW196222   6.557   2.780   5.823 -0.0619 -0.4677 -0.4540
28636SOL    HW296223   6.653   2.866   5.744 -0.9235  0.7879 -0.1773
28637SOL     OW96224  10.329   6.133   7.386  0.1925  0.8232  0.3248
28637SOL    HW196225  10.255   6.179   7.424  0.4631  2.0250 -0.5738
28637SOL    HW296226  10.330   6.159   7.294  0.0567 -1.3729 -0.3624
28638SOL     OW96227  12.220  11.935   6.495 -0.2954  0.0876 -0.5990
28638SOL    HW196228  12.165  11.965   6.567 -3.0079  0.2976 -2.5730
28638SOL    HW296229  12.178  11.854   6.465  1.9277 -1.0852 -0.7374
28639SOL     OW96230  10.259   9.078   3.037  0.6086 -0.6118  0.0508
28639SOL    HW196231  10.271   8.984   3.050 -0.9994 -0.8493 -0.0524
28639SOL    HW296232  10.274   9.115   3.124  0.9390 -0.9846  0.1584
28640SOL     OW96233   2.429   4.706   6.784  0.2944 -0.2849  0.5120
28640SOL    HW196234   2.504   4.721   6.842 -1.1253  1.4858  2.0207
28640SOL    HW296235   2.454   4.748   6.702  1.6644 -1.3432  0.3566
28641SOL     OW96236   8.359   7.350   4.442  0.4366 -0.0923  0.2373
28641SOL    HW196237   8.447   7.386   4.427  0.7245 -0.6662  0.5314
28641SOL    HW296238   8.310   7.372   4.362  0.6236  0.8966  0.3876
28642SOL     OW96239   2.219  12.757   8.633 -0.0084  0.0891 -0.3884
28642SOL    HW196240   2.200  12.678   8.581  0.1903 -1.0313  1.1722
28642SOL    HW296241   2.295  12.796   8.590 -0.5727 -0.1054 -1.6411
28643SOL     OW96242   8.126   2.917   4.807 -0.0832  0.4654 -0.0005
28643SOL    HW196243   8.139   3.004   4.771  0.6857  1.2216  1.9681
28643SOL    HW296244   8.214   2.886   4.827 -0.4222 -0.3186  0.3299
28644SOL     OW96245   8.558  11.902  12.772 -0.4178 -0.0851 -0.4573
28644SOL    HW196246   8.539  11.834  12.706 -0.9011 -0.0117 -0.3984
28644SOL    HW296247   8.642  11.876  12.809  0.1064  0.1415 -1.4526
28645SOL     OW96248  10.729   3.191   4.421  0.1893 -0.0422 -0.2965
28645SOL    HW196249  10.639   3.159   4.420 -0.4120  1.4544  1.5044
28645SOL    HW296250  10.739   3.236   4.337 -0.7202 -0.2703 -0.5393
28646SOL     OW96251   0.620   1.323  11.565  0.1486 -0.1036 -0.6458
28646SOL    HW196252   0.628   1.351  11.474 -0.2763  0.8650 -0.3953
28646SOL    HW296253   0.641   1.401  11.617 -3.9089  0.7105  0.0786
28647SOL     OW96254   0.006  12.803   7.752  0.2669 -0.0408  0.6138
28647SOL    HW196255  -0.015  12.885   7.797  0.5750  0.3867 -0.0140
28647SOL    HW296256   0.037  12.746   7.822 -3.6294 -1.0147  1.7684
28648SOL     OW96257  12.683   3.131   7.210 -0.3855  0.4167  0.2634
28648SOL    HW196258  12.606   3.086   7.243 -0.9068  1.8881  1.1643
28648SOL    HW296259  12.667   3.223   7.230  1.4216  0.8081  0.0736
28649SOL     OW96260  11.913   3.778   2.587 -0.2727  0.2327 -0.0237
28649SOL    HW196261  11.928   3.687   2.559 -1.3699 -1.2146  3.4850
28649SOL    HW296262  11.857   3.815   2.519  0.6376 -1.4758 -1.8443
28650SOL     OW96263   7.460  12.237   4.462 -0.9002 -0.2005 -0.4199
28650SOL    HW196264   7.412  12.180   4.521  1.4673 -0.5892  1.2513
28650SOL    HW296265   7.494  12.307   4.518  2.6877 -1.3730 -0.8296
28651SOL     OW96266   3.815  11.333   7.580 -0.1940 -0.2950 -0.3974
28651SOL    HW196267   3.733  11.288   7.598 -0.3171  0.8284  2.2647
28651SOL    HW296268   3.790  11.423   7.559  0.3121 -0.1160 -0.2585
28652SOL     OW96269   4.942   2.031   0.332 -0.0952 -0.0787 -0.2803
28652SOL    HW196270   4.964   1.963   0.268 -2.2037 -1.8850  0.7768
28652SOL    HW296271   4.847   2.031   0.335 -0.0824  0.4799  2.2938
28653SOL     OW96272   3.972   0.508   0.090 -0.1891  0.3583 -0.2122
28653SOL    HW196273   3.876   0.503   0.091 -0.1585 -0.1655  0.3875
28653SOL    HW296274   3.990   0.593   0.049 -0.9012  0.3783 -0.5119
28654SOL     OW96275   6.441  11.641   9.048 -0.9943  0.0175  0.6685
28654SOL    HW196276   6.472  11.552   9.036  1.9516  0.9842  0.4456
28654SOL    HW296277   6.396  11.662   8.966 -0.2494 -0.7147  0.0619
28655SOL     OW96278   2.979   7.796  10.999 -0.5866  0.3404 -0.2624
28655SOL    HW196279   3.015   7.718  10.957 -0.6200  0.1695  0.0251
28655SOL    HW296280   3.004   7.788  11.091 -4.7719 -1.9620  0.9774
28656SOL     OW96281   9.967   4.840  10.388 -0.2413 -0.5319 -0.0888
28656SOL    HW196282   9.872   4.836  10.399 -0.2146 -0.8579  0.0229
28656SOL    HW296283  10.000   4.768  10.441 -0.0826 -1.9569 -2.0335
28657SOL     OW96284  10.754  12.416  11.211  0.3161  0.1773 -0.2372
28657SOL    HW196285  10.827  12.356  11.198  0.3608 -0.0722  1.0313
28657SOL    HW296286  10.788  12.502  11.185  1.0591  0.0650  0.3569
28658SOL     OW96287  11.982   0.373   5.091  0.3711 -0.2348 -0.0098
28658SOL    HW196288  11.912   0.389   5.027  0.3469 -1.6935 -0.3870
28658SOL    HW296289  12.044   0.444   5.077 -0.5453  0.5251 -0.3513
28659SOL     OW96290  10.937   4.057   5.988  0.2850 -0.4958 -0.0157
28659SOL    HW196291  10.916   4.131   5.931  1.7608  0.7830  1.0212
28659SOL    HW296292  11.016   4.018   5.950  2.7596  1.8440  2.2866
28660SOL     OW96293   0.411  10.313   0.678 -0.1625  0.2677  0.2065
28660SOL    HW196294   0.432  10.400   0.646  0.3508 -0.4539 -1.5094
28660SOL    HW296295   0.315  10.310   0.677 -0.1685  0.2529 -1.3855
28661SOL     OW96296   2.049   0.487   8.365 -0.0249  0.3542  0.3890
28661SOL    HW196297   2.018   0.444   8.285  1.9202 -0.5628  0.0656
28661SOL    HW296298   2.039   0.421   8.433  2.0257 -0.3492  0.0843
28662SOL     OW96299   3.810   8.500   2.920  0.3268 -0.1312 -0.1523
28662SOL    HW196300   3.859   8.486   3.001  2.2239  2.1480 -0.7625
28662SOL    HW296301   3.724   8.529   2.948  0.5414 -0.5850  1.0295
28663SOL     OW96302  12.873   4.923   9.943  0.3042 -0.3222 -0.4285
28663SOL    HW196303  12.910   4.935   9.855  2.4488 -0.0091  0.4538
28663SOL    HW296304  12.782   4.897   9.927 -1.1078  4.7414 -2.7122
28664SOL     OW96305   5.362   7.484  11.034 -0.2279 -0.0079 -0.0135
28664SOL    HW196306   5.401   7.507  10.949  0.7055  0.7511  0.6003
28664SOL    HW296307   5.323   7.566  11.065  1.0675  0.2153  1.1225
28665SOL     OW96308   6.211   0.894  11.929 -0.0162  0.3521 -0.3980
28665SOL    HW196309   6.123   0.859  11.941  0.3561  0.1227  2.1842
28665SOL    HW296310   6.198   0.988  11.918 -0.5865  0.3634  0.2990
28666SOL     OW96311   1.317   5.651  10.866 -0.3726 -0.4573 -0.2242
28666SOL    HW196312   1.289   5.564  10.897  1.6920 -0.7552  1.0583
28666SOL    HW296313   1.271   5.712  10.923 -0.0017 -0.8378  0.5079
28667SOL     OW96314   2.694  10.726   2.745  0.1984 -0.0803  0.1646
28667SOL    HW196315   2.758  10.770   2.801 -0.7282  0.2003  1.0323
28667SOL    HW296316   2.681  10.785   2.672 -2.1177  1.8836  2.0203
28668SOL     OW96317  11.257  11.584   2.455  0.0520 -0.2826 -0.1957
28668SOL    HW196318  11.239  11.562   2.547 -0.0824  1.1095  0.1384
28668SOL    HW296319  11.177  11.562   2.409 -0.0179 -0.6302  0.0879
28669SOL     OW96320  11.276  11.876  10.406 -0.2248 -0.2114  0.3462
28669SOL    HW196321  11.312  11.819  10.338  0.8435  0.8477 -0.0077
28669SOL    HW296322  11.182  11.861  10.402  0.0506 -2.3633  0.6568
28670SOL     OW96323   1.460   7.102   7.723  0.0597  0.2424  0.3085
28670SOL    HW196324   1.448   7.196   7.713 -0.6809  0.1459  0.2768
28670SOL    HW296325   1.467   7.068   7.634  1.4032  0.3905  0.3321
28671SOL     OW96326   4.535   4.604   1.000 -0.0307  0.5122 -0.4358
28671SOL    HW196327   4.463   4.666   1.010 -0.1317  0.0738  2.0207
28671SOL    HW296328   4.600   4.652   0.949 -0.8324  2.0104 -0.1106
28672SOL     OW96329   4.788  12.722  10.593  0.4036 -0.2691  0.1986
28672SOL    HW196330   4.814  12.798  10.540  1.7662 -0.2236  0.8735
28672SOL    HW296331   4.808  12.749  10.683  0.5875 -1.3108  0.4752
28673SOL     OW96332   2.618   8.124   4.253 -0.2143  0.0814  0.3455
28673SOL    HW196333   2.530   8.097   4.278 -0.5116  1.3525  0.7099
28673SOL    HW296334   2.610   8.151   4.162 -1.0806  3.6658  1.3301
28674SOL     OW96335   6.977   5.044   5.727 -0.8028 -0.3010  1.1139
28674SOL    HW196336   6.971   5.074   5.818  3.5922  0.1680  1.4632
28674SOL    HW296337   6.972   5.124   5.675  1.7164  0.1549  1.4256
28675SOL     OW96338   4.146   0.743   9.081 -0.2141  0.2714 -0.7427
28675SOL    HW196339   4.156   0.662   9.131  2.9564  1.0205  0.0904
28675SOL    HW296340   4.176   0.722   8.993 -0.7062  0.2245 -0.9017
28676SOL     OW96341   3.869   3.401   7.165  0.1899 -0.1727  0.4077
28676SOL    HW196342   3.808   3.441   7.226 -0.5906 -1.4010  0.4829
28676SOL    HW296343   3.813   3.367   7.094  0.9198 -0.1750 -0.1851
28677SOL     OW96344   7.213  10.616  12.829 -0.2625  0.2547 -0.2906
28677SOL    HW196345   7.288  10.644  12.777  0.5241 -1.1080  0.0403
28677SOL    HW296346   7.138  10.627  12.771  0.4880 -0.4310 -1.4462
28678SOL     OW96347   6.302   4.534   1.741  0.6830 -0.7023  0.7541
28678SOL    HW196348   6.384   4.558   1.698  0.4813 -0.6666  0.3829
28678SOL    HW296349   6.263   4.618   1.766  1.9440 -0.7720  3.2201
28679SOL     OW96350   2.722   6.438  10.874 -0.8172  0.1288 -0.0151
28679SOL    HW196351   2.690   6.402  10.791 -1.0277  0.5976 -0.1373
28679SOL    HW296352   2.737   6.531  10.856  0.6259 -0.0856  0.0400
28680SOL     OW96353  11.705   6.477   5.792 -0.1236 -0.2483 -0.1037
28680SOL    HW196354  11.747   6.397   5.823  0.3176  0.1864  0.4318
28680SOL    HW296355  11.703   6.535   5.868  1.9623  1.2483 -1.0822
28681SOL     OW96356  10.654   2.698   9.981 -0.1381 -0.3032 -0.4832
28681SOL    HW196357  10.716   2.727  10.048 -2.1594  0.3894  1.1678
28681SOL    HW296358  10.568   2.720  10.016 -1.2871  1.1778 -3.8053
28682SOL     OW96359   5.752  12.601   0.072 -0.3410  0.6103 -0.9292
28682SOL    HW196360   5.771  12.624  -0.019 -0.4488  2.6158 -0.5100
28682SOL    HW296361   5.707  12.679   0.107 -2.5656 -1.0602  0.1798
28683SOL     OW96362   3.450   9.112   1.691  0.2132  0.6353  0.1581
28683SOL    HW196363   3.488   9.192   1.657 -1.1054  0.5222 -1.7375
28683SOL    HW296364   3.367   9.139   1.730  0.3806  0.3622  0.7168
28684SOL     OW96365   1.809   0.086  10.928 -0.4681 -0.0921  0.2926
28684SOL    HW196366   1.898   0.065  10.954 -0.7194 -0.3184  0.9828
28684SOL    HW296367   1.814   0.099  10.833  0.2064 -0.5677  0.2597
28685SOL     OW96368   2.209   0.674   4.276 -0.0161 -0.0626  0.2985
28685SOL    HW196369   2.187   0.610   4.344  0.8720 -1.1083 -0.3596
28685SOL    HW296370   2.295   0.647   4.245  0.1771  1.1969 -0.3238
28686SOL     OW96371   6.597   3.251   5.415  0.5127  0.5031 -0.2664
28686SOL    HW196372   6.665   3.221   5.355 -0.2272  1.2088 -1.5162
28686SOL    HW296373   6.620   3.213   5.499  2.7117  1.1205 -0.5320
28687SOL     OW96374   7.178   0.450   2.389 -0.3682  0.3504 -0.3529
28687SOL    HW196375   7.093   0.490   2.370 -0.2375 -0.1110 -2.0200
28687SOL    HW296376   7.242   0.517   2.366 -0.2435  0.7624  1.0660
28688SOL     OW96377   4.733   0.484   5.122  0.3379  0.1868 -0.0129
28688SOL    HW196378   4.680   0.404   5.121  0.8514 -0.1569 -1.2664
28688SOL    HW296379   4.803   0.465   5.185  0.7822 -0.5904 -0.7148
28689SOL     OW96380  11.369   7.443   5.100  0.1529 -0.1354  0.3434
28689SOL    HW196381  11.395   7.396   5.179  1.4389  1.2494  0.7931
28689SOL    HW296382  11.339   7.528   5.132  1.9114  0.9345 -0.7221
28690SOL     OW96383   9.856  10.338   9.300  0.1979 -0.1274  0.3868
28690SOL    HW196384   9.780  10.324   9.243 -0.5351 -0.2556  1.3777
28690SOL    HW296385   9.931  10.323   9.242 -0.4894 -3.5918  0.1767
28691SOL     OW96386   8.531   0.038   2.675  0.5312  0.0669 -0.3099
28691SOL    HW196387   8.475   0.024   2.751 -0.6728 -0.3123 -1.2471
28691SOL    HW296388   8.471   0.053   2.603  1.6141 -0.6850 -1.4167
28692SOL     OW96389   2.834  11.128   0.497  0.1877  0.1853  0.8082
28692SOL    HW196390   2.914  11.133   0.444  0.4513 -0.8131  1.1009
28692SOL    HW296391   2.779  11.199   0.463  1.0291  0.6227  0.3261
28693SOL     OW96392   1.527   7.577   8.599 -0.3619 -0.1598  0.2809
28693SOL    HW196393   1.618   7.604   8.590 -0.1197 -1.1308 -0.3574
28693SOL    HW296394   1.479   7.633   8.538  0.0105 -0.5748 -0.4064
28694SOL     OW96395   5.238  11.166   7.206 -0.2021  0.1817  0.5257
28694SOL    HW196396   5.216  11.073   7.204  0.1219  0.1105 -1.6881
28694SOL    HW296397   5.324  11.172   7.164 -1.3655  1.6975 -1.8905
28695SOL     OW96398   4.688   2.110   0.312  0.2646  0.4151 -0.7865
28695SOL    HW196399   4.648   2.190   0.346  2.0391 -0.0006  2.7818
28695SOL    HW296400   4.762   2.140   0.260 -0.2455  1.0900 -1.1400
28696SOL     OW96401   9.715  12.341   5.324  0.4621 -0.0573  0.1656
28696SOL    HW196402   9.736  12.307   5.237  0.4825 -1.0880  0.5527
28696SOL    HW296403   9.797  12.377   5.357 -0.1359  2.8970 -1.3045
28697SOL     OW96404   1.547   9.204  12.936  0.6829 -0.7699 -0.3429
28697SOL    HW196405   1.580   9.177  13.022  1.4648 -1.3902 -0.8262
28697SOL    HW296406   1.562   9.128  12.879  1.3936  0.0908 -1.3338
28698SOL     OW96407   0.038  11.730   2.656 -0.5526  0.0535  0.4843
28698SOL    HW196408   0.100  11.803   2.660  0.1798 -0.4867 -0.5568
28698SOL    HW296409  -0.031  11.754   2.717  0.3260  1.0135  1.1404
28699SOL     OW96410  10.924   2.868   0.606 -0.1537 -0.1740 -0.2894
28699SOL    HW196411  10.867   2.942   0.628  2.2646  1.6982  0.1912
28699SOL    HW296412  10.918   2.861   0.511  1.1784  2.1894 -0.6450
28700SOL     OW96413  12.450   5.592   4.230  0.3136 -0.1179 -0.2719
28700SOL    HW196414  12.389   5.649   4.276  0.2111 -0.7769  0.4421
28700SOL    HW296415  12.394   5.535   4.176  0.4529  0.8685 -1.4896
28701SOL     OW96416   4.001   1.440   6.161 -0.7645  0.5289  0.3940
28701SOL    HW196417   3.912   1.430   6.128 -0.1601 -1.2549 -0.8856
28701SOL    HW296418   4.017   1.359   6.211  0.8978 -0.3370 -1.4259
28702SOL     OW96419  11.315   0.314   7.689 -0.3109 -0.5825  0.1769
28702SOL    HW196420  11.324   0.267   7.606  0.6327 -0.8432  0.4183
28702SOL    HW296421  11.265   0.392   7.666  2.2315  0.7828 -1.2568
28703SOL     OW96422   6.502   5.060   2.105  0.7756  0.2281 -0.1474
28703SOL    HW196423   6.576   5.107   2.143  0.3062  0.3316  0.6535
28703SOL    HW296424   6.432   5.068   2.170 -0.0267  0.3494 -0.9993
28704SOL     OW96425  11.794   8.309  11.194  0.2797  0.0848  0.0206
28704SOL    HW196426  11.837   8.353  11.267 -0.6183 -2.0321  1.9288
28704SOL    HW296427  11.859   8.247  11.162  1.8459  2.9823 -3.1897
28705SOL     OW96428  11.576   3.384   2.019  0.1566  0.1302 -0.3924
28705SOL    HW196429  11.512   3.381   2.090 -0.2563  0.8091 -0.7317
28705SOL    HW296430  11.575   3.474   1.988  1.0032  0.0641 -0.6579
28706SOL     OW96431   9.423   1.589  10.716 -0.4203  0.2575  0.1259
28706SOL    HW196432   9.409   1.540  10.797  0.0712  1.5515  1.0363
28706SOL    HW296433   9.337   1.621  10.692 -0.7067 -0.8554 -0.3518
28707SOL     OW96434   4.124  10.499   8.539  0.5806  0.2984 -0.5383
28707SOL    HW196435   4.192  10.432   8.544 -0.6711 -1.0556 -0.9577
28707SOL    HW296436   4.060  10.475   8.606 -0.1278  0.7918 -1.0157
28708SOL     OW96437   3.263   5.945   2.596 -0.3282  0.3129 -0.3158
28708SOL    HW196438   3.268   6.029   2.641 -0.7724  0.5693 -0.7249
28708SOL    HW296439   3.175   5.944   2.558 -0.0860 -0.0404 -0.8875
28709SOL     OW96440   4.345  11.350   6.485 -0.2695 -0.2592  0.0915
28709SOL    HW196441   4.357  11.429   6.537  0.1867 -0.5313  0.4045
28709SOL    HW296442   4.294  11.291   6.542  0.4491 -0.6539  0.3377
28710SOL     OW96443   0.758   0.528  12.196 -0.0420  0.6103 -0.2330
28710SOL    HW196444   0.746   0.494  12.107 -0.8955 -0.2657  0.2013
28710SOL    HW296445   0.724   0.459  12.253 -1.0356  1.8240  0.7118
28711SOL     OW96446   4.292   2.270   8.609 -0.1774 -0.0194 -0.3582
28711SOL    HW196447   4.299   2.365   8.599 -0.1906 -0.2091 -2.7121
28711SOL    HW296448   4.312   2.254   8.701 -1.6942  2.3819  0.4658
28712SOL     OW96449  11.490  10.645  10.929 -0.1761 -0.4953  0.7243
28712SOL    HW196450  11.573  10.635  10.882  0.3773 -0.6753  1.7119
28712SOL    HW296451  11.424  10.658  10.860  0.7576  0.2908 -0.0432
28713SOL     OW96452   2.178  12.656  10.255 -0.1268 -0.0165  0.0849
28713SOL    HW196453   2.219  12.587  10.202  4.4746  1.0054  1.8344
28713SOL    HW296454   2.192  12.628  10.345 -2.0059  1.2936  0.8391
28714SOL     OW96455  10.516   4.118   0.503 -0.1848  0.0094  0.0646
28714SOL    HW196456  10.447   4.052   0.507  0.4416 -0.7612 -1.1622
28714SOL    HW296457  10.592   4.071   0.468 -0.5075  1.9084 -3.7519
28715SOL     OW96458   8.081   8.526   6.576  0.0914 -0.5033  0.4385
28715SOL    HW196459   8.151   8.570   6.529 -0.9287 -0.9567 -1.5980
28715SOL    HW296460   8.112   8.437   6.588 -0.6258 -1.0768 -1.6671
28716SOL     OW96461   1.510   9.786   8.138  0.2016 -0.2265  0.6676
28716SOL    HW196462   1.472   9.743   8.062 -0.2555 -1.3574  1.5171
28716SOL    HW296463   1.605   9.781   8.123  0.1147  0.7430 -0.4353
28717SOL     OW96464   9.170  12.657   8.108  0.0647  0.0109  0.4284
28717SOL    HW196465   9.217  12.593   8.161  0.4344  0.9946  1.3330
28717SOL    HW296466   9.079  12.650   8.137  0.0475 -0.3220  0.2968
28718SOL     OW96467   0.547   0.572   8.487  0.2672 -0.3747  0.0889
28718SOL    HW196468   0.548   0.495   8.544  1.0882 -0.2629  0.2269
28718SOL    HW296469   0.629   0.617   8.505 -1.6858  2.5357  2.6851
28719SOL     OW96470   2.649  10.722   9.269 -0.1769 -0.0693  0.2287
28719SOL    HW196471   2.613  10.640   9.234 -3.8158  1.4828 -0.0522
28719SOL    HW296472   2.690  10.764   9.194 -4.5716  1.4626 -1.6539
28720SOL     OW96473   3.749   6.839   8.269  0.1504 -0.1177 -0.1583
28720SOL    HW196474   3.667   6.795   8.249  1.1923 -1.6468 -1.4113
28720SOL    HW296475   3.732   6.888   8.349 -1.7360 -1.0184  0.0462
28721SOL     OW96476   3.159   4.820  10.394  0.1310 -0.1857 -0.1794
28721SOL    HW196477   3.227   4.756  10.373  0.9035  0.9010 -1.1484
28721SOL    HW296478   3.086   4.768  10.428  1.7255 -1.3077  1.7082
28722SOL     OW96479   0.850   1.660   7.441  0.2284  0.4237  0.5980
28722SOL    HW196480   0.893   1.698   7.364  1.2836 -1.0533  0.3955
28722SOL    HW296481   0.920   1.653   7.506 -0.0430 -0.6435  0.7968
28723SOL     OW96482   7.246   7.331   7.356  0.3628 -0.2492 -0.0232
28723SOL    HW196483   7.284   7.369   7.276 -0.5643  0.6188 -0.0762
28723SOL    HW296484   7.152   7.338   7.343  0.1784 -1.4265  0.5430
28724SOL     OW96485  12.335  10.375   8.087 -0.4530  0.3027 -0.4739
28724SOL    HW196486  12.277  10.306   8.117 -0.2251 -0.9263 -2.6256
28724SOL    HW296487  12.292  10.456   8.112 -1.7773 -0.5958  0.2522
28725SOL     OW96488   7.855   0.059  10.994  0.4490  0.1342 -0.0092
28725SOL    HW196489   7.847  -0.035  11.003 -0.4276  0.3580  2.1344
28725SOL    HW296490   7.933   0.082  11.046  1.3373  0.5043 -1.4420
28726SOL     OW96491   1.235   9.311  10.986 -0.7005  0.7963  0.2502
28726SOL    HW196492   1.171   9.380  11.003 -0.7797  0.1978  2.8612
28726SOL    HW296493   1.184   9.230  10.991 -0.0859  0.4025  0.2640
28727SOL     OW96494  12.435   0.943   0.260 -0.4114 -0.3713  0.0389
28727SOL    HW196495  12.508   0.902   0.307  1.0733  0.1020 -1.7192
28727SOL    HW296496  12.432   1.033   0.295  0.3662 -0.1646 -0.4059
28728SOL     OW96497   1.401  11.345   3.879  0.0646  0.0751  0.5050
28728SOL    HW196498   1.340  11.368   3.808  0.3011  0.5483  0.4546
28728SOL    HW296499   1.345  11.335   3.956 -0.1409 -0.0103  0.3463
28729SOL     OW96500   6.412   8.512  12.664 -0.5069  0.1696 -0.1118
28729SOL    HW196501   6.407   8.543  12.754  1.8944  0.7277 -0.1084
28729SOL    HW296502   6.347   8.442  12.659  0.3522 -0.9301  2.4958
28730SOL     OW96503   5.132   7.519   8.048  0.1316 -0.6442 -0.1230
28730SOL    HW196504   5.134   7.596   8.104  0.1589 -0.4725 -0.3597
28730SOL    HW296505   5.223   7.506   8.021  0.2913 -1.3232  0.6798
28731SOL     OW96506   6.943   1.493   1.526 -0.5636 -0.4281 -0.6153
28731SOL    HW196507   7.006   1.506   1.597 -0.6174  2.1929 -0.9543
28731SOL    HW296508   6.996   1.466   1.451 -0.3205 -1.6003 -0.0583
28732SOL     OW96509  12.390   3.421   0.217 -0.3890  0.1295  0.4494
28732SOL    HW196510  12.484   3.432   0.234 -0.2102  0.2324 -0.5295
28732SOL    HW296511  12.386   3.362   0.141 -1.0958  0.5483  0.1517
28733SOL     OW96512   5.372  10.647   0.556  0.0746 -0.5686  0.3431
28733SOL    HW196513   5.321  10.650   0.475  0.9631 -1.6618 -0.2825
28733SOL    HW296514   5.437  10.716   0.547 -0.9034  0.4542  0.8969
28734SOL     OW96515   1.655   4.502  10.444 -0.2570  0.0907  0.2628
28734SOL    HW196516   1.733   4.551  10.421 -1.0331  0.9678 -0.6089
28734SOL    HW296517   1.677   4.459  10.526  1.7684 -1.1520 -0.8425
28735SOL     OW96518   5.491   0.157   4.814 -0.6705 -0.4264 -0.3170
28735SOL    HW196519   5.531   0.242   4.831  0.2296 -0.7556 -0.7098
28735SOL    HW296520   5.553   0.112   4.756 -0.3924 -1.9186  1.0508
28736SOL     OW96521   6.318  11.449   5.119 -0.1247  0.4039  0.5840
28736SOL    HW196522   6.302  11.487   5.206  2.3784  1.2389  0.7374
28736SOL    HW296523   6.408  11.473   5.098  0.7482 -3.1759 -0.5166
28737SOL     OW96524  12.770   9.575   2.011  0.4141 -0.0258  0.3764
28737SOL    HW196525  12.733   9.662   2.001 -0.5028 -0.5448 -1.0419
28737SOL    HW296526  12.710   9.517   1.965  1.6837 -1.2451  0.1586
28738SOL     OW96527   6.463   3.028   1.745 -0.2815 -0.3085  0.0794
28738SOL    HW196528   6.474   3.121   1.721 -0.5160  0.0683  1.3740
28738SOL    HW296529   6.438   2.986   1.663  1.0337  0.5499 -0.8003
28739SOL     OW96530   5.150   2.524   4.025  0.0817  0.1752 -0.4009
28739SOL    HW196531   5.103   2.551   4.104  1.3196 -0.0210  0.4200
28739SOL    HW296532   5.214   2.460   4.055  0.0067 -0.5463 -1.7030
28740SOL     OW96533   2.060   3.506  11.411  0.2992 -0.4835 -0.5073
28740SOL    HW196534   2.130   3.470  11.466 -0.7021 -1.9045 -0.1264
28740SOL    HW296535   2.010   3.562  11.470  1.7431  1.5124 -1.0554
28741SOL     OW96536   8.584   9.247   2.833 -0.3287 -0.6321 -0.3233
28741SOL    HW196537   8.663   9.212   2.873 -0.0869 -0.8697 -0.9904
28741SOL    HW296538   8.534   9.284   2.906  0.0173 -1.2043  0.2103
28742SOL     OW96539   9.663   7.684  10.162  0.8052  0.2765  0.2436
28742SOL    HW196540   9.725   7.757  10.167  2.2508 -0.9657  1.6660
28742SOL    HW296541   9.666   7.645  10.249 -2.5939  0.5761  0.6323
28743SOL     OW96542   2.698  11.323   6.262 -0.9200  0.4643  0.6982
28743SOL    HW196543   2.656  11.381   6.200  2.5403  1.7791 -0.6591
28743SOL    HW296544   2.729  11.380   6.332  1.0094  0.0789  0.2210
28744SOL     OW96545   9.245  10.096   2.588  0.1077 -0.3509 -0.1650
28744SOL    HW196546   9.332  10.127   2.562  0.7758 -0.8383  1.3973
28744SOL    HW296547   9.198  10.176   2.612  0.7628 -0.2283  0.7721
28745SOL     OW96548   5.286   9.283   5.116  0.2479  0.2981  0.1383
28745SOL    HW196549   5.281   9.349   5.185  0.2419 -0.1639  0.5920
28745SOL    HW296550   5.198   9.247   5.111  0.6653 -0.9759  1.2229
28746SOL     OW96551   5.256  12.807   2.124 -0.2635 -0.2219  0.3796
28746SOL    HW196552   5.227  12.848   2.205  1.2867  0.1305  0.7952
28746SOL    HW296553   5.349  12.787   2.139  0.6139  1.6174 -1.9760
28747SOL     OW96554   9.342   1.391   4.446  0.8144  0.0918 -0.1086
28747SOL    HW196555   9.284   1.457   4.409 -0.5944  0.4393  2.4443
28747SOL    HW296556   9.283   1.330   4.491  2.2640 -1.3936 -0.1189
28748SOL     OW96557  11.805   4.863  12.308 -0.2645 -0.1293 -0.2457
28748SOL    HW196558  11.877   4.800  12.309 -0.4246 -0.3684 -1.6447
28748SOL    HW296559  11.830   4.927  12.240  0.3479  1.9112  1.7542
28749SOL     OW96560   1.984   7.141   6.723 -0.5588 -0.1781  0.3150
28749SOL    HW196561   1.957   7.067   6.778 -0.6599 -0.8859 -0.6574
28749SOL    HW296562   2.079   7.137   6.722 -0.5830 -0.9066 -0.5166
28750SOL     OW96563   5.550   8.822   9.114  0.4837  0.0433 -0.2394
28750SOL    HW196564   5.630   8.869   9.139  1.7196 -1.9060 -0.3064
28750SOL    HW296565   5.502   8.810   9.196  0.6871  0.4654 -0.0564
28751SOL     OW96566   0.160   2.899   4.674 -0.4531 -0.0266  0.1317
28751SOL    HW196567   0.251   2.918   4.695 -0.5085  0.7009 -0.2623
28751SOL    HW296568   0.156   2.900   4.579 -0.7800 -0.5164  0.1346
28752SOL     OW96569   4.280  12.649   0.111  0.1260 -0.0876 -0.2821
28752SOL    HW196570   4.202  12.626   0.161 -0.4045  2.2522  0.0692
28752SOL    HW296571   4.301  12.738   0.139  1.3235  0.3531 -2.3646
28753SOL     OW96572  11.123  10.838   2.324 -0.3430 -0.3968  0.1710
28753SOL    HW196573  11.080  10.763   2.282  1.2081 -1.8426  1.0282
28753SOL    HW296574  11.073  10.853   2.404 -0.4791 -0.7572  0.1575
28754SOL     OW96575   2.325   4.069   6.900  0.5118  0.1182  0.0057
28754SOL    HW196576   2.269   3.995   6.923 -3.1552  2.3880 -0.8853
28754SOL    HW296577   2.369   4.091   6.983 -0.6524 -1.1550  1.0199
28755SOL     OW96578   1.251   2.437   6.031 -0.3056 -0.0113  0.5174
28755SOL    HW196579   1.344   2.455   6.041 -0.5513  0.1007  3.8575
28755SOL    HW296580   1.247   2.360   5.974  1.7563  0.4149 -0.2884
28756SOL     OW96581   0.823   2.259   0.297 -0.1128 -1.1401  0.1870
28756SOL    HW196582   0.872   2.195   0.245 -0.7880  0.0091 -2.0039
28756SOL    HW296583   0.733   2.226   0.297 -0.4212 -0.3545 -0.7675
28757SOL     OW96584   2.645   2.581   0.288 -0.6500  0.0156 -0.3513
28757SOL    HW196585   2.709   2.631   0.237 -1.8235  1.2359 -0.7041
28757SOL    HW296586   2.657   2.611   0.378 -1.6130  1.3154 -0.6141
28758SOL     OW96587   7.526   0.703   1.507  0.2228  1.0424  0.5494
28758SOL    HW196588   7.458   0.707   1.439  0.8215  0.2089 -0.1076
28758SOL    HW296589   7.538   0.610   1.523  0.8437  1.2075  1.0509
28759SOL     OW96590   0.059   4.080  12.331  0.2382  0.1382 -0.0081
28759SOL    HW196591   0.006   4.056  12.408 -0.5443 -0.4000 -0.7028
28759SOL    HW296592   0.114   4.003  12.316  0.7976  0.4613  0.3395
28760SOL     OW96593   4.580  11.488   9.162 -0.6267  0.3242 -0.0463
28760SOL    HW196594   4.659  11.439   9.139 -0.3208  0.9014 -0.2528
28760SOL    HW296595   4.611  11.578   9.176 -1.0223  0.2590  1.3306
28761SOL     OW96596   6.169   3.544   8.381 -0.1416 -0.4619 -0.1376
28761SOL    HW196597   6.140   3.561   8.470 -1.1592  0.3577 -0.6073
28761SOL    HW296598   6.203   3.628   8.350 -0.3592 -0.5853 -0.7271
28762SOL     OW96599  11.820   7.532   2.950  0.2597 -0.6063  0.1384
28762SOL    HW196600  11.860   7.596   2.890  0.2911 -0.6682  0.0940
28762SOL    HW296601  11.785   7.464   2.893 -0.5149 -0.2165  0.1268
28763SOL     OW96602   5.312   1.632   1.373 -0.5209  0.0673 -0.8655
28763SOL    HW196603   5.230   1.658   1.330 -0.1777  0.7707 -1.1190
28763SOL    HW296604   5.374   1.621   1.301 -0.2796 -0.0368 -0.6443
28764SOL     OW96605   9.794   5.409   2.016 -0.4144  0.0297 -0.1710
28764SOL    HW196606   9.853   5.380   2.086 -0.8154  0.4498  0.3498
28764SOL    HW296607   9.712   5.362   2.032 -0.5636  0.2581 -0.2582
28765SOL     OW96608   8.146  12.180  12.803  0.4502  0.2100  0.0297
28765SOL    HW196609   8.188  12.230  12.733 -3.1771  3.3459 -0.2672
28765SOL    HW296610   8.119  12.098  12.761 -0.4268  1.4328 -1.9547
28766SOL     OW96611   7.442  11.680   4.125 -0.2177 -0.1474 -0.4859
28766SOL    HW196612   7.389  11.670   4.205 -1.4891  2.7272 -0.8340
28766SOL    HW296613   7.378  11.696   4.056  0.9991  1.9034 -1.2192
28767SOL     OW96614   8.309  12.076  11.446 -0.0280  0.4534  0.6834
28767SOL    HW196615   8.277  11.995  11.406 -0.5884  0.9306  0.1603
28767SOL    HW296616   8.396  12.088  11.408 -0.3751  0.6635 -0.0620
28768SOL     OW96617   2.582   9.149   6.780 -0.4106 -0.5594 -0.2114
28768SOL    HW196618   2.497   9.185   6.755 -0.2552 -0.1148 -0.1042
28768SOL    HW296619   2.635   9.153   6.701 -0.0486  0.4680  0.0707
28769SOL     OW96620   3.028   5.292   8.229  0.0675  0.2115 -0.1199
28769SOL    HW196621   3.005   5.281   8.136  0.4549  2.3506 -0.5284
28769SOL    HW296622   3.032   5.203   8.263 -1.5625 -0.5755 -1.7776
28770SOL     OW96623   5.451   0.832   0.944  1.0443 -0.5372  0.0040
28770SOL    HW196624   5.386   0.785   0.996 -0.1104  0.0114 -0.8783
28770SOL    HW296625   5.463   0.915   0.990 -2.2232  1.2483 -1.9987
28771SOL     OW96626   5.083  12.803  10.494 -0.5714  0.4151  0.3000
28771SOL    HW196627   5.152  12.860  10.462  0.1923 -0.9497 -0.5895
28771SOL    HW296628   5.111  12.778  10.582  0.9706 -1.4222 -0.6393
28772SOL     OW96629   1.641   6.517   0.752 -0.4830  0.5250  0.6415
28772SOL    HW196630   1.583   6.457   0.798 -0.3908  0.4130  0.6115
28772SOL    HW296631   1.725   6.507   0.795 -0.3187  0.1942  0.2546
28773SOL     OW96632   6.639   8.540   8.605  0.0377  0.2595  0.0778
28773SOL    HW196633   6.689   8.521   8.685 -0.1886  0.4998  0.2801
28773SOL    HW296634   6.644   8.460   8.554  0.5302  0.2404  0.1491
28774SOL     OW96635   0.417  12.446  10.634 -0.1892 -0.0315 -0.3409
28774SOL    HW196636   0.454  12.502  10.701 -2.4191  2.7400 -1.2370
28774SOL    HW296637   0.324  12.440  10.655 -0.1965 -3.0026 -0.6686
28775SOL     OW96638   3.704   4.378   5.801 -0.6843 -0.0472 -0.2399
28775SOL    HW196639   3.684   4.470   5.785  0.4346  1.0038  3.5910
28775SOL    HW296640   3.798   4.375   5.815 -0.6619 -1.8559 -0.4711
28776SOL     OW96641  10.725   1.043   3.804  0.1438  0.3046  0.0087
28776SOL    HW196642  10.656   1.064   3.867  1.4043 -0.3243  1.6782
28776SOL    HW296643  10.790   1.113   3.816  0.8816 -0.3998  0.1732
28777SOL     OW96644   4.523   7.015   2.416 -0.0286 -0.3209  0.4930
28777SOL    HW196645   4.437   6.973   2.426  0.5447 -1.0356  2.9654
28777SOL    HW296646   4.515   7.097   2.465  0.4535  0.0167  0.0114
28778SOL     OW96647   2.071   7.505   7.048 -0.3555  0.2313  0.3077
28778SOL    HW196648   2.006   7.556   7.096 -0.3549 -0.9046  1.5831
28778SOL    HW296649   2.131   7.473   7.116  0.9482  0.3963 -0.7169
28779SOL     OW96650   1.821   5.228   0.040  0.0269 -0.4866  0.3186
28779SOL    HW196651   1.820   5.176  -0.040 -0.2197 -0.6441  0.4237
28779SOL    HW296652   1.735   5.213   0.080 -0.2580  0.4364  0.0682
28780SOL     OW96653   8.172   4.734   7.057 -0.2595 -0.1107  0.1855
28780SOL    HW196654   8.231   4.659   7.051  1.4909  1.3545 -3.1656
28780SOL    HW296655   8.085   4.697   7.037  0.5197 -1.3524 -1.1193
28781SOL     OW96656   3.637   3.264  12.982  0.1091 -0.2054  0.2221
28781SOL    HW196657   3.650   3.190  12.923 -2.3034 -0.2570 -0.3476
28781SOL    HW296658   3.578   3.322  12.935  1.5304  1.8800  0.8794
28782SOL     OW96659  12.377   5.702   3.321 -0.3444 -0.1973 -0.4526
28782SOL    HW196660  12.442   5.677   3.387 -0.4371 -2.2531 -1.0524
28782SOL    HW296661  12.397   5.793   3.301  0.8329 -0.0625  1.0886
28783SOL     OW96662   6.858   2.239   8.749 -0.1187 -0.1097 -0.0667
28783SOL    HW196663   6.850   2.224   8.655 -0.9570 -1.6355  0.2119
28783SOL    HW296664   6.844   2.333   8.760 -1.3447 -0.1123 -1.3438
28784SOL     OW96665   4.551  10.301   3.060  0.0655 -0.1626 -0.0380
28784SOL    HW196666   4.617  10.319   3.127  0.1595 -0.3781 -0.0740
28784SOL    HW296667   4.541  10.384   3.014 -1.1242  0.4338  1.2307
28785SOL     OW96668   9.472   7.819   7.333  0.1614 -0.3904  0.1675
28785SOL    HW196669   9.449   7.846   7.422 -1.4781  0.6640 -0.5339
28785SOL    HW296670   9.510   7.897   7.293 -0.7308 -0.3212 -0.5778
28786SOL     OW96671   4.495   1.721   0.589  0.2027  0.6860 -0.0367
28786SOL    HW196672   4.419   1.773   0.616  0.1579  0.9740 -0.6872
28786SOL    HW296673   4.459   1.656   0.529  0.1180 -0.7143  1.4933
28787SOL     OW96674   0.309   9.859   6.066 -0.0618 -0.2821  0.3647
28787SOL    HW196675   0.236   9.818   6.019 -0.8128  0.9704  0.3774
28787SOL    HW296676   0.296   9.953   6.052  1.3673 -0.0245  0.6604
28788SOL     OW96677   2.971   0.638  12.326 -0.0715  0.0737  0.0764
28788SOL    HW196678   2.941   0.714  12.275 -0.6263 -1.3615 -1.8637
28788SOL    HW296679   3.063   0.658  12.345 -0.4045  1.5564  0.3078
28789SOL     OW96680   6.404   0.410   0.615 -0.6549 -0.7140  0.2879
28789SOL    HW196681   6.314   0.428   0.589 -0.4905 -1.2272 -0.6654
28789SOL    HW296682   6.422   0.321   0.583  0.8089  0.0817 -1.2644
28790SOL     OW96683   5.042   6.661   4.459  0.0252  0.1254  0.1381
28790SOL    HW196684   5.031   6.656   4.553 -1.0971 -1.2591 -0.0326
28790SOL    HW296685   5.091   6.581   4.436  1.0284  0.8647 -0.3640
28791SOL     OW96686   7.105  12.940   3.395  1.0670  0.2441  0.1287
28791SOL    HW196687   7.083  12.938   3.302  0.4644  1.9482  0.1883
28791SOL    HW296688   7.185  12.992   3.400  0.1610  1.6381  0.6822
28792SOL     OW96689  11.154   4.795   2.919 -0.5962  0.0180 -0.2934
28792SOL    HW196690  11.093   4.724   2.901 -1.1449  0.4768 -0.2562
28792SOL    HW296691  11.109   4.873   2.888 -2.0401  1.0437  3.8046
28793SOL     OW96692   1.460   0.698   5.030  0.0835  0.3541 -0.3276
28793SOL    HW196693   1.554   0.684   5.040 -0.2194 -0.4478  2.0813
28793SOL    HW296694   1.451   0.792   5.014  1.2978  0.3167 -1.4299
28794SOL     OW96695   4.333   2.149  10.373 -0.1240 -0.6079  0.1074
28794SOL    HW196696   4.393   2.090  10.329  0.4105 -0.0574  0.0847
28794SOL    HW296697   4.249   2.103  10.372 -0.1244 -0.6081 -1.4823
28795SOL     OW96698   3.401  11.185   3.782  0.3004  0.3739 -0.0937
28795SOL    HW196699   3.401  11.224   3.695 -0.9443  0.9095  0.1257
28795SOL    HW296700   3.382  11.257   3.841  3.0250  0.4235  0.8777
28796SOL     OW96701   9.629   8.752   9.505 -0.4723 -0.2669 -0.3440
28796SOL    HW196702   9.700   8.816   9.515  0.4513 -1.3455  0.3141
28796SOL    HW296703   9.556   8.787   9.555 -0.6171  1.1257 -1.4664
28797SOL     OW96704   9.464   2.677   9.348  0.6152 -0.7253  0.0523
28797SOL    HW196705   9.386   2.700   9.298 -0.2960  0.2107  1.8162
28797SOL    HW296706   9.532   2.736   9.316 -0.2128  0.5447  0.5582
28798SOL     OW96707  11.738   4.402   9.949  1.6599 -0.4819  0.3500
28798SOL    HW196708  11.750   4.308   9.941 -0.5735 -0.9504  1.6852
28798SOL    HW296709  11.696   4.428   9.866  0.1560 -1.1086  0.8864
28799SOL     OW96710   4.512   0.331  11.577  0.1192  0.3226  0.0565
28799SOL    HW196711   4.574   0.360  11.510 -1.0372  1.3953 -0.5714
28799SOL    HW296712   4.443   0.287  11.529 -0.9513  1.4963  0.4661
28800SOL     OW96713   9.209   5.025   3.923  0.0372  0.7690 -0.3953
28800SOL    HW196714   9.266   4.985   3.989 -0.1874 -0.9789 -1.2174
28800SOL    HW296715   9.248   5.111   3.907  3.1611 -0.7330 -1.7125
28801SOL     OW96716   2.678   5.116   2.895  0.0308 -0.4983 -0.0899
28801SOL    HW196717   2.701   5.066   2.817  0.0275  0.0427 -0.4378
28801SOL    HW296718   2.759   5.121   2.946  0.1320 -0.5059 -0.2502
28802SOL     OW96719  12.650   8.414   8.753 -0.0055  0.4555  0.6449
28802SOL    HW196720  12.648   8.420   8.849  1.9377  0.9349  0.7040
28802SOL    HW296721  12.718   8.349   8.735  0.8443  1.5852 -0.4095
28803SOL     OW96722   2.833  10.635  12.692  0.2511 -0.5681  0.7304
28803SOL    HW196723   2.874  10.716  12.723  0.7776 -0.0962 -1.0669
28803SOL    HW296724   2.891  10.566  12.722  1.2297 -0.0668  0.0312
28804SOL     OW96725  10.566   6.106  12.620 -0.3045  0.6672  0.2914
28804SOL    HW196726  10.549   6.100  12.526 -0.3132  0.3378  0.3146
28804SOL    HW296727  10.526   6.189  12.646 -1.3968  0.1775  0.2400
28805SOL     OW96728  12.422   4.774   2.754  0.2252 -0.3521 -0.5093
28805SOL    HW196729  12.424   4.770   2.659  1.6867 -1.5864 -0.4680
28805SOL    HW296730  12.417   4.867   2.774  0.4287 -0.0473 -1.7991
28806SOL     OW96731  11.029   7.236   3.541  0.2769  0.3593  0.4753
28806SOL    HW196732  11.059   7.149   3.515 -0.9614 -0.2265  0.9192
28806SOL    HW296733  10.989   7.272   3.462  1.5594  0.8915  0.0531
28807SOL     OW96734   8.054   7.420   8.028  0.3235 -0.2436 -0.2714
28807SOL    HW196735   7.992   7.475   8.076  0.0012 -0.1657 -0.7766
28807SOL    HW296736   8.063   7.462   7.943  1.1206 -0.2212 -0.1803
28808SOL     OW96737  10.348   4.766  11.314 -0.3102  0.1701 -0.2373
28808SOL    HW196738  10.403   4.740  11.387 -1.0972 -0.1843  0.2494
28808SOL    HW296739  10.281   4.823  11.353 -1.9621 -1.6391 -0.2577
28809SOL     OW96740   5.566   0.392   2.918  0.5349  0.5016 -0.1801
28809SOL    HW196741   5.649   0.434   2.941  0.3457  0.0215  1.5102
28809SOL    HW296742   5.592   0.304   2.889  0.5081 -0.7030  3.1031
28810SOL     OW96743   5.286  11.125  11.783  0.1513 -0.6470  0.1904
28810SOL    HW196744   5.204  11.161  11.816  0.6671  0.2938  0.4823
28810SOL    HW296745   5.325  11.195  11.732  2.1064 -0.0107  2.3616
28811SOL     OW96746  12.457   7.942   3.251 -0.2716  0.5737  0.1695
28811SOL    HW196747  12.395   7.888   3.299 -2.0444  2.0936 -0.2603
28811SOL    HW296748  12.401   7.997   3.195  1.5638  0.8966 -1.4358
28812SOL     OW96749   1.047   6.786   1.817 -0.4514  0.3725  0.0648
28812SOL    HW196750   1.023   6.789   1.909  0.1617 -1.9015  0.3592
28812SOL    HW296751   1.142   6.785   1.816 -0.4494  0.3587 -0.6033
28813SOL     OW96752   6.957   1.873   3.644 -0.6630 -0.1465  0.5988
28813SOL    HW196753   6.914   1.864   3.559 -0.2084  2.6497 -0.0201
28813SOL    HW296754   6.889   1.907   3.702  0.0893  2.3908  0.1110
28814SOL     OW96755   0.899   9.627   9.996  0.0719  0.5785 -0.0696
28814SOL    HW196756   0.953   9.622  10.075 -0.5767  0.1160  0.3569
28814SOL    HW296757   0.811   9.648  10.028 -0.5560 -1.1820 -0.4824
28815SOL     OW96758  10.783   0.026   8.921  0.1913  0.3007 -0.2968
28815SOL    HW196759  10.875   0.054   8.913 -0.1419  0.8733 -3.1801
28815SOL    HW296760  10.771   0.010   9.015  3.5354 -0.8760  0.0701
28816SOL     OW96761   1.904   7.708   5.606 -0.2217 -0.3265  0.1574
28816SOL    HW196762   1.850   7.746   5.675 -0.5942 -1.6091  0.6006
28816SOL    HW296763   1.939   7.783   5.559 -0.5882  0.5614  1.2583
28817SOL     OW96764   7.013   9.060  11.376 -0.2583 -0.2776  0.1615
28817SOL    HW196765   7.047   9.080  11.463 -0.9235  0.8958  0.1710
28817SOL    HW296766   6.920   9.081  11.381 -0.1313  0.7638 -1.0872
28818SOL     OW96767   1.533   3.855   9.440  0.2679 -0.1376  0.2474
28818SOL    HW196768   1.624   3.843   9.411  0.2305 -0.2083  0.1593
28818SOL    HW296769   1.480   3.833   9.363  0.2067  0.8582 -0.0084
28819SOL     OW96770   5.215   3.276  12.245 -0.1597 -0.5064  0.3664
28819SOL    HW196771   5.125   3.263  12.214 -0.0048 -2.1195  0.5097
28819SOL    HW296772   5.222   3.219  12.322  1.4737 -1.6965 -0.6173
28820SOL     OW96773   1.992   6.079   7.834  0.8010 -0.1506 -0.6552
28820SOL    HW196774   2.039   6.042   7.909 -0.3289 -1.0520 -0.3666
28820SOL    HW296775   2.061   6.095   7.769  1.8684  1.0155  0.6789
28821SOL     OW96776  12.850   7.621   9.415  0.1387  0.7372 -0.0433
28821SOL    HW196777  12.780   7.567   9.377  0.6258 -1.2205  1.6157
28821SOL    HW296778  12.927   7.601   9.362  0.7496 -1.7609  1.5827
28822SOL     OW96779   6.256   3.249   3.395 -0.0782 -0.4992 -0.4323
28822SOL    HW196780   6.191   3.309   3.359  0.2955 -0.6992 -1.4813
28822SOL    HW296781   6.206   3.186   3.447 -0.5900  0.0336 -0.2709
28823SOL     OW96782   1.713  10.552   8.518  0.4254  0.5656  0.1194
28823SOL    HW196783   1.622  10.543   8.548  1.1981  1.8199  3.1800
28823SOL    HW296784   1.744  10.462   8.509 -1.2339  0.0881 -1.6655
28824SOL     OW96785   3.043  12.449   6.079  0.0629 -0.3762  0.1436
28824SOL    HW196786   3.011  12.520   6.134 -0.0957  0.9267 -1.5635
28824SOL    HW296787   3.136  12.467   6.068 -0.3580  0.8415 -1.9970
28825SOL     OW96788   0.833  11.766   5.844 -0.0734 -0.2511  0.3039
28825SOL    HW196789   0.864  11.688   5.796 -2.6842 -0.3998 -1.3463
28825SOL    HW296790   0.878  11.839   5.802 -2.5885 -0.3377 -2.9059
28826SOL     OW96791  12.814   3.749   9.795  0.0525 -0.3341  0.5437
28826SOL    HW196792  12.889   3.797   9.759  0.0601  0.2050  1.2731
28826SOL    HW296793  12.839   3.731   9.885 -1.0175  0.5266  1.0251
28827SOL     OW96794   0.790   7.241  10.170 -0.1559  0.5029  0.0133
28827SOL    HW196795   0.831   7.162  10.206 -1.2194 -0.5998 -1.1166
28827SOL    HW296796   0.859   7.308  10.175  0.9026 -0.5882  0.5905
28828SOL     OW96797   8.956   4.425   2.946 -0.3653 -0.1052  0.3182
28828SOL    HW196798   8.935   4.348   2.999 -1.1610  0.4605  0.8542
28828SOL    HW296799   8.997   4.486   3.008 -0.4775  0.2118  0.0822
28829SOL     OW96800   2.718   4.689  12.026 -0.0927  0.7004 -0.2101
28829SOL    HW196801   2.743   4.737  12.104  1.4256 -1.3542  0.6593
28829SOL    HW296802   2.668   4.614  12.059  0.5422 -0.1866 -1.1900
28830SOL     OW96803  10.867  12.971   2.262 -0.2239  0.2595 -0.4172
28830SOL    HW196804  10.804  13.037   2.234 -0.2390  1.8128  2.8243
28830SOL    HW296805  10.830  12.935   2.342  1.7195 -0.7576  0.0776
28831SOL     OW96806  11.987   1.419   3.126  0.3616  0.1230  0.1952
28831SOL    HW196807  11.970   1.487   3.061  0.0509 -0.5372 -0.4348
28831SOL    HW296808  11.968   1.461   3.210 -1.6269  0.3000 -0.2758
28832SOL     OW96809  10.521   1.046   1.944  0.1890  0.1464 -0.2483
28832SOL    HW196810  10.542   0.975   1.883  0.9614  0.8305 -0.7823
28832SOL    HW296811  10.439   1.083   1.910  0.5066  0.3921 -0.7529
28833SOL     OW96812  11.097   1.056   7.710  0.0803 -0.0674  0.4961
28833SOL    HW196813  11.091   1.151   7.721 -1.9412  0.0860 -1.2775
28833SOL    HW296814  11.190   1.040   7.693  0.5210  1.5120  1.1774
28834SOL     OW96815   0.356  10.972   5.419 -0.6229  0.7238 -0.2994
28834SOL    HW196816   0.348  11.007   5.330 -0.3164  1.1642 -0.1597
28834SOL    HW296817   0.410  11.037   5.465  0.5272 -0.2485 -0.2152
28835SOL     OW96818   1.290  12.718   5.887  0.2923  0.3545  0.4095
28835SOL    HW196819   1.301  12.723   5.982 -0.5870  0.1424  0.5314
28835SOL    HW296820   1.241  12.637   5.873  0.1915  0.5189 -0.2043
28836SOL     OW96821   0.377  11.993   2.336  0.0184 -0.3826  0.2864
28836SOL    HW196822   0.436  11.919   2.350 -0.6740 -0.7663  1.2517
28836SOL    HW296823   0.408  12.061   2.396  1.1291  0.4420 -1.1331
28837SOL     OW96824   7.993   1.629  10.095  0.4149 -0.7594 -0.5111
28837SOL    HW196825   7.915   1.579  10.071  1.4039 -2.6742  0.0680
28837SOL    HW296826   7.971   1.719  10.072 -2.0236 -1.2026 -0.2264
28838SOL     OW96827   6.578   8.116   2.978  0.4877  0.0531 -0.5771
28838SOL    HW196828   6.659   8.154   2.945 -0.7048  0.9655 -2.6570
28838SOL    HW296829   6.536   8.187   3.026  0.1586  0.1195 -0.9539
28839SOL     OW96830  10.580   5.068  12.934 -0.2422  0.1629  0.0839
28839SOL    HW196831  10.577   4.973  12.920  1.2851  0.0174  0.5273
28839SOL    HW296832  10.651   5.081  12.997  0.4175  1.6822 -0.8990
28840SOL     OW96833   3.276   2.365   7.958  0.3965  0.0796  0.3938
28840SOL    HW196834   3.347   2.323   8.007  0.0300 -0.3898  0.5325
28840SOL    HW296835   3.201   2.359   8.017 -0.1640 -0.8988 -0.3947
28841SOL     OW96836   4.728   8.007   6.614  0.1454 -0.2984  0.1456
28841SOL    HW196837   4.669   8.075   6.648 -0.5668 -0.0042 -1.5861
28841SOL    HW296838   4.814   8.032   6.649  0.0661  2.0374 -1.1099
28842SOL     OW96839   2.453  11.628   5.741  1.2950  0.1583 -0.1143
28842SOL    HW196840   2.407  11.712   5.736  0.1390 -0.4878 -0.7498
28842SOL    HW296841   2.531  11.646   5.793  1.4035  1.7779 -0.7790
28843SOL     OW96842   4.875   3.005   1.993  0.3873  0.2897 -0.3806
28843SOL    HW196843   4.887   3.046   1.908  0.3692  0.4574 -0.3020
28843SOL    HW296844   4.808   2.938   1.979  0.0082  0.6648 -0.3819
28844SOL     OW96845   7.408   1.559   4.288 -0.3136 -0.2829 -0.2705
28844SOL    HW196846   7.421   1.594   4.376 -0.3613  1.0125 -0.7641
28844SOL    HW296847   7.440   1.627   4.229 -0.3401 -1.1052 -1.2672
28845SOL     OW96848   0.128   8.160  10.653  0.6990 -0.1061 -0.2645
28845SOL    HW196849   0.205   8.210  10.628  2.2754 -1.4441  1.5744
28845SOL    HW296850   0.133   8.080  10.600  0.2617  0.0586 -0.5537
28846SOL     OW96851   9.769   9.914  12.879 -0.6002 -0.2034  0.2952
28846SOL    HW196852   9.827   9.922  12.803  0.2491  0.6578  1.0083
28846SOL    HW296853   9.754   9.820  12.887  0.1421 -0.3917 -0.3192
28847SOL     OW96854   4.100   2.780   9.929  0.3533 -0.4495  0.2370
28847SOL    HW196855   4.064   2.692   9.920 -0.9900  0.0516  0.5560
28847SOL    HW296856   4.144   2.779  10.014 -0.6272 -0.5007  0.7584
28848SOL     OW96857   7.553   4.136   5.979 -0.1696  0.2471  0.5382
28848SOL    HW196858   7.579   4.198   5.911  1.1577 -0.8721 -0.0397
28848SOL    HW296859   7.590   4.171   6.060 -0.4604  0.8141  0.4277
28849SOL     OW96860   0.825   6.582   8.365  0.2035  0.0502 -0.2162
28849SOL    HW196861   0.768   6.562   8.291 -1.7943  1.6971  0.8122
28849SOL    HW296862   0.844   6.496   8.404 -1.4226 -0.5736 -0.7119
28850SOL     OW96863  12.745   5.364   3.816  0.7869  0.1883  0.2095
28850SOL    HW196864  12.711   5.303   3.751  0.0804 -1.5411  2.0960
28850SOL    HW296865  12.840   5.353   3.812  0.7888  0.4940 -0.8479
28851SOL     OW96866   4.133   6.902   0.612 -0.3318  0.4444  0.1529
28851SOL    HW196867   4.212   6.947   0.642  0.8348  0.3598 -2.4616
28851SOL    HW296868   4.081   6.887   0.691  2.3744  0.2685  2.0025
28852SOL     OW96869   7.015   8.932   4.311 -0.3224 -0.5021 -0.0434
28852SOL    HW196870   6.947   8.886   4.360 -0.9916 -0.6809 -1.1129
28852SOL    HW296871   6.971   9.010   4.275  0.5416  0.4481  0.8943
28853SOL     OW96872   1.869   2.358   6.223  0.5139  0.4058  0.2083
28853SOL    HW196873   1.824   2.295   6.167  0.9184  1.9004 -1.9153
28853SOL    HW296874   1.959   2.359   6.190  0.7044  1.5353  0.7084
28854SOL     OW96875  10.591   3.223   3.476  0.5306 -0.0330  0.1731
28854SOL    HW196876  10.659   3.254   3.417  1.1494  0.0528  0.9141
28854SOL    HW296877  10.566   3.137   3.442 -0.5673  0.8586 -1.3728
28855SOL     OW96878  11.420   7.349   1.431 -0.3049  0.0029  0.1390
28855SOL    HW196879  11.346   7.393   1.389 -1.5839 -1.9843  0.2047
28855SOL    HW296880  11.402   7.356   1.524 -0.1840 -0.1418  0.1735
28856SOL     OW96881  10.725   8.451   5.280  0.6712  0.2469 -0.3645
28856SOL    HW196882  10.704   8.408   5.197  0.7212  0.2943 -0.4020
28856SOL    HW296883  10.715   8.382   5.345  1.7350 -0.1006 -0.5402
28857SOL     OW96884   7.952   6.427   3.990 -0.1520 -0.0887 -0.2202
28857SOL    HW196885   7.907   6.480   3.925 -0.6854  0.7332  0.7808
28857SOL    HW296886   7.998   6.491   4.045  2.3005 -0.8776 -1.1990
28858SOL     OW96887  12.706   0.775   2.297 -0.3542 -0.0520 -0.3601
28858SOL    HW196888  12.684   0.828   2.221 -0.0846 -0.6046 -0.8293
28858SOL    HW296889  12.763   0.706   2.264 -1.0219 -0.8881  0.1466
28859SOL     OW96890  10.971   8.413   6.071 -0.1996 -0.1180 -0.0174
28859SOL    HW196891  11.059   8.443   6.049 -0.0553 -0.0608  0.6137
28859SOL    HW296892  10.955   8.448   6.159 -1.8890  2.1267 -1.1184
28860SOL     OW96893   1.616   5.787  12.718 -0.1871  0.1780 -0.0275
28860SOL    HW196894   1.529   5.826  12.730 -0.6395 -1.1405  1.2138
28860SOL    HW296895   1.677   5.860  12.731 -1.0837  1.0951 -0.8003
28861SOL     OW96896   6.146  12.670  11.082  0.2825  0.2461  0.3036
28861SOL    HW196897   6.198  12.621  11.145 -1.3391 -2.3195 -0.2179
28861SOL    HW296898   6.208  12.694  11.012  1.1336 -1.0814  0.5737
28862SOL     OW96899  10.083  10.790   4.926 -0.1486  0.3032 -0.3950
28862SOL    HW196900  10.125  10.731   4.863 -1.4972  0.2584 -1.2931
28862SOL    HW296901  10.020  10.735   4.972  0.3178  0.5040  0.5158
28863SOL     OW96902   3.012   3.617  12.160  0.1916  0.3420 -0.5074
28863SOL    HW196903   3.013   3.527  12.194 -1.7681 -0.3900 -2.1465
28863SOL    HW296904   3.091   3.623  12.106  0.2733 -0.4433 -0.4888
28864SOL     OW96905  12.975   9.472   3.170  0.3455 -0.0363 -0.6673
28864SOL    HW196906  12.882   9.454   3.162  0.3905 -2.9424  2.6320
28864SOL    HW296907  12.980   9.555   3.218 -0.4535  0.7713 -1.9424
28865SOL     OW96908  12.343  12.671  11.606  0.3092  1.0971 -0.3422
28865SOL    HW196909  12.317  12.713  11.688 -1.6192 -0.3834 -0.1176
28865SOL    HW296910  12.260  12.642  11.567  1.3925 -0.5519 -1.5320
28866SOL     OW96911  12.726  12.733   5.711 -0.2941  0.3851  0.4418
28866SOL    HW196912  12.811  12.701   5.682 -0.3598 -0.2683  0.9631
28866SOL    HW296913  12.747  12.813   5.760 -0.1585  1.3398 -1.0992
28867SOL     OW96914   8.013   8.174   6.825 -0.5719  0.1466  0.2804
28867SOL    HW196915   7.996   8.198   6.916 -2.8140 -2.7343  0.7620
28867SOL    HW296916   8.057   8.089   6.829  2.2115  1.3706 -1.3725
28868SOL     OW96917   3.630   4.226   4.937  0.5829  0.3767  0.0285
28868SOL    HW196918   3.573   4.162   4.894  0.1454  1.1396 -0.5413
28868SOL    HW296919   3.690   4.173   4.989 -0.5568 -0.4613  0.5415
28869SOL     OW96920   7.925   0.358   2.251  0.0825 -0.0008  0.1659
28869SOL    HW196921   7.883   0.309   2.179  2.1025 -2.5816  0.5801
28869SOL    HW296922   7.863   0.352   2.323 -0.7442  0.1248 -0.5198
28870SOL     OW96923   0.966   2.791   0.228 -0.5271 -0.7696  0.3502
28870SOL    HW196924   0.959   2.864   0.289  0.5097 -0.9456  0.7048
28870SOL    HW296925   0.905   2.726   0.261 -0.9219 -0.3499  0.4531
28871SOL     OW96926   0.234  11.237   6.082  0.1718 -0.1674 -0.4759
28871SOL    HW196927   0.215  11.179   6.008 -2.3191 -0.8726  0.5879
28871SOL    HW296928   0.156  11.294   6.088  0.6910  0.4357  1.0801
28872SOL     OW96929   5.499   9.552   3.940  0.6990  0.1956 -0.0959
28872SOL    HW196930   5.405   9.571   3.938  0.9975  2.0177  0.9739
28872SOL    HW296931   5.539   9.619   3.885  1.3321 -1.2971 -1.5544
28873SOL     OW96932  10.500   9.334   6.150 -0.2255  0.0591 -0.0620
28873SOL    HW196933  10.450   9.281   6.212 -1.6810  0.3668 -0.9362
28873SOL    HW296934  10.577   9.280   6.130 -1.1987 -1.3268 -0.2285
28874SOL     OW96935   7.493   7.515   9.087  0.0286 -0.1710 -0.0085
28874SOL    HW196936   7.527   7.426   9.082 -0.4527 -0.4335  1.1895
28874SOL    HW296937   7.468   7.527   9.179 -1.2617  0.7026 -0.4449
28875SOL     OW96938  12.464  12.554  12.396 -0.1151 -0.0393 -0.4034
28875SOL    HW196939  12.448  12.479  12.453  0.6018  1.2580  1.6119
28875SOL    HW296940  12.551  12.536  12.358 -1.2179 -1.6183 -2.3741
28876SOL     OW96941   8.924  10.622   7.060 -0.1718 -0.0661  0.3342
28876SOL    HW196942   8.954  10.640   6.971 -0.3969  0.1709  0.3048
28876SOL    HW296943   8.977  10.681   7.115  0.7808 -1.0246  0.4760
28877SOL     OW96944   0.647   5.475   3.996 -0.1097 -0.0424  0.2902
28877SOL    HW196945   0.631   5.416   3.923 -0.0520 -0.3309  0.5047
28877SOL    HW296946   0.564   5.477   4.044 -0.6897  1.4707 -0.6983
28878SOL     OW96947  10.416   3.477   3.856  0.2318 -0.4392 -0.0362
28878SOL    HW196948  10.464   3.560   3.853  1.9899 -1.1998  2.7631
28878SOL    HW296949  10.328   3.499   3.827  1.0989  1.9996 -1.1085
28879SOL     OW96950   2.126   2.456   5.304 -0.7100 -0.0422  0.4534
28879SOL    HW196951   2.066   2.511   5.354 -1.5287 -0.4150 -0.1009
28879SOL    HW296952   2.206   2.454   5.356 -1.7153 -0.8623  2.0233
28880SOL     OW96953   2.140   3.880   0.625  0.4054  0.1295  0.3639
28880SOL    HW196954   2.232   3.883   0.653  0.2749 -0.3815  0.8758
28880SOL    HW296955   2.116   3.972   0.614  0.5858  0.3463  1.5875
28881SOL     OW96956   7.256   6.234   2.087  0.2194 -0.0788  0.3848
28881SOL    HW196957   7.344   6.238   2.050  0.8064 -1.6868  1.4861
28881SOL    HW296958   7.251   6.146   2.126 -1.6535  0.2112  0.8632
28882SOL     OW96959  12.492   0.985  10.807  0.1238 -0.1279 -0.6007
28882SOL    HW196960  12.575   0.972  10.760  0.3752  0.3020 -0.2887
28882SOL    HW296961  12.432   1.018  10.741  0.1889 -0.4822 -0.8400
28883SOL     OW96962   7.303   0.530   4.013  0.2813  0.0930  0.0198
28883SOL    HW196963   7.388   0.497   4.042  1.2598  2.4215  0.0472
28883SOL    HW296964   7.251   0.538   4.093 -0.2016 -1.8407 -0.0616
28884SOL     OW96965   8.658  11.680   0.975 -0.4630  0.3752  0.5724
28884SOL    HW196966   8.627  11.727   1.053 -1.8760 -0.0175  0.2755
28884SOL    HW296967   8.586  11.621   0.953  0.3027 -0.1831 -0.4937
28885SOL     OW96968  10.879   7.850   0.807 -0.3568  0.7286  0.0238
28885SOL    HW196969  10.891   7.790   0.881 -2.0941  1.7336  1.1648
28885SOL    HW296970  10.791   7.832   0.775 -0.1366  1.2887 -0.9370
28886SOL     OW96971   5.429  10.642  11.233  0.3247  0.4414 -0.1486
28886SOL    HW196972   5.412  10.733  11.255  1.8938  0.0521  3.2795
28886SOL    HW296973   5.523  10.638  11.216  0.5781 -0.7102  1.2742
28887SOL     OW96974   8.107  12.158   3.957 -0.4332 -0.1443 -0.4051
28887SOL    HW196975   8.093  12.128   3.867 -2.5622 -1.6778  0.3403
28887SOL    HW296976   8.048  12.234   3.966 -2.6809 -1.8767  0.4987
28888SOL     OW96977   7.845  10.652   5.565 -0.4454 -0.1671  0.4129
28888SOL    HW196978   7.940  10.661   5.568 -0.0241 -3.1765 -0.5131
28888SOL    HW296979   7.818  10.710   5.493  0.4882  1.4973  1.3273
28889SOL     OW96980  10.159  10.751   6.831  0.3565 -0.7539 -0.2012
28889SOL    HW196981  10.179  10.764   6.924  0.5037 -2.7137  0.0709
28889SOL    HW296982  10.243  10.764   6.786  0.5777 -1.1916  0.0865
28890SOL     OW96983   6.088   6.073   5.896  0.1316  0.3035 -0.3478
28890SOL    HW196984   6.016   6.025   5.854  1.0965 -2.7904  1.1886
28890SOL    HW296985   6.164   6.056   5.840  0.2339  1.2405 -0.5077
28891SOL     OW96986  10.947  11.545   9.769 -0.1217 -0.3350 -0.3416
28891SOL    HW196987  10.934  11.640   9.761 -1.2866 -0.2525  1.9221
28891SOL    HW296988  10.958  11.530   9.862  1.1320 -2.3452 -0.7520
28892SOL     OW96989  11.480  10.081   7.522 -0.3631  0.7982 -0.7590
28892SOL    HW196990  11.508  10.124   7.441  2.0580  0.4794 -0.1829
28892SOL    HW296991  11.408  10.135   7.555 -2.5893 -0.0165 -3.9056
28893SOL     OW96992   3.990  11.971   5.119  0.2688 -0.1137 -0.2130
28893SOL    HW196993   3.932  12.046   5.129  1.0365  0.4042  0.4858
28893SOL    HW296994   3.930  11.896   5.112 -0.5128  0.5905 -1.4632
28894SOL     OW96995   9.832  10.154   8.935 -0.0906  0.4894 -0.0385
28894SOL    HW196996   9.927  10.161   8.937 -0.1760  1.7526  0.6136
28894SOL    HW296997   9.801  10.238   8.969 -1.4321 -0.1892  0.4785
28895SOL     OW96998  11.579   0.865  12.453 -0.2568 -0.4359 -0.5034
28895SOL    HW196999  11.607   0.862  12.544  0.2486  1.1704 -0.5706
28895SOL    HW297000  11.484   0.878  12.457 -0.2138 -0.2083 -0.1914
28896SOL     OW97001   5.219   7.689  10.081 -0.4588  0.2054  0.2207
28896SOL    HW197002   5.147   7.634  10.052 -0.8246  0.7630  0.0538
28896SOL    HW297003   5.278   7.695  10.005 -1.4608  1.7404 -0.4924
28897SOL     OW97004  12.630   2.147   5.690 -0.5277  0.0943  0.3872
28897SOL    HW197005  12.705   2.177   5.741 -0.6090 -0.4125  0.8155
28897SOL    HW297006  12.643   2.184   5.603  0.4095 -0.2905  0.3540
28898SOL     OW97007   9.373   6.619  10.219 -0.0213  0.6915  0.2029
28898SOL    HW197008   9.388   6.688  10.155 -1.8256 -0.4212 -1.5293
28898SOL    HW297009   9.292   6.644  10.263  0.0551  0.3587  0.5404
28899SOL     OW97010  12.745   2.499   8.329 -0.6984 -0.1018 -0.3875
28899SOL    HW197011  12.806   2.571   8.341  0.6367 -1.5002  1.8644
28899SOL    HW297012  12.664   2.529   8.370  0.1892 -0.2224  1.5747
28900SOL     OW97013   2.556   1.332  11.326  0.3116 -0.2650 -0.6055
28900SOL    HW197014   2.612   1.360  11.254 -0.2610 -1.3266 -1.4967
28900SOL    HW297015   2.511   1.412  11.354 -0.4958 -0.0609 -2.3620
28901SOL     OW97016  11.267  11.376   0.185  0.0854 -0.1153  0.0842
28901SOL    HW197017  11.315  11.323   0.122 -0.8001  0.2057 -0.8699
28901SOL    HW297018  11.208  11.430   0.133 -1.1209 -0.2843  1.2163
28902SOL     OW97019   9.670  12.255   9.692  0.2089  0.0881  0.2855
28902SOL    HW197020   9.644  12.168   9.724 -0.0596 -0.7572 -2.0669
28902SOL    HW297021   9.748  12.277   9.743  1.7809 -2.6683 -0.7197
28903SOL     OW97022  12.986   1.892   5.877  0.5270  0.9235 -0.7976
28903SOL    HW197023  12.989   1.825   5.946 -0.4803  0.4341 -1.1981
28903SOL    HW297024  13.046   1.960   5.907  0.1652  0.6930  0.5462
28904SOL     OW97025   4.358   3.923   8.481  0.1628  0.0496  0.4709
28904SOL    HW197026   4.281   3.978   8.498 -1.7075 -1.8173 -1.3544
28904SOL    HW297027   4.346   3.846   8.536  0.6352 -0.3193  0.0727
28905SOL     OW97028   5.456   7.490   4.889  0.0351 -0.0927  0.0058
28905SOL    HW197029   5.469   7.584   4.899  3.4053 -0.5182  0.9140
28905SOL    HW297030   5.442   7.458   4.978 -0.1225 -0.5662 -0.1836
28906SOL     OW97031   0.834   6.880   1.392  0.1123  0.3809  0.0099
28906SOL    HW197032   0.916   6.847   1.354 -0.0747  0.9772 -0.9548
28906SOL    HW297033   0.788   6.802   1.421  1.7569  0.1234  2.1673
28907SOL     OW97034   2.150  10.744   2.543  0.3128 -0.6433  0.5167
28907SOL    HW197035   2.181  10.774   2.457  0.5875 -3.8813 -0.6420
28907SOL    HW297036   2.090  10.813   2.572  1.8149  1.5517 -1.2809
28908SOL     OW97037  11.996   1.865   7.915  0.0306  0.8741 -0.2181
28908SOL    HW197038  11.940   1.912   7.977  0.1489  0.4643  0.2083
28908SOL    HW297039  12.046   1.804   7.970 -0.5207 -0.1384 -0.8110
28909SOL     OW97040   9.312   2.516   9.141  0.8713  0.8760 -0.3286
28909SOL    HW197041   9.373   2.575   9.096  0.0638  2.1872  0.2307
28909SOL    HW297042   9.252   2.487   9.073 -1.2031  3.9380 -0.0073
28910SOL     OW97043  12.910   9.215  10.881 -0.1748 -0.4859  0.0166
28910SOL    HW197044  12.910   9.230  10.786  1.3515 -1.0230 -0.1106
28910SOL    HW297045  12.895   9.121  10.890 -1.5120 -0.2534  0.3885
28911SOL     OW97046  10.826   2.789   4.277 -0.7174  0.9134 -0.6599
28911SOL    HW197047  10.790   2.869   4.239 -0.5384  0.8801 -0.8937
28911SOL    HW297048  10.893   2.760   4.215  1.0115  1.9547  0.6370
28912SOL     OW97049   6.373   9.556   8.526 -0.2193  0.0116  0.1392
28912SOL    HW197050   6.367   9.469   8.568 -2.2103 -0.5092 -1.1132
28912SOL    HW297051   6.372   9.617   8.600  1.7331 -0.9681  1.0898
28913SOL     OW97052   4.210   8.456  11.879  0.2361  0.0378  0.8437
28913SOL    HW197053   4.159   8.393  11.829 -0.1390  0.4734  0.6644
28913SOL    HW297054   4.147   8.494  11.940  0.4053  0.3862  0.8047
28914SOL     OW97055   3.548   8.118   4.347  0.2012  0.4787 -0.0597
28914SOL    HW197056   3.543   8.150   4.257 -1.4330  0.9844  0.1881
28914SOL    HW297057   3.570   8.025   4.337  0.7424  0.6852 -0.9460
28915SOL     OW97058  12.282  11.277  10.116  0.1566  0.2617  0.0497
28915SOL    HW197059  12.330  11.208  10.161  1.8457 -0.2285 -2.2552
28915SOL    HW297060  12.270  11.243  10.027 -1.9545  1.6080 -0.2462
28916SOL     OW97061   1.705   8.764   7.518 -0.5712 -0.5422 -0.6023
28916SOL    HW197062   1.712   8.850   7.477  0.5538 -1.4271 -2.3599
28916SOL    HW297063   1.611   8.746   7.520 -0.6895 -0.2357 -2.3286
28917SOL     OW97064   4.933   4.534   1.935 -0.0391  0.0011  0.9789
28917SOL    HW197065   4.992   4.462   1.912 -0.9872 -1.0283  1.6323
28917SOL    HW297066   4.988   4.612   1.932  0.2924 -0.1580 -3.2274
28918SOL     OW97067   0.442  12.438   3.519 -0.2146  0.0521  0.1580
28918SOL    HW197068   0.496  12.483   3.584 -0.8280 -0.5765  1.1235
28918SOL    HW297069   0.480  12.463   3.435  1.7880 -0.6230  0.8010
28919SOL     OW97070   9.527   1.315  10.964 -0.5652 -0.2840  0.8277
28919SOL    HW197071   9.452   1.271  11.003  0.1310 -1.5002  0.8153
28919SOL    HW297072   9.588   1.329  11.036 -2.4013  4.5875  1.8749
28920SOL     OW97073  11.466   2.229   8.686  0.0411  0.0417 -0.1173
28920SOL    HW197074  11.542   2.286   8.690 -0.6140  1.1501 -2.0228
28920SOL    HW297075  11.475   2.170   8.761  0.5937  2.8153  2.1451
28921SOL     OW97076   2.175   7.453   7.316 -0.2968  0.6783  0.2415
28921SOL    HW197077   2.088   7.469   7.352  0.1201  1.2289  1.0303
28921SOL    HW297078   2.234   7.460   7.391  0.3449 -0.6167 -0.1078
28922SOL     OW97079  12.256   5.684   2.570  0.0684 -0.2285  0.1584
28922SOL    HW197080  12.234   5.598   2.536 -2.2569  0.2666  0.2268
28922SOL    HW297081  12.305   5.666   2.651 -0.5569 -1.4931  0.2827
28923SOL     OW97082   2.898  12.160   6.171 -0.3713  0.2718 -0.4896
28923SOL    HW197083   2.943  12.191   6.092  0.3589 -0.6368 -0.4377
28923SOL    HW297084   2.929  12.218   6.241  0.0414  0.2036 -0.6152
28924SOL     OW97085   6.882   1.967   5.401  0.0091  0.0304  0.2269
28924SOL    HW197086   6.894   1.937   5.311  1.7772 -0.9084  0.7383
28924SOL    HW297087   6.922   2.054   5.402  1.2813 -0.5353  0.4135
28925SOL     OW97088  11.385  10.411   7.846 -0.3822  0.6724  0.1878
28925SOL    HW197089  11.339  10.371   7.920  1.2174 -0.8966  0.4047
28925SOL    HW297090  11.467  10.441   7.883 -0.3019  1.4569 -0.6147
28926SOL     OW97091   4.767   3.438   9.284 -0.6261 -0.2122  0.2150
28926SOL    HW197092   4.686   3.475   9.247 -0.2659  0.8426  0.4514
28926SOL    HW297093   4.812   3.513   9.323  0.6724 -0.7153 -0.2761
28927SOL     OW97094   8.050   0.025  11.619 -0.8639  0.1557 -0.2379
28927SOL    HW197095   8.064   0.021  11.713 -0.6022  0.7361 -0.2449
28927SOL    HW297096   8.092  -0.054  11.585  1.6699  1.3498 -0.1480
28928SOL     OW97097  10.749   1.187   0.013 -0.3453 -0.7200  0.2736
28928SOL    HW197098  10.709   1.167  -0.072  0.4722 -0.0664 -0.2764
28928SOL    HW297099  10.761   1.102   0.054  0.3442 -1.1423 -0.7624
28929SOL     OW97100   5.903  10.104  11.575 -0.0006 -0.0343  0.4780
28929SOL    HW197101   5.922  10.115  11.668  0.2606 -1.5356  0.6387
28929SOL    HW297102   5.942  10.180  11.533 -0.7618  1.0384  1.6586
28930SOL     OW97103  10.162  10.156  10.778 -0.0835  0.3025 -0.3995
28930SOL    HW197104  10.131  10.244  10.757 -0.0860  0.1070 -1.2778
28930SOL    HW297105  10.206  10.165  10.862 -3.0528  0.4809  1.2936
28931SOL     OW97106   6.947  10.123   9.503 -0.3446 -0.3494 -0.0597
28931SOL    HW197107   6.960  10.161   9.416  0.1081  2.0127  0.9599
28931SOL    HW297108   7.035  10.115   9.539 -0.6519  1.6758  1.3050
28932SOL     OW97109   7.751   6.020   3.440 -0.0616  0.0649 -0.2481
28932SOL    HW197110   7.752   6.013   3.536  0.6111 -2.4475 -0.3883
28932SOL    HW297111   7.666   5.985   3.414 -0.1963  0.6349 -0.6101
28933SOL     OW97112  11.306   0.637  10.806  0.3076 -0.1362  0.3558
28933SOL    HW197113  11.233   0.577  10.789  1.9176 -1.8978 -0.5988
28933SOL    HW297114  11.323   0.679  10.722 -0.2886  1.1260  0.8364
28934SOL     OW97115  10.037   0.555   7.660 -0.2559  0.3039 -0.4544
28934SOL    HW197116  10.002   0.537   7.747  0.6781  0.3346 -0.0544
28934SOL    HW297117  10.128   0.579   7.676  0.8822 -2.7156 -1.6511
28935SOL     OW97118   7.814   8.739   8.723  0.0202  0.1354 -0.3025
28935SOL    HW197119   7.885   8.768   8.665  1.3960 -0.5189  0.9895
28935SOL    HW297120   7.821   8.643   8.723 -0.6070  0.0841  0.1579
28936SOL     OW97121   4.166   5.487   8.201 -0.1654 -0.3363 -0.2666
28936SOL    HW197122   4.140   5.566   8.154  0.4134 -0.3117 -0.5588
28936SOL    HW297123   4.252   5.507   8.237  0.0099 -0.8503 -0.3884
28937SOL     OW97124  11.238   0.155   2.243 -0.0554 -0.5031 -0.4018
28937SOL    HW197125  11.238   0.214   2.319  0.3953 -1.0241  0.0179
28937SOL    HW297126  11.237   0.213   2.167  1.5447  0.1009 -0.0199
28938SOL     OW97127   1.744  12.603   0.006  0.1308  0.6977 -0.0447
28938SOL    HW197128   1.772  12.606   0.098  0.7872 -1.0498 -0.1449
28938SOL    HW297129   1.680  12.532   0.004 -0.0597  0.8917 -0.8948
28939SOL     OW97130   4.380   1.211   9.974  0.2386 -0.3091 -0.0399
28939SOL    HW197131   4.381   1.161  10.056 -1.1558 -0.1745  0.0783
28939SOL    HW297132   4.409   1.299   9.999 -0.1287 -0.2843  0.3070
28940SOL     OW97133   4.508  10.062   9.076 -0.1502  0.3669 -0.0242
28940SOL    HW197134   4.549  10.081   9.160  1.6841 -0.3999 -0.6921
28940SOL    HW297135   4.579  10.032   9.020 -1.2581  1.0769 -1.9547
28941SOL     OW97136   9.923   9.547   4.893 -0.7610  0.7102 -0.1473
28941SOL    HW197137   9.887   9.540   4.805 -0.7663 -0.7504 -0.0651
28941SOL    HW297138   9.988   9.616   4.887 -1.9582  1.8177 -0.8567
28942SOL     OW97139   0.471  10.353   5.184  1.7741 -0.6900 -0.5619
28942SOL    HW197140   0.491  10.385   5.272 -0.1087  1.7726 -0.8876
28942SOL    HW297141   0.529  10.404   5.127  1.9057 -1.1543 -0.8433
28943SOL     OW97142   0.908   6.957   5.922 -0.0213  0.2494 -0.1291
28943SOL    HW197143   0.888   6.978   6.013 -0.3676  0.1676 -0.1860
28943SOL    HW297144   0.838   6.999   5.872  0.5360  0.8591 -0.4097
28944SOL     OW97145   8.902  10.565   8.380  0.5486 -0.4886  0.2722
28944SOL    HW197146   8.851  10.531   8.453  0.4702 -2.6337 -0.7135
28944SOL    HW297147   8.894  10.660   8.388  0.0106 -0.6695  2.6379
28945SOL     OW97148   2.238   7.852   3.927 -0.0050  0.2215  0.0350
28945SOL    HW197149   2.274   7.924   3.875 -0.2849 -0.5457 -1.2520
28945SOL    HW297150   2.150   7.882   3.952 -0.7334 -0.2520 -1.8065
28946SOL     OW97151  10.332   9.933  11.054 -0.7146 -0.4234 -0.6100
28946SOL    HW197152  10.320   9.994  11.126 -0.5687  0.3442 -1.2207
28946SOL    HW297153  10.365   9.853  11.095  0.4587  0.3753  0.0488
28947SOL     OW97154   3.542  11.603   7.936  0.0740  0.4617 -0.0747
28947SOL    HW197155   3.547  11.617   8.030  0.0727  0.7590 -0.1169
28947SOL    HW297156   3.520  11.511   7.926  0.1427  0.4150  0.2143
28948SOL     OW97157   8.982   2.835  11.243  0.1617 -0.4966 -0.0064
28948SOL    HW197158   8.901   2.798  11.207  0.0527  1.0354 -1.4304
28948SOL    HW297159   9.040   2.760  11.254 -1.0078 -1.4552 -0.1298
28949SOL     OW97160   4.234   4.157   0.247 -0.0469  0.3215 -0.0514
28949SOL    HW197161   4.300   4.223   0.271 -0.8002  1.1884 -0.3226
28949SOL    HW297162   4.205   4.183   0.160 -0.2602 -0.4675 -0.2282
28950SOL     OW97163   6.269  10.709   1.641 -0.0414  0.3894  0.5206
28950SOL    HW197164   6.268  10.804   1.626  3.8001  0.6185  0.7105
28950SOL    HW297165   6.256  10.670   1.555 -1.3844  1.0367  0.4022
28951SOL     OW97166  11.090  10.429  10.064 -0.1145  0.0078  0.0571
28951SOL    HW197167  11.102  10.521  10.041 -3.5705  0.4357 -0.5323
28951SOL    HW297168  11.028  10.429  10.136  1.3776 -1.8617  1.4656
28952SOL     OW97169   5.058  10.387   4.262  0.3153  0.1628 -0.2110
28952SOL    HW197170   5.052  10.410   4.355  1.0849  1.0653 -0.3671
28952SOL    HW297171   5.073  10.471   4.218  1.0969 -0.3922 -1.0372
28953SOL     OW97172   1.260   7.385   1.538 -0.0041 -0.3326  0.4634
28953SOL    HW197173   1.345   7.388   1.581  0.8141 -3.7338 -0.6472
28953SOL    HW297174   1.272   7.435   1.457  1.2921 -1.6208 -0.1668
28954SOL     OW97175   8.126   5.241   5.723 -0.2347  0.0651 -0.0952
28954SOL    HW197176   8.218   5.265   5.711 -0.1872  0.2574  0.5832
28954SOL    HW297177   8.083   5.321   5.752 -0.5346 -0.1231 -0.0064
28955SOL     OW97178   6.680   0.288  10.822 -0.2803 -0.2460 -0.2085
28955SOL    HW197179   6.614   0.295  10.891 -1.5170 -0.6897 -1.3092
28955SOL    HW297180   6.763   0.297  10.868 -1.1001  0.5787  1.1921
28956SOL     OW97181   2.478  11.031  11.984  0.3124 -0.0732  0.2704
28956SOL    HW197182   2.386  11.020  11.960  0.0586  3.5714 -1.1532
28956SOL    HW297183   2.480  11.011  12.078 -1.8056 -0.8188  0.2138
28957SOL     OW97184   4.927   4.558   2.416 -0.0957 -0.4324  0.0273
28957SOL    HW197185   5.007   4.519   2.380 -0.3081  0.1303 -1.1118
28957SOL    HW297186   4.861   4.542   2.348 -0.6125  0.3105  0.3483
28958SOL     OW97187   5.373   6.646   4.348  0.1555 -0.0605 -0.1724
28958SOL    HW197188   5.356   6.621   4.258  0.9769  1.2383 -0.7107
28958SOL    HW297189   5.465   6.670   4.350 -0.0918  0.9137  0.7687
28959SOL     OW97190   4.005   1.938   5.651  0.0521 -0.3164 -0.1966
28959SOL    HW197191   3.937   1.986   5.603  0.7390 -0.6706 -1.5901
28959SOL    HW297192   4.082   1.994   5.643  0.4213 -0.8451 -0.3665
28960SOL     OW97193   2.721   7.663  10.218  0.4210  0.8379  0.0402
28960SOL    HW197194   2.697   7.690  10.129  0.9751 -1.2415 -0.8066
28960SOL    HW297195   2.645   7.613  10.249  2.1363 -3.2047 -1.5102
28961SOL     OW97196   4.902   9.535   1.556 -0.3840 -0.3700  0.5994
28961SOL    HW197197   4.831   9.579   1.510 -0.7076 -1.8687 -0.4019
28961SOL    HW297198   4.970   9.522   1.489  0.3074 -0.1209  1.2295
28962SOL     OW97199   1.960   3.037   7.125 -0.0068  0.6703 -0.1906
28962SOL    HW197200   2.029   2.971   7.125  0.1975  0.8793  0.3404
28962SOL    HW297201   1.907   3.016   7.202  0.2757  1.3443  0.1962
28963SOL     OW97202   2.692  12.004   8.534 -0.5096 -0.1670 -0.1994
28963SOL    HW197203   2.783  11.991   8.510  0.0006  2.0902  0.2868
28963SOL    HW297204   2.686  11.975   8.625 -0.1552  0.0846 -0.0949
28964SOL     OW97205   5.567   9.418   5.180  0.2710  0.5892  0.7480
28964SOL    HW197206   5.522   9.401   5.263 -0.6928  2.5984  0.6802
28964SOL    HW297207   5.508   9.385   5.113  1.6273 -2.2590  0.8194
28965SOL     OW97208   0.792   6.771  11.628 -0.4439  0.4522 -0.0304
28965SOL    HW197209   0.755   6.715  11.697  0.1840  0.4806  0.3381
28965SOL    HW297210   0.815   6.710  11.558 -2.2454  0.5530 -0.7722
28966SOL     OW97211   3.916   1.305   3.972 -0.3635  0.2630  0.3923
28966SOL    HW197212   3.871   1.221   3.980 -1.8055  0.6921 -2.0361
28966SOL    HW297213   3.851   1.369   4.001  0.3086  0.6469  1.0957
28967SOL     OW97214   9.323  10.577   1.122 -0.1008  0.1755 -0.0562
28967SOL    HW197215   9.395  10.514   1.124 -0.2734 -0.0325 -0.2804
28967SOL    HW297216   9.245  10.524   1.107 -0.2220  0.4639 -0.4607
28968SOL     OW97217   8.782  10.910   0.685 -0.3766 -0.2170  0.0967
28968SOL    HW197218   8.840  10.941   0.755 -1.0697 -0.9453  1.0078
28968SOL    HW297219   8.714  10.860   0.730 -1.0674 -0.3561 -1.0649
28969SOL     OW97220   3.948   0.932   9.181  0.1576  0.1973 -0.1642
28969SOL    HW197221   4.002   0.869   9.133 -1.3822 -0.3281 -1.2990
28969SOL    HW297222   3.865   0.933   9.133 -0.5620  1.5684  1.0475
28970SOL     OW97223   4.068   2.396   0.758  0.0720  0.3311  0.2613
28970SOL    HW197224   4.062   2.476   0.810 -2.4227  1.5714 -1.6778
28970SOL    HW297225   4.023   2.418   0.676  1.7751 -2.2136 -1.4872
28971SOL     OW97226   5.673   6.017   6.691  0.1296  0.3350  0.6882
28971SOL    HW197227   5.698   5.927   6.670  0.8947  0.0799  2.5210
28971SOL    HW297228   5.630   6.010   6.776 -1.5947  1.4756 -0.0208
28972SOL     OW97229   9.867   2.466  11.231 -0.1977  0.4745  0.5804
28972SOL    HW197230   9.812   2.397  11.194 -3.2426  2.9328  0.0943
28972SOL    HW297231   9.859   2.456  11.326  2.4118 -1.9169  0.6847
28973SOL     OW97232   1.940   4.888  11.665 -0.1907 -0.2513  0.4604
28973SOL    HW197233   1.947   4.890  11.760 -0.0153 -0.0473  0.4458
28973SOL    HW297234   2.024   4.851  11.636 -0.0707  0.0854  0.3694
28974SOL     OW97235   8.973   4.096   8.019  0.9481  1.3826 -0.0669
28974SOL    HW197236   8.881   4.118   8.005  0.5950 -0.3040 -0.6212
28974SOL    HW297237   9.018   4.130   7.942  0.4777  0.5136 -0.7364
28975SOL     OW97238   1.375  10.809   5.690 -0.3540  0.2739  0.7238
28975SOL    HW197239   1.361  10.716   5.677 -0.6062  0.1734  1.6226
28975SOL    HW297240   1.351  10.849   5.607  0.7327 -0.5429 -0.0160
28976SOL     OW97241   8.147   5.582   3.990 -0.2191 -0.3283  0.0194
28976SOL    HW197242   8.146   5.678   3.999 -1.7487 -0.4081  0.9763
28976SOL    HW297243   8.061   5.560   3.953  0.6276 -1.2594 -1.5426
28977SOL     OW97244   6.756   8.893   8.014 -0.5139 -0.1239 -0.2611
28977SOL    HW197245   6.719   8.965   8.066  0.1949  0.7128 -0.8981
28977SOL    HW297246   6.702   8.817   8.037 -2.9085  1.1023 -1.4096
28978SOL     OW97247  12.924   8.043  12.826 -0.1702 -0.4212 -0.2733
28978SOL    HW197248  12.841   8.011  12.861 -0.1420 -1.0497 -0.7730
28978SOL    HW297249  12.991   7.995  12.875 -0.0631  0.7975  0.8275
28979SOL     OW97250   9.119  12.030   3.427  0.2020  0.2486 -0.2346
28979SOL    HW197251   9.039  11.996   3.388  0.3114  0.6292 -0.8037
28979SOL    HW297252   9.188  12.006   3.364  0.5290 -0.0451  0.2292
28980SOL     OW97253   0.243   6.284   6.875  0.1535  0.0720  0.0368
28980SOL    HW197254   0.327   6.327   6.856 -1.3922  2.8521 -1.0701
28980SOL    HW297255   0.177   6.350   6.853 -2.2958 -1.1993  2.9117
28981SOL     OW97256   3.229   1.221   9.700  0.2895 -0.2121  0.2676
28981SOL    HW197257   3.247   1.291   9.637 -1.1044 -0.1091 -0.0689
28981SOL    HW297258   3.216   1.267   9.783  0.6117 -0.1994  0.3122
28982SOL     OW97259   3.486   5.083   1.070 -0.1034 -0.1128 -0.5489
28982SOL    HW197260   3.536   5.011   1.032  0.4810  1.2159 -2.4110
28982SOL    HW297261   3.552   5.145   1.099 -0.6219 -0.0679  0.6277
28983SOL     OW97262   1.757   1.779  12.599  0.3292  0.1473  0.2188
28983SOL    HW197263   1.709   1.809  12.522  0.7246 -0.0671 -0.1160
28983SOL    HW297264   1.740   1.685  12.603  0.5455  0.1069  0.2186
28984SOL     OW97265   3.589   1.782  10.386  0.4341  0.0018  0.4487
28984SOL    HW197266   3.594   1.750  10.476  0.9571 -1.2983 -0.0183
28984SOL    HW297267   3.597   1.703  10.332  2.3009  0.9590 -0.7725
28985SOL     OW97268  11.438   7.750   2.460  0.6644 -0.2776 -0.6474
28985SOL    HW197269  11.408   7.672   2.413  0.0413 -0.5564  0.1857
28985SOL    HW297270  11.358   7.798   2.481  0.9209 -0.1501  0.0906
28986SOL     OW97271  10.476   3.204   8.856 -0.3765 -0.4707  0.7826
28986SOL    HW197272  10.471   3.267   8.928  1.6044  0.7410 -0.0665
28986SOL    HW297273  10.425   3.245   8.786  0.3619 -0.1136  0.4490
28987SOL     OW97274  11.182  10.375   3.919 -0.1474  0.2097  0.1872
28987SOL    HW197275  11.253  10.403   3.977  1.1207 -0.0538 -1.1744
28987SOL    HW297276  11.135  10.456   3.898  1.5019  0.8965 -1.1154
28988SOL     OW97277   0.086   9.091   2.228 -0.2967  0.3992 -0.1655
28988SOL    HW197278   0.066   9.156   2.296  1.3759  1.7605 -0.8781
28988SOL    HW297279   0.001   9.062   2.197 -1.1038  1.7406  0.6742
28989SOL     OW97280   5.986  10.447   0.639  0.9156 -0.1430  0.5290
28989SOL    HW197281   5.962  10.377   0.700  0.4900 -0.4956 -0.0304
28989SOL    HW297282   5.928  10.434   0.564  1.2842  0.4150  0.1400
28990SOL     OW97283   1.883  11.053   3.049 -0.1673 -0.1668 -0.3158
28990SOL    HW197284   1.801  11.024   3.089 -0.9886  0.0985 -1.7101
28990SOL    HW297285   1.945  11.057   3.121 -1.6053  0.4551  0.9418
28991SOL     OW97286   9.582  12.626   0.902 -0.0568 -0.0183  0.0594
28991SOL    HW197287   9.534  12.607   0.822 -2.4637  1.1752  1.1219
28991SOL    HW297288   9.586  12.542   0.948 -0.9590 -0.1974 -0.1640
28992SOL     OW97289   3.622   0.911   0.789 -0.1983 -0.4318  0.1268
28992SOL    HW197290   3.588   0.880   0.873  0.7738 -0.0771  0.6667
28992SOL    HW297291   3.549   0.901   0.729 -1.0603 -0.2817  1.1147
28993SOL     OW97292  12.261   0.583   5.897  0.1062  0.5990  0.1284
28993SOL    HW197293  12.201   0.654   5.877 -2.2946 -1.1629  0.6498
28993SOL    HW297294  12.282   0.595   5.990 -0.4717  0.5122  0.2735
28994SOL     OW97295   0.991  12.342   6.069  0.5408 -0.0358  0.4702
28994SOL    HW197296   0.969  12.362   5.978  1.8244  1.3948  0.4446
28994SOL    HW297297   0.918  12.288   6.099  0.6485 -1.5778 -1.7361
28995SOL     OW97298  10.357   5.450   7.533  0.1561  0.5349 -0.1587
28995SOL    HW197299  10.410   5.385   7.486  0.0908  0.4653 -0.1363
28995SOL    HW297300  10.338   5.409   7.617 -2.1920 -0.5947 -1.1543
28996SOL     OW97301   9.158   0.075   9.035  0.1394 -0.7032 -0.5722
28996SOL    HW197302   9.175  -0.009   8.993 -0.3664 -0.3590 -1.4909
28996SOL    HW297303   9.084   0.059   9.093  1.6400 -1.4967  1.2483
28997SOL     OW97304   9.969   2.521   7.609  0.3568 -0.5259 -0.0418
28997SOL    HW197305   9.970   2.609   7.647 -0.4577  0.1043 -1.3992
28997SOL    HW297306  10.058   2.488   7.623  0.2444 -0.1426  1.9119
28998SOL     OW97307  10.220   6.976  12.695 -0.1655  0.1367  0.5949
28998SOL    HW197308  10.289   7.040  12.714 -0.7183  0.9108  0.0513
28998SOL    HW297309  10.181   6.957  12.780 -0.0756  0.6237  0.7504
28999SOL     OW97310  12.927   6.767   0.255  0.0556 -0.4057 -0.0303
28999SOL    HW197311  12.881   6.756   0.171 -2.3521  1.5323  0.9169
28999SOL    HW297312  12.993   6.835   0.237  2.2626 -2.6711 -1.2007
29000SOL     OW97313   6.374   9.324   2.248  0.1224 -0.2684  1.0948
29000SOL    HW197314   6.444   9.258   2.244 -0.6209 -1.0227 -0.1982
29000SOL    HW297315   6.400   9.382   2.319  2.4787 -0.0679  0.1727
29001SOL     OW97316   5.176   3.633   7.166  0.2190 -0.1902  0.0551
29001SOL    HW197317   5.255   3.641   7.112  0.0807  0.4200 -0.0629
29001SOL    HW297318   5.205   3.652   7.255  0.2090 -0.0046  0.0177
29002SOL     OW97319   0.642   2.522   2.760 -0.1606 -0.1670 -0.1379
29002SOL    HW197320   0.628   2.608   2.721 -0.5714 -0.0901  0.1814
29002SOL    HW297321   0.735   2.522   2.783 -0.0878  0.0728 -0.4153
29003SOL     OW97322   1.753  10.089   4.448 -0.1527  0.6443 -0.5393
29003SOL    HW197323   1.731  10.141   4.371 -2.5838 -0.3183 -0.5914
29003SOL    HW297324   1.791  10.009   4.413  0.5227  0.9808 -0.6059
29004SOL     OW97325   4.919   6.817   1.849  0.4071 -0.8108  0.0636
29004SOL    HW197326   4.903   6.906   1.817  2.3203  0.1218  1.5565
29004SOL    HW297327   4.831   6.778   1.852 -0.3210  0.4213 -2.1599
29005SOL     OW97328   2.776  11.509   6.429 -0.1473 -0.6737 -0.6998
29005SOL    HW197329   2.777  11.475   6.518 -1.5647  0.3081 -0.2723
29005SOL    HW297330   2.745  11.599   6.438  1.2374 -0.0255 -2.0298
29006SOL     OW97331   3.705   8.472   8.946 -0.4277 -0.0627  0.1286
29006SOL    HW197332   3.793   8.442   8.926 -1.1480 -1.6912 -0.8206
29006SOL    HW297333   3.684   8.533   8.876 -0.1744  0.0507  0.1522
29007SOL     OW97334   4.042  10.894   2.334  0.1736 -0.5810 -0.8447
29007SOL    HW197335   4.119  10.936   2.295  0.9896 -1.5078 -0.2754
29007SOL    HW297336   4.034  10.934   2.420 -1.5582  1.3805 -1.8135
29008SOL     OW97337   5.480  11.872  10.341 -0.0649  0.0319 -0.6466
29008SOL    HW197338   5.509  11.809  10.275 -1.1657  0.5317 -1.6603
29008SOL    HW297339   5.391  11.895  10.314  0.0448  1.4566  0.1065
29009SOL     OW97340  11.008   3.020   1.762 -0.3756 -0.0493  0.6976
29009SOL    HW197341  11.044   3.100   1.723 -0.3591 -0.2486  0.2877
29009SOL    HW297342  11.085   2.968   1.785 -0.3919 -0.3496  0.0916
29010SOL     OW97343   6.142   2.305   5.416 -0.1963 -0.3635 -0.1780
29010SOL    HW197344   6.175   2.296   5.506 -1.8046  0.0971  0.4972
29010SOL    HW297345   6.104   2.393   5.414 -3.3792 -1.6053 -0.1426
29011SOL     OW97346   6.988   4.943   6.334 -0.0331  0.1027  0.0152
29011SOL    HW197347   6.911   4.999   6.340  0.1176  0.5013 -1.4357
29011SOL    HW297348   7.062   5.003   6.337  0.1434 -0.0452 -0.8661
29012SOL     OW97349   5.406  10.650  12.352  0.1260  0.7844 -0.3130
29012SOL    HW197350   5.386  10.719  12.414 -1.2145 -0.7300  1.0277
29012SOL    HW297351   5.322  10.606  12.337  1.1062 -1.2313 -0.2365
29013SOL     OW97352  10.475   6.824   8.970 -0.3109 -0.4327 -0.1678
29013SOL    HW197353  10.537   6.751   8.979 -0.0127 -0.1678 -0.0605
29013SOL    HW297354  10.460   6.831   8.876 -0.8278 -1.0365 -0.1364
29014SOL     OW97355   5.883  11.720   0.891  0.5222 -0.4444 -0.3504
29014SOL    HW197356   5.968  11.751   0.923  0.3162 -3.6891  4.4297
29014SOL    HW297357   5.821  11.744   0.961 -1.9177 -0.9194 -2.1993
29015SOL     OW97358   5.330   5.572   2.754 -0.0727  0.1687  0.0511
29015SOL    HW197359   5.414   5.615   2.773  1.4288 -2.1866 -0.6943
29015SOL    HW297360   5.292   5.624   2.683  1.2295  0.7715 -0.2364
29016SOL     OW97361   6.398   9.291  12.022  0.8199  0.3084 -0.5980
29016SOL    HW197362   6.315   9.261  11.985  0.4288  0.9177 -0.2328
29016SOL    HW297363   6.407   9.381  11.991 -0.0064  1.1937  1.5294
29017SOL     OW97364   0.778  11.976   0.824  0.3060 -0.0966 -0.3416
29017SOL    HW197365   0.792  11.895   0.774  0.1980  0.9030 -2.0808
29017SOL    HW297366   0.752  11.946   0.911  0.8884 -1.9332 -0.7421
29018SOL     OW97367  10.968  12.262  11.291 -0.1426 -0.1884  0.1200
29018SOL    HW197368  10.979  12.167  11.290  1.1350 -0.0918 -2.2728
29018SOL    HW297369  11.057  12.297  11.283 -0.6713  1.1839 -0.0424
29019SOL     OW97370   9.653   9.030   8.801 -0.4432 -0.0722 -0.1032
29019SOL    HW197371   9.576   8.987   8.762 -0.0278 -0.1334 -0.8963
29019SOL    HW297372   9.721   8.963   8.797 -0.1809  0.1887  0.0007
29020SOL     OW97373   1.427  12.599  11.521  0.4098 -0.0277  0.0123
29020SOL    HW197374   1.515  12.569  11.499  0.5294  0.6298 -0.4377
29020SOL    HW297375   1.430  12.694  11.509  0.2562  0.2894  2.1262
29021SOL     OW97376  11.537   1.448   4.439 -0.1572  0.2138  0.0281
29021SOL    HW197377  11.441   1.445   4.436 -0.2885  0.8471  2.1831
29021SOL    HW297378  11.558   1.540   4.454  0.8164  0.0966 -0.5163
29022SOL     OW97379   6.958   0.807   4.477  0.1904 -0.0956  0.1240
29022SOL    HW197380   6.951   0.734   4.415 -2.0724 -0.3659  0.6263
29022SOL    HW297381   6.875   0.806   4.525  1.1416  1.2518  1.9021
29023SOL     OW97382  12.479   1.630   5.887 -0.0002 -0.0488  0.0235
29023SOL    HW197383  12.558   1.625   5.940 -0.0697 -0.7537  0.0742
29023SOL    HW297384  12.503   1.686   5.813  1.3491 -2.1925 -1.2743
29024SOL     OW97385   0.243  12.581   3.930  0.1808  0.3853  0.4005
29024SOL    HW197386   0.236  12.622   3.844 -1.1270 -1.7952 -0.6200
29024SOL    HW297387   0.155  12.588   3.968  0.2450 -0.3477  0.7143
29025SOL     OW97388   4.600  12.050   9.933  0.0622  0.0631 -0.5885
29025SOL    HW197389   4.634  12.140   9.933  0.6673 -0.1104  1.4526
29025SOL    HW297390   4.630  12.013  10.016 -2.9237 -0.9447  0.1667
29026SOL     OW97391   5.842   6.821   8.081  0.2193  0.8463  0.5252
29026SOL    HW197392   5.911   6.795   8.143 -0.1251  0.3303  0.6956
29026SOL    HW297393   5.806   6.901   8.119  0.2162  0.7011  0.8392
29027SOL     OW97394   9.068   2.879   8.123 -0.3815  0.3111  0.7393
29027SOL    HW197395   8.997   2.825   8.159  0.5345 -1.1484  0.4486
29027SOL    HW297396   9.024   2.955   8.086 -1.9698 -1.2395 -0.7438
29028SOL     OW97397   6.149   7.007   7.981  0.4240 -0.8362  0.5909
29028SOL    HW197398   6.130   7.048   8.065  0.8174  0.4122  0.0890
29028SOL    HW297399   6.128   7.074   7.916  1.4620 -1.2743 -0.2303
29029SOL     OW97400   9.572   3.374   0.617  0.2837  0.3355 -0.1372
29029SOL    HW197401   9.485   3.334   0.610  0.8688 -0.7164 -1.8299
29029SOL    HW297402   9.612   3.331   0.692  0.6882 -1.9254 -1.5716
29030SOL     OW97403  10.819  11.581  10.736  0.2278 -0.1273 -0.0487
29030SOL    HW197404  10.847  11.554  10.649 -0.2524 -2.3158  0.4181
29030SOL    HW297405  10.858  11.517  10.796  2.1633  2.4083  1.6338
29031SOL     OW97406   9.285   2.439   1.990  0.0979 -0.0548 -0.0719
29031SOL    HW197407   9.238   2.517   2.019  1.5806  0.4378  1.1780
29031SOL    HW297408   9.291   2.447   1.895 -2.2490 -0.1428 -0.2902
29032SOL     OW97409   8.944  10.057   4.340  0.3803 -0.2701  0.6506
29032SOL    HW197410   8.905  10.139   4.311  1.4340  0.3002  0.8008
29032SOL    HW297411   8.924   9.995   4.270  0.3135  0.3332  0.1231
29033SOL     OW97412   2.846   8.130   0.505  0.1313 -0.0267 -0.0360
29033SOL    HW197413   2.773   8.084   0.464 -0.4501  0.2239  0.7077
29033SOL    HW297414   2.850   8.096   0.594  1.9204 -1.1830 -0.5002
29034SOL     OW97415   2.553   5.499   7.169  0.3442 -0.0675  0.1004
29034SOL    HW197416   2.647   5.494   7.153  0.4248  3.1649 -1.1252
29034SOL    HW297417   2.541   5.582   7.216 -1.8379 -0.8411  1.0615
29035SOL     OW97418   0.635   4.044   3.111  0.4280  0.1683  0.1627
29035SOL    HW197419   0.547   4.053   3.148  0.8721 -2.4716  2.1542
29035SOL    HW297420   0.691   4.093   3.171  0.6746 -0.8952  0.8271
29036SOL     OW97421   9.193   9.943   2.806 -0.0201  0.4698 -0.0924
29036SOL    HW197422   9.203   9.988   2.722 -1.5901 -0.2937 -0.7179
29036SOL    HW297423   9.245   9.864   2.797 -1.2250 -0.2576 -0.8628
29037SOL     OW97424  10.953  12.459   5.449  0.2767 -0.2587 -0.3012
29037SOL    HW197425  10.951  12.533   5.510  1.4996  0.1254 -0.6967
29037SOL    HW297426  11.005  12.490   5.375 -0.6805 -0.9163 -1.2975
29038SOL     OW97427   3.302   5.384   5.473 -0.0596  0.4711  0.3653
29038SOL    HW197428   3.347   5.374   5.557  0.5232 -1.2133 -0.1115
29038SOL    HW297429   3.366   5.357   5.408 -0.5772  1.5650 -0.6288
29039SOL     OW97430   4.297   8.780   1.864 -0.0263  0.0590 -0.8054
29039SOL    HW197431   4.251   8.818   1.939  0.8042 -1.2289  0.4273
29039SOL    HW297432   4.242   8.800   1.788 -1.6156  0.2033  0.3362
29040SOL     OW97433   6.355   7.197   6.199 -0.2910 -0.4710  0.0278
29040SOL    HW197434   6.326   7.108   6.175  2.8450 -1.0793 -2.1844
29040SOL    HW297435   6.450   7.195   6.186 -0.1152  3.2729 -0.2739
29041SOL     OW97436   8.064   6.581   3.726  0.2547 -0.5524 -0.6804
29041SOL    HW197437   8.080   6.527   3.648 -0.4854  0.2803 -1.4381
29041SOL    HW297438   8.099   6.667   3.703  2.1265 -0.8432  0.8036
29042SOL     OW97439   4.305  10.628   7.796 -0.5658 -0.3025  0.2958
29042SOL    HW197440   4.385  10.586   7.764  0.2339  1.4075 -0.0950
29042SOL    HW297441   4.247  10.555   7.819  1.9795 -1.6713  3.0205
29043SOL     OW97442  10.446  10.016  11.441  0.4797  0.1121  0.3348
29043SOL    HW197443  10.352  10.018  11.461  1.0981 -0.2656  3.7970
29043SOL    HW297444  10.472   9.926  11.456  1.4972  0.2785 -0.3484
29044SOL     OW97445   2.352   4.934   1.162 -0.1793  0.2425  0.5400
29044SOL    HW197446   2.374   4.850   1.121 -0.4479  0.4657 -0.0742
29044SOL    HW297447   2.423   4.949   1.224  0.3153 -0.0403  0.0589
29045SOL     OW97448   1.812   7.872   6.426  0.4550 -0.0575  0.1097
29045SOL    HW197449   1.888   7.881   6.370 -0.2458 -0.1245 -0.8815
29045SOL    HW297450   1.807   7.956   6.473  0.9415  0.0728 -0.0631
29046SOL     OW97451   1.759  12.381   5.640  0.0737  0.1018 -0.0215
29046SOL    HW197452   1.852  12.358   5.636  0.3144  1.1189 -0.4507
29046SOL    HW297453   1.720  12.334   5.566  0.2901 -0.1037 -0.0083
29047SOL     OW97454  10.772   8.872   1.781  0.7928  0.4062 -0.4743
29047SOL    HW197455  10.733   8.811   1.844  1.3125  0.5762  0.0303
29047SOL    HW297456  10.719   8.863   1.702  0.2520  0.0363 -0.0759
29048SOL     OW97457  10.930   4.947   7.473 -0.7153  0.1695  0.0815
29048SOL    HW197458  10.954   5.008   7.544 -0.0192  0.3788 -0.3297
29048SOL    HW297459  10.870   4.885   7.515 -2.0985  1.5860  0.3342
29049SOL     OW97460  12.575   8.258   6.389  0.0979 -0.6026  0.7077
29049SOL    HW197461  12.530   8.340   6.406  0.4726 -0.4976  1.2309
29049SOL    HW297462  12.598   8.261   6.296  1.3229  0.5038  1.0152
29050SOL     OW97463  12.572  10.575   3.073  0.2680 -0.2223 -0.1462
29050SOL    HW197464  12.502  10.519   3.037  1.4207 -0.4869 -2.1292
29050SOL    HW297465  12.527  10.656   3.097 -0.7315 -0.3535 -1.4509
29051SOL     OW97466   2.558  12.243   6.941  0.5210 -0.4499 -0.4516
29051SOL    HW197467   2.592  12.189   6.869 -0.3794 -2.4705  0.5432
29051SOL    HW297468   2.486  12.191   6.977 -1.1372  1.9605 -0.0787
29052SOL     OW97469   9.365   2.457  12.589  0.0654 -0.1858  0.4496
29052SOL    HW197470   9.388   2.503  12.509  0.4921 -1.7968 -0.3930
29052SOL    HW297471   9.280   2.494  12.614  0.6922  1.5183  0.2215
29053SOL     OW97472   9.268   6.821   7.542  0.2041  0.3264 -0.1868
29053SOL    HW197473   9.217   6.743   7.517 -2.1216  0.6605  2.9922
29053SOL    HW297474   9.237   6.889   7.483  0.2400 -0.4808 -1.1778
29054SOL     OW97475   4.447   7.221   0.550 -0.7056 -0.0302  0.6896
29054SOL    HW197476   4.540   7.218   0.573 -1.3403 -2.4554  3.5327
29054SOL    HW297477   4.425   7.314   0.553  1.8467  0.7529 -1.4428
29055SOL     OW97478   4.346  11.642   5.977 -0.3683 -0.1983 -0.4704
29055SOL    HW197479   4.338  11.595   5.894  0.3451 -0.4808 -0.3887
29055SOL    HW297480   4.432  11.617   6.010 -0.3120  0.5478 -0.0351
29056SOL     OW97481  12.431   8.230   5.303 -0.4808  0.0596 -0.1668
29056SOL    HW197482  12.454   8.247   5.212 -1.0154 -0.7435 -0.4581
29056SOL    HW297483  12.508   8.187   5.339 -1.3560 -2.4602 -1.0936
29057SOL     OW97484   0.374   0.146   1.430 -0.5189 -0.4030  0.1781
29057SOL    HW197485   0.309   0.195   1.381 -1.7410 -2.5151 -0.4718
29057SOL    HW297486   0.335   0.059   1.440  1.2305 -1.0694  1.8227
29058SOL     OW97487   2.932   3.035   1.443 -0.3621 -0.4422 -0.0001
29058SOL    HW197488   2.917   3.109   1.501 -0.6901  0.7537 -1.5510
29058SOL    HW297489   3.002   2.985   1.485  1.8138  2.1910 -0.1903
29059SOL     OW97490   5.312  12.024   6.792  0.4690  0.5971 -0.0842
29059SOL    HW197491   5.292  11.941   6.747  0.9196  0.7264 -0.5335
29059SOL    HW297492   5.290  12.007   6.884 -1.1990  0.5647 -0.4476
29060SOL     OW97493   0.901   2.112   8.716  0.4250 -0.0170 -0.7944
29060SOL    HW197494   0.972   2.049   8.724  1.5455  1.3644  0.8440
29060SOL    HW297495   0.939   2.185   8.668 -0.3248  0.1543 -1.1447
29061SOL     OW97496   3.887  10.214   3.956  0.0047  0.0530  0.1894
29061SOL    HW197497   3.978  10.243   3.957 -0.0978  0.5815 -1.7066
29061SOL    HW297498   3.887  10.131   4.005  1.1404  0.9199  1.7534
29062SOL     OW97499   8.489   1.691  10.567 -0.5803  0.2178 -0.4445
29062SOL    HW197500   8.517   1.602  10.547 -0.8068  0.1335 -0.3882
29062SOL    HW297501   8.406   1.680  10.614 -1.5196  0.5130 -1.9728
29063SOL     OW97502   0.377   6.308   4.705  0.6505 -0.0032 -0.4820
29063SOL    HW197503   0.325   6.240   4.748  1.1203 -0.3727 -0.4821
29063SOL    HW297504   0.387   6.275   4.615 -2.7821  2.0914 -1.8488
29064SOL     OW97505  11.650  12.649   1.731 -0.0441 -0.0947 -1.2490
29064SOL    HW197506  11.561  12.627   1.761  0.4542  0.6228  0.8887
29064SOL    HW297507  11.675  12.575   1.676 -1.9041 -0.3825 -1.7698
29065SOL     OW97508  11.470   6.288   1.713 -0.0518  0.8780  0.2658
29065SOL    HW197509  11.408   6.351   1.750 -0.6105  0.0774  0.7262
29065SOL    HW297510  11.416   6.213   1.688  0.5290  0.7997 -0.7954
29066SOL     OW97511  10.739   2.870   0.139  0.2098  0.3176 -0.0600
29066SOL    HW197512  10.801   2.851   0.209  0.1359  1.1320  0.2434
29066SOL    HW297513  10.742   2.793   0.082  0.9623  0.0430  0.3351
29067SOL     OW97514   5.443   9.146  12.541  0.2985  0.3187  0.6934
29067SOL    HW197515   5.350   9.125  12.532  0.0204  0.7126  2.2285
29067SOL    HW297516   5.489   9.073  12.501 -0.6706  0.2242 -0.2880
29068SOL     OW97517   7.337   6.968   1.825  0.1103 -0.1150 -0.4308
29068SOL    HW197518   7.401   6.987   1.756  1.5013  1.5898  1.2136
29068SOL    HW297519   7.348   7.039   1.889 -0.9111 -1.7352  1.6954
29069SOL     OW97520   6.211   3.355   7.137 -0.0504 -0.2952  0.2758
29069SOL    HW197521   6.289   3.305   7.112  1.4086  1.5162  0.9246
29069SOL    HW297522   6.236   3.397   7.220 -0.4282  2.9108 -1.0992
29070SOL     OW97523   4.165  10.290   0.345 -0.5369 -0.4223 -0.4689
29070SOL    HW197524   4.152  10.251   0.259  0.2423 -1.6908 -0.0321
29070SOL    HW297525   4.161  10.216   0.406 -0.1175  0.3287  0.4981
29071SOL     OW97526   1.957   6.426  12.250 -0.1199  0.1492  0.8587
29071SOL    HW197527   2.040   6.396  12.287  0.0279  0.5086  0.8254
29071SOL    HW297528   1.974   6.517  12.225  0.6474 -0.7573 -2.5459
29072SOL     OW97529  12.142   9.177   6.901  0.2957  0.1101  0.1431
29072SOL    HW197530  12.172   9.263   6.870  1.3526 -0.0584  0.6422
29072SOL    HW297531  12.076   9.150   6.837  1.6523  0.2430 -1.3628
29073SOL     OW97532   4.273  11.074  10.046  0.0048  0.1703  0.2914
29073SOL    HW197533   4.179  11.074  10.032  0.0577  0.8866 -0.0950
29073SOL    HW297534   4.298  10.982  10.039 -0.4327  0.1393 -1.2632
29074SOL     OW97535  12.444  10.609   2.232  0.3238  0.2429  0.0770
29074SOL    HW197536  12.529  10.626   2.192  0.4572  0.1632  0.3237
29074SOL    HW297537  12.458  10.626   2.325  1.2738 -3.9631  0.8752
29075SOL     OW97538  10.134   2.100  10.641 -0.4237  0.1723  0.3373
29075SOL    HW197539  10.106   2.132  10.727 -1.0568 -0.4086  0.3494
29075SOL    HW297540  10.128   2.177  10.584  0.4446  0.6799  0.8995
29076SOL     OW97541   0.034   7.385   1.674  0.7004  0.2605 -0.3234
29076SOL    HW197542   0.122   7.407   1.641  0.9742  0.7384  0.6869
29076SOL    HW297543  -0.025   7.408   1.602  1.2785  1.3281 -0.4829
29077SOL     OW97544   4.093   6.230   9.378  0.7402  0.8609 -0.3539
29077SOL    HW197545   4.126   6.233   9.288  1.1029  1.3408 -0.2086
29077SOL    HW297546   4.132   6.151   9.416 -1.1353 -0.5812 -1.2661
29078SOL     OW97547   6.082   0.177   9.843  0.0117 -0.7904 -0.7036
29078SOL    HW197548   6.135   0.113   9.891 -2.6670 -3.0409 -0.5554
29078SOL    HW297549   5.997   0.176   9.887 -0.7822  1.3158 -2.0552
29079SOL     OW97550  11.332   2.256   9.671 -0.6226  0.2317  0.3014
29079SOL    HW197551  11.406   2.198   9.687 -0.6552 -0.3247 -1.3502
29079SOL    HW297552  11.299   2.230   9.585 -2.8396  0.3873  1.0367
29080SOL     OW97553   3.061   1.428   1.475 -0.1504  0.3791  0.1447
29080SOL    HW197554   3.047   1.455   1.566  0.7696  0.2111  0.3436
29080SOL    HW297555   3.005   1.486   1.424 -3.4858 -1.7495  1.0138
29081SOL     OW97556   6.684  11.105   7.767 -0.0986  0.2481  0.5758
29081SOL    HW197557   6.594  11.125   7.793 -0.5837 -1.2820  0.1872
29081SOL    HW297558   6.715  11.185   7.725 -2.2636 -0.0392 -1.8378
29082SOL     OW97559   4.951  12.888   5.681 -0.2451 -0.2122  0.0928
29082SOL    HW197560   4.858  12.863   5.682 -0.0467 -0.9426  0.8813
29082SOL    HW297561   4.997  12.809   5.707  0.6211  0.1195 -0.3988
29083SOL     OW97562   9.614   3.039  10.494  0.4138  0.5594  0.3846
29083SOL    HW197563   9.572   3.073  10.573 -0.5816 -2.1818  1.1411
29083SOL    HW297564   9.544   3.000  10.443  1.7112 -3.0655  1.0944
29084SOL     OW97565   1.114   2.890   4.360 -0.2970  0.2712 -0.1374
29084SOL    HW197566   1.162   2.972   4.349  1.7019 -0.8731 -0.4477
29084SOL    HW297567   1.098   2.860   4.270 -2.0479  0.8360 -0.0533
29085SOL     OW97568   4.185   8.196  12.814 -0.1736  0.2955  0.8545
29085SOL    HW197569   4.257   8.195  12.750 -1.2086 -0.1225 -0.3282
29085SOL    HW297570   4.160   8.288  12.820 -0.9004  0.1836 -0.3025
29086SOL     OW97571   8.075   3.630  12.110  0.1328 -0.0408 -0.2288
29086SOL    HW197572   8.029   3.675  12.038  1.4085  0.3265 -0.8423
29086SOL    HW297573   8.115   3.553  12.068  0.2473 -0.2417  0.2464
29087SOL     OW97574  10.412   4.564   3.121 -0.4105 -0.2349 -0.1110
29087SOL    HW197575  10.363   4.516   3.055  0.0163  1.3882 -1.6963
29087SOL    HW297576  10.503   4.541   3.105 -0.4425 -3.6923  3.1855
29088SOL     OW97577  10.058   0.401   4.528 -0.2278  0.5149  0.4288
29088SOL    HW197578  10.045   0.459   4.453  0.1158  2.1895  1.5983
29088SOL    HW297579  10.152   0.385   4.529 -0.3235 -0.1090  0.1001
29089SOL     OW97580  11.657   9.096  12.197 -0.4615 -0.0958 -0.2010
29089SOL    HW197581  11.571   9.107  12.157 -0.7018 -0.2889  0.2609
29089SOL    HW297582  11.694   9.019  12.153  0.2238  1.0401 -1.6824
29090SOL     OW97583   4.538   1.674   3.835 -0.0148  0.4888 -0.6393
29090SOL    HW197584   4.532   1.707   3.925  0.9619 -0.5578 -0.1580
29090SOL    HW297585   4.597   1.735   3.791 -0.5189  1.0212 -0.5919
29091SOL     OW97586   5.165   8.043  10.577  0.1557 -0.0119 -1.0871
29091SOL    HW197587   5.234   8.086  10.627 -1.4974  0.3558  1.0311
29091SOL    HW297588   5.203   7.960  10.549  0.6242 -1.2617  2.6974
29092SOL     OW97589   4.161   0.486   3.701  0.1410 -0.0938  0.0509
29092SOL    HW197590   4.135   0.527   3.618 -1.5292 -1.4687 -0.1793
29092SOL    HW297591   4.242   0.440   3.681 -0.7087 -1.1660 -1.1273
29093SOL     OW97592   3.054   5.210   5.411 -0.2742 -0.0236 -0.2742
29093SOL    HW197593   2.962   5.213   5.437 -0.3106  0.7097 -0.4737
29093SOL    HW297594   3.072   5.116   5.399 -0.7081 -0.2548  0.7621
29094SOL     OW97595  10.406   2.751   5.526 -0.6011  0.2296 -0.3214
29094SOL    HW197596  10.452   2.674   5.493 -0.1259 -0.2195  1.3232
29094SOL    HW297597  10.435   2.822   5.468  1.1007 -0.3192 -0.2021
29095SOL     OW97598  12.847   4.893   4.610  0.5038 -0.8554  0.4074
29095SOL    HW197599  12.887   4.961   4.556 -0.3480 -1.4418 -1.0222
29095SOL    HW297600  12.917   4.863   4.667  1.3902 -0.0715 -0.2484
29096SOL     OW97601   2.258   0.030   9.381 -0.6104  0.3779  0.3170
29096SOL    HW197602   2.192  -0.004   9.441 -0.8240 -0.1010 -0.1770
29096SOL    HW297603   2.245  -0.020   9.300  0.6843 -0.0902  0.3769
29097SOL     OW97604   2.292   6.076   4.692 -0.3814 -0.4628 -0.4601
29097SOL    HW197605   2.291   5.985   4.721  0.5104  0.3066  2.3353
29097SOL    HW297606   2.312   6.071   4.599  0.5386 -3.0988 -0.2171
29098SOL     OW97607  10.410   7.046   5.827  0.1872  0.3491 -0.2634
29098SOL    HW197608  10.402   7.115   5.762  0.0802  0.0233 -0.5987
29098SOL    HW297609  10.471   7.081   5.892 -0.7897  1.2409  0.2067
29099SOL     OW97610   3.136   0.270   6.955  0.2557 -0.0042  0.7147
29099SOL    HW197611   3.119   0.240   7.044  0.3707 -1.7270  0.1822
29099SOL    HW297612   3.214   0.223   6.928 -0.4920 -0.4776 -0.7321
29100SOL     OW97613   7.958   2.419   8.372 -0.3521 -0.1401  0.4282
29100SOL    HW197614   8.050   2.398   8.388  0.1910  1.9186  0.2699
29100SOL    HW297615   7.957   2.460   8.285 -1.2447  0.7418  0.8230
29101SOL     OW97616   5.515   6.150   9.271  0.3880 -0.2033 -0.0121
29101SOL    HW197617   5.566   6.221   9.310  1.5792  0.4990 -2.6385
29101SOL    HW297618   5.570   6.072   9.284  0.0705 -0.2784  0.9756
29102SOL     OW97619   7.009  11.690   6.304 -0.2998 -0.1308  0.2050
29102SOL    HW197620   7.046  11.616   6.257  0.1402 -0.6253  1.2816
29102SOL    HW297621   7.060  11.695   6.385  0.2992  1.9227 -0.2306
29103SOL     OW97622   9.368   6.165   6.027 -0.2675  0.2541 -0.0920
29103SOL    HW197623   9.405   6.201   5.946  1.1602 -1.0703 -0.0863
29103SOL    HW297624   9.424   6.089   6.046 -0.7790  0.3595  1.9699
29104SOL     OW97625   6.043   1.668   0.326  0.0071  0.1583 -0.0367
29104SOL    HW197626   6.010   1.649   0.414 -0.4786 -0.5184 -0.3593
29104SOL    HW297627   6.126   1.714   0.341 -0.7806  1.3589  0.7802
29105SOL     OW97628   2.307   1.847  12.477  0.4529  0.4803 -0.2661
29105SOL    HW197629   2.290   1.925  12.425 -1.5263  0.2079 -0.1195
29105SOL    HW297630   2.273   1.775  12.424  0.3489 -0.0351  0.4760
29106SOL     OW97631   7.816   2.128   7.990  0.1965  0.2814  0.5625
29106SOL    HW197632   7.782   2.106   7.903 -0.6260  1.5910  0.5211
29106SOL    HW297633   7.790   2.055   8.045  1.9851 -1.2731 -0.5574
29107SOL     OW97634   8.355   5.963   2.055 -0.2209 -0.4127  0.0891
29107SOL    HW197635   8.408   6.027   2.102  1.3340 -2.7377  1.7150
29107SOL    HW297636   8.366   5.986   1.963  1.4061  0.8387  0.5508
29108SOL     OW97637   0.623   8.458   4.687  0.1744 -0.6676  0.6912
29108SOL    HW197638   0.539   8.490   4.654  1.1601 -0.8283 -2.2459
29108SOL    HW297639   0.632   8.499   4.773 -3.1334 -1.1358  1.3990
29109SOL     OW97640   4.299   0.268  10.881 -0.2487  0.6094  0.0162
29109SOL    HW197641   4.358   0.343  10.895  0.6998 -0.0544 -0.2994
29109SOL    HW297642   4.315   0.242  10.790 -1.2550  0.5915 -0.1618
29110SOL     OW97643   8.081   6.038   7.981 -0.4690  0.0159 -0.0831
29110SOL    HW197644   8.095   5.943   7.985 -0.5486 -0.1565 -2.4848
29110SOL    HW297645   8.132   6.067   7.905  0.0146  2.0099  0.9275
29111SOL     OW97646   3.040   2.633   0.717 -0.1220  0.0904  0.0628
29111SOL    HW197647   3.078   2.624   0.804 -0.0026  0.5423  0.0602
29111SOL    HW297648   3.115   2.631   0.657 -0.0463  1.4535  0.0908
29112SOL     OW97649  12.092   7.028   5.079  0.2072  0.0253  0.4043
29112SOL    HW197650  12.013   6.984   5.111 -0.3769  0.1758 -0.7495
29112SOL    HW297651  12.147   6.956   5.048  0.8507 -0.1328  1.8552
29113SOL     OW97652   8.443   6.946   7.543  0.1380 -0.2900 -0.0842
29113SOL    HW197653   8.447   6.972   7.451  3.6469 -0.8612 -0.2280
29113SOL    HW297654   8.534   6.948   7.573 -0.6913 -1.6114  2.9689
29114SOL     OW97655   9.774   9.915   8.827 -0.6183  0.0317  0.0435
29114SOL    HW197656   9.783   9.992   8.882 -0.4958 -1.0020  1.5373
29114SOL    HW297657   9.773   9.949   8.737 -2.4339  1.9145  0.6991
29115SOL     OW97658   5.895   8.802  11.878  0.0409 -0.8867 -0.0365
29115SOL    HW197659   5.881   8.830  11.788  1.1941 -0.6255 -0.1544
29115SOL    HW297660   5.984   8.769  11.879 -0.1238 -1.3324  0.9041
29116SOL     OW97661  11.701   1.648  11.093  0.9642 -0.2810  0.1433
29116SOL    HW197662  11.652   1.575  11.131 -1.3559  1.8006  1.4566
29116SOL    HW297663  11.708   1.626  11.000 -1.7565 -1.1440  0.0401
29117SOL     OW97664  11.592  11.418   0.820 -0.3430 -0.4130  0.4768
29117SOL    HW197665  11.619  11.449   0.734  0.8111 -0.8311  0.6674
29117SOL    HW297666  11.500  11.443   0.827 -0.7471 -1.2568 -1.2805
29118SOL     OW97667   3.831   9.352   1.098 -0.7047 -0.2832  0.3744
29118SOL    HW197668   3.835   9.299   1.018  1.1721 -0.4983  0.5455
29118SOL    HW297669   3.814   9.289   1.168  1.0328 -0.6621  0.5161
29119SOL     OW97670  12.882   9.014  11.252 -0.2075 -0.9092 -0.1326
29119SOL    HW197671  12.819   9.086  11.255  1.5257  0.6561 -0.0917
29119SOL    HW297672  12.843   8.947  11.308 -1.1497  0.6235  1.1527
29120SOL     OW97673   9.950   8.764   1.788 -0.4039  0.3338 -0.0801
29120SOL    HW197674   9.856   8.761   1.772 -0.4655  0.8686  0.1856
29120SOL    HW297675   9.981   8.678   1.760 -1.2934 -0.6902  1.8739
29121SOL     OW97676   5.338   0.113   0.799  0.5910  0.5659  0.2383
29121SOL    HW197677   5.350   0.020   0.822  0.7496  1.0294  2.2296
29121SOL    HW297678   5.426   0.147   0.788  0.5573  0.6313  0.1701
29122SOL     OW97679   3.518  11.926  12.361 -0.4805 -0.5391  0.3037
29122SOL    HW197680   3.425  11.911  12.343 -0.8604  1.7862 -0.0385
29122SOL    HW297681   3.553  11.957  12.277  0.2619 -0.0491  0.7871
29123SOL     OW97682   8.843   9.386   1.768  0.2124 -0.6558 -0.5604
29123SOL    HW197683   8.876   9.358   1.853  2.2861  0.2110 -1.0226
29123SOL    HW297684   8.809   9.306   1.727  2.7383 -1.8589 -0.4408
29124SOL     OW97685   2.777   9.268   8.645 -0.9251  0.1923 -0.0641
29124SOL    HW197686   2.826   9.274   8.727 -1.8983 -1.0672  0.6392
29124SOL    HW297687   2.830   9.210   8.590 -0.6616  0.4101 -0.0456
29125SOL     OW97688  12.909   3.265  10.353 -0.0313  0.2363  0.6907
29125SOL    HW197689  12.994   3.222  10.340 -0.7491 -0.8471 -0.7050
29125SOL    HW297690  12.895   3.314  10.272 -1.0579 -0.2027  0.5859
29126SOL     OW97691   8.409   8.214   0.538  0.0998  1.2953 -0.2852
29126SOL    HW197692   8.429   8.307   0.547  0.7810  1.0590  0.7712
29126SOL    HW297693   8.356   8.209   0.458 -1.9668  2.8997  0.8898
29127SOL     OW97694   9.623   7.264   5.196  0.0369  0.9551 -0.1518
29127SOL    HW197695   9.554   7.214   5.239  0.7509  0.4324  0.4231
29127SOL    HW297696   9.669   7.309   5.267 -0.7600  2.6922 -0.6784
29128SOL     OW97697   2.090   9.293   3.969  0.1386 -0.2234  0.2035
29128SOL    HW197698   2.006   9.299   4.014 -1.0597 -0.7477 -1.8238
29128SOL    HW297699   2.148   9.349   4.019 -1.8847  1.6088  0.6545
29129SOL     OW97700   5.908   7.611   5.542  1.0776  0.1769  0.4210
29129SOL    HW197701   5.863   7.557   5.608  0.0948  0.3063 -0.1310
29129SOL    HW297702   5.998   7.618   5.575  0.3325  1.2374  2.3647
29130SOL     OW97703   8.928   9.556   5.728  0.1158 -0.0671  0.1399
29130SOL    HW197704   8.995   9.493   5.702  0.2451  0.0776  0.1210
29130SOL    HW297705   8.973   9.615   5.789 -0.2116 -0.4780  0.8002
29131SOL     OW97706   9.016   2.378   8.591 -0.0798  0.3481  0.3944
29131SOL    HW197707   9.102   2.346   8.566 -0.4355 -1.0612  0.8753
29131SOL    HW297708   9.031   2.468   8.618  1.5727 -0.3683  2.1052
29132SOL     OW97709   4.037   1.658  11.116  0.0280 -0.2277  0.1528
29132SOL    HW197710   4.100   1.682  11.184  1.2256  1.8182 -1.5193
29132SOL    HW297711   4.081   1.588  11.067  1.0282  1.0634 -0.8915
29133SOL     OW97712   8.409   0.032   3.809  0.1712  0.1613 -0.0628
29133SOL    HW197713   8.333  -0.026   3.816  0.3148  0.1039  1.2633
29133SOL    HW297714   8.466   0.005   3.881  1.9865 -0.5386 -1.6576
29134SOL     OW97715   1.853   1.483  10.706  0.1545  0.1224  0.4608
29134SOL    HW197716   1.800   1.465  10.784 -0.7013 -0.8236 -0.3143
29134SOL    HW297717   1.795   1.463  10.632  0.5896  2.0071 -0.4541
29135SOL     OW97718  11.942   8.880   6.230 -0.2801  0.1312  0.0691
29135SOL    HW197719  12.037   8.892   6.221 -0.6330  1.6055 -4.2822
29135SOL    HW297720  11.909   8.966   6.256 -0.5294  0.3516 -0.9080
29136SOL     OW97721   9.655   7.986   4.034  0.0060  0.1011  0.0631
29136SOL    HW197722   9.569   7.959   4.001  0.2995  1.3311 -1.8993
29136SOL    HW297723   9.645   8.078   4.057  0.6479  0.0941  0.4180
29137SOL     OW97724  12.616   9.621   6.229  0.0430 -0.2628  0.2041
29137SOL    HW197725  12.636   9.693   6.169  2.3701 -1.3402 -0.4480
29137SOL    HW297726  12.534   9.585   6.198 -0.8029  1.6277  0.1121
29138SOL     OW97727  12.646  10.667   2.436 -0.5563  0.3073 -0.2829
29138SOL    HW197728  12.606  10.655   2.522  1.7465  0.6396  0.9148
29138SOL    HW297729  12.682  10.581   2.414  0.8197  0.7293  0.1934
29139SOL     OW97730  10.171   9.219  11.874  0.5577 -0.7599  0.4223
29139SOL    HW197731  10.178   9.198  11.781  1.8783 -1.3695  0.6355
29139SOL    HW297732  10.092   9.272  11.881  0.4442 -0.7023 -1.0434
29140SOL     OW97733   6.069   6.622   5.413  0.0902  0.0179  0.0791
29140SOL    HW197734   6.093   6.633   5.321  0.8145  0.3382  0.2992
29140SOL    HW297735   6.133   6.559   5.447  0.5531  0.7805  0.6474
29141SOL     OW97736   6.354  10.462   8.720 -0.4151  1.0579  0.1875
29141SOL    HW197737   6.277  10.503   8.680 -0.2421  0.9117 -0.3112
29141SOL    HW297738   6.350  10.371   8.690  0.7513  1.3904 -1.0758
29142SOL     OW97739   1.055  12.623   3.265  0.2674  0.0850 -0.0213
29142SOL    HW197740   1.121  12.579   3.319  2.4809  2.3387 -0.7114
29142SOL    HW297741   1.023  12.694   3.321 -1.2248 -0.6557  0.1022
29143SOL     OW97742   3.208   3.026   4.173  0.6191 -0.1497  0.1447
29143SOL    HW197743   3.182   2.965   4.243  3.4571 -0.3236  1.1651
29143SOL    HW297744   3.126   3.068   4.147 -0.9374 -1.9790  1.7384
29144SOL     OW97745   6.970   2.193  10.039  0.0374  0.6444  0.0969
29144SOL    HW197746   6.975   2.098  10.032 -0.5433  0.7188 -2.1709
29144SOL    HW297747   6.879   2.214  10.022  0.3459  1.6583 -0.4073
29145SOL     OW97748  12.470   1.288  12.960 -0.1226 -0.6036 -0.1963
29145SOL    HW197749  12.394   1.347  12.951 -1.5716 -2.1413  1.2228
29145SOL    HW297750  12.451   1.215  12.902  1.3983 -0.0081 -1.5181
29146SOL     OW97751   9.164  11.658   1.914  0.0036 -0.2703  0.1896
29146SOL    HW197752   9.083  11.695   1.879  0.8716  0.4275 -1.2039
29146SOL    HW297753   9.194  11.598   1.845  0.3581 -1.0055  0.9620
29147SOL     OW97754  10.470  11.343   1.453 -0.3291 -0.0928  0.7508
29147SOL    HW197755  10.446  11.407   1.387 -1.4504 -0.3550  0.8719
29147SOL    HW297756  10.561  11.362   1.475 -0.6268  1.4225  0.7613
29148SOL     OW97757   9.005  12.985   5.773 -0.6734 -0.0821 -0.3583
29148SOL    HW197758   9.047  12.972   5.688  1.0309 -0.8665  0.5613
29148SOL    HW297759   9.006  12.898   5.814 -1.8274  0.2069  0.3163
29149SOL     OW97760   0.633   3.311   3.944 -0.1191  1.1219 -0.2996
29149SOL    HW197761   0.657   3.240   3.885 -0.7702  0.3059  0.3963
29149SOL    HW297762   0.547   3.339   3.915 -0.2258  1.0581 -0.0488
29150SOL     OW97763   8.634   0.768  12.534 -0.7256 -0.2828 -0.9689
29150SOL    HW197764   8.712   0.801  12.577 -1.4692  0.5590 -0.2085
29150SOL    HW297765   8.566   0.771  12.603 -1.4112 -1.0211 -1.5931
29151SOL     OW97766  10.047   0.195   0.801  0.8983  0.7685  0.4882
29151SOL    HW197767  10.077   0.106   0.816 -2.9647 -0.5772  1.3948
29151SOL    HW297768   9.988   0.213   0.874 -1.1583  2.6792 -1.4989
29152SOL     OW97769   5.735  10.719   3.472  1.2108  0.4220 -0.0120
29152SOL    HW197770   5.798  10.725   3.399 -1.1953 -1.4107 -2.4090
29152SOL    HW297771   5.654  10.756   3.437 -0.6528 -2.4947  0.8780
29153SOL     OW97772  11.102   3.861   8.530  0.0671  0.3947  0.9447
29153SOL    HW197773  11.131   3.774   8.502 -1.2317  0.6569 -1.4897
29153SOL    HW297774  11.167   3.888   8.594  0.9051 -2.0680  1.2567
29154SOL     OW97775   0.743   4.938   7.719  0.5807  0.3038 -0.5161
29154SOL    HW197776   0.658   4.896   7.709 -0.5644  2.3064  0.1412
29154SOL    HW297777   0.791   4.916   7.640  0.0379 -2.0879 -0.2301
29155SOL     OW97778   2.201   1.614   8.279 -0.3066 -0.2997 -0.0999
29155SOL    HW197779   2.259   1.690   8.269 -1.2932  0.4485 -0.2904
29155SOL    HW297780   2.253   1.540   8.249  0.2320  0.4815 -1.1460
29156SOL     OW97781  11.394  11.249   2.440  0.0691 -0.3546  0.6646
29156SOL    HW197782  11.410  11.223   2.349  2.2361 -1.0224  1.1795
29156SOL    HW297783  11.304  11.222   2.457 -0.8069  0.8701 -1.6199
29157SOL     OW97784   1.072  10.162  10.000  0.5204  0.3120 -0.0416
29157SOL    HW197785   1.050  10.204  10.084 -0.4367  0.2717 -0.2534
29157SOL    HW297786   1.002  10.098   9.988  1.2171 -0.3894 -0.3861
29158SOL     OW97787   2.975   1.126  10.500 -0.5098  0.4856 -0.4149
29158SOL    HW197788   2.952   1.039  10.532 -0.7714  0.4701 -0.6463
29158SOL    HW297789   3.034   1.161  10.567  1.8369 -0.9364 -1.6129
29159SOL     OW97790   2.081   9.722   7.208 -0.0166  0.0532  0.7174
29159SOL    HW197791   2.079   9.648   7.147  2.6416  0.0824  0.4894
29159SOL    HW297792   1.991   9.727   7.242 -1.1276 -1.1402 -1.7574
29160SOL     OW97793   9.960   3.844   6.167  0.0277 -0.8363 -0.1707
29160SOL    HW197794   9.898   3.791   6.116  0.4815 -1.9548  0.4107
29160SOL    HW297795   9.910   3.921   6.194 -0.9845 -1.5147 -0.0811
29161SOL     OW97796  10.582   8.917   9.426 -0.1254 -0.8050  0.3965
29161SOL    HW197797  10.645   8.857   9.387 -1.0339 -0.0208 -2.5297
29161SOL    HW297798  10.635   8.991   9.457  0.5109 -0.5420 -1.2328
29162SOL     OW97799   6.786   8.507   8.245 -0.2941  0.4089  0.0025
29162SOL    HW197800   6.754   8.440   8.305 -0.8760  2.5171  2.2088
29162SOL    HW297801   6.859   8.548   8.292  0.1871  1.1721 -1.3711
29163SOL     OW97802   1.699   2.808  12.530  0.6750  0.8160  0.0083
29163SOL    HW197803   1.646   2.804  12.450 -0.2726  1.5902  0.5758
29163SOL    HW297804   1.637   2.793  12.601  1.5987 -0.4357  0.5992
29164SOL     OW97805   9.483   3.476   6.295  0.2441  0.3105 -0.1976
29164SOL    HW197806   9.445   3.541   6.355  0.6759 -0.2055  0.6606
29164SOL    HW297807   9.407   3.436   6.252 -0.0195  1.4852 -0.8660
29165SOL     OW97808   5.094   1.585   8.037  0.0606  0.1095 -0.7068
29165SOL    HW197809   5.056   1.589   8.125 -0.1390 -0.6456 -0.7468
29165SOL    HW297810   5.189   1.583   8.052  0.1685  2.5099 -0.6250
29166SOL     OW97811   3.786   6.816   9.943  1.1524  0.3035 -0.2011
29166SOL    HW197812   3.841   6.812   9.865 -0.4751 -2.5309 -1.3484
29166SOL    HW297813   3.697   6.820   9.909  0.4304 -0.2344  1.5288
29167SOL     OW97814  10.370   4.384   9.087  0.4589  0.3005 -0.7034
29167SOL    HW197815  10.304   4.319   9.111  0.7461  0.1743 -0.2436
29167SOL    HW297816  10.392   4.427   9.170 -1.6259  2.8068 -1.3137
29168SOL     OW97817   0.621   7.826   0.123 -0.5254  0.3814  0.3017
29168SOL    HW197818   0.679   7.877   0.067  1.5863 -1.3578  0.7853
29168SOL    HW297819   0.631   7.864   0.210  3.3576 -2.4002  1.3161
29169SOL     OW97820  12.689  12.569   3.666 -0.2173 -0.1927 -0.4494
29169SOL    HW197821  12.642  12.526   3.738 -2.4107  0.5504 -1.3521
29169SOL    HW297822  12.693  12.503   3.597  2.4660 -1.1332  0.4614
29170SOL     OW97823   7.610   8.296   9.848 -0.4434  0.7353  0.4712
29170SOL    HW197824   7.664   8.351   9.791 -0.0835  1.2069  1.2499
29170SOL    HW297825   7.664   8.282   9.926  0.8063 -3.3295 -0.8585
29171SOL     OW97826   9.728   3.845   9.209 -0.0434 -0.1222  0.3833
29171SOL    HW197827   9.643   3.814   9.177 -0.6230  0.6389  1.1595
29171SOL    HW297828   9.709   3.928   9.251  1.4275  1.2408 -1.4524
29172SOL     OW97829  12.435  12.921  12.013  0.0538  0.1712 -0.1821
29172SOL    HW197830  12.430  12.973  12.093  1.7840  1.4240 -0.8208
29172SOL    HW297831  12.498  12.852  12.032 -2.1829 -1.7764  0.6368
29173SOL     OW97832   2.213   9.373   7.660 -0.1330 -0.1740 -0.0079
29173SOL    HW197833   2.258   9.458   7.663 -0.7069  0.1872 -1.1800
29173SOL    HW297834   2.127   9.392   7.622 -1.1579 -0.9239  1.8145
29174SOL     OW97835  12.858   8.911  10.800 -0.0362 -0.0971 -0.2341
29174SOL    HW197836  12.769   8.919  10.832 -0.3389  0.0742 -1.0942
29174SOL    HW297837  12.894   8.836  10.848 -0.9442 -0.7511 -0.5442
29175SOL     OW97838   0.264   8.177   4.852 -0.2927  0.0743  0.1055
29175SOL    HW197839   0.342   8.121   4.847 -1.2913 -1.2549 -2.1938
29175SOL    HW297840   0.242   8.180   4.945  1.2901 -1.2372  0.5662
29176SOL     OW97841   9.814   9.591   4.322 -0.4006  0.0125 -0.3315
29176SOL    HW197842   9.879   9.577   4.390 -0.0599  1.0587 -0.4270
29176SOL    HW297843   9.745   9.527   4.341  0.9963 -1.6700 -0.6989
29177SOL     OW97844   7.774   3.665   3.417  0.5862  0.5905  0.1281
29177SOL    HW197845   7.785   3.705   3.330  3.4098 -0.9821 -0.3703
29177SOL    HW297846   7.707   3.599   3.405  1.7550 -0.4068 -1.2365
29178SOL     OW97847   1.944   3.084   2.442 -0.4041  0.2903 -0.1488
29178SOL    HW197848   1.993   3.008   2.473  1.9720  0.9663 -1.9575
29178SOL    HW297849   1.932   3.069   2.349 -0.9303  1.5816 -0.3197
29179SOL     OW97850   8.259   2.437   9.998 -0.0434  0.2060 -0.2270
29179SOL    HW197851   8.336   2.383  10.017 -0.4253 -0.0634  0.6034
29179SOL    HW297852   8.288   2.526  10.015  0.1502  0.1251 -0.1243
29180SOL     OW97853   1.283   0.257  12.621 -0.0835 -0.4592  0.0180
29180SOL    HW197854   1.206   0.216  12.660 -0.3907  0.1884  0.1003
29180SOL    HW297855   1.250   0.304  12.545 -0.0490  1.1649  0.9622
29181SOL     OW97856  11.461   3.849   9.127  0.9134  0.5619 -0.0404
29181SOL    HW197857  11.388   3.910   9.141  0.4314  0.0899 -0.4164
29181SOL    HW297858  11.431   3.792   9.056  0.5290 -1.3592  1.5663
29182SOL     OW97859   8.399   6.011   3.713  0.3927  0.1572  0.2649
29182SOL    HW197860   8.408   5.923   3.676  1.1740  0.0825  0.6164
29182SOL    HW297861   8.431   6.069   3.644  1.3035  0.0574  0.5965
29183SOL     OW97862   1.460   2.532  11.307  0.7469 -0.9751  0.3940
29183SOL    HW197863   1.489   2.568  11.223  1.4202 -1.4603  0.4060
29183SOL    HW297864   1.383   2.480  11.285  1.6894 -2.2008 -0.1745
29184SOL     OW97865   3.731  10.345  10.638 -0.0453  0.2916  0.5438
29184SOL    HW197866   3.651  10.356  10.587  0.4901  2.0743  0.0119
29184SOL    HW297867   3.702  10.317  10.725 -1.0948 -0.8828 -0.1583
29185SOL     OW97868   1.863   0.428   2.738 -0.1019 -0.0310 -0.4409
29185SOL    HW197869   1.948   0.472   2.742 -0.8714  1.4809 -0.0590
29185SOL    HW297870   1.844   0.404   2.829  0.7134 -2.0671 -0.7362
29186SOL     OW97871   6.302   0.093  11.262 -0.1090  0.3534 -0.5367
29186SOL    HW197872   6.217   0.107  11.302  0.3258  1.7288 -0.0625
29186SOL    HW297873   6.347   0.031  11.320 -0.8838 -0.6540 -0.9760
29187SOL     OW97874   6.790   2.026   9.865 -0.2970 -0.6693  0.4027
29187SOL    HW197875   6.869   1.984   9.831  0.4106  0.6869  0.2757
29187SOL    HW297876   6.733   2.035   9.788 -0.4047 -1.2585  0.4084
29188SOL     OW97877   4.996   1.928   1.041 -0.1629  0.2968  0.3551
29188SOL    HW197878   4.971   1.985   1.113 -1.0388 -1.2756  1.3383
29188SOL    HW297879   5.090   1.945   1.029 -0.4145  1.9732  0.5444
29189SOL     OW97880   9.980   1.122   7.484  0.1603  0.6771 -0.6777
29189SOL    HW197881   9.988   1.030   7.508 -0.8048  1.0933  1.4825
29189SOL    HW297882  10.040   1.168   7.544 -1.3695  1.6745  0.1450
29190SOL     OW97883  10.034   8.323   1.038  0.0523 -0.0607 -0.4459
29190SOL    HW197884  10.073   8.362   1.117  1.9331  0.6385 -1.6489
29190SOL    HW297885   9.991   8.243   1.070 -0.8562  1.1439  1.5421
29191SOL     OW97886   2.540   2.283   3.933 -0.7963  0.3430  0.3466
29191SOL    HW197887   2.478   2.336   3.882 -1.3322 -0.3879  0.2085
29191SOL    HW297888   2.566   2.213   3.872  0.7763  1.0733  0.1513
29192SOL     OW97889   3.994   4.310   4.025  0.2255  0.1970 -0.1766
29192SOL    HW197890   4.047   4.350   4.094 -1.2497  0.3085  0.9221
29192SOL    HW297891   3.921   4.370   4.012 -0.9055 -1.0975  0.0228
29193SOL     OW97892   3.792   1.116   8.534  0.2650  0.8841  0.1234
29193SOL    HW197893   3.725   1.140   8.598 -2.1145  0.4949 -2.0564
29193SOL    HW297894   3.748   1.054   8.476  2.1516  1.5272 -2.1402
29194SOL     OW97895   9.985   0.074  10.452 -0.1878 -0.5370  0.3090
29194SOL    HW197896  10.061   0.035  10.494 -0.2966 -1.2855 -0.1788
29194SOL    HW297897  10.019   0.150  10.405  0.1714 -0.5902  0.4812
29195SOL     OW97898   1.852   1.876   8.217 -0.9760 -0.0357  0.0390
29195SOL    HW197899   1.925   1.891   8.277 -2.0513  0.4506  1.2852
29195SOL    HW297900   1.813   1.963   8.206 -0.8035 -0.1202 -1.3871
29196SOL     OW97901   9.601   8.247  11.266 -0.1350  0.0238  0.2530
29196SOL    HW197902   9.563   8.200  11.192  0.2610 -0.5902  0.4347
29196SOL    HW297903   9.551   8.218  11.342 -0.1645  0.2169  0.3082
29197SOL     OW97904   8.766   6.503  12.355  0.3177  0.2774  0.2832
29197SOL    HW197905   8.698   6.506  12.288 -0.2615 -0.3023  0.8396
29197SOL    HW297906   8.835   6.561  12.321 -0.6125  1.1950 -0.0997
29198SOL     OW97907  11.110   3.457  11.443 -0.5849  0.5495 -0.0307
29198SOL    HW197908  11.110   3.419  11.531  0.0366  0.9667  0.1592
29198SOL    HW297909  11.052   3.401  11.392  1.8219 -1.8990 -0.2995
29199SOL     OW97910   0.649  10.656   9.574  0.2450  0.0195  0.1319
29199SOL    HW197911   0.674  10.658   9.667  0.4260 -0.7778  0.1084
29199SOL    HW297912   0.717  10.708   9.531 -1.1462  2.4591  0.6997
29200SOL     OW97913   9.776   8.107   8.662 -0.1794  0.1585  0.4000
29200SOL    HW197914   9.786   8.057   8.581  1.0522 -1.1197  1.2815
29200SOL    HW297915   9.715   8.178   8.640  0.8404  0.4093 -1.8753
29201SOL     OW97916   9.824   8.920   9.547  0.8272 -0.6484  0.0004
29201SOL    HW197917   9.888   8.990   9.533 -1.7057  1.9165  0.2960
29201SOL    HW297918   9.839   8.892   9.637  0.9660  0.5803  0.3814
29202SOL     OW97919   2.603   6.260   4.337 -0.2074  0.4518  0.1571
29202SOL    HW197920   2.673   6.202   4.366 -0.7295 -0.3207 -0.0913
29202SOL    HW297921   2.603   6.332   4.400 -0.2195 -0.3444  1.0867
29203SOL     OW97922   7.498   3.169   1.631 -0.0475 -0.1821 -0.1554
29203SOL    HW197923   7.481   3.142   1.541  1.1129 -0.1756 -0.4023
29203SOL    HW297924   7.577   3.120   1.656 -0.2972 -0.1037  0.8196
29204SOL     OW97925  12.896   4.293   5.738  0.1994  0.0445 -0.3084
29204SOL    HW197926  12.811   4.254   5.761  0.2402  0.2016  0.1149
29204SOL    HW297927  12.915   4.258   5.651 -0.4554  0.2658 -0.5489
29205SOL     OW97928   2.222  10.065   5.114  0.3208 -0.2564  0.0291
29205SOL    HW197929   2.129  10.051   5.097  0.0595  1.7252 -0.4096
29205SOL    HW297930   2.261  10.072   5.027  0.8838 -0.9360  0.2155
29206SOL     OW97931  12.621  10.771   0.157  0.6535  0.0190  0.0372
29206SOL    HW197932  12.552  10.829   0.124 -0.7018 -1.7302 -0.3464
29206SOL    HW297933  12.649  10.812   0.239  0.1189  1.4801 -0.4703
29207SOL     OW97934  12.942   9.575   0.989  0.0068  0.1485  0.0354
29207SOL    HW197935  13.020   9.531   0.957  1.3760  1.9776  0.6563
29207SOL    HW297936  12.965   9.604   1.077 -1.1359  1.2640  0.0008
29208SOL     OW97937   7.198   2.387   9.730 -0.1971  0.1316 -0.1553
29208SOL    HW197938   7.234   2.324   9.668 -0.6467 -0.6680  0.3679
29208SOL    HW297939   7.127   2.430   9.682 -1.7469 -1.7558  0.3148
29209SOL     OW97940   3.274   7.712   1.827  0.1069  0.1219  0.3923
29209SOL    HW197941   3.283   7.701   1.733 -0.6367  1.0693  0.2040
29209SOL    HW297942   3.307   7.800   1.844 -0.5751  0.2798  0.9027
29210SOL     OW97943   0.999   0.538   0.008 -0.2491 -0.3433  0.2426
29210SOL    HW197944   1.044   0.462  -0.028 -0.4427 -0.2143 -0.2699
29210SOL    HW297945   0.929   0.501   0.062 -0.8426 -0.5264 -0.6379
29211SOL     OW97946  11.148   2.278   7.455  0.5843  0.1327 -0.1256
29211SOL    HW197947  11.187   2.285   7.368  0.5552 -0.1666 -0.1671
29211SOL    HW297948  11.094   2.198   7.450  0.7592 -0.0112  0.2332
29212SOL     OW97949   2.295   8.730   5.033 -0.1054 -0.5379  0.1202
29212SOL    HW197950   2.326   8.709   4.945  1.1063 -0.8956  0.6012
29212SOL    HW297951   2.361   8.691   5.091 -0.9145 -0.3678  1.1859
29213SOL     OW97952   3.424   4.031   5.583 -0.0603 -0.4393 -0.0251
29213SOL    HW197953   3.443   3.993   5.497  0.4806 -0.3956  0.0686
29213SOL    HW297954   3.399   4.121   5.565 -1.8275 -0.9463 -0.2919
29214SOL     OW97955   2.806   1.648   1.789 -0.1766 -0.0684 -0.0228
29214SOL    HW197956   2.896   1.679   1.805 -0.6385  1.6784 -0.5885
29214SOL    HW297957   2.814   1.553   1.785  1.7697  0.0765 -0.6749
29215SOL     OW97958   5.966   7.311   2.386 -0.1532  0.1833 -0.3671
29215SOL    HW197959   5.893   7.353   2.432 -1.7356 -0.0948 -2.5148
29215SOL    HW297960   5.974   7.225   2.428 -0.7410  0.3890  0.1938
29216SOL     OW97961   6.753   4.407   4.080  0.5029  0.4103 -0.4945
29216SOL    HW197962   6.780   4.432   4.168  1.3597 -0.4985 -0.4783
29216SOL    HW297963   6.682   4.344   4.093  1.0639 -0.2161 -0.4279
29217SOL     OW97964  11.807  11.463   1.359  0.2391 -0.4572 -0.5694
29217SOL    HW197965  11.759  11.446   1.278  0.2399 -1.9076 -0.2976
29217SOL    HW297966  11.827  11.376   1.393 -0.4410  0.1035  1.3968
29218SOL     OW97967   4.683  12.139   7.019  0.1834  0.1246 -0.5831
29218SOL    HW197968   4.649  12.167   7.104  0.9152 -0.3567 -0.1233
29218SOL    HW297969   4.611  12.090   6.980  0.3032 -0.8465  0.3606
29219SOL     OW97970   7.715   7.444   3.241 -0.2876  0.0096 -0.3198
29219SOL    HW197971   7.632   7.433   3.194 -0.4047  0.4082 -0.2025
29219SOL    HW297972   7.781   7.443   3.172 -0.5201  1.4213 -0.5844
29220SOL     OW97973   4.011   0.899  10.419 -0.0505 -0.4618 -0.6501
29220SOL    HW197974   3.966   0.954  10.483 -0.3300 -0.0695 -1.1718
29220SOL    HW297975   4.090   0.869  10.464 -1.1990 -1.8133  0.5762
29221SOL     OW97976   3.610   2.078  10.629 -0.0048 -0.2099  0.6891
29221SOL    HW197977   3.604   2.104  10.537  2.9569 -0.4119  0.3289
29221SOL    HW297978   3.665   2.145  10.669  1.2202 -1.6823  1.5653
29222SOL     OW97979  12.519  12.927   0.915 -0.4790  0.6068 -0.2804
29222SOL    HW197980  12.569  12.850   0.888  0.7870  1.2824  0.0339
29222SOL    HW297981  12.582  12.999   0.910 -1.4773  1.5192 -0.0075
29223SOL     OW97982  11.674   7.289   2.092  0.4060 -0.0459  0.1620
29223SOL    HW197983  11.646   7.293   2.183 -0.5290 -1.1999 -0.0452
29223SOL    HW297984  11.596   7.260   2.044  0.6015  1.4538 -1.1465
29224SOL     OW97985  10.882   2.214   7.322 -0.1106  0.0040 -0.1650
29224SOL    HW197986  10.916   2.279   7.260  0.2554  0.3972  0.4370
29224SOL    HW297987  10.789   2.208   7.302  0.2694 -1.1007 -1.8572
29225SOL     OW97988   0.162   2.136   5.484 -0.1285  0.0976  0.1619
29225SOL    HW197989   0.233   2.083   5.521  0.0974 -0.2037 -0.6712
29225SOL    HW297990   0.095   2.073   5.459  0.1320  0.1760 -0.8177
29226SOL     OW97991   0.930   1.438   1.348 -0.8715  0.0556  0.1423
29226SOL    HW197992   0.933   1.532   1.331  1.7270 -0.1875 -1.1343
29226SOL    HW297993   0.874   1.403   1.278 -1.7426  0.5974  0.5459
29227SOL     OW97994   9.395   8.954   3.048  0.0192  0.2196 -0.6415
29227SOL    HW197995   9.336   8.889   3.011  2.9146 -1.9538 -1.7729
29227SOL    HW297996   9.390   9.028   2.988 -0.9731 -0.2245 -1.1213
29228SOL     OW97997  10.553   7.894   7.780 -0.0259  0.1636  0.1344
29228SOL    HW197998  10.595   7.918   7.698  1.8910 -1.2855  0.6117
29228SOL    HW297999  10.625   7.863   7.835 -1.4722 -0.3721  1.8017
29229SOL     OW98000   0.054   0.106   7.447 -0.0584 -0.3911 -0.0955
29229SOL    HW198001  -0.023   0.088   7.392 -0.9695  1.8894  0.3256
29229SOL    HW298002   0.020   0.161   7.518  1.9793  0.8803 -0.0295
29230SOL     OW98003   8.092   7.694   7.365  0.1857  0.2167 -0.3576
29230SOL    HW198004   8.165   7.745   7.401  1.2556 -1.5225  0.0136
29230SOL    HW298005   8.043   7.665   7.441  1.4672 -2.0141 -0.3059
29231SOL     OW98006   6.277  10.037   0.200 -0.3034 -0.3330 -0.2211
29231SOL    HW198007   6.259   9.978   0.273 -0.0176  0.2466  0.3238
29231SOL    HW298008   6.217  10.008   0.131 -0.9858 -0.5239  0.4334
29232SOL     OW98009  11.286   8.040   2.985  0.7179 -0.3006 -0.0186
29232SOL    HW198010  11.315   8.111   3.042  1.4047 -0.9951  0.5304
29232SOL    HW298011  11.194   8.026   3.008 -0.0157  1.6786 -1.5072
29233SOL     OW98012   9.189  12.768   4.267  0.3491 -0.4385 -0.2611
29233SOL    HW198013   9.260  12.782   4.205 -0.3284 -1.0735 -1.2139
29233SOL    HW298014   9.230  12.724   4.342  0.5326 -3.5810 -2.0401
29234SOL     OW98015   1.832   1.862  10.730 -0.1296 -0.1154 -0.2002
29234SOL    HW198016   1.758   1.865  10.791 -0.0931 -0.8804 -0.1165
29234SOL    HW298017   1.881   1.784  10.754  1.1369  0.7638  0.2315
29235SOL     OW98018   8.441  12.410   7.791 -0.1272 -0.4327 -0.4644
29235SOL    HW198019   8.385  12.415   7.868 -0.9598  0.0661 -1.0877
29235SOL    HW298020   8.462  12.317   7.783  2.2132 -0.2171  1.8949
29236SOL     OW98021   0.605   2.028   5.144  0.6408 -0.3536  0.2213
29236SOL    HW198022   0.596   1.994   5.055  0.2884  0.8442 -0.2279
29236SOL    HW298023   0.535   1.986   5.193  0.0281 -0.0729 -0.3886
29237SOL     OW98024   8.514   0.742   9.224 -0.2857  0.4010 -0.0431
29237SOL    HW198025   8.530   0.745   9.130  1.1775  0.4065  0.1793
29237SOL    HW298026   8.585   0.687   9.259 -1.0947 -0.0273  0.9980
29238SOL     OW98027   4.964   6.812   5.461 -0.2807  0.0783 -0.3154
29238SOL    HW198028   4.905   6.880   5.492  1.0531  0.0554  2.5641
29238SOL    HW298029   4.957   6.742   5.526  0.7096 -1.1839 -1.4974
29239SOL     OW98030   6.001   5.179   8.931  0.5024  0.4329 -0.1270
29239SOL    HW198031   6.019   5.090   8.962 -0.6061  0.0178 -0.6347
29239SOL    HW298032   6.030   5.179   8.840  0.5921  0.6256 -0.0989
29240SOL     OW98033   7.355   9.909  10.740 -0.1063 -0.2994  0.2252
29240SOL    HW198034   7.379   9.990  10.785  0.6651 -0.6657  0.4845
29240SOL    HW298035   7.361   9.841  10.807  0.1805 -0.7178 -0.2184
29241SOL     OW98036   1.025   5.141   9.576 -0.0819  0.3161 -0.5840
29241SOL    HW198037   1.019   5.221   9.524 -0.2730  0.3768 -0.4678
29241SOL    HW298038   1.119   5.128   9.587 -0.0531  0.7158 -0.3141
29242SOL     OW98039   8.200   6.998   0.689  0.1746  0.1672 -0.3029
29242SOL    HW198040   8.228   6.906   0.683 -0.1894  0.0260  0.1037
29242SOL    HW298041   8.149   7.013   0.609 -0.8382 -0.3656  0.2190
29243SOL     OW98042   4.497   0.863   0.979  0.3851  0.0838 -0.0647
29243SOL    HW198043   4.513   0.842   1.071 -0.1290 -1.3978 -0.2815
29243SOL    HW298044   4.579   0.841   0.935  0.4110  0.1592 -0.0546
29244SOL     OW98045   2.334  10.997  11.199  0.5609 -0.4993 -1.1397
29244SOL    HW198046   2.343  11.067  11.135  1.9438 -0.9098 -1.4336
29244SOL    HW298047   2.424  10.975  11.223  0.1031 -1.2526 -0.0413
29245SOL     OW98048   2.661  12.516   2.937 -0.2535  0.0532 -0.2259
29245SOL    HW198049   2.756  12.506   2.925 -0.1662 -0.8752  1.0585
29245SOL    HW298050   2.648  12.611   2.936  0.4864  0.1705 -1.7411
29246SOL     OW98051  11.802   0.516   0.561 -0.8171  0.3174 -0.1579
29246SOL    HW198052  11.753   0.434   0.570 -0.6686  0.3902  1.6928
29246SOL    HW298053  11.838   0.513   0.472 -0.8461 -1.6050 -0.1499
29247SOL     OW98054   8.787   2.984   5.951  0.2512  0.0447  0.3474
29247SOL    HW198055   8.734   3.007   6.028 -0.5862  1.1899 -0.5341
29247SOL    HW298056   8.833   3.065   5.929  2.1463 -0.8361  0.8686
29248SOL     OW98057   9.267  12.189   3.586 -0.5383  0.4575 -0.4958
29248SOL    HW198058   9.215  12.122   3.542 -0.9034 -0.3850  1.1575
29248SOL    HW298059   9.300  12.244   3.515 -1.1923 -0.7777 -1.8014
29249SOL     OW98060   3.788   3.333   3.282 -0.2677  0.2814  0.0608
29249SOL    HW198061   3.729   3.363   3.352 -1.3189  0.2106 -0.7673
29249SOL    HW298062   3.733   3.278   3.226  0.1268  1.5353 -1.6562
29250SOL     OW98063   3.517   2.918   0.801  0.8434 -0.4130  0.5642
29250SOL    HW198064   3.464   2.858   0.854  0.3026 -2.0262 -1.6392
29250SOL    HW298065   3.607   2.890   0.818  0.8407  0.3447  2.0080
29251SOL     OW98066   3.607   8.751   7.660  0.2766 -0.2799 -0.1297
29251SOL    HW198067   3.589   8.845   7.658  0.4223 -0.1432  2.3062
29251SOL    HW298068   3.619   8.730   7.752  0.3281 -2.7009 -0.6045
29252SOL     OW98069  10.922   9.347   5.284 -0.0458  0.3755 -0.3096
29252SOL    HW198070  10.853   9.283   5.301  0.4229  0.2119  1.0669
29252SOL    HW298071  10.884   9.407   5.220 -0.4906 -1.2744 -1.6805
29253SOL     OW98072   0.567   8.384   0.706  0.7612  0.2612 -0.0452
29253SOL    HW198073   0.590   8.456   0.765 -3.6332  0.9030  1.2418
29253SOL    HW298074   0.597   8.306   0.752  2.0008  1.0139  0.4853
29254SOL     OW98075   8.104   3.222   0.666  0.1318 -0.1427  0.3207
29254SOL    HW198076   8.102   3.314   0.640  3.7471  0.6635  2.1943
29254SOL    HW298077   8.149   3.178   0.594  2.7560  0.5801  1.3934
29255SOL     OW98078   7.909  11.943  11.062  0.9336 -0.1929  0.4796
29255SOL    HW198079   8.000  11.941  11.091 -0.1676  1.6080  4.7394
29255SOL    HW298080   7.899  12.027  11.018  1.3380 -0.4826 -0.1793
29256SOL     OW98081   4.977   1.379  12.758 -0.5050 -0.7457  0.3070
29256SOL    HW198082   4.947   1.293  12.728 -2.0780  0.0456 -0.5385
29256SOL    HW298083   4.983   1.370  12.853 -1.1760 -1.6455  0.2828
29257SOL     OW98084   8.498   0.655   3.487 -0.0255 -0.0266  0.5389
29257SOL    HW198085   8.482   0.739   3.445  1.7042  2.0895  3.7419
29257SOL    HW298086   8.425   0.645   3.548  1.4870  0.9957  2.6404
29258SOL     OW98087   8.943   8.832   1.397 -0.0907  0.3852 -0.4156
29258SOL    HW198088   8.957   8.900   1.464 -0.1678 -0.4944  0.5099
29258SOL    HW298089   8.947   8.750   1.445  0.1492 -0.2867 -1.5545
29259SOL     OW98090  12.347   5.279   6.256 -0.2372  0.3925  0.0736
29259SOL    HW198091  12.299   5.336   6.196 -0.9926  0.0260  0.3164
29259SOL    HW298092  12.396   5.220   6.199 -0.2378  0.6322 -0.1780
29260SOL     OW98093   8.639   9.798   0.524  0.8721  0.1175  0.7076
29260SOL    HW198094   8.670   9.771   0.437 -0.8068 -2.9358  0.9457
29260SOL    HW298095   8.571   9.735   0.546  0.3280  1.5981  3.7278
29261SOL     OW98096   2.158   1.188   2.147  0.3754 -0.0132  0.4690
29261SOL    HW198097   2.075   1.229   2.121  0.1131 -0.7756  0.0737
29261SOL    HW298098   2.133   1.120   2.208  0.4760 -1.6391 -1.2163
29262SOL     OW98099   2.666   8.752   8.278 -0.4327 -0.0600 -0.4937
29262SOL    HW198100   2.587   8.717   8.321 -1.3678  1.9848 -0.4340
29262SOL    HW298101   2.709   8.803   8.347  0.2713 -0.1289 -0.8794
29263SOL     OW98102   8.918   5.468   3.957  0.8374 -0.2959 -0.8714
29263SOL    HW198103   8.964   5.449   3.875 -0.3895 -2.3590 -1.1346
29263SOL    HW298104   8.912   5.384   4.002 -1.7063  0.1078 -0.3421
29264SOL     OW98105  11.490   7.259   3.080  0.4831  0.3847  0.5752
29264SOL    HW198106  11.412   7.241   3.132  0.5740  0.8915  0.8931
29264SOL    HW298107  11.479   7.348   3.049 -2.0701 -1.3609 -4.6700
29265SOL     OW98108   1.953  11.788   0.895  0.3842  0.1632  0.1026
29265SOL    HW198109   1.872  11.807   0.849 -0.2062 -1.5196  0.3573
29265SOL    HW298110   1.960  11.856   0.962 -0.6617  0.4974 -0.1172
29266SOL     OW98111   2.037   4.902   0.745  0.1247  0.0754  0.4288
29266SOL    HW198112   1.964   4.898   0.684 -0.0720  1.1999  0.5576
29266SOL    HW298113   2.002   4.868   0.827 -0.2335  0.4853  0.4531
29267SOL     OW98114   2.400   8.898   8.482  0.7418  0.0953  0.0728
29267SOL    HW198115   2.333   8.959   8.451  0.0062 -0.7843 -0.1093
29267SOL    HW298116   2.384   8.818   8.433  1.8784 -0.1681  0.0944
29268SOL     OW98117  10.831  11.502   5.090 -0.3476  0.4132  0.3788
29268SOL    HW198118  10.809  11.589   5.124  0.4126  1.1113 -0.8583
29268SOL    HW298119  10.926  11.502   5.083 -0.4979  1.1819 -3.8374
29269SOL     OW98120   9.171  11.716   1.256  0.2711 -0.1109  0.1053
29269SOL    HW198121   9.162  11.733   1.350 -1.4835  0.5896 -0.1416
29269SOL    HW298122   9.127  11.632   1.242  3.0904 -1.7384  0.2918
29270SOL     OW98123   2.720   5.682   5.222 -0.1548  0.9765 -0.4799
29270SOL    HW198124   2.742   5.728   5.141 -0.6530 -0.3936 -1.4308
29270SOL    HW298125   2.682   5.599   5.193  1.7643 -0.5819  1.1491
29271SOL     OW98126  10.861   7.681  12.510  0.0934 -0.0280 -0.2970
29271SOL    HW198127  10.827   7.729  12.586  2.7968  0.1544  0.9274
29271SOL    HW298128  10.950   7.713  12.500  0.2923 -1.1532 -2.6741
29272SOL     OW98129  12.143   4.175   1.010 -1.0166 -0.5873 -0.2455
29272SOL    HW198130  12.127   4.155   1.102 -1.7486  0.9700 -0.0155
29272SOL    HW298131  12.092   4.110   0.962 -2.3723 -0.0766  0.4718
29273SOL     OW98132   4.260   1.435  10.809  0.1980 -0.1411  0.1965
29273SOL    HW198133   4.227   1.521  10.781 -1.5652 -1.3333 -1.6955
29273SOL    HW298134   4.190   1.374  10.786  2.2872 -2.3902 -0.6734
29274SOL     OW98135   7.535   0.595   0.671 -0.5321  0.0660 -0.0548
29274SOL    HW198136   7.476   0.572   0.741 -0.3363  1.0148  0.4454
29274SOL    HW298137   7.614   0.628   0.715 -0.6808  1.3549 -0.6817
29275SOL     OW98138   8.841   1.383   6.678  0.9679 -0.1915  0.1064
29275SOL    HW198139   8.857   1.477   6.683  1.0689 -0.2685  2.1668
29275SOL    HW298140   8.919   1.344   6.716  0.8177 -1.0995 -0.4983
29276SOL     OW98141   4.961  12.148  10.675 -0.1261 -0.0075 -0.3164
29276SOL    HW198142   4.993  12.234  10.650  0.6809  0.8845  3.1834
29276SOL    HW298143   4.878  12.138  10.629 -0.4093  2.8105 -0.5728
29277SOL     OW98144   2.170   6.837  11.780  0.4100 -0.0604 -0.7046
29277SOL    HW198145   2.153   6.759  11.832  0.5877 -1.2758 -2.4036
29277SOL    HW298146   2.258   6.864  11.806  0.3553 -0.4111 -0.1228
29278SOL     OW98147   7.973   7.909   7.202 -0.3146  0.4633  0.0607
29278SOL    HW198148   8.042   7.971   7.228  1.2729 -0.2715 -2.1475
29278SOL    HW298149   7.985   7.834   7.260 -0.2622  0.9666  0.7130
29279SOL     OW98150   2.276   2.305  10.930 -0.0982 -0.1828  0.0200
29279SOL    HW198151   2.256   2.309  10.837  0.1836 -0.7567 -0.0722
29279SOL    HW298152   2.258   2.393  10.963 -1.1309 -0.2384 -0.3813
29280SOL     OW98153   9.798   2.560  10.669  0.4612 -0.1825  0.4394
29280SOL    HW198154   9.705   2.577  10.684  0.8380  1.0853  1.5525
29280SOL    HW298155   9.826   2.632  10.612  1.0767  0.3045  1.3385
29281SOL     OW98156   0.496   7.119   8.652 -0.1976 -0.7939 -0.3314
29281SOL    HW198157   0.422   7.090   8.598  0.4061  0.2610 -1.8084
29281SOL    HW298158   0.464   7.114   8.742 -2.1340 -0.2146 -0.9344
29282SOL     OW98159   5.036   6.625   8.519 -0.3131 -0.0230  0.6563
29282SOL    HW198160   4.947   6.595   8.536 -1.3964  0.8408 -2.7404
29282SOL    HW298161   5.025   6.707   8.471  2.2639 -0.3376 -0.6504
29283SOL     OW98162   4.948  10.394   6.711 -0.4497  0.3922 -0.4801
29283SOL    HW198163   5.015  10.327   6.701  0.1964  1.0617 -0.7158
29283SOL    HW298164   4.968  10.436   6.795 -0.6273  0.5367 -0.5088
29284SOL     OW98165  12.419  11.551  11.231  0.1089  0.4514  0.2492
29284SOL    HW198166  12.413  11.598  11.148 -0.3431 -0.8012 -0.4497
29284SOL    HW298167  12.422  11.459  11.206  0.1792  0.0630  1.6242
29285SOL     OW98168   9.136   1.844   6.363 -0.2746 -0.3403  0.2686
29285SOL    HW198169   9.110   1.753   6.379 -0.9852 -0.1814  0.0310
29285SOL    HW298170   9.105   1.863   6.274  0.4397 -0.0676  0.0703
29286SOL     OW98171   4.486   7.357   9.922 -0.3646 -0.1890  0.2202
29286SOL    HW198172   4.438   7.367  10.004 -0.6907  0.6810 -0.0665
29286SOL    HW298173   4.556   7.295   9.942 -0.5942 -0.1706  1.0856
29287SOL     OW98174   3.013   9.439   2.542  0.6018 -0.4889  0.1311
29287SOL    HW198175   2.963   9.517   2.566  0.8420 -0.3953  0.3273
29287SOL    HW298176   2.981   9.417   2.454 -2.1277 -2.3279  1.4522
29288SOL     OW98177   3.981  10.214  12.067 -0.2604 -0.6451 -0.2518
29288SOL    HW198178   3.905  10.273  12.062  0.2754 -0.0434 -1.6182
29288SOL    HW298179   3.942  10.126  12.073 -1.0602 -0.2466  1.0144
29289SOL     OW98180   9.187  12.703   6.170 -0.2080  0.2861  0.2710
29289SOL    HW198181   9.155  12.672   6.255  1.3052  1.7967  1.4500
29289SOL    HW298182   9.282  12.707   6.180  0.2856 -2.1001 -2.4406
29290SOL     OW98183  12.913   0.517   1.522 -0.0370 -0.3833  0.1491
29290SOL    HW198184  12.823   0.544   1.542 -0.4597 -1.4635 -0.1836
29290SOL    HW298185  12.910   0.421   1.527  1.3443 -0.3976  1.1052
29291SOL     OW98186  10.657   9.926   6.079  0.5834  0.5234 -0.3945
29291SOL    HW198187  10.738   9.917   6.128 -0.0029 -4.0276  0.1873
29291SOL    HW298188  10.681   9.904   5.988  0.0536 -1.4357 -0.1182
29292SOL     OW98189   2.428   8.493   5.891  0.0609 -0.2776 -0.1978
29292SOL    HW198190   2.504   8.434   5.888  0.4452  0.1581  0.6232
29292SOL    HW298191   2.466   8.579   5.907 -0.6594 -0.1808  1.0629
29293SOL     OW98192   6.336   8.321   0.154  0.3791 -0.6255  0.3773
29293SOL    HW198193   6.421   8.340   0.114  1.0596 -1.6146  1.3125
29293SOL    HW298194   6.281   8.295   0.080  0.6354  0.8097 -0.3458
29294SOL     OW98195   4.173   1.254   9.625  0.3080 -0.5433 -0.7287
29294SOL    HW198196   4.127   1.205   9.556 -0.8960  1.0142 -1.0947
29294SOL    HW298197   4.112   1.323   9.649  2.0665  0.9800 -0.4483
29295SOL     OW98198   2.862   1.242   2.305  0.0177 -0.1657 -0.0308
29295SOL    HW198199   2.926   1.188   2.351 -0.7710 -0.0588  1.2453
29295SOL    HW298200   2.846   1.196   2.223  0.8814 -0.7796  0.1300
29296SOL     OW98201   9.294   0.124  10.127 -0.5270  0.3028 -0.4799
29296SOL    HW198202   9.259   0.098  10.042 -0.3944  0.5901 -0.6237
29296SOL    HW298203   9.379   0.164  10.108 -1.6628  2.9114 -0.5422
29297SOL     OW98204  11.851   1.240   5.343  0.0554  0.2594  0.1024
29297SOL    HW198205  11.784   1.302   5.313 -0.2173 -0.5028 -0.8872
29297SOL    HW298206  11.871   1.268   5.433  0.2150  2.0146 -0.4477
29298SOL     OW98207  11.193   6.614   6.535 -0.3693 -0.3012  0.1107
29298SOL    HW198208  11.281   6.618   6.572 -0.7217  0.0112  0.9580
29298SOL    HW298209  11.158   6.702   6.549  0.1680  0.4627 -2.8020
29299SOL     OW98210   0.720  12.222   2.972  0.0886 -0.8721  0.2884
29299SOL    HW198211   0.801  12.212   2.921 -0.5151  0.9171 -1.1283
29299SOL    HW298212   0.723  12.313   3.002 -1.2118 -0.9000  0.5191
29300SOL     OW98213   2.781   1.688   2.142  0.2545  0.0913 -0.2330
29300SOL    HW198214   2.724   1.751   2.098 -0.4102 -0.7106 -0.5215
29300SOL    HW298215   2.740   1.673   2.227  1.6825  1.8585  0.8791
29301SOL     OW98216   3.618   2.648   7.546  0.1736  0.1965  0.1912
29301SOL    HW198217   3.648   2.739   7.550  0.1222  0.1962  0.8324
29301SOL    HW298218   3.650   2.610   7.628  0.2228 -0.3692 -0.0930
29302SOL     OW98219   6.120   9.304   1.217  0.1781  0.2040  0.4397
29302SOL    HW198220   6.207   9.274   1.192  0.6638  0.1707  2.1030
29302SOL    HW298221   6.125   9.318   1.311 -1.8544 -0.6256  0.7200
29303SOL     OW98222   0.425   8.277   4.507  0.2951  0.1257 -0.5553
29303SOL    HW198223   0.491   8.301   4.443 -0.1569  1.7721 -0.4423
29303SOL    HW298224   0.398   8.360   4.547  0.3704 -0.8149  1.5810
29304SOL     OW98225   9.499   9.750   8.048 -0.2609  1.1588 -0.0313
29304SOL    HW198226   9.588   9.729   8.078 -0.4253  0.7229  0.1675
29304SOL    HW298227   9.484   9.690   7.975  0.0599  2.0791 -0.8608
29305SOL     OW98228   1.683  10.213  10.334 -0.2110  0.9954 -0.5624
29305SOL    HW198229   1.603  10.204  10.386 -0.1290  0.8638 -0.4591
29305SOL    HW298230   1.726  10.128  10.340 -0.6616  0.6765 -1.6266
29306SOL     OW98231  10.254   5.846   4.484  0.0932 -0.2163 -0.5591
29306SOL    HW198232  10.197   5.907   4.436 -1.5220 -0.8220  0.5009
29306SOL    HW298233  10.322   5.901   4.522  0.1377  0.5616 -1.7106
29307SOL     OW98234   3.032  11.671  11.311  0.3455 -0.2863 -0.0006
29307SOL    HW198235   2.973  11.747  11.309  1.0071  0.2327 -0.0075
29307SOL    HW298236   2.976  11.597  11.287 -0.7158 -0.0777  1.6342
29308SOL     OW98237  12.915   7.492   6.862  0.5456  0.0818 -0.0397
29308SOL    HW198238  12.978   7.474   6.793 -0.7845  1.8306 -1.8056
29308SOL    HW298239  12.869   7.409   6.876 -0.2562  0.0625 -2.4547
29309SOL     OW98240   1.709   7.157   1.952  0.3579 -0.2822  0.6174
29309SOL    HW198241   1.745   7.202   1.876 -0.1233  0.2813  0.7218
29309SOL    HW298242   1.716   7.064   1.930  1.2503 -0.1643  0.3565
29310SOL     OW98243   9.647   0.762   0.597 -0.6531  0.0018  0.3343
29310SOL    HW198244   9.576   0.825   0.584  0.5530  0.9988 -2.0288
29310SOL    HW298245   9.610   0.678   0.570 -1.9899 -0.2341  2.6371
29311SOL     OW98246   0.827  12.720  10.627 -0.0657  0.4438 -0.2602
29311SOL    HW198247   0.852  12.698  10.717 -1.4050 -1.9974 -0.4152
29311SOL    HW298248   0.834  12.815  10.623  0.3560  0.5872  2.3249
29312SOL     OW98249   1.568   5.324  11.308  0.1695 -0.1354 -0.5343
29312SOL    HW198250   1.473   5.317  11.316 -0.0019  0.4372 -1.9531
29312SOL    HW298251   1.592   5.252  11.250  0.2760  1.2378 -2.2611
29313SOL     OW98252   8.648   3.082   5.417 -0.1841 -0.4253 -0.3213
29313SOL    HW198253   8.603   2.997   5.407  0.8083 -0.8498 -1.2876
29313SOL    HW298254   8.666   3.087   5.511  1.1317 -2.0433 -0.4295
29314SOL     OW98255  12.598   5.874   5.949 -0.3275  0.2310 -0.3001
29314SOL    HW198256  12.612   5.871   5.855 -1.1404 -0.0056 -0.4186
29314SOL    HW298257  12.559   5.790   5.971  2.1999 -0.7820  0.6632
29315SOL     OW98258   8.995  11.131   4.955 -0.9114 -0.1574 -0.2855
29315SOL    HW198259   9.031  11.220   4.963  0.1194 -0.6379  0.5796
29315SOL    HW298260   8.923  11.129   5.018  0.6746 -0.6992  1.5996
29316SOL     OW98261   3.528  12.777  11.603 -0.5540  0.2808 -0.0459
29316SOL    HW198262   3.590  12.828  11.552  1.4300 -0.6166  1.3418
29316SOL    HW298263   3.516  12.827  11.684  1.1781 -1.1858  1.2012
29317SOL     OW98264   5.954  10.123   0.117 -0.4549 -0.2269 -0.0258
29317SOL    HW198265   5.948  10.193   0.052 -0.9890  2.1487  2.4030
29317SOL    HW298266   5.905  10.050   0.079 -3.3262  2.0703 -1.0925
29318SOL     OW98267   0.449  12.786   6.886  0.0649  0.7825 -0.2994
29318SOL    HW198268   0.504  12.856   6.919  0.9508  0.4536 -1.0307
29318SOL    HW298269   0.482  12.707   6.930 -2.3445  1.0358  2.2421
29319SOL     OW98270  10.661   5.727   1.379 -0.0508  1.1098  0.0047
29319SOL    HW198271  10.726   5.673   1.424 -0.8994 -0.8601 -1.0561
29319SOL    HW298272  10.584   5.671   1.370  0.2655  1.0811 -4.4497
29320SOL     OW98273   0.992  11.583   4.267 -0.3912 -0.1802 -0.5431
29320SOL    HW198274   0.987  11.673   4.298  0.2548 -0.7225  1.2347
29320SOL    HW298275   1.080  11.575   4.230 -0.2956 -0.2061 -0.3083
29321SOL     OW98276   8.558   6.220   2.440 -0.5887  0.2961  0.6489
29321SOL    HW198277   8.502   6.291   2.469  0.7606  2.1812 -0.9832
29321SOL    HW298278   8.642   6.237   2.483  0.1362  0.5633 -0.7851
29322SOL     OW98279   5.639   0.166   7.968  0.2095 -0.0915 -0.1528
29322SOL    HW198280   5.722   0.142   7.928  0.3606  1.3126 -0.7251
29322SOL    HW298281   5.659   0.245   8.019 -0.5138 -0.4440  0.7091
29323SOL     OW98282  10.034  10.431   4.695  0.8028  0.3168  0.3505
29323SOL    HW198283  10.106  10.486   4.724 -0.3154  1.8870  0.2836
29323SOL    HW298284  10.058  10.343   4.723  2.3585  0.9205  1.0273
29324SOL     OW98285  10.255   1.332   3.248  0.3768  0.1356 -0.1405
29324SOL    HW198286  10.337   1.341   3.198  0.7909  0.3109  0.5541
29324SOL    HW298287  10.281   1.347   3.339  0.1989 -2.9905  0.5367
29325SOL     OW98288   1.031   5.251  11.151  0.0896  0.1771  0.0013
29325SOL    HW198289   0.987   5.323  11.105 -1.1867 -1.5879 -1.6468
29325SOL    HW298290   0.965   5.217  11.211 -0.1309 -1.1079 -0.9365
29326SOL     OW98291   0.378   2.610  11.696  0.0124 -0.6268  0.0002
29326SOL    HW198292   0.355   2.661  11.619 -0.3290 -1.8161 -0.7082
29326SOL    HW298293   0.463   2.570  11.675  1.0709  0.8874  1.1838
29327SOL     OW98294  10.337  11.834   1.201  0.3115  0.3464 -0.3132
29327SOL    HW198295  10.389  11.915   1.199  1.3568 -0.3130 -0.7324
29327SOL    HW298296  10.329  11.809   1.109  1.1914 -0.7675 -0.1003
29328SOL     OW98297  10.770   0.227   7.512 -0.1675 -0.2048 -0.4911
29328SOL    HW198298  10.732   0.167   7.448  0.1459 -0.6901 -0.2290
29328SOL    HW298299  10.864   0.215   7.503 -0.1270 -0.8930  0.6145
29329SOL     OW98300  10.842   5.434  11.444 -0.6643 -0.4237  0.4354
29329SOL    HW198301  10.770   5.384  11.406 -0.8686  0.6187 -0.6114
29329SOL    HW298302  10.808   5.523  11.453  0.7974  0.3412 -1.0883
29330SOL     OW98303   1.411   6.713  12.616 -0.2014  0.1087  0.1711
29330SOL    HW198304   1.401   6.753  12.530 -0.0324 -0.5646 -0.1640
29330SOL    HW298305   1.445   6.626  12.598 -1.8341 -0.6904  0.8209
29331SOL     OW98306   6.512   2.349   4.049  0.5452  0.7690  0.5613
29331SOL    HW198307   6.581   2.312   4.105 -0.6764 -1.9565  0.4440
29331SOL    HW298308   6.553   2.356   3.963  0.8849 -0.1940  0.6303
29332SOL     OW98309  11.065   7.256   6.090 -1.0278 -0.4490  0.5156
29332SOL    HW198310  11.112   7.217   6.016  0.1189 -1.0438  1.5227
29332SOL    HW298311  10.985   7.205   6.097 -1.5469  0.1343 -0.8027
29333SOL     OW98312   5.346   1.917   0.775  0.0276  0.2607  0.0141
29333SOL    HW198313   5.278   1.947   0.835 -0.1737 -1.0639  0.4795
29333SOL    HW298314   5.406   1.866   0.829  0.8985  0.6520 -0.5645
29334SOL     OW98315  12.302  10.184   5.401 -0.4152 -0.3221 -0.0944
29334SOL    HW198316  12.318  10.190   5.306  0.9044  0.6189  0.1486
29334SOL    HW298317  12.338  10.099   5.426 -1.4296 -0.8987 -0.5341
29335SOL     OW98318   9.746  10.776   5.267 -0.2971  0.0006 -0.1339
29335SOL    HW198319   9.652  10.788   5.253 -0.4966 -0.3642  0.8186
29335SOL    HW298320   9.752  10.727   5.349  0.7438  0.5902  0.1629
29336SOL     OW98321  11.157  10.488   0.298  0.2752  0.1445 -0.4491
29336SOL    HW198322  11.220  10.417   0.311  0.3220  0.2471 -0.1077
29336SOL    HW298323  11.196  10.543   0.230  1.4233  1.1964  1.0027
29337SOL     OW98324  12.734   2.989   4.902 -0.4327 -0.6168  0.1966
29337SOL    HW198325  12.746   2.984   4.807 -0.3200  2.5062 -0.0498
29337SOL    HW298326  12.696   2.905   4.925 -0.0999 -1.6308 -2.5510
29338SOL     OW98327  11.128  10.814  11.192  0.1151 -0.0378 -0.3607
29338SOL    HW198328  11.196  10.825  11.125  0.5595 -0.3158  0.0377
29338SOL    HW298329  11.071  10.890  11.180  0.8171  0.5021 -0.3313
29339SOL     OW98330   2.704  10.399  11.856  0.3007  0.1326  0.0908
29339SOL    HW198331   2.705  10.320  11.803  0.9208 -0.8680  1.5298
29339SOL    HW298332   2.702  10.367  11.947  1.0345  1.7503  0.7170
29340SOL     OW98333   5.920   9.634   8.483  0.4139 -0.1484  0.1026
29340SOL    HW198334   5.988   9.699   8.465 -0.8548  1.1969 -0.0673
29340SOL    HW298335   5.849   9.684   8.524 -0.9238 -1.2746 -0.7264
29341SOL     OW98336   7.625   9.090   4.933  0.2132  0.1989  0.6789
29341SOL    HW198337   7.543   9.095   4.884 -0.1469  0.1055  1.2673
29341SOL    HW298338   7.623   9.168   4.989  0.3842  0.0310  0.9155
29342SOL     OW98339   4.548   8.115  11.556  0.2333 -0.0414 -0.2899
29342SOL    HW198340   4.476   8.149  11.609  0.4286  0.5776 -0.4094
29342SOL    HW298341   4.515   8.034  11.518 -0.5543  0.4666 -0.6997
29343SOL     OW98342   0.394  10.744  12.872  0.0656  0.0370  0.1845
29343SOL    HW198343   0.464  10.800  12.904  0.1092  1.2028 -1.8075
29343SOL    HW298344   0.326  10.805  12.843  0.0183 -0.8941 -1.8381
29344SOL     OW98345   6.733   0.006   0.063 -0.2157 -0.9296 -0.1725
29344SOL    HW198346   6.776  -0.025  -0.017 -1.7821 -1.2253 -0.9331
29344SOL    HW298347   6.674  -0.065   0.088 -0.1113 -0.6363  0.9840
29345SOL     OW98348   1.946  10.047   8.886  0.6570 -0.4230  0.7833
29345SOL    HW198349   1.943  10.081   8.796  0.0199  0.9481  1.2958
29345SOL    HW298350   1.888   9.971   8.885  0.9680 -0.6521 -0.0670
29346SOL     OW98351   2.142  10.302   6.171 -0.1638 -0.4373  0.5182
29346SOL    HW198352   2.206  10.257   6.226 -1.3517 -2.3125  0.4493
29346SOL    HW298353   2.159  10.270   6.083 -1.5427 -1.4537  0.5864
29347SOL     OW98354   3.883   4.873   7.446  0.4848  0.3080  0.1237
29347SOL    HW198355   3.931   4.926   7.383 -0.6819  0.7177 -0.4447
29347SOL    HW298356   3.791   4.881   7.420  0.0542 -0.1371  1.4059
29348SOL     OW98357   8.846   7.471   9.905  0.4012 -0.0945  0.0718
29348SOL    HW198358   8.825   7.565   9.903  0.4369 -0.0709  0.6087
29348SOL    HW298359   8.786   7.432   9.842 -0.9243  0.0458  1.2008
29349SOL     OW98360  10.285   9.116   1.149  0.2019 -0.2889 -0.2577
29349SOL    HW198361  10.277   9.210   1.130 -2.7752 -0.3785  0.0894
29349SOL    HW298362  10.300   9.112   1.243  0.6789 -0.1744 -0.3253
29350SOL     OW98363   4.557   7.569   2.078 -0.0225  0.3047  0.1431
29350SOL    HW198364   4.625   7.527   2.131 -1.9565 -0.7316  1.9681
29350SOL    HW298365   4.570   7.662   2.094  1.0529  0.1489  0.3282
29351SOL     OW98366   6.941   5.738   3.983  0.1022  0.7471 -0.2049
29351SOL    HW198367   6.896   5.662   4.020 -0.7804  1.6519  0.6236
29351SOL    HW298368   6.990   5.702   3.908 -0.9826 -0.4788 -0.3715
29352SOL     OW98369   1.889  10.500   8.145  0.0843 -0.3114 -0.3300
29352SOL    HW198370   1.894  10.594   8.125  0.7021 -0.3114 -0.1886
29352SOL    HW298371   1.908  10.494   8.238  0.4963 -0.6195 -0.4304
29353SOL     OW98372   1.772   3.691   9.910 -0.3092  0.3839 -0.0726
29353SOL    HW198373   1.776   3.595   9.914  1.1051  0.4645  0.9071
29353SOL    HW298374   1.703   3.714   9.972 -0.9470  0.0077 -0.6176
29354SOL     OW98375  12.475  11.828   6.252 -0.2971 -0.1456  0.1030
29354SOL    HW198376  12.410  11.767   6.217  0.1596 -0.9734  0.6757
29354SOL    HW298377  12.557  11.778   6.253  0.0028  0.3467  0.9558
29355SOL     OW98378   2.921   8.610   8.766 -0.0847  0.9874  0.3809
29355SOL    HW198379   2.957   8.541   8.711 -2.0654 -1.1177  1.5384
29355SOL    HW298380   2.844   8.641   8.717 -1.0825  0.0360  1.3087
29356SOL     OW98381   9.680   9.552   3.128  0.3043  0.7017  0.5043
29356SOL    HW198382   9.599   9.518   3.166  1.3021  0.9687  2.9978
29356SOL    HW298383   9.651   9.622   3.069 -1.2754  0.9710  1.5353
29357SOL     OW98384   0.241   4.070   3.484  0.5261  0.3513 -0.4230
29357SOL    HW198385   0.265   4.161   3.498 -1.5269  0.6335  1.9523
29357SOL    HW298386   0.312   4.020   3.524 -0.3889  1.0587  2.2739
29358SOL     OW98387   4.773   4.982   2.139  0.1526  0.2916 -0.1033
29358SOL    HW198388   4.697   5.025   2.178 -0.2362  0.2968 -0.8592
29358SOL    HW298389   4.847   5.010   2.193 -0.2434  1.0799  0.0342
29359SOL     OW98390   1.232  10.859   9.819 -0.5585  0.2171  0.1947
29359SOL    HW198391   1.168  10.788   9.820 -1.2468  0.8275  0.2331
29359SOL    HW298392   1.285  10.842   9.741 -1.8836  0.6703 -0.8444
29360SOL     OW98393   5.021   3.345   9.589  0.3808  0.7339 -0.3644
29360SOL    HW198394   5.050   3.330   9.679  0.6367  3.7010  0.1711
29360SOL    HW298395   5.091   3.308   9.535  1.1048  0.4722  0.7128
29361SOL     OW98396   5.160   5.023   4.578 -0.0057 -0.4155  0.8470
29361SOL    HW198397   5.217   5.093   4.546 -1.0356  0.3791  0.6891
29361SOL    HW298398   5.197   4.998   4.662  0.7312 -0.1102  0.6209
29362SOL     OW98399   3.983   4.232   6.333 -0.3359  0.4073  0.5216
29362SOL    HW198400   3.945   4.149   6.306  0.3667  0.1641  0.2374
29362SOL    HW298401   3.909   4.293   6.338 -0.4798  0.6443 -2.6196
29363SOL     OW98402   1.489   0.072   4.256  0.0734 -0.0448  0.3235
29363SOL    HW198403   1.433   0.110   4.188 -0.4691  0.6919  1.1567
29363SOL    HW298404   1.547   0.013   4.209 -0.2999  0.4378 -0.7802
29364SOL     OW98405   6.667  11.101   5.285 -0.9715  0.1802 -0.1265
29364SOL    HW198406   6.716  11.023   5.259  1.5149  1.7935 -0.6859
29364SOL    HW298407   6.660  11.152   5.205 -1.0725  1.2553  0.5510
29365SOL     OW98408  12.847   6.963  12.390 -0.0639 -0.2299  0.0404
29365SOL    HW198409  12.914   6.963  12.321  0.6792 -0.9909  0.7393
29365SOL    HW298410  12.836   6.870  12.411 -0.8068 -0.0486  0.4495
29366SOL     OW98411   4.505   7.769  11.838  0.1559 -0.3439 -0.4170
29366SOL    HW198412   4.424   7.821  11.846 -0.6927 -1.8960  2.6695
29366SOL    HW298413   4.555   7.792  11.916  1.2300 -1.7624 -0.6554
29367SOL     OW98414   4.630   9.727   3.999  0.3190 -0.2628  0.2694
29367SOL    HW198415   4.587   9.793   4.053 -0.3592  0.1064 -0.6968
29367SOL    HW298416   4.658   9.775   3.921 -2.2721 -1.4920 -1.5679
29368SOL     OW98417   7.980   3.677  10.835 -0.2217 -0.1108  0.0865
29368SOL    HW198418   8.074   3.693  10.842 -0.2699  0.5667 -0.5834
29368SOL    HW298419   7.945   3.695  10.922  0.6226 -3.2329  1.1954
29369SOL     OW98420   1.501   6.181  12.006  0.7121  0.6326 -0.7303
29369SOL    HW198421   1.566   6.248  11.985  0.4902  0.6884 -1.2616
29369SOL    HW298422   1.550   6.112  12.051  1.1579  0.6298 -1.2182
29370SOL     OW98423   2.595   4.019   9.701  0.0347  1.1422 -1.0939
29370SOL    HW198424   2.558   3.955   9.641 -2.8184 -0.8160  2.3592
29370SOL    HW298425   2.684   3.989   9.717 -0.7550 -1.2005 -0.6988
29371SOL     OW98426   6.578   3.385   3.320  0.6430  0.5209 -0.1832
29371SOL    HW198427   6.516   3.451   3.290  1.1209  0.8768 -0.4039
29371SOL    HW298428   6.664   3.426   3.310  0.8343  0.7541  1.8409
29372SOL     OW98429   7.846   0.920  10.693  0.5403 -0.3673 -0.1266
29372SOL    HW198430   7.941   0.917  10.704  0.7563 -3.0866 -1.8355
29372SOL    HW298431   7.812   0.867  10.766  0.7266 -2.9182 -1.7619
29373SOL     OW98432   8.914   9.709   9.842  0.1322 -0.1368 -0.2005
29373SOL    HW198433   9.006   9.733   9.843  0.4928 -1.4225 -0.0772
29373SOL    HW298434   8.868   9.786   9.875  1.3532 -0.1639  1.7100
29374SOL     OW98435  10.394   7.050  10.830 -0.7462 -0.1941  0.6316
29374SOL    HW198436  10.339   6.974  10.849 -1.9918  0.7315  0.8846
29374SOL    HW298437  10.334   7.115  10.793  0.2351  0.7552  0.6304
29375SOL     OW98438   1.690  10.868   6.026 -0.4974  0.3553  0.2494
29375SOL    HW198439   1.603  10.866   5.988 -0.5209 -0.7749  0.3308
29375SOL    HW298440   1.743  10.812   5.969  0.1453  0.9151  0.2799
29376SOL     OW98441   0.588   1.809  11.420 -0.3281 -0.2610  0.0883
29376SOL    HW198442   0.611   1.870  11.350 -0.3283 -0.8702 -0.4495
29376SOL    HW298443   0.530   1.745  11.379 -0.8737 -0.2477  0.8058
29377SOL     OW98444  11.290   4.481   5.123 -0.2170 -0.0131  0.1600
29377SOL    HW198445  11.368   4.498   5.177 -0.4777  1.3435  0.1347
29377SOL    HW298446  11.323   4.428   5.050  0.6476  0.3669  0.2597
29378SOL     OW98447   0.975   1.371   2.075  0.1561  0.0366 -1.1631
29378SOL    HW198448   0.905   1.389   2.013 -0.9733 -0.5469 -0.0965
29378SOL    HW298449   1.054   1.366   2.021 -0.4993  1.3976 -2.2922
29379SOL     OW98450   1.660   7.025   6.667 -0.0448  0.1603 -0.0775
29379SOL    HW198451   1.645   6.937   6.702  0.0913 -0.0006 -0.4257
29379SOL    HW298452   1.664   7.081   6.745  0.0670 -0.1701  0.1559
29380SOL     OW98453   7.289   1.425   0.216  0.6013 -0.5790  0.1717
29380SOL    HW198454   7.351   1.402   0.147 -1.5936 -1.6570 -1.5630
29380SOL    HW298455   7.317   1.372   0.291  0.5003 -2.8081 -1.2639
29381SOL     OW98456   9.897   1.022   8.883  0.1758 -0.2476 -0.1941
29381SOL    HW198457   9.955   1.028   8.959  1.4382  1.4406 -1.2207
29381SOL    HW298458   9.817   1.066   8.911  0.2114 -0.6119  0.5114
29382SOL     OW98459   8.385  11.345  10.936  0.0063  0.1178 -0.0277
29382SOL    HW198460   8.307  11.386  10.900  0.7544  0.3894 -1.3857
29382SOL    HW298461   8.429  11.305  10.861  1.7956  0.9866  0.4996
29383SOL     OW98462   0.325   3.564   7.863  0.2105 -0.2093  0.6298
29383SOL    HW198463   0.255   3.514   7.821  1.0861 -0.6285 -0.3707
29383SOL    HW298464   0.280   3.617   7.929 -1.0122 -0.6462  0.1774
29384SOL     OW98465   8.594   0.076   4.958 -0.0741  0.2121 -0.3118
29384SOL    HW198466   8.539   0.004   4.988  0.2022 -1.3882 -3.2783
29384SOL    HW298467   8.677   0.063   5.005 -0.3646 -0.7864 -0.0412
29385SOL     OW98468   6.861   7.601   5.681 -0.4311 -0.3560 -0.6445
29385SOL    HW198469   6.884   7.568   5.594 -1.4983 -0.6761 -0.8210
29385SOL    HW298470   6.845   7.694   5.668  2.9275  0.4306 -0.0814
29386SOL     OW98471   3.188   4.366   1.593 -0.4692 -0.7229 -0.2895
29386SOL    HW198472   3.095   4.365   1.612 -0.2831 -2.1661  0.6910
29386SOL    HW298473   3.218   4.453   1.618 -1.1638 -0.9555  1.4262
29387SOL     OW98474   0.032   8.964  10.574  0.0115  0.0282  0.5143
29387SOL    HW198475   0.090   9.033  10.541  0.1477 -0.5586 -0.5075
29387SOL    HW298476   0.053   8.958  10.667  0.2510  1.1220  0.5432
29388SOL     OW98477   2.797  10.970  12.906  0.5221  0.2506 -0.7110
29388SOL    HW198478   2.849  10.981  12.986  0.7363  1.4967 -1.0024
29388SOL    HW298479   2.861  10.944  12.840  0.5238  0.2616 -0.7141
29389SOL     OW98480  10.912   8.001   7.248  0.1747  0.1847  0.3697
29389SOL    HW198481  10.991   7.992   7.195 -0.8763 -0.3846 -1.1492
29389SOL    HW298482  10.844   8.030   7.187 -1.2348 -1.1262  1.2426
29390SOL     OW98483   7.638   0.035   8.392 -0.1839 -0.1311  0.3837
29390SOL    HW198484   7.697   0.038   8.467  0.1510 -1.6172  0.2248
29390SOL    HW298485   7.594   0.119   8.392  0.6268  0.3186  1.5821
29391SOL     OW98486   8.381   8.367   1.340  0.0900 -0.0238 -0.4587
29391SOL    HW198487   8.403   8.276   1.362  0.4556  0.0398 -0.5562
29391SOL    HW298488   8.415   8.379   1.251  3.4306  1.2988  0.8023
29392SOL     OW98489   3.316  12.041   4.670 -0.3295  0.2588  0.0495
29392SOL    HW198490   3.396  12.064   4.622  0.2417  0.0188  0.8593
29392SOL    HW298491   3.319  11.946   4.679 -1.6822  0.0270 -1.5633
29393SOL     OW98492   4.367  12.917  12.361  0.5517  0.4378  0.3709
29393SOL    HW198493   4.340  12.902  12.451 -0.1469  1.9628  0.4418
29393SOL    HW298494   4.441  12.977  12.368 -0.5453  1.8938 -0.1079
29394SOL     OW98495   2.234  12.382   6.898  0.2700  0.3623  0.0273
29394SOL    HW198496   2.173  12.411   6.967  2.1851  0.3451  1.8452
29394SOL    HW298497   2.319  12.412   6.929  1.2631 -0.0150 -2.2070
29395SOL     OW98498   9.412  10.631  10.681 -0.2729  0.1613 -0.0513
29395SOL    HW198499   9.490  10.606  10.631  0.1908  0.0684  0.6948
29395SOL    HW298500   9.368  10.696  10.627  0.7251  0.7680 -0.1583
29396SOL     OW98501   5.398   9.314   4.151  0.2122  0.9772  0.6473
29396SOL    HW198502   5.460   9.381   4.182 -0.3048  1.4028  0.7785
29396SOL    HW298503   5.344   9.360   4.087 -0.3848  0.7888  1.0050
29397SOL     OW98504   3.959   9.291  11.322 -0.6979 -0.5327 -0.6258
29397SOL    HW198505   3.917   9.277  11.407 -1.6168  1.3631 -0.7095
29397SOL    HW298506   4.027   9.357  11.339 -0.6662 -0.3880 -1.2851
29398SOL     OW98507   8.530   6.234   3.850  0.0534 -0.2718  0.0992
29398SOL    HW198508   8.498   6.196   3.768 -4.3857 -1.9912  2.2927
29398SOL    HW298509   8.514   6.328   3.840 -1.3932 -0.5570 -0.7165
29399SOL     OW98510   1.940  11.276   5.734  0.5310 -0.0988 -0.5114
29399SOL    HW198511   1.950  11.348   5.797 -1.5196 -0.7048  0.5869
29399SOL    HW298512   2.028  11.262   5.700  1.6494  0.5594  1.9156
29400SOL     OW98513   9.109  10.283   5.160 -0.0147  0.3668 -0.4197
29400SOL    HW198514   9.147  10.212   5.213  1.2027  1.4032  0.1349
29400SOL    HW298515   9.185  10.331   5.126 -0.7857  0.3165 -2.3436
29401SOL     OW98516  12.939   9.793   8.608 -0.4195  0.0897  0.4288
29401SOL    HW198517  13.011   9.857   8.607  1.9163 -2.3682 -0.2887
29401SOL    HW298518  12.899   9.801   8.521  1.6311 -1.1702 -0.7179
29402SOL     OW98519  11.843  10.350   8.604 -0.2136  0.3607  0.4068
29402SOL    HW198520  11.899  10.427   8.591 -0.4108  0.7260  1.5922
29402SOL    HW298521  11.900  10.276   8.582  0.4773  0.7743  0.7500
29403SOL     OW98522  10.446   4.200   9.725 -0.0024 -0.3008  0.6639
29403SOL    HW198523  10.524   4.147   9.743 -0.2131 -1.3054 -1.1987
29403SOL    HW298524  10.380   4.166   9.786  0.2591 -1.2802  0.4218
29404SOL     OW98525   8.712   9.344  12.762  0.6166 -0.0445 -0.3486
29404SOL    HW198526   8.742   9.314  12.676  1.7188  0.9693 -0.3543
29404SOL    HW298527   8.711   9.265  12.816  3.7655 -0.1545 -0.2636
29405SOL     OW98528   9.813   7.326   3.410  0.1641 -0.2345 -0.0482
29405SOL    HW198529   9.792   7.260   3.477 -0.6153  0.1073  0.0558
29405SOL    HW298530   9.791   7.410   3.452 -1.1239 -0.0627 -1.0049
29406SOL     OW98531   4.055   7.252   9.080  0.6285 -0.0403  0.4803
29406SOL    HW198532   4.040   7.256   9.175 -0.3695  1.2577  0.2987
29406SOL    HW298533   3.997   7.183   9.049  0.5140 -0.0580  0.7331
29407SOL     OW98534   2.546   3.716   9.008  0.7729 -0.0688 -0.3657
29407SOL    HW198535   2.510   3.773   9.076 -2.2669 -2.9736  0.7979
29407SOL    HW298536   2.489   3.730   8.933 -0.7864 -2.1958  0.3166
29408SOL     OW98537  11.729  12.962   1.952  0.2795 -0.9440 -0.4034
29408SOL    HW198538  11.793  12.891   1.952 -1.0666 -2.2771 -2.9056
29408SOL    HW298539  11.658  12.929   2.009  1.8737  0.7914  2.8922
29409SOL     OW98540   2.784  10.993   3.014  0.1002  0.3042 -0.1730
29409SOL    HW198541   2.807  10.906   2.982  1.2694  0.5527 -0.0253
29409SOL    HW298542   2.829  11.053   2.954 -0.5284  0.8117 -0.1481
29410SOL     OW98543   5.651   9.582  11.783 -0.0098  0.1189  0.3340
29410SOL    HW198544   5.596   9.525  11.730  1.5711 -1.8960  0.7246
29410SOL    HW298545   5.677   9.653  11.724 -1.0747 -0.1891 -0.5328
29411SOL     OW98546   9.887   6.658   3.046 -0.0695 -0.0677  0.0038
29411SOL    HW198547   9.822   6.607   3.094 -0.5098  0.1867 -0.3150
29411SOL    HW298548   9.856   6.657   2.955  1.2687 -1.3670 -0.4673
29412SOL     OW98549   9.073   5.432   4.561 -0.7720 -0.1534 -0.6500
29412SOL    HW198550   9.055   5.389   4.478 -2.6721  1.9409 -1.4143
29412SOL    HW298551   9.151   5.486   4.544  0.9752 -2.3039  0.0183
29413SOL     OW98552   4.919   2.732  11.367 -0.7168 -0.1144 -0.0833
29413SOL    HW198553   5.001   2.731  11.317 -0.0985  1.7288  0.8008
29413SOL    HW298554   4.942   2.690  11.450 -0.6657  0.3228  0.1301
29414SOL     OW98555   2.983   2.771   9.221 -0.0556  0.2475 -0.0345
29414SOL    HW198556   3.067   2.728   9.205 -0.2877  0.5997 -2.7996
29414SOL    HW298557   3.006   2.855   9.260  0.5866 -1.0541  2.5703
29415SOL     OW98558  10.749   5.432   1.237 -0.2345 -0.2670 -0.2585
29415SOL    HW198559  10.703   5.362   1.283 -2.1535  1.7525  1.1199
29415SOL    HW298560  10.804   5.473   1.304 -0.2370  0.4335 -0.6744
29416SOL     OW98561   1.101   4.033   4.367 -0.0079 -0.1866 -0.6778
29416SOL    HW198562   1.031   4.035   4.302 -1.0852  1.7715  0.4577
29416SOL    HW298563   1.056   4.020   4.451  1.0327  0.4886  0.0075
29417SOL     OW98564   5.991   3.579   6.204  0.3355 -0.4861 -0.0674
29417SOL    HW198565   5.961   3.563   6.293  0.8005 -1.3986 -0.0642
29417SOL    HW298566   5.957   3.504   6.154  0.5648 -0.2752 -0.5368
29418SOL     OW98567  10.353   4.761   1.177  0.2336  0.0931 -0.3181
29418SOL    HW198568  10.359   4.710   1.096  1.5810  0.4554 -0.4776
29418SOL    HW298569  10.396   4.706   1.243  2.6806  1.3717 -0.7163
29419SOL     OW98570   4.379   8.410   6.871 -0.1533 -0.3539  0.6538
29419SOL    HW198571   4.446   8.478   6.864 -1.3770  0.6834 -2.1382
29419SOL    HW298572   4.425   8.329   6.850  0.2753  0.3729 -1.4542
29420SOL     OW98573   3.608   7.020   0.217  0.0286  0.1492 -0.2257
29420SOL    HW198574   3.521   7.006   0.255  0.2473  2.2453  1.1987
29420SOL    HW298575   3.662   7.049   0.290  1.4756  0.6411 -1.4410
29421SOL     OW98576   4.966   2.512  11.542  0.3843 -0.2415 -0.1420
29421SOL    HW198577   4.993   2.473  11.459  0.5857 -0.6664  0.1187
29421SOL    HW298578   5.042   2.501  11.599  0.2933  0.1682  0.0611
29422SOL     OW98579   8.772   6.059   8.561 -0.2746  0.0184  0.1736
29422SOL    HW198580   8.719   6.139   8.567  0.5025  0.4187  2.4855
29422SOL    HW298581   8.839   6.068   8.629  1.7891 -1.2254 -1.5356
29423SOL     OW98582   0.392  11.567   9.106  0.2410 -0.2531 -0.2951
29423SOL    HW198583   0.347  11.597   9.027  0.2429  1.2579  0.2542
29423SOL    HW298584   0.471  11.621   9.111  0.2222 -0.2986  0.7513
29424SOL     OW98585   0.033   5.673   6.335 -0.3582 -0.2168 -0.1936
29424SOL    HW198586   0.029   5.597   6.277 -1.1295  0.0211 -0.4630
29424SOL    HW298587  -0.058   5.703   6.342 -0.3235 -0.3381  1.2634
29425SOL     OW98588   4.925  12.887   6.073 -0.3792  0.2662  0.3912
29425SOL    HW198589   4.926  12.796   6.042  1.3036 -0.4308  2.2409
29425SOL    HW298590   5.017  12.906   6.093 -0.7502  2.2977  0.3170
29426SOL     OW98591   7.083  12.540  12.397 -0.7494 -0.2283  0.0260
29426SOL    HW198592   7.138  12.602  12.349  0.8733 -1.1018  0.7026
29426SOL    HW298593   7.118  12.541  12.486 -2.0103 -0.6314  0.5524
29427SOL     OW98594   1.606   8.260  10.500 -0.0278  0.1673 -0.1985
29427SOL    HW198595   1.625   8.303  10.416  1.8487  0.6678  0.4166
29427SOL    HW298596   1.638   8.171  10.488 -2.2072 -0.5753 -0.8546
29428SOL     OW98597   3.030   9.755   7.829 -0.6148 -0.0418 -0.2051
29428SOL    HW198598   3.101   9.697   7.805 -0.8893 -0.5864  0.2725
29428SOL    HW298599   2.953   9.719   7.785 -0.8149 -0.1376  0.2150
29429SOL     OW98600   5.172   8.742  10.555 -0.1285  0.6992  0.3956
29429SOL    HW198601   5.107   8.687  10.510  2.2937 -1.6521 -0.4751
29429SOL    HW298602   5.224   8.780  10.484 -0.6078  2.7569  1.0759
29430SOL     OW98603   3.695   5.360  12.496  0.5296 -0.4286  0.0953
29430SOL    HW198604   3.776   5.380  12.543  0.6203  0.3389 -0.3598
29430SOL    HW298605   3.635   5.429  12.524  0.1966 -0.6989  0.0389
29431SOL     OW98606   0.991   5.370   5.979 -0.0570  0.0955 -0.0596
29431SOL    HW198607   1.060   5.424   5.941  1.0518 -1.7040 -0.6918
29431SOL    HW298608   0.981   5.403   6.069  0.3333  1.5326 -0.5093
29432SOL     OW98609  10.484   9.796   9.657 -0.0575  0.1240 -0.2107
29432SOL    HW198610  10.558   9.775   9.600 -0.4153  1.3604 -1.1628
29432SOL    HW298611  10.495   9.738   9.733  1.7345  0.1165 -0.4433
29433SOL     OW98612   0.737  12.577  11.778  0.5102  0.0805 -0.0281
29433SOL    HW198613   0.722  12.490  11.813 -0.3758  0.2172 -0.0505
29433SOL    HW298614   0.775  12.562  11.692 -2.1602 -0.3773 -1.2420
29434SOL     OW98615  10.582  11.804  11.599  0.1574 -0.1028 -0.3913
29434SOL    HW198616  10.658  11.814  11.656  0.4259  0.5458 -0.8471
29434SOL    HW298617  10.519  11.870  11.630 -0.2423 -0.6683  0.0135
29435SOL     OW98618   1.514  12.852   0.200 -0.1126 -0.1515 -0.2285
29435SOL    HW198619   1.433  12.801   0.204  0.6831 -1.6872 -2.3319
29435SOL    HW298620   1.528  12.869   0.107  1.5855  0.7493  0.1453
29436SOL     OW98621   1.879   8.249   7.870  0.1310  0.1506 -0.2844
29436SOL    HW198622   1.802   8.304   7.884  0.1751 -0.2386  1.7790
29436SOL    HW298623   1.861   8.169   7.919  1.5851 -0.1864 -0.2505
29437SOL     OW98624   8.840   8.324   2.468  0.3018  0.0391  0.1042
29437SOL    HW198625   8.829   8.229   2.472 -0.6028  0.1669  1.0795
29437SOL    HW298626   8.934   8.338   2.484  0.5496 -0.7089 -0.6488
29438SOL     OW98627   6.571   5.499   6.214 -0.1313  0.2508  0.6776
29438SOL    HW198628   6.648   5.445   6.230 -0.6450 -1.1469 -1.1988
29438SOL    HW298629   6.606   5.586   6.194  0.9260 -0.1814  0.5951
29439SOL     OW98630   0.474   2.041  11.660 -0.3406  0.1965 -0.5121
29439SOL    HW198631   0.461   2.019  11.568  0.5038 -1.4865 -0.2628
29439SOL    HW298632   0.477   2.137  11.662 -1.1803  0.2869 -2.0954
29440SOL     OW98633   6.290  12.539   2.254  0.2171 -0.2171  0.2912
29440SOL    HW198634   6.382  12.514   2.263  0.1659 -0.1200  1.1500
29440SOL    HW298635   6.289  12.603   2.182  0.7417 -0.6037 -0.0618
29441SOL     OW98636   9.666   9.098  10.850  0.3545  0.1944 -0.1036
29441SOL    HW198637   9.737   9.122  10.789  0.2552 -0.4550 -0.4817
29441SOL    HW298638   9.648   9.179  10.898  1.7112  0.2459  0.3707
29442SOL     OW98639   1.720   8.030  11.659 -0.3207  0.2529 -0.1692
29442SOL    HW198640   1.751   8.101  11.604 -1.5240  0.0683 -1.1352
29442SOL    HW298641   1.758   7.951  11.620  1.2079  0.3460  1.0414
29443SOL     OW98642   4.832  12.620  11.723 -0.2176  0.3110 -0.0993
29443SOL    HW198643   4.907  12.670  11.756 -0.5474  1.0503 -0.4352
29443SOL    HW298644   4.785  12.683  11.668 -1.3828  0.0223  0.5424
29444SOL     OW98645   3.233   9.798   4.211 -0.1262 -0.9492  0.3250
29444SOL    HW198646   3.172   9.733   4.177 -0.3548 -1.1625  1.1369
29444SOL    HW298647   3.280   9.829   4.133 -0.5566 -1.5125 -0.1693
29445SOL     OW98648   9.131   5.032   4.218  0.1730  0.2548  0.6796
29445SOL    HW198649   9.199   4.966   4.230  1.5796  1.5409  0.2080
29445SOL    HW298650   9.087   5.007   4.137  0.6834 -0.1027  0.5083
29446SOL     OW98651  11.500  12.286   6.416  0.3006  0.2057 -0.1326
29446SOL    HW198652  11.481  12.377   6.392  0.3493  0.0833 -0.6434
29446SOL    HW298653  11.540  12.292   6.502  0.1634  0.6582 -0.0974
29447SOL     OW98654   0.454  12.217   4.558  0.4497 -0.0699 -0.7487
29447SOL    HW198655   0.409  12.301   4.570  0.4858 -0.1380 -0.1118
29447SOL    HW298656   0.384  12.155   4.538  0.1565 -0.3037  0.8569
29448SOL     OW98657   0.225   4.097   6.846 -0.1342  0.5835 -0.5746
29448SOL    HW198658   0.219   4.028   6.912  0.7323 -2.4586 -3.3855
29448SOL    HW298659   0.264   4.171   6.892  1.2105 -1.6104  2.1361
29449SOL     OW98660   3.994   9.194  12.652 -0.2820  0.2408 -0.5109
29449SOL    HW198661   3.914   9.145  12.632 -0.2742 -0.8505  1.8292
29449SOL    HW298662   4.001   9.191  12.747  1.4047  2.2101 -0.4949
29450SOL     OW98663   2.584   7.365   2.712  0.2338  0.0888 -0.2819
29450SOL    HW198664   2.607   7.457   2.703  0.1659  0.2037  0.6167
29450SOL    HW298665   2.643   7.332   2.781 -1.9118  0.2794  1.7810
29451SOL     OW98666   1.265   9.662   4.115  0.6221 -0.1086  0.2917
29451SOL    HW198667   1.254   9.755   4.094  0.4939 -0.4862 -1.4729
29451SOL    HW298668   1.307   9.662   4.201  0.4593  1.5734  0.4129
29452SOL     OW98669  10.145   9.636  10.816  0.0551  0.0308  0.0777
29452SOL    HW198670  10.229   9.612  10.777  0.7534 -0.0887  1.5851
29452SOL    HW298671  10.135   9.729  10.797 -0.0421 -0.2166 -1.1129
29453SOL     OW98672   6.321   2.165  10.196  0.3285  0.0659 -0.0506
29453SOL    HW198673   6.414   2.150  10.216  0.4088 -2.2135 -1.6236
29453SOL    HW298674   6.318   2.170  10.100 -1.2004 -0.1458 -0.0378
29454SOL     OW98675   6.409   3.928   2.609  1.2091 -0.2825  0.0763
29454SOL    HW198676   6.460   3.916   2.529  1.3614 -1.5500  0.3415
29454SOL    HW298677   6.341   3.861   2.605 -0.5428  1.4691 -0.3228
29455SOL     OW98678   5.546   3.779   8.608  0.1910  0.1291 -0.2410
29455SOL    HW198679   5.628   3.825   8.629 -0.9267  3.5816 -2.6173
29455SOL    HW298680   5.502   3.835   8.545 -2.7462 -3.0120 -1.3013
29456SOL     OW98681  10.895   0.761  11.402  0.4355 -0.3009  0.2659
29456SOL    HW198682  10.911   0.811  11.322 -1.1997  0.4287  0.3550
29456SOL    HW298683  10.867   0.675  11.372 -2.2749  0.6108 -0.0732
29457SOL     OW98684   1.069   1.268   8.683 -0.0428 -0.4881  0.4085
29457SOL    HW198685   1.091   1.326   8.756  2.7887  0.4623 -1.0418
29457SOL    HW298686   1.078   1.180   8.720  0.8965 -0.0228  1.3535
29458SOL     OW98687  11.357   5.140   6.592 -0.1218 -0.4034  0.0346
29458SOL    HW198688  11.271   5.116   6.557 -0.4021  0.5856 -0.0008
29458SOL    HW298689  11.343   5.227   6.630  0.6949 -0.5505  0.6883
29459SOL     OW98690   0.085  10.859   5.261  0.6671 -0.4616 -0.1844
29459SOL    HW198691   0.143  10.797   5.218 -1.2119 -2.2560 -0.3217
29459SOL    HW298692   0.077  10.828   5.351 -1.2580 -1.2389 -0.5697
29460SOL     OW98693   1.905   9.813   6.772 -0.3641  0.1305  0.1141
29460SOL    HW198694   1.909   9.870   6.695  3.1456  0.5544  0.4470
29460SOL    HW298695   1.960   9.857   6.837 -0.2753 -1.9834  1.5671
29461SOL     OW98696   3.815   7.539   4.183 -0.0756  0.0948 -0.1828
29461SOL    HW198697   3.810   7.476   4.110 -0.7750 -1.4109  1.0980
29461SOL    HW298698   3.898   7.585   4.169 -0.5616  0.4116 -2.3472
29462SOL     OW98699   2.214   4.564   3.524  0.1084  0.0475 -0.2301
29462SOL    HW198700   2.287   4.509   3.493  1.1234  2.1427 -1.8036
29462SOL    HW298701   2.240   4.592   3.611  0.5848 -0.2571 -0.2711
29463SOL     OW98702   5.058   1.889   9.643  0.7222 -0.1581  0.2269
29463SOL    HW198703   5.047   1.981   9.666  0.4809 -0.5198  1.6557
29463SOL    HW298704   5.065   1.888   9.547  0.3635  1.2964  0.1732
29464SOL     OW98705   2.661   6.167   9.360  0.4214 -0.4068  0.6020
29464SOL    HW198706   2.755   6.150   9.364  0.1763 -2.2120 -0.2097
29464SOL    HW298707   2.645   6.231   9.428  1.9464 -1.5109  2.0766
29465SOL     OW98708  11.537   5.139   4.308  0.8016 -0.1343 -0.2943
29465SOL    HW198709  11.608   5.122   4.370  0.6755 -2.7163 -0.7353
29465SOL    HW298710  11.458   5.108   4.352  0.5376 -0.8435 -1.2122
29466SOL     OW98711  11.086   0.841   8.684  1.1460  0.2276  0.0083
29466SOL    HW198712  11.089   0.793   8.767  1.3131 -0.1406 -0.2061
29466SOL    HW298713  11.054   0.928   8.708 -4.1634 -1.3131 -0.2337
29467SOL     OW98714   6.162   8.454   7.006 -0.3203 -0.0819  0.2768
29467SOL    HW198715   6.121   8.530   6.963 -1.4974 -0.0666  1.3983
29467SOL    HW298716   6.089   8.402   7.038  0.5183 -0.8807  0.9232
29468SOL     OW98717   4.780   5.247   7.945  0.4835  0.3747 -0.0434
29468SOL    HW198718   4.803   5.162   7.908  0.1499  0.5807 -0.7423
29468SOL    HW298719   4.822   5.248   8.031 -0.7508 -1.1255  0.6370
29469SOL     OW98720   3.311   2.923   2.069 -0.1677 -0.2981  0.0385
29469SOL    HW198721   3.259   2.984   2.123  0.3959 -0.7837  1.1473
29469SOL    HW298722   3.394   2.968   2.055 -0.2006 -0.3032 -0.1823
29470SOL     OW98723   0.458  12.546  11.610 -0.1297 -0.5151  0.1461
29470SOL    HW198724   0.448  12.451  11.600  0.1748 -0.5446  0.1287
29470SOL    HW298725   0.547  12.564  11.581 -0.0286 -0.2866  0.5971
29471SOL     OW98726   6.855   5.218   6.261 -0.2939 -0.1156 -0.2198
29471SOL    HW198727   6.881   5.308   6.243  2.5802 -1.1387 -1.8216
29471SOL    HW298728   6.821   5.221   6.350 -1.1776  2.6848 -0.5527
29472SOL     OW98729   3.010  12.552  12.532  0.6145  0.1947 -0.4449
29472SOL    HW198730   2.938  12.495  12.561  0.8985  0.3643  0.6579
29472SOL    HW298731   3.084  12.526  12.586  1.4257 -0.0498 -1.6495
29473SOL     OW98732   0.647   7.211   1.007 -0.2502  0.0486  0.2380
29473SOL    HW198733   0.634   7.304   1.027  3.2649  0.3990  1.7042
29473SOL    HW298734   0.656   7.207   0.912 -1.3013  1.0286  0.0763
29474SOL     OW98735   7.851   8.520   6.915 -0.0454  0.0579 -0.3014
29474SOL    HW198736   7.842   8.470   6.996  2.7119 -0.3527 -0.1351
29474SOL    HW298737   7.816   8.607   6.937 -0.6413 -0.4576  0.8720
29475SOL     OW98738   9.087   1.348  10.875 -0.3676  0.2129 -0.1190
29475SOL    HW198739   9.067   1.257  10.854 -0.6849  0.2439  0.0347
29475SOL    HW298740   9.051   1.360  10.964  3.3945 -0.7418  1.7383
29476SOL     OW98741   1.181  10.955  11.435  0.2809  0.0900  0.1128
29476SOL    HW198742   1.162  10.864  11.409 -0.6042  0.2915  0.0080
29476SOL    HW298743   1.205  10.950  11.527 -3.0752  0.0733  1.1336
29477SOL     OW98744  12.186  10.838   4.240 -0.7214 -0.6618  0.5951
29477SOL    HW198745  12.215  10.901   4.174 -1.0022 -0.2946  0.8160
29477SOL    HW298746  12.224  10.870   4.322 -0.4662 -1.0543  0.6347
29478SOL     OW98747   9.919   0.821   7.536 -0.2227  0.0695 -0.0284
29478SOL    HW198748   9.946   0.735   7.503  0.3826  0.0231  0.5794
29478SOL    HW298749   9.886   0.804   7.624  0.0742  0.4816  0.1660
29479SOL     OW98750   2.222   3.138   7.274 -0.1536  0.2651  0.2557
29479SOL    HW198751   2.294   3.110   7.218 -0.6223 -1.0798  0.2892
29479SOL    HW298752   2.152   3.074   7.257 -0.5009  0.1487  1.9545
29480SOL     OW98753  10.570   5.477   6.361 -0.7719 -0.2452 -0.7045
29480SOL    HW198754  10.600   5.558   6.320 -1.7060  0.3347 -0.2746
29480SOL    HW298755  10.533   5.425   6.290  0.5872 -0.6728 -1.1234
29481SOL     OW98756   5.400   9.978   1.546 -0.2249 -0.0906  0.6963
29481SOL    HW198757   5.365   9.967   1.635  1.1888 -2.9745  1.0065
29481SOL    HW298758   5.461  10.051   1.552 -1.5016  0.9379  1.6205
29482SOL     OW98759   3.331   8.011   7.642 -0.2623  0.5783 -0.0164
29482SOL    HW198760   3.370   8.079   7.588 -0.3357  0.7776  0.1814
29482SOL    HW298761   3.237   8.029   7.639 -0.2570  0.6487  0.2592
29483SOL     OW98762   4.679   9.890   3.810  0.1265 -0.2985 -0.0030
29483SOL    HW198763   4.727   9.972   3.819 -0.2711 -0.2379  1.8248
29483SOL    HW298764   4.587   9.915   3.821  0.1026 -1.1601  2.0193
29484SOL     OW98765  10.172   4.462   9.697 -0.2254 -0.3592 -0.1717
29484SOL    HW198766  10.110   4.479   9.769  0.1815  0.2281  0.0492
29484SOL    HW298767  10.250   4.512   9.721  0.3931 -1.2163 -0.3751
29485SOL     OW98768   3.500  11.767   1.920  0.3584  0.1400 -0.5424
29485SOL    HW198769   3.462  11.754   1.833 -0.9159  2.2031 -0.3539
29485SOL    HW298770   3.460  11.699   1.974  1.9380 -1.8482 -1.6941
29486SOL     OW98771   1.847  11.596   2.297  0.3059  0.2437  0.5428
29486SOL    HW198772   1.896  11.656   2.240  3.4762 -1.8580  0.8215
29486SOL    HW298773   1.812  11.530   2.237  1.7526 -0.7454  0.7523
29487SOL     OW98774   3.653   3.563  10.440 -0.0871 -0.3249 -0.1389
29487SOL    HW198775   3.595   3.487  10.445 -1.2493  0.3016 -2.5109
29487SOL    HW298776   3.706   3.558  10.520 -3.0655 -1.1982  1.9795
29488SOL     OW98777   4.697  11.426  11.126 -0.3872 -0.2670  0.4790
29488SOL    HW198778   4.614  11.421  11.078 -0.1722  0.9392 -0.0543
29488SOL    HW298779   4.672  11.442  11.217 -0.7601 -1.2667  0.5703
29489SOL     OW98780   1.433   0.304   9.419 -0.2052  0.3593  0.2286
29489SOL    HW198781   1.402   0.235   9.478  1.2305 -0.1204  0.4693
29489SOL    HW298782   1.355   0.334   9.373 -1.3092  0.4848  2.0938
29490SOL     OW98783   3.952   4.722  10.300  0.3995  0.0199  0.0012
29490SOL    HW198784   4.029   4.708  10.354 -0.0573 -1.6960  0.2808
29490SOL    HW298785   3.886   4.662  10.335  0.5207 -2.3695 -3.3163
29491SOL     OW98786   3.592   7.011   6.607 -0.0946 -0.9939 -0.3396
29491SOL    HW198787   3.646   7.013   6.686  0.9373 -0.6725 -1.0330
29491SOL    HW298788   3.641   6.956   6.546 -0.0340  0.1266 -1.3336
29492SOL     OW98789  10.278   0.927  12.151  0.5738 -0.4911 -0.2454
29492SOL    HW198790  10.209   0.913  12.086  0.6790 -0.4340 -0.3690
29492SOL    HW298791  10.254   0.870  12.224 -1.4993  2.0246  1.1971
29493SOL     OW98792   0.438   7.588  10.313  0.6812 -0.2958 -0.2537
29493SOL    HW198793   0.359   7.570  10.262  0.4674  0.8389 -0.3522
29493SOL    HW298794   0.505   7.534  10.273 -0.1414 -1.6939  0.1655
29494SOL     OW98795   1.333   0.701   1.491  0.2142 -0.3220  0.1581
29494SOL    HW198796   1.398   0.765   1.518 -0.8064  1.1339 -0.7041
29494SOL    HW298797   1.373   0.655   1.417  0.8128 -0.4670  0.5629
29495SOL     OW98798   8.191  11.703   7.825 -0.0472  0.1352 -0.4714
29495SOL    HW198799   8.200  11.741   7.913 -0.5710  0.9209 -0.7433
29495SOL    HW298800   8.230  11.616   7.832 -2.3275 -0.8737  1.2254
29496SOL     OW98801   4.204   5.126   3.981 -0.5196  0.3795  0.2198
29496SOL    HW198802   4.128   5.180   4.002  0.6035  1.6404  1.1930
29496SOL    HW298803   4.271   5.189   3.954  0.6931 -0.5658  0.9742
29497SOL     OW98804  12.869  10.974   7.234 -0.1782 -0.3578 -0.4381
29497SOL    HW198805  12.804  10.906   7.217  0.2813 -1.0531  0.4997
29497SOL    HW298806  12.844  11.046   7.176 -2.5825 -0.0549  0.8403
29498SOL     OW98807   5.055  10.792   7.439 -0.1025 -0.2067 -0.0713
29498SOL    HW198808   4.978  10.835   7.476 -0.4269 -0.9819  0.1831
29498SOL    HW298809   5.093  10.744   7.512  0.6405  0.1819 -0.1954
29499SOL     OW98810  11.648  11.673   6.955 -0.1972  0.4117 -0.1936
29499SOL    HW198811  11.671  11.732   6.882 -0.4620 -0.5664 -1.0940
29499SOL    HW298812  11.732  11.646   6.991 -0.0203 -0.0616 -0.9407
29500SOL     OW98813   7.662   9.954   6.597 -0.2745  0.1711  0.0617
29500SOL    HW198814   7.728   9.928   6.531 -1.1390  0.3136 -0.8865
29500SOL    HW298815   7.694   9.916   6.679  1.4606  0.9712 -0.1866
29501SOL     OW98816   0.212  10.087   4.944 -0.4359 -1.0582  0.1555
29501SOL    HW198817   0.275  10.134   4.998 -1.5784 -0.7894  1.2932
29501SOL    HW298818   0.244   9.997   4.942  0.3165 -0.7952  0.1943
29502SOL     OW98819   1.602  10.634   5.620  0.1267 -0.1428  0.2660
29502SOL    HW198820   1.691  10.634   5.653  0.2395 -1.1271  0.0040
29502SOL    HW298821   1.607  10.677   5.535  0.1317  0.8723  0.7659
29503SOL     OW98822  11.336   8.911   5.599  0.2497  0.7777 -0.0987
29503SOL    HW198823  11.349   8.979   5.532 -0.8914  0.0558 -1.0889
29503SOL    HW298824  11.249   8.877   5.582  1.2192 -1.7529 -0.3860
29504SOL     OW98825  12.222   8.068   6.280 -0.4491  0.0725 -0.4415
29504SOL    HW198826  12.298   8.053   6.225 -1.5996  0.0558 -2.1151
29504SOL    HW298827  12.188   8.153   6.252 -1.3037 -0.1300 -0.0652
29505SOL     OW98828   2.413  12.358   6.349 -0.6942 -0.0608  0.1589
29505SOL    HW198829   2.444  12.267   6.340  1.9740  0.6080  1.3726
29505SOL    HW298830   2.399  12.368   6.444  1.6566  1.4512  0.4301
29506SOL     OW98831   8.513  11.323   4.107 -0.0456  0.1866 -0.1006
29506SOL    HW198832   8.596  11.360   4.136  0.2543 -0.5406 -0.0161
29506SOL    HW298833   8.537  11.240   4.065 -0.9142 -1.2576  2.0925
29507SOL     OW98834   3.712   8.349   7.575  0.0045 -0.2334 -0.2581
29507SOL    HW198835   3.635   8.379   7.624  0.9713  2.1746 -0.0375
29507SOL    HW298836   3.779   8.336   7.642  0.1592 -1.0859 -0.5668
29508SOL     OW98837  11.028   0.197   0.917  0.3493 -0.1990 -0.0154
29508SOL    HW198838  10.940   0.221   0.947  0.5332 -0.7023  0.9613
29508SOL    HW298839  11.036   0.240   0.832  0.5822  3.0513  1.5090
29509SOL     OW98840   7.196   2.111   5.018 -0.1884  0.4227 -0.3685
29509SOL    HW198841   7.177   2.132   5.109 -0.3055  0.5829 -0.4288
29509SOL    HW298842   7.291   2.120   5.010 -0.1851  0.4653 -0.2754
29510SOL     OW98843   4.754   1.546   7.611 -0.7383 -0.7206 -0.1996
29510SOL    HW198844   4.841   1.550   7.571 -1.3636 -1.8458 -1.7764
29510SOL    HW298845   4.769   1.572   7.702  0.8694  1.2699 -0.9402
29511SOL     OW98846   7.197   7.618   0.953 -0.3541 -0.3042 -0.2126
29511SOL    HW198847   7.225   7.656   1.036 -0.1180 -1.3138  0.1823
29511SOL    HW298848   7.209   7.688   0.889 -0.9581  0.6340  0.6691
29512SOL     OW98849   5.071   0.029  11.035  0.5886  0.0021 -0.1244
29512SOL    HW198850   5.154  -0.010  11.007  0.9092  0.6338 -0.0872
29512SOL    HW298851   5.004  -0.034  11.009  0.9613  0.1455 -1.4989
29513SOL     OW98852   1.433  11.875  12.981  0.7509  0.2557 -0.2302
29513SOL    HW198853   1.388  11.798  12.946  0.1406  0.4985  0.0169
29513SOL    HW298854   1.401  11.882  13.071  1.5915  0.1933  0.0875
29514SOL     OW98855   5.216   7.265   4.129  0.1054  0.0811 -0.2359
29514SOL    HW198856   5.228   7.339   4.189 -1.6413  0.3854 -0.2063
29514SOL    HW298857   5.131   7.227   4.155  0.6430 -1.5251 -0.6946
29515SOL     OW98858   7.666  10.693   0.987 -0.0209 -0.3674  0.3489
29515SOL    HW198859   7.704  10.667   1.070  2.3920  0.4989 -0.3842
29515SOL    HW298860   7.651  10.787   0.996 -1.5102 -0.5959  0.4143
29516SOL     OW98861   5.403   2.093   0.229  0.1683  0.5276  0.4600
29516SOL    HW198862   5.380   2.028   0.296 -1.5723  1.3058  0.6924
29516SOL    HW298863   5.499   2.094   0.228  0.2340 -1.1380  1.3113
29517SOL     OW98864   4.403   9.466  10.098 -0.5387  0.7273 -0.2740
29517SOL    HW198865   4.463   9.391  10.088 -1.2748  0.0026  0.5567
29517SOL    HW298866   4.430   9.507  10.180  0.1154  1.6314 -0.9253
29518SOL     OW98867  11.059   6.451   1.991  0.0437 -0.0621 -0.2724
29518SOL    HW198868  11.148   6.464   1.959 -0.1518  1.0332 -0.4052
29518SOL    HW298869  11.028   6.373   1.944 -0.3896  1.7114 -3.2050
29519SOL     OW98870  10.564  11.866   3.031 -0.6996 -0.7790 -0.0227
29519SOL    HW198871  10.588  11.871   2.938 -1.7098 -0.5834 -0.2893
29519SOL    HW298872  10.495  11.800   3.034 -0.1452 -1.3369  0.7158
29520SOL     OW98873  12.700   7.528   0.297 -0.2645 -0.1339 -0.3476
29520SOL    HW198874  12.672   7.580   0.222 -1.9954 -0.4658  0.0362
29520SOL    HW298875  12.730   7.445   0.259  1.5921  0.7374 -0.8784
29521SOL     OW98876  10.059   3.971  12.610 -0.0201 -0.6503  0.1436
29521SOL    HW198877  10.054   3.877  12.629 -1.7443 -0.6651 -0.2038
29521SOL    HW298878   9.994   3.985  12.541 -0.9083  1.0374  1.2629
29522SOL     OW98879   9.695   9.287   2.726  0.0578  0.1514  0.8115
29522SOL    HW198880   9.740   9.251   2.650  1.6988  0.2657  1.6843
29522SOL    HW298881   9.614   9.324   2.691  0.8761  0.4215 -0.9008
29523SOL     OW98882   8.831  11.255   7.324  0.0893  0.4676  0.1184
29523SOL    HW198883   8.910  11.202   7.323  0.2604  0.6789  0.9964
29523SOL    HW298884   8.858  11.337   7.366 -0.3063  1.0215 -0.6878
29524SOL     OW98885  11.434   5.452  11.582 -0.0446 -0.1266  0.1162
29524SOL    HW198886  11.430   5.392  11.509  1.2240  0.9154 -0.8633
29524SOL    HW298887  11.517   5.499  11.571 -0.9133  1.7310  0.8700
29525SOL     OW98888  10.887   1.629   8.082  0.3431 -0.5515 -0.8083
29525SOL    HW198889  10.907   1.543   8.117  1.0141 -0.0754  0.0228
29525SOL    HW298890  10.837   1.612   8.002 -0.6568 -1.6770  0.0280
29526SOL     OW98891   5.410  11.962  10.607 -0.0274  0.2634 -0.6426
29526SOL    HW198892   5.432  11.905  10.534  0.7462  1.3050 -1.2442
29526SOL    HW298893   5.455  11.924  10.682  2.0642  1.1001 -1.4111
29527SOL     OW98894  10.833   8.607   8.914  0.0939  0.6384 -0.1656
29527SOL    HW198895  10.838   8.520   8.874  1.7055  1.4054 -1.7182
29527SOL    HW298896  10.803   8.664   8.843 -0.8593  1.4021  0.8154
29528SOL     OW98897   6.153   0.238   6.010  0.1337  0.2110  0.0370
29528SOL    HW198898   6.068   0.283   6.008  0.4972  0.9367  0.5831
29528SOL    HW298899   6.162   0.201   5.922 -0.3068  0.9623 -0.3383
29529SOL     OW98900   6.651   1.062   5.775 -0.0897 -0.3484 -0.0074
29529SOL    HW198901   6.642   1.137   5.717  0.3661  0.1046  0.4906
29529SOL    HW298902   6.668   1.101   5.861 -0.7182 -1.0025  0.4268
29530SOL     OW98903  10.976   8.198  11.385 -0.0752  0.0814 -0.0956
29530SOL    HW198904  11.048   8.260  11.396 -1.0758  1.3731 -0.5917
29530SOL    HW298905  10.912   8.224  11.450 -1.8947  1.6903 -2.3683
29531SOL     OW98906   8.053   5.502   5.828  0.2154 -0.3290 -0.2435
29531SOL    HW198907   8.043   5.473   5.919  0.1994 -1.1144 -0.4921
29531SOL    HW298908   8.126   5.563   5.830 -1.2656  1.5467  0.7170
29532SOL     OW98909   6.961  11.267   3.236 -0.0022  0.3176 -0.6041
29532SOL    HW198910   6.995  11.346   3.278 -1.7671  1.3871 -1.1162
29532SOL    HW298911   6.938  11.294   3.147  0.1542 -1.0015 -1.0768
29533SOL     OW98912   0.266  12.896  12.726 -0.1281  0.0662 -0.4798
29533SOL    HW198913   0.315  12.814  12.719 -0.0533  0.1619 -1.2270
29533SOL    HW298914   0.332  12.964  12.722 -0.2692  0.1834 -0.9294
29534SOL     OW98915   6.048  10.782   0.749 -0.2723 -0.0015 -0.0671
29534SOL    HW198916   6.041  10.714   0.815 -1.6215  0.2876  0.1173
29534SOL    HW298917   6.130  10.763   0.703 -0.2438 -1.2827  0.4803
29535SOL     OW98918   3.577   8.642   4.467 -0.0829  0.9798 -0.0170
29535SOL    HW198919   3.649   8.617   4.408 -0.3795 -2.1620  0.7716
29535SOL    HW298920   3.498   8.628   4.415 -0.2402  0.6740  0.2979
29536SOL     OW98921   8.423  12.591   6.298  0.2071  0.2285  0.0024
29536SOL    HW198922   8.447  12.527   6.366 -0.4909  0.1518  0.1797
29536SOL    HW298923   8.437  12.544   6.216  2.0436  0.6439  0.0170
29537SOL     OW98924  10.152   4.336   6.164 -0.0848 -0.2196  0.0606
29537SOL    HW198925  10.127   4.428   6.155 -0.5252 -0.3358  0.0814
29537SOL    HW298926  10.243   4.333   6.134  0.2492  0.3918  0.9711
29538SOL     OW98927   0.478   3.284  11.840 -0.0170  0.2779 -0.5117
29538SOL    HW198928   0.489   3.189  11.833 -1.2403  0.0893 -0.0390
29538SOL    HW298929   0.414   3.306  11.773  1.7769  1.1030 -2.0447
29539SOL     OW98930  10.758   4.998   9.299  0.1698 -0.3222 -0.1347
29539SOL    HW198931  10.723   5.059   9.364  0.3811 -2.0682  1.6963
29539SOL    HW298932  10.845   4.977   9.330  1.4444  0.9197 -2.5444
29540SOL     OW98933   1.650   7.671   6.477  0.6998 -0.1044  0.2794
29540SOL    HW198934   1.693   7.618   6.544  0.7675  1.6782  1.7253
29540SOL    HW298935   1.708   7.746   6.466  0.1206  0.1836 -0.9934
29541SOL     OW98936   5.877   9.405   8.878 -0.1834 -0.7877  0.1424
29541SOL    HW198937   5.927   9.476   8.837 -0.0124 -1.4848 -0.9037
29541SOL    HW298938   5.792   9.443   8.897 -0.1279 -0.3322 -0.4942
29542SOL     OW98939   1.501   9.725   8.416 -0.4302 -0.1346 -0.4371
29542SOL    HW198940   1.524   9.633   8.431  1.6724  0.5130  0.6604
29542SOL    HW298941   1.498   9.733   8.321 -1.0864 -1.4267 -0.5520
29543SOL     OW98942   2.089  12.556   8.114  0.6048 -0.1589 -0.3125
29543SOL    HW198943   2.092  12.526   8.024  1.0907  0.4234 -0.4939
29543SOL    HW298944   2.180  12.555   8.144  0.5403  0.3497 -0.0728
29544SOL     OW98945   6.118   3.729   3.211 -0.2584 -0.3515 -0.0393
29544SOL    HW198946   6.192   3.769   3.165  1.4302 -0.3464  2.4733
29544SOL    HW298947   6.045   3.788   3.195  1.4490  2.2884  1.1546
29545SOL     OW98948   1.886  10.603  12.957  0.0844 -0.1659  0.2139
29545SOL    HW198949   1.973  10.582  12.924  0.2021  1.6766 -0.8405
29545SOL    HW298950   1.890  10.697  12.977 -1.9668  0.3018 -1.1103
29546SOL     OW98951   0.977   8.598   0.833 -0.2559 -0.0523 -0.7137
29546SOL    HW198952   0.938   8.517   0.864 -0.8419  0.5814  0.2394
29546SOL    HW298953   1.068   8.594   0.862 -0.2000 -0.5073 -0.9467
29547SOL     OW98954   1.499   3.800   6.707  0.0885 -0.1109 -0.0356
29547SOL    HW198955   1.586   3.795   6.747 -0.2677 -0.4341  0.6963
29547SOL    HW298956   1.456   3.873   6.751  0.3501  0.7604 -1.1457
29548SOL     OW98957   1.862   9.057   9.925 -0.1180  0.2563  0.3693
29548SOL    HW198958   1.798   9.095   9.865 -1.4219 -2.7716 -0.3249
29548SOL    HW298959   1.816   8.986   9.969  2.3779 -1.2410  0.7935
29549SOL     OW98960   7.031   6.028   3.501  0.1511  0.0605  0.4306
29549SOL    HW198961   7.044   5.997   3.591  0.3863  0.7198  0.6284
29549SOL    HW298962   7.106   6.085   3.484  0.5396 -0.7031 -0.4806
29550SOL     OW98963   6.695  12.836   5.507 -0.0959  0.4667 -0.1011
29550SOL    HW198964   6.674  12.748   5.477  0.2966  0.0591  0.8034
29550SOL    HW298965   6.748  12.824   5.585  3.1445  1.4398 -1.9433
29551SOL     OW98966   0.341   9.997   3.576 -0.2586 -0.1216  0.4181
29551SOL    HW198967   0.341   9.934   3.504 -1.8238 -0.6077  0.7889
29551SOL    HW298968   0.344  10.082   3.533  1.1765 -0.4250 -0.1191
29552SOL     OW98969   5.395   5.856   1.852 -0.1724 -0.1268 -0.2613
29552SOL    HW198970   5.333   5.886   1.918 -1.6395 -2.3333 -0.5165
29552SOL    HW298971   5.386   5.919   1.780 -0.3463  0.9241  0.6592
29553SOL     OW98972   6.625  12.237   4.774  0.4669  0.4147  0.4178
29553SOL    HW198973   6.537  12.260   4.804  0.4811  0.7563  0.2080
29553SOL    HW298974   6.684  12.281   4.835  0.4982  1.2765 -0.2023
29554SOL     OW98975   8.456   8.030   4.554  0.3596 -0.5014  0.0361
29554SOL    HW198976   8.542   7.996   4.528  0.3422 -1.0432  0.6869
29554SOL    HW298977   8.472   8.076   4.636 -0.2074 -1.8287  0.9276
29555SOL     OW98978   2.288  11.305   5.467 -0.0190 -0.5493  0.1739
29555SOL    HW198979   2.355  11.311   5.534  0.7218  0.9180 -0.6545
29555SOL    HW298980   2.216  11.360   5.499  0.8766  1.2650 -0.7885
29556SOL     OW98981   9.023   8.534   7.166  0.4525 -0.8596 -0.0732
29556SOL    HW198982   8.999   8.622   7.136 -1.4530 -0.8308  1.4025
29556SOL    HW298983   9.119   8.533   7.162  0.4509  0.6180 -1.8763
29557SOL     OW98984   3.796   7.596   2.145 -0.0967  0.1325 -0.3946
29557SOL    HW198985   3.812   7.630   2.233 -0.7489 -2.0939  0.6546
29557SOL    HW298986   3.711   7.634   2.120 -1.4285 -1.5445  1.2668
29558SOL     OW98987   3.310   6.988  10.720  0.1079  0.2056 -0.2473
29558SOL    HW198988   3.342   6.947  10.639  0.2743  0.3725 -0.2674
29558SOL    HW298989   3.258   7.062  10.690  0.5566  0.5474 -0.1942
29559SOL     OW98990  10.277  10.082   5.807  0.5331 -0.2530 -0.3757
29559SOL    HW198991  10.285  10.009   5.868  1.1461 -1.2966 -1.6625
29559SOL    HW298992  10.230  10.149   5.857 -1.6758 -2.1654  0.2986
29560SOL     OW98993   2.692   7.070  10.794  0.4246  0.4201  0.1092
29560SOL    HW198994   2.663   7.090  10.883 -0.0442 -0.0724  0.0776
29560SOL    HW298995   2.767   7.012  10.805  0.7100  0.8010  0.1852
29561SOL     OW98996   9.982   2.410  11.778 -0.3792 -0.1418  0.7117
29561SOL    HW198997  10.072   2.441  11.782 -0.4995  0.4018 -0.4689
29561SOL    HW298998   9.931   2.479  11.819 -0.3271 -0.1776  0.8381
29562SOL     OW98999  11.161   2.994   6.801 -0.6638 -0.1237 -0.2217
29562SOL    HW199000  11.172   2.939   6.723 -1.3510  0.1074 -0.4924
29562SOL    HW299001  11.142   2.933   6.871  1.5118 -0.4917  0.1393
29563SOL     OW99002   5.345   2.942   3.666  0.1264 -0.2446 -0.1059
29563SOL    HW199003   5.279   2.938   3.736  1.3472  2.5704  1.3712
29563SOL    HW299004   5.324   3.022   3.618  1.3768 -0.3036 -0.7848
29564SOL     OW99005   6.137   1.901   8.136 -0.4316 -0.1624 -0.0838
29564SOL    HW199006   6.114   1.932   8.223  1.1709 -1.5921  0.9163
29564SOL    HW299007   6.083   1.953   8.076 -0.9954  1.3972  1.7068
29565SOL     OW99008   1.576  10.033   7.841 -0.0752 -0.3151 -0.0314
29565SOL    HW199009   1.570  10.105   7.778 -0.9922 -0.3780 -0.0316
29565SOL    HW299010   1.652  10.054   7.895  0.1091  0.2665 -0.5131
29566SOL     OW99011   3.823   5.839  12.899 -0.2663 -0.2019  0.2905
29566SOL    HW199012   3.739   5.885  12.900  0.6186  1.4805  0.4961
29566SOL    HW299013   3.884   5.902  12.863  0.7600 -1.7313 -0.7445
29567SOL     OW99014   3.280   0.923  10.704 -0.0435  0.2630 -0.2365
29567SOL    HW199015   3.370   0.953  10.692 -0.1360  0.3780 -0.6529
29567SOL    HW299016   3.227   1.002  10.697 -0.3371 -0.0495 -1.9103
29568SOL     OW99017  10.347  12.407   9.220  0.5030 -0.1015  0.1009
29568SOL    HW199018  10.293  12.445   9.151 -0.4628  2.1936  1.9992
29568SOL    HW299019  10.418  12.471   9.232 -0.4585  0.6096  2.5250
29569SOL     OW99020   9.073   3.933   8.206 -0.4692 -0.2411 -0.0894
29569SOL    HW199021   9.017   3.855   8.210 -1.3867  0.3641 -0.6551
29569SOL    HW299022   9.035   3.986   8.136 -0.0310  0.8368  0.4668
29570SOL     OW99023   1.727   2.635   9.804 -0.5720  0.1173 -0.3512
29570SOL    HW199024   1.677   2.614   9.883 -1.0420  0.6118 -0.5071
29570SOL    HW299025   1.809   2.672   9.836 -1.2450  1.4314 -0.0738
29571SOL     OW99026   6.851   7.204   1.953  0.0994  0.1036  0.1211
29571SOL    HW199027   6.782   7.177   1.893  1.7539 -1.3068 -1.2598
29571SOL    HW299028   6.925   7.225   1.896  1.2181  0.3691  1.6097
29572SOL     OW99029   6.124   2.355   7.220 -0.3665 -0.2452 -0.2858
29572SOL    HW199030   6.128   2.447   7.247 -0.4127 -0.4307  0.3493
29572SOL    HW299031   6.128   2.359   7.124 -0.1703  0.4079 -0.2577
29573SOL     OW99032   1.582   7.991   6.744  0.0370 -0.1528  0.1721
29573SOL    HW199033   1.562   8.062   6.683 -0.1554  0.7483  1.2354
29573SOL    HW299034   1.632   7.928   6.693 -0.3298  0.4478 -0.9674
29574SOL     OW99035  11.965   9.483   6.961  0.5976  0.0683  0.2629
29574SOL    HW199036  11.901   9.417   6.936  1.7719 -1.1716  0.3744
29574SOL    HW299037  11.913   9.557   6.993 -0.9554  0.9887 -3.8233
29575SOL     OW99038  12.535  12.465   6.383 -0.1370  0.0567  0.1256
29575SOL    HW199039  12.581  12.401   6.438 -0.3055  1.1678  1.6161
29575SOL    HW299040  12.449  12.426   6.368  0.1188 -0.5255  0.1464
29576SOL     OW99041   0.299   9.867   1.520 -0.2611  0.4804 -0.3221
29576SOL    HW199042   0.386   9.839   1.492  0.1030 -0.4374  1.5300
29576SOL    HW299043   0.288   9.954   1.484  1.0107  0.2121 -1.4144
29577SOL     OW99044  12.522   4.296   7.916 -0.0087 -0.0554 -0.1555
29577SOL    HW199045  12.564   4.367   7.963  0.3677  0.4818 -1.2592
29577SOL    HW299046  12.547   4.216   7.963  0.1111  0.4780  0.6964
29578SOL     OW99047   4.665   4.626   6.165 -1.0962 -0.2027 -0.1508
29578SOL    HW199048   4.720   4.578   6.103  0.9674 -1.0798  2.1811
29578SOL    HW299049   4.613   4.685   6.110 -0.3340 -1.7716 -2.7672
29579SOL     OW99050   4.932   3.341   3.698  0.0028  0.4590  0.1400
29579SOL    HW199051   4.976   3.407   3.645  0.7103 -0.4165 -0.4027
29579SOL    HW299052   4.913   3.384   3.781  0.7682  1.2241 -0.0745
29580SOL     OW99053  10.105  10.547   3.891 -0.3707 -0.0072 -0.1178
29580SOL    HW199054  10.134  10.479   3.830 -1.6379 -0.4355 -0.2655
29580SOL    HW299055  10.143  10.521   3.975 -1.5376 -1.4088  0.0172
29581SOL     OW99056   1.249   7.873  11.351  0.5196 -0.2396  0.2217
29581SOL    HW199057   1.313   7.814  11.311  0.8313 -0.0696  0.4653
29581SOL    HW299058   1.297   7.918  11.420 -0.4667 -1.8638  2.0576
29582SOL     OW99059   0.779  11.756   0.648 -0.4555  0.3282  0.0700
29582SOL    HW199060   0.828  11.780   0.570  0.5377 -0.3922  0.4568
29582SOL    HW299061   0.695  11.722   0.615  0.5831 -1.5378 -0.7904
29583SOL     OW99062   1.447   3.495   0.185 -0.3755 -0.5347  0.4978
29583SOL    HW199063   1.442   3.498   0.281  0.8693 -0.4805  0.5799
29583SOL    HW299064   1.535   3.463   0.167 -0.6941 -0.7999 -0.6376
29584SOL     OW99065   9.983   8.931   6.739  0.2309 -0.1168 -0.0528
29584SOL    HW199066   9.934   8.967   6.666  0.2213 -1.3232 -0.6689
29584SOL    HW299067  10.045   8.871   6.699  2.0559  1.1530  0.7346
29585SOL     OW99068   0.369   0.265  12.354  0.5639  0.4711 -0.3327
29585SOL    HW199069   0.378   0.231  12.443  0.0778  0.2723 -0.3530
29585SOL    HW299070   0.458   0.282  12.325  0.7146  0.6924  0.2543
29586SOL     OW99071  11.495   0.504   7.159 -0.3480  0.0376 -0.6134
29586SOL    HW199072  11.552   0.495   7.235 -0.6499 -1.8915 -0.5856
29586SOL    HW299073  11.534   0.575   7.108  0.5315  0.5498  0.7323
29587SOL     OW99074  11.956   9.316  11.573 -0.0096 -0.4806  0.3595
29587SOL    HW199075  12.028   9.357  11.621 -0.9072 -0.0296  1.3475
29587SOL    HW299076  11.980   9.224  11.568  0.5528 -0.3680  0.8427
29588SOL     OW99077   0.036   1.596  10.296 -0.1619 -0.0859 -0.7277
29588SOL    HW199078  -0.004   1.565  10.377  1.2988 -1.5556 -0.5234
29588SOL    HW299079   0.049   1.690  10.310 -1.4289  0.0025  0.0631
29589SOL     OW99080  11.278   6.688   2.507  0.1335  0.2550 -0.1271
29589SOL    HW199081  11.372   6.692   2.528  0.1032 -1.1758  0.4128
29589SOL    HW299082  11.236   6.672   2.592 -0.5070  0.0016 -0.4919
29590SOL     OW99083   4.972   5.049   1.674 -0.2360  0.0983  0.1816
29590SOL    HW199084   4.954   5.062   1.767 -0.0629  0.4914  0.1597
29590SOL    HW299085   5.052   5.099   1.657 -2.4913  3.5836 -1.1069
29591SOL     OW99086   6.292   7.799   9.477 -0.3455  0.1864  0.1849
29591SOL    HW199087   6.359   7.810   9.544 -0.4684 -2.0311  0.7403
29591SOL    HW299088   6.209   7.814   9.523 -0.4963 -2.3558  0.8738
29592SOL     OW99089   0.657   5.914   9.238  0.1672 -0.2050 -0.1275
29592SOL    HW199090   0.624   5.848   9.298  0.5102  0.1406  0.4500
29592SOL    HW299091   0.627   5.998   9.275 -0.5679 -0.0388 -1.0380
29593SOL     OW99092  12.849   4.559   6.519  0.1250 -0.0093  0.0971
29593SOL    HW199093  12.881   4.496   6.584 -0.2493  0.7102  0.9948
29593SOL    HW299094  12.762   4.527   6.495 -0.1095  0.2181  0.6319
29594SOL     OW99095  10.469  12.024   7.772  0.2205  0.2547 -0.1597
29594SOL    HW199096  10.546  12.041   7.717  0.5810 -1.5539 -0.2489
29594SOL    HW299097  10.397  12.016   7.710  0.2696  0.2276 -0.2145
29595SOL     OW99098   3.707   5.601   3.968  0.7371  0.1945  0.6792
29595SOL    HW199099   3.719   5.694   3.950 -3.1775  0.8748  0.6889
29595SOL    HW299100   3.713   5.595   4.064  0.0276  0.6673  0.7642
29596SOL     OW99101  11.181  11.811   4.631 -0.4570  0.3644 -0.2414
29596SOL    HW199102  11.222  11.849   4.553 -1.5374 -0.4857 -1.2680
29596SOL    HW299103  11.254  11.789   4.688  0.4842 -0.3289 -1.6526
29597SOL     OW99104   3.148   1.913   6.371 -0.1494  0.2703  0.6352
29597SOL    HW199105   3.120   1.823   6.386 -2.4635  1.1604  2.2307
29597SOL    HW299106   3.178   1.914   6.281  0.4323 -2.1982  0.7377
29598SOL     OW99107   2.844  12.485  10.997 -0.1284 -0.9628 -0.4634
29598SOL    HW199108   2.898  12.554  10.958 -2.2668  0.9971 -0.1917
29598SOL    HW299109   2.894  12.456  11.073  1.3191 -0.4786 -1.1862
29599SOL     OW99110  10.913   1.941   4.602  0.0082  0.3559 -0.4460
29599SOL    HW199111  10.902   1.846   4.609  1.4082  0.1251 -1.1000
29599SOL    HW299112  10.825   1.974   4.587 -0.5693 -0.7905  0.2583
29600SOL     OW99113   9.833  10.350   4.933  0.5155  0.0121  0.6795
29600SOL    HW199114   9.904  10.386   4.878  0.1583  2.9922  2.0170
29600SOL    HW299115   9.879  10.307   5.005  0.9711  0.1438  0.4761
29601SOL     OW99116   9.396   4.308   7.228 -0.2152  0.1761  0.0586
29601SOL    HW199117   9.489   4.316   7.248 -0.2678 -0.3847  0.5566
29601SOL    HW299118   9.394   4.266   7.142  0.0058 -1.7689  0.9408
29602SOL     OW99119   7.343  11.569   2.329  0.5484  0.5279  0.2988
29602SOL    HW199120   7.341  11.576   2.234 -1.0034  0.9470  0.3345
29602SOL    HW299121   7.328  11.476   2.347  0.9728  0.4265  0.1388
29603SOL     OW99122  11.837   0.753   4.629 -0.0600  0.0766  0.1847
29603SOL    HW199123  11.821   0.722   4.719 -1.2787 -0.0210 -0.0542
29603SOL    HW299124  11.751   0.756   4.589  0.1473  2.5519 -0.2331
29604SOL     OW99125   2.959   3.896   7.404 -0.6656 -0.1410 -0.4128
29604SOL    HW199126   2.943   3.930   7.492  2.4545  0.8726 -0.1138
29604SOL    HW299127   3.003   3.812   7.418 -0.8517 -0.3507 -1.0288
29605SOL     OW99128   5.128   2.193   2.568  0.0560 -0.3074 -0.0466
29605SOL    HW199129   5.210   2.242   2.569  0.1915 -0.4809 -0.9605
29605SOL    HW299130   5.067   2.250   2.521  0.2964 -1.1051 -1.3721
29606SOL     OW99131  11.351   2.233  12.141  0.1966  0.5884 -0.0427
29606SOL    HW199132  11.340   2.327  12.131  0.6260  0.8675  1.7692
29606SOL    HW299133  11.272   2.204  12.187 -0.0237  0.0017 -0.7539
29607SOL     OW99134   4.585  11.918   6.223  0.0659 -0.5713  0.3719
29607SOL    HW199135   4.521  11.976   6.183 -1.5902 -1.8767  1.0280
29607SOL    HW299136   4.534  11.860   6.279  1.5797 -2.9082 -0.5023
29608SOL     OW99137   5.048   6.052   3.082 -0.0160 -0.4672  0.3470
29608SOL    HW199138   4.982   5.983   3.090 -0.2681 -0.3005 -0.2215
29608SOL    HW299139   5.103   6.042   3.160  0.3066 -1.6810 -0.0144
29609SOL     OW99140   4.400  11.887   5.099  0.6261 -0.1267  0.1880
29609SOL    HW199141   4.424  11.794   5.090  0.7213 -0.1723  0.8542
29609SOL    HW299142   4.479  11.930   5.130  0.3996  0.0605  0.5181
29610SOL     OW99143   1.561   7.092  11.694  0.0732  0.6830 -0.5814
29610SOL    HW199144   1.522   7.177  11.674  1.3913  1.6978  0.9821
29610SOL    HW299145   1.610   7.069  11.615 -0.6661  1.1233 -1.1883
29611SOL     OW99146  12.616  11.523   7.748  0.4681  0.3459 -0.3585
29611SOL    HW199147  12.537  11.486   7.707  0.0804 -0.0851  0.7328
29611SOL    HW299148  12.663  11.564   7.676 -2.2862  3.4424 -0.6651
29612SOL     OW99149   2.338   0.522   0.313  0.3627  0.0277  0.0972
29612SOL    HW199150   2.370   0.610   0.290  1.5826  0.2120  2.1719
29612SOL    HW299151   2.319   0.481   0.229  1.7158  1.5772 -1.0491
29613SOL     OW99152   0.015   8.167  10.309 -0.0544  0.4108 -0.1584
29613SOL    HW199153  -0.079   8.169  10.295  0.0118  1.8670 -0.6196
29613SOL    HW299154   0.028   8.218  10.390  0.0949 -2.6229  1.8916
29614SOL     OW99155   8.454  10.736  12.434 -0.6832  0.6197 -0.8989
29614SOL    HW199156   8.441  10.662  12.375 -1.2942 -0.4985  0.5707
29614SOL    HW299157   8.528  10.784  12.397 -1.2712  0.1743 -2.7445
29615SOL     OW99158   1.735   8.083   8.660 -0.2177 -0.5205  0.0197
29615SOL    HW199159   1.786   8.080   8.579  1.0608 -2.7642  0.8067
29615SOL    HW299160   1.754   8.169   8.698 -0.8400  0.5590 -2.0206
29616SOL     OW99161   8.028   1.897   2.202 -0.4535 -0.3775  0.3479
29616SOL    HW199162   8.070   1.938   2.126 -1.1932  1.5592  0.9356
29616SOL    HW299163   8.004   1.810   2.171  0.8225 -0.2654 -1.0904
29617SOL     OW99164  11.946  10.574   1.730  0.6102  0.3075  0.3311
29617SOL    HW199165  11.957  10.483   1.702 -0.2564  0.6937 -1.3838
29617SOL    HW299166  12.023  10.619   1.697  0.1175  0.5508 -0.5117
29618SOL     OW99167   7.255   4.165   2.142  0.4216 -0.3431 -0.7061
29618SOL    HW199168   7.238   4.197   2.054 -0.5932  1.0931 -0.0197
29618SOL    HW299169   7.345   4.133   2.139  0.5691  0.1602 -2.1228
29619SOL     OW99170  10.800   1.978  10.501  0.0927 -0.0633  0.3070
29619SOL    HW199171  10.714   2.016  10.482  0.3674  0.4595  0.0654
29619SOL    HW299172  10.859   2.024  10.441  0.4120 -1.0077 -0.1202
29620SOL     OW99173   7.778   1.221   3.671  0.7893  0.1230  0.1314
29620SOL    HW199174   7.853   1.236   3.729  2.1745 -1.5190 -1.1542
29620SOL    HW299175   7.761   1.307   3.632  1.0196  0.8379  1.5121
29621SOL     OW99176   7.882   2.686   3.100  0.0900  0.0243 -0.8024
29621SOL    HW199177   7.819   2.614   3.096 -0.1721  0.2628 -1.0185
29621SOL    HW299178   7.967   2.644   3.088  0.0016 -0.3354 -0.2122
29622SOL     OW99179   8.090  11.262   6.680 -0.4559 -0.0981 -0.8552
29622SOL    HW199180   8.159  11.237   6.741  0.6136 -1.0830 -2.3823
29622SOL    HW299181   8.015  11.209   6.705 -0.0705 -0.4027 -0.3269
29623SOL     OW99182   9.661   3.354  10.874  0.2794 -0.0797 -1.1006
29623SOL    HW199183   9.626   3.440  10.852  0.0333  0.3843  0.8790
29623SOL    HW299184   9.680   3.313  10.790  1.0088  2.1447 -2.0781
29624SOL     OW99185   1.090   3.998  10.287  0.2727 -0.3080 -0.3202
29624SOL    HW199186   1.071   4.021  10.378  1.5942 -1.1339  0.2055
29624SOL    HW299187   1.181   3.968  10.289 -0.2090 -1.9964 -1.5917
29625SOL     OW99188  12.188   5.117  10.491  0.7907  0.2590  0.3185
29625SOL    HW199189  12.168   5.060  10.417  2.7799  0.9886 -0.8438
29625SOL    HW299190  12.249   5.066  10.545 -0.5815 -0.2384  1.4823
29626SOL     OW99191  12.867  11.801   8.032  0.3105 -0.2533 -0.2392
29626SOL    HW199192  12.780  11.798   7.992  0.6039 -0.0132 -0.9094
29626SOL    HW299193  12.902  11.713   8.017 -0.2010 -0.6703  0.9284
29627SOL     OW99194   6.578   4.250  12.893  0.0731 -0.2125  0.3011
29627SOL    HW199195   6.524   4.172  12.889  1.8192 -1.4567 -0.3783
29627SOL    HW299196   6.516   4.323  12.895 -1.5936 -1.5813  0.2938
29628SOL     OW99197   5.277   3.750   2.162  0.5940 -0.4655  0.0926
29628SOL    HW199198   5.245   3.822   2.108  1.9012 -0.9752 -1.4492
29628SOL    HW299199   5.371   3.767   2.171  0.8145 -1.6593  0.2141
29629SOL     OW99200   2.246   7.042   5.950 -0.1445  0.1631  0.1258
29629SOL    HW199201   2.163   6.996   5.940 -0.4973  0.7692  0.1709
29629SOL    HW299202   2.303   6.981   5.997 -0.3232 -0.5356 -0.5561
29630SOL     OW99203   0.035  12.773   3.923  0.3236 -0.1027 -0.2288
29630SOL    HW199204  -0.048  12.764   3.876  0.0344  1.3929 -0.0389
29630SOL    HW299205   0.096  12.810   3.859  1.0162 -1.6369 -0.5119
29631SOL     OW99206   6.076  11.996   7.622  0.7752  0.0859 -0.3373
29631SOL    HW199207   6.149  11.999   7.561  1.7771  0.4741  0.8314
29631SOL    HW299208   6.001  12.029   7.573  1.4960  0.1574 -1.4074
29632SOL     OW99209   2.735  12.884   5.788  0.2869  0.4410 -0.8502
29632SOL    HW199210   2.736  12.789   5.797 -0.6400  0.3300 -1.7094
29632SOL    HW299211   2.816  12.913   5.830  0.3812 -0.6872 -0.2146
29633SOL     OW99212   3.657  11.995   1.871  0.3771 -0.4175 -0.5894
29633SOL    HW199213   3.716  11.949   1.811  0.7533  0.5473 -0.9721
29633SOL    HW299214   3.579  11.939   1.875  0.0144 -0.1413 -2.6188
29634SOL     OW99215   1.002   9.265   2.336 -0.2163  0.6716 -0.7415
29634SOL    HW199216   0.951   9.201   2.286 -1.7435  1.5419 -0.3611
29634SOL    HW299217   1.073   9.290   2.277 -0.4089 -0.3303 -1.4283
29635SOL     OW99218  10.365  10.199  12.978 -0.4764 -0.5809  0.3414
29635SOL    HW199219  10.459  10.197  12.995 -0.4673  1.1331  0.7304
29635SOL    HW299220  10.358  10.185  12.883  0.2571  0.1744  0.1623
29636SOL     OW99221   4.073   3.915   8.148  0.0778  0.1954  0.5904
29636SOL    HW199222   4.066   3.824   8.176  0.2778  0.4728  1.6013
29636SOL    HW299223   4.038   3.965   8.223  0.8003  0.9854  0.4115
29637SOL     OW99224  10.727   9.584   8.925  0.2385 -0.1267  0.8075
29637SOL    HW199225  10.706   9.524   8.853  0.0777 -0.0978  0.8318
29637SOL    HW299226  10.773   9.529   8.989 -0.6436 -0.4131  1.2046
29638SOL     OW99227   5.668  12.310  11.887  0.2876 -0.5520  0.2702
29638SOL    HW199228   5.662  12.215  11.888 -1.8014 -0.4932 -0.7631
29638SOL    HW299229   5.587  12.340  11.928  0.0711  0.7678 -1.0364
29639SOL     OW99230   5.631   8.766   2.624  0.1470  0.3637  0.2544
29639SOL    HW199231   5.703   8.713   2.658 -0.0980  0.5316  1.0641
29639SOL    HW299232   5.602   8.817   2.700  0.6371  1.9556 -0.5704
29640SOL     OW99233   0.519  11.140   2.762  0.1101 -0.0809 -0.7129
29640SOL    HW199234   0.560  11.124   2.677 -3.4938  0.2218 -2.6726
29640SOL    HW299235   0.503  11.234   2.764 -0.6770 -0.2147 -0.1374
29641SOL     OW99236   2.234  11.974   5.986 -0.0328  0.6094 -0.2195
29641SOL    HW199237   2.274  12.058   5.966  1.8408 -0.1592  0.0388
29641SOL    HW299238   2.203  11.983   6.076 -0.8637  1.3564 -0.5653
29642SOL     OW99239   4.485   0.361  10.214  0.3035 -0.6683 -0.0247
29642SOL    HW199240   4.499   0.366  10.309  0.8467 -1.0314 -0.0833
29642SOL    HW299241   4.393   0.336  10.205 -1.2533  3.9468  0.3628
29643SOL     OW99242   4.936  11.808  10.774  0.4983 -0.8704  0.2884
29643SOL    HW199243   4.967  11.773  10.857 -1.3293 -1.9486  0.5569
29643SOL    HW299244   5.016  11.817  10.721  1.5239 -1.4377  1.6802
29644SOL     OW99245   7.585   1.393   0.586 -0.1213 -0.0266  0.8528
29644SOL    HW199246   7.530   1.443   0.647 -0.8748  1.4030 -0.9156
29644SOL    HW299247   7.599   1.453   0.512  2.3368 -0.9970  0.4322
29645SOL     OW99248  11.317  10.610   1.935 -0.3335  0.0893 -0.0359
29645SOL    HW199249  11.382  10.680   1.931 -2.1623  1.8833 -0.1999
29645SOL    HW299250  11.249  10.637   1.873 -0.4639 -2.5951 -1.2102
29646SOL     OW99251   2.262   1.642   9.833 -0.6643 -0.0608 -0.0659
29646SOL    HW199252   2.353   1.620   9.812 -0.7904  0.1885 -0.9525
29646SOL    HW299253   2.268   1.722   9.885 -0.3361 -0.6400  0.8080
29647SOL     OW99254   0.553   8.784   6.148  0.1530 -0.0687  0.3388
29647SOL    HW199255   0.499   8.735   6.086 -0.3277  0.6229  0.2062
29647SOL    HW299256   0.595   8.716   6.201 -0.8157 -0.6216  0.4189
29648SOL     OW99257   5.791   8.304   0.296  0.3778  0.4775  0.8384
29648SOL    HW199258   5.723   8.359   0.257 -1.4993 -1.6401  0.9599
29648SOL    HW299259   5.820   8.353   0.373 -2.6296  0.5496  2.0843
29649SOL     OW99260  11.673   5.570   0.666 -0.5615 -0.6082 -0.6583
29649SOL    HW199261  11.581   5.597   0.672 -0.2587  0.5829 -0.9926
29649SOL    HW299262  11.670   5.478   0.639 -1.6547 -0.8952  0.3599
29650SOL     OW99263   7.272  11.252   2.834 -0.2044 -0.4192  0.1334
29650SOL    HW199264   7.288  11.262   2.928 -1.5096  0.9438  0.2400
29650SOL    HW299265   7.214  11.177   2.828 -0.4642 -0.2518  0.4680
29651SOL     OW99266   1.794   8.732   3.009  0.3711  0.7465 -0.4575
29651SOL    HW199267   1.729   8.665   3.029  0.0095  0.8331 -1.2980
29651SOL    HW299268   1.848   8.694   2.940  1.6233  0.4354  0.6518
29652SOL     OW99269   5.628   5.404   9.814 -0.6064  0.0708 -0.0014
29652SOL    HW199270   5.667   5.319   9.796 -0.6602  0.2548 -1.0575
29652SOL    HW299271   5.553   5.409   9.754  0.3534  1.5163 -1.1652
29653SOL     OW99272   8.563   9.076   1.925  0.0260  0.3718 -0.9620
29653SOL    HW199273   8.507   9.146   1.957 -0.4159  1.1163 -3.1847
29653SOL    HW299274   8.581   9.023   2.002 -1.5211  1.6260  0.3431
29654SOL     OW99275   6.729  10.001   5.056  0.0575  0.0022  0.8268
29654SOL    HW199276   6.677   9.923   5.075 -0.7305  0.3524  0.1745
29654SOL    HW299277   6.812   9.986   5.101 -0.2303 -1.0275  1.0441
29655SOL     OW99278   9.864   2.690   2.098  0.0445  0.0087 -0.0635
29655SOL    HW199279   9.792   2.667   2.039 -0.1104 -0.1432  0.1864
29655SOL    HW299280   9.918   2.612   2.101 -1.5121 -1.0697  2.3313
29656SOL     OW99281   5.228  11.402  12.917  0.5741  0.7265 -0.1100
29656SOL    HW199282   5.257  11.319  12.957  1.0660  1.0958  0.3160
29656SOL    HW299283   5.295  11.465  12.942  1.4521  0.7843 -2.3807
29657SOL     OW99284   4.714   5.851   8.422 -0.3188 -0.0338 -0.3112
29657SOL    HW199285   4.736   5.924   8.365 -0.6893  1.4243  1.3367
29657SOL    HW299286   4.798   5.806   8.436  0.3165  1.2310  0.1763
29658SOL     OW99287   5.254   3.929   3.952  0.2251 -0.1949 -0.3428
29658SOL    HW199288   5.180   3.895   3.901  0.5589 -0.2979 -0.7667
29658SOL    HW299289   5.328   3.928   3.891  0.0871  2.0671 -0.6581
29659SOL     OW99290  12.334   1.833   0.685  0.3966 -0.5740  0.5082
29659SOL    HW199291  12.289   1.764   0.733 -2.7957  0.4040 -0.8056
29659SOL    HW299292  12.308   1.914   0.728 -0.9095  0.1685 -1.5289
29660SOL     OW99293   1.447   9.088   6.437 -0.2617 -0.5397 -0.3207
29660SOL    HW199294   1.486   9.146   6.502 -2.3602  0.1979  0.3824
29660SOL    HW299295   1.371   9.136   6.405  0.5759 -0.9562 -3.2392
29661SOL     OW99296  12.885   8.293   1.828  0.4242 -0.0313  0.5868
29661SOL    HW199297  12.957   8.347   1.860  2.6389 -2.6061  0.3593
29661SOL    HW299298  12.895   8.210   1.876  0.8788 -2.2994 -3.0507
29662SOL     OW99299  10.851   6.819   3.193 -0.1744  0.3799  0.0893
29662SOL    HW199300  10.787   6.749   3.176  0.1199  0.1056  0.1060
29662SOL    HW299301  10.932   6.787   3.154 -0.7045  1.9640 -2.5537
29663SOL     OW99302   2.210   9.115   1.807 -0.5564 -0.0637 -0.0016
29663SOL    HW199303   2.169   9.136   1.891 -0.4017 -1.3251  0.4128
29663SOL    HW299304   2.138   9.116   1.744 -1.5292 -3.1420  0.8611
29664SOL     OW99305   5.348   9.134  11.279 -0.1146 -0.0956 -0.0429
29664SOL    HW199306   5.324   9.062  11.220 -1.9667  0.0954  0.4171
29664SOL    HW299307   5.414   9.096  11.338  0.0643 -0.9516 -0.7728
29665SOL     OW99308   8.843   8.262   8.901  0.4542  0.5482  0.4482
29665SOL    HW199309   8.764   8.220   8.866  1.3301 -1.0260  0.2651
29665SOL    HW299310   8.854   8.340   8.847 -0.1433 -0.0078 -0.5207
29666SOL     OW99311   5.769  11.742   3.577  0.1263 -0.4435  0.1413
29666SOL    HW199312   5.845  11.769   3.526  0.3310 -0.6232  0.3489
29666SOL    HW299313   5.758  11.811   3.643 -1.0059  0.5373 -1.0188
29667SOL     OW99314  12.160  12.251   2.089 -0.1087 -0.4125  0.4302
29667SOL    HW199315  12.168  12.252   2.184  0.7677 -3.0920  0.4672
29667SOL    HW299316  12.073  12.214   2.073 -0.4845  0.5529  0.1465
29668SOL     OW99317   5.605   2.496   7.688 -0.1417 -0.9939  0.3491
29668SOL    HW199318   5.700   2.505   7.688 -0.2070 -0.2904  0.0849
29668SOL    HW299319   5.581   2.505   7.780 -0.3607  3.5837  0.0320
29669SOL     OW99320   3.991   1.936   3.367 -0.0007  0.3125  0.0979
29669SOL    HW199321   3.921   1.987   3.326  0.1674 -0.1059 -0.7252
29669SOL    HW299322   4.004   1.978   3.452 -1.6876 -0.0080  0.5436
29670SOL     OW99323  12.204   5.649  12.213 -0.3187 -0.4836 -0.0661
29670SOL    HW199324  12.118   5.687  12.232  0.2855  0.8788  0.0809
29670SOL    HW299325  12.190   5.597  12.134 -1.3903 -0.7346  0.2646
29671SOL     OW99326  12.711   3.255   5.524 -0.1872 -0.9500  0.6306
29671SOL    HW199327  12.733   3.329   5.468 -1.5279 -1.2036 -0.2680
29671SOL    HW299328  12.687   3.295   5.608 -1.7166 -0.2731 -0.0937
29672SOL     OW99329   9.923   3.653   1.054  0.0772 -0.1125 -0.5076
29672SOL    HW199330   9.935   3.708   1.131 -1.2562 -1.2968  0.5931
29672SOL    HW299331   9.966   3.570   1.077 -0.3248 -0.4700 -1.0201
29673SOL     OW99332   0.690   6.429  10.186  0.4883 -0.4388  0.1680
29673SOL    HW199333   0.744   6.379  10.125 -0.6743 -0.7078 -0.6635
29673SOL    HW299334   0.675   6.513  10.142 -1.5466 -1.1512 -0.6063
29674SOL     OW99335   6.060   9.762   4.998  0.5055 -0.3299 -0.3238
29674SOL    HW199336   5.972   9.743   4.965  0.4978  2.2824 -2.1615
29674SOL    HW299337   6.046   9.795   5.086 -0.0801 -1.9980  0.2518
29675SOL     OW99338  12.348   7.334   0.408 -0.4713 -0.1427  0.3890
29675SOL    HW199339  12.430   7.302   0.372 -1.1102  1.8244 -3.2375
29675SOL    HW299340  12.364   7.341   0.502  2.9937 -1.1199 -0.0085
29676SOL     OW99341   6.443   1.290   4.019  0.1317  0.0070  0.5744
29676SOL    HW199342   6.351   1.315   4.011 -0.7664 -2.2481  2.8256
29676SOL    HW299343   6.453   1.215   3.961  0.3004 -0.3149  1.0138
29677SOL     OW99344   1.471   6.355   4.970  0.7269  0.1364  0.3697
29677SOL    HW199345   1.498   6.376   4.880 -0.3866 -0.2587 -0.0792
29677SOL    HW299346   1.471   6.439   5.015 -1.4089  0.8274 -0.7705
29678SOL     OW99347   1.450   0.431   0.002  0.6376  0.0515  0.0392
29678SOL    HW199348   1.472   0.489  -0.072  1.4920 -0.8628 -0.4450
29678SOL    HW299349   1.527   0.432   0.057  0.4211 -0.1554  0.3490
29679SOL     OW99350   3.460   2.592   8.844  0.1631 -0.4896 -0.1449
29679SOL    HW199351   3.439   2.685   8.847  0.7244 -0.3573 -0.2018
29679SOL    HW299352   3.409   2.558   8.770 -0.8992 -0.4569  0.5580
29680SOL     OW99353   5.313  10.939   7.002  0.1196 -0.2291  0.0508
29680SOL    HW199354   5.272  10.894   7.076 -0.9576 -0.6616 -0.7837
29680SOL    HW299355   5.386  10.882   6.977  1.1121  0.4098  1.3738
29681SOL     OW99356   7.630   5.210   1.764 -0.6014 -0.6394  0.3470
29681SOL    HW199357   7.653   5.154   1.690  1.5221 -1.1614  1.3202
29681SOL    HW299358   7.547   5.175   1.796 -0.3711 -1.8929 -0.3594
29682SOL     OW99359   7.315   8.049   2.123 -0.0146  0.8538  0.6101
29682SOL    HW199360   7.277   8.114   2.063 -0.9094  0.5583  0.8462
29682SOL    HW299361   7.408   8.049   2.102  0.1335  2.7012  1.0506
29683SOL     OW99362   4.696   8.359   9.370  0.1231  0.2321  0.2408
29683SOL    HW199363   4.693   8.317   9.284  2.8429 -0.2240  0.2700
29683SOL    HW299364   4.663   8.293   9.431 -0.8429  0.1927 -0.2997
29684SOL     OW99365   0.460  11.320  10.539 -0.0043 -0.4120 -0.2324
29684SOL    HW199366   0.428  11.406  10.565 -0.4053 -0.4878 -0.4680
29684SOL    HW299367   0.397  11.289  10.474  0.0875 -0.9173 -0.0877
29685SOL     OW99368   1.988   0.882   4.422  0.3394  0.1306 -0.4956
29685SOL    HW199369   1.997   0.790   4.399  1.6171 -0.2147  1.1826
29685SOL    HW299370   1.964   0.925   4.340 -0.7132 -1.7252 -1.2222
29686SOL     OW99371  10.241   1.168   6.632  0.5467 -0.8231 -0.2348
29686SOL    HW199372  10.193   1.194   6.711 -1.1273 -2.8557 -0.4897
29686SOL    HW299373  10.203   1.223   6.562  1.7970  0.7382  0.2511
29687SOL     OW99374   1.463   7.880  12.371 -0.2442  0.0240  0.1865
29687SOL    HW199375   1.478   7.900  12.463  0.7004  0.3053 -0.0157
29687SOL    HW299376   1.438   7.963  12.331 -0.7057 -0.1078  0.1933
29688SOL     OW99377  10.555   5.493   0.463  0.2245 -0.5098  0.2852
29688SOL    HW199378  10.461   5.474   0.469  0.1196 -1.1415 -2.2163
29688SOL    HW299379  10.568   5.567   0.522 -1.7046 -0.8206  1.1902
29689SOL     OW99380   2.381   9.239  10.817 -0.0800 -0.0150 -0.0209
29689SOL    HW199381   2.397   9.304  10.886  0.1255  1.1554 -1.1419
29689SOL    HW299382   2.292   9.209  10.833 -0.1702  0.5120  0.5350
29690SOL     OW99383   4.585  12.683   4.685 -0.4674  0.7475  0.1999
29690SOL    HW199384   4.524  12.662   4.614  1.2095 -0.5656 -0.9338
29690SOL    HW299385   4.592  12.778   4.683 -1.1130  0.7950 -0.8230
29691SOL     OW99386  12.684   4.643   3.483  0.3167 -0.2312  0.2636
29691SOL    HW199387  12.687   4.713   3.549 -1.0607  1.1521 -1.0685
29691SOL    HW299388  12.642   4.569   3.528  0.1588  0.4033  1.1831
29692SOL     OW99389   6.395   0.443   5.498  0.4337  0.2394 -0.2833
29692SOL    HW199390   6.342   0.453   5.419 -0.9136  1.2675  0.6876
29692SOL    HW299391   6.418   0.533   5.523  0.3363 -0.0237  0.8113
29693SOL     OW99392   0.716   2.909   6.594  0.4610 -0.8336  0.3076
29693SOL    HW199393   0.663   2.848   6.543 -0.0903  0.6949 -1.0439
29693SOL    HW299394   0.655   2.947   6.657 -0.1831  0.9920 -1.3072
29694SOL     OW99395   6.372   4.484  10.688  0.1684  0.2505  0.2153
29694SOL    HW199396   6.321   4.544  10.633 -1.0779 -1.1874 -0.2529
29694SOL    HW299397   6.397   4.413  10.629  1.8861  0.4182  0.6862
29695SOL     OW99398   9.190   3.164  10.344  0.1660  0.4671 -0.3473
29695SOL    HW199399   9.222   3.251  10.369  0.8465  0.4014 -0.9549
29695SOL    HW299400   9.246   3.138  10.271 -1.4495  0.4723 -1.6596
29696SOL     OW99401   0.833   2.793   2.351 -0.1586 -0.3367  0.2210
29696SOL    HW199402   0.915   2.792   2.399 -0.1095 -1.1995  0.1376
29696SOL    HW299403   0.859   2.791   2.259 -0.2597 -1.7942  0.1984
29697SOL     OW99404  12.529  10.428  11.217  0.3812 -0.6034 -0.5262
29697SOL    HW199405  12.558  10.501  11.163  2.2524 -0.8262  0.1109
29697SOL    HW299406  12.494  10.469  11.296 -0.4542 -0.3655 -0.9928
29698SOL     OW99407   2.647   7.481   0.226 -0.4179  0.0609  0.1923
29698SOL    HW199408   2.688   7.510   0.144 -1.0229 -1.1612 -0.5790
29698SOL    HW299409   2.686   7.396   0.244 -1.3416 -0.3378  0.3821
29699SOL     OW99410   9.818   9.246  12.163 -0.1429  0.3575 -0.0559
29699SOL    HW199411   9.904   9.288  12.156 -0.5870  1.3647  0.2675
29699SOL    HW299412   9.757   9.319  12.178 -0.8206 -0.4664  1.5241
29700SOL     OW99413   3.141   8.992  11.634 -0.5209  0.2111  0.3369
29700SOL    HW199414   3.077   8.927  11.602 -0.0160 -0.8245  1.3628
29700SOL    HW299415   3.223   8.943  11.640 -0.0540  1.0448  0.8426
29701SOL     OW99416   5.114  12.145   4.402  0.0430  0.2650  0.6166
29701SOL    HW199417   5.125  12.223   4.455  0.0616 -0.3037  1.4741
29701SOL    HW299418   5.023  12.119   4.415 -0.4154  0.9841 -0.8772
29702SOL     OW99419   9.129   7.962   2.580 -0.5871 -0.3179  0.1418
29702SOL    HW199420   9.215   7.990   2.612 -1.1688 -1.2726  2.8428
29702SOL    HW299421   9.129   7.867   2.591 -1.4950 -0.4914 -1.1784
29703SOL     OW99422   9.225  11.403   9.305  0.3301 -0.3432 -1.0827
29703SOL    HW199423   9.207  11.331   9.364  1.1064 -1.4039 -2.0824
29703SOL    HW299424   9.299  11.450   9.345 -0.2128 -0.0596 -0.4053
29704SOL     OW99425   0.214  11.938   3.418 -0.4074 -0.5611 -0.2072
29704SOL    HW199426   0.254  11.854   3.394 -0.1091 -0.4221 -0.2126
29704SOL    HW299427   0.261  12.002   3.364  1.3177 -0.0460  1.7852
29705SOL     OW99428   8.265   7.512   6.218  0.6150  0.3721 -0.3262
29705SOL    HW199429   8.278   7.493   6.125  1.1143 -0.4837 -0.0899
29705SOL    HW299430   8.353   7.530   6.251  0.5653 -0.2962  0.1844
29706SOL     OW99431   2.362  12.833   0.004 -0.2856  0.5427 -0.1048
29706SOL    HW199432   2.288  12.817  -0.055  0.2598  0.6610 -0.8360
29706SOL    HW299433   2.387  12.924  -0.014  0.6013  0.2245 -0.5111
29707SOL     OW99434   4.819  11.621   9.991 -0.4779  0.1664  0.0877
29707SOL    HW199435   4.757  11.624   9.918  0.0142  2.3974 -0.3384
29707SOL    HW299436   4.783  11.683  10.055  0.4873  0.3149  0.5039
29708SOL     OW99437   3.779  12.905   3.962 -0.0445  0.4784  0.4030
29708SOL    HW199438   3.693  12.922   4.001  0.7771  0.4238  2.3666
29708SOL    HW299439   3.823  12.991   3.963  0.0981  0.4128 -0.1220
29709SOL     OW99440  11.754   0.102   7.459  0.3999 -0.2234  0.0411
29709SOL    HW199441  11.683   0.135   7.513 -0.5018 -0.2285 -1.1092
29709SOL    HW299442  11.743   0.007   7.458  1.5104 -0.4038  1.3023
29710SOL     OW99443  11.212  10.751   4.114 -0.2224 -0.1734 -0.2074
29710SOL    HW199444  11.279  10.713   4.172 -0.1148  0.9935  0.4771
29710SOL    HW299445  11.259  10.819   4.066 -0.7618  0.2001 -0.2069
29711SOL     OW99446   0.678  11.207  10.033 -0.0467 -0.0557  0.0165
29711SOL    HW199447   0.596  11.233  10.075  0.8534  2.0449  0.6213
29711SOL    HW299448   0.720  11.148  10.096 -0.7824 -0.6024 -0.0013
29712SOL     OW99449  12.243  10.802   1.409 -0.1673  0.5974 -0.1712
29712SOL    HW199450  12.182  10.796   1.336  0.0797 -0.1597 -0.3153
29712SOL    HW299451  12.329  10.790   1.370 -0.1357 -1.5453  0.4449
29713SOL     OW99452  11.801   5.487   8.720  0.5109 -0.0530 -0.1517
29713SOL    HW199453  11.710   5.500   8.694  1.2973  2.4597 -2.0747
29713SOL    HW299454  11.848   5.466   8.639  1.7037 -0.9446  0.7316
29714SOL     OW99455   2.885   3.866   1.823 -0.2792 -0.2812  0.5648
29714SOL    HW199456   2.892   3.911   1.907  0.4139 -2.8835  2.0286
29714SOL    HW299457   2.970   3.880   1.782  0.2585 -0.9419  1.4099
29715SOL     OW99458  11.861   9.169   8.704  0.4774  0.0041 -0.5926
29715SOL    HW199459  11.806   9.100   8.666 -1.5041  1.7187 -1.0449
29715SOL    HW299460  11.854   9.155   8.799 -2.4427  1.2687 -0.5107
29716SOL     OW99461   2.192   2.808  11.507 -0.2870 -0.4779  0.6705
29716SOL    HW199462   2.117   2.850  11.466 -0.7757 -2.0899 -0.1942
29716SOL    HW299463   2.243   2.879  11.545 -0.6220  0.9511 -1.4197
29717SOL     OW99464   1.424   4.061   6.165  0.3009 -0.3299  0.4079
29717SOL    HW199465   1.408   3.990   6.103  1.2953 -3.6049  3.5591
29717SOL    HW299466   1.509   4.040   6.204  1.0022  3.0942  0.9905
29718SOL     OW99467   3.341   3.541   8.471  0.3533  0.4519  0.1218
29718SOL    HW199468   3.287   3.513   8.546  0.3798  0.2838  0.0793
29718SOL    HW299469   3.279   3.545   8.398  0.1931  1.2714  0.2950
29719SOL     OW99470  11.141   1.108   0.839  0.4458 -0.2549  0.3506
29719SOL    HW199471  11.073   1.041   0.826  2.5545 -2.5587  0.3081
29719SOL    HW299472  11.171   1.129   0.751  1.2950 -0.9707  0.4569
29720SOL     OW99473   7.039   3.765   6.010 -0.1844  0.2450  0.6658
29720SOL    HW199474   7.012   3.751   6.101 -1.9632 -0.4751  0.0552
29720SOL    HW299475   7.000   3.848   5.985  1.5905  1.2386  0.9872
29721SOL     OW99476   9.638   9.975  10.631  0.1158 -0.1590  0.3682
29721SOL    HW199477   9.583  10.047  10.600  1.2451  0.0351 -1.3407
29721SOL    HW299478   9.698  10.016  10.694  1.9382  0.8944 -1.8837
29722SOL     OW99479   8.823  12.231   6.543  0.2219  0.2231  0.0919
29722SOL    HW199480   8.823  12.185   6.628 -1.5137 -0.3786 -0.1906
29722SOL    HW299481   8.915  12.229   6.515  0.5441 -1.1920  1.1094
29723SOL     OW99482   4.069   1.250  10.425  0.4574  0.1302  0.3037
29723SOL    HW199483   4.153   1.227  10.464  0.2788 -1.0407  0.0256
29723SOL    HW299484   4.067   1.203  10.342 -0.5539 -0.0073  0.3979
29724SOL     OW99485   2.712   6.494  12.016  0.3983  0.2329 -0.4748
29724SOL    HW199486   2.804   6.518  12.010  0.2692  1.1206  0.6722
29724SOL    HW299487   2.668   6.551  11.953  0.4547  0.9355  0.1120
29725SOL     OW99488   8.107   5.010   5.023  0.7940  0.0825  0.4920
29725SOL    HW199489   8.201   5.015   5.008  0.9480 -1.1951  0.9550
29725SOL    HW299490   8.086   4.917   5.013 -0.2295  0.1954  1.4455
29726SOL     OW99491   3.857   6.734   4.633 -0.1261  0.2022 -0.3609
29726SOL    HW199492   3.889   6.819   4.664  3.0368 -0.8515 -0.3934
29726SOL    HW299493   3.817   6.694   4.710  0.5310  0.7850  0.3040
29727SOL     OW99494  11.943  11.477   3.986  0.1768  0.2405 -0.1113
29727SOL    HW199495  11.897  11.394   3.981  2.1463 -0.8428 -1.7158
29727SOL    HW299496  11.883  11.535   4.033 -1.1355 -2.1269  1.2932
29728SOL     OW99497   9.612   7.797   1.363  0.1188 -0.6956 -0.2232
29728SOL    HW199498   9.597   7.717   1.413  0.2968 -0.7702 -0.2886
29728SOL    HW299499   9.537   7.853   1.383  0.2873 -0.6438  0.2962
29729SOL     OW99500   3.502  10.287   6.287 -0.0732  0.1515  0.2123
29729SOL    HW199501   3.416  10.304   6.251 -0.1841  1.9121  1.1704
29729SOL    HW299502   3.561  10.292   6.212 -0.6194  0.6879 -0.1905
29730SOL     OW99503   8.658   8.580   4.798 -0.7129  0.1472 -0.3344
29730SOL    HW199504   8.740   8.620   4.828 -1.0437  0.3000  0.4051
29730SOL    HW299505   8.674   8.557   4.707  0.3063 -0.2389 -0.0728
29731SOL     OW99506  10.258   8.572   8.130  0.1018 -0.3584 -0.4509
29731SOL    HW199507  10.294   8.534   8.211 -0.2775 -1.1561 -0.6441
29731SOL    HW299508  10.333   8.614   8.088  0.2069  0.5043  0.5536
29732SOL     OW99509   6.023   8.670   5.582  0.3482  0.4965  0.1874
29732SOL    HW199510   5.952   8.646   5.523  0.8348 -1.0110  0.1686
29732SOL    HW299511   6.103   8.643   5.537  0.6464 -2.4492  2.2007
29733SOL     OW99512   8.685   2.482   6.021 -0.2170  0.1045 -0.3780
29733SOL    HW199513   8.751   2.426   5.979  0.5878  0.1693  0.7524
29733SOL    HW299514   8.694   2.566   5.975 -0.8716 -0.4370 -1.5334
29734SOL     OW99515   3.748   7.488   5.619 -0.3992 -0.3993  0.2570
29734SOL    HW199516   3.687   7.506   5.691 -0.4506  0.5046  0.0016
29734SOL    HW299517   3.803   7.417   5.651  0.8602  1.2482  1.9823
29735SOL     OW99518   6.735   7.219   5.755 -0.3641 -0.4788 -0.1563
29735SOL    HW199519   6.660   7.279   5.756 -0.6105 -0.7861  0.2845
29735SOL    HW299520   6.703   7.141   5.710 -0.1593 -0.4255 -0.3945
29736SOL     OW99521   9.780   4.047   0.941  0.1730  0.0953  0.5759
29736SOL    HW199522   9.837   4.089   0.876 -0.5311  0.6470  0.3052
29736SOL    HW299523   9.764   3.960   0.904 -3.1049  1.5288 -1.9021
29737SOL     OW99524   1.548   6.595   7.876  0.1196  0.0277  0.9497
29737SOL    HW199525   1.523   6.666   7.934  0.2835  0.9396 -0.0666
29737SOL    HW299526   1.614   6.546   7.925  1.1580  1.4943  1.0605
29738SOL     OW99527   3.126  11.003   1.850 -0.5999 -0.0123  0.0637
29738SOL    HW199528   3.143  11.046   1.933  1.2944  0.1480 -0.3612
29738SOL    HW299529   3.157  10.913   1.862 -1.4791 -0.3445 -0.0863
29739SOL     OW99530   8.856   6.681   5.755 -0.5211  0.1921  0.1798
29739SOL    HW199531   8.827   6.665   5.665  2.1354 -0.8858 -0.5924
29739SOL    HW299532   8.856   6.595   5.796  0.6023  0.2932  0.4175
29740SOL     OW99533   3.880   5.207   4.403 -0.2505 -0.9677 -0.0768
29740SOL    HW199534   3.816   5.159   4.351 -0.9601  0.5563 -0.6779
29740SOL    HW299535   3.940   5.245   4.339 -0.4168 -0.0752  0.2778
29741SOL     OW99536   1.988  11.776   4.093  0.2444  0.7063 -0.5509
29741SOL    HW199537   1.962  11.743   4.007  1.5431 -1.2120 -0.2659
29741SOL    HW299538   1.962  11.707   4.154  0.3108  1.5680  0.4775
29742SOL     OW99539   5.307   2.954   8.719 -0.1050  0.9180 -0.4381
29742SOL    HW199540   5.384   2.916   8.761 -1.0666 -0.5216  0.1093
29742SOL    HW299541   5.341   3.027   8.668  1.6411  0.2161 -0.3531
29743SOL     OW99542  10.177   5.632   0.711 -0.2550  0.2204 -0.3592
29743SOL    HW199543  10.111   5.567   0.686 -3.3295  2.9225  0.0770
29743SOL    HW299544  10.165   5.705   0.650  1.6282  1.2922  0.4400
29744SOL     OW99545   7.302   4.296   6.029  0.0491 -0.0297  0.3198
29744SOL    HW199546   7.351   4.351   6.091  0.5393 -0.6020  0.4466
29744SOL    HW299547   7.316   4.206   6.060  0.6205 -0.3563 -0.8500
29745SOL     OW99548   7.886   6.143   4.009 -0.0859  0.4160 -0.0020
29745SOL    HW199549   7.844   6.153   3.924  0.3658  1.1856 -0.1391
29745SOL    HW299550   7.910   6.232   4.035  1.2495  0.0293  0.1781
29746SOL     OW99551  11.267  12.015  10.173 -0.0732  0.5456 -0.3903
29746SOL    HW199552  11.277  11.962  10.094  0.6001  1.9649 -1.3026
29746SOL    HW299553  11.279  11.953  10.245 -1.2198 -0.8856 -1.3645
29747SOL     OW99554   0.962   3.126   9.168  0.0294  0.0494 -0.2473
29747SOL    HW199555   1.024   3.117   9.240  2.1670 -0.4096 -2.0343
29747SOL    HW299556   0.994   3.202   9.118 -1.3984  0.3618 -0.7505
29748SOL     OW99557  10.202  10.007   3.406  0.0423 -0.1498 -0.2032
29748SOL    HW199558  10.138   9.990   3.475  0.5061  0.8901  0.5089
29748SOL    HW299559  10.156   9.988   3.325 -0.8795 -0.2753  0.3367
29749SOL     OW99560   3.607  10.867   8.639 -0.1515  0.0257 -0.2009
29749SOL    HW199561   3.592  10.898   8.728  1.2151  0.6293 -0.1535
29749SOL    HW299562   3.700  10.845   8.637 -0.4247 -1.1503 -1.1333
29750SOL     OW99563   3.237   7.450   3.876  0.4345 -0.0689 -0.4369
29750SOL    HW199564   3.203   7.406   3.954 -0.5227  0.7233 -0.3845
29750SOL    HW299565   3.172   7.431   3.808 -0.1395  1.4313 -0.3490
29751SOL     OW99566   3.795   2.748   2.402 -0.1068 -0.4564 -0.0886
29751SOL    HW199567   3.837   2.761   2.488  1.6776  1.3322 -1.1399
29751SOL    HW299568   3.855   2.789   2.340 -1.9176 -0.6838 -2.0912
29752SOL     OW99569   0.799   0.355  10.733 -0.2376 -0.6595 -0.5188
29752SOL    HW199570   0.833   0.443  10.748 -0.6750 -0.6316  0.3829
29752SOL    HW299571   0.875   0.305  10.701  0.0691 -0.0219 -0.8055
29753SOL     OW99572   5.916   0.758   5.781 -0.6014 -0.2947 -0.6597
29753SOL    HW199573   5.996   0.762   5.729  0.6966 -2.6829  0.9736
29753SOL    HW299574   5.884   0.669   5.770 -0.9884 -0.4938  1.5357
29754SOL     OW99575   0.306   3.823   4.310  0.0986  0.5734  0.3032
29754SOL    HW199576   0.228   3.819   4.366 -0.3385 -0.1459 -0.3295
29754SOL    HW299577   0.279   3.875   4.235 -0.8175 -2.1358 -1.4072
29755SOL     OW99578   7.627   4.646   5.592  0.2387  0.0136 -0.4064
29755SOL    HW199579   7.603   4.729   5.634 -0.8316  0.1074 -1.1498
29755SOL    HW299580   7.543   4.607   5.567  0.7895 -0.5678 -1.4089
29756SOL     OW99581   8.218   3.734   2.138 -0.5261 -0.3547 -0.4448
29756SOL    HW199582   8.234   3.689   2.221  0.9009  2.4762  0.9606
29756SOL    HW299583   8.286   3.700   2.079 -1.1214 -1.8808 -0.3068
29757SOL     OW99584  12.389   1.095   7.622  0.0317 -0.0115  0.3379
29757SOL    HW199585  12.482   1.113   7.636  0.6832 -0.6956 -2.5015
29757SOL    HW299586  12.356   1.171   7.573  0.2539 -1.6016 -2.4849
29758SOL     OW99587   0.053   7.839   0.874  0.1961  0.6464  0.1209
29758SOL    HW199588   0.129   7.782   0.866  0.8048  0.8273  3.1942
29758SOL    HW299589   0.065   7.905   0.805  1.5286 -0.6637 -0.9677
29759SOL     OW99590   3.153   7.685   7.060  0.4640  0.2485 -0.3868
29759SOL    HW199591   3.122   7.620   7.123  1.1307  2.1165  1.9843
29759SOL    HW299592   3.247   7.692   7.075  1.3361 -1.4918 -3.8570
29760SOL     OW99593   7.166   0.511  11.446 -0.2904  0.4364  0.5700
29760SOL    HW199594   7.243   0.543  11.399  0.7830 -0.6096  1.5608
29760SOL    HW299595   7.148   0.579  11.511 -0.1548  0.6474  0.3889
29761SOL     OW99596   2.637   0.031   5.538 -0.2083  0.1444 -0.2885
29761SOL    HW199597   2.717   0.009   5.491  2.0679  2.6521  2.0434
29761SOL    HW299598   2.588   0.086   5.477 -0.1715 -1.3053 -1.6949
29762SOL     OW99599  11.993   2.914   5.246 -0.2578 -0.1009 -0.3473
29762SOL    HW199600  12.087   2.910   5.226  0.1784  2.0512  0.9940
29762SOL    HW299601  11.984   2.861   5.325  0.0654  0.6789  0.2219
29763SOL     OW99602   1.870   8.700   0.016  0.4433 -0.0021 -0.3244
29763SOL    HW199603   1.864   8.664  -0.072  0.2129  0.0956 -0.3496
29763SOL    HW299604   1.944   8.761   0.011 -0.2770  0.8596 -0.7613
29764SOL     OW99605   4.417   5.141   6.272  0.2512  0.2390 -0.8472
29764SOL    HW199606   4.428   5.212   6.335 -0.0468  0.1515 -0.6938
29764SOL    HW299607   4.336   5.097   6.299  1.4370 -1.3933  0.3140
29765SOL     OW99608   8.284   9.794  10.736 -0.2548  0.1411  0.1217
29765SOL    HW199609   8.340   9.726  10.698  2.4633  1.2035  1.9341
29765SOL    HW299610   8.255   9.757  10.819  0.9997  1.0266  0.9804
29766SOL     OW99611   8.903  10.610   0.220 -0.0678  0.0858 -0.4550
29766SOL    HW199612   8.998  10.620   0.209 -0.3129  1.3356 -1.7069
29766SOL    HW299613   8.867  10.697   0.202 -1.6044 -0.7953 -1.8843
29767SOL     OW99614   6.074   8.233   7.502 -0.2779  0.0482  0.7964
29767SOL    HW199615   5.990   8.188   7.513  0.0274 -1.5481 -2.2524
29767SOL    HW299616   6.138   8.162   7.492  0.7356  1.1551 -1.0603
29768SOL     OW99617  12.630   1.929  12.568 -0.4007  0.0384  0.0102
29768SOL    HW199618  12.680   1.876  12.631 -0.1707 -1.3275 -1.2751
29768SOL    HW299619  12.674   1.913  12.484  0.1265  2.8531 -0.3322
29769SOL     OW99620   9.822   3.818   4.069  0.3351  0.4980  0.9383
29769SOL    HW199621   9.904   3.863   4.049  2.3379 -1.7488  3.3759
29769SOL    HW299622   9.820   3.745   4.007 -0.8201  1.5253 -0.2957
29770SOL     OW99623   7.802   1.310   4.622 -0.6046  0.5133 -0.6287
29770SOL    HW199624   7.738   1.371   4.661  0.7331  1.4858  0.1166
29770SOL    HW299625   7.886   1.337   4.658  0.1951 -1.0363 -1.2370
29771SOL     OW99626  12.404   7.277   0.709 -0.0356 -0.3788 -0.1190
29771SOL    HW199627  12.389   7.183   0.700  0.5327 -0.4002 -0.9818
29771SOL    HW299628  12.494   7.284   0.742  0.3250 -0.1224 -1.1199
29772SOL     OW99629   7.472  10.983   1.960 -0.4102  0.2371  0.0831
29772SOL    HW199630   7.536  11.048   1.931 -0.1654 -0.5258 -1.1440
29772SOL    HW299631   7.525  10.907   1.983 -0.8746 -0.7132 -1.7713
29773SOL     OW99632   1.808   8.003   9.815 -0.0444 -0.1468 -0.1113
29773SOL    HW199633   1.723   8.047   9.821 -0.3721 -0.9334  1.5039
29773SOL    HW299634   1.868   8.060   9.863  0.0050 -0.3666  0.0882
29774SOL     OW99635  10.586  11.292   9.791  0.2385 -0.5903  0.0663
29774SOL    HW199636  10.543  11.299   9.706  1.1805 -1.7185 -0.5484
29774SOL    HW299637  10.628  11.377   9.804  1.1639 -0.8253 -1.2238
29775SOL     OW99638   1.680   1.159  10.307 -0.4256 -1.2062 -0.1584
29775SOL    HW199639   1.712   1.080  10.352  0.6201 -0.1915  0.9412
29775SOL    HW299640   1.707   1.146  10.216  0.4003 -1.7942  0.1467
29776SOL     OW99641   0.674   0.725   0.547 -0.3043  0.3113  0.1910
29776SOL    HW199642   0.756   0.725   0.596 -0.5958 -1.1668  0.7415
29776SOL    HW299643   0.608   0.755   0.610 -0.4334 -0.0682  0.2390
29777SOL     OW99644   7.649  11.738   8.114 -0.3841 -0.6844  0.3007
29777SOL    HW199645   7.723  11.678   8.106  0.6057  0.5031  0.2886
29777SOL    HW299646   7.655  11.772   8.203  0.5250  1.1853 -0.4192
29778SOL     OW99647   0.386  12.565   1.949 -0.7307  0.3941  0.1812
29778SOL    HW199648   0.388  12.528   2.037  1.4999  1.7728  0.7730
29778SOL    HW299649   0.338  12.500   1.897  0.5819 -1.9653  1.7271
29779SOL     OW99650   8.181   8.410   8.832  0.1912  0.1094 -0.4052
29779SOL    HW199651   8.195   8.330   8.781  0.6942 -1.2308  1.7005
29779SOL    HW299652   8.269   8.447   8.842  0.3309 -0.4911  0.7532
29780SOL     OW99653   9.641   2.212   1.914  0.2974  0.0398  0.1851
29780SOL    HW199654   9.579   2.278   1.943 -0.1271 -1.6577  3.5775
29780SOL    HW299655   9.727   2.254   1.922 -0.1102  1.2302 -1.1351
29781SOL     OW99656   2.738  11.592   6.921 -0.2876  0.3351 -0.3760
29781SOL    HW199657   2.673  11.522   6.925  1.2657 -1.1263  0.9283
29781SOL    HW299658   2.690  11.671   6.945 -1.0301 -1.1737  4.0602
29782SOL     OW99659  11.485   9.162   6.072  0.5741  0.1837 -0.1453
29782SOL    HW199660  11.535   9.089   6.109 -2.2049 -1.5404  0.4866
29782SOL    HW299661  11.454   9.210   6.149  0.6864  0.8556 -0.5095
29783SOL     OW99662   3.631   3.991   6.726 -0.2021  0.1434  0.2852
29783SOL    HW199663   3.565   4.014   6.660  0.7470  0.3447 -0.6273
29783SOL    HW299664   3.705   4.049   6.706  0.1293  0.1603  1.5010
29784SOL     OW99665   0.093  10.904   1.063 -0.6546 -0.0647  0.2758
29784SOL    HW199666   0.107  10.856   1.145 -0.3042 -0.5113 -0.0427
29784SOL    HW299667   0.172  10.887   1.011 -1.3146 -0.6240 -0.5670
29785SOL     OW99668   0.932   8.634   9.590 -0.0236 -0.0813 -0.4201
29785SOL    HW199669   0.889   8.619   9.674 -0.7854 -0.0463 -0.8003
29785SOL    HW299670   1.026   8.637   9.612 -0.2243  0.1540  0.4556
29786SOL     OW99671   3.586  11.974   3.247 -0.0118 -0.0567  0.5042
29786SOL    HW199672   3.673  12.012   3.232  0.6358 -1.1228  1.3851
29786SOL    HW299673   3.553  12.020   3.325  0.1921 -0.3453  0.7626
29787SOL     OW99674   0.133   9.595  10.506  0.2895  0.1141  0.5955
29787SOL    HW199675   0.077   9.668  10.478  0.2697 -0.1846 -0.1724
29787SOL    HW299676   0.221   9.619  10.476  0.1307 -0.5833 -0.4898
29788SOL     OW99677   2.296  12.310   6.613  0.0877 -0.0311  0.0794
29788SOL    HW199678   2.272  12.398   6.640 -2.3239 -0.7514  0.4966
29788SOL    HW299679   2.334  12.270   6.692 -0.1511  0.1848  0.3037
29789SOL     OW99680   8.588  10.137   3.108  0.5453  0.3254  0.2961
29789SOL    HW199681   8.505  10.152   3.153  0.4773 -2.6001  1.3633
29789SOL    HW299682   8.566  10.082   3.033  1.5279 -1.0605  0.9732
29790SOL     OW99683   2.916   8.563   7.545 -1.1278 -0.1796  0.2637
29790SOL    HW199684   2.926   8.646   7.499 -1.0030 -1.3393 -1.9447
29790SOL    HW299685   2.944   8.581   7.635 -0.9389  2.0912 -0.2050
29791SOL     OW99686  10.513   6.875   7.187 -0.1094 -0.1551  0.0169
29791SOL    HW199687  10.571   6.799   7.193  1.3411  0.9455  0.2380
29791SOL    HW299688  10.512   6.912   7.275 -0.4300  0.3612 -0.1989
29792SOL     OW99689   7.806   9.545  10.914  0.4833 -0.4907 -0.5602
29792SOL    HW199690   7.724   9.573  10.954  0.0241 -2.7287  0.2002
29792SOL    HW299691   7.785   9.534  10.821 -0.2182 -1.4593 -0.2984
29793SOL     OW99692   5.185   1.462   8.687  0.2262 -0.1357 -0.2208
29793SOL    HW199693   5.176   1.413   8.605  0.3789 -1.7135  0.6695
29793SOL    HW299694   5.227   1.401   8.747  1.0228  1.3301  0.7640
29794SOL     OW99695   3.427  11.068   3.255 -0.7589 -0.2533  0.0682
29794SOL    HW199696   3.499  11.010   3.229  1.9493  1.8224  2.1870
29794SOL    HW299697   3.348  11.022   3.230  1.2759 -2.9979 -1.9087
29795SOL     OW99698   1.531   3.278   2.850  0.4364  0.1045  0.0604
29795SOL    HW199699   1.454   3.306   2.900  0.6794  0.7934  0.0600
29795SOL    HW299700   1.599   3.264   2.916  0.0598 -1.4009  0.1503
29796SOL     OW99701   8.488  11.720  12.000 -1.4465  0.5118 -0.2820
29796SOL    HW199702   8.491  11.654  11.931  0.2653  0.8741 -0.6162
29796SOL    HW299703   8.493  11.671  12.082  3.7123  0.0894 -0.4860
29797SOL     OW99704  10.393   9.889  12.450 -0.1327  0.3072 -0.3169
29797SOL    HW199705  10.413   9.854  12.537 -0.6610  1.6733  0.3789
29797SOL    HW299706  10.443   9.833  12.390  1.4603  0.2732  0.9646
29798SOL     OW99707   7.214   4.163   8.986 -0.0507 -0.0704 -0.1647
29798SOL    HW199708   7.285   4.122   8.936 -0.6011 -1.8588  0.4419
29798SOL    HW299709   7.239   4.255   8.991  2.7142 -0.7788  0.8478
29799SOL     OW99710   0.933  10.004  11.856  0.0956  0.3974 -0.1111
29799SOL    HW199711   0.928   9.945  11.931  1.2239  1.2715  0.6968
29799SOL    HW299712   1.018   9.985  11.816 -0.0882  0.5972 -0.6169
29800SOL     OW99713   1.762   4.461   3.090 -0.6050 -0.1128 -0.2827
29800SOL    HW199714   1.816   4.540   3.093 -0.9100  0.0715  0.4830
29800SOL    HW299715   1.807   4.404   3.028  1.4010 -0.6523  1.5435
29801SOL     OW99716  12.051   3.849  11.445  0.1760 -0.5974  0.7666
29801SOL    HW199717  12.005   3.851  11.529 -1.3812 -0.9086 -0.0476
29801SOL    HW299718  12.043   3.759  11.415 -0.4577 -0.1926 -0.3306
29802SOL     OW99719   9.190   7.142   0.494 -0.5148 -0.1625 -0.0579
29802SOL    HW199720   9.188   7.138   0.399 -0.7610 -0.7468 -0.0327
29802SOL    HW299721   9.098   7.139   0.520 -0.4807  0.6396  0.1792
29803SOL     OW99722   2.417   8.795  10.314 -0.3115  0.3058  0.3235
29803SOL    HW199723   2.417   8.728  10.245  1.0494  1.5312 -0.9397
29803SOL    HW299724   2.374   8.871  10.274 -0.9191  0.5304  1.3713
29804SOL     OW99725   1.316   9.579   9.921 -0.0288 -0.1928 -0.3983
29804SOL    HW199726   1.390   9.624   9.881  1.0051 -1.2996  0.1852
29804SOL    HW299727   1.334   9.486   9.907 -1.5984 -0.4740 -0.7185
29805SOL     OW99728   7.192   7.657   7.542  0.2885 -0.3319 -0.2269
29805SOL    HW199729   7.180   7.681   7.450 -2.1271  1.9335  0.5460
29805SOL    HW299730   7.128   7.587   7.556 -2.5535  2.1624  0.5434
29806SOL     OW99731   3.334   7.033   6.712  0.0005 -0.2675 -0.1817
29806SOL    HW199732   3.339   7.027   6.807  0.6971  4.1660  0.3026
29806SOL    HW299733   3.425   7.027   6.683 -0.0773 -0.2949 -0.4251
29807SOL     OW99734   8.714   0.403   8.929 -0.2341  0.4502 -0.4822
29807SOL    HW199735   8.675   0.369   9.010  3.6289 -0.0686  1.3834
29807SOL    HW299736   8.740   0.325   8.880 -0.5378  0.7815 -1.1871
29808SOL     OW99737   0.833   9.981   9.956 -0.0963  0.2433  0.3925
29808SOL    HW199738   0.778  10.010  10.029 -1.7396  1.0012 -1.0678
29808SOL    HW299739   0.777   9.920   9.908  0.9278 -0.1701 -0.3031
29809SOL     OW99740   8.403   4.807   1.781 -0.4449 -1.1426 -0.1985
29809SOL    HW199741   8.344   4.755   1.836 -0.4342 -1.5077 -0.5298
29809SOL    HW299742   8.397   4.767   1.694 -0.7333 -0.3485 -0.5490
29810SOL     OW99743   1.364   3.876  12.573 -0.2425  0.4576  0.1070
29810SOL    HW199744   1.356   3.961  12.617 -1.2280  0.4077  0.0528
29810SOL    HW299745   1.366   3.897  12.480  0.6603  0.4864  0.1249
29811SOL     OW99746   2.726   9.086   7.710  0.4129 -0.3952  0.0339
29811SOL    HW199747   2.735   9.106   7.617  2.3902  0.2616  0.3108
29811SOL    HW299748   2.649   9.136   7.738 -1.2971 -2.0209 -1.5716
29812SOL     OW99749   7.851   2.193   3.947 -0.0336  0.1009  0.0606
29812SOL    HW199750   7.843   2.168   3.855 -0.8654  1.1404 -0.1731
29812SOL    HW299751   7.767   2.167   3.985  0.1039  0.1636  0.4072
29813SOL     OW99752  12.345   5.892   9.704  0.1518  0.5931  0.2101
29813SOL    HW199753  12.396   5.811   9.707  1.7183  1.5282  0.2178
29813SOL    HW299754  12.314   5.904   9.794  0.4717  0.3277  0.3595
29814SOL     OW99755   3.935   6.333  11.060  0.2642 -0.1743  0.0909
29814SOL    HW199756   3.911   6.311  11.150  0.5576 -1.9760 -0.2381
29814SOL    HW299757   3.953   6.427  11.063 -0.2976 -0.0766  1.7751
29815SOL     OW99758   5.995   1.173  11.160 -0.1074 -0.5696  0.5635
29815SOL    HW199759   6.072   1.118  11.145 -0.1132 -0.4298  0.0094
29815SOL    HW299760   5.967   1.151  11.249  0.3481 -0.8951  0.6303
29816SOL     OW99761  12.735   6.193   9.414 -0.1808  0.1794  0.2926
29816SOL    HW199762  12.656   6.217   9.365  0.2889  1.8389  0.2976
29816SOL    HW299763  12.711   6.209   9.505 -0.4516 -1.1652  0.4767
29817SOL     OW99764   4.040   1.922  10.085  0.2277 -0.2943 -0.7065
29817SOL    HW199765   4.096   1.994  10.055 -1.5472  1.2824 -0.4341
29817SOL    HW299766   3.951   1.956  10.077 -0.6341 -2.1855  0.2277
29818SOL     OW99767   2.542   6.731   7.423 -0.3846  0.5731  0.6353
29818SOL    HW199768   2.537   6.653   7.478  2.0088  0.3963  0.6709
29818SOL    HW299769   2.566   6.802   7.483  0.9574  0.6255  0.0718
29819SOL     OW99770   6.967  12.793   2.134 -0.2319 -0.0688  0.1156
29819SOL    HW199771   6.893  12.852   2.148  0.0332  0.7352 -1.6082
29819SOL    HW299772   7.040  12.834   2.181 -0.1784  0.7293 -0.6397
29820SOL     OW99773  12.211  10.184  11.158  0.5759  0.2016  0.1483
29820SOL    HW199774  12.179  10.117  11.219 -1.0286 -1.5178 -2.4057
29820SOL    HW299775  12.302  10.162  11.143  0.8780  0.4056  1.5680
29821SOL     OW99776  12.118   7.269  10.851  0.1782  0.4710 -0.4089
29821SOL    HW199777  12.193   7.315  10.812 -0.7837  0.8405 -1.9198
29821SOL    HW299778  12.066   7.240  10.776 -1.2334  0.2883  0.5978
29822SOL     OW99779   9.573   5.744   7.182 -0.3716 -0.3180 -0.0438
29822SOL    HW199780   9.650   5.787   7.145 -1.0080 -0.1992 -1.2999
29822SOL    HW299781   9.515   5.732   7.107 -2.1283  0.7815  1.0669
29823SOL     OW99782   4.054   4.019   4.817  0.0164  0.1655 -0.3533
29823SOL    HW199783   4.058   3.931   4.781 -0.4954 -0.2746  0.6270
29823SOL    HW299784   3.977   4.019   4.874  0.2906  1.0926  0.0466
29824SOL     OW99785   3.713  10.834  10.430 -0.3545  0.3343 -0.3456
29824SOL    HW199786   3.778  10.772  10.462 -0.3895  1.0875  1.2685
29824SOL    HW299787   3.629  10.790  10.445 -0.4046  0.9078  1.2070
29825SOL     OW99788   5.536  11.650   2.958 -0.6568 -0.5896 -0.6757
29825SOL    HW199789   5.607  11.687   2.905  2.3969  0.2793  3.5087
29825SOL    HW299790   5.567  11.563   2.983 -0.1791  0.3815  2.4725
29826SOL     OW99791   4.650   0.050   3.742 -0.0444  0.0117 -0.4343
29826SOL    HW199792   4.584   0.063   3.810  0.1700  0.8146 -0.3714
29826SOL    HW299793   4.692   0.136   3.732  1.2133 -0.5494 -0.2345
29827SOL     OW99794   5.318  11.254   1.849  0.2170 -0.0765 -0.6780
29827SOL    HW199795   5.243  11.301   1.887  0.1307  0.1991 -1.1833
29827SOL    HW299796   5.279  11.184   1.796  0.1978  1.5096 -2.8950
29828SOL     OW99797   4.896  10.752   6.343  0.0791  0.2018  0.1462
29828SOL    HW199798   4.857  10.711   6.420 -0.6080 -0.0905 -0.3509
29828SOL    HW299799   4.831  10.816   6.313  0.0891 -0.0920 -0.5261
29829SOL     OW99800   5.049   8.176  12.405 -0.0338  0.1883  0.2575
29829SOL    HW199801   5.016   8.164  12.315 -1.3421  1.4354  0.5185
29829SOL    HW299802   4.970   8.194  12.456  0.8028  0.5117  1.4668
29830SOL     OW99803  11.997   4.047   8.489  0.5125  0.1664  0.1081
29830SOL    HW199804  12.049   4.115   8.531 -0.9985  2.1442 -1.0397
29830SOL    HW299805  11.934   4.095   8.436 -0.7228 -2.1634 -0.6558
29831SOL     OW99806   3.480   7.237   9.288  0.1363 -0.1746 -0.1526
29831SOL    HW199807   3.510   7.159   9.334 -1.1648 -0.3914  0.3672
29831SOL    HW299808   3.405   7.208   9.237  1.2331  0.1806 -2.0756
29832SOL     OW99809  12.457  10.548   9.600 -0.1400  0.2033  0.6853
29832SOL    HW199810  12.462  10.603   9.678 -1.0746  1.4848 -0.1260
29832SOL    HW299811  12.409  10.600   9.536  1.1318 -0.5774 -0.9807
29833SOL     OW99812   7.977   3.703   6.668  0.0820  0.1536  0.0710
29833SOL    HW199813   8.066   3.672   6.656  0.7618  1.7454  0.7788
29833SOL    HW299814   7.929   3.627   6.701  1.6180 -0.2194  1.5236
29834SOL     OW99815   8.087  11.255  12.770  0.2502  0.2056 -0.1824
29834SOL    HW199816   8.016  11.218  12.718 -0.6943  0.8167  0.6277
29834SOL    HW299817   8.078  11.350  12.758 -1.5518  0.5846  2.9046
29835SOL     OW99818   9.112   6.845   8.879  0.0985 -0.3866  0.5091
29835SOL    HW199819   9.198   6.815   8.912 -0.1116 -0.1667  1.2835
29835SOL    HW299820   9.056   6.768   8.887 -0.1046 -0.1693  1.2473
29836SOL     OW99821  10.741   3.354   7.015 -0.5479  0.0211 -0.0652
29836SOL    HW199822  10.752   3.286   7.081 -1.0139 -2.0458 -1.9838
29836SOL    HW299823  10.767   3.312   6.933 -1.9154  1.8128 -1.5064
29837SOL     OW99824   1.976   1.119   6.094  0.3291  0.5967 -0.6889
29837SOL    HW199825   1.984   1.196   6.038  2.0189  1.3949  0.5503
29837SOL    HW299826   1.884   1.120   6.122 -1.0639 -0.7814 -4.5934
29838SOL     OW99827   9.222   7.346   1.508 -0.3369  0.2282 -0.1891
29838SOL    HW199828   9.238   7.360   1.602  2.6488 -0.6586 -0.4449
29838SOL    HW299829   9.251   7.427   1.467 -1.7977  0.6797 -0.3924
29839SOL     OW99830   8.980   7.153   7.392 -0.0296 -0.1005 -0.2738
29839SOL    HW199831   8.898   7.104   7.404 -0.6930  0.9205 -0.5040
29839SOL    HW299832   8.967   7.201   7.310  0.8206  0.0467 -0.3302
29840SOL     OW99833   1.420  11.936  12.099 -0.0476 -0.2222  0.1661
29840SOL    HW199834   1.388  11.957  12.187 -2.6781 -0.3297 -0.6840
29840SOL    HW299835   1.509  11.973  12.097 -0.2906  0.6879  2.5047
29841SOL     OW99836   4.956  11.219   9.441  0.2058 -0.1597 -0.2263
29841SOL    HW199837   4.993  11.209   9.353 -0.5006  0.0616 -0.5555
29841SOL    HW299838   4.958  11.313   9.457  0.4042 -0.2058  0.0362
29842SOL     OW99839   2.192   2.367  10.653 -0.2338  0.1570 -0.4179
29842SOL    HW199840   2.168   2.276  10.634 -1.2521  0.6668 -1.7738
29842SOL    HW299841   2.154   2.417  10.580  2.2430  1.4330 -0.9428
29843SOL     OW99842  11.701  11.353  12.105 -0.3732  0.0337  0.2688
29843SOL    HW199843  11.663  11.386  12.024 -0.4065  0.4237  0.4411
29843SOL    HW299844  11.640  11.382  12.173  1.0754  2.1537  0.7466
29844SOL     OW99845   9.832   6.552   4.335 -0.3664 -0.0234  0.5888
29844SOL    HW199846   9.875   6.556   4.249  0.2698 -1.5338  0.8068
29844SOL    HW299847   9.866   6.628   4.381 -0.7268  0.8228 -0.4810
29845SOL     OW99848   1.982  10.454   2.787 -0.3397 -0.3504 -0.7147
29845SOL    HW199849   1.962  10.489   2.700  1.6344 -0.9511 -1.4562
29845SOL    HW299850   2.050  10.388   2.771  0.9370  0.3757  1.4169
29846SOL     OW99851   4.049   9.955   7.173  0.5837  0.0095  0.2927
29846SOL    HW199852   4.011  10.014   7.107 -0.0392 -0.1825  0.4730
29846SOL    HW299853   4.103   9.895   7.121 -0.1127 -0.3075 -0.0842
29847SOL     OW99854   8.610   9.262  10.437 -0.2359 -0.2044  0.0144
29847SOL    HW199855   8.599   9.247  10.344  0.2416  0.5059 -0.1651
29847SOL    HW299856   8.684   9.324  10.443  0.5510 -1.1901  0.9127
29848SOL     OW99857   2.731  11.464   7.239  0.1046  0.4097  0.0976
29848SOL    HW199858   2.725  11.395   7.173  0.1354  0.2042  0.3114
29848SOL    HW299859   2.825  11.472   7.257  0.0916  0.4275  0.1577
29849SOL     OW99860  12.316   9.544   6.554  0.1686 -0.1083  0.1556
29849SOL    HW199861  12.263   9.613   6.514  0.7993  0.0049 -0.5094
29849SOL    HW299862  12.283   9.463   6.515  1.2368  0.0517 -1.1820
29850SOL     OW99863   4.880   0.556   1.428  0.0494  0.0996 -0.2386
29850SOL    HW199864   4.795   0.597   1.442  0.8790  1.6354  0.5742
29850SOL    HW299865   4.900   0.514   1.512 -0.2199 -0.8972 -0.6622
29851SOL     OW99866   5.797   7.221  10.865 -0.3719  0.3984  0.0256
29851SOL    HW199867   5.847   7.150  10.905  1.7016  1.2093 -1.0136
29851SOL    HW299868   5.787   7.286  10.934  0.8157  0.6084  0.0198
29852SOL     OW99869   9.183  12.183   2.406  0.6527 -0.0340  0.0457
29852SOL    HW199870   9.125  12.172   2.481 -0.7112 -0.5855 -1.0424
29852SOL    HW299871   9.264  12.138   2.432 -0.6566 -2.4596  0.2764
29853SOL     OW99872   3.877   6.420  12.423 -0.3022  0.0399  0.2111
29853SOL    HW199873   3.803   6.359  12.432  0.3602 -0.9303 -0.6363
29853SOL    HW299874   3.866   6.457  12.335 -0.0047  0.1912  0.2381
29854SOL     OW99875   3.867   8.931   9.237 -0.5164  0.5396 -0.4410
29854SOL    HW199876   3.925   8.943   9.161 -0.6953  4.2170 -0.1874
29854SOL    HW299877   3.791   8.986   9.217 -2.1003 -1.0321  1.0107
29855SOL     OW99878   9.590   0.329   5.124  0.4068  0.4443  0.7972
29855SOL    HW199879   9.578   0.415   5.165  1.9738  0.8041  0.5799
29855SOL    HW299880   9.546   0.337   5.039  0.4754  1.0200  0.8064
29856SOL     OW99881   1.774   1.749  10.482 -0.1473 -0.1436 -0.5800
29856SOL    HW199882   1.867   1.745  10.459  0.0589  0.8867  0.0259
29856SOL    HW299883   1.772   1.795  10.565 -1.1305 -1.1339 -0.0314
29857SOL     OW99884   9.571   6.426   4.302  0.0356 -0.2617 -0.3271
29857SOL    HW199885   9.598   6.508   4.261  0.6497  1.1897  2.7324
29857SOL    HW299886   9.489   6.404   4.259 -1.1143  2.9665 -0.0531
29858SOL     OW99887   1.352   8.563  10.727 -0.1822  0.4434  0.0303
29858SOL    HW199888   1.353   8.616  10.807 -0.0135 -0.4062  0.6045
29858SOL    HW299889   1.277   8.505  10.737 -0.0568  0.2137 -0.3484
29859SOL     OW99890   1.501   0.984   3.907 -0.1733  0.0888 -0.1031
29859SOL    HW199891   1.512   0.945   3.993 -0.5371  1.2035  0.4722
29859SOL    HW299892   1.589   1.015   3.883  0.1169 -1.0447 -0.5647
29860SOL     OW99893   6.635   9.052  11.701  0.2361 -0.3649 -0.6408
29860SOL    HW199894   6.555   9.091  11.666 -0.0320  0.6242  0.9592
29860SOL    HW299895   6.606   8.967  11.736 -0.2698  0.2119  0.4104
29861SOL     OW99896   7.873   4.683   5.508 -0.0608 -0.0999 -0.4896
29861SOL    HW199897   7.789   4.662   5.549  0.0225 -1.0593 -0.7991
29861SOL    HW299898   7.920   4.734   5.575 -0.4373 -0.5506  0.1295
29862SOL     OW99899   1.312   7.212   4.140  0.0923 -0.8791 -0.1889
29862SOL    HW199900   1.301   7.299   4.179  0.2693 -1.3869  1.0670
29862SOL    HW299901   1.398   7.216   4.097  0.0824 -0.4233 -0.1764
29863SOL     OW99902   6.691   5.596   5.106 -0.8602 -0.4560 -0.2186
29863SOL    HW199903   6.720   5.675   5.152 -2.5216 -0.0362  0.1980
29863SOL    HW299904   6.698   5.527   5.171 -1.6855 -0.1656  0.1991
29864SOL     OW99905   1.732  12.659   0.268  0.7212 -0.0957  0.3711
29864SOL    HW199906   1.649  12.706   0.265  0.6465 -0.2059  0.7564
29864SOL    HW299907   1.775  12.691   0.347  1.7151  1.1045 -0.6066
29865SOL     OW99908   9.770   9.807   2.991  0.7105 -0.4406  0.0594
29865SOL    HW199909   9.782   9.778   3.082  1.0183  0.9419  0.4820
29865SOL    HW299910   9.742   9.898   2.999 -2.9975 -1.3198 -1.1240
29866SOL     OW99911  11.269   1.069  11.462 -0.4789 -0.3264  0.3817
29866SOL    HW199912  11.329   1.009  11.506  0.2473 -0.4090 -0.6700
29866SOL    HW299913  11.312   1.088  11.379 -1.5853  0.1818 -0.0930
29867SOL     OW99914   9.826   9.120  11.890  0.3340 -0.4952 -0.3936
29867SOL    HW199915   9.796   9.117  11.981 -0.2951 -0.7876 -0.6032
29867SOL    HW299916   9.880   9.198  11.886  0.2917 -0.4241  0.2114
29868SOL     OW99917   2.638  10.644   6.138  0.0682  0.0793  0.1054
29868SOL    HW199918   2.669  10.733   6.155  0.3495 -0.2705  1.6041
29868SOL    HW299919   2.543  10.651   6.141  0.0918  0.1661  1.3549
29869SOL     OW99920   3.156   2.184   4.729 -0.6341  0.1103  0.1063
29869SOL    HW199921   3.230   2.136   4.766  0.8416  1.4454 -0.9734
29869SOL    HW299922   3.101   2.116   4.689 -0.0788 -0.9240  1.0464
29870SOL     OW99923   2.045   0.327   8.149  0.2436  0.3329  0.4903
29870SOL    HW199924   2.001   0.272   8.084  0.8689  0.9677 -0.4941
29870SOL    HW299925   2.132   0.289   8.157  0.6475  1.0961 -0.1214
29871SOL     OW99926  10.662   3.257   4.936  0.0631 -0.6405  0.2596
29871SOL    HW199927  10.634   3.168   4.918  0.0400 -0.7768  0.9685
29871SOL    HW299928  10.754   3.250   4.957  0.1302 -0.4560  0.0432
29872SOL     OW99929  11.353   0.386   0.397  0.1292  0.0830  0.4532
29872SOL    HW199930  11.449   0.381   0.401  0.1246  0.2723  0.8717
29872SOL    HW299931  11.329   0.331   0.322  0.6127  0.6444 -0.1187
29873SOL     OW99932   4.155   4.407  12.729 -0.0876 -0.4852 -0.5923
29873SOL    HW199933   4.071   4.360  12.724 -0.3712  0.0937 -1.4009
29873SOL    HW299934   4.219   4.344  12.695 -0.6197  0.0389 -2.6891
29874SOL     OW99935   2.231   5.066   4.748  0.0321  0.3382 -0.0510
29874SOL    HW199936   2.274   5.151   4.751  1.3716 -0.3333  0.2740
29874SOL    HW299937   2.264   5.025   4.668  0.0578 -0.2152  0.2383
29875SOL     OW99938   0.027   5.866   2.616 -0.2321 -0.0734  0.3760
29875SOL    HW199939   0.060   5.954   2.634 -1.1953  0.5063 -0.5521
29875SOL    HW299940   0.041   5.854   2.522  0.6594 -1.2718  0.6271
29876SOL     OW99941   9.307   7.314   9.022 -0.4313 -0.3524 -0.6518
29876SOL    HW199942   9.344   7.234   8.984  0.9673 -0.8506  1.5584
29876SOL    HW299943   9.347   7.385   8.971 -1.0387 -1.0083 -2.0905
29877SOL     OW99944  12.900  11.993   5.278 -0.6239 -0.3635 -0.2076
29877SOL    HW199945  12.881  11.953   5.193  0.5661 -0.2666 -0.5304
29877SOL    HW299946  12.993  12.016   5.274 -0.6367 -0.0368  0.9911
29878SOL     OW99947  12.157   1.478  10.815  0.3362  0.0096  0.6743
29878SOL    HW199948  12.161   1.460  10.908 -0.6609  0.1003  0.7552
29878SOL    HW299949  12.113   1.563  10.809  0.5669  0.0972  0.1333
29879SOL     OW99950   3.705  11.096   5.027  0.5246  0.7640  0.2348
29879SOL    HW199951   3.641  11.058   5.087 -0.8888  0.2405 -1.4878
29879SOL    HW299952   3.789  11.060   5.055  0.0037  0.9816  2.1966
29880SOL     OW99953   8.850   7.902   4.697 -0.0590  0.2530 -0.4694
29880SOL    HW199954   8.944   7.923   4.697 -0.4783  2.2843 -1.1125
29880SOL    HW299955   8.820   7.930   4.783 -0.1564 -0.0823 -0.3925
29881SOL     OW99956  12.491  10.634   4.806 -0.4640 -0.4784 -0.2065
29881SOL    HW199957  12.479  10.636   4.901  0.9265  0.7430 -0.0315
29881SOL    HW299958  12.481  10.542   4.783  1.9163 -1.2518  1.5132
29882SOL     OW99959   9.342  10.743   7.956 -0.7492 -0.2251  0.1120
29882SOL    HW199960   9.364  10.673   8.017 -0.6845 -0.8502 -0.6060
29882SOL    HW299961   9.359  10.705   7.869 -1.8124  0.2805 -0.3350
29883SOL     OW99962   2.451  11.863  10.306 -0.1933  0.2875 -0.0101
29883SOL    HW199963   2.514  11.802  10.267  0.1981  1.2314 -0.9281
29883SOL    HW299964   2.416  11.911  10.231 -2.5453 -0.6629  0.3975
29884SOL     OW99965   4.031   1.322   1.667 -0.5514 -0.0108 -0.3622
29884SOL    HW199966   4.082   1.257   1.714  0.4317  1.2462  0.3852
29884SOL    HW299967   4.008   1.280   1.584  0.9828 -0.9087 -0.3533
29885SOL     OW99968   3.541  10.849   9.277  0.4999  0.0913 -0.5768
29885SOL    HW199969   3.602  10.872   9.207 -1.2578  2.2348 -1.5587
29885SOL    HW299970   3.492  10.774   9.243 -0.0358  0.8372 -1.5026
29886SOL     OW99971   4.960   9.684   8.876  0.0369 -0.7292 -0.0558
29886SOL    HW199972   4.893   9.714   8.815  1.7254 -0.5901 -1.9223
29886SOL    HW299973   5.031   9.747   8.867  1.4068 -2.1984  0.0810
29887SOL     OW99974   1.312   5.046   9.480  0.6343 -0.0453 -0.1288
29887SOL    HW199975   1.245   4.978   9.486  0.6690  0.0946  3.6971
29887SOL    HW299976   1.394   5.002   9.499  0.7041  0.9027  2.0427
29888SOL     OW99977   4.153  12.578   1.519  0.1308  0.3912 -0.5147
29888SOL    HW199978   4.185  12.533   1.441  2.1150 -3.1942  2.0184
29888SOL    HW299979   4.217  12.648   1.534  0.6460  0.0965 -1.2623
29889SOL     OW99980   4.049  10.989  10.689 -0.2736  0.7798 -0.7325
29889SOL    HW199981   4.081  10.971  10.777 -1.1942  2.1260 -0.0904
29889SOL    HW299982   4.065  10.908  10.641  4.0832  1.2681 -0.5335
29890SOL     OW99983   6.660   1.364   4.210  0.3846  0.7844  0.3566
29890SOL    HW199984   6.726   1.377   4.143  0.9771  0.6513  0.9097
29890SOL    HW299985   6.588   1.319   4.165  0.2015  1.8789 -0.5045
29891SOL     OW99986  12.971  10.746   6.046 -0.5210  0.3315 -0.4630
29891SOL    HW199987  12.925  10.786   6.120  2.8865  1.0501  1.4831
29891SOL    HW299988  12.957  10.652   6.057 -2.5626  0.5637 -0.7643
29892SOL     OW99989   7.630   4.104   3.039  0.0022  0.6933 -0.0734
29892SOL    HW199990   7.682   4.029   3.069 -0.9085 -0.8297 -2.0446
29892SOL    HW299991   7.659   4.118   2.949 -1.7396  0.9540 -0.6211
29893SOL     OW99992   7.234  11.136  12.980 -0.5451  0.1695 -0.1141
29893SOL    HW199993   7.328  11.118  12.989 -0.4106  0.9707  0.2195
29893SOL    HW299994   7.227  11.231  12.991 -1.4055  0.1112 -0.0836
29894SOL     OW99995   1.163   2.018   3.487  0.5949 -0.5774  0.1398
29894SOL    HW199996   1.233   2.074   3.454  2.6084 -2.0770  1.6258
29894SOL    HW299997   1.132   2.062   3.566  0.8578 -0.6257  0.2690
29895SOL     OW99998   0.261   3.405   3.045 -0.1320 -0.4912  0.6923
29895SOL    HW199999   0.354   3.412   3.068 -0.4537  2.5853  1.5702
29895SOL    HW2    0   0.225   3.342   3.107  1.1189 -0.7154  1.2211
29896SOL     OW    1   3.828   4.863  10.573 -0.0132  0.3900 -0.1884
29896SOL    HW1    2   3.772   4.840  10.499  1.1773  0.5138 -1.1494
29896SOL    HW2    3   3.909   4.894  10.534  1.3451 -1.2461  1.1431
29897SOL     OW    4   2.810   5.812   8.371 -0.3937  0.4980  0.1434
29897SOL    HW1    5   2.894   5.832   8.414  1.4202 -1.8743 -2.0062
29897SOL    HW2    6   2.755   5.777   8.441  1.3799 -0.3684  1.1820
29898SOL     OW    7   1.884   5.268  10.130  0.2722 -0.1596  0.6725
29898SOL    HW1    8   1.823   5.254  10.058  0.3129  0.5285  0.4942
29898SOL    HW2    9   1.940   5.190  10.130 -1.1295 -1.2050  1.3789
29899SOL     OW   10  12.828   5.686   4.660 -0.2717  0.3667  0.2368
29899SOL    HW1   11  12.762   5.685   4.590  0.2014 -1.8000 -0.2301
29899SOL    HW2   12  12.822   5.775   4.696 -1.8512  0.9450 -1.2834
29900SOL     OW   13   5.246  11.092   2.406 -0.5040  0.2885 -0.5732
29900SOL    HW1   14   5.334  11.054   2.404 -0.8627 -0.6007 -0.0216
29900SOL    HW2   15   5.255  11.170   2.461 -0.3784 -0.6737  0.8045
29901SOL     OW   16   1.383   0.996  10.050 -0.2747 -0.1371  0.0557
29901SOL    HW1   17   1.399   1.085  10.082 -1.3529 -0.1515  0.6885
29901SOL    HW2   18   1.442   0.986   9.975 -0.4375  1.2502 -0.2736
29902SOL     OW   19   0.017  11.322  10.488 -0.4132 -0.3877 -0.0979
29902SOL    HW1   20  -0.008  11.348  10.577  0.5787  0.1625  0.0322
29902SOL    HW2   21   0.010  11.226  10.488 -0.2392 -0.4029  0.6256
29903SOL     OW   22   0.530  11.376   8.662  0.2312  0.1650 -0.2044
29903SOL    HW1   23   0.531  11.327   8.580  1.8777 -0.9269  0.4267
29903SOL    HW2   24   0.511  11.310   8.729  0.8785  0.6768  0.4971
29904SOL     OW   25  12.846   9.922   8.965  0.2200 -0.3309  0.0331
29904SOL    HW1   26  12.909   9.991   8.988  0.2228 -0.5231  0.6242
29904SOL    HW2   27  12.900   9.845   8.950  0.4711  0.3517 -3.1536
29905SOL     OW   28  11.943   6.332   4.555 -0.3627  0.0925 -0.3881
29905SOL    HW1   29  11.997   6.326   4.634 -1.8029  1.0905  0.7207
29905SOL    HW2   30  12.000   6.302   4.485  1.0978 -0.4270  0.9704
29906SOL     OW   31   4.747   7.873  10.713  0.3821  0.0132 -0.3583
29906SOL    HW1   32   4.830   7.897  10.754 -0.1411  0.5285  0.4378
29906SOL    HW2   33   4.746   7.922  10.631  0.4868  0.7038  0.0391
29907SOL     OW   34  12.952  10.705  10.947  0.1597  0.7666  0.6230
29907SOL    HW1   35  12.930  10.798  10.944 -0.8302  0.6582  2.8440
29907SOL    HW2   36  13.026  10.700  11.007  0.5722  0.1643  0.0772
29908SOL     OW   37   2.479   8.804   9.672  0.5732  0.6639 -0.2015
29908SOL    HW1   38   2.542   8.744   9.632  0.0884 -0.0363  0.0625
29908SOL    HW2   39   2.523   8.889   9.671  1.2003  0.3455 -0.7481
29909SOL     OW   40  10.733   9.447   0.501 -0.6086  0.0212 -0.3482
29909SOL    HW1   41  10.778   9.374   0.459 -2.4042  0.1738 -2.7395
29909SOL    HW2   42  10.695   9.410   0.580  1.0921 -0.8252  0.1157
29910SOL     OW   43  10.685   3.547   7.792  0.3085  0.1985 -0.3509
29910SOL    HW1   44  10.778   3.526   7.785  1.6106  4.0163  2.4370
29910SOL    HW2   45  10.662   3.582   7.705  1.8642  0.4915 -0.6740
29911SOL     OW   46  10.244   3.862   6.969 -0.0907  0.4415 -0.4925
29911SOL    HW1   47  10.244   3.842   6.876  1.0995  4.3872 -1.5276
29911SOL    HW2   48  10.160   3.904   6.986 -0.1679  0.0454  0.1649
29912SOL     OW   49  12.686   9.468   1.601 -0.5272  0.2381  0.7243
29912SOL    HW1   50  12.779   9.490   1.596 -0.3418 -0.7591 -0.9921
29912SOL    HW2   51  12.684   9.378   1.632 -0.6863 -0.8787 -2.2379
29913SOL     OW   52   0.035  12.949   6.767  0.2056 -0.1394 -0.0638
29913SOL    HW1   53  -0.031  12.930   6.700 -1.1736 -4.0736  2.0726
29913SOL    HW2   54   0.094  12.873   6.764  2.3667  1.4313  0.7039
29914SOL     OW   55   4.630   1.012   6.016 -0.1051 -0.3343 -0.0060
29914SOL    HW1   56   4.549   1.044   5.976 -0.1808 -1.2081 -0.5814
29914SOL    HW2   57   4.600   0.947   6.081  0.1148 -0.4300  0.0015
29915SOL     OW   58   7.210   7.369   6.375  0.2041 -0.4649 -0.0014
29915SOL    HW1   59   7.170   7.289   6.409  0.2305 -0.3530  0.2979
29915SOL    HW2   60   7.138   7.416   6.332  0.7100 -1.9746 -2.7532
29916SOL     OW   61   8.619   8.580   5.100  0.0884  0.2378 -0.4632
29916SOL    HW1   62   8.572   8.583   5.184  1.5781 -1.0957  0.4530
29916SOL    HW2   63   8.692   8.641   5.112 -1.3451  2.3906 -1.9279
29917SOL     OW   64   8.874  11.468  11.008 -0.2425  0.1661 -0.3193
29917SOL    HW1   65   8.855  11.387  10.960  1.4585  1.3695 -3.2879
29917SOL    HW2   66   8.805  11.528  10.981  0.2847  0.6176 -0.6923
29918SOL     OW   67  10.238   7.783   9.288 -0.1896  0.1174 -0.0432
29918SOL    HW1   68  10.288   7.739   9.356  0.4095  0.2055 -0.4197
29918SOL    HW2   69  10.251   7.876   9.305  1.1665  0.1550 -1.1226
29919SOL     OW   70   7.551   9.265   0.268 -0.0921  0.8937 -0.0759
29919SOL    HW1   71   7.519   9.355   0.259 -0.9043  0.4854 -1.6538
29919SOL    HW2   72   7.535   9.225   0.182  0.2349 -0.7648  0.5969
29920SOL     OW   73   1.665  12.125   8.371 -0.0020 -0.6522  0.7028
29920SOL    HW1   74   1.600  12.100   8.436  0.1496 -0.3338  0.9829
29920SOL    HW2   75   1.661  12.220   8.368 -0.2473 -0.6782 -0.0105
29921SOL     OW   76   4.142   1.361   2.223 -0.5087  0.1395  0.3822
29921SOL    HW1   77   4.191   1.429   2.176 -1.5964  0.5091 -0.2643
29921SOL    HW2   78   4.124   1.295   2.157  0.1417 -0.5719  0.9027
29922SOL     OW   79   9.077   2.105   3.209 -0.4248  0.5986  0.0189
29922SOL    HW1   80   9.047   2.041   3.144  1.4716 -0.3452  0.0200
29922SOL    HW2   81   8.997   2.153   3.232 -2.3059 -2.7110  1.1200
29923SOL     OW   82   7.510   9.834   7.956 -0.0140  0.2868  0.1055
29923SOL    HW1   83   7.550   9.765   7.903 -1.1139 -1.0932  0.9983
29923SOL    HW2   84   7.464   9.889   7.893  0.1386 -0.3046 -0.5380
29924SOL     OW   85   5.278   7.495   3.363 -0.0638  0.4307  0.0847
29924SOL    HW1   86   5.341   7.461   3.299 -0.0125 -0.6476  0.6860
29924SOL    HW2   87   5.327   7.500   3.445  0.2176  2.9269 -0.1539
29925SOL     OW   88   3.312   4.540   0.283  0.0910 -0.1085  0.1059
29925SOL    HW1   89   3.293   4.581   0.198 -1.4083 -0.1210  0.4055
29925SOL    HW2   90   3.270   4.454   0.278 -0.0783 -0.0794  0.8755
29926SOL     OW   91   7.085  12.266   7.826  0.0774  0.2730  0.2662
29926SOL    HW1   92   7.098  12.356   7.857 -0.5502  0.6865 -0.6244
29926SOL    HW2   93   6.991  12.252   7.833  0.3541 -0.9695  2.0838
29927SOL     OW   94   3.576   9.541   0.886 -0.0064  0.3209  0.3032
29927SOL    HW1   95   3.523   9.508   0.959 -0.8047  2.7559  0.9085
29927SOL    HW2   96   3.591   9.633   0.907  1.9715  0.4436 -1.3591
29928SOL     OW   97   5.524  10.814   8.482 -0.7866  0.2321  0.6166
29928SOL    HW1   98   5.472  10.820   8.562 -2.5675 -1.2199 -0.3729
29928SOL    HW2   99   5.460  10.816   8.411  0.3526 -2.7268 -0.6301
29929SOL     OW  100   9.945   6.597   6.343 -0.2193  0.3170 -0.1918
29929SOL    HW1  101  10.017   6.579   6.283 -0.2962  0.1672 -0.2391
29929SOL    HW2  102   9.987   6.604   6.429  0.0611  1.8191 -0.4334
29930SOL     OW  103  11.502  11.441   4.189 -0.4876 -0.4819 -0.0996
29930SOL    HW1  104  11.542  11.522   4.158  0.6853 -1.2772 -0.7673
29930SOL    HW2  105  11.408  11.457   4.185 -0.2671  0.9256  0.0254
29931SOL     OW  106   9.828   3.472  12.787  0.4627 -0.1081 -0.0070
29931SOL    HW1  107   9.871   3.464  12.872  2.2617 -0.5978 -0.9106
29931SOL    HW2  108   9.735   3.468  12.807  0.7303  2.2058  2.1775
29932SOL     OW  109   9.551   3.440   5.696 -0.1482 -0.3458  0.0331
29932SOL    HW1  110   9.601   3.384   5.638 -2.4426 -0.6403 -1.7919
29932SOL    HW2  111   9.502   3.380   5.752 -1.8287 -0.2413 -1.2418
29933SOL     OW  112   3.929   6.906   6.542  0.1453 -0.1572 -0.7037
29933SOL    HW1  113   4.018   6.916   6.509  0.6059  0.3443  0.6427
29933SOL    HW2  114   3.873   6.922   6.466  1.1716  0.7517 -1.2886
29934SOL     OW  115   3.522   2.074  10.320  0.0683  0.1016 -0.3851
29934SOL    HW1  116   3.484   2.067  10.232 -1.8336 -0.5006  0.4396
29934SOL    HW2  117   3.537   1.984  10.347  1.0995  0.3039 -0.2622
29935SOL     OW  118   5.860   2.938   2.095  0.1271  0.0705  0.3466
29935SOL    HW1  119   5.795   2.969   2.031  0.7792  0.5426 -0.1092
29935SOL    HW2  120   5.863   2.844   2.083  1.0242  0.2488 -1.1267
29936SOL     OW  121   2.985   9.401   4.818  0.3029 -0.0984 -0.0355
29936SOL    HW1  122   3.053   9.449   4.772  0.7718 -1.4039 -0.7712
29936SOL    HW2  123   2.905   9.451   4.801  0.8524  0.7140 -0.2938
29937SOL     OW  124   5.415  11.789   1.501  0.7466 -0.2540  0.2131
29937SOL    HW1  125   5.361  11.860   1.537  1.5990  0.5651 -0.0933
29937SOL    HW2  126   5.371  11.709   1.531 -0.4981  0.3800  0.1789
29938SOL     OW  127   2.148   2.230   9.737 -0.0811 -0.2436  0.7646
29938SOL    HW1  128   2.200   2.199   9.663 -0.0347  2.4480 -0.4461
29938SOL    HW2  129   2.128   2.322   9.716 -1.3930  0.1697  3.3763
29939SOL     OW  130  11.475  12.856   2.070 -0.0130 -0.3091  0.2455
29939SOL    HW1  131  11.431  12.857   2.154  1.3622 -1.2081  1.0145
29939SOL    HW2  132  11.405  12.870   2.006 -1.3076 -1.0665  1.4439
29940SOL     OW  133  10.157  11.579   3.020 -0.6205 -0.7911  0.0818
29940SOL    HW1  134  10.119  11.494   3.043  0.5041 -0.9617  1.4225
29940SOL    HW2  135  10.086  11.642   3.037 -0.5997 -1.1880  1.8475
29941SOL     OW  136   1.925   8.988   2.822 -0.1079 -0.0964 -0.4156
29941SOL    HW1  137   1.895   8.917   2.765  1.2806 -0.4473 -0.7473
29941SOL    HW2  138   2.009   8.957   2.857  0.3942  1.2697 -0.3468
29942SOL     OW  139   9.320   5.696   3.807 -0.1241 -0.4139  0.3886
29942SOL    HW1  140   9.402   5.698   3.756  0.0352  1.7741  0.6184
29942SOL    HW2  141   9.264   5.635   3.759  0.4767  0.5824 -1.7306
29943SOL     OW  142   6.135   5.983   6.674 -0.1007 -0.1371 -0.1162
29943SOL    HW1  143   6.069   5.916   6.695  1.2446 -1.5361 -0.2058
29943SOL    HW2  144   6.084   6.063   6.662 -1.6342 -0.8087  1.4221
29944SOL     OW  145   4.833  11.177   3.468 -0.6337  0.4102  0.4212
29944SOL    HW1  146   4.799  11.240   3.404  0.8964 -0.4756 -1.3701
29944SOL    HW2  147   4.918  11.212   3.494 -0.6326  0.0610  0.9007
29945SOL     OW  148   1.100   8.339  12.897  0.2906  0.3011  0.0497
29945SOL    HW1  149   1.169   8.368  12.957 -0.5161 -0.1206  1.2206
29945SOL    HW2  150   1.138   8.264  12.850  1.2588  1.2179 -0.6744
29946SOL     OW  151  12.670   5.122   4.708  0.0690  0.2030 -0.0758
29946SOL    HW1  152  12.597   5.144   4.766  1.4579  0.6817  1.5858
29946SOL    HW2  153  12.677   5.027   4.714 -0.5542  0.1219 -0.4630
29947SOL     OW  154  12.376   4.732  12.338  0.3381 -0.1979  0.1099
29947SOL    HW1  155  12.334   4.800  12.392 -0.4588 -0.2128 -0.4828
29947SOL    HW2  156  12.368   4.652  12.391  1.4640  0.1877  0.9034
29948SOL     OW  157   9.257  11.770   4.101 -0.4098  1.0068  0.0029
29948SOL    HW1  158   9.285  11.679   4.090  0.3651  1.3923 -1.5605
29948SOL    HW2  159   9.338  11.820   4.105 -0.7884  1.5205  2.4284
29949SOL     OW  160   1.073   8.376   2.939 -0.4467 -0.1202 -0.2019
29949SOL    HW1  161   1.065   8.470   2.958 -1.1337 -0.0084 -0.9930
29949SOL    HW2  162   1.059   8.334   3.024 -2.7292  0.4030 -0.2568
29950SOL     OW  163  12.553   9.154  12.987  0.0646  0.3463  0.3046
29950SOL    HW1  164  12.539   9.185  12.897  0.1576  1.5787  0.6979
29950SOL    HW2  165  12.496   9.210  13.041 -1.4207 -1.6077  0.8585
29951SOL     OW  166  11.814  12.706   8.339 -0.5853 -0.2789 -0.7511
29951SOL    HW1  167  11.884  12.652   8.303  0.1543  0.2327 -0.1274
29951SOL    HW2  168  11.780  12.755   8.264  1.0627  0.9219 -0.7733
29952SOL     OW  169   7.296   6.044   5.937 -0.3050 -0.2056 -0.2355
29952SOL    HW1  170   7.282   6.135   5.963 -0.5673  0.2824 -1.9432
29952SOL    HW2  171   7.390   6.040   5.915 -0.0581 -0.6406  0.8382
29953SOL     OW  172   5.598   7.203   9.759 -0.7780 -0.0014 -0.5303
29953SOL    HW1  173   5.598   7.123   9.706  1.0664 -0.0637 -0.4993
29953SOL    HW2  174   5.578   7.173   9.847 -2.2676 -0.1075 -0.8732
29954SOL     OW  175   8.315  10.457  11.126 -0.3259 -0.6464  0.4696
29954SOL    HW1  176   8.386  10.399  11.099  0.6556  0.9814 -0.6372
29954SOL    HW2  177   8.353  10.511  11.195 -0.7266 -0.3051  0.4316
29955SOL     OW  178   3.835   9.382   0.206 -0.6138 -0.2375  0.2839
29955SOL    HW1  179   3.754   9.401   0.253 -2.0510 -1.6724 -1.4635
29955SOL    HW2  180   3.853   9.462   0.156 -0.8057  0.1726  0.8599
29956SOL     OW  181   9.315   0.914  12.939  0.1766  0.3430 -0.5456
29956SOL    HW1  182   9.393   0.894  12.888  0.1834  2.0683 -1.2851
29956SOL    HW2  183   9.255   0.956  12.876 -0.3027  1.3907  0.5663
29957SOL     OW  184   1.044   8.649   2.914 -0.0068 -0.4094  0.2384
29957SOL    HW1  185   1.028   8.743   2.908  0.2852 -0.3327  0.6624
29957SOL    HW2  186   1.084   8.627   2.829 -1.8975 -0.5354 -0.6774
29958SOL     OW  187   7.214   6.101   7.007 -0.1890  0.3347  0.2148
29958SOL    HW1  188   7.277   6.077   7.075 -1.3907 -0.3524  1.1292
29958SOL    HW2  189   7.252   6.068   6.926  0.9595  0.5845  0.6267
29959SOL     OW  190   3.332   8.854   5.022  0.8267 -0.2783 -0.2677
29959SOL    HW1  191   3.367   8.768   5.048 -0.4901 -0.9684 -0.6690
29959SOL    HW2  192   3.322   8.901   5.105  0.6384 -0.8908  0.0680
29960SOL     OW  193   4.801   0.448   0.490  0.1420  0.1397 -0.0890
29960SOL    HW1  194   4.838   0.481   0.572 -0.0836 -0.5384  0.2972
29960SOL    HW2  195   4.726   0.505   0.473 -0.7064 -0.6131  0.9757
29961SOL     OW  196   3.898   4.357   0.690 -0.7665  0.0424 -0.6542
29961SOL    HW1  197   3.920   4.405   0.610 -2.9437 -0.5571 -1.6804
29961SOL    HW2  198   3.966   4.289   0.696 -0.3456  0.3382 -1.7773
29962SOL     OW  199   4.745   4.016   4.563 -0.2080  0.2345  0.1965
29962SOL    HW1  200   4.834   3.990   4.588 -0.1692  0.5671  0.4131
29962SOL    HW2  201   4.688   3.965   4.621 -0.2697 -1.8368 -1.5736
29963SOL     OW  202   9.059   6.017   8.169  0.0150 -0.1297 -0.1297
29963SOL    HW1  203   9.139   5.969   8.147 -0.2993 -1.3117  1.1664
29963SOL    HW2  204   9.031   6.057   8.087  0.2736 -2.2006 -1.2756
29964SOL     OW  205   5.503  11.909   2.705  0.3132  0.1618 -0.1128
29964SOL    HW1  206   5.590  11.881   2.733 -0.3009 -0.1368  1.5683
29964SOL    HW2  207   5.444  11.845   2.744 -0.7822  1.2325  0.0158
29965SOL     OW  208  11.707   4.979   3.967  0.2885 -0.3012 -0.4602
29965SOL    HW1  209  11.612   4.983   3.971  0.0080 -3.4774 -1.1244
29965SOL    HW2  210  11.735   4.970   4.058  0.2164  2.5318 -0.0602
29966SOL     OW  211  10.228  10.758  11.815  0.1801 -0.1999  0.4721
29966SOL    HW1  212  10.245  10.841  11.859  1.7838  0.1471 -0.7211
29966SOL    HW2  213  10.285  10.759  11.739 -0.9794 -1.7039 -0.4664
29967SOL     OW  214   1.703  10.309   9.808 -0.3281  0.3483  0.4966
29967SOL    HW1  215   1.628  10.253   9.829 -2.2180  2.1037 -1.1504
29967SOL    HW2  216   1.779  10.258   9.836 -2.0312 -2.0842  1.0387
29968SOL     OW  217  12.787   5.091   1.748  0.7986  0.4818 -0.4536
29968SOL    HW1  218  12.832   5.144   1.814  1.2033  0.8980 -1.0547
29968SOL    HW2  219  12.697   5.084   1.781  1.5676 -1.4667  1.4129
29969SOL     OW  220   0.866   1.643   5.587  0.2463 -0.5012 -1.0791
29969SOL    HW1  221   0.772   1.628   5.581  0.3366 -0.9487 -1.4641
29969SOL    HW2  222   0.904   1.555   5.594  0.5802 -0.2841  0.0013
29970SOL     OW  223  11.500   0.030   1.152  0.3905  0.4237  0.5653
29970SOL    HW1  224  11.584  -0.008   1.125  0.2624 -0.9828  1.9726
29970SOL    HW2  225  11.509   0.041   1.247 -0.7554  0.9607  0.6200
29971SOL     OW  226   9.498   4.401   0.409 -0.2491  0.5111 -0.1222
29971SOL    HW1  227   9.593   4.402   0.420 -0.0062 -1.0812 -1.6105
29971SOL    HW2  228   9.479   4.478   0.356  0.2973  0.5312 -0.2933
29972SOL     OW  229   2.964   3.951   9.412  0.2278 -0.3346  0.2116
29972SOL    HW1  230   3.046   3.903   9.422  0.9722  0.9759  0.7207
29972SOL    HW2  231   2.991   4.036   9.376 -1.0175 -0.2340 -0.5295
29973SOL     OW  232   2.387   6.121   1.715  0.7372  0.5555  0.5134
29973SOL    HW1  233   2.474   6.122   1.676  1.2595  1.3433  1.6556
29973SOL    HW2  234   2.401   6.147   1.806 -0.6761  0.5844  0.7426
29974SOL     OW  235   2.565   6.390   8.647 -0.1846  0.0881 -0.0032
29974SOL    HW1  236   2.553   6.400   8.742 -0.7284  0.2255 -0.0859
29974SOL    HW2  237   2.490   6.339   8.618 -0.0468  0.0906 -0.3693
29975SOL     OW  238   4.034   6.552   0.762  0.2553  0.5736  0.3298
29975SOL    HW1  239   4.009   6.619   0.826  0.8355  0.6724  0.4545
29975SOL    HW2  240   3.961   6.491   0.763 -0.1796  1.0824  0.3844
29976SOL     OW  241   3.109  11.409  12.140 -0.1386  0.3023 -0.1893
29976SOL    HW1  242   3.156  11.459  12.074  0.0052  0.8077  0.2884
29976SOL    HW2  243   3.055  11.347  12.090 -0.1435  0.7752 -0.7769
29977SOL     OW  244  12.452   0.078   0.109  0.3341 -0.1684  0.1557
29977SOL    HW1  245  12.387   0.015   0.077  0.2191  1.7158 -3.9176
29977SOL    HW2  246  12.406   0.162   0.108  2.2763  0.9591 -1.1975
29978SOL     OW  247   7.377  11.555  10.608 -0.3721  0.1304  0.3921
29978SOL    HW1  248   7.315  11.592  10.545 -1.6059  1.2590  2.1318
29978SOL    HW2  249   7.364  11.609  10.687  1.1779 -1.1124  1.5501
29979SOL     OW  250   7.378  11.859  10.667 -0.2718 -0.4182  0.8730
29979SOL    HW1  251   7.468  11.838  10.690  0.3137 -0.0466 -0.9782
29979SOL    HW2  252   7.365  11.948  10.698 -0.6442 -1.0957  2.8083
29980SOL     OW  253  11.420  11.505  11.451 -0.4240 -0.1615  0.1153
29980SOL    HW1  254  11.338  11.463  11.428 -0.6717  0.1162  0.4840
29980SOL    HW2  255  11.408  11.597  11.428 -0.0851 -0.1830 -0.1653
29981SOL     OW  256  12.681   9.730   2.993  0.2567 -0.4477  0.0819
29981SOL    HW1  257  12.588   9.736   3.014 -0.0472 -0.2875 -1.1913
29981SOL    HW2  258  12.703   9.816   2.956  0.2927 -1.2055 -1.8047
29982SOL     OW  259   3.343   7.362   4.529 -0.0012 -0.0773  0.5673
29982SOL    HW1  260   3.410   7.423   4.560  0.5085 -1.3320  2.0549
29982SOL    HW2  261   3.264   7.414   4.524  0.4195  0.7398  1.8256
29983SOL     OW  262  11.882   4.021  12.358  0.3734  0.2836 -0.0951
29983SOL    HW1  263  11.868   3.938  12.404  1.7599 -0.6093 -1.2109
29983SOL    HW2  264  11.839   4.087  12.413 -0.9773 -1.1932  0.6916
29984SOL     OW  265   2.454   3.176   9.916 -0.5124  0.2459 -0.1833
29984SOL    HW1  266   2.367   3.182   9.957  0.1555 -1.1335  1.5820
29984SOL    HW2  267   2.505   3.245   9.958 -0.0909 -0.5591  0.6739
29985SOL     OW  268   1.941   5.570   5.090  0.4172  0.4587  0.5209
29985SOL    HW1  269   1.991   5.635   5.041 -0.1908  1.0985  0.7302
29985SOL    HW2  270   1.933   5.495   5.031  0.0132  1.0783 -0.2277
29986SOL     OW  271  11.782   5.928   3.508  0.2636  0.6422  0.4155
29986SOL    HW1  272  11.822   5.986   3.443 -0.4578  1.6223  0.8173
29986SOL    HW2  273  11.804   5.968   3.592  0.6670 -0.2733  0.7558
29987SOL     OW  274   0.746   3.940   1.795 -0.2660  0.6699 -0.0332
29987SOL    HW1  275   0.656   3.967   1.812 -0.0888  1.8213 -0.8808
29987SOL    HW2  276   0.738   3.850   1.764 -1.0773  0.6146  0.3025
29988SOL     OW  277   2.645   2.414   0.094  0.6714  0.5806  0.5114
29988SOL    HW1  278   2.648   2.479   0.024 -2.1830 -0.9885 -1.2683
29988SOL    HW2  279   2.633   2.464   0.174 -2.4072  2.3293 -0.8843
29989SOL     OW  280  12.922   8.311  12.338  0.8709 -0.5003  0.6146
29989SOL    HW1  281  12.865   8.383  12.366 -1.0917 -2.2501  1.4211
29989SOL    HW2  282  13.010   8.341  12.359  0.0273  1.1910  2.0474
29990SOL     OW  283   6.893  12.811   6.591 -0.5958  0.4231 -0.3912
29990SOL    HW1  284   6.825  12.875   6.610  0.6235  1.6196  0.1068
29990SOL    HW2  285   6.927  12.837   6.505 -0.8490 -0.2474 -0.7005
29991SOL     OW  286   8.208   8.999   1.330 -0.1239  0.1144  0.3736
29991SOL    HW1  287   8.211   9.080   1.381 -0.4008  0.0542  0.4885
29991SOL    HW2  288   8.182   9.027   1.242  2.4675  0.4950 -0.3342
29992SOL     OW  289   7.110   6.013  11.654  0.0275  0.1515  0.1386
29992SOL    HW1  290   7.075   5.924  11.646 -2.7772  1.2507 -1.3153
29992SOL    HW2  291   7.171   6.021  11.582  0.4139 -0.6143  0.3639
29993SOL     OW  292   2.417   0.752   0.198 -0.4746 -0.0414 -0.0577
29993SOL    HW1  293   2.434   0.748   0.104  1.1788 -0.7473  0.2363
29993SOL    HW2  294   2.368   0.833   0.211 -0.3768  0.2604 -1.4732
29994SOL     OW  295   7.970   7.981   9.198  0.3342  0.3895 -0.2823
29994SOL    HW1  296   7.933   8.044   9.137  0.4658  0.3389 -0.4148
29994SOL    HW2  297   8.065   7.986   9.183  0.3490  0.2075 -0.2489
29995SOL     OW  298   9.891  10.975   3.667 -0.2133  0.5438  0.3356
29995SOL    HW1  299   9.877  10.887   3.631  0.4397  0.8379 -0.6834
29995SOL    HW2  300   9.844  11.033   3.607 -1.6854  0.8191  1.6877
29996SOL     OW  301   2.606   6.179   2.543  0.0171 -0.4640 -0.2601
29996SOL    HW1  302   2.586   6.159   2.452  0.8316 -1.2745 -0.2658
29996SOL    HW2  303   2.701   6.182   2.548 -0.0296  0.3679  0.4030
29997SOL     OW  304   1.502  10.553   7.845 -0.3294  0.4855  0.0865
29997SOL    HW1  305   1.590  10.591   7.848  0.1479  0.2891 -4.2637
29997SOL    HW2  306   1.451  10.614   7.792 -1.6446 -1.2563 -0.7756
29998SOL     OW  307   9.237  10.844   9.460 -0.3980 -0.0445  0.0129
29998SOL    HW1  308   9.142  10.843   9.473 -0.4576 -1.2466 -0.3950
29998SOL    HW2  309   9.273  10.852   9.549 -0.8722 -0.3750  0.2406
29999SOL     OW  310   8.308   0.228   3.290 -0.0328 -0.3829 -0.4204
29999SOL    HW1  311   8.383   0.169   3.283 -0.1763 -0.4757 -1.2878
29999SOL    HW2  312   8.317   0.267   3.377  0.5242 -1.0554 -0.1595
30000SOL     OW  313   3.966  11.683   3.124 -0.5300  0.6174 -0.1886
30000SOL    HW1  314   4.055  11.655   3.142 -0.2649  0.3935 -1.7357
30000SOL    HW2  315   3.959  11.769   3.166 -0.6956 -0.7261  2.8023
30001SOL     OW  316  12.104   3.536   7.621  0.1711 -0.0339 -0.5533
30001SOL    HW1  317  12.154   3.617   7.614 -0.4825  0.3401 -1.0799
30001SOL    HW2  318  12.066   3.538   7.709 -0.5491  0.6666 -0.8672
30002SOL     OW  319  10.229   4.947   6.949 -0.0811  0.1123 -0.8547
30002SOL    HW1  320  10.243   5.037   6.979  1.0313  0.0824 -1.2509
30002SOL    HW2  321  10.222   4.954   6.854  1.3681 -0.3606 -1.0160
30003SOL     OW  322   3.500   0.043   5.377  0.3622  0.1514 -0.0241
30003SOL    HW1  323   3.549   0.031   5.295 -3.9986 -2.4176 -2.6222
30003SOL    HW2  324   3.517  -0.038   5.427 -0.9745 -0.6860 -0.8709
30004SOL     OW  325   3.983   3.516   2.421 -0.2421  0.1786  1.0470
30004SOL    HW1  326   3.968   3.605   2.453 -0.2358  0.7749 -0.5012
30004SOL    HW2  327   3.901   3.470   2.440 -0.7312  0.8905  0.7454
30005SOL     OW  328   3.914   8.177   6.384 -0.1615  0.0848 -0.3717
30005SOL    HW1  329   3.840   8.230   6.411 -0.0367  0.3289 -0.5119
30005SOL    HW2  330   3.965   8.164   6.464  0.5379  1.3255 -0.5909
30006SOL     OW  331  12.153   3.341   6.880  0.0132  0.1039  0.2515
30006SOL    HW1  332  12.098   3.414   6.853 -1.9813 -0.9098  1.3459
30006SOL    HW2  333  12.182   3.363   6.968  1.4473  0.6365 -0.3198
30007SOL     OW  334   7.404  11.196   5.099 -0.0214 -0.1227 -0.3116
30007SOL    HW1  335   7.318  11.213   5.060 -1.0371 -2.1864  0.8756
30007SOL    HW2  336   7.392  11.117   5.152  2.2950  0.2706  0.9559
30008SOL     OW  337   2.438   4.082  10.580 -0.0562 -0.5884 -0.7469
30008SOL    HW1  338   2.429   4.135  10.660  0.8002  0.4384 -1.3097
30008SOL    HW2  339   2.354   4.036  10.573  0.1832 -1.4568  1.2536
30009SOL     OW  340   8.317   6.393   2.693  0.0632 -0.1616 -0.1600
30009SOL    HW1  341   8.305   6.457   2.763  0.6991  2.4117 -2.2649
30009SOL    HW2  342   8.351   6.315   2.738 -0.6815  0.9383  2.5031
30010SOL     OW  343  10.608   1.765   9.620  0.3894  0.2816 -0.4659
30010SOL    HW1  344  10.660   1.823   9.676  0.1694  0.9057 -0.8990
30010SOL    HW2  345  10.672   1.704   9.583  0.5696 -0.0092  0.2952
30011SOL     OW  346  12.807   5.535   1.075  0.1344  0.2932  0.3835
30011SOL    HW1  347  12.790   5.446   1.045 -0.4571  0.4958  0.0915
30011SOL    HW2  348  12.793   5.532   1.170  1.5815 -0.2532  0.5969
30012SOL     OW  349   5.589  10.430   9.560  0.2361 -0.2079 -0.1902
30012SOL    HW1  350   5.610  10.449   9.468  2.7288 -0.5827  0.2290
30012SOL    HW2  351   5.546  10.510   9.591  0.5283  0.4366 -1.3466
30013SOL     OW  352   3.230   7.282   3.243  0.6341 -0.0686 -0.2154
30013SOL    HW1  353   3.217   7.356   3.184  1.4303  0.7326  0.5701
30013SOL    HW2  354   3.306   7.307   3.296  1.5680 -1.8954 -0.6121
30014SOL     OW  355   3.579  12.295   9.809  1.1066 -0.1753  0.6513
30014SOL    HW1  356   3.564  12.279   9.716 -0.4793  0.6282  0.7400
30014SOL    HW2  357   3.666  12.259   9.825  0.0309 -3.6263 -0.3416
30015SOL     OW  358   0.081   0.314  11.787 -0.6372 -0.4205  0.6521
30015SOL    HW1  359  -0.004   0.278  11.764 -0.4846  0.8428 -2.3478
30015SOL    HW2  360   0.065   0.407  11.804  0.3816  0.7464 -3.4616
30016SOL     OW  361   5.710   4.878   9.441  0.4945  0.7351 -0.3526
30016SOL    HW1  362   5.789   4.850   9.487 -0.8052 -1.1958  0.8297
30016SOL    HW2  363   5.740   4.900   9.353  2.2133 -0.9174 -0.2287
30017SOL     OW  364  12.546   3.400  11.019 -0.2248  0.2909 -0.0783
30017SOL    HW1  365  12.520   3.465  10.953  0.6971  1.0496  0.2768
30017SOL    HW2  366  12.483   3.410  11.090 -0.3173  0.5357 -0.1954
30018SOL     OW  367   3.398   3.568  10.825  0.0811 -0.1180  0.4305
30018SOL    HW1  368   3.313   3.603  10.799  0.8317 -0.4740 -3.0808
30018SOL    HW2  369   3.454   3.645  10.833 -0.5116  0.1233  2.8290
30019SOL     OW  370   6.941   1.482   7.523  0.2177  0.1721 -0.5534
30019SOL    HW1  371   6.923   1.416   7.456 -1.3296 -0.0192  0.0248
30019SOL    HW2  372   6.960   1.562   7.473 -0.5740 -0.0522 -1.2305
30020SOL     OW  373   6.204   7.909  10.635  0.3696  0.4659  0.2908
30020SOL    HW1  374   6.175   7.951  10.715 -1.6202 -1.0356  0.4207
30020SOL    HW2  375   6.144   7.940  10.568  0.6941  0.0538 -0.1984
30021SOL     OW  376   6.572  10.527   8.089 -0.1980  0.2620 -0.4747
30021SOL    HW1  377   6.510  10.577   8.142 -1.4346 -1.4548 -0.1940
30021SOL    HW2  378   6.617  10.470   8.152 -1.2535 -1.3649 -1.1270
30022SOL     OW  379  10.302   7.615   5.552 -0.1593  0.0106  0.2008
30022SOL    HW1  380  10.304   7.708   5.577 -0.9021  0.1138 -0.1168
30022SOL    HW2  381  10.394   7.592   5.540  0.0161  0.7794  0.0099
30023SOL     OW  382   4.630  12.052   5.111 -0.0109 -0.5840  0.1654
30023SOL    HW1  383   4.659  12.105   5.037 -1.3449 -0.2208 -0.1248
30023SOL    HW2  384   4.707  12.001   5.136  0.8538  0.3324 -0.5616
30024SOL     OW  385   1.560   7.861   6.250 -0.4822  0.0942  0.1048
30024SOL    HW1  386   1.599   7.804   6.316  0.0902 -0.7238 -0.9046
30024SOL    HW2  387   1.611   7.942   6.255 -0.4127  0.0229  0.6196
30025SOL     OW  388   2.809   3.355  10.942 -0.5471  0.4687  0.6307
30025SOL    HW1  389   2.789   3.405  10.863 -1.1238 -1.4323 -0.4923
30025SOL    HW2  390   2.884   3.400  10.981  0.9906  0.4037 -2.0393
30026SOL     OW  391   6.898   1.780   9.978  0.1148 -0.0265 -0.1081
30026SOL    HW1  392   6.989   1.787  10.009  0.0772  0.4341 -0.0939
30026SOL    HW2  393   6.851   1.742  10.052  0.5034 -1.3356 -0.5125
30027SOL     OW  394  11.751   8.748   9.323 -0.7435 -0.1158  0.0307
30027SOL    HW1  395  11.829   8.787   9.361 -0.2729  0.1864 -1.1797
30027SOL    HW2  396  11.679   8.777   9.379 -0.1107  0.4493  0.5609
30028SOL     OW  397   9.267   1.559   7.869  0.0074 -0.5063  0.3446
30028SOL    HW1  398   9.293   1.469   7.847 -0.1879 -0.6789  0.8072
30028SOL    HW2  399   9.324   1.583   7.942 -0.5617 -0.5876  0.8195
30029SOL     OW  400   4.126   9.552   8.963  0.2404  0.1137 -0.2685
30029SOL    HW1  401   4.217   9.576   8.977  0.2099  0.3154 -0.4125
30029SOL    HW2  402   4.121   9.527   8.871  0.1928 -0.0873 -0.2116
30030SOL     OW  403   1.029  10.177   8.067  0.4025  0.2635  0.3254
30030SOL    HW1  404   0.979  10.234   8.008 -0.2069 -2.0963 -1.6076
30030SOL    HW2  405   1.109  10.227   8.086  0.0353  1.6566 -1.4782
30031SOL     OW  406   6.806  12.973   5.982 -0.2382 -0.2521 -0.0582
30031SOL    HW1  407   6.734  12.939   6.036 -1.2871  0.5376 -0.8981
30031SOL    HW2  408   6.876  12.908   5.990 -1.7388 -2.0443 -0.7220
30032SOL     OW  409   5.275   4.765   7.885 -0.8182 -0.8781 -0.1200
30032SOL    HW1  410   5.300   4.795   7.972 -2.2165 -1.8353  0.6685
30032SOL    HW2  411   5.331   4.689   7.869 -1.3945 -1.4479  0.5024
30033SOL     OW  412   4.647   3.051   5.649 -0.1993  0.4631  0.3448
30033SOL    HW1  413   4.642   3.071   5.556  1.2710 -2.8664 -0.6212
30033SOL    HW2  414   4.557   3.054   5.680 -0.7041  1.6586 -1.1552
30034SOL     OW  415   1.824   3.920   0.680  0.6170 -0.0492  0.3270
30034SOL    HW1  416   1.733   3.944   0.663  0.5666  0.3810  1.1431
30034SOL    HW2  417   1.869   4.003   0.697  0.5010 -0.4250  2.8820
30035SOL     OW  418  10.529   5.122  12.657  0.4015  0.0106 -0.0119
30035SOL    HW1  419  10.619   5.112  12.627  0.3325  2.3709 -1.2606
30035SOL    HW2  420  10.531   5.099  12.750  1.6427 -2.7868 -0.6198
30036SOL     OW  421   4.138   7.050   4.106 -0.3811 -0.5092 -0.1388
30036SOL    HW1  422   4.082   7.069   4.030 -0.6923 -0.4151  0.1138
30036SOL    HW2  423   4.130   6.956   4.118 -2.0595 -0.2454  1.1089
30037SOL     OW  424   4.857  10.198   4.214  0.3138 -0.5101  0.1799
30037SOL    HW1  425   4.924  10.266   4.214  1.9584 -2.0400  1.6032
30037SOL    HW2  426   4.777  10.244   4.188  1.6049  1.6592 -0.2354
30038SOL     OW  427   1.394   8.062   6.108 -0.2045 -0.0745  0.2190
30038SOL    HW1  428   1.363   8.000   6.175 -0.4409 -0.9562 -0.6815
30038SOL    HW2  429   1.489   8.066   6.121 -0.3773  0.7033  1.3753
30039SOL     OW  430   6.729   6.296   2.012 -0.3615 -0.2886 -0.3914
30039SOL    HW1  431   6.665   6.284   1.941  1.1241  1.0250 -2.0504
30039SOL    HW2  432   6.755   6.388   2.005  0.4577 -0.3592  1.3471
30040SOL     OW  433   5.415   0.359  11.338 -0.4381 -0.1029  0.4918
30040SOL    HW1  434   5.349   0.308  11.292  1.4023 -1.1437 -1.1203
30040SOL    HW2  435   5.364   0.413  11.399 -2.7752 -0.6558 -0.8254
30041SOL     OW  436   4.736  11.000  11.924 -0.1736 -0.2910 -0.0982
30041SOL    HW1  437   4.771  10.913  11.906  0.1682  0.0531 -1.1628
30041SOL    HW2  438   4.674  10.986  11.996 -1.7113 -1.7938 -1.6190
30042SOL     OW  439  10.909   7.824  11.538  0.1921  0.1661  0.1987
30042SOL    HW1  440  10.966   7.748  11.542 -0.0394 -0.1202 -1.1733
30042SOL    HW2  441  10.835   7.803  11.595 -0.4494 -1.1705 -1.0708
30043SOL     OW  442   1.106   0.716   8.100 -0.4324 -0.3641  0.0800
30043SOL    HW1  443   1.052   0.702   8.022 -1.5926 -2.3090  1.1335
30043SOL    HW2  444   1.170   0.645   8.097  0.0754  0.0749  0.4347
30044SOL     OW  445   9.776   8.690   3.276 -0.1973 -0.0879  0.1067
30044SOL    HW1  446   9.841   8.620   3.277  0.9792  0.9500 -0.5633
30044SOL    HW2  447   9.731   8.680   3.192 -0.8025 -0.7134  0.5024
30045SOL     OW  448   4.612   8.453   1.033 -0.1051  0.3264  0.4213
30045SOL    HW1  449   4.666   8.481   0.959  0.9124 -2.0167  0.1950
30045SOL    HW2  450   4.643   8.505   1.106  0.7797  0.7621 -0.2404
30046SOL     OW  451   5.792   4.399   3.394 -0.1262  0.3174  0.0145
30046SOL    HW1  452   5.767   4.422   3.304 -0.3334 -0.1066 -0.0403
30046SOL    HW2  453   5.822   4.481   3.432  2.7025  0.0187 -1.3191
30047SOL     OW  454   2.151   6.318  12.402  1.3623 -0.6307  0.1496
30047SOL    HW1  455   2.172   6.390  12.462  0.5615 -0.7690  0.6161
30047SOL    HW2  456   2.163   6.239  12.454 -2.3929 -0.6828  1.2504
30048SOL     OW  457   2.165   5.187  10.955  0.1294 -0.3604 -0.5651
30048SOL    HW1  458   2.176   5.153  11.044 -0.1866  0.9081 -0.0249
30048SOL    HW2  459   2.089   5.244  10.960 -1.6274 -2.3825 -2.3154
30049SOL     OW  460  12.683   2.946   0.023  0.2590 -0.4326  0.4480
30049SOL    HW1  461  12.723   3.032   0.035 -0.5012 -0.3736  2.9200
30049SOL    HW2  462  12.750   2.896  -0.024  0.4107  1.6658 -1.7613
30050SOL     OW  463   2.746   7.832   1.571  0.5661  0.7373  0.1585
30050SOL    HW1  464   2.738   7.742   1.601  1.2402  0.7358  0.3428
30050SOL    HW2  465   2.656   7.864   1.567  0.0430 -0.7701 -2.5141
30051SOL     OW  466  12.144  11.690   7.018  0.2021 -0.0027  0.2781
30051SOL    HW1  467  12.088  11.637   6.962  0.7179 -1.1379  0.8124
30051SOL    HW2  468  12.186  11.752   6.958 -2.0981  1.3658 -0.0468
30052SOL     OW  469   9.617   7.388  10.138  0.6574  0.0692 -0.2818
30052SOL    HW1  470   9.522   7.395  10.149  0.0917  0.1159 -3.9741
30052SOL    HW2  471   9.651   7.467  10.180 -0.8615 -0.0952  1.3872
30053SOL     OW  472   7.110   7.307   0.323  0.6138 -0.5280  0.4570
30053SOL    HW1  473   7.103   7.401   0.307  0.6275 -0.7468 -0.9852
30053SOL    HW2  474   7.044   7.289   0.389 -0.0150  0.3504  0.0883
30054SOL     OW  475   4.610   9.765  11.022 -0.2686  0.2522  0.5956
30054SOL    HW1  476   4.661   9.804  10.952  0.4423 -0.1087  0.8981
30054SOL    HW2  477   4.519   9.785  11.000  0.0395  1.7580  0.5536
30055SOL     OW  478   2.476  11.502   6.941  0.2606 -0.3261 -0.1441
30055SOL    HW1  479   2.385  11.528   6.926  0.7802  1.7733  0.0031
30055SOL    HW2  480   2.506  11.471   6.856 -0.0811  0.7365 -0.6794
30056SOL     OW  481   3.009   2.287   0.671  0.1448 -0.5478  0.0234
30056SOL    HW1  482   2.916   2.308   0.669  0.6756  2.3071  0.4826
30056SOL    HW2  483   3.025   2.236   0.591 -1.6993 -0.6278 -0.3200
30057SOL     OW  484  11.505  10.760   6.421  0.0996  0.1517 -0.0189
30057SOL    HW1  485  11.575  10.790   6.479 -0.9727  1.3318  0.7229
30057SOL    HW2  486  11.490  10.669   6.446 -0.0919  0.5354  1.3191
30058SOL     OW  487   2.297   5.329   6.175  0.2825  0.2869  0.4078
30058SOL    HW1  488   2.351   5.405   6.197  1.8361 -1.2237  2.1079
30058SOL    HW2  489   2.349   5.280   6.112 -0.3694  0.2045 -0.0833
30059SOL     OW  490  11.502   1.440  12.459  0.3304  0.4757 -0.5367
30059SOL    HW1  491  11.427   1.499  12.461 -0.8798 -0.9495 -1.3183
30059SOL    HW2  492  11.499   1.400  12.372  1.7547  0.0745 -0.4208
30060SOL     OW  493   7.732  10.122   4.733  0.2497 -0.2573 -0.3346
30060SOL    HW1  494   7.694  10.044   4.775  0.3580 -0.9523 -1.4873
30060SOL    HW2  495   7.662  10.155   4.676  0.0292  0.8066  0.5151
30061SOL     OW  496  11.983   1.143   9.026 -0.9759  0.0895  0.2438
30061SOL    HW1  497  11.938   1.094   9.094  0.0351  0.0617  0.9137
30061SOL    HW2  498  12.074   1.117   9.034 -0.2789  2.5310  1.0761
30062SOL     OW  499   0.056   9.043  12.584  0.3669 -0.1919  0.6196
30062SOL    HW1  500  -0.001   9.029  12.509  0.5476  1.5831  0.1152
30062SOL    HW2  501  -0.003   9.068  12.655  0.4236  0.8299  0.3182
30063SOL     OW  502   6.899  12.163   1.108 -0.2578 -0.5598  0.1742
30063SOL    HW1  503   6.845  12.234   1.077 -0.7702 -0.7051  0.7103
30063SOL    HW2  504   6.989  12.189   1.087 -0.1628  1.4476  2.5532
30064SOL     OW  505   5.229   0.284   4.041 -0.3064  0.3077  0.1208
30064SOL    HW1  506   5.187   0.315   4.121  1.3722  1.8993  0.4318
30064SOL    HW2  507   5.185   0.332   3.971 -1.7719 -1.0814  0.0089
30065SOL     OW  508   2.308   0.079   4.255  0.0016  0.4904  0.1366
30065SOL    HW1  509   2.311   0.170   4.286 -0.4868  0.9048 -0.9795
30065SOL    HW2  510   2.230   0.075   4.199  0.7360 -0.2552 -0.8844
30066SOL     OW  511   2.196  11.906   1.998  0.1622 -0.8474 -0.2972
30066SOL    HW1  512   2.170  11.871   1.913 -0.3129 -1.1183 -0.0499
30066SOL    HW2  513   2.143  11.985   2.008  0.7128 -0.4502 -0.5475
30067SOL     OW  514   9.967   1.734   2.067 -0.3473  0.2130 -0.7934
30067SOL    HW1  515  10.000   1.691   2.145 -1.1834  1.7754  0.4845
30067SOL    HW2  516  10.046   1.762   2.020  0.1935 -2.2651 -1.4638
30068SOL     OW  517   6.363   7.227   8.818 -0.3157 -0.3170  0.0029
30068SOL    HW1  518   6.361   7.317   8.851  0.2981 -0.6198  0.9133
30068SOL    HW2  519   6.454   7.200   8.826 -0.5366 -1.1037  0.0025
30069SOL     OW  520   7.853   2.432   2.423 -0.3133  0.3971 -0.7333
30069SOL    HW1  521   7.773   2.481   2.445 -0.7120 -1.2343  1.9692
30069SOL    HW2  522   7.821   2.351   2.384 -0.0878 -0.4231  0.6914
30070SOL     OW  523  10.199  12.206   1.292 -0.5702 -0.1990 -0.2551
30070SOL    HW1  524  10.244  12.269   1.236 -1.3700  1.4040  0.8169
30070SOL    HW2  525  10.106  12.219   1.274 -0.8231  0.0253  1.0614
30071SOL     OW  526  11.973   3.397   4.569 -0.1497  0.2031 -0.3543
30071SOL    HW1  527  11.899   3.452   4.545 -0.8537 -0.6927 -0.2874
30071SOL    HW2  528  12.038   3.457   4.605 -0.9981  0.9461 -0.0566
30072SOL     OW  529   5.452  10.149   6.358  0.2660  0.3045 -0.1936
30072SOL    HW1  530   5.427  10.240   6.371  1.0559  0.7301 -1.4732
30072SOL    HW2  531   5.534  10.139   6.407 -0.5249 -0.1298  1.0986
30073SOL     OW  532   9.952   1.467   4.332  0.3915 -0.3628 -0.0123
30073SOL    HW1  533   9.932   1.418   4.252 -1.2823  0.1470  0.0727
30073SOL    HW2  534  10.013   1.535   4.303  0.4060 -0.6554 -0.7024
30074SOL     OW  535   6.233   8.913   9.194 -0.0501 -0.2703  0.2144
30074SOL    HW1  536   6.140   8.895   9.182  0.1414 -2.2680  1.2823
30074SOL    HW2  537   6.256   8.871   9.277  2.1930 -1.5020 -0.9138
30075SOL     OW  538  10.671   4.549   3.097  0.3293 -0.0740 -0.1478
30075SOL    HW1  539  10.723   4.470   3.110 -0.5669 -0.4632  1.3700
30075SOL    HW2  540  10.680   4.569   3.004  0.9575 -1.6790 -0.4671
30076SOL     OW  541   1.637  12.536   9.278 -0.4997  0.4792 -0.0412
30076SOL    HW1  542   1.583  12.576   9.210 -1.2337  1.4124  1.0510
30076SOL    HW2  543   1.587  12.458   9.305 -0.3692  0.2917 -0.3357
30077SOL     OW  544   0.274   1.048   3.932  0.3591  0.4356 -0.1482
30077SOL    HW1  545   0.355   1.096   3.912  1.0677 -0.6700 -0.0699
30077SOL    HW2  546   0.261   1.060   4.026 -0.7877  2.3907 -0.5168
30078SOL     OW  547   3.431   3.607   6.481  0.3173 -0.3739 -0.2575
30078SOL    HW1  548   3.406   3.525   6.524 -2.0320 -0.0804 -0.9721
30078SOL    HW2  549   3.492   3.648   6.543  1.5015 -2.5763  0.1410
30079SOL     OW  550   1.650   8.692   0.369 -0.1874  0.0610 -0.2914
30079SOL    HW1  551   1.709   8.740   0.312  0.0800  1.6647  1.2502
30079SOL    HW2  552   1.562   8.719   0.343 -0.1509 -0.4953 -1.0135
30080SOL     OW  553  10.712   0.560  12.156  0.4547 -0.2698  0.0996
30080SOL    HW1  554  10.626   0.591  12.183  0.1568  0.1595 -1.2841
30080SOL    HW2  555  10.770   0.635  12.169  0.7317 -0.6788  1.4135
30081SOL     OW  556   4.663   8.279   2.659  0.2350  0.1266 -0.1784
30081SOL    HW1  557   4.679   8.236   2.743  0.6670  0.1397 -0.2536
30081SOL    HW2  558   4.750   8.289   2.620 -0.0610 -1.1311 -1.2494
30082SOL     OW  559   8.114  11.449   1.133  0.6564 -0.7602 -0.0093
30082SOL    HW1  560   8.071  11.422   1.214  0.2752 -0.8027 -0.2250
30082SOL    HW2  561   8.095  11.379   1.070  3.9285 -2.5939  0.7984
30083SOL     OW  562   9.426  11.450   3.590 -0.8012 -0.2644 -0.6235
30083SOL    HW1  563   9.364  11.499   3.536 -2.2944  0.3316  1.4997
30083SOL    HW2  564   9.482  11.517   3.630  1.0011 -0.7649 -2.1477
30084SOL     OW  565   2.764  10.421   4.479  0.0180  0.2483 -0.1702
30084SOL    HW1  566   2.795  10.373   4.556  3.1114  1.8697 -0.2796
30084SOL    HW2  567   2.757  10.355   4.411  2.4567 -0.3972  0.1424
30085SOL     OW  568   3.661   8.287  10.883  0.0692  0.3881 -0.2898
30085SOL    HW1  569   3.705   8.269  10.966  1.5946 -0.6170 -1.2825
30085SOL    HW2  570   3.646   8.201  10.845  2.2806  0.8659 -2.4804
30086SOL     OW  571   5.799   8.986   9.739  0.3194  0.3680 -0.3085
30086SOL    HW1  572   5.782   9.013   9.829  1.4999  0.9437 -0.2474
30086SOL    HW2  573   5.868   8.919   9.747  2.3388  2.2425 -0.9098
30087SOL     OW  574   7.618   9.594   7.469 -0.0932  0.1539  0.0808
30087SOL    HW1  575   7.666   9.664   7.424 -0.1519 -1.0798 -1.9966
30087SOL    HW2  576   7.682   9.523   7.477 -0.2660  0.1240  1.4757
30088SOL     OW  577  10.278   0.396   1.542 -0.2931  0.1945  0.2194
30088SOL    HW1  578  10.339   0.336   1.584 -0.0521  0.0321 -0.3561
30088SOL    HW2  579  10.260   0.357   1.457 -0.8716  0.4601  0.2119
30089SOL     OW  580   7.512  12.255   0.059  0.4685 -0.6413  0.4202
30089SOL    HW1  581   7.487  12.212   0.141  0.5808 -0.1972  0.6964
30089SOL    HW2  582   7.445  12.323   0.048  1.0140 -0.0498  0.6751
30090SOL     OW  583   9.517   3.548   0.398  0.3425 -0.2086  0.4754
30090SOL    HW1  584   9.537   3.473   0.453 -0.2454 -0.9569 -0.3017
30090SOL    HW2  585   9.589   3.552   0.335  1.9430  1.6890  2.2721
30091SOL     OW  586   9.645   8.087   3.732 -0.5108 -0.0887  0.6860
30091SOL    HW1  587   9.723   8.142   3.727  0.0541 -0.9710 -0.7787
30091SOL    HW2  588   9.627   8.079   3.826  2.0570 -1.0799  1.1647
30092SOL     OW  589  12.239   2.805  11.869  0.3707 -0.3185 -0.0501
30092SOL    HW1  590  12.212   2.731  11.923  0.9307 -0.9265 -0.5860
30092SOL    HW2  591  12.263   2.766  11.785 -0.3998  0.6001 -0.7232
30093SOL     OW  592  10.858   3.086   8.322  0.2246 -0.2105  0.2008
30093SOL    HW1  593  10.912   3.161   8.347  1.5991 -1.3539  0.7923
30093SOL    HW2  594  10.900   3.053   8.243 -1.2468  0.4770 -0.9276
30094SOL     OW  595   2.435   3.137   2.571  0.4659  0.4573  0.0258
30094SOL    HW1  596   2.426   3.056   2.520  0.1982  0.0147  0.7612
30094SOL    HW2  597   2.423   3.207   2.507  1.5859 -0.0693 -0.7936
30095SOL     OW  598   0.995   1.911  11.721  0.3389  0.0185  0.0191
30095SOL    HW1  599   1.049   1.969  11.774  1.0496  0.4286 -1.1130
30095SOL    HW2  600   0.982   1.958  11.639 -0.5903 -0.6650 -0.2411
30096SOL     OW  601  11.376   1.676   1.480 -0.4360  0.0863  0.4116
30096SOL    HW1  602  11.425   1.758   1.478 -2.6502  1.5001 -0.6513
30096SOL    HW2  603  11.385   1.645   1.570 -0.0583  1.8550  1.0178
30097SOL     OW  604   6.135   4.302   2.488  0.1819 -0.3167 -0.0351
30097SOL    HW1  605   6.198   4.271   2.553 -1.1720  0.2940  1.6680
30097SOL    HW2  606   6.188   4.348   2.422  1.5590 -0.3825  0.9837
30098SOL     OW  607   5.016   8.140   9.731 -0.8514 -0.3615  0.4964
30098SOL    HW1  608   4.937   8.104   9.773 -0.2631 -0.2284  1.7688
30098SOL    HW2  609   5.076   8.066   9.726 -0.0567  0.1206  2.0867
30099SOL     OW  610   8.436   9.170   5.476 -0.2998 -0.2042  0.0396
30099SOL    HW1  611   8.526   9.179   5.507  0.5480 -1.6826 -1.7412
30099SOL    HW2  612   8.405   9.259   5.464  0.7411  0.3343  1.1739
30100SOL     OW  613   5.320   7.051   2.600 -0.1630  0.0782 -0.0103
30100SOL    HW1  614   5.404   7.012   2.625  0.7842  2.2624  0.4602
30100SOL    HW2  615   5.322   7.054   2.505  0.7427  1.0000  0.0282
30101SOL     OW  616   9.202   3.493   6.152  0.6335  0.0041  0.5338
30101SOL    HW1  617   9.193   3.407   6.194 -1.5643 -1.4871 -2.5539
30101SOL    HW2  618   9.134   3.547   6.193 -2.3776 -1.8164 -1.6595
30102SOL     OW  619   5.171  12.716   5.855  0.2568  0.2566  0.7704
30102SOL    HW1  620   5.256  12.678   5.879  0.2543 -0.3907 -0.2133
30102SOL    HW2  621   5.192  12.782   5.789  0.0233  0.3881  0.8263
30103SOL     OW  622   8.462   1.784  12.947  0.5694  0.1759  0.0532
30103SOL    HW1  623   8.413   1.866  12.940  1.2292  0.6047  0.3826
30103SOL    HW2  624   8.509   1.777  12.865 -1.3419 -1.1186 -1.0179
30104SOL     OW  625   6.799  11.579   7.823  0.3332  0.1724  0.1840
30104SOL    HW1  626   6.707  11.574   7.797  0.3298  2.0559 -0.3653
30104SOL    HW2  627   6.834  11.652   7.770  1.5364  1.0082  2.0402
30105SOL     OW  628   1.955  10.330   7.961 -0.3844  0.3314 -0.0977
30105SOL    HW1  629   1.930  10.389   8.032  0.9604  0.2262  0.4885
30105SOL    HW2  630   2.045  10.303   7.982 -0.2202 -0.2734 -1.4589
30106SOL     OW  631  11.436   0.520   3.293  0.1232 -0.3403  0.1611
30106SOL    HW1  632  11.356   0.503   3.242  0.6677 -0.8435 -0.5461
30106SOL    HW2  633  11.445   0.615   3.292 -1.2220 -0.1699  1.4495
30107SOL     OW  634  11.751   2.399  11.698 -0.1151  0.7306 -0.0127
30107SOL    HW1  635  11.777   2.307  11.687 -1.0728  0.2901  1.2121
30107SOL    HW2  636  11.822   2.438  11.750 -0.4211  0.2894  0.7555
30108SOL     OW  637   7.990  11.372   4.269 -0.3645 -0.0614 -0.6956
30108SOL    HW1  638   8.046  11.298   4.244 -0.7276 -0.5252 -0.1564
30108SOL    HW2  639   7.932  11.383   4.194  0.7023  0.7000 -1.4506
30109SOL     OW  640  12.896   3.779   9.022  0.0126  0.2621 -0.4412
30109SOL    HW1  641  12.857   3.803   9.106 -3.0168  1.4957 -2.0642
30109SOL    HW2  642  12.931   3.862   8.987  0.5121 -0.0822 -0.7746
30110SOL     OW  643  11.488   8.342   7.065 -0.5213 -0.0765 -0.3013
30110SOL    HW1  644  11.581   8.358   7.054  0.0191 -1.6218  1.5168
30110SOL    HW2  645  11.452   8.346   6.976  1.1431  1.1617 -0.9518
30111SOL     OW  646  10.546   9.278  10.549  0.5070  0.3676  0.0585
30111SOL    HW1  647  10.581   9.271  10.460  1.6954 -1.1504  0.5814
30111SOL    HW2  648  10.622   9.299  10.603  0.0475  0.0375  0.8601
30112SOL     OW  649   4.362   0.598  12.817  0.8715 -0.3088  0.0582
30112SOL    HW1  650   4.308   0.605  12.738  2.2085 -2.5128 -1.1339
30112SOL    HW2  651   4.393   0.688  12.831 -1.5932  0.6860 -0.2225
30113SOL     OW  652   9.694   6.096   9.027 -0.2697  0.4289  0.0134
30113SOL    HW1  653   9.772   6.061   8.982  0.4652  0.5586  1.1455
30113SOL    HW2  654   9.620   6.061   8.978  0.4871 -0.9550 -0.1844
30114SOL     OW  655   4.911   8.116   0.945 -0.0937  0.1922 -0.1651
30114SOL    HW1  656   4.975   8.128   1.015  0.5956  0.9386 -0.9024
30114SOL    HW2  657   4.942   8.172   0.874 -1.8303  0.9536 -0.3719
30115SOL     OW  658   8.827   5.045   6.606  0.1530  0.3409  0.1611
30115SOL    HW1  659   8.822   5.071   6.698 -1.8972  1.6795 -0.2537
30115SOL    HW2  660   8.901   5.094   6.570 -0.3326  1.4516  0.6385
30116SOL     OW  661   3.435   9.635   4.910  0.1626  0.1461 -0.7451
30116SOL    HW1  662   3.520   9.595   4.891  0.6664  0.0269  1.4548
30116SOL    HW2  663   3.387   9.568   4.958  0.0862  1.2673  0.8433
30117SOL     OW  664   3.892  10.963   1.643 -0.7005 -0.0451  0.3612
30117SOL    HW1  665   3.891  11.058   1.634 -0.5202 -0.0440  0.3493
30117SOL    HW2  666   3.805  10.935   1.613  0.3650 -0.1897 -2.9253
30118SOL     OW  667   6.648  10.162   1.201  0.3243  0.4961  0.3746
30118SOL    HW1  668   6.718  10.099   1.179  0.8152  1.1336  0.0963
30118SOL    HW2  669   6.571  10.128   1.156  0.5052 -0.0809  0.4801
30119SOL     OW  670   2.005   5.990   3.325  0.3104  0.2079  0.1268
30119SOL    HW1  671   2.089   6.026   3.355  3.6005 -4.2080 -2.5307
30119SOL    HW2  672   1.990   5.915   3.382 -1.7434  0.7072  0.3065
30120SOL     OW  673  10.287   8.314   7.033  0.2420  0.2550  0.1458
30120SOL    HW1  674  10.354   8.383   7.034  0.6449 -0.1062 -0.7932
30120SOL    HW2  675  10.325   8.243   7.084  0.3955  0.2102 -0.0305
30121SOL     OW  676   1.686   1.751  11.161 -0.1065  0.0589  0.2253
30121SOL    HW1  677   1.656   1.834  11.199  0.2451  0.2024  0.1980
30121SOL    HW2  678   1.776   1.741  11.194  0.1613  0.1275 -0.4681
30122SOL     OW  679   6.256  11.798  11.350  0.5975  0.0170  0.6714
30122SOL    HW1  680   6.219  11.886  11.358  1.0075  0.6106 -2.4478
30122SOL    HW2  681   6.242  11.758  11.436 -2.6883  1.9386  1.2318
30123SOL     OW  682   9.372   6.782   8.927  0.1623  0.0151 -0.0223
30123SOL    HW1  683   9.383   6.723   9.001 -1.0565 -0.8220 -0.4676
30123SOL    HW2  684   9.384   6.727   8.850  2.2607  1.0439 -0.4995
30124SOL     OW  685   7.803   4.764   2.253  0.0019 -0.3423  0.0134
30124SOL    HW1  686   7.881   4.726   2.294 -0.6329 -0.1123  1.4781
30124SOL    HW2  687   7.832   4.848   2.219  0.3196 -0.1209  0.8227
30125SOL     OW  688   9.216   4.002   5.339  0.1275 -0.8852  0.2091
30125SOL    HW1  689   9.266   3.938   5.390  3.0645  0.5763 -0.6193
30125SOL    HW2  690   9.198   3.957   5.256  0.9799 -1.0942  0.1329
30126SOL     OW  691   4.573   4.351   0.595  0.5465 -0.0891 -0.1974
30126SOL    HW1  692   4.583   4.260   0.623  0.2495 -0.6155 -1.6703
30126SOL    HW2  693   4.503   4.386   0.649  1.2352 -0.4580  0.9741
30127SOL     OW  694   9.126   3.092   7.134  0.5094 -0.3011  0.0516
30127SOL    HW1  695   9.127   3.009   7.086  0.1494 -0.6133  0.5716
30127SOL    HW2  696   9.121   3.066   7.226  0.1134  0.2968  0.2039
30128SOL     OW  697   1.785   5.598   6.592 -0.0395 -0.9058  0.0623
30128SOL    HW1  698   1.738   5.565   6.515 -0.8071 -2.4427  1.1588
30128SOL    HW2  699   1.850   5.531   6.611  0.8533 -0.0343  0.1576
30129SOL     OW  700   4.704  12.034   5.433  0.3731  0.1898 -0.4391
30129SOL    HW1  701   4.630  12.078   5.474  1.5654  0.9051  1.0074
30129SOL    HW2  702   4.746  12.101   5.379  0.5785  0.0618 -0.4412
30130SOL     OW  703  12.150   1.934   5.520  0.5664  0.3367  0.1569
30130SOL    HW1  704  12.164   1.840   5.517  0.2245  0.2198  1.6603
30130SOL    HW2  705  12.219   1.967   5.577  2.2420  1.3692 -2.2795
30131SOL     OW  706   1.094  11.406   6.544  0.1104 -0.3461  0.8427
30131SOL    HW1  707   1.003  11.398   6.572 -0.3016  3.6680  1.3056
30131SOL    HW2  708   1.093  11.385   6.450 -1.6965  1.1695  0.4635
30132SOL     OW  709   6.715   8.485   3.001  0.3082  0.0131  0.6726
30132SOL    HW1  710   6.795   8.481   3.052  1.3523  0.7930 -0.8271
30132SOL    HW2  711   6.666   8.558   3.040  2.3718  2.5122 -1.0609
30133SOL     OW  712   9.582   2.838   4.999 -0.0282  0.1544 -0.7180
30133SOL    HW1  713   9.629   2.867   5.077 -2.6193 -1.1716  1.4725
30133SOL    HW2  714   9.520   2.908   4.980  0.2832  0.2701 -1.3286
30134SOL     OW  715  10.682   0.742   6.674  0.2068  0.0539 -0.5671
30134SOL    HW1  716  10.757   0.798   6.697  0.7587 -0.3260 -1.3835
30134SOL    HW2  717  10.681   0.742   6.579  1.4668 -2.9046 -0.6831
30135SOL     OW  718  10.654   4.787  11.017  0.4516  0.1646 -0.0579
30135SOL    HW1  719  10.699   4.810  10.935  0.4603 -1.1570 -0.4566
30135SOL    HW2  720  10.668   4.692  11.025 -0.1276  0.1675  1.1322
30136SOL     OW  721  12.711  10.570   0.466  0.0904  0.0417  0.3484
30136SOL    HW1  722  12.623  10.582   0.431  0.8738  2.0721 -1.0673
30136SOL    HW2  723  12.745  10.494   0.420 -0.9842 -0.9562  1.1348
30137SOL     OW  724   7.359   1.907   3.437  0.1066  0.9771 -0.5614
30137SOL    HW1  725   7.332   1.914   3.529 -1.1961 -0.3491 -0.8103
30137SOL    HW2  726   7.278   1.914   3.387  0.7052  0.8594 -1.5717
30138SOL     OW  727   9.256   3.392   5.908 -0.6638  0.7429 -0.3469
30138SOL    HW1  728   9.244   3.445   5.987 -0.0401  0.0019  0.2546
30138SOL    HW2  729   9.344   3.355   5.916 -1.3424 -0.9679 -0.3885
30139SOL     OW  730  10.988   6.024   0.759 -0.0951 -0.3398  0.1319
30139SOL    HW1  731  10.926   5.953   0.742 -0.6145  0.6275 -2.5055
30139SOL    HW2  732  11.000   6.066   0.674  2.9910  0.5079  0.8595
30140SOL     OW  733   7.115   1.655   5.185 -0.0152  0.6802  0.2457
30140SOL    HW1  734   7.100   1.722   5.251 -0.2527  1.6076 -0.7172
30140SOL    HW2  735   7.120   1.704   5.102  3.0997 -0.0571 -0.1584
30141SOL     OW  736   9.862   3.445   9.131 -0.1590  0.3914  0.1600
30141SOL    HW1  737   9.813   3.362   9.125  0.3756 -0.0838  1.7564
30141SOL    HW2  738   9.818   3.493   9.202 -0.0208  1.1776 -0.2771
30142SOL     OW  739  10.444   1.096   3.382 -0.0030 -0.1687  0.3866
30142SOL    HW1  740  10.487   1.107   3.297  1.4479 -0.7210  1.0119
30142SOL    HW2  741  10.476   1.169   3.435 -0.9951  0.2430  0.4306
30143SOL     OW  742  10.733   4.648   2.036 -0.1946  0.0644  0.4714
30143SOL    HW1  743  10.719   4.717   2.101 -2.1835  0.6164 -0.4341
30143SOL    HW2  744  10.747   4.696   1.954 -1.9728 -0.5197 -0.2405
30144SOL     OW  745   4.769   9.484   2.139  0.5682  0.3093 -0.4627
30144SOL    HW1  746   4.802   9.482   2.229  0.3727 -0.9642 -0.3926
30144SOL    HW2  747   4.717   9.564   2.134 -1.9772 -1.0565  1.5284
30145SOL     OW  748   9.614   9.006   0.487  0.1223  0.3318  0.2666
30145SOL    HW1  749   9.675   8.932   0.482 -0.3206  0.0235 -0.8057
30145SOL    HW2  750   9.530   8.966   0.513 -0.1945  0.4003 -0.6236
30146SOL     OW  751  12.471   7.658  12.559  0.4347 -0.1641  0.4864
30146SOL    HW1  752  12.460   7.724  12.491 -1.1904 -1.5190 -0.6501
30146SOL    HW2  753  12.418   7.689  12.632 -0.2701 -0.1723 -0.0193
30147SOL     OW  754   1.322  12.900   7.485 -0.1216 -0.5648 -0.8095
30147SOL    HW1  755   1.360  12.815   7.506 -0.8827 -1.0055 -1.1672
30147SOL    HW2  756   1.309  12.899   7.391 -1.2645 -0.5445 -0.6739
30148SOL     OW  757   8.777   3.374   3.718  0.4087  0.2150  0.1157
30148SOL    HW1  758   8.764   3.419   3.801  0.1801  1.3804 -0.5273
30148SOL    HW2  759   8.801   3.285   3.742  0.7045  0.6323  1.4264
30149SOL     OW  760   4.776  10.501  10.661 -0.3462 -1.0063  0.1447
30149SOL    HW1  761   4.689  10.512  10.621 -0.2608 -1.1674 -0.0892
30149SOL    HW2  762   4.837  10.531  10.593 -0.2386 -0.4781  0.4702
30150SOL     OW  763   5.221   2.089   1.969  0.6067  0.1349  0.5507
30150SOL    HW1  764   5.184   2.178   1.964  1.2219  0.3293 -1.0002
30150SOL    HW2  765   5.253   2.082   2.059  0.9517  1.6647  0.5795
30151SOL     OW  766  11.802   1.576   0.887 -0.0997  0.7199 -0.6273
30151SOL    HW1  767  11.787   1.500   0.943 -0.1001  0.7163 -0.6323
30151SOL    HW2  768  11.859   1.544   0.817 -0.8071  0.4985 -1.1249
30152SOL     OW  769   3.528   5.391   7.836  0.2205 -0.3197  0.1677
30152SOL    HW1  770   3.522   5.326   7.765  1.3475  0.8185 -1.0275
30152SOL    HW2  771   3.514   5.475   7.793  2.2928  0.5260  1.0020
30153SOL     OW  772   2.414   8.939  12.445  0.0841  0.1332 -0.1443
30153SOL    HW1  773   2.396   9.005  12.512  1.6814 -0.4276  0.8866
30153SOL    HW2  774   2.448   8.864  12.494  0.7969 -0.4914 -1.5471
30154SOL     OW  775  12.053   1.684   8.900 -0.0359 -0.4156 -0.4198
30154SOL    HW1  776  12.058   1.642   8.814  0.1937 -0.1753 -0.5243
30154SOL    HW2  777  12.119   1.640   8.953 -0.4110 -0.7980 -0.2612
30155SOL     OW  778   9.589   6.569   5.929 -0.0187 -0.1194  0.0246
30155SOL    HW1  779   9.624   6.531   6.010 -2.3944 -1.9851  0.2845
30155SOL    HW2  780   9.619   6.510   5.860  1.8363  1.3596 -0.5126
30156SOL     OW  781  11.883   0.987  11.414  0.1350  0.6539 -0.3339
30156SOL    HW1  782  11.916   0.900  11.391 -2.2877 -0.4908  0.2422
30156SOL    HW2  783  11.828   1.013  11.340  2.3944  2.6710 -1.4308
30157SOL     OW  784   2.697   5.386   8.079 -0.3267 -0.0072  0.0311
30157SOL    HW1  785   2.750   5.307   8.066  0.1881  0.1640  0.9568
30157SOL    HW2  786   2.760   5.452   8.110 -0.8589  0.5893 -0.1321
30158SOL     OW  787   0.434   6.117   7.390 -0.3380  0.0285  0.3803
30158SOL    HW1  788   0.392   6.203   7.385 -0.0323  0.2211  1.0263
30158SOL    HW2  789   0.492   6.123   7.466  0.5961 -0.3466 -0.2815
30159SOL     OW  790   0.027  11.018  11.833  0.1994  0.2510  0.4089
30159SOL    HW1  791   0.103  10.984  11.786 -0.7638  1.0562 -1.8748
30159SOL    HW2  792   0.033  10.979  11.919  1.4186 -2.3405 -0.7486
30160SOL     OW  793   1.628   4.872   6.273 -0.1050 -0.2169 -0.6929
30160SOL    HW1  794   1.684   4.850   6.348 -1.4854  1.9321  1.0604
30160SOL    HW2  795   1.539   4.867   6.306 -1.1192 -3.2398 -3.3495
30161SOL     OW  796  10.961   7.463   8.088 -0.1626  0.0535  0.5091
30161SOL    HW1  797  10.995   7.379   8.118 -0.3107 -0.2439 -0.1486
30161SOL    HW2  798  10.985   7.468   7.996  0.0362  0.8344  0.5978
30162SOL     OW  799   5.560   6.321   5.307  0.0909  0.0986 -0.3158
30162SOL    HW1  800   5.469   6.310   5.280  0.5346 -1.8188 -1.1824
30162SOL    HW2  801   5.578   6.245   5.363  1.5187 -0.2607 -1.2212
30163SOL     OW  802  10.766   2.170   9.383  0.6784 -0.0046  0.1835
30163SOL    HW1  803  10.777   2.264   9.366 -1.5189  0.7859  2.4706
30163SOL    HW2  804  10.743   2.165   9.476  2.0757 -2.9740  0.4834
30164SOL     OW  805   3.740   3.261   5.749 -0.1845  0.2099  0.0084
30164SOL    HW1  806   3.712   3.185   5.697 -0.6994  0.6349 -0.3417
30164SOL    HW2  807   3.818   3.293   5.705 -0.5429  0.4880 -0.4225
30165SOL     OW  808   1.064   3.019   3.845 -0.0883 -0.2492 -0.1165
30165SOL    HW1  809   1.122   2.945   3.831  0.3662  0.0166  0.3099
30165SOL    HW2  810   1.112   3.077   3.905 -0.0924  0.7783 -1.0688
30166SOL     OW  811   9.648   1.087   9.039  0.3561  0.2631 -0.4754
30166SOL    HW1  812   9.593   1.137   9.099 -0.0913 -0.4501 -0.2821
30166SOL    HW2  813   9.730   1.074   9.087 -0.0220 -0.3586  0.0140
30167SOL     OW  814   1.712  12.139  10.069 -0.2580 -0.7377 -0.1433
30167SOL    HW1  815   1.667  12.153   9.986  0.2115 -0.8764 -0.4204
30167SOL    HW2  816   1.803  12.162  10.052  0.0106 -1.5648  0.1039
30168SOL     OW  817   3.464   3.391  10.578  0.1958  0.0290 -0.6289
30168SOL    HW1  818   3.422   3.435  10.504 -2.0861 -1.0836 -0.0689
30168SOL    HW2  819   3.427   3.433  10.656  2.3906  1.0260 -0.0396
30169SOL     OW  820  11.467  10.061  10.466  0.5403  0.8848 -0.6444
30169SOL    HW1  821  11.461  10.111  10.547 -0.3924 -0.0731 -0.0942
30169SOL    HW2  822  11.530   9.991  10.486  0.2269  0.5818 -0.7089
30170SOL     OW  823  10.813  12.549   3.396  0.2572  0.0691 -0.4200
30170SOL    HW1  824  10.732  12.497   3.390  1.9790 -2.8524 -0.4204
30170SOL    HW2  825  10.784  12.634   3.428 -2.9479 -0.4552 -1.4884
30171SOL     OW  826   8.241   3.183   3.247 -0.2269  0.7745  0.2775
30171SOL    HW1  827   8.336   3.178   3.244 -0.1025  2.6389 -1.3702
30171SOL    HW2  828   8.211   3.100   3.210  0.7809  0.3709  0.3525
30172SOL     OW  829   3.468   6.622   7.607  0.2923  0.8013  0.1614
30172SOL    HW1  830   3.474   6.694   7.669  0.4398 -0.1628  1.3048
30172SOL    HW2  831   3.374   6.611   7.591  0.1433  0.1283  1.3679
30173SOL     OW  832  10.771   0.944   9.835 -0.9832 -0.2605 -0.2435
30173SOL    HW1  833  10.795   1.030   9.798 -0.3978  0.1605  1.0499
30173SOL    HW2  834  10.724   0.966   9.915 -1.0573 -1.1564 -0.0419
30174SOL     OW  835  10.229   5.504  10.874 -0.4607  0.2121  0.4067
30174SOL    HW1  836  10.258   5.427  10.825 -0.1527  0.3910  0.3024
30174SOL    HW2  837  10.254   5.485  10.964 -1.8277 -0.5047  0.6538
30175SOL     OW  838   4.587  11.972   2.455  0.0709 -0.3880 -0.0909
30175SOL    HW1  839   4.632  11.894   2.422  1.7932  0.7744 -0.6189
30175SOL    HW2  840   4.577  11.956   2.549  0.5082 -1.1783 -0.1715
30176SOL     OW  841   9.715   3.228   5.648 -0.4333 -0.3699 -0.6630
30176SOL    HW1  842   9.775   3.166   5.689 -0.6977 -0.7271 -0.8102
30176SOL    HW2  843   9.754   3.314   5.663 -0.8125 -0.4303  0.8454
30177SOL     OW  844   5.486   6.560   2.478 -0.1696  0.2048 -0.8721
30177SOL    HW1  845   5.567   6.603   2.451 -0.1194  0.2289 -0.6847
30177SOL    HW2  846   5.443   6.622   2.536  0.3140 -0.3198  0.0816
30178SOL     OW  847   1.648   9.111   4.776 -0.0827 -0.2086  0.2776
30178SOL    HW1  848   1.663   9.021   4.746  0.9462 -0.0226  0.2057
30178SOL    HW2  849   1.730   9.136   4.818 -0.2173  0.8484 -0.0659
30179SOL     OW  850   5.649   2.427   5.904 -0.4017  0.4478 -0.7039
30179SOL    HW1  851   5.644   2.384   5.989 -1.9851  1.1646 -0.3850
30179SOL    HW2  852   5.739   2.459   5.898  0.5607 -2.0132 -0.5552
30180SOL     OW  853  11.726  10.617   8.440 -0.1777 -0.4113  0.0468
30180SOL    HW1  854  11.812  10.639   8.476 -0.2302  0.4142 -0.3155
30180SOL    HW2  855  11.742  10.542   8.383  0.1733 -0.7296  0.5605
30181SOL     OW  856   8.082  11.818   3.171  0.1891  0.3973  0.3332
30181SOL    HW1  857   8.050  11.800   3.260  1.5443 -1.5279  0.4915
30181SOL    HW2  858   8.132  11.899   3.180  0.7196 -0.0350  1.4630
30182SOL     OW  859   2.202   6.589   1.706  0.0280  0.3069  0.0528
30182SOL    HW1  860   2.204   6.581   1.611  0.5412 -1.3489  0.1596
30182SOL    HW2  861   2.174   6.679   1.723 -1.1718  0.2931 -1.6464
30183SOL     OW  862   2.668  12.207   6.468 -0.2144 -0.7758 -0.3626
30183SOL    HW1  863   2.682  12.156   6.548 -1.2896 -1.1226 -0.3842
30183SOL    HW2  864   2.575  12.197   6.449 -0.1079 -0.1314 -1.2825
30184SOL     OW  865   7.416   7.517   9.374 -0.2641 -0.1127 -0.0908
30184SOL    HW1  866   7.360   7.446   9.406  0.5926 -0.6193  0.3328
30184SOL    HW2  867   7.504   7.480   9.377  0.0844  0.6314 -0.8482
30185SOL     OW  868   7.727   8.802   4.175 -0.4752  0.6284  0.5251
30185SOL    HW1  869   7.745   8.878   4.231 -0.8199  1.8866 -1.0181
30185SOL    HW2  870   7.687   8.839   4.096  2.3835 -0.7359 -1.7554
30186SOL     OW  871   8.559   6.822  10.738 -0.6043 -0.0329  0.1350
30186SOL    HW1  872   8.483   6.785  10.694  0.0533 -1.7810  0.3847
30186SOL    HW2  873   8.534   6.828  10.830 -0.5418 -0.3757  0.1765
30187SOL     OW  874   0.344   3.885   9.281 -0.3417  0.1874  0.0108
30187SOL    HW1  875   0.328   3.833   9.360 -0.0759  0.5874  0.3333
30187SOL    HW2  876   0.263   3.935   9.269 -0.4100  0.0721 -0.0174
30188SOL     OW  877   5.928   1.998   8.387  0.4607  1.3673 -0.1102
30188SOL    HW1  878   5.837   2.026   8.378  0.6216  1.4151 -1.9798
30188SOL    HW2  879   5.927   1.933   8.457 -1.2755  0.3465 -1.0241
30189SOL     OW  880  10.390   4.113   2.796 -0.1623  0.4014 -0.3587
30189SOL    HW1  881  10.471   4.093   2.843 -0.6531 -0.1565  0.2709
30189SOL    HW2  882  10.416   4.180   2.732  0.1593  2.7713  2.0415
30190SOL     OW  883   8.238   6.854   3.976 -0.1266  0.5286 -0.0204
30190SOL    HW1  884   8.150   6.817   3.977 -0.7237  1.9087 -0.3184
30190SOL    HW2  885   8.281   6.816   4.052 -0.7921 -0.5749 -0.1711
30191SOL     OW  886   9.578  12.015   8.406  0.5341 -0.3394 -0.0499
30191SOL    HW1  887   9.666  12.053   8.400  0.4007  0.0507  0.3830
30191SOL    HW2  888   9.593  11.921   8.411  1.1065 -0.1921  2.5403
30192SOL     OW  889   2.712   4.610   9.883 -0.0901 -0.0729 -0.0912
30192SOL    HW1  890   2.722   4.580   9.793 -0.1998  1.3274 -0.5968
30192SOL    HW2  891   2.801   4.631   9.912  0.0924 -1.6043  0.5506
30193SOL     OW  892  11.523   9.911   4.444  0.0056 -0.3690  0.4704
30193SOL    HW1  893  11.536   9.986   4.502 -0.7183 -0.9293  1.3894
30193SOL    HW2  894  11.492   9.842   4.502 -1.7653 -0.6518 -0.7384
30194SOL     OW  895   2.421  11.801   1.778 -0.1854  0.2467 -0.0621
30194SOL    HW1  896   2.396  11.715   1.742  0.0882  0.6503 -1.2703
30194SOL    HW2  897   2.338  11.841   1.803 -0.4149  0.0432 -0.4772
30195SOL     OW  898   3.332   5.989   8.970  0.8875  0.1826 -0.2656
30195SOL    HW1  899   3.271   6.003   8.898  1.0495  1.2148 -0.2167
30195SOL    HW2  900   3.280   5.947   9.038 -0.9032  4.3617  1.2823
30196SOL     OW  901   7.629   0.866   5.983  0.4348  1.3679  0.1859
30196SOL    HW1  902   7.602   0.840   5.895  4.1073  0.4563 -0.8478
30196SOL    HW2  903   7.638   0.961   5.978  1.9766  1.2108 -0.9789
30197SOL     OW  904   1.347   5.629   8.843 -0.2583 -0.3790  0.4278
30197SOL    HW1  905   1.268   5.623   8.897 -1.1239  1.0179 -0.6164
30197SOL    HW2  906   1.321   5.681   8.768  1.7578  0.4120  0.2014
30198SOL     OW  907   5.213   5.851   6.476  0.4125  0.6806  0.3217
30198SOL    HW1  908   5.172   5.921   6.528  0.2472  0.2319  0.8035
30198SOL    HW2  909   5.293   5.830   6.526  0.5580  0.6511  0.0763
30199SOL     OW  910   7.395   3.272   7.143 -0.5133  0.7285 -0.9376
30199SOL    HW1  911   7.440   3.348   7.105  1.2656  0.0961 -0.1874
30199SOL    HW2  912   7.304   3.300   7.152  0.0158  2.6237 -1.1028
30200SOL     OW  913   0.278   0.517   2.740 -0.2436  0.0306  0.1737
30200SOL    HW1  914   0.310   0.541   2.827 -1.7614  0.1953  0.7348
30200SOL    HW2  915   0.278   0.599   2.691  0.1282  0.0381  0.1855
30201SOL     OW  916  12.947   6.754   7.974 -0.4167  0.4193  0.7204
30201SOL    HW1  917  12.884   6.803   7.921  0.2865  2.3119  1.5137
30201SOL    HW2  918  12.947   6.666   7.937 -2.6634  0.6579 -0.0156
30202SOL     OW  919   3.340  12.503   8.482 -0.2442  0.0108  0.0512
30202SOL    HW1  920   3.310  12.493   8.392  1.5443 -0.0901 -0.5556
30202SOL    HW2  921   3.402  12.576   8.479  0.5091 -0.5686  1.0186
30203SOL     OW  922   0.075   4.635  10.913  0.2611  0.1669  0.1998
30203SOL    HW1  923   0.039   4.596  10.834  1.2095 -1.2779  0.4375
30203SOL    HW2  924   0.149   4.689  10.883  0.3127  0.0178  0.0619
30204SOL     OW  925   9.440  10.231   6.620 -0.1481 -0.4058 -0.8007
30204SOL    HW1  926   9.502  10.304   6.620 -0.4587 -0.0846 -2.6318
30204SOL    HW2  927   9.401  10.233   6.532 -1.3059 -1.8161 -0.3572
30205SOL     OW  928  12.102   7.309   7.320 -0.3708  0.3155 -0.4071
30205SOL    HW1  929  12.153   7.292   7.399 -0.2913 -1.4299 -0.8003
30205SOL    HW2  930  12.153   7.374   7.272  1.2267 -0.9627 -0.5185
30206SOL     OW  931  10.277  11.559   4.603 -0.3597  0.2599 -0.3105
30206SOL    HW1  932  10.336  11.629   4.574 -1.7069  0.9517 -1.5276
30206SOL    HW2  933  10.266  11.574   4.697  1.8966 -0.3151  0.1153
30207SOL     OW  934   2.692   0.680   0.246 -0.5777 -0.2531 -0.1527
30207SOL    HW1  935   2.602   0.707   0.233 -0.8826 -0.5317  1.2201
30207SOL    HW2  936   2.695   0.649   0.337  0.7529 -0.8028 -0.3591
30208SOL     OW  937  11.604   8.163  11.841  0.2225 -0.0168  0.1391
30208SOL    HW1  938  11.544   8.091  11.858 -0.4851 -0.5425 -3.5961
30208SOL    HW2  939  11.549   8.242  11.848 -0.0867 -0.2244  0.0907
30209SOL     OW  940   7.838   8.003   2.014 -0.0459 -0.0152  0.0273
30209SOL    HW1  941   7.819   7.972   1.926  0.3015 -1.4581  0.4395
30209SOL    HW2  942   7.924   8.044   2.008 -0.5907  1.0755 -0.5633
30210SOL     OW  943   3.867   7.052   1.385 -0.2555  0.1634  0.0827
30210SOL    HW1  944   3.850   6.967   1.425 -1.3699 -0.3819 -1.4216
30210SOL    HW2  945   3.902   7.031   1.298  2.5977  1.3023  0.8512
30211SOL     OW  946   5.099   0.425   4.285  0.2106 -0.5216 -0.2966
30211SOL    HW1  947   5.032   0.494   4.284  2.1771  1.5212 -0.2284
30211SOL    HW2  948   5.085   0.380   4.369 -0.0160  1.0396  0.5530
30212SOL     OW  949   6.136   4.081   4.317 -0.1350 -0.0268 -0.1896
30212SOL    HW1  950   6.183   4.135   4.253  0.4257 -0.5160 -0.1989
30212SOL    HW2  951   6.131   4.136   4.395 -0.6325  0.4925 -0.5783
30213SOL     OW  952   0.934  11.542   0.727  0.2533 -0.1201  0.4460
30213SOL    HW1  953   0.870  11.613   0.731  1.1485  0.7351  0.0505
30213SOL    HW2  954   0.943  11.523   0.634 -0.9240 -1.6571  0.6149
30214SOL     OW  955   3.241   3.325   5.982  0.3227 -0.4127 -0.2399
30214SOL    HW1  956   3.158   3.286   5.954 -0.8540  1.8580 -0.1546
30214SOL    HW2  957   3.262   3.387   5.913  2.5691 -1.6791 -0.7879
30215SOL     OW  958   2.933   4.392   0.749  0.5219 -0.0140 -0.0750
30215SOL    HW1  959   2.847   4.396   0.707  0.4587 -1.6050 -0.1580
30215SOL    HW2  960   2.986   4.338   0.690  1.1186 -0.3177  0.7211
30216SOL     OW  961   3.307   0.062   0.438  1.0901 -0.2504 -0.0214
30216SOL    HW1  962   3.378   0.126   0.446 -0.0048  0.9148  0.7634
30216SOL    HW2  963   3.333  -0.009   0.496  1.2290  0.5580  0.9436
30217SOL     OW  964   7.745   4.552  11.737  0.0721  0.5468 -0.2915
30217SOL    HW1  965   7.765   4.500  11.659  0.8740  0.9365 -0.3463
30217SOL    HW2  966   7.665   4.600  11.713 -0.7043 -0.6535 -0.2314
30218SOL     OW  967   3.398  12.593  10.557 -0.3063 -0.2783  0.0852
30218SOL    HW1  968   3.385  12.515  10.504  2.0310  0.2200 -1.3523
30218SOL    HW2  969   3.444  12.563  10.635  2.8391 -0.1735 -1.5628
30219SOL     OW  970   0.965   1.971   8.320 -0.2161  0.1246 -0.1182
30219SOL    HW1  971   0.897   1.904   8.308 -0.3482  0.5362 -1.9956
30219SOL    HW2  972   1.039   1.939   8.269 -0.6868  1.8978 -2.0656
30220SOL     OW  973   5.741   5.130   7.211 -0.0359 -0.2961  0.5752
30220SOL    HW1  974   5.830   5.148   7.241 -0.4150  0.1419  1.4914
30220SOL    HW2  975   5.748   5.049   7.162  1.1579  0.5851 -0.7819
30221SOL     OW  976  11.446  11.448   4.884 -0.5509 -0.3755  0.3403
30221SOL    HW1  977  11.477  11.415   4.968 -0.3687 -2.1359 -0.3901
30221SOL    HW2  978  11.525  11.479   4.839 -0.4448 -0.7882  0.2400
30222SOL     OW  979  12.247   8.492   5.205  0.1918 -0.0702 -0.4767
30222SOL    HW1  980  12.332   8.506   5.248  0.6758 -0.4901 -1.2714
30222SOL    HW2  981  12.193   8.565   5.235  0.5204 -0.3236  0.8036
30223SOL     OW  982   1.147   9.591   2.725 -0.1618  0.4648  0.6443
30223SOL    HW1  983   1.097   9.514   2.698  1.0667 -0.1913  0.1714
30223SOL    HW2  984   1.173   9.633   2.644 -0.1483  0.9460  0.8919
30224SOL     OW  985  11.732   8.194   9.445  0.5103  0.0492  0.4569
30224SOL    HW1  986  11.692   8.277   9.420 -1.8721 -0.5277  1.9986
30224SOL    HW2  987  11.661   8.131   9.440  1.6607 -1.4238  1.6595
30225SOL     OW  988  12.980  12.947   0.400  0.2349 -0.4010  0.4534
30225SOL    HW1  989  12.973  12.889   0.325  0.0994 -0.7487  0.7327
30225SOL    HW2  990  12.896  12.940   0.445 -0.2327  0.9271 -0.1577
30226SOL     OW  991   5.261   5.825   8.656  0.4185 -0.7001  0.4913
30226SOL    HW1  992   5.184   5.876   8.631  0.4564 -1.2109 -0.7345
30226SOL    HW2  993   5.334   5.885   8.647  0.0709  0.2863  3.2040
30227SOL     OW  994   2.745   8.251  12.443  0.8440 -0.0038 -0.3823
30227SOL    HW1  995   2.826   8.216  12.406  0.1063 -1.4002 -0.7259
30227SOL    HW2  996   2.676   8.195  12.408 -0.2081  0.6945  0.5054
30228SOL     OW  997  12.522   4.935   5.611  0.3392  0.0569  0.4562
30228SOL    HW1  998  12.597   4.914   5.667  1.6414 -1.6021 -1.7124
30228SOL    HW2  999  12.487   4.849   5.587  0.2056  0.6684 -1.6765
30229SOL     OW 1000   5.698   2.215   3.823  0.0263  0.0158 -0.3956
30229SOL    HW1 1001   5.629   2.183   3.881 -0.0172  0.1378 -0.3803
30229SOL    HW2 1002   5.652   2.241   3.743  0.1839 -1.0112 -0.8417
30230SOL     OW 1003   6.660  11.122  12.810 -0.1733 -0.1878 -0.1166
30230SOL    HW1 1004   6.683  11.092  12.898  3.3358 -3.1488 -1.7533
30230SOL    HW2 1005   6.719  11.195  12.794  1.3019 -1.4929 -0.9017
30231SOL     OW 1006   9.796   0.534  12.383  0.0219  0.1671  0.2482
30231SOL    HW1 1007   9.760   0.544  12.295 -0.9262 -0.6313  0.5307
30231SOL    HW2 1008   9.862   0.464  12.374 -1.6875 -1.5706  0.5826
30232SOL     OW 1009  10.923   1.384   0.994  0.2580  0.0102  0.1721
30232SOL    HW1 1010  10.916   1.475   1.024 -1.9677  0.2498 -0.8656
30232SOL    HW2 1011  10.994   1.348   1.046  1.0845  2.2846  0.7704
30233SOL     OW 1012   3.950   7.481   2.845 -0.1902  0.0169 -0.3575
30233SOL    HW1 1013   4.035   7.525   2.841  0.0821 -0.2457  1.6337
30233SOL    HW2 1014   3.888   7.552   2.862  0.1042 -0.1194  1.6221
30234SOL     OW 1015   0.762   6.829   1.027  0.2971  0.1524  0.0101
30234SOL    HW1 1016   0.671   6.841   1.052 -0.0486  0.3037 -1.2438
30234SOL    HW2 1017   0.807   6.906   1.061  0.1615 -0.3581  1.4387
30235SOL     OW 1018   7.811   9.972   5.330  0.1984 -0.6110  0.1430
30235SOL    HW1 1019   7.813   9.904   5.398  0.6513 -2.4416 -1.6049
30235SOL    HW2 1020   7.722  10.007   5.334  0.0389 -1.0809  1.2685
30236SOL     OW 1021   3.593   8.408   8.603 -0.3252 -0.0997 -0.4537
30236SOL    HW1 1022   3.648   8.456   8.666 -0.0655 -0.0293 -0.7333
30236SOL    HW2 1023   3.539   8.351   8.658 -1.6931  1.5416 -0.0055
30237SOL     OW 1024   2.566   3.612  12.087  0.2268 -1.2830  0.1111
30237SOL    HW1 1025   2.626   3.567  12.147  0.3776  1.0260  1.8356
30237SOL    HW2 1026   2.623   3.670  12.037 -0.0830 -2.2466 -1.4326
30238SOL     OW 1027   1.346   7.648  10.260 -0.1214  0.4878 -0.1791
30238SOL    HW1 1028   1.251   7.649  10.246 -0.0452 -0.0125 -0.8043
30238SOL    HW2 1029   1.377   7.729  10.221 -0.0232 -0.4767 -2.2149
30239SOL     OW 1030   2.596   1.760   0.761  0.0277  0.6838  0.6101
30239SOL    HW1 1031   2.597   1.669   0.730 -0.2922  1.1902 -0.9684
30239SOL    HW2 1032   2.644   1.757   0.844  2.6243 -0.4699 -0.8004
30240SOL     OW 1033   7.565   0.165   5.764 -0.4067 -0.5064 -0.2710
30240SOL    HW1 1034   7.521   0.081   5.754 -0.0270 -0.7739  0.2024
30240SOL    HW2 1035   7.551   0.189   5.856  0.9850 -0.9313  0.0792
30241SOL     OW 1036   2.961   6.989   3.760 -0.2087 -0.0878 -0.2598
30241SOL    HW1 1037   2.941   7.043   3.683 -2.3628  0.2065  0.4283
30241SOL    HW2 1038   2.944   7.047   3.835 -2.3030 -1.5549  0.4939
30242SOL     OW 1039   4.522   2.724  10.231 -0.5587 -0.0800 -0.5840
30242SOL    HW1 1040   4.451   2.661  10.214 -0.6311 -0.0807 -0.2701
30242SOL    HW2 1041   4.519   2.783  10.156  0.1886 -1.0664 -1.4337
30243SOL     OW 1042   8.265   0.892   8.959  0.4449 -0.1301  0.4607
30243SOL    HW1 1043   8.270   0.905   9.053  0.9070  2.3925  0.1346
30243SOL    HW2 1044   8.172   0.905   8.938  0.5770  0.7101  0.3917
30244SOL     OW 1045  12.189   3.547   4.978  0.1821 -0.1616 -0.1727
30244SOL    HW1 1046  12.220   3.457   4.993 -1.8975 -0.9973 -0.4574
30244SOL    HW2 1047  12.229   3.572   4.895  1.2202 -0.5991  0.1708
30245SOL     OW 1048  10.207   9.271   2.147  0.0986 -0.1858  0.2150
30245SOL    HW1 1049  10.293   9.312   2.162  0.6622 -1.5183  0.7525
30245SOL    HW2 1050  10.216   9.227   2.063  0.0087 -0.4932  0.3664
30246SOL     OW 1051  12.434   5.761  10.804  0.3395 -0.9300  0.3090
30246SOL    HW1 1052  12.419   5.667  10.793 -1.2521 -0.5121 -1.8077
30246SOL    HW2 1053  12.348   5.797  10.823  0.5345  0.3270 -1.0038
30247SOL     OW 1054   0.372   7.373   6.680 -0.3709 -0.0601 -0.4510
30247SOL    HW1 1055   0.439   7.317   6.640  1.4305  0.4324  1.6522
30247SOL    HW2 1056   0.406   7.462   6.669 -1.7177  0.4038 -1.0982
30248SOL     OW 1057   1.361  10.410   6.134 -0.5655  0.4315  0.6210
30248SOL    HW1 1058   1.365  10.315   6.137 -0.4331  0.4034 -0.1468
30248SOL    HW2 1059   1.423  10.439   6.201  0.5483 -0.0315 -0.1702
30249SOL     OW 1060   3.189   6.078  12.387  0.4288  0.2395 -0.3913
30249SOL    HW1 1061   3.189   5.992  12.346  0.9081  0.3821 -0.6881
30249SOL    HW2 1062   3.279   6.110  12.378  0.1609  0.9440 -0.6510
30250SOL     OW 1063   5.298   8.751   5.845  0.0830  0.5346  0.3093
30250SOL    HW1 1064   5.365   8.709   5.792  0.9455 -0.2544  1.9439
30250SOL    HW2 1065   5.305   8.844   5.824 -1.2321  0.0701 -2.6694
30251SOL     OW 1066  12.703   5.455   9.459  0.2748  0.2136 -0.3743
30251SOL    HW1 1067  12.737   5.399   9.530  0.7221  2.1400  0.9961
30251SOL    HW2 1068  12.763   5.530   9.457 -1.3787  1.5749 -0.8767
30252SOL     OW 1069   5.687   5.365   7.083  0.3507 -0.1369  0.9130
30252SOL    HW1 1070   5.635   5.312   7.023  1.9637  1.5778 -2.2635
30252SOL    HW2 1071   5.692   5.312   7.163 -2.7240 -2.1556 -0.0145
30253SOL     OW 1072  11.673  12.823   4.276 -0.2363 -0.0538 -0.4489
30253SOL    HW1 1073  11.636  12.804   4.190 -0.5557 -1.4381 -0.0267
30253SOL    HW2 1074  11.606  12.797   4.339  0.7472 -0.9897  0.2708
30254SOL     OW 1075   1.462  12.585   4.484  0.5907 -0.3403  0.0305
30254SOL    HW1 1076   1.502  12.550   4.563 -0.5793 -2.1007 -0.1007
30254SOL    HW2 1077   1.374  12.613   4.512  0.2372 -0.8026 -0.5898
30255SOL     OW 1078   1.595   3.457   9.696  0.6413 -0.6341 -0.0766
30255SOL    HW1 1079   1.616   3.464   9.789  2.5567  0.6902 -0.5705
30255SOL    HW2 1080   1.679   3.460   9.651 -0.2579 -0.9398 -1.8993
30256SOL     OW 1081   2.732   4.528   3.226 -0.2600  0.2416  0.3501
30256SOL    HW1 1082   2.796   4.594   3.199 -0.1922  0.2121  0.4400
30256SOL    HW2 1083   2.762   4.499   3.312 -1.4002  1.5336  1.2121
30257SOL     OW 1084   9.865   9.160   3.301 -0.1852 -0.7089 -0.6719
30257SOL    HW1 1085   9.822   9.220   3.241 -0.8301  0.9646  1.3633
30257SOL    HW2 1086   9.799   9.094   3.321 -1.3661  0.9067  1.1211
30258SOL     OW 1087   8.886   2.112   1.146 -0.4978  0.0098  0.1666
30258SOL    HW1 1088   8.806   2.157   1.174  0.4610  1.2169  1.0376
30258SOL    HW2 1089   8.953   2.141   1.208  1.5208  2.0712 -2.7279
30259SOL     OW 1090   9.745  11.655   8.123 -0.3333  0.7474 -0.0860
30259SOL    HW1 1091   9.700  11.572   8.137  1.1027  0.3758  3.3925
30259SOL    HW2 1092   9.818  11.654   8.185  1.7553  3.2438 -2.2319
30260SOL     OW 1093  11.989   0.465   7.993 -0.3407 -0.0005  0.1601
30260SOL    HW1 1094  11.973   0.408   8.068  0.3810 -0.5649 -0.0940
30260SOL    HW2 1095  12.018   0.405   7.924  0.1326  0.6369 -0.2052
30261SOL     OW 1096   4.920   9.957   3.463 -0.3228  0.0992  0.1089
30261SOL    HW1 1097   4.949   9.924   3.378  1.0577  0.8793  0.2605
30261SOL    HW2 1098   5.000   9.969   3.514 -1.2070 -3.2779  2.6866
30262SOL     OW 1099  10.817   5.369   7.062 -0.2570  0.4466  0.3688
30262SOL    HW1 1100  10.843   5.306   7.129  2.1051  1.6323  0.6608
30262SOL    HW2 1101  10.887   5.434   7.061 -1.0781  1.4213 -2.0514
30263SOL     OW 1102  11.170  10.313   5.560  0.4167  0.1969 -0.0047
30263SOL    HW1 1103  11.263  10.290   5.562  0.1459 -0.9290  0.1115
30263SOL    HW2 1104  11.149  10.316   5.467  0.3615 -0.4395 -0.0160
30264SOL     OW 1105   5.347  11.339   8.769 -0.1697 -0.1270  0.3533
30264SOL    HW1 1106   5.424  11.289   8.742 -0.1764  0.4758 -0.8510
30264SOL    HW2 1107   5.353  11.343   8.864  1.1315 -0.3304  0.2963
30265SOL     OW 1108  10.098   3.706   1.303 -0.9414 -0.4246  0.1886
30265SOL    HW1 1109  10.086   3.619   1.265  0.6148 -0.0548 -1.2655
30265SOL    HW2 1110  10.128   3.689   1.392  2.0197 -1.5324 -0.8803
30266SOL     OW 1111   3.227  11.235   8.321  0.2515 -0.0273  0.1493
30266SOL    HW1 1112   3.183  11.285   8.252  2.0830  2.1414  0.3965
30266SOL    HW2 1113   3.292  11.182   8.275 -0.6589 -1.0259 -0.0019
30267SOL     OW 1114   8.921   6.650   8.894  0.6169 -0.0189  0.5848
30267SOL    HW1 1115   8.870   6.677   8.970  0.2788 -0.9867  0.7218
30267SOL    HW2 1116   8.865   6.671   8.819  1.2660  1.6322  0.5350
30268SOL     OW 1117   6.630   7.040  10.435 -0.1378 -0.1896  0.1647
30268SOL    HW1 1118   6.623   6.975  10.366 -2.2866 -0.9849  1.0505
30268SOL    HW2 1119   6.662   6.992  10.512 -0.5787  0.0409  0.4999
30269SOL     OW 1120   1.731   1.897   9.706  0.1008  0.3980 -0.7007
30269SOL    HW1 1121   1.727   1.959   9.779  0.1155 -0.2976 -0.0934
30269SOL    HW2 1122   1.797   1.934   9.647 -1.7984  2.3693 -1.7124
30270SOL     OW 1123   4.564   5.031   3.787 -0.5050  0.2377 -0.1632
30270SOL    HW1 1124   4.527   5.023   3.875 -0.0636  1.6539  0.1770
30270SOL    HW2 1125   4.654   5.001   3.796 -1.1498 -2.0330 -0.7219
30271SOL     OW 1126   7.102   9.387   4.117 -0.2123  0.5032 -0.2798
30271SOL    HW1 1127   7.015   9.373   4.155 -0.0436  1.5503  0.5407
30271SOL    HW2 1128   7.144   9.301   4.121 -0.5491  0.3805  1.0606
30272SOL     OW 1129  10.132   5.407   2.036  0.9714 -0.1157 -0.4161
30272SOL    HW1 1130  10.073   5.476   2.006  1.3239  0.7664  0.8212
30272SOL    HW2 1131  10.107   5.393   2.127  0.9526 -1.5919 -0.6293
30273SOL     OW 1132   9.985   2.940   2.111 -0.0110 -0.0445 -0.1590
30273SOL    HW1 1133   9.971   2.846   2.106  1.1312 -0.3874  1.8774
30273SOL    HW2 1134   9.953   2.964   2.199  0.8596  1.2337 -0.1623
30274SOL     OW 1135   7.788   1.108   9.494 -0.0858 -0.1990 -0.0149
30274SOL    HW1 1136   7.807   1.074   9.581  1.9987 -0.2594 -0.4352
30274SOL    HW2 1137   7.713   1.167   9.507  0.9108  0.7312  2.0464
30275SOL     OW 1138  12.347  10.752  12.688  0.2849 -0.0101  0.1698
30275SOL    HW1 1139  12.326  10.667  12.649 -0.3715 -0.2033  0.9270
30275SOL    HW2 1140  12.427  10.735  12.739 -1.2322 -0.8364  2.4093
30276SOL     OW 1141   3.223   3.059   8.222 -0.6155  0.2431 -0.0200
30276SOL    HW1 1142   3.292   3.120   8.194 -1.4656  0.9096 -0.7188
30276SOL    HW2 1143   3.270   2.988   8.265  0.4466  1.1242  0.3280
30277SOL     OW 1144  12.197   6.071  12.140  0.8324  0.3974  0.5382
30277SOL    HW1 1145  12.103   6.053  12.135  0.7127  1.1707 -0.1138
30277SOL    HW2 1146  12.230   6.053  12.052  1.2952  0.1412  0.7608
30278SOL     OW 1147   1.791   2.398   4.684  0.0125  0.3009 -0.0905
30278SOL    HW1 1148   1.879   2.433   4.667 -0.1001  0.7209  0.1797
30278SOL    HW2 1149   1.794   2.309   4.650  0.2013  0.6845 -1.1194
30279SOL     OW 1150   6.918  11.450   0.942 -0.2192 -0.0278  0.5761
30279SOL    HW1 1151   6.921  11.497   0.858  0.4064 -1.0412  0.0098
30279SOL    HW2 1152   6.839  11.396   0.936 -1.2294  1.3039  1.4427
30280SOL     OW 1153   8.453   6.263   5.830  0.3200 -0.5852  0.4095
30280SOL    HW1 1154   8.374   6.217   5.861 -1.3739  0.8248 -1.5444
30280SOL    HW2 1155   8.456   6.343   5.883 -0.2071 -0.1410 -0.2107
30281SOL     OW 1156   9.210   4.270   5.798 -0.3570  0.1153 -0.1225
30281SOL    HW1 1157   9.234   4.347   5.849 -0.2305  0.9453 -1.3953
30281SOL    HW2 1158   9.273   4.203   5.824 -0.5383  0.3979  1.0830
30282SOL     OW 1159   4.299   3.465   5.712  0.0441 -0.1985  0.1331
30282SOL    HW1 1160   4.243   3.430   5.642 -0.9680 -0.2701  0.9630
30282SOL    HW2 1161   4.242   3.526   5.759  0.8120  0.0711  0.7168
30283SOL     OW 1162  12.577   6.488  12.732  0.1398 -0.7615 -0.0444
30283SOL    HW1 1163  12.555   6.525  12.818 -1.9228 -0.8796 -0.4634
30283SOL    HW2 1164  12.561   6.395  12.741  3.0090 -1.3176  0.3000
30284SOL     OW 1165   0.938   9.458   2.597 -0.0642  0.0640  0.0585
30284SOL    HW1 1166   0.959   9.391   2.531  1.0135 -0.9711  1.3990
30284SOL    HW2 1167   0.873   9.417   2.653  0.6061  0.1337  0.8970
30285SOL     OW 1168  10.270   1.761  12.153  0.5916  0.1613 -0.0106
30285SOL    HW1 1169  10.332   1.730  12.087  0.5655 -2.0227  0.8977
30285SOL    HW2 1170  10.192   1.786  12.103  0.3800 -1.9252 -0.8648
30286SOL     OW 1171  10.216   6.955  10.109  0.2262  0.4668 -0.0588
30286SOL    HW1 1172  10.211   7.035  10.056  1.1479  0.4762 -0.1539
30286SOL    HW2 1173  10.279   6.977  10.178  1.2438 -0.4891 -0.6598
30287SOL     OW 1174  11.688   4.486   3.896 -0.5056  0.1134  0.1107
30287SOL    HW1 1175  11.641   4.566   3.920  0.0685  0.5506 -0.1907
30287SOL    HW2 1176  11.620   4.429   3.860 -0.8208  0.7130 -0.2681
30288SOL     OW 1177  12.806  10.839   3.795  0.2661  0.0273 -0.1310
30288SOL    HW1 1178  12.803  10.934   3.805 -2.1341 -0.0615  0.6945
30288SOL    HW2 1179  12.751  10.822   3.718  0.3814 -0.7053 -0.0564
30289SOL     OW 1180   5.922   6.766   4.150 -0.5065 -0.8137  0.3077
30289SOL    HW1 1181   5.958   6.809   4.228 -0.0194  0.0663 -0.3855
30289SOL    HW2 1182   5.856   6.826   4.117  2.0282  0.8600 -2.2297
30290SOL     OW 1183  10.323   0.320   0.264  0.1305 -0.0822  0.4166
30290SOL    HW1 1184  10.267   0.352   0.193 -0.3912 -0.4465  0.6584
30290SOL    HW2 1185  10.298   0.372   0.340  0.2808 -0.0949  0.4758
30291SOL     OW 1186   6.191  11.481   0.971 -0.3221 -0.2784 -0.4702
30291SOL    HW1 1187   6.103  11.500   1.005 -0.1736  1.2819 -0.9024
30291SOL    HW2 1188   6.243  11.557   0.995  0.5502 -0.5157 -1.5318
30292SOL     OW 1189  12.700  11.532  10.449 -0.3750 -0.0467 -0.1287
30292SOL    HW1 1190  12.667  11.481  10.374  0.8390  1.0237 -1.4639
30292SOL    HW2 1191  12.713  11.467  10.518 -1.4603 -1.0925 -0.8744
30293SOL     OW 1192   5.669  10.064  10.657  0.0900  0.3647 -0.3229
30293SOL    HW1 1193   5.759  10.066  10.690  0.7521  0.8028 -2.0550
30293SOL    HW2 1194   5.654  10.152  10.623 -1.3679  0.5895  0.7937
30294SOL     OW 1195   6.030  10.393   1.940 -0.2914 -0.4285  0.6883
30294SOL    HW1 1196   6.015  10.486   1.959 -1.4770 -0.5760  0.5649
30294SOL    HW2 1197   5.946  10.361   1.907  0.3278 -1.3582 -0.0669
30295SOL     OW 1198   7.128   1.497  12.610  0.0903 -0.2977  0.2559
30295SOL    HW1 1199   7.040   1.492  12.646  0.5745 -1.9993  1.3116
30295SOL    HW2 1200   7.151   1.590  12.615 -2.3449  0.5601 -1.9510
30296SOL     OW 1201   9.881   3.686  10.961 -0.3419  0.1274 -0.0197
30296SOL    HW1 1202   9.831   3.741  11.021 -1.7236 -0.0623 -0.9479
30296SOL    HW2 1203   9.958   3.738  10.940  0.6121 -0.1428  2.5200
30297SOL     OW 1204   6.613  10.265   3.505  0.0611 -0.9174  0.7068
30297SOL    HW1 1205   6.523  10.265   3.472  0.3286 -2.1071 -0.0671
30297SOL    HW2 1206   6.625  10.353   3.541 -0.7808 -0.1032 -0.8985
30298SOL     OW 1207  12.249   3.051   9.025  0.3511  0.0596  0.9523
30298SOL    HW1 1208  12.273   3.081   8.937 -0.0326 -1.6040  0.2560
30298SOL    HW2 1209  12.165   3.093   9.042 -1.4387 -2.3821 -1.0504
30299SOL     OW 1210   2.318   7.405  12.005 -0.0913 -0.1229 -0.1819
30299SOL    HW1 1211   2.354   7.441  12.086  0.9640  1.0070 -1.1091
30299SOL    HW2 1212   2.223   7.408  12.017  0.0513 -0.2146  1.0957
30300SOL     OW 1213  11.734   1.907   6.489 -0.3220  0.1023 -0.1575
30300SOL    HW1 1214  11.718   1.987   6.437  0.1610  1.2459  1.3825
30300SOL    HW2 1215  11.828   1.892   6.481 -0.4003 -0.2655 -0.3773
30301SOL     OW 1216   2.014  12.639   3.453  0.1880  0.3662  0.9515
30301SOL    HW1 1217   2.025  12.734   3.455  1.8450  0.3203 -1.6900
30301SOL    HW2 1218   2.104  12.605   3.456 -0.1645 -0.9436 -1.3787
30302SOL     OW 1219   2.263   6.516  12.841  0.4662 -0.0924  0.9164
30302SOL    HW1 1220   2.266   6.557  12.927  0.5958  0.1644  0.7909
30302SOL    HW2 1221   2.198   6.447  12.849  0.8215 -0.3829  1.3549
30303SOL     OW 1222  11.851   1.884   2.833 -0.2027  0.0621 -0.3614
30303SOL    HW1 1223  11.765   1.889   2.792  0.7592 -0.8879 -2.7000
30303SOL    HW2 1224  11.878   1.793   2.822  2.0941  0.8330 -2.0695
30304SOL     OW 1225   3.670   7.707   6.257  0.2534  0.0019  0.1648
30304SOL    HW1 1226   3.691   7.795   6.227 -2.2628  0.4429 -0.5833
30304SOL    HW2 1227   3.633   7.718   6.344  1.3168 -0.5161  0.6998
30305SOL     OW 1228   6.072   4.034   2.166 -0.6128  0.0100 -0.1851
30305SOL    HW1 1229   6.022   4.116   2.171 -0.6966 -0.1099  1.6402
30305SOL    HW2 1230   6.010   3.971   2.129 -1.1708  0.3430  0.1610
30306SOL     OW 1231   0.122   4.002   2.423  0.1783  0.1633  0.2019
30306SOL    HW1 1232   0.104   4.025   2.332  1.8332 -0.4328 -0.3113
30306SOL    HW2 1233   0.082   4.073   2.474 -1.7139 -0.0536 -0.9019
30307SOL     OW 1234   8.536   4.477   4.438  0.7100  0.0046  0.2129
30307SOL    HW1 1235   8.521   4.567   4.466  0.0724 -0.4268  1.3106
30307SOL    HW2 1236   8.511   4.423   4.513 -1.1328 -1.2068 -1.1557
30308SOL     OW 1237   8.468   5.436  12.058  0.4598  0.1806 -0.0153
30308SOL    HW1 1238   8.535   5.493  12.019  0.3836  0.9708  0.9665
30308SOL    HW2 1239   8.474   5.454  12.152  0.1223 -1.1170  0.2661
30309SOL     OW 1240   9.213   1.608  12.823 -0.5437  0.3869 -0.0111
30309SOL    HW1 1241   9.206   1.644  12.912 -1.6510  1.4514 -0.4923
30309SOL    HW2 1242   9.144   1.653  12.774  0.3343  0.1398 -1.5241
30310SOL     OW 1243   4.820   5.036   3.888  0.2894 -0.2507  0.5883
30310SOL    HW1 1244   4.846   5.097   3.957 -1.2986  1.0423  0.1044
30310SOL    HW2 1245   4.902   5.000   3.855  1.1077 -0.5902  2.8360
30311SOL     OW 1246   1.435   0.852   8.494 -0.7043 -0.9050 -0.2093
30311SOL    HW1 1247   1.458   0.943   8.478 -0.6473 -1.1216 -1.3977
30311SOL    HW2 1248   1.436   0.810   8.408  4.0331 -3.1653  0.6485
30312SOL     OW 1249  10.041   8.147   2.269 -0.1405  0.5849 -0.6200
30312SOL    HW1 1250  10.088   8.093   2.205 -0.0370 -0.7905  0.5594
30312SOL    HW2 1251  10.048   8.098   2.351  0.9994  2.9845  0.8176
30313SOL     OW 1252   3.948   0.519   8.841 -0.7337  0.0720  0.1450
30313SOL    HW1 1253   3.952   0.432   8.880 -1.5519  0.1785  0.4910
30313SOL    HW2 1254   3.896   0.571   8.903  0.4730  1.0431  0.3833
30314SOL     OW 1255  12.137   2.816   3.983 -0.1475 -0.0067 -0.6024
30314SOL    HW1 1256  12.042   2.819   3.991 -0.0772  0.0343  0.3146
30314SOL    HW2 1257  12.167   2.898   4.022  0.1841  0.7914 -2.4790
30315SOL     OW 1258  11.705   1.573   3.552 -0.0384  0.2962 -0.0493
30315SOL    HW1 1259  11.707   1.663   3.585  0.1785 -0.6080  2.6522
30315SOL    HW2 1260  11.782   1.566   3.496  0.1511  1.6690 -0.0019
30316SOL     OW 1261   8.243   4.083   5.106  0.2065 -0.1707 -0.4461
30316SOL    HW1 1262   8.174   4.097   5.171  1.0612  0.2604  0.3864
30316SOL    HW2 1263   8.221   4.143   5.035  0.9285  1.6104  0.7807
30317SOL     OW 1264  12.836   2.304   0.013  0.0427  0.2673 -0.4068
30317SOL    HW1 1265  12.792   2.339   0.090  3.1916  0.5500  1.4677
30317SOL    HW2 1266  12.877   2.380  -0.027  0.9910 -0.2808 -0.5036
30318SOL     OW 1267   9.208   6.009  12.556  0.2688 -0.1288  0.3556
30318SOL    HW1 1268   9.147   6.080  12.535 -0.8812 -1.2276 -0.1440
30318SOL    HW2 1269   9.243   5.981  12.472  3.0196  1.7485  0.7622
30319SOL     OW 1270   3.856   9.071  10.368 -1.1407  0.1909 -0.2296
30319SOL    HW1 1271   3.781   9.104  10.318  0.6404  2.1556 -1.7652
30319SOL    HW2 1272   3.924   9.136  10.355  1.1847 -1.9793  0.3399
30320SOL     OW 1273   6.727  12.759  10.872 -0.5785  0.2038  0.0855
30320SOL    HW1 1274   6.780  12.767  10.951 -1.9023 -0.5367  1.0829
30320SOL    HW2 1275   6.670  12.684  10.888  0.0596 -0.8473 -2.1458
30321SOL     OW 1276   1.711   0.954   4.448 -0.3989 -0.3679  0.5678
30321SOL    HW1 1277   1.790   0.900   4.453 -0.6534 -0.6371  2.4352
30321SOL    HW2 1278   1.648   0.910   4.505 -1.0900  1.1079  1.0164
30322SOL     OW 1279   0.286   5.765   8.009  0.2397 -0.3134 -0.2400
30322SOL    HW1 1280   0.275   5.680   7.967  1.3074 -1.1089  1.0332
30322SOL    HW2 1281   0.379   5.785   7.999  0.0195  0.6792 -0.4421
30323SOL     OW 1282   5.109  11.345   1.534  0.2014  0.1325  0.7517
30323SOL    HW1 1283   5.053  11.297   1.595 -1.0041 -1.2407 -1.3334
30323SOL    HW2 1284   5.164  11.279   1.493 -0.1767  0.7497 -0.8309
30324SOL     OW 1285   8.988   7.887  10.428  0.4168  0.1489  0.0334
30324SOL    HW1 1286   9.055   7.873  10.495  1.5046  0.2438 -1.0099
30324SOL    HW2 1287   9.036   7.916  10.351 -0.9055  0.9665 -0.5242
30325SOL     OW 1288   8.452   5.838   5.141  0.3877 -0.2118  0.3539
30325SOL    HW1 1289   8.526   5.810   5.195 -0.2110 -0.6024  0.9902
30325SOL    HW2 1290   8.392   5.880   5.202 -0.4933 -1.0330  0.0694
30326SOL     OW 1291   6.251   2.363   2.983  0.1428 -0.1143 -0.2052
30326SOL    HW1 1292   6.320   2.299   2.969 -0.6925 -0.6580 -2.3545
30326SOL    HW2 1293   6.228   2.393   2.894 -1.0697  1.4447  0.5774
30327SOL     OW 1294  11.931   5.893   8.180 -0.3709 -0.3846  0.3592
30327SOL    HW1 1295  11.961   5.939   8.101 -1.6328  1.1317  0.7130
30327SOL    HW2 1296  12.010   5.853   8.215  0.2856 -0.8155 -1.4737
30328SOL     OW 1297   7.367   7.902  10.597 -0.4142  0.5183  0.4366
30328SOL    HW1 1298   7.419   7.823  10.608  0.3152  0.9932  0.4071
30328SOL    HW2 1299   7.366   7.943  10.683  0.0123  0.9696  0.2282
30329SOL     OW 1300   5.762  12.143   9.298  0.8674  0.1556  0.5005
30329SOL    HW1 1301   5.790  12.234   9.300  1.2818  0.0400  2.2722
30329SOL    HW2 1302   5.810  12.102   9.370  0.4785 -1.4029 -0.0830
30330SOL     OW 1303  11.364   3.102   1.768 -0.2079  0.0118 -0.5438
30330SOL    HW1 1304  11.383   3.012   1.741 -1.1096 -0.2971 -0.1907
30330SOL    HW2 1305  11.432   3.155   1.727  0.1404 -0.7950 -1.0191
30331SOL     OW 1306  10.235   1.423   6.048  0.4395  0.3468  0.3173
30331SOL    HW1 1307  10.299   1.461   5.988 -0.1230  0.0672 -0.4676
30331SOL    HW2 1308  10.200   1.498   6.096  0.9839  0.5589  0.3894
30332SOL     OW 1309   0.885   8.301   1.696  0.2480 -0.3483  0.0122
30332SOL    HW1 1310   0.815   8.366   1.703 -0.2903 -0.9153 -0.0313
30332SOL    HW2 1311   0.852   8.237   1.634  0.2907 -1.2617  0.9120
30333SOL     OW 1312   0.799   0.321   9.840 -0.3794 -0.2265  0.1068
30333SOL    HW1 1313   0.779   0.372   9.761 -2.4213 -2.0021 -0.6345
30333SOL    HW2 1314   0.713   0.306   9.880  0.3524 -1.5156  1.2610
30334SOL     OW 1315   6.786  12.583   1.228 -0.4147 -0.3467  0.2382
30334SOL    HW1 1316   6.731  12.660   1.244 -1.7517 -1.4814  1.3513
30334SOL    HW2 1317   6.772  12.526   1.304  1.6167 -1.1059  0.1064
30335SOL     OW 1318   5.623   6.354   1.081 -0.3557  0.6793  0.5616
30335SOL    HW1 1319   5.598   6.445   1.100  0.3734  0.8545  0.7345
30335SOL    HW2 1320   5.650   6.356   0.989 -1.9831  0.2594  0.0562
30336SOL     OW 1321   8.527   6.963   2.198  0.1007  0.3903 -0.3255
30336SOL    HW1 1322   8.555   6.916   2.276 -0.5778  1.1647  0.4063
30336SOL    HW2 1323   8.432   6.972   2.208  0.1612  1.5445 -0.6222
30337SOL     OW 1324  12.586  10.008  10.209  0.0820 -0.1046 -0.3066
30337SOL    HW1 1325  12.570  10.092  10.252  1.3821 -0.2538  0.5096
30337SOL    HW2 1326  12.558   9.943  10.274  0.4629 -0.3168 -0.3539
30338SOL     OW 1327   7.341   9.913   6.943  0.2282  0.2359  0.2277
30338SOL    HW1 1328   7.277   9.855   6.984  0.6986  0.7471  1.7905
30338SOL    HW2 1329   7.331   9.996   6.991 -0.1906  1.3632 -1.7159
30339SOL     OW 1330   1.362   1.532   0.455  0.7549  0.1723  0.3327
30339SOL    HW1 1331   1.340   1.440   0.467 -0.8636  0.6290  1.0700
30339SOL    HW2 1332   1.378   1.542   0.361  1.6900 -0.9935  0.3516
30340SOL     OW 1333  10.050   8.243   9.682 -0.4496  0.5188 -0.0045
30340SOL    HW1 1334  10.133   8.250   9.634  0.3176  0.2981  1.2281
30340SOL    HW2 1335  10.017   8.156   9.662  0.2549  0.1368  0.4583
30341SOL     OW 1336   4.389   5.580   5.949  0.0490  0.3909 -0.1647
30341SOL    HW1 1337   4.414   5.673   5.953  0.2547  0.4461 -1.8200
30341SOL    HW2 1338   4.465   5.533   5.983  0.1358  0.8087  0.2254
30342SOL     OW 1339  12.834  11.231   7.913 -0.2680 -0.1450 -0.2613
30342SOL    HW1 1340  12.864  11.140   7.915 -1.2652 -0.6025 -2.5423
30342SOL    HW2 1341  12.766  11.235   7.980  0.0986 -0.9363  0.1803
30343SOL     OW 1342   1.224   0.547   1.160 -0.0436  0.0970 -0.5448
30343SOL    HW1 1343   1.192   0.458   1.174  0.3082  0.2492  1.5073
30343SOL    HW2 1344   1.154   0.603   1.192  0.1732  0.5473 -0.8490
30344SOL     OW 1345  10.085   2.537   5.871  0.0329  0.4636  0.2970
30344SOL    HW1 1346  10.162   2.578   5.831  1.1467 -0.6827  1.1865
30344SOL    HW2 1347  10.017   2.542   5.803  0.5145  2.5014 -0.1103
30345SOL     OW 1348  11.289   8.872   8.909  0.0884  0.1224 -0.3285
30345SOL    HW1 1349  11.225   8.923   8.859  0.0804  0.4257 -0.0123
30345SOL    HW2 1350  11.288   8.912   8.996  1.6029  0.9237 -0.6549
30346SOL     OW 1351   7.145   4.884   5.576 -0.2641 -0.3698 -0.6825
30346SOL    HW1 1352   7.113   4.935   5.651  0.7867 -3.9910  2.5453
30346SOL    HW2 1353   7.240   4.881   5.589 -0.1263 -1.5215 -1.8735
30347SOL     OW 1354   0.255   9.381   7.975 -0.4383  0.3952  0.2755
30347SOL    HW1 1355   0.338   9.353   7.935 -0.8420  1.2881 -1.2699
30347SOL    HW2 1356   0.242   9.470   7.943 -1.1395  0.9294  1.9339
30348SOL     OW 1357  11.684   6.913   9.044 -0.3683  0.3900  0.4225
30348SOL    HW1 1358  11.650   6.825   9.024 -1.7621  0.5513  1.8770
30348SOL    HW2 1359  11.644   6.970   8.978  0.9414 -0.0766 -0.8536
30349SOL     OW 1360   1.517   2.721   4.819  0.1816  0.5433  0.5286
30349SOL    HW1 1361   1.500   2.716   4.725 -1.9661 -2.4953  0.9328
30349SOL    HW2 1362   1.595   2.666   4.832  0.1017  0.4359  0.5617
30350SOL     OW 1363   5.245   7.602  11.272 -0.1423  0.5015 -0.4601
30350SOL    HW1 1364   5.155   7.579  11.295  0.4875 -0.6506  1.0098
30350SOL    HW2 1365   5.289   7.518  11.258  1.1485  0.9382  0.7168
30351SOL     OW 1366  11.743   7.252   2.375  0.0683 -0.5435 -0.5362
30351SOL    HW1 1367  11.783   7.339   2.376 -2.4271  0.8012  3.2815
30351SOL    HW2 1368  11.678   7.255   2.445 -2.5981 -4.4056 -2.5326
30352SOL     OW 1369   8.703   8.827   6.841 -0.5933  0.2999  0.2956
30352SOL    HW1 1370   8.797   8.808   6.844 -0.5344  0.2158 -1.2417
30352SOL    HW2 1371   8.664   8.772   6.909  0.5534  0.9373  1.5122
30353SOL     OW 1372  11.854   6.430   8.959  0.0473 -0.1731  0.7884
30353SOL    HW1 1373  11.798   6.392   8.891 -0.6304 -0.9955  1.7651
30353SOL    HW2 1374  11.835   6.378   9.037  0.3812  1.1108  1.7556
30354SOL     OW 1375   6.436   4.881   7.000  0.3662 -0.0722  0.3145
30354SOL    HW1 1376   6.415   4.955   6.943  1.7417 -0.1376 -0.3288
30354SOL    HW2 1377   6.380   4.810   6.970  0.7430  0.0350 -0.6542
30355SOL     OW 1378   4.493   4.922   8.759  0.3197  0.3673 -0.3999
30355SOL    HW1 1379   4.487   5.017   8.757  1.1962  0.4136 -1.3115
30355SOL    HW2 1380   4.412   4.892   8.718  0.6699  0.7527 -1.4001
30356SOL     OW 1381   3.613   7.324  10.450  0.1021 -0.1836 -0.3353
30356SOL    HW1 1382   3.548   7.321  10.381  0.1530 -0.1280 -0.3865
30356SOL    HW2 1383   3.572   7.375  10.520  1.3284  3.0060 -1.7226
30357SOL     OW 1384  12.579  11.142   1.324 -0.6855  0.6282  0.0377
30357SOL    HW1 1385  12.624  11.225   1.340 -0.7880  0.4809  1.1280
30357SOL    HW2 1386  12.649  11.078   1.313 -0.5809  0.9576 -1.5721
30358SOL     OW 1387   2.976  11.651   7.083  0.0512 -0.2987 -0.0696
30358SOL    HW1 1388   2.900  11.682   7.131 -0.2459  0.0355 -0.7370
30358SOL    HW2 1389   2.940  11.618   7.000  0.5566 -0.7696 -0.1101
30359SOL     OW 1390  11.327   1.598   4.751  0.0039 -0.1002 -0.0333
30359SOL    HW1 1391  11.308   1.633   4.664 -1.1045 -0.0518  0.2080
30359SOL    HW2 1392  11.242   1.566   4.783  0.3661 -0.0200  1.0599
30360SOL     OW 1393   7.922   1.725   2.677  0.1216  0.3090  0.0074
30360SOL    HW1 1394   7.987   1.796   2.675 -0.6798  1.0314 -1.7447
30360SOL    HW2 1395   7.944   1.670   2.601 -0.7490  0.0290 -0.0473
30361SOL     OW 1396  11.105  12.070   9.061  0.2151  0.3326  0.2341
30361SOL    HW1 1397  11.101  12.140   9.126 -0.3411  1.9132 -1.4108
30361SOL    HW2 1398  11.023  12.078   9.012  0.7641 -0.5777 -0.8832
30362SOL     OW 1399   7.801   5.058   6.463 -0.1617  0.0349 -0.2874
30362SOL    HW1 1400   7.748   4.980   6.477  1.3835 -1.1192 -0.6873
30362SOL    HW2 1401   7.792   5.107   6.545 -1.1052 -0.5598 -0.0150
30363SOL     OW 1402   4.892   5.867   6.322  0.5270  0.0468  0.0572
30363SOL    HW1 1403   4.906   5.891   6.414  2.4228 -0.6023 -0.0170
30363SOL    HW2 1404   4.905   5.772   6.320  1.5225  0.1797 -1.0248
30364SOL     OW 1405  10.271   7.159   3.325 -0.4723 -0.2751 -0.0130
30364SOL    HW1 1406  10.348   7.149   3.380 -0.2592  0.7516 -0.1088
30364SOL    HW2 1407  10.261   7.253   3.314 -0.1822 -0.4451 -2.1844
30365SOL     OW 1408  12.782   5.272   7.521  0.0825 -0.8614  0.1414
30365SOL    HW1 1409  12.802   5.353   7.568  0.3524 -0.7783 -0.1149
30365SOL    HW2 1410  12.728   5.300   7.448 -0.0421 -0.9477  0.1994
30366SOL     OW 1411  10.130   7.878  10.641 -0.2728  0.4367  0.0147
30366SOL    HW1 1412  10.056   7.926  10.606 -0.6136  1.0405  1.4921
30366SOL    HW2 1413  10.102   7.849  10.728  1.0276  0.2330  0.4012
30367SOL     OW 1414   3.830   3.780   5.958  0.0845 -0.1910  0.3234
30367SOL    HW1 1415   3.744   3.794   5.919  0.4074 -2.5596 -1.4596
30367SOL    HW2 1416   3.891   3.825   5.899  0.2754 -0.9342 -0.0673
30368SOL     OW 1417   1.672   2.388   0.487  0.9222  0.0987 -0.1104
30368SOL    HW1 1418   1.708   2.475   0.471  0.4408  0.1789 -0.7977
30368SOL    HW2 1419   1.691   2.339   0.407  1.8756 -0.6702  0.5685
30369SOL     OW 1420   2.761   5.075   8.514  0.5875 -0.1831 -0.2606
30369SOL    HW1 1421   2.720   4.998   8.553  1.2824 -0.0783  0.6886
30369SOL    HW2 1422   2.736   5.147   8.572  0.7081  0.1630 -0.6360
30370SOL     OW 1423  10.792   5.578   0.971 -0.4484  0.2757  0.0421
30370SOL    HW1 1424  10.846   5.654   0.994  0.9788 -0.6733 -0.0487
30370SOL    HW2 1425  10.779   5.532   1.053  1.2639 -0.9655 -0.3240
30371SOL     OW 1426   6.786   6.236   4.283  0.2089 -0.1077  0.8709
30371SOL    HW1 1427   6.739   6.303   4.233 -1.6397 -2.5386 -0.8406
30371SOL    HW2 1428   6.860   6.212   4.227  0.4359 -0.0185  1.1333
30372SOL     OW 1429   8.499   9.944   5.194  0.2185  0.7851  0.6606
30372SOL    HW1 1430   8.525  10.011   5.131  2.4271  0.1654  0.8206
30372SOL    HW2 1431   8.533   9.974   5.277 -0.3094  0.2956  1.0674
30373SOL     OW 1432   9.093   3.551   8.214 -0.3320 -0.4107 -0.6943
30373SOL    HW1 1433   9.018   3.491   8.214  0.2759 -1.2826 -2.9678
30373SOL    HW2 1434   9.071   3.617   8.148  1.1219 -1.0490 -1.8706
30374SOL     OW 1435   9.687   3.893   5.145  0.3313  0.1114  0.4266
30374SOL    HW1 1436   9.620   3.883   5.077  0.1948 -1.2506  0.7221
30374SOL    HW2 1437   9.640   3.881   5.227  0.5510  1.4403  0.7701
30375SOL     OW 1438   2.599  11.661  10.155  0.4003 -0.4716  0.5996
30375SOL    HW1 1439   2.693  11.666  10.171  0.4956  2.7983 -0.1718
30375SOL    HW2 1440   2.588  11.694  10.066 -1.3905 -2.3917  0.0395
30376SOL     OW 1441  11.904  10.929   2.375  0.4436  0.0581 -0.0770
30376SOL    HW1 1442  11.969  10.994   2.345  0.8221 -0.4885 -0.4750
30376SOL    HW2 1443  11.875  10.887   2.294 -1.2150  1.0136 -0.0170
30377SOL     OW 1444   6.168   2.520   8.421  0.0438 -0.5711  0.2857
30377SOL    HW1 1445   6.082   2.491   8.450 -0.1668  2.0373  2.7191
30377SOL    HW2 1446   6.151   2.600   8.371  1.0027 -0.6038 -0.1166
30378SOL     OW 1447   8.066  10.407   4.933 -0.2223  0.0814 -0.5403
30378SOL    HW1 1448   8.047  10.334   4.992 -0.2551  0.4910 -0.0338
30378SOL    HW2 1449   8.007  10.394   4.858  0.3001 -0.8163 -0.8103
30379SOL     OW 1450   5.430   9.377   2.443 -0.1199 -0.7249  0.5809
30379SOL    HW1 1451   5.441   9.318   2.517 -0.1250 -0.6171  0.6691
30379SOL    HW2 1452   5.517   9.416   2.430  0.6251 -2.8177 -1.2707
30380SOL     OW 1453   5.187   2.321   8.725 -0.1533 -0.0053  0.1671
30380SOL    HW1 1454   5.186   2.251   8.790 -1.2350 -2.1661 -2.0274
30380SOL    HW2 1455   5.112   2.303   8.669 -0.4506  2.9397 -0.5391
30381SOL     OW 1456   7.892   9.056   2.536  0.4227 -0.0834  0.2962
30381SOL    HW1 1457   7.906   9.093   2.449 -0.4441 -0.1357  0.1225
30381SOL    HW2 1458   7.913   9.127   2.596 -0.2022  0.3610 -0.0009
30382SOL     OW 1459   8.976   0.621   7.026 -0.3737  0.1702 -0.0994
30382SOL    HW1 1460   8.894   0.663   7.000 -1.9792 -0.6874  3.0619
30382SOL    HW2 1461   8.993   0.558   6.956 -2.3972  0.3953 -0.8812
30383SOL     OW 1462   5.325   8.212   0.676 -0.3853  0.1053 -0.0578
30383SOL    HW1 1463   5.376   8.232   0.598 -0.3626 -1.0172 -0.3422
30383SOL    HW2 1464   5.237   8.193   0.643 -1.4961  3.4762  0.5310
30384SOL     OW 1465   2.678   8.143  10.552  0.1495  0.1067 -0.3164
30384SOL    HW1 1466   2.697   8.231  10.585 -1.6002  0.9137 -1.3619
30384SOL    HW2 1467   2.764   8.110  10.524  0.9528  1.1717  0.7689
30385SOL     OW 1468   2.209   0.180   1.397 -0.2158  0.0881 -0.0722
30385SOL    HW1 1469   2.115   0.196   1.405 -0.2262  0.0414 -0.1007
30385SOL    HW2 1470   2.223   0.167   1.303 -0.3200 -0.7596  0.0156
30386SOL     OW 1471   1.710   2.696   2.871 -0.2439  0.2064 -0.3242
30386SOL    HW1 1472   1.685   2.784   2.899 -1.0148  0.3428 -1.3731
30386SOL    HW2 1473   1.779   2.670   2.932 -1.3468  0.7565  1.2259
30387SOL     OW 1474   4.612  10.225   2.793 -0.1539 -0.6018  0.0422
30387SOL    HW1 1475   4.657  10.141   2.800  3.3455  1.1376  1.2047
30387SOL    HW2 1476   4.603  10.254   2.884 -0.4744  0.6709 -0.3787
30388SOL     OW 1477  12.795   0.767   3.186 -0.5350  0.1142 -0.5504
30388SOL    HW1 1478  12.790   0.679   3.225 -0.2379  0.4246  0.2088
30388SOL    HW2 1479  12.748   0.823   3.247  1.0889  0.8444  0.1102
30389SOL     OW 1480  11.059   2.819   1.402  0.2657  0.5503  0.4992
30389SOL    HW1 1481  10.988   2.840   1.463  0.8470 -0.1531  1.4553
30389SOL    HW2 1482  11.032   2.736   1.363 -0.3052  1.2053 -0.5487
30390SOL     OW 1483   8.675   1.309  12.150  0.2881 -0.1231  0.4298
30390SOL    HW1 1484   8.605   1.276  12.206  1.6860  0.4412  2.6415
30390SOL    HW2 1485   8.658   1.402  12.140  0.9280  0.1066  1.3546
30391SOL     OW 1486   9.667   0.714   9.971 -0.5617  0.2853  0.1337
30391SOL    HW1 1487   9.703   0.691  10.057  1.3140  0.9752 -0.4176
30391SOL    HW2 1488   9.573   0.712   9.984 -0.3460 -0.6114  1.9494
30392SOL     OW 1489   0.733   6.918   3.034 -0.1553 -0.2359 -0.1505
30392SOL    HW1 1490   0.692   6.997   3.071  0.4859 -0.0931  0.2766
30392SOL    HW2 1491   0.818   6.913   3.078 -1.1386 -2.5297  1.6796
30393SOL     OW 1492   4.233   2.701   2.394  0.0771  0.7460  0.0985
30393SOL    HW1 1493   4.328   2.707   2.378  0.0928 -0.0357 -0.1730
30393SOL    HW2 1494   4.213   2.608   2.383 -1.0490  1.1502 -1.7249
30394SOL     OW 1495  11.113  10.030  12.285 -0.0613  0.6141  0.1074
30394SOL    HW1 1496  11.092  10.026  12.378  0.5192  0.1229  0.2238
30394SOL    HW2 1497  11.133  10.122  12.269 -2.1728  1.0990  0.0059
30395SOL     OW 1498   9.595   2.688  12.023 -0.0698 -0.1811 -0.5478
30395SOL    HW1 1499   9.556   2.675  12.109 -0.5613  0.6493 -0.6318
30395SOL    HW2 1500   9.521   2.681  11.962  0.2437 -0.5811 -0.8866
30396SOL     OW 1501   0.159   9.200   4.093 -0.7778 -0.4832  0.0005
30396SOL    HW1 1502   0.181   9.272   4.034 -0.5169 -1.4674 -1.1639
30396SOL    HW2 1503   0.224   9.133   4.074 -0.2252 -0.5696  1.9790
30397SOL     OW 1504   3.520  12.830  12.358 -0.1429  0.0689  0.7964
30397SOL    HW1 1505   3.518  12.759  12.423  2.0417  0.4448  1.3541
30397SOL    HW2 1506   3.486  12.906  12.406  1.5768  0.3754  1.6015
30398SOL     OW 1507   9.264   4.601   7.021  0.2101  0.5143  0.2674
30398SOL    HW1 1508   9.240   4.509   7.011  1.3360  0.3087 -0.7119
30398SOL    HW2 1509   9.207   4.633   7.091 -0.5150 -0.8028  0.3103
30399SOL     OW 1510   4.174  12.685   6.292  0.2216 -0.0323 -0.0338
30399SOL    HW1 1511   4.194  12.742   6.218  0.0155  1.6842  1.1782
30399SOL    HW2 1512   4.207  12.599   6.265 -2.1671 -0.1356 -3.1613
30400SOL     OW 1513   1.315   8.878  10.750 -0.5385 -0.6050 -0.4358
30400SOL    HW1 1514   1.410   8.875  10.737 -0.4880 -1.0929  0.0442
30400SOL    HW2 1515   1.279   8.829  10.676 -0.4461  0.0135 -0.8975
30401SOL     OW 1516  12.248  12.814   6.176  0.4748  0.6693 -0.6145
30401SOL    HW1 1517  12.287  12.896   6.148  0.9564  0.3666 -0.8329
30401SOL    HW2 1518  12.289  12.795   6.260  0.4552  0.5868 -0.6232
30402SOL     OW 1519   0.473  12.015   5.329 -0.4344 -0.0937  0.2692
30402SOL    HW1 1520   0.549  11.965   5.359  0.3075  1.3340  0.8599
30402SOL    HW2 1521   0.503  12.059   5.249 -1.1199 -0.6737 -0.3211
30403SOL     OW 1522  10.256   6.034   7.688 -0.0627 -0.6283 -0.0492
30403SOL    HW1 1523  10.218   6.106   7.637 -1.0975  0.0849  1.6577
30403SOL    HW2 1524  10.351   6.045   7.677 -0.2273  0.3321 -0.6946
30404SOL     OW 1525   2.694   7.266   7.203 -0.7053 -0.3392 -0.0537
30404SOL    HW1 1526   2.604   7.251   7.231 -1.7109 -0.4828 -3.0297
30404SOL    HW2 1527   2.709   7.359   7.219 -0.1310 -0.9161  3.4721
30405SOL     OW 1528  11.620  12.505  12.778 -0.0157  0.3069  0.1949
30405SOL    HW1 1529  11.654  12.463  12.699  0.8023  3.5069 -1.3317
30405SOL    HW2 1530  11.685  12.486  12.845  1.0844  0.3795 -0.8109
30406SOL     OW 1531   3.706   2.833   6.738  0.6223  0.2468  0.6678
30406SOL    HW1 1532   3.648   2.902   6.770 -1.7779 -0.5130 -1.6058
30406SOL    HW2 1533   3.676   2.754   6.784  0.9560  0.1275  0.6790
30407SOL     OW 1534   4.229   5.398   1.968 -0.2440 -0.2572 -0.4698
30407SOL    HW1 1535   4.316   5.377   2.002 -0.5178  2.0200  1.9248
30407SOL    HW2 1536   4.169   5.349   2.025 -0.5885 -0.2289 -0.8050
30408SOL     OW 1537   0.447   0.745   9.376 -0.1094 -0.1475  0.4536
30408SOL    HW1 1538   0.449   0.652   9.357 -0.5343 -0.2458  0.8780
30408SOL    HW2 1539   0.523   0.781   9.331  0.0206 -0.6898  0.2437
30409SOL     OW 1540   3.609   9.290   9.846 -0.1284  0.2842 -0.5677
30409SOL    HW1 1541   3.592   9.382   9.865 -1.9655  0.4228 -2.4597
30409SOL    HW2 1542   3.658   9.292   9.763  2.7173 -0.4141  0.9771
30410SOL     OW 1543   4.988   8.795   0.333 -0.0996  0.4207 -0.3731
30410SOL    HW1 1544   5.049   8.815   0.262 -0.2099 -0.1629 -0.6289
30410SOL    HW2 1545   4.994   8.700   0.345 -1.5112  0.2463 -0.9032
30411SOL     OW 1546   4.116   7.723   8.056 -1.2474 -0.4845 -0.4300
30411SOL    HW1 1547   4.078   7.715   7.969 -2.4949 -2.3247  0.2425
30411SOL    HW2 1548   4.045   7.756   8.110 -0.5775  0.3130 -0.0131
30412SOL     OW 1549  11.457   0.465   0.115 -0.5738  1.1078 -0.3331
30412SOL    HW1 1550  11.444   0.548   0.162 -0.1770  0.9335  0.0789
30412SOL    HW2 1551  11.369   0.442   0.085 -0.8085  1.2895  0.2009
30413SOL     OW 1552   1.259   3.126   4.447 -0.3103  0.5046 -0.2958
30413SOL    HW1 1553   1.305   3.162   4.371 -0.4422  1.9025  0.2591
30413SOL    HW2 1554   1.196   3.193   4.471  0.6353  0.7079  1.8569
30414SOL     OW 1555   4.102  10.569   3.337  0.4175  0.2194 -0.4868
30414SOL    HW1 1556   4.073  10.592   3.249 -2.1631 -3.0515 -0.6955
30414SOL    HW2 1557   4.028  10.592   3.393  0.1685 -1.8093  0.0883
30415SOL     OW 1558   3.165  12.425   1.846 -0.2785 -0.0903 -0.0847
30415SOL    HW1 1559   3.124  12.345   1.814 -1.4156  0.5255 -0.2054
30415SOL    HW2 1560   3.212  12.399   1.925 -1.5843 -0.6683  0.5246
30416SOL     OW 1561   2.268   7.032   7.634 -0.0272 -0.2589  0.5515
30416SOL    HW1 1562   2.177   7.027   7.605  0.4398 -0.1857 -1.0665
30416SOL    HW2 1563   2.293   6.941   7.650  0.2770 -0.5651 -1.3634
30417SOL     OW 1564  11.167   6.278   4.127 -0.0316  0.3751  0.4216
30417SOL    HW1 1565  11.079   6.292   4.162 -0.7555 -2.4257 -0.0341
30417SOL    HW2 1566  11.180   6.349   4.065 -2.2327  0.5387  0.0790
30418SOL     OW 1567  12.830  10.763   4.077 -0.3022  0.3009  0.3239
30418SOL    HW1 1568  12.912  10.797   4.113 -0.0173  0.0878 -0.1205
30418SOL    HW2 1569  12.845  10.759   3.983 -0.9108  0.4907  0.2179
30419SOL     OW 1570   2.626   0.156   0.867 -0.1388  0.2250  0.2548
30419SOL    HW1 1571   2.638   0.250   0.875 -1.1995  0.3971 -0.0971
30419SOL    HW2 1572   2.715   0.121   0.863  0.3266  1.4866 -3.0237
30420SOL     OW 1573   3.623  11.303   9.871  0.4599 -0.0733 -0.1339
30420SOL    HW1 1574   3.608  11.376   9.811 -1.6148  0.0577  0.4682
30420SOL    HW2 1575   3.680  11.243   9.822  0.1475  0.7721 -1.5960
30421SOL     OW 1576   4.394   7.028   5.944  0.4406  0.5283  0.3228
30421SOL    HW1 1577   4.313   6.978   5.956  0.7533  0.1941  1.1408
30421SOL    HW2 1578   4.414   7.020   5.850  1.1319 -1.9709  0.5963
30422SOL     OW 1579  11.500   2.340   7.683  0.4031 -0.3173 -0.5119
30422SOL    HW1 1580  11.427   2.357   7.742  0.5480 -2.3882  0.3388
30422SOL    HW2 1581  11.541   2.426   7.670 -1.9723  0.8617 -0.8085
30423SOL     OW 1582  12.815   0.976   7.882  0.2087 -0.1064 -0.8268
30423SOL    HW1 1583  12.787   0.982   7.790  0.6146 -1.0024 -1.0190
30423SOL    HW2 1584  12.747   0.926   7.925 -0.0642  0.4538 -0.5939
30424SOL     OW 1585   4.286   7.685   9.933 -0.0712  0.0856 -0.6298
30424SOL    HW1 1586   4.201   7.726   9.916  0.4761  1.9487  0.7675
30424SOL    HW2 1587   4.342   7.758   9.960  2.0609 -1.0619 -1.7563
30425SOL     OW 1588  11.810  11.076   2.750 -0.0280 -0.2817 -0.4294
30425SOL    HW1 1589  11.881  11.076   2.686  0.1183  2.5738 -0.3732
30425SOL    HW2 1590  11.851  11.102   2.832 -0.9282  0.1659 -0.1109
30426SOL     OW 1591   5.387   5.389   5.176 -0.9308  0.3868  0.2179
30426SOL    HW1 1592   5.420   5.417   5.091 -1.2925 -0.3030 -0.1551
30426SOL    HW2 1593   5.442   5.436   5.240 -0.6260  0.8625 -0.3906
30427SOL     OW 1594   8.011   0.268   5.717  0.0098  0.2523  0.3966
30427SOL    HW1 1595   7.926   0.302   5.743 -1.0180 -1.1928 -0.8886
30427SOL    HW2 1596   8.051   0.340   5.668 -0.8492  0.6560  0.2628
30428SOL     OW 1597   6.953  12.752   3.764 -0.1795  0.0773  0.7349
30428SOL    HW1 1598   6.980  12.838   3.797  0.1847  0.1712  0.2071
30428SOL    HW2 1599   6.858  12.751   3.775 -0.1432  0.3894  1.1069
30429SOL     OW 1600   6.584  11.999  12.307 -0.6024 -0.4306  0.6720
30429SOL    HW1 1601   6.526  12.065  12.267 -0.4552 -0.3638  0.5681
30429SOL    HW2 1602   6.672  12.026  12.280 -0.5685 -0.8733  0.3287
30430SOL     OW 1603   6.723   1.836   8.286 -0.1944  0.4132  0.0743
30430SOL    HW1 1604   6.648   1.778   8.271  0.7448 -0.6010 -0.7996
30430SOL    HW2 1605   6.796   1.777   8.303  0.9423  1.2991 -1.5376
30431SOL     OW 1606   8.547   0.482   5.622 -0.1059 -0.0498  0.1934
30431SOL    HW1 1607   8.563   0.400   5.669 -1.3582  0.1605  1.0137
30431SOL    HW2 1608   8.563   0.551   5.686  0.7106  0.3579 -0.4304
30432SOL     OW 1609   0.782   9.655   8.277  0.3638  0.3424  0.3211
30432SOL    HW1 1610   0.792   9.674   8.184 -1.5433  0.9551  0.1960
30432SOL    HW2 1611   0.689   9.673   8.295  0.8090  0.7524  2.4460
30433SOL     OW 1612   0.521   6.283   6.208  0.3465  0.2828  0.3618
30433SOL    HW1 1613   0.581   6.240   6.270 -0.1941  0.0570  0.7319
30433SOL    HW2 1614   0.475   6.211   6.165  1.3202  0.3980 -0.9310
30434SOL     OW 1615   1.010   3.141   3.221 -0.2069 -0.3305 -0.1346
30434SOL    HW1 1616   1.105   3.150   3.225 -0.2065 -0.6295  0.7993
30434SOL    HW2 1617   0.994   3.096   3.138  0.5238 -0.9027  0.0227
30435SOL     OW 1618   2.254   9.668   6.732  0.4458 -0.3188  0.0623
30435SOL    HW1 1619   2.342   9.683   6.767  0.6159 -2.1914  0.5435
30435SOL    HW2 1620   2.205   9.745   6.758  1.9013  0.6972 -0.0734
30436SOL     OW 1621   3.941  11.034   1.382  0.0099 -0.6851  0.1031
30436SOL    HW1 1622   3.956  11.009   1.473  0.8168 -1.5171 -0.2448
30436SOL    HW2 1623   3.854  11.000   1.362 -0.6670  0.5216  0.8963
30437SOL     OW 1624  12.723   5.074   3.496 -0.2200 -0.0075  0.4674
30437SOL    HW1 1625  12.800   5.074   3.553  1.6976 -0.1158 -1.9296
30437SOL    HW2 1626  12.693   5.165   3.496 -0.3028 -0.0250  1.6728
30438SOL     OW 1627   3.755   4.490   4.094 -0.0444  0.4595 -0.6790
30438SOL    HW1 1628   3.827   4.554   4.092  0.4338 -0.0869 -1.4913
30438SOL    HW2 1629   3.713   4.505   4.179 -0.4976  2.4501 -1.1944
30439SOL     OW 1630   8.820  11.621   6.596 -0.0890  0.2492  0.1848
30439SOL    HW1 1631   8.888  11.678   6.631  0.9231 -0.1946 -0.9750
30439SOL    HW2 1632   8.794  11.663   6.514  0.3594 -0.7065 -0.4641
30440SOL     OW 1633  12.719   2.522   9.001 -0.1967  0.0985  0.2964
30440SOL    HW1 1634  12.655   2.590   8.981  2.0766  2.3141 -0.0130
30440SOL    HW2 1635  12.733   2.530   9.095 -1.2397 -1.2456  0.5889
30441SOL     OW 1636  10.522   6.907  10.223  0.0110 -0.4803  0.0246
30441SOL    HW1 1637  10.596   6.851  10.201  0.0017 -0.5119  0.0749
30441SOL    HW2 1638  10.532   6.926  10.316  1.1953  1.3312 -0.4173
30442SOL     OW 1639   4.855   3.000   4.638 -0.2781 -0.3019  0.0446
30442SOL    HW1 1640   4.777   2.945   4.639 -1.4482  1.1971 -1.9477
30442SOL    HW2 1641   4.830   3.079   4.687 -0.2791  0.4833 -1.1894
30443SOL     OW 1642   8.378   5.370   7.231 -0.4045  0.3547 -0.0606
30443SOL    HW1 1643   8.436   5.435   7.193  2.6068  0.6240  4.2177
30443SOL    HW2 1644   8.319   5.420   7.288  0.2576 -0.3987  1.3439
30444SOL     OW 1645   0.752   7.938   7.127 -0.4040  0.0049  0.4952
30444SOL    HW1 1646   0.804   7.981   7.194 -1.5922  1.3920  0.5717
30444SOL    HW2 1647   0.687   7.887   7.175 -0.5223  0.0721  0.4092
30445SOL     OW 1648   4.079   7.533   5.428 -0.3065  0.5198  0.5930
30445SOL    HW1 1649   4.064   7.439   5.435  0.6260  0.4823  3.5506
30445SOL    HW2 1650   3.993   7.572   5.437 -1.1078  0.0211 -3.3081
30446SOL     OW 1651  11.064   7.845   8.252  0.3856  0.1042 -0.9457
30446SOL    HW1 1652  11.149   7.839   8.295  0.3361  0.5471 -0.7819
30446SOL    HW2 1653  11.083   7.885   8.167  0.3606  0.0575 -0.9736
30447SOL     OW 1654   0.833   5.820   5.355  0.2847 -0.5762  0.1297
30447SOL    HW1 1655   0.890   5.758   5.401  2.5543 -0.6992 -2.5747
30447SOL    HW2 1656   0.815   5.889   5.420  1.3323 -1.8753  1.8805
30448SOL     OW 1657   6.981  12.794  10.149  0.1190  0.1822 -0.2230
30448SOL    HW1 1658   7.040  12.735  10.102 -2.1489 -1.9341 -0.6439
30448SOL    HW2 1659   6.994  12.772  10.242  1.4710  1.2550 -0.1362
30449SOL     OW 1660   8.103   1.974  11.842 -0.0898 -0.3246 -0.3332
30449SOL    HW1 1661   8.049   1.895  11.841 -1.1015  0.3207 -2.2828
30449SOL    HW2 1662   8.063   2.031  11.777  0.6497  1.7998  0.9605
30450SOL     OW 1663  12.076   5.302   1.374 -0.0417 -0.4975 -0.1137
30450SOL    HW1 1664  12.056   5.213   1.404 -1.9758 -0.1446 -0.2019
30450SOL    HW2 1665  12.155   5.327   1.423  0.1068 -1.9854  0.4560
30451SOL     OW 1666   2.265   4.700   3.078  0.4780  0.5513 -0.2412
30451SOL    HW1 1667   2.244   4.770   3.140  0.3151  0.3083 -0.0184
30451SOL    HW2 1668   2.341   4.656   3.116 -0.2975 -0.3042  0.3788
30452SOL     OW 1669   9.259  12.648  12.477 -0.0565  0.1874 -0.1961
30452SOL    HW1 1670   9.318  12.612  12.544  0.7931  0.0011 -1.0268
30452SOL    HW2 1671   9.267  12.587  12.404  1.4262  2.0186 -1.6569
30453SOL     OW 1672   9.021   2.528   5.864  0.1763 -0.1918  0.2229
30453SOL    HW1 1673   8.986   2.473   5.934  1.0061 -1.8086 -0.5820
30453SOL    HW2 1674   9.113   2.540   5.887  0.0617  0.6737  0.2620
30454SOL     OW 1675   2.003   5.329   0.916  0.0480 -0.1680 -0.1635
30454SOL    HW1 1676   2.055   5.283   0.849 -0.1996 -0.8512  0.1067
30454SOL    HW2 1677   1.959   5.399   0.868 -1.6715 -1.8360 -1.1358
30455SOL     OW 1678   5.775   6.334   7.548  0.2671  0.1677  0.4180
30455SOL    HW1 1679   5.862   6.356   7.581  0.1888  0.5299  0.3882
30455SOL    HW2 1680   5.769   6.239   7.559  0.7194  0.1192  0.2918
30456SOL     OW 1681  11.648   5.699   3.825  0.2856  0.0561  0.4542
30456SOL    HW1 1682  11.623   5.746   3.745 -0.0872  0.1181  0.6049
30456SOL    HW2 1683  11.605   5.614   3.817  0.8515 -0.2176  0.2451
30457SOL     OW 1684   9.444   3.752   0.103 -0.3588 -0.4474  0.1966
30457SOL    HW1 1685   9.520   3.723   0.154 -0.7787  0.2315  1.2369
30457SOL    HW2 1686   9.406   3.670   0.069  0.2420 -0.8676  0.5155
30458SOL     OW 1687  10.988   6.159   2.507 -0.0145  0.1056 -0.1923
30458SOL    HW1 1688  10.893   6.174   2.499 -0.1046  0.1931  0.9215
30458SOL    HW2 1689  11.002   6.143   2.600  1.2305  1.2366 -0.1529
30459SOL     OW 1690   0.405   1.772   4.692  0.3799 -0.1637 -0.2842
30459SOL    HW1 1691   0.354   1.701   4.731  0.0595 -0.4069 -1.1196
30459SOL    HW2 1692   0.352   1.802   4.618  1.2244 -0.1014 -0.8815
30460SOL     OW 1693   3.386   4.247   8.824  0.3457 -0.3524  0.0026
30460SOL    HW1 1694   3.445   4.175   8.848 -0.5532 -0.3529  2.5388
30460SOL    HW2 1695   3.389   4.306   8.900  0.4290  1.9094 -1.6562
30461SOL     OW 1696   0.651   7.870   2.148 -0.3466 -0.0205  0.0421
30461SOL    HW1 1697   0.711   7.795   2.141 -0.5438 -0.3460  1.4345
30461SOL    HW2 1698   0.708   7.945   2.162 -0.1974 -0.1040 -0.1177
30462SOL     OW 1699  10.381   6.702  10.049  0.1502  0.3306 -0.7114
30462SOL    HW1 1700  10.422   6.760  10.113 -0.7176  1.7949 -1.4282
30462SOL    HW2 1701  10.441   6.704   9.974 -1.0288  2.2945 -1.6728
30463SOL     OW 1702   5.197  10.881   9.737  0.4831 -0.3255  0.4472
30463SOL    HW1 1703   5.133  10.947   9.763 -0.8383 -1.4550  0.1880
30463SOL    HW2 1704   5.240  10.918   9.660  0.7356  0.8001  1.1098
30464SOL     OW 1705   1.635   5.639   1.981  0.4459 -0.8021  0.0919
30464SOL    HW1 1706   1.693   5.632   1.905  1.2306 -0.3997  0.6313
30464SOL    HW2 1707   1.580   5.715   1.962  0.8592 -0.5068  0.0621
30465SOL     OW 1708  11.537   4.797  12.183 -0.5713 -0.0770 -0.6725
30465SOL    HW1 1709  11.456   4.826  12.223 -0.9750  0.3838 -1.7840
30465SOL    HW2 1710  11.601   4.865  12.205 -0.2040 -0.9090  1.0152
30466SOL     OW 1711   2.605   4.774  11.406 -0.8476  0.3492 -1.0750
30466SOL    HW1 1712   2.582   4.695  11.455 -1.3492 -0.1417 -2.0705
30466SOL    HW2 1713   2.677   4.813  11.456 -2.4069  0.8047  1.0066
30467SOL     OW 1714  12.734  10.089  12.620  0.3296  0.0801 -0.1221
30467SOL    HW1 1715  12.650  10.123  12.654  0.8619  0.4913  0.8280
30467SOL    HW2 1716  12.777  10.053  12.697  0.4811 -1.3280 -0.8350
30468SOL     OW 1717   1.097  10.086   1.827 -0.4631 -0.2050  0.0649
30468SOL    HW1 1718   1.007  10.067   1.801 -0.5459 -1.6025  1.3018
30468SOL    HW2 1719   1.150  10.057   1.753 -0.9903  0.4044 -0.5692
30469SOL     OW 1720  10.475   7.977   9.493  0.3188 -0.1963  0.0196
30469SOL    HW1 1721  10.410   7.990   9.424 -0.1778 -1.2749  0.2620
30469SOL    HW2 1722  10.424   7.979   9.574  0.9691  1.5999  0.4320
30470SOL     OW 1723  11.284   8.756  10.732  0.0267  0.0003 -0.3495
30470SOL    HW1 1724  11.200   8.784  10.696  0.9955 -0.0982 -2.8812
30470SOL    HW2 1725  11.289   8.663  10.711 -0.1404 -0.5435  1.7849
30471SOL     OW 1726  12.834  12.459  10.534  0.3229  0.1913 -0.1994
30471SOL    HW1 1727  12.761  12.516  10.512  0.0364  0.9237  2.3305
30471SOL    HW2 1728  12.838  12.460  10.630  0.3048 -4.0643  0.0345
30472SOL     OW 1729  11.569   0.002  11.557 -0.9646 -0.5629 -0.6963
30472SOL    HW1 1730  11.662  -0.019  11.560 -0.6479  0.6370 -1.6311
30472SOL    HW2 1731  11.564   0.087  11.514 -2.6654 -1.8481 -3.3404
30473SOL     OW 1732   1.604   6.788   6.804  0.4249 -0.9188 -0.3136
30473SOL    HW1 1733   1.565   6.704   6.779 -1.5003 -0.4872  0.9642
30473SOL    HW2 1734   1.542   6.825   6.867  0.9752  1.6758 -1.1576
30474SOL     OW 1735  12.907   4.037  10.368 -0.2050 -0.1534 -0.2804
30474SOL    HW1 1736  12.964   3.978  10.417 -0.6344 -0.5106 -0.2011
30474SOL    HW2 1737  12.827   4.042  10.420  0.4814  1.9666  0.6703
30475SOL     OW 1738   1.834   4.761   0.603  0.5375 -0.5278 -0.1902
30475SOL    HW1 1739   1.874   4.682   0.569 -0.4719 -0.2736 -2.0627
30475SOL    HW2 1740   1.763   4.730   0.659  0.0995 -0.9452 -0.9735
30476SOL     OW 1741   7.927  12.314   4.519 -0.2488  0.3822  0.5897
30476SOL    HW1 1742   7.980  12.369   4.576 -1.6206  2.4497  0.0092
30476SOL    HW2 1743   7.860  12.277   4.576 -0.9742  1.5933  0.5814
30477SOL     OW 1744   9.078   1.034   0.924 -0.1212 -0.6626 -0.3620
30477SOL    HW1 1745   9.016   0.979   0.972 -0.3000  0.7728  1.1461
30477SOL    HW2 1746   9.164   1.002   0.950 -0.1673  0.9823  2.2059
30478SOL     OW 1747  10.543   9.652   4.099  0.1065  0.5086 -0.1912
30478SOL    HW1 1748  10.558   9.652   4.005 -0.4768  0.6136 -0.2920
30478SOL    HW2 1749  10.483   9.726   4.113  0.9538  1.1129  0.3937
30479SOL     OW 1750   4.477  11.000   3.293 -0.0006  0.3923 -0.0817
30479SOL    HW1 1751   4.539  10.942   3.249 -0.7040 -0.7589  0.4071
30479SOL    HW2 1752   4.478  10.972   3.384 -0.9997  0.5695 -0.0043
30480SOL     OW 1753   8.531  10.226   1.970  0.0776  0.2872 -0.2592
30480SOL    HW1 1754   8.465  10.293   1.954  0.6039  1.1905  1.1493
30480SOL    HW2 1755   8.575  10.214   1.886 -3.7896 -2.6156 -2.2141
30481SOL     OW 1756   2.343   6.045   0.264 -0.3812  0.5703  0.3472
30481SOL    HW1 1757   2.417   6.100   0.235  0.1722  0.0139  0.6712
30481SOL    HW2 1758   2.364   6.023   0.355  0.9253 -2.5162 -0.5460
30482SOL     OW 1759   5.557  10.514   6.971 -0.5639 -0.4695  0.0192
30482SOL    HW1 1760   5.621  10.584   6.957 -1.0404  0.1193  0.7511
30482SOL    HW2 1761   5.592  10.464   7.045  0.1897 -1.5160 -0.9996
30483SOL     OW 1762  11.914  10.883   9.216  0.9707 -0.2621  0.6473
30483SOL    HW1 1763  11.841  10.858   9.272 -0.7605 -0.1912 -1.4697
30483SOL    HW2 1764  11.926  10.809   9.156  1.8214  0.2487  0.1571
30484SOL     OW 1765   9.633   1.770  11.693 -0.2288  0.0043  0.5966
30484SOL    HW1 1766   9.568   1.727  11.749 -0.7974 -1.7169 -1.2844
30484SOL    HW2 1767   9.674   1.835  11.750  0.2843 -2.5985  3.4463
30485SOL     OW 1768   7.011   9.347  11.971  0.6380 -0.0944  0.1045
30485SOL    HW1 1769   7.026   9.412  11.903 -0.2384  1.1231  1.0118
30485SOL    HW2 1770   6.948   9.286  11.932  1.2871 -0.2797 -0.6777
30486SOL     OW 1771   9.645   7.863   0.611  0.2372  0.5335  0.4200
30486SOL    HW1 1772   9.584   7.906   0.671  0.3598 -0.2215  1.1124
30486SOL    HW2 1773   9.731   7.874   0.652  0.2367 -0.5888  0.7564
30487SOL     OW 1774   1.167   6.228   1.792  0.3794 -0.3789 -0.7129
30487SOL    HW1 1775   1.169   6.317   1.827  0.0045 -0.6388 -0.0216
30487SOL    HW2 1776   1.076   6.201   1.800  0.1953 -0.3127 -2.2642
30488SOL     OW 1777   4.155   1.710   3.400  1.0116  0.1116  0.2021
30488SOL    HW1 1778   4.215   1.769   3.445 -0.1031  1.7303 -0.3708
30488SOL    HW2 1779   4.092   1.767   3.356 -1.0421 -1.4950  0.8703
30489SOL     OW 1780   0.393   2.576   3.813 -0.5179 -0.8259  0.0684
30489SOL    HW1 1781   0.313   2.589   3.863  0.0241 -1.6588  1.1962
30489SOL    HW2 1782   0.445   2.516   3.866 -0.0863 -2.0863 -1.6756
30490SOL     OW 1783   2.011   6.319  10.254 -0.3283  0.4600  0.3444
30490SOL    HW1 1784   2.075   6.287  10.190 -2.7436 -0.7446 -1.6159
30490SOL    HW2 1785   2.064   6.365  10.319  2.5645 -0.8726 -0.8825
30491SOL     OW 1786   6.125   2.493  11.483 -0.3726 -0.4150  0.1258
30491SOL    HW1 1787   6.188   2.500  11.555 -0.5238 -1.1189  0.3353
30491SOL    HW2 1788   6.062   2.563  11.499 -0.0882 -0.2095  0.3616
30492SOL     OW 1789  11.940   1.015   8.489 -0.3055  0.4577 -0.4768
30492SOL    HW1 1790  11.974   1.050   8.572 -0.4337 -0.7943  0.1324
30492SOL    HW2 1791  12.002   0.946   8.465  0.4373  1.6313 -2.1168
30493SOL     OW 1792  12.227   5.680  10.418 -0.1813  0.1130 -0.2136
30493SOL    HW1 1793  12.262   5.620  10.352  1.1272  0.8588 -0.2163
30493SOL    HW2 1794  12.233   5.630  10.500 -0.8539 -0.4343 -0.4829
30494SOL     OW 1795   5.109  10.410   3.901 -0.7010  0.2074 -0.7981
30494SOL    HW1 1796   5.141  10.323   3.925 -0.7544  0.1657 -0.8785
30494SOL    HW2 1797   5.055  10.396   3.823 -2.0473  0.0714  0.1208
30495SOL     OW 1798   1.508  12.778   9.473 -0.8963 -0.4286 -0.0698
30495SOL    HW1 1799   1.528  12.735   9.557  0.0569 -1.8311 -0.9774
30495SOL    HW2 1800   1.594  12.796   9.435 -1.3025  1.3772 -0.1946
30496SOL     OW 1801   3.115  12.569   1.589  0.3178 -0.2209 -0.3063
30496SOL    HW1 1802   3.159  12.528   1.663 -1.6043 -1.4324  0.2454
30496SOL    HW2 1803   3.170  12.547   1.513  0.9209 -1.2302  0.3992
30497SOL     OW 1804  11.779   9.814   5.298  0.6405  0.1468 -0.3628
30497SOL    HW1 1805  11.857   9.863   5.271  1.6398 -0.4279  1.2853
30497SOL    HW2 1806  11.802   9.722   5.281  0.8185 -0.1250  1.1614
30498SOL     OW 1807   5.298   3.955   1.376 -0.1240  0.1995  0.0718
30498SOL    HW1 1808   5.227   3.958   1.440 -0.3408 -0.3180 -0.1465
30498SOL    HW2 1809   5.299   4.043   1.338 -0.9957  0.0599 -0.3035
30499SOL     OW 1810  12.416   7.332   9.390  0.4671  0.0909  0.4924
30499SOL    HW1 1811  12.373   7.299   9.311 -0.0318  0.9564  0.3868
30499SOL    HW2 1812  12.378   7.280   9.461 -0.7961  0.8278  0.4030
30500SOL     OW 1813   1.369   3.439   2.126 -0.4257  0.4218  0.0919
30500SOL    HW1 1814   1.323   3.485   2.057 -0.6990 -0.7541 -0.5396
30500SOL    HW2 1815   1.412   3.508   2.177  1.6593  1.2403 -2.5538
30501SOL     OW 1816   6.996   2.949   5.920 -0.0472  0.4756 -0.1671
30501SOL    HW1 1817   7.062   2.904   5.868  0.7565 -1.2467  2.2096
30501SOL    HW2 1818   6.919   2.892   5.917  0.3634 -0.1967  1.3559
30502SOL     OW 1819   7.797   8.882   0.151 -0.1602  0.0221  0.0074
30502SOL    HW1 1820   7.820   8.790   0.167  0.3351 -0.1273 -1.4004
30502SOL    HW2 1821   7.725   8.899   0.212  2.3640 -0.0312  3.2724
30503SOL     OW 1822   4.042   5.677   5.390 -0.1569  0.7136 -0.1409
30503SOL    HW1 1823   4.018   5.658   5.480 -2.9970 -1.3999 -1.1978
30503SOL    HW2 1824   4.135   5.699   5.394 -0.0362  0.1255  3.1789
30504SOL     OW 1825  12.665   2.828   9.305  0.9726  0.0399  0.0515
30504SOL    HW1 1826  12.576   2.822   9.341  0.0293 -0.4444 -2.1882
30504SOL    HW2 1827  12.697   2.913   9.335 -0.4612  0.4561  0.4975
30505SOL     OW 1828   7.092   3.443   1.932  0.4669  0.0998 -0.1731
30505SOL    HW1 1829   7.089   3.520   1.988 -0.3669 -1.9255  2.8363
30505SOL    HW2 1830   7.185   3.426   1.919  0.6846  2.0589 -1.7528
30506SOL     OW 1831   6.185   8.835   8.192 -0.0039  0.1234  0.3687
30506SOL    HW1 1832   6.124   8.880   8.250  0.2560  1.1195 -0.1108
30506SOL    HW2 1833   6.257   8.809   8.249 -1.1737 -1.7257  1.0906
30507SOL     OW 1834  10.232   0.889   3.669 -0.5372 -0.1727 -0.5585
30507SOL    HW1 1835  10.309   0.871   3.615 -0.8405 -1.2537 -0.6403
30507SOL    HW2 1836  10.221   0.984   3.664 -1.1574 -0.3232 -3.2121
30508SOL     OW 1837   0.030   3.628   5.721 -0.5230 -0.0739 -0.0878
30508SOL    HW1 1838   0.122   3.644   5.743 -1.1115  0.0948  2.5668
30508SOL    HW2 1839   0.029   3.541   5.681  0.8952  0.3744 -1.1831
30509SOL     OW 1840   3.353   9.521   3.976 -0.5664  0.2661  0.0482
30509SOL    HW1 1841   3.282   9.573   4.013  0.0240  0.2283  1.2858
30509SOL    HW2 1842   3.314   9.479   3.899 -1.5359  1.1769  0.0208
30510SOL     OW 1843  12.930   7.676   4.340  0.3789  0.1207 -0.0779
30510SOL    HW1 1844  12.971   7.590   4.352  0.6065  0.4587  1.7369
30510SOL    HW2 1845  12.997   7.728   4.294 -0.1980 -0.9532 -2.3063
30511SOL     OW 1846   0.460   2.144   3.209 -0.0627 -0.2061  0.7152
30511SOL    HW1 1847   0.484   2.144   3.116 -0.2901 -2.9379  0.5856
30511SOL    HW2 1848   0.444   2.236   3.229  2.9983  0.9040 -1.1397
30512SOL     OW 1849  10.173  10.807   5.380 -0.0232 -0.3671  0.2616
30512SOL    HW1 1850  10.208  10.872   5.318  0.0059  1.2372  1.8849
30512SOL    HW2 1851  10.250  10.766   5.418  0.0495  0.4348  1.0225
30513SOL     OW 1852   1.182  11.872  11.449  0.2497 -0.3378 -0.1586
30513SOL    HW1 1853   1.208  11.868  11.357 -3.0677  0.8186 -1.2910
30513SOL    HW2 1854   1.109  11.811  11.457 -1.0267  1.2543  1.0904
30514SOL     OW 1855  12.186  11.079   8.142 -0.6790  0.0658  0.6104
30514SOL    HW1 1856  12.175  11.052   8.051 -1.7473 -0.1216  0.7852
30514SOL    HW2 1857  12.168  11.000   8.193 -0.1143  0.1771  0.9879
30515SOL     OW 1858   8.217  10.751  11.284 -0.3840 -0.1538  0.0744
30515SOL    HW1 1859   8.200  10.722  11.374 -0.3856 -2.2543 -0.5338
30515SOL    HW2 1860   8.144  10.810  11.263 -0.9961 -0.5256  1.0807
30516SOL     OW 1861   9.509   5.354   0.877  0.3431  0.4042  0.2154
30516SOL    HW1 1862   9.486   5.446   0.892  0.0885  0.4922 -0.6505
30516SOL    HW2 1863   9.588   5.340   0.928  0.6654  1.2493 -0.0340
30517SOL     OW 1864   9.876  12.076   1.873 -0.1597  0.4837  0.1454
30517SOL    HW1 1865   9.912  12.112   1.792 -1.6396 -1.4515 -1.4743
30517SOL    HW2 1866   9.837  12.151   1.918 -2.7057  1.1526 -2.8211
30518SOL     OW 1867  11.666   3.412  12.455 -0.4902 -0.0093  0.0745
30518SOL    HW1 1868  11.609   3.357  12.401 -0.9829  1.5981 -1.1474
30518SOL    HW2 1869  11.661   3.499  12.414 -0.2879  1.1304  2.2854
30519SOL     OW 1870   8.069  11.007  11.584 -0.0329  0.0074  0.2716
30519SOL    HW1 1871   7.986  10.991  11.628  0.2737  0.3714  0.9968
30519SOL    HW2 1872   8.099  11.091  11.620  2.5513 -1.9101  2.9721
30520SOL     OW 1873  10.059  11.194   6.943 -0.2811 -0.1603 -0.1792
30520SOL    HW1 1874  10.135  11.163   6.994 -0.9234  1.0704  1.6332
30520SOL    HW2 1875   9.986  11.189   7.004 -1.2279  0.8332 -1.1914
30521SOL     OW 1876   7.285   4.780   8.071  0.3056 -0.1189  0.2015
30521SOL    HW1 1877   7.220   4.721   8.033 -0.3204  1.0639 -0.6153
30521SOL    HW2 1878   7.237   4.827   8.140  0.7176 -0.3152  0.6330
30522SOL     OW 1879  12.393   0.730   0.883 -0.1422 -0.4405  0.4756
30522SOL    HW1 1880  12.412   0.681   0.962  0.1003  0.1734  0.8067
30522SOL    HW2 1881  12.426   0.675   0.812  0.1309 -0.7498  0.8386
30523SOL     OW 1882   1.239   2.749   4.857  0.0202  0.0473 -0.4602
30523SOL    HW1 1883   1.328   2.719   4.876  0.0711  0.5881  0.2172
30523SOL    HW2 1884   1.237   2.759   4.762 -0.5500 -3.6923 -0.9662
30524SOL     OW 1885   3.836   3.700   3.067 -0.1634 -0.0813 -0.0749
30524SOL    HW1 1886   3.750   3.739   3.053 -0.3587 -0.8557 -1.2471
30524SOL    HW2 1887   3.818   3.607   3.080  0.4391 -0.1204  0.5607
30525SOL     OW 1888  10.585   2.948   8.658  0.2670  0.4461 -0.1652
30525SOL    HW1 1889  10.607   3.041   8.656 -0.7457  0.7058 -0.2607
30525SOL    HW2 1890  10.489   2.947   8.661  0.1767 -0.6062 -1.9454
30526SOL     OW 1891  11.579   2.804   3.564 -0.7633 -0.5016 -0.1358
30526SOL    HW1 1892  11.625   2.758   3.635  1.1643  0.2943 -0.7907
30526SOL    HW2 1893  11.498   2.836   3.604  1.4569  2.3224  2.6126
30527SOL     OW 1894  10.744   9.611  10.729  0.0419  0.4411  0.1575
30527SOL    HW1 1895  10.738   9.707  10.729 -2.4073  0.3389 -0.4251
30527SOL    HW2 1896  10.721   9.586  10.640  1.0759 -0.7210  0.1854
30528SOL     OW 1897  10.236   8.232  12.921 -0.3509  0.2015 -0.2841
30528SOL    HW1 1898  10.157   8.285  12.918  0.8073  2.1677  1.2814
30528SOL    HW2 1899  10.307   8.293  12.904  0.8810 -1.5079 -1.6461
30529SOL     OW 1900  12.542   0.972   0.830 -0.5608  0.1628  0.1554
30529SOL    HW1 1901  12.619   0.934   0.788  0.0201  1.0942  0.3601
30529SOL    HW2 1902  12.498   0.897   0.871  1.4149 -0.1111  1.9122
30530SOL     OW 1903   3.166  11.121   4.871  0.0515  0.1340  0.3788
30530SOL    HW1 1904   3.154  11.214   4.889 -0.4292  0.6682 -2.2737
30530SOL    HW2 1905   3.260  11.111   4.857 -0.1571  0.8400 -1.9356
30531SOL     OW 1906  10.751   8.083   2.868  0.3840  0.5617  0.2125
30531SOL    HW1 1907  10.660   8.077   2.841  0.0635 -0.3174  1.4231
30531SOL    HW2 1908  10.794   8.129   2.796 -0.9077  0.5460 -0.6016
30532SOL     OW 1909   0.825  11.821   8.096  0.2842 -0.6175  0.9221
30532SOL    HW1 1910   0.760  11.808   8.165 -0.7759  1.0255  0.3046
30532SOL    HW2 1911   0.782  11.879   8.033  1.7104 -0.9650 -0.4398
30533SOL     OW 1912   5.003   9.406   0.099  0.2767 -0.5481  0.3673
30533SOL    HW1 1913   4.913   9.432   0.120  0.0506 -1.6414  0.8339
30533SOL    HW2 1914   5.029   9.466   0.029 -0.6421  0.0990  0.5505
30534SOL     OW 1915   1.066   7.069   4.118 -0.2362 -0.1570  0.3039
30534SOL    HW1 1916   1.144   7.125   4.118 -0.3302  0.0386  2.0281
30534SOL    HW2 1917   1.100   6.981   4.138 -0.3730 -0.2480  0.1426
30535SOL     OW 1918  11.817   5.889  12.868  0.0298  0.0823 -0.3344
30535SOL    HW1 1919  11.736   5.864  12.824 -1.3141  1.0076  1.4805
30535SOL    HW2 1920  11.833   5.818  12.931  1.0106 -0.4196 -1.1329
30536SOL     OW 1921  12.790   9.826   7.893  0.2158 -0.0660  0.1934
30536SOL    HW1 1922  12.748   9.823   7.807 -0.4484 -0.1040  0.5145
30536SOL    HW2 1923  12.867   9.769   7.884 -0.2994 -0.7261 -0.1327
30537SOL     OW 1924   5.758   5.135   3.510  0.2381  0.3440 -0.6486
30537SOL    HW1 1925   5.724   5.150   3.422 -2.4583 -0.8349  0.0670
30537SOL    HW2 1926   5.772   5.041   3.515  0.0239  0.3492  0.2803
30538SOL     OW 1927   9.613   7.353  12.492  0.0801  0.6670  0.9966
30538SOL    HW1 1928   9.619   7.306  12.575 -0.3586 -0.4268  0.4242
30538SOL    HW2 1929   9.642   7.442  12.513 -2.0476  1.0256  2.8301
30539SOL     OW 1930   7.248   3.986   5.378 -0.0484  0.4279  0.2633
30539SOL    HW1 1931   7.255   3.914   5.441 -1.0719  1.2297  1.3224
30539SOL    HW2 1932   7.291   4.060   5.421 -0.5753  0.9290 -0.0611
30540SOL     OW 1933   0.929   0.765   6.190  0.4932 -0.2240  0.0957
30540SOL    HW1 1934   0.930   0.669   6.191  0.1976 -0.2549 -1.0560
30540SOL    HW2 1935   0.907   0.790   6.280 -0.2516 -1.2518  0.2146
30541SOL     OW 1936   1.339  11.567   7.563  0.1835 -0.0560 -0.5514
30541SOL    HW1 1937   1.358  11.553   7.656 -0.4084 -1.3472 -0.6034
30541SOL    HW2 1938   1.298  11.654   7.560 -1.9839 -0.9505  0.7518
30542SOL     OW 1939   9.792   6.087   6.027 -0.5742  0.5183  0.1442
30542SOL    HW1 1940   9.779   6.003   5.982  0.4505  0.1976  0.4194
30542SOL    HW2 1941   9.798   6.151   5.956 -1.5550  0.3977 -0.0612
30543SOL     OW 1942   3.322  10.335  12.680  0.0034  0.1660 -0.1214
30543SOL    HW1 1943   3.408  10.369  12.658  0.5211 -0.7603  0.4068
30543SOL    HW2 1944   3.284  10.399  12.740  0.8078  0.0155  0.5635
30544SOL     OW 1945  12.673   6.086   0.153 -0.2203  0.1067 -0.4515
30544SOL    HW1 1946  12.712   6.017   0.101 -1.5059 -1.9101  1.1062
30544SOL    HW2 1947  12.747   6.138   0.184  0.6926  0.0652 -2.4590
30545SOL     OW 1948   4.912   2.351   2.434 -0.0175 -0.1732 -0.2190
30545SOL    HW1 1949   4.946   2.421   2.377 -0.1778  0.6361  0.6550
30545SOL    HW2 1950   4.886   2.282   2.373 -0.0902  0.6291 -1.1339
30546SOL     OW 1951  10.033  11.445   2.512 -0.0774 -0.0106  0.0394
30546SOL    HW1 1952  10.074  11.378   2.457  3.2503  1.9771 -0.1778
30546SOL    HW2 1953  10.090  11.453   2.588 -0.9001  1.8995  0.5248
30547SOL     OW 1954   5.144   3.510   5.452 -0.5134 -0.8743 -0.2186
30547SOL    HW1 1955   5.129   3.422   5.487 -0.2947 -1.4297 -1.4737
30547SOL    HW2 1956   5.237   3.526   5.467 -0.2338 -1.4483 -1.2442
30548SOL     OW 1957   5.899   7.830  12.948 -0.8130 -0.0961  0.4041
30548SOL    HW1 1958   5.894   7.888  12.871  2.1132  0.8502  0.8110
30548SOL    HW2 1959   5.919   7.744  12.912  2.1496  0.6329  0.0380
30549SOL     OW 1960  11.953   2.744   1.929  0.7768  0.0801  0.0897
30549SOL    HW1 1961  12.000   2.793   1.997 -0.4319 -1.2016  1.9474
30549SOL    HW2 1962  11.880   2.801   1.905  0.2574 -0.1225  1.1146
30550SOL     OW 1963   3.099  12.876   9.480  0.0736 -0.2751  0.3774
30550SOL    HW1 1964   3.017  12.829   9.500  0.1929 -0.4927  0.3528
30550SOL    HW2 1965   3.166  12.807   9.478  0.3076 -0.0576  0.7008
30551SOL     OW 1966   9.797  11.622   7.521  0.1730  0.0361  0.0925
30551SOL    HW1 1967   9.781  11.548   7.462  0.9215  0.3668 -0.5400
30551SOL    HW2 1968   9.712  11.665   7.529  0.1233  0.1528 -0.9806
30552SOL     OW 1969   9.138   8.732   5.720 -0.2344  0.4279 -0.2321
30552SOL    HW1 1970   9.114   8.804   5.778 -2.5968 -0.0900 -0.4633
30552SOL    HW2 1971   9.169   8.663   5.779  1.3454  1.3170  0.0396
30553SOL     OW 1972   3.596   4.970   4.246 -0.4035  0.1323 -0.1889
30553SOL    HW1 1973   3.577   4.877   4.238 -1.1442  0.2277  0.4328
30553SOL    HW2 1974   3.530   5.004   4.306  1.4146  0.5494  1.7120
30554SOL     OW 1975  11.425   8.527   3.079  0.7641  0.1641  0.3567
30554SOL    HW1 1976  11.366   8.596   3.051 -0.1661 -0.6119  0.3668
30554SOL    HW2 1977  11.381   8.486   3.153  0.4699 -1.5186 -0.6851
30555SOL     OW 1978   0.027   0.370   5.663 -0.7432  1.1646 -0.2576
30555SOL    HW1 1979  -0.005   0.359   5.753 -0.5250  0.7877 -0.2260
30555SOL    HW2 1980   0.091   0.441   5.669 -0.5594  0.9846 -0.0723
30556SOL     OW 1981   0.872   6.648   6.828 -0.0088 -0.0762 -0.4827
30556SOL    HW1 1982   0.899   6.739   6.819  2.1499 -0.6999 -0.7486
30556SOL    HW2 1983   0.871   6.633   6.923 -0.4169  0.2182 -0.4361
30557SOL     OW 1984   6.415   8.517  11.061  0.1395  0.2493 -0.0521
30557SOL    HW1 1985   6.456   8.551  11.141 -1.1809  1.3743  0.2002
30557SOL    HW2 1986   6.448   8.574  10.991 -0.9045  1.1425  0.1478
30558SOL     OW 1987   3.226   1.931   0.601 -0.0519 -0.1852 -0.1256
30558SOL    HW1 1988   3.195   1.841   0.611 -1.0800  0.0856 -0.6902
30558SOL    HW2 1989   3.146   1.982   0.589 -0.0578  1.5742  4.9150
30559SOL     OW 1990   7.984  12.265   5.742 -0.4683  0.0010  0.3134
30559SOL    HW1 1991   8.020  12.249   5.829 -1.1936  1.0283  0.8245
30559SOL    HW2 1992   8.057  12.300   5.691 -0.0279 -0.6563  0.4865
30560SOL     OW 1993   4.079   1.757   7.575 -0.1018 -0.2118  0.2037
30560SOL    HW1 1994   4.089   1.662   7.569  1.2127 -0.0885  0.1842
30560SOL    HW2 1995   3.988   1.770   7.600 -0.2284 -1.4898  0.4679
30561SOL     OW 1996   1.796  10.622   0.227  0.2561 -0.1155  0.4748
30561SOL    HW1 1997   1.785  10.537   0.269 -2.1698  0.6895  1.7262
30561SOL    HW2 1998   1.840  10.604   0.144 -1.1808 -2.7314  0.1912
30562SOL     OW 1999  12.614  12.236   0.932  0.2429  0.1047  0.4729
30562SOL    HW1 2000  12.645  12.296   1.000 -0.1287  1.9341 -0.9075
30562SOL    HW2 2001  12.617  12.150   0.974  0.5382  1.0858  2.6160
30563SOL     OW 2002  10.882   5.131   7.173  0.2220  0.0553 -0.3133
30563SOL    HW1 2003  10.973   5.119   7.202  0.8631  1.0307 -1.7925
30563SOL    HW2 2004  10.864   5.054   7.118  1.2096  1.2459 -2.4103
30564SOL     OW 2005   9.899  12.899   7.163  0.5371  0.4039  0.2700
30564SOL    HW1 2006   9.899  12.982   7.210  0.5827  0.6425 -0.1397
30564SOL    HW2 2007   9.917  12.923   7.072  1.7803 -0.1735  0.3359
30565SOL     OW 2008   3.220   7.124   2.495 -0.1632 -0.9228  0.5890
30565SOL    HW1 2009   3.199   7.101   2.404 -0.2968 -1.2617  0.7045
30565SOL    HW2 2010   3.304   7.081   2.512  0.7701  0.5999  0.0611
30566SOL     OW 2011   2.711   8.981   8.443  0.1451  0.3020  0.2928
30566SOL    HW1 2012   2.644   8.928   8.487 -0.0671  1.0632  0.8990
30566SOL    HW2 2013   2.662   9.055   8.406  0.7452  1.3042  1.4423
30567SOL     OW 2014   8.666   7.822   9.430  0.3666 -0.1430  0.3957
30567SOL    HW1 2015   8.580   7.863   9.447 -0.3495 -1.1091 -0.7392
30567SOL    HW2 2016   8.719   7.894   9.396  0.5091  0.8153  2.4539
30568SOL     OW 2017   0.027   2.922   9.063 -0.2316 -0.5670 -0.1294
30568SOL    HW1 2018   0.051   3.005   9.105 -1.1288  0.9468 -2.4222
30568SOL    HW2 2019   0.104   2.896   9.014 -0.3563 -0.4372 -0.3942
30569SOL     OW 2020   4.385   1.273   0.980  0.1863  0.0710  0.1391
30569SOL    HW1 2021   4.314   1.243   0.923  0.6382 -0.9736  0.1031
30569SOL    HW2 2022   4.366   1.366   0.995  0.0043  0.3698 -1.6394
30570SOL     OW 2023   5.231  12.726   4.444  0.3628 -0.3098  0.4833
30570SOL    HW1 2024   5.228  12.775   4.527 -0.6320  1.9634 -0.7964
30570SOL    HW2 2025   5.304  12.766   4.397  1.0628 -1.7447  0.3224
30571SOL     OW 2026   9.153  10.914   5.011  0.4895  0.1540 -0.0023
30571SOL    HW1 2027   9.230  10.949   4.966 -0.2580 -0.0293 -1.5148
30571SOL    HW2 2028   9.082  10.973   4.985 -0.0114 -0.0648  0.8266
30572SOL     OW 2029   0.998   0.808   7.143  0.2999  0.0879  0.3309
30572SOL    HW1 2030   0.934   0.854   7.088  1.0994  1.5327  0.5543
30572SOL    HW2 2031   0.948   0.779   7.219 -0.2038  0.7851  0.2798
30573SOL     OW 2032   6.961   4.773   0.129 -0.1790  0.0516 -0.5152
30573SOL    HW1 2033   6.918   4.797   0.047 -1.2636 -1.6783 -0.4928
30573SOL    HW2 2034   6.998   4.687   0.112  0.3868  0.0691  0.5446
30574SOL     OW 2035  11.093   2.235   8.389  0.4086 -0.0093 -0.3279
30574SOL    HW1 2036  11.041   2.164   8.428  0.1045  0.3960  0.0090
30574SOL    HW2 2037  11.147   2.191   8.323  1.1664 -0.7635  0.7488
30575SOL     OW 2038   3.595   6.488   2.952  0.1260  0.4026  0.4383
30575SOL    HW1 2039   3.509   6.475   2.912  0.1491 -2.7463  1.0832
30575SOL    HW2 2040   3.578   6.489   3.046  0.6908  0.9508  0.5396
30576SOL     OW 2041   3.661   8.325   2.228 -0.0853  0.2479  0.3542
30576SOL    HW1 2042   3.707   8.248   2.262 -1.9511 -0.6013  1.1230
30576SOL    HW2 2043   3.591   8.341   2.292 -1.1771  1.1443 -0.9882
30577SOL     OW 2044   8.006  11.588   5.422 -0.2439  0.7699 -0.1792
30577SOL    HW1 2045   7.916  11.561   5.438 -0.4407  1.7532  0.5189
30577SOL    HW2 2046   8.002  11.640   5.342 -0.2191  0.4305 -0.3999
30578SOL     OW 2047   4.627  12.316   3.682  0.2116 -0.4061 -0.3427
30578SOL    HW1 2048   4.545  12.333   3.634  0.0347 -1.0905 -0.2959
30578SOL    HW2 2049   4.695  12.319   3.615  0.0543 -0.6059 -0.5137
30579SOL     OW 2050   5.075   2.657   0.265 -0.2502  0.7163 -0.6198
30579SOL    HW1 2051   5.026   2.735   0.239 -1.0462 -0.4251 -2.8621
30579SOL    HW2 2052   5.166   2.679   0.249 -0.4460  1.3189 -0.9175
30580SOL     OW 2053   5.321   6.887   4.441 -0.0843 -0.2815 -0.2998
30580SOL    HW1 2054   5.317   6.793   4.424 -1.8065 -0.1354 -0.8836
30580SOL    HW2 2055   5.325   6.927   4.354 -0.5367  0.2201 -0.0945
30581SOL     OW 2056   9.377   8.799   2.226  0.5254  0.2177 -0.6455
30581SOL    HW1 2057   9.361   8.892   2.214  0.0798  0.4225  1.1791
30581SOL    HW2 2058   9.424   8.772   2.147  1.2187  2.1137 -0.9349
30582SOL     OW 2059   9.208  10.251   7.027 -0.2900 -0.1992 -0.7362
30582SOL    HW1 2060   9.176  10.282   6.942 -2.5371  0.5143  0.3070
30582SOL    HW2 2061   9.160  10.169   7.041 -2.1843  1.1209  1.0652
30583SOL     OW 2062   7.075   3.750   9.246  0.4571  0.0718  0.3055
30583SOL    HW1 2063   7.008   3.699   9.201 -0.3249 -1.7623  3.2833
30583SOL    HW2 2064   7.061   3.840   9.216 -0.4202 -0.9048 -2.4603
30584SOL     OW 2065   7.902   3.135   2.584  0.0160  0.4332  0.3681
30584SOL    HW1 2066   7.951   3.086   2.519  2.1973  0.6793  1.7251
30584SOL    HW2 2067   7.822   3.084   2.598 -1.5653  1.4016 -3.8476
30585SOL     OW 2068   3.575  12.161   5.203 -0.3340  0.0650 -0.0028
30585SOL    HW1 2069   3.541  12.229   5.260 -0.4296  0.2520 -0.2808
30585SOL    HW2 2070   3.526  12.171   5.121 -0.3101 -0.2976 -0.0670
30586SOL     OW 2071  12.417   9.759   3.064  0.6102  0.3269  0.2480
30586SOL    HW1 2072  12.399   9.720   2.978  1.6167  0.2595  0.0530
30586SOL    HW2 2073  12.340   9.812   3.083  0.8537  1.2658 -1.2394
30587SOL     OW 2074   8.233  11.200   9.075  0.6058 -0.2128 -0.6769
30587SOL    HW1 2075   8.222  11.295   9.082  0.9115 -0.2554  0.4273
30587SOL    HW2 2076   8.186  11.164   9.150  0.7432 -0.9199 -0.9211
30588SOL     OW 2077   2.858   0.759   0.603 -0.0677 -0.5123 -0.0589
30588SOL    HW1 2078   2.948   0.758   0.570 -0.5383 -1.0568 -1.3716
30588SOL    HW2 2079   2.859   0.824   0.674  1.4236 -0.7663  0.1757
30589SOL     OW 2080  10.407   0.153   2.388 -0.3426  0.2236 -0.7388
30589SOL    HW1 2081  10.320   0.122   2.361 -0.6103  1.1503 -0.9528
30589SOL    HW2 2082  10.449   0.075   2.425 -0.4857 -0.7396 -2.5206
30590SOL     OW 2083   1.293   2.285   7.632  0.0692  0.2726  0.1327
30590SOL    HW1 2084   1.218   2.230   7.611 -0.0131  0.9449 -1.5301
30590SOL    HW2 2085   1.349   2.280   7.554  0.9971  1.0008  0.7192
30591SOL     OW 2086  11.918   4.982   3.379  0.3359 -0.1964  0.2653
30591SOL    HW1 2087  11.888   4.919   3.314  0.9582  0.0408 -0.2548
30591SOL    HW2 2088  11.851   5.050   3.378  0.2606 -0.2732 -0.0107
30592SOL     OW 2089   1.306   6.049   4.330  0.0847 -0.0158 -0.1376
30592SOL    HW1 2090   1.291   6.065   4.237 -3.5494  0.6715  0.4230
30592SOL    HW2 2091   1.368   6.117   4.356  0.0343  0.7058 -1.7707
30593SOL     OW 2092   2.572  11.993   9.963  0.1360  0.5117  0.2137
30593SOL    HW1 2093   2.500  11.933   9.941  0.3685 -0.0256  0.8620
30593SOL    HW2 2094   2.649  11.953   9.923  0.0073  1.3465 -0.8973
30594SOL     OW 2095  11.460   2.409   5.811  0.1151 -0.1728 -0.1029
30594SOL    HW1 2096  11.474   2.336   5.871  1.6655 -0.8087 -1.1638
30594SOL    HW2 2097  11.546   2.449   5.801 -0.5487  1.3046 -0.1944
30595SOL     OW 2098  10.639   6.191  10.876  0.3192  0.0059 -0.3938
30595SOL    HW1 2099  10.615   6.131  10.947  0.2981 -0.6612 -0.9582
30595SOL    HW2 2100  10.668   6.134  10.805  0.8693  0.6904 -0.7321
30596SOL     OW 2101   3.864  11.377   0.859 -1.0282  0.0025 -0.2542
30596SOL    HW1 2102   3.918  11.303   0.888 -0.4588  0.0554 -1.1446
30596SOL    HW2 2103   3.774  11.347   0.872 -0.7988 -0.5290  0.1620
30597SOL     OW 2104   8.648   9.539   2.645  0.4373  0.7670 -0.6289
30597SOL    HW1 2105   8.668   9.588   2.724  0.4206 -0.6376  0.2795
30597SOL    HW2 2106   8.731   9.498   2.620  0.1842  0.2483 -0.6440
30598SOL     OW 2107   1.986  12.189  10.126 -0.0191  0.3846  0.1645
30598SOL    HW1 2108   2.004  12.100  10.157  1.7113  0.8243  0.5792
30598SOL    HW2 2109   2.035  12.196  10.044  0.8485  1.2852  0.7236
30599SOL     OW 2110  11.925   7.697  10.640  0.0180 -0.3735  0.3338
30599SOL    HW1 2111  11.894   7.645  10.714 -0.6882  0.3491  0.5636
30599SOL    HW2 2112  12.015   7.721  10.663  0.0368 -0.7397  0.6399
30600SOL     OW 2113   5.435  11.983  10.053  0.0774  0.3381  0.0470
30600SOL    HW1 2114   5.506  12.046  10.066 -0.8526  1.4668 -0.1729
30600SOL    HW2 2115   5.357  12.037  10.039 -0.4100 -0.8321 -2.2655
30601SOL     OW 2116   5.003   8.397   8.735 -0.6770 -0.2138  0.0936
30601SOL    HW1 2117   5.025   8.490   8.732 -0.2270 -0.3415 -1.0491
30601SOL    HW2 2118   4.961   8.385   8.821  0.9158  0.6592  1.0450
30602SOL     OW 2119   1.440   1.972   3.163 -0.3537  0.0803 -0.0369
30602SOL    HW1 2120   1.351   1.942   3.145 -0.3249 -1.6800  2.2862
30602SOL    HW2 2121   1.492   1.891   3.167  0.8803  0.8788  0.9144
30603SOL     OW 2122   9.660   5.663   2.318 -1.1433  0.1092  0.3091
30603SOL    HW1 2123   9.693   5.690   2.404 -0.8798 -0.5434  0.4160
30603SOL    HW2 2124   9.728   5.691   2.257 -0.7218 -0.5946  0.4533
30604SOL     OW 2125   6.197   9.590   3.455  0.1827 -0.3497  0.8926
30604SOL    HW1 2126   6.134   9.564   3.388  1.5546 -0.4886 -0.3731
30604SOL    HW2 2127   6.268   9.632   3.407 -0.7362  3.6255  2.5806
30605SOL     OW 2128   3.904   8.507  11.103 -0.1101 -0.2647  0.4479
30605SOL    HW1 2129   3.997   8.503  11.125 -0.0886 -0.1390  0.3786
30605SOL    HW2 2130   3.900   8.493  11.009 -0.1352  0.0396  0.4014
30606SOL     OW 2131   9.647   3.341   3.549  0.3652  0.1115  0.1824
30606SOL    HW1 2132   9.652   3.249   3.522  0.2655  0.2553 -0.3544
30606SOL    HW2 2133   9.717   3.352   3.613 -0.8832 -0.8330  1.7877
30607SOL     OW 2134  11.444   0.777   8.429 -0.0531  0.2978 -0.5440
30607SOL    HW1 2135  11.484   0.692   8.445  1.9692  1.1433 -0.7142
30607SOL    HW2 2136  11.387   0.763   8.353 -0.7231 -1.1396  0.1797
30608SOL     OW 2137   1.856   1.260   3.601  0.3767  0.1593  0.1383
30608SOL    HW1 2138   1.825   1.170   3.589  1.2491  0.0113 -1.2354
30608SOL    HW2 2139   1.784   1.314   3.570  0.1231 -0.0815  0.3044
30609SOL     OW 2140   7.320  12.444   0.775  0.2600 -0.3058  0.1024
30609SOL    HW1 2141   7.374  12.395   0.713  1.0346  1.6025 -0.8206
30609SOL    HW2 2142   7.305  12.528   0.732  0.6670  1.0315  2.4267
30610SOL     OW 2143   9.924   4.854   3.523  0.1290 -0.3826  0.0709
30610SOL    HW1 2144   9.962   4.787   3.580 -3.0866 -1.8917  0.6421
30610SOL    HW2 2145   9.974   4.848   3.442  0.8233 -2.5089  0.6003
30611SOL     OW 2146   1.742   2.844   3.476  0.3860  0.0403  0.1665
30611SOL    HW1 2147   1.652   2.838   3.442  0.1909 -1.2305  0.8428
30611SOL    HW2 2148   1.734   2.824   3.569  1.1886  1.4164  0.5501
30612SOL     OW 2149   1.920   0.926   2.639  0.1255 -0.0570 -0.0368
30612SOL    HW1 2150   1.897   0.912   2.731 -1.2885  0.4156 -0.2928
30612SOL    HW2 2151   1.921   1.021   2.628 -1.0633 -0.1067 -0.7997
30613SOL     OW 2152  10.102  10.347   2.539  0.6586 -0.1624 -0.3636
30613SOL    HW1 2153  10.103  10.274   2.601 -2.7141 -1.2722 -1.4032
30613SOL    HW2 2154  10.128  10.307   2.456 -2.7309 -0.7397 -1.2868
30614SOL     OW 2155   3.739   4.233   5.275 -0.0792  0.0498  0.1361
30614SOL    HW1 2156   3.743   4.139   5.256 -2.1256 -0.1723  0.5368
30614SOL    HW2 2157   3.728   4.237   5.370 -0.1701  0.6864  0.1001
30615SOL     OW 2158   4.440  10.998  12.758 -0.4767  0.1062 -0.6007
30615SOL    HW1 2159   4.436  11.015  12.663  0.4576  0.6613 -0.5510
30615SOL    HW2 2160   4.430  11.084  12.798 -1.1979 -0.1664 -0.1690
30616SOL     OW 2161  11.688  12.853   2.682 -0.5176 -0.3920  0.0180
30616SOL    HW1 2162  11.715  12.848   2.774  2.5443 -1.0695 -0.8157
30616SOL    HW2 2163  11.592  12.848   2.685 -0.4999 -0.7416  3.1320
30617SOL     OW 2164   5.687   7.060   8.807  0.1758  0.7039  0.0910
30617SOL    HW1 2165   5.714   7.130   8.866  0.3807  0.5877  0.1349
30617SOL    HW2 2166   5.759   7.052   8.744 -0.1943  1.0660 -0.3894
30618SOL     OW 2167  12.979   7.514   6.082  0.2704  0.4623  0.1080
30618SOL    HW1 2168  12.906   7.463   6.048  0.6293  0.1060 -0.1426
30618SOL    HW2 2169  13.013   7.562   6.006 -0.4519  1.5767  0.4603
30619SOL     OW 2170  10.168   3.067  11.968 -0.3911  0.0232 -0.2981
30619SOL    HW1 2171  10.108   2.999  11.998 -0.0930 -0.4128 -0.6867
30619SOL    HW2 2172  10.179   3.124  12.044 -4.1314  2.2454 -1.1662
30620SOL     OW 2173   1.027   1.486   7.978  0.7061  0.0000  0.2451
30620SOL    HW1 2174   1.044   1.506   8.070 -1.4202 -2.4715  1.2853
30620SOL    HW2 2175   1.112   1.456   7.945  1.4060  0.4922  1.5168
30621SOL     OW 2176   9.339   6.418   7.432 -0.2761  0.0070  0.4415
30621SOL    HW1 2177   9.433   6.427   7.447 -0.4196  0.3960  1.1328
30621SOL    HW2 2178   9.324   6.324   7.426 -0.0530 -0.1216  1.7422
30622SOL     OW 2179   0.023   1.805   0.853  0.1200 -0.0736 -0.4659
30622SOL    HW1 2180   0.009   1.827   0.945  1.4437 -0.6202 -0.1136
30622SOL    HW2 2181  -0.043   1.739   0.833 -0.2959  0.1873  0.0332
30623SOL     OW 2182  10.693   7.710   1.556  0.2407 -0.1123  0.0334
30623SOL    HW1 2183  10.633   7.658   1.502 -1.3935  0.8264  0.8580
30623SOL    HW2 2184  10.735   7.770   1.495  0.2391 -0.6863 -0.5412
30624SOL     OW 2185   0.233   3.725   9.735 -0.0922  0.0205 -0.0647
30624SOL    HW1 2186   0.189   3.680   9.663 -0.8080  1.0799 -0.3097
30624SOL    HW2 2187   0.246   3.657   9.801  1.1578 -1.1233 -1.4250
30625SOL     OW 2188   0.769   4.831   0.889 -0.4242 -0.1214 -0.0776
30625SOL    HW1 2189   0.694   4.830   0.948 -1.8728 -1.3590 -1.8350
30625SOL    HW2 2190   0.799   4.740   0.887  0.9819  0.3043  0.3716
30626SOL     OW 2191   3.083   6.310  11.348  0.3418  1.2582  0.5040
30626SOL    HW1 2192   3.136   6.361  11.409  0.8720 -0.0501  1.1825
30626SOL    HW2 2193   3.141   6.292  11.274  0.1108  1.7618  0.2016
30627SOL     OW 2194   5.927   0.639   3.356 -0.6604  0.2199 -0.0605
30627SOL    HW1 2195   5.985   0.664   3.429  1.1732 -0.4510 -1.2276
30627SOL    HW2 2196   5.843   0.680   3.378 -0.3879 -0.5084  2.7591
30628SOL     OW 2197   7.211  11.717   0.186  0.0487  0.2115 -0.0828
30628SOL    HW1 2198   7.118  11.715   0.164  0.0436  3.4465 -0.9298
30628SOL    HW2 2199   7.245  11.793   0.139  2.5562  0.6781  2.2248
30629SOL     OW 2200   1.746   8.911   3.250  0.2102  0.2219  0.0346
30629SOL    HW1 2201   1.665   8.862   3.234 -0.3012  1.3210 -0.8390
30629SOL    HW2 2202   1.814   8.861   3.204 -0.4284  0.7162 -1.5008
30630SOL     OW 2203   1.951   0.365  11.249  0.2376  0.2317 -0.4914
30630SOL    HW1 2204   1.900   0.290  11.281  1.8532 -0.7286 -0.0442
30630SOL    HW2 2205   2.005   0.390  11.324 -0.1195  1.7369 -0.7111
30631SOL     OW 2206   1.790   0.319   3.439 -0.4552 -0.5741  0.6676
30631SOL    HW1 2207   1.867   0.328   3.383 -0.7115 -0.8352  0.2691
30631SOL    HW2 2208   1.766   0.409   3.460  1.9007 -0.4507  3.5305
30632SOL     OW 2209   0.993   6.242  12.864 -0.1925 -0.6875 -0.3385
30632SOL    HW1 2210   0.925   6.178  12.885  0.1356 -1.2040 -0.8170
30632SOL    HW2 2211   1.035   6.207  12.785  0.0297  0.0923 -0.5755
30633SOL     OW 2212  12.231   1.615   6.397  0.2939 -0.4449  0.2434
30633SOL    HW1 2213  12.266   1.703   6.382  3.2795 -1.2882  1.3613
30633SOL    HW2 2214  12.230   1.575   6.310  0.4329  0.2039 -0.0637
30634SOL     OW 2215  11.811  11.361   6.831 -0.0350 -0.4273  0.1924
30634SOL    HW1 2216  11.748  11.410   6.779 -0.9911 -1.6151  0.1711
30634SOL    HW2 2217  11.762  11.338   6.911  1.0315  0.3649  1.1012
30635SOL     OW 2218   7.929   8.086   4.634 -0.2324  0.3243 -0.0638
30635SOL    HW1 2219   7.857   8.026   4.651 -0.1206 -0.9377 -3.3236
30635SOL    HW2 2220   7.917   8.113   4.543  2.7980  0.8841 -0.4032
30636SOL     OW 2221   7.153   5.183  12.295  0.4752 -0.3482 -0.1085
30636SOL    HW1 2222   7.109   5.124  12.234  2.4789 -0.3458 -1.6652
30636SOL    HW2 2223   7.112   5.165  12.380 -1.3062 -1.4965 -1.1536
30637SOL     OW 2224   4.007  11.737  10.684  0.2419  0.0247 -0.2077
30637SOL    HW1 2225   4.046  11.793  10.751 -0.4215  0.9691 -0.5998
30637SOL    HW2 2226   3.954  11.674  10.733  1.1790 -0.4294  0.2480
30638SOL     OW 2227   7.490  11.353   9.656  0.0972  0.4172  0.4054
30638SOL    HW1 2228   7.476  11.443   9.685 -2.0433  0.1906  0.1936
30638SOL    HW2 2229   7.486  11.358   9.561  0.0019  0.0871  0.3924
30639SOL     OW 2230   1.197   9.142   6.322  0.2334 -0.9991  0.3302
30639SOL    HW1 2231   1.198   9.108   6.233  0.9375  1.0756 -0.5218
30639SOL    HW2 2232   1.109   9.126   6.354 -1.1130  1.1122 -1.9826
30640SOL     OW 2233  10.416   7.724  12.351  0.0309 -0.1811  0.0028
30640SOL    HW1 2234  10.337   7.772  12.373 -0.2381 -0.1385 -0.9847
30640SOL    HW2 2235  10.414   7.646  12.407 -1.2875 -0.7410 -0.7697
30641SOL     OW 2236   3.733   9.801  10.415  0.0895 -0.1148  0.2065
30641SOL    HW1 2237   3.774   9.727  10.459 -0.5202 -0.5390  0.0770
30641SOL    HW2 2238   3.788   9.876  10.437  0.4474 -0.5256  0.7217
30642SOL     OW 2239  11.330   6.825   6.910  0.3237 -0.1000  0.1838
30642SOL    HW1 2240  11.358   6.768   6.982  0.8640  0.9318  0.7961
30642SOL    HW2 2241  11.398   6.891   6.902 -0.8005  1.1165  0.2032
30643SOL     OW 2242   5.114   0.026   9.236  0.1891  0.1778 -0.3931
30643SOL    HW1 2243   5.155   0.065   9.159 -1.2623  0.9687 -0.7992
30643SOL    HW2 2244   5.055   0.094   9.269 -1.5011 -1.2178 -0.3961
30644SOL     OW 2245  11.803   9.411   3.484  0.0729 -0.2299 -0.0986
30644SOL    HW1 2246  11.710   9.400   3.464 -0.1264  1.3259 -0.1948
30644SOL    HW2 2247  11.832   9.480   3.423  1.3024 -0.7383 -0.1060
30645SOL     OW 2248   3.049   5.625   8.475 -0.2265 -0.2099  0.0794
30645SOL    HW1 2249   3.120   5.570   8.440 -0.6608  0.0046 -1.1882
30645SOL    HW2 2250   2.973   5.566   8.478 -0.3678 -0.0356 -0.0437
30646SOL     OW 2251   5.050   0.032   0.972  0.2241  0.2310  0.7154
30646SOL    HW1 2252   4.956   0.036   0.954  0.0351  2.4660  1.7427
30646SOL    HW2 2253   5.089   0.001   0.890 -1.3675 -0.3140  0.1237
30647SOL     OW 2254  12.092  12.103  11.601 -0.3855  0.0094  0.1641
30647SOL    HW1 2255  12.079  12.024  11.549 -1.0488 -0.4538  1.0266
30647SOL    HW2 2256  12.186  12.122  11.592 -0.5312  0.1493 -1.4766
30648SOL     OW 2257   7.214   4.347   7.679  0.7095 -0.3075  0.4260
30648SOL    HW1 2258   7.200   4.258   7.712  0.6817 -0.8955 -1.0841
30648SOL    HW2 2259   7.262   4.335   7.597  0.6257  1.0745  0.1461
30649SOL     OW 2260   1.907   7.118   0.935 -0.3182  0.2403 -0.1996
30649SOL    HW1 2261   1.957   7.126   0.853 -0.1200  3.5737  0.0895
30649SOL    HW2 2262   1.817   7.100   0.907 -0.2391  1.2668 -1.1889
30650SOL     OW 2263  12.505   2.680   1.897 -0.3192  0.2505  0.4351
30650SOL    HW1 2264  12.591   2.705   1.930  0.0979 -0.5026 -0.0346
30650SOL    HW2 2265  12.522   2.603   1.842 -1.5110 -1.1093  1.8578
30651SOL     OW 2266   9.573   9.895   6.106  0.0965 -0.4606 -0.3398
30651SOL    HW1 2267   9.511   9.949   6.156  0.6893 -2.1005  2.3802
30651SOL    HW2 2268   9.657   9.908   6.150  0.6023 -2.2308 -0.7096
30652SOL     OW 2269   3.287   4.743   0.094 -0.3562 -0.6900 -0.7076
30652SOL    HW1 2270   3.346   4.739   0.018 -1.2205  0.6598 -1.4881
30652SOL    HW2 2271   3.223   4.811   0.071 -2.6029 -2.4928 -0.1690
30653SOL     OW 2272   2.377  10.823   2.350 -0.3719 -0.5223 -0.0908
30653SOL    HW1 2273   2.431  10.764   2.404  0.1840  0.6057  0.6263
30653SOL    HW2 2274   2.426  10.832   2.269 -1.2202 -2.2450 -0.8448
30654SOL     OW 2275   9.822   7.004   5.315  0.1332 -0.2612  0.3903
30654SOL    HW1 2276   9.794   7.038   5.399 -0.1878 -0.8010  0.5047
30654SOL    HW2 2277   9.845   7.082   5.264 -1.3547  0.1854  0.3586
30655SOL     OW 2278   7.338   6.411   8.449  0.4107  0.2296 -0.0770
30655SOL    HW1 2279   7.319   6.319   8.466 -0.7225  0.6177  0.9077
30655SOL    HW2 2280   7.429   6.423   8.477  0.3311 -0.4294  0.4819
30656SOL     OW 2281  11.972   3.062   6.169  0.3663 -0.1572  0.4844
30656SOL    HW1 2282  12.009   3.004   6.102  0.6675 -0.3683  0.8287
30656SOL    HW2 2283  11.879   3.042   6.170  0.1748  0.6098 -0.6256
30657SOL     OW 2284   6.396   9.490   4.601  0.4149 -0.3979 -0.0470
30657SOL    HW1 2285   6.443   9.558   4.650 -0.0722 -1.0058  1.2993
30657SOL    HW2 2286   6.387   9.527   4.513 -2.0586  2.4811  1.1929
30658SOL     OW 2287   3.506   8.185   3.710 -0.2231 -0.3969 -0.2800
30658SOL    HW1 2288   3.436   8.180   3.646  0.1010  0.6044 -0.7351
30658SOL    HW2 2289   3.584   8.154   3.664  0.2356  1.3234 -0.7538
30659SOL     OW 2290   0.725   9.380   8.627  0.0639 -0.4309  0.1819
30659SOL    HW1 2291   0.760   9.312   8.684  2.6152  0.3669 -0.3363
30659SOL    HW2 2292   0.793   9.395   8.561 -0.9749  1.6885 -0.5146
30660SOL     OW 2293  10.928   7.601  11.362 -0.6194  0.5750 -0.2582
30660SOL    HW1 2294  10.901   7.557  11.443 -4.0038  1.2415 -0.8737
30660SOL    HW2 2295  10.955   7.531  11.304  1.3199  0.0342  1.1967
30661SOL     OW 2296   8.081  10.862   3.477  0.2959  0.3561  0.1378
30661SOL    HW1 2297   7.992  10.837   3.501 -0.5996  0.8475 -2.4524
30661SOL    HW2 2298   8.136  10.821   3.545 -1.4000 -4.5883 -1.0370
30662SOL     OW 2299  10.622  11.133  11.063  0.3731  0.1186 -0.3238
30662SOL    HW1 2300  10.588  11.055  11.107  0.0203 -0.0412 -0.8740
30662SOL    HW2 2301  10.673  11.178  11.131  0.8207 -0.7335 -0.0804
30663SOL     OW 2302   4.140   3.365   0.654 -0.0257 -0.0406 -0.1366
30663SOL    HW1 2303   4.100   3.292   0.607 -0.5962 -0.7134  1.3219
30663SOL    HW2 2304   4.224   3.380   0.610 -0.5897 -0.5566 -1.4069
30664SOL     OW 2305   5.595   0.683  10.769 -0.1078 -0.2584  0.1032
30664SOL    HW1 2306   5.654   0.750  10.804  2.1056 -1.6835 -0.6745
30664SOL    HW2 2307   5.653   0.611  10.744 -2.2110 -1.7462 -0.7829
30665SOL     OW 2308  10.683   4.325   5.673 -0.5962  0.5284 -0.1197
30665SOL    HW1 2309  10.620   4.395   5.694  1.5562  3.5628 -2.7485
30665SOL    HW2 2310  10.645   4.281   5.597 -0.0782  1.7728 -1.1455
30666SOL     OW 2311   7.997  11.795   6.360  0.1488 -0.0128  0.2080
30666SOL    HW1 2312   8.092  11.785   6.369  0.3912  2.1284  0.6048
30666SOL    HW2 2313   7.978  11.763   6.273  1.0480 -1.5537  0.5448
30667SOL     OW 2314  10.372   6.665   6.456  0.5965 -0.0808 -0.5895
30667SOL    HW1 2315  10.317   6.598   6.496  0.0378  0.9670  0.4769
30667SOL    HW2 2316  10.462   6.636   6.473  0.3644 -0.1551  0.5931
30668SOL     OW 2317  11.464  12.450   5.903 -0.0403 -0.5828  0.4852
30668SOL    HW1 2318  11.491  12.411   5.986 -0.9039  0.1995  1.1633
30668SOL    HW2 2319  11.529  12.519   5.887 -1.1647  0.8661  1.7811
30669SOL     OW 2320   8.057   2.690   9.124 -0.3798  0.2945 -0.2233
30669SOL    HW1 2321   8.108   2.771   9.114  1.4747 -0.2913  3.0327
30669SOL    HW2 2322   8.010   2.702   9.207 -0.5290 -1.7399  0.0249
30670SOL     OW 2323   8.883   7.465   2.214 -0.0287 -0.3299  0.0329
30670SOL    HW1 2324   8.885   7.512   2.298  0.3389  0.9556 -0.6605
30670SOL    HW2 2325   8.894   7.373   2.237 -2.1186 -0.2640  1.5724
30671SOL     OW 2326  11.987   8.863   8.941 -0.3467 -0.2523 -0.7379
30671SOL    HW1 2327  11.991   8.783   8.888  1.4849 -1.0775  0.5577
30671SOL    HW2 2328  12.022   8.931   8.883 -0.2374 -0.7363 -1.2532
30672SOL     OW 2329   6.350   7.912   8.788  0.6199 -0.0947 -0.7460
30672SOL    HW1 2330   6.304   7.988   8.822  0.3414 -0.7391  0.3379
30672SOL    HW2 2331   6.439   7.919   8.824  0.3543 -0.7230  0.0404
30673SOL     OW 2332   4.172   0.510   4.453 -0.2958  0.1973 -0.0479
30673SOL    HW1 2333   4.207   0.597   4.469 -0.4832  0.1880  0.4148
30673SOL    HW2 2334   4.128   0.517   4.368  1.8673 -0.1034 -1.2580
30674SOL     OW 2335   6.489   3.995   7.215  0.1678 -0.1156 -0.7442
30674SOL    HW1 2336   6.502   3.933   7.287 -3.0111 -2.8210 -2.2275
30674SOL    HW2 2337   6.520   3.948   7.137  1.2564  1.7843 -1.5362
30675SOL     OW 2338   8.559  12.595  11.683 -0.6748 -0.0092 -0.2197
30675SOL    HW1 2339   8.561  12.644  11.601  0.9739 -0.4517 -0.4664
30675SOL    HW2 2340   8.642  12.614  11.725  0.2033 -2.8230 -0.4932
30676SOL     OW 2341   5.748  11.138   3.348 -0.1048 -0.1463  0.3808
30676SOL    HW1 2342   5.774  11.059   3.301 -0.9752  1.6069 -3.4863
30676SOL    HW2 2343   5.819  11.200   3.332 -0.4396  0.5236  1.4084
30677SOL     OW 2344   3.432   1.382   2.376 -0.3927  0.0547 -0.7061
30677SOL    HW1 2345   3.386   1.329   2.311 -0.4522 -2.0145  0.9404
30677SOL    HW2 2346   3.381   1.373   2.456  1.3349 -0.0184  0.4491
30678SOL     OW 2347  12.432   5.381  11.710  0.2716 -0.2333  0.0718
30678SOL    HW1 2348  12.411   5.302  11.659 -0.7222 -0.7289  1.1937
30678SOL    HW2 2349  12.361   5.442  11.689  1.8811  1.0551 -2.0592
30679SOL     OW 2350  12.016   5.408   3.429 -0.3645 -0.0261 -0.3798
30679SOL    HW1 2351  11.965   5.359   3.365  1.5876 -0.8152 -1.4372
30679SOL    HW2 2352  12.068   5.341   3.474  0.3230  0.8047  0.0868
30680SOL     OW 2353  10.580   9.797   2.205  0.2236 -0.1844  0.3219
30680SOL    HW1 2354  10.567   9.722   2.263 -0.2885  0.4364  1.0204
30680SOL    HW2 2355  10.672   9.820   2.216  0.7565 -1.5247 -0.9165
30681SOL     OW 2356   6.169   5.153   3.854  0.0447  0.2536  0.3666
30681SOL    HW1 2357   6.104   5.223   3.839 -0.0152  0.2558  0.6360
30681SOL    HW2 2358   6.236   5.170   3.788 -2.2178 -2.2669 -2.9444
30682SOL     OW 2359   6.004   5.905   7.793 -0.2200  0.4383 -0.4391
30682SOL    HW1 2360   5.912   5.898   7.817  0.0525  0.0591  0.5505
30682SOL    HW2 2361   6.009   5.865   7.707 -1.3211  2.2961 -1.4295
30683SOL     OW 2362  10.811   9.649   9.960 -0.3024  0.2352 -0.2586
30683SOL    HW1 2363  10.901   9.674   9.985  0.0255  0.2885 -1.4122
30683SOL    HW2 2364  10.772   9.731   9.930  0.2521 -0.2564 -2.5434
30684SOL     OW 2365   4.343   8.745  10.678  0.0318  0.3484  0.5243
30684SOL    HW1 2366   4.305   8.658  10.695 -0.5202  0.8814  2.2618
30684SOL    HW2 2367   4.420   8.749  10.734  0.6736  0.5986 -0.3587
30685SOL     OW 2368  11.646   0.123  10.228  0.2595 -0.4497  0.1276
30685SOL    HW1 2369  11.565   0.072  10.229 -1.4484  2.0285  1.5688
30685SOL    HW2 2370  11.684   0.110  10.315  0.0056  0.3746  0.3755
30686SOL     OW 2371   7.994   7.987  12.774 -0.0485 -0.0830  0.2018
30686SOL    HW1 2372   8.008   8.051  12.703 -0.3704 -0.8625 -0.5797
30686SOL    HW2 2373   7.953   8.038  12.844  3.2612  1.4839  1.2022
30687SOL     OW 2374   3.471   9.330  10.609 -0.3298  0.3290 -0.2185
30687SOL    HW1 2375   3.418   9.277  10.550 -1.1405  0.4690  0.3659
30687SOL    HW2 2376   3.437   9.419  10.598 -1.1872  0.2119  1.1621
30688SOL     OW 2377   6.941  10.759   2.685 -0.3282  0.1978 -0.1447
30688SOL    HW1 2378   6.951  10.680   2.631 -0.2746 -1.3094  1.9552
30688SOL    HW2 2379   6.955  10.831   2.624  3.9291 -1.3928 -1.4291
30689SOL     OW 2380  12.292   0.758   5.437 -0.0826 -0.2350  0.7337
30689SOL    HW1 2381  12.387   0.767   5.445 -0.1129  0.6232  0.2902
30689SOL    HW2 2382  12.278   0.667   5.411  0.6861 -0.1535 -0.0201
30690SOL     OW 2383   7.127  10.042   4.349 -0.0458 -0.6562  0.2272
30690SOL    HW1 2384   7.066   9.969   4.343  1.3667 -1.9809  0.9822
30690SOL    HW2 2385   7.076  10.114   4.384 -1.6429 -1.0811 -1.1535
30691SOL     OW 2386   9.139   7.794   7.989 -0.3199  0.4185 -0.5161
30691SOL    HW1 2387   9.177   7.806   8.076  0.1415 -1.5532 -0.3939
30691SOL    HW2 2388   9.102   7.879   7.967 -0.9577  0.8315  1.8536
30692SOL     OW 2389  10.131   6.539  12.730 -0.8363  0.7498  0.5274
30692SOL    HW1 2390  10.079   6.602  12.779  1.6710  0.4370  3.9433
30692SOL    HW2 2391  10.160   6.475  12.795  2.4312 -0.0028 -1.4200
30693SOL     OW 2392   9.881   4.126   9.671  0.4969  0.0846 -0.0756
30693SOL    HW1 2393   9.845   4.208   9.703  0.5786 -0.5902  1.8888
30693SOL    HW2 2394   9.825   4.102   9.598 -0.0407  1.4568 -0.1390
30694SOL     OW 2395   8.438   8.237   5.137  0.3356  0.7105  0.2491
30694SOL    HW1 2396   8.344   8.248   5.147  0.2971  0.5020  0.1354
30694SOL    HW2 2397   8.460   8.287   5.058  0.2402  0.3681  0.0019
30695SOL     OW 2398  11.866  10.991   5.555 -0.4391  0.1444  0.0754
30695SOL    HW1 2399  11.891  10.954   5.470  1.5628 -0.2452  0.7755
30695SOL    HW2 2400  11.794  10.936   5.586 -0.3853 -0.4558 -0.8391
30696SOL     OW 2401   6.061   6.730   3.235 -0.0162 -0.3056  0.7564
30696SOL    HW1 2402   6.134   6.698   3.182  2.4060  2.6213  2.0106
30696SOL    HW2 2403   6.004   6.774   3.172  0.5416 -0.5976  0.0292
30697SOL     OW 2404   0.503  12.805  10.365 -0.3554  0.5204 -1.0592
30697SOL    HW1 2405   0.498  12.779  10.457  2.6765  0.8735 -0.7136
30697SOL    HW2 2406   0.418  12.847  10.348 -1.2300 -0.0653  1.3637
30698SOL     OW 2407   8.357   2.525   0.073  0.1211 -0.5030 -0.1246
30698SOL    HW1 2408   8.311   2.540   0.156  0.0401 -0.9425 -0.0883
30698SOL    HW2 2409   8.397   2.610   0.053 -1.3158  0.1001 -0.5536
30699SOL     OW 2410   2.584   0.109   7.657 -0.1881  0.8376 -0.1390
30699SOL    HW1 2411   2.592   0.082   7.748  1.4375 -1.9328 -0.9727
30699SOL    HW2 2412   2.666   0.153   7.637  0.1325  0.0460 -0.6343
30700SOL     OW 2413   9.670   8.104   8.019 -0.0574 -0.2540  0.2529
30700SOL    HW1 2414   9.714   8.164   8.079 -0.8925 -0.2538  0.8857
30700SOL    HW2 2415   9.577   8.122   8.032 -0.3437 -1.8870  0.6752
30701SOL     OW 2416  10.936   0.275   6.392 -0.0726 -0.5183 -0.0329
30701SOL    HW1 2417  10.967   0.291   6.482 -0.5278  2.8914 -0.3495
30701SOL    HW2 2418  11.012   0.297   6.337  0.1206 -2.3392 -0.5698
30702SOL     OW 2419   8.703   9.012   0.965  0.3667 -0.0175 -0.3167
30702SOL    HW1 2420   8.651   8.938   0.934 -0.1180 -0.3804  1.3050
30702SOL    HW2 2421   8.762   8.975   1.030 -0.0381  1.0472  0.6840
30703SOL     OW 2422  11.215   7.401   3.973 -0.0985  0.3256  0.1441
30703SOL    HW1 2423  11.226   7.404   4.068 -0.1910  1.1570  0.1361
30703SOL    HW2 2424  11.122   7.418   3.960  0.0769  1.1057 -0.1302
30704SOL     OW 2425  12.834   5.414  11.852  0.0604  0.1065  0.4598
30704SOL    HW1 2426  12.854   5.493  11.802 -0.3517 -0.0815 -0.0102
30704SOL    HW2 2427  12.854   5.437  11.942  0.0074  0.7246  0.3151
30705SOL     OW 2428   3.300   3.562   3.721 -0.0066  0.6199 -0.1466
30705SOL    HW1 2429   3.277   3.652   3.743  0.2782  0.2159  1.9491
30705SOL    HW2 2430   3.216   3.522   3.698 -0.1107  1.4385 -1.2952
30706SOL     OW 2431  10.030  10.627   6.588  0.1510 -0.3310  0.1951
30706SOL    HW1 2432  10.011  10.654   6.678  2.8448 -0.2379  0.8225
30706SOL    HW2 2433   9.993  10.538   6.582 -1.0308  0.0796  0.9990
30707SOL     OW 2434   0.136   7.665  12.086  0.1988 -0.0959  0.4317
30707SOL    HW1 2435   0.216   7.693  12.130  0.1293 -0.4088  0.7548
30707SOL    HW2 2436   0.078   7.741  12.093  1.0700  0.7843 -1.3384
30708SOL     OW 2437   9.727   2.639   8.755 -0.1597 -0.0342 -0.6201
30708SOL    HW1 2438   9.754   2.630   8.847  1.8322  0.7464 -1.0784
30708SOL    HW2 2439   9.653   2.699   8.758  1.2228  1.7457  0.3544
30709SOL     OW 2440  11.795  12.767   2.935  0.2676 -0.4432  0.8451
30709SOL    HW1 2441  11.840  12.685   2.913  0.1460 -0.1700 -0.5122
30709SOL    HW2 2442  11.781  12.762   3.030 -0.1951 -2.2280  0.7225
30710SOL     OW 2443   7.177   3.439   7.052 -0.0483  0.0565 -0.0965
30710SOL    HW1 2444   7.218   3.524   7.033 -1.1039  0.6886  0.4176
30710SOL    HW2 2445   7.105   3.459   7.111  0.2713 -1.3218  0.8149
30711SOL     OW 2446   6.052   1.627   4.222 -0.4080 -0.5349 -0.3768
30711SOL    HW1 2447   6.044   1.719   4.196 -0.3448 -0.6220 -0.7041
30711SOL    HW2 2448   6.116   1.628   4.293 -0.8521 -0.2510  0.0312
30712SOL     OW 2449   3.694   9.601   8.268  0.2733  0.4452  0.5201
30712SOL    HW1 2450   3.743   9.542   8.325 -0.1857  0.1753  0.6447
30712SOL    HW2 2451   3.757   9.630   8.203  0.5331 -0.1063  0.5181
30713SOL     OW 2452  11.533   7.121   4.729 -0.1964  0.3377 -0.1586
30713SOL    HW1 2453  11.492   7.199   4.767 -0.6619  0.4222 -0.8271
30713SOL    HW2 2454  11.613   7.154   4.688  0.4872  0.1942  1.0237
30714SOL     OW 2455   2.875  12.509   8.511  0.1964  0.3679 -0.2614
30714SOL    HW1 2456   2.870  12.431   8.455  0.0814  0.5669 -0.5349
30714SOL    HW2 2457   2.844  12.580   8.455  1.4435  0.8163 -0.4238
30715SOL     OW 2458   4.256   5.793   5.720  0.3034 -0.0051 -0.6265
30715SOL    HW1 2459   4.194   5.864   5.704 -0.3985 -0.8172 -1.6624
30715SOL    HW2 2460   4.302   5.819   5.800 -2.5387 -0.1425  1.2317
30716SOL     OW 2461   4.145  12.845  11.623 -0.4271  0.0239  0.1691
30716SOL    HW1 2462   4.172  12.786  11.694 -1.2110  0.3535  0.7526
30716SOL    HW2 2463   4.064  12.806  11.589 -1.0434  0.8468  0.6716
30717SOL     OW 2464   9.885   8.543   7.702 -0.4716 -0.3196 -0.3739
30717SOL    HW1 2465   9.945   8.508   7.768 -0.6471  2.6756  1.5989
30717SOL    HW2 2466   9.941   8.594   7.643 -0.7094 -0.2228 -0.5179
30718SOL     OW 2467  12.664   7.140  10.297  0.5292  0.0945 -0.3462
30718SOL    HW1 2468  12.666   7.235  10.285 -0.9148  0.0391 -1.3612
30718SOL    HW2 2469  12.742   7.120  10.349  0.5659  1.8886  0.3540
30719SOL     OW 2470   8.461  11.345   9.349 -0.2646  0.3286  0.4408
30719SOL    HW1 2471   8.522  11.416   9.370  0.2928  0.1071 -0.3884
30719SOL    HW2 2472   8.406  11.381   9.280 -0.2155  0.0755  0.2693
30720SOL     OW 2473   0.787  11.466   0.974 -0.1816 -0.1026  0.3113
30720SOL    HW1 2474   0.708  11.483   0.922 -0.8028 -0.2541  1.1941
30720SOL    HW2 2475   0.857  11.458   0.908 -0.8195  0.4366 -0.4545
30721SOL     OW 2476   1.379   3.566   2.523 -0.4631 -0.0782  0.6788
30721SOL    HW1 2477   1.406   3.621   2.449  0.7799 -1.4482  0.0811
30721SOL    HW2 2478   1.460   3.538   2.564 -1.1189 -0.1225  2.0300
30722SOL     OW 2479   2.491   0.983   4.318 -0.7690 -0.1876  0.0966
30722SOL    HW1 2480   2.506   1.078   4.315 -0.3926 -0.2392  0.2887
30722SOL    HW2 2481   2.416   0.973   4.376  0.1570 -0.1074  1.3499
30723SOL     OW 2482   5.045   9.616  11.970 -0.4257 -0.0868 -0.1158
30723SOL    HW1 2483   5.012   9.602  12.058  1.2139 -0.7973  0.4101
30723SOL    HW2 2484   5.046   9.712  11.960  1.6049  0.1257  1.5487
30724SOL     OW 2485   5.028   9.034   5.773  0.4167 -0.2288  0.1033
30724SOL    HW1 2486   4.986   9.109   5.732  0.3886  1.2163  2.6032
30724SOL    HW2 2487   5.053   8.977   5.700 -0.9495  1.4594 -1.7578
30725SOL     OW 2488   3.850   8.725  12.285 -0.2566 -0.8116 -0.0948
30725SOL    HW1 2489   3.908   8.649  12.287  2.1152  0.8884  1.2664
30725SOL    HW2 2490   3.894   8.790  12.340 -2.5310  1.3049 -0.6052
30726SOL     OW 2491   3.272   3.287  12.218  0.7518  1.0632 -0.2207
30726SOL    HW1 2492   3.308   3.366  12.179 -1.3132  1.2880 -1.8575
30726SOL    HW2 2493   3.254   3.229  12.144  1.5284 -0.6963  0.8754
30727SOL     OW 2494   7.872   5.430   8.001 -0.3908  0.3382 -0.3020
30727SOL    HW1 2495   7.958   5.437   7.960 -0.0918  1.7211  0.4726
30727SOL    HW2 2496   7.824   5.369   7.946  0.6685  0.5159 -1.4868
30728SOL     OW 2497   5.746   6.998   9.935  0.3253  0.5837 -0.2404
30728SOL    HW1 2498   5.804   6.923   9.922 -0.9058 -0.2737 -1.0909
30728SOL    HW2 2499   5.658   6.959   9.940 -0.1983  1.8309  0.9958
30729SOL     OW 2500   9.602   1.247   8.688 -0.8853  0.8621 -0.1168
30729SOL    HW1 2501   9.667   1.219   8.624 -2.2279  2.1792 -2.1978
30729SOL    HW2 2502   9.549   1.170   8.704 -0.7951  0.6160 -0.9590
30730SOL     OW 2503   8.840  10.187   5.251  0.3924 -0.2866 -0.4812
30730SOL    HW1 2504   8.904  10.129   5.211  0.7938 -0.1235 -0.0837
30730SOL    HW2 2505   8.833  10.261   5.190  0.2242 -0.5322 -0.7590
30731SOL     OW 2506  10.621   0.040   5.097  0.0660  0.3177 -0.0754
30731SOL    HW1 2507  10.600  -0.040   5.146 -1.1960 -0.3773 -1.6698
30731SOL    HW2 2508  10.713   0.057   5.118  0.0514 -0.9084  1.1671
30732SOL     OW 2509  10.860   5.507   6.438  0.1875  0.0288  0.3162
30732SOL    HW1 2510  10.776   5.470   6.410  1.3220 -2.0196 -0.6259
30732SOL    HW2 2511  10.917   5.497   6.361  1.8463 -0.5465  1.5593
30733SOL     OW 2512   6.954   1.141  11.781  0.4986  0.2983  0.2102
30733SOL    HW1 2513   6.951   1.174  11.871  1.6384  0.1978  0.3028
30733SOL    HW2 2514   7.047   1.141  11.759  0.2376  0.2851 -0.9618
30734SOL     OW 2515   0.045   2.476   0.763 -0.6224  0.4390 -0.3482
30734SOL    HW1 2516   0.092   2.393   0.761 -0.8643  0.2957 -0.1299
30734SOL    HW2 2517   0.046   2.502   0.856 -0.2207  0.8647 -0.4680
30735SOL     OW 2518   9.971  11.313  12.878 -0.0683  0.4233 -0.4547
30735SOL    HW1 2519   9.979  11.380  12.946  1.5058  1.0736 -1.2352
30735SOL    HW2 2520   9.882  11.325  12.844 -0.8119  0.2259  1.2869
30736SOL     OW 2521   1.113   6.190  11.006  0.0882 -0.1832 -0.0947
30736SOL    HW1 2522   1.043   6.146  11.055  0.4379 -0.3784  0.2368
30736SOL    HW2 2523   1.164   6.236  11.073 -0.0448  0.4168 -0.3997
30737SOL     OW 2524   1.682   9.476   2.041 -0.4610 -0.2053 -0.3655
30737SOL    HW1 2525   1.777   9.476   2.036 -0.2543  1.7199  1.9812
30737SOL    HW2 2526   1.655   9.533   1.968  0.2883  0.3740 -0.2061
30738SOL     OW 2527   4.442   1.722  12.917 -0.3718  0.3805  0.5225
30738SOL    HW1 2528   4.514   1.685  12.866 -0.3066  1.3206 -0.0981
30738SOL    HW2 2529   4.482   1.793  12.968 -0.3259 -0.8640  2.3350
30739SOL     OW 2530   1.876   7.567  12.425 -0.0398  0.1552  0.2999
30739SOL    HW1 2531   1.828   7.638  12.384 -1.0717 -0.6963 -0.0092
30739SOL    HW2 2532   1.848   7.567  12.516 -0.5620 -0.2731  0.1438
30740SOL     OW 2533  11.597   7.599   1.089 -0.3999 -0.3613  0.1799
30740SOL    HW1 2534  11.638   7.684   1.104 -0.1012 -0.6887  1.3736
30740SOL    HW2 2535  11.670   7.537   1.082 -0.6305 -0.6505  0.2863
30741SOL     OW 2536   2.005  11.695  12.330 -0.1527 -0.3287 -0.3523
30741SOL    HW1 2537   2.083  11.712  12.278 -1.0664  0.0538 -1.6413
30741SOL    HW2 2538   2.006  11.600  12.344  1.3675 -0.1527  1.0418
30742SOL     OW 2539   0.061   7.460  10.955 -0.2941 -0.3687 -0.4110
30742SOL    HW1 2540   0.080   7.516  11.030  0.7870 -1.5762  0.2525
30742SOL    HW2 2541   0.030   7.521  10.887 -1.0790  0.7739  0.9105
30743SOL     OW 2542  11.370   3.582   0.801  0.6690 -0.2897 -0.2770
30743SOL    HW1 2543  11.310   3.540   0.862  0.7765  0.4074  0.3126
30743SOL    HW2 2544  11.324   3.579   0.717  1.0647 -2.4301 -0.4770
30744SOL     OW 2545   6.450   0.158  12.224  0.1523 -0.0878 -0.2743
30744SOL    HW1 2546   6.451   0.063  12.216  0.5270 -0.0700 -0.4754
30744SOL    HW2 2547   6.487   0.175  12.311 -1.5354 -0.1837  0.5114
30745SOL     OW 2548  11.183  11.418   0.961  0.1738 -0.3175  0.0273
30745SOL    HW1 2549  11.208  11.328   0.940 -1.7883 -0.8488 -0.2738
30745SOL    HW2 2550  11.148  11.413   1.050  0.5323  0.2664  0.2102
30746SOL     OW 2551   5.662   1.831   5.394 -0.2089 -0.6227 -0.2344
30746SOL    HW1 2552   5.747   1.872   5.381 -0.5260 -0.1298 -0.7956
30746SOL    HW2 2553   5.683   1.739   5.414  0.5244 -0.1184  1.5559
30747SOL     OW 2554   3.402  11.201   4.593 -0.3373 -0.5250  0.1074
30747SOL    HW1 2555   3.334  11.269   4.594  0.2477  0.1520 -1.7300
30747SOL    HW2 2556   3.364  11.132   4.538  0.6849  0.1709 -1.5448
30748SOL     OW 2557  10.119   0.916   5.328 -0.2916 -0.0499  0.1606
30748SOL    HW1 2558  10.065   0.922   5.250 -0.1616 -0.5649  0.0328
30748SOL    HW2 2559  10.147   1.007   5.344 -1.4684  0.2788  0.4368
30749SOL     OW 2560  10.160  10.432   4.166  0.1796  1.0291  0.2316
30749SOL    HW1 2561  10.123  10.477   4.241 -0.5073  1.9971 -0.6603
30749SOL    HW2 2562  10.240  10.480   4.146 -1.0811  2.5830 -1.3577
30750SOL     OW 2563   7.718   6.608   1.860  0.2622 -0.3413 -0.2508
30750SOL    HW1 2564   7.664   6.573   1.931 -0.3327 -0.9356 -0.9771
30750SOL    HW2 2565   7.683   6.567   1.781  2.4993 -1.7019 -0.6438
30751SOL     OW 2566  10.201  11.547   1.768  0.3669 -0.5198  0.2609
30751SOL    HW1 2567  10.230  11.563   1.678  0.5489 -0.6962  0.2883
30751SOL    HW2 2568  10.265  11.485   1.803 -0.1256 -1.0319  0.2687
30752SOL     OW 2569   4.086   6.950   3.347 -0.9293 -0.1057 -0.8539
30752SOL    HW1 2570   4.065   6.934   3.439 -0.1739  0.5781 -0.5472
30752SOL    HW2 2571   4.152   6.884   3.326  0.2597  0.8896 -0.3515
30753SOL     OW 2572   1.409   2.784   5.446 -0.6353 -0.1194 -0.0114
30753SOL    HW1 2573   1.435   2.713   5.505 -0.4281 -0.5119 -0.5683
30753SOL    HW2 2574   1.443   2.863   5.488 -0.7300 -0.3643  0.5337
30754SOL     OW 2575   9.476  12.906   5.870 -0.5975 -0.2194  0.7930
30754SOL    HW1 2576   9.414  12.971   5.902  2.9885  3.3677  1.3098
30754SOL    HW2 2577   9.492  12.849   5.946 -0.5906  1.1466  1.8759
30755SOL     OW 2578   8.363  11.457   2.435  0.0591 -0.2608 -0.1325
30755SOL    HW1 2579   8.456  11.478   2.443 -0.2140  0.1768  2.5760
30755SOL    HW2 2580   8.351  11.379   2.489 -1.6949  1.6301  2.4065
30756SOL     OW 2581  11.776   6.842   1.319  0.1306  0.5238  0.1131
30756SOL    HW1 2582  11.771   6.850   1.414  0.1059  0.6645  0.1012
30756SOL    HW2 2583  11.751   6.752   1.300  3.0197 -0.4600  0.4667
30757SOL     OW 2584   2.197   8.607   4.168  0.0407 -0.1438  0.3199
30757SOL    HW1 2585   2.272   8.640   4.219  0.2697  1.5134 -1.0103
30757SOL    HW2 2586   2.236   8.575   4.087 -0.6189  0.2374 -0.1568
30758SOL     OW 2587   6.190   9.494   0.843  0.0260 -0.5496 -0.2017
30758SOL    HW1 2588   6.212   9.405   0.873  1.1005 -0.2258 -0.0178
30758SOL    HW2 2589   6.195   9.548   0.922  1.3418  0.0250 -0.6528
30759SOL     OW 2590  12.151   1.996   1.128  0.4740 -0.1913  0.2548
30759SOL    HW1 2591  12.246   1.988   1.136  0.5535 -0.7058 -0.9251
30759SOL    HW2 2592  12.136   2.088   1.108  0.6300  0.0945  1.3926
30760SOL     OW 2593   2.819   8.064   9.749 -0.3729  0.0094 -0.4568
30760SOL    HW1 2594   2.869   8.144   9.733  0.8303 -0.7003 -0.4467
30760SOL    HW2 2595   2.791   8.070   9.840 -1.1481  0.8535 -0.7380
30761SOL     OW 2596   8.768   9.502   0.882  0.0973  0.0279 -0.0978
30761SOL    HW1 2597   8.768   9.580   0.827 -0.2560  1.2275  1.5179
30761SOL    HW2 2598   8.853   9.505   0.927  0.5445 -1.1381 -0.8296
30762SOL     OW 2599   1.028  10.270  11.533  0.1143 -0.5400  0.0104
30762SOL    HW1 2600   1.008  10.177  11.540  3.7801 -1.4158  0.9732
30762SOL    HW2 2601   1.101  10.275  11.471  0.9888  1.4387  1.0848
30763SOL     OW 2602   7.633   7.748   0.733 -0.4268 -0.0410  1.1085
30763SOL    HW1 2603   7.635   7.737   0.638  1.1809 -0.0939  1.1203
30763SOL    HW2 2604   7.586   7.831   0.747 -0.0413  0.3357  0.2215
30764SOL     OW 2605   3.127   4.653   5.237 -0.3770  0.3634 -0.6484
30764SOL    HW1 2606   3.132   4.605   5.320 -1.0782  0.2245 -0.6825
30764SOL    HW2 2607   3.217   4.652   5.203 -0.4375 -1.3072 -0.8566
30765SOL     OW 2608  12.001   9.433   2.334  0.1981 -0.3194  0.6193
30765SOL    HW1 2609  12.079   9.400   2.290  0.2706 -0.0190  0.5245
30765SOL    HW2 2610  12.006   9.528   2.325 -0.9222 -0.3518 -0.6687
30766SOL     OW 2611   3.759   3.760   3.634 -0.0108 -0.1140 -0.1054
30766SOL    HW1 2612   3.802   3.726   3.556  0.9936  3.6257 -1.3719
30766SOL    HW2 2613   3.829   3.762   3.700 -0.0064 -0.1920 -0.1067
30767SOL     OW 2614   8.335   9.482   3.006  0.1075  0.0556  0.4610
30767SOL    HW1 2615   8.264   9.547   3.012  0.3297  0.2843  0.6060
30767SOL    HW2 2616   8.342   9.464   2.912 -1.5196 -1.4920  0.5736
30768SOL     OW 2617   7.455   0.864  12.054 -0.0053 -0.6017  0.1632
30768SOL    HW1 2618   7.515   0.801  12.014  1.8488  0.8741  0.4911
30768SOL    HW2 2619   7.473   0.857  12.148 -1.6166 -1.3401  0.4568
30769SOL     OW 2620   3.277   1.374   0.180  0.4691 -0.1185 -0.2724
30769SOL    HW1 2621   3.195   1.385   0.228  1.0546  1.0374  0.5217
30769SOL    HW2 2622   3.251   1.342   0.094 -0.8982  1.2079 -0.3932
30770SOL     OW 2623   1.814   0.462   6.109  0.1068  0.0044  0.3416
30770SOL    HW1 2624   1.845   0.395   6.170  1.0365  0.9552  0.9314
30770SOL    HW2 2625   1.879   0.463   6.039 -0.8166 -0.8929 -0.5679
30771SOL     OW 2626  11.808   4.465   6.109  0.5356 -0.4223 -0.5046
30771SOL    HW1 2627  11.743   4.396   6.093 -0.3293 -0.3366  2.0872
30771SOL    HW2 2628  11.761   4.547   6.092  1.0201 -0.4108 -1.8634
30772SOL     OW 2629  10.244  10.699  10.620 -0.3234  0.0792 -0.0861
30772SOL    HW1 2630  10.292  10.652  10.688 -1.4391 -1.9199 -0.5980
30772SOL    HW2 2631  10.155  10.705  10.654 -0.4486  0.8883 -0.5281
30773SOL     OW 2632   0.497   5.594   2.627  0.0154  0.0891 -0.6754
30773SOL    HW1 2633   0.474   5.507   2.659  2.9387 -0.2489  0.8986
30773SOL    HW2 2634   0.461   5.654   2.693 -0.0871 -0.1006 -0.5579
30774SOL     OW 2635   3.700   9.273   2.515  0.0412 -0.0933 -0.1835
30774SOL    HW1 2636   3.761   9.313   2.453 -0.9548  1.3496 -0.2866
30774SOL    HW2 2637   3.756   9.237   2.584  1.2062 -2.1685 -2.0870
30775SOL     OW 2638   0.189   0.558   0.036 -0.3825  0.2377  0.2631
30775SOL    HW1 2639   0.273   0.562  -0.010 -0.4890 -0.3109  0.0145
30775SOL    HW2 2640   0.187   0.638   0.090  0.8071 -0.3158  1.1682
30776SOL     OW 2641   5.361   2.077  11.022  0.2136  0.4131 -0.3352
30776SOL    HW1 2642   5.300   2.003  11.019  1.1871 -0.4861  0.9416
30776SOL    HW2 2643   5.443   2.040  11.056  0.7456  2.0667  0.3101
30777SOL     OW 2644  12.269   4.545   9.861  1.0623  0.0714  0.2224
30777SOL    HW1 2645  12.254   4.637   9.885  0.2175  0.0336 -0.1271
30777SOL    HW2 2646  12.186   4.502   9.880  1.4713 -0.6422  0.4405
30778SOL     OW 2647   7.971  11.258   5.988 -0.7328 -0.3995 -0.2711
30778SOL    HW1 2648   8.035  11.235   6.056 -0.5158  0.6012 -0.1329
30778SOL    HW2 2649   7.982  11.352   5.974 -2.2109 -0.1940 -0.2083
30779SOL     OW 2650   9.986  10.884  11.741 -0.1803  0.2912 -0.8886
30779SOL    HW1 2651  10.078  10.863  11.752 -0.0677  0.7772 -0.8770
30779SOL    HW2 2652   9.951  10.812  11.688 -0.0309 -0.4308 -0.0276
30780SOL     OW 2653   6.668   5.679   3.704  0.0081 -0.3587 -0.6062
30780SOL    HW1 2654   6.640   5.721   3.785 -0.5986  0.0891 -1.0422
30780SOL    HW2 2655   6.711   5.748   3.654 -0.2052 -0.4702 -0.9464
30781SOL     OW 2656  10.715   3.865  10.186  0.1486  0.1091  0.2739
30781SOL    HW1 2657  10.809   3.854  10.198  0.2651 -1.2443 -1.4652
30781SOL    HW2 2658  10.676   3.821  10.262  0.8998 -2.8243 -0.9094
30782SOL     OW 2659   5.121   0.698   1.512  0.1576  0.4433 -0.3333
30782SOL    HW1 2660   5.108   0.754   1.589 -0.8575 -1.3673  0.8880
30782SOL    HW2 2661   5.033   0.671   1.486  0.5650  0.0723 -1.4128
30783SOL     OW 2662  10.800   5.061   4.912 -0.9013  0.0666  0.0035
30783SOL    HW1 2663  10.841   4.981   4.945  0.8294  1.4888  1.5654
30783SOL    HW2 2664  10.740   5.087   4.982 -0.7468  0.6027 -0.0575
30784SOL     OW 2665   5.308   7.840  10.750 -0.9093  0.1357  0.3517
30784SOL    HW1 2666   5.364   7.779  10.797  0.0700  1.0580  0.4254
30784SOL    HW2 2667   5.219   7.815  10.774 -0.4701 -0.2181  1.6622
30785SOL     OW 2668   5.709   6.622   3.427  0.2752  0.2463 -0.2640
30785SOL    HW1 2669   5.644   6.551   3.420 -0.6366  1.1406 -1.2429
30785SOL    HW2 2670   5.671   6.694   3.376  1.5731  1.1536  0.0116
30786SOL     OW 2671   0.869   5.857   0.653 -0.1494  0.0628 -0.3258
30786SOL    HW1 2672   0.877   5.766   0.683 -1.2044  0.7467  2.3001
30786SOL    HW2 2673   0.946   5.901   0.691 -2.0455  1.1656  2.5468
30787SOL     OW 2674   5.302   4.909   1.718 -0.0217  0.3059 -0.1601
30787SOL    HW1 2675   5.212   4.883   1.741 -0.1244  0.1380 -0.7226
30787SOL    HW2 2676   5.294   5.001   1.693 -0.3496 -0.1251 -1.7732
30788SOL     OW 2677   0.349   3.605   5.443 -0.1329 -0.4377  0.1028
30788SOL    HW1 2678   0.339   3.621   5.537 -1.0833  0.1226 -0.0797
30788SOL    HW2 2679   0.409   3.673   5.414 -0.6514  0.0422  0.1328
30789SOL     OW 2680   4.768   4.780   2.831 -0.3294  0.1849 -0.1459
30789SOL    HW1 2681   4.754   4.724   2.754  0.8383  0.3179 -0.4771
30789SOL    HW2 2682   4.852   4.822   2.814  0.4817 -0.5958  1.7165
30790SOL     OW 2683   6.159  11.299  10.644 -0.7142 -0.3010 -0.0340
30790SOL    HW1 2684   6.073  11.340  10.658 -1.0120 -1.2285  0.9560
30790SOL    HW2 2685   6.214  11.337  10.713 -0.0537  0.9738 -1.2155
30791SOL     OW 2686  11.889   2.376   1.598 -0.4528 -0.3386  0.1395
30791SOL    HW1 2687  11.961   2.329   1.642 -0.9683 -0.1138  1.2690
30791SOL    HW2 2688  11.861   2.442   1.662 -0.1897  1.0834 -1.1647
30792SOL     OW 2689  12.541   2.098   6.361 -0.0962  0.2164 -0.1741
30792SOL    HW1 2690  12.528   2.193   6.361  0.2579  0.2708  0.5279
30792SOL    HW2 2691  12.635   2.087   6.371 -0.0044 -0.2132 -1.3171
30793SOL     OW 2692   5.958   5.419   4.186  0.2700  0.0482 -0.0684
30793SOL    HW1 2693   6.016   5.495   4.189  0.4278 -0.0797  0.2447
30793SOL    HW2 2694   5.890   5.442   4.123  0.1249  0.5801  0.2881
30794SOL     OW 2695   2.822   0.286   1.654 -0.0321  0.1814 -0.2910
30794SOL    HW1 2696   2.752   0.223   1.669 -0.9675  1.6884  2.6345
30794SOL    HW2 2697   2.903   0.238   1.674 -0.4733 -0.7544 -0.7079
30795SOL     OW 2698   6.941  10.001   5.221  0.2533  0.6969 -0.1239
30795SOL    HW1 2699   6.887   9.967   5.293 -0.7996  1.2092 -0.6430
30795SOL    HW2 2700   7.022   9.951   5.226  0.5875  1.3483  1.9899
30796SOL     OW 2701  10.036   6.224   4.571  0.5633 -0.2857  0.0224
30796SOL    HW1 2702  10.061   6.249   4.482  0.6270  0.7070  0.3041
30796SOL    HW2 2703  10.025   6.307   4.617 -1.3318 -0.7091  0.4462
30797SOL     OW 2704  10.343   1.152   5.999 -0.3212  0.0054  0.1067
30797SOL    HW1 2705  10.288   1.227   6.022 -0.0323  0.3685 -0.3802
30797SOL    HW2 2706  10.392   1.180   5.922 -0.1787 -0.6710 -0.0588
30798SOL     OW 2707  11.985   4.372   3.578 -0.7896 -0.5022  0.2924
30798SOL    HW1 2708  11.982   4.360   3.672 -1.6164 -0.6202  0.2531
30798SOL    HW2 2709  12.019   4.460   3.566 -2.0618  0.0694  0.7372
30799SOL     OW 2710   4.157   2.356  10.386  0.2870 -0.2977  0.5162
30799SOL    HW1 2711   4.198   2.426  10.437  0.9207 -0.4976  0.2914
30799SOL    HW2 2712   4.230   2.299  10.362  0.0192 -0.1425 -0.7184
30800SOL     OW 2713   3.556   2.228   3.084  0.2542 -1.0120 -0.3062
30800SOL    HW1 2714   3.627   2.278   3.126 -0.2070 -0.4746 -0.1521
30800SOL    HW2 2715   3.481   2.241   3.141 -0.3306 -0.4147 -1.1869
30801SOL     OW 2716   2.352   2.759   7.915  0.1388 -0.3315 -0.2650
30801SOL    HW1 2717   2.413   2.751   7.842  1.3634 -1.4441  0.8250
30801SOL    HW2 2718   2.393   2.823   7.973  0.2416 -1.0104  0.4275
30802SOL     OW 2719   8.532  12.502   3.421 -0.0497  0.3300  0.1690
30802SOL    HW1 2720   8.500  12.510   3.511  1.0047  1.0479  0.5047
30802SOL    HW2 2721   8.483  12.429   3.384  1.9151 -2.3341  2.4135
30803SOL     OW 2722   7.578   8.368   2.535  0.1288  0.0179 -0.1354
30803SOL    HW1 2723   7.603   8.283   2.572 -1.3133 -0.4280 -0.1170
30803SOL    HW2 2724   7.642   8.430   2.571  1.0610 -1.0150  0.0291
30804SOL     OW 2725   8.960   8.630   7.953  0.2858 -0.3520 -0.4411
30804SOL    HW1 2726   9.022   8.624   7.880 -1.0717  0.4394 -1.7416
30804SOL    HW2 2727   8.877   8.598   7.916 -0.6522  0.9102  0.4717
30805SOL     OW 2728   1.650   2.656   2.250  0.3605 -0.2545  0.3918
30805SOL    HW1 2729   1.661   2.652   2.345  2.2765  0.6128  0.2473
30805SOL    HW2 2730   1.666   2.747   2.228 -1.4310 -0.1604 -0.6491
30806SOL     OW 2731   5.766   5.562   4.461 -0.2379  0.6330 -0.5294
30806SOL    HW1 2732   5.830   5.502   4.423  0.0531  1.2265 -0.9837
30806SOL    HW2 2733   5.693   5.562   4.399  0.0370  1.2378 -0.8617
30807SOL     OW 2734   6.563   2.440   6.756 -0.0605  0.2076 -0.7733
30807SOL    HW1 2735   6.514   2.358   6.759  2.5070 -1.4600 -1.1670
30807SOL    HW2 2736   6.608   2.445   6.840  0.8589  0.5129 -1.2705
30808SOL     OW 2737  12.167   4.133   6.018 -0.2327 -0.5100 -0.5562
30808SOL    HW1 2738  12.178   4.080   6.097  1.0311 -0.3491 -0.5909
30808SOL    HW2 2739  12.073   4.139   6.006 -0.5131  0.4294  1.6059
30809SOL     OW 2740   5.993   9.605  10.853 -0.3490 -0.1615 -0.0303
30809SOL    HW1 2741   5.903   9.595  10.819 -0.0238  0.1199 -1.0082
30809SOL    HW2 2742   5.987   9.676  10.917 -0.9629 -0.6470  0.4693
30810SOL     OW 2743   6.776   5.378   7.596  0.2258  0.3976  0.0670
30810SOL    HW1 2744   6.757   5.472   7.602  0.7975  0.5629 -0.5005
30810SOL    HW2 2745   6.691   5.335   7.600  0.0901  0.7580  3.1425
30811SOL     OW 2746   1.651   6.000   8.691 -0.3569 -0.1996 -0.1336
30811SOL    HW1 2747   1.691   6.028   8.609 -1.6077 -1.5254 -1.2386
30811SOL    HW2 2748   1.717   5.945   8.733  0.5603  1.0570  0.1242
30812SOL     OW 2749   0.291   7.495  10.756 -0.6210  0.0456 -0.4057
30812SOL    HW1 2750   0.228   7.497  10.685 -1.9132  1.8194  0.7099
30812SOL    HW2 2751   0.300   7.587  10.784 -0.4963 -0.6058  1.9701
30813SOL     OW 2752   0.435  12.845   8.552 -0.3515 -0.0303 -0.0291
30813SOL    HW1 2753   0.408  12.780   8.616  0.1684 -2.1851 -1.8788
30813SOL    HW2 2754   0.401  12.813   8.468  0.0132  2.0308 -1.0448
30814SOL     OW 2755   3.327   2.011   0.341 -0.6167 -0.0184 -0.0005
30814SOL    HW1 2756   3.282   1.986   0.422 -2.5132  1.7576 -0.4485
30814SOL    HW2 2757   3.322   2.106   0.338 -0.3605 -0.0223 -2.1058
30815SOL     OW 2758   6.631   2.640   0.916  0.0756 -0.3041 -0.3141
30815SOL    HW1 2759   6.630   2.701   0.841 -0.0570 -0.3936 -0.3848
30815SOL    HW2 2760   6.540   2.613   0.926  0.2418 -1.0285 -0.7220
30816SOL     OW 2761   9.408   5.972   9.165  0.2146 -0.1788  0.2795
30816SOL    HW1 2762   9.470   6.015   9.224  0.7263  0.5928 -0.8021
30816SOL    HW2 2763   9.327   6.022   9.175  0.0287 -0.6000  0.9769
30817SOL     OW 2764   5.516   4.527   5.509 -0.0744  0.4010 -0.1049
30817SOL    HW1 2765   5.437   4.511   5.458  0.2567 -1.6728 -0.0491
30817SOL    HW2 2766   5.561   4.597   5.462 -1.4331  0.9115 -0.7065
30818SOL     OW 2767   4.480   0.598   0.122 -0.3919  0.6534  0.2342
30818SOL    HW1 2768   4.458   0.578   0.031 -1.0088  1.2137  0.2556
30818SOL    HW2 2769   4.559   0.651   0.117 -0.7428  1.1586 -0.0107
30819SOL     OW 2770  12.477   1.724   8.692 -0.8342  0.2411 -0.0344
30819SOL    HW1 2771  12.513   1.676   8.617 -1.0076  0.7872 -0.4731
30819SOL    HW2 2772  12.540   1.795   8.707 -1.0419  0.4093  0.0415
30820SOL     OW 2773   2.059   4.298   2.327 -0.3568 -0.1161  0.5493
30820SOL    HW1 2774   2.110   4.349   2.391 -0.1454  2.2946 -1.3757
30820SOL    HW2 2775   1.986   4.355   2.304 -0.0240 -0.5347 -1.8428
30821SOL     OW 2776   3.846   6.373   8.761  0.2050  0.0420  0.1658
30821SOL    HW1 2777   3.938   6.350   8.772 -0.0618 -1.1861 -0.0375
30821SOL    HW2 2778   3.847   6.453   8.709  1.2100  1.1164  1.7504
30822SOL     OW 2779  12.270   5.762   2.185 -0.0652 -0.6063  0.3067
30822SOL    HW1 2780  12.198   5.719   2.138 -1.8004 -1.4134  3.4182
30822SOL    HW2 2781  12.258   5.855   2.168 -1.8872 -0.7263  0.7420
30823SOL     OW 2782   7.312  11.555  12.932  0.1866 -0.2131  0.1419
30823SOL    HW1 2783   7.262  11.516  13.003  0.9636 -0.5334  0.5218
30823SOL    HW2 2784   7.278  11.514  12.853  2.0186 -2.8853  0.6307
30824SOL     OW 2785   3.853   6.628   3.180 -0.5435  0.1411  0.1179
30824SOL    HW1 2786   3.793   6.604   3.250  0.3604  1.8885  1.5827
30824SOL    HW2 2787   3.812   6.703   3.137 -0.1698  0.3432  0.1030
30825SOL     OW 2788   2.034   3.906   9.542  0.5764 -0.6908  0.3985
30825SOL    HW1 2789   1.964   3.888   9.606  1.6382 -2.2498  1.1985
30825SOL    HW2 2790   2.022   3.840   9.474  1.4027 -1.1577  0.6859
30826SOL     OW 2791   6.754   1.311   2.793 -0.3936  0.0692  0.3851
30826SOL    HW1 2792   6.813   1.243   2.826 -2.5789 -1.5087  1.2947
30826SOL    HW2 2793   6.764   1.306   2.698  2.8248  1.7193  0.5164
30827SOL     OW 2794   2.832   3.926   9.662 -0.5131 -0.2110 -0.3441
30827SOL    HW1 2795   2.856   3.950   9.573  0.9446  0.3519  0.1644
30827SOL    HW2 2796   2.831   3.830   9.662 -1.8006 -0.2192 -1.2562
30828SOL     OW 2797  10.337   6.320   0.992  0.6298 -0.4975  0.2726
30828SOL    HW1 2798  10.289   6.354   1.068  1.4125  1.2612  0.0125
30828SOL    HW2 2799  10.407   6.383   0.977  1.0386 -1.2942 -1.3794
30829SOL     OW 2800  10.156   7.517   8.347  0.0073  0.4679  0.6278
30829SOL    HW1 2801  10.111   7.581   8.292  0.1733  0.0368 -0.0172
30829SOL    HW2 2802  10.098   7.441   8.348  1.5800 -0.8902 -1.9001
30830SOL     OW 2803   9.997   8.441   6.347  0.0799 -0.0532 -0.0157
30830SOL    HW1 2804  10.062   8.448   6.277 -0.1845 -1.1901 -0.3887
30830SOL    HW2 2805  10.031   8.498   6.417  1.0195  0.0563 -0.5523
30831SOL     OW 2806   8.154   7.262   3.412 -0.2020 -0.0975 -0.3199
30831SOL    HW1 2807   8.192   7.183   3.449 -0.5144 -0.1965 -0.2051
30831SOL    HW2 2808   8.217   7.291   3.346  0.6062  0.3602  0.6193
30832SOL     OW 2809  12.198  11.031  12.710  0.1158  0.7040 -0.0513
30832SOL    HW1 2810  12.235  10.943  12.704 -0.2551  0.4849  0.7262
30832SOL    HW2 2811  12.197  11.063  12.620  1.5247  0.4502 -0.1803
30833SOL     OW 2812   0.031   9.235  11.332  0.2379  0.0043  0.3686
30833SOL    HW1 2813  -0.009   9.170  11.274  1.8996 -0.4749 -0.3049
30833SOL    HW2 2814   0.036   9.192  11.417 -1.0374  0.2401  0.5863
30834SOL     OW 2815   5.065  12.854   8.697 -0.1237 -0.5722  0.0047
30834SOL    HW1 2816   5.143  12.804   8.672 -1.2197 -1.9689 -0.7698
30834SOL    HW2 2817   4.995  12.818   8.643 -1.7037 -0.6870  2.0004
30835SOL     OW 2818   6.361   4.839   2.966 -0.0203  0.5642 -0.6221
30835SOL    HW1 2819   6.310   4.908   3.008 -0.6490 -0.7154  0.8179
30835SOL    HW2 2820   6.297   4.769   2.948  1.0429 -0.7505  0.4907
30836SOL     OW 2821   3.917   0.789   7.387 -0.3635  0.1178 -0.3463
30836SOL    HW1 2822   4.008   0.791   7.417 -0.4754  1.2713 -0.0366
30836SOL    HW2 2823   3.923   0.752   7.298  0.2689 -0.7989  0.0564
30837SOL     OW 2824   4.655   5.746   9.523  0.3785 -0.1031 -0.0264
30837SOL    HW1 2825   4.672   5.653   9.530  0.1628 -0.2618 -1.2375
30837SOL    HW2 2826   4.739   5.785   9.499  0.8521  0.2680  2.0360
30838SOL     OW 2827   0.884  11.334   9.904 -0.8447 -0.1416 -0.1320
30838SOL    HW1 2828   0.811  11.292   9.950 -0.0635 -0.3293  0.9495
30838SOL    HW2 2829   0.889  11.288   9.820 -0.1432 -2.0989  0.9429
30839SOL     OW 2830   2.840   9.496   6.195  0.6482 -0.8125 -0.2542
30839SOL    HW1 2831   2.914   9.441   6.223  0.9127 -0.6587 -0.6443
30839SOL    HW2 2832   2.877   9.585   6.192  0.5718 -0.8038 -0.9106
30840SOL     OW 2833   6.251   5.310   1.925 -0.5613 -0.0217  0.9945
30840SOL    HW1 2834   6.258   5.307   2.020 -0.2129  2.2496  1.0809
30840SOL    HW2 2835   6.218   5.397   1.906 -0.3911 -0.3483 -0.9945
30841SOL     OW 2836  10.372   3.951  10.420 -0.6936 -0.3626 -0.3003
30841SOL    HW1 2837  10.434   3.918  10.356  0.1003 -0.0122  0.2723
30841SOL    HW2 2838  10.286   3.927  10.385 -0.2265 -1.1455 -0.9316
30842SOL     OW 2839  12.902   5.855   0.236 -0.7581 -0.7565 -0.3339
30842SOL    HW1 2840  12.947   5.916   0.295 -2.0097  0.2834 -0.4137
30842SOL    HW2 2841  12.942   5.868   0.151  0.4794 -1.6557  0.0820
30843SOL     OW 2842  10.443   8.476   3.158  0.1298  0.3113  0.5023
30843SOL    HW1 2843  10.426   8.383   3.142  2.6891 -0.2327  0.5777
30843SOL    HW2 2844  10.361   8.520   3.134 -1.2905 -1.9841  0.8969
30844SOL     OW 2845  12.629   5.100   0.472  0.1556 -0.1976 -0.0870
30844SOL    HW1 2846  12.542   5.120   0.437  0.8783  1.2701 -1.1520
30844SOL    HW2 2847  12.690   5.123   0.402  1.4387 -0.7636  0.7918
30845SOL     OW 2848   1.119   8.267   1.853 -0.0962  0.2314  0.1778
30845SOL    HW1 2849   1.083   8.181   1.876  0.2041  0.3070  0.9614
30845SOL    HW2 2850   1.056   8.303   1.790 -0.1262 -0.6378 -0.3137
30846SOL     OW 2851   2.290  12.845   6.044  0.4209  0.1545  0.4056
30846SOL    HW1 2852   2.331  12.822   6.128  0.5959 -1.5332 -0.1113
30846SOL    HW2 2853   2.197  12.824   6.056  0.2691  0.8679  0.5003
30847SOL     OW 2854   9.272   2.443   7.294  0.2597  0.5218  0.6470
30847SOL    HW1 2855   9.258   2.423   7.386 -4.4499  2.0628  0.5456
30847SOL    HW2 2856   9.236   2.367   7.247  0.8378  0.5892  0.0814
30848SOL     OW 2857   3.300   8.195  11.179 -0.2640 -0.2446  0.5735
30848SOL    HW1 2858   3.380   8.190  11.231 -0.3875  1.4833  0.9984
30848SOL    HW2 2859   3.284   8.289  11.170 -2.0307 -0.5601  0.1616
30849SOL     OW 2860   2.510   5.423   3.582  0.1511 -0.1800  0.2472
30849SOL    HW1 2861   2.425   5.465   3.566 -0.2717 -1.0632  0.1133
30849SOL    HW2 2862   2.495   5.331   3.562  0.6448 -0.6732  1.9586
30850SOL     OW 2863  12.494   6.441   4.675  0.6583 -0.7298  0.4372
30850SOL    HW1 2864  12.500   6.522   4.726  1.4141 -0.7935  0.4517
30850SOL    HW2 2865  12.468   6.470   4.587  0.4888 -0.5162  0.5545
30851SOL     OW 2866  12.815   2.066  10.057 -0.3116 -0.4538 -0.1523
30851SOL    HW1 2867  12.724   2.039  10.050 -0.5097  0.1319  0.0823
30851SOL    HW2 2868  12.823   2.099  10.147 -0.2429  0.8229 -0.6086
30852SOL     OW 2869   6.578  11.460  10.872 -0.0965 -0.0533  0.1081
30852SOL    HW1 2870   6.505  11.406  10.901 -0.5636 -0.9168 -2.4488
30852SOL    HW2 2871   6.540  11.547  10.860 -0.0004  0.2049  1.4380
30853SOL     OW 2872   4.783   7.163   5.068 -0.2349 -0.6574 -0.4452
30853SOL    HW1 2873   4.753   7.252   5.050 -0.2063 -0.7922 -1.1836
30853SOL    HW2 2874   4.873   7.161   5.034  0.2373 -0.5838  0.7458
30854SOL     OW 2875   9.630   8.189   5.276 -0.2932 -0.2839  0.0095
30854SOL    HW1 2876   9.584   8.272   5.263  1.2989  0.9877  2.0118
30854SOL    HW2 2877   9.723   8.213   5.278  0.2463 -2.2110  0.0412
30855SOL     OW 2878  11.706  11.562   9.124 -0.0929  0.0938  0.4300
30855SOL    HW1 2879  11.686  11.559   9.218  0.1894 -0.3656  0.4855
30855SOL    HW2 2880  11.629  11.600   9.083 -1.6819 -2.7538  0.4756
30856SOL     OW 2881  12.276   7.578   7.933  0.1922  0.2216  0.0126
30856SOL    HW1 2882  12.225   7.498   7.915  0.8171 -0.4827  1.2933
30856SOL    HW2 2883  12.330   7.589   7.855 -0.7843  0.1102 -0.7064
30857SOL     OW 2884  10.473   3.282  10.108  0.1399  0.0570 -0.3909
30857SOL    HW1 2885  10.440   3.360  10.064  2.7300  0.5103 -1.7735
30857SOL    HW2 2886  10.482   3.217  10.038  1.5525 -0.1880 -0.0271
30858SOL     OW 2887  10.172   6.124   0.584 -0.2397  0.2743 -0.2816
30858SOL    HW1 2888  10.268   6.123   0.589 -0.2438 -1.6938  0.1586
30858SOL    HW2 2889  10.144   6.162   0.667  0.1402  1.4581 -0.6737
30859SOL     OW 2890   3.818   0.040   0.733  0.2775  0.0604 -0.0675
30859SOL    HW1 2891   3.753   0.110   0.721  2.8212  2.2380 -2.8067
30859SOL    HW2 2892   3.852   0.025   0.645  1.0602 -3.5419  0.7117
30860SOL     OW 2893   0.651   6.102   1.689  0.0152  0.5303 -0.3775
30860SOL    HW1 2894   0.675   6.170   1.752  0.2842  0.9789 -0.9533
30860SOL    HW2 2895   0.576   6.138   1.642  0.8314  0.9086 -1.4296
30861SOL     OW 2896   3.763   1.556  12.050 -0.0547 -0.7587 -0.3318
30861SOL    HW1 2897   3.806   1.483  12.096 -0.3638 -0.1727  0.9238
30861SOL    HW2 2898   3.833   1.620  12.037 -0.3200 -0.1839  0.9178
30862SOL     OW 2899   3.339   8.566   8.954  0.2434  0.3406 -0.3053
30862SOL    HW1 2900   3.286   8.534   8.881 -0.6640  0.6514  0.2006
30862SOL    HW2 2901   3.383   8.488   8.988 -0.6400 -0.0925 -0.1361
30863SOL     OW 2902  10.762   7.403   0.529  0.1569  0.2334 -0.2206
30863SOL    HW1 2903  10.805   7.487   0.514  0.4198 -0.1312 -1.6546
30863SOL    HW2 2904  10.833   7.340   0.536 -0.0800 -0.0871 -0.6648
30864SOL     OW 2905   7.086   8.799  10.043 -0.2973 -0.4466 -0.2670
30864SOL    HW1 2906   7.156   8.862  10.027 -1.3861  1.3232  1.4119
30864SOL    HW2 2907   7.022   8.816   9.974 -1.7354  2.1816  1.5371
30865SOL     OW 2908  11.906   5.977   1.123 -0.3340 -0.2133  0.0703
30865SOL    HW1 2909  11.985   5.930   1.148 -1.3011 -1.5658  0.7328
30865SOL    HW2 2910  11.912   5.987   1.028  0.7177 -0.0935  0.1381
30866SOL     OW 2911  10.101   5.158   7.833  0.4617  0.5140 -0.0108
30866SOL    HW1 2912  10.064   5.241   7.862  0.3444  0.0806  1.1223
30866SOL    HW2 2913  10.095   5.101   7.910 -1.7832 -1.3494 -1.4565
30867SOL     OW 2914   4.054   3.022  11.974  0.1436 -0.2577 -0.1175
30867SOL    HW1 2915   4.009   3.002  12.056 -0.2147  1.0323  0.0209
30867SOL    HW2 2916   4.000   2.981  11.906  2.0996 -4.1254  0.3985
30868SOL     OW 2917   9.058  11.168   8.887 -0.5751 -0.5056  0.0953
30868SOL    HW1 2918   9.145  11.182   8.923 -0.5056  0.3350 -0.3808
30868SOL    HW2 2919   9.011  11.121   8.956 -0.0035 -0.2162  0.6922
30869SOL     OW 2920  10.257  10.794  12.243 -0.7441  0.3903 -0.5772
30869SOL    HW1 2921  10.187  10.854  12.268 -0.3919  0.0899  1.2436
30869SOL    HW2 2922  10.217  10.736  12.178 -3.3821 -2.0959  2.9148
30870SOL     OW 2923   8.884   6.718   2.977 -0.1484  1.0989  0.4217
30870SOL    HW1 2924   8.857   6.757   3.060  0.8527  0.5047  1.0481
30870SOL    HW2 2925   8.955   6.775   2.946  0.5513  0.4434  0.7798
30871SOL     OW 2926  12.403  12.912   9.853 -0.0152 -0.1942 -0.5821
30871SOL    HW1 2927  12.434  12.840   9.799  0.6765  1.0731 -1.9503
30871SOL    HW2 2928  12.478  12.935   9.908  0.1074  0.1554 -0.8938
30872SOL     OW 2929  12.142  10.650   0.160 -0.2430  0.2013  0.2261
30872SOL    HW1 2930  12.142  10.704   0.081  1.7434  1.5746  1.0864
30872SOL    HW2 2931  12.146  10.560   0.127 -0.9134  0.6804 -1.2308
30873SOL     OW 2932   7.282  11.900  12.629  0.9176 -0.0113 -1.1597
30873SOL    HW1 2933   7.218  11.867  12.692  1.4984  0.8785 -0.0663
30873SOL    HW2 2934   7.229  11.945  12.563  0.3988  0.8465 -0.1881
30874SOL     OW 2935   6.032   2.635  11.016  0.2025 -0.1378 -0.2529
30874SOL    HW1 2936   6.011   2.728  11.022  2.5226  0.3699  1.6922
30874SOL    HW2 2937   6.086   2.627  10.937 -0.9839 -0.1064 -1.0947
30875SOL     OW 2938   7.788   4.551   7.760 -0.3755  0.1323  0.8270
30875SOL    HW1 2939   7.879   4.572   7.780 -0.1844 -1.1348  1.3617
30875SOL    HW2 2940   7.780   4.565   7.665  0.4729 -0.1214  0.7147
30876SOL     OW 2941   9.329   3.641   2.088 -0.6904  0.8314  0.1570
30876SOL    HW1 2942   9.410   3.627   2.040 -1.3565 -0.3817 -0.6470
30876SOL    HW2 2943   9.357   3.656   2.179  0.3716 -1.7845  0.3497
30877SOL     OW 2944   6.237  10.987  12.762 -0.5747 -0.1798 -0.1893
30877SOL    HW1 2945   6.180  11.038  12.705  0.2193  0.6445 -0.2746
30877SOL    HW2 2946   6.264  10.912  12.708  0.2922  0.6767 -0.9823
30878SOL     OW 2947   3.950   7.734   6.841  0.1256  0.2642  0.3869
30878SOL    HW1 2948   3.923   7.807   6.895  2.8520  1.7252 -0.0256
30878SOL    HW2 2949   4.001   7.678   6.900 -0.4140 -0.3409  0.2846
30879SOL     OW 2950   4.166   7.881  10.203  0.1299  0.2448  0.2925
30879SOL    HW1 2951   4.084   7.904  10.247  0.6622  2.1846  0.3374
30879SOL    HW2 2952   4.227   7.951  10.227  1.5011 -0.5973 -0.5948
30880SOL     OW 2953   3.509   1.775   7.156  0.0053 -1.0958 -0.7061
30880SOL    HW1 2954   3.484   1.707   7.218 -0.7830  0.3885  0.6731
30880SOL    HW2 2955   3.604   1.769   7.150  0.4205  0.3464  2.6816
30881SOL     OW 2956   6.860   8.301   4.262 -0.3745  0.0140 -1.1587
30881SOL    HW1 2957   6.869   8.382   4.211 -0.9020  0.3786 -0.6926
30881SOL    HW2 2958   6.771   8.271   4.243 -2.1696  2.2381  2.4009
30882SOL     OW 2959   1.853   6.530   3.479 -0.0719  0.1093 -0.3572
30882SOL    HW1 2960   1.865   6.620   3.449  0.3312 -0.0725 -0.7696
30882SOL    HW2 2961   1.767   6.529   3.521 -1.1846  0.1709 -2.4435
30883SOL     OW 2962   7.886   5.761   8.055 -0.0689  0.3649 -0.0802
30883SOL    HW1 2963   7.886   5.674   8.094 -0.0034  1.2056  1.8982
30883SOL    HW2 2964   7.972   5.769   8.014  0.3873 -0.0603  0.7786
30884SOL     OW 2965   1.628   0.050   0.630  0.2229 -0.3755 -0.6138
30884SOL    HW1 2966   1.653   0.072   0.540  0.1209  0.4852 -0.4398
30884SOL    HW2 2967   1.677   0.112   0.684 -0.1378 -0.5259 -0.1115
30885SOL     OW 2968   0.926   8.364   8.189  0.1265  0.4894 -0.2978
30885SOL    HW1 2969   0.858   8.346   8.254 -0.9870  1.2180 -1.2287
30885SOL    HW2 2970   1.003   8.315   8.221 -0.0858  1.5230  2.0242
30886SOL     OW 2971   8.003  12.887  11.880 -0.0117 -0.2108 -0.0483
30886SOL    HW1 2972   7.991  12.957  11.944 -0.8509 -0.4048  0.0199
30886SOL    HW2 2973   7.917  12.844  11.875  0.7822 -2.0461  0.8718
30887SOL     OW 2974   0.665   3.929   8.386  0.9162 -0.5652  0.6588
30887SOL    HW1 2975   0.668   3.834   8.374  1.2552 -0.7147  1.8370
30887SOL    HW2 2976   0.597   3.943   8.451 -0.5379  0.1830 -0.9558
30888SOL     OW 2977   1.318   9.258  12.034 -0.4632 -0.5090  0.6399
30888SOL    HW1 2978   1.227   9.229  12.040 -0.1069 -1.5737  1.1252
30888SOL    HW2 2979   1.343   9.241  11.943 -0.5409 -0.8591  0.6834
30889SOL     OW 2980   8.296   8.986   4.265 -0.1935 -0.0002 -0.0824
30889SOL    HW1 2981   8.317   8.897   4.292 -0.0234  0.0717  0.0233
30889SOL    HW2 2982   8.274   8.978   4.172  1.0525  0.0297 -0.3962
30890SOL     OW 2983   0.739  11.381  11.618 -0.5210  0.0823  0.1819
30890SOL    HW1 2984   0.729  11.381  11.523 -0.0372 -0.8267  0.1182
30890SOL    HW2 2985   0.814  11.438  11.635 -0.0026 -0.5137 -0.0668
30891SOL     OW 2986   5.725   6.402   2.512  0.1880 -0.1123  0.2711
30891SOL    HW1 2987   5.779   6.478   2.487  0.5674 -0.0531  1.2200
30891SOL    HW2 2988   5.646   6.441   2.550  0.3614 -0.1843  0.7122
30892SOL     OW 2989   2.793   9.848   0.896 -0.3816 -0.4645 -0.1340
30892SOL    HW1 2990   2.744   9.771   0.924  0.6170 -1.2353 -0.4672
30892SOL    HW2 2991   2.829   9.884   0.978 -0.2372 -0.7744 -0.0623
30893SOL     OW 2992   7.355  12.161  10.873 -0.0026  0.4244 -0.3159
30893SOL    HW1 2993   7.342  12.156  10.967 -2.4669 -1.0339 -0.6498
30893SOL    HW2 2994   7.277  12.205  10.840  0.4909  0.2942 -1.7378
30894SOL     OW 2995   4.175   6.930   1.164  0.4589 -0.0628 -0.2064
30894SOL    HW1 2996   4.265   6.961   1.156  0.4136  0.1051 -0.0687
30894SOL    HW2 2997   4.182   6.847   1.211  0.4494  0.5042  0.8368
30895SOL     OW 2998   3.862   9.869   2.535 -0.1970 -0.0734 -0.3521
30895SOL    HW1 2999   3.902   9.953   2.514  1.0354 -0.4667  0.3678
30895SOL    HW2 3000   3.872   9.817   2.455  1.2118 -0.3377 -0.0259
30896SOL     OW 3001   1.424  12.151   3.659  0.3310  0.2437 -0.2608
30896SOL    HW1 3002   1.339  12.108   3.650  1.1210 -1.3228 -0.6662
30896SOL    HW2 3003   1.442  12.187   3.572  0.2276  0.2877 -0.2641
30897SOL     OW 3004   0.630   7.658   0.512 -0.4875  0.8964  0.2770
30897SOL    HW1 3005   0.666   7.747   0.503  1.5884  0.1052  0.3759
30897SOL    HW2 3006   0.598   7.637   0.424 -0.7694  1.6498  0.1924
30898SOL     OW 3007   2.586   6.239   6.964 -0.2862  0.1098 -0.6057
30898SOL    HW1 3008   2.621   6.153   6.941 -1.0792 -0.1258 -0.9659
30898SOL    HW2 3009   2.660   6.287   7.001  0.4584 -0.3025 -1.5533
30899SOL     OW 3010   1.542  11.663   8.898 -0.4417  0.4388 -0.0669
30899SOL    HW1 3011   1.593  11.741   8.921 -1.1865  0.5790  1.1731
30899SOL    HW2 3012   1.593  11.622   8.828  0.3153  1.6663 -0.2797
30900SOL     OW 3013   5.829  11.626   7.111 -0.2689 -0.3439  0.0869
30900SOL    HW1 3014   5.886  11.590   7.044  1.8374 -0.2220  1.7338
30900SOL    HW2 3015   5.788  11.702   7.069 -1.0501 -1.7554 -1.8512
30901SOL     OW 3016   1.319   7.112   0.220 -0.4922 -0.0102 -0.1229
30901SOL    HW1 3017   1.365   7.038   0.182 -1.2682 -1.1191  1.0322
30901SOL    HW2 3018   1.227   7.097   0.200 -0.6724  0.5814  0.2162
30902SOL     OW 3019   6.794  10.701   1.611  0.1088 -0.0690 -0.3506
30902SOL    HW1 3020   6.700  10.717   1.599 -0.0579  0.1246  0.9989
30902SOL    HW2 3021   6.812  10.624   1.557 -0.8019 -0.0464 -0.7148
30903SOL     OW 3022   6.226  11.916  12.918 -0.3845 -0.5299  0.3268
30903SOL    HW1 3023   6.302  11.862  12.899 -0.5960 -0.4399 -0.8022
30903SOL    HW2 3024   6.251  12.004  12.891 -0.3201 -0.1797  1.4545
30904SOL     OW 3025   1.653   5.719   4.098 -0.0529  0.0722  0.0327
30904SOL    HW1 3026   1.653   5.768   4.016 -0.3985  0.3515  0.1971
30904SOL    HW2 3027   1.569   5.739   4.138  0.7994  1.3387  1.2926
30905SOL     OW 3028   1.446   1.489   3.373  0.0307  0.2151 -0.0064
30905SOL    HW1 3029   1.373   1.428   3.360  0.4250 -0.8353  2.2161
30905SOL    HW2 3030   1.412   1.554   3.435  0.6502  0.3055  0.2439
30906SOL     OW 3031  11.904  11.508   8.178 -0.0343  0.5320 -0.3329
30906SOL    HW1 3032  11.947  11.570   8.237 -0.2431  0.6089 -0.2624
30906SOL    HW2 3033  11.948  11.425   8.193 -0.8772  0.2760  0.7763
30907SOL     OW 3034   8.673   0.966   5.657  0.5627 -0.2273  0.2062
30907SOL    HW1 3035   8.759   0.991   5.690 -0.1880  2.0873  0.6010
30907SOL    HW2 3036   8.691   0.919   5.576  2.2027  0.0577  0.3787
30908SOL     OW 3037   3.625   6.628   9.536 -0.3671  0.1406  0.5011
30908SOL    HW1 3038   3.601   6.536   9.540 -0.8480  0.3007  1.5604
30908SOL    HW2 3039   3.694   6.638   9.601  0.7002  0.2445 -0.6231
30909SOL     OW 3040   1.762   7.381  11.967  0.3604 -0.0243  0.6530
30909SOL    HW1 3041   1.671   7.380  11.996  0.1878  0.6487  0.1591
30909SOL    HW2 3042   1.781   7.290  11.944  0.4216 -0.5415  2.5822
30910SOL     OW 3043   4.150   5.607   2.150 -0.3176 -0.4815 -0.4192
30910SOL    HW1 3044   4.176   5.574   2.064 -1.6320  0.6251 -1.2881
30910SOL    HW2 3045   4.118   5.530   2.197 -0.8383 -0.8935 -1.4211
30911SOL     OW 3046   0.058   4.642  10.077 -0.2404  0.1162 -0.1879
30911SOL    HW1 3047   0.089   4.557  10.047 -0.3918  0.0472 -0.1515
30911SOL    HW2 3048  -0.001   4.672  10.008 -2.1775 -0.9427  0.9062
30912SOL     OW 3049   8.754   4.863   2.171 -0.2104  0.1179  0.0568
30912SOL    HW1 3050   8.669   4.842   2.132 -0.6158  0.2078  0.8619
30912SOL    HW2 3051   8.764   4.800   2.242 -0.0100  0.6630  0.5234
30913SOL     OW 3052   7.822  11.140  12.657  0.3160  0.3865 -0.3895
30913SOL    HW1 3053   7.732  11.173  12.659 -0.2763 -0.8182 -2.8951
30913SOL    HW2 3054   7.862  11.184  12.582  1.1367 -0.6381 -0.5787
30914SOL     OW 3055   5.707   6.467  10.928  0.3442  0.1358  0.0608
30914SOL    HW1 3056   5.711   6.380  10.970  0.5238  0.8108  1.5133
30914SOL    HW2 3057   5.616   6.476  10.901  0.7867 -1.4537 -2.3155
30915SOL     OW 3058   2.192   7.656   1.388  0.5773  0.0723  0.4450
30915SOL    HW1 3059   2.222   7.690   1.303 -1.1263  1.9494  0.5315
30915SOL    HW2 3060   2.216   7.563   1.386  1.3194  0.2529 -1.7472
30916SOL     OW 3061  10.302   2.887   3.700 -0.0834  0.2897 -0.1914
30916SOL    HW1 3062  10.241   2.814   3.686  0.9962 -0.6565 -0.1568
30916SOL    HW2 3063  10.385   2.844   3.724  0.3198  1.5731  0.8209
30917SOL     OW 3064  10.351   1.841   3.600  0.3967  0.0899  0.0221
30917SOL    HW1 3065  10.369   1.883   3.685 -2.5398  0.7451  0.4278
30917SOL    HW2 3066  10.346   1.913   3.538  0.1778 -0.1409 -0.2324
30918SOL     OW 3067   4.846   3.360  11.915  0.1720 -0.2036  0.2005
30918SOL    HW1 3068   4.905   3.434  11.933  1.2809 -1.3669  1.6323
30918SOL    HW2 3069   4.847   3.308  11.995 -0.2948 -1.9639 -0.8662
30919SOL     OW 3070   3.553   9.481   5.988  0.0680 -0.0668  0.1716
30919SOL    HW1 3071   3.582   9.508   6.075  1.8563 -1.5455  0.0952
30919SOL    HW2 3072   3.491   9.410   6.005  0.8714 -0.7702  0.2780
30920SOL     OW 3073   0.939   2.777  12.837 -0.3017 -0.5409  0.4524
30920SOL    HW1 3074   1.013   2.830  12.864  0.1796 -0.7652 -0.3983
30920SOL    HW2 3075   0.898   2.826  12.766  0.1129 -1.2725 -0.3014
30921SOL     OW 3076   3.134   7.004   1.878 -0.0503  0.2275  0.3801
30921SOL    HW1 3077   3.112   7.045   1.794 -1.1615  1.2614  1.1385
30921SOL    HW2 3078   3.217   7.046   1.903  0.3232 -0.1349 -0.2120
30922SOL     OW 3079   5.629   1.732   3.268  0.2857 -0.0874 -0.2979
30922SOL    HW1 3080   5.638   1.757   3.360  1.8526 -0.5545 -0.2996
30922SOL    HW2 3081   5.573   1.654   3.270 -0.2392  0.2936  0.1866
30923SOL     OW 3082   0.610   8.797   8.828 -0.2473  0.3336 -0.0679
30923SOL    HW1 3083   0.667   8.724   8.802 -2.1987 -1.0314 -0.7728
30923SOL    HW2 3084   0.618   8.860   8.756 -0.4746 -0.3697 -0.7277
30924SOL     OW 3085  12.663   4.666  10.279 -0.5184  0.2321 -0.6033
30924SOL    HW1 3086  12.664   4.602  10.208  0.9932 -0.4019 -0.0212
30924SOL    HW2 3087  12.571   4.692  10.285 -0.8930 -0.6814 -1.9059
30925SOL     OW 3088   6.944   1.739   0.316  0.5692  0.1422  0.1681
30925SOL    HW1 3089   6.866   1.684   0.321 -0.4177  1.4691  0.1057
30925SOL    HW2 3090   6.997   1.713   0.391  0.0930 -0.8100  0.1863
30926SOL     OW 3091   0.993   8.689  11.306 -0.1705  0.2200 -0.5871
30926SOL    HW1 3092   0.931   8.747  11.350 -1.5423 -1.9040  0.4522
30926SOL    HW2 3093   1.079   8.726  11.325 -0.9914  2.0868 -0.3091
30927SOL     OW 3094   0.969   9.270  10.648  0.2789  0.3049  0.2456
30927SOL    HW1 3095   0.966   9.245  10.555  0.4151 -0.6516  0.4807
30927SOL    HW2 3096   1.038   9.214  10.685 -1.3488 -1.0420  1.3905
30928SOL     OW 3097  11.464   1.407  12.908 -0.1954  0.1237  0.0276
30928SOL    HW1 3098  11.492   1.458  12.833  0.7061  1.0204  0.9386
30928SOL    HW2 3099  11.495   1.319  12.891  1.4033  0.6556  0.0525
30929SOL     OW 3100   4.715  10.441  11.927 -0.0538  0.2691 -0.4290
30929SOL    HW1 3101   4.623  10.467  11.915  0.4372  1.7504 -1.1940
30929SOL    HW2 3102   4.734  10.386  11.850  0.1912  1.4337 -1.2210
30930SOL     OW 3103   2.763   3.435   5.077 -0.0141 -0.2041 -0.0606
30930SOL    HW1 3104   2.707   3.416   5.002  0.0048 -0.8065  0.0722
30930SOL    HW2 3105   2.716   3.503   5.126 -0.2750 -0.1821 -0.3407
30931SOL     OW 3106   3.840   7.834   0.392  0.2090 -0.1442  0.1185
30931SOL    HW1 3107   3.893   7.855   0.469  1.3133 -1.5621 -0.2069
30931SOL    HW2 3108   3.750   7.845   0.421  0.5483 -1.5800  1.9315
30932SOL     OW 3109   5.208   6.013   6.923  0.1599  0.0882 -0.0129
30932SOL    HW1 3110   5.286   5.963   6.902 -1.0943 -1.3722 -1.4017
30932SOL    HW2 3111   5.167   6.031   6.838  0.6725  3.8183  0.3361
30933SOL     OW 3112   5.661   2.181   1.418  0.0397  0.3835  0.3393
30933SOL    HW1 3113   5.694   2.152   1.333  0.9198  1.6894  0.2151
30933SOL    HW2 3114   5.603   2.254   1.398  1.6995  1.9373  0.9435
30934SOL     OW 3115  10.227  10.554  11.472  0.4750  0.4436 -0.2834
30934SOL    HW1 3116  10.295  10.524  11.411 -0.2291 -1.0824 -0.3854
30934SOL    HW2 3117  10.227  10.487  11.541 -0.8986  0.4091 -0.2941
30935SOL     OW 3118   8.740   4.407   7.518 -0.1888  0.1851  0.1211
30935SOL    HW1 3119   8.748   4.324   7.565  0.6478  0.2355  0.0841
30935SOL    HW2 3120   8.790   4.393   7.437 -1.1738  0.2736 -0.5133
30936SOL     OW 3121   6.881   8.119   5.077 -0.1857 -0.0775 -0.8563
30936SOL    HW1 3122   6.844   8.206   5.069  0.7754  0.4977  0.5455
30936SOL    HW2 3123   6.956   8.119   5.017  1.1074  0.8476  0.6658
30937SOL     OW 3124  10.730   1.242   1.966 -0.1300 -0.2612  0.0600
30937SOL    HW1 3125  10.676   1.163   1.958 -0.9085  0.1088  1.3464
30937SOL    HW2 3126  10.727   1.282   1.880  1.0329 -2.0855 -0.8903
30938SOL     OW 3127   1.904   0.067  10.635  1.0454 -0.5530 -0.0446
30938SOL    HW1 3128   1.988   0.021  10.624  0.8932 -0.5541 -1.4232
30938SOL    HW2 3129   1.885   0.102  10.548 -0.2570 -0.3187  0.3153
30939SOL     OW 3130   4.815   5.978   4.648  0.4004 -0.4315 -0.5316
30939SOL    HW1 3131   4.769   6.062   4.651 -1.5889 -1.4585  1.8818
30939SOL    HW2 3132   4.901   5.996   4.686 -0.7544  0.2036  1.9747
30940SOL     OW 3133   9.713   2.773   9.143  0.5717  0.3449 -0.6194
30940SOL    HW1 3134   9.753   2.690   9.170  2.3901  0.6683 -2.1028
30940SOL    HW2 3135   9.772   2.841   9.177 -0.4425  1.0030 -0.1349
30941SOL     OW 3136   2.630   9.363  11.085  0.0587 -0.3296 -0.2954
30941SOL    HW1 3137   2.653   9.320  11.003  0.9943  1.4697 -1.0244
30941SOL    HW2 3138   2.535   9.374  11.081 -0.1495 -1.9570 -0.2421
30942SOL     OW 3139   7.299  11.492   8.970 -0.4666  0.5134  0.1181
30942SOL    HW1 3140   7.361  11.462   8.903 -1.8500 -0.6398 -0.7138
30942SOL    HW2 3141   7.224  11.525   8.921 -2.0334 -1.4606  1.0091
30943SOL     OW 3142   3.770   8.439  12.873 -0.1906  0.8363 -0.3733
30943SOL    HW1 3143   3.794   8.407  12.960  0.2112  2.2707  0.0528
30943SOL    HW2 3144   3.838   8.403  12.815  0.0732  0.6529  0.0418
30944SOL     OW 3145   5.090   0.118   4.738  0.6777  0.2471  0.0769
30944SOL    HW1 3146   5.137   0.178   4.680  0.5737  0.8468  0.6038
30944SOL    HW2 3147   5.088   0.163   4.822 -0.7010  0.1713  0.1105
30945SOL     OW 3148  12.938  10.876   3.100  0.4149 -0.2725  0.4548
30945SOL    HW1 3149  12.931  10.789   3.060 -0.3572 -0.7215  1.5165
30945SOL    HW2 3150  12.965  10.858   3.190  0.6960  0.6267  0.5590
30946SOL     OW 3151   6.777   3.751   7.205 -0.3529 -0.2216  0.0154
30946SOL    HW1 3152   6.865   3.766   7.169 -0.5672  0.1047 -0.3880
30946SOL    HW2 3153   6.770   3.814   7.276  0.3664 -1.3989  1.1745
30947SOL     OW 3154   3.192  12.905   2.076 -0.5022 -0.3492 -0.2650
30947SOL    HW1 3155   3.139  12.904   1.996  0.7376  0.9337 -1.1600
30947SOL    HW2 3156   3.277  12.870   2.050  0.2143  0.9328  0.2143
30948SOL     OW 3157   7.210   0.207   5.363  0.0628 -0.2767 -0.1610
30948SOL    HW1 3158   7.264   0.257   5.424  1.2287 -1.3676 -0.2598
30948SOL    HW2 3159   7.195   0.124   5.407  0.8128 -1.0371 -1.2825
30949SOL     OW 3160   8.442   0.681   2.414  0.4804 -0.1316 -0.0578
30949SOL    HW1 3161   8.396   0.635   2.484  3.0482  0.3838  2.1368
30949SOL    HW2 3162   8.498   0.615   2.375  0.1061 -0.0847 -0.6858
30950SOL     OW 3163  11.463   6.222   4.602 -0.4408 -0.4391  0.3041
30950SOL    HW1 3164  11.392   6.286   4.605 -1.2870 -1.3730  1.1601
30950SOL    HW2 3165  11.419   6.139   4.581  0.7720 -0.5801 -2.0385
30951SOL     OW 3166   3.414   0.045   5.699 -0.4120  0.0074  0.3311
30951SOL    HW1 3167   3.509   0.055   5.708 -0.5383  0.9414  0.7150
30951SOL    HW2 3168   3.402   0.008   5.611  0.2897  0.1566  0.1658
30952SOL     OW 3169   8.325   6.202  12.184 -0.1643 -0.0163 -0.2558
30952SOL    HW1 3170   8.358   6.199  12.094 -0.5153 -0.9368 -0.3707
30952SOL    HW2 3171   8.354   6.119  12.223  2.0048  1.3368  1.2444
30953SOL     OW 3172   7.179   3.588   5.272 -0.0570 -0.0499 -0.2568
30953SOL    HW1 3173   7.253   3.647   5.285 -0.5623  0.3779  0.8423
30953SOL    HW2 3174   7.159   3.557   5.360 -0.5270 -0.9772 -0.6809
30954SOL     OW 3175   8.349   9.300   3.269  0.2466 -0.0914 -0.6308
30954SOL    HW1 3176   8.349   9.366   3.199 -2.8015  0.9347  0.1915
30954SOL    HW2 3177   8.312   9.222   3.228 -0.5744  0.1932 -0.4450
30955SOL     OW 3178   5.995   5.213   2.929  0.0804  0.1557  0.0579
30955SOL    HW1 3179   6.014   5.303   2.958  1.1445  0.6069 -1.8921
30955SOL    HW2 3180   6.050   5.158   2.985 -0.1147  0.7565  0.8561
30956SOL     OW 3181  12.432   4.436   8.982 -0.3459 -0.7389  0.4176
30956SOL    HW1 3182  12.496   4.446   8.912 -2.0104  0.4583 -1.0450
30956SOL    HW2 3183  12.475   4.473   9.059  0.4405  0.8391 -0.7142
30957SOL     OW 3184  11.578   7.636  12.360 -0.1034  0.5144 -0.5894
30957SOL    HW1 3185  11.656   7.683  12.330  0.7975 -1.5661 -1.6862
30957SOL    HW2 3186  11.611   7.569  12.419 -1.3798  1.2740  1.0663
30958SOL     OW 3187   2.907   7.359   2.681  0.2790 -0.2952 -0.1388
30958SOL    HW1 3188   2.843   7.293   2.654 -1.6895  1.0389  1.0403
30958SOL    HW2 3189   2.992   7.319   2.662 -0.8430 -1.4814 -3.3728
30959SOL     OW 3190   3.975  10.029   4.982  0.1075  0.2453 -0.8327
30959SOL    HW1 3191   4.014   9.967   4.922  0.4144  0.9548 -1.3861
30959SOL    HW2 3192   3.997  10.115   4.945  1.4869  0.7546  0.9866
30960SOL     OW 3193   3.127  10.013  11.103  0.0012 -0.0328 -0.6017
30960SOL    HW1 3194   3.203   9.995  11.157  0.2014  0.6647 -0.6349
30960SOL    HW2 3195   3.117   9.936  11.047 -0.7746 -1.1825  1.0521
30961SOL     OW 3196   2.748   5.667   4.858  0.0534 -0.8686  0.4576
30961SOL    HW1 3197   2.743   5.624   4.773  0.0991 -1.1944  0.6166
30961SOL    HW2 3198   2.661   5.654   4.897 -0.2558  0.0684  0.0867
30962SOL     OW 3199  10.361   9.030   2.627 -0.1982 -0.1191  0.0128
30962SOL    HW1 3200  10.279   9.006   2.670 -0.3259 -0.1702 -0.2609
30962SOL    HW2 3201  10.414   8.950   2.631  0.2364  0.2089  1.1088
30963SOL     OW 3202   2.095   4.154   8.249 -0.3892 -0.2247  0.6270
30963SOL    HW1 3203   2.105   4.182   8.158 -2.6895  0.9498  0.6573
30963SOL    HW2 3204   2.081   4.059   8.244 -1.8252 -0.0030 -0.4276
30964SOL     OW 3205  11.426   2.565   2.949 -0.6947 -0.1428  0.7181
30964SOL    HW1 3206  11.391   2.495   2.894  0.1229 -1.4137  1.7333
30964SOL    HW2 3207  11.478   2.619   2.890 -1.3974 -0.3537 -0.1039
30965SOL     OW 3208   8.895  10.697   3.729 -0.0338  0.4483 -0.0495
30965SOL    HW1 3209   8.835  10.646   3.674  0.8501 -0.1352 -0.5057
30965SOL    HW2 3210   8.973  10.641   3.737  0.7836  1.5322 -0.1705
30966SOL     OW 3211  11.429   4.317   8.637 -0.0713 -0.7014 -0.1804
30966SOL    HW1 3212  11.426   4.274   8.722  0.5004 -0.6490 -0.1317
30966SOL    HW2 3213  11.433   4.245   8.574  3.6764 -0.8345 -0.0211
30967SOL     OW 3214   2.732   1.650   0.994 -0.5509  0.5725  0.0291
30967SOL    HW1 3215   2.818   1.637   0.954 -0.6751 -2.1336  0.4432
30967SOL    HW2 3216   2.750   1.694   1.077  1.0355 -3.1538  1.9125
30968SOL     OW 3217   1.889  12.355   4.775 -0.2614  1.1813  0.3664
30968SOL    HW1 3218   1.931  12.439   4.792 -0.7948  1.8958 -1.6034
30968SOL    HW2 3219   1.932  12.320   4.697  1.2658 -1.3696  2.1688
30969SOL     OW 3220  12.273   9.938   9.606 -0.2369 -0.3779  0.2382
30969SOL    HW1 3221  12.306  10.027   9.623 -1.8196  0.8818 -2.5558
30969SOL    HW2 3222  12.265   9.899   9.693 -0.6508  2.6808  1.7215
30970SOL     OW 3223   6.970  12.601   6.761 -0.2075  0.2331 -0.1341
30970SOL    HW1 3224   6.897  12.545   6.786  0.3957 -0.4609  0.1273
30970SOL    HW2 3225   6.935  12.657   6.692 -1.6488  1.5430  1.5673
30971SOL     OW 3226   6.731   2.072   6.970 -0.2527  0.3963 -0.2443
30971SOL    HW1 3227   6.762   2.017   6.898  0.2758  0.6778 -0.2370
30971SOL    HW2 3228   6.803   2.133   6.986 -0.7794  0.9944 -0.1530
30972SOL     OW 3229   7.324   2.138   2.924  0.2941 -0.2618 -0.2374
30972SOL    HW1 3230   7.367   2.084   2.858  0.8998 -0.0540 -0.0208
30972SOL    HW2 3231   7.348   2.097   3.007 -0.8390 -0.7892 -0.1615
30973SOL     OW 3232   2.302  11.632  12.629  0.5343  0.1049  0.5442
30973SOL    HW1 3233   2.352  11.569  12.579  0.0721 -0.5339  0.8665
30973SOL    HW2 3234   2.304  11.598  12.719  0.0566  0.4015  0.6711
30974SOL     OW 3235   9.078   9.771   4.324 -0.0059  0.2195  0.4591
30974SOL    HW1 3236   9.169   9.759   4.351  0.0660 -0.9833 -0.2647
30974SOL    HW2 3237   9.084   9.824   4.245  0.0418  0.3721  0.5641
30975SOL     OW 3238  12.353   1.105  10.626  0.1099  0.0207  0.1722
30975SOL    HW1 3239  12.284   1.135  10.685 -0.6087 -0.4327 -0.4192
30975SOL    HW2 3240  12.388   1.185  10.587 -0.7975  0.2069 -0.3000
30976SOL     OW 3241   6.428   4.291   8.031  0.0270 -0.0938 -0.0217
30976SOL    HW1 3242   6.504   4.242   8.061  1.4714  1.7000 -0.5228
30976SOL    HW2 3243   6.377   4.228   7.980 -0.0042 -1.9059  2.0941
30977SOL     OW 3244   8.240   0.944  11.545 -0.1439  0.0771  0.1972
30977SOL    HW1 3245   8.283   0.901  11.619 -2.1562 -2.4819  0.0334
30977SOL    HW2 3246   8.306   1.005  11.511  1.3188  0.3750  3.2185
30978SOL     OW 3247  12.318   3.768   5.183 -0.1040  0.1249  0.3148
30978SOL    HW1 3248  12.330   3.681   5.221  0.9353 -0.7472 -1.8339
30978SOL    HW2 3249  12.232   3.764   5.141  0.8651 -0.7198 -1.7200
30979SOL     OW 3250   2.661   9.106  12.363  0.6777 -0.0901 -0.7931
30979SOL    HW1 3251   2.649   9.092  12.269 -0.6046 -2.1843 -0.3891
30979SOL    HW2 3252   2.572   9.115  12.397  1.1447  1.1943  0.1911
30980SOL     OW 3253   3.264   0.549   9.905 -0.3173  0.5332 -0.9402
30980SOL    HW1 3254   3.208   0.496   9.962 -0.5916 -0.0795 -1.7640
30980SOL    HW2 3255   3.242   0.639   9.927 -0.5985  0.3068 -0.2545
30981SOL     OW 3256   9.142  10.235   8.070  0.2091  0.4896 -0.3943
30981SOL    HW1 3257   9.063  10.186   8.047  1.4615 -0.3178 -3.5029
30981SOL    HW2 3258   9.213  10.173   8.057  1.5176  1.6023  0.9960
30982SOL     OW 3259  11.982  11.145   3.798 -0.0347 -0.2522 -0.7777
30982SOL    HW1 3260  11.932  11.181   3.871 -0.3641 -3.2621  0.6246
30982SOL    HW2 3261  11.916  11.108   3.740  0.3616 -1.5245 -0.4583
30983SOL     OW 3262  12.267   2.691   2.119 -0.0106  0.2291  0.9055
30983SOL    HW1 3263  12.223   2.740   2.049 -0.8614 -0.2399  1.1044
30983SOL    HW2 3264  12.356   2.727   2.120  0.3450 -0.4388 -1.0997
30984SOL     OW 3265   7.039  11.598  12.469  0.2049  0.6730 -0.0088
30984SOL    HW1 3266   7.093  11.601  12.390  0.4945  0.9892  0.2001
30984SOL    HW2 3267   6.963  11.653  12.448  0.3477  0.8668 -0.0163
30985SOL     OW 3268   2.938   3.995   8.640 -0.0482  0.6374  0.0836
30985SOL    HW1 3269   2.858   3.996   8.693  1.2371  0.0702  2.1819
30985SOL    HW2 3270   2.979   4.080   8.658 -0.2526  0.9978 -1.1194
30986SOL     OW 3271   7.328   7.068   5.804 -0.2729  0.2427  0.0350
30986SOL    HW1 3272   7.243   7.111   5.800  0.0843  0.8471 -1.7345
30986SOL    HW2 3273   7.311   6.986   5.850 -1.3316  1.3845  1.7652
30987SOL     OW 3274   8.713   2.891   8.009 -0.0060 -0.4032 -0.0322
30987SOL    HW1 3275   8.627   2.891   7.966  0.6423 -0.1620 -1.3924
30987SOL    HW2 3276   8.742   2.799   8.004  0.2580 -0.3003 -0.5544
30988SOL     OW 3277   0.324  12.551   1.522  0.0057 -0.0681 -0.2135
30988SOL    HW1 3278   0.268  12.529   1.597  0.4892  2.6608  1.0713
30988SOL    HW2 3279   0.263  12.586   1.457 -0.1877 -0.4516 -0.2383
30989SOL     OW 3280   7.140   6.947   3.087 -0.2721 -0.4932 -0.2495
30989SOL    HW1 3281   7.222   6.988   3.059 -0.4137 -1.0156 -1.4953
30989SOL    HW2 3282   7.086   7.020   3.117  0.2892 -0.0320 -0.3325
30990SOL     OW 3283   7.025   0.829   3.841 -0.1181 -0.1082 -0.2139
30990SOL    HW1 3284   7.041   0.824   3.747  0.4796  1.8091 -0.2540
30990SOL    HW2 3285   7.044   0.920   3.864 -0.8516 -0.3812  1.6588
30991SOL     OW 3286   7.493  10.348   7.901  0.0561 -0.2821  0.8338
30991SOL    HW1 3287   7.422  10.284   7.904 -1.9807  1.6922 -1.2424
30991SOL    HW2 3288   7.467  10.416   7.963  0.9615 -0.2583  1.2075
30992SOL     OW 3289  10.083   5.629   7.910 -0.7207  0.3214  0.0730
30992SOL    HW1 3290  10.064   5.655   8.000 -0.9579 -2.4722  0.9428
30992SOL    HW2 3291  10.129   5.704   7.873  0.0182  1.3292  2.7464
30993SOL     OW 3292   6.517   0.024   1.784  0.0724 -0.3247  0.3513
30993SOL    HW1 3293   6.467   0.088   1.834 -0.2307 -1.0684  1.0175
30993SOL    HW2 3294   6.491   0.038   1.693 -0.9295 -0.3410  0.6341
30994SOL     OW 3295   4.346   4.960   3.587 -0.0346  0.3215  0.0934
30994SOL    HW1 3296   4.426   4.969   3.639 -0.6450  2.6249  0.7907
30994SOL    HW2 3297   4.358   4.880   3.537  2.6870  0.5804  0.1949
30995SOL     OW 3298   8.779  10.298   6.353 -0.1430 -0.1174 -0.4153
30995SOL    HW1 3299   8.821  10.221   6.392  0.5142  0.3037 -0.2752
30995SOL    HW2 3300   8.822  10.307   6.268 -2.1885 -1.5614 -1.6821
30996SOL     OW 3301   4.499   9.957   6.971  0.2367  0.1977 -0.3265
30996SOL    HW1 3302   4.583   9.997   6.992  0.3404  0.0485 -0.4618
30996SOL    HW2 3303   4.482   9.982   6.880  0.7078 -0.7756 -0.6959
30997SOL     OW 3304   0.874   8.027  10.275 -0.1852  0.3758 -0.0505
30997SOL    HW1 3305   0.864   7.947  10.327 -0.3083  1.7582  2.1914
30997SOL    HW2 3306   0.784   8.058  10.264  0.0251  2.5878  3.2085
30998SOL     OW 3307   3.222   2.747  12.519  0.5413  0.5872 -0.2103
30998SOL    HW1 3308   3.166   2.740  12.441  0.5009 -0.4243 -0.1114
30998SOL    HW2 3309   3.164   2.727  12.592  0.3825  2.3543  0.1887
30999SOL     OW 3310   1.572   3.722  10.102 -0.3702 -0.0151 -0.5030
30999SOL    HW1 3311   1.481   3.749  10.091 -0.3534  0.4825  0.4183
30999SOL    HW2 3312   1.577   3.691  10.193  0.3698 -0.0785 -0.5555
31000SOL     OW 3313   9.143   5.769   7.249 -0.1126  0.3737 -0.1718
31000SOL    HW1 3314   9.136   5.705   7.178  3.2472  0.0052 -0.3144
31000SOL    HW2 3315   9.157   5.853   7.206 -1.3824  0.7280  0.0631
31001SOL     OW 3316   6.404   9.371   3.946 -1.1221  0.2792  0.0237
31001SOL    HW1 3317   6.364   9.423   4.016  0.1734  0.3780  0.7304
31001SOL    HW2 3318   6.384   9.418   3.866 -0.8358  1.3357  0.5492
31002SOL     OW 3319   5.001   7.554   9.992  0.2229 -0.2150  0.0185
31002SOL    HW1 3320   5.055   7.478   9.971  0.3365  0.0326 -0.6031
31002SOL    HW2 3321   4.932   7.519  10.048  1.5943 -0.3591  1.7091
31003SOL     OW 3322   0.264   4.937   7.288 -0.3375 -0.0831 -0.4362
31003SOL    HW1 3323   0.290   4.945   7.196 -1.4670  0.6683 -0.7109
31003SOL    HW2 3324   0.235   5.025   7.312 -2.2517 -0.7613 -0.0753
31004SOL     OW 3325   3.694   0.018   5.165 -0.4118 -0.0546  0.2543
31004SOL    HW1 3326   3.727   0.106   5.148 -1.5990  0.3120 -0.2096
31004SOL    HW2 3327   3.728  -0.035   5.093  0.7427 -0.1170  0.8134
31005SOL     OW 3328   0.496   3.855   7.076  0.2178  0.2170 -0.2258
31005SOL    HW1 3329   0.431   3.795   7.039  0.2535  0.6444 -1.0017
31005SOL    HW2 3330   0.492   3.840   7.170  0.5598 -1.3416 -0.4329
31006SOL     OW 3331  10.384   1.527   5.848  0.4376 -0.1894  0.3723
31006SOL    HW1 3332  10.427   1.578   5.780  0.0815  0.0112  0.2933
31006SOL    HW2 3333  10.454   1.503   5.909  0.3751  1.8697  1.3556
31007SOL     OW 3334  12.214  11.374   2.077 -0.0040  0.3629 -0.4012
31007SOL    HW1 3335  12.209  11.281   2.101 -0.2741  0.1642 -1.1697
31007SOL    HW2 3336  12.295  11.382   2.027  0.0904  0.5690 -0.2157
31008SOL     OW 3337   7.275  10.169  10.831 -0.1573 -0.0661  0.2908
31008SOL    HW1 3338   7.333  10.206  10.898  0.0496  0.1638 -0.0143
31008SOL    HW2 3339   7.187  10.179  10.868 -0.1840  1.5118 -0.1414
31009SOL     OW 3340   4.683   9.332  10.498 -0.5007  0.0793  0.1052
31009SOL    HW1 3341   4.677   9.248  10.544 -3.4675  0.3237  0.3702
31009SOL    HW2 3342   4.596   9.371  10.507  0.3038  2.4721 -1.4042
31010SOL     OW 3343  10.485   3.511   6.165 -0.0150 -0.2152  0.3070
31010SOL    HW1 3344  10.548   3.487   6.233  0.5375 -0.0274 -0.1334
31010SOL    HW2 3345  10.538   3.548   6.095 -0.6713  0.5465  0.1924
31011SOL     OW 3346   0.835  10.004   7.106 -0.5358  0.3599  0.0681
31011SOL    HW1 3347   0.893  10.052   7.165 -0.6247  0.4126  0.1139
31011SOL    HW2 3348   0.810  10.068   7.039  1.4083 -0.3022 -1.3844
31012SOL     OW 3349   0.956   0.468   6.556 -0.5003 -0.4407  0.0009
31012SOL    HW1 3350   0.879   0.469   6.500 -1.1560  0.6596  0.8828
31012SOL    HW2 3351   0.934   0.408   6.627 -0.7791  0.2982  0.5487
31013SOL     OW 3352   4.560   7.377  11.479  0.2114 -0.0014 -0.4808
31013SOL    HW1 3353   4.549   7.430  11.400 -1.1680 -0.9535 -0.9559
31013SOL    HW2 3354   4.550   7.440  11.551 -1.7162  0.3730 -1.0190
31014SOL     OW 3355   8.500  11.480   1.517 -0.0330  0.3729  0.2225
31014SOL    HW1 3356   8.414  11.438   1.508 -0.2110  0.4095  1.5129
31014SOL    HW2 3357   8.493  11.559   1.465 -0.8880  0.5013  0.5043
31015SOL     OW 3358   0.526  12.539   6.963 -0.2096  0.3409  0.1701
31015SOL    HW1 3359   0.453  12.511   7.019 -0.7993  0.5027 -0.5149
31015SOL    HW2 3360   0.597  12.479   6.986 -0.7402 -0.2040  0.4121
31016SOL     OW 3361   7.525  11.121  11.377 -1.0713  0.2092 -0.6839
31016SOL    HW1 3362   7.434  11.091  11.386 -0.6961 -0.8664 -0.3099
31016SOL    HW2 3363   7.565  11.056  11.319 -0.8728  1.4321 -1.9533
31017SOL     OW 3364   2.013   0.625   6.885  0.2313  0.3819 -0.1986
31017SOL    HW1 3365   2.007   0.617   6.981  0.6142 -2.2039 -0.3278
31017SOL    HW2 3366   1.942   0.571   6.852  2.3632 -1.8666 -1.3591
31018SOL     OW 3367   1.535   9.551   4.610  0.3339 -0.0756 -0.3698
31018SOL    HW1 3368   1.485   9.571   4.690  0.4939 -0.2985 -0.2141
31018SOL    HW2 3369   1.509   9.461   4.588 -1.9310  0.9069 -2.1959
31019SOL     OW 3370   9.446   0.019   3.416 -0.4003 -0.6214  0.0871
31019SOL    HW1 3371   9.350   0.011   3.412 -0.3870 -0.1346 -2.0086
31019SOL    HW2 3372   9.466   0.095   3.363  1.0673  0.4846  2.0908
31020SOL     OW 3373  12.511   0.287   6.373  0.0170  0.1491 -0.0033
31020SOL    HW1 3374  12.480   0.301   6.463 -1.0760  2.0807 -0.6244
31020SOL    HW2 3375  12.512   0.192   6.363 -0.6826 -0.1003  1.7621
31021SOL     OW 3376   3.408   9.704  11.401  0.1520  0.4306 -0.2770
31021SOL    HW1 3377   3.465   9.693  11.477 -0.7164  0.2923  0.3696
31021SOL    HW2 3378   3.341   9.636  11.411  0.0128  0.4326 -1.1530
31022SOL     OW 3379   8.542   7.856   1.425 -0.0390  0.0970  0.1902
31022SOL    HW1 3380   8.635   7.835   1.437  0.1131 -0.0234 -1.0269
31022SOL    HW2 3381   8.522   7.824   1.337 -1.6223 -1.2364  0.9724
31023SOL     OW 3382   9.516   2.772   7.146 -0.0443  0.5929 -0.2008
31023SOL    HW1 3383   9.567   2.817   7.079 -0.3245  0.5450 -0.4454
31023SOL    HW2 3384   9.497   2.840   7.211  0.2825  0.6233 -0.1356
31024SOL     OW 3385   5.046   6.225   2.854 -0.2340  0.2050  0.2578
31024SOL    HW1 3386   4.955   6.235   2.827 -0.0115  0.4873 -0.3936
31024SOL    HW2 3387   5.043   6.162   2.926 -1.0173  0.7186  0.6832
31025SOL     OW 3388   2.859   0.008   0.906  0.2417  0.3801 -0.0815
31025SOL    HW1 3389   2.888  -0.008   0.995  0.1714  0.9448  0.0473
31025SOL    HW2 3390   2.817  -0.074   0.879 -0.0918  0.3425  0.5411
31026SOL     OW 3391   6.400   1.422   3.593  0.1018 -0.5393  0.1929
31026SOL    HW1 3392   6.338   1.358   3.559  0.8717 -0.6070 -1.1415
31026SOL    HW2 3393   6.387   1.499   3.537  2.3383 -1.1153 -1.2310
31027SOL     OW 3394  10.056   6.459   3.842  0.1597 -0.0875 -0.0896
31027SOL    HW1 3395  10.103   6.382   3.810  0.2759 -1.3296  2.7320
31027SOL    HW2 3396   9.970   6.424   3.869  0.0128  0.8719  0.7241
31028SOL     OW 3397   9.551  11.146  11.940 -0.0487  0.1098  0.0759
31028SOL    HW1 3398   9.540  11.051  11.943  0.7298 -0.0091 -0.6580
31028SOL    HW2 3399   9.472  11.181  11.983 -0.7031 -0.8414 -0.3418
31029SOL     OW 3400   8.682   0.499   8.115 -0.5231  0.4616  0.2502
31029SOL    HW1 3401   8.723   0.519   8.199 -1.1920  1.6523  0.3204
31029SOL    HW2 3402   8.720   0.562   8.054 -1.5623  0.9956  0.1282
31030SOL     OW 3403   3.552   0.972   9.346 -0.6078 -0.2853  0.4090
31030SOL    HW1 3404   3.586   0.952   9.434  0.6531  0.1579  0.0466
31030SOL    HW2 3405   3.543   1.067   9.346 -1.1408 -0.3323  0.2315
31031SOL     OW 3406   4.256  12.248   3.999  0.0330  0.6662  0.2433
31031SOL    HW1 3407   4.274  12.342   4.010  2.3673  0.3553 -0.3426
31031SOL    HW2 3408   4.257  12.213   4.088 -0.1932  1.0832  0.4144
31032SOL     OW 3409   1.509  10.010  12.510 -0.2482 -0.5433 -0.1709
31032SOL    HW1 3410   1.557   9.928  12.523  1.2176  0.5032  1.4124
31032SOL    HW2 3411   1.577  10.074  12.489 -1.3603  0.3139 -1.3286
31033SOL     OW 3412  12.965   9.503  11.899 -0.7070  0.0756  0.4574
31033SOL    HW1 3413  12.925   9.539  11.978 -0.9688  0.6651  0.0662
31033SOL    HW2 3414  12.909   9.535  11.828  0.1215  0.4103 -0.0532
31034SOL     OW 3415   4.477   6.996   4.219  0.1206  0.3133  0.1189
31034SOL    HW1 3416   4.543   6.936   4.255  0.6537  1.2956  0.8535
31034SOL    HW2 3417   4.394   6.965   4.255  0.5055  0.5671  1.2786
31035SOL     OW 3418   7.262   0.240   4.152 -0.2172 -0.0690 -0.0706
31035SOL    HW1 3419   7.330   0.307   4.139  1.2137 -1.5905 -0.9395
31035SOL    HW2 3420   7.285   0.198   4.235 -0.9938  0.3752  0.3775
31036SOL     OW 3421   1.199   0.332   7.322  0.2102  0.2846  0.1122
31036SOL    HW1 3422   1.265   0.329   7.392 -0.9984 -1.4022  1.2415
31036SOL    HW2 3423   1.215   0.416   7.279  3.8470 -0.4969 -0.4426
31037SOL     OW 3424   3.207   5.609  11.477 -0.9492 -0.1347 -0.2727
31037SOL    HW1 3425   3.282   5.550  11.475 -1.0773 -0.3488  0.6953
31037SOL    HW2 3426   3.230   5.673  11.545 -1.3941  0.1323 -0.3738
31038SOL     OW 3427   4.233   3.513   5.138 -0.0157  0.4087 -0.4425
31038SOL    HW1 3428   4.154   3.506   5.086  0.5883 -1.0258 -1.2231
31038SOL    HW2 3429   4.214   3.583   5.201 -3.0781 -1.8330  1.4252
31039SOL     OW 3430   5.024   6.698   5.711 -0.4938 -0.0339  0.4670
31039SOL    HW1 3431   4.959   6.683   5.779  1.8867 -0.2058  2.8417
31039SOL    HW2 3432   5.065   6.781   5.735 -0.0596  0.2711 -1.2027
31040SOL     OW 3433   5.125  11.804   6.118 -0.3680 -0.0517 -0.1111
31040SOL    HW1 3434   5.057  11.872   6.124 -0.6947 -0.3897  0.0138
31040SOL    HW2 3435   5.081  11.723   6.142 -0.0923 -0.3918 -0.7153
31041SOL     OW 3436   9.063   8.243   1.713  0.4441  0.5555  0.0321
31041SOL    HW1 3437   9.048   8.227   1.806 -0.5840  0.3434 -0.1666
31041SOL    HW2 3438   9.139   8.301   1.711  1.6318 -0.8828  0.9352
31042SOL     OW 3439   9.307   0.862  10.814 -0.4255  0.0667 -0.4345
31042SOL    HW1 3440   9.305   0.766  10.806 -1.6006  0.0056  0.3334
31042SOL    HW2 3441   9.299   0.878  10.908  0.8833  0.9131 -0.4520
31043SOL     OW 3442   4.590   7.301   4.107  0.0307 -0.3730  0.0751
31043SOL    HW1 3443   4.634   7.242   4.046 -0.6722  0.2204 -1.0304
31043SOL    HW2 3444   4.501   7.310   4.074 -0.2899  0.1953  1.0278
31044SOL     OW 3445   0.124  11.917  11.658  0.6620  0.9006  0.2991
31044SOL    HW1 3446   0.128  12.005  11.694 -0.6457  0.8759  0.5501
31044SOL    HW2 3447   0.155  11.926  11.568  1.9675  1.3315  0.7716
31045SOL     OW 3448   3.066   7.511   5.490 -0.1682  0.4872 -0.3114
31045SOL    HW1 3449   3.011   7.432   5.483  0.9914 -0.2247 -1.8493
31045SOL    HW2 3450   3.060   7.552   5.404  0.2552  1.4106  0.0871
31046SOL     OW 3451   8.844   8.743  10.825 -0.5179 -0.0391  0.7194
31046SOL    HW1 3452   8.755   8.745  10.791 -0.1731  4.3160 -0.5517
31046SOL    HW2 3453   8.839   8.792  10.907  0.5167 -0.9166  1.3263
31047SOL     OW 3454   6.555  12.630  11.892  0.1211  0.2861  0.4857
31047SOL    HW1 3455   6.465  12.660  11.898  0.4172  1.1996  0.4847
31047SOL    HW2 3456   6.601  12.699  11.845  0.8658 -0.0691  0.6654
31048SOL     OW 3457   4.066   6.500   9.120  0.5135 -0.5512  0.3094
31048SOL    HW1 3458   4.129   6.571   9.133  0.2409  0.1685 -1.8413
31048SOL    HW2 3459   3.981   6.544   9.114  0.1975 -1.1835  0.1149
31049SOL     OW 3460  12.256   5.199  10.773  0.4188  0.0028  0.1211
31049SOL    HW1 3461  12.228   5.115  10.737 -1.7667  0.8262 -0.2778
31049SOL    HW2 3462  12.271   5.182  10.866 -1.5875 -0.5480  0.4009
31050SOL     OW 3463  12.277   9.420   4.569 -0.3740 -0.3890 -0.0929
31050SOL    HW1 3464  12.363   9.379   4.577 -0.9900 -1.5787  0.8670
31050SOL    HW2 3465  12.226   9.382   4.641 -1.5443  0.6901 -0.3216
31051SOL     OW 3466  10.595   8.134   9.870  0.3022  0.1826  0.1482
31051SOL    HW1 3467  10.554   8.220   9.863 -0.7937 -0.1165  2.1027
31051SOL    HW2 3468  10.635   8.133   9.957 -1.1846 -1.8341  0.8878
31052SOL     OW 3469   6.351   3.811   4.067  0.2735 -0.1122 -0.2738
31052SOL    HW1 3470   6.293   3.756   4.014  1.0800 -1.1237 -0.1369
31052SOL    HW2 3471   6.429   3.823   4.013  0.9673 -0.8775  0.5306
31053SOL     OW 3472  10.462  10.172  11.199  0.2540  0.4631  0.3404
31053SOL    HW1 3473  10.535  10.111  11.214  1.5209  1.7284 -0.4191
31053SOL    HW2 3474  10.423  10.185  11.285 -0.1582 -1.5181  0.5015
31054SOL     OW 3475   7.003  11.309   1.609 -0.3405  0.7347 -0.4049
31054SOL    HW1 3476   6.961  11.372   1.669 -0.8784  1.2618 -1.3124
31054SOL    HW2 3477   7.084  11.353   1.582 -1.3344  1.6516 -2.0515
31055SOL     OW 3478   9.162  12.082   5.285 -0.2462 -0.7075 -0.9981
31055SOL    HW1 3479   9.221  12.105   5.357 -0.9023 -0.7742 -0.4388
31055SOL    HW2 3480   9.218  12.086   5.207 -0.1202  2.1087 -0.8731
31056SOL     OW 3481   7.562   9.688  11.658 -0.5141 -0.0850 -0.0538
31056SOL    HW1 3482   7.501   9.619  11.683  0.0782 -0.7445 -0.3914
31056SOL    HW2 3483   7.626   9.691  11.729 -0.9145  0.5975  0.2940
31057SOL     OW 3484  12.184   0.953   5.617 -0.0006 -0.0291  0.6091
31057SOL    HW1 3485  12.222   1.040   5.603  0.3264 -0.0501  1.3059
31057SOL    HW2 3486  12.239   0.895   5.564  0.0813  0.1277  0.5205
31058SOL     OW 3487   7.736   7.426   6.954  1.7582 -0.2522 -0.3093
31058SOL    HW1 3488   7.780   7.499   6.998  1.4005 -0.4025  0.3092
31058SOL    HW2 3489   7.645   7.432   6.982  1.8127 -1.2102  0.1323
31059SOL     OW 3490  11.791   4.129   3.267 -0.5448  0.0483  0.1925
31059SOL    HW1 3491  11.872   4.108   3.220 -0.8455 -0.3326 -0.1617
31059SOL    HW2 3492  11.774   4.052   3.321 -1.2093 -0.2995 -0.4949
31060SOL     OW 3493   8.124   1.093   5.196  0.6559 -0.3354  0.5279
31060SOL    HW1 3494   8.082   1.164   5.245  0.5070  0.7460 -1.1168
31060SOL    HW2 3495   8.060   1.022   5.199  1.0561 -0.6990  2.7143
31061SOL     OW 3496   4.893   6.757   0.488  0.0138  0.2788  0.1892
31061SOL    HW1 3497   4.835   6.689   0.522  1.3682 -1.7157 -1.2489
31061SOL    HW2 3498   4.834   6.820   0.446 -1.2241 -0.6897  0.4117
31062SOL     OW 3499  10.701   7.742  11.287  0.5879 -0.3260  0.1217
31062SOL    HW1 3500  10.731   7.830  11.266  0.5312 -0.2812  0.2275
31062SOL    HW2 3501  10.779   7.699  11.324  0.4142 -0.0696  0.8110
31063SOL     OW 3502   8.215  10.488   2.614  0.0149 -0.6214  0.8755
31063SOL    HW1 3503   8.139  10.446   2.655 -0.5991  0.5695  0.9947
31063SOL    HW2 3504   8.180  10.527   2.533  1.0927 -2.4505 -0.5517
31064SOL     OW 3505   6.485  11.548  12.213 -0.5553 -0.1669  0.3164
31064SOL    HW1 3506   6.542  11.546  12.137 -0.8941  1.8096 -0.0164
31064SOL    HW2 3507   6.411  11.602  12.188 -1.4372 -0.7277  1.5530
31065SOL     OW 3508  11.332   1.164   1.842 -0.1927 -0.1196  0.2247
31065SOL    HW1 3509  11.410   1.153   1.788 -0.1579  1.5015 -0.0874
31065SOL    HW2 3510  11.358   1.224   1.912 -0.5597 -1.2971  1.4301
31066SOL     OW 3511  10.523  10.253   2.051  0.1377 -0.6998  0.4094
31066SOL    HW1 3512  10.617  10.248   2.066  0.1238 -1.8217  0.2444
31066SOL    HW2 3513  10.500  10.343   2.071  1.1592 -0.5459  0.9643
31067SOL     OW 3514  11.698   2.433  11.388  0.0048 -0.2612 -0.3124
31067SOL    HW1 3515  11.651   2.360  11.427  0.5970 -0.5084 -0.0547
31067SOL    HW2 3516  11.721   2.489  11.463  1.3612 -0.8605 -0.2507
31068SOL     OW 3517   3.734   7.965   3.200  0.1144  0.2252 -0.7222
31068SOL    HW1 3518   3.732   7.870   3.213 -1.3524  0.4097  0.8274
31068SOL    HW2 3519   3.800   7.997   3.262 -0.5883  0.3368 -0.0117
31069SOL     OW 3520   9.389  12.044  10.889  0.4285  0.0305 -0.2378
31069SOL    HW1 3521   9.382  12.000  10.974 -0.0320 -1.0660 -0.8129
31069SOL    HW2 3522   9.341  12.126  10.900  0.3048 -0.1428  0.5470
31070SOL     OW 3523   1.160  12.060   3.171 -0.0224 -0.7253  0.2618
31070SOL    HW1 3524   1.190  12.104   3.250  1.2481 -1.3918  0.1764
31070SOL    HW2 3525   1.226  12.081   3.105 -0.1960 -1.5207 -0.1813
31071SOL     OW 3526  10.408   7.688   7.519  0.2960 -0.0337  0.1952
31071SOL    HW1 3527  10.396   7.772   7.562 -0.0118  0.7131 -1.2803
31071SOL    HW2 3528  10.329   7.675   7.467  1.1286 -0.3128 -1.0623
31072SOL     OW 3529  11.149   9.893  10.848 -0.2904  0.4146  0.9869
31072SOL    HW1 3530  11.087   9.939  10.905 -1.2357  0.4145 -0.0152
31072SOL    HW2 3531  11.189   9.963  10.796 -0.1519  0.3166  0.9611
31073SOL     OW 3532  11.170   1.954   2.227 -0.7211  0.0816 -0.4668
31073SOL    HW1 3533  11.222   1.936   2.149 -0.4331  0.8963 -0.4836
31073SOL    HW2 3534  11.092   1.998   2.194 -1.8383 -1.8535 -0.5144
31074SOL     OW 3535  12.309   9.768   5.215  0.7119 -0.7641  0.1465
31074SOL    HW1 3536  12.351   9.698   5.166  0.9542  0.1958 -1.0683
31074SOL    HW2 3537  12.216   9.759   5.195  0.9347  0.4129 -1.6122
31075SOL     OW 3538  10.568  10.871   1.619 -0.4194  0.5457 -0.4167
31075SOL    HW1 3539  10.525  10.920   1.550 -3.8796  1.0580  1.8329
31075SOL    HW2 3540  10.509  10.797   1.637  2.2335 -1.7564 -0.4347
31076SOL     OW 3541   8.285   3.812   5.024  0.1600  0.9300 -0.1272
31076SOL    HW1 3542   8.282   3.906   5.041  0.6548  0.7032  1.3483
31076SOL    HW2 3543   8.328   3.804   4.939  1.0673  1.9904  0.2126
31077SOL     OW 3544   9.046   7.573   2.439  0.1527  0.5968  0.0474
31077SOL    HW1 3545   9.079   7.625   2.513 -0.4269  1.4905 -0.3018
31077SOL    HW2 3546   9.109   7.586   2.369 -0.4454  1.5771 -0.3289
31078SOL     OW 3547   1.684   3.310   7.794 -0.4893  0.1968 -0.3990
31078SOL    HW1 3548   1.598   3.340   7.766 -0.2519  1.4902  0.1722
31078SOL    HW2 3549   1.737   3.310   7.714 -1.2023 -1.4188 -0.9128
31079SOL     OW 3550   7.759   7.593  11.325  0.8534  0.3782 -0.1203
31079SOL    HW1 3551   7.836   7.549  11.359  0.8540 -0.5929 -1.3257
31079SOL    HW2 3552   7.736   7.545  11.246  0.4964  2.1658 -1.1772
31080SOL     OW 3553   2.585   6.600   6.452  0.0508  0.0732 -0.5324
31080SOL    HW1 3554   2.541   6.540   6.392 -0.9672  1.1215 -0.8825
31080SOL    HW2 3555   2.668   6.557   6.473 -0.5204 -1.2987 -0.9871
31081SOL     OW 3556   9.951  11.621   1.850 -0.4224 -0.1010  0.7185
31081SOL    HW1 3557  10.032  11.574   1.829 -0.8043 -0.2266 -0.5818
31081SOL    HW2 3558   9.971  11.669   1.931  1.1407  0.3508  0.1036
31082SOL     OW 3559   5.268   5.642   6.270 -0.1303 -0.2416 -0.1225
31082SOL    HW1 3560   5.204   5.701   6.311 -0.9225 -1.0069 -0.2148
31082SOL    HW2 3561   5.352   5.686   6.281 -0.8824  1.7928 -1.8102
31083SOL     OW 3562  11.005  11.424   3.463  0.0817 -0.3232 -0.2702
31083SOL    HW1 3563  11.064  11.429   3.388 -1.4065  0.7419 -1.4056
31083SOL    HW2 3564  11.015  11.334   3.495  4.4329  0.5195  1.4179
31084SOL     OW 3565  10.533   3.303   1.094 -0.7294 -0.3196 -0.3868
31084SOL    HW1 3566  10.545   3.231   1.032 -1.2637 -2.2417  1.6467
31084SOL    HW2 3567  10.438   3.311   1.103 -0.6625  0.3344 -0.2253
31085SOL     OW 3568   1.472   4.282  11.098  0.0730  0.8313 -0.2379
31085SOL    HW1 3569   1.403   4.258  11.160 -0.4614  1.0730 -0.7272
31085SOL    HW2 3570   1.429   4.281  11.013  0.4156  1.9957 -0.4410
31086SOL     OW 3571   7.598   0.644   1.806  0.3292 -0.1117  0.0487
31086SOL    HW1 3572   7.648   0.599   1.875 -1.2653 -0.8938  0.7322
31086SOL    HW2 3573   7.547   0.575   1.765  0.6252  0.4975 -1.3932
31087SOL     OW 3574   7.602   1.843   6.778  0.0344 -0.1720  0.1174
31087SOL    HW1 3575   7.576   1.790   6.853 -1.7259  1.5114  0.7787
31087SOL    HW2 3576   7.646   1.919   6.816 -0.6170  0.5590 -0.5462
31088SOL     OW 3577  10.469   3.529  11.533  0.3926 -0.3627 -0.3664
31088SOL    HW1 3578  10.385   3.484  11.527  0.0502  0.4221 -2.0945
31088SOL    HW2 3579  10.505   3.524  11.444  1.2281  1.1023 -0.1437
31089SOL     OW 3580   2.418   6.811  11.483 -0.1850 -0.3014 -0.3130
31089SOL    HW1 3581   2.500   6.813  11.531 -1.2758 -0.6568  1.6770
31089SOL    HW2 3582   2.390   6.903  11.479  0.2220 -0.1946 -0.8889
31090SOL     OW 3583   9.644   9.155   1.248 -0.3963 -0.0457 -0.0142
31090SOL    HW1 3584   9.563   9.122   1.210 -1.6534  0.9375  1.6977
31090SOL    HW2 3585   9.668   9.229   1.192 -0.1500 -0.8890 -1.0553
31091SOL     OW 3586   2.190   6.612   1.382  0.5407  0.2240  0.0067
31091SOL    HW1 3587   2.233   6.692   1.351 -0.7757  0.2989 -1.7848
31091SOL    HW2 3588   2.180   6.558   1.303 -0.6924 -0.6983  0.7645
31092SOL     OW 3589   1.016   5.561   0.463  0.2271  0.2108  0.7320
31092SOL    HW1 3590   0.975   5.491   0.412 -1.4171  0.9408  0.9948
31092SOL    HW2 3591   1.109   5.537   0.466 -0.0153 -1.0483 -0.6311
31093SOL     OW 3592  10.188   6.361   6.827  0.0674 -0.0149  0.3754
31093SOL    HW1 3593  10.247   6.286   6.820 -0.1625 -0.2553  0.9634
31093SOL    HW2 3594  10.204   6.397   6.914  1.7288  1.9499 -0.6624
31094SOL     OW 3595   4.456  11.327   6.106 -0.2521  1.1582 -0.4114
31094SOL    HW1 3596   4.485  11.264   6.172  0.3232  1.3197 -0.5088
31094SOL    HW2 3597   4.535  11.375   6.082  0.0282 -0.4138 -2.8735
31095SOL     OW 3598  10.229   4.067  11.935 -0.2767  0.2837  0.0317
31095SOL    HW1 3599  10.192   4.071  12.023  0.7026  0.1255  0.4637
31095SOL    HW2 3600  10.205   4.151  11.896 -2.8982 -0.6256 -0.4821
31096SOL     OW 3601   9.687   0.895   5.251  0.5314 -0.2787  0.0737
31096SOL    HW1 3602   9.639   0.961   5.201  1.2593  0.1231 -0.1086
31096SOL    HW2 3603   9.704   0.937   5.335  3.2168  0.8001 -0.8991
31097SOL     OW 3604   6.869   1.558   2.691 -0.0532  0.1113  0.4204
31097SOL    HW1 3605   6.799   1.621   2.677 -0.2050 -0.3381 -0.9870
31097SOL    HW2 3606   6.831   1.491   2.747 -0.3777  0.4701  0.6312
31098SOL     OW 3607   4.285   5.021   1.217  0.3625 -0.1118 -0.4980
31098SOL    HW1 3608   4.222   4.966   1.170  1.0038 -0.1769 -1.3045
31098SOL    HW2 3609   4.346   5.050   1.149  1.4685 -0.4179  0.3448
31099SOL     OW 3610   5.346   0.465   0.672  0.0042  0.2694 -0.2081
31099SOL    HW1 3611   5.368   0.555   0.646 -2.1143  1.2677  1.1583
31099SOL    HW2 3612   5.288   0.476   0.747 -1.0727 -2.2238 -0.5961
31100SOL     OW 3613   3.483   6.773   8.250 -0.4342 -0.3051  0.0890
31100SOL    HW1 3614   3.452   6.708   8.187 -2.1057 -0.6350  1.1877
31100SOL    HW2 3615   3.409   6.832   8.263 -0.0887 -0.1615  1.5978
31101SOL     OW 3616  12.296   3.825  12.135  0.0605 -0.4159 -0.0075
31101SOL    HW1 3617  12.273   3.824  12.228 -0.2719 -1.6077 -0.0952
31101SOL    HW2 3618  12.389   3.801  12.133  0.3892  0.7583  0.0790
31102SOL     OW 3619   0.025   4.351   4.197 -0.2580  0.0759 -0.0002
31102SOL    HW1 3620  -0.027   4.402   4.135 -0.3016  1.1592  0.8895
31102SOL    HW2 3621   0.041   4.268   4.153  0.2229  1.0260 -1.6874
31103SOL     OW 3622   9.251   1.600   8.598  0.1742 -0.0948  0.3688
31103SOL    HW1 3623   9.308   1.529   8.629  0.1631  0.0633  0.7534
31103SOL    HW2 3624   9.309   1.675   8.590  0.6634 -0.6456 -2.1171
31104SOL     OW 3625   3.980  11.255   1.227 -0.0219 -0.1575 -0.0790
31104SOL    HW1 3626   3.987  11.168   1.267 -1.4875  0.0712  0.7363
31104SOL    HW2 3627   3.978  11.238   1.133  0.9930 -0.8986  0.0174
31105SOL     OW 3628   3.312   6.655   5.250 -0.4044  0.0466 -0.1421
31105SOL    HW1 3629   3.281   6.689   5.334  2.3781  2.4984  0.0369
31105SOL    HW2 3630   3.400   6.691   5.240  0.9122 -3.3093 -2.3536
31106SOL     OW 3631  10.633   7.512  10.320 -0.2763  0.5257  0.4510
31106SOL    HW1 3632  10.701   7.449  10.343  0.4985  0.8339 -0.9115
31106SOL    HW2 3633  10.632   7.574  10.393  0.4170  0.1295  0.8082
31107SOL     OW 3634  11.039   0.663  12.797  0.8083 -0.6247  0.5602
31107SOL    HW1 3635  10.963   0.683  12.743  0.4357 -1.1984  0.8570
31107SOL    HW2 3636  11.088   0.745  12.801 -1.1145  0.5669  2.5084
31108SOL     OW 3637   1.775   2.017   7.864 -0.8420 -0.1948  0.5361
31108SOL    HW1 3638   1.815   1.947   7.813 -1.6754 -0.3599  0.0879
31108SOL    HW2 3639   1.729   1.971   7.935  1.9504  0.1114  2.7097
31109SOL     OW 3640   2.215  10.640  12.582  0.2639  0.1142  0.3749
31109SOL    HW1 3641   2.239  10.621  12.673  0.2166 -3.1672 -0.1512
31109SOL    HW2 3642   2.123  10.665  12.586 -0.3792 -2.0803  1.1446
31110SOL     OW 3643   5.347  10.549   6.786 -0.0083 -1.2788 -0.2921
31110SOL    HW1 3644   5.429  10.551   6.835 -0.5672 -1.2245  0.6659
31110SOL    HW2 3645   5.279  10.547   6.853 -0.9586  2.4168 -0.9365
31111SOL     OW 3646   7.301   2.218   5.409  0.0845 -0.4407 -0.1598
31111SOL    HW1 3647   7.372   2.244   5.468  0.5619 -2.6954  0.3618
31111SOL    HW2 3648   7.341   2.153   5.351 -0.8871  0.2984 -1.7341
31112SOL     OW 3649   0.222   2.743   7.689 -0.4005  0.1694  0.1378
31112SOL    HW1 3650   0.132   2.731   7.721 -0.4660 -0.5506 -0.2761
31112SOL    HW2 3651   0.276   2.738   7.768 -0.8989  3.7525  0.8650
31113SOL     OW 3652   9.171   9.152  10.326  0.1732  0.9874 -0.0419
31113SOL    HW1 3653   9.077   9.146  10.338  0.2343 -1.8722 -0.1703
31113SOL    HW2 3654   9.191   9.245  10.332 -2.6906  1.7076 -0.4904
31114SOL     OW 3655   4.018  12.776   8.132  0.0013  0.1864 -0.0777
31114SOL    HW1 3656   4.067  12.831   8.070  0.4414  2.0840  1.8128
31114SOL    HW2 3657   4.085  12.724   8.176 -0.2329 -0.6239 -0.6531
31115SOL     OW 3658   4.538   0.769  11.845 -0.3473  0.0057  0.0015
31115SOL    HW1 3659   4.538   0.864  11.833  1.3750  0.0007 -0.2384
31115SOL    HW2 3660   4.611   0.738  11.792 -1.2823 -1.5396 -0.4388
31116SOL     OW 3661   3.024   2.881   1.216  0.1992  0.1670  0.1954
31116SOL    HW1 3662   2.981   2.905   1.298 -1.6412 -2.0331 -0.0573
31116SOL    HW2 3663   3.039   2.787   1.222  0.1252 -0.0417 -1.9552
31117SOL     OW 3664  11.865   9.562   9.311 -0.2084  0.2800 -0.4867
31117SOL    HW1 3665  11.835   9.476   9.281  0.6229 -1.1834  2.5095
31117SOL    HW2 3666  11.789   9.619   9.299 -0.5761 -0.6318 -3.1526
31118SOL     OW 3667   5.013  10.378   1.712  0.2446 -0.3711 -0.3810
31118SOL    HW1 3668   4.942  10.411   1.767  1.4069 -1.6968  2.0797
31118SOL    HW2 3669   5.092  10.418   1.748  0.9156  0.2440 -2.3876
31119SOL     OW 3670   1.793   7.075   9.763  0.1427 -0.1690  0.2932
31119SOL    HW1 3671   1.721   7.138   9.754 -0.4788 -0.8303  0.5206
31119SOL    HW2 3672   1.757   7.005   9.817  0.4471 -1.2718 -0.8862
31120SOL     OW 3673   2.262   9.530   6.447 -0.4852 -0.0469  0.0991
31120SOL    HW1 3674   2.279   9.474   6.523  1.8975 -1.2787 -1.2137
31120SOL    HW2 3675   2.244   9.616   6.485 -0.4324 -0.8308  2.0666
31121SOL     OW 3676  11.875   9.675   9.578  0.1404  0.3323  0.5972
31121SOL    HW1 3677  11.904   9.613   9.512  0.3073  1.7803 -0.7635
31121SOL    HW2 3678  11.867   9.624   9.659  2.6691 -0.9436  0.1331
31122SOL     OW 3679   0.965   0.483   6.166  0.2584 -0.7290  0.6138
31122SOL    HW1 3680   0.909   0.433   6.107  0.5588  2.0039 -2.2962
31122SOL    HW2 3681   0.997   0.419   6.229 -0.0061 -3.9874 -2.2543
31123SOL     OW 3682   0.134   1.004   8.778 -0.4068  0.3596  0.5110
31123SOL    HW1 3683   0.095   0.931   8.826  0.6385  0.3019  1.3318
31123SOL    HW2 3684   0.168   0.964   8.697  0.3100 -0.1185  1.0315
31124SOL     OW 3685   7.553   8.533   4.535  0.4886  0.0219  0.1666
31124SOL    HW1 3686   7.602   8.454   4.515 -1.3066 -1.2985  0.6779
31124SOL    HW2 3687   7.482   8.534   4.470 -0.3204  0.4476  1.0340
31125SOL     OW 3688   6.374   6.150   9.380  0.5531 -0.0367 -0.7518
31125SOL    HW1 3689   6.352   6.242   9.395 -0.6257 -0.5522  0.8301
31125SOL    HW2 3690   6.369   6.109   9.466  2.3371 -1.3503 -1.2179
31126SOL     OW 3691   5.518  11.837  10.824  0.0361  0.6856  0.4098
31126SOL    HW1 3692   5.613  11.843  10.833  0.2297 -1.5310  0.3648
31126SOL    HW2 3693   5.495  11.753  10.864 -2.1492  1.9182  1.9711
31127SOL     OW 3694  11.630   3.661   5.754  0.0855 -0.0724 -0.1582
31127SOL    HW1 3695  11.543   3.620   5.760  0.1462 -0.1655  0.1196
31127SOL    HW2 3696  11.611   3.754   5.740 -0.0843  0.0777  0.9475
31128SOL     OW 3697   4.077   7.163   6.878  0.0896 -0.2156 -0.1216
31128SOL    HW1 3698   4.063   7.097   6.946 -1.1894  1.3136  1.1885
31128SOL    HW2 3699   4.002   7.222   6.887  1.5790  1.8585 -0.7013
31129SOL     OW 3700   0.964   7.630   8.633 -0.3672  0.0750 -0.4953
31129SOL    HW1 3701   1.023   7.679   8.575  0.1723  0.1684  0.1157
31129SOL    HW2 3702   0.877   7.651   8.602 -0.1303  1.1645 -0.4640
31130SOL     OW 3703   3.775   2.838   0.829 -0.1922 -0.0701 -0.2952
31130SOL    HW1 3704   3.784   2.918   0.777 -0.2216 -0.0317 -0.2420
31130SOL    HW2 3705   3.789   2.767   0.767 -1.9277 -0.0783 -0.7417
31131SOL     OW 3706   1.559   5.270   5.127 -0.1159  0.2339  0.4853
31131SOL    HW1 3707   1.466   5.258   5.107  0.1063 -0.8255  0.0108
31131SOL    HW2 3708   1.572   5.364   5.124 -0.9954  0.3474 -0.3288
31132SOL     OW 3709   8.027   5.558   4.233  0.2149  0.0814  0.3114
31132SOL    HW1 3710   8.019   5.651   4.257  0.1769 -0.0295  0.7231
31132SOL    HW2 3711   8.072   5.560   4.148  0.1705  0.4792  0.2931
31133SOL     OW 3712   5.232   7.239   5.682  0.3619 -0.1040  0.6801
31133SOL    HW1 3713   5.323   7.257   5.660 -0.3927  0.7593 -2.0928
31133SOL    HW2 3714   5.180   7.292   5.621 -2.0107 -1.2177  1.5711
31134SOL     OW 3715   4.505   6.250   8.163  0.2244 -0.5824  0.3740
31134SOL    HW1 3716   4.520   6.208   8.078  1.0077 -0.0110  0.2131
31134SOL    HW2 3717   4.581   6.306   8.175 -0.9325  1.0290  0.4468
31135SOL     OW 3718  10.939   7.295   2.378  0.4094 -0.5954 -0.1126
31135SOL    HW1 3719  10.926   7.339   2.295  0.8560 -0.7593 -0.2744
31135SOL    HW2 3720  11.026   7.254   2.370 -0.8374 -3.3369 -0.8188
31136SOL     OW 3721  10.832   6.504   8.170 -0.1760  0.0623 -0.3823
31136SOL    HW1 3722  10.748   6.508   8.125  0.1702  1.6918 -0.9545
31136SOL    HW2 3723  10.851   6.410   8.177 -1.8982 -0.3291 -0.4701
31137SOL     OW 3724   5.668   2.824   8.546 -0.0787 -0.4878  0.5957
31137SOL    HW1 3725   5.761   2.820   8.569  0.8419  0.9869 -2.3453
31137SOL    HW2 3726   5.630   2.886   8.609  0.6645 -1.7731  2.3857
31138SOL     OW 3727   6.491   1.184   6.149 -0.4956  0.6565 -0.2268
31138SOL    HW1 3728   6.400   1.155   6.156 -0.0933 -1.4178 -2.1697
31138SOL    HW2 3729   6.542   1.104   6.163  1.0867  1.8495  1.1738
31139SOL     OW 3730   4.239   4.178  10.235 -0.1614 -0.2640  0.4896
31139SOL    HW1 3731   4.197   4.257  10.270  0.7156  0.5724 -0.2828
31139SOL    HW2 3732   4.271   4.132  10.313 -1.0447 -0.0737  0.9758
31140SOL     OW 3733  10.963   3.335   6.585  0.1434  0.6216 -0.3640
31140SOL    HW1 3734  11.050   3.357   6.550 -0.5188  2.3895 -0.9804
31140SOL    HW2 3735  10.905   3.403   6.551 -0.9026  1.4513  2.7562
31141SOL     OW 3736   5.058   6.585   1.187 -0.7969  0.2964  0.0114
31141SOL    HW1 3737   5.126   6.652   1.199 -1.7107  1.3348 -0.4186
31141SOL    HW2 3738   5.107   6.503   1.177  0.2917  0.5777  2.3517
31142SOL     OW 3739   5.345   4.353   3.430  0.3231  0.5414 -0.1344
31142SOL    HW1 3740   5.321   4.435   3.472  1.0081 -0.3337  2.1202
31142SOL    HW2 3741   5.378   4.379   3.344 -0.7268  2.4739 -0.0105
31143SOL     OW 3742  11.568  10.005   4.938 -0.1940  0.0100 -1.1838
31143SOL    HW1 3743  11.520  10.087   4.951  3.0761  2.0462 -0.7259
31143SOL    HW2 3744  11.580   9.969   5.026 -0.7461 -0.4236 -1.2826
31144SOL     OW 3745   4.618   7.890   2.178  0.4688  0.7516  0.0955
31144SOL    HW1 3746   4.685   7.919   2.240 -1.2932  1.9810  1.5626
31144SOL    HW2 3747   4.619   7.957   2.109  2.4933 -0.6644 -1.3683
31145SOL     OW 3748  10.520   6.455   4.047 -0.2620  0.0504  0.2576
31145SOL    HW1 3749  10.562   6.454   3.961 -1.0491 -1.2961 -0.1507
31145SOL    HW2 3750  10.547   6.372   4.087 -1.3133 -0.1385  0.5911
31146SOL     OW 3751   9.586  12.373   3.995 -0.4338 -0.1733  0.0874
31146SOL    HW1 3752   9.586  12.318   4.073 -2.2437 -1.1858 -0.5832
31146SOL    HW2 3753   9.498  12.411   3.992 -0.4315 -0.2193 -1.4880
31147SOL     OW 3754   3.297   6.017   3.559 -0.1115 -0.0922 -0.0884
31147SOL    HW1 3755   3.386   6.051   3.559  0.3112 -1.1492 -1.2524
31147SOL    HW2 3756   3.254   6.062   3.632 -0.0373  4.0977 -2.3201
31148SOL     OW 3757   1.129  10.151   2.213 -0.1616  0.9377 -0.0663
31148SOL    HW1 3758   1.130  10.240   2.179 -1.5323  0.9084 -0.2500
31148SOL    HW2 3759   1.064  10.154   2.284 -2.2884 -0.4804 -1.8125
31149SOL     OW 3760   6.073   6.018   3.702 -0.3326  0.0176  0.2033
31149SOL    HW1 3761   6.154   5.989   3.745 -1.3271 -0.1395  2.0762
31149SOL    HW2 3762   6.075   6.113   3.708  0.1422  0.0660 -0.6074
31150SOL     OW 3763  12.872   1.582   4.542  0.0504 -0.0386 -0.4874
31150SOL    HW1 3764  12.802   1.542   4.490  0.2392 -0.7492 -0.2017
31150SOL    HW2 3765  12.938   1.513   4.551  0.9528  0.7330 -1.0495
31151SOL     OW 3766   8.857   5.033   1.863  0.1813 -0.5517  0.7200
31151SOL    HW1 3767   8.784   5.001   1.812 -0.6649  0.6195  1.1433
31151SOL    HW2 3768   8.818   5.096   1.924  1.3617 -0.8148  1.7933
31152SOL     OW 3769   0.211   5.785  10.690 -0.1290 -0.4680  0.2655
31152SOL    HW1 3770   0.134   5.820  10.736  0.6434 -0.9109  2.0076
31152SOL    HW2 3771   0.202   5.816  10.600 -1.2512  1.2674  0.9223
31153SOL     OW 3772   8.245   0.935   3.818  0.1146 -0.3258 -0.0061
31153SOL    HW1 3773   8.229   1.029   3.819  1.1832 -0.1074 -0.9713
31153SOL    HW2 3774   8.249   0.910   3.910 -1.7619  0.2635  0.2722
31154SOL     OW 3775   1.237   0.144   2.100  0.1696  0.1911  0.0767
31154SOL    HW1 3776   1.185   0.064   2.098  1.4793 -0.7345  1.4018
31154SOL    HW2 3777   1.181   0.208   2.145 -0.9963  0.1450 -1.2451
31155SOL     OW 3778  10.764   2.241   4.460  0.0817  0.4103 -0.3081
31155SOL    HW1 3779  10.699   2.310   4.475  0.7571  0.4951  3.0804
31155SOL    HW2 3780  10.727   2.164   4.503  0.9972 -0.3052 -0.7646
31156SOL     OW 3781   3.560   5.376  11.023 -0.0428  0.3836  0.0838
31156SOL    HW1 3782   3.548   5.319  11.099 -1.4848  0.1728 -0.2578
31156SOL    HW2 3783   3.530   5.462  11.053 -0.8713  0.2400 -0.3037
31157SOL     OW 3784   9.410   3.132   7.121 -0.1001 -0.5040  0.2497
31157SOL    HW1 3785   9.324   3.098   7.147 -1.9776  1.8397 -2.3085
31157SOL    HW2 3786   9.406   3.225   7.142  0.9285  0.0797 -1.8377
31158SOL     OW 3787   0.950   8.441   9.374 -0.5885 -0.5098 -0.4703
31158SOL    HW1 3788   0.957   8.491   9.455  0.0948 -1.2636 -0.0393
31158SOL    HW2 3789   1.030   8.387   9.373  0.7038  1.2674 -2.8781
31159SOL     OW 3790   3.978  11.130   1.952 -0.1525 -0.0864 -0.2608
31159SOL    HW1 3791   4.034  11.099   2.022 -0.7966 -0.7488 -0.0270
31159SOL    HW2 3792   4.038  11.159   1.883  0.4910  1.0024  0.7251
31160SOL     OW 3793   6.911   3.224   0.692 -0.1676  0.5885 -0.2726
31160SOL    HW1 3794   6.976   3.185   0.750 -1.5237  0.7209  1.4169
31160SOL    HW2 3795   6.832   3.170   0.704 -0.7641  1.2013 -1.2784
31161SOL     OW 3796  12.528   5.255  10.549 -0.7162  0.4102 -0.2705
31161SOL    HW1 3797  12.479   5.226  10.626 -0.5482  0.8943  0.0246
31161SOL    HW2 3798  12.598   5.191  10.540  0.2923  1.2969  1.0118
31162SOL     OW 3799  10.107   5.657   3.494 -0.4855 -0.4531  0.4760
31162SOL    HW1 3800  10.163   5.603   3.550  0.3492  1.2610  1.3848
31162SOL    HW2 3801  10.133   5.635   3.405 -0.5024 -1.8760  0.8083
31163SOL     OW 3802   7.571   6.677   8.086  0.1587 -0.2966  0.2419
31163SOL    HW1 3803   7.482   6.677   8.120 -0.7974 -0.3036 -2.1078
31163SOL    HW2 3804   7.620   6.731   8.148 -1.3602 -0.5909  1.7787
31164SOL     OW 3805  10.048   9.138   4.954 -0.1660  0.3476 -0.0624
31164SOL    HW1 3806  10.073   9.055   4.915  3.0748  0.3086  1.7746
31164SOL    HW2 3807  10.098   9.204   4.905 -1.5950  1.1194 -0.5568
31165SOL     OW 3808   3.867   2.425   2.675  0.0619 -0.5825  0.3822
31165SOL    HW1 3809   3.937   2.414   2.610 -0.0613 -0.1888  0.1755
31165SOL    HW2 3810   3.875   2.517   2.703 -0.7516 -0.3623 -0.0845
31166SOL     OW 3811  10.500  11.246   8.823  0.0931  0.3462  0.5535
31166SOL    HW1 3812  10.512  11.340   8.833 -1.9651  0.5908  1.3217
31166SOL    HW2 3813  10.447  11.236   8.744  0.2425 -0.1618  0.5117
31167SOL     OW 3814   5.847   6.761   7.015  0.3156  0.0583 -0.6313
31167SOL    HW1 3815   5.820   6.815   6.941 -0.2066  1.6263  0.6421
31167SOL    HW2 3816   5.938   6.787   7.032  0.4494 -0.3327 -0.7332
31168SOL     OW 3817  11.148   7.278   0.089  0.3983  0.4823 -0.2038
31168SOL    HW1 3818  11.087   7.227   0.036  1.4546  0.7974 -1.7748
31168SOL    HW2 3819  11.096   7.306   0.164 -0.7701 -1.1184 -0.3588
31169SOL     OW 3820   4.430  12.160   6.092 -0.0353 -0.4336 -0.5615
31169SOL    HW1 3821   4.457  12.120   6.009  1.9055  0.5843 -0.4679
31169SOL    HW2 3822   4.350  12.113   6.115  0.0353 -1.5809 -2.3889
31170SOL     OW 3823  12.786   4.413  12.835 -0.3422 -0.1172  0.3878
31170SOL    HW1 3824  12.728   4.344  12.866 -0.4597  0.2618  1.0162
31170SOL    HW2 3825  12.759   4.491  12.883  1.8437 -0.3068  2.0922
31171SOL     OW 3826  10.986   0.872   4.936 -0.5506  0.4423  0.0822
31171SOL    HW1 3827  10.908   0.880   4.881 -0.5532  1.6839  0.2311
31171SOL    HW2 3828  11.057   0.851   4.875 -0.6257  1.4021 -0.3476
31172SOL     OW 3829   1.880   7.739   9.854  0.2502  0.1554 -0.1375
31172SOL    HW1 3830   1.836   7.822   9.837  0.3075  0.3522  0.6286
31172SOL    HW2 3831   1.973   7.758   9.841  0.4034  0.5923  1.3676
31173SOL     OW 3832   5.661   8.406   4.675  0.0911  0.2273  0.4960
31173SOL    HW1 3833   5.609   8.326   4.683 -1.3298  0.8830 -1.3269
31173SOL    HW2 3834   5.612   8.472   4.724 -0.6850  0.7617 -0.9279
31174SOL     OW 3835   5.402   1.710  11.808 -0.3005 -0.0271  0.0222
31174SOL    HW1 3836   5.326   1.719  11.750  1.3811 -1.2552 -2.5631
31174SOL    HW2 3837   5.381   1.633  11.862 -0.6676 -0.7594 -1.1149
31175SOL     OW 3838  11.747  11.027   0.325  0.7893  1.0627  0.1042
31175SOL    HW1 3839  11.784  10.976   0.396  1.7479  1.9610  0.2854
31175SOL    HW2 3840  11.782  11.116   0.338 -1.4399  1.9859  0.2768
31176SOL     OW 3841   6.239   2.892   4.900 -0.1177 -0.0037  0.5712
31176SOL    HW1 3842   6.152   2.854   4.911 -0.0471 -0.1254  0.7096
31176SOL    HW2 3843   6.260   2.876   4.808  0.0851 -0.6691  0.7321
31177SOL     OW 3844   6.161   1.409   8.092  0.3197 -0.1235  0.1683
31177SOL    HW1 3845   6.170   1.501   8.066  3.7798  0.0211  1.3504
31177SOL    HW2 3846   6.107   1.370   8.024 -0.3680  2.5382 -0.9461
31178SOL     OW 3847  10.956   6.593   5.025  0.5866 -0.0218 -0.0266
31178SOL    HW1 3848  10.969   6.611   5.119 -1.2988 -1.0778  0.4793
31178SOL    HW2 3849  11.035   6.545   5.000  1.5612  1.0883  0.7518
31179SOL     OW 3850   2.533   9.484   4.315  0.6481  0.3212 -0.2849
31179SOL    HW1 3851   2.475   9.497   4.240 -0.7256  0.3604  0.7497
31179SOL    HW2 3852   2.554   9.573   4.345 -0.1887  0.2963  0.3971
31180SOL     OW 3853  11.730   0.239  12.287  0.2928  0.2879  0.0355
31180SOL    HW1 3854  11.645   0.234  12.331  0.4240  0.4052  0.3044
31180SOL    HW2 3855  11.782   0.170  12.329  0.5512  0.6731  0.3539
31181SOL     OW 3856   5.083   6.658  10.969  0.9583 -0.1210 -0.4499
31181SOL    HW1 3857   5.087   6.719  10.896  1.9196 -0.0873 -0.3783
31181SOL    HW2 3858   5.054   6.576  10.930 -0.5121  0.4025 -0.5182
31182SOL     OW 3859   8.104   9.387   2.373  0.1411  0.3590  0.6561
31182SOL    HW1 3860   8.037   9.337   2.327 -0.9144  0.9784  1.4882
31182SOL    HW2 3861   8.134   9.329   2.443  1.3211 -0.3539 -0.4011
31183SOL     OW 3862  11.104   2.931   3.849  0.2059 -0.4033  0.0199
31183SOL    HW1 3863  11.111   2.850   3.799  0.8778 -0.5983  0.4101
31183SOL    HW2 3864  11.087   2.998   3.783  1.2399 -0.6289 -0.5067
31184SOL     OW 3865   2.773   1.691   4.481 -0.5758 -0.6632 -0.2429
31184SOL    HW1 3866   2.845   1.710   4.421  0.0467  0.1977  0.7576
31184SOL    HW2 3867   2.755   1.598   4.467 -0.8510 -0.3589 -2.1769
31185SOL     OW 3868   1.414   9.443  11.226 -0.3192 -0.1485 -0.1452
31185SOL    HW1 3869   1.368   9.521  11.257  0.2669 -0.1791  0.8547
31185SOL    HW2 3870   1.344   9.381  11.203 -0.7806  0.4789 -0.4594
31186SOL     OW 3871   4.489   9.218   5.382 -0.6072  0.6134  0.3566
31186SOL    HW1 3872   4.451   9.130   5.378  1.6515 -0.4169 -1.2139
31186SOL    HW2 3873   4.554   9.213   5.453 -0.0997  0.8193 -0.0815
31187SOL     OW 3874  11.907  12.676   1.569 -0.4863 -0.3163  1.0504
31187SOL    HW1 3875  11.868  12.719   1.645  0.6395  1.3594  0.7284
31187SOL    HW2 3876  11.994  12.650   1.599  0.9525  2.5375 -0.2436
31188SOL     OW 3877   8.170  11.350   4.507 -0.3822 -0.3425 -0.3199
31188SOL    HW1 3878   8.093  11.396   4.474 -1.4382 -1.4226  0.5497
31188SOL    HW2 3879   8.220  11.327   4.428 -0.6137  0.9251 -0.8556
31189SOL     OW 3880  12.748   6.499   7.976  0.2777 -0.0828  0.5670
31189SOL    HW1 3881  12.811   6.504   7.904  0.7082 -0.5343  0.9086
31189SOL    HW2 3882  12.794   6.453   8.046 -0.7246 -1.1959  0.5245
31190SOL     OW 3883   0.641   8.257  10.408  0.3358  0.1858  0.1657
31190SOL    HW1 3884   0.574   8.325  10.414 -0.8022 -0.8972  0.3604
31190SOL    HW2 3885   0.713   8.289  10.462 -0.3818  0.9919  0.6763
31191SOL     OW 3886   3.682   6.017   8.576 -0.4413 -0.3747  0.2855
31191SOL    HW1 3887   3.736   6.010   8.654  1.2463  0.9202 -0.6858
31191SOL    HW2 3888   3.597   6.049   8.608 -0.2259 -1.1642  1.7066
31192SOL     OW 3889   3.918   8.852   1.827  0.0971  0.6754  0.1751
31192SOL    HW1 3890   3.830   8.886   1.811  0.9761  2.4169 -1.3434
31192SOL    HW2 3891   3.921   8.837   1.921 -1.1221  2.7305  0.6010
31193SOL     OW 3892  10.881  11.865   0.153 -0.6716  0.5649  0.8652
31193SOL    HW1 3893  10.909  11.951   0.184  1.0473  0.9584 -1.5505
31193SOL    HW2 3894  10.788  11.876   0.132 -0.3307  2.0458  0.0021
31194SOL     OW 3895   6.424  10.617   2.135 -0.2285 -0.3095  0.2740
31194SOL    HW1 3896   6.349  10.566   2.167 -0.8547  0.0769 -0.5539
31194SOL    HW2 3897   6.413  10.621   2.041  0.3448  0.5323  0.2286
31195SOL     OW 3898   5.552   1.470   6.463  0.0445  0.5353 -0.1704
31195SOL    HW1 3899   5.543   1.546   6.520 -0.2411  1.6516 -1.6187
31195SOL    HW2 3900   5.634   1.428   6.490  0.1166  1.2615  0.7599
31196SOL     OW 3901   9.426  12.528  12.645 -0.7707  0.3868 -0.3309
31196SOL    HW1 3902   9.442  12.443  12.605 -2.0933 -0.3887  0.6781
31196SOL    HW2 3903   9.508  12.552  12.687  0.0551  0.3228 -1.8638
31197SOL     OW 3904   9.754   0.109   6.030 -0.4282  0.0250  0.1299
31197SOL    HW1 3905   9.735   0.020   5.999  1.8661 -0.3487 -0.4065
31197SOL    HW2 3906   9.783   0.155   5.952 -0.2704  0.8523  0.6712
31198SOL     OW 3907  12.298   1.151   7.238 -0.4042  0.4044  0.0292
31198SOL    HW1 3908  12.318   1.226   7.182 -0.5280  0.9726  0.7173
31198SOL    HW2 3909  12.337   1.174   7.323 -2.5775  0.8668  0.9753
31199SOL     OW 3910  10.238   7.699   4.260  0.0009 -0.0022 -0.3737
31199SOL    HW1 3911  10.273   7.644   4.330  3.1025 -0.1769 -1.8993
31199SOL    HW2 3912  10.244   7.788   4.294  1.1901 -0.1124 -0.2576
31200SOL     OW 3913   9.839   9.865  11.789 -0.4020  0.5776 -0.1109
31200SOL    HW1 3914   9.891   9.854  11.869  0.5705  0.1599 -0.7887
31200SOL    HW2 3915   9.756   9.904  11.820  0.4150  1.5528  0.9492
31201SOL     OW 3916   3.209   7.020   9.879  0.2924 -0.6832 -0.0319
31201SOL    HW1 3917   3.211   7.104   9.833  1.0922 -0.5046  0.3121
31201SOL    HW2 3918   3.116   6.998   9.884  0.1500 -0.3957 -1.1569
31202SOL     OW 3919   3.678  11.637   8.212 -0.1744  0.7336 -0.1708
31202SOL    HW1 3920   3.656  11.724   8.244  2.2263  1.4965 -0.3798
31202SOL    HW2 3921   3.767  11.621   8.244  0.2074 -0.7831 -1.7961
31203SOL     OW 3922   9.890   7.609   7.780 -0.1899 -0.0710  0.1008
31203SOL    HW1 3923   9.847   7.602   7.695 -0.2588 -2.3435  0.2580
31203SOL    HW2 3924   9.821   7.637   7.840 -1.1118 -2.1102  0.0565
31204SOL     OW 3925   4.410   1.364   9.707 -0.0837  0.1731  0.5452
31204SOL    HW1 3926   4.438   1.278   9.739 -0.8615 -0.3056 -0.0068
31204SOL    HW2 3927   4.316   1.354   9.692 -0.2824  1.2784  0.9495
31205SOL     OW 3928   1.504   3.844   5.466  1.3505 -0.1062 -0.0614
31205SOL    HW1 3929   1.513   3.771   5.405 -1.4108 -1.9064  1.4459
31205SOL    HW2 3930   1.463   3.914   5.414 -0.1692 -1.3025 -0.5488
31206SOL     OW 3931   1.873   9.166   6.803  0.0567 -0.0679 -0.1732
31206SOL    HW1 3932   1.860   9.255   6.837 -1.8493  0.4953 -2.1193
31206SOL    HW2 3933   1.890   9.113   6.881  4.4968  2.3731  0.8465
31207SOL     OW 3934   6.996   1.969  11.686 -0.2840 -0.1013  0.1097
31207SOL    HW1 3935   6.998   2.044  11.627 -2.3836  0.3895  0.5765
31207SOL    HW2 3936   7.084   1.965  11.723  0.4076  0.9632 -1.3291
31208SOL     OW 3937   9.396   5.088   7.970  0.2346 -0.7740 -0.2177
31208SOL    HW1 3938   9.382   5.004   8.013  1.5210 -0.6603  0.4578
31208SOL    HW2 3939   9.487   5.110   7.989 -0.4004  1.3385  0.6638
31209SOL     OW 3940   3.170   9.894   2.888  0.2479 -0.8121  0.5334
31209SOL    HW1 3941   3.157   9.979   2.930  1.1284 -0.4322  0.0604
31209SOL    HW2 3942   3.084   9.871   2.854 -0.0481 -0.2240  0.8640
31210SOL     OW 3943  11.520  10.993   9.205  0.1389  0.2343  0.2376
31210SOL    HW1 3944  11.525  10.902   9.177  0.6040 -0.2047  1.6704
31210SOL    HW2 3945  11.514  11.043   9.124  0.4887 -1.0289 -0.5872
31211SOL     OW 3946   7.591   3.335   1.274  0.5318 -0.3767  0.1978
31211SOL    HW1 3947   7.677   3.294   1.261  1.3303  1.4610 -0.8301
31211SOL    HW2 3948   7.611   3.428   1.286 -1.2924  0.0040  0.5899
31212SOL     OW 3949   1.583   4.084   3.426  0.0759  0.0868  0.1518
31212SOL    HW1 3950   1.598   4.148   3.356  0.5355  0.5010  0.6196
31212SOL    HW2 3951   1.501   4.112   3.467 -1.4160 -1.4113 -1.5619
31213SOL     OW 3952   0.727   2.888   5.001  0.7454  0.2917 -0.2641
31213SOL    HW1 3953   0.766   2.975   5.009  1.1623  0.0931 -0.1282
31213SOL    HW2 3954   0.790   2.838   4.949  2.0114 -0.8453  2.2371
31214SOL     OW 3955  11.827   9.366  10.104  0.2478  0.7398  0.7291
31214SOL    HW1 3956  11.858   9.298  10.164 -2.4322 -0.4126  0.9423
31214SOL    HW2 3957  11.898   9.377  10.041  1.2043 -1.4978  1.3221
31215SOL     OW 3958   2.422   2.430  11.425 -0.7117  0.2881  0.4483
31215SOL    HW1 3959   2.489   2.371  11.459  0.3240  0.9269 -0.4271
31215SOL    HW2 3960   2.413   2.405  11.333 -0.7432  1.0406  0.2379
31216SOL     OW 3961   5.397   8.501   4.071 -0.1881 -0.2426 -0.0703
31216SOL    HW1 3962   5.486   8.499   4.035  0.3708  1.4118  1.0728
31216SOL    HW2 3963   5.407   8.472   4.162 -1.3713 -3.1208 -0.7552
31217SOL     OW 3964   1.616   2.851   5.263  0.2016 -0.5257 -0.1429
31217SOL    HW1 3965   1.595   2.763   5.294  0.1958 -0.7725 -0.8224
31217SOL    HW2 3966   1.669   2.889   5.333 -1.4892 -0.3238  1.0947
31218SOL     OW 3967  10.918   6.700  12.740  0.5546 -0.1861 -0.5475
31218SOL    HW1 3968  10.938   6.745  12.658  0.3047  2.1575  0.5822
31218SOL    HW2 3969  10.880   6.768  12.795 -1.4518 -2.2332  0.7410
31219SOL     OW 3970   2.404   1.456   1.931  0.0869  0.5318 -0.2579
31219SOL    HW1 3971   2.453   1.418   2.004 -1.6388 -2.6344 -0.5972
31219SOL    HW2 3972   2.363   1.382   1.887 -0.6951  2.5216 -3.2138
31220SOL     OW 3973   0.637   2.476   9.625  0.4679  0.3295 -0.4125
31220SOL    HW1 3974   0.604   2.512   9.708  2.6195 -1.7663  1.4904
31220SOL    HW2 3975   0.570   2.414   9.598  1.2790 -1.6592  1.7909
31221SOL     OW 3976  12.950  10.013   9.858  0.5449  0.2591  0.4142
31221SOL    HW1 3977  12.888  10.012   9.785 -0.1702 -2.4636  0.9408
31221SOL    HW2 3978  12.898  10.039   9.934  0.8433  1.1997  0.3069
31222SOL     OW 3979   5.115   8.564   2.655  0.3789  0.1116  0.3384
31222SOL    HW1 3980   5.152   8.496   2.599  0.0543  0.3852 -0.2163
31222SOL    HW2 3981   5.191   8.610   2.691  0.7064  2.4327 -2.8903
31223SOL     OW 3982   8.388   0.540   1.089  0.1375 -0.7867 -0.5372
31223SOL    HW1 3983   8.468   0.587   1.066  0.3140 -0.4863  0.6196
31223SOL    HW2 3984   8.342   0.528   1.006  0.9840 -0.2194 -1.1002
31224SOL     OW 3985   1.270   2.546   6.835  0.3306  1.0168 -0.0701
31224SOL    HW1 3986   1.303   2.584   6.917  0.9591 -0.0584  0.2068
31224SOL    HW2 3987   1.236   2.460   6.861  0.1503  0.8376 -0.8679
31225SOL     OW 3988   4.934   0.563  11.643  0.2548 -0.1207 -0.2184
31225SOL    HW1 3989   4.921   0.611  11.561  0.6055  2.4764  1.1410
31225SOL    HW2 3990   4.847   0.557  11.681  0.2969 -0.0559 -0.1144
31226SOL     OW 3991   2.485   5.709  12.955  0.4742  0.0660 -0.6183
31226SOL    HW1 3992   2.403   5.743  12.991  0.3488 -0.7362 -0.1367
31226SOL    HW2 3993   2.459   5.669  12.872 -0.0372 -2.2077  0.5742
31227SOL     OW 3994   2.153  10.895   1.560  0.6182  0.1855 -0.2598
31227SOL    HW1 3995   2.074  10.851   1.591  1.2025  0.1144  1.1741
31227SOL    HW2 3996   2.215  10.889   1.632  1.7941  0.6416 -1.1879
31228SOL     OW 3997  12.536   2.385   2.646 -0.3008 -0.7770 -0.0229
31228SOL    HW1 3998  12.512   2.303   2.690 -0.7849 -0.4409  0.3543
31228SOL    HW2 3999  12.629   2.374   2.626 -0.0018 -0.8718  1.2705
31229SOL     OW 4000   2.399   4.906  10.098 -0.4857  0.2803 -0.1797
31229SOL    HW1 4001   2.366   4.838  10.039 -1.9108  0.8100 -0.0423
31229SOL    HW2 4002   2.374   4.876  10.186  1.7474 -0.5735  0.2288
31230SOL     OW 4003  12.832   1.678  11.474  0.6925 -0.4214 -0.2520
31230SOL    HW1 4004  12.737   1.673  11.490  0.8699  1.5540  1.8849
31230SOL    HW2 4005  12.858   1.762  11.510  3.4274 -1.2783 -0.0238
31231SOL     OW 4006   9.231  10.735   7.508 -0.2025  0.0355 -0.1100
31231SOL    HW1 4007   9.212  10.828   7.515 -0.8012 -0.1388  0.7638
31231SOL    HW2 4008   9.257  10.722   7.417 -2.3391  0.6556 -0.8665
31232SOL     OW 4009   5.065   9.805   0.910 -0.4769 -0.1724  0.3700
31232SOL    HW1 4010   5.086   9.844   0.824 -3.6796  1.4497  0.1564
31232SOL    HW2 4011   5.021   9.875   0.957 -3.1996 -2.4211  1.4433
31233SOL     OW 4012   4.641   2.096  11.787 -0.2706 -0.3299  0.0342
31233SOL    HW1 4013   4.603   2.042  11.857 -0.6476 -0.4707 -0.2736
31233SOL    HW2 4014   4.734   2.074  11.787 -0.5309 -1.5102 -0.5487
31234SOL     OW 4015  12.001   8.496  12.374 -0.4621 -0.5676  0.2223
31234SOL    HW1 4016  12.068   8.552  12.335 -1.2375 -0.8108 -1.5844
31234SOL    HW2 4017  11.989   8.531  12.462  2.0092 -0.5343  0.6284
31235SOL     OW 4018   3.652   8.398   5.388  0.5681 -0.8436  0.5913
31235SOL    HW1 4019   3.625   8.329   5.327 -0.7256  1.7271 -2.0572
31235SOL    HW2 4020   3.600   8.382   5.467  2.3282 -4.3491  1.2379
31236SOL     OW 4021   0.604   7.317  12.316 -0.1927  0.1059  0.1918
31236SOL    HW1 4022   0.584   7.329  12.223 -0.2834 -0.9490  0.0537
31236SOL    HW2 4023   0.538   7.368  12.362 -0.2599  0.4879 -0.3218
31237SOL     OW 4024   1.851  10.001   3.229 -0.2556 -0.0768  0.5356
31237SOL    HW1 4025   1.780   9.984   3.168 -0.4770 -3.1165  1.4878
31237SOL    HW2 4026   1.813   9.987   3.316  1.1841 -0.5302  1.1303
31238SOL     OW 4027  10.626   2.290   5.933 -0.3000 -0.2331 -0.4225
31238SOL    HW1 4028  10.702   2.339   5.964 -0.5731  1.0327 -1.6487
31238SOL    HW2 4029  10.619   2.216   5.993  2.4247 -0.8985 -0.7761
31239SOL     OW 4030  12.891   7.244  11.202 -0.3603  0.3217  0.2923
31239SOL    HW1 4031  12.823   7.182  11.228 -0.8118  0.4938 -0.4103
31239SOL    HW2 4032  12.862   7.328  11.239 -1.9733  0.9551 -2.1162
31240SOL     OW 4033   1.797   6.269   8.889  0.4002 -0.6327 -0.2846
31240SOL    HW1 4034   1.806   6.364   8.890 -2.2839 -0.2728 -1.4842
31240SOL    HW2 4035   1.851   6.240   8.816  0.2292  0.1256 -0.7186
31241SOL     OW 4036  12.566   9.615   0.586 -0.8586 -0.4028 -0.1598
31241SOL    HW1 4037  12.495   9.588   0.645  0.5488 -2.3239  0.7136
31241SOL    HW2 4038  12.644   9.618   0.642  0.4478 -1.9259 -1.8177
31242SOL     OW 4039   3.324   7.075   0.327 -0.3065  0.0017 -0.7364
31242SOL    HW1 4040   3.229   7.069   0.329 -0.2548 -1.0445  1.6428
31242SOL    HW2 4041   3.342   7.167   0.307 -1.8107  0.3394 -0.6487
31243SOL     OW 4042  12.827  11.522  12.255  0.5643  0.0465  0.8030
31243SOL    HW1 4043  12.888  11.490  12.189 -0.0199 -0.2309  0.3922
31243SOL    HW2 4044  12.757  11.564  12.205  0.5906  0.6828  1.2793
31244SOL     OW 4045  11.945  12.639   9.936 -0.0202  0.0146  0.2137
31244SOL    HW1 4046  11.877  12.662  10.000 -0.6251 -0.2095 -0.3440
31244SOL    HW2 4047  11.987  12.723   9.915  0.1726  0.0925  0.8839
31245SOL     OW 4048   6.572  12.762   0.419  0.5088 -0.1481 -0.3460
31245SOL    HW1 4049   6.584  12.752   0.325 -0.4579  0.0043 -0.4903
31245SOL    HW2 4050   6.518  12.841   0.429  1.0814  0.1714  0.3685
31246SOL     OW 4051  10.353  11.569   6.490  0.1304  0.2708  0.0713
31246SOL    HW1 4052  10.307  11.636   6.541 -0.1744  0.9881 -1.1020
31246SOL    HW2 4053  10.331  11.590   6.399  0.6354 -0.9895 -0.3544
31247SOL     OW 4054   2.728   1.780  11.137  0.3625  0.4956 -0.2777
31247SOL    HW1 4055   2.777   1.804  11.215 -1.3322  2.6017  0.2642
31247SOL    HW2 4056   2.734   1.857  11.080  0.5143 -0.5143 -1.6775
31248SOL     OW 4057   6.504  11.258   2.193 -0.5354 -0.6583  0.3901
31248SOL    HW1 4058   6.517  11.219   2.107 -0.9764  0.6588 -0.2904
31248SOL    HW2 4059   6.579  11.316   2.205 -1.5083  0.7432 -0.0312
31249SOL     OW 4060  11.219   9.222   0.673 -0.0434 -0.5742  0.1363
31249SOL    HW1 4061  11.300   9.185   0.637  2.3230  1.9131  2.4946
31249SOL    HW2 4062  11.221   9.200   0.766 -1.1827  0.9987  0.5742
31250SOL     OW 4063   4.294   4.790   5.453 -0.0486 -0.6072 -0.2178
31250SOL    HW1 4064   4.375   4.816   5.409 -0.5670 -1.8503 -1.9763
31250SOL    HW2 4065   4.322   4.725   5.518  0.5090 -0.0446  0.1149
31251SOL     OW 4066  12.520  11.464   2.942  0.7145  0.1337  0.0810
31251SOL    HW1 4067  12.586  11.398   2.963  1.7818  1.0588 -0.3230
31251SOL    HW2 4068  12.450  11.414   2.898  2.1611 -0.5437 -1.5883
31252SOL     OW 4069   0.424  10.793  10.802 -0.1767 -0.5193  0.6582
31252SOL    HW1 4070   0.388  10.711  10.836  0.9074 -0.9163  0.8724
31252SOL    HW2 4071   0.517  10.788  10.820  0.1878 -0.0218 -0.9295
31253SOL     OW 4072   6.699  10.459   1.110  0.5546  0.3957 -0.3115
31253SOL    HW1 4073   6.612  10.499   1.114 -0.4159 -1.5103 -1.4924
31253SOL    HW2 4074   6.710  10.418   1.196 -0.2274 -0.3779 -0.5732
31254SOL     OW 4075  11.827   1.270   9.918 -0.1638 -0.0678 -0.2734
31254SOL    HW1 4076  11.856   1.194   9.967  0.6853  1.1447  1.1942
31254SOL    HW2 4077  11.895   1.284   9.852  0.2139  0.0293  0.1358
31255SOL     OW 4078   1.473   8.872   4.355 -0.3775  0.0399  0.1935
31255SOL    HW1 4079   1.535   8.939   4.327  1.5951 -2.5232 -2.1023
31255SOL    HW2 4080   1.403   8.876   4.290  0.4982 -1.0150 -0.8658
31256SOL     OW 4081   3.693   1.422   7.325 -0.1488  0.3865 -0.4311
31256SOL    HW1 4082   3.701   1.334   7.362 -0.3763  0.8856  0.8662
31256SOL    HW2 4083   3.602   1.447   7.343 -0.7689  0.0527 -2.7805
31257SOL     OW 4084  11.470   9.671  10.196  0.0991  0.0505 -1.1812
31257SOL    HW1 4085  11.489   9.638  10.283 -0.9084 -0.5850 -1.1871
31257SOL    HW2 4086  11.552   9.710  10.166  0.4468  0.2785  0.0439
31258SOL     OW 4087  11.320   2.258   7.225  0.0971  0.2992  0.6387
31258SOL    HW1 4088  11.381   2.269   7.298  1.1571  1.1992 -0.3407
31258SOL    HW2 4089  11.368   2.203   7.163 -1.4657 -1.9787  1.3280
31259SOL     OW 4090  10.815  11.869   6.062  0.1932 -0.6495 -0.8655
31259SOL    HW1 4091  10.873  11.896   5.990 -0.1046  3.4739  0.1630
31259SOL    HW2 4092  10.875  11.833   6.128  1.0398 -0.5356 -1.5500
31260SOL     OW 4093  10.829   7.225   1.431 -0.0791 -0.0987  0.2378
31260SOL    HW1 4094  10.751   7.195   1.478 -0.3824  0.1383 -0.1186
31260SOL    HW2 4095  10.868   7.144   1.396 -0.2401 -0.2024  0.2967
31261SOL     OW 4096  12.152   5.864   1.213  0.7430  0.0238 -0.0754
31261SOL    HW1 4097  12.219   5.843   1.149 -0.1698  0.4826 -1.2213
31261SOL    HW2 4098  12.128   5.780   1.252  1.5407 -0.2179 -0.0875
31262SOL     OW 4099   0.620   9.420   6.735  0.1047 -0.3201 -0.1784
31262SOL    HW1 4100   0.620   9.339   6.684  0.8232 -1.3939  1.4337
31262SOL    HW2 4101   0.575   9.483   6.679 -0.1106 -1.7064 -1.6632
31263SOL     OW 4102   1.295  10.355   4.673  0.2867  0.0339  0.1049
31263SOL    HW1 4103   1.210  10.394   4.651  0.0128 -0.2247  0.6911
31263SOL    HW2 4104   1.348  10.428   4.706  0.8301  0.5080 -1.7056
31264SOL     OW 4105   9.374   6.832   1.388 -0.0212  0.2322 -0.3819
31264SOL    HW1 4106   9.431   6.789   1.452 -0.8207 -0.3261 -0.0273
31264SOL    HW2 4107   9.352   6.763   1.326  1.6788  1.0305 -1.9678
31265SOL     OW 4108  10.534   1.376   4.041  0.3537 -0.3240  0.0756
31265SOL    HW1 4109  10.606   1.345   3.986  1.7003  2.8066 -0.1257
31265SOL    HW2 4110  10.569   1.373   4.130 -0.4634 -1.7613  0.3841
31266SOL     OW 4111   5.409   2.847   6.829  0.5307  0.0842  0.1818
31266SOL    HW1 4112   5.478   2.881   6.772  0.3688  0.3609  0.1507
31266SOL    HW2 4113   5.340   2.820   6.769 -0.0303  1.2416  0.2844
31267SOL     OW 4114   3.709   2.208   6.991 -0.4171  0.3744  0.3273
31267SOL    HW1 4115   3.629   2.179   7.035 -0.2224  1.4481  1.4480
31267SOL    HW2 4116   3.732   2.290   7.035 -0.1431  1.4680 -1.7455
31268SOL     OW 4117   0.260   6.892   2.048 -0.4350  0.1390  0.7575
31268SOL    HW1 4118   0.259   6.839   2.127  0.9606  0.7196  1.1944
31268SOL    HW2 4119   0.214   6.972   2.072 -3.1887 -1.0727 -0.1137
31269SOL     OW 4120   2.642   0.603   6.999 -0.1069  0.0157 -0.6681
31269SOL    HW1 4121   2.552   0.573   7.006 -0.5236  1.3485 -0.0632
31269SOL    HW2 4122   2.658   0.610   6.904 -1.1587  1.2466 -0.7696
31270SOL     OW 4123   9.638  10.252  10.965 -0.1842  0.1925  0.1855
31270SOL    HW1 4124   9.565  10.269  10.907  1.2146  0.7550 -1.4760
31270SOL    HW2 4125   9.612  10.173  11.014 -0.9742 -0.9499 -1.9768
31271SOL     OW 4126   2.132  10.236   6.959 -0.3748  0.1328  0.4040
31271SOL    HW1 4127   2.091  10.162   6.914 -0.0566  1.0166 -1.4545
31271SOL    HW2 4128   2.064  10.269   7.017 -1.2792 -0.2852 -0.3802
31272SOL     OW 4129  10.185   4.455  12.768 -0.0450  0.1029 -0.6927
31272SOL    HW1 4130  10.114   4.420  12.822 -0.1407 -0.0014 -0.8829
31272SOL    HW2 4131  10.153   4.540  12.739  0.2542  0.4241 -0.0998
31273SOL     OW 4132  11.123   8.006   6.717 -0.7183 -0.4014 -0.2170
31273SOL    HW1 4133  11.134   8.063   6.641 -2.1604  0.5958  0.2656
31273SOL    HW2 4134  11.079   8.061   6.782 -0.2225 -1.4543  1.0601
31274SOL     OW 4135   8.909   1.358   0.359 -0.0598  0.2496 -0.1994
31274SOL    HW1 4136   8.892   1.412   0.436 -0.3523  0.0024 -0.0857
31274SOL    HW2 4137   8.914   1.268   0.394 -1.6789 -0.0427 -0.6603
31275SOL     OW 4138   5.214   4.000   2.003 -0.1326  0.0075  0.0067
31275SOL    HW1 4139   5.304   4.024   2.025 -0.4680 -0.1989  1.7128
31275SOL    HW2 4140   5.216   3.984   1.909  1.5891  0.1228 -0.0040
31276SOL     OW 4141   1.480   3.312  10.754  0.5036 -0.0208  0.0841
31276SOL    HW1 4142   1.538   3.301  10.679  0.7505  0.5080  0.1971
31276SOL    HW2 4143   1.508   3.393  10.795  0.1970 -0.1701  0.5989
31277SOL     OW 4144   9.313   3.188   6.795  0.3803  0.5150  0.3515
31277SOL    HW1 4145   9.332   3.253   6.727 -0.5817  0.7037  0.2490
31277SOL    HW2 4146   9.233   3.220   6.837  0.1848 -0.3304  0.6466
31278SOL     OW 4147   6.893  11.951   5.889  0.1275  0.3352 -0.0348
31278SOL    HW1 4148   6.921  12.025   5.943 -1.9546 -0.1803  1.9256
31278SOL    HW2 4149   6.924  11.874   5.936 -2.4197 -0.1565  1.0312
31279SOL     OW 4150   1.723  11.507  11.111 -0.4436 -0.1551  0.0091
31279SOL    HW1 4151   1.651  11.446  11.099 -1.4847  1.3416 -1.7473
31279SOL    HW2 4152   1.802  11.455  11.094 -1.2076 -1.3291  0.0016
31280SOL     OW 4153   5.586  11.093   2.121  0.3835 -0.3545  0.1371
31280SOL    HW1 4154   5.664  11.125   2.167  0.5508  1.1664 -1.1182
31280SOL    HW2 4155   5.561  11.165   2.064 -2.3044 -0.5741  0.9162
31281SOL     OW 4156  12.273   7.832   4.251  0.0420  0.2815 -0.1234
31281SOL    HW1 4157  12.339   7.778   4.294  1.1630 -0.1551 -2.2805
31281SOL    HW2 4158  12.225   7.772   4.194 -0.8466  0.9802 -0.1490
31282SOL     OW 4159   4.835   7.449   3.677 -0.5341 -0.2787  0.0407
31282SOL    HW1 4160   4.924   7.451   3.644 -0.4051  1.8818  0.3404
31282SOL    HW2 4161   4.844   7.428   3.770 -0.4284 -1.0457 -0.1420
31283SOL     OW 4162   4.619   7.511   9.589  0.0707  0.2874  0.0591
31283SOL    HW1 4163   4.698   7.513   9.643  0.2166 -3.3855  0.2266
31283SOL    HW2 4164   4.547   7.525   9.651  0.4352  0.8717  0.3580
31284SOL     OW 4165   2.127  12.402  12.983  0.3698 -0.5277  0.5047
31284SOL    HW1 4166   2.052  12.411  12.924 -0.4398 -1.8259  1.2879
31284SOL    HW2 4167   2.203  12.409  12.926 -0.2473  2.0576 -0.1664
31285SOL     OW 4168   2.095  12.808   3.182 -0.1434 -0.2503  0.2472
31285SOL    HW1 4169   2.125  12.834   3.270  0.9960  2.5809 -0.8585
31285SOL    HW2 4170   2.175  12.802   3.130 -0.7433 -2.5641 -0.5141
31286SOL     OW 4171  10.063   9.635  12.704 -0.5890 -0.2854 -0.4064
31286SOL    HW1 4172  10.074   9.689  12.626 -0.2931  0.1432 -0.0691
31286SOL    HW2 4173   9.971   9.647  12.729 -0.5729 -0.0903 -0.4429
31287SOL     OW 4174   1.971   1.563   4.220  0.0471 -0.6378 -0.4056
31287SOL    HW1 4175   2.062   1.581   4.241 -0.2404 -0.3991  0.6965
31287SOL    HW2 4176   1.946   1.632   4.158  1.5099 -2.5615 -3.3835
31288SOL     OW 4177   6.076   6.820   0.662  0.6090  0.0132 -0.2828
31288SOL    HW1 4178   6.064   6.911   0.635 -0.6758 -0.4318 -1.3105
31288SOL    HW2 4179   6.142   6.786   0.601  1.7273  0.4540  0.6405
31289SOL     OW 4180  11.127   8.770   6.119 -0.0628 -0.2863  0.5688
31289SOL    HW1 4181  11.164   8.741   6.036 -1.1593 -3.4730  1.0524
31289SOL    HW2 4182  11.032   8.765   6.106 -0.2589  0.0026  1.7507
31290SOL     OW 4183   0.907   0.704   5.222  0.8571 -0.2511 -0.1611
31290SOL    HW1 4184   0.841   0.652   5.177 -1.7274  2.0158  0.7659
31290SOL    HW2 4185   0.965   0.735   5.152 -0.8613  0.1547 -1.4627
31291SOL     OW 4186  12.859   3.606   7.810 -0.0445 -0.3089  0.7263
31291SOL    HW1 4187  12.939   3.652   7.787  0.4919 -2.2139 -1.6501
31291SOL    HW2 4188  12.880   3.559   7.891  0.9056 -0.0077  0.6628
31292SOL     OW 4189   2.560   1.173   1.574  0.1766 -0.1100  0.6480
31292SOL    HW1 4190   2.546   1.238   1.505 -0.6497  0.3577  1.2429
31292SOL    HW2 4191   2.654   1.155   1.571  0.2404  0.3148 -0.2315
31293SOL     OW 4192   6.996   9.171   1.674  0.5788  0.1824  0.2574
31293SOL    HW1 4193   6.989   9.217   1.758 -2.6099  0.7926 -0.2017
31293SOL    HW2 4194   7.038   9.234   1.616  0.5148  0.7289  0.7936
31294SOL     OW 4195   1.902  12.251   0.110 -0.1386  0.1087  0.8035
31294SOL    HW1 4196   1.955  12.201   0.047 -2.1751  2.6836 -3.3735
31294SOL    HW2 4197   1.962  12.318   0.143  0.2366  0.7397 -1.0373
31295SOL     OW 4198   8.619   6.726   6.029  0.5864  0.3986 -0.0389
31295SOL    HW1 4199   8.714   6.726   6.029  0.6404  0.8859 -2.6799
31295SOL    HW2 4200   8.594   6.817   6.044  0.3698 -0.1094  3.6112
31296SOL     OW 4201   8.329  12.192   7.409  0.1633  0.1992  0.4930
31296SOL    HW1 4202   8.347  12.153   7.324  0.6330  0.7899  0.3057
31296SOL    HW2 4203   8.239  12.224   7.403  0.5296  1.1664 -0.1661
31297SOL     OW 4204  12.459  10.472   0.672  0.2063  0.3581  0.0067
31297SOL    HW1 4205  12.397  10.462   0.601  0.2738  0.8109 -0.1196
31297SOL    HW2 4206  12.542  10.495   0.629  0.5865 -0.7114  0.1365
31298SOL     OW 4207   3.822   3.439   3.706  0.4250 -0.1103  0.0711
31298SOL    HW1 4208   3.912   3.455   3.734  0.5732 -0.6222 -0.1121
31298SOL    HW2 4209   3.790   3.371   3.765  1.1742 -2.1822 -1.7895
31299SOL     OW 4210   3.697   1.311   3.461 -0.4519  0.1103 -0.4742
31299SOL    HW1 4211   3.659   1.302   3.373 -0.9832 -3.8058 -0.0565
31299SOL    HW2 4212   3.715   1.404   3.470 -2.0913  0.9603 -4.0025
31300SOL     OW 4213   4.515   2.574   3.662  0.2767  0.5135  0.0948
31300SOL    HW1 4214   4.570   2.651   3.653 -1.1598  1.8916  2.1792
31300SOL    HW2 4215   4.496   2.569   3.755 -1.3303 -1.1730 -0.2596
31301SOL     OW 4216   9.515   1.478   2.420  0.0086  0.6081  0.2355
31301SOL    HW1 4217   9.516   1.519   2.507  1.8898 -1.1731  1.1441
31301SOL    HW2 4218   9.604   1.487   2.388  0.2334 -1.7340  0.0275
31302SOL     OW 4219   9.431   6.931   7.714 -0.3682  0.2081  0.0234
31302SOL    HW1 4220   9.375   6.957   7.788 -0.6260 -0.6438  0.1335
31302SOL    HW2 4221   9.377   6.872   7.662 -0.6749  1.8323 -1.6160
31303SOL     OW 4222   0.846   3.309   5.119 -0.5463 -0.3927  0.2102
31303SOL    HW1 4223   0.826   3.392   5.162  1.9232 -1.2146  3.3077
31303SOL    HW2 4224   0.887   3.335   5.036  0.3919  1.5127  1.2121
31304SOL     OW 4225  11.126   3.259   0.044 -0.7674  0.2702  0.6355
31304SOL    HW1 4226  11.162   3.225  -0.038 -0.2751 -2.1494  1.7850
31304SOL    HW2 4227  11.136   3.354   0.036 -0.0684  0.0690 -1.7854
31305SOL     OW 4228   5.500   9.969   2.515  1.0105 -0.6181  0.0073
31305SOL    HW1 4229   5.470  10.060   2.518  0.7664 -0.7190  0.6090
31305SOL    HW2 4230   5.581   9.973   2.463  1.4927  0.0788  0.7814
31306SOL     OW 4231   2.182   9.306   3.699 -0.1430  0.0081 -0.1027
31306SOL    HW1 4232   2.122   9.258   3.642  0.4908 -1.8907  0.7623
31306SOL    HW2 4233   2.135   9.314   3.782 -0.0203  0.4003 -0.0706
31307SOL     OW 4234   3.610  10.497   9.997  0.6090 -0.5589  0.1324
31307SOL    HW1 4235   3.611  10.583  10.038 -0.4417 -0.3762 -0.1865
31307SOL    HW2 4236   3.641  10.437  10.064  0.0770 -0.1024  0.7953
31308SOL     OW 4237   5.639   6.413   4.249 -0.6251  0.7944  0.1550
31308SOL    HW1 4238   5.647   6.420   4.154 -2.0137  1.2234  0.0512
31308SOL    HW2 4239   5.567   6.352   4.263  0.8722 -0.8526  0.9804
31309SOL     OW 4240   1.653   9.692   7.492 -0.1169 -0.2554  0.6110
31309SOL    HW1 4241   1.701   9.707   7.411  0.7483 -1.6314  0.8433
31309SOL    HW2 4242   1.692   9.753   7.554 -0.8451  0.8711  0.0101
31310SOL     OW 4243  10.974   6.958   9.033  0.8637 -0.3273  0.1396
31310SOL    HW1 4244  10.936   6.924   8.952 -0.0164 -0.8174  0.7408
31310SOL    HW2 4245  10.977   7.053   9.021 -0.3753 -0.2964 -0.0018
31311SOL     OW 4246   1.319   7.015  11.456  0.4157 -0.1028 -0.0980
31311SOL    HW1 4247   1.378   6.947  11.488  0.2151 -1.8737 -3.1310
31311SOL    HW2 4248   1.239   6.968  11.433 -0.0571  1.2933 -1.4437
31312SOL     OW 4249   8.202   3.178   5.914 -0.4055  0.5729 -0.0357
31312SOL    HW1 4250   8.151   3.153   5.837 -1.2769  0.2194  0.6366
31312SOL    HW2 4251   8.203   3.273   5.912 -2.8778  0.7077  1.0161
31313SOL     OW 4252  12.335   0.896  11.422  0.5600  0.2202  0.5708
31313SOL    HW1 4253  12.334   0.967  11.486 -1.7801 -0.2881  1.1684
31313SOL    HW2 4254  12.322   0.940  11.338 -0.9913  0.5203  0.9463
31314SOL     OW 4255  10.753   5.293   3.649  0.5899 -0.6141  0.3240
31314SOL    HW1 4256  10.693   5.333   3.586 -0.2840  0.9750  2.0846
31314SOL    HW2 4257  10.699   5.233   3.701  0.6716  0.2199  1.3984
31315SOL     OW 4258   4.679  11.169  12.486  0.4569  0.2361 -0.3080
31315SOL    HW1 4259   4.614  11.101  12.504 -1.1349  1.5117 -1.0420
31315SOL    HW2 4260   4.748  11.124  12.437 -0.1615 -1.0113 -0.0674
31316SOL     OW 4261   0.700   4.271   7.676  0.2296  0.1132  0.1300
31316SOL    HW1 4262   0.719   4.232   7.762  2.6486  2.3040  0.7300
31316SOL    HW2 4263   0.651   4.351   7.696  1.1172  0.8268 -0.4557
31317SOL     OW 4264   0.375   6.908   3.484  0.3194 -0.1450  0.6018
31317SOL    HW1 4265   0.334   6.994   3.496  1.0684  0.6026 -1.7544
31317SOL    HW2 4266   0.301   6.848   3.472 -0.1701  0.5714 -0.0316
31318SOL     OW 4267  12.578  11.794   7.912  0.8512 -0.2250  0.1325
31318SOL    HW1 4268  12.565  11.703   7.885 -0.5809 -0.1767  0.5392
31318SOL    HW2 4269  12.495  11.817   7.955  1.3333  1.1595  0.3480
31319SOL     OW 4270   8.466   9.584   0.592  0.6811 -0.3741  0.1777
31319SOL    HW1 4271   8.410   9.588   0.515 -0.0874  0.5167  0.7727
31319SOL    HW2 4272   8.406   9.582   0.666  1.3696 -2.3787  0.7652
31320SOL     OW 4273   5.862   1.100   2.442  0.4335 -0.3597  0.6084
31320SOL    HW1 4274   5.840   1.103   2.535  0.6603  1.0477  0.6506
31320SOL    HW2 4275   5.781   1.123   2.398  0.7947  0.9984  0.5849
31321SOL     OW 4276   0.513  12.338   1.286 -0.0438  0.3971  0.0338
31321SOL    HW1 4277   0.418  12.326   1.286 -0.2388  1.7353  1.2380
31321SOL    HW2 4278   0.543  12.288   1.210 -1.4673 -1.7820  0.8124
31322SOL     OW 4279   6.932   8.032   0.162 -0.0533  0.4496  0.3925
31322SOL    HW1 4280   6.875   7.998   0.230 -1.8483  0.6513 -0.9338
31322SOL    HW2 4281   6.928   7.966   0.093  0.7730  0.8033 -0.0007
31323SOL     OW 4282   5.139  11.061  10.975  0.2557 -0.2532 -0.8050
31323SOL    HW1 4283   5.081  11.095  10.906  0.2587 -0.1200 -0.7411
31323SOL    HW2 4284   5.151  11.134  11.035 -0.2247 -0.5478 -0.3434
31324SOL     OW 4285   7.257   9.260   1.906 -0.5458  0.4494 -0.5774
31324SOL    HW1 4286   7.257   9.313   1.987 -1.2282  1.7266 -1.3689
31324SOL    HW2 4287   7.304   9.314   1.843 -0.4508 -0.3178 -1.1647
31325SOL     OW 4288   1.692   5.627   7.874  0.3352 -0.1920  0.0466
31325SOL    HW1 4289   1.738   5.617   7.791 -0.3356  1.8548 -0.6329
31325SOL    HW2 4290   1.754   5.674   7.930  0.6089 -1.1597  0.5934
31326SOL     OW 4291   9.318   5.860   8.142 -0.3917  0.1825 -0.1014
31326SOL    HW1 4292   9.409   5.879   8.164 -0.4977  0.0825  0.4433
31326SOL    HW2 4293   9.316   5.856   8.046  0.2852 -0.3960 -0.0933
31327SOL     OW 4294   1.597  11.381  11.931 -0.1921 -0.8187 -0.3846
31327SOL    HW1 4295   1.667  11.444  11.948 -0.3467 -0.7672  0.0790
31327SOL    HW2 4296   1.522  11.435  11.905 -0.1359 -0.8549 -0.6204
31328SOL     OW 4297   6.531  10.901   1.254 -0.1599 -0.1247  0.4471
31328SOL    HW1 4298   6.623  10.894   1.231 -0.3262  1.0632 -0.6513
31328SOL    HW2 4299   6.484  10.876   1.175 -0.7659  0.8790  0.4770
31329SOL     OW 4300   0.396   4.134   9.537 -0.4944  0.4539 -0.1110
31329SOL    HW1 4301   0.352   4.065   9.488  0.9587  0.3138 -1.3015
31329SOL    HW2 4302   0.349   4.214   9.514 -1.3383  0.0580  0.2032
31330SOL     OW 4303   4.589   9.264   5.960  0.2759  0.4729 -0.4318
31330SOL    HW1 4304   4.635   9.180   5.952  0.8794  0.8938 -1.7761
31330SOL    HW2 4305   4.610   9.295   6.048 -0.5983 -1.1280  0.3852
31331SOL     OW 4306   7.645   8.828   7.411  0.0294  0.4966  0.9812
31331SOL    HW1 4307   7.659   8.902   7.353  2.6754 -1.3494 -0.9454
31331SOL    HW2 4308   7.563   8.789   7.380 -0.3681  1.4732  0.7583
31332SOL     OW 4309  10.877   2.020   1.396 -0.4753 -0.3694 -0.8163
31332SOL    HW1 4310  10.796   1.974   1.421  0.1974 -0.7824  0.6972
31332SOL    HW2 4311  10.862   2.111   1.422 -1.5439  0.2382 -3.2059
31333SOL     OW 4312   0.626  10.480   6.182 -0.2830  0.4286 -0.5093
31333SOL    HW1 4313   0.581  10.492   6.098 -1.1801  1.2104  0.0634
31333SOL    HW2 4314   0.676  10.561   6.195 -0.1892  0.3330 -0.2616
31334SOL     OW 4315  10.269   5.427   5.901  0.5764  0.1086  0.1556
31334SOL    HW1 4316  10.329   5.492   5.865  1.6382 -0.5858  0.6036
31334SOL    HW2 4317  10.189   5.435   5.848  1.5037  0.2016 -1.2675
31335SOL     OW 4318   3.265  11.663   8.944 -0.1385 -0.3480 -0.3644
31335SOL    HW1 4319   3.205  11.607   8.895 -2.0545 -0.6021  2.0503
31335SOL    HW2 4320   3.272  11.743   8.891 -3.1187 -0.0916 -0.5526
31336SOL     OW 4321   3.493   3.515   1.381  0.0945  0.0995 -0.5601
31336SOL    HW1 4322   3.431   3.573   1.336 -2.4748 -2.3110 -0.4382
31336SOL    HW2 4323   3.478   3.531   1.474 -2.1187 -1.9922 -0.4590
31337SOL     OW 4324  12.092   9.603   0.461  0.0369  0.3788 -0.2597
31337SOL    HW1 4325  12.184   9.628   0.456  0.5085 -1.1127  0.3590
31337SOL    HW2 4326  12.058   9.614   0.372  1.0682  0.0509 -0.7007
31338SOL     OW 4327   8.849   9.391   4.146 -0.4423  0.1282 -0.1322
31338SOL    HW1 4328   8.931   9.361   4.185 -0.0016  0.8411 -0.4764
31338SOL    HW2 4329   8.876   9.458   4.083 -1.4324  2.7784  2.0114
31339SOL     OW 4330  10.572   4.102   4.382 -0.5327 -0.4520 -0.1395
31339SOL    HW1 4331  10.519   4.074   4.308  0.0918 -0.1295 -0.7230
31339SOL    HW2 4332  10.537   4.188   4.406 -1.0863 -0.7934  0.2989
31340SOL     OW 4333   3.125   3.985   5.424 -0.1722  0.4312 -0.5793
31340SOL    HW1 4334   3.046   3.939   5.398 -0.6294  1.6823 -1.4920
31340SOL    HW2 4335   3.114   3.999   5.518 -0.9403  0.4292 -0.6633
31341SOL     OW 4336   9.505   8.652   6.834  0.7483 -0.3519  0.1781
31341SOL    HW1 4337   9.544   8.695   6.910 -0.1954 -0.4926  0.7552
31341SOL    HW2 4338   9.561   8.575   6.819  2.1184  0.7373 -0.5263
31342SOL     OW 4339   8.704   1.788   5.047  0.1177  0.5242  0.3969
31342SOL    HW1 4340   8.759   1.842   4.991  1.0855 -1.8109 -1.0886
31342SOL    HW2 4341   8.725   1.698   5.021 -3.4463 -0.5420  0.7058
31343SOL     OW 4342  11.727  11.567  12.647 -0.1508  0.0882  0.1226
31343SOL    HW1 4343  11.752  11.629  12.716 -1.2822  1.5807 -0.7496
31343SOL    HW2 4344  11.634  11.583  12.633 -1.0274 -3.2099  1.1974
31344SOL     OW 4345  12.810  11.996   3.568 -0.4221 -0.3860 -0.2444
31344SOL    HW1 4346  12.798  11.987   3.473 -1.0529  0.7288 -0.2873
31344SOL    HW2 4347  12.721  12.005   3.602 -0.1061  1.2064  0.2208
31345SOL     OW 4348   4.298  10.327   2.122 -0.3826  0.2651  0.0864
31345SOL    HW1 4349   4.244  10.292   2.193 -1.0556  0.7114 -0.2030
31345SOL    HW2 4350   4.337  10.407   2.158 -0.5978  0.4068  0.0017
31346SOL     OW 4351  12.070   9.683   9.904  0.0519 -0.8882  0.5489
31346SOL    HW1 4352  12.001   9.738   9.941 -0.5772 -0.3566 -1.2850
31346SOL    HW2 4353  12.135   9.745   9.872  0.0994 -1.2746 -0.1172
31347SOL     OW 4354   0.516   9.781   1.041 -0.0854  0.1081 -0.3060
31347SOL    HW1 4355   0.611   9.791   1.051  0.0599 -0.4936 -0.9338
31347SOL    HW2 4356   0.502   9.779   0.946 -0.7667  0.5114 -0.2221
31348SOL     OW 4357  10.259  12.417  10.280 -0.4220  0.4694  1.0220
31348SOL    HW1 4358  10.188  12.458  10.329 -2.5835 -1.4617 -0.2576
31348SOL    HW2 4359  10.336  12.427  10.336 -1.6738  2.6213  2.5001
31349SOL     OW 4360   0.539   0.957  12.909  0.5060  0.3730 -0.2779
31349SOL    HW1 4361   0.565   1.041  12.870  0.1873  0.8315  0.4765
31349SOL    HW2 4362   0.586   0.891  12.858  1.5546  1.0667 -0.2344
31350SOL     OW 4363   2.770   6.645   9.779 -0.2565  0.4320 -0.4049
31350SOL    HW1 4364   2.731   6.732   9.768 -0.0586  0.3237 -2.1738
31350SOL    HW2 4365   2.695   6.586   9.787 -0.4080  0.6120 -0.5013
31351SOL     OW 4366   1.088   6.456   6.897  0.7484  0.0416 -0.9928
31351SOL    HW1 4367   1.122   6.538   6.931 -0.1881  0.5037 -1.1631
31351SOL    HW2 4368   1.061   6.476   6.807 -1.1169  0.0126 -0.4775
31352SOL     OW 4369   8.408  11.927   8.398  0.0080  0.0472 -0.0726
31352SOL    HW1 4370   8.315  11.905   8.402  0.0216  0.1030  1.5002
31352SOL    HW2 4371   8.419  11.995   8.465  1.1266  0.2407 -0.4302
31353SOL     OW 4372   8.162   5.768   8.014  0.3984  0.2538 -0.1131
31353SOL    HW1 4373   8.247   5.769   7.969  1.0936 -3.5194  0.7169
31353SOL    HW2 4374   8.183   5.791   8.105  0.3413  0.4506 -0.1509
31354SOL     OW 4375   0.581   4.851  11.180 -0.3104  0.0172  0.2637
31354SOL    HW1 4376   0.514   4.824  11.117  0.2788 -3.6126  0.9961
31354SOL    HW2 4377   0.533   4.864  11.262 -0.6765  1.9958 -0.2156
31355SOL     OW 4378   7.126  10.792   4.446  0.1372 -0.2345 -0.1050
31355SOL    HW1 4379   7.159  10.875   4.410  0.7856 -1.3910 -2.3780
31355SOL    HW2 4380   7.188  10.726   4.414  0.1255 -1.5528  2.3403
31356SOL     OW 4381   8.373   9.082   9.860  0.3620 -0.5768  0.0101
31356SOL    HW1 4382   8.388   9.134   9.939 -0.6895 -0.4326  0.1326
31356SOL    HW2 4383   8.345   9.146   9.795 -0.7146 -0.9424  0.0951
31357SOL     OW 4384   7.878  11.576   5.701 -0.1558 -0.1466  0.4164
31357SOL    HW1 4385   7.798  11.606   5.743 -0.0566  1.5287 -0.4945
31357SOL    HW2 4386   7.851  11.550   5.612 -0.0296 -1.6876  0.8038
31358SOL     OW 4387  10.561  10.784   0.489 -0.3410 -0.3982 -0.1029
31358SOL    HW1 4388  10.538  10.860   0.541  0.9578 -0.6043  0.8333
31358SOL    HW2 4389  10.554  10.813   0.398  0.5034  0.9741  0.2454
31359SOL     OW 4390   6.307  11.995  12.162  0.5542  0.2482  0.3975
31359SOL    HW1 4391   6.226  12.039  12.137  0.7261 -0.0655 -0.8138
31359SOL    HW2 4392   6.303  11.987  12.257 -0.9872 -0.0468  0.3256
31360SOL     OW 4393   9.953  11.100   5.445  0.1698 -0.8105 -0.0739
31360SOL    HW1 4394  10.014  11.103   5.372  2.7049 -1.6431  1.8720
31360SOL    HW2 4395   9.962  11.186   5.487  0.4525 -1.1306  0.5346
31361SOL     OW 4396   4.445   3.555   1.866  0.2830  0.3532 -0.2497
31361SOL    HW1 4397   4.378   3.511   1.918  0.3349  2.3315  1.6715
31361SOL    HW2 4398   4.521   3.498   1.872 -0.3358 -0.4629  0.1034
31362SOL     OW 4399   7.900   7.181   5.610  0.0733  0.3983  0.0783
31362SOL    HW1 4400   7.937   7.106   5.563  0.2362  0.0472  0.7564
31362SOL    HW2 4401   7.847   7.226   5.544  2.7653  1.7326 -1.3737
31363SOL     OW 4402   3.705  11.231   1.934 -0.4691  0.0691  0.3536
31363SOL    HW1 4403   3.695  11.309   1.989 -0.6385  0.8196 -0.7157
31363SOL    HW2 4404   3.799  11.216   1.930 -0.3854  0.7357 -0.1476
31364SOL     OW 4405   5.660   7.890   3.120 -0.5650 -0.0287  0.7429
31364SOL    HW1 4406   5.689   7.969   3.075 -2.2617  0.9058  1.1819
31364SOL    HW2 4407   5.577   7.868   3.077 -0.8019 -0.7566  1.5456
31365SOL     OW 4408   6.098   2.420   9.415  0.2435 -0.1762 -0.5676
31365SOL    HW1 4409   6.130   2.338   9.453 -0.4564 -0.6686 -1.0075
31365SOL    HW2 4410   6.169   2.450   9.359  0.6014 -0.3499 -0.2122
31366SOL     OW 4411   6.827   2.308   9.768 -0.1508  0.6192  0.3730
31366SOL    HW1 4412   6.866   2.221   9.763 -0.4708  0.4912  0.0294
31366SOL    HW2 4413   6.786   2.311   9.855 -3.1665 -0.9115 -0.8175
31367SOL     OW 4414  12.718   3.657  10.914 -0.1492  0.0785 -0.4293
31367SOL    HW1 4415  12.764   3.573  10.917  1.1716  0.7632 -0.8005
31367SOL    HW2 4416  12.626   3.635  10.928  0.2338 -1.3811 -0.1012
31368SOL     OW 4417   8.621   6.123   5.232 -0.1925  0.9451  0.3950
31368SOL    HW1 4418   8.579   6.193   5.281 -0.9478  1.3673 -0.8158
31368SOL    HW2 4419   8.561   6.104   5.160  0.3420 -0.4448  0.2805
31369SOL     OW 4420   3.560   5.916   3.373  0.2713 -0.3565  0.9994
31369SOL    HW1 4421   3.545   5.958   3.289  0.4962  2.5086  2.2631
31369SOL    HW2 4422   3.652   5.888   3.370  0.2041 -0.5125  0.2128
31370SOL     OW 4423   2.239   4.346   7.385  0.8916  0.1726 -0.2341
31370SOL    HW1 4424   2.296   4.308   7.452 -0.3305  0.7699  1.1955
31370SOL    HW2 4425   2.190   4.415   7.430 -0.0575  0.5346 -1.7183
31371SOL     OW 4426  12.123   5.254  12.291  0.4329 -0.0941 -0.1826
31371SOL    HW1 4427  12.129   5.172  12.339  1.0466 -0.4456 -0.8518
31371SOL    HW2 4428  12.198   5.253  12.231  1.1330  1.4702  0.6086
31372SOL     OW 4429   5.735   9.781   7.926  0.0125  0.1492 -0.4204
31372SOL    HW1 4430   5.813   9.801   7.978 -0.2740  1.0195 -0.3070
31372SOL    HW2 4431   5.697   9.866   7.907  0.2760 -0.1293 -2.3551
31373SOL     OW 4432   6.139   0.561   6.761 -0.4228  0.1812  0.2165
31373SOL    HW1 4433   6.231   0.586   6.756 -0.1398 -0.6291  1.0521
31373SOL    HW2 4434   6.100   0.627   6.819 -0.3499  0.4570 -0.0442
31374SOL     OW 4435  10.157   6.331   5.214 -0.3940 -0.1431  0.0421
31374SOL    HW1 4436  10.195   6.244   5.201  0.7743  0.0455  1.8492
31374SOL    HW2 4437  10.216   6.390   5.167  0.1118 -0.1144  0.7000
31375SOL     OW 4438   3.838  10.793   3.712 -0.2000 -0.3157  0.3011
31375SOL    HW1 4439   3.871  10.833   3.793 -0.3050 -0.2046  0.2886
31375SOL    HW2 4440   3.747  10.822   3.706 -0.1992 -0.3430  0.1555
31376SOL     OW 4441   3.069   9.957   6.967 -0.1588 -0.4790  0.3878
31376SOL    HW1 4442   3.054  10.023   6.899  0.9960  1.0344  1.5303
31376SOL    HW2 4443   3.023   9.990   7.043 -2.4302 -2.7460  0.1222
31377SOL     OW 4444   1.463   2.929   0.824 -0.0638  0.0819 -0.3510
31377SOL    HW1 4445   1.371   2.930   0.849 -0.8468 -2.4743 -2.5987
31377SOL    HW2 4446   1.463   2.955   0.732  1.6409  1.0725 -0.1174
31378SOL     OW 4447   9.259   1.716   4.681 -0.2656 -0.1828  0.3810
31378SOL    HW1 4448   9.299   1.641   4.726  0.4372  1.0249  1.8767
31378SOL    HW2 4449   9.326   1.747   4.620  0.2038  0.3706  1.1544
31379SOL     OW 4450  11.178   6.996   2.647  0.2083 -0.0341 -0.0953
31379SOL    HW1 4451  11.177   7.066   2.711 -2.3562  0.1347 -0.2322
31379SOL    HW2 4452  11.253   6.942   2.672 -0.9061 -0.2105  3.3275
31380SOL     OW 4453   2.500  12.296   2.146  0.0460 -0.0876  0.1758
31380SOL    HW1 4454   2.475  12.357   2.216  0.2115 -0.2678  0.3953
31380SOL    HW2 4455   2.433  12.307   2.080  0.1600  0.4563  0.1404
31381SOL     OW 4456   7.293   0.789  11.457  0.8056 -0.1865 -0.4673
31381SOL    HW1 4457   7.218   0.798  11.515  0.0591 -1.1041 -1.2504
31381SOL    HW2 4458   7.368   0.774  11.515 -0.3539 -4.0801  0.2594
31382SOL     OW 4459  12.052  11.011  10.400 -0.1613  0.0421 -0.3438
31382SOL    HW1 4460  12.030  11.093  10.355 -1.0730 -0.8827 -1.6649
31382SOL    HW2 4461  12.068  11.037  10.491 -0.3781  1.6867 -0.7392
31383SOL     OW 4462   3.040   0.861   2.112  0.5470  0.3501  0.2243
31383SOL    HW1 4463   3.106   0.826   2.172 -0.7178 -1.8318  0.4370
31383SOL    HW2 4464   3.068   0.831   2.026  0.9253  1.2365  0.0199
31384SOL     OW 4465   8.731   1.156   6.535  0.1332  0.1376 -0.2756
31384SOL    HW1 4466   8.768   1.244   6.525  1.5730 -0.4675 -0.5356
31384SOL    HW2 4467   8.756   1.129   6.623 -0.3557  0.0055 -0.1738
31385SOL     OW 4468   8.700   8.349   9.804  0.0980  0.7031  0.4849
31385SOL    HW1 4469   8.678   8.288   9.734 -1.0216  1.1508  0.4226
31385SOL    HW2 4470   8.694   8.298   9.885 -0.1905  0.5810  0.3850
31386SOL     OW 4471   6.164   2.108   3.301 -0.1296 -0.1115  0.2088
31386SOL    HW1 4472   6.125   2.189   3.268  0.3122 -0.0915 -0.2737
31386SOL    HW2 4473   6.195   2.063   3.223 -1.3882 -1.2983  0.3396
31387SOL     OW 4474   7.214   2.521   8.560  0.0692  0.2404  0.7894
31387SOL    HW1 4475   7.257   2.557   8.482 -0.7426  0.8400  0.6110
31387SOL    HW2 4476   7.121   2.528   8.542 -0.1274 -1.0244  1.1929
31388SOL     OW 4477   7.486  12.387   8.725 -0.2159  0.3605  0.1294
31388SOL    HW1 4478   7.484  12.406   8.818 -0.7127 -0.6677  0.3440
31388SOL    HW2 4479   7.568  12.339   8.711 -1.5466 -2.2442  0.6480
31389SOL     OW 4480   4.617   2.420   9.052 -0.3271 -0.5142 -0.2050
31389SOL    HW1 4481   4.591   2.507   9.085  1.8185 -0.2927  1.0600
31389SOL    HW2 4482   4.537   2.368   9.057 -1.1875  0.8419  0.9315
31390SOL     OW 4483  10.932   1.307   2.826 -0.2015 -0.5339 -0.0782
31390SOL    HW1 4484  10.933   1.264   2.911 -0.3063 -1.2080 -0.4083
31390SOL    HW2 4485  10.918   1.399   2.846 -0.0236 -0.6563  0.6430
31391SOL     OW 4486   9.774   6.767   7.341 -0.6872 -0.6381  0.0482
31391SOL    HW1 4487   9.868   6.775   7.352 -0.6668 -0.5000 -0.2188
31391SOL    HW2 4488   9.738   6.803   7.423 -0.5372  0.3846 -0.3154
31392SOL     OW 4489   6.648   4.353   4.711  0.0003 -0.0086 -0.3241
31392SOL    HW1 4490   6.628   4.444   4.692 -0.4573 -0.1775 -0.6945
31392SOL    HW2 4491   6.611   4.338   4.798  1.2239  0.4997  0.3161
31393SOL     OW 4492   4.176   0.512   2.441  0.2568  0.9979 -0.7494
31393SOL    HW1 4493   4.204   0.603   2.452 -0.9692  1.6338 -2.4182
31393SOL    HW2 4494   4.151   0.506   2.349 -0.1396 -0.9144 -0.5539
31394SOL     OW 4495   7.740   4.954   4.794  0.1840  0.3426 -0.0635
31394SOL    HW1 4496   7.696   4.881   4.838  0.0883  0.3683 -0.1158
31394SOL    HW2 4497   7.765   4.919   4.709  2.5430 -0.4705  0.8874
31395SOL     OW 4498   9.417   5.463   2.651 -0.5566  0.2912 -0.6062
31395SOL    HW1 4499   9.395   5.375   2.683 -0.8858  0.0145 -1.5786
31395SOL    HW2 4500   9.474   5.448   2.576  1.7169  0.9866  0.8707
31396SOL     OW 4501   7.826   4.284   6.807  0.3357  0.0184  0.1904
31396SOL    HW1 4502   7.831   4.377   6.784 -1.8535  1.2480  3.7798
31396SOL    HW2 4503   7.739   4.257   6.777 -0.0097 -0.1282  1.2825
31397SOL     OW 4504   4.339  10.417   6.078 -0.2251 -0.0233 -0.3793
31397SOL    HW1 4505   4.411  10.437   6.017  0.2033 -1.4025 -0.3694
31397SOL    HW2 4506   4.382  10.374   6.152 -1.1563 -2.1791 -1.0024
31398SOL     OW 4507   4.016   7.738   7.774  0.2773  0.3771 -0.9511
31398SOL    HW1 4508   3.935   7.694   7.748 -0.0912  1.9543 -2.7087
31398SOL    HW2 4509   4.085   7.688   7.733  0.0275  0.2500 -1.2208
31399SOL     OW 4510   3.683   2.474  10.356  0.0721  0.3031 -0.3018
31399SOL    HW1 4511   3.684   2.555  10.306 -1.3795  0.3423 -0.2999
31399SOL    HW2 4512   3.743   2.416  10.309 -0.5680  0.6444 -1.5845
31400SOL     OW 4513   4.218   9.361   3.616 -0.4666 -0.1639 -0.1450
31400SOL    HW1 4514   4.266   9.334   3.538  2.0104  2.5792  0.2392
31400SOL    HW2 4515   4.265   9.321   3.689  1.5528  2.6467  0.2451
31401SOL     OW 4516   9.312   1.450   0.473  0.5691  0.1545  0.2019
31401SOL    HW1 4517   9.336   1.522   0.415 -1.2664  0.7181  0.0932
31401SOL    HW2 4518   9.350   1.372   0.431  0.3849  0.7187 -1.0564
31402SOL     OW 4519   6.220   1.645   3.776  0.1789 -0.0603  0.9106
31402SOL    HW1 4520   6.209   1.739   3.795 -2.7896 -0.4197  1.4831
31402SOL    HW2 4521   6.268   1.643   3.693  0.1447  1.9727  0.7854
31403SOL     OW 4522   1.517   5.872   1.845 -0.2831 -0.5392 -0.3243
31403SOL    HW1 4523   1.567   5.907   1.771  0.8936  1.4985  1.3105
31403SOL    HW2 4524   1.435   5.920   1.844  0.8896  1.6552  1.2745
31404SOL     OW 4525   9.371   8.024   4.378 -0.3547  0.0392 -0.2128
31404SOL    HW1 4526   9.337   8.096   4.325  0.0195 -0.8424 -1.7197
31404SOL    HW2 4527   9.390   7.955   4.314  2.2501 -0.2725  0.8102
31405SOL     OW 4528   9.634  11.544  11.551  0.2500  0.9077  0.0802
31405SOL    HW1 4529   9.578  11.470  11.529  1.7102  0.0768 -1.0112
31405SOL    HW2 4530   9.672  11.571  11.467 -0.9986  3.5745  0.2705
31406SOL     OW 4531   3.734   4.800   0.083 -0.5263  0.3231 -0.0316
31406SOL    HW1 4532   3.795   4.873   0.077 -0.6863  0.5377  0.8376
31406SOL    HW2 4533   3.654   4.831   0.040 -0.2148  0.2354 -0.6871
31407SOL     OW 4534   6.985   2.412   7.480  0.2884 -0.4225 -0.1895
31407SOL    HW1 4535   6.950   2.323   7.465 -1.1242  0.2059 -0.8376
31407SOL    HW2 4536   6.982   2.423   7.575 -2.2903 -0.0720 -0.2348
31408SOL     OW 4537   5.567  10.023   7.823  0.3035 -0.0002 -0.1682
31408SOL    HW1 4538   5.607  10.108   7.840  0.0462 -0.3605  2.6634
31408SOL    HW2 4539   5.473  10.040   7.827  0.2524 -0.4423  0.7435
31409SOL     OW 4540   0.241   1.539  10.612  0.1315 -0.2634  0.0479
31409SOL    HW1 4541   0.219   1.448  10.589 -2.9699  0.6189 -1.0669
31409SOL    HW2 4542   0.242   1.541  10.707  0.8019 -1.5857  0.0792
31410SOL     OW 4543   1.718   7.529  10.876  0.3297  0.0273 -0.2977
31410SOL    HW1 4544   1.644   7.499  10.824  0.7369 -1.5502 -0.0371
31410SOL    HW2 4545   1.679   7.559  10.958 -0.0908 -0.0576 -0.4648
31411SOL     OW 4546  10.216   1.391   1.446  0.3841  0.7207 -0.5951
31411SOL    HW1 4547  10.305   1.364   1.420  0.4633 -0.9878  1.2483
31411SOL    HW2 4548  10.165   1.310   1.444 -0.9478  1.5375 -0.8057
31412SOL     OW 4549   3.816   1.057   6.039 -0.6417 -0.1471 -0.0094
31412SOL    HW1 4550   3.844   0.986   6.097  0.1342  1.4098  1.5966
31412SOL    HW2 4551   3.747   1.102   6.087 -0.0757  1.1098 -0.3425
31413SOL     OW 4552   4.967   7.047   3.905  0.1776  0.0190  0.1972
31413SOL    HW1 4553   4.874   7.063   3.919 -0.0770  0.0588 -1.3909
31413SOL    HW2 4554   5.008   7.073   3.988 -1.1419  0.5965  0.7041
31414SOL     OW 4555  10.482   8.810   6.766  0.8481  0.3707  1.1510
31414SOL    HW1 4556  10.460   8.902   6.780 -2.3332  0.4479 -2.6695
31414SOL    HW2 4557  10.426   8.762   6.828  1.1109  0.9316  1.8343
31415SOL     OW 4558  12.695   4.317   3.278  0.5148 -0.6195 -0.3211
31415SOL    HW1 4559  12.763   4.300   3.344  1.6477  1.3708 -0.9048
31415SOL    HW2 4560  12.615   4.329   3.330  1.0266 -0.8570  0.5531
31416SOL     OW 4561   7.080  11.505   4.458 -0.0208 -0.2005  0.2639
31416SOL    HW1 4562   7.045  11.594   4.457  2.5797  0.9210  1.0269
31416SOL    HW2 4563   7.165  11.512   4.501  0.2570 -3.0944  0.4389
31417SOL     OW 4564   8.905   4.954   5.558 -1.0599 -0.5909 -0.3553
31417SOL    HW1 4565   8.879   5.001   5.637 -2.1982  0.3365 -1.2389
31417SOL    HW2 4566   8.888   5.016   5.487 -0.0087 -1.3754 -1.3366
31418SOL     OW 4567   3.336   4.971  10.514 -0.4457  0.7478 -0.3055
31418SOL    HW1 4568   3.350   4.886  10.557  0.5893  0.2610 -1.5228
31418SOL    HW2 4569   3.267   4.954  10.449  0.1024  0.6983 -0.8853
31419SOL     OW 4570   3.638  10.579   9.546  0.0793  0.4550 -0.2805
31419SOL    HW1 4571   3.544  10.578   9.527  0.4448  0.4549 -2.3685
31419SOL    HW2 4572   3.667  10.489   9.529  0.7469  0.8713 -1.4340
31420SOL     OW 4573  10.296   1.997   5.912 -0.2339  0.2550  0.0635
31420SOL    HW1 4574  10.247   1.942   5.850 -1.1724 -0.2707  1.2388
31420SOL    HW2 4575  10.359   1.937   5.952 -0.7884  0.1757  0.8406
31421SOL     OW 4576  12.524  10.418  11.619 -0.3150 -0.3824  0.0588
31421SOL    HW1 4577  12.467  10.341  11.609 -2.2907  1.2654 -3.4070
31421SOL    HW2 4578  12.606  10.392  11.577 -0.6171 -0.9219 -0.2135
31422SOL     OW 4579  12.840   0.745   7.079 -0.1753 -0.2648  0.1690
31422SOL    HW1 4580  12.773   0.754   7.012 -0.8520 -0.8769  0.7515
31422SOL    HW2 4581  12.795   0.706   7.154  0.7515 -0.3894  0.6831
31423SOL     OW 4582   5.150   3.320   5.190 -0.3720  0.1839  0.1241
31423SOL    HW1 4583   5.115   3.267   5.119  0.4121 -2.7506  1.7736
31423SOL    HW2 4584   5.074   3.342   5.244 -0.4252 -1.6708  0.8717
31424SOL     OW 4585  10.708   6.050  10.667  0.2723  0.6607 -0.2151
31424SOL    HW1 4586  10.741   6.107  10.598  1.0095 -0.3945 -0.7604
31424SOL    HW2 4587  10.639   5.999  10.626  0.6188  0.1256 -0.1519
31425SOL     OW 4588   5.594   8.239   5.873  0.2954 -0.0564  0.1712
31425SOL    HW1 4589   5.658   8.220   5.942  0.2922 -1.7325 -0.2614
31425SOL    HW2 4590   5.553   8.155   5.854 -0.4987  0.5914 -1.0989
31426SOL     OW 4591   8.514   7.898   8.944  0.1731 -0.4170  0.3808
31426SOL    HW1 4592   8.585   7.923   9.004 -0.7581  1.4522  0.7810
31426SOL    HW2 4593   8.519   7.803   8.940  0.7242 -0.5740  2.8807
31427SOL     OW 4594   3.368   0.789   7.087 -0.1691  0.0526 -0.5279
31427SOL    HW1 4595   3.316   0.708   7.086 -1.4782  0.8597  0.0745
31427SOL    HW2 4596   3.365   0.818   7.178  0.8213  0.4630 -0.6159
31428SOL     OW 4597   3.189   5.540   3.392 -0.1352  0.4866  0.1581
31428SOL    HW1 4598   3.264   5.586   3.354  0.4427 -1.6035 -1.4656
31428SOL    HW2 4599   3.139   5.510   3.316 -0.9158 -0.7844  1.1236
31429SOL     OW 4600   2.073   8.356   5.138  0.1074 -0.3876 -0.0048
31429SOL    HW1 4601   2.002   8.411   5.170 -0.5765 -0.7355 -0.8911
31429SOL    HW2 4602   2.080   8.378   5.046 -0.7864 -2.4046 -0.6011
31430SOL     OW 4603  10.508  11.542  11.607  0.5571 -0.8459  0.3706
31430SOL    HW1 4604  10.535  11.634  11.607 -0.1884 -0.5800  2.4533
31430SOL    HW2 4605  10.413  11.545  11.595  0.2641 -1.1910  2.3310
31431SOL     OW 4606  10.624   1.026   9.582  0.3860  0.4914 -0.1437
31431SOL    HW1 4607  10.611   0.981   9.665  0.5239 -3.9294 -2.2397
31431SOL    HW2 4608  10.718   1.042   9.577  0.6538 -1.0584 -0.2533
31432SOL     OW 4609   7.246   1.970   4.353  0.6531  0.2688 -0.4060
31432SOL    HW1 4610   7.205   1.885   4.339 -2.8287  1.3127  2.1087
31432SOL    HW2 4611   7.209   2.025   4.284 -1.8793  1.0072  1.3812
31433SOL     OW 4612  10.692   5.705   4.666  0.3118  0.1839 -0.3999
31433SOL    HW1 4613  10.719   5.676   4.753 -1.4835  0.2310  0.2157
31433SOL    HW2 4614  10.694   5.625   4.613 -2.3735 -0.7336  0.7172
31434SOL     OW 4615   5.920  12.982  11.007 -0.3048  0.0944  0.4605
31434SOL    HW1 4616   6.006  13.009  10.974  0.3416 -0.6001  1.5089
31434SOL    HW2 4617   5.888  12.919  10.942 -0.2499  0.7279 -0.1889
31435SOL     OW 4618   8.986   6.570   1.024  0.6620  0.3275 -0.2646
31435SOL    HW1 4619   8.941   6.498   1.069 -0.5722  2.0322  1.3872
31435SOL    HW2 4620   9.077   6.562   1.051  0.0066  1.1605  2.5419
31436SOL     OW 4621   2.261   7.193   4.829  0.3781 -0.0189 -0.5074
31436SOL    HW1 4622   2.170   7.170   4.814  0.0385  0.8676  0.1947
31436SOL    HW2 4623   2.310   7.132   4.772 -0.4934 -2.2194  0.9717
31437SOL     OW 4624   1.961   6.964  11.272  0.4331 -0.0098  0.4295
31437SOL    HW1 4625   1.964   7.038  11.210 -1.0176  0.2858  0.6680
31437SOL    HW2 4626   1.910   6.897  11.227  0.8688 -0.4827  0.6250
31438SOL     OW 4627  12.888  10.636   8.270 -0.4755 -0.1378 -0.0014
31438SOL    HW1 4628  12.867  10.657   8.361 -0.1225  2.3675 -0.4290
31438SOL    HW2 4629  12.875  10.718   8.223  0.9310 -0.9498 -1.9336
31439SOL     OW 4630   2.014  10.328   3.484  1.1796 -0.6045  0.0769
31439SOL    HW1 4631   1.974  10.243   3.502  0.9819 -0.0890  2.3944
31439SOL    HW2 4632   2.082  10.337   3.550  1.0624  1.1127  0.0221
31440SOL     OW 4633   0.539   9.731   3.953  0.0300 -0.2560  0.4510
31440SOL    HW1 4634   0.496   9.808   3.918  1.0924 -0.5067 -1.5640
31440SOL    HW2 4635   0.571   9.758   4.039 -0.9680  1.0349  0.4343
31441SOL     OW 4636   0.883   3.177   7.310 -0.2903 -0.1980 -0.6868
31441SOL    HW1 4637   0.814   3.207   7.251 -0.5802 -0.9045 -0.7180
31441SOL    HW2 4638   0.948   3.248   7.309 -0.9746  0.4351 -0.7109
31442SOL     OW 4639   3.023   0.018   1.138 -0.4106  0.0777  0.0472
31442SOL    HW1 4640   2.975  -0.049   1.186 -1.0505  0.3605 -0.1860
31442SOL    HW2 4641   3.089   0.049   1.200  1.0389 -1.9431 -0.3797
31443SOL     OW 4642   9.537   0.455   6.957  0.3711  0.6320 -0.4212
31443SOL    HW1 4643   9.564   0.365   6.935 -2.3591  0.1173 -2.0634
31443SOL    HW2 4644   9.555   0.505   6.877 -2.2667  0.4963 -1.1694
31444SOL     OW 4645   5.137   6.481   5.623 -0.2695  0.1575  0.0017
31444SOL    HW1 4646   5.072   6.466   5.554 -0.4428  1.0996 -0.0545
31444SOL    HW2 4647   5.112   6.565   5.661  0.8564  0.4786  0.0556
31445SOL     OW 4648   2.776  12.247   1.121 -0.5179 -0.1004  0.3017
31445SOL    HW1 4649   2.729  12.237   1.038  0.7593 -1.4031 -0.3114
31445SOL    HW2 4650   2.854  12.299   1.098 -0.1652 -0.4521  0.6839
31446SOL     OW 4651   5.181   8.450  11.600  0.3313  0.2881  0.3315
31446SOL    HW1 4652   5.167   8.477  11.691  2.2377  1.6175  0.3091
31446SOL    HW2 4653   5.142   8.520  11.548  0.6909  0.3822  0.1801
31447SOL     OW 4654  10.329   3.834   8.409  0.1620 -0.6340 -0.1735
31447SOL    HW1 4655  10.341   3.873   8.323  0.1898 -2.3915 -1.0225
31447SOL    HW2 4656  10.418   3.828   8.445 -0.0172  1.9020  0.8856
31448SOL     OW 4657   1.436   4.122   7.703  0.0636  0.1773 -0.1160
31448SOL    HW1 4658   1.379   4.134   7.779  1.3279 -2.6236  1.4278
31448SOL    HW2 4659   1.380   4.083   7.636 -0.6000  0.7589  0.0904
31449SOL     OW 4660  11.381   6.233   2.729  0.3261  0.2235 -0.5643
31449SOL    HW1 4661  11.430   6.303   2.770  0.8452 -0.8597  0.7368
31449SOL    HW2 4662  11.311   6.277   2.680 -1.2376  1.5951  2.6355
31450SOL     OW 4663   5.523  11.008   1.500  0.0760  0.2840 -0.4325
31450SOL    HW1 4664   5.511  11.096   1.534  0.8573  0.2274  0.0315
31450SOL    HW2 4665   5.508  11.015   1.406 -1.6672  0.5429 -0.1684
31451SOL     OW 4666   9.533   2.621   1.356 -0.1738 -0.2941  1.1599
31451SOL    HW1 4667   9.586   2.701   1.349 -0.6521  0.0332  1.2272
31451SOL    HW2 4668   9.544   2.578   1.271 -1.1254  0.6162  0.5474
31452SOL     OW 4669   0.714   1.516   2.725 -0.3622 -0.4194 -0.2282
31452SOL    HW1 4670   0.790   1.563   2.760 -0.4110  0.8890 -1.7707
31452SOL    HW2 4671   0.663   1.493   2.803 -0.0119  1.5789  0.6736
31453SOL     OW 4672   3.434  12.550   0.061  0.0342  0.3292 -0.6250
31453SOL    HW1 4673   3.364  12.486   0.072 -1.7089  2.1428 -0.4101
31453SOL    HW2 4674   3.408  12.601  -0.016  0.5906  1.6586  0.0258
31454SOL     OW 4675   0.717   2.130   3.334  0.0935  0.1816  0.1987
31454SOL    HW1 4676   0.636   2.104   3.289 -0.6641  1.4305  0.7993
31454SOL    HW2 4677   0.712   2.225   3.341 -0.5202  0.0213  4.1137
31455SOL     OW 4678   4.454  11.670  10.124 -0.8313  0.1364 -0.0519
31455SOL    HW1 4679   4.497  11.656  10.208  0.7615 -1.6080 -1.0687
31455SOL    HW2 4680   4.366  11.635  10.136 -1.1662  1.3225  1.2920
31456SOL     OW 4681  11.147   2.420   9.117 -0.7062 -0.2301 -0.3503
31456SOL    HW1 4682  11.087   2.356   9.154 -1.9536  0.8694 -0.3992
31456SOL    HW2 4683  11.202   2.447   9.191 -0.6724 -0.7887 -0.1669
31457SOL     OW 4684   4.142   7.158   5.844 -0.2762  0.0393  0.3231
31457SOL    HW1 4685   4.216   7.210   5.876  1.0212 -0.7035 -1.3628
31457SOL    HW2 4686   4.076   7.224   5.820  0.0755  0.7396  1.2075
31458SOL     OW 4687   1.958   4.350  12.587 -0.3774  0.9047 -0.3028
31458SOL    HW1 4688   2.008   4.414  12.637 -1.5167  2.6785 -1.3359
31458SOL    HW2 4689   2.025   4.290  12.553  0.7002  1.3987  0.8524
31459SOL     OW 4690   9.935   5.807   5.475 -0.6326  0.0707 -0.2515
31459SOL    HW1 4691   9.863   5.747   5.458 -0.0153 -1.4149  1.9783
31459SOL    HW2 4692   9.895   5.894   5.472 -3.0263 -0.7538  2.7795
31460SOL     OW 4693   4.994   8.766   6.200 -0.6089 -0.3139 -0.2823
31460SOL    HW1 4694   4.981   8.672   6.205 -0.9169 -0.3487 -1.4630
31460SOL    HW2 4695   5.029   8.790   6.286 -0.8212 -1.4474  0.1377
31461SOL     OW 4696   1.222   3.777   0.801  0.5614  0.1600 -0.1303
31461SOL    HW1 4697   1.257   3.866   0.807 -0.8087  0.7227 -0.2817
31461SOL    HW2 4698   1.179   3.763   0.886  0.2821 -0.1546 -0.3245
31462SOL     OW 4699   2.114  10.901   4.934 -0.1877  0.2394 -0.7847
31462SOL    HW1 4700   2.153  10.980   4.897  1.1943 -0.8091 -1.6542
31462SOL    HW2 4701   2.171  10.830   4.905 -0.4698 -0.9173  1.2941
31463SOL     OW 4702  12.577  10.482   4.374 -0.2343  0.2817 -0.5160
31463SOL    HW1 4703  12.578  10.560   4.319 -0.0288  0.0603 -0.8228
31463SOL    HW2 4704  12.493  10.440   4.354  0.5567 -0.6825 -1.8938
31464SOL     OW 4705   6.399   9.549  11.900  0.1919 -0.4368 -0.4443
31464SOL    HW1 4706   6.396   9.635  11.859 -2.3194 -0.9732 -1.5656
31464SOL    HW2 4707   6.456   9.497  11.843 -0.2023 -0.1468 -1.1095
31465SOL     OW 4708   3.819   6.540  11.918  0.4056 -0.1255  0.3008
31465SOL    HW1 4709   3.846   6.623  11.879 -0.4283 -0.4464 -1.0465
31465SOL    HW2 4710   3.893   6.513  11.972  1.5032  0.4965 -0.8460
31466SOL     OW 4711   8.689  11.027   2.483  0.1607  0.4221  0.1763
31466SOL    HW1 4712   8.773  10.985   2.465 -1.7281 -2.7383 -2.1810
31466SOL    HW2 4713   8.667  10.998   2.572  0.4249 -0.8641 -0.1617
31467SOL     OW 4714  10.469   1.430   1.617  0.3933  0.2236 -0.1928
31467SOL    HW1 4715  10.558   1.420   1.651 -0.2355 -0.9717  1.1696
31467SOL    HW2 4716  10.463   1.364   1.548  1.0000  1.2889 -1.3174
31468SOL     OW 4717   2.938   4.716   5.033  0.4018  0.2853 -0.3469
31468SOL    HW1 4718   2.974   4.691   5.118 -1.4638 -1.0886  0.0868
31468SOL    HW2 4719   2.934   4.812   5.037  2.2474  0.3727  0.2702
31469SOL     OW 4720   3.839  12.175   5.222 -0.4671  0.8168  0.2482
31469SOL    HW1 4721   3.857  12.229   5.145  0.2035 -1.8758 -1.6149
31469SOL    HW2 4722   3.744  12.164   5.223 -0.4593  0.6942 -0.3209
31470SOL     OW 4723   2.172   4.759  11.654 -0.2003 -0.1382  0.0390
31470SOL    HW1 4724   2.210   4.719  11.733  0.0280  0.5467  0.2820
31470SOL    HW2 4725   2.210   4.710  11.581  1.5788  0.8640  0.2461
31471SOL     OW 4726   4.882   5.012   8.585 -0.7359 -0.8915  0.6962
31471SOL    HW1 4727   4.822   4.950   8.626 -1.3301 -1.4856 -1.0175
31471SOL    HW2 4728   4.829   5.061   8.523  0.2848 -0.4996  0.1058
31472SOL     OW 4729  12.111   9.122  12.831  0.3333  0.1206 -0.6885
31472SOL    HW1 4730  12.165   9.163  12.763 -1.0842  0.8767 -1.4149
31472SOL    HW2 4731  12.157   9.042  12.854  1.5554  0.5543 -1.5432
31473SOL     OW 4732  10.732   7.521  12.327  0.1406 -0.0529  0.0946
31473SOL    HW1 4733  10.752   7.612  12.350  0.2479  0.3287 -1.3842
31473SOL    HW2 4734  10.724   7.476  12.411  1.2780  1.0652  0.8448
31474SOL     OW 4735   1.070   1.555   8.249  0.1031  0.7680  0.4226
31474SOL    HW1 4736   1.034   1.483   8.300  2.5658 -1.1840 -0.4039
31474SOL    HW2 4737   1.160   1.563   8.279  1.1456  0.6439 -2.4005
31475SOL     OW 4738  11.724   7.944   9.739  0.2054  0.5673  0.4961
31475SOL    HW1 4739  11.644   7.996   9.747 -0.5684 -0.5601  0.3231
31475SOL    HW2 4740  11.716   7.879   9.809  0.7047  0.1041  0.1206
31476SOL     OW 4741   5.483   6.899   9.244  0.2932  0.4142  0.0021
31476SOL    HW1 4742   5.464   6.858   9.160 -1.8549 -1.2032  1.1540
31476SOL    HW2 4743   5.450   6.989   9.236  0.1610  0.2869 -0.8954
31477SOL     OW 4744   6.105   1.905   9.561 -0.0423  0.2410 -0.5682
31477SOL    HW1 4745   6.035   1.969   9.576 -1.0081 -1.0696  0.7439
31477SOL    HW2 4746   6.108   1.896   9.465 -0.5293  1.5318 -0.7262
31478SOL     OW 4747   3.414   0.964   0.591 -0.2486  0.3954  0.5204
31478SOL    HW1 4748   3.379   1.043   0.550  1.7844  0.8158 -0.5214
31478SOL    HW2 4749   3.338   0.923   0.633 -1.1870  3.4891  2.1483
31479SOL     OW 4750  12.697   8.204   9.362  0.0266  0.5218 -0.0558
31479SOL    HW1 4751  12.662   8.276   9.310  0.1912 -0.4549 -1.5821
31479SOL    HW2 4752  12.637   8.131   9.345  0.6955 -0.1196  0.2645
31480SOL     OW 4753   5.011   8.641   4.754 -0.4867  0.2756 -0.2239
31480SOL    HW1 4754   4.976   8.565   4.799  1.0481 -0.5317 -0.2974
31480SOL    HW2 4755   5.085   8.607   4.704  0.2072  1.7982 -0.3101
31481SOL     OW 4756   8.510   0.183   3.065 -0.4030 -0.2679 -0.0877
31481SOL    HW1 4757   8.536   0.128   3.139 -0.2898 -0.3610 -0.1956
31481SOL    HW2 4758   8.591   0.196   3.015 -0.3679  0.2234  0.0834
31482SOL     OW 4759   8.493  10.049   9.666  0.2853 -0.2669 -0.3606
31482SOL    HW1 4760   8.546  10.077   9.740  0.4906 -1.4533 -0.0532
31482SOL    HW2 4761   8.403  10.057   9.697  0.3102  0.5688 -0.4712
31483SOL     OW 4762   0.315   1.683   2.701  0.3113 -0.4136  0.1007
31483SOL    HW1 4763   0.257   1.695   2.625  1.1017 -0.8095 -0.5810
31483SOL    HW2 4764   0.395   1.729   2.677 -0.0690  1.0471  1.4786
31484SOL     OW 4765  11.317   8.645   5.239  0.0791  0.0025 -0.0154
31484SOL    HW1 4766  11.285   8.655   5.329  2.7738 -0.4575  1.0836
31484SOL    HW2 4767  11.337   8.735   5.211 -0.5825  0.1252 -0.1272
31485SOL     OW 4768   6.793  12.442   4.880  0.4266  0.5103  0.6767
31485SOL    HW1 4769   6.877  12.484   4.898 -0.2374  1.1501  2.4663
31485SOL    HW2 4770   6.729  12.495   4.928 -0.9975 -0.0243 -0.5737
31486SOL     OW 4771   0.925   7.769   3.031 -0.6712  0.4621 -0.6128
31486SOL    HW1 4772   1.018   7.777   3.051 -0.7730  2.8723 -0.8256
31486SOL    HW2 4773   0.905   7.677   3.050  1.3616  0.2589  1.0128
31487SOL     OW 4774  11.243  12.729  11.377 -0.1837 -0.1438  0.2568
31487SOL    HW1 4775  11.280  12.815  11.357 -0.6020  1.0578  3.9357
31487SOL    HW2 4776  11.286  12.669  11.315  1.9230  2.3220 -0.8380
31488SOL     OW 4777   0.884   8.976  10.598  0.4256  0.0580 -0.6046
31488SOL    HW1 4778   0.964   8.988  10.650 -0.9351  1.5477  1.2909
31488SOL    HW2 4779   0.856   8.887  10.618  1.0021 -0.0850 -0.3925
31489SOL     OW 4780   9.067   3.712   4.849 -0.4606  0.1887 -0.0988
31489SOL    HW1 4781   9.130   3.760   4.795  0.7155  0.2926  1.2887
31489SOL    HW2 4782   8.991   3.769   4.854  0.3660  1.2951  0.3339
31490SOL     OW 4783   5.390   6.792   2.781  0.2577 -0.0116  0.3099
31490SOL    HW1 4784   5.304   6.810   2.820  0.5947  1.9429  0.2162
31490SOL    HW2 4785   5.445   6.865   2.808  2.3938 -1.9557  1.6661
31491SOL     OW 4786   9.813   8.417   0.165  0.5354 -0.4551  0.0308
31491SOL    HW1 4787   9.763   8.378   0.236  1.6425  1.3857  1.9260
31491SOL    HW2 4788   9.816   8.510   0.186  0.6477  0.2327 -2.6307
31492SOL     OW 4789   4.369   1.565   3.160  0.2191 -0.2910  0.0148
31492SOL    HW1 4790   4.328   1.652   3.161  3.0415  1.1733 -0.6183
31492SOL    HW2 4791   4.413   1.558   3.244  2.8230  0.4675 -1.1800
31493SOL     OW 4792   1.205   3.023   9.565 -0.5271  0.2842 -0.0643
31493SOL    HW1 4793   1.274   3.076   9.606  0.9990 -0.6977 -1.2600
31493SOL    HW2 4794   1.138   3.086   9.540  0.9451  1.5989 -0.8642
31494SOL     OW 4795   5.254  10.707   3.551 -0.4889  0.3221 -0.4139
31494SOL    HW1 4796   5.187  10.657   3.597 -0.0578 -2.1989 -2.2416
31494SOL    HW2 4797   5.332  10.697   3.606 -0.3769 -1.2477 -0.7989
31495SOL     OW 4798   8.265   7.191   6.427 -0.3600  0.0723  0.5230
31495SOL    HW1 4799   8.227   7.261   6.480 -0.4966 -0.4204  1.0839
31495SOL    HW2 4800   8.359   7.195   6.445 -0.3953 -0.0366  0.7230
31496SOL     OW 4801   9.701   0.720   4.548  0.1212 -0.0301 -0.6178
31496SOL    HW1 4802   9.675   0.753   4.634 -0.7695  1.4992 -1.4159
31496SOL    HW2 4803   9.766   0.652   4.567 -0.2395  0.0800  1.2545
31497SOL     OW 4804   2.986  11.030   3.438  0.2814 -0.5244  0.2223
31497SOL    HW1 4805   2.905  11.041   3.390  0.3054  0.9067  0.4723
31497SOL    HW2 4806   2.963  10.976   3.514 -0.2314 -0.8739 -0.1819
31498SOL     OW 4807  10.127  12.412   9.957  0.0697 -0.2910 -0.2534
31498SOL    HW1 4808  10.138  12.471  10.032 -1.7205 -1.7673  1.2797
31498SOL    HW2 4809  10.092  12.468   9.888 -0.6002  0.6671  0.8181
31499SOL     OW 4810   4.142   3.254   6.573 -0.5570 -0.2201  0.2619
31499SOL    HW1 4811   4.086   3.329   6.554  1.0313  0.6173 -1.4141
31499SOL    HW2 4812   4.230   3.291   6.579  0.1328 -1.8126  0.3647
31500SOL     OW 4813   1.138   9.962   3.331  0.1064 -0.6460  0.3330
31500SOL    HW1 4814   1.201  10.032   3.317 -0.4371 -0.1301  0.4349
31500SOL    HW2 4815   1.111   9.936   3.242 -0.1177 -0.3331  0.3088
31501SOL     OW 4816   9.487   3.641  11.252 -0.4231 -0.5356  0.0803
31501SOL    HW1 4817   9.502   3.564  11.197 -1.0359 -1.0825  0.6409
31501SOL    HW2 4818   9.574   3.675  11.270 -0.1709 -0.8214 -0.5684
31502SOL     OW 4819   5.595   2.950   5.516  0.8211  0.7210  0.3309
31502SOL    HW1 4820   5.643   2.871   5.542 -0.3472 -0.4798 -1.0089
31502SOL    HW2 4821   5.663   3.017   5.507  2.4005 -1.0060 -1.8904
31503SOL     OW 4822  12.903   9.728   8.277 -0.2317 -0.1235 -0.9689
31503SOL    HW1 4823  12.817   9.755   8.245  0.3445  0.5874 -1.9656
31503SOL    HW2 4824  12.886   9.648   8.328 -1.6270  0.6687 -0.1395
31504SOL     OW 4825   1.048  12.061   9.554 -0.4888  0.7227 -0.0497
31504SOL    HW1 4826   1.071  12.133   9.496  1.0067  1.2256  1.0979
31504SOL    HW2 4827   0.973  12.093   9.604  0.0074  1.4127  0.2766
31505SOL     OW 4828   8.906  10.154  10.972  0.2278 -0.3908  0.4542
31505SOL    HW1 4829   8.894  10.112  10.887  0.9015 -0.6902  0.5018
31505SOL    HW2 4830   8.894  10.247  10.954 -1.5518 -0.5968  0.3976
31506SOL     OW 4831  11.425   6.609   9.440 -0.6508  0.1390  0.1055
31506SOL    HW1 4832  11.474   6.692   9.435 -1.1704  0.5454  1.4828
31506SOL    HW2 4833  11.428   6.575   9.350  1.7303  0.3811  0.0163
31507SOL     OW 4834   0.511   1.860   6.367  0.3721  0.3109  1.0334
31507SOL    HW1 4835   0.521   1.772   6.404  0.7358 -0.3318 -0.5344
31507SOL    HW2 4836   0.435   1.896   6.412 -0.1210 -1.0157  1.2977
31508SOL     OW 4837   8.493   5.418   5.449 -0.1094  0.0707 -0.0441
31508SOL    HW1 4838   8.498   5.339   5.502 -0.3065  0.6479  0.8492
31508SOL    HW2 4839   8.419   5.467   5.485 -1.0437 -0.0907 -1.6480
31509SOL     OW 4840   5.533   8.210  12.685 -0.2634 -0.0304  0.4331
31509SOL    HW1 4841   5.560   8.119  12.673 -0.5791 -0.0195 -0.4146
31509SOL    HW2 4842   5.440   8.210  12.663 -0.1116  0.6244 -0.2097
31510SOL     OW 4843   8.276   3.628   2.877  0.6898  0.3345 -0.1421
31510SOL    HW1 4844   8.273   3.707   2.931  1.3317  2.0076 -2.4054
31510SOL    HW2 4845   8.245   3.657   2.791 -1.1210 -2.3938 -0.5304
31511SOL     OW 4846   2.742   4.506  10.562 -0.4380  0.2129  0.2849
31511SOL    HW1 4847   2.652   4.521  10.533 -0.6830  1.7157  1.6537
31511SOL    HW2 4848   2.746   4.411  10.576 -1.3828 -0.0605 -1.0522
31512SOL     OW 4849   9.200   1.859   5.929  0.1393  0.2906 -0.3940
31512SOL    HW1 4850   9.285   1.902   5.930  1.2010 -1.6843  0.0382
31512SOL    HW2 4851   9.203   1.800   5.854 -1.4970  1.3161 -1.3279
31513SOL     OW 4852   9.201  11.058  10.538 -0.5844 -0.1462 -0.8491
31513SOL    HW1 4853   9.114  11.067  10.499 -1.2968 -1.3226  0.3510
31513SOL    HW2 4854   9.228  11.147  10.559 -1.7540  0.1957 -0.7305
31514SOL     OW 4855   5.752   0.958   5.492  0.2983  0.3409 -0.1748
31514SOL    HW1 4856   5.773   0.953   5.585  0.4201  0.9403 -0.1665
31514SOL    HW2 4857   5.659   0.979   5.490  0.5545  1.5441 -0.1657
31515SOL     OW 4858   0.970   0.416   4.943 -0.4526  0.5348  0.1049
31515SOL    HW1 4859   0.925   0.341   4.904  1.2578 -0.9427  0.8628
31515SOL    HW2 4860   1.059   0.413   4.907  0.0845  1.3070  1.2840
31516SOL     OW 4861  12.342   3.280   5.301  0.1639 -0.1006 -0.1431
31516SOL    HW1 4862  12.377   3.192   5.286  0.4285 -0.2417  1.1892
31516SOL    HW2 4863  12.355   3.296   5.395 -0.5771  1.0604 -0.2106
31517SOL     OW 4864   4.281   7.285  12.489  0.1261  0.4679  0.4459
31517SOL    HW1 4865   4.372   7.295  12.462  0.1624  1.9202  1.0173
31517SOL    HW2 4866   4.235   7.257  12.410  1.2897 -1.8748  0.5190
31518SOL     OW 4867  11.880  12.150  11.769  0.0020  0.1438  0.2103
31518SOL    HW1 4868  11.938  12.120  11.839  1.1546  0.9832 -0.3553
31518SOL    HW2 4869  11.934  12.150  11.690 -1.1689 -0.4222 -0.6331
31519SOL     OW 4870   9.677  11.264  11.731 -1.0010  0.4469  0.1226
31519SOL    HW1 4871   9.773  11.258  11.725 -1.0979 -0.8592 -0.5164
31519SOL    HW2 4872   9.657  11.237  11.821 -0.8844 -1.8184 -0.4566
31520SOL     OW 4873   0.109   1.298   1.342 -0.1189 -0.1331 -0.1663
31520SOL    HW1 4874   0.158   1.378   1.361  0.8110 -0.9676  1.1159
31520SOL    HW2 4875   0.174   1.228   1.345 -1.1644 -1.1349  0.3919
31521SOL     OW 4876   2.337   9.819  11.553  0.3344  0.0848 -0.4081
31521SOL    HW1 4877   2.426   9.815  11.516  0.6432 -2.8953  0.3915
31521SOL    HW2 4878   2.349   9.855  11.641  0.5252  0.9547 -0.7758
31522SOL     OW 4879   9.467   9.632  12.344 -0.2352 -0.1792  0.2053
31522SOL    HW1 4880   9.464   9.726  12.362  2.0218 -0.2471  1.3530
31522SOL    HW2 4881   9.392   9.596  12.391 -0.2805  0.8763  0.9819
31523SOL     OW 4882   9.758   4.268   8.953  0.4858  0.1727  0.4247
31523SOL    HW1 4883   9.727   4.179   8.969 -2.0928  0.5680 -1.5072
31523SOL    HW2 4884   9.814   4.260   8.876 -1.6074  0.3504 -1.2465
31524SOL     OW 4885   7.422   5.528   5.126 -0.6858  0.0022 -0.5959
31524SOL    HW1 4886   7.475   5.469   5.072  2.8852  1.0290  1.4497
31524SOL    HW2 4887   7.407   5.479   5.207  0.0102  0.9161  0.0952
31525SOL     OW 4888   7.740   8.432   3.535 -0.4356  0.1121 -0.5723
31525SOL    HW1 4889   7.756   8.368   3.605 -1.1805 -0.0169 -0.5113
31525SOL    HW2 4890   7.681   8.387   3.475 -1.1729  0.8266 -0.3985
31526SOL     OW 4891   9.081   1.456   1.885 -0.5980  0.1678 -0.0288
31526SOL    HW1 4892   9.097   1.372   1.927 -0.4981  0.7385  1.0975
31526SOL    HW2 4893   9.096   1.521   1.953 -0.3489  1.1309 -0.9658
31527SOL     OW 4894   1.362   8.547   3.070  0.0494 -0.1544  0.1459
31527SOL    HW1 4895   1.380   8.454   3.087  1.3089 -0.2097 -1.3092
31527SOL    HW2 4896   1.367   8.555   2.975  3.9567  2.1046  0.3539
31528SOL     OW 4897  10.699   0.978  11.086  0.6213 -0.1841 -0.3009
31528SOL    HW1 4898  10.606   0.985  11.067  0.9202  0.7442 -1.5124
31528SOL    HW2 4899  10.730   0.907  11.030  0.8206  0.1260 -0.5825
31529SOL     OW 4900   7.652  12.718   9.220 -0.3103 -0.0112 -0.3333
31529SOL    HW1 4901   7.719  12.683   9.279  0.1951 -0.4212 -1.1440
31529SOL    HW2 4902   7.632  12.646   9.161 -1.1144  0.2695 -0.4177
31530SOL     OW 4903   3.706   4.551  12.380  0.7489  0.2437 -0.3016
31530SOL    HW1 4904   3.692   4.595  12.297  0.5358 -0.6796 -0.7764
31530SOL    HW2 4905   3.649   4.474  12.376  0.0886  0.6233  1.0561
31531SOL     OW 4906   0.717   6.689   7.797  0.0236  0.2177 -0.8466
31531SOL    HW1 4907   0.766   6.754   7.847  0.2614 -0.3229 -0.3688
31531SOL    HW2 4908   0.773   6.611   7.798  0.3724  0.3893 -2.5491
31532SOL     OW 4909   4.479   3.055   4.638 -0.0741  0.0771  0.5347
31532SOL    HW1 4910   4.461   3.129   4.696 -2.6784 -0.0690  0.0286
31532SOL    HW2 4911   4.529   3.093   4.565 -2.0580  1.5752 -0.1355
31533SOL     OW 4912   8.782   1.036   6.797 -0.2967 -0.1264  0.2742
31533SOL    HW1 4913   8.850   0.996   6.851  0.7959  0.8912 -0.2827
31533SOL    HW2 4914   8.741   1.101   6.854  0.5454  0.6266  0.0489
31534SOL     OW 4915  12.229   1.216   5.710  0.8039  0.3300 -0.0756
31534SOL    HW1 4916  12.267   1.265   5.637 -0.3993  0.5890 -0.5515
31534SOL    HW2 4917  12.234   1.277   5.784 -0.2687  1.0194 -0.5561
31535SOL     OW 4918   2.389   9.579   5.688 -0.0520  0.1952  0.4662
31535SOL    HW1 4919   2.363   9.594   5.597  0.6041 -0.6521  0.1220
31535SOL    HW2 4920   2.469   9.630   5.699  1.3722 -1.7495 -0.2723
31536SOL     OW 4921   2.435  10.892   6.389 -0.4543 -0.2985  0.0631
31536SOL    HW1 4922   2.477  10.910   6.304  0.5108 -0.6354  0.4509
31536SOL    HW2 4923   2.383  10.813   6.374 -0.7617 -0.0227 -0.3596
31537SOL     OW 4924  10.650   9.242   7.931  0.2951  0.7296 -0.3630
31537SOL    HW1 4925  10.564   9.243   7.890 -0.1628  0.8056  0.5606
31537SOL    HW2 4926  10.699   9.313   7.889  0.8837 -1.0462 -2.8641
31538SOL     OW 4927   4.817   2.355  11.814 -0.0479 -0.0198  0.3337
31538SOL    HW1 4928   4.881   2.286  11.804 -0.2654 -0.2710  0.6520
31538SOL    HW2 4929   4.747   2.316  11.867 -0.5876  0.1669 -0.2286
31539SOL     OW 4930   0.775   0.744  10.440  0.4153  0.1453 -0.3187
31539SOL    HW1 4931   0.828   0.797  10.381  2.0422 -1.2904 -0.2300
31539SOL    HW2 4932   0.835   0.678  10.474 -1.3324 -1.2987  0.1467
31540SOL     OW 4933   9.861   6.855   1.622 -0.4232  0.0058 -0.1803
31540SOL    HW1 4934   9.885   6.822   1.535 -1.6241 -1.5352  0.0142
31540SOL    HW2 4935   9.932   6.825   1.679  0.5102  1.2605 -0.6338
31541SOL     OW 4936   8.687   7.856  10.086  0.7548 -0.3518 -0.3813
31541SOL    HW1 4937   8.751   7.789  10.062  0.0918 -0.2803 -2.5536
31541SOL    HW2 4938   8.627   7.859  10.012 -0.5170  1.0988  0.6586
31542SOL     OW 4939   2.663  10.722   3.373  0.0745  0.3594  0.1337
31542SOL    HW1 4940   2.644  10.814   3.388 -0.6704  0.5498 -1.6788
31542SOL    HW2 4941   2.578  10.678   3.382  0.4054 -0.1538  0.8829
31543SOL     OW 4942   1.587   9.429  10.429  0.3444  0.7316  0.1503
31543SOL    HW1 4943   1.633   9.498  10.476 -1.7984  1.9006  0.6702
31543SOL    HW2 4944   1.544   9.475  10.356  0.3065 -0.3726 -0.5467
31544SOL     OW 4945  10.022   3.055   9.016  0.7425  0.3812 -0.4237
31544SOL    HW1 4946  10.052   3.141   9.045  0.0533  0.2194  0.8605
31544SOL    HW2 4947   9.948   3.074   8.958 -0.2957  0.6598  0.9334
31545SOL     OW 4948  12.823   4.316  11.342 -0.2673 -0.3370 -0.4864
31545SOL    HW1 4949  12.889   4.367  11.389  0.0462 -1.5188  0.4066
31545SOL    HW2 4950  12.868   4.289  11.261  0.5790 -1.6066  0.3727
31546SOL     OW 4951   9.740   4.438   9.189  0.1927  0.0283  0.0220
31546SOL    HW1 4952   9.737   4.528   9.155  0.1802 -0.0838 -0.2745
31546SOL    HW2 4953   9.763   4.384   9.114  1.1568 -0.1160  0.4000
31547SOL     OW 4954   4.237   5.715   2.733  0.2352  0.0991  0.2218
31547SOL    HW1 4955   4.156   5.763   2.751  1.1387  1.3017  1.3330
31547SOL    HW2 4956   4.293   5.778   2.689  0.9208 -0.4180  0.3345
31548SOL     OW 4957   3.091   5.323  12.501 -0.6111 -0.5032 -0.2800
31548SOL    HW1 4958   3.099   5.376  12.421 -1.1426 -0.2944 -0.1981
31548SOL    HW2 4959   3.169   5.344  12.552 -1.2546  0.9110  0.1745
31549SOL     OW 4960   4.326   3.868   4.136 -0.2123 -0.4984  0.7233
31549SOL    HW1 4961   4.331   3.907   4.223  0.0180 -1.6855  1.2729
31549SOL    HW2 4962   4.278   3.932   4.083 -0.1733  0.3338  1.6668
31550SOL     OW 4963   7.326   9.571  11.777 -0.2620 -0.3926 -0.0435
31550SOL    HW1 4964   7.234   9.548  11.763 -0.1031 -1.3726  0.4311
31550SOL    HW2 4965   7.343   9.547  11.868  0.9547 -2.0393 -0.6449
31551SOL     OW 4966   1.229   5.030   3.848 -0.4120 -0.0905 -0.3781
31551SOL    HW1 4967   1.280   5.111   3.854  0.8671 -0.8595 -0.4890
31551SOL    HW2 4968   1.203   5.026   3.756  1.2467 -0.7767 -0.8644
31552SOL     OW 4969   5.271   9.937   9.716 -0.3115  0.4676  0.5958
31552SOL    HW1 4970   5.340   9.998   9.744  0.1034  0.2451  0.0797
31552SOL    HW2 4971   5.279   9.862   9.775 -0.7721  0.8728  1.1811
31553SOL     OW 4972   4.925   5.578   9.790  0.1129 -0.9604  0.4343
31553SOL    HW1 4973   4.998   5.573   9.852  0.0939 -0.0600  0.5500
31553SOL    HW2 4974   4.960   5.544   9.708  0.8274 -0.1041  0.3648
31554SOL     OW 4975   5.999   0.159   2.198 -0.0016 -0.0164  0.2716
31554SOL    HW1 4976   6.001   0.076   2.247  0.9997  0.4344  1.0394
31554SOL    HW2 4977   5.992   0.132   2.107  0.4039 -0.9630  0.5026
31555SOL     OW 4978   8.396   3.184   9.113 -0.5311  0.0088 -0.3916
31555SOL    HW1 4979   8.321   3.242   9.119 -0.3031  0.2161  0.5974
31555SOL    HW2 4980   8.366   3.101   9.150  0.5960  1.0060  3.1306
31556SOL     OW 4981   2.072   2.393   0.293 -0.3768 -0.0984  0.1315
31556SOL    HW1 4982   2.016   2.462   0.330 -1.3322 -0.3721 -0.7507
31556SOL    HW2 4983   2.053   2.315   0.345 -0.9346 -0.2274 -0.2629
31557SOL     OW 4984   4.228  12.980   5.289 -0.0497  0.2061  0.1234
31557SOL    HW1 4985   4.318  12.954   5.309 -0.2958 -0.9971 -0.2227
31557SOL    HW2 4986   4.188  12.997   5.375 -0.3079 -2.1814  0.5523
31558SOL     OW 4987   0.537   8.653   9.774 -0.2839  0.3880 -0.1397
31558SOL    HW1 4988   0.622   8.608   9.773 -1.0639 -1.1266 -0.7681
31558SOL    HW2 4989   0.474   8.585   9.798 -1.3514  1.4739  0.2525
31559SOL     OW 4990  11.389   4.721   5.625  0.0805  0.3776 -0.0015
31559SOL    HW1 4991  11.348   4.706   5.710  1.7125  0.1618  0.8072
31559SOL    HW2 4992  11.317   4.741   5.565 -1.0724  0.8721  1.5052
31560SOL     OW 4993   4.127  11.501   2.634 -0.3270  0.1662 -0.1142
31560SOL    HW1 4994   4.168  11.532   2.714 -1.4393  0.6626  0.2888
31560SOL    HW2 4995   4.100  11.411   2.655 -0.8687  0.3892  0.1880
31561SOL     OW 4996  10.144   3.428  11.463 -0.0231  0.0275  1.2239
31561SOL    HW1 4997  10.118   3.496  11.402  2.1555 -0.2231 -0.0743
31561SOL    HW2 4998  10.101   3.349  11.430  1.2882 -0.1471 -0.1687
31562SOL     OW 4999   6.049   9.960   6.304  0.0527  0.4304  0.1393
31562SOL    HW1 5000   6.061   9.930   6.395  4.1104 -0.6845 -0.5588
31562SOL    HW2 5001   6.083  10.049   6.303 -2.1789  1.3578  0.0555
31563SOL     OW 5002   0.181  11.649   1.604  0.2706 -0.3171  0.1651
31563SOL    HW1 5003   0.142  11.567   1.635 -1.4964  0.8976  1.2495
31563SOL    HW2 5004   0.107  11.704   1.579  1.2691  1.8572  1.7195
31564SOL     OW 5005   7.939  11.352   3.399  0.3548 -0.5380  0.0843
31564SOL    HW1 5006   7.909  11.264   3.381  1.7106 -0.4501 -3.4991
31564SOL    HW2 5007   7.865  11.408   3.376  0.3453 -0.6749 -0.2314
31565SOL     OW 5008   2.859  12.699  12.116  0.0016 -0.0082 -0.2382
31565SOL    HW1 5009   2.846  12.758  12.042  1.6630 -1.8234 -2.0864
31565SOL    HW2 5010   2.936  12.733  12.162  0.3098 -0.1228 -0.6679
31566SOL     OW 5011   0.054  10.111   8.952 -0.0182 -0.1349  0.4891
31566SOL    HW1 5012   0.030  10.166   8.877  0.3663  0.7717  1.0114
31566SOL    HW2 5013   0.110  10.168   9.006 -1.4838 -0.2380  2.2222
31567SOL     OW 5014   1.316   5.829   5.490 -0.3785 -0.3399  0.9637
31567SOL    HW1 5015   1.355   5.763   5.546 -1.4348 -0.2563  1.8160
31567SOL    HW2 5016   1.340   5.913   5.530  0.5115 -0.2105  0.1842
31568SOL     OW 5017  11.668  12.776  11.924 -0.0270 -0.3006 -0.5487
31568SOL    HW1 5018  11.642  12.868  11.921  1.3909  0.0937 -1.9353
31568SOL    HW2 5019  11.617  12.735  11.854 -0.1901 -0.4398 -0.3486
31569SOL     OW 5020  12.477  11.167  11.457  0.1165  0.0651  0.1208
31569SOL    HW1 5021  12.431  11.086  11.436  2.0618 -1.1069  0.0697
31569SOL    HW2 5022  12.423  11.209  11.523 -0.1235 -2.1538  1.4551
31570SOL     OW 5023   6.065   3.292   6.341 -0.6192  0.0852 -0.3576
31570SOL    HW1 5024   6.104   3.290   6.253 -0.8808 -4.0988 -0.5775
31570SOL    HW2 5025   5.976   3.259   6.328 -0.6474 -0.6482  1.4377
31571SOL     OW 5026   1.725   4.708   8.843  0.5129 -0.1018  0.1792
31571SOL    HW1 5027   1.803   4.655   8.827  0.8094  0.5311 -0.4781
31571SOL    HW2 5028   1.728   4.777   8.777  0.5327  1.1935  1.4919
31572SOL     OW 5029   8.210   3.728   2.634 -0.4011  0.4604  0.5580
31572SOL    HW1 5030   8.206   3.684   2.550  0.8471 -0.5076  0.9733
31572SOL    HW2 5031   8.132   3.782   2.637 -1.2140 -0.6122 -0.5973
31573SOL     OW 5032  11.466   1.419   1.653  0.3171  0.1565 -0.0866
31573SOL    HW1 5033  11.417   1.468   1.719 -0.4225  0.0719 -0.5721
31573SOL    HW2 5034  11.510   1.350   1.702 -1.8585 -1.1909  0.0611
31574SOL     OW 5035   4.887  12.292  11.976  0.3190  0.4723  0.2707
31574SOL    HW1 5036   4.977  12.312  12.004  0.7492 -1.9358  0.7764
31574SOL    HW2 5037   4.849  12.244  12.050 -0.6612 -0.4133 -0.7739
31575SOL     OW 5038  11.345   8.223   3.158  0.2167  0.2716 -0.5496
31575SOL    HW1 5039  11.306   8.169   3.227  2.5004 -1.5926 -0.5473
31575SOL    HW2 5040  11.424   8.259   3.198  0.1381  1.4204 -1.3922
31576SOL     OW 5041   6.293   7.414  10.293 -0.4220 -0.1066  0.7385
31576SOL    HW1 5042   6.267   7.322  10.303 -1.5304  0.1120  0.0438
31576SOL    HW2 5043   6.283   7.451  10.380  0.2109 -0.6697  1.0681
31577SOL     OW 5044   0.234  12.880   9.927  0.2372  0.4681  0.6921
31577SOL    HW1 5045   0.171  12.818   9.891  0.3174  0.1793  1.0477
31577SOL    HW2 5046   0.254  12.939   9.854 -1.9368  1.7860  1.0831
31578SOL     OW 5047   2.056  10.358  10.432 -0.0854  0.1138 -0.4974
31578SOL    HW1 5048   2.058  10.422  10.361  0.3483  0.3754 -0.2514
31578SOL    HW2 5049   2.015  10.404  10.506 -1.7074 -0.5483 -0.9425
31579SOL     OW 5050   7.379   0.493   8.858 -0.4220  0.2221 -0.2081
31579SOL    HW1 5051   7.394   0.401   8.837  1.3864  0.2673  0.7126
31579SOL    HW2 5052   7.399   0.500   8.951  0.9381  1.8026 -0.5710
31580SOL     OW 5053  11.305   3.736   7.177  0.9227  0.5704 -0.3222
31580SOL    HW1 5054  11.372   3.676   7.146  0.0801 -1.0248  0.8040
31580SOL    HW2 5055  11.249   3.751   7.101  0.2436 -1.3679 -0.2464
31581SOL     OW 5056   8.748  10.002   8.760 -0.1730 -0.0487  0.7565
31581SOL    HW1 5057   8.736  10.043   8.846 -2.1420  2.5727 -0.6022
31581SOL    HW2 5058   8.659   9.998   8.724  0.3778 -2.7177 -0.5355
31582SOL     OW 5059  11.131  11.518   5.082 -0.3380  0.5473 -0.5556
31582SOL    HW1 5060  11.104  11.508   4.990 -1.0118  1.4358 -0.4710
31582SOL    HW2 5061  11.154  11.611   5.090  2.9135 -0.1303 -0.6323
31583SOL     OW 5062   1.888   4.274   8.365 -0.1305 -0.0819  0.8135
31583SOL    HW1 5063   1.856   4.217   8.435  1.3755 -0.8479  0.9251
31583SOL    HW2 5064   1.963   4.227   8.328 -0.0966  0.9065 -0.4570
31584SOL     OW 5065   0.826   4.538   6.216  0.4592  0.5465  0.5564
31584SOL    HW1 5066   0.793   4.536   6.305  0.3884  0.3708  0.5260
31584SOL    HW2 5067   0.871   4.454   6.205 -0.9368 -0.1322 -0.1126
31585SOL     OW 5068   1.175   6.908   5.847 -0.3090 -0.8027 -0.7519
31585SOL    HW1 5069   1.079   6.916   5.850 -0.2356  0.2427 -0.6054
31585SOL    HW2 5070   1.205   6.965   5.918  0.4329 -0.8836 -0.9949
31586SOL     OW 5071   3.585  11.145   7.143 -0.2100 -0.7243 -0.0336
31586SOL    HW1 5072   3.625  11.143   7.056 -0.1726  0.5543 -0.0749
31586SOL    HW2 5073   3.656  11.125   7.203  0.5507  1.4581 -0.1120
31587SOL     OW 5074   7.237   1.977  11.821  0.4600  0.0017 -0.3932
31587SOL    HW1 5075   7.205   2.059  11.859  0.9020 -0.7435  1.7373
31587SOL    HW2 5076   7.240   1.917  11.895  0.5741 -1.8283 -1.8269
31588SOL     OW 5077  11.668  11.220   1.456 -0.3165 -1.0558  0.2415
31588SOL    HW1 5078  11.592  11.274   1.436  0.7895  0.6212  0.4121
31588SOL    HW2 5079  11.656  11.195   1.548 -2.3302 -3.7014 -0.6212
31589SOL     OW 5080  12.769   6.889   7.813  0.3609  0.2471 -0.0422
31589SOL    HW1 5081  12.756   6.826   7.743  1.4189 -1.5361  1.2919
31589SOL    HW2 5082  12.708   6.960   7.793  0.5948 -0.1978 -2.7194
31590SOL     OW 5083   9.609   3.235  11.421  0.5679  0.8429  0.3689
31590SOL    HW1 5084   9.569   3.254  11.336  0.8979  0.3483  0.0940
31590SOL    HW2 5085   9.667   3.309  11.438  2.6356 -0.3125 -1.1844
31591SOL     OW 5086  10.926   5.575  12.311 -0.1419 -0.0183  0.2152
31591SOL    HW1 5087  10.890   5.496  12.271  0.6186 -0.1112 -0.3024
31591SOL    HW2 5088  10.896   5.572  12.402 -0.7959 -0.4797 -0.0165
31592SOL     OW 5089   6.752   5.830   4.699 -0.4565 -0.1199  0.3254
31592SOL    HW1 5090   6.791   5.777   4.768 -0.0826 -0.4392 -0.1177
31592SOL    HW2 5091   6.680   5.776   4.665 -0.3001 -0.1994  0.1130
31593SOL     OW 5092  11.256   6.249   7.150 -0.2298  0.2321 -0.4372
31593SOL    HW1 5093  11.225   6.159   7.133 -0.8408 -0.0191  1.6926
31593SOL    HW2 5094  11.177   6.296   7.178  0.3684  1.0309 -0.0606
31594SOL     OW 5095   4.581  11.981  12.813  0.4345  0.3867  0.7312
31594SOL    HW1 5096   4.585  11.906  12.872 -0.8778 -0.1121  0.2043
31594SOL    HW2 5097   4.502  12.028  12.839  0.4267  0.7527  0.0611
31595SOL     OW 5098  10.565   5.533  10.478  0.0219  0.2721 -0.1092
31595SOL    HW1 5099  10.653   5.561  10.504 -0.0566 -0.6149  1.2284
31595SOL    HW2 5100  10.542   5.465  10.542  0.3481 -3.2228 -3.3892
31596SOL     OW 5101   2.843  12.229  11.312  0.9892 -0.1883 -0.3003
31596SOL    HW1 5102   2.863  12.151  11.260  0.8034  0.4752 -1.4024
31596SOL    HW2 5103   2.907  12.295  11.283  2.1678 -0.3545  1.7269
31597SOL     OW 5104   7.106   3.779   0.311  0.2977 -0.3883 -0.1465
31597SOL    HW1 5105   7.160   3.854   0.335 -0.7393  0.7571 -1.2589
31597SOL    HW2 5106   7.112   3.774   0.216 -0.1526 -1.3412 -0.1375
31598SOL     OW 5107   8.548   3.507   4.978 -0.7716 -0.1825  0.2551
31598SOL    HW1 5108   8.571   3.600   4.980  0.7792 -0.5484  1.1595
31598SOL    HW2 5109   8.459   3.505   4.944 -0.7205  1.6122 -0.0727
31599SOL     OW 5110   2.102   8.992  10.030 -0.0366  0.0614 -0.1609
31599SOL    HW1 5111   2.022   9.023   9.987  0.1225  0.4195 -0.2065
31599SOL    HW2 5112   2.076   8.912  10.075 -0.2096 -0.3124 -0.9143
31600SOL     OW 5113   2.418   3.913   9.157 -0.1265 -0.2409 -0.0578
31600SOL    HW1 5114   2.349   3.937   9.218  0.7327 -1.7743  1.6317
31600SOL    HW2 5115   2.433   3.992   9.105 -1.5042  0.8501  1.1145
31601SOL     OW 5116  12.519   9.094   4.163  0.3315  0.1622  0.2444
31601SOL    HW1 5117  12.585   9.160   4.184  0.6957 -0.0091 -0.3263
31601SOL    HW2 5118  12.450   9.142   4.117 -0.1497  0.4159  1.1976
31602SOL     OW 5119   2.911   9.573  10.486 -0.1415 -0.4893  0.2510
31602SOL    HW1 5120   2.988   9.526  10.454 -0.3242 -1.2103  0.8503
31602SOL    HW2 5121   2.863   9.509  10.538 -1.0038  0.0351  0.1260
31603SOL     OW 5122   4.124   6.249   3.295  0.4391 -0.4010  0.5051
31603SOL    HW1 5123   4.188   6.232   3.363  1.6592  1.2547 -0.1648
31603SOL    HW2 5124   4.117   6.345   3.292 -0.5039 -0.4810 -0.8479
31604SOL     OW 5125   6.263   3.666   6.154  0.4126  0.5279  0.2858
31604SOL    HW1 5126   6.211   3.590   6.127  0.7569  0.2741  0.3319
31604SOL    HW2 5127   6.240   3.734   6.091  1.6800 -0.2388 -1.0668
31605SOL     OW 5128   5.860  10.426   0.128  0.1847 -0.6185 -0.4384
31605SOL    HW1 5129   5.915  10.439   0.051  1.6441 -1.2784  0.4711
31605SOL    HW2 5130   5.788  10.489   0.116  0.3268 -0.7705 -2.3618
31606SOL     OW 5131   5.412   3.246   4.875 -0.0190 -0.2049  0.2589
31606SOL    HW1 5132   5.507   3.249   4.879  0.0112  0.8806 -0.7461
31606SOL    HW2 5133   5.387   3.180   4.940  1.4388 -0.8916  0.1589
31607SOL     OW 5134   4.766   7.198   3.554  0.0576 -0.4895 -0.1172
31607SOL    HW1 5135   4.830   7.166   3.490  1.4030 -2.2730  1.9673
31607SOL    HW2 5136   4.806   7.276   3.591 -0.2676 -0.0299 -0.7118
31608SOL     OW 5137   5.284   2.257   7.618 -0.3785  0.4406  0.0614
31608SOL    HW1 5138   5.261   2.335   7.668  1.0480  1.7135 -1.1850
31608SOL    HW2 5139   5.374   2.238   7.644 -0.7580 -0.9056  0.4611
31609SOL     OW 5140   5.526   5.410   4.947  0.0969 -0.0375  0.7737
31609SOL    HW1 5141   5.529   5.502   4.918  0.3863 -0.4741 -0.6903
31609SOL    HW2 5142   5.612   5.375   4.924 -0.1020 -0.7418  1.0883
31610SOL     OW 5143   1.123   2.736   8.637  0.4433 -0.2422  0.5211
31610SOL    HW1 5144   1.080   2.747   8.722 -1.2543  0.9604 -0.4325
31610SOL    HW2 5145   1.072   2.791   8.578  2.2912 -0.1453 -1.0557
31611SOL     OW 5146   2.476   2.017   5.879 -0.5188  0.1855  0.0673
31611SOL    HW1 5147   2.429   2.045   5.800  0.1143 -1.9710 -1.1362
31611SOL    HW2 5148   2.512   1.931   5.857  0.6155  0.0033  2.3454
31612SOL     OW 5149   5.228   2.877  12.801  0.5267 -0.0644 -1.1355
31612SOL    HW1 5150   5.288   2.811  12.837  0.6196 -1.0154 -2.9390
31612SOL    HW2 5151   5.226   2.859  12.707 -1.8580  0.5491 -1.2511
31613SOL     OW 5152   4.095   6.177   3.720 -0.4208 -0.3019  0.1041
31613SOL    HW1 5153   4.114   6.084   3.733 -1.8037 -0.5404  0.5870
31613SOL    HW2 5154   4.108   6.216   3.807 -1.8152 -0.4429  0.4102
31614SOL     OW 5155   1.627   2.202   8.492  0.0756 -0.1395  0.3941
31614SOL    HW1 5156   1.719   2.226   8.486  0.1143 -0.4152 -0.2178
31614SOL    HW2 5157   1.589   2.268   8.550  0.1843  1.4113 -1.1878
31615SOL     OW 5158   6.318  10.044   2.927 -0.3478  0.2701 -0.2210
31615SOL    HW1 5159   6.326  10.111   2.995  2.9094  0.6025 -0.7671
31615SOL    HW2 5160   6.327  10.092   2.845 -1.6292 -0.4559 -0.8151
31616SOL     OW 5161   1.060   0.536   3.041  0.2546 -0.3550  0.2570
31616SOL    HW1 5162   1.132   0.556   2.980  0.9620 -2.5615  0.2659
31616SOL    HW2 5163   1.103   0.524   3.126 -0.4892  0.8680  0.8267
31617SOL     OW 5164   1.693  10.799   0.566  1.5168 -0.0451 -0.3102
31617SOL    HW1 5165   1.707  10.719   0.617 -0.7756 -0.6117 -0.4689
31617SOL    HW2 5166   1.706  10.870   0.629  0.1359 -0.6768  0.7267
31618SOL     OW 5167   6.290  11.226   7.256  0.0085  0.0530  0.2717
31618SOL    HW1 5168   6.252  11.166   7.320 -0.0493 -1.5362 -1.1634
31618SOL    HW2 5169   6.228  11.299   7.252 -0.3723 -0.1838  1.4512
31619SOL     OW 5170   2.474   9.254  10.370  0.1348  0.5540  0.0351
31619SOL    HW1 5171   2.528   9.221  10.442  0.3022  1.2385  0.2276
31619SOL    HW2 5172   2.385   9.254  10.404  0.1623  0.5098  0.1063
31620SOL     OW 5173   0.608  10.127   6.084  0.1677  0.7449  0.1411
31620SOL    HW1 5174   0.565  10.088   6.160 -0.2222  2.1675  0.6831
31620SOL    HW2 5175   0.699  10.138   6.111 -0.1031  1.8440  0.6820
31621SOL     OW 5176   4.626  10.039   7.230 -0.5597 -0.0504 -0.1313
31621SOL    HW1 5177   4.643  10.109   7.293 -0.2882 -0.5981  0.4086
31621SOL    HW2 5178   4.612   9.961   7.283  0.8463 -0.7821 -0.7645
31622SOL     OW 5179   9.503   9.788   0.094 -0.4347  0.2805  0.0077
31622SOL    HW1 5180   9.556   9.715   0.128  1.2268  1.9055  1.1101
31622SOL    HW2 5181   9.422   9.784   0.146  0.7133  0.7188  1.9459
31623SOL     OW 5182  10.129   0.203   2.671  0.2160 -0.3208  0.0209
31623SOL    HW1 5183  10.132   0.154   2.589  0.5292  0.9603 -0.7608
31623SOL    HW2 5184  10.205   0.262   2.667 -1.1793  1.5706  0.0585
31624SOL     OW 5185   8.388   5.580   5.017  0.5403 -0.2378 -0.2127
31624SOL    HW1 5186   8.396   5.664   5.063 -0.7246  1.8221 -3.3774
31624SOL    HW2 5187   8.471   5.571   4.970 -1.1185  2.2277 -4.1047
31625SOL     OW 5188   0.490   3.602   1.426  0.0457  0.2754 -0.1370
31625SOL    HW1 5189   0.583   3.594   1.447  0.5960 -0.5735 -2.5297
31625SOL    HW2 5190   0.478   3.542   1.352 -2.7761 -0.8846  1.1171
31626SOL     OW 5191   9.122   9.307   4.173 -0.1795  0.0468  0.6548
31626SOL    HW1 5192   9.185   9.314   4.101 -0.2233  0.4616  0.6499
31626SOL    HW2 5193   9.162   9.358   4.244 -0.0165 -0.5694  1.0161
31627SOL     OW 5194   8.338   0.829  11.067  0.0650  0.5632 -0.9639
31627SOL    HW1 5195   8.268   0.835  11.132  0.3240  0.9719 -0.7215
31627SOL    HW2 5196   8.378   0.743  11.084 -0.8024  0.0333 -1.5449
31628SOL     OW 5197  12.464   7.949  12.816  0.9943  0.2569  0.2617
31628SOL    HW1 5198  12.381   7.994  12.801  0.9157  0.0005 -0.0833
31628SOL    HW2 5199  12.439   7.858  12.835  1.2018  0.1552  0.0475
31629SOL     OW 5200   1.628   1.480   2.648 -0.4086 -0.1138 -0.0074
31629SOL    HW1 5201   1.698   1.416   2.636 -0.5218 -0.5310  1.3773
31629SOL    HW2 5202   1.625   1.496   2.743 -2.8344 -0.8521  0.1136
31630SOL     OW 5203  10.608   9.394   8.507 -0.1797  0.1896 -0.2939
31630SOL    HW1 5204  10.547   9.371   8.437 -1.2019  0.5601  0.4544
31630SOL    HW2 5205  10.592   9.487   8.522 -0.4815 -0.0447  0.9144
31631SOL     OW 5206   5.686   8.660  11.967  0.1172 -0.3451 -0.2478
31631SOL    HW1 5207   5.768   8.707  11.976 -0.4784  0.5569  0.8076
31631SOL    HW2 5208   5.671   8.655  11.873  1.3372 -0.4708 -0.4456
31632SOL     OW 5209  10.269   7.814  10.099 -0.2476 -1.1850  0.1506
31632SOL    HW1 5210  10.342   7.818  10.038 -1.2624  2.1913 -1.0597
31632SOL    HW2 5211  10.301   7.861  10.177 -0.6664 -0.8347  0.1158
31633SOL     OW 5212   4.396   6.363   7.211 -0.1733  0.0718  0.7861
31633SOL    HW1 5213   4.338   6.348   7.286 -1.9972  0.8261 -0.3954
31633SOL    HW2 5214   4.447   6.440   7.235  0.8420 -0.9792  2.1080
31634SOL     OW 5215   6.229   0.344   9.089  0.0211 -0.4280  0.0342
31634SOL    HW1 5216   6.156   0.376   9.141 -0.8114 -2.2398  0.0297
31634SOL    HW2 5217   6.259   0.421   9.041 -1.0242  0.6346  1.0191
31635SOL     OW 5218  10.210  10.113   6.262 -0.0153  0.4066  0.0662
31635SOL    HW1 5219  10.210  10.174   6.336  1.9079 -0.3129  0.7155
31635SOL    HW2 5220  10.182  10.029   6.301 -0.4492  0.3573 -0.3471
31636SOL     OW 5221   2.841   9.608   7.717 -0.2564  0.1325 -0.0578
31636SOL    HW1 5222   2.774   9.572   7.776 -1.7515  1.6632 -0.7321
31636SOL    HW2 5223   2.825   9.563   7.634 -0.2306  0.2492 -0.1258
31637SOL     OW 5224   1.425   7.881   5.236  0.0233 -0.3440 -0.2441
31637SOL    HW1 5225   1.505   7.839   5.266  1.1036  0.0546 -2.4029
31637SOL    HW2 5226   1.396   7.828   5.162 -2.6317 -1.3875  1.3809
31638SOL     OW 5227  10.667   3.494   9.144 -0.6013  0.3944  0.4461
31638SOL    HW1 5228  10.591   3.434   9.144 -0.1886 -0.1375  0.4608
31638SOL    HW2 5229  10.702   3.488   9.233  1.1479 -1.5676 -0.3082
31639SOL     OW 5230   9.306   9.525   5.793  0.1837  0.3770  0.1873
31639SOL    HW1 5231   9.371   9.504   5.860 -0.2267  0.7101  0.6988
31639SOL    HW2 5232   9.291   9.619   5.803 -0.8103  0.2002  0.4777
31640SOL     OW 5233   1.849   3.548   5.975 -0.6175 -0.1980  0.0133
31640SOL    HW1 5234   1.832   3.510   5.889 -0.1498 -0.0434 -0.1507
31640SOL    HW2 5235   1.827   3.479   6.037 -0.4142 -0.5032 -0.2566
31641SOL     OW 5236  10.247   3.596  10.227 -0.5097 -0.0667  0.0610
31641SOL    HW1 5237  10.159   3.634  10.232  0.0052  1.1728  0.1932
31641SOL    HW2 5238  10.266   3.592  10.133 -0.9074 -0.8544  0.0055
31642SOL     OW 5239  12.347  11.993   1.812 -0.2958  0.2415  1.0371
31642SOL    HW1 5240  12.424  12.009   1.757  0.7163 -1.8184  1.7641
31642SOL    HW2 5241  12.363  12.045   1.890  0.7606 -0.7248  1.4965
31643SOL     OW 5242   0.850   1.131  10.192 -0.1135 -0.0494 -0.0307
31643SOL    HW1 5243   0.787   1.146  10.121 -0.2161  1.7706  0.3913
31643SOL    HW2 5244   0.803   1.156  10.271  1.1201  1.4014  0.2876
31644SOL     OW 5245   1.145  12.262   6.267 -0.6092  0.6350 -0.5484
31644SOL    HW1 5246   1.099  12.184   6.299 -0.8765  0.6572 -0.8814
31644SOL    HW2 5247   1.089  12.297   6.198  0.5337 -0.0853 -1.8909
31645SOL     OW 5248  10.038   0.275   9.428  0.3785  0.0879  0.5035
31645SOL    HW1 5249  10.114   0.274   9.487 -1.1356 -0.0580  2.5580
31645SOL    HW2 5250  10.029   0.367   9.404 -0.6977  0.7054  2.9592
31646SOL     OW 5251  10.601   5.308   9.018 -0.2540  0.4751  0.6557
31646SOL    HW1 5252  10.691   5.292   8.988 -0.3065  0.5066  0.4786
31646SOL    HW2 5253  10.569   5.222   9.045 -0.6353  0.2230 -0.5633
31647SOL     OW 5254   0.683   1.995   5.683 -0.4360  0.2070 -0.2955
31647SOL    HW1 5255   0.750   2.062   5.673 -1.5071  1.7476  1.9626
31647SOL    HW2 5256   0.707   1.949   5.764 -0.7999 -0.8480 -0.7720
31648SOL     OW 5257  11.858   2.862   6.989  0.1587  0.5991  0.3396
31648SOL    HW1 5258  11.892   2.934   6.936 -0.5317  1.2949  0.8093
31648SOL    HW2 5259  11.921   2.853   7.061  0.0195  1.0526  0.5279
31649SOL     OW 5260   3.341   4.548   1.789 -0.0417 -0.0008 -0.1733
31649SOL    HW1 5261   3.395   4.499   1.851  1.9185  1.3649 -0.6911
31649SOL    HW2 5262   3.274   4.590   1.844  0.7981  0.0577  0.8491
31650SOL     OW 5263  12.939   8.416   9.336  0.0165  0.3381  0.3581
31650SOL    HW1 5264  13.009   8.436   9.398 -0.1857 -2.0152  1.4658
31650SOL    HW2 5265  12.860   8.450   9.378  0.1484  0.6099  0.3891
31651SOL     OW 5266   7.007   7.896   1.777  0.3373 -0.3708  0.0717
31651SOL    HW1 5267   6.931   7.855   1.736  0.3342  0.3148 -0.6288
31651SOL    HW2 5268   6.970   7.961   1.836  0.2727 -2.4805  2.5258
31652SOL     OW 5269  11.238  12.654   9.703  0.3927 -0.2389 -0.7421
31652SOL    HW1 5270  11.218  12.739   9.743 -0.4460 -0.6788 -0.1887
31652SOL    HW2 5271  11.194  12.591   9.759 -1.2585 -0.8667 -2.6164
31653SOL     OW 5272   5.326   8.543  10.697 -0.5981  0.2169 -0.2528
31653SOL    HW1 5273   5.362   8.600  10.765 -2.1008 -0.3717  1.0673
31653SOL    HW2 5274   5.255   8.593  10.658 -1.3837 -0.4157  0.3452
31654SOL     OW 5275   0.522   5.355   4.940  0.2849  0.7996 -0.2244
31654SOL    HW1 5276   0.470   5.426   4.902 -1.8368  0.2943  1.5243
31654SOL    HW2 5277   0.573   5.397   5.009 -0.5969  0.7692  0.4752
31655SOL     OW 5278   0.655   0.488   2.551 -0.5247 -0.4344  0.7742
31655SOL    HW1 5279   0.576   0.437   2.569  0.0481 -1.8380 -0.4982
31655SOL    HW2 5280   0.624   0.559   2.494 -1.0601 -0.2637  1.2646
31656SOL     OW 5281   1.312   2.771   6.675  0.1750  0.6464 -0.5072
31656SOL    HW1 5282   1.316   2.687   6.721  0.0382  1.7420  1.6508
31656SOL    HW2 5283   1.219   2.793   6.675  0.1524  0.5848 -1.5151
31657SOL     OW 5284   0.831   5.183  11.692  0.2635  0.2645  0.1713
31657SOL    HW1 5285   0.862   5.161  11.780 -1.6148 -0.3745  0.7085
31657SOL    HW2 5286   0.802   5.100  11.655 -2.3268  0.9952  0.3665
31658SOL     OW 5287   0.412   0.596  11.060 -0.5198 -0.3809 -0.5606
31658SOL    HW1 5288   0.380   0.527  11.118 -1.1697  1.2226  1.0874
31658SOL    HW2 5289   0.335   0.647  11.037  0.0859  0.4140 -0.9122
31659SOL     OW 5290   7.335   2.957   5.925  0.1287 -0.4716 -0.5033
31659SOL    HW1 5291   7.425   2.975   5.951 -0.3077  1.3179 -0.1401
31659SOL    HW2 5292   7.295   2.918   6.003  0.7220 -1.9343 -0.8793
31660SOL     OW 5293   7.668   0.264   8.170  0.0828 -0.6214 -0.2541
31660SOL    HW1 5294   7.710   0.184   8.205 -0.7993 -1.3529 -0.8426
31660SOL    HW2 5295   7.644   0.241   8.081 -0.4296  0.2278 -0.3368
31661SOL     OW 5296   3.180   1.232  11.587  0.2548 -0.3779  0.1223
31661SOL    HW1 5297   3.138   1.291  11.524 -2.1234 -1.4116  0.6384
31661SOL    HW2 5298   3.200   1.288  11.662 -0.7698  0.0617  0.0945
31662SOL     OW 5299   1.578   2.349  11.452 -0.6162  0.0724  0.3421
31662SOL    HW1 5300   1.592   2.372  11.544 -0.1006 -0.6372  0.4510
31662SOL    HW2 5301   1.534   2.425  11.414 -2.2178 -0.2220  1.5205
31663SOL     OW 5302   1.720   4.491   3.834  0.4573 -0.2773 -0.1132
31663SOL    HW1 5303   1.643   4.524   3.880  1.7862  0.4164  1.7368
31663SOL    HW2 5304   1.685   4.435   3.765 -1.6897 -0.1480  0.8005
31664SOL     OW 5305   0.758   3.524   5.261  0.0871  0.0026 -0.1454
31664SOL    HW1 5306   0.682   3.545   5.206 -0.8137 -0.1010  0.9950
31664SOL    HW2 5307   0.770   3.603   5.314 -1.5363 -1.1869  2.1885
31665SOL     OW 5308  10.176   5.603   6.940  0.1838  0.5754  0.2380
31665SOL    HW1 5309  10.155   5.566   7.026 -1.1138  1.3813  0.3029
31665SOL    HW2 5310  10.248   5.664   6.956 -0.0620  0.7313  0.7613
31666SOL     OW 5311   9.856   9.200   5.148  0.3088  0.8552  0.0097
31666SOL    HW1 5312   9.937   9.185   5.101 -0.2920  0.9863 -1.0898
31666SOL    HW2 5313   9.815   9.114   5.155 -0.1312  1.0023 -0.7015
31667SOL     OW 5314   2.920   8.597   8.117  0.5894 -0.2550 -0.4368
31667SOL    HW1 5315   2.921   8.678   8.066  0.8292  0.7738  1.1505
31667SOL    HW2 5316   3.013   8.577   8.132  0.5133 -0.2552  0.0429
31668SOL     OW 5317   6.522  11.485   1.259  0.5939  0.0746  0.0928
31668SOL    HW1 5318   6.431  11.476   1.288  0.4458  1.0714 -0.0437
31668SOL    HW2 5319   6.553  11.395   1.251  0.1901 -0.2675  1.8923
31669SOL     OW 5320   3.905   6.548   1.934 -0.1738 -0.3981 -0.0507
31669SOL    HW1 5321   3.848   6.591   1.870 -0.0044 -0.2988 -0.1358
31669SOL    HW2 5322   3.921   6.614   2.001  1.2362  0.1722 -0.8854
31670SOL     OW 5323   8.577   8.868   6.610 -0.4483 -0.3325  0.0837
31670SOL    HW1 5324   8.609   8.838   6.695  1.0627 -0.3728 -0.4563
31670SOL    HW2 5325   8.638   8.937   6.585  0.5354 -1.8143 -1.9340
31671SOL     OW 5326   9.823   8.644  12.489  0.5726 -0.5759  0.1230
31671SOL    HW1 5327   9.742   8.668  12.444  1.0049 -0.2337 -0.4858
31671SOL    HW2 5328   9.883   8.619  12.418  1.4785  0.6255  0.4499
31672SOL     OW 5329   3.081  12.859   1.458 -0.0757 -0.2241 -0.2852
31672SOL    HW1 5330   3.093  12.772   1.495  0.4064 -0.2291 -0.4480
31672SOL    HW2 5331   2.987  12.865   1.440 -0.4820  0.1230  1.7596
31673SOL     OW 5332   5.231   0.177   7.607 -0.2999 -0.9262  0.0010
31673SOL    HW1 5333   5.275   0.161   7.690 -1.2842  1.3846  1.0501
31673SOL    HW2 5334   5.279   0.250   7.568 -1.1187 -0.6249 -0.4569
31674SOL     OW 5335   3.145   5.628   2.522 -0.1116 -0.3232 -0.1206
31674SOL    HW1 5336   3.234   5.653   2.498  0.3362  0.9673  2.4777
31674SOL    HW2 5337   3.156   5.560   2.589 -1.1206 -0.7693 -0.3772
31675SOL     OW 5338   5.370  11.297   2.933 -0.2115  0.0385 -0.0371
31675SOL    HW1 5339   5.407  11.242   2.864 -0.7086  1.8297 -1.8342
31675SOL    HW2 5340   5.445  11.345   2.968 -0.2885  1.1675 -1.3246
31676SOL     OW 5341   4.633   6.783  11.768 -0.3643  0.2056  0.0728
31676SOL    HW1 5342   4.648   6.812  11.678 -3.9682 -1.2483 -1.1634
31676SOL    HW2 5343   4.643   6.688  11.764 -3.5468 -0.2479  0.3459
31677SOL     OW 5344   3.974   4.790   7.665 -0.0120  0.3367 -0.0419
31677SOL    HW1 5345   3.918   4.823   7.594 -0.5274  0.9700  0.6366
31677SOL    HW2 5346   4.048   4.749   7.621  0.2693  1.7577 -0.9449
31678SOL     OW 5347   4.399   0.707   7.837 -0.4349  0.2899 -0.1876
31678SOL    HW1 5348   4.397   0.801   7.817  0.2158  0.4927  0.6669
31678SOL    HW2 5349   4.466   0.671   7.779  0.5595  0.6635  0.7048
31679SOL     OW 5350   6.231   1.699   2.285  0.3589  0.3098  0.3395
31679SOL    HW1 5351   6.223   1.788   2.252 -0.5882  0.3437  0.6184
31679SOL    HW2 5352   6.254   1.710   2.378  0.5430  0.2541  0.3017
31680SOL     OW 5353  11.808   0.000   4.444 -0.3526  0.3211  0.2315
31680SOL    HW1 5354  11.890  -0.045   4.463 -1.7474 -2.2085  0.6096
31680SOL    HW2 5355  11.762  -0.059   4.384 -2.7035  0.7529  1.5228
31681SOL     OW 5356   0.062   3.823  11.731 -0.2765  0.6909  0.4701
31681SOL    HW1 5357  -0.013   3.797  11.677 -0.8736  1.3821  0.9565
31681SOL    HW2 5358   0.114   3.743  11.739  0.7164  0.9203 -2.4879
31682SOL     OW 5359   2.819   3.939   0.420  0.3412 -0.0760 -0.6483
31682SOL    HW1 5360   2.883   3.890   0.368  1.0320  0.7258 -0.5784
31682SOL    HW2 5361   2.736   3.927   0.373  0.4019 -1.6074 -0.4224
31683SOL     OW 5362   0.098   2.785   5.474 -0.6583  0.2531 -0.2770
31683SOL    HW1 5363   0.044   2.822   5.543 -1.6093  1.7435 -1.7363
31683SOL    HW2 5364   0.182   2.766   5.516 -2.0052 -1.4029  1.8677
31684SOL     OW 5365   3.705   8.027   6.535  0.5884  0.1459 -0.4845
31684SOL    HW1 5366   3.705   7.999   6.444 -0.5711 -0.0248 -0.4455
31684SOL    HW2 5367   3.629   8.083   6.543  0.3305 -0.3175  0.5223
31685SOL     OW 5368   0.575  11.566   7.724 -0.1929 -0.2054  0.1410
31685SOL    HW1 5369   0.497  11.597   7.770  0.3452 -0.4760  1.2816
31685SOL    HW2 5370   0.546  11.490   7.675 -0.5095 -0.7616  1.1591
31686SOL     OW 5371   0.278   9.322   2.378 -0.0824  0.6369  0.4040
31686SOL    HW1 5372   0.330   9.245   2.401  0.4106  0.6016 -0.7673
31686SOL    HW2 5373   0.188   9.297   2.397 -0.1304 -0.8871 -1.5758
31687SOL     OW 5374  12.883   6.850  10.698 -0.1268 -0.8516  0.7454
31687SOL    HW1 5375  12.823   6.915  10.662 -0.8831 -1.6310  0.5430
31687SOL    HW2 5376  12.867   6.852  10.792 -1.5327 -2.0094  0.5845
31688SOL     OW 5377   4.761   3.726   7.637  0.1601  0.2342 -0.3842
31688SOL    HW1 5378   4.811   3.701   7.559  0.1759 -1.1699  0.0309
31688SOL    HW2 5379   4.671   3.735   7.606  0.3243  0.6615 -0.7428
31689SOL     OW 5380   3.593   4.084   8.915  0.5991  0.2259 -0.4984
31689SOL    HW1 5381   3.590   4.108   9.008 -0.9985 -1.0513 -0.1938
31689SOL    HW2 5382   3.659   4.015   8.910  0.6435  0.2559 -0.3209
31690SOL     OW 5383   0.166   4.367  10.030  0.0838  0.0366 -0.3460
31690SOL    HW1 5384   0.093   4.339  10.084  1.0077  1.6963  1.9372
31690SOL    HW2 5385   0.221   4.289  10.021 -1.0885 -0.7842 -0.6899
31691SOL     OW 5386  11.603   3.267   0.539 -0.0716 -0.3590 -0.1341
31691SOL    HW1 5387  11.652   3.311   0.470 -0.1951 -0.7959 -0.5067
31691SOL    HW2 5388  11.619   3.320   0.617  0.2402  0.0219 -0.4501
31692SOL     OW 5389   3.798   1.594   9.781  0.3096  0.3851 -0.6290
31692SOL    HW1 5390   3.775   1.645   9.858 -0.4714 -0.4734 -0.2764
31692SOL    HW2 5391   3.838   1.657   9.721 -0.3115  1.3285 -0.0650
31693SOL     OW 5392   0.594  10.833   6.512 -0.2370 -0.7904  0.5941
31693SOL    HW1 5393   0.573  10.808   6.422  0.3798 -0.2760  0.2990
31693SOL    HW2 5394   0.669  10.778   6.536  0.0999 -0.3677  0.5136
31694SOL     OW 5395   1.485   0.597   8.619 -0.5896 -0.2503 -0.1994
31694SOL    HW1 5396   1.493   0.690   8.598 -0.0184 -0.6595 -2.0369
31694SOL    HW2 5397   1.428   0.594   8.696 -0.8262  1.5910 -0.2588
31695SOL     OW 5398   7.835   7.808   0.911  0.2851  0.1999 -0.6743
31695SOL    HW1 5399   7.758   7.796   0.856 -1.0409  0.6497  1.0136
31695SOL    HW2 5400   7.812   7.878   0.971  1.5613 -0.4339  0.6462
31696SOL     OW 5401   1.914  10.943   8.388  0.6175 -0.2218 -0.7771
31696SOL    HW1 5402   1.887  11.030   8.359 -0.1389 -0.5121 -0.9401
31696SOL    HW2 5403   1.914  10.889   8.309  0.9821 -0.4062 -0.6567
31697SOL     OW 5404   8.533   6.492   3.794 -0.6668 -0.4631  0.4910
31697SOL    HW1 5405   8.616   6.496   3.746  0.9616 -1.8186  2.9753
31697SOL    HW2 5406   8.499   6.581   3.791  0.7684  0.0787 -0.7841
31698SOL     OW 5407  12.002  10.838  12.517  0.4205  0.3385 -0.2281
31698SOL    HW1 5408  12.009  10.933  12.526  0.0263  0.1912  2.3262
31698SOL    HW2 5409  12.062  10.816  12.445 -1.2474  2.7053 -2.5450
31699SOL     OW 5410   8.400   4.454   4.715  0.2530 -0.3910  0.5464
31699SOL    HW1 5411   8.311   4.488   4.703 -0.0852 -1.7955 -1.4110
31699SOL    HW2 5412   8.387   4.359   4.722  1.5796 -0.5754  0.6438
31700SOL     OW 5413   2.438   8.174   0.606 -0.5506 -0.4071  0.2549
31700SOL    HW1 5414   2.422   8.221   0.688  0.7503  0.4179  0.0721
31700SOL    HW2 5415   2.449   8.243   0.540 -3.3477 -1.0475 -1.0412
31701SOL     OW 5416   1.980   5.917   0.851 -0.0817 -0.3839 -0.1592
31701SOL    HW1 5417   1.994   5.935   0.943  0.4324 -0.2193 -0.2678
31701SOL    HW2 5418   1.934   5.994   0.818 -0.0193 -0.3205 -0.0991
31702SOL     OW 5419   6.466   1.296   7.464  0.4449  0.1388  0.2785
31702SOL    HW1 5420   6.425   1.234   7.525  0.1247  0.3928  0.3250
31702SOL    HW2 5421   6.517   1.355   7.520  1.7432 -0.8148  0.1395
31703SOL     OW 5422   3.316  11.283   1.790 -0.0275 -0.0244 -0.5718
31703SOL    HW1 5423   3.229  11.294   1.830  0.4960  2.0007  0.1256
31703SOL    HW2 5424   3.300  11.294   1.696 -0.5567  0.0336 -0.4823
31704SOL     OW 5425   3.722   3.067  12.751 -0.3188  0.6254  0.2599
31704SOL    HW1 5426   3.817   3.057  12.763  0.0431  2.2676 -0.8442
31704SOL    HW2 5427   3.699   3.002  12.685 -0.1367 -0.3655  1.1514
31705SOL     OW 5428   8.725  10.553   6.071 -0.2926  0.3477  0.7684
31705SOL    HW1 5429   8.752  10.540   5.980 -1.0566 -1.3904  0.7383
31705SOL    HW2 5430   8.751  10.472   6.116 -3.4380 -0.6033  1.1744
31706SOL     OW 5431   5.275   0.939   7.721 -0.1094  0.7036  0.3926
31706SOL    HW1 5432   5.241   0.881   7.654 -0.8679  0.0353  1.3231
31706SOL    HW2 5433   5.362   0.904   7.741  0.4078  1.3179 -0.6991
31707SOL     OW 5434   7.470   6.027   7.183 -0.4508 -0.1361  0.3506
31707SOL    HW1 5435   7.563   6.034   7.206  0.4023 -1.2941 -2.3240
31707SOL    HW2 5436   7.444   5.940   7.215 -0.3345 -0.2046  0.2607
31708SOL     OW 5437  12.177   1.032   2.827 -0.1344  0.3955  0.2048
31708SOL    HW1 5438  12.256   0.978   2.822 -1.0203 -0.9197  0.1126
31708SOL    HW2 5439  12.205   1.110   2.877  0.8031 -0.8159  1.6708
31709SOL     OW 5440   0.995   3.202   9.529  0.0512 -0.0372  0.7919
31709SOL    HW1 5441   0.926   3.257   9.566 -0.2175  0.1384  0.0619
31709SOL    HW2 5442   0.948   3.137   9.476  0.4111 -0.4067  0.9176
31710SOL     OW 5443   6.712  12.524   0.738  0.0428 -0.3532  0.3979
31710SOL    HW1 5444   6.707  12.447   0.680  0.1041 -0.2831  0.2990
31710SOL    HW2 5445   6.748  12.593   0.682 -1.0541  0.0533  0.1693
31711SOL     OW 5446   5.084   3.510   9.944 -0.4151  0.0577 -0.7400
31711SOL    HW1 5447   5.017   3.465   9.997 -0.6196 -0.2190 -1.2328
31711SOL    HW2 5448   5.145   3.441   9.918  2.1084  0.7648  2.6196
31712SOL     OW 5449   1.508   6.580   8.339 -0.3673  0.0694  0.2876
31712SOL    HW1 5450   1.581   6.519   8.345 -0.2884  0.1835  0.5062
31712SOL    HW2 5451   1.548   6.663   8.311 -0.4778  0.0153 -0.0374
31713SOL     OW 5452  10.502   3.950  11.907  0.1200 -0.8056 -0.0246
31713SOL    HW1 5453  10.522   4.043  11.911 -1.1303 -0.5342  0.2967
31713SOL    HW2 5454  10.583   3.909  11.875  1.7429  0.0162  2.7214
31714SOL     OW 5455  11.414   4.932  10.332  0.3298  0.2743  0.2698
31714SOL    HW1 5456  11.346   4.877  10.370  0.8882 -0.2030  0.6042
31714SOL    HW2 5457  11.370   4.981  10.262  0.4067 -2.7809 -2.1091
31715SOL     OW 5458   2.580  12.180   8.331  0.1859  0.1388 -0.2013
31715SOL    HW1 5459   2.605  12.135   8.411 -0.3515  1.4758  0.7495
31715SOL    HW2 5460   2.657  12.174   8.274  0.6221 -0.6876  0.4652
31716SOL     OW 5461   1.548   8.176  10.117  0.4361  0.0415 -0.0782
31716SOL    HW1 5462   1.470   8.231  10.123  1.3119  1.2716  0.3870
31716SOL    HW2 5463   1.604   8.206  10.188  0.3362 -2.4859  1.1759
31717SOL     OW 5464  10.676   8.664   4.522  0.1569  0.4667 -0.2275
31717SOL    HW1 5465  10.718   8.749   4.511  0.3444  0.2221 -1.7808
31717SOL    HW2 5466  10.607   8.663   4.456 -0.3638 -0.2809  0.3116
31718SOL     OW 5467   8.937   8.825  12.973  0.1833 -0.0153  0.3411
31718SOL    HW1 5468   8.870   8.799  12.910  0.2342 -1.9512  1.0384
31718SOL    HW2 5469   9.007   8.863  12.920 -0.2556 -0.5577 -0.6502
31719SOL     OW 5470  11.355   2.235  10.955 -0.7430  0.0874  0.3913
31719SOL    HW1 5471  11.305   2.153  10.952  2.8505 -2.2853 -0.0449
31719SOL    HW2 5472  11.392   2.236  11.043  1.1882 -0.0879 -0.3824
31720SOL     OW 5473  12.685   2.485   4.161 -0.5315 -0.3270 -0.0450
31720SOL    HW1 5474  12.742   2.487   4.237  0.4275  3.1302 -0.6758
31720SOL    HW2 5475  12.604   2.525   4.191 -0.6964 -0.3482 -0.4602
31721SOL     OW 5476   6.932   1.349   5.856  0.4037  0.0010 -0.0140
31721SOL    HW1 5477   6.937   1.355   5.760  2.5093 -2.0247 -0.1306
31721SOL    HW2 5478   6.842   1.323   5.874 -0.4072  1.7135 -1.3015
31722SOL     OW 5479   8.151  12.369   0.433 -0.0332  0.2373 -0.2860
31722SOL    HW1 5480   8.169  12.290   0.381 -1.1353 -0.3136  0.1340
31722SOL    HW2 5481   8.189  12.440   0.382 -0.1544 -0.4178 -1.3284
31723SOL     OW 5482  10.267   2.374   2.273 -0.0225  0.2353 -0.1908
31723SOL    HW1 5483  10.258   2.279   2.272 -0.2182  0.2551 -0.3033
31723SOL    HW2 5484  10.281   2.396   2.365  2.9897 -0.1751 -0.4398
31724SOL     OW 5485   8.516  10.877   5.386  0.0306  0.3344 -0.0130
31724SOL    HW1 5486   8.469  10.803   5.424 -0.2641  0.8335  0.6218
31724SOL    HW2 5487   8.599  10.879   5.434 -0.0918  0.5971  0.1909
31725SOL     OW 5488   3.034   7.387   5.129 -0.3013 -0.1693  0.5805
31725SOL    HW1 5489   2.953   7.393   5.079 -1.6932 -0.5837  2.6703
31725SOL    HW2 5490   3.082   7.467   5.106 -0.0392 -1.1204 -2.6444
31726SOL     OW 5491   4.330   7.719   1.925  0.6185  0.0955 -0.1508
31726SOL    HW1 5492   4.388   7.643   1.934 -1.1993 -2.1170 -4.1442
31726SOL    HW2 5493   4.372   7.773   1.857 -0.4903 -0.0464 -0.9845
31727SOL     OW 5494   9.769  10.025   7.586 -0.1065  0.3877  0.1827
31727SOL    HW1 5495   9.813   9.943   7.609  1.5701  1.1293 -0.2310
31727SOL    HW2 5496   9.780  10.080   7.663 -0.8490  0.3929  0.2926
31728SOL     OW 5497  11.563   0.836  11.940 -0.1193 -0.6464  0.0186
31728SOL    HW1 5498  11.608   0.812  11.859 -3.1426 -4.3200 -0.8826
31728SOL    HW2 5499  11.621   0.806  12.010  1.2014 -0.1910 -0.8436
31729SOL     OW 5500   4.228   4.823  12.390  0.2918 -0.0588 -0.0841
31729SOL    HW1 5501   4.136   4.828  12.365  0.1599  2.9934  0.5768
31729SOL    HW2 5502   4.233   4.748  12.449 -2.4979  1.3988  2.2805
31730SOL     OW 5503   2.425   2.165   4.649 -0.3075  0.0247  0.1814
31730SOL    HW1 5504   2.385   2.084   4.619 -0.9002 -0.4008  1.9939
31730SOL    HW2 5505   2.519   2.146   4.654 -0.5579 -1.0142  1.7847
31731SOL     OW 5506   0.104   5.987   0.068  0.2710 -0.4694  0.5464
31731SOL    HW1 5507   0.145   6.073   0.079  2.0787 -0.5091 -3.9457
31731SOL    HW2 5508   0.177   5.927   0.054 -1.0665 -2.1631  0.5189
31732SOL     OW 5509   0.430   3.647  12.676 -0.3389  0.5193  0.4075
31732SOL    HW1 5510   0.417   3.740  12.696 -1.9166  0.3091  0.4811
31732SOL    HW2 5511   0.501   3.620  12.735  0.9552  1.9182 -0.4304
31733SOL     OW 5512   8.136  10.670   2.415 -0.2471  0.2597 -0.4822
31733SOL    HW1 5513   8.123  10.609   2.343 -0.9093  0.1675 -0.2890
31733SOL    HW2 5514   8.230  10.688   2.414 -0.1707 -0.1355 -1.0444
31734SOL     OW 5515  10.980   6.085   8.012  0.2962  0.0707 -0.6373
31734SOL    HW1 5516  10.999   6.077   8.106 -0.6666  0.6404 -0.3803
31734SOL    HW2 5517  10.939   6.001   7.989  0.9486 -0.2472 -0.6604
31735SOL     OW 5518   4.452   0.180   9.532 -0.1888  0.0907 -0.2547
31735SOL    HW1 5519   4.363   0.155   9.507 -1.1842  2.8852  0.1029
31735SOL    HW2 5520   4.445   0.203   9.624  0.7943  0.7593 -0.3369
31736SOL     OW 5521   3.516   9.341   4.080 -0.4003  0.3845 -0.0331
31736SOL    HW1 5522   3.450   9.406   4.057  0.6547  0.8728 -1.8865
31736SOL    HW2 5523   3.599   9.384   4.062  0.4354 -0.5001  1.4722
31737SOL     OW 5524   2.956   2.850   8.304  0.0469  0.4928 -0.0083
31737SOL    HW1 5525   2.988   2.851   8.394  0.9594  0.8055 -0.3241
31737SOL    HW2 5526   2.930   2.941   8.287 -3.9651 -0.2104  1.2122
31738SOL     OW 5527   9.525   2.761  11.582  0.7597 -0.2660  0.2507
31738SOL    HW1 5528   9.497   2.838  11.533  1.1333 -0.4418 -0.2469
31738SOL    HW2 5529   9.519   2.689  11.520  0.0778 -0.7026  0.8137
31739SOL     OW 5530   0.976   6.168   1.977 -0.1840 -0.1240 -0.4461
31739SOL    HW1 5531   0.908   6.107   2.007  0.9300 -1.2038 -0.0424
31739SOL    HW2 5532   0.961   6.247   2.029 -2.2438  0.3496 -1.6509
31740SOL     OW 5533   0.819   9.105   2.881 -0.2382 -0.3515  0.1376
31740SOL    HW1 5534   0.738   9.054   2.873  0.5070 -1.6136  0.3550
31740SOL    HW2 5535   0.790   9.195   2.896 -1.6401 -0.1662 -2.9134
31741SOL     OW 5536   2.060   4.044  11.630 -0.2624 -0.2129  0.1050
31741SOL    HW1 5537   1.981   4.097  11.620  0.3736  0.8070  0.2632
31741SOL    HW2 5538   2.089   4.060  11.720  0.0051 -0.7419  0.1178
31742SOL     OW 5539   2.628  12.390  11.827  0.6786  0.3777  0.0646
31742SOL    HW1 5540   2.557  12.445  11.861  0.2695 -0.7733  1.1613
31742SOL    HW2 5541   2.623  12.400  11.732 -0.1191  1.3126  0.1897
31743SOL     OW 5542   8.498   8.316  12.783  0.6382  0.1341  0.4161
31743SOL    HW1 5543   8.491   8.411  12.790  1.0066  0.2437 -0.5453
31743SOL    HW2 5544   8.410   8.283  12.804  0.0528  0.7951 -0.8996
31744SOL     OW 5545   6.021   3.397   2.555  0.2107  0.0605 -1.1466
31744SOL    HW1 5546   6.025   3.482   2.512 -1.0711  1.3094  1.0618
31744SOL    HW2 5547   6.100   3.391   2.607  0.1496  0.0303 -1.0567
31745SOL     OW 5548   8.041   9.149   9.862  0.5431  0.0232 -0.5020
31745SOL    HW1 5549   7.951   9.180   9.863  0.4905 -0.1375 -0.0537
31745SOL    HW2 5550   8.062   9.138   9.769 -0.1476 -0.6488 -0.5840
31746SOL     OW 5551   2.712   8.474  12.588 -0.2685 -0.2067 -0.2156
31746SOL    HW1 5552   2.675   8.443  12.671 -3.1742  0.6504 -1.0615
31746SOL    HW2 5553   2.719   8.395  12.535  0.4127 -0.5803  0.4132
31747SOL     OW 5554   5.862   9.760   9.540 -0.5972 -0.3153 -0.9828
31747SOL    HW1 5555   5.782   9.789   9.496 -1.1956 -1.5656 -0.7547
31747SOL    HW2 5556   5.831   9.708   9.614  0.3771 -2.7328 -2.1608
31748SOL     OW 5557   4.795   2.935  12.204  0.0969 -0.2155 -0.5415
31748SOL    HW1 5558   4.860   2.914  12.137  1.3100  0.5256  0.3734
31748SOL    HW2 5559   4.750   2.851  12.221  3.5642 -1.8262  1.7182
31749SOL     OW 5560   4.664   4.271   4.445 -0.2989  0.5334 -0.0020
31749SOL    HW1 5561   4.596   4.250   4.382  1.5280 -0.5838 -1.7377
31749SOL    HW2 5562   4.683   4.188   4.489 -0.2658  0.8949  0.6805
31750SOL     OW 5563   7.918   7.706   7.614  0.2219  0.0259  0.0601
31750SOL    HW1 5564   7.879   7.775   7.667  0.0581 -0.1327  0.1445
31750SOL    HW2 5565   7.849   7.680   7.553 -0.0976 -0.8518  0.7689
31751SOL     OW 5566   1.745  11.545  10.249  0.7237  0.1629 -0.7187
31751SOL    HW1 5567   1.723  11.455  10.228  1.3741  0.2584 -1.9181
31751SOL    HW2 5568   1.675  11.575  10.307  1.5949 -1.7454  1.4701
31752SOL     OW 5569   2.947   7.149   2.944 -0.0167  0.1219 -0.0104
31752SOL    HW1 5570   2.984   7.112   3.024  1.7505 -2.0417 -1.6979
31752SOL    HW2 5571   3.023   7.182   2.895 -0.8673  0.1371 -1.3920
31753SOL     OW 5572   9.467  11.170   3.496 -0.1414 -0.1846  0.2974
31753SOL    HW1 5573   9.436  11.251   3.537 -0.5274 -0.6641  0.9713
31753SOL    HW2 5574   9.399  11.147   3.432  1.2361  1.4721 -1.9316
31754SOL     OW 5575   0.102   4.755   4.558  0.7053  0.0435 -0.2242
31754SOL    HW1 5576   0.095   4.660   4.562  0.1062  0.1141  0.5515
31754SOL    HW2 5577   0.196   4.772   4.563  0.7643 -0.4735  0.5652
31755SOL     OW 5578   9.964   0.946  10.261 -0.3246 -0.2937  0.4792
31755SOL    HW1 5579  10.023   0.930  10.187  0.7782 -0.9089  1.4675
31755SOL    HW2 5580  10.018   0.993  10.324 -0.7466 -1.2884  1.6022
31756SOL     OW 5581  12.725   0.705  12.426  0.5028 -0.0569  0.2466
31756SOL    HW1 5582  12.798   0.664  12.472 -0.8493 -1.5917  1.1624
31756SOL    HW2 5583  12.748   0.797  12.419  2.5156 -0.5071  0.4650
31757SOL     OW 5584   8.090   8.794  10.168  0.4414 -0.3424  0.1299
31757SOL    HW1 5585   8.071   8.723  10.106 -2.5717  1.6063 -1.3767
31757SOL    HW2 5586   8.120   8.866  10.113  2.2135  0.0432  1.5165
31758SOL     OW 5587  10.296  10.927   1.841 -0.5634  0.1251 -0.0335
31758SOL    HW1 5588  10.281  10.834   1.859 -0.2404  0.4713  2.3272
31758SOL    HW2 5589  10.391  10.938   1.850 -0.9144  1.3237  3.6905
31759SOL     OW 5590   1.183   3.333   4.000  0.0084 -0.0828 -0.0971
31759SOL    HW1 5591   1.206   3.405   3.943 -0.4800  1.5597  1.6747
31759SOL    HW2 5592   1.088   3.330   3.998 -0.0128 -0.0269  0.5800
31760SOL     OW 5593   0.115   5.873  12.033 -0.4409  0.1726  0.1594
31760SOL    HW1 5594   0.208   5.888  12.016 -0.4721 -0.8090 -0.9810
31760SOL    HW2 5595   0.110   5.782  12.062 -0.8665  0.7192  1.9141
31761SOL     OW 5596   3.965   6.724   6.741 -1.1661  0.0593 -0.9911
31761SOL    HW1 5597   3.933   6.794   6.684  0.4635  1.3828 -0.3710
31761SOL    HW2 5598   4.057   6.712   6.715 -0.6405  0.0715  0.7221
31762SOL     OW 5599   0.845   9.071  12.136 -0.1948  0.0663 -0.0597
31762SOL    HW1 5600   0.828   9.121  12.216 -0.8376 -1.2366  0.6369
31762SOL    HW2 5601   0.769   9.014  12.126  0.3086 -0.4597 -1.0953
31763SOL     OW 5602  11.215   7.199   0.972 -0.1195  0.3835  1.1538
31763SOL    HW1 5603  11.245   7.123   0.923 -2.3914 -1.0112  1.7989
31763SOL    HW2 5604  11.275   7.204   1.047  1.7536  0.9713 -0.3099
31764SOL     OW 5605  10.624   4.982   2.440 -0.2375  0.4770  0.2686
31764SOL    HW1 5606  10.702   4.984   2.495 -1.0435  2.9798  1.4607
31764SOL    HW2 5607  10.579   5.064   2.460 -3.9741 -1.4881  0.8299
31765SOL     OW 5608   0.275   9.000   7.552  0.2579  0.0586  0.2977
31765SOL    HW1 5609   0.212   8.932   7.530 -0.2641 -0.5271  3.1702
31765SOL    HW2 5610   0.328   9.010   7.473 -1.1069 -2.0236 -0.9918
31766SOL     OW 5611   1.260  10.209   3.282  0.3315  0.3647 -0.1678
31766SOL    HW1 5612   1.192  10.244   3.339  0.5290  0.4107  0.0398
31766SOL    HW2 5613   1.260  10.266   3.205  0.1010  0.3330 -0.1924
31767SOL     OW 5614   0.799   0.033   3.589 -0.4690 -1.0161  0.6943
31767SOL    HW1 5615   0.708   0.057   3.604 -0.3538 -0.3937  0.4492
31767SOL    HW2 5616   0.839   0.034   3.676  0.1050  2.1637  0.5354
31768SOL     OW 5617   3.122   5.007   9.223 -0.0976  0.3157  0.3588
31768SOL    HW1 5618   3.096   4.921   9.255  0.1643  0.7462  1.7751
31768SOL    HW2 5619   3.213   4.997   9.196 -0.3954 -0.1103 -0.5455
31769SOL     OW 5620   6.043   2.299   8.195  0.4098  0.1563  0.1221
31769SOL    HW1 5621   5.995   2.329   8.272 -2.5593 -0.8106 -1.1789
31769SOL    HW2 5622   6.071   2.210   8.218  0.3094  0.1992  0.4172
31770SOL     OW 5623   4.635   7.812   4.770  0.4757 -0.2254  0.3067
31770SOL    HW1 5624   4.697   7.756   4.722  0.3136 -1.7719  1.8057
31770SOL    HW2 5625   4.593   7.753   4.832  1.4368  1.8518  3.1340
31771SOL     OW 5626  11.433   9.457  10.733  0.4853  0.0063 -0.4076
31771SOL    HW1 5627  11.398   9.462  10.822  1.4831  0.8056 -0.0518
31771SOL    HW2 5628  11.446   9.363  10.719  1.2688 -0.0695  0.6759
31772SOL     OW 5629  12.813   1.712  10.642 -0.2679 -0.3198 -0.5203
31772SOL    HW1 5630  12.726   1.697  10.678 -0.8105 -1.0103 -2.0197
31772SOL    HW2 5631  12.806   1.796  10.596 -0.7477 -1.2392 -2.2357
31773SOL     OW 5632   2.990   3.083   7.293 -0.1445 -0.6740 -0.2104
31773SOL    HW1 5633   3.033   2.998   7.290 -0.2094 -0.7396  0.5475
31773SOL    HW2 5634   3.049   3.138   7.346 -0.3784 -0.4144 -0.2171
31774SOL     OW 5635  12.596  12.614   0.072 -0.4367  0.3146  0.4249
31774SOL    HW1 5636  12.659  12.590   0.140  1.3106 -0.2148 -1.2941
31774SOL    HW2 5637  12.551  12.533   0.050  0.3916  0.0596 -0.3848
31775SOL     OW 5638   6.707  12.685  11.518  0.3784 -0.3660  0.0620
31775SOL    HW1 5639   6.669  12.696  11.431  0.8797  1.2035 -0.0005
31775SOL    HW2 5640   6.636  12.647  11.570 -1.1862  1.9492 -0.1838
31776SOL     OW 5641   0.882   5.291   0.380  0.7057  0.2895 -0.2284
31776SOL    HW1 5642   0.896   5.213   0.432  1.2828  0.2687 -0.4075
31776SOL    HW2 5643   0.788   5.294   0.365  0.9181 -2.0841 -2.8357
31777SOL     OW 5644   9.025  12.931   3.000 -0.2089  0.1304 -0.1329
31777SOL    HW1 5645   8.937  12.912   3.031 -0.4870  0.4850 -0.7092
31777SOL    HW2 5646   9.075  12.947   3.080 -1.0719  1.7080  0.1175
31778SOL     OW 5647   4.227   3.261  10.935  0.5810  0.4367 -0.5169
31778SOL    HW1 5648   4.283   3.292  11.006  1.5185 -2.4250  0.1031
31778SOL    HW2 5649   4.287   3.238  10.864 -0.1418  0.8371 -1.2819
31779SOL     OW 5650   5.170   3.253   9.810 -0.2710  0.2371  0.0883
31779SOL    HW1 5651   5.162   3.199   9.889 -0.8352  0.4313  0.1730
31779SOL    HW2 5652   5.244   3.217   9.763 -0.6641 -0.6285  0.1238
31780SOL     OW 5653   4.590   0.978  12.950  0.1893 -0.0736 -0.0135
31780SOL    HW1 5654   4.667   1.035  12.946  0.0053  0.2898  1.2308
31780SOL    HW2 5655   4.527   1.027  13.003 -1.5571  0.4006 -2.3564
31781SOL     OW 5656   2.972   4.234   0.094  0.0984 -0.0909  0.3677
31781SOL    HW1 5657   2.973   4.182   0.174  1.7279  1.5569  1.5146
31781SOL    HW2 5658   2.912   4.306   0.112  0.8852  0.5886  0.3467
31782SOL     OW 5659   2.561  10.693  12.729  0.2960 -0.2587 -0.3855
31782SOL    HW1 5660   2.654  10.683  12.747  0.1188 -1.4165 -0.0778
31782SOL    HW2 5661   2.551  10.666  12.638  0.8237  3.4588 -1.7434
31783SOL     OW 5662   0.413   7.295   3.628  0.4218  0.0163  0.3974
31783SOL    HW1 5663   0.505   7.281   3.647  0.6120  0.7486  0.0451
31783SOL    HW2 5664   0.409   7.382   3.589 -0.1543 -0.7347 -1.3471
31784SOL     OW 5665   1.536  11.398   2.806 -0.3156 -0.0171 -0.0300
31784SOL    HW1 5666   1.532  11.304   2.789 -1.1778 -0.0477  0.2951
31784SOL    HW2 5667   1.447  11.422   2.831 -0.0209  0.8171  0.2637
31785SOL     OW 5668   8.085   8.364   1.821 -0.2084 -0.3501 -0.1861
31785SOL    HW1 5669   8.030   8.424   1.871  0.5516  0.4033 -0.2266
31785SOL    HW2 5670   8.075   8.391   1.730 -1.5509 -1.6870 -0.4748
31786SOL     OW 5671   4.210  10.772   0.314  0.1598  0.1115  0.3995
31786SOL    HW1 5672   4.149  10.701   0.333  0.6336 -0.1463  1.0050
31786SOL    HW2 5673   4.267  10.737   0.244  0.7475 -0.3264  1.0834
31787SOL     OW 5674   3.566  10.982   2.086  0.0842  0.2192  0.2175
31787SOL    HW1 5675   3.645  11.024   2.054  0.9250 -1.1475  0.4434
31787SOL    HW2 5676   3.499  11.051   2.082  1.5016  1.6981  0.9981
31788SOL     OW 5677   1.542  10.809  10.861  0.7283  0.0858  0.0834
31788SOL    HW1 5678   1.559  10.819  10.768  0.0803 -1.1326 -0.1884
31788SOL    HW2 5679   1.523  10.898  10.892  4.1533  1.0487 -0.2181
31789SOL     OW 5680  11.401  10.059   9.281  0.5313 -0.0413 -0.0105
31789SOL    HW1 5681  11.459  10.072   9.206 -0.2165  0.7091 -0.4841
31789SOL    HW2 5682  11.346  10.138   9.282  1.5274  0.7108  2.2563
31790SOL     OW 5683   0.006   2.994   2.811 -0.3185 -0.1351  0.1056
31790SOL    HW1 5684  -0.020   3.004   2.903 -2.4110 -0.3926 -0.4076
31790SOL    HW2 5685   0.086   2.943   2.814 -0.5831 -0.5112  1.7825
31791SOL     OW 5686   8.514   9.459   9.288 -0.0998 -0.0457 -0.0802
31791SOL    HW1 5687   8.567   9.442   9.210  0.3360  1.3973 -0.1168
31791SOL    HW2 5688   8.560   9.415   9.359  0.1906 -0.2815 -0.4112
31792SOL     OW 5689  12.531   7.939   2.488 -0.3873  0.2496  0.0788
31792SOL    HW1 5690  12.620   7.973   2.501 -0.3886  0.2711  0.0278
31792SOL    HW2 5691  12.479   8.015   2.464 -0.0540 -0.0579 -1.7107
31793SOL     OW 5692   4.865   1.315   2.730  0.7616  0.2689 -0.4128
31793SOL    HW1 5693   4.792   1.254   2.732 -1.5990  2.8427 -1.1000
31793SOL    HW2 5694   4.938   1.265   2.693 -1.3151 -1.7912 -1.9872
31794SOL     OW 5695   1.176   1.931   5.111  0.0695  0.4000 -0.3281
31794SOL    HW1 5696   1.263   1.949   5.147  0.1130  0.1542 -0.3076
31794SOL    HW2 5697   1.191   1.859   5.050 -0.3284 -0.4683  0.5826
31795SOL     OW 5698   4.422   5.697   3.116 -0.4172 -0.2992  0.2555
31795SOL    HW1 5699   4.401   5.647   3.195 -2.1094  0.5872  0.4004
31795SOL    HW2 5700   4.439   5.785   3.148  1.2997 -0.4483 -0.1439
31796SOL     OW 5701   2.180   6.946   8.035 -0.1841  0.0448 -0.0058
31796SOL    HW1 5702   2.114   6.932   7.967  0.9384  0.5974 -1.2588
31796SOL    HW2 5703   2.263   6.927   7.992  0.6740  1.7414  0.7989
31797SOL     OW 5704   9.699  10.795  12.185  0.6426 -0.0607  0.8109
31797SOL    HW1 5705   9.627  10.734  12.198 -0.2822  0.7930 -0.1609
31797SOL    HW2 5706   9.741  10.766  12.104  0.0795  0.6741  0.2368
31798SOL     OW 5707   9.716  10.434   9.555 -0.2582 -0.4704 -0.4690
31798SOL    HW1 5708   9.718  10.451   9.461  0.8803 -2.2798 -0.8306
31798SOL    HW2 5709   9.755  10.347   9.564  2.5235  0.8461  1.9229
31799SOL     OW 5710   2.850  10.074  11.214  1.2478 -0.2512 -0.3948
31799SOL    HW1 5711   2.852  10.126  11.294  0.4576 -0.6915 -0.0692
31799SOL    HW2 5712   2.942  10.051  11.197  1.3621 -0.6724  0.7369
31800SOL     OW 5713   5.817  12.969   8.669 -0.3905  0.5091  0.4667
31800SOL    HW1 5714   5.751  12.900   8.680  0.7682 -0.7576 -0.1599
31800SOL    HW2 5715   5.820  12.985   8.575  1.6311 -1.0011  0.2006
31801SOL     OW 5716   1.401   1.319   3.003 -0.3229 -0.3438 -0.1138
31801SOL    HW1 5717   1.415   1.227   2.982  0.6141 -0.2559  0.0813
31801SOL    HW2 5718   1.343   1.317   3.079  1.6425 -0.9012  1.4844
31802SOL     OW 5719   2.917  10.185  12.867 -0.5461  0.1226  0.0515
31802SOL    HW1 5720   2.832  10.213  12.900 -0.2999 -0.7922  1.5968
31802SOL    HW2 5721   2.965  10.157  12.946  0.6295 -0.7971 -0.9446
31803SOL     OW 5722   2.391   9.264   1.678  0.2492  0.3590 -0.8279
31803SOL    HW1 5723   2.317   9.221   1.721  1.8932 -0.3379  1.5503
31803SOL    HW2 5724   2.434   9.194   1.627  0.5780  0.1629 -0.2936
31804SOL     OW 5725   6.092  11.892   1.996  0.3469  0.4319 -0.0074
31804SOL    HW1 5726   5.996  11.894   1.997  0.2185  1.9143 -3.3668
31804SOL    HW2 5727   6.114  11.800   1.983 -0.6473  0.1553  0.1759
31805SOL     OW 5728   9.817   8.022   6.084 -0.2805 -0.1029 -0.1916
31805SOL    HW1 5729   9.830   8.094   6.145 -0.3935  1.0195 -1.4475
31805SOL    HW2 5730   9.904   7.985   6.071  0.1728  1.2589 -1.2358
31806SOL     OW 5731  11.005  12.113   0.273 -0.4845  0.5553  0.4459
31806SOL    HW1 5732  11.089  12.149   0.300 -0.9690  1.3072  0.9941
31806SOL    HW2 5733  10.965  12.182   0.220 -0.1922 -0.3216 -0.9711
31807SOL     OW 5734  10.993   6.755   3.847 -0.2184  0.3529  0.3066
31807SOL    HW1 5735  11.003   6.714   3.761 -0.4134  0.0969  0.4056
31807SOL    HW2 5736  11.079   6.792   3.866 -0.4146  1.1774 -0.3884
31808SOL     OW 5737  11.990   4.886  12.837 -0.0546 -0.0264 -0.5518
31808SOL    HW1 5738  11.954   4.824  12.774  0.2959 -1.8930  0.9864
31808SOL    HW2 5739  12.054   4.937  12.786 -2.2357  0.9615 -2.4776
31809SOL     OW 5740  10.257  12.391   6.698 -0.1891 -0.0276  0.6076
31809SOL    HW1 5741  10.339  12.352   6.668 -0.2609  0.2583  0.0254
31809SOL    HW2 5742  10.193  12.370   6.630 -0.6002 -0.2369  1.0512
31810SOL     OW 5743   1.829   5.720   2.419 -0.2124  0.2240  0.0193
31810SOL    HW1 5744   1.779   5.683   2.346  1.2494 -0.3323 -0.7417
31810SOL    HW2 5745   1.839   5.812   2.397  3.2964 -0.5475 -2.4726
31811SOL     OW 5746   6.271   5.161   3.562  0.1556  0.1049 -0.0199
31811SOL    HW1 5747   6.243   5.070   3.552  0.0763 -0.0803  1.5700
31811SOL    HW2 5748   6.233   5.206   3.486 -0.1611 -1.0972 -0.6051
31812SOL     OW 5749   6.157  11.252  12.448  0.1867 -0.1129 -0.4692
31812SOL    HW1 5750   6.124  11.247  12.538  0.0805 -0.4627 -0.5269
31812SOL    HW2 5751   6.220  11.181  12.442 -1.5039 -1.6002 -1.3723
31813SOL     OW 5752   2.734   5.247  10.866  0.3836 -0.4506  0.1021
31813SOL    HW1 5753   2.646   5.273  10.895  0.6890 -0.4800  1.0783
31813SOL    HW2 5754   2.726   5.153  10.847  0.5412 -0.7993  1.6170
31814SOL     OW 5755   0.203   6.254   6.019 -0.1357 -0.3203  0.0565
31814SOL    HW1 5756   0.257   6.185   6.059 -0.5907 -0.9657 -0.4282
31814SOL    HW2 5757   0.155   6.210   5.949 -1.7685  0.1063  0.8627
31815SOL     OW 5758  11.189   6.333   3.320 -0.0633  0.2868 -0.5834
31815SOL    HW1 5759  11.215   6.248   3.355  1.3279  0.2921 -1.5162
31815SOL    HW2 5760  11.203   6.325   3.226 -0.1225  1.4953 -0.7088
31816SOL     OW 5761   4.830  10.188   4.690 -0.3657  0.4114 -0.0720
31816SOL    HW1 5762   4.800  10.212   4.603  2.1150  2.0212 -0.5674
31816SOL    HW2 5763   4.921  10.216   4.693 -0.4501  0.7221  3.1474
31817SOL     OW 5764   0.327   7.326   4.397 -0.0819  0.6166 -0.4941
31817SOL    HW1 5765   0.375   7.403   4.426 -0.6394  0.5536  0.7003
31817SOL    HW2 5766   0.363   7.254   4.449 -1.8038  0.6682  0.8925
31818SOL     OW 5767   9.545   0.327   9.132  0.2372  0.0384 -0.1279
31818SOL    HW1 5768   9.491   0.273   9.074  0.9394 -0.7259 -0.0919
31818SOL    HW2 5769   9.518   0.301   9.220  0.2866  0.0402 -0.1128
31819SOL     OW 5770  11.759   9.811   2.472 -0.5327  0.5063  0.2731
31819SOL    HW1 5771  11.772   9.893   2.424  1.7863 -0.3355 -0.6595
31819SOL    HW2 5772  11.845   9.770   2.474 -1.4179 -1.4586  1.6171
31820SOL     OW 5773   4.785  10.549  10.921  0.3598 -0.1442 -0.1459
31820SOL    HW1 5774   4.789  10.530  10.827  0.5328 -0.3151 -0.1052
31820SOL    HW2 5775   4.825  10.472  10.962  0.1054 -0.1577  0.0762
31821SOL     OW 5776   8.822   7.934   0.614 -0.3317 -0.3241  0.2766
31821SOL    HW1 5777   8.846   7.968   0.527  0.6455  0.7473  0.9343
31821SOL    HW2 5778   8.728   7.948   0.620 -0.0570  2.0127  0.3425
31822SOL     OW 5779  12.258   0.784   4.078  0.0408  0.1555  0.7496
31822SOL    HW1 5780  12.233   0.692   4.071 -0.0397  0.1081  1.6572
31822SOL    HW2 5781  12.235   0.809   4.167 -1.3709  1.4828  0.0635
31823SOL     OW 5782  10.761   4.929   4.585  0.6265 -0.1318 -0.2313
31823SOL    HW1 5783  10.690   4.897   4.640 -0.4779  0.1254 -1.4508
31823SOL    HW2 5784  10.827   4.859   4.588 -0.6403 -1.4077 -0.8186
31824SOL     OW 5785   4.523   0.794   7.438 -0.0792  0.3594 -0.2816
31824SOL    HW1 5786   4.602   0.840   7.411 -0.6797  0.7638 -1.4165
31824SOL    HW2 5787   4.456   0.862   7.442 -0.8153 -0.2720 -1.2789
31825SOL     OW 5788   3.833   9.618  11.031 -0.1711  0.3789  0.0054
31825SOL    HW1 5789   3.777   9.599  11.106 -0.4418 -1.0239 -0.5255
31825SOL    HW2 5790   3.896   9.546  11.029  0.9134  1.2961 -0.1241
31826SOL     OW 5791   4.899   7.931   7.381  0.2647  0.8574  0.2429
31826SOL    HW1 5792   4.959   7.876   7.432  0.1715 -0.5452 -1.0980
31826SOL    HW2 5793   4.956   7.997   7.342  0.7601  0.2837 -0.0264
31827SOL     OW 5794  10.333   7.716   8.484 -0.0330  0.2089 -0.1427
31827SOL    HW1 5795  10.239   7.732   8.487  0.3488  2.7908  0.2014
31827SOL    HW2 5796  10.342   7.640   8.426 -2.4127 -1.4360  1.4550
31828SOL     OW 5797   1.589   9.061   6.176 -0.3138 -0.1314  0.0163
31828SOL    HW1 5798   1.635   9.131   6.222  1.7045 -0.5958 -1.1837
31828SOL    HW2 5799   1.506   9.101   6.147  0.4790  1.5486 -0.0249
31829SOL     OW 5800   0.054   4.663   6.841 -0.4039  0.1440 -0.2800
31829SOL    HW1 5801  -0.035   4.668   6.807 -0.6767 -1.9392  0.0120
31829SOL    HW2 5802   0.045   4.670   6.936 -0.4190 -1.3236 -0.1532
31830SOL     OW 5803   2.918  10.432   3.166 -0.4371  0.5847 -0.0701
31830SOL    HW1 5804   2.832  10.409   3.130 -0.1524 -0.1350 -0.2940
31830SOL    HW2 5805   2.908  10.421   3.260 -0.1165 -1.1570 -0.2077
31831SOL     OW 5806   0.874   2.606   1.411  0.1057 -0.2439  0.4848
31831SOL    HW1 5807   0.890   2.651   1.494  0.4113  1.6690 -0.5523
31831SOL    HW2 5808   0.958   2.564   1.390  0.1437 -0.3937  0.9214
31832SOL     OW 5809   6.970  10.967   6.623  0.5473  0.1550  0.2763
31832SOL    HW1 5810   6.978  10.999   6.533 -0.3989 -1.3821 -0.3940
31832SOL    HW2 5811   7.048  10.912   6.635 -0.5343 -1.6589 -0.5352
31833SOL     OW 5812   5.337  12.473  10.390  0.5367 -0.4617  0.6519
31833SOL    HW1 5813   5.369  12.394  10.433  0.9856 -0.2640  0.6852
31833SOL    HW2 5814   5.401  12.540  10.414 -0.6842  0.2804  1.9278
31834SOL     OW 5815   6.609  10.933   7.529 -0.6953  0.3457  0.0507
31834SOL    HW1 5816   6.691  10.955   7.485 -1.1768 -1.0724 -1.6561
31834SOL    HW2 5817   6.615  10.977   7.614  2.1934 -0.4020  0.3306
31835SOL     OW 5818  10.694   5.555   2.178 -0.1580 -0.3143  0.0613
31835SOL    HW1 5819  10.692   5.460   2.193  0.5064 -0.4501 -0.6132
31835SOL    HW2 5820  10.753   5.589   2.245  0.5162 -0.5422 -0.3982
31836SOL     OW 5821  10.954   2.894   8.601  0.4542 -0.3050  0.2787
31836SOL    HW1 5822  10.908   2.956   8.545 -0.1288  1.3634  2.4572
31836SOL    HW2 5823  10.894   2.821   8.611  0.2541 -0.2716 -0.5997
31837SOL     OW 5824   3.926   3.757  10.765 -0.4909  0.3764 -0.1958
31837SOL    HW1 5825   3.977   3.799  10.696  1.0437 -1.1970 -0.0971
31837SOL    HW2 5826   3.952   3.802  10.845  1.9710 -1.2956  0.0698
31838SOL     OW 5827   4.483   4.253   9.039  0.6068  0.2590  0.4728
31838SOL    HW1 5828   4.568   4.230   9.074  0.4320 -1.2488  0.0028
31838SOL    HW2 5829   4.496   4.256   8.944  0.3435  0.9890  0.4516
31839SOL     OW 5830   4.755   2.583  11.175 -0.0078  0.0961 -0.1515
31839SOL    HW1 5831   4.757   2.671  11.137 -0.9249  0.2055  0.0149
31839SOL    HW2 5832   4.805   2.590  11.255  1.0521  0.1274 -0.7978
31840SOL     OW 5833  11.775  10.275   2.444  0.5027 -0.1418  0.7905
31840SOL    HW1 5834  11.780  10.362   2.483 -2.3318  0.0064  1.0136
31840SOL    HW2 5835  11.771  10.215   2.519  1.4648 -0.3971  0.6452
31841SOL     OW 5836   6.349  11.264   0.458 -0.7179 -0.9318 -0.3389
31841SOL    HW1 5837   6.320  11.352   0.435  4.2451  0.5756 -2.4066
31841SOL    HW2 5838   6.351  11.217   0.374  1.2684 -1.2867 -0.1440
31842SOL     OW 5839  11.910   6.824   8.538  0.2684 -0.0125 -0.1379
31842SOL    HW1 5840  11.854   6.901   8.548  2.0042  1.1135  1.5146
31842SOL    HW2 5841  11.959   6.841   8.457 -2.7626 -1.8007 -2.5937
31843SOL     OW 5842   2.949   5.646  11.428 -0.0125 -0.2030 -0.0316
31843SOL    HW1 5843   3.041   5.637  11.455 -0.2706  1.4887  1.6360
31843SOL    HW2 5844   2.952   5.650  11.333  1.7569  0.7695  0.0226
31844SOL     OW 5845   5.077   8.696  11.480  0.2924  0.2056  0.4983
31844SOL    HW1 5846   4.984   8.695  11.457  0.2039 -1.9088  0.7883
31844SOL    HW2 5847   5.123   8.704  11.397 -0.1303  0.2173  0.2623
31845SOL     OW 5848   7.010  12.857   1.293  0.7970  0.3760  0.0895
31845SOL    HW1 5849   7.033  12.846   1.200 -0.5419 -0.2573 -0.1918
31845SOL    HW2 5850   7.010  12.768   1.327 -1.0226  0.3609  0.1065
31846SOL     OW 5851   9.504   5.336   8.894 -0.2917  0.0452 -0.0724
31846SOL    HW1 5852   9.437   5.267   8.883  1.1354 -1.3687 -0.2509
31846SOL    HW2 5853   9.533   5.356   8.806 -0.3711  0.5572  0.0144
31847SOL     OW 5854   8.146   4.545   6.720  0.1507 -0.5472  0.0516
31847SOL    HW1 5855   8.154   4.636   6.691  0.1780 -1.0228 -1.4756
31847SOL    HW2 5856   8.222   4.501   6.682  0.0851 -1.2470  0.7074
31848SOL     OW 5857   3.514   5.328   5.976 -0.0789  0.3035 -0.4745
31848SOL    HW1 5858   3.462   5.275   6.036  0.1643  0.0871 -0.4557
31848SOL    HW2 5859   3.593   5.277   5.961  1.5110  1.8962  1.8228
31849SOL     OW 5860   7.671  10.143   5.078 -0.7732  0.2615  0.0856
31849SOL    HW1 5861   7.604  10.117   5.141 -1.1996  2.3117  0.5736
31849SOL    HW2 5862   7.667  10.077   5.009 -0.3564 -2.0033  2.1158
31850SOL     OW 5863   9.868   0.480   5.814 -0.3003 -0.2775  0.5857
31850SOL    HW1 5864   9.790   0.456   5.765  0.1355  2.2007 -1.5337
31850SOL    HW2 5865   9.941   0.466   5.753  0.3838  1.7127  0.8458
31851SOL     OW 5866  12.763   0.308   9.156 -0.5471  0.4577  0.8579
31851SOL    HW1 5867  12.713   0.351   9.086 -0.8752  0.2637  0.9755
31851SOL    HW2 5868  12.853   0.309   9.124 -0.4509  1.7430  1.0937
31852SOL     OW 5869  12.404   8.074   6.062 -0.7504 -0.0873 -0.3219
31852SOL    HW1 5870  12.462   8.145   6.088 -0.9884 -0.4336  1.2340
31852SOL    HW2 5871  12.455   8.023   5.999  1.4577 -1.4713  2.3513
31853SOL     OW 5872   8.540   1.768   8.805  0.0255 -0.1025  0.2712
31853SOL    HW1 5873   8.571   1.842   8.753 -0.3214  0.1996  0.4882
31853SOL    HW2 5874   8.599   1.696   8.782  0.8114  0.4266  0.5969
31854SOL     OW 5875   7.706  11.471   3.383 -0.5964 -0.1212 -1.1436
31854SOL    HW1 5876   7.648  11.534   3.341 -0.8795  0.8780  0.6194
31854SOL    HW2 5877   7.647  11.402   3.415 -1.0201  1.2378  1.2615
31855SOL     OW 5878  11.322  10.728  10.227  0.1506 -0.0090  0.1009
31855SOL    HW1 5879  11.362  10.641  10.236  0.4478  0.2001  0.8356
31855SOL    HW2 5880  11.258  10.717  10.157  1.4123 -0.3746 -1.0397
31856SOL     OW 5881  10.991   0.142   9.858 -0.1314  0.2371 -0.8745
31856SOL    HW1 5882  11.047   0.158   9.781 -0.4093 -0.4971 -1.2323
31856SOL    HW2 5883  11.029   0.065   9.900  2.4010  2.7488  1.9621
31857SOL     OW 5884   4.265   4.120   2.305 -0.6644  0.1468  0.3115
31857SOL    HW1 5885   4.212   4.075   2.371 -1.5472 -0.3022 -0.6655
31857SOL    HW2 5886   4.237   4.081   2.222  1.4765 -0.3751 -0.2285
31858SOL     OW 5887   2.172  10.648  12.025  0.8851  0.0290 -0.3158
31858SOL    HW1 5888   2.223  10.655  11.944 -0.1018  0.4775 -0.9213
31858SOL    HW2 5889   2.225  10.592  12.082  1.6917 -0.1319 -1.1927
31859SOL     OW 5890   7.842  12.115   7.383 -0.4939  0.5276 -0.7510
31859SOL    HW1 5891   7.768  12.121   7.443 -1.6035 -0.1304 -1.9991
31859SOL    HW2 5892   7.806  12.072   7.305  2.1398 -3.8925  0.1450
31860SOL     OW 5893   2.313   9.022   3.581  0.1261 -0.4654  0.3223
31860SOL    HW1 5894   2.285   8.943   3.536  0.0514 -1.0731  1.3976
31860SOL    HW2 5895   2.238   9.081   3.576  0.5045 -0.0804 -1.2888
31861SOL     OW 5896   1.465  12.260   1.407  0.1358  0.0028  0.1580
31861SOL    HW1 5897   1.489  12.244   1.316 -0.4553 -0.1395  0.0231
31861SOL    HW2 5898   1.394  12.199   1.424 -1.3339  1.5915  0.0124
31862SOL     OW 5899   5.048  12.407   4.054 -0.6950  0.4096  0.0731
31862SOL    HW1 5900   5.013  12.318   4.044 -1.4000  0.6588  0.2342
31862SOL    HW2 5901   5.117  12.399   4.120 -0.9323  0.0216  0.2788
31863SOL     OW 5902   3.312   4.380   7.492 -0.0966  0.5386  1.2450
31863SOL    HW1 5903   3.380   4.366   7.425 -2.1747 -0.5113 -0.7941
31863SOL    HW2 5904   3.297   4.474   7.492 -2.0179  0.3881 -2.0241
31864SOL     OW 5905   5.738   9.189   8.388  0.1187  0.0516  0.8386
31864SOL    HW1 5906   5.754   9.178   8.482 -1.2165  1.8858  1.3265
31864SOL    HW2 5907   5.756   9.282   8.372  0.4243 -0.2632 -0.7545
31865SOL     OW 5908   3.176   9.584  12.144  0.1666 -0.7739  0.0808
31865SOL    HW1 5909   3.186   9.671  12.106  1.1289 -1.0257 -0.2927
31865SOL    HW2 5910   3.102   9.591  12.203 -0.2330  0.1006 -0.5125
31866SOL     OW 5911   4.049  10.254   1.199  0.3479 -0.5941 -0.0027
31866SOL    HW1 5912   4.085  10.216   1.280 -0.0025 -0.0507  0.4161
31866SOL    HW2 5913   4.094  10.207   1.129 -0.4925 -2.1940  0.4736
31867SOL     OW 5914   8.703   7.526   1.521  0.0184 -0.3819 -0.2261
31867SOL    HW1 5915   8.760   7.472   1.466 -1.3155 -0.2471 -1.8248
31867SOL    HW2 5916   8.621   7.477   1.527 -0.2693  0.1770  0.6647
31868SOL     OW 5917   6.975   6.457   3.609  0.6247 -0.2764  0.3307
31868SOL    HW1 5918   6.977   6.364   3.631 -1.3686 -0.6044 -0.5877
31868SOL    HW2 5919   6.951   6.501   3.690 -2.0868 -0.9993  0.0240
31869SOL     OW 5920   8.964  12.545  12.370 -0.0628 -0.2785 -0.5795
31869SOL    HW1 5921   9.011  12.590  12.440  0.2739  0.9195 -1.5459
31869SOL    HW2 5922   8.877  12.587  12.369  0.6113  1.2254 -2.2089
31870SOL     OW 5923  12.468  10.488   5.240  0.2962 -0.3621 -0.0954
31870SOL    HW1 5924  12.504  10.442   5.164 -1.2432 -1.2873 -0.3086
31870SOL    HW2 5925  12.518  10.453   5.314  0.5733 -0.8097 -0.4813
31871SOL     OW 5926   3.940   4.885   0.711  1.0713  0.0900 -0.4217
31871SOL    HW1 5927   3.979   4.966   0.678 -1.1067  1.6884  0.7305
31871SOL    HW2 5928   4.014   4.825   0.718  2.8280  2.0567 -1.0254
31872SOL     OW 5929   5.993   9.842   2.647 -0.3149 -0.5722  0.2864
31872SOL    HW1 5930   5.915   9.814   2.599 -0.7967  0.4414  0.4520
31872SOL    HW2 5931   5.976   9.819   2.738  0.0894 -1.4148  0.1545
31873SOL     OW 5932   0.062   2.331   9.703 -0.0831  0.2155  0.1184
31873SOL    HW1 5933   0.103   2.272   9.640 -1.4739  0.1416 -0.7377
31873SOL    HW2 5934   0.043   2.276   9.779  1.2706  0.2269  0.4937
31874SOL     OW 5935  11.226   0.486   9.553  0.2571  0.4223 -0.4286
31874SOL    HW1 5936  11.265   0.540   9.485 -0.7156  2.5529  0.5927
31874SOL    HW2 5937  11.134   0.476   9.527  0.2365 -0.0702 -0.1987
31875SOL     OW 5938   4.337   8.423  10.357 -0.4118 -0.4982  0.4028
31875SOL    HW1 5939   4.291   8.404  10.438  0.9731 -0.0422  1.3372
31875SOL    HW2 5940   4.310   8.512  10.334 -1.3054 -0.8645 -0.0120
31876SOL     OW 5941   9.515  11.215   8.173  0.1132  0.0862  0.0296
31876SOL    HW1 5942   9.551  11.173   8.251 -0.1376 -2.0385 -0.9216
31876SOL    HW2 5943   9.431  11.172   8.158  0.6867 -0.4554 -2.0616
31877SOL     OW 5944  12.376   0.102  12.255  0.6357  0.3551 -0.0675
31877SOL    HW1 5945  12.392   0.131  12.345  2.6274  1.4977 -0.7203
31877SOL    HW2 5946  12.347   0.181  12.210  0.8817  0.0939 -0.6980
31878SOL     OW 5947   3.474   2.720   6.564  0.2102  0.6353 -0.3710
31878SOL    HW1 5948   3.564   2.739   6.589  0.0589  0.9338 -0.0372
31878SOL    HW2 5949   3.473   2.626   6.544  0.4187  0.4536  0.4191
31879SOL     OW 5950   0.264   2.882   2.842 -0.3321 -0.1211  0.0257
31879SOL    HW1 5951   0.291   2.894   2.933 -0.3386  0.4478 -0.0454
31879SOL    HW2 5952   0.345   2.891   2.792 -0.8365  3.8088 -0.3939
31880SOL     OW 5953   2.385   8.191   1.605  0.4964 -0.3015 -0.2261
31880SOL    HW1 5954   2.411   8.272   1.648 -0.0559 -0.0224 -0.4044
31880SOL    HW2 5955   2.416   8.122   1.663  0.1233  0.0653  0.4225
31881SOL     OW 5956  12.277  11.963  11.277 -0.5205 -0.2078  0.0412
31881SOL    HW1 5957  12.365  11.944  11.308 -0.0502  1.8518  0.1398
31881SOL    HW2 5958  12.236  11.877  11.267  1.7237 -1.2699 -0.7437
31882SOL     OW 5959   0.409  10.690   9.918 -0.0173 -0.2260 -0.3916
31882SOL    HW1 5960   0.397  10.784   9.906  0.5258 -0.3878 -2.7603
31882SOL    HW2 5961   0.492  10.670   9.874 -1.2785 -2.1381 -2.0904
31883SOL     OW 5962   3.425   5.247   6.234  0.1554  0.1032  0.5415
31883SOL    HW1 5963   3.503   5.279   6.278 -0.9226  2.7576  0.7412
31883SOL    HW2 5964   3.361   5.234   6.304  0.3893 -2.1743  0.4009
31884SOL     OW 5965  10.537   0.719   6.089  0.2193  0.0281  0.7713
31884SOL    HW1 5966  10.629   0.736   6.112  0.6175 -1.5880  0.5176
31884SOL    HW2 5967  10.499   0.806   6.075  1.8006  0.7209  0.5356
31885SOL     OW 5968   3.930   8.766  12.818  0.1672 -0.3825 -0.2599
31885SOL    HW1 5969   3.853   8.822  12.812 -0.5652 -1.3689 -0.3620
31885SOL    HW2 5970   3.915   8.697  12.754  0.7119 -1.0830  0.3425
31886SOL     OW 5971   6.621   2.709   2.909  0.0127 -0.3145  0.0576
31886SOL    HW1 5972   6.629   2.804   2.917 -1.1504 -0.1918 -0.0327
31886SOL    HW2 5973   6.656   2.674   2.991 -0.1863  0.2252  0.3745
31887SOL     OW 5974  10.778  10.575  10.402 -0.5092  0.5567 -0.4799
31887SOL    HW1 5975  10.848  10.522  10.364 -0.7280 -0.4594  0.4566
31887SOL    HW2 5976  10.807  10.665  10.392  1.1472  0.1526  0.2472
31888SOL     OW 5977  11.404   8.878   1.915 -0.1868 -0.4419 -0.0072
31888SOL    HW1 5978  11.469   8.857   1.982  0.7131  2.4851  0.1623
31888SOL    HW2 5979  11.338   8.930   1.960  0.3379  1.4338 -1.2612
31889SOL     OW 5980   4.047   8.180  11.143 -0.4556  0.0801  0.5776
31889SOL    HW1 5981   4.141   8.191  11.156 -0.3992 -1.6453  1.9188
31889SOL    HW2 5982   4.037   8.168  11.048  0.8232 -0.8371  0.5309
31890SOL     OW 5983   9.828   8.870  12.893 -0.2338  0.6187  0.5190
31890SOL    HW1 5984   9.831   8.775  12.883 -1.4501  0.4552  1.3816
31890SOL    HW2 5985   9.756   8.898  12.837  0.4271  1.1080 -0.1056
31891SOL     OW 5986   0.264   3.520   7.215 -0.0455  0.1969 -0.4382
31891SOL    HW1 5987   0.283   3.609   7.187  2.6659  0.1193  0.7976
31891SOL    HW2 5988   0.187   3.528   7.270  0.8756  2.0377  0.6921
31892SOL     OW 5989   5.740   9.377   5.579  0.2692 -0.0954  0.6419
31892SOL    HW1 5990   5.757   9.465   5.612 -1.9287  0.2247  1.0398
31892SOL    HW2 5991   5.782   9.319   5.643 -2.2778  0.5681  3.1195
31893SOL     OW 5992   1.723   8.359   0.105  0.1272  0.0804  0.1992
31893SOL    HW1 5993   1.764   8.429   0.156  0.8953 -1.8563  2.4916
31893SOL    HW2 5994   1.770   8.359   0.022 -0.1997  2.4966 -0.0462
31894SOL     OW 5995   8.149   8.348   1.034 -0.2025 -0.3364  0.4166
31894SOL    HW1 5996   8.132   8.342   1.128 -0.6340  1.8247  0.5418
31894SOL    HW2 5997   8.191   8.266   1.011 -0.9670 -1.3129  2.3078
31895SOL     OW 5998   5.123   0.115  11.547 -0.0092 -0.0658  0.2322
31895SOL    HW1 5999   5.180   0.137  11.473  2.6603  1.3626  2.5370
31895SOL    HW2 6000   5.048   0.172  11.537  1.6412  2.2043  0.0830
31896SOL     OW 6001  12.721  12.012  11.676  0.7740 -0.3221 -0.2859
31896SOL    HW1 6002  12.711  12.100  11.712  0.1052 -0.8417  0.8737
31896SOL    HW2 6003  12.655  12.006  11.607  0.0333 -0.2857  0.4052
31897SOL     OW 6004   7.709   1.404   7.684  0.1771  0.4469 -0.1065
31897SOL    HW1 6005   7.674   1.319   7.711  3.0941 -1.2560 -1.1533
31897SOL    HW2 6006   7.716   1.454   7.765 -2.1750 -0.0318  0.4502
31898SOL     OW 6007   1.258   7.145   5.993 -0.3305  0.1882 -0.1486
31898SOL    HW1 6008   1.349   7.169   5.972 -0.2492 -1.1546 -1.5330
31898SOL    HW2 6009   1.210   7.227   5.989  0.4565  0.6090 -1.6217
31899SOL     OW 6010   6.329   6.637   3.096 -0.1708  0.0417 -0.2871
31899SOL    HW1 6011   6.308   6.568   3.033  2.3688 -0.4091 -0.7579
31899SOL    HW2 6012   6.419   6.662   3.074 -0.2680  1.9964  1.2742
31900SOL     OW 6013   0.522   3.319   4.903 -0.0569 -0.4528 -0.4033
31900SOL    HW1 6014   0.432   3.315   4.936 -0.3551  0.2305 -1.1005
31900SOL    HW2 6015   0.553   3.405   4.932  0.4491 -0.7663  0.0056
31901SOL     OW 6016  11.997   7.578   1.891 -0.2663  0.1840  0.2215
31901SOL    HW1 6017  11.962   7.614   1.810 -0.3450 -1.0466 -0.3150
31901SOL    HW2 6018  12.079   7.624   1.905  0.0787 -0.0664 -0.9193
31902SOL     OW 6019  11.145  10.968  11.481  0.2448  0.3826 -0.3746
31902SOL    HW1 6020  11.087  11.000  11.412 -0.1574  0.0365 -0.1992
31902SOL    HW2 6021  11.093  10.905  11.530 -0.1027  1.9878  1.4309
31903SOL     OW 6022   9.873   0.098   8.912  0.5954  0.2726  0.1264
31903SOL    HW1 6023   9.845   0.056   8.993 -0.2956  1.6632  0.5825
31903SOL    HW2 6024   9.951   0.050   8.885  0.2580 -0.9156  1.2055
31904SOL     OW 6025   1.523   9.134  11.306 -0.2453  0.0508  0.3044
31904SOL    HW1 6026   1.581   9.165  11.236 -1.5985  1.9680 -0.0585
31904SOL    HW2 6027   1.549   9.184  11.383 -1.1729  0.7003  0.2141
31905SOL     OW 6028   1.834   5.229   7.191  0.2933  0.2449  0.0551
31905SOL    HW1 6029   1.836   5.194   7.280 -0.5859  0.2958  0.1030
31905SOL    HW2 6030   1.924   5.257   7.174  1.3530 -3.0069 -0.4010
31906SOL     OW 6031  12.650   8.821  12.986  0.1378 -0.1813  0.1078
31906SOL    HW1 6032  12.635   8.904  13.031  0.9375 -0.3289  0.6611
31906SOL    HW2 6033  12.570   8.807  12.935 -0.1464  0.7558  0.2722
31907SOL     OW 6034  11.134   7.109   6.346  0.4260  0.1427  0.2381
31907SOL    HW1 6035  11.113   7.025   6.307 -0.4061  0.3064  0.3263
31907SOL    HW2 6036  11.050   7.155   6.352  0.6991  0.5510  1.1914
31908SOL     OW 6037   2.796   2.591   8.366 -0.1215  0.2223  0.3095
31908SOL    HW1 6038   2.742   2.590   8.286  1.5706  0.3793 -0.8920
31908SOL    HW2 6039   2.854   2.666   8.354  3.1567 -2.1914 -0.4718
31909SOL     OW 6040   1.747  12.749   8.965 -0.4848  0.5795  0.4397
31909SOL    HW1 6041   1.699  12.666   8.969 -0.4585  0.3830 -2.0477
31909SOL    HW2 6042   1.836  12.725   8.989 -0.4958 -0.1096 -0.1612
31910SOL     OW 6043   6.984   0.971  12.866  0.3425  0.0241 -0.1217
31910SOL    HW1 6044   7.027   1.024  12.932  0.4080 -0.6079  0.3461
31910SOL    HW2 6045   7.019   1.003  12.783  0.8227  0.3080  0.1882
31911SOL     OW 6046   0.223   9.396   3.884 -0.2304  0.1508  0.3812
31911SOL    HW1 6047   0.263   9.397   3.797 -0.4476 -2.0936  0.2070
31911SOL    HW2 6048   0.130   9.415   3.869 -0.3357 -0.6003  0.0711
31912SOL     OW 6049   1.288   2.862  12.727 -0.0694  0.1432 -0.2047
31912SOL    HW1 6050   1.264   2.934  12.785  0.8894  0.4183 -0.1340
31912SOL    HW2 6051   1.244   2.882  12.644  1.3137  1.5746 -0.6346
31913SOL     OW 6052   1.497   0.141   2.033  0.2430 -0.4463 -0.2504
31913SOL    HW1 6053   1.413   0.158   2.076  0.1373 -1.1585 -0.1737
31913SOL    HW2 6054   1.475   0.092   1.954  0.6583 -1.3743  0.2019
31914SOL     OW 6055   7.252   0.610   6.998  0.1009  0.4540  0.0312
31914SOL    HW1 6056   7.317   0.654   6.944  2.2477 -0.9982  1.2576
31914SOL    HW2 6057   7.211   0.546   6.939  0.0228  1.1307 -0.6654
31915SOL     OW 6058  11.564  12.747   7.674 -0.3334 -0.4852  0.1671
31915SOL    HW1 6059  11.501  12.819   7.662  0.8236  0.2650 -2.1640
31915SOL    HW2 6060  11.578  12.713   7.585  2.6158 -0.5042  0.5284
31916SOL     OW 6061   0.370   0.306   3.872  0.0132 -0.1840  0.4576
31916SOL    HW1 6062   0.450   0.349   3.843  0.8117 -1.4725  0.6634
31916SOL    HW2 6063   0.342   0.355   3.949  2.1326 -1.2950  2.0437
31917SOL     OW 6064   9.043   1.804   8.813  0.2087 -0.0240 -0.3112
31917SOL    HW1 6065   8.992   1.858   8.872  1.7884  0.4964  0.6374
31917SOL    HW2 6066   8.991   1.725   8.801 -0.9392  0.6136  0.3488
31918SOL     OW 6067   7.254  12.641   2.346 -0.1387  0.0947 -0.7768
31918SOL    HW1 6068   7.315  12.703   2.305 -1.8309  1.5035 -1.2870
31918SOL    HW2 6069   7.214  12.691   2.417 -1.7823 -0.2842 -1.4040
31919SOL     OW 6070   4.891   8.665   6.889  0.6327 -0.1184  0.5060
31919SOL    HW1 6071   4.884   8.600   6.959 -3.1698 -0.3966  0.0691
31919SOL    HW2 6072   4.907   8.613   6.810 -1.4341 -0.5730  0.3100
31920SOL     OW 6073   9.609   6.887   8.381  0.4596 -0.1125 -0.2056
31920SOL    HW1 6074   9.668   6.816   8.356  1.4747  0.6446 -0.0069
31920SOL    HW2 6075   9.587   6.868   8.473 -1.3232 -1.5433 -0.8562
31921SOL     OW 6076   0.430  11.333   9.436 -0.2968  0.3055  0.0701
31921SOL    HW1 6077   0.341  11.315   9.407  0.3364  0.6915 -2.3486
31921SOL    HW2 6078   0.480  11.255   9.412  0.1897  0.4486  0.5852
31922SOL     OW 6079   8.775   5.029   3.243  0.3640  0.2481 -0.3441
31922SOL    HW1 6080   8.865   5.055   3.226  1.2665 -1.0330  2.0551
31922SOL    HW2 6081   8.771   4.936   3.218 -0.2894  0.2730 -0.3680
31923SOL     OW 6082   0.452   8.084   6.956 -0.4598 -0.3141 -0.7438
31923SOL    HW1 6083   0.411   8.000   6.932  1.6019 -1.7050  0.3028
31923SOL    HW2 6084   0.445   8.088   7.052 -0.4871  0.6982 -0.7752
31924SOL     OW 6085   3.429  11.141   0.271  0.2268  0.1812  0.2761
31924SOL    HW1 6086   3.366  11.094   0.325 -0.3408 -0.4674 -0.9018
31924SOL    HW2 6087   3.513  11.099   0.290 -0.2907 -1.4681 -0.8638
31925SOL     OW 6088   9.824  10.878   7.890  0.0332  0.2694 -0.0111
31925SOL    HW1 6089   9.782  10.794   7.908  1.2722 -0.1667  1.0642
31925SOL    HW2 6090   9.836  10.880   7.795  2.9010 -2.3054  0.1279
31926SOL     OW 6091   7.437  10.730   1.772 -0.0107 -0.4559 -0.0395
31926SOL    HW1 6092   7.421  10.824   1.781 -1.1755 -0.4086 -2.0959
31926SOL    HW2 6093   7.417  10.694   1.858  0.6004  1.1706  0.8284
31927SOL     OW 6094  10.811   8.211  10.510  0.4097 -0.5852  0.0440
31927SOL    HW1 6095  10.844   8.163  10.586 -2.1099 -1.0203  0.9487
31927SOL    HW2 6096  10.752   8.276  10.547 -0.1516 -0.1765 -1.5057
31928SOL     OW 6097   1.936   6.382  12.675 -0.4013 -0.0250  0.3794
31928SOL    HW1 6098   1.900   6.305  12.629 -0.0173 -1.7768  2.7976
31928SOL    HW2 6099   2.008   6.347  12.727  0.1770  2.1345  1.1254
31929SOL     OW 6100   5.431   1.367  12.952  0.7856  0.2167 -0.3733
31929SOL    HW1 6101   5.451   1.273  12.950 -0.9883 -0.1826 -0.8867
31929SOL    HW2 6102   5.430   1.393  12.860 -2.0170 -0.0750 -0.5240
31930SOL     OW 6103   1.501   7.710  10.953  0.2417 -0.5093  0.1310
31930SOL    HW1 6104   1.504   7.744  10.863 -0.3527  0.9256  0.6348
31930SOL    HW2 6105   1.420   7.659  10.956  0.0228 -0.1769 -0.0266
31931SOL     OW 6106  12.236  10.889  10.253  1.0991 -0.9772  1.0153
31931SOL    HW1 6107  12.161  10.923  10.303 -1.0822 -3.1545 -0.5567
31931SOL    HW2 6108  12.298  10.962  10.251 -2.0832  1.9848  0.1661
31932SOL     OW 6109   7.976   1.450   2.248  0.0830 -0.0719  0.1433
31932SOL    HW1 6110   8.028   1.493   2.316 -0.5667  1.0535 -0.0427
31932SOL    HW2 6111   7.932   1.378   2.293  0.3160  0.1402  0.7212
31933SOL     OW 6112  10.307  10.818   7.634  0.9903  0.2526 -0.1851
31933SOL    HW1 6113  10.252  10.831   7.557  0.3253 -0.4904  0.1494
31933SOL    HW2 6114  10.245  10.814   7.707  1.4761 -0.5857  0.1969
31934SOL     OW 6115   3.950   3.608  11.341  0.0106 -0.5109 -0.4836
31934SOL    HW1 6116   3.891   3.557  11.397  1.8837 -1.0948  1.0733
31934SOL    HW2 6117   3.980   3.546  11.275 -0.2095 -0.5319 -0.5639
31935SOL     OW 6118   6.001   1.281   6.381  0.0463 -0.0989  0.0444
31935SOL    HW1 6119   6.033   1.263   6.469  1.7874  0.2165 -0.4749
31935SOL    HW2 6120   6.074   1.325   6.337 -0.7172 -0.3746 -1.6036
31936SOL     OW 6121   1.389   8.726   6.033  0.0346 -0.0527 -0.0812
31936SOL    HW1 6122   1.320   8.729   6.099  0.3224  1.2078  0.1918
31936SOL    HW2 6123   1.370   8.799   5.975  0.8159 -0.0405 -0.3390
31937SOL     OW 6124   6.974   8.490  12.801  0.2564  0.1245  0.5978
31937SOL    HW1 6125   6.974   8.406  12.846 -0.7557  0.1182  0.6015
31937SOL    HW2 6126   7.022   8.474  12.720  1.8239  0.0575  1.4894
31938SOL     OW 6127   7.310   1.234   7.824 -0.0390  0.3059  0.4504
31938SOL    HW1 6128   7.312   1.163   7.889  0.5161  2.2220  2.6843
31938SOL    HW2 6129   7.218   1.238   7.797 -0.0985 -1.1953  0.3152
31939SOL     OW 6130   0.613  10.053   4.106 -0.0240 -0.2187 -0.2274
31939SOL    HW1 6131   0.611  10.000   4.186  0.6115  0.6836  0.4007
31939SOL    HW2 6132   0.521  10.061   4.081 -0.1688 -1.2368 -0.0901
31940SOL     OW 6133   4.866   8.298  11.618  0.3038 -0.2997 -0.0285
31940SOL    HW1 6134   4.815   8.272  11.542  1.4562  0.1222 -0.9695
31940SOL    HW2 6135   4.854   8.393  11.624 -1.3548 -0.5515  1.5211
31941SOL     OW 6136   0.269   0.971   9.370 -0.0962 -0.5552 -0.2463
31941SOL    HW1 6137   0.333   0.899   9.370  0.2828 -0.2631  1.6142
31941SOL    HW2 6138   0.309   1.037   9.313  1.3867 -0.3090  1.0227
31942SOL     OW 6139   2.946   9.001   6.859  0.0048 -0.1947  0.1504
31942SOL    HW1 6140   2.872   9.058   6.879  0.2797  0.0384  0.5169
31942SOL    HW2 6141   2.912   8.912   6.867 -0.2713 -0.0857  0.1718
31943SOL     OW 6142   7.021   4.174   3.220  0.2062  0.2640  0.6193
31943SOL    HW1 6143   7.077   4.114   3.269 -0.5524 -2.3291 -1.4117
31943SOL    HW2 6144   7.082   4.225   3.166  0.7967 -0.1567  0.8736
31944SOL     OW 6145   1.413   8.277  11.652  0.0758 -0.1482  0.3403
31944SOL    HW1 6146   1.342   8.337  11.630  0.2884  0.6443  1.6900
31944SOL    HW2 6147   1.490   8.332  11.658  0.7887 -0.9645 -0.8527
31945SOL     OW 6148  10.920  12.904   0.867  0.6406 -0.7430  0.3554
31945SOL    HW1 6149  10.942  12.892   0.775 -0.0107 -2.3297  0.3637
31945SOL    HW2 6150  10.971  12.980   0.895  2.1582 -1.2688 -0.8674
31946SOL     OW 6151   7.669   3.243   8.986  0.3017  0.5614  0.3869
31946SOL    HW1 6152   7.760   3.245   9.015  0.3256 -1.0314  0.4866
31946SOL    HW2 6153   7.666   3.305   8.913  0.8088  2.6991  2.0685
31947SOL     OW 6154   6.703   1.103   3.874  0.6207  0.5449  0.2350
31947SOL    HW1 6155   6.748   1.149   3.945  1.4802  1.1798 -0.6885
31947SOL    HW2 6156   6.743   1.138   3.794  1.0536 -1.5327 -0.5184
31948SOL     OW 6157   0.326  10.546  12.348  0.1814  0.7003 -0.3111
31948SOL    HW1 6158   0.275  10.563  12.427  0.9276  2.0393 -0.0984
31948SOL    HW2 6159   0.389  10.479  12.374  0.9693  1.7195  0.4890
31949SOL     OW 6160  11.002   4.916   8.044  0.3436  0.0194 -0.1166
31949SOL    HW1 6161  10.939   4.847   8.024 -1.0334  1.6309 -1.7225
31949SOL    HW2 6162  11.076   4.900   7.985 -0.4564  0.4845 -1.2935
31950SOL     OW 6163   4.600   7.929   5.020 -0.1222  0.4410  1.0883
31950SOL    HW1 6164   4.539   8.000   5.000 -1.4881 -0.7221  0.9436
31950SOL    HW2 6165   4.646   7.912   4.937 -1.1315 -0.0550  0.6080
31951SOL     OW 6166   4.123  12.516   8.933 -0.2539  0.1699  0.3195
31951SOL    HW1 6167   4.041  12.558   8.909 -0.2506  0.2729  0.4866
31951SOL    HW2 6168   4.099  12.455   9.003 -0.1661  0.2955  0.4585
31952SOL     OW 6169   3.179   0.051   2.846 -0.4623  0.0003 -0.4229
31952SOL    HW1 6170   3.260  -0.001   2.839 -1.4489 -1.6269 -0.2202
31952SOL    HW2 6171   3.207   0.141   2.830  1.4935 -0.4399  0.2699
31953SOL     OW 6172   0.258   6.478   3.903 -0.2477  0.2967  0.1817
31953SOL    HW1 6173   0.206   6.545   3.859 -2.0844 -1.2195 -0.1020
31953SOL    HW2 6174   0.335   6.466   3.848 -0.9124  0.7458 -0.8672
31954SOL     OW 6175   7.927   8.511  11.111 -0.1708  0.1804 -0.4394
31954SOL    HW1 6176   7.964   8.423  11.114  1.5343  0.8660 -0.4124
31954SOL    HW2 6177   7.952   8.545  11.025  0.6168  1.2183  0.1819
31955SOL     OW 6178   8.533   5.906   1.724  0.2456 -0.2243  0.0510
31955SOL    HW1 6179   8.479   5.981   1.746  2.7449  1.3497  1.3349
31955SOL    HW2 6180   8.515   5.842   1.793 -0.8751 -0.2524 -0.2586
31956SOL     OW 6181   7.595  11.611  10.337 -0.7426  0.0910 -0.5165
31956SOL    HW1 6182   7.535  11.544  10.305  1.0587 -1.8649  0.0040
31956SOL    HW2 6183   7.631  11.575  10.418  3.7369 -0.5525 -2.4703
31957SOL     OW 6184  12.855  12.943   6.149 -0.2910 -0.4097  0.0591
31957SOL    HW1 6185  12.769  12.978   6.125  0.0301 -1.0679 -2.3358
31957SOL    HW2 6186  12.918  13.002   6.107  0.3559 -1.0590  0.0939
31958SOL     OW 6187   9.307   5.264   3.898 -0.1880  0.1192 -0.1542
31958SOL    HW1 6188   9.400   5.288   3.900 -0.2342  0.2360  1.2566
31958SOL    HW2 6189   9.271   5.317   3.828  0.7104  0.4607 -0.3744
31959SOL     OW 6190   6.437   0.566   4.062 -0.2884 -0.4213 -0.2146
31959SOL    HW1 6191   6.452   0.660   4.071  1.4710 -0.5357 -1.4843
31959SOL    HW2 6192   6.457   0.547   3.971 -0.5804 -2.0535  0.0238
31960SOL     OW 6193  10.202   9.283   5.526  0.1691 -0.6765 -0.1919
31960SOL    HW1 6194  10.287   9.239   5.523  0.0267 -0.9399 -0.4063
31960SOL    HW2 6195  10.176   9.290   5.434 -1.0883 -2.6288 -0.0352
31961SOL     OW 6196   3.520  12.451   2.283  0.3710 -0.1282 -0.1908
31961SOL    HW1 6197   3.586  12.433   2.350 -0.8209 -0.1608  0.9961
31961SOL    HW2 6198   3.506  12.367   2.240  0.2125 -0.3967  0.3789
31962SOL     OW 6199   3.645   3.071   7.447 -0.4905 -0.5518  0.2010
31962SOL    HW1 6200   3.649   3.161   7.479  1.2422 -0.9107  1.1471
31962SOL    HW2 6201   3.718   3.064   7.385  0.2859 -1.6584  1.1963
31963SOL     OW 6202   8.504   8.028   4.198  0.4045  0.1847 -0.6116
31963SOL    HW1 6203   8.448   8.080   4.141  1.7224  1.6970 -0.6138
31963SOL    HW2 6204   8.453   7.950   4.217 -0.7442  0.4174 -2.4724
31964SOL     OW 6205   9.541   8.458   5.234  0.4425  0.3398 -0.1061
31964SOL    HW1 6206   9.483   8.502   5.297 -1.5998  0.9747 -2.2829
31964SOL    HW2 6207   9.593   8.530   5.198 -0.4603  0.4804 -1.1815
31965SOL     OW 6208  11.903   7.792   1.280 -0.5694 -0.0753 -0.0314
31965SOL    HW1 6209  11.973   7.843   1.241 -1.0342 -0.6443 -1.6861
31965SOL    HW2 6210  11.948   7.722   1.328  0.0020  0.3803  0.1105
31966SOL     OW 6211   3.808   5.756  11.902  0.5285 -0.1553  0.1040
31966SOL    HW1 6212   3.887   5.748  11.956  1.4943  0.4144 -1.1826
31966SOL    HW2 6213   3.788   5.849  11.902  0.4675 -0.1659 -0.4182
31967SOL     OW 6214   0.748   2.525  10.585  0.5407 -0.5108 -0.5881
31967SOL    HW1 6215   0.763   2.430  10.585  1.5597 -0.3648 -0.6893
31967SOL    HW2 6216   0.682   2.539  10.653  1.2009 -1.1768  0.2217
31968SOL     OW 6217   3.610   0.815   4.330  0.2599  0.3396  0.1720
31968SOL    HW1 6218   3.527   0.804   4.284  0.7629 -0.4192 -0.5710
31968SOL    HW2 6219   3.660   0.876   4.275 -0.1369  1.5604  1.0983
31969SOL     OW 6220   8.469   1.284  10.062  0.3079 -0.2561 -0.3616
31969SOL    HW1 6221   8.407   1.219  10.031  0.8612 -1.2004  0.4561
31969SOL    HW2 6222   8.551   1.264  10.016  0.6361 -0.5163  0.3187
31970SOL     OW 6223  11.754   6.195   7.408 -0.2273 -0.1136 -0.5262
31970SOL    HW1 6224  11.753   6.167   7.499  2.4294  0.7610 -0.1503
31970SOL    HW2 6225  11.703   6.128   7.362  0.1365 -1.7369  1.3069
31971SOL     OW 6226   3.303   9.250   8.680  0.0943 -0.3735  0.4507
31971SOL    HW1 6227   3.357   9.312   8.632  0.3715 -0.2928  0.8594
31971SOL    HW2 6228   3.328   9.262   8.772 -0.9541  0.0037  0.7056
31972SOL     OW 6229   5.765   6.182   2.692  0.0116 -0.0094 -0.1905
31972SOL    HW1 6230   5.849   6.144   2.666  0.0265 -0.5182  0.5948
31972SOL    HW2 6231   5.747   6.247   2.624  1.2269  0.3867 -0.1598
31973SOL     OW 6232   6.208   3.806   8.464  0.3100 -0.3336  0.2850
31973SOL    HW1 6233   6.233   3.820   8.555 -1.4905 -1.0296  0.9135
31973SOL    HW2 6234   6.221   3.892   8.423 -0.2517  0.3788  1.5393
31974SOL     OW 6235  12.016   8.398   0.183 -0.5388 -0.4319 -0.2067
31974SOL    HW1 6236  11.942   8.364   0.233  0.0092  0.0447  0.9779
31974SOL    HW2 6237  11.986   8.399   0.092 -1.3748 -1.8633  0.0193
31975SOL     OW 6238   2.109   3.688   4.813  0.5089 -0.4560  0.2964
31975SOL    HW1 6239   2.121   3.720   4.723 -0.8698  0.1358  0.2929
31975SOL    HW2 6240   2.137   3.762   4.868  1.1477 -0.7387  0.3527
31976SOL     OW 6241   1.356   3.566   2.853 -0.2522  0.1454 -0.9259
31976SOL    HW1 6242   1.294   3.571   2.780  0.2117 -2.3715 -1.5718
31976SOL    HW2 6243   1.302   3.543   2.928 -0.4051  0.1674 -1.0287
31977SOL     OW 6244   4.427   4.185   3.486 -1.0634  0.3812  0.3511
31977SOL    HW1 6245   4.438   4.227   3.400  0.8687  0.1562  0.4630
31977SOL    HW2 6246   4.460   4.248   3.549 -3.1403  0.8518  1.0748
31978SOL     OW 6247   8.384   3.833   6.719 -0.4740  0.5526  0.1014
31978SOL    HW1 6248   8.398   3.908   6.777  2.2176 -0.8179  1.4752
31978SOL    HW2 6249   8.302   3.794   6.749 -0.5703  1.4765  1.0982
31979SOL     OW 6250   0.362  12.047   2.059  0.2196 -0.0750 -0.7248
31979SOL    HW1 6251   0.291  12.003   2.013 -0.1044  0.0742 -0.3771
31979SOL    HW2 6252   0.344  12.031   2.152 -0.0223  0.9403 -0.5833
31980SOL     OW 6253   2.968   4.009   5.891 -0.4126  0.3326 -0.3841
31980SOL    HW1 6254   2.882   4.016   5.850 -0.7764  0.9969  0.4517
31980SOL    HW2 6255   2.949   3.994   5.984  0.3878 -2.2988 -0.5610
31981SOL     OW 6256   8.593   6.143   3.543  0.4027 -0.1647  0.4672
31981SOL    HW1 6257   8.608   6.150   3.449  0.9250  1.4123  0.6506
31981SOL    HW2 6258   8.676   6.167   3.584 -0.5462  1.7919  1.3658
31982SOL     OW 6259   5.520   7.805   1.238  0.0377 -0.1822  0.0042
31982SOL    HW1 6260   5.504   7.712   1.226  0.1371 -0.1475 -0.4135
31982SOL    HW2 6261   5.596   7.809   1.297  0.0668 -0.3663 -0.0219
31983SOL     OW 6262   0.529   1.203   5.587 -0.1402  0.0210 -0.1092
31983SOL    HW1 6263   0.521   1.268   5.518 -0.2295 -1.1651 -1.2613
31983SOL    HW2 6264   0.622   1.181   5.589  0.1147  1.1062  1.1858
31984SOL     OW 6265   8.373  10.295   2.298 -0.4440 -0.8393  0.0829
31984SOL    HW1 6266   8.440  10.239   2.259 -0.6928 -0.6145 -0.6809
31984SOL    HW2 6267   8.390  10.291   2.392  0.2517 -1.2789 -0.0572
31985SOL     OW 6268   6.152   0.412   5.653  0.8281  0.9480 -0.0967
31985SOL    HW1 6269   6.228   0.438   5.601  0.4763  1.1002 -0.5483
31985SOL    HW2 6270   6.182   0.337   5.703  0.7451 -0.2361 -1.7250
31986SOL     OW 6271   5.771   3.096   4.592  0.2014 -0.4513 -0.1879
31986SOL    HW1 6272   5.864   3.109   4.611 -0.2002  2.5156  0.1959
31986SOL    HW2 6273   5.728   3.172   4.630 -2.1834 -0.7783 -2.0162
31987SOL     OW 6274  10.628   4.087  10.862  0.0381 -0.2225 -0.1173
31987SOL    HW1 6275  10.534   4.092  10.875  0.0112 -2.0433  0.6995
31987SOL    HW2 6276  10.640   4.028  10.787  0.4988 -3.3936  2.2203
31988SOL     OW 6277   4.076   9.278   8.946  0.3607 -0.0798  0.1912
31988SOL    HW1 6278   4.062   9.372   8.961 -0.7374  0.1200 -1.7542
31988SOL    HW2 6279   3.988   9.241   8.946  0.8093 -1.2242  1.3713
31989SOL     OW 6280   1.284   5.953   2.693 -0.3357 -0.8144  0.5709
31989SOL    HW1 6281   1.257   6.041   2.668 -0.4149 -0.6682  1.1589
31989SOL    HW2 6282   1.205   5.912   2.728  0.1897 -0.3636  2.3526
31990SOL     OW 6283   2.371   6.000   8.889 -0.2880  0.0885  0.0981
31990SOL    HW1 6284   2.362   5.956   8.805 -2.3452  0.0503  0.2941
31990SOL    HW2 6285   2.305   5.959   8.945 -0.9564  2.0794  0.8495
31991SOL     OW 6286   9.699   2.745   7.727  0.0094 -0.0506 -0.5378
31991SOL    HW1 6287   9.704   2.716   7.636  0.1579 -0.1528 -0.4983
31991SOL    HW2 6288   9.680   2.838   7.722  1.6343  0.3081 -0.7071
31992SOL     OW 6289   5.380  12.287  11.608 -0.9969 -0.0552 -0.2445
31992SOL    HW1 6290   5.379  12.193  11.630 -0.7900 -0.0511 -0.2176
31992SOL    HW2 6291   5.304  12.298  11.550 -1.0140 -0.2427 -0.2601
31993SOL     OW 6292  11.044   0.558   0.367 -0.1010 -0.1671 -0.3349
31993SOL    HW1 6293  11.094   0.620   0.421 -1.0549  0.4435 -0.1335
31993SOL    HW2 6294  11.062   0.585   0.277 -0.2784  0.2187 -0.2560
31994SOL     OW 6295   1.251   6.959  10.002 -0.2120 -0.2008  0.3426
31994SOL    HW1 6296   1.265   6.935  10.093 -0.2526 -2.5173 -0.2080
31994SOL    HW2 6297   1.156   6.970   9.993 -0.4893 -2.4798  0.0611
31995SOL     OW 6298   2.616  12.681   4.386 -0.3330  0.0727  0.1818
31995SOL    HW1 6299   2.529  12.721   4.393 -1.0429 -1.6226  2.2357
31995SOL    HW2 6300   2.673  12.737   4.439  0.1927  1.8564 -2.1044
31996SOL     OW 6301   2.606  12.462   7.544  0.2515  0.2430  0.0762
31996SOL    HW1 6302   2.537  12.443   7.480  1.6091  0.0498 -1.3898
31996SOL    HW2 6303   2.660  12.529   7.502  2.6990 -1.7575 -0.1765
31997SOL     OW 6304   2.488  12.055  10.949 -0.2884  0.5133 -0.1092
31997SOL    HW1 6305   2.434  12.093  10.880 -0.4892  0.7445  0.1726
31997SOL    HW2 6306   2.558  12.119  10.962 -0.6940  0.8492  0.4504
31998SOL     OW 6307   5.497   9.412   5.827  0.5008  0.3200 -0.2789
31998SOL    HW1 6308   5.527   9.341   5.770  0.0744  0.8729 -1.2112
31998SOL    HW2 6309   5.496   9.489   5.771 -0.4171  0.7715  0.3392
31999SOL     OW 6310   5.171   1.508   7.781 -0.0291  0.2852 -0.0889
31999SOL    HW1 6311   5.144   1.538   7.868  0.8658  1.4165 -0.1746
31999SOL    HW2 6312   5.097   1.458   7.748 -1.2751  1.7531  0.3987
32000SOL     OW 6313   4.005   7.383  10.171  0.1907  0.9044  0.1619
32000SOL    HW1 6314   3.940   7.406  10.238  0.2274  2.3956 -0.2711
32000SOL    HW2 6315   3.971   7.423  10.091  0.9524  0.4972 -0.3717
32001SOL     OW 6316   8.776   0.550  12.424  0.1627  0.5566 -0.0238
32001SOL    HW1 6317   8.713   0.490  12.384 -1.6668  0.9856  2.0624
32001SOL    HW2 6318   8.725   0.627  12.449  1.6666  1.2648  1.0517
32002SOL     OW 6319   3.358   7.337  11.505  0.1462 -0.2074 -0.8607
32002SOL    HW1 6320   3.353   7.384  11.589  1.3242 -0.9271 -0.3620
32002SOL    HW2 6321   3.285   7.372  11.454  1.2192  2.5305 -0.7185
32003SOL     OW 6322   0.470   2.741   4.604 -0.3354  0.4737  0.4411
32003SOL    HW1 6323   0.446   2.649   4.612 -0.5166  0.5638  0.9498
32003SOL    HW2 6324   0.480   2.772   4.694 -0.0609  0.8965  0.2715
32004SOL     OW 6325   7.132   0.084   6.285 -0.6176 -0.1852 -0.2337
32004SOL    HW1 6326   7.216   0.078   6.331 -0.8004 -1.5765 -0.0310
32004SOL    HW2 6327   7.153   0.063   6.194  0.0441  4.1988 -1.3276
32005SOL     OW 6328  11.119  11.268  10.083  0.1859 -0.5446  0.5317
32005SOL    HW1 6329  11.116  11.344  10.142  0.1231 -1.2483  1.4610
32005SOL    HW2 6330  11.195  11.218  10.113  2.0376  0.6140 -1.9550
32006SOL     OW 6331   3.742  12.428   0.273 -0.2034 -0.0394  0.0472
32006SOL    HW1 6332   3.714  12.377   0.197 -0.2214  0.6396 -0.4013
32006SOL    HW2 6333   3.762  12.362   0.340 -0.0724 -0.6396 -0.5806
32007SOL     OW 6334  10.191   9.927   1.175 -0.2249 -0.1037 -0.3465
32007SOL    HW1 6335  10.257   9.860   1.193 -1.4852 -1.6331 -1.2048
32007SOL    HW2 6336  10.186   9.977   1.257  1.6438 -0.2210 -0.1096
32008SOL     OW 6337   0.306   1.166   6.821  0.9177 -0.3085  0.0352
32008SOL    HW1 6338   0.389   1.213   6.818  0.0732  1.3254  0.6536
32008SOL    HW2 6339   0.240   1.235   6.831 -0.5451 -1.5306 -0.7085
32009SOL     OW 6340  12.107   3.962   9.589 -0.0966 -0.1798 -0.2939
32009SOL    HW1 6341  12.057   4.006   9.657  0.2165 -2.7944  1.7941
32009SOL    HW2 6342  12.060   3.981   9.508 -1.9940  0.9329  1.0009
32010SOL     OW 6343   8.752   9.786   1.645 -0.3647 -0.2549  0.0689
32010SOL    HW1 6344   8.772   9.751   1.732  0.2795  0.6603  0.3040
32010SOL    HW2 6345   8.838   9.795   1.603 -0.5370  0.6588 -0.1182
32011SOL     OW 6346   6.189  11.206   1.064  0.3109  0.2444 -0.3130
32011SOL    HW1 6347   6.203  11.301   1.059  1.0578  0.5631  4.0279
32011SOL    HW2 6348   6.094  11.197   1.068  0.2419  0.8094 -0.4909
32012SOL     OW 6349   2.133   6.465   3.500 -0.6474 -0.2994  0.3749
32012SOL    HW1 6350   2.172   6.499   3.419 -1.0189  0.4815  0.5121
32012SOL    HW2 6351   2.039   6.457   3.480 -0.7601  0.0098  0.7600
32013SOL     OW 6352   0.293   3.023   3.385 -0.2122 -0.4446 -0.1703
32013SOL    HW1 6353   0.223   3.046   3.446  0.0003 -0.5076  0.1021
32013SOL    HW2 6354   0.367   2.998   3.442  1.1789  2.8154 -0.3517
32014SOL     OW 6355  11.091   1.242   5.585  1.0664  0.6299 -0.0723
32014SOL    HW1 6356  11.029   1.169   5.593 -0.7391  2.0914  0.1090
32014SOL    HW2 6357  11.095   1.261   5.492  1.5393  0.3117 -0.1199
32015SOL     OW 6358   3.429   9.111  11.461 -0.0341 -1.1649  0.0455
32015SOL    HW1 6359   3.487   9.122  11.385  0.8344 -1.3929  0.6727
32015SOL    HW2 6360   3.443   9.190  11.513  0.4830 -1.6887  0.7105
32016SOL     OW 6361   4.931  11.766   8.857  0.3316 -0.1512 -0.0048
32016SOL    HW1 6362   5.019  11.731   8.851  1.1080  1.1370  2.4386
32016SOL    HW2 6363   4.941  11.860   8.839 -0.7562 -0.1472 -0.7678
32017SOL     OW 6364   1.745   5.262   2.238 -0.6770 -0.5018  0.5131
32017SOL    HW1 6365   1.704   5.232   2.156 -0.3161  0.7929 -0.1648
32017SOL    HW2 6366   1.694   5.339   2.263 -0.0416 -0.1893  0.8593
32018SOL     OW 6367  12.381   9.436   1.472 -0.3468  0.2187  0.3333
32018SOL    HW1 6368  12.358   9.377   1.401 -0.3084 -0.3855  0.8094
32018SOL    HW2 6369  12.429   9.381   1.534 -0.2495  0.7662  0.7537
32019SOL     OW 6370   3.290  12.547   8.837  0.1000 -0.3918  0.2984
32019SOL    HW1 6371   3.233  12.514   8.907  1.7943 -4.8237 -0.1283
32019SOL    HW2 6372   3.237  12.540   8.758  0.2153 -1.5822  0.3147
32020SOL     OW 6373   0.966   2.725   1.645 -0.2420  0.4433 -0.6635
32020SOL    HW1 6374   1.055   2.714   1.677 -0.5533 -1.2080 -0.2881
32020SOL    HW2 6375   0.940   2.811   1.677 -0.1821 -0.6745  2.8087
32021SOL     OW 6376   1.197   8.821   4.790 -0.2917  0.0751 -0.0627
32021SOL    HW1 6377   1.136   8.829   4.864  0.4495 -0.7225  0.6630
32021SOL    HW2 6378   1.194   8.907   4.748 -0.6608  0.5908  0.9613
32022SOL     OW 6379  11.860   2.689   5.110 -0.0915 -0.6566  0.4399
32022SOL    HW1 6380  11.943   2.682   5.062  0.5579 -0.2351  1.4488
32022SOL    HW2 6381  11.824   2.601   5.109 -1.1943 -0.2788 -2.6421
32023SOL     OW 6382  12.821  11.289   8.376 -0.1225 -0.3222  0.6382
32023SOL    HW1 6383  12.879  11.285   8.299  0.1483  0.8303  0.7656
32023SOL    HW2 6384  12.763  11.213   8.366  1.0131 -1.1660  0.1952
32024SOL     OW 6385  11.326  11.447   5.951  0.3081 -0.9456 -0.4864
32024SOL    HW1 6386  11.246  11.424   5.903 -0.9500 -2.2094  2.0059
32024SOL    HW2 6387  11.346  11.536   5.922 -1.8244 -0.7090 -1.4623
32025SOL     OW 6388  12.546   7.574   8.672  0.1521  0.3774  0.3259
32025SOL    HW1 6389  12.458   7.610   8.683  0.3373  1.5556 -1.6011
32025SOL    HW2 6390  12.573   7.550   8.761 -1.4344  1.5645  1.1907
32026SOL     OW 6391   1.701   0.083  12.192  0.3773 -0.1768  0.3711
32026SOL    HW1 6392   1.733  -0.004  12.169  0.1193  0.0122 -0.7945
32026SOL    HW2 6393   1.752   0.143  12.138  1.0211  0.4667  1.6496
32027SOL     OW 6394  12.818  10.510   4.925  0.5339 -0.4441 -0.0239
32027SOL    HW1 6395  12.778  10.543   4.845  0.2969 -1.3743 -0.2883
32027SOL    HW2 6396  12.811  10.583   4.987 -0.1459 -0.0606 -0.5474
32028SOL     OW 6397   1.236   4.972   4.113 -0.1301  0.1761 -0.5525
32028SOL    HW1 6398   1.314   4.916   4.110 -0.7339 -0.7849  0.7202
32028SOL    HW2 6399   1.255   5.043   4.052  2.2259  0.6217  0.5990
32029SOL     OW 6400   4.558   7.924  10.921  0.3721  0.0964 -0.1639
32029SOL    HW1 6401   4.625   7.936  10.988  1.4175  1.1730 -1.3355
32029SOL    HW2 6402   4.605   7.886  10.846 -0.4279  0.3495 -0.8089
32030SOL     OW 6403  11.428   0.141  12.968 -0.0416  0.0315 -0.0294
32030SOL    HW1 6404  11.523   0.128  12.967 -0.0081  0.2734 -0.6575
32030SOL    HW2 6405  11.400   0.106  13.052  0.5272 -0.5765 -0.0818
32031SOL     OW 6406  10.109   6.076   4.804 -0.1453 -0.2566  0.2729
32031SOL    HW1 6407  10.185   6.019   4.789  0.2239 -0.0911  1.3772
32031SOL    HW2 6408  10.087   6.110   4.717 -0.0524 -1.6677 -0.3264
32032SOL     OW 6409  10.012   3.698  10.218 -0.6755 -0.4094  0.0779
32032SOL    HW1 6410   9.927   3.677  10.254 -1.3240 -1.1869 -1.7644
32032SOL    HW2 6411   9.993   3.752  10.141  0.4834 -0.5009 -0.2978
32033SOL     OW 6412  11.362   2.622   8.174 -0.0903 -0.4692 -0.3727
32033SOL    HW1 6413  11.313   2.552   8.129  0.6933 -1.8243  0.8051
32033SOL    HW2 6414  11.407   2.577   8.245  0.6414  1.2294  0.2703
32034SOL     OW 6415   9.043   9.528  10.010 -0.7659  0.1127  0.0620
32034SOL    HW1 6416   8.984   9.561   9.942 -1.3570 -0.3753  0.3293
32034SOL    HW2 6417   8.991   9.465  10.059  0.2942 -1.1750 -0.3853
32035SOL     OW 6418   0.643  11.293   2.297 -0.1282  0.2864 -0.4892
32035SOL    HW1 6419   0.706  11.358   2.327  1.2938 -0.9032 -0.7733
32035SOL    HW2 6420   0.650  11.222   2.361 -1.0588  0.0437 -0.6353
32036SOL     OW 6421  12.874  12.974   4.540  0.1814  0.3575  0.4186
32036SOL    HW1 6422  12.867  13.047   4.601  0.1793  0.0865  0.7499
32036SOL    HW2 6423  12.799  12.984   4.481  1.2241  1.6823 -0.7241
32037SOL     OW 6424  10.247  10.402   0.134  0.2744 -0.2767  0.3007
32037SOL    HW1 6425  10.200  10.466   0.080  1.4058  0.6692  0.4078
32037SOL    HW2 6426  10.267  10.330   0.074 -1.0441 -0.5791  0.1885
32038SOL     OW 6427   7.513   0.542  11.106  0.2029 -0.4175 -0.6497
32038SOL    HW1 6428   7.421   0.517  11.097  0.1284 -0.3238 -0.1985
32038SOL    HW2 6429   7.529   0.600  11.032 -0.1347 -0.3487 -0.6738
32039SOL     OW 6430   6.140   6.146   2.935  0.4270 -0.1341  0.5289
32039SOL    HW1 6431   6.104   6.139   2.847 -1.5824 -2.4107  1.4185
32039SOL    HW2 6432   6.217   6.089   2.934 -1.0587 -2.2533  0.8392
32040SOL     OW 6433   8.903   1.848   2.812  0.8699 -0.1752 -0.1361
32040SOL    HW1 6434   8.916   1.901   2.733 -1.2119 -2.0639 -1.8817
32040SOL    HW2 6435   8.917   1.758   2.784 -2.1245 -1.1281  0.9705
32041SOL     OW 6436  12.177   5.448   4.886  0.0740 -0.0321 -0.4134
32041SOL    HW1 6437  12.153   5.382   4.821 -0.2752 -1.1123  0.7902
32041SOL    HW2 6438  12.093   5.472   4.927  0.0835  1.6685 -1.2539
32042SOL     OW 6439   5.384   2.531   6.022  0.0262  0.4768  0.4580
32042SOL    HW1 6440   5.302   2.500   5.983  0.1081 -0.4145  0.9696
32042SOL    HW2 6441   5.453   2.489   5.970  0.1888  1.7752 -0.4200
32043SOL     OW 6442   1.356   1.515   5.628 -0.2757 -0.5911  0.4484
32043SOL    HW1 6443   1.420   1.569   5.674 -1.4180  0.0041  1.3714
32043SOL    HW2 6444   1.335   1.565   5.549  0.8641 -1.1009 -0.2043
32044SOL     OW 6445   4.708   3.569   8.108  0.4975  0.1597  0.0870
32044SOL    HW1 6446   4.750   3.589   8.024  0.3843 -0.5514 -0.1439
32044SOL    HW2 6447   4.678   3.479   8.099  0.0234  0.2506  0.7074
32045SOL     OW 6448   5.804   8.067   4.739 -0.0629  0.1046 -0.1829
32045SOL    HW1 6449   5.866   8.103   4.676 -0.1874  1.6776  0.5603
32045SOL    HW2 6450   5.722   8.061   4.690  0.3077 -0.6186 -0.7429
32046SOL     OW 6451   9.915   9.571   1.360 -0.4213 -0.3676  0.0969
32046SOL    HW1 6452   9.844   9.620   1.402  0.2579 -0.4438  1.3723
32046SOL    HW2 6453   9.995   9.613   1.390  0.1099 -0.4038 -1.1791
32047SOL     OW 6454   7.861   6.306   7.531  0.4012 -0.1643  0.5497
32047SOL    HW1 6455   7.849   6.257   7.612 -0.1607 -0.3980  0.3291
32047SOL    HW2 6456   7.813   6.388   7.545 -0.3630 -0.5355  0.1663
32048SOL     OW 6457   8.184   4.322   7.259  0.1326  0.5214 -0.0572
32048SOL    HW1 6458   8.117   4.349   7.197 -0.5737 -1.0245 -0.0181
32048SOL    HW2 6459   8.134   4.281   7.330  0.9711  1.5970  1.1969
32049SOL     OW 6460   3.383  12.125   7.083 -0.4426 -0.2638 -0.1774
32049SOL    HW1 6461   3.411  12.070   7.009 -0.0895 -0.7551  0.3095
32049SOL    HW2 6462   3.297  12.091   7.107  0.0456 -1.0485  0.5306
32050SOL     OW 6463  12.778   3.261  12.197 -1.3404  0.5542 -0.1574
32050SOL    HW1 6464  12.805   3.283  12.286 -2.9063  0.4237  0.3723
32050SOL    HW2 6465  12.855   3.281  12.143 -1.6007  4.5048  0.6489
32051SOL     OW 6466   7.532   3.850   0.976 -0.0956 -0.0205 -0.0929
32051SOL    HW1 6467   7.514   3.911   0.903 -1.5061  1.1842  1.1876
32051SOL    HW2 6468   7.477   3.774   0.958 -1.0898  0.6325  0.1250
32052SOL     OW 6469   5.298   6.033   4.407  0.1025  0.6674 -0.3772
32052SOL    HW1 6470   5.388   6.063   4.399 -0.3840  1.9075 -1.7040
32052SOL    HW2 6471   5.295   5.953   4.355  0.6096  0.2162  0.2858
32053SOL     OW 6472   4.764   2.456   1.932  0.0900  0.9968 -0.3262
32053SOL    HW1 6473   4.835   2.514   1.906  1.4644 -0.9483 -1.1667
32053SOL    HW2 6474   4.799   2.368   1.918 -2.1149 -0.0443  0.2902
32054SOL     OW 6475  12.580   9.362   8.757  0.3230  0.1938  0.2424
32054SOL    HW1 6476  12.649   9.413   8.715  2.2138 -1.0784  1.6599
32054SOL    HW2 6477  12.554   9.298   8.690 -0.9636  1.8967 -0.9896
32055SOL     OW 6478  10.124   2.873  10.468  1.1328 -0.1893 -0.4291
32055SOL    HW1 6479  10.186   2.885  10.397  0.3679 -1.3751 -1.3409
32055SOL    HW2 6480  10.055   2.938  10.451  1.4032  0.1522 -0.2341
32056SOL     OW 6481  12.344   5.327   2.873 -0.4624 -1.0059  0.1283
32056SOL    HW1 6482  12.399   5.353   2.947 -0.3713 -0.3990 -0.1399
32056SOL    HW2 6483  12.262   5.298   2.913 -0.6382 -0.1134  0.4519
32057SOL     OW 6484   0.358   3.755   8.891 -0.3162  0.0094  0.4037
32057SOL    HW1 6485   0.367   3.726   8.981 -0.5615  4.2957  2.0171
32057SOL    HW2 6486   0.447   3.748   8.855  0.1511 -0.0677  1.5402
32058SOL     OW 6487  11.049   2.644   6.840  0.4838  0.2218 -0.5149
32058SOL    HW1 6488  11.098   2.671   6.762  0.3742  0.8560 -0.3716
32058SOL    HW2 6489  10.958   2.638   6.810  0.8680 -3.6819 -1.5154
32059SOL     OW 6490   6.343   7.134   7.210 -0.0850  0.2742 -0.4609
32059SOL    HW1 6491   6.297   7.207   7.168  0.5364  1.9432  1.5379
32059SOL    HW2 6492   6.327   7.059   7.154 -1.3923  1.7923 -2.2364
32060SOL     OW 6493   1.231   8.802  11.381 -0.1429  0.0828  0.2671
32060SOL    HW1 6494   1.295   8.761  11.322 -1.2008  0.7488 -1.4218
32060SOL    HW2 6495   1.284   8.859  11.436  0.9104 -0.6547  0.0634
32061SOL     OW 6496   0.649   6.589   0.098  0.1566  0.2430 -0.2107
32061SOL    HW1 6497   0.639   6.573   0.192  0.5532 -1.9984 -0.5050
32061SOL    HW2 6498   0.654   6.502   0.059  3.8573  1.0505 -1.9188
32062SOL     OW 6499  10.591   2.855   7.048  0.2593 -0.1415 -0.0070
32062SOL    HW1 6500  10.577   2.935   7.097  1.1911  0.8847 -1.3521
32062SOL    HW2 6501  10.506   2.836   7.007  0.5344  1.3176 -1.3257
32063SOL     OW 6502   8.993   4.258   8.604  0.1735  0.3925 -0.3739
32063SOL    HW1 6503   9.044   4.181   8.582 -0.2061  0.6612 -2.4077
32063SOL    HW2 6504   8.904   4.225   8.617 -0.0503  0.4870 -1.5393
32064SOL     OW 6505   6.374   9.175  11.123 -0.8083  0.2332  0.0259
32064SOL    HW1 6506   6.450   9.229  11.101 -1.9142  2.6076  1.6070
32064SOL    HW2 6507   6.410   9.089  11.142  1.5008  1.2841  0.6966
32065SOL     OW 6508  10.963   7.561  11.649 -0.3610  0.4554 -0.3115
32065SOL    HW1 6509  10.886   7.531  11.696  0.0528 -0.2599 -0.0701
32065SOL    HW2 6510  11.037   7.532  11.703  0.1121 -0.0206 -1.1862
32066SOL     OW 6511   0.429   5.722   7.496  0.0305 -0.1016 -0.0854
32066SOL    HW1 6512   0.411   5.746   7.405  0.4769  0.1257 -0.1189
32066SOL    HW2 6513   0.431   5.626   7.496 -0.1908 -0.1064 -0.2694
32067SOL     OW 6514   3.948  12.063   7.750  0.5385  0.2301  0.2946
32067SOL    HW1 6515   3.899  12.039   7.828 -1.3020  0.6483 -0.6836
32067SOL    HW2 6516   3.897  12.028   7.677  1.1289  1.5904 -0.8321
32068SOL     OW 6517  10.224   5.623   0.391  0.3602 -0.2468 -0.2570
32068SOL    HW1 6518  10.204   5.689   0.457  1.2545 -0.9413  0.7277
32068SOL    HW2 6519  10.247   5.674   0.313 -0.2392  0.5876  0.0906
32069SOL     OW 6520  12.370  11.109   1.754 -0.2768  0.8083  0.1679
32069SOL    HW1 6521  12.337  11.099   1.665 -0.9609 -0.4848  0.5434
32069SOL    HW2 6522  12.446  11.168   1.746  1.4412 -1.4891 -1.6943
32070SOL     OW 6523   2.164   0.492   0.499  0.5765 -0.5618  0.2268
32070SOL    HW1 6524   2.239   0.491   0.440  0.2714 -0.5798 -0.1699
32070SOL    HW2 6525   2.101   0.550   0.457  0.0009 -1.2763  0.0764
32071SOL     OW 6526   5.148   3.486   1.417 -0.2245 -0.5486  0.1450
32071SOL    HW1 6527   5.072   3.507   1.470 -0.3101  0.2515 -0.2796
32071SOL    HW2 6528   5.165   3.566   1.366  0.5499 -0.9059 -0.1782
32072SOL     OW 6529   0.325   2.598   4.360  0.0508 -0.1420  0.1050
32072SOL    HW1 6530   0.338   2.684   4.399  0.7033  0.0634 -0.5431
32072SOL    HW2 6531   0.365   2.604   4.273  1.2799 -1.4909  0.5354
32073SOL     OW 6532   1.146   7.327   7.355  0.3756 -0.1606 -0.1524
32073SOL    HW1 6533   1.054   7.303   7.368  0.0576  0.7964 -0.4961
32073SOL    HW2 6534   1.177   7.349   7.443 -0.1034  0.7386 -0.1940
32074SOL     OW 6535  10.177   9.086   0.817  0.3196  0.4354  0.0458
32074SOL    HW1 6536  10.109   9.152   0.833 -0.6773 -0.6288  0.3689
32074SOL    HW2 6537  10.129   9.012   0.779  1.5491  0.2104 -1.1152
32075SOL     OW 6538   9.963   8.934   7.226  0.5223  0.1443  0.2431
32075SOL    HW1 6539   9.969   8.921   7.320  0.4916 -1.6446  0.0371
32075SOL    HW2 6540   9.903   8.866   7.195 -0.2945  1.3424 -0.9654
32076SOL     OW 6541   1.607   1.255   0.476  0.0487 -0.3751 -0.4863
32076SOL    HW1 6542   1.525   1.253   0.428 -1.6613  3.0657  1.8258
32076SOL    HW2 6543   1.581   1.254   0.568  2.4270  1.7438  0.3397
32077SOL     OW 6544   9.294  12.604   8.728  0.2680 -0.0063  0.4404
32077SOL    HW1 6545   9.376  12.616   8.682  0.5824  0.7857  1.1694
32077SOL    HW2 6546   9.230  12.585   8.660  1.1533 -1.2181 -0.0765
32078SOL     OW 6547  12.356   7.801   0.998  0.2249 -0.2287  0.2079
32078SOL    HW1 6548  12.275   7.753   0.981 -0.0702  0.7934 -1.4513
32078SOL    HW2 6549  12.424   7.752   0.951  0.2417 -0.0018 -0.0013
32079SOL     OW 6550   1.539   9.807  11.752  0.3904  0.5588 -0.3041
32079SOL    HW1 6551   1.510   9.898  11.762 -1.0430  0.0119  0.8429
32079SOL    HW2 6552   1.485   9.773  11.680  0.9802  0.6156 -0.7846
32080SOL     OW 6553   5.466   8.284   4.293 -0.1686  0.0394  0.2099
32080SOL    HW1 6554   5.414   8.206   4.274  0.5271 -0.0648 -1.3905
32080SOL    HW2 6555   5.495   8.271   4.384 -2.2041 -0.2757  0.8787
32081SOL     OW 6556   1.732  11.258   7.980 -0.2196  0.3914 -0.5009
32081SOL    HW1 6557   1.820  11.272   8.017  0.1619 -0.8442 -0.8952
32081SOL    HW2 6558   1.698  11.183   8.028 -0.6278  0.2003 -1.0848
32082SOL     OW 6559   1.441  12.818  11.347  0.4277 -0.4503  0.0419
32082SOL    HW1 6560   1.516  12.837  11.292  0.2965 -1.6652 -0.5994
32082SOL    HW2 6561   1.431  12.895  11.403  1.0092  0.4929 -1.1267
32083SOL     OW 6562  11.892  11.647   3.125  0.9918 -0.3740  0.2798
32083SOL    HW1 6563  11.834  11.696   3.183 -0.5628  0.9117 -2.1785
32083SOL    HW2 6564  11.893  11.558   3.160 -1.2123 -0.0404  1.3121
32084SOL     OW 6565   8.841   0.817   1.850  0.7083  0.7732 -0.4989
32084SOL    HW1 6566   8.876   0.904   1.868  0.0382  0.8732  0.4229
32084SOL    HW2 6567   8.751   0.833   1.821  0.8217  0.4282 -1.0436
32085SOL     OW 6568   4.052   1.116   7.345  0.7967  0.1224  0.5012
32085SOL    HW1 6569   4.094   1.182   7.290  1.4608 -0.0540  0.7898
32085SOL    HW2 6570   4.123   1.076   7.394  0.2816 -0.1279  1.0624
32086SOL     OW 6571   4.015  10.135  10.775  0.0325 -0.3441  0.0299
32086SOL    HW1 6572   4.017  10.047  10.738  1.2389  0.3123 -1.5955
32086SOL    HW2 6573   4.022  10.193  10.700  0.4317  1.1332  1.1479
32087SOL     OW 6574  11.259   9.377  11.963  0.0258  0.5349 -0.1384
32087SOL    HW1 6575  11.217   9.373  12.048  0.0706  1.3916 -0.0745
32087SOL    HW2 6576  11.352   9.363  11.981 -0.1330 -0.8348 -0.2266
32088SOL     OW 6577   9.538  10.840  11.867  0.3667  0.3745 -0.1244
32088SOL    HW1 6578   9.468  10.805  11.923  1.1968 -0.3884  0.4659
32088SOL    HW2 6579   9.613  10.783  11.885  0.8481  0.5374 -1.5203
32089SOL     OW 6580   2.947   6.374   7.170 -0.0847 -0.2155 -0.6894
32089SOL    HW1 6581   2.913   6.284   7.173  0.4168 -0.4019 -0.3696
32089SOL    HW2 6582   2.960   6.391   7.076  0.7453 -0.8449 -0.7050
32090SOL     OW 6583   0.911   6.855   7.917  0.0679  0.0238 -0.2957
32090SOL    HW1 6584   0.961   6.774   7.907  0.3258  0.1126  0.2392
32090SOL    HW2 6585   0.912   6.872   8.011  0.8487  1.1672 -0.4875
32091SOL     OW 6586  10.184  12.422  11.542 -0.0428 -0.2285  0.2644
32091SOL    HW1 6587  10.196  12.510  11.506 -0.2251 -0.1739  0.3386
32091SOL    HW2 6588  10.265  12.405  11.590 -0.7841  0.6786  1.9042
32092SOL     OW 6589  10.430   0.287  12.257  0.3766  0.4049 -0.4547
32092SOL    HW1 6590  10.395   0.254  12.340  0.1559 -0.0831 -0.7368
32092SOL    HW2 6591  10.461   0.209  12.211 -1.0903  0.4409 -1.5740
32093SOL     OW 6592   3.955   0.633  12.690 -0.1332 -0.2223  0.2127
32093SOL    HW1 6593   3.948   0.655  12.783 -1.5573  1.1144 -0.1713
32093SOL    HW2 6594   3.882   0.574  12.674  0.4987 -0.9790  0.0630
32094SOL     OW 6595  12.474   3.698   8.175 -0.0839 -0.3916  0.0935
32094SOL    HW1 6596  12.559   3.656   8.191  1.2452  1.7391 -0.8477
32094SOL    HW2 6597  12.449   3.734   8.259  0.8425  0.4527  0.0251
32095SOL     OW 6598   3.338  10.916   6.068  0.2308  0.0838  0.5988
32095SOL    HW1 6599   3.249  10.943   6.092 -0.4621 -0.4888 -1.2055
32095SOL    HW2 6600   3.331  10.823   6.047  0.4822  0.7337 -2.8758
32096SOL     OW 6601  10.568   7.242   7.343 -0.4682 -0.2854 -0.5390
32096SOL    HW1 6602  10.529   7.217   7.259 -1.1492  0.0605 -0.3260
32096SOL    HW2 6603  10.600   7.331   7.329  0.8443 -0.7918 -0.9118
32097SOL     OW 6604   5.075  12.410   1.631  0.0055 -0.2297  0.3343
32097SOL    HW1 6605   5.014  12.366   1.572  0.1587 -1.0660  0.7797
32097SOL    HW2 6606   5.023  12.481   1.670 -0.7517 -1.0344  0.8359
32098SOL     OW 6607   9.653   4.115   4.323 -0.2596  0.4111  0.0760
32098SOL    HW1 6608   9.718   4.171   4.364 -0.2171  0.6642 -0.3325
32098SOL    HW2 6609   9.657   4.137   4.229 -0.8057  0.3067  0.0218
32099SOL     OW 6610   5.555   0.785   9.265  0.9111 -0.5066 -0.1079
32099SOL    HW1 6611   5.582   0.727   9.193  0.8167 -0.9322  0.1932
32099SOL    HW2 6612   5.485   0.838   9.229 -0.4108 -1.9837  0.1827
32100SOL     OW 6613   7.173  10.949   5.840 -0.1836 -0.1600  0.1519
32100SOL    HW1 6614   7.113  10.883   5.805  0.7566 -1.5211  1.0254
32100SOL    HW2 6615   7.223  10.978   5.764 -2.3597  1.5542 -0.7502
32101SOL     OW 6616  10.318   2.878   2.334  1.3485 -0.1074 -0.1107
32101SOL    HW1 6617  10.389   2.842   2.280  0.4681 -1.5504 -0.3636
32101SOL    HW2 6618  10.251   2.810   2.333 -0.1657  1.3263 -0.0924
32102SOL     OW 6619   5.676   3.838   5.824  0.3786  0.3820  0.3610
32102SOL    HW1 6620   5.585   3.840   5.794  0.5371  0.9243 -0.0888
32102SOL    HW2 6621   5.703   3.747   5.811  0.1159  0.3747 -0.1612
32103SOL     OW 6622  11.767   4.551   5.376  0.0791  0.1280 -0.6212
32103SOL    HW1 6623  11.826   4.499   5.320  0.6172 -1.2139  1.1043
32103SOL    HW2 6624  11.821   4.576   5.451 -0.5688  2.0643 -0.7464
32104SOL     OW 6625   1.335   3.647   4.203  0.4193  0.4923 -0.0007
32104SOL    HW1 6626   1.392   3.631   4.127  1.8696 -3.5867  1.6570
32104SOL    HW2 6627   1.389   3.697   4.264 -0.0554  2.0357 -0.7995
32105SOL     OW 6628  11.751   6.577   1.256  0.8682  0.2676  0.3495
32105SOL    HW1 6629  11.684   6.511   1.238  0.3754  1.1191 -1.1641
32105SOL    HW2 6630  11.826   6.527   1.288  0.7565 -1.1565 -1.4292
32106SOL     OW 6631   4.012   2.263   5.639  0.2892 -0.1363 -0.7356
32106SOL    HW1 6632   3.954   2.263   5.716 -0.4042  2.0807 -1.1934
32106SOL    HW2 6633   4.099   2.247   5.675 -0.0561  0.6229  0.5108
32107SOL     OW 6634   5.227   7.476  10.756  0.8228  0.2540  0.5251
32107SOL    HW1 6635   5.208   7.528  10.834  1.7201  2.0478 -0.3967
32107SOL    HW2 6636   5.145   7.474  10.707  1.2890  2.8042 -0.5112
32108SOL     OW 6637   3.712   2.734  10.719  0.0721 -0.6323 -0.2281
32108SOL    HW1 6638   3.797   2.777  10.718 -0.8459  1.2712 -0.3783
32108SOL    HW2 6639   3.698   2.709  10.810  0.6570 -0.7194 -0.1580
32109SOL     OW 6640   0.187   5.632  12.132  0.3006  0.0436 -0.4139
32109SOL    HW1 6641   0.252   5.583  12.183  2.1857  2.4341 -0.2944
32109SOL    HW2 6642   0.219   5.627  12.042  1.6868  2.4711 -0.1666
32110SOL     OW 6643   9.430  11.681   6.622  0.1952 -0.6820  0.2617
32110SOL    HW1 6644   9.355  11.657   6.568  0.7485 -1.0326 -0.3686
32110SOL    HW2 6645   9.477  11.599   6.635  0.7598 -0.3736  0.1835
32111SOL     OW 6646   1.745   5.524   8.769  0.3666 -0.2861  0.4969
32111SOL    HW1 6647   1.702   5.601   8.807  0.7669  0.4236 -0.4370
32111SOL    HW2 6648   1.697   5.450   8.804 -0.0041  0.3793  1.4650
32112SOL     OW 6649   4.724  12.718   6.489 -0.4635 -0.2023 -0.1962
32112SOL    HW1 6650   4.716  12.751   6.399 -0.2989 -0.3323 -0.2587
32112SOL    HW2 6651   4.729  12.623   6.480  1.0100 -0.1563 -0.1668
32113SOL     OW 6652   2.262   0.579   1.794  0.1268 -0.0587 -0.7172
32113SOL    HW1 6653   2.250   0.582   1.699 -0.6205  2.0742 -0.6202
32113SOL    HW2 6654   2.218   0.658   1.825  1.7025  0.0922  1.2643
32114SOL     OW 6655  10.271   7.917   0.130  0.1781  0.7718  0.2550
32114SOL    HW1 6656  10.252   7.825   0.149  1.7683  0.2519 -0.4938
32114SOL    HW2 6657  10.274   7.922   0.034  3.2253  0.8390  0.2565
32115SOL     OW 6658   0.247   5.801   5.019 -0.0866  0.8657  0.3192
32115SOL    HW1 6659   0.191   5.826   5.092 -0.2343  1.4762  0.0049
32115SOL    HW2 6660   0.287   5.718   5.046  0.1120  1.2494  1.2273
32116SOL     OW 6661   2.020   5.697   4.781 -0.4485  0.7976  0.4753
32116SOL    HW1 6662   2.031   5.783   4.742 -1.8131  0.2376 -1.2996
32116SOL    HW2 6663   1.931   5.671   4.758  0.5931 -1.9620 -1.0247
32117SOL     OW 6664   0.131   2.423   4.235  0.0649 -0.2127  0.1563
32117SOL    HW1 6665   0.135   2.510   4.195 -3.5730  0.3279  0.6408
32117SOL    HW2 6666   0.114   2.364   4.163 -1.5466  0.0920  0.2538
32118SOL     OW 6667   6.275  10.677   7.500  0.0625 -0.4129 -0.4460
32118SOL    HW1 6668   6.293  10.738   7.572  0.3866  1.1571 -1.8028
32118SOL    HW2 6669   6.331  10.601   7.518  0.8190  0.3392  0.4743
32119SOL     OW 6670   5.124  11.938   5.281  0.5695  0.3169  0.0339
32119SOL    HW1 6671   5.169  11.986   5.351  0.1075 -0.9055  1.2267
32119SOL    HW2 6672   5.182  11.865   5.260  0.6017  0.5523 -0.6922
32120SOL     OW 6673   1.086   0.724   9.741 -0.1912 -0.7321  0.3775
32120SOL    HW1 6674   1.060   0.779   9.815 -1.9834 -1.5856  0.4400
32120SOL    HW2 6675   1.105   0.638   9.780  0.8443 -0.6590  0.0686
32121SOL     OW 6676   4.800   8.880   3.059 -0.0277 -0.6796 -0.0563
32121SOL    HW1 6677   4.716   8.862   3.017 -0.7195 -0.6535  1.2485
32121SOL    HW2 6678   4.812   8.809   3.122  0.6981 -0.4251  0.1094
32122SOL     OW 6679  11.935   5.401  11.198  0.2930  0.0731  0.4451
32122SOL    HW1 6680  11.952   5.314  11.162 -0.3789  0.1327 -0.0278
32122SOL    HW2 6681  11.959   5.394  11.291  0.6538 -0.4882  0.3157
32123SOL     OW 6682   3.738   8.312   2.693 -0.1228  0.4785  0.0293
32123SOL    HW1 6683   3.695   8.394   2.668 -0.0593  0.2366 -0.9333
32123SOL    HW2 6684   3.769   8.326   2.782 -0.3899  1.3893 -0.0178
32124SOL     OW 6685   3.518   1.492  12.561 -0.4656 -0.9726 -0.4575
32124SOL    HW1 6686   3.466   1.571  12.550  0.2897 -0.7217 -2.5876
32124SOL    HW2 6687   3.609   1.523  12.563 -0.1863 -1.7358 -0.9165
32125SOL     OW 6688   1.332   7.437   4.281 -0.0715  0.1719  0.4210
32125SOL    HW1 6689   1.319   7.528   4.310  1.4496  1.0430 -1.4195
32125SOL    HW2 6690   1.426   7.422   4.292 -0.0379 -0.6217 -0.7702
32126SOL     OW 6691  12.658  11.132  10.440  0.4269 -0.5988 -0.3660
32126SOL    HW1 6692  12.740  11.101  10.400 -0.0391 -1.2138 -0.8653
32126SOL    HW2 6693  12.686  11.194  10.507  1.3081 -0.8262 -0.5118
32127SOL     OW 6694  11.875   6.386  10.394  0.3528 -0.6762 -0.4069
32127SOL    HW1 6695  11.860   6.481  10.402  1.3401 -0.5395 -0.0711
32127SOL    HW2 6696  11.787   6.349  10.388 -0.1879  0.0366  2.0194
32128SOL     OW 6697  12.749   4.111   6.741  0.0530 -0.6148  0.0483
32128SOL    HW1 6698  12.787   4.093   6.656  0.6373 -1.5990  0.5044
32128SOL    HW2 6699  12.725   4.025   6.776  1.3458 -0.4208  1.5567
32129SOL     OW 6700   1.901   8.646  10.656 -0.4100  0.1095 -0.1685
32129SOL    HW1 6701   1.916   8.739  10.674 -1.5957  0.2532  0.1284
32129SOL    HW2 6702   1.807   8.633  10.670 -0.0900 -1.3731  0.8874
32130SOL     OW 6703   5.707   2.467   1.828  0.2749 -0.3025  0.2738
32130SOL    HW1 6704   5.628   2.430   1.868 -0.0012 -0.4778 -0.4205
32130SOL    HW2 6705   5.698   2.447   1.735  1.7209 -1.3723  0.3459
32131SOL     OW 6706   0.823   0.996  11.326  0.0526  0.0793 -0.0693
32131SOL    HW1 6707   0.917   1.009  11.320  0.1112  0.9341  1.8561
32131SOL    HW2 6708   0.805   0.995  11.420 -1.4379 -3.3615 -0.2331
32132SOL     OW 6709  12.553   6.699  10.677  0.2016  0.3921 -0.2247
32132SOL    HW1 6710  12.532   6.641  10.604  2.7071  0.1707 -0.8586
32132SOL    HW2 6711  12.626   6.752  10.646 -0.2291  1.9945  1.3076
32133SOL     OW 6712   1.926   5.733  10.376  0.1875 -0.2435 -0.0231
32133SOL    HW1 6713   1.926   5.704  10.467  0.7760  0.6722  0.2850
32133SOL    HW2 6714   1.963   5.660  10.327 -0.4419 -0.8752  0.4148
32134SOL     OW 6715   2.789   0.497   8.374 -0.2214  0.2213 -0.1746
32134SOL    HW1 6716   2.798   0.449   8.291 -0.5997 -0.5532  0.2252
32134SOL    HW2 6717   2.854   0.567   8.368  1.1379 -1.0027 -0.3151
32135SOL     OW 6718   8.801   0.749   9.736  0.1282  0.1585 -0.1240
32135SOL    HW1 6719   8.810   0.754   9.641  1.0305 -0.9196 -0.1179
32135SOL    HW2 6720   8.854   0.673   9.761 -2.0578 -1.0896  0.9893
32136SOL     OW 6721   4.848   7.833   8.231  0.6994  0.4595  0.1940
32136SOL    HW1 6722   4.874   7.925   8.226  0.8523  0.4721  1.1660
32136SOL    HW2 6723   4.758   7.835   8.262  0.9227  0.2629  0.8699
32137SOL     OW 6724   3.145   4.336   4.443  0.3686  0.0547 -0.2830
32137SOL    HW1 6725   3.216   4.273   4.459 -0.4721 -1.0811 -0.9095
32137SOL    HW2 6726   3.065   4.289   4.464 -0.4450  0.1363 -2.8272
32138SOL     OW 6727   7.993   8.627  10.861 -0.7202 -0.7207  0.3530
32138SOL    HW1 6728   8.027   8.713  10.887 -3.3854  0.6356 -0.2919
32138SOL    HW2 6729   8.007   8.623  10.767  0.0699 -1.3834  0.4787
32139SOL     OW 6730   2.247   3.670  12.511 -0.3245  0.6105  0.1478
32139SOL    HW1 6731   2.212   3.581  12.515 -0.1089  0.4016 -1.5206
32139SOL    HW2 6732   2.181   3.720  12.464 -0.1238  1.1529  0.4384
32140SOL     OW 6733   4.658   7.757   1.309  0.2795 -0.9471 -0.1579
32140SOL    HW1 6734   4.649   7.848   1.335  0.5580 -1.1613  0.7214
32140SOL    HW2 6735   4.724   7.757   1.240  0.1153 -0.4647 -0.3159
32141SOL     OW 6736   3.103   4.407   4.909 -0.5204 -0.0425  0.1675
32141SOL    HW1 6737   3.178   4.397   4.969 -0.9396 -1.9748  0.4498
32141SOL    HW2 6738   3.140   4.449   4.831 -0.1888  3.6837  2.1013
32142SOL     OW 6739  12.061   9.727   2.353  0.1615  0.0126 -0.6950
32142SOL    HW1 6740  12.120   9.756   2.284 -0.0203  2.7389  0.1920
32142SOL    HW2 6741  12.102   9.755   2.434 -1.5513  0.5018  0.0436
32143SOL     OW 6742  11.906   4.603   2.246  0.3289  0.2331 -0.1720
32143SOL    HW1 6743  11.996   4.628   2.224  0.5206 -0.6400 -0.4163
32143SOL    HW2 6744  11.910   4.508   2.258 -0.5151  0.2201  0.0459
32144SOL     OW 6745   2.065  10.927   5.589 -0.1917  0.6249  0.2444
32144SOL    HW1 6746   2.114  10.870   5.530 -0.4495  0.3505  0.2887
32144SOL    HW2 6747   2.131  10.973   5.639  0.0269  0.6483 -0.0629
32145SOL     OW 6748   1.422   5.186  12.682 -0.2521  0.2591  1.3912
32145SOL    HW1 6749   1.330   5.202  12.662 -0.5377  0.9876  3.1656
32145SOL    HW2 6750   1.443   5.248  12.751  1.0254 -1.2713  2.4489
32146SOL     OW 6751  10.999   2.655   6.024  0.0939 -0.2895 -0.8935
32146SOL    HW1 6752  10.939   2.590   5.988 -0.6210  0.7765 -1.6798
32146SOL    HW2 6753  11.084   2.635   5.984  0.0968 -1.2879 -0.4181
32147SOL     OW 6754   6.537  12.404   3.080 -0.4911 -0.4264 -0.2448
32147SOL    HW1 6755   6.573  12.388   3.168  0.9684  1.5306 -0.4141
32147SOL    HW2 6756   6.535  12.317   3.039  1.2525 -1.0404  0.8486
32148SOL     OW 6757   5.372   5.469   8.589 -0.3646  0.6388  0.3834
32148SOL    HW1 6758   5.447   5.507   8.635 -0.1239 -0.8596  1.2891
32148SOL    HW2 6759   5.319   5.545   8.563  1.9918  1.8544 -1.3164
32149SOL     OW 6760  10.960  11.935  10.049 -0.7924  0.3813  0.2252
32149SOL    HW1 6761  10.983  11.951  10.141  0.7263  2.3087 -0.4173
32149SOL    HW2 6762  11.030  11.880  10.015 -1.7257 -0.9364  0.3503
32150SOL     OW 6763   0.635  12.392   4.707  0.8637 -0.4339 -0.3887
32150SOL    HW1 6764   0.583  12.353   4.636 -1.2817 -0.3122  1.0152
32150SOL    HW2 6765   0.570  12.430   4.766  2.6069  0.0892  1.3003
32151SOL     OW 6766   3.202  12.833   0.802  0.3605 -0.4508 -0.1308
32151SOL    HW1 6767   3.170  12.748   0.770 -0.8948 -0.3076  0.6486
32151SOL    HW2 6768   3.297  12.825   0.800  0.3849 -0.7233 -3.1234
32152SOL     OW 6769  12.333   8.072   3.584 -0.2442 -0.6342  0.0332
32152SOL    HW1 6770  12.423   8.093   3.559 -0.4036  2.1856  1.3869
32152SOL    HW2 6771  12.287   8.059   3.501  1.0159 -0.1113 -0.7682
32153SOL     OW 6772   4.966   1.796   9.047 -0.3791  0.3620 -0.5022
32153SOL    HW1 6773   4.908   1.807   9.122 -0.4395 -2.6247  0.0071
32153SOL    HW2 6774   4.907   1.794   8.971 -0.7590 -0.4980 -0.2009
32154SOL     OW 6775  11.322   9.331   9.266  0.0553 -0.3297 -0.8349
32154SOL    HW1 6776  11.272   9.329   9.185 -0.6032 -0.3037 -0.4379
32154SOL    HW2 6777  11.320   9.240   9.297 -0.9655 -0.0829 -0.1039
32155SOL     OW 6778   3.822   4.603   8.410  0.0239  0.3851  0.5778
32155SOL    HW1 6779   3.768   4.588   8.488  0.0215 -1.8616  0.2105
32155SOL    HW2 6780   3.788   4.543   8.345  1.5932  0.4547 -0.3729
32156SOL     OW 6781   8.230   2.073   2.027 -0.2287  0.1376  0.0089
32156SOL    HW1 6782   8.312   2.122   2.021 -0.8062  1.2959  1.1150
32156SOL    HW2 6783   8.199   2.066   1.937  0.5831  0.5476 -0.3151
32157SOL     OW 6784   1.230   5.109   5.743 -0.0681  1.0214 -0.0906
32157SOL    HW1 6785   1.216   5.097   5.837  1.8299 -2.0584 -0.0648
32157SOL    HW2 6786   1.322   5.135   5.736  0.7239 -1.6918 -1.1083
32158SOL     OW 6787   9.044   0.912  10.523  0.3133 -0.8951  0.0383
32158SOL    HW1 6788   9.043   0.899  10.428 -2.0024  0.1305 -0.1329
32158SOL    HW2 6789   9.113   0.977  10.537 -1.4106  1.3745 -1.3649
32159SOL     OW 6790   9.676   6.397   7.937 -0.0706  0.6468  0.1950
32159SOL    HW1 6791   9.656   6.487   7.912  0.5598  1.0906  1.2249
32159SOL    HW2 6792   9.663   6.395   8.032  1.0395 -0.0425  0.3480
32160SOL     OW 6793   6.400   9.563   1.411  0.2893  0.2129  0.3983
32160SOL    HW1 6794   6.355   9.479   1.404 -0.6928  0.4036  3.0269
32160SOL    HW2 6795   6.427   9.584   1.322  0.4318 -2.7958 -0.3772
32161SOL     OW 6796   9.030   3.680   5.640 -0.0657 -0.0267 -0.5318
32161SOL    HW1 6797   9.105   3.626   5.667 -0.0734 -0.3747 -1.1880
32161SOL    HW2 6798   9.050   3.767   5.674  0.3166 -0.2680 -0.1211
32162SOL     OW 6799  12.014   2.383   2.704 -0.4421 -0.1998 -0.2154
32162SOL    HW1 6800  11.993   2.291   2.718 -0.9819 -0.0152  0.2043
32162SOL    HW2 6801  12.078   2.403   2.773  2.7633 -1.2628 -2.5891
32163SOL     OW 6802   2.453   6.562   2.881 -0.4034  0.3719  0.2044
32163SOL    HW1 6803   2.424   6.648   2.913 -1.3998  0.1484 -0.0932
32163SOL    HW2 6804   2.394   6.500   2.922  1.0804 -0.3142  1.4169
32164SOL     OW 6805   2.345   5.489   5.902 -0.0387 -0.7522  0.1960
32164SOL    HW1 6806   2.385   5.531   5.978  0.3961 -0.6717 -0.0717
32164SOL    HW2 6807   2.410   5.425   5.873  0.9013  0.8850 -1.5619
32165SOL     OW 6808  12.082  11.969   1.803  0.0121 -0.4069 -0.1256
32165SOL    HW1 6809  12.175  11.989   1.798  0.1581 -0.7224  1.0171
32165SOL    HW2 6810  12.061  11.929   1.718  1.1324 -1.1926 -0.0528
32166SOL     OW 6811   5.318   5.557   4.255  0.1917 -0.1313 -0.6125
32166SOL    HW1 6812   5.254   5.578   4.323  1.8611  0.6017  0.8273
32166SOL    HW2 6813   5.297   5.467   4.229  0.7377 -1.2714  2.4387
32167SOL     OW 6814   1.238   6.965   8.210  0.0482 -0.1395 -0.2470
32167SOL    HW1 6815   1.164   7.017   8.243  0.7267  0.2663  0.6820
32167SOL    HW2 6816   1.204   6.876   8.208 -1.1247  0.3036 -1.8457
32168SOL     OW 6817   2.860   2.165  12.691  0.2895 -0.3732  0.4351
32168SOL    HW1 6818   2.773   2.148  12.728 -0.4994 -0.9111 -1.5342
32168SOL    HW2 6819   2.856   2.129  12.603  1.8956  1.2838 -0.3854
32169SOL     OW 6820   0.397   7.411   0.758 -0.7898 -0.2615 -0.2530
32169SOL    HW1 6821   0.343   7.346   0.804  0.6207 -0.3788  1.3003
32169SOL    HW2 6822   0.484   7.372   0.754  0.1292  1.5590  0.8406
32170SOL     OW 6823   1.296   2.860   3.192 -0.4386 -0.3096 -0.3796
32170SOL    HW1 6824   1.218   2.835   3.240 -1.2606  0.3868 -1.3163
32170SOL    HW2 6825   1.358   2.788   3.207  0.2180  0.8075  3.5016
32171SOL     OW 6826  11.406   0.583   9.294  0.1014 -0.1349  0.1448
32171SOL    HW1 6827  11.467   0.510   9.277 -0.7651 -0.6805 -0.7165
32171SOL    HW2 6828  11.408   0.634   9.213 -1.7354 -1.0176 -0.4918
32172SOL     OW 6829  12.305  11.968   7.985 -0.3058  0.1804 -0.3834
32172SOL    HW1 6830  12.276  12.016   7.908  1.9169 -0.3828 -1.6674
32172SOL    HW2 6831  12.317  12.035   8.052 -1.8676  0.7359 -0.6263
32173SOL     OW 6832   9.480   0.573   9.741 -0.1445  0.2281 -0.3219
32173SOL    HW1 6833   9.525   0.573   9.825 -0.1316 -0.6294 -0.3187
32173SOL    HW2 6834   9.429   0.492   9.742 -1.0369  0.7707 -0.6676
32174SOL     OW 6835   8.894   4.322   2.306  0.2705  0.0874 -0.3375
32174SOL    HW1 6836   8.922   4.245   2.357 -0.9878 -0.8798 -1.0430
32174SOL    HW2 6837   8.798   4.320   2.312  0.1408  0.5070 -1.9348
32175SOL     OW 6838  10.837  10.024   3.204 -0.5547 -0.0206  0.4680
32175SOL    HW1 6839  10.910  10.059   3.153 -0.5496  0.4334  0.7805
32175SOL    HW2 6840  10.831   9.932   3.177  0.8693 -0.3773  1.2779
32176SOL     OW 6841   1.584   2.372   3.134  0.6909  0.6778 -1.0400
32176SOL    HW1 6842   1.621   2.362   3.222 -0.1317  0.9307 -0.6560
32176SOL    HW2 6843   1.614   2.295   3.086  0.3860  0.0652 -0.2648
32177SOL     OW 6844   3.887  11.871  12.813 -0.5312 -0.4189  0.0800
32177SOL    HW1 6845   3.962  11.902  12.762 -1.4370  1.4225 -0.2091
32177SOL    HW2 6846   3.922  11.859  12.901  0.0032  1.0542  0.1070
32178SOL     OW 6847   3.143  11.773   8.106  0.1192  0.3790 -0.3650
32178SOL    HW1 6848   3.130  11.690   8.060 -1.8582  1.2079 -1.4199
32178SOL    HW2 6849   3.204  11.752   8.176 -0.4804 -2.0333 -0.4741
32179SOL     OW 6850   7.533   8.653   6.286 -0.1855  0.5198  0.2129
32179SOL    HW1 6851   7.451   8.610   6.262  0.5491 -0.7919  0.0170
32179SOL    HW2 6852   7.580   8.589   6.338 -0.4943  2.2662  2.8524
32180SOL     OW 6853   9.373   1.363  10.112 -0.3561 -0.3337 -0.1036
32180SOL    HW1 6854   9.293   1.311  10.116 -0.3775 -0.2560  0.8966
32180SOL    HW2 6855   9.443   1.302  10.133 -0.3194 -0.0962  0.4973
32181SOL     OW 6856   3.773   4.139  10.658  0.7391 -0.2201 -0.0838
32181SOL    HW1 6857   3.699   4.088  10.692 -0.0264  0.8658 -0.0841
32181SOL    HW2 6858   3.734   4.202  10.598  1.6667  0.4287 -0.0257
32182SOL     OW 6859   5.402   7.123   3.998 -0.2207 -0.0048  0.3181
32182SOL    HW1 6860   5.330   7.171   4.039  1.4210  0.8320  2.4216
32182SOL    HW2 6861   5.364   7.086   3.918 -2.5338  1.6923  0.5298
32183SOL     OW 6862  10.750   1.080   7.172 -0.1394  0.4958  0.1637
32183SOL    HW1 6863  10.670   1.056   7.125  0.2155 -1.2710  0.3630
32183SOL    HW2 6864  10.736   1.170   7.199 -1.6865  0.5147 -0.5668
32184SOL     OW 6865   5.619   2.555  11.601 -0.2522 -0.3251 -0.2196
32184SOL    HW1 6866   5.692   2.503  11.634 -0.8557 -1.0689 -0.0221
32184SOL    HW2 6867   5.595   2.612  11.674 -1.0345 -1.3694  0.3654
32185SOL     OW 6868   9.966   4.368  12.898  0.0384  0.3405  0.0472
32185SOL    HW1 6869   9.951   4.447  12.949 -0.4008 -0.0562  0.5419
32185SOL    HW2 6870   9.893   4.311  12.920 -0.0260  0.0706 -0.8544
32186SOL     OW 6871   2.707  11.665  11.811 -0.0538 -0.2348  0.0701
32186SOL    HW1 6872   2.639  11.666  11.744 -1.7079 -0.1895  1.6796
32186SOL    HW2 6873   2.717  11.757  11.836  0.0495 -0.3251  0.3696
32187SOL     OW 6874   8.253   7.827  10.054  0.9451 -0.2730  0.0027
32187SOL    HW1 6875   8.323   7.811  10.117  1.4004  1.6878  0.0395
32187SOL    HW2 6876   8.297   7.835   9.969  1.1685  3.1794  0.2994
32188SOL     OW 6877   2.183   6.902   4.171  0.0770 -0.3143  0.1090
32188SOL    HW1 6878   2.213   6.814   4.192 -0.2883 -0.3192  0.6250
32188SOL    HW2 6879   2.094   6.890   4.139 -0.5192  0.0076  1.6014
32189SOL     OW 6880  10.950  12.679  11.425 -0.3062 -0.4346 -0.1712
32189SOL    HW1 6881  10.936  12.586  11.442  1.7335 -0.9016 -0.7413
32189SOL    HW2 6882  11.045  12.690  11.430 -0.3879  1.3318 -1.4952
32190SOL     OW 6883   3.498   0.441   0.201 -0.1308 -0.0806  0.1122
32190SOL    HW1 6884   3.441   0.405   0.133 -1.4098  2.0009 -0.0036
32190SOL    HW2 6885   3.579   0.462   0.155 -0.6038  0.3113 -0.5654
32191SOL     OW 6886  11.267   4.760  10.512 -0.6164 -0.2817 -0.5252
32191SOL    HW1 6887  11.311   4.679  10.488  1.3169  0.9659 -1.4375
32191SOL    HW2 6888  11.197   4.733  10.571 -1.2948 -2.7794 -2.3415
32192SOL     OW 6889  10.968  12.469   6.883 -0.1640 -0.4787  0.0556
32192SOL    HW1 6890  11.037  12.403   6.889 -0.3778 -0.8299 -1.1212
32192SOL    HW2 6891  10.896  12.425   6.839 -1.2027 -0.1478  1.3707
32193SOL     OW 6892   5.839   3.161   6.387  0.1659  0.1420 -1.0873
32193SOL    HW1 6893   5.762   3.181   6.441  0.2266 -1.1618 -0.4830
32193SOL    HW2 6894   5.855   3.068   6.402  1.9021  0.4070 -1.1819
32194SOL     OW 6895   3.796   0.347   9.344  0.3904 -0.2727 -0.4250
32194SOL    HW1 6896   3.828   0.431   9.310 -1.1654  1.4078  1.9700
32194SOL    HW2 6897   3.852   0.329   9.419 -0.1763 -0.6639 -0.0930
32195SOL     OW 6898   6.338   6.264   6.810 -0.4745 -0.2265  0.1046
32195SOL    HW1 6899   6.276   6.276   6.738  0.1615  0.5307 -0.3350
32195SOL    HW2 6900   6.413   6.219   6.770 -0.2358 -0.0587  0.3578
32196SOL     OW 6901   6.631  11.387   8.803 -0.3433 -0.6869  0.3837
32196SOL    HW1 6902   6.665  11.475   8.783 -1.1098 -0.0728  1.6437
32196SOL    HW2 6903   6.672  11.330   8.737 -1.1304  0.8594 -1.5558
32197SOL     OW 6904   4.152   3.369   7.792  0.3347  0.5784 -0.0638
32197SOL    HW1 6905   4.198   3.449   7.817 -3.3881  2.9047  0.2323
32197SOL    HW2 6906   4.112   3.337   7.873  0.1236 -0.4369 -0.5479
32198SOL     OW 6907   9.175   8.564   8.873  0.5737  0.7054 -0.1800
32198SOL    HW1 6908   9.209   8.481   8.908 -2.3912 -1.0927 -1.1443
32198SOL    HW2 6909   9.151   8.615   8.950 -1.5811 -1.2600  0.5798
32199SOL     OW 6910   2.844  12.174  12.428  0.5925 -0.2116 -0.1787
32199SOL    HW1 6911   2.790  12.114  12.480 -1.6200  2.6085  1.0626
32199SOL    HW2 6912   2.839  12.139  12.339 -0.9471 -1.6278  0.4093
32200SOL     OW 6913   8.135   0.157   1.782  0.5646 -0.0923 -0.0823
32200SOL    HW1 6914   8.186   0.180   1.705  0.3459  1.6875  0.2551
32200SOL    HW2 6915   8.082   0.235   1.800 -0.9928 -1.2454  0.5918
32201SOL     OW 6916   0.470   2.043   4.486  0.3294  0.1421 -0.4912
32201SOL    HW1 6917   0.396   1.985   4.472  2.0135 -3.0640  2.3222
32201SOL    HW2 6918   0.544   2.000   4.443  1.6240  0.1123  1.5773
32202SOL     OW 6919   0.226   5.019   5.107  0.1977  0.0406 -0.2567
32202SOL    HW1 6920   0.283   4.950   5.073  0.4278 -0.0932  0.3884
32202SOL    HW2 6921   0.287   5.084   5.143  0.0159  0.9090 -1.4434
32203SOL     OW 6922   9.492  11.238   4.536 -0.5521 -0.3852  0.0014
32203SOL    HW1 6923   9.518  11.164   4.591 -0.5298 -1.4382 -1.3803
32203SOL    HW2 6924   9.574  11.272   4.501 -0.5471  0.4223  0.7663
32204SOL     OW 6925   3.523   1.975   8.556 -0.2289 -0.0339 -0.0263
32204SOL    HW1 6926   3.559   2.012   8.636 -0.0191  0.3856 -0.3091
32204SOL    HW2 6927   3.573   1.895   8.541 -0.8541 -0.5795  0.7252
32205SOL     OW 6928   8.504   3.020   1.773  0.1782 -0.7707  0.2801
32205SOL    HW1 6929   8.553   2.938   1.762  1.0606 -0.7229  3.1023
32205SOL    HW2 6930   8.552   3.083   1.719  0.6898 -1.6724 -0.3462
32206SOL     OW 6931   3.184   1.837  10.602 -0.6003  0.5263 -0.4512
32206SOL    HW1 6932   3.089   1.848  10.596 -0.7615  0.5071  1.4318
32206SOL    HW2 6933   3.218   1.927  10.599 -0.7837  0.6178  0.0752
32207SOL     OW 6934   8.608   8.462   5.819 -0.1515  0.1437 -0.2926
32207SOL    HW1 6935   8.687   8.430   5.775 -1.0845  0.7919 -2.5292
32207SOL    HW2 6936   8.637   8.540   5.866  0.4685  0.6196 -1.4323
32208SOL     OW 6937   9.540   3.557   1.477  0.2575  0.0943  0.0082
32208SOL    HW1 6938   9.622   3.508   1.477  0.9330  1.1557 -1.1799
32208SOL    HW2 6939   9.544   3.611   1.398 -1.0942  0.9926  0.5104
32209SOL     OW 6940   6.863   6.757   5.052 -0.3926 -0.3074 -0.1790
32209SOL    HW1 6941   6.769   6.751   5.070 -0.2618  0.7614  1.0439
32209SOL    HW2 6942   6.900   6.678   5.091 -0.5296  0.4019  1.4837
32210SOL     OW 6943   1.104   0.700   4.450  0.0292 -0.2491 -0.3035
32210SOL    HW1 6944   1.148   0.663   4.527 -1.4955 -0.3366  0.5835
32210SOL    HW2 6945   1.129   0.792   4.449  1.8564 -0.6995 -1.0632
32211SOL     OW 6946  11.885  11.224   2.971 -0.1068 -0.6341  0.2996
32211SOL    HW1 6947  11.888  11.311   2.930 -0.4212 -1.1885 -0.9494
32211SOL    HW2 6948  11.853  11.241   3.060  1.0901  0.6707  0.5150
32212SOL     OW 6949   0.863   2.493   2.343 -0.1060  0.3467  0.5036
32212SOL    HW1 6950   0.902   2.492   2.255 -0.7163  0.7171  0.2251
32212SOL    HW2 6951   0.881   2.581   2.376  1.0155 -0.0976  1.1743
32213SOL     OW 6952   3.625   7.861   2.303 -0.0863  0.3635 -0.0408
32213SOL    HW1 6953   3.592   7.807   2.231  3.2221 -1.6708 -0.2910
32213SOL    HW2 6954   3.570   7.838   2.378 -1.4570 -0.0579 -1.1359
32214SOL     OW 6955   6.170  12.364   7.561 -0.3108 -0.3977  0.0444
32214SOL    HW1 6956   6.242  12.353   7.623 -0.6142 -1.7074  0.1876
32214SOL    HW2 6957   6.203  12.327   7.479 -1.8787 -4.0752  0.9185
32215SOL     OW 6958   4.892   3.089   2.271 -0.0135 -0.4808  0.1120
32215SOL    HW1 6959   4.880   3.038   2.191 -2.0170 -0.9706  0.6647
32215SOL    HW2 6960   4.875   3.180   2.245  0.1204 -0.5358 -0.1742
32216SOL     OW 6961   7.620   0.282  11.831 -0.1067 -0.0154  0.2574
32216SOL    HW1 6962   7.627   0.325  11.915 -2.4094  1.1413 -0.0636
32216SOL    HW2 6963   7.650   0.347  11.767 -0.6287 -0.0184  0.0045
32217SOL     OW 6964  10.050   2.428   2.925 -0.3604 -0.0580  0.1503
32217SOL    HW1 6965  10.048   2.499   2.989  1.0655  0.1351  0.0183
32217SOL    HW2 6966   9.978   2.370   2.951 -1.0971  1.0676  0.6732
32218SOL     OW 6967   9.634   1.228   4.088  0.6877 -0.0422 -0.1238
32218SOL    HW1 6968   9.558   1.199   4.139 -0.0491  1.6724 -0.1807
32218SOL    HW2 6969   9.615   1.199   3.999  0.3610 -0.1165 -0.0322
32219SOL     OW 6970   2.917   8.489  12.320 -0.0420  0.1673 -0.0278
32219SOL    HW1 6971   2.950   8.461  12.405 -1.1985 -1.5301 -0.1009
32219SOL    HW2 6972   2.985   8.461  12.258 -0.5138 -1.2428  0.0588
32220SOL     OW 6973   1.438  11.470  12.937 -0.7908  0.2676 -0.3530
32220SOL    HW1 6974   1.377  11.542  12.925  0.2711  1.0743 -1.1334
32220SOL    HW2 6975   1.383  11.392  12.945 -1.9333  1.0859 -0.0904
32221SOL     OW 6976   2.824  11.467   0.182 -0.6714 -0.0287 -0.5013
32221SOL    HW1 6977   2.743  11.475   0.232 -1.2488 -0.2032 -1.3879
32221SOL    HW2 6978   2.893  11.492   0.244 -0.8178 -4.4828  1.8446
32222SOL     OW 6979   2.361   2.987   7.614  0.1439  0.1834  0.6680
32222SOL    HW1 6980   2.404   2.918   7.665 -2.2171 -0.2626  2.2096
32222SOL    HW2 6981   2.312   3.038   7.679  0.1250  2.0449 -0.7152
32223SOL     OW 6982   9.085   2.492   8.183 -0.3028  0.0029  0.0405
32223SOL    HW1 6983   9.012   2.432   8.166 -0.7204  0.5648 -0.1996
32223SOL    HW2 6984   9.043   2.574   8.208  0.2775 -0.0611  1.2977
32224SOL     OW 6985   9.701   4.834   6.884  0.5021 -0.2599  0.3118
32224SOL    HW1 6986   9.688   4.863   6.793  1.2513  1.4851  0.7235
32224SOL    HW2 6987   9.634   4.766   6.896  1.3461 -1.6310 -1.9876
32225SOL     OW 6988   3.334   2.087  10.687 -0.6310 -0.7053 -0.2605
32225SOL    HW1 6989   3.426   2.068  10.666  0.3186  1.1088  1.8638
32225SOL    HW2 6990   3.315   2.166  10.637 -0.5360 -0.2369  0.4320
32226SOL     OW 6991  10.468   6.439   1.563  0.2572 -0.0135 -0.3996
32226SOL    HW1 6992  10.558   6.412   1.547 -0.1149 -1.6601  0.1373
32226SOL    HW2 6993  10.415   6.363   1.540 -0.9821  0.8064 -0.3623
32227SOL     OW 6994   6.642   5.467   1.526  0.1619 -0.2441  0.4890
32227SOL    HW1 6995   6.736   5.473   1.544  0.7351 -2.8610 -1.0716
32227SOL    HW2 6996   6.600   5.473   1.611  1.8372 -0.2900  1.3561
32228SOL     OW 6997   4.693  12.752   4.237 -0.1795  0.1442 -0.0476
32228SOL    HW1 6998   4.732  12.670   4.208 -0.8541 -0.4180  0.6133
32228SOL    HW2 6999   4.722  12.763   4.327 -2.5266 -0.9588  0.9257
32229SOL     OW 7000   6.563   0.584   9.830 -0.2577 -0.0786 -0.0758
32229SOL    HW1 7001   6.534   0.671   9.857 -0.4688 -0.6114  1.4863
32229SOL    HW2 7002   6.617   0.553   9.902 -0.1353 -1.2215 -0.6435
32230SOL     OW 7003   2.834   0.899   4.048  0.7352 -0.0609  0.2488
32230SOL    HW1 7004   2.884   0.960   4.101 -0.5145  1.7689 -0.5563
32230SOL    HW2 7005   2.873   0.905   3.961  0.0598  0.2728 -0.0403
32231SOL     OW 7006   1.958   2.048  11.743 -0.1405  0.0462 -0.6258
32231SOL    HW1 7007   1.912   2.126  11.711  0.9383 -0.0847 -2.6551
32231SOL    HW2 7008   1.908   1.974  11.707  0.9586 -0.1059 -1.9326
32232SOL     OW 7009  11.139   9.752   4.314 -0.0688 -0.1849  0.3599
32232SOL    HW1 7010  11.069   9.691   4.291 -0.8823 -0.9552  4.1835
32232SOL    HW2 7011  11.107   9.797   4.392  1.3948  3.7441 -1.0944
32233SOL     OW 7012   4.679  12.106   1.457 -0.7861 -0.0453 -0.2089
32233SOL    HW1 7013   4.649  12.136   1.371 -1.7011 -0.6356 -0.1130
32233SOL    HW2 7014   4.644  12.017   1.464 -0.5653 -0.0660  0.7026
32234SOL     OW 7015   2.956   5.394   3.509  0.1193 -0.4074  0.0489
32234SOL    HW1 7016   2.947   5.410   3.602  0.4592 -1.6203  0.3174
32234SOL    HW2 7017   3.030   5.448   3.481 -0.7067  0.8444  0.2189
32235SOL     OW 7018   3.783   7.124  11.827  0.2629  0.3363  0.0602
32235SOL    HW1 7019   3.865   7.075  11.831  0.6821  0.9743 -0.4501
32235SOL    HW2 7020   3.772   7.158  11.917  1.0415  0.9867 -0.0686
32236SOL     OW 7021   9.675   5.542   5.938 -0.0517  0.3986 -0.0990
32236SOL    HW1 7022   9.677   5.558   6.032  1.3961 -0.4114  0.0449
32236SOL    HW2 7023   9.702   5.450   5.929 -0.4973  0.3689 -1.2852
32237SOL     OW 7024  12.975  12.002   1.749 -0.4787  0.0137 -0.2744
32237SOL    HW1 7025  12.962  11.993   1.844  0.1800 -1.6264 -0.2917
32237SOL    HW2 7026  13.062  12.040   1.740 -0.2194 -0.5489 -0.2065
32238SOL     OW 7027   5.450   7.682   4.021  0.1949 -0.8636 -0.4468
32238SOL    HW1 7028   5.447   7.756   3.960 -1.5037 -2.3151 -2.2747
32238SOL    HW2 7029   5.503   7.713   4.094 -0.1467  2.0040 -1.2975
32239SOL     OW 7030   4.900   0.998  12.236  0.0737 -0.2815 -0.3444
32239SOL    HW1 7031   4.888   1.092  12.225  1.4874 -0.0246  0.0784
32239SOL    HW2 7032   4.853   0.959  12.162 -1.9148  0.6289  0.3596
32240SOL     OW 7033  10.596  10.921   1.885 -0.0796 -0.0736 -0.2069
32240SOL    HW1 7034  10.607  10.911   1.790 -0.9037 -0.5263 -0.2682
32240SOL    HW2 7035  10.587  11.016   1.898  0.1279 -0.0013 -0.5656
32241SOL     OW 7036   0.938  11.255   4.551 -0.4431  0.5982 -0.9312
32241SOL    HW1 7037   0.995  11.332   4.549 -2.4396  2.1712 -0.8000
32241SOL    HW2 7038   0.858  11.286   4.594 -0.7337 -2.0167  0.5950
32242SOL     OW 7039   8.090   6.888   6.073  0.1604 -0.0731  0.0603
32242SOL    HW1 7040   7.999   6.918   6.071 -0.9127 -3.1092 -1.0721
32242SOL    HW2 7041   8.127   6.932   6.150 -2.7213 -0.0392  1.5728
32243SOL     OW 7042  10.779   6.976   8.514  0.2971 -0.5868  0.0661
32243SOL    HW1 7043  10.790   6.913   8.444  0.2412 -0.4378 -0.0784
32243SOL    HW2 7044  10.828   7.053   8.485  0.9894 -0.8299  0.5812
32244SOL     OW 7045   0.093  11.079   2.959  0.8917  0.6885  0.8817
32244SOL    HW1 7046   0.135  11.049   2.878  1.9413  2.0347  0.8720
32244SOL    HW2 7047   0.038  11.006   2.987  0.0657  0.3884 -1.3263
32245SOL     OW 7048   1.155   6.397   5.398  0.4332 -0.2492 -0.2294
32245SOL    HW1 7049   1.071   6.352   5.388 -0.6342  1.8388 -1.4648
32245SOL    HW2 7050   1.199   6.384   5.314 -0.2558  1.5846 -0.9294
32246SOL     OW 7051   2.485   2.355  10.113 -0.2914  0.0330 -0.2087
32246SOL    HW1 7052   2.444   2.327  10.194  0.8787  2.1978  1.2266
32246SOL    HW2 7053   2.571   2.389  10.140  1.2718 -1.5872 -2.7025
32247SOL     OW 7054  12.698   1.329   5.388 -0.2725  0.5806 -0.6832
32247SOL    HW1 7055  12.638   1.398   5.414 -0.0461  0.5966 -0.1851
32247SOL    HW2 7056  12.685   1.320   5.293 -2.4855 -0.7920 -0.3061
32248SOL     OW 7057   8.357   4.032   7.501  0.2854 -0.0724 -0.0482
32248SOL    HW1 7058   8.388   4.119   7.477  0.8166 -0.5178 -1.0353
32248SOL    HW2 7059   8.269   4.026   7.463  0.0185  0.2288  0.5047
32249SOL     OW 7060   1.567   9.945   6.062 -0.2444  0.7909 -0.4909
32249SOL    HW1 7061   1.612   9.975   5.983  0.0913  0.2665 -0.5097
32249SOL    HW2 7062   1.576   9.849   6.059  0.3458  0.8086  0.5204
32250SOL     OW 7063  12.209   5.920  12.677 -0.2226 -0.0341  0.1302
32250SOL    HW1 7064  12.237   5.848  12.621 -2.3680  0.2606 -1.4576
32250SOL    HW2 7065  12.229   5.999  12.627 -1.0998  0.2890  0.2566
32251SOL     OW 7066   2.386   2.129   0.304  0.1871 -0.1732  0.2244
32251SOL    HW1 7067   2.316   2.142   0.369  0.1866 -0.9285  0.3943
32251SOL    HW2 7068   2.377   2.037   0.278  1.6365 -0.5354  0.8830
32252SOL     OW 7069   7.283   1.813   2.267  0.2598  0.1240 -0.4320
32252SOL    HW1 7070   7.245   1.726   2.276  0.7608 -0.0942 -0.3772
32252SOL    HW2 7071   7.232   1.869   2.325  1.9169 -0.7659  2.0481
32253SOL     OW 7072   4.169   4.429   1.488  0.2037 -0.5072 -0.2852
32253SOL    HW1 7073   4.149   4.491   1.418 -0.4439 -0.0576  0.2877
32253SOL    HW2 7074   4.259   4.451   1.514 -0.4955  1.2330  0.9090
32254SOL     OW 7075  11.522   7.537   7.440  0.2552  0.3288 -0.5193
32254SOL    HW1 7076  11.465   7.462   7.421  1.2310 -0.5075 -0.2878
32254SOL    HW2 7077  11.607   7.512   7.402  0.3161  1.8326 -1.4537
32255SOL     OW 7078  12.793  12.796   3.755 -0.4577  0.1684 -1.1428
32255SOL    HW1 7079  12.716  12.787   3.811  1.2805 -0.7913  1.2675
32255SOL    HW2 7080  12.791  12.718   3.700 -0.6789 -0.3731 -0.3852
32256SOL     OW 7081   2.034  11.455   1.521 -0.1194  0.0133  0.2329
32256SOL    HW1 7082   2.047  11.441   1.427 -0.4992 -0.1913  0.2086
32256SOL    HW2 7083   2.122  11.461   1.557  0.0286  0.3327 -0.1720
32257SOL     OW 7084   9.125   4.555   3.930 -0.5383 -0.8151 -0.1041
32257SOL    HW1 7085   9.167   4.478   3.891 -0.8881 -1.1480  0.1694
32257SOL    HW2 7086   9.074   4.520   4.003 -0.8369 -0.3425 -0.0821
32258SOL     OW 7087   4.188  12.631   9.960 -0.2370 -0.1886 -0.5621
32258SOL    HW1 7088   4.115  12.623  10.020  0.2492  1.5711  0.3443
32258SOL    HW2 7089   4.264  12.649  10.015  0.6606 -0.7419 -1.5615
32259SOL     OW 7090   3.815  12.783   9.490  0.1119  0.7492  0.5113
32259SOL    HW1 7091   3.740  12.842   9.484  0.8390  1.6947  0.5903
32259SOL    HW2 7092   3.853  12.801   9.576 -0.0522 -0.3284  0.8230
32260SOL     OW 7093   6.935   3.339   8.081  0.8840 -0.3733 -0.1819
32260SOL    HW1 7094   6.939   3.406   8.013 -1.9471  1.0677  0.8866
32260SOL    HW2 7095   6.875   3.273   8.046 -0.5533  0.3565  0.8142
32261SOL     OW 7096   9.622   8.576   8.934  0.6477 -0.0047  0.2394
32261SOL    HW1 7097   9.622   8.502   8.994  4.0245 -0.4784 -0.1390
32261SOL    HW2 7098   9.706   8.570   8.888 -0.5356  1.9891 -2.4674
32262SOL     OW 7099   2.870   9.253  10.460 -0.1099 -0.0123 -0.8044
32262SOL    HW1 7100   2.923   9.213  10.390  1.7336 -1.8964  1.4959
32262SOL    HW2 7101   2.925   9.247  10.538 -1.1113  4.1498  0.4684
32263SOL     OW 7102   3.674   7.436   6.211  0.1718  0.5330  0.3850
32263SOL    HW1 7103   3.597   7.414   6.158 -0.5789 -0.9839  1.9894
32263SOL    HW2 7104   3.660   7.526   6.238 -1.0078  0.3153  0.5545
32264SOL     OW 7105   2.447   8.717   4.283 -0.3321  0.0514  0.7792
32264SOL    HW1 7106   2.515   8.740   4.346 -0.2659 -0.5744  0.9449
32264SOL    HW2 7107   2.479   8.750   4.199 -0.0038  0.1002  0.9237
32265SOL     OW 7108   0.632  12.404  10.251  0.7704  0.1842 -0.0417
32265SOL    HW1 7109   0.678  12.475  10.295  1.1068 -0.6673  1.0104
32265SOL    HW2 7110   0.598  12.349  10.322 -0.8618  0.1429 -0.8075
32266SOL     OW 7111   3.597  11.898   8.323  0.7731  0.4780 -0.3226
32266SOL    HW1 7112   3.547  11.876   8.401  1.3900 -0.2807 -0.1287
32266SOL    HW2 7113   3.555  11.977   8.289  0.0632  0.4124  0.3766
32267SOL     OW 7114   9.696   6.930   7.935 -0.4725  0.0342 -0.1123
32267SOL    HW1 7115   9.652   6.897   7.857  0.1176 -0.6090 -0.1825
32267SOL    HW2 7116   9.704   6.854   7.993  0.8604  0.0322 -0.2556
32268SOL     OW 7117   1.564  10.635   9.209  1.0222 -0.2940  0.3549
32268SOL    HW1 7118   1.542  10.684   9.289  0.6098  0.0468  0.0415
32268SOL    HW2 7119   1.494  10.571   9.200 -0.4372  1.3700 -1.1235
32269SOL     OW 7120   6.331  11.026  12.439 -0.5309  0.3864  0.1541
32269SOL    HW1 7121   6.411  10.993  12.399  0.3543  0.6595  1.6300
32269SOL    HW2 7122   6.300  10.955  12.494  1.3262  1.7825  3.2669
32270SOL     OW 7123  12.498   4.951   3.426  0.3381  0.0625  0.0731
32270SOL    HW1 7124  12.583   4.986   3.453 -0.0208 -0.1821  1.5923
32270SOL    HW2 7125  12.498   4.960   3.331  0.4535  3.7713  0.2737
32271SOL     OW 7126   5.300   2.196   3.164 -0.4821 -0.0754 -0.2561
32271SOL    HW1 7127   5.360   2.270   3.155  0.9983 -0.9530  1.5786
32271SOL    HW2 7128   5.331   2.131   3.102  0.0772 -0.2666  0.2153
32272SOL     OW 7129   1.598  10.112  12.084 -0.0663 -0.6980 -0.0431
32272SOL    HW1 7130   1.599  10.103  11.989 -2.6587 -0.3824 -0.1686
32272SOL    HW2 7131   1.530  10.051  12.113  1.2389 -1.4002  1.7192
32273SOL     OW 7132   4.531   2.708   1.344  0.4571 -0.4402  0.1888
32273SOL    HW1 7133   4.513   2.694   1.437 -1.2667 -0.1408 -0.0643
32273SOL    HW2 7134   4.449   2.741   1.309  1.2491 -0.0197 -1.3465
32274SOL     OW 7135   3.520  10.151   3.734  0.6448  0.2179 -0.2460
32274SOL    HW1 7136   3.541  10.233   3.779  1.9807  0.7149 -1.7008
32274SOL    HW2 7137   3.426  10.156   3.717  0.4958  0.9041  0.6803
32275SOL     OW 7138   6.757   8.344   6.808  0.8871 -0.4878 -0.1529
32275SOL    HW1 7139   6.842   8.382   6.828  1.7520 -2.4210  0.1400
32275SOL    HW2 7140   6.696   8.417   6.813  2.0304  0.4060  2.9441
32276SOL     OW 7141   5.520   8.366   2.247  0.3009  0.0850  0.2108
32276SOL    HW1 7142   5.440   8.397   2.290 -1.1488 -3.2118  0.1863
32276SOL    HW2 7143   5.565   8.446   2.221 -3.1359  2.1340 -0.0892
32277SOL     OW 7144   4.966  12.915   7.783  0.3077 -0.3783 -0.2545
32277SOL    HW1 7145   4.891  12.861   7.808  1.3155 -1.1660  1.2153
32277SOL    HW2 7146   4.947  12.942   7.693 -2.2168  0.3261  0.4102
32278SOL     OW 7147  12.702  11.370   0.704  0.2739  0.0625 -0.0257
32278SOL    HW1 7148  12.699  11.461   0.731 -0.6521  0.4521 -1.3461
32278SOL    HW2 7149  12.761  11.369   0.628  0.2540 -0.4327 -0.0407
32279SOL     OW 7150   4.767   0.253   5.901  0.5296  0.5162  0.1125
32279SOL    HW1 7151   4.673   0.236   5.906  0.7116 -0.2832  1.0911
32279SOL    HW2 7152   4.797   0.249   5.992  1.5586  0.4569 -0.2191
32280SOL     OW 7153   2.092   0.115   4.089 -0.5965  0.0371  0.4604
32280SOL    HW1 7154   2.009   0.080   4.121 -1.3799  0.2407 -1.2188
32280SOL    HW2 7155   2.079   0.209   4.086 -1.4565 -0.0557 -2.5266
32281SOL     OW 7156   8.233   9.153   1.570 -0.2676  0.5790  0.1796
32281SOL    HW1 7157   8.318   9.115   1.548  0.1884  1.5567  0.1609
32281SOL    HW2 7158   8.222   9.135   1.663 -1.0696 -1.4390 -0.2621
32282SOL     OW 7159  11.092   2.166   0.680  0.1659 -0.2281  0.0085
32282SOL    HW1 7160  11.119   2.171   0.772  0.6366  0.7325 -0.1627
32282SOL    HW2 7161  11.145   2.095   0.644  2.1710  1.2856 -0.1910
32283SOL     OW 7162   7.421   9.927   3.631 -0.5954  0.4268 -0.0192
32283SOL    HW1 7163   7.398   9.839   3.601 -0.0213 -0.0498  0.8636
32283SOL    HW2 7164   7.464   9.968   3.556  0.2937 -0.5248 -0.0641
32284SOL     OW 7165  10.944  10.478  10.624  0.1284 -0.4606 -0.0208
32284SOL    HW1 7166  10.955  10.477  10.528 -0.5842 -0.0413 -0.1154
32284SOL    HW2 7167  10.962  10.569  10.648  0.6077 -0.6358  0.2864
32285SOL     OW 7168   1.615   1.618   5.704 -0.1619  0.1314 -0.5130
32285SOL    HW1 7169   1.701   1.655   5.684  0.1375  0.2106  0.8498
32285SOL    HW2 7170   1.554   1.690   5.691  0.2115  0.6197  0.4033
32286SOL     OW 7171  12.253   1.532   0.250  0.7655 -0.0039  0.7168
32286SOL    HW1 7172  12.295   1.584   0.181  0.4152 -0.6503 -0.0043
32286SOL    HW2 7173  12.162   1.526   0.223  1.0222 -2.0067  0.1134
32287SOL     OW 7174   0.539  11.275   4.188 -0.5710  0.1143 -0.2029
32287SOL    HW1 7175   0.633  11.287   4.176 -0.2468 -1.0816  0.9772
32287SOL    HW2 7176   0.507  11.362   4.212  0.2740  0.4737 -0.3491
32288SOL     OW 7177   4.727   5.414   4.370 -0.2660 -0.1774  0.6828
32288SOL    HW1 7178   4.735   5.373   4.283  0.6405  0.1144  0.6114
32288SOL    HW2 7179   4.641   5.455   4.369 -0.6373 -0.9276  0.2553
32289SOL     OW 7180   2.493   1.022   7.962 -0.1393 -0.2833  0.1498
32289SOL    HW1 7181   2.520   1.077   8.035 -0.2731  1.7889 -1.2651
32289SOL    HW2 7182   2.569   1.022   7.903 -0.4791 -0.8642 -0.2979
32290SOL     OW 7183   3.957   8.988   0.170 -0.0776 -0.1235 -0.2663
32290SOL    HW1 7184   4.033   8.930   0.181 -0.2712 -0.7521 -1.9282
32290SOL    HW2 7185   3.962   9.048   0.245  1.2538 -1.0315  0.4281
32291SOL     OW 7186   5.740   6.864   9.301  0.1997  0.1910 -0.6710
32291SOL    HW1 7187   5.645   6.875   9.290 -0.0550 -0.2115  0.8543
32291SOL    HW2 7188   5.751   6.841   9.393  1.4919 -2.8129 -1.4409
32292SOL     OW 7189   0.495   1.741   1.655 -0.1435  0.3719 -0.3947
32292SOL    HW1 7190   0.507   1.782   1.741  0.1235 -0.9184  0.2071
32292SOL    HW2 7191   0.561   1.672   1.651  0.4653  1.0012 -2.0359
32293SOL     OW 7192   8.662  12.171   3.662  0.2083 -0.6733 -0.2750
32293SOL    HW1 7193   8.706  12.114   3.599 -1.7555 -1.8086 -0.6862
32293SOL    HW2 7194   8.569  12.165   3.640 -0.1999  1.7541  0.4583
32294SOL     OW 7195  11.773   9.919  11.850  0.8217 -0.1962 -0.0621
32294SOL    HW1 7196  11.855   9.917  11.901  0.3886  2.0923  0.8738
32294SOL    HW2 7197  11.711   9.965  11.907 -1.2867 -2.1878 -0.5872
32295SOL     OW 7198   3.401   4.846   2.722  0.0035 -0.2920 -0.2867
32295SOL    HW1 7199   3.370   4.768   2.675 -1.5170  0.2103 -0.1609
32295SOL    HW2 7200   3.441   4.811   2.802 -2.8447 -0.9062  0.9919
32296SOL     OW 7201   4.583  12.159   0.625 -0.1507  0.3890  0.4392
32296SOL    HW1 7202   4.529  12.111   0.687  1.7178  0.6309  2.3938
32296SOL    HW2 7203   4.543  12.246   0.620 -0.8140  0.1008  0.6198
32297SOL     OW 7204   1.819   9.800   8.128  0.5609  0.3866 -0.3044
32297SOL    HW1 7205   1.878   9.822   8.201 -1.7400 -0.6438  2.0295
32297SOL    HW2 7206   1.816   9.880   8.076  0.7846  1.9210  1.8559
32298SOL     OW 7207   1.906   5.326   6.601 -0.1516  0.3899 -0.0980
32298SOL    HW1 7208   1.848   5.266   6.554 -0.5382 -0.6513  1.6230
32298SOL    HW2 7209   1.919   5.285   6.686  2.2135  1.1678 -0.0133
32299SOL     OW 7210   6.876   2.418   5.434 -0.0735  0.1856 -0.8880
32299SOL    HW1 7211   6.810   2.361   5.395 -1.4132  0.9289  0.1852
32299SOL    HW2 7212   6.850   2.425   5.526 -0.1617  2.7376 -1.0386
32300SOL     OW 7213   8.319   8.467  12.959 -0.4031 -0.4297 -0.1458
32300SOL    HW1 7214   8.369   8.447  13.038 -0.3756 -0.1919 -0.1006
32300SOL    HW2 7215   8.286   8.556  12.973 -0.4401 -0.4048 -0.3792
32301SOL     OW 7216   1.194   2.130   6.867  0.1823  0.0495 -0.2627
32301SOL    HW1 7217   1.145   2.078   6.804 -2.3035 -0.3224  1.8120
32301SOL    HW2 7218   1.250   2.066   6.912  0.5864  0.0058 -0.8155
32302SOL     OW 7219   4.316   3.586   6.629  0.2054  0.3432 -0.2758
32302SOL    HW1 7220   4.352   3.524   6.565 -1.0577 -0.5292 -0.1837
32302SOL    HW2 7221   4.225   3.598   6.602 -0.5101 -0.4009  1.5680
32303SOL     OW 7222   9.625  10.300   3.249 -0.4370 -0.5538  0.2950
32303SOL    HW1 7223   9.626  10.378   3.303  0.2726 -1.6386  1.9017
32303SOL    HW2 7224   9.533  10.288   3.226 -0.8217 -0.3324  1.6664
32304SOL     OW 7225   9.405   7.465  12.985 -0.0665  0.9055  0.2294
32304SOL    HW1 7226   9.343   7.451  12.913  0.1737  0.4408  0.1030
32304SOL    HW2 7227   9.390   7.555  13.014  0.1433  1.2453 -0.6981
32305SOL     OW 7228   1.257   6.532   8.242  0.2127  0.4604 -0.4975
32305SOL    HW1 7229   1.195   6.590   8.287 -0.7653 -1.3023  0.5055
32305SOL    HW2 7230   1.343   6.571   8.261 -0.3848  1.3578  0.4851
32306SOL     OW 7231   0.243   1.923   8.109 -0.1943 -0.0510 -0.4409
32306SOL    HW1 7232   0.273   1.940   8.020  1.6010  0.8452  0.2771
32306SOL    HW2 7233   0.274   1.834   8.129  3.3595  1.2373  0.6819
32307SOL     OW 7234   2.337  11.790   7.632 -0.5031 -0.5061 -0.0613
32307SOL    HW1 7235   2.393  11.713   7.620 -0.0351 -0.2284  0.2728
32307SOL    HW2 7236   2.319  11.820   7.543  2.6569  1.3480 -0.2468
32308SOL     OW 7237   0.901   0.092   8.906  0.1876  0.1090 -0.1959
32308SOL    HW1 7238   0.949   0.020   8.867 -0.1636  0.2254 -0.8574
32308SOL    HW2 7239   0.946   0.171   8.876 -0.1713  0.2039 -0.4958
32309SOL     OW 7240   8.424   6.483   6.416 -0.6166  0.0990 -0.3940
32309SOL    HW1 7241   8.441   6.517   6.503  0.9529 -0.8809 -0.2618
32309SOL    HW2 7242   8.395   6.558   6.365  1.1922  1.3252  0.2712
32310SOL     OW 7243   2.596   1.336  12.230 -0.0248 -0.0059 -0.0525
32310SOL    HW1 7244   2.512   1.315  12.270  0.2388 -0.4557  0.2689
32310SOL    HW2 7245   2.623   1.419  12.271 -1.3075  1.2889 -1.6878
32311SOL     OW 7246   0.786   6.613  10.599  0.0879 -0.6226  0.3704
32311SOL    HW1 7247   0.799   6.694  10.647  0.3785  1.1887 -2.5525
32311SOL    HW2 7248   0.870   6.568  10.603  1.1917  1.1490 -1.1738
32312SOL     OW 7249   8.764  12.287   3.039  0.4955  0.3480  0.0337
32312SOL    HW1 7250   8.791  12.237   2.962 -0.2487  0.3126 -0.2123
32312SOL    HW2 7251   8.673  12.262   3.054  0.5009  0.6778  0.6715
32313SOL     OW 7252   0.934   7.223   0.375  0.3135 -0.1863  0.2160
32313SOL    HW1 7253   0.940   7.312   0.340 -0.3923  0.0350  0.6555
32313SOL    HW2 7254   0.842   7.211   0.398  0.0704 -1.5729 -1.2360
32314SOL     OW 7255  11.936   2.089   5.578 -0.2661 -0.0092 -0.1025
32314SOL    HW1 7256  11.861   2.108   5.523  0.0119 -0.1059 -0.5253
32314SOL    HW2 7257  12.005   2.065   5.516  0.4119  1.0624  0.2144
32315SOL     OW 7258   9.516   2.080   3.243  0.4713  0.0562 -0.3509
32315SOL    HW1 7259   9.557   2.098   3.328  1.2382 -1.0667 -0.4629
32315SOL    HW2 7260   9.468   1.998   3.255 -2.7272  1.8217  0.0708
32316SOL     OW 7261   6.443   4.420   8.291 -0.6469  0.2260 -0.3303
32316SOL    HW1 7262   6.530   4.460   8.294 -2.4306  4.6700 -0.1919
32316SOL    HW2 7263   6.437   4.381   8.203  0.8406  1.6637 -1.1187
32317SOL     OW 7264   3.650   2.372   6.305 -0.4043  0.4447  0.5275
32317SOL    HW1 7265   3.570   2.325   6.327 -0.8961  1.1125  0.2181
32317SOL    HW2 7266   3.627   2.424   6.228  0.4742  0.2709  0.1323
32318SOL     OW 7267   6.446   0.714   1.275  0.1001  0.0963 -0.0541
32318SOL    HW1 7268   6.369   0.735   1.221  0.2485 -0.0081 -0.3054
32318SOL    HW2 7269   6.480   0.633   1.239  0.1567 -0.0163  0.2473
32319SOL     OW 7270   2.682   9.092   0.817 -0.1985  0.5781  0.6366
32319SOL    HW1 7271   2.618   9.022   0.823  2.6855 -2.2949  0.7881
32319SOL    HW2 7272   2.727   9.077   0.733 -0.0121  2.8058  0.2662
32320SOL     OW 7273   2.909   0.159   2.274  0.0387 -0.1541 -0.8466
32320SOL    HW1 7274   2.908   0.079   2.328 -0.5009 -0.6040 -1.5104
32320SOL    HW2 7275   2.996   0.159   2.233  0.2223 -0.1374 -0.4633
32321SOL     OW 7276   3.972   9.986   0.368  0.1154  0.1486 -0.3655
32321SOL    HW1 7277   3.895   9.960   0.418 -1.7049  1.2242 -2.4390
32321SOL    HW2 7278   4.035  10.016   0.433 -1.1388 -0.9149  1.4005
32322SOL     OW 7279   7.063   1.093   8.134  0.1457 -0.4706  0.1378
32322SOL    HW1 7280   7.028   1.036   8.203 -0.0037  1.1879  1.5051
32322SOL    HW2 7281   6.986   1.136   8.097  0.3119 -0.6395 -0.4071
32323SOL     OW 7282   0.177   8.077   7.619  0.3273 -0.0086 -0.1520
32323SOL    HW1 7283   0.190   8.162   7.661  0.3610  0.6702 -1.4716
32323SOL    HW2 7284   0.100   8.041   7.663 -0.4899  1.2986 -0.4404
32324SOL     OW 7285   3.440   6.154   9.580  0.3289  0.3530  0.1004
32324SOL    HW1 7286   3.398   6.070   9.598  1.0046 -0.2151 -0.8627
32324SOL    HW2 7287   3.398   6.186   9.500 -0.9619  1.6728  1.2601
32325SOL     OW 7288   3.638   4.288   6.543 -0.0170 -0.4053 -0.4669
32325SOL    HW1 7289   3.583   4.244   6.479 -1.3705 -1.0555  1.0614
32325SOL    HW2 7290   3.576   4.327   6.605  1.2220  0.0954  0.5057
32326SOL     OW 7291   4.420  10.046   1.231 -0.3751  0.0942 -0.8540
32326SOL    HW1 7292   4.450  10.050   1.321 -1.2343 -0.0166 -0.5615
32326SOL    HW2 7293   4.486   9.992   1.187 -0.4343 -0.6218 -0.0934
32327SOL     OW 7294   4.619   3.437   1.621  0.7418 -0.5332  0.4511
32327SOL    HW1 7295   4.591   3.347   1.641  0.0472 -0.4045  0.0679
32327SOL    HW2 7296   4.700   3.425   1.571  1.3833 -0.9060  1.5380
32328SOL     OW 7297  10.283   9.124   1.427  0.0140 -0.2973 -0.1884
32328SOL    HW1 7298  10.313   9.043   1.467 -2.5602 -1.3522 -0.2517
32328SOL    HW2 7299  10.261   9.181   1.501  0.0334 -0.3616 -0.1333
32329SOL     OW 7300   2.765   1.062   8.726  0.1956 -0.2884  0.0158
32329SOL    HW1 7301   2.770   0.966   8.721  0.0364 -0.2517 -0.8802
32329SOL    HW2 7302   2.755   1.090   8.636 -0.8934  0.5214  0.3805
32330SOL     OW 7303   1.515   5.563   8.515 -0.2128  0.4985  0.7451
32330SOL    HW1 7304   1.540   5.478   8.552 -0.5767  1.5726  3.7017
32330SOL    HW2 7305   1.424   5.574   8.541 -0.8823  0.8998 -1.5319
32331SOL     OW 7306   3.708   8.355   1.414  0.1979  0.6619 -0.1755
32331SOL    HW1 7307   3.762   8.277   1.417  0.0646  0.5944  0.8410
32331SOL    HW2 7308   3.770   8.428   1.415  0.3740  0.6774  3.9054
32332SOL     OW 7309   2.855   4.257   9.502  0.8913  0.2486  0.5443
32332SOL    HW1 7310   2.926   4.194   9.507  0.9750 -0.0714 -2.8268
32332SOL    HW2 7311   2.779   4.207   9.472 -0.6342  0.7609  3.1757
32333SOL     OW 7312   9.880   6.691   0.999 -0.0454  0.3497  0.5847
32333SOL    HW1 7313   9.797   6.656   1.033 -0.2705  1.0676  0.8045
32333SOL    HW2 7314   9.927   6.615   0.967 -1.0002 -0.0221  0.0119
32334SOL     OW 7315   1.134  10.321   9.797 -0.3769  0.2411 -0.3541
32334SOL    HW1 7316   1.077  10.299   9.724 -0.5020  1.2148 -0.5617
32334SOL    HW2 7317   1.102  10.266   9.869 -0.4758 -0.4624 -0.9173
32335SOL     OW 7318   3.631   0.778  12.293  0.4837  0.1837 -0.3474
32335SOL    HW1 7319   3.578   0.770  12.372 -0.5973 -2.4482 -1.2230
32335SOL    HW2 7320   3.698   0.710  12.302 -0.4960 -1.1122 -2.2285
32336SOL     OW 7321   3.978   3.237  10.827  0.3508 -0.1098  0.3529
32336SOL    HW1 7322   4.058   3.237  10.879 -0.1325  0.5920  1.1286
32336SOL    HW2 7323   3.966   3.329  10.803  0.7226 -0.4630 -1.2722
32337SOL     OW 7324  10.925   2.322   8.831 -0.3304  0.3569  0.0182
32337SOL    HW1 7325  10.962   2.267   8.763  0.0062  1.5237 -0.7752
32337SOL    HW2 7326  10.958   2.410   8.812 -1.7756  1.0577  0.5443
32338SOL     OW 7327   8.673  12.792  10.143 -0.2098  0.3652  0.1280
32338SOL    HW1 7328   8.684  12.811  10.236  1.7266  0.0656  0.0190
32338SOL    HW2 7329   8.699  12.873  10.100 -2.0592  0.8414 -0.1760
32339SOL     OW 7330   1.835   4.520   0.417  0.1816 -0.0599 -0.5612
32339SOL    HW1 7331   1.752   4.522   0.369 -0.1890 -0.6915  0.0273
32339SOL    HW2 7332   1.830   4.440   0.470  0.5257  0.6646  0.6014
32340SOL     OW 7333   3.802   7.066  10.837 -0.4199  0.3603  0.2737
32340SOL    HW1 7334   3.827   7.141  10.890  0.9731  0.2845 -0.2419
32340SOL    HW2 7335   3.708   7.055  10.854 -0.3223  1.2557  1.5325
32341SOL     OW 7336   2.647   8.132   6.517 -0.2524  0.1527  0.3206
32341SOL    HW1 7337   2.742   8.120   6.521 -0.2445  0.3217  0.6698
32341SOL    HW2 7338   2.621   8.154   6.607 -0.5128  0.8896  0.0807
32342SOL     OW 7339  12.662   5.080   9.478  0.5576  0.2783 -0.6417
32342SOL    HW1 7340  12.613   5.125   9.409  0.0340  0.5645 -0.0917
32342SOL    HW2 7341  12.595   5.054   9.541  0.9300 -0.6998 -0.6292
32343SOL     OW 7342   0.616   1.562   2.984 -0.1417  0.3182 -0.1982
32343SOL    HW1 7343   0.688   1.530   3.038 -0.9130 -0.3734  0.4601
32343SOL    HW2 7344   0.626   1.657   2.983  1.0599  0.1965 -0.5447
32344SOL     OW 7345   9.113   0.751   9.808  0.2725 -0.2010 -0.3949
32344SOL    HW1 7346   9.138   0.726   9.719 -0.4784 -1.1190 -0.3718
32344SOL    HW2 7347   9.069   0.673   9.843  0.2190  0.2774  0.6484
32345SOL     OW 7348   2.020   9.015   0.147  0.2756  0.6462  0.6622
32345SOL    HW1 7349   1.968   9.004   0.227 -0.5050  0.5062  0.1452
32345SOL    HW2 7350   2.089   8.950   0.154  0.9177  1.4302  1.7799
32346SOL     OW 7351   6.457   1.566   2.203 -0.5161  0.4845  0.0201
32346SOL    HW1 7352   6.441   1.472   2.193 -0.1336  0.5266 -1.1672
32346SOL    HW2 7353   6.373   1.607   2.180 -0.7814  0.4255  0.8698
32347SOL     OW 7354   3.907   4.821  10.056 -0.1084 -0.0699  0.1443
32347SOL    HW1 7355   3.877   4.752   9.997  0.3992 -0.5511  0.4537
32347SOL    HW2 7356   3.929   4.776  10.137 -0.1994  0.5136  0.4973
32348SOL     OW 7357   6.373   1.476   9.910 -0.3507 -0.1458  0.2183
32348SOL    HW1 7358   6.310   1.508   9.975 -0.0311  1.8722 -0.3921
32348SOL    HW2 7359   6.458   1.481   9.954 -0.3190 -0.3931  0.1886
32349SOL     OW 7360   3.290  10.382   2.977 -0.0877 -0.3009 -0.1796
32349SOL    HW1 7361   3.205  10.338   2.980  0.7405 -1.9127  1.1652
32349SOL    HW2 7362   3.290  10.441   3.052  0.0385 -0.3977 -0.1033
32350SOL     OW 7363   3.330  11.421   3.906  0.5443  0.4925 -0.0956
32350SOL    HW1 7364   3.288  11.446   3.824  1.9098  4.2190  0.1297
32350SOL    HW2 7365   3.277  11.462   3.974  1.0175 -0.1443  0.6779
32351SOL     OW 7366   7.501   8.861  11.133  0.0234  0.3869  0.7452
32351SOL    HW1 7367   7.503   8.844  11.038  1.0553  0.6924  0.6923
32351SOL    HW2 7368   7.413   8.895  11.149 -0.2289  0.1528 -0.0782
32352SOL     OW 7369   5.077   9.018   9.244 -0.3067 -0.2213  0.0378
32352SOL    HW1 7370   5.064   8.923   9.236  1.4240 -0.4139 -0.9729
32352SOL    HW2 7371   4.993   9.055   9.216 -0.9228 -1.4399  0.1690
32353SOL     OW 7372   9.278   3.793   5.485 -0.3334  0.2043  0.4476
32353SOL    HW1 7373   9.258   3.727   5.552  1.7577 -0.4069  0.5482
32353SOL    HW2 7374   9.258   3.750   5.402  0.1785 -0.2604  0.5572
32354SOL     OW 7375   9.975   3.371   5.739  0.1320  0.6555  0.5379
32354SOL    HW1 7376  10.057   3.323   5.727  0.5686  1.4176  0.4094
32354SOL    HW2 7377   9.958   3.413   5.655 -1.2202 -0.7328  0.0805
32355SOL     OW 7378   7.001   7.191   6.314  0.5371  0.2054  0.2482
32355SOL    HW1 7379   6.983   7.251   6.241  1.8554 -0.7030 -0.8807
32355SOL    HW2 7380   7.042   7.115   6.273 -0.3347 -1.1390  1.7464
32356SOL     OW 7381   4.583  11.946   0.464 -0.1723 -0.6339  0.1077
32356SOL    HW1 7382   4.502  11.900   0.484  0.1867 -0.6721  1.6130
32356SOL    HW2 7383   4.582  12.022   0.522  0.3611 -0.0364 -0.6400
32357SOL     OW 7384  11.166   5.471   1.868  0.2871  0.3109 -0.3802
32357SOL    HW1 7385  11.145   5.502   1.780 -1.3275  0.6244  0.0835
32357SOL    HW2 7386  11.202   5.384   1.854 -2.8369 -0.9893 -1.2500
32358SOL     OW 7387  11.139  12.181   4.590 -0.1195 -0.0994 -0.1561
32358SOL    HW1 7388  11.173  12.270   4.600 -0.7279  0.0093  1.2460
32358SOL    HW2 7389  11.046  12.193   4.571  0.0412 -0.4321 -1.1934
32359SOL     OW 7390   3.686  11.080   1.236 -0.0508 -0.2067  0.7516
32359SOL    HW1 7391   3.603  11.089   1.190  0.0496  0.3906  0.6765
32359SOL    HW2 7392   3.695  11.162   1.285  1.0552  0.2819 -0.1965
32360SOL     OW 7393  10.994   7.738   6.374  0.7212  1.0191  0.0254
32360SOL    HW1 7394  10.975   7.662   6.319 -0.5062  1.2342  0.1052
32360SOL    HW2 7395  11.086   7.757   6.358  0.6408  0.4968 -1.2354
32361SOL     OW 7396  11.418   3.327   4.271  0.1749 -0.7146  0.3088
32361SOL    HW1 7397  11.467   3.261   4.319 -0.1874 -0.2866  1.2970
32361SOL    HW2 7398  11.376   3.279   4.200  2.1089 -1.0607 -0.6704
32362SOL     OW 7399   4.604   7.769   7.370 -0.6962 -0.7572  0.4508
32362SOL    HW1 7400   4.677   7.822   7.340 -1.2560  0.0950  0.5508
32362SOL    HW2 7401   4.617   7.684   7.328  0.5104 -0.7246  0.7183
32363SOL     OW 7402   4.961   2.587  11.842  0.5593  0.3105 -0.3379
32363SOL    HW1 7403   4.956   2.649  11.769 -2.2943  0.4857 -0.1135
32363SOL    HW2 7404   4.911   2.511  11.813  2.3741 -1.1394  0.1486
32364SOL     OW 7405   8.681   9.822   7.073 -0.3827  0.1436  0.0250
32364SOL    HW1 7406   8.707   9.737   7.110  0.4631  0.0739 -0.6911
32364SOL    HW2 7407   8.757   9.850   7.023 -1.5670  0.0903 -1.9126
32365SOL     OW 7408   9.149  12.355   6.257 -0.8705 -0.2177  0.0182
32365SOL    HW1 7409   9.086  12.386   6.192 -0.5267  0.3041 -0.0705
32365SOL    HW2 7410   9.235  12.377   6.221 -0.6940  0.6485  0.9164
32366SOL     OW 7411   3.237  10.966   3.813 -1.1295  0.3680 -0.0530
32366SOL    HW1 7412   3.259  10.983   3.905  0.2711  1.4680 -0.5662
32366SOL    HW2 7413   3.290  11.028   3.763 -0.7058 -1.2348 -1.7092
32367SOL     OW 7414  11.650   6.095  11.439 -0.2785 -0.2219 -0.0473
32367SOL    HW1 7415  11.672   6.139  11.356  1.5001 -0.7547  0.0983
32367SOL    HW2 7416  11.716   6.027  11.448 -0.5178 -0.2625  1.7691
32368SOL     OW 7417   2.908   3.231  11.769  0.1549  0.0218  0.1843
32368SOL    HW1 7418   2.923   3.161  11.706  0.9774 -0.1784  0.5964
32368SOL    HW2 7419   2.817   3.257  11.754  0.0447 -0.6794 -0.4190
32369SOL     OW 7420   1.582   4.600   7.047 -0.6823  0.7056 -0.1973
32369SOL    HW1 7421   1.655   4.558   7.003  0.4335 -0.1377  2.2835
32369SOL    HW2 7422   1.609   4.691   7.059 -0.4768  0.6458 -0.2170
32370SOL     OW 7423   6.884   1.040   7.018 -0.3734 -0.2910 -0.1261
32370SOL    HW1 7424   6.956   0.977   7.011 -1.0990 -0.9922 -1.5271
32370SOL    HW2 7425   6.836   1.012   7.096  0.8352  0.1819  0.8235
32371SOL     OW 7426   5.169   7.981  11.599  0.7471 -0.1843  0.2793
32371SOL    HW1 7427   5.257   7.982  11.562  0.1058  2.2177 -1.4051
32371SOL    HW2 7428   5.113   7.952  11.527  0.0501 -0.8582  1.0689
32372SOL     OW 7429   6.510   1.909  11.331  0.3380  0.0297 -0.1803
32372SOL    HW1 7430   6.594   1.944  11.300  0.9987 -1.6877 -0.4635
32372SOL    HW2 7431   6.532   1.865  11.413 -0.3856 -0.0252 -0.0136
32373SOL     OW 7432  10.290   6.754   0.962 -0.3274  0.7571  0.2977
32373SOL    HW1 7433  10.235   6.806   1.020 -0.0419  0.7498  0.5782
32373SOL    HW2 7434  10.229   6.698   0.914 -0.5628  0.7418  0.6157
32374SOL     OW 7435  10.012   7.582   4.163  0.1694 -0.1793 -0.5991
32374SOL    HW1 7436  10.082   7.634   4.201 -2.5915  2.3208  1.5531
32374SOL    HW2 7437  10.043   7.491   4.169  2.4752  0.6466  1.8861
32375SOL     OW 7438   6.832  11.180   1.079  0.1481  0.5267 -0.0531
32375SOL    HW1 7439   6.836  11.251   1.015 -1.9793 -0.5131 -1.4939
32375SOL    HW2 7440   6.913  11.130   1.065 -0.9121 -0.5573 -3.1852
32376SOL     OW 7441   1.340   5.814   6.973  0.3291  0.2464 -0.1921
32376SOL    HW1 7442   1.329   5.815   6.878  0.7078 -0.6543 -0.2534
32376SOL    HW2 7443   1.255   5.787   7.006 -0.2400  1.9331 -0.1801
32377SOL     OW 7444   8.999  10.052  12.948 -0.3235  0.1603  0.2313
32377SOL    HW1 7445   8.943  10.001  12.889 -0.1627  0.8338 -0.5303
32377SOL    HW2 7446   9.013   9.995  13.024  0.9530 -1.4802 -1.1478
32378SOL     OW 7447   8.243  10.439   6.159  0.6045  0.1777 -0.1629
32378SOL    HW1 7448   8.188  10.422   6.235 -1.3120 -1.2193 -1.7442
32378SOL    HW2 7449   8.287  10.521   6.179 -0.1860  0.1060  2.2226
32379SOL     OW 7450   9.017  10.913   3.625  0.3171 -0.3957 -0.2500
32379SOL    HW1 7451   8.965  10.845   3.669  1.9339 -0.7017  1.2985
32379SOL    HW2 7452   8.958  10.948   3.559 -1.2584 -1.9202  0.2497
32380SOL     OW 7453   3.138   8.993   4.044  0.0179 -0.4302 -0.3015
32380SOL    HW1 7454   3.227   9.025   4.029  0.8032 -2.4158 -0.1565
32380SOL    HW2 7455   3.087   9.072   4.061  1.9978  0.6849  0.8652
32381SOL     OW 7456   7.655   0.478   0.269 -0.4246  0.1472  0.2300
32381SOL    HW1 7457   7.667   0.551   0.330  2.4185  1.8825 -2.1790
32381SOL    HW2 7458   7.560   0.464   0.267 -0.9013  2.4158  2.2600
32382SOL     OW 7459  10.447   2.910   1.962  0.1474 -0.1475  0.4601
32382SOL    HW1 7460  10.450   3.002   1.936  0.6397 -0.0498  0.8388
32382SOL    HW2 7461  10.414   2.864   1.885  1.2500  0.1752 -0.2214
32383SOL     OW 7462   3.515   5.615   9.494  0.3979 -0.0927 -0.3953
32383SOL    HW1 7463   3.499   5.613   9.588 -0.7854 -0.3453 -0.5876
32383SOL    HW2 7464   3.445   5.562   9.456  1.4672 -0.8779 -1.3484
32384SOL     OW 7465   0.031   6.855   0.582 -0.3309 -0.0367 -0.2283
32384SOL    HW1 7466   0.038   6.778   0.525 -0.1051  0.2579 -0.6038
32384SOL    HW2 7467   0.052   6.929   0.525 -0.8990  0.3380  0.0426
32385SOL     OW 7468  12.702  11.860  12.387  0.1040  0.6586 -0.0366
32385SOL    HW1 7469  12.744  11.883  12.305 -1.1505  1.0636 -0.6009
32385SOL    HW2 7470  12.727  11.769  12.403  0.5868  0.6686 -0.7230
32386SOL     OW 7471   3.529   1.001   8.836 -0.1570 -0.7041  0.7263
32386SOL    HW1 7472   3.532   0.908   8.854 -1.3788 -0.7411  0.8287
32386SOL    HW2 7473   3.487   1.008   8.751 -0.1772 -0.2410  0.7692
32387SOL     OW 7474   9.425   7.222   2.205  0.0663  0.2011 -0.1255
32387SOL    HW1 7475   9.369   7.227   2.127 -0.5273 -1.2071  0.1811
32387SOL    HW2 7476   9.513   7.208   2.169  0.0067  0.9400 -0.5750
32388SOL     OW 7477  12.935   3.784   5.306  0.2462 -0.0220 -0.3407
32388SOL    HW1 7478  12.987   3.769   5.385  0.7067 -0.6489 -0.7515
32388SOL    HW2 7479  12.847   3.804   5.338  0.1632 -1.3398  0.3067
32389SOL     OW 7480  11.222   5.078   4.405  0.1957  0.1715  0.1399
32389SOL    HW1 7481  11.213   5.017   4.478  3.3181 -0.5108  0.0788
32389SOL    HW2 7482  11.215   5.164   4.446  0.3711 -0.2061  1.0014
32390SOL     OW 7483   5.717   6.518   1.735 -0.1500  0.0883  0.1070
32390SOL    HW1 7484   5.659   6.457   1.781  0.8213 -0.2501  0.9165
32390SOL    HW2 7485   5.732   6.478   1.650 -0.5216 -0.1751  0.1644
32391SOL     OW 7486  12.773  12.072  12.770  0.0364 -0.1841  0.6426
32391SOL    HW1 7487  12.796  12.164  12.780 -0.9141  0.2497 -0.7771
32391SOL    HW2 7488  12.680  12.068  12.793 -0.5055 -0.3381 -1.4045
32392SOL     OW 7489   0.957   0.315   3.824  0.1283 -0.1522 -0.1707
32392SOL    HW1 7490   1.027   0.327   3.760 -1.4156 -0.0387 -1.9185
32392SOL    HW2 7491   0.920   0.403   3.836 -0.5411 -0.4049 -0.2910
32393SOL     OW 7492   4.634   9.373   8.446 -0.0015 -0.2667 -0.4664
32393SOL    HW1 7493   4.715   9.321   8.449  1.0427  1.3065  0.9047
32393SOL    HW2 7494   4.595   9.360   8.532  0.8436  1.9395  0.3367
32394SOL     OW 7495  10.080   7.830   8.474  0.1100 -0.2308 -0.1180
32394SOL    HW1 7496  10.062   7.794   8.387  1.3316 -0.0420 -0.4708
32394SOL    HW2 7497  10.098   7.922   8.459 -0.8551  0.0746  0.5096
32395SOL     OW 7498  11.897   0.696   7.843 -0.4146 -0.0380  0.1047
32395SOL    HW1 7499  11.938   0.725   7.761 -2.1523 -0.5139 -0.9974
32395SOL    HW2 7500  11.959   0.634   7.881  0.4468  0.2224 -0.8212
32396SOL     OW 7501   0.566   3.569   5.064  0.5793  0.2349 -0.1445
32396SOL    HW1 7502   0.562   3.663   5.082  1.5130  0.0090  1.5150
32396SOL    HW2 7503   0.479   3.536   5.085  0.7169  0.5072  0.9326
32397SOL     OW 7504   1.136   6.656   8.652  0.5649  0.5604  0.2688
32397SOL    HW1 7505   1.202   6.598   8.613  1.7174  3.5886 -2.8329
32397SOL    HW2 7506   1.186   6.714   8.709 -0.5148 -1.0404  3.0194
32398SOL     OW 7507   6.368  11.353   2.968  0.2138  0.0067 -0.2830
32398SOL    HW1 7508   6.407  11.418   3.026  0.0818 -0.0692 -0.1101
32398SOL    HW2 7509   6.422  11.275   2.979  1.1491  0.4559 -1.4284
32399SOL     OW 7510  10.653  11.774   5.161 -0.3865  0.2523  0.5221
32399SOL    HW1 7511  10.564  11.809   5.165 -0.4020  0.2011  0.6382
32399SOL    HW2 7512  10.659  11.714   5.236 -1.1305 -1.8531 -1.0290
32400SOL     OW 7513   7.432   8.778   4.273 -1.0276  0.3478 -0.0684
32400SOL    HW1 7514   7.385   8.699   4.300  0.2726 -1.2418 -2.1432
32400SOL    HW2 7515   7.523   8.760   4.293 -0.7563  1.5583 -0.1403
32401SOL     OW 7516   7.902   3.583   7.064  0.1377 -0.5809  0.3614
32401SOL    HW1 7517   7.884   3.584   6.970 -0.2739 -1.2219  0.4271
32401SOL    HW2 7518   7.899   3.675   7.090  0.3462 -0.3888 -0.2678
32402SOL     OW 7519   1.322   4.432   4.776  0.0963  0.4181  0.0113
32402SOL    HW1 7520   1.361   4.492   4.840 -0.3188 -0.9509  1.6124
32402SOL    HW2 7521   1.396   4.379   4.744 -0.0326 -0.4420  1.1076
32403SOL     OW 7522   9.783  11.833   4.167 -0.2776 -0.0556 -0.0973
32403SOL    HW1 7523   9.824  11.912   4.202 -1.9960  0.7649  0.1575
32403SOL    HW2 7524   9.767  11.778   4.243  3.5729 -2.1198 -0.4914
32404SOL     OW 7525   5.376   3.386   8.355  0.2838  0.1419  0.4941
32404SOL    HW1 7526   5.343   3.474   8.336  1.1485  0.2654 -0.5515
32404SOL    HW2 7527   5.466   3.386   8.322  0.1059 -1.3065 -0.0862
32405SOL     OW 7528  11.994  12.819   1.923 -0.0024 -0.2678  0.4719
32405SOL    HW1 7529  12.042  12.740   1.949 -1.8621 -1.9119 -0.8216
32405SOL    HW2 7530  12.032  12.888   1.977  2.2036 -1.8769  1.1422
32406SOL     OW 7531  11.115   3.053   2.835 -0.3821 -0.4180 -0.9460
32406SOL    HW1 7532  11.155   3.135   2.864 -0.9299 -0.3253 -0.4218
32406SOL    HW2 7533  11.171   2.984   2.873  0.6091 -0.3106 -2.1413
32407SOL     OW 7534   4.887   4.341   2.231 -0.0704 -0.3362  0.3316
32407SOL    HW1 7535   4.900   4.284   2.306 -2.7511 -1.1995  0.2340
32407SOL    HW2 7536   4.940   4.302   2.161 -2.1984 -3.1473  0.1091
32408SOL     OW 7537   0.758   8.604   2.926  0.1607  0.1041  0.1983
32408SOL    HW1 7538   0.731   8.515   2.950  0.6164 -0.3167 -0.7712
32408SOL    HW2 7539   0.840   8.592   2.878  1.1314  1.2047  1.5249
32409SOL     OW 7540  10.233   0.910   6.555  0.1300 -0.1827 -0.1472
32409SOL    HW1 7541  10.297   0.910   6.484 -0.2914  2.2925 -0.6370
32409SOL    HW2 7542  10.242   0.998   6.594 -0.8883 -0.8524  1.7229
32410SOL     OW 7543   2.649   9.563   8.967  0.0699  0.4791  0.3266
32410SOL    HW1 7544   2.592   9.632   8.934 -1.4321 -0.3746  1.0129
32410SOL    HW2 7545   2.616   9.483   8.925  1.7896  0.1620 -0.4809
32411SOL     OW 7546  11.614   7.478   6.772 -0.3614  0.1016  0.3712
32411SOL    HW1 7547  11.609   7.553   6.714  0.4449 -1.3611 -1.7080
32411SOL    HW2 7548  11.533   7.480   6.822 -0.9361  1.5926 -0.5813
32412SOL     OW 7549   4.678   3.904   0.988  0.1522 -0.0154 -0.2581
32412SOL    HW1 7550   4.763   3.945   1.004  0.7778 -1.1069 -0.7256
32412SOL    HW2 7551   4.621   3.977   0.965  0.9035  0.7559  0.2428
32413SOL     OW 7552   1.794   5.961   9.328 -0.0057  0.2784 -0.4277
32413SOL    HW1 7553   1.786   5.893   9.262 -0.2640 -1.0620  0.9238
32413SOL    HW2 7554   1.886   5.960   9.353 -0.1082  0.0727 -0.0528
32414SOL     OW 7555   6.753   1.627   0.699 -0.4804 -0.1636  0.6476
32414SOL    HW1 7556   6.717   1.668   0.778 -1.5884  0.8657 -0.3382
32414SOL    HW2 7557   6.777   1.539   0.726 -2.2396 -0.3361  1.7974
32415SOL     OW 7558   7.508   7.846   8.419 -0.1418 -0.5059  0.1378
32415SOL    HW1 7559   7.537   7.829   8.329 -1.8458 -0.2604 -0.4951
32415SOL    HW2 7560   7.436   7.907   8.410  0.5963  0.6926  1.8139
32416SOL     OW 7561   9.303  11.313   7.540 -0.3260  0.2592  0.2803
32416SOL    HW1 7562   9.273  11.257   7.468  3.3023 -0.4566 -0.9177
32416SOL    HW2 7563   9.284  11.262   7.619 -1.7792 -0.2642 -0.3641
32417SOL     OW 7564   7.224   3.183   4.103  0.1455 -0.1891  0.7105
32417SOL    HW1 7565   7.275   3.141   4.173 -0.7129  0.0045  1.4765
32417SOL    HW2 7566   7.134   3.180   4.135 -0.6015 -2.0022 -1.3084
32418SOL     OW 7567   7.017   8.211   7.143 -0.0294  0.0908  0.2238
32418SOL    HW1 7568   6.946   8.233   7.203 -0.3089 -1.3523  0.4744
32418SOL    HW2 7569   6.973   8.184   7.063  0.2479 -0.3240  0.2061
32419SOL     OW 7570   6.951  12.710   3.459 -0.3345 -0.8974 -0.4714
32419SOL    HW1 7571   6.927  12.701   3.551  0.3127 -1.3807 -0.3420
32419SOL    HW2 7572   6.974  12.802   3.449 -1.7969 -0.5101 -0.5080
32420SOL     OW 7573   2.810   9.928   4.480  0.6787 -0.5698  0.0817
32420SOL    HW1 7574   2.819   9.969   4.566 -0.6581 -0.4614  0.1888
32420SOL    HW2 7575   2.790  10.000   4.421  0.1619 -0.8240 -0.0606
32421SOL     OW 7576   5.009   9.097   1.509  0.4996  0.2476 -0.1327
32421SOL    HW1 7577   4.986   9.042   1.584 -0.0832 -1.1676 -1.2904
32421SOL    HW2 7578   5.027   9.183   1.546  3.4687 -1.1389  2.0354
32422SOL     OW 7579   9.292   6.236   8.489 -0.2194  0.5026 -0.4749
32422SOL    HW1 7580   9.276   6.326   8.461 -0.2737  1.1041  1.3578
32422SOL    HW2 7581   9.211   6.190   8.468 -0.6988  1.2090 -0.2040
32423SOL     OW 7582   0.079  10.110  11.335 -0.0701 -0.0159  0.1059
32423SOL    HW1 7583   0.133  10.171  11.384  0.2616 -0.0092 -0.2602
32423SOL    HW2 7584   0.126  10.098  11.252 -0.5991 -0.0562 -0.1928
32424SOL     OW 7585  10.503   0.269   0.648  0.0406 -0.2083  0.2307
32424SOL    HW1 7586  10.511   0.288   0.554 -1.3711 -0.7820 -0.0181
32424SOL    HW2 7587  10.447   0.192   0.653 -1.0047  0.5933  1.5978
32425SOL     OW 7588   9.505  12.512   9.682 -0.6181  0.2757 -0.3354
32425SOL    HW1 7589   9.411  12.497   9.690 -0.5716  0.1303 -0.0090
32425SOL    HW2 7590   9.542  12.426   9.663 -0.3885  0.0053  1.1582
32426SOL     OW 7591  12.420   9.022  10.978 -0.0149 -0.0659  0.0245
32426SOL    HW1 7592  12.439   9.111  10.947 -2.3429  0.7901  0.8426
32426SOL    HW2 7593  12.378   8.979  10.903  1.6248 -0.7427 -0.5665
32427SOL     OW 7594   0.446   3.143   1.617 -0.7207  0.1128  0.3846
32427SOL    HW1 7595   0.467   3.052   1.638  1.1732  0.4159 -0.0060
32427SOL    HW2 7596   0.445   3.188   1.701 -0.1268 -0.0028  0.4617
32428SOL     OW 7597  10.654   5.209   1.021  0.2749  0.0394  0.3842
32428SOL    HW1 7598  10.726   5.266   1.047  0.5946 -0.4081  0.5089
32428SOL    HW2 7599  10.652   5.141   1.088  0.1042 -0.2696  0.0725
32429SOL     OW 7600   7.104   0.088   5.651  0.2962 -0.0821  0.2520
32429SOL    HW1 7601   7.056   0.155   5.699  1.8163  1.2649 -0.0041
32429SOL    HW2 7602   7.041   0.053   5.589 -0.2040  2.1435 -0.5931
32430SOL     OW 7603   0.925   3.669   8.621  0.6275  1.0470 -0.6000
32430SOL    HW1 7604   0.875   3.588   8.633 -0.2364  0.9801 -3.7940
32430SOL    HW2 7605   0.871   3.737   8.661 -0.8958  0.6094 -1.7876
32431SOL     OW 7606   8.860   6.928   8.510 -0.8496 -0.3067 -0.2863
32431SOL    HW1 7607   8.830   6.997   8.451 -0.7118 -0.6750 -0.7963
32431SOL    HW2 7608   8.932   6.967   8.559 -0.8060 -0.0720 -0.5365
32432SOL     OW 7609   5.111   1.869   1.434  0.1128  0.0279 -0.3153
32432SOL    HW1 7610   5.105   1.957   1.397  1.6428  0.6684  0.8675
32432SOL    HW2 7611   5.117   1.883   1.529 -3.1380 -1.5258  0.2745
32433SOL     OW 7612   2.685   2.409   6.675  0.3873 -0.2616 -0.0659
32433SOL    HW1 7613   2.610   2.371   6.721  1.5631 -1.2694  1.0907
32433SOL    HW2 7614   2.651   2.490   6.637 -1.7144 -1.5141 -1.0411
32434SOL     OW 7615  10.525   7.269   5.425  0.2556 -0.0317 -0.1379
32434SOL    HW1 7616  10.555   7.296   5.338  0.4902  0.6704  0.1608
32434SOL    HW2 7617  10.604   7.246   5.472  0.1292 -0.3877 -0.0947
32435SOL     OW 7618  11.183   8.773   6.721  0.1249 -0.1707  0.4896
32435SOL    HW1 7619  11.215   8.687   6.746  1.3215  0.7226  2.2005
32435SOL    HW2 7620  11.123   8.798   6.791 -2.6221 -0.7820 -1.4560
32436SOL     OW 7621  10.899   9.326   3.472  0.1408  0.0848  0.4108
32436SOL    HW1 7622  10.910   9.404   3.418 -0.2050  0.9520  1.5421
32436SOL    HW2 7623  10.828   9.277   3.431 -0.5010  1.0145  0.3929
32437SOL     OW 7624   4.283   2.106  10.786  0.2761  0.0565  0.3790
32437SOL    HW1 7625   4.314   2.030  10.737  2.5550  1.3984 -0.3997
32437SOL    HW2 7626   4.319   2.181  10.740 -3.0970  1.7841  0.2782
32438SOL     OW 7627   4.182   4.597   0.255  0.5103  0.7697  0.0791
32438SOL    HW1 7628   4.253   4.590   0.192 -0.1577 -1.9646 -0.5121
32438SOL    HW2 7629   4.219   4.565   0.337  0.6873  1.9526  0.4748
32439SOL     OW 7630   8.375   5.581   5.634 -0.1407 -0.4394 -0.2659
32439SOL    HW1 7631   8.354   5.553   5.723  0.6762 -0.8718 -0.1985
32439SOL    HW2 7632   8.457   5.628   5.643  0.2353 -0.9748 -0.8688
32440SOL     OW 7633   1.137   3.485   8.467  0.1706  0.3825 -0.0087
32440SOL    HW1 7634   1.069   3.435   8.421 -0.1910 -0.3794  1.2906
32440SOL    HW2 7635   1.091   3.523   8.542  0.9479  0.7796  0.2729
32441SOL     OW 7636  10.490   8.730   1.043  0.5236 -0.5786 -0.1699
32441SOL    HW1 7637  10.519   8.678   0.967 -0.9028 -0.4983 -0.7900
32441SOL    HW2 7638  10.457   8.811   1.005  0.7460 -0.1075  0.6323
32442SOL     OW 7639   2.062   7.631   9.279 -0.2585  0.2232 -0.1468
32442SOL    HW1 7640   2.118   7.554   9.289 -0.9815 -0.4082 -0.7510
32442SOL    HW2 7641   1.981   7.596   9.243 -0.7748  1.2171  0.0191
32443SOL     OW 7642   9.330   6.686   4.227  0.2117 -0.8708  0.1149
32443SOL    HW1 7643   9.318   6.659   4.136 -0.6580  0.8895 -0.3326
32443SOL    HW2 7644   9.406   6.744   4.225 -2.5225  3.0258 -0.4572
32444SOL     OW 7645   9.946  11.430   8.862  0.4142 -0.1422 -0.1966
32444SOL    HW1 7646   9.963  11.521   8.836  0.5275 -0.2179 -0.3875
32444SOL    HW2 7647  10.025  11.383   8.837 -0.2215 -0.5742 -1.4726
32445SOL     OW 7648   6.119   4.646   3.644 -0.8940 -0.2443 -0.8197
32445SOL    HW1 7649   6.185   4.601   3.696 -1.5179 -0.5199 -0.2655
32445SOL    HW2 7650   6.150   4.637   3.554  0.1814  0.2220 -0.5125
32446SOL     OW 7651   1.034   4.781   6.344  0.7712  0.2179 -0.1691
32446SOL    HW1 7652   1.124   4.751   6.333  1.1319  0.6304  1.4743
32446SOL    HW2 7653   0.985   4.735   6.275  1.7841 -1.9569  0.4789
32447SOL     OW 7654  11.731   6.896   0.721 -0.1436  0.2207 -0.7946
32447SOL    HW1 7655  11.780   6.815   0.730  0.5385  0.8257  1.4264
32447SOL    HW2 7656  11.647   6.869   0.684  0.5153 -1.3132 -1.2381
32448SOL     OW 7657   5.789   9.709   4.940 -0.1839  0.0083 -0.1091
32448SOL    HW1 7658   5.808   9.779   4.878  2.3384 -1.4159 -1.0884
32448SOL    HW2 7659   5.755   9.638   4.887  1.0782 -0.8847  0.2327
32449SOL     OW 7660   4.582   2.570   0.050  0.2775 -0.3572 -0.1127
32449SOL    HW1 7661   4.569   2.570   0.145  0.2235 -0.5820 -0.1190
32449SOL    HW2 7662   4.507   2.617   0.015  0.2643 -0.3310 -0.0484
32450SOL     OW 7663   6.470   0.199   9.138 -0.1046 -0.0179  0.6878
32450SOL    HW1 7664   6.499   0.264   9.202  0.1751 -1.2857  1.8997
32450SOL    HW2 7665   6.398   0.241   9.092  1.0032  1.6972  0.4042
32451SOL     OW 7666  12.648   9.851  11.963  0.2323  0.3758 -0.3239
32451SOL    HW1 7667  12.590   9.775  11.969  1.2242 -0.3003  1.8329
32451SOL    HW2 7668  12.590   9.926  11.970 -0.6412 -0.1972 -1.1948
32452SOL     OW 7669   1.461  10.521   4.441 -0.5006 -0.2946  0.1520
32452SOL    HW1 7670   1.483  10.444   4.493 -2.9269 -0.2865  1.2901
32452SOL    HW2 7671   1.448  10.591   4.505  2.4927  1.4366 -0.8778
32453SOL     OW 7672   0.627  10.739   4.007  0.3516  0.0952  0.3707
32453SOL    HW1 7673   0.577  10.821   3.999  1.6371  1.1220  2.1730
32453SOL    HW2 7674   0.671  10.747   4.091  1.1642 -2.1253  0.1954
32454SOL     OW 7675   8.168  11.147   3.426  0.5829 -0.2289  0.7242
32454SOL    HW1 7676   8.111  11.070   3.426  0.7696 -0.3989 -0.8277
32454SOL    HW2 7677   8.111  11.218   3.398  0.7785 -0.1073  0.6343
32455SOL     OW 7678  11.607   6.501   3.384 -0.3750  0.0166 -0.2818
32455SOL    HW1 7679  11.575   6.414   3.361  0.1235  0.1381 -1.5541
32455SOL    HW2 7680  11.635   6.538   3.300 -1.2912  1.6990  0.1120
32456SOL     OW 7681   5.209   9.565   4.206  0.2753  0.3826 -0.0278
32456SOL    HW1 7682   5.198   9.512   4.286  0.5502 -0.3851 -0.4838
32456SOL    HW2 7683   5.188   9.654   4.233 -0.5570 -0.0146  0.6816
32457SOL     OW 7684  12.073   7.236   9.740 -0.2594 -0.9782  0.1202
32457SOL    HW1 7685  11.990   7.192   9.723 -1.0534  0.6034 -0.3421
32457SOL    HW2 7686  12.055   7.328   9.722  1.2748 -0.4225  1.2139
32458SOL     OW 7687   0.994   5.974   5.180  0.4801  0.1063  0.1221
32458SOL    HW1 7688   0.923   5.922   5.218  0.0071 -0.1211 -1.0394
32458SOL    HW2 7689   0.983   6.061   5.219  0.2752 -0.2265  0.8257
32459SOL     OW 7690  12.101   2.289   1.137 -0.0577  0.2268  0.6512
32459SOL    HW1 7691  12.057   2.362   1.181  0.0641  0.3373  0.5913
32459SOL    HW2 7692  12.168   2.331   1.083 -0.7919  0.1522 -0.3442
32460SOL     OW 7693   7.376   3.738   5.931  0.1971 -0.3133  0.2223
32460SOL    HW1 7694   7.306   3.685   5.894 -0.4993  0.1041  0.9333
32460SOL    HW2 7695   7.353   3.748   6.023  1.0684  0.0296  0.4136
32461SOL     OW 7696  11.002   7.443   9.971 -0.2897  0.0610 -1.0493
32461SOL    HW1 7697  10.999   7.427  10.065 -0.6044 -0.2840 -1.1167
32461SOL    HW2 7698  10.943   7.378   9.933 -1.6744  1.3914 -1.3215
32462SOL     OW 7699  10.221  12.026   8.869  0.3323  0.0128  0.1705
32462SOL    HW1 7700  10.215  12.100   8.929 -0.2197 -0.6109  0.9062
32462SOL    HW2 7701  10.175  12.055   8.790  0.5520  0.6306  0.2710
32463SOL     OW 7702  10.900   1.970   3.722  0.4491  0.5289 -0.7320
32463SOL    HW1 7703  10.819   2.011   3.691  0.6025  0.3594 -1.3572
32463SOL    HW2 7704  10.905   1.996   3.814 -1.6296 -1.5245  0.0526
32464SOL     OW 7705  11.139   7.107   8.701  0.8783  0.2262  0.1611
32464SOL    HW1 7706  11.068   7.048   8.726  1.4940 -0.1425  1.1260
32464SOL    HW2 7707  11.162   7.153   8.782  0.5352  1.6747 -0.5356
32465SOL     OW 7708   2.678  10.987   5.421  0.2985 -0.2875 -0.5061
32465SOL    HW1 7709   2.768  10.972   5.395  0.6340 -0.9011  0.9091
32465SOL    HW2 7710   2.667  11.082   5.418  1.0172 -0.2041 -0.5877
32466SOL     OW 7711   2.961   0.746   5.055 -0.4236 -0.1819 -0.2341
32466SOL    HW1 7712   2.946   0.658   5.091  2.0927 -0.9181 -0.7447
32466SOL    HW2 7713   2.906   0.803   5.108 -0.4135 -1.8012  1.6667
32467SOL     OW 7714   3.482   9.366   5.391  0.1774  0.1041 -0.4448
32467SOL    HW1 7715   3.559   9.414   5.361  0.9250 -0.6188  0.2741
32467SOL    HW2 7716   3.411   9.429   5.385  0.4909  0.3168 -2.6503
32468SOL     OW 7717   8.067   1.809   4.927 -0.3934  0.7199  0.2876
32468SOL    HW1 7718   8.128   1.876   4.958 -1.7910  2.0965  0.1775
32468SOL    HW2 7719   8.025   1.848   4.850 -1.0939 -0.3826  0.0816
32469SOL     OW 7720  11.501   1.958   9.380 -0.2904 -0.0030 -0.0268
32469SOL    HW1 7721  11.497   1.976   9.474 -1.6245 -0.6591  0.0715
32469SOL    HW2 7722  11.570   2.015   9.347  0.8530 -0.4382  1.4976
32470SOL     OW 7723   2.348   0.536   3.158  0.2200  0.1997 -0.4457
32470SOL    HW1 7724   2.417   0.473   3.138  0.4131 -0.0921  1.0243
32470SOL    HW2 7725   2.271   0.504   3.111 -0.1628 -2.1577  1.5416
32471SOL     OW 7726   5.526   9.964   1.163  0.6056  0.2858  0.0045
32471SOL    HW1 7727   5.458   9.996   1.103  0.8975  0.8195 -0.0450
32471SOL    HW2 7728   5.515   9.869   1.162  0.9423  0.2355 -1.3220
32472SOL     OW 7729   8.645   9.917   6.656 -0.1445 -0.3251  0.3126
32472SOL    HW1 7730   8.573   9.917   6.593  1.7086  0.5203 -1.9576
32472SOL    HW2 7731   8.714   9.865   6.614  1.3741  0.7296  1.3873
32473SOL     OW 7732   3.771  12.305   6.028  0.0392 -0.4132  0.3037
32473SOL    HW1 7733   3.790  12.391   5.992  0.2335 -0.6664 -0.2180
32473SOL    HW2 7734   3.679  12.289   6.004 -0.7714  0.6494  2.4889
32474SOL     OW 7735  12.058   1.787   0.975  0.2563 -0.4463 -0.0315
32474SOL    HW1 7736  12.103   1.862   1.015  2.2869 -1.9554  0.6585
32474SOL    HW2 7737  11.982   1.773   1.031 -0.6706  1.5887 -0.6789
32475SOL     OW 7738  10.627   7.259   0.077 -0.6575  0.2146 -0.0148
32475SOL    HW1 7739  10.715   7.287   0.051 -0.6513 -0.4965 -0.8201
32475SOL    HW2 7740  10.602   7.319   0.146  1.0341 -0.4575  1.2415
32476SOL     OW 7741   4.785   1.332  10.168  0.1726  0.3459 -0.1864
32476SOL    HW1 7742   4.783   1.254  10.112  2.8332 -1.6988  2.2321
32476SOL    HW2 7743   4.861   1.382  10.137  1.3035 -0.4982  1.1324
32477SOL     OW 7744   5.417   8.955   6.211 -0.4892  0.1320  1.1924
32477SOL    HW1 7745   5.345   9.009   6.179 -0.9220 -1.1515 -0.1037
32477SOL    HW2 7746   5.496   8.994   6.173 -0.9142 -0.8280 -0.7937
32478SOL     OW 7747   0.966   0.824   4.220  0.1624 -0.0452  0.5282
32478SOL    HW1 7748   1.034   0.826   4.153 -1.2260  2.0130 -0.9658
32478SOL    HW2 7749   0.999   0.764   4.286  3.0230  0.2131 -0.5122
32479SOL     OW 7750   2.966   4.045   6.427 -0.6298 -0.5963  0.4712
32479SOL    HW1 7751   2.888   4.055   6.481 -1.3275  0.0709 -0.6096
32479SOL    HW2 7752   2.983   4.133   6.393  1.2693 -0.5039  1.5564
32480SOL     OW 7753  10.337   9.700   1.127  0.5046 -0.2598  0.0338
32480SOL    HW1 7754  10.372   9.655   1.204  0.2546 -2.7330 -1.1742
32480SOL    HW2 7755  10.413   9.739   1.085  0.7229  0.5937  1.1941
32481SOL     OW 7756   0.047   1.384   4.791 -0.6107  0.1049 -0.0705
32481SOL    HW1 7757   0.020   1.315   4.852 -0.8798 -0.7916 -1.1816
32481SOL    HW2 7758   0.052   1.340   4.706  0.0124  1.2769 -0.6548
32482SOL     OW 7759   4.232   8.134   0.742 -0.3943  0.1168 -0.1418
32482SOL    HW1 7760   4.187   8.196   0.684 -0.8035  0.1319  0.1909
32482SOL    HW2 7761   4.281   8.190   0.803 -1.9499  0.1658  1.1185
32483SOL     OW 7762   6.038   2.849   3.750 -0.7891 -0.4260  0.2752
32483SOL    HW1 7763   5.954   2.894   3.750 -0.5518  0.0208  0.9214
32483SOL    HW2 7764   6.061   2.842   3.842 -0.0129 -0.3570  0.0869
32484SOL     OW 7765   8.612   5.700   5.684 -0.2605 -0.0280 -0.1297
32484SOL    HW1 7766   8.654   5.752   5.615 -0.9184  0.5760 -0.0866
32484SOL    HW2 7767   8.636   5.744   5.765  1.8480 -1.6419  0.2233
32485SOL     OW 7768   9.313   2.819   7.952 -0.5372 -0.1798  0.6689
32485SOL    HW1 7769   9.231   2.821   8.001 -1.1886 -0.6731 -0.3641
32485SOL    HW2 7770   9.286   2.820   7.860  0.6437  0.5765  0.3069
32486SOL     OW 7771  12.321   2.360   4.568  0.3491 -0.4083 -0.4656
32486SOL    HW1 7772  12.412   2.382   4.549  0.6628 -0.0030  1.3154
32486SOL    HW2 7773  12.270   2.413   4.508  1.2742 -0.6080 -1.4547
32487SOL     OW 7774   3.570  10.396  12.582 -1.0950  0.0745 -0.0058
32487SOL    HW1 7775   3.627  10.343  12.526 -0.7320  1.3750 -0.9150
32487SOL    HW2 7776   3.630  10.452  12.631 -1.5021  0.1234  0.4403
32488SOL     OW 7777   7.284  11.550   7.691 -0.1393 -0.1617  0.2445
32488SOL    HW1 7778   7.349  11.480   7.689 -0.1231 -0.2023  1.5076
32488SOL    HW2 7779   7.267  11.565   7.784 -1.8867 -0.1013 -0.0414
32489SOL     OW 7780  11.360  12.363  12.420  0.0614 -0.1977  0.1554
32489SOL    HW1 7781  11.392  12.285  12.465 -0.4700 -0.6284 -0.1911
32489SOL    HW2 7782  11.398  12.358  12.332 -1.6162 -1.2098 -0.5754
32490SOL     OW 7783   4.969   7.456  12.420 -0.2910 -0.0037 -0.0630
32490SOL    HW1 7784   5.056   7.448  12.460  0.8613  1.2415 -2.1501
32490SOL    HW2 7785   4.986   7.455  12.326 -2.2410  2.7682 -0.5601
32491SOL     OW 7786   0.422  12.911   9.114 -0.2684 -0.5777  0.5112
32491SOL    HW1 7787   0.469  12.892   9.033 -0.2919 -0.5135  0.4827
32491SOL    HW2 7788   0.468  12.986   9.151 -1.0078  0.1778 -0.0559
32492SOL     OW 7789   8.260   5.068   0.804 -0.3371 -0.5129  0.2477
32492SOL    HW1 7790   8.166   5.074   0.820 -0.3120 -0.9281  0.5506
32492SOL    HW2 7791   8.267   5.045   0.711 -0.4663  3.5994 -1.0229
32493SOL     OW 7792  11.445   1.922   7.586 -0.3560  0.1724 -0.4856
32493SOL    HW1 7793  11.398   1.898   7.506 -1.6849 -2.4758  0.9508
32493SOL    HW2 7794  11.475   1.839   7.622  0.1842  1.2707  1.7841
32494SOL     OW 7795   1.344   0.949   7.340  0.3474 -0.1906  0.3745
32494SOL    HW1 7796   1.428   0.992   7.358  0.1901  0.7459 -1.0515
32494SOL    HW2 7797   1.281   0.994   7.396  0.5625 -0.0667  0.5183
32495SOL     OW 7798   7.378   1.502   9.886  0.0179 -0.5022  0.3706
32495SOL    HW1 7799   7.373   1.417   9.843  1.1221 -0.8660  0.9237
32495SOL    HW2 7800   7.295   1.509   9.934 -0.6726 -0.6412 -0.7680
32496SOL     OW 7801   9.487   6.607   3.267 -0.1272  0.4640 -0.1893
32496SOL    HW1 7802   9.448   6.542   3.325  1.3333  0.5621  0.9766
32496SOL    HW2 7803   9.442   6.596   3.184  0.1731 -2.1718 -0.0888
32497SOL     OW 7804   2.038   5.139   6.811  0.1651  0.1778  0.3875
32497SOL    HW1 7805   2.012   5.174   6.896  0.8865  1.6514  0.0396
32497SOL    HW2 7806   2.130   5.163   6.803  0.9133 -2.3978  0.3694
32498SOL     OW 7807  12.510   5.397   4.550 -0.6717  0.1338  0.0971
32498SOL    HW1 7808  12.454   5.367   4.479 -0.2112 -1.1590  0.2504
32498SOL    HW2 7809  12.582   5.442   4.506 -0.1895 -0.9909 -0.2986
32499SOL     OW 7810  12.859   4.907   7.192 -0.3659  0.1008 -0.5567
32499SOL    HW1 7811  12.823   4.843   7.254  0.9552  0.2835  0.4567
32499SOL    HW2 7812  12.783   4.957   7.162 -1.4032 -1.7424 -1.1810
32500SOL     OW 7813   6.189   8.134   8.828  0.2025  0.0133  0.0912
32500SOL    HW1 7814   6.155   8.142   8.917 -0.3655  0.9453 -0.2007
32500SOL    HW2 7815   6.236   8.216   8.812  2.6094 -1.2145  0.4619
32501SOL     OW 7816   7.762   3.751   0.429  0.0312 -0.5047 -0.2287
32501SOL    HW1 7817   7.836   3.691   0.437  0.6757  0.4596  1.7649
32501SOL    HW2 7818   7.719   3.748   0.514 -1.5909 -0.1924 -0.9902
32502SOL     OW 7819   0.508   4.475  11.067  0.1540 -0.5142  0.2359
32502SOL    HW1 7820   0.443   4.545  11.076  0.6651 -0.1673  1.5341
32502SOL    HW2 7821   0.587   4.521  11.036  0.0211 -0.7930 -0.5190
32503SOL     OW 7822  10.080  12.013   3.728 -0.3213  0.4715 -0.5431
32503SOL    HW1 7823  10.056  11.974   3.812 -1.3197 -0.0775 -1.0594
32503SOL    HW2 7824   9.997  12.043   3.691  0.1366  0.9150 -1.2240
32504SOL     OW 7825   4.277   5.006   2.190 -0.3854  0.1050  0.0356
32504SOL    HW1 7826   4.290   5.019   2.284 -2.2185  0.1096  0.3178
32504SOL    HW2 7827   4.187   5.035   2.174 -0.1244  0.0349 -1.7130
32505SOL     OW 7828   5.493   2.389   3.107 -0.2742 -0.5565 -0.3984
32505SOL    HW1 7829   5.521   2.449   3.176 -0.0525  0.0468 -1.0026
32505SOL    HW2 7830   5.571   2.375   3.054 -0.1742 -1.8403  0.0565
32506SOL     OW 7831   0.042   9.930   5.883 -0.0395  0.1533  0.6701
32506SOL    HW1 7832   0.074   9.929   5.792 -0.3066  0.9306  0.5614
32506SOL    HW2 7833  -0.047   9.965   5.877  0.2243  0.9609  1.3151
32507SOL     OW 7834   1.107   5.931   0.795 -0.2513 -0.1167 -0.3119
32507SOL    HW1 7835   1.166   6.005   0.788 -0.1847 -0.1494 -0.1139
32507SOL    HW2 7836   1.153   5.859   0.751  0.4343 -0.4833  0.9540
32508SOL     OW 7837   2.404  10.440   6.422 -0.1037  0.4726  0.3107
32508SOL    HW1 7838   2.471  10.477   6.480  0.4834  1.9400 -1.2173
32508SOL    HW2 7839   2.328  10.497   6.435 -1.4517 -1.6229  2.6029
32509SOL     OW 7840   4.068   4.961   8.166 -0.3297 -0.5067 -0.0118
32509SOL    HW1 7841   4.001   4.995   8.226 -2.2018 -1.2920 -1.5760
32509SOL    HW2 7842   4.132   5.033   8.159  0.4028 -0.6412  3.4328
32510SOL     OW 7843  10.570   9.583   9.814  0.1963 -0.4247  0.4942
32510SOL    HW1 7844  10.590   9.563   9.722  0.3775 -0.6245  0.5758
32510SOL    HW2 7845  10.656   9.591   9.855  0.2922  2.9545 -0.0115
32511SOL     OW 7846  11.261   5.298   0.428 -0.2730  0.0065 -0.0203
32511SOL    HW1 7847  11.219   5.339   0.352  0.0849 -2.7455 -1.8451
32511SOL    HW2 7848  11.191   5.247   0.469 -0.1028  0.2865  0.6308
32512SOL     OW 7849  10.937   6.957  12.133 -0.2558 -0.5167  0.0062
32512SOL    HW1 7850  10.847   6.967  12.105 -1.4243  0.7628  3.6131
32512SOL    HW2 7851  10.961   7.044  12.166  2.7339 -0.5296 -1.7562
32513SOL     OW 7852   8.226   6.862   8.016 -0.4087 -0.0539 -0.3802
32513SOL    HW1 7853   8.299   6.919   7.992 -2.0308  1.5549 -1.8450
32513SOL    HW2 7854   8.251   6.776   7.984  2.2924 -0.4121  2.2280
32514SOL     OW 7855  10.764   9.455   9.367 -0.3869  0.0065 -0.1280
32514SOL    HW1 7856  10.859   9.450   9.359 -0.3774  0.5775 -0.4596
32514SOL    HW2 7857  10.731   9.417   9.285 -0.4185  0.4648 -0.3376
32515SOL     OW 7858   2.155   5.162   0.760 -0.6686 -0.5018  0.6975
32515SOL    HW1 7859   2.248   5.168   0.737 -1.1715  1.1149 -1.1878
32515SOL    HW2 7860   2.133   5.070   0.743  0.5528 -0.9059  1.1527
32516SOL     OW 7861   8.505  11.257  10.690 -0.2597 -0.0335 -0.3246
32516SOL    HW1 7862   8.553  11.200  10.631 -1.2375 -1.2570  0.0097
32516SOL    HW2 7863   8.480  11.332  10.636  0.9934  0.0731 -0.7865
32517SOL     OW 7864   2.650  12.605   2.284 -0.6089 -0.1725 -0.0109
32517SOL    HW1 7865   2.642  12.655   2.202 -0.4530  0.2735  0.2396
32517SOL    HW2 7866   2.741  12.575   2.284 -0.5342  0.0488  0.1192
32518SOL     OW 7867  12.185   0.575  11.639  0.0818  0.5878  0.3087
32518SOL    HW1 7868  12.261   0.608  11.688  0.7997 -0.6174  0.0424
32518SOL    HW2 7869  12.210   0.583  11.547  0.7249 -1.6268  0.2431
32519SOL     OW 7870   7.921   3.600   8.062  0.6005  0.3328  0.0216
32519SOL    HW1 7871   7.848   3.541   8.042 -0.1127  1.1583  0.1539
32519SOL    HW2 7872   7.999   3.546   8.047  0.1216  0.3810 -3.5337
32520SOL     OW 7873   0.185   6.554  10.319 -0.2987 -0.4358 -0.1007
32520SOL    HW1 7874   0.259   6.575  10.375  1.2147 -1.6154 -1.5635
32520SOL    HW2 7875   0.193   6.613  10.244 -2.9726  1.9678  1.3043
32521SOL     OW 7876   6.103   3.037   6.103 -0.0997 -0.0768  0.0489
32521SOL    HW1 7877   6.038   3.026   6.034  3.2803 -2.2739 -3.1966
32521SOL    HW2 7878   6.122   2.948   6.133  0.5769  0.5934  1.7072
32522SOL     OW 7879   0.085  11.006  12.380 -0.2377  0.0989 -0.0722
32522SOL    HW1 7880   0.163  10.954  12.398 -2.2500 -2.3297  2.6587
32522SOL    HW2 7881   0.092  11.082  12.437  0.6715  0.6000 -0.8206
32523SOL     OW 7882   5.500   7.306   3.293  0.5574  0.2263  0.5212
32523SOL    HW1 7883   5.582   7.268   3.261 -0.4807 -2.3953  0.7617
32523SOL    HW2 7884   5.519   7.400   3.301  3.3749 -0.2244  0.1556
32524SOL     OW 7885  12.966   3.879   0.387 -0.2124 -0.2870 -0.3316
32524SOL    HW1 7886  12.918   3.801   0.415  0.9416 -0.8977  0.0147
32524SOL    HW2 7887  12.909   3.920   0.322 -2.0618  0.0985  1.4525
32525SOL     OW 7888   5.948  12.425   4.145 -0.1897  0.2204 -0.6488
32525SOL    HW1 7889   5.871  12.391   4.190  0.1131 -1.8650 -1.5874
32525SOL    HW2 7890   5.944  12.520   4.160 -1.8380 -0.0355  0.9688
32526SOL     OW 7891   3.076  10.781   4.089  0.5847 -0.1800 -0.2739
32526SOL    HW1 7892   3.043  10.796   4.000 -1.9180 -3.3480 -0.0832
32526SOL    HW2 7893   3.135  10.705   4.080  3.9023  2.1214  0.2626
32527SOL     OW 7894   8.761  11.398   0.707  0.6069  0.3817 -0.2212
32527SOL    HW1 7895   8.737  11.328   0.647 -0.7605  1.0809 -0.5341
32527SOL    HW2 7896   8.768  11.476   0.652  4.2029  0.2027 -0.2526
32528SOL     OW 7897   4.320  12.328   6.434  0.1842 -0.4482 -0.0345
32528SOL    HW1 7898   4.299  12.347   6.343  2.1239 -1.0129 -0.6373
32528SOL    HW2 7899   4.263  12.254   6.457 -0.9885  0.3005 -0.4619
32529SOL     OW 7900   5.736  10.723   1.620 -0.0841 -0.4946  0.3617
32529SOL    HW1 7901   5.660  10.749   1.671  1.2323  1.2192  1.5760
32529SOL    HW2 7902   5.808  10.721   1.683  0.9786 -1.6586 -0.8168
32530SOL     OW 7903   0.624  11.823   2.371  0.6847 -0.3080 -0.0293
32530SOL    HW1 7904   0.651  11.891   2.308 -0.0802  0.3140  0.2955
32530SOL    HW2 7905   0.599  11.872   2.449  0.1041 -0.9689  0.2047
32531SOL     OW 7906   4.138  11.454   9.294 -0.0026 -0.1302  0.0817
32531SOL    HW1 7907   4.124  11.364   9.322  0.0736 -0.4097 -0.7648
32531SOL    HW2 7908   4.050  11.487   9.274 -0.0253 -0.0296  0.3397
32532SOL     OW 7909   0.808   8.545  11.591  0.1044 -0.5703  0.4584
32532SOL    HW1 7910   0.875   8.606  11.622 -1.9733  1.3507  1.4049
32532SOL    HW2 7911   0.760   8.594  11.524 -0.9222 -1.5943  0.4186
32533SOL     OW 7912   9.037  11.776   6.193 -0.4391 -0.2032 -0.2043
32533SOL    HW1 7913   9.090  11.705   6.228 -0.3579 -0.0635 -0.0431
32533SOL    HW2 7914   9.090  11.814   6.124 -0.0829  0.3083  0.3431
32534SOL     OW 7915   5.531   4.742   2.624 -0.3204  0.1962  0.1752
32534SOL    HW1 7916   5.493   4.828   2.605  0.1397  0.5358  0.7471
32534SOL    HW2 7917   5.613   4.761   2.670 -1.4173 -0.5198  2.6433
32535SOL     OW 7918  11.583  11.517   5.676 -0.7745 -0.2648 -0.2184
32535SOL    HW1 7919  11.667  11.544   5.712 -0.2401 -1.0555 -0.8281
32535SOL    HW2 7920  11.530  11.494   5.752  0.2427 -1.6472  0.1097
32536SOL     OW 7921   3.483   2.167   5.590 -0.2929  0.1612  0.1906
32536SOL    HW1 7922   3.434   2.244   5.559  0.2960  0.6503  0.4501
32536SOL    HW2 7923   3.524   2.131   5.512  0.9492  1.2206  0.3165
32537SOL     OW 7924  10.496   5.553   0.085  0.0182  0.1295  0.9514
32537SOL    HW1 7925  10.405   5.561   0.057  0.5744  2.1624 -0.5567
32537SOL    HW2 7926  10.514   5.634   0.132  1.1192 -0.1113  0.9800
32538SOL     OW 7927  11.717   5.439   9.108  0.4108  0.7431 -0.2883
32538SOL    HW1 7928  11.751   5.377   9.044 -1.3463  1.0369 -1.5946
32538SOL    HW2 7929  11.794   5.485   9.141  1.6201 -1.2958 -0.1555
32539SOL     OW 7930   2.614   4.344   9.585 -0.0726  0.3675 -0.5977
32539SOL    HW1 7931   2.616   4.250   9.565 -0.3265  0.5941 -1.7776
32539SOL    HW2 7932   2.695   4.378   9.547 -1.0880  0.9958 -2.3039
32540SOL     OW 7933   0.355   7.416   8.175  0.0326 -0.1614 -0.3597
32540SOL    HW1 7934   0.319   7.501   8.196  1.4395  0.4468 -0.3244
32540SOL    HW2 7935   0.297   7.381   8.107 -2.5442 -0.6889  1.9774
32541SOL     OW 7936   8.117   0.424  12.165 -0.2490 -0.2078 -0.2524
32541SOL    HW1 7937   8.065   0.474  12.103  1.5062  0.0118 -1.6526
32541SOL    HW2 7938   8.116   0.335  12.131  0.6501 -0.1042 -0.5912
32542SOL     OW 7939   4.657  10.576  12.980 -0.2907 -0.0347  0.0575
32542SOL    HW1 7940   4.635  10.485  12.963  0.8280 -0.5508  1.1900
32542SOL    HW2 7941   4.650  10.619  12.894 -2.8474 -0.6937 -0.1441
32543SOL     OW 7942   8.844   4.066   5.289 -0.4150 -0.2165  0.4002
32543SOL    HW1 7943   8.900   4.102   5.358  1.0194 -0.1477 -0.7521
32543SOL    HW2 7944   8.810   3.984   5.325 -1.8201  1.0609  2.1645
32544SOL     OW 7945   5.563   2.554   0.949 -0.3126  0.1920  0.8859
32544SOL    HW1 7946   5.563   2.469   0.904 -2.0364  0.4161  0.3719
32544SOL    HW2 7947   5.623   2.608   0.899 -1.3462  0.0949 -0.5327
32545SOL     OW 7948   3.783   7.218   9.636 -0.0103 -0.1076  0.2373
32545SOL    HW1 7949   3.822   7.249   9.718 -2.3040  1.4581  0.8215
32545SOL    HW2 7950   3.828   7.135   9.619  1.2981  0.0416  2.4915
32546SOL     OW 7951   4.351   3.987   4.914 -0.2893 -0.0942 -0.2702
32546SOL    HW1 7952   4.446   3.992   4.911 -0.3708  1.2780 -0.8909
32546SOL    HW2 7953   4.324   3.987   4.823 -0.8298 -2.5859 -0.1866
32547SOL     OW 7954   7.760   9.528  11.454  0.5185 -0.2677  0.1259
32547SOL    HW1 7955   7.750   9.598  11.518  0.7774 -1.4786  1.5748
32547SOL    HW2 7956   7.841   9.484  11.479 -0.2712 -1.8536  0.0936
32548SOL     OW 7957   0.180  10.488   6.319  0.4851 -0.0924  0.3462
32548SOL    HW1 7958   0.265  10.529   6.300  1.1844 -1.5434  0.1856
32548SOL    HW2 7959   0.166  10.428   6.246 -0.3167 -0.4161  0.7565
32549SOL     OW 7960   3.464   7.559   7.692  0.1322  0.1900 -0.1748
32549SOL    HW1 7961   3.392   7.544   7.754 -0.4190  1.4485 -0.4786
32549SOL    HW2 7962   3.469   7.654   7.684 -0.7567  0.0663 -3.1564
32550SOL     OW 7963   2.830   7.730   0.384 -0.4962 -1.1714 -0.0109
32550SOL    HW1 7964   2.800   7.753   0.472 -1.4373 -2.3062 -0.0018
32550SOL    HW2 7965   2.796   7.801   0.328 -0.3917 -0.7474  0.4550
32551SOL     OW 7966  11.191   3.101   8.195 -0.1753 -0.1877 -0.1802
32551SOL    HW1 7967  11.236   3.186   8.192  0.9288 -0.7843 -0.9190
32551SOL    HW2 7968  11.258   3.037   8.172 -1.0640 -1.2480  0.1027
32552SOL     OW 7969   6.670   1.004  12.343 -0.0420 -0.5613 -0.2125
32552SOL    HW1 7970   6.607   0.943  12.380  0.3794 -0.5625  0.5222
32552SOL    HW2 7971   6.624   1.046  12.270 -0.9023 -0.5201  0.3432
32553SOL     OW 7972  11.438   1.219   5.221  0.4257 -0.0069 -0.2283
32553SOL    HW1 7973  11.372   1.171   5.272  0.0824  0.6146 -0.0720
32553SOL    HW2 7974  11.388   1.266   5.155  0.4153  2.3250  1.3365
32554SOL     OW 7975  10.656  12.051  11.247 -0.0330  0.3907 -0.0295
32554SOL    HW1 7976  10.604  12.065  11.326 -0.8689  0.8639 -0.6567
32554SOL    HW2 7977  10.744  12.082  11.271 -0.5489  1.6246  0.3417
32555SOL     OW 7978   6.435   2.300  10.534  0.1350 -0.2989  0.6434
32555SOL    HW1 7979   6.396   2.214  10.549 -0.2838  0.0091  1.3220
32555SOL    HW2 7980   6.521   2.280  10.497 -0.7945 -0.9766 -1.2900
32556SOL     OW 7981   3.540   5.843   6.589  0.1935 -0.0560  0.2914
32556SOL    HW1 7982   3.630   5.871   6.570  0.4901 -0.4650  1.0407
32556SOL    HW2 7983   3.486   5.897   6.532  0.9236  0.0749 -0.3057
32557SOL     OW 7984   1.062   2.401   9.791 -0.2522  0.0450 -0.0874
32557SOL    HW1 7985   1.025   2.402   9.703  0.0282  0.8883 -0.2063
32557SOL    HW2 7986   1.151   2.366   9.780 -0.2954 -0.0556 -0.1111
32558SOL     OW 7987  12.688   0.351   7.684 -0.6060  0.1330 -0.4808
32558SOL    HW1 7988  12.635   0.417   7.728 -0.8952  0.8934 -1.9139
32558SOL    HW2 7989  12.628   0.307   7.624  0.2049  0.4922 -1.5769
32559SOL     OW 7990   8.034   9.458   1.353 -0.1824 -0.2684 -0.4097
32559SOL    HW1 7991   8.055   9.469   1.260 -0.2079 -0.0513 -0.3915
32559SOL    HW2 7992   8.115   9.427   1.392  0.2155  0.8982 -0.2820
32560SOL     OW 7993   4.999   4.386   6.272  0.3586  0.0629 -0.5207
32560SOL    HW1 7994   4.997   4.321   6.201  0.6260 -0.5989  0.0560
32560SOL    HW2 7995   4.925   4.444   6.254 -0.3159 -0.8205 -0.6714
32561SOL     OW 7996   6.891   3.490   6.663 -0.2982 -0.6625 -0.0249
32561SOL    HW1 7997   6.814   3.540   6.690  2.2110  2.6275  1.6914
32561SOL    HW2 7998   6.905   3.429   6.736 -0.1881  0.1256  0.6362
32562SOL     OW 7999   1.080   3.633   8.849 -0.0052 -0.1798 -0.2090
32562SOL    HW1 8000   1.077   3.569   8.778 -0.9417 -0.7641  0.3284
32562SOL    HW2 8001   0.994   3.626   8.891  0.0623  1.0879  0.1679
32563SOL     OW 8002   7.797   7.509   1.972  0.2379  0.1983  0.5324
32563SOL    HW1 8003   7.757   7.446   2.032  1.5718 -0.9494  0.2818
32563SOL    HW2 8004   7.891   7.492   1.980  0.6028  1.8934  0.1290
32564SOL     OW 8005  11.234  11.768  12.376 -0.1322 -0.5720 -0.0896
32564SOL    HW1 8006  11.193  11.765  12.462 -1.0180  0.8329 -0.4220
32564SOL    HW2 8007  11.170  11.812  12.320  0.9134 -0.3521 -1.1741
32565SOL     OW 8008   1.738   8.920   0.771 -0.4914  0.4605  0.2855
32565SOL    HW1 8009   1.781   8.989   0.720  0.3575  0.7773  1.3897
32565SOL    HW2 8010   1.798   8.903   0.844 -1.0095 -0.9643  0.4205
32566SOL     OW 8011  11.730  10.826   9.490  0.6360  0.1488 -0.7472
32566SOL    HW1 8012  11.824  10.823   9.502  0.5374 -1.0724 -0.1271
32566SOL    HW2 8013  11.708  10.740   9.453 -0.5034 -0.5479  1.3987
32567SOL     OW 8014  11.549   7.122   8.377  0.5516  0.1249  0.3667
32567SOL    HW1 8015  11.474   7.174   8.348  1.2341  2.2257  2.0719
32567SOL    HW2 8016  11.609   7.123   8.303  0.7073  2.1781  0.4592
32568SOL     OW 8017   0.417   5.172   9.323  0.0736  0.4969 -0.0270
32568SOL    HW1 8018   0.350   5.241   9.321 -0.8399 -0.3629  0.1348
32568SOL    HW2 8019   0.486   5.207   9.379 -1.1450  0.6185  1.4618
32569SOL     OW 8020  10.834   0.299   2.734  0.5743  0.2331  0.2243
32569SOL    HW1 8021  10.755   0.257   2.699  0.6657  2.2925 -2.8494
32569SOL    HW2 8022  10.906   0.249   2.697  0.6846  0.5614 -0.0074
32570SOL     OW 8023   4.630   3.210   2.042  0.5351 -0.4505  0.4571
32570SOL    HW1 8024   4.721   3.237   2.045  0.2655  0.4804  0.5270
32570SOL    HW2 8025   4.601   3.213   2.134  0.0499  0.6566  0.2815
32571SOL     OW 8026   8.410  11.260   6.867 -0.2581  0.2777 -0.1696
32571SOL    HW1 8027   8.413  11.234   6.959 -1.4396  0.5584 -0.0395
32571SOL    HW2 8028   8.476  11.328   6.860 -1.9404  2.1528  1.1170
32572SOL     OW 8029   2.726   8.376   2.747  0.0256 -0.0639 -0.2646
32572SOL    HW1 8030   2.746   8.386   2.654 -0.7345 -0.5407 -0.4887
32572SOL    HW2 8031   2.642   8.330   2.748  0.4394 -0.8141  0.6617
32573SOL     OW 8032   7.053  11.624   9.881 -0.3916  0.4121  0.1514
32573SOL    HW1 8033   6.975  11.580   9.847 -0.8889  1.0519  0.4271
32573SOL    HW2 8034   7.119  11.612   9.813 -0.8489  0.1745 -0.2568
32574SOL     OW 8035   7.521  11.473   2.578  0.1567 -0.1581  0.2073
32574SOL    HW1 8036   7.513  11.479   2.673 -0.2609 -1.9936  0.3241
32574SOL    HW2 8037   7.535  11.379   2.561 -1.0609 -0.0595 -1.6198
32575SOL     OW 8038  10.395   0.439   8.072 -0.0264 -0.6000 -0.1488
32575SOL    HW1 8039  10.473   0.436   8.128 -0.0318  0.6701 -0.0452
32575SOL    HW2 8040  10.414   0.376   8.002  1.7192  0.6603 -0.8904
32576SOL     OW 8041   5.696   5.355   2.705  0.2385  0.4596  0.3454
32576SOL    HW1 8042   5.775   5.304   2.687  0.0252 -0.1530  1.1011
32576SOL    HW2 8043   5.728   5.437   2.743  0.5570  0.6833 -0.3934
32577SOL     OW 8044   6.577   4.176   1.821 -0.0962  0.4456  0.4079
32577SOL    HW1 8045   6.610   4.166   1.910  1.5164  1.3148 -0.0443
32577SOL    HW2 8046   6.495   4.128   1.820 -0.7212  1.3447  2.6659
32578SOL     OW 8047  11.098   7.934   4.759  0.5503 -0.1617 -0.4355
32578SOL    HW1 8048  11.162   7.896   4.699  0.1328 -2.2179  0.3188
32578SOL    HW2 8049  11.017   7.938   4.709  0.2587 -1.6561 -0.1498
32579SOL     OW 8050   6.423   4.598   4.501  0.4407 -0.1801  0.2895
32579SOL    HW1 8051   6.464   4.625   4.419  1.1744 -0.1530  0.6562
32579SOL    HW2 8052   6.492   4.606   4.566 -0.2584  0.2066  0.9951
32580SOL     OW 8053   0.695   0.625   2.794  0.3900  0.4128  0.2195
32580SOL    HW1 8054   0.703   0.564   2.867  0.2968 -0.3516 -0.3895
32580SOL    HW2 8055   0.690   0.569   2.716  0.8361  1.2116 -0.4068
32581SOL     OW 8056   9.483   8.266   6.118  0.0932  0.4137 -0.2846
32581SOL    HW1 8057   9.517   8.180   6.141  0.2807  0.2522 -1.1375
32581SOL    HW2 8058   9.396   8.268   6.158  1.1413  0.9220  2.1073
32582SOL     OW 8059  11.604   7.217  12.374 -0.0021  0.3471  0.4446
32582SOL    HW1 8060  11.663   7.217  12.299  0.3343 -0.3172  0.7007
32582SOL    HW2 8061  11.521   7.250  12.339  1.3417  4.5947  0.7807
32583SOL     OW 8062   4.053   8.208   3.430 -0.4052 -0.5536  0.6135
32583SOL    HW1 8063   3.969   8.164   3.442 -0.4410 -0.5181  0.4983
32583SOL    HW2 8064   4.117   8.149   3.471 -0.5536 -0.3036  1.2136
32584SOL     OW 8065   3.766   6.733  11.470  0.1927 -0.3782  0.0219
32584SOL    HW1 8066   3.860   6.745  11.485 -0.2149  1.3602  1.7249
32584SOL    HW2 8067   3.726   6.807  11.516 -1.9655 -0.4458 -1.6056
32585SOL     OW 8068   0.313   4.675  11.091  0.1228 -0.4505 -0.0202
32585SOL    HW1 8069   0.269   4.678  11.175  1.1480  0.7102  0.5169
32585SOL    HW2 8070   0.251   4.713  11.029 -0.8751 -1.8845  0.0727
32586SOL     OW 8071   9.279   9.787   5.794 -0.2268  0.0402  0.3219
32586SOL    HW1 8072   9.371   9.815   5.799 -0.3807  0.7757 -0.6105
32586SOL    HW2 8073   9.242   9.811   5.878  0.7964 -1.6516  1.3028
32587SOL     OW 8074   0.727   7.002   5.443 -0.0391  0.1240 -0.3723
32587SOL    HW1 8075   0.724   7.092   5.475  2.0015  0.1442 -0.1348
32587SOL    HW2 8076   0.802   6.963   5.488 -1.0454 -1.7853 -0.2666
32588SOL     OW 8077   4.570  10.423   0.759 -0.9031 -0.5810 -0.0549
32588SOL    HW1 8078   4.532  10.510   0.743  0.3657 -0.0763 -0.3961
32588SOL    HW2 8079   4.616  10.432   0.843 -0.5656 -0.8509 -0.2093
32589SOL     OW 8080  11.089  11.638   8.321  0.6332 -0.1619 -0.2643
32589SOL    HW1 8081  11.116  11.710   8.265  0.6775 -0.3104 -0.4352
32589SOL    HW2 8082  11.084  11.676   8.409 -0.7126  0.3893 -0.5565
32590SOL     OW 8083   8.270   9.465  12.968 -0.2652  0.3093 -0.3409
32590SOL    HW1 8084   8.270   9.470  12.872  0.7013  0.2451 -0.3534
32590SOL    HW2 8085   8.314   9.545  12.996  0.7333 -0.3469 -0.0033
32591SOL     OW 8086   1.185  10.385   4.285  0.0739 -0.4329  0.4892
32591SOL    HW1 8087   1.221  10.432   4.360  1.1173  0.1285 -0.3363
32591SOL    HW2 8088   1.121  10.445   4.246 -0.0182 -0.4767  0.5727
32592SOL     OW 8089  11.749   3.799  10.428  0.3110  0.1027 -0.6558
32592SOL    HW1 8090  11.752   3.800  10.524 -0.4519  1.3232 -0.6198
32592SOL    HW2 8091  11.707   3.716  10.406 -1.0935  0.5695  0.1462
32593SOL     OW 8092  12.281   3.008   5.179  0.1455  0.2428  0.2657
32593SOL    HW1 8093  12.272   3.002   5.084  2.0493  1.8175 -0.0705
32593SOL    HW2 8094  12.371   3.036   5.194 -0.2129  0.4252  2.5269
32594SOL     OW 8095   0.657  10.620   0.370  0.3109  0.3346  0.6643
32594SOL    HW1 8096   0.725  10.685   0.354  1.4357 -0.9636  0.0087
32594SOL    HW2 8097   0.681  10.579   0.452  0.5806 -0.4327  0.2075
32595SOL     OW 8098   0.665  12.406   5.282  0.4984  0.4902 -0.2741
32595SOL    HW1 8099   0.641  12.391   5.373 -1.3842  2.5418 -0.3496
32595SOL    HW2 8100   0.593  12.459   5.247  1.2205 -0.1545 -2.9328
32596SOL     OW 8101   0.556   1.045   3.281  0.3923  0.1503 -0.5416
32596SOL    HW1 8102   0.493   1.005   3.341 -1.3372  0.5182 -2.0165
32596SOL    HW2 8103   0.610   1.101   3.337  1.3895 -2.3480  1.2124
32597SOL     OW 8104   1.714   4.642   4.608  0.2463 -0.2091 -0.6218
32597SOL    HW1 8105   1.722   4.687   4.693 -1.4800  0.4601 -0.7611
32597SOL    HW2 8106   1.619   4.639   4.592  0.5241 -0.5996 -2.3862
32598SOL     OW 8107  10.471   2.666   8.915 -0.1070  0.7416 -1.2252
32598SOL    HW1 8108  10.414   2.742   8.911 -0.1383  0.7899 -0.0827
32598SOL    HW2 8109  10.539   2.690   8.978 -0.0403 -0.1169 -0.9524
32599SOL     OW 8110   3.669  11.640  10.357 -0.3760 -0.0970  0.0307
32599SOL    HW1 8111   3.661  11.631  10.262  1.4677 -0.3890 -0.1244
32599SOL    HW2 8112   3.598  11.586  10.391  0.2188 -1.7412 -1.1740
32600SOL     OW 8113   7.936   1.780  11.912 -0.0193 -0.1615 -0.4080
32600SOL    HW1 8114   7.931   1.685  11.902 -0.0013 -0.4350  1.6861
32600SOL    HW2 8115   7.846   1.811  11.902  0.0659 -0.3092 -1.7083
32601SOL     OW 8116   1.624  11.970   8.136  0.0872 -0.4011 -0.0643
32601SOL    HW1 8117   1.687  12.000   8.201 -0.2954 -0.0161  0.1381
32601SOL    HW2 8118   1.631  11.875   8.137 -0.4507 -0.4459  1.1003
32602SOL     OW 8119  12.523  12.220  10.180  0.4534  0.0825 -0.3266
32602SOL    HW1 8120  12.472  12.245  10.257 -0.5546  0.5843 -1.1346
32602SOL    HW2 8121  12.612  12.204  10.214  1.0279  3.9723  0.3916
32603SOL     OW 8122   7.002   0.880   4.195 -0.1139 -0.3119  0.4525
32603SOL    HW1 8123   7.093   0.854   4.178  0.6894  2.3729  0.1002
32603SOL    HW2 8124   6.995   0.883   4.291  0.4996  0.3783  0.4862
32604SOL     OW 8125  10.987  11.011   7.514 -0.5563  1.0219  0.1368
32604SOL    HW1 8126  10.967  11.102   7.532 -1.0379  0.7754  0.8777
32604SOL    HW2 8127  10.950  10.963   7.588 -1.6703  0.0727 -0.9819
32605SOL     OW 8128   8.505   8.564   6.299  0.4327 -0.1496 -0.1094
32605SOL    HW1 8129   8.595   8.548   6.327  0.2348 -2.5101 -0.6199
32605SOL    HW2 8130   8.457   8.486   6.326 -1.1179  0.3320 -1.3142
32606SOL     OW 8131  11.245   3.003   1.041 -0.1608  0.8517 -0.0403
32606SOL    HW1 8132  11.183   2.985   0.970 -1.1413 -0.4209  1.0708
32606SOL    HW2 8133  11.193   3.049   1.107  0.2408  0.4040  0.6021
32607SOL     OW 8134   5.169   6.893   9.507 -0.3982 -0.0925 -0.0915
32607SOL    HW1 8135   5.120   6.896   9.426  0.3016  0.4661 -0.5073
32607SOL    HW2 8136   5.180   6.985   9.533  0.2715 -0.2085  0.0740
32608SOL     OW 8137   4.932   3.362   4.314 -0.1247  0.2725  0.3779
32608SOL    HW1 8138   5.013   3.312   4.314 -0.7294 -0.7220  0.3035
32608SOL    HW2 8139   4.957   3.449   4.281  0.8637 -0.0885  0.1633
32609SOL     OW 8140   5.658  10.225   9.718  0.1347  1.1133 -0.6480
32609SOL    HW1 8141   5.674  10.263   9.805 -0.2939  1.5245 -0.7431
32609SOL    HW2 8142   5.605  10.291   9.673  1.6980  1.6398 -1.7859
32610SOL     OW 8143   5.901  11.376   3.251 -0.1862 -0.5693 -0.1687
32610SOL    HW1 8144   5.880  11.467   3.231  0.0412 -0.8873 -2.0572
32610SOL    HW2 8145   5.987  11.380   3.292 -0.4666  0.1048  0.3812
32611SOL     OW 8146  11.499   4.012   6.325 -0.4805 -0.2138 -0.0906
32611SOL    HW1 8147  11.450   3.970   6.396 -2.0352  0.5156 -0.6662
32611SOL    HW2 8148  11.450   4.093   6.308  1.7784  1.3024  0.2430
32612SOL     OW 8149  11.836   5.102   1.477 -0.0084 -0.1463  0.4149
32612SOL    HW1 8150  11.837   5.164   1.550  2.4567  0.7148 -0.2257
32612SOL    HW2 8151  11.808   5.154   1.402  0.8347 -0.1153  0.1143
32613SOL     OW 8152   3.013   3.408   8.646 -0.4738  0.0137  0.5038
32613SOL    HW1 8153   2.973   3.368   8.723 -0.7052 -1.7144 -0.4792
32613SOL    HW2 8154   2.961   3.376   8.572 -0.0335  1.3495 -0.4273
32614SOL     OW 8155   5.455  10.525   5.140  0.0507 -0.1793 -0.4986
32614SOL    HW1 8156   5.467  10.433   5.163 -0.6939 -0.4320 -1.0591
32614SOL    HW2 8157   5.481  10.574   5.218  0.9042 -0.8397 -0.3610
32615SOL     OW 8158  12.456   4.047   2.924  0.2904  0.8616  0.2703
32615SOL    HW1 8159  12.515   4.051   2.999  0.5743 -2.2026  0.3539
32615SOL    HW2 8160  12.415   3.961   2.931 -0.5919  0.9761 -2.4444
32616SOL     OW 8161   0.237   1.235   8.896 -0.6966 -0.5853 -0.4636
32616SOL    HW1 8162   0.283   1.194   8.970  0.0798  0.6961 -0.1966
32616SOL    HW2 8163   0.181   1.166   8.861  0.6429 -1.9024 -0.1125
32617SOL     OW 8164   6.811   9.581  10.186  0.5812 -0.5818 -0.3886
32617SOL    HW1 8165   6.845   9.513  10.128  0.4799 -1.8915  1.0201
32617SOL    HW2 8166   6.755   9.534  10.248 -1.0404  1.0413 -0.5092
32618SOL     OW 8167   1.509  11.347  11.058  0.2307  0.0170 -0.1177
32618SOL    HW1 8168   1.463  11.335  10.975  0.2008 -3.0835  0.2488
32618SOL    HW2 8169   1.440  11.347  11.124  0.2274  2.7435  0.0016
32619SOL     OW 8170   4.102   2.549   0.203 -0.2829 -0.3764 -0.0699
32619SOL    HW1 8171   4.013   2.579   0.224  0.1771 -0.0520  1.5353
32619SOL    HW2 8172   4.095   2.453   0.206 -0.9403 -0.4103 -1.6617
32620SOL     OW 8173   9.488  11.485   2.608 -0.1228 -0.3888 -0.7921
32620SOL    HW1 8174   9.418  11.504   2.671  0.7589  0.1271  0.0616
32620SOL    HW2 8175   9.479  11.391   2.590 -0.9585 -0.3551 -0.6164
32621SOL     OW 8176   0.707   1.667   6.145 -0.7332  0.4009  0.6264
32621SOL    HW1 8177   0.615   1.660   6.169 -0.5222  2.2672  2.1879
32621SOL    HW2 8178   0.752   1.605   6.202 -0.9363 -0.0711  0.2815
32622SOL     OW 8179   5.448   0.948   1.347 -0.1157 -0.2269  0.2651
32622SOL    HW1 8180   5.525   0.963   1.403  0.6845 -0.6412 -0.6979
32622SOL    HW2 8181   5.476   0.976   1.260 -0.9880 -0.5922 -0.1438
32623SOL     OW 8182  12.679   7.928   2.825  0.6120 -0.2360  0.3705
32623SOL    HW1 8183  12.680   7.895   2.914  0.5601 -0.9747  0.1009
32623SOL    HW2 8184  12.771   7.945   2.804  1.1787 -3.8418 -0.7915
32624SOL     OW 8185   1.098   9.324   2.954  0.1669 -0.0113 -0.1796
32624SOL    HW1 8186   1.115   9.365   3.038  0.8027 -1.4781  0.4440
32624SOL    HW2 8187   1.163   9.362   2.895  0.3621  0.2993  0.2274
32625SOL     OW 8188   3.293   0.393   4.928  0.5656  0.3240  0.4044
32625SOL    HW1 8189   3.322   0.468   4.876  0.0841 -0.4353 -0.9891
32625SOL    HW2 8190   3.362   0.328   4.917 -0.7766 -0.8806 -1.6131
32626SOL     OW 8191   5.778   0.126   9.430  0.1274  0.3503 -0.1121
32626SOL    HW1 8192   5.755   0.132   9.338 -2.2318  1.4525  0.4734
32626SOL    HW2 8193   5.793   0.033   9.446 -0.6871  0.0008 -1.3359
32627SOL     OW 8194  12.457   7.066   0.218  0.2782 -0.4179  0.9970
32627SOL    HW1 8195  12.531   7.027   0.171  0.4736 -0.1184  1.0547
32627SOL    HW2 8196  12.493   7.146   0.257 -0.6682  1.0653 -1.0019
32628SOL     OW 8197   9.736   5.110   9.168 -0.3343 -0.5178 -0.5347
32628SOL    HW1 8198   9.664   5.052   9.193 -1.6827  1.0953 -0.4878
32628SOL    HW2 8199   9.726   5.122   9.074 -0.8210  0.5754 -0.3581
32629SOL     OW 8200   1.731   0.481   8.986  0.4053 -0.1139  0.4218
32629SOL    HW1 8201   1.723   0.417   8.916 -0.8557  0.2907  0.1817
32629SOL    HW2 8202   1.701   0.436   9.064 -0.8366  0.2830  0.1856
32630SOL     OW 8203  11.211   0.081   3.854  0.1559 -0.5985  0.4297
32630SOL    HW1 8204  11.230   0.003   3.906 -2.7652 -2.2848 -0.7580
32630SOL    HW2 8205  11.135   0.120   3.897 -0.5506 -0.4221 -0.9212
32631SOL     OW 8206   2.016   1.541   9.728 -0.3364 -0.1940  0.0483
32631SOL    HW1 8207   2.099   1.560   9.770 -0.0374  0.6048 -0.8707
32631SOL    HW2 8208   1.950   1.564   9.793  0.1361 -0.3268  0.5853
32632SOL     OW 8209  11.531   2.570   2.223 -0.1534 -0.0587 -0.0406
32632SOL    HW1 8210  11.597   2.629   2.186 -0.4270  0.3184  0.0594
32632SOL    HW2 8211  11.525   2.499   2.160 -1.5095  1.1891 -1.4272
32633SOL     OW 8212  11.262  12.402   6.554 -0.5352 -0.3013  0.0527
32633SOL    HW1 8213  11.258  12.308   6.573  0.0993 -0.1820  0.8418
32633SOL    HW2 8214  11.184  12.419   6.501 -0.7969 -1.2242  0.1175
32634SOL     OW 8215   6.829   8.835   1.559 -0.3193 -0.1815 -0.5116
32634SOL    HW1 8216   6.771   8.885   1.502  0.1360  3.4233  1.8373
32634SOL    HW2 8217   6.917   8.853   1.525 -0.1084  1.3014  0.6968
32635SOL     OW 8218   8.410   4.647   7.744 -0.3732 -0.3409 -0.3790
32635SOL    HW1 8219   8.504   4.645   7.728 -0.5609 -1.4503 -1.5627
32635SOL    HW2 8220   8.388   4.741   7.747  0.9747 -0.0343  1.5036
32636SOL     OW 8221   6.376   5.864   2.845  0.4273  0.1993  0.0158
32636SOL    HW1 8222   6.396   5.888   2.935 -0.1486 -0.8236  0.4412
32636SOL    HW2 8223   6.455   5.886   2.796  0.8458  0.5274  0.8211
32637SOL     OW 8224   4.200   3.271   2.954 -0.1923  0.4721  0.2370
32637SOL    HW1 8225   4.108   3.244   2.954 -0.2633  0.7109  0.4630
32637SOL    HW2 8226   4.248   3.190   2.937 -0.3015 -0.2268  2.7866
32638SOL     OW 8227   3.682   5.949   4.919  0.1249 -0.1595 -0.4022
32638SOL    HW1 8228   3.732   6.031   4.914  0.4341 -0.3687 -0.7789
32638SOL    HW2 8229   3.748   5.880   4.912 -0.3268 -0.4442 -2.0915
32639SOL     OW 8230  11.308  11.982   4.439  0.3639  0.3059 -0.0224
32639SOL    HW1 8231  11.290  12.053   4.501  0.4857  0.9833 -0.7573
32639SOL    HW2 8232  11.235  11.985   4.377 -0.7293 -1.5227  1.0814
32640SOL     OW 8233   1.671   4.382  10.049 -0.4437 -0.0767 -0.4518
32640SOL    HW1 8234   1.744   4.371  10.110 -1.0222 -1.2613  0.0586
32640SOL    HW2 8235   1.626   4.298  10.051 -0.2773 -0.2833 -2.8069
32641SOL     OW 8236   3.308  10.655   5.970 -0.1181 -0.7174  0.2118
32641SOL    HW1 8237   3.222  10.617   5.953 -0.2129 -0.7695  0.7651
32641SOL    HW2 8238   3.370  10.590   5.937 -0.2346  0.8194 -3.4186
32642SOL     OW 8239   4.960  11.784   6.693 -0.0160  0.0852 -0.4841
32642SOL    HW1 8240   4.870  11.818   6.690  0.2233  0.7798 -0.1768
32642SOL    HW2 8241   4.991  11.809   6.780  0.6048  0.2115 -0.7421
32643SOL     OW 8242   1.988   1.424  12.779  0.4924 -0.2879  0.0571
32643SOL    HW1 8243   1.895   1.402  12.785 -0.2160  1.3091 -2.9421
32643SOL    HW2 8244   2.021   1.371  12.707  1.5220  0.2728  0.0944
32644SOL     OW 8245   6.826  10.955  12.948 -0.3104  0.1023  0.0523
32644SOL    HW1 8246   6.894  10.894  12.921  0.6121  1.1026  0.0259
32644SOL    HW2 8247   6.775  10.907  13.014 -0.0228 -0.8985 -0.4367
32645SOL     OW 8248  10.230   3.406   2.398  0.0503 -0.1816  0.3388
32645SOL    HW1 8249  10.257   3.335   2.340  0.3767  0.4602 -0.3274
32645SOL    HW2 8250  10.303   3.468   2.394 -1.0486  1.1176 -0.6720
32646SOL     OW 8251   8.500   5.561   5.977 -0.0524  0.5475  0.0487
32646SOL    HW1 8252   8.576   5.595   6.024 -0.3446 -0.0145  0.9585
32646SOL    HW2 8253   8.535   5.528   5.894  1.2794 -2.4339  1.6244
32647SOL     OW 8254   5.258  10.608   0.044 -0.0918  0.2038 -0.0807
32647SOL    HW1 8255   5.294  10.696   0.030  1.0669 -0.4860 -1.7750
32647SOL    HW2 8256   5.165  10.616   0.019 -0.1998  1.1001  0.5489
32648SOL     OW 8257   4.847   4.635   4.485  0.8652 -0.0637  0.5153
32648SOL    HW1 8258   4.898   4.712   4.464  0.4341  0.4401  1.2485
32648SOL    HW2 8259   4.840   4.587   4.403  0.8634  0.8428 -0.0214
32649SOL     OW 8260   1.507  12.760   5.730 -0.1815 -0.2304  0.4314
32649SOL    HW1 8261   1.433  12.754   5.791 -0.9227 -1.0976 -0.5035
32649SOL    HW2 8262   1.583  12.732   5.781 -1.0081 -2.3434  0.6257
32650SOL     OW 8263   5.033   9.396   2.067 -0.2535 -0.5317 -0.2961
32650SOL    HW1 8264   4.944   9.417   2.095  0.5111  1.6684  0.6738
32650SOL    HW2 8265   5.030   9.399   1.972 -1.5329 -2.0502 -0.3509
32651SOL     OW 8266   5.946   3.933   3.145 -0.2389  0.1024  0.0096
32651SOL    HW1 8267   5.870   3.972   3.189 -0.6921 -0.4882 -0.2307
32651SOL    HW2 8268   5.986   4.004   3.096 -1.4930  0.1065 -1.0389
32652SOL     OW 8269  10.145  10.996  12.644  0.1696  0.3570 -0.3555
32652SOL    HW1 8270  10.216  10.941  12.613 -0.4212  0.1115 -1.3074
32652SOL    HW2 8271  10.140  11.067  12.581 -2.8111 -1.5679 -2.5678
32653SOL     OW 8272   8.005   3.958  12.351  0.0446  1.3645  0.1354
32653SOL    HW1 8273   7.923   4.004  12.336  0.4898  2.5287  1.1691
32653SOL    HW2 8274   8.064   3.991  12.283 -0.5415 -0.1323 -1.1861
32654SOL     OW 8275   1.380   9.739   5.348  0.4369 -0.3582  0.2842
32654SOL    HW1 8276   1.400   9.685   5.425 -0.8699  0.0304  0.9269
32654SOL    HW2 8277   1.330   9.681   5.291  2.1802 -0.9359 -0.7465
32655SOL     OW 8278   5.504  11.625   3.410 -0.7174  0.1707  0.1926
32655SOL    HW1 8279   5.536  11.540   3.380 -0.2010 -0.3186  2.0399
32655SOL    HW2 8280   5.576  11.660   3.463 -1.5429  1.0611  0.7490
32656SOL     OW 8281   8.855  12.320   7.684  0.8722  0.5378 -0.1461
32656SOL    HW1 8282   8.856  12.273   7.601  0.4536  1.2417 -0.5598
32656SOL    HW2 8283   8.934  12.374   7.682  0.2803  1.4036 -0.5942
32657SOL     OW 8284   1.742   5.132  10.555  0.2288 -0.0341 -0.9201
32657SOL    HW1 8285   1.739   5.051  10.504  2.5869 -0.7218 -0.1001
32657SOL    HW2 8286   1.713   5.200  10.494 -0.1324 -1.2571 -2.1544
32658SOL     OW 8287   7.109   8.792   8.282 -0.4903  0.0494  0.4603
32658SOL    HW1 8288   7.090   8.700   8.301 -2.2013  0.1534 -0.5100
32658SOL    HW2 8289   7.025   8.836   8.293 -0.3937  0.9743 -1.9554
32659SOL     OW 8290   7.853  10.659   3.288 -0.2799  0.3745 -0.5649
32659SOL    HW1 8291   7.822  10.703   3.208 -1.1473 -2.6207 -2.0445
32659SOL    HW2 8292   7.777  10.610   3.319  0.9638 -1.2202  0.1013
32660SOL     OW 8293  10.526  10.884   7.447 -0.1764 -0.0259 -0.2465
32660SOL    HW1 8294  10.448  10.855   7.494 -0.1908  0.2871 -0.0738
32660SOL    HW2 8295  10.494  10.914   7.362 -0.1817 -0.3607 -0.3626
32661SOL     OW 8296  12.510  12.347  11.286 -0.0508 -0.1479  0.2783
32661SOL    HW1 8297  12.419  12.333  11.310 -0.6150  0.3870 -1.4413
32661SOL    HW2 8298  12.539  12.262  11.251 -1.2922  0.7522 -3.3336
32662SOL     OW 8299   7.858   5.383   2.963 -0.2839  0.1271 -0.2740
32662SOL    HW1 8300   7.803   5.440   3.017  0.0826  0.5851 -0.3719
32662SOL    HW2 8301   7.800   5.354   2.892 -0.5079  0.2803 -0.1562
32663SOL     OW 8302   1.662  11.231  11.533  0.2537 -0.2282 -0.0977
32663SOL    HW1 8303   1.681  11.198  11.620  1.0096  0.1257 -0.1191
32663SOL    HW2 8304   1.636  11.323  11.546 -0.4999 -0.4241 -0.1667
32664SOL     OW 8305   9.572  11.767   6.019 -0.2690 -0.3046  0.4203
32664SOL    HW1 8306   9.562  11.844   6.076 -1.0510 -0.5636  0.6501
32664SOL    HW2 8307   9.544  11.693   6.074  0.1615 -0.7108  0.0941
32665SOL     OW 8308   0.176   1.865  11.144  0.4856  0.1644 -0.3753
32665SOL    HW1 8309   0.101   1.918  11.115  0.1418 -0.2269 -0.2249
32665SOL    HW2 8310   0.136   1.783  11.174  0.8225  0.5640  1.2492
32666SOL     OW 8311   0.245  10.180   6.913  0.4272 -0.0865  0.2060
32666SOL    HW1 8312   0.263  10.258   6.966 -0.0185  0.1458  0.0212
32666SOL    HW2 8313   0.250  10.210   6.822 -1.1561  0.0775  0.1325
32667SOL     OW 8314  11.194   2.076   6.207  0.1807  0.1676  0.2873
32667SOL    HW1 8315  11.122   2.079   6.144 -0.7285  1.4196  1.3131
32667SOL    HW2 8316  11.169   2.008   6.269 -0.6189  1.2257  1.1640
32668SOL     OW 8317   7.681   3.154   2.068 -0.5537 -0.0106  0.9336
32668SOL    HW1 8318   7.722   3.069   2.087 -0.2056  0.1126  0.7481
32668SOL    HW2 8319   7.696   3.206   2.148 -0.2138  0.0831  0.8115
32669SOL     OW 8320   9.224  12.042   2.829  0.2655  0.1858 -0.6660
32669SOL    HW1 8321   9.166  12.070   2.900  0.2155 -0.0238 -0.6227
32669SOL    HW2 8322   9.257  12.123   2.791  1.2064  0.2897  0.3441
32670SOL     OW 8323   3.717  10.133   8.369 -0.4421  0.0839  0.3041
32670SOL    HW1 8324   3.744  10.224   8.351 -3.2778  1.7594  3.3619
32670SOL    HW2 8325   3.764  10.110   8.448 -1.9762  0.1112  1.2596
32671SOL     OW 8326   4.072   5.929   8.381 -0.2347  0.1278  0.0793
32671SOL    HW1 8327   4.089   5.855   8.440 -0.1126  0.4652  0.4683
32671SOL    HW2 8328   4.085   6.007   8.435 -0.2262  0.4405 -0.3676
32672SOL     OW 8329  10.827   8.602   0.729  0.5798 -0.3235  0.1255
32672SOL    HW1 8330  10.779   8.553   0.795  0.2666  0.6651  0.6495
32672SOL    HW2 8331  10.918   8.574   0.740 -0.0410 -4.6385 -2.9480
32673SOL     OW 8332   8.570   8.273   2.516  0.2086  0.3551  0.5573
32673SOL    HW1 8333   8.527   8.287   2.600  0.1606  1.4956  0.3628
32673SOL    HW2 8334   8.638   8.340   2.513  0.3108  0.2239 -0.2397
32674SOL     OW 8335   5.686   8.441   4.403 -0.1263 -0.5763  0.4528
32674SOL    HW1 8336   5.597   8.440   4.368  0.1061  0.3059 -0.1910
32674SOL    HW2 8337   5.674   8.436   4.498 -0.8322 -1.0064  0.3552
32675SOL     OW 8338   9.109   5.085   1.102  0.6935  0.5251 -0.2098
32675SOL    HW1 8339   9.135   5.165   1.147 -0.6692  1.1376 -0.4422
32675SOL    HW2 8340   9.084   5.025   1.172  2.6294 -0.0910  0.0204
32676SOL     OW 8341   0.728   8.545   7.718 -0.6561 -0.6795  0.0222
32676SOL    HW1 8342   0.724   8.639   7.736 -0.6291 -0.6598 -0.0730
32676SOL    HW2 8343   0.638   8.522   7.695 -0.4528 -0.4535 -1.0514
32677SOL     OW 8344   7.793   1.844  11.615 -0.3719 -0.2030 -0.4362
32677SOL    HW1 8345   7.769   1.936  11.612 -0.0145 -0.1287 -1.6279
32677SOL    HW2 8346   7.748   1.810  11.692  0.9185  1.3527  1.0992
32678SOL     OW 8347   2.611   2.425  12.527  0.5111 -0.0814 -0.1423
32678SOL    HW1 8348   2.688   2.397  12.576  1.5625 -0.1230 -1.7115
32678SOL    HW2 8349   2.569   2.343  12.501  0.4288 -0.0852  0.0074
32679SOL     OW 8350   6.133   4.428   4.009 -0.2189 -0.2519 -0.1349
32679SOL    HW1 8351   6.153   4.352   3.953  1.4066 -1.1425  1.5577
32679SOL    HW2 8352   6.042   4.415   4.036 -0.3211 -0.9690 -0.7975
32680SOL     OW 8353   3.666   6.643  11.227  0.2779 -0.6696 -0.4154
32680SOL    HW1 8354   3.678   6.667  11.319 -0.8467  0.1917 -0.4779
32680SOL    HW2 8355   3.755   6.623  11.196  0.5083 -2.3581  1.2037
32681SOL     OW 8356  11.189   6.540   2.950  0.3183  0.2071 -0.8696
32681SOL    HW1 8357  11.175   6.605   3.019  0.4790  0.7898 -1.3781
32681SOL    HW2 8358  11.182   6.456   2.995  0.5202  0.5787 -0.1249
32682SOL     OW 8359   8.857  11.900   9.044  0.0061 -0.3452  0.3628
32682SOL    HW1 8360   8.948  11.873   9.032 -0.3478 -0.8643 -1.4960
32682SOL    HW2 8361   8.860  11.996   9.035  0.3829 -0.3380  0.5202
32683SOL     OW 8362   5.765   7.370  10.406 -0.1952 -0.0625  0.0019
32683SOL    HW1 8363   5.848   7.417  10.412  0.1144 -0.6805  0.6498
32683SOL    HW2 8364   5.746   7.368  10.312 -0.6047  2.0095 -0.0231
32684SOL     OW 8365  10.111   6.578   9.479  0.4068  0.3882  0.0421
32684SOL    HW1 8366  10.079   6.605   9.393 -0.1278 -1.3984 -0.3700
32684SOL    HW2 8367  10.206   6.582   9.471  0.4185 -1.0979 -1.1559
32685SOL     OW 8368   2.886   9.076   3.971  0.4554  0.1358 -0.2513
32685SOL    HW1 8369   2.835   9.087   3.891  0.7732  1.4027 -0.2939
32685SOL    HW2 8370   2.931   8.992   3.960 -0.4760 -0.2983 -0.8383
32686SOL     OW 8371   3.064   3.010   6.662 -0.0940  0.0154  0.3947
32686SOL    HW1 8372   2.990   3.017   6.602 -0.4665  0.9602  0.9376
32686SOL    HW2 8373   3.122   2.946   6.621 -0.5269  0.3387 -0.7682
32687SOL     OW 8374   9.522   2.618   4.610 -0.0577  0.1825 -0.1177
32687SOL    HW1 8375   9.476   2.690   4.653  2.0582  0.9914  0.9546
32687SOL    HW2 8376   9.512   2.544   4.669 -1.1383 -0.0573 -0.5834
32688SOL     OW 8377   8.648   2.762   1.143  0.0197 -0.3989  0.3786
32688SOL    HW1 8378   8.570   2.808   1.110 -0.4176 -1.4564 -0.1259
32688SOL    HW2 8379   8.719   2.824   1.132 -0.6085  0.2697  0.0110
32689SOL     OW 8380   9.025   8.957   3.744 -0.4026  0.3549  0.4278
32689SOL    HW1 8381   9.056   9.006   3.820  1.0643  1.3287 -0.7399
32689SOL    HW2 8382   8.997   9.025   3.682  1.8057 -0.1895 -1.2863
32690SOL     OW 8383   9.493   6.541   4.881 -0.4018  0.3502  0.1249
32690SOL    HW1 8384   9.442   6.567   4.957 -0.0773 -0.5644  0.6744
32690SOL    HW2 8385   9.565   6.489   4.917 -0.1539  0.0364 -0.7937
32691SOL     OW 8386   1.570   0.664   9.241  0.0600  0.2097 -0.9943
32691SOL    HW1 8387   1.665   0.654   9.250 -0.1397 -1.1152 -0.1213
32691SOL    HW2 8388   1.539   0.685   9.329 -0.4617  0.6642 -1.2767
32692SOL     OW 8389   7.036   0.184   7.578  0.0432  0.0315  0.2592
32692SOL    HW1 8390   7.015   0.238   7.502  0.0244  0.4439  0.5561
32692SOL    HW2 8391   6.983   0.105   7.567 -1.5609  0.9713  0.9158
32693SOL     OW 8392   4.669   2.324   1.438  0.1390  0.0152 -0.0490
32693SOL    HW1 8393   4.680   2.248   1.496 -1.9291 -1.9025 -1.9531
32693SOL    HW2 8394   4.752   2.371   1.443  1.6831 -2.6169  0.8944
32694SOL     OW 8395   3.035  11.793   4.979  0.0083 -0.2371 -0.6222
32694SOL    HW1 8396   3.097  11.740   4.929 -0.0904 -0.2361 -0.7453
32694SOL    HW2 8397   3.050  11.766   5.070 -0.1042 -0.5440 -0.6924
32695SOL     OW 8398   3.176   3.671   6.356  0.1657  0.3134 -0.0941
32695SOL    HW1 8399   3.136   3.584   6.348  0.4326  0.0586  1.2156
32695SOL    HW2 8400   3.259   3.655   6.401 -1.7572  1.6821  4.4248
32696SOL     OW 8401   4.435   7.409  10.210  0.2980  0.1259  0.6504
32696SOL    HW1 8402   4.476   7.483  10.254 -0.9802  0.4384  1.3430
32696SOL    HW2 8403   4.461   7.333  10.262  0.0770  0.3099  1.0277
32697SOL     OW 8404   8.986   4.595   6.462 -0.6645  0.3505  0.4893
32697SOL    HW1 8405   9.044   4.651   6.513  0.1254  0.6475 -0.7081
32697SOL    HW2 8406   9.040   4.520   6.436 -1.0088  0.2670 -0.0208
32698SOL     OW 8407   3.121   0.101   7.716 -0.1407  0.3594  0.6022
32698SOL    HW1 8408   3.069   0.165   7.765 -0.0327 -0.3904  1.7465
32698SOL    HW2 8409   3.063   0.025   7.708 -0.9956  1.2197 -2.4583
32699SOL     OW 8410   2.566   5.652   2.733 -0.0261  0.2453  0.3136
32699SOL    HW1 8411   2.472   5.657   2.750 -0.1941 -2.1439  0.3371
32699SOL    HW2 8412   2.605   5.703   2.804 -1.2543  0.3282  0.9614
32700SOL     OW 8413   3.415   7.024  10.312 -0.5149  0.3562  0.2821
32700SOL    HW1 8414   3.359   6.981  10.376  0.1788  0.1301  0.7491
32700SOL    HW2 8415   3.405   6.972  10.233 -1.2521  0.5426  0.2482
32701SOL     OW 8416   6.830   6.854  10.928 -0.1697  0.0320  0.2687
32701SOL    HW1 8417   6.924   6.858  10.949 -0.1787  1.6183  0.1276
32701SOL    HW2 8418   6.789   6.824  11.009  0.3635  0.2926  0.6452
32702SOL     OW 8419   6.209   7.543   9.516 -0.4937 -0.1847  0.1716
32702SOL    HW1 8420   6.186   7.488   9.442 -1.3113 -0.9820  0.9984
32702SOL    HW2 8421   6.233   7.627   9.477  1.0538 -1.1609 -1.1368
32703SOL     OW 8422   0.690   3.386   1.736  0.3091 -0.4662  0.1751
32703SOL    HW1 8423   0.704   3.345   1.822 -1.0057 -1.1646  0.0919
32703SOL    HW2 8424   0.681   3.312   1.676 -0.5515 -0.0340 -0.2497
32704SOL     OW 8425   5.458   7.534   4.591  0.3042 -0.2554 -0.0141
32704SOL    HW1 8426   5.381   7.546   4.536  0.1628 -1.4229 -0.0958
32704SOL    HW2 8427   5.425   7.539   4.681  0.3628  0.5606 -0.0252
32705SOL     OW 8428   2.955   1.905   8.475 -0.2732 -0.2541  0.2397
32705SOL    HW1 8429   3.037   1.926   8.519 -1.4753  1.3271  1.8480
32705SOL    HW2 8430   2.896   1.879   8.545 -2.1384  1.9448 -0.4193
32706SOL     OW 8431   3.504   0.238   6.635  0.3751  0.4191  0.9643
32706SOL    HW1 8432   3.553   0.306   6.588  1.3216 -0.3481  0.7926
32706SOL    HW2 8433   3.476   0.177   6.567  0.2174  0.2312  1.1967
32707SOL     OW 8434   7.069  10.241   3.911 -0.6350  0.0695 -0.5240
32707SOL    HW1 8435   7.104  10.327   3.889  1.2214 -0.7475 -0.9141
32707SOL    HW2 8436   7.082  10.189   3.832 -0.3194 -0.9875  0.2173
32708SOL     OW 8437   3.552  11.575  10.697 -0.6362  0.3345  0.4395
32708SOL    HW1 8438   3.643  11.546  10.701 -0.6420 -0.0498 -1.4067
32708SOL    HW2 8439   3.516  11.553  10.783 -0.0392 -3.1737 -0.0653
32709SOL     OW 8440   3.603   1.994  11.048  0.5597  0.1100  0.1635
32709SOL    HW1 8441   3.670   2.060  11.031  1.9478 -0.6721  2.1883
32709SOL    HW2 8442   3.558   2.025  11.127  0.5414 -0.8504  0.5430
32710SOL     OW 8443   5.336   2.532  10.886 -0.0009 -0.3666  0.0898
32710SOL    HW1 8444   5.412   2.496  10.840 -1.8399 -1.3383 -2.4458
32710SOL    HW2 8445   5.280   2.456  10.901 -1.4406  0.6086 -0.1595
32711SOL     OW 8446  12.480  11.270   0.391  0.0176  0.4428 -0.2525
32711SOL    HW1 8447  12.420  11.318   0.449  0.3518 -0.8254  1.2332
32711SOL    HW2 8448  12.425  11.239   0.319 -0.5945  1.3477 -0.1912
32712SOL     OW 8449   2.251   4.560   7.174  0.3982  0.6719  0.0213
32712SOL    HW1 8450   2.286   4.632   7.227 -1.2188  1.1141  0.5373
32712SOL    HW2 8451   2.246   4.486   7.235 -2.6382  1.5111  0.9418
32713SOL     OW 8452   3.266   8.265   9.405  0.0075 -0.1590 -0.3738
32713SOL    HW1 8453   3.204   8.338   9.409 -1.3480 -0.9178 -3.6868
32713SOL    HW2 8454   3.243   8.209   9.479 -0.5196  1.5572  0.8204
32714SOL     OW 8455   9.895  12.453   0.795  0.5509 -0.4516 -0.2779
32714SOL    HW1 8456   9.940  12.401   0.861  1.3765  1.4226  0.7074
32714SOL    HW2 8457   9.802  12.439   0.811  0.7594 -0.8962  0.5510
32715SOL     OW 8458   4.227   3.176   6.819 -0.1270  0.0747  0.0480
32715SOL    HW1 8459   4.146   3.183   6.769 -0.1172 -1.3340 -0.1895
32715SOL    HW2 8460   4.272   3.100   6.782  0.5242 -0.1550  1.2624
32716SOL     OW 8461   3.008   9.757   0.133 -0.0653 -0.2629  0.4445
32716SOL    HW1 8462   2.924   9.776   0.092 -0.9036  0.1700  2.2525
32716SOL    HW2 8463   3.033   9.672   0.097 -1.5797 -0.6904  0.3291
32717SOL     OW 8464   2.568  11.727  12.665  0.1087  0.2681 -0.1512
32717SOL    HW1 8465   2.481  11.755  12.692  0.1008  0.8564 -0.7619
32717SOL    HW2 8466   2.573  11.635  12.690 -1.1971 -0.1612 -1.3438
32718SOL     OW 8467  11.584   7.019   8.815  0.1101 -0.1758 -0.1191
32718SOL    HW1 8468  11.555   7.105   8.845  1.4852  0.4114 -0.4164
32718SOL    HW2 8469  11.657   7.037   8.756 -0.1193 -1.5108 -0.8567
32719SOL     OW 8470   4.651   6.892   0.828  0.4412  0.3245  0.0095
32719SOL    HW1 8471   4.640   6.824   0.894  1.2362  0.8077  0.6625
32719SOL    HW2 8472   4.726   6.863   0.775  0.0843  0.1547 -0.4092
32720SOL     OW 8473  11.532   7.656   6.279 -0.5400 -0.4841  0.8542
32720SOL    HW1 8474  11.454   7.667   6.225 -0.2150 -2.2624 -0.0497
32720SOL    HW2 8475  11.599   7.710   6.237 -0.3000 -1.8272 -0.5620
32721SOL     OW 8476   8.774   0.817   4.955 -0.3923 -0.3944  0.0123
32721SOL    HW1 8477   8.857   0.776   4.976 -0.2559  0.4437  1.1684
32721SOL    HW2 8478   8.709   0.768   5.006 -0.5612 -0.7849 -0.5699
32722SOL     OW 8479  12.731   7.259   3.676 -0.0583 -0.7481  0.3143
32722SOL    HW1 8480  12.667   7.191   3.659 -0.2839  0.0683 -2.4995
32722SOL    HW2 8481  12.807   7.235   3.622 -0.7851  1.9991 -2.1936
32723SOL     OW 8482   4.073   1.849   4.656  0.0899 -0.0147  0.2791
32723SOL    HW1 8483   4.149   1.812   4.700 -0.9217 -0.3288  1.8306
32723SOL    HW2 8484   4.000   1.793   4.682 -1.4153  2.5830  2.2085
32724SOL     OW 8485   8.169  10.537   5.232  0.3205 -0.2350  0.3317
32724SOL    HW1 8486   8.092  10.580   5.194 -1.3631 -2.8745  0.4766
32724SOL    HW2 8487   8.227  10.609   5.256 -1.9125  1.8818 -0.1615
32725SOL     OW 8488   6.121  11.442   2.878 -0.2428  0.1944  0.0428
32725SOL    HW1 8489   6.203  11.396   2.898  1.6077  2.4479 -1.8612
32725SOL    HW2 8490   6.136  11.532   2.907 -1.2547  1.1287 -2.1555
32726SOL     OW 8491  12.463   1.469  11.959 -0.4779  0.1717 -0.1671
32726SOL    HW1 8492  12.417   1.424  12.029  0.0161  1.5593  1.1002
32726SOL    HW2 8493  12.547   1.494  11.998  0.1176  0.3262 -1.4917
32727SOL     OW 8494   3.154   5.791  12.296 -0.0180 -0.1550  0.5132
32727SOL    HW1 8495   3.170   5.802  12.202 -0.4158 -0.2713  0.4308
32727SOL    HW2 8496   3.233   5.747  12.328  0.0307 -0.3119  0.1915
32728SOL     OW 8497   3.862   0.550   3.213 -0.3411 -0.4043 -0.2270
32728SOL    HW1 8498   3.910   0.468   3.200  2.2261  0.6285  1.8818
32728SOL    HW2 8499   3.909   0.614   3.159 -1.1602  0.0703 -0.3885
32729SOL     OW 8500   0.702   5.957   5.536  0.0102 -0.0545 -0.4807
32729SOL    HW1 8501   0.710   6.052   5.542  0.4650 -0.1835  1.3760
32729SOL    HW2 8502   0.609   5.942   5.518 -0.2190  0.7077  0.0312
32730SOL     OW 8503   1.501   1.087   5.862  0.3720 -0.0513 -0.3541
32730SOL    HW1 8504   1.530   1.177   5.881 -1.6208  0.2609  1.6252
32730SOL    HW2 8505   1.527   1.037   5.940 -0.4932 -0.6925 -0.4605
32731SOL     OW 8506   5.701  12.371   2.049 -0.3547 -0.0263 -0.3625
32731SOL    HW1 8507   5.692  12.403   1.959 -0.3145  3.9001  0.8728
32731SOL    HW2 8508   5.618  12.393   2.091  0.4772  0.3409  1.1377
32732SOL     OW 8509   1.765   2.143   6.104  0.4792  0.3034  0.0879
32732SOL    HW1 8510   1.721   2.171   6.024  0.1597  1.2834  0.5830
32732SOL    HW2 8511   1.806   2.060   6.082  0.2513  0.4791 -1.0387
32733SOL     OW 8512   1.996  11.172  11.638  0.4676 -0.0974 -0.2187
32733SOL    HW1 8513   1.972  11.264  11.628 -2.2920 -0.4867  1.6152
32733SOL    HW2 8514   1.975  11.132  11.554  0.1022  0.6539 -0.4911
32734SOL     OW 8515   4.457   9.047   4.092  0.3251  0.8664  0.1977
32734SOL    HW1 8516   4.401   8.991   4.039 -0.2244  0.8723  0.7564
32734SOL    HW2 8517   4.476   8.994   4.170 -0.5286  1.5988  0.9128
32735SOL     OW 8518   0.454  12.357   0.675  0.0769  0.1687 -0.4361
32735SOL    HW1 8519   0.541  12.397   0.678  0.6389 -1.0245 -0.0077
32735SOL    HW2 8520   0.467  12.270   0.713 -1.2215 -0.1890 -0.7761
32736SOL     OW 8521   7.705   4.287   0.300 -0.2450  0.0669  0.6409
32736SOL    HW1 8522   7.733   4.324   0.384 -0.3375 -0.4992  0.9219
32736SOL    HW2 8523   7.778   4.306   0.240 -0.4074  0.9542  0.7024
32737SOL     OW 8524   5.429   0.566  11.985 -0.7491  0.1998 -0.8986
32737SOL    HW1 8525   5.448   0.560  11.892  0.2809  0.5310 -0.7235
32737SOL    HW2 8526   5.453   0.480  12.020 -0.2161  0.3829 -0.7962
32738SOL     OW 8527   4.208  11.595   9.042 -0.0721 -0.3089  0.7021
32738SOL    HW1 8528   4.193  11.540   9.118  0.4862 -0.2554  0.8593
32738SOL    HW2 8529   4.303  11.610   9.042 -0.0292 -0.5338 -0.1543
32739SOL     OW 8530  11.494  12.657   8.435  0.1742  0.2469  0.3456
32739SOL    HW1 8531  11.561  12.626   8.495 -0.1146 -0.7551  0.1754
32739SOL    HW2 8532  11.539  12.668   8.351 -0.2176 -2.5105 -0.3509
32740SOL     OW 8533   7.432   7.303   6.208 -0.1892 -0.4576 -0.3159
32740SOL    HW1 8534   7.354   7.322   6.260  0.0249  2.5761 -0.8948
32740SOL    HW2 8535   7.504   7.345   6.255  0.5822 -0.6520 -1.2697
32741SOL     OW 8536   8.510   9.035   0.006  0.3603  0.2573 -0.3232
32741SOL    HW1 8537   8.480   9.026   0.096  1.1233  1.6683  0.0891
32741SOL    HW2 8538   8.432   9.062  -0.042 -0.0939 -0.6831 -0.1565
32742SOL     OW 8539   8.993   0.204   2.891  0.1486  0.3111 -0.7398
32742SOL    HW1 8540   9.004   0.112   2.914  1.5800  0.2881 -1.3478
32742SOL    HW2 8541   8.909   0.208   2.845 -0.5364 -0.4416  0.4125
32743SOL     OW 8542  10.462   9.543   5.500  0.3256 -0.0660 -0.4360
32743SOL    HW1 8543  10.395   9.555   5.567 -1.5733  0.6776 -2.3622
32743SOL    HW2 8544  10.459   9.623   5.448  2.6168 -0.0953 -0.7235
32744SOL     OW 8545   5.464  12.650   6.948 -0.2155 -0.3975 -0.0156
32744SOL    HW1 8546   5.399  12.721   6.945 -1.5254 -1.5707 -2.2046
32744SOL    HW2 8547   5.416  12.573   6.918  1.5242 -1.9408  0.9983
32745SOL     OW 8548   1.639  10.753   7.205  0.0472  0.4776  0.1647
32745SOL    HW1 8549   1.575  10.791   7.266  0.1569  0.1345  0.5036
32745SOL    HW2 8550   1.723  10.786   7.235  0.2238 -0.6246  0.9448
32746SOL     OW 8551  11.744   3.774   4.307  0.4238 -0.1370 -0.1320
32746SOL    HW1 8552  11.708   3.859   4.331 -0.4006 -0.6211  0.4161
32746SOL    HW2 8553  11.832   3.774   4.343  0.6437  0.7016 -0.6391
32747SOL     OW 8554  12.429   4.712   5.481  0.1367 -0.0569 -0.0294
32747SOL    HW1 8555  12.355   4.734   5.424 -0.4695 -4.6189 -1.3937
32747SOL    HW2 8556  12.501   4.694   5.421  0.5156 -1.5236  0.8205
32748SOL     OW 8557   3.401   0.066   6.433 -0.0463  0.1461 -0.8674
32748SOL    HW1 8558   3.359  -0.002   6.484  0.7964  0.0939 -0.2169
32748SOL    HW2 8559   3.443   0.019   6.361  1.9579 -0.2936  0.4920
32749SOL     OW 8560   1.372   9.886   7.776 -0.1363  0.0367  0.1651
32749SOL    HW1 8561   1.436   9.946   7.814 -0.1728  0.2810 -0.1550
32749SOL    HW2 8562   1.386   9.804   7.823  0.5771  0.0157 -0.0654
32750SOL     OW 8563  10.024   9.015   5.774  0.8437 -0.6717 -0.1349
32750SOL    HW1 8564  10.107   9.063   5.776  1.3735 -1.5727  1.4219
32750SOL    HW2 8565   9.969   9.064   5.713  2.2956  0.3215 -0.6893
32751SOL     OW 8566   6.679  10.868   1.877 -0.1552  0.4664  0.3074
32751SOL    HW1 8567   6.700  10.850   1.968 -0.5883 -0.6844  0.2078
32751SOL    HW2 8568   6.682  10.963   1.869  1.4314  0.5071  1.1290
32752SOL     OW 8569   5.312   9.052   9.155 -0.1692  0.0708 -0.9075
32752SOL    HW1 8570   5.226   9.023   9.182  0.7575 -1.8096  0.2251
32752SOL    HW2 8571   5.351   9.089   9.235  0.1938  0.6355 -1.3354
32753SOL     OW 8572   7.365   5.674   2.658  0.3901  0.2986  0.5974
32753SOL    HW1 8573   7.405   5.609   2.715  0.6205  1.3497  1.6673
32753SOL    HW2 8574   7.324   5.737   2.718 -1.2264  0.2753 -0.4283
32754SOL     OW 8575   1.749  11.154   6.370 -0.4770 -0.1293  0.1191
32754SOL    HW1 8576   1.777  11.078   6.421  0.0098 -0.2314 -0.2825
32754SOL    HW2 8577   1.674  11.189   6.417 -1.5831 -1.6766 -0.4333
32755SOL     OW 8578   8.717   5.966   2.266  0.1042 -0.0390 -0.2375
32755SOL    HW1 8579   8.667   6.025   2.209 -0.0358 -1.1075 -1.2357
32755SOL    HW2 8580   8.696   5.996   2.354  0.6041  1.8785 -0.7008
32756SOL     OW 8581   2.727   9.344  11.968 -0.3721  0.0747  0.2685
32756SOL    HW1 8582   2.690   9.423  11.929 -0.6939  0.1668  0.7541
32756SOL    HW2 8583   2.821   9.355  11.962 -0.4024 -0.1302 -0.9262
32757SOL     OW 8584   8.917   2.697   8.278  0.1968  0.2089  0.2492
32757SOL    HW1 8585   8.852   2.675   8.212 -0.8670  0.4594  1.1826
32757SOL    HW2 8586   8.890   2.647   8.356  1.9482 -0.8235  0.2531
32758SOL     OW 8587  12.737   0.897  10.367  0.5668 -0.4618 -0.4083
32758SOL    HW1 8588  12.795   0.891  10.291  1.5305 -1.0530  0.3574
32758SOL    HW2 8589  12.744   0.812  10.410 -0.1820 -0.2302  0.1997
32759SOL     OW 8590   5.547  12.050   7.019  0.0947  0.2858 -0.0749
32759SOL    HW1 8591   5.539  12.137   6.982 -0.9538  0.4680  0.5522
32759SOL    HW2 8592   5.471  12.041   7.076  0.5067 -0.8139  0.3228
32760SOL     OW 8593   3.009   2.170   2.572 -0.0034  0.1365  0.0271
32760SOL    HW1 8594   2.965   2.200   2.492 -1.0554  0.5207  0.7210
32760SOL    HW2 8595   2.985   2.078   2.579  0.4672 -0.0168 -0.3355
32761SOL     OW 8596  11.971  10.106   3.084 -0.3232 -0.2628 -0.3637
32761SOL    HW1 8597  11.888  10.066   3.059 -0.5539 -0.7837  1.1258
32761SOL    HW2 8598  11.949  10.160   3.160  0.6080  0.0565 -0.3081
32762SOL     OW 8599   6.567   1.185   0.507  0.0003 -0.2353  0.0484
32762SOL    HW1 8600   6.653   1.217   0.479 -0.4537  0.8344 -0.1534
32762SOL    HW2 8601   6.573   1.090   0.497  0.9767 -0.1323 -0.4796
32763SOL     OW 8602  12.091   4.041   4.193  0.3860 -0.0987 -0.1767
32763SOL    HW1 8603  12.013   4.066   4.143  0.4186  1.7564  0.6252
32763SOL    HW2 8604  12.079   4.083   4.278  1.1096 -1.8333  0.8367
32764SOL     OW 8605   5.032   3.315   9.133  0.0318  0.0639 -0.6087
32764SOL    HW1 8606   5.038   3.382   9.201  1.4057 -1.8114  1.2817
32764SOL    HW2 8607   4.950   3.268   9.152  0.3303 -0.3533 -0.3248
32765SOL     OW 8608   9.874   9.502   1.085 -0.0670 -0.4948 -0.1944
32765SOL    HW1 8609   9.935   9.537   1.150  0.0372  1.4641 -1.2495
32765SOL    HW2 8610   9.816   9.576   1.065 -1.3132 -1.6216 -0.9221
32766SOL     OW 8611  10.394   2.084   7.357 -0.1242  0.1839 -0.1434
32766SOL    HW1 8612  10.478   2.039   7.365 -0.1757 -0.2816 -1.8458
32766SOL    HW2 8613  10.357   2.082   7.446  1.0295 -0.8216  0.3445
32767SOL     OW 8614   3.180   2.356   6.040 -0.1872  0.2192  0.1127
32767SOL    HW1 8615   3.207   2.281   6.093  0.7282  0.2467 -0.3016
32767SOL    HW2 8616   3.100   2.325   5.996 -0.4332 -0.1227  0.7753
32768SOL     OW 8617   8.255   7.748   6.615 -0.5713  0.0389  0.3426
32768SOL    HW1 8618   8.181   7.807   6.627 -0.9522 -0.1522 -0.9276
32768SOL    HW2 8619   8.296   7.744   6.701 -1.6642  0.6421  0.9194
32769SOL     OW 8620   3.323   7.188   6.174 -0.1735 -0.2810 -0.1673
32769SOL    HW1 8621   3.359   7.162   6.258  0.1192  0.1118 -0.1680
32769SOL    HW2 8622   3.229   7.201   6.190 -0.3278 -1.3472 -0.1771
32770SOL     OW 8623  11.679   3.187  12.614 -0.3004  0.0397  0.3794
32770SOL    HW1 8624  11.674   3.260  12.553  0.6993  0.2421  0.5203
32770SOL    HW2 8625  11.713   3.114  12.562  0.5029  0.1983  0.6658
32771SOL     OW 8626  11.017   8.978   3.733  0.4250  0.1651 -0.4239
32771SOL    HW1 8627  11.040   8.969   3.826  0.9330 -1.2064 -0.6580
32771SOL    HW2 8628  11.045   8.895   3.693 -0.0230  0.6284 -1.7572
32772SOL     OW 8629   9.359   5.207   2.722  0.2813  0.0322  0.2532
32772SOL    HW1 8630   9.264   5.196   2.731  0.1170 -0.8145 -1.8780
32772SOL    HW2 8631   9.396   5.132   2.768 -0.1694 -0.4505 -0.1585
32773SOL     OW 8632   5.574   0.678   1.324  0.1478 -0.1472  0.3056
32773SOL    HW1 8633   5.538   0.766   1.312  0.4319  0.0023  0.5302
32773SOL    HW2 8634   5.585   0.644   1.235 -3.4498 -1.4305  0.1752
32774SOL     OW 8635   1.073   8.802   4.470  0.5163 -0.0149 -0.3990
32774SOL    HW1 8636   1.007   8.746   4.511 -0.2748 -1.1186 -2.9596
32774SOL    HW2 8637   1.149   8.744   4.458  1.7522  1.0149  1.7325
32775SOL     OW 8638   6.098   7.368  10.823  0.1330  0.1262 -0.3728
32775SOL    HW1 8639   6.113   7.275  10.802 -1.9819  0.1957 -2.6735
32775SOL    HW2 8640   6.057   7.403  10.744 -0.4729  2.6993  0.9986
32776SOL     OW 8641  10.727   3.828  12.305  0.0548  0.6102  0.3180
32776SOL    HW1 8642  10.770   3.882  12.372 -1.1185  1.4759  0.4041
32776SOL    HW2 8643  10.667   3.888  12.260  0.1442 -0.1749 -0.9042
32777SOL     OW 8644   6.784   0.519   7.534  0.0502 -0.0571 -0.0601
32777SOL    HW1 8645   6.709   0.477   7.577  0.5694 -0.8057  0.1372
32777SOL    HW2 8646   6.811   0.587   7.595 -0.8095  0.6124 -0.3890
32778SOL     OW 8647   1.569  10.037  10.037  1.1226 -0.0236 -0.6568
32778SOL    HW1 8648   1.488  10.073  10.072  1.2327 -0.5313  0.1449
32778SOL    HW2 8649   1.564  10.053   9.942  0.0234 -0.1946 -0.6365
32779SOL     OW 8650   7.135   8.800   1.567 -0.1595  0.3305  0.7099
32779SOL    HW1 8651   7.108   8.871   1.509 -0.0832  1.7877  2.3810
32779SOL    HW2 8652   7.181   8.738   1.510 -2.1001  0.5311 -1.1876
32780SOL     OW 8653   9.004  11.673   8.242 -0.6679  0.2826 -0.2487
32780SOL    HW1 8654   9.080  11.679   8.300 -1.0501 -1.7194  0.5342
32780SOL    HW2 8655   8.939  11.624   8.292 -1.1115 -1.2763 -2.2040
32781SOL     OW 8656   9.720  10.607   6.416 -0.1177 -0.0875 -0.4602
32781SOL    HW1 8657   9.764  10.687   6.447 -0.1364  0.2665 -1.3154
32781SOL    HW2 8658   9.783  10.567   6.356 -1.2549  0.8829 -2.3919
32782SOL     OW 8659   0.084   6.145   7.340 -0.5270 -0.0709 -0.2459
32782SOL    HW1 8660   0.121   6.163   7.254 -0.0952 -0.4119 -0.1352
32782SOL    HW2 8661   0.135   6.199   7.400 -0.6130 -0.0789 -0.1648
32783SOL     OW 8662   7.719   6.240   8.104 -0.3392 -0.1661 -0.9409
32783SOL    HW1 8663   7.644   6.299   8.093  0.0327  0.3310 -0.8451
32783SOL    HW2 8664   7.720   6.219   8.197  0.7483  1.3414 -0.5775
32784SOL     OW 8665  12.432  11.065   8.960 -0.1603  0.2940 -0.4495
32784SOL    HW1 8666  12.356  11.081   9.017  0.7473  1.0257  0.6018
32784SOL    HW2 8667  12.480  11.148   8.960  0.4419 -0.0304 -1.4289
32785SOL     OW 8668   8.654   1.880   9.872 -0.2239 -0.1595  0.7782
32785SOL    HW1 8669   8.603   1.802   9.895 -0.5127  0.1583  1.2104
32785SOL    HW2 8670   8.616   1.911   9.791 -0.5463 -0.0788  0.9594
32786SOL     OW 8671   3.191   7.838   4.783 -0.6335  0.2783  0.0386
32786SOL    HW1 8672   3.218   7.885   4.862  2.1703 -1.5768  0.3070
32786SOL    HW2 8673   3.172   7.749   4.813 -0.1381 -0.2907 -1.2702
32787SOL     OW 8674   7.739   8.918   1.649  0.2973 -0.2164 -0.1101
32787SOL    HW1 8675   7.824   8.927   1.693  0.6710 -0.1688 -0.8280
32787SOL    HW2 8676   7.725   9.003   1.607 -1.4844  0.8170  2.3649
32788SOL     OW 8677   8.824   7.625   6.464 -0.2138  0.3357 -0.3562
32788SOL    HW1 8678   8.899   7.599   6.517  0.9150  2.5095 -0.8103
32788SOL    HW2 8679   8.850   7.607   6.374 -1.0038 -0.6569 -0.4038
32789SOL     OW 8680   2.075   1.946   7.938 -0.2827  0.7157 -0.4566
32789SOL    HW1 8681   2.070   2.024   7.883 -1.6989  0.7331 -0.3384
32789SOL    HW2 8682   2.016   1.884   7.896  0.7300 -0.2597 -0.4693
32790SOL     OW 8683   5.216   7.200   8.591 -0.0109  0.1465 -0.0603
32790SOL    HW1 8684   5.293   7.178   8.643 -0.9216 -0.4408  1.1022
32790SOL    HW2 8685   5.186   7.283   8.628 -0.0789  0.2406 -0.3290
32791SOL     OW 8686   9.461   4.774   6.028 -0.0882 -0.2686  0.3414
32791SOL    HW1 8687   9.505   4.694   5.999  0.0113 -0.6321  1.4233
32791SOL    HW2 8688   9.373   4.745   6.053 -0.3342  0.1197 -0.0669
32792SOL     OW 8689   0.763   9.249   9.603  0.1491 -0.4500 -0.1127
32792SOL    HW1 8690   0.714   9.199   9.537  0.0281 -0.6475  0.1259
32792SOL    HW2 8691   0.757   9.196   9.682 -0.1972  0.0652  0.2096
32793SOL     OW 8692   6.139   0.832   5.323 -0.9003  0.1665 -0.0975
32793SOL    HW1 8693   6.207   0.890   5.358 -1.3583  0.5692  0.1498
32793SOL    HW2 8694   6.172   0.804   5.238  0.4067 -1.1312  0.7916
32794SOL     OW 8695   4.973   0.933   7.298  0.1083 -0.0992  0.0225
32794SOL    HW1 8696   5.016   0.867   7.245  1.7403  1.3684 -0.5663
32794SOL    HW2 8697   5.038   1.002   7.309 -1.0264  0.7606  1.8649
32795SOL     OW 8698   5.195   9.828   4.275  0.1720 -0.0530 -0.3888
32795SOL    HW1 8699   5.236   9.836   4.361 -0.7970 -0.8758  0.1784
32795SOL    HW2 8700   5.163   9.916   4.255  0.7699  0.2357 -0.1013
32796SOL     OW 8701  10.559   0.343   4.339 -0.0211 -0.1194  0.1650
32796SOL    HW1 8702  10.530   0.333   4.248  3.6385 -0.8728 -1.0679
32796SOL    HW2 8703  10.654   0.351   4.333  0.1846  2.0382  3.8313
32797SOL     OW 8704   3.005   9.690  10.721 -0.8547 -0.6777  0.2116
32797SOL    HW1 8705   3.094   9.718  10.702 -1.6277  1.9469  0.0720
32797SOL    HW2 8706   2.968   9.667  10.636 -1.3253  1.7024 -0.3180
32798SOL     OW 8707   9.441   7.639   2.492 -0.0358 -0.2125  0.8943
32798SOL    HW1 8708   9.423   7.594   2.410  2.5816 -1.4209  0.8719
32798SOL    HW2 8709   9.474   7.725   2.465 -0.3127 -0.1571  0.7321
32799SOL     OW 8710   5.934   8.945   8.335  0.4270  0.1422  0.3621
32799SOL    HW1 8711   5.934   8.864   8.386  0.5045 -0.6079 -0.7817
32799SOL    HW2 8712   5.848   8.948   8.294  1.3061 -0.7699 -1.6912
32800SOL     OW 8713   3.961   4.876  12.676 -0.5061 -0.4104 -0.4047
32800SOL    HW1 8714   3.998   4.813  12.738 -2.5483 -0.6113  0.6584
32800SOL    HW2 8715   3.955   4.827  12.594  1.8929 -0.2459 -0.7618
32801SOL     OW 8716   9.673   0.027   6.674 -0.2560  0.3729  0.7566
32801SOL    HW1 8717   9.625   0.095   6.625 -1.7158 -1.9166 -1.1826
32801SOL    HW2 8718   9.765   0.048   6.660 -0.6607  1.2151 -0.8926
32802SOL     OW 8719  10.468  10.290   3.865 -0.5798 -0.8498  0.3916
32802SOL    HW1 8720  10.549  10.244   3.886 -1.0792 -2.0678 -0.2395
32802SOL    HW2 8721  10.449  10.264   3.775 -1.7713 -0.7400  0.5964
32803SOL     OW 8722   5.810   8.940  10.114  0.2067 -0.1796  0.1612
32803SOL    HW1 8723   5.729   8.918  10.067 -0.9482 -0.2904  2.0715
32803SOL    HW2 8724   5.803   9.034  10.129  2.5222  0.7155 -3.2518
32804SOL     OW 8725   2.958  10.138  10.274  0.0498 -0.2366 -0.2163
32804SOL    HW1 8726   2.925  10.104  10.191  2.3098  0.8868 -1.6693
32804SOL    HW2 8727   2.932  10.230  10.275  1.2986  0.1418 -0.4299
32805SOL     OW 8728   7.315   7.826  11.548  0.3868  0.4170  0.1914
32805SOL    HW1 8729   7.249   7.874  11.499 -0.2587  1.3441  1.8873
32805SOL    HW2 8730   7.360   7.773  11.482 -0.9579  0.9881 -1.2456
32806SOL     OW 8731   2.542   7.631   3.909  0.6053 -0.4577 -0.5591
32806SOL    HW1 8732   2.491   7.549   3.914  0.2752 -0.3350 -1.6818
32806SOL    HW2 8733   2.566   7.649   4.000 -0.0340 -1.3566 -0.1901
32807SOL     OW 8734   5.962   9.299   3.966  0.0723 -0.3202  0.0269
32807SOL    HW1 8735   5.890   9.347   4.007  0.6586  1.2723 -0.7617
32807SOL    HW2 8736   5.933   9.285   3.876  1.1258  1.2404 -0.5972
32808SOL     OW 8737   9.536   0.365   4.872  0.1291  0.1383  0.4506
32808SOL    HW1 8738   9.536   0.322   4.786  0.1480  2.2267 -0.6464
32808SOL    HW2 8739   9.489   0.447   4.857  1.0368  1.0041  2.2051
32809SOL     OW 8740   7.171   6.845   0.404 -0.5235  0.1411  0.1143
32809SOL    HW1 8741   7.199   6.926   0.363  0.3500 -0.5904 -0.7955
32809SOL    HW2 8742   7.077   6.855   0.415 -0.2928  1.6644  0.9391
32810SOL     OW 8743   3.982  12.390  12.709 -0.3669 -0.0999 -0.2175
32810SOL    HW1 8744   4.007  12.445  12.783 -1.0596  0.3289 -0.2873
32810SOL    HW2 8745   3.916  12.331  12.746  0.1288 -0.6648 -0.2234
32811SOL     OW 8746   6.630   2.036   8.846 -0.2830  0.1591  0.2786
32811SOL    HW1 8747   6.718   2.073   8.844 -0.6616  1.0754  0.1293
32811SOL    HW2 8748   6.629   1.972   8.775 -0.2103  1.2748 -0.7501
32812SOL     OW 8749   4.216   6.139  10.118  0.3610  0.5981 -0.4715
32812SOL    HW1 8750   4.202   6.198  10.044  0.7860  1.4366  0.0907
32812SOL    HW2 8751   4.302   6.100  10.102  0.1650  0.2753 -0.7463
32813SOL     OW 8752   0.690  12.704   3.939 -0.3598 -0.0917  0.0068
32813SOL    HW1 8753   0.606  12.726   3.979 -0.8115 -2.3316  0.4204
32813SOL    HW2 8754   0.755  12.750   3.993 -1.1292 -1.0442  1.8365
32814SOL     OW 8755   2.844   6.676   3.591 -0.3476 -0.4107 -0.3175
32814SOL    HW1 8756   2.815   6.645   3.676 -3.0485 -0.0827 -1.0376
32814SOL    HW2 8757   2.878   6.764   3.607  0.5938 -0.9200  0.6086
32815SOL     OW 8758   8.285  12.352  12.513  0.0908 -0.2461 -0.4230
32815SOL    HW1 8759   8.332  12.276  12.482 -0.8308 -0.8155 -0.4635
32815SOL    HW2 8760   8.232  12.381  12.439  0.7748  0.7266 -0.5568
32816SOL     OW 8761   6.323   2.471   2.557  0.1936  0.8135  0.3292
32816SOL    HW1 8762   6.277   2.439   2.634 -0.0933  1.6724  0.5242
32816SOL    HW2 8763   6.266   2.539   2.521  0.1321  0.1598 -0.8813
32817SOL     OW 8764   1.418   9.178   9.420 -0.1108  0.1839 -0.8155
32817SOL    HW1 8765   1.368   9.213   9.346 -0.3287  0.6868 -0.4372
32817SOL    HW2 8766   1.383   9.224   9.497  1.0282  0.6557 -0.5552
32818SOL     OW 8767   4.421   6.370   5.980 -0.0250 -0.3130 -0.4538
32818SOL    HW1 8768   4.427   6.418   5.897 -1.5653 -0.0110 -0.4137
32818SOL    HW2 8769   4.336   6.328   5.977 -0.3351  0.1477  1.2037
32819SOL     OW 8770  11.985  12.427  11.288 -0.3579 -0.5270  0.4934
32819SOL    HW1 8771  11.994  12.414  11.382  0.1642  0.0881  0.5370
32819SOL    HW2 8772  11.892  12.445  11.274 -0.5542 -1.2767  0.8018
32820SOL     OW 8773   4.876   6.617  12.530  0.2457  0.1138 -0.1412
32820SOL    HW1 8774   4.862   6.709  12.507 -0.0811  0.0505 -0.2088
32820SOL    HW2 8775   4.788   6.580  12.531  0.3294 -0.0819  0.3822
32821SOL     OW 8776  10.654  11.137   7.345  0.5728  0.3367  0.1476
32821SOL    HW1 8777  10.630  11.110   7.433  2.0393 -0.7383  0.2604
32821SOL    HW2 8778  10.582  11.105   7.290  0.1436  0.1064  0.8266
32822SOL     OW 8779   4.114   4.206   0.761 -0.4715 -0.0988  0.0810
32822SOL    HW1 8780   4.113   4.132   0.821  0.5964 -2.0281 -2.1165
32822SOL    HW2 8781   4.139   4.168   0.677 -0.5028  2.6867 -1.2934
32823SOL     OW 8782   3.832  12.810  11.761  0.3414 -0.4058  0.5268
32823SOL    HW1 8783   3.834  12.816  11.666  1.2526  1.4269  0.6237
32823SOL    HW2 8784   3.923  12.824  11.788 -0.2325  1.3325  1.7343
32824SOL     OW 8785  10.632   1.512  11.691  0.0117 -0.8730 -0.3843
32824SOL    HW1 8786  10.684   1.442  11.651 -0.5582 -1.6149  0.1353
32824SOL    HW2 8787  10.697   1.579  11.715  0.4828 -0.9122 -1.4910
32825SOL     OW 8788  10.672   9.253   3.902 -0.1727  0.3112 -0.2545
32825SOL    HW1 8789  10.723   9.280   3.978 -0.6956 -0.3568  0.3525
32825SOL    HW2 8790  10.700   9.311   3.831 -0.4306  1.6435  0.6983
32826SOL     OW 8791   3.310   5.194   9.940  0.2527  0.3654  0.4159
32826SOL    HW1 8792   3.311   5.279   9.983 -2.4760 -0.3697  2.1899
32826SOL    HW2 8793   3.355   5.136  10.002  1.5738  0.3363 -0.5172
32827SOL     OW 8794   8.451   1.506  12.592  0.5158 -0.5230  0.7198
32827SOL    HW1 8795   8.452   1.484  12.685  2.3452 -0.1218  0.8379
32827SOL    HW2 8796   8.431   1.423  12.548 -0.1443 -0.7628  1.4525
32828SOL     OW 8797   1.581   7.645   8.143 -0.1769  0.0195 -0.1913
32828SOL    HW1 8798   1.495   7.676   8.172 -1.1054 -1.8423 -0.7873
32828SOL    HW2 8799   1.610   7.586   8.212 -0.4107 -1.0637 -0.9949
32829SOL     OW 8800   2.803  10.072   4.723  0.5123 -0.3531  0.3016
32829SOL    HW1 8801   2.892  10.055   4.753  0.0240 -2.1936  0.8250
32829SOL    HW2 8802   2.747  10.031   4.790 -0.7247  0.5840 -0.1272
32830SOL     OW 8803   8.614   7.983   2.531 -0.6528  0.2656 -0.3082
32830SOL    HW1 8804   8.610   8.078   2.520 -0.6210  0.3673  0.4680
32830SOL    HW2 8805   8.703   7.960   2.505 -0.8061  0.3837 -0.9426
32831SOL     OW 8806   3.432   8.695   9.357  0.1705 -0.1950  0.6578
32831SOL    HW1 8807   3.433   8.621   9.418 -1.2585 -1.3254 -0.6123
32831SOL    HW2 8808   3.355   8.680   9.302  0.5309  1.6089 -0.4284
32832SOL     OW 8809   1.552   0.049  10.408  0.1505 -0.1034 -0.0170
32832SOL    HW1 8810   1.570   0.120  10.469  0.7066 -0.7136  0.5313
32832SOL    HW2 8811   1.526  -0.025  10.463  0.3724 -0.5724 -0.5287
32833SOL     OW 8812  10.176  10.907  11.346 -0.0953  0.2121 -0.0024
32833SOL    HW1 8813  10.246  10.950  11.395 -0.1855 -0.1133  0.4173
32833SOL    HW2 8814  10.200  10.814  11.347 -0.0972  0.1966 -0.5825
32834SOL     OW 8815  12.553  12.948   8.423  0.7333 -0.1267 -0.0017
32834SOL    HW1 8816  12.476  12.892   8.433  1.8418 -1.6383  0.4960
32834SOL    HW2 8817  12.564  12.989   8.508  1.3342 -1.1046  0.4097
32835SOL     OW 8818   2.938   3.905  10.198 -0.0443 -0.4545  0.3219
32835SOL    HW1 8819   2.920   3.902  10.104  0.6726 -0.0962  0.1625
32835SOL    HW2 8820   2.903   3.990  10.226  1.3951  0.2871 -0.0076
32836SOL     OW 8821   1.389   9.663   2.892  0.1496  0.0962 -0.0474
32836SOL    HW1 8822   1.312   9.650   2.837 -1.0987 -0.4686  1.7312
32836SOL    HW2 8823   1.423   9.575   2.907  0.5997  0.2613 -0.0805
32837SOL     OW 8824   5.564   2.855  10.931 -0.4470 -0.3184  0.0703
32837SOL    HW1 8825   5.483   2.884  10.974  0.1936  0.6196  0.6838
32837SOL    HW2 8826   5.571   2.910  10.853 -0.7716 -0.9079 -0.3824
32838SOL     OW 8827   3.772   7.667  11.337  0.1839  0.3277  0.3640
32838SOL    HW1 8828   3.795   7.600  11.400 -0.2290 -1.3721 -1.2196
32838SOL    HW2 8829   3.852   7.720  11.327  0.8341 -0.5414  0.8738
32839SOL     OW 8830   0.694   3.348   1.224 -0.0691  0.8274 -0.1303
32839SOL    HW1 8831   0.734   3.271   1.184 -1.4242 -0.5165  0.9801
32839SOL    HW2 8832   0.623   3.373   1.165 -0.3381  0.5175  0.0564
32840SOL     OW 8833   0.099  12.438   7.577  0.7857  0.3330  0.1364
32840SOL    HW1 8834   0.016  12.390   7.580  0.5242  0.7893  0.3522
32840SOL    HW2 8835   0.095  12.486   7.494  0.4777  0.9712  0.5121
32841SOL     OW 8836   3.878  10.954   8.741  0.4355 -0.1952  0.0436
32841SOL    HW1 8837   3.941  10.993   8.801 -1.0800 -0.3224  1.7951
32841SOL    HW2 8838   3.890  10.859   8.752  0.4937 -0.2202 -0.2289
32842SOL     OW 8839  10.641   2.170   6.203  0.4508 -0.2932  0.0154
32842SOL    HW1 8840  10.683   2.195   6.286 -3.5446 -1.4644  2.6906
32842SOL    HW2 8841  10.659   2.077   6.195  0.5378 -0.2532 -0.2486
32843SOL     OW 8842  12.685   5.697  11.110  0.3001 -0.4153 -0.4667
32843SOL    HW1 8843  12.642   5.777  11.081 -0.6951 -0.4306  0.8615
32843SOL    HW2 8844  12.621   5.628  11.094  1.6288 -1.2169 -2.8302
32844SOL     OW 8845   3.033   6.293   0.103  0.4058  0.3202 -0.2898
32844SOL    HW1 8846   2.961   6.316   0.162  0.4092 -1.5456  0.5135
32844SOL    HW2 8847   2.996   6.303   0.015  0.4597  3.3229 -0.0763
32845SOL     OW 8848   3.052   5.558  11.167  0.3114  0.4202 -0.3885
32845SOL    HW1 8849   3.029   5.647  11.143 -1.3466 -0.3653 -1.9379
32845SOL    HW2 8850   3.022   5.504  11.093  0.3257 -1.5169  0.9380
32846SOL     OW 8851   5.759   6.943   5.076  0.0685  0.2025  0.6085
32846SOL    HW1 8852   5.732   7.015   5.132  0.5516 -0.1554  1.3161
32846SOL    HW2 8853   5.791   6.876   5.136  0.3427 -0.3005 -0.0781
32847SOL     OW 8854   1.446   8.921   9.089  0.3231  0.0466 -0.5225
32847SOL    HW1 8855   1.519   8.983   9.088  1.1737 -0.9422 -1.3938
32847SOL    HW2 8856   1.428   8.906   9.182 -0.4687  2.2007 -0.2556
32848SOL     OW 8857  10.651   0.051   1.775  0.5715 -0.0033 -0.4669
32848SOL    HW1 8858  10.648   0.049   1.870 -0.2906  1.7432 -0.4252
32848SOL    HW2 8859  10.559   0.048   1.749  0.6266  2.3783 -1.1236
32849SOL     OW 8860   7.907   7.990   2.308 -0.2059  0.3384  0.0986
32849SOL    HW1 8861   7.975   7.922   2.314 -0.5767 -0.0340  0.1560
32849SOL    HW2 8862   7.881   7.989   2.216 -0.9679 -0.3585  0.3070
32850SOL     OW 8863   0.450   0.695   1.633 -0.1415 -0.3330  0.2004
32850SOL    HW1 8864   0.418   0.721   1.547 -0.6021 -2.4110 -0.3147
32850SOL    HW2 8865   0.482   0.776   1.673 -2.6775  1.2401 -0.7149
32851SOL     OW 8866   0.567   5.596  10.919 -0.3892  0.1877  0.2531
32851SOL    HW1 8867   0.589   5.625  10.831 -0.2210  1.0790  0.5781
32851SOL    HW2 8868   0.638   5.629  10.974 -0.2100 -0.8127  0.6546
32852SOL     OW 8869   5.041   1.421   5.834  0.1016  0.6179 -0.3268
32852SOL    HW1 8870   4.984   1.358   5.877 -1.0005  1.5675 -0.3537
32852SOL    HW2 8871   5.024   1.408   5.740  2.8521 -1.7858 -0.6411
32853SOL     OW 8872   2.193   7.455  11.627  0.2235 -0.7989 -0.3882
32853SOL    HW1 8873   2.191   7.379  11.685 -1.3449 -0.7121 -0.2752
32853SOL    HW2 8874   2.137   7.431  11.553 -0.4635  0.3002 -0.2457
32854SOL     OW 8875   4.035   1.252   6.828 -0.6094 -0.7836  0.3662
32854SOL    HW1 8876   4.115   1.203   6.847 -0.7648 -0.7536  1.1275
32854SOL    HW2 8877   4.038   1.266   6.733  0.7201 -0.0167  0.4948
32855SOL     OW 8878   5.142   5.941   8.415  0.1331  0.4523  0.5762
32855SOL    HW1 8879   5.092   5.963   8.337 -0.1115 -1.7077  0.0836
32855SOL    HW2 8880   5.081   5.953   8.487 -0.7472 -0.9919  0.0899
32856SOL     OW 8881  10.636  10.519   1.843 -0.6018 -0.3146  0.0610
32856SOL    HW1 8882  10.712  10.578   1.846 -0.1867 -0.7882 -0.7134
32856SOL    HW2 8883  10.605  10.516   1.933  0.7718 -0.7015  0.5535
32857SOL     OW 8884   8.409   9.291   2.008 -0.3979 -0.0134  0.1997
32857SOL    HW1 8885   8.409   9.295   2.103  0.6023 -0.6492  0.2377
32857SOL    HW2 8886   8.322   9.323   1.983 -0.6806  0.1357  1.3170
32858SOL     OW 8887   6.545   9.336   8.231 -0.1227  0.6302  0.1165
32858SOL    HW1 8888   6.468   9.289   8.262  1.4047 -0.2334  3.0052
32858SOL    HW2 8889   6.518   9.376   8.148 -3.3715 -0.2670  0.6226
32859SOL     OW 8890  11.741   0.541   5.682  0.0060  0.2128  0.1005
32859SOL    HW1 8891  11.661   0.590   5.700 -0.0453  0.5679 -1.0235
32859SOL    HW2 8892  11.784   0.590   5.611  0.4680 -0.7879 -0.3310
32860SOL     OW 8893   0.671  10.092  11.974  0.0634  0.0054 -0.3391
32860SOL    HW1 8894   0.639  10.010  11.936 -1.4202 -0.5658  1.9413
32860SOL    HW2 8895   0.751  10.067  12.020 -0.3061 -0.1622  0.2262
32861SOL     OW 8896  10.950   7.699   6.650  0.4517 -0.1771  0.6745
32861SOL    HW1 8897  10.882   7.765   6.647  0.5527 -0.0526  1.0690
32861SOL    HW2 8898  10.981   7.691   6.560  1.6137  1.5408  0.8776
32862SOL     OW 8899  12.787   0.830   0.731 -0.3694 -0.1808 -0.4076
32862SOL    HW1 8900  12.790   0.743   0.771  1.9681  0.4702  1.0257
32862SOL    HW2 8901  12.807   0.815   0.638  0.4840 -1.1312 -0.0791
32863SOL     OW 8902   2.971   4.146   8.021  0.1312  0.1440 -0.0740
32863SOL    HW1 8903   2.914   4.079   7.984 -1.3940  0.1615  2.0484
32863SOL    HW2 8904   3.009   4.190   7.945 -0.5497 -1.6578 -1.5312
32864SOL     OW 8905  11.758   7.790   5.747 -0.4948  0.1625  0.0966
32864SOL    HW1 8906  11.690   7.855   5.728  0.2032  0.8585 -0.0554
32864SOL    HW2 8907  11.752   7.728   5.674 -0.5708  0.5455 -0.2250
32865SOL     OW 8908   5.096   9.128   6.579 -0.5408 -0.3739 -0.5788
32865SOL    HW1 8909   5.010   9.140   6.621  0.2076 -0.1202  0.9527
32865SOL    HW2 8910   5.091   9.040   6.540 -0.9317 -1.0658  0.9533
32866SOL     OW 8911   0.473  10.215   5.718 -0.0479 -0.0861  0.0262
32866SOL    HW1 8912   0.405  10.237   5.655 -1.5028 -1.8378  0.8855
32866SOL    HW2 8913   0.554  10.218   5.668 -0.5103  3.3589 -0.7232
32867SOL     OW 8914  10.203  11.038   1.601 -0.3371  0.1818 -0.4468
32867SOL    HW1 8915  10.245  10.972   1.545  0.6713  0.3252  0.1112
32867SOL    HW2 8916  10.204  10.999   1.689 -0.5738  0.5603 -0.2733
32868SOL     OW 8917   5.754   1.902  12.796 -0.2389 -0.5822 -0.5918
32868SOL    HW1 8918   5.760   1.892  12.701  2.1850 -2.3857 -0.3505
32868SOL    HW2 8919   5.838   1.870  12.829 -0.5939  0.9478  2.1209
32869SOL     OW 8920   6.672   7.893   2.043 -0.3517  0.1983  0.4918
32869SOL    HW1 8921   6.597   7.882   1.984  0.4010  0.4775 -0.5330
32869SOL    HW2 8922   6.640   7.861   2.127 -1.7527  0.6708  0.1696
32870SOL     OW 8923   4.368   3.390   2.707  0.3385 -0.4060 -0.0118
32870SOL    HW1 8924   4.287   3.400   2.657  0.7494 -1.4807 -0.9187
32870SOL    HW2 8925   4.339   3.393   2.799 -0.4893  0.9804 -0.2811
32871SOL     OW 8926  10.056   3.165   0.706 -0.2807  0.3029  0.6174
32871SOL    HW1 8927  10.016   3.225   0.643 -1.8797 -0.1971  1.1132
32871SOL    HW2 8928  10.133   3.131   0.661 -1.3861 -0.0648 -1.1155
32872SOL     OW 8929   7.872   1.255  10.669 -0.8354  0.3320  0.4737
32872SOL    HW1 8930   7.841   1.345  10.658  0.0606  0.5662 -0.3891
32872SOL    HW2 8931   7.952   1.263  10.720 -0.0748  0.1802 -0.6507
32873SOL     OW 8932   3.338   1.899   6.124 -0.4048  0.4415 -0.0149
32873SOL    HW1 8933   3.415   1.890   6.181 -0.6212  0.3977  0.2718
32873SOL    HW2 8934   3.375   1.911   6.036 -0.0353  2.0227  0.3215
32874SOL     OW 8935   9.506   9.131   8.158  0.2778  0.7780  0.1382
32874SOL    HW1 8936   9.418   9.135   8.194 -0.9008 -0.5866 -2.3986
32874SOL    HW2 8937   9.541   9.048   8.190  0.4479  1.0466  0.6647
32875SOL     OW 8938   6.382   8.169  10.297  0.2269  0.1838 -0.1363
32875SOL    HW1 8939   6.464   8.128  10.323  0.5837 -0.4141 -2.0055
32875SOL    HW2 8940   6.338   8.190  10.379  2.0038  0.0461  0.9063
32876SOL     OW 8941  12.735   8.071   4.374  0.4190 -0.0328  0.0089
32876SOL    HW1 8942  12.787   7.996   4.402 -0.9373 -0.7689  0.6658
32876SOL    HW2 8943  12.786   8.147   4.401  2.2700 -0.6569 -1.5209
32877SOL     OW 8944   2.196  11.251   1.706 -0.5442 -0.1662  0.0296
32877SOL    HW1 8945   2.291  11.261   1.703 -0.5969  0.7915  1.1090
32877SOL    HW2 8946   2.181  11.174   1.760 -0.3527 -1.9549 -2.2842
32878SOL     OW 8947   4.734   2.091   2.964  0.4085 -0.5385  0.0686
32878SOL    HW1 8948   4.829   2.091   2.978  0.3943 -2.9021  0.4585
32878SOL    HW2 8949   4.697   2.061   3.047 -0.7798  1.1609  0.2103
32879SOL     OW 8950   4.200   3.796   2.663  0.0369  0.0774  0.2478
32879SOL    HW1 8951   4.266   3.833   2.721 -1.0867  2.3076  0.1877
32879SOL    HW2 8952   4.163   3.722   2.712  0.7911  0.3923  1.3243
32880SOL     OW 8953   4.756   2.728   9.994  0.2448  0.2324 -0.2105
32880SOL    HW1 8954   4.821   2.791  10.026  0.2242  0.3773 -0.4558
32880SOL    HW2 8955   4.675   2.778   9.987  0.5465  0.5503 -1.7856
32881SOL     OW 8956  11.343   0.402   4.752 -0.0049 -0.0943 -0.7558
32881SOL    HW1 8957  11.252   0.430   4.741 -1.0295 -1.6596  2.4171
32881SOL    HW2 8958  11.344   0.311   4.721  0.4955 -0.0777 -0.8020
32882SOL     OW 8959   8.247   7.359   4.131  0.1431  0.3562  0.1346
32882SOL    HW1 8960   8.159   7.380   4.102  0.5864  0.9321 -0.8322
32882SOL    HW2 8961   8.304   7.391   4.061  1.2572  1.7541  1.5933
32883SOL     OW 8962   7.401   4.384   5.760  0.4012  0.5807  0.4927
32883SOL    HW1 8963   7.368   4.311   5.813  3.0176 -0.2521  1.1273
32883SOL    HW2 8964   7.401   4.459   5.819  0.3950  0.3899  0.7385
32884SOL     OW 8965   2.945   9.949  10.770  0.7794 -0.4236 -0.0311
32884SOL    HW1 8966   2.906   9.980  10.851  1.1206  2.4404 -0.8443
32884SOL    HW2 8967   2.927   9.855  10.769 -3.1174  0.1222  1.2376
32885SOL     OW 8968   2.288   5.456   2.547 -0.1085 -0.4049 -0.2187
32885SOL    HW1 8969   2.254   5.367   2.552 -0.6010 -0.2816 -1.0589
32885SOL    HW2 8970   2.350   5.454   2.475  0.9479 -0.3848  0.6646
32886SOL     OW 8971  10.060   3.303   6.636 -0.4112 -0.0870  0.0238
32886SOL    HW1 8972  10.016   3.293   6.720  0.1488  0.3595  0.3740
32886SOL    HW2 8973  10.019   3.237   6.580  0.0675 -1.2464  1.0003
32887SOL     OW 8974  11.187   9.216   4.512  0.2054 -0.2060 -0.4730
32887SOL    HW1 8975  11.123   9.159   4.470 -0.3107  0.7457 -1.0105
32887SOL    HW2 8976  11.172   9.206   4.606  0.6080 -1.4890 -0.5246
32888SOL     OW 8977   0.127  11.589   4.162 -0.0303  0.0301 -0.3598
32888SOL    HW1 8978   0.149  11.532   4.088 -1.9032 -1.1233 -0.0920
32888SOL    HW2 8979   0.208  11.637   4.180  1.2449 -1.5934 -1.4598
32889SOL     OW 8980  12.581  11.765   9.006  0.0049  0.0660 -0.4461
32889SOL    HW1 8981  12.605  11.734   9.093  0.1343 -1.4393 -0.9856
32889SOL    HW2 8982  12.535  11.847   9.022  0.2357 -0.0550  1.0185
32890SOL     OW 8983   3.219   2.718   5.546  0.0355  0.0216 -0.3828
32890SOL    HW1 8984   3.260   2.705   5.460  2.1767  1.8626  0.2860
32890SOL    HW2 8985   3.194   2.630   5.573  2.3665 -1.0753 -1.4566
32891SOL     OW 8986  12.903   6.118   7.066  0.3419  0.2995  0.0995
32891SOL    HW1 8987  12.836   6.134   7.133  1.0886 -1.4824  1.3554
32891SOL    HW2 8988  12.983   6.154   7.104  0.5903  0.0934 -0.2320
32892SOL     OW 8989   5.308  12.713   3.211  0.7130 -0.4030 -0.0873
32892SOL    HW1 8990   5.338  12.634   3.255  0.5209 -0.1452  0.5184
32892SOL    HW2 8991   5.233  12.743   3.263  1.5611  0.8893  0.4507
32893SOL     OW 8992  11.984   7.762  12.924  0.3808  0.5881 -0.0245
32893SOL    HW1 8993  11.957   7.725  12.840 -0.0815 -3.0261  1.5277
32893SOL    HW2 8994  11.958   7.854  12.920 -1.0895  0.1530 -3.1726
32894SOL     OW 8995  12.633   9.882   5.348 -0.2801  0.0634 -0.2766
32894SOL    HW1 8996  12.546   9.899   5.386 -0.0233  1.4032 -0.2212
32894SOL    HW2 8997  12.693   9.934   5.402  0.3060  0.6748 -1.4734
32895SOL     OW 8998  11.228   7.213  10.044  0.4462  0.2057  0.1147
32895SOL    HW1 8999  11.203   7.273   9.974  1.7695 -0.9388 -1.4135
32895SOL    HW2 9000  11.268   7.139   9.999  0.7782 -0.8689  2.0667
32896SOL     OW 9001  12.864   1.600   7.569  0.0825  0.2215 -0.2758
32896SOL    HW1 9002  12.945   1.629   7.528 -1.2339  1.0761 -2.4493
32896SOL    HW2 9003  12.825   1.680   7.605 -0.6307  0.1395 -0.8366
32897SOL     OW 9004   4.109   6.207   1.638  0.3384  0.2506 -0.9551
32897SOL    HW1 9005   4.094   6.150   1.714  2.2620  0.6776 -0.1990
32897SOL    HW2 9006   4.125   6.293   1.676 -1.0993  1.0228 -2.0174
32898SOL     OW 9007   9.372  12.307  12.102 -0.0973  0.0437  0.1765
32898SOL    HW1 9008   9.401  12.291  12.013 -1.8819 -1.9084 -0.1579
32898SOL    HW2 9009   9.383  12.223  12.146 -1.1500  0.4043  1.1877
32899SOL     OW 9010   2.390  11.526   8.107  0.9926 -0.0178 -0.6649
32899SOL    HW1 9011   2.476  11.490   8.085  0.8518 -1.7028  1.2402
32899SOL    HW2 9012   2.390  11.533   8.202 -1.4217 -1.2861 -0.4873
32900SOL     OW 9013   3.336   3.622   7.284  0.1368 -0.4007  0.2180
32900SOL    HW1 9014   3.396   3.689   7.252 -0.0491  0.0901  0.8637
32900SOL    HW2 9015   3.382   3.539   7.271  0.1363 -0.2123 -1.1266
32901SOL     OW 9016   6.128  12.567   6.772 -0.2749  0.3532 -0.5939
32901SOL    HW1 9017   6.083  12.528   6.697  0.8891 -3.3167  0.4026
32901SOL    HW2 9018   6.059  12.585   6.835 -1.0375  1.6639 -1.7367
32902SOL     OW 9019   1.800   5.984   5.960 -0.0128 -0.2565 -0.1511
32902SOL    HW1 9020   1.884   5.984   5.915  1.1863  1.3896  1.8659
32902SOL    HW2 9021   1.753   6.059   5.924  0.1377 -0.1074 -0.0392
32903SOL     OW 9022  10.358   5.703   7.450 -1.1424  0.2449 -0.2363
32903SOL    HW1 9023  10.453   5.714   7.450 -0.9543 -1.2372 -0.3761
32903SOL    HW2 9024  10.344   5.611   7.471 -2.5517  0.4097 -0.3524
32904SOL     OW 9025   0.580   6.316   8.643 -0.2571  0.3117  0.1849
32904SOL    HW1 9026   0.590   6.402   8.683  2.1847  1.1082 -1.8354
32904SOL    HW2 9027   0.646   6.261   8.685 -0.8276 -0.1920  0.4516
32905SOL     OW 9028  11.628   6.129  12.072 -0.2347 -0.1624  0.2488
32905SOL    HW1 9029  11.565   6.079  12.020 -1.1002  1.7677 -0.6602
32905SOL    HW2 9030  11.575   6.174  12.137  0.1748  1.4569 -0.5013
32906SOL     OW 9031  10.283   0.501   4.723 -0.2477  0.4752 -0.6474
32906SOL    HW1 9032  10.217   0.445   4.764  0.9636  1.0590  2.3437
32906SOL    HW2 9033  10.319   0.447   4.652 -2.5321 -0.5674 -1.1196
32907SOL     OW 9034   7.057   8.962   1.384  0.0918  0.6685  0.4624
32907SOL    HW1 9035   7.083   8.952   1.292  0.0340  2.1966  0.2515
32907SOL    HW2 9036   7.045   9.056   1.395 -0.8606  0.4169  1.7894
32908SOL     OW 9037  12.110   4.000   0.555 -0.2518  0.3891  0.0752
32908SOL    HW1 9038  12.075   4.087   0.575  3.2101  2.0238 -0.2541
32908SOL    HW2 9039  12.121   4.000   0.460 -1.1382 -0.8628 -0.0589
32909SOL     OW 9040   7.202   6.741   3.296 -0.6060  0.2469 -0.0222
32909SOL    HW1 9041   7.223   6.688   3.219  0.4420  0.1784  0.3016
32909SOL    HW2 9042   7.139   6.806   3.264 -0.9402 -0.3985 -0.7030
32910SOL     OW 9043   7.227   4.767   1.424  0.9805  0.2490 -0.2897
32910SOL    HW1 9044   7.301   4.771   1.484 -0.4064 -0.2933  1.5834
32910SOL    HW2 9045   7.194   4.858   1.421  1.6379  0.4681 -1.0386
32911SOL     OW 9046  10.988   1.159   0.575  0.0737 -0.0751 -0.2420
32911SOL    HW1 9047  10.928   1.230   0.598  2.5054  2.3461 -0.8649
32911SOL    HW2 9048  11.019   1.181   0.487  2.8115 -0.4547  0.5280
32912SOL     OW 9049   7.413   3.190   7.722  0.2702  0.1366 -0.7704
32912SOL    HW1 9050   7.490   3.231   7.682  0.5494  0.0822 -0.2907
32912SOL    HW2 9051   7.407   3.104   7.680  0.1598  0.3462 -1.1900
32913SOL     OW 9052   7.655  12.090   7.154  0.5920 -0.4561 -0.1027
32913SOL    HW1 9053   7.662  11.995   7.166 -0.5322 -0.6856 -1.0283
32913SOL    HW2 9054   7.582  12.101   7.093 -0.1124  1.0752  0.9456
32914SOL     OW 9055  10.290   4.425   0.421  0.0726 -0.6126 -0.0584
32914SOL    HW1 9056  10.217   4.415   0.360 -0.5765 -1.8919  0.8878
32914SOL    HW2 9057  10.280   4.513   0.456 -1.3290 -0.9268  0.4138
32915SOL     OW 9058  11.788   4.432   1.565  0.1087  0.1899  0.0692
32915SOL    HW1 9059  11.735   4.504   1.530  1.9872  0.9901 -1.3211
32915SOL    HW2 9060  11.817   4.463   1.651  1.2919  1.3857 -0.7071
32916SOL     OW 9061   8.919   7.631   4.671 -0.1476  0.2540 -0.0580
32916SOL    HW1 9062   8.832   7.671   4.675  0.6359  2.0273  0.3459
32916SOL    HW2 9063   8.970   7.690   4.616  1.2275  0.1046  1.0088
32917SOL     OW 9064  11.541   8.684  12.521 -0.8621  0.2494  0.2779
32917SOL    HW1 9065  11.635   8.666  12.512 -0.7107  0.4374  1.4235
32917SOL    HW2 9066  11.503   8.644  12.442  0.0638 -0.6455  0.2469
32918SOL     OW 9067   4.753   9.689   4.589 -0.1053 -0.8967  0.0080
32918SOL    HW1 9068   4.806   9.690   4.510 -2.0701  1.4915 -1.3977
32918SOL    HW2 9069   4.714   9.601   4.590  1.4156 -1.6096 -0.5836
32919SOL     OW 9070  12.456   8.903   0.644 -0.0790 -0.1423 -0.2236
32919SOL    HW1 9071  12.497   8.909   0.557  1.4693 -1.2187  0.3827
32919SOL    HW2 9072  12.451   8.809   0.661  1.6811  0.0595  1.7390
32920SOL     OW 9073   5.171   9.398   6.351  0.5199 -0.1533  0.5779
32920SOL    HW1 9074   5.252   9.447   6.339  1.3051 -0.3373  4.0080
32920SOL    HW2 9075   5.191   9.309   6.323  0.7417  0.2874 -0.7158
32921SOL     OW 9076   5.114   9.390  11.806  0.0360 -0.2566  0.1864
32921SOL    HW1 9077   5.082   9.453  11.871 -1.4034 -0.7012 -0.0549
32921SOL    HW2 9078   5.067   9.413  11.726 -0.6878 -1.7586  0.1510
32922SOL     OW 9079   6.779   9.431   8.212  0.6434  0.0328  0.0642
32922SOL    HW1 9080   6.709   9.368   8.197  0.6651  0.1029 -0.3288
32922SOL    HW2 9081   6.742   9.493   8.275  1.2545 -1.4290  1.9565
32923SOL     OW 9082  12.578   0.934   0.554  0.3038  0.2314  0.0525
32923SOL    HW1 9083  12.501   0.930   0.610 -0.7232  0.9780 -1.2628
32923SOL    HW2 9084  12.609   0.843   0.550 -0.8693 -0.1890  0.1130
32924SOL     OW 9085  11.456   7.462   5.559 -0.2875  0.1670  0.0691
32924SOL    HW1 9086  11.361   7.470   5.563 -0.2242  2.9252 -1.1956
32924SOL    HW2 9087  11.488   7.507   5.637 -0.0760  2.5971 -1.2853
32925SOL     OW 9088   8.942  12.551   8.236  0.5195 -0.0770 -0.5515
32925SOL    HW1 9089   8.955  12.458   8.217  0.4545 -0.2462  0.2019
32925SOL    HW2 9090   8.853  12.557   8.269  0.8553  0.0836  0.3648
32926SOL     OW 9091   8.354  10.169   3.798 -0.4307  0.0869 -0.0528
32926SOL    HW1 9092   8.383  10.113   3.870 -0.6831 -0.0619 -0.0648
32926SOL    HW2 9093   8.260  10.152   3.791 -0.2175 -0.6816 -1.1169
32927SOL     OW 9094   1.413   0.496   5.191 -0.4141  0.9539  0.1563
32927SOL    HW1 9095   1.424   0.559   5.120  0.9952  1.6353  0.9509
32927SOL    HW2 9096   1.447   0.540   5.268 -1.2716 -0.0448  1.1333
32928SOL     OW 9097   0.479   1.799   8.888  0.3805  0.1821 -0.2085
32928SOL    HW1 9098   0.551   1.786   8.826 -0.3408  0.8391 -1.1935
32928SOL    HW2 9099   0.436   1.880   8.860  0.1704  0.6334  1.2851
32929SOL     OW 9100   0.209   4.468   8.577 -0.7927 -0.2709 -0.0019
32929SOL    HW1 9101   0.230   4.504   8.491  0.6862 -0.9342  0.0646
32929SOL    HW2 9102   0.282   4.411   8.598 -2.2650 -2.0212  0.6510
32930SOL     OW 9103  12.087   6.006   4.501  0.2709 -0.1531 -0.2325
32930SOL    HW1 9104  12.087   6.080   4.440  0.4350 -0.7239 -0.9517
32930SOL    HW2 9105  12.155   5.947   4.466  1.3492  0.1233  1.2802
32931SOL     OW 9106   5.175   7.632  10.330 -0.3819 -0.1268  0.7032
32931SOL    HW1 9107   5.211   7.647  10.243 -0.6627 -3.0495 -0.0076
32931SOL    HW2 9108   5.249   7.644  10.389  0.2668  0.0096 -0.1235
32932SOL     OW 9109   9.362  11.863   0.653  0.3392  0.0212 -0.2628
32932SOL    HW1 9110   9.279  11.868   0.701  1.0936 -0.4603  1.1523
32932SOL    HW2 9111   9.355  11.784   0.600 -0.2347  0.1749 -0.4189
32933SOL     OW 9112   3.366  12.575   3.701 -0.1977 -0.3870 -0.1211
32933SOL    HW1 9113   3.360  12.643   3.634 -1.2777  0.8309  1.1592
32933SOL    HW2 9114   3.321  12.611   3.777 -0.1396 -2.2428  0.8654
32934SOL     OW 9115   4.830   2.139  10.137 -0.2333  0.4779 -0.2010
32934SOL    HW1 9116   4.736   2.153  10.147 -0.2226  0.5635 -0.2255
32934SOL    HW2 9117   4.870   2.221  10.166 -0.2210  0.9490 -1.5035
32935SOL     OW 9118   1.360  10.016  12.196  0.3084  0.1782  0.0663
32935SOL    HW1 9119   1.342   9.961  12.273  1.7633  0.5055  0.6641
32935SOL    HW2 9120   1.361  10.105  12.230 -1.1917  0.5455 -0.7518
32936SOL     OW 9121   0.512   4.117   6.771  0.3087 -0.5063 -0.5336
32936SOL    HW1 9122   0.425   4.101   6.809  0.5884  0.6071  0.6711
32936SOL    HW2 9123   0.571   4.113   6.846  1.1973 -0.4354 -1.2156
32937SOL     OW 9124   0.213   7.998  11.302 -0.5048 -0.1905  0.6019
32937SOL    HW1 9125   0.200   7.938  11.228 -0.1576 -0.0114  0.3962
32937SOL    HW2 9126   0.150   8.069  11.286  1.0584  0.9770 -0.7083
32938SOL     OW 9127  10.097   5.783   9.760  0.0213 -0.1909  0.2916
32938SOL    HW1 9128  10.036   5.725   9.805 -0.4827  0.4538  0.4556
32938SOL    HW2 9129  10.141   5.727   9.696 -3.2614 -0.0430 -2.3498
32939SOL     OW 9130   2.323   5.156   8.770  0.2907  0.4562  0.0167
32939SOL    HW1 9131   2.364   5.103   8.838  0.3313 -2.2001 -1.8980
32939SOL    HW2 9132   2.229   5.144   8.784  0.2869  0.4990  0.0276
32940SOL     OW 9133  10.187   8.694   9.011  0.1056 -0.0900 -0.3543
32940SOL    HW1 9134  10.186   8.614   9.064 -0.0906  1.0540  1.4521
32940SOL    HW2 9135  10.264   8.742   9.043  0.1654  0.4931 -1.3552
32941SOL     OW 9136  12.220   5.354  10.353 -0.3671 -0.0519 -0.1423
32941SOL    HW1 9137  12.297   5.411  10.345 -0.6744  0.3028 -0.6351
32941SOL    HW2 9138  12.249   5.281  10.407  0.1322  0.4127  0.2287
32942SOL     OW 9139   1.339  12.419   5.871  0.5444 -0.0502 -0.1292
32942SOL    HW1 9140   1.422  12.451   5.835  0.2342  0.3707 -0.4834
32942SOL    HW2 9141   1.361  12.391   5.960  1.0842 -0.0306 -0.2510
32943SOL     OW 9142   8.292   7.816   2.145 -0.4229  0.0591  0.3361
32943SOL    HW1 9143   8.249   7.790   2.064  1.3378 -0.0264 -0.6075
32943SOL    HW2 9144   8.237   7.886   2.179 -2.4469 -1.4057  0.2979
32944SOL     OW 9145   0.538   6.860  10.766 -0.5173  0.2242  0.4370
32944SOL    HW1 9146   0.524   6.765  10.763  0.1476  0.1353 -0.3204
32944SOL    HW2 9147   0.546   6.880  10.859  0.3338 -0.6218  0.5641
32945SOL     OW 9148   7.227  10.521  10.263 -0.2013  0.1197 -0.5861
32945SOL    HW1 9149   7.223  10.566  10.178 -0.8642  0.7358 -0.2369
32945SOL    HW2 9150   7.286  10.447  10.248 -0.3097  0.2245 -1.5803
32946SOL     OW 9151   5.320  11.854  11.328  0.9968 -0.2748  0.0516
32946SOL    HW1 9152   5.355  11.766  11.343  1.6299 -0.1624 -0.7255
32946SOL    HW2 9153   5.228  11.839  11.305  0.7926 -0.6440  1.0690
32947SOL     OW 9154   6.414   1.118   5.594  0.9159 -0.3130 -0.0600
32947SOL    HW1 9155   6.398   1.075   5.678 -0.0891  0.4985  0.1852
32947SOL    HW2 9156   6.489   1.176   5.610  0.9290 -0.3993  0.1872
32948SOL     OW 9157  12.952   3.413   5.074  0.3769  0.0646  0.1912
32948SOL    HW1 9158  12.866   3.404   5.115  1.1759 -0.2534  1.8566
32948SOL    HW2 9159  12.976   3.505   5.089  0.6499 -0.0380  0.3857
32949SOL     OW 9160   1.094   4.544   9.968 -0.0031  0.4931 -0.1780
32949SOL    HW1 9161   1.035   4.472   9.988  1.7638 -0.9598  0.0649
32949SOL    HW2 9162   1.036   4.619   9.952 -1.8986 -0.9741 -0.5248
32950SOL     OW 9163   0.387  10.424  11.981  0.3504 -0.0962 -0.2020
32950SOL    HW1 9164   0.473  10.393  11.954 -0.2117  0.0816 -2.4413
32950SOL    HW2 9165   0.373  10.503  11.928 -1.7465 -0.9397 -1.0183
32951SOL     OW 9166  12.698   0.301   5.803  0.1479 -0.3776  0.1412
32951SOL    HW1 9167  12.606   0.300   5.777 -0.3576 -0.5077  1.8181
32951SOL    HW2 9168  12.706   0.231   5.867  1.5247 -0.6261 -0.2646
32952SOL     OW 9169   4.891   1.542   2.893  0.1895  0.0143  0.1483
32952SOL    HW1 9170   4.840   1.606   2.844  0.1279 -0.0664  0.1068
32952SOL    HW2 9171   4.914   1.475   2.829 -2.4158 -1.6586  0.7823
32953SOL     OW 9172   4.123   0.776   7.807 -0.1211 -0.3345  0.3402
32953SOL    HW1 9173   4.187   0.706   7.807 -0.1336 -0.3621  1.4353
32953SOL    HW2 9174   4.175   0.856   7.805 -0.1176 -0.3408 -1.9219
32954SOL     OW 9175   6.622   3.803   7.713 -0.2399  0.1626  0.1592
32954SOL    HW1 9176   6.593   3.789   7.624  0.8474 -1.9361  0.0824
32954SOL    HW2 9177   6.591   3.727   7.762 -0.8513  1.2841  1.6142
32955SOL     OW 9178   2.359  12.641   7.377 -0.4840  0.0904  0.5225
32955SOL    HW1 9179   2.434  12.689   7.342 -1.1682  2.3154  1.9060
32955SOL    HW2 9180   2.283  12.692   7.348 -1.3667 -1.0637  0.7368
32956SOL     OW 9181  10.293  11.723   5.509  0.0813  0.6737 -0.4992
32956SOL    HW1 9182  10.322  11.644   5.462  1.8226  0.9108  0.1260
32956SOL    HW2 9183  10.360  11.737   5.576 -0.9293  1.9177  0.2833
32957SOL     OW 9184   5.365   7.013   3.748 -0.6850  0.1818  0.1127
32957SOL    HW1 9185   5.443   6.972   3.783 -0.4783 -0.6962 -1.3001
32957SOL    HW2 9186   5.346   6.964   3.667 -2.9682  0.0388  0.6604
32958SOL     OW 9187   7.583   4.725   4.223  0.1749  0.5066 -0.1827
32958SOL    HW1 9188   7.615   4.815   4.219  2.3187 -0.1830  0.1114
32958SOL    HW2 9189   7.662   4.672   4.236 -1.0399 -1.4131 -0.2249
32959SOL     OW 9190  11.337  11.518   0.771 -0.2842 -0.1322 -0.4385
32959SOL    HW1 9191  11.280  11.511   0.847  0.2578  0.5536  0.0461
32959SOL    HW2 9192  11.311  11.445   0.714  0.1373 -1.4187  0.9564
32960SOL     OW 9193   8.111   1.334   0.857  0.1859 -0.5377 -0.1001
32960SOL    HW1 9194   8.195   1.344   0.813 -0.0765  0.5142 -0.3755
32960SOL    HW2 9195   8.116   1.393   0.932 -1.5953  2.3649 -2.0719
32961SOL     OW 9196   1.970   7.989   1.524 -0.3568  0.8463 -0.4336
32961SOL    HW1 9197   1.969   8.050   1.597 -0.2198  0.4955 -0.1399
32961SOL    HW2 9198   2.018   8.035   1.455  2.3270 -0.0275  0.7433
32962SOL     OW 9199   8.783   8.566   0.428 -0.3292  0.1221  0.5445
32962SOL    HW1 9200   8.818   8.528   0.347 -2.4460 -0.9065  0.0563
32962SOL    HW2 9201   8.861   8.592   0.477  1.1044 -1.3400 -0.8177
32963SOL     OW 9202   2.945   5.026  10.687 -0.3617 -0.2922 -0.2660
32963SOL    HW1 9203   3.008   5.096  10.706 -0.4029 -0.3684  0.1566
32963SOL    HW2 9204   2.940   5.025  10.591  0.6629 -0.6281 -0.3314
32964SOL     OW 9205   0.353   7.953   5.772 -0.0777 -0.0636 -0.3159
32964SOL    HW1 9206   0.388   8.015   5.836  1.1691 -0.0333 -0.9819
32964SOL    HW2 9207   0.401   7.973   5.691 -0.0670 -1.5032 -0.6931
32965SOL     OW 9208  12.317  12.264  10.795  0.1798 -0.0713 -0.2353
32965SOL    HW1 9209  12.328  12.215  10.876 -0.6556 -0.7872 -0.5401
32965SOL    HW2 9210  12.397  12.248  10.746  0.1420 -0.6762 -0.0971
32966SOL     OW 9211   5.910   7.741   4.801 -0.0612  0.0104 -0.1944
32966SOL    HW1 9212   5.969   7.811   4.829  0.0968 -0.1868 -0.0364
32966SOL    HW2 9213   5.916   7.675   4.870 -0.2199 -0.1542 -0.3367
32967SOL     OW 9214   1.159   8.568   5.859  0.4438  0.4549  0.5079
32967SOL    HW1 9215   1.101   8.539   5.930 -1.0366 -1.7069 -1.4606
32967SOL    HW2 9216   1.238   8.515   5.870  0.3635  0.3757  0.7212
32968SOL     OW 9217  12.397   1.720   2.207 -0.5106  0.1584  1.0171
32968SOL    HW1 9218  12.312   1.709   2.164 -0.9453 -0.3376  1.9819
32968SOL    HW2 9219  12.406   1.815   2.218  0.3846  0.4653 -1.6387
32969SOL     OW 9220   5.573   3.127   9.008  0.4400  0.3176 -0.0309
32969SOL    HW1 9221   5.607   3.056   9.062  0.2206 -0.5979 -1.0699
32969SOL    HW2 9222   5.648   3.154   8.954  0.2794  0.2138 -0.3110
32970SOL     OW 9223   0.901   9.184   4.292  0.2970 -0.2233  0.6952
32970SOL    HW1 9224   0.974   9.161   4.234 -0.1102  1.3580 -0.5017
32970SOL    HW2 9225   0.943   9.206   4.375  0.9477 -1.7551  0.8121
32971SOL     OW 9226   8.357  10.956   8.495  0.3103 -0.5350 -0.1465
32971SOL    HW1 9227   8.371  10.899   8.570  0.6590 -1.0431 -0.5888
32971SOL    HW2 9228   8.444  10.988   8.472  0.1906 -0.2887 -0.2609
32972SOL     OW 9229   0.783  12.964   9.703  0.0745 -0.5519  0.2537
32972SOL    HW1 9230   0.865  12.988   9.746  0.6203 -0.9003 -0.5713
32972SOL    HW2 9231   0.809  12.936   9.615 -1.1278  1.4742 -0.8479
32973SOL     OW 9232  10.077  12.833   3.345 -0.4844 -0.1559 -0.0870
32973SOL    HW1 9233  10.007  12.784   3.390 -0.8352  0.3299 -0.0997
32973SOL    HW2 9234  10.111  12.771   3.280  0.8950 -1.3451  1.6591
32974SOL     OW 9235  11.346   6.406  10.100  0.2577  0.1916 -0.6243
32974SOL    HW1 9236  11.349   6.501  10.092  0.9756  0.3129  0.8352
32974SOL    HW2 9237  11.424   6.384  10.151 -0.4667 -1.0850 -0.0348
32975SOL     OW 9238   5.530   9.097   6.673 -0.1449  0.0736 -1.0924
32975SOL    HW1 9239   5.615   9.094   6.717  0.1310  0.4891 -1.5857
32975SOL    HW2 9240   5.539   9.038   6.598  0.3432  1.5316 -2.2202
32976SOL     OW 9241  12.624  11.312   2.169  0.2612  0.0636  0.4489
32976SOL    HW1 9242  12.572  11.376   2.119 -1.1119 -1.8432 -0.7057
32976SOL    HW2 9243  12.562  11.242   2.189  1.8262 -1.1430  1.2231
32977SOL     OW 9244   3.441   2.154   7.088  0.2616 -0.1046 -0.0327
32977SOL    HW1 9245   3.364   2.188   7.041  1.7561  1.1349 -1.7147
32977SOL    HW2 9246   3.437   2.059   7.074 -0.1910  0.0788 -1.3616
32978SOL     OW 9247   7.076  11.565   8.845  0.0581  0.2036  0.2766
32978SOL    HW1 9248   7.096  11.638   8.787 -1.8445  0.8160  0.3142
32978SOL    HW2 9249   7.018  11.602   8.912 -0.6481 -1.2398  0.5155
32979SOL     OW 9250   2.311   2.819   6.454 -0.2618  0.3479 -0.1291
32979SOL    HW1 9251   2.258   2.888   6.494 -0.2636  0.2783 -0.0099
32979SOL    HW2 9252   2.272   2.737   6.485 -1.0821  0.2645 -1.3290
32980SOL     OW 9253   1.326  12.646   0.895 -0.3949 -0.2626 -0.1002
32980SOL    HW1 9254   1.361  12.687   0.816  1.0354 -0.3814  0.4566
32980SOL    HW2 9255   1.295  12.560   0.866  0.5282 -0.4806 -0.4515
32981SOL     OW 9256   1.331   4.210  11.813 -0.3109 -0.1938  0.6677
32981SOL    HW1 9257   1.360   4.301  11.822  1.3220 -0.7837  1.9663
32981SOL    HW2 9258   1.333   4.175  11.902  0.2860 -1.8277  0.0536
32982SOL     OW 9259   6.940  11.407   7.972  0.5945 -0.7300  0.5665
32982SOL    HW1 9260   6.901  11.468   7.909  2.3110  1.2839  1.3402
32982SOL    HW2 9261   6.877  11.403   8.044  0.8094  0.8194  0.8686
32983SOL     OW 9262   5.797   6.717   1.165  0.1261  0.1112  0.2359
32983SOL    HW1 9263   5.711   6.698   1.129 -0.3241  0.2945  1.1794
32983SOL    HW2 9264   5.856   6.714   1.090 -0.3428 -2.1757 -0.1114
32984SOL     OW 9265  10.817   1.713  10.281 -0.1991 -0.5327 -0.7318
32984SOL    HW1 9266  10.799   1.627  10.244 -1.3059 -1.0157  0.8394
32984SOL    HW2 9267  10.741   1.732  10.337  1.0441  0.4707  0.6941
32985SOL     OW 9268   3.901   5.550   6.503  0.1394  0.5653  0.3484
32985SOL    HW1 9269   3.837   5.493   6.461 -1.0115  1.6246  0.5937
32985SOL    HW2 9270   3.981   5.498   6.506 -0.0742 -0.0213 -1.9779
32986SOL     OW 9271   5.913   4.057   3.439  0.0602  0.4107 -0.1648
32986SOL    HW1 9272   5.924   3.963   3.450 -2.4220  0.1957  1.4248
32986SOL    HW2 9273   5.840   4.066   3.378  0.4374  1.3004 -0.5024
32987SOL     OW 9274   2.059   4.776   2.046  0.5654  0.3481  0.0505
32987SOL    HW1 9275   2.009   4.810   2.121  1.1039 -1.0636  1.0830
32987SOL    HW2 9276   2.000   4.712   2.006  0.5232  0.6439 -0.3611
32988SOL     OW 9277   7.722  11.632   0.009 -0.2215  0.7345  0.0510
32988SOL    HW1 9278   7.666  11.602  -0.063  0.9678  0.7884 -0.9355
32988SOL    HW2 9279   7.791  11.682  -0.034  1.6960 -0.9652  0.9795
32989SOL     OW 9280   4.518  11.412  10.900 -0.9456 -0.3770  0.2763
32989SOL    HW1 9281   4.527  11.507  10.907 -0.4950 -0.3877 -0.1070
32989SOL    HW2 9282   4.569  11.389  10.822 -2.8494 -0.6777 -0.9418
32990SOL     OW 9283  10.442   6.117   5.359 -0.0605 -0.0765  0.2484
32990SOL    HW1 9284  10.453   6.178   5.285 -1.4177  0.6919  0.6349
32990SOL    HW2 9285  10.348   6.120   5.378  0.0267 -1.4539  1.0158
32991SOL     OW 9286   0.012   2.233  12.452  0.0948 -0.4736 -0.2717
32991SOL    HW1 9287   0.062   2.231  12.534 -1.8481  1.8192  1.0963
32991SOL    HW2 9288  -0.038   2.151  12.452 -0.1204 -0.3608  1.0345
32992SOL     OW 9289  12.022   1.811   0.634  1.0914 -0.2840  0.6097
32992SOL    HW1 9290  12.093   1.874   0.643  2.5369 -1.8087  0.2960
32992SOL    HW2 9291  11.959   1.836   0.702  1.6983  1.3511  0.6114
32993SOL     OW 9292   8.713   7.705   2.420  0.1035 -0.1691 -0.5325
32993SOL    HW1 9293   8.796   7.742   2.390  0.2472  0.4015  0.5285
32993SOL    HW2 9294   8.649   7.737   2.356  0.4134  0.9576 -0.3084
32994SOL     OW 9295   4.241   3.865  12.027 -0.1162 -0.3364 -0.4622
32994SOL    HW1 9296   4.284   3.782  12.051 -0.7959 -0.3849  0.6530
32994SOL    HW2 9297   4.152   3.840  12.002  0.4834 -0.2517 -2.9020
32995SOL     OW 9298  12.799   1.126   4.259 -0.2666  0.8910 -0.0621
32995SOL    HW1 9299  12.721   1.082   4.292 -0.0949 -0.1388 -0.9631
32995SOL    HW2 9300  12.872   1.074   4.292 -0.0846 -0.0899 -1.8516
32996SOL     OW 9301   4.102   8.077  12.278  0.5604 -0.3123 -0.1606
32996SOL    HW1 9302   4.162   8.003  12.268  0.8299 -0.0343 -0.6121
32996SOL    HW2 9303   4.158   8.154  12.277  0.3180 -0.1111  0.6765
32997SOL     OW 9304   3.942   2.746   5.079 -0.7443 -0.1717 -0.3729
32997SOL    HW1 9305   4.005   2.724   5.010 -0.2320 -1.7988  0.5426
32997SOL    HW2 9306   3.994   2.792   5.145 -0.2658 -2.1505  0.7176
32998SOL     OW 9307   7.760   3.899   3.189  0.1366 -1.0010 -0.0982
32998SOL    HW1 9308   7.723   3.895   3.277 -1.1560  2.8787 -0.2731
32998SOL    HW2 9309   7.852   3.924   3.203 -0.0190 -0.5739  0.1680
32999SOL     OW 9310   5.086   8.531   6.364 -0.3306  0.3897 -0.0269
32999SOL    HW1 9311   5.057   8.462   6.304  2.1141 -0.4320 -0.3814
32999SOL    HW2 9312   5.154   8.578   6.316 -1.5713  2.7800  0.4166
33000SOL     OW 9313   0.401   5.452   0.481 -0.3396 -0.1919 -0.2318
33000SOL    HW1 9314   0.447   5.373   0.510  0.5192  0.5174  0.3909
33000SOL    HW2 9315   0.435   5.468   0.393  1.2892  0.7997  0.5373
33001SOL     OW 9316   2.397   0.719   4.523  0.0862 -0.0207  0.3156
33001SOL    HW1 9317   2.420   0.681   4.438  0.3484 -0.3179  0.5122
33001SOL    HW2 9318   2.362   0.805   4.503 -2.6061 -1.1776 -0.3264
33002SOL     OW 9319   4.911  10.618   4.738  0.2337 -0.6484 -0.1507
33002SOL    HW1 9320   4.860  10.602   4.818 -1.1133 -2.4862 -1.3158
33002SOL    HW2 9321   4.888  10.708   4.713  0.4819 -0.1366  1.3560
33003SOL     OW 9322   9.484   2.997   7.365  0.0085  0.5931  0.2930
33003SOL    HW1 9323   9.560   3.027   7.415 -0.4858  1.4607  0.5442
33003SOL    HW2 9324   9.493   3.038   7.279 -0.6457  1.4633  0.6222
33004SOL     OW 9325  12.291   4.364   8.134 -0.1265  0.9973 -0.0996
33004SOL    HW1 9326  12.230   4.367   8.061  1.1724  0.8773 -1.2310
33004SOL    HW2 9327  12.251   4.303   8.196 -1.4936  1.4960 -0.4588
33005SOL     OW 9328   0.527   3.444   7.322 -0.1506  0.0381  0.5474
33005SOL    HW1 9329   0.438   3.461   7.292  0.3767  0.0005 -1.1111
33005SOL    HW2 9330   0.566   3.388   7.255  1.7295  1.5905  0.2378
33006SOL     OW 9331   3.545   7.435   8.895  0.6300  0.3483  0.3024
33006SOL    HW1 9332   3.632   7.451   8.931 -0.0058 -1.3227  2.7922
33006SOL    HW2 9333   3.485   7.457   8.966 -1.0680  1.6217 -1.4056
33007SOL     OW 9334   0.254   4.442   7.430 -0.3879  0.7261 -0.3282
33007SOL    HW1 9335   0.289   4.376   7.489 -1.0091  0.9351  0.2790
33007SOL    HW2 9336   0.165   4.458   7.462  0.0849  2.5747  0.1435
33008SOL     OW 9337   9.840   6.119   3.806 -0.8578 -0.5420  0.1376
33008SOL    HW1 9338   9.770   6.076   3.756  0.1349  0.8735 -2.6542
33008SOL    HW2 9339   9.919   6.071   3.782 -0.5649 -1.0008  1.8907
33009SOL     OW 9340   4.891  11.030   5.192 -0.1766  0.3096  0.4894
33009SOL    HW1 9341   4.814  11.085   5.177 -1.1549 -1.1676 -0.1930
33009SOL    HW2 9342   4.912  11.043   5.284 -0.3924  1.7595  0.3637
33010SOL     OW 9343  11.279   4.574   0.136  0.2925  0.1397  0.6724
33010SOL    HW1 9344  11.290   4.637   0.207  1.5915 -0.8032  1.3638
33010SOL    HW2 9345  11.294   4.489   0.177 -2.9956 -0.8354  0.1282
33011SOL     OW 9346  10.740   3.027   0.411 -0.3037  0.0624  0.2254
33011SOL    HW1 9347  10.750   2.982   0.327  1.9616 -0.8900  0.9339
33011SOL    HW2 9348  10.745   3.120   0.389 -0.0300 -0.1663 -0.7265
33012SOL     OW 9349   1.778   2.733   0.185 -0.1633 -0.6278  0.0684
33012SOL    HW1 9350   1.768   2.644   0.152  1.1302 -1.2267  1.1842
33012SOL    HW2 9351   1.689   2.763   0.200 -0.7666 -0.7856 -2.6396
33013SOL     OW 9352   4.547   9.667   0.397 -0.4829  0.7198 -0.5819
33013SOL    HW1 9353   4.507   9.741   0.442  0.5636  1.4882 -0.8741
33013SOL    HW2 9354   4.488   9.649   0.323 -0.6930  1.3387 -0.5730
33014SOL     OW 9355   0.975   7.463  10.130 -0.0912 -0.6198  0.5223
33014SOL    HW1 9356   1.017   7.537  10.174  0.1889 -1.5140  1.8325
33014SOL    HW2 9357   0.915   7.503  10.067  1.0190  0.6964  0.2571
33015SOL     OW 9358  12.649   4.499  12.459 -0.1258  0.0819  0.1745
33015SOL    HW1 9359  12.680   4.562  12.524  0.9352 -0.7635  0.5217
33015SOL    HW2 9360  12.588   4.443  12.506 -0.7904  0.6067 -0.0430
33016SOL     OW 9361   8.950   9.882   3.620  0.0150  0.5542  0.5262
33016SOL    HW1 9362   9.026   9.832   3.589 -0.5243 -0.1281  0.2893
33016SOL    HW2 9363   8.925   9.936   3.545  1.1668  1.9071  1.0717
33017SOL     OW 9364  11.512   9.119   4.172  0.4196  0.9646 -0.4680
33017SOL    HW1 9365  11.479   9.127   4.261  2.4593 -0.0821  0.4478
33017SOL    HW2 9366  11.434   9.123   4.117 -1.0892 -0.2779  1.4717
33018SOL     OW 9367   2.219   8.921   8.810 -0.0225 -0.3669  0.4581
33018SOL    HW1 9368   2.137   8.915   8.760  0.3353 -1.0585 -0.0632
33018SOL    HW2 9369   2.192   8.908   8.901 -0.6897  0.9678  0.4775
33019SOL     OW 9370   1.785   5.362   3.315 -0.0150  0.0162 -0.5035
33019SOL    HW1 9371   1.832   5.279   3.314  1.8257  0.7326  3.8964
33019SOL    HW2 9372   1.693   5.337   3.301  0.6891 -2.4348 -1.3474
33020SOL     OW 9373  10.660  12.601   2.171  0.2637  0.2930 -0.2748
33020SOL    HW1 9374  10.678  12.613   2.264 -0.6735 -1.9155  0.2574
33020SOL    HW2 9375  10.726  12.538   2.141 -0.0870  0.1815 -0.8382
33021SOL     OW 9376  12.447   8.362  12.340 -0.2236  0.1256 -0.5694
33021SOL    HW1 9377  12.418   8.280  12.300 -3.0522  0.0326  1.4543
33021SOL    HW2 9378  12.519   8.337  12.397 -1.9603 -1.2891  1.1086
33022SOL     OW 9379   9.429  11.622  10.266 -0.2685  0.2170 -0.0794
33022SOL    HW1 9380   9.334  11.631  10.258 -0.6568 -2.2210  0.8506
33022SOL    HW2 9381   9.451  11.670  10.345 -0.8266  0.2946  0.0384
33023SOL     OW 9382   5.269  10.637   7.894 -0.5001  0.1102 -0.1579
33023SOL    HW1 9383   5.240  10.573   7.959 -1.2449 -0.3226 -0.9061
33023SOL    HW2 9384   5.339  10.592   7.846  1.9859  1.3502  2.0242
33024SOL     OW 9385   0.297   1.842  12.371 -0.1145 -0.3376  0.2560
33024SOL    HW1 9386   0.305   1.900  12.447  0.5696  0.7374 -0.5875
33024SOL    HW2 9387   0.325   1.897  12.297  0.3958 -1.7098 -0.6028
33025SOL     OW 9388   2.720   9.551   1.227  0.4055 -0.3830  0.1913
33025SOL    HW1 9389   2.808   9.538   1.191  0.0212 -0.9743 -0.5606
33025SOL    HW2 9390   2.669   9.584   1.154 -0.0153 -0.0681  0.6190
33026SOL     OW 9391   7.786  11.623   2.753  0.4642 -0.1639  0.4860
33026SOL    HW1 9392   7.743  11.547   2.791  1.1866 -0.5882  0.4690
33026SOL    HW2 9393   7.857  11.644   2.815  1.3164 -0.5287 -0.3447
33027SOL     OW 9394  11.336   0.143  10.654 -0.0101  0.6582 -0.3823
33027SOL    HW1 9395  11.314   0.208  10.587  0.0369  0.7308 -0.3275
33027SOL    HW2 9396  11.283   0.066  10.631  0.0440  0.6660 -0.5323
33028SOL     OW 9397   0.118   2.964   4.134  0.6108 -0.6573  0.2356
33028SOL    HW1 9398   0.108   2.946   4.041  2.3884 -1.6250  0.1872
33028SOL    HW2 9399   0.112   3.059   4.141  0.0520 -0.6019 -0.8030
33029SOL     OW 9400  10.218   8.134   4.937 -0.0657 -0.0029  0.0219
33029SOL    HW1 9401  10.202   8.206   4.997  2.0670  0.1520  0.5001
33029SOL    HW2 9402  10.312   8.119   4.943  0.1546 -0.3287 -2.9077
33030SOL     OW 9403  12.258   9.712   4.616 -0.0269  0.3355 -0.0451
33030SOL    HW1 9404  12.198   9.716   4.542 -0.2308  0.6941  0.1371
33030SOL    HW2 9405  12.280   9.620   4.624  0.2467  0.3320 -0.7554
33031SOL     OW 9406   8.163   1.512   5.219  0.3140  0.4461  0.5459
33031SOL    HW1 9407   8.150   1.419   5.237 -1.1910  0.5997  0.3747
33031SOL    HW2 9408   8.244   1.534   5.265  1.1218 -1.1102 -0.0678
33032SOL     OW 9409   1.509   2.911   5.006 -0.3143  0.6232 -0.5127
33032SOL    HW1 9410   1.544   2.881   5.090 -0.6740  0.2049 -0.5097
33032SOL    HW2 9411   1.516   2.835   4.948  0.6591  1.1264 -1.1005
33033SOL     OW 9412   4.720  11.848  10.598 -0.5605 -0.2873 -0.5642
33033SOL    HW1 9413   4.734  11.942  10.587  0.8367 -0.2482  1.1413
33033SOL    HW2 9414   4.788  11.820  10.659 -2.4172 -1.9561  0.9105
33034SOL     OW 9415   6.131   8.494   0.248  0.1431  0.1419 -0.1785
33034SOL    HW1 9416   6.208   8.442   0.225  0.4419  0.2268  0.5834
33034SOL    HW2 9417   6.105   8.536   0.167  2.2485  1.8861 -0.0310
33035SOL     OW 9418  12.906   3.364   6.789 -0.3354 -0.2943 -0.0313
33035SOL    HW1 9419  12.819   3.403   6.776 -0.4264 -0.2786  0.5908
33035SOL    HW2 9420  12.893   3.271   6.768 -0.8151 -0.5424  1.2094
33036SOL     OW 9421   1.005   1.217   4.826 -0.5400  0.2758 -0.1139
33036SOL    HW1 9422   1.045   1.132   4.809  0.5356  0.5330  0.9883
33036SOL    HW2 9423   0.915   1.209   4.792 -0.4916 -1.3181  0.0739
33037SOL     OW 9424   6.574   9.038   8.306 -0.4416 -0.0759  0.2522
33037SOL    HW1 9425   6.487   9.064   8.278 -0.1637  0.5737 -0.0380
33037SOL    HW2 9426   6.591   9.092   8.383 -0.1035  0.1711  0.0106
33038SOL     OW 9427   1.447   3.792   9.200  0.2646 -0.3154 -0.3257
33038SOL    HW1 9428   1.477   3.704   9.224  1.0297 -0.1336 -0.6002
33038SOL    HW2 9429   1.499   3.815   9.124 -1.0081 -0.2355 -1.2095
33039SOL     OW 9430  12.021   8.850   6.778 -0.2282  0.5351 -0.3595
33039SOL    HW1 9431  12.029   8.836   6.684  0.0344  0.6192 -0.3517
33039SOL    HW2 9432  12.074   8.781   6.817 -0.8628  0.1041 -0.2515
33040SOL     OW 9433   6.816  12.131   7.494 -0.3019  0.0289 -0.1327
33040SOL    HW1 9434   6.735  12.081   7.497 -0.5959  0.5279  0.6698
33040SOL    HW2 9435   6.877  12.081   7.549  0.4196 -1.1354 -1.9252
33041SOL     OW 9436   7.663  12.206  12.832 -0.0114  0.0325 -0.3291
33041SOL    HW1 9437   7.627  12.244  12.912 -0.7474  2.1744 -1.5886
33041SOL    HW2 9438   7.650  12.112  12.841 -0.6791  0.2890  1.7613
33042SOL     OW 9439   4.137   2.943   4.427  0.0543  0.2095 -0.1303
33042SOL    HW1 9440   4.191   2.995   4.367  2.7530  0.7513  2.5093
33042SOL    HW2 9441   4.056   2.994   4.436  1.4997  2.6159  0.2543
33043SOL     OW 9442   9.084   5.866   8.911 -0.1759  0.3498 -0.0912
33043SOL    HW1 9443   9.060   5.831   8.996  1.6782  2.2296  1.3133
33043SOL    HW2 9444   9.071   5.794   8.850 -1.7957 -0.9734  1.7143
33044SOL     OW 9445   5.862   7.669   3.053  0.4693  0.0443  0.0171
33044SOL    HW1 9446   5.818   7.748   3.086 -0.9946  0.3168 -2.3804
33044SOL    HW2 9447   5.955   7.687   3.066  0.1086  1.4786  0.9356
33045SOL     OW 9448   9.057  11.407  10.416  0.7578  0.1813  0.5097
33045SOL    HW1 9449   9.008  11.326  10.405 -0.8093  1.2940 -1.3197
33045SOL    HW2 9450   9.129  11.383  10.475 -0.8712 -1.9728  1.7984
33046SOL     OW 9451  12.617   1.384   1.033 -0.1648  0.5272  0.0640
33046SOL    HW1 9452  12.523   1.395   1.014 -0.3711 -1.9434 -0.5914
33046SOL    HW2 9453  12.657   1.370   0.947  0.4345 -0.7704  0.5393
33047SOL     OW 9454   7.804  12.418  12.753 -0.2348 -0.1857 -0.2275
33047SOL    HW1 9455   7.749  12.353  12.796 -0.3814 -0.3816 -0.6947
33047SOL    HW2 9456   7.849  12.369  12.684  0.3545  0.0206  0.0077
33048SOL     OW 9457  10.322  12.824   4.962 -1.1711 -0.0933  0.9189
33048SOL    HW1 9458  10.391  12.796   4.901 -3.0166 -1.3530 -0.6996
33048SOL    HW2 9459  10.368  12.838   5.045  0.9114 -1.5482  0.0970
33049SOL     OW 9460   1.748   8.616   3.801  0.1846  0.3317 -0.2904
33049SOL    HW1 9461   1.828   8.582   3.761 -0.1002 -1.0008  0.2365
33049SOL    HW2 9462   1.779   8.678   3.867  0.7355  0.6630 -0.8485
33050SOL     OW 9463  12.065   8.037   1.985  0.7425 -0.5992  0.0317
33050SOL    HW1 9464  12.145   8.003   1.945  1.3288 -1.0585  1.5251
33050SOL    HW2 9465  11.994   8.002   1.930  1.5450  0.1210 -1.5214
33051SOL     OW 9466   6.615   1.934   4.163 -0.1786 -0.3458  0.1811
33051SOL    HW1 9467   6.589   1.847   4.134  2.4703 -1.5169  0.9854
33051SOL    HW2 9468   6.694   1.920   4.215 -0.2170  2.4586  1.1941
33052SOL     OW 9469  11.337  12.866   1.851  0.2456  0.6152  0.2479
33052SOL    HW1 9470  11.412  12.888   1.795  0.1271  0.2986 -0.0389
33052SOL    HW2 9471  11.325  12.771   1.839  0.0838  0.5832  0.6418
33053SOL     OW 9472   9.083   8.429   3.273 -0.0291  0.3336 -0.2548
33053SOL    HW1 9473   9.036   8.346   3.270 -0.5324  0.6472 -1.5441
33053SOL    HW2 9474   9.146   8.418   3.344 -1.1632 -0.5612  0.6601
33054SOL     OW 9475   3.778   1.424   8.235 -0.0564  0.3513 -0.6158
33054SOL    HW1 9476   3.766   1.436   8.329 -2.0779 -0.4625 -0.7174
33054SOL    HW2 9477   3.702   1.467   8.195 -2.2721 -3.8160 -1.4928
33055SOL     OW 9478  12.081   1.036   2.556 -0.0086  0.3495 -0.2633
33055SOL    HW1 9479  12.070   1.130   2.574  0.5418  0.1145  1.5741
33055SOL    HW2 9480  12.125   1.002   2.634  0.1538 -1.3835 -1.0567
33056SOL     OW 9481   7.204   6.358   7.412  0.6795  0.1375 -0.0352
33056SOL    HW1 9482   7.205   6.429   7.476  0.3463  0.1233 -0.0126
33056SOL    HW2 9483   7.119   6.365   7.370  0.1907 -0.9371  0.7445
33057SOL     OW 9484   1.703   3.600   3.426  0.4011  0.3125 -0.3595
33057SOL    HW1 9485   1.665   3.543   3.494 -1.2567  2.7143  0.8747
33057SOL    HW2 9486   1.740   3.539   3.362  1.2282 -2.0816  2.2197
33058SOL     OW 9487   7.502   0.839   2.060 -0.3322 -0.1328  0.1862
33058SOL    HW1 9488   7.512   0.832   1.965 -0.3838  0.0972  0.1633
33058SOL    HW2 9489   7.585   0.805   2.095 -0.1081  0.2554  0.0412
33059SOL     OW 9490   2.926   5.651   4.222  0.6505 -0.0525  0.2957
33059SOL    HW1 9491   2.898   5.559   4.227  0.1582  0.1436  2.7812
33059SOL    HW2 9492   3.017   5.647   4.193  0.3370 -1.2513 -0.5784
33060SOL     OW 9493   1.295   3.170   7.968 -0.0552 -0.0333 -0.5313
33060SOL    HW1 9494   1.232   3.187   7.898 -0.1528 -2.3442 -1.0849
33060SOL    HW2 9495   1.374   3.217   7.941 -1.5082  3.1756  0.3280
33061SOL     OW 9496   2.323   1.689   9.297 -0.4160 -0.5157 -0.0896
33061SOL    HW1 9497   2.377   1.611   9.283  0.7671  0.4785 -1.4163
33061SOL    HW2 9498   2.295   1.683   9.388 -0.6955 -2.6766 -0.2590
33062SOL     OW 9499  12.419   1.690   1.175  0.0486  0.1102  0.2132
33062SOL    HW1 9500  12.430   1.666   1.083  0.3706  0.4996  0.1487
33062SOL    HW2 9501  12.411   1.785   1.174  2.3483  0.3467  0.7964
33063SOL     OW 9502   8.359   6.680   7.375 -0.4292 -0.2586 -0.0302
33063SOL    HW1 9503   8.326   6.764   7.343  1.0074  0.1632 -0.4763
33063SOL    HW2 9504   8.452   6.681   7.353 -0.6055 -2.4772 -1.1266
33064SOL     OW 9505   5.088   3.062  10.803  0.3157 -0.2031 -0.0117
33064SOL    HW1 9506   5.140   2.985  10.827  1.3920  0.5258  0.0594
33064SOL    HW2 9507   5.081   3.057  10.708  0.8607 -0.0910 -0.0588
33065SOL     OW 9508  10.321   6.323   7.755 -0.0383 -0.6979  0.0195
33065SOL    HW1 9509  10.372   6.269   7.815  0.9876  1.7905  1.5247
33065SOL    HW2 9510  10.236   6.280   7.750  0.2084 -1.5921  2.4016
33066SOL     OW 9511   4.248  11.772  11.873 -0.6463 -0.3095  0.0399
33066SOL    HW1 9512   4.275  11.730  11.954 -1.5926 -1.1195 -0.0417
33066SOL    HW2 9513   4.176  11.830  11.899  0.0140  0.5324  0.0011
33067SOL     OW 9514  11.090  11.204   1.598  0.2931  0.5147  0.1324
33067SOL    HW1 9515  11.114  11.295   1.619  1.0418 -0.1563  2.4167
33067SOL    HW2 9516  11.012  11.188   1.650  0.4069 -0.2897  0.0541
33068SOL     OW 9517  12.189   3.074  11.272  0.2165  0.0387  0.8840
33068SOL    HW1 9518  12.243   3.000  11.299  1.1388  0.9992  1.7998
33068SOL    HW2 9519  12.225   3.148  11.320 -0.3903  1.1781 -0.3545
33069SOL     OW 9520  12.288  11.615   8.456 -0.0084 -0.3889 -0.1996
33069SOL    HW1 9521  12.364  11.666   8.428  0.8352 -0.9740  0.9264
33069SOL    HW2 9522  12.317  11.524   8.450 -1.0223 -0.6952 -0.8331
33070SOL     OW 9523   5.203   8.868  10.779 -0.2316  0.2398  0.2680
33070SOL    HW1 9524   5.113   8.863  10.811 -0.1999 -2.0226  0.1544
33070SOL    HW2 9525   5.203   8.813  10.701  1.2583  0.1923  0.2842
33071SOL     OW 9526   9.415   4.933   4.667  0.0134  0.0655  0.4651
33071SOL    HW1 9527   9.463   4.909   4.746  0.0124 -0.1820  0.3923
33071SOL    HW2 9528   9.333   4.884   4.674  0.0962 -0.1118  0.2149
33072SOL     OW 9529  11.944   1.646   4.860  0.4708 -0.5018  0.2706
33072SOL    HW1 9530  11.917   1.658   4.950  0.0408 -0.8572  0.1900
33072SOL    HW2 9531  11.904   1.719   4.813  1.8481  0.5011  0.5896
33073SOL     OW 9532   1.305   6.723   8.871  0.0801  0.1994  0.0099
33073SOL    HW1 9533   1.256   6.729   8.953  0.6396  0.4642  0.3292
33073SOL    HW2 9534   1.392   6.758   8.892  0.6252 -0.8575 -0.3662
33074SOL     OW 9535   9.900   2.828  12.640  0.3381  0.4348  0.2967
33074SOL    HW1 9536   9.877   2.863  12.726  1.5483  2.5343 -0.1654
33074SOL    HW2 9537   9.974   2.882  12.611  0.7846 -1.0548 -1.5193
33075SOL     OW 9538  11.886   3.364   0.105  0.4391 -0.1448 -0.0341
33075SOL    HW1 9539  11.831   3.442   0.109  1.6428  0.7601 -0.3486
33075SOL    HW2 9540  11.829   3.295   0.071 -1.1016  0.1583  1.7591
33076SOL     OW 9541   4.168   8.556   7.690 -0.3512 -0.3961 -0.4623
33076SOL    HW1 9542   4.220   8.479   7.714 -0.2768 -0.1286  0.2608
33076SOL    HW2 9543   4.085   8.545   7.737 -1.0228 -0.8836 -1.7047
33077SOL     OW 9544   5.298   3.843  10.962  0.3613  0.3588  0.4788
33077SOL    HW1 9545   5.269   3.760  11.000 -1.9061  0.9970  0.2873
33077SOL    HW2 9546   5.288   3.907  11.033 -2.4461  1.2730 -0.5902
33078SOL     OW 9547   0.361   7.898   7.489  0.0147 -0.0434  0.3057
33078SOL    HW1 9548   0.350   7.981   7.536  0.5694 -0.4285  1.1403
33078SOL    HW2 9549   0.303   7.837   7.536 -2.7686  0.5192 -2.1247
33079SOL     OW 9550   3.478  11.490   1.170 -0.7330  0.5073 -0.2279
33079SOL    HW1 9551   3.461  11.545   1.094 -1.5412 -0.6195 -0.8952
33079SOL    HW2 9552   3.570  11.508   1.192 -0.7683  1.5700 -0.8539
33080SOL     OW 9553   9.010   8.776   8.815 -0.3304 -0.1650  0.6209
33080SOL    HW1 9554   9.031   8.731   8.897 -0.0100 -0.5663  0.3219
33080SOL    HW2 9555   8.936   8.833   8.837 -0.9644 -1.0904  0.9324
33081SOL     OW 9556   9.059   4.143   5.520 -0.8408  0.1061  0.3533
33081SOL    HW1 9557   9.030   4.226   5.482 -0.8912  0.9805  2.1752
33081SOL    HW2 9558   9.122   4.108   5.457 -1.0465  1.3746 -0.5903
33082SOL     OW 9559   6.048  11.514  11.662  0.3751  0.8249 -0.5580
33082SOL    HW1 9560   5.974  11.576  11.666 -0.4050 -0.1384  0.7749
33082SOL    HW2 9561   6.035  11.465  11.581 -0.6753  0.4204 -0.1584
33083SOL     OW 9562  11.442  12.117   4.251  0.1435 -0.3103  0.0914
33083SOL    HW1 9563  11.525  12.164   4.263  0.6617 -0.7426 -1.5080
33083SOL    HW2 9564  11.432  12.066   4.332  0.7529  0.7498  0.8648
33084SOL     OW 9565   9.410   7.175   4.002 -0.3307  0.4405  0.0374
33084SOL    HW1 9566   9.348   7.113   4.039 -1.0405  0.6380 -0.7942
33084SOL    HW2 9567   9.367   7.260   4.010 -0.9200  0.3894 -2.0505
33085SOL     OW 9568   9.318   3.133   3.993  0.1586  0.1532  0.2874
33085SOL    HW1 9569   9.327   3.041   3.970 -0.5328  0.1089  0.1768
33085SOL    HW2 9570   9.378   3.179   3.934 -0.5376 -0.0982 -0.6370
33086SOL     OW 9571   5.819  11.097  10.604 -0.3232 -0.2830  0.5568
33086SOL    HW1 9572   5.741  11.067  10.557  0.6668  1.2829 -2.4181
33086SOL    HW2 9573   5.888  11.095  10.538  1.6687  0.4378  2.4955
33087SOL     OW 9574   4.495   9.641   2.560 -0.2889 -0.2622  0.3571
33087SOL    HW1 9575   4.549   9.718   2.541 -0.6711 -0.1059 -0.1228
33087SOL    HW2 9576   4.493   9.636   2.655 -0.4127  0.4369  0.3958
33088SOL     OW 9577   9.333  10.304  12.815  0.1531  0.0038 -0.2330
33088SOL    HW1 9578   9.422  10.319  12.848  0.1096 -3.0519  1.6516
33088SOL    HW2 9579   9.276  10.332  12.887 -0.6523  3.3844 -1.9862
33089SOL     OW 9580   8.423   0.099  12.844 -0.3868 -0.2060 -0.3082
33089SOL    HW1 9581   8.488   0.142  12.788  0.7231  0.3481  1.3638
33089SOL    HW2 9582   8.426   0.007  12.817  0.5128 -0.0452 -0.7966
33090SOL     OW 9583   4.966   4.202   6.086  0.1316 -0.0332  0.1169
33090SOL    HW1 9584   5.037   4.164   6.034  0.5861 -0.2614  0.8856
33090SOL    HW2 9585   4.908   4.243   6.022 -0.0651 -1.5146 -0.6956
33091SOL     OW 9586  10.031   0.135  12.071 -0.5969 -0.1961 -0.6217
33091SOL    HW1 9587  10.008   0.128  11.978 -0.9454 -1.6320 -0.4566
33091SOL    HW2 9588   9.957   0.181  12.111 -0.7399 -0.1390 -0.9503
33092SOL     OW 9589   9.141   6.179   7.923 -0.2644 -0.5834  0.2066
33092SOL    HW1 9590   9.111   6.269   7.931 -0.9329 -0.9607  2.6255
33092SOL    HW2 9591   9.233   6.181   7.949 -0.3505 -0.6370  0.5163
33093SOL     OW 9592   8.962  10.784   9.601  0.2928  0.3681  0.0573
33093SOL    HW1 9593   9.010  10.828   9.671 -0.3884 -0.8396  1.3138
33093SOL    HW2 9594   8.953  10.693   9.630 -0.0421 -0.1717 -1.5829
33094SOL     OW 9595  12.658   7.695   2.639 -0.2188  0.9088  0.5058
33094SOL    HW1 9596  12.591   7.718   2.575 -1.1085  0.8740  1.3914
33094SOL    HW2 9597  12.658   7.768   2.701 -0.7365  0.0811  1.5142
33095SOL     OW 9598  12.904   1.953   4.229  0.1399  0.0192 -0.1645
33095SOL    HW1 9599  12.810   1.956   4.208  0.1855 -3.3182 -1.5299
33095SOL    HW2 9600  12.907   1.906   4.313  0.5917  1.8902  0.9292
33096SOL     OW 9601   7.595   8.459   5.653 -0.4485  0.0982  0.6268
33096SOL    HW1 9602   7.537   8.521   5.609  2.3345  1.2876 -1.7890
33096SOL    HW2 9603   7.569   8.373   5.620 -1.0002  0.5734 -0.2145
33097SOL     OW 9604   8.265   7.983   7.882  0.3221 -0.4159  0.3137
33097SOL    HW1 9605   8.235   8.057   7.934 -0.9752  0.0310 -1.0086
33097SOL    HW2 9606   8.287   8.021   7.797  1.5489 -1.2606  0.2231
33098SOL     OW 9607  12.902   4.975   5.574  0.2600 -0.4576  0.5736
33098SOL    HW1 9608  12.994   4.956   5.592  0.5949  0.7775  0.2785
33098SOL    HW2 9609  12.901   5.005   5.484 -0.4180 -0.3411  0.6179
33099SOL     OW 9610  11.440   9.608   0.285  0.4488 -0.7763 -0.2967
33099SOL    HW1 9611  11.449   9.523   0.329 -1.1607 -1.6515 -1.5444
33099SOL    HW2 9612  11.516   9.613   0.228  0.2926 -1.6675 -0.6116
33100SOL     OW 9613  12.217   9.561   8.086 -0.3142 -0.5409 -0.1571
33100SOL    HW1 9614  12.220   9.612   8.168 -1.1771 -0.7814  0.0331
33100SOL    HW2 9615  12.147   9.498   8.100 -0.9393 -0.1388 -1.3376
33101SOL     OW 9616   9.027   5.170   4.710 -0.7050 -0.0995  0.6862
33101SOL    HW1 9617   9.052   5.101   4.649 -1.6325 -1.4286  1.7413
33101SOL    HW2 9618   9.055   5.251   4.668  0.7231 -1.1310 -0.4516
33102SOL     OW 9619   9.986   4.565  12.445 -0.8804 -0.4758 -0.5991
33102SOL    HW1 9620   9.904   4.516  12.434  0.3890 -2.7919 -0.3230
33102SOL    HW2 9621   9.963   4.638  12.504 -3.1257  0.0930 -2.0528
33103SOL     OW 9622   8.019  10.211  12.367 -0.4290  0.9658  0.0881
33103SOL    HW1 9623   7.984  10.204  12.455  0.0401 -0.2278  0.2038
33103SOL    HW2 9624   7.998  10.128  12.325  0.9963  0.7577 -0.2888
33104SOL     OW 9625   5.825   7.479   5.741 -0.7308  0.3628 -0.1673
33104SOL    HW1 9626   5.773   7.399   5.739 -1.3750  0.7814 -0.9959
33104SOL    HW2 9627   5.816   7.512   5.830 -1.4873  0.1635 -0.1646
33105SOL     OW 9628   1.644   7.610  11.379  0.1953 -0.0212  0.0475
33105SOL    HW1 9629   1.732   7.618  11.341 -0.1412 -0.1366 -0.7716
33105SOL    HW2 9630   1.644   7.523  11.420  0.7365  0.3185  0.7873
33106SOL     OW 9631  11.794   8.044   6.506 -0.3076 -0.2304 -0.1111
33106SOL    HW1 9632  11.742   8.073   6.431 -0.3672  0.4189  0.1687
33106SOL    HW2 9633  11.830   8.125   6.542  0.3219 -0.6117  0.1207
33107SOL     OW 9634   4.264   9.696   6.011  0.3332 -0.4583  0.7016
33107SOL    HW1 9635   4.226   9.625   6.062  1.7397 -0.5331  1.7054
33107SOL    HW2 9636   4.244   9.775   6.061 -1.0643 -0.1297 -0.3173
33108SOL     OW 9637   6.431   9.093   4.481  0.8160 -0.3144 -0.3071
33108SOL    HW1 9638   6.500   9.152   4.515 -0.7818  0.5910  1.5679
33108SOL    HW2 9639   6.448   9.010   4.524 -0.1259  0.3381  1.4078
33109SOL     OW 9640   2.123  11.813   4.502  0.5054  0.2328  0.1448
33109SOL    HW1 9641   2.062  11.746   4.533 -0.5139  1.2875  0.4828
33109SOL    HW2 9642   2.108  11.818   4.408  0.4674  0.0997  0.1437
33110SOL     OW 9643  12.031   8.702   4.825 -0.2115  0.3881  0.2411
33110SOL    HW1 9644  11.947   8.676   4.789 -0.8617 -0.2865  2.1329
33110SOL    HW2 9645  12.027   8.676   4.917  2.3851 -0.4698  0.2015
33111SOL     OW 9646   5.696   1.534  12.843 -0.0559  0.2798  0.1088
33111SOL    HW1 9647   5.738   1.450  12.862 -0.0712  0.4388  0.8943
33111SOL    HW2 9648   5.713   1.587  12.921 -0.6984  0.7504 -0.0639
33112SOL     OW 9649   6.096   9.194   3.388 -0.2596  0.5134 -0.0341
33112SOL    HW1 9650   6.150   9.200   3.467 -2.0336  1.0964  1.1962
33112SOL    HW2 9651   6.028   9.129   3.410  0.9208 -1.6427 -2.2151
33113SOL     OW 9652   2.779   8.809   6.635 -0.0302  0.3402 -0.0257
33113SOL    HW1 9653   2.815   8.775   6.717 -1.8587 -2.8455 -0.3629
33113SOL    HW2 9654   2.686   8.789   6.640 -0.0217 -1.2831 -3.3572
33114SOL     OW 9655   9.106   2.580   1.364 -0.3457  0.5366  0.1308
33114SOL    HW1 9656   9.144   2.494   1.381 -0.7638  0.4576  0.6881
33114SOL    HW2 9657   9.154   2.639   1.422 -0.2800  0.6280 -0.0157
33115SOL     OW 9658   8.358  12.131   3.633 -0.6653 -0.3646  0.3003
33115SOL    HW1 9659   8.301  12.135   3.710 -0.5907 -0.5920  0.3685
33115SOL    HW2 9660   8.376  12.038   3.621 -1.2132 -0.3943 -0.3847
33116SOL     OW 9661   8.584   7.932   9.811  0.0471  0.2113 -0.0998
33116SOL    HW1 9662   8.615   8.019   9.788  1.6792 -0.1006  0.8295
33116SOL    HW2 9663   8.488   7.941   9.812  0.1926  2.3277  1.2455
33117SOL     OW 9664  11.913   6.315  11.855 -0.2740 -0.3342  0.1857
33117SOL    HW1 9665  11.935   6.275  11.770 -0.5798 -1.2647  0.5367
33117SOL    HW2 9666  11.828   6.277  11.878  0.3097 -0.9265  1.4206
33118SOL     OW 9667   6.497  10.123  11.732  0.0943  0.4209  0.1408
33118SOL    HW1 9668   6.590  10.119  11.755  0.2066  1.5292 -0.0807
33118SOL    HW2 9669   6.493  10.183  11.658 -0.7550  0.0358 -0.1425
33119SOL     OW 9670   7.322  12.369   6.368 -0.3818 -0.1378 -0.1829
33119SOL    HW1 9671   7.333  12.464   6.372 -1.8443  0.0064  1.6674
33119SOL    HW2 9672   7.406  12.334   6.399 -0.5552  0.6294  1.2650
33120SOL     OW 9673   8.396   9.928  12.334 -0.2662  0.7176  0.4403
33120SOL    HW1 9674   8.349  10.009  12.314 -1.8860 -0.8686 -2.9280
33120SOL    HW2 9675   8.488   9.950  12.320 -0.7123  1.8915 -0.9040
33121SOL     OW 9676   6.727   4.965   7.821 -0.3578 -0.4643  0.2278
33121SOL    HW1 9677   6.649   4.996   7.868 -0.3269  1.2116 -0.7591
33121SOL    HW2 9678   6.778   5.044   7.804  0.0142 -1.1148 -1.9433
33122SOL     OW 9679   9.800   7.372  10.916 -0.3879  0.6262 -0.2892
33122SOL    HW1 9680   9.872   7.310  10.903 -0.5268  0.4816 -0.3741
33122SOL    HW2 9681   9.837   7.441  10.972 -0.1921  0.5399 -0.3101
33123SOL     OW 9682   9.510  10.270   1.558  0.4333  0.0680 -0.1758
33123SOL    HW1 9683   9.579  10.331   1.581  1.5166 -0.6908 -1.2702
33123SOL    HW2 9684   9.437  10.326   1.529  0.4805  0.8773  1.2004
33124SOL     OW 9685   9.149   5.963   5.918 -0.1271 -0.1133  0.1514
33124SOL    HW1 9686   9.230   5.913   5.921  0.5328  0.8996 -0.0982
33124SOL    HW2 9687   9.083   5.902   5.887  0.6462 -0.8178 -0.1238
33125SOL     OW 9688   4.809   5.060   0.475  0.2368 -0.5416  0.3108
33125SOL    HW1 9689   4.847   4.973   0.483 -0.6457 -1.2067 -1.9932
33125SOL    HW2 9690   4.726   5.046   0.430 -0.4951  1.3866  0.9607
33126SOL     OW 9691   4.590   1.145   4.180 -0.2095  0.9558 -0.1994
33126SOL    HW1 9692   4.502   1.171   4.207 -0.2987 -0.2731  0.7446
33126SOL    HW2 9693   4.632   1.114   4.260  0.7436  0.5697 -0.8255
33127SOL     OW 9694  10.463   2.262  11.815 -0.0733 -0.4821 -0.3736
33127SOL    HW1 9695  10.487   2.263  11.722 -0.9384 -0.3592 -0.6079
33127SOL    HW2 9696  10.526   2.321  11.856 -0.1193  0.0250 -1.0048
33128SOL     OW 9697   9.404  11.475  10.919  0.0873 -0.7208  0.3063
33128SOL    HW1 9698   9.334  11.499  10.979  1.0108  0.0078  1.1133
33128SOL    HW2 9699   9.365  11.488  10.832 -0.9300 -0.8016  0.7292
33129SOL     OW 9700   1.259   2.925   8.098 -0.2729  0.0334  0.0794
33129SOL    HW1 9701   1.333   2.943   8.156  1.1092 -0.1809 -1.5566
33129SOL    HW2 9702   1.245   3.007   8.051 -2.0083  0.5051  1.3197
33130SOL     OW 9703   5.557   0.571   9.668  0.3064  0.2344  0.1002
33130SOL    HW1 9704   5.526   0.594   9.581 -0.1604  0.9013  0.4394
33130SOL    HW2 9705   5.572   0.476   9.664 -0.7358  0.0790 -0.3858
33131SOL     OW 9706   1.772  11.532   0.036 -0.3458  0.1784 -0.0161
33131SOL    HW1 9707   1.723  11.504   0.114  1.3314 -1.4770  0.5064
33131SOL    HW2 9708   1.757  11.626   0.031 -1.8991  0.0477  1.2926
33132SOL     OW 9709   2.565   2.957   3.000 -0.0319 -0.4687 -0.5973
33132SOL    HW1 9710   2.659   2.963   3.018 -0.4168 -1.1450  1.9785
33132SOL    HW2 9711   2.548   2.863   2.995 -0.8040 -0.4009  0.5242
33133SOL     OW 9712  12.680   9.676   7.235 -0.2036  0.0831  0.1138
33133SOL    HW1 9713  12.586   9.665   7.249 -0.0292 -0.1250  1.2234
33133SOL    HW2 9714  12.719   9.595   7.269  0.5010  0.9053  1.3455
33134SOL     OW 9715   2.082  11.679   9.649 -0.7198 -0.7698  0.0662
33134SOL    HW1 9716   2.143  11.720   9.588 -1.2155 -0.8211 -0.4714
33134SOL    HW2 9717   1.997  11.717   9.628 -0.9279 -0.9200  0.6094
33135SOL     OW 9718   4.936   3.250   7.553 -0.1448 -0.1022 -0.3436
33135SOL    HW1 9719   4.947   3.157   7.574 -0.6084  0.1840  1.2472
33135SOL    HW2 9720   4.868   3.281   7.612  1.8648  1.8703  1.1365
33136SOL     OW 9721  12.157  12.301  12.426  0.2638  0.3843  0.5774
33136SOL    HW1 9722  12.252  12.313  12.435  0.2155 -0.3344  2.5777
33136SOL    HW2 9723  12.120  12.350  12.500 -0.7299 -1.3439  1.2912
33137SOL     OW 9724   6.143   1.381   7.716  0.6314 -0.5595  0.0378
33137SOL    HW1 9725   6.219   1.327   7.740  1.2835  0.8934  1.4150
33137SOL    HW2 9726   6.092   1.387   7.797  1.8747  2.8677  0.7200
33138SOL     OW 9727  11.014   5.522   6.197 -0.3072  0.1058  0.1784
33138SOL    HW1 9728  11.066   5.495   6.121 -1.3029 -0.7053 -0.2300
33138SOL    HW2 9729  10.934   5.470   6.192  0.0907 -0.8652  2.4319
33139SOL     OW 9730   2.989  11.954   6.843  0.0170 -0.1731 -0.3858
33139SOL    HW1 9731   2.904  11.997   6.829  0.7147  0.6039 -2.5659
33139SOL    HW2 9732   3.032  11.957   6.758  2.3471 -0.3371  0.7059
33140SOL     OW 9733   4.271  10.325   8.295  0.2738 -0.2450  0.4725
33140SOL    HW1 9734   4.295  10.370   8.376 -1.2756  1.9078 -0.1724
33140SOL    HW2 9735   4.239  10.395   8.237 -1.6084 -2.1026 -0.8711
33141SOL     OW 9736   0.764   5.480   9.254  0.2646  0.1155  0.1416
33141SOL    HW1 9737   0.849   5.524   9.261  0.5453 -0.4400  0.2914
33141SOL    HW2 9738   0.762   5.446   9.165 -0.7597  2.0270 -0.6275
33142SOL     OW 9739  11.968   1.469   3.939  0.2813 -0.4624 -0.5814
33142SOL    HW1 9740  11.968   1.435   4.029  0.3416 -0.4133 -0.5630
33142SOL    HW2 9741  11.897   1.421   3.896  1.3215 -1.7186 -0.9687
33143SOL     OW 9742   9.406  12.737   1.129  0.4237  0.5479 -0.3905
33143SOL    HW1 9743   9.360  12.816   1.102 -0.3711  0.2548  0.0671
33143SOL    HW2 9744   9.462  12.715   1.055 -0.3091  0.8127 -1.0325
33144SOL     OW 9745  12.272   7.984  10.013 -0.0219  0.3253  0.0611
33144SOL    HW1 9746  12.191   8.034  10.016 -1.3583 -1.6965 -0.7593
33144SOL    HW2 9747  12.334   8.037  10.063 -1.8492  1.8706  0.8129
33145SOL     OW 9748   1.480  10.186  10.514 -0.1199 -0.1632 -0.2592
33145SOL    HW1 9749   1.505  10.162  10.604 -0.6474  0.2896  0.0124
33145SOL    HW2 9750   1.389  10.215  10.521 -0.6248 -1.4039 -1.1658
33146SOL     OW 9751   7.473   9.250   0.689 -0.4267  0.4488  0.4035
33146SOL    HW1 9752   7.489   9.156   0.684 -1.8378  0.1949  0.1385
33146SOL    HW2 9753   7.402   9.259   0.753 -0.0382  1.3735  0.7301
33147SOL     OW 9754   1.567   0.202   8.109  0.5633  0.3376 -0.3490
33147SOL    HW1 9755   1.626   0.127   8.100 -0.3522 -0.4448  0.0019
33147SOL    HW2 9756   1.518   0.204   8.026  1.4796  1.3527 -0.8861
33148SOL     OW 9757   4.840   1.112   1.204  0.5535 -0.0317  0.5221
33148SOL    HW1 9758   4.760   1.127   1.152  1.1291 -0.9516 -0.6887
33148SOL    HW2 9759   4.828   1.025   1.242  0.7637  0.0397  0.7551
33149SOL     OW 9760   8.403   4.690   3.219 -0.7334 -0.4899 -0.3203
33149SOL    HW1 9761   8.395   4.782   3.245  1.1720 -0.6148  0.9174
33149SOL    HW2 9762   8.324   4.649   3.255 -1.7061  0.6664 -1.0528
33150SOL     OW 9763   3.611   2.619   1.785 -0.7051 -0.2735 -0.0893
33150SOL    HW1 9764   3.651   2.539   1.819  0.6841  0.6706  0.5870
33150SOL    HW2 9765   3.671   2.649   1.717 -1.5732 -0.1549 -0.8292
33151SOL     OW 9766   7.656   0.738  11.889  0.2791 -0.2346  0.1800
33151SOL    HW1 9767   7.633   0.732  11.796 -0.3848  0.6278  0.2817
33151SOL    HW2 9768   7.737   0.687  11.896 -0.2045 -1.1540 -0.6712
33152SOL     OW 9769  11.449   9.809   0.484 -0.1835 -0.0727  0.2555
33152SOL    HW1 9770  11.439   9.742   0.417  0.6568 -0.1284  0.1782
33152SOL    HW2 9771  11.365   9.856   0.484 -0.2410 -0.1630 -0.7356
33153SOL     OW 9772   9.960  12.490   6.293  0.3212 -0.2503  0.7331
33153SOL    HW1 9773   9.867  12.472   6.275  0.6900 -0.8792 -0.6521
33153SOL    HW2 9774  10.004  12.474   6.209  1.6400  0.3881  1.2834
33154SOL     OW 9775   5.387  11.530  10.138 -0.1985 -0.2732  0.1536
33154SOL    HW1 9776   5.440  11.607  10.118 -0.2024 -0.0309  1.0667
33154SOL    HW2 9777   5.347  11.549  10.222 -1.5060 -0.5845 -0.3670
33155SOL     OW 9778   8.990   9.862   1.507 -0.3187  0.3704 -0.7376
33155SOL    HW1 9779   8.970   9.953   1.526 -1.2043 -0.3522  2.4752
33155SOL    HW2 9780   9.083   9.862   1.484 -0.2366  2.0582 -0.5273
33156SOL     OW 9781  11.112   4.837   5.570 -0.1199  0.4260 -0.1652
33156SOL    HW1 9782  11.124   4.873   5.482 -1.1110  0.9064 -0.1280
33156SOL    HW2 9783  11.019   4.815   5.573  0.4840 -2.4679 -0.2894
33157SOL     OW 9784   2.813   4.884   5.276 -0.2199  0.8176 -0.2755
33157SOL    HW1 9785   2.775   4.815   5.330 -2.5366  0.9058 -1.6781
33157SOL    HW2 9786   2.741   4.914   5.220  0.8206  3.9734 -0.1425
33158SOL     OW 9787  10.561   7.450   7.011 -0.8114 -0.7497  0.0232
33158SOL    HW1 9788  10.475   7.475   7.044 -0.6872  0.4296 -0.4693
33158SOL    HW2 9789  10.545   7.416   6.924 -0.8144 -0.8300  0.0555
33159SOL     OW 9790   7.772   6.909   6.787  0.3978  0.0420 -0.2129
33159SOL    HW1 9791   7.744   6.988   6.832 -0.3061 -0.9454  1.1598
33159SOL    HW2 9792   7.867   6.920   6.777  0.6715  0.1350  1.9384
33160SOL     OW 9793   3.223  11.621   4.077  0.1932  0.2612 -0.1018
33160SOL    HW1 9794   3.139  11.645   4.038  0.0708  0.7833  0.4599
33160SOL    HW2 9795   3.261  11.704   4.104  0.8536  0.0183 -0.2694
33161SOL     OW 9796   2.471   1.270   8.344 -0.0198  0.1044  0.1183
33161SOL    HW1 9797   2.501   1.347   8.392 -1.8205  0.4016  0.8644
33161SOL    HW2 9798   2.443   1.208   8.412  0.4722 -0.8105 -0.4933
33162SOL     OW 9799   7.710   9.669  10.263 -0.1664  0.0078  0.6099
33162SOL    HW1 9800   7.776   9.661  10.195 -1.1153 -1.6333 -0.1832
33162SOL    HW2 9801   7.706   9.763  10.281  1.1684  0.3202 -0.5141
33163SOL     OW 9802   6.506   1.779  10.305 -0.3940 -0.7260  0.9462
33163SOL    HW1 9803   6.575   1.713  10.314  1.4488  1.0750  0.7102
33163SOL    HW2 9804   6.546   1.859  10.338 -1.8314  0.7268 -0.6884
33164SOL     OW 9805   0.548   9.576   8.960 -0.7764  0.1066 -0.7679
33164SOL    HW1 9806   0.632   9.575   9.006  0.1016  0.7772 -2.2954
33164SOL    HW2 9807   0.556   9.647   8.896 -1.7698 -1.0313 -2.2372
33165SOL     OW 9808  11.301  10.623   5.482  0.0866 -0.2292 -0.4353
33165SOL    HW1 9809  11.333  10.687   5.419 -0.1303 -1.0810 -1.4241
33165SOL    HW2 9810  11.213  10.602   5.453 -1.1718  1.5082  1.8084
33166SOL     OW 9811   6.842   8.713   4.755 -0.1437  0.1374  0.3442
33166SOL    HW1 9812   6.932   8.698   4.729  1.2181  1.1515  3.9118
33166SOL    HW2 9813   6.835   8.808   4.766 -0.8287 -0.0983  2.4770
33167SOL     OW 9814  10.158  11.701   8.075 -0.0386  0.8451  0.0929
33167SOL    HW1 9815  10.135  11.650   7.997  0.7672 -1.7166  1.4286
33167SOL    HW2 9816  10.110  11.659   8.146  0.9089  1.7807  1.3278
33168SOL     OW 9817   6.294   1.856  12.547  0.2506 -0.1872 -0.1540
33168SOL    HW1 9818   6.378   1.823  12.517  1.4340  2.5562 -0.1625
33168SOL    HW2 9819   6.234   1.842  12.473  0.8157 -1.6053 -0.3706
33169SOL     OW 9820   0.503   4.749   1.624  0.0459 -0.2466  0.0273
33169SOL    HW1 9821   0.495   4.777   1.715  0.3125  0.8058 -0.2644
33169SOL    HW2 9822   0.586   4.786   1.595  0.2550 -1.0885 -0.4723
33170SOL     OW 9823   7.465   7.410   1.702  0.2745  0.1589  0.1616
33170SOL    HW1 9824   7.393   7.459   1.742  1.6290  0.5795  2.2380
33170SOL    HW2 9825   7.434   7.391   1.613 -2.4681  0.1632  1.0025
33171SOL     OW 9826   6.609   0.763   3.642 -0.1034 -0.3669 -0.5509
33171SOL    HW1 9827   6.666   0.767   3.566 -0.5443 -3.9656 -1.2265
33171SOL    HW2 9828   6.663   0.796   3.715  1.0100  1.1662 -1.9918
33172SOL     OW 9829   2.757   6.975   1.189  0.2844 -0.2780  0.2630
33172SOL    HW1 9830   2.825   6.960   1.256 -1.1554 -1.8847  1.4561
33172SOL    HW2 9831   2.690   6.909   1.208 -0.1446 -0.9264 -2.8835
33173SOL     OW 9832  11.670  10.388   5.329 -0.1768  0.3101 -0.6106
33173SOL    HW1 9833  11.645  10.430   5.412 -0.6241  0.0057 -0.5847
33173SOL    HW2 9834  11.592  10.337   5.304  0.9268 -1.9308  0.2609
33174SOL     OW 9835   1.447   6.954   6.955  0.4306  0.2898  0.2252
33174SOL    HW1 9836   1.500   7.033   6.954 -0.9392  1.2703  1.1847
33174SOL    HW2 9837   1.360   6.983   6.927  0.4273 -1.3422 -1.6898
33175SOL     OW 9838  12.110   9.328   3.515 -0.1328 -0.4972 -0.4828
33175SOL    HW1 9839  12.021   9.310   3.545  0.3066  0.1183  1.2869
33175SOL    HW2 9840  12.163   9.329   3.594  1.5910 -1.4626 -1.5618
33176SOL     OW 9841   7.746  11.520   8.317  0.2266  0.0658 -0.4687
33176SOL    HW1 9842   7.839  11.501   8.330  0.7513  1.5667 -1.7298
33176SOL    HW2 9843   7.717  11.454   8.254  0.1153 -1.1191  0.7751
33177SOL     OW 9844   6.216   2.651   3.653  0.6322  0.1468 -0.2869
33177SOL    HW1 9845   6.162   2.723   3.685  1.5019  0.7079 -0.0315
33177SOL    HW2 9846   6.207   2.654   3.558 -2.4493 -1.9094 -0.1873
33178SOL     OW 9847   0.578  12.365   9.514 -0.0483  0.2486 -0.1499
33178SOL    HW1 9848   0.622  12.394   9.434 -1.0080  2.9355  0.2034
33178SOL    HW2 9849   0.606  12.428   9.581 -0.0268 -1.3592  1.4541
33179SOL     OW 9850   5.966   0.630   5.111  0.2925 -0.2543 -0.0222
33179SOL    HW1 9851   5.930   0.684   5.181  1.7052 -0.6056  1.0298
33179SOL    HW2 9852   6.059   0.653   5.108  0.8582 -2.2458  0.1632
33180SOL     OW 9853  10.900   0.909   4.203  0.5666 -0.1867  0.5887
33180SOL    HW1 9854  10.866   0.833   4.250  0.4597 -0.3940  0.1761
33180SOL    HW2 9855  10.962   0.949   4.264  0.8056 -0.7417  0.7197
33181SOL     OW 9856   1.615  10.385   6.990  0.5517 -0.6638  0.1281
33181SOL    HW1 9857   1.571  10.347   6.915  1.3844 -2.5342  0.5315
33181SOL    HW2 9858   1.639  10.473   6.962 -0.4771 -0.7930 -1.2461
33182SOL     OW 9859   3.674   2.070   6.584 -0.4030 -0.7035  0.1529
33182SOL    HW1 9860   3.677   1.977   6.563 -1.1911 -0.5283 -0.8123
33182SOL    HW2 9861   3.595   2.081   6.637 -1.0100 -0.3943 -0.7986
33183SOL     OW 9862  12.307  12.021   8.560  0.2316 -0.4409 -0.2026
33183SOL    HW1 9863  12.262  11.945   8.596  0.8348 -1.3568 -1.3127
33183SOL    HW2 9864  12.242  12.091   8.564 -0.2797 -0.9499  1.0051
33184SOL     OW 9865   7.256   9.012  10.053  0.2018  0.0677 -0.1268
33184SOL    HW1 9866   7.323   8.971  10.107  0.5037 -0.7961 -1.1323
33184SOL    HW2 9867   7.304   9.051   9.980 -0.3627 -0.5424 -0.8495
33185SOL     OW 9868   9.593   3.225   6.861  0.1039  0.9109  0.3676
33185SOL    HW1 9869   9.498   3.229   6.848  0.1545  2.2830  0.3561
33185SOL    HW2 9870   9.604   3.158   6.928 -0.7548 -0.2930 -0.6368
33186SOL     OW 9871   6.378   6.533  12.833 -0.1837  0.3151 -0.2265
33186SOL    HW1 9872   6.444   6.545  12.901 -0.1614 -0.9007 -0.0171
33186SOL    HW2 9873   6.428   6.502  12.757 -0.2504  1.3561 -0.7137
33187SOL     OW 9874   0.268   5.134   8.251 -0.1320 -0.2312 -0.0739
33187SOL    HW1 9875   0.362   5.145   8.264 -0.5128  0.3874  2.7491
33187SOL    HW2 9876   0.233   5.223   8.247 -0.9797 -0.2818  3.1603
33188SOL     OW 9877   4.728   0.955   6.617 -0.2390 -0.3134 -0.0364
33188SOL    HW1 9878   4.717   0.961   6.522  0.6892 -1.7561 -0.2635
33188SOL    HW2 9879   4.687   0.872   6.641  1.5254 -1.0978  0.4427
33189SOL     OW 9880  10.491   9.854   8.959 -0.2386  0.0907  0.3400
33189SOL    HW1 9881  10.489   9.779   9.018  0.7079 -0.7641 -0.6812
33189SOL    HW2 9882  10.497   9.817   8.872 -0.0531  1.3593 -0.2178
33190SOL     OW 9883   1.075  12.658   1.038 -0.4545 -0.3384  0.2839
33190SOL    HW1 9884   1.043  12.748   1.046 -1.3676 -0.4675 -1.5083
33190SOL    HW2 9885   1.158  12.667   0.990 -0.5384 -0.4494  0.1192
33191SOL     OW 9886   0.532   6.851   5.310 -0.1903 -0.1203 -1.0078
33191SOL    HW1 9887   0.530   6.762   5.344 -0.2515 -0.3491 -1.6008
33191SOL    HW2 9888   0.615   6.887   5.342 -0.1378 -0.4063 -0.8196
33192SOL     OW 9889   4.765   6.856   9.543  0.1057  0.7007 -0.1897
33192SOL    HW1 9890   4.715   6.936   9.561 -2.2485 -0.8529  0.7120
33192SOL    HW2 9891   4.826   6.850   9.616  1.2704  2.3116 -0.9649
33193SOL     OW 9892   9.276   5.857   4.475  0.3080 -0.3608  0.5860
33193SOL    HW1 9893   9.234   5.892   4.396  0.1657 -0.4663  0.6158
33193SOL    HW2 9894   9.288   5.934   4.531  0.7409 -0.2231  0.3145
33194SOL     OW 9895  12.960   6.532   4.894 -0.5837 -0.8056  0.0447
33194SOL    HW1 9896  13.024   6.464   4.913 -0.9427 -1.3518 -0.6562
33194SOL    HW2 9897  13.011   6.613   4.890  0.3976 -1.4787 -2.4044
33195SOL     OW 9898   4.669  10.686  11.168 -0.1466 -0.1290  0.0253
33195SOL    HW1 9899   4.668  10.622  11.239  1.0931  0.0023  0.1773
33195SOL    HW2 9900   4.692  10.635  11.090  2.6096  0.3481  0.4351
33196SOL     OW 9901  11.307   9.147   0.926 -0.3636 -0.4208 -0.4015
33196SOL    HW1 9902  11.293   9.052   0.936 -0.8985 -0.3940 -0.8381
33196SOL    HW2 9903  11.293   9.182   1.013 -0.7842 -0.6746 -0.3627
33197SOL     OW 9904   8.262  10.112  11.141  0.3350  0.8042  0.0121
33197SOL    HW1 9905   8.300  10.054  11.075 -1.7252 -0.5769 -0.0799
33197SOL    HW2 9906   8.217  10.180  11.090  0.7062  1.0856  0.0583
33198SOL     OW 9907   3.678   6.930  11.653 -0.2722 -0.0643  0.2151
33198SOL    HW1 9908   3.596   6.899  11.690  0.6822  0.2908  2.8674
33198SOL    HW2 9909   3.713   6.991  11.718  2.3765 -0.6774 -0.4832
33199SOL     OW 9910   3.583   0.295  11.311 -0.1815 -0.0072  0.4515
33199SOL    HW1 9911   3.511   0.348  11.279  0.4748  1.2704  1.0211
33199SOL    HW2 9912   3.595   0.324  11.402  1.2574  0.0573  0.2659
33200SOL     OW 9913   6.870  11.027   9.214 -0.4239 -0.2260  0.6974
33200SOL    HW1 9914   6.781  11.019   9.250 -1.1386  1.0405 -0.6480
33200SOL    HW2 9915   6.918  11.078   9.280 -1.2772  0.7616  0.5902
33201SOL     OW 9916  10.756   7.877   8.449  0.4148 -0.4378  0.4400
33201SOL    HW1 9917  10.662   7.871   8.435  0.3642 -0.1119  0.6320
33201SOL    HW2 9918  10.767   7.866   8.544  0.5434 -0.1807  0.4562
33202SOL     OW 9919   2.197   8.361   3.007 -0.1604  0.6769  0.1969
33202SOL    HW1 9920   2.278   8.411   2.993 -1.1752  2.5208  0.5537
33202SOL    HW2 9921   2.176   8.327   2.920  0.3811  1.1777 -0.1471
33203SOL     OW 9922  10.893   7.090  12.578 -0.3642  0.1223  0.0002
33203SOL    HW1 9923  10.913   7.002  12.545 -1.4759 -0.3009  0.4131
33203SOL    HW2 9924  10.976   7.137  12.574  0.3586 -1.1080  0.2428
33204SOL     OW 9925   6.327   4.984   7.364  0.2306  0.0592 -0.2580
33204SOL    HW1 9926   6.233   4.980   7.385  0.3126  0.0133  0.1084
33204SOL    HW2 9927   6.353   4.893   7.355 -0.2922  0.0898 -2.8431
33205SOL     OW 9928   0.150  11.607  12.035 -0.3871  0.4272 -0.7146
33205SOL    HW1 9929   0.243  11.587  12.041 -0.9437 -2.0179  1.0276
33205SOL    HW2 9930   0.108  11.522  12.023 -2.5074  1.3011  0.1003
33206SOL     OW 9931   9.534   0.194  12.970 -0.2754  0.3251  0.6077
33206SOL    HW1 9932   9.439   0.185  12.976 -0.2148 -0.2689  0.7945
33206SOL    HW2 9933   9.549   0.263  12.906 -0.8243  0.0369  0.1702
33207SOL     OW 9934   5.652   3.752   6.113  0.1225 -0.5994 -0.5449
33207SOL    HW1 9935   5.653   3.824   6.050 -0.9824  0.3126  0.4328
33207SOL    HW2 9936   5.592   3.781   6.182  1.6511 -1.3585  1.1856
33208SOL     OW 9937   2.008   5.667   5.335 -0.1418  0.4686  0.2264
33208SOL    HW1 9938   2.008   5.591   5.392 -1.6676 -0.1710 -0.5429
33208SOL    HW2 9939   1.974   5.634   5.251  0.4433  1.7165 -0.5435
33209SOL     OW 9940   8.305   1.142   6.224 -0.2816 -0.5112 -0.3841
33209SOL    HW1 9941   8.369   1.143   6.153 -0.5246 -1.4928 -0.6341
33209SOL    HW2 9942   8.222   1.119   6.181 -0.7098  0.2476  0.0102
33210SOL     OW 9943   4.241   7.394   4.929  0.3993 -0.3113  0.4757
33210SOL    HW1 9944   4.263   7.458   4.996  1.1531  0.4839 -0.5076
33210SOL    HW2 9945   4.184   7.441   4.869  0.2729 -0.8180  0.1896
33211SOL     OW 9946  11.915  10.894   4.325 -0.2246 -0.8278  0.7299
33211SOL    HW1 9947  11.996  10.872   4.278 -0.7591 -0.9320 -0.1520
33211SOL    HW2 9948  11.928  10.985   4.352  0.1084 -0.7809  0.4197
33212SOL     OW 9949   2.549   2.459   3.594 -0.7984 -0.6318 -0.3101
33212SOL    HW1 9950   2.497   2.416   3.662  0.6706 -1.3102  0.4371
33212SOL    HW2 9951   2.487   2.478   3.524 -2.3052 -0.1419  1.1165
33213SOL     OW 9952   4.758   4.343   7.911 -0.1048  0.4612  0.0539
33213SOL    HW1 9953   4.702   4.302   7.844  0.8861  0.2697 -0.6798
33213SOL    HW2 9954   4.805   4.270   7.951  0.5240  0.7315 -0.1864
33214SOL     OW 9955   2.363   8.150  10.066 -0.1723 -0.5037 -0.3394
33214SOL    HW1 9956   2.361   8.171   9.973  0.8554  1.7410  0.0761
33214SOL    HW2 9957   2.421   8.216  10.104 -0.8039 -1.1778  1.9435
33215SOL     OW 9958   1.185   5.570   6.530  0.4813  0.1544  0.3801
33215SOL    HW1 9959   1.111   5.569   6.591  0.2193 -2.1882  0.1520
33215SOL    HW2 9960   1.263   5.573   6.586  0.2643 -2.6671  0.9969
33216SOL     OW 9961  10.442   0.899  10.995  1.1582  0.9836  0.7183
33216SOL    HW1 9962  10.442   0.804  11.006  2.3644  0.8840  0.0485
33216SOL    HW2 9963  10.357   0.927  11.029 -0.5404 -0.6251 -1.8580
33217SOL     OW 9964   4.303   6.815   9.979 -0.1159 -0.1285  0.1411
33217SOL    HW1 9965   4.339   6.895  10.019 -2.2251  0.4075  1.1380
33217SOL    HW2 9966   4.232   6.789  10.039 -0.7964 -1.5926 -1.2389
33218SOL     OW 9967   1.573   8.638   5.229  0.2032  0.2841 -0.3000
33218SOL    HW1 9968   1.663   8.671   5.234  0.4812 -0.3778 -0.8989
33218SOL    HW2 9969   1.520   8.708   5.268  1.2219 -0.4298  2.6590
33219SOL     OW 9970   7.838   2.370  12.844  0.1378 -0.0808 -0.3484
33219SOL    HW1 9971   7.849   2.285  12.887  1.4127 -0.5978 -1.6028
33219SOL    HW2 9972   7.752   2.365  12.803  0.8017 -1.4236 -1.6925
33220SOL     OW 9973   7.074   8.505  10.737  0.3297 -0.0311  0.2724
33220SOL    HW1 9974   7.056   8.547  10.653 -0.1945 -0.5145  0.1416
33220SOL    HW2 9975   6.992   8.512  10.786  1.0864  1.6893  1.3813
33221SOL     OW 9976   4.294   4.392   9.320  0.1578 -0.0048 -0.3127
33221SOL    HW1 9977   4.321   4.301   9.306  0.7270  0.5017 -2.9601
33221SOL    HW2 9978   4.335   4.416   9.403 -1.2181 -2.5579  1.2419
33222SOL     OW 9979  12.242   1.988  12.354 -0.1379 -0.7682  0.6442
33222SOL    HW1 9980  12.271   2.078  12.373  1.7997 -1.1513 -0.2158
33222SOL    HW2 9981  12.171   1.972  12.416  0.9187  0.6120  2.2980
33223SOL     OW 9982  11.682   4.853   0.277 -0.3449 -0.1692 -0.3593
33223SOL    HW1 9983  11.754   4.854   0.341 -0.3581  1.1861 -0.3338
33223SOL    HW2 9984  11.607   4.889   0.325 -0.1149  1.7532 -1.3633
33224SOL     OW 9985   8.061  12.594   7.860  0.0688 -0.1031 -0.1052
33224SOL    HW1 9986   8.102  12.561   7.940  1.2932 -0.1876 -0.7449
33224SOL    HW2 9987   8.009  12.521   7.828 -2.5764  0.7225  1.9459
33225SOL     OW 9988   3.956   7.868   1.442 -0.7362  0.2794 -0.1620
33225SOL    HW1 9989   3.947   7.819   1.361 -1.5403 -0.7078  0.4937
33225SOL    HW2 9990   3.909   7.950   1.426 -0.3673  0.3529 -0.8874
33226SOL     OW 9991   1.498   7.397   6.663  0.1621  0.2432 -0.0249
33226SOL    HW1 9992   1.422   7.456   6.660 -0.2695 -0.2205  1.2127
33226SOL    HW2 9993   1.465   7.315   6.627  0.6646  0.6205 -1.4077
33227SOL     OW 9994   6.039  10.120   2.616  0.4063 -0.5664 -0.3842
33227SOL    HW1 9995   6.058  10.028   2.601 -0.2643 -0.5842 -1.2218
33227SOL    HW2 9996   5.944  10.126   2.609  0.5177  0.3423 -1.2927
33228SOL     OW 9997   5.553   2.324   9.307 -0.7415 -0.2053 -0.5195
33228SOL    HW1 9998   5.543   2.405   9.257  2.3436  0.2476 -0.5929
33228SOL    HW2 9999   5.628   2.280   9.267  0.5852 -0.8015  2.3652
33229SOL     OW10000  10.319  12.024   7.360 -0.0803 -0.0311 -0.0033
33229SOL    HW110001  10.358  12.110   7.377 -0.7972  0.5964 -1.4298
33229SOL    HW210002  10.296  11.991   7.447  0.5948  1.0268  0.5958
33230SOL     OW10003   5.106  10.242  11.165 -0.5064 -0.3147 -0.4130
33230SOL    HW110004   5.169  10.306  11.131 -0.9679  1.2156  1.4150
33230SOL    HW210005   5.028  10.254  11.110  0.0959 -0.7955 -1.3970
33231SOL     OW10006   2.392   9.267   2.035 -0.0299  0.0705  0.1339
33231SOL    HW110007   2.371   9.177   2.059  0.9847 -0.7280 -1.7988
33231SOL    HW210008   2.461   9.293   2.095  0.3687 -0.8055  0.0657
33232SOL     OW10009   9.267   0.396   8.721  0.0981  0.0370  0.1142
33232SOL    HW110010   9.323   0.355   8.787 -0.2194  0.8461  0.9043
33232SOL    HW210011   9.198   0.439   8.772 -0.5298  0.1047 -0.7865
33233SOL     OW10012   6.160   8.510   3.942  0.0024 -0.4236  0.8275
33233SOL    HW110013   6.064   8.512   3.940  0.0068 -0.4070  0.5790
33233SOL    HW210014   6.184   8.456   3.867  0.1731 -1.0579  1.3315
33234SOL     OW10015  11.000   3.856   5.339  0.0608  0.0927  0.4507
33234SOL    HW110016  11.034   3.944   5.356  4.1034 -0.9659 -1.0289
33234SOL    HW210017  10.990   3.852   5.244  1.8988 -1.5512  0.2633
33235SOL     OW10018   3.964   8.984   8.974 -0.2725 -0.5836  0.0823
33235SOL    HW110019   4.038   9.041   8.957  0.4307 -0.9304  1.7325
33235SOL    HW210020   3.887   9.038   8.958  0.3690  0.8603  1.5827
33236SOL     OW10021   9.255  12.020   2.185  0.0332  0.1653 -0.1859
33236SOL    HW110022   9.269  11.991   2.095  0.6394  0.2346 -0.1188
33236SOL    HW210023   9.284  12.112   2.185  1.1395 -0.1670  0.3413
33237SOL     OW10024  11.617  11.700   2.176 -0.5031 -0.2134 -0.3757
33237SOL    HW110025  11.670  11.779   2.179 -0.8970  0.1997  4.7554
33237SOL    HW210026  11.527  11.731   2.186 -0.8106 -1.2261  0.1026
33238SOL     OW10027   6.235  10.443   4.930 -0.3402 -0.3215 -0.8470
33238SOL    HW110028   6.216  10.532   4.899  0.0899 -0.1685 -0.6878
33238SOL    HW210029   6.306  10.455   4.993 -0.4111 -0.7603 -0.6842
33239SOL     OW10030  12.252   0.148   1.552 -0.7029  0.0513  0.2712
33239SOL    HW110031  12.159   0.143   1.528 -0.1348 -1.6603 -1.8322
33239SOL    HW210032  12.260   0.092   1.629 -1.2273 -0.5987 -0.1402
33240SOL     OW10033   2.624  11.056   8.952  0.2399 -0.0629  0.2272
33240SOL    HW110034   2.688  11.018   8.892  1.7176  0.2015  1.5657
33240SOL    HW210035   2.634  11.007   9.033 -1.8810 -0.5634  0.2556
33241SOL     OW10036   8.174   4.447   9.048 -0.0609  0.7864  0.0682
33241SOL    HW110037   8.188   4.438   8.953 -2.8247 -1.1648 -0.2472
33241SOL    HW210038   8.199   4.538   9.066 -1.2323  1.8347 -2.9148
33242SOL     OW10039  11.814   3.752   7.797  0.0919 -0.0782 -0.0046
33242SOL    HW110040  11.750   3.727   7.730 -0.4806  0.6950  0.2304
33242SOL    HW210041  11.796   3.694   7.871  0.7892 -0.9999 -0.5377
33243SOL     OW10042   2.750   1.826  12.085 -0.0485  0.1685 -0.0939
33243SOL    HW110043   2.805   1.748  12.082 -1.6812 -0.9944 -0.9631
33243SOL    HW210044   2.810   1.898  12.062  1.3456 -0.8804  0.1077
33244SOL     OW10045   2.038   2.455   4.625  0.0137  0.5837 -0.4062
33244SOL    HW110046   2.076   2.542   4.624  1.1978  0.0851 -1.7899
33244SOL    HW210047   2.099   2.403   4.678 -0.4532  0.4814  0.0431
33245SOL     OW10048   6.052   6.732   8.225 -0.2900  0.3186  0.6901
33245SOL    HW110049   6.114   6.713   8.155 -0.9793  0.4330  0.0392
33245SOL    HW210050   6.104   6.774   8.293  0.2220  1.0568 -0.1393
33246SOL     OW10051   8.870   4.136   1.086 -0.0519 -0.1652 -0.3541
33246SOL    HW110052   8.821   4.109   1.164 -0.3009 -0.5709 -0.6479
33246SOL    HW210053   8.948   4.080   1.086 -0.8580 -1.3277 -1.2871
33247SOL     OW10054   0.600   2.151  10.837  0.4689 -0.2427 -0.6031
33247SOL    HW110055   0.636   2.179  10.753 -0.0286 -1.2753 -1.1844
33247SOL    HW210056   0.668   2.094  10.874  0.3106 -0.5279 -0.7431
33248SOL     OW10057   5.044   5.989   5.016  0.1181  0.0311  0.2611
33248SOL    HW110058   4.962   5.940   5.018  0.4758 -0.6754 -1.1045
33248SOL    HW210059   5.046   6.036   5.100 -1.1622 -0.7641  0.7689
33249SOL     OW10060   2.321   3.966   8.549 -0.6531  0.0254 -0.3151
33249SOL    HW110061   2.276   4.030   8.603  1.1286  1.7138 -0.7169
33249SOL    HW210062   2.346   4.014   8.470  0.5008 -1.2210 -0.7651
33250SOL     OW10063   4.745   8.746   1.581 -0.1061 -0.4001  1.2359
33250SOL    HW110064   4.651   8.726   1.580 -0.1549 -0.1970 -0.0923
33250SOL    HW210065   4.786   8.668   1.618 -0.7224 -0.8886  0.9030
33251SOL     OW10066   1.977   0.045   2.452 -0.5793 -0.5350  0.2015
33251SOL    HW110067   1.898   0.066   2.502  1.1757  0.9659  2.5821
33251SOL    HW210068   2.029  -0.009   2.511  1.0941  0.3208 -0.4102
33252SOL     OW10069   2.710   6.529   1.962  0.1855 -0.0419 -0.0467
33252SOL    HW110070   2.689   6.617   1.929 -1.1020  0.2692  1.4942
33252SOL    HW210071   2.711   6.475   1.883  0.5647  1.2664 -0.9817
33253SOL     OW10072   9.812  10.455   1.268  0.0652  0.7219  0.6255
33253SOL    HW110073   9.861  10.486   1.344 -0.1271  0.0876  1.0118
33253SOL    HW210074   9.803  10.361   1.282 -1.1946  0.8173  0.5108
33254SOL     OW10075   9.391   8.065   2.653  0.1306 -0.0953  0.0034
33254SOL    HW110076   9.414   8.135   2.714  1.3108 -0.3984 -0.0764
33254SOL    HW210077   9.452   7.994   2.674 -0.8432 -0.9898 -0.1195
33255SOL     OW10078   5.345   2.275   9.613  0.5486  0.1908  0.3250
33255SOL    HW110079   5.292   2.329   9.672  1.2419  1.2212  0.0422
33255SOL    HW210080   5.425   2.257   9.662 -0.5043 -2.4214  1.2351
33256SOL     OW10081   8.204  11.013   0.602 -0.2977 -0.1427 -0.1007
33256SOL    HW110082   8.257  11.016   0.682 -0.8468 -1.8907  0.3722
33256SOL    HW210083   8.208  10.921   0.574 -0.4685  0.3517 -1.8579
33257SOL     OW10084   0.782  11.905  10.935 -0.0738 -0.2606 -0.0950
33257SOL    HW110085   0.799  11.992  10.897  1.2350  0.3978  1.8521
33257SOL    HW210086   0.687  11.894  10.928 -0.4207  1.8241  0.5311
33258SOL     OW10087   9.425  12.271   3.340  0.2003 -0.7388 -0.1220
33258SOL    HW110088   9.459  12.196   3.292 -0.2023 -0.2906 -1.1463
33258SOL    HW210089   9.501  12.307   3.386  0.6547 -1.0332 -0.6376
33259SOL     OW10090  12.142  10.204   4.220 -0.0361 -0.3620 -0.0061
33259SOL    HW110091  12.078  10.138   4.192  1.0177 -1.5498  0.3219
33259SOL    HW210092  12.149  10.192   4.314  0.9220 -0.4758 -0.0853
33260SOL     OW10093   1.234   5.647   7.712 -0.1289 -0.1490  0.0558
33260SOL    HW110094   1.322   5.650   7.674 -0.0043 -2.1744  0.0558
33260SOL    HW210095   1.175   5.665   7.639  0.2417 -0.3369 -0.2958
33261SOL     OW10096   1.850   1.144   6.991  0.5344 -0.4693  0.5818
33261SOL    HW110097   1.916   1.087   6.953  0.4675 -0.2633  0.1469
33261SOL    HW210098   1.874   1.232   6.961  0.7596 -0.2409  1.4178
33262SOL     OW10099  11.323   7.220   6.524  0.6755  1.3174 -0.7072
33262SOL    HW110100  11.276   7.298   6.554 -0.5711  0.0160  0.8883
33262SOL    HW210101  11.262   7.177   6.464 -0.3443 -0.3970  1.3946
33263SOL     OW10102  11.520  11.695  11.985 -0.4440  0.3771  0.1388
33263SOL    HW110103  11.511  11.609  11.944 -0.2876  0.7747 -0.7428
33263SOL    HW210104  11.603  11.730  11.953  0.5814 -0.0194  2.1775
33264SOL     OW10105   8.445   2.620   9.383  0.4744 -0.6657  0.2832
33264SOL    HW110106   8.437   2.534   9.426  0.1507 -1.1072 -0.6287
33264SOL    HW210107   8.540   2.635   9.377  0.6052 -1.8217 -1.1652
33265SOL     OW10108   7.875   0.818   3.878  0.4678  0.1769  0.2641
33265SOL    HW110109   7.812   0.882   3.845 -0.6868 -0.1108  1.8081
33265SOL    HW210110   7.945   0.818   3.813  0.6394  3.1662  0.3336
33266SOL     OW10111   5.742  10.989  11.547  0.4412 -0.7196 -0.0404
33266SOL    HW110112   5.783  10.988  11.633  1.3556 -2.9633 -0.4437
33266SOL    HW210113   5.788  11.059  11.500  1.4771 -0.9561  0.5899
33267SOL     OW10114   2.492   8.855  11.722  0.0282  0.2177 -0.2656
33267SOL    HW110115   2.542   8.930  11.755 -0.4925  0.4970 -0.1009
33267SOL    HW210116   2.558   8.798  11.682  0.2386  1.6266 -2.0559
33268SOL     OW10117   6.410  11.813  11.081  0.1083 -0.1681 -0.2308
33268SOL    HW110118   6.334  11.794  11.136  0.3592 -1.3816 -0.2806
33268SOL    HW210119   6.477  11.841  11.143  0.8151 -2.7948  0.3372
33269SOL     OW10120   6.854   8.324   7.617 -0.2305  0.3222 -0.4469
33269SOL    HW110121   6.907   8.246   7.602  0.3830 -0.0840  3.0698
33269SOL    HW210122   6.764   8.295   7.603  0.0479 -0.8608  0.1029
33270SOL     OW10123  11.252   2.551  10.628  0.0601  0.0931  0.0816
33270SOL    HW110124  11.177   2.498  10.602 -0.8969  1.2643  0.3844
33270SOL    HW210125  11.310   2.551  10.552  1.1178 -3.0725  0.7403
33271SOL     OW10126   5.660   6.291   8.785 -0.4919 -0.0120 -0.6281
33271SOL    HW110127   5.681   6.251   8.701  1.4643 -0.3563 -0.0315
33271SOL    HW210128   5.634   6.381   8.763 -0.7177 -0.3208 -1.6439
33272SOL     OW10129   7.818  12.216   1.198  0.2638 -0.3410  0.2915
33272SOL    HW110130   7.782  12.235   1.111  0.1974 -3.1785 -0.4269
33272SOL    HW210131   7.913  12.222   1.185  0.2364 -0.0548  0.2135
33273SOL     OW10132   8.906   9.128  10.414  0.4961  0.0038  0.4068
33273SOL    HW110133   8.876   9.183  10.487  0.8670  0.1480  0.4530
33273SOL    HW210134   8.910   9.040  10.449  2.2650  0.3034  1.0555
33274SOL     OW10135   2.495   5.127   6.896  0.4474  0.4036 -0.2477
33274SOL    HW110136   2.569   5.184   6.878  1.0473 -0.4547 -0.5867
33274SOL    HW210137   2.425   5.160   6.841  1.4153 -0.4547 -2.0822
33275SOL     OW10138   3.288   4.008   8.264 -0.2633 -0.0966 -0.0454
33275SOL    HW110139   3.344   4.083   8.242 -0.5981  0.0037 -0.5747
33275SOL    HW210140   3.346   3.932   8.260 -0.4389 -0.1880 -2.0528
33276SOL     OW10141   5.390   8.543  11.806 -0.5488 -0.1320  0.4639
33276SOL    HW110142   5.343   8.615  11.849  0.8684 -0.7413  3.2842
33276SOL    HW210143   5.465   8.585  11.764 -0.4367  0.1948  0.9806
33277SOL     OW10144  11.608   3.335   8.389 -0.4519 -0.2005  0.8482
33277SOL    HW110145  11.676   3.322   8.456 -0.8546  0.1587  1.3357
33277SOL    HW210146  11.653   3.378   8.317  0.7933 -3.4856 -0.5469
33278SOL     OW10147   0.199   2.483   1.363  0.3596 -0.1604  0.2483
33278SOL    HW110148   0.111   2.458   1.392  0.6148 -0.6786  0.5947
33278SOL    HW210149   0.250   2.490   1.444  0.4462  0.9510  0.1207
33279SOL     OW10150   3.634   5.731   1.761  0.0833  0.3999 -1.0861
33279SOL    HW110151   3.682   5.655   1.729  1.2669  1.9066 -3.1171
33279SOL    HW210152   3.694   5.771   1.825 -0.4265 -0.1930 -0.2194
33280SOL     OW10153   0.482   9.943   9.629 -0.8998  0.2119 -0.1106
33280SOL    HW110154   0.476  10.035   9.605  1.8484  0.7033  0.6845
33280SOL    HW210155   0.451   9.896   9.552 -2.6591  1.7734 -0.4057
33281SOL     OW10156   9.822   8.287  10.918  0.1287  0.1896  0.1768
33281SOL    HW110157   9.750   8.232  10.946  1.0552 -1.0002  0.3100
33281SOL    HW210158   9.782   8.371  10.897 -1.3308 -0.5582 -0.1190
33282SOL     OW10159   5.344   6.160   5.610  0.3890 -0.3248  0.3175
33282SOL    HW110160   5.299   6.178   5.693 -2.7039  0.4579 -1.3698
33282SOL    HW210161   5.287   6.097   5.566  0.8090  0.8310 -2.0321
33283SOL     OW10162   4.515   4.098   5.296 -0.3035  0.1055 -0.2820
33283SOL    HW110163   4.591   4.088   5.239  0.6166 -1.6500  1.1538
33283SOL    HW210164   4.465   4.170   5.257  2.8286  2.4024 -0.4811
33284SOL     OW10165   1.813   6.261   3.485  0.6211  0.3417  0.2391
33284SOL    HW110166   1.841   6.352   3.501 -0.1492  0.6653 -0.1823
33284SOL    HW210167   1.749   6.269   3.414  1.3295 -0.6503 -0.5482
33285SOL     OW10168  12.387  11.306   3.785  0.6562  0.2825 -0.3007
33285SOL    HW110169  12.315  11.339   3.732  1.2355  0.4549 -1.0020
33285SOL    HW210170  12.444  11.261   3.722  1.1859  0.1950  0.2304
33286SOL     OW10171   6.982   7.945   4.304 -0.3731  0.3679  0.3140
33286SOL    HW110172   6.987   7.863   4.255  1.1421 -0.7572  2.2197
33286SOL    HW210173   6.921   7.999   4.254  1.2183 -0.5738 -2.9248
33287SOL     OW10174   0.081   8.665  12.558  0.1361  0.1601  0.4217
33287SOL    HW110175   0.160   8.707  12.592  1.3847 -1.0346 -0.9158
33287SOL    HW210176   0.036   8.632  12.636  1.7934 -0.5839  1.0969
33288SOL     OW10177   9.469   2.515  10.393 -0.5285  0.6607  0.1967
33288SOL    HW110178   9.467   2.419  10.389 -0.3898  0.6838 -0.5924
33288SOL    HW210179   9.385   2.542  10.356 -0.3072  0.8546 -0.1694
33289SOL     OW10180  11.839   2.836  11.478 -0.2876  0.4532  0.5847
33289SOL    HW110181  11.909   2.775  11.502  0.6407  1.3148  0.1804
33289SOL    HW210182  11.816   2.813  11.388  1.5519  1.9809 -0.3472
33290SOL     OW10183   4.579   3.534   6.055  0.4977 -0.3756  0.2127
33290SOL    HW110184   4.542   3.623   6.057  0.9115 -0.2080  0.6562
33290SOL    HW210185   4.670   3.547   6.031  0.7014 -0.6275  0.8260
33291SOL     OW10186   2.761   4.140   5.728 -0.1855 -0.2893  0.6503
33291SOL    HW110187   2.785   4.207   5.664 -0.9161 -0.1858  0.4805
33291SOL    HW210188   2.710   4.076   5.678  1.5768 -1.6563  0.5201
33292SOL     OW10189   6.601  12.123   5.083  0.0786  0.0401  0.6113
33292SOL    HW110190   6.565  12.074   5.157  0.9252 -0.6769  0.5645
33292SOL    HW210191   6.695  12.125   5.099  0.2333  0.2046 -0.2570
33293SOL     OW10192  12.213   4.447  11.515 -0.4308  0.3840  0.1043
33293SOL    HW110193  12.151   4.500  11.565  0.8077  1.4341  0.6012
33293SOL    HW210194  12.298   4.468  11.553  0.5086  0.7643 -2.0405
33294SOL     OW10195   2.734   4.751   8.069  0.4079 -0.0929  0.0744
33294SOL    HW110196   2.766   4.763   8.159  0.4025 -0.2250  0.0946
33294SOL    HW210197   2.650   4.708   8.080  0.7566 -0.8041 -0.0242
33295SOL     OW10198   9.588  12.072   2.307 -0.3455 -0.0524  0.7353
33295SOL    HW110199   9.595  12.032   2.220 -0.2556  0.9327  0.2692
33295SOL    HW210200   9.502  12.046   2.338  0.1614 -1.5517  0.9553
33296SOL     OW10201  12.217   7.493   9.147  0.0392 -0.2275  0.3268
33296SOL    HW110202  12.167   7.447   9.214 -1.3281  0.8239  0.0799
33296SOL    HW210203  12.186   7.583   9.151  1.2852  0.2743 -0.4697
33297SOL     OW10204  10.359  12.303  10.654  0.1710 -0.1422  0.0305
33297SOL    HW110205  10.310  12.221  10.650 -0.0937  0.0526 -0.7843
33297SOL    HW210206  10.449  12.276  10.672 -0.0904 -0.5449  0.7733
33298SOL     OW10207   6.420   9.340  10.705 -0.0150 -0.1704 -0.0820
33298SOL    HW110208   6.373   9.408  10.754  0.8440  1.0841 -0.9261
33298SOL    HW210209   6.351   9.280  10.676 -1.1525  1.6359 -1.3343
33299SOL     OW10210   1.357   2.341   4.769  0.8057 -0.3076 -0.1330
33299SOL    HW110211   1.356   2.259   4.720 -0.0936  0.3396 -1.2464
33299SOL    HW210212   1.304   2.401   4.717  2.3704  1.3343  0.0715
33300SOL     OW10213   3.504   8.667  11.268  0.0185  0.1310  0.5193
33300SOL    HW110214   3.539   8.747  11.229  0.0693  0.0382  0.3756
33300SOL    HW210215   3.552   8.596  11.225  0.7063  0.0621  1.3706
33301SOL     OW10216  11.238  11.536  11.967  0.4349 -0.2653 -0.6351
33301SOL    HW110217  11.246  11.457  12.021 -0.1422  1.4084  2.0788
33301SOL    HW210218  11.289  11.516  11.888  1.8574 -2.6472  0.7578
33302SOL     OW10219   9.180   8.950   6.647  0.0989 -0.5309 -0.3959
33302SOL    HW110220   9.230   8.935   6.566  1.0923  0.6169 -0.0186
33302SOL    HW210221   9.208   8.879   6.706 -0.5346 -1.2983 -0.9868
33303SOL     OW10222   1.965   6.236   6.896 -0.1576  0.3107  0.2955
33303SOL    HW110223   1.880   6.211   6.860  0.3967 -1.6349  0.2540
33303SOL    HW210224   1.949   6.245   6.990 -0.4133  0.0104  0.2799
33304SOL     OW10225   4.435   9.071   1.239  0.0711  0.5736 -0.1514
33304SOL    HW110226   4.518   9.024   1.235  0.3316  1.0955 -1.2559
33304SOL    HW210227   4.423   9.107   1.151  0.6932  3.9104  0.9646
33305SOL     OW10228   0.246   2.538   1.077 -0.0038  0.6028  0.6028
33305SOL    HW110229   0.252   2.543   1.173  0.0947 -0.1096  0.6394
33305SOL    HW210230   0.329   2.499   1.050  0.7629  2.4788  0.0640
33306SOL     OW10231   3.558   8.765   9.019 -0.2734 -0.5360  0.2394
33306SOL    HW110232   3.493   8.697   9.038 -0.3328 -0.5410  0.0136
33306SOL    HW210233   3.512   8.827   8.962 -0.6791  0.4342  1.5585
33307SOL     OW10234  10.584   2.035   0.566  0.2962 -0.2748  0.4166
33307SOL    HW110235  10.667   2.002   0.600 -0.0711 -0.5573  1.0591
33307SOL    HW210236  10.549   2.088   0.638  0.1834  0.3043 -0.0627
33308SOL     OW10237  10.903   6.092  12.511  0.3464 -0.0901  0.6721
33308SOL    HW110238  10.961   6.068  12.583  0.4190 -1.5406  0.1508
33308SOL    HW210239  10.898   6.014  12.456  0.7494  1.1575 -1.2429
33309SOL     OW10240  11.103   0.905   9.339 -0.1237 -0.0257  0.1993
33309SOL    HW110241  11.089   0.820   9.296 -0.9268 -0.6507  1.6337
33309SOL    HW210242  11.047   0.966   9.290  0.4384 -0.2995 -0.8232
33310SOL     OW10243   4.990  12.415   6.804  0.3801  0.4827  0.5527
33310SOL    HW110244   4.937  12.337   6.821  0.5743  0.2053 -0.1131
33310SOL    HW210245   4.928  12.488   6.810  0.2914  0.3291  1.6572
33311SOL     OW10246   8.551   7.494   2.244  0.0151  0.2997 -0.1863
33311SOL    HW110247   8.501   7.536   2.175  0.5052  0.0103 -0.7276
33311SOL    HW210248   8.550   7.401   2.222  0.7617  0.2853 -0.1975
33312SOL     OW10249  10.052  10.913   4.216  0.0398 -0.6913  0.1097
33312SOL    HW110250  10.148  10.917   4.222 -0.0426  2.0375  0.8484
33312SOL    HW210251  10.024  10.878   4.300  0.3562  0.5840  0.7753
33313SOL     OW10252   1.460   8.747   8.884 -0.2783 -0.4469  0.2176
33313SOL    HW110253   1.381   8.693   8.892 -0.9396  0.0606 -2.1651
33313SOL    HW210254   1.454   8.808   8.957 -0.5813 -2.1965  1.7414
33314SOL     OW10255  11.696   3.977   5.449  0.2088  0.7544  0.0760
33314SOL    HW110256  11.657   4.029   5.378 -1.4485 -2.3340 -1.5335
33314SOL    HW210257  11.789   3.971   5.426  0.0680  1.4579 -0.7368
33315SOL     OW10258  11.251   5.729   0.226 -0.1287  0.6605 -0.0212
33315SOL    HW110259  11.160   5.748   0.201 -0.0988  0.0283 -0.6210
33315SOL    HW210260  11.299   5.808   0.201 -0.3811  0.6906 -0.4213
33316SOL     OW10261   8.454   2.005   2.513 -0.2591  0.8287 -0.1998
33316SOL    HW110262   8.455   2.091   2.554  1.1624  0.4246  0.6747
33316SOL    HW210263   8.505   1.950   2.572 -0.6777 -0.4884 -1.0285
33317SOL     OW10264   6.844   5.986   5.761 -0.2949  0.4157  0.4570
33317SOL    HW110265   6.839   5.964   5.854  0.0699 -0.0194  0.3786
33317SOL    HW210266   6.938   5.995   5.744 -0.3764  0.7934  0.1972
33318SOL     OW10267   7.944   3.430   3.497 -0.3569  0.0205  0.1752
33318SOL    HW110268   7.892   3.381   3.561  0.6164  0.3197  1.2220
33318SOL    HW210269   7.885   3.499   3.467 -0.6401  0.2697  1.2426
33319SOL     OW10270   0.207   2.144   6.584  0.1619 -0.5863 -0.6217
33319SOL    HW110271   0.298   2.117   6.588  0.8931  1.7113 -0.0196
33319SOL    HW210272   0.180   2.124   6.494  1.6958 -0.0623 -1.2269
33320SOL     OW10273   5.793   0.325   1.028 -0.0573  0.3247  0.2696
33320SOL    HW110274   5.828   0.413   1.044 -1.0161  1.0542 -1.3563
33320SOL    HW210275   5.818   0.306   0.938 -0.8801 -0.5745  0.2172
33321SOL     OW10276  10.524   9.012   3.260 -0.4695 -0.1363  0.7207
33321SOL    HW110277  10.504   9.100   3.226  1.6936  0.5410  1.0340
33321SOL    HW210278  10.507   9.019   3.354  1.8737  0.7489  1.1629
33322SOL     OW10279   4.186   0.757   0.593 -0.5619  0.0015  0.6099
33322SOL    HW110280   4.111   0.697   0.594  0.4813 -1.5178 -2.4137
33322SOL    HW210281   4.249   0.717   0.653 -0.1690 -1.6320 -0.8185
33323SOL     OW10282   1.890  10.288   7.109  0.2518  0.1900 -0.3608
33323SOL    HW110283   1.912  10.326   7.194 -0.1001  0.1778 -0.2595
33323SOL    HW210284   1.858  10.361   7.057 -0.6111  0.0093 -0.1003
33324SOL     OW10285   3.546   8.845   3.209 -0.0171  0.3304  0.1041
33324SOL    HW110286   3.461   8.826   3.169 -0.5337  1.4217  0.6367
33324SOL    HW210287   3.535   8.821   3.301  0.2169  0.5603  0.1934
33325SOL     OW10288   0.015  10.381   1.435 -0.1489  0.0326  0.4457
33325SOL    HW110289  -0.009  10.308   1.492 -0.1873 -0.1034  0.2543
33325SOL    HW210290  -0.066  10.405   1.390  0.0289 -0.3128 -0.0688
33326SOL     OW10291  10.287  11.135   7.067  0.4725 -0.2857  0.3323
33326SOL    HW110292  10.346  11.158   6.995 -0.1379  0.5312  0.0686
33326SOL    HW210293  10.309  11.197   7.136  0.7259 -0.7552  0.6742
33327SOL     OW10294  12.341  11.213  10.530  0.4705  0.1738 -0.5327
33327SOL    HW110295  12.294  11.289  10.496  0.2875  0.3046  0.0173
33327SOL    HW210296  12.425  11.248  10.560  0.9551 -0.0639 -1.5423
33328SOL     OW10297   3.418   0.265   1.695 -0.5500  0.0725 -0.1803
33328SOL    HW110298   3.456   0.250   1.608  0.4648 -0.8210  0.3949
33328SOL    HW210299   3.417   0.360   1.705  0.6777  0.1495 -0.5968
33329SOL     OW10300   4.724   7.109  11.058 -0.1182  0.5845 -0.1739
33329SOL    HW110301   4.693   7.096  10.968 -0.9118  1.6320 -0.0755
33329SOL    HW210302   4.686   7.037  11.108 -0.0154  0.2319 -0.6074
33330SOL     OW10303   0.396   6.178   0.924 -0.1158  0.2891  0.7075
33330SOL    HW110304   0.430   6.088   0.921 -1.3118 -0.1722 -0.4403
33330SOL    HW210305   0.425   6.213   1.007  1.9438 -0.5368  0.3783
33331SOL     OW10306  11.944  10.279   3.312  0.1136 -0.6279 -0.0964
33331SOL    HW110307  11.854  10.310   3.328  0.7760  0.3373  2.1090
33331SOL    HW210308  11.988  10.353   3.271  0.4857 -0.2778  0.9201
33332SOL     OW10309  12.063  12.384   1.176  0.4566  0.0405 -0.4182
33332SOL    HW110310  12.128  12.314   1.180  0.0918 -0.2969 -0.2360
33332SOL    HW210311  12.091  12.448   1.241 -0.0442 -0.6786  0.5289
33333SOL     OW10312  10.922  12.349   0.955 -0.4001 -0.1674  0.0939
33333SOL    HW110313  10.936  12.289   1.029 -0.6615  0.2528  0.4866
33333SOL    HW210314  10.921  12.436   0.994  0.7628  0.1626 -0.5797
33334SOL     OW10315   9.439   4.153   6.666  0.2522 -0.0885  0.3448
33334SOL    HW110316   9.414   4.158   6.574  0.5659  0.7817  0.2999
33334SOL    HW210317   9.359   4.125   6.711  0.0134 -0.2070 -0.1501
33335SOL     OW10318   8.050   9.369   6.697 -0.1102 -0.3940  0.0582
33335SOL    HW110319   8.098   9.287   6.693 -1.2976 -1.1025 -0.4581
33335SOL    HW210320   8.003   9.366   6.781  0.3984  0.0899  0.3644
33336SOL     OW10321   4.566   7.685   5.515 -0.6327 -0.1255 -0.3567
33336SOL    HW110322   4.474   7.699   5.492 -0.8335  1.6761  1.2862
33336SOL    HW210323   4.571   7.710   5.607  1.2450 -1.5482 -0.0160
33337SOL     OW10324  11.528   7.011   1.335  0.5561 -0.2220  0.0710
33337SOL    HW110325  11.616   7.009   1.297  1.3191  1.3135  1.5915
33337SOL    HW210326  11.541   6.987   1.427 -0.5358  0.4454  0.4218
33338SOL     OW10327   7.415  10.024   8.154  0.1522  0.4305  0.0917
33338SOL    HW110328   7.454   9.961   8.093 -0.4772 -0.7826  0.8967
33338SOL    HW210329   7.330  10.045   8.115 -0.4042 -0.6170  0.6809
33339SOL     OW10330   8.806  12.364   6.972  0.4700 -0.7456  0.2205
33339SOL    HW110331   8.834  12.297   7.034  1.2977  1.1222  1.9757
33339SOL    HW210332   8.714  12.380   6.995  1.1006  0.7989  1.8905
33340SOL     OW10333   6.887   6.912   4.101  0.5401 -0.2367 -0.2022
33340SOL    HW110334   6.908   6.975   4.032 -0.4529  0.2279 -0.1051
33340SOL    HW210335   6.870   6.967   4.178 -0.2494 -0.6177 -0.0944
33341SOL     OW10336   8.563   1.861   2.716 -0.2170 -0.0858 -0.1416
33341SOL    HW110337   8.611   1.780   2.732  1.2792  0.9892  1.1635
33341SOL    HW210338   8.517   1.878   2.798 -0.1365  0.6049 -0.2312
33342SOL     OW10339   2.401   5.307   0.444  0.3619  0.4790 -0.5545
33342SOL    HW110340   2.379   5.400   0.450 -1.6492 -0.0221  1.2927
33342SOL    HW210341   2.383   5.284   0.353 -0.3433  1.6421 -0.7321
33343SOL     OW10342  11.846   0.102  12.071 -0.4820  0.4497  0.0264
33343SOL    HW110343  11.802   0.148  12.141  3.1062  3.4202  0.6298
33343SOL    HW210344  11.907   0.043  12.115 -1.1746 -0.8473 -0.7024
33344SOL     OW10345  11.560   6.582  11.676  0.0197  0.0648  0.1838
33344SOL    HW110346  11.555   6.488  11.694 -1.3485 -0.0550 -0.7069
33344SOL    HW210347  11.555   6.588  11.580  1.8264  0.9673  0.1058
33345SOL     OW10348   2.472   3.384   5.621 -0.1119 -0.1108  0.4200
33345SOL    HW110349   2.426   3.330   5.685 -0.4096 -0.6103 -0.2112
33345SOL    HW210350   2.560   3.347   5.617  0.6250  1.2565  2.1291
33346SOL     OW10351   1.224   2.406   3.810  1.0860  0.3458 -0.2733
33346SOL    HW110352   1.149   2.365   3.853 -0.4646  0.3869 -2.7166
33346SOL    HW210353   1.283   2.333   3.790  0.7347  0.0204 -0.1269
33347SOL     OW10354   2.578   7.466   7.923 -0.0466  0.4035  0.0661
33347SOL    HW110355   2.661   7.473   7.877 -0.6018  0.1569 -1.0015
33347SOL    HW210356   2.519   7.525   7.875 -0.4925  0.5664  0.8010
33348SOL     OW10357  10.540  11.186   2.760  0.0925 -0.2124  0.0605
33348SOL    HW110358  10.461  11.158   2.713 -0.4711  0.3171  0.6788
33348SOL    HW210359  10.556  11.117   2.824 -0.7118  0.3506  0.8990
33349SOL     OW10360   2.860  12.904   1.901 -0.2174 -0.7451  0.0411
33349SOL    HW110361   2.949  12.890   1.867 -0.2072  0.5685 -0.5117
33349SOL    HW210362   2.813  12.825   1.875  0.8911 -1.6649  0.7308
33350SOL     OW10363   3.561   5.700  11.663 -0.1830  1.1468 -0.2742
33350SOL    HW110364   3.586   5.616  11.625 -2.0954  1.0341 -1.3874
33350SOL    HW210365   3.592   5.695  11.754 -0.1505 -0.7051 -0.3432
33351SOL     OW10366  11.446   9.792   2.023  0.4194 -0.0997  0.1637
33351SOL    HW110367  11.376   9.855   2.044 -0.3958 -1.5914  2.2282
33351SOL    HW210368  11.400   9.718   1.985  0.5478 -1.7973  3.0487
33352SOL     OW10369   0.636   9.690  10.087 -0.2960 -0.1075 -0.4522
33352SOL    HW110370   0.575   9.660  10.020 -0.1652 -1.8605  0.1464
33352SOL    HW210371   0.596   9.769  10.122 -0.7322  0.4173 -2.0658
33353SOL     OW10372  11.242   5.291  10.863 -0.3813  0.2146  0.0385
33353SOL    HW110373  11.287   5.245  10.792 -1.2268  1.3704 -1.2782
33353SOL    HW210374  11.296   5.368  10.879  0.9348 -1.0308  2.1245
33354SOL     OW10375   7.091   1.999  12.272  0.3163 -0.2200  0.1284
33354SOL    HW110376   7.154   2.035  12.334  0.5306  0.1813 -0.3141
33354SOL    HW210377   7.017   2.060  12.274  0.1669 -0.4083  0.2687
33355SOL     OW10378   8.068   9.666   7.308  0.0919  0.0004 -0.2510
33355SOL    HW110379   8.092   9.736   7.247 -2.0351  0.4692 -0.6314
33355SOL    HW210380   8.091   9.586   7.262 -2.2967  0.3031 -2.1742
33356SOL     OW10381   7.074   9.993   8.284 -0.4604  0.3657  0.1626
33356SOL    HW110382   7.096   9.905   8.254  0.1779  0.8696 -0.9285
33356SOL    HW210383   7.080   9.989   8.379  0.2172 -0.6036  0.0892
33357SOL     OW10384   2.640   5.331   0.112 -0.1270  0.6164  0.4851
33357SOL    HW110385   2.575   5.271   0.148  1.3101 -1.3302  0.0438
33357SOL    HW210386   2.599   5.417   0.115 -2.4310 -0.4374  0.8293
33358SOL     OW10387   2.398  10.656  11.828 -0.2410  0.0807 -0.3055
33358SOL    HW110388   2.414  10.631  11.737  1.0202 -0.2567 -0.0076
33358SOL    HW210389   2.345  10.735  11.822  0.6865  0.6451 -1.3636
33359SOL     OW10390  10.374   4.287   1.016 -0.2329 -0.9343  0.5911
33359SOL    HW110391  10.391   4.297   0.923 -1.6083 -0.1731  0.4061
33359SOL    HW210392  10.435   4.219   1.044 -0.2689 -1.6623 -1.0062
33360SOL     OW10393   7.669   9.839   9.524  0.0330 -0.2523 -0.2873
33360SOL    HW110394   7.594   9.782   9.505 -0.1371 -0.0773 -0.1338
33360SOL    HW210395   7.716   9.843   9.440 -1.1513  1.1567 -0.9270
33361SOL     OW10396   3.222   4.299  12.058 -0.5988  0.3310  0.0807
33361SOL    HW110397   3.228   4.322  12.151 -0.3328 -0.9941  0.4193
33361SOL    HW210398   3.128   4.291  12.041 -0.6859 -3.7936  1.4627
33362SOL     OW10399   3.400   4.827   7.779 -0.2690 -0.0161 -0.1102
33362SOL    HW110400   3.492   4.823   7.752  0.1734  0.4493  1.2724
33362SOL    HW210401   3.382   4.741   7.816 -0.1549  0.1418  0.3205
33363SOL     OW10402   4.995   4.411   0.856 -0.9243  0.4094  0.3293
33363SOL    HW110403   5.000   4.333   0.801 -1.2583 -0.5501  1.6003
33363SOL    HW210404   4.968   4.481   0.797 -1.9616 -0.7348 -0.5926
33364SOL     OW10405   3.679  11.755   6.027  0.6308  0.1501  0.6072
33364SOL    HW110406   3.598  11.713   5.999  0.6468 -0.2849  1.1781
33364SOL    HW210407   3.744  11.730   5.961  0.2938  0.5352  0.1268
33365SOL     OW10408   4.894  10.884   1.460 -0.1028  0.6399 -0.0308
33365SOL    HW110409   4.901  10.850   1.371  0.9196  0.7421  0.0047
33365SOL    HW210410   4.863  10.809   1.512  0.2943  0.2968 -0.2869
33366SOL     OW10411   8.293   7.762   8.234  0.0238 -0.9817 -0.0259
33366SOL    HW110412   8.257   7.835   8.285 -0.3181 -1.2816  0.1665
33366SOL    HW210413   8.238   7.757   8.157  0.4920 -0.5808 -0.3921
33367SOL     OW10414   0.727   9.337   5.302  0.0106  0.3448 -0.0669
33367SOL    HW110415   0.725   9.242   5.290  1.9869  0.1543  0.6951
33367SOL    HW210416   0.795   9.351   5.368 -0.3475  2.2954 -0.0551
33368SOL     OW10417   1.709  12.149   5.144  0.6882  0.5463 -0.4049
33368SOL    HW110418   1.634  12.092   5.158 -0.2359  2.1145  1.5571
33368SOL    HW210419   1.784  12.098   5.173 -0.0491  0.0772  0.7708
33369SOL     OW10420   6.527   5.413   7.892 -0.1833  0.6356 -0.2260
33369SOL    HW110421   6.619   5.433   7.912 -0.6353  0.7871  2.0438
33369SOL    HW210422   6.529   5.323   7.860  0.6419 -0.0082  1.4729
33370SOL     OW10423   5.855   0.890   0.163 -0.1708  0.2808  0.7691
33370SOL    HW110424   5.888   0.893   0.073  0.4589  0.7535  1.0142
33370SOL    HW210425   5.784   0.826   0.160 -0.8298  1.0358 -0.2953
33371SOL     OW10426   0.381   7.566  11.143  0.5190 -0.1578 -0.1809
33371SOL    HW110427   0.335   7.489  11.176  0.0621 -0.0274 -0.5128
33371SOL    HW210428   0.472   7.536  11.134  0.4381 -0.5148  0.1500
33372SOL     OW10429   6.233   2.653  12.487 -0.0763  0.4958  0.1459
33372SOL    HW110430   6.204   2.712  12.557 -1.5255  1.0367 -0.8734
33372SOL    HW210431   6.326   2.641  12.503 -0.1659  1.4575  1.5515
33373SOL     OW10432   0.695   6.996   4.458  0.1858 -0.9131 -0.0681
33373SOL    HW110433   0.736   7.033   4.380 -2.4188 -0.1214 -1.1963
33373SOL    HW210434   0.666   6.909   4.432  0.7331 -1.2809  0.5429
33374SOL     OW10435  12.486   4.226   1.886  0.5265 -0.1760  0.2558
33374SOL    HW110436  12.581   4.240   1.892  0.5537 -0.6921  1.2003
33374SOL    HW210437  12.475   4.174   1.807  1.0784 -0.4637  0.3612
33375SOL     OW10438  10.523   9.158   8.841 -0.0237 -0.4840  0.6111
33375SOL    HW110439  10.589   9.135   8.775 -0.9530 -0.9326 -0.1985
33375SOL    HW210440  10.573   9.194   8.914  0.9731  1.0134 -0.7421
33376SOL     OW10441   5.252  11.635   5.723 -0.0795 -0.5605 -0.0675
33376SOL    HW110442   5.294  11.709   5.768 -0.9706  1.0504 -1.7439
33376SOL    HW210443   5.218  11.580   5.794  1.7039 -0.0560  1.2603
33377SOL     OW10444  11.358   0.184   5.494 -0.6217  0.4715  0.2681
33377SOL    HW110445  11.338   0.107   5.547 -0.4773  1.1592  1.3621
33377SOL    HW210446  11.430   0.226   5.540 -0.4002  1.0195 -0.5667
33378SOL     OW10447   0.255   1.967   0.796  0.1024 -0.1173 -0.2968
33378SOL    HW110448   0.191   1.904   0.829  0.0312 -0.2898 -0.7562
33378SOL    HW210449   0.242   1.967   0.701  1.0496 -0.4372 -0.4312
33379SOL     OW10450   2.704   3.561   3.496 -0.1326 -0.1879  0.2721
33379SOL    HW110451   2.721   3.655   3.488 -1.2087 -0.1064 -1.7224
33379SOL    HW210452   2.647   3.553   3.573 -0.2111  0.8226  0.3243
33380SOL     OW10453   8.484   2.136   1.300  0.1814 -0.3615  0.1319
33380SOL    HW110454   8.556   2.083   1.334  1.8536  1.2050 -0.8186
33380SOL    HW210455   8.453   2.087   1.223  0.0352 -1.1686  0.6953
33381SOL     OW10456   5.262   7.221   5.971  0.1259  0.3093 -0.0361
33381SOL    HW110457   5.328   7.163   5.932 -0.5309 -0.2371 -0.3602
33381SOL    HW210458   5.212   7.254   5.896  0.3262  1.0963  0.1698
33382SOL     OW10459   5.992   7.993   2.998 -0.3131  0.1875  0.0812
33382SOL    HW110460   6.064   8.055   2.988  0.1376 -0.3366  0.0100
33382SOL    HW210461   6.001   7.933   2.924 -0.3562 -0.3391  0.4961
33383SOL     OW10462  11.526   2.665   9.811  0.2660  0.2164 -0.0294
33383SOL    HW110463  11.494   2.650   9.722  0.8161 -0.4588 -0.1248
33383SOL    HW210464  11.533   2.577   9.849  0.3758  0.4738  0.5627
33384SOL     OW10465   9.953   7.531   5.357  0.5245  0.4930  0.4184
33384SOL    HW110466   9.967   7.575   5.441  1.3387 -0.5755  0.8758
33384SOL    HW210467  10.028   7.558   5.303  0.0278  1.1404  0.0331
33385SOL     OW10468  10.789   0.639   7.903  0.2289 -0.1727 -0.4014
33385SOL    HW110469  10.867   0.628   7.956 -0.1267 -2.4616 -0.2535
33385SOL    HW210470  10.789   0.563   7.844 -2.1138 -0.4981 -0.0641
33386SOL     OW10471   5.729   6.237   2.293 -0.2943 -0.3087 -0.3806
33386SOL    HW110472   5.824   6.232   2.281 -0.1851 -2.7016  0.7989
33386SOL    HW210473   5.718   6.295   2.368  0.2540 -0.1359 -0.4250
33387SOL     OW10474   3.029   9.256   1.393 -0.5576 -0.2889 -0.1246
33387SOL    HW110475   3.009   9.238   1.301 -0.6116  0.1482 -0.1991
33387SOL    HW210476   2.944   9.259   1.436 -0.5016 -1.1201  0.0617
33388SOL     OW10477   3.545   3.004  12.078 -0.0057 -0.5572  0.5862
33388SOL    HW110478   3.580   3.013  12.167  0.8280 -1.6775  0.4062
33388SOL    HW210479   3.521   2.911  12.072  3.5454 -1.5229 -1.5546
33389SOL     OW10480   5.070   1.485   6.381  0.1397  0.2803  0.0216
33389SOL    HW110481   5.156   1.467   6.342  1.1253  0.0978  2.1236
33389SOL    HW210482   5.008   1.470   6.310  1.7765 -0.4063 -1.3421
33390SOL     OW10483  11.194  12.868   5.893 -0.0607  0.3045 -0.5222
33390SOL    HW110484  11.191  12.783   5.939 -1.3194  0.1332 -0.8799
33390SOL    HW210485  11.260  12.918   5.941 -1.4432  0.2077  1.6525
33391SOL     OW10486   8.741   3.869   4.528  0.8014  0.1293  0.0337
33391SOL    HW110487   8.706   3.783   4.551  2.1666  0.1706  2.6171
33391SOL    HW210488   8.704   3.928   4.593  0.6943  1.3179 -1.0803
33392SOL     OW10489  12.371   3.021  11.557  0.5247  0.4032  0.1927
33392SOL    HW110490  12.397   2.941  11.512 -0.4627 -0.6124  1.3315
33392SOL    HW210491  12.354   3.084  11.487  3.8725  0.5399 -0.6905
33393SOL     OW10492   2.589   6.202   9.740  0.0487 -0.2033  0.6006
33393SOL    HW110493   2.660   6.209   9.804  0.6704 -0.3668 -0.0581
33393SOL    HW210494   2.604   6.275   9.680 -1.3603  0.8194  1.4229
33394SOL     OW10495  11.744   8.729   9.720  0.3141 -0.4548 -0.4525
33394SOL    HW110496  11.833   8.698   9.731 -0.4226 -2.3187  0.7252
33394SOL    HW210497  11.714   8.750   9.809 -0.3530  0.3799 -0.8533
33395SOL     OW10498  11.572  10.032   9.490 -0.8335  0.3994 -0.0901
33395SOL    HW110499  11.598   9.946   9.524 -1.0019  0.5913  0.5475
33395SOL    HW210500  11.514  10.012   9.417  0.4929 -0.0343 -1.0611
33396SOL     OW10501   2.043   5.647   2.770  0.0404  0.1551 -0.5707
33396SOL    HW110502   2.058   5.656   2.676 -1.6003 -1.3140 -1.0364
33396SOL    HW210503   1.982   5.573   2.778 -0.7696  0.9582  1.5781
33397SOL     OW10504   2.154   6.051  11.753 -0.2544 -0.2329  0.4542
33397SOL    HW110505   2.175   5.983  11.688 -1.1814 -1.3603  1.2963
33397SOL    HW210506   2.216   6.036  11.824 -0.1254  0.1402  0.4228
33398SOL     OW10507   0.724   1.084  11.604 -0.0578  0.2761  0.0636
33398SOL    HW110508   0.652   1.021  11.601  0.8624 -0.8238  0.3068
33398SOL    HW210509   0.688   1.165  11.568 -1.4887 -0.1721  0.4614
33399SOL     OW10510   6.826   0.790   8.640 -0.3694  0.0817 -0.4122
33399SOL    HW110511   6.851   0.732   8.568 -0.9328 -1.0766  0.2986
33399SOL    HW210512   6.880   0.761   8.714 -2.4952 -1.3246  0.6732
33400SOL     OW10513   9.453   8.700  10.021  0.3375 -0.6707  0.0611
33400SOL    HW110514   9.434   8.699  10.115  0.3248 -2.3265  0.0683
33400SOL    HW210515   9.548   8.709  10.016  0.2225  0.8400  0.1775
33401SOL     OW10516   0.558  12.208  10.860 -0.0640 -0.2564  0.2560
33401SOL    HW110517   0.553  12.131  10.917  0.4214  0.5708  1.4419
33401SOL    HW210518   0.646  12.243  10.876 -0.2456  0.4892 -0.3543
33402SOL     OW10519   2.939   3.677   5.641 -0.3288 -0.0194 -0.1628
33402SOL    HW110520   3.007   3.745   5.637 -1.4022  1.0672 -0.5918
33402SOL    HW210521   2.926   3.651   5.550  1.5529 -2.3864  0.1520
33403SOL     OW10522   8.119  12.837   3.597 -0.5201  0.2534  0.2476
33403SOL    HW110523   8.136  12.753   3.640 -3.0899 -0.0923  0.7513
33403SOL    HW210524   8.135  12.902   3.665 -0.8893 -0.0225  0.6066
33404SOL     OW10525   4.044   7.257   5.405 -0.3466 -0.2925 -0.0243
33404SOL    HW110526   4.000   7.200   5.469 -2.4894  1.1755 -0.0966
33404SOL    HW210527   3.990   7.252   5.327  2.3050 -2.1452 -1.8950
33405SOL     OW10528  10.285   4.484   8.356 -0.5080 -0.0281 -0.0955
33405SOL    HW110529  10.281   4.433   8.437  0.8136 -1.2234 -0.7303
33405SOL    HW210530  10.273   4.419   8.286 -1.6958  0.9885 -0.8693
33406SOL     OW10531   3.436   8.604   4.732 -0.4753  0.2459  0.3949
33406SOL    HW110532   3.423   8.564   4.646  0.0397 -1.2202  0.9719
33406SOL    HW210533   3.449   8.697   4.713  1.0072 -0.2363 -1.2605
33407SOL     OW10534   8.401  11.738   4.657  0.4263 -0.0908 -0.2842
33407SOL    HW110535   8.359  11.652   4.654  1.1152 -0.4693  0.4857
33407SOL    HW210536   8.428  11.755   4.567 -1.4254  0.2022 -0.8225
33408SOL     OW10537   3.854   2.929   8.916 -0.0797 -0.1688 -0.4367
33408SOL    HW110538   3.783   2.919   8.980  1.2261 -0.2395  1.0820
33408SOL    HW210539   3.821   2.993   8.853 -1.7036 -0.6405 -0.1217
33409SOL     OW10540   5.168  12.138   0.204  0.3749  0.1270  0.1510
33409SOL    HW110541   5.263  12.152   0.208  0.4036  0.2092 -0.7630
33409SOL    HW210542   5.151  12.068   0.267  1.0500  0.0435  0.2418
33410SOL     OW10543   0.125  12.598  10.875 -0.4294  0.4833 -0.4212
33410SOL    HW110544   0.128  12.532  10.805  2.2139  1.6108 -1.5054
33410SOL    HW210545   0.135  12.682  10.829  1.2474  1.2771  1.2803
33411SOL     OW10546  12.843   1.436   8.764 -0.2027  0.2679 -0.3023
33411SOL    HW110547  12.893   1.501   8.814 -0.4328  0.5075 -0.3831
33411SOL    HW210548  12.870   1.450   8.673 -2.5521  2.3895 -0.7743
33412SOL     OW10549   2.421   0.966  12.343  0.4989 -0.0923 -0.3379
33412SOL    HW110550   2.447   0.941  12.254  0.2107 -0.3756 -0.3445
33412SOL    HW210551   2.403   0.883  12.387  0.5348  0.0530 -0.0468
33413SOL     OW10552   4.674   8.600  12.907 -0.6146  0.3366 -0.0347
33413SOL    HW110553   4.659   8.674  12.848  2.6732  1.6616  0.5741
33413SOL    HW210554   4.713   8.640  12.985 -1.4219 -1.7783  1.5584
33414SOL     OW10555   7.309   9.034   5.414 -0.1034  0.0630  0.0601
33414SOL    HW110556   7.390   8.997   5.378 -0.4891 -0.9364  0.1882
33414SOL    HW210557   7.273   8.964   5.468 -0.0678  1.1717  1.5764
33415SOL     OW10558   6.532  11.031  10.927 -0.2776  0.2335 -0.8455
33415SOL    HW110559   6.518  11.108  10.983 -0.4538 -2.0059  2.4726
33415SOL    HW210560   6.458  11.031  10.867 -0.8564  2.0586 -0.1950
33416SOL     OW10561   5.602   9.444   1.514 -0.6511 -0.1183  0.2679
33416SOL    HW110562   5.620   9.419   1.424  0.9072  2.7562 -0.3161
33416SOL    HW210563   5.512   9.475   1.513 -0.9008 -0.8213 -0.0842
33417SOL     OW10564   8.024  12.638   0.335 -0.0971 -0.2730  0.3889
33417SOL    HW110565   8.118  12.617   0.330 -0.4357 -2.0534  0.7755
33417SOL    HW210566   7.986  12.596   0.258 -0.6087  0.3408  0.3013
33418SOL     OW10567   0.980  10.687  10.235 -0.4381 -0.2658 -0.8601
33418SOL    HW110568   0.945  10.607  10.196 -1.6808 -0.7849  1.1854
33418SOL    HW210569   1.047  10.716  10.173 -0.8262 -2.1809 -2.2754
33419SOL     OW10570   6.310  12.410   9.291 -0.4285 -0.1852 -0.1321
33419SOL    HW110571   6.304  12.453   9.376  0.6364 -0.7514  0.2498
33419SOL    HW210572   6.225  12.368   9.279 -1.1407  1.1861 -0.0691
33420SOL     OW10573   8.295   9.446   1.468  0.1304  0.0523 -0.3532
33420SOL    HW110574   8.255   9.385   1.530  2.4072  0.1646  1.3532
33420SOL    HW210575   8.297   9.529   1.515  1.0107  0.3796 -0.9566
33421SOL     OW10576   5.833   0.905   7.249 -0.0414 -0.7895  0.2232
33421SOL    HW110577   5.882   0.827   7.224 -1.2588 -1.4720 -0.0786
33421SOL    HW210578   5.798   0.886   7.336  0.2291 -0.2965  0.4480
33422SOL     OW10579   8.651   7.185   5.158 -0.3176 -0.0307  0.0617
33422SOL    HW110580   8.728   7.140   5.122 -0.2354 -0.8990  1.2737
33422SOL    HW210581   8.585   7.116   5.165 -0.0607 -0.1060  2.3507
33423SOL     OW10582   3.844   4.512   0.937  0.0140 -0.0816  0.2145
33423SOL    HW110583   3.868   4.448   0.870 -1.3420 -0.0871 -0.2990
33423SOL    HW210584   3.798   4.462   1.003 -0.6254  0.2833  0.0495
33424SOL     OW10585   1.082   8.127   4.234 -0.2052  0.1768  0.7633
33424SOL    HW110586   1.139   8.051   4.225 -1.6946 -0.8560 -0.6531
33424SOL    HW210587   1.141   8.202   4.231  1.1196 -0.8483 -0.2828
33425SOL     OW10588   0.906  11.832  10.592  1.2726  0.3619  0.5502
33425SOL    HW110589   0.858  11.842  10.509  1.6466 -0.6451  0.2037
33425SOL    HW210590   0.859  11.889  10.653  0.0554 -0.0611  0.0433
33426SOL     OW10591   7.090  11.831   1.106 -0.1878 -0.0087  0.3737
33426SOL    HW110592   7.152  11.838   1.034 -0.3937 -0.8996  0.0931
33426SOL    HW210593   7.095  11.915   1.152  0.4418  0.3077 -0.2737
33427SOL     OW10594   0.216   4.683   8.004  0.2020 -0.4074 -0.2905
33427SOL    HW110595   0.186   4.771   8.025  0.9064 -0.3862  0.6882
33427SOL    HW210596   0.211   4.678   7.909 -0.7144  0.3635 -0.2952
33428SOL     OW10597   0.757   6.298  11.460 -0.8200  0.7455 -0.1645
33428SOL    HW110598   0.790   6.307  11.550 -2.4265  0.4865  0.4900
33428SOL    HW210599   0.729   6.207  11.453 -2.1383  1.1512 -0.3963
33429SOL     OW10600   9.024  11.402   6.766  0.2036 -0.2303 -0.5626
33429SOL    HW110601   9.034  11.436   6.855  1.9799 -0.2888 -0.7207
33429SOL    HW210602   8.989  11.476   6.716  0.6556  0.2826 -0.1399
33430SOL     OW10603   1.557   6.621  12.851 -0.1313  0.1108  0.1502
33430SOL    HW110604   1.598   6.535  12.865  0.4238  0.2642 -0.5196
33430SOL    HW210605   1.561   6.634  12.757  1.2289  1.5777  0.3793
33431SOL     OW10606  10.438   0.467   3.007 -0.3740  0.1298  0.0098
33431SOL    HW110607  10.364   0.412   2.980  0.2861  0.0634 -1.8207
33431SOL    HW210608  10.410   0.557   2.986 -0.9809  0.4221  1.8897
33432SOL     OW10609   4.832   4.855   7.009  0.0643  1.0302 -0.7114
33432SOL    HW110610   4.852   4.764   6.986 -0.1378  0.9062 -0.4109
33432SOL    HW210611   4.810   4.896   6.926 -1.6569  0.3272 -0.6487
33433SOL     OW10612   4.331   1.275  10.463  0.1033 -0.4006  0.7553
33433SOL    HW110613   4.394   1.229  10.407  1.3971  0.2254  1.6498
33433SOL    HW210614   4.381   1.345  10.503 -1.4724  0.8687  0.5945
33434SOL     OW10615  11.030   5.950  11.175 -0.4100  0.1150 -0.1841
33434SOL    HW110616  10.961   5.993  11.226  0.2594  0.5693  0.3497
33434SOL    HW210617  11.111   5.988  11.207  0.1486 -0.9723 -0.2708
33435SOL     OW10618   1.018   1.319   1.594 -0.6575 -0.3982  0.0546
33435SOL    HW110619   0.978   1.339   1.509 -1.7637  1.0190  0.8616
33435SOL    HW210620   1.033   1.225   1.592  0.9870 -0.1806 -2.3920
33436SOL     OW10621   7.445   7.712   3.250 -0.4177  0.5187 -0.8102
33436SOL    HW110622   7.489   7.739   3.331  1.1642 -1.4313 -0.9245
33436SOL    HW210623   7.393   7.636   3.276  2.0697 -1.7372 -1.9646
33437SOL     OW10624   0.958   4.190   2.649  0.3592  0.1578  0.3292
33437SOL    HW110625   0.995   4.161   2.566  1.5257  2.4480 -0.0279
33437SOL    HW210626   0.949   4.110   2.700  2.6466 -0.9524 -0.8497
33438SOL     OW10627   1.226   0.470   6.592  0.3046  0.2474 -0.5635
33438SOL    HW110628   1.258   0.558   6.574 -0.7191  0.7050 -0.1809
33438SOL    HW210629   1.142   0.464   6.546 -0.2145 -0.1004  0.4034
33439SOL     OW10630   7.213   7.888   6.810 -0.2189 -0.5166 -0.6458
33439SOL    HW110631   7.297   7.842   6.804  0.2452  0.3800 -1.2990
33439SOL    HW210632   7.234   7.979   6.788 -1.0493  0.0995  0.9637
33440SOL     OW10633   0.659   8.703  12.364  0.6225 -0.0550  0.2870
33440SOL    HW110634   0.654   8.640  12.436 -0.1513 -1.0986 -0.6426
33440SOL    HW210635   0.733   8.760  12.386  1.0800 -1.0366  1.3590
33441SOL     OW10636   4.787   1.996   0.589  0.0680 -0.0765 -0.1167
33441SOL    HW110637   4.778   2.083   0.628  1.3847  0.6934 -1.4518
33441SOL    HW210638   4.836   2.010   0.508 -1.5204 -1.7748 -1.4838
33442SOL     OW10639   2.211   0.135   0.256 -0.6949 -0.1108  0.9757
33442SOL    HW110640   2.295   0.178   0.243 -1.4225  1.4051  1.1417
33442SOL    HW210641   2.222   0.087   0.339  0.0893 -0.1964  0.8323
33443SOL     OW10642   6.259   0.641   9.653  0.1262  0.7395 -0.7286
33443SOL    HW110643   6.190   0.700   9.682 -1.0703 -0.1502 -1.6628
33443SOL    HW210644   6.286   0.593   9.731 -2.6662 -1.2534 -0.8433
33444SOL     OW10645   9.124   8.553  10.180  0.4481 -0.2573 -0.2521
33444SOL    HW110646   9.172   8.490  10.126 -0.4238  0.4494 -1.9027
33444SOL    HW210647   9.065   8.499  10.233 -1.1531 -0.8259 -2.4979
33445SOL     OW10648  10.411   4.203   2.106 -0.2577  0.2179  0.3144
33445SOL    HW110649  10.351   4.167   2.172  0.0608 -0.8090  0.0487
33445SOL    HW210650  10.453   4.277   2.151  0.4744 -0.8887  1.5267
33446SOL     OW10651   9.809   8.173  11.848  0.4811 -0.1230 -0.3259
33446SOL    HW110652   9.789   8.092  11.802 -1.9180  0.0965  0.1545
33446SOL    HW210653   9.894   8.200  11.815 -0.9336 -0.0544 -4.5344
33447SOL     OW10654   2.656   2.035   1.327 -0.2215 -0.8787  0.2330
33447SOL    HW110655   2.566   2.035   1.362 -0.2725  1.4930  0.2377
33447SOL    HW210656   2.709   2.074   1.397  0.4979 -0.5656 -0.4671
33448SOL     OW10657  10.734   1.270   5.663 -0.1584 -0.1703 -0.1049
33448SOL    HW110658  10.766   1.346   5.613 -0.4320 -0.4079 -0.6524
33448SOL    HW210659  10.788   1.269   5.742 -0.9907  1.3621  0.5383
33449SOL     OW10660   4.046   4.328   2.962 -0.0950 -0.6291 -0.0765
33449SOL    HW110661   3.976   4.274   2.924 -0.0638 -0.4733 -0.3590
33449SOL    HW210662   4.006   4.414   2.975 -0.8536 -1.2854  2.5341
33450SOL     OW10663   3.425   3.228  11.477 -0.3908 -0.0636  0.4266
33450SOL    HW110664   3.371   3.225  11.398 -0.0322 -0.5493  0.1992
33450SOL    HW210665   3.364   3.255  11.546 -1.1415 -1.4598  0.3443
33451SOL     OW10666   7.263  11.604   0.494  0.5380  0.6958  0.3481
33451SOL    HW110667   7.315  11.578   0.418  1.3345  1.2010  0.7096
33451SOL    HW210668   7.233  11.693   0.473  0.5589  0.7438  0.5180
33452SOL     OW10669   1.654  12.456   8.822 -0.0368  0.2521 -0.3138
33452SOL    HW110670   1.716  12.514   8.777 -0.9030  0.4927 -1.2440
33452SOL    HW210671   1.692  12.369   8.811  0.9434  0.5451  0.5287
33453SOL     OW10672   0.280  10.086  10.741 -0.1785  0.3622 -0.4127
33453SOL    HW110673   0.203  10.132  10.773  0.9733  0.5734  2.3109
33453SOL    HW210674   0.325  10.150  10.686  0.2540  1.8081  1.5221
33454SOL     OW10675  11.348  11.209   7.566 -0.5528  0.9576 -0.5534
33454SOL    HW110676  11.376  11.208   7.657 -1.4165 -0.9068 -0.2674
33454SOL    HW210677  11.263  11.253   7.567 -0.7860  0.5131 -0.3671
33455SOL     OW10678  12.704   5.295   8.467  0.0158  0.5422  0.4012
33455SOL    HW110679  12.652   5.337   8.535 -0.6303  0.2454  0.0958
33455SOL    HW210680  12.657   5.312   8.385  1.0631  1.3578 -0.0655
33456SOL     OW10681   2.959  12.586   7.411  0.0830 -0.0967  0.0096
33456SOL    HW110682   2.972  12.497   7.444 -1.9617 -0.7967 -0.9385
33456SOL    HW210683   3.047  12.624   7.411  0.9756 -2.0179  0.6684
33457SOL     OW10684   4.542   8.909   1.857  0.5668 -0.0212  0.2749
33457SOL    HW110685   4.464   8.854   1.850  1.1350 -0.6149 -1.9233
33457SOL    HW210686   4.610   8.851   1.890  0.5143  0.0637  0.5364
33458SOL     OW10687   1.079   9.948   3.066 -0.9888  0.6560  0.4185
33458SOL    HW110688   1.128  10.027   3.041 -0.4727  0.3100  0.3257
33458SOL    HW210689   1.092   9.887   2.993 -0.2902  0.0031  1.0692
33459SOL     OW10690   3.527   6.182  11.031 -0.4191 -0.2382  0.3618
33459SOL    HW110691   3.503   6.131  10.954 -2.0280  0.6500  0.2448
33459SOL    HW210692   3.578   6.255  10.997 -0.3452 -0.3405  0.2510
33460SOL     OW10693  10.944   3.871   8.107 -0.2828  0.1916 -0.2488
33460SOL    HW110694  10.898   3.826   8.178 -1.4541 -0.7783 -1.5727
33460SOL    HW210695  10.888   3.946   8.085 -0.8443 -0.5209 -1.3109
33461SOL     OW10696  11.214   2.783   6.585 -0.5381 -0.0746  0.1131
33461SOL    HW110697  11.215   2.693   6.552  0.1380 -0.3812  0.9212
33461SOL    HW210698  11.161   2.831   6.522  1.2869 -0.4663 -1.8330
33462SOL     OW10699  10.541   5.223   2.547  0.0912  0.0764 -0.0451
33462SOL    HW110700  10.557   5.309   2.586  0.6475 -0.7947  1.7423
33462SOL    HW210701  10.473   5.240   2.481  0.6391  1.9731 -0.2030
33463SOL     OW10702   0.274  12.818   8.323 -0.2543 -0.1970  0.0522
33463SOL    HW110703   0.230  12.770   8.252  0.6183  0.1121 -0.7227
33463SOL    HW210704   0.354  12.852   8.282 -1.1684  2.5157  0.3673
33464SOL     OW10705   0.055  11.460   4.399 -0.3550 -0.5464 -0.2820
33464SOL    HW110706  -0.013  11.399   4.370 -0.7573 -1.1933  1.8185
33464SOL    HW210707   0.071  11.517   4.324 -3.8075  0.1321 -0.6629
33465SOL     OW10708  11.570   7.549   1.989  0.1024  0.2464 -0.1755
33465SOL    HW110709  11.600   7.521   1.903 -1.3587 -0.6840 -0.4100
33465SOL    HW210710  11.624   7.500   2.051 -0.2874 -0.7247 -0.5820
33466SOL     OW10711   1.884   4.682   7.427  0.0801 -0.7460 -0.2597
33466SOL    HW110712   1.865   4.714   7.516  1.4897  0.2757 -0.2853
33466SOL    HW210713   1.811   4.623   7.407 -0.2668 -1.0275  1.5821
33467SOL     OW10714   9.366   1.295   0.036 -0.0950 -0.1021 -0.0872
33467SOL    HW110715   9.411   1.374   0.066  0.8345 -1.0645  1.1494
33467SOL    HW210716   9.386   1.291  -0.058  0.0526  0.9873 -0.1176
33468SOL     OW10717   5.871   9.717  10.236 -0.1279  0.7876 -0.0638
33468SOL    HW110718   5.814   9.724  10.159 -1.0949  2.0109  0.7283
33468SOL    HW210719   5.959   9.707  10.200 -0.8894 -2.9604 -1.3714
33469SOL     OW10720   7.138   8.984   0.500 -0.3392  0.2868 -0.1203
33469SOL    HW110721   7.158   9.078   0.493 -0.6234  0.3174 -0.5420
33469SOL    HW210722   7.152   8.964   0.593  1.4386  0.3484 -0.3395
33470SOL     OW10723   4.073   4.275   5.393  0.2060 -0.3410 -0.1580
33470SOL    HW110724   4.017   4.247   5.321  0.2805 -0.8003 -0.0420
33470SOL    HW210725   4.020   4.259   5.472 -0.4966  1.6035 -0.1623
33471SOL     OW10726   0.564   6.228   3.931  0.0738 -0.6372  0.1546
33471SOL    HW110727   0.553   6.306   3.986  1.6264  0.1190 -0.5409
33471SOL    HW210728   0.505   6.243   3.858  0.9675  0.3411 -0.4048
33472SOL     OW10729  10.729  11.144   0.546  0.6262 -0.0409 -0.2275
33472SOL    HW110730  10.700  11.232   0.522  0.0794  0.0917  0.8586
33472SOL    HW210731  10.674  11.120   0.620  1.4656 -0.8882  0.1425
33473SOL     OW10732  10.096   3.650  12.146 -0.0263 -0.4533 -0.0195
33473SOL    HW110733  10.118   3.743  12.152  1.9694 -0.9760  2.6681
33473SOL    HW210734  10.059   3.628  12.231 -0.6884 -2.1025 -0.6840
33474SOL     OW10735   0.629   7.151   1.343 -0.1980 -0.1365 -0.1740
33474SOL    HW110736   0.622   7.060   1.314  0.0511 -0.1546 -0.1833
33474SOL    HW210737   0.717   7.177   1.317 -0.3056  0.1383 -0.2587
33475SOL     OW10738   6.280   9.723   7.297  0.1280 -0.0638  0.6895
33475SOL    HW110739   6.188   9.726   7.323 -0.0606  0.9848 -0.0328
33475SOL    HW210740   6.316   9.808   7.324  0.4583  0.1897 -0.4821
33476SOL     OW10741   2.713   9.584   9.238  0.1185  0.5009  0.3864
33476SOL    HW110742   2.708   9.567   9.144  2.0455  0.8015  0.1751
33476SOL    HW210743   2.741   9.676   9.244  1.7052  0.0120  1.1654
33477SOL     OW10744   8.992  12.323   5.358 -0.0435  1.1378  0.3555
33477SOL    HW110745   8.958  12.237   5.332 -0.9510  0.8756  2.2421
33477SOL    HW210746   9.054  12.346   5.288 -0.5759 -0.5483 -0.7434
33478SOL     OW10747   9.581   9.389   8.093  0.3512  0.1366  0.4700
33478SOL    HW110748   9.569   9.295   8.104 -1.6905 -0.1121 -2.6051
33478SOL    HW210749   9.521   9.429   8.156  0.9869 -0.5882  1.5531
33479SOL     OW10750   3.802   9.613   2.615 -0.1266  0.2174 -0.4166
33479SOL    HW110751   3.723   9.615   2.669 -0.2390  0.0999 -0.5815
33479SOL    HW210752   3.809   9.702   2.581 -0.1477  0.2470 -0.3460
33480SOL     OW10753  10.992   3.163   0.882  0.1347  0.4238 -0.3156
33480SOL    HW110754  11.078   3.165   0.841  0.2781  0.4696 -0.0179
33480SOL    HW210755  10.952   3.247   0.857 -0.4414 -0.2475 -1.7426
33481SOL     OW10756   8.384   1.746   0.574  0.0622  0.0431  0.4119
33481SOL    HW110757   8.431   1.696   0.507  1.3978  1.4195  0.2594
33481SOL    HW210758   8.380   1.687   0.649 -0.2877 -1.0425 -0.4332
33482SOL     OW10759  11.322   1.303   6.941 -0.4828  0.1691  0.0823
33482SOL    HW110760  11.390   1.318   7.006  0.0131 -1.0933 -0.1118
33482SOL    HW210761  11.357   1.341   6.860 -0.1617 -0.1432  0.0711
33483SOL     OW10762   8.263   6.470   7.226 -0.6011  0.0699  0.1469
33483SOL    HW110763   8.329   6.401   7.221  0.6863  1.2893 -0.3051
33483SOL    HW210764   8.298   6.532   7.290 -2.2138 -0.1543  1.2949
33484SOL     OW10765   2.711   8.804   3.820  0.1839  0.0969  0.3338
33484SOL    HW110766   2.638   8.805   3.759  0.6657  1.4391 -0.2628
33484SOL    HW210767   2.782   8.847   3.773  0.6004  1.0708  1.7748
33485SOL     OW10768   2.678   1.970   2.537  0.5729  0.0938  0.7098
33485SOL    HW110769   2.635   1.917   2.469 -0.5886 -1.3239  2.4414
33485SOL    HW210770   2.617   2.041   2.555  0.0889 -0.4812  1.3999
33486SOL     OW10771   8.809   9.677   7.542  0.1626  0.1502  0.1351
33486SOL    HW110772   8.773   9.749   7.596 -2.1837 -0.7642 -0.0909
33486SOL    HW210773   8.885   9.716   7.499 -1.2895  2.7007 -0.3701
33487SOL     OW10774   0.483   0.685   9.032  0.5073  0.1926 -0.0636
33487SOL    HW110775   0.437   0.631   9.096  2.3923 -0.8612  0.4831
33487SOL    HW210776   0.524   0.622   8.972  3.2029  0.8791  0.8934
33488SOL     OW10777   9.776   2.121   5.551 -0.5102  0.4955 -0.0116
33488SOL    HW110778   9.755   2.029   5.568 -2.0991  0.9223  0.4633
33488SOL    HW210779   9.846   2.141   5.613 -0.1056 -0.3960 -0.1585
33489SOL     OW10780   2.436   9.097   6.326  0.0516 -0.1006  0.4377
33489SOL    HW110781   2.465   9.046   6.251 -1.8342 -0.1561 -0.3008
33489SOL    HW210782   2.381   9.036   6.376 -2.0690  1.0734 -0.3534
33490SOL     OW10783   1.291   0.982   5.150 -0.2775  0.2227 -0.5588
33490SOL    HW110784   1.277   1.077   5.147 -1.1823  0.0788 -1.6985
33490SOL    HW210785   1.381   0.970   5.117  0.1579  0.7239  0.4100
33491SOL     OW10786  10.552   5.910   5.533 -0.3950  0.5151  0.0161
33491SOL    HW110787  10.647   5.920   5.533 -0.4195  0.7925  0.5484
33491SOL    HW210788  10.520   5.977   5.472 -0.2561  0.4673 -0.1082
33492SOL     OW10789   5.220   7.310   9.375 -0.2764 -0.4599 -0.3205
33492SOL    HW110790   5.305   7.354   9.378  0.6810 -2.0125 -2.3105
33492SOL    HW210791   5.162   7.371   9.331  0.5646 -0.4540 -1.4555
33493SOL     OW10792   9.879   1.038  10.727  0.6860  0.3059  0.3105
33493SOL    HW110793   9.840   1.110  10.678  0.8639 -0.1419 -0.4966
33493SOL    HW210794   9.845   1.048  10.816 -1.8542 -0.4850 -0.4885
33494SOL     OW10795   0.744   2.792   9.877  0.5503 -0.0327 -1.1112
33494SOL    HW110796   0.829   2.764   9.913 -0.0277  0.5386  0.8140
33494SOL    HW210797   0.766   2.839   9.797  2.0751  0.2179 -0.5774
33495SOL     OW10798   0.200   8.418   7.630  0.1616  0.2797  0.1742
33495SOL    HW110799   0.168   8.449   7.545  3.3307  1.2310 -0.8143
33495SOL    HW210800   0.128   8.436   7.690 -2.9430 -2.0277 -2.4618
33496SOL     OW10801   9.785   2.483   8.247  0.0871 -0.4000 -0.3691
33496SOL    HW110802   9.764   2.523   8.163 -1.4450 -2.4047 -1.0286
33496SOL    HW210803   9.810   2.393   8.225 -1.6696 -1.3956  1.3638
33497SOL     OW10804   6.156   9.902  12.982  0.5443 -0.4450  0.0939
33497SOL    HW110805   6.061   9.901  12.975  0.6430 -2.4860 -2.7900
33497SOL    HW210806   6.181   9.809  12.987  2.4383 -0.0311 -0.7231
33498SOL     OW10807   8.209   3.777   8.292 -0.2001  0.0614 -0.2766
33498SOL    HW110808   8.259   3.717   8.237  1.6049  0.0682  1.2512
33498SOL    HW210809   8.124   3.735   8.303 -0.0779 -0.6557 -1.7881
33499SOL     OW10810   2.558   4.229   2.644 -0.1101 -0.1932 -0.0931
33499SOL    HW110811   2.555   4.213   2.550 -1.9989  0.8758 -0.2627
33499SOL    HW210812   2.637   4.282   2.656 -0.6275  0.9381 -1.3334
33500SOL     OW10813   7.531   7.605   8.526 -0.0304  0.0868  0.3788
33500SOL    HW110814   7.527   7.699   8.507 -1.7354  0.1791  1.0348
33500SOL    HW210815   7.440   7.575   8.516  0.4806 -1.4922  0.2217
33501SOL     OW10816  12.629   4.774   4.513 -0.5188 -0.5232 -0.7332
33501SOL    HW110817  12.567   4.845   4.531 -0.1875 -0.5742  0.6986
33501SOL    HW210818  12.714   4.809   4.541 -0.0740 -0.8658 -1.6278
33502SOL     OW10819   6.162  12.107   0.574 -0.2271  0.2571 -0.1596
33502SOL    HW110820   6.093  12.117   0.508  0.4546  0.0936 -0.9025
33502SOL    HW210821   6.151  12.017   0.606 -0.9282  0.5261  0.3821
33503SOL     OW10822  11.782  12.320   9.287  0.0157 -0.0301  0.1481
33503SOL    HW110823  11.692  12.353   9.279  1.0569  3.2524  0.6359
33503SOL    HW210824  11.779  12.264   9.364 -1.6450 -0.1931  0.0195
33504SOL     OW10825  12.117   2.417   6.413 -0.0585 -0.1349  0.2141
33504SOL    HW110826  12.103   2.344   6.474  1.5171  0.6787  1.6628
33504SOL    HW210827  12.035   2.426   6.366 -1.5195 -0.6011  2.5038
33505SOL     OW10828   7.270   0.208  10.213  0.3276 -0.2704  0.1152
33505SOL    HW110829   7.184   0.171  10.192 -0.3230 -1.0560  3.5959
33505SOL    HW210830   7.251   0.293  10.252  1.2362  0.0276 -0.0625
33506SOL     OW10831   1.714   9.896   8.467  0.0297 -0.1917  0.3765
33506SOL    HW110832   1.693   9.916   8.558  0.9647 -1.7849  0.9958
33506SOL    HW210833   1.639   9.845   8.436  1.0674 -2.4603  1.3413
33507SOL     OW10834   0.559  12.437   2.266  0.3051  0.1686  0.2133
33507SOL    HW110835   0.487  12.496   2.291  0.9258  0.5969  1.0316
33507SOL    HW210836   0.518  12.372   2.209 -0.4224  1.3477 -0.6618
33508SOL     OW10837  11.497  10.424   6.376  0.3096  0.3455  0.4524
33508SOL    HW110838  11.414  10.444   6.333 -0.8197 -1.7211  1.5410
33508SOL    HW210839  11.558  10.408   6.304 -0.5529  0.6229 -0.3607
33509SOL     OW10840   8.878  11.471   9.500 -0.1337 -0.1958 -0.3023
33509SOL    HW110841   8.854  11.424   9.420  0.3696 -1.9569  0.5147
33509SOL    HW210842   8.865  11.406   9.570  0.3152  1.0042  0.9339
33510SOL     OW10843   2.377  10.823   0.536 -0.3472  0.2674  0.1253
33510SOL    HW110844   2.388  10.789   0.625 -2.6061 -0.0758  0.3140
33510SOL    HW210845   2.392  10.747   0.479  1.5811  0.5903  0.1298
33511SOL     OW10846   4.699   3.930   9.228  0.0346 -0.3067  0.3630
33511SOL    HW110847   4.719   3.989   9.301 -2.1124  0.7332  0.2037
33511SOL    HW210848   4.628   3.875   9.261  0.5300 -1.3427 -0.2430
33512SOL     OW10849   4.715   7.901   9.016  0.4577  0.5629  0.2830
33512SOL    HW110850   4.671   7.822   8.986  1.4305  0.1204 -0.0295
33512SOL    HW210851   4.790   7.911   8.958  2.0718 -0.0009  2.1571
33513SOL     OW10852   0.231   1.168   0.743  0.2286  0.1825 -0.3687
33513SOL    HW110853   0.228   1.076   0.770  0.9818  0.2850  0.1193
33513SOL    HW210854   0.204   1.216   0.821 -0.2410  0.3733 -0.6475
33514SOL     OW10855   6.326   8.768   3.100 -0.3611 -0.3681  0.1247
33514SOL    HW110856   6.325   8.823   3.021  0.6810  0.4147  0.6290
33514SOL    HW210857   6.265   8.811   3.160 -0.5458 -0.5152  0.0451
33515SOL     OW10858   5.856   8.845   1.805 -0.1697 -0.0416 -0.6894
33515SOL    HW110859   5.777   8.799   1.777 -0.5139 -0.5089  0.9140
33515SOL    HW210860   5.835   8.938   1.795 -0.9158 -0.1622 -0.3323
33516SOL     OW10861   1.012  10.137  11.028 -0.1037  0.1640  0.0951
33516SOL    HW110862   0.965  10.218  11.049 -0.3868 -0.2961  1.3293
33516SOL    HW210863   1.077  10.163  10.963 -0.0282  1.4369  0.6476
33517SOL     OW10864   2.869   5.845   7.355  0.5554 -0.9053 -0.2211
33517SOL    HW110865   2.952   5.800   7.338  1.6911  0.9593  0.0857
33517SOL    HW210866   2.833   5.861   7.267  1.2512 -0.4577 -0.4360
33518SOL     OW10867   2.478   1.381   7.903  0.2156 -0.4734 -0.0183
33518SOL    HW110868   2.493   1.306   7.846  0.1257 -0.2398 -0.3544
33518SOL    HW210869   2.563   1.426   7.907  0.0993 -0.2132 -0.3768
33519SOL     OW10870   5.860  10.282  10.238 -0.1736 -0.7177 -0.0292
33519SOL    HW110871   5.869  10.188  10.252  1.3195 -0.2902  2.5964
33519SOL    HW210872   5.940  10.308  10.192 -1.3813 -0.8965 -2.3972
33520SOL     OW10873  10.898   3.123   4.845 -0.5597  0.1060 -0.2518
33520SOL    HW110874  10.976   3.069   4.863 -0.6378  0.1887  0.3706
33520SOL    HW210875  10.882   3.112   4.752 -0.8874 -1.3856 -0.0493
33521SOL     OW10876   5.043   8.344   2.918 -0.5176 -0.2592 -0.2476
33521SOL    HW110877   4.951   8.322   2.926 -0.5990  0.4507  1.0871
33521SOL    HW210878   5.052   8.428   2.964  0.7491 -0.2295 -0.5040
33522SOL     OW10879   8.718   8.232  12.120 -0.1401  0.4017 -0.4247
33522SOL    HW110880   8.747   8.304  12.063 -1.4843 -0.5508 -2.4290
33522SOL    HW210881   8.773   8.158  12.095  0.8381  0.5295  1.2208
33523SOL     OW10882   8.480   8.923  11.009  0.1041  0.1362 -0.1099
33523SOL    HW110883   8.512   8.912  10.919 -0.2542 -0.1557 -0.1989
33523SOL    HW210884   8.402   8.978  11.000  0.5993  0.9013  0.1158
33524SOL     OW10885   8.675   7.247   4.049  0.3752 -0.4753  0.3560
33524SOL    HW110886   8.723   7.254   3.966  1.8175  1.1314  1.2460
33524SOL    HW210887   8.590   7.287   4.031 -0.3240 -2.4624 -0.9995
33525SOL     OW10888   0.784   4.085   9.514 -0.0544  0.3543 -0.3616
33525SOL    HW110889   0.774   4.165   9.462 -0.1374  0.3278 -0.3849
33525SOL    HW210890   0.876   4.060   9.502  0.6959  1.8623  1.6827
33526SOL     OW10891  12.292   2.589   5.041 -0.0183  0.2885 -0.0535
33526SOL    HW110892  12.244   2.541   5.109  0.5943  0.5332  0.5615
33526SOL    HW210893  12.384   2.579   5.065  0.1021  2.8622  0.8598
33527SOL     OW10894  12.780  10.280   7.928  0.1331  0.1872 -0.1965
33527SOL    HW110895  12.789  10.241   7.841 -0.7932 -0.6110  0.0333
33527SOL    HW210896  12.779  10.204   7.988  0.5696  0.7099  0.4890
33528SOL     OW10897  12.963   0.775   2.775  0.3675 -0.1941  0.1867
33528SOL    HW110898  12.953   0.847   2.713 -0.6785 -0.9411 -0.5425
33528SOL    HW210899  13.054   0.781   2.804  1.2608 -0.4981 -2.2866
33529SOL     OW10900   6.426  12.975   9.669 -0.6667 -0.2709  0.1155
33529SOL    HW110901   6.347  12.944   9.624 -1.1976 -0.1029  0.9107
33529SOL    HW210902   6.498  12.933   9.622 -1.1108  0.8678 -1.6733
33530SOL     OW10903   9.485   7.776   1.736  0.1495 -0.4864 -0.1366
33530SOL    HW110904   9.482   7.739   1.825  0.3754 -1.9910 -0.7326
33530SOL    HW210905   9.495   7.700   1.679 -0.6854  0.4081 -1.5155
33531SOL     OW10906   4.123  11.200   3.462  0.0318 -0.0414  0.3182
33531SOL    HW110907   4.124  11.105   3.474 -0.7947 -0.0711  0.2391
33531SOL    HW210908   4.045  11.216   3.409 -0.0589  0.7155  0.6730
33532SOL     OW10909   6.927   7.550   0.959 -0.1185 -0.5627 -0.3527
33532SOL    HW110910   7.021   7.568   0.958 -0.1431 -0.3989 -0.0146
33532SOL    HW210911   6.917   7.474   1.015 -0.3277  0.3146  0.8415
33533SOL     OW10912   3.739   1.641  12.600 -0.0721  0.5005  0.5064
33533SOL    HW110913   3.772   1.722  12.561 -0.8433  0.4174 -0.3614
33533SOL    HW210914   3.743   1.657  12.694  2.6525  0.3845  0.4806
33534SOL     OW10915  10.513   8.050   3.880  0.6192 -0.1347 -0.3554
33534SOL    HW110916  10.535   8.001   3.959  0.9149  0.8121  0.1640
33534SOL    HW210917  10.591   8.100   3.859  0.9318 -1.1703 -1.8930
33535SOL     OW10918   2.210   4.818   8.846  0.2852 -0.3835  0.0722
33535SOL    HW110919   2.181   4.841   8.934  0.9588  1.7800 -0.2031
33535SOL    HW210920   2.140   4.850   8.789  2.0873  3.2165 -0.4621
33536SOL     OW10921   8.883   7.330   5.544 -0.0949  0.5973 -0.0104
33536SOL    HW110922   8.791   7.324   5.520 -0.3062 -0.6562  0.9826
33536SOL    HW210923   8.930   7.305   5.464 -0.7092 -1.1757  0.1269
33537SOL     OW10924   5.731   4.131   9.011  0.3414  0.2259  0.2317
33537SOL    HW110925   5.663   4.065   9.027 -1.0480  1.4798 -0.2220
33537SOL    HW210926   5.814   4.085   9.026 -0.5126 -1.9282 -1.1555
33538SOL     OW10927  12.463   3.262   4.250 -0.2966  0.0153  0.2439
33538SOL    HW110928  12.474   3.302   4.164  0.4450  1.8774  1.1532
33538SOL    HW210929  12.499   3.173   4.240  0.7732  0.5653 -1.0876
33539SOL     OW10930   5.083   0.982   6.928  0.4338 -0.1167 -0.0549
33539SOL    HW110931   5.140   1.025   6.992  1.2071  0.0533 -0.8536
33539SOL    HW210932   5.142   0.945   6.863 -0.2837 -1.3892 -0.0109
33540SOL     OW10933   6.622   7.110   6.276 -0.2087  0.3086 -0.0088
33540SOL    HW110934   6.589   7.074   6.358  0.6034  2.0644  1.1692
33540SOL    HW210935   6.701   7.060   6.257 -0.5575 -0.2945  0.1262
33541SOL     OW10936   9.098   8.641   8.602  0.6265  0.2284  0.1652
33541SOL    HW110937   9.055   8.684   8.676 -1.3011  0.4653 -1.0178
33541SOL    HW210938   9.131   8.559   8.638  1.9402  1.4207  1.8316
33542SOL     OW10939  10.294  10.356   6.715  0.5280  0.2028  0.8831
33542SOL    HW110940  10.208  10.317   6.731 -0.0806  0.3931 -1.5269
33542SOL    HW210941  10.352  10.281   6.706 -0.0894 -0.1207 -0.8603
33543SOL     OW10942   5.885   6.630   4.530 -0.2286 -0.5039  0.7223
33543SOL    HW110943   5.929   6.663   4.608  0.9729  1.2382 -0.6250
33543SOL    HW210944   5.911   6.537   4.526  1.1149 -0.1944  1.4598
33544SOL     OW10945   2.654   6.174   1.654 -0.1472  0.6903  0.2844
33544SOL    HW110946   2.705   6.164   1.574  0.7428  3.9734  0.3213
33544SOL    HW210947   2.708   6.134   1.722  0.1077 -0.1425 -0.3896
33545SOL     OW10948  11.233   1.831   0.699  0.2021  0.1333 -0.1879
33545SOL    HW110949  11.284   1.752   0.683 -0.3515 -0.6678  1.7504
33545SOL    HW210950  11.171   1.835   0.626  1.6746  0.0374 -1.5018
33546SOL     OW10951  12.124   2.055   6.357 -0.1295 -0.2411  0.6393
33546SOL    HW110952  12.118   2.126   6.293  0.6596 -0.3785  0.3975
33546SOL    HW210953  12.108   2.097   6.441  0.5442  0.2779  0.5207
33547SOL     OW10954   7.343  12.684  10.322  0.1713 -0.5536  0.4056
33547SOL    HW110955   7.289  12.735  10.381 -1.5208 -0.3889 -1.1933
33547SOL    HW210956   7.310  12.595  10.329 -2.6322  0.0410 -2.8580
33548SOL     OW10957   9.289  11.473   5.100  0.3142  0.4719 -0.1200
33548SOL    HW110958   9.312  11.430   5.183 -0.4229 -0.3502 -0.3146
33548SOL    HW210959   9.259  11.560   5.126 -1.5027 -0.3269  0.7072
33549SOL     OW10960   9.935  10.167   4.166 -0.2496  0.4892  0.2509
33549SOL    HW110961   9.922  10.074   4.183 -1.6110  0.6160 -0.0370
33549SOL    HW210962  10.003  10.170   4.099 -0.5073 -0.3105 -0.0531
33550SOL     OW10963   1.616   1.261   4.680 -0.3578 -0.4130  0.6492
33550SOL    HW110964   1.544   1.247   4.619 -1.3812  3.3408  0.7311
33550SOL    HW210965   1.694   1.272   4.625 -0.5007 -1.0639  0.3186
33551SOL     OW10966   7.843   8.705   9.869  0.3663  0.5146  0.0573
33551SOL    HW110967   7.935   8.678   9.877  0.1276 -0.6470 -0.9677
33551SOL    HW210968   7.804   8.642   9.809 -0.9708  1.3562  0.0048
33552SOL     OW10969   5.768   2.623   1.483  0.0786 -0.1327 -0.1593
33552SOL    HW110970   5.783   2.677   1.405  1.7377 -0.6564 -0.2511
33552SOL    HW210971   5.686   2.656   1.520  0.0854  1.1865 -1.2421
33553SOL     OW10972   7.832   2.116   1.358 -0.7228  0.1075  0.3661
33553SOL    HW110973   7.768   2.141   1.292  0.7104  0.3796 -0.9744
33553SOL    HW210974   7.910   2.168   1.337  1.0032 -2.4972 -0.0209
33554SOL     OW10975  12.367   7.399   8.138  0.6343 -0.1553  0.2800
33554SOL    HW110976  12.371   7.485   8.097  1.0867  0.2649  1.1818
33554SOL    HW210977  12.273   7.379   8.142  0.4188  0.9220  1.2998
33555SOL     OW10978   8.244   6.302   6.823 -0.1987  0.4176 -0.1530
33555SOL    HW110979   8.327   6.305   6.871 -0.8205  1.3182  0.9113
33555SOL    HW210980   8.222   6.209   6.820  0.5456  0.2210  0.0886
33556SOL     OW10981   4.027  12.242   1.753  0.1638 -0.1550  0.1154
33556SOL    HW110982   3.983  12.166   1.790 -1.9718  0.3754 -1.1667
33556SOL    HW210983   4.051  12.295   1.830 -2.5185  0.0566  0.8957
33557SOL     OW10984  12.927   7.333   1.946  0.6863 -0.4474  0.1685
33557SOL    HW110985  12.927   7.325   1.851  2.2063  0.2496  0.0924
33557SOL    HW210986  12.834   7.345   1.968  0.3336 -0.3840 -1.2369
33558SOL     OW10987   2.689   0.735   7.925  0.1437  0.3562  0.4268
33558SOL    HW110988   2.687   0.828   7.947  1.2861  0.7699 -1.0737
33558SOL    HW210989   2.597   0.710   7.917 -0.1896  1.1868  1.4388
33559SOL     OW10990   7.872   9.498   2.110  0.3288  0.2795 -0.4547
33559SOL    HW110991   7.813   9.436   2.067  1.5219 -0.5015 -1.0184
33559SOL    HW210992   7.815   9.569   2.140 -0.9906 -0.7935 -0.3267
33560SOL     OW10993   7.396   7.964  11.797  0.2022  0.2032  0.0657
33560SOL    HW110994   7.370   7.887  11.745  2.0102 -0.3894 -0.0491
33560SOL    HW210995   7.463   8.007  11.743 -0.5716  1.7201  0.2651
33561SOL     OW10996  12.581   8.750   6.701  0.7686  0.3235 -0.1757
33561SOL    HW110997  12.542   8.836   6.681  0.6242 -0.4061 -3.8157
33561SOL    HW210998  12.604   8.714   6.615  2.4642 -2.5639  1.3400
33562SOL     OW10999   0.372   2.519   1.572 -0.4310  0.3702  0.0286
33562SOL    HW111000   0.416   2.436   1.558 -0.4060  0.1548  1.2333
33562SOL    HW211001   0.438   2.574   1.616 -0.6351  0.8219 -0.2164
33563SOL     OW11002  11.320   3.407  11.259 -0.2244  0.4255 -0.0276
33563SOL    HW111003  11.285   3.479  11.312  2.0691  0.1945  2.0223
33563SOL    HW211004  11.362   3.349  11.323  1.7978 -0.4388 -2.0138
33564SOL     OW11005  12.051   4.108   1.271 -0.2123  0.3521  0.0249
33564SOL    HW111006  12.047   4.036   1.335 -2.4210  0.2728 -0.1206
33564SOL    HW211007  11.959   4.123   1.247  0.1640  3.3235  0.1376
33565SOL     OW11008   5.824   3.270   2.859  0.0973  0.0375 -0.2792
33565SOL    HW111009   5.848   3.331   2.929  1.5821 -0.5052 -0.2783
33565SOL    HW211010   5.770   3.322   2.799 -1.5763  0.4077  1.4440
33566SOL     OW11011   8.153  12.158  12.182 -0.2168  0.0275  0.2294
33566SOL    HW111012   8.074  12.200  12.149 -0.1306  0.3180  0.3883
33566SOL    HW211013   8.157  12.074  12.137 -1.6952 -0.8790  1.6875
33567SOL     OW11014  12.649   3.101  10.242 -0.2317  0.0939  0.1312
33567SOL    HW111015  12.681   3.011  10.238 -2.3844 -0.7064  0.0016
33567SOL    HW211016  12.701   3.147  10.176 -0.2113 -1.4308 -0.9852
33568SOL     OW11017   5.933   7.218   8.323 -0.4584 -0.7259 -0.2179
33568SOL    HW111018   6.024   7.207   8.295 -0.4394 -1.4869  0.1242
33568SOL    HW211019   5.922   7.313   8.332 -0.1046 -0.5247 -1.5932
33569SOL     OW11020  10.866  10.494   5.794  0.3972  0.4157 -0.1931
33569SOL    HW111021  10.889  10.461   5.880 -1.4315  1.6157  0.8261
33569SOL    HW211022  10.915  10.575   5.785  0.8356  0.1275 -0.4333
33570SOL     OW11023  10.735   6.044   2.190 -0.0171  0.0958 -0.0152
33570SOL    HW111024  10.736   5.980   2.119 -0.0781  0.6205 -0.4882
33570SOL    HW211025  10.768   5.995   2.266  0.0223 -0.4709 -0.3925
33571SOL     OW11026   9.288  10.047  12.086 -0.1234  0.2277 -0.1009
33571SOL    HW111027   9.260  10.113  12.022 -0.5230  1.3777  1.2149
33571SOL    HW211028   9.211  10.033  12.141  0.2667 -0.6129  0.2420
33572SOL     OW11029   1.882  10.666   3.912  0.6448 -0.0522 -0.1796
33572SOL    HW111030   1.806  10.689   3.966  1.1454  0.0189  0.5187
33572SOL    HW211031   1.848  10.659   3.823 -0.2571 -0.4177  0.1838
33573SOL     OW11032   4.787   0.878   1.328 -0.9209 -0.2701  0.1220
33573SOL    HW111033   4.812   0.816   1.397  1.1795 -0.0194 -0.3487
33573SOL    HW211034   4.695   0.857   1.310 -0.3559 -3.2123  0.0665
33574SOL     OW11035   2.355   2.604   0.336 -0.0441 -0.4993 -0.0306
33574SOL    HW111036   2.451   2.603   0.326  0.0312  0.3279  0.5120
33574SOL    HW211037   2.336   2.531   0.395  0.1240 -1.4125 -1.0703
33575SOL     OW11038   0.034  10.487   8.636 -0.2327 -0.4901 -0.0521
33575SOL    HW111039  -0.010  10.570   8.616 -0.5326 -0.1176  2.0096
33575SOL    HW211040   0.127  10.510   8.640 -0.1055 -0.6683 -1.3215
33576SOL     OW11041   9.795  10.331   3.021 -0.2613 -0.2116  0.2895
33576SOL    HW111042   9.762  10.305   3.107 -2.5045  0.3485 -0.3566
33576SOL    HW211043   9.804  10.426   3.027 -1.8943  0.0201 -0.5439
33577SOL     OW11044   3.532  10.835  12.541  0.5963  0.3704  0.0693
33577SOL    HW111045   3.474  10.879  12.478  0.2108  0.0645  0.2109
33577SOL    HW211046   3.489  10.752  12.559  1.3275 -0.0722 -0.1946
33578SOL     OW11047   1.170   2.186   8.990 -0.0501 -0.3097  0.0347
33578SOL    HW111048   1.192   2.106   9.038 -2.4925 -2.2796 -1.8018
33578SOL    HW211049   1.091   2.218   9.031 -1.3973 -1.2520 -1.6784
33579SOL     OW11050   1.555   2.703  11.975  0.6756 -0.9333  0.0326
33579SOL    HW111051   1.615   2.715  12.049  0.6701  2.3338 -0.3103
33579SOL    HW211052   1.613   2.689  11.900  1.2588  2.3891 -0.3291
33580SOL     OW11053   8.501   2.220   5.847 -0.1019 -0.5377  0.3917
33580SOL    HW111054   8.591   2.232   5.817  0.1483 -2.6787  0.1220
33580SOL    HW211055   8.509   2.191   5.938 -0.5866  0.2793  0.7058
33581SOL     OW11056   0.228   6.667   9.524 -0.1623  0.2589  0.0438
33581SOL    HW111057   0.283   6.617   9.584 -0.6838 -0.8802 -0.3994
33581SOL    HW211058   0.140   6.662   9.561 -0.5644 -0.7940 -0.9967
33582SOL     OW11059  11.804   3.217   2.136 -0.3109  0.3755 -0.3462
33582SOL    HW111060  11.734   3.277   2.110 -0.2218  0.4087 -0.5087
33582SOL    HW211061  11.865   3.217   2.062  0.2572  0.9460  0.1143
33583SOL     OW11062   1.067  12.945   0.337  0.0038 -0.5415  0.0323
33583SOL    HW111063   1.036  13.027   0.374  0.9327 -0.2550  0.2106
33583SOL    HW211064   1.093  12.967   0.248  1.8096 -0.2309  0.5867
33584SOL     OW11065   9.661  12.084   3.934  0.0258  0.7543  0.1058
33584SOL    HW111066   9.632  12.050   4.019 -1.9134 -0.2163 -0.9050
33584SOL    HW211067   9.616  12.168   3.925 -0.4438  0.4637 -0.3153
33585SOL     OW11068  10.362   5.332  12.640 -0.3548 -0.9338  0.3571
33585SOL    HW111069  10.397   5.311  12.726  0.0763 -0.0953  0.3994
33585SOL    HW211070  10.404   5.270  12.580 -1.2100 -2.0042  0.8369
33586SOL     OW11071   6.198   6.253   4.551 -0.6325 -0.4774  0.1717
33586SOL    HW111072   6.196   6.234   4.457 -0.7915 -2.4767  0.5395
33586SOL    HW211073   6.268   6.318   4.561 -0.1822 -0.7193 -1.2421
33587SOL     OW11074   2.944  10.415   8.240 -0.2086  0.6094 -0.0037
33587SOL    HW111075   3.025  10.451   8.204 -0.2107  1.2634  0.6130
33587SOL    HW211076   2.914  10.351   8.175  1.1191 -0.0883  0.0459
33588SOL     OW11077   6.588   8.738   3.576  0.0507  0.1679 -0.2439
33588SOL    HW111078   6.600   8.649   3.608 -0.6393  0.6573  1.5147
33588SOL    HW211079   6.496   8.742   3.549 -0.5729  0.9173  1.8086
33589SOL     OW11080   2.024   6.024  11.088 -0.1325 -0.4698  0.7570
33589SOL    HW111081   1.980   5.940  11.101 -0.0864 -0.5389  0.4728
33589SOL    HW211082   2.048   6.052  11.176 -1.4165 -0.0558  0.9946
33590SOL     OW11083   1.182  10.364   3.072  0.6077 -0.0276  0.4894
33590SOL    HW111084   1.189  10.459   3.065  1.6851 -0.1350  0.0131
33590SOL    HW211085   1.123  10.339   3.001  0.3281  0.2791  0.6111
33591SOL     OW11086   3.333   9.104   7.648 -0.4786 -0.0711  0.6143
33591SOL    HW111087   3.263   9.133   7.589  0.6318  0.0343 -0.7046
33591SOL    HW211088   3.351   9.181   7.703  0.9472  1.1299 -1.3977
33592SOL     OW11089   3.130   8.644  11.710  0.2795  0.4678 -0.1130
33592SOL    HW111090   3.067   8.703  11.668  1.2556  0.8185 -1.1586
33592SOL    HW211091   3.201   8.702  11.738  0.3216  0.0326  0.7032
33593SOL     OW11092   2.536   8.377   7.746 -0.1887  0.2330 -0.2944
33593SOL    HW111093   2.623   8.393   7.783 -0.0468 -2.4966  0.8065
33593SOL    HW211094   2.549   8.385   7.651  1.3281 -0.2305 -0.1571
33594SOL     OW11095   8.927   0.782   0.388  0.6159 -0.1266  0.2683
33594SOL    HW111096   8.845   0.760   0.431  0.5658  0.0257  0.2520
33594SOL    HW211097   8.992   0.727   0.431  0.6525  0.3994  0.9022
33595SOL     OW11098   5.968   4.328   6.215  0.0696 -0.1368  0.2423
33595SOL    HW111099   5.916   4.260   6.260  1.2974 -0.2466  1.5675
33595SOL    HW211100   6.057   4.293   6.214  0.1850  0.1059 -1.9001
33596SOL     OW11101   8.877  10.371   0.081 -0.2196  1.2547  0.6306
33596SOL    HW111102   8.869  10.462   0.109 -0.9028  1.1307  0.8459
33596SOL    HW211103   8.907  10.325   0.160  1.3483  1.4750  0.2114
33597SOL     OW11104   0.953   1.547   2.881  0.1487  0.4252  0.6263
33597SOL    HW111105   1.045   1.522   2.870  0.5283  0.7028  2.7260
33597SOL    HW211106   0.938   1.540   2.975 -2.2068 -0.3205  0.2553
33598SOL     OW11107  11.231   2.825   2.679  0.4290 -0.2432  0.8523
33598SOL    HW111108  11.262   2.753   2.735  2.5508 -0.1701 -0.1105
33598SOL    HW211109  11.296   2.894   2.692 -0.5665  0.8062  0.3614
33599SOL     OW11110   8.387   0.203   4.836  0.4117  0.1112 -0.6032
33599SOL    HW111111   8.468   0.175   4.879  1.2440  2.2131 -0.6804
33599SOL    HW211112   8.348   0.121   4.804  0.4884 -1.3928  2.7662
33600SOL     OW11113   1.984   5.459  12.739 -0.0060 -0.1513  0.1559
33600SOL    HW111114   1.982   5.429  12.648 -1.9958  0.6234 -0.1140
33600SOL    HW211115   1.966   5.381  12.790 -1.3062 -0.1861 -0.3059
33601SOL     OW11116   6.620   8.590   6.735  0.1367 -0.1016  0.7506
33601SOL    HW111117   6.584   8.644   6.665 -0.4284 -1.2423  0.1266
33601SOL    HW211118   6.557   8.597   6.807 -0.0423 -0.1032  0.5929
33602SOL     OW11119   6.436  12.082  10.635 -0.0944  0.1960  0.3907
33602SOL    HW111120   6.374  12.150  10.607 -0.1541 -0.1182 -0.2665
33602SOL    HW211121   6.410  12.061  10.725 -0.6003  0.4519  0.3095
33603SOL     OW11122  10.605   6.464   0.923  1.0247  0.3112  0.2164
33603SOL    HW111123  10.564   6.549   0.904 -3.1811 -1.5506 -0.0171
33603SOL    HW211124  10.618   6.424   0.837  1.0755 -0.1273  0.4286
33604SOL     OW11125   4.388   3.988  12.288 -0.3607 -0.3109  0.4447
33604SOL    HW111126   4.301   3.954  12.269 -0.5213  0.5927 -0.5657
33604SOL    HW211127   4.396   3.982  12.383 -1.5776 -0.3016  0.5657
33605SOL     OW11128   0.240  12.384   1.252 -0.2238 -0.3680 -0.2054
33605SOL    HW111129   0.148  12.400   1.275  0.2847 -0.5317  2.1786
33605SOL    HW211130   0.277  12.471   1.239 -0.2124 -0.1626  1.0861
33606SOL     OW11131  11.713   1.668  10.097 -0.4376 -0.4453  0.2563
33606SOL    HW111132  11.731   1.733  10.164 -0.4689  0.3449 -0.4906
33606SOL    HW211133  11.632   1.697  10.056 -0.2048 -0.6995 -0.3981
33607SOL     OW11134  12.628  10.707   8.145 -0.2019 -0.2491  0.2705
33607SOL    HW111135  12.552  10.720   8.088  0.1917  2.0178  0.1925
33607SOL    HW211136  12.700  10.692   8.084 -0.2241 -0.4522  0.2910
33608SOL     OW11137   1.404   6.059   0.987 -0.0090  0.2044 -0.4111
33608SOL    HW111138   1.440   6.005   0.917  2.0875  0.5199  0.3770
33608SOL    HW211139   1.388   6.144   0.946  1.5681  0.5049 -0.4551
33609SOL     OW11140   9.664   7.370  12.230  0.3795 -0.3317 -0.7623
33609SOL    HW111141   9.700   7.458  12.216 -0.4231  0.2046  0.4346
33609SOL    HW211142   9.643   7.367  12.323 -3.6229 -0.2269 -1.4841
33610SOL     OW11143  12.432  10.525   6.282 -0.4940  0.4482  0.5300
33610SOL    HW111144  12.451  10.435   6.256 -1.6784 -0.0411  1.2736
33610SOL    HW211145  12.509  10.552   6.332 -0.2890 -0.2792  0.6205
33611SOL     OW11146   6.566   7.103   1.875 -0.3417 -0.3676 -0.0779
33611SOL    HW111147   6.608   7.167   1.817  1.5691  0.1555  1.7577
33611SOL    HW211148   6.478   7.092   1.839  0.3428  0.8636 -2.3079
33612SOL     OW11149   6.818   3.575   3.248  0.3415  0.6554  0.1250
33612SOL    HW111150   6.833   3.668   3.265  1.8919  0.7454 -1.4189
33612SOL    HW211151   6.821   3.567   3.153  1.5362 -1.1476  0.2638
33613SOL     OW11152  12.340   7.130   4.877 -0.1249 -0.1047 -0.0385
33613SOL    HW111153  12.315   7.043   4.848  1.2324 -0.2935 -0.7053
33613SOL    HW211154  12.278   7.151   4.947 -0.4887 -1.5884  0.1113
33614SOL     OW11155  11.625   8.817   2.360  0.0470 -0.0671  0.3736
33614SOL    HW111156  11.699   8.763   2.388  0.8625  1.1370  0.6034
33614SOL    HW211157  11.568   8.822   2.436 -0.5587 -1.4194  0.0409
33615SOL     OW11158  11.836   2.980   0.027 -0.9819  0.0656  0.2447
33615SOL    HW111159  11.789   2.897   0.036  0.1289 -0.5833  0.2919
33615SOL    HW211160  11.844   3.013   0.116  0.8725 -1.1269  0.5772
33616SOL     OW11161   4.382   6.578  12.046  0.4119 -0.4838  0.2175
33616SOL    HW111162   4.361   6.493  12.085 -0.3546  0.5522  2.2203
33616SOL    HW211163   4.311   6.593  11.983  0.0152 -0.9112  0.5530
33617SOL     OW11164   0.431   9.620   1.253 -0.4002 -0.0418 -0.2528
33617SOL    HW111165   0.458   9.657   1.169  1.8607 -0.9162  0.0264
33617SOL    HW211166   0.338   9.604   1.243 -0.3964  0.8432 -2.2144
33618SOL     OW11167   2.517   7.276   0.731 -0.0878  0.0274 -0.1737
33618SOL    HW111168   2.605   7.313   0.740 -0.2322  0.4168 -0.3108
33618SOL    HW211169   2.509   7.254   0.638 -0.6161  1.2617 -0.4414
33619SOL     OW11170  12.158  12.773  10.065  0.0481  0.1446 -0.4705
33619SOL    HW111171  12.089  12.838  10.051 -0.5026 -0.5830 -1.2375
33619SOL    HW211172  12.239  12.820  10.044 -0.0180  1.4554  1.9305
33620SOL     OW11173   9.744   0.058   9.526  0.2590 -0.0129 -0.3854
33620SOL    HW111174   9.733   0.145   9.488 -0.4794 -0.5461 -1.4709
33620SOL    HW211175   9.791   0.009   9.458 -0.8901 -0.9291 -0.5477
33621SOL     OW11176   3.110   2.432   2.195 -0.2414  0.3692  0.6181
33621SOL    HW111177   3.082   2.340   2.191 -0.4505  0.4302 -2.7356
33621SOL    HW211178   3.204   2.428   2.208 -0.4060 -0.2555  1.7033
33622SOL     OW11179   0.830   9.252   1.457  0.0416 -0.3960  0.5187
33622SOL    HW111180   0.870   9.256   1.543  0.9026 -1.2457  0.1784
33622SOL    HW211181   0.843   9.162   1.429 -0.5293 -0.2180 -0.3623
33623SOL     OW11182   2.066  11.982   6.498 -0.1872 -0.1071 -0.2774
33623SOL    HW111183   2.051  11.997   6.592  0.4162 -0.0033 -0.1928
33623SOL    HW211184   2.132  12.047   6.474  0.1193 -0.5457 -0.6281
33624SOL     OW11185   5.227   0.492   9.313  0.4917  0.5539 -0.3270
33624SOL    HW111186   5.261   0.508   9.225 -0.7111  1.5592 -0.6298
33624SOL    HW211187   5.153   0.434   9.300  0.9060 -0.0874  0.1345
33625SOL     OW11188   0.307   0.033   3.926  0.2538 -0.0745  0.0106
33625SOL    HW111189   0.338   0.122   3.910 -0.2909 -0.1805 -2.0324
33625SOL    HW211190   0.312   0.021   4.020 -0.2204  2.3286  0.3899
33626SOL     OW11191   1.398   0.066   5.284  0.0741  0.7103 -0.3476
33626SOL    HW111192   1.494   0.064   5.283  0.1517  2.2958  0.4770
33626SOL    HW211193   1.374   0.014   5.360  0.1054 -1.9366 -2.0130
33627SOL     OW11194   0.427   7.259   7.893 -0.7065  0.0419 -0.1084
33627SOL    HW111195   0.332   7.253   7.894 -0.7321 -0.3408 -1.9468
33627SOL    HW211196   0.457   7.169   7.905 -0.5712  0.1583  0.4442
33628SOL     OW11197   5.074   0.225   2.996 -0.1645 -0.2307  0.4769
33628SOL    HW111198   5.135   0.204   3.066  0.6645  1.3750  0.2649
33628SOL    HW211199   4.990   0.238   3.040 -0.0702 -1.0601  0.9273
33629SOL     OW11200   6.076   3.446   7.573  0.2063  0.5101  0.1361
33629SOL    HW111201   6.056   3.417   7.484  2.5656  0.0887 -0.3094
33629SOL    HW211202   6.157   3.401   7.596  1.3029  2.8927  1.3495
33630SOL     OW11203   0.578   9.585   0.286 -0.5083 -0.6192 -0.3111
33630SOL    HW111204   0.651   9.645   0.269  0.1736 -1.1932  0.4778
33630SOL    HW211205   0.508   9.640   0.320 -0.5689 -0.0081 -1.3933
33631SOL     OW11206  11.978   5.315   2.828 -0.1298  0.5336  0.5165
33631SOL    HW111207  11.921   5.242   2.804  1.0737  0.1279 -1.3011
33631SOL    HW211208  11.998   5.301   2.921  1.5742 -2.5934 -0.1957
33632SOL     OW11209  11.505   1.653   9.012 -0.1075  0.6879 -0.2613
33632SOL    HW111210  11.429   1.616   9.057  0.1800  0.1178 -0.2395
33632SOL    HW211211  11.487   1.747   9.010  0.8181  1.0654  2.9395
33633SOL     OW11212  11.437   9.512  11.600  0.0112  0.0896  0.7481
33633SOL    HW111213  11.427   9.591  11.549  0.0111 -1.0231 -1.0569
33633SOL    HW211214  11.466   9.446  11.537 -0.8834 -1.5664  1.9801
33634SOL     OW11215   0.241   7.252   7.652 -0.0273  0.0150 -0.1610
33634SOL    HW111216   0.165   7.305   7.674 -0.0452 -0.1421  0.1610
33634SOL    HW211217   0.290   7.305   7.588  1.1429  1.4607  1.8181
33635SOL     OW11218  11.508  11.815   0.212  0.1563 -0.0643  0.0208
33635SOL    HW111219  11.576  11.750   0.196 -0.2380 -0.2737 -0.9045
33635SOL    HW211220  11.554  11.898   0.216  0.4700 -0.2028 -0.6145
33636SOL     OW11221   5.987   1.632   8.805 -0.2370 -0.4303 -0.1648
33636SOL    HW111222   5.894   1.645   8.791  0.1234  1.3906 -1.1595
33636SOL    HW211223   5.996   1.618   8.899 -1.4082  0.4284  0.0858
33637SOL     OW11224   9.203   0.733   6.915  0.2877  0.4443 -0.1300
33637SOL    HW111225   9.160   0.757   6.833 -0.9403 -0.2298  0.2860
33637SOL    HW211226   9.131   0.720   6.977  1.0939 -0.7715  0.6006
33638SOL     OW11227   9.834   8.366   7.454  0.5417 -0.3879 -0.0079
33638SOL    HW111228   9.850   8.402   7.541 -0.0584 -1.3041  0.5023
33638SOL    HW211229   9.900   8.406   7.398  0.3181  0.9768  0.6622
33639SOL     OW11230   0.656   0.797   9.230 -0.3820 -0.4297 -0.0303
33639SOL    HW111231   0.723   0.731   9.214  0.7081  0.7935 -0.6694
33639SOL    HW211232   0.600   0.793   9.151 -0.2249 -0.4726 -0.1398
33640SOL     OW11233  11.647   9.014   0.872 -0.2436 -0.2410 -0.0518
33640SOL    HW111234  11.559   8.991   0.900 -1.2192  2.8532 -0.1924
33640SOL    HW211235  11.661   8.965   0.791 -2.9564  1.1484 -1.4898
33641SOL     OW11236   2.417   2.126   6.667 -0.3149 -0.3251 -0.2105
33641SOL    HW111237   2.460   2.114   6.583 -1.2076 -3.3726 -0.3343
33641SOL    HW211238   2.323   2.125   6.647 -0.5356  1.1974  0.6088
33642SOL     OW11239   5.312   1.739   2.092 -0.3960 -0.6542  0.0530
33642SOL    HW111240   5.340   1.655   2.127 -1.8397 -0.0086  3.1169
33642SOL    HW211241   5.217   1.731   2.082 -0.7828  0.9851  1.7991
33643SOL     OW11242   1.301   4.695   1.888 -0.0888  0.4329  0.3860
33643SOL    HW111243   1.282   4.665   1.977 -0.8093  0.0347  0.1071
33643SOL    HW211244   1.215   4.708   1.848  0.2002 -0.7056 -0.6793
33644SOL     OW11245   4.822   8.208   7.788 -0.5820 -0.1688 -0.4807
33644SOL    HW111246   4.790   8.234   7.702 -1.4355 -1.7408 -0.6737
33644SOL    HW211247   4.916   8.227   7.785 -0.7585  0.6252 -1.4259
33645SOL     OW11248  12.931  12.577  11.305  0.1852 -0.2342 -0.1392
33645SOL    HW111249  12.971  12.573  11.391 -0.0974  0.7730  0.0528
33645SOL    HW211250  12.851  12.525  11.313  0.5452 -0.7761 -0.0220
33646SOL     OW11251  11.187  12.536  12.114  0.6306 -0.6288 -0.0552
33646SOL    HW111252  11.132  12.508  12.187  0.2681 -0.7440 -0.3693
33646SOL    HW211253  11.129  12.589  12.059  0.7732 -0.9189 -0.4980
33647SOL     OW11254   0.883   5.364   2.434  0.4229  0.5910  0.3128
33647SOL    HW111255   0.832   5.293   2.473 -0.3241 -0.4113 -2.2943
33647SOL    HW211256   0.826   5.440   2.440  0.2994  0.4456  1.0747
33648SOL     OW11257   3.853   2.966  10.305 -0.2745  0.4672  0.4803
33648SOL    HW111258   3.798   3.014  10.367 -0.6177 -0.2414  0.7426
33648SOL    HW211259   3.910   2.912  10.360 -1.1397 -0.7863  0.2045
33649SOL     OW11260   3.286   2.468   4.078 -0.5683 -0.0414 -0.3938
33649SOL    HW111261   3.212   2.450   4.019 -1.1436 -0.7917  0.5232
33649SOL    HW211262   3.335   2.538   4.035 -1.8658  0.5299 -0.9877
33650SOL     OW11263   4.913  10.771   1.215 -0.6907  0.4738  0.0017
33650SOL    HW111264   4.935  10.684   1.251 -3.1412  0.2026  1.0363
33650SOL    HW211265   4.940  10.766   1.124  2.2321 -0.1711  0.7838
33651SOL     OW11266   4.183  10.533   4.378 -0.0082  0.0469  0.1708
33651SOL    HW111267   4.215  10.483   4.453 -1.1495 -1.8504 -0.5643
33651SOL    HW211268   4.102  10.574   4.408  0.1599  0.2769  0.3177
33652SOL     OW11269   1.021   6.447   0.710 -0.1156 -0.1408  0.0377
33652SOL    HW111270   0.958   6.411   0.773 -0.0201  2.3030  1.6267
33652SOL    HW211271   1.077   6.373   0.689 -2.0759 -1.8288  0.3489
33653SOL     OW11272   8.211   9.633   4.268 -0.2191 -0.4783  0.4928
33653SOL    HW111273   8.197   9.583   4.188  1.3156  1.2558 -0.9489
33653SOL    HW211274   8.221   9.567   4.336 -0.6405 -2.0377 -0.9022
33654SOL     OW11275   7.360  12.033   4.184  0.4523 -0.3669  0.2915
33654SOL    HW111276   7.295  11.986   4.132  1.0800 -0.5840 -0.3126
33654SOL    HW211277   7.314  12.111   4.215  0.1070 -0.1536 -0.7215
33655SOL     OW11278   6.723   6.295   9.193 -0.0598  0.5788  0.6712
33655SOL    HW111279   6.692   6.358   9.257 -0.2241  0.8314  0.3434
33655SOL    HW211280   6.705   6.210   9.233 -1.1773  0.7153  0.4959
33656SOL     OW11281   7.159   1.991   1.196  0.2903  0.4196  0.2694
33656SOL    HW111282   7.147   1.918   1.135 -1.1634  0.1779  0.8102
33656SOL    HW211283   7.076   1.998   1.242  0.0658  2.9484 -0.3204
33657SOL     OW11284   7.532   1.137   9.639  0.6359  0.2406 -0.3292
33657SOL    HW111285   7.612   1.144   9.692  0.6794 -0.0429 -0.3589
33657SOL    HW211286   7.468   1.190   9.686  0.7545  0.2211 -0.1423
33658SOL     OW11287   0.777   9.651   9.086 -0.2839 -0.1537  0.5462
33658SOL    HW111288   0.813   9.723   9.036 -1.0659  0.5060  0.9082
33658SOL    HW211289   0.810   9.664   9.175 -1.3854  0.4752  0.8889
33659SOL     OW11290   6.737   4.408   7.862 -1.2822 -0.3941  0.4672
33659SOL    HW111291   6.771   4.498   7.865  0.5406 -1.0420  0.3479
33659SOL    HW211292   6.690   4.404   7.778 -1.0026  0.3198  0.2631
33660SOL     OW11293   1.363   9.041   3.882  0.6153 -0.1481 -0.0188
33660SOL    HW111294   1.390   9.133   3.882  0.3709 -0.0663 -1.0361
33660SOL    HW211295   1.311   9.031   3.802  0.3807 -1.0987  0.2382
33661SOL     OW11296   9.368   8.200  10.824 -0.0976  0.3692 -0.2883
33661SOL    HW111297   9.324   8.269  10.873  0.4077 -0.3573  1.2603
33661SOL    HW211298   9.311   8.124  10.834  0.1408  0.1481 -0.6039
33662SOL     OW11299   9.686  10.429   4.481  0.6525 -0.2148  0.1939
33662SOL    HW111300   9.752  10.359   4.484 -0.6749 -1.5164  0.4330
33662SOL    HW211301   9.653  10.425   4.391 -0.1182 -0.5843  0.4872
33663SOL     OW11302  11.268   4.575  11.444  0.1490 -0.0145  0.3422
33663SOL    HW111303  11.354   4.566  11.403 -0.3668 -2.9055 -0.3125
33663SOL    HW211304  11.206   4.549  11.377 -1.0722 -0.1707  1.4850
33664SOL     OW11305   5.448   8.213   0.215 -0.2575  0.4599 -0.1304
33664SOL    HW111306   5.437   8.125   0.251 -1.2781  1.2788  1.7257
33664SOL    HW211307   5.480   8.199   0.126  0.6760 -1.7408  0.4829
33665SOL     OW11308   0.152   6.923  11.347  0.2895 -0.0628  0.3558
33665SOL    HW111309   0.126   6.882  11.429 -0.2057 -0.2799  0.0908
33665SOL    HW211310   0.175   6.850  11.289 -2.4669 -0.1332 -0.7745
33666SOL     OW11311  10.843   1.943   1.957  0.8196  0.1631  0.0238
33666SOL    HW111312  10.872   2.001   2.028  1.5890  1.0473 -0.9806
33666SOL    HW211313  10.747   1.945   1.963  0.8480 -1.4516  2.3278
33667SOL     OW11314   6.417   9.408  11.473  0.3670  0.2278  0.1006
33667SOL    HW111315   6.416   9.446  11.386 -0.5929 -0.2166 -0.1078
33667SOL    HW211316   6.391   9.479  11.531 -0.4662  0.1612 -0.1707
33668SOL     OW11317   9.318   3.248   3.312  0.0293 -0.0642  0.4007
33668SOL    HW111318   9.275   3.187   3.253  0.5095 -0.1855  0.1739
33668SOL    HW211319   9.355   3.193   3.381  0.8206 -0.0836 -0.0228
33669SOL     OW11320  10.652   8.187   0.675 -0.5540 -0.3854 -0.0469
33669SOL    HW111321  10.634   8.140   0.594  0.6874 -3.0072  1.0937
33669SOL    HW211322  10.747   8.179   0.687 -0.9967 -2.8218  3.1298
33670SOL     OW11323  12.101   8.321   1.213 -0.4551 -0.4341 -0.1553
33670SOL    HW111324  12.036   8.279   1.156  0.3035  0.3520 -1.6613
33670SOL    HW211325  12.056   8.400   1.246 -0.4633 -0.1827 -0.7525
33671SOL     OW11326   6.473   9.760   4.667 -0.5398 -0.4017 -0.8417
33671SOL    HW111327   6.499   9.792   4.753  1.0846 -2.7940 -0.3335
33671SOL    HW211328   6.425   9.833   4.627 -2.5351  0.3853  2.5566
33672SOL     OW11329  11.293   0.569   1.558 -0.0767  0.2869  0.0003
33672SOL    HW111330  11.268   0.478   1.544 -0.4320  0.5878 -1.4264
33672SOL    HW211331  11.238   0.598   1.631  0.9813 -0.9982  1.3690
33673SOL     OW11332   9.319   1.227  11.594 -0.3328 -0.2010 -0.1307
33673SOL    HW111333   9.298   1.310  11.637 -0.0088 -0.0592 -0.2438
33673SOL    HW211334   9.240   1.174  11.604 -0.4054 -0.0180  0.2786
33674SOL     OW11335   8.929   5.959   3.498 -0.0458 -0.5149  0.1954
33674SOL    HW111336   8.901   5.902   3.426 -1.8004 -1.0412  1.2193
33674SOL    HW211337   8.901   6.046   3.471 -0.3862 -0.6592  0.0686
33675SOL     OW11338  10.057   8.281   6.051  0.0344 -0.0191 -0.1242
33675SOL    HW111339  10.092   8.226   6.120  1.9939 -0.8990 -1.7201
33675SOL    HW211340  10.105   8.363   6.058 -0.1075  0.0660 -0.1392
33676SOL     OW11341   3.490   4.818  12.443  0.0859  0.1424 -0.3825
33676SOL    HW111342   3.509   4.911  12.438  1.5106  0.1148  2.4543
33676SOL    HW211343   3.573   4.775  12.421 -0.5949 -0.4963 -1.8250
33677SOL     OW11344   3.628   4.737   1.884  0.1922  0.4798  0.0234
33677SOL    HW111345   3.680   4.802   1.932  0.8126  1.0399 -1.3662
33677SOL    HW211346   3.562   4.787   1.838 -2.0034 -0.2666  2.1482
33678SOL     OW11347  11.425   3.112  11.664  0.0888 -0.2158 -0.4372
33678SOL    HW111348  11.465   3.131  11.750  0.3330  0.3280 -0.6615
33678SOL    HW211349  11.459   3.026  11.640 -0.8782 -0.8858  0.5268
33679SOL     OW11350   8.643   3.731   1.163  0.0076  0.0880  0.5197
33679SOL    HW111351   8.635   3.636   1.161 -2.5340  0.2388  0.5502
33679SOL    HW211352   8.626   3.755   1.255 -2.6201  0.6995 -0.0330
33680SOL     OW11353  12.350  11.702  12.326 -0.1985  0.4863  0.4245
33680SOL    HW111354  12.263  11.665  12.341  0.2667 -0.8778 -0.0981
33680SOL    HW211355  12.333  11.793  12.301 -1.4358  0.3993  0.8658
33681SOL     OW11356   0.205   8.182   7.371  0.3684 -0.7289  0.5151
33681SOL    HW111357   0.207   8.131   7.452 -1.1970 -1.1812  0.3042
33681SOL    HW211358   0.124   8.232   7.376  0.9682  0.3287 -0.1378
33682SOL     OW11359  12.235   3.746  10.889 -0.8089 -0.6895 -0.0665
33682SOL    HW111360  12.272   3.782  10.970  0.5605 -2.2310  0.0418
33682SOL    HW211361  12.171   3.681  10.919 -0.1110 -1.4503 -0.2040
33683SOL     OW11362   7.597   9.105   0.027  0.0080  0.2031  0.2199
33683SOL    HW111363   7.680   9.127   0.068  0.4153 -1.0334  0.1056
33683SOL    HW211364   7.593   9.160  -0.051  0.7452  0.2314  0.1956
33684SOL     OW11365  11.510   9.267  12.704  0.4105 -0.1305 -0.2734
33684SOL    HW111366  11.440   9.326  12.733 -0.2345 -1.4701  1.0240
33684SOL    HW211367  11.560   9.248  12.784  0.3408 -1.6605 -0.5658
33685SOL     OW11368   3.255   1.580  10.639 -0.1368 -0.3206 -0.1946
33685SOL    HW111369   3.237   1.670  10.611  2.1139 -0.6430 -3.0696
33685SOL    HW211370   3.186   1.528  10.598 -0.6010 -0.0889  0.2780
33686SOL     OW11371  11.558   5.722  11.137  0.1407  0.3788 -0.1398
33686SOL    HW111372  11.639   5.735  11.087 -0.0398 -0.5560 -0.6990
33686SOL    HW211373  11.507   5.802  11.119  1.6520  1.8574  1.7180
33687SOL     OW11374   1.444   2.583   8.610  0.6903  0.1870  0.0497
33687SOL    HW111375   1.501   2.646   8.565 -2.5173  1.9373 -1.9643
33687SOL    HW211376   1.398   2.636   8.675  0.1643 -0.7836  0.4719
33688SOL     OW11377  11.081   2.910   7.582  0.1569 -0.0696 -0.0712
33688SOL    HW111378  10.989   2.919   7.557 -0.1198  0.9961  1.2104
33688SOL    HW211379  11.130   2.947   7.508 -0.3959 -1.1645 -1.0105
33689SOL     OW11380  12.039  11.547   1.432 -0.1147 -0.1454  0.0605
33689SOL    HW111381  12.006  11.598   1.506 -0.7347 -0.7617  0.2163
33689SOL    HW211382  11.961  11.513   1.389  0.2072  0.6871 -1.2520
33690SOL     OW11383  11.119   0.004   7.826  0.0289  1.0185  0.4304
33690SOL    HW111384  11.135   0.002   7.921 -1.0735  1.4025  0.6473
33690SOL    HW211385  11.127   0.096   7.803  0.1300  0.9458  0.1780
33691SOL     OW11386  11.486   9.839  10.795 -0.3347  0.1191 -0.0752
33691SOL    HW111387  11.461   9.810  10.883  1.7732  0.0926  0.5930
33691SOL    HW211388  11.443   9.923  10.783  0.7032  0.9778  1.7590
33692SOL     OW11389   9.739   3.203   9.168 -0.4286 -1.2398  0.6348
33692SOL    HW111390   9.754   3.133   9.233  2.0221 -0.8355  0.5984
33692SOL    HW211391   9.724   3.156   9.086 -0.0989 -1.7365  0.8533
33693SOL     OW11392   5.413   8.412   9.369 -0.5681 -0.2780  0.1930
33693SOL    HW111393   5.406   8.351   9.296  1.6179 -0.6719  0.2382
33693SOL    HW211394   5.323   8.423   9.400 -1.2704 -1.8496 -1.1250
33694SOL     OW11395  10.072   4.916   0.450 -0.5087 -0.2130 -0.4087
33694SOL    HW111396  10.092   5.000   0.409  0.1507 -0.1255  0.0845
33694SOL    HW211397  10.038   4.938   0.536 -0.0011 -0.4540 -0.1408
33695SOL     OW11398   7.205   9.793   9.511  0.2926 -0.4000  0.1034
33695SOL    HW111399   7.150   9.807   9.434 -0.5292  0.4853  0.8214
33695SOL    HW211400   7.207   9.878   9.555  1.1735 -0.7599  0.7907
33696SOL     OW11401  10.782   9.549   4.760  0.6069 -0.3434  0.2600
33696SOL    HW111402  10.764   9.458   4.737  1.2967 -0.4444  0.1000
33696SOL    HW211403  10.818   9.588   4.680 -1.9828  0.7655 -0.4783
33697SOL     OW11404  11.885   3.127  11.229  0.5088  0.0426  0.1152
33697SOL    HW111405  11.964   3.078  11.251  1.1646  0.9272 -0.2095
33697SOL    HW211406  11.862   3.172  11.311 -0.0802 -0.7717  0.4075
33698SOL     OW11407   1.863  12.017   2.316  0.4368 -0.2064 -0.0128
33698SOL    HW111408   1.945  11.970   2.305  0.3590 -0.2185 -0.6168
33698SOL    HW211409   1.825  12.019   2.228  0.5070  1.1168 -0.0406
33699SOL     OW11410  11.560   9.992   7.123 -0.0919 -0.3875  0.1818
33699SOL    HW111411  11.562  10.061   7.057  0.1533  0.0448  0.6358
33699SOL    HW211412  11.585  10.036   7.205  0.6901 -1.1445  0.3557
33700SOL     OW11413   8.608  11.038   0.372 -0.3057 -0.0230  0.7988
33700SOL    HW111414   8.581  11.017   0.282 -0.0676 -0.7267  0.8936
33700SOL    HW211415   8.598  10.957   0.420 -2.4493  0.8340  1.9282
33701SOL     OW11416   3.302   0.593   2.627 -0.3105 -0.3700 -0.4627
33701SOL    HW111417   3.239   0.524   2.648  1.3202 -1.3015  1.7791
33701SOL    HW211418   3.358   0.555   2.559 -0.0650 -0.8855  0.0181
33702SOL     OW11419   3.055   9.205   9.275 -0.0496 -0.2303 -0.1958
33702SOL    HW111420   2.986   9.183   9.338 -0.4258 -0.2494 -0.6114
33702SOL    HW211421   3.080   9.295   9.298  1.5501 -1.0434  1.5616
33703SOL     OW11422   6.745   9.276   2.116 -0.4972  0.8189 -0.1607
33703SOL    HW111423   6.760   9.348   2.055  2.1329 -0.8319 -1.6770
33703SOL    HW211424   6.823   9.275   2.171 -0.1556 -1.1764 -0.5880
33704SOL     OW11425  10.982  12.698   6.739 -0.2656  0.8665 -0.1593
33704SOL    HW111426  10.981  12.609   6.775 -2.4376  0.9639  0.1152
33704SOL    HW211427  10.940  12.690   6.653  0.0326  1.5475 -0.3794
33705SOL     OW11428   3.353   0.057   7.852  0.0570 -0.0167  0.2696
33705SOL    HW111429   3.341   0.096   7.939 -0.2230 -0.2072  0.3147
33705SOL    HW211430   3.271   0.076   7.806  0.5357  0.8513 -0.2480
33706SOL     OW11431   5.438   5.481   4.523 -0.4825  0.3960 -0.1910
33706SOL    HW111432   5.485   5.470   4.440  0.9065  0.0377  0.6065
33706SOL    HW211433   5.426   5.575   4.531  0.4671  0.5335 -0.2380
33707SOL     OW11434   2.232   3.600   7.968  0.2885  0.3260 -0.4211
33707SOL    HW111435   2.255   3.608   8.061  0.0924  2.2017 -0.4997
33707SOL    HW211436   2.313   3.620   7.922  1.0941 -3.0591 -0.7356
33708SOL     OW11437  11.966  12.970  10.132 -0.1589  0.1382 -0.1927
33708SOL    HW111438  11.886  12.917  10.138 -0.2139  0.2951  0.5828
33708SOL    HW211439  11.935  13.061  10.135 -0.0836  0.2402 -1.7681
33709SOL     OW11440   7.212  11.708  10.355 -0.4027 -0.6308  0.2484
33709SOL    HW111441   7.150  11.687  10.286 -1.3502  2.0313  0.1920
33709SOL    HW211442   7.178  11.663  10.433 -1.7426 -0.1844 -0.0612
33710SOL     OW11443   7.325   0.529  12.782  0.0798  0.5996 -0.2120
33710SOL    HW111444   7.319   0.538  12.687 -3.2823  1.6259 -0.0365
33710SOL    HW211445   7.328   0.619  12.814 -0.1445  0.2867  0.7126
33711SOL     OW11446  12.816   5.354   9.700  0.0945  0.0321 -0.0682
33711SOL    HW111447  12.778   5.344   9.787  0.4330  1.0764  0.2092
33711SOL    HW211448  12.863   5.437   9.703 -1.0331  0.7844 -1.6660
33712SOL     OW11449  12.524   1.602  12.464  0.4050 -0.0705  0.5151
33712SOL    HW111450  12.511   1.680  12.411 -1.4733  0.5092  1.7257
33712SOL    HW211451  12.546   1.635  12.551 -1.2732 -0.8251  1.2612
33713SOL     OW11452  10.175   4.972   1.187 -0.0833  0.1671  0.4427
33713SOL    HW111453  10.081   4.967   1.202 -0.1208 -0.8158 -0.0233
33713SOL    HW211454  10.201   4.881   1.171  0.3080  0.7801 -3.3168
33714SOL     OW11455   9.070   9.164   6.524  0.0713  0.5746 -0.2954
33714SOL    HW111456   8.979   9.155   6.496 -1.1714 -0.8980  3.6187
33714SOL    HW211457   9.095   9.077   6.555  2.6322  1.1014 -0.6415
33715SOL     OW11458   7.088  11.643  10.803 -0.6549 -0.2545  0.3120
33715SOL    HW111459   7.022  11.592  10.851 -0.2024 -0.0273  1.1949
33715SOL    HW211460   7.162  11.647  10.862 -0.3345  0.6299 -0.1396
33716SOL     OW11461   3.879   2.354   7.615  0.5800  0.0126 -0.1995
33716SOL    HW111462   3.857   2.263   7.638  0.3080  0.5261  1.7125
33716SOL    HW211463   3.954   2.346   7.557  0.1722 -1.4615 -0.5801
33717SOL     OW11464  10.784   4.063   6.733 -0.3329  0.0012 -0.0027
33717SOL    HW111465  10.821   3.976   6.747 -1.2658 -0.6227 -1.2447
33717SOL    HW211466  10.855   4.112   6.689  0.0333 -0.2675  0.2865
33718SOL     OW11467   7.997   7.892   6.950  0.3912 -0.1540  0.2186
33718SOL    HW111468   8.077   7.845   6.925 -1.4942 -4.7112  1.6308
33718SOL    HW211469   7.997   7.889   7.046 -0.3392  2.0939  0.3438
33719SOL     OW11470  11.404  12.096   6.273 -0.0846 -0.1349 -0.1867
33719SOL    HW111471  11.466  12.168   6.280 -0.9758  0.9771 -2.3862
33719SOL    HW211472  11.375  12.080   6.362 -0.1305  2.5309  0.3647
33720SOL     OW11473   1.115  10.394   2.124 -0.2846 -0.0061  0.2367
33720SOL    HW111474   1.163  10.440   2.056 -0.4077 -1.8431 -1.1673
33720SOL    HW211475   1.025  10.426   2.115 -0.4918 -0.8766 -1.1186
33721SOL     OW11476   0.263   4.844   9.546 -0.0938  0.5638 -0.5610
33721SOL    HW111477   0.237   4.935   9.559 -2.1001 -0.2981  2.8004
33721SOL    HW211478   0.324   4.826   9.617 -0.2961 -0.8709 -0.7172
33722SOL     OW11479   0.110   1.409   9.635  0.1671 -0.1610 -0.2871
33722SOL    HW111480   0.147   1.399   9.722 -1.7879 -0.1686  0.5947
33722SOL    HW211481   0.088   1.319   9.608 -0.5351 -0.0265 -0.1762
33723SOL     OW11482   4.118   2.219   2.235  0.1347 -0.0814  0.3014
33723SOL    HW111483   4.137   2.276   2.310 -2.9177  1.2390  0.2275
33723SOL    HW211484   4.102   2.133   2.274 -0.3430  0.3475  1.0897
33724SOL     OW11485   4.097   1.132   4.252  0.3017 -0.0350  0.2987
33724SOL    HW111486   4.066   1.101   4.337 -0.5822  0.1441  0.0510
33724SOL    HW211487   4.153   1.207   4.273 -2.6446  2.3090  0.6390
33725SOL     OW11488   8.249   1.971   1.555 -0.0064 -0.5214 -0.3554
33725SOL    HW111489   8.286   1.883   1.548 -0.4583 -0.8202  0.7980
33725SOL    HW211490   8.289   2.020   1.484  4.4145 -0.1812  2.0262
33726SOL     OW11491  10.348  12.123   1.006 -0.0397 -0.2630 -0.3968
33726SOL    HW111492  10.419  12.167   1.053  0.0358 -0.9247  0.1373
33726SOL    HW211493  10.391  12.081   0.931  0.4639 -2.0211  0.8002
33727SOL     OW11494   6.177  12.847   1.787  0.0218  0.5228  0.4011
33727SOL    HW111495   6.213  12.934   1.768 -1.6101  1.0173 -0.5752
33727SOL    HW211496   6.155  12.810   1.702 -0.5420 -0.3065  0.8936
33728SOL     OW11497  12.622  11.693   3.551 -0.1169  0.3652 -0.1861
33728SOL    HW111498  12.712  11.666   3.537 -0.1343  1.1186 -2.0348
33728SOL    HW211499  12.577  11.672   3.470 -1.6959 -0.2508  0.7949
33729SOL     OW11500   6.656  10.498   6.323 -0.0613  0.2151 -0.0670
33729SOL    HW111501   6.652  10.522   6.231  1.3703 -0.4030 -0.3149
33729SOL    HW211502   6.742  10.527   6.353 -1.0477  1.7465  1.5025
33730SOL     OW11503  12.825   2.195   6.857  0.2810 -0.3125  0.9581
33730SOL    HW111504  12.758   2.231   6.799 -0.4789 -0.1900  1.8948
33730SOL    HW211505  12.847   2.110   6.818  1.3431  0.6373 -0.6915
33731SOL     OW11506   3.245   2.756   6.695  0.0854  0.8450 -0.6456
33731SOL    HW111507   3.280   2.775   6.782 -0.6661  0.3368 -0.2219
33731SOL    HW211508   3.320   2.765   6.637  0.6107  1.1341  0.0588
33732SOL     OW11509   3.799  11.992   5.476  0.4455 -0.1680 -0.6170
33732SOL    HW111510   3.878  11.966   5.525 -0.4032  0.0976  0.9622
33732SOL    HW211511   3.828  12.067   5.424  0.6414  1.8664  2.1506
33733SOL     OW11512   2.749   9.472   6.932 -0.1782 -0.2217  0.6201
33733SOL    HW111513   2.813   9.474   6.862 -0.7117  0.4281  0.1339
33733SOL    HW211514   2.727   9.564   6.947 -3.5414 -0.4730 -1.6150
33734SOL     OW11515   4.184   0.413   6.809 -0.3651 -0.2699  0.3712
33734SOL    HW111516   4.117   0.478   6.833 -1.2010 -1.1362  0.4596
33734SOL    HW211517   4.134   0.334   6.789  0.6048 -0.7491 -0.2183
33735SOL     OW11518   7.957   5.214   1.315  0.5613  0.1084 -0.0887
33735SOL    HW111519   8.015   5.155   1.363 -0.3543  0.1824  1.1736
33735SOL    HW211520   7.985   5.302   1.341 -0.6117  0.1358  1.2056
33736SOL     OW11521   2.619   4.433   6.073  0.0397  0.5024 -0.4419
33736SOL    HW111522   2.623   4.349   6.027 -0.0304 -0.3656  1.0776
33736SOL    HW211523   2.544   4.478   6.033 -1.1311 -0.9616  0.0070
33737SOL     OW11524   6.979   0.735   9.225 -0.6725  0.3950 -0.1542
33737SOL    HW111525   7.008   0.671   9.290  0.1111  1.7743  0.9331
33737SOL    HW211526   7.045   0.731   9.156 -1.7281 -1.3711 -1.1448
33738SOL     OW11527   2.252  10.483   6.837 -0.7266 -0.6045 -0.4078
33738SOL    HW111528   2.218  10.482   6.927 -2.9014 -1.5490 -1.1677
33738SOL    HW211529   2.223  10.567   6.802  1.5320  0.5014  0.2029
33739SOL     OW11530   7.848  12.356   2.274  0.0236 -0.1281  0.6583
33739SOL    HW111531   7.933  12.353   2.231 -0.9181 -0.6703 -1.2376
33739SOL    HW211532   7.785  12.333   2.206 -1.6260 -0.0896  2.1022
33740SOL     OW11533  10.220   3.233   5.703 -0.1889 -0.1697  0.3481
33740SOL    HW111534  10.285   3.183   5.655 -1.4695 -1.2959 -0.2930
33740SOL    HW211535  10.267   3.310   5.736  1.1162 -0.2349 -1.2572
33741SOL     OW11536   7.188  12.710  12.205 -0.7780 -0.4288 -0.4099
33741SOL    HW111537   7.249  12.680  12.138 -0.0976  2.0500 -0.9933
33741SOL    HW211538   7.101  12.694  12.167 -0.4637 -1.2802 -0.8032
33742SOL     OW11539   5.879   7.941   0.891  0.1445 -0.0308 -0.4194
33742SOL    HW111540   5.870   7.966   0.983 -3.2674  0.6895 -0.8139
33742SOL    HW211541   5.883   7.845   0.892  1.7197  0.0091  0.4954
33743SOL     OW11542  12.251  12.927   8.875 -0.6031 -0.3514 -0.1034
33743SOL    HW111543  12.317  12.910   8.943  1.4086  1.6251 -1.4064
33743SOL    HW211544  12.176  12.962   8.923  0.0468 -0.7891  1.2803
33744SOL     OW11545   2.382   7.213   3.162  0.2701  0.1886  0.1538
33744SOL    HW111546   2.369   7.247   3.074  1.5422  0.8611  0.2015
33744SOL    HW211547   2.434   7.280   3.207  0.5253 -0.6028  1.0869
33745SOL     OW11548   3.809  11.357   6.171  0.3124 -0.2506  0.2558
33745SOL    HW111549   3.822  11.356   6.076  0.5106 -0.4026  0.2839
33745SOL    HW211550   3.717  11.381   6.182  0.9966  2.7911  0.0982
33746SOL     OW11551  12.175   2.882   9.295 -0.3887  0.2481  0.4676
33746SOL    HW111552  12.231   2.834   9.234 -0.3326  2.1376 -1.0665
33746SOL    HW211553  12.101   2.823   9.310  0.6575 -1.1477  0.3290
33747SOL     OW11554   3.397  11.802   9.224 -0.6402  0.5746 -0.1828
33747SOL    HW111555   3.332  11.771   9.162 -0.9028  1.0588 -0.1553
33747SOL    HW211556   3.479  11.763   9.194 -1.0056 -0.3691  0.0222
33748SOL     OW11557  12.086  11.921   2.113  0.0513 -0.1567  0.4533
33748SOL    HW111558  12.068  12.007   2.075  0.2236 -0.1165  0.4616
33748SOL    HW211559  12.096  11.863   2.037 -0.8698 -0.3344  0.4630
33749SOL     OW11560  12.019   1.084  10.481  0.0461 -0.6592  0.8283
33749SOL    HW111561  12.086   1.073  10.414 -0.4036 -0.8797  0.4054
33749SOL    HW211562  12.065   1.076  10.564  0.8487  0.8891  0.5698
33750SOL     OW11563   2.439   4.597   9.540 -0.3009  0.2776 -0.5034
33750SOL    HW111564   2.491   4.517   9.538 -1.6688 -0.6345 -1.4675
33750SOL    HW211565   2.502   4.668   9.527  1.0061 -0.5781  0.8771
33751SOL     OW11566  12.402   8.495   8.250  0.1872  0.3379 -0.2531
33751SOL    HW111567  12.355   8.492   8.334 -1.0893 -1.3754 -0.9645
33751SOL    HW211568  12.481   8.546   8.268 -0.2729  0.3810  1.8671
33752SOL     OW11569   6.773  11.041   3.810  0.2379  0.2320 -0.0141
33752SOL    HW111570   6.814  11.048   3.724 -0.5311 -1.7694 -0.6015
33752SOL    HW211571   6.834  10.991   3.863  0.6732  1.3918  0.6181
33753SOL     OW11572  10.807   2.766   8.340  0.2003 -0.0231  0.3716
33753SOL    HW111573  10.896   2.767   8.305  0.8025  2.7858  1.7297
33753SOL    HW211574  10.757   2.823   8.282  0.3200  1.6405  1.8136
33754SOL     OW11575   4.135   4.998   1.900  0.0402 -0.4260 -0.2914
33754SOL    HW111576   4.135   5.093   1.890  1.2299 -0.4365 -0.5524
33754SOL    HW211577   4.093   4.965   1.821 -2.0992 -0.0808  0.6364
33755SOL     OW11578   7.289  10.646  12.353 -0.8778  0.4113 -0.0987
33755SOL    HW111579   7.243  10.564  12.373 -0.8611  0.3308 -0.3928
33755SOL    HW211580   7.222  10.701  12.313 -0.9249  0.5944  0.2313
33756SOL     OW11581   7.086   2.004   0.330 -0.4281 -0.0968  0.2341
33756SOL    HW111582   7.056   1.913   0.333 -0.7704  0.0334  1.0548
33756SOL    HW211583   7.133   2.016   0.412  1.6601 -0.2017 -0.8844
33757SOL     OW11584   1.083   2.802   3.330 -0.0394 -0.2578 -0.1211
33757SOL    HW111585   1.005   2.808   3.276  0.6795  0.4858 -1.1034
33757SOL    HW211586   1.054   2.754   3.408 -1.8462  1.3074  0.2593
33758SOL     OW11587   7.757   1.457   2.724  0.0784 -0.6179  0.2386
33758SOL    HW111588   7.817   1.411   2.666  1.6252  0.2912  1.0405
33758SOL    HW211589   7.680   1.400   2.729  0.3256 -1.2067 -1.8229
33759SOL     OW11590   6.772   0.083   3.351 -0.2575 -0.4048  0.1211
33759SOL    HW111591   6.795   0.087   3.444 -1.1668  0.2205  0.3263
33759SOL    HW211592   6.838   0.137   3.308  1.1082 -1.9424  0.1933
33760SOL     OW11593   6.139   6.030   5.406  0.3577 -0.4565  0.0451
33760SOL    HW111594   6.131   6.117   5.368  0.3483 -0.0223  1.0119
33760SOL    HW211595   6.064   5.981   5.373 -0.6262  0.4449  0.8865
33761SOL     OW11596  12.590   7.425   5.243 -0.2464 -0.3724 -0.3068
33761SOL    HW111597  12.573   7.356   5.179  3.5911  0.1719 -2.2464
33761SOL    HW211598  12.601   7.379   5.326 -2.8659 -1.3784 -0.4273
33762SOL     OW11599   2.513   3.498  11.327  0.2421  0.7016  0.1183
33762SOL    HW111600   2.599   3.532  11.302  0.1821 -0.3133 -1.6220
33762SOL    HW211601   2.531   3.409  11.359 -0.2763 -0.1080 -1.7284
33763SOL     OW11602  11.981   8.970   5.736  0.1313 -0.1141  0.1318
33763SOL    HW111603  11.887   8.981   5.745 -0.2051 -2.8702  0.8117
33763SOL    HW211604  11.997   8.878   5.756  2.9847  0.2642  0.0624
33764SOL     OW11605   2.137   0.462   7.216  0.2851 -0.4196  0.5907
33764SOL    HW111606   2.198   0.389   7.210  0.5683 -0.1819  0.5529
33764SOL    HW211607   2.132   0.482   7.310  1.1988  0.3328  0.5009
33765SOL     OW11608   2.248   6.775  12.160 -0.3769 -0.3096  0.1344
33765SOL    HW111609   2.294   6.692  12.148 -0.1495 -0.1842  0.1345
33765SOL    HW211610   2.285   6.833  12.094 -1.2203 -0.4914 -0.5068
33766SOL     OW11611   6.391   7.216   4.343 -0.2102  0.2745  0.0834
33766SOL    HW111612   6.423   7.155   4.276  1.7330  1.3182 -0.0260
33766SOL    HW211613   6.376   7.161   4.420 -0.0114 -0.5671 -0.4646
33767SOL     OW11614   5.530  12.261   8.497 -0.1532 -0.3737 -0.2275
33767SOL    HW111615   5.505  12.211   8.419  0.5842 -1.9982  0.5201
33767SOL    HW211616   5.570  12.196   8.555  1.2156  1.1912  0.6531
33768SOL     OW11617   8.268   6.845   2.658 -0.1614 -0.5187 -0.1804
33768SOL    HW111618   8.304   6.846   2.747 -0.2089  1.2219 -0.1414
33768SOL    HW211619   8.186   6.894   2.666  0.4546  0.7843 -1.4027
33769SOL     OW11620   0.111   4.670   6.431 -0.3500 -0.1104  0.2610
33769SOL    HW111621   0.140   4.714   6.511 -1.5782  0.2677  0.5112
33769SOL    HW211622   0.023   4.639   6.451  0.2956 -2.3125 -0.0660
33770SOL     OW11623  11.984   3.953   6.897 -0.1345  0.3009  0.3394
33770SOL    HW111624  11.937   4.000   6.829 -1.3031  1.5312  1.9117
33770SOL    HW211625  12.074   3.948   6.866 -0.6404  0.7438 -1.3017
33771SOL     OW11626  10.364   3.210  12.120  0.0753  0.3279  0.6347
33771SOL    HW111627  10.450   3.250  12.111  0.8200 -1.2635  0.4291
33771SOL    HW211628  10.354   3.154  12.043 -0.9103  0.0579  0.9369
33772SOL     OW11629   2.692   5.191  12.750  0.0763  0.1533 -0.3948
33772SOL    HW111630   2.736   5.144  12.821 -0.8534  2.2190  1.6816
33772SOL    HW211631   2.620   5.133  12.724 -0.7504  0.1087  1.7497
33773SOL     OW11632  11.019  10.502  12.850  0.0773  0.1355 -0.0044
33773SOL    HW111633  10.986  10.501  12.940  0.2212  0.8134  0.0585
33773SOL    HW211634  11.077  10.577  12.846 -0.5527  0.6061 -0.8902
33774SOL     OW11635   5.317   9.643   1.922 -0.2198  0.5961  0.6031
33774SOL    HW111636   5.339   9.604   1.838 -1.6970  1.5928 -0.3001
33774SOL    HW211637   5.235   9.600   1.947  0.1109  0.4434  1.4478
33775SOL     OW11638   6.131   2.810  12.204  0.0993  0.0408 -0.4660
33775SOL    HW111639   6.171   2.723  12.198 -0.5698 -0.1861 -2.7469
33775SOL    HW211640   6.087   2.821  12.119  0.5112  2.7555 -0.3976
33776SOL     OW11641   3.779  12.763   5.274 -0.8609  0.1828 -0.1852
33776SOL    HW111642   3.867  12.774   5.238 -1.8406  0.4810 -2.7081
33776SOL    HW211643   3.742  12.851   5.274 -0.2925  0.5943  3.6443
33777SOL     OW11644   9.381  11.202   2.157 -0.0332 -0.2701  0.7657
33777SOL    HW111645   9.305  11.224   2.101 -0.2046  0.2765  1.2003
33777SOL    HW211646   9.355  11.123   2.203 -0.9384  0.7011  1.9917
33778SOL     OW11647   3.875  11.817   9.264 -0.6042 -0.0341  0.1049
33778SOL    HW111648   3.849  11.903   9.295  3.2669  1.1870  0.4028
33778SOL    HW211649   3.941  11.834   9.197  1.2834 -2.7246  1.1011
33779SOL     OW11650   4.204  11.948   8.418 -0.9653 -0.1182 -0.1510
33779SOL    HW111651   4.220  12.029   8.369 -1.7335  0.8531  1.1212
33779SOL    HW211652   4.239  11.879   8.362 -3.1358  0.7266 -2.7570
33780SOL     OW11653   9.226  10.322   4.501 -0.3569  0.4268 -0.2698
33780SOL    HW111654   9.315  10.336   4.534 -0.1082  2.1583 -1.5524
33780SOL    HW211655   9.215  10.227   4.501  1.0937  0.2237  0.8974
33781SOL     OW11656  12.005   8.062   7.258 -0.0304  0.1711 -0.1644
33781SOL    HW111657  12.074   8.103   7.207 -0.9404  2.4521  0.3304
33781SOL    HW211658  11.941   8.033   7.193  0.7916 -0.8913 -0.5382
33782SOL     OW11659   3.104   6.585   3.232 -0.2549  0.3453 -0.7335
33782SOL    HW111660   3.037   6.572   3.164  0.5225  1.5695 -1.7857
33782SOL    HW211661   3.187   6.578   3.185  0.2909  1.8159 -0.0572
33783SOL     OW11662  10.110   9.990   1.417  0.2680  0.4779 -0.4564
33783SOL    HW111663  10.109  10.085   1.429 -0.5955  0.2472  1.7137
33783SOL    HW211664  10.024   9.961   1.445  1.0597 -1.0977  0.4809
33784SOL     OW11665   4.744   0.127   5.632  0.2740 -0.6998  0.7327
33784SOL    HW111666   4.828   0.088   5.607  0.0207 -1.3126  0.8225
33784SOL    HW211667   4.754   0.146   5.725 -0.5996 -3.2576  1.4227
33785SOL     OW11668   2.421  11.853   2.794  0.4188  0.1549 -0.0568
33785SOL    HW111669   2.350  11.868   2.732 -1.7107 -1.6144  1.7679
33785SOL    HW211670   2.387  11.885   2.877  2.0691 -0.0639  0.7372
33786SOL     OW11671  10.480   5.071   9.119  0.2242 -0.1747  0.4762
33786SOL    HW111672  10.385   5.071   9.109  0.2128 -1.7456  0.3044
33786SOL    HW211673  10.511   5.010   9.052  1.3690  0.3822  0.4742
33787SOL     OW11674   3.745   2.282  10.743  0.0022  0.4997  0.1642
33787SOL    HW111675   3.668   2.328  10.778 -0.5822 -0.1486 -0.2507
33787SOL    HW211676   3.780   2.341  10.676 -0.4411  0.5718 -0.0083
33788SOL     OW11677   3.517   2.015   5.016  0.5726  0.0361  0.0553
33788SOL    HW111678   3.456   2.026   4.942  1.6803 -2.4338 -1.3668
33788SOL    HW211679   3.587   2.077   4.999  0.7800 -0.4573 -0.9769
33789SOL     OW11680  12.449   2.645   3.271 -0.1939 -0.5369  0.3239
33789SOL    HW111681  12.354   2.645   3.282 -0.3145  0.6564 -0.5346
33789SOL    HW211682  12.462   2.633   3.177  0.4851 -0.2609  0.3776
33790SOL     OW11683   9.091   3.702   1.951  0.0915  0.3482 -0.5693
33790SOL    HW111684   9.178   3.685   1.989 -0.3027  0.5107  0.4302
33790SOL    HW211685   9.061   3.616   1.921 -1.1945 -0.5700  2.9620
33791SOL     OW11686  12.868   4.074   3.032 -0.1405 -0.0506 -0.2008
33791SOL    HW111687  12.908   4.113   3.109  2.1352 -1.1230 -0.7449
33791SOL    HW211688  12.781   4.046   3.061 -0.1892  1.5377  1.3222
33792SOL     OW11689   4.223   9.492   2.730 -0.4054 -0.3551 -0.1349
33792SOL    HW111690   4.195   9.529   2.646 -1.1831  1.9685  1.0292
33792SOL    HW211691   4.299   9.438   2.709  1.3329  2.5319 -2.0239
33793SOL     OW11692   2.036   7.066   9.167  0.1301 -0.2867 -0.3142
33793SOL    HW111693   2.104   7.059   9.101  0.6314  1.5681 -0.0562
33793SOL    HW211694   1.986   7.144   9.143 -0.6858 -0.4948  0.5972
33794SOL     OW11695   6.845   9.601   2.794 -0.5123  0.0001  0.3866
33794SOL    HW111696   6.849   9.556   2.878 -0.7388  0.1239  0.4648
33794SOL    HW211697   6.869   9.692   2.813 -0.8246  0.0891  0.3672
33795SOL     OW11698   0.676   3.471   6.585  0.2558  0.0292  0.2718
33795SOL    HW111699   0.639   3.557   6.606 -3.5354 -1.3053 -0.1683
33795SOL    HW211700   0.717   3.443   6.667  1.1671  1.9897  0.5579
33796SOL     OW11701   3.533  11.405   6.238  0.2809 -0.4975  0.2617
33796SOL    HW111702   3.441  11.411   6.266 -0.0931  0.4863 -1.0339
33796SOL    HW211703   3.528  11.389   6.143  1.4666 -1.9242  0.4180
33797SOL     OW11704   1.794   0.148  10.009 -0.0701  0.1044  0.0397
33797SOL    HW111705   1.771   0.085  10.077  3.8295 -0.2423  1.2894
33797SOL    HW211706   1.887   0.164  10.022 -0.0787  3.3432 -2.6048
33798SOL     OW11707  11.577   7.289   4.009  0.0108 -0.6261 -0.2007
33798SOL    HW111708  11.628   7.359   3.968  1.1544 -1.2279  0.1357
33798SOL    HW211709  11.607   7.209   3.965 -0.1638 -1.0585  0.4510
33799SOL     OW11710   5.281   1.188   8.726  0.4632  0.3952 -0.1062
33799SOL    HW111711   5.320   1.187   8.638 -0.2940  0.5260 -0.4468
33799SOL    HW211712   5.198   1.142   8.717  0.2719  0.6127  0.4932
33800SOL     OW11713   4.453  11.263   6.901 -0.3463 -0.2471 -0.2984
33800SOL    HW111714   4.412  11.180   6.875  1.7964 -1.1578 -0.9681
33800SOL    HW211715   4.506  11.241   6.977 -0.7554  0.8237  0.3226
33801SOL     OW11716   2.632   8.775  12.060  0.3373  0.4072 -0.1843
33801SOL    HW111717   2.607   8.749  12.149 -0.7072  2.2526  0.1211
33801SOL    HW211718   2.709   8.830  12.071 -0.8177  2.0930 -0.1927
33802SOL     OW11719   3.637   0.550   5.563 -0.1799 -0.0426  0.0308
33802SOL    HW111720   3.596   0.467   5.588 -0.1159 -0.5877 -1.5079
33802SOL    HW211721   3.565   0.613   5.562 -0.1053  0.1288  1.9202
33803SOL     OW11722   5.082   5.538   9.530  0.0656  0.6008 -0.3784
33803SOL    HW111723   5.049   5.565   9.444 -0.4134  2.3209  0.3022
33803SOL    HW211724   5.129   5.456   9.513 -0.1314  0.8284 -2.2527
33804SOL     OW11725   8.082  11.692   1.390 -0.1092 -0.1093 -0.1477
33804SOL    HW111726   8.048  11.610   1.426  0.3664 -1.9370 -3.5026
33804SOL    HW211727   8.005  11.750   1.388 -0.8837 -1.0651  0.6443
33805SOL     OW11728   2.359   7.385   4.210 -0.2129  0.3190 -0.1093
33805SOL    HW111729   2.376   7.430   4.127 -0.2108 -0.2023 -0.3981
33805SOL    HW211730   2.265   7.397   4.225 -0.1474  0.7069 -0.0108
33806SOL     OW11731   8.881   0.773  10.851  0.2125  0.1698  0.1708
33806SOL    HW111732   8.964   0.737  10.821  1.3341  2.3308  0.4766
33806SOL    HW211733   8.832   0.792  10.771  0.8809  0.7743 -0.1034
33807SOL     OW11734   4.115  10.380   0.809 -0.0378  0.1901 -0.1092
33807SOL    HW111735   4.164  10.419   0.881  0.3402  1.1656 -0.8594
33807SOL    HW211736   4.174  10.314   0.772  0.5619  1.0585 -0.7365
33808SOL     OW11737  11.388   1.039   8.420  0.8244 -0.0513  0.7519
33808SOL    HW111738  11.373   0.955   8.463  0.8044 -1.3396 -1.5915
33808SOL    HW211739  11.479   1.061   8.440  1.0587 -1.0137  0.7887
33809SOL     OW11740  12.592   7.985  12.550  0.1577  0.0787  0.2793
33809SOL    HW111741  12.681   7.951  12.547 -0.3447 -1.3953  1.1508
33809SOL    HW211742  12.564   7.972  12.640 -1.1264  0.0071 -0.1052
33810SOL     OW11743  11.871   7.489  11.733  0.2999 -0.2090  0.1770
33810SOL    HW111744  11.929   7.510  11.807 -0.2018  2.8781 -0.1997
33810SOL    HW211745  11.788   7.531  11.754  0.0284  0.4478 -1.9711
33811SOL     OW11746   7.205   3.687   2.090  0.1046 -0.4748  0.0781
33811SOL    HW111747   7.289   3.681   2.135  0.6677  3.0194 -0.2132
33811SOL    HW211748   7.212   3.767   2.037 -2.8527 -0.9240 -1.1745
33812SOL     OW11749   4.260   3.548   0.876 -0.2822  0.1179  0.1201
33812SOL    HW111750   4.253   3.611   0.948  0.9745  1.7225 -1.1030
33812SOL    HW211751   4.354   3.539   0.861 -0.3544 -2.5837  0.6263
33813SOL     OW11752  12.843   9.217   1.047  0.3417  0.1536  0.2012
33813SOL    HW111753  12.877   9.269   1.119  0.4072 -1.6367  1.5369
33813SOL    HW211754  12.766   9.174   1.083 -0.0477 -0.2181 -1.0374
33814SOL     OW11755   2.440   1.141   9.559  0.3019  0.1017 -0.6549
33814SOL    HW111756   2.531   1.169   9.545  0.1685  0.9817  0.1519
33814SOL    HW211757   2.441   1.097   9.644 -0.0474  0.2069 -0.5967
33815SOL     OW11758  12.167  11.983   7.123  0.7376  0.1076  0.2698
33815SOL    HW111759  12.080  11.945   7.131  1.2834 -0.8956  1.8327
33815SOL    HW211760  12.205  11.941   7.045 -0.3780  1.0725 -0.8482
33816SOL     OW11761  11.559   5.206   2.317 -0.1277  0.2254 -0.0342
33816SOL    HW111762  11.485   5.257   2.350 -0.1511  0.0690  0.1581
33816SOL    HW211763  11.629   5.221   2.381 -0.4015 -0.6557  0.4910
33817SOL     OW11764   2.295   5.479   4.860  0.4411 -0.3220  0.6417
33817SOL    HW111765   2.360   5.420   4.823  1.7692  1.6300 -0.3212
33817SOL    HW211766   2.227   5.485   4.792 -0.3656 -1.6869  1.2861
33818SOL     OW11767  11.501  11.645   2.549 -0.3834  0.0912 -0.1953
33818SOL    HW111768  11.419  11.624   2.504 -0.5127 -0.5835  0.3425
33818SOL    HW211769  11.567  11.590   2.505 -0.1745  0.7649 -0.7480
33819SOL     OW11770   0.627   0.634  11.591 -0.0631 -0.4273 -0.0133
33819SOL    HW111771   0.620   0.628  11.687  1.6054  1.3756  0.2706
33819SOL    HW211772   0.627   0.543  11.562  0.3668 -1.0490  1.7922
33820SOL     OW11773  10.910   5.849   2.673 -0.1798 -0.0114  0.5489
33820SOL    HW111774  10.877   5.897   2.749  0.7307 -0.7016  1.4089
33820SOL    HW211775  10.875   5.761   2.684  0.4473 -0.2721  0.5036
33821SOL     OW11776   2.821   5.329   2.146 -0.4682  0.4339  0.1998
33821SOL    HW111777   2.783   5.324   2.058  0.1156  1.2922 -0.1118
33821SOL    HW211778   2.913   5.350   2.131  0.4567 -2.6522  0.9033
33822SOL     OW11779   1.181  11.738   6.843  0.2192  0.4541  0.2701
33822SOL    HW111780   1.135  11.657   6.818  0.5262  0.2807  0.2650
33822SOL    HW211781   1.142  11.805   6.787 -1.2143  0.6386  1.4093
33823SOL     OW11782   4.677   3.655   7.046  0.3495 -0.5427  0.4358
33823SOL    HW111783   4.753   3.688   6.998 -0.0599 -1.7952 -1.1180
33823SOL    HW211784   4.676   3.707   7.127  1.4758  1.1078 -0.5639
33824SOL     OW11785   9.659   1.112   7.038 -0.3431 -0.3789  0.0700
33824SOL    HW111786   9.706   1.126   7.121  0.7866  0.0622 -0.6239
33824SOL    HW211787   9.695   1.030   7.004 -1.8218 -1.3184  0.6712
33825SOL     OW11788   3.779   1.725   8.967 -0.4969  0.1480  0.2043
33825SOL    HW111789   3.778   1.674   8.886 -0.6527 -1.2589  1.0586
33825SOL    HW211790   3.686   1.738   8.988 -0.4614  1.2608 -0.2828
33826SOL     OW11791   1.968  10.038   4.984  0.0715  0.2666  0.0091
33826SOL    HW111792   2.004  10.041   4.895 -0.9455 -2.7157 -0.6220
33826SOL    HW211793   1.876  10.059   4.974 -0.6890 -2.7390 -0.1920
33827SOL     OW11794  12.886   4.006   7.536 -0.9433 -0.0938 -0.4149
33827SOL    HW111795  12.805   4.010   7.485 -1.8896  1.0011  1.0834
33827SOL    HW211796  12.886   4.087   7.587  2.1044  0.9300 -1.7980
33828SOL     OW11797   2.214   6.084   0.032 -0.1472 -0.3435  0.8111
33828SOL    HW111798   2.295   6.080  -0.019 -0.8490 -0.1212 -0.3522
33828SOL    HW211799   2.242   6.071   0.123  0.8418 -3.3487  0.1602
33829SOL     OW11800   9.399   0.194   6.073  0.7739  0.0150  0.3745
33829SOL    HW111801   9.355   0.110   6.080 -0.2455  0.6510  2.8733
33829SOL    HW211802   9.407   0.210   5.979 -1.8463 -1.4065 -0.1776
33830SOL     OW11803   5.212  12.776   8.149  0.0616 -0.2933  0.2707
33830SOL    HW111804   5.189  12.808   8.236 -1.1739 -0.8832  0.1805
33830SOL    HW211805   5.303  12.804   8.136  0.3867 -0.5338  1.8897
33831SOL     OW11806   6.368   7.541   8.784 -0.1356  0.0325 -0.3043
33831SOL    HW111807   6.432   7.607   8.811  1.4270 -1.8774  0.9880
33831SOL    HW211808   6.283   7.584   8.794  0.8106  1.7799  0.6551
33832SOL     OW11809   5.855   1.008   5.893 -0.1848 -0.5289  0.0033
33832SOL    HW111810   5.862   0.918   5.861 -1.7660 -0.2392 -1.2506
33832SOL    HW211811   5.941   1.046   5.874 -0.1182 -1.2314 -1.2572
33833SOL     OW11812   0.599   5.193   5.497  0.0115  0.5246  0.3647
33833SOL    HW111813   0.544   5.267   5.521  0.7056  1.2446 -0.1935
33833SOL    HW211814   0.675   5.200   5.554 -0.2046 -0.1311  0.7416
33834SOL     OW11815   0.077   0.631   9.506 -0.8281  0.1932 -0.1431
33834SOL    HW111816   0.074   0.614   9.412  2.9687  0.3537 -0.4357
33834SOL    HW211817   0.034   0.716   9.516 -0.7396  0.4788 -1.8519
33835SOL     OW11818   2.713   1.592  10.579 -0.0375  0.5761  0.0774
33835SOL    HW111819   2.802   1.571  10.605 -0.4499  1.6058  2.6781
33835SOL    HW211820   2.696   1.537  10.502  2.6564  0.0721 -0.2456
33836SOL     OW11821   4.910   4.510   8.507  0.0482 -0.1995  0.2918
33836SOL    HW111822   4.984   4.476   8.556  0.5099  2.2353  1.4533
33836SOL    HW211823   4.947   4.534   8.422  0.0853 -0.9498  0.0861
33837SOL     OW11824  10.590  12.088   4.809 -0.1450  0.9350  0.5586
33837SOL    HW111825  10.523  12.142   4.850  0.9254  2.0596  0.8714
33837SOL    HW211826  10.639  12.050   4.881  0.2547  1.0045  0.3246
33838SOL     OW11827   5.692   0.017   3.918  0.4570 -0.2146  0.0142
33838SOL    HW111828   5.753   0.084   3.889  0.7846  0.1246  1.4297
33838SOL    HW211829   5.689  -0.046   3.846  1.0484  0.7048 -0.8352
33839SOL     OW11830   6.919   7.748   0.388  0.1929 -0.3369  0.0921
33839SOL    HW111831   6.988   7.809   0.412  0.0968  0.0813 -0.6513
33839SOL    HW211832   6.849   7.764   0.452 -0.1919  0.9767 -0.6207
33840SOL     OW11833   5.217  12.016   8.374  0.3298 -0.2681  0.1427
33840SOL    HW111834   5.268  11.969   8.307  0.2904 -0.5095  0.2790
33840SOL    HW211835   5.151  12.064   8.324  0.4743 -0.2283 -0.0111
33841SOL     OW11836   9.133   9.300  12.130  0.1403  0.2465 -0.7508
33841SOL    HW111837   9.165   9.240  12.197 -1.2944  0.4768  0.1898
33841SOL    HW211838   9.159   9.260  12.047  1.0379 -0.5854 -0.0894
33842SOL     OW11839   1.566   5.555  12.479 -0.0810 -0.0511 -0.5523
33842SOL    HW111840   1.500   5.485  12.471 -0.3435  0.2851 -1.5011
33842SOL    HW211841   1.584   5.560  12.572 -0.3324 -1.1407 -0.4231
33843SOL     OW11842  10.501   2.580   9.803  0.2435  0.0102  0.6605
33843SOL    HW111843  10.563   2.621   9.863  2.3750 -1.3228 -0.5244
33843SOL    HW211844  10.458   2.513   9.856  2.7054 -1.7352  0.6139
33844SOL     OW11845  10.809   3.984   2.663 -0.4761  0.1425  0.7033
33844SOL    HW111846  10.803   3.994   2.568 -0.8385  0.2429  0.7359
33844SOL    HW211847  10.881   3.921   2.676 -2.0041 -1.7897  0.2547
33845SOL     OW11848   0.109  10.975   6.832 -0.7196  0.1472  0.1390
33845SOL    HW111849   0.175  11.024   6.881 -0.6302 -0.6598  0.8527
33845SOL    HW211850   0.131  10.989   6.740 -0.9155  1.7334  0.3054
33846SOL     OW11851   8.136   3.719   4.090  0.4425  0.4093  0.1212
33846SOL    HW111852   8.138   3.697   4.183 -0.9995 -0.0860  0.0561
33846SOL    HW211853   8.153   3.813   4.087 -1.0200  0.7320  1.0278
33847SOL     OW11854   3.245  10.989   4.500 -0.1286  0.3904  0.3782
33847SOL    HW111855   3.280  10.899   4.498  0.4508  0.6266 -0.6796
33847SOL    HW211856   3.163  10.984   4.451  0.2913  0.5870 -0.3568
33848SOL     OW11857   9.570   2.470   3.717  0.2889 -0.1293  0.0957
33848SOL    HW111858   9.508   2.431   3.656  0.1754 -0.6706  0.5500
33848SOL    HW211859   9.516   2.511   3.785  0.3250 -2.9422  2.0128
33849SOL     OW11860  10.543   0.922  12.502 -0.3883 -0.1356  0.2542
33849SOL    HW111861  10.498   0.997  12.461  1.4306  0.7116 -0.3305
33849SOL    HW211862  10.475   0.878  12.553 -2.1245  0.3978 -1.4679
33850SOL     OW11863   0.141   5.763  10.074 -1.0415  0.7658 -0.3151
33850SOL    HW111864   0.072   5.774  10.008 -0.2519 -1.8072 -1.6985
33850SOL    HW211865   0.215   5.728  10.026 -0.2337 -0.6750  1.8367
33851SOL     OW11866   9.851   0.751   5.903 -0.1081  0.3766 -0.5259
33851SOL    HW111867   9.893   0.671   5.873  2.5605  1.5903 -0.2874
33851SOL    HW211868   9.863   0.751   5.998 -1.1897  0.5046 -0.3691
33852SOL     OW11869   3.391   1.267  10.648  0.1311 -0.0548  0.1945
33852SOL    HW111870   3.300   1.281  10.674  0.1972  0.2628  0.2672
33852SOL    HW211871   3.442   1.295  10.724  0.2763 -0.7423  0.3554
33853SOL     OW11872   6.785   5.716   8.724  0.5001  0.5138  0.3466
33853SOL    HW111873   6.878   5.729   8.705  0.4926  0.5365  0.3254
33853SOL    HW211874   6.745   5.701   8.639  0.9074 -2.2406  0.5276
33854SOL     OW11875   2.294   5.077   6.335 -0.3010  0.0797 -0.2660
33854SOL    HW111876   2.256   4.998   6.298 -0.6023  0.0717  0.0652
33854SOL    HW211877   2.281   5.144   6.267  0.7191 -0.3484 -0.9081
33855SOL     OW11878   1.057  11.864   4.694  0.3860  0.0685 -0.1080
33855SOL    HW111879   0.973  11.872   4.648 -0.2249 -0.7595  0.8282
33855SOL    HW211880   1.066  11.948   4.740 -0.6513 -0.3617  0.9321
33856SOL     OW11881  11.709   6.664   9.890 -0.2610  0.0387 -0.6687
33856SOL    HW111882  11.779   6.601   9.912 -2.2718 -1.6511  1.4755
33856SOL    HW211883  11.629   6.611   9.891 -1.7721  2.1978 -1.4454
33857SOL     OW11884   2.859   4.493  12.808 -0.3330  0.2821 -0.0703
33857SOL    HW111885   2.947   4.511  12.775 -0.8096  2.8507 -0.1531
33857SOL    HW211886   2.872   4.427  12.876  1.3875 -0.8158 -1.3946
33858SOL     OW11887   2.833   9.209  10.031 -0.2829  0.7758 -0.3613
33858SOL    HW111888   2.777   9.255  10.094 -1.3032  0.0781 -0.7358
33858SOL    HW211889   2.778   9.139   9.996  0.1117  1.4206 -2.3850
33859SOL     OW11890   3.000   3.716   3.961  0.5095 -0.6608 -0.0354
33859SOL    HW111891   3.042   3.744   4.042  1.6802  0.1298 -0.8705
33859SOL    HW211892   2.907   3.712   3.982  0.5669  1.3754  0.8659
33860SOL     OW11893  12.271  11.963   4.828 -0.2475  0.1495 -0.3892
33860SOL    HW111894  12.354  12.003   4.853 -1.6903  2.5983  0.8205
33860SOL    HW211895  12.225  11.951   4.911 -1.6972  0.2502 -1.1637
33861SOL     OW11896   9.805   2.551   4.613  0.3292 -0.3204 -0.2674
33861SOL    HW111897   9.778   2.564   4.704  0.9825  0.1868 -0.1439
33861SOL    HW211898   9.724   2.557   4.563 -0.2726 -2.0426  0.4031
33862SOL     OW11899   9.239   9.713  10.950 -0.3217 -0.5633 -0.2225
33862SOL    HW111900   9.180   9.656  10.999 -2.0010  0.6502 -0.7505
33862SOL    HW211901   9.273   9.657  10.880  0.8364 -1.8596  1.2899
33863SOL     OW11902   4.137   2.132   7.829  0.2102 -0.0381  0.2595
33863SOL    HW111903   4.143   2.036   7.825 -0.6199 -0.0612 -0.8662
33863SOL    HW211904   4.183   2.155   7.909 -0.0722 -1.4224  0.8504
33864SOL     OW11905  10.493   4.987   6.608 -0.1595  0.1891  0.1739
33864SOL    HW111906  10.582   4.953   6.619 -0.5656 -0.3922  2.0705
33864SOL    HW211907  10.476   5.034   6.690 -1.0499  1.6216 -0.8036
33865SOL     OW11908   0.338  10.381   7.896  0.1102  0.5771  0.6755
33865SOL    HW111909   0.412  10.415   7.847  1.0870 -0.9914  0.9948
33865SOL    HW211910   0.276  10.351   7.829 -1.0772  3.3803  0.3594
33866SOL     OW11911   2.253  10.724   2.020  0.6225 -0.2521 -0.6200
33866SOL    HW111912   2.291  10.640   1.996 -1.9472 -1.6296 -0.1904
33866SOL    HW211913   2.329  10.780   2.038  2.4297 -2.7160 -0.0183
33867SOL     OW11914  11.956   2.796  11.938  0.1476 -0.0417  0.4524
33867SOL    HW111915  11.922   2.719  11.984  0.6383 -0.6481 -0.1759
33867SOL    HW211916  11.971   2.766  11.848  0.3385  0.7897  0.1938
33868SOL     OW11917   2.212  10.413   9.914  0.1455 -0.0627 -0.2768
33868SOL    HW111918   2.160  10.434   9.836  0.2280  2.0548  0.1693
33868SOL    HW211919   2.292  10.465   9.904 -0.1731  0.8617  1.5447
33869SOL     OW11920  10.143   9.117   3.306  0.3988 -0.3331 -0.0079
33869SOL    HW111921  10.183   9.193   3.350 -0.8839  0.1921  0.2860
33869SOL    HW211922  10.063   9.152   3.267  1.0066 -0.9966 -1.9801
33870SOL     OW11923   5.367   5.981   2.493 -0.1574 -0.2686 -0.3447
33870SOL    HW111924   5.423   6.005   2.566 -0.2255 -0.3258 -0.2733
33870SOL    HW211925   5.422   5.993   2.415 -0.9157  2.4385 -0.5392
33871SOL     OW11926   2.461   4.610   1.056  0.0620  0.0377  0.8060
33871SOL    HW111927   2.543   4.657   1.046 -0.9513  1.3821 -2.7949
33871SOL    HW211928   2.483   4.518   1.039  0.8695  0.2982  0.4177
33872SOL     OW11929   3.534   3.576  10.124  0.1264  0.4248  0.2716
33872SOL    HW111930   3.619   3.594  10.164 -0.2771 -0.0037  1.3588
33872SOL    HW211931   3.478   3.550  10.197 -0.5245 -0.7962 -0.6311
33873SOL     OW11932  12.404   7.601   0.238 -0.3653  0.3056  0.6171
33873SOL    HW111933  12.348   7.669   0.276  0.5147  0.2337  2.1356
33873SOL    HW211934  12.390   7.525   0.294 -1.2425 -0.7820 -0.9915
33874SOL     OW11935   5.761   7.952   8.273 -0.3070  0.7206 -0.3291
33874SOL    HW111936   5.725   7.869   8.241 -0.8108  0.7229  0.2082
33874SOL    HW211937   5.734   8.016   8.208  0.3120  0.4311 -0.8879
33875SOL     OW11938  11.041   1.662   3.240  0.3568 -0.2898  0.0219
33875SOL    HW111939  11.058   1.718   3.315  0.3868  0.6651 -0.6732
33875SOL    HW211940  10.946   1.660   3.231  0.3589 -0.2678 -0.0043
33876SOL     OW11941   3.569   4.912  11.560  0.5583 -0.4918 -0.3490
33876SOL    HW111942   3.662   4.902  11.537  0.8453 -0.5135  0.7702
33876SOL    HW211943   3.569   4.929  11.654 -0.5765 -0.4427 -0.3430
33877SOL     OW11944   0.073  10.059   1.193  0.8254 -0.2860 -0.2871
33877SOL    HW111945   0.018  10.053   1.271  2.4817  0.7586  1.0670
33877SOL    HW211946   0.060  10.148   1.161 -0.7697 -1.0844 -1.9928
33878SOL     OW11947   4.271   3.678   8.178  0.1205 -0.3167 -0.4179
33878SOL    HW111948   4.204   3.709   8.239 -0.5511 -1.0589 -0.7694
33878SOL    HW211949   4.350   3.673   8.230  0.2670  1.9431 -0.3209
33879SOL     OW11950  12.327  12.225  11.978  0.2004 -0.1082  0.5573
33879SOL    HW111951  12.371  12.228  12.063 -1.6221  1.7252  1.5185
33879SOL    HW211952  12.319  12.316  11.951  0.1484 -0.6131 -1.2925
33880SOL     OW11953   7.522   1.392   7.449  0.2112 -0.3443 -0.2382
33880SOL    HW111954   7.607   1.360   7.420  0.8108 -1.7497  2.6896
33880SOL    HW211955   7.542   1.450   7.522 -1.3022  0.3135 -0.3061
33881SOL     OW11956  10.026  10.478   7.306 -0.1686 -0.0463  0.4099
33881SOL    HW111957  10.001  10.406   7.248  0.6340 -0.7009  0.8637
33881SOL    HW211958  10.099  10.520   7.261  0.2340 -0.3472  0.7762
33882SOL     OW11959   5.113   2.032   9.908  0.5738  0.3575  0.6241
33882SOL    HW111960   5.062   1.954   9.932 -0.5279  1.2127  1.2133
33882SOL    HW211961   5.088   2.050   9.818  0.4207  0.3236  0.6587
33883SOL     OW11962   3.801   6.639   7.274 -0.2271  0.2647 -0.5311
33883SOL    HW111963   3.847   6.699   7.215 -0.2269  0.6866 -0.1055
33883SOL    HW211964   3.714   6.630   7.234 -0.6435  1.5019  0.0187
33884SOL     OW11965  10.718   9.486   6.445 -0.7397 -0.2979  0.2788
33884SOL    HW111966  10.672   9.510   6.365  0.4287 -1.3877 -0.7445
33884SOL    HW211967  10.811   9.498   6.425 -0.4494  0.1603  1.7363
33885SOL     OW11968  12.358  12.531   0.922  0.0264 -0.0896  0.2471
33885SOL    HW111969  12.409  12.509   0.844 -0.3231 -0.9050  0.2421
33885SOL    HW211970  12.418  12.583   0.976 -0.3851  2.3731 -1.4997
33886SOL     OW11971   4.001   1.712  10.483 -0.2964  0.1785  0.3922
33886SOL    HW111972   3.913   1.700  10.520 -1.0276  0.4410 -1.1755
33886SOL    HW211973   4.021   1.627  10.443 -0.7709  0.7464 -1.1100
33887SOL     OW11974   0.631   9.723  11.636  0.6065  0.2469  0.6047
33887SOL    HW111975   0.607   9.630  11.634 -0.0936  0.3567 -2.9141
33887SOL    HW211976   0.635   9.749  11.544  6.0820  2.4292  1.0730
33888SOL     OW11977   2.775   0.218  11.071  0.4919 -0.8451 -0.1690
33888SOL    HW111978   2.828   0.164  11.130 -1.4617 -2.7485 -0.0259
33888SOL    HW211979   2.760   0.162  10.994  1.7014  1.0308 -1.8600
33889SOL     OW11980   9.565   1.326   5.468 -0.0511 -0.1014 -0.4244
33889SOL    HW111981   9.483   1.310   5.422  0.1907  0.9067 -1.2562
33889SOL    HW211982   9.539   1.355   5.555 -0.6258  0.9401 -0.9204
33890SOL     OW11983   6.109   3.696   3.957  0.0492 -0.3272 -0.3195
33890SOL    HW111984   6.061   3.694   4.039 -0.0030 -0.3850 -0.3512
33890SOL    HW211985   6.073   3.624   3.906  0.6406 -0.7948 -0.0815
33891SOL     OW11986   6.230   6.792   4.735 -0.1846  0.1451 -0.0596
33891SOL    HW111987   6.206   6.880   4.766 -0.7396 -0.5184  1.5199
33891SOL    HW211988   6.312   6.773   4.779 -0.0551 -0.1286 -0.4183
33892SOL     OW11989   6.155   8.404   9.003  0.9022 -0.3615  0.3981
33892SOL    HW111990   6.173   8.317   9.039  1.0696 -0.1619  0.8057
33892SOL    HW211991   6.066   8.397   8.967  1.2591 -0.9540 -0.3915
33893SOL     OW11992  11.715   8.422   4.107 -0.3867  0.2461  0.2243
33893SOL    HW111993  11.762   8.420   4.191 -1.1383  0.3193  0.6582
33893SOL    HW211994  11.715   8.514   4.082  3.2078 -0.1166 -1.8481
33894SOL     OW11995  11.030   9.667   2.705 -0.1690  0.6751 -0.3286
33894SOL    HW111996  11.075   9.672   2.621  0.3409  0.5349 -0.0714
33894SOL    HW211997  10.999   9.577   2.710 -0.1469  0.6670 -0.3418
33895SOL     OW11998   2.364  10.336   1.261 -0.0109  0.2008 -0.2294
33895SOL    HW111999   2.409  10.417   1.236  0.2131  0.3035  0.4935
33895SOL    HW212000   2.433  10.271   1.271  0.6074  1.2266  4.5855
33896SOL     OW12001   5.607   0.498   6.949  0.0972 -0.4826 -0.4906
33896SOL    HW112002   5.512   0.488   6.955 -0.1539  0.9232 -1.5427
33896SOL    HW212003   5.619   0.570   6.887  1.7905  0.6208  1.0237
33897SOL     OW12004   0.914   9.416   9.005 -0.2519 -0.1973  0.0766
33897SOL    HW112005   0.880   9.498   9.038  1.6054  0.2365  1.0355
33897SOL    HW212006   0.896   9.352   9.074 -1.9531 -0.7150 -0.7872
33898SOL     OW12007  12.868   0.645   3.739 -0.1074  0.3063 -0.6539
33898SOL    HW112008  12.803   0.575   3.728 -0.7437  0.8711 -0.5865
33898SOL    HW212009  12.949   0.599   3.761 -1.1071 -0.3166  2.1488
33899SOL     OW12010   3.533   9.572   9.880  0.1262 -0.4373 -0.4593
33899SOL    HW112011   3.571   9.654   9.913  1.3350 -0.0419 -2.6462
33899SOL    HW212012   3.449   9.599   9.841 -1.6245 -1.0037  2.6100
33900SOL     OW12013   0.365   7.517   7.688 -0.1481  0.0465  0.2899
33900SOL    HW112014   0.315   7.598   7.686 -0.2160  0.0045  0.3079
33900SOL    HW212015   0.381   7.500   7.780 -0.9590 -0.4693  0.3459
33901SOL     OW12016   7.829   2.897   5.855  1.1168 -0.3494 -0.0220
33901SOL    HW112017   7.827   2.924   5.947  0.4609 -0.8164  0.1124
33901SOL    HW212018   7.906   2.940   5.818  0.8133  0.6617  0.4924
33902SOL     OW12019  12.977   3.091   6.815  0.4069  0.3987 -0.3138
33902SOL    HW112020  13.069   3.064   6.812  0.1899 -0.3602 -0.1979
33902SOL    HW212021  12.931   3.028   6.761 -0.1788  0.2112  0.3892
33903SOL     OW12022  12.546  11.706   1.931  0.6655 -0.0976  0.1711
33903SOL    HW112023  12.574  11.781   1.984  2.4513  0.3014 -1.2322
33903SOL    HW212024  12.465  11.735   1.890  1.6554  1.3998 -0.8579
33904SOL     OW12025   3.710   7.904   9.911 -0.6029 -0.0530  0.2651
33904SOL    HW112026   3.743   7.854   9.985  0.7602 -0.2343 -0.4292
33904SOL    HW212027   3.778   7.968   9.893 -1.1368  0.3117 -0.5321
33905SOL     OW12028   1.290   5.132   5.125 -0.0441  0.0091 -0.0716
33905SOL    HW112029   1.200   5.142   5.095 -0.1244 -0.3457  0.0500
33905SOL    HW212030   1.324   5.056   5.077 -0.0411 -0.3019  0.4168
33906SOL     OW12031  12.083   4.696   8.259  0.3080 -0.4564 -0.2548
33906SOL    HW112032  11.997   4.666   8.231  0.3604  0.0294 -0.9450
33906SOL    HW212033  12.086   4.789   8.235 -0.6114  0.7494  3.5461
33907SOL     OW12034   3.580   7.387  11.106 -0.5729 -0.2510 -0.2376
33907SOL    HW112035   3.624   7.390  11.021 -1.1749 -0.2368 -0.5537
33907SOL    HW212036   3.516   7.316  11.098 -0.9115  0.0178  0.0628
33908SOL     OW12037   1.952   1.018   5.098  0.2032  0.1181  0.0929
33908SOL    HW112038   1.885   0.986   5.158  1.3606  1.0281  1.9685
33908SOL    HW212039   1.944   1.114   5.102  0.0871  0.2071 -1.5158
33909SOL     OW12040  10.658  12.880   9.652 -0.1422 -0.4570  0.0995
33909SOL    HW112041  10.665  12.974   9.667 -0.1025 -0.4236 -0.1333
33909SOL    HW212042  10.587  12.852   9.711 -0.7619 -0.1318 -0.4764
33910SOL     OW12043  10.131   5.986   6.047  0.4647 -0.2473  0.1084
33910SOL    HW112044  10.195   6.056   6.059 -0.4740  0.4374  1.3951
33910SOL    HW212045  10.046   6.030   6.053 -0.1915 -0.9490 -2.6453
33911SOL     OW12046   6.118  11.183  10.955 -0.0535  0.4157 -0.2461
33911SOL    HW112047   6.043  11.194  10.897 -0.6000  0.7707  0.5049
33911SOL    HW212048   6.079  11.161  11.040  0.6202  1.8791  0.4759
33912SOL     OW12049  11.228   7.829   0.214 -0.2183  0.3732  0.1276
33912SOL    HW112050  11.192   7.771   0.281 -0.3688 -0.2219 -0.4650
33912SOL    HW212051  11.323   7.824   0.227 -0.1930 -0.5717 -0.3864
33913SOL     OW12052   0.527  12.023   8.485 -0.3854  0.0926  0.2689
33913SOL    HW112053   0.536  12.026   8.581  0.2644  0.0039  0.2176
33913SOL    HW212054   0.434  12.041   8.469 -0.4979  0.1214  0.9158
33914SOL     OW12055  10.854  12.325  10.883  0.5776 -0.2257 -0.1802
33914SOL    HW112056  10.854  12.411  10.924 -1.1454 -0.2221 -0.1168
33914SOL    HW212057  10.947  12.303  10.873  1.0643  0.5242  2.0882
33915SOL     OW12058   6.533   4.019   2.287  0.2648 -0.4031 -0.3726
33915SOL    HW112059   6.467   4.084   2.265  0.3446  0.1420  0.8771
33915SOL    HW212060   6.488   3.935   2.276  0.0675 -0.1408 -1.6972
33916SOL     OW12061   9.773   7.374   6.225 -0.2294  0.0901  0.1738
33916SOL    HW112062   9.706   7.387   6.158  1.3838  1.0085 -1.3554
33916SOL    HW212063   9.827   7.303   6.192 -0.6376 -0.9112  1.5780
33917SOL     OW12064   7.277   9.520   9.424  0.1053 -0.0994 -1.1918
33917SOL    HW112065   7.254   9.602   9.467  2.5767 -0.2631  0.6131
33917SOL    HW212066   7.207   9.459   9.448  0.4657  0.3297  1.1436
33918SOL     OW12067   7.589   4.077   4.252 -0.1089  0.4147  0.1272
33918SOL    HW112068   7.592   4.157   4.201  3.1976  0.0733 -0.4045
33918SOL    HW212069   7.584   4.007   4.187 -2.0554  0.0874  0.5606
33919SOL     OW12070   2.613   8.798   5.627 -0.5264 -0.2924 -0.0234
33919SOL    HW112071   2.694   8.850   5.631  1.2589 -2.8211 -0.4102
33919SOL    HW212072   2.552   8.851   5.577  0.7696  1.8648  0.5516
33920SOL     OW12073  12.797   3.283  10.063  0.7313 -0.5600  0.4791
33920SOL    HW112074  12.728   3.343  10.034 -0.7729 -2.7314 -0.7056
33920SOL    HW212075  12.830   3.244   9.983  3.0048 -0.0177  1.0860
33921SOL     OW12076   6.813   2.186   1.418  0.0197  0.0152 -0.4518
33921SOL    HW112077   6.818   2.119   1.350 -1.0335  0.7306 -1.2538
33921SOL    HW212078   6.777   2.140   1.494  0.1121 -0.5252 -0.7323
33922SOL     OW12079   7.949   2.110   6.483 -0.0913 -0.1760  0.6665
33922SOL    HW112080   8.040   2.137   6.487  0.2378 -0.7497 -1.5462
33922SOL    HW212081   7.913   2.158   6.408 -1.5226 -0.2014  1.2979
33923SOL     OW12082  12.060   2.446   2.402  0.0550 -0.5320  0.7299
33923SOL    HW112083  11.971   2.473   2.422  0.4132  0.2435  1.3004
33923SOL    HW212084  12.102   2.435   2.487  0.4600 -1.0715  0.4681
33924SOL     OW12085  12.400   2.948   6.452  0.1985 -0.7612 -0.0625
33924SOL    HW112086  12.347   3.022   6.482  0.8578  0.0045 -0.7418
33924SOL    HW212087  12.384   2.880   6.516  0.4474  0.3511  1.2401
33925SOL     OW12088  11.309   6.786   4.913  0.4005  0.2039 -0.1486
33925SOL    HW112089  11.355   6.705   4.937 -0.5471 -0.4965 -0.6453
33925SOL    HW212090  11.252   6.803   4.988  1.9407  1.4929  0.8124
33926SOL     OW12091   5.831  12.949  11.637 -0.2504 -0.1679  0.1685
33926SOL    HW112092   5.853  13.022  11.579  3.2076 -1.1666  0.0236
33926SOL    HW212093   5.769  12.896  11.586  0.0672  0.7525 -1.2388
33927SOL     OW12094   4.199   5.837   9.795 -0.1607  0.7712  0.6355
33927SOL    HW112095   4.111   5.805   9.813 -0.0433  1.2382  2.2304
33927SOL    HW212096   4.256   5.764   9.814 -0.1710  0.5172 -0.2500
33928SOL     OW12097   8.790   1.601   2.449  0.2373  0.2158 -0.1000
33928SOL    HW112098   8.802   1.632   2.539 -0.6799 -0.3348  0.2265
33928SOL    HW212099   8.839   1.664   2.395 -1.2290  2.0427  0.5786
33929SOL     OW12100   5.528   7.056  11.098 -0.6321 -0.2190  0.5871
33929SOL    HW112101   5.572   7.106  11.167  1.1601  0.6816 -1.0634
33929SOL    HW212102   5.582   6.978  11.087 -0.7814 -0.2620  0.1224
33930SOL     OW12103  11.564   6.408   5.229 -0.3541 -0.2987  0.5269
33930SOL    HW112104  11.527   6.326   5.198  1.7672 -1.3223  0.5576
33930SOL    HW212105  11.653   6.386   5.258 -0.6208  1.4611  3.1177
33931SOL     OW12106  12.695   6.093   7.786  0.6284  0.2462 -0.5149
33931SOL    HW112107  12.729   6.140   7.710  1.8965 -1.2024 -0.9050
33931SOL    HW212108  12.758   6.110   7.856  0.3689  0.2244 -0.2713
33932SOL     OW12109   0.232   8.096   4.588 -0.0338 -0.6051  0.7195
33932SOL    HW112110   0.302   8.156   4.563 -0.9040  0.4965  0.8211
33932SOL    HW212111   0.199   8.131   4.671 -2.0638  0.1765 -0.3444
33933SOL     OW12112   9.135   3.672   1.609  0.0312  0.0062 -0.4121
33933SOL    HW112113   9.179   3.756   1.598  1.1063 -0.4350  0.4195
33933SOL    HW212114   9.085   3.682   1.690 -1.3156  0.4486 -1.2646
33934SOL     OW12115  11.506   2.572   6.067 -0.8395  0.2744  0.0976
33934SOL    HW112116  11.483   2.606   5.980  0.5492  1.3566  0.1190
33934SOL    HW212117  11.431   2.593   6.121 -2.9542 -2.8145 -1.3432
33935SOL     OW12118   3.806   3.225   3.916  0.6926 -0.0842  0.1847
33935SOL    HW112119   3.807   3.248   4.010  2.9180  2.7750 -0.3783
33935SOL    HW212120   3.890   3.182   3.902  0.4000 -0.4225 -0.5308
33936SOL     OW12121   9.067   9.648   6.508 -0.5053 -0.0385  0.0792
33936SOL    HW112122   9.116   9.703   6.446  0.0675 -1.0350 -0.3675
33936SOL    HW212123   9.069   9.560   6.470 -1.5785 -0.3483  0.6895
33937SOL     OW12124   0.743  12.230  12.450 -0.6127  0.4917  0.2431
33937SOL    HW112125   0.760  12.214  12.543 -1.0733  0.1113  0.2646
33937SOL    HW212126   0.745  12.326  12.442  2.9242  0.5225 -0.0422
33938SOL     OW12127  12.501   7.202   5.141  0.2436  0.2377  0.4341
33938SOL    HW112128  12.468   7.143   5.073  0.1984  0.2518  0.4436
33938SOL    HW212129  12.474   7.161   5.223 -1.2656  1.1307  0.4138
33939SOL     OW12130   0.278   7.900   6.215  0.5838 -0.5167 -0.5274
33939SOL    HW112131   0.275   7.897   6.311  0.6624  0.1777 -0.4943
33939SOL    HW212132   0.287   7.809   6.188  0.5778 -0.7173  0.1268
33940SOL     OW12133   9.297  12.333  10.290  0.2668  0.3422 -0.1713
33940SOL    HW112134   9.329  12.417  10.325 -0.2495  0.0845  0.9670
33940SOL    HW212135   9.376  12.287  10.263  0.6014  0.9659 -0.2861
33941SOL     OW12136  10.113   9.059   2.380 -0.1442 -0.1327  0.3607
33941SOL    HW112137  10.054   9.072   2.305  0.9054  1.0486 -0.2996
33941SOL    HW212138  10.055   9.034   2.452 -1.1737 -1.4500 -0.8546
33942SOL     OW12139   1.494   5.706   4.908 -0.1455 -0.3909  0.5395
33942SOL    HW112140   1.435   5.735   4.839  0.9631 -0.4516 -0.4863
33942SOL    HW212141   1.463   5.750   4.987 -1.5606 -0.4626  0.0508
33943SOL     OW12142   9.452   6.342   1.634 -0.3197 -0.7377 -0.1269
33943SOL    HW112143   9.432   6.310   1.546  0.8715  0.4271 -0.8688
33943SOL    HW212144   9.489   6.266   1.680 -2.7434 -1.8857  0.0582
33944SOL     OW12145   5.389   9.181   9.485 -0.3331 -0.3552 -0.1650
33944SOL    HW112146   5.449   9.217   9.550 -0.8893  1.0122 -0.3683
33944SOL    HW212147   5.304   9.179   9.530 -0.2924 -1.6546 -0.0942
33945SOL     OW12148  10.549   3.715   3.784 -0.4912  0.0263 -0.2158
33945SOL    HW112149  10.644   3.707   3.798 -0.2166 -1.2628 -2.3046
33945SOL    HW212150  10.535   3.678   3.697 -2.6666  1.9532 -0.7954
33946SOL     OW12151  11.793   7.858   0.566 -0.3327  0.2203  0.2275
33946SOL    HW112152  11.875   7.809   0.562 -1.1036 -1.5174  2.8711
33946SOL    HW212153  11.735   7.811   0.506  1.0559  2.7820 -3.4316
33947SOL     OW12154   5.169  11.758   8.565 -0.3885 -0.1387  0.3459
33947SOL    HW112155   5.075  11.775   8.554 -0.1943  1.9622  1.3814
33947SOL    HW212156   5.179  11.735   8.657  0.2253  0.7396  0.5119
33948SOL     OW12157   9.381   7.480   6.317  0.5046 -0.1499  0.3350
33948SOL    HW112158   9.315   7.412   6.322  0.0644  0.2205 -0.3336
33948SOL    HW212159   9.420   7.471   6.230  1.0508 -0.1008  0.5667
33949SOL     OW12160   8.478   2.181   2.003  0.7286  0.7097 -0.0366
33949SOL    HW112161   8.523   2.265   2.001  1.7793  0.1739  0.3775
33949SOL    HW212162   8.537   2.123   2.052 -0.4994  0.0346  0.6908
33950SOL     OW12163  12.812   4.780   2.486 -0.7009  0.1490  0.1748
33950SOL    HW112164  12.827   4.754   2.395  1.2247 -2.2612  1.0583
33950SOL    HW212165  12.807   4.697   2.534 -1.0785  1.3561  2.3577
33951SOL     OW12166   1.038   0.160   4.688  0.3568  0.1918 -0.1832
33951SOL    HW112167   1.057   0.143   4.780 -0.0088 -0.1980 -0.1779
33951SOL    HW212168   0.969   0.097   4.665 -0.1918  0.8743 -0.4730
33952SOL     OW12169   1.706   3.854   9.014 -0.3857  0.3413  0.1898
33952SOL    HW112170   1.755   3.907   9.076 -1.3625  1.3697  0.1191
33952SOL    HW212171   1.671   3.916   8.951  0.5592 -0.6786 -1.4072
33953SOL     OW12172   5.235  10.515  11.084 -0.0609  0.0536  0.3143
33953SOL    HW112173   5.292  10.561  11.146 -0.7483 -0.0207  1.0177
33953SOL    HW212174   5.147  10.546  11.106 -0.4360 -0.8887  0.1798
33954SOL     OW12175   3.601  10.309   4.436 -0.3671 -0.0497  0.5641
33954SOL    HW112176   3.569  10.229   4.394  0.5485 -0.4548  0.6094
33954SOL    HW212177   3.522  10.359   4.456 -0.8460  0.2126 -1.7303
33955SOL     OW12178   1.035   8.108   5.283 -0.5477  0.1707  0.3349
33955SOL    HW112179   1.072   8.030   5.243 -1.1951  0.2967 -0.5274
33955SOL    HW212180   1.077   8.113   5.369  0.4243 -0.4233 -0.0924
33956SOL     OW12181  12.496   9.250   9.472 -0.0998 -0.0121 -0.0608
33956SOL    HW112182  12.461   9.253   9.383 -0.1756 -0.1873 -0.0367
33956SOL    HW212183  12.520   9.158   9.485  0.4456  0.1193 -0.1051
33957SOL     OW12184  10.818   2.966   5.867  0.6573  0.1592  0.6925
33957SOL    HW112185  10.802   2.970   5.773  0.9681  1.1772  0.6673
33957SOL    HW212186  10.914   2.961   5.875  0.6609  0.5558  0.9567
33958SOL     OW12187   9.052   9.214  12.499 -0.3153 -0.4383 -0.1106
33958SOL    HW112188   9.033   9.300  12.536 -1.6662 -0.9225  0.4170
33958SOL    HW212189   9.042   9.154  12.573  0.2380 -1.0934 -0.5541
33959SOL     OW12190  11.560   4.315  10.967  0.5319  0.0866  0.1415
33959SOL    HW112191  11.589   4.300  10.878 -0.3203  0.0613 -0.1438
33959SOL    HW212192  11.635   4.292  11.022  1.9865  2.6604 -0.6662
33960SOL     OW12193   2.932   0.899   9.006 -0.4014 -0.3262  0.3691
33960SOL    HW112194   2.949   0.807   8.988 -0.4107 -0.3258  0.3576
33960SOL    HW212195   2.991   0.946   8.946 -1.3450 -0.3159 -0.5675
33961SOL     OW12196   4.207   0.046   7.250  0.8487  0.1379  0.9409
33961SOL    HW112197   4.264  -0.031   7.243 -0.8492 -1.0649 -0.9322
33961SOL    HW212198   4.119   0.009   7.254 -0.1798  1.9514 -2.1631
33962SOL     OW12199  11.695   5.542   0.282 -0.1543 -0.1752  0.0602
33962SOL    HW112200  11.672   5.629   0.316 -0.9963 -0.8377  1.2449
33962SOL    HW212201  11.616   5.491   0.292  0.4968 -1.2444 -0.1185
33963SOL     OW12202   1.639  10.115   8.682 -0.0329  0.2260 -0.6598
33963SOL    HW112203   1.557  10.074   8.654 -0.0011 -0.3646  0.0603
33963SOL    HW212204   1.626  10.133   8.775  1.8628 -3.1751  0.4672
33964SOL     OW12205   6.194   6.561   4.220 -0.5474  0.4051  0.5718
33964SOL    HW112206   6.196   6.582   4.313  0.3078  0.8028  0.4806
33964SOL    HW212207   6.102   6.547   4.199 -0.7799  0.7010  1.3903
33965SOL     OW12208   3.932   7.484   0.473  0.1268  0.0796 -0.2996
33965SOL    HW112209   3.868   7.528   0.530 -0.3426 -0.5057 -0.3698
33965SOL    HW212210   3.994   7.444   0.534 -0.7740 -1.1482 -0.1647
33966SOL     OW12211   2.171   3.885   7.074 -0.1178 -0.4224 -0.4365
33966SOL    HW112212   2.154   3.913   7.164 -1.5950  2.1540 -1.4308
33966SOL    HW212213   2.131   3.798   7.068  0.2988 -0.7796  1.4355
33967SOL     OW12214   6.809  12.027  10.418  0.2272  0.3994 -0.6923
33967SOL    HW112215   6.835  11.939  10.393  0.3984 -0.0571  0.9678
33967SOL    HW212216   6.880  12.083  10.388  1.4402 -0.3858  0.5642
33968SOL     OW12217   5.852   1.290  12.838 -0.5004 -0.1438  0.0327
33968SOL    HW112218   5.790   1.227  12.801 -0.2235 -1.4837  1.6877
33968SOL    HW212219   5.868   1.257  12.927  0.9495  1.3687  0.3739
33969SOL     OW12220   2.985   0.594   1.228  0.1177 -0.2894 -0.0439
33969SOL    HW112221   2.959   0.536   1.299 -2.4860  0.9998  0.1880
33969SOL    HW212222   3.014   0.536   1.158 -1.0536 -1.7814  0.6690
33970SOL     OW12223  11.202   3.581   1.403  0.2605  0.1168  0.1635
33970SOL    HW112224  11.156   3.583   1.319 -0.5912  2.0148  0.6249
33970SOL    HW212225  11.290   3.549   1.382  0.8299  2.7251 -1.8868
33971SOL     OW12226   7.030   7.480   7.847 -0.2294 -0.6183  0.6623
33971SOL    HW112227   7.101   7.434   7.802  0.7518 -0.9083  2.4320
33971SOL    HW212228   7.017   7.560   7.797  1.3248 -0.5814  0.2862
33972SOL     OW12229   0.795   9.760   0.190  0.5400  0.1840  0.1995
33972SOL    HW112230   0.890   9.771   0.181  0.2725  1.1845 -2.0297
33972SOL    HW212231   0.768   9.717   0.109 -0.8913 -0.3920  0.9372
33973SOL     OW12232   8.968   7.373   4.159 -0.9346  0.4279  0.1025
33973SOL    HW112233   8.998   7.357   4.069 -1.5647  1.0035 -0.2210
33973SOL    HW212234   9.015   7.309   4.212  0.0806  0.6399 -0.5206
33974SOL     OW12235   2.860   8.941   5.689  0.1227  0.1795  0.2561
33974SOL    HW112236   2.908   8.988   5.621  1.2287 -0.3607  0.6472
33974SOL    HW212237   2.904   8.857   5.695 -1.6448 -0.8281 -0.2316
33975SOL     OW12238   4.821   9.546   3.811  0.0931  0.1431 -0.8667
33975SOL    HW112239   4.883   9.602   3.858 -1.1312  0.1078  0.8743
33975SOL    HW212240   4.749   9.605   3.788  0.8326  0.2664 -3.2003
33976SOL     OW12241   4.594   7.540   6.130  0.3607 -0.0845 -0.0339
33976SOL    HW112242   4.660   7.587   6.182 -0.4492  0.1467  0.8079
33976SOL    HW212243   4.600   7.449   6.161  1.5785 -0.4886 -1.3094
33977SOL     OW12244  12.726   0.239   1.533 -0.3375  0.5415  0.4499
33977SOL    HW112245  12.713   0.260   1.625 -0.2121  0.8553  0.3987
33977SOL    HW212246  12.676   0.158   1.519  1.6330 -0.9078  1.3859
33978SOL     OW12247   2.544   4.735   4.340  0.3918 -0.0125  0.0642
33978SOL    HW112248   2.492   4.675   4.395  0.0491  0.2351  0.0157
33978SOL    HW212249   2.591   4.790   4.403  1.8948 -1.2995  0.1396
33979SOL     OW12250   6.657  12.775   3.951  0.1166 -0.2692 -0.1004
33979SOL    HW112251   6.595  12.836   3.991  0.2139  1.2559 -2.1453
33979SOL    HW212252   6.603  12.715   3.900  0.1352 -0.9907  0.6993
33980SOL     OW12253   4.308   5.534   8.608  0.5015  0.3489 -0.0410
33980SOL    HW112254   4.389   5.580   8.627 -0.7457  2.1396  1.2676
33980SOL    HW212255   4.276   5.506   8.694  0.3808 -1.5883 -0.6601
33981SOL     OW12256   6.518   7.976   4.519 -0.0352  0.0170 -0.2441
33981SOL    HW112257   6.531   7.888   4.554 -1.3322  0.0451  0.3599
33981SOL    HW212258   6.563   8.034   4.581 -0.2548 -0.1282  0.0542
33982SOL     OW12259   1.307  10.096  10.116 -0.1166  0.6783 -0.0411
33982SOL    HW112260   1.230  10.118  10.065  0.2478 -0.2645 -1.0381
33982SOL    HW212261   1.272  10.069  10.201 -0.9760 -0.6009 -0.7696
33983SOL     OW12262   6.455  10.025   3.743  0.0760  0.4699 -0.0977
33983SOL    HW112263   6.360  10.012   3.753  0.0226  0.0952 -1.0150
33983SOL    HW212264   6.462  10.102   3.686  0.3653  2.2382  2.2048
33984SOL     OW12265  10.726   2.051   2.482 -0.2711  0.2223 -0.3307
33984SOL    HW112266  10.675   2.001   2.419  0.2089  0.3542 -0.8338
33984SOL    HW212267  10.661   2.096   2.536 -0.6879 -0.2651 -0.4256
33985SOL     OW12268   8.592   3.116   6.492 -0.2837  0.5413 -0.1057
33985SOL    HW112269   8.598   3.028   6.529  0.3192 -0.3838 -2.2614
33985SOL    HW212270   8.641   3.171   6.553  0.7652 -0.9173  0.4240
33986SOL     OW12271   3.364   8.638  10.511 -0.0124  0.1384  0.0531
33986SOL    HW112272   3.340   8.717  10.558 -0.6875 -0.0956  0.1024
33986SOL    HW212273   3.359   8.662  10.418  1.1710  0.5542  0.0714
33987SOL     OW12274   2.173   1.742   4.321  0.1117  0.4731 -0.1185
33987SOL    HW112275   2.206   1.832   4.323  0.3159  0.3912  0.7168
33987SOL    HW212276   2.095   1.744   4.376  0.4891  0.0115  0.4560
33988SOL     OW12277  11.300   3.623  12.341  0.4838 -0.0106 -0.1711
33988SOL    HW112278  11.346   3.621  12.424 -3.9075  0.4900  2.5930
33988SOL    HW212279  11.272   3.532  12.326 -0.9237  0.3026  0.3805
33989SOL     OW12280   7.798  11.029  10.599 -0.3289  0.8776 -0.3320
33989SOL    HW112281   7.730  11.049  10.535  0.1910 -0.7022 -1.4412
33989SOL    HW212282   7.751  11.016  10.681 -1.2459  0.7868 -0.8661
33990SOL     OW12283  10.039   4.876   8.866  0.0870 -0.3525  0.5564
33990SOL    HW112284  10.003   4.804   8.814 -0.5611  0.1358  0.3011
33990SOL    HW212285  10.004   4.863   8.954 -0.8644  0.1970  0.2772
33991SOL     OW12286   8.339   2.440  12.614  0.4815 -0.0687 -0.2084
33991SOL    HW112287   8.277   2.399  12.674  0.4237  0.6222  0.2112
33991SOL    HW212288   8.286   2.502  12.564  0.4944 -0.7570 -1.1004
33992SOL     OW12289   4.239   1.864   8.646 -0.2347 -0.0007 -0.1523
33992SOL    HW112290   4.312   1.916   8.680  0.2636 -0.5745 -0.3328
33992SOL    HW212291   4.265   1.839   8.558 -0.8013  0.0826 -0.3457
33993SOL     OW12292   3.623  10.118   0.893  0.0971 -0.1243  0.2564
33993SOL    HW112293   3.706  10.139   0.849  0.4224 -2.0029 -0.1324
33993SOL    HW212294   3.570  10.197   0.883  1.4410  0.7363 -0.4555
33994SOL     OW12295   3.448   0.523   5.267  0.0384  0.6261 -0.6807
33994SOL    HW112296   3.481   0.511   5.356  1.2882 -0.2764 -1.2206
33994SOL    HW212297   3.385   0.452   5.255 -0.6113  1.1336 -0.3146
33995SOL     OW12298   3.875  10.410  10.294  0.5609 -0.1732 -0.0211
33995SOL    HW112299   3.805  10.349  10.268  1.0354 -0.9969  0.5539
33995SOL    HW212300   3.956  10.362  10.276  0.9259 -0.1863  1.5328
33996SOL     OW12301   6.628   9.171   8.531 -0.2000  0.4235 -0.1708
33996SOL    HW112302   6.623   9.147   8.624  0.2827 -0.0602 -0.2709
33996SOL    HW212303   6.638   9.266   8.532  2.8517  0.1848  0.3824
33997SOL     OW12304   9.722   6.081   3.191 -0.3609  0.3203 -0.1655
33997SOL    HW112305   9.780   6.005   3.188 -0.5363  0.1919 -0.4077
33997SOL    HW212306   9.739   6.127   3.109 -2.1657 -0.9136 -1.3033
33998SOL     OW12307   2.820  12.385  12.618  0.3025 -0.2390  0.2078
33998SOL    HW112308   2.845  12.338  12.698 -0.0662  0.5628  0.8070
33998SOL    HW212309   2.799  12.316  12.556  0.0498 -0.8801  0.9844
33999SOL     OW12310   8.236   9.791   1.279  0.0312 -0.2388 -0.1564
33999SOL    HW112311   8.300   9.847   1.235 -0.0207  0.3597  0.5273
33999SOL    HW212312   8.236   9.820   1.370  0.6925 -1.9842  0.4343
34000SOL     OW12313   7.362   1.843   7.117  0.7204 -0.7410 -0.2361
34000SOL    HW112314   7.304   1.884   7.181  2.9323 -0.0023  1.4090
34000SOL    HW212315   7.413   1.915   7.081  1.5636 -1.5247 -0.6520
34001SOL     OW12316  12.717   6.082   8.775  0.2052  0.0830 -0.4965
34001SOL    HW112317  12.707   6.177   8.785 -1.7831  0.0088 -1.4021
34001SOL    HW212318  12.805   6.072   8.739  0.7187  1.5243  0.2494
34002SOL     OW12319   8.700  10.550   3.591 -0.1662  0.4115 -0.2538
34002SOL    HW112320   8.608  10.546   3.617  0.5131 -1.8361  2.1893
34002SOL    HW212321   8.721  10.461   3.563  1.4314  0.7503 -0.2107
34003SOL     OW12322   4.083   3.516   3.059  1.1917  0.1321  0.0212
34003SOL    HW112323   4.109   3.477   3.142  1.8571  2.3669  0.9357
34003SOL    HW212324   4.091   3.445   2.995 -0.1340 -1.8656  1.9540
34004SOL     OW12325   5.764   9.670   5.668 -0.2720 -0.2969 -0.0269
34004SOL    HW112326   5.714   9.746   5.698 -0.6020 -0.3504 -0.4221
34004SOL    HW212327   5.808   9.638   5.746  1.0184  1.1430 -0.1163
34005SOL     OW12328   9.290  12.122  11.393 -0.0787 -0.1721 -0.4021
34005SOL    HW112329   9.336  12.202  11.419 -0.0595 -0.3213  0.0240
34005SOL    HW212330   9.197  12.145  11.399 -0.0729  0.1770 -1.4139
34006SOL     OW12331  12.807   1.730   9.058 -0.7122  0.8383 -0.5312
34006SOL    HW112332  12.860   1.703   8.982 -1.5856  2.6616 -1.8594
34006SOL    HW212333  12.793   1.649   9.107  1.0533 -0.1514 -1.5657
34007SOL     OW12334   7.042   5.842   5.390 -0.0985  0.2817  0.2393
34007SOL    HW112335   7.104   5.818   5.321  0.9453 -2.3029  1.9298
34007SOL    HW212336   6.989   5.763   5.404 -0.6589  0.9062  1.9591
34008SOL     OW12337   0.748   8.537   6.710 -0.2515 -0.3770 -0.7434
34008SOL    HW112338   0.722   8.541   6.802 -0.0716 -0.4299 -0.6906
34008SOL    HW212339   0.797   8.456   6.702 -1.9181 -1.3781 -1.3113
34009SOL     OW12340   1.646   1.218   6.775 -0.2670  0.1296  0.1757
34009SOL    HW112341   1.701   1.144   6.750  0.0902  0.3733  0.2299
34009SOL    HW212342   1.681   1.292   6.725  0.8151  0.7480  1.7612
34010SOL     OW12343   5.559   3.076   1.098  0.1298 -0.3670  0.0097
34010SOL    HW112344   5.577   3.085   1.192 -1.0903  0.7550  0.1582
34010SOL    HW212345   5.493   3.008   1.092  0.5414 -0.7649 -0.0894
34011SOL     OW12346   5.850   0.753  11.095  0.0957 -0.4091  0.0097
34011SOL    HW112347   5.842   0.828  11.154  1.6291  0.0436 -0.3163
34011SOL    HW212348   5.820   0.786  11.011  0.3535 -0.2817 -0.0340
34012SOL     OW12349   5.721   7.570   6.487 -0.4580 -0.5936  0.2378
34012SOL    HW112350   5.811   7.587   6.459 -0.7441  0.8401  0.1059
34012SOL    HW212351   5.726   7.562   6.582 -0.0063 -1.9291  0.1230
34013SOL     OW12352   5.941   0.407   6.625 -0.0706 -0.1604 -0.0181
34013SOL    HW112353   5.965   0.425   6.534 -1.8673 -0.0803 -0.5020
34013SOL    HW212354   5.956   0.489   6.671  1.0025 -0.2477 -0.1919
34014SOL     OW12355   1.928   0.993   1.958 -0.6449  1.0426 -0.5157
34014SOL    HW112356   1.970   0.928   1.902 -0.8058  0.3137  0.1925
34014SOL    HW212357   1.920   1.071   1.903  0.1049  0.6582 -1.1831
34015SOL     OW12358   3.053   7.228   6.160  0.1796  0.2072 -0.0533
34015SOL    HW112359   2.982   7.257   6.103  0.4748  0.3643 -0.3536
34015SOL    HW212360   3.011   7.207   6.243 -0.5516 -1.9475 -0.9124
34016SOL     OW12361   4.482   7.559   7.563 -0.0580 -0.2675  0.4542
34016SOL    HW112362   4.443   7.526   7.482  0.6349 -1.6418  0.6468
34016SOL    HW212363   4.544   7.490   7.589  1.3571  1.1367  0.9655
34017SOL     OW12364   2.078   0.447   1.198 -0.6088 -0.8267 -0.1896
34017SOL    HW112365   2.078   0.519   1.134 -0.4870  0.1179  0.8406
34017SOL    HW212366   2.167   0.447   1.233 -0.9144 -0.7554  0.6000
34018SOL     OW12367  10.961  10.716   8.822 -0.1930 -0.7006  0.6698
34018SOL    HW112368  10.906  10.689   8.748  1.1257 -1.2045 -0.1568
34018SOL    HW212369  11.046  10.675   8.805  1.0295  1.5998  0.9039
34019SOL     OW12370   3.735   3.832   1.281 -0.2412  0.2384 -0.0465
34019SOL    HW112371   3.760   3.910   1.232 -0.0742 -1.1379 -2.3276
34019SOL    HW212372   3.640   3.828   1.273 -0.1363 -0.4970 -1.1720
34020SOL     OW12373   2.781   1.571  12.707  0.2114 -0.0357 -0.0557
34020SOL    HW112374   2.802   1.618  12.788 -0.1795 -0.4997  0.3180
34020SOL    HW212375   2.751   1.640  12.647  2.0582  0.5515 -0.3713
34021SOL     OW12376   1.964   7.818   7.239  0.0724  0.5861  0.3998
34021SOL    HW112377   1.934   7.895   7.287 -0.7148  0.1025  0.6844
34021SOL    HW212378   1.991   7.756   7.307  0.1548  0.3875  0.1871
34022SOL     OW12379   0.120  12.203   2.534  0.2363  0.6079 -0.1393
34022SOL    HW112380   0.183  12.131   2.537 -0.8329 -0.4683 -1.8088
34022SOL    HW212381   0.135  12.244   2.449 -0.6841  0.9281 -0.1581
34023SOL     OW12382   7.381  11.224   9.870 -0.2673 -0.6665 -0.4884
34023SOL    HW112383   7.289  11.218   9.843 -0.9882  2.4420  0.8382
34023SOL    HW212384   7.420  11.285   9.807  0.0282  0.4794  0.7570
34024SOL     OW12385   4.715   3.662  10.526  0.0914 -0.3053  0.3833
34024SOL    HW112386   4.787   3.724  10.534 -0.8537  0.9825 -0.7128
34024SOL    HW212387   4.661   3.677  10.604  0.3550 -0.4340  0.5948
34025SOL     OW12388   2.552  10.852   0.183 -0.0220 -0.4071 -0.3116
34025SOL    HW112389   2.515  10.926   0.136 -1.3681 -0.5812  0.3975
34025SOL    HW212390   2.529  10.775   0.131 -0.7401 -0.5191  0.1479
34026SOL     OW12391   4.548  12.272   4.952  0.3180  0.0054 -0.2613
34026SOL    HW112392   4.625  12.275   4.896 -0.3270  2.1310 -1.1599
34026SOL    HW212393   4.579  12.302   5.037  0.8538 -1.0985 -0.0512
34027SOL     OW12394   3.497  11.152   6.644 -0.5726 -0.2714 -0.2861
34027SOL    HW112395   3.564  11.166   6.711  0.1919 -0.0243 -1.0742
34027SOL    HW212396   3.415  11.173   6.687 -0.1817 -0.8747  0.7972
34028SOL     OW12397   4.971   4.210   3.372 -0.2523 -0.2574 -0.2571
34028SOL    HW112398   5.051   4.167   3.342  0.1088 -0.6591  1.2234
34028SOL    HW212399   4.916   4.215   3.293 -0.6288 -4.0864 -0.4167
34029SOL     OW12400   4.068   1.893   6.463  0.4976 -0.1481  0.0435
34029SOL    HW112401   4.072   1.818   6.403 -0.3448 -0.6717  0.6144
34029SOL    HW212402   4.020   1.860   6.539  2.9070  0.0021  1.7474
34030SOL     OW12403   3.912  12.068   0.618 -0.1011 -0.5122 -0.3369
34030SOL    HW112404   3.994  12.033   0.652  2.2793  2.7988 -2.1517
34030SOL    HW212405   3.873  12.115   0.691  0.9797  0.0698 -0.1197
34031SOL     OW12406   6.644   4.142   9.362 -0.1760  0.0548  0.0784
34031SOL    HW112407   6.690   4.086   9.299  0.8536 -0.1604  0.9726
34031SOL    HW212408   6.715   4.181   9.414 -1.0132 -0.4809  1.6773
34032SOL     OW12409   8.218   5.240   3.788  0.3231  0.7215 -0.2151
34032SOL    HW112410   8.241   5.172   3.725  0.6060 -0.5207  1.1819
34032SOL    HW212411   8.239   5.322   3.743  5.6999 -0.1194  0.0555
34033SOL     OW12412   9.419   7.815   9.476 -0.2360  0.4756 -0.0767
34033SOL    HW112413   9.382   7.834   9.390 -0.2938 -0.6400 -0.3190
34033SOL    HW212414   9.475   7.890   9.495 -0.2215  0.7415 -1.0864
34034SOL     OW12415   3.009  12.806  11.265 -0.4149 -0.7052  0.0270
34034SOL    HW112416   3.057  12.852  11.333  1.5148 -0.2436 -1.5413
34034SOL    HW212417   3.014  12.714  11.290 -1.0862 -0.4169  1.2793
34035SOL     OW12418   0.187   3.399  12.407  0.0788 -0.1276  0.0768
34035SOL    HW112419   0.134   3.473  12.379 -0.3792 -0.9762 -1.3875
34035SOL    HW212420   0.226   3.364  12.327  1.1775 -0.8089  0.8690
34036SOL     OW12421  11.670   2.494  11.101  0.3856  0.1786 -0.2656
34036SOL    HW112422  11.670   2.496  11.196  0.4029  1.1499 -0.2735
34036SOL    HW212423  11.613   2.567  11.075  1.0699  0.4738 -0.9931
34037SOL     OW12424   6.388   0.604   9.412 -0.1184 -0.1123 -0.2473
34037SOL    HW112425   6.386   0.510   9.392 -0.7384 -0.0936 -0.3131
34037SOL    HW212426   6.369   0.609   9.506  3.3264 -0.2307  0.5793
34038SOL     OW12427   1.579  11.095   7.565 -0.1497 -0.3679 -0.0856
34038SOL    HW112428   1.490  11.127   7.580  0.2320 -0.0148  1.6199
34038SOL    HW212429   1.609  11.065   7.651  1.7982  0.6244 -0.3568
34039SOL     OW12430  12.520   9.997   9.339 -0.3354  0.1143 -0.2863
34039SOL    HW112431  12.531   9.963   9.250  0.4016 -1.3952  0.3436
34039SOL    HW212432  12.455   9.939   9.378 -1.3946  1.3650 -0.1001
34040SOL     OW12433   7.267   5.833   4.687  0.0473 -0.5193 -0.6251
34040SOL    HW112434   7.220   5.826   4.770  1.2826  1.6117  0.3123
34040SOL    HW212435   7.207   5.881   4.630 -0.1571 -0.5958 -0.4782
34041SOL     OW12436   4.266   4.290   6.424 -0.6022 -0.5611 -0.7809
34041SOL    HW112437   4.178   4.264   6.398 -1.2979  0.4783  0.4533
34041SOL    HW212438   4.277   4.379   6.390 -0.6168 -0.1113  0.3383
34042SOL     OW12439  11.826   2.597  10.060  0.1551 -0.1998  0.5559
34042SOL    HW112440  11.732   2.592  10.076  0.1756 -1.0868  0.4418
34042SOL    HW212441  11.836   2.577   9.967  0.5187 -0.9202  0.7430
34043SOL     OW12442  12.741   3.797  12.980 -0.1545 -0.0132  0.1447
34043SOL    HW112443  12.825   3.750  12.981 -0.3074 -0.2856  0.4409
34043SOL    HW212444  12.758   3.876  13.031  0.5841  1.1200 -1.7636
34044SOL     OW12445   0.919   5.778   6.840 -0.4489  0.7058 -0.2383
34044SOL    HW112446   0.906   5.751   6.931 -0.7909 -0.9083 -0.7285
34044SOL    HW212447   0.837   5.819   6.815 -1.5050 -1.4919 -0.6534
34045SOL     OW12448   1.487   4.372   6.712  0.0683 -0.0208 -0.4763
34045SOL    HW112449   1.492   4.278   6.729  0.8732 -0.1735 -1.4031
34045SOL    HW212450   1.555   4.387   6.645  0.1043  1.2527 -0.1727
34046SOL     OW12451   7.452   6.334   4.436 -0.3871 -0.4397 -0.3434
34046SOL    HW112452   7.512   6.364   4.504  0.3851  0.6371 -1.4690
34046SOL    HW212453   7.451   6.404   4.371 -1.2308 -1.3625 -1.3754
34047SOL     OW12454   0.815   2.466   8.832 -0.0511 -0.1906 -0.2571
34047SOL    HW112455   0.725   2.436   8.822 -0.1906 -0.9012  2.4168
34047SOL    HW212456   0.869   2.389   8.813 -0.1573 -0.5176  0.6953
34048SOL     OW12457   6.187   7.662   7.032 -0.1178  0.7285  0.4570
34048SOL    HW112458   6.139   7.610   7.095  0.2372  0.5976  0.6221
34048SOL    HW212459   6.274   7.671   7.070  1.1185 -2.0101 -1.4364
34049SOL     OW12460   1.628   1.350   5.844  0.4665 -0.1090  0.5264
34049SOL    HW112461   1.665   1.300   5.771  2.2999  0.1466  1.2185
34049SOL    HW212462   1.606   1.435   5.805  0.2591 -0.3945  0.0071
34050SOL     OW12463   1.314   9.948   0.986 -0.0346 -0.3624 -0.1903
34050SOL    HW112464   1.352   9.872   1.031 -0.4971  0.6036  1.9787
34050SOL    HW212465   1.336  10.022   1.042  0.5338  1.1700 -2.3267
34051SOL     OW12466  10.789  10.366   5.333  0.3657 -0.1183  0.0359
34051SOL    HW112467  10.769  10.398   5.421  0.5788 -0.1656  0.1037
34051SOL    HW212468  10.791  10.270   5.343  0.9876 -0.1005  0.1135
34052SOL     OW12469   4.237   3.738   6.852 -0.1397 -0.4940 -0.1166
34052SOL    HW112470   4.286   3.820   6.854 -1.0753  0.0925 -0.4307
34052SOL    HW212471   4.276   3.688   6.781 -0.3673  0.2146 -0.7558
34053SOL     OW12472   6.749   0.664   7.213  1.2430  0.4559 -0.3104
34053SOL    HW112473   6.814   0.594   7.213 -1.2626 -2.0367 -0.0724
34053SOL    HW212474   6.753   0.701   7.302  0.5625 -1.5433  0.6210
34054SOL     OW12475   4.011   2.979   1.039 -0.4503  0.0323 -0.4526
34054SOL    HW112476   3.966   3.013   0.962  0.1134  0.4053 -0.6204
34054SOL    HW212477   4.048   3.056   1.082  1.0110 -0.3617 -0.9376
34055SOL     OW12478   6.986  12.069   6.617  0.2834 -0.1524 -0.4328
34055SOL    HW112479   7.064  12.015   6.610 -0.8157 -1.9918  0.7648
34055SOL    HW212480   6.994  12.132   6.544  3.0612  0.0622 -0.0622
34056SOL     OW12481   7.105   0.663   1.287  0.9478  0.3376  0.3122
34056SOL    HW112482   7.174   0.604   1.256 -0.2880 -0.4013 -1.1653
34056SOL    HW212483   7.065   0.617   1.360  0.4542 -0.3583 -0.3797
34057SOL     OW12484   7.203   3.473  11.092 -0.1125 -0.1849  1.1671
34057SOL    HW112485   7.125   3.499  11.141  0.1057  0.5885  1.1071
34057SOL    HW212486   7.203   3.377  11.097 -1.4524 -0.2322  0.5569
34058SOL     OW12487   8.539   7.926  12.873 -0.1513 -0.5285  0.3705
34058SOL    HW112488   8.537   8.007  12.922  1.1607 -0.8744  1.0497
34058SOL    HW212489   8.447   7.903  12.859 -0.6833  2.4861 -2.3019
34059SOL     OW12490   8.473  12.983  11.849  0.4762  0.0854 -0.2469
34059SOL    HW112491   8.431  13.032  11.778 -0.6537 -0.4988 -0.0087
34059SOL    HW212492   8.404  12.925  11.882  1.5817 -1.2022 -0.0925
34060SOL     OW12493   5.152   2.822  10.281  0.6643  0.2234  0.2413
34060SOL    HW112494   5.227   2.880  10.294  1.2525 -0.8181  1.8795
34060SOL    HW212495   5.181   2.737  10.314 -0.9242 -0.4556  0.0124
34061SOL     OW12496  11.594   7.004   4.383  0.2960  0.0517 -0.0299
34061SOL    HW112497  11.573   7.095   4.364  2.0836  0.2321 -1.4196
34061SOL    HW212498  11.592   6.961   4.298  3.5153 -0.2627 -0.0813
34062SOL     OW12499   4.840   2.600   8.322  0.3301 -0.5431 -0.4169
34062SOL    HW112500   4.872   2.612   8.232 -0.7311  0.5148 -0.6821
34062SOL    HW212501   4.761   2.548   8.312  0.7835 -1.3391  0.0291
34063SOL     OW12502  12.857   8.927   9.421 -0.3796 -0.2327 -0.0783
34063SOL    HW112503  12.833   8.973   9.502 -1.2835  0.7402 -0.8636
34063SOL    HW212504  12.918   8.859   9.449 -1.4733 -0.5919  1.5619
34064SOL     OW12505   0.866   1.037   8.518 -0.2877  0.0227  0.3673
34064SOL    HW112506   0.926   1.060   8.447 -0.1857  0.6103  0.6419
34064SOL    HW212507   0.873   1.109   8.580 -0.5144 -0.4004  0.8903
34065SOL     OW12508   3.087   0.257  10.929 -0.3310 -0.0366  0.2977
34065SOL    HW112509   3.152   0.200  10.971  0.3893 -0.6340 -1.5351
34065SOL    HW212510   3.139   0.323  10.883 -1.0148 -0.2865 -0.8698
34066SOL     OW12511   1.565  12.258   4.011 -0.2413 -0.0029 -0.1568
34066SOL    HW112512   1.564  12.291   3.921  2.4732 -0.2337 -0.3466
34066SOL    HW212513   1.484  12.208   4.019  0.4187 -1.8300 -3.2413
34067SOL     OW12514   4.516   0.289   7.671 -0.5542 -0.1771  0.0843
34067SOL    HW112515   4.599   0.298   7.717 -1.1948 -0.2601  1.2906
34067SOL    HW212516   4.539   0.251   7.586  0.7211  0.5517  0.0817
34068SOL     OW12517   0.248   9.362   4.380 -0.1212  0.0270 -0.2980
34068SOL    HW112518   0.235   9.449   4.342  0.8627 -0.4684 -1.8269
34068SOL    HW212519   0.330   9.331   4.343 -1.1516 -2.1455 -0.9298
34069SOL     OW12520   3.462   6.397   7.751  0.2426  0.0517  0.5419
34069SOL    HW112521   3.454   6.477   7.700 -1.3587 -0.1511  0.4244
34069SOL    HW212522   3.419   6.330   7.697  1.6088 -0.9229  0.6040
34070SOL     OW12523   1.022   3.475  10.567 -0.0721 -0.6148  0.0174
34070SOL    HW112524   1.114   3.478  10.592  0.1982 -1.1993 -0.8650
34070SOL    HW212525   0.988   3.562  10.590  0.9517 -0.0343 -0.6033
34071SOL     OW12526   8.037   4.218   0.782  0.6817  0.0531 -0.0254
34071SOL    HW112527   7.959   4.205   0.728  0.2811 -0.8759  0.7413
34071SOL    HW212528   8.093   4.276   0.730 -1.2687  2.2520  0.2029
34072SOL     OW12529   8.304   7.133   5.721  0.1684 -0.2034  0.1719
34072SOL    HW112530   8.278   7.200   5.658  0.1043  0.0812  0.4988
34072SOL    HW212531   8.394   7.110   5.696 -0.2255 -0.8650 -0.6815
34073SOL     OW12532   3.636  11.640   0.939 -0.3687  0.0412 -0.4772
34073SOL    HW112533   3.637  11.736   0.935  1.0011  0.0903  0.6105
34073SOL    HW212534   3.686  11.612   0.862 -0.9277  0.1645 -0.9004
34074SOL     OW12535   0.806   6.383   2.120  0.0112  0.1127  0.2455
34074SOL    HW112536   0.735   6.361   2.180  2.0054 -2.3768  1.9397
34074SOL    HW212537   0.885   6.377   2.175  1.5937  2.3925 -1.6039
34075SOL     OW12538   8.275  10.574   9.123 -1.1695 -0.4598  0.5016
34075SOL    HW112539   8.337  10.565   9.195 -1.2138  0.8979  0.7218
34075SOL    HW212540   8.191  10.546   9.160 -1.0744 -0.3654  0.7855
34076SOL     OW12541  10.368   8.329   5.871 -0.3549 -0.4363 -0.0345
34076SOL    HW112542  10.281   8.290   5.865 -0.6445 -0.1934  1.9194
34076SOL    HW212543  10.352   8.423   5.882  0.2237 -0.1950 -1.0952
34077SOL     OW12544   8.713  10.773  10.614  0.1777  0.3584  0.1402
34077SOL    HW112545   8.651  10.734  10.552  1.6344  0.7194 -1.6251
34077SOL    HW212546   8.708  10.867  10.597  2.9276  0.2582 -1.8449
34078SOL     OW12547   8.252  10.776   5.020  0.0131 -0.0047 -0.0868
34078SOL    HW112548   8.202  10.855   5.043  0.8253  0.5478 -0.1783
34078SOL    HW212549   8.186  10.707   5.012 -0.7019  0.6534  0.0457
34079SOL     OW12550   5.675   2.855   0.926 -0.4270 -0.2036  0.1698
34079SOL    HW112551   5.609   2.866   0.858 -2.1601 -2.6895  1.2629
34079SOL    HW212552   5.626   2.859   1.008  0.3785 -3.5701  0.9803
34080SOL     OW12553  12.451   2.732  10.374 -0.7581  0.3852 -0.6901
34080SOL    HW112554  12.399   2.656  10.401 -1.3215  0.3631 -1.7656
34080SOL    HW212555  12.541   2.701  10.375 -0.8736  0.0456 -0.0309
34081SOL     OW12556   3.909   7.288   2.633  0.6183  0.2976  0.6793
34081SOL    HW112557   3.934   7.316   2.544  0.8221  1.6105  1.1221
34081SOL    HW212558   3.915   7.368   2.685  1.2842 -0.6108  2.0538
34082SOL     OW12559  10.165  12.022   9.307 -0.4129 -0.1952 -0.4190
34082SOL    HW112560  10.228  11.977   9.363 -0.6897  1.4130  1.2730
34082SOL    HW212561  10.096  11.957   9.291  0.2638 -1.0530  0.0774
34083SOL     OW12562   0.556   3.671   9.339  0.0973 -0.4770 -0.0836
34083SOL    HW112563   0.495   3.672   9.266 -0.1681 -1.4027  0.1030
34083SOL    HW212564   0.505   3.633   9.412  0.4800  0.0271  0.4551
34084SOL     OW12565  12.215   1.655   8.659  0.1196  0.3766  0.4495
34084SOL    HW112566  12.208   1.597   8.583  0.1523  0.9779 -0.0239
34084SOL    HW212567  12.304   1.690   8.654  0.1287  0.4032  0.7785
34085SOL     OW12568   5.034   5.403   5.641  0.3847 -0.1114  0.1382
34085SOL    HW112569   5.111   5.401   5.698 -0.3431  0.3018  1.1537
34085SOL    HW212570   4.992   5.487   5.661 -2.0462 -1.6460  1.9264
34086SOL     OW12571  12.647   7.468   9.961  0.1377 -0.0203  0.1849
34086SOL    HW112572  12.600   7.500   9.884  0.1343  0.2870  0.3128
34086SOL    HW212573  12.596   7.502  10.035  1.3875  1.6157  0.3519
34087SOL     OW12574   2.760   7.858   4.813  0.3951  0.0158 -0.0519
34087SOL    HW112575   2.719   7.932   4.857  1.6390  0.5163  0.3167
34087SOL    HW212576   2.737   7.869   4.721 -1.5813 -0.6076  0.3347
34088SOL     OW12577   9.110   5.719   2.117 -0.3369 -0.0616  0.4594
34088SOL    HW112578   9.091   5.772   2.039 -1.4253 -1.9278 -0.6306
34088SOL    HW212579   9.064   5.764   2.187  0.4888  1.5540  0.0054
34089SOL     OW12580   4.772   7.510   6.589 -0.2930  0.6443 -0.2699
34089SOL    HW112581   4.741   7.455   6.661 -0.7965  1.1937 -0.0496
34089SOL    HW212582   4.729   7.595   6.604  0.2066  0.9968 -0.7820
34090SOL     OW12583  12.983   3.834   3.297 -0.1272 -0.4307 -0.1664
34090SOL    HW112584  13.003   3.899   3.230 -0.7430 -0.8345 -0.7566
34090SOL    HW212585  12.905   3.868   3.341 -0.7457 -0.9687 -0.7956
34091SOL     OW12586   9.369   9.779   0.368  0.7507 -0.5105  0.5346
34091SOL    HW112587   9.463   9.792   0.356  0.4245  0.8964 -0.7985
34091SOL    HW212588   9.358   9.684   0.372  2.0361 -0.7632 -1.0968
34092SOL     OW12589   3.008  10.693  11.544  0.4976  0.2539 -0.1672
34092SOL    HW112590   3.074  10.629  11.518  0.4179 -0.7586  1.9076
34092SOL    HW212591   3.010  10.693  11.639 -2.0581  0.6127 -0.0212
34093SOL     OW12592   9.309   5.869   7.871  0.1803  0.2102  0.3261
34093SOL    HW112593   9.388   5.857   7.818 -0.3250  0.5157 -0.5097
34093SOL    HW212594   9.243   5.901   7.810 -1.1701 -1.8783  0.6009
34094SOL     OW12595   5.083   3.535   7.534 -0.1818  0.3467 -0.0099
34094SOL    HW112596   4.997   3.506   7.564  0.4765  1.0366  2.8808
34094SOL    HW212597   5.128   3.454   7.511 -0.3506 -0.4654  2.2432
34095SOL     OW12598   4.975   0.732   1.983  0.1377 -0.3106 -0.2056
34095SOL    HW112599   5.016   0.771   1.906  1.8884 -1.3275  0.1606
34095SOL    HW212600   4.988   0.638   1.973 -0.1563 -0.5030  1.0155
34096SOL     OW12601   9.493   1.537  12.964  0.3489  0.0295  0.6608
34096SOL    HW112602   9.538   1.600  12.908  1.9022 -0.0266  1.7821
34096SOL    HW212603   9.401   1.562  12.960  0.7633  1.5291  0.0313
34097SOL     OW12604   7.447   7.479  11.626  0.7927 -0.3211  0.1217
34097SOL    HW112605   7.392   7.493  11.549  1.0079 -0.4042 -0.0508
34097SOL    HW212606   7.507   7.409  11.599  3.1373  1.8977 -0.8476
34098SOL     OW12607   9.498   0.383  10.968  0.2915 -0.0476 -0.0155
34098SOL    HW112608   9.513   0.293  10.937 -1.4136 -0.2688 -0.2752
34098SOL    HW212609   9.507   0.377  11.063  2.1531 -0.0584 -0.1532
34099SOL     OW12610   7.348  11.717  11.535  0.1446 -0.2237  0.6265
34099SOL    HW112611   7.375  11.727  11.627 -0.0436 -0.9364  0.7626
34099SOL    HW212612   7.255  11.741  11.535 -0.0151 -0.8254  0.7426
34100SOL     OW12613   4.201   7.956   9.618  0.4531 -0.5502 -0.3733
34100SOL    HW112614   4.204   8.009   9.539  3.1763 -0.0016 -0.0069
34100SOL    HW212615   4.235   7.870   9.590 -0.0848 -0.8437 -0.1312
34101SOL     OW12616   9.932  12.313   0.567 -0.2984  0.1867 -0.3119
34101SOL    HW112617   9.955  12.371   0.639 -1.2072  0.5347 -0.2940
34101SOL    HW212618   9.841  12.333   0.548 -0.2684 -0.3916 -1.1050
34102SOL     OW12619   2.996   9.408  11.698 -0.0970 -0.5130 -0.5478
34102SOL    HW112620   3.031   9.369  11.618  1.5212 -0.8571  0.2885
34102SOL    HW212621   2.911   9.445  11.672  0.2194 -0.9565 -2.3119
34103SOL     OW12622   3.309   5.795   3.353  0.6664  0.3993 -0.2598
34103SOL    HW112623   3.303   5.873   3.409 -0.9839  0.2082 -0.1375
34103SOL    HW212624   3.395   5.758   3.374  0.8663  1.3653  0.7566
34104SOL     OW12625   9.969   0.612   9.080  0.6098  0.2842 -0.1094
34104SOL    HW112626  10.059   0.636   9.059  2.4354 -3.6419  1.9932
34104SOL    HW212627   9.946   0.547   9.014  1.0378 -1.7394  1.6157
34105SOL     OW12628   7.198   9.357   6.567 -0.0732  0.0710 -0.1050
34105SOL    HW112629   7.225   9.375   6.476 -0.1992  0.6809 -0.0245
34105SOL    HW212630   7.186   9.444   6.606  0.6442 -0.1720  0.6942
34106SOL     OW12631   5.404   8.698   0.119  0.0400  0.3893  0.0093
34106SOL    HW112632   5.482   8.745   0.148  1.0561  0.5014 -2.6454
34106SOL    HW212633   5.399   8.622   0.176  1.6640  0.7834  0.7207
34107SOL     OW12634  11.871   6.045   8.423  0.1260 -0.1438 -0.1249
34107SOL    HW112635  11.871   5.988   8.346 -0.8104  2.0322 -1.8334
34107SOL    HW212636  11.962   6.050   8.449  0.6083 -0.1888 -1.6982
34108SOL     OW12637  10.508   1.993   8.420  0.0208 -0.3849  0.1628
34108SOL    HW112638  10.544   2.081   8.424 -0.7634 -0.0055 -0.6374
34108SOL    HW212639  10.567   1.945   8.362  0.9776 -0.6770  1.3290
34109SOL     OW12640   4.380   6.894   5.465 -0.0601 -0.2068  0.0883
34109SOL    HW112641   4.337   6.940   5.393  0.4834  2.2646  1.2435
34109SOL    HW212642   4.313   6.833   5.497 -1.6949  1.3865 -0.0968
34110SOL     OW12643   1.651   8.398  11.690  0.2195  0.0959 -0.2731
34110SOL    HW112644   1.741   8.387  11.720 -0.4378 -2.0311  1.1110
34110SOL    HW212645   1.645   8.491  11.666  2.3945  0.5844  0.8348
34111SOL     OW12646   6.977   5.822   2.382  0.9274  0.5989  0.5165
34111SOL    HW112647   6.950   5.907   2.346 -2.0986  0.5186  2.2906
34111SOL    HW212648   7.016   5.844   2.467 -0.7955  0.2313  1.4461
34112SOL     OW12649   5.319   9.907   1.860 -0.6711 -0.4087 -0.6333
34112SOL    HW112650   5.398   9.943   1.902 -1.4870  0.5762  0.1144
34112SOL    HW212651   5.326   9.813   1.874  1.1864 -0.5336 -2.0348
34113SOL     OW12652   3.325   7.991  10.662  0.4315  0.3088  0.2200
34113SOL    HW112653   3.303   7.906  10.701 -0.0924  0.5368  0.4296
34113SOL    HW212654   3.324   8.053  10.735  1.7712  0.3377  0.2267
34114SOL     OW12655  10.625  10.141   7.291 -0.8249 -0.0599 -0.4592
34114SOL    HW112656  10.538  10.101   7.306 -1.5314  1.0186 -1.5600
34114SOL    HW212657  10.639  10.196   7.368 -0.9885 -0.4505 -0.1442
34115SOL     OW12658  11.013   3.785   4.577  0.1047  0.1220 -0.3722
34115SOL    HW112659  11.044   3.850   4.641 -0.1875 -0.5467  0.4608
34115SOL    HW212660  10.921   3.808   4.563  0.0260 -0.0589 -0.1472
34116SOL     OW12661   0.222   0.413   9.558 -0.1775 -0.4606 -0.9197
34116SOL    HW112662   0.180   0.499   9.561  0.8010  0.0525 -1.2421
34116SOL    HW212663   0.310   0.428   9.593 -0.1202 -1.4125 -0.6317
34117SOL     OW12664   9.828   3.376   4.764  0.6271  0.3424  0.5744
34117SOL    HW112665   9.841   3.352   4.672  2.5055  1.3575  0.5137
34117SOL    HW212666   9.800   3.295   4.807 -1.1688  0.0529 -1.0253
34118SOL     OW12667  12.565  12.893  12.315 -0.3425 -0.6613 -0.0263
34118SOL    HW112668  12.503  12.966  12.313 -0.6434 -0.9053  0.2134
34118SOL    HW212669  12.644  12.930  12.355 -0.4159 -0.4084 -0.1122
34119SOL     OW12670  11.693   7.322  10.722 -0.2737  0.1503  0.2300
34119SOL    HW112671  11.723   7.402  10.766 -0.1468  0.2732 -0.0770
34119SOL    HW212672  11.711   7.337  10.630 -0.5004 -0.1258  0.1391
34120SOL     OW12673   0.512   9.254   4.329  0.2323  0.3475  0.1928
34120SOL    HW112674   0.538   9.203   4.252 -0.1435  0.0535  0.2563
34120SOL    HW212675   0.475   9.189   4.389 -0.6548  0.7594  0.1014
34121SOL     OW12676   3.123  11.384   4.919 -0.0369 -0.2091 -0.0479
34121SOL    HW112677   3.105  11.448   4.850  1.7743  0.4514  0.0372
34121SOL    HW212678   3.217  11.392   4.935 -0.2293 -1.0904  1.7804
34122SOL     OW12679   0.592   6.739   4.530 -0.1729 -0.0746 -0.0647
34122SOL    HW112680   0.529   6.780   4.590  0.0172  1.0675 -0.6217
34122SOL    HW212681   0.539   6.683   4.474 -0.4851 -0.3472  0.4963
34123SOL     OW12682  10.342   9.031   6.004  0.2377 -0.5390 -0.3685
34123SOL    HW112683  10.424   9.076   6.025 -1.6726  2.1833  2.3031
34123SOL    HW212684  10.306   9.080   5.930  0.3159 -0.6823 -0.4994
34124SOL     OW12685  10.827  12.558  11.991  0.1380 -0.1027 -0.1352
34124SOL    HW112686  10.902  12.545  11.933  1.4189 -1.0199  1.6230
34124SOL    HW212687  10.768  12.486  11.971  1.9140 -2.1687  1.6164
34125SOL     OW12688   8.793   0.212   3.308 -0.1325 -0.5492 -0.0164
34125SOL    HW112689   8.822   0.255   3.227 -0.8962  0.8108  0.4066
34125SOL    HW212690   8.873   0.177   3.346  0.4542  0.0945 -0.6198
34126SOL     OW12691  11.932   1.129  11.940  0.1605 -0.9671 -0.0899
34126SOL    HW112692  11.861   1.191  11.954  2.2235  1.4709  0.3154
34126SOL    HW212693  11.893   1.059  11.888 -2.4504  0.3662 -0.0863
34127SOL     OW12694   0.128   5.613   5.758 -0.2153  0.2844  0.0351
34127SOL    HW112695   0.079   5.614   5.840 -1.9608  0.1605 -0.9541
34127SOL    HW212696   0.201   5.673   5.772 -1.4630  1.6001  1.1131
34128SOL     OW12697   7.822   8.159   7.453  0.1944  0.7305 -0.3484
34128SOL    HW112698   7.768   8.209   7.391 -1.8676  0.0719  0.8011
34128SOL    HW212699   7.760   8.131   7.521  1.6728 -1.5370  0.1829
34129SOL     OW12700   1.519   3.201   8.553  0.0489  0.0024 -1.0214
34129SOL    HW112701   1.502   3.252   8.473 -2.4382  1.7874  0.4912
34129SOL    HW212702   1.459   3.238   8.618  2.6650 -0.6554  2.0077
34130SOL     OW12703   5.253  12.234  10.785 -0.3942 -0.8133 -0.1622
34130SOL    HW112704   5.171  12.203  10.745 -0.3933 -1.2174  0.1412
34130SOL    HW212705   5.289  12.156  10.827  0.2727 -0.6903 -0.5025
34131SOL     OW12706   1.726   6.418   1.727  0.3623  0.1976 -0.5183
34131SOL    HW112707   1.781   6.440   1.652 -0.4397  1.4973 -0.7639
34131SOL    HW212708   1.778   6.442   1.803  0.2315  1.2204 -0.7398
34132SOL     OW12709  12.678  11.138   0.953  0.1135  0.2787 -0.4505
34132SOL    HW112710  12.680  11.203   0.883  0.7886  2.1161  1.1441
34132SOL    HW212711  12.694  11.190   1.033 -1.1394 -1.6202  1.1124
34133SOL     OW12712   7.775  11.180   4.006 -0.2476 -0.6045 -0.0984
34133SOL    HW112713   7.860  11.164   4.048 -0.5057  2.2890  1.8200
34133SOL    HW212714   7.785  11.265   3.964 -1.6317 -1.1353 -1.5748
34134SOL     OW12715   4.159   9.629  12.258  0.4222  0.0064  0.0755
34134SOL    HW112716   4.155   9.628  12.162  1.3822 -1.0040  0.0280
34134SOL    HW212717   4.082   9.680  12.284  0.6942  1.1505 -1.2525
34135SOL     OW12718   9.273   8.982   2.459  0.7903  0.3688 -0.2094
34135SOL    HW112719   9.252   9.048   2.525  0.2171  0.9204 -0.9243
34135SOL    HW212720   9.200   8.986   2.398  0.9462 -0.6616 -0.4816
34136SOL     OW12721   0.798   2.524   6.487  0.1325 -0.1433 -0.3677
34136SOL    HW112722   0.850   2.449   6.455  0.7893  0.0357  0.2564
34136SOL    HW212723   0.863   2.592   6.504 -0.3638  0.2481 -0.0267
34137SOL     OW12724   9.915   9.493   9.053 -0.2891 -0.5949  0.2123
34137SOL    HW112725   9.914   9.548   9.131 -0.0184  0.6446 -0.6304
34137SOL    HW212726   9.828   9.502   9.016 -0.0239 -0.1404 -0.3178
34138SOL     OW12727   0.487   4.491   5.439 -0.8023 -0.7086  0.1966
34138SOL    HW112728   0.555   4.426   5.462  0.3456  0.0738 -0.8695
34138SOL    HW212729   0.442   4.453   5.363  1.0654  0.4645 -1.5977
34139SOL     OW12730   3.483   4.433   7.284  0.3576 -0.2502 -0.4616
34139SOL    HW112731   3.503   4.419   7.191 -1.5340  1.8563 -1.2946
34139SOL    HW212732   3.557   4.483   7.317  0.1936  0.6474 -1.3863
34140SOL     OW12733   1.525   1.788   0.375 -0.1168 -0.5326  0.2110
34140SOL    HW112734   1.606   1.747   0.345  1.6354  1.4520  1.8496
34140SOL    HW212735   1.459   1.719   0.370  2.2803 -3.1034  1.4260
34141SOL     OW12736  11.571  12.841  10.749  0.5869 -0.0702  0.7118
34141SOL    HW112737  11.631  12.847  10.823  0.5126 -1.2694  0.8926
34141SOL    HW212738  11.490  12.881  10.780  1.2089  1.3915  0.5260
34142SOL     OW12739   0.399   2.749   3.610  0.7955  0.3047  0.0857
34142SOL    HW112740   0.400   2.678   3.675 -2.1839  0.0784  0.0156
34142SOL    HW212741   0.430   2.826   3.658 -1.9102  0.2842  2.0798
34143SOL     OW12742  12.393   2.274   4.104  0.0225 -0.1807 -0.5087
34143SOL    HW112743  12.489   2.277   4.107 -0.0003  0.4642 -0.3299
34143SOL    HW212744  12.370   2.313   4.020 -0.2166  3.9761  1.2320
34144SOL     OW12745   3.460   6.488   8.944  0.5243 -0.2950  0.5318
34144SOL    HW112746   3.498   6.409   8.905 -1.6783 -1.3350  0.3202
34144SOL    HW212747   3.501   6.495   9.030  2.7163 -0.0983 -0.4499
34145SOL     OW12748   8.642  12.693   9.814 -0.1095  0.3621  0.0855
34145SOL    HW112749   8.565  12.745   9.791 -0.7833 -0.7194 -0.1753
34145SOL    HW212750   8.627  12.667   9.904 -0.2932 -0.2435 -0.1136
34146SOL     OW12751  12.430   4.966   4.759  0.1208 -0.2929 -0.0921
34146SOL    HW112752  12.406   4.979   4.850 -1.8656  2.0144 -0.8438
34146SOL    HW212753  12.395   4.880   4.736  1.2111 -1.1820  1.4209
34147SOL     OW12754   3.799   8.684   6.382 -0.1218  0.0632 -0.3095
34147SOL    HW112755   3.880   8.727   6.410  1.6668 -3.4273  0.4251
34147SOL    HW212756   3.783   8.719   6.294  2.3666  0.6827 -0.6018
34148SOL     OW12757  11.813  10.378   0.082  0.6253 -0.0157  0.8735
34148SOL    HW112758  11.797  10.451   0.021  2.0757  1.3210  2.0127
34148SOL    HW212759  11.817  10.420   0.168  0.8182 -1.5601  1.6426
34149SOL     OW12760  10.690  10.415   6.193 -0.2882  0.1820  0.3857
34149SOL    HW112761  10.652  10.372   6.269  0.0283 -0.9677 -0.0716
34149SOL    HW212762  10.747  10.483   6.229  0.1807 -0.6221  1.1937
34150SOL     OW12763   8.476   2.490   9.139 -0.2319  0.0669 -0.1313
34150SOL    HW112764   8.387   2.465   9.115 -0.6537  0.4291  1.0017
34150SOL    HW212765   8.467   2.530   9.225  1.1906 -0.9571  0.5178
34151SOL     OW12766   0.558   6.077  10.974 -0.7029 -0.0401 -0.1108
34151SOL    HW112767   0.521   6.049  11.057  1.2349 -1.0162  0.4958
34151SOL    HW212768   0.531   6.011  10.911 -0.4189 -0.4875  0.2265
34152SOL     OW12769   5.893   8.739   9.686  0.3275  0.1868  0.3319
34152SOL    HW112770   5.892   8.795   9.608 -0.8764 -0.1667  0.0706
34152SOL    HW212771   5.961   8.674   9.669 -0.1857 -0.1133 -0.5945
34153SOL     OW12772   7.049  10.572   6.515 -0.3599 -0.3775  0.1451
34153SOL    HW112773   7.060  10.651   6.568 -3.6757 -1.0480  2.1539
34153SOL    HW212774   6.990  10.598   6.445  0.3189 -0.5987 -0.5229
34154SOL     OW12775   4.010  12.872   5.968  0.0134 -0.1216 -0.2041
34154SOL    HW112776   3.922  12.880   6.003  0.2848  0.6721  0.3111
34154SOL    HW212777   4.028  12.778   5.971 -0.4472 -0.1894  0.5965
34155SOL     OW12778   4.192   6.252   6.187 -0.3730  0.4543  0.6778
34155SOL    HW112779   4.098   6.268   6.195 -0.4901  0.8771 -1.1510
34155SOL    HW212780   4.231   6.310   6.252 -1.3906 -0.3955  2.1071
34156SOL     OW12781   8.139   1.731   8.111 -0.0434  0.4354 -0.6003
34156SOL    HW112782   8.172   1.813   8.075  0.2355  0.6695  0.1651
34156SOL    HW212783   8.089   1.691   8.040  1.6965  0.1804 -1.7609
34157SOL     OW12784  11.090  12.971   8.779 -0.5151  0.6080 -0.2522
34157SOL    HW112785  11.099  12.981   8.874 -0.7316 -0.9882 -0.0385
34157SOL    HW212786  11.022  12.906   8.768 -0.4631  0.7424 -1.5211
34158SOL     OW12787   1.423   5.691   5.714 -0.3758 -0.2957  0.6481
34158SOL    HW112788   1.405   5.597   5.716 -1.9867 -0.0127  0.9632
34158SOL    HW212789   1.500   5.703   5.769 -1.2233 -1.2301  2.0798
34159SOL     OW12790   5.655  12.127   6.694 -0.0243 -0.3806 -0.3231
34159SOL    HW112791   5.619  12.096   6.777 -0.6216 -0.4420 -0.6004
34159SOL    HW212792   5.708  12.054   6.662  0.4217 -0.2591  0.1258
34160SOL     OW12793   0.281   5.571   0.805  0.5874  0.5974  0.0446
34160SOL    HW112794   0.266   5.477   0.791  1.0109  0.4823  0.3390
34160SOL    HW212795   0.346   5.596   0.740  0.6124  0.6448  0.0875
34161SOL     OW12796   6.025   1.274   9.818  0.0732 -0.5116 -0.3168
34161SOL    HW112797   5.935   1.246   9.798 -0.5840  0.6238  0.9728
34161SOL    HW212798   6.042   1.344   9.755 -1.3720  1.8749  1.7791
34162SOL     OW12799   8.625   7.330   6.228  0.5660 -0.0524 -0.5056
34162SOL    HW112800   8.603   7.422   6.219  0.2321  0.0359  1.0432
34162SOL    HW212801   8.546   7.283   6.198 -0.2169  0.2178  1.0292
34163SOL     OW12802   5.212   0.555   4.644 -0.2613  0.1184 -0.0656
34163SOL    HW112803   5.236   0.464   4.661 -0.0227  0.2562  0.3359
34163SOL    HW212804   5.295   0.599   4.626 -0.2041  0.5787  1.2573
34164SOL     OW12805  12.454   8.246   0.771  0.3029  1.0085  0.0718
34164SOL    HW112806  12.412   8.283   0.849 -1.8078 -1.9202  0.4854
34164SOL    HW212807  12.526   8.193   0.805  0.0776  0.6183 -0.0508
34165SOL     OW12808   7.858  10.623   1.178 -0.4366 -0.7293 -0.3372
34165SOL    HW112809   7.849  10.627   1.273  0.9879  1.8915 -0.2120
34165SOL    HW212810   7.929  10.561   1.163  0.1522 -0.2562  0.4107
34166SOL     OW12811   5.750   3.700   3.755 -0.2937  0.0443  0.2843
34166SOL    HW112812   5.688   3.709   3.827 -1.7844 -0.1325 -0.9218
34166SOL    HW212813   5.806   3.627   3.781 -0.3496  0.4438  1.5746
34167SOL     OW12814   7.388   1.527  11.827  0.5017  0.2867 -0.2988
34167SOL    HW112815   7.440   1.514  11.747 -0.0800  1.4104 -0.8772
34167SOL    HW212816   7.434   1.594  11.876 -0.4811  1.4554 -0.9209
34168SOL     OW12817   9.059   9.788   4.695 -0.2061  0.0869 -0.0589
34168SOL    HW112818   9.033   9.862   4.641  1.1856 -0.2031 -1.1804
34168SOL    HW212819   9.113   9.827   4.764  1.5972  0.0651 -1.3660
34169SOL     OW12820  11.169   0.649  12.307  0.0681 -0.1700  0.7019
34169SOL    HW112821  11.173   0.588  12.233  1.8462  0.0633  0.5827
34169SOL    HW212822  11.200   0.732  12.273  0.1534  0.1452  1.5141
34170SOL     OW12823   1.545   3.912   7.394  0.5499  0.0160 -0.5609
34170SOL    HW112824   1.601   3.854   7.447  1.2166  0.4967 -0.7327
34170SOL    HW212825   1.467   3.925   7.448  1.5506  1.1356  0.6890
34171SOL     OW12826   7.662   0.612   2.458  0.3295 -0.3484  0.0204
34171SOL    HW112827   7.738   0.658   2.494 -1.7474  1.7276  2.0289
34171SOL    HW212828   7.615   0.678   2.407 -1.5478 -0.7911  1.0844
34172SOL     OW12829  12.798  12.394   8.002 -0.5876  0.7981 -0.3247
34172SOL    HW112830  12.793  12.427   8.092 -3.2997  0.3453 -0.2492
34172SOL    HW212831  12.796  12.299   8.012 -1.7088  0.7527 -0.8644
34173SOL     OW12832  12.058   5.575   0.821  0.4251  0.1799  0.4036
34173SOL    HW112833  12.001   5.543   0.892  0.9831 -2.8707 -0.3759
34173SOL    HW212834  12.021   5.659   0.797 -2.1482 -0.4659  1.7268
34174SOL     OW12835   0.251   5.695   7.704 -0.1512  0.2398 -0.6945
34174SOL    HW112836   0.310   5.722   7.633 -0.1196  0.6274 -0.5198
34174SOL    HW212837   0.198   5.625   7.665  0.7820 -0.4859 -0.6929
34175SOL     OW12838  12.951   5.920   3.317  0.2633  0.3134  1.0265
34175SOL    HW112839  12.879   5.934   3.378 -0.9373  1.2169 -0.5076
34175SOL    HW212840  13.002   6.001   3.320  0.1840  0.3726  0.8245
34176SOL     OW12841   9.803   5.127  11.108  0.2405  0.0310 -0.0110
34176SOL    HW112842   9.774   5.211  11.143  0.2742 -0.2787  0.7791
34176SOL    HW212843   9.870   5.149  11.044 -0.1416  0.6293 -0.2175
34177SOL     OW12844   2.305  11.025  12.628 -0.5029 -0.7355  0.5456
34177SOL    HW112845   2.314  10.956  12.563 -0.1147 -0.3580  0.1895
34177SOL    HW212846   2.218  11.063  12.612  0.8589  1.6096 -2.0459
34178SOL     OW12847   5.227   0.413   3.208  0.5468  0.2933 -0.2358
34178SOL    HW112848   5.193   0.443   3.123  0.1013  1.9220  0.4843
34178SOL    HW212849   5.321   0.428   3.202  0.8470 -1.5732 -1.1769
34179SOL     OW12850   0.948   4.994   4.193 -0.1176  0.3008 -0.1710
34179SOL    HW112851   1.034   5.017   4.158 -0.4329  0.7851 -0.6604
34179SOL    HW212852   0.890   4.993   4.116 -0.3589 -1.0022  0.0132
34180SOL     OW12853   6.521   7.453   4.400 -0.1167  0.1017  0.0833
34180SOL    HW112854   6.538   7.429   4.309 -1.1481  2.1989 -0.7081
34180SOL    HW212855   6.472   7.378   4.435  1.4414 -1.3297 -0.6349
34181SOL     OW12856   8.040   0.842   3.608 -0.3618  0.1544 -0.3259
34181SOL    HW112857   8.053   0.853   3.514  0.0272 -2.8518 -0.7068
34181SOL    HW212858   8.124   0.869   3.647  0.1970 -0.5184 -1.0307
34182SOL     OW12859   4.891   2.359   3.984 -0.5585 -0.0513  0.3773
34182SOL    HW112860   4.806   2.339   4.025  0.2239  0.3112  2.2722
34182SOL    HW212861   4.938   2.410   4.050  1.8740 -1.8265  0.1681
34183SOL     OW12862   2.077   1.430   0.055  0.2168  0.4848 -0.1573
34183SOL    HW112863   2.071   1.430  -0.040 -1.1195  1.9453 -0.1195
34183SOL    HW212864   2.120   1.513   0.076 -0.2200  0.5449  0.5284
34184SOL     OW12865  11.439   6.604   2.807 -0.1267 -0.3900 -0.2042
34184SOL    HW112866  11.365   6.594   2.867  0.3338  2.8311  1.1130
34184SOL    HW212867  11.510   6.553   2.848 -0.7718 -1.1052  0.0602
34185SOL     OW12868   0.579   5.589   6.570  0.1825  0.3091  0.3413
34185SOL    HW112869   0.623   5.587   6.485  1.0808 -0.0329  0.7968
34185SOL    HW212870   0.527   5.669   6.568  0.7389  0.6737 -0.2662
34186SOL     OW12871  11.741  11.282   7.656 -0.8900  0.1833 -0.2879
34186SOL    HW112872  11.699  11.200   7.682 -0.6312  0.1189 -0.0676
34186SOL    HW212873  11.689  11.314   7.582 -0.6099 -0.5086 -0.7936
34187SOL     OW12874   6.429  12.562   9.077  0.1674 -0.3881  0.6756
34187SOL    HW112875   6.365  12.501   9.114 -0.2185 -1.3374 -1.4302
34187SOL    HW212876   6.381  12.644   9.066  0.2501 -0.1265  2.0370
34188SOL     OW12877  12.712   2.809   5.631 -0.2295  0.0779  0.0759
34188SOL    HW112878  12.791   2.770   5.669 -1.0699 -1.1248  0.6410
34188SOL    HW212879  12.745   2.880   5.575  1.1773  0.3578  1.2018
34189SOL     OW12880   3.422   1.532   5.005 -0.5830 -0.8257 -0.6419
34189SOL    HW112881   3.444   1.612   4.958  0.7800 -0.6992  0.1577
34189SOL    HW212882   3.506   1.488   5.018 -0.6358 -0.1835  2.8505
34190SOL     OW12883   6.078   6.306   2.061 -1.0786  0.2815 -0.2818
34190SOL    HW112884   6.054   6.325   2.152 -1.7674  0.5919 -0.5170
34190SOL    HW212885   5.995   6.284   2.018 -0.5769 -1.2908 -0.5137
34191SOL     OW12886   3.068  11.653   7.548  0.3436 -0.1292 -0.1947
34191SOL    HW112887   2.980  11.691   7.555  0.6275  0.8538 -1.5635
34191SOL    HW212888   3.082  11.641   7.454  1.0733 -1.7880  0.0961
34192SOL     OW12889   8.810   4.557   4.989  0.1039 -0.2677  0.2895
34192SOL    HW112890   8.808   4.575   5.083  0.8674  3.5237 -0.2651
34192SOL    HW212891   8.719   4.567   4.961 -0.0778 -1.1350  0.5148
34193SOL     OW12892  10.205   6.854   0.247 -0.1592  0.0030 -0.1043
34193SOL    HW112893  10.241   6.886   0.330  0.2935 -0.5006 -0.0986
34193SOL    HW212894  10.111   6.849   0.261  0.0326 -1.5800  0.9404
34194SOL     OW12895   2.955   7.538   3.911 -0.3056  0.6547  0.0038
34194SOL    HW112896   2.944   7.633   3.906  1.7679  0.8546 -2.8578
34194SOL    HW212897   2.903   7.504   3.838 -0.4113 -0.3860  0.5416
34195SOL     OW12898  11.167  10.380   0.598 -0.1267 -0.5077 -0.4753
34195SOL    HW112899  11.236  10.372   0.532 -0.5462  1.8077 -1.2918
34195SOL    HW212900  11.088  10.348   0.554 -0.4819  1.3710 -1.3438
34196SOL     OW12901  10.078  12.660  11.225  0.1684  0.2649  0.2255
34196SOL    HW112902  10.059  12.625  11.138 -2.5232 -0.3554  0.9901
34196SOL    HW212903   9.992  12.675  11.264  1.3140  0.6069  2.7688
34197SOL     OW12904   9.954   6.392   5.036 -0.3351  0.1334 -0.2219
34197SOL    HW112905   9.990   6.381   5.124  0.5052 -1.2818 -0.7082
34197SOL    HW212906   9.879   6.333   5.033 -1.0595  1.0180 -0.1177
34198SOL     OW12907   4.332   4.388   0.760  0.5414  0.3119  0.0819
34198SOL    HW112908   4.258   4.343   0.802  1.0522  0.2156  0.8861
34198SOL    HW212909   4.293   4.427   0.681 -0.3251  0.0882  0.3785
34199SOL     OW12910   6.128   4.468   9.155  0.4481  0.3294 -0.0593
34199SOL    HW112911   6.218   4.446   9.133  1.0543  3.3523 -1.0572
34199SOL    HW212912   6.089   4.496   9.073 -0.3378  2.2526  0.9145
34200SOL     OW12913   8.235   5.744   0.859 -0.0285 -0.1710 -0.3829
34200SOL    HW112914   8.290   5.680   0.814 -0.8027 -0.4640 -0.9148
34200SOL    HW212915   8.148   5.733   0.822 -0.3340  0.6983  0.0329
34201SOL     OW12916   6.720  11.712  11.310  0.0946 -0.2862  0.1794
34201SOL    HW112917   6.681  11.783  11.260  0.3786 -0.8615 -0.8796
34201SOL    HW212918   6.652  11.687  11.373  0.8518  2.5533  2.3225
34202SOL     OW12919  11.999   5.103   4.177 -0.5359  0.3794 -0.1675
34202SOL    HW112920  11.990   5.147   4.092  0.0166  0.0206 -0.4136
34202SOL    HW212921  11.926   5.041   4.179 -0.2431  0.0138 -0.6132
34203SOL     OW12922   7.005   7.915   1.127 -0.0072 -0.2997 -0.3625
34203SOL    HW112923   7.030   7.984   1.065  1.9258 -1.7364 -1.2755
34203SOL    HW212924   7.088   7.878   1.157 -0.9427 -0.8263  1.7800
34204SOL     OW12925   0.611   7.467   8.311  0.1806 -0.1700 -0.1198
34204SOL    HW112926   0.574   7.434   8.392  0.2757  0.4859  0.1999
34204SOL    HW212927   0.536   7.472   8.251  0.0325 -0.2700  0.0571
34205SOL     OW12928  12.201  12.977   2.381  0.4496  1.0636 -0.3079
34205SOL    HW112929  12.174  12.934   2.301  0.3104 -0.1647  0.3784
34205SOL    HW212930  12.261  13.046   2.352 -0.5598  1.4548 -1.5466
34206SOL     OW12931  11.750   3.706   2.828  0.0313 -0.4650 -0.1839
34206SOL    HW112932  11.775   3.618   2.800  1.6195 -0.6389  1.5402
34206SOL    HW212933  11.797   3.764   2.769  0.4794 -0.7995 -0.1662
34207SOL     OW12934   3.688  10.987   0.315  0.4099 -0.1909 -0.4989
34207SOL    HW112935   3.775  10.980   0.275  1.5150  3.0101  1.1005
34207SOL    HW212936   3.702  10.972   0.408 -1.1636 -1.6301 -0.4287
34208SOL     OW12937  10.173   5.577   8.651 -0.3236 -0.8411 -0.4498
34208SOL    HW112938  10.175   5.638   8.725  0.5015  0.3334 -1.4136
34208SOL    HW212939  10.181   5.491   8.691  1.7272 -0.1592  0.7700
34209SOL     OW12940   9.984   9.728   2.177  0.1185 -0.0516 -0.2908
34209SOL    HW112941   9.959   9.756   2.089 -1.0358  0.3423  0.1363
34209SOL    HW212942   9.975   9.633   2.175 -1.1862  0.0530 -0.2445
34210SOL     OW12943   0.718  11.056   4.319  0.1814 -0.1079 -0.7038
34210SOL    HW112944   0.677  11.116   4.382  2.7570  2.8615 -1.5349
34210SOL    HW212945   0.669  11.069   4.238 -0.7404 -0.9972 -0.3069
34211SOL     OW12946   8.056   2.675   4.937 -0.1378 -0.0285  0.0539
34211SOL    HW112947   8.090   2.744   4.879 -0.1741 -0.0667 -0.0133
34211SOL    HW212948   8.075   2.594   4.890 -2.5448  0.0376 -1.1881
34212SOL     OW12949   4.059   0.745  12.963 -0.3858 -0.1590  0.2905
34212SOL    HW112950   4.045   0.788  13.047 -1.8049  1.6692 -0.7838
34212SOL    HW212951   4.133   0.792  12.924 -1.0448  0.3992 -0.3106
34213SOL     OW12952  10.478  10.986   7.209 -0.2262 -0.6967  0.1777
34213SOL    HW112953  10.402  11.015   7.159 -0.1322 -0.6698  0.0488
34213SOL    HW212954  10.505  10.904   7.166  0.8505  0.1600 -0.8678
34214SOL     OW12955  11.107  12.428   2.582  0.3915  0.3649 -0.0912
34214SOL    HW112956  11.189  12.385   2.559 -0.6104 -2.1244  0.6862
34214SOL    HW212957  11.070  12.454   2.497 -0.1218 -2.6501 -0.8878
34215SOL     OW12958   1.300  12.892   5.560 -0.0718 -0.3400  0.9739
34215SOL    HW112959   1.360  12.845   5.617 -0.7752 -1.8595  0.5223
34215SOL    HW212960   1.248  12.946   5.619  0.3424 -0.5996  1.5806
34216SOL     OW12961  11.141   2.433   9.774  0.0028 -0.5574  0.4083
34216SOL    HW112962  11.053   2.400   9.756 -0.5052  0.2178  1.3778
34216SOL    HW212963  11.200   2.360   9.753 -0.8298 -0.9634 -0.5944
34217SOL     OW12964   4.964   7.636   5.208 -0.1083  0.3948 -0.1195
34217SOL    HW112965   5.042   7.583   5.194 -1.0263 -0.5462 -2.0267
34217SOL    HW212966   4.948   7.631   5.302  2.7057  1.5345  0.5449
34218SOL     OW12967   1.424   0.116   7.627  0.4025  0.0118 -0.7452
34218SOL    HW112968   1.371   0.060   7.571  0.0491 -0.8872  0.4481
34218SOL    HW212969   1.514   0.088   7.611  0.3316 -0.0210 -1.0908
34219SOL     OW12970   5.875   9.005   0.576  0.1703  0.2622  0.1722
34219SOL    HW112971   5.796   9.057   0.589 -0.0594 -0.5520  2.4669
34219SOL    HW212972   5.845   8.914   0.585  1.6780 -0.0534  4.1889
34220SOL     OW12973  11.268   8.071   5.493 -0.3337  0.3786 -0.6054
34220SOL    HW112974  11.336   8.097   5.431  0.1564 -2.2567 -1.3252
34220SOL    HW212975  11.281   8.127   5.569  2.0053  0.6461 -1.1378
34221SOL     OW12976   0.554   5.827   2.348  0.1036  0.3494 -0.0241
34221SOL    HW112977   0.568   5.909   2.300  0.5443  0.3744  0.1393
34221SOL    HW212978   0.592   5.842   2.434  3.0899 -1.0193 -0.9389
34222SOL     OW12979   4.244   2.189   0.805 -0.1713 -0.5669  0.3828
34222SOL    HW112980   4.182   2.258   0.781 -0.0509 -0.7713 -0.5546
34222SOL    HW212981   4.309   2.190   0.735 -0.4113 -1.9277  0.0961
34223SOL     OW12982   7.962   1.803  10.765  1.1973 -0.2221  0.1503
34223SOL    HW112983   7.967   1.884  10.714  1.4001  0.0473  0.5848
34223SOL    HW212984   7.884   1.814  10.819  1.8579  0.1993  1.0500
34224SOL     OW12985   6.794   7.817   2.872  0.2697 -0.2123  0.3385
34224SOL    HW112986   6.725   7.870   2.831  0.3562 -0.7384 -0.5313
34224SOL    HW212987   6.757   7.729   2.875 -0.1596 -0.0043  2.4455
34225SOL     OW12988   2.943   7.551   1.276 -0.9396 -0.3444 -0.2749
34225SOL    HW112989   2.894   7.469   1.268  1.1585 -1.7007 -0.1610
34225SOL    HW212990   3.002   7.536   1.350 -1.0101  1.5840  0.2223
34226SOL     OW12991   1.914   8.474   5.917  0.3444 -0.1114 -0.3075
34226SOL    HW112992   1.865   8.553   5.939 -0.7624 -0.5195 -1.2077
34226SOL    HW212993   2.000   8.487   5.957 -0.8365  0.1196  2.4181
34227SOL     OW12994   1.739  11.752   4.609  0.9051 -0.3534  0.2545
34227SOL    HW112995   1.731  11.664   4.572  1.5620  0.0368 -0.8761
34227SOL    HW212996   1.710  11.743   4.699  0.5799 -1.6485  0.0392
34228SOL     OW12997  12.766   7.279   8.899  0.3107 -0.3603  0.0489
34228SOL    HW112998  12.725   7.363   8.920 -0.0390 -0.3554 -0.6266
34228SOL    HW212999  12.846   7.278   8.952  0.3972  0.4679 -0.0379
34229SOL     OW13000   9.659   8.891   9.215 -0.1400 -0.1795 -0.1347
34229SOL    HW113001   9.707   8.902   9.296  0.8992 -0.2719 -0.7192
34229SOL    HW213002   9.722   8.912   9.146 -0.9074 -0.3969 -0.9293
34230SOL     OW13003   7.275   9.695   1.977 -0.4904  0.0395  0.4997
34230SOL    HW113004   7.262   9.689   1.882 -3.1039 -0.8642  0.8366
34230SOL    HW213005   7.242   9.782   2.000 -0.4907 -0.0065  0.6686
34231SOL     OW13006   5.594   9.638  10.048  0.0682 -0.2119 -0.1713
34231SOL    HW113007   5.581   9.733  10.051 -1.1891 -0.3793  0.0589
34231SOL    HW213008   5.587   9.610  10.139  0.6590 -0.5105 -0.2118
34232SOL     OW13009   0.093  11.988   2.270 -0.4728 -0.3875  0.6332
34232SOL    HW113010   0.055  11.908   2.305 -0.9604  0.0207  1.0610
34232SOL    HW213011   0.185  11.984   2.293 -0.1728 -1.5117 -0.6295
34233SOL     OW13012  12.485   6.663  12.943 -0.3380  0.2850  0.4134
34233SOL    HW113013  12.401   6.696  12.975 -1.0835 -1.3315  0.2549
34233SOL    HW213014  12.514   6.602  13.011  0.2974  0.2133  0.0868
34234SOL     OW13015   7.649   4.719  11.057 -0.0798 -0.2233  0.2412
34234SOL    HW113016   7.674   4.799  11.011  0.4370  0.1136  1.0670
34234SOL    HW213017   7.558   4.733  11.082 -0.1825 -0.1617 -0.1688
34235SOL     OW13018  10.505   5.321   0.794  1.1114 -0.4126 -0.2980
34235SOL    HW113019  10.462   5.398   0.831  3.0147  0.1734  0.8568
34235SOL    HW213020  10.544   5.277   0.870  1.3624 -1.6764 -1.1307
34236SOL     OW13021   8.974   3.008   2.785  0.0798  0.1849  0.5072
34236SOL    HW113022   8.915   2.952   2.734  2.2616 -0.3154 -1.6695
34236SOL    HW213023   8.943   3.097   2.768  0.5448  0.0084 -1.5406
34237SOL     OW13024  11.300   3.697   6.023 -0.0182 -0.4624  0.7385
34237SOL    HW113025  11.376   3.724   6.073 -0.4671  1.0125  0.6769
34237SOL    HW213026  11.241   3.659   6.088  0.6289 -1.3563  0.8268
34238SOL     OW13027   6.920   0.910  12.279  0.2182 -0.6602  0.3457
34238SOL    HW113028   6.935   0.945  12.191 -0.3526  1.0380  0.8834
34238SOL    HW213029   6.855   0.969  12.317  0.7023 -1.1714  2.0257
34239SOL     OW13030   9.939   6.683   7.795  0.3292  0.1273 -0.0665
34239SOL    HW113031   9.972   6.719   7.712  1.8833 -2.0309 -0.4825
34239SOL    HW213032   9.853   6.648   7.773  1.0600 -1.1583 -1.0531
34240SOL     OW13033   3.726  10.086   9.659  0.2634 -0.0330  0.8394
34240SOL    HW113034   3.783  10.103   9.734 -1.4164  1.6502  1.8254
34240SOL    HW213035   3.641  10.067   9.698 -0.1701 -1.2921 -0.6216
34241SOL     OW13036   4.372   1.980  12.637 -0.1379  0.0149 -0.1131
34241SOL    HW113037   4.363   2.056  12.694 -0.3074  0.5516 -0.8323
34241SOL    HW213038   4.294   1.983  12.581  0.6266  0.2176 -1.1931
34242SOL     OW13039   3.406   0.479   7.336  0.0061 -0.1794 -0.0529
34242SOL    HW113040   3.328   0.516   7.296 -0.2132  0.4953  0.9492
34242SOL    HW213041   3.476   0.540   7.314  0.4125 -1.1135 -1.4911
34243SOL     OW13042  12.156   9.563   3.746  0.4285 -0.0518  0.5995
34243SOL    HW113043  12.202   9.569   3.662 -0.2194 -1.7406  0.0808
34243SOL    HW213044  12.199   9.629   3.801  3.0455 -1.0922 -0.0385
34244SOL     OW13045   5.224   1.164   3.807  0.0613 -0.6068 -0.6086
34244SOL    HW113046   5.193   1.136   3.893  1.4122 -0.8561 -0.1786
34244SOL    HW213047   5.173   1.243   3.788 -2.1842 -2.0331 -0.8390
34245SOL     OW13048   1.078   2.941   7.363  0.4125  0.0151 -0.4956
34245SOL    HW113049   1.000   2.919   7.413  0.0159 -0.2555 -1.2104
34245SOL    HW213050   1.051   3.013   7.307  0.3718 -0.7180 -1.4509
34246SOL     OW13051  10.108   2.701   3.665  0.4527 -0.6259 -0.5689
34246SOL    HW113052  10.163   2.630   3.698  1.1113  0.7366  1.5251
34246SOL    HW213053  10.126   2.706   3.572  1.3303 -2.3773 -0.5113
34247SOL     OW13054   1.887   8.210  11.505  0.4336  0.3436  0.0798
34247SOL    HW113055   1.905   8.182  11.415  0.0735  0.1995  0.0542
34247SOL    HW213056   1.973   8.208  11.548  0.6990  0.9358 -0.4019
34248SOL     OW13057  10.010   3.882   4.313 -0.3533 -0.3485  0.0280
34248SOL    HW113058   9.942   3.816   4.321 -2.6313  1.9638  0.8175
34248SOL    HW213059  10.059   3.877   4.395 -0.5344 -1.0079  0.0954
34249SOL     OW13060   9.560   2.054   8.916 -0.0434 -0.2958 -0.0794
34249SOL    HW113061   9.473   2.073   8.882  0.6763  0.0772 -1.8292
34249SOL    HW213062   9.605   2.009   8.844  1.1001 -0.8038  0.9106
34250SOL     OW13063  10.015  11.520  11.444  0.1437 -0.3313  0.1532
34250SOL    HW113064  10.054  11.529  11.357 -2.3434 -0.4827 -1.0850
34250SOL    HW213065   9.998  11.609  11.473 -0.2593 -0.2990 -0.1635
34251SOL     OW13066   9.142   8.713  11.095 -0.6250 -0.4297 -0.1509
34251SOL    HW113067   9.143   8.801  11.059 -1.2174 -0.3651 -0.0120
34251SOL    HW213068   9.080   8.717  11.168 -0.4221 -0.8812  0.0527
34252SOL     OW13069  10.263  11.632   2.592  0.1039 -0.0403  0.3562
34252SOL    HW113070  10.243  11.545   2.628 -0.1495 -1.3216 -2.6170
34252SOL    HW213071  10.347  11.621   2.548  0.4241  1.4536  0.5418
34253SOL     OW13072   1.860   4.444  11.503  0.0577 -0.2942 -0.0804
34253SOL    HW113073   1.853   4.509  11.432  0.7081  0.5173  0.5820
34253SOL    HW213074   1.952   4.416  11.501 -0.7477 -3.2785 -2.1233
34254SOL     OW13075   2.266   1.530   7.812 -0.1498  0.6386 -0.8413
34254SOL    HW113076   2.345   1.486   7.842 -0.5584  0.9245  0.7415
34254SOL    HW213077   2.297   1.613   7.775  0.3003  0.6804 -0.3760
34255SOL     OW13078  11.063   0.125   2.906 -0.7901  0.2561 -0.3696
34255SOL    HW113079  11.097   0.037   2.920  0.1944  0.7368  0.3941
34255SOL    HW213080  11.044   0.129   2.812 -0.0820 -0.5017 -0.5576
34256SOL     OW13081   8.097   1.392   0.070 -0.0562  0.1669  0.0359
34256SOL    HW113082   8.179   1.414   0.026 -1.0745  2.8519 -0.6951
34256SOL    HW213083   8.061   1.320   0.018  0.7081  0.5360 -1.0541
34257SOL     OW13084  10.583   8.240   3.672 -1.0304  0.3924  0.1259
34257SOL    HW113085  10.514   8.202   3.618 -1.7712  4.0111 -1.7877
34257SOL    HW213086  10.659   8.245   3.615 -0.3098 -0.0257  1.0072
34258SOL     OW13087   3.747   0.187   1.722  0.0439 -0.2563 -0.4241
34258SOL    HW113088   3.680   0.238   1.767  0.2994 -0.0489 -0.2687
34258SOL    HW213089   3.699   0.128   1.665 -0.2650  0.0013 -0.4328
34259SOL     OW13090   8.652   9.645  11.756  0.2556 -0.3327 -0.4393
34259SOL    HW113091   8.650   9.550  11.772 -0.6254 -0.1761  0.5051
34259SOL    HW213092   8.607   9.657  11.673  0.4516 -0.7479 -0.6081
34260SOL     OW13093   4.562  10.915   1.643 -0.8831  0.0370  0.0389
34260SOL    HW113094   4.604  10.857   1.706 -1.4232 -0.4224 -0.0240
34260SOL    HW213095   4.551  10.862   1.564 -1.0070  0.3446 -0.1542
34261SOL     OW13096   2.992   8.572   2.889 -0.0151 -0.7810  0.7523
34261SOL    HW113097   3.056   8.549   2.957 -0.1477 -1.1731  0.7453
34261SOL    HW213098   2.955   8.488   2.862  1.0556 -0.7988 -0.8076
34262SOL     OW13099   8.742  11.816   3.714 -0.2790  0.6070  0.3977
34262SOL    HW113100   8.827  11.860   3.705 -0.9110  1.7181 -0.4157
34262SOL    HW213101   8.742  11.750   3.645 -0.4486  1.2395 -0.2105
34263SOL     OW13102   8.035   7.282   6.823  0.6059  0.1577  0.0573
34263SOL    HW113103   8.068   7.363   6.861 -0.1697 -0.1407  1.4448
34263SOL    HW213104   8.002   7.232   6.898  0.1526 -1.0096 -0.8818
34264SOL     OW13105   4.811   1.262  12.148  0.0117 -0.8193  0.3162
34264SOL    HW113106   4.814   1.269  12.052  0.7603 -0.8943  0.3312
34264SOL    HW213107   4.724   1.294  12.171 -0.1409 -0.7116 -0.3842
34265SOL     OW13108   1.381   1.035  10.837  0.4396 -0.0931 -0.3704
34265SOL    HW113109   1.329   1.032  10.757 -1.3006 -0.4771  0.7269
34265SOL    HW213110   1.331   0.984  10.901  1.3541  0.8803  1.2057
34266SOL     OW13111   9.386   8.402   4.790  0.0989 -0.3126 -0.4483
34266SOL    HW113112   9.442   8.421   4.866  0.0848 -1.6006 -0.1048
34266SOL    HW213113   9.298   8.427   4.819  0.1608 -0.3805 -0.1930
34267SOL     OW13114  12.615  11.389   9.289  0.1740 -0.9468  0.2756
34267SOL    HW113115  12.616  11.319   9.354  3.2863 -0.8340  0.5196
34267SOL    HW213116  12.644  11.346   9.208  0.1668 -0.3316 -0.0600
34268SOL     OW13117   6.916   3.409   4.754  0.1512 -0.0416  0.1259
34268SOL    HW113118   6.838   3.419   4.809  0.6451  0.0340  0.8418
34268SOL    HW213119   6.983   3.377   4.815  0.8965  0.6848 -0.2942
34269SOL     OW13120  12.951   1.364   2.029 -0.1887  0.0933  0.0423
34269SOL    HW113121  12.916   1.352   1.941 -1.1680  0.8187  0.3199
34269SOL    HW213122  13.024   1.426   2.018 -0.7020  0.6659 -0.1742
34270SOL     OW13123   4.543   9.416   8.720 -0.4100 -0.2294 -0.1788
34270SOL    HW113124   4.476   9.480   8.696  0.1394 -0.0714 -1.4049
34270SOL    HW213125   4.611   9.467   8.764  0.0337  0.0624 -1.1658
34271SOL     OW13126   7.078  11.965  11.043  0.6543 -0.3124  0.6340
34271SOL    HW113127   7.038  11.935  10.961 -0.7110 -3.3427  2.2539
34271SOL    HW213128   7.018  12.033  11.075 -1.6816 -2.6056  1.4615
34272SOL     OW13129  12.941   7.924   7.651  0.3999 -0.0652  0.1621
34272SOL    HW113130  12.920   7.960   7.737  0.2346  0.4513 -0.0887
34272SOL    HW213131  12.870   7.954   7.594  1.8235  1.8880 -0.7508
34273SOL     OW13132   7.451   0.174   2.052  0.2413 -0.0018  0.1230
34273SOL    HW113133   7.412   0.231   2.118  0.3372  0.6812 -0.3923
34273SOL    HW213134   7.442   0.086   2.087 -1.3046  0.1852  0.2416
34274SOL     OW13135  12.071  11.335  10.284  0.2473 -0.0788  0.1517
34274SOL    HW113136  12.120  11.402  10.331  0.2059  0.4760 -0.5687
34274SOL    HW213137  12.130  11.308  10.214 -1.0392  1.8486 -1.8179
34275SOL     OW13138   2.498   3.769   8.395  0.0659 -0.0396 -0.4767
34275SOL    HW113139   2.427   3.796   8.454 -0.5235 -0.2332 -1.0776
34275SOL    HW213140   2.572   3.752   8.452 -0.6412 -0.7198  0.2705
34276SOL     OW13141  12.303  11.903   2.316  0.3161 -0.1277 -0.4266
34276SOL    HW113142  12.266  11.848   2.385  0.0625  1.6118  0.8841
34276SOL    HW213143  12.230  11.917   2.255 -0.1802  0.3593  0.2725
34277SOL     OW13144   0.930   5.372  10.916 -0.2083  0.3249 -0.3168
34277SOL    HW113145   0.882   5.409  10.842 -0.0739  0.7151 -0.2114
34277SOL    HW213146   0.928   5.278  10.901 -0.4707  0.3793 -0.6410
34278SOL     OW13147   4.854   7.870   8.560 -0.4037 -0.3045 -0.2567
34278SOL    HW113148   4.857   7.777   8.536  0.1477 -0.5213  0.6075
34278SOL    HW213149   4.886   7.873   8.650  0.1746  0.7911 -0.4742
34279SOL     OW13150   0.227   5.671   2.485 -0.0529 -0.3826 -0.3286
34279SOL    HW113151   0.306   5.713   2.517 -0.9710  1.9553 -0.8973
34279SOL    HW213152   0.161   5.689   2.552  0.2035 -3.8378  1.0194
34280SOL     OW13153   7.820  11.129  12.940 -0.1076  0.9010  0.1938
34280SOL    HW113154   7.826  11.121  12.845 -1.7844 -1.0371  0.1948
34280SOL    HW213155   7.892  11.075  12.973 -0.7242 -0.0394  0.0248
34281SOL     OW13156   2.243   3.664   5.209 -0.4426 -0.0196 -0.7109
34281SOL    HW113157   2.195   3.745   5.229 -1.2943 -0.5728 -0.4728
34281SOL    HW213158   2.177   3.605   5.173  0.4580 -0.1115 -2.3298
34282SOL     OW13159   5.857   3.763   2.857 -0.5947 -0.1800 -0.3494
34282SOL    HW113160   5.895   3.780   2.943 -0.2791  0.2811 -0.5779
34282SOL    HW213161   5.887   3.675   2.834 -0.4666 -0.1989 -0.1022
34283SOL     OW13162   5.347   9.029   8.222 -0.5107  0.1359  0.3461
34283SOL    HW113163   5.439   9.053   8.224 -0.0951 -1.0832 -1.1759
34283SOL    HW213164   5.305   9.097   8.169 -0.3927  0.4465  0.6554
34284SOL     OW13165  10.971   0.936   5.939  0.3666  0.2669  0.3961
34284SOL    HW113166  10.969   0.981   6.023 -2.0012 -1.9414  1.6761
34284SOL    HW213167  11.021   0.856   5.956 -0.5228 -0.4231 -0.1256
34285SOL     OW13168   9.627   3.838   9.604  0.0733  0.1784  0.1093
34285SOL    HW113169   9.674   3.865   9.683 -1.0688  0.8091  0.5950
34285SOL    HW213170   9.550   3.896   9.601 -2.1553 -2.5278  0.8577
34286SOL     OW13171   3.289  10.816   0.076  0.1936 -0.7883 -0.1278
34286SOL    HW113172   3.343  10.747   0.040 -1.3972 -1.9348 -0.4285
34286SOL    HW213173   3.288  10.799   0.171  0.6593 -0.5148 -0.0680
34287SOL     OW13174   9.379  10.140   1.334 -1.1819 -0.1827 -0.1267
34287SOL    HW113175   9.356  10.219   1.384 -0.1266  0.2301 -0.2620
34287SOL    HW213176   9.406  10.173   1.249  2.1428 -0.3323  0.7222
34288SOL     OW13177   6.762   8.718   7.488  0.0074 -0.1421  0.7503
34288SOL    HW113178   6.676   8.696   7.452  0.3994 -0.7096  0.1396
34288SOL    HW213179   6.750   8.715   7.583 -0.3726 -1.3517  0.6745
34289SOL     OW13180   6.801   0.269   9.058  0.5938  0.5645 -0.5136
34289SOL    HW113181   6.764   0.230   9.137 -0.1374  1.9396 -0.1554
34289SOL    HW213182   6.773   0.360   9.061  1.8677  1.0104 -1.5755
34290SOL     OW13183   2.787   6.510   3.815 -0.5847 -0.0311  0.4076
34290SOL    HW113184   2.879   6.505   3.839  0.3830  0.3278 -2.7306
34290SOL    HW213185   2.771   6.432   3.762 -1.4087  0.9834 -0.9210
34291SOL     OW13186   0.085   6.337  12.303 -0.3639 -0.5726  0.1274
34291SOL    HW113187   0.120   6.248  12.296  0.6093 -0.0991 -1.8901
34291SOL    HW213188   0.108   6.365  12.392  0.7050 -1.7929  0.2740
34292SOL     OW13189   4.023   2.769   9.645 -0.0889 -0.0555 -1.1968
34292SOL    HW113190   4.058   2.817   9.720 -0.3968  0.8877 -1.6467
34292SOL    HW213191   4.066   2.683   9.650  0.5374  0.2881 -0.4331
34293SOL     OW13192   1.137   4.988   1.760 -0.0699 -0.0855  0.4046
34293SOL    HW113193   1.162   4.989   1.852 -1.0645  0.2383  0.6830
34293SOL    HW213194   1.155   5.077   1.729 -0.6393  0.0792  0.5420
34294SOL     OW13195   8.396   8.957  12.332  0.5451 -0.4440 -0.4727
34294SOL    HW113196   8.433   9.043  12.316  0.7983 -0.8016 -1.9884
34294SOL    HW213197   8.380   8.954  12.427  0.6356  1.2027 -0.3834
34295SOL     OW13198   6.627   4.861   8.549  0.0334  0.0025 -0.8661
34295SOL    HW113199   6.638   4.790   8.611 -1.8470 -0.1342 -0.6495
34295SOL    HW213200   6.582   4.930   8.598  0.6904  0.8596 -1.4240
34296SOL     OW13201   9.088  12.115  11.064 -0.3598  0.1416 -0.4123
34296SOL    HW113202   9.094  12.032  11.018  0.1868 -0.6545  1.0117
34296SOL    HW213203   9.153  12.171  11.022  0.3578 -0.6634 -0.3997
34297SOL     OW13204   9.614   4.084   4.667 -0.0374 -0.6365  0.0129
34297SOL    HW113205   9.709   4.072   4.662  0.3853  1.9644  0.5395
34297SOL    HW213206   9.589   4.115   4.580 -0.5890 -2.1881 -0.4087
34298SOL     OW13207   3.078   1.228   1.301 -0.0113 -0.4987  0.1833
34298SOL    HW113208   3.090   1.304   1.358 -1.4672 -0.2285  0.1766
34298SOL    HW213209   3.153   1.231   1.241  1.4915 -0.7352  1.9803
34299SOL     OW13210   2.512  11.722  12.385  0.3575 -0.1028 -0.0294
34299SOL    HW113211   2.508  11.755  12.475  0.2491 -0.2300  0.0137
34299SOL    HW213212   2.465  11.638  12.388 -0.5888  0.3971 -0.4310
34300SOL     OW13213   5.466   1.527   2.116 -0.0710 -0.1665 -0.3640
34300SOL    HW113214   5.465   1.518   2.211 -0.9119  0.5730 -0.2945
34300SOL    HW213215   5.559   1.534   2.094  0.1369 -0.4409  0.3866
34301SOL     OW13216   9.997   0.287   0.002  0.2307 -0.1778  0.0357
34301SOL    HW113217  10.066   0.352   0.018  0.3699 -0.1789 -0.5137
34301SOL    HW213218  10.026   0.241  -0.077  0.3330 -1.1779  0.6333
34302SOL     OW13219   9.710   2.183   8.537 -0.3817 -0.4540 -0.1246
34302SOL    HW113220   9.799   2.206   8.510 -0.2485 -1.4025 -0.5201
34302SOL    HW213221   9.655   2.249   8.495 -0.0575 -1.1314 -1.7028
34303SOL     OW13222   2.848   1.861   2.841 -0.3570  0.0605  0.5740
34303SOL    HW113223   2.818   1.951   2.834 -0.1798  0.1006  0.2869
34303SOL    HW213224   2.770   1.811   2.866 -0.8856  0.0364 -1.0076
34304SOL     OW13225   5.895   2.382   2.583  0.2316 -0.1846  0.3996
34304SOL    HW113226   5.861   2.301   2.622  1.5378 -0.3675  1.2280
34304SOL    HW213227   5.984   2.390   2.618  0.8233  0.5971 -1.1776
34305SOL     OW13228   1.477   3.949   8.269 -0.3083 -0.2809 -0.4280
34305SOL    HW113229   1.570   3.947   8.246 -0.1578 -0.1270  0.1551
34305SOL    HW213230   1.447   3.859   8.254 -0.1894 -0.2140 -1.0970
34306SOL     OW13231   4.426  12.658   1.180 -0.4600  0.4648 -0.2076
34306SOL    HW113232   4.470  12.603   1.116  0.9695  0.5054  0.6781
34306SOL    HW213233   4.361  12.708   1.130  1.7308  1.7558 -1.9604
34307SOL     OW13234   5.734   7.248   5.880 -0.1440  0.0392 -0.2002
34307SOL    HW113235   5.746   7.329   5.929 -0.3296  0.5226 -0.9449
34307SOL    HW213236   5.811   7.195   5.901 -0.6079 -0.1101  1.2623
34308SOL     OW13237   0.623   3.747  12.451 -0.5922  0.2213  0.2356
34308SOL    HW113238   0.692   3.804  12.417 -0.6479 -0.3793 -0.9419
34308SOL    HW213239   0.666   3.663  12.464 -0.9474  0.0241  0.1442
34309SOL     OW13240   1.257   8.307   2.758  0.5844  0.1675  0.1664
34309SOL    HW113241   1.180   8.306   2.815 -1.2157  1.4200 -2.1065
34309SOL    HW213242   1.299   8.391   2.777  0.3853  0.2776  0.1166
34310SOL     OW13243   8.169   5.591   4.805 -0.2925  0.3360  0.1415
34310SOL    HW113244   8.242   5.600   4.867 -0.6991  0.9583  0.5426
34310SOL    HW213245   8.105   5.537   4.852  0.6483 -1.8132 -0.9072
34311SOL     OW13246  11.099   3.683   9.082 -0.1276 -0.4428 -0.1515
34311SOL    HW113247  11.027   3.619   9.081  0.0029 -0.5937  0.0030
34311SOL    HW213248  11.108   3.706   9.174  0.2294 -0.6568 -0.1347
34312SOL     OW13249   4.089   2.498  10.787 -0.2372 -0.0683  0.3225
34312SOL    HW113250   4.040   2.482  10.706  0.8487  0.3227 -0.4257
34312SOL    HW213251   4.180   2.504  10.759  0.0267  1.3959  1.3892
34313SOL     OW13252   5.322   4.809   5.048  1.0261 -0.3429  0.1520
34313SOL    HW113253   5.309   4.717   5.024 -0.3988 -1.1337  3.4108
34313SOL    HW213254   5.417   4.819   5.057  1.3029 -1.0383 -1.5794
34314SOL     OW13255  10.416  12.328   2.723  0.3088 -0.3203  0.3269
34314SOL    HW113256  10.474  12.310   2.797  0.1699 -0.9855  0.2787
34314SOL    HW213257  10.474  12.330   2.647  0.2795 -0.9507  0.2835
34315SOL     OW13258   5.578   8.811   2.053 -0.4695  0.0379  0.1843
34315SOL    HW113259   5.603   8.897   2.018  0.9751 -0.3549  0.1944
34315SOL    HW213260   5.522   8.831   2.128  0.0468  0.9762  0.3364
34316SOL     OW13261   1.491   7.696  11.633 -0.8760  0.4980 -0.2351
34316SOL    HW113262   1.470   7.747  11.555  1.5771  0.6755 -0.8595
34316SOL    HW213263   1.571   7.649  11.610  0.0909  0.7674  2.2320
34317SOL     OW13264   6.090   7.912   0.144 -0.0031  0.2246 -0.4184
34317SOL    HW113265   6.166   7.925   0.088 -0.1019  1.5346 -0.2806
34317SOL    HW213266   6.016   7.904   0.083 -0.1543  1.9456 -0.5278
34318SOL     OW13267   6.889   1.917   3.312  0.0048 -0.1727  0.3097
34318SOL    HW113268   6.956   1.879   3.256 -0.8355 -0.9184 -0.2309
34318SOL    HW213269   6.827   1.958   3.251  1.2537  2.8085  0.8972
34319SOL     OW13270   4.695   9.756  11.709  0.0679  0.3378  0.4126
34319SOL    HW113271   4.608   9.720  11.695  1.0192 -1.7868 -0.5889
34319SOL    HW213272   4.710   9.813  11.634 -0.2953  0.3592  0.3540
34320SOL     OW13273  11.480   1.842  12.441 -0.7312 -0.1209  0.4273
34320SOL    HW113274  11.418   1.814  12.508 -1.2660  1.5440  0.6635
34320SOL    HW213275  11.497   1.934  12.461 -0.7613  0.3678 -1.6043
34321SOL     OW13276  11.062   8.198   8.828 -0.0565  0.5421 -0.4094
34321SOL    HW113277  11.053   8.129   8.894  0.9776  0.0732 -0.7336
34321SOL    HW213278  11.123   8.162   8.764 -2.0346  0.4796 -2.3275
34322SOL     OW13279  11.557   5.813   6.619  0.1780  0.3189  0.1524
34322SOL    HW113280  11.518   5.748   6.676  0.7214 -1.3759 -1.3144
34322SOL    HW213281  11.507   5.807   6.537  2.0921 -0.4084 -1.0246
34323SOL     OW13282   9.532   5.323   4.829 -0.6460  0.1230 -0.1667
34323SOL    HW113283   9.575   5.243   4.800 -2.2820 -0.8248 -0.0973
34323SOL    HW213284   9.544   5.385   4.757  1.1893  0.0694  0.0426
34324SOL     OW13285   7.943  10.078  11.592  0.3945 -0.1322 -0.3002
34324SOL    HW113286   7.893  10.130  11.655  0.6460 -0.3067  0.0482
34324SOL    HW213287   7.943  10.131  11.512 -1.2310 -0.6006 -0.6485
34325SOL     OW13288   3.901   1.798   1.099  0.0106 -0.1239  0.6864
34325SOL    HW113289   3.888   1.892   1.110  0.7850  0.0508  0.2069
34325SOL    HW213290   3.842   1.758   1.162  0.2035  0.7069  1.4127
34326SOL     OW13291   1.801   9.226   6.291 -0.2035 -0.2294  0.6751
34326SOL    HW113292   1.892   9.197   6.300  0.2352  0.7336 -0.4515
34326SOL    HW213293   1.773   9.244   6.381 -0.1498 -2.9493  1.3094
34327SOL     OW13294   7.448   1.838  11.363  0.3862  0.3041 -0.1845
34327SOL    HW113295   7.539   1.863  11.344  0.6512 -0.4931 -0.0010
34327SOL    HW213296   7.447   1.820  11.457  0.7187 -2.2671 -0.5864
34328SOL     OW13297   9.553  10.643   2.642  0.0986  0.1112  0.2077
34328SOL    HW113298   9.642  10.626   2.673 -0.0652 -0.3156  0.4643
34328SOL    HW213299   9.558  10.632   2.547  0.6990  1.8393  0.0127
34329SOL     OW13300   4.280  11.939   7.459  0.0650  0.3364 -0.6693
34329SOL    HW113301   4.293  11.988   7.378 -1.9452  0.7700 -0.7755
34329SOL    HW213302   4.259  12.006   7.524 -0.9005 -0.2127 -0.3960
34330SOL     OW13303   2.967   9.181   5.551 -0.1681  0.3917 -0.9201
34330SOL    HW113304   3.011   9.174   5.466 -0.6059  1.4366 -1.2517
34330SOL    HW213305   2.874   9.186   5.529 -0.3105  0.2526 -0.3524
34331SOL     OW13306   2.692   2.191   1.112 -0.0075 -0.1264 -0.1687
34331SOL    HW113307   2.724   2.149   1.033  1.6457 -0.7428  0.7953
34331SOL    HW213308   2.689   2.122   1.177  0.5630  0.7598  0.8331
34332SOL     OW13309  10.466   9.374   2.142  0.3278  0.4046  0.1903
34332SOL    HW113310  10.500   9.314   2.208  0.0662  1.8356  1.6910
34332SOL    HW213311  10.457   9.458   2.187  0.2524  1.4900 -1.7020
34333SOL     OW13312   3.774  12.070  11.752 -0.5365  0.2746  0.2099
34333SOL    HW113313   3.755  12.009  11.680  2.4691  0.0105 -0.4906
34333SOL    HW213314   3.750  12.022  11.831 -1.3173 -0.4992 -0.4731
34334SOL     OW13315   9.742   6.462   5.257 -0.8143 -0.2790 -0.2998
34334SOL    HW113316   9.690   6.406   5.200  0.0024  1.4406 -2.8821
34334SOL    HW213317   9.825   6.416   5.267 -0.5331 -0.0625 -1.5204
34335SOL     OW13318  10.600   0.824   1.783 -0.2007  0.5971  0.0692
34335SOL    HW113319  10.642   0.764   1.845 -0.5688 -0.4080 -0.6497
34335SOL    HW213320  10.673   0.862   1.734  0.0659  1.1034  0.8344
34336SOL     OW13321  11.448   3.615   9.255  0.3526 -0.4613 -0.2386
34336SOL    HW113322  11.362   3.642   9.286 -0.6392 -1.1291 -2.2098
34336SOL    HW213323  11.481   3.691   9.206 -1.1845 -1.5971 -3.3288
34337SOL     OW13324   8.799   1.011  12.913 -0.1696 -0.5842 -0.2333
34337SOL    HW113325   8.849   1.069  12.970 -0.5840 -1.2995  0.8921
34337SOL    HW213326   8.802   0.926  12.957 -0.7138 -1.1027 -1.1582
34338SOL     OW13327   1.622   2.570   9.293 -0.0404  0.0505  0.3291
34338SOL    HW113328   1.640   2.560   9.387  0.6261  0.0513  0.2062
34338SOL    HW213329   1.681   2.507   9.251 -0.5140 -0.1254 -0.0772
34339SOL     OW13330   9.911   1.249   1.714 -0.1519 -0.5785  0.2556
34339SOL    HW113331   9.972   1.202   1.658 -0.1862  0.6099 -0.8206
34339SOL    HW213332   9.838   1.272   1.657 -0.2212  0.5964  0.7849
34340SOL     OW13333  10.007   5.002   8.475 -0.9731 -0.0073  0.3172
34340SOL    HW113334  10.042   4.921   8.512  1.0768 -0.1603 -1.7532
34340SOL    HW213335  10.075   5.068   8.492 -1.2478  0.5517 -0.6752
34341SOL     OW13336   5.960   2.068  12.490 -0.4564 -0.4154 -0.2055
34341SOL    HW113337   5.883   2.085  12.437 -0.6633 -2.4550 -0.6104
34341SOL    HW213338   5.974   2.150  12.538 -2.8323  0.0142 -0.1349
34342SOL     OW13339   8.438  10.560   7.710  0.0043  0.4708  0.0544
34342SOL    HW113340   8.501  10.620   7.750  0.1032  0.3909  0.0170
34342SOL    HW213341   8.429  10.488   7.771  0.6954 -0.0002 -0.3929
34343SOL     OW13342  12.698   4.032   8.942 -0.9160  0.2800  0.0483
34343SOL    HW113343  12.727   4.014   9.031  0.7137  0.7182 -0.3564
34343SOL    HW213344  12.660   3.949   8.912  3.3587 -1.7093 -0.6228
34344SOL     OW13345   1.168   7.043  11.152  0.6651  0.3290 -0.0780
34344SOL    HW113346   1.240   6.988  11.182 -0.2526 -1.9637 -1.7792
34344SOL    HW213347   1.089   7.002  11.188 -0.0146  0.9012 -0.8568
34345SOL     OW13348   9.044   6.267   0.522  0.4372 -0.1587 -0.3220
34345SOL    HW113349   9.092   6.199   0.568  1.9498  1.3054  0.3479
34345SOL    HW213350   8.971   6.289   0.580  0.4597 -0.5732 -0.1375
34346SOL     OW13351   7.192  10.946   6.432  0.3691 -0.1028 -0.1128
34346SOL    HW113352   7.257  10.990   6.376  0.0197  1.3919  0.6012
34346SOL    HW213353   7.144  10.889   6.372  0.3148  1.0983 -1.2630
34347SOL     OW13354   2.601  12.074   7.594  0.0352  0.0878 -0.1498
34347SOL    HW113355   2.581  12.016   7.667  1.1982  0.5715  0.5743
34347SOL    HW213356   2.617  12.015   7.520  0.5150 -0.4780  0.4026
34348SOL     OW13357   2.023  10.187   9.110  0.0278 -0.5605  0.0797
34348SOL    HW113358   1.960  10.161   9.042  0.2930  0.0047 -0.4019
34348SOL    HW213359   2.108  10.166   9.072  0.2226  0.5052 -0.1215
34349SOL     OW13360   8.572  10.131   2.229 -0.5024 -0.7322 -0.5208
34349SOL    HW113361   8.651  10.083   2.254  1.8982  3.2184  0.2452
34349SOL    HW213362   8.585  10.153   2.137  0.1124  1.1995 -0.0119
34350SOL     OW13363  12.052  11.901   3.087  0.2708 -0.7223 -0.5295
34350SOL    HW113364  12.017  11.812   3.096 -0.3985 -0.4170  0.0368
34350SOL    HW213365  11.985  11.948   3.037  1.1601 -0.8245 -1.8480
34351SOL     OW13366   7.236  12.334   8.610 -0.5122 -0.2773 -0.0971
34351SOL    HW113367   7.226  12.247   8.571 -1.2453 -0.3430  0.2156
34351SOL    HW213368   7.318  12.329   8.658 -0.2244 -0.5920 -0.6132
34352SOL     OW13369   3.890   5.447   7.932  0.0482 -0.0971 -0.2797
34352SOL    HW113370   3.977   5.486   7.933 -0.6492  1.5545 -0.0668
34352SOL    HW213371   3.900   5.368   7.879  1.5675  0.3182 -0.6730
34353SOL     OW13372  12.964   0.354   3.380 -0.2669  0.4330 -0.6356
34353SOL    HW113373  12.965   0.298   3.302  3.4288 -0.3653 -0.2039
34353SOL    HW213374  12.934   0.296   3.450 -2.0890  0.7301 -1.1075
34354SOL     OW13375   1.299   8.112  12.116 -0.5483 -0.4070  0.2552
34354SOL    HW113376   1.337   8.027  12.093  0.5433  0.3648 -0.9040
34354SOL    HW213377   1.294   8.159  12.033 -1.4675  0.5460  0.8335
34355SOL     OW13378  11.417   5.437   2.009 -0.3029 -0.1401 -0.0664
34355SOL    HW113379  11.365   5.434   2.089 -1.5631  1.2363 -0.7793
34355SOL    HW213380  11.467   5.518   2.016  0.3566 -0.5259 -0.2324
34356SOL     OW13381   1.416   4.252   6.385  0.3948  0.0310  0.4879
34356SOL    HW113382   1.505   4.254   6.421 -0.2977  1.7533  2.2785
34356SOL    HW213383   1.381   4.167   6.411  1.2153 -0.3069  0.5203
34357SOL     OW13384   0.410   2.908   0.457 -0.2596 -0.3740 -0.1838
34357SOL    HW113385   0.406   2.852   0.380 -0.6670  1.0790 -1.2679
34357SOL    HW213386   0.327   2.895   0.502  0.0939 -1.4359  0.1952
34358SOL     OW13387  12.813   0.987   6.794  0.9701 -0.2519 -0.0448
34358SOL    HW113388  12.869   0.944   6.729  1.4647  1.0999 -0.5417
34358SOL    HW213389  12.840   1.079   6.792 -0.0312  0.0865  1.0205
34359SOL     OW13390   9.116   7.649   4.472 -0.7634  0.0335 -0.1548
34359SOL    HW113391   9.124   7.656   4.377 -0.9899  0.2154 -0.1607
34359SOL    HW213392   9.174   7.577   4.495  0.7888  1.2272 -0.2111
34360SOL     OW13393  11.167   6.084  11.804  0.2025  0.1747  0.5504
34360SOL    HW113394  11.103   6.130  11.749  0.2296 -1.5530 -1.0180
34360SOL    HW213395  11.149   6.115  11.893 -0.0536  2.8535 -0.3344
34361SOL     OW13396   1.441  12.708  10.088  0.2052  0.0396 -0.1262
34361SOL    HW113397   1.349  12.682  10.091  0.3165 -0.5740 -1.5142
34361SOL    HW213398   1.489  12.629  10.113  0.4250 -0.3145 -1.5753
34362SOL     OW13399  11.947   3.399  10.356 -0.3070  0.0415  0.4366
34362SOL    HW113400  11.978   3.423  10.444  1.2817 -1.0523  0.2196
34362SOL    HW213401  11.987   3.464  10.298  0.9807 -0.8796  0.2491
34363SOL     OW13402  11.499   6.895   0.562  0.0143  0.0260 -0.0186
34363SOL    HW113403  11.476   6.985   0.540  0.8156  0.0290 -0.9165
34363SOL    HW213404  11.460   6.842   0.493 -0.6725 -0.3661  0.6430
34364SOL     OW13405   2.843   8.343  11.921 -0.0394 -0.2523  0.0273
34364SOL    HW113406   2.892   8.347  11.839 -0.1954  1.3234 -0.0122
34364SOL    HW213407   2.788   8.264  11.913  0.2405 -0.3361 -1.1948
34365SOL     OW13408  10.567   8.120  10.795  0.1258  0.1375  0.6446
34365SOL    HW113409  10.488   8.132  10.848  0.4668  0.0533  1.1900
34365SOL    HW213410  10.543   8.054  10.731  0.2928 -1.2910  1.9862
34366SOL     OW13411   9.234   7.394   5.127  0.5740  0.6216 -0.4360
34366SOL    HW113412   9.229   7.299   5.138  1.7442  0.3706 -1.8052
34366SOL    HW213413   9.169   7.429   5.188 -0.0055 -1.0618 -0.0474
34367SOL     OW13414  11.341   3.461   8.413  0.0630 -0.1391  0.4065
34367SOL    HW113415  11.325   3.415   8.496  1.3249 -0.1907  0.6365
34367SOL    HW213416  11.432   3.442   8.392 -0.5912 -1.2472 -1.7167
34368SOL     OW13417   3.023   0.940   7.252  0.5707 -0.4544 -0.0325
34368SOL    HW113418   3.089   0.885   7.210 -0.7577 -1.6193 -0.6698
34368SOL    HW213419   2.953   0.947   7.188 -0.4657 -0.2681  1.0735
34369SOL     OW13420   2.931   0.428   2.008 -0.3319  0.2123  0.2272
34369SOL    HW113421   2.885   0.356   2.051 -0.5407  0.1567 -0.0851
34369SOL    HW213422   3.010   0.440   2.060 -0.2179 -0.3450  0.1880
34370SOL     OW13423   7.661  12.655   0.321  0.0523 -0.0313  0.0513
34370SOL    HW113424   7.677  12.566   0.351  0.3001 -0.1231 -0.3498
34370SOL    HW213425   7.703  12.660   0.235  0.2711  0.5486  0.1837
34371SOL     OW13426   1.003   2.311   9.161  0.5685 -0.1095 -0.1872
34371SOL    HW113427   1.052   2.280   9.237  0.5575 -0.8416 -0.4652
34371SOL    HW213428   0.984   2.403   9.180 -0.2863 -0.5300  1.1445
34372SOL     OW13429  12.728  12.274   0.173  0.1168  0.4613  0.0290
34372SOL    HW113430  12.736  12.179   0.177  1.0808  0.3390 -2.7698
34372SOL    HW213431  12.790  12.306   0.239 -0.9313 -0.7735  1.7172
34373SOL     OW13432  11.514  11.129   0.156 -0.1211  1.0199  0.4403
34373SOL    HW113433  11.577  11.062   0.185 -0.9635 -0.2477 -0.5441
34373SOL    HW213434  11.428  11.088   0.170 -0.6107  1.2749 -1.6022
34374SOL     OW13435   0.225   6.795  12.033  0.3603  0.3693  0.0488
34374SOL    HW113436   0.286   6.840  11.975 -0.2509 -0.0637 -0.9595
34374SOL    HW213437   0.147   6.782  11.979  0.0987 -0.8427  0.6945
34375SOL     OW13438   7.228  10.870  12.595 -0.4743  0.0389  0.0967
34375SOL    HW113439   7.191  10.865  12.507  0.2596  0.3213 -0.2363
34375SOL    HW213440   7.275  10.788  12.607  2.0037  1.2060 -0.9837
34376SOL     OW13441  11.962  10.837   3.184 -0.1593 -0.1490  0.2119
34376SOL    HW113442  11.929  10.826   3.094 -4.4086 -1.8568  1.7093
34376SOL    HW213443  11.945  10.929   3.204 -0.7632 -0.1511 -0.2340
34377SOL     OW13444   9.482  10.355   3.767  0.1458 -0.0922 -0.5301
34377SOL    HW113445   9.446  10.349   3.855 -0.5670 -0.2598 -0.8210
34377SOL    HW213446   9.405  10.347   3.709  0.6217 -0.1803 -1.1653
34378SOL     OW13447   3.051   0.065   0.739  0.2710  0.2731  1.0198
34378SOL    HW113448   2.962   0.043   0.767 -0.2607 -3.4781 -2.6639
34378SOL    HW213449   3.100  -0.017   0.751  2.5097  1.4480  0.3837
34379SOL     OW13450  11.870  11.097  12.378  0.1501  0.6092  0.4211
34379SOL    HW113451  11.829  11.060  12.300 -0.1236  0.0853  0.8062
34379SOL    HW213452  11.802  11.150  12.419 -0.2439 -0.4272  1.1722
34380SOL     OW13453  11.980   9.980   8.216 -0.6777  0.3460  0.0459
34380SOL    HW113454  12.037   9.992   8.140 -0.7538  0.1800 -0.0400
34380SOL    HW213455  12.016  10.038   8.283 -0.6047  0.4886 -0.1156
34381SOL     OW13456  10.852   9.414   0.191  0.4965 -0.5187  0.2208
34381SOL    HW113457  10.775   9.457   0.154  0.2706  1.0159  2.2920
34381SOL    HW213458  10.823   9.324   0.209 -0.1933 -0.5044 -0.7691
34382SOL     OW13459   8.453   8.022   9.439 -0.0296 -0.3527  0.0385
34382SOL    HW113460   8.400   8.039   9.517  1.1917  1.7933  0.4643
34382SOL    HW213461   8.442   8.100   9.385  0.8490 -0.8849 -0.9319
34383SOL     OW13462   6.181  11.467   9.190 -0.1001  0.1426  0.6676
34383SOL    HW113463   6.254  11.456   9.129 -0.7544  0.1843 -0.1458
34383SOL    HW213464   6.158  11.559   9.184 -2.1862 -0.3973 -1.4670
34384SOL     OW13465   2.842   3.982  11.655  0.5665 -0.3729 -0.0253
34384SOL    HW113466   2.931   3.949  11.667  0.3021 -1.2338 -0.3641
34384SOL    HW213467   2.851   4.055  11.594  1.1507  0.1439  0.6668
34385SOL     OW13468   6.579   2.685   1.411 -0.5205 -0.0803  0.3938
34385SOL    HW113469   6.509   2.671   1.475 -0.7497  0.4524  0.2646
34385SOL    HW213470   6.534   2.701   1.328 -0.2186 -1.0333  0.0349
34386SOL     OW13471  11.137  11.791  11.344 -0.0767 -0.2691 -0.2829
34386SOL    HW113472  11.232  11.802  11.348  0.0215 -1.1398  0.2218
34386SOL    HW213473  11.125  11.703  11.309 -0.6803 -0.3757  0.1712
34387SOL     OW13474   2.141   6.988   2.799  0.1411  0.2230  0.0561
34387SOL    HW113475   2.123   6.921   2.733 -2.2491  0.2935  0.5376
34387SOL    HW213476   2.055   7.018   2.827  1.0965  1.2759  2.1232
34388SOL     OW13477   4.057   6.078   2.437 -0.1153 -0.5203 -0.3641
34388SOL    HW113478   4.065   6.121   2.522  0.7147 -0.2388 -0.5739
34388SOL    HW213479   4.012   5.996   2.455  0.2533 -0.5616  0.3823
34389SOL     OW13480   8.239   9.813   2.473  0.2296  0.3835 -0.1196
34389SOL    HW113481   8.186   9.766   2.408  1.2471 -0.6508 -0.2382
34389SOL    HW213482   8.209   9.779   2.557  1.5798 -1.2327 -0.2360
34390SOL     OW13483   8.959   7.963   1.220  0.6819 -0.0722 -0.0353
34390SOL    HW113484   8.901   7.961   1.296  0.7011 -1.5471 -0.0310
34390SOL    HW213485   8.984   8.054   1.212 -0.1625  0.2867  1.0891
34391SOL     OW13486   7.925   5.795   3.784  0.0620 -0.7618  0.3958
34391SOL    HW113487   8.017   5.815   3.803  0.1772 -1.8030  1.0509
34391SOL    HW213488   7.922   5.699   3.779 -1.0435 -0.7629  0.7564
34392SOL     OW13489  11.852   0.140   8.101 -0.2257  0.6948  0.3266
34392SOL    HW113490  11.760   0.168   8.097  0.2881  2.8465  1.8316
34392SOL    HW213491  11.892   0.201   8.163  2.4981  0.5545 -1.1785
34393SOL     OW13492   7.774  10.210  10.198  1.0496  0.1542 -0.0924
34393SOL    HW113493   7.752  10.303  10.194  0.3959  0.0005 -0.0969
34393SOL    HW213494   7.868  10.208  10.181  1.3599  0.9387  1.4050
34394SOL     OW13495   2.465  11.133  11.510  0.0172  0.0094 -0.5807
34394SOL    HW113496   2.481  11.225  11.491 -0.4978  0.2950  0.2965
34394SOL    HW213497   2.422  11.133  11.595  2.7112 -1.2240  0.9182
34395SOL     OW13498  12.363   6.494  10.497 -0.1748  0.1060 -0.1812
34395SOL    HW113499  12.285   6.469  10.449  0.6223 -0.9376 -0.9948
34395SOL    HW213500  12.423   6.528  10.430 -0.0224  1.1225  0.4615
34396SOL     OW13501  12.123   8.741   5.788  0.2269  0.6027  0.6575
34396SOL    HW113502  12.119   8.685   5.866 -0.7943  0.2932  0.3909
34396SOL    HW213503  12.216   8.742   5.764 -0.0080 -3.6148 -1.2293
34397SOL     OW13504   3.322  10.132  11.793 -0.0026  0.4275  0.1794
34397SOL    HW113505   3.369  10.206  11.755  1.1709 -0.2199  0.3078
34397SOL    HW213506   3.358  10.123  11.881 -1.3232  0.7164  0.7681
34398SOL     OW13507   0.840   5.542   0.783  0.0732 -0.0608  0.2158
34398SOL    HW113508   0.922   5.499   0.759  0.7240  1.9936 -1.5797
34398SOL    HW213509   0.772   5.487   0.745  0.7323 -0.7544  0.0135
34399SOL     OW13510   8.146   1.519   4.287  0.3763 -0.3916 -0.0727
34399SOL    HW113511   8.087   1.573   4.338  0.0057  0.5495 -1.4488
34399SOL    HW213512   8.217   1.578   4.261  1.3918 -1.2482  0.6656
34400SOL     OW13513  10.521   0.267   6.447 -0.1060  0.4720 -0.2875
34400SOL    HW113514  10.477   0.182   6.441  1.5657 -0.4535 -0.0068
34400SOL    HW213515  10.564   0.278   6.362  2.9581 -0.8965  0.9502
34401SOL     OW13516   7.376   4.688   4.947 -0.5557 -0.0623  0.2604
34401SOL    HW113517   7.366   4.777   4.915 -0.6676 -0.3144 -0.4299
34401SOL    HW213518   7.406   4.638   4.871 -0.6904 -0.6506  0.5827
34402SOL     OW13519  10.846   6.224   3.310  0.4488  0.5963  1.0118
34402SOL    HW113520  10.910   6.226   3.381  1.9724  2.9706 -0.2852
34402SOL    HW213521  10.853   6.310   3.269 -1.8938  0.0713 -0.7143
34403SOL     OW13522   4.051   4.630   5.331  0.3248  0.2720  0.3761
34403SOL    HW113523   4.067   4.677   5.413 -0.0752  1.7645 -0.3586
34403SOL    HW213524   4.138   4.608   5.298  0.5034  0.1321  0.9426
34404SOL     OW13525   9.965   9.810   1.928 -0.3790 -0.4592 -0.3725
34404SOL    HW113526   9.933   9.887   1.881 -0.7962 -1.2763 -1.5005
34404SOL    HW213527   9.993   9.750   1.858  0.6704 -1.0202  0.5018
34405SOL     OW13528   1.994   9.144   2.398  0.5475 -0.2778 -0.0426
34405SOL    HW113529   2.012   9.062   2.352  0.4455 -0.5277  0.3605
34405SOL    HW213530   2.051   9.142   2.475  0.4196 -0.0484  0.0603
34406SOL     OW13531  12.900   0.852   8.937 -0.5438  0.2845  0.1458
34406SOL    HW113532  12.945   0.872   9.019 -0.8485 -0.1063  0.4116
34406SOL    HW213533  12.832   0.918   8.930 -0.2242  0.6000 -0.0281
34407SOL     OW13534  12.285   7.403   4.282  0.2439  0.4934  0.1940
34407SOL    HW113535  12.200   7.367   4.255 -0.0700 -1.3826  3.1756
34407SOL    HW213536  12.349   7.355   4.229 -0.4713  0.5878 -0.7863
34408SOL     OW13537   3.500   4.178   9.762  0.0707 -0.2803 -0.1127
34408SOL    HW113538   3.551   4.104   9.794  0.2268  0.2584  0.9337
34408SOL    HW213539   3.527   4.189   9.671  0.2285 -1.3412 -0.1981
34409SOL     OW13540   0.934   6.483   0.261 -0.3854  0.4664  0.4899
34409SOL    HW113541   1.000   6.489   0.192  0.1745  0.1942  0.9998
34409SOL    HW213542   0.889   6.400   0.243 -0.4603  0.5556  0.2610
34410SOL     OW13543   8.672  10.961  10.864  0.0000 -0.1118 -0.0529
34410SOL    HW113544   8.742  10.921  10.813  0.5566  0.8046 -0.0473
34410SOL    HW213545   8.640  11.033  10.809 -0.9151 -0.4937 -0.0377
34411SOL     OW13546   0.765   3.481   9.222 -0.1852  0.5332 -0.2414
34411SOL    HW113547   0.845   3.470   9.274 -0.4080 -2.6599 -0.3900
34411SOL    HW213548   0.720   3.555   9.263  2.3283  1.7847  0.4581
34412SOL     OW13549   2.339   0.104   7.566  0.5643 -0.2487 -0.0578
34412SOL    HW113550   2.313   0.011   7.567  0.1699 -0.1347  0.9023
34412SOL    HW213551   2.430   0.103   7.594 -0.2274 -0.1495  2.8355
34413SOL     OW13552   1.911   0.511   9.474 -0.4599  0.1816  0.2955
34413SOL    HW113553   1.892   0.515   9.380 -1.0702  0.5963  0.4318
34413SOL    HW213554   1.857   0.439   9.506 -2.1471  1.5776  0.7444
34414SOL     OW13555   6.698  12.520   0.279 -0.5927 -0.2959 -0.3854
34414SOL    HW113556   6.629  12.520   0.346 -0.3046 -0.0824 -0.0850
34414SOL    HW213557   6.699  12.431   0.245 -2.7897  0.2813 -2.2430
34415SOL     OW13558  11.069   9.439   6.874 -0.0009  0.4605  0.4796
34415SOL    HW113559  11.137   9.479   6.820 -0.9629  0.3072 -0.9102
34415SOL    HW213560  11.112   9.365   6.916  0.4057 -0.4244 -1.3980
34416SOL     OW13561  10.666   8.215   4.829 -0.3334 -0.4945  0.3142
34416SOL    HW113562  10.739   8.270   4.803 -1.3549  0.2457 -1.0899
34416SOL    HW213563  10.703   8.126   4.834  0.6546 -0.1338 -0.3556
34417SOL     OW13564  11.174   7.609   0.406 -0.3105 -0.9043 -0.1590
34417SOL    HW113565  11.263   7.585   0.434 -0.6925 -0.7292  1.2694
34417SOL    HW213566  11.141   7.665   0.476 -1.4208 -0.6514 -0.8577
34418SOL     OW13567  12.595   9.373   8.078  0.6575 -0.3944  0.0126
34418SOL    HW113568  12.549   9.334   8.153 -0.6869 -1.4855 -1.3204
34418SOL    HW213569  12.578   9.313   8.006  0.6824  1.3774 -1.5259
34419SOL     OW13570   9.120   8.672  10.710 -0.4432 -0.4757 -0.3230
34419SOL    HW113571   9.197   8.630  10.749 -2.2418 -3.4121  0.4020
34419SOL    HW213572   9.078   8.718  10.783 -0.9272 -1.4231  0.0166
34420SOL     OW13573  12.662   5.836   2.716 -0.8136 -0.0332  1.0191
34420SOL    HW113574  12.756   5.825   2.731 -0.4661  0.4129 -0.6055
34420SOL    HW213575  12.620   5.773   2.775  0.6390 -2.3549 -0.2754
34421SOL     OW13576   4.210   2.807  11.905 -0.2731 -0.5482 -0.4127
34421SOL    HW113577   4.291   2.823  11.856  0.0298  0.6284  0.4469
34421SOL    HW213578   4.158   2.886  11.892 -0.4940 -0.5226  0.5734
34422SOL     OW13579   1.393  12.919   1.865  0.1973 -0.0509 -0.2576
34422SOL    HW113580   1.450  12.845   1.846  0.0206 -0.1056 -0.5903
34422SOL    HW213581   1.335  12.887   1.934  1.2099  0.3341  0.7898
34423SOL     OW13582  11.276   1.507   0.483 -0.5974 -0.1209  0.2983
34423SOL    HW113583  11.339   1.561   0.532 -2.2525 -0.2528  2.7952
34423SOL    HW213584  11.323   1.425   0.466  0.4294  0.3733  0.6374
34424SOL     OW13585   2.834  12.070   5.672  0.1389 -0.3663 -0.2041
34424SOL    HW113586   2.892  12.013   5.622 -1.1472 -0.7705 -1.3213
34424SOL    HW213587   2.786  12.119   5.605 -2.1212 -1.3888  0.5795
34425SOL     OW13588   6.839  10.936   7.099 -0.4119 -0.4515  0.3890
34425SOL    HW113589   6.903  10.984   7.046 -0.5015  1.6660  2.0429
34425SOL    HW213590   6.776  10.901   7.036  0.8190 -0.1856 -1.0493
34426SOL     OW13591  12.082   9.586  12.188 -0.0393 -0.2479 -0.2651
34426SOL    HW113592  12.050   9.648  12.124  0.0839 -0.9382 -1.0106
34426SOL    HW213593  12.160   9.627  12.226 -1.6065  1.3544  1.4186
34427SOL     OW13594  12.745   7.220   1.287 -0.0952 -0.8115  0.2752
34427SOL    HW113595  12.691   7.269   1.226  0.2737  1.5351  1.7120
34427SOL    HW213596  12.708   7.132   1.287  0.0503 -1.0395 -3.4640
34428SOL     OW13597   3.640  11.861  10.612  0.0977 -0.6673  0.2244
34428SOL    HW113598   3.583  11.784  10.619  1.8215 -2.1728 -1.1483
34428SOL    HW213599   3.655  11.870  10.518  3.5877 -1.5739  0.5681
34429SOL     OW13600  11.758   0.519   8.897  0.1665  0.1189  0.2896
34429SOL    HW113601  11.816   0.495   8.825  0.6907 -1.0540  1.0776
34429SOL    HW213602  11.677   0.549   8.854  0.1525 -1.3563 -0.7799
34430SOL     OW13603   9.085  12.215   6.474 -0.1036 -0.4857  0.2245
34430SOL    HW113604   9.156  12.235   6.536 -0.2397 -1.3781  0.6873
34430SOL    HW213605   9.107  12.266   6.396  1.4947 -1.3460  0.0614
34431SOL     OW13606   2.833   7.012   1.918  0.3163  0.0403  0.2056
34431SOL    HW113607   2.928   7.014   1.929  0.3995  0.9626 -0.5399
34431SOL    HW213608   2.798   7.011   2.007  1.0122  0.7321  0.4879
34432SOL     OW13609   6.717   9.434   8.569  0.3056  0.0161  0.0160
34432SOL    HW113610   6.809   9.454   8.586  0.1686  0.4603  0.2329
34432SOL    HW213611   6.687   9.506   8.513 -0.3251  0.7092  1.2313
34433SOL     OW13612   3.668   9.652  11.270 -0.2626  0.7568  0.4597
34433SOL    HW113613   3.662   9.747  11.276  0.3229  0.7145  2.0972
34433SOL    HW213614   3.578   9.622  11.270 -0.4650  1.3046 -0.4664
34434SOL     OW13615   4.410   8.053   9.812 -0.6832 -0.0802  0.2532
34434SOL    HW113616   4.358   8.108   9.872 -0.2164 -1.1635  1.7139
34434SOL    HW213617   4.355   8.045   9.734 -1.0542  1.8765  0.2480
34435SOL     OW13618  12.410  11.058   6.306 -0.2754 -0.1821  0.6876
34435SOL    HW113619  12.334  11.079   6.361 -0.1053  0.0634  0.8300
34435SOL    HW213620  12.398  10.966   6.284 -1.1946  0.1362 -0.2060
34436SOL     OW13621   5.865   1.113   1.645  0.1373 -0.2511 -1.0589
34436SOL    HW113622   5.922   1.053   1.692 -0.8223 -1.3227 -1.2114
34436SOL    HW213623   5.863   1.192   1.699 -0.9166 -1.4248  0.7277
34437SOL     OW13624   0.781  10.606   1.379  0.2366 -0.4874  0.0248
34437SOL    HW113625   0.747  10.547   1.446 -0.3398  0.0040  0.1699
34437SOL    HW213626   0.705  10.628   1.325  0.5117 -0.1274 -0.2204
34438SOL     OW13627   3.415  11.508  11.284 -0.1014 -0.5026  0.1583
34438SOL    HW113628   3.428  11.550  11.369 -0.7561 -0.9180  0.4766
34438SOL    HW213629   3.342  11.556  11.244  0.1567 -0.3549 -0.1407
34439SOL     OW13630   6.935   7.848  12.953 -0.1120 -0.1513  0.0797
34439SOL    HW113631   6.940   7.756  12.982 -0.8852 -0.3320 -0.3238
34439SOL    HW213632   6.901   7.843  12.864  2.0259  0.4181 -0.8324
34440SOL     OW13633  12.188   8.308   8.850 -0.0330 -0.3889  0.0539
34440SOL    HW113634  12.174   8.257   8.930 -2.7052  1.2673  0.7597
34440SOL    HW213635  12.208   8.396   8.881  1.8315 -0.3246 -1.1549
34441SOL     OW13636  12.586  11.126   0.638 -0.2253 -0.1111  0.0666
34441SOL    HW113637  12.582  11.175   0.556  1.6837  0.6671  0.3942
34441SOL    HW213638  12.588  11.193   0.706 -0.9545 -0.7382  0.7181
34442SOL     OW13639  12.014   9.286  10.471 -0.5319  0.6535 -0.4122
34442SOL    HW113640  11.992   9.280  10.564 -0.6283  0.7574 -0.4278
34442SOL    HW213641  12.039   9.377  10.458  0.0067  0.5143 -0.3755
34443SOL     OW13642   8.242   3.834   5.688  0.2770  0.1833  0.2864
34443SOL    HW113643   8.336   3.840   5.672  0.4646 -0.1787  1.1687
34443SOL    HW213644   8.222   3.740   5.679  0.0681  0.2134  0.4196
34444SOL     OW13645   4.328   7.205   7.112 -0.0729 -0.2102  0.1592
34444SOL    HW113646   4.244   7.174   7.078 -0.7927  1.7070  0.0790
34444SOL    HW213647   4.393   7.160   7.059 -1.1132  0.3859 -1.7202
34445SOL     OW13648   4.304   9.451   7.413 -0.2015  0.1546  0.2507
34445SOL    HW113649   4.309   9.543   7.437 -0.9964  0.1005  0.6786
34445SOL    HW213650   4.389   9.414   7.438  0.3117  0.8786 -0.4204
34446SOL     OW13651   2.349  11.570   1.213 -0.1432  0.1294  0.3030
34446SOL    HW113652   2.347  11.652   1.263  0.6321  1.0587 -1.1089
34446SOL    HW213653   2.269  11.573   1.160 -0.8276 -0.7223  1.2644
34447SOL     OW13654   9.089  11.168   8.347 -0.8274  0.1495  0.3154
34447SOL    HW113655   9.106  11.161   8.441 -0.6507 -1.8399  0.1751
34447SOL    HW213656   9.167  11.133   8.305 -1.4927 -0.3551 -0.5386
34448SOL     OW13657   2.902  11.519  11.670  0.6924 -0.2584 -0.3866
34448SOL    HW113658   2.855  11.528  11.587  1.5223  0.9537 -0.7652
34448SOL    HW213659   2.852  11.573  11.731  1.9234  1.6937 -0.9820
34449SOL     OW13660   6.953   5.783   2.847 -0.2367  0.0683  0.4788
34449SOL    HW113661   6.990   5.715   2.904  0.5606 -0.9258 -1.1532
34449SOL    HW213662   6.890   5.736   2.792  0.1874  0.6779 -0.5490
34450SOL     OW13663   5.154  10.001  11.291  0.1752 -0.4852  0.1397
34450SOL    HW113664   5.084  10.003  11.357  0.0253 -1.4115  0.0269
34450SOL    HW213665   5.142  10.082  11.241 -0.6830 -0.5242  0.2634
34451SOL     OW13666  11.224   8.590   1.336  0.5513 -0.3136  0.2659
34451SOL    HW113667  11.177   8.517   1.296 -0.1271  0.1319  0.2505
34451SOL    HW213668  11.293   8.611   1.273 -0.1309 -0.0108 -0.3948
34452SOL     OW13669   0.581   2.641   3.445  0.2873  0.0730 -0.3501
34452SOL    HW113670   0.507   2.695   3.472 -2.2469 -2.9283 -0.6275
34452SOL    HW213671   0.630   2.624   3.525  0.5704  1.8940 -0.1086
34453SOL     OW13672  11.429   4.978   3.950 -0.7220  0.0937 -0.0251
34453SOL    HW113673  11.399   5.032   4.022 -1.6103  0.8012 -0.9009
34453SOL    HW213674  11.407   5.028   3.871  2.1875  0.3854 -0.7887
34454SOL     OW13675   3.071   8.099   7.577  0.3656  0.3132  0.4331
34454SOL    HW113676   3.103   8.175   7.529 -2.6495  1.1775 -0.4257
34454SOL    HW213677   2.995   8.069   7.527 -0.8199 -0.9062  2.8063
34455SOL     OW13678   0.506   4.095  10.877 -0.0967  0.1073 -0.8858
34455SOL    HW113679   0.539   4.151  10.807 -0.0856  1.0075 -0.1748
34455SOL    HW213680   0.511   4.006  10.841  0.6009  0.4825 -1.7505
34456SOL     OW13681   0.263   1.021   9.669  0.1745 -0.0538  0.0752
34456SOL    HW113682   0.180   1.050   9.707 -0.8300 -2.8713  0.3033
34456SOL    HW213683   0.239   0.982   9.585  0.9888 -2.0850  0.7109
34457SOL     OW13684  12.344   2.913   7.022  0.1094  0.1390  0.1907
34457SOL    HW113685  12.328   2.826   6.986 -0.2708 -0.0797  0.8560
34457SOL    HW213686  12.303   2.973   6.959  2.1697  0.0146 -1.3609
34458SOL     OW13687   1.582  10.983   5.761 -0.8578  0.5667 -0.3397
34458SOL    HW113688   1.641  11.011   5.692  0.9933 -0.9802  0.5268
34458SOL    HW213689   1.520  10.924   5.718 -1.9605  2.3260 -1.2832
34459SOL     OW13690  10.364   7.233   9.240 -0.0821 -0.3291 -0.2795
34459SOL    HW113691  10.297   7.167   9.222  0.2634 -0.8020  0.1358
34459SOL    HW213692  10.447   7.187   9.229  0.1930  0.3067 -0.9964
34460SOL     OW13693  12.101   2.841   2.636  0.1441 -0.6195 -0.1358
34460SOL    HW113694  12.120   2.792   2.716  2.5438  0.7090  0.1753
34460SOL    HW213695  12.143   2.791   2.566  1.7775  0.3994  0.0597
34461SOL     OW13696  11.133   0.555   3.268  0.1494 -0.8537  0.2124
34461SOL    HW113697  11.167   0.645   3.271 -0.1481 -0.7104 -0.5790
34461SOL    HW213698  11.074   0.550   3.343 -0.1502 -0.2555  0.0245
34462SOL     OW13699   0.518   5.118   0.978  0.2946  0.3797 -0.1317
34462SOL    HW113700   0.442   5.060   0.975 -1.5702  2.6040  0.8906
34462SOL    HW213701   0.535   5.131   1.072  1.9174  0.0111 -0.3393
34463SOL     OW13702   4.976   9.935   6.778  0.5812 -0.5715 -0.0288
34463SOL    HW113703   5.042  10.004   6.777 -2.6256  2.7930 -0.6077
34463SOL    HW213704   4.980   9.896   6.691  1.3212  0.0341 -0.2734
34464SOL     OW13705  11.189   7.810   1.628  0.2471 -0.6133  0.1725
34464SOL    HW113706  11.232   7.870   1.567  0.8429 -0.2931  0.8871
34464SOL    HW213707  11.208   7.723   1.594  2.9237 -0.5813  1.3230
34465SOL     OW13708   0.785  10.815  10.397 -0.0110 -0.5716  0.0345
34465SOL    HW113709   0.714  10.751  10.406  0.9089 -1.7240 -0.5517
34465SOL    HW213710   0.852  10.769  10.346  0.1586  1.3155 -1.5713
34466SOL     OW13711   3.924  10.653   8.994 -0.5855 -0.2052  0.2575
34466SOL    HW113712   3.964  10.722   9.047 -0.9452  0.3731 -0.2185
34466SOL    HW213713   3.966  10.660   8.909 -0.1586 -1.0006  0.3936
34467SOL     OW13714   9.859   3.499   3.235 -0.1083 -0.1728  0.2393
34467SOL    HW113715   9.774   3.485   3.194  0.3858 -2.3623 -0.1569
34467SOL    HW213716   9.845   3.571   3.296 -2.1647 -0.2996 -0.0226
34468SOL     OW13717   0.706  10.625  12.379 -0.2459 -0.3505 -0.0522
34468SOL    HW113718   0.793  10.660  12.358  0.1244 -0.1781  1.6600
34468SOL    HW213719   0.720  10.531  12.387 -0.7515 -0.6697 -2.1886
34469SOL     OW13720   7.395  12.148  11.146 -0.2615 -0.0151 -0.7772
34469SOL    HW113721   7.317  12.094  11.146 -1.1864  1.2613 -0.3086
34469SOL    HW213722   7.364  12.235  11.173  1.3397  0.4817 -0.4094
34470SOL     OW13723  10.284   0.007   5.325 -0.0609 -0.1828  0.1042
34470SOL    HW113724  10.204   0.011   5.272  0.0369  2.2877  0.0486
34470SOL    HW213725  10.255   0.028   5.413  0.2468 -1.3205  0.4942
34471SOL     OW13726   7.705   0.251   2.135 -0.3224  0.0133 -0.6039
34471SOL    HW113727   7.740   0.167   2.105 -1.4065 -0.4580 -0.5983
34471SOL    HW213728   7.610   0.244   2.122 -0.6481  0.4629  1.2396
34472SOL     OW13729  11.922   6.235   0.250 -0.0774  0.4547 -0.0195
34472SOL    HW113730  11.878   6.209   0.169  0.7857 -0.1213 -0.3195
34472SOL    HW213731  11.940   6.328   0.238 -1.9586  0.9128  0.4751
34473SOL     OW13732   2.023   3.663   9.391  0.1630 -0.0043 -0.9619
34473SOL    HW113733   2.014   3.617   9.307 -0.3013 -1.1768 -0.2953
34473SOL    HW213734   2.038   3.594   9.455  2.0384  0.9828 -0.2609
34474SOL     OW13735   0.362  12.316  11.063  0.0173 -0.0498 -0.0849
34474SOL    HW113736   0.424  12.308  11.136 -0.4682  0.2113  0.3632
34474SOL    HW213737   0.412  12.291  10.986  1.1748  1.7442  0.0296
34475SOL     OW13738   3.292  11.698   6.368 -0.0992  0.0604  0.2721
34475SOL    HW113739   3.358  11.744   6.420 -1.7026  0.8134  1.7195
34475SOL    HW213740   3.305  11.606   6.390 -0.4182  0.3232  1.6349
34476SOL     OW13741   5.683   9.418   2.529 -0.4085  0.1737  0.0479
34476SOL    HW113742   5.732   9.352   2.577 -1.0385 -0.8993 -0.7547
34476SOL    HW213743   5.701   9.500   2.576  0.9816 -0.4236  0.6164
34477SOL     OW13744  10.487   7.050  11.943  0.4423  0.3858 -0.3487
34477SOL    HW113745  10.450   6.964  11.961 -1.5163  0.8102 -2.0540
34477SOL    HW213746  10.469   7.101  12.022 -0.8286 -0.0020 -0.3754
34478SOL     OW13747   5.276   2.473   9.386 -0.1719 -0.2096 -0.1967
34478SOL    HW113748   5.338   2.481   9.459 -0.1413 -2.0633  0.0246
34478SOL    HW213749   5.219   2.550   9.395  0.3170  0.0114  1.3110
34479SOL     OW13750   6.430   1.102   2.386 -0.0394  0.0738 -0.1749
34479SOL    HW113751   6.450   1.125   2.476 -0.0807  0.7184 -0.3287
34479SOL    HW213752   6.345   1.144   2.369  0.5411  0.9707 -0.8967
34480SOL     OW13753   3.100   8.401   5.811 -0.5023  0.1833 -0.8622
34480SOL    HW113754   3.092   8.435   5.900 -1.0537  0.1315 -0.8896
34480SOL    HW213755   3.141   8.315   5.822 -1.7389 -0.3851 -0.5369
34481SOL     OW13756   4.154   9.597   7.104  0.2119  0.1331 -0.0827
34481SOL    HW113757   4.212   9.521   7.099  1.6978  1.2085  0.0902
34481SOL    HW213758   4.156   9.623   7.197  0.0871  0.6593 -0.2208
34482SOL     OW13759   8.129  12.763   0.036 -0.5535 -0.1417 -0.5786
34482SOL    HW113760   8.090  12.689  -0.010 -0.8247 -0.4992  0.2173
34482SOL    HW213761   8.055  12.804   0.081 -0.3876  0.5558 -0.9248
34483SOL     OW13762   3.346   5.192  12.069  0.0782  0.3236 -0.3132
34483SOL    HW113763   3.353   5.283  12.098  1.3920 -0.3039  1.5202
34483SOL    HW213764   3.420   5.179  12.009 -0.7519  0.7236 -1.4673
34484SOL     OW13765   4.223   1.881   0.640  0.1148 -0.2752 -0.0913
34484SOL    HW113766   4.265   1.962   0.610 -0.2498 -0.2023 -0.4108
34484SOL    HW213767   4.143   1.875   0.588  0.9034 -1.6608 -1.2379
34485SOL     OW13768   1.036   3.763  10.114  0.2433  0.3652 -0.2157
34485SOL    HW113769   0.951   3.744  10.075  0.2643 -0.4765  0.1249
34485SOL    HW213770   1.016   3.805  10.198  0.1995  2.9046 -1.4073
34486SOL     OW13771   9.574   0.757   8.618  0.2032 -0.1800 -0.1492
34486SOL    HW113772   9.565   0.827   8.552  0.3693 -0.5589 -0.5808
34486SOL    HW213773   9.489   0.713   8.617 -0.3262  0.7707  1.0074
34487SOL     OW13774  11.660   2.290   1.375 -0.2604  0.0568  0.1206
34487SOL    HW113775  11.741   2.323   1.337 -1.8289  2.4768 -1.3838
34487SOL    HW213776  11.645   2.206   1.331  0.9290  0.0331 -0.2572
34488SOL     OW13777  11.402   4.966   3.424 -0.0749  0.1286 -0.2490
34488SOL    HW113778  11.486   4.923   3.405 -0.3637 -0.3315 -0.4922
34488SOL    HW213779  11.425   5.058   3.439  0.8288 -0.4191  2.2444
34489SOL     OW13780   5.217   0.659   6.395  0.4488 -0.0486  0.1996
34489SOL    HW113781   5.131   0.699   6.380 -0.0043 -0.5148  1.4238
34489SOL    HW213782   5.271   0.732   6.426 -0.2241 -0.2064  1.8843
34490SOL     OW13783   5.566   1.817  12.985  0.6532 -0.2651 -1.0461
34490SOL    HW113784   5.626   1.761  13.034  0.2124  0.9196  0.9930
34490SOL    HW213785   5.612   1.837  12.904  1.4592 -2.2758 -1.1253
34491SOL     OW13786  10.558   3.075   9.463 -0.1325  0.4197  0.1640
34491SOL    HW113787  10.643   3.068   9.421  0.2778  1.5473  0.7495
34491SOL    HW213788  10.519   2.988   9.454  2.1957 -0.9981  2.2961
34492SOL     OW13789   1.359  10.496   9.055  0.2459 -0.0443  0.1563
34492SOL    HW113790   1.437  10.520   9.004  1.8391 -2.1510  1.4429
34492SOL    HW213791   1.323  10.421   9.008 -0.3002  0.1547  0.2565
34493SOL     OW13792   2.493   1.722   5.724 -0.5427 -0.2761 -0.3895
34493SOL    HW113793   2.556   1.655   5.750  1.0436  1.2840 -0.0611
34493SOL    HW213794   2.417   1.706   5.780  0.6142 -0.5411  1.1575
34494SOL     OW13795   0.006   1.676   0.473 -0.2586  0.2213  0.0433
34494SOL    HW113796  -0.055   1.620   0.427  0.2711  1.2951 -2.0976
34494SOL    HW213797   0.083   1.621   0.488  0.0506  0.1754 -1.5545
34495SOL     OW13798  11.082   4.249   3.094  0.2618 -0.3318 -0.0444
34495SOL    HW113799  11.140   4.206   3.156 -0.0821  0.5423  0.9099
34495SOL    HW213800  11.131   4.325   3.063 -0.6101  0.8930  1.3958
34496SOL     OW13801   9.813   3.917   5.514 -0.2652 -0.5180 -0.1701
34496SOL    HW113802   9.904   3.912   5.486  0.1060 -1.3083  1.0768
34496SOL    HW213803   9.776   3.990   5.465  0.9199 -0.4524 -1.0020
34497SOL     OW13804  12.243   3.440   0.491 -0.0286  0.0695  0.0365
34497SOL    HW113805  12.298   3.507   0.533  2.2266 -0.7950 -1.3928
34497SOL    HW213806  12.278   3.432   0.403 -2.4204 -0.6548 -0.9225
34498SOL     OW13807  12.281  10.894   2.365  0.0418  0.3432 -0.4324
34498SOL    HW113808  12.299  10.822   2.425 -0.3615  1.4286  1.0474
34498SOL    HW213809  12.267  10.970   2.422 -0.6947  1.3531 -1.8903
34499SOL     OW13810   4.558   4.435   9.264 -0.3150 -0.3525  0.0867
34499SOL    HW113811   4.581   4.371   9.197  2.8419  0.0523  0.6683
34499SOL    HW213812   4.462   4.439   9.260 -0.4038 -2.2429 -2.5707
34500SOL     OW13813   6.965   9.295   8.410  0.4831  0.1953 -0.9424
34500SOL    HW113814   6.910   9.357   8.362  1.0940  0.8017 -0.8573
34500SOL    HW213815   7.052   9.304   8.371  0.9038  0.4281  0.0246
34501SOL     OW13816   9.344   8.119   0.304 -0.6186  0.0770 -0.2834
34501SOL    HW113817   9.304   8.033   0.316 -2.0244  0.7148 -0.2410
34501SOL    HW213818   9.364   8.149   0.392 -1.0926  0.2290 -0.2247
34502SOL     OW13819   8.839   8.765   3.448  0.3058  0.5163  0.2135
34502SOL    HW113820   8.831   8.847   3.497  1.8705 -0.5929  2.4540
34502SOL    HW213821   8.818   8.697   3.511 -0.8377 -0.8926 -1.5760
34503SOL     OW13822   2.691   9.899  10.244 -0.0645 -0.0448 -0.2018
34503SOL    HW113823   2.744   9.904  10.165  0.0998 -0.8894 -0.1567
34503SOL    HW213824   2.633   9.975  10.240  0.7408  0.5512 -0.5482
34504SOL     OW13825   2.130   3.497   1.547  0.0114 -0.5458 -0.0622
34504SOL    HW113826   2.177   3.514   1.629 -1.0098 -1.3006  0.7047
34504SOL    HW213827   2.039   3.487   1.574 -0.2404 -1.5110 -1.2079
34505SOL     OW13828   9.090   0.757   8.858  0.1156  0.2137  0.0897
34505SOL    HW113829   8.995   0.767   8.853  0.2168  1.1501 -0.0764
34505SOL    HW213830   9.108   0.682   8.801 -0.4875  0.2141 -0.1177
34506SOL     OW13831   8.553   5.620   2.918 -0.2872 -0.0707 -0.0332
34506SOL    HW113832   8.486   5.687   2.936 -1.2717 -1.0771  0.1735
34506SOL    HW213833   8.507   5.537   2.931  1.8964 -0.9121  3.7199
34507SOL     OW13834  12.444   8.586   8.625  0.2502 -0.3821  0.5254
34507SOL    HW113835  12.498   8.519   8.667  1.3188 -0.4713 -0.9204
34507SOL    HW213836  12.390   8.537   8.563  1.8501  0.1313 -1.3772
34508SOL     OW13837   8.025  10.166   6.211 -0.6203 -0.1259 -0.1991
34508SOL    HW113838   7.969  10.228   6.258 -0.6190  0.5152 -1.0197
34508SOL    HW213839   8.088  10.135   6.276 -0.7513  0.5784  0.2674
34509SOL     OW13840   6.196   2.793   6.426 -0.2207  0.1916 -0.4519
34509SOL    HW113841   6.233   2.882   6.427 -0.2973  0.2894  1.9841
34509SOL    HW213842   6.254   2.743   6.370  0.9005  1.3943 -0.4185
34510SOL     OW13843   7.332   1.152   3.417 -0.4967  0.3746  0.5252
34510SOL    HW113844   7.310   1.237   3.380 -1.2280  0.4242  1.0568
34510SOL    HW213845   7.352   1.097   3.341 -0.8862  0.7791  0.1245
34511SOL     OW13846  10.903   4.567   4.586  0.7296  0.1583  0.3425
34511SOL    HW113847  10.913   4.475   4.611  2.1773  0.0767 -0.4626
34511SOL    HW213848  10.893   4.614   4.669 -0.5124 -0.7599  0.7369
34512SOL     OW13849  11.536   4.249  12.401 -0.1090  0.3074 -0.6323
34512SOL    HW113850  11.583   4.311  12.344  0.5845 -0.9171 -1.4417
34512SOL    HW213851  11.446   4.280  12.400  0.0630  0.8558 -1.6656
34513SOL     OW13852  11.504  10.983   2.575  0.2635  0.3090  0.7763
34513SOL    HW113853  11.488  10.968   2.482  0.1090  0.8132  0.7183
34513SOL    HW213854  11.424  10.950   2.618  1.0616 -1.6144  0.9055
34514SOL     OW13855   0.833   4.080   0.537 -0.1312 -0.2782 -0.7829
34514SOL    HW113856   0.743   4.049   0.527 -0.0060  0.0514 -3.4928
34514SOL    HW213857   0.887   4.003   0.519  0.2480 -0.8717  2.2683
34515SOL     OW13858   1.908  11.187   4.357 -0.2069 -0.9734  0.3056
34515SOL    HW113859   1.975  11.247   4.387 -1.2348  0.4432 -0.1319
34515SOL    HW213860   1.890  11.214   4.266 -2.1941 -0.4874  0.7801
34516SOL     OW13861   3.344  10.827   2.539  0.3811 -0.2916 -0.2395
34516SOL    HW113862   3.260  10.842   2.583 -0.5081  0.0714 -1.9774
34516SOL    HW213863   3.352  10.732   2.535 -0.5163 -0.3518 -1.0503
34517SOL     OW13864  12.956   7.645   1.358 -0.2948 -0.5286 -0.3162
34517SOL    HW113865  12.889   7.713   1.369 -0.7822 -1.3449  2.3576
34517SOL    HW213866  12.919   7.568   1.400  2.5272 -0.8327  1.9205
34518SOL     OW13867   0.198  10.012   9.986  0.5092 -0.8057 -0.0736
34518SOL    HW113868   0.111  10.007   9.945  0.6740  0.5496 -0.6090
34518SOL    HW213869   0.241   9.931   9.960 -0.1010 -0.8578 -0.9546
34519SOL     OW13870   6.886   4.827   1.780 -0.2112 -0.3083 -0.2434
34519SOL    HW113871   6.871   4.909   1.733 -0.0123 -0.6179 -0.8538
34519SOL    HW213872   6.811   4.772   1.756 -0.8215 -0.0044  0.8730
34520SOL     OW13873   2.441   9.247   2.659 -0.3645 -0.5694  0.2754
34520SOL    HW113874   2.360   9.271   2.704 -0.3257  0.0930  0.0133
34520SOL    HW213875   2.492   9.200   2.724  0.3283  1.6483  1.4546
34521SOL     OW13876  10.943   8.685   0.435 -0.4533 -0.5164  0.1637
34521SOL    HW113877  11.035   8.668   0.418 -0.0732 -0.3530  1.9113
34521SOL    HW213878  10.932   8.669   0.529 -1.7789  1.3075  0.3678
34522SOL     OW13879   2.641   7.989   0.370 -0.4156 -0.3229 -0.0239
34522SOL    HW113880   2.567   7.971   0.311 -1.3810  0.7347  0.8278
34522SOL    HW213881   2.718   7.968   0.317 -1.1978  1.4252 -2.0282
34523SOL     OW13882   9.762   7.848  12.676  0.1448 -0.0301 -0.1708
34523SOL    HW113883   9.765   7.764  12.721 -0.9319 -0.5873 -1.0856
34523SOL    HW213884   9.756   7.913  12.746  2.6941 -0.5594  0.6222
34524SOL     OW13885   1.033  10.526   8.146 -0.3450 -0.2118 -0.2812
34524SOL    HW113886   1.090  10.589   8.102 -0.1417  1.0277  1.6190
34524SOL    HW213887   1.084  10.445   8.149  0.4709  0.2887 -0.4503
34525SOL     OW13888   2.655   2.669  12.740 -0.0948 -0.3292 -0.6699
34525SOL    HW113889   2.567   2.645  12.766  0.3140  0.0260  1.2144
34525SOL    HW213890   2.712   2.616  12.796  0.8188  2.4115  1.2313
34526SOL     OW13891   3.103   7.402  11.808  0.5431 -0.6211 -0.1463
34526SOL    HW113892   3.133   7.345  11.879  1.7395 -0.0070 -0.1398
34526SOL    HW213893   3.180   7.453  11.783 -0.2925  0.4238 -0.7062
34527SOL     OW13894   3.886   2.196  12.188  0.4178 -0.1879  0.1103
34527SOL    HW113895   3.917   2.169  12.101  0.8099  0.5282  0.0208
34527SOL    HW213896   3.961   2.243  12.226 -0.5966  1.7595 -0.1838
34528SOL     OW13897   9.465   8.878   4.567  0.0825 -0.1662  0.1426
34528SOL    HW113898   9.441   8.966   4.538 -0.6005 -0.3059  0.2815
34528SOL    HW213899   9.453   8.880   4.662 -0.0972 -0.4658  0.1251
34529SOL     OW13900  11.527  10.784  11.588 -1.1550  0.4937 -0.5217
34529SOL    HW113901  11.521  10.690  11.572 -0.9843  0.7641 -2.4729
34529SOL    HW213902  11.621  10.800  11.602 -1.1669  0.4071 -0.3350
34530SOL     OW13903   5.002   0.097   6.363  0.5704 -0.2043  0.0554
34530SOL    HW113904   4.914   0.126   6.386  0.5251  0.8985 -1.3392
34530SOL    HW213905   5.060   0.147   6.421  0.3106 -0.2983  0.3945
34531SOL     OW13906   7.840   0.585   4.252  0.7344 -0.4840 -0.6623
34531SOL    HW113907   7.763   0.549   4.296  0.4856  0.9354  0.1230
34531SOL    HW213908   7.840   0.678   4.276  2.3393 -0.3269 -1.1606
34532SOL     OW13909   8.570   7.337   3.473  0.1713  0.3003 -0.2512
34532SOL    HW113910   8.552   7.325   3.566  2.4555  1.1034  0.3565
34532SOL    HW213911   8.662   7.314   3.463 -0.4824 -1.6729 -2.7326
34533SOL     OW13912   5.478   3.200  11.337 -0.4035 -0.0362  0.0328
34533SOL    HW113913   5.541   3.261  11.297  0.2795 -0.1862  0.8513
34533SOL    HW213914   5.393   3.239  11.319 -0.1026  0.1253 -1.1918
34534SOL     OW13915  11.796  11.894   0.224 -0.3778 -0.1825  0.5789
34534SOL    HW113916  11.823  11.836   0.295 -0.1229  2.0234  2.4049
34534SOL    HW213917  11.878  11.924   0.184 -0.5124 -1.1851 -0.4870
34535SOL     OW13918  12.716   1.260  11.737  0.0677 -0.1771  0.6343
34535SOL    HW113919  12.753   1.344  11.763 -2.2435  1.2006 -0.2598
34535SOL    HW213920  12.675   1.226  11.817 -1.9417  1.2382  0.2662
34536SOL     OW13921  10.840   8.213   6.562  0.1572 -0.2276 -0.1266
34536SOL    HW113922  10.780   8.232   6.490  1.2645 -1.9310 -1.5869
34536SOL    HW213923  10.927   8.219   6.523  0.7814 -1.4870  0.9713
34537SOL     OW13924  10.698   3.960   0.342 -0.2441  0.4339  0.3829
34537SOL    HW113925  10.778   3.910   0.358  0.9549  2.1143 -0.0380
34537SOL    HW213926  10.670   3.934   0.254 -0.1769 -0.1785  0.5401
34538SOL     OW13927   4.457  12.806  11.603  0.6047 -0.1052  0.0285
34538SOL    HW113928   4.431  12.717  11.626  1.2514 -0.0148  1.2200
34538SOL    HW213929   4.377  12.848  11.572 -0.0886 -0.6027  1.0810
34539SOL     OW13930   8.792  12.586   6.231  0.3805 -0.0996 -0.0540
34539SOL    HW113931   8.754  12.598   6.144  0.6344  0.9385 -0.0340
34539SOL    HW213932   8.783  12.671   6.273  1.8126 -0.1087  0.3161
34540SOL     OW13933  10.277  10.961   4.546 -0.3322 -0.4534  0.1783
34540SOL    HW113934  10.184  10.939   4.545 -0.3088 -0.5540 -0.6223
34540SOL    HW213935  10.289  11.015   4.468  0.0398  0.6144  0.9495
34541SOL     OW13936   2.843   5.611   1.248  0.2712  0.2565  0.5950
34541SOL    HW113937   2.892   5.587   1.169 -0.3561  1.0503 -0.0486
34541SOL    HW213938   2.907   5.601   1.319  0.8856 -0.3230 -0.0202
34542SOL     OW13939   7.398   2.709   1.927  0.4164 -0.2254  0.2169
34542SOL    HW113940   7.491   2.710   1.951  0.6119 -0.3630 -0.5082
34542SOL    HW213941   7.370   2.619   1.942 -0.0629  0.1979  2.0991
34543SOL     OW13942  10.838   5.282   8.847  0.2759 -0.0221 -0.4890
34543SOL    HW113943  10.913   5.253   8.899  0.3550  1.0464  0.0267
34543SOL    HW213944  10.834   5.220   8.774 -0.2881 -2.0111  1.1526
34544SOL     OW13945   8.803   2.183   9.177 -0.1406  0.6487  0.1512
34544SOL    HW113946   8.794   2.279   9.181 -2.3407  0.4856  0.6430
34544SOL    HW213947   8.765   2.159   9.093  2.0495  0.2903 -0.7999
34545SOL     OW13948   3.698   7.992   7.278 -0.0483 -0.1131  0.3502
34545SOL    HW113949   3.658   7.930   7.338  1.0411 -0.1769  1.0382
34545SOL    HW213950   3.776   8.023   7.324  0.4418  0.3496 -0.7537
34546SOL     OW13951   1.088  11.991   1.202  0.1034 -0.1745  0.0895
34546SOL    HW113952   1.170  12.035   1.182 -0.6075  0.5859 -1.3494
34546SOL    HW213953   1.061  12.027   1.287  1.0601 -0.1531  0.3884
34547SOL     OW13954  12.007   4.847   9.583 -0.5832 -0.2339 -0.3903
34547SOL    HW113955  12.067   4.772   9.585  0.5316  0.6393  0.1380
34547SOL    HW213956  12.051   4.914   9.636 -0.6726  1.4405 -2.3408
34548SOL     OW13957   1.695  10.468   1.017  0.2978  0.5754 -0.5419
34548SOL    HW113958   1.685  10.519   1.097  0.2030  0.6226 -0.5846
34548SOL    HW213959   1.738  10.527   0.955  2.4177 -0.1188  0.1555
34549SOL     OW13960   4.085  10.815   8.043  0.4137 -0.2025  0.4978
34549SOL    HW113961   4.046  10.804   8.130 -1.7480  2.8360  0.0761
34549SOL    HW213962   4.146  10.887   8.054 -0.3417  0.6337 -0.5821
34550SOL     OW13963   7.053   3.535   4.206 -0.0716  0.2417  0.2941
34550SOL    HW113964   7.078   3.538   4.114  1.2660 -1.2848  0.5669
34550SOL    HW213965   7.125   3.490   4.249 -1.0242  0.2415  1.9746
34551SOL     OW13966   7.361   9.235   8.350 -0.5261  0.3373  0.8609
34551SOL    HW113967   7.381   9.177   8.276  0.2695  2.4810 -0.7462
34551SOL    HW213968   7.295   9.295   8.316  0.1651  1.6424  1.7363
34552SOL     OW13969   3.094   3.159   5.754 -0.2847  0.3307  0.0068
34552SOL    HW113970   3.096   3.064   5.750 -1.5239  0.3018 -0.1719
34552SOL    HW213971   3.141   3.188   5.676 -2.4914 -0.1714 -1.5977
34553SOL     OW13972   8.067   8.653   5.983 -0.5397 -0.0249  0.1131
34553SOL    HW113973   7.987   8.626   6.027 -0.9558 -1.6099 -1.4815
34553SOL    HW213974   8.134   8.592   6.014  0.0408  1.1726  1.2951
34554SOL     OW13975   6.617   8.184   1.968  0.1212 -0.3698  0.2772
34554SOL    HW113976   6.683   8.198   1.900  0.7020  0.3862  0.9629
34554SOL    HW213977   6.667   8.152   2.043 -0.4644 -0.8992  0.4500
34555SOL     OW13978   7.177   7.364   9.461 -0.1384 -0.0610  0.0197
34555SOL    HW113979   7.126   7.304   9.406  0.7217  0.4003 -1.3433
34555SOL    HW213980   7.112   7.416   9.507 -0.9311  0.5763 -1.7404
34556SOL     OW13981   8.434   1.419   7.217  0.9666 -0.3737  0.4190
34556SOL    HW113982   8.522   1.393   7.245  1.6607  0.3590 -0.9781
34556SOL    HW213983   8.422   1.506   7.255  2.2231  0.9636 -2.0022
34557SOL     OW13984   3.858   8.537   2.175 -0.1438 -0.0918  0.5291
34557SOL    HW113985   3.787   8.475   2.159 -0.9175  1.0951 -0.8700
34557SOL    HW213986   3.937   8.492   2.144 -0.6956 -0.3943 -0.4686
34558SOL     OW13987  12.610   1.852  10.216 -0.4206  0.4311  0.3154
34558SOL    HW113988  12.620   1.801  10.297 -1.9210 -0.0769  0.2145
34558SOL    HW213989  12.551   1.924  10.240  1.6829  2.2146  0.4579
34559SOL     OW13990   0.563   8.824  10.176 -0.4573 -0.0928  0.2691
34559SOL    HW113991   0.557   8.815  10.081 -2.5205  0.0010  0.3471
34559SOL    HW213992   0.543   8.917  10.193 -1.2599 -0.3617  0.8494
34560SOL     OW13993   1.745   8.764   9.973  0.2949 -0.0471  0.1729
34560SOL    HW113994   1.675   8.711  10.011 -0.3028  0.9791  0.5393
34560SOL    HW213995   1.729   8.760   9.879  0.6649 -1.0609  0.1422
34561SOL     OW13996   1.804   3.846  11.373  0.4886  0.4081  0.5524
34561SOL    HW113997   1.888   3.873  11.336  0.7347 -0.3673  0.5219
34561SOL    HW213998   1.755   3.810  11.299  0.3987  0.2282  0.6984
34562SOL     OW13999   3.350   0.432  10.821  0.3517 -0.2689  0.4375
34562SOL    HW114000   3.414   0.497  10.790 -1.1382  1.0329 -0.0625
34562SOL    HW214001   3.315   0.469  10.901  1.0723 -1.5811  1.4042
34563SOL     OW14002   4.516   6.467   4.078  0.2332  0.4970  0.2880
34563SOL    HW114003   4.609   6.447   4.066  0.0966 -0.1054  0.1832
34563SOL    HW214004   4.504   6.472   4.173  0.2760  0.0572  0.3210
34564SOL     OW14005   1.560   4.123   0.253  0.3351 -0.3034  0.4572
34564SOL    HW114006   1.609   4.058   0.304  0.5368  0.4047  1.1879
34564SOL    HW214007   1.505   4.167   0.318  0.8130  0.8178  0.1132
34565SOL     OW14008   2.683   9.363   0.532  0.2272 -0.0770 -0.1099
34565SOL    HW114009   2.672   9.421   0.456  0.6768 -0.0400 -0.1511
34565SOL    HW214010   2.607   9.305   0.529  0.2315 -0.0659 -0.5844
34566SOL     OW14011  10.530  12.442   5.050 -0.3418  0.2613 -0.1901
34566SOL    HW114012  10.469  12.481   5.112  1.2781 -1.0615  2.4139
34566SOL    HW214013  10.580  12.516   5.016 -0.0144  0.9013  1.5763
34567SOL     OW14014  12.051   4.394   8.752  0.5338 -0.1190  0.1735
34567SOL    HW114015  11.962   4.429   8.749  0.6701  0.2447  0.3676
34567SOL    HW214016  12.064   4.356   8.665  0.3104  0.1303  0.0277
34568SOL     OW14017  10.570  12.515   0.624  0.0932  0.7313  0.7343
34568SOL    HW114018  10.523  12.433   0.641 -0.8850  1.5522  2.2573
34568SOL    HW214019  10.662  12.491   0.624 -0.2518 -0.7615 -1.2875
34569SOL     OW14020   7.173   1.420   4.750  0.5937 -0.4906  0.1297
34569SOL    HW114021   7.189   1.402   4.842 -2.1152 -1.7598  0.4652
34569SOL    HW214022   7.211   1.345   4.704  1.3094 -0.2168  0.2650
34570SOL     OW14023  10.008   3.449   5.280  0.1370  0.4858  0.4860
34570SOL    HW114024  10.059   3.368   5.283 -1.6547 -0.6785  2.8762
34570SOL    HW214025  10.072   3.517   5.259  2.2275 -1.1835  1.0906
34571SOL     OW14026   5.829   3.098   9.581 -0.3346 -0.1525  0.2785
34571SOL    HW114027   5.741   3.066   9.563 -0.1191  0.0827 -1.4496
34571SOL    HW214028   5.885   3.021   9.567 -0.3645 -0.8024  3.2210
34572SOL     OW14029   0.118  11.939   9.352 -0.3068 -0.4284  0.9474
34572SOL    HW114030   0.157  11.891   9.279  0.3350  0.4232  0.7149
34572SOL    HW214031   0.156  11.898   9.430 -0.4449 -0.8731  0.7838
34573SOL     OW14032   4.371   4.708   2.786  0.1616  0.1565  0.6048
34573SOL    HW114033   4.414   4.658   2.717  1.2137 -1.5496  2.3956
34573SOL    HW214034   4.303   4.651   2.819  0.4298  0.4623  1.7369
34574SOL     OW14035   5.987   4.069   8.669 -0.2390 -0.4210  0.3607
34574SOL    HW114036   5.963   4.150   8.714 -0.6750 -0.0113 -0.5912
34574SOL    HW214037   5.992   4.093   8.576  1.7744 -0.9694  0.2705
34575SOL     OW14038   7.295   0.665  10.135 -0.0716  0.3541 -0.4266
34575SOL    HW114039   7.219   0.610  10.118 -0.6722  1.2840 -0.8620
34575SOL    HW214040   7.259   0.747  10.168  0.7873  0.5600  0.0373
34576SOL     OW14041   1.529   7.266   1.678  0.0628 -0.2593  0.3299
34576SOL    HW114042   1.596   7.286   1.613 -1.2673  1.0277 -0.7131
34576SOL    HW214043   1.529   7.342   1.737 -0.5925 -0.1605  0.2095
34577SOL     OW14044   3.100  11.565   1.746  0.3262 -0.3387  1.0128
34577SOL    HW114045   3.175  11.594   1.695  0.1146  1.0309  1.4422
34577SOL    HW214046   3.106  11.614   1.828 -0.7329 -0.6191  1.2782
34578SOL     OW14047   9.772   1.065  10.072  0.3452 -0.5598  0.4383
34578SOL    HW114048   9.809   1.001  10.133 -0.7540  0.3747  2.1623
34578SOL    HW214049   9.840   1.132  10.063 -0.0176  0.0325  1.8422
34579SOL     OW14050  12.033   3.479   7.350  0.1776 -0.2852  0.3407
34579SOL    HW114051  11.953   3.432   7.326  0.8802 -0.6525 -1.4385
34579SOL    HW214052  12.040   3.466   7.445 -1.5505 -0.7172  0.4542
34580SOL     OW14053   5.668   2.777  10.009  0.3118 -0.0616 -0.3380
34580SOL    HW114054   5.612   2.780  10.087 -1.9166  0.4738 -1.8649
34580SOL    HW214055   5.697   2.686  10.004 -1.6408 -0.7320 -0.2629
34581SOL     OW14056   0.338   7.298  11.000 -0.2143 -0.3657 -0.5340
34581SOL    HW114057   0.249   7.271  11.024 -0.7991 -0.2486 -2.3473
34581SOL    HW214058   0.325   7.361  10.929  1.3085  0.4141 -0.1698
34582SOL     OW14059   2.191  11.891  12.657  0.5070  0.1527  0.0906
34582SOL    HW114060   2.181  11.913  12.565 -0.3962  1.0442  0.3822
34582SOL    HW214061   2.243  11.811  12.658  0.0434 -0.1783 -1.2069
34583SOL     OW14062  12.180   2.558   3.584  0.3571 -0.6431  0.0095
34583SOL    HW114063  12.184   2.639   3.634 -1.8045 -0.3095 -0.2632
34583SOL    HW214064  12.200   2.585   3.494  0.2323 -0.5101  0.0203
34584SOL     OW14065   1.054   5.151   5.529  0.1979 -0.2768  0.1217
34584SOL    HW114066   1.116   5.139   5.601 -0.2455 -0.9963  0.3967
34584SOL    HW214067   0.968   5.158   5.572 -0.0238 -0.2876 -0.3113
34585SOL     OW14068  12.900  12.736   6.908 -0.0774 -0.3722  0.3834
34585SOL    HW114069  12.921  12.826   6.884 -0.4237 -0.3579  0.1405
34585SOL    HW214070  12.873  12.742   7.000 -1.9014  0.0643 -0.1357
34586SOL     OW14071  10.002  10.661  10.741  0.3208  0.1188  0.0073
34586SOL    HW114072   9.908  10.657  10.724  0.4125 -0.7778 -0.3401
34586SOL    HW214073  10.010  10.715  10.819 -0.5770 -0.7063  0.7000
34587SOL     OW14074   8.747   8.884   9.129 -0.4142 -0.2131 -0.2743
34587SOL    HW114075   8.734   8.945   9.202  0.9713 -0.7585  0.4639
34587SOL    HW214076   8.680   8.817   9.142  0.2203 -0.6442  0.8732
34588SOL     OW14077   4.547  12.747  10.383 -0.0435 -0.0958  0.3281
34588SOL    HW114078   4.586  12.817  10.332 -0.2999  1.9958  2.8303
34588SOL    HW214079   4.614  12.679  10.386  0.9417  0.7963 -0.5950
34589SOL     OW14080   0.578   4.840   1.292  0.1168  0.7437 -0.2749
34589SOL    HW114081   0.636   4.765   1.304 -1.7439 -0.8486 -0.6125
34589SOL    HW214082   0.603   4.902   1.361  1.0501 -0.6193  0.6596
34590SOL     OW14083   4.815   4.363   8.878 -0.4308  0.5415 -0.2140
34590SOL    HW114084   4.753   4.435   8.875  0.1365  1.0305 -0.5651
34590SOL    HW214085   4.901   4.405   8.886 -0.1116 -0.1005 -0.1655
34591SOL     OW14086   3.115   0.359  11.768  0.1254 -0.4178  0.5306
34591SOL    HW114087   3.149   0.270  11.780  1.3578  0.2764  2.9025
34591SOL    HW214088   3.189   0.407  11.732 -0.2503 -0.1645  0.0991
34592SOL     OW14089   7.623   0.861   5.449  0.5512 -0.4656 -0.2915
34592SOL    HW114090   7.588   0.775   5.427 -0.9424  0.0992 -0.2296
34592SOL    HW214091   7.609   0.869   5.544 -0.6214  0.3814 -0.5147
34593SOL     OW14092   5.786   5.001   3.975 -0.3528  0.0007 -0.1425
34593SOL    HW114093   5.750   4.953   4.049  0.2238 -0.8176 -0.3788
34593SOL    HW214094   5.840   5.069   4.015 -1.5329  0.7720  0.2013
34594SOL     OW14095  12.104  10.395  12.760 -0.3088 -0.7929  0.0997
34594SOL    HW114096  12.051  10.316  12.751 -0.8996 -0.5693  1.3212
34594SOL    HW214097  12.040  10.467  12.756 -0.0378 -0.4872  0.9876
34595SOL     OW14098   2.091  10.267  12.730  0.1125 -0.0478  0.3876
34595SOL    HW114099   2.176  10.226  12.710 -0.3503 -0.8759  0.0292
34595SOL    HW214100   2.039  10.195  12.766 -0.3955  0.4907  0.7324
34596SOL     OW14101   9.795   5.850   7.046  0.0763 -0.1006  0.0204
34596SOL    HW114102   9.787   5.772   6.991  2.2592  0.2500 -0.9152
34596SOL    HW214103   9.797   5.923   6.984 -1.4351  0.7001  0.8544
34597SOL     OW14104   4.843   7.632   9.098  0.2921  0.1995  0.0852
34597SOL    HW114105   4.860   7.711   9.148 -1.2323  0.4727  0.2079
34597SOL    HW214106   4.748   7.630   9.086  0.3726 -1.2031 -0.5862
34598SOL     OW14107   5.617  11.794  12.325  0.0584  0.0037 -0.0196
34598SOL    HW114108   5.556  11.765  12.393 -0.8061  1.0127 -0.3260
34598SOL    HW214109   5.703  11.788  12.366 -0.4552  0.7107  1.2187
34599SOL     OW14110   8.247   0.709   9.239 -0.7153 -0.3426  0.4648
34599SOL    HW114111   8.341   0.718   9.225 -1.1397  1.2688 -1.9617
34599SOL    HW214112   8.233   0.616   9.257  1.0177 -1.2413 -2.3518
34600SOL     OW14113   7.245   3.618   7.294  0.3587 -0.0333  0.5665
34600SOL    HW114114   7.188   3.695   7.295  0.6567  0.1888  0.9992
34600SOL    HW214115   7.222   3.571   7.374  2.0921  1.0480  1.7505
34601SOL     OW14116   2.948  11.809  12.426  0.2702 -0.2615 -0.0528
34601SOL    HW114117   3.009  11.739  12.453 -0.9118 -2.3842 -2.4318
34601SOL    HW214118   2.899  11.830  12.506  0.4818 -2.4107  0.7279
34602SOL     OW14119   6.167   5.040   8.421  0.9266 -1.4182  0.2523
34602SOL    HW114120   6.189   5.129   8.393 -0.0966 -0.1575  3.0438
34602SOL    HW214121   6.118   5.003   8.348  0.9021  0.5316 -0.7745
34603SOL     OW14122   6.483   6.333  10.336  0.0062 -0.3740  0.0520
34603SOL    HW114123   6.479   6.398  10.265  0.4637 -0.1121  0.2576
34603SOL    HW214124   6.393   6.303  10.347 -0.0638 -0.4551 -0.6741
34604SOL     OW14125   8.177   1.552   9.019  0.5472  0.3434 -0.4086
34604SOL    HW114126   8.184   1.518   8.930 -1.0376  0.5061 -0.6161
34604SOL    HW214127   8.263   1.590   9.036  1.3567 -0.9856 -1.3106
34605SOL     OW14128  12.053   8.362   5.061  0.4312  0.1533  0.5391
34605SOL    HW114129  12.107   8.412   5.123  1.5898 -0.2554 -0.1091
34605SOL    HW214130  11.973   8.341   5.110  1.1779  0.1274  1.7832
34606SOL     OW14131   1.411  12.777   7.794  0.2223  0.3914  0.3879
34606SOL    HW114132   1.415  12.714   7.865 -0.3311  0.4956  0.5135
34606SOL    HW214133   1.334  12.752   7.743  1.5457 -0.7129 -1.1618
34607SOL     OW14134  10.064  10.351   5.516  0.1521 -0.0589 -0.1104
34607SOL    HW114135  10.097  10.429   5.471  0.6137  0.0315  0.3865
34607SOL    HW214136   9.978  10.336   5.476 -0.5019  1.4432  0.6485
34608SOL     OW14137  11.319   6.479   1.426  0.5118 -0.8959 -0.2931
34608SOL    HW114138  11.379   6.552   1.443 -0.8660  0.0673  0.5889
34608SOL    HW214139  11.348   6.410   1.486  2.0831 -1.2842 -1.4229
34609SOL     OW14140   6.205  10.011   7.898  0.4729  0.0589  0.2793
34609SOL    HW114141   6.292  10.049   7.883 -0.4228  1.4161 -1.8390
34609SOL    HW214142   6.162  10.073   7.956  0.7016 -0.3227  0.8662
34610SOL     OW14143   3.778   8.725   3.737  0.3562  0.1876  0.1832
34610SOL    HW114144   3.839   8.652   3.749  0.3134 -0.2164 -1.6416
34610SOL    HW214145   3.695   8.683   3.715 -0.4011  0.7553  1.8435
34611SOL     OW14146   0.656   4.652  10.437  0.4419  0.3635 -0.2552
34611SOL    HW114147   0.646   4.607  10.521  0.1288  0.1812 -0.3891
34611SOL    HW214148   0.750   4.663  10.426  0.5090 -0.1247 -0.1507
34612SOL     OW14149   7.979   2.868   2.441  0.2832  0.1446  0.5493
34612SOL    HW114150   8.007   2.934   2.377 -1.5983  0.0903 -0.4005
34612SOL    HW214151   8.034   2.792   2.421  1.5315  0.9597  0.7561
34613SOL     OW14152   1.841   1.402   5.405 -0.2541 -0.2955 -0.3096
34613SOL    HW114153   1.799   1.482   5.437 -0.0771 -0.1602 -0.4147
34613SOL    HW214154   1.846   1.414   5.310  1.6728  0.4890 -0.1363
34614SOL     OW14155   3.479  10.030  10.564  0.5368  0.0674 -0.5673
34614SOL    HW114156   3.557   9.989  10.604  0.7826  1.1396  0.0775
34614SOL    HW214157   3.414  10.030  10.633  0.1064 -0.3708 -0.9590
34615SOL     OW14158   7.831   7.422   2.652  0.0217 -0.4500  0.2955
34615SOL    HW114159   7.863   7.448   2.566 -0.9699 -0.4669 -0.0901
34615SOL    HW214160   7.810   7.329   2.643  3.3911 -1.4771  1.6183
34616SOL     OW14161   6.328   8.662  12.453  0.3672  0.0484  0.2141
34616SOL    HW114162   6.388   8.635  12.522  0.2619  0.1678  0.3530
34616SOL    HW214163   6.299   8.749  12.479  1.6340  0.8179 -0.8395
34617SOL     OW14164  10.077  11.186   6.685  0.1865  0.1976 -0.2246
34617SOL    HW114165  10.165  11.188   6.646  0.7729  0.5836  1.0715
34617SOL    HW214166  10.092  11.188   6.779 -1.2215  0.1594  0.0251
34618SOL     OW14167   7.560   5.229   7.207 -0.0749  0.2089  0.4444
34618SOL    HW114168   7.476   5.275   7.200 -0.4563  0.2250  3.4593
34618SOL    HW214169   7.625   5.298   7.206  0.1462  0.1181 -3.2418
34619SOL     OW14170   3.530   3.133   5.138 -0.0727  0.4082  0.2749
34619SOL    HW114171   3.516   3.061   5.076 -0.2616  1.3971 -0.8507
34619SOL    HW214172   3.447   3.179   5.140  0.9274  2.4432 -1.4511
34620SOL     OW14173   3.098   0.790   4.833 -0.3306  0.1136  0.2939
34620SOL    HW114174   3.149   0.870   4.826  0.0301 -0.1394 -0.0109
34620SOL    HW214175   3.054   0.797   4.917 -0.1544  0.5472  0.3518
34621SOL     OW14176  11.353   7.873   5.734 -0.1534  0.0299  0.4890
34621SOL    HW114177  11.393   7.930   5.669 -0.7186 -1.0163 -0.8286
34621SOL    HW214178  11.379   7.910   5.818  2.0550  0.4196 -0.3062
34622SOL     OW14179   1.214  11.066  12.598  0.6158  0.7109  0.8025
34622SOL    HW114180   1.176  11.085  12.684 -1.4533  1.3689 -0.1780
34622SOL    HW214181   1.156  11.000  12.561  2.0340 -0.2539  0.2639
34623SOL     OW14182   5.808  10.440  11.744  0.8833  0.4297  0.4035
34623SOL    HW114183   5.750  10.428  11.819  0.2391 -0.5988 -0.2285
34623SOL    HW214184   5.881  10.381  11.760  1.4392  1.2315  0.8762
34624SOL     OW14185  12.118  11.796   7.716  0.1310 -0.0343 -0.9683
34624SOL    HW114186  12.200  11.840   7.693  0.9526 -1.7174 -1.4208
34624SOL    HW214187  12.130  11.770   7.808 -0.7063  1.3684 -0.4197
34625SOL     OW14188   5.622  12.191   2.841 -0.3504 -0.2777  0.1217
34625SOL    HW114189   5.611  12.111   2.790  1.1003 -1.1325  1.0792
34625SOL    HW214190   5.639  12.161   2.930  0.0213  1.0992  0.5360
34626SOL     OW14191   8.563   4.630   4.856  0.2824 -0.4030  0.6415
34626SOL    HW114192   8.563   4.691   4.782  1.4750 -1.1858 -0.0272
34626SOL    HW214193   8.517   4.553   4.823  1.1880 -0.9197  0.5607
34627SOL     OW14194   1.657   7.497   2.096 -0.1305 -0.3938  0.2522
34627SOL    HW114195   1.589   7.562   2.114 -0.1800 -0.7424  1.3504
34627SOL    HW214196   1.613   7.429   2.045 -0.5802 -0.5723  0.8789
34628SOL     OW14197   1.335  10.419   5.038  0.0354 -0.1338  0.3220
34628SOL    HW114198   1.400  10.363   4.997  0.0141 -0.2083  0.3880
34628SOL    HW214199   1.290  10.362   5.100  0.0426 -0.0327  0.4217
34629SOL     OW14200   1.843   7.554   9.129 -0.2066 -0.4385  0.6314
34629SOL    HW114201   1.764   7.608   9.137 -0.4794 -0.5072 -1.1926
34629SOL    HW214202   1.880   7.578   9.044  0.3916 -2.1635  0.3695
34630SOL     OW14203   0.212   5.491   2.783 -0.5432 -0.3455  0.0839
34630SOL    HW114204   0.192   5.452   2.698  0.4225  0.9262 -0.7751
34630SOL    HW214205   0.127   5.518   2.818 -0.8236  0.8703 -1.3981
34631SOL     OW14206  11.976   3.385   7.849 -0.0270  0.2038 -0.0838
34631SOL    HW114207  12.001   3.326   7.920  1.4601 -1.9716 -2.2802
34631SOL    HW214208  11.894   3.348   7.816 -1.2954  1.8316  1.0647
34632SOL     OW14209   5.210   1.025   5.394 -0.4459  0.1386 -0.0392
34632SOL    HW114210   5.293   1.063   5.422  1.2699 -1.7662 -2.1009
34632SOL    HW214211   5.193   0.955   5.457  1.1272 -1.3415 -1.1504
34633SOL     OW14212   2.168   5.475   7.374  0.1345  0.4172 -0.0608
34633SOL    HW114213   2.091   5.424   7.398  0.0708  0.6420  0.2103
34633SOL    HW214214   2.214   5.420   7.310 -0.6269  0.5918 -0.7839
34634SOL     OW14215   7.555   7.111   8.594  0.1146  0.2601  0.6387
34634SOL    HW114216   7.636   7.064   8.574 -0.5570 -0.0337 -1.6775
34634SOL    HW214217   7.520   7.137   8.508 -2.2112  0.4226  1.5581
34635SOL     OW14218   8.189   9.722  12.736  0.4241  0.3215  0.1334
34635SOL    HW114219   8.277   9.717  12.774  0.7865 -3.4065 -0.7861
34635SOL    HW214220   8.205   9.735  12.643 -0.0761  0.5412  0.0775
34636SOL     OW14221   9.023   2.695   8.803 -0.2361 -0.3512  0.3618
34636SOL    HW114222   9.066   2.742   8.731 -2.4118  0.7972 -0.2827
34636SOL    HW214223   9.051   2.742   8.882 -1.1255  1.1256 -0.1436
34637SOL     OW14224   4.574   1.111   5.484  0.6987  0.2063 -0.2310
34637SOL    HW114225   4.530   1.065   5.555  0.4133 -0.1988 -0.6605
34637SOL    HW214226   4.656   1.062   5.471 -0.1413 -0.9458 -1.4796
34638SOL     OW14227   7.464  10.419  12.963  0.0698 -0.0351 -0.4220
34638SOL    HW114228   7.430  10.505  12.988  0.6552 -0.1403  0.7871
34638SOL    HW214229   7.489  10.378  13.046  0.3107 -1.1605 -1.0307
34639SOL     OW14230  12.980  10.142  11.910 -0.5705 -0.0012  0.2703
34639SOL    HW114231  13.050  10.208  11.913 -0.5953  0.0585 -0.3038
34639SOL    HW214232  12.945  10.148  11.821 -0.0819 -1.2931 -0.0337
34640SOL     OW14233   6.154  12.358   5.663  0.0062 -0.0371  0.1328
34640SOL    HW114234   6.103  12.278   5.673 -0.3475 -0.0320 -1.4095
34640SOL    HW214235   6.121  12.416   5.732 -1.8039 -0.1813 -0.5600
34641SOL     OW14236   7.411   6.606   6.300 -0.1475  0.5131  0.1907
34641SOL    HW114237   7.439   6.698   6.301 -1.0924  0.8490  1.8670
34641SOL    HW214238   7.491   6.556   6.285  0.2839  1.6119 -1.4358
34642SOL     OW14239   5.952   4.976   2.277  0.2924 -0.2723 -0.6486
34642SOL    HW114240   5.907   4.965   2.194 -0.8052 -0.5557 -0.0318
34642SOL    HW214241   5.882   4.983   2.342  1.0854 -2.4939  0.5605
34643SOL     OW14242  11.839   0.188   5.557 -0.1519  0.2393 -0.0775
34643SOL    HW114243  11.876   0.205   5.470  2.6945  1.3609  1.2203
34643SOL    HW214244  11.900   0.127   5.598  0.0225  1.6830  1.9923
34644SOL     OW14245   1.213  12.693  12.676 -0.4665 -0.4204 -0.1706
34644SOL    HW114246   1.149  12.681  12.746 -0.5449 -0.6012 -0.2714
34644SOL    HW214247   1.219  12.787  12.664 -1.1639 -0.4258 -0.5760
34645SOL     OW14248   5.990  12.471   9.908 -0.0666  0.8470 -0.1200
34645SOL    HW114249   6.044  12.406   9.863  0.4779  0.4159  1.1103
34645SOL    HW214250   6.031  12.555   9.886 -0.0104  0.6771 -0.6818
34646SOL     OW14251   3.093   1.805   7.659  0.5550 -0.3643  0.0332
34646SOL    HW114252   3.179   1.783   7.623  0.6976  0.1151  0.0764
34646SOL    HW214253   3.031   1.765   7.597  0.8012  0.5557 -0.8271
34647SOL     OW14254   6.807   4.502   4.335  0.4319 -0.4179  0.0011
34647SOL    HW114255   6.822   4.465   4.421 -1.0020 -0.8153  0.1107
34647SOL    HW214256   6.882   4.560   4.320  1.3600 -1.3422  0.9355
34648SOL     OW14257   1.510   6.340   5.529 -0.0431 -0.2449  0.1395
34648SOL    HW114258   1.525   6.393   5.451  1.1810  3.3679  2.5665
34648SOL    HW214259   1.569   6.265   5.519  0.0946  0.1151 -2.3397
34649SOL     OW14260   5.745  12.224   8.288  0.2965 -0.1122 -0.3672
34649SOL    HW114261   5.822  12.248   8.340  0.0458  0.0461 -0.0655
34649SOL    HW214262   5.674  12.275   8.326 -0.2103 -1.1773  0.1430
34650SOL     OW14263   2.789   9.940   7.944 -0.2189  0.1257  0.0241
34650SOL    HW114264   2.693   9.936   7.934 -0.4216  1.4797  1.1086
34650SOL    HW214265   2.823   9.919   7.856 -1.4421 -1.5995 -0.0951
34651SOL     OW14266  10.175  11.821  12.051  0.4376  0.0176 -0.1205
34651SOL    HW114267  10.163  11.846  11.960  1.8241  1.0849 -0.0499
34651SOL    HW214268  10.107  11.870  12.098  1.8877  2.2609 -0.2199
34652SOL     OW14269   3.952   9.770   1.748  0.1119 -0.7328 -0.0738
34652SOL    HW114270   3.858   9.783   1.734  0.1324 -0.3651  0.1169
34652SOL    HW214271   3.978   9.841   1.807  0.1860 -1.7673  1.1857
34653SOL     OW14272   5.747   1.728   9.132  0.4383  0.1036  0.1426
34653SOL    HW114273   5.665   1.772   9.154 -0.5354 -1.4330 -0.2663
34653SOL    HW214274   5.811   1.799   9.125 -1.2121  1.5535 -1.2473
34654SOL     OW14275   5.073   2.227   4.920 -0.4477  0.0386 -0.1643
34654SOL    HW114276   5.114   2.155   4.967 -0.2836  1.0765  1.3608
34654SOL    HW214277   5.011   2.264   4.983 -1.5191  0.4056 -1.3824
34655SOL     OW14278  10.636  12.895   3.004  0.6894  0.4908 -0.2068
34655SOL    HW114279  10.680  12.974   3.035  2.0664  0.3463 -1.6798
34655SOL    HW214280  10.698  12.825   3.021 -0.5541 -0.3531  1.1594
34656SOL     OW14281   9.004   2.442   6.701  0.3042  0.2372 -0.4197
34656SOL    HW114282   9.035   2.395   6.623 -1.0748 -1.0426 -0.2362
34656SOL    HW214283   9.064   2.416   6.770  0.9424  0.5971 -0.8290
34657SOL     OW14284  11.693  11.759   3.300 -0.2547 -0.1949 -0.0312
34657SOL    HW114285  11.618  11.765   3.359 -0.2537  0.9572 -0.1232
34657SOL    HW214286  11.758  11.708   3.348 -0.0853  1.0926  1.1672
34658SOL     OW14287  12.940   7.267  12.569  0.2435 -0.5123 -0.5589
34658SOL    HW114288  12.983   7.182  12.571  1.0550 -0.1242 -0.9229
34658SOL    HW214289  12.861   7.253  12.518  0.1361 -1.1450 -0.2331
34659SOL     OW14290  10.161  12.707   4.517  0.1155  0.2807 -0.0295
34659SOL    HW114291  10.166  12.721   4.611  0.3931 -0.3896  0.0632
34659SOL    HW214292  10.076  12.666   4.503  0.3495 -0.2316  0.0179
34660SOL     OW14293   9.654   4.366   5.239  0.4577  0.2959 -0.1541
34660SOL    HW114294   9.634   4.452   5.203  1.8986  0.7874  0.1840
34660SOL    HW214295   9.706   4.384   5.317  1.6777 -0.8954 -0.6518
34661SOL     OW14296   0.315  10.122  12.713 -0.2226  0.0572  0.2187
34661SOL    HW114297   0.321  10.036  12.671  1.6390  0.6494 -0.8403
34661SOL    HW214298   0.293  10.182  12.642 -1.7030  0.4904  0.9839
34662SOL     OW14299   8.925   9.140  11.111  0.3257  0.0999 -0.6206
34662SOL    HW114300   8.961   9.166  11.026  1.7104 -0.8440 -0.3558
34662SOL    HW214301   8.834   9.116  11.092  0.9223 -1.1858 -2.0655
34663SOL     OW14302   0.056   6.208   4.545 -0.3519  0.1672  0.2870
34663SOL    HW114303  -0.034   6.227   4.572 -0.5309  0.1745 -0.2961
34663SOL    HW214304   0.082   6.284   4.493 -0.2806 -0.1711 -0.1797
34664SOL     OW14305  11.902  10.364   2.742  0.0838  0.2787  0.1062
34664SOL    HW114306  11.843  10.292   2.720 -1.3666  1.5221 -0.2976
34664SOL    HW214307  11.945  10.337   2.823 -1.2992 -0.5452  0.5954
34665SOL     OW14308   0.217   9.566   5.821  0.3762 -0.5549  0.0974
34665SOL    HW114309   0.170   9.491   5.858 -1.6679  0.7245  0.2908
34665SOL    HW214310   0.150   9.613   5.771  2.2155 -0.2498 -2.2293
34666SOL     OW14311   6.407   4.816   4.005 -0.1420  0.4924  0.3739
34666SOL    HW114312   6.329   4.814   3.949 -0.1564 -0.3971  0.4033
34666SOL    HW214313   6.456   4.738   3.979 -0.0026  0.2313  1.3962
34667SOL     OW14314  12.152   8.663   0.579  0.0177 -0.6204 -0.0679
34667SOL    HW114315  12.150   8.745   0.531 -0.8252 -0.4115  0.2974
34667SOL    HW214316  12.087   8.607   0.535 -0.1386 -0.7278  0.2867
34668SOL     OW14317   7.258   8.847   5.585  0.1759 -0.1446  0.3184
34668SOL    HW114318   7.294   8.798   5.659 -0.3982  0.9858  1.3952
34668SOL    HW214319   7.197   8.785   5.543  1.3206 -1.1595  0.1060
34669SOL     OW14320   0.944   9.170   1.754  0.4021  0.0809 -0.1792
34669SOL    HW114321   0.922   9.077   1.766  2.1630 -0.5246 -1.1903
34669SOL    HW214322   0.866   9.217   1.782  0.0487 -1.6150  1.9813
34670SOL     OW14323  10.269   1.146   0.757 -0.2950 -0.6253  0.4551
34670SOL    HW114324  10.258   1.054   0.736 -2.3650 -0.5521  0.9586
34670SOL    HW214325  10.184   1.173   0.792 -0.1177  1.7497 -0.6980
34671SOL     OW14326   5.563   2.294   0.859  0.2613 -0.1339  0.4533
34671SOL    HW114327   5.486   2.266   0.909 -0.6593  0.7611 -0.4365
34671SOL    HW214328   5.531   2.308   0.770  1.8007 -1.3230 -0.3450
34672SOL     OW14329   1.922   1.939   7.027  0.6682 -0.6075  0.6806
34672SOL    HW114330   1.954   2.000   7.093  0.1643  0.8561 -0.3682
34672SOL    HW214331   1.984   1.948   6.955 -1.3361  1.5017 -0.9667
34673SOL     OW14332   1.343   1.194  11.884  0.5345  0.1447  0.0186
34673SOL    HW114333   1.346   1.267  11.822  0.0707 -0.2571 -0.4852
34673SOL    HW214334   1.275   1.136  11.850  0.7790 -0.4419  0.5073
34674SOL     OW14335   2.772  12.840  11.857 -0.3688  0.2638  0.3075
34674SOL    HW114336   2.724  12.897  11.916  0.3722 -0.0434  1.2394
34674SOL    HW214337   2.747  12.868  11.769 -1.9518  0.3390  0.7615
34675SOL     OW14338   6.158   3.184   7.929 -0.1180  0.2014  0.0568
34675SOL    HW114339   6.192   3.181   8.019 -1.0058  1.3490  0.4548
34675SOL    HW214340   6.111   3.267   7.924 -0.7408 -0.2080 -1.2433
34676SOL     OW14341   8.897  10.299   8.736 -0.0313 -0.1494 -0.3613
34676SOL    HW114342   8.838  10.254   8.796 -0.3701 -0.7536 -1.1255
34676SOL    HW214343   8.970  10.238   8.724  0.1419  0.0624 -0.3886
34677SOL     OW14344  12.266   4.016   9.063  0.0933  0.3272  0.1989
34677SOL    HW114345  12.275   4.074   8.988  0.3380  0.0217 -0.0067
34677SOL    HW214346  12.173   4.021   9.086 -0.1062 -0.0366 -0.4925
34678SOL     OW14347  12.891   7.633   9.962 -0.7360 -0.5479 -0.0104
34678SOL    HW114348  12.886   7.628   9.867 -0.0298 -0.3927 -0.0580
34678SOL    HW214349  12.823   7.573   9.993 -0.7740 -0.8141 -0.6089
34679SOL     OW14350  11.802  11.842   6.068  0.3068  0.6875  0.3890
34679SOL    HW114351  11.861  11.819   6.140  0.4691 -0.4452 -0.0845
34679SOL    HW214352  11.788  11.936   6.078  1.7691  0.8948  0.8479
34680SOL     OW14353   1.928   7.221  11.570  0.3204 -0.1429  0.4552
34680SOL    HW114354   1.941   7.140  11.521  1.7171  1.3720 -1.8990
34680SOL    HW214355   1.997   7.220  11.637  0.0241 -1.0955  0.7574
34681SOL     OW14356   8.320  11.020   0.871  0.3856 -0.1846 -0.2540
34681SOL    HW114357   8.409  11.009   0.906 -0.1867 -1.4272  0.8622
34681SOL    HW214358   8.264  10.969   0.929 -1.0007  0.1055 -1.2789
34682SOL     OW14359  12.529   5.741   3.657  0.4154 -0.0886  0.7802
34682SOL    HW114360  12.471   5.814   3.636  1.6571  0.7306  0.0806
34682SOL    HW214361  12.473   5.664   3.651 -0.4135  0.5880 -0.7517
34683SOL     OW14362  12.630   6.724   4.217  0.2640 -0.1600 -0.2507
34683SOL    HW114363  12.564   6.736   4.285  0.1159  2.4837 -0.7594
34683SOL    HW214364  12.705   6.686   4.262 -0.4615 -0.1397  1.0071
34684SOL     OW14365   4.741   9.812   0.716  0.5049  0.2941 -0.0292
34684SOL    HW114366   4.770   9.775   0.633  1.9455  2.6073 -0.6363
34684SOL    HW214367   4.811   9.871   0.743 -1.0153  1.5081  1.5730
34685SOL     OW14368   4.495   3.671   6.354  0.2957  0.2613  0.9579
34685SOL    HW114369   4.483   3.583   6.317 -2.0111 -0.3007  2.7658
34685SOL    HW214370   4.580   3.667   6.398 -0.3095 -1.5942  2.1337
34686SOL     OW14371   3.921   9.368   5.234  0.9928 -0.3201  0.3515
34686SOL    HW114372   3.988   9.315   5.278  1.1546 -1.1266 -0.8268
34686SOL    HW214373   3.959   9.391   5.150 -0.2994 -1.0268 -0.4625
34687SOL     OW14374   7.918   1.855   6.621 -0.1984 -0.0130  0.2601
34687SOL    HW114375   7.936   1.944   6.590 -0.4101  0.1523  0.5989
34687SOL    HW214376   7.823   1.849   6.622 -0.2041 -1.0806 -2.0744
34688SOL     OW14377  10.881   1.804   5.941 -0.3538  0.1018 -0.2068
34688SOL    HW114378  10.961   1.774   5.984  0.7437  1.1165 -1.4706
34688SOL    HW214379  10.850   1.728   5.892 -1.1249 -0.7944  1.5900
34689SOL     OW14380   3.043  12.802   0.014 -0.5445  0.1384  0.2431
34689SOL    HW114381   3.056  12.764   0.100  0.5915  1.4003  0.6574
34689SOL    HW214382   3.073  12.892   0.022  0.1346  0.1258 -1.6220
34690SOL     OW14383   7.178   4.836   4.818 -0.0130 -0.1951  0.1245
34690SOL    HW114384   7.142   4.806   4.735  0.4431 -0.1596 -0.0899
34690SOL    HW214385   7.106   4.827   4.880 -0.1171 -1.0017 -0.1027
34691SOL     OW14386   4.598  10.415   5.206 -0.3124 -0.0803 -0.5141
34691SOL    HW114387   4.564  10.381   5.289 -1.5068  1.0421 -0.5049
34691SOL    HW214388   4.693  10.404   5.212 -0.5256 -1.7519  0.1913
34692SOL     OW14389   9.700   1.337  12.896 -0.3045  0.8058 -0.1635
34692SOL    HW114390   9.682   1.307  12.807 -1.8934 -0.6745  0.6060
34692SOL    HW214391   9.629   1.397  12.916 -0.2643  0.7059  0.2907
34693SOL     OW14392   4.646   2.160   2.720 -0.4958 -0.1068  0.2532
34693SOL    HW114393   4.703   2.235   2.702  0.4718 -0.9847 -0.4930
34693SOL    HW214394   4.664   2.138   2.812 -0.1764  0.0737  0.2349
34694SOL     OW14395   2.408   8.120  12.445 -0.3469 -0.1058 -0.0089
34694SOL    HW114396   2.422   8.214  12.432  0.6159 -0.1930  0.3066
34694SOL    HW214397   2.418   8.106  12.539  0.7710 -0.6907 -0.1825
34695SOL     OW14398   5.490   9.942   9.895 -0.0311  0.2292  0.7186
34695SOL    HW114399   5.577   9.968   9.865 -0.7429  1.4238 -0.3795
34695SOL    HW214400   5.499   9.939   9.991  1.4075 -0.4708  0.6026
34696SOL     OW14401   1.435  12.510   0.626 -0.3341 -0.3196 -0.5463
34696SOL    HW114402   1.375  12.440   0.601  1.0541 -1.9659  0.4699
34696SOL    HW214403   1.442  12.566   0.549 -2.6835 -0.3714 -0.8743
34697SOL     OW14404   3.954  11.874  10.461  0.1614  0.5302  0.0595
34697SOL    HW114405   3.880  11.817  10.443 -0.0578  0.7764  0.1849
34697SOL    HW214406   3.985  11.847  10.547 -0.8929  1.6117  0.8115
34698SOL     OW14407   6.812   1.420   6.749  0.4021  0.5072  0.2418
34698SOL    HW114408   6.834   1.405   6.841  2.0720  1.4453  0.0379
34698SOL    HW214409   6.893   1.453   6.710 -0.1123 -0.3869 -1.7080
34699SOL     OW14410  10.977   2.922   6.110 -0.3578 -0.0589 -0.1078
34699SOL    HW114411  11.000   2.831   6.093  1.7189  0.5887 -1.0715
34699SOL    HW214412  10.881   2.923   6.110 -0.4317 -2.2411  0.0757
34700SOL     OW14413  11.678   1.759   0.695 -0.0531 -0.2471 -0.3803
34700SOL    HW114414  11.708   1.682   0.744  0.1682 -0.0761 -0.2455
34700SOL    HW214415  11.715   1.834   0.743  0.8228 -0.1110 -1.2501
34701SOL     OW14416   3.930   8.589   0.786  0.0282 -0.1976 -1.0131
34701SOL    HW114417   3.872   8.624   0.719  1.6417 -1.8881 -3.4736
34701SOL    HW214418   3.949   8.663   0.843 -4.4033  0.4639 -0.0153
34702SOL     OW14419  12.911   9.294   5.019 -0.8397  0.1118 -0.0016
34702SOL    HW114420  12.875   9.207   5.032 -0.5569 -0.1092 -0.6075
34702SOL    HW214421  12.998   9.291   5.060  1.1701 -1.4142 -3.8238
34703SOL     OW14422   6.264   8.320   8.570  0.3029 -0.0271 -0.0156
34703SOL    HW114423   6.298   8.390   8.514 -1.2924 -0.3252 -1.4555
34703SOL    HW214424   6.315   8.326   8.650  1.4224  1.6248 -0.7990
34704SOL     OW14425   0.410   5.945   8.284  0.5956 -0.0851  0.4006
34704SOL    HW114426   0.387   5.906   8.368  2.4229 -0.5219  0.7340
34704SOL    HW214427   0.492   5.902   8.259  0.0187 -0.0823 -1.6972
34705SOL     OW14428  10.710   6.000   2.842  0.3183 -0.0677  0.1387
34705SOL    HW114429  10.660   5.973   2.919  0.1027 -1.7115 -0.5220
34705SOL    HW214430  10.648   5.990   2.769  0.3601  1.9234 -0.2366
34706SOL     OW14431  10.250   7.470   0.836  0.2164  0.0336 -0.2182
34706SOL    HW114432  10.315   7.531   0.871  0.4985 -0.0953 -0.5187
34706SOL    HW214433  10.183   7.526   0.797  0.1798  0.1638  0.0248
34707SOL     OW14434   9.445  12.207   6.277  0.0304  0.4777  0.6126
34707SOL    HW114435   9.422  12.290   6.236 -0.3068  0.2638  0.3635
34707SOL    HW214436   9.481  12.231   6.362  2.7469  1.0728 -0.6127
34708SOL     OW14437   4.465   8.321   9.624 -0.3271  0.2303 -0.0410
34708SOL    HW114438   4.558   8.332   9.647 -0.2187  0.1291 -0.4257
34708SOL    HW214439   4.465   8.253   9.557 -0.7428 -0.2449  0.4318
34709SOL     OW14440   5.362   8.123   2.621  0.4221 -0.1065  0.3910
34709SOL    HW114441   5.339   8.031   2.606 -0.3707  0.1491 -0.0083
34709SOL    HW214442   5.455   8.121   2.643  0.6435 -0.9069 -0.5589
34710SOL     OW14443   5.969   2.219   3.792 -0.0827  0.1040  0.0337
34710SOL    HW114444   6.008   2.175   3.716 -0.4965  2.0304 -1.3760
34710SOL    HW214445   5.876   2.228   3.768 -0.6215 -0.9097  1.6181
34711SOL     OW14446  11.115  10.376  12.434 -0.4760  0.4962 -0.2849
34711SOL    HW114447  11.099  10.348  12.344 -1.4326 -1.2130  0.3605
34711SOL    HW214448  11.049  10.329  12.486  0.7382  0.5623  1.4313
34712SOL     OW14449  10.295   2.409   3.947  0.6908 -0.4546  0.1092
34712SOL    HW114450  10.331   2.335   3.995  1.0259 -0.5748 -0.3145
34712SOL    HW214451  10.274   2.373   3.861 -0.7986 -0.4759  0.4632
34713SOL     OW14452   9.114   0.853  12.517 -0.0007 -0.4747 -0.6314
34713SOL    HW114453   9.172   0.873  12.444 -2.5520  1.0671 -2.4089
34713SOL    HW214454   9.029   0.835  12.476 -1.6856  0.9540  1.9564
34714SOL     OW14455   4.733  10.445   9.601  0.0808  0.2765 -0.1170
34714SOL    HW114456   4.793  10.498   9.655 -0.5018  1.0112 -0.1635
34714SOL    HW214457   4.783  10.424   9.522  0.3548  0.6849 -0.0558
34715SOL     OW14458   0.803  11.608   6.825 -0.5338 -0.0557  0.3264
34715SOL    HW114459   0.872  11.555   6.866 -1.0004 -0.5342  0.5057
34715SOL    HW214460   0.836  11.627   6.738 -2.0304 -4.1452 -1.3764
34716SOL     OW14461  11.353  10.098   3.413  0.1188 -0.4225  0.0846
34716SOL    HW114462  11.439  10.089   3.371 -0.2844  2.5072 -1.6015
34716SOL    HW214463  11.296  10.039   3.363  0.2326  1.0225 -1.8451
34717SOL     OW14464   7.217  11.530   4.775  0.1043  0.1190  0.4592
34717SOL    HW114465   7.313  11.524   4.774  0.2510  1.7344  1.5666
34717SOL    HW214466   7.190  11.464   4.839  0.5194  0.0957  0.6158
34718SOL     OW14467   8.451  11.199   3.348  0.2914  0.1332  0.1125
34718SOL    HW114468   8.397  11.147   3.408  1.8109 -0.0266  1.4014
34718SOL    HW214469   8.435  11.160   3.262 -1.7477  0.1970  0.4118
34719SOL     OW14470   5.055   1.293  10.657 -0.8124  0.4712  0.5596
34719SOL    HW114471   5.003   1.330  10.728  1.6133 -1.0146  3.3167
34719SOL    HW214472   5.142   1.332  10.668 -0.3157  0.0752 -1.5324
34720SOL     OW14473   4.021  11.095   5.517 -0.2293 -0.0816  0.0624
34720SOL    HW114474   3.994  11.003   5.519  1.1899 -0.5418 -0.7116
34720SOL    HW214475   4.019  11.122   5.608  0.7716 -1.3323  0.4896
34721SOL     OW14476  12.961   5.276  12.278  0.0822 -0.0176  0.3864
34721SOL    HW114477  12.956   5.319  12.364 -1.8147  1.1727 -0.2428
34721SOL    HW214478  12.933   5.186  12.295 -0.0415  0.1423  1.0640
34722SOL     OW14479   4.870  11.786   1.151  0.3212 -0.0852  0.0413
34722SOL    HW114480   4.955  11.746   1.170 -0.0866 -0.4739  1.0900
34722SOL    HW214481   4.892  11.872   1.114  1.1663 -0.2505  0.1388
34723SOL     OW14482   6.879   6.543   2.809 -0.0583  0.4211  0.0772
34723SOL    HW114483   6.832   6.612   2.855  1.1467  0.6758  0.9585
34723SOL    HW214484   6.912   6.585   2.729  0.0715  0.6814  0.2664
34724SOL     OW14485   1.134   1.180  11.151 -0.1277 -0.2961 -0.4127
34724SOL    HW114486   1.199   1.241  11.186 -1.0786  1.1073 -0.9998
34724SOL    HW214487   1.186   1.113  11.107  0.9618 -0.2570  0.7468
34725SOL     OW14488  12.662  12.861  12.958  0.5680  0.0578  0.1045
34725SOL    HW114489  12.612  12.923  13.011  0.3733 -0.0947  0.0989
34725SOL    HW214490  12.619  12.777  12.973 -0.5725  0.2644 -1.6099
34726SOL     OW14491   6.718   0.048   2.762 -0.1952  0.2042  0.0334
34726SOL    HW114492   6.623   0.049   2.746  0.0584  0.9722 -1.6464
34726SOL    HW214493   6.737   0.135   2.798 -0.1046  0.1008  0.2358
34727SOL     OW14494   4.785   4.522   4.238 -0.0956 -0.2552 -0.2613
34727SOL    HW114495   4.874   4.497   4.262 -0.0563 -0.3517 -0.5123
34727SOL    HW214496   4.756   4.455   4.177 -0.1205  0.1086 -0.6578
34728SOL     OW14497   0.887   3.276  12.693  1.1174 -0.4287  0.3723
34728SOL    HW114498   0.842   3.214  12.750  1.5135 -0.5067  0.6042
34728SOL    HW214499   0.952   3.318  12.750  1.9981 -1.0145 -0.1770
34729SOL     OW14500  11.804   1.976  12.811  0.1023  0.1908 -0.4686
34729SOL    HW114501  11.786   1.890  12.773 -1.0672  0.5909 -0.8908
34729SOL    HW214502  11.720   2.022  12.805  0.6792  1.3186 -0.1474
34730SOL     OW14503   5.098   1.032   9.770  0.2094 -0.4626  0.5431
34730SOL    HW114504   5.114   0.970   9.700 -0.3176  0.3018 -0.2781
34730SOL    HW214505   5.178   1.030   9.822  0.6085 -1.0437 -0.0773
34731SOL     OW14506   7.208  11.227  12.658 -0.3136 -0.2696 -0.8103
34731SOL    HW114507   7.138  11.173  12.695 -0.6449  0.0031 -1.0431
34731SOL    HW214508   7.201  11.215  12.564  0.6822 -1.1481 -0.7920
34732SOL     OW14509  10.786   9.855   4.312  0.3054  0.3551  0.0212
34732SOL    HW114510  10.872   9.893   4.325  0.6419  0.8683 -2.9771
34732SOL    HW214511  10.730   9.930   4.290 -0.4997 -0.1813  0.2025
34733SOL     OW14512   2.974   3.602   9.434 -0.1250 -0.4991  0.1026
34733SOL    HW114513   3.054   3.551   9.438  1.0728  1.3208  0.9224
34733SOL    HW214514   3.003   3.690   9.407 -1.8945  0.1097  0.0443
34734SOL     OW14515   1.036  12.351   8.885 -0.0163  0.0978  0.2633
34734SOL    HW114516   1.126  12.319   8.888 -0.7459 -2.0371  1.4316
34734SOL    HW214517   1.044  12.446   8.896  2.0489 -0.1094  0.9785
34735SOL     OW14518  11.255  10.637  11.372 -0.2306  0.2512 -0.2213
34735SOL    HW114519  11.177  10.672  11.330  0.5601  0.2309 -1.7994
34735SOL    HW214520  11.327  10.686  11.333  0.6273 -0.4975  0.3720
34736SOL     OW14521  10.073  10.076   4.515  0.2235  0.4719 -0.1997
34736SOL    HW114522  10.160  10.099   4.482  0.3650 -0.2800 -0.3475
34736SOL    HW214523  10.090  10.026   4.595  0.1172 -3.3914 -2.3691
34737SOL     OW14524   0.822   8.241   0.369 -0.4988  0.5928 -0.6172
34737SOL    HW114525   0.907   8.284   0.380 -0.1104  0.1360 -1.6460
34737SOL    HW214526   0.758   8.312   0.375  0.0805  1.2214 -1.5311
34738SOL     OW14527   9.466   6.461   0.911 -0.3074 -0.4860  0.3208
34738SOL    HW114528   9.481   6.413   0.830  0.9895  1.0403 -0.4155
34738SOL    HW214529   9.391   6.517   0.893 -0.0365 -0.1668  0.1727
34739SOL     OW14530   9.681   2.897   5.236  0.5223 -0.0889 -0.1795
34739SOL    HW114531   9.695   2.813   5.278  0.8174 -0.5514 -1.1905
34739SOL    HW214532   9.767   2.938   5.233  0.3971  0.2152  0.2155
34740SOL     OW14533  11.822   0.548   2.980  0.1830  0.6449 -0.2510
34740SOL    HW114534  11.744   0.502   3.011 -0.8305  1.4643 -1.4816
34740SOL    HW214535  11.874   0.481   2.938  0.1789  0.0783  0.6184
34741SOL     OW14536  12.834   6.555  12.704  0.6468  0.0555 -0.0029
34741SOL    HW114537  12.883   6.475  12.685  2.9129  0.7979  2.2267
34741SOL    HW214538  12.743   6.525  12.714  0.8553 -1.6767 -2.3713
34742SOL     OW14539   3.443   8.934   5.286  0.1256 -0.7892 -0.4753
34742SOL    HW114540   3.495   9.008   5.317 -0.9361  0.1976 -0.9371
34742SOL    HW214541   3.475   8.859   5.336 -0.8980  0.5330  2.4364
34743SOL     OW14542   6.418  11.576   5.483  0.1476 -0.2194  0.0688
34743SOL    HW114543   6.460  11.599   5.566  1.7072 -0.0270 -0.7208
34743SOL    HW214544   6.489  11.538   5.430 -0.5726  0.5123 -1.5053
34744SOL     OW14545  11.796  12.147  12.384 -0.2117 -0.8701 -0.1483
34744SOL    HW114546  11.736  12.072  12.383  0.0584 -1.0845 -0.8349
34744SOL    HW214547  11.883  12.108  12.395 -0.1861 -0.5597  0.8697
34745SOL     OW14548   6.619   6.984   2.127  0.4517  0.9138  0.5299
34745SOL    HW114549   6.614   7.036   2.047  1.2908  0.1787 -0.0251
34745SOL    HW214550   6.628   6.894   2.097 -0.6833  0.4541  1.4671
34746SOL     OW14551  12.006   9.311   7.578  0.6160 -0.0232  0.1217
34746SOL    HW114552  11.922   9.345   7.611  1.9446  3.1756  0.6334
34746SOL    HW214553  12.050   9.275   7.655  1.4378  2.3819  0.8754
34747SOL     OW14554   0.085   3.139   5.557 -0.3690  0.4171 -0.1636
34747SOL    HW114555   0.119   3.149   5.467  1.3621 -0.2626  0.3776
34747SOL    HW214556   0.053   3.227   5.579  2.0314  1.4455 -0.3762
34748SOL     OW14557   0.779   2.085   3.598 -0.1031 -0.0700  1.0001
34748SOL    HW114558   0.768   2.175   3.631 -0.1170 -0.2509  1.4931
34748SOL    HW214559   0.764   2.093   3.503  1.9116  0.8242  0.6875
34749SOL     OW14560   8.104   5.775   4.494 -0.0931 -0.0274  0.1681
34749SOL    HW114561   8.037   5.777   4.426  0.9989  1.6916 -0.9601
34749SOL    HW214562   8.055   5.780   4.576 -1.3802  0.6254 -0.5937
34750SOL     OW14563  11.332   1.385   5.010 -0.0317  0.3497  0.0111
34750SOL    HW114564  11.369   1.387   4.922  0.4493 -1.1678  0.1613
34750SOL    HW214565  11.239   1.405   4.998  0.0021  0.0120 -0.8570
34751SOL     OW14566  11.451   0.245  11.501  0.3157  0.1793  0.2955
34751SOL    HW114567  11.362   0.219  11.524 -0.0004 -0.7340 -1.7245
34751SOL    HW214568  11.443   0.336  11.472  0.1212  0.2398  0.5359
34752SOL     OW14569   2.672   4.331   2.971 -0.4544  0.0936  0.1837
34752SOL    HW114570   2.604   4.267   2.952 -0.4999  0.5433 -1.2191
34752SOL    HW214571   2.654   4.360   3.061 -0.9518 -1.1971  0.5106
34753SOL     OW14572   0.779  11.528   3.227  0.4096 -0.1226  0.3209
34753SOL    HW114573   0.732  11.571   3.156  2.5404 -0.0146 -1.1289
34753SOL    HW214574   0.787  11.595   3.295 -0.6125  0.1599  0.1723
34754SOL     OW14575   3.313   5.714  11.775  0.0885  0.5384 -0.1223
34754SOL    HW114576   3.402   5.710  11.739  0.9351  0.5095  1.8134
34754SOL    HW214577   3.307   5.637  11.832 -0.4423  1.5708  1.2916
34755SOL     OW14578   2.646   1.077   0.173  0.3983  0.3105  0.0597
34755SOL    HW114579   2.701   1.056   0.098 -0.2390 -0.1280 -0.2977
34755SOL    HW214580   2.689   1.034   0.247  0.9337  0.6008 -0.0749
34756SOL     OW14581   6.844   0.382   7.109  0.2921 -0.2520 -0.0859
34756SOL    HW114582   6.887   0.318   7.052  0.2486 -1.8562  1.5853
34756SOL    HW214583   6.898   0.384   7.188 -0.8121  0.2936  0.6780
34757SOL     OW14584   1.285   6.590  11.846 -0.4768 -0.4154 -0.5079
34757SOL    HW114585   1.286   6.686  11.840 -2.4334 -0.3359 -0.2358
34757SOL    HW214586   1.329   6.571  11.929 -0.0778  0.2371 -0.5601
34758SOL     OW14587   5.945   3.807   1.767  0.1225  0.2593 -0.0242
34758SOL    HW114588   5.989   3.882   1.729  0.2323 -0.7176 -1.9749
34758SOL    HW214589   5.869   3.793   1.711  0.7548 -1.7717 -0.4543
34759SOL     OW14590   6.241   7.250   8.451  0.0294  0.2816 -0.0311
34759SOL    HW114591   6.308   7.298   8.499 -0.6885  0.1124  1.1908
34759SOL    HW214592   6.190   7.206   8.519 -2.0439  1.3232 -0.8017
34760SOL     OW14593  10.380  11.429  10.579 -0.2743 -0.0693  0.0866
34760SOL    HW114594  10.319  11.391  10.641 -0.6333 -0.8808 -0.7408
34760SOL    HW214595  10.326  11.487  10.525 -0.0224  0.3875  0.3160
34761SOL     OW14596   2.953   9.531  12.594  0.9631 -0.2150  0.2108
34761SOL    HW114597   2.895   9.542  12.669 -0.6877 -1.2910 -0.8456
34761SOL    HW214598   2.954   9.437  12.577  0.7051  0.0638 -1.5604
34762SOL     OW14599   8.353   1.435   5.890  0.2442  0.2453  0.1538
34762SOL    HW114600   8.270   1.460   5.931 -0.8856 -1.0204 -1.2681
34762SOL    HW214601   8.412   1.419   5.963 -1.0274  0.2699  1.2177
34763SOL     OW14602  12.560   8.287   3.710 -0.1638  0.6164 -0.2684
34763SOL    HW114603  12.540   8.253   3.622 -0.9595  0.0970  0.1075
34763SOL    HW214604  12.651   8.314   3.704 -0.1144  0.2987 -1.1743
34764SOL     OW14605   7.605   3.842   8.278 -0.2790 -0.1381 -0.8855
34764SOL    HW114606   7.690   3.828   8.321  0.3025  0.5923 -1.7536
34764SOL    HW214607   7.569   3.920   8.321 -2.3130 -2.4999  2.1236
34765SOL     OW14608   7.086   7.273   5.501  0.3051  0.6401  0.0181
34765SOL    HW114609   7.151   7.316   5.445 -0.9269  1.3986 -0.8824
34765SOL    HW214610   7.113   7.295   5.590  2.0229 -0.1870 -0.2614
34766SOL     OW14611   1.229   4.103   7.508 -0.3807 -0.4505  0.3641
34766SOL    HW114612   1.140   4.106   7.543 -0.8679 -1.5234 -0.7052
34766SOL    HW214613   1.221   4.132   7.417  0.4641  0.0011  0.4175
34767SOL     OW14614  11.260   4.091   6.772  0.2952 -0.3568 -0.0948
34767SOL    HW114615  11.320   4.134   6.710  0.6233  0.2855  0.6491
34767SOL    HW214616  11.284   4.127   6.857 -0.6007 -0.7228  0.3233
34768SOL     OW14617   0.018   6.425  12.932 -0.0077 -0.3262 -0.2828
34768SOL    HW114618  -0.050   6.358  12.926  0.5347 -0.7813 -3.1234
34768SOL    HW214619   0.051   6.432  12.842  1.2297  2.4422  0.2944
34769SOL     OW14620   3.307  10.647  11.385 -0.5419  0.1018  0.1702
34769SOL    HW114621   3.245  10.718  11.369  0.2102  0.9835  1.0167
34769SOL    HW214622   3.295  10.625  11.478  0.6730  0.5638  0.4578
34770SOL     OW14623   9.895   1.389   7.074  0.0149  0.0181 -0.5117
34770SOL    HW114624   9.907   1.347   7.159 -0.4990  1.6233  0.4122
34770SOL    HW214625   9.884   1.317   7.012 -1.1224 -1.1861  1.0202
34771SOL     OW14626   4.047   2.740   8.031 -0.0373 -0.6806 -0.0939
34771SOL    HW114627   4.049   2.822   7.981 -2.7331 -0.5739 -0.1587
34771SOL    HW214628   4.139   2.720   8.048  0.7354  1.8570 -0.8812
34772SOL     OW14629   3.171   2.994  11.588 -0.2321  0.1692 -0.2649
34772SOL    HW114630   3.213   2.926  11.642 -0.6731  0.2079  0.1317
34772SOL    HW214631   3.170   2.956  11.500 -0.1542 -0.1978 -0.1129
34773SOL     OW14632   5.864  10.694   7.653  0.1206 -0.3870  0.8817
34773SOL    HW114633   5.875  10.702   7.558  3.5614  1.5891  1.2940
34773SOL    HW214634   5.835  10.781   7.681 -2.3506 -1.3510  1.6112
34774SOL     OW14635  11.604   6.343  10.244  0.5054  0.5490  0.3859
34774SOL    HW114636  11.536   6.293  10.291  0.4250  0.1487 -0.1498
34774SOL    HW214637  11.633   6.285  10.174  2.0628  0.3565  1.1534
34775SOL     OW14638   1.113   7.271   1.264  0.0930 -0.1218  0.6318
34775SOL    HW114639   1.132   7.210   1.336 -0.8122 -2.5818 -1.0679
34775SOL    HW214640   1.198   7.286   1.223  0.0119 -3.2765 -1.0630
34776SOL     OW14641   5.396   5.501   7.180  0.4607  0.2520  0.2972
34776SOL    HW114642   5.367   5.462   7.097 -0.4461  3.5708 -1.0880
34776SOL    HW214643   5.491   5.486   7.181  0.6652  1.0707 -1.9443
34777SOL     OW14644   9.391   0.844   0.513  0.1146 -0.2013  0.2654
34777SOL    HW114645   9.355   0.756   0.526  1.7012 -0.7470  1.2957
34777SOL    HW214646   9.334   0.902   0.564 -1.5435 -0.4421 -1.2218
34778SOL     OW14647  12.897   2.235   2.313  0.6374 -0.1177  0.0959
34778SOL    HW114648  12.950   2.196   2.243  0.1339 -0.5454 -0.0574
34778SOL    HW214649  12.841   2.298   2.268  0.1052 -0.6054  0.0655
34779SOL     OW14650   5.149  12.672   1.241  0.1556 -0.4336 -0.1401
34779SOL    HW114651   5.133  12.578   1.243  1.1490 -0.6522 -1.4898
34779SOL    HW214652   5.199  12.687   1.161  0.2121  1.2200  0.1596
34780SOL     OW14653  11.137  10.110   4.571 -0.2523  0.2327 -0.0404
34780SOL    HW114654  11.094  10.145   4.649 -3.6478  0.5233 -1.8550
34780SOL    HW214655  11.170  10.188   4.525 -0.7105  0.3188 -0.2254
34781SOL     OW14656  10.583   0.643   1.291 -0.1359 -0.2989  0.0388
34781SOL    HW114657  10.575   0.559   1.336 -0.2122  0.6774  1.9807
34781SOL    HW214658  10.670   0.640   1.250 -0.4771 -1.6174 -0.6400
34782SOL     OW14659  11.447   3.993   1.042 -0.1064 -0.2682 -0.0421
34782SOL    HW114660  11.541   3.999   1.025  0.0264  2.1457  1.1457
34782SOL    HW214661  11.407   4.055   0.981 -0.7983 -0.2449  0.4229
34783SOL     OW14662   2.067  10.546  12.303  0.1919  0.2453  0.0927
34783SOL    HW114663   2.152  10.503  12.317 -0.5781 -1.3339  0.1047
34783SOL    HW214664   2.037  10.513  12.218 -1.4713 -1.1147  1.1384
34784SOL     OW14665   7.810   1.628   3.642  0.8518  0.0404 -0.4930
34784SOL    HW114666   7.901   1.612   3.668  1.5565  1.2646 -2.0733
34784SOL    HW214667   7.780   1.544   3.605  0.6126 -0.9907  1.8167
34785SOL     OW14668   9.757   4.292   2.643  0.5936  0.5598 -0.0932
34785SOL    HW114669   9.825   4.226   2.655 -1.6497 -1.8223  0.3685
34785SOL    HW214670   9.678   4.242   2.626 -0.9702  3.2265 -1.2819
34786SOL     OW14671   5.846   9.589  11.566 -0.1147 -0.0136  0.7505
34786SOL    HW114672   5.839   9.591  11.662  0.8781  1.3077  0.8383
34786SOL    HW214673   5.927   9.541  11.549 -0.1083  0.0532  0.5928
34787SOL     OW14674   7.698   1.484   5.659  0.5316  0.2780  0.0233
34787SOL    HW114675   7.653   1.412   5.703  0.1958 -0.5654 -1.6042
34787SOL    HW214676   7.630   1.551   5.646  0.1370 -0.2696 -0.8658
34788SOL     OW14677  12.449   1.521   5.030 -0.0516  0.2372  0.6537
34788SOL    HW114678  12.415   1.611   5.030 -1.0641 -0.1348  0.1169
34788SOL    HW214679  12.522   1.523   5.092 -0.1017  1.4177  0.6950
34789SOL     OW14680  11.570   6.905   4.888 -0.2019 -0.2379  0.1857
34789SOL    HW114681  11.493   6.848   4.885 -0.6236  0.3326 -0.1407
34789SOL    HW214682  11.541   6.986   4.844  0.8915 -0.3825 -0.8588
34790SOL     OW14683   2.078   1.780   7.510 -0.4388  0.0070 -0.0862
34790SOL    HW114684   2.064   1.703   7.455  1.0703  0.2229 -0.8294
34790SOL    HW214685   2.070   1.854   7.451 -0.4003  0.3457  0.3272
34791SOL     OW14686   1.865  11.996   6.108 -0.0034 -0.2680  1.2253
34791SOL    HW114687   1.812  12.075   6.097  2.5769  1.4951  0.3627
34791SOL    HW214688   1.876  11.962   6.019  0.5557 -0.4183  1.3479
34792SOL     OW14689   6.192   6.629   1.746  0.4586  0.3753  0.7434
34792SOL    HW114690   6.265   6.590   1.794  2.3524  3.0597  0.2466
34792SOL    HW214691   6.189   6.581   1.663  0.5100 -0.8845  1.4472
34793SOL     OW14692   4.172  11.983   4.666 -0.3940 -0.2013  0.3206
34793SOL    HW114693   4.134  12.062   4.627  2.1855  0.4011 -1.1442
34793SOL    HW214694   4.231  12.016   4.734 -1.0590 -1.0266  1.3248
34794SOL     OW14695   0.851   4.385  12.255 -0.1914 -0.2106 -0.7147
34794SOL    HW114696   0.888   4.357  12.172  1.7395 -2.3429  0.7752
34794SOL    HW214697   0.879   4.477  12.264 -1.1401  0.3251 -2.7289
34795SOL     OW14698  11.919   0.854   0.254  0.0350  0.4339  0.4470
34795SOL    HW114699  12.009   0.885   0.256  0.8262 -1.6789  0.2399
34795SOL    HW214700  11.893   0.860   0.162  0.1572  0.4979  0.4172
34796SOL     OW14701   3.727   1.581   5.092 -0.6678 -0.0990  0.0079
34796SOL    HW114702   3.756   1.497   5.056  2.5463  0.6383  0.5944
34796SOL    HW214703   3.678   1.557   5.171 -0.7799 -1.4350 -0.4358
34797SOL     OW14704  11.852   0.263   0.360 -0.4379  0.2435  0.4635
34797SOL    HW114705  11.910   0.317   0.305 -1.4681  0.5001 -0.4115
34797SOL    HW214706  11.909   0.195   0.395  0.8228  1.6571  1.2813
34798SOL     OW14707   3.342   7.825   3.817 -0.2517 -0.3813  0.3563
34798SOL    HW114708   3.282   7.792   3.885  0.6612 -1.4729  0.6515
34798SOL    HW214709   3.429   7.801   3.848  0.3141  0.6858 -0.3533
34799SOL     OW14710  10.176   8.076   6.211 -0.2897 -0.0897  0.5089
34799SOL    HW114711  10.204   8.088   6.302 -2.8460 -0.7436  1.4585
34799SOL    HW214712  10.159   7.982   6.204 -1.6066  0.1802 -0.1507
34800SOL     OW14713   4.232   9.984   2.330  0.4230 -0.0637 -0.0326
34800SOL    HW114714   4.266   9.946   2.411  1.2332 -0.6363 -0.6234
34800SOL    HW214715   4.305  10.035   2.296  0.7595 -1.3455 -1.3457
34801SOL     OW14716   4.477   5.667   6.799  0.0986 -0.5591  0.1358
34801SOL    HW114717   4.415   5.596   6.813 -1.3872  0.8288  0.9999
34801SOL    HW214718   4.493   5.703   6.887 -0.0574  0.8386 -0.3767
34802SOL     OW14719   3.209   7.617   9.202  0.3505  0.2328  0.3113
34802SOL    HW114720   3.212   7.653   9.113 -0.9249 -1.0108 -0.2650
34802SOL    HW214721   3.138   7.553   9.200 -1.5250  2.0543  2.9405
34803SOL     OW14722  10.570   8.296   2.580 -0.3674  0.0691 -0.4287
34803SOL    HW114723  10.656   8.311   2.619 -0.7427  0.5118  0.2582
34803SOL    HW214724  10.563   8.201   2.572  1.1843  0.0749 -2.8355
34804SOL     OW14725   1.771   4.227   0.527 -0.3353 -0.4419 -0.0318
34804SOL    HW114726   1.752   4.156   0.465 -3.2587 -0.8712  1.1932
34804SOL    HW214727   1.864   4.217   0.546  0.2187 -1.5653 -2.7320
34805SOL     OW14728   9.202   9.471   2.590 -0.1966  0.0043 -0.1491
34805SOL    HW114729   9.204   9.566   2.583  1.8175  0.0881  0.6309
34805SOL    HW214730   9.147   9.442   2.517 -2.7217  1.8145  0.9100
34806SOL     OW14731   3.329   6.602   5.962 -0.4415  0.3947  0.5970
34806SOL    HW114732   3.401   6.604   6.025  1.5673  1.8234 -1.5898
34806SOL    HW214733   3.318   6.509   5.942  1.5394  0.1821  0.2608
34807SOL     OW14734   7.005   4.541   3.456  0.5578 -0.5373 -0.4230
34807SOL    HW114735   6.957   4.523   3.537  1.6243  0.1111  0.3846
34807SOL    HW214736   7.021   4.454   3.418  0.0048 -0.8479  0.0392
34808SOL     OW14737   8.509  11.280   4.536 -0.4246 -0.2714  0.0918
34808SOL    HW114738   8.481  11.332   4.460  0.7529  1.0005  0.5073
34808SOL    HW214739   8.552  11.343   4.594  1.8561 -1.8513  0.2106
34809SOL     OW14740  12.753   1.826   7.657 -0.0982  0.0269 -0.1181
34809SOL    HW114741  12.660   1.838   7.641 -0.3341 -1.2995  0.1861
34809SOL    HW214742  12.779   1.903   7.709 -1.3993 -0.4571  1.3006
34810SOL     OW14743   8.385  10.004   5.660  0.4518  0.2172 -0.4727
34810SOL    HW114744   8.391  10.013   5.565 -1.8738  0.0775 -0.6680
34810SOL    HW214745   8.431   9.922   5.678  3.2047  1.4855 -1.0903
34811SOL     OW14746  11.380   7.206  11.725 -0.0625  0.4901  0.0421
34811SOL    HW114747  11.349   7.156  11.649  1.4360 -0.7546  0.1813
34811SOL    HW214748  11.450   7.261  11.690  0.5368  0.0165  0.4642
34812SOL     OW14749   5.608   3.163   3.521  0.0220 -0.0179  0.7201
34812SOL    HW114750   5.621   3.091   3.583 -0.4000  0.1411  1.0018
34812SOL    HW214751   5.696   3.185   3.491  0.3450  0.5857  2.0530
34813SOL     OW14752  10.678   9.440   5.623  0.2094  0.0920  0.2028
34813SOL    HW114753  10.647   9.441   5.714 -0.3219  0.2933  0.0255
34813SOL    HW214754  10.608   9.484   5.574 -0.7220 -2.2425 -0.6918
34814SOL     OW14755   2.498   9.316   5.287 -0.4371 -0.3533 -0.0132
34814SOL    HW114756   2.449   9.246   5.244 -1.4093  0.3905 -0.1332
34814SOL    HW214757   2.468   9.396   5.245  1.5870  0.0834 -0.7719
34815SOL     OW14758  10.615   7.640   1.161 -0.5210 -0.1021  0.2189
34815SOL    HW114759  10.612   7.736   1.154 -0.0293 -0.1236 -0.3985
34815SOL    HW214760  10.571   7.621   1.244  0.0295  0.7057  0.7162
34816SOL     OW14761   0.004  12.512   8.581 -0.4272  0.1562 -0.5062
34816SOL    HW114762   0.061  12.494   8.506 -0.2707 -2.2908  0.1168
34816SOL    HW214763   0.055  12.572   8.635  0.2365  0.4639 -1.4358
34817SOL     OW14764   2.790   0.853   1.707 -0.6218 -0.6108  0.0686
34817SOL    HW114765   2.839   0.804   1.773  0.0434 -0.7086 -0.4860
34817SOL    HW214766   2.721   0.792   1.679 -0.3868 -0.8759  0.0633
34818SOL     OW14767   2.076   8.436   9.014 -0.4357  0.4448  0.2632
34818SOL    HW114768   2.040   8.370   8.955  0.8425  0.0723 -0.1229
34818SOL    HW214769   2.078   8.393   9.099  0.8198 -0.2102 -0.0724
34819SOL     OW14770   4.974  10.739   0.347  0.2292  0.1423 -0.7275
34819SOL    HW114771   4.907  10.807   0.347  0.5308  0.4456 -1.2938
34819SOL    HW214772   4.947  10.679   0.276  0.6237  0.3393 -1.0477
34820SOL     OW14773  11.510   0.904   8.172 -0.4227  0.1222  0.3373
34820SOL    HW114774  11.445   0.917   8.241  0.0543  1.7519  0.5225
34820SOL    HW214775  11.594   0.920   8.214 -0.0597  0.2200 -0.4033
34821SOL     OW14776   4.378  12.823   9.518 -0.2078 -0.4291 -0.5898
34821SOL    HW114777   4.349  12.813   9.609 -2.4793 -3.2227 -1.4762
34821SOL    HW214778   4.329  12.899   9.485 -0.8959 -0.6182 -0.0236
34822SOL     OW14779   9.544   9.562   3.615  0.3437 -0.0935  0.6914
34822SOL    HW114780   9.516   9.486   3.564 -0.5557  1.0439 -0.6006
34822SOL    HW214781   9.462   9.605   3.641  0.8385  0.6207  1.1054
34823SOL     OW14782   9.761   0.837   9.378  0.3912 -0.5492  0.4620
34823SOL    HW114783   9.713   0.814   9.458  0.1565 -0.0592  0.4678
34823SOL    HW214784   9.702   0.815   9.307  0.4969 -0.7388  0.4313
34824SOL     OW14785   6.609   6.814   7.125  0.1237  0.1173  0.4713
34824SOL    HW114786   6.629   6.814   7.031  0.1884  0.6335  0.4833
34824SOL    HW214787   6.674   6.872   7.164  0.0336 -0.0151  0.8246
34825SOL     OW14788   4.115   5.356   5.565  0.1980  0.2929 -0.3983
34825SOL    HW114789   4.107   5.420   5.636  2.3467  0.1842  0.0014
34825SOL    HW214790   4.207   5.360   5.540 -0.4562  0.2081 -3.1021
34826SOL     OW14791   2.425   1.507   5.410 -0.5260  0.6123  0.2858
34826SOL    HW114792   2.346   1.537   5.366  0.2441  0.8611 -0.9582
34826SOL    HW214793   2.484   1.582   5.408 -0.6584  0.8161  2.2546
34827SOL     OW14794   8.646   2.582   6.465 -0.0501 -0.2710  0.4090
34827SOL    HW114795   8.569   2.577   6.408 -0.1023 -0.8380  0.5238
34827SOL    HW214796   8.719   2.592   6.404 -0.1148 -0.7703  0.2436
34828SOL     OW14797  10.631   4.800   1.429  0.2153  0.7143  0.2883
34828SOL    HW114798  10.692   4.729   1.406 -0.4251  0.0826  0.5056
34828SOL    HW214799  10.678   4.851   1.496  0.5717  0.3265  0.3387
34829SOL     OW14800  12.408   7.326  10.473 -0.1786 -0.2288  0.1795
34829SOL    HW114801  12.503   7.342  10.468 -0.0110 -1.4060 -0.9318
34829SOL    HW214802  12.374   7.359  10.390 -0.3753 -1.9080 -0.4461
34830SOL     OW14803   9.205   6.978   8.459  0.0993 -0.1084  0.8852
34830SOL    HW114804   9.182   7.038   8.389  1.5442 -1.5279 -0.9311
34830SOL    HW214805   9.149   7.003   8.532 -2.4559  0.6158 -1.1587
34831SOL     OW14806   0.690   7.572   0.183  0.2044  0.2840 -0.3676
34831SOL    HW114807   0.669   7.660   0.153 -0.7381  0.0865 -0.3220
34831SOL    HW214808   0.640   7.514   0.126  0.4930 -0.2073 -0.1351
34832SOL     OW14809   7.607  10.787   4.798  0.1268 -0.6061  0.1866
34832SOL    HW114810   7.550  10.711   4.787 -1.1092 -0.2730  3.2484
34832SOL    HW214811   7.552  10.862   4.776  0.5164 -0.4372 -0.2387
34833SOL     OW14812   5.526   4.212   2.242  0.9122 -0.1157 -0.0094
34833SOL    HW114813   5.474   4.160   2.304 -1.7409  2.0267 -0.2554
34833SOL    HW214814   5.521   4.163   2.160  2.1245 -1.5632  0.7105
34834SOL     OW14815  11.180  11.558   3.266  0.1237  0.0152  0.1157
34834SOL    HW114816  11.194  11.634   3.210  2.0105  0.2694  0.8621
34834SOL    HW214817  11.195  11.482   3.210  0.5926  0.2351 -0.0542
34835SOL     OW14818  12.411  10.317   6.682  0.0893  0.0258 -0.1962
34835SOL    HW114819  12.478  10.319   6.751 -0.4220  0.4301  0.2988
34835SOL    HW214820  12.446  10.257   6.616  1.5620  1.2187 -0.5745
34836SOL     OW14821   1.949   2.672   3.660 -0.1064  0.5656  0.0337
34836SOL    HW114822   1.924   2.580   3.650 -0.4609  0.7141 -0.5270
34836SOL    HW214823   1.875   2.711   3.706  0.2697  0.4676  0.7255
34837SOL     OW14824   5.355  12.412  11.856 -0.1370 -0.1598 -0.7344
34837SOL    HW114825   5.354  12.508  11.854  2.5699 -0.0418 -0.2264
34837SOL    HW214826   5.376  12.387  11.766 -0.3867 -0.2641 -0.7640
34838SOL     OW14827   8.870   9.499   9.373  0.6408 -0.0831 -0.3806
34838SOL    HW114828   8.957   9.470   9.346  0.5770 -0.3141 -0.3421
34838SOL    HW214829   8.883   9.587   9.408  0.6926  0.2946 -1.3288
34839SOL     OW14830   1.017   6.995   7.323  0.0487 -0.2991 -0.3508
34839SOL    HW114831   0.972   6.977   7.241 -0.1866 -0.7369 -0.1302
34839SOL    HW214832   0.955   7.048   7.374 -1.8262 -3.7971  1.4101
34840SOL     OW14833   0.699   8.955   3.323 -0.1599 -0.2115  0.7137
34840SOL    HW114834   0.696   8.904   3.242  0.6087  0.1181  0.4681
34840SOL    HW214835   0.643   9.031   3.305  2.2920  1.4121 -0.6354
34841SOL     OW14836   1.957   8.638   2.813  0.8836  0.6614 -0.4405
34841SOL    HW114837   1.940   8.696   2.738 -1.9382 -1.1595 -1.3900
34841SOL    HW214838   2.016   8.571   2.779 -0.4643 -0.2136 -1.1681
34842SOL     OW14839  12.679   9.437   4.101  0.2324  0.0729  0.5379
34842SOL    HW114840  12.706   9.384   4.177  3.1069  0.3790 -0.1783
34842SOL    HW214841  12.666   9.525   4.137  0.9625  0.0833  0.7830
34843SOL     OW14842   6.344  11.247   8.227  0.0568  0.5984 -0.4659
34843SOL    HW114843   6.325  11.153   8.229  1.0873  0.3303 -1.6828
34843SOL    HW214844   6.260  11.288   8.209 -0.2157 -0.1855 -1.0457
34844SOL     OW14845  12.834  10.211  11.692  0.0928 -0.3259  0.5725
34844SOL    HW114846  12.803  10.284  11.640 -0.2501 -0.8374  0.0511
34844SOL    HW214847  12.836  10.137  11.632  1.8702 -0.4319  0.6978
34845SOL     OW14848   1.390   8.276   3.108 -0.4935 -0.2556 -0.2457
34845SOL    HW114849   1.440   8.242   3.033  0.8639  0.4836  0.2864
34845SOL    HW214850   1.352   8.198   3.149  0.5219 -0.8911 -0.4703
34846SOL     OW14851   6.591  11.596   0.731  0.1197 -0.0973  0.0643
34846SOL    HW114852   6.557  11.519   0.777 -0.2449 -0.2560 -0.4584
34846SOL    HW214853   6.546  11.594   0.646  1.2769 -0.1797 -0.5547
34847SOL     OW14854   9.055   6.899   2.828  0.3580 -0.3439  0.9315
34847SOL    HW114855   9.132   6.955   2.833  0.0276  0.0783  1.3869
34847SOL    HW214856   9.062   6.855   2.743 -0.0287  1.3312 -0.0116
34848SOL     OW14857   4.460   5.693   8.999  0.6333  0.5534 -0.0282
34848SOL    HW114858   4.371   5.712   9.027  0.0680 -1.9464  0.1074
34848SOL    HW214859   4.495   5.778   8.970 -2.5452  1.2911 -2.2863
34849SOL     OW14860   3.315  12.877   7.255  0.7152 -0.1539 -0.4664
34849SOL    HW114861   3.409  12.874   7.237  0.9253  1.7317  0.1266
34849SOL    HW214862   3.293  12.970   7.253 -0.5022 -0.2754  2.5424
34850SOL     OW14863   3.367   8.036   0.065 -0.5142 -0.5360 -0.4710
34850SOL    HW114864   3.282   8.014   0.105  0.5676  0.3289  2.6264
34850SOL    HW214865   3.429   8.033   0.138  2.0988 -0.7384 -2.5431
34851SOL     OW14866   2.755   5.202   4.335  0.0161 -0.1182 -0.4009
34851SOL    HW114867   2.669   5.186   4.373 -0.5997  0.7951 -1.3575
34851SOL    HW214868   2.814   5.204   4.410 -1.0777  1.1175  0.4718
34852SOL     OW14869   0.301   3.375  11.201 -0.1885  0.4852  0.1261
34852SOL    HW114870   0.390   3.408  11.187  0.6489 -1.3521  0.8524
34852SOL    HW214871   0.276   3.336  11.117 -0.4800  1.3536 -0.1984
34853SOL     OW14872   2.901  11.231   2.942  0.2477  0.0391 -0.1705
34853SOL    HW114873   2.858  11.297   2.887  0.0727 -0.1051 -0.2071
34853SOL    HW214874   2.870  11.249   3.031  1.6627  1.2046  0.1196
34854SOL     OW14875  12.253  12.180   1.162  0.8114  0.0537 -0.7490
34854SOL    HW114876  12.274  12.189   1.069 -0.0596  0.9419 -0.8732
34854SOL    HW214877  12.334  12.148   1.202  0.8111 -1.7252 -2.0130
34855SOL     OW14878   3.367   1.655   2.299  0.3322  0.3875 -0.3188
34855SOL    HW114879   3.402   1.566   2.305 -0.5331  0.1115  1.4819
34855SOL    HW214880   3.354   1.682   2.390  0.0417  2.1476 -0.8418
34856SOL     OW14881   7.823   9.463   3.013  0.1401 -0.3691  0.0276
34856SOL    HW114882   7.902   9.517   3.002  0.6451 -1.2345 -0.7459
34856SOL    HW214883   7.781   9.466   2.927 -0.2764 -0.5314  0.2231
34857SOL     OW14884   7.471  12.125   8.327 -0.1107 -0.2772 -0.3829
34857SOL    HW114885   7.411  12.111   8.401  0.3420 -1.2957 -0.1828
34857SOL    HW214886   7.431  12.077   8.255 -0.8217  1.1510 -0.9718
34858SOL     OW14887   2.552   9.553   7.179  0.1203  0.7092 -0.2687
34858SOL    HW114888   2.479   9.574   7.120 -1.6249 -2.8408  0.3802
34858SOL    HW214889   2.625   9.533   7.121  0.2763  2.9323 -0.9558
34859SOL     OW14890   5.599   9.881   7.589 -0.4073 -0.1391  0.2105
34859SOL    HW114891   5.595   9.922   7.675 -3.6353  0.6706 -0.1939
34859SOL    HW214892   5.597   9.787   7.607  0.4043 -0.0144  1.0107
34860SOL     OW14893   3.195   3.687  10.696 -0.6146 -0.4481  0.3581
34860SOL    HW114894   3.146   3.618  10.651  0.0777 -0.4773 -0.3693
34860SOL    HW214895   3.169   3.768  10.651  2.7505 -0.7984 -2.6724
34861SOL     OW14896  12.833   3.203   1.590 -0.0815  0.3601 -0.5578
34861SOL    HW114897  12.864   3.292   1.571 -1.1475  0.4501 -1.9642
34861SOL    HW214898  12.740   3.204   1.568 -0.5888 -0.5720  1.3075
34862SOL     OW14899   0.087   3.770   1.363 -0.2521  0.1131 -0.4649
34862SOL    HW114900  -0.002   3.739   1.383  0.0640 -0.2008  0.5188
34862SOL    HW214901   0.144   3.714   1.416  0.3582  2.2951  1.3576
34863SOL     OW14902   4.700  10.180   1.091  0.1706 -0.5398  0.2650
34863SOL    HW114903   4.652  10.099   1.075 -1.2034  0.4320 -0.7196
34863SOL    HW214904   4.735  10.205   1.006  2.1490 -1.0144  0.8944
34864SOL     OW14905   0.763   0.605   0.946  0.1299  0.3555 -0.6743
34864SOL    HW114906   0.673   0.632   0.964 -0.2898  0.0138 -2.1444
34864SOL    HW214907   0.791   0.560   1.026 -0.7407  1.0960  0.0652
34865SOL     OW14908   7.344   6.729   9.030  0.0958 -0.0641  0.0907
34865SOL    HW114909   7.329   6.636   9.015  0.9275 -0.0319 -1.1044
34865SOL    HW214910   7.393   6.758   8.953  0.0968  1.3032  0.5761
34866SOL     OW14911   1.189   2.784   9.713 -0.1572  0.2803 -0.0021
34866SOL    HW114912   1.183   2.872   9.677 -0.3956  0.1174 -0.3683
34866SOL    HW214913   1.261   2.743   9.664 -0.4682  0.0652 -0.2829
34867SOL     OW14914   3.636   9.517   0.353  0.0133 -0.1777 -0.1154
34867SOL    HW114915   3.623   9.485   0.442 -0.7530 -1.4852 -0.6590
34867SOL    HW214916   3.548   9.538   0.322  0.3348  0.7969 -0.3809
34868SOL     OW14917  10.176   1.038   3.297  0.2298 -0.4258 -0.4661
34868SOL    HW114918  10.156   1.129   3.275  2.7197  0.0099 -1.3091
34868SOL    HW214919  10.259   1.043   3.345 -0.6575 -2.1160  1.3737
34869SOL     OW14920   6.435   0.518   4.827 -0.0956 -0.1387  0.3468
34869SOL    HW114921   6.500   0.513   4.897  0.6996 -0.0016 -0.3586
34869SOL    HW214922   6.475   0.471   4.754 -0.3084  0.8893 -0.4589
34870SOL     OW14923   7.113   5.211   6.826  0.6201  0.1696 -0.0718
34870SOL    HW114924   7.045   5.162   6.872 -0.1032  0.6266 -0.6425
34870SOL    HW214925   7.075   5.297   6.812 -0.0867 -0.5582 -3.4611
34871SOL     OW14926  11.459   3.885   8.300 -0.7530 -0.1141 -0.1901
34871SOL    HW114927  11.401   3.812   8.278 -0.2864 -0.6339  0.3075
34871SOL    HW214928  11.464   3.936   8.219 -2.1906  0.1382 -0.1450
34872SOL     OW14929   8.761   5.397   2.231  0.0081 -0.3344  0.2365
34872SOL    HW114930   8.785   5.490   2.225  3.4794 -1.1386 -0.3343
34872SOL    HW214931   8.739   5.385   2.323 -0.3683  1.0070  0.3533
34873SOL     OW14932   3.953   6.962   4.720  0.3129 -0.2278  0.1235
34873SOL    HW114933   3.968   7.054   4.741 -0.4004 -0.3848  1.4149
34873SOL    HW214934   4.017   6.914   4.773 -1.1463 -0.6017  1.6241
34874SOL     OW14935   3.342   1.407   6.699 -0.2925  0.1927 -0.0710
34874SOL    HW114936   3.258   1.411   6.744 -0.6981 -1.3716 -0.6038
34874SOL    HW214937   3.384   1.328   6.733  1.2293  1.2228  0.5830
34875SOL     OW14938   8.903  12.255  12.380  0.4385 -0.0028  0.2551
34875SOL    HW114939   8.879  12.345  12.359  3.3161  0.4493 -1.7732
34875SOL    HW214940   8.999  12.256  12.385  0.5240 -2.7497  1.3979
34876SOL     OW14941   4.567   4.979   2.757  0.3623 -0.4113 -0.5016
34876SOL    HW114942   4.566   4.883   2.759  0.6421 -0.4084  0.6246
34876SOL    HW214943   4.652   5.002   2.795  0.4204  0.2765 -1.0435
34877SOL     OW14944  12.355   6.676   9.830  0.2166  0.4317  0.5498
34877SOL    HW114945  12.380   6.638   9.745 -0.6328  0.0270  0.4680
34877SOL    HW214946  12.422   6.644   9.891  0.8431  0.7395  0.0347
34878SOL     OW14947   2.085   1.006   8.787 -0.1629 -0.0758  0.0622
34878SOL    HW114948   2.061   0.951   8.861  0.2618 -1.1072 -0.5559
34878SOL    HW214949   2.146   1.071   8.825  0.9195 -1.2618  0.4248
34879SOL     OW14950   9.752   0.986   0.163  0.0731  0.2365  0.2985
34879SOL    HW114951   9.823   1.038   0.200 -0.3607  0.3557  0.9883
34879SOL    HW214952   9.676   1.007   0.218 -0.0340 -1.3917  0.8253
34880SOL     OW14953   4.672   9.170   9.788  0.3826  0.2168  0.6183
34880SOL    HW114954   4.758   9.195   9.755  0.1355 -0.0074 -0.2107
34880SOL    HW214955   4.612   9.194   9.718 -0.2527  0.4878  1.2417
34881SOL     OW14956   1.039  11.672   8.941  0.5930  0.4454  0.2315
34881SOL    HW114957   1.106  11.737   8.920 -0.4150  1.8891  1.2606
34881SOL    HW214958   0.961  11.704   8.896  0.1393 -0.1897  0.5625
34882SOL     OW14959   4.799  10.426   6.171 -0.0632 -0.0227  0.0799
34882SOL    HW114960   4.856  10.409   6.246  0.3680  1.3075  0.0778
34882SOL    HW214961   4.838  10.375   6.100  1.1328  0.8271  0.0919
34883SOL     OW14962   6.845   9.460   5.197  0.1944  0.7541  0.0589
34883SOL    HW114963   6.779   9.483   5.262 -0.5373 -0.2260 -0.3036
34883SOL    HW214964   6.820   9.372   5.168  1.1200  0.7461 -0.7735
34884SOL     OW14965  10.057   1.127   8.038  0.0766 -0.1149  0.4364
34884SOL    HW114966  10.103   1.169   7.966  1.0588 -0.9079  0.5915
34884SOL    HW214967  10.022   1.200   8.090 -1.2815  0.4726 -1.2035
34885SOL     OW14968   9.797  10.186   1.331 -0.0131 -0.1048 -0.0947
34885SOL    HW114969   9.843  10.141   1.401  0.4978  1.5456  0.6781
34885SOL    HW214970   9.705  10.167   1.346  0.1497 -0.3769  0.5950
34886SOL     OW14971   2.800  11.921   6.265 -0.4399  0.0659  0.5120
34886SOL    HW114972   2.809  12.013   6.241 -1.6601  0.0101 -0.2328
34886SOL    HW214973   2.889  11.892   6.282 -0.1938  2.1049  3.5957
34887SOL     OW14974  10.680   9.012  10.728 -0.0752  0.0420  0.2613
34887SOL    HW114975  10.722   9.086  10.684  1.9476 -1.4030 -0.3611
34887SOL    HW214976  10.640   8.961  10.657 -2.0962  0.8362  0.7483
34888SOL     OW14977   9.562   5.960   8.212  0.1967  0.0323 -0.3629
34888SOL    HW114978   9.616   5.924   8.282  0.0945  0.9263  0.1947
34888SOL    HW214979   9.509   6.028   8.254 -1.5174 -0.9304 -0.8526
34889SOL     OW14980   0.721   8.070   7.837 -0.1350 -1.2388 -0.1960
34889SOL    HW114981   0.799   8.019   7.857  1.4666  1.2905  0.4049
34889SOL    HW214982   0.724   8.144   7.896 -2.3562 -0.4011 -1.0145
34890SOL     OW14983  10.068  12.213  11.834 -0.1234  0.1151 -0.2360
34890SOL    HW114984   9.981  12.183  11.861 -0.3395  0.0480 -1.0110
34890SOL    HW214985  10.051  12.281  11.770  0.3890  0.8542  0.3958
34891SOL     OW14986   8.466   3.442   6.730  0.0049  0.7280  0.5543
34891SOL    HW114987   8.468   3.524   6.681  0.2819  0.1049 -0.5189
34891SOL    HW214988   8.379   3.440   6.770 -0.6848  0.7346 -0.8733
34892SOL     OW14989   1.039   3.040   2.951  0.0653 -0.0514 -0.3649
34892SOL    HW114990   1.084   2.957   2.939 -0.4265 -0.1988 -1.3249
34892SOL    HW214991   1.049   3.085   2.867  0.1537  0.7731  0.0798
34893SOL     OW14992   4.554   6.279   0.338  0.5164  0.0451 -0.3933
34893SOL    HW114993   4.482   6.216   0.349  0.2385  0.3847 -0.2772
34893SOL    HW214994   4.544   6.340   0.410 -0.2693  1.2453 -1.4749
34894SOL     OW14995  12.306  12.009   4.544 -0.0330 -0.4590 -0.0180
34894SOL    HW114996  12.217  12.014   4.580 -0.2749 -2.5030 -0.2360
34894SOL    HW214997  12.338  11.924   4.572  2.8502  1.1735  2.1805
34895SOL     OW14998  12.031   6.975   3.469  0.1793 -0.3194 -0.4152
34895SOL    HW114999  12.034   7.043   3.401 -0.2136 -2.6149 -2.8947
34895SOL    HW215000  11.945   6.984   3.508  1.2214  2.5457  1.6286
34896SOL     OW15001   5.468   7.304   8.829  0.4890 -0.3831 -1.0302
34896SOL    HW115002   5.553   7.301   8.873 -0.6255 -2.0450  1.2096
34896SOL    HW215003   5.465   7.224   8.775 -0.2198 -1.2080  0.1727
34897SOL     OW15004   3.444   9.668  11.712  0.3652  0.4068  0.3695
34897SOL    HW115005   3.385   9.601  11.748  0.0961 -1.0911 -2.5527
34897SOL    HW215006   3.396   9.750  11.722 -1.0072 -0.3921  0.5968
34898SOL     OW15007   2.321   9.885   4.279 -0.0044 -0.3044 -0.6520
34898SOL    HW115008   2.266   9.963   4.291 -1.4813 -1.3603 -0.3464
34898SOL    HW215009   2.364   9.872   4.363  1.2728  0.8779 -1.0653
34899SOL     OW15010   7.095   2.321   1.917  0.0590 -0.2006  0.1851
34899SOL    HW115011   7.027   2.314   1.850  0.4641 -1.2924 -0.1297
34899SOL    HW215012   7.052   2.290   1.997 -0.6728  1.8649  0.6571
34900SOL     OW15013   5.894   6.890   4.426 -0.3315  0.1455 -0.1350
34900SOL    HW115014   5.804   6.922   4.417 -0.8637 -1.1399  0.3621
34900SOL    HW215015   5.884   6.799   4.454  1.1425  0.1521  0.4742
34901SOL     OW15016  10.408   0.047   0.270  0.4323 -0.7948 -0.1270
34901SOL    HW115017  10.407   0.142   0.261  1.7044 -0.8067 -0.5639
34901SOL    HW215018  10.471   0.030   0.339  1.8944 -1.3958 -1.5579
34902SOL     OW15019  11.850   9.128  12.747 -0.5144 -0.4372 -0.3904
34902SOL    HW115020  11.847   9.175  12.663  0.3779  1.2614  0.4621
34902SOL    HW215021  11.942   9.130  12.772 -0.2760 -3.5240 -0.7016
34903SOL     OW15022   5.704   4.310   7.596  0.3318 -0.1798  0.0233
34903SOL    HW115023   5.782   4.363   7.583  0.3780 -0.2228  0.1241
34903SOL    HW215024   5.632   4.373   7.592  0.3252 -0.2194 -0.6540
34904SOL     OW15025  11.765  11.270   7.308 -0.8202 -0.1451 -0.6382
34904SOL    HW115026  11.845  11.319   7.287 -0.6139 -0.2949 -0.2082
34904SOL    HW215027  11.707  11.336   7.347 -0.1939 -0.4124  0.8111
34905SOL     OW15028   0.189   3.519   8.722 -0.0446 -1.3389  0.0562
34905SOL    HW115029   0.220   3.567   8.799 -0.6056 -0.2751 -0.3726
34905SOL    HW215030   0.264   3.516   8.663 -0.4565  0.4793 -0.6138
34906SOL     OW15031   2.591   4.671  11.164 -0.1044  0.5570 -0.3639
34906SOL    HW115032   2.588   4.703  11.254 -2.9752 -2.9705  1.0565
34906SOL    HW215033   2.528   4.725  11.117  0.5533  1.6616 -0.0172
34907SOL     OW15034   5.033   5.825  10.009 -0.0937  0.0670  0.2517
34907SOL    HW115035   5.100   5.874  10.057 -1.7620  1.9969  0.7365
34907SOL    HW215036   4.998   5.762  10.072 -0.1643  0.4773  0.6194
34908SOL     OW15037   2.930  12.313   6.786  0.1846  0.7063 -0.1894
34908SOL    HW115038   2.863  12.248   6.761 -0.3160 -0.3620  3.3758
34908SOL    HW215039   3.013  12.271   6.764 -0.1761 -0.7332  0.9908
34909SOL     OW15040   2.767   2.591   9.270 -0.2218  0.2395  0.1965
34909SOL    HW115041   2.682   2.636   9.267 -0.4954 -0.1452  1.5626
34909SOL    HW215042   2.831   2.662   9.263 -0.6440  0.5942 -0.2113
34910SOL     OW15043  12.228   2.059   0.760 -0.1144  0.1677 -0.1423
34910SOL    HW115044  12.265   2.113   0.830  0.4366 -0.9308  0.4416
34910SOL    HW215045  12.138   2.091   0.751 -0.2644  0.1939  1.2258
34911SOL     OW15046   2.753   8.915   3.400 -0.3629 -0.0091 -0.2834
34911SOL    HW115047   2.719   8.999   3.430 -1.0790 -1.0785  2.1256
34911SOL    HW215048   2.675   8.863   3.380  0.0164 -0.7051  0.0088
34912SOL     OW15049   3.180   0.529   6.029 -0.1030 -0.2928  0.1019
34912SOL    HW115050   3.196   0.496   6.117  1.4381 -1.2477 -0.4749
34912SOL    HW215051   3.130   0.460   5.986  2.6141 -1.7998 -0.9249
34913SOL     OW15052   9.949  11.043  10.204  0.3459  0.0866 -0.0491
34913SOL    HW115053   9.909  10.972  10.153  0.6072  0.0792 -0.2452
34913SOL    HW215054   9.888  11.116  10.194  0.2994  0.0259 -0.2158
34914SOL     OW15055  11.207  11.357   4.825 -0.2383 -0.3420  0.4133
34914SOL    HW115056  11.146  11.427   4.800 -0.9525 -1.4909 -1.2729
34914SOL    HW215057  11.291  11.401   4.839  0.0919  0.6519 -3.4742
34915SOL     OW15058   3.990   0.994   0.888 -0.0929 -0.6765 -0.8374
34915SOL    HW115059   3.960   0.918   0.839 -0.8097 -0.2580 -1.0575
34915SOL    HW215060   4.004   0.962   0.977 -1.6571 -0.7767 -0.6140
34916SOL     OW15061   9.245   2.623  12.048 -0.0888 -0.0770  0.2146
34916SOL    HW115062   9.255   2.528  12.039  0.2014  0.0218 -0.5140
34916SOL    HW215063   9.321   2.660  12.003 -0.3136  0.5071  0.3089
34917SOL     OW15064   9.041   0.547   7.570  0.0907  0.2183 -0.2434
34917SOL    HW115065   9.044   0.508   7.482 -1.4815 -0.6131  0.0318
34917SOL    HW215066   8.976   0.616   7.564 -1.5214 -1.1280  0.6906
34918SOL     OW15067  11.982   5.721   4.062  0.7797  0.3680  0.2085
34918SOL    HW115068  11.955   5.812   4.059  0.7014  0.4303  1.7411
34918SOL    HW215069  12.064   5.718   4.013  0.6483  1.1987 -0.0716
34919SOL     OW15070   8.612   0.001   4.012 -0.2172 -0.2026 -0.6013
34919SOL    HW115071   8.604  -0.082   4.058 -1.6652  0.3380  0.1936
34919SOL    HW215072   8.702   0.029   4.029 -0.5841 -0.1993  1.6585
34920SOL     OW15073   0.080   4.823   8.842  0.0412 -0.2812 -0.5808
34920SOL    HW115074   0.123   4.738   8.829  0.2884 -0.3146  0.3748
34920SOL    HW215075   0.148   4.879   8.879 -0.9360 -0.5849  1.8192
34921SOL     OW15076  10.542   3.542   5.606 -0.0446  0.9730  0.1435
34921SOL    HW115077  10.609   3.534   5.674  0.0036  1.1601  0.1197
34921SOL    HW215078  10.586   3.588   5.534 -0.0294  0.5691 -0.1037
34922SOL     OW15079   6.162   6.240   7.855  0.3242  0.0806 -0.2529
34922SOL    HW115080   6.232   6.183   7.825 -0.3045 -0.6164 -0.4153
34922SOL    HW215081   6.103   6.183   7.903 -1.2868  0.1995 -1.9862
34923SOL     OW15082   1.102   1.305  12.601  0.0545  0.2090  0.4470
34923SOL    HW115083   1.125   1.382  12.652 -2.5992  0.4979  1.3707
34923SOL    HW215084   1.137   1.322  12.514  1.7652  1.2384  1.2969
34924SOL     OW15085  12.272   5.416   1.162 -0.2030 -0.1630  0.2110
34924SOL    HW115086  12.192   5.412   1.214  1.1425 -0.5224  2.3819
34924SOL    HW215087  12.287   5.326   1.133 -0.3309 -0.1871  0.2219
34925SOL     OW15088   4.280   3.147   3.483  0.0210  0.4079 -0.1144
34925SOL    HW115089   4.292   3.239   3.506  1.8815  0.0202  0.6206
34925SOL    HW215090   4.187   3.130   3.500 -0.1720  1.9322  0.5248
34926SOL     OW15091  12.179   3.347   3.834  0.2002 -0.8515 -0.6977
34926SOL    HW115092  12.164   3.429   3.881  0.7188 -1.0111 -0.2431
34926SOL    HW215093  12.269   3.323   3.856  0.6653 -0.6223 -2.2590
34927SOL     OW15094   9.180  12.215   9.049  0.5214 -0.1381 -0.1954
34927SOL    HW115095   9.208  12.239   8.961 -0.1196 -0.7218 -0.5689
34927SOL    HW215096   9.210  12.287   9.104 -0.7633  1.2371 -1.1931
34928SOL     OW15097   4.505   6.434   9.948 -0.5393 -0.5382 -0.3314
34928SOL    HW115098   4.412   6.444   9.966 -0.6810  0.0329 -1.3164
34928SOL    HW215099   4.520   6.485   9.868  0.6548 -0.4628 -0.0823
34929SOL     OW15100   2.960   7.819   9.737  0.4521  0.1933  0.0500
34929SOL    HW115101   2.883   7.766   9.716 -0.4866  0.6526  2.1238
34929SOL    HW215102   2.925   7.907   9.752  1.2089  0.1874  2.0537
34930SOL     OW15103  10.672   2.104   3.594 -0.1676  0.2948 -0.1253
34930SOL    HW115104  10.712   2.188   3.617 -1.0704  0.6891  0.0583
34930SOL    HW215105  10.625   2.121   3.512  0.5977 -0.3442 -0.7198
34931SOL     OW15106   0.282  10.914  12.667  0.0725 -0.1152  0.2512
34931SOL    HW115107   0.354  10.977  12.675  0.1531 -0.3497  1.7682
34931SOL    HW215108   0.297  10.870  12.584  2.4225 -1.0438  1.0880
34932SOL     OW15109   3.246   5.460   2.722  0.1779 -0.3148 -0.2163
34932SOL    HW115110   3.330   5.425   2.749  0.1109  0.0766  0.5536
34932SOL    HW215111   3.182   5.397   2.754  0.0297  0.6482  1.5430
34933SOL     OW15112   9.779   9.446  10.069 -0.1690 -0.1369 -0.7802
34933SOL    HW115113   9.756   9.389  10.142  0.2960 -0.8875 -1.2045
34933SOL    HW215114   9.742   9.531  10.092 -1.1733 -0.6896 -0.2978
34934SOL     OW15115  11.599   3.545   6.532 -0.4310  0.1314  0.4387
34934SOL    HW115116  11.591   3.631   6.491  0.2357 -1.2193 -2.8895
34934SOL    HW215117  11.560   3.485   6.468  2.1230 -2.3797  1.0593
34935SOL     OW15118   0.336  12.476   6.571  0.3213 -0.7851  0.0681
34935SOL    HW115119   0.250  12.508   6.546  0.8673 -1.3029 -2.8292
34935SOL    HW215120   0.371  12.543   6.630 -0.3728  1.7423 -2.1648
34936SOL     OW15121   8.479   2.297   3.426  0.5392 -0.0687  0.3973
34936SOL    HW115122   8.451   2.287   3.517 -3.0366 -0.1248 -0.5576
34936SOL    HW215123   8.507   2.210   3.399  0.7977 -0.2339  1.1735
34937SOL     OW15124   5.533   2.512  10.364  0.0796  0.0806  0.2934
34937SOL    HW115125   5.581   2.550  10.437  0.5338 -1.0555  0.6144
34937SOL    HW215126   5.481   2.443  10.403  0.8487 -1.0032 -0.5252
34938SOL     OW15127   1.252   2.579  10.947 -0.9391 -0.3287  0.3753
34938SOL    HW115128   1.320   2.516  10.925 -0.5408 -0.2719  1.3585
34938SOL    HW215129   1.249   2.639  10.873  0.3751 -0.1008  0.4819
34939SOL     OW15130  12.807  10.000   6.609 -0.5672  0.2904 -0.4714
34939SOL    HW115131  12.883  10.002   6.667 -0.4423  0.1113 -0.6250
34939SOL    HW215132  12.736  10.037   6.661 -0.4401  0.2004 -0.2309
34940SOL     OW15133   3.645   1.610   3.769  0.4529  0.4340 -0.0833
34940SOL    HW115134   3.667   1.563   3.689 -0.3148 -1.4205  0.7272
34940SOL    HW215135   3.590   1.683   3.740 -1.5695 -1.3808 -1.1380
34941SOL     OW15136   5.432   8.697   1.804 -0.4333 -0.1403 -0.0883
34941SOL    HW115137   5.457   8.716   1.894 -0.9543  0.0596  0.0187
34941SOL    HW215138   5.445   8.603   1.794  0.1471 -0.0746  0.0267
34942SOL     OW15139   3.290   0.139   9.700 -0.3179  1.1639 -0.2529
34942SOL    HW115140   3.312   0.047   9.688 -1.8136  0.3828  2.3312
34942SOL    HW215141   3.362   0.176   9.751 -1.0599  0.6357  1.2349
34943SOL     OW15142  11.719   7.544  10.246 -0.6978  0.1418  0.4693
34943SOL    HW115143  11.655   7.490  10.199  0.8094 -0.3824 -1.0768
34943SOL    HW215144  11.796   7.544  10.189  1.1682 -0.3457  2.8423
34944SOL     OW15145   4.382   1.788  10.300  0.1793  0.2876 -0.7219
34944SOL    HW115146   4.367   1.694  10.296 -1.2101  0.4440  0.1327
34944SOL    HW215147   4.298   1.827  10.278  0.0279  1.2830  1.3901
34945SOL     OW15148   5.089   2.589  10.025 -0.0073 -0.3961 -0.5323
34945SOL    HW115149   5.053   2.623   9.943  0.5638  0.3854 -0.4614
34945SOL    HW215150   5.143   2.659  10.059  0.9123 -1.2407 -0.1997
34946SOL     OW15151   2.792   0.812   8.663  0.0120  0.7496 -0.4530
34946SOL    HW115152   2.728   0.813   8.592  0.7421 -0.3562 -1.1492
34946SOL    HW215153   2.857   0.747   8.637 -1.0725 -1.7590  2.4323
34947SOL     OW15154   1.048   4.085  10.536  0.0998  0.2778  0.0723
34947SOL    HW115155   1.001   4.168  10.530 -2.5695 -1.1973 -1.2411
34947SOL    HW215156   1.049   4.065  10.629  2.3182  2.4766  0.6421
34948SOL     OW15157  10.199   2.149  10.307 -0.4089  0.5592  0.0831
34948SOL    HW115158  10.168   2.221  10.362  2.0159  0.6371  1.4546
34948SOL    HW215159  10.232   2.084  10.369 -0.9445 -1.0123 -1.1988
34949SOL     OW15160   6.380  10.034   2.408 -0.1054  0.3875  0.3646
34949SOL    HW115161   6.459  10.046   2.355 -0.3316  0.9826  0.1585
34949SOL    HW215162   6.309  10.034   2.344 -0.5481  2.8246  0.7902
34950SOL     OW15163   1.947   1.852   8.481 -0.5348 -0.2132 -0.1162
34950SOL    HW115164   1.958   1.767   8.524 -1.0510 -1.1205 -1.6952
34950SOL    HW215165   1.939   1.915   8.553  0.0698 -1.4687  1.0815
34951SOL     OW15166   2.320  11.388   4.847  0.2490 -0.5792 -0.4038
34951SOL    HW115167   2.289  11.402   4.757  1.2677  1.4932 -0.4878
34951SOL    HW215168   2.245  11.412   4.902  0.5368  1.0657 -0.6736
34952SOL     OW15169   6.102   0.998   8.928  0.3455  0.1404 -0.0264
34952SOL    HW115170   6.146   0.913   8.928  0.7054  0.3176  0.5820
34952SOL    HW215171   6.101   1.024   9.020 -0.8632  0.2287 -0.0549
34953SOL     OW15172   7.157   0.929  10.428 -0.0024 -0.3308 -0.7852
34953SOL    HW115173   7.121   1.005  10.382 -1.1937 -0.6500 -0.4165
34953SOL    HW215174   7.136   0.854  10.372 -0.6007 -0.6059 -0.2107
34954SOL     OW15175   7.184   5.011   1.675 -0.2807 -0.0156  0.6462
34954SOL    HW115176   7.096   5.028   1.642  0.2207  1.1276 -0.1720
34954SOL    HW215177   7.179   4.924   1.715 -2.1178  0.5858  1.8320
34955SOL     OW15178  10.922   8.983  12.622  1.0193  0.4010  0.6690
34955SOL    HW115179  10.918   8.889  12.605 -1.0207  0.5833 -0.1682
34955SOL    HW215180  10.996   8.994  12.681  2.1787 -1.5411 -0.3347
34956SOL     OW15181   8.680   3.941   0.695  0.0818 -0.4751 -0.5597
34956SOL    HW115182   8.589   3.961   0.676  0.2859  0.8839 -0.1820
34956SOL    HW215183   8.682   3.922   0.788  0.6191  2.5532  0.1565
34957SOL     OW15184   9.404  11.637   3.138 -0.1696 -1.0947 -0.5441
34957SOL    HW115185   9.494  11.659   3.159 -0.6898 -0.4144  1.1848
34957SOL    HW215186   9.409  11.552   3.096  1.3004 -0.9077 -0.8005
34958SOL     OW15187   7.300  10.706   5.309 -0.1673 -0.2738  0.0138
34958SOL    HW115188   7.266  10.652   5.238  0.8210 -0.9668  0.0379
34958SOL    HW215189   7.235  10.699   5.378 -1.8932  1.6007 -1.3036
34959SOL     OW15190   1.047   2.440   5.569  0.4646  0.0339  0.0113
34959SOL    HW115191   1.050   2.354   5.528  0.0646  0.3318 -0.6652
34959SOL    HW215192   0.986   2.430   5.642  1.3940 -0.5713  0.7332
34960SOL     OW15193   1.626   9.603   7.149 -0.8945 -0.2970 -0.1066
34960SOL    HW115194   1.580   9.586   7.231 -0.6607 -1.5768 -0.2114
34960SOL    HW215195   1.558   9.637   7.091 -1.2468 -0.1689  0.3747
34961SOL     OW15196   0.675   5.497   6.978  0.5044 -0.5105 -0.2235
34961SOL    HW115197   0.651   5.436   6.908  1.6961  0.8997 -1.9802
34961SOL    HW215198   0.592   5.530   7.011 -0.1550  0.2993 -2.4535
34962SOL     OW15199   5.067  11.237  12.752 -0.0624  0.0323 -0.2649
34962SOL    HW115200   4.983  11.236  12.797  0.3635 -1.8531  0.5698
34962SOL    HW215201   5.125  11.287  12.810 -0.5505  1.2622 -0.8024
34963SOL     OW15202   3.306   9.972   5.585 -0.0348  0.0178 -0.4037
34963SOL    HW115203   3.363  10.045   5.559  0.4977 -0.4954 -0.6880
34963SOL    HW215204   3.293   9.922   5.505  1.2033 -1.3009  0.1803
34964SOL     OW15205   1.965   0.453   7.752 -0.0232 -0.1118 -0.0360
34964SOL    HW115206   1.933   0.370   7.787  1.3382 -0.4186  0.5258
34964SOL    HW215207   1.887   0.508   7.746 -0.6785 -0.8690  1.1806
34965SOL     OW15208   5.250   4.872   7.088 -0.5108 -1.0308  0.3347
34965SOL    HW115209   5.249   4.817   7.166  2.7005  0.9343  1.9412
34965SOL    HW215210   5.202   4.951   7.114  0.3186 -0.4922  0.2577
34966SOL     OW15211  11.165   6.670   2.263 -0.3415 -0.0750 -0.0967
34966SOL    HW115212  11.191   6.686   2.354 -1.1635  0.2090  0.0980
34966SOL    HW215213  11.246   6.683   2.213  0.6596 -2.3772  0.7807
34967SOL     OW15214   6.600   1.679   1.488  0.2342 -0.3371 -0.5980
34967SOL    HW115215   6.600   1.598   1.538 -0.9065 -0.7417 -1.2113
34967SOL    HW215216   6.552   1.741   1.542 -2.1150 -1.1167 -1.6142
34968SOL     OW15217   1.432   2.268   9.137  0.4028 -0.7679 -0.0949
34968SOL    HW115218   1.393   2.180   9.131  0.2805 -0.6603 -1.0744
34968SOL    HW215219   1.460   2.287   9.047 -1.4935  1.0558 -0.3800
34969SOL     OW15220   1.296  11.252   8.933  0.0441  0.3211 -0.5913
34969SOL    HW115221   1.246  11.171   8.939  0.6589 -0.1699 -1.7180
34969SOL    HW215222   1.388  11.225   8.940  0.2097  1.1193  0.6740
34970SOL     OW15223   6.918   2.447   1.359 -0.4911  0.0584  0.0342
34970SOL    HW115224   6.870   2.460   1.277 -2.5559  0.1343  1.1782
34970SOL    HW215225   6.888   2.362   1.390  0.7809 -0.2700  0.4206
34971SOL     OW15226   0.543  11.537   6.827  0.1134 -0.3965 -0.7506
34971SOL    HW115227   0.495  11.613   6.860 -1.1842  0.5060 -4.2178
34971SOL    HW215228   0.630  11.570   6.807  0.7464 -0.8268  1.1454
34972SOL     OW15229   1.410   1.637   4.988  0.0178 -0.0373  0.1040
34972SOL    HW115230   1.434   1.563   4.932  1.0636  1.7305 -1.9272
34972SOL    HW215231   1.487   1.649   5.044  0.8874  0.9510 -1.2361
34973SOL     OW15232   4.588   2.432   9.494  0.8480  0.1863 -0.1310
34973SOL    HW115233   4.652   2.455   9.561 -0.6051 -0.5973  1.6231
34973SOL    HW215234   4.640   2.404   9.419  2.5450  1.7261  0.4175
34974SOL     OW15235   1.263   5.512   3.666 -0.1444  0.0448 -0.3292
34974SOL    HW115236   1.256   5.607   3.655  2.8854  0.2920 -0.8648
34974SOL    HW215237   1.233   5.496   3.756  1.0579  1.7942  0.4318
34975SOL     OW15238  10.655  12.323   9.362  0.3177 -0.2254 -0.3095
34975SOL    HW115239  10.747  12.301   9.347  0.3120 -1.1112  0.8366
34975SOL    HW215240  10.608  12.241   9.345 -0.1012 -0.1531  0.4876
34976SOL     OW15241   8.691  10.651  11.016  0.2985 -0.1734 -0.5142
34976SOL    HW115242   8.755  10.682  10.952 -0.2508 -0.5434 -1.2657
34976SOL    HW215243   8.701  10.709  11.091  1.7702 -0.4755 -0.4594
34977SOL     OW15244  11.830   4.876  11.153  0.4979  0.3555  0.2506
34977SOL    HW115245  11.908   4.825  11.128 -0.1343 -0.1273 -0.7950
34977SOL    HW215246  11.794   4.829  11.228 -0.7253 -1.4930 -1.3877
34978SOL     OW15247   4.206  11.783   4.508  0.0084  0.4448 -0.2503
34978SOL    HW115248   4.240  11.825   4.429 -0.4039  0.6497 -0.3229
34978SOL    HW215249   4.208  11.852   4.574  0.8015  0.1437  0.0496
34979SOL     OW15250  11.978   2.287   9.719 -0.1937 -0.3123 -0.6348
34979SOL    HW115251  12.029   2.213   9.687  0.1801 -0.5853  0.5419
34979SOL    HW215252  12.010   2.362   9.668  0.7433 -0.6374 -0.5457
34980SOL     OW15253   4.495   0.411  11.861 -0.0958 -0.1085 -0.1005
34980SOL    HW115254   4.429   0.473  11.891 -1.1300 -0.1877 -2.0875
34980SOL    HW215255   4.485   0.408  11.766  1.6524 -1.3976 -0.3026
34981SOL     OW15256  11.768   8.814  10.945  0.5065  0.4422 -0.6284
34981SOL    HW115257  11.711   8.861  11.006 -0.2222 -0.5721 -0.4984
34981SOL    HW215258  11.731   8.726  10.941  2.0230 -0.2218 -0.6101
34982SOL     OW15259   3.419   2.391   2.851 -1.0899  0.5397 -0.6029
34982SOL    HW115260   3.367   2.354   2.779 -0.4005  0.2329 -0.9593
34982SOL    HW215261   3.508   2.357   2.836 -0.9074  0.5861  0.3185
34983SOL     OW15262   3.487   6.201   2.301 -0.2139  0.5581  0.1895
34983SOL    HW115263   3.404   6.228   2.340 -0.5316  0.8721 -0.6711
34983SOL    HW215264   3.478   6.107   2.287 -1.4420  0.9644 -2.1874
34984SOL     OW15265   9.607   7.792   8.559 -0.1075  0.8848  0.4215
34984SOL    HW115266   9.642   7.706   8.584 -1.6384  0.5089  1.4383
34984SOL    HW215267   9.557   7.776   8.479  0.0097  0.9290  0.3397
34985SOL     OW15268   0.915  10.349   1.893 -0.2593 -0.2787  0.1698
34985SOL    HW115269   0.835  10.372   1.940  1.7064  1.9785  2.7589
34985SOL    HW215270   0.924  10.254   1.906 -1.8616 -0.3744  0.8574
34986SOL     OW15271   8.150   1.865   2.639 -0.1258 -0.0056 -0.1525
34986SOL    HW115272   8.139   1.923   2.564  0.7669 -0.5292 -0.7177
34986SOL    HW215273   8.185   1.921   2.708  1.4477  0.0194 -0.9213
34987SOL     OW15274   9.720   6.023   7.513  0.7698 -0.0837 -0.3879
34987SOL    HW115275   9.775   6.038   7.436  1.9206 -0.6860  0.2945
34987SOL    HW215276   9.767   5.958   7.564 -0.3855 -0.3060  0.4357
34988SOL     OW15277   4.439   9.873   7.873 -0.5546 -0.9410  0.3145
34988SOL    HW115278   4.501   9.855   7.944  0.1643 -0.3947 -0.1600
34988SOL    HW215279   4.354   9.876   7.915  0.0672  1.7768  1.6060
34989SOL     OW15280   7.701   1.871  11.362  0.4744  0.2603 -0.4189
34989SOL    HW115281   7.742   1.852  11.447 -0.1442 -0.4505 -0.2671
34989SOL    HW215282   7.727   1.798  11.306 -1.8554 -1.1292  0.1434
34990SOL     OW15283   4.515  12.507   3.218 -0.3316 -0.1014  0.3296
34990SOL    HW115284   4.566  12.558   3.281  0.9356  0.2873 -0.9408
34990SOL    HW215285   4.578  12.444   3.182 -1.5601 -1.7781  0.9758
34991SOL     OW15286  10.831   1.047   7.814  0.0961  0.2058 -0.3334
34991SOL    HW115287  10.802   0.981   7.877 -1.2259 -0.9446 -2.0422
34991SOL    HW215288  10.927   1.041   7.815  0.0130 -1.8989 -0.5520
34992SOL     OW15289   9.121  10.658   3.501  0.4718 -0.0936  0.3317
34992SOL    HW115290   9.044  10.712   3.483  1.4182  1.3123  0.3038
34992SOL    HW215291   9.141  10.675   3.593  1.0089 -0.0998  0.2175
34993SOL     OW15292   2.594   6.575   7.681  0.8057  0.4176 -0.2283
34993SOL    HW115293   2.652   6.644   7.712  0.7815  0.8593 -1.1538
34993SOL    HW215294   2.640   6.535   7.607 -0.2269  1.0417 -1.2324
34994SOL     OW15295   9.328   5.572   4.488  0.1927 -0.2361  0.3147
34994SOL    HW115296   9.327   5.666   4.475  2.4163  0.0049  1.4684
34994SOL    HW215297   9.364   5.537   4.407  1.0506  0.0724  0.5556
34995SOL     OW15298   4.809   8.620   1.173 -0.1730 -0.2566 -0.0045
34995SOL    HW115299   4.868   8.579   1.110  1.4097  0.9648  0.6307
34995SOL    HW215300   4.774   8.697   1.127 -1.3769 -1.0167 -0.4063
34996SOL     OW15301   1.219   6.956   3.726  0.7546 -0.0078  0.4499
34996SOL    HW115302   1.249   6.936   3.815  1.0998  0.1196  0.3650
34996SOL    HW215303   1.290   6.925   3.669  0.4415 -0.2822  0.2061
34997SOL     OW15304   9.948  11.519   4.531 -0.7057  0.4010  0.1731
34997SOL    HW115305   9.945  11.440   4.585 -0.7653  0.6914  0.6038
34997SOL    HW215306  10.034  11.517   4.490 -0.4049  0.4990  0.7805
34998SOL     OW15307  11.818  10.088   0.210  0.0282  0.2352  0.0560
34998SOL    HW115308  11.838  10.165   0.157  2.1433 -0.6425 -0.5459
34998SOL    HW215309  11.813  10.120   0.300 -0.1165  1.2128 -0.2931
34999SOL     OW15310   4.565   1.029  11.787 -0.2154 -0.1971 -0.3081
34999SOL    HW115311   4.605   1.038  11.701 -2.0034 -0.1066 -1.1731
34999SOL    HW215312   4.493   1.092  11.786 -0.8716 -0.9035  0.8846
35000SOL     OW15313   6.483  10.906   8.797 -0.7076 -0.0198  0.0473
35000SOL    HW115314   6.484  10.959   8.877  0.5617 -0.1430  0.1433
35000SOL    HW215315   6.571  10.917   8.760 -0.6956 -1.3780 -0.3792
35001SOL     OW15316   1.154   4.863   9.192 -0.5375 -0.1752 -0.4772
35001SOL    HW115317   1.085   4.827   9.247 -1.9623  1.5767 -0.9942
35001SOL    HW215318   1.163   4.954   9.222  1.0583 -0.1618 -0.9055
35002SOL     OW15319   3.803   4.692   2.384 -0.3370  0.3975 -0.2561
35002SOL    HW115320   3.872   4.758   2.388 -1.3658  1.5315 -0.7450
35002SOL    HW215321   3.841   4.616   2.429  2.0180  0.2220 -2.2953
35003SOL     OW15322   9.190   0.064   3.601  0.3077 -0.1104 -0.1383
35003SOL    HW115323   9.276   0.094   3.631 -0.0588 -0.4456  1.3205
35003SOL    HW215324   9.136   0.063   3.680 -0.3983 -2.1183 -0.5861
35004SOL     OW15325   8.978   8.315   5.422 -0.5776  0.0785  0.5800
35004SOL    HW115326   8.927   8.288   5.498 -0.8723 -0.9771  0.0303
35004SOL    HW215327   8.935   8.272   5.348 -0.3206  1.1085 -0.1923
35005SOL     OW15328   5.172   0.759   9.293  0.0009  0.0281 -0.1824
35005SOL    HW115329   5.119   0.799   9.223 -0.8602  0.8193  0.8920
35005SOL    HW215330   5.134   0.673   9.306  0.0619 -0.0604 -0.5604
35006SOL     OW15331  11.702   6.724   6.613  0.1404  0.8626  0.1558
35006SOL    HW115332  11.775   6.768   6.656  0.7749  1.3247 -1.3350
35006SOL    HW215333  11.711   6.746   6.520 -1.2190 -0.0338 -0.2292
35007SOL     OW15334   3.708   6.978   3.812  0.1244 -0.0092 -0.2895
35007SOL    HW115335   3.635   6.983   3.751 -0.4587 -0.1090  0.3878
35007SOL    HW215336   3.668   6.952   3.895  0.6311  1.9956  0.6217
35008SOL     OW15337  11.125   4.084   5.401  0.1473 -0.0607 -0.3046
35008SOL    HW115338  11.203   4.032   5.381  0.6110  0.0562  1.1080
35008SOL    HW215339  11.139   4.167   5.355  2.0339  0.8929  1.7969
35009SOL     OW15340   8.500  11.353   1.878  0.5148 -0.4107 -0.4060
35009SOL    HW115341   8.492  11.318   1.966 -0.1728  0.2609 -0.1929
35009SOL    HW215342   8.415  11.338   1.838  1.3153 -2.1968 -1.5313
35010SOL     OW15343   5.803   9.335   4.900  0.5221  0.2585  0.1258
35010SOL    HW115344   5.884   9.373   4.866  0.9974  0.6275  1.6187
35010SOL    HW215345   5.822   9.314   4.991 -0.1172 -2.4544 -0.2698
35011SOL     OW15346  11.985   9.391   8.039 -0.5586 -0.8707  0.1056
35011SOL    HW115347  11.936   9.336   7.979  0.7284  0.4144 -2.2490
35011SOL    HW215348  11.920   9.452   8.074 -1.1114 -0.7488 -1.0898
35012SOL     OW15349   2.454   1.655   1.087  0.1336  0.0659  0.4441
35012SOL    HW115350   2.530   1.625   1.037 -0.3597 -0.1540 -0.1848
35012SOL    HW215351   2.465   1.615   1.173  0.7328  0.0449  0.3636
35013SOL     OW15352   6.154  11.182   6.995 -0.3651 -0.0597  0.3673
35013SOL    HW115353   6.127  11.273   7.005 -0.6312  0.2034 -2.0679
35013SOL    HW215354   6.212  11.166   7.069 -1.2242  1.7201  1.4924
35014SOL     OW15355   6.211  12.684  12.902  0.2455  0.7565  0.0873
35014SOL    HW115356   6.165  12.711  12.982 -0.7172 -2.0338  0.5697
35014SOL    HW215357   6.141  12.667  12.839  0.8787  0.6295 -0.5919
35015SOL     OW15358   1.217   8.538   2.193 -0.4858 -0.4395 -0.1385
35015SOL    HW115359   1.293   8.593   2.215 -1.8628  2.3520 -1.8063
35015SOL    HW215360   1.256   8.461   2.151  1.4778  0.5848 -0.3539
35016SOL     OW15361   8.896   6.004   1.853 -0.4842  0.0987 -0.3566
35016SOL    HW115362   8.823   6.059   1.878 -0.0873 -0.6715  2.9871
35016SOL    HW215363   8.963   6.065   1.820 -1.1677  1.2650  0.3605
35017SOL     OW15364   4.539   7.022  10.830  0.7795  0.1146 -0.6093
35017SOL    HW115365   4.510   7.110  10.810 -3.1956 -0.0985  2.9215
35017SOL    HW215366   4.508   6.969  10.756  0.3950  1.2114 -1.2523
35018SOL     OW15367   2.414  12.044   5.630  0.3012 -0.1882  0.4275
35018SOL    HW115368   2.411  12.138   5.612  0.8364 -0.2615 -0.1102
35018SOL    HW215369   2.323  12.016   5.629  0.2241  0.0190 -1.1815
35019SOL     OW15370   1.834   0.659  10.545 -0.3597 -0.0237 -0.3016
35019SOL    HW115371   1.917   0.613  10.553 -1.3493 -1.7236  0.7783
35019SOL    HW215372   1.798   0.660  10.633 -0.6343  2.4269 -0.3840
35020SOL     OW15373   0.701   2.031  12.325 -0.9709  0.0063  0.7528
35020SOL    HW115374   0.625   1.993  12.369 -2.6466  0.5771 -1.4674
35020SOL    HW215375   0.688   2.011  12.232  0.8529  1.3723  0.1337
35021SOL     OW15376   1.238   0.284   5.219 -0.3105  0.6700  0.2870
35021SOL    HW115377   1.299   0.353   5.195 -1.3495  1.0207 -1.4516
35021SOL    HW215378   1.294   0.214   5.255  0.9219  1.6411  0.3038
35022SOL     OW15379   2.863   6.223   4.160  0.3882 -0.2517 -0.0124
35022SOL    HW115380   2.821   6.308   4.166 -0.6279 -0.6568 -1.0880
35022SOL    HW215381   2.934   6.236   4.097 -0.1619 -0.3353 -0.6630
35023SOL     OW15382   6.089   3.900   9.291  0.2621  0.2384  0.2152
35023SOL    HW115383   6.091   3.968   9.358 -1.0794 -0.2141  0.7515
35023SOL    HW215384   6.070   3.820   9.340 -0.1630 -0.1952 -0.6414
35024SOL     OW15385  12.418   6.742   9.113 -0.3093  0.3370  0.2581
35024SOL    HW115386  12.346   6.690   9.077 -0.0611 -1.3266  2.0165
35024SOL    HW215387  12.410   6.732   9.208  2.4987 -0.3105  0.5080
35025SOL     OW15388  10.768   8.081   0.192  1.1001 -0.2447  0.6308
35025SOL    HW115389  10.682   8.076   0.234  0.7482 -2.4924 -0.2179
35025SOL    HW215390  10.749   8.106   0.102  1.2325 -1.3736  0.2720
35026SOL     OW15391   0.606   1.431   4.699 -0.4431 -0.1337  0.1385
35026SOL    HW115392   0.642   1.486   4.768  1.1667 -0.0302 -0.7321
35026SOL    HW215393   0.551   1.368   4.745 -0.1048  0.4688  1.4247
35027SOL     OW15394   3.573   6.050   1.367 -0.3001 -0.5644 -0.6608
35027SOL    HW115395   3.612   5.980   1.420  1.5258  2.0164  1.7525
35027SOL    HW215396   3.487   6.065   1.407  0.0085 -0.3489 -0.0603
35028SOL     OW15397   9.119   5.477   3.716  0.1819  0.0849  0.8608
35028SOL    HW115398   9.154   5.416   3.651 -3.0550 -1.8641  0.7028
35028SOL    HW215399   9.080   5.548   3.665 -0.6657 -0.4701  0.7052
35029SOL     OW15400  12.376  11.472   7.602 -0.4695 -0.7161  0.5483
35029SOL    HW115401  12.291  11.447   7.639  0.2852 -1.8495  1.5751
35029SOL    HW215402  12.365  11.462   7.507 -1.3876 -1.1293  0.6887
35030SOL     OW15403   9.052   7.876   4.910 -0.7056  0.0144  0.2141
35030SOL    HW115404   9.129   7.845   4.957 -1.6230 -0.6489  1.3320
35030SOL    HW215405   8.979   7.829   4.950 -1.5901 -0.2242 -1.5766
35031SOL     OW15406   4.075   9.686   4.009  0.5068  0.5229 -0.4339
35031SOL    HW115407   4.163   9.677   4.046  0.3981 -0.4496 -0.3823
35031SOL    HW215408   4.073   9.622   3.938 -0.9732 -1.3228  1.1556
35032SOL     OW15409   2.213   5.608  11.590 -0.0045 -0.2840  0.3954
35032SOL    HW115410   2.251   5.586  11.674  0.0947  0.3416  0.5221
35032SOL    HW215411   2.199   5.524  11.546  1.5475 -0.5290  0.3319
35033SOL     OW15412   2.274  12.572   1.702  0.9518 -0.4628 -0.1368
35033SOL    HW115413   2.352  12.616   1.735  0.2606  0.7201 -0.0103
35033SOL    HW215414   2.257  12.615   1.618 -0.2755  0.1980  0.4237
35034SOL     OW15415   8.607   0.665   8.978 -0.3104  0.2610  0.2130
35034SOL    HW115416   8.664   0.591   8.997 -0.4536  0.4624  1.5041
35034SOL    HW215417   8.662   0.726   8.928  0.6075  0.4274  1.3948
35035SOL     OW15418   4.540   2.463   6.959  0.2316 -0.7758  0.0995
35035SOL    HW115419   4.626   2.484   6.922 -1.2144  0.6627 -2.7044
35035SOL    HW215420   4.482   2.455   6.883 -2.4856  0.0250  1.9536
35036SOL     OW15421   0.268   9.122  10.586 -0.0029  0.3906 -0.2054
35036SOL    HW115422   0.342   9.168  10.627  1.3260 -0.6265 -1.3433
35036SOL    HW215423   0.300   9.032  10.575 -0.7061  0.3542 -2.3981
35037SOL     OW15424   5.331  11.948   6.005 -0.1414  0.3103 -0.2924
35037SOL    HW115425   5.261  11.892   6.037 -0.6105  0.8987 -0.2681
35037SOL    HW215426   5.388  11.962   6.081 -0.5480  0.6453 -0.0424
35038SOL     OW15427   0.316  10.441   7.009  0.0167 -0.7658 -0.0987
35038SOL    HW115428   0.399  10.485   7.030 -0.4546 -0.3367  0.9556
35038SOL    HW215429   0.267  10.443   7.091  0.3405 -4.1413  0.3171
35039SOL     OW15430  12.844   8.253   3.088 -0.1696  0.3728  0.4136
35039SOL    HW115431  12.863   8.329   3.142  0.6569 -0.0068  0.6774
35039SOL    HW215432  12.819   8.289   3.003  0.3180  0.9366  0.5038
35040SOL     OW15433   2.017   3.865  10.280 -0.5955  0.6407  0.5365
35040SOL    HW115434   2.021   3.917  10.199  1.2910  0.9492  0.7805
35040SOL    HW215435   2.043   3.777  10.253  0.0329  0.7436  0.7974
35041SOL     OW15436   0.028   2.380   4.515 -0.3168 -0.6779  0.1011
35041SOL    HW115437   0.017   2.355   4.606  0.1503  0.3250  0.4539
35041SOL    HW215438  -0.044   2.338   4.469 -1.8192  0.5029  1.2656
35042SOL     OW15439   1.181   3.515  11.658  0.7115 -0.0737  0.0190
35042SOL    HW115440   1.225   3.461  11.723  0.7950 -0.2597 -0.1920
35042SOL    HW215441   1.250   3.541  11.597  0.5096 -0.4945 -0.4023
35043SOL     OW15442  11.949   0.791   3.637  0.3231 -0.1200  0.0477
35043SOL    HW115443  12.037   0.807   3.672  0.9013 -1.6946 -0.5823
35043SOL    HW215444  11.944   0.696   3.628 -2.5053 -0.3947  2.7387
35044SOL     OW15445   2.358   1.414   0.706 -0.3178 -0.0238  0.3274
35044SOL    HW115446   2.280   1.446   0.752  0.7973  2.1082  0.8329
35044SOL    HW215447   2.376   1.329   0.746 -1.9563 -0.2327  0.6946
35045SOL     OW15448   7.051   0.238  12.116 -0.0809 -0.2791  0.7433
35045SOL    HW115449   6.974   0.221  12.062  0.4740  0.6855 -0.4126
35045SOL    HW215450   7.040   0.328  12.147  0.8813  0.1159 -0.0070
35046SOL     OW15451  12.835   6.473  11.349  0.8996  0.1913  0.2486
35046SOL    HW115452  12.754   6.524  11.348  0.9048  0.2113 -1.1489
35046SOL    HW215453  12.879   6.496  11.267  2.1896 -0.0399  0.8492
35047SOL     OW15454   9.792   6.189   5.191  0.4679  0.4470  0.4209
35047SOL    HW115455   9.836   6.129   5.131 -3.2676 -2.8247  0.5600
35047SOL    HW215456   9.796   6.145   5.276 -2.1373  0.3611  0.5874
35048SOL     OW15457  10.691   0.672   8.580  0.2158  0.3970  0.4656
35048SOL    HW115458  10.686   0.767   8.586  1.2225  0.4332  0.8393
35048SOL    HW215459  10.775   0.655   8.537 -0.5987 -0.2949 -0.9546
35049SOL     OW15460   2.855   4.473   5.251  0.6497  0.2306  0.5935
35049SOL    HW115461   2.942   4.433   5.252 -0.3556 -2.1526 -0.4430
35049SOL    HW215462   2.816   4.442   5.169 -1.1032  1.4451  0.9260
35050SOL     OW15463   3.425   7.632   2.950 -0.2440 -0.3716 -0.9828
35050SOL    HW115464   3.395   7.662   2.864  0.9832 -0.8444 -1.6040
35050SOL    HW215465   3.477   7.704   2.984 -1.9677  0.4358  0.0824
35051SOL     OW15466   4.048   0.540   1.139  0.1074  0.3448 -0.1949
35051SOL    HW115467   4.005   0.455   1.129  0.6911  0.0865 -0.5585
35051SOL    HW215468   3.976   0.603   1.138 -0.6183 -0.2961  2.8867
35052SOL     OW15469   3.411   3.429   9.918 -1.0510 -0.2933  0.2840
35052SOL    HW115470   3.480   3.473   9.966 -1.4903  1.0212 -0.2463
35052SOL    HW215471   3.418   3.337   9.944 -0.1070  0.0796  1.4103
35053SOL     OW15472   4.162  10.256   3.991 -0.4288  0.3879 -0.5181
35053SOL    HW115473   4.239  10.282   3.941  0.3379 -0.1668  0.3173
35053SOL    HW215474   4.194  10.250   4.082 -1.3042 -0.4241 -0.2447
35054SOL     OW15475   7.211   6.620  12.351 -0.4399 -0.2196 -0.8020
35054SOL    HW115476   7.173   6.574  12.275 -0.2224  0.5482 -1.3936
35054SOL    HW215477   7.157   6.699  12.360 -1.2633 -0.9276  0.6509
35055SOL     OW15478   6.295   2.178  11.522  0.5045  0.4807 -0.2488
35055SOL    HW115479   6.317   2.216  11.607 -0.5961 -1.0756  0.8084
35055SOL    HW215480   6.200   2.193  11.514  0.4018 -0.3687 -0.6680
35056SOL     OW15481  11.809   1.973   7.426  0.3747  0.3882  0.2012
35056SOL    HW115482  11.813   1.996   7.519 -2.6830 -1.9271  1.0694
35056SOL    HW215483  11.841   1.883   7.422 -0.0328  0.2786 -0.9193
35057SOL     OW15484   1.031   8.624   5.080  0.1784 -0.1648 -0.2365
35057SOL    HW115485   1.106   8.564   5.084  0.5521  0.2696 -0.6316
35057SOL    HW215486   0.982   8.606   5.160  0.9894 -0.0775  0.2878
35058SOL     OW15487   0.679   2.939   1.470  0.3278 -0.3566 -0.0485
35058SOL    HW115488   0.670   3.029   1.501  0.8049 -0.9966  2.1786
35058SOL    HW215489   0.624   2.935   1.392 -0.4997  1.6063  0.3596
35059SOL     OW15490   9.951  12.616  12.379 -0.0815 -0.2118  0.0213
35059SOL    HW115491  10.034  12.658  12.401  0.1854 -0.7701  0.0989
35059SOL    HW215492   9.971  12.566  12.299 -1.1161  2.0859 -1.7927
35060SOL     OW15493   5.822   4.792  11.374 -0.4478  0.0542 -0.0977
35060SOL    HW115494   5.872   4.730  11.427 -0.4681  0.8969  0.9331
35060SOL    HW215495   5.859   4.877  11.396 -1.3574  0.5449 -0.4303
35061SOL     OW15496   2.990   2.018   0.464 -0.2017 -0.3811 -0.3298
35061SOL    HW115497   3.008   2.083   0.395  2.4664 -1.6802 -0.9801
35061SOL    HW215498   2.897   1.997   0.452 -0.9475  2.6199 -0.6428
35062SOL     OW15499   4.391   9.641   8.682  0.0524 -0.2747  0.0300
35062SOL    HW115500   4.299   9.621   8.693 -0.6574  2.5270  0.0430
35062SOL    HW215501   4.393   9.704   8.610  2.0069 -0.5342 -0.2054
35063SOL     OW15502   1.159   3.710   2.645  0.3075 -0.2048  0.1902
35063SOL    HW115503   1.131   3.620   2.627 -0.8512  0.0317  0.7292
35063SOL    HW215504   1.114   3.734   2.726 -1.5531  1.7663 -1.3022
35064SOL     OW15505   8.424   1.051   7.557 -0.1168  0.0425  0.5252
35064SOL    HW115506   8.431   0.986   7.486 -0.9528  0.5102  0.0047
35064SOL    HW215507   8.456   1.132   7.518 -2.1862  0.7074  0.1259
35065SOL     OW15508   8.628   1.852   0.637  0.1476 -0.2637  0.0817
35065SOL    HW115509   8.626   1.933   0.689  0.9247 -1.9843  3.0411
35065SOL    HW215510   8.538   1.821   0.638 -0.1459  0.5153 -1.0268
35066SOL     OW15511   7.371   9.008  10.889 -0.5419 -0.3530  0.2550
35066SOL    HW115512   7.372   8.973  10.800  1.6439 -3.7190  1.3976
35066SOL    HW215513   7.296   8.965  10.931 -0.0851 -0.7587  0.6757
35067SOL     OW15514  12.908   5.456   1.668 -0.0929 -0.3075  0.1756
35067SOL    HW115515  12.904   5.375   1.720 -0.3620 -0.2523  0.2451
35067SOL    HW215516  12.838   5.510   1.704 -0.3505 -0.3077 -0.3127
35068SOL     OW15517  10.582  12.774   7.952 -0.0114 -0.5333 -0.1610
35068SOL    HW115518  10.567  12.731   7.868 -1.9395  0.2209 -0.2621
35068SOL    HW215519  10.666  12.739   7.983 -0.7845 -3.2602 -0.8841
35069SOL     OW15520   0.796   6.120  10.179  0.7199  0.2453  0.5411
35069SOL    HW115521   0.720   6.114  10.122 -0.5263  0.4258  2.1094
35069SOL    HW215522   0.844   6.197  10.147  0.0872  0.3093 -0.2842
35070SOL     OW15523   3.439   6.287   7.180 -0.4090 -0.4639 -0.2251
35070SOL    HW115524   3.347   6.270   7.200 -0.4035 -0.0015  0.2163
35070SOL    HW215525   3.471   6.335   7.256 -0.0703  0.2642 -0.8171
35071SOL     OW15526   4.743   8.186   6.059  0.6898 -0.0968  0.2019
35071SOL    HW115527   4.741   8.147   5.971  1.1230  0.9366 -0.2734
35071SOL    HW215528   4.653   8.177   6.090  0.3425  0.2345 -0.6676
35072SOL     OW15529  12.432   8.190  10.840  0.1348  0.3296  0.1727
35072SOL    HW115530  12.426   8.220  10.930  0.5554  0.8979  0.0166
35072SOL    HW215531  12.496   8.119  10.842 -0.4625 -0.2083  0.4530
35073SOL     OW15532   5.121  10.834  11.590  0.4483 -0.3988 -0.3392
35073SOL    HW115533   5.035  10.794  11.574  0.6508 -1.6760  1.4674
35073SOL    HW215534   5.103  10.906  11.650  0.5419 -0.1200 -0.6436
35074SOL     OW15535  11.342   7.948   7.625 -0.3273 -0.1369  0.1649
35074SOL    HW115536  11.281   7.906   7.686 -0.2481 -1.5359 -0.6628
35074SOL    HW215537  11.339   7.892   7.547  1.8862 -0.1524  0.0471
35075SOL     OW15538  12.462  10.458  10.147 -0.0068 -0.1102  0.1559
35075SOL    HW115539  12.408  10.502  10.213 -0.1286  1.1841 -0.7468
35075SOL    HW215540  12.400  10.436  10.077 -0.0380 -2.2642  0.8013
35076SOL     OW15541   2.625   5.074  11.958  0.3107  0.2990  0.0054
35076SOL    HW115542   2.661   5.157  11.927 -0.6587  0.1521 -1.6776
35076SOL    HW215543   2.675   5.007  11.911  0.2713 -0.0262  0.4223
35077SOL     OW15544   7.379   3.697   1.475  0.7132  0.0917 -0.7795
35077SOL    HW115545   7.361   3.607   1.502  0.2850 -0.0163 -1.3988
35077SOL    HW215546   7.463   3.693   1.430  0.8354  0.0569 -0.5514
35078SOL     OW15547  12.514   1.906   6.033  0.1303 -0.2121 -0.1720
35078SOL    HW115548  12.420   1.886   6.036  0.2213 -0.7574 -0.7673
35078SOL    HW215549  12.553   1.849   6.100  0.0846 -0.2627 -0.1888
35079SOL     OW15550   3.466  12.723  10.194  0.3545 -0.4723 -0.4681
35079SOL    HW115551   3.471  12.628  10.183 -0.5823 -0.6622  0.4960
35079SOL    HW215552   3.539  12.744  10.251  0.6354 -0.5960 -0.7791
35080SOL     OW15553   3.198  10.071   1.569 -0.5625  0.7103  0.4187
35080SOL    HW115554   3.271  10.130   1.592  1.1018 -0.0193 -2.4171
35080SOL    HW215555   3.229   9.984   1.594 -0.6486  0.4467 -0.3750
35081SOL     OW15556   8.437   8.531   8.521 -0.5756 -0.2540 -0.3178
35081SOL    HW115557   8.445   8.531   8.616 -0.2853 -1.5036 -0.3304
35081SOL    HW215558   8.375   8.602   8.502  0.7585  1.2421  0.6586
35082SOL     OW15559   3.939  12.969   4.609  0.3146  0.0294 -0.4064
35082SOL    HW115560   4.021  13.006   4.640  0.6940 -0.8002 -0.3782
35082SOL    HW215561   3.964  12.910   4.538 -0.4601  1.1991 -1.6956
35083SOL     OW15562   0.465   6.922  10.502  0.4693  0.0922  0.1294
35083SOL    HW115563   0.509   6.955  10.580 -1.4952 -0.6915  1.6452
35083SOL    HW215564   0.473   6.827  10.507  0.3305  0.0296 -0.6371
35084SOL     OW15565  10.953   0.050   5.846 -0.0214 -0.2042 -0.2960
35084SOL    HW115566  11.004  -0.027   5.823  0.1542  0.2097 -1.3774
35084SOL    HW215567  11.007   0.096   5.910  0.9402  0.1612 -1.3278
35085SOL     OW15568  12.053   3.846  12.675  0.2085  0.1348 -0.4387
35085SOL    HW115569  12.120   3.834  12.607  0.5037 -0.6955 -0.0165
35085SOL    HW215570  11.971   3.822  12.632  0.3077  0.2341 -0.6864
35086SOL     OW15571   8.916  11.914  12.057  0.2798 -0.1599 -0.1087
35086SOL    HW115572   8.834  11.949  12.022 -1.1758  0.4343  3.4439
35086SOL    HW215573   8.983  11.975  12.026 -0.5604 -0.4440 -2.7963
35087SOL     OW15574   6.707   8.687   4.425  0.0889 -0.6754 -0.1520
35087SOL    HW115575   6.678   8.739   4.351 -2.1004 -0.4149  0.8222
35087SOL    HW215576   6.683   8.597   4.403  0.5597 -0.7803 -0.2609
35088SOL     OW15577  10.480   2.227   9.549  0.1649  0.3495 -0.4939
35088SOL    HW115578  10.417   2.287   9.587  0.4413  0.6385 -0.4903
35088SOL    HW215579  10.444   2.204   9.463 -0.2671 -0.0019 -0.2237
35089SOL     OW15580  12.089   7.974   2.716 -0.1372  0.2938  0.5939
35089SOL    HW115581  12.015   8.035   2.710  2.3628  3.4835 -0.2493
35089SOL    HW215582  12.109   7.952   2.625  0.6473  0.3969  0.7337
35090SOL     OW15583  12.405   9.452  12.965  0.2614 -0.3567  0.2568
35090SOL    HW115584  12.313   9.478  12.964  0.1537 -0.1700  3.4492
35090SOL    HW215585  12.426   9.434  12.874 -2.4435  1.2569 -0.8191
35091SOL     OW15586   9.963   2.670  11.050 -0.1175 -0.0078 -0.1370
35091SOL    HW115587   9.960   2.609  11.124  1.0525  0.6413  0.4774
35091SOL    HW215588   9.881   2.720  11.057  1.6627  2.8821  3.2980
35092SOL     OW15589  12.814   0.108   0.188 -0.6506 -0.2267 -0.6668
35092SOL    HW115590  12.731   0.155   0.178 -1.8960 -2.2252 -0.3830
35092SOL    HW215591  12.871   0.146   0.121 -1.0947  2.5325  0.3780
35093SOL     OW15592   2.507  12.161   9.232 -0.3822  0.1339 -0.2655
35093SOL    HW115593   2.413  12.179   9.226  0.0769  2.4180 -2.1416
35093SOL    HW215594   2.529  12.178   9.323 -1.5654  0.9025 -0.1015
35094SOL     OW15595   1.071   2.261   4.003 -0.0754  0.4010 -0.3504
35094SOL    HW115596   0.987   2.297   4.032 -0.8983 -0.5337 -1.4629
35094SOL    HW215597   1.104   2.214   4.079 -1.1701 -0.2676 -0.2671
35095SOL     OW15598   7.853   4.507   4.047 -0.6341  0.2933 -0.5319
35095SOL    HW115599   7.906   4.532   3.971 -1.3408  0.6069 -0.9363
35095SOL    HW215600   7.897   4.548   4.121  0.7589 -1.0151 -0.5831
35096SOL     OW15601   9.724   5.337   1.049 -0.3686 -0.7822 -0.0855
35096SOL    HW115602   9.692   5.249   1.069 -0.3671 -0.8133 -0.2154
35096SOL    HW215603   9.733   5.380   1.134 -1.1926 -0.6227 -0.0739
35097SOL     OW15604   7.931  12.371   3.905 -0.5819  0.1760  0.3784
35097SOL    HW115605   7.858  12.316   3.932 -0.3643 -0.2830  0.0363
35097SOL    HW215606   7.891  12.456   3.884 -0.8422  0.3200  1.4181
35098SOL     OW15607   5.074   7.760   2.492 -0.3734 -0.2608 -0.8400
35098SOL    HW115608   5.034   7.674   2.488  0.5275 -0.7137 -0.5101
35098SOL    HW215609   5.011   7.819   2.451 -1.3324 -0.9480 -0.3787
35099SOL     OW15610  10.851   6.873   7.066  0.0500  0.1359  0.2483
35099SOL    HW115611  10.799   6.914   7.135 -0.5153 -0.4699  0.1810
35099SOL    HW215612  10.937   6.858   7.107  0.2548  1.2987  0.3010
35100SOL     OW15613   5.745   2.000  11.533 -0.4200  0.0056 -0.0048
35100SOL    HW115614   5.726   2.021  11.625 -0.7038  0.0855 -0.0802
35100SOL    HW215615   5.706   2.072  11.484  0.3729  0.3382 -0.1486
35101SOL     OW15616   5.894   3.658   4.231 -0.8166  0.3933  0.3744
35101SOL    HW115617   5.884   3.630   4.322  2.2680  1.9805  1.3502
35101SOL    HW215618   5.881   3.753   4.234  1.8389  0.8589 -0.2505
35102SOL     OW15619   1.133   3.143   4.865 -0.3516  0.0655  0.3118
35102SOL    HW115620   1.221   3.111   4.841 -1.0025 -0.6692 -1.2189
35102SOL    HW215621   1.134   3.235   4.841  0.0799  0.1245  0.5338
35103SOL     OW15622   8.064   9.240   4.493 -0.5068 -0.6439  0.0944
35103SOL    HW115623   8.022   9.218   4.576 -0.5418  0.4416  0.3772
35103SOL    HW215624   7.997   9.224   4.427 -0.8778 -0.3715  0.4000
35104SOL     OW15625   9.328   2.491   1.687  0.1905  0.1161  0.8781
35104SOL    HW115626   9.235   2.470   1.689  0.4538 -1.1617  2.8912
35104SOL    HW215627   9.332   2.586   1.693 -0.9666  0.2209  0.2859
35105SOL     OW15628  11.355   1.070  12.177 -0.5308  0.3771  0.7688
35105SOL    HW115629  11.356   0.977  12.198 -0.5104  0.3297  0.5606
35105SOL    HW215630  11.298   1.077  12.101  2.4351 -0.0045 -1.6777
35106SOL     OW15631   5.246  11.728   2.460  0.1599 -0.5750  0.1765
35106SOL    HW115632   5.202  11.800   2.504  2.0725 -0.0607  1.3820
35106SOL    HW215633   5.245  11.656   2.523 -0.4342 -1.1298 -0.4499
35107SOL     OW15634   4.068   8.401   1.094 -0.0049  0.0602 -0.0994
35107SOL    HW115635   4.016   8.324   1.076  1.1280 -1.1501  1.5073
35107SOL    HW215636   4.156   8.367   1.113  1.3006  1.9723 -2.2205
35108SOL     OW15637   6.857  12.205   3.824 -0.4484 -0.2342 -0.1834
35108SOL    HW115638   6.951  12.197   3.840 -0.7155 -2.1620  0.7324
35108SOL    HW215639   6.827  12.268   3.890 -0.0746 -1.0686  0.8149
35109SOL     OW15640   3.326   8.412  12.278 -0.2690  0.0087  0.0591
35109SOL    HW115641   3.401   8.449  12.324  1.2142 -1.1120 -1.3465
35109SOL    HW215642   3.308   8.329  12.324 -0.1456 -0.1013 -0.0913
35110SOL     OW15643   0.491   0.833   7.130 -0.0401 -0.2942  0.1135
35110SOL    HW115644   0.468   0.893   7.060  0.5934  1.3058  1.2235
35110SOL    HW215645   0.542   0.885   7.191  1.1093 -2.1439  0.8188
35111SOL     OW15646   0.387   7.164   8.342  0.0066  0.3903  0.2895
35111SOL    HW115647   0.460   7.119   8.301  0.5429  0.5678  1.0302
35111SOL    HW215648   0.409   7.256   8.337 -0.9136  0.5779 -0.8829
35112SOL     OW15649   1.611   6.231   0.668 -0.0421  0.1640  0.4773
35112SOL    HW115650   1.681   6.297   0.672  0.7702 -0.6172 -0.4160
35112SOL    HW215651   1.609   6.204   0.576 -0.3659 -1.0661  0.8312
35113SOL     OW15652   8.106  10.841  10.582 -0.1895  0.0417  0.2304
35113SOL    HW115653   8.102  10.931  10.551  1.2628  0.1130  0.1658
35113SOL    HW215654   8.090  10.788  10.504 -0.8623  0.2447  0.2314
35114SOL     OW15655  10.090   3.160  11.193 -0.5908  0.3055  0.6574
35114SOL    HW115656   9.995   3.169  11.181 -0.2215  1.1338 -2.7835
35114SOL    HW215657  10.105   3.066  11.195 -1.4141  0.1455  0.1160
35115SOL     OW15658  10.707   4.353   1.107  0.1834 -0.3158  0.2008
35115SOL    HW115659  10.749   4.281   1.060 -0.7353 -1.3338  0.8796
35115SOL    HW215660  10.703   4.424   1.043  1.6049 -0.6667 -0.3169
35116SOL     OW15661   6.160   0.709   2.820 -0.3872  0.3435 -0.1334
35116SOL    HW115662   6.185   0.730   2.730 -0.7688  1.4971  0.0024
35116SOL    HW215663   6.066   0.692   2.815 -0.5081  0.9123  0.1178
35117SOL     OW15664   7.971   4.372   7.042 -0.0178  0.2040 -0.0536
35117SOL    HW115665   7.910   4.329   6.981 -0.8179  0.0769  0.8130
35117SOL    HW215666   7.962   4.465   7.023  0.5650  0.0974 -0.8830
35118SOL     OW15667   1.383   4.036  10.531 -0.0665  0.1266 -0.7944
35118SOL    HW115668   1.407   4.129  10.526  1.8010 -0.1775  0.9020
35118SOL    HW215669   1.375   4.009  10.440  0.7416  1.6441 -1.3685
35119SOL     OW15670   3.255   3.214  11.720 -0.3639  0.0016 -0.4445
35119SOL    HW115671   3.229   3.148  11.656 -0.0599  1.4835 -2.1850
35119SOL    HW215672   3.182   3.217  11.782 -0.3926 -1.9129 -0.3422
35120SOL     OW15673  10.901  12.920   1.997  0.0425  0.4178  0.3521
35120SOL    HW115674  10.821  12.867   2.002  1.0830 -1.2446  0.2083
35120SOL    HW215675  10.931  12.928   2.087  0.4087 -0.0734  0.2736
35121SOL     OW15676  12.023   8.065   5.368 -0.5114  0.4164  0.2735
35121SOL    HW115677  12.064   8.019   5.441 -1.1276  2.0885  1.7515
35121SOL    HW215678  12.088   8.060   5.298 -0.4874 -2.4794  0.3792
35122SOL     OW15679   8.427   0.008   9.288 -0.0843 -0.8443  0.1843
35122SOL    HW115680   8.502  -0.051   9.297  2.3621  1.6798 -1.9601
35122SOL    HW215681   8.438   0.072   9.358 -0.9804 -1.1161  0.5959
35123SOL     OW15682   9.130  11.498  12.872  0.3954 -0.4227  0.0768
35123SOL    HW115683   9.156  11.558  12.801  0.0629 -1.3488 -0.8532
35123SOL    HW215684   9.155  11.412  12.840 -0.6480 -0.9587  0.6797
35124SOL     OW15685   5.772  12.822   2.795 -0.1347  0.1376 -0.6478
35124SOL    HW115686   5.791  12.884   2.725 -0.3499  0.0080 -0.8239
35124SOL    HW215687   5.850  12.767   2.800  0.0841  0.4649 -0.4424
35125SOL     OW15688   8.898   3.793   2.523 -0.6389 -0.2015  0.1546
35125SOL    HW115689   8.900   3.788   2.619  0.0182 -1.3772  0.0973
35125SOL    HW215690   8.840   3.867   2.504 -1.5255 -0.5370  1.4387
35126SOL     OW15691   7.961   2.655   2.142 -0.0745 -0.2003 -0.1625
35126SOL    HW115692   7.998   2.618   2.222 -0.8835  0.2453  0.4443
35126SOL    HW215693   7.949   2.580   2.084  1.2244 -0.4263 -0.1736
35127SOL     OW15694   2.318   3.378   2.446 -0.3633 -0.4897 -0.2771
35127SOL    HW115695   2.299   3.363   2.538 -0.6466 -1.2495 -0.4560
35127SOL    HW215696   2.350   3.468   2.443 -0.6689 -0.3450  0.5151
35128SOL     OW15697   9.836  11.679   6.334 -0.3474  0.0246  0.3781
35128SOL    HW115698   9.742  11.676   6.321 -0.4491  1.5219  0.5880
35128SOL    HW215699   9.867  11.591   6.312 -1.2134  0.6051 -4.1732
35129SOL     OW15700   7.293  12.695   3.842 -0.2509 -0.0452  0.3021
35129SOL    HW115701   7.263  12.746   3.766  0.9919 -0.2499 -0.3477
35129SOL    HW215702   7.223  12.631   3.856 -0.9341  0.5915 -0.0726
35130SOL     OW15703   0.038   0.998   4.337  0.3312 -0.2149 -0.4973
35130SOL    HW115704   0.042   1.007   4.432  1.2857  0.7861 -0.6006
35130SOL    HW215705   0.046   0.904   4.321 -0.5590 -0.4610  0.4334
35131SOL     OW15706   3.377   1.229   2.080  0.1466  0.0428 -0.1269
35131SOL    HW115707   3.437   1.165   2.118 -2.1282 -1.6968  0.7524
35131SOL    HW215708   3.434   1.300   2.050  2.8556 -2.4681 -1.4493
35132SOL     OW15709   0.787   3.891   8.725 -0.0737  0.3215 -0.2271
35132SOL    HW115710   0.709   3.926   8.680 -0.6763 -0.1489  0.4276
35132SOL    HW215711   0.802   3.953   8.797  1.2592  1.4210 -1.3900
35133SOL     OW15712   1.929  11.261   0.748 -0.0394 -0.1409 -0.1483
35133SOL    HW115713   1.991  11.238   0.679 -1.2247  1.1206 -1.7053
35133SOL    HW215714   1.926  11.356   0.748 -0.6065 -0.1296  1.1858
35134SOL     OW15715   2.078   1.428  11.261 -0.3456  0.0441  0.0252
35134SOL    HW115716   2.094   1.511  11.216  0.4539  0.2649  0.6862
35134SOL    HW215717   2.145   1.424  11.329 -1.3939 -0.3866  1.0707
35135SOL     OW15718   4.302   6.317  12.151  0.2463  0.1485 -0.7861
35135SOL    HW115719   4.324   6.224  12.149 -1.2423 -0.2129 -1.1296
35135SOL    HW215720   4.266   6.332  12.238  1.7395  0.7261 -0.2406
35136SOL     OW15721   2.537   1.099  12.597 -0.0961 -0.1349  0.8968
35136SOL    HW115722   2.526   1.064  12.509  2.1113 -0.0582  0.5199
35136SOL    HW215723   2.548   1.193  12.584  4.8013 -0.5011  0.5731
35137SOL     OW15724  11.365   1.679   2.639 -0.8875  0.9545  0.6846
35137SOL    HW115725  11.300   1.620   2.601 -0.6315  0.0325  1.6532
35137SOL    HW215726  11.377   1.747   2.572  0.3373 -1.1297 -1.3833
35138SOL     OW15727   5.290   0.046   2.566 -0.1521  0.1759  0.4773
35138SOL    HW115728   5.259   0.135   2.549  0.4659  0.2380 -0.3844
35138SOL    HW215729   5.281   0.035   2.661  2.2151  2.1047  1.0207
35139SOL     OW15730   3.322   9.200   9.829  0.0175  0.1328 -0.1119
35139SOL    HW115731   3.294   9.109   9.821  0.2803 -0.1736  1.8771
35139SOL    HW215732   3.410   9.195   9.868 -1.6138  1.1574  4.3597
35140SOL     OW15733   1.971   3.094   0.411  0.0173  0.1799  0.3745
35140SOL    HW115734   2.056   3.094   0.456  0.5073  0.0374 -0.5195
35140SOL    HW215735   1.908   3.071   0.480  0.8564 -1.0025  0.8027
35141SOL     OW15736   1.277   0.978   6.273  0.2434 -0.2414 -0.8928
35141SOL    HW115737   1.278   1.058   6.325  0.0167 -1.1844  0.6254
35141SOL    HW215738   1.218   0.998   6.200 -1.0859  0.4854  0.3189
35142SOL     OW15739  10.088  12.078   6.061 -0.3875  0.1978  0.3955
35142SOL    HW115740  10.143  12.112   6.131  1.1658 -1.6687  0.1750
35142SOL    HW215741  10.008  12.050   6.106 -1.0825  2.5602  0.7777
35143SOL     OW15742   3.846   7.264  10.580  0.3084 -0.8152 -0.2521
35143SOL    HW115743   3.757   7.240  10.556 -0.4770  0.3587  1.2851
35143SOL    HW215744   3.866   7.341  10.528 -0.3502  0.0896  0.7929
35144SOL     OW15745   1.990   2.533   4.989 -0.3185 -0.1255  0.0115
35144SOL    HW115746   1.997   2.609   5.046 -0.7681  0.7371 -1.0564
35144SOL    HW215747   2.075   2.490   4.994  0.7396  1.7266 -1.1152
35145SOL     OW15748   8.286   0.047   0.425  0.0744 -0.2949 -0.0170
35145SOL    HW115749   8.381   0.051   0.414 -0.0629 -0.5381 -1.6648
35145SOL    HW215750   8.260   0.137   0.445  0.5722 -0.0106 -0.6039
35146SOL     OW15751   3.268  11.611  12.035 -0.5065  0.3963  0.1274
35146SOL    HW115752   3.231  11.673  11.973  0.7611  0.7758 -0.2678
35146SOL    HW215753   3.267  11.657  12.119 -0.7764  0.4495  0.0978
35147SOL     OW15754  12.425   1.685   6.562 -0.0670  0.3946  0.0658
35147SOL    HW115755  12.509   1.639   6.566 -0.3101 -0.1871 -0.9487
35147SOL    HW215756  12.363   1.619   6.529 -0.9816  0.7385  1.0339
35148SOL     OW15757   5.766   1.699   1.054 -0.0902  0.5103 -0.1307
35148SOL    HW115758   5.814   1.616   1.056 -0.1015  0.5109  0.2464
35148SOL    HW215759   5.834   1.766   1.044 -0.0711  0.4619 -0.3182
35149SOL     OW15760   2.853   2.436   3.959  0.3388 -0.5503 -0.1440
35149SOL    HW115761   2.883   2.349   3.932  1.9902 -0.0069 -0.1639
35149SOL    HW215762   2.764   2.442   3.924 -0.0353 -2.4303  0.3452
35150SOL     OW15763  10.789   9.828   1.802 -0.2444  0.0172 -0.4306
35150SOL    HW115764  10.880   9.829   1.834 -0.8757 -1.6116  1.6773
35150SOL    HW215765  10.762   9.737   1.812 -3.0004  0.9389  1.8538
35151SOL     OW15766  11.707  10.116   5.244  0.1911  0.1597  0.3457
35151SOL    HW115767  11.637  10.173   5.215 -0.1327 -0.2651  0.2902
35151SOL    HW215768  11.668  10.062   5.314  0.0441 -1.0670 -0.6495
35152SOL     OW15769   8.434   5.131   1.191 -0.5422 -0.5335  0.7197
35152SOL    HW115770   8.358   5.176   1.154 -0.5198 -1.6843 -0.8440
35152SOL    HW215771   8.448   5.057   1.132  2.3185  0.1269  0.4392
35153SOL     OW15772   5.803   6.414   6.400  1.0709 -0.7556  0.1697
35153SOL    HW115773   5.804   6.326   6.363  1.6097 -0.2832 -0.9843
35153SOL    HW215774   5.799   6.472   6.323 -0.3033  0.2058  0.9343
35154SOL     OW15775   7.343   8.094   6.245 -0.5908 -0.5103  0.2448
35154SOL    HW115776   7.385   8.018   6.285 -0.1141  0.4199  1.5859
35154SOL    HW215777   7.251   8.087   6.271 -0.5090 -0.5384  0.5355
35155SOL     OW15778   6.905   3.243   1.783  0.3685 -0.3043  1.0290
35155SOL    HW115779   6.989   3.214   1.818  0.2549  0.5737  2.1040
35155SOL    HW215780   6.840   3.192   1.831  0.2644 -0.4316  0.7534
35156SOL     OW15781   6.102   9.671   4.744  0.1011 -0.5123  0.0462
35156SOL    HW115782   6.113   9.712   4.829 -1.2895  0.3473 -0.1598
35156SOL    HW215783   6.191   9.668   4.707  0.3272  1.9285  0.2438
35157SOL     OW15784   2.696   1.656   8.996 -0.7041 -0.1640 -0.3995
35157SOL    HW115785   2.770   1.697   8.952  0.7507 -2.1369  0.0406
35157SOL    HW215786   2.721   1.657   9.089 -0.6216 -1.9067 -0.3700
35158SOL     OW15787   8.260   3.512   6.208 -0.1782  0.0275 -0.8039
35158SOL    HW115788   8.309   3.593   6.192 -0.9821  0.3792 -1.5707
35158SOL    HW215789   8.328   3.445   6.222  0.4981  0.8218 -0.1552
35159SOL     OW15790   7.245   4.245   6.347 -0.1823 -0.0238  0.7528
35159SOL    HW115791   7.287   4.212   6.427  0.8548 -0.0283  0.2095
35159SOL    HW215792   7.190   4.318   6.378  0.1786 -0.0487  1.4798
35160SOL     OW15793   8.043   7.384   2.034 -0.1877  0.5103 -0.4299
35160SOL    HW115794   8.106   7.452   2.057 -0.5185  1.1088 -1.2462
35160SOL    HW215795   8.079   7.304   2.072 -0.1083  1.2359  1.1234
35161SOL     OW15796   3.265  10.518   4.070  0.1376  0.1595 -0.2998
35161SOL    HW115797   3.190  10.463   4.047 -1.5353  1.4209  1.8564
35161SOL    HW215798   3.287  10.564   3.988 -0.6634 -1.0814 -1.2481
35162SOL     OW15799   9.340   0.212  10.567  0.2477 -0.4497 -0.5913
35162SOL    HW115800   9.344   0.299  10.526 -0.9411  0.7571  1.6343
35162SOL    HW215801   9.404   0.216  10.638 -0.0893 -1.2407 -0.2366
35163SOL     OW15802   5.763   6.987   6.925  0.3246  0.2487  0.1877
35163SOL    HW115803   5.713   7.048   6.979  0.3695 -0.3699  0.9616
35163SOL    HW215804   5.843   7.035   6.903  0.7822  0.1675  1.5660
35164SOL     OW15805   3.219  11.410   7.570 -0.2197 -0.6614  0.0149
35164SOL    HW115806   3.308  11.416   7.535 -0.0430 -1.1007  0.3844
35164SOL    HW215807   3.181  11.497   7.554  0.1432 -0.5953 -0.4911
35165SOL     OW15808  12.219   2.608  12.055  0.7629  0.1710  0.3999
35165SOL    HW115809  12.194   2.647  12.139  0.6157 -0.5564  0.6998
35165SOL    HW215810  12.315   2.612  12.054  0.7313  1.5089 -0.0539
35166SOL     OW15811   5.506   8.407   1.816 -0.3489 -0.4235  0.5568
35166SOL    HW115812   5.592   8.400   1.858  0.2147 -0.9244 -0.6296
35166SOL    HW215813   5.444   8.380   1.884  0.0300  3.1776  2.5953
35167SOL     OW15814   7.443   5.713   4.491  0.3555 -0.9291  0.1738
35167SOL    HW115815   7.487   5.794   4.465  1.6334 -1.7269 -0.2998
35167SOL    HW215816   7.393   5.736   4.569 -0.0585  0.5235 -0.4957
35168SOL     OW15817   6.345   8.596  12.193 -0.3839  0.9005 -0.1286
35168SOL    HW115818   6.268   8.650  12.177 -1.0212  0.1788  0.4583
35168SOL    HW215819   6.351   8.589  12.288 -0.0820  0.2591 -0.1893
35169SOL     OW15820  11.372   4.102   2.522  0.0200  0.4915  0.1391
35169SOL    HW115821  11.356   4.129   2.612 -1.5833 -1.2661  0.4481
35169SOL    HW215822  11.286   4.106   2.480  0.8686  2.0228 -1.5644
35170SOL     OW15823   8.515   1.036   9.781  0.4473  0.3246 -0.5184
35170SOL    HW115824   8.478   0.963   9.730  0.9989  1.0370 -2.0125
35170SOL    HW215825   8.488   1.018   9.871  2.0821 -2.7232 -0.4963
35171SOL     OW15826  10.565   3.426   4.670  0.6633  0.1447  0.5520
35171SOL    HW115827  10.510   3.414   4.593  1.6086 -0.4265 -0.0531
35171SOL    HW215828  10.503   3.447   4.741 -0.1968  0.8414 -0.3813
35172SOL     OW15829   0.979  12.090  12.772  0.5376 -0.3090 -0.3213
35172SOL    HW115830   1.039  12.128  12.707  0.0079 -0.3411 -0.8368
35172SOL    HW215831   0.920  12.034  12.721  0.2610 -0.5182  0.2190
35173SOL     OW15832   4.709   9.755  11.273 -0.2809 -0.0153  0.0211
35173SOL    HW115833   4.681   9.776  11.184 -2.1488 -0.7964  0.3833
35173SOL    HW215834   4.631   9.719  11.315  0.2505  1.3552  2.3430
35174SOL     OW15835   2.564   4.955   7.388  0.0432 -0.2188 -0.0629
35174SOL    HW115836   2.496   5.003   7.341  1.9818  1.3243 -1.4565
35174SOL    HW215837   2.556   4.865   7.357 -1.0249  0.0489 -0.5888
35175SOL     OW15838  12.874   2.816   0.599 -0.6006 -0.3688 -0.4418
35175SOL    HW115839  12.803   2.796   0.537  0.2163  0.2221 -1.5939
35175SOL    HW215840  12.853   2.904   0.631 -1.2968 -0.8709  0.5425
35176SOL     OW15841   4.798   2.730   7.063 -0.1753  0.8573 -0.0255
35176SOL    HW115842   4.809   2.823   7.083 -0.9516  1.2022 -1.0970
35176SOL    HW215843   4.760   2.692   7.143  2.1877  0.9629  1.2543
35177SOL     OW15844   3.725  12.276   2.758 -0.1151 -0.3199  0.9202
35177SOL    HW115845   3.813  12.261   2.725 -1.0053 -1.0558 -1.3385
35177SOL    HW215846   3.729  12.363   2.799  1.3627  0.2059 -0.2432
35178SOL     OW15847  12.984   4.473   2.867  0.5039  0.0391  0.1561
35178SOL    HW115848  13.062   4.529   2.862  0.6261 -0.0789  0.7148
35178SOL    HW215849  12.954   4.482   2.957  0.5518 -0.8327  0.2634
35179SOL     OW15850   5.055   1.311   5.577  0.0817  0.4569 -0.4284
35179SOL    HW115851   5.010   1.228   5.559 -0.5165  0.3799  1.2307
35179SOL    HW215852   5.047   1.361   5.496  0.0894 -0.9245 -1.3247
35180SOL     OW15853  11.644   9.196   4.576  0.2266  0.6241 -0.4284
35180SOL    HW115854  11.602   9.196   4.662 -0.8695  0.5247 -0.9471
35180SOL    HW215855  11.587   9.143   4.521  1.9974 -1.1101 -0.7202
35181SOL     OW15856   3.163   7.846   0.120  0.5616 -0.4912 -0.5336
35181SOL    HW115857   3.234   7.785   0.143 -0.1958 -1.0991  0.2616
35181SOL    HW215858   3.155   7.903   0.197  0.2691 -0.3459 -0.6707
35182SOL     OW15859  11.174   9.354   5.369 -0.1637 -0.5657 -0.3045
35182SOL    HW115860  11.155   9.388   5.456 -0.2178 -0.2570 -0.4374
35182SOL    HW215861  11.089   9.354   5.324 -0.2332 -1.2172 -0.1879
35183SOL     OW15862   5.024   0.654   5.327 -0.3213  0.4377  0.0342
35183SOL    HW115863   4.995   0.566   5.301 -3.0577  1.0665  0.5609
35183SOL    HW215864   5.114   0.642   5.358 -1.1207 -2.5170  1.6675
35184SOL     OW15865   6.068  10.166   4.378  0.0195 -0.4292  0.1100
35184SOL    HW115866   6.138  10.221   4.413 -0.9745 -0.5269  2.4465
35184SOL    HW215867   6.028  10.219   4.309  0.8654  0.6032  0.3842
35185SOL     OW15868   9.179   9.903   7.884  0.1910 -0.5555  0.0114
35185SOL    HW115869   9.121   9.954   7.828  1.3312  0.7613 -0.0027
35185SOL    HW215870   9.219   9.839   7.825 -0.2966 -0.6551 -0.2177
35186SOL     OW15871   0.183   1.347   2.297 -0.5288  0.2201  0.0563
35186SOL    HW115872   0.156   1.353   2.388  0.0297 -1.2758  0.3508
35186SOL    HW215873   0.190   1.438   2.267  0.5392  0.7737  1.8768
35187SOL     OW15874   5.255   4.945   4.824 -0.0395  0.3597  0.0264
35187SOL    HW115875   5.288   4.871   4.875 -0.5367 -0.0174 -0.1915
35187SOL    HW215876   5.285   5.022   4.871  1.6328  0.0408 -0.4635
35188SOL     OW15877   9.278   2.763   0.272 -0.3929 -0.0083 -0.3994
35188SOL    HW115878   9.338   2.690   0.288 -0.5199 -0.0312 -0.0077
35188SOL    HW215879   9.304   2.798   0.187  0.9169  0.6914  0.2525
35189SOL     OW15880   8.360  10.754   3.932  0.3222 -0.2555  0.4959
35189SOL    HW115881   8.414  10.682   3.900  1.2899  0.0007  1.4965
35189SOL    HW215882   8.419  10.808   3.983 -0.0063  2.1267 -1.4502
35190SOL     OW15883   4.705   9.730  12.086  0.0035  0.0556  0.3173
35190SOL    HW115884   4.618   9.689  12.090 -0.5706  0.6987 -2.8115
35190SOL    HW215885   4.764   9.665  12.125 -1.6797 -0.9120  1.4171
35191SOL     OW15886   7.745   9.531  12.492 -0.6038  0.6017 -0.4332
35191SOL    HW115887   7.686   9.605  12.503  0.6078  1.5294  0.0271
35191SOL    HW215888   7.715   9.466  12.555 -0.2193  1.6656  0.8701
35192SOL     OW15889   1.135   3.926  11.449 -0.4189  0.0233 -0.1711
35192SOL    HW115890   1.183   3.895  11.372  0.4216  0.1365  0.2895
35192SOL    HW215891   1.158   4.019  11.456  0.5077 -0.2536  0.8982
35193SOL     OW15892   7.616   7.469  10.296 -0.2274 -0.4487  0.2908
35193SOL    HW115893   7.646   7.484  10.207  0.3869 -0.6035  0.4705
35193SOL    HW215894   7.561   7.545  10.316  0.0227 -0.1787 -0.0443
35194SOL     OW15895  12.574  11.872   6.579  0.0178 -0.7033  0.6397
35194SOL    HW115896  12.610  11.793   6.539 -1.1287 -1.4135  0.9911
35194SOL    HW215897  12.494  11.890   6.529  0.5957  0.6392  0.1206
35195SOL     OW15898   4.298   7.219   5.468 -0.6115 -0.3382 -0.3922
35195SOL    HW115899   4.339   7.295   5.427 -0.9178  0.4748  0.7630
35195SOL    HW215900   4.204   7.232   5.456 -0.6374 -1.0333 -1.0236
35196SOL     OW15901   2.633  11.613   5.946  0.3804  0.5132 -0.1365
35196SOL    HW115902   2.676  11.528   5.935  1.2906  0.9562 -0.1123
35196SOL    HW215903   2.705  11.676   5.945 -0.4225  1.4988 -2.3464
35197SOL     OW15904   9.257  12.270   6.965  0.1993 -0.1884 -0.1547
35197SOL    HW115905   9.186  12.220   6.926  0.0792  0.3790 -0.6826
35197SOL    HW215906   9.226  12.361   6.965  0.5266 -0.0692  0.5252
35198SOL     OW15907  10.279   7.367   9.002  0.3607  0.3814 -0.0523
35198SOL    HW115908  10.298   7.450   9.046  1.6485 -0.1734  0.4848
35198SOL    HW215909  10.295   7.301   9.070  1.3667 -0.4314 -1.0589
35199SOL     OW15910   7.947   9.551  10.067  0.3269  0.6220 -0.2088
35199SOL    HW115911   7.941   9.501  10.149 -0.5792  1.3671  0.1988
35199SOL    HW215912   7.881   9.512  10.010 -2.5856  3.1489  1.1529
35200SOL     OW15913   1.899  10.802   4.758 -0.1580  0.2912  0.1600
35200SOL    HW115914   1.927  10.851   4.681 -0.2820  2.0224  1.1550
35200SOL    HW215915   1.969  10.814   4.822 -0.9893  0.6919  1.0351
35201SOL     OW15916  10.595   1.849   2.342 -0.7081 -0.5412 -0.1870
35201SOL    HW115917  10.664   1.843   2.275  0.2856 -2.3971  0.9384
35201SOL    HW215918  10.513   1.839   2.293 -0.0897 -0.2574 -1.3137
35202SOL     OW15919   1.680   7.731  12.314  0.2109  0.0809  0.3677
35202SOL    HW115920   1.606   7.789  12.334  0.8230  1.5008 -1.2119
35202SOL    HW215921   1.726   7.775  12.243  1.5779 -1.6554  0.1089
35203SOL     OW15922   3.394  11.195   2.135 -0.3243 -0.2414 -0.6221
35203SOL    HW115923   3.398  11.281   2.094 -0.9313  0.3494  0.5202
35203SOL    HW215924   3.344  11.209   2.215 -0.4142 -1.6563 -0.4077
35204SOL     OW15925   6.114  12.967   3.516  0.0061 -0.4444  0.0881
35204SOL    HW115926   6.025  12.932   3.519  0.2119 -0.9596  0.1806
35204SOL    HW215927   6.168  12.899   3.556  0.6213 -0.6786 -1.0975
35205SOL     OW15928   7.604  10.959   9.330 -0.1057  0.0905  0.3768
35205SOL    HW115929   7.590  10.922   9.418 -0.9878  0.6503  0.4817
35205SOL    HW215930   7.699  10.967   9.322 -0.0145 -0.0601  1.2372
35206SOL     OW15931   5.390   1.972   1.248 -0.3065  0.3621 -0.2920
35206SOL    HW115932   5.377   1.995   1.340 -2.7962  1.7596 -0.8894
35206SOL    HW215933   5.462   1.909   1.248 -0.2968  0.2639  2.6043
35207SOL     OW15934   8.005   9.754   4.418  0.7507 -0.3689  0.2139
35207SOL    HW115935   7.952   9.818   4.371 -1.1807 -1.4945  0.7197
35207SOL    HW215936   8.057   9.710   4.350 -1.1881 -1.2419 -0.7747
35208SOL     OW15937   0.711   0.949   2.493 -0.4858 -0.5966  0.2399
35208SOL    HW115938   0.794   0.996   2.490 -1.3609  1.1646  1.6573
35208SOL    HW215939   0.699   0.926   2.585 -0.3326 -3.2990 -0.3202
35209SOL     OW15940  11.075  10.153   3.146  0.2626 -0.2035 -0.6296
35209SOL    HW115941  11.127  10.128   3.069  0.9136  0.4203 -0.3944
35209SOL    HW215942  11.110  10.237   3.173  1.1355 -1.1593  1.3502
35210SOL     OW15943  12.587   8.599   4.073 -0.4102  0.2235  0.1371
35210SOL    HW115944  12.547   8.685   4.062 -2.0567 -0.5006  0.1079
35210SOL    HW215945  12.639   8.607   4.153 -1.8208  0.8333  1.0496
35211SOL     OW15946   3.935   4.364   2.297 -0.0304 -0.1854 -0.0889
35211SOL    HW115947   3.920   4.416   2.375  0.2470 -0.0293 -0.1399
35211SOL    HW215948   3.868   4.295   2.301 -1.0160  0.7131 -0.5046
35212SOL     OW15949   5.479   1.322   3.552  0.7357 -0.2249 -0.1176
35212SOL    HW115950   5.540   1.271   3.498 -1.1269 -1.6728 -0.9960
35212SOL    HW215951   5.402   1.333   3.497  0.0954  1.3450  1.0278
35213SOL     OW15952   2.967   2.409   5.271  0.1321  0.4045  0.0451
35213SOL    HW115953   3.000   2.365   5.349 -0.7472  0.4764  0.4713
35213SOL    HW215954   2.873   2.392   5.272  0.0841  0.5549 -0.9080
35214SOL     OW15955   4.181  11.668   1.421  0.0739 -0.1270  0.3057
35214SOL    HW115956   4.135  11.751   1.428  0.2471 -0.1643  3.0834
35214SOL    HW215957   4.140  11.612   1.487  2.1368 -1.0916  0.8782
35215SOL     OW15958   9.437   7.245   3.724  0.0970  0.4009  0.0202
35215SOL    HW115959   9.450   7.194   3.804  0.6793  0.3416 -0.1101
35215SOL    HW215960   9.410   7.332   3.756 -0.5395  0.1196  0.2521
35216SOL     OW15961   3.766  11.021   5.362  0.9853  0.3083  0.5047
35216SOL    HW115962   3.823  10.949   5.387  1.1274  0.4078  0.4701
35216SOL    HW215963   3.781  11.088   5.428 -0.0868 -0.1714  1.2587
35217SOL     OW15964   9.747   9.151   9.905 -0.0258  0.7763 -0.2332
35217SOL    HW115965   9.821   9.180   9.958 -1.0780 -0.5194  2.0717
35217SOL    HW215966   9.673   9.204   9.934 -0.8017 -0.5078  0.2239
35218SOL     OW15967  11.687  11.013  11.413 -0.5110  0.4996  0.5431
35218SOL    HW115968  11.592  10.998  11.413 -0.7474  1.4018 -2.0975
35218SOL    HW215969  11.721  10.953  11.479 -2.5653 -2.6025 -0.9426
35219SOL     OW15970   5.695   2.820  12.620 -0.8269 -0.4354 -0.4778
35219SOL    HW115971   5.779   2.846  12.659 -0.6818 -2.4414  0.7077
35219SOL    HW215972   5.629   2.853  12.681 -0.7725 -0.8075 -0.2172
35220SOL     OW15973   0.720   7.353   6.522 -0.3779  0.5112 -0.7509
35220SOL    HW115974   0.799   7.304   6.498 -0.1568  1.1035 -1.2604
35220SOL    HW215975   0.679   7.300   6.590  0.6742  0.3984 -0.1806
35221SOL     OW15976  10.537   8.578   6.503  0.5839  0.0044 -0.8435
35221SOL    HW115977  10.611   8.640   6.501  0.9011 -0.3188  0.2889
35221SOL    HW215978  10.556   8.521   6.577 -0.8263 -0.0679 -0.5160
35222SOL     OW15979   0.110  11.321   9.368  0.4267 -0.3043  0.1999
35222SOL    HW115980   0.134  11.254   9.304  0.4334  0.0324 -0.1505
35222SOL    HW215981   0.103  11.273   9.451  0.2216 -0.7744 -0.0859
35223SOL     OW15982   3.459   1.392  12.794 -0.2716  0.4530  0.2746
35223SOL    HW115983   3.455   1.474  12.843 -1.5238  0.8484 -0.4646
35223SOL    HW215984   3.479   1.419  12.704  1.7115 -0.2433  0.4389
35224SOL     OW15985   0.067   5.713  11.562  0.2583 -0.0379  0.1687
35224SOL    HW115986   0.013   5.685  11.488 -0.4736 -1.7092  1.2988
35224SOL    HW215987   0.088   5.805  11.542 -0.2449 -0.3223 -1.9002
35225SOL     OW15988   6.474   6.916   9.882 -0.7548 -0.4717 -0.3337
35225SOL    HW115989   6.476   6.992   9.824 -0.7324 -0.5804 -0.4750
35225SOL    HW215990   6.384   6.915   9.916 -0.9194 -0.7142 -0.7727
35226SOL     OW15991   1.668   8.982  12.820 -0.9353 -0.1235  0.6690
35226SOL    HW115992   1.646   8.896  12.784  1.2870 -0.7114  0.5794
35226SOL    HW215993   1.764   8.983  12.823 -0.9181  2.2693  0.8970
35227SOL     OW15994   1.169   9.122   1.550 -0.1336  0.6297  0.0607
35227SOL    HW115995   1.194   9.037   1.513  0.6732  0.7440  0.3174
35227SOL    HW215996   1.107   9.101   1.619  1.2473  0.0988  1.1935
35228SOL     OW15997   7.917   2.820   7.357  0.2371  0.8560  0.3711
35228SOL    HW115998   7.937   2.912   7.374  4.4114  0.1520  0.2068
35228SOL    HW215999   7.919   2.812   7.262  1.7817  0.3103  0.4261
35229SOL     OW16000   2.205   3.801   7.352  0.0986  0.3929 -0.4345
35229SOL    HW116001   2.276   3.809   7.415  0.1004 -0.3345 -0.3346
35229SOL    HW216002   2.163   3.717   7.373 -0.8107  0.8292 -0.4631
35230SOL     OW16003  10.180  11.708   0.486 -0.2260  0.2560 -0.5575
35230SOL    HW116004  10.127  11.763   0.428  0.1532 -0.5611 -1.7171
35230SOL    HW216005  10.267  11.707   0.446 -0.0289 -0.5489 -0.1371
35231SOL     OW16006   1.155   0.080   4.349 -0.0660  0.4396  0.5466
35231SOL    HW116007   1.095   0.141   4.392  0.2896 -0.5500  2.5425
35231SOL    HW216008   1.195   0.131   4.279 -0.9229  2.0239  1.1667
35232SOL     OW16009  11.353  11.318  11.792  0.1601  0.0276 -0.1950
35232SOL    HW116010  11.317  11.230  11.780 -0.2271 -0.0280  1.1963
35232SOL    HW216011  11.305  11.372  11.730 -2.0287 -0.1443  1.2520
35233SOL     OW16012   2.199   6.014   8.024 -0.4131  0.6415  0.0466
35233SOL    HW116013   2.193   6.064   8.106 -1.2882  0.8998 -0.1619
35233SOL    HW216014   2.277   5.960   8.035  0.1935  1.5730  0.5492
35234SOL     OW16015  10.053   6.320   7.277  0.0344 -0.1272  0.2119
35234SOL    HW116016  10.042   6.261   7.203 -1.5878  0.1143  0.2391
35234SOL    HW216017  10.047   6.408   7.240  1.2775  0.0335  0.3452
35235SOL     OW16018   3.012   8.172  11.580  0.3601 -0.1605 -0.5070
35235SOL    HW116019   2.976   8.240  11.524 -0.6506 -0.6710 -0.5147
35235SOL    HW216020   3.065   8.218  11.645  1.9095  0.4027 -2.1187
35236SOL     OW16021   6.512  12.055   0.408  0.4994  0.0908 -0.6800
35236SOL    HW116022   6.542  12.028   0.495 -2.4230  1.2581  0.8539
35236SOL    HW216023   6.503  11.973   0.359  1.5517 -0.6587  0.3331
35237SOL     OW16024   3.965  12.977   1.899 -0.4749  0.4351 -0.1724
35237SOL    HW116025   4.011  13.054   1.865  0.3967 -0.6481 -1.5375
35237SOL    HW216026   3.918  12.942   1.824  0.6227 -1.4172 -0.0609
35238SOL     OW16027   1.155   3.418   9.595 -0.0601  0.4285 -0.3041
35238SOL    HW116028   1.213   3.457   9.530  1.2643 -0.4910  0.2770
35238SOL    HW216029   1.115   3.343   9.551 -0.0706  0.4983 -0.4127
35239SOL     OW16030  12.118   0.199   8.774  0.4593  0.1832  0.1521
35239SOL    HW116031  12.146   0.232   8.860  1.7966  2.2860 -0.9999
35239SOL    HW216032  12.190   0.143   8.745  0.2070 -0.1694  0.2041
35240SOL     OW16033   2.550   1.232   4.234 -0.3697 -0.2714  0.5113
35240SOL    HW116034   2.467   1.227   4.187  1.4714 -0.5386 -3.0232
35240SOL    HW216035   2.567   1.325   4.245 -0.1878 -0.1600 -0.6497
35241SOL     OW16036   6.758  10.655   0.789 -0.3025 -0.1200  0.2865
35241SOL    HW116037   6.770  10.702   0.871 -0.6550  0.7028 -0.1269
35241SOL    HW216038   6.737  10.566   0.816  1.0499 -0.2426  1.0770
35242SOL     OW16039   8.429  11.472   3.350  0.1636  0.0840  0.1801
35242SOL    HW116040   8.336  11.487   3.337 -0.0269 -0.9264  0.3053
35242SOL    HW216041   8.437  11.378   3.366  1.5011 -0.3563 -2.5731
35243SOL     OW16042   9.028   3.507   5.051 -0.3186  0.3092 -0.0205
35243SOL    HW116043   8.983   3.555   5.120  0.1867  0.6105  0.1041
35243SOL    HW216044   9.042   3.571   4.982  0.0201  0.2460 -0.0112
35244SOL     OW16045   6.088  10.156  12.325  0.0368 -0.7380  0.2068
35244SOL    HW116046   6.175  10.139  12.361  0.4004 -0.4860 -0.5285
35244SOL    HW216047   6.028  10.136  12.396  0.6699 -1.3902  0.5659
35245SOL     OW16048  11.551   0.664   9.840  0.1539 -0.0808 -0.1319
35245SOL    HW116049  11.473   0.610   9.834  0.8794 -1.0892 -0.9249
35245SOL    HW216050  11.623   0.606   9.815  1.2349  0.6637  1.0818
35246SOL     OW16051  12.478  11.600   5.826  0.0640  0.7967  1.0213
35246SOL    HW116052  12.563  11.564   5.847 -0.4783 -2.1145 -1.1429
35246SOL    HW216053  12.489  11.638   5.738 -0.9197 -0.0597  0.4982
35247SOL     OW16054   8.246   7.592   5.485  0.1017 -0.0687 -0.4656
35247SOL    HW116055   8.190   7.641   5.546  0.1391 -1.1464  0.4623
35247SOL    HW216056   8.334   7.628   5.500 -0.0267  0.2559 -0.4887
35248SOL     OW16057   0.532   2.877  12.896  0.4067 -0.0513 -0.3365
35248SOL    HW116058   0.601   2.821  12.934 -0.1743 -0.5915 -0.0543
35248SOL    HW216059   0.519   2.842  12.808 -0.7950 -1.1690  0.2469
35249SOL     OW16060   9.084   0.461  12.239 -0.1704  0.7262  0.0152
35249SOL    HW116061   9.068   0.454  12.333  0.6870  0.3505  0.1505
35249SOL    HW216062   9.004   0.497  12.203 -1.6431 -1.8459  0.4881
35250SOL     OW16063   9.040   5.312   8.192  0.1816 -0.2027  0.2090
35250SOL    HW116064   9.073   5.274   8.111  0.7366 -0.1162  0.3881
35250SOL    HW216065   9.054   5.244   8.258  1.7254  0.4897  0.6493
35251SOL     OW16066   5.999  12.148   4.351 -0.0620  0.1453  0.6011
35251SOL    HW116067   5.980  12.065   4.307 -0.9986  1.0432 -0.8128
35251SOL    HW216068   6.001  12.127   4.444  1.4374 -1.7569  0.1963
35252SOL     OW16069   7.540   7.943   2.379  0.2009  0.1554  0.0259
35252SOL    HW116070   7.600   7.889   2.327  1.8530  0.6910  1.2927
35252SOL    HW216071   7.563   8.033   2.356 -0.7451  0.3606 -0.1361
35253SOL     OW16072  11.102   0.486   3.989 -0.1296 -0.4394 -0.0198
35253SOL    HW116073  11.019   0.533   3.982 -0.0486 -0.1256  1.0125
35253SOL    HW216074  11.077   0.396   4.008 -0.2698 -0.7232 -1.4496
35254SOL     OW16075   6.467  10.471  10.747  0.3303 -0.3814 -0.1119
35254SOL    HW116076   6.531  10.405  10.721 -0.6724 -0.7523 -1.7205
35254SOL    HW216077   6.384  10.442  10.709 -0.2532  1.5069 -0.4008
35255SOL     OW16078   7.286   9.799  12.024 -0.3813  0.1143  0.2416
35255SOL    HW116079   7.315   9.713  12.055 -1.2370  0.2843  1.5763
35255SOL    HW216080   7.229   9.832  12.093  0.4138  2.0348  0.0604
35256SOL     OW16081   0.313   5.490   1.801  0.2149 -0.3586  0.1809
35256SOL    HW116082   0.352   5.570   1.837 -1.3535  0.8172 -0.5796
35256SOL    HW216083   0.271   5.448   1.875  0.4758 -0.1116  0.4704
35257SOL     OW16084  12.824  12.500   8.268  0.7505  0.2385  0.4985
35257SOL    HW116085  12.919  12.489   8.270  0.5343 -1.8657  0.8432
35257SOL    HW216086  12.809  12.585   8.311  2.4093  0.1358  1.3657
35258SOL     OW16087  12.415   2.166   2.740 -0.1200 -0.0729 -0.3048
35258SOL    HW116088  12.440   2.161   2.833 -0.3313 -0.7379 -0.2803
35258SOL    HW216089  12.331   2.120   2.735  0.7612 -1.6662 -1.1327
35259SOL     OW16090   3.504   3.650  12.093  0.4118 -0.4041 -0.5419
35259SOL    HW116091   3.551   3.681  12.170  1.3710 -1.6800 -0.5640
35259SOL    HW216092   3.573   3.617  12.035 -0.4103 -1.0224 -1.2003
35260SOL     OW16093   5.418  11.335  10.873  0.1591  0.0753 -0.8904
35260SOL    HW116094   5.370  11.321  10.954 -0.1908 -0.3549 -1.1635
35260SOL    HW216095   5.446  11.426  10.876 -0.9164  0.4209 -0.8480
35261SOL     OW16096   8.347   4.193   4.734 -0.5342  0.0429 -0.2922
35261SOL    HW116097   8.274   4.133   4.742  0.6751 -1.6342 -1.2836
35261SOL    HW216098   8.375   4.209   4.825  0.1904 -2.2933 -0.0468
35262SOL     OW16099  10.525   0.802   9.461  0.0831 -0.6843  0.2555
35262SOL    HW116100  10.602   0.807   9.404  0.7576 -0.4993  1.1456
35262SOL    HW216101  10.538   0.872   9.525 -2.2841  1.2780 -1.2415
35263SOL     OW16102  10.196   1.162   3.672  0.1943  0.2820 -0.3135
35263SOL    HW116103  10.218   1.200   3.757 -3.6959 -0.0213  1.0288
35263SOL    HW216104  10.208   1.234   3.610 -1.7349  2.1863  1.3405
35264SOL     OW16105   2.712   9.396   5.861 -0.1096 -0.5702 -0.4997
35264SOL    HW116106   2.713   9.316   5.809 -0.9137 -2.7734  2.6077
35264SOL    HW216107   2.802   9.404   5.893 -0.2717 -0.8888  0.0544
35265SOL     OW16108   3.232   9.266   5.296  0.0389  0.6943 -0.4196
35265SOL    HW116109   3.309   9.240   5.244  0.3032 -1.2378  0.8058
35265SOL    HW216110   3.206   9.185   5.341 -1.0407  1.9496  1.3275
35266SOL     OW16111   1.519   8.372   4.949 -0.2841  0.0098 -0.1358
35266SOL    HW116112   1.601   8.421   4.941  0.1935 -0.7560 -0.0825
35266SOL    HW216113   1.457   8.420   4.895  0.2908  0.4225 -0.4400
35267SOL     OW16114   3.830   2.361   2.335 -0.4493  0.5957  0.6910
35267SOL    HW116115   3.875   2.397   2.259 -2.2357 -0.2402 -0.8343
35267SOL    HW216116   3.900   2.344   2.398  0.9837  2.1027 -0.4040
35268SOL     OW16117  10.522   2.633   2.510 -0.2863  0.2128 -0.4126
35268SOL    HW116118  10.569   2.652   2.429  0.5948 -0.3864 -0.0633
35268SOL    HW216119  10.541   2.541   2.528  0.4952  0.6235  1.0707
35269SOL     OW16120   7.212  11.738   1.365 -0.7359 -0.6176  0.4979
35269SOL    HW116121   7.190  11.829   1.385 -0.8633 -0.6620  0.5635
35269SOL    HW216122   7.176  11.723   1.278  0.2777 -0.2647 -0.0006
35270SOL     OW16123   7.826  11.702  10.943  0.1646  0.2914  0.7974
35270SOL    HW116124   7.772  11.757  10.887  0.3266 -0.2455  0.0954
35270SOL    HW216125   7.902  11.756  10.966  0.6610  0.1560 -0.4408
35271SOL     OW16126  10.512   1.221   6.638  0.4727  0.4609  0.3558
35271SOL    HW116127  10.522   1.183   6.725 -1.5084 -0.2655  0.3096
35271SOL    HW216128  10.426   1.192   6.609  0.4330  1.9950 -1.2034
35272SOL     OW16129  12.301   8.268   8.042  0.2478  0.0679 -0.2125
35272SOL    HW116130  12.308   8.336   8.109  0.5789  0.5861 -0.7624
35272SOL    HW216131  12.326   8.187   8.087 -1.6391  0.0290  0.8567
35273SOL     OW16132   8.156   9.936   4.080  0.0597 -0.0373 -0.0013
35273SOL    HW116133   8.062   9.942   4.066  0.1370 -2.0228 -1.8133
35273SOL    HW216134   8.166   9.890   4.164 -0.5941 -0.6258 -0.2429
35274SOL     OW16135  11.774   6.828   2.663  0.1374 -0.0100  0.2117
35274SOL    HW116136  11.784   6.741   2.624 -0.6938 -0.0948  0.1647
35274SOL    HW216137  11.774   6.887   2.588 -1.6821 -0.1925  0.0317
35275SOL     OW16138  12.212   2.594   8.104 -0.0683  0.1310  0.1532
35275SOL    HW116139  12.191   2.528   8.170  0.2912 -0.6215 -0.4692
35275SOL    HW216140  12.304   2.616   8.120  0.1764 -0.4463 -0.4202
35276SOL     OW16141   6.137  10.338   5.176 -0.2984  0.8918  0.0782
35276SOL    HW116142   6.174  10.361   5.091 -0.0231  2.0160  0.4787
35276SOL    HW216143   6.182  10.258   5.202  0.9196  1.5269 -0.0349
35277SOL     OW16144   8.947  10.635   1.104  0.1541 -0.5051  0.7373
35277SOL    HW116145   9.010  10.564   1.096  0.3663 -0.3855  1.2911
35277SOL    HW216146   8.886  10.606   1.172  0.0382 -0.3101  0.7176
35278SOL     OW16147  10.592  10.647   9.427 -0.0358 -0.0068  0.2209
35278SOL    HW116148  10.626  10.625   9.513  1.9814  0.7099 -0.3445
35278SOL    HW216149  10.669  10.670   9.375 -1.2838  0.5560 -1.4945
35279SOL     OW16150   2.435  11.041   8.545 -0.2053 -0.3717  0.2682
35279SOL    HW116151   2.423  11.112   8.482  0.9284  0.1854  0.6454
35279SOL    HW216152   2.347  11.011   8.566 -0.7335  1.2171  0.4174
35280SOL     OW16153   3.309   4.581   5.687  0.0624 -0.1979  0.5312
35280SOL    HW116154   3.402   4.561   5.695  0.2031  0.3921  0.3872
35280SOL    HW216155   3.303   4.676   5.703 -0.6995 -0.4728  2.1802
35281SOL     OW16156  12.339   9.178  12.265 -0.1005  0.5488  0.0512
35281SOL    HW116157  12.266   9.133  12.307 -0.4533  1.8869  0.9026
35281SOL    HW216158  12.354   9.256  12.318  2.5949 -0.1698  0.4680
35282SOL     OW16159   4.112  10.773  10.530  0.1631  0.1654 -0.1303
35282SOL    HW116160   4.035  10.738  10.484  0.3028 -0.5032  0.1342
35282SOL    HW216161   4.173  10.796  10.460 -0.0181  0.0778 -0.3182
35283SOL     OW16162   2.279   3.943  11.001 -0.0049 -0.4889  0.1342
35283SOL    HW116163   2.191   3.933  10.965 -0.0126  0.2308 -0.0675
35283SOL    HW216164   2.317   3.855  10.998 -0.9021 -0.9168  0.7301
35284SOL     OW16165   6.574   4.831   7.603  0.5914  0.4386  0.6932
35284SOL    HW116166   6.589   4.836   7.697  1.1660 -1.7539  0.7833
35284SOL    HW216167   6.659   4.850   7.564  1.1721 -1.7010  0.7922
35285SOL     OW16168   6.591   4.692   3.039 -0.4308  0.2941 -0.3054
35285SOL    HW116169   6.587   4.613   3.092 -0.0764  1.7916  2.0795
35285SOL    HW216170   6.500   4.709   3.014 -0.7481  0.0679  0.6525
35286SOL     OW16171   0.110  12.565  12.760 -0.3481  0.1936  0.0416
35286SOL    HW116172   0.100  12.502  12.689 -0.5670 -0.0868  0.3190
35286SOL    HW216173   0.024  12.606  12.768 -0.6275 -0.5024  0.8187
35287SOL     OW16174   6.416   6.788   4.286 -0.1394 -0.0807 -0.1935
35287SOL    HW116175   6.478   6.802   4.357 -0.6330 -0.9076  0.4160
35287SOL    HW216176   6.336   6.756   4.329 -0.6418 -0.0314 -1.0570
35288SOL     OW16177  12.785   7.484   7.527 -0.0365  0.2534 -0.3244
35288SOL    HW116178  12.774   7.484   7.623  2.2866  0.8401  0.0159
35288SOL    HW216179  12.726   7.553   7.496  1.0073  1.8352  1.0039
35289SOL     OW16180   8.931   0.471   9.510  0.3796 -0.3000  0.5886
35289SOL    HW116181   8.970   0.542   9.459 -1.2068  2.1814  2.5768
35289SOL    HW216182   9.000   0.446   9.572  0.2419  1.0748  1.3148
35290SOL     OW16183   2.995   5.165   9.645  0.6242 -0.9070  0.1140
35290SOL    HW116184   2.942   5.244   9.630 -1.1602 -1.9848  0.3817
35290SOL    HW216185   3.067   5.173   9.583  0.5041  0.9248  0.1330
35291SOL     OW16186   1.655  11.678   8.465  0.0867 -0.0690 -0.0695
35291SOL    HW116187   1.714  11.737   8.419  0.7221 -0.7076 -0.0875
35291SOL    HW216188   1.587  11.735   8.501  0.3189  0.5870 -0.6570
35292SOL     OW16189  10.588   8.222   2.019  0.0567  0.6635  0.1716
35292SOL    HW116190  10.572   8.303   2.068 -1.7246  0.3868  0.1403
35292SOL    HW216191  10.643   8.170   2.077  0.3629  1.4746  0.6353
35293SOL     OW16192   5.019   0.425   0.322  0.2796  0.4221 -0.3284
35293SOL    HW116193   4.967   0.440   0.401  1.1623  0.5185  0.2465
35293SOL    HW216194   5.109   0.425   0.353  0.5652 -1.2397 -1.0598
35294SOL     OW16195  11.783   8.713   6.422 -0.2210 -0.1021  0.0903
35294SOL    HW116196  11.786   8.697   6.328  0.8997 -0.7062  0.2102
35294SOL    HW216197  11.695   8.749   6.437 -0.6184 -0.5076 -1.0942
35295SOL     OW16198   5.235   3.135  12.912 -0.2166 -0.0474 -0.3336
35295SOL    HW116199   5.218   3.113  13.004 -1.7094  0.3784 -0.4787
35295SOL    HW216200   5.241   3.050  12.868  2.4398 -0.3438  0.4096
35296SOL     OW16201   6.475   5.656   7.320 -0.4572  0.0727  0.1380
35296SOL    HW116202   6.502   5.615   7.402 -1.3269 -1.9563 -0.5335
35296SOL    HW216203   6.386   5.687   7.337 -1.2614 -1.7826 -0.4587
35297SOL     OW16204   2.027  12.527   4.409  0.4729  0.0787  0.2208
35297SOL    HW116205   1.981  12.588   4.466  0.4788  0.4777 -0.1885
35297SOL    HW216206   2.014  12.441   4.449 -0.1144  0.2657  0.4377
35298SOL     OW16207  12.065   6.980  12.169  0.2899  0.2085 -0.0719
35298SOL    HW116208  12.047   6.923  12.095 -0.4186  0.2015  0.0935
35298SOL    HW216209  12.135   7.037  12.140 -0.0701  0.2922 -0.7953
35299SOL     OW16210   4.434   9.033   6.595 -0.4538 -0.2631 -0.2873
35299SOL    HW116211   4.477   9.067   6.674  0.4011  2.4814 -1.7893
35299SOL    HW216212   4.341   9.033   6.616 -0.1940 -0.3087  0.9492
35300SOL     OW16213   1.278   0.484   9.249  0.6965 -0.0865 -0.1394
35300SOL    HW116214   1.277   0.564   9.197  1.1735 -1.0069 -1.6490
35300SOL    HW216215   1.245   0.417   9.189 -0.4915 -0.8840  1.3491
35301SOL     OW16216   3.905   8.509   5.377 -0.2204  0.3815 -0.1741
35301SOL    HW116217   3.830   8.450   5.365 -0.8904  0.9126  1.1996
35301SOL    HW216218   3.924   8.542   5.289 -0.6684 -0.8563 -0.7660
35302SOL     OW16219   8.611   3.042   3.666  0.4341  0.2189 -0.0725
35302SOL    HW116220   8.554   3.092   3.607 -0.4012 -0.5472  0.0623
35302SOL    HW216221   8.585   3.070   3.753  1.2426  0.8907 -0.0315
35303SOL     OW16222   1.403   8.179   8.586  0.0642  0.0118  0.0986
35303SOL    HW116223   1.454   8.255   8.556 -1.5243  1.0409 -0.1229
35303SOL    HW216224   1.326   8.178   8.530 -0.2206 -1.4429  0.4815
35304SOL     OW16225   6.355  11.966  11.631  0.3485  0.3888 -0.0844
35304SOL    HW116226   6.289  12.034  11.647  1.2749  1.6169 -1.2755
35304SOL    HW216227   6.312  11.885  11.658 -1.8981  1.0412 -1.4207
35305SOL     OW16228   8.097   0.162   4.172  0.3102  0.3808  0.6008
35305SOL    HW116229   8.123   0.214   4.096 -1.0962  0.3467  0.0623
35305SOL    HW216230   8.157   0.088   4.172 -1.3644 -1.1507 -2.2317
35306SOL     OW16231  10.360   9.908   2.786 -0.3387  0.1375  0.0076
35306SOL    HW116232  10.318   9.862   2.714 -1.5761 -0.2606  0.9512
35306SOL    HW216233  10.288   9.934   2.844  0.6881 -0.5754  1.6939
35307SOL     OW16234  10.007   4.936   5.882 -0.5336  0.0561  0.0412
35307SOL    HW116235   9.972   4.887   5.957 -0.0351 -0.4406 -0.0526
35307SOL    HW216236  10.034   5.020   5.920  2.8070 -1.3388  1.1352
35308SOL     OW16237  11.551  10.008  11.457 -0.2873  0.2542  0.0192
35308SOL    HW116238  11.630   9.995  11.510 -1.0657 -0.7141  0.9852
35308SOL    HW216239  11.584  10.044  11.374  1.1215  0.2453  0.5394
35309SOL     OW16240  11.497  10.263   7.053  0.2165  0.3415 -0.1464
35309SOL    HW116241  11.563  10.295   6.992  0.3451 -1.4860 -1.0181
35309SOL    HW216242  11.413  10.290   7.015  0.3394  0.0410 -0.6400
35310SOL     OW16243   5.496   5.015   1.885  0.3787  0.1834  0.3670
35310SOL    HW116244   5.402   5.005   1.900 -0.7054  2.3928 -3.6008
35310SOL    HW216245   5.513   4.963   1.807  1.2919  3.4332 -1.7660
35311SOL     OW16246  10.987   8.132  10.742 -0.4228 -0.2962  0.4462
35311SOL    HW116247  11.012   8.042  10.719  0.6549 -0.1467  0.9401
35311SOL    HW216248  10.973   8.130  10.837 -1.2194 -0.1157  0.3406
35312SOL     OW16249  12.927   3.895   8.285  0.1093  0.3777  0.2534
35312SOL    HW116250  13.004   3.838   8.296  0.6353  1.2736  1.4470
35312SOL    HW216251  12.873   3.850   8.221  0.9090 -1.0494  0.5350
35313SOL     OW16252   3.469   0.593   0.864  0.8216 -0.4910  0.1626
35313SOL    HW116253   3.429   0.512   0.897 -1.2354  0.4823  0.2086
35313SOL    HW216254   3.439   0.600   0.774  1.2910  0.0127  0.0434
35314SOL     OW16255   0.303  10.552   8.674 -0.0134 -0.1550 -0.5565
35314SOL    HW116256   0.347  10.603   8.605 -0.7138  1.8682  0.4099
35314SOL    HW216257   0.369  10.490   8.704  2.3991  2.8730  0.9847
35315SOL     OW16258   7.183   6.456   3.417  0.1275  0.0743  0.0637
35315SOL    HW116259   7.117   6.484   3.481  1.0009  0.4106  0.8353
35315SOL    HW216260   7.195   6.531   3.359  0.3680  0.2719  0.3710
35316SOL     OW16261   1.681   0.065  12.462  0.1815  0.0898  0.3379
35316SOL    HW116262   1.611   0.001  12.477 -0.8066  1.3662  1.3490
35316SOL    HW216263   1.677   0.083  12.368 -1.0072  0.3008  0.4154
35317SOL     OW16264   1.869   0.829  11.328 -0.4118  0.2000 -0.0952
35317SOL    HW116265   1.934   0.784  11.274  2.7695  1.4923  2.3192
35317SOL    HW216266   1.860   0.915  11.287 -0.5230  0.0631 -0.3618
35318SOL     OW16267   6.927   5.211   7.400 -0.5827 -0.1927  0.4416
35318SOL    HW116268   6.887   5.290   7.437 -1.3909  0.1657 -1.1238
35318SOL    HW216269   7.014   5.208   7.440 -0.8568  1.0006  1.2024
35319SOL     OW16270   1.837   2.686   8.013  0.0945 -0.5668 -0.5425
35319SOL    HW116271   1.746   2.714   8.013  0.2550 -0.0321 -0.5545
35319SOL    HW216272   1.836   2.602   8.060 -0.1458  0.3444  1.1605
35320SOL     OW16273   9.652   9.235   1.584 -0.1180  0.4885 -0.0485
35320SOL    HW116274   9.697   9.309   1.542  0.7587  0.9688  1.6481
35320SOL    HW216275   9.693   9.158   1.547 -0.4246  0.8509 -1.1835
35321SOL     OW16276   6.624  11.197   4.278  0.0708 -0.3528 -0.4830
35321SOL    HW116277   6.719  11.203   4.271  0.1218  0.7383  0.6278
35321SOL    HW216278   6.607  11.200   4.372 -1.0366 -1.3931 -0.6204
35322SOL     OW16279   2.286  11.021   6.006  0.1215  0.2011 -0.3777
35322SOL    HW116280   2.378  11.007   5.983  0.6741  2.6017  0.1441
35322SOL    HW216281   2.258  10.936   6.042  2.0273 -0.6753 -0.8021
35323SOL     OW16282   2.322  10.443   2.851 -0.3820  0.6317  0.1873
35323SOL    HW116283   2.289  10.515   2.905 -0.1639  0.3102  0.7564
35323SOL    HW216284   2.308  10.472   2.761 -0.9892  1.0639  0.4153
35324SOL     OW16285   0.674   9.075   9.424 -0.1740 -0.3272  0.6583
35324SOL    HW116286   0.621   9.089   9.347 -1.6691 -0.2885  1.6558
35324SOL    HW216287   0.664   8.982   9.444  1.3033 -0.6507  0.0616
35325SOL     OW16288  10.817   4.076   1.775  0.1220  0.1789  0.0609
35325SOL    HW116289  10.778   3.999   1.815  1.5369 -1.3636 -1.3878
35325SOL    HW216290  10.873   4.114   1.843  0.3617 -0.7901  0.4080
35326SOL     OW16291  10.222  12.131   5.716  0.1870 -0.4222 -0.4442
35326SOL    HW116292  10.182  12.074   5.782 -2.5650 -0.7631 -2.2064
35326SOL    HW216293  10.292  12.078   5.677  1.4024 -0.4480  1.6453
35327SOL     OW16294   3.298  11.674  10.666 -0.0260  0.5242 -0.1325
35327SOL    HW116295   3.389  11.645  10.663  0.0929  0.9270 -0.9168
35327SOL    HW216296   3.259  11.627  10.740  0.7844  0.2559  0.1304
35328SOL     OW16297  11.236   8.054   9.959 -0.5550 -0.3104  0.7096
35328SOL    HW116298  11.225   7.993  10.032 -0.1193 -0.0735  0.9727
35328SOL    HW216299  11.317   8.100   9.978 -0.9472  0.4492  0.5771
35329SOL     OW16300  11.057   5.152   5.144 -0.4367 -0.2748  0.1580
35329SOL    HW116301  11.139   5.148   5.095 -0.8120 -0.8734 -0.4302
35329SOL    HW216302  11.047   5.244   5.167  0.1821 -0.1314 -0.1349
35330SOL     OW16303  10.887  12.556   9.249  0.4021 -0.2623  0.2256
35330SOL    HW116304  10.957  12.596   9.197 -1.1396  2.4925  0.0392
35330SOL    HW216305  10.931  12.521   9.326  1.9261  2.5702  0.7785
35331SOL     OW16306   8.952  12.697  10.069  0.0256  0.0464  0.1533
35331SOL    HW116307   8.893  12.656  10.132  0.2708 -1.4102 -0.5338
35331SOL    HW216308   9.015  12.746  10.124 -0.8079  0.2675  0.9446
35332SOL     OW16309  10.712   2.009  12.412 -0.0839  0.2908 -0.4316
35332SOL    HW116310  10.706   2.051  12.327  0.7753  0.6608 -0.3208
35332SOL    HW216311  10.765   2.069  12.465  1.2468 -0.9399 -0.2952
35333SOL     OW16312   0.236   4.899   0.725  0.2967  0.1376 -0.1113
35333SOL    HW116313   0.237   4.906   0.820  1.8688 -0.6739 -0.0344
35333SOL    HW216314   0.188   4.976   0.696  2.7748  2.3322  1.2115
35334SOL     OW16315  10.671   3.989   8.238 -0.0583  0.9743 -0.0263
35334SOL    HW116316  10.646   3.968   8.327  1.2738 -2.6156 -0.3170
35334SOL    HW216317  10.591   3.978   8.187 -0.5140  1.6711  0.5246
35335SOL     OW16318   8.913  11.035   1.427  0.3964  0.0615  0.8349
35335SOL    HW116319   8.927  11.058   1.335  1.0948 -1.3149  0.5798
35335SOL    HW216320   8.820  11.052   1.442  0.9027  3.5753  0.8677
35336SOL     OW16321   2.547  11.060   2.827 -0.1463 -0.2703 -0.4165
35336SOL    HW116322   2.519  11.021   2.910  2.1388 -0.7881  0.1756
35336SOL    HW216323   2.636  11.091   2.844  0.1573  0.1508 -2.5236
35337SOL     OW16324   8.954   9.230  10.846 -0.4700  0.5280  0.1973
35337SOL    HW116325   8.940   9.325  10.839  2.1562  0.8707 -2.9860
35337SOL    HW216326   8.906   9.194  10.772  1.7233 -0.0421 -1.0510
35338SOL     OW16327   3.849  12.822   5.629  0.2119  0.2027 -0.0464
35338SOL    HW116328   3.873  12.731   5.645  0.1699  0.0982 -0.5524
35338SOL    HW216329   3.923  12.859   5.581  1.9757  1.5203  3.3272
35339SOL     OW16330   2.654  10.663   2.220 -0.6521  0.8863  0.7296
35339SOL    HW116331   2.658  10.739   2.163 -0.2342  0.5436  0.2949
35339SOL    HW216332   2.614  10.594   2.167 -0.6954  0.6987  1.0012
35340SOL     OW16333   3.893   5.256   3.056 -0.1022  0.5875 -0.0272
35340SOL    HW116334   3.892   5.160   3.051  0.0817  0.4623  1.9142
35340SOL    HW216335   3.983   5.280   3.035  1.1143 -0.0237  3.7975
35341SOL     OW16336  11.270   7.636  10.165  0.3453 -0.4808  0.5773
35341SOL    HW116337  11.361   7.609  10.156  0.7734  0.6498  1.3020
35341SOL    HW216338  11.243   7.601  10.250  0.8248  1.0745  1.4052
35342SOL     OW16339   4.961   7.003   6.579 -0.1153 -0.1343  0.0052
35342SOL    HW116340   5.020   6.932   6.605 -1.1452 -0.4440  1.5998
35342SOL    HW216341   5.011   7.083   6.597  0.8869 -0.3992 -1.4019
35343SOL     OW16342  12.212   4.660   1.569  0.1899  0.1640  0.0439
35343SOL    HW116343  12.234   4.709   1.490  0.6684  0.8121  0.5654
35343SOL    HW216344  12.131   4.700   1.601 -0.6173 -0.8295 -0.7154
35344SOL     OW16345  12.730   0.438   6.346  0.1419  0.1226 -0.0274
35344SOL    HW116346  12.741   0.411   6.255  1.3659  1.9078 -0.4647
35344SOL    HW216347  12.659   0.383   6.379  0.9799 -1.9508 -1.4556
35345SOL     OW16348   1.055  11.100   4.952 -0.3053  0.1637 -0.1616
35345SOL    HW116349   1.102  11.023   4.918  2.0091  0.1987  2.6260
35345SOL    HW216350   1.051  11.086   5.047 -0.7487  3.0118  0.3265
35346SOL     OW16351   2.146   4.205   4.879 -0.5537  0.0175 -0.9196
35346SOL    HW116352   2.191   4.281   4.841 -2.3247  1.8106  0.3575
35346SOL    HW216353   2.121   4.152   4.803  0.2925  0.9455 -1.8922
35347SOL     OW16354   8.392   0.455   3.056 -0.2382  0.0932  0.3430
35347SOL    HW116355   8.305   0.455   3.096 -0.0739  0.1042  0.7039
35347SOL    HW216356   8.429   0.370   3.078  0.0899  0.3325  0.7394
35348SOL     OW16357   3.575   6.455   5.415  0.6370  0.4099 -0.4654
35348SOL    HW116358   3.639   6.393   5.379  1.0527  0.2014  0.5809
35348SOL    HW216359   3.586   6.448   5.510 -1.6385 -0.3420 -0.2143
35349SOL     OW16360   7.972   9.586   5.180 -0.4208 -0.3286 -0.4333
35349SOL    HW116361   7.937   9.586   5.091 -0.8863 -0.1779 -0.2541
35349SOL    HW216362   8.059   9.625   5.172  0.4930 -2.3888 -1.1774
35350SOL     OW16363   5.375   1.352   7.832 -0.5912  0.1273  0.2985
35350SOL    HW116364   5.302   1.411   7.813 -0.8809  0.0693  1.1748
35350SOL    HW216365   5.333   1.274   7.868 -0.1478 -0.2636 -0.0212
35351SOL     OW16366   1.681   6.111   6.213 -0.3903  0.2437 -0.4435
35351SOL    HW116367   1.690   6.050   6.139  0.9553  0.6771 -0.6765
35351SOL    HW216368   1.590   6.138   6.211 -0.6240 -0.5310 -1.3304
35352SOL     OW16369   1.610  10.425   5.927 -0.7950 -0.0196 -0.4165
35352SOL    HW116370   1.517  10.444   5.924 -0.8368  0.1944  1.3792
35352SOL    HW216371   1.621  10.370   6.005  0.6358  0.3662 -0.3217
35353SOL     OW16372   7.288   8.340   5.307 -0.1987 -0.2421  0.0903
35353SOL    HW116373   7.336   8.370   5.231  1.3991 -0.8374  0.8051
35353SOL    HW216374   7.339   8.265   5.339 -1.2680 -0.5032  1.2677
35354SOL     OW16375   2.496   5.853   2.478  0.3221 -0.0955 -0.3022
35354SOL    HW116376   2.527   5.832   2.566  2.3779 -1.3794 -1.2624
35354SOL    HW216377   2.467   5.769   2.441  0.2184  0.2853 -1.1186
35355SOL     OW16378  10.486   6.013   8.061  0.3868 -0.3597  0.2527
35355SOL    HW116379  10.406   5.993   8.013  1.2954 -0.4989 -1.2851
35355SOL    HW216380  10.547   5.943   8.037  1.9435  1.3524 -1.0942
35356SOL     OW16381  12.659   6.821   2.259 -0.2392 -0.0646 -0.2299
35356SOL    HW116382  12.666   6.856   2.170 -0.4702 -0.3103 -0.3462
35356SOL    HW216383  12.629   6.895   2.311  1.2643  0.4733 -0.0854
35357SOL     OW16384   5.497   8.692   6.939 -0.2663  0.1789 -0.8548
35357SOL    HW116385   5.563   8.762   6.938  1.2360 -1.1194 -3.4235
35357SOL    HW216386   5.427   8.724   6.883 -0.7955  0.6484  0.0623
35358SOL     OW16387  10.340   1.626  10.918 -0.2340  0.4028  0.6284
35358SOL    HW116388  10.258   1.672  10.936 -2.1397 -2.3805 -0.2732
35358SOL    HW216389  10.348   1.625  10.822  0.2281 -0.3227  0.6571
35359SOL     OW16390   4.038   5.610   7.601 -0.1590  0.3721  0.0894
35359SOL    HW116391   4.080   5.545   7.657 -0.2101  0.2166 -0.0506
35359SOL    HW216392   3.948   5.578   7.590 -0.1681  0.4355 -0.0270
35360SOL     OW16393   9.339   2.504   2.881 -0.2312 -0.1107  0.0463
35360SOL    HW116394   9.395   2.431   2.908  0.2306 -0.2390 -1.2072
35360SOL    HW216395   9.363   2.520   2.790 -1.0181  0.9769  0.0152
35361SOL     OW16396   0.082   8.034   1.592 -0.5120 -0.1219 -0.1960
35361SOL    HW116397   0.008   8.021   1.652  0.4570 -1.7139  0.7389
35361SOL    HW216398   0.104   7.946   1.563  0.7524  0.3727 -0.7885
35362SOL     OW16399  12.611   3.120   6.802  0.1319 -0.2681 -0.0540
35362SOL    HW116400  12.520   3.136   6.828 -0.0574 -2.4000  0.9038
35362SOL    HW216401  12.642   3.056   6.867  2.2957  0.3595 -0.4158
35363SOL     OW16402  11.219   1.884   5.846 -0.0347  0.2482 -0.7224
35363SOL    HW116403  11.311   1.909   5.847 -0.1536  0.7078  0.6842
35363SOL    HW216404  11.209   1.826   5.921 -0.7769 -0.2466 -1.1927
35364SOL     OW16405   4.335   8.646  12.798  0.0608  0.5333 -0.0954
35364SOL    HW116406   4.355   8.738  12.783  1.9597  0.0981 -0.5534
35364SOL    HW216407   4.324   8.609  12.711  0.2996  0.1270  0.0453
35365SOL     OW16408   7.411   8.461   2.168  0.1441 -0.2180  0.6545
35365SOL    HW116409   7.323   8.496   2.160  1.0671  2.1075 -0.3303
35365SOL    HW216410   7.427   8.416   2.085  0.1999  0.1122  0.4885
35366SOL     OW16411   1.008   0.527   1.540  0.9228 -0.2610  0.1182
35366SOL    HW116412   0.933   0.483   1.501 -1.4364  0.6943  3.1886
35366SOL    HW216413   1.079   0.462   1.536 -0.5527 -1.8576 -1.3100
35367SOL     OW16414  11.906   8.589   8.806  0.6866 -0.2193  0.4072
35367SOL    HW116415  11.906   8.494   8.815  2.5161 -0.2453  0.4512
35367SOL    HW216416  11.878   8.622   8.891 -0.5205 -0.7012  0.2185
35368SOL     OW16417   2.933   4.870   0.420 -0.4385 -0.4945  0.5626
35368SOL    HW116418   3.011   4.814   0.413  1.4665  1.9901  0.6324
35368SOL    HW216419   2.952   4.929   0.493 -0.6210  2.6708 -1.7204
35369SOL     OW16420   8.878   7.019   3.011 -0.0647 -0.5462 -0.1396
35369SOL    HW116421   8.973   7.026   3.000 -0.0504  2.1022  0.7940
35369SOL    HW216422   8.865   7.014   3.105 -0.8247 -3.8635 -0.3286
35370SOL     OW16423   9.526   8.432  12.857  0.0330  0.2068  0.4159
35370SOL    HW116424   9.530   8.507  12.917 -1.0532  0.1277  0.6028
35370SOL    HW216425   9.608   8.437  12.808  0.1811  1.2515  0.7387
35371SOL     OW16426  11.967   4.656   3.285  0.2548 -0.4855  0.6258
35371SOL    HW116427  11.897   4.715   3.257  0.2415  0.5517  2.6236
35371SOL    HW216428  11.932   4.568   3.270 -0.8869  0.0240  0.2300
35372SOL     OW16429   6.605   0.198   2.158  0.4884  0.3035 -0.3967
35372SOL    HW116430   6.530   0.153   2.119  1.3528 -2.5201  0.9301
35372SOL    HW216431   6.568   0.249   2.230 -0.2769 -0.2654 -0.3778
35373SOL     OW16432  10.280   9.305   2.822 -0.0288 -0.2331  0.3664
35373SOL    HW116433  10.238   9.308   2.907 -2.5355  1.7790 -0.8179
35373SOL    HW216434  10.216   9.261   2.765  0.8977 -0.1121 -0.8179
35374SOL     OW16435   8.354   2.944   9.236  0.2686 -0.2973  0.2190
35374SOL    HW116436   8.447   2.930   9.222  0.3053 -1.3971  1.3726
35374SOL    HW216437   8.337   2.911   9.324 -1.3470 -0.7779 -0.2279
35375SOL     OW16438  11.441   0.107   9.285 -0.0305 -0.1190  0.1580
35375SOL    HW116439  11.491   0.189   9.286 -1.3413  0.7419 -1.2981
35375SOL    HW216440  11.507   0.039   9.294  1.3240  1.0111 -0.8473
35376SOL     OW16441   2.222  11.850   7.381  0.0577 -0.6046 -0.4412
35376SOL    HW116442   2.211  11.934   7.426  0.8839 -0.7199 -0.0129
35376SOL    HW216443   2.133  11.817   7.369 -0.3326  0.6931 -1.3144
35377SOL     OW16444   6.598   3.938   6.083  0.9939 -0.1302  0.7622
35377SOL    HW116445   6.601   3.846   6.058  0.7711 -0.5353  2.1198
35377SOL    HW216446   6.516   3.971   6.046  1.2200 -0.3807  0.0155
35378SOL     OW16447   7.018   2.509  12.684  0.7033 -0.1815 -0.2759
35378SOL    HW116448   7.040   2.582  12.627  2.0234 -1.2301 -1.1723
35378SOL    HW216449   7.099   2.489  12.731 -0.3669  0.7216  2.1434
35379SOL     OW16450   6.051   9.822   7.419 -0.2651 -0.3397  0.5910
35379SOL    HW116451   5.973   9.776   7.450  0.3877 -1.6064  0.4159
35379SOL    HW216452   6.080   9.873   7.494 -0.9550 -0.2771  0.8214
35380SOL     OW16453   2.327   7.767   9.258  0.0153  0.1858  0.7308
35380SOL    HW116454   2.346   7.751   9.165 -2.2758 -0.3609  0.3090
35380SOL    HW216455   2.361   7.856   9.274 -1.7138  1.3110 -1.3302
35381SOL     OW16456   8.690  10.547   1.194  0.3453  0.7466 -0.3010
35381SOL    HW116457   8.699  10.585   1.282  1.8349 -0.5357  0.1531
35381SOL    HW216458   8.642  10.612   1.144 -1.9194  0.8944  1.8649
35382SOL     OW16459   2.446   4.879   9.662  0.1216  0.2911 -0.5172
35382SOL    HW116460   2.506   4.902   9.733  1.3962  0.4623 -1.6237
35382SOL    HW216461   2.503   4.853   9.589 -1.1613 -0.2298 -1.3710
35383SOL     OW16462   5.551  10.901   9.763  0.1469 -0.1059  0.0467
35383SOL    HW116463   5.612  10.919   9.834 -1.0271  0.0492  1.0535
35383SOL    HW216464   5.481  10.966   9.774  0.0187  0.0344 -1.3591
35384SOL     OW16465   1.219   0.998  10.622  0.4013 -0.6372  0.2053
35384SOL    HW116466   1.126   0.991  10.601  0.0649  1.0952  0.9203
35384SOL    HW216467   1.256   1.050  10.551  0.7770 -1.1367  0.0356
35385SOL     OW16468   9.970  11.972  10.525 -0.1968  0.1277  0.6406
35385SOL    HW116469   9.958  12.061  10.492 -0.9003 -0.8802 -2.1350
35385SOL    HW216470   9.910  11.966  10.599  0.6686  2.2441  1.6068
35386SOL     OW16471   0.417  10.031   7.262 -0.1873  0.3360 -0.2837
35386SOL    HW116472   0.464   9.981   7.195 -0.3323 -1.2119  0.7388
35386SOL    HW216473   0.486  10.065   7.319 -0.1041  1.1361 -0.8459
35387SOL     OW16474  12.359   5.140   8.603  0.6362 -0.0873  0.1445
35387SOL    HW116475  12.266   5.154   8.624 -0.2493 -2.8706 -1.3189
35387SOL    HW216476  12.395   5.228   8.591 -1.4325  1.1463  2.0729
35388SOL     OW16477  12.652   8.102   1.179 -0.1515 -0.5151 -0.1036
35388SOL    HW116478  12.688   8.083   1.092  0.8220 -0.5056  0.2792
35388SOL    HW216479  12.574   8.047   1.185  0.6337 -1.7098 -0.3934
35389SOL     OW16480  12.396   0.013   1.949  0.4346 -0.0599  0.2960
35389SOL    HW116481  12.439   0.085   1.996 -0.1406  1.0279 -0.7913
35389SOL    HW216482  12.316   0.051   1.915 -0.5647 -1.6063  0.8173
35390SOL     OW16483   6.618   8.458   4.347  0.9048 -0.1437 -0.0909
35390SOL    HW116484   6.618   8.400   4.271 -1.7262 -1.1345  0.5446
35390SOL    HW216485   6.583   8.404   4.418 -0.7466  1.9142  0.7562
35391SOL     OW16486   1.929   1.201   1.794  0.0640  0.2312  0.1644
35391SOL    HW116487   1.838   1.182   1.818  0.3961 -1.3269  0.3333
35391SOL    HW216488   1.937   1.296   1.803 -1.4579  0.3674  0.4366
35392SOL     OW16489  11.894   5.557   1.113  0.0083  0.1418  0.6648
35392SOL    HW116490  11.819   5.615   1.105 -0.0255 -0.1537 -2.1740
35392SOL    HW216491  11.858   5.470   1.095  0.8296 -0.1328  0.3008
35393SOL     OW16492   4.160   9.967   7.937 -0.0767 -0.1174 -0.1656
35393SOL    HW116493   4.235  10.015   7.901  0.3033 -1.5902 -1.4648
35393SOL    HW216494   4.084  10.006   7.895 -0.0039  0.9526  0.6599
35394SOL     OW16495   7.658  10.741   6.537 -0.0244 -0.1082 -0.8006
35394SOL    HW116496   7.700  10.827   6.528 -0.7922  0.2873 -0.6365
35394SOL    HW216497   7.654  10.706   6.448  1.7365 -0.6880 -0.6966
35395SOL     OW16498  12.584   0.706   5.402 -0.4306 -0.0361 -0.0963
35395SOL    HW116499  12.622   0.618   5.412  0.8201  0.4152 -0.6745
35395SOL    HW216500  12.608   0.733   5.314  1.6482  1.9669  0.9708
35396SOL     OW16501   6.072   8.471   4.888 -0.2644 -0.1787 -0.4842
35396SOL    HW116502   5.998   8.531   4.883  0.5255  0.7878 -0.9921
35396SOL    HW216503   6.101   8.476   4.980  1.1549  1.9544 -0.9878
35397SOL     OW16504  12.296   9.415  11.499  0.2250  0.5546 -0.4377
35397SOL    HW116505  12.389   9.424  11.474  0.6451  0.0348  0.8796
35397SOL    HW216506  12.254   9.380  11.421  0.8514  2.1591 -1.5544
35398SOL     OW16507   3.078  10.168   3.427 -0.1827 -0.5494  0.7413
35398SOL    HW116508   3.111  10.135   3.344  0.5373 -2.6349  1.7802
35398SOL    HW216509   3.067  10.262   3.413  3.2243 -0.2276 -0.6638
35399SOL     OW16510   3.203  10.377  11.320 -0.1206  0.2667  0.2686
35399SOL    HW116511   3.217  10.322  11.397 -0.7297 -1.7918 -0.9790
35399SOL    HW216512   3.269  10.446  11.327  2.9261 -2.3873  0.4326
35400SOL     OW16513   4.281   9.277   3.073 -0.8117  0.0571 -0.2641
35400SOL    HW116514   4.188   9.294   3.085 -0.9055 -1.0784  0.8770
35400SOL    HW216515   4.324   9.355   3.108 -1.3190  1.1708 -1.9946
35401SOL     OW16516   9.510   2.931   0.982  0.0221  0.1715 -0.8242
35401SOL    HW116517   9.519   2.979   1.064  1.7808 -0.1809 -0.7762
35401SOL    HW216518   9.432   2.876   0.994  0.3325  0.0287  0.6627
35402SOL     OW16519   4.580   0.964   3.633 -0.2349 -0.0219 -0.4197
35402SOL    HW116520   4.583   1.056   3.658  1.8321 -0.5469  1.7009
35402SOL    HW216521   4.504   0.929   3.680 -1.0397  0.5844 -1.2529
35403SOL     OW16522  12.943   9.698  11.207 -0.5292 -0.5874  0.3160
35403SOL    HW116523  12.920   9.608  11.187  0.6529 -0.5654 -1.2624
35403SOL    HW216524  13.024   9.715  11.159 -0.6592  1.2917  0.6497
35404SOL     OW16525   4.627   3.992   4.954 -0.1359  0.2464  0.1114
35404SOL    HW116526   4.691   4.054   4.987 -0.7297  1.1946 -0.4768
35404SOL    HW216527   4.677   3.935   4.894  1.0076 -1.6506  2.6673
35405SOL     OW16528   2.555   1.981   9.805 -0.2305  0.3937 -0.3163
35405SOL    HW116529   2.502   1.994   9.883 -0.8438  2.6699 -1.0227
35405SOL    HW216530   2.575   2.070   9.774  0.0335 -0.4057 -2.6879
35406SOL     OW16531   1.680  12.984   6.775  0.4844  0.0173  0.3651
35406SOL    HW116532   1.738  13.010   6.846  2.5251  0.2704 -1.3160
35406SOL    HW216533   1.678  13.059   6.716  0.8011 -1.0354 -1.0449
35407SOL     OW16534   8.747  10.996  11.127  0.7160 -0.3470  0.1003
35407SOL    HW116535   8.739  10.911  11.170  1.6021 -0.4563  0.0735
35407SOL    HW216536   8.708  10.983  11.040  0.3424 -0.5645  0.2984
35408SOL     OW16537   9.329  10.945   8.538 -0.1013 -0.1487  0.3323
35408SOL    HW116538   9.280  10.898   8.605  0.2141 -1.5383 -0.3674
35408SOL    HW216539   9.378  11.012   8.585 -2.4546  1.1513  1.0871
35409SOL     OW16540  11.208   3.288   5.034  0.2044  0.1313 -0.0924
35409SOL    HW116541  11.286   3.323   4.992  0.8225  0.7630  1.5172
35409SOL    HW216542  11.240   3.239   5.110 -0.9555  0.6852  0.7950
35410SOL     OW16543   1.514   4.876   2.794  0.1337 -0.6981 -0.3446
35410SOL    HW116544   1.493   4.842   2.707  0.1991 -2.3949  0.2513
35410SOL    HW216545   1.434   4.921   2.821 -0.8426 -2.3245 -0.3204
35411SOL     OW16546   4.139   9.910   8.180  0.3179  0.2137  0.1417
35411SOL    HW116547   4.178   9.828   8.211 -2.3842 -1.1038  0.3591
35411SOL    HW216548   4.185   9.928   8.098  2.0098 -0.6821  0.8431
35412SOL     OW16549   3.143  12.212   9.461  0.8114 -0.4710  0.2765
35412SOL    HW116550   3.056  12.172   9.461 -0.9964  3.0695  1.3702
35412SOL    HW216551   3.173  12.204   9.551  0.6089  0.2210  0.4113
35413SOL     OW16552   4.008   7.707   9.229  0.6938  0.0995 -0.2721
35413SOL    HW116553   4.015   7.648   9.304 -3.7287 -2.1289 -1.2753
35413SOL    HW216554   4.098   7.712   9.195  1.8608 -3.7661  1.6163
35414SOL     OW16555   4.995   8.915   7.673 -0.1196 -0.0290 -0.2018
35414SOL    HW116556   4.982   8.885   7.583 -3.2442 -0.9066  0.4155
35414SOL    HW216557   4.927   8.981   7.687  2.2568  2.4480  0.6539
35415SOL     OW16558  12.516   4.394   1.248 -0.4204 -0.5961  0.0728
35415SOL    HW116559  12.440   4.338   1.267  0.0534 -1.4096 -0.3542
35415SOL    HW216560  12.561   4.349   1.176 -0.1513  0.4720 -0.4375
35416SOL     OW16561  10.505   0.811  11.327 -0.2167 -0.5621  0.1913
35416SOL    HW116562  10.425   0.840  11.370  0.7253 -0.1078  1.7067
35416SOL    HW216563  10.574   0.867  11.364  0.6933 -0.3408 -1.7153
35417SOL     OW16564  12.008   8.050  10.490  0.1369 -0.6902  0.6801
35417SOL    HW116565  12.043   7.999  10.564  0.4219 -0.3857  0.7562
35417SOL    HW216566  12.076   8.115  10.472  1.2654 -2.2934 -1.4565
35418SOL     OW16567  12.762   4.523   7.731  0.4533  0.3965  0.7054
35418SOL    HW116568  12.707   4.598   7.709 -1.2200 -0.6724  1.0855
35418SOL    HW216569  12.742   4.505   7.823 -1.1475 -2.0389 -0.0193
35419SOL     OW16570  12.875  12.661   4.214 -0.1628 -0.1079  0.0457
35419SOL    HW116571  12.965  12.651   4.181 -0.4390  2.2112 -1.6367
35419SOL    HW216572  12.824  12.600   4.162  0.2314 -0.3924 -0.0149
35420SOL     OW16573   4.435   7.814  10.502  0.6965 -0.1577 -0.0346
35420SOL    HW116574   4.491   7.889  10.483  1.1037 -0.3439  0.4244
35420SOL    HW216575   4.346   7.847  10.491  0.7504 -0.8258 -4.9149
35421SOL     OW16576   5.383  12.841  11.558 -0.1371  0.0932 -0.0039
35421SOL    HW116577   5.355  12.757  11.521  0.2854 -0.5446  1.0895
35421SOL    HW216578   5.326  12.854  11.633  0.5058  0.2624  0.4563
35422SOL     OW16579  11.994   9.209   9.251  0.2533 -0.2617 -0.2466
35422SOL    HW116580  12.083   9.174   9.259  0.0056 -0.5477  1.5547
35422SOL    HW216581  11.942   9.133   9.224  0.1014 -0.7909  1.4538
35423SOL     OW16582  10.879   8.075   1.616 -0.5334 -0.0091  0.1258
35423SOL    HW116583  10.834   8.032   1.689 -0.2478  0.4789  0.5996
35423SOL    HW216584  10.898   8.163   1.648  2.6594 -0.7913  0.7955
35424SOL     OW16585   1.184   5.406  10.826 -0.0154  0.3442 -0.3046
35424SOL    HW116586   1.098   5.388  10.864  0.8528  0.4360  1.8747
35424SOL    HW216587   1.174   5.386  10.733 -2.0443 -0.8308  0.1040
35425SOL     OW16588   4.631   0.486  12.790 -0.1829  0.3435 -0.2008
35425SOL    HW116589   4.630   0.570  12.836 -0.5054  0.3343 -0.1870
35425SOL    HW216590   4.618   0.508  12.698 -1.2588  0.2515 -0.0898
35426SOL     OW16591   8.739   6.446   6.691  0.4623  0.9590  0.0912
35426SOL    HW116592   8.704   6.469   6.777 -0.5255  1.8301 -0.5146
35426SOL    HW216593   8.662   6.421   6.640  1.1155 -0.1617 -0.3604
35427SOL     OW16594   6.920   9.432   5.558  0.4929 -0.0837  0.2924
35427SOL    HW116595   6.971   9.446   5.638  0.6937 -2.0288  0.5471
35427SOL    HW216596   6.909   9.520   5.522  2.3153  0.6174  1.2730
35428SOL     OW16597   7.555   4.182   5.011  0.2851 -0.8031 -0.1672
35428SOL    HW116598   7.501   4.249   5.054  1.1512 -1.0133  1.3089
35428SOL    HW216599   7.501   4.103   5.012 -0.0729 -0.5658 -0.3586
35429SOL     OW16600   0.396   0.883  10.775  0.6986  0.5414 -0.4624
35429SOL    HW116601   0.333   0.953  10.793 -0.5815 -0.7645  0.4150
35429SOL    HW216602   0.391   0.871  10.680 -1.4762 -0.4554 -0.2851
35430SOL     OW16603  12.834   0.009   9.599  0.3498 -0.2698 -0.0698
35430SOL    HW116604  12.871  -0.024   9.681 -0.0674 -0.4907  0.0315
35430SOL    HW216605  12.888   0.085   9.578  0.3970 -0.1505  0.4618
35431SOL     OW16606   1.127   3.170  11.777 -0.2237  0.0828  0.1643
35431SOL    HW116607   1.205   3.184  11.832  1.3663  0.6026 -2.0572
35431SOL    HW216608   1.102   3.079  11.793  0.3441  0.1425  1.5222
35432SOL     OW16609  11.340   8.775   9.429 -0.4769 -0.1440 -0.1167
35432SOL    HW116610  11.421   8.791   9.477 -1.5666  0.0500  1.7586
35432SOL    HW216611  11.343   8.682   9.406 -0.3985 -0.5397  1.3593
35433SOL     OW16612   6.576   8.406   0.015  0.4661 -0.1228  0.1642
35433SOL    HW116613   6.611   8.449  -0.063  2.1350 -0.5623  0.6311
35433SOL    HW216614   6.647   8.349   0.045  0.9548  2.0199  3.5691
35434SOL     OW16615   4.439   5.794   4.935  0.2525 -0.1565  0.1813
35434SOL    HW116616   4.350   5.785   4.968 -0.1388  1.4745 -0.3382
35434SOL    HW216617   4.429   5.829   4.847  1.3848 -1.3009 -0.4399
35435SOL     OW16618   1.855   1.197   0.798 -0.4468  0.4721  0.0989
35435SOL    HW116619   1.762   1.181   0.782 -0.0656  0.6913 -2.9508
35435SOL    HW216620   1.863   1.292   0.802 -0.3417  0.4555  0.3079
35436SOL     OW16621   0.721   5.327   3.038 -0.1736 -0.8695 -0.0671
35436SOL    HW116622   0.684   5.256   2.987  0.5928 -0.7475 -0.8121
35436SOL    HW216623   0.650   5.392   3.044 -1.2548 -2.1147  1.5497
35437SOL     OW16624  10.590   9.318   0.943 -0.1835 -0.1320 -0.0535
35437SOL    HW116625  10.620   9.385   1.005  1.7020 -1.5527  0.6726
35437SOL    HW216626  10.501   9.296   0.973  0.2309  0.0779  1.4197
35438SOL     OW16627   3.111   1.410  10.498  0.3814  0.0311 -0.5990
35438SOL    HW116628   3.063   1.337  10.459 -0.4224 -0.5790  1.3762
35438SOL    HW216629   3.081   1.487  10.450 -1.4711 -0.5316 -0.4075
35439SOL     OW16630   4.511  10.553  10.586  0.1486 -0.4010 -0.0638
35439SOL    HW116631   4.510  10.645  10.610 -2.5569 -0.2952 -0.3344
35439SOL    HW216632   4.466  10.508  10.657 -0.0385 -1.2743 -0.7090
35440SOL     OW16633   1.530   5.454   3.963 -0.2890 -0.2666 -0.5049
35440SOL    HW116634   1.515   5.446   4.057  1.4759  0.9200 -0.0660
35440SOL    HW216635   1.564   5.543   3.951  0.0649 -0.5846 -2.1907
35441SOL     OW16636   2.690   4.747  10.709 -0.2692 -0.2187  0.1312
35441SOL    HW116637   2.726   4.726  10.623 -1.2146 -0.5478 -0.1990
35441SOL    HW216638   2.600   4.713  10.706  0.7013 -3.5436  2.4608
35442SOL     OW16639  11.430   2.537   1.835  0.2293  0.0102  0.6149
35442SOL    HW116640  11.406   2.493   1.917 -0.2478  0.6770  0.8435
35442SOL    HW216641  11.525   2.531   1.832  0.2897  0.4001  1.4671
35443SOL     OW16642   4.461   2.312   9.801 -1.0015  0.3040 -0.4314
35443SOL    HW116643   4.390   2.376   9.797  0.0309  1.7042  1.7673
35443SOL    HW216644   4.504   2.319   9.715 -2.1095  1.1205 -0.9422
35444SOL     OW16645   2.124   4.879  12.267 -0.7036 -0.2841  0.3311
35444SOL    HW116646   2.170   4.939  12.209 -0.0797 -0.5190  0.5806
35444SOL    HW216647   2.117   4.797  12.217 -0.3190 -0.4327  0.5170
35445SOL     OW16648  10.686  11.317   0.902  0.3974 -0.2366  0.1697
35445SOL    HW116649  10.689  11.260   0.978  1.3012 -2.6703 -1.5909
35445SOL    HW216650  10.597  11.307   0.868 -0.0154  0.8725  0.8345
35446SOL     OW16651   9.475   3.162   4.913 -0.3647 -0.5772  0.4833
35446SOL    HW116652   9.404   3.151   4.850 -0.0192 -0.4622  0.0724
35446SOL    HW216653   9.432   3.198   4.991 -0.7868 -0.6886  0.3072
35447SOL     OW16654  10.545   6.459   8.876  0.1222 -0.0417  0.5537
35447SOL    HW116655  10.526   6.493   8.964 -1.1054 -2.7261  1.4080
35447SOL    HW216656  10.544   6.537   8.820 -1.1501  1.4987  2.5859
35448SOL     OW16657   9.216   3.825   7.963  0.3848  0.3584 -0.4150
35448SOL    HW116658   9.159   3.865   8.028  0.2744  1.3258 -1.0908
35448SOL    HW216659   9.268   3.897   7.928  0.7292 -0.2088 -1.1190
35449SOL     OW16660   4.066   6.104   7.288  0.2382  0.0354 -0.1898
35449SOL    HW116661   4.128   6.092   7.216 -0.1178 -0.6410 -0.4008
35449SOL    HW216662   4.058   6.017   7.327 -1.4179 -0.1717 -0.8799
35450SOL     OW16663   2.272   5.607  10.153  0.2047  0.1077 -0.4151
35450SOL    HW116664   2.317   5.522  10.154 -0.8261 -0.4648  1.7464
35450SOL    HW216665   2.260   5.629  10.245 -0.6203  2.0444 -0.9413
35451SOL     OW16666   3.449  12.871  10.558  0.4865  0.4118 -0.0440
35451SOL    HW116667   3.440  12.776  10.548  1.2904  0.1284  1.6038
35451SOL    HW216668   3.481  12.883  10.647  0.0545  2.2727 -0.1015
35452SOL     OW16669   0.311   1.947   7.856  0.4239 -0.1951 -0.2253
35452SOL    HW116670   0.378   1.897   7.808 -0.1045  0.3251 -1.5529
35452SOL    HW216671   0.330   2.038   7.837 -0.8094 -0.0431 -0.8459
35453SOL     OW16672   2.495  11.245   3.419 -0.2779 -0.2612 -0.4027
35453SOL    HW116673   2.468  11.261   3.329 -0.6553 -1.5776 -0.5415
35453SOL    HW216674   2.418  11.266   3.471 -0.0496  0.5308 -0.3677
35454SOL     OW16675   7.007   2.702   8.271  0.0353 -0.0346  0.1706
35454SOL    HW116676   7.007   2.643   8.346 -0.7317  1.4310  1.3671
35454SOL    HW216677   6.998   2.790   8.309  0.9267  0.8531 -1.5630
35455SOL     OW16678   7.119   2.226   8.844  0.7196  0.3425  0.2233
35455SOL    HW116679   7.043   2.252   8.791  1.2393  0.9301 -0.2462
35455SOL    HW216680   7.162   2.157   8.794  0.0555 -0.5762  0.8749
35456SOL     OW16681  11.227   6.653   6.269  0.5825  0.1160  0.3143
35456SOL    HW116682  11.318   6.628   6.258  0.1617 -1.7280  0.6929
35456SOL    HW216683  11.205   6.628   6.358 -0.6256 -0.6369 -0.1710
35457SOL     OW16684  10.177   8.615   4.093 -0.3213 -0.3696 -0.3043
35457SOL    HW116685  10.215   8.607   4.005 -0.2789 -0.2274 -0.2993
35457SOL    HW216686  10.216   8.544   4.143  2.0155  1.3430  0.4564
35458SOL     OW16687  11.697   1.305   7.012  0.5496 -0.2065  0.6878
35458SOL    HW116688  11.748   1.232   7.048 -0.4452 -0.5185  1.5147
35458SOL    HW216689  11.634   1.263   6.953  1.4450  0.2082 -0.5939
35459SOL     OW16690   8.315   4.402   7.658 -0.2114  0.6262 -0.2392
35459SOL    HW116691   8.356   4.488   7.672 -0.6804  0.9516 -0.8340
35459SOL    HW216692   8.358   4.367   7.580 -1.0014  0.9371 -0.8215
35460SOL     OW16693  12.614   4.765  12.199 -0.1758  0.7831  0.6035
35460SOL    HW116694  12.529   4.735  12.230  1.0649 -2.3447  1.3056
35460SOL    HW216695  12.670   4.765  12.277  1.3437 -0.7681 -0.4130
35461SOL     OW16696   2.506   7.353   8.744 -0.0222 -0.2035 -0.8208
35461SOL    HW116697   2.429   7.407   8.727  0.7162  0.3036 -2.7940
35461SOL    HW216698   2.494   7.276   8.688  0.0391 -1.0285  0.2584
35462SOL     OW16699   1.469   6.296  10.056 -1.0838 -0.1322  0.1106
35462SOL    HW116700   1.418   6.295  10.137  1.2907 -0.2401  1.6878
35462SOL    HW216701   1.557   6.271  10.082 -0.1594  0.0906 -2.4859
35463SOL     OW16702   3.824   5.590  12.247 -0.2304  0.1999  0.8888
35463SOL    HW116703   3.825   5.498  12.220  1.0407  0.9525 -2.0691
35463SOL    HW216704   3.913   5.607  12.278  0.0105  0.7773 -0.0781
35464SOL     OW16705   8.753   2.315  11.636 -0.2456  0.6140  0.3020
35464SOL    HW116706   8.775   2.338  11.546  1.7178 -0.7917  0.3552
35464SOL    HW216707   8.803   2.376  11.690  2.0969 -1.2255  0.3995
35465SOL     OW16708   0.063  11.842  11.939 -0.6685  0.2277  0.2407
35465SOL    HW116709   0.112  11.771  11.980 -0.7964 -0.2463 -0.4217
35465SOL    HW216710   0.116  11.868  11.864 -0.8512  0.5221  0.2104
35466SOL     OW16711   2.657   9.185   8.081 -0.5700  0.1595  0.4926
35466SOL    HW116712   2.751   9.169   8.088 -0.7695 -1.1079  0.4906
35466SOL    HW216713   2.648   9.280   8.091  0.5161  0.0982  2.4440
35467SOL     OW16714   3.988   7.262   1.856  0.1847  0.1768  0.2917
35467SOL    HW116715   3.907   7.302   1.825  1.1246  0.8976 -1.4129
35467SOL    HW216716   4.013   7.313   1.933 -0.9415 -0.0159  0.7884
35468SOL     OW16717   0.240   6.479  11.631  0.2587 -0.2187  0.7079
35468SOL    HW116718   0.204   6.524  11.707  1.8572  2.3282  0.0912
35468SOL    HW216719   0.323   6.443  11.662 -0.4767 -1.8161  0.8935
35469SOL     OW16720   5.287   3.650   6.323  1.4758 -0.1104 -0.1223
35469SOL    HW116721   5.323   3.573   6.278  0.2421 -0.1474 -1.1229
35469SOL    HW216722   5.204   3.665   6.279  1.1488  1.0847  0.8745
35470SOL     OW16723   4.332   2.557   2.993 -0.3044 -0.7016  0.3027
35470SOL    HW116724   4.320   2.585   2.902 -1.5272 -0.8577  0.4005
35470SOL    HW216725   4.411   2.503   2.991 -0.2387 -0.5852 -0.6435
35471SOL     OW16726   4.828   3.573   9.611  0.0244  0.1212 -0.0707
35471SOL    HW116727   4.753   3.539   9.659 -0.8226  0.8327 -0.8456
35471SOL    HW216728   4.888   3.499   9.605 -0.4763 -0.3777  0.8139
35472SOL     OW16729   3.342   5.596   0.573  0.2035  0.0120 -0.3861
35472SOL    HW116730   3.380   5.657   0.636  1.9539  0.5861 -1.9133
35472SOL    HW216731   3.255   5.576   0.609  0.5656  1.4214  1.4379
35473SOL     OW16732  10.834   2.582  11.567  0.1222 -0.1905  0.3610
35473SOL    HW116733  10.897   2.637  11.519  0.7747  1.5651  3.0039
35473SOL    HW216734  10.750   2.624  11.553 -0.2144 -1.4179 -1.5905
35474SOL     OW16735   2.280   0.714   3.913  0.1749  0.6725  0.2118
35474SOL    HW116736   2.242   0.777   3.975 -1.0686 -0.7069  0.9041
35474SOL    HW216737   2.220   0.640   3.913  3.0337 -1.9268  1.8033
35475SOL     OW16738   1.112   7.922  10.824  0.0896 -0.0271  0.0510
35475SOL    HW116739   1.191   7.973  10.839 -1.3410  2.2614  0.2888
35475SOL    HW216740   1.111   7.857  10.894  1.5483  0.1760  0.2738
35476SOL     OW16741  11.520   5.188   2.696  0.0200  0.5185  0.0121
35476SOL    HW116742  11.472   5.131   2.756  0.6727 -0.7658 -0.6486
35476SOL    HW216743  11.602   5.142   2.679 -0.3986  0.5193 -2.3380
35477SOL     OW16744  11.306   8.850   4.358 -0.5358 -0.1570 -0.6197
35477SOL    HW116745  11.382   8.796   4.378  0.4067  1.2960 -0.1319
35477SOL    HW216746  11.231   8.792   4.371  0.4236 -1.3047 -0.0321
35478SOL     OW16747   4.305  12.033   0.198  0.0457 -0.1311 -0.0379
35478SOL    HW116748   4.302  11.965   0.266  0.9756 -0.0713  0.0716
35478SOL    HW216749   4.395  12.032   0.166 -0.0554  0.7150 -0.3822
35479SOL     OW16750   2.514  12.063  10.540  0.1668  0.3052 -0.0642
35479SOL    HW116751   2.599  12.061  10.584 -0.4671 -1.6532  1.2117
35479SOL    HW216752   2.525  12.007  10.463  0.7618  2.2848 -1.4901
35480SOL     OW16753   8.954   4.846   3.445  0.0428 -0.1638 -0.6311
35480SOL    HW116754   9.012   4.870   3.373  0.3653 -0.1877 -0.3788
35480SOL    HW216755   8.958   4.920   3.505 -0.5939  0.0635 -0.8632
35481SOL     OW16756   4.881  12.744   0.796 -0.2015  0.3269  0.0996
35481SOL    HW116757   4.910  12.830   0.764  0.1216  0.3799  0.5210
35481SOL    HW216758   4.925  12.734   0.881 -0.5479 -0.0844  0.2337
35482SOL     OW16759   9.766   2.760   2.372  0.7323  0.4634  0.1781
35482SOL    HW116760   9.812   2.695   2.426  1.2755  0.6965  0.0025
35482SOL    HW216761   9.760   2.720   2.286  0.3307  0.3101  0.2728
35483SOL     OW16762   3.769   2.045  10.101  0.2969  1.0481  0.2695
35483SOL    HW116763   3.783   2.118  10.040  0.4947  0.3622 -0.5223
35483SOL    HW216764   3.768   2.086  10.187  0.3671  1.9951 -0.1659
35484SOL     OW16765   3.692   1.823   1.809 -0.1006  0.7707  0.0211
35484SOL    HW116766   3.700   1.886   1.881 -1.0832 -0.0239  0.8648
35484SOL    HW216767   3.758   1.757   1.828 -0.3080  0.6010  0.1595
35485SOL     OW16768  11.583  12.478   4.091  0.3325  1.0361  0.7563
35485SOL    HW116769  11.665  12.428   4.089  0.1136  0.5900  2.2315
35485SOL    HW216770  11.610  12.568   4.106  0.6474  1.2109 -0.6773
35486SOL     OW16771   7.877   9.188   8.236  0.7444  0.3706 -0.3899
35486SOL    HW116772   7.969   9.186   8.262  0.4157  3.4269  1.5023
35486SOL    HW216773   7.838   9.112   8.279  2.5171 -1.7610 -2.3106
35487SOL     OW16774   0.835   9.933   7.766  1.0471  0.8919  0.5187
35487SOL    HW116775   0.815  10.027   7.772  0.6075  0.8069  0.4443
35487SOL    HW216776   0.805   9.907   7.679  0.2635  0.4803  0.8997
35488SOL     OW16777  10.428   8.650  12.310  0.4368 -0.2631 -0.4639
35488SOL    HW116778  10.332   8.655  12.306  0.1751 -1.3803  2.3157
35488SOL    HW216779  10.457   8.741  12.315 -0.5551  0.0488 -0.2758
35489SOL     OW16780   5.804   5.929   4.706 -0.0140  0.5612  0.8252
35489SOL    HW116781   5.774   6.016   4.730  0.7728  1.1146 -0.1392
35489SOL    HW216782   5.816   5.933   4.611 -0.0991 -0.6388  0.7490
35490SOL     OW16783   9.985   1.539   9.428  0.2585 -0.5747  0.3241
35490SOL    HW116784  10.018   1.609   9.371  3.2944 -1.3168  0.9625
35490SOL    HW216785  10.003   1.570   9.516  2.0779 -2.2672  0.6070
35491SOL     OW16786   2.804   3.060  12.497  0.1899  0.3179 -0.1598
35491SOL    HW116787   2.752   3.132  12.533  1.4197  1.5013 -0.6506
35491SOL    HW216788   2.767   3.044  12.410 -1.0602 -0.7168  0.5291
35492SOL     OW16789  12.311   7.153   7.820 -0.1367 -0.2109  0.1092
35492SOL    HW116790  12.270   7.071   7.793  0.2754 -0.6436  0.7769
35492SOL    HW216791  12.405   7.137   7.811 -0.0322 -0.0235  0.8322
35493SOL     OW16792  11.899  12.752   0.828  0.1222  0.1647 -0.2937
35493SOL    HW116793  11.944  12.717   0.904  0.6915  0.5063 -0.4655
35493SOL    HW216794  11.967  12.759   0.761 -0.2846  0.2517 -0.7049
35494SOL     OW16795   9.947  11.711  10.829 -0.4085  0.2734  0.8376
35494SOL    HW116796   9.896  11.791  10.835  0.8221  1.0405  1.1962
35494SOL    HW216797   9.885  11.646  10.795 -1.8731  0.9328  2.1564
35495SOL     OW16798   3.557   2.286   8.086 -0.6396 -0.0560  0.0212
35495SOL    HW116799   3.564   2.220   8.017 -1.0644 -0.4935  0.3950
35495SOL    HW216800   3.623   2.260   8.151 -0.7114 -0.0376  0.1023
35496SOL     OW16801   0.240   3.609   1.499 -0.4513 -0.2544 -0.0259
35496SOL    HW116802   0.335   3.603   1.494 -0.3757 -0.0910  1.0227
35496SOL    HW216803   0.213   3.527   1.540 -0.7021 -0.0321  0.2620
35497SOL     OW16804   9.800  12.250   5.903 -1.1714  0.3542  0.5881
35497SOL    HW116805   9.832  12.279   5.817 -0.6911  1.4063  1.1188
35497SOL    HW216806   9.794  12.154   5.894  0.6399  0.2600 -0.0369
35498SOL     OW16807   9.946   2.692   6.546  0.1636  0.5785  0.4658
35498SOL    HW116808  10.036   2.711   6.573  0.7893 -0.5167 -0.7900
35498SOL    HW216809   9.940   2.727   6.457 -0.8811  1.2514  0.7813
35499SOL     OW16810   9.533   3.987   2.125 -0.0752  0.0592  0.1731
35499SOL    HW116811   9.559   3.931   2.052 -0.5378  1.8325 -1.4539
35499SOL    HW216812   9.450   4.027   2.096 -1.9675 -1.4855  2.9911
35500SOL     OW16813   9.346   0.007   2.442 -0.4300  0.4602  0.6710
35500SOL    HW116814   9.327   0.033   2.532 -1.5612 -0.0893  0.6142
35500SOL    HW216815   9.320  -0.085   2.438  1.3277 -0.0433  0.2572
35501SOL     OW16816   6.567   9.124  12.168 -0.0286  0.3747  0.4194
35501SOL    HW116817   6.523   9.042  12.193 -1.8071  1.0272 -0.3626
35501SOL    HW216818   6.497   9.177  12.129  0.9505  2.5399  1.4812
35502SOL     OW16819   5.704  12.423   4.700  0.2619  0.2717  0.4541
35502SOL    HW116820   5.694  12.360   4.629  0.0381  0.1349  0.6063
35502SOL    HW216821   5.766  12.488   4.666  0.3863  0.0453  0.2475
35503SOL     OW16822   4.608   0.663   2.494  0.3603  0.1951 -0.4297
35503SOL    HW116823   4.530   0.616   2.525 -0.9058  2.1112 -0.5160
35503SOL    HW216824   4.653   0.600   2.439 -0.2741 -1.4918  0.8620
35504SOL     OW16825   2.794  12.224   1.956 -0.1207  0.3428 -0.5648
35504SOL    HW116826   2.781  12.301   2.012 -1.1601  0.1043 -0.4518
35504SOL    HW216827   2.705  12.195   1.935  0.1919 -2.0609  1.0978
35505SOL     OW16828   5.067   6.293   0.942  0.3514  0.2615 -0.2216
35505SOL    HW116829   4.998   6.360   0.940  0.0187 -0.0569  0.1876
35505SOL    HW216830   5.069   6.259   0.853  1.3940  1.6625 -0.7686
35506SOL     OW16831   3.188  12.073   5.016 -0.1156  0.7044 -0.4635
35506SOL    HW116832   3.147  12.045   5.098  0.6610  1.8223  0.3502
35506SOL    HW216833   3.160  12.009   4.951 -1.2445  0.1346  0.5486
35507SOL     OW16834  10.229  10.191  12.713 -0.1732 -0.1115  0.2119
35507SOL    HW116835  10.139  10.202  12.684 -0.4545 -2.2203  0.1320
35507SOL    HW216836  10.277  10.168  12.634 -0.4306 -3.1611  0.8166
35508SOL     OW16837  11.561   0.977   6.924  0.1511 -0.5132  0.2957
35508SOL    HW116838  11.498   0.992   6.995  0.2679  1.2496  0.0656
35508SOL    HW216839  11.522   1.019   6.848  1.5440  0.5781  0.1357
35509SOL     OW16840   9.601   2.394   2.132  0.2938  0.4245  0.3634
35509SOL    HW116841   9.603   2.419   2.224  2.4615  0.6935  0.2813
35509SOL    HW216842   9.645   2.310   2.128  1.5865  1.1012 -0.5864
35510SOL     OW16843   0.761   2.134   6.096  0.2535  0.1313 -0.5587
35510SOL    HW116844   0.765   2.221   6.057  0.1980  0.4740  0.1988
35510SOL    HW216845   0.848   2.097   6.082  0.7124  0.8359  0.3275
35511SOL     OW16846   6.871   7.473   9.561 -0.0607 -0.4375 -0.3907
35511SOL    HW116847   6.852   7.419   9.638 -1.8695  1.9512  0.9902
35511SOL    HW216848   6.810   7.440   9.494  1.5993 -2.6063 -0.9538
35512SOL     OW16849   7.251   3.683   2.656  0.0337 -0.0773 -0.5063
35512SOL    HW116850   7.288   3.595   2.651  1.6921  0.4783  0.9454
35512SOL    HW216851   7.202   3.685   2.738  3.6856  1.5060  1.9334
35513SOL     OW16852   5.371   9.413  10.024 -0.2762  0.0256  0.2506
35513SOL    HW116853   5.353   9.498   9.983 -0.7180  0.1891  0.7755
35513SOL    HW216854   5.462   9.419  10.052 -0.5971  0.7147  1.1893
35514SOL     OW16855   4.312   4.829   5.842 -0.2913  0.4516  0.0165
35514SOL    HW116856   4.222   4.802   5.826 -0.1984 -0.1059  0.3938
35514SOL    HW216857   4.359   4.807   5.761 -0.4384  0.4717 -0.0729
35515SOL     OW16858   3.070   4.217   3.815 -0.2290 -0.1038  0.2108
35515SOL    HW116859   3.011   4.197   3.742  1.5748  1.2280 -1.7314
35515SOL    HW216860   3.155   4.183   3.787  0.9998  2.3832  0.6336
35516SOL     OW16861   0.915  10.901   9.901  0.9135 -0.1198 -0.1052
35516SOL    HW116862   0.957  10.830   9.949  1.4621 -0.2848 -0.8142
35516SOL    HW216863   0.891  10.964   9.969  1.9562 -0.2039  0.3633
35517SOL     OW16864   6.448  11.070   3.562 -0.2181  0.0610  0.7630
35517SOL    HW116865   6.388  11.138   3.594  0.9002  1.1572  0.6392
35517SOL    HW216866   6.503  11.049   3.638  0.1239  0.0739  0.5224
35518SOL     OW16867  12.858   1.549  10.917 -0.0698 -0.6554 -0.0503
35518SOL    HW116868  12.870   1.611  10.846 -0.7746 -0.9797 -0.4608
35518SOL    HW216869  12.868   1.602  10.997  0.4366 -0.2395 -0.3885
35519SOL     OW16870  11.405   5.899   8.085  0.2016 -0.5561 -0.6714
35519SOL    HW116871  11.418   5.976   8.139 -2.9293  0.1896 -0.7608
35519SOL    HW216872  11.461   5.913   8.009  0.2830  1.2869 -0.3245
35520SOL     OW16873   4.423   4.160  11.904 -0.4722  0.0833  0.9453
35520SOL    HW116874   4.399   4.212  11.827  0.0070 -0.9829  0.0420
35520SOL    HW216875   4.366   4.083  11.900  0.6273 -0.7501  0.7431
35521SOL     OW16876   3.789  11.855   8.844 -0.2776  0.0237 -0.8169
35521SOL    HW116877   3.850  11.907   8.790  0.9870 -0.2614  0.2805
35521SOL    HW216878   3.727  11.919   8.878 -0.3607  0.3886 -1.6185
35522SOL     OW16879   0.198   5.225   6.895 -0.2207  0.0063 -0.0130
35522SOL    HW116880   0.136   5.163   6.856  0.2840 -0.2095 -0.5015
35522SOL    HW216881   0.200   5.299   6.834  1.6808 -0.9676 -1.2676
35523SOL     OW16882   5.758   1.144  10.628  0.4489 -0.1590 -0.1883
35523SOL    HW116883   5.819   1.184  10.565  0.3184  0.8387  0.3082
35523SOL    HW216884   5.798   1.159  10.713 -0.8884  1.2737  0.2235
35524SOL     OW16885   8.022  11.169   2.742 -0.2416 -0.4990  0.3749
35524SOL    HW116886   7.993  11.210   2.823  1.1869  2.6532 -0.5371
35524SOL    HW216887   7.962  11.202   2.675 -0.2721 -1.5540 -0.1309
35525SOL     OW16888   6.944   3.142   8.829  0.1317  0.4530 -0.0275
35525SOL    HW116889   6.922   3.062   8.781  0.7944  0.9980 -1.2930
35525SOL    HW216890   6.885   3.142   8.904 -0.6743 -0.6359 -0.6321
35526SOL     OW16891   2.724   2.496   8.615  0.2920 -0.3392 -0.6869
35526SOL    HW116892   2.737   2.527   8.525 -0.2882 -1.3988 -1.1600
35526SOL    HW216893   2.809   2.461   8.641  0.7994  1.0754 -0.3530
35527SOL     OW16894   2.655   2.972   0.155 -0.0663  0.1040 -0.0383
35527SOL    HW116895   2.638   2.926   0.237  0.0364  1.9767  1.0794
35527SOL    HW216896   2.693   2.905   0.098 -0.2598 -1.2734  1.3841
35528SOL     OW16897   1.372  10.012   2.140 -0.2673  0.4964 -0.3908
35528SOL    HW116898   1.330   9.950   2.080 -0.3895  0.0493  0.1526
35528SOL    HW216899   1.300  10.064   2.175 -0.0580  1.7425 -1.7167
35529SOL     OW16900   1.038  10.312   3.459 -0.6275 -0.0069  0.4054
35529SOL    HW116901   0.951  10.290   3.494 -0.1244  0.3337  1.9671
35529SOL    HW216902   1.052  10.403   3.487 -0.5627  0.6384 -1.5594
35530SOL     OW16903   5.171   6.209   7.286  0.2719  0.4848 -0.0439
35530SOL    HW116904   5.188   6.122   7.248 -0.3214  0.2078  0.3146
35530SOL    HW216905   5.250   6.260   7.265  0.3700  0.0405 -0.7821
35531SOL     OW16906   1.862   0.157   0.357 -0.0997  0.5797  0.0649
35531SOL    HW116907   1.881   0.098   0.285  1.1802  1.0958 -0.0356
35531SOL    HW216908   1.773   0.134   0.384  0.0120 -0.7106 -0.6098
35532SOL     OW16909  12.964   7.232   2.477 -0.2402 -0.1945 -1.4052
35532SOL    HW116910  13.009   7.157   2.438 -2.6338 -1.3480 -2.1443
35532SOL    HW216911  12.949   7.206   2.568 -0.2812 -0.2493 -1.4271
35533SOL     OW16912   1.643   9.808   0.898 -0.4558 -0.5707 -0.3858
35533SOL    HW116913   1.633   9.895   0.860  0.2991 -0.5665 -0.5791
35533SOL    HW216914   1.562   9.794   0.948 -1.3244 -0.4430 -1.7224
35534SOL     OW16915   4.491  12.006   7.787  0.1431 -1.1279 -0.1322
35534SOL    HW116916   4.416  11.979   7.839  0.9510 -1.1761  1.0480
35534SOL    HW216917   4.477  12.100   7.772  1.2247 -0.4371  2.5955
35535SOL     OW16918  10.788   5.949  11.354 -1.2333  0.4287 -0.2093
35535SOL    HW116919  10.817   5.929  11.443 -0.7743 -0.5987 -0.5833
35535SOL    HW216920  10.727   6.022  11.365 -1.9396 -0.3238  1.0430
35536SOL     OW16921   5.290   7.733   8.758 -0.6916  0.1116 -0.2522
35536SOL    HW116922   5.382   7.714   8.737 -0.2697  0.2311  1.3067
35536SOL    HW216923   5.263   7.795   8.691  1.3084  2.3409  0.8167
35537SOL     OW16924   9.265   0.786   4.990  0.0922  0.4747  0.3678
35537SOL    HW116925   9.267   0.858   5.053  0.8586  0.2140  0.6461
35537SOL    HW216926   9.178   0.746   5.002  0.8130 -0.5969  2.4369
35538SOL     OW16927  12.563   6.112   6.068  0.4230 -0.0793 -0.5568
35538SOL    HW116928  12.642   6.163   6.052  0.1567 -0.4667 -3.7894
35538SOL    HW216929  12.582   6.026   6.029 -0.1064 -1.6547  2.4025
35539SOL     OW16930   2.470   4.112   4.008  0.2199 -0.3416 -0.1058
35539SOL    HW116931   2.397   4.164   3.976  0.3918  1.2541  1.8806
35539SOL    HW216932   2.486   4.048   3.939 -0.5230  1.7042 -2.3067
35540SOL     OW16933   6.781  12.256   0.189  0.1308 -0.1760  0.6016
35540SOL    HW116934   6.833  12.219   0.118  0.4647 -0.9408  1.2317
35540SOL    HW216935   6.704  12.201   0.194  0.6441 -0.8355  1.5673
35541SOL     OW16936   9.207   4.798   0.812  0.4497  0.3307 -0.0111
35541SOL    HW116937   9.209   4.706   0.839  1.4735  0.5494  0.7056
35541SOL    HW216938   9.126   4.806   0.762 -1.3259 -0.2374  2.5790
35542SOL     OW16939   3.572   0.638   8.798  0.0190  0.1208  0.5660
35542SOL    HW116940   3.639   0.647   8.729  0.7801 -1.2802  1.0870
35542SOL    HW216941   3.492   0.673   8.758  0.3664 -0.9352 -1.1722
35543SOL     OW16942   5.583  11.403   2.033  0.0378 -0.0130 -0.6235
35543SOL    HW116943   5.493  11.415   2.064  0.1540  0.9466 -0.6367
35543SOL    HW216944   5.597  11.474   1.971  0.3431 -0.9898 -1.6971
35544SOL     OW16945  11.757  11.828   4.702  0.0355  0.2034  0.4247
35544SOL    HW116946  11.771  11.852   4.610 -0.1185  0.5166  0.4796
35544SOL    HW216947  11.677  11.875   4.726 -0.0234 -0.0209  0.6679
35545SOL     OW16948  10.771  11.652   8.879  0.2148 -0.3517 -0.3028
35545SOL    HW116949  10.808  11.740   8.886 -0.6771  0.0139 -0.1100
35545SOL    HW216950  10.846  11.594   8.891  0.5935  0.3692  1.0332
35546SOL     OW16951   6.809   9.119   8.229 -0.4691  0.0577  0.3490
35546SOL    HW116952   6.715   9.117   8.247 -0.1662 -0.1763  2.0495
35546SOL    HW216953   6.849   9.148   8.311  0.9827 -0.3549 -0.1806
35547SOL     OW16954  11.189   2.186   3.142  0.0216  0.3818 -0.0086
35547SOL    HW116955  11.181   2.248   3.069  1.0375 -0.0816 -0.5303
35547SOL    HW216956  11.099   2.176   3.175 -0.4006  0.8553 -0.9782
35548SOL     OW16957   3.614   6.773   9.255  0.0938 -0.1369  0.3486
35548SOL    HW116958   3.523   6.743   9.255  0.3997 -1.3997 -2.3551
35548SOL    HW216959   3.660   6.709   9.310 -0.4655 -0.1500  0.8146
35549SOL     OW16960   2.625   9.575   3.525 -0.1290  0.0341 -0.0170
35549SOL    HW116961   2.554   9.510   3.527 -1.3557  1.3271  0.5566
35549SOL    HW216962   2.622   9.611   3.437  0.8319 -0.9366 -0.4734
35550SOL     OW16963  10.617   0.341   8.295  0.3936 -0.2332  0.1958
35550SOL    HW116964  10.705   0.323   8.262  1.0086  0.9126  1.1204
35550SOL    HW216965  10.620   0.317   8.388  0.8469  2.9723  1.1404
35551SOL     OW16966  11.855  11.214   9.194 -0.0914  0.2627  0.1228
35551SOL    HW116967  11.874  11.151   9.124 -0.0273 -0.1515  0.5073
35551SOL    HW216968  11.794  11.168   9.252  0.8440  0.1054  1.0304
35552SOL     OW16969  12.626  12.460   5.017  0.1048 -0.3067  0.0202
35552SOL    HW116970  12.608  12.376   5.058  0.1325 -1.0246 -1.3621
35552SOL    HW216971  12.615  12.444   4.923  2.1069  0.6913 -0.4533
35553SOL     OW16972   8.724   7.780   0.867  0.2268 -0.3267  0.0433
35553SOL    HW116973   8.805   7.813   0.828 -0.0596  0.9971  0.4893
35553SOL    HW216974   8.698   7.707   0.811  1.5519 -0.5638 -0.2908
35554SOL     OW16975   1.576  10.305   2.348 -0.8595  0.0527 -0.1893
35554SOL    HW116976   1.579  10.400   2.348 -0.1528  0.0369 -0.0343
35554SOL    HW216977   1.585  10.280   2.256 -1.7258  0.1487 -0.3024
35555SOL     OW16978  12.726  11.006   1.733 -0.0270 -0.4573 -0.0314
35555SOL    HW116979  12.813  11.026   1.767  0.1733 -0.9512 -0.2383
35555SOL    HW216980  12.679  11.089   1.735  0.8307  0.0750 -1.0667
35556SOL     OW16981   6.587  11.278   4.823  0.2180  0.2680 -0.7138
35556SOL    HW116982   6.561  11.214   4.889 -0.5810  0.7517 -0.5455
35556SOL    HW216983   6.505  11.305   4.781  0.3467  2.2243  0.1864
35557SOL     OW16984   1.725   3.187   3.670 -0.1368 -0.2855  0.3806
35557SOL    HW116985   1.815   3.192   3.702 -0.3967  0.1734  1.0574
35557SOL    HW216986   1.732   3.203   3.575  0.4081  0.5480  0.5528
35558SOL     OW16987   6.454   4.472   6.397  0.1393 -0.1466 -0.3448
35558SOL    HW116988   6.426   4.398   6.451  1.5003 -0.4099  0.0474
35558SOL    HW216989   6.542   4.492   6.429  1.4913 -1.0377 -3.1899
35559SOL     OW16990  10.111   6.534   0.880  0.0769  0.7752 -0.6136
35559SOL    HW116991  10.087   6.517   0.789  0.4006 -0.3902 -0.4924
35559SOL    HW216992  10.070   6.464   0.929 -0.9239  1.9495  0.2815
35560SOL     OW16993   5.668   8.271   9.399 -0.0396  0.1196 -0.5834
35560SOL    HW116994   5.607   8.332   9.357  0.9089  0.9470 -0.8118
35560SOL    HW216995   5.633   8.259   9.487 -1.4745 -0.8004 -1.2430
35561SOL     OW16996   5.336   5.645   3.236 -0.5895 -0.0930  0.0190
35561SOL    HW116997   5.312   5.578   3.172  1.0398 -1.4319  0.7358
35561SOL    HW216998   5.300   5.726   3.200 -0.6136 -0.9649 -2.0728
35562SOL     OW16999   5.907   2.212   6.917 -0.9883 -0.2949  0.1128
35562SOL    HW117000   5.868   2.132   6.881 -1.1532  0.3022 -1.1178
35562SOL    HW217001   5.845   2.281   6.894  0.8906  0.7548 -2.2757
35563SOL     OW17002   4.148   6.829   2.475  0.7633 -0.4891 -0.0222
35563SOL    HW117003   4.063   6.873   2.463  0.5433 -0.6646  0.8156
35563SOL    HW217004   4.179   6.813   2.386  1.6610  2.8480 -0.4495
35564SOL     OW17005  10.374   3.499   1.921  0.4741 -0.5459 -0.4783
35564SOL    HW117006  10.395   3.422   1.974 -0.8139 -0.9111 -0.4495
35564SOL    HW217007  10.458   3.527   1.885  1.4946 -0.0511  2.0287
35565SOL     OW17008   7.781   7.781  10.459 -0.4637 -0.5077 -0.1193
35565SOL    HW117009   7.843   7.708  10.465  0.3922  0.2511  0.5001
35565SOL    HW217010   7.835   7.856  10.434 -0.8958  0.4521  1.6802
35566SOL     OW17011   8.105   6.142   3.730 -0.1819 -0.0879  0.3425
35566SOL    HW117012   8.174   6.084   3.763 -1.8569 -2.8476 -0.7015
35566SOL    HW217013   8.130   6.229   3.762  2.7712 -1.2433  1.5312
35567SOL     OW17014   1.583   5.503  10.054  0.3750 -0.1022  0.5730
35567SOL    HW117015   1.546   5.572   9.999  2.3536  1.0286  0.5612
35567SOL    HW217016   1.661   5.543  10.094  0.3530 -1.6435  2.3103
35568SOL     OW17017   3.222  12.690  12.220  0.1939 -0.1783  0.0016
35568SOL    HW117018   3.156  12.623  12.236 -0.2566  0.4223  0.7397
35568SOL    HW217019   3.295  12.643  12.179 -0.4531 -0.9531 -0.2859
35569SOL     OW17020   8.863   9.442   1.370  0.1897 -0.1951 -0.1889
35569SOL    HW117021   8.896   9.531   1.354  0.1970 -0.0664  0.4831
35569SOL    HW217022   8.774   9.443   1.336  0.0099  0.2347  0.2807
35570SOL     OW17023   7.574   1.036   6.614 -0.3003  0.3341 -0.4266
35570SOL    HW117024   7.526   1.080   6.544 -2.1245  0.1055  0.6237
35570SOL    HW217025   7.585   1.104   6.681 -0.1845  0.0697 -0.1796
35571SOL     OW17026   1.457   5.083  12.051  0.0290 -0.6576  0.3112
35571SOL    HW117027   1.411   5.004  12.079 -0.3053 -0.7818 -0.5586
35571SOL    HW217028   1.477   5.129  12.132  0.4897 -1.7748  0.8596
35572SOL     OW17029  12.841  11.870   8.899  0.1442 -0.4168  0.3937
35572SOL    HW117030  12.746  11.855   8.905  0.1286 -0.0667  1.0983
35572SOL    HW217031  12.874  11.849   8.986  0.2966  2.3251  1.0698
35573SOL     OW17032   6.236  11.467   6.998  0.8264 -0.2905  0.1126
35573SOL    HW117033   6.302  11.529   6.968 -0.3289  1.7957  1.6129
35573SOL    HW217034   6.156  11.519   7.004 -0.2244 -1.9654  1.3350
35574SOL     OW17035   1.943   7.250  10.555 -0.0665  0.2159 -0.4496
35574SOL    HW117036   1.856   7.287  10.543 -0.3161 -0.5634 -1.1680
35574SOL    HW217037   1.947   7.178  10.492  0.6971 -0.4465  0.3255
35575SOL     OW17038   0.272   9.439   0.005 -0.0067 -0.3472  0.6911
35575SOL    HW117039   0.246   9.405   0.091  0.2568  0.2773  1.0283
35575SOL    HW217040   0.367   9.437   0.006  0.0817  1.5000  1.2165
35576SOL     OW17041   9.445   1.202   9.313  0.0134  0.5092 -0.1098
35576SOL    HW117042   9.364   1.175   9.271  1.2205 -0.5507 -1.8491
35576SOL    HW217043   9.465   1.132   9.376  0.8299 -0.5072 -1.4538
35577SOL     OW17044  11.200   3.882  12.252 -0.5335 -0.0885  0.0795
35577SOL    HW117045  11.243   3.802  12.283 -1.1773 -0.4946 -0.0588
35577SOL    HW217046  11.152   3.854  12.174  0.8476  0.8490 -1.1786
35578SOL     OW17047   6.412  11.238   2.728  0.5780  0.3056 -0.9092
35578SOL    HW117048   6.408  11.286   2.646 -3.3486  0.8415 -0.5730
35578SOL    HW217049   6.396  11.304   2.795 -1.7771 -0.8806 -0.2092
35579SOL     OW17050   0.802   7.711  11.900  0.2261  0.6293  0.5740
35579SOL    HW117051   0.749   7.660  11.961  1.6504 -1.7139  0.0050
35579SOL    HW217052   0.744   7.730  11.826 -0.4758  0.2604  1.0260
35580SOL     OW17053   2.574   0.826   4.096 -0.0332 -0.5175  0.7517
35580SOL    HW117054   2.666   0.852   4.086 -0.5422  0.5370 -2.7794
35580SOL    HW217055   2.543   0.877   4.171  1.8954  0.2522  1.0979
35581SOL     OW17056  11.796   1.187   0.404 -0.0457 -0.1026  0.4162
35581SOL    HW117057  11.861   1.255   0.387  0.7489 -0.5109  1.6791
35581SOL    HW217058  11.745   1.182   0.323  1.8563 -0.1591 -0.8663
35582SOL     OW17059   8.765   4.740   5.509 -0.0942  0.4330  0.2241
35582SOL    HW117060   8.839   4.796   5.535 -0.5027  0.6697  0.8955
35582SOL    HW217061   8.688   4.793   5.528 -0.4687 -0.1719  0.3803
35583SOL     OW17062  11.173   6.572   9.049  0.0463 -0.1433  0.1410
35583SOL    HW117063  11.152   6.649   9.101  1.2211  1.1257 -1.1554
35583SOL    HW217064  11.199   6.506   9.113  1.4260  1.3487  1.2092
35584SOL     OW17065   1.652  12.677   9.717  0.7031 -0.5700  0.1462
35584SOL    HW117066   1.673  12.730   9.794  0.5327  0.4443 -0.4767
35584SOL    HW217067   1.612  12.598   9.753  0.8055 -0.2067  1.1082
35585SOL     OW17068   5.557   2.338  12.473 -0.5822 -0.2256  0.0713
35585SOL    HW117069   5.578   2.353  12.381  0.0364 -0.7305  0.1245
35585SOL    HW217070   5.586   2.418  12.517 -0.4620 -0.1689 -0.1089
35586SOL     OW17071   3.978   6.744   1.294  0.3708 -0.3139  0.0338
35586SOL    HW117072   3.962   6.705   1.208  1.6516 -1.2706  0.2013
35586SOL    HW217073   4.031   6.679   1.341 -1.2353 -0.3144  1.9839
35587SOL     OW17074   0.387   4.035   7.397  0.0382 -1.1567  0.3753
35587SOL    HW117075   0.329   4.086   7.341  0.3803 -2.6586 -1.4710
35587SOL    HW217076   0.390   4.083   7.479  0.0016  1.5373 -1.0753
35588SOL     OW17077   8.710   1.583   7.780 -0.0033 -0.4132  0.1267
35588SOL    HW117078   8.774   1.649   7.810  0.7872 -1.5083  0.9223
35588SOL    HW217079   8.634   1.597   7.836  0.1562 -0.1612  0.2858
35589SOL     OW17080   7.493  10.003   3.354 -0.0971 -0.0224  0.1388
35589SOL    HW117081   7.419   9.942   3.352  1.1680 -1.6217 -2.5602
35589SOL    HW217082   7.570   9.948   3.339  1.5513  1.8009  1.3306
35590SOL     OW17083   5.291  12.765   9.958  0.8342  0.4083  0.3488
35590SOL    HW117084   5.276  12.679   9.920 -2.4685  1.5849 -1.3824
35590SOL    HW217085   5.263  12.756  10.049 -0.8403 -0.0546 -0.1842
35591SOL     OW17086  10.261   8.182   8.750 -0.7493 -0.0486 -0.0631
35591SOL    HW117087  10.215   8.235   8.684 -0.5397 -0.9004 -0.9243
35591SOL    HW217088  10.336   8.145   8.702  0.3782  0.6549  1.0999
35592SOL     OW17089   3.367   6.538   4.609  0.3010 -0.1963 -0.1249
35592SOL    HW117090   3.371   6.601   4.537  0.8508  2.6319  2.1946
35592SOL    HW217091   3.362   6.453   4.566 -1.8038  1.4215 -3.4748
35593SOL     OW17092   5.272  10.342   5.512 -0.0241 -0.1243 -0.5981
35593SOL    HW117093   5.258  10.383   5.426  2.4378 -1.7942 -1.9191
35593SOL    HW217094   5.295  10.251   5.491  2.1199 -0.2130  1.7117
35594SOL     OW17095   4.354   8.309   5.886  0.5048  0.4925 -0.2952
35594SOL    HW117096   4.368   8.289   5.794 -1.0687 -0.9560 -0.2675
35594SOL    HW217097   4.375   8.228   5.932 -0.4587  0.6374  0.4272
35595SOL     OW17098   7.401   4.405   7.228  0.3101 -0.3006  0.5805
35595SOL    HW117099   7.328   4.344   7.213  1.3978 -2.1404  2.2136
35595SOL    HW217100   7.448   4.407   7.145 -1.3209  0.5953 -0.3681
35596SOL     OW17101  12.575   2.499   5.642 -0.3098 -0.0778  0.6349
35596SOL    HW117102  12.550   2.474   5.553 -0.9402  1.1752  0.4307
35596SOL    HW217103  12.626   2.580   5.630 -0.0031 -0.1540  1.3760
35597SOL     OW17104   4.521   2.783   8.263 -0.5823 -0.0904  0.6573
35597SOL    HW117105   4.538   2.710   8.203 -0.9182  0.8109 -0.5901
35597SOL    HW217106   4.436   2.818   8.234 -0.6558  0.4892  1.5403
35598SOL     OW17107   1.413   9.990   3.163  0.0228 -0.6865  0.1810
35598SOL    HW117108   1.391  10.074   3.203  0.8122 -1.0292  1.3762
35598SOL    HW217109   1.467  10.014   3.087 -0.9673 -0.0604 -0.3418
35599SOL     OW17110  11.073   6.759   9.189  0.3452 -0.4240 -0.3610
35599SOL    HW117111  11.008   6.810   9.141 -1.3528 -0.7569  1.4783
35599SOL    HW217112  11.149   6.817   9.195 -0.8859  1.2027  0.1048
35600SOL     OW17113   1.688  12.533   2.517 -0.9502  0.0796 -0.1514
35600SOL    HW117114   1.687  12.438   2.529  1.8830 -0.3197 -2.1032
35600SOL    HW217115   1.621  12.549   2.450 -1.2608 -0.5679 -0.0024
35601SOL     OW17116   6.048   7.576  10.138  0.2050 -0.1472 -0.2659
35601SOL    HW117117   6.123   7.517  10.128  0.6142  0.5007 -1.1130
35601SOL    HW217118   5.983   7.541  10.076  0.5705  0.4575 -1.0138
35602SOL     OW17119   6.265  10.752  12.276 -0.6119 -0.6599  0.1916
35602SOL    HW117120   6.214  10.802  12.211  1.3051 -0.0017 -0.8862
35602SOL    HW217121   6.268  10.664  12.240 -1.4066 -0.8321  0.5282
35603SOL     OW17122   7.136   2.131   4.148  0.2720  0.4021  0.2963
35603SOL    HW117123   7.092   2.200   4.098 -0.1907 -0.7835 -1.0093
35603SOL    HW217124   7.201   2.095   4.087 -1.1063 -1.8769  0.0231
35604SOL     OW17125   7.862   4.537  11.210 -0.6972 -0.2118 -0.1527
35604SOL    HW117126   7.931   4.480  11.176  1.3852  1.1749  1.4703
35604SOL    HW217127   7.874   4.619  11.163 -1.1203  0.1264  0.3296
35605SOL     OW17128  10.446   4.035   7.065 -0.3113 -0.0357 -0.2303
35605SOL    HW117129  10.506   4.009   7.135  0.8606 -0.1970 -1.2559
35605SOL    HW217130  10.421   3.952   7.024 -1.3401  0.0233  0.2623
35606SOL     OW17131   5.344   3.708   2.425  0.1255 -0.6081 -0.6826
35606SOL    HW117132   5.314   3.727   2.336  0.3654  1.5542 -0.3591
35606SOL    HW217133   5.347   3.794   2.467  1.9438 -1.3551  0.8110
35607SOL     OW17134   0.229  10.652   7.562  0.0431  0.1189 -0.0301
35607SOL    HW117135   0.245  10.559   7.576 -0.6698 -0.3090 -1.7849
35607SOL    HW217136   0.145  10.655   7.516  0.3171  1.5809 -0.4855
35608SOL     OW17137   1.474   7.476   9.443  0.1211  0.1796 -0.5023
35608SOL    HW117138   1.540   7.522   9.495  1.0550 -1.1301 -0.4726
35608SOL    HW217139   1.462   7.530   9.365 -0.0477  1.2993  0.2774
35609SOL     OW17140   8.856   0.464   2.744  0.5651  0.0048 -0.2982
35609SOL    HW117141   8.849   0.549   2.701 -0.6987  0.7418  1.2500
35609SOL    HW217142   8.906   0.482   2.823  0.2680 -0.6891  0.0535
35610SOL     OW17143   9.624  10.153   5.860  0.0716 -0.2562 -0.3634
35610SOL    HW117144   9.632  10.061   5.834  2.4477 -0.4928  0.8926
35610SOL    HW217145   9.552  10.154   5.922 -1.1940 -0.8906 -1.7711
35611SOL     OW17146   9.050   0.220   8.694 -0.5473  0.2709  0.0051
35611SOL    HW117147   9.127   0.277   8.684 -0.3802 -0.2065 -1.8273
35611SOL    HW217148   9.083   0.142   8.738 -0.4247  0.8677  1.0096
35612SOL     OW17149   5.092   1.471   8.958 -0.2332 -0.3703 -0.0111
35612SOL    HW117150   5.110   1.469   8.864 -0.3776  2.4463 -0.2022
35612SOL    HW217151   5.020   1.533   8.967  0.9247  0.8082  2.0625
35613SOL     OW17152   9.443  11.082   6.200  0.0921 -0.1551 -0.3505
35613SOL    HW117153   9.366  11.026   6.185  0.3922 -0.5538 -0.4120
35613SOL    HW217154   9.409  11.171   6.194 -0.3848 -0.3294 -0.2882
35614SOL     OW17155   4.704   9.164   3.144  0.4341  0.5920 -0.1483
35614SOL    HW117156   4.717   9.087   3.089  1.1868  0.0997  0.6901
35614SOL    HW217157   4.672   9.130   3.227 -3.8101  1.5482 -1.1568
35615SOL     OW17158  11.464   3.817   2.416  0.0708 -0.6632  0.4485
35615SOL    HW117159  11.468   3.866   2.498  2.1292 -0.6186  0.3900
35615SOL    HW217160  11.390   3.758   2.426 -0.6398  0.3827  1.7149
35616SOL     OW17161  12.281   5.560   9.296 -0.4017 -0.1217  0.4325
35616SOL    HW117162  12.262   5.512   9.216  2.2586 -0.9795  0.2479
35616SOL    HW217163  12.291   5.651   9.268  1.4890 -0.5569 -0.4335
35617SOL     OW17164   3.609   0.915   5.037 -0.4783  0.0607 -0.2055
35617SOL    HW117165   3.668   0.899   4.963 -0.5183  1.2983 -0.5291
35617SOL    HW217166   3.541   0.972   5.001 -1.9514 -1.4176  0.1401
35618SOL     OW17167   9.604   9.991   0.318  0.1927 -0.8271 -0.6792
35618SOL    HW117168   9.585  10.075   0.360  2.4087 -0.4530 -0.2739
35618SOL    HW217169   9.566   9.999   0.231 -1.2914 -0.1733 -0.0013
35619SOL     OW17170   9.331   1.324   3.917  0.1401 -0.5609  0.1030
35619SOL    HW117171   9.278   1.325   3.997  0.2629 -0.7927  0.1863
35619SOL    HW217172   9.339   1.417   3.892  0.5725 -0.4424  0.6680
35620SOL     OW17173   9.528   7.182   9.731 -0.0046  0.5363  0.2929
35620SOL    HW117174   9.455   7.182   9.793 -0.2178  0.5127  0.0414
35620SOL    HW217175   9.603   7.211   9.782 -0.0187 -0.2168  0.7619
35621SOL     OW17176   4.022  11.128   5.786 -0.4831  0.1238 -0.3945
35621SOL    HW117177   4.101  11.076   5.801 -0.2833 -0.0963 -1.9825
35621SOL    HW217178   4.035  11.208   5.837  1.3825  0.6675 -1.6016
35622SOL     OW17179   1.605   9.080   7.647 -0.3832  0.0989 -0.1183
35622SOL    HW117180   1.601   9.156   7.705  0.3298 -0.7101  1.0144
35622SOL    HW217181   1.537   9.097   7.582 -2.4649  0.1749  1.9722
35623SOL     OW17182   1.125   0.086   3.051  0.1028  0.1438 -0.2740
35623SOL    HW117183   1.157  -0.005   3.050  0.1365  0.1576 -0.9672
35623SOL    HW217184   1.198   0.136   3.088  0.4586  0.0216 -0.7997
35624SOL     OW17185   1.371   1.806  12.250  1.2636 -0.1719 -0.1610
35624SOL    HW117186   1.334   1.884  12.209 -0.6812 -0.1031  1.5709
35624SOL    HW217187   1.296   1.749  12.265  2.5449 -2.1019 -0.6969
35625SOL     OW17188   3.994   7.070   3.131 -0.2222  0.1486 -0.0113
35625SOL    HW117189   3.907   7.091   3.163 -0.2015 -0.7179  0.6411
35625SOL    HW217190   4.036   7.023   3.203  0.3457 -0.5349 -0.7622
35626SOL     OW17191  10.285  11.006   6.741  0.1821 -0.2251 -0.7882
35626SOL    HW117192  10.316  11.065   6.810 -0.0740 -0.7759 -0.1861
35626SOL    HW217193  10.365  10.974   6.699  0.3315  0.3223 -0.9256
35627SOL     OW17194  10.643   1.210   7.681 -0.6703  0.2782  0.1132
35627SOL    HW117195  10.613   1.128   7.642  0.1952 -0.1377  0.2806
35627SOL    HW217196  10.700   1.182   7.753  0.9932  1.0004 -0.8658
35628SOL     OW17197   7.407  10.850   3.248  0.0501 -0.3049  0.7395
35628SOL    HW117198   7.417  10.937   3.285 -1.4504 -0.0222  0.5656
35628SOL    HW217199   7.419  10.790   3.322 -0.2484  0.1201  1.1370
35629SOL     OW17200  11.284   9.366   9.585 -0.3026  0.0852 -0.2367
35629SOL    HW117201  11.261   9.287   9.634 -1.6201  0.0712 -0.8538
35629SOL    HW217202  11.346   9.335   9.519  0.0814 -0.2155  0.2530
35630SOL     OW17203   0.249   9.178   0.497  0.7357  0.1180  0.0029
35630SOL    HW117204   0.260   9.227   0.415  2.2479 -2.4466 -1.4729
35630SOL    HW217205   0.155   9.178   0.512  0.6304  3.2825  0.0733
35631SOL     OW17206   5.532   5.025   8.096 -0.3556  0.4944 -0.7568
35631SOL    HW117207   5.521   5.067   8.011  1.2932  1.3637 -0.5642
35631SOL    HW217208   5.616   4.981   8.090 -0.4088  0.2310  0.3009
35632SOL     OW17209   4.189  10.304   5.307  0.0281 -0.2364 -0.0064
35632SOL    HW117210   4.143  10.326   5.388 -0.6082  0.6316 -0.5844
35632SOL    HW217211   4.181  10.382   5.253 -0.5124 -1.1848 -1.3403
35633SOL     OW17212   2.607   6.984  10.389  0.1375  0.3590 -0.2702
35633SOL    HW117213   2.650   6.975  10.474  0.0459 -1.0773 -0.3508
35633SOL    HW217214   2.525   7.028  10.408 -1.8580 -3.4974  1.1348
35634SOL     OW17215   9.112  11.440   8.953 -0.0484  0.1905 -0.1376
35634SOL    HW117216   9.099  11.527   8.990  0.3196  0.0793  0.2702
35634SOL    HW217217   9.027  11.397   8.960 -0.2503  0.5371 -0.4087
35635SOL     OW17218  12.437   9.866   6.325  0.2947  0.2194 -0.3279
35635SOL    HW117219  12.517   9.917   6.313  1.0663 -0.8036  0.3028
35635SOL    HW217220  12.458   9.805   6.396 -1.0728 -0.0255 -0.1004
35636SOL     OW17221   8.409   3.283   7.991 -0.2387 -0.8274  0.6919
35636SOL    HW117222   8.502   3.261   7.985 -0.1059  0.0667 -1.2338
35636SOL    HW217223   8.404   3.374   7.962 -1.9292 -1.4179 -1.0713
35637SOL     OW17224   5.470   9.361   2.182 -0.9726 -0.3901 -0.4287
35637SOL    HW117225   5.435   9.375   2.270  0.6892  0.5010  0.1354
35637SOL    HW217226   5.530   9.288   2.191  3.4879  2.9716  0.6096
35638SOL     OW17227   7.525   7.793   8.939 -0.2505  0.1784 -0.3191
35638SOL    HW117228   7.618   7.807   8.956 -0.1397  0.8469 -1.3945
35638SOL    HW217229   7.505   7.710   8.982  0.6396  0.4297  0.6341
35639SOL     OW17230  11.757   6.041   2.194 -0.4051 -0.3121 -0.1118
35639SOL    HW117231  11.838   6.018   2.147 -0.0881 -0.3534  0.4392
35639SOL    HW217232  11.763   6.135   2.208  0.4189 -0.5479  1.4641
35640SOL     OW17233   4.041   3.010   7.910 -0.4240  0.8547 -0.0751
35640SOL    HW117234   3.951   3.020   7.879  0.2259  0.7089 -2.1812
35640SOL    HW217235   4.058   3.088   7.961 -1.6312  1.0486  0.0538
35641SOL     OW17236   0.221   3.777   6.402 -0.3118  0.1978  0.2485
35641SOL    HW117237   0.244   3.749   6.490  1.4240  0.3548 -0.1109
35641SOL    HW217238   0.141   3.728   6.381  1.0674 -2.4287  0.6747
35642SOL     OW17239   7.756  11.619   2.027 -0.0117  0.1349  0.3705
35642SOL    HW117240   7.712  11.538   2.052  0.1734 -0.0175  0.2008
35642SOL    HW217241   7.711  11.648   1.948 -1.0239  0.9549  1.2093
35643SOL     OW17242   2.226   6.356   6.863 -0.0918  0.1670 -0.4374
35643SOL    HW117243   2.145   6.305   6.867 -1.0190  1.6500  0.3416
35643SOL    HW217244   2.248   6.374   6.954  0.4550  0.8185 -0.6889
35644SOL     OW17245   8.350   8.176   4.050  0.0601 -0.4385 -0.2354
35644SOL    HW117246   8.396   8.177   3.966 -0.3499  1.6858 -0.4991
35644SOL    HW217247   8.261   8.205   4.028  0.1955  1.0780  1.0027
35645SOL     OW17248  11.791   8.731  11.290  0.0946 -0.7000  0.0188
35645SOL    HW117249  11.722   8.795  11.272  0.0626 -0.3992  1.1242
35645SOL    HW217250  11.817   8.699  11.204  0.1579  0.8619 -0.5801
35646SOL     OW17251   4.821   0.705   4.266  0.0142  0.3173 -0.7764
35646SOL    HW117252   4.760   0.634   4.283  0.7140 -0.1840 -0.3364
35646SOL    HW217253   4.833   0.704   4.171  0.1813 -0.2900 -0.7513
35647SOL     OW17254   0.552   8.281   5.028  0.3487  0.1189  0.1201
35647SOL    HW117255   0.630   8.226   5.019 -0.7138 -1.1208 -2.5857
35647SOL    HW217256   0.566   8.353   4.966 -0.9621 -0.5669 -1.0128
35648SOL     OW17257   8.986  12.264   0.511  0.1249 -0.7343  0.0913
35648SOL    HW117258   8.941  12.307   0.584  0.9094  0.5040 -0.1140
35648SOL    HW217259   8.983  12.171   0.532 -0.3522 -0.4672  1.3030
35649SOL     OW17260   9.050  11.889   0.754  0.3735 -0.1375  0.5436
35649SOL    HW117261   9.045  11.817   0.817  1.6700 -1.3809 -0.6935
35649SOL    HW217262   9.037  11.968   0.807  0.7502 -1.1655  2.2531
35650SOL     OW17263   6.386  11.693   0.930  0.3435 -0.1004 -0.4317
35650SOL    HW117264   6.446  11.752   0.975 -0.0666 -0.4003  0.5284
35650SOL    HW217265   6.431  11.608   0.932 -0.1861 -0.3757  0.4885
35651SOL     OW17266   0.537  10.599   7.026 -0.3584  0.1048  0.0356
35651SOL    HW117267   0.626  10.632   7.014 -0.5004  0.6580  0.4493
35651SOL    HW217268   0.482  10.660   6.976 -0.4372 -0.7042 -0.8932
35652SOL     OW17269   1.334  10.955   5.468  0.0910 -0.2874 -0.5110
35652SOL    HW117270   1.414  11.006   5.458  0.3403 -0.4656  0.4396
35652SOL    HW217271   1.289  10.964   5.384  0.7437  0.4307 -0.7997
35653SOL     OW17272  12.234   8.804   6.237  0.7725 -0.2019  0.1849
35653SOL    HW117273  12.244   8.868   6.307 -0.1246  1.3687 -1.0579
35653SOL    HW217274  12.293   8.835   6.168  1.5950 -1.6899  0.1685
35654SOL     OW17275  10.024   2.807   9.546 -0.1739  0.2930 -0.4058
35654SOL    HW117276  10.087   2.759   9.599 -1.7118 -0.8154  0.5116
35654SOL    HW217277   9.950   2.747   9.537 -0.8463  1.2929 -2.0065
35655SOL     OW17278  10.225  11.365   9.020  0.3163 -0.7214  0.5623
35655SOL    HW117279  10.190  11.329   8.938  0.8076 -1.7980  0.8135
35655SOL    HW217280  10.317  11.341   9.019  0.6296  0.3884  0.8398
35656SOL     OW17281   1.708   0.058   9.770  0.2049 -0.9241 -0.6394
35656SOL    HW117282   1.753   0.118   9.830 -0.1488 -0.7547 -0.5386
35656SOL    HW217283   1.669  -0.008   9.827  0.6678 -1.3049 -0.7578
35657SOL     OW17284   7.333   3.727   4.402 -0.1283  0.8177 -0.0601
35657SOL    HW117285   7.428   3.725   4.417  0.3906  1.4593 -2.7591
35657SOL    HW217286   7.316   3.817   4.374 -1.6328  0.7980  0.7055
35658SOL     OW17287   8.920   9.382  11.982  0.1667  0.4781  0.7682
35658SOL    HW117288   8.928   9.437  11.904 -2.0166  1.0103  0.8548
35658SOL    HW217289   8.998   9.402  12.034 -0.2263  3.0755  0.5035
35659SOL     OW17290   7.680  11.567  11.614 -0.2819  0.1925  0.9613
35659SOL    HW117291   7.695  11.476  11.640 -0.6005  0.0762  0.7505
35659SOL    HW217292   7.585  11.572  11.600 -0.2606  0.5483  0.9389
35660SOL     OW17293  12.523   5.339   4.849 -0.0176  0.1489  0.5394
35660SOL    HW117294  12.468   5.416   4.862 -2.1886 -1.3297  0.5435
35660SOL    HW217295  12.548   5.343   4.757  1.3533  1.7109  0.9215
35661SOL     OW17296   9.976   6.949   2.216 -0.1191 -0.0865  0.7606
35661SOL    HW117297   9.904   6.924   2.159  0.3922 -0.6332  0.3345
35661SOL    HW217298  10.044   6.980   2.156  1.0155 -2.1173  0.8943
35662SOL     OW17299   7.953   3.616   2.105  0.4690  0.5289  0.3266
35662SOL    HW117300   8.031   3.671   2.103 -0.5718  2.0547 -0.6812
35662SOL    HW217301   7.961   3.561   2.027  0.8535  0.1940  0.5969
35663SOL     OW17302   0.413   3.466   6.422 -0.5648  0.5285 -0.3299
35663SOL    HW117303   0.328   3.441   6.385  0.5426  0.2429 -2.9532
35663SOL    HW217304   0.459   3.382   6.433 -0.0293  0.7934 -0.5379
35664SOL     OW17305   8.281  10.763   6.955 -0.2113 -0.2923  0.1382
35664SOL    HW117306   8.312  10.687   6.906 -1.5193  0.2579 -1.6323
35664SOL    HW217307   8.360  10.808   6.983  0.6030 -0.5772 -1.5950
35665SOL     OW17308   8.104   8.902   8.620 -0.2711 -0.4585  0.1601
35665SOL    HW117309   8.054   8.891   8.540 -1.3869 -0.2859  0.8028
35665SOL    HW217310   8.071   8.985   8.657  0.1740 -0.5683  0.8154
35666SOL     OW17311   7.231  11.959   5.472 -0.0700 -0.1322 -0.4584
35666SOL    HW117312   7.203  11.893   5.536  0.6341  2.0251  2.2512
35666SOL    HW217313   7.153  12.012   5.457  0.5082  1.2642  1.1650
35667SOL     OW17314   7.881   4.014   6.053  0.1374 -0.7840 -0.1334
35667SOL    HW117315   7.815   4.042   6.117  1.1384  0.5043  0.3845
35667SOL    HW217316   7.901   3.923   6.077  0.2622 -0.4260  1.2067
35668SOL     OW17317   4.561  11.400  12.591  0.0520  0.3436 -0.2920
35668SOL    HW117318   4.627  11.350  12.542  0.5945  0.5543  0.2093
35668SOL    HW217319   4.478  11.379  12.548  0.2882 -0.8408 -0.2074
35669SOL     OW17320   0.739   1.702   6.714 -0.0120 -0.3405 -0.0147
35669SOL    HW117321   0.777   1.666   6.794  0.0363  2.1316  1.1815
35669SOL    HW217322   0.796   1.776   6.692  0.1567 -1.1323 -2.5726
35670SOL     OW17323  11.534   8.387   6.416 -0.7021 -0.3927  0.2514
35670SOL    HW117324  11.450   8.405   6.374 -1.2359  1.1854  1.8623
35670SOL    HW217325  11.599   8.403   6.348 -1.6827 -1.4741 -0.9722
35671SOL     OW17326  11.016   1.923  11.579 -0.3604  0.0248 -0.0462
35671SOL    HW117327  11.023   2.005  11.628  0.0068  0.2402 -0.4569
35671SOL    HW217328  10.973   1.947  11.497 -0.1874 -0.1779 -0.1989
35672SOL     OW17329  11.584   0.287   5.619  0.1085  0.1151 -0.2775
35672SOL    HW117330  11.616   0.370   5.656 -1.5357  0.3487  0.7753
35672SOL    HW217331  11.662   0.242   5.587  1.4015  0.8268  1.6994
35673SOL     OW17332  11.315   7.956   4.048  0.0873  0.9307 -0.2164
35673SOL    HW117333  11.273   7.879   4.085  1.4564  0.5987  0.7248
35673SOL    HW217334  11.329   7.933   3.956 -0.2966  0.4070 -0.1476
35674SOL     OW17335  11.549   3.822   6.129  0.0135  0.1553  0.7055
35674SOL    HW117336  11.619   3.768   6.167 -0.2526 -0.7519 -0.0571
35674SOL    HW217337  11.524   3.881   6.200  1.9947  0.9677  0.7924
35675SOL     OW17338   8.510   8.399   7.179  0.4332 -0.1966  0.3968
35675SOL    HW117339   8.544   8.314   7.152  0.6408  0.6244 -2.2802
35675SOL    HW217340   8.416   8.386   7.188  0.3514 -0.5593 -0.8314
35676SOL     OW17341  10.134   8.407   5.403  0.0798  0.6002 -0.1048
35676SOL    HW117342  10.215   8.444   5.439  0.3509 -0.1959  0.1167
35676SOL    HW217343  10.149   8.313   5.402 -0.5532  0.4987 -0.7930
35677SOL     OW17344   6.859   2.854   9.087 -0.4576 -0.2818  0.0034
35677SOL    HW117345   6.832   2.763   9.096  0.1272 -0.4284  0.2807
35677SOL    HW217346   6.907   2.874   9.167 -0.0743  0.0924 -0.3115
35678SOL     OW17347   1.218  12.019   8.741 -0.7534 -0.6332 -0.1543
35678SOL    HW117348   1.231  12.111   8.763  0.1231 -0.3342 -1.7554
35678SOL    HW217349   1.299  11.994   8.696 -0.6371 -2.4260  0.9535
35679SOL     OW17350   9.106   0.356   9.134 -0.2547 -0.1244 -0.1479
35679SOL    HW117351   9.181   0.343   9.192 -0.6724 -2.3634 -0.0146
35679SOL    HW217352   9.083   0.268   9.104 -0.3482  0.8719 -3.4121
35680SOL     OW17353   5.613   8.612  11.268  0.0088  0.3648 -0.0358
35680SOL    HW117354   5.556   8.565  11.329 -0.5751 -2.0310 -2.2610
35680SOL    HW217355   5.624   8.698  11.308 -0.0572 -1.1162  3.5813
35681SOL     OW17356   7.692   0.845   8.786  0.2296 -0.1416  0.8062
35681SOL    HW117357   7.765   0.842   8.724 -0.0839  0.0554  0.4242
35681SOL    HW217358   7.710   0.774   8.848  0.5494 -0.3293  0.5012
35682SOL     OW17359   9.611   5.926   5.573 -0.2713 -0.3284  0.2597
35682SOL    HW117360   9.646   5.837   5.580 -0.0140 -0.1380  1.7336
35682SOL    HW217361   9.518   5.917   5.590 -0.2062 -0.2901  0.6419
35683SOL     OW17362   2.230  11.947   2.596 -0.5262  0.3776  0.2221
35683SOL    HW117363   2.226  12.041   2.584 -1.1574  0.4932  1.1868
35683SOL    HW217364   2.221  11.910   2.508  1.4966  1.2285 -0.3926
35684SOL     OW17365  12.845   7.552  11.999 -0.3637  0.7541 -1.0922
35684SOL    HW117366  12.938   7.568  12.013  0.0681 -1.1851 -1.4669
35684SOL    HW217367  12.835   7.550  11.904  0.0083 -2.6407 -1.1931
35685SOL     OW17368   0.791   8.840   8.369 -0.3987 -0.2093  0.3180
35685SOL    HW117369   0.793   8.850   8.465  0.0666  0.4028  0.2533
35685SOL    HW217370   0.858   8.902   8.338 -0.7641 -0.1810 -0.4200
35686SOL     OW17371   7.722   7.687   5.188  0.3663 -0.2509  0.5231
35686SOL    HW117372   7.655   7.621   5.169 -0.1875  0.2209  0.8083
35686SOL    HW217373   7.739   7.730   5.105  0.7624 -0.7813  0.3268
35687SOL     OW17374   4.860   6.664  10.192  0.3316  0.2520 -0.4167
35687SOL    HW117375   4.814   6.632  10.114 -2.1007  0.4310  0.8580
35687SOL    HW217376   4.890   6.584  10.235 -0.0505  0.0375 -0.5407
35688SOL     OW17377   5.013   5.212   5.026 -0.1972 -0.5257  0.0707
35688SOL    HW117378   5.041   5.241   4.939 -0.7807 -0.1981 -0.0080
35688SOL    HW217379   4.939   5.154   5.009 -2.6248  2.2379  0.4850
35689SOL     OW17380   6.948  12.609   2.953 -0.1353 -0.3035 -0.0165
35689SOL    HW117381   6.909  12.601   3.040 -0.6882 -2.2794 -0.3766
35689SOL    HW217382   7.037  12.638   2.969  0.1213 -1.7114  1.3365
35690SOL     OW17383   9.718   5.805   8.380 -0.2347 -0.1201 -0.2284
35690SOL    HW117384   9.812   5.795   8.371  0.1686  1.8974  1.1668
35690SOL    HW217385   9.694   5.739   8.446  0.3004 -0.1973 -0.1055
35691SOL     OW17386   1.704   0.718   7.094 -0.3264  0.3012 -0.0197
35691SOL    HW117387   1.670   0.784   7.033  1.1949  1.4828  0.3456
35691SOL    HW217388   1.635   0.706   7.158 -2.6149 -2.0596 -2.6589
35692SOL     OW17389   7.265  12.410  10.267  0.1682 -0.1366 -0.2198
35692SOL    HW117390   7.306  12.409  10.180  0.5990 -1.0744 -0.0209
35692SOL    HW217391   7.173  12.386  10.250  0.6117 -1.9823 -0.2806
35693SOL     OW17392   6.755  11.714   6.886 -0.3538 -0.1175 -0.6669
35693SOL    HW117393   6.679  11.768   6.907  1.1226  1.7198  0.2874
35693SOL    HW217394   6.782  11.745   6.799 -0.3922 -0.4087 -0.7830
35694SOL     OW17395   4.838   5.887   5.882  0.1240 -0.2755  0.2114
35694SOL    HW117396   4.757   5.877   5.832 -0.7040  1.6686  1.0886
35694SOL    HW217397   4.826   5.830   5.958 -1.1356  1.2043  1.1549
35695SOL     OW17398   6.767   9.091   4.292  0.1205  0.0372 -0.7881
35695SOL    HW117399   6.750   9.061   4.203 -1.7145 -0.8429 -0.2120
35695SOL    HW217400   6.745   9.184   4.291 -3.0452 -0.5848 -0.6226
35696SOL     OW17401   9.765   2.023  10.413 -0.2343  0.5194  0.4810
35696SOL    HW117402   9.823   2.075  10.357 -1.2470  2.5400  1.1896
35696SOL    HW217403   9.823   1.959  10.454  1.6114  2.6324  1.4072
35697SOL     OW17404   2.383   6.536  12.142  0.2809  0.0572 -0.0400
35697SOL    HW117405   2.300   6.490  12.154 -0.8765  1.9575 -0.2842
35697SOL    HW217406   2.429   6.486  12.074 -1.2012 -0.3749 -0.7611
35698SOL     OW17407   1.937   1.158   5.793  0.2481  0.2773 -0.2637
35698SOL    HW117408   1.876   1.098   5.750  0.4314 -0.4879  0.5265
35698SOL    HW217409   2.023   1.127   5.765  0.3431  0.1515  0.1699
35699SOL     OW17410   1.649   1.951   8.603  0.1019 -0.1456 -0.4163
35699SOL    HW117411   1.620   2.027   8.552 -1.1144  0.4607  1.0922
35699SOL    HW217412   1.716   1.986   8.662 -2.5405  0.6036  2.4264
35700SOL     OW17413   2.327   7.019   2.234 -0.0524  0.4119 -0.6748
35700SOL    HW117414   2.266   7.031   2.308  0.0209  0.4148 -0.6145
35700SOL    HW217415   2.332   7.106   2.193  0.6298  0.6407 -0.1211
35701SOL     OW17416   0.854   6.078   6.089  0.0478  0.1440 -0.1518
35701SOL    HW117417   0.927   6.102   6.032 -0.7312  1.8965 -0.4767
35701SOL    HW217418   0.789   6.148   6.076 -1.9647 -1.6579 -0.3132
35702SOL     OW17419   6.721   6.467   5.443  0.0950 -0.2615 -0.2955
35702SOL    HW117420   6.731   6.401   5.511 -1.0555 -0.1732 -0.0222
35702SOL    HW217421   6.686   6.419   5.367  0.7848 -0.2494 -0.6278
35703SOL     OW17422   5.727   0.328  10.356 -0.3062  0.1711  0.1262
35703SOL    HW117423   5.820   0.326  10.379 -0.5859  2.1145  1.7146
35703SOL    HW217424   5.682   0.295  10.434 -1.0024  0.5342 -0.1109
35704SOL     OW17425   3.043   9.531  12.976 -0.8167 -0.0772 -0.3162
35704SOL    HW117426   3.075   9.464  13.036 -1.8036 -0.7132 -0.4778
35704SOL    HW217427   2.977   9.487  12.923 -1.7400  1.0921 -0.1949
35705SOL     OW17428   0.637   8.594   0.878 -0.1459  0.8475  0.1955
35705SOL    HW117429   0.591   8.580   0.961  0.7485 -0.7505  0.4754
35705SOL    HW217430   0.721   8.632   0.904 -1.0106  3.2727 -0.2725
35706SOL     OW17431   1.107  11.322   7.223  0.2185 -0.0128 -0.0254
35706SOL    HW117432   1.086  11.230   7.241 -1.0897  0.2605 -0.0784
35706SOL    HW217433   1.034  11.371   7.261  0.4318  0.9518 -0.8238
35707SOL     OW17434   4.771   0.115   8.642 -0.6340  0.0161 -0.2099
35707SOL    HW117435   4.711   0.050   8.606 -1.2990  0.4847  0.0143
35707SOL    HW217436   4.776   0.183   8.575 -1.1387  0.4470  0.1781
35708SOL     OW17437  10.876  10.486   3.619  0.0051 -0.1677 -0.2346
35708SOL    HW117438  10.832  10.413   3.662 -2.0281  0.0386 -1.7823
35708SOL    HW217439  10.859  10.562   3.675  0.7023 -0.5446  0.5164
35709SOL     OW17440   9.421   9.885   7.522 -0.2897  0.2382  0.2492
35709SOL    HW117441   9.469   9.965   7.544  0.3293 -0.4164  1.3156
35709SOL    HW217442   9.481   9.814   7.543 -0.6667 -0.5178 -1.1097
35710SOL     OW17443   5.597   6.093   4.442  0.2783  0.1116 -0.1260
35710SOL    HW117444   5.647   6.015   4.467  2.0463  1.3640  0.4657
35710SOL    HW217445   5.661   6.151   4.400 -0.6439  1.8145  0.6837
35711SOL     OW17446   7.770   2.808   2.571  1.0197 -0.8472  1.0367
35711SOL    HW117447   7.783   2.822   2.665  1.1758  1.7290  0.7231
35711SOL    HW217448   7.853   2.834   2.531 -0.1002  1.5315  0.0118
35712SOL     OW17449   5.693   0.059  10.831 -0.5707 -0.2939 -0.7540
35712SOL    HW117450   5.717  -0.025  10.870  1.1103  0.0389 -1.0077
35712SOL    HW217451   5.640   0.102  10.898  0.1139 -0.7858  0.1252
35713SOL     OW17452   7.605   6.630   5.818  0.2787  0.1175 -0.3153
35713SOL    HW117453   7.655   6.660   5.743 -0.6105  1.0090 -0.5616
35713SOL    HW217454   7.518   6.613   5.784  0.2934 -1.0872  0.1830
35714SOL     OW17455   4.241   9.315  12.931 -0.0336 -0.0202  0.5256
35714SOL    HW117456   4.246   9.339  12.839 -0.7225  0.2455  0.5598
35714SOL    HW217457   4.200   9.390  12.974 -0.2253 -0.3738  0.9642
35715SOL     OW17458  12.209   1.245   3.051 -0.6303  0.4691  0.1477
35715SOL    HW117459  12.150   1.318   3.069 -1.4097  0.3618 -1.7680
35715SOL    HW217460  12.181   1.176   3.112 -0.2258  1.5494  1.6090
35716SOL     OW17461   7.136   3.533   4.548  0.2880 -0.3068  0.0566
35716SOL    HW117462   7.133   3.609   4.607  0.0430  0.3606 -0.8017
35716SOL    HW217463   7.214   3.548   4.495  1.1212 -1.4501  0.9010
35717SOL     OW17464   8.116  11.975   1.279  0.0346 -0.4634 -0.2255
35717SOL    HW117465   8.184  11.958   1.345 -0.6118 -0.7545  0.3882
35717SOL    HW217466   8.037  11.992   1.331 -0.9797 -2.6815 -0.8874
35718SOL     OW17467  10.763   0.189   9.667 -0.4348 -0.2410  0.0762
35718SOL    HW117468  10.814   0.174   9.747  0.2840  1.3065 -0.0604
35718SOL    HW217469  10.693   0.248   9.695 -0.4490 -0.0579 -0.3443
35719SOL     OW17470   8.436   1.490   5.279  0.1637 -0.2568 -0.0437
35719SOL    HW117471   8.529   1.506   5.291  0.8916 -0.3992 -4.1499
35719SOL    HW217472   8.424   1.483   5.185 -4.2243  0.8149  0.1858
35720SOL     OW17473   7.878   9.738  11.699  0.0129 -0.3898  0.1603
35720SOL    HW117474   7.951   9.746  11.760 -0.4039  2.3886  0.4225
35720SOL    HW217475   7.912   9.768  11.615  0.1223 -2.6097 -0.6435
35721SOL     OW17476   3.965   0.373   1.543 -0.3709 -0.6200 -1.0154
35721SOL    HW117477   3.991   0.289   1.582  0.1554 -0.9993 -2.1521
35721SOL    HW217478   4.045   0.405   1.500 -0.3079  0.9055  0.1381
35722SOL     OW17479  10.592  11.062   4.587  0.1218  0.0753  0.7584
35722SOL    HW117480  10.530  11.021   4.646  0.9091  0.5294  1.9338
35722SOL    HW217481  10.644  11.120   4.642  0.2738  1.2314 -0.5347
35723SOL     OW17482   4.196   5.295   3.048  0.8887 -0.2876  0.2395
35723SOL    HW117483   4.286   5.262   3.055  0.7613 -1.0105 -1.2635
35723SOL    HW217484   4.200   5.360   2.979  0.0299 -1.2458 -0.7521
35724SOL     OW17485   5.291  10.783   9.386  0.0665  0.5818  0.4304
35724SOL    HW117486   5.242  10.850   9.337 -0.3486  0.2138  0.3375
35724SOL    HW217487   5.232  10.759   9.458  0.0910  0.1106  0.2958
35725SOL     OW17488  10.494  12.845   5.243  0.2206  0.2445  0.1048
35725SOL    HW117489  10.468  12.764   5.288 -0.2504 -0.3660 -1.2011
35725SOL    HW217490  10.436  12.912   5.279 -1.2942 -0.5483 -0.7367
35726SOL     OW17491   5.893  12.093   4.734 -0.3735 -0.2980  0.0926
35726SOL    HW117492   5.808  12.096   4.690 -0.3487 -1.1368 -0.0194
35726SOL    HW217493   5.940  12.022   4.691  0.9416  1.0654 -0.8183
35727SOL     OW17494   8.257  10.382   9.581  0.2235 -0.0263  0.2485
35727SOL    HW117495   8.266  10.447   9.511 -0.8379 -1.1805 -1.0165
35727SOL    HW217496   8.268  10.298   9.537  1.3767 -0.7576  1.8211
35728SOL     OW17497   5.665   1.297   5.379 -0.2209 -0.3679  0.1151
35728SOL    HW117498   5.621   1.382   5.373  1.9545  0.8811  0.8173
35728SOL    HW217499   5.727   1.307   5.451  1.9145 -1.6644 -1.4260
35729SOL     OW17500   9.041   7.116   3.468 -0.2895  0.1845 -0.3148
35729SOL    HW117501   9.045   7.049   3.536  1.9721 -0.9117 -1.4178
35729SOL    HW217502   9.114   7.175   3.489 -0.3900  0.5717 -1.0430
35730SOL     OW17503   6.122  12.429   3.229 -0.1108  0.2094 -0.6362
35730SOL    HW117504   6.143  12.506   3.281 -3.1131 -0.5864  2.0597
35730SOL    HW217505   6.027  12.428   3.224 -0.0987 -2.2668 -2.3086
35731SOL     OW17506   3.182   2.616   8.262  0.0939  0.1362  0.6699
35731SOL    HW117507   3.245   2.687   8.252  0.2375  0.5805  3.6863
35731SOL    HW217508   3.098   2.660   8.274 -0.5563 -0.4022 -1.4322
35732SOL     OW17509   6.781  11.818   2.229  1.2394  0.3888 -0.3010
35732SOL    HW117510   6.830  11.736   2.233  0.7146  0.0488 -0.6357
35732SOL    HW217511   6.711  11.807   2.293 -1.0235 -0.9325 -2.7929
35733SOL     OW17512  12.891  10.691  11.392 -0.5764 -0.4205  0.1301
35733SOL    HW117513  12.899  10.700  11.487 -1.0241 -1.1760  0.2500
35733SOL    HW217514  12.947  10.617  11.370 -0.7528 -0.4749 -0.1394
35734SOL     OW17515  11.636   1.401   9.320  0.0683  0.1436 -0.0803
35734SOL    HW117516  11.628   1.495   9.299  0.8478 -0.0709 -1.4524
35734SOL    HW217517  11.562   1.361   9.275  0.9459 -0.1464 -1.3042
35735SOL     OW17518   6.269   1.978   8.752 -0.0249  0.0005  0.1206
35735SOL    HW117519   6.197   1.992   8.690  0.8560 -2.8251 -1.7864
35735SOL    HW217520   6.330   2.049   8.734 -0.3527 -0.0707 -1.4926
35736SOL     OW17521   1.930   3.863  10.729 -0.6042 -0.4247  0.0161
35736SOL    HW117522   1.965   3.784  10.688  0.1793  0.1944 -0.5400
35736SOL    HW217523   1.893   3.914  10.657  1.4869  1.0426 -0.1006
35737SOL     OW17524   8.436   1.604   4.158 -0.0651 -0.5316 -0.0549
35737SOL    HW117525   8.459   1.520   4.119 -0.2533 -0.2351 -0.8234
35737SOL    HW217526   8.494   1.612   4.234 -0.9157 -1.9181  0.7830
35738SOL     OW17527   2.896   9.089   5.962 -0.0857 -0.0972  0.1492
35738SOL    HW117528   2.804   9.111   5.974 -0.3541 -1.6029  1.0152
35738SOL    HW217529   2.903   9.062   5.870 -0.3722  0.5506 -0.0694
35739SOL     OW17530   3.493   1.998   5.279 -0.2816  0.6689  0.1629
35739SOL    HW117531   3.494   1.973   5.187 -1.6368  0.5124  0.1690
35739SOL    HW217532   3.423   2.064   5.285 -1.9134 -1.0586  1.4777
35740SOL     OW17533   4.222   6.325   7.415  0.2667  0.0529  0.4418
35740SOL    HW117534   4.251   6.265   7.483  0.3144  0.4923  0.8070
35740SOL    HW217535   4.149   6.279   7.373  0.1523 -0.1612  0.8719
35741SOL     OW17536   8.979   8.293   9.503 -0.3444  0.1848  0.3564
35741SOL    HW117537   9.055   8.289   9.560  0.1886 -2.8723 -0.3571
35741SOL    HW217538   8.921   8.358   9.542  1.6118  0.8793  2.2234
35742SOL     OW17539  10.934   0.133  12.685 -0.4669  0.1754 -0.3715
35742SOL    HW117540  10.841   0.113  12.690 -0.3792  0.0040  0.6663
35742SOL    HW217541  10.941   0.224  12.714 -0.4487  0.6178 -1.6953
35743SOL     OW17542   1.767   9.973   1.766  0.6774 -0.6228  0.0916
35743SOL    HW117543   1.835  10.004   1.826 -0.3889  1.7883  0.1479
35743SOL    HW217544   1.693   9.952   1.823 -0.0734  0.9420 -0.2602
35744SOL     OW17545   8.164   1.920   0.644  0.5047  0.5832 -0.4428
35744SOL    HW117546   8.229   1.875   0.590 -1.2057 -1.4872 -0.8971
35744SOL    HW217547   8.162   2.009   0.608  1.4308  0.0473 -1.9184
35745SOL     OW17548   2.147   0.483   6.329 -0.6398  0.1670  0.5356
35745SOL    HW117549   2.196   0.547   6.278  1.1288 -0.6531  1.1104
35745SOL    HW217550   2.106   0.534   6.399  0.1189  0.7929  0.5452
35746SOL     OW17551  11.721   1.400   1.912 -0.0614  0.0137  0.3634
35746SOL    HW117552  11.694   1.443   1.993 -2.8372 -1.5549  0.4000
35746SOL    HW217553  11.769   1.322   1.941  2.3659  1.3857  0.3313
35747SOL     OW17554   7.203   0.053   6.027 -1.0360 -0.2572 -0.3125
35747SOL    HW117555   7.198   0.126   5.966  0.4486  0.9062  0.9014
35747SOL    HW217556   7.286   0.010   6.006 -0.8961 -0.3268  0.3765
35748SOL     OW17557  10.264   7.927  12.081  0.1796  0.0456  0.1811
35748SOL    HW117558  10.249   7.867  12.008 -2.8085  1.2258 -0.3180
35748SOL    HW217559  10.209   7.891  12.152  1.3198  0.1360  1.1314
35749SOL     OW17560   4.386   9.002  11.890  0.1622  0.2055  0.1066
35749SOL    HW117561   4.454   8.965  11.945  0.2833  0.3057  0.0232
35749SOL    HW217562   4.357   8.929  11.835  1.7242  0.6544 -1.4104
35750SOL     OW17563   3.934   4.979   3.032  0.5322 -0.2301 -0.0663
35750SOL    HW117564   4.010   5.007   3.082  1.4685  0.0340 -1.5726
35750SOL    HW217565   3.970   4.937   2.954 -0.8705 -1.4109 -0.1251
35751SOL     OW17566   5.854   1.562  10.985 -0.2134 -0.0980  0.6295
35751SOL    HW117567   5.948   1.575  10.977 -0.0980 -1.1263  0.1744
35751SOL    HW217568   5.824   1.550  10.894 -0.9277  1.1323  0.6802
35752SOL     OW17569  11.972   4.640  11.527  0.1249 -0.7629  0.1178
35752SOL    HW117570  11.996   4.636  11.620  0.8591 -1.2857 -0.0834
35752SOL    HW217571  11.882   4.605  11.524  1.0518 -3.4088  0.3239
35753SOL     OW17572   7.552   9.966  10.030 -0.1441  0.0583 -0.0779
35753SOL    HW117573   7.492  10.037  10.052  1.2331  0.4296  3.0149
35753SOL    HW217574   7.501   9.887  10.043 -0.1603  0.3738  2.3195
35754SOL     OW17575  10.291   8.246   1.210 -0.1273 -0.5658  0.0429
35754SOL    HW117576  10.353   8.206   1.271  0.0266  0.0978  0.3309
35754SOL    HW217577  10.210   8.196   1.222 -0.2061 -0.2126  1.0565
35755SOL     OW17578   2.030   6.515   6.330  0.2724 -0.4091 -0.3033
35755SOL    HW117579   1.937   6.537   6.328  0.2682 -0.4279 -0.3131
35755SOL    HW217580   2.033   6.420   6.332  0.2448 -0.4054  1.5490
35756SOL     OW17581  11.722   5.768   1.084 -0.6102  0.2447  0.0487
35756SOL    HW117582  11.672   5.782   1.004 -0.1847  0.0501 -0.2552
35756SOL    HW217583  11.755   5.855   1.108 -0.5980  0.2765 -0.0837
35757SOL     OW17584   5.030   8.539   7.746 -0.3356  0.2694 -0.9548
35757SOL    HW117585   4.943   8.556   7.709  0.6927 -1.2471 -4.4145
35757SOL    HW217586   5.053   8.452   7.715  2.3651  0.5494 -0.0079
35758SOL     OW17587  12.676   6.993   4.130  0.0143  0.1138  0.0410
35758SOL    HW117588  12.668   6.901   4.154 -2.5317  0.4165  0.6519
35758SOL    HW217589  12.684   7.039   4.213 -1.2136  0.6050 -0.0937
35759SOL     OW17590   8.598   3.059   0.657 -0.1493 -0.0153 -0.1177
35759SOL    HW117591   8.627   3.150   0.666  0.0366 -0.2251  2.1500
35759SOL    HW217592   8.664   3.019   0.601  1.6390  0.5544  1.4321
35760SOL     OW17593   4.200   6.373  11.003  0.0240 -0.0611 -0.3275
35760SOL    HW117594   4.112   6.340  11.018 -0.9053  0.5894 -3.6469
35760SOL    HW217595   4.189   6.468  10.997  1.1298  0.1088  0.0110
35761SOL     OW17596  12.932   6.134  11.000  0.1678 -0.1560  0.0667
35761SOL    HW117597  12.838   6.118  10.997  0.1622 -0.4608  1.4611
35761SOL    HW217598  12.945   6.195  11.072  0.6570  3.1481 -2.5435
35762SOL     OW17599   6.653   1.555   5.570  0.2271  0.7434 -0.4864
35762SOL    HW117600   6.655   1.632   5.512 -0.5061  1.7766  0.8002
35762SOL    HW217601   6.650   1.592   5.658 -2.3645 -0.7133  0.1350
35763SOL     OW17602   3.170  11.195   8.048  0.3640 -0.0705  0.2339
35763SOL    HW117603   3.137  11.285   8.057  0.3687  0.3016 -2.4473
35763SOL    HW217604   3.102  11.151   7.996  1.7519 -0.7186 -1.0849
35764SOL     OW17605   4.014  12.523   7.290  0.0879 -0.2969  0.3287
35764SOL    HW117606   4.018  12.442   7.340  0.7887 -0.6499 -0.2840
35764SOL    HW217607   4.038  12.591   7.352 -0.1078 -0.6031  0.7430
35765SOL     OW17608   7.029  10.293   8.751 -0.3234  0.1354  0.8206
35765SOL    HW117609   7.100  10.302   8.688  0.7554 -1.8697  1.6653
35765SOL    HW217610   7.045  10.363   8.815  0.9652 -0.3694  1.0690
35766SOL     OW17611   5.302   0.964   0.734 -0.0987 -0.1214 -0.1213
35766SOL    HW117612   5.339   0.895   0.790 -0.3720 -0.3608 -0.2335
35766SOL    HW217613   5.313   1.044   0.785  0.5542 -0.1902 -0.1404
35767SOL     OW17614  10.673  10.248  10.081  0.4454 -0.1961 -0.1674
35767SOL    HW117615  10.606  10.206  10.134  0.3608 -2.5767 -1.9691
35767SOL    HW217616  10.751  10.195  10.095  0.5067 -0.6852 -2.0665
35768SOL     OW17617   3.636   3.399   7.538  0.5178 -0.2273  0.3269
35768SOL    HW117618   3.730   3.395   7.560  0.6159  1.5249  0.4463
35768SOL    HW217619   3.604   3.474   7.589 -0.6921 -0.0923 -0.6030
35769SOL     OW17620  11.750   7.599   7.186 -0.4258 -0.1821  0.0044
35769SOL    HW117621  11.785   7.514   7.211 -0.8899  0.0850  1.6395
35769SOL    HW217622  11.656   7.592   7.202 -0.5390  0.4827 -0.3258
35770SOL     OW17623   9.676  10.413   6.632 -0.1257  0.2736  0.2799
35770SOL    HW117624   9.697  10.325   6.664  2.1076  0.9343  0.7716
35770SOL    HW217625   9.728  10.422   6.552  0.2873  1.4262  0.6636
35771SOL     OW17626   6.220   1.298  12.457 -0.2858 -0.1861 -0.3316
35771SOL    HW117627   6.190   1.389  12.447 -1.8677 -0.8504 -2.2772
35771SOL    HW217628   6.315   1.305  12.465 -0.4157  1.6669  0.0451
35772SOL     OW17629  11.425  11.747   2.785 -0.1291 -0.4917  0.1255
35772SOL    HW117630  11.360  11.685   2.818 -0.7075 -0.2930 -0.6295
35772SOL    HW217631  11.453  11.710   2.702  1.4077 -1.0470  0.8483
35773SOL     OW17632   2.611  11.860  12.168  0.1083  1.0713 -0.4253
35773SOL    HW117633   2.705  11.847  12.162  0.2094  1.9363 -1.0058
35773SOL    HW217634   2.581  11.797  12.233  1.2229  1.4336  0.4617
35774SOL     OW17635   1.626   9.843  12.257 -0.1863 -0.2871  0.1839
35774SOL    HW117636   1.680   9.875  12.329 -0.2313 -1.1078  0.5897
35774SOL    HW217637   1.576   9.920  12.229  0.3717  0.2135  0.5365
35775SOL     OW17638  12.747   2.289   7.113  0.4451  0.2471  0.1130
35775SOL    HW117639  12.751   2.384   7.115 -0.2226  0.3135 -1.0467
35775SOL    HW217640  12.762   2.266   7.022 -1.0485 -0.6631  0.0594
35776SOL     OW17641   6.930   0.208   3.134  0.2557  0.1442  0.0948
35776SOL    HW117642   6.889   0.237   3.052  1.2082  0.1202 -0.4101
35776SOL    HW217643   7.000   0.149   3.106  1.6789  1.4143  0.8094
35777SOL     OW17644  10.644  10.894   9.926  0.3111 -0.3017  0.5010
35777SOL    HW117645  10.604  10.939  10.000 -0.2616 -1.3934  0.8752
35777SOL    HW217646  10.584  10.909   9.853  0.0951 -0.4878  0.6386
35778SOL     OW17647   6.846   4.857   3.171  0.2238  0.3277 -0.1497
35778SOL    HW117648   6.871   4.772   3.205  0.0778  0.6889  0.8930
35778SOL    HW217649   6.878   4.920   3.236 -1.6811  0.9276  0.2916
35779SOL     OW17650   3.244   2.131   8.925 -0.4135 -0.0912 -0.5150
35779SOL    HW117651   3.264   2.129   9.019  1.4473 -0.1451 -0.8805
35779SOL    HW217652   3.202   2.215   8.911 -1.1970 -0.3035  0.4440
35780SOL     OW17653   6.969   7.493  10.131  0.2232 -0.4389  0.4131
35780SOL    HW117654   6.986   7.421  10.071  0.5717 -1.3855  1.6133
35780SOL    HW217655   6.890   7.535  10.097  1.1994 -0.0483 -1.5082
35781SOL     OW17656  12.454   2.915   8.412  0.5107 -0.4547 -0.4281
35781SOL    HW117657  12.361   2.892   8.420  1.0782 -2.3038  1.9601
35781SOL    HW217658  12.467   2.983   8.478  0.9214 -0.4107 -0.5549
35782SOL     OW17659   2.059  12.068   5.491  0.1412  0.1405  0.1024
35782SOL    HW117660   1.978  12.111   5.461  0.0737  0.2004  0.3732
35782SOL    HW217661   2.046  12.056   5.585 -0.3433 -1.5462 -0.1480
35783SOL     OW17662  11.176   4.246   5.834 -0.7131 -0.2674 -0.4853
35783SOL    HW117663  11.093   4.284   5.865 -0.9198 -1.1740  0.1124
35783SOL    HW217664  11.151   4.195   5.756 -0.3556  1.1871 -1.5959
35784SOL     OW17665   0.220   5.127   4.698  0.2488  0.1495  0.1813
35784SOL    HW117666   0.312   5.120   4.724  0.2100  0.7809  0.5156
35784SOL    HW217667   0.184   5.192   4.758 -0.5387 -0.4469  0.3751
35785SOL     OW17668   3.307   7.517  10.849  0.2138  0.6459  0.6031
35785SOL    HW117669   3.336   7.429  10.872  0.2541 -0.1390 -2.0390
35785SOL    HW217670   3.293   7.561  10.933  0.9779 -1.5972  1.9983
35786SOL     OW17671   4.605   4.381   7.090  0.0734 -0.0966 -0.5547
35786SOL    HW117672   4.657   4.392   7.011  0.3917  0.7296 -0.2410
35786SOL    HW217673   4.625   4.292   7.119  0.3190 -0.2378 -1.1398
35787SOL     OW17674   5.332  11.576   7.485 -0.0639  0.1995 -0.2394
35787SOL    HW117675   5.292  11.662   7.472 -0.6176  0.1289  0.9166
35787SOL    HW217676   5.331  11.537   7.397 -0.9320  0.8910 -0.5616
35788SOL     OW17677  11.899   1.100  12.619 -0.0101 -0.0171  0.2163
35788SOL    HW117678  11.875   1.068  12.532 -1.3142 -0.2541  0.6312
35788SOL    HW217679  11.993   1.115  12.615 -0.1992  0.9226 -1.5377
35789SOL     OW17680   2.253   3.254   4.381  0.4360 -0.2393 -0.1313
35789SOL    HW117681   2.185   3.195   4.348 -1.1218  0.9022  0.9243
35789SOL    HW217682   2.207   3.316   4.436  2.1709  1.4039 -0.4280
35790SOL     OW17683   9.363  10.848   2.586 -0.1063 -0.5266 -0.3032
35790SOL    HW117684   9.274  10.829   2.617  0.3321  1.0222  2.1909
35790SOL    HW217685   9.416  10.776   2.620 -0.1094 -0.3862  0.0096
35791SOL     OW17686  10.092   1.363  11.613  0.1710  0.3159  0.5588
35791SOL    HW117687  10.103   1.429  11.544 -1.0858 -0.6107 -0.5839
35791SOL    HW217688  10.013   1.392  11.660  0.1078  0.0722  0.6000
35792SOL     OW17689   0.778   1.625   4.822  0.2722  0.1558  0.2123
35792SOL    HW117690   0.861   1.591   4.791 -0.6991 -0.9240 -1.3360
35792SOL    HW217691   0.798   1.715   4.851  2.1013 -0.3592  0.6723
35793SOL     OW17692   8.055   8.141   1.590  0.1581 -0.2336 -0.1439
35793SOL    HW117693   8.135   8.091   1.575 -0.0149 -0.4725 -0.2823
35793SOL    HW217694   8.081   8.233   1.578 -0.0968 -0.4078 -2.5662
35794SOL     OW17695   0.728   4.314   5.561 -0.1784  0.2990 -0.4330
35794SOL    HW117696   0.715   4.361   5.643  0.9777 -0.6761  0.3532
35794SOL    HW217697   0.822   4.297   5.558 -0.5352 -1.9978 -0.6263
35795SOL     OW17698   9.438   4.717   3.767 -0.0787  0.0314 -0.1197
35795SOL    HW117699   9.344   4.714   3.787  0.0391  0.3967  0.4928
35795SOL    HW217700   9.461   4.626   3.748 -0.8336  0.1196 -1.5911
35796SOL     OW17701   7.955   9.883   4.695  0.2351 -0.0453  0.3264
35796SOL    HW117702   7.981   9.847   4.610 -1.5420 -2.1504  0.5873
35796SOL    HW217703   7.880   9.939   4.676 -1.3364 -1.9385  0.6077
35797SOL     OW17704   1.420  12.602   2.380  0.2244 -0.5071 -0.3826
35797SOL    HW117705   1.425  12.507   2.388  1.3409 -0.4274  0.1176
35797SOL    HW217706   1.355  12.628   2.446 -0.5269 -0.9620 -0.9334
35798SOL     OW17707   0.869   9.733   9.360 -1.2073  0.6648  0.3081
35798SOL    HW117708   0.865   9.643   9.389  1.3605  0.0033 -1.0824
35798SOL    HW217709   0.895   9.783   9.438  0.6392 -0.3201  0.3649
35799SOL     OW17710  11.673   7.037  11.878  0.5943 -0.3653 -0.5459
35799SOL    HW117711  11.713   7.060  11.794 -0.5518 -0.7651 -1.2161
35799SOL    HW217712  11.672   7.119  11.927  0.9697 -0.0535 -1.0475
35800SOL     OW17713   1.537  10.549   8.154 -0.6040 -0.0126 -0.4337
35800SOL    HW117714   1.627  10.581   8.156 -1.4614  2.5636  1.5322
35800SOL    HW217715   1.546  10.454   8.160  1.9726  0.1439 -0.6863
35801SOL     OW17716   3.662   3.462   8.918  0.5648  0.3872  0.7366
35801SOL    HW117717   3.662   3.548   8.959  2.2987  1.0182 -0.4582
35801SOL    HW217718   3.707   3.405   8.980  0.8771  0.7367  0.8346
35802SOL     OW17719   1.595   9.643   1.854  0.1043 -0.0848  0.0558
35802SOL    HW117720   1.639   9.715   1.899 -0.1593 -0.1105  0.3642
35802SOL    HW217721   1.613   9.658   1.761 -0.6493  0.8618  0.0433
35803SOL     OW17722   0.826   0.123   3.331  0.2722 -0.5129 -0.5022
35803SOL    HW117723   0.892   0.185   3.362  1.4932 -0.7148 -2.5205
35803SOL    HW217724   0.806   0.070   3.408  0.5045  1.2131  0.8233
35804SOL     OW17725   8.876   3.063   8.843  0.6998 -0.4455  0.4089
35804SOL    HW117726   8.848   3.022   8.924  1.3223  0.1824  0.9562
35804SOL    HW217727   8.823   3.143   8.837 -0.1221 -1.0355 -0.3697
35805SOL     OW17728   6.158   7.551   2.048 -0.0860 -0.3942 -0.4096
35805SOL    HW117729   6.223   7.505   2.101  0.7935  0.8850 -0.3273
35805SOL    HW217730   6.073   7.516   2.077  0.4341 -0.3902  1.1786
35806SOL     OW17731   7.743   8.060   3.251 -0.6436  0.2899  0.1456
35806SOL    HW117732   7.682   8.125   3.285 -1.7219 -0.8973  0.5619
35806SOL    HW217733   7.829   8.100   3.261 -1.3705  2.3822 -1.2809
35807SOL     OW17734   8.479   8.989   2.402 -0.7162  0.2407  0.0359
35807SOL    HW117735   8.492   9.062   2.462 -0.9811  0.9844 -0.7815
35807SOL    HW217736   8.414   8.933   2.445 -3.0727  2.1929 -0.7319
35808SOL     OW17737   0.123  12.365   2.779 -0.1504 -0.1000  0.3854
35808SOL    HW117738   0.211  12.396   2.756 -0.6538  0.3028 -1.1627
35808SOL    HW217739   0.108  12.291   2.719 -1.6201  1.1178 -0.8536
35809SOL     OW17740   5.347   1.290   5.560 -0.6906  0.1960 -0.0958
35809SOL    HW117741   5.387   1.354   5.500 -0.8800  1.8743  1.4928
35809SOL    HW217742   5.254   1.309   5.556 -0.9523 -1.1414 -0.8614
35810SOL     OW17743  10.655   2.826   2.619  0.4640 -0.2161  0.1391
35810SOL    HW117744  10.599   2.761   2.575 -2.0834  1.8124  0.1547
35810SOL    HW217745  10.699   2.871   2.547 -0.8506  0.6227 -0.1850
35811SOL     OW17746  11.769  10.875  10.743  1.1418 -0.2777  0.1521
35811SOL    HW117747  11.745  10.809  10.808  2.5660 -0.0964  0.9085
35811SOL    HW217748  11.860  10.856  10.722  0.6048 -0.5720 -2.1294
35812SOL     OW17749   6.466   5.559   7.556 -0.2461 -0.3479 -0.4081
35812SOL    HW117750   6.387   5.592   7.600 -0.7156 -0.4471 -1.1653
35812SOL    HW217751   6.511   5.508   7.624  0.2032  1.3381  0.6131
35813SOL     OW17752   0.579   9.952   2.152  0.7572  0.1128 -0.2539
35813SOL    HW117753   0.623   9.919   2.074  1.5268 -1.4003  0.7748
35813SOL    HW217754   0.521   9.882   2.180 -0.3408  1.0594 -0.0553
35814SOL     OW17755  12.971   0.973  11.230 -0.0768  0.2614  0.7406
35814SOL    HW117756  12.988   1.035  11.301 -0.7207  0.4428  0.7376
35814SOL    HW217757  13.036   0.904  11.244  0.2239  0.6137  1.1245
35815SOL     OW17758   6.578   1.443   3.806  0.5238  0.0891  0.5415
35815SOL    HW117759   6.539   1.392   3.877  2.1227  1.5806  2.6194
35815SOL    HW217760   6.508   1.453   3.742 -0.7707 -1.9375  1.5257
35816SOL     OW17761   2.067  10.903   4.244  0.5530 -0.4837  0.3181
35816SOL    HW117762   1.977  10.921   4.272  0.0705 -1.0856 -0.7505
35816SOL    HW217763   2.066  10.811   4.220  1.1747 -0.2486 -0.6772
35817SOL     OW17764   0.949   7.780   2.562 -0.2580 -0.2658 -0.2664
35817SOL    HW117765   0.909   7.858   2.602 -0.7313 -1.0606  0.8867
35817SOL    HW217766   0.925   7.709   2.622  2.7485 -0.8403  0.3841
35818SOL     OW17767   5.986   0.714  12.129  0.5499 -0.3043  0.1660
35818SOL    HW117768   6.075   0.731  12.159  1.6263 -2.3203 -1.5814
35818SOL    HW217769   5.966   0.626  12.161 -0.0165 -0.6628 -1.0896
35819SOL     OW17770   7.956   3.564   5.939 -0.4020 -0.0815 -0.0259
35819SOL    HW117771   7.971   3.582   5.847 -0.8209  0.4085 -0.0032
35819SOL    HW217772   7.915   3.477   5.940 -1.2406  0.2983 -0.3767
35820SOL     OW17773  10.173   4.012   1.648 -0.0386 -0.8740 -0.8388
35820SOL    HW117774  10.198   3.920   1.638  1.2545 -0.5842 -0.5379
35820SOL    HW217775  10.212   4.039   1.731  0.6473  0.2569 -1.4877
35821SOL     OW17776  12.681   2.130  11.119 -0.1290 -0.3731  0.8043
35821SOL    HW117777  12.734   2.209  11.116  1.0693 -1.1755 -0.1961
35821SOL    HW217778  12.732   2.068  11.171 -0.9723 -0.5719  1.4292
35822SOL     OW17779   4.847   5.974   9.205  0.0864 -0.4770  0.8966
35822SOL    HW117780   4.834   5.937   9.293 -1.2737  0.0210  0.9251
35822SOL    HW217781   4.823   6.066   9.214 -0.5129 -0.5282 -0.1055
35823SOL     OW17782   5.881  10.276   4.787  0.6247 -0.0863 -0.2325
35823SOL    HW117783   5.924  10.362   4.787  1.4753 -0.5006 -1.1142
35823SOL    HW217784   5.796  10.293   4.828  0.7356  1.2015 -0.4716
35824SOL     OW17785   5.273   1.760   4.608 -0.2144 -0.4356 -0.6965
35824SOL    HW117786   5.346   1.725   4.660  1.9578  0.5815 -2.8386
35824SOL    HW217787   5.223   1.682   4.583 -0.1456 -1.1312  1.1474
35825SOL     OW17788   5.560   8.866   2.862  0.7690 -0.1486 -0.3678
35825SOL    HW117789   5.557   8.958   2.888  0.5120 -0.2493 -0.0265
35825SOL    HW217790   5.592   8.821   2.941  1.4873 -0.2820 -0.7263
35826SOL     OW17791  12.234   5.161   5.190 -0.4219 -0.0050  0.0684
35826SOL    HW117792  12.163   5.178   5.129  1.3067  0.1624 -2.0305
35826SOL    HW217793  12.283   5.243   5.194  0.0009 -0.2867  1.0035
35827SOL     OW17794   2.156  12.834   5.120  0.1724 -0.0799 -0.5558
35827SOL    HW117795   2.200  12.900   5.067  0.9879 -0.0686  0.1223
35827SOL    HW217796   2.216  12.760   5.121 -0.7625 -0.8759 -1.3641
35828SOL     OW17797   3.423  10.350   8.665 -0.3963  0.1385 -0.0249
35828SOL    HW117798   3.458  10.360   8.576 -0.4789 -1.2227 -0.2333
35828SOL    HW217799   3.441  10.434   8.707  0.7450  0.3833 -0.9446
35829SOL     OW17800   8.346   0.763   0.503  0.2623 -0.0112 -0.0496
35829SOL    HW117801   8.345   0.713   0.585 -0.8385  0.7808  0.4494
35829SOL    HW217802   8.347   0.697   0.434 -0.3519 -0.7103  0.5973
35830SOL     OW17803   5.662  10.768   4.775 -0.7405 -0.7600  0.4137
35830SOL    HW117804   5.654  10.798   4.685 -0.7306  3.2774  1.5526
35830SOL    HW217805   5.584  10.714   4.790 -1.1048 -0.9010 -1.7558
35831SOL     OW17806   0.953  10.892   3.793 -0.4043 -0.2998  0.1276
35831SOL    HW117807   1.040  10.929   3.803 -0.3509 -0.3832 -0.0291
35831SOL    HW217808   0.894  10.958   3.830 -0.3081 -0.0610 -0.1424
35832SOL     OW17809   2.756  10.929   8.748  0.2840  0.0971 -0.0378
35832SOL    HW117810   2.716  10.997   8.693  0.4199  1.7442  1.7963
35832SOL    HW217811   2.809  10.878   8.687 -0.5275  1.0889 -1.6419
35833SOL     OW17812   1.784   8.692  11.508  0.1369 -0.0344 -0.0560
35833SOL    HW117813   1.874   8.698  11.540  0.9795 -0.1988 -2.2072
35833SOL    HW217814   1.731   8.682  11.587  1.9346  0.6785  1.3128
35834SOL     OW17815   0.689   5.002   0.703 -0.0846 -0.7436  0.2784
35834SOL    HW117816   0.724   4.965   0.784 -0.0552 -1.9756 -0.2877
35834SOL    HW217817   0.606   5.042   0.730  0.5234 -0.0200  1.1449
35835SOL     OW17818  10.654   2.379  12.197 -0.0895  0.2149  0.1279
35835SOL    HW117819  10.566   2.394  12.232  0.6705 -0.8268  2.6923
35835SOL    HW217820  10.713   2.414  12.263  1.4493 -0.3741 -0.8675
35836SOL     OW17821   9.520   9.540   5.963 -0.1962 -0.3051 -0.2564
35836SOL    HW117822   9.604   9.582   5.977 -0.5465  0.5810 -0.6972
35836SOL    HW217823   9.541   9.449   5.941  0.6163 -0.1701 -0.0423
35837SOL     OW17824   1.683  11.254  10.712  0.0639  0.0350 -0.1282
35837SOL    HW117825   1.649  11.322  10.771  1.4943  1.9863 -1.3969
35837SOL    HW217826   1.618  11.248  10.642  0.0044  0.2217 -0.0907
35838SOL     OW17827   8.927   7.344   5.915  0.7611  0.2109 -0.1329
35838SOL    HW117828   9.008   7.320   5.872  0.8661  0.2476  0.0434
35838SOL    HW217829   8.950   7.351   6.008  0.1412 -1.6846  0.2067
35839SOL     OW17830   3.664   7.794   8.985  0.2652  0.4362  0.0523
35839SOL    HW117831   3.628   7.776   9.072 -3.6428  1.9149 -1.0920
35839SOL    HW217832   3.694   7.885   8.990 -0.1778  0.5956 -0.2242
35840SOL     OW17833   8.731   5.818   7.711 -0.0901  0.2086  0.3640
35840SOL    HW117834   8.681   5.885   7.757 -0.1761  0.2634  0.1930
35840SOL    HW217835   8.664   5.760   7.674 -0.1033  1.2679 -1.3733
35841SOL     OW17836   3.003   7.836   1.611 -0.0759  0.4265 -0.0824
35841SOL    HW117837   3.032   7.906   1.553 -1.6107 -0.7575 -2.4183
35841SOL    HW217838   2.914   7.815   1.582  0.3058 -2.4812  0.5106
35842SOL     OW17839   5.621   0.729  12.798 -0.0673 -0.4798 -0.1535
35842SOL    HW117840   5.599   0.685  12.715 -1.3862 -3.2243  1.4852
35842SOL    HW217841   5.548   0.788  12.813 -0.2321 -0.5709 -0.5635
35843SOL     OW17842   3.043   0.445   5.375  0.1241  0.3893  0.0729
35843SOL    HW117843   3.057   0.388   5.299 -0.7862 -1.8230  1.4492
35843SOL    HW217844   2.990   0.517   5.341  1.3362  0.4816 -1.7596
35844SOL     OW17845  11.165   5.357  11.193 -0.0011  0.4117 -0.2602
35844SOL    HW117846  11.249   5.396  11.170  1.0670 -0.8003  1.3368
35844SOL    HW217847  11.167   5.271  11.151 -0.6827  0.5733 -0.6367
35845SOL     OW17848   0.054   7.949  11.781 -0.2516  0.6518 -0.1429
35845SOL    HW117849   0.143   7.954  11.814 -0.4418 -0.7718  0.6568
35845SOL    HW217850   0.053   7.870  11.727 -1.4134 -0.2539  1.1451
35846SOL     OW17851   8.383  10.440   3.183  0.4025 -0.2726 -0.4580
35846SOL    HW117852   8.335  10.502   3.236  4.0431  1.5124  1.0783
35846SOL    HW217853   8.381  10.477   3.095 -1.0125 -0.3144 -0.4671
35847SOL     OW17854  12.507   3.797   8.908  0.2313  0.1433 -0.3646
35847SOL    HW117855  12.564   3.746   8.849  0.1780  0.3966 -0.6351
35847SOL    HW217856  12.431   3.820   8.854  0.1747  0.3617 -0.1909
35848SOL     OW17857   3.201   8.882  12.053 -0.5305 -0.1049  0.1387
35848SOL    HW117858   3.257   8.838  12.116 -0.0166 -1.0483 -0.9411
35848SOL    HW217859   3.160   8.953  12.102 -0.1758 -0.8308  1.5280
35849SOL     OW17860   9.564   4.184   5.776 -0.4628 -0.5265 -0.1196
35849SOL    HW117861   9.597   4.250   5.716  0.2065 -1.8870 -1.2974
35849SOL    HW217862   9.621   4.190   5.852 -0.4835  0.3065 -0.1614
35850SOL     OW17863   4.051   9.422   4.994  0.0037  0.5680 -0.0330
35850SOL    HW117864   3.973   9.374   4.966  0.6427  0.3950 -1.6112
35850SOL    HW217865   4.116   9.403   4.927  0.9508  1.8953  0.4718
35851SOL     OW17866   7.780   4.963   3.786  0.0357  0.0235 -0.9249
35851SOL    HW117867   7.834   4.954   3.707  0.9804 -0.1357 -0.2784
35851SOL    HW217868   7.837   5.007   3.849 -1.4029  2.0943 -0.9858
35852SOL     OW17869   5.316   5.836   4.240  0.3272 -0.0526  0.0054
35852SOL    HW117870   5.304   5.744   4.215  0.3095 -0.1281  0.2902
35852SOL    HW217871   5.337   5.880   4.158 -1.2880 -0.0159 -0.4175
35853SOL     OW17872   4.693  12.815   2.021 -0.2552 -0.2881 -0.0369
35853SOL    HW117873   4.761  12.765   1.976  0.5238  0.4592  0.2812
35853SOL    HW217874   4.685  12.774   2.107  1.2032  0.7898  0.6590
35854SOL     OW17875   4.783   8.376   9.947 -0.4293 -0.3573 -0.8139
35854SOL    HW117876   4.709   8.317   9.959 -0.2261 -1.2289 -3.2515
35854SOL    HW217877   4.821   8.385  10.034 -3.7664  0.7505  0.7340
35855SOL     OW17878   5.011   1.926  10.246  0.2442 -0.3241 -0.2682
35855SOL    HW117879   4.980   1.980  10.319 -0.0544 -1.3541  0.3873
35855SOL    HW217880   5.038   1.989  10.179 -2.2069  0.6424 -0.4327
35856SOL     OW17881   2.540   4.542   4.087 -0.2968  0.7148  0.1664
35856SOL    HW117882   2.508   4.533   4.177  0.2954  0.7910  0.3897
35856SOL    HW217883   2.615   4.601   4.094 -0.2786  0.7651 -0.3884
35857SOL     OW17884   6.718   7.335   7.380 -0.0393  0.0797  0.1759
35857SOL    HW117885   6.635   7.369   7.347  0.4410  0.8003 -0.3234
35857SOL    HW217886   6.698   7.246   7.410 -0.3607 -1.0187 -2.8631
35858SOL     OW17887  10.056  10.190   0.835 -0.2696 -0.5056 -0.1320
35858SOL    HW117888  10.111  10.140   0.774  1.0525 -0.0294  0.6540
35858SOL    HW217889  10.076  10.281   0.816  0.1740 -0.3520  1.0296
35859SOL     OW17890   8.924   2.909  10.051  0.2224  0.7045 -0.2462
35859SOL    HW117891   8.899   2.926   9.960 -0.8206 -2.2786 -0.6410
35859SOL    HW217892   9.003   2.855  10.044 -0.9100 -1.1383  0.4660
35860SOL     OW17893   5.223   3.259   5.784  0.1469 -0.1842 -0.4513
35860SOL    HW117894   5.207   3.206   5.862 -0.6220 -0.8911 -1.0741
35860SOL    HW217895   5.270   3.336   5.817 -0.3639 -0.3559  0.7310
35861SOL     OW17896   5.791   2.726   5.976  0.2840  0.5179  0.2628
35861SOL    HW117897   5.818   2.802   5.924  3.5715  1.4518  2.9571
35861SOL    HW217898   5.833   2.651   5.933  1.7995  1.0764  0.7142
35862SOL     OW17899   9.873   3.711  12.456  0.0935  0.0410  0.3860
35862SOL    HW117900   9.800   3.766  12.482 -0.1260 -0.1688  0.2213
35862SOL    HW217901   9.879   3.723  12.361 -1.9560 -2.5526 -0.2046
35863SOL     OW17902   0.386   1.209  10.471 -0.6143  0.3074  0.4180
35863SOL    HW117903   0.302   1.208  10.425 -0.2523  1.0935 -0.3007
35863SOL    HW217904   0.423   1.122  10.455 -1.1630  0.0577  0.4965
35864SOL     OW17905   8.008   9.754   9.120  0.4228 -0.0026  0.0505
35864SOL    HW117906   8.072   9.783   9.054  0.3862 -0.3724 -0.1494
35864SOL    HW217907   7.954   9.690   9.074  0.4216 -0.2896  0.4527
35865SOL     OW17908   7.217   6.646   6.113 -0.6153 -0.1172  0.2464
35865SOL    HW117909   7.262   6.611   6.190 -0.2628 -1.1086 -0.3920
35865SOL    HW217910   7.151   6.580   6.092 -0.2074 -0.2312 -0.7387
35866SOL     OW17911  12.984   9.852   6.282  0.6129  0.5995 -0.4371
35866SOL    HW117912  13.060   9.906   6.305  1.3463 -0.6654  0.1716
35866SOL    HW217913  13.022   9.775   6.240 -0.4954  1.1832 -2.6767
35867SOL     OW17914   8.922   7.527   3.368  0.4150 -0.6070 -0.3787
35867SOL    HW117915   8.904   7.434   3.383  1.2558 -1.1267 -2.2551
35867SOL    HW217916   8.836   7.565   3.349  0.0961 -1.0381  0.1638
35868SOL     OW17917   5.935   0.870  10.300  0.0416 -0.3165 -0.1558
35868SOL    HW117918   5.886   0.891  10.380  1.3848 -1.3767  0.9936
35868SOL    HW217919   5.894   0.790  10.267 -0.1597 -0.1877 -0.2190
35869SOL     OW17920   2.083   9.198   6.570  0.2341  0.2462 -0.2111
35869SOL    HW117921   2.012   9.167   6.626  0.2313 -1.0347 -0.8745
35869SOL    HW217922   2.126   9.266   6.621 -0.8346  0.3330  0.6185
35870SOL     OW17923   5.794   5.852   4.447 -0.0927 -0.0530  0.6833
35870SOL    HW117924   5.768   5.762   4.465 -2.9402  0.3672 -0.6480
35870SOL    HW217925   5.838   5.849   4.363 -0.1633 -0.2168  0.6529
35871SOL     OW17926   8.368   8.985  12.603  0.2675  0.9123  0.0522
35871SOL    HW117927   8.275   9.005  12.613 -0.3081 -1.6472  0.6286
35871SOL    HW217928   8.380   8.904  12.653  2.7515  1.0244 -0.2700
35872SOL     OW17929   3.515  10.328   0.612  0.1128  0.1582 -0.9988
35872SOL    HW117930   3.609  10.340   0.615 -0.0245  1.1555  0.0582
35872SOL    HW217931   3.487  10.329   0.704 -0.9631  0.3039 -1.3050
35873SOL     OW17932   3.588   2.627   0.808  0.1694  0.2419  0.1496
35873SOL    HW117933   3.500   2.592   0.798  0.7934 -1.1995 -0.4889
35873SOL    HW217934   3.624   2.631   0.719  1.2382 -0.5313  0.5225
35874SOL     OW17935   8.846   8.931   6.120 -0.3001 -0.5466  0.0725
35874SOL    HW117936   8.840   8.915   6.026  1.8723  2.2740 -0.6930
35874SOL    HW217937   8.812   9.019   6.132  2.1703  0.3334  1.3766
35875SOL     OW17938   0.402   6.345   1.175 -0.3704  0.1116 -0.2973
35875SOL    HW117939   0.407   6.432   1.135 -1.6572  0.8405  1.0346
35875SOL    HW217940   0.308   6.332   1.191  0.0766  0.1499  2.9645
35876SOL     OW17941   2.219   3.740   9.022  0.2413 -0.2243  0.0838
35876SOL    HW117942   2.277   3.802   9.066 -0.8052 -0.4372  1.8763
35876SOL    HW217943   2.229   3.659   9.071 -0.0076 -0.8579 -0.8942
35877SOL     OW17944   0.685   0.363   7.775 -0.0516  0.1478 -0.0406
35877SOL    HW117945   0.693   0.454   7.804 -1.7206  0.4973 -0.5662
35877SOL    HW217946   0.681   0.370   7.679 -1.1107 -0.3845 -0.0435
35878SOL     OW17947   8.055   5.147   2.824  0.2120 -0.8477  0.4962
35878SOL    HW117948   8.000   5.125   2.900 -0.9353 -2.1831 -0.6547
35878SOL    HW217949   8.051   5.243   2.819  0.0769 -0.7600  1.9466
35879SOL     OW17950   7.692   9.058   1.216 -0.2873 -0.6350 -1.0126
35879SOL    HW117951   7.688   9.150   1.241 -2.1359 -0.8415 -0.3746
35879SOL    HW217952   7.767   9.052   1.156  0.8144  0.9531  0.1402
35880SOL     OW17953   6.396  10.732   0.150 -0.7464 -0.3690  0.1389
35880SOL    HW117954   6.390  10.811   0.096 -1.7576  0.7342  1.7615
35880SOL    HW217955   6.310  10.690   0.140 -0.3933 -0.9939 -0.3091
35881SOL     OW17956   5.546   8.163   6.966  0.0260  0.2891 -0.2719
35881SOL    HW117957   5.614   8.098   6.987 -0.1598 -0.1915 -1.1179
35881SOL    HW217958   5.587   8.247   6.985  0.7267 -0.0148 -0.4003
35882SOL     OW17959   9.258   1.461   2.816  0.1895 -0.1297  0.0119
35882SOL    HW117960   9.307   1.379   2.817 -0.8424 -0.7597  0.7513
35882SOL    HW217961   9.168   1.435   2.794 -0.1051  0.8235  0.0413
35883SOL     OW17962   5.917   8.681   2.314 -0.0905 -0.0959 -0.1544
35883SOL    HW117963   5.970   8.673   2.234  1.0489 -2.3984  0.7717
35883SOL    HW217964   5.833   8.642   2.291  0.2320 -0.7462 -0.2380
35884SOL     OW17965   0.526   8.872   2.628  0.1779  0.3307  0.3655
35884SOL    HW117966   0.621   8.860   2.628  0.1557  0.1370 -0.3146
35884SOL    HW217967   0.492   8.793   2.669  0.1602 -0.9977 -2.0545
35885SOL     OW17968  10.285   2.863   2.612  0.0857  0.1948  0.1004
35885SOL    HW117969  10.193   2.845   2.592 -0.6716  2.2649  1.4033
35885SOL    HW217970  10.326   2.877   2.527 -0.6475 -1.2663 -0.5365
35886SOL     OW17971   7.713   8.571  10.779  0.4836 -0.4748  0.3772
35886SOL    HW117972   7.786   8.622  10.814  0.2813 -1.1515  1.8368
35886SOL    HW217973   7.719   8.583  10.684  0.5774  2.0840  0.6354
35887SOL     OW17974   1.842   7.292   0.246  0.5749 -0.0588 -0.4863
35887SOL    HW117975   1.746   7.285   0.248  0.4815  0.9639 -1.0040
35887SOL    HW217976   1.861   7.333   0.162  1.4509  0.1737 -0.1801
35888SOL     OW17977  10.723   0.080   3.951 -0.5192  0.2925  0.5720
35888SOL    HW117978  10.806   0.115   3.984 -0.4867 -0.3133  1.1799
35888SOL    HW217979  10.749   0.011   3.891 -0.5403 -1.0176  1.9944
35889SOL     OW17980   6.633   8.153   1.305 -0.0320 -0.2509 -0.0076
35889SOL    HW117981   6.592   8.131   1.222 -0.5984 -3.0362  0.8783
35889SOL    HW217982   6.708   8.093   1.312  0.1681  0.1159  1.3508
35890SOL     OW17983  10.086   7.539   1.171  0.1869  0.5398 -0.4843
35890SOL    HW117984  10.038   7.470   1.125  1.8736 -0.7495 -0.3591
35890SOL    HW217985  10.176   7.508   1.176  0.8356  2.3838  0.3258
35891SOL     OW17986   3.551   6.327   4.965  0.2208 -0.5559  0.2448
35891SOL    HW117987   3.506   6.411   4.953  0.2015  0.0163  3.3904
35891SOL    HW217988   3.486   6.261   4.942 -0.0490  0.2699 -1.4567
35892SOL     OW17989  11.540   5.746   0.066  0.0884  0.4958 -0.4174
35892SOL    HW117990  11.589   5.674   0.027  0.0015 -0.1259  0.5836
35892SOL    HW217991  11.515   5.714   0.153 -0.0358  1.6938  0.0115
35893SOL     OW17992  10.803   5.051   8.682 -0.1512 -0.1963  0.0744
35893SOL    HW117993  10.796   5.120   8.617 -1.7488 -1.2558 -0.9552
35893SOL    HW217994  10.714   5.040   8.716  0.6191  0.2900  2.4527
35894SOL     OW17995   3.824   8.778   8.365  0.6702 -0.2782  0.2160
35894SOL    HW117996   3.870   8.694   8.357  0.6172 -0.2514 -0.3877
35894SOL    HW217997   3.824   8.814   8.277  1.4988  0.7949  0.6391
35895SOL     OW17998   3.501   0.961   5.726  0.3544  0.3773  0.1081
35895SOL    HW117999   3.542   1.048   5.724  1.8055 -0.2811 -0.4592
35895SOL    HW218000   3.431   0.966   5.661 -0.4834  1.5129  1.0418
35896SOL     OW18001   4.320   1.722   1.252 -0.0273  0.1032 -0.0461
35896SOL    HW118002   4.362   1.752   1.333  1.7193 -1.4692 -0.2867
35896SOL    HW218003   4.305   1.802   1.202  1.9875  0.8430  0.4317
35897SOL     OW18004   5.745   8.525  11.558 -0.2398 -0.2985 -0.9739
35897SOL    HW118005   5.741   8.436  11.523 -0.6036 -1.5124  1.8880
35897SOL    HW218006   5.815   8.567  11.507 -1.4681 -1.4523 -3.8576
35898SOL     OW18007   4.671   3.432   5.372 -0.3135 -0.1199 -0.0799
35898SOL    HW118008   4.588   3.461   5.335 -0.8723 -1.3006  0.1845
35898SOL    HW218009   4.685   3.490   5.448 -0.5356  0.5246 -0.5218
35899SOL     OW18010   8.459   2.378   4.240  0.1034 -0.1833  0.2947
35899SOL    HW118011   8.422   2.292   4.257 -0.3648 -0.1162 -0.3510
35899SOL    HW218012   8.545   2.359   4.202 -0.8704 -0.4404 -1.9202
35900SOL     OW18013   9.797  12.684  11.272  0.5871 -0.4714  0.3548
35900SOL    HW118014   9.794  12.778  11.255  2.6558 -0.4405 -0.2066
35900SOL    HW218015   9.756  12.644  11.195  1.4850 -0.0569 -0.3608
35901SOL     OW18016   8.917   2.492   5.611 -0.4514  0.3646 -0.1884
35901SOL    HW118017   8.935   2.496   5.704 -2.2017  0.3318  0.1888
35901SOL    HW218018   8.963   2.567   5.573  1.5771 -0.5144  0.4325
35902SOL     OW18019   8.551   1.506   1.492  0.1473  0.4643 -0.0203
35902SOL    HW118020   8.594   1.515   1.407  4.6160 -0.5239  1.8784
35902SOL    HW218021   8.599   1.436   1.536 -2.4454  0.4244  3.1230
35903SOL     OW18022   4.039   6.259   4.913  0.2429  0.7226  0.0201
35903SOL    HW118023   4.027   6.271   5.007 -0.2727 -2.7965  0.5483
35903SOL    HW218024   3.953   6.232   4.881  0.7131  0.6460 -1.2455
35904SOL     OW18025   9.391   6.820   8.030  0.4183  0.0705  0.0159
35904SOL    HW118026   9.337   6.888   7.990 -2.3147 -1.3355  1.0580
35904SOL    HW218027   9.383   6.835   8.124  2.0882 -0.0826  0.2244
35905SOL     OW18028   5.138  11.548   6.498 -0.6587  0.2554 -0.0550
35905SOL    HW118029   5.062  11.570   6.444 -1.6518  0.3418  1.3084
35905SOL    HW218030   5.128  11.455   6.516  0.0052  0.0915 -0.5118
35906SOL     OW18031  11.697   8.533  12.813  0.1314  0.4794 -0.0882
35906SOL    HW118032  11.698   8.439  12.796 -1.8315  0.2634  0.7078
35906SOL    HW218033  11.731   8.542  12.902  0.5745  0.5640 -0.2629
35907SOL     OW18034  12.539  10.950   6.645 -0.3450  0.1361 -0.5303
35907SOL    HW118035  12.493  11.030   6.670  0.3667  1.0504 -2.0246
35907SOL    HW218036  12.632  10.971   6.652 -0.1384 -0.7406 -0.4199
35908SOL     OW18037  12.512  12.381   8.434 -0.3747 -0.0004  0.2900
35908SOL    HW118038  12.515  12.457   8.492 -2.6421 -0.8349  1.6307
35908SOL    HW218039  12.545  12.309   8.488 -2.9062 -0.8703  0.8304
35909SOL     OW18040   2.767   5.795   1.023 -0.1879  0.1192  0.2119
35909SOL    HW118041   2.695   5.737   0.996 -0.8664  0.9563  0.1726
35909SOL    HW218042   2.842   5.737   1.034 -1.0754 -0.8953  1.0723
35910SOL     OW18043  12.344   2.020   9.397 -0.1162 -0.4674 -0.5538
35910SOL    HW118044  12.351   2.001   9.303 -0.2567  1.7189 -1.0774
35910SOL    HW218045  12.431   2.051   9.422 -0.6180  1.0240 -0.5332
35911SOL     OW18046   0.949  10.713   7.854 -0.1646 -0.4507  0.2249
35911SOL    HW118047   0.973  10.805   7.846 -0.7813 -0.0695  2.1769
35911SOL    HW218048   1.032  10.667   7.868  0.0810 -0.1044 -0.0894
35912SOL     OW18049   3.975   0.602   0.540  0.4977  0.1234 -0.2984
35912SOL    HW118050   3.904   0.618   0.602 -0.4194 -0.2050 -1.2275
35912SOL    HW218051   3.949   0.650   0.461  1.3021 -0.0218 -0.6600
35913SOL     OW18052  11.499   1.651   5.265  0.5944 -0.1612  0.1773
35913SOL    HW118053  11.517   1.667   5.173  1.9868  0.0227  0.4551
35913SOL    HW218054  11.525   1.731   5.309  1.6902 -0.8840  0.9112
35914SOL     OW18055   1.134   9.931   1.415 -0.1232 -0.1481  0.0823
35914SOL    HW118056   1.046   9.900   1.437 -0.4003  0.8651  0.4853
35914SOL    HW218057   1.156   9.886   1.333 -0.6437 -1.0863  0.4392
35915SOL     OW18058   7.734   3.318   4.584  0.2318  0.5097 -0.4033
35915SOL    HW118059   7.756   3.408   4.608 -0.3930  0.3898  0.7354
35915SOL    HW218060   7.790   3.298   4.510  3.6831  0.3762  1.9927
35916SOL     OW18061   9.827   0.659  11.842 -0.0533  0.3485  0.3791
35916SOL    HW118062   9.884   0.683  11.768  2.6962  0.6914  2.4623
35916SOL    HW218063   9.845   0.567  11.856 -0.1896  0.4061  0.9291
35917SOL     OW18064   7.391   7.303   7.558  0.8178 -0.5053  0.2080
35917SOL    HW118065   7.334   7.307   7.481 -0.3657  1.1632  1.1174
35917SOL    HW218066   7.480   7.304   7.522  0.2917 -0.3957 -1.1534
35918SOL     OW18067   9.299  11.911   6.756 -0.0521  0.1500  0.4622
35918SOL    HW118068   9.363  11.974   6.789 -1.4416  2.6111 -1.3227
35918SOL    HW218069   9.349  11.856   6.695  0.8746  0.3479  1.0116
35919SOL     OW18070   4.346   9.546   0.093 -0.0510 -0.6186 -0.1735
35919SOL    HW118071   4.306   9.620   0.140  1.7977 -0.0287  0.5734
35919SOL    HW218072   4.341   9.473   0.155 -0.5798 -0.7453 -0.3579
35920SOL     OW18073   5.549  11.631   5.780  0.0190  0.1123  0.0830
35920SOL    HW118074   5.502  11.711   5.755 -0.6833  0.0547  1.1730
35920SOL    HW218075   5.641  11.652   5.765 -0.2769  0.4576 -1.4524
35921SOL     OW18076  11.684   8.335   3.508  0.3984  0.1961 -0.5004
35921SOL    HW118077  11.768   8.293   3.526 -0.0612 -0.5527 -0.0205
35921SOL    HW218078  11.685   8.414   3.562  0.8445  0.2639 -0.6025
35922SOL     OW18079   5.671   1.588  10.457  0.2265 -0.2214  0.3241
35922SOL    HW118080   5.739   1.563  10.395 -0.7077 -0.9635 -0.4369
35922SOL    HW218081   5.651   1.679  10.435 -0.3876 -0.5954 -0.7904
35923SOL     OW18082   5.040   6.274   8.809  0.6588 -0.0340 -0.2783
35923SOL    HW118083   4.947   6.283   8.828  0.3021 -1.6075 -1.1062
35923SOL    HW218084   5.083   6.289   8.893 -0.3177  0.9112  0.0717
35924SOL     OW18085   6.967   7.376   7.285 -0.4060  0.2629 -0.0663
35924SOL    HW118086   6.872   7.365   7.291 -1.0465  4.3056  0.0415
35924SOL    HW218087   6.988   7.358   7.194 -1.0937 -1.4312  0.0794
35925SOL     OW18088   4.681   8.011  10.249  0.3684 -0.0508  0.0973
35925SOL    HW118089   4.693   7.930  10.199  0.8450 -0.0960  0.2799
35925SOL    HW218090   4.754   8.067  10.223  0.0034  0.3494 -0.0790
35926SOL     OW18091   0.473  10.628   1.303 -0.4510 -0.2055 -0.0290
35926SOL    HW118092   0.414  10.554   1.290 -0.9405  0.3016 -0.7661
35926SOL    HW218093   0.514  10.641   1.218  0.5844 -0.4128  0.4177
35927SOL     OW18094   6.994   8.761   3.955 -0.0619  0.1033  0.3342
35927SOL    HW118095   7.086   8.777   3.974 -0.3390 -0.1835  2.1287
35927SOL    HW218096   6.992   8.734   3.863  1.4783  1.3123 -0.0841
35928SOL     OW18097   0.185   9.794   2.086 -0.0595  0.1176 -0.2015
35928SOL    HW118098   0.214   9.844   2.010 -1.3036  1.2803  0.0371
35928SOL    HW218099   0.135   9.721   2.049  2.5282 -1.6041 -0.5897
35929SOL     OW18100   4.060   6.818  10.524  0.4476  0.4609  0.0370
35929SOL    HW118101   3.975   6.810  10.481  0.1667  1.0209  0.4840
35929SOL    HW218102   4.069   6.911  10.543  1.7628  0.6422 -1.2327
35930SOL     OW18103   4.720   3.004   6.991 -0.2713 -0.3529  0.2257
35930SOL    HW118104   4.740   3.066   6.921 -2.0404 -0.7923 -0.7295
35930SOL    HW218105   4.654   2.945   6.953  0.0231 -1.7050  1.6927
35931SOL     OW18106  10.121   8.430   5.728  0.7974  0.3527 -0.8094
35931SOL    HW118107  10.053   8.481   5.685 -0.2848 -1.9134 -1.9841
35931SOL    HW218108  10.201   8.448   5.678  0.1396 -0.1296 -2.0634
35932SOL     OW18109   0.334   6.904  12.744  0.5206 -0.1463 -0.1073
35932SOL    HW118110   0.269   6.833  12.752 -0.6936  0.9624  0.2287
35932SOL    HW218111   0.415   6.865  12.775 -0.6528 -0.7007  2.5412
35933SOL     OW18112   8.438   5.529   7.810  0.1399  0.2793 -0.1945
35933SOL    HW118113   8.356   5.497   7.773  0.7732 -0.4088 -1.0468
35933SOL    HW218114   8.480   5.577   7.739  0.9196 -0.2099 -0.0796
35934SOL     OW18115   1.208   9.728   6.134 -0.1883 -0.2474  0.0678
35934SOL    HW118116   1.163   9.730   6.218 -0.4318 -1.5450 -0.0092
35934SOL    HW218117   1.206   9.818   6.103 -1.1556  0.0282  0.8954
35935SOL     OW18118   0.784   2.762   8.735 -0.5692  0.3483 -0.3571
35935SOL    HW118119   0.852   2.796   8.792  0.0973  1.2255 -1.6059
35935SOL    HW218120   0.766   2.674   8.767  0.7638  0.3057  0.3264
35936SOL     OW18121   5.522  10.931  10.803 -0.0136  0.3398  0.3127
35936SOL    HW118122   5.478  10.911  10.886 -0.4309 -2.2569 -0.4473
35936SOL    HW218123   5.458  10.981  10.753  0.0251  1.4293  1.3051
35937SOL     OW18124  11.212   5.412   0.165  0.1754  0.0750 -0.2024
35937SOL    HW118125  11.232   5.408   0.072 -1.5976 -0.7118 -0.6001
35937SOL    HW218126  11.190   5.504   0.180  0.8523  0.2839 -0.4616
35938SOL     OW18127   4.289  12.323   6.747  0.4140  0.1560  0.1222
35938SOL    HW118128   4.340  12.322   6.828  0.5512  1.7979  0.1077
35938SOL    HW218129   4.353  12.305   6.678  0.2323 -1.5956  0.3780
35939SOL     OW18130  10.300   9.578   2.051  0.3786 -0.6864 -0.2378
35939SOL    HW118131  10.228   9.530   2.010  0.4463 -1.1321  0.1682
35939SOL    HW218132  10.377   9.522   2.039  0.4444 -0.7141  0.3092
35940SOL     OW18133   8.721   9.712   4.658  0.2652  0.4026  0.4923
35940SOL    HW118134   8.772   9.790   4.683  0.4239  0.2959  0.5041
35940SOL    HW218135   8.777   9.667   4.594  0.6872 -0.3164  1.3519
35941SOL     OW18136   1.266  11.730   1.855  0.4048  0.2997 -0.5700
35941SOL    HW118137   1.226  11.798   1.802 -2.4002 -0.3855  0.4984
35941SOL    HW218138   1.325  11.684   1.795 -2.2771 -0.1752 -3.0693
35942SOL     OW18139   7.078   6.141   6.364  0.0016 -0.0879  0.4369
35942SOL    HW118140   7.054   6.146   6.457  1.8857 -0.0744  0.9738
35942SOL    HW218141   7.033   6.064   6.331 -1.2211  0.2769  1.1823
35943SOL     OW18142  12.500  11.421   1.938 -0.2332  0.5891  0.4053
35943SOL    HW118143  12.436  11.399   1.871  1.3755 -0.4156 -0.8788
35943SOL    HW218144  12.503  11.516   1.939  1.1265  0.6690 -2.4485
35944SOL     OW18145   6.405   1.719  10.044 -0.2171 -0.4701  0.3550
35944SOL    HW118146   6.393   1.748  10.134  0.3795  1.0896 -0.0473
35944SOL    HW218147   6.484   1.664  10.047  0.1203  0.0269  0.6900
35945SOL     OW18148   5.371   6.995   0.489  0.0215 -0.4744  0.7555
35945SOL    HW118149   5.312   7.065   0.463  0.0367 -0.4595  0.7596
35945SOL    HW218150   5.447   7.041   0.527  1.4406 -0.3478 -1.9870
35946SOL     OW18151   4.019   4.518   5.639 -0.0457 -0.5568  0.3498
35946SOL    HW118152   4.014   4.461   5.562  1.5574 -1.4648  0.8543
35946SOL    HW218153   4.010   4.458   5.713 -1.6892  0.3275  0.8884
35947SOL     OW18154  11.703   7.970   4.020 -0.1630  0.0469 -0.0803
35947SOL    HW118155  11.646   7.936   4.088  0.1862  1.2506  0.8564
35947SOL    HW218156  11.788   7.930   4.036  0.7108  2.4813  2.0895
35948SOL     OW18157   2.136  10.439   4.464 -0.0935  0.3401  0.5796
35948SOL    HW118158   2.075  10.419   4.393  2.2248  0.0228 -1.4485
35948SOL    HW218159   2.094  10.401   4.542 -2.3675 -0.0150 -0.7010
35949SOL     OW18160  10.917  10.780   4.609 -0.6099  0.4154  0.2683
35949SOL    HW118161  10.908  10.765   4.703  0.3234  0.3211  0.3493
35949SOL    HW218162  10.987  10.721   4.581 -2.4499 -1.3250 -0.9575
35950SOL     OW18163   2.690   5.498   3.384  0.3365 -0.6099 -0.4491
35950SOL    HW118164   2.764   5.487   3.444 -0.1373  1.7378  0.6825
35950SOL    HW218165   2.615   5.461   3.430  0.3773 -0.8201 -0.5525
35951SOL     OW18166   0.960   3.628   6.488  0.2570 -0.0005 -0.5132
35951SOL    HW118167   0.991   3.694   6.425  1.1369 -2.5864 -2.9901
35951SOL    HW218168   0.882   3.591   6.447  0.3830 -1.2217  0.3131
35952SOL     OW18169  10.046  11.446   7.568  0.1850 -0.7058  0.3155
35952SOL    HW118170  10.064  11.359   7.605 -1.1456 -0.6875  1.0651
35952SOL    HW218171   9.965  11.473   7.610 -0.0997  0.3647 -0.8753
35953SOL     OW18172   6.030   7.034   9.463 -0.8629  0.1726 -0.0324
35953SOL    HW118173   5.982   7.059   9.383  1.3849 -2.7909 -2.5674
35953SOL    HW218174   5.979   6.963   9.501 -0.6499 -0.1545 -0.3476
35954SOL     OW18175  10.343   3.580  11.128 -0.5846 -0.4741  0.3794
35954SOL    HW118176  10.392   3.519  11.183  1.2778  0.1014 -0.5747
35954SOL    HW218177  10.320   3.528  11.050  2.0843  0.2601 -1.0081
35955SOL     OW18178  10.519   7.589  11.877 -0.3430 -0.2567  0.2982
35955SOL    HW118179  10.456   7.646  11.833 -1.1130 -1.5529 -0.3292
35955SOL    HW218180  10.512   7.612  11.970 -1.3624 -0.0298  0.1793
35956SOL     OW18181   0.685   1.027  10.614 -0.0131  0.4561 -0.0992
35956SOL    HW118182   0.650   0.993  10.531 -0.5573  1.0935 -0.1435
35956SOL    HW218183   0.611   1.021  10.674  0.4591 -0.2559  0.4291
35957SOL     OW18184   8.080   1.417   6.269  0.1565 -0.1657  0.6071
35957SOL    HW118185   8.146   1.353   6.296 -1.0692 -1.2138  1.2187
35957SOL    HW218186   8.068   1.473   6.345  1.8009  1.3636 -0.1811
35958SOL     OW18187  12.511   5.871   6.581 -0.5626  0.1196  0.1056
35958SOL    HW118188  12.434   5.837   6.535 -0.3770  0.2338 -0.2935
35958SOL    HW218189  12.561   5.917   6.514  0.3127 -0.7270  0.1548
35959SOL     OW18190  10.702   3.420   8.158 -0.2902 -0.3633 -0.1191
35959SOL    HW118191  10.681   3.406   8.250 -1.4404  1.2608 -0.0846
35959SOL    HW218192  10.784   3.469   8.159 -0.7684  0.4569  0.1070
35960SOL     OW18193   1.694  10.729   2.516  0.3917  0.7872 -0.1337
35960SOL    HW118194   1.651  10.683   2.444 -0.3850 -0.7082  1.2270
35960SOL    HW218195   1.779  10.686   2.525  0.3854  0.8053  0.0108
35961SOL     OW18196   6.171  11.493   0.448  0.4750  0.6884 -0.2068
35961SOL    HW118197   6.127  11.520   0.368 -0.1039 -2.2475 -0.9856
35961SOL    HW218198   6.103  11.495   0.515  0.7399  2.2535  0.0454
35962SOL     OW18199   2.031   1.690  10.735  0.3045  0.3579 -0.0268
35962SOL    HW118200   1.974   1.615  10.717  0.1662  0.3601  0.3916
35962SOL    HW218201   2.110   1.651  10.772 -0.2634  0.4912  1.3960
35963SOL     OW18202   0.766   8.750   0.260  0.2909  0.6372 -0.0281
35963SOL    HW118203   0.691   8.691   0.259 -1.3851  2.6193 -0.9614
35963SOL    HW218204   0.733   8.830   0.219  3.1781  1.3265 -1.2617
35964SOL     OW18205   4.528   2.539   3.962 -0.3731  0.3020 -0.1481
35964SOL    HW118206   4.537   2.596   4.038  0.9351 -1.1408  0.8478
35964SOL    HW218207   4.541   2.451   3.997  2.9049 -0.2875 -2.4077
35965SOL     OW18208   4.558   0.667  10.520  0.0786  0.0737  0.2012
35965SOL    HW118209   4.465   0.649  10.508 -0.5108  2.7006  0.1074
35965SOL    HW218210   4.594   0.588  10.559 -1.9684 -1.3939 -0.7179
35966SOL     OW18211   9.831   4.676   7.929  0.5207  0.7316 -0.2110
35966SOL    HW118212   9.834   4.771   7.912  2.0604  0.7301 -0.0833
35966SOL    HW218213   9.916   4.644   7.898 -0.4585 -0.8290 -1.4367
35967SOL     OW18214   5.369  11.399   1.185  0.0824  0.0276  0.0212
35967SOL    HW118215   5.411  11.385   1.270  1.1964 -0.2128 -0.5482
35967SOL    HW218216   5.366  11.311   1.146 -0.0771  0.1951 -0.3421
35968SOL     OW18217   2.649   9.578  10.255 -0.0794  0.2361  0.0736
35968SOL    HW118218   2.646   9.505  10.193 -2.2609 -0.0784  0.4708
35968SOL    HW218219   2.561   9.581  10.292 -0.1274  3.2111 -0.0740
35969SOL     OW18220   1.217   1.283   4.100  0.2497 -0.2449  0.2444
35969SOL    HW118221   1.180   1.327   4.024 -0.8900  0.1646  1.0070
35969SOL    HW218222   1.287   1.342   4.130  1.1922 -0.7565 -0.8810
35970SOL     OW18223   9.304   4.697   3.140  0.4768 -0.3313 -0.4228
35970SOL    HW118224   9.308   4.727   3.050  0.4032 -1.1122 -0.6957
35970SOL    HW218225   9.332   4.606   3.136 -0.9530 -0.8230  0.1253
35971SOL     OW18226  10.273   4.722   5.560 -0.0489  0.1486  0.0908
35971SOL    HW118227  10.179   4.711   5.579  0.4162 -1.0265  1.9423
35971SOL    HW218228  10.307   4.632   5.558  1.0969  0.5824 -0.3118
35972SOL     OW18229  11.554  10.856   4.588  0.1625  0.2086  0.0377
35972SOL    HW118230  11.550  10.913   4.511  0.2699 -2.9422 -2.5035
35972SOL    HW218231  11.645  10.862   4.618 -0.1932  2.4908  0.9060
35973SOL     OW18232   0.174  11.010   9.640 -0.5697  0.3668 -0.4084
35973SOL    HW118233   0.181  10.972   9.552 -0.9548  0.1850 -0.3643
35973SOL    HW218234   0.119  11.087   9.629  1.9614  2.1938 -0.8780
35974SOL     OW18235   6.898   7.034   6.817  0.2532 -0.1236  0.1326
35974SOL    HW118236   6.985   6.995   6.825  0.6542  0.8238  0.5167
35974SOL    HW218237   6.913   7.116   6.770 -0.3663  0.2594  0.5908
35975SOL     OW18238   0.049   2.889   6.076  0.2148 -0.0979 -0.4297
35975SOL    HW118239  -0.045   2.867   6.079  0.2606 -0.2935  2.1188
35975SOL    HW218240   0.055   2.959   6.011 -1.6507 -0.3045 -0.8930
35976SOL     OW18241   9.987   2.074   0.670 -0.3124  0.5752 -0.2081
35976SOL    HW118242   9.893   2.090   0.677 -0.5724 -0.5198 -1.0215
35976SOL    HW218243  10.014   2.045   0.757 -0.6858  1.0770  0.0757
35977SOL     OW18244   2.876   2.208   9.947  0.9150  0.1494 -0.3450
35977SOL    HW118245   2.904   2.207  10.038 -2.7308  0.7362  0.9387
35977SOL    HW218246   2.858   2.116   9.926  0.5200  0.1541 -0.0303
35978SOL     OW18247   5.642  12.394  11.530  0.2666 -0.1614  0.2477
35978SOL    HW118248   5.616  12.477  11.490  0.1451 -0.1945  0.2564
35978SOL    HW218249   5.560  12.353  11.557  0.1123 -1.3847 -1.9002
35979SOL     OW18250  10.774  11.227   6.950  0.1431 -0.8988  0.1093
35979SOL    HW118251  10.860  11.185   6.949 -0.0016 -1.2228  0.7466
35979SOL    HW218252  10.783  11.300   6.889  0.6559 -1.3427 -0.3653
35980SOL     OW18253   1.624   8.468  12.248 -0.2498 -0.2863  0.3238
35980SOL    HW118254   1.661   8.486  12.161  0.9248  1.2145  1.0873
35980SOL    HW218255   1.530   8.454  12.232  0.0483 -0.6585 -1.2477
35981SOL     OW18256  12.251   2.511   9.518  0.0326 -0.6306 -0.0082
35981SOL    HW118257  12.299   2.531   9.437  0.4266 -1.6318 -0.0467
35981SOL    HW218258  12.229   2.596   9.555  0.8664 -0.1506 -0.5778
35982SOL     OW18259   9.076   8.995   2.267  0.5564  0.6126  0.0649
35982SOL    HW118260   8.993   8.950   2.251  0.9595 -0.0579 -0.2044
35982SOL    HW218261   9.092   9.043   2.185 -0.7303  2.7049  0.9608
35983SOL     OW18262   0.428   8.990   1.149  0.3267 -0.1912  0.1740
35983SOL    HW118263   0.373   8.924   1.106 -1.4044 -0.1059  2.1193
35983SOL    HW218264   0.372   9.067   1.157  2.0242  1.2735 -1.2114
35984SOL     OW18265   0.330   5.645  11.069 -0.0678 -0.0916  0.1008
35984SOL    HW118266   0.406   5.633  11.013 -1.0182 -1.3580 -0.9704
35984SOL    HW218267   0.360   5.705  11.137  1.1830  1.3302 -1.6214
35985SOL     OW18268   4.660   0.968   9.943  0.6116 -0.2667 -0.0782
35985SOL    HW118269   4.741   1.017   9.928  1.1895 -0.5104  1.9350
35985SOL    HW218270   4.596   1.035   9.969  1.1602 -0.4035  1.7867
35986SOL     OW18271   9.370   4.575   5.717 -0.1822 -0.5527 -0.2386
35986SOL    HW118272   9.303   4.639   5.741  1.2183  0.7485  0.3348
35986SOL    HW218273   9.416   4.615   5.644  0.1679 -1.3028 -0.4374
35987SOL     OW18274   9.087   1.003   2.489 -0.2663  0.2406 -0.5825
35987SOL    HW118275   8.999   0.972   2.469 -1.1573  1.2723  1.3970
35987SOL    HW218276   9.083   1.098   2.474 -0.1737  0.6245  1.4941
35988SOL     OW18277   6.833   6.754  11.194 -0.3722 -0.2939  0.0970
35988SOL    HW118278   6.922   6.742  11.225  0.5863  3.0870 -0.8473
35988SOL    HW218279   6.778   6.736  11.270  1.4375  1.2863  1.9063
35989SOL     OW18280   5.699  10.632   0.023 -0.6484 -0.4871  0.0445
35989SOL    HW118281   5.736  10.652  -0.063 -1.4253  1.4952  0.1154
35989SOL    HW218282   5.634  10.564   0.005  0.3558 -1.2985 -0.6472
35990SOL     OW18283   6.553   7.573   9.851  0.3001  0.3555  0.6777
35990SOL    HW118284   6.556   7.668   9.848 -1.7300  0.4458 -0.0678
35990SOL    HW218285   6.528   7.546   9.762  0.5399 -0.8579  0.9518
35991SOL     OW18286   7.065   6.123  10.415  0.5140  0.1039 -0.4455
35991SOL    HW118287   7.046   6.042  10.464  1.3140  0.2923  0.1867
35991SOL    HW218288   7.106   6.092  10.334 -1.3914 -0.2487 -1.3381
35992SOL     OW18289   2.537  11.585   4.019  0.5050  0.2201 -0.6587
35992SOL    HW118290   2.620  11.537   4.023  0.1753 -0.3409 -0.5233
35992SOL    HW218291   2.471  11.519   3.999  0.1001  0.6835 -0.8839
35993SOL     OW18292   9.780   0.512   4.968 -0.5471  0.0692  0.3731
35993SOL    HW118293   9.709   0.452   4.945 -1.4990  1.4033 -0.3466
35993SOL    HW218294   9.747   0.560   5.044  0.4813 -0.7376  1.3701
35994SOL     OW18295   5.226   4.910   8.959  0.4473  0.0851 -0.2908
35994SOL    HW118296   5.276   4.830   8.974  2.7135  1.3851 -0.5243
35994SOL    HW218297   5.284   4.966   8.907 -1.0494  1.8887 -0.1378
35995SOL     OW18298   1.728   5.734   8.505  0.4244  0.6733 -0.1058
35995SOL    HW118299   1.730   5.746   8.600 -0.6493  1.4587 -0.1683
35995SOL    HW218300   1.643   5.692   8.489  0.0569  1.6872 -0.8395
35996SOL     OW18301   1.254   6.284  12.290  0.1778  0.1556  0.2014
35996SOL    HW118302   1.181   6.344  12.304  0.9145  0.9372  0.7856
35996SOL    HW218303   1.330   6.340  12.274  0.5910 -0.6437 -0.7738
35997SOL     OW18304  11.934  10.346   7.187 -0.2855 -0.3617  0.3938
35997SOL    HW118305  11.886  10.413   7.139  1.1076  0.1379 -0.3619
35997SOL    HW218306  11.990  10.395   7.247  2.1901 -0.6819 -1.5100
35998SOL     OW18307  10.011   4.855   4.077  0.0833 -0.1564 -0.4184
35998SOL    HW118308   9.915   4.852   4.074 -0.2894  1.1848  3.6249
35998SOL    HW218309  10.037   4.764   4.091 -0.4809 -0.6208 -2.1324
35999SOL     OW18310   9.740   7.850   8.815  0.2211  0.1023  0.2350
35999SOL    HW118311   9.753   7.928   8.762  1.3524 -0.8065 -0.8695
35999SOL    HW218312   9.655   7.864   8.857 -0.3744  1.1731 -1.2426
36000SOL     OW18313  11.186   8.224  10.288 -0.2512 -0.3802 -0.9861
36000SOL    HW118314  11.191   8.194  10.379 -2.5272  0.0160 -0.6836
36000SOL    HW218315  11.228   8.155  10.237  0.1300 -1.0909  0.2489
36001SOL     OW18316   6.479   5.563  11.415  0.3812 -0.2001  0.1404
36001SOL    HW118317   6.486   5.603  11.501  0.5043  1.6694 -0.6903
36001SOL    HW218318   6.386   5.568  11.393  0.6598  1.6249 -0.8202
36002SOL     OW18319  10.017   0.537  12.111  0.0491 -0.4657  0.3076
36002SOL    HW118320  10.047   0.466  12.054 -1.0160 -1.3659  0.8305
36002SOL    HW218321   9.926   0.550  12.087 -0.4502 -0.9388  1.8501
36003SOL     OW18322  10.180   7.295   6.245 -0.4724  0.0990 -0.5519
36003SOL    HW118323  10.101   7.328   6.289 -2.5819 -1.8079 -2.5609
36003SOL    HW218324  10.183   7.202   6.271  2.0338  0.4453  0.6166
36004SOL     OW18325   3.014  11.103   6.408 -0.3553 -0.0859  0.2180
36004SOL    HW118326   3.094  11.138   6.368 -0.8177  0.9359  0.1475
36004SOL    HW218327   3.037  11.014   6.435  0.5232 -0.1351 -0.6386
36005SOL     OW18328   0.972  11.632  12.809  0.2894 -0.8759 -0.3135
36005SOL    HW118329   0.920  11.583  12.872 -0.7910 -0.9230 -1.2107
36005SOL    HW218330   0.947  11.596  12.724  1.1881 -0.3291 -0.8299
36006SOL     OW18331   9.563   5.585   3.218  0.1298 -0.2839  0.4887
36006SOL    HW118332   9.533   5.509   3.269 -0.0026 -0.5052  0.0826
36006SOL    HW218333   9.497   5.652   3.234  0.2077 -0.2776  0.7913
36007SOL     OW18334   7.840  12.105   3.057 -0.4877 -0.2833  0.3889
36007SOL    HW118335   7.841  12.068   3.146 -1.6932 -0.7890  0.2121
36007SOL    HW218336   7.864  12.032   3.001 -1.1408 -0.3481  0.1858
36008SOL     OW18337   0.643   4.751   8.985 -0.4229  0.4175  0.5422
36008SOL    HW118338   0.651   4.776   9.077 -0.0240  0.2701  0.5465
36008SOL    HW218339   0.730   4.720   8.960 -1.1340 -2.0138  0.8377
36009SOL     OW18340  11.591   4.663   5.983 -0.3426  0.0219 -0.8119
36009SOL    HW118341  11.633   4.743   5.952  0.3387 -0.1241 -0.3162
36009SOL    HW218342  11.498   4.676   5.967 -0.2283  0.8714 -0.8283
36010SOL     OW18343   8.356   4.641   1.080 -0.4706  0.0957 -0.1207
36010SOL    HW118344   8.303   4.565   1.059 -2.0251  1.5685 -1.9382
36010SOL    HW218345   8.305   4.687   1.148 -0.0198  0.0142  0.2769
36011SOL     OW18346   7.051   9.070   2.843 -0.1626 -0.0173 -0.2226
36011SOL    HW118347   7.095   9.044   2.762 -1.9789 -0.4332 -1.1294
36011SOL    HW218348   6.963   9.033   2.835 -0.9510  1.4717  1.1306
36012SOL     OW18349   5.265   7.125   8.326 -0.8388 -0.2389 -0.7906
36012SOL    HW118350   5.266   7.140   8.420 -2.5284 -0.5334 -0.6876
36012SOL    HW218351   5.195   7.182   8.294  0.4181  0.6623 -2.0348
36013SOL     OW18352   9.569   7.130   2.901 -0.1362 -0.0100 -0.7392
36013SOL    HW118353   9.605   7.064   2.841 -0.5827 -0.0460 -0.9724
36013SOL    HW218354   9.619   7.119   2.982 -0.1081 -0.5436 -0.8259
36014SOL     OW18355   3.850   9.270  11.585  0.1368  0.1290  0.0060
36014SOL    HW118356   3.901   9.313  11.654 -0.2782  2.2383 -0.9094
36014SOL    HW218357   3.759   9.280  11.613 -0.0321  0.9564 -0.7842
36015SOL     OW18358   8.887   8.386   7.336  0.0917  0.2604  0.1223
36015SOL    HW118359   8.918   8.298   7.354 -0.1419 -0.0995 -1.1247
36015SOL    HW218360   8.959   8.427   7.286 -0.5389  0.1376 -0.9131
36016SOL     OW18361   0.225  10.837   8.311 -0.1175  0.2316  0.0777
36016SOL    HW118362   0.189  10.758   8.271  0.5531  0.1552 -0.3933
36016SOL    HW218363   0.150  10.879   8.353 -0.3602 -1.0014  0.9255
36017SOL     OW18364   2.224   4.098   9.926 -0.1734  0.2409 -0.0547
36017SOL    HW118365   2.272   4.166   9.879 -0.2489 -0.0016 -0.4863
36017SOL    HW218366   2.143   4.087   9.875 -0.5858  0.4782  0.5277
36018SOL     OW18367   5.562  11.785   9.452 -0.6617  0.3810 -0.3059
36018SOL    HW118368   5.521  11.704   9.485 -0.0841  0.0918 -0.2918
36018SOL    HW218369   5.587  11.832   9.532  0.3495 -0.1212 -0.3089
36019SOL     OW18370   1.002   2.846   8.922  0.0597  0.0692 -0.2640
36019SOL    HW118371   1.013   2.930   8.967 -2.3172  1.0789 -1.4291
36019SOL    HW218372   1.030   2.781   8.987 -0.2273  1.6335  1.5217
36020SOL     OW18373   4.380   5.881   5.952 -0.1748  0.3667  0.2604
36020SOL    HW118374   4.449   5.932   5.908  0.9027  0.3020  1.7886
36020SOL    HW218375   4.360   5.931   6.032 -0.6459 -0.5075  0.7027
36021SOL     OW18376   9.836   0.981   3.790 -0.6112 -0.2316 -0.2634
36021SOL    HW118377   9.751   0.936   3.782 -1.2121  0.7973  0.2597
36021SOL    HW218378   9.897   0.912   3.816 -1.5664 -0.7200  0.7583
36022SOL     OW18379  11.266   5.033   9.679  0.0130 -0.0961 -0.5004
36022SOL    HW118380  11.348   5.004   9.719 -0.2976 -2.4331 -1.4087
36022SOL    HW218381  11.291   5.066   9.593  0.1566  0.7296 -0.1542
36023SOL     OW18382   2.656   9.188   1.212 -0.2754 -0.2075 -0.5007
36023SOL    HW118383   2.626   9.119   1.271  0.5855 -0.0349  0.1411
36023SOL    HW218384   2.596   9.182   1.137 -0.3270 -1.5315 -0.3787
36024SOL     OW18385   2.311   0.664   5.063  0.7007 -0.1064  0.0694
36024SOL    HW118386   2.266   0.614   4.995  2.4820 -2.6078  0.5597
36024SOL    HW218387   2.250   0.663   5.137  1.1407 -2.8311  0.5030
36025SOL     OW18388  10.982   8.039  11.708  0.3788  0.2436  0.0937
36025SOL    HW118389  10.937   8.118  11.679  0.2291  0.5787  1.1979
36025SOL    HW218390  10.969   7.976  11.637 -2.5672  0.0323  0.7071
36026SOL     OW18391   4.076   4.769   5.688  0.3526  0.0263  0.0748
36026SOL    HW118392   4.048   4.679   5.671 -0.2996  0.4950 -1.6223
36026SOL    HW218393   4.019   4.800   5.759  1.1041 -1.1222  1.2028
36027SOL     OW18394   1.767   1.262   9.214  0.6392  0.2293  0.7459
36027SOL    HW118395   1.688   1.292   9.259 -0.2188  2.8325 -2.1397
36027SOL    HW218396   1.738   1.186   9.164  0.5098 -0.0299  1.2036
36028SOL     OW18397  12.770   9.840  10.887  0.2192 -0.7001  0.0926
36028SOL    HW118398  12.749   9.893  10.964 -1.5896 -1.2105 -0.0191
36028SOL    HW218399  12.865   9.848  10.878  0.2046  1.1172  1.0922
36029SOL     OW18400   7.894  10.664   7.457 -0.1076  0.1455  0.4329
36029SOL    HW118401   7.830  10.702   7.397  0.4186 -0.0257 -0.2651
36029SOL    HW218402   7.938  10.740   7.496  1.2886  0.3136 -1.3386
36030SOL     OW18403   0.609   3.706   8.817  0.5570  0.0955  0.5863
36030SOL    HW118404   0.664   3.775   8.781  1.2617  0.6043  2.4937
36030SOL    HW218405   0.582   3.654   8.741  2.9333  0.3632 -0.5475
36031SOL     OW18406   1.257   0.515   0.191  0.5645 -0.6561  0.4129
36031SOL    HW118407   1.301   0.470   0.119  0.4867  0.3866 -0.3086
36031SOL    HW218408   1.173   0.471   0.199  0.1803 -0.1834 -0.7802
36032SOL     OW18409   8.895   0.194   0.186 -0.4064 -0.3979 -0.1320
36032SOL    HW118410   8.868   0.154   0.104 -1.3123 -0.5461  0.2273
36032SOL    HW218411   8.898   0.122   0.249  0.9321 -0.4034 -0.1697
36033SOL     OW18412  10.409   5.868  12.537  0.2480  0.0868 -0.5327
36033SOL    HW118413  10.361   5.804  12.589  0.4089  1.0061  0.8280
36033SOL    HW218414  10.486   5.822  12.507  1.4264  0.1068  2.1404
36034SOL     OW18415   8.298   1.999  10.042  0.1480 -0.3995 -0.1333
36034SOL    HW118416   8.388   1.985  10.072 -0.5073 -1.6762  1.3855
36034SOL    HW218417   8.299   1.972   9.950  1.3569 -0.1501 -0.2152
36035SOL     OW18418   2.403  12.348   5.680 -0.0891 -0.7823  0.1407
36035SOL    HW118419   2.422  12.340   5.586 -0.8849 -1.5521  0.0326
36035SOL    HW218420   2.344  12.422   5.686 -0.7484 -1.2791 -0.0841
36036SOL     OW18421   9.416  10.185   2.187  0.3765 -0.0548  0.5006
36036SOL    HW118422   9.459  10.268   2.205  1.6059 -0.6309  0.3435
36036SOL    HW218423   9.485  10.119   2.200 -0.9687 -1.1933  2.1986
36037SOL     OW18424  12.679   9.268   9.783  0.2929 -0.0024 -0.5960
36037SOL    HW118425  12.595   9.227   9.801 -0.9736  2.4576 -0.5331
36037SOL    HW218426  12.732   9.249   9.861 -1.7932  2.1551  1.5149
36038SOL     OW18427   6.575   9.754   3.403 -0.2104 -0.3389  0.1441
36038SOL    HW118428   6.524   9.791   3.331  0.0133  1.0771  0.6703
36038SOL    HW218429   6.601   9.830   3.455  0.6938 -1.2162  1.0240
36039SOL     OW18430   8.924  11.338   4.716 -0.0157  0.4190 -0.1233
36039SOL    HW118431   8.970  11.362   4.796 -1.3427  0.3932  0.6838
36039SOL    HW218432   8.841  11.300   4.746  1.5895 -4.7424 -1.2291
36040SOL     OW18433   4.888   3.177   3.471 -0.0333 -0.2255  0.3589
36040SOL    HW118434   4.871   3.208   3.560 -0.2568 -1.9813  0.9715
36040SOL    HW218435   4.807   3.196   3.423 -0.4494 -0.5319  0.9219
36041SOL     OW18436  11.964   0.378  10.701 -0.4641  0.1946  0.1784
36041SOL    HW118437  11.981   0.342  10.614  1.5849 -1.3306  1.1276
36041SOL    HW218438  12.000   0.467  10.697 -0.2045  0.0690 -0.4754
36042SOL     OW18439   3.143   6.884   3.431 -0.0081 -0.3241 -0.2441
36042SOL    HW118440   3.147   6.821   3.502 -1.7102 -2.4333 -1.8813
36042SOL    HW218441   3.134   6.969   3.474  0.0693 -1.4131  2.0395
36043SOL     OW18442   7.131   1.161   7.303 -0.4640 -0.2044  0.2570
36043SOL    HW118443   7.176   1.214   7.369  0.9309 -1.7098  0.5926
36043SOL    HW218444   7.058   1.120   7.351 -0.5941  0.1766  0.3868
36044SOL     OW18445  11.992   0.623   8.444  0.7982  0.0979 -0.1640
36044SOL    HW118446  12.006   0.715   8.467  1.3538  0.0362 -0.2309
36044SOL    HW218447  11.912   0.623   8.393  0.7339  0.5332 -0.0679
36045SOL     OW18448   8.692   8.961   8.136 -0.1028  0.3650  0.1631
36045SOL    HW118449   8.741   8.879   8.137 -1.7075 -0.6415  0.6392
36045SOL    HW218450   8.758   9.028   8.119  1.3320 -0.9614  0.2310
36046SOL     OW18451  10.451   3.887   3.260 -0.0229 -0.2712 -0.5332
36046SOL    HW118452  10.392   3.814   3.276 -0.5281 -0.2198 -2.0372
36046SOL    HW218453  10.452   3.936   3.343 -1.8391 -0.4494 -0.3690
36047SOL     OW18454   4.408   7.152   7.653  0.3240 -0.0582 -0.5662
36047SOL    HW118455   4.371   7.239   7.668  0.0604 -0.0362 -1.3563
36047SOL    HW218456   4.373   7.124   7.569  1.7008 -0.2416 -1.1120
36048SOL     OW18457   9.578   8.169   2.088  0.1950  0.1599  0.2727
36048SOL    HW118458   9.548   8.203   2.172  0.9657  1.6638 -0.0311
36048SOL    HW218459   9.517   8.205   2.024 -0.3845 -0.9744  0.1570
36049SOL     OW18460   4.706   9.129  11.456  0.5082  0.1241  0.3230
36049SOL    HW118461   4.736   9.126  11.546  0.4023 -0.4542  0.3403
36049SOL    HW218462   4.741   9.212  11.422  1.0591  0.0569  0.7131
36050SOL     OW18463   3.513  10.433  10.443 -0.3142  0.0160  0.5606
36050SOL    HW118464   3.430  10.417  10.489 -2.2522 -1.4842 -3.0144
36050SOL    HW218465   3.508  10.525  10.417  0.0386  0.4211  1.8699
36051SOL     OW18466   9.988  10.823   9.070 -0.2732  0.5906 -0.2372
36051SOL    HW118467   9.989  10.805   9.164 -2.3228 -1.2424 -0.4790
36051SOL    HW218468   9.966  10.739   9.029 -0.4457  1.5600 -2.2848
36052SOL     OW18469   6.910   2.778   3.356  0.1938 -0.7069 -0.0856
36052SOL    HW118470   6.949   2.780   3.444  3.0206 -1.3010 -1.2264
36052SOL    HW218471   6.858   2.858   3.351  0.4942 -0.3431  1.8913
36053SOL     OW18472   0.204   7.056   5.596  0.5282  0.0343  0.4476
36053SOL    HW118473   0.192   7.041   5.690  1.1394 -0.2747  0.4839
36053SOL    HW218474   0.217   7.151   5.588  0.6108  0.0428  0.6884
36054SOL     OW18475   4.458   7.646  12.328  0.2064 -0.3395  0.2251
36054SOL    HW118476   4.469   7.594  12.407 -0.2585  0.3433  0.7524
36054SOL    HW218477   4.520   7.609  12.265 -0.1973 -1.5903  0.5443
36055SOL     OW18478  10.615   8.095   9.005  0.1826 -0.4069  0.3283
36055SOL    HW118479  10.706   8.093   9.035  0.3238  0.9243  0.0682
36055SOL    HW218480  10.607   8.180   8.961 -0.3107 -1.8064 -2.4714
36056SOL     OW18481  10.912  11.671   3.540  0.2575  0.1265 -0.5257
36056SOL    HW118482  10.825  11.639   3.517  0.5639 -1.1007 -0.0601
36056SOL    HW218483  10.972  11.602   3.510  0.9484  0.2295  0.5752
36057SOL     OW18484  11.116  10.237   9.427 -0.2333  0.3228 -0.2762
36057SOL    HW118485  11.117  10.322   9.470  0.7052 -0.0914  0.5806
36057SOL    HW218486  11.192  10.191   9.464 -0.6777 -0.8502 -0.7740
36058SOL     OW18487   2.797   7.502  10.800 -0.3018 -0.8195 -0.4307
36058SOL    HW118488   2.830   7.457  10.877  1.2459  0.0317 -0.5673
36058SOL    HW218489   2.778   7.432  10.737  0.5695 -1.3709 -0.0816
36059SOL     OW18490   5.248   6.264   6.652  0.4792  0.0306 -0.2120
36059SOL    HW118491   5.242   6.320   6.574  1.5105  3.5293  2.0073
36059SOL    HW218492   5.335   6.225   6.647 -0.3820 -1.8467 -1.9676
36060SOL     OW18493   6.005   9.420   2.614  0.3384 -0.1506  0.1145
36060SOL    HW118494   5.939   9.386   2.554 -0.6317  0.8273  0.5906
36060SOL    HW218495   6.049   9.490   2.565 -0.5025  0.6972  0.5286
36061SOL     OW18496   1.913   3.079   1.407  1.0718  0.7916 -0.1572
36061SOL    HW118497   1.936   2.989   1.385 -0.2327  0.1742  0.8737
36061SOL    HW218498   1.991   3.114   1.450  1.7079  0.2700 -0.8701
36062SOL     OW18499   3.010   1.452   4.572  0.6946  0.6058  0.0734
36062SOL    HW118500   2.962   1.372   4.552  0.4249  0.5083  1.0503
36062SOL    HW218501   3.080   1.455   4.507 -1.3966  1.4680 -2.3223
36063SOL     OW18502   8.427  12.145  12.986  0.4179  0.1362 -0.7134
36063SOL    HW118503   8.346  12.117  12.944 -0.3256  0.5484  0.3959
36063SOL    HW218504   8.472  12.064  13.009  0.2211 -0.0965 -1.1296
36064SOL     OW18505  12.896   2.800   5.268 -0.3752 -0.8311 -0.1492
36064SOL    HW118506  12.975   2.780   5.318  0.4853 -1.3581 -1.6780
36064SOL    HW218507  12.858   2.875   5.313  2.1272  0.8159 -0.5947
36065SOL     OW18508   6.951   0.462   7.340  0.7722 -0.2440  0.2518
36065SOL    HW118509   7.023   0.510   7.382 -0.6758  0.9267  1.5352
36065SOL    HW218510   6.875   0.483   7.394 -0.6672 -0.8968 -1.4568
36066SOL     OW18511   1.722   5.086   1.125  0.2009 -0.8142 -0.1293
36066SOL    HW118512   1.775   5.165   1.116 -1.4026  0.3974  0.3346
36066SOL    HW218513   1.685   5.092   1.214 -0.2826 -1.8657 -0.2375
36067SOL     OW18514  11.151   4.007  11.190  0.0920 -0.2362 -0.0037
36067SOL    HW118515  11.132   4.052  11.273  1.0954  0.0140  0.0962
36067SOL    HW218516  11.114   3.919  11.203 -1.2315  0.2988  0.0703
36068SOL     OW18517  10.953   8.249   2.154  0.2345 -0.4329  0.0312
36068SOL    HW118518  10.932   8.295   2.073  0.5355 -1.5775 -0.7137
36068SOL    HW218519  10.918   8.306   2.223 -2.3204 -0.6326 -0.9844
36069SOL     OW18520   8.805   6.489   2.824  0.1364  0.0959 -0.2045
36069SOL    HW118521   8.859   6.564   2.848  0.1500 -0.1896  0.6655
36069SOL    HW218522   8.826   6.422   2.888  0.2702 -0.7352 -1.0886
36070SOL     OW18523   3.863   0.683   5.931  0.2105 -0.1683  0.2486
36070SOL    HW118524   3.898   0.662   5.845 -0.7157 -3.6084  0.5345
36070SOL    HW218525   3.772   0.709   5.915  0.2943  0.0281  0.1016
36071SOL     OW18526   4.100   1.512  10.330 -0.5814 -0.0440  0.0885
36071SOL    HW118527   4.101   1.448  10.401  1.2259  0.1621  0.2848
36071SOL    HW218528   4.190   1.513  10.296 -0.9001  1.3853 -0.8208
36072SOL     OW18529   3.994   2.706   3.707  0.4571  0.4327 -0.3064
36072SOL    HW118530   4.059   2.675   3.644  0.5054 -1.0507  0.4205
36072SOL    HW218531   3.967   2.627   3.754 -1.3426  1.1303 -0.0926
36073SOL     OW18532   2.674  10.113   1.434  0.0231  0.3231  0.2244
36073SOL    HW118533   2.667  10.018   1.442 -0.6576  0.4601  1.6969
36073SOL    HW218534   2.743  10.138   1.495  0.6850  0.7382 -0.6622
36074SOL     OW18535   4.479   0.108   3.951 -0.5427  0.0275 -0.5501
36074SOL    HW118536   4.539   0.164   4.000 -0.0502 -0.4270 -0.6286
36074SOL    HW218537   4.480   0.024   3.998  0.2000 -0.5223 -1.5158
36075SOL     OW18538  10.547   2.054   7.882 -0.0650  0.2753 -0.1781
36075SOL    HW118539  10.525   2.091   7.968 -0.1834 -1.9163  0.7875
36075SOL    HW218540  10.463   2.025   7.846  0.3143 -1.4907  0.2982
36076SOL     OW18541   4.008   4.626   6.621  0.5606  0.3298  0.0912
36076SOL    HW118542   3.981   4.566   6.690  1.1254  0.6275  0.5793
36076SOL    HW218543   4.035   4.705   6.667 -0.6004  1.1291 -0.5744
36077SOL     OW18544   6.702   1.816   1.732 -0.3686 -0.2574  0.0403
36077SOL    HW118545   6.729   1.869   1.807  1.1980 -0.7677 -0.1089
36077SOL    HW218546   6.625   1.768   1.763 -2.0923  2.3266  0.0405
36078SOL     OW18547  12.326   8.521  12.589  0.1991  0.1696  0.0676
36078SOL    HW118548  12.342   8.429  12.565  2.4577  0.7817 -1.0502
36078SOL    HW218549  12.357   8.571  12.514 -0.1550  1.8994  1.0269
36079SOL     OW18550   1.889   9.190   0.589  0.3919  0.1392  0.6380
36079SOL    HW118551   1.966   9.163   0.640  0.3729 -1.4205 -0.0829
36079SOL    HW218552   1.875   9.281   0.614  2.1199  0.2968  1.2345
36080SOL     OW18553  10.723  12.683   5.571  0.0689 -0.4633  0.1439
36080SOL    HW118554  10.757  12.666   5.658 -1.0452 -0.4465  0.5957
36080SOL    HW218555  10.737  12.777   5.557 -3.2468  0.4382  1.9344
36081SOL     OW18556  12.737   0.978   7.617  0.1364 -0.3794 -0.3039
36081SOL    HW118557  12.815   0.972   7.561  0.5162 -0.0615  0.1840
36081SOL    HW218558  12.677   0.912   7.581  0.2734 -0.0118 -1.2381
36082SOL     OW18559   8.998   6.912   5.317 -0.0247 -0.2298  0.1327
36082SOL    HW118560   8.962   6.824   5.302  0.3939 -0.5513  0.9302
36082SOL    HW218561   9.067   6.922   5.252 -1.1805  0.1920 -1.0824
36083SOL     OW18562   2.850  10.080  10.039  0.5832 -0.1475 -0.2316
36083SOL    HW118563   2.756  10.098  10.040  0.2434 -1.6788  1.4495
36083SOL    HW218564   2.871  10.069   9.946 -0.6805  1.1411 -0.7026
36084SOL     OW18565   6.497   8.939   3.344  0.3342  0.0320 -0.5260
36084SOL    HW118566   6.423   8.991   3.374  0.5069 -0.2901  0.4887
36084SOL    HW218567   6.457   8.868   3.294  0.0540  0.7011 -1.2680
36085SOL     OW18568   3.555   5.953   8.311 -0.0466  0.1864 -0.3528
36085SOL    HW118569   3.608   5.972   8.389 -0.6204  0.8899 -0.1207
36085SOL    HW218570   3.516   5.868   8.329 -0.8804  0.7341  0.5432
36086SOL     OW18571  10.238   9.141  10.845 -0.1326  0.2312  0.2797
36086SOL    HW118572  10.142   9.148  10.848 -0.1718  0.5276 -1.0243
36086SOL    HW218573  10.269   9.215  10.897 -0.6048  0.3910  0.3404
36087SOL     OW18574   1.538   4.876   4.056  0.8082 -0.5015 -0.1151
36087SOL    HW118575   1.613   4.870   3.997  0.0824 -2.0706 -0.9422
36087SOL    HW218576   1.488   4.797   4.038 -2.1105  1.4113 -1.0371
36088SOL     OW18577   4.206   3.902   8.811 -0.2409 -0.1377 -0.5011
36088SOL    HW118578   4.117   3.867   8.820 -0.7629  0.8378 -1.5487
36088SOL    HW218579   4.251   3.840   8.754  0.4885 -1.8203  1.7447
36089SOL     OW18580   8.954   6.582   5.145  0.3203  0.9413  0.3059
36089SOL    HW118581   8.949   6.514   5.079 -0.6339 -0.4588  1.7532
36089SOL    HW218582   8.871   6.629   5.138 -0.0595  0.3721  0.9265
36090SOL     OW18583  10.641   5.449   5.927 -0.3816  0.6048  0.0418
36090SOL    HW118584  10.654   5.419   5.837  2.6269  1.5358  0.0543
36090SOL    HW218585  10.573   5.392   5.962  1.4312 -2.7759 -1.4678
36091SOL     OW18586   1.967   6.866   6.515 -0.2407  0.2753  0.3736
36091SOL    HW118587   2.008   6.888   6.599  1.9270 -3.2495  0.4151
36091SOL    HW218588   2.023   6.908   6.450  0.8116 -0.7143  0.6043
36092SOL     OW18589   9.741   9.390   5.335 -0.4463  0.1319  0.2556
36092SOL    HW118590   9.704   9.302   5.326 -1.1163  0.5169 -0.9791
36092SOL    HW218591   9.812   9.393   5.272 -0.0832  0.3179  0.6667
36093SOL     OW18592   2.529   8.368   4.132 -0.1401  0.4506 -0.0484
36093SOL    HW118593   2.533   8.438   4.067 -1.1848  1.4365  0.9072
36093SOL    HW218594   2.533   8.288   4.081  2.8573  1.1308 -1.0719
36094SOL     OW18595   1.634   5.963   7.399 -0.8852  0.3931 -0.1190
36094SOL    HW118596   1.630   6.056   7.380  1.1731  0.6428  0.4302
36094SOL    HW218597   1.696   5.956   7.472 -0.9616 -1.4018 -0.1783
36095SOL     OW18598   3.839   0.585   8.595  1.0831 -0.6857 -0.0917
36095SOL    HW118599   3.907   0.630   8.545  0.0885  0.1977 -0.6851
36095SOL    HW218600   3.865   0.596   8.687 -0.1703  3.0831 -0.0067
36096SOL     OW18601   0.145  10.007   3.944 -0.1299 -0.4483 -0.1133
36096SOL    HW118602   0.169  10.087   3.993  1.6187 -1.8506  1.4954
36096SOL    HW218603   0.050  10.004   3.948 -0.1637  0.9218  0.8782
36097SOL     OW18604  12.570   7.114   7.117 -0.0760 -0.2134 -0.5787
36097SOL    HW118605  12.580   7.116   7.212 -2.1284  0.8296 -0.3123
36097SOL    HW218606  12.549   7.023   7.097 -0.2987 -0.3079  0.0637
36098SOL     OW18607  10.046   9.008   1.769  0.2238 -0.8547 -0.4890
36098SOL    HW118608  10.132   9.027   1.808  0.9348 -2.3938 -1.2133
36098SOL    HW218609  10.033   8.914   1.784 -2.4015 -0.2735  1.5876
36099SOL     OW18610   9.044   8.616   3.053 -0.0924  0.0761 -0.4963
36099SOL    HW118611   9.064   8.543   2.994  0.5158 -1.2100  1.2455
36099SOL    HW218612   9.018   8.575   3.135 -0.9599  1.8300  0.1595
36100SOL     OW18613   7.973   6.251   4.301 -0.1093 -0.8474  0.5051
36100SOL    HW118614   8.002   6.308   4.372  0.4029  0.2732 -0.5807
36100SOL    HW218615   7.884   6.279   4.282  0.6628  0.7733 -1.1002
36101SOL     OW18616   5.521   9.005  11.746 -0.3205 -0.1210  0.1864
36101SOL    HW118617   5.594   9.064  11.764 -0.3538  0.5155 -1.5485
36101SOL    HW218618   5.443   9.061  11.749 -0.4803 -0.3145 -0.3104
36102SOL     OW18619  11.901   5.674   0.040 -0.3164  0.4333  0.0474
36102SOL    HW118620  11.852   5.635   0.112  1.7353  1.4230  2.1310
36102SOL    HW218621  11.993   5.667   0.067  0.8499 -1.4982 -3.7094
36103SOL     OW18622   5.378  10.636   2.428 -0.5219 -0.4762  0.4031
36103SOL    HW118623   5.335  10.705   2.478 -0.9945  0.2566 -0.9724
36103SOL    HW218624   5.354  10.653   2.337 -0.0880 -2.0572 -0.0422
36104SOL     OW18625   1.236   6.377   1.287  0.1319  0.1901 -0.0707
36104SOL    HW118626   1.240   6.284   1.268 -2.0251 -0.7749  3.2393
36104SOL    HW218627   1.176   6.413   1.223 -0.7235 -1.1757 -0.0593
36105SOL     OW18628   2.131   0.785   5.604  0.0951 -0.1314 -0.2380
36105SOL    HW118629   2.116   0.808   5.696 -1.0857  0.5551 -0.5817
36105SOL    HW218630   2.221   0.752   5.602  0.6621  1.2322  0.9055
36106SOL     OW18631   4.447   0.860   6.445 -0.1165  0.0595  0.1874
36106SOL    HW118632   4.413   0.937   6.399 -0.6956 -0.5048 -0.3397
36106SOL    HW218633   4.437   0.881   6.538  0.2394  0.8460  0.0548
36107SOL     OW18634   9.073   7.805   1.037 -0.1498 -0.1322 -0.3543
36107SOL    HW118635   9.045   7.849   0.957  1.1351  0.2553 -0.6149
36107SOL    HW218636   9.036   7.857   1.107 -0.8677 -0.1848 -0.6817
36108SOL     OW18637   7.690   3.118   8.074  0.1112 -0.3843  0.0990
36108SOL    HW118638   7.598   3.143   8.081  0.8390  2.5384  0.7208
36108SOL    HW218639   7.712   3.129   7.982 -0.3412 -1.9597 -0.2172
36109SOL     OW18640   3.501  12.190   7.327  0.4813 -0.4581  0.1389
36109SOL    HW118641   3.423  12.209   7.378 -1.0459 -2.8260 -1.1224
36109SOL    HW218642   3.472  12.195   7.236  2.3254  0.5337 -0.4387
36110SOL     OW18643   7.606  10.236   7.061 -0.3005 -0.4371  0.1666
36110SOL    HW118644   7.673  10.182   7.104 -0.6480 -0.2040  1.0333
36110SOL    HW218645   7.582  10.187   6.983 -0.1885 -1.2559  0.6317
36111SOL     OW18646  10.723   5.047   2.863  0.1168  0.1526 -0.2245
36111SOL    HW118647  10.817   5.058   2.873 -0.1143  0.7291  1.7364
36111SOL    HW218648  10.700   4.978   2.925 -0.6560 -0.5953 -1.3018
36112SOL     OW18649   7.362  11.967   6.360 -0.2034  0.3187  0.1344
36112SOL    HW118650   7.419  11.891   6.372  0.5307  1.2086  2.9926
36112SOL    HW218651   7.281  11.943   6.404 -0.3706  0.7769  0.0731
36113SOL     OW18652   7.499   0.385   2.926 -0.1688 -0.0994  0.1554
36113SOL    HW118653   7.511   0.383   2.831 -2.3623  0.1562 -0.1729
36113SOL    HW218654   7.517   0.295   2.954  2.5095  0.2658 -0.1564
36114SOL     OW18655  12.332   4.207   5.385  1.2062 -0.7075 -0.0310
36114SOL    HW118656  12.286   4.147   5.444 -0.0776 -0.4387 -0.7118
36114SOL    HW218657  12.335   4.161   5.302  0.9618 -0.1677 -0.3425
36115SOL     OW18658   3.446   6.717   3.099 -0.1215 -0.1021  1.1396
36115SOL    HW118659   3.455   6.754   3.187  1.7366  0.4818  0.7522
36115SOL    HW218660   3.529   6.738   3.055 -0.3889 -1.7128 -0.2634
36116SOL     OW18661   7.741   9.291  12.633  0.2989  0.1300 -0.3881
36116SOL    HW118662   7.657   9.281  12.678 -0.6032 -0.3217 -2.0830
36116SOL    HW218663   7.805   9.302  12.704 -1.2321  0.9804  0.9339
36117SOL     OW18664  10.763  11.822  10.435  0.4736  0.7025  0.0245
36117SOL    HW118665  10.723  11.906  10.411  0.7745  0.6319 -0.7512
36117SOL    HW218666  10.734  11.807  10.525 -0.9373  0.8348 -0.3818
36118SOL     OW18667   1.141  12.589  11.644 -0.4603 -0.3567  0.3884
36118SOL    HW118668   1.219  12.618  11.596 -1.2151 -1.1381 -1.4222
36118SOL    HW218669   1.103  12.669  11.681  0.0063  0.3215 -0.5688
36119SOL     OW18670   3.289   4.411   4.149 -0.6324 -0.4557 -0.0105
36119SOL    HW118671   3.235   4.358   4.208 -1.3085  0.6258  0.3700
36119SOL    HW218672   3.228   4.451   4.089 -0.3160  1.0387  0.6249
36120SOL     OW18673  12.365  11.081   1.163 -0.6119 -0.3322  0.1177
36120SOL    HW118674  12.339  11.154   1.107 -0.5069 -0.9889 -0.8130
36120SOL    HW218675  12.425  11.120   1.226 -1.1885  0.5378  0.1494
36121SOL     OW18676   8.417   1.741   0.857 -0.7004 -0.1593  0.5743
36121SOL    HW118677   8.460   1.656   0.870 -0.9511 -0.2839  0.5948
36121SOL    HW218678   8.482   1.805   0.885  0.5302 -0.1982 -1.9558
36122SOL     OW18679  12.259   5.995   2.766  0.0102 -0.4101  0.1162
36122SOL    HW118680  12.262   5.939   2.844  1.5555 -0.5468 -0.0041
36122SOL    HW218681  12.187   5.961   2.714  0.2884 -1.6704  0.5252
36123SOL     OW18682   6.701  10.075  11.484 -0.4510 -0.0900 -0.0967
36123SOL    HW118683   6.615  10.114  11.468 -0.2900  0.3047 -0.0171
36123SOL    HW218684   6.685   9.981  11.485 -0.8151 -0.0361 -0.4992
36124SOL     OW18685   9.417   6.187   1.961  0.1620  0.7214  0.2705
36124SOL    HW118686   9.424   6.158   2.052 -1.6547  1.3503  0.6485
36124SOL    HW218687   9.341   6.141   1.925 -0.2485  1.8229 -0.3551
36125SOL     OW18688   9.484   7.710   5.670  0.2190 -0.7812 -0.1925
36125SOL    HW118689   9.446   7.623   5.659  1.8507 -1.5832  0.1962
36125SOL    HW218690   9.515   7.712   5.760  0.8111 -0.0553 -0.4011
36126SOL     OW18691   0.133   2.666   3.480 -0.0997  0.2942 -0.1623
36126SOL    HW118692   0.189   2.692   3.553 -1.9442 -0.2037  1.4953
36126SOL    HW218693   0.061   2.729   3.481  0.0973  0.5876 -1.9082
36127SOL     OW18694   8.578   0.549  10.302  0.2892 -0.2511 -0.1250
36127SOL    HW118695   8.609   0.639  10.292 -0.8848  0.5501  2.4036
36127SOL    HW218696   8.485   0.553  10.280  0.1116 -0.7163  0.4989
36128SOL     OW18697   9.984  11.455   7.095  0.4885  0.1752 -0.0313
36128SOL    HW118698   9.946  11.371   7.071 -0.9920  0.2166  1.9080
36128SOL    HW218699  10.041  11.436   7.170 -1.0851  1.0295  1.4652
36129SOL     OW18700  10.136   3.684   5.226 -0.0750 -0.2709 -0.8358
36129SOL    HW118701  10.065   3.740   5.195 -0.6682  0.6556  1.9477
36129SOL    HW218702  10.216   3.733   5.205 -0.4543  0.3392 -0.8945
36130SOL     OW18703   5.908   4.121   8.393  0.4205 -0.2722 -0.1692
36130SOL    HW118704   5.813   4.135   8.394  0.5676  0.8313 -0.4421
36130SOL    HW218705   5.920   4.048   8.332 -0.1040  0.9787 -1.8705
36131SOL     OW18706   0.625   5.849   6.771  0.0252  0.0279  0.1812
36131SOL    HW118707   0.573   5.915   6.727  1.7633 -0.0092 -2.1518
36131SOL    HW218708   0.607   5.768   6.723 -1.0021 -0.9681  2.1063
36132SOL     OW18709   2.623   9.810  11.489  0.2076  0.4856 -0.4304
36132SOL    HW118710   2.698   9.866  11.506  0.7259 -0.2100 -0.3754
36132SOL    HW218711   2.649   9.724  11.523 -1.2491  0.6056  1.0775
36133SOL     OW18712   7.697   5.426   6.950 -0.1415 -0.5566 -0.6978
36133SOL    HW118713   7.751   5.451   7.024 -0.3740 -0.7383 -0.4668
36133SOL    HW218714   7.607   5.435   6.981 -0.2805  0.6709 -1.3716
36134SOL     OW18715  12.200   8.964   0.709 -0.1992  0.3220  0.1266
36134SOL    HW118716  12.295   8.953   0.702  0.3458  1.9229  3.3375
36134SOL    HW218717  12.169   8.961   0.618  2.6822 -1.6222 -0.9546
36135SOL     OW18718   3.456  11.882   4.017 -0.4424 -0.3895 -0.1798
36135SOL    HW118719   3.529  11.827   4.048  1.2930  1.9293  0.1045
36135SOL    HW218720   3.447  11.858   3.924  0.9701 -0.4452 -0.3244
36136SOL     OW18721   0.345   5.721   8.776  0.1645 -0.1839  0.2571
36136SOL    HW118722   0.318   5.634   8.746 -0.5632  0.3325 -0.6348
36136SOL    HW218723   0.263   5.768   8.789  0.5478  0.3107  0.9309
36137SOL     OW18724   3.605   4.112   2.395  0.3948 -0.1121 -0.4024
36137SOL    HW118725   3.528   4.100   2.339 -0.3529  0.0700  0.5449
36137SOL    HW218726   3.621   4.206   2.392  1.0654 -0.2451 -1.2053
36138SOL     OW18727   5.196   4.529   0.298 -0.2858  0.3719 -0.1666
36138SOL    HW118728   5.131   4.462   0.318  0.0622  0.5213  1.6160
36138SOL    HW218729   5.253   4.488   0.232 -0.5857 -0.7570  0.2492
36139SOL     OW18730  12.717   8.955   8.144 -0.2031  0.4345 -0.3201
36139SOL    HW118731  12.776   9.018   8.101  1.0978 -0.5914 -0.0894
36139SOL    HW218732  12.647   8.941   8.080  0.1454  1.1695 -0.8809
36140SOL     OW18733  11.405  12.614  10.927  0.2706 -0.3695 -0.1444
36140SOL    HW118734  11.342  12.662  10.873  1.2935 -0.2030 -1.2271
36140SOL    HW218735  11.458  12.565  10.864  1.1287 -0.6313  0.7591
36141SOL     OW18736   6.545   6.713   2.014  0.2667  0.4185  0.0554
36141SOL    HW118737   6.504   6.679   2.094 -0.9703  3.5041  0.8808
36141SOL    HW218738   6.504   6.664   1.943  1.5695 -2.5878  1.1780
36142SOL     OW18739   9.605  12.507   5.076 -0.2866 -0.1173  0.3586
36142SOL    HW118740   9.596  12.411   5.075 -0.1788 -0.1229 -0.1911
36142SOL    HW218741   9.554  12.537   5.001 -0.8771  0.3152  0.9179
36143SOL     OW18742   2.761   7.133   2.566 -0.4599 -0.2966 -0.3940
36143SOL    HW118743   2.667   7.128   2.552 -0.5288 -2.1363  0.4769
36143SOL    HW218744   2.787   7.043   2.586  1.1388  0.5189  1.4484
36144SOL     OW18745   6.035   2.222  11.523  0.2143  0.3566 -0.0775
36144SOL    HW118746   6.064   2.297  11.472 -1.2454  1.2286  0.3223
36144SOL    HW218747   5.940   2.221  11.513  0.2437 -1.9717 -0.7851
36145SOL     OW18748  11.106   9.417   5.620  0.3376  0.2167 -0.1035
36145SOL    HW118749  11.071   9.349   5.677  0.9618  0.2332  0.3205
36145SOL    HW218750  11.177   9.456   5.671  1.4468 -0.2990 -1.1971
36146SOL     OW18751   1.406   4.310   5.228 -0.2111  0.0868  0.2404
36146SOL    HW118752   1.379   4.397   5.258 -0.4002  0.4616 -0.9812
36146SOL    HW218753   1.499   4.319   5.211 -0.5609  0.5803 -1.6002
36147SOL     OW18754   7.367  10.596  11.196 -0.2898  0.0174 -0.1861
36147SOL    HW118755   7.286  10.584  11.147 -0.6224 -3.3158  0.9535
36147SOL    HW218756   7.435  10.560  11.140 -0.0820 -0.1503  0.1684
36148SOL     OW18757   2.480   9.775   6.366 -0.1007 -0.6249  0.7308
36148SOL    HW118758   2.451   9.802   6.278 -0.1004 -1.3825  0.4950
36148SOL    HW218759   2.464   9.681   6.369  1.9307 -1.0164  0.7319
36149SOL     OW18760  11.490   8.392   2.633 -0.2036 -0.2646 -0.3492
36149SOL    HW118761  11.521   8.391   2.543 -1.1114  1.3351 -0.7101
36149SOL    HW218762  11.409   8.443   2.631 -0.8584 -1.1344  1.1914
36150SOL     OW18763   6.575  12.003   7.531  0.0301  0.0567 -0.0389
36150SOL    HW118764   6.551  11.972   7.444  0.7407  1.3131 -0.7127
36150SOL    HW218765   6.494  11.999   7.581 -0.4904 -0.2727 -0.8854
36151SOL     OW18766   3.288   3.217   9.509 -0.3602  0.8086  0.0893
36151SOL    HW118767   3.262   3.178   9.593 -0.3365  1.3297  0.3478
36151SOL    HW218768   3.384   3.211   9.509 -0.4090 -0.1326 -0.3754
36152SOL     OW18769   3.662   2.469   7.357 -0.0877 -0.1884  0.2436
36152SOL    HW118770   3.674   2.377   7.382  0.6479  0.2229  1.4938
36152SOL    HW218771   3.655   2.516   7.440  0.6950  1.0254 -0.3462
36153SOL     OW18772   2.571   0.993   9.770 -0.4838  0.0316 -0.0410
36153SOL    HW118773   2.647   0.977   9.825  0.4231  0.2671 -1.1774
36153SOL    HW218774   2.567   0.915   9.713 -0.6273  0.3615 -0.4893
36154SOL     OW18775   6.744   6.583   2.266  0.2228  0.0804 -0.3204
36154SOL    HW118776   6.652   6.560   2.254 -0.1245  0.1211  1.8526
36154SOL    HW218777   6.783   6.575   2.179 -1.5430 -1.1945 -1.0348
36155SOL     OW18778   4.511   0.515   9.948  0.0127 -0.2861  0.2080
36155SOL    HW118779   4.485   0.521  10.040  0.7969 -1.2032  0.4952
36155SOL    HW218780   4.604   0.538   9.948 -0.5928  2.7166 -0.7850
36156SOL     OW18781   3.129   2.328   6.590 -0.2411  0.6595 -0.9162
36156SOL    HW118782   3.070   2.383   6.642 -0.4254 -0.7859  0.4970
36156SOL    HW218783   3.087   2.242   6.591  1.9698 -0.4563  0.2759
36157SOL     OW18784  11.609  12.249  11.394  0.5898 -0.4840 -0.0407
36157SOL    HW118785  11.614  12.167  11.443 -1.6607  0.0031  1.1579
36157SOL    HW218786  11.569  12.224  11.310  1.3450 -0.8197 -0.3084
36158SOL     OW18787   8.336  11.834   0.468 -0.1644 -0.0096 -0.7845
36158SOL    HW118788   8.384  11.917   0.468 -0.7189  0.3848  1.7272
36158SOL    HW218789   8.246  11.858   0.447 -1.1098  0.6994  3.2914
36159SOL     OW18790   7.252   3.072   3.172  0.5503  0.0257  0.4577
36159SOL    HW118791   7.244   3.053   3.265  0.3501  0.8187  0.6062
36159SOL    HW218792   7.290   2.992   3.135 -0.2079 -0.6403  1.0678
36160SOL     OW18793   5.045   8.648   5.190  0.4298  0.3056  0.1148
36160SOL    HW118794   4.969   8.641   5.133 -0.4085 -0.8752  1.3191
36160SOL    HW218795   5.091   8.564   5.180 -0.5724 -0.5729  2.2658
36161SOL     OW18796  11.825   5.002  12.064 -0.2488 -0.0821  0.0259
36161SOL    HW118797  11.911   5.039  12.042 -0.0534 -0.3906  0.2591
36161SOL    HW218798  11.799   4.953  11.986  1.2314 -2.6334  1.0155
36162SOL     OW18799   2.631   1.392   6.943  0.3760 -0.7161  0.2700
36162SOL    HW118800   2.548   1.416   6.902  0.1026 -1.9365  0.0680
36162SOL    HW218801   2.670   1.329   6.883  2.4583  1.3149 -0.6876
36163SOL     OW18802   3.945   1.124   9.442  0.0022 -0.1028 -0.0123
36163SOL    HW118803   3.931   1.108   9.349 -2.0732 -0.1282  0.2720
36163SOL    HW218804   3.914   1.045   9.485  0.3448  0.1685  0.7541
36164SOL     OW18805  10.026   1.958   7.355  0.0612 -0.4396 -0.2855
36164SOL    HW118806  10.071   2.017   7.415  2.8521 -1.0404 -1.6465
36164SOL    HW218807   9.991   1.888   7.411  0.3355  0.3261  0.8773
36165SOL     OW18808  10.274   6.752   8.485 -0.4916  0.0817 -0.0367
36165SOL    HW118809  10.277   6.713   8.397  0.6253 -0.0939  0.0666
36165SOL    HW218810  10.296   6.844   8.470 -1.5962  0.3404 -0.0940
36166SOL     OW18811   1.650  10.829   6.586 -0.5221 -0.2619 -0.6443
36166SOL    HW118812   1.589  10.841   6.513  1.2763 -0.4123 -2.2526
36166SOL    HW218813   1.691  10.744   6.568  1.0139  0.3787 -0.2876
36167SOL     OW18814  12.323   7.697  12.805 -0.2317  0.5583 -0.7105
36167SOL    HW118815  12.345   7.622  12.860 -1.5910  1.6721  1.4740
36167SOL    HW218816  12.238   7.675  12.766 -0.9018  1.1424  0.3733
36168SOL     OW18817   0.012   2.289   4.761 -0.5023  0.1435  0.4164
36168SOL    HW118818   0.086   2.308   4.819  0.5870  0.0765 -0.9166
36168SOL    HW218819  -0.065   2.308   4.814  0.4449 -0.3171  2.0287
36169SOL     OW18820   5.030  10.583   5.482  0.5945  0.2921  0.0563
36169SOL    HW118821   5.085  10.510   5.512  1.9184  1.5521  0.8569
36169SOL    HW218822   4.955  10.541   5.440  0.5911 -1.5499  1.7381
36170SOL     OW18823  12.133   1.532  11.667 -0.2816 -0.5514 -0.0519
36170SOL    HW118824  12.107   1.472  11.738  1.2344 -1.4087 -0.1735
36170SOL    HW218825  12.201   1.587  11.706 -1.1219  0.6147 -0.1739
36171SOL     OW18826   2.606   3.751   0.656  0.0819 -0.2882 -0.1628
36171SOL    HW118827   2.696   3.755   0.687 -0.1897 -0.5197  0.6852
36171SOL    HW218828   2.609   3.695   0.578  0.5613 -0.8766  0.2734
36172SOL     OW18829   8.238   5.664   5.910  1.2782 -0.0374 -0.2207
36172SOL    HW118830   8.198   5.701   5.988  1.0004 -1.8761  0.5641
36172SOL    HW218831   8.332   5.660   5.930  1.0395 -1.9955  0.7385
36173SOL     OW18832   7.343  12.466  11.442 -0.5347  0.1095  0.1588
36173SOL    HW118833   7.301  12.382  11.423 -1.8244  0.5537  0.8931
36173SOL    HW218834   7.285  12.531  11.403 -0.5352  0.7464  1.1730
36174SOL     OW18835   1.614  12.458   5.153 -0.6156 -0.2647  0.1563
36174SOL    HW118836   1.628  12.392   5.085  1.3748  0.1243  0.1341
36174SOL    HW218837   1.519  12.468   5.158 -0.9399 -2.6271 -0.3106
36175SOL     OW18838   6.418   8.271   3.147  0.5888  0.7619  0.1744
36175SOL    HW118839   6.368   8.352   3.143 -3.9884 -1.6852  0.2334
36175SOL    HW218840   6.409   8.242   3.238  0.9232 -0.4354 -0.1596
36176SOL     OW18841   8.762  10.847   4.774  0.4073  0.6499 -0.3601
36176SOL    HW118842   8.782  10.912   4.706  1.4007  0.3051 -0.4077
36176SOL    HW218843   8.669  10.862   4.794  0.6458  2.2050 -0.2556
36177SOL     OW18844  11.711  12.805   9.722 -0.1858 -0.9104 -0.6168
36177SOL    HW118845  11.804  12.809   9.744 -0.6809  0.7370  1.5326
36177SOL    HW218846  11.686  12.715   9.743  0.6480 -0.9853  0.1553
36178SOL     OW18847   2.740   1.617   5.134 -0.4111  0.0699 -0.3545
36178SOL    HW118848   2.752   1.526   5.162 -1.1972  0.0214 -0.1534
36178SOL    HW218849   2.733   1.667   5.216 -0.4070  0.2475 -0.4624
36179SOL     OW18850   3.502   5.156  10.580 -0.3670 -0.2043 -0.1764
36179SOL    HW118851   3.445   5.081  10.570  1.3141 -1.3148 -2.0793
36179SOL    HW218852   3.474   5.218  10.513  0.8933 -0.9480 -1.4276
36180SOL     OW18853   7.375   5.428   7.531  0.3903  0.3593 -0.3109
36180SOL    HW118854   7.381   5.510   7.579  0.2100 -0.6102  1.4415
36180SOL    HW218855   7.326   5.451   7.452 -0.4688  1.7694  0.5758
36181SOL     OW18856  12.902   8.638   1.739 -0.1469 -0.4804  0.4619
36181SOL    HW118857  12.974   8.608   1.684 -0.5802  0.0539 -0.4125
36181SOL    HW218858  12.945   8.670   1.819  0.4071 -2.2391  0.9109
36182SOL     OW18859   1.304   2.003   8.460 -0.2519  0.2408  0.4303
36182SOL    HW118860   1.320   1.967   8.374 -1.4630  0.5294  0.0623
36182SOL    HW218861   1.345   2.090   8.458 -1.1206  0.6531 -0.2160
36183SOL     OW18862  10.293  12.100   3.613 -0.2663  0.4411 -0.4579
36183SOL    HW118863  10.210  12.079   3.657  0.3295  0.2085  0.5938
36183SOL    HW218864  10.292  12.046   3.534  0.0245 -1.6222  0.8461
36184SOL     OW18865   1.788   8.065   6.924  0.1264  0.1747 -0.1330
36184SOL    HW118866   1.698   8.061   6.890  0.2908  0.2547 -0.5791
36184SOL    HW218867   1.843   8.068   6.846  0.5671 -0.7018  0.1304
36185SOL     OW18868   5.979   3.578   5.691 -0.2565 -0.0422  0.3506
36185SOL    HW118869   5.985   3.589   5.785 -0.2820 -0.5449  0.4146
36185SOL    HW218870   6.062   3.610   5.657 -0.2993  0.2629  0.5305
36186SOL     OW18871   1.908  12.834   2.680 -0.4841 -0.1866 -0.0338
36186SOL    HW118872   1.969  12.855   2.750  0.3089 -0.8804 -0.5020
36186SOL    HW218873   1.907  12.739   2.676  0.1822 -0.1589 -1.5407
36187SOL     OW18874   5.268   5.298   4.174  0.1237  0.0773  0.1752
36187SOL    HW118875   5.250   5.286   4.081  1.2521  1.3557 -0.2277
36187SOL    HW218876   5.333   5.231   4.195  1.0154  0.7590 -0.3419
36188SOL     OW18877   2.502   4.253  12.800  0.0735  0.5006 -0.5981
36188SOL    HW118878   2.485   4.265  12.893 -0.4105 -0.6827 -0.5203
36188SOL    HW218879   2.435   4.191  12.771  1.3985 -0.6710 -1.2921
36189SOL     OW18880   2.445  12.876   7.870 -0.5830 -0.7247  0.5299
36189SOL    HW118881   2.416  12.846   7.784  0.2635 -0.4595  0.1397
36189SOL    HW218882   2.539  12.892   7.860 -0.7904  1.0186  1.0141
36190SOL     OW18883   0.425   4.899   8.138 -0.1876 -0.1869 -0.5578
36190SOL    HW118884   0.386   4.815   8.165  0.6444 -0.7107 -0.9515
36190SOL    HW218885   0.440   4.945   8.220 -0.9324 -0.2836 -0.3529
36191SOL     OW18886   0.611  11.938   4.391  0.4956  0.4128  0.6847
36191SOL    HW118887   0.527  11.939   4.436  0.9541  1.8791  1.6007
36191SOL    HW218888   0.590  11.941   4.298 -0.4649  0.3705  0.8962
36192SOL     OW18889   2.555   0.870   7.108  0.2283 -0.0441 -0.6548
36192SOL    HW118890   2.489   0.842   7.171 -0.7356 -0.6034 -1.8708
36192SOL    HW218891   2.584   0.789   7.066  0.4403  0.3747 -1.3344
36193SOL     OW18892   9.434   7.683   3.113 -0.2160  0.1644 -0.2176
36193SOL    HW118893   9.470   7.771   3.110 -1.4972  0.9195  2.8454
36193SOL    HW218894   9.390   7.672   3.029  1.7712  1.5643 -1.5217
36194SOL     OW18895  10.936   7.776   4.936 -0.4638 -0.5717 -0.0167
36194SOL    HW118896  11.010   7.834   4.915 -1.1377 -0.4517 -2.3956
36194SOL    HW218897  10.959   7.736   5.020  1.3907  0.9065  0.2427
36195SOL     OW18898  11.824   5.900   3.165  0.1029 -0.5595  0.8554
36195SOL    HW118899  11.746   5.875   3.214 -0.5841 -0.1598 -0.0225
36195SOL    HW218900  11.824   5.843   3.088  0.2641 -0.0319  0.4632
36196SOL     OW18901   3.503   5.294   5.284  0.4799 -0.4281  0.9144
36196SOL    HW118902   3.588   5.267   5.319 -0.0078 -0.1719  2.3809
36196SOL    HW218903   3.472   5.219   5.234  1.2468 -0.7879  0.9695
36197SOL     OW18904   5.286   7.788   7.900 -0.7331 -0.5406 -0.1621
36197SOL    HW118905   5.380   7.792   7.917 -0.6843 -2.7083  0.3752
36197SOL    HW218906   5.246   7.794   7.987 -1.0214 -0.7709 -0.2767
36198SOL     OW18907   7.402   1.653  10.540  0.1683  0.2011  0.1337
36198SOL    HW118908   7.328   1.702  10.504  0.4582  1.7830  1.6140
36198SOL    HW218909   7.435   1.603  10.465 -0.6599  1.6130 -1.2337
36199SOL     OW18910   1.331   8.034   2.845 -0.3654  0.1054 -0.5917
36199SOL    HW118911   1.394   7.976   2.802  0.1234  1.2048 -1.4005
36199SOL    HW218912   1.365   8.122   2.831 -0.8224  0.5933  1.0551
36200SOL     OW18913   2.129   4.519   7.891  0.0619  0.1966  0.1536
36200SOL    HW118914   2.189   4.584   7.855 -1.1124  2.5216  2.1228
36200SOL    HW218915   2.179   4.475   7.961  0.5324 -0.3489 -0.5123
36201SOL     OW18916   3.840   2.524   6.012 -0.1823  0.1356  0.2649
36201SOL    HW118917   3.934   2.532   6.024 -0.0942 -0.6592  0.1470
36201SOL    HW218918   3.828   2.444   5.961 -1.0549 -1.4027  2.6869
36202SOL     OW18919   1.663   7.377   3.573 -0.3680 -0.3603  0.3278
36202SOL    HW118920   1.637   7.379   3.665 -0.6733 -1.8307  0.3073
36202SOL    HW218921   1.614   7.303   3.536 -0.2338  0.1902 -1.0133
36203SOL     OW18922  10.146  11.748   7.405  0.0746 -0.2961 -0.1104
36203SOL    HW118923  10.071  11.807   7.403 -0.0049 -0.4000 -0.2363
36203SOL    HW218924  10.124  11.679   7.342  0.6190  0.0825 -0.7312
36204SOL     OW18925   9.972  12.345  11.383 -0.3842  0.0694  0.1517
36204SOL    HW118926  10.021  12.398  11.447 -0.8457  1.4018 -0.5549
36204SOL    HW218927   9.894  12.397  11.364 -0.0596 -0.0939 -1.7903
36205SOL     OW18928   1.639  11.822   4.884  0.5696 -0.4062  0.3720
36205SOL    HW118929   1.694  11.901   4.882 -0.5831  0.5299  2.6148
36205SOL    HW218930   1.559  11.848   4.839 -0.0699 -0.0411  1.6764
36206SOL     OW18931   5.974   0.936   4.012  0.0028 -0.1524  0.1624
36206SOL    HW118932   5.985   0.992   3.935 -0.1914 -0.3862 -0.0395
36206SOL    HW218933   6.063   0.918   4.041  0.1195  3.1241  2.3800
36207SOL     OW18934  11.278  10.287   9.923  0.0569  0.0297 -0.0764
36207SOL    HW118935  11.264  10.196   9.948 -0.3318 -0.7132 -2.7191
36207SOL    HW218936  11.223  10.337   9.982 -1.5024 -1.6427 -0.0249
36208SOL     OW18937   9.233   7.171   4.512  0.4504  0.0971  0.2131
36208SOL    HW118938   9.220   7.081   4.482  2.4778 -0.5577  1.1221
36208SOL    HW218939   9.205   7.170   4.603 -1.9243  1.0901 -0.4227
36209SOL     OW18940   7.393   9.473  10.053 -0.3054 -0.6087 -0.0583
36209SOL    HW118941   7.402   9.387  10.093  0.3450 -2.0182 -2.9162
36209SOL    HW218942   7.303   9.475  10.020 -0.8090  0.4856  1.2843
36210SOL     OW18943   0.731   9.376   2.889 -0.3918 -0.1865 -1.0125
36210SOL    HW118944   0.725   9.436   2.963 -0.3781 -0.1031 -1.0783
36210SOL    HW218945   0.721   9.432   2.812 -0.0372 -0.2209 -1.0854
36211SOL     OW18946   9.056  11.411   4.937 -0.3618 -0.2553  0.4087
36211SOL    HW118947   9.129  11.414   4.999 -0.3568  0.3196  0.3795
36211SOL    HW218948   9.036  11.503   4.920 -0.8555 -0.4141  0.1361
36212SOL     OW18949   4.656  11.555   0.829 -0.0318 -0.1812  0.2775
36212SOL    HW118950   4.595  11.562   0.903 -0.3573  1.5752 -0.0958
36212SOL    HW218951   4.711  11.480   0.851 -1.6704 -1.2156  1.1112
36213SOL     OW18952   7.150  10.213  11.769  0.7419 -0.4212 -0.4727
36213SOL    HW118953   7.195  10.296  11.779 -0.0756 -0.0112 -0.1476
36213SOL    HW218954   7.081  10.230  11.705 -2.1137  0.3116  2.5470
36214SOL     OW18955  11.106  10.485   9.541 -0.1633 -0.0423  0.3802
36214SOL    HW118956  11.114  10.571   9.500  3.9675 -0.4396 -0.0634
36214SOL    HW218957  11.048  10.500   9.615 -1.4172  2.5495 -0.9666
36215SOL     OW18958   3.156   9.422   0.188  0.2341  0.1689 -0.5181
36215SOL    HW118959   3.108   9.389   0.264  0.7390  0.6822  0.0381
36215SOL    HW218960   3.221   9.355   0.169  0.7209  0.4485  0.1007
36216SOL     OW18961   9.938   2.136  11.839 -0.5274  0.0681  0.1090
36216SOL    HW118962   9.942   2.116  11.932  3.0403  1.9353  0.5467
36216SOL    HW218963   9.982   2.220  11.831 -2.1337  0.7439 -3.1298
36217SOL     OW18964   1.547  11.579   2.405 -0.3507  0.5626 -0.8143
36217SOL    HW118965   1.610  11.651   2.416  0.1427  0.5134 -2.8729
36217SOL    HW218966   1.597  11.512   2.359 -1.0713 -0.7531  0.2712
36218SOL     OW18967  11.353   7.359  10.293  0.2837 -0.0806  0.0837
36218SOL    HW118968  11.382   7.268  10.285  1.7816  0.5211 -2.3432
36218SOL    HW218969  11.285   7.368  10.226  0.7981  0.7980 -0.3409
36219SOL     OW18970  12.935   6.395   2.318 -0.0130 -0.2086  0.2838
36219SOL    HW118971  12.863   6.331   2.315  0.1162 -0.3624 -2.8144
36219SOL    HW218972  12.893   6.476   2.346 -1.8216  0.0169 -2.5827
36220SOL     OW18973  12.114   7.615  12.660 -0.3359 -0.6790  0.5781
36220SOL    HW118974  12.124   7.677  12.588  0.5315 -1.7285 -0.2331
36220SOL    HW218975  12.020   7.608  12.673 -0.6485 -2.0498 -1.8791
36221SOL     OW18976   6.954  12.962   9.499 -0.5298 -0.0665  0.6511
36221SOL    HW118977   6.917  12.876   9.520 -1.6350  0.1833 -0.1769
36221SOL    HW218978   7.027  12.973   9.561  0.6798 -2.2780 -0.2576
36222SOL     OW18979   2.122  12.954   4.792 -0.1863 -0.0618 -0.0168
36222SOL    HW118980   2.201  12.997   4.758  0.0224  0.4511  1.0762
36222SOL    HW218981   2.111  12.877   4.736  2.1588 -1.1689  0.9225
36223SOL     OW18982  10.861  11.155   1.772  0.0923  0.0189  0.1508
36223SOL    HW118983  10.766  11.143   1.764  0.2268 -1.6334  0.6305
36223SOL    HW218984  10.880  11.133   1.863  0.8961  0.7019  0.1528
36224SOL     OW18985   8.829   6.439   3.326 -0.3740 -0.0950  0.0138
36224SOL    HW118986   8.765   6.461   3.259 -0.0842  0.1502 -0.1803
36224SOL    HW218987   8.885   6.516   3.333  0.6224 -0.7284 -0.6537
36225SOL     OW18988  10.170   6.563   4.559  0.5390  0.3366  0.0373
36225SOL    HW118989  10.075   6.557   4.551  0.7424 -1.8181 -1.6263
36225SOL    HW218990  10.193   6.501   4.628  0.5448  3.8579  3.5531
36226SOL     OW18991   9.709   8.805   7.491 -0.3359 -0.1172  0.3082
36226SOL    HW118992   9.696   8.728   7.547 -0.6973  1.6857  2.8654
36226SOL    HW218993   9.620   8.837   7.474 -0.1300  0.3731  0.1631
36227SOL     OW18994   6.861   2.125   4.533  0.0799 -0.0534  0.1071
36227SOL    HW118995   6.800   2.061   4.572  0.7434 -0.0559  1.1825
36227SOL    HW218996   6.946   2.083   4.540  0.5396  0.9769  0.9044
36228SOL     OW18997   2.136   1.910   9.678  0.2488 -0.2869 -0.2655
36228SOL    HW118998   2.179   1.986   9.640  1.0431 -0.1562  0.8471
36228SOL    HW218999   2.107   1.940   9.765  0.2894 -1.1559  0.0557
36229SOL     OW19000  12.845   5.968  11.992 -0.0960  0.4336  0.9320
36229SOL    HW119001  12.930   5.951  12.031 -0.2638 -3.8642 -0.0042
36229SOL    HW219002  12.857   5.949  11.899 -2.0350 -0.4533  0.8010
36230SOL     OW19003  11.324   3.381   1.191  0.3624  0.0501  0.4612
36230SOL    HW119004  11.400   3.426   1.226  0.4939  0.3450 -0.2012
36230SOL    HW219005  11.358   3.297   1.159  0.7606  0.9058 -1.4859
36231SOL     OW19006   8.751   2.886  10.448  0.0410 -0.2743  0.1269
36231SOL    HW119007   8.818   2.942  10.409  1.8929 -0.0745  3.2357
36231SOL    HW219008   8.725   2.827  10.377  1.9500  1.0244 -1.7792
36232SOL     OW19009   1.054   2.384  11.114  0.1349  0.6608  0.2562
36232SOL    HW119010   1.085   2.447  11.049  2.3824  0.4276  1.0356
36232SOL    HW219011   0.997   2.325  11.065 -0.3279  2.0221 -0.9187
36233SOL     OW19012   4.692  10.932   8.686  0.8418  0.1391 -0.3900
36233SOL    HW119013   4.706  11.016   8.643  0.1650  1.6516  2.1503
36233SOL    HW219014   4.771  10.917   8.737  0.7541 -0.5407 -0.4392
36234SOL     OW19015  10.408   0.047   7.396 -0.6011  0.7232 -0.4669
36234SOL    HW119016  10.365  -0.010   7.332 -2.6445  1.1016  0.4930
36234SOL    HW219017  10.417  -0.008   7.474 -1.9159  1.4461  0.2235
36235SOL     OW19018  10.144   1.067  10.726  0.4771  0.4222  0.3555
36235SOL    HW119019  10.166   0.982  10.764  0.3283  0.8590  1.4676
36235SOL    HW219020  10.048   1.067  10.722  0.4131  0.9783  1.4722
36236SOL     OW19021   1.614   6.897  10.344  0.0522  0.7607  0.8761
36236SOL    HW119022   1.544   6.907  10.408 -0.5817  0.3844  0.2401
36236SOL    HW219023   1.572   6.861  10.266  0.7705  1.4488  0.1500
36237SOL     OW19024   4.297   0.822  10.004  0.5479 -0.0125  0.3497
36237SOL    HW119025   4.226   0.771   9.965 -0.3562  0.8273  0.8613
36237SOL    HW219026   4.368   0.818   9.939 -0.0210 -0.7305 -0.2387
36238SOL     OW19027   9.871  12.009   1.450  0.9906  0.1559 -0.6780
36238SOL    HW119028   9.868  11.919   1.419 -0.6396 -0.2260  0.4573
36238SOL    HW219029   9.779  12.033   1.464  1.4535  1.5730  0.1962
36239SOL     OW19030   7.660   9.702   1.131 -0.6997  0.0265  0.1555
36239SOL    HW119031   7.617   9.632   1.180  0.7352  0.2195  1.7745
36239SOL    HW219032   7.712   9.749   1.197  0.0898  1.2681 -1.2935
36240SOL     OW19033   5.582   1.186   3.328  0.4290  0.2266 -0.3220
36240SOL    HW119034   5.518   1.196   3.258  0.1225  2.4929  0.2056
36240SOL    HW219035   5.556   1.105   3.373  0.2777 -0.9362 -2.3969
36241SOL     OW19036  11.995   2.098   5.857  0.4547  0.3330  0.7144
36241SOL    HW119037  11.914   2.085   5.906  0.6705 -0.5461  0.8469
36241SOL    HW219038  11.970   2.085   5.766  0.5348 -0.4112  0.7924
36242SOL     OW19039   4.856   4.975   9.593  0.1572  0.0377  0.4084
36242SOL    HW119040   4.839   4.914   9.664  1.1205 -0.7792 -0.0375
36242SOL    HW219041   4.776   4.973   9.540 -1.0931  1.6352  2.1079
36243SOL     OW19042  10.062  11.938   4.126 -0.2488 -0.0992 -0.0547
36243SOL    HW119043  10.071  12.029   4.098  0.0433  0.6929  2.4395
36243SOL    HW219044  10.026  11.894   4.049  0.5670  1.8850 -1.6728
36244SOL     OW19045  11.527   6.885  11.476  0.3030  0.2338  0.1026
36244SOL    HW119046  11.498   6.798  11.502  0.6763  0.4619  1.3486
36244SOL    HW219047  11.599   6.869  11.416 -0.5346 -0.3152 -0.7828
36245SOL     OW19048   6.027  12.887   8.832 -0.1579 -0.4654  0.2023
36245SOL    HW119049   6.042  12.965   8.886  0.1807 -0.4255  0.0521
36245SOL    HW219050   5.964  12.915   8.765 -1.6802 -0.8854  1.4013
36246SOL     OW19051   2.822   2.404   5.529 -0.2255 -0.0756  0.0794
36246SOL    HW119052   2.911   2.382   5.557  0.1809  0.0284 -1.0963
36246SOL    HW219053   2.766   2.367   5.597  0.7412  0.4897  1.2190
36247SOL     OW19054  12.325   5.199   4.124 -0.1618  0.4406  0.1857
36247SOL    HW119055  12.253   5.163   4.074  0.2068  0.4283 -0.3439
36247SOL    HW219056  12.337   5.288   4.090 -0.2568  0.6294  0.6265
36248SOL     OW19057   0.326   4.759  11.512  0.5315 -0.6413  0.0383
36248SOL    HW119058   0.419   4.774  11.492  0.1727  0.7765 -0.7159
36248SOL    HW219059   0.303   4.829  11.573 -0.3727 -0.0817 -0.8990
36249SOL     OW19060   2.519   5.732   4.619 -0.4648  0.3216 -0.1704
36249SOL    HW119061   2.587   5.666   4.603 -1.4287 -0.4979 -0.9583
36249SOL    HW219062   2.506   5.775   4.535 -1.3846  0.0242 -0.1892
36250SOL     OW19063   9.492   2.691  12.270 -0.2462 -0.6612  0.0029
36250SOL    HW119064   9.550   2.703  12.345 -0.4702  0.1420  0.0630
36250SOL    HW219065   9.420   2.752  12.287 -0.4016 -0.6312 -0.7600
36251SOL     OW19066   1.781   6.597   8.625 -0.0691  0.2511 -0.0803
36251SOL    HW119067   1.732   6.536   8.571  0.7277 -1.5316  1.1172
36251SOL    HW219068   1.861   6.615   8.575 -0.8892  1.4346 -1.0357
36252SOL     OW19069   8.125   0.720   8.192 -0.5291  0.0730  0.2765
36252SOL    HW119070   8.050   0.779   8.180 -0.7334  0.0545  1.3871
36252SOL    HW219071   8.133   0.710   8.287  1.0243  0.2477  0.1871
36253SOL     OW19072   9.661   0.358  10.631  0.2439  0.1735  0.1412
36253SOL    HW119073   9.656   0.263  10.624 -2.5718  0.3386 -1.5004
36253SOL    HW219074   9.671   0.389  10.541  2.1184  1.4727  0.7212
36254SOL     OW19075   7.082  11.708   1.627  0.1367 -0.0925  0.0295
36254SOL    HW119076   7.146  11.707   1.556  0.9572 -0.1778  0.7538
36254SOL    HW219077   6.998  11.696   1.583  0.4539  1.3968 -1.0885
36255SOL     OW19078   0.584   7.756   5.478  0.0054 -0.1211 -0.3448
36255SOL    HW119079   0.656   7.709   5.521  0.3776  0.2953 -0.5129
36255SOL    HW219080   0.576   7.714   5.392  2.3813  2.0521 -1.7642
36256SOL     OW19081   1.877   7.023   5.049  0.0893  0.0258  0.4828
36256SOL    HW119082   1.805   6.971   5.085  1.4355 -2.1438  0.2297
36256SOL    HW219083   1.955   6.991   5.094  1.5333 -1.1674 -2.6138
36257SOL     OW19084   6.134   5.543   2.568 -0.7823 -0.1198  0.2116
36257SOL    HW119085   6.195   5.493   2.622  0.4152 -0.3165 -1.2445
36257SOL    HW219086   6.164   5.634   2.576 -1.1298 -0.0337  0.5426
36258SOL     OW19087   1.781   6.953   7.192  0.0384 -0.4071 -0.2910
36258SOL    HW119088   1.780   7.033   7.244  0.8336 -1.0451  0.7333
36258SOL    HW219089   1.868   6.950   7.153 -0.0699 -0.6564 -0.5261
36259SOL     OW19090  12.862   0.277   8.335  0.1615  0.4311  0.0120
36259SOL    HW119091  12.837   0.192   8.298  1.6877  0.1141 -0.3841
36259SOL    HW219092  12.811   0.341   8.285 -0.8620 -0.2276  0.1880
36260SOL     OW19093   2.211   8.260   5.665  0.0182 -0.6787  0.2298
36260SOL    HW119094   2.121   8.293   5.665 -0.3758 -1.6964 -0.3481
36260SOL    HW219095   2.212   8.193   5.733  0.6386  0.0516  0.9579
36261SOL     OW19096   3.275   1.323  11.872  0.4580 -0.1856 -0.4430
36261SOL    HW119097   3.358   1.329  11.825  0.1400 -0.1007 -1.0030
36261SOL    HW219098   3.300   1.304  11.963  1.0767 -0.4169 -0.6550
36262SOL     OW19099   3.051   1.087   2.404  0.0848 -0.0190  0.1776
36262SOL    HW119100   3.049   0.992   2.417  0.3940 -0.3264 -1.7305
36262SOL    HW219101   3.079   1.122   2.489  0.7842 -1.6738  0.6784
36263SOL     OW19102   2.193  12.742  10.770  0.1707  0.0534 -0.0480
36263SOL    HW119103   2.242  12.770  10.847  0.8612 -0.0410 -0.4418
36263SOL    HW219104   2.259  12.736  10.701 -0.1527 -1.3643 -0.2698
36264SOL     OW19105   3.896  11.666   2.024  0.3759  0.0440  0.0192
36264SOL    HW119106   3.974  11.722   2.025 -1.2475  2.4841 -1.2311
36264SOL    HW219107   3.831  11.714   2.074 -1.1013 -0.6900 -1.1238
36265SOL     OW19108   1.380  10.829   2.786 -0.2495  0.0288 -0.0461
36265SOL    HW119109   1.310  10.831   2.851  0.0472 -0.7811  0.3132
36265SOL    HW219110   1.348  10.771   2.718 -1.0232  1.7354 -1.1941
36266SOL     OW19111   3.831   3.194   5.205 -0.4081 -0.0575  0.6348
36266SOL    HW119112   3.738   3.187   5.182 -0.5222 -0.9560  1.3290
36266SOL    HW219113   3.857   3.105   5.230  1.1584 -0.2632 -1.4425
36267SOL     OW19114   0.817   9.983   8.051  0.5827  0.8433  0.3441
36267SOL    HW119115   0.890  10.046   8.050  2.0550 -0.7203  1.8008
36267SOL    HW219116   0.835   9.924   7.977 -0.2460  1.5001 -0.4059
36268SOL     OW19117  10.937   8.158   5.847 -0.1336 -0.6335  0.6728
36268SOL    HW119118  10.899   8.114   5.771 -2.1270 -0.0104  1.2702
36268SOL    HW219119  10.876   8.140   5.918  0.3854  0.8873  1.5393
36269SOL     OW19120   7.856   6.087   6.519 -1.1203  0.1798  1.2080
36269SOL    HW119121   7.948   6.067   6.534 -1.2520 -1.1777  0.3919
36269SOL    HW219122   7.834   6.151   6.586  0.9749  2.2249  0.1116
36270SOL     OW19123   0.406  12.091   9.778 -0.2460 -0.3206  0.1256
36270SOL    HW119124   0.492  12.105   9.737  0.9103  1.0147  2.7734
36270SOL    HW219125   0.362  12.175   9.770 -0.3922 -0.3357  0.7608
36271SOL     OW19126   8.279   0.984   2.193  0.4410  0.8753 -0.3827
36271SOL    HW119127   8.337   0.925   2.145 -1.2482 -0.7055 -0.6277
36271SOL    HW219128   8.295   0.964   2.285 -0.6580 -0.6047 -0.4748
36272SOL     OW19129   3.519   9.377   1.614 -0.0588 -0.1630  0.3708
36272SOL    HW119130   3.564   9.398   1.696  1.0353  0.8756 -0.4420
36272SOL    HW219131   3.591   9.355   1.553 -0.8886 -1.6269 -0.1238
36273SOL     OW19132   3.004   2.728  12.912  0.2009 -0.3527 -0.1289
36273SOL    HW119133   2.982   2.741  12.819 -0.4381  0.3306  0.1001
36273SOL    HW219134   3.074   2.790  12.929 -0.2257  0.0961  0.0295
36274SOL     OW19135   0.958  10.506   6.104  0.5366  0.0009  0.0665
36274SOL    HW119136   0.970  10.595   6.071  0.4566 -0.1387 -0.3390
36274SOL    HW219137   0.954  10.517   6.199 -0.0097  0.4929 -0.0022
36275SOL     OW19138   4.158   7.223   3.362  0.4611 -0.4992 -0.5602
36275SOL    HW119139   4.127   7.142   3.402  0.3059 -0.9617 -1.5731
36275SOL    HW219140   4.123   7.292   3.417 -2.2159 -1.0032 -1.4798
36276SOL     OW19141  12.711   3.454   3.601 -0.3070 -0.2328  0.5274
36276SOL    HW119142  12.727   3.477   3.510 -3.0518  1.0131  0.2691
36276SOL    HW219143  12.787   3.487   3.648 -0.7358  2.9955 -0.8165
36277SOL     OW19144   3.075   2.280   5.489  0.1305  0.3758  0.4879
36277SOL    HW119145   3.170   2.284   5.493  0.1811 -1.0049  1.3263
36277SOL    HW219146   3.056   2.193   5.454 -0.8361  1.0624 -0.7992
36278SOL     OW19147   9.248   9.403   3.182  0.0615  0.2514 -0.2444
36278SOL    HW119148   9.325   9.348   3.194  0.2296  0.3628 -0.7924
36278SOL    HW219149   9.229   9.400   3.088 -0.4501  0.4272 -0.1545
36279SOL     OW19150   0.745   9.841   1.939  0.1859 -0.0034 -0.1718
36279SOL    HW119151   0.799   9.802   2.008  1.1844  0.1572 -0.8483
36279SOL    HW219152   0.717   9.767   1.885  0.2317 -0.0195 -0.1735
36280SOL     OW19153  12.810   1.895   3.089  0.0015  0.7797 -0.6968
36280SOL    HW119154  12.895   1.906   3.132 -0.1154  0.6278 -0.4224
36280SOL    HW219155  12.818   1.811   3.042 -0.0290  0.7196 -0.5948
36281SOL     OW19156   4.006   3.164  11.595 -0.0047  0.5753 -0.4430
36281SOL    HW119157   4.094   3.127  11.604 -0.4883 -0.4613  0.2637
36281SOL    HW219158   3.969   3.120  11.519  0.4024  1.7085 -1.3234
36282SOL     OW19159   2.593   6.053   8.431 -0.1510  0.1055 -0.1571
36282SOL    HW119160   2.544   6.122   8.478  1.4849  0.5080  1.0798
36282SOL    HW219161   2.623   5.995   8.501 -0.6602 -1.3285 -1.1057
36283SOL     OW19162   7.935  11.178  12.165 -0.4432 -0.3674  0.1148
36283SOL    HW119163   7.872  11.181  12.093 -2.7071 -1.1788  1.9362
36283SOL    HW219164   7.927  11.089  12.200  2.8587 -1.0158 -0.4484
36284SOL     OW19165   6.432   9.533  11.243  0.5601 -0.4331  0.7931
36284SOL    HW119166   6.444   9.625  11.223 -0.6296 -0.4395 -0.0893
36284SOL    HW219167   6.463   9.487  11.165 -1.8094 -0.5843 -0.1533
36285SOL     OW19168   3.513   7.622  11.507  0.1574  0.4488 -0.1021
36285SOL    HW119169   3.584   7.634  11.444  0.7218  1.6609  0.7300
36285SOL    HW219170   3.445   7.682  11.479 -2.0612 -2.9863 -2.8561
36286SOL     OW19171  12.533   0.198   7.524 -0.2070  0.2452  0.2876
36286SOL    HW119172  12.595   0.138   7.565  0.5005  0.1434 -0.8894
36286SOL    HW219173  12.447   0.158   7.539  0.2467 -1.0502 -0.4073
36287SOL     OW19174   7.611   1.048   3.248  0.1032  0.4596 -0.4923
36287SOL    HW119175   7.593   1.139   3.269 -0.9455 -0.0597  1.0824
36287SOL    HW219176   7.691   1.027   3.297  0.4662  0.5810 -1.0259
36288SOL     OW19177   2.341   6.247   8.512 -0.0434  0.4587  0.0094
36288SOL    HW119178   2.300   6.310   8.452  0.8074  0.7868 -0.2479
36288SOL    HW219179   2.277   6.236   8.582 -1.4499 -0.6133 -1.3700
36289SOL     OW19180   2.101   0.705  11.217 -0.3505  0.5789 -0.5456
36289SOL    HW119181   2.082   0.621  11.259 -2.7877  1.3059 -0.0266
36289SOL    HW219182   2.165   0.747  11.276 -1.8969  0.5819  1.2198
36290SOL     OW19183   1.787   3.739   5.662  0.0210  0.2804  0.1996
36290SOL    HW119184   1.855   3.738   5.730 -1.9405  1.4533  2.2903
36290SOL    HW219185   1.712   3.782   5.703 -1.5815  0.2158 -2.4480
36291SOL     OW19186   6.644   1.427   3.052  0.3379 -0.0804 -0.2009
36291SOL    HW119187   6.552   1.451   3.045  0.4690  1.1653  1.5785
36291SOL    HW219188   6.662   1.374   2.974 -2.5330 -2.5375  0.6105
36292SOL     OW19189   4.662   2.669   4.900 -0.1565 -0.3387  0.2235
36292SOL    HW119190   4.606   2.601   4.938  0.5696  0.0395  2.0719
36292SOL    HW219191   4.668   2.736   4.967  0.6795  0.6890 -0.8257
36293SOL     OW19192   9.162   3.412   2.939 -0.2680  0.1403 -0.1842
36293SOL    HW119193   9.181   3.348   2.871 -0.2568  1.4314 -1.4531
36293SOL    HW219194   9.151   3.361   3.019  3.2621 -1.1494 -0.3810
36294SOL     OW19195   9.785   3.972   8.638 -0.1469 -0.1662 -0.2484
36294SOL    HW119196   9.835   3.912   8.692  1.7566  2.1653  0.7580
36294SOL    HW219197   9.786   3.933   8.551  1.5162 -1.3057  0.2526
36295SOL     OW19198   6.184   3.201   2.814 -0.2175  0.3451  0.0737
36295SOL    HW119199   6.101   3.198   2.767  0.0508  0.5897 -0.4232
36295SOL    HW219200   6.244   3.151   2.759  0.5254  2.0392 -0.7003
36296SOL     OW19201   7.622  10.621   3.757  0.1063 -0.3816 -0.1735
36296SOL    HW119202   7.584  10.541   3.792 -0.0049  0.2841  1.3009
36296SOL    HW219203   7.715  10.616   3.779 -0.4404  1.4970  3.3884
36297SOL     OW19204   6.655   7.757   6.130  0.1750  0.4170  0.2482
36297SOL    HW119205   6.653   7.839   6.081 -1.4627  1.4201  1.8394
36297SOL    HW219206   6.562   7.735   6.142  0.5902 -1.5296  0.0980
36298SOL     OW19207   8.197   9.347   3.532  0.0382 -0.0359  0.0178
36298SOL    HW119208   8.119   9.323   3.482  0.5697  1.9468 -1.9038
36298SOL    HW219209   8.268   9.346   3.468  1.4032 -0.6450  1.4831
36299SOL     OW19210   5.539   2.228   5.636  0.5688 -0.7082  0.1503
36299SOL    HW119211   5.553   2.134   5.627  0.0593 -0.7091 -0.7100
36299SOL    HW219212   5.623   2.262   5.668  0.6779 -1.4758  0.7036
36300SOL     OW19213   2.883   0.871  12.171  0.1121 -0.3570  0.3788
36300SOL    HW119214   2.878   0.964  12.194  1.8468 -0.0892 -0.1380
36300SOL    HW219215   2.927   0.870  12.086 -1.0633 -1.6044 -0.2484
36301SOL     OW19216  12.916   9.682   3.349  0.4371 -0.5213  0.1882
36301SOL    HW119217  12.939   9.673   3.441  0.4477 -0.6250  0.1756
36301SOL    HW219218  12.821   9.672   3.347  0.5299 -1.4774  0.0725
36302SOL     OW19219   0.518   1.400  12.651 -0.0889  0.2058  0.2956
36302SOL    HW119220   0.468   1.469  12.608 -0.1260  0.7792  1.2253
36302SOL    HW219221   0.589   1.380  12.590 -0.5813  0.4512 -0.3651
36303SOL     OW19222   7.560   9.451   8.016 -0.2632  0.0109 -0.0400
36303SOL    HW119223   7.622   9.491   7.954  1.8723 -1.5938  0.9507
36303SOL    HW219224   7.554   9.515   8.087 -2.5964  1.7889 -1.6782
36304SOL     OW19225   0.388   1.683   4.139  0.6251 -0.0560 -0.0845
36304SOL    HW119226   0.413   1.695   4.231  0.1970  2.2554 -0.2232
36304SOL    HW219227   0.294   1.705   4.137  0.5347 -0.4850 -1.0106
36305SOL     OW19228   0.204   4.623   4.866 -0.4856  0.1736 -0.2078
36305SOL    HW119229   0.252   4.541   4.857 -1.0664 -0.0902 -0.9852
36305SOL    HW219230   0.127   4.613   4.809 -0.4298  1.3553 -0.5224
36306SOL     OW19231   6.749   3.355   6.484 -0.5184  0.0849  0.0099
36306SOL    HW119232   6.784   3.411   6.553 -0.9756  0.5057 -0.0915
36306SOL    HW219233   6.751   3.267   6.521  3.2098 -0.3845 -0.9589
36307SOL     OW19234  10.103   3.702   7.180  0.2462 -0.6800  0.2465
36307SOL    HW119235  10.031   3.668   7.127 -0.5343  0.2207  0.6937
36307SOL    HW219236  10.093   3.797   7.174  0.8545 -0.5614  1.0603
36308SOL     OW19237   0.195  10.943   2.293 -0.0575 -0.1197  0.0927
36308SOL    HW119238   0.278  10.899   2.310 -0.4784 -0.5099  1.2152
36308SOL    HW219239   0.214  11.036   2.304 -0.1532 -0.3035  2.1899
36309SOL     OW19240   5.316   2.572   0.538 -0.0618 -0.0139  0.2280
36309SOL    HW119241   5.402   2.609   0.558 -0.3141  1.2162 -0.8062
36309SOL    HW219242   5.315   2.564   0.443 -1.4097  0.8490  0.1420
36310SOL     OW19243   4.431   9.984   5.407  0.1706  0.2047 -0.0151
36310SOL    HW119244   4.451   9.924   5.479 -1.3873  0.2604  0.5007
36310SOL    HW219245   4.336   9.997   5.412  0.0202  0.2581 -2.0560
36311SOL     OW19246   4.484   8.552   8.588  0.2606  0.0410  0.2048
36311SOL    HW119247   4.552   8.501   8.633  0.9678  0.9863  0.2405
36311SOL    HW219248   4.515   8.642   8.594  0.5793  0.1763 -2.5476
36312SOL     OW19249   0.823   3.585   8.944 -0.6747  0.3944 -0.0043
36312SOL    HW119250   0.795   3.541   9.024 -0.0427 -0.3787 -0.1962
36312SOL    HW219251   0.742   3.618   8.905 -1.1783 -0.6559  0.1095
36313SOL     OW19252  11.816   7.801   3.368 -0.2935  0.1189 -0.6549
36313SOL    HW119253  11.732   7.840   3.393  0.4297  0.7861  0.9155
36313SOL    HW219254  11.795   7.743   3.295 -1.8995  1.2114 -1.1156
36314SOL     OW19255   0.333   0.620   7.913 -0.0471  0.5346  0.4992
36314SOL    HW119256   0.338   0.654   7.824 -2.4920 -0.1599  0.0268
36314SOL    HW219257   0.362   0.529   7.905  1.2013  0.8887  0.7408
36315SOL     OW19258   7.260   8.760   7.903 -0.0100  0.2142 -0.0632
36315SOL    HW119259   7.295   8.820   7.837 -0.5049 -0.3797 -0.8805
36315SOL    HW219260   7.175   8.796   7.925 -0.5748 -0.4910 -1.0054
36316SOL     OW19261   8.687  11.758   9.192  0.4994 -0.4739 -0.4396
36316SOL    HW119262   8.756  11.809   9.149  0.8206  0.4043  1.0518
36316SOL    HW219263   8.674  11.683   9.134  2.7951 -0.7353 -0.7248
36317SOL     OW19264   9.387  11.381   3.035  0.7202 -0.3223  0.6594
36317SOL    HW119265   9.385  11.297   2.989  0.0549 -0.5996  1.1756
36317SOL    HW219266   9.445  11.367   3.109  1.0431 -0.1629  0.4355
36318SOL     OW19267   0.547   7.183  11.143  0.0724 -0.2707  0.1718
36318SOL    HW119268   0.482   7.246  11.111  0.3187  0.7695  1.6156
36318SOL    HW219269   0.499   7.128  11.205 -0.0061 -1.1834 -0.6677
36319SOL     OW19270   3.796   7.581   8.050  0.1874  0.0489 -0.3158
36319SOL    HW119271   3.824   7.497   8.014 -1.4902 -0.4302 -0.6097
36319SOL    HW219272   3.782   7.564   8.143 -0.4809 -0.1082 -0.4379
36320SOL     OW19273   8.345   0.782   9.834 -0.5808  0.3356 -0.1715
36320SOL    HW119274   8.295   0.804   9.912  1.0989  0.4993  0.9067
36320SOL    HW219275   8.282   0.789   9.762 -1.7959  1.6917  0.9751
36321SOL     OW19276   9.672  10.111  10.131  0.1813 -0.1672 -0.2410
36321SOL    HW119277   9.657  10.018  10.112  0.5747  0.1448 -2.3091
36321SOL    HW219278   9.755  10.113  10.179 -1.6225 -1.1296  3.2802
36322SOL     OW19279  11.316  10.100   7.787  0.5122  0.2232 -0.0383
36322SOL    HW119280  11.385  10.037   7.805 -0.5374 -0.8382  0.4422
36322SOL    HW219281  11.302  10.094   7.693  0.4366 -0.2584 -0.0004
36323SOL     OW19282   5.005   9.856   6.508  0.3966  1.0462  0.1081
36323SOL    HW119283   5.016   9.762   6.495  1.6870  1.1674  0.2320
36323SOL    HW219284   5.010   9.893   6.420  0.6983  1.0654  0.1304
36324SOL     OW19285   8.739   6.497   9.211  0.4441 -0.5908  0.6678
36324SOL    HW119286   8.788   6.574   9.241  1.6512 -1.2565  0.4691
36324SOL    HW219287   8.702   6.524   9.126  0.9785 -0.2750  0.5303
36325SOL     OW19288   6.953  10.850  10.242  0.2061 -0.6415 -0.5512
36325SOL    HW119289   6.858  10.856  10.246  0.2284 -0.8760  0.8430
36325SOL    HW219290   6.972  10.756  10.249  0.5607 -0.4994  0.7861
36326SOL     OW19291  10.160  12.648   5.452  0.0678  0.6976 -0.3583
36326SOL    HW119292  10.255  12.644   5.461  0.0733  1.4670  0.0199
36326SOL    HW219293  10.142  12.740   5.430 -0.4879  0.2966 -1.6931
36327SOL     OW19294   3.500   4.327   7.027 -0.2024 -0.2545  0.5260
36327SOL    HW119295   3.591   4.298   7.016 -0.2607 -0.5020  0.6829
36327SOL    HW219296   3.457   4.253   7.069 -1.0005 -1.0492 -1.5172
36328SOL     OW19297  10.678  12.357  11.466  0.3219  0.6033 -0.5885
36328SOL    HW119298  10.621  12.280  11.464 -1.0275  1.5516  0.0498
36328SOL    HW219299  10.710  12.365  11.376 -0.0871 -0.2969 -0.8252
36329SOL     OW19300   0.152  11.704   3.729  0.3806  0.4267  0.3860
36329SOL    HW119301   0.113  11.786   3.698  0.3161  0.2550  0.0027
36329SOL    HW219302   0.088  11.668   3.790 -0.1318  0.0715 -0.3517
36330SOL     OW19303   5.453   5.300   6.016  0.1317 -0.2274 -0.0444
36330SOL    HW119304   5.513   5.335   5.950  0.7733  0.0246  0.6587
36330SOL    HW219305   5.379   5.267   5.966 -1.2751  3.4557 -0.7527
36331SOL     OW19306  12.422   3.856   5.473 -0.2064 -0.0788 -0.3038
36331SOL    HW119307  12.328   3.851   5.491 -0.4654  0.8324 -1.3344
36331SOL    HW219308  12.450   3.938   5.512  0.0896 -0.1732 -0.3142
36332SOL     OW19309   5.836  11.785   2.013 -0.0209 -0.0323  0.3730
36332SOL    HW119310   5.809  11.835   2.090 -0.1253  1.8756 -0.8337
36332SOL    HW219311   5.759  11.785   1.957  0.3003 -0.7227 -0.0813
36333SOL     OW19312   9.261  11.148   7.738  0.4935  0.4309  0.1262
36333SOL    HW119313   9.348  11.109   7.728  1.3950  1.3830  3.0275
36333SOL    HW219314   9.272  11.212   7.808 -2.6099  0.4340  0.7516
36334SOL     OW19315   5.855   0.758  12.536 -0.0188  0.0956 -0.3309
36334SOL    HW119316   5.940   0.714  12.531 -0.2353 -0.7873  2.2486
36334SOL    HW219317   5.796   0.701  12.487  0.5897  0.0272 -1.0144
36335SOL     OW19318   5.286   1.782   2.633 -0.2644  0.1732 -0.7036
36335SOL    HW119319   5.291   1.877   2.639 -2.2748  0.2441  0.8740
36335SOL    HW219320   5.339   1.750   2.706 -1.7198  0.2067  0.4124
36336SOL     OW19321   0.775   0.679   6.691  0.2318  0.2101  0.3322
36336SOL    HW119322   0.773   0.595   6.643  1.8605  0.7915 -0.8454
36336SOL    HW219323   0.690   0.683   6.735  0.6739 -2.7797  1.7286
36337SOL     OW19324   8.636  10.071   5.373 -0.5927 -0.0307 -0.6948
36337SOL    HW119325   8.669   9.984   5.396  1.3107  1.6360  4.3246
36337SOL    HW219326   8.712  10.117   5.336 -0.0650  0.7596  1.2116
36338SOL     OW19327   1.811   0.349   1.212  0.1244 -0.1844  0.0350
36338SOL    HW119328   1.754   0.426   1.218 -0.0638 -0.4461  3.1152
36338SOL    HW219329   1.895   0.385   1.184 -0.2899  0.9708  0.1951
36339SOL     OW19330   0.496   5.248   0.699 -0.2174  0.0370 -0.6871
36339SOL    HW119331   0.514   5.211   0.785  0.8197 -0.9881 -1.3270
36339SOL    HW219332   0.572   5.302   0.679 -0.4668  0.2949 -0.9595
36340SOL     OW19333   7.345   2.546   2.396  0.0959  0.2617  0.0956
36340SOL    HW119334   7.273   2.526   2.456 -1.2047  0.3534 -1.3968
36340SOL    HW219335   7.361   2.640   2.408 -0.6638  0.4352 -0.2441
36341SOL     OW19336  12.417   2.855  11.348 -0.0439  0.1692  0.6537
36341SOL    HW119337  12.481   2.863  11.277 -0.4814  0.7904  0.3155
36341SOL    HW219338  12.410   2.761  11.364  0.0229  0.0148 -0.1749
36342SOL     OW19339   8.754   0.424  10.129  0.3001 -0.3771 -0.0765
36342SOL    HW119340   8.745   0.455  10.039  2.7228 -1.9134 -0.9263
36342SOL    HW219341   8.680   0.465  10.175  0.4641  2.5781 -2.1241
36343SOL     OW19342   9.826   1.681   8.071  0.1133 -0.6297 -0.1910
36343SOL    HW119343   9.752   1.741   8.075  0.2059 -0.5101 -0.2584
36343SOL    HW219344   9.794   1.600   8.112  0.2894 -0.2331  0.7493
36344SOL     OW19345   0.525   7.262   6.171 -0.1879 -0.3884  0.2211
36344SOL    HW119346   0.498   7.333   6.229 -0.0100 -1.5550  1.8092
36344SOL    HW219347   0.601   7.296   6.124 -0.0824  0.4438  0.9828
36345SOL     OW19348   9.319   6.920   1.032  0.5496 -0.2408 -0.0443
36345SOL    HW119349   9.240   6.911   1.085 -0.5099 -0.9904 -1.6846
36345SOL    HW219350   9.325   7.013   1.012 -0.0789 -0.2244 -0.1607
36346SOL     OW19351  11.269   7.564  11.753 -0.1066 -0.3521  0.4584
36346SOL    HW119352  11.266   7.618  11.832  0.5281  0.9776 -0.3778
36346SOL    HW219353  11.347   7.594  11.706 -1.0181 -0.3660 -1.1624
36347SOL     OW19354   3.306   5.405  10.852 -0.0739  0.1287  0.1389
36347SOL    HW119355   3.384   5.368  10.894 -0.9229  0.5551  2.2013
36347SOL    HW219356   3.258   5.329  10.820  0.5676 -0.2089 -0.0561
36348SOL     OW19357   1.596   7.114   4.139 -0.7107  0.0067  0.0846
36348SOL    HW119358   1.603   7.018   4.138 -1.0141 -0.0255  0.5630
36348SOL    HW219359   1.666   7.142   4.198  0.1426  0.1602 -0.9795
36349SOL     OW19360   4.393   5.107   7.870 -0.4194  0.2541 -0.5069
36349SOL    HW119361   4.362   5.153   7.792  1.3519  0.4712 -1.1158
36349SOL    HW219362   4.362   5.017   7.859  0.1254  0.1906 -1.6599
36350SOL     OW19363   2.626  12.768   7.378 -0.3556  0.1531 -0.0159
36350SOL    HW119364   2.644  12.787   7.470 -0.1859  1.4812 -0.3069
36350SOL    HW219365   2.640  12.851   7.333 -1.0905 -0.3176 -1.1550
36351SOL     OW19366   5.506  10.313   2.627  0.3584 -0.0048  0.1231
36351SOL    HW119367   5.416  10.347   2.625  0.6765  0.8474 -0.1887
36351SOL    HW219368   5.537  10.324   2.537  0.7624 -0.3255  0.2239
36352SOL     OW19369   7.674  11.133  10.364  0.1521  0.4907 -0.3918
36352SOL    HW119370   7.702  11.224  10.358  0.4174  0.5072  0.7875
36352SOL    HW219371   7.579  11.138  10.373  0.3134  0.7880  1.5545
36353SOL     OW19372  10.414   8.262   6.131 -0.0550 -0.0630 -0.0952
36353SOL    HW119373  10.399   8.303   6.046 -2.0249  1.9524  1.1052
36353SOL    HW219374  10.406   8.333   6.194  0.4922 -1.6371  1.8642
36354SOL     OW19375   4.812   4.794  12.022  0.1412 -0.0346 -0.1597
36354SOL    HW119376   4.725   4.783  11.982  0.5685 -0.3925 -1.0100
36354SOL    HW219377   4.803   4.872  12.078 -1.3712 -1.3532  1.5704
36355SOL     OW19378   6.377  12.362   3.730  0.3534 -0.4555  0.1917
36355SOL    HW119379   6.327  12.284   3.756 -0.4794 -0.1695 -0.4715
36355SOL    HW219380   6.385  12.354   3.635  1.6018 -0.4956  0.2934
36356SOL     OW19381   0.936   3.425   3.275  0.1789  0.7006  0.0595
36356SOL    HW119382   0.851   3.460   3.249  0.6893 -0.3459 -3.5342
36356SOL    HW219383   0.933   3.333   3.249  2.1896  0.4761  0.4655
36357SOL     OW19384   5.243  10.280   0.024  0.3763 -0.1422  0.5225
36357SOL    HW119385   5.272  10.314   0.108 -1.0661 -0.8504  1.3366
36357SOL    HW219386   5.286  10.194   0.017  1.4508  0.4141 -0.0537
36358SOL     OW19387   6.679   7.099   9.981  0.9675  0.1747 -0.3112
36358SOL    HW119388   6.624   7.020   9.985  1.8998 -0.4815 -0.1031
36358SOL    HW219389   6.639   7.159  10.044  0.6326 -0.3776  0.0131
36359SOL     OW19390   4.722   4.069   2.352 -0.4613 -0.2864  0.0492
36359SOL    HW119391   4.786   4.108   2.412 -0.0318  1.6853 -1.5727
36359SOL    HW219392   4.642   4.120   2.366 -1.5490 -2.2368  1.5075
36360SOL     OW19393   9.591  12.386   7.983  0.5590 -0.1689 -0.4258
36360SOL    HW119394   9.606  12.470   8.026  0.3872  0.1648 -1.0138
36360SOL    HW219395   9.676  12.362   7.946  1.3760 -1.6198  2.0545
36361SOL     OW19396   0.639   7.793   7.362  1.0794 -0.2658  0.3874
36361SOL    HW119397   0.732   7.771   7.364  0.9704 -0.9311 -0.9916
36361SOL    HW219398   0.594   7.709   7.373  0.6308  0.0530  1.0505
36362SOL     OW19399  11.189  11.920  12.966 -0.4907  0.2724  0.2436
36362SOL    HW119400  11.109  11.879  12.935 -0.3131 -0.6488  0.9590
36362SOL    HW219401  11.178  12.013  12.945 -1.2002 -0.0236 -0.7743
36363SOL     OW19402  10.769   7.220   4.167 -0.1004  0.0266 -0.5374
36363SOL    HW119403  10.718   7.179   4.098 -1.8274  0.7911  0.2432
36363SOL    HW219404  10.708   7.230   4.240  1.3592  0.3269  0.6927
36364SOL     OW19405   0.807   3.936   5.406  0.5379 -0.2620 -0.4050
36364SOL    HW119406   0.857   3.978   5.475  0.2380 -1.3207  0.4845
36364SOL    HW219407   0.853   3.959   5.325  0.6492  1.3379  0.0860
36365SOL     OW19408   7.164   9.623   4.265 -0.0154 -0.1083  0.2145
36365SOL    HW119409   7.256   9.647   4.273  0.5600 -0.9989 -2.7006
36365SOL    HW219410   7.165   9.529   4.245 -1.3056  0.3253 -2.3597
36366SOL     OW19411   9.325   3.532  12.976  0.4133 -0.4473  0.0705
36366SOL    HW119412   9.280   3.483  13.045  1.2726 -2.4207 -0.7007
36366SOL    HW219413   9.258   3.546  12.909 -0.7893  2.5856  1.6808
36367SOL     OW19414   1.370   3.512   6.318  0.1535 -0.1894  0.5010
36367SOL    HW119415   1.298   3.463   6.358  1.1839  0.5951  3.6405
36367SOL    HW219416   1.438   3.447   6.303 -0.4005 -0.5691 -0.4471
36368SOL     OW19417  10.499   4.842   2.675  0.3757  0.3515  0.7057
36368SOL    HW119418  10.494   4.922   2.727  0.3449  0.2067  0.9310
36368SOL    HW219419  10.497   4.871   2.584  0.1221  0.5879  0.7871
36369SOL     OW19420   0.460   7.952  11.399 -0.2371 -0.0362  0.1129
36369SOL    HW119421   0.381   7.959  11.345  0.5408 -2.6139 -1.4893
36369SOL    HW219422   0.528   7.995  11.348  0.0773 -0.7145 -0.0453
36370SOL     OW19423   4.094   8.926   8.231  0.7584  0.5423  0.5815
36370SOL    HW119424   4.083   8.831   8.223 -0.1134  0.7356 -1.0331
36370SOL    HW219425   4.156   8.937   8.303  0.0762 -1.2011  1.5084
36371SOL     OW19426  11.903   1.752   9.910  0.0805  0.3192  0.3264
36371SOL    HW119427  11.857   1.708   9.982 -0.3898  0.2017 -0.0385
36371SOL    HW219428  11.888   1.696   9.834 -0.0687  0.8233 -0.0265
36372SOL     OW19429   5.584   8.798  10.297 -0.6445 -0.2011  0.2836
36372SOL    HW119430   5.608   8.712  10.331 -1.3796 -0.7172 -0.4442
36372SOL    HW219431   5.660   8.853  10.314  0.1782 -1.2169 -0.0137
36373SOL     OW19432   2.299   4.558   2.131 -0.0191  0.0251  0.4892
36373SOL    HW119433   2.218   4.609   2.127 -0.8326 -1.2956 -0.5306
36373SOL    HW219434   2.331   4.555   2.041 -0.6884 -2.2792  0.2544
36374SOL     OW19435   7.141   8.444   7.215 -0.3481  0.1798  0.2319
36374SOL    HW119436   7.106   8.465   7.301  0.5376  0.7501  0.4607
36374SOL    HW219437   7.077   8.382   7.178 -0.5809 -0.3223  1.4159
36375SOL     OW19438  11.341   1.051   1.482  0.8004 -0.3145  1.1866
36375SOL    HW119439  11.260   1.007   1.510  0.3100 -0.7956 -0.8114
36375SOL    HW219440  11.394   0.982   1.444  0.3008  0.5991 -1.4041
36376SOL     OW19441   5.954   2.991   0.019 -0.1783  0.1402 -0.2292
36376SOL    HW119442   5.885   3.054   0.041 -1.0294 -0.7882 -0.1924
36376SOL    HW219443   5.939   2.917   0.077  0.4061 -0.3799 -0.7264
36377SOL     OW19444   9.183   2.791   1.140 -1.4192 -0.1290 -0.1071
36377SOL    HW119445   9.238   2.754   1.209 -1.9818  0.0928  0.4658
36377SOL    HW219446   9.234   2.777   1.060 -1.8391 -2.6157 -0.0212
36378SOL     OW19447  10.586   3.801   8.532  0.3842  0.4019  0.7503
36378SOL    HW119448  10.679   3.784   8.547  0.8628  0.4119 -1.7609
36378SOL    HW219449  10.575   3.894   8.551  0.8886  0.4142  1.0169
36379SOL     OW19450  10.403  12.013  11.672  0.2070 -0.1586  0.4124
36379SOL    HW119451  10.319  11.994  11.630  0.0692  1.2574 -0.0135
36379SOL    HW219452  10.380  12.042  11.760  0.4326 -2.1045  1.1562
36380SOL     OW19453   4.520   9.996   0.749  0.5590  0.2020 -0.1259
36380SOL    HW119454   4.479  10.018   0.832  0.4834 -0.0074 -0.1077
36380SOL    HW219455   4.585   9.929   0.771 -0.4252 -0.9031 -0.4293
36381SOL     OW19456  12.112   3.607  11.748 -0.0085  0.6430 -0.0510
36381SOL    HW119457  12.024   3.643  11.741 -0.3659  0.0679  1.2236
36381SOL    HW219458  12.123   3.588  11.841  0.2667 -2.2129 -0.5715
36382SOL     OW19459  11.587  10.261  11.572  0.8653  0.2333  0.6640
36382SOL    HW119460  11.656  10.219  11.622  1.3225  1.2191  0.8873
36382SOL    HW219461  11.514  10.199  11.574  1.6736 -0.7456  0.5707
36383SOL     OW19462   3.888   6.916   1.686 -0.5533  0.6642  0.4920
36383SOL    HW119463   3.826   6.966   1.738 -0.6295  2.1937 -0.9651
36383SOL    HW219464   3.834   6.865   1.626 -0.4489  1.3122 -0.1718
36384SOL     OW19465   2.867   5.976   3.150 -0.4260  0.3262  0.4080
36384SOL    HW119466   2.959   5.952   3.139 -0.4481  0.0587  0.7820
36384SOL    HW219467   2.829   5.903   3.199 -1.4532 -0.8819 -1.9589
36385SOL     OW19468  11.987   8.370   3.489 -0.5320 -0.5647 -0.4600
36385SOL    HW119469  12.038   8.450   3.506 -1.0651  0.0131 -1.5011
36385SOL    HW219470  12.048   8.312   3.444 -0.3136 -0.5373 -0.2090
36386SOL     OW19471   8.878  11.339   9.262 -0.6104  0.1149 -0.3228
36386SOL    HW119472   8.900  11.254   9.300 -0.3864 -0.0345 -0.7819
36386SOL    HW219473   8.881  11.324   9.168  3.2031  1.5054 -0.6014
36387SOL     OW19474   4.300  11.325  12.438 -0.0446  0.3233 -0.3489
36387SOL    HW119475   4.239  11.379  12.387 -0.1548  0.0697 -0.4900
36387SOL    HW219476   4.262  11.322  12.526  0.2792  0.9748 -0.1806
36388SOL     OW19477  12.604   4.700  10.626 -0.1726  0.8751  0.2952
36388SOL    HW119478  12.543   4.667  10.561 -0.4707  0.9617  0.5309
36388SOL    HW219479  12.686   4.655  10.607 -0.7926 -0.6977  1.1835
36389SOL     OW19480   1.431  12.027   6.539  0.2936  0.1590 -0.6950
36389SOL    HW119481   1.503  11.998   6.595 -0.4281 -0.4681 -0.0698
36389SOL    HW219482   1.430  12.123   6.548 -1.2888 -0.0175  2.3043
36390SOL     OW19483  11.207  11.495   0.447 -0.1556 -0.2181 -0.5722
36390SOL    HW119484  11.228  11.453   0.364 -1.1973 -0.1004 -0.9073
36390SOL    HW219485  11.191  11.423   0.508  0.6069 -0.3037 -0.4651
36391SOL     OW19486   8.494  10.803   5.127 -0.2955  0.1184 -0.1654
36391SOL    HW119487   8.498  10.814   5.222  0.1085 -0.7830 -0.0743
36391SOL    HW219488   8.400  10.807   5.107 -0.4970 -1.1115  0.4522
36392SOL     OW19489  10.964   5.416   4.892 -0.1749 -0.5022 -0.0916
36392SOL    HW119490  10.887   5.360   4.877 -1.0024  0.8042 -0.8541
36392SOL    HW219491  11.025   5.391   4.823 -0.8151 -0.0080 -0.8502
36393SOL     OW19492   4.826  12.022   8.890  0.1850 -0.1678 -0.7834
36393SOL    HW119493   4.763  12.018   8.962  0.1615  1.6760 -0.6601
36393SOL    HW219494   4.876  12.102   8.905  0.6358 -0.0948 -2.4364
36394SOL     OW19495   0.581  11.379   7.039 -0.1551 -0.3184  0.8964
36394SOL    HW119496   0.573  11.414   6.950  4.9177  0.0034  0.2588
36394SOL    HW219497   0.545  11.448   7.095  1.6939  2.1630 -0.7610
36395SOL     OW19498   5.752   0.079   7.689  0.1859  0.0150 -0.1391
36395SOL    HW119499   5.838   0.088   7.648  0.1217  2.7171  0.1340
36395SOL    HW219500   5.691   0.113   7.625 -1.0635 -3.5891 -1.1081
36396SOL     OW19501   1.704   6.756   5.470  0.4592  0.5061  0.7819
36396SOL    HW119502   1.729   6.704   5.546  1.5477  0.2029  0.2429
36396SOL    HW219503   1.610   6.740   5.460  0.1736  0.9924  2.3706
36397SOL     OW19504   2.170   3.446  10.972 -0.3162 -0.1548 -0.4027
36397SOL    HW119505   2.185   3.392  11.050 -0.2824  1.4074  0.7226
36397SOL    HW219506   2.110   3.515  11.002  1.3330  1.7149 -1.1431
36398SOL     OW19507   3.919  10.616   1.704 -0.0692 -0.1592 -0.4253
36398SOL    HW119508   3.889  10.650   1.788 -2.8244 -0.9639 -1.0058
36398SOL    HW219509   3.920  10.521   1.714  0.4560 -0.2333 -1.0463
36399SOL     OW19510   9.397   6.586   6.772  0.0333 -0.0155  0.7123
36399SOL    HW119511   9.477   6.585   6.825 -0.1618 -1.6960  1.0190
36399SOL    HW219512   9.427   6.565   6.684  0.0780  0.6205  0.5705
36400SOL     OW19513   4.362   6.890  10.649  0.2474 -0.5017  0.3797
36400SOL    HW119514   4.331   6.827  10.583 -1.0149 -0.6888  1.1278
36400SOL    HW219515   4.312   6.969  10.632  1.0889 -0.0134  0.1056
36401SOL     OW19516   6.377   3.943   5.877  0.4682  0.5054 -0.1037
36401SOL    HW119517   6.404   4.030   5.849  0.5343  0.9113  1.1331
36401SOL    HW219518   6.288   3.954   5.909  0.8261  0.3684  1.0188
36402SOL     OW19519   8.675  10.636   6.717  0.5468  0.3778 -0.1098
36402SOL    HW119520   8.669  10.603   6.628 -0.2838  0.8286 -0.2337
36402SOL    HW219521   8.765  10.667   6.725  0.8858 -0.4903 -0.4880
36403SOL     OW19522   0.454   3.426  10.262 -0.4930 -0.7883  0.0868
36403SOL    HW119523   0.363   3.419  10.293  0.2652 -1.2027  2.4987
36403SOL    HW219524   0.467   3.348  10.208 -1.9087 -0.0511 -1.4016
36404SOL     OW19525   2.617   1.465   9.339  0.6350  0.5163 -0.0946
36404SOL    HW119526   2.590   1.401   9.273  2.1449 -0.2852  0.0242
36404SOL    HW219527   2.634   1.545   9.290  3.0417 -0.4314 -0.9563
36405SOL     OW19528   7.196   0.969   3.599 -0.0807  0.0637  0.4551
36405SOL    HW119529   7.126   1.003   3.654  0.5909 -0.4375  1.6852
36405SOL    HW219530   7.232   1.045   3.555  0.2192  0.7009  1.7517
36406SOL     OW19531   0.870   9.266   3.137  0.0756  0.0660  0.0206
36406SOL    HW119532   0.775   9.255   3.140 -0.1058  1.3610 -0.4050
36406SOL    HW219533   0.895   9.230   3.052 -0.0296 -0.1976  0.0971
36407SOL     OW19534  11.307  11.370  10.461 -0.0099 -0.2775 -0.0387
36407SOL    HW119535  11.230  11.402  10.415  0.1328  1.5300  0.8735
36407SOL    HW219536  11.369  11.347  10.392 -0.9099 -0.5991 -0.7565
36408SOL     OW19537  10.096   4.721  12.764  0.4667  0.1238  0.0004
36408SOL    HW119538  10.009   4.730  12.726 -0.1478 -1.0317  1.0645
36408SOL    HW219539  10.081   4.717  12.858  1.5987 -0.8151  0.1649
36409SOL     OW19540   4.120   4.064   8.472  0.8303  0.4769  0.6164
36409SOL    HW119541   4.056   4.057   8.402  1.8724 -1.8994 -0.2073
36409SOL    HW219542   4.067   4.077   8.551 -0.4633  1.3695 -0.3483
36410SOL     OW19543   8.015   8.722   3.932 -0.1410  0.4855  0.3399
36410SOL    HW119544   8.084   8.783   3.959  0.4994  0.6623 -1.5901
36410SOL    HW219545   7.953   8.776   3.883 -0.9783  0.0576  0.8875
36411SOL     OW19546   5.585   7.236   6.707  0.0803  0.1594  0.2332
36411SOL    HW119547   5.610   7.170   6.643 -1.1908  0.1980 -0.3317
36411SOL    HW219548   5.646   7.308   6.693  1.5891 -0.9099  0.9638
36412SOL     OW19549  12.599  10.853   9.910  0.4863 -0.3142 -0.2508
36412SOL    HW119550  12.504  10.839   9.907  0.3294  0.7200 -0.5803
36412SOL    HW219551  12.632  10.804   9.834 -0.0391  0.9838 -1.3736
36413SOL     OW19552   4.047  11.893   1.490 -0.1218 -0.1568  0.0103
36413SOL    HW119553   4.093  11.951   1.430  1.8628  0.2923  1.8390
36413SOL    HW219554   3.957  11.926   1.491  0.6560  2.1401  0.0524
36414SOL     OW19555   3.841   3.689   5.216 -0.3742 -0.4102  0.2762
36414SOL    HW119556   3.822   3.707   5.124 -0.8692 -0.8755  0.2878
36414SOL    HW219557   3.767   3.637   5.247 -0.2192 -0.2442  0.9434
36415SOL     OW19558   5.266  11.181  11.435  0.4957  0.7988  0.2209
36415SOL    HW119559   5.233  11.104  11.388  0.3315  0.3427  1.0677
36415SOL    HW219560   5.358  11.161  11.453  0.1967  0.3629  1.3082
36416SOL     OW19561  10.888   7.217   6.414  1.3379 -0.1485  0.0965
36416SOL    HW119562  10.827   7.257   6.352  0.8244 -0.6453  0.2629
36416SOL    HW219563  10.939   7.290   6.448 -0.3717  0.5799  1.2828
36417SOL     OW19564  10.923  10.414   6.029  0.3064 -0.4091 -0.4255
36417SOL    HW119565  10.857  10.421   6.098  0.5825 -1.4976 -0.0316
36417SOL    HW219566  10.961  10.326   6.041  0.3646 -0.6107 -1.9585
36418SOL     OW19567  10.402   2.482   7.439 -0.6464 -0.0094  0.0262
36418SOL    HW119568  10.396   2.440   7.525  1.7711  0.5751  0.5604
36418SOL    HW219569  10.403   2.576   7.458  0.7485  0.1079 -0.5513
36419SOL     OW19570   5.093  10.696   9.571 -0.1597 -0.2827  0.1327
36419SOL    HW119571   5.136  10.747   9.640 -0.6337 -0.2885  0.4388
36419SOL    HW219572   5.011  10.666   9.611  1.2049 -3.4788  0.9014
36420SOL     OW19573   5.041  11.631   1.458  0.3161 -0.1144 -0.1240
36420SOL    HW119574   5.038  11.542   1.493 -0.8670 -0.5216 -1.1694
36420SOL    HW219575   5.101  11.625   1.383 -0.6067 -0.3004 -0.8587
36421SOL     OW19576   3.622   7.867   4.255  0.1742  0.0625 -0.3460
36421SOL    HW119577   3.652   7.779   4.278 -0.8661 -0.2397 -0.0780
36421SOL    HW219578   3.641   7.876   4.162  1.3426  0.0007 -0.1180
36422SOL     OW19579   5.389   3.309   8.877  0.2115  0.3863 -0.4528
36422SOL    HW119580   5.435   3.233   8.913  0.6069  0.9109  0.1521
36422SOL    HW219581   5.447   3.341   8.808  0.1502  0.2747 -0.5561
36423SOL     OW19582   5.881   0.028  11.895 -0.3573  0.1094 -0.0463
36423SOL    HW119583   5.817   0.099  11.901 -0.0677  0.3713 -0.0115
36423SOL    HW219584   5.877  -0.000  11.804  0.2360  0.8475 -0.3119
36424SOL     OW19585   4.146   7.134  12.290 -0.2375 -0.0989  0.1246
36424SOL    HW119586   4.153   7.156  12.197 -1.4435  2.4551  0.5599
36424SOL    HW219587   4.052   7.133  12.307 -0.0093 -0.0020  1.4290
36425SOL     OW19588   2.039  11.890   0.119  0.2944  0.2289 -0.0372
36425SOL    HW119589   2.099  11.941   0.064  0.0684 -0.7278 -1.2218
36425SOL    HW219590   1.956  11.892   0.072  0.2022 -0.9520  0.0271
36426SOL     OW19591   5.782   4.497   5.638  0.0557  0.1693  0.2079
36426SOL    HW119592   5.782   4.588   5.609 -0.1157 -0.2205 -1.0562
36426SOL    HW219593   5.702   4.488   5.690  0.1441  0.7643  0.4566
36427SOL     OW19594   7.138   8.896   6.684 -0.4395  0.3282 -0.0409
36427SOL    HW119595   7.206   8.845   6.728 -2.7140 -2.6053  0.3345
36427SOL    HW219596   7.155   8.986   6.712  2.9869 -0.2748  0.3132
36428SOL     OW19597   1.175   8.884   9.457 -0.2691 -0.1322 -0.3507
36428SOL    HW119598   1.191   8.806   9.510  0.5489 -2.1796 -3.3519
36428SOL    HW219599   1.096   8.864   9.407 -0.6462  1.4408 -0.4470
36429SOL     OW19600  12.566  11.747   4.976 -0.1722 -0.6975 -0.0085
36429SOL    HW119601  12.610  11.819   4.931 -0.6205 -0.3872  0.0493
36429SOL    HW219602  12.525  11.787   5.052  1.5912 -1.4100  1.3912
36430SOL     OW19603   2.697  10.346   9.381 -0.1421  0.4868  0.1136
36430SOL    HW119604   2.632  10.377   9.318  0.3829 -0.8773 -1.1736
36430SOL    HW219605   2.698  10.251   9.370  1.7435  0.4225  0.4089
36431SOL     OW19606  10.471   1.725  11.736  0.2398  0.1067  0.1798
36431SOL    HW119607  10.493   1.634  11.717  0.2118  0.2532 -0.5591
36431SOL    HW219608  10.423   1.755  11.659  0.6902  0.8998  0.1969
36432SOL     OW19609   1.183   3.717   8.072  0.5248 -0.4093 -0.2213
36432SOL    HW119610   1.235   3.694   8.148  3.2552 -0.9809 -2.1192
36432SOL    HW219611   1.195   3.812   8.063  1.5336 -0.5764 -0.8012
36433SOL     OW19612  10.621   0.536   3.730 -0.6135 -0.4257 -0.3617
36433SOL    HW119613  10.682   0.601   3.694  0.2881 -0.3128  1.2748
36433SOL    HW219614  10.600   0.570   3.817 -0.2664 -2.2183  0.4619
36434SOL     OW19615   6.473  10.483   4.456 -0.3054  0.5194 -0.4062
36434SOL    HW119616   6.506  10.551   4.398 -0.4208 -0.5516 -1.7848
36434SOL    HW219617   6.387  10.515   4.484 -0.9939  0.3380 -2.1888
36435SOL     OW19618   1.858   7.198   8.826 -0.7763  0.8631  0.3332
36435SOL    HW119619   1.841   7.140   8.899  2.1657 -1.7902 -0.8412
36435SOL    HW219620   1.944   7.236   8.845 -0.5747  1.1759 -1.0662
36436SOL     OW19621   0.249  10.753   3.009 -0.4077 -0.5795  0.5055
36436SOL    HW119622   0.333  10.800   3.008  0.2091 -1.6134  1.0204
36436SOL    HW219623   0.219  10.762   3.100 -0.8814 -0.1925  0.3157
36437SOL     OW19624  10.461  11.699   3.900 -0.1624 -0.0196  0.7216
36437SOL    HW119625  10.437  11.663   3.985  0.9360 -0.0420  1.0359
36437SOL    HW219626  10.533  11.644   3.870 -0.4677  0.0512 -0.1852
36438SOL     OW19627   8.131   5.107   5.972 -0.2139 -0.0908  0.0323
36438SOL    HW119628   8.221   5.127   5.997  0.0833 -0.3839 -0.7704
36438SOL    HW219629   8.122   5.143   5.884  0.4853 -3.6942 -1.6821
36439SOL     OW19630  11.920   0.008   5.122  0.4490 -0.3490 -0.6500
36439SOL    HW119631  11.971   0.002   5.042 -0.1855 -1.1643 -0.9963
36439SOL    HW219632  11.834  -0.027   5.100  0.5313 -1.4378  0.6092
36440SOL     OW19633   2.805   0.363   8.117 -0.3396 -0.4730  0.4697
36440SOL    HW119634   2.816   0.419   8.040 -2.2765  1.3051  1.3683
36440SOL    HW219635   2.741   0.297   8.091 -0.4985 -0.2712  0.3448
36441SOL     OW19636   1.705   3.660   5.032 -0.7499 -0.5820 -0.0967
36441SOL    HW119637   1.649   3.637   5.106  0.0359 -1.2211  0.3201
36441SOL    HW219638   1.721   3.577   4.987 -0.9247 -0.2522 -0.7760
36442SOL     OW19639   3.914   1.681   0.676 -0.2109  0.6908 -0.1737
36442SOL    HW119640   3.991   1.623   0.673 -1.1085 -0.5205 -0.4062
36442SOL    HW219641   3.866   1.653   0.754 -0.1952  1.7657  0.2440
36443SOL     OW19642   6.272  11.544   1.647  0.2329  0.0064  0.8309
36443SOL    HW119643   6.310  11.458   1.628 -1.9150 -1.0218  0.8127
36443SOL    HW219644   6.308  11.568   1.732  0.2750 -1.3010  1.2065
36444SOL     OW19645   3.790   4.154   2.779  0.1968 -0.0019  0.6214
36444SOL    HW119646   3.713   4.123   2.732  0.9742 -2.0457  0.6344
36444SOL    HW219647   3.758   4.172   2.868 -0.3538 -0.3786  0.4999
36445SOL     OW19648   6.650   7.553   1.505 -0.3501  0.0400  0.1501
36445SOL    HW119649   6.584   7.583   1.567 -0.1868 -2.1634  1.5134
36445SOL    HW219650   6.605   7.488   1.452 -0.0509  0.7404 -0.9780
36446SOL     OW19651   8.670  12.252   4.148  0.1039 -0.4993 -0.0573
36446SOL    HW119652   8.591  12.279   4.196  0.0023 -1.0926  0.1113
36446SOL    HW219653   8.674  12.158   4.160 -0.6854 -0.8881 -2.3233
36447SOL     OW19654   9.122  12.719  10.924 -0.3956 -0.2713 -0.4325
36447SOL    HW119655   9.118  12.757  10.836  1.7728 -0.7063 -0.7605
36447SOL    HW219656   9.209  12.679  10.930  0.0865  0.9316  2.4002
36448SOL     OW19657   1.585  11.832   6.683 -0.4581 -1.0247  0.2458
36448SOL    HW119658   1.660  11.854   6.738 -0.1569 -1.4167 -0.0054
36448SOL    HW219659   1.602  11.742   6.654 -0.7888 -0.9486 -0.1929
36449SOL     OW19660   3.067   7.401   9.123 -0.0636  0.0386  0.0823
36449SOL    HW119661   3.012   7.330   9.157  0.0947 -0.2418 -0.2353
36449SOL    HW219662   3.037   7.414   9.033 -0.2430  0.5348  0.2096
36450SOL     OW19663   0.845  11.704   3.723  0.8615 -0.2978 -0.4328
36450SOL    HW119664   0.856  11.643   3.796  0.4251  0.3602  0.1934
36450SOL    HW219665   0.789  11.774   3.757 -0.3866 -0.5936 -1.7689
36451SOL     OW19666  10.050  12.117   7.378  0.0407  0.3028 -0.9787
36451SOL    HW119667   9.991  12.046   7.354  0.0253  0.0924 -0.3547
36451SOL    HW219668  10.107  12.079   7.446  0.6562  0.6082 -1.3174
36452SOL     OW19669   8.269  11.571   0.604 -0.0483  0.0710  0.1858
36452SOL    HW119670   8.201  11.613   0.655 -0.8221  0.1510 -0.8703
36452SOL    HW219671   8.279  11.627   0.527  1.6291  0.3801  0.5789
36453SOL     OW19672  11.518   0.523   6.859 -0.3500  0.4279 -0.4815
36453SOL    HW119673  11.491   0.450   6.914 -0.3272  0.5696 -0.2826
36453SOL    HW219674  11.474   0.600   6.897  0.8527  0.7721  0.2536
36454SOL     OW19675  12.752   0.522  10.932 -0.4909  0.0821 -0.1758
36454SOL    HW119676  12.740   0.457  11.001  0.6199 -0.3997 -0.4185
36454SOL    HW219677  12.664   0.537  10.897 -1.0644  0.2678  1.2648
36455SOL     OW19678   8.869   3.565   7.887 -0.8390  0.0719 -0.2297
36455SOL    HW119679   8.823   3.487   7.855  0.3427 -1.0226  0.6620
36455SOL    HW219680   8.858   3.629   7.817 -2.2878 -0.7016 -0.7612
36456SOL     OW19681   2.512   6.994   9.974 -0.0581  0.0984  0.6911
36456SOL    HW119682   2.566   7.057  10.021 -0.6118  1.5386 -0.5279
36456SOL    HW219683   2.524   6.912  10.022  1.5167  0.8631  1.6974
36457SOL     OW19684  11.834   9.178   2.509  0.0898 -0.4344  0.1534
36457SOL    HW119685  11.795   9.173   2.596 -2.1178 -1.1039 -0.8080
36457SOL    HW219686  11.806   9.263   2.475  0.9604 -0.1676  0.0860
36458SOL     OW19687   5.577   1.435   0.573 -0.0502  0.0936 -0.8918
36458SOL    HW119688   5.575   1.531   0.566  0.7159  0.2973  1.0170
36458SOL    HW219689   5.505   1.414   0.633  1.7791 -0.1419  1.3894
36459SOL     OW19690   1.541   2.979   9.642  0.1934  0.2701 -0.1012
36459SOL    HW119691   1.490   3.060   9.643 -1.8367 -0.9316  0.9971
36459SOL    HW219692   1.559   2.961   9.734 -1.6618 -1.8157 -0.0703
36460SOL     OW19693   8.634  11.683  10.473  0.1271  0.0539 -0.3937
36460SOL    HW119694   8.620  11.592  10.449 -1.4479  0.6078 -1.7390
36460SOL    HW219695   8.547  11.717  10.492  0.7821  1.0663  1.0313
36461SOL     OW19696   5.036   2.597   9.756 -0.6830  0.3158  0.2393
36461SOL    HW119697   5.047   2.689   9.729 -0.6383 -0.0671 -1.1099
36461SOL    HW219698   4.953   2.571   9.718  0.7270 -1.0967 -2.1323
36462SOL     OW19699   0.254   3.987  11.951  0.4217 -0.1246  0.3360
36462SOL    HW119700   0.333   3.934  11.936  0.3830 -0.4311  1.1522
36462SOL    HW219701   0.192   3.957  11.886  0.7983 -0.2594  0.0347
36463SOL     OW19702  12.219   9.775   0.175  0.5543  0.3099  0.4156
36463SOL    HW119703  12.243   9.747   0.087  0.7760 -0.0567  0.5891
36463SOL    HW219704  12.147   9.716   0.200  0.6889  0.2179  0.5902
36464SOL     OW19705   5.618   2.893  12.936  0.6260  0.0711 -0.0316
36464SOL    HW119706   5.533   2.891  12.979 -0.5257  0.6364 -2.1800
36464SOL    HW219707   5.657   2.976  12.966 -0.0753  0.3678  0.0854
36465SOL     OW19708   1.545   0.083   2.446  0.2397  0.4180 -0.1884
36465SOL    HW119709   1.575   0.033   2.369  0.6680  0.1430  0.1548
36465SOL    HW219710   1.625   0.107   2.492  0.0352  1.5075 -0.3936
36466SOL     OW19711   2.955   4.951   9.797 -0.0839 -0.3568 -0.5313
36466SOL    HW119712   2.996   4.957   9.883 -1.9084 -1.4926  0.4754
36466SOL    HW219713   2.964   5.039   9.760  2.5358 -0.3564 -0.0896
36467SOL     OW19714   6.467   2.406   1.937  0.3115  0.2536  0.2889
36467SOL    HW119715   6.413   2.358   1.874  1.4552 -0.7394  0.0264
36467SOL    HW219716   6.442   2.498   1.924 -0.6455 -0.0825 -0.4509
36468SOL     OW19717   4.809   7.585  10.610  0.3809  0.1565  0.1026
36468SOL    HW119718   4.781   7.657  10.668  0.3102  1.2151 -1.2021
36468SOL    HW219719   4.781   7.506  10.655 -1.4975  1.0331  0.5574
36469SOL     OW19720   3.023   2.996  10.968 -0.3149  0.3077  0.6347
36469SOL    HW119721   3.066   3.079  10.947  0.2430 -0.2384 -0.4354
36469SOL    HW219722   3.089   2.929  10.949 -1.7900 -0.6093 -1.6486
36470SOL     OW19723   5.497   2.468  11.372  0.1294 -0.1923  0.8780
36470SOL    HW119724   5.507   2.538  11.306  2.0482 -1.3084 -0.1116
36470SOL    HW219725   5.545   2.500  11.448  1.9596 -0.8277  0.0435
36471SOL     OW19726  12.524   7.732   6.798 -0.6674 -0.5332  0.2917
36471SOL    HW119727  12.503   7.671   6.728 -0.2608 -1.2499  0.7823
36471SOL    HW219728  12.581   7.797   6.757 -2.3445  0.4370 -0.6218
36472SOL     OW19729   7.647  11.803   3.974 -0.1160  0.1483  0.0809
36472SOL    HW119730   7.583  11.784   4.043 -0.7800  0.0874 -0.5458
36472SOL    HW219731   7.633  11.736   3.908  1.0527 -0.2693  0.2251
36473SOL     OW19732   9.422   8.190  12.873 -0.3253  0.5241 -0.0756
36473SOL    HW119733   9.445   8.280  12.894 -0.1092  0.2641  0.8610
36473SOL    HW219734   9.505   8.142  12.877 -0.4632  0.2572 -0.3931
36474SOL     OW19735  11.881   2.456   6.311 -0.0459 -0.1960  0.7078
36474SOL    HW119736  11.836   2.428   6.231 -0.7289  0.5290  0.8250
36474SOL    HW219737  11.850   2.545   6.326  2.3875  0.8581  0.0926
36475SOL     OW19738   5.102   1.708   3.492  0.0214 -0.2713 -0.4413
36475SOL    HW119739   5.031   1.695   3.555  0.3258  0.0043 -0.0344
36475SOL    HW219740   5.087   1.795   3.455  0.6166  0.1384  0.2638
36476SOL     OW19741   3.038   8.139  12.606 -0.5586 -1.2609  0.1992
36476SOL    HW119742   3.052   8.168  12.696 -0.6986 -0.8419  0.0870
36476SOL    HW219743   3.093   8.061  12.597 -1.8705 -2.3375  1.1760
36477SOL     OW19744   9.400   3.400   9.778  0.4707  0.3804 -0.0547
36477SOL    HW119745   9.444   3.316   9.760  1.3580  0.5033  1.3725
36477SOL    HW219746   9.369   3.391   9.868  2.2830  2.2709  0.8306
36478SOL     OW19747   9.243   2.126  11.825 -0.5793 -0.1815 -0.6624
36478SOL    HW119748   9.285   2.075  11.896 -0.6262 -1.0831 -1.2626
36478SOL    HW219749   9.315   2.145  11.765 -0.2876  1.6772  0.2119
36479SOL     OW19750   4.305   1.586   5.306  0.0586  0.3625 -0.5193
36479SOL    HW119751   4.335   1.513   5.360  0.6686  0.3463 -0.8660
36479SOL    HW219752   4.308   1.662   5.364  2.6381  0.7259 -1.0255
36480SOL     OW19753   0.570   2.555  10.787 -0.4808 -0.4397  0.1280
36480SOL    HW119754   0.484   2.557  10.744  0.2482 -0.4203 -1.3849
36480SOL    HW219755   0.577   2.640  10.829 -0.9462 -0.1991 -0.2662
36481SOL     OW19756   1.646   1.980  11.283 -0.3151 -0.3492  0.2438
36481SOL    HW119757   1.631   2.015  11.370  3.0969 -0.3566  0.9683
36481SOL    HW219758   1.712   2.038  11.245 -1.4969 -0.5107 -2.2779
36482SOL     OW19759   8.474   5.199   2.086 -0.6295 -0.1655  0.2019
36482SOL    HW119760   8.431   5.206   2.172 -1.2029  2.0794 -0.1971
36482SOL    HW219761   8.568   5.196   2.106 -0.6818  1.7634  0.8999
36483SOL     OW19762   5.072   7.270   9.906 -0.3233 -0.4016 -0.2930
36483SOL    HW119763   5.168   7.264   9.905 -0.1400  1.8184  0.2732
36483SOL    HW219764   5.046   7.247   9.816  0.6743 -1.4165 -0.3523
36484SOL     OW19765   3.163  10.079   8.984  0.7686 -0.3388  0.5390
36484SOL    HW119766   3.218  10.058   8.908  0.2991 -1.1041  0.3954
36484SOL    HW219767   3.199  10.025   9.055 -0.9886 -2.4168 -0.0479
36485SOL     OW19768   7.864  11.307   3.708  0.0858  0.7559  0.2733
36485SOL    HW119769   7.892  11.335   3.621  1.4648  1.0198  0.7765
36485SOL    HW219770   7.929  11.345   3.768 -1.1121  1.0119  1.4780
36486SOL     OW19771   3.682   0.951  11.531  0.0169 -0.3544  0.4167
36486SOL    HW119772   3.641   0.874  11.570 -0.5948  0.3229  1.1274
36486SOL    HW219773   3.750   0.977  11.593  0.5234 -0.5771 -0.0350
36487SOL     OW19774   7.495  11.913   0.146 -0.2855 -0.3637  0.3292
36487SOL    HW119775   7.466  11.905   0.056  0.3179 -0.0920  0.1051
36487SOL    HW219776   7.436  11.977   0.186  1.4499  2.0645 -0.7743
36488SOL     OW19777  12.153  10.967   3.667 -0.4904 -0.1090  0.0910
36488SOL    HW119778  12.130  11.036   3.728 -0.1562 -0.3764  0.5262
36488SOL    HW219779  12.231  10.926   3.705 -0.4557 -0.4694 -0.3593
36489SOL     OW19780   1.916   7.565   0.721  0.3797  0.1078  0.1757
36489SOL    HW119781   1.863   7.486   0.730  0.4666 -0.0746 -0.7508
36489SOL    HW219782   1.852   7.633   0.695  0.5148 -0.0032 -0.4698
36490SOL     OW19783   6.025   0.870   2.360  0.4558 -0.2054  0.4086
36490SOL    HW119784   5.965   0.922   2.413  1.4985  0.8358  0.5978
36490SOL    HW219785   5.972   0.840   2.286  0.0444  1.8580 -0.1705
36491SOL     OW19786  11.425   5.630   0.697  0.5326 -0.2091 -0.0495
36491SOL    HW119787  11.412   5.685   0.774  1.2187  0.1427 -0.1775
36491SOL    HW219788  11.389   5.681   0.624  2.9628  1.0177 -0.4946
36492SOL     OW19789   6.540  12.254   7.907  0.2593 -0.0553 -0.0805
36492SOL    HW119790   6.612  12.303   7.948  0.3145 -1.1705  1.2199
36492SOL    HW219791   6.544  12.167   7.947 -1.5533 -0.2715 -0.2821
36493SOL     OW19792   4.044   0.748   9.773 -0.4998  0.6052  0.0638
36493SOL    HW119793   3.968   0.691   9.785  0.1069 -0.1179  0.4889
36493SOL    HW219794   4.107   0.695   9.725  0.5174  0.5112  1.4562
36494SOL     OW19795   7.261  12.558  10.873 -0.2102 -0.1159  0.6144
36494SOL    HW119796   7.243  12.648  10.902 -1.2344 -0.2090  0.3265
36494SOL    HW219797   7.204  12.504  10.927  0.2258 -0.5776  0.6161
36495SOL     OW19798   7.622   6.996   2.545 -0.8514  0.2061  0.1316
36495SOL    HW119799   7.529   6.983   2.526 -0.8159  0.8398 -0.5041
36495SOL    HW219800   7.660   6.908   2.540 -1.3611 -0.0139  0.0795
36496SOL     OW19801   1.147  10.135   4.194  0.2248  0.0908 -0.3304
36496SOL    HW119802   1.084  10.100   4.256  0.7091  0.0933  0.1744
36496SOL    HW219803   1.151  10.229   4.213 -0.1058  0.2077 -0.8080
36497SOL     OW19804  11.208   9.160   5.031 -0.3407  0.1681  0.5125
36497SOL    HW119805  11.201   9.123   4.943 -2.1028  0.7228  0.3792
36497SOL    HW219806  11.159   9.242   5.026  1.0600  1.1176  1.5577
36498SOL     OW19807  11.251   0.359  12.950 -0.2058 -0.1381  0.4829
36498SOL    HW119808  11.288   0.271  12.950 -1.9597 -0.9732 -1.3237
36498SOL    HW219809  11.302   0.406  12.884 -0.2055 -0.2813  0.3784
36499SOL     OW19810   5.557   0.054   3.130 -0.3314  0.5940  0.1696
36499SOL    HW119811   5.591   0.108   3.201 -1.1047  0.7713  0.4231
36499SOL    HW219812   5.624  -0.012   3.115  1.0702  2.1827 -0.8066
36500SOL     OW19813   9.043   0.354   1.283  0.5735 -0.1311 -0.2568
36500SOL    HW119814   9.088   0.302   1.216  1.5941  1.1669 -0.6332
36500SOL    HW219815   8.964   0.386   1.239  0.7295 -0.1029 -0.5193
36501SOL     OW19816   1.733   7.934   5.226 -0.3435  0.2191  0.4867
36501SOL    HW119817   1.752   7.875   5.154 -0.7327  1.6093 -0.8178
36501SOL    HW219818   1.782   8.014   5.206 -2.0096  1.3587  0.6847
36502SOL     OW19819  12.781   7.215   6.955 -0.5434 -0.3137  0.4027
36502SOL    HW119820  12.715   7.162   6.998  0.2940 -2.1905 -0.5273
36502SOL    HW219821  12.833   7.251   7.027 -1.1216 -0.7512  1.0478
36503SOL     OW19822   5.550   3.784   0.989  0.2744 -0.4164  0.0478
36503SOL    HW119823   5.472   3.780   0.934  0.5167 -0.0287 -0.3314
36503SOL    HW219824   5.613   3.727   0.946  0.3398 -0.4069  0.1309
36504SOL     OW19825   4.555   6.119   6.129 -0.3024  0.1738 -0.0619
36504SOL    HW119826   4.483   6.076   6.175 -1.0936  0.6956 -0.7640
36504SOL    HW219827   4.515   6.154   6.050  0.4827  1.4402  0.0582
36505SOL     OW19828   3.668   9.931   3.778 -0.1300  0.1094  0.0546
36505SOL    HW119829   3.634   9.871   3.845 -0.3860 -1.3651 -1.3168
36505SOL    HW219830   3.618  10.011   3.790  1.0226  0.5382  2.7050
36506SOL     OW19831  11.054  12.255   6.138  0.8488 -0.3217  0.3006
36506SOL    HW119832  11.132  12.211   6.104  2.1642  0.9152  1.5717
36506SOL    HW219833  11.029  12.316   6.069  1.8717  0.2705  0.4364
36507SOL     OW19834   3.608   4.021   8.616 -0.1224  0.0265 -0.2200
36507SOL    HW119835   3.692   3.993   8.651 -0.5374 -1.4396 -0.3263
36507SOL    HW219836   3.608   4.117   8.627  1.6871  0.1059 -0.5652
36508SOL     OW19837   4.524  10.155   6.081 -0.1198 -0.9839 -0.6510
36508SOL    HW119838   4.523  10.165   5.986  1.2933 -1.8953 -0.7936
36508SOL    HW219839   4.444  10.106   6.102 -0.0262 -1.4952 -1.4626
36509SOL     OW19840   1.462   3.487   4.903  0.0725 -0.0402  0.2624
36509SOL    HW119841   1.443   3.478   4.997 -2.0143  0.3523 -0.0726
36509SOL    HW219842   1.509   3.407   4.880 -0.1975 -0.5714  1.4697
36510SOL     OW19843   7.743   1.853   1.382 -0.2026 -0.0637 -0.0759
36510SOL    HW119844   7.749   1.948   1.383  1.4832 -0.1379  1.8909
36510SOL    HW219845   7.834   1.823   1.374 -0.5408 -1.4882  1.0959
36511SOL     OW19846   9.015   6.098   8.733  0.0294  0.5339 -0.3726
36511SOL    HW119847   9.021   6.172   8.794  1.0433 -1.5011  2.2013
36511SOL    HW219848   9.041   6.022   8.785 -2.0484 -1.8678 -2.5423
36512SOL     OW19849   5.516   1.795   4.333 -0.4498  0.8087 -0.0735
36512SOL    HW119850   5.445   1.857   4.350 -0.0129  1.2957 -0.0092
36512SOL    HW219851   5.575   1.805   4.408 -1.1004 -0.7360  0.6836
36513SOL     OW19852   5.888   2.891   4.324  0.2488  0.0612  0.8247
36513SOL    HW119853   5.898   2.940   4.243  0.9399  1.0085  1.4627
36513SOL    HW219854   5.929   2.806   4.306 -1.2641 -0.4557 -0.3984
36514SOL     OW19855  10.463   8.043   6.793  0.2945 -0.1525 -0.2353
36514SOL    HW119856  10.423   8.127   6.769 -1.0914 -0.2878  1.4318
36514SOL    HW219857  10.391   7.992   6.831  1.2245 -1.9118 -0.7150
36515SOL     OW19858  10.840  10.379   8.762 -0.5938 -0.0753 -0.3416
36515SOL    HW119859  10.764  10.363   8.706 -1.3804  0.7961  0.4589
36515SOL    HW219860  10.873  10.291   8.782 -1.4581 -0.4708 -0.5905
36516SOL     OW19861   3.906   3.961  10.363 -0.3411 -0.4354 -0.1722
36516SOL    HW119862   3.907   4.040  10.309  1.0933 -0.6121 -0.4339
36516SOL    HW219863   3.834   3.976  10.424 -1.0389  0.4208 -1.1652
36517SOL     OW19864  10.866   7.351   5.884 -0.2558 -0.1169  0.0705
36517SOL    HW119865  10.775   7.349   5.853 -0.3599  2.2236  0.0876
36517SOL    HW219866  10.877   7.268   5.931 -1.6946 -1.4280 -1.7498
36518SOL     OW19867  10.251   8.647  10.982  0.0008 -0.0191  0.6199
36518SOL    HW119868  10.284   8.560  10.961  1.6381  0.8454 -0.5899
36518SOL    HW219869  10.158   8.644  10.961  0.0517 -1.4462  0.5478
36519SOL     OW19870   3.814   0.393   8.050 -0.2801 -0.0112 -0.4037
36519SOL    HW119871   3.905   0.423   8.057 -0.0664 -0.6180 -0.5415
36519SOL    HW219872   3.769   0.437   8.122 -0.0185  0.8147 -0.7390
36520SOL     OW19873   7.272   3.264  12.895  0.6059  0.4337 -0.7102
36520SOL    HW119874   7.315   3.196  12.843  0.7648 -0.1397  0.1541
36520SOL    HW219875   7.180   3.239  12.897  0.7879 -0.2099  0.2676
36521SOL     OW19876   4.328   4.684   6.892  0.1533 -0.8534  0.2418
36521SOL    HW119877   4.341   4.655   6.983 -1.6922  2.0127  1.5839
36521SOL    HW219878   4.367   4.771   6.889  0.0543 -0.8459 -1.7020
36522SOL     OW19879   5.963   9.758   8.075  0.0458  0.0231 -0.4154
36522SOL    HW119880   6.054   9.737   8.050 -0.0010  0.7225 -1.2037
36522SOL    HW219881   5.966   9.850   8.101 -0.4073 -0.0029 -0.2750
36523SOL     OW19882   3.196   0.244   0.242  0.3132 -0.0170 -0.2040
36523SOL    HW119883   3.108   0.250   0.279  0.1794 -0.3422 -0.4573
36523SOL    HW219884   3.240   0.178   0.296  1.2543  1.9164  1.5559
36524SOL     OW19885  12.114   4.356   7.902 -0.0462 -0.1261 -0.0190
36524SOL    HW119886  12.072   4.361   7.816 -0.7873 -0.7741  0.2870
36524SOL    HW219887  12.129   4.262   7.916 -0.6751 -0.1051  0.8898
36525SOL     OW19888   0.721  12.286   8.098 -0.2778  0.4393 -0.2961
36525SOL    HW119889   0.764  12.236   8.167  1.5512 -1.3868 -2.6037
36525SOL    HW219890   0.788  12.349   8.070 -0.9232  1.0028 -0.5820
36526SOL     OW19891   5.941   2.405   1.429 -0.4882 -0.2735 -0.4283
36526SOL    HW119892   5.867   2.455   1.464  0.0302  1.1949 -1.3666
36526SOL    HW219893   5.910   2.370   1.346 -0.1297  0.3550 -0.8296
36527SOL     OW19894   2.780  11.905   4.929  0.6383 -0.5637 -0.3660
36527SOL    HW119895   2.870  11.884   4.952 -0.0249 -1.8910  1.1701
36527SOL    HW219896   2.754  11.836   4.867  0.9588  0.3887 -1.6056
36528SOL     OW19897   7.552   2.113   0.279 -0.0586 -0.0124 -0.2330
36528SOL    HW119898   7.506   2.071   0.351 -0.5990 -0.3494 -0.7675
36528SOL    HW219899   7.490   2.177   0.244  1.3823  2.7101  1.7828
36529SOL     OW19900   7.473   0.201  11.251 -0.0549 -0.0169 -0.1435
36529SOL    HW119901   7.541   0.210  11.185 -0.5741 -0.6452 -0.7636
36529SOL    HW219902   7.398   0.163  11.206  0.1715 -2.1832  1.1708
36530SOL     OW19903   4.901  11.982  12.192 -0.0544  0.1646  0.3147
36530SOL    HW119904   4.837  12.044  12.227 -0.1735  0.8451 -1.0764
36530SOL    HW219905   4.973  11.985  12.255 -0.2590  1.3772  0.5155
36531SOL     OW19906  12.252   5.175   0.032  0.1040  0.5661 -0.1272
36531SOL    HW119907  12.162   5.183  -0.002  0.0987  2.4250  0.2193
36531SOL    HW219908  12.303   5.234  -0.023  1.1439 -0.4999 -0.3361
36532SOL     OW19909   9.448  12.655   1.510 -0.1655 -0.1995  0.1629
36532SOL    HW119910   9.449  12.749   1.528 -3.6252 -0.1900  0.8784
36532SOL    HW219911   9.420  12.615   1.593  0.4850 -1.8078 -0.3556
36533SOL     OW19912   3.241   6.771   8.549  0.2620 -0.4945 -0.2342
36533SOL    HW119913   3.210   6.702   8.490  0.2585 -1.4908  0.8821
36533SOL    HW219914   3.256   6.846   8.492  0.0800 -1.3521 -1.4739
36534SOL     OW19915   2.761   8.186  12.855 -0.7654  0.0337  0.7823
36534SOL    HW119916   2.832   8.242  12.824 -2.5691  0.9699 -2.0087
36534SOL    HW219917   2.723   8.234  12.929 -1.1126  1.6887 -0.4096
36535SOL     OW19918  12.939   5.376   0.215 -0.6435 -0.3589 -0.4761
36535SOL    HW119919  13.014   5.353   0.161 -0.3407  0.4359 -0.4205
36535SOL    HW219920  12.863   5.362   0.159 -0.3954 -0.4280 -0.7968
36536SOL     OW19921   9.293   1.614   9.583 -0.0581 -0.4704  0.2027
36536SOL    HW119922   9.305   1.674   9.656 -0.6530 -0.7281  0.5223
36536SOL    HW219923   9.351   1.647   9.514  0.0483  0.1287  0.5748
36537SOL     OW19924   8.792   1.203  10.571 -0.3179  0.0480 -0.0465
36537SOL    HW119925   8.755   1.292  10.565 -0.0702  0.3361  2.0288
36537SOL    HW219926   8.752   1.156  10.497 -2.3371  1.2234  0.2144
36538SOL     OW19927   1.762   3.578   7.717  0.0052  0.7602 -0.0036
36538SOL    HW119928   1.837   3.603   7.772  0.4235  1.3575 -0.8253
36538SOL    HW219929   1.784   3.490   7.686 -0.3095  0.3466  0.8866
36539SOL     OW19930   5.211   9.968  10.897  0.0832  0.8676 -0.8376
36539SOL    HW119931   5.265  10.041  10.925  0.9713 -0.3159  0.6873
36539SOL    HW219932   5.248   9.941  10.813  0.9984  0.9304 -0.4641
36540SOL     OW19933   6.402  10.783   1.018  0.2782  0.2577  0.4365
36540SOL    HW119934   6.315  10.803   1.051  1.2667  1.8864  2.2858
36540SOL    HW219935   6.387  10.730   0.939 -2.3835  2.0780 -0.3974
36541SOL     OW19936  10.046   5.861   4.016  0.3039 -1.0124 -0.1095
36541SOL    HW119937   9.978   5.795   4.032 -0.9363  0.2360 -0.1469
36541SOL    HW219938  10.042   5.878   3.922 -0.7918  0.5859  0.1987
36542SOL     OW19939   7.331   3.018   5.539 -0.5481  0.0882  0.2343
36542SOL    HW119940   7.311   2.926   5.520  0.3362 -0.8789  3.4054
36542SOL    HW219941   7.423   3.028   5.517 -0.5057  0.0620  0.4003
36543SOL     OW19942   6.813   8.958  12.284 -0.3323  0.2499 -0.1512
36543SOL    HW119943   6.740   8.950  12.345  0.2129  0.6871  0.5656
36543SOL    HW219944   6.816   9.051  12.261 -0.4861  0.1032 -0.7955
36544SOL     OW19945  11.920   6.720  10.638  0.4006 -0.0142  0.3054
36544SOL    HW119946  11.992   6.782  10.651 -1.1752  2.0373 -0.2096
36544SOL    HW219947  11.911   6.713  10.543 -0.0402 -0.3028  0.3658
36545SOL     OW19948  12.645   5.734  11.485  0.1674 -0.1669  0.0788
36545SOL    HW119949  12.605   5.748  11.571 -0.3503  0.5783 -0.2807
36545SOL    HW219950  12.579   5.686  11.435 -0.8049  2.0451 -0.8925
36546SOL     OW19951   3.779   1.880   0.594 -0.4519 -0.9150 -0.2569
36546SOL    HW119952   3.826   1.802   0.625  0.7250 -0.1664 -0.0880
36546SOL    HW219953   3.688   1.851   0.586 -0.2469 -1.9980  0.8874
36547SOL     OW19954   2.848  12.327  10.627 -0.3031 -0.0329  0.3425
36547SOL    HW119955   2.840  12.300  10.535  1.4386  1.3731 -0.2797
36547SOL    HW219956   2.851  12.423  10.623 -0.1320  0.0355  1.8618
36548SOL     OW19957  12.073   8.298   2.067 -0.3889  0.1190 -0.0597
36548SOL    HW119958  12.071   8.207   2.038 -0.0122  0.5394 -1.4448
36548SOL    HW219959  12.163   8.311   2.096 -1.2436 -0.9565  3.6809
36549SOL     OW19960   9.338  12.506   3.887 -0.2797 -0.0935  0.4929
36549SOL    HW119961   9.379  12.592   3.879 -2.3249  0.9079 -0.0325
36549SOL    HW219962   9.244  12.524   3.878 -0.7223 -2.4735 -0.2261
36550SOL     OW19963   4.296   3.636   2.150 -0.1147 -0.0115  0.2704
36550SOL    HW119964   4.372   3.673   2.104  0.1773 -0.6833  0.1959
36550SOL    HW219965   4.317   3.647   2.243  0.3285 -0.6812  0.2562
36551SOL     OW19966   3.553  10.343   7.819 -0.3765 -0.0480  0.5871
36551SOL    HW119967   3.552  10.292   7.900  0.4555 -1.1805 -0.0781
36551SOL    HW219968   3.623  10.303   7.767 -1.3360  0.2129 -0.9703
36552SOL     OW19969   9.673   1.250  12.065 -0.2260 -0.0728  0.0278
36552SOL    HW119970   9.589   1.296  12.069 -0.4913 -0.6443  1.5288
36552SOL    HW219971   9.660   1.182  11.999 -0.6272  0.4384 -0.4267
36553SOL     OW19972   6.889   3.503   0.620 -0.6879 -0.2945  0.5872
36553SOL    HW119973   6.905   3.433   0.682 -0.7515  0.7058  1.7583
36553SOL    HW219974   6.794   3.503   0.608 -0.5335 -1.7148 -1.0166
36554SOL     OW19975   7.970   2.780   8.585  0.0370  0.4417  0.5142
36554SOL    HW119976   8.042   2.804   8.527 -0.5621 -0.3948 -0.6049
36554SOL    HW219977   7.956   2.686   8.569 -0.4131  0.2854  1.7111
36555SOL     OW19978   1.615   4.287   3.673 -0.3396 -0.2239 -0.1379
36555SOL    HW119979   1.669   4.222   3.718 -2.1784 -1.9087 -0.2335
36555SOL    HW219980   1.642   4.282   3.581  0.9476  0.6758  0.1643
36556SOL     OW19981   2.437   0.716  10.448 -0.1332  0.0144  0.0072
36556SOL    HW119982   2.420   0.796  10.498  0.5787  0.0628  0.1841
36556SOL    HW219983   2.509   0.740  10.390  0.8185 -0.8089  0.8182
36557SOL     OW19984   6.874   9.859   6.179 -0.4349 -0.6579  0.5306
36557SOL    HW119985   6.966   9.888   6.186 -0.3991 -0.1624 -1.3895
36557SOL    HW219986   6.877   9.765   6.198  0.5726 -0.7576 -0.0250
36558SOL     OW19987   5.018   1.483   0.650 -0.5450  0.2740 -0.3511
36558SOL    HW119988   5.021   1.525   0.564  1.9530 -1.1695 -1.0676
36558SOL    HW219989   4.925   1.465   0.665 -1.2065  2.0491 -1.9710
36559SOL     OW19990  12.254   6.161   2.391  0.0104  0.8887 -0.6985
36559SOL    HW119991  12.290   6.078   2.421 -0.0445  0.9343 -0.5053
36559SOL    HW219992  12.282   6.224   2.458 -0.9824  0.8141 -0.1990
36560SOL     OW19993   9.271   3.501   3.614 -0.0451  0.0879 -0.0693
36560SOL    HW119994   9.183   3.535   3.627 -0.2820 -0.1795 -0.8932
36560SOL    HW219995   9.259   3.407   3.600  0.4251 -0.0421  0.3799
36561SOL     OW19996   4.274   7.763   2.533 -0.3317  0.0652  0.0173
36561SOL    HW119997   4.274   7.680   2.486 -1.0859  1.2495 -2.2107
36561SOL    HW219998   4.310   7.826   2.471  0.4804  1.3826  1.7535
36562SOL     OW19999   1.307  10.401   7.695  0.0411  0.4754 -0.2174
36562SOL    HW120000   1.363  10.463   7.743 -0.1139  1.0603 -0.7724
36562SOL    HW220001   1.237  10.456   7.660  0.1811  0.0689 -1.1418
36563SOL     OW20002   5.384  12.200   8.989 -0.0188 -0.3674  0.4040
36563SOL    HW120003   5.304  12.182   9.038 -1.2782 -0.7578 -1.6489
36563SOL    HW220004   5.416  12.113   8.963  0.7329 -0.1788  0.6642
36564SOL     OW20005   6.195   7.616   5.070  0.2199 -0.4972 -0.3525
36564SOL    HW120006   6.105   7.598   5.041  0.3383  0.7024 -1.5730
36564SOL    HW220007   6.188   7.695   5.124  0.3825 -1.1551  0.6550
36565SOL     OW20008   8.538   2.224   7.097 -0.5964 -0.1556 -0.2280
36565SOL    HW120009   8.463   2.165   7.100 -0.7232 -0.0313 -0.8602
36565SOL    HW220010   8.614   2.167   7.083 -0.5630 -0.2856  0.4574
36566SOL     OW20011   5.994   1.749  10.084 -0.6653 -0.3215  0.1098
36566SOL    HW120012   6.013   1.810  10.155  2.1687  0.3320 -1.0823
36566SOL    HW220013   6.032   1.791  10.006 -2.2836 -1.7285 -1.5255
36567SOL     OW20014   2.955   7.986   2.812  0.1578 -0.3797 -0.5946
36567SOL    HW120015   2.988   7.897   2.826 -0.9711 -0.8360 -0.7269
36567SOL    HW220016   2.861   7.975   2.796 -0.0322  0.8528 -0.4538
36568SOL     OW20017   2.522  10.371   6.818  0.4749  0.1372 -0.1927
36568SOL    HW120018   2.436  10.414   6.822  0.4772  0.1168  0.1546
36568SOL    HW220019   2.565  10.397   6.900  2.3672  3.3851 -2.0141
36569SOL     OW20020   4.601   2.889   9.015  0.2004 -0.4796 -0.1873
36569SOL    HW120021   4.643   2.950   9.076  0.9382 -0.3778 -0.7837
36569SOL    HW220022   4.597   2.937   8.932  1.5093 -1.4975 -0.8750
36570SOL     OW20023  10.350  10.564   0.505 -0.0881 -0.3617  0.1009
36570SOL    HW120024  10.340  10.634   0.569  0.5218 -1.5628  1.5615
36570SOL    HW220025  10.284  10.583   0.438 -0.2188  1.3485  0.6675
36571SOL     OW20026   2.629   5.513   3.828 -0.1410 -0.0824 -0.2680
36571SOL    HW120027   2.610   5.601   3.861  0.2701 -0.8549  2.2842
36571SOL    HW220028   2.574   5.504   3.750 -0.8844  2.0872 -0.0624
36572SOL     OW20029   5.383   8.718   0.854  0.3710  0.1353 -0.2899
36572SOL    HW120030   5.406   8.625   0.851 -1.6113 -0.4727  1.1716
36572SOL    HW220031   5.446   8.760   0.796  0.4236 -2.3041 -2.1827
36573SOL     OW20032   1.217   4.651  12.433 -0.0949  0.1274 -0.1119
36573SOL    HW120033   1.145   4.666  12.372  0.0331  0.4529 -0.1810
36573SOL    HW220034   1.175   4.643  12.518  0.0107  3.5869  0.3828
36574SOL     OW20035   5.282   0.634   5.412  0.5407  0.0184 -0.7255
36574SOL    HW120036   5.286   0.540   5.432  2.6384  0.3541  0.8695
36574SOL    HW220037   5.350   0.647   5.346 -1.0031  0.2020 -2.3722
36575SOL     OW20038   7.113   2.901   3.948 -0.1656  0.0350  0.4268
36575SOL    HW120039   7.115   2.922   4.041  0.5513  2.0812  0.0008
36575SOL    HW220040   7.063   2.973   3.909 -0.6721 -0.9241 -0.7576
36576SOL     OW20041   9.581   5.407   3.965  0.1699  0.3803  0.5761
36576SOL    HW120042   9.667   5.397   4.005 -0.5169 -0.6995  1.8853
36576SOL    HW220043   9.598   5.448   3.881  1.6964  3.1451  2.0854
36577SOL     OW20044   0.221   9.658   0.293  0.1894 -0.4626 -0.2859
36577SOL    HW120045   0.284   9.720   0.331  2.6836 -1.8947 -1.8201
36577SOL    HW220046   0.170   9.710   0.231 -0.1637  0.7200  0.9483
36578SOL     OW20047   6.014   8.147  12.533  0.4856 -0.3117 -0.2973
36578SOL    HW120048   6.071   8.112  12.464  0.0626  3.0182 -2.6195
36578SOL    HW220049   5.926   8.137  12.497  0.1028 -0.0614  0.5658
36579SOL     OW20050  12.932   9.442   6.524  0.5363 -0.0038 -0.0579
36579SOL    HW120051  13.011   9.477   6.565  0.2696  0.6299 -0.0731
36579SOL    HW220052  12.887   9.519   6.489  0.9945 -0.5529 -1.9725
36580SOL     OW20053   4.382  10.120   7.155  0.4419 -0.1738 -0.0866
36580SOL    HW120054   4.367  10.082   7.068  0.8439  0.0959 -0.2747
36580SOL    HW220055   4.466  10.083   7.182 -0.7550 -2.1584  1.2190
36581SOL     OW20056   3.663   7.060  11.353 -0.0984 -0.1572  0.5321
36581SOL    HW120057   3.659   7.154  11.336  0.3636 -0.2314 -0.0259
36581SOL    HW220058   3.575   7.037  11.380 -0.7506  0.0774 -1.2801
36582SOL     OW20059  11.745   3.427   3.177 -0.1255  0.6524  0.5455
36582SOL    HW120060  11.782   3.399   3.261  2.1418 -0.6477 -0.7704
36582SOL    HW220061  11.657   3.391   3.177  0.1412 -0.1130  1.9892
36583SOL     OW20062   6.006   1.997   1.773 -0.5081  0.4644  0.0258
36583SOL    HW120063   5.982   2.038   1.856 -1.2199  0.8087 -0.3335
36583SOL    HW220064   5.940   2.029   1.711 -0.7245 -0.7490 -0.4051
36584SOL     OW20065   0.127   6.499   5.233  0.2555 -0.1604 -0.1952
36584SOL    HW120066   0.150   6.460   5.148 -2.8512  0.8348 -1.6453
36584SOL    HW220067   0.147   6.592   5.223 -0.8139  0.0898 -0.1585
36585SOL     OW20068   7.272   4.965   2.874 -0.2575 -0.1577  0.3349
36585SOL    HW120069   7.235   4.980   2.787 -2.4972  0.2856  1.2870
36585SOL    HW220070   7.341   4.901   2.860  0.1800  0.7192 -1.9031
36586SOL     OW20071  10.501   6.995   9.723 -0.5720 -0.0539  0.0568
36586SOL    HW120072  10.544   7.076   9.750 -2.5032  0.7741  0.8570
36586SOL    HW220073  10.514   6.935   9.796 -0.9422  0.2798  0.4054
36587SOL     OW20074   7.317   1.063  10.617  0.2748  0.1072  0.1929
36587SOL    HW120075   7.326   1.131  10.550 -0.8848  0.2301  0.1278
36587SOL    HW220076   7.249   1.005  10.582  0.8521 -0.7792  0.5093
36588SOL     OW20077  11.856  10.293   7.543 -0.2427 -0.2527 -0.1186
36588SOL    HW120078  11.940  10.339   7.549  0.5138 -1.6745  0.4453
36588SOL    HW220079  11.812  10.335   7.469  0.7344  0.8613 -0.0988
36589SOL     OW20080   6.200   1.427   8.933 -0.4704 -0.2020 -0.6241
36589SOL    HW120081   6.144   1.417   9.009 -1.3073 -1.5085 -1.3895
36589SOL    HW220082   6.183   1.517   8.903 -3.2314 -0.9612 -1.6284
36590SOL     OW20083   3.403   2.856   7.804 -0.0876 -0.0471  0.0010
36590SOL    HW120084   3.393   2.764   7.780  1.1147 -0.2766  0.3144
36590SOL    HW220085   3.418   2.902   7.721  2.2782 -0.5809  0.0681
36591SOL     OW20086   7.530   1.400   6.487 -0.2825 -0.2279  0.2419
36591SOL    HW120087   7.625   1.394   6.499 -0.0208 -1.2420 -1.9526
36591SOL    HW220088   7.509   1.331   6.424 -1.9994  1.9885 -1.7956
36592SOL     OW20089  10.936   4.912   5.102 -0.2657 -0.3844 -0.0165
36592SOL    HW120090  11.018   4.862   5.096  0.2722  0.6571 -1.7985
36592SOL    HW220091  10.963   5.002   5.116 -1.2009 -0.3049  1.5383
36593SOL     OW20092   8.781   5.911   1.607  0.1451 -0.0898 -0.4652
36593SOL    HW120093   8.693   5.923   1.643  0.6728  0.8745  0.5658
36593SOL    HW220094   8.840   5.937   1.678  1.2866 -1.5319 -0.8354
36594SOL     OW20095   2.038  12.147   6.951 -0.1484 -0.3468  0.3907
36594SOL    HW120096   2.105  12.213   6.932 -0.6837  0.1467  0.1979
36594SOL    HW220097   2.055  12.122   7.042  0.9962 -1.0544  0.0092
36595SOL     OW20098   0.195   3.080   1.030  0.3127 -0.0843 -0.4937
36595SOL    HW120099   0.124   3.040   0.979  0.2805 -0.5582 -0.0854
36595SOL    HW220100   0.268   3.084   0.968  0.4759 -1.2682 -0.4069
36596SOL     OW20101   1.751   5.146   8.218 -0.1298 -0.2024 -0.4370
36596SOL    HW120102   1.769   5.231   8.177 -1.6365  1.1093  1.4191
36596SOL    HW220103   1.657   5.135   8.210 -0.0013 -1.5241 -0.2981
36597SOL     OW20104   2.414  11.086   6.756  0.7124 -0.1349 -0.3198
36597SOL    HW120105   2.451  11.174   6.744 -0.4673  0.4695  0.3419
36597SOL    HW220106   2.370  11.067   6.673 -0.1865  0.4747  0.0088
36598SOL     OW20107  11.253   8.400   0.970 -0.3884 -0.7413  0.0804
36598SOL    HW120108  11.237   8.380   0.878  1.2371  0.2909 -0.4690
36598SOL    HW220109  11.299   8.323   1.003  1.9447  0.1285 -0.8876
36599SOL     OW20110   6.339   8.377  10.144  0.3387 -0.1894  0.4344
36599SOL    HW120111   6.358   8.288  10.171  0.1767 -0.3676 -0.0427
36599SOL    HW220112   6.257   8.398  10.188 -0.2817 -0.7201 -0.4457
36600SOL     OW20113   3.922   1.851   5.909 -0.2576 -0.3228  0.3430
36600SOL    HW120114   3.890   1.890   5.828 -0.1773 -0.5967  0.1741
36600SOL    HW220115   3.918   1.756   5.893  1.8583 -0.3814 -0.1899
36601SOL     OW20116   5.130   0.806   5.943 -0.0806 -0.0247 -0.0098
36601SOL    HW120117   5.056   0.756   5.976 -1.6061  0.2459 -2.7619
36601SOL    HW220118   5.092   0.881   5.898  2.0276  1.7424  0.8976
36602SOL     OW20119   5.340   3.570   4.231 -0.1931  0.4213  0.0582
36602SOL    HW120120   5.392   3.489   4.230 -0.7926  0.0200  0.6969
36602SOL    HW220121   5.403   3.639   4.250 -0.0437 -0.1975  2.0952
36603SOL     OW20122   3.851   5.682   8.240 -0.0908  0.3513  0.6513
36603SOL    HW120123   3.780   5.649   8.185 -1.1540  1.0248  1.5692
36603SOL    HW220124   3.875   5.766   8.201 -0.0947  0.3316  0.6061
36604SOL     OW20125  12.406   2.179   6.633  0.4735  0.1146 -0.3327
36604SOL    HW120126  12.364   2.093   6.624  0.1971  0.2433 -0.2840
36604SOL    HW220127  12.428   2.205   6.544  1.1356 -0.2922 -0.2932
36605SOL     OW20128   5.237  10.107   2.338  0.0788 -0.0340  0.0106
36605SOL    HW120129   5.208  10.020   2.367  2.7873 -1.0365 -0.0283
36605SOL    HW220130   5.206  10.166   2.407 -0.1571 -1.3145  1.0536
36606SOL     OW20131   0.830   1.260   2.630  0.4606 -0.0474  0.4252
36606SOL    HW120132   0.769   1.306   2.572  0.4869 -1.6478 -0.9236
36606SOL    HW220133   0.822   1.306   2.714 -0.2030  1.7989 -0.5878
36607SOL     OW20134  12.030   3.393  11.203 -0.2225  0.0661  0.1886
36607SOL    HW120135  11.986   3.310  11.219  1.6656 -1.2155 -0.8086
36607SOL    HW220136  12.097   3.372  11.137  1.6636  1.9095  1.3898
36608SOL     OW20137  11.991   2.055   5.090  0.0490 -0.2151 -0.0145
36608SOL    HW120138  12.078   2.024   5.065 -0.1628  1.4140 -3.2299
36608SOL    HW220139  11.931   1.997   5.043 -0.4353  1.5247 -1.6403
36609SOL     OW20140   0.498  10.930   6.772  0.0440  0.0195 -0.1708
36609SOL    HW120141   0.536  10.894   6.692 -0.0393  0.0728 -0.2345
36609SOL    HW220142   0.407  10.947   6.750  0.2032  0.7656 -0.3166
36610SOL     OW20143   0.551   5.379   6.739  0.5917  0.6309  0.0424
36610SOL    HW120144   0.462   5.381   6.702  0.7562 -2.3136 -0.7476
36610SOL    HW220145   0.592   5.458   6.704 -1.5776  1.9172  0.1839
36611SOL     OW20146   7.357   3.064   8.484 -0.4821  0.5357 -0.1932
36611SOL    HW120147   7.301   3.104   8.417  0.4290  1.0197 -0.6745
36611SOL    HW220148   7.296   3.041   8.554 -0.8893  4.2504  0.8683
36612SOL     OW20149   7.951   6.381   5.151  0.3429 -0.0383  0.4574
36612SOL    HW120150   8.008   6.452   5.180 -0.6552  1.1485 -0.3463
36612SOL    HW220151   7.986   6.355   5.066  0.4511 -0.2015  0.5523
36613SOL     OW20152   0.888   4.221   3.989  0.3400  0.6727  0.0184
36613SOL    HW120153   0.904   4.277   4.065  1.5027 -1.6759  1.5974
36613SOL    HW220154   0.974   4.210   3.948  0.1098  0.0837 -0.3153
36614SOL     OW20155   0.742   5.038   8.643  0.1204  0.4575  0.1314
36614SOL    HW120156   0.783   4.956   8.669  1.7022  1.5020  1.0924
36614SOL    HW220157   0.808   5.082   8.589 -1.2721  0.4802 -1.6474
36615SOL     OW20158   3.318   6.189   7.610 -0.2803 -0.7821  0.3586
36615SOL    HW120159   3.370   6.148   7.541  1.6959  3.3761 -0.9234
36615SOL    HW220160   3.237   6.215   7.566  0.3784  0.6022 -0.0721
36616SOL     OW20161   5.108   2.384  12.092  0.3487 -0.0803 -0.1123
36616SOL    HW120162   5.156   2.431  12.160 -0.1693  0.3360 -0.0296
36616SOL    HW220163   5.168   2.315  12.063  0.5573 -0.2910  0.8023
36617SOL     OW20164   4.189   7.417   3.985  0.2140  0.2004 -0.0144
36617SOL    HW120165   4.165   7.358   3.913  1.5779  0.7200 -0.9317
36617SOL    HW220166   4.263   7.373   4.028  0.4208  0.6362  0.0792
36618SOL     OW20167   0.238   3.204   7.336 -0.4744  0.2032  0.4348
36618SOL    HW120168   0.241   3.134   7.271 -0.3334 -0.3810  1.0578
36618SOL    HW220169   0.157   3.250   7.318 -1.2671 -0.9783  0.8795
36619SOL     OW20170  11.436   8.544   5.838  0.2385 -0.1545  0.0808
36619SOL    HW120171  11.503   8.476   5.839 -0.5514 -0.9766 -0.7805
36619SOL    HW220172  11.469   8.610   5.776  0.6559 -0.1134  0.3444
36620SOL     OW20173   3.821   5.484   0.767  1.1241  0.1512  0.7195
36620SOL    HW120174   3.857   5.422   0.703  0.2469 -0.3994  0.7420
36620SOL    HW220175   3.727   5.467   0.767  0.6778  2.2416 -0.0850
36621SOL     OW20176   1.036  10.029   9.073 -0.1955  0.3210  0.5025
36621SOL    HW120177   1.021  10.109   9.123 -0.1457 -0.2888  1.5366
36621SOL    HW220178   0.970  10.031   9.004  0.2407  1.5668  0.0956
36622SOL     OW20179   7.000  10.935  10.815 -0.0667  0.0982 -0.3776
36622SOL    HW120180   7.018  10.967  10.903 -1.0687 -0.1050 -0.0900
36622SOL    HW220181   6.924  10.985  10.786  0.0358 -0.0915 -0.9911
36623SOL     OW20182   1.265   8.737  10.958 -0.8377 -0.3908 -0.3463
36623SOL    HW120183   1.173   8.713  10.949 -0.7318 -0.7730 -0.4423
36623SOL    HW220184   1.283   8.792  10.882 -1.1951  0.3620  0.0991
36624SOL     OW20185   9.300  11.883   1.930 -0.1741 -0.0551  0.0278
36624SOL    HW120186   9.252  11.801   1.928 -0.8941  0.3176  1.4706
36624SOL    HW220187   9.301  11.912   1.838 -0.1992 -1.4888 -0.4401
36625SOL     OW20188   0.340  10.991  12.110 -0.0710 -0.6327 -0.1815
36625SOL    HW120189   0.319  10.988  12.203 -0.8725  0.2139 -0.3293
36625SOL    HW220190   0.434  10.970  12.106 -0.2004 -1.4469  0.7356
36626SOL     OW20191   1.084   5.798   6.067 -0.3644  0.2819  0.3701
36626SOL    HW120192   1.130   5.780   6.149 -0.5345  1.1898  0.6722
36626SOL    HW220193   1.106   5.724   6.011  0.9344  0.3844  0.7271
36627SOL     OW20194   4.457   9.908  12.885 -0.0807  0.7728 -0.4042
36627SOL    HW120195   4.515   9.916  12.961  0.1050 -0.5240 -0.3808
36627SOL    HW220196   4.512   9.935  12.811  1.0887 -1.7521 -0.5687
36628SOL     OW20197   3.192  10.236   6.893 -0.0334  0.4203  0.4141
36628SOL    HW120198   3.111  10.212   6.849 -0.4866  1.8002  0.4552
36628SOL    HW220199   3.167  10.251   6.984  0.2509  0.9333  0.4108
36629SOL     OW20200   9.880  12.769  12.611 -0.2181  0.0065 -0.2022
36629SOL    HW120201   9.851  12.695  12.558 -1.3606  1.1695 -1.2845
36629SOL    HW220202   9.848  12.751  12.699  1.3132 -1.7428  0.0502
36630SOL     OW20203   3.048   3.191  10.057  0.2148 -0.2181  0.5812
36630SOL    HW120204   3.088   3.151  10.135  0.3656 -0.1151  0.5580
36630SOL    HW220205   2.979   3.130  10.032 -0.0149 -0.1145  0.9574
36631SOL     OW20206   9.322  10.234   9.888  0.0438 -0.3649  0.0606
36631SOL    HW120207   9.283  10.161   9.840 -1.0726 -0.0767  0.4879
36631SOL    HW220208   9.300  10.311   9.836 -1.0691 -0.0647  0.9339
36632SOL     OW20209  12.193  12.347   4.945  0.1028 -0.0648 -0.1770
36632SOL    HW120210  12.175  12.273   4.887  2.2588 -1.4085  0.7484
36632SOL    HW220211  12.129  12.339   5.015  0.7374 -1.4825  0.2659
36633SOL     OW20212   9.618   4.927   6.618  0.1181 -0.5848  0.5769
36633SOL    HW120213   9.579   4.992   6.676  1.2403 -0.1269  0.8499
36633SOL    HW220214   9.544   4.884   6.576 -0.6572  0.3966  0.9121
36634SOL     OW20215   3.723   6.030   6.933  0.4559  0.0410  0.7229
36634SOL    HW120216   3.718   5.934   6.935  1.0275  0.0075  0.5306
36634SOL    HW220217   3.813   6.049   6.909 -0.4315  0.5807 -2.6200
36635SOL     OW20218   9.143   2.979   0.351  0.0270 -0.2147  0.0170
36635SOL    HW120219   9.170   2.890   0.327 -1.3875 -0.7183  0.1808
36635SOL    HW220220   9.080   2.966   0.422  1.1006  1.0329  1.2575
36636SOL     OW20221   2.159   5.442   1.406 -0.3146 -0.0425 -0.1499
36636SOL    HW120222   2.185   5.387   1.332 -0.2579  0.9230 -0.8700
36636SOL    HW220223   2.090   5.498   1.372 -0.9235 -0.1914  0.7938
36637SOL     OW20224   0.355   8.158  12.522 -0.3050  0.0583  0.1412
36637SOL    HW120225   0.345   8.105  12.443 -0.7778  1.3699 -0.7209
36637SOL    HW220226   0.306   8.238  12.503  1.9990  1.6590  0.6137
36638SOL     OW20227   8.803  10.137  11.417  0.0341  0.1503 -0.3232
36638SOL    HW120228   8.768  10.057  11.379 -0.3914 -0.3418  1.0521
36638SOL    HW220229   8.726  10.187  11.445  0.3167  0.8216 -0.6947
36639SOL     OW20230  10.627   8.845   9.813 -0.6342  0.4089 -0.2041
36639SOL    HW120231  10.576   8.764   9.810 -1.3828  0.8629 -0.0864
36639SOL    HW220232  10.562   8.913   9.832  0.1137  0.9238  0.5676
36640SOL     OW20233  11.889   0.779  10.918  0.1405  0.1599 -0.2073
36640SOL    HW120234  11.882   0.871  10.942 -1.4783 -0.2121  0.9437
36640SOL    HW220235  11.915   0.735  10.998  1.2773 -0.3596 -0.8403
36641SOL     OW20236   3.559   8.971   9.665 -0.3034 -0.1830  0.4160
36641SOL    HW120237   3.648   9.005   9.675 -0.6226  0.3206  1.7932
36641SOL    HW220238   3.503   9.038   9.704 -1.0641 -1.6163  1.9468
36642SOL     OW20239   2.774   6.145   2.054  0.3799  0.0776  0.3204
36642SOL    HW120240   2.722   6.219   2.084  1.6637  0.6552  1.2323
36642SOL    HW220241   2.825   6.119   2.131  0.9824 -0.8424 -0.3652
36643SOL     OW20242   6.408  11.470  11.182 -0.7025  0.8318  0.3185
36643SOL    HW120243   6.359  11.478  11.101 -0.4263  1.0294  0.1688
36643SOL    HW220244   6.495  11.504  11.161 -0.6012  0.7958  0.6703
36644SOL     OW20245   9.121   8.537   3.687  0.7798 -0.1243  0.0787
36644SOL    HW120246   9.155   8.601   3.624  0.8025 -0.4970 -0.2881
36644SOL    HW220247   9.098   8.590   3.764  0.4342  0.3863 -0.3632
36645SOL     OW20248  11.877   5.490  12.821  0.7420 -0.1369 -0.2131
36645SOL    HW120249  11.926   5.554  12.873  2.1112 -0.8144 -0.6423
36645SOL    HW220250  11.785   5.508  12.842  1.1736  0.9446  0.8566
36646SOL     OW20251   9.445   7.219   3.415  0.1107 -0.1213  0.2395
36646SOL    HW120252   9.362   7.254   3.447  0.1970  0.0116  0.3214
36646SOL    HW220253   9.486   7.179   3.491  0.6890  0.9198  0.4950
36647SOL     OW20254   1.403   6.823   1.299  0.3039  0.1429  0.4296
36647SOL    HW120255   1.330   6.817   1.360  0.3780  1.8768  0.7483
36647SOL    HW220256   1.475   6.778   1.343 -0.7398 -2.3383 -0.2535
36648SOL     OW20257   0.019   1.306  10.075 -0.2647  0.0146  0.0208
36648SOL    HW120258  -0.048   1.282  10.139 -1.7652 -0.7403 -1.7146
36648SOL    HW220259  -0.016   1.384  10.032 -0.5658 -0.9415 -1.5648
36649SOL     OW20260  10.083   9.919   5.705  0.0216 -0.4330  0.9450
36649SOL    HW120261  10.115   9.896   5.618 -2.9335  1.6290 -0.8541
36649SOL    HW220262  10.161   9.950   5.752  1.6477 -1.3353 -1.0287
36650SOL     OW20263   7.767   2.756   8.928  0.9124  0.3999  0.3240
36650SOL    HW120264   7.847   2.790   8.886  0.3522  0.6262 -0.5899
36650SOL    HW220265   7.737   2.687   8.869  0.2470  0.5509  0.4836
36651SOL     OW20266   2.615   6.838   8.624  0.0923 -0.2520  0.0953
36651SOL    HW120267   2.689   6.780   8.607  0.6648  0.0320  1.5096
36651SOL    HW220268   2.542   6.798   8.577  0.8609 -1.2037 -0.3186
36652SOL     OW20269   5.070   8.199   0.555 -0.3565 -0.4045  0.1291
36652SOL    HW120270   5.031   8.282   0.581 -2.2254 -1.2104  0.1107
36652SOL    HW220271   5.007   8.133   0.584  0.5959 -1.7602 -0.7247
36653SOL     OW20272   8.324   5.931   5.337 -0.3779  0.3742 -0.5292
36653SOL    HW120273   8.279   5.862   5.385 -0.8670  1.8089  1.2016
36653SOL    HW220274   8.331   6.003   5.400  1.2359  1.4493 -1.8604
36654SOL     OW20275  12.249  10.238   3.894 -0.7766  0.1285 -0.0149
36654SOL    HW120276  12.317  10.210   3.833  0.1941  2.1881  0.0567
36654SOL    HW220277  12.291  10.303   3.950 -2.7613  1.4985  0.0113
36655SOL     OW20278   0.119   7.237   2.816 -0.3070 -0.1913 -0.7945
36655SOL    HW120279   0.160   7.291   2.749 -0.7868 -0.6943 -1.5123
36655SOL    HW220280   0.111   7.150   2.775  1.3917 -1.1152  0.6867
36656SOL     OW20281   2.836  10.525   9.878 -0.2101 -0.1483  0.0680
36656SOL    HW120282   2.790  10.469   9.816  1.5157  0.5180 -1.9474
36656SOL    HW220283   2.829  10.613   9.841 -0.2273  0.4879  1.5290
36657SOL     OW20284   8.276   3.064   8.086 -0.2132 -0.0023 -0.1610
36657SOL    HW120285   8.338   2.998   8.055 -0.1364  0.2488 -0.5428
36657SOL    HW220286   8.309   3.147   8.051 -0.5145  0.1935  0.0106
36658SOL     OW20287   5.714   2.118  12.371  0.0017 -0.3607 -0.2875
36658SOL    HW120288   5.630   2.075  12.354 -0.6269  0.4754  0.5851
36658SOL    HW220289   5.691   2.207  12.397  1.1891  0.0100 -0.4246
36659SOL     OW20290  12.404   1.141   5.431  0.4753  0.0231 -0.1707
36659SOL    HW120291  12.361   1.125   5.348  1.7949 -1.0993 -0.6827
36659SOL    HW220292  12.406   1.236   5.440 -1.5197  0.1177 -0.3947
36660SOL     OW20293   8.497   8.110   7.699  0.1943  0.3480 -0.3043
36660SOL    HW120294   8.435   8.150   7.639  0.0214  0.7670  0.1512
36660SOL    HW220295   8.548   8.183   7.734 -0.1975  0.1911  0.6131
36661SOL     OW20296   5.281   4.631   2.002  0.1214 -0.0563 -0.1613
36661SOL    HW120297   5.330   4.689   2.060  1.9442 -0.9710 -0.7167
36661SOL    HW220298   5.220   4.689   1.955  0.4281  1.0644  0.7910
36662SOL     OW20299  12.383   2.421   1.227 -0.2379  0.1423  0.0335
36662SOL    HW120300  12.472   2.443   1.198 -0.3533  1.2613  0.4791
36662SOL    HW220301  12.347   2.503   1.259 -1.7041 -0.1346 -0.7953
36663SOL     OW20302   4.517   3.263   2.307 -0.0252  1.0532  0.0095
36663SOL    HW120303   4.501   3.358   2.303 -0.4967  0.9527 -1.0341
36663SOL    HW220304   4.551   3.248   2.395 -0.1431  2.1631  0.2674
36664SOL     OW20305   7.445   2.002   8.330 -0.4684  0.1083 -0.0541
36664SOL    HW120306   7.432   2.066   8.401 -0.5843 -0.8162  0.7803
36664SOL    HW220307   7.468   1.921   8.375  0.3143 -0.2835 -1.1361
36665SOL     OW20308  12.909   5.246   4.779 -0.2623  0.5730 -0.0525
36665SOL    HW120309  12.904   5.230   4.873  1.5211 -0.7091 -0.1294
36665SOL    HW220310  12.830   5.204   4.744  0.4318 -1.4373  0.6190
36666SOL     OW20311   4.152   6.429  11.286 -0.0504 -0.2913  0.5289
36666SOL    HW120312   4.164   6.343  11.244  0.2233  0.3488 -0.7626
36666SOL    HW220313   4.149   6.410  11.379 -0.7573 -1.7968  0.2338
36667SOL     OW20314   7.213   9.501   3.900  0.0375 -0.5660 -0.2311
36667SOL    HW120315   7.244   9.588   3.928  1.6872 -0.8593 -1.0289
36667SOL    HW220316   7.186   9.458   3.981  1.6865 -0.2364  0.5248
36668SOL     OW20317   8.123   8.725   6.765  0.5289 -0.0489 -0.4200
36668SOL    HW120318   8.217   8.708   6.770  0.6956  0.0249 -2.4753
36668SOL    HW220319   8.088   8.650   6.717 -0.3347  0.3475 -0.4297
36669SOL     OW20320   1.458   4.640   4.570 -0.6300  0.0799 -0.6635
36669SOL    HW120321   1.447   4.573   4.637 -2.5709  1.1015  0.1157
36669SOL    HW220322   1.403   4.713   4.600  0.2672  1.4641 -2.2080
36670SOL     OW20323  11.424   4.529   0.802 -0.3876 -0.1071 -0.2832
36670SOL    HW120324  11.459   4.613   0.772 -0.2969 -0.3194 -0.7801
36670SOL    HW220325  11.495   4.490   0.852 -0.5656  0.2829  0.2926
36671SOL     OW20326   2.183   6.030   2.162 -0.1187  0.1927  0.3162
36671SOL    HW120327   2.268   6.004   2.198  0.4914  2.3339  0.5117
36671SOL    HW220328   2.121   6.011   2.233  0.3768 -0.1361  0.6704
36672SOL     OW20329   4.517   2.667   9.132  0.5393  0.3291  0.1367
36672SOL    HW120330   4.537   2.758   9.108  3.6888  0.0085  1.1387
36672SOL    HW220331   4.432   2.673   9.176 -0.1240  2.5086 -1.2714
36673SOL     OW20332   4.757   6.794   8.181  0.0110  0.3207 -0.8834
36673SOL    HW120333   4.777   6.844   8.261  0.2832  0.4980 -1.0594
36673SOL    HW220334   4.744   6.860   8.114  2.8208  0.1711 -1.7036
36674SOL     OW20335   7.053   7.024   7.497  0.2161 -0.0037 -0.3230
36674SOL    HW120336   7.048   7.110   7.539 -1.8057  0.2295 -0.9320
36674SOL    HW220337   7.124   7.033   7.433 -0.1035  1.3014 -0.5268
36675SOL     OW20338   5.666   5.411   8.184  0.1188 -0.0106  0.5535
36675SOL    HW120339   5.574   5.440   8.180 -0.2459 -1.2456 -1.8724
36675SOL    HW220340   5.668   5.348   8.255 -1.1990 -0.7430 -0.0197
36676SOL     OW20341   5.508   3.162   5.318 -0.2878  0.3130 -0.4560
36676SOL    HW120342   5.483   3.247   5.282  0.1970 -0.4648 -2.8155
36676SOL    HW220343   5.584   3.136   5.266 -1.0615 -2.0183 -0.5421
36677SOL     OW20344   8.258   0.700   5.328 -0.2738  0.3008 -0.0188
36677SOL    HW120345   8.260   0.765   5.258  0.4270 -1.1976 -1.4658
36677SOL    HW220346   8.169   0.667   5.328  0.0868 -0.7271 -1.2387
36678SOL     OW20347   6.760   0.808   9.558 -0.3288 -0.0350 -0.4107
36678SOL    HW120348   6.767   0.900   9.584  1.7538 -0.0476 -0.7678
36678SOL    HW220349   6.774   0.759   9.639 -1.4443 -0.0670 -0.2190
36679SOL     OW20350  12.533   9.408   6.831  0.3789 -0.1007 -0.0999
36679SOL    HW120351  12.500   9.427   6.919 -0.4471  0.1286 -0.4554
36679SOL    HW220352  12.623   9.378   6.845 -0.1267 -1.2170  0.9277
36680SOL     OW20353   3.912   8.975   3.713 -0.2483  0.3326  0.5935
36680SOL    HW120354   3.857   8.896   3.715  0.2871 -0.0548  0.4213
36680SOL    HW220355   3.953   8.977   3.800  0.1749  0.1030  0.4004
36681SOL     OW20356   2.937   5.942  11.917 -0.5047 -0.3478  0.2806
36681SOL    HW120357   2.858   5.912  11.872  0.2458 -0.8236 -0.7609
36681SOL    HW220358   2.951   6.031  11.884  1.0035 -1.2843 -1.8628
36682SOL     OW20359  11.663   7.470   1.426 -0.3289  0.1714  0.0786
36682SOL    HW120360  11.612   7.388   1.421  2.7939 -1.9117 -0.5572
36682SOL    HW220361  11.701   7.480   1.339  3.3016 -0.5719  1.4043
36683SOL     OW20362   0.518  12.175   7.831  0.1611  0.5824  0.0029
36683SOL    HW120363   0.591  12.190   7.771  0.5717  2.0330  0.8164
36683SOL    HW220364   0.440  12.185   7.776  0.5440 -0.9806 -0.8749
36684SOL     OW20365   0.760   5.777   7.734  0.0380 -0.0916  0.0450
36684SOL    HW120366   0.759   5.701   7.676 -0.8773 -1.5710  1.8628
36684SOL    HW220367   0.853   5.793   7.751  0.2975  0.1435 -1.4899
36685SOL     OW20368   9.300   2.191   7.695  0.1947 -0.1113  0.1462
36685SOL    HW120369   9.389   2.174   7.665  0.0729 -1.5138  0.5225
36685SOL    HW220370   9.307   2.273   7.744  0.6184  1.6349 -2.6056
36686SOL     OW20371   9.452  10.364   4.628  0.6678 -0.0046  0.4560
36686SOL    HW120372   9.519  10.387   4.564 -0.0795 -1.1370 -0.7928
36686SOL    HW220373   9.500  10.343   4.708  1.8429 -1.1300 -0.5034
36687SOL     OW20374   4.470  11.176   5.871  0.9979  0.0616  0.1917
36687SOL    HW120375   4.433  11.192   5.958  1.0095 -1.6392  0.5368
36687SOL    HW220376   4.404  11.210   5.810 -0.3177 -1.2415  0.8303
36688SOL     OW20377   8.547   1.554   0.080 -0.2128 -0.3119  0.2835
36688SOL    HW120378   8.536   1.553   0.175  0.2893 -0.9286  0.3473
36688SOL    HW220379   8.527   1.643   0.053 -0.2055 -0.0967  0.9912
36689SOL     OW20380  10.966  12.306   8.463 -0.0361  0.4227  0.7274
36689SOL    HW120381  11.022  12.229   8.463 -0.6295 -0.0334  1.6926
36689SOL    HW220382  10.891  12.283   8.408  0.2500  0.6821  0.2181
36690SOL     OW20383  11.030   7.189   9.641 -0.9164 -0.4730 -0.4924
36690SOL    HW120384  10.941   7.205   9.674 -0.4600  0.6308  0.2588
36690SOL    HW220385  11.045   7.259   9.577 -0.2988 -0.1735 -0.0255
36691SOL     OW20386   2.234   6.443   8.326  0.3425  0.1204 -1.1906
36691SOL    HW120387   2.224   6.534   8.297  0.4942 -0.2072 -2.3284
36691SOL    HW220388   2.159   6.397   8.289 -1.3159  0.2622  1.7000
36692SOL     OW20389  10.868   3.263   5.965  0.3554  0.5398  0.1223
36692SOL    HW120390  10.846   3.170   5.956 -0.6129  0.8009 -0.3042
36692SOL    HW220391  10.957   3.270   5.929  0.2758 -0.1512 -0.2245
36693SOL     OW20392   0.814   0.048  11.475  0.0606 -0.3185 -0.1343
36693SOL    HW120393   0.798  -0.017  11.543 -1.6982  0.5839  0.3792
36693SOL    HW220394   0.755   0.120  11.496  2.6005  1.9198 -0.0950
36694SOL     OW20395  12.067   6.606   3.641 -0.7942 -0.1260  0.1771
36694SOL    HW120396  12.055   6.511   3.642 -1.0634 -0.0947  1.2435
36694SOL    HW220397  11.991   6.640   3.690 -1.7023  0.7717 -1.7589
36695SOL     OW20398   5.946   8.267  10.533 -0.0435 -0.3501  0.3421
36695SOL    HW120399   6.013   8.235  10.472  1.7770  1.9491  0.9706
36695SOL    HW220400   5.919   8.350  10.496 -0.6149 -0.0185  1.4726
36696SOL     OW20401   2.557   7.698   1.344  0.1311  0.5469  0.1783
36696SOL    HW120402   2.621   7.643   1.299 -2.0490  0.7838 -3.7071
36696SOL    HW220403   2.520   7.642   1.412  2.3851 -0.5298  0.5861
36697SOL     OW20404  12.011   2.111  11.962  0.2733  0.3072  0.2749
36697SOL    HW120405  12.045   2.034  12.007  0.6688  0.1812 -0.2331
36697SOL    HW220406  12.055   2.185  12.003  0.5720  0.1983  0.1543
36698SOL     OW20407   3.466  10.523   2.251  0.6537  0.6378  0.4485
36698SOL    HW120408   3.535  10.589   2.246  2.7472 -1.4840 -2.6937
36698SOL    HW220409   3.512  10.440   2.260 -1.5656 -0.7682 -0.2264
36699SOL     OW20410   9.693  10.101   6.721 -0.4349  0.2484  0.1993
36699SOL    HW120411   9.660  10.035   6.782 -0.8711 -1.3903 -1.7081
36699SOL    HW220412   9.642  10.088   6.642  1.3020  1.0929 -1.1251
36700SOL     OW20413   5.396  10.663  12.777 -0.6033  0.5262  0.0581
36700SOL    HW120414   5.461  10.615  12.725 -0.2300  0.7910  0.2698
36700SOL    HW220415   5.339  10.595  12.812  0.6565  0.1022  1.3713
36701SOL     OW20416  11.409   9.146  10.705 -0.0596  0.1800 -0.2389
36701SOL    HW120417  11.414   9.097  10.787  0.5922  0.6943  0.0445
36701SOL    HW220418  11.415   9.080  10.636 -2.5087 -0.4630  0.0780
36702SOL     OW20419   6.512   0.837   0.182 -0.1302  0.0061 -0.4345
36702SOL    HW120420   6.552   0.790   0.110 -0.6670  1.3647 -1.6748
36702SOL    HW220421   6.486   0.922   0.144 -1.4223  0.3337  1.0598
36703SOL     OW20422   2.901   4.554   0.425  0.2056  0.4607 -0.6121
36703SOL    HW120423   2.834   4.601   0.475  1.3204  2.6044 -1.0321
36703SOL    HW220424   2.984   4.594   0.452  1.4373 -2.3242  0.1270
36704SOL     OW20425   2.890  10.597   7.862 -0.2552 -0.3528  0.6934
36704SOL    HW120426   2.949  10.525   7.840 -0.0657 -0.6068  1.9253
36704SOL    HW220427   2.947  10.661   7.905 -0.7462 -0.3093  1.2930
36705SOL     OW20428   0.272   9.469  10.103  0.3030 -0.1108  0.2742
36705SOL    HW120429   0.293   9.516  10.022  1.1478 -1.4828 -0.3406
36705SOL    HW220430   0.289   9.533  10.172 -0.3318  1.0567 -0.6093
36706SOL     OW20431   4.403  12.138   4.529 -0.4556 -0.0882 -0.2199
36706SOL    HW120432   4.472  12.073   4.536 -2.2267 -2.0757 -0.3201
36706SOL    HW220433   4.376  12.154   4.619 -1.6550 -1.4088 -0.3058
36707SOL     OW20434   1.929   9.979  10.701  0.0436 -0.1650  0.5456
36707SOL    HW120435   1.937   9.998  10.794  0.2801 -0.5039  0.5953
36707SOL    HW220436   1.985  10.044  10.659 -0.6015  0.4246  0.5935
36708SOL     OW20437   4.453   5.441   5.141  0.1955 -0.2354 -0.5507
36708SOL    HW120438   4.391   5.426   5.211 -0.0523 -1.1092 -0.9505
36708SOL    HW220439   4.490   5.528   5.160 -2.6018  1.2699 -1.3940
36709SOL     OW20440  11.089   1.308   9.066  0.2158 -0.3413  0.3656
36709SOL    HW120441  11.060   1.331   8.978  1.6181  2.5073  0.5405
36709SOL    HW220442  11.180   1.281   9.055  0.1513 -0.7865  0.8560
36710SOL     OW20443   2.274   6.248   1.504 -0.0201 -0.2463  0.1783
36710SOL    HW120444   2.301   6.188   1.574  0.0272 -0.7282 -0.2430
36710SOL    HW220445   2.324   6.328   1.519  1.3850 -0.9895 -0.3826
36711SOL     OW20446   3.915  10.987   9.610 -0.1277 -0.5140  0.0501
36711SOL    HW120447   3.898  10.957   9.521 -1.0280 -0.8824  0.3406
36711SOL    HW220448   3.861  10.931   9.666 -1.1071  0.9823  0.6688
36712SOL     OW20449   3.834   5.689   5.667  0.3303  0.2125  0.4203
36712SOL    HW120450   3.909   5.630   5.663  0.9758  1.0154  0.5764
36712SOL    HW220451   3.812   5.694   5.761 -0.1579 -0.3064  0.3410
36713SOL     OW20452   8.219  10.100  11.632 -0.0509 -0.6031  0.1520
36713SOL    HW120453   8.128  10.082  11.610 -0.5052 -0.2506  1.5872
36713SOL    HW220454   8.263  10.114  11.548 -0.9758 -2.2712 -0.6464
36714SOL     OW20455   2.886   7.233   8.134 -0.5397 -0.1233 -0.5778
36714SOL    HW120456   2.945   7.302   8.165  1.2063 -1.6435 -0.3214
36714SOL    HW220457   2.911   7.156   8.184  0.2040 -1.8977 -3.4478
36715SOL     OW20458   5.025  11.324   4.760 -0.0118 -0.9325  0.0930
36715SOL    HW120459   5.068  11.371   4.688  0.1409  0.7011  1.2069
36715SOL    HW220460   4.943  11.293   4.723  1.5499 -3.1618 -1.7720
36716SOL     OW20461   5.747   0.256   8.748 -0.6647  0.6277  0.3169
36716SOL    HW120462   5.833   0.298   8.754  0.1044 -0.6264 -1.1414
36716SOL    HW220463   5.765   0.170   8.711 -2.5788  0.3498 -0.0752
36717SOL     OW20464  12.234   1.895  10.734  0.1495 -0.3026 -0.2813
36717SOL    HW120465  12.257   1.965  10.795  0.6802  0.4816 -1.3252
36717SOL    HW220466  12.160   1.850  10.774 -0.0856  0.7517  0.5042
36718SOL     OW20467   7.973   8.950   7.382 -0.6120 -0.8010 -0.3974
36718SOL    HW120468   7.966   9.024   7.322 -1.0612  0.5565  1.2449
36718SOL    HW220469   8.038   8.977   7.447 -1.6450 -1.3044  0.9057
36719SOL     OW20470   5.750   5.461   6.302  0.1735 -0.4291 -0.6251
36719SOL    HW120471   5.758   5.481   6.208 -0.2770  0.5170 -0.4703
36719SOL    HW220472   5.689   5.387   6.305  0.9083 -1.0793 -1.1282
36720SOL     OW20473   0.803   3.841   0.956  0.2711 -0.0625  0.2251
36720SOL    HW120474   0.822   3.749   0.936 -0.9156 -0.5798  1.3282
36720SOL    HW220475   0.888   3.879   0.978  0.6153 -1.2467  1.0591
36721SOL     OW20476   6.907   5.629   3.145 -0.5438 -0.2233  0.2323
36721SOL    HW120477   6.847   5.557   3.126 -0.1346 -0.3708 -0.5646
36721SOL    HW220478   6.851   5.706   3.148 -0.6967 -0.2450 -1.2741
36722SOL     OW20479   1.405   3.908   7.182  0.9284 -0.0135 -0.2617
36722SOL    HW120480   1.468   3.932   7.250  0.9853 -0.4892 -0.1452
36722SOL    HW220481   1.383   3.817   7.200  1.8963 -0.5405 -1.6261
36723SOL     OW20482   3.989   6.618   5.049  0.3417  0.2704 -0.0325
36723SOL    HW120483   4.018   6.537   5.007  0.8182 -0.8906  2.3524
36723SOL    HW220484   3.906   6.595   5.091  0.3123  1.1050  0.3872
36724SOL     OW20485   4.065   0.061  11.039  0.3159  0.1376  0.2869
36724SOL    HW120486   4.116  -0.001  11.091 -2.0524 -1.1207  1.3158
36724SOL    HW220487   4.081   0.146  11.080  0.2473 -0.4947  1.6833
36725SOL     OW20488  12.198   3.612   5.529 -0.0356  0.0435 -0.2759
36725SOL    HW120489  12.168   3.703   5.536  0.5244  0.2828 -0.8694
36725SOL    HW220490  12.185   3.589   5.437  2.9805  0.6849 -0.9535
36726SOL     OW20491   6.534   4.428   6.130 -0.0652  0.6240 -0.1683
36726SOL    HW120492   6.493   4.398   6.211  0.1545  0.3791 -0.1487
36726SOL    HW220493   6.460   4.445   6.071 -0.2115  0.5337 -0.0108
36727SOL     OW20494  12.703   2.620   3.911 -0.8033  0.2177 -0.1097
36727SOL    HW120495  12.611   2.629   3.888 -1.1958  0.6673  1.5370
36727SOL    HW220496  12.703   2.563   3.988  0.2172  0.9521  0.4571
36728SOL     OW20497   1.577   6.377   9.579 -0.3596  0.2712 -0.1905
36728SOL    HW120498   1.577   6.332   9.664  1.8102 -2.3185 -1.4073
36728SOL    HW220499   1.660   6.353   9.539 -1.5097  0.9508 -3.3067
36729SOL     OW20500  12.431   2.584   0.966  0.4331  0.3933  0.1603
36729SOL    HW120501  12.464   2.672   0.949 -0.1949  1.1522  2.5013
36729SOL    HW220502  12.497   2.544   1.022  0.8307 -0.7518 -1.0800
36730SOL     OW20503   0.183   6.067   4.767 -0.6356  0.1928  0.0672
36730SOL    HW120504   0.138   6.101   4.690  0.2974 -0.0223 -0.6009
36730SOL    HW220505   0.151   5.977   4.775  2.9613 -1.6859 -3.2782
36731SOL     OW20506   3.091   6.806   3.902  0.7130 -0.1938 -0.1719
36731SOL    HW120507   3.026   6.867   3.868  1.4609  0.6189 -0.1761
36731SOL    HW220508   3.134   6.854   3.974  0.2016 -1.3122  0.9182
36732SOL     OW20509   9.600  11.917   1.632 -0.6358  0.3043  0.1291
36732SOL    HW120510   9.531  11.858   1.601  0.3933 -0.0906 -1.5217
36732SOL    HW220511   9.666  11.859   1.671 -1.0294  0.6509  1.3659
36733SOL     OW20512  11.173   1.591   1.745  0.1917 -0.4729  0.1691
36733SOL    HW120513  11.244   1.622   1.802  0.7114  0.2710 -0.8441
36733SOL    HW220514  11.113   1.666   1.739  1.2573  0.2754 -1.9926
36734SOL     OW20515   4.084  12.725   1.925 -0.8607 -0.4485  0.3068
36734SOL    HW120516   4.024  12.800   1.934  0.5557  0.9970 -1.3861
36734SOL    HW220517   4.053  12.680   1.846  0.0652  0.1616 -0.4315
36735SOL     OW20518   7.796   6.775   2.444  0.1175 -0.2374  0.1500
36735SOL    HW120519   7.795   6.824   2.361  0.5295  0.3612  0.4860
36735SOL    HW220520   7.880   6.729   2.444 -0.0920 -0.6184  0.0182
36736SOL     OW20521  11.344   9.254   3.186 -0.0962 -0.0810 -0.2881
36736SOL    HW120522  11.387   9.179   3.228 -0.5846  0.9455  2.2164
36736SOL    HW220523  11.257   9.221   3.162 -0.0063 -0.5652  0.0238
36737SOL     OW20524   7.560  12.666  12.894 -0.4427  0.3210 -0.1259
36737SOL    HW120525   7.572  12.650  12.800  2.1067 -0.5216  0.2626
36737SOL    HW220526   7.622  12.737  12.914 -0.5793  0.1338  0.9914
36738SOL     OW20527  10.293  12.557   0.883 -0.4577  0.3220 -0.0917
36738SOL    HW120528  10.375  12.531   0.924 -0.5977 -1.2726 -0.7645
36738SOL    HW220529  10.280  12.495   0.812 -0.7920  2.3178 -1.8838
36739SOL     OW20530   5.421  11.526   3.939 -0.3163 -0.0458  0.1773
36739SOL    HW120531   5.413  11.487   3.852 -2.6444 -0.0806  0.3551
36739SOL    HW220532   5.429  11.620   3.923  0.1050 -0.1225 -0.0815
36740SOL     OW20533   7.688   1.064   4.568  0.5103 -0.3192  0.2579
36740SOL    HW120534   7.653   1.021   4.646 -0.3266 -1.7105 -0.8316
36740SOL    HW220535   7.724   1.147   4.600 -0.8533 -0.3227  1.9372
36741SOL     OW20536   5.050   9.131   8.610 -0.6617 -0.1224 -0.6131
36741SOL    HW120537   5.058   9.059   8.673 -1.3619 -1.3622 -1.8978
36741SOL    HW220538   5.140   9.159   8.594 -0.4575  0.0581  0.7336
36742SOL     OW20539   5.803  12.502   6.743 -0.5444 -0.4050  0.0189
36742SOL    HW120540   5.845  12.447   6.808  0.5319  0.9646  0.5190
36742SOL    HW220541   5.750  12.563   6.793  1.5612  1.7406 -0.1843
36743SOL     OW20542   3.886   7.080  12.326  0.0613 -0.4908 -0.0712
36743SOL    HW120543   3.837   7.082  12.244 -2.4125 -1.8746  1.2678
36743SOL    HW220544   3.857   7.158  12.374  0.6273 -0.3005 -0.0298
36744SOL     OW20545  12.543   9.168  10.128 -0.0777 -0.2771  0.3595
36744SOL    HW120546  12.568   9.187  10.218 -0.2212 -1.0423  0.5692
36744SOL    HW220547  12.623   9.184  10.077 -0.2502  1.0591  0.4785
36745SOL     OW20548   4.315   1.871   8.387  0.0938 -0.5053  0.8084
36745SOL    HW120549   4.296   1.831   8.302  1.4488 -0.5545  0.5079
36745SOL    HW220550   4.299   1.964   8.374 -1.4213 -0.7043  1.0292
36746SOL     OW20551   1.321   2.300   0.844 -0.3266  0.5666 -0.4320
36746SOL    HW120552   1.407   2.282   0.805 -0.7507 -0.2831 -0.9992
36746SOL    HW220553   1.304   2.225   0.901 -1.4176 -0.1355 -1.6160
36747SOL     OW20554   1.578   0.741   0.061 -0.2584  0.1046 -0.6234
36747SOL    HW120555   1.568   0.729  -0.033 -1.2212  0.4364 -0.5782
36747SOL    HW220556   1.490   0.763   0.092  0.3846  1.9525  0.0518
36748SOL     OW20557   8.731  12.879   8.504 -0.1848  0.5602 -0.8470
36748SOL    HW120558   8.759  12.872   8.595  2.0818 -0.3858 -1.5433
36748SOL    HW220559   8.774  12.958   8.472 -1.7767  1.4505 -0.8815
36749SOL     OW20560   8.064  10.995   0.001 -0.2775 -0.0954  0.2603
36749SOL    HW120561   8.152  11.010  -0.034 -0.0675 -0.4196  0.6464
36749SOL    HW220562   8.077  10.935   0.074 -0.6794  0.8406  1.1209
36750SOL     OW20563   2.740   6.105   3.353  0.9484  0.1607  0.3605
36750SOL    HW120564   2.657   6.070   3.321  0.7256  0.0819  1.0065
36750SOL    HW220565   2.802   6.089   3.282  0.1864  1.1853 -0.5837
36751SOL     OW20566   0.364   1.146  12.716 -0.1279  0.6037  0.7042
36751SOL    HW120567   0.391   1.238  12.712  0.8177  0.3084 -2.2049
36751SOL    HW220568   0.446   1.097  12.716 -0.6258 -0.2408  0.3537
36752SOL     OW20569   9.686   7.028   4.179  0.0342  0.0914  0.4249
36752SOL    HW120570   9.607   7.031   4.232 -0.8413  1.8555 -0.8506
36752SOL    HW220571   9.735   7.107   4.202  0.6896 -0.2128  0.1329
36753SOL     OW20572   7.032   9.657   7.750  0.7096  0.2484  0.2056
36753SOL    HW120573   7.011   9.750   7.749  0.3020  0.1633  0.5315
36753SOL    HW220574   7.107   9.648   7.809 -1.3674 -0.0438  3.0167
36754SOL     OW20575   1.297   4.132  12.067  0.0809 -0.0856 -0.2024
36754SOL    HW120576   1.346   4.164  12.143  0.8824 -0.5593 -0.5007
36754SOL    HW220577   1.208   4.163  12.080  0.4831  0.8918  0.3159
36755SOL     OW20578  11.599  12.600   1.230  0.4206  0.2170  0.1453
36755SOL    HW120579  11.666  12.662   1.260  1.5376  0.5603 -2.7518
36755SOL    HW220580  11.649  12.526   1.197 -0.6330  0.2038 -1.5063
36756SOL     OW20581   7.167   8.169   8.209 -0.1324 -0.1369 -0.0696
36756SOL    HW120582   7.209   8.206   8.132  1.2016  0.0017  0.6830
36756SOL    HW220583   7.160   8.243   8.270  1.2099 -0.7582  0.8933
36757SOL     OW20584  12.260  10.249   7.799 -0.2324 -0.2176 -0.2893
36757SOL    HW120585  12.273  10.339   7.769  2.2750 -0.9508 -1.7109
36757SOL    HW220586  12.208  10.207   7.730  0.1048 -0.3013 -0.4934
36758SOL     OW20587   8.972   2.377  11.432 -0.3373 -0.0789  0.3120
36758SOL    HW120588   9.063   2.378  11.404 -0.7209  0.5081 -0.9972
36758SOL    HW220589   8.929   2.442  11.376 -1.7911 -1.2374  0.0192
36759SOL     OW20590   1.905  10.574   2.528  0.3622  0.5939  0.6397
36759SOL    HW120591   1.912  10.543   2.438  0.5997 -0.2814  0.9443
36759SOL    HW220592   1.987  10.621   2.543  0.3595  0.6682  0.4304
36760SOL     OW20593   3.361   9.919   8.532 -0.3393 -0.4000 -0.1626
36760SOL    HW120594   3.407   9.838   8.512  1.0366  0.2120  0.4409
36760SOL    HW220595   3.279   9.891   8.574 -0.6343 -1.4960 -1.4131
36761SOL     OW20596   1.082   2.351   0.015  0.1257 -0.2732 -0.2970
36761SOL    HW120597   1.141   2.320   0.083 -0.7019 -0.7801  0.2129
36761SOL    HW220598   1.070   2.276  -0.043  0.4994  0.0292 -0.7697
36762SOL     OW20599   7.733   3.427   2.804 -0.5654  0.0080 -0.2916
36762SOL    HW120600   7.701   3.478   2.879  1.1026 -0.5144  0.8332
36762SOL    HW220601   7.812   3.473   2.776  1.1371 -2.0011  0.9230
36763SOL     OW20602   3.792   3.300   1.938 -0.2512  0.0841  0.1566
36763SOL    HW120603   3.832   3.229   1.887 -0.1593  0.9291 -0.9961
36763SOL    HW220604   3.698   3.287   1.925 -0.3084  2.5545 -3.7233
36764SOL     OW20605   1.930   3.142   9.014 -0.1281  0.1563  0.7336
36764SOL    HW120606   1.911   3.057   9.053 -0.7463  0.0133  0.1552
36764SOL    HW220607   2.020   3.162   9.041 -0.4831  0.0079  2.0823
36765SOL     OW20608   0.494  11.789   1.722 -0.5394 -0.1038 -0.3545
36765SOL    HW120609   0.420  11.841   1.691 -0.7574 -0.4104 -0.3579
36765SOL    HW220610   0.454  11.719   1.773 -0.2542 -0.3073 -0.4088
36766SOL     OW20611   9.324   8.961   5.675  0.4314  0.5168  0.1164
36766SOL    HW120612   9.280   8.988   5.755 -0.6253 -0.6268 -0.0537
36766SOL    HW220613   9.283   8.877   5.652  0.3109  1.0777 -1.9069
36767SOL     OW20614   3.065   6.537   3.492  0.6084  0.0478  0.9482
36767SOL    HW120615   2.991   6.583   3.533 -0.2123 -0.7544  0.4076
36767SOL    HW220616   3.057   6.557   3.399  0.6804 -0.5805  0.8036
36768SOL     OW20617   3.132   1.906   9.602 -0.4713 -0.3687  0.1476
36768SOL    HW120618   3.077   1.977   9.571  1.3152  0.3942 -1.4742
36768SOL    HW220619   3.165   1.936   9.687  1.2345  1.3852 -1.0519
36769SOL     OW20620   1.015  11.871   8.267 -0.3379  0.1605 -0.1235
36769SOL    HW120621   0.948  11.855   8.200  0.5328 -3.8688 -0.3017
36769SOL    HW220622   0.968  11.868   8.350 -0.6023 -1.9733 -0.2882
36770SOL     OW20623   8.782   5.363   8.097 -0.5222 -0.3774  0.3668
36770SOL    HW120624   8.850   5.333   8.157 -1.4219  1.3530  2.3864
36770SOL    HW220625   8.814   5.447   8.064 -0.6171 -0.7108 -0.5912
36771SOL     OW20626   9.895  11.051  11.520 -0.3745 -0.2259 -0.7291
36771SOL    HW120627   9.928  11.005  11.443  0.4263 -0.7003 -0.1278
36771SOL    HW220628   9.942  11.010  11.593 -2.3996 -1.0331  0.2025
36772SOL     OW20629   0.800   2.376   6.840  0.5911 -0.1028  0.2193
36772SOL    HW120630   0.778   2.462   6.875  0.1615 -0.0062 -0.2831
36772SOL    HW220631   0.859   2.394   6.766 -1.3643 -0.0725 -1.4054
36773SOL     OW20632   3.867  10.609  10.521 -0.2923 -0.3263 -0.3649
36773SOL    HW120633   3.814  10.535  10.491 -1.7566 -0.3043  1.9848
36773SOL    HW220634   3.841  10.624  10.612  0.2521  2.8264 -0.5904
36774SOL     OW20635  12.681   9.585  10.945  0.2210  0.0793  0.0925
36774SOL    HW120636  12.685   9.679  10.933 -0.4298  0.2310  0.9536
36774SOL    HW220637  12.772   9.558  10.957  0.2823  0.8464  1.5146
36775SOL     OW20638   9.714   3.615   0.662  0.7973 -0.0759  0.4008
36775SOL    HW120639   9.672   3.530   0.654  0.3244  0.2505 -0.8560
36775SOL    HW220640   9.713   3.634   0.756  1.1726 -1.5654  0.7290
36776SOL     OW20641   2.485   8.449   8.545  0.8241  0.0745 -0.3873
36776SOL    HW120642   2.472   8.455   8.640  1.8116 -0.7386 -0.1829
36776SOL    HW220643   2.421   8.384   8.516  0.4455  0.4041 -0.3041
36777SOL     OW20644   0.633   5.212   6.461  0.2272 -0.0386 -0.1336
36777SOL    HW120645   0.567   5.272   6.494  0.0325 -0.9491  1.2073
36777SOL    HW220646   0.684   5.265   6.399 -1.8216  0.6378 -1.3487
36778SOL     OW20647   8.206  10.242   2.076 -0.2885  0.0465 -0.3594
36778SOL    HW120648   8.272  10.233   2.145 -0.4955 -1.3246 -0.3168
36778SOL    HW220649   8.235  10.317   2.025  1.1219 -0.3060 -0.1161
36779SOL     OW20650  12.404   0.088   5.326 -0.3184  0.4504 -0.1458
36779SOL    HW120651  12.448   0.100   5.242 -0.9422 -1.9954 -0.8761
36779SOL    HW220652  12.461   0.029   5.375 -0.4773  1.0379  0.7759
36780SOL     OW20653   8.877   1.607   5.484 -0.0608  0.3782  0.1582
36780SOL    HW120654   8.972   1.618   5.480  0.0482 -0.3650  0.6089
36780SOL    HW220655   8.842   1.696   5.484  0.6857  0.6827  1.2194
36781SOL     OW20656   3.939  10.045   0.728  0.6702  0.3284 -0.0305
36781SOL    HW120657   3.909   9.964   0.770 -0.1412  0.3503 -0.5514
36781SOL    HW220658   3.960  10.018   0.638  1.4253  0.4844  0.0937
36782SOL     OW20659   8.667   3.887   2.202  0.3586 -0.3650  0.2847
36782SOL    HW120660   8.749   3.837   2.199  0.2934 -0.4812  0.4626
36782SOL    HW220661   8.655   3.908   2.295  0.4250  0.0443  0.2024
36783SOL     OW20662   5.046   4.740   9.351  0.1184  0.1120 -0.3207
36783SOL    HW120663   5.099   4.810   9.388  0.3043 -0.2201  0.0439
36783SOL    HW220664   4.983   4.786   9.294 -0.2512  0.6427  0.4931
36784SOL     OW20665   6.836  10.632   7.630 -0.1415 -0.0161 -0.4256
36784SOL    HW120666   6.798  10.616   7.716 -2.0983  0.2293 -1.2037
36784SOL    HW220667   6.859  10.725   7.631 -1.0203  0.2101 -0.4708
36785SOL     OW20668   5.729   6.736   1.906 -0.0059  0.0293  0.3654
36785SOL    HW120669   5.733   6.671   1.836 -1.0781  0.0570  0.2577
36785SOL    HW220670   5.765   6.692   1.983  2.0694  0.3009 -0.3826
36786SOL     OW20671   2.822   2.521   9.979 -0.0679  0.2595  0.5514
36786SOL    HW120672   2.797   2.517  10.071 -0.5481  1.2083  0.4746
36786SOL    HW220673   2.791   2.438   9.942  0.5560 -0.3346  1.3372
36787SOL     OW20674   1.069   2.785   2.466  0.0293  0.1639  0.0584
36787SOL    HW120675   1.118   2.704   2.475  2.1224  1.2727 -0.6288
36787SOL    HW220676   1.124   2.852   2.507 -0.7074  1.5383 -1.0741
36788SOL     OW20677   6.846   3.916   3.365  0.1200  0.1045 -0.0288
36788SOL    HW120678   6.773   3.972   3.341 -0.6319 -1.0747 -0.6050
36788SOL    HW220679   6.849   3.921   3.461 -1.0571 -0.2158  0.0461
36789SOL     OW20680   1.166   2.630  12.037 -0.3133  0.0972 -0.2735
36789SOL    HW120681   1.159   2.571  12.112  1.1308  0.8725  0.5210
36789SOL    HW220682   1.124   2.583  11.965 -0.9138 -1.0546  0.7960
36790SOL     OW20683   8.398   1.847   5.718  0.4052 -0.1988  0.5530
36790SOL    HW120684   8.434   1.778   5.662  0.1468  0.8989 -1.0509
36790SOL    HW220685   8.418   1.819   5.807  1.1535 -1.8537 -0.0926
36791SOL     OW20686  12.548  12.874   6.905 -0.3777 -0.0150 -0.1683
36791SOL    HW120687  12.523  12.790   6.945 -0.2073  0.0692  0.1120
36791SOL    HW220688  12.590  12.849   6.823 -1.5987 -0.1555 -0.7769
36792SOL     OW20689   7.869   8.207   3.996 -0.2679  0.2267  0.0368
36792SOL    HW120690   7.871   8.112   4.007  0.2898 -0.2246 -3.1744
36792SOL    HW220691   7.813   8.238   4.068 -1.2079 -2.5890  0.6464
36793SOL     OW20692   1.486   3.222   2.394 -0.0813  0.1441 -0.4847
36793SOL    HW120693   1.435   3.201   2.316  0.1496  2.8786 -1.4667
36793SOL    HW220694   1.422   3.261   2.455 -0.2589 -1.9445  0.7900
36794SOL     OW20695   8.729   0.123   4.560 -0.5081 -0.3200 -0.3565
36794SOL    HW120696   8.664   0.082   4.617 -1.4783  0.3060 -0.9825
36794SOL    HW220697   8.725   0.216   4.583  1.2512 -0.4341  0.6389
36795SOL     OW20698  12.239   0.318   0.628 -0.1008  0.2442 -0.0035
36795SOL    HW120699  12.303   0.256   0.592 -1.2302 -2.0146  1.5796
36795SOL    HW220700  12.273   0.340   0.714 -1.2340 -0.7508  0.7373
36796SOL     OW20701   1.294  12.951   9.928  0.3291 -0.7784  0.1615
36796SOL    HW120702   1.270  12.993  10.011  0.0923  0.4164 -0.4973
36796SOL    HW220703   1.354  13.012   9.886 -0.4653 -0.8167 -1.0806
36797SOL     OW20704   0.693   7.493   5.128  0.0298  0.1431  0.2081
36797SOL    HW120705   0.648   7.553   5.187  0.2496  1.4435 -0.8795
36797SOL    HW220706   0.626   7.429   5.104 -0.1424 -0.2321  1.5976
36798SOL     OW20707  11.655   8.373  10.460 -0.0427  0.4398 -0.0026
36798SOL    HW120708  11.703   8.341  10.383 -2.0490 -0.1505 -1.0892
36798SOL    HW220709  11.642   8.467  10.442 -0.5646  0.2901 -0.4555
36799SOL     OW20710   4.099  10.291   9.733 -0.0618  0.2151 -0.7552
36799SOL    HW120711   4.109  10.233   9.658 -0.2334 -0.3868 -0.3242
36799SOL    HW220712   4.187  10.323   9.751  0.3771 -1.3218  0.0898
36800SOL     OW20713   6.625   7.913   5.696  0.0886  0.4660 -0.1338
36800SOL    HW120714   6.640   7.868   5.779 -1.1502 -0.0904 -0.1789
36800SOL    HW220715   6.545   7.964   5.711 -0.8561 -0.6072 -1.3313
36801SOL     OW20716  12.667   3.340  11.860  0.3223  0.0162  0.4114
36801SOL    HW120717  12.761   3.332  11.877  0.4449 -0.7006 -0.5160
36801SOL    HW220718  12.651   3.278  11.789 -1.0050 -0.4755  1.1204
36802SOL     OW20719   1.365   3.517  10.023  0.1428  0.2227  0.1823
36802SOL    HW120720   1.363   3.612  10.028 -0.3337  0.2381 -0.2438
36802SOL    HW220721   1.292   3.494   9.965  1.0087 -0.3381 -0.7177
36803SOL     OW20722   3.264   4.090   5.052  0.1085  0.0285 -0.0774
36803SOL    HW120723   3.322   4.037   4.997  0.4864 -0.0818  0.4138
36803SOL    HW220724   3.321   4.158   5.087  0.4909 -1.3432  2.1459
36804SOL     OW20725   9.624   1.381  10.360  0.1743 -0.2625 -0.6013
36804SOL    HW120726   9.552   1.441  10.380  0.8340  0.2906  0.1877
36804SOL    HW220727   9.589   1.321  10.294  0.0057  2.0264 -2.7128
36805SOL     OW20728  12.169   6.946   0.982  0.3966 -0.1521 -1.3474
36805SOL    HW120729  12.167   7.026   0.929 -0.7477  1.6994  1.2687
36805SOL    HW220730  12.077   6.933   1.008  0.9760 -0.6600  0.5543
36806SOL     OW20731   1.558   6.029   1.609 -0.4506 -0.0693 -0.6578
36806SOL    HW120732   1.517   6.113   1.588 -0.1601  0.2532  0.0365
36806SOL    HW220733   1.604   6.004   1.529 -1.4260 -0.1056 -1.2267
36807SOL     OW20734   8.282   9.691  11.022  0.3623  0.2834 -0.0280
36807SOL    HW120735   8.338   9.768  11.014  1.3948 -0.4587 -0.1271
36807SOL    HW220736   8.195   9.721  10.995  1.2126  0.8594 -2.2644
36808SOL     OW20737   9.055  12.739   2.635  0.0458  0.9690 -0.0593
36808SOL    HW120738   8.968  12.775   2.615  0.0217  0.8853 -0.1075
36808SOL    HW220739   9.115  12.791   2.581  0.1759  1.9064  0.9637
36809SOL     OW20740  11.207  11.099  10.431  0.4861  0.0808 -0.8992
36809SOL    HW120741  11.289  11.139  10.459  0.5794 -1.1188  0.6789
36809SOL    HW220742  11.140  11.164  10.454  0.7385 -0.1420  0.5620
36810SOL     OW20743   7.467   7.379   2.283  0.2132  0.2224  0.2292
36810SOL    HW120744   7.430   7.356   2.368  0.5065 -0.3935  0.1909
36810SOL    HW220745   7.406   7.342   2.219 -1.8048  3.4133  0.0983
36811SOL     OW20746   0.536   2.667  12.697  0.2341  0.2013 -0.3127
36811SOL    HW120747   0.596   2.648  12.625 -0.1065  0.6407 -0.7300
36811SOL    HW220748   0.468   2.722  12.657 -0.1103  0.2254  0.2853
36812SOL     OW20749   8.969   6.879   0.683  0.1124  0.6526  0.2269
36812SOL    HW120750   9.050   6.836   0.658 -0.8958 -1.5515  0.4677
36812SOL    HW220751   8.975   6.967   0.646  1.9690  0.0588 -0.9851
36813SOL     OW20752   8.774   8.886   1.613 -0.1211 -0.3091  0.2181
36813SOL    HW120753   8.780   8.839   1.696 -0.8866 -0.8703 -0.0234
36813SOL    HW220754   8.697   8.847   1.570  0.5073 -0.3129 -0.9282
36814SOL     OW20755  10.196   2.093   4.356  0.6331 -0.6012 -0.7202
36814SOL    HW120756  10.164   2.038   4.285 -0.5740  0.0755 -0.7207
36814SOL    HW220757  10.284   2.059   4.374  1.6737  0.2559 -3.6396
36815SOL     OW20758   5.733   1.447   2.087  0.3813 -0.2397  0.5780
36815SOL    HW120759   5.749   1.353   2.092 -0.0953 -0.2906  1.5051
36815SOL    HW220760   5.792   1.485   2.152  1.2082  0.2054 -0.4044
36816SOL     OW20761  12.870   1.600   4.926 -0.0509 -0.4594  0.0949
36816SOL    HW120762  12.915   1.525   4.887 -2.4456 -1.8806 -0.1378
36816SOL    HW220763  12.782   1.568   4.944 -0.4932  1.6555  2.1349
36817SOL     OW20764  11.565  12.130   5.458  0.1556 -0.1374 -0.1839
36817SOL    HW120765  11.574  12.098   5.369 -1.3277  1.0363 -0.8078
36817SOL    HW220766  11.621  12.208   5.461  2.3989 -1.6748  0.8102
36818SOL     OW20767   1.503   4.582   8.810 -0.4647  0.1655 -0.1805
36818SOL    HW120768   1.471   4.558   8.897 -1.4432  0.6592 -0.3853
36818SOL    HW220769   1.590   4.619   8.826 -0.5989  0.1705  0.5815
36819SOL     OW20770   5.906   6.787  10.205 -0.0164 -0.1251  0.3104
36819SOL    HW120771   5.986   6.769  10.255  1.2019  0.1814 -1.4595
36819SOL    HW220772   5.869   6.864  10.248  0.7420 -0.1403  1.0274
36820SOL     OW20773   0.991  10.304   6.820  0.0654  0.2326  0.0958
36820SOL    HW120774   1.085  10.304   6.807  0.2105 -0.0042  1.0583
36820SOL    HW220775   0.965  10.212   6.813  0.1634  0.0794  1.4230
36821SOL     OW20776   6.713   9.036   1.992 -0.0002 -0.0890  0.1271
36821SOL    HW120777   6.755   9.120   2.010 -0.7380 -0.0020  1.5354
36821SOL    HW220778   6.718   8.988   2.074 -0.2316 -1.1490 -0.4628
36822SOL     OW20779  10.295   7.199   1.127  0.0083 -0.1307 -0.0112
36822SOL    HW120780  10.317   7.291   1.111 -1.7648  0.5047  0.9295
36822SOL    HW220781  10.255   7.170   1.045 -2.5620  1.0164  0.7212
36823SOL     OW20782   9.911  11.246   3.263  0.6991 -0.1110 -0.3277
36823SOL    HW120783   9.880  11.211   3.347  0.0329  2.0980  0.4261
36823SOL    HW220784   9.909  11.172   3.203 -2.8078 -0.8980  0.5720
36824SOL     OW20785  11.695   6.259  11.232 -0.0025  0.1247  0.3551
36824SOL    HW120786  11.638   6.283  11.158  1.2160 -0.1164 -0.6846
36824SOL    HW220787  11.771   6.317  11.223 -0.0139  0.3766  1.6760
36825SOL     OW20788   5.571  11.968   9.226  0.3522  0.0182  0.2497
36825SOL    HW120789   5.554  11.923   9.309 -1.5990 -0.3028 -0.2768
36825SOL    HW220790   5.641  12.031   9.247  2.3866 -2.4125  1.2647
36826SOL     OW20791   9.052   1.196   1.564  0.3705  0.7483 -0.1143
36826SOL    HW120792   9.000   1.181   1.643  1.6378  0.1301  0.6252
36826SOL    HW220793   9.138   1.222   1.596  1.1506 -0.2943 -1.2619
36827SOL     OW20794   8.356  10.991  11.568  0.2482 -0.0972 -0.1489
36827SOL    HW120795   8.271  10.948  11.573  1.2217 -2.3968 -1.7961
36827SOL    HW220796   8.352  11.043  11.487  0.0320  0.7185  0.3785
36828SOL     OW20797  12.516  10.046   3.088  0.5715 -0.7760  0.3184
36828SOL    HW120798  12.466   9.971   3.120 -1.1030 -0.6924 -1.8495
36828SOL    HW220799  12.592  10.008   3.044  0.6737 -1.0773  0.7485
36829SOL     OW20800   6.194  10.955   1.356  0.2205  0.1275 -0.1263
36829SOL    HW120801   6.207  10.943   1.450  0.9168 -1.3362 -0.3682
36829SOL    HW220802   6.238  11.037   1.336  2.2583 -0.7330  0.4647
36830SOL     OW20803  10.259   4.251   6.569  0.2767  0.0764 -0.4014
36830SOL    HW120804  10.226   4.246   6.659 -1.2784  0.5556 -0.9302
36830SOL    HW220805  10.321   4.325   6.571 -0.1329  0.4122  0.1637
36831SOL     OW20806   4.659   0.359   3.731  0.1702  0.0847 -0.2416
36831SOL    HW120807   4.688   0.414   3.805  0.7441  1.4643 -1.4442
36831SOL    HW220808   4.740   0.336   3.685 -0.2824  0.5021 -1.2826
36832SOL     OW20809   8.217   3.343   3.481 -0.8445  0.8600 -0.0599
36832SOL    HW120810   8.128   3.372   3.462 -1.0419  0.9801  0.9540
36832SOL    HW220811   8.239   3.282   3.411 -2.5798 -0.9179  0.8602
36833SOL     OW20812   9.009   9.507   8.594  0.5473  0.8298 -0.5561
36833SOL    HW120813   8.986   9.433   8.651  2.5817 -0.2298 -1.0308
36833SOL    HW220814   8.961   9.490   8.513 -0.8825  1.3584  0.1341
36834SOL     OW20815   0.613   7.261  11.585  0.0646  0.0080  0.0131
36834SOL    HW120816   0.539   7.240  11.528 -1.0325  2.1581  0.5388
36834SOL    HW220817   0.579   7.252  11.674  1.6218 -2.8273  0.4312
36835SOL     OW20818   6.504  11.344   8.467 -0.5266  0.6309  0.5144
36835SOL    HW120819   6.473  11.329   8.377  0.6923  0.6218  0.0775
36835SOL    HW220820   6.487  11.262   8.513 -2.4874  1.0986  0.7159
36836SOL     OW20821   8.283   8.017   8.889  0.1928 -0.6521  0.4649
36836SOL    HW120822   8.250   8.049   8.806  0.4897 -1.4961  0.0086
36836SOL    HW220823   8.356   7.960   8.866  0.2493 -0.9331  1.2958
36837SOL     OW20824   9.680   2.405   0.679  0.1752 -0.5445  0.0944
36837SOL    HW120825   9.749   2.449   0.729  0.0763 -0.8543  0.5154
36837SOL    HW220826   9.680   2.315   0.714 -0.8189 -0.3989  0.4921
36838SOL     OW20827   2.345   6.017  10.178  0.0634  0.8045 -0.2224
36838SOL    HW120828   2.399   6.000  10.101  0.3407  0.2575  0.0894
36838SOL    HW220829   2.300   6.099  10.158  0.0225  0.5890 -1.0222
36839SOL     OW20830   8.096  10.499   9.300  1.0256  0.2244  0.1126
36839SOL    HW120831   8.029  10.436   9.328  2.3038 -0.8670  0.8739
36839SOL    HW220832   8.051  10.583   9.300 -0.2339 -0.4018  1.0282
36840SOL     OW20833  10.337   6.110   4.354 -0.2264  0.0580  0.1844
36840SOL    HW120834  10.244   6.090   4.349 -0.1556 -0.4696  0.8282
36840SOL    HW220835  10.377   6.056   4.285 -0.3432 -0.0604  0.2081
36841SOL     OW20836  11.742   5.397  10.194 -0.2247 -0.2486  0.0512
36841SOL    HW120837  11.653   5.366  10.181 -0.8317  1.4470 -0.0281
36841SOL    HW220838  11.775   5.346  10.268 -0.7937 -1.7655 -0.6943
36842SOL     OW20839   1.896   7.256   2.325  0.2794 -0.5141 -0.3845
36842SOL    HW120840   1.806   7.272   2.352  0.3903  0.5455 -0.6232
36842SOL    HW220841   1.890   7.181   2.265 -0.3490 -0.8563  0.0886
36843SOL     OW20842  11.041   1.550   9.657  0.3356 -0.4789 -0.1954
36843SOL    HW120843  10.961   1.577   9.611  0.4423 -1.1118 -0.7622
36843SOL    HW220844  11.110   1.558   9.591  0.6097 -0.7369  0.0579
36844SOL     OW20845   3.188   6.352  10.236  0.3477  0.2100  0.1030
36844SOL    HW120846   3.273   6.311  10.222  0.2343  0.8408 -2.9546
36844SOL    HW220847   3.124   6.286  10.207 -0.3205 -0.3500  2.5766
36845SOL     OW20848   5.846   7.195   5.247  0.1835 -0.0928 -0.2181
36845SOL    HW120849   5.806   7.271   5.290 -0.6808  1.2210 -3.0953
36845SOL    HW220850   5.936   7.222   5.230  0.3240 -0.3356  0.1357
36846SOL     OW20851  12.898   5.055  12.726  0.4421  0.4708  0.3858
36846SOL    HW120852  12.965   5.068  12.793 -0.8837  1.3661  1.6123
36846SOL    HW220853  12.829   5.006  12.770  1.1072 -2.3651 -1.4491
36847SOL     OW20854   5.450  11.067   1.200  0.8623 -0.2353 -0.3255
36847SOL    HW120855   5.436  11.020   1.117  1.2444 -1.2863  0.1818
36847SOL    HW220856   5.540  11.098   1.195  1.7610 -2.4582  0.6847
36848SOL     OW20857   0.274   1.116   4.196 -0.3462 -0.5567  0.2450
36848SOL    HW120858   0.202   1.076   4.244 -0.8918  0.8354  0.6435
36848SOL    HW220859   0.258   1.210   4.203  2.3525 -0.0985  1.7119
36849SOL     OW20860   6.525   7.538   2.458  0.2243  0.0552 -0.2935
36849SOL    HW120861   6.605   7.590   2.472  0.9985 -0.9792 -0.6877
36849SOL    HW220862   6.461   7.601   2.426  1.1821  0.7493 -0.9225
36850SOL     OW20863   9.914  10.184   5.114 -0.0313  0.2453 -0.3312
36850SOL    HW120864   9.905  10.191   5.209  2.4953 -1.1693  0.0839
36850SOL    HW220865   9.907  10.090   5.096 -2.3281  0.6134 -1.8546
36851SOL     OW20866   1.886   5.110   4.271  0.4454  0.1023  0.4676
36851SOL    HW120867   1.928   5.189   4.236  1.4677 -1.3821 -1.8867
36851SOL    HW220868   1.807   5.100   4.219  1.7003 -1.8450 -1.1722
36852SOL     OW20869   1.117   5.289   4.469 -0.5573 -0.2312  0.0446
36852SOL    HW120870   1.182   5.218   4.472 -2.0172 -1.8643 -2.7261
36852SOL    HW220871   1.064   5.275   4.547  1.1823 -0.0242  1.3426
36853SOL     OW20872  11.439   6.679   5.978  0.1559 -0.6742  0.2826
36853SOL    HW120873  11.433   6.770   6.009  0.2655 -0.4562 -0.3246
36853SOL    HW220874  11.530   6.654   5.995  0.1025 -0.7044  0.5351
36854SOL     OW20875  11.327   4.316   1.066  0.5620 -0.2983 -0.4599
36854SOL    HW120876  11.388   4.353   1.002  0.4869  0.6212 -0.0188
36854SOL    HW220877  11.345   4.365   1.146 -0.7103 -0.0511 -0.3060
36855SOL     OW20878   4.723   3.392  12.473 -0.0035  0.0375  0.7811
36855SOL    HW120879   4.812   3.359  12.462 -0.3584 -0.6948  0.0429
36855SOL    HW220880   4.677   3.322  12.519 -0.4112  0.0777  0.4330
36856SOL     OW20881   8.927  10.279   2.803  0.3558 -0.0158 -0.0675
36856SOL    HW120882   8.974  10.349   2.756 -1.1525  0.8789 -0.3080
36856SOL    HW220883   8.853  10.258   2.747 -0.9059  0.3394  1.4095
36857SOL     OW20884  12.816   5.932   6.845 -0.2452 -0.4906  0.0394
36857SOL    HW120885  12.796   5.852   6.894 -2.9600  0.1388  0.1499
36857SOL    HW220886  12.801   5.907   6.753  2.6716 -1.0598 -0.3867
36858SOL     OW20887  11.986  11.537   5.299 -0.6435 -0.2117  0.2593
36858SOL    HW120888  12.037  11.585   5.365 -0.1051 -0.3246 -0.0634
36858SOL    HW220889  11.895  11.548   5.326 -0.5275  0.9203  0.2414
36859SOL     OW20890   2.050   0.197  11.551  0.0931  0.1578 -0.0095
36859SOL    HW120891   2.000   0.161  11.478  0.9356 -1.4207  0.1338
36859SOL    HW220892   2.119   0.249  11.510 -0.4937  0.7449 -0.2649
36860SOL     OW20893   9.001   2.817   0.028  0.0580  0.5320 -0.6671
36860SOL    HW120894   9.007   2.739   0.083 -0.4013  1.1647  0.3049
36860SOL    HW220895   9.000   2.783  -0.062  0.5063 -0.5341 -0.2861
36861SOL     OW20896  12.417   7.068   4.056 -0.4618  0.2883  0.0687
36861SOL    HW120897  12.383   7.099   3.972  0.2152  1.1805  0.1058
36861SOL    HW220898  12.503   7.032   4.036  0.1773  1.5077  0.5225
36862SOL     OW20899   8.496  12.315   3.147  0.3767  0.6283 -0.4125
36862SOL    HW120900   8.476  12.269   3.228  2.0457 -0.2422 -0.4467
36862SOL    HW220901   8.416  12.364   3.126 -0.4606 -0.0176  1.1398
36863SOL     OW20902   4.362   8.004   3.522  0.1519 -0.1087  0.0755
36863SOL    HW120903   4.408   8.084   3.497 -1.4516  0.3154 -1.7050
36863SOL    HW220904   4.415   7.933   3.485  0.8406  0.1713  0.4853
36864SOL     OW20905   2.532   6.339  12.329 -0.0456 -0.2997  0.4378
36864SOL    HW120906   2.459   6.283  12.355 -0.7528  0.4840  0.2023
36864SOL    HW220907   2.496   6.394  12.259  1.1857 -0.8664 -0.6748
36865SOL     OW20908  10.019   1.389   9.827 -0.0368 -0.0757 -0.1577
36865SOL    HW120909  10.114   1.397   9.836  0.0154 -0.7787 -0.0332
36865SOL    HW220910   9.994   1.461   9.770  0.4440  0.7088  0.5876
36866SOL     OW20911   0.517   7.506  12.860  0.2603 -0.5098  0.5407
36866SOL    HW120912   0.557   7.593  12.855  1.0575 -0.8982 -0.0212
36866SOL    HW220913   0.545   7.471  12.945  0.1786 -0.3299  0.6413
36867SOL     OW20914   2.685   4.152  11.054 -0.7906  0.0335 -0.6040
36867SOL    HW120915   2.730   4.134  11.137 -2.2282 -0.5297  0.0729
36867SOL    HW220916   2.593   4.135  11.072 -1.0871 -0.5076 -2.4390
36868SOL     OW20917   9.045   4.072   7.383  0.3180  0.5811 -0.2168
36868SOL    HW120918   9.030   4.037   7.295  2.3833  0.4442 -0.5648
36868SOL    HW220919   9.003   4.008   7.441 -1.8513  1.1234 -1.0752
36869SOL     OW20920  11.526   6.415   0.188  0.7132 -0.4537 -0.6309
36869SOL    HW120921  11.583   6.444   0.117  0.0886  0.8197 -0.6508
36869SOL    HW220922  11.563   6.455   0.267  0.9399 -1.1995 -0.3522
36870SOL     OW20923  12.585   9.080   7.670  0.9437 -0.0865  0.3392
36870SOL    HW120924  12.533   9.154   7.640 -1.1729 -1.2555  0.8698
36870SOL    HW220925  12.619   9.040   7.590 -0.4241 -0.2629 -0.1803
36871SOL     OW20926   7.370  12.129  11.709 -0.0853 -0.2052 -0.7547
36871SOL    HW120927   7.390  12.220  11.728 -1.5724  0.2894 -1.4068
36871SOL    HW220928   7.437  12.079  11.756 -0.2318  1.1547  0.9954
36872SOL     OW20929  11.694  10.405   5.054 -0.3982  0.1721  0.6607
36872SOL    HW120930  11.744  10.486   5.047  1.0042 -0.5301  1.8775
36872SOL    HW220931  11.649  10.412   5.139 -0.3947 -0.2423  0.7007
36873SOL     OW20932   6.365   6.393   5.098 -0.2194 -0.3135 -0.1599
36873SOL    HW120933   6.306   6.319   5.084 -2.2891  1.5686 -2.0459
36873SOL    HW220934   6.418   6.397   5.018  0.2040  0.0004  0.1324
36874SOL     OW20935  12.908   4.172   8.304 -0.0213 -0.0929  0.4858
36874SOL    HW120936  12.960   4.179   8.384  0.8081 -1.2463  0.0877
36874SOL    HW220937  12.911   4.078   8.282 -0.8935  0.0787 -0.4631
36875SOL     OW20938   9.404  10.256   0.845 -0.2129 -0.1829 -0.1433
36875SOL    HW120939   9.486  10.276   0.801  0.4823  0.3444  1.3190
36875SOL    HW220940   9.340  10.317   0.808  0.5677  0.8843  0.2452
36876SOL     OW20941   9.297   3.577   6.481  0.4484 -0.3924  0.1596
36876SOL    HW120942   9.265   3.535   6.561  0.0456 -0.4076 -0.0058
36876SOL    HW220943   9.218   3.596   6.431  0.7157 -4.4453 -2.3021
36877SOL     OW20944  10.788  10.854   7.046 -0.2323 -0.5950  0.5162
36877SOL    HW120945  10.818  10.894   7.128 -2.2416  0.7160  0.6682
36877SOL    HW220946  10.815  10.916   6.978 -0.0010 -0.8772  0.3496
36878SOL     OW20947  11.187   9.312  12.204 -0.2122  0.4299 -0.1308
36878SOL    HW120948  11.190   9.369  12.280  1.6419 -0.4756  0.5470
36878SOL    HW220949  11.161   9.227  12.238 -0.4337  0.2635 -0.7014
36879SOL     OW20950  11.636   9.400  11.803  0.3975  0.1108 -0.3526
36879SOL    HW120951  11.661   9.308  11.788  0.2100  0.2343 -1.5023
36879SOL    HW220952  11.646   9.442  11.718 -1.7995  0.6171 -0.4305
36880SOL     OW20953   5.023   7.646   6.735  0.1957  0.1128 -0.2860
36880SOL    HW120954   5.038   7.606   6.821  0.2191 -0.5581 -0.5981
36880SOL    HW220955   4.978   7.578   6.685  0.1559  0.5142 -0.7947
36881SOL     OW20956   5.366   1.885   7.040  0.1403  0.2765 -0.3626
36881SOL    HW120957   5.454   1.923   7.032  0.0084  0.9636  1.0408
36881SOL    HW220958   5.311   1.940   6.985  0.6244 -0.3313 -1.4740
36882SOL     OW20959   6.275   3.989   5.044 -0.0335  0.2001 -0.4841
36882SOL    HW120960   6.365   4.003   5.016 -0.1089 -0.4247 -1.0526
36882SOL    HW220961   6.226   3.971   4.964 -1.1151  2.6732 -0.4622
36883SOL     OW20962   5.260   2.530  11.199 -0.4162  0.1232 -0.3263
36883SOL    HW120963   5.270   2.435  11.201 -2.3659 -0.1241 -0.4977
36883SOL    HW220964   5.346   2.563  11.173 -0.4314 -1.7434 -3.0632
36884SOL     OW20965   6.801  11.057  12.031 -0.5466 -0.3723 -0.0388
36884SOL    HW120966   6.777  11.111  12.107 -1.4196  1.0670 -1.2783
36884SOL    HW220967   6.740  10.983  12.034  1.0905 -1.7956  2.0586
36885SOL     OW20968   5.052   9.673  12.918  0.3525  0.4588  0.4668
36885SOL    HW120969   5.050   9.618  12.839 -2.3795 -0.7659  1.2825
36885SOL    HW220970   4.973   9.726  12.912  0.2367  0.5370  2.2183
36886SOL     OW20971   8.399   4.564   6.999  0.2290  0.0817 -0.1433
36886SOL    HW120972   8.407   4.567   6.903 -1.7304  0.2388 -0.3412
36886SOL    HW220973   8.441   4.644   7.029 -1.3517  1.3410 -1.0985
36887SOL     OW20974   0.048   6.910  11.606 -0.5648 -0.1179 -0.1136
36887SOL    HW120975  -0.045   6.911  11.585 -0.5438 -0.1185 -0.2078
36887SOL    HW220976   0.053   6.872  11.694 -0.6381 -0.2844 -0.1825
36888SOL     OW20977  11.308  10.332   6.028 -0.1184  0.6447 -0.1557
36888SOL    HW120978  11.355  10.400   5.980 -1.4464  1.3023 -0.5723
36888SOL    HW220979  11.360  10.253   6.015  0.4990  1.1950 -1.1732
36889SOL     OW20980   0.694   4.546   2.247 -0.0571 -0.3479 -0.1955
36889SOL    HW120981   0.615   4.494   2.231 -0.8871  0.8811 -0.2702
36889SOL    HW220982   0.731   4.509   2.327  0.2270 -1.9985 -1.0451
36890SOL     OW20983   7.014  11.623   2.534 -0.4965 -0.1325  0.5698
36890SOL    HW120984   7.079  11.682   2.572 -0.6218  0.8235 -0.6559
36890SOL    HW220985   6.963  11.592   2.609  2.1774 -2.0031  1.7870
36891SOL     OW20986   5.601   4.739   5.357  0.1730 -0.5828 -0.0085
36891SOL    HW120987   5.658   4.790   5.300 -0.7728  0.5693  0.0317
36891SOL    HW220988   5.548   4.805   5.403 -1.0430 -1.6024  0.1034
36892SOL     OW20989   3.448   7.489   9.500 -0.0163  0.3108  0.4643
36892SOL    HW120990   3.532   7.464   9.462  0.2858 -1.5774  2.1827
36892SOL    HW220991   3.443   7.584   9.488  1.9009  0.3256 -0.5469
36893SOL     OW20992  10.263   5.455  10.504 -0.1265 -0.1894  0.5429
36893SOL    HW120993  10.181   5.478  10.549  0.1360 -0.2263  1.0440
36893SOL    HW220994  10.266   5.360  10.506 -1.0765 -0.3007 -1.2932
36894SOL     OW20995   5.823   7.360   4.965 -0.4580 -0.5650 -0.6712
36894SOL    HW120996   5.767   7.283   4.979 -1.3380 -0.4010 -2.8823
36894SOL    HW220997   5.864   7.345   4.880  0.1629  0.9301 -0.6633
36895SOL     OW20998   0.007  11.945  12.720 -0.0444 -0.1552  0.1407
36895SOL    HW120999  -0.002  11.852  12.700 -0.6253 -0.1133  0.1956
36895SOL    HW221000  -0.083  11.978  12.724  0.0501 -0.0501  2.3748
36896SOL     OW21001   3.499   7.485  10.655  0.5802  0.1180 -0.3775
36896SOL    HW121002   3.539   7.564  10.619 -0.8889  0.3966 -1.4895
36896SOL    HW221003   3.431   7.516  10.714  0.2820 -0.3116 -0.4863
36897SOL     OW21004  10.928  10.409   7.871  0.3193 -0.0736  0.2440
36897SOL    HW121005  10.857  10.454   7.916 -0.9178 -0.8376 -0.8615
36897SOL    HW221006  10.972  10.358   7.940 -0.7659 -0.2842  0.8032
36898SOL     OW21007   7.699  10.678   3.070  0.2062  0.1349 -0.0383
36898SOL    HW121008   7.620  10.734   3.073 -0.2968 -0.5670  2.7811
36898SOL    HW221009   7.665  10.589   3.080  1.3678 -0.0641  2.8950
36899SOL     OW21010  11.346   1.647   7.128 -0.0720  0.4430  0.8400
36899SOL    HW121011  11.334   1.732   7.170 -0.8498  1.6784 -1.6893
36899SOL    HW221012  11.441   1.639   7.117  0.0106  0.9512  1.1406
36900SOL     OW21013   1.282  10.396  12.605 -0.7495 -0.0468  0.4720
36900SOL    HW121014   1.234  10.477  12.622 -3.0748 -1.4110  0.8916
36900SOL    HW221015   1.321  10.372  12.689  0.7280  1.0588  0.1364
36901SOL     OW21016   4.671   7.408   5.001 -0.2635  0.0887  0.5236
36901SOL    HW121017   4.584   7.411   5.043 -0.0221 -1.2000  1.1695
36901SOL    HW221018   4.654   7.430   4.910 -1.2665 -0.0098  0.6689
36902SOL     OW21019  11.751  12.272   9.768 -0.2068  0.0484 -0.3012
36902SOL    HW121020  11.834  12.314   9.743  0.3331  0.3755  1.8806
36902SOL    HW221021  11.722  12.229   9.688  0.6306  2.2524 -1.9173
36903SOL     OW21022   0.563   5.142   4.739  0.0898 -0.1224 -0.0136
36903SOL    HW121023   0.568   5.219   4.795 -0.5885  0.4007 -0.6573
36903SOL    HW221024   0.574   5.176   4.650 -1.0042 -0.6557 -0.3648
36904SOL     OW21025  11.059   4.157   6.220  0.0744  0.8666  0.5272
36904SOL    HW121026  10.989   4.143   6.283  0.2392 -2.2287  0.2182
36904SOL    HW221027  11.017   4.144   6.135  0.7416  0.1162  0.2903
36905SOL     OW21028  12.744  10.087   3.567  0.0680  0.4436 -0.3764
36905SOL    HW121029  12.800  10.094   3.645 -0.8603 -2.6548  0.7577
36905SOL    HW221030  12.704  10.173   3.558  2.0152  1.6058  1.0925
36906SOL     OW21031   1.715   7.967   4.617  0.1666  0.1228 -0.2693
36906SOL    HW121032   1.713   8.015   4.700  0.4230  3.0096 -1.7797
36906SOL    HW221033   1.803   7.930   4.613 -0.2078 -1.0133  1.1873
36907SOL     OW21034  10.620  12.544   4.576 -0.3124  0.2437  0.0374
36907SOL    HW121035  10.635  12.535   4.670 -0.8595  0.1471  0.1186
36907SOL    HW221036  10.525  12.556   4.568 -0.2846  0.1043 -0.5125
36908SOL     OW21037   0.521   3.351   0.328  0.1530  0.3714  0.0717
36908SOL    HW121038   0.536   3.415   0.397  2.0151 -1.3577  1.4002
36908SOL    HW221039   0.594   3.365   0.267  1.0522 -0.9149  0.7906
36909SOL     OW21040   1.647  10.082   6.604  0.1052  0.2807 -0.0702
36909SOL    HW121041   1.666  10.121   6.519  1.1551  0.8740  0.4105
36909SOL    HW221042   1.729  10.092   6.653  0.3314 -2.2889  0.1779
36910SOL     OW21043   1.780  11.267   7.507  0.6384  0.2153 -0.2335
36910SOL    HW121044   1.758  11.343   7.454  1.7960 -0.3573 -1.5741
36910SOL    HW221045   1.697  11.221   7.517  0.2820  0.6655 -1.0146
36911SOL     OW21046  10.833   5.606   0.405 -0.0501  0.3613  0.1609
36911SOL    HW121047  10.905   5.543   0.407  0.5554  0.9791  3.1568
36911SOL    HW221048  10.757   5.555   0.436  0.2812  0.8312  1.8737
36912SOL     OW21049   4.993   7.455   9.275  0.1312 -0.0680  0.2487
36912SOL    HW121050   4.952   7.499   9.350 -2.5153  0.6096 -1.4475
36912SOL    HW221051   4.985   7.519   9.204  1.0443 -1.3251 -1.0187
36913SOL     OW21052   4.096   6.576   8.407 -0.5148  0.3500  0.0654
36913SOL    HW121053   4.183   6.582   8.446 -0.6620  0.6300  0.3619
36913SOL    HW221054   4.102   6.630   8.328 -1.1020  2.4781  1.3829
36914SOL     OW21055   1.843   5.976   7.609 -0.1703  0.2987  0.0480
36914SOL    HW121056   1.876   5.988   7.520  0.1678  0.2209  0.1639
36914SOL    HW221057   1.912   6.010   7.666 -0.1357 -0.1782  0.3002
36915SOL     OW21058  11.907   4.048   5.633  0.3749  0.2665 -0.1338
36915SOL    HW121059  11.935   4.033   5.542 -0.1564  0.5542 -0.3524
36915SOL    HW221060  11.896   3.960   5.669  2.4933  0.1162  0.2845
36916SOL     OW21061  12.758   7.485  11.269 -0.1021  0.0575  0.7609
36916SOL    HW121062  12.689   7.449  11.324  1.1225 -0.3453  2.1160
36916SOL    HW221063  12.748   7.580  11.276 -0.1966  0.0066  1.4010
36917SOL     OW21064   1.745   5.677   9.905 -0.3418  0.3364 -0.5839
36917SOL    HW121065   1.784   5.691   9.991 -0.6346 -3.4485  0.3376
36917SOL    HW221066   1.807   5.620   9.860 -2.0871 -1.1019 -1.2788
36918SOL     OW21067   7.837   0.183   4.122 -0.6455  0.0426 -0.0362
36918SOL    HW121068   7.924   0.177   4.161 -0.0666  1.8727 -0.9466
36918SOL    HW221069   7.836   0.114   4.056  0.7086  0.9320 -1.0432
36919SOL     OW21070   9.507  12.191   1.802 -0.3103 -0.4543 -0.0846
36919SOL    HW121071   9.586  12.241   1.825 -0.7773  0.1791  0.1803
36919SOL    HW221072   9.453  12.194   1.881 -1.3085  0.5254 -0.7632
36920SOL     OW21073   4.627   3.833   8.667 -0.2399 -0.4237 -0.0472
36920SOL    HW121074   4.699   3.802   8.722  1.2394  0.0555 -1.6252
36920SOL    HW221075   4.664   3.907   8.619 -1.4252 -0.8897 -1.7638
36921SOL     OW21076   9.546   8.191   7.613  0.7160  0.2321  0.5133
36921SOL    HW121077   9.528   8.197   7.707 -0.3901 -0.0384  0.3279
36921SOL    HW221078   9.502   8.267   7.575 -2.2496 -1.6902 -0.2285
36922SOL     OW21079  10.841  10.995   5.114 -0.1335  0.0926  0.2777
36922SOL    HW121080  10.759  10.966   5.074 -0.1944 -1.4553  1.4290
36922SOL    HW221081  10.890  11.036   5.043 -2.1238  1.6209 -0.3088
36923SOL     OW21082   7.037   1.513   4.046 -0.1199  0.0387  0.5885
36923SOL    HW121083   7.058   1.564   3.967 -1.7519  0.3574  0.3256
36923SOL    HW221084   6.964   1.560   4.086 -0.3485 -1.0003  1.4315
36924SOL     OW21085   7.081   2.192   7.093 -0.1915  0.0540 -0.1945
36924SOL    HW121086   7.175   2.200   7.076 -0.0258  0.1987  0.7530
36924SOL    HW221087   7.040   2.226   7.014  0.5549  0.0387 -0.6006
36925SOL     OW21088  12.265   9.174   9.175 -0.3366 -0.0342 -0.1539
36925SOL    HW121089  12.238   9.131   9.094  2.9450 -2.3447 -0.2209
36925SOL    HW221090  12.301   9.258   9.147 -2.4351  0.7806 -0.5896
36926SOL     OW21091  12.670   6.160  12.063 -0.0339 -0.3132 -0.6333
36926SOL    HW121092  12.627   6.116  12.135  1.0238 -2.1423 -1.0427
36926SOL    HW221093  12.726   6.093  12.023  0.5517  1.0223 -2.2260
36927SOL     OW21094   2.393   4.948  11.967 -0.4860 -0.1322 -0.3410
36927SOL    HW121095   2.465   5.012  11.969  0.4695 -0.9981 -2.8097
36927SOL    HW221096   2.318   4.995  12.003  0.4494  2.0294 -1.0485
36928SOL     OW21097   4.953   4.724   8.249 -0.0562  0.8570 -0.6052
36928SOL    HW121098   5.037   4.766   8.234  0.6073  1.3854  3.5138
36928SOL    HW221099   4.890   4.796   8.256 -0.4439  0.6030 -1.3074
36929SOL     OW21100  12.649   8.909   9.768 -0.2805  0.0805  0.0916
36929SOL    HW121101  12.599   8.889   9.847  0.0291  1.6098  0.6958
36929SOL    HW221102  12.691   8.826   9.745 -1.2299 -0.6512  0.8907
36930SOL     OW21103   1.527   4.039  12.850 -0.0800  0.6939 -0.0361
36930SOL    HW121104   1.598   4.090  12.890  2.2914 -1.4435 -1.1893
36930SOL    HW221105   1.521   3.961  12.906  0.3585 -0.3522 -1.3875
36931SOL     OW21106   1.278  10.802   3.685 -0.5567  0.3846 -0.0959
36931SOL    HW121107   1.331  10.747   3.743  0.6290  1.3519 -0.2173
36931SOL    HW221108   1.273  10.886   3.731  0.8070  1.3276 -1.5520
36932SOL     OW21109   6.225   5.447  11.601  0.0788  0.4490  0.0852
36932SOL    HW121110   6.249   5.497  11.679  1.1230  2.0790 -1.2234
36932SOL    HW221111   6.291   5.378  11.595  0.7633  1.1018 -0.0325
36933SOL     OW21112   7.415  10.690   8.104 -0.0556  0.0804  0.6032
36933SOL    HW121113   7.494  10.646   8.070 -0.5490 -0.9826  0.8117
36933SOL    HW221114   7.446  10.777   8.131  0.3865  1.0587 -2.5838
36934SOL     OW21115   3.583   1.868   6.282 -0.6329 -0.4385 -0.1206
36934SOL    HW121116   3.671   1.840   6.304  0.5587  3.0675  0.2489
36934SOL    HW221117   3.540   1.881   6.367 -0.9578 -0.5894 -0.2575
36935SOL     OW21118   0.531   1.776   5.267 -0.4189  0.3941  0.2087
36935SOL    HW121119   0.590   1.708   5.235  0.2981  1.1578 -0.1185
36935SOL    HW221120   0.549   1.782   5.361  0.3375  0.9132  0.0383
36936SOL     OW21121   6.271   7.106   1.791  0.4064 -0.3362  0.1476
36936SOL    HW121122   6.211   7.157   1.737  0.2923  0.2759  0.8383
36936SOL    HW221123   6.254   7.134   1.880 -1.1674 -3.0970  0.8345
36937SOL     OW21124   4.357   0.707   3.591 -0.1363 -0.3695  0.3622
36937SOL    HW121125   4.380   0.624   3.551 -1.7377 -0.7383  0.1454
36937SOL    HW221126   4.387   0.699   3.682 -0.1501 -1.1286  0.3030
36938SOL     OW21127  11.543   3.168   4.831 -0.4826 -0.1496  0.1564
36938SOL    HW121128  11.632   3.196   4.809 -0.3932 -0.3649  0.2340
36938SOL    HW221129  11.494   3.178   4.749  0.3372 -2.9286 -0.7975
36939SOL     OW21130   3.049   4.305   7.530 -0.6213 -0.2994  0.2680
36939SOL    HW121131   3.144   4.308   7.515 -0.3832 -1.0496  1.4825
36939SOL    HW221132   3.018   4.391   7.505  0.2877 -0.2419 -0.7531
36940SOL     OW21133   5.775   7.161   4.591 -0.0259  0.1873  0.8660
36940SOL    HW121134   5.811   7.111   4.664 -0.0640  0.0228  0.7726
36940SOL    HW221135   5.760   7.248   4.627  0.7349  0.3377  0.8247
36941SOL     OW21136   7.422  11.217   0.308 -0.5009  0.0664  0.2019
36941SOL    HW121137   7.414  11.302   0.266  2.2141  0.3253  0.0296
36941SOL    HW221138   7.464  11.161   0.243 -1.5725 -1.2317  0.5740
36942SOL     OW21139  10.368   3.810  12.641 -0.5981  0.5910  0.2674
36942SOL    HW121140  10.352   3.793  12.548  2.2070 -0.4468 -0.1027
36942SOL    HW221141  10.393   3.725  12.677  1.3691  1.5220  1.2556
36943SOL     OW21142   0.101   9.067   8.825 -0.6430  0.5828 -0.5021
36943SOL    HW121143   0.172   9.111   8.777 -0.6756  1.1567 -0.0339
36943SOL    HW221144   0.095   8.981   8.785  1.0257  0.1344  0.1454
36944SOL     OW21145  11.725   9.518  11.512  0.3379  0.1057  0.1386
36944SOL    HW121146  11.724   9.436  11.461 -0.1777  0.9065 -1.1997
36944SOL    HW221147  11.801   9.510  11.569  1.0570 -0.7655 -0.8904
36945SOL     OW21148   4.527   9.385  11.294  0.4068 -0.0694  0.0469
36945SOL    HW121149   4.484   9.335  11.225 -0.1496  0.6276 -0.1290
36945SOL    HW221150   4.519   9.330  11.372  1.2424 -0.9645 -0.4714
36946SOL     OW21151   2.761   0.731  12.937  0.2680  0.4163  0.6456
36946SOL    HW121152   2.709   0.706  12.860  1.4409 -0.2404  0.0286
36946SOL    HW221153   2.722   0.682  13.009 -0.4851  0.5854  0.3648
36947SOL     OW21154   7.456  11.233   1.087  0.1786 -0.0567  0.5113
36947SOL    HW121155   7.550  11.249   1.074  0.6106 -0.9940  2.2305
36947SOL    HW221156   7.421  11.225   0.999  1.9638 -1.0444 -0.1582
36948SOL     OW21157   6.863   8.599   1.774  0.3859 -0.0381  0.3297
36948SOL    HW121158   6.806   8.676   1.763  2.2591  1.3257 -0.3865
36948SOL    HW221159   6.885   8.572   1.685  0.8386 -0.5572  0.5960
36949SOL     OW21160  11.290  11.150   4.964 -0.0192 -0.1661 -0.2349
36949SOL    HW121161  11.270  11.228   4.913  0.1543 -0.0202 -0.0808
36949SOL    HW221162  11.334  11.092   4.902  0.9772  0.3583 -0.0328
36950SOL     OW21163  11.488   2.404   4.479  0.2003  0.1344  0.0228
36950SOL    HW121164  11.451   2.320   4.453 -1.9746  1.2038 -0.6824
36950SOL    HW221165  11.556   2.422   4.415 -0.1439 -0.5547 -0.5457
36951SOL     OW21166   5.937   0.336   2.999 -0.7294  0.4119  0.1062
36951SOL    HW121167   6.032   0.339   2.986 -0.9971 -0.2533 -2.3809
36951SOL    HW221168   5.905   0.422   2.971 -0.9769  0.2763 -0.0306
36952SOL     OW21169   3.400   2.747   9.488 -0.0940 -0.9729  0.7624
36952SOL    HW121170   3.399   2.694   9.568 -0.1424 -2.1011  0.0356
36952SOL    HW221171   3.430   2.686   9.419  3.1090  0.7310  0.4318
36953SOL     OW21172  10.936   6.123   1.159 -0.0987 -0.4964  0.4202
36953SOL    HW121173  10.858   6.070   1.167 -0.7330  0.3561  0.0706
36953SOL    HW221174  10.996   6.071   1.105 -1.6811  0.1542 -2.1659
36954SOL     OW21175   0.703   7.091   5.793  0.3337 -0.0691 -0.6358
36954SOL    HW121176   0.618   7.107   5.833  0.9638  1.5143  0.1065
36954SOL    HW221177   0.704   7.148   5.716  0.3628 -0.8080 -1.1971
36955SOL     OW21178   5.840   4.060   6.572 -0.2257 -0.5033 -0.0790
36955SOL    HW121179   5.859   3.967   6.565  0.8173 -0.2939 -0.2290
36955SOL    HW221180   5.810   4.085   6.484 -1.0690 -0.8071  0.1157
36956SOL     OW21181   3.305   1.655   4.720  0.3431 -0.4995 -0.1238
36956SOL    HW121182   3.337   1.698   4.800 -1.5445  0.3124  0.2562
36956SOL    HW221183   3.380   1.656   4.662  0.8267  2.1765  0.3700
36957SOL     OW21184   2.463  11.433   6.678 -0.1654 -0.4138  0.5929
36957SOL    HW121185   2.503  11.486   6.609  0.9529 -1.4717  0.3932
36957SOL    HW221186   2.370  11.432   6.656  0.2261 -1.0954 -1.1701
36958SOL     OW21187   3.967   5.024   2.218 -0.1838  0.3149  0.2418
36958SOL    HW121188   3.965   5.012   2.313  0.5205 -0.1616  0.2031
36958SOL    HW221189   3.888   5.076   2.199 -1.0016 -0.6337  0.9272
36959SOL     OW21190  10.982   9.773  10.326  0.5293  0.1869  0.5774
36959SOL    HW121191  11.057   9.776  10.385  1.1187  0.6156 -0.1973
36959SOL    HW221192  10.909   9.746  10.383  0.9660  1.1383  1.6297
36960SOL     OW21193   8.502   8.586   5.343  0.6657 -0.2400  0.2994
36960SOL    HW121194   8.421   8.543   5.369  0.7565 -0.1472  0.7295
36960SOL    HW221195   8.532   8.632   5.421  1.1888 -0.3586  0.1742
36961SOL     OW21196  10.175   8.462   0.839 -0.1770  0.3088  0.0647
36961SOL    HW121197  10.109   8.428   0.899  0.5304 -0.3696  0.4725
36961SOL    HW221198  10.186   8.393   0.774  0.2313  0.3598  0.0789
36962SOL     OW21199  11.963   1.237   0.667  0.4698 -0.2946  0.5051
36962SOL    HW121200  12.017   1.206   0.594  0.9345  1.4360  0.0620
36962SOL    HW221201  11.955   1.331   0.652 -0.4203 -0.0899  2.0618
36963SOL     OW21202   5.559   2.608   8.457  0.0091 -0.0876  0.6456
36963SOL    HW121203   5.614   2.686   8.466  1.4652 -1.2577  2.8230
36963SOL    HW221204   5.491   2.619   8.523 -1.3041  0.4324 -0.7265
36964SOL     OW21205   8.091  12.288   3.390  0.1020  0.4134 -0.6200
36964SOL    HW121206   8.054  12.240   3.464  1.3200 -1.6295 -1.2607
36964SOL    HW221207   8.123  12.369   3.428 -1.8727  0.7260  0.5461
36965SOL     OW21208  11.608  10.245  12.057  0.3604 -0.1591  0.7229
36965SOL    HW121209  11.607  10.316  12.121  1.8680  0.1310  0.4458
36965SOL    HW221210  11.526  10.256  12.008  0.4723  1.2809  0.8115
36966SOL     OW21211  12.376   4.855  11.261  0.2314  0.1552  0.7511
36966SOL    HW121212  12.430   4.776  11.269  0.4066  0.3581  1.6487
36966SOL    HW221213  12.297   4.835  11.311  0.3358  0.5989  1.0956
36967SOL     OW21214   7.521   1.418   9.154  0.0705  0.1979 -0.3248
36967SOL    HW121215   7.564   1.489   9.106  0.5370  0.2201  0.1136
36967SOL    HW221216   7.534   1.440   9.246  0.1739 -0.4219 -0.1815
36968SOL     OW21217   0.045   1.897   1.111  0.5256 -0.9822 -0.0960
36968SOL    HW121218   0.065   1.987   1.138  0.6390 -0.6364 -1.3039
36968SOL    HW221219   0.124   1.847   1.134  0.4828 -0.7746  0.5290
36969SOL     OW21220   1.001   3.482   4.998 -0.1347 -0.1270  0.1516
36969SOL    HW121221   1.064   3.471   4.926  1.6706  2.9340  1.0447
36969SOL    HW221222   0.952   3.561   4.975  0.5172  0.9600  2.1614
36970SOL     OW21223   2.161   3.416   7.125  0.4663  0.6382 -0.0431
36970SOL    HW121224   2.175   3.321   7.117  1.1244  0.7637 -0.4217
36970SOL    HW221225   2.225   3.444   7.191  0.5833  0.8893 -0.2643
36971SOL     OW21226   0.452   1.216   0.551 -0.1486 -0.2649 -0.0080
36971SOL    HW121227   0.376   1.210   0.608 -0.7137  1.1464 -0.5709
36971SOL    HW221228   0.472   1.125   0.528 -1.6622 -0.6553  0.1270
36972SOL     OW21229   5.911   9.718   0.410 -0.0813  0.3245  0.0962
36972SOL    HW121230   5.850   9.699   0.481  0.8540  0.1136  0.8520
36972SOL    HW221231   5.895   9.810   0.389 -0.7394  0.2421  0.1952
36973SOL     OW21232  12.454   7.405   7.532 -0.0036  0.1307 -0.5302
36973SOL    HW121233  12.360   7.392   7.529  0.0070  0.1251 -0.8189
36973SOL    HW221234  12.473   7.462   7.458  0.7390 -3.0265 -2.9826
36974SOL     OW21235   9.665   2.507   1.610 -0.0842  0.6087  0.2622
36974SOL    HW121236   9.590   2.556   1.579 -0.3007 -0.1687 -0.4831
36974SOL    HW221237   9.740   2.547   1.566  0.1265  2.2565  2.0353
36975SOL     OW21238   2.962   6.703   8.069  0.8497  0.0356  0.5233
36975SOL    HW121239   2.963   6.781   8.124  0.5043 -0.3850  1.1344
36975SOL    HW221240   2.925   6.635   8.124  0.2913 -0.3458 -0.3079
36976SOL     OW21241  10.586   1.053   6.910  0.3763  0.4445 -0.1404
36976SOL    HW121242  10.524   0.982   6.896  2.0325 -1.3176  1.0159
36976SOL    HW221243  10.536   1.120   6.957 -0.3450 -1.5426  2.0941
36977SOL     OW21244   4.240   2.677   6.685  0.2096  0.2870  0.3769
36977SOL    HW121245   4.253   2.604   6.745  0.6742 -0.2294 -0.3499
36977SOL    HW221246   4.145   2.684   6.677  0.1694 -0.7413 -0.1602
36978SOL     OW21247   0.165   5.679   4.234  0.1183 -0.0189  0.0749
36978SOL    HW121248   0.212   5.750   4.278 -0.8986  1.6622 -1.4156
36978SOL    HW221249   0.196   5.599   4.278  1.8555  1.2550  1.3252
36979SOL     OW21250   6.263  12.352   1.070  0.0842 -0.1735  0.1228
36979SOL    HW121251   6.233  12.432   1.113  1.3180 -0.2111  1.1220
36979SOL    HW221252   6.352  12.373   1.039  1.5623 -1.8965  2.7785
36980SOL     OW21253   4.812  10.029   8.530 -0.7429  0.0278 -0.3320
36980SOL    HW121254   4.754  10.068   8.464 -0.7632 -1.0639 -0.9681
36980SOL    HW221255   4.804  10.088   8.606 -0.7473  1.2771 -1.2666
36981SOL     OW21256  11.859  12.291   2.408  0.3444  0.1915 -0.0595
36981SOL    HW121257  11.881  12.366   2.463 -0.8957  1.3025 -1.0081
36981SOL    HW221258  11.918  12.297   2.333  2.1939 -1.4552  1.1606
36982SOL     OW21259   3.132   4.211  10.331 -0.0975  0.0124  0.3946
36982SOL    HW121260   3.064   4.277  10.346 -1.3292 -0.8877 -0.9950
36982SOL    HW221261   3.165   4.192  10.419 -4.6236 -2.5935  1.8894
36983SOL     OW21262   6.886   7.115   5.362  0.0937 -0.2912 -0.2531
36983SOL    HW121263   6.971   7.145   5.395  0.3426  0.3228 -1.3773
36983SOL    HW221264   6.839   7.086   5.439  2.0675 -2.5770  0.2302
36984SOL     OW21265   3.929   7.627  10.743 -0.0253 -0.0117  0.1571
36984SOL    HW121266   3.977   7.663  10.669  1.1258 -0.8982  0.4480
36984SOL    HW221267   3.860   7.574  10.704 -0.1369  0.4397 -0.2675
36985SOL     OW21268   7.676  11.803   2.996 -0.5139 -0.0834 -0.1050
36985SOL    HW121269   7.708  11.827   3.083 -2.1040 -0.5749  0.6404
36985SOL    HW221270   7.662  11.708   3.000  0.1408 -0.2465 -1.1622
36986SOL     OW21271   5.915   0.376  11.664  0.1596 -0.7306 -0.3237
36986SOL    HW121272   5.856   0.368  11.738 -0.2754 -2.1746 -0.7800
36986SOL    HW221273   6.001   0.392  11.703 -0.2245 -0.4737  0.4305
36987SOL     OW21274   5.234  12.617  11.539  0.1841 -0.3779  0.0178
36987SOL    HW121275   5.205  12.545  11.594  1.2051 -1.4752 -0.8382
36987SOL    HW221276   5.192  12.600  11.454  0.1130  0.2699 -0.0803
36988SOL     OW21277   8.563   9.510   5.408  0.0313 -0.0308 -0.1402
36988SOL    HW121278   8.540   9.562   5.330  0.5737 -0.0347 -0.3153
36988SOL    HW221279   8.628   9.448   5.376 -1.7135 -1.8737 -0.2673
36989SOL     OW21280   4.782   3.182   9.086 -0.5765  0.3383  0.8985
36989SOL    HW121281   4.713   3.222   9.140 -0.7713  1.6567 -0.2674
36989SOL    HW221282   4.758   3.205   8.996  0.7302 -0.2419  0.3866
36990SOL     OW21283   1.301   7.588   6.714 -0.7879 -0.0118 -0.3846
36990SOL    HW121284   1.264   7.673   6.690 -2.1848 -0.4402  0.1618
36990SOL    HW221285   1.330   7.600   6.805 -0.0224  0.1688 -0.6434
36991SOL     OW21286   0.969  11.067   7.182  0.6599  0.1710  0.2117
36991SOL    HW121287   1.001  11.076   7.092  0.1054  2.0861  0.1599
36991SOL    HW221288   0.893  11.126   7.187  0.3505 -0.3029  1.7785
36992SOL     OW21289   0.282   1.427   6.001 -0.2882 -0.7411 -0.1855
36992SOL    HW121290   0.239   1.346   6.027 -0.6297 -0.8829 -1.1333
36992SOL    HW221291   0.330   1.405   5.921 -2.8494  0.6097 -2.2873
36993SOL     OW21292   4.082   1.785  12.440  0.5626  0.6628 -0.2822
36993SOL    HW121293   4.121   1.724  12.503  2.3846  2.2733  0.2321
36993SOL    HW221294   3.992   1.797  12.471  1.0732  0.5159  1.3595
36994SOL     OW21295   8.282   8.243   0.302 -0.0217 -0.4574 -0.6624
36994SOL    HW121296   8.191   8.268   0.322 -0.0475  0.4833 -1.8563
36994SOL    HW221297   8.275   8.188   0.224  0.4551 -0.0803 -0.9744
36995SOL     OW21298   6.261  11.244   3.655 -0.4974 -0.4884  0.6965
36995SOL    HW121299   6.268  11.239   3.750 -1.9607 -0.1563  0.8436
36995SOL    HW221300   6.271  11.337   3.635  1.7382 -0.7486  0.3045
36996SOL     OW21301   4.634  12.302   7.223  0.6305 -0.0152  0.3926
36996SOL    HW121302   4.592  12.375   7.177 -0.3950 -0.0033  1.3062
36996SOL    HW221303   4.720  12.336   7.247  1.2946 -0.0953 -1.6671
36997SOL     OW21304  10.612   7.060  12.270  0.0893 -0.5870 -0.8643
36997SOL    HW121305  10.648   7.123  12.332  0.3866 -2.2743  0.7417
36997SOL    HW221306  10.524   7.093  12.251 -0.2583 -0.3953  0.9805
36998SOL     OW21307   5.096   1.434   1.199 -0.1035 -0.1347 -0.2759
36998SOL    HW121308   5.072   1.388   1.279  0.4665  1.4666  0.8929
36998SOL    HW221309   5.085   1.527   1.221  1.6187  0.4186 -1.5049
36999SOL     OW21310   2.302  10.412   0.046 -0.4351 -0.1402  0.1876
36999SOL    HW121311   2.351  10.330   0.043 -0.1527  0.0164  0.3811
36999SOL    HW221312   2.348  10.464   0.112 -2.1627 -0.8316  2.0525
37000SOL     OW21313   4.333  11.240   3.263  0.0700  0.2844 -0.3037
37000SOL    HW121314   4.288  11.241   3.348  0.0745  1.1464 -0.3024
37000SOL    HW221315   4.401  11.174   3.273  1.4207  1.7956  1.0946
37001SOL     OW21316   9.353  12.644   5.132  0.3782  0.5090  0.7590
37001SOL    HW121317   9.338  12.629   5.225  1.2444 -0.3051  0.7837
37001SOL    HW221318   9.397  12.564   5.102 -0.3894  0.5248 -0.4670
37002SOL     OW21319   8.821   0.026   1.148  0.4357 -0.5100 -0.2247
37002SOL    HW121320   8.893   0.033   1.211  1.8142  1.5928 -1.8586
37002SOL    HW221321   8.864   0.031   1.062 -1.5116 -1.4910 -1.3338
37003SOL     OW21322   6.618   5.953   5.030  0.0726  0.2946  0.2065
37003SOL    HW121323   6.691   5.988   4.979  0.3328  1.2989  1.2202
37003SOL    HW221324   6.542   5.960   4.972  0.8397 -1.4061 -1.1242
37004SOL     OW21325   1.624   6.087   8.360  0.4955 -0.2766 -0.2676
37004SOL    HW121326   1.629   6.175   8.398 -1.9915 -0.6436  1.1224
37004SOL    HW221327   1.706   6.077   8.312  1.5977  2.1391  0.9446
37005SOL     OW21328   5.225   8.316  10.364 -0.1569  0.0508 -0.4966
37005SOL    HW121329   5.188   8.381  10.304 -0.2698 -1.0332 -1.6412
37005SOL    HW221330   5.168   8.239  10.353  0.6966 -0.6494 -0.0833
37006SOL     OW21331  11.659  11.650   4.090 -0.2443 -0.2700  0.1664
37006SOL    HW121332  11.626  11.673   4.003  1.1085 -0.8015 -0.5274
37006SOL    HW221333  11.715  11.724   4.114  0.1058 -0.5263  0.1623
37007SOL     OW21334  10.278  10.309   6.447  0.1813 -0.1368  0.0407
37007SOL    HW121335  10.262  10.351   6.532  0.1330  0.8653 -0.4463
37007SOL    HW221336  10.371  10.287   6.448  0.7785  2.1228 -0.5748
37008SOL     OW21337   7.831  10.271   8.705 -0.1314  0.3659 -0.3109
37008SOL    HW121338   7.926  10.280   8.698  0.1854 -1.6451  0.5046
37008SOL    HW221339   7.797  10.360   8.695  1.8013  1.0762 -0.9959
37009SOL     OW21340   2.391   7.828   0.539  0.5023  0.8244  0.3039
37009SOL    HW121341   2.484   7.845   0.555  0.7677 -1.3076  1.3015
37009SOL    HW221342   2.389   7.764   0.467 -0.3274  2.3730 -1.1399
37010SOL     OW21343   3.702   4.900   7.991 -0.0948 -0.3536 -0.1402
37010SOL    HW121344   3.794   4.909   7.966  0.2069  0.4475  1.2013
37010SOL    HW221345   3.669   4.990   7.997 -1.3239 -0.6425 -1.7791
37011SOL     OW21346  10.386  12.242   4.925 -0.7065  0.7148 -0.4297
37011SOL    HW121347  10.430  12.328   4.930 -1.6934  1.2535 -0.8092
37011SOL    HW221348  10.316  12.248   4.990 -0.7001  0.1424 -0.3696
37012SOL     OW21349   5.705   6.154   5.673  0.0879 -0.3876 -0.5632
37012SOL    HW121350   5.616   6.139   5.706 -0.0209 -0.1494 -0.7476
37012SOL    HW221351   5.693   6.194   5.587  0.3697  0.8571 -0.0465
37013SOL     OW21352   2.987  10.746   1.364 -0.8545 -0.4410  0.6033
37013SOL    HW121353   3.042  10.670   1.346 -2.4577 -1.5094 -0.1138
37013SOL    HW221354   2.996  10.761   1.458  0.7746 -0.4584  0.4652
37014SOL     OW21355  12.330  10.944  11.357  0.2766  0.2798 -0.0817
37014SOL    HW121356  12.391  10.936  11.284 -0.0055 -3.4280 -0.0911
37014SOL    HW221357  12.247  10.913  11.322 -0.9872  2.4885  0.7446
37015SOL     OW21358   5.592   2.937   7.393 -0.1992 -0.4475 -0.1544
37015SOL    HW121359   5.516   2.918   7.447 -1.6784  2.9053 -0.7643
37015SOL    HW221360   5.645   2.996   7.447  1.3007 -1.6181 -0.2808
37016SOL     OW21361   9.754   5.977   4.424  0.0814  0.6053  0.1094
37016SOL    HW121362   9.766   5.929   4.507 -0.0511  3.5034  1.9477
37016SOL    HW221363   9.676   5.938   4.385  1.5699 -2.5537 -0.0500
37017SOL     OW21364  11.687   0.407   5.293  0.4930 -0.7055  0.2745
37017SOL    HW121365  11.745   0.333   5.276  0.3521 -0.6565 -0.4203
37017SOL    HW221366  11.599   0.367   5.297  0.0644 -0.2898 -2.6765
37018SOL     OW21367  12.219  11.245   5.045  0.2945  0.1842  0.4047
37018SOL    HW121368  12.137  11.272   5.086 -0.5536 -1.0250 -0.4488
37018SOL    HW221369  12.202  11.247   4.951  1.2183 -0.1268  0.2155
37019SOL     OW21370   6.442   4.393   7.713  0.0772  0.3459 -0.4479
37019SOL    HW121371   6.450   4.410   7.807  0.0604 -0.2851 -0.3326
37019SOL    HW221372   6.510   4.447   7.674 -0.4233  1.2175 -0.1457
37020SOL     OW21373   8.068   0.012  10.241 -0.1911  0.1703  0.5439
37020SOL    HW121374   8.139   0.056  10.194  0.0313 -2.3483 -1.6993
37020SOL    HW221375   8.081   0.037  10.333  2.6879  1.0078  0.0058
37021SOL     OW21376  12.907   1.278   5.195  0.7529  0.3588 -0.3577
37021SOL    HW121377  12.898   1.183   5.181  1.8207  0.1704  0.1299
37021SOL    HW221378  12.991   1.300   5.155  0.0908  1.2908 -1.2787
37022SOL     OW21379   6.780  12.435   1.007  0.2662 -0.2455 -0.3100
37022SOL    HW121380   6.804  12.489   0.931 -2.4040  0.4082 -0.8100
37022SOL    HW221381   6.787  12.494   1.081 -1.8519  0.6741 -0.7549
37023SOL     OW21382   4.801   2.989  12.818  0.3574 -0.5142  0.2849
37023SOL    HW121383   4.855   2.933  12.763  0.8436  2.1218 -2.1810
37023SOL    HW221384   4.711   2.959  12.803  0.6535 -1.0335 -0.5142
37024SOL     OW21385   6.198   5.826   2.544 -0.0815  0.8219  0.6564
37024SOL    HW121386   6.156   5.912   2.545  1.3859  1.5945  2.7906
37024SOL    HW221387   6.288   5.843   2.517  0.3416  0.0463  1.5137
37025SOL     OW21388   0.472  10.929   2.964 -0.3376  0.3297 -0.3479
37025SOL    HW121389   0.540  10.866   2.941 -1.3843 -0.2943 -1.8875
37025SOL    HW221390   0.478  10.998   2.898 -1.4199  0.0692 -0.7411
37026SOL     OW21391   0.702  12.777   6.200 -0.0304 -0.5509  0.0186
37026SOL    HW121392   0.703  12.683   6.220 -0.6456 -0.5818 -0.0492
37026SOL    HW221393   0.791  12.807   6.218 -0.3077 -0.7562  2.0133
37027SOL     OW21394   7.473   9.269   6.331 -0.2517 -0.1956  0.6321
37027SOL    HW121395   7.421   9.303   6.258  0.1839  0.3198  0.5554
37027SOL    HW221396   7.484   9.344   6.390  0.6660 -0.2079  0.4939
37028SOL     OW21397   6.486   8.630   5.606  0.2945 -0.0408 -0.1781
37028SOL    HW121398   6.444   8.705   5.649  1.4805  0.0884  0.8260
37028SOL    HW221399   6.569   8.619   5.654  0.1360 -2.0031 -0.2792
37029SOL     OW21400   3.675  10.702   0.536  0.1948 -0.3638  0.0486
37029SOL    HW121401   3.743  10.769   0.525  2.3781 -2.4027  0.2832
37029SOL    HW221402   3.676  10.682   0.629  0.2131 -1.3215 -0.1493
37030SOL     OW21403   3.739   0.991  11.814  0.4180 -0.5115 -0.0055
37030SOL    HW121404   3.649   1.004  11.843  0.0468 -2.1107 -0.3382
37030SOL    HW221405   3.752   0.896  11.816  2.7351 -0.2445  1.8585
37031SOL     OW21406   9.044   3.263   6.940  0.3038 -0.1615  0.3514
37031SOL    HW121407   9.063   3.213   7.020 -2.6173 -2.4482 -0.1910
37031SOL    HW221408   9.020   3.196   6.876 -0.5691  1.8022 -1.4933
37032SOL     OW21409   9.989   5.891   9.020  0.3117  0.2615 -0.3627
37032SOL    HW121410   9.920   5.831   9.047 -0.5485  1.0388 -0.8068
37032SOL    HW221411  10.047   5.837   8.965 -0.9442  0.0231 -1.5139
37033SOL     OW21412   7.954   9.092   8.739 -0.1352 -0.2313 -0.0202
37033SOL    HW121413   7.935   9.186   8.750 -2.1489 -0.6123  0.1904
37033SOL    HW221414   7.868   9.052   8.729  0.4737 -2.4175  2.5512
37034SOL     OW21415   5.630  12.509   5.293  0.0792  0.1396 -0.1413
37034SOL    HW121416   5.627  12.554   5.208 -1.0294  2.0133  0.8356
37034SOL    HW221417   5.689  12.561   5.346  1.3803 -1.4628  0.0605
37035SOL     OW21418   0.489   2.884  12.313  0.2171 -0.0069  0.7259
37035SOL    HW121419   0.484   2.790  12.328  0.3714 -0.2336 -0.5333
37035SOL    HW221420   0.409   2.906  12.265  0.1652  0.5144  1.0363
37036SOL     OW21421   5.646   9.618  12.328 -0.5267  0.2930  0.0669
37036SOL    HW121422   5.611   9.547  12.381 -0.0690  0.7525  1.0085
37036SOL    HW221423   5.609   9.604  12.241 -2.3952  0.2824  0.8184
37037SOL     OW21424   6.061  12.162  10.721  0.4005 -0.3383 -0.0728
37037SOL    HW121425   6.095  12.127  10.803  1.2347  2.6868  0.9986
37037SOL    HW221426   5.967  12.172  10.736  0.4812 -0.1963  0.3361
37038SOL     OW21427   1.639   9.434   5.570  0.0040 -0.2150  0.4097
37038SOL    HW121428   1.580   9.359   5.576  0.3411 -0.9976 -3.3637
37038SOL    HW221429   1.726   9.395   5.563  0.4251  0.6546  0.6634
37039SOL     OW21430   2.105   0.041  10.981 -0.1893  0.1294 -0.1396
37039SOL    HW121431   2.179  -0.007  11.020  0.7554  1.5815 -0.0474
37039SOL    HW221432   2.125   0.044  10.888 -1.6076 -1.8954 -0.5781
37040SOL     OW21433   1.986  11.304   8.113 -0.1942  0.5081  0.5801
37040SOL    HW121434   2.077  11.282   8.092 -0.4386  0.4362 -0.4638
37040SOL    HW221435   1.988  11.399   8.129 -0.2498  0.9203 -1.4916
37041SOL     OW21436  11.689   6.089  11.771  1.1319 -0.4513  0.6678
37041SOL    HW121437  11.636   6.023  11.816  1.9497 -1.2758  0.4471
37041SOL    HW221438  11.625   6.143  11.725  0.4916 -1.6291  0.1258
37042SOL     OW21439   2.460  12.199   1.126  0.0132  0.2895  0.2481
37042SOL    HW121440   2.446  12.190   1.032 -1.0746 -0.9022  0.4911
37042SOL    HW221441   2.523  12.130   1.148  0.4524  0.7215  0.3651
37043SOL     OW21442   7.742   4.301   3.196  0.8897  0.4337  0.3431
37043SOL    HW121443   7.687   4.245   3.140  1.0597  1.6225 -1.0801
37043SOL    HW221444   7.828   4.260   3.192  0.2242 -1.3342  2.4347
37044SOL     OW21445  10.903   7.264   3.795  0.0241  0.1107 -0.1572
37044SOL    HW121446  10.948   7.299   3.717  0.6970 -0.8682 -0.2312
37044SOL    HW221447  10.873   7.178   3.768  0.8833 -0.5339  0.8790
37045SOL     OW21448  12.265   3.100   6.853  0.0988 -0.0100  0.1092
37045SOL    HW121449  12.234   3.190   6.857 -1.9059 -0.6167 -0.3211
37045SOL    HW221450  12.290   3.087   6.762  0.6089  0.1770  0.2223
37046SOL     OW21451   8.473   6.409   3.422 -0.1732 -0.5798 -0.3090
37046SOL    HW121452   8.509   6.332   3.378 -0.1689 -1.4274  1.1072
37046SOL    HW221453   8.544   6.438   3.480 -0.4930 -0.0538 -0.1771
37047SOL     OW21454   4.528   7.666   2.587 -0.1573  0.0826 -0.0579
37047SOL    HW121455   4.575   7.745   2.614  0.8257 -0.6416  0.4108
37047SOL    HW221456   4.436   7.688   2.601 -0.1138  1.9730 -2.1245
37048SOL     OW21457   3.205   4.177   1.828 -0.4036 -0.4034 -0.3157
37048SOL    HW121458   3.173   4.108   1.769  1.3513  0.2893 -2.1712
37048SOL    HW221459   3.224   4.251   1.771 -0.4084  0.9988  1.3943
37049SOL     OW21460   1.938   2.177   5.847  0.0753  0.2051 -0.1997
37049SOL    HW121461   2.028   2.199   5.871 -0.6501  0.5794  2.4995
37049SOL    HW221462   1.897   2.261   5.827 -0.3524  0.3482  1.2260
37050SOL     OW21463   8.407   2.971   1.472 -0.0153  0.2836 -0.2202
37050SOL    HW121464   8.364   2.935   1.550  0.9183  1.6696  0.9871
37050SOL    HW221465   8.335   3.002   1.417 -0.6816 -0.5984  0.1331
37051SOL     OW21466  11.892   0.267   7.288 -0.3625  0.1341  0.0530
37051SOL    HW121467  11.986   0.267   7.305 -0.2167  0.8194 -0.6675
37051SOL    HW221468  11.856   0.203   7.349  0.6212 -0.4351  0.0510
37052SOL     OW21469   1.009  12.389  11.439  0.0528  0.8459  0.0560
37052SOL    HW121470   1.033  12.460  11.499  0.5899  1.2916 -0.6726
37052SOL    HW221471   1.068  12.400  11.364 -0.6185  0.2992 -0.5624
37053SOL     OW21472  12.323   9.102   8.646 -0.1527  0.4478 -0.0435
37053SOL    HW121473  12.397   9.075   8.592  0.3530  1.7806 -0.0484
37053SOL    HW221474  12.283   9.175   8.599 -1.3220 -0.0741  0.0924
37054SOL     OW21475  12.821   9.203   2.897  0.0883  0.1619 -0.0143
37054SOL    HW121476  12.766   9.156   2.834 -0.0470  0.5203 -0.1683
37054SOL    HW221477  12.758   9.245   2.957  0.1956  0.4322 -0.0878
37055SOL     OW21478   6.562   2.210   6.128  0.1439  0.0479  0.2572
37055SOL    HW121479   6.580   2.222   6.221 -1.5739 -0.3022  0.6704
37055SOL    HW221480   6.634   2.154   6.097  1.0502  0.6409  1.2176
37056SOL     OW21481   2.370  12.872   4.662  0.3833 -0.2385 -0.2804
37056SOL    HW121482   2.425  12.871   4.584  0.9543  0.4470  0.1096
37056SOL    HW221483   2.391  12.790   4.708  0.0815 -0.6180 -0.8109
37057SOL     OW21484  10.779   1.112   3.254  0.3905 -0.5002  0.2721
37057SOL    HW121485  10.814   1.198   3.232  0.9529 -0.8710 -0.3022
37057SOL    HW221486  10.688   1.115   3.224  0.7073 -0.4664 -0.6971
37058SOL     OW21487   2.945   8.114   7.863 -0.0176  0.0541  0.0209
37058SOL    HW121488   2.932   8.206   7.883  2.3575  0.4308  0.1455
37058SOL    HW221489   2.999   8.114   7.784  2.8367 -1.0685  1.8112
37059SOL     OW21490  10.231   9.818   2.533  0.1487 -0.3458 -0.2256
37059SOL    HW121491  10.231   9.799   2.440 -1.0942 -1.4331 -0.0194
37059SOL    HW221492  10.204   9.737   2.575 -1.5743  0.7366  0.9238
37060SOL     OW21493   3.187   4.571   7.153  0.7660  0.2039 -0.3673
37060SOL    HW121494   3.121   4.535   7.095  0.5406  0.2595 -0.1459
37060SOL    HW221495   3.226   4.495   7.195 -0.6391  0.2581  1.1222
37061SOL     OW21496  10.305  12.158   4.166 -0.3758  0.0690  0.1068
37061SOL    HW121497  10.333  12.240   4.125 -0.1073 -0.2927 -0.4417
37061SOL    HW221498  10.350  12.090   4.116 -0.0755 -0.3837  0.9734
37062SOL     OW21499   7.643   9.950  11.774 -0.3175  0.2444  0.3749
37062SOL    HW121500   7.555   9.947  11.736 -0.1285 -1.9817 -0.0044
37062SOL    HW221501   7.694   9.889  11.722  1.0457  0.2695  1.6191
37063SOL     OW21502   9.262  12.984   8.721  0.0903 -0.0382  0.2769
37063SOL    HW121503   9.269  12.920   8.792 -1.3807 -1.2051 -0.5849
37063SOL    HW221504   9.345  13.032   8.724  0.4399 -0.6747  2.1795
37064SOL     OW21505  12.159   7.325   2.605  0.5260  0.0108 -0.6603
37064SOL    HW121506  12.157   7.400   2.663  1.1782  0.2210 -0.8987
37064SOL    HW221507  12.084   7.272   2.631 -1.2065  1.7369 -1.8392
37065SOL     OW21508   9.895   0.769   8.409  0.4590 -0.2352 -0.5880
37065SOL    HW121509   9.977   0.755   8.363  1.2875  1.0370  0.4254
37065SOL    HW221510   9.916   0.831   8.478 -1.2679 -0.2038 -0.0241
37066SOL     OW21511  10.478   0.474  10.765 -0.2678  0.3176 -0.4255
37066SOL    HW121512  10.535   0.543  10.733 -0.2467  0.7367  0.4820
37066SOL    HW221513  10.451   0.504  10.852 -1.2140 -0.2513 -0.5070
37067SOL     OW21514   6.007   4.852   6.160  0.1237 -0.1497 -0.0087
37067SOL    HW121515   6.027   4.899   6.079  2.1715  0.2766  0.6832
37067SOL    HW221516   6.031   4.761   6.142  0.3005 -0.1092  0.0192
37068SOL     OW21517  10.184   7.884   0.414  0.6981  0.4868  0.2750
37068SOL    HW121518  10.234   7.807   0.386 -0.0479  0.4500 -1.0285
37068SOL    HW221519  10.233   7.959   0.378 -0.6447  0.4081 -1.8743
37069SOL     OW21520   6.525   8.854   0.015  0.2175 -0.1274  0.0507
37069SOL    HW121521   6.512   8.791   0.086 -1.2141  0.6580  0.5447
37069SOL    HW221522   6.547   8.936   0.059 -0.8008  0.3977 -0.3738
37070SOL     OW21523   1.239   5.562  12.577  0.3188  0.2757 -0.4205
37070SOL    HW121524   1.156   5.521  12.552 -1.0019  2.4650  0.1748
37070SOL    HW221525   1.225   5.591  12.667  1.9994  0.0866 -0.0677
37071SOL     OW21526   7.970  11.061   2.358 -0.0201  0.0512  0.0170
37071SOL    HW121527   7.975  11.133   2.296 -0.9284 -0.6378 -0.8832
37071SOL    HW221528   7.937  11.101   2.439  1.0321  0.9212  0.0446
37072SOL     OW21529   1.452   8.668   4.807  0.5901 -0.5771 -0.5278
37072SOL    HW121530   1.368   8.696   4.842  0.8359  0.9123 -1.0301
37072SOL    HW221531   1.465   8.722   4.728  1.9369 -0.8679 -0.5399
37073SOL     OW21532   3.894   9.677  11.949  0.0161  0.0885 -0.7369
37073SOL    HW121533   3.859   9.631  12.025  0.1006 -1.5393 -1.6565
37073SOL    HW221534   3.831   9.660  11.879  0.8752  0.0048 -1.5109
37074SOL     OW21535   5.472   1.690   0.608 -0.3523 -0.3044 -0.1652
37074SOL    HW121536   5.408   1.751   0.645 -0.6325 -0.3195 -0.6213
37074SOL    HW221537   5.494   1.727   0.522 -1.8298 -1.7482 -1.2128
37075SOL     OW21538  12.038  12.025   0.748  0.8807  0.0586  0.7864
37075SOL    HW121539  11.992  12.071   0.678 -0.2207 -0.4047  1.1673
37075SOL    HW221540  12.006  12.066   0.828 -0.3264 -1.4938  1.1420
37076SOL     OW21541  11.655   1.452   2.500 -0.2738  0.0110  0.2508
37076SOL    HW121542  11.711   1.381   2.467 -0.2998 -0.3643  0.9905
37076SOL    HW221543  11.566   1.424   2.479 -0.2975 -0.2793  0.7399
37077SOL     OW21544   4.655   8.696   4.191 -0.3947 -0.3653 -0.0857
37077SOL    HW121545   4.670   8.787   4.215 -0.8159  0.0293 -1.2315
37077SOL    HW221546   4.560   8.691   4.175 -0.1644 -0.6013 -1.5406
37078SOL     OW21547   6.013  11.546   5.672  0.0132  0.0200 -0.0984
37078SOL    HW121548   6.057  11.548   5.757 -0.9039  0.8824  0.3789
37078SOL    HW221549   6.070  11.492   5.617  0.2002 -1.2717  1.2841
37079SOL     OW21550   6.204   1.596   8.657  0.2729 -0.0621 -0.0212
37079SOL    HW121551   6.119   1.597   8.701  1.2788 -1.3645  2.0938
37079SOL    HW221552   6.202   1.518   8.602  1.6218 -2.8822  3.5479
37080SOL     OW21553   6.164   2.961   0.377 -0.6262 -0.0498  0.0644
37080SOL    HW121554   6.117   3.000   0.451 -0.4469  0.1556  0.0714
37080SOL    HW221555   6.135   2.870   0.376  0.9553 -0.6255  1.7127
37081SOL     OW21556   7.465   0.840   6.416 -0.6272  0.2588 -0.5800
37081SOL    HW121557   7.472   0.929   6.382  1.3723  0.0789 -0.7774
37081SOL    HW221558   7.517   0.841   6.496  2.2618 -1.4274 -2.2406
37082SOL     OW21559   7.663   8.576   2.211  0.2108 -0.6422 -0.4065
37082SOL    HW121560   7.580   8.533   2.196  1.0205 -1.7690 -1.9191
37082SOL    HW221561   7.705   8.578   2.125  1.9970 -0.6720  0.4200
37083SOL     OW21562   5.908   7.053   4.050 -0.2572 -0.3308  0.3160
37083SOL    HW121563   5.888   7.102   4.130  0.5566 -1.9390  1.5551
37083SOL    HW221564   5.985   7.096   4.014 -0.2719  0.0436  0.7169
37084SOL     OW21565   6.794  10.722   8.200  0.5593 -0.2968  0.3383
37084SOL    HW121566   6.730  10.720   8.129  1.0150  0.9725 -0.1230
37084SOL    HW221567   6.873  10.760   8.161  1.9398 -2.6153  0.6500
37085SOL     OW21568   9.794  10.863  11.046  0.2176 -0.3797  0.3290
37085SOL    HW121569   9.840  10.782  11.069 -1.4815 -1.4558  0.1137
37085SOL    HW221570   9.837  10.893  10.967  0.5844 -1.3388  0.1465
37086SOL     OW21571   1.622   4.639   1.241 -0.2722  0.0743  0.5213
37086SOL    HW121572   1.708   4.599   1.229 -1.0581 -1.4206 -0.4085
37086SOL    HW221573   1.565   4.566   1.267 -1.4092  0.8893  0.3760
37087SOL     OW21574   5.510  12.803   8.214 -0.0796  0.2098  0.2170
37087SOL    HW121575   5.605  12.802   8.226  0.0164  1.5808 -0.3120
37087SOL    HW221576   5.478  12.734   8.272  1.3771 -1.4684 -0.8703
37088SOL     OW21577  10.733  11.634   2.994  0.0144 -0.2333 -0.4413
37088SOL    HW121578  10.702  11.662   2.908  0.2977 -0.0286 -0.4785
37088SOL    HW221579  10.808  11.578   2.975  0.6751  0.5903 -0.2952
37089SOL     OW21580   5.569   9.753   5.489 -0.1993 -0.0269 -0.1747
37089SOL    HW121581   5.632   9.699   5.537 -0.1584 -0.0771 -0.2848
37089SOL    HW221582   5.616   9.779   5.409  0.4925  1.8003  0.7733
37090SOL     OW21583   7.761  12.711   3.538  0.4540 -0.5242  0.5333
37090SOL    HW121584   7.678  12.700   3.583  0.1747 -0.6543 -0.0073
37090SOL    HW221585   7.747  12.782   3.477  0.8212 -0.3710  0.6239
37091SOL     OW21586   2.988  12.507   0.056  0.2079 -0.1859  0.2600
37091SOL    HW121587   2.938  12.431   0.028 -0.8201  0.8809 -0.9801
37091SOL    HW221588   2.939  12.543   0.130 -1.6089  1.4902 -1.6377
37092SOL     OW21589  12.841   7.699   9.705 -0.1045 -0.3469  0.1876
37092SOL    HW121590  12.807   7.788   9.702  2.0610  0.5041 -1.6141
37092SOL    HW221591  12.847   7.672   9.614  2.7091 -0.8846  0.4492
37093SOL     OW21592   5.219   0.708   1.024 -0.5083 -0.3112  0.2497
37093SOL    HW121593   5.147   0.750   0.979 -0.4760 -0.6385 -0.1169
37093SOL    HW221594   5.227   0.754   1.108 -1.6910 -0.8247  0.6592
37094SOL     OW21595   4.762   8.891   2.743  0.2369 -0.1079 -0.4545
37094SOL    HW121596   4.759   8.974   2.792  1.8511  0.5328 -1.3717
37094SOL    HW221597   4.671   8.877   2.715  0.2649  2.7561 -2.4576
37095SOL     OW21598  12.378   5.020   1.561  0.3157  0.3813  0.3181
37095SOL    HW121599  12.285   5.016   1.539  0.6302  0.7172 -1.1339
37095SOL    HW221600  12.421   4.968   1.493  0.9767 -2.2406  2.5649
37096SOL     OW21601   4.695   6.993   9.192 -0.0350 -0.3189  0.2482
37096SOL    HW121602   4.684   7.006   9.098 -1.9183 -0.3731  0.4219
37096SOL    HW221603   4.729   7.077   9.224 -0.8168  0.2242 -0.2925
37097SOL     OW21604   7.156   4.040   3.421 -0.5317 -0.4189 -0.4260
37097SOL    HW121605   7.236   3.990   3.433 -0.0689  0.4642  0.2527
37097SOL    HW221606   7.178   4.129   3.450 -1.1164  0.3778 -2.2854
37098SOL     OW21607   6.070   2.300  10.289 -0.2003 -0.3016  0.3801
37098SOL    HW121608   6.145   2.245  10.264 -0.9305 -1.4757  0.7176
37098SOL    HW221609   6.031   2.326  10.206  0.1962 -0.2205  0.2143
37099SOL     OW21610   1.497   3.670  11.968 -0.3354  0.5575 -0.8309
37099SOL    HW121611   1.567   3.659  12.032 -0.8175 -1.2526 -0.5525
37099SOL    HW221612   1.484   3.765  11.963  2.0246  0.9324 -0.8123
37100SOL     OW21613   2.156   8.078  11.511  0.2656 -0.0918  0.1743
37100SOL    HW121614   2.206   8.146  11.555  0.7949  1.0473 -2.0386
37100SOL    HW221615   2.164   8.001  11.568  3.4696  0.4036  0.5651
37101SOL     OW21616   7.916  11.915   5.396 -0.0308 -0.2444  0.3689
37101SOL    HW121617   7.909  11.849   5.326  0.0296 -0.1687  0.2906
37101SOL    HW221618   7.979  11.878   5.457  0.4094 -0.0233  0.0561
37102SOL     OW21619   6.622  12.657   7.838 -0.5349  0.0487 -0.6224
37102SOL    HW121620   6.557  12.721   7.808 -2.2657 -0.8164  1.0511
37102SOL    HW221621   6.658  12.621   7.757 -1.4033  1.2671 -1.6120
37103SOL     OW21622   5.640   5.098   5.559 -0.5364 -0.0503 -0.3536
37103SOL    HW121623   5.653   5.187   5.525  1.1828 -0.0626  0.1619
37103SOL    HW221624   5.554   5.072   5.526 -0.7925  1.5555 -1.0555
37104SOL     OW21625   3.591   5.386   2.422  0.1010  0.6366  0.3780
37104SOL    HW121626   3.534   5.329   2.370  2.0128 -1.7593  0.7111
37104SOL    HW221627   3.677   5.378   2.381  0.9604  1.3002  1.9674
37105SOL     OW21628   7.353   1.420   1.596  0.2637 -0.2295 -0.1951
37105SOL    HW121629   7.264   1.430   1.629 -0.2173 -1.6318 -0.9663
37105SOL    HW221630   7.391   1.507   1.603 -1.0094  0.2957  0.5980
37106SOL     OW21631  10.596   7.111   9.197 -0.0205 -0.3403 -0.0432
37106SOL    HW121632  10.650   7.073   9.267  1.2727  0.0949 -0.7653
37106SOL    HW221633  10.637   7.081   9.116 -0.2233  0.8726 -0.6178
37107SOL     OW21634   8.378  12.941   2.091  0.0853 -0.1524 -0.0610
37107SOL    HW121635   8.440  13.005   2.125  0.1108  0.5577 -1.3647
37107SOL    HW221636   8.363  12.881   2.164  0.0710  1.3130  1.2005
37108SOL     OW21637   8.618   6.470   1.306  0.2118  0.3538  0.2127
37108SOL    HW121638   8.629   6.565   1.298  0.6502  0.3399  0.6242
37108SOL    HW221639   8.702   6.434   1.277 -0.8695 -0.0569 -2.7753
37109SOL     OW21640   7.085   1.509   9.696 -0.1131  0.3163 -0.1670
37109SOL    HW121641   7.087   1.517   9.792  1.9235 -0.3756 -0.0911
37109SOL    HW221642   7.001   1.547   9.670 -0.2509  1.5085  1.8068
37110SOL     OW21643   7.313  11.256   1.971 -0.1751 -0.6350  0.0559
37110SOL    HW121644   7.372  11.331   1.961  2.4432 -2.5278  0.1153
37110SOL    HW221645   7.368  11.188   2.010 -3.2073 -1.6839  3.0409
37111SOL     OW21646  12.336   0.112   7.172 -0.2566  0.0124 -0.1835
37111SOL    HW121647  12.421   0.072   7.155 -1.3885 -1.5238 -2.7845
37111SOL    HW221648  12.326   0.177   7.102 -0.7351  1.0895  0.8451
37112SOL     OW21649  11.990   1.211   4.993 -0.1246  0.1023 -0.1791
37112SOL    HW121650  11.938   1.251   4.924 -0.1964 -0.9601 -0.7582
37112SOL    HW221651  11.930   1.150   5.036  1.3824 -4.0014 -3.2219
37113SOL     OW21652   5.293   6.430   7.172 -0.0647 -0.1310  0.3022
37113SOL    HW121653   5.384   6.458   7.181 -0.2621  0.8073 -0.4669
37113SOL    HW221654   5.287   6.400   7.081 -0.4283 -0.5522  0.4645
37114SOL     OW21655   4.075   3.950   7.087 -0.1949  0.6246 -0.0636
37114SOL    HW121656   4.149   3.892   7.104 -0.6369  0.1162  0.1441
37114SOL    HW221657   4.003   3.891   7.064 -1.2124  0.9288  2.1266
37115SOL     OW21658   3.396   8.631   1.355  0.1562  0.2480  0.6440
37115SOL    HW121659   3.403   8.684   1.276  1.6569 -2.8423 -1.5019
37115SOL    HW221660   3.419   8.691   1.426  2.2695  2.3629 -1.6243
37116SOL     OW21661  10.233   5.821   5.094 -0.1436 -0.1654 -0.3269
37116SOL    HW121662  10.324   5.851   5.084 -0.1931  0.5412  1.0264
37116SOL    HW221663  10.229   5.790   5.185 -2.0717  2.9198  0.7973
37117SOL     OW21664  11.705   5.235  12.427 -0.0590 -0.1697  0.5571
37117SOL    HW121665  11.697   5.323  12.465 -0.0473  0.4748 -0.8775
37117SOL    HW221666  11.683   5.247  12.335  2.0413 -1.2638 -0.1469
37118SOL     OW21667   4.444   5.734   3.720  0.9458  0.1225  0.3615
37118SOL    HW121668   4.475   5.652   3.682 -0.8003  0.0220 -0.9767
37118SOL    HW221669   4.385   5.770   3.654 -0.5435  1.0290  2.1155
37119SOL     OW21670  12.263  11.742   2.712  0.1925 -0.5944 -0.6106
37119SOL    HW121671  12.339  11.690   2.686  1.6955  1.4899 -0.5672
37119SOL    HW221672  12.211  11.750   2.633  0.0056 -1.9998 -0.6528
37120SOL     OW21673   5.372   8.002   4.321  0.3582  0.1124 -0.1497
37120SOL    HW121674   5.339   7.919   4.288 -0.2732  0.3328 -0.0782
37120SOL    HW221675   5.455   7.980   4.364  0.2573 -0.4559 -0.2477
37121SOL     OW21676   6.045  12.873   7.090 -0.2140  0.2485 -0.7804
37121SOL    HW121677   6.058  12.966   7.109  3.2917  0.1101 -1.8179
37121SOL    HW221678   6.127  12.831   7.116 -0.8630 -2.2144 -2.3491
37122SOL     OW21679   8.627  11.949   0.069  0.2373  0.0121  0.3858
37122SOL    HW121680   8.696  12.015   0.061  0.6453 -0.5945 -1.8539
37122SOL    HW221681   8.674  11.867   0.085 -0.1948  0.0383  1.9320
37123SOL     OW21682   4.282   5.554  11.141 -0.4273  0.7888  0.0028
37123SOL    HW121683   4.190   5.569  11.117 -0.1780 -1.6601 -3.1954
37123SOL    HW221684   4.329   5.630  11.106 -0.9453  0.8835 -0.4944
37124SOL     OW21685   4.097   3.861   3.158  0.6379  0.0640  0.2532
37124SOL    HW121686   4.169   3.921   3.138  1.3847 -0.4640  1.2358
37124SOL    HW221687   4.061   3.894   3.241  0.2360 -0.1071  0.1473
37125SOL     OW21688  12.522  11.847  11.010  0.1022  0.4326 -0.1290
37125SOL    HW121689  12.571  11.878  10.934  0.0076 -0.0563 -0.3981
37125SOL    HW221690  12.585  11.844  11.081  0.6524 -0.8529 -0.6347
37126SOL     OW21691   2.938   0.535   6.546  0.7124 -0.2959 -0.2852
37126SOL    HW121692   2.916   0.444   6.567  0.1324 -0.4067 -1.2765
37126SOL    HW221693   3.021   0.529   6.498  1.7682 -0.0906  1.4430
37127SOL     OW21694   7.476   1.359  10.577  0.3139  0.1902 -0.3562
37127SOL    HW121695   7.511   1.272  10.598  1.3676  0.5896 -0.4178
37127SOL    HW221696   7.470   1.359  10.481 -0.2955 -0.0354 -0.3248
37128SOL     OW21697   5.802   1.568   7.435 -0.2079 -0.3025 -0.1440
37128SOL    HW121698   5.809   1.648   7.384  1.1452  0.1569  0.6949
37128SOL    HW221699   5.841   1.590   7.520 -1.9906 -1.1626  0.9502
37129SOL     OW21700   5.328   0.855   4.974 -0.2308  0.0668 -0.4226
37129SOL    HW121701   5.286   0.938   4.996  2.2840  0.9001  1.9176
37129SOL    HW221702   5.256   0.792   4.968 -2.0710  2.0755 -0.6513
37130SOL     OW21703   4.313  11.822   4.271  0.0430 -0.5305 -0.0477
37130SOL    HW121704   4.257  11.873   4.212 -0.3791 -0.0819  0.7269
37130SOL    HW221705   4.363  11.765   4.213  0.3245  0.5718 -0.9189
37131SOL     OW21706   5.743  11.171   7.040  0.1215  0.0502 -0.1474
37131SOL    HW121707   5.788  11.187   7.123  0.8921  0.5788 -0.6573
37131SOL    HW221708   5.784  11.231   6.978 -0.3676 -0.4185 -0.9445
37132SOL     OW21709   8.294   0.206   2.529 -0.0262  0.0759  0.5395
37132SOL    HW121710   8.243   0.125   2.539 -0.7884  0.5878  0.9514
37132SOL    HW221711   8.259   0.246   2.449  0.2801  0.0470  0.3905
37133SOL     OW21712   5.369   3.148   6.702  0.4300 -0.2303 -0.1244
37133SOL    HW121713   5.276   3.129   6.689 -0.0623  0.8046  1.5275
37133SOL    HW221714   5.373   3.192   6.787  2.7318 -2.4601  1.0681
37134SOL     OW21715   2.405   6.726   8.482 -0.6053  0.0231  0.0350
37134SOL    HW121716   2.355   6.702   8.404  2.7237 -0.3652 -2.1731
37134SOL    HW221717   2.395   6.652   8.541 -0.9042 -0.9799 -1.2294
37135SOL     OW21718   0.944   8.972   8.872  0.6306 -0.4807 -0.5956
37135SOL    HW121719   0.971   8.924   8.793 -0.6095 -3.1312  0.4704
37135SOL    HW221720   1.013   8.954   8.936  0.6797  0.0485 -0.5005
37136SOL     OW21721   5.042  12.366   8.399  0.5185  0.4960 -0.2271
37136SOL    HW121722   5.034  12.453   8.437  2.2612  1.0364 -0.9886
37136SOL    HW221723   5.001  12.374   8.313 -1.3739 -0.1079  0.5623
37137SOL     OW21724   5.210   3.536   8.824 -0.2664 -0.1461  0.1612
37137SOL    HW121725   5.200   3.510   8.733  0.1038 -0.6098  0.2523
37137SOL    HW221726   5.264   3.467   8.864  1.7929  1.3406  0.1078
37138SOL     OW21727   1.447  10.887  10.339 -0.6293 -0.5285  0.3577
37138SOL    HW121728   1.456  10.949  10.267 -1.3173  0.9113  1.4389
37138SOL    HW221729   1.451  10.801  10.298 -0.2161  0.2272 -1.2808
37139SOL     OW21730   4.479   1.880  10.867  0.1146  0.1968  0.0928
37139SOL    HW121731   4.437   1.907  10.786 -2.0876  0.0786  1.1129
37139SOL    HW221732   4.531   1.804  10.843 -0.2885  0.3142 -1.2452
37140SOL     OW21733   1.728   3.150   6.532  0.0922 -0.2234  0.7797
37140SOL    HW121734   1.703   3.059   6.515 -0.1355  0.0031 -0.1717
37140SOL    HW221735   1.824   3.147   6.540  0.2516 -0.3431 -0.8142
37141SOL     OW21736   6.186   3.499   9.544  0.5507 -0.3240  0.2086
37141SOL    HW121737   6.188   3.413   9.586  0.4162 -0.7098 -0.5439
37141SOL    HW221738   6.175   3.479   9.450 -1.6776  0.5459  0.2292
37142SOL     OW21739   6.371   2.368   5.988  0.0794 -0.1638 -0.0115
37142SOL    HW121740   6.445   2.328   6.035  0.0111  1.1351  1.2646
37142SOL    HW221741   6.297   2.360   6.048  0.1013  1.9829  0.3914
37143SOL     OW21742   5.793   4.943   8.582 -0.1001 -0.1471  0.6759
37143SOL    HW121743   5.835   4.900   8.507 -0.7376  0.7182 -0.1935
37143SOL    HW221744   5.706   4.967   8.551  0.2372  1.8120  1.1139
37144SOL     OW21745   8.432  10.184   6.121  0.5037  0.0705 -0.1646
37144SOL    HW121746   8.459  10.179   6.029  0.2513 -0.4010 -0.2182
37144SOL    HW221747   8.366  10.253   6.122  0.9252  0.4725 -0.2337
37145SOL     OW21748   9.518   1.002   8.778  0.2664 -0.2991  0.1424
37145SOL    HW121749   9.543   0.998   8.870  0.4341  0.5301  0.1434
37145SOL    HW221750   9.548   0.918   8.741 -0.0189 -0.7360  0.8867
37146SOL     OW21751  11.490  11.676  12.257 -0.2163 -0.1470 -0.0966
37146SOL    HW121752  11.398  11.688  12.281  0.0177 -0.4617  1.0039
37146SOL    HW221753  11.489  11.660  12.163 -1.5282 -2.6188  0.2725
37147SOL     OW21754   8.365   7.705   4.900 -0.2318 -0.2911  0.7613
37147SOL    HW121755   8.359   7.702   4.805 -2.4503 -2.9832  0.8576
37147SOL    HW221756   8.320   7.786   4.925  1.2042  0.9292 -0.4532
37148SOL     OW21757  11.845   7.653   9.742  0.0719 -0.1856 -0.1575
37148SOL    HW121758  11.758   7.652   9.782 -0.6869 -0.3715 -1.7436
37148SOL    HW221759  11.883   7.736   9.770 -1.8148  1.3405 -1.8186
37149SOL     OW21760   4.255  11.326   3.726  0.0302  0.2348 -0.3651
37149SOL    HW121761   4.199  11.353   3.653 -0.6977 -3.1408 -1.2523
37149SOL    HW221762   4.324  11.274   3.685  1.7797  1.2844  1.0938
37150SOL     OW21763   4.763  11.790  11.853 -0.2098 -0.1843 -0.1085
37150SOL    HW121764   4.740  11.704  11.889  0.0484  0.2192  1.0490
37150SOL    HW221765   4.690  11.811  11.794 -0.1366 -1.3181 -0.6262
37151SOL     OW21766   1.984   9.477   5.214 -0.4459  0.1075 -0.0122
37151SOL    HW121767   2.016   9.387   5.202 -0.3228 -0.0498  1.3967
37151SOL    HW221768   1.906   9.481   5.159  0.4835 -0.3123 -1.4351
37152SOL     OW21769   2.371   6.243   1.954 -0.1652  0.1006 -0.4183
37152SOL    HW121770   2.384   6.237   2.049  0.3254  0.1540 -0.4817
37152SOL    HW221771   2.357   6.336   1.937 -0.4378  0.0674 -0.3742
37153SOL     OW21772   3.336   4.082   0.625 -0.1278  0.0939 -0.6982
37153SOL    HW121773   3.374   4.143   0.562 -0.1348 -1.2390 -2.0490
37153SOL    HW221774   3.253   4.055   0.586  0.8768 -2.4454 -1.2785
37154SOL     OW21775   5.920  12.321   8.474 -0.0430 -0.2566 -0.1659
37154SOL    HW121776   5.962  12.301   8.557  1.4700 -0.0897 -0.8614
37154SOL    HW221777   5.967  12.397   8.440 -0.1524 -0.7511 -1.4999
37155SOL     OW21778  12.549   7.605  10.198  0.1688 -0.0372 -0.1313
37155SOL    HW121779  12.526   7.678  10.256  0.5093 -0.1532  0.1499
37155SOL    HW221780  12.621   7.560  10.243 -0.7115 -1.1639  0.1971
37156SOL     OW21781   0.489   1.624   6.796  0.0401  0.0248  0.3682
37156SOL    HW121782   0.554   1.667   6.740  0.0048 -1.0782 -0.5590
37156SOL    HW221783   0.468   1.689   6.863  1.2102  0.8334 -0.0161
37157SOL     OW21784  11.659  12.056   4.028  0.2952  0.0924  0.1721
37157SOL    HW121785  11.694  11.985   4.081  0.3061  0.1836  0.2878
37157SOL    HW221786  11.576  12.021   3.993  0.8898 -0.4171 -0.7705
37158SOL     OW21787  11.843   7.983  11.730  0.2803 -0.3160  0.1291
37158SOL    HW121788  11.838   8.079  11.727  1.1400 -0.2788 -0.6916
37158SOL    HW221789  11.812   7.960  11.817 -1.4022  0.5998 -0.1894
37159SOL     OW21790   2.683   9.813   5.530 -0.0905  0.1712 -0.0708
37159SOL    HW121791   2.706   9.858   5.448 -2.8657  1.0869 -0.4628
37159SOL    HW221792   2.713   9.723   5.517 -0.4124  0.3044 -2.1225
37160SOL     OW21793   4.144   9.805   0.964 -0.1133 -0.0474  0.4288
37160SOL    HW121794   4.123   9.722   1.006  0.1739 -0.7028 -0.6783
37160SOL    HW221795   4.092   9.870   1.012 -1.6539 -1.0807  0.2347
37161SOL     OW21796  11.488   6.727   4.417 -0.0147  0.1674  0.0311
37161SOL    HW121797  11.408   6.773   4.392 -1.4173 -0.8956  2.2537
37161SOL    HW221798  11.547   6.796   4.448 -1.4228  0.7328  1.6498
37162SOL     OW21799   6.561   7.552   1.090 -0.2884  0.1068 -0.2520
37162SOL    HW121800   6.584   7.488   1.022 -3.7118 -0.7716 -0.7428
37162SOL    HW221801   6.559   7.636   1.045  0.0622 -0.0674 -0.5980
37163SOL     OW21802   4.505   1.911   1.353 -0.1553 -0.5557 -0.1536
37163SOL    HW121803   4.463   1.950   1.430  2.9556 -0.0883  1.5107
37163SOL    HW221804   4.519   1.983   1.293 -0.1527 -0.3551  0.0867
37164SOL     OW21805   2.094   4.430  10.498 -0.4546  0.0980  0.2835
37164SOL    HW121806   2.141   4.420  10.416  0.0750 -0.3843  0.6415
37164SOL    HW221807   2.159   4.465  10.559 -0.6516 -0.2106  0.6791
37165SOL     OW21808  10.815   1.292   0.739  0.3053 -0.0074  0.2879
37165SOL    HW121809  10.739   1.234   0.745  0.3335  0.0437  1.2985
37165SOL    HW221810  10.841   1.307   0.830  0.3936  1.4744  0.0432
37166SOL     OW21811   8.178   6.903   5.818  0.1682  0.0707 -0.4082
37166SOL    HW121812   8.232   6.975   5.784  0.6624 -0.2416 -0.3034
37166SOL    HW221813   8.157   6.930   5.908 -1.4555  1.0706 -1.0374
37167SOL     OW21814  12.977   8.757  10.396  0.7426 -0.4187  0.3417
37167SOL    HW121815  13.007   8.681  10.446  0.4182 -1.4238 -0.9323
37167SOL    HW221816  12.987   8.831  10.456  2.0771 -1.2976  1.2520
37168SOL     OW21817   8.369   8.314   8.253  0.5591  0.3649 -0.0029
37168SOL    HW121818   8.327   8.390   8.293  0.3158  0.7062 -0.8880
37168SOL    HW221819   8.369   8.333   8.159 -0.1158 -1.0123 -0.3048
37169SOL     OW21820   0.896   6.918   2.490 -0.5740 -0.6539  0.2728
37169SOL    HW121821   0.970   6.863   2.516 -0.0387 -0.6565 -1.1271
37169SOL    HW221822   0.914   7.004   2.529  1.1681 -0.1334 -1.4842
37170SOL     OW21823   3.424   1.439  11.674 -0.2025 -0.4515 -0.3152
37170SOL    HW121824   3.359   1.507  11.660  0.1497 -0.2957 -1.2705
37170SOL    HW221825   3.458   1.419  11.587  0.7247 -0.8359  0.1140
37171SOL     OW21826   0.451   5.233  11.562 -0.4906  0.0171  0.3062
37171SOL    HW121827   0.446   5.139  11.577 -0.0397  0.0728  0.8742
37171SOL    HW221828   0.414   5.246  11.475 -0.6797 -0.6677  0.2781
37172SOL     OW21829   8.920  10.429  10.891 -0.2382  0.3275  0.4110
37172SOL    HW121830   8.913  10.523  10.874 -0.5290  0.3747  0.7828
37172SOL    HW221831   8.844  10.391  10.847 -0.4845  0.3442  0.8182
37173SOL     OW21832   1.398   2.191   9.408  0.1983 -0.6666  0.0008
37173SOL    HW121833   1.485   2.187   9.450  0.0765  1.6151  0.6099
37173SOL    HW221834   1.415   2.227   9.321  0.0042 -1.7721 -0.5180
37174SOL     OW21835   8.491   3.977   6.453 -0.2264  0.1067 -0.5389
37174SOL    HW121836   8.447   3.914   6.510 -0.1929  0.3787 -0.2151
37174SOL    HW221837   8.421   4.021   6.406 -0.6828  3.2304  2.6503
37175SOL     OW21838   2.608   0.042   2.631 -0.5103  0.2273  0.1187
37175SOL    HW121839   2.654   0.113   2.675  2.6087 -0.8700 -1.1511
37175SOL    HW221840   2.603   0.068   2.540 -0.7623 -0.5106 -0.0908
37176SOL     OW21841   9.679  11.710   9.944 -0.0099 -0.1822 -0.3233
37176SOL    HW121842   9.592  11.749   9.947  0.6432  1.3023  0.3442
37176SOL    HW221843   9.680  11.647  10.016 -0.0804  0.8282  0.5782
37177SOL     OW21844   5.514  10.082   2.189  0.3343 -0.5583 -0.7941
37177SOL    HW121845   5.487  10.089   2.098  1.1088 -1.9958 -1.1656
37177SOL    HW221846   5.433  10.085   2.239 -0.1837 -0.7428 -1.6057
37178SOL     OW21847   7.424   0.535  12.157 -0.0889  0.2189 -0.1139
37178SOL    HW121848   7.374   0.603  12.111 -0.3978 -0.6845 -1.1623
37178SOL    HW221849   7.359   0.490  12.211 -0.5323 -1.1592 -1.7163
37179SOL     OW21850   0.535   1.519  10.423 -0.1899 -0.1999  0.4282
37179SOL    HW121851   0.528   1.611  10.450 -0.2871 -0.0961  0.0534
37179SOL    HW221852   0.472   1.510  10.352 -0.2319 -0.5779  0.5082
37180SOL     OW21853   1.246  11.036   2.224 -0.5095 -0.5119  0.4583
37180SOL    HW121854   1.321  10.979   2.242 -0.8648 -1.5919 -1.3147
37180SOL    HW221855   1.170  10.978   2.233 -0.8635 -0.3972 -1.5241
37181SOL     OW21856   3.346   1.647   2.027 -0.3583  0.0000  0.0305
37181SOL    HW121857   3.255   1.645   1.999 -0.1664  0.7605 -0.7240
37181SOL    HW221858   3.343   1.646   2.122 -1.1798  0.5526  0.0167
37182SOL     OW21859   0.986   7.181   6.707  0.0481  0.4971 -0.1149
37182SOL    HW121860   0.960   7.147   6.622 -1.7313  1.6938 -0.0930
37182SOL    HW221861   1.073   7.219   6.693  0.0878  0.0323 -1.1915
37183SOL     OW21862  11.257   9.048  12.308  0.1449  0.0849  0.0162
37183SOL    HW121863  11.298   9.064  12.393  0.5003 -4.1420  0.8679
37183SOL    HW221864  11.329   9.019  12.252 -0.2664  1.7593 -1.4588
37184SOL     OW21865  12.851   4.600  10.468 -0.0466  0.2229  0.5502
37184SOL    HW121866  12.793   4.637  10.402 -0.1946  0.6972  0.9366
37184SOL    HW221867  12.869   4.511  10.438 -1.0879  0.0203  0.4979
37185SOL     OW21868   1.110  10.033   7.577  0.5133 -0.3431  0.2523
37185SOL    HW121869   1.132  10.097   7.509  0.5125 -0.0895  0.4840
37185SOL    HW221870   1.112  10.084   7.658 -0.3648 -0.4469  0.3451
37186SOL     OW21871   0.002  10.579   2.287 -0.7919 -0.0197  0.1493
37186SOL    HW121872  -0.087  10.561   2.255 -0.3321 -0.2305 -1.0449
37186SOL    HW221873   0.036  10.645   2.228  0.9202 -2.0955 -1.3336
37187SOL     OW21874   1.973   0.848   0.840 -0.5666 -0.7528  0.2609
37187SOL    HW121875   2.002   0.876   0.753  1.1866 -0.6319  0.8498
37187SOL    HW221876   1.945   0.757   0.828 -1.2203 -0.4534 -0.5955
37188SOL     OW21877  10.924   1.990   9.123 -0.2739 -0.3753 -0.2733
37188SOL    HW121878  10.860   1.943   9.177  0.9998 -1.5458  0.2706
37188SOL    HW221879  10.894   1.978   9.033 -0.2331 -1.8597 -0.1062
37189SOL     OW21880   9.605  10.270  10.383 -0.4461 -0.4146 -0.0283
37189SOL    HW121881   9.654  10.193  10.353 -1.1377 -1.0492  0.4110
37189SOL    HW221882   9.555  10.298  10.307  1.3745  0.8998 -0.7963
37190SOL     OW21883   9.553   0.206   8.637  0.2223  0.0610 -0.0394
37190SOL    HW121884   9.607   0.276   8.674  0.9503 -0.1349 -0.7154
37190SOL    HW221885   9.602   0.126   8.653 -1.0684 -0.4483  1.6263
37191SOL     OW21886   4.535   6.629   2.603 -0.0705  0.5064 -0.3645
37191SOL    HW121887   4.484   6.572   2.544  0.8572  0.6673 -1.3458
37191SOL    HW221888   4.478   6.705   2.617 -1.4042 -0.6962  1.1087
37192SOL     OW21889  10.434   3.356   9.120  0.4346 -0.4858  0.5356
37192SOL    HW121890  10.411   3.286   9.181  0.2253 -0.2167  0.7711
37192SOL    HW221891  10.380   3.431   9.148  1.3506  0.0590  0.8919
37193SOL     OW21892   7.970   2.359  10.295  0.1542  0.1190  0.0978
37193SOL    HW121893   7.922   2.435  10.327 -0.0442  0.2510 -0.4965
37193SOL    HW221894   7.910   2.286  10.307  0.2120  0.1116  0.3454
37194SOL     OW21895  12.900   7.018   1.059  0.1514 -0.4104  0.3503
37194SOL    HW121896  12.831   6.986   1.002  0.7525  0.4689 -0.9329
37194SOL    HW221897  12.962   6.946   1.065 -0.6068 -1.0160  1.0819
37195SOL     OW21898   3.060   9.819   1.461  0.0359 -0.2940  0.0647
37195SOL    HW121899   3.129   9.817   1.527  1.8178 -0.5815 -1.7059
37195SOL    HW221900   3.008   9.741   1.479  1.8196 -1.5988 -0.1637
37196SOL     OW21901   4.543   8.598   2.411 -0.1822 -0.1667  0.1471
37196SOL    HW121902   4.534   8.503   2.416  1.6489 -0.3046  2.7641
37196SOL    HW221903   4.573   8.625   2.498  1.5339  2.5431 -1.1138
37197SOL     OW21904   0.387   1.530   3.742 -0.2463  0.4851  0.4396
37197SOL    HW121905   0.455   1.541   3.809 -0.9776  0.3229  1.2230
37197SOL    HW221906   0.313   1.491   3.789  0.1693 -2.2860 -0.9918
37198SOL     OW21907   2.308   3.418   7.622  0.2692  0.1848  0.1315
37198SOL    HW121908   2.368   3.447   7.690  0.8719 -1.5497  0.3878
37198SOL    HW221909   2.362   3.366   7.563 -0.1487  1.9498 -1.9440
37199SOL     OW21910   4.239   5.708  10.432 -0.0990  0.5129  0.0521
37199SOL    HW121911   4.312   5.765  10.455 -0.5846  0.7739  1.0111
37199SOL    HW221912   4.259   5.677  10.344  1.5176  0.0183  0.5610
37200SOL     OW21913   3.977   6.267   2.241 -0.2665  0.3635 -0.3781
37200SOL    HW121914   4.018   6.215   2.310 -0.1427 -1.0782 -1.4931
37200SOL    HW221915   4.034   6.343   2.232  0.6762 -0.2778 -0.0552
37201SOL     OW21916   2.326   9.012  10.164  0.3811 -0.6525  0.0647
37201SOL    HW121917   2.263   8.992  10.095  0.4960  0.1472 -0.2875
37201SOL    HW221918   2.408   9.028  10.116  0.8294 -1.5766  0.5053
37202SOL     OW21919  12.214   5.245   2.080 -0.0288  0.2418  0.3834
37202SOL    HW121920  12.250   5.320   2.127  0.5455  0.8132 -0.9135
37202SOL    HW221921  12.249   5.169   2.125  2.0409  0.7775 -0.2402
37203SOL     OW21922   2.194   9.789   2.352 -0.5686  0.0022 -0.1168
37203SOL    HW121923   2.182   9.797   2.447  1.2908 -0.8497  0.2335
37203SOL    HW221924   2.158   9.703   2.330 -1.1745  0.2800 -0.2327
37204SOL     OW21925   4.088   6.119   4.387  0.3652  0.3198 -0.0431
37204SOL    HW121926   4.127   6.205   4.373  0.9083  0.3872  1.6150
37204SOL    HW221927   4.009   6.118   4.333  1.2484  1.2035 -1.3803
37205SOL     OW21928   7.473   4.721   3.063  0.2398 -0.5745  0.1551
37205SOL    HW121929   7.528   4.643   3.061 -0.2634 -0.9333  0.0557
37205SOL    HW221930   7.504   4.771   3.139  1.7435  0.0179 -0.7970
37206SOL     OW21931   9.348   1.925   8.308  0.2067 -1.0123 -0.4028
37206SOL    HW121932   9.268   1.886   8.273  0.2932 -1.6578  0.1112
37206SOL    HW221933   9.327   2.018   8.316 -0.3874 -1.1259 -0.5552
37207SOL     OW21934   2.405   0.922  10.597  0.0990 -0.4232  0.2782
37207SOL    HW121935   2.354   0.984  10.545 -0.0273 -0.0009  0.9007
37207SOL    HW221936   2.367   0.927  10.685  0.1805 -1.2774  0.3668
37208SOL     OW21937   0.812   7.962   8.823 -0.1397 -0.1716 -0.6400
37208SOL    HW121938   0.823   8.008   8.906 -2.4826  0.1047 -0.4342
37208SOL    HW221939   0.771   7.879   8.847  0.5065 -0.7269 -1.4042
37209SOL     OW21940   0.676   2.914   7.000  0.5307  0.2415 -0.2641
37209SOL    HW121941   0.591   2.957   7.003  0.2817 -0.2420 -0.3428
37209SOL    HW221942   0.739   2.986   6.996  0.0913  0.5930 -1.1337
37210SOL     OW21943   7.262  11.564  11.873 -0.3776 -0.5207  0.6236
37210SOL    HW121944   7.308  11.645  11.856 -2.1254  0.4221  0.1387
37210SOL    HW221945   7.202  11.585  11.944 -1.2039 -1.2308  0.1616
37211SOL     OW21946   3.260   2.077   4.082 -0.3788  0.4373 -0.4976
37211SOL    HW121947   3.233   2.136   4.011  0.1079  1.6800  0.3229
37211SOL    HW221948   3.355   2.087   4.088 -0.4567  0.6524  0.5786
37212SOL     OW21949  11.388  11.990   7.227 -0.1387 -0.7586  0.0726
37212SOL    HW121950  11.395  11.904   7.186  0.0808 -2.0893  2.6856
37212SOL    HW221951  11.296  12.014   7.215 -0.8819 -2.6204  1.4975
37213SOL     OW21952   6.616   1.947   9.115  0.1141  0.4700  0.7166
37213SOL    HW121953   6.654   1.981   9.034  0.1625 -0.1102  0.4924
37213SOL    HW221954   6.671   1.872   9.138  0.2424  0.7721  1.4161
37214SOL     OW21955   9.846   5.850   2.693  0.8149  0.3115  0.0511
37214SOL    HW121956   9.921   5.809   2.651 -0.9491 -1.0420 -2.0376
37214SOL    HW221957   9.790   5.777   2.719 -0.8796  1.2774 -0.6882
37215SOL     OW21958   5.139  11.944  10.589  0.3904  0.5998 -0.0689
37215SOL    HW121959   5.079  12.014  10.617  1.0397  0.3013  2.2654
37215SOL    HW221960   5.226  11.977  10.610  0.8208 -0.2465 -0.4768
37216SOL     OW21961   6.919   4.796  12.862  0.4191 -0.0799  0.2389
37216SOL    HW121962   6.845   4.757  12.814  0.9524 -0.1408 -0.5508
37216SOL    HW221963   6.921   4.887  12.832  0.1370  0.1473  0.9075
37217SOL     OW21964  10.221   3.230   5.297  0.2796  0.1854  0.4874
37217SOL    HW121965  10.183   3.163   5.353  0.0385  0.5301  0.7439
37217SOL    HW221966  10.312   3.204   5.286 -0.2471 -1.1964 -0.9503
37218SOL     OW21967   6.072   6.849   5.170 -0.8335 -0.2554  0.4730
37218SOL    HW121968   5.998   6.818   5.222 -1.6837  1.6607  0.5009
37218SOL    HW221969   6.033   6.908   5.105  0.6652  0.9913  0.6432
37219SOL     OW21970   9.545  10.968   3.674 -0.1170  0.3077 -0.1992
37219SOL    HW121971   9.497  11.038   3.630 -0.1767  0.2909 -0.1605
37219SOL    HW221972   9.594  11.012   3.742  0.4089  0.4063 -0.6380
37220SOL     OW21973  10.644   6.533  12.677 -0.2796 -0.0210  0.6363
37220SOL    HW121974  10.709   6.603  12.677  0.0369 -0.3109  0.1577
37220SOL    HW221975  10.693   6.455  12.649 -1.1571  0.0601 -1.2508
37221SOL     OW21976  12.606   4.042   3.160  0.2677  0.0703 -0.3329
37221SOL    HW121977  12.556   4.122   3.175 -1.2165 -0.7397 -0.7221
37221SOL    HW221978  12.626   4.010   3.248 -0.8651 -0.1464 -0.1349
37222SOL     OW21979  11.291   9.790  10.386  0.0197 -0.0666 -0.4953
37222SOL    HW121980  11.288   9.738  10.466  0.9438  0.2359 -0.2536
37222SOL    HW221981  11.348   9.740  10.327 -0.7231 -0.3303 -1.0012
37223SOL     OW21982  12.436   4.133   4.793 -0.2484 -0.0697 -0.2208
37223SOL    HW121983  12.408   4.076   4.721 -1.4143 -1.3865  1.2220
37223SOL    HW221984  12.530   4.119   4.800 -0.4849 -1.7566  0.0155
37224SOL     OW21985   9.024   2.789   3.253 -0.7571  0.1125 -0.0063
37224SOL    HW121986   9.090   2.721   3.244 -0.3313  0.5882 -0.5519
37224SOL    HW221987   9.004   2.791   3.347  2.0181  1.8191  0.6470
37225SOL     OW21988   5.028  11.936   5.672  0.0147 -0.3420  0.8656
37225SOL    HW121989   5.007  12.019   5.628 -0.8660 -1.9506 -2.0222
37225SOL    HW221990   5.105  11.903   5.626  0.8532 -0.8104  2.5207
37226SOL     OW21991   0.016   6.720   4.203  0.4923  0.3105 -0.2559
37226SOL    HW121992   0.023   6.804   4.248  0.8464  0.4068 -0.4902
37226SOL    HW221993   0.003   6.743   4.111 -0.0927  0.1124 -0.2284
37227SOL     OW21994   2.428   3.020   2.280  0.2766 -1.0436  0.7906
37227SOL    HW121995   2.340   3.056   2.277  0.3655 -0.8331 -1.9883
37227SOL    HW221996   2.425   2.956   2.352 -1.5268  0.3382  2.0383
37228SOL     OW21997   3.105   1.719   1.457  0.2814  0.1073 -0.2567
37228SOL    HW121998   3.046   1.667   1.402 -0.3448  0.7231 -0.1657
37228SOL    HW221999   3.169   1.755   1.396 -0.6905  1.1786 -0.6710
37229SOL     OW22000   9.408   8.985   1.954 -0.2100 -0.4828  0.6195
37229SOL    HW122001   9.340   9.053   1.951  0.7315  0.4849  0.7999
37229SOL    HW222002   9.490   9.032   1.943  0.3773 -1.8022 -0.9452
37230SOL     OW22003   1.051   9.259  10.050 -0.6397  0.3688  0.1008
37230SOL    HW122004   0.957   9.274  10.053 -0.4613  1.3662  1.3265
37230SOL    HW222005   1.065   9.180  10.102 -0.8812 -0.3806 -0.9301
37231SOL     OW22006   7.961  12.146   7.691  0.1042 -0.0094 -0.3431
37231SOL    HW122007   7.969  12.103   7.606 -0.5142 -2.1816  0.6113
37231SOL    HW222008   7.984  12.078   7.754 -2.2400  0.6172  1.3409
37232SOL     OW22009   8.347  11.874  11.044  0.7499 -0.1300 -0.6931
37232SOL    HW122010   8.296  11.822  10.982  0.2488  0.4304 -0.7626
37232SOL    HW222011   8.291  11.882  11.121  0.2311  1.4420 -1.1919
37233SOL     OW22012   5.734   6.890   3.352  0.4250 -0.0213 -0.0356
37233SOL    HW122013   5.795   6.958   3.324  0.6776 -0.2326 -0.0025
37233SOL    HW222014   5.698   6.855   3.271 -0.3003  0.6867 -0.0304
37234SOL     OW22015  12.852   7.854   8.302  0.0272  0.2632 -0.0033
37234SOL    HW122016  12.782   7.801   8.340  1.0098 -1.4788 -0.5111
37234SOL    HW222017  12.907   7.878   8.376 -1.0810  1.6785  0.4064
37235SOL     OW22018   6.789   9.835   8.933 -0.1694  0.9700 -0.1256
37235SOL    HW122019   6.700   9.867   8.923 -0.0041  1.3467 -0.4153
37235SOL    HW222020   6.823   9.881   9.010 -1.0704 -1.0985  1.6251
37236SOL     OW22021   5.715  11.362   9.724  0.0110  0.1249  0.0305
37236SOL    HW122022   5.623  11.390   9.716 -0.3930 -0.7829  1.2056
37236SOL    HW222023   5.722  11.288   9.664  0.1490  0.5622 -0.5033
37237SOL     OW22024  12.393  10.589   8.293 -0.5202  0.6532  0.1111
37237SOL    HW122025  12.338  10.511   8.286  2.5575 -1.6841 -0.3470
37237SOL    HW222026  12.402  10.604   8.388  0.5406 -0.9168  0.2880
37238SOL     OW22027   8.935   1.321  10.323 -0.3574 -0.1203  0.0260
37238SOL    HW122028   8.989   1.335  10.401  1.7314  1.4561 -1.5800
37238SOL    HW222029   8.876   1.396  10.321  0.0158  0.1674 -0.2327
37239SOL     OW22030   3.274   9.533  12.802 -0.7162 -0.0597 -0.0906
37239SOL    HW122031   3.343   9.580  12.849 -0.0065 -0.6264 -0.5405
37239SOL    HW222032   3.211   9.509  12.869 -0.9006  1.2005  0.1998
37240SOL     OW22033   0.718   9.362  11.936  0.0502 -0.2857 -0.3264
37240SOL    HW122034   0.655   9.432  11.949  1.3733  1.1829 -1.4129
37240SOL    HW222035   0.788   9.380  11.999  0.4764 -0.5353 -0.7179
37241SOL     OW22036   3.372   5.744   2.755 -0.1322  0.1522  0.1616
37241SOL    HW122037   3.303   5.801   2.722 -0.8089 -0.3506  0.6705
37241SOL    HW222038   3.393   5.687   2.681 -0.0787  0.4839 -0.0784
37242SOL     OW22039   3.449   0.946   2.093 -0.7368 -0.2495 -0.3287
37242SOL    HW122040   3.542   0.969   2.092 -0.7848 -0.0231 -2.1767
37242SOL    HW222041   3.422   0.960   2.184  0.3525  2.4513 -0.3479
37243SOL     OW22042  10.529   2.598  11.263  0.4418 -0.3124  0.6711
37243SOL    HW122043  10.479   2.574  11.185  1.0995 -0.1905  0.2034
37243SOL    HW222044  10.576   2.677  11.237  2.2834 -1.4308  0.4898
37244SOL     OW22045   1.571   2.234  10.129  0.1654 -0.6891  0.3333
37244SOL    HW122046   1.637   2.178  10.169 -0.5008 -0.7499  1.3788
37244SOL    HW222047   1.490   2.210  10.173 -0.3265  0.2792 -0.0275
37245SOL     OW22048  10.521   6.699  12.406 -0.3153  0.0039 -0.5562
37245SOL    HW122049  10.511   6.655  12.490  0.2090  1.7181  0.4575
37245SOL    HW222050  10.434   6.696  12.366 -0.8213  0.0328  0.5080
37246SOL     OW22051   7.323   5.748   5.285 -0.4918 -0.5864  0.0136
37246SOL    HW122052   7.343   5.655   5.273  0.6878 -0.5050  1.1759
37246SOL    HW222053   7.366   5.791   5.211 -0.4725 -0.8851 -0.1520
37247SOL     OW22054   1.987  10.774   1.921  0.5416  0.0235  0.0956
37247SOL    HW122055   1.924  10.783   1.992 -0.9997 -0.1891 -1.1995
37247SOL    HW222056   2.066  10.739   1.963 -0.5449 -0.7406  1.5714
37248SOL     OW22057  12.539  11.121   2.388  0.1391 -0.5224  0.3054
37248SOL    HW122058  12.616  11.149   2.437 -0.0829  0.3501  0.1757
37248SOL    HW222059  12.559  11.032   2.360  0.4996 -0.8497  1.5170
37249SOL     OW22060   8.235   7.582   1.102  0.3081 -0.2315 -0.7717
37249SOL    HW122061   8.255   7.566   1.194  0.5910  1.6083 -0.4668
37249SOL    HW222062   8.140   7.597   1.100  0.1841 -1.0244 -0.9082
37250SOL     OW22063  10.907   4.869   8.484  0.1144  0.1056  0.5637
37250SOL    HW122064  10.861   4.785   8.491 -0.6662  0.4156 -0.4957
37250SOL    HW222065  10.864   4.926   8.547  1.2096 -0.5036  1.9119
37251SOL     OW22066   7.079   7.664  11.150  0.2833 -0.5343 -0.1050
37251SOL    HW122067   7.060   7.584  11.200  1.0691 -0.7400 -0.1215
37251SOL    HW222068   7.156   7.642  11.098  1.7056  0.8221  1.3277
37252SOL     OW22069   6.782  12.046  11.421 -0.1306 -0.1924 -0.0937
37252SOL    HW122070   6.849  11.979  11.403  0.4187  0.5111 -0.7374
37252SOL    HW222071   6.754  12.028  11.511 -1.2356 -2.3556 -0.8096
37253SOL     OW22072   9.432  11.154   2.899  0.4305 -0.4102 -0.1961
37253SOL    HW122073   9.365  11.153   2.830 -0.7204 -1.0979  0.8871
37253SOL    HW222074   9.509  11.116   2.857 -0.2642 -0.8841 -1.1014
37254SOL     OW22075   3.530   3.858   6.116  0.0898  0.2090 -0.0036
37254SOL    HW122076   3.564   3.897   6.035 -0.1698  0.8932  0.2089
37254SOL    HW222077   3.597   3.794   6.142  0.7263  0.8064 -0.1421
37255SOL     OW22078  12.850   3.092  10.958 -0.5418 -0.0123  0.3853
37255SOL    HW122079  12.810   3.065  11.041 -2.4591  1.5022  0.0306
37255SOL    HW222080  12.888   3.178  10.977  1.7853 -0.9721  0.4281
37256SOL     OW22081   9.703   2.017   6.771 -0.1892 -0.3098 -0.1175
37256SOL    HW122082   9.709   1.962   6.849 -0.2853  0.4611  0.4474
37256SOL    HW222083   9.759   2.092   6.790  0.8362 -0.7233 -1.3353
37257SOL     OW22084   0.328   9.066   3.281 -0.0356  0.1050 -0.5704
37257SOL    HW122085   0.260   8.999   3.277 -0.0972  0.1440 -0.2231
37257SOL    HW222086   0.324   9.098   3.371 -0.0994  0.6778 -0.7772
37258SOL     OW22087   1.538   9.157   5.847 -0.2287 -0.2442 -0.2248
37258SOL    HW122088   1.574   9.099   5.914  0.7654  0.2163 -0.3396
37258SOL    HW222089   1.615   9.195   5.804 -0.8576  0.4988 -0.7246
37259SOL     OW22090  12.903   3.752   6.671 -0.0455  0.3057 -0.1596
37259SOL    HW122091  12.836   3.803   6.717  0.7009  1.6219 -0.5088
37259SOL    HW222092  12.984   3.801   6.682  0.6941 -0.7663 -0.5776
37260SOL     OW22093  10.427   2.861   8.197  0.4936 -0.1679 -0.2297
37260SOL    HW122094  10.506   2.833   8.151  0.4549  1.1942 -1.1591
37260SOL    HW222095  10.455   2.933   8.252  0.1848 -0.6677  0.6075
37261SOL     OW22096   5.887   7.940   9.393 -0.5959 -0.0174  0.4975
37261SOL    HW122097   5.794   7.928   9.412 -0.3038 -1.6458  1.0719
37261SOL    HW222098   5.932   7.884   9.456  0.6806 -0.8087 -1.0351
37262SOL     OW22099  11.291  12.276   5.364  0.0369  0.1415  0.5692
37262SOL    HW122100  11.245  12.353   5.397 -0.0258  0.2379  0.2557
37262SOL    HW222101  11.372  12.273   5.415  0.5633  1.0579 -0.1845
37263SOL     OW22102  10.261   8.115  11.230  0.1674  0.0928 -0.0426
37263SOL    HW122103  10.291   8.193  11.276  0.4849  0.0196 -0.1239
37263SOL    HW222104  10.242   8.052  11.299 -0.4600  0.3733  0.0411
37264SOL     OW22105  12.432   9.628   5.961 -0.2236 -0.2108 -0.2172
37264SOL    HW122106  12.521   9.636   5.925 -0.5486 -1.2602 -1.3241
37264SOL    HW222107  12.401   9.544   5.928 -2.1797  0.7961 -1.0848
37265SOL     OW22108   3.700   5.740   8.565  0.3349 -0.0163  0.5071
37265SOL    HW122109   3.752   5.721   8.487 -0.6341 -1.2137  0.1095
37265SOL    HW222110   3.705   5.835   8.575  1.2319  0.0547 -0.4660
37266SOL     OW22111   8.132   4.246   0.250 -0.1857  0.3686  0.0977
37266SOL    HW122112   8.056   4.289   0.211  1.3802  2.0297 -1.2937
37266SOL    HW222113   8.144   4.167   0.197 -0.4027  0.5548 -0.2334
37267SOL     OW22114   5.110   0.503   1.199 -0.5012  0.4476  0.1034
37267SOL    HW122115   5.128   0.578   1.143 -0.4747  1.2933  1.2297
37267SOL    HW222116   5.195   0.462   1.212 -0.7482 -0.9694 -2.0827
37268SOL     OW22117   2.253   0.536   5.329  0.1595  0.1470 -0.0198
37268SOL    HW122118   2.179   0.597   5.327 -1.1967 -1.4492  0.2690
37268SOL    HW222119   2.310   0.571   5.398 -0.0587  1.6453 -0.5435
37269SOL     OW22120  11.846   0.924   8.875 -0.0162 -0.0469  0.2109
37269SOL    HW122121  11.919   0.951   8.930  0.6252 -0.8853 -0.2104
37269SOL    HW222122  11.885   0.869   8.807 -1.0068 -0.3514 -0.1443
37270SOL     OW22123  12.933  12.321   1.337 -0.5943  0.2133 -0.9662
37270SOL    HW122124  12.964  12.273   1.414  1.3881  0.4396 -1.5813
37270SOL    HW222125  12.879  12.392   1.374  0.8343  0.6973  0.2768
37271SOL     OW22126   8.943   5.507   4.327 -0.2610 -0.3973  0.1561
37271SOL    HW122127   8.912   5.439   4.386  1.4588 -1.1163  0.2966
37271SOL    HW222128   9.035   5.486   4.312 -0.4033  0.2680 -2.0839
37272SOL     OW22129   4.758   6.261   4.967 -0.3325  0.0594 -0.1153
37272SOL    HW122130   4.743   6.326   5.036  0.7515 -0.7428  0.9258
37272SOL    HW222131   4.839   6.290   4.925 -0.1325 -0.3222  0.0049
37273SOL     OW22132  10.744   9.108   5.423 -0.9950 -0.3206  0.4354
37273SOL    HW122133  10.795   9.095   5.504  1.1352  0.5850 -0.6812
37273SOL    HW222134  10.681   9.176   5.445  1.0686  1.5823  0.7632
37274SOL     OW22135   2.295  12.586   5.785 -0.0314 -0.3086 -0.0002
37274SOL    HW122136   2.239  12.615   5.858 -1.1161 -1.0359 -0.5164
37274SOL    HW222137   2.239  12.594   5.708  1.2883  0.9891 -0.8646
37275SOL     OW22138   7.496   1.291   2.334 -0.2213  0.1567  0.1342
37275SOL    HW122139   7.415   1.261   2.291 -0.5659 -0.5731  1.2666
37275SOL    HW222140   7.469   1.370   2.380 -0.4497 -0.4209  1.0098
37276SOL     OW22141  12.280   6.850   3.068  0.1074 -0.0138  0.5812
37276SOL    HW122142  12.204   6.793   3.083  0.0008 -0.3134 -0.9241
37276SOL    HW222143  12.243   6.939   3.070 -0.3898 -0.1717 -0.5339
37277SOL     OW22144   9.272   8.803   9.437 -1.0677  0.4654  0.0880
37277SOL    HW122145   9.314   8.889   9.435 -0.1292  0.0298 -1.4222
37277SOL    HW222146   9.179   8.821   9.430 -0.9599  1.3931  0.8851
37278SOL     OW22147   0.224   1.572   1.709 -0.0153 -0.4760  0.2626
37278SOL    HW122148   0.192   1.534   1.790 -0.8815  0.7905  0.5568
37278SOL    HW222149   0.268   1.653   1.736  1.8948 -1.2691 -0.3196
37279SOL     OW22150   0.161   5.591   3.066  0.2262 -0.1959 -0.0413
37279SOL    HW122151   0.148   5.540   3.146  1.4831  1.7354  1.4722
37279SOL    HW222152   0.255   5.585   3.049  0.1210  0.2171 -0.8205
37280SOL     OW22153   1.663   6.426   7.009 -0.1603  0.5670 -0.1124
37280SOL    HW122154   1.733   6.369   7.042 -0.0772 -0.3260 -1.7270
37280SOL    HW222155   1.704   6.475   6.938 -1.1347  0.0716 -1.0372
37281SOL     OW22156   1.213   0.814   5.484 -0.7931  0.0620  0.0163
37281SOL    HW122157   1.275   0.863   5.431 -2.0772  3.5164  1.3960
37281SOL    HW222158   1.263   0.740   5.518  1.9847  1.5933 -0.4847
37282SOL     OW22159   8.036   7.431   3.181 -0.2137 -0.2214 -1.0704
37282SOL    HW122160   8.011   7.438   3.088  0.6295 -3.3455 -1.6297
37282SOL    HW222161   8.128   7.455   3.183 -0.1345 -0.5246 -1.1003
37283SOL     OW22162   6.599   0.236   6.084  0.2532  0.8274  0.3761
37283SOL    HW122163   6.528   0.298   6.101  0.5574  1.8839 -1.7550
37283SOL    HW222164   6.660   0.286   6.029  1.2889 -0.8898 -0.0850
37284SOL     OW22165  12.662   5.069   7.776 -0.0379  0.5851 -0.2115
37284SOL    HW122166  12.746   5.098   7.812 -0.1086 -1.1113  1.4566
37284SOL    HW222167  12.673   5.075   7.681  1.0173  2.8868 -0.0144
37285SOL     OW22168   3.604   2.497   9.752  0.2813  0.0677  0.0567
37285SOL    HW122169   3.509   2.512   9.752  0.3470  0.5299  0.7753
37285SOL    HW222170   3.639   2.570   9.701  0.1606 -0.8496 -1.3973
37286SOL     OW22171   9.274   9.383   7.787  0.6255  0.3952 -0.3783
37286SOL    HW122172   9.191   9.425   7.766  0.8753  0.5022 -1.1964
37286SOL    HW222173   9.252   9.289   7.792  0.3465  0.4793 -0.0158
37287SOL     OW22174   9.772   4.467   0.713 -0.4114  0.9887 -0.0813
37287SOL    HW122175   9.822   4.385   0.715  0.8436  1.7226  2.1110
37287SOL    HW222176   9.827   4.528   0.664  0.2737  1.3996  1.1374
37288SOL     OW22177  12.052  11.293   8.265 -0.1357 -0.3683 -0.0367
37288SOL    HW122178  12.054  11.245   8.347 -2.8391 -2.0392 -0.8188
37288SOL    HW222179  12.113  11.246   8.208  0.5892 -0.1222  0.5221
37289SOL     OW22180   1.692  10.233   3.184 -0.2602 -0.1645  0.4394
37289SOL    HW122181   1.769  10.178   3.199 -0.5176 -0.8907 -0.7963
37289SOL    HW222182   1.646  10.190   3.112 -1.3518  0.7591  0.5696
37290SOL     OW22183   4.709   2.369   7.624  0.3981  0.3377  0.0997
37290SOL    HW122184   4.782   2.313   7.649 -0.8395 -1.0004  0.8734
37290SOL    HW222185   4.736   2.457   7.649  2.1753  0.0475 -0.6501
37291SOL     OW22186  12.113   2.699   0.105 -0.2073  0.2268 -0.0850
37291SOL    HW122187  12.123   2.787   0.140 -2.0793  0.1946  0.6378
37291SOL    HW222188  12.021   2.678   0.118  0.3124 -2.0792  0.3544
37292SOL     OW22189  12.224   4.231  12.593  0.4405 -0.4325 -0.1059
37292SOL    HW122190  12.130   4.230  12.612  0.4062 -0.4775 -0.2803
37292SOL    HW222191  12.230   4.222  12.498  0.5731  1.3573 -0.2922
37293SOL     OW22192   4.777  10.609   4.062  0.2851 -0.3932  0.6948
37293SOL    HW122193   4.832  10.541   4.100  1.7739  0.4557  0.1278
37293SOL    HW222194   4.798  10.688   4.112 -1.4961 -0.3235  1.4148
37294SOL     OW22195   1.959   2.598   7.063 -0.6492  0.0307  0.0203
37294SOL    HW122196   2.022   2.664   7.090  0.3336 -0.8319 -0.1124
37294SOL    HW222197   1.949   2.542   7.140 -0.7790 -0.1981 -0.1624
37295SOL     OW22198   7.072   8.241  12.914 -0.3769 -0.0806 -0.2748
37295SOL    HW122199   7.047   8.179  12.982  1.5980 -1.6401 -0.8707
37295SOL    HW222200   7.126   8.306  12.958 -1.8339  0.8464  0.2106
37296SOL     OW22201   1.294  10.948   4.574 -0.8656  0.0804  0.2558
37296SOL    HW122202   1.296  10.972   4.667 -1.6241  0.9685  0.0528
37296SOL    HW222203   1.202  10.949   4.550 -0.6513  0.2417 -0.6095
37297SOL     OW22204   3.923   1.935   8.719 -0.0226 -0.5257  0.0280
37297SOL    HW122205   3.974   1.919   8.799  0.6759  0.6833 -0.1413
37297SOL    HW222206   3.973   1.893   8.650 -0.7458 -1.7719  0.2314
37298SOL     OW22207   6.402   2.035   3.985 -1.1118  0.5339  0.1471
37298SOL    HW122208   6.490   2.030   4.021 -1.1062  0.7895  0.1736
37298SOL    HW222209   6.414   2.065   3.895 -1.0184 -1.4859 -0.5653
37299SOL     OW22210   3.749   3.565   6.410 -0.2289 -0.5628 -0.6512
37299SOL    HW122211   3.767   3.570   6.316 -0.4314 -0.3970 -0.6813
37299SOL    HW222212   3.683   3.633   6.426 -1.3710 -1.6483 -0.6678
37300SOL     OW22213   0.575   1.963   9.272 -0.1491  0.3973 -0.1442
37300SOL    HW122214   0.655   2.013   9.261 -0.0889  0.5344  0.8540
37300SOL    HW222215   0.505   2.025   9.253 -0.1408  1.3529  2.5228
37301SOL     OW22216   9.602   2.342   8.082 -0.3788 -0.2943  0.3036
37301SOL    HW122217   9.600   2.342   8.178  1.1318  0.2158  0.3667
37301SOL    HW222218   9.556   2.423   8.057 -1.8450 -1.0227  0.5198
37302SOL     OW22219   0.442   8.189  11.847 -1.0004  0.0589  0.3623
37302SOL    HW122220   0.504   8.261  11.834  0.0190 -0.3375  2.6451
37302SOL    HW222221   0.430   8.184  11.941 -0.6919 -3.0648  0.3316
37303SOL     OW22222   1.239   1.180   9.400 -0.9685  0.0255 -0.3228
37303SOL    HW122223   1.237   1.248   9.333  2.4259  0.7391  0.1246
37303SOL    HW222224   1.300   1.114   9.366 -2.5164 -1.7732  0.2133
37304SOL     OW22225  10.822  12.458   7.175 -0.0854 -0.4354 -0.4823
37304SOL    HW122226  10.757  12.446   7.106  0.9329  0.9773 -1.7511
37304SOL    HW222227  10.880  12.527   7.142  0.7272 -0.0619  1.5798
37305SOL     OW22228   6.643   1.689   2.897  1.1964 -0.3478  0.6074
37305SOL    HW122229   6.631   1.762   2.959  1.6348 -0.3717  0.7264
37305SOL    HW222230   6.677   1.618   2.951 -1.1780 -1.3404  0.9064
37306SOL     OW22231   4.156   4.620   1.270 -0.3659 -0.1740  0.5447
37306SOL    HW122232   4.096   4.670   1.324 -0.6421 -0.4482  0.4947
37306SOL    HW222233   4.242   4.658   1.288 -0.3803 -0.5741  1.5453
37307SOL     OW22234   3.965   0.722   3.030 -0.2309  0.1115  0.4534
37307SOL    HW122235   4.056   0.692   3.031 -0.3512 -0.3269 -0.6240
37307SOL    HW222236   3.962   0.787   2.960 -0.4368  1.1907  1.4365
37308SOL     OW22237   1.423   7.832   9.324 -0.5244  0.0310 -0.3310
37308SOL    HW122238   1.328   7.832   9.341 -0.3859 -0.7109  0.5286
37308SOL    HW222239   1.445   7.924   9.308 -1.0252  0.5342  1.6326
37309SOL     OW22240  10.079   2.952   8.426  0.3792  0.0284  0.3529
37309SOL    HW122241  10.068   2.984   8.516  2.0063  0.1739  0.5307
37309SOL    HW222242  10.110   3.028   8.377  2.2842 -0.7071  0.3254
37310SOL     OW22243   1.570   2.069   2.170 -0.1012  0.2891  0.3118
37310SOL    HW122244   1.545   1.977   2.163 -1.6037  0.5885  1.3245
37310SOL    HW222245   1.502   2.117   2.122  1.5252  0.8145 -1.6130
37311SOL     OW22246   6.038  10.296  10.047  0.2630  0.6212 -0.2453
37311SOL    HW122247   6.009  10.296   9.956  0.8505  1.5373 -0.4365
37311SOL    HW222248   6.134  10.291  10.042  0.2916  0.5113  0.3316
37312SOL     OW22249  11.756   9.741  10.190  0.4452  0.0817 -0.0940
37312SOL    HW122250  11.792   9.820  10.149  1.4434 -0.3110  0.0147
37312SOL    HW222251  11.815   9.671  10.163  1.5076 -0.1255  2.4847
37313SOL     OW22252   0.140  12.143   8.284  0.1009  0.2601 -0.0074
37313SOL    HW122253   0.166  12.122   8.374  1.1133 -0.0188 -0.3590
37313SOL    HW222254   0.058  12.191   8.294 -0.1359 -0.3223  1.0309
37314SOL     OW22255   2.241  10.245   0.737 -0.6025 -0.0559 -0.0946
37314SOL    HW122256   2.163  10.241   0.792 -0.8683 -0.4044 -0.4877
37314SOL    HW222257   2.272  10.335   0.745 -0.5628 -0.1335  0.7180
37315SOL     OW22258  10.016   2.896  11.703  0.1416 -0.3436 -0.5726
37315SOL    HW122259  10.104   2.885  11.739 -0.0700 -1.3640 -0.3537
37315SOL    HW222260  10.007   2.991  11.692  0.1020  0.0894  2.4108
37316SOL     OW22261  10.790   0.210   3.673  0.7569 -0.3224 -0.3028
37316SOL    HW122262  10.718   0.166   3.719  0.1805 -0.6290 -1.4637
37316SOL    HW222263  10.868   0.188   3.724  0.0433 -0.0374  0.9454
37317SOL     OW22264   7.224   8.700   5.096  0.2364  0.1097  0.1459
37317SOL    HW122265   7.185   8.781   5.130 -1.8176  0.2000 -2.1435
37317SOL    HW222266   7.319   8.716   5.099 -0.0477  1.8301  1.4732
37318SOL     OW22267  12.472  10.933   8.067  0.4617  0.2148  0.1953
37318SOL    HW122268  12.545  10.988   8.036  0.0291  0.1670 -0.9665
37318SOL    HW222269  12.404  10.946   8.001  0.3116 -1.6347 -0.0546
37319SOL     OW22270   8.972   7.332   8.093 -0.1088  0.0873  0.2097
37319SOL    HW122271   8.991   7.425   8.100  1.0017  0.0085 -1.4000
37319SOL    HW222272   9.022   7.292   8.164  0.5208  0.5689  0.0430
37320SOL     OW22273   9.401   3.648   8.324  0.0070  0.3837  0.6564
37320SOL    HW122274   9.355   3.712   8.269 -0.9598 -0.2418  0.7075
37320SOL    HW222275   9.479   3.694   8.354 -0.9044  1.7181  1.0753
37321SOL     OW22276   3.671   1.359   4.533  0.0278  0.2236 -0.1881
37321SOL    HW122277   3.715   1.282   4.496 -0.0513  0.8991 -1.7956
37321SOL    HW222278   3.709   1.370   4.620  0.1475 -1.5305  0.0184
37322SOL     OW22279  11.508   6.904   2.066 -0.5201  0.3883  0.1651
37322SOL    HW122280  11.525   6.847   1.991  0.4789  0.2841  0.4602
37322SOL    HW222281  11.459   6.978   2.029 -1.7054 -0.5802 -0.2418
37323SOL     OW22282   1.777  10.636   5.905  0.5889  0.0438 -0.8592
37323SOL    HW122283   1.808  10.620   5.816  1.1265  0.6866 -0.7977
37323SOL    HW222284   1.719  10.562   5.924 -0.8742  0.7370 -2.3523
37324SOL     OW22285   0.607   8.298   4.257  0.0256 -0.6272 -0.0314
37324SOL    HW122286   0.688   8.349   4.251  0.7027 -1.6002  0.5956
37324SOL    HW222287   0.540   8.355   4.219  0.6460  0.9682  1.1447
37325SOL     OW22288   1.860   0.527  11.971 -0.0547 -0.4654 -0.4660
37325SOL    HW122289   1.852   0.495  11.881 -0.9175  0.0924 -0.5976
37325SOL    HW222290   1.813   0.610  11.971 -0.0940 -0.4811  0.5143
37326SOL     OW22291   3.723   2.710   2.035 -0.6985  0.0241  0.2518
37326SOL    HW122292   3.666   2.684   1.963 -1.5193 -1.8037  1.4995
37326SOL    HW222293   3.800   2.654   2.027 -1.1031 -0.6846  1.1698
37327SOL     OW22294   2.923  12.272   8.750  0.0727  0.7262 -0.5986
37327SOL    HW122295   2.959  12.329   8.818  1.6124 -0.5786 -0.2680
37327SOL    HW222296   2.936  12.321   8.669  1.8339  0.6756 -0.3755
37328SOL     OW22297   2.478   3.385   0.732  0.1550  0.4290 -0.8027
37328SOL    HW122298   2.435   3.382   0.646  1.4192  0.2835 -1.4593
37328SOL    HW222299   2.569   3.363   0.713  0.6380  1.2639  0.4580
37329SOL     OW22300   1.692   9.046  10.591 -0.1357 -0.4976 -0.1255
37329SOL    HW122301   1.691   9.067  10.497 -0.6916 -0.7138 -0.1704
37329SOL    HW222302   1.632   9.109  10.630  2.3544  1.6516  0.5588
37330SOL     OW22303  12.731   7.981   5.598 -0.2054 -0.0004  0.2620
37330SOL    HW122304  12.654   7.928   5.579  0.0881  0.0130 -1.0276
37330SOL    HW222305  12.804   7.933   5.559  0.1167  1.1445 -0.6022
37331SOL     OW22306  12.104   7.380   9.378 -0.4116 -0.6750 -0.0966
37331SOL    HW122307  12.022   7.416   9.413 -0.6920 -0.4597 -0.9365
37331SOL    HW222308  12.086   7.287   9.367 -0.6332 -0.5878 -0.5037
37332SOL     OW22309   5.601   1.191   4.500  0.4568  0.1204  0.2430
37332SOL    HW122310   5.583   1.224   4.412 -0.8193 -0.3214  0.3125
37332SOL    HW222311   5.636   1.102   4.486  0.5900  0.1823  0.1773
37333SOL     OW22312  11.059  11.581  12.958 -0.6772 -0.7584  0.1654
37333SOL    HW122313  11.091  11.620  13.039  0.9776  1.0788 -1.2934
37333SOL    HW222314  10.971  11.615  12.948  0.3343  1.8588 -0.5056
37334SOL     OW22315   2.663   6.317  12.608  0.0821 -0.3089 -0.0226
37334SOL    HW122316   2.591   6.366  12.648 -0.5905  0.6590 -2.2778
37334SOL    HW222317   2.637   6.306  12.517  3.7316  2.0728 -1.5751
37335SOL     OW22318   1.021   3.158   0.939  0.2102  0.3299 -0.4920
37335SOL    HW122319   0.942   3.178   0.889  0.8174  0.6817 -1.3333
37335SOL    HW222320   1.083   3.228   0.915  1.0168 -0.3414 -0.4063
37336SOL     OW22321   0.442   0.917   5.574  0.4436 -0.5495  0.7686
37336SOL    HW122322   0.482   1.004   5.565  0.9268 -0.6275  1.9626
37336SOL    HW222323   0.355   0.934   5.609 -0.6392 -0.3811 -1.8128
37337SOL     OW22324   9.288   9.514  12.531  0.6045  0.1626  0.1168
37337SOL    HW122325   9.216   9.454  12.547 -0.6393  1.6899  0.4973
37337SOL    HW222326   9.323   9.534  12.618  3.3752 -2.6411 -0.1658
37338SOL     OW22327  11.717  10.110   7.694 -0.0853 -0.1631  0.2946
37338SOL    HW122328  11.751  10.183   7.642  0.5065 -0.1382  0.7058
37338SOL    HW222329  11.654  10.067   7.637 -0.0901  0.3896 -0.1218
37339SOL     OW22330   2.663   8.713   4.741  0.6484  0.0895 -0.0539
37339SOL    HW122331   2.661   8.739   4.833 -1.2567  2.7976 -0.7449
37339SOL    HW222332   2.684   8.793   4.694  0.7427 -1.0509 -2.0682
37340SOL     OW22333   4.707   2.798   9.648  0.8077 -0.1009  0.2397
37340SOL    HW122334   4.743   2.877   9.689 -0.2244  0.2395  0.5395
37340SOL    HW222335   4.709   2.816   9.554  1.5823 -0.1673  0.2418
37341SOL     OW22336   0.971   6.185   8.088 -0.0742  0.0162  0.0947
37341SOL    HW122337   0.992   6.139   8.169 -1.9133  0.4244  0.8448
37341SOL    HW222338   0.902   6.132   8.048 -0.1311  0.5461 -0.5127
37342SOL     OW22339   3.036  12.455  11.841 -0.3530 -0.5612 -0.2781
37342SOL    HW122340   3.104  12.412  11.893  0.1594  0.4209 -0.1105
37342SOL    HW222341   2.957  12.451  11.895 -0.1058 -0.5714  0.0811
37343SOL     OW22342  10.873   9.963   4.970  0.7101 -0.0138  0.0401
37343SOL    HW122343  10.842   9.884   5.013 -1.2282  0.5684 -0.2096
37343SOL    HW222344  10.889   9.937   4.879 -0.7919  0.0733 -0.2587
37344SOL     OW22345   0.699   8.783   9.477 -0.6274  0.7566  0.6589
37344SOL    HW122346   0.734   8.828   9.553 -0.9010  0.3725  1.0163
37344SOL    HW222347   0.724   8.691   9.489 -0.8834  0.6514  0.4117
37345SOL     OW22348   8.418  11.150  11.826  0.2180 -0.4567 -0.2828
37345SOL    HW122349   8.388  11.240  11.818 -0.9079 -0.7248  0.6291
37345SOL    HW222350   8.394  11.109  11.743 -0.4994 -0.2500 -0.1839
37346SOL     OW22351  12.365   7.263   2.121 -0.1654 -0.3169  0.4884
37346SOL    HW122352  12.308   7.284   2.194  1.5471  1.2296  1.4646
37346SOL    HW222353  12.314   7.285   2.043 -1.4493 -0.5187  1.2489
37347SOL     OW22354  10.754  12.289   0.408  0.2770 -0.0804  0.1033
37347SOL    HW122355  10.756  12.348   0.334 -0.9305  0.5037  0.5214
37347SOL    HW222356  10.843  12.293   0.444  0.6673  0.1811 -0.8550
37348SOL     OW22357   5.583  12.798   6.425 -0.2968 -0.1474  0.2008
37348SOL    HW122358   5.546  12.718   6.463  2.7595 -2.5968 -1.5042
37348SOL    HW222359   5.646  12.829   6.490  0.0080 -0.3289 -0.0090
37349SOL     OW22360   3.533  12.429   6.740 -0.2317 -0.1504 -0.0545
37349SOL    HW122361   3.533  12.344   6.698 -0.1986 -0.7033  1.0227
37349SOL    HW222362   3.441  12.449   6.755 -0.2058 -0.3903  0.4462
37350SOL     OW22363   2.101   9.639   5.796 -0.4132 -0.5206 -0.1308
37350SOL    HW122364   2.190   9.647   5.761 -0.2559  1.2037  0.5502
37350SOL    HW222365   2.105   9.562   5.853  1.2924  0.7599  1.6198
37351SOL     OW22366   7.315   1.711   3.057 -1.0307  0.1985 -0.0610
37351SOL    HW122367   7.224   1.684   3.053 -0.7292 -0.8009 -0.7329
37351SOL    HW222368   7.359   1.653   2.994  0.3739 -0.5972  1.5751
37352SOL     OW22369   5.663  11.899   7.882  0.3927 -0.7707 -0.6885
37352SOL    HW122370   5.669  11.817   7.931  1.1147  0.0420  0.6363
37352SOL    HW222371   5.570  11.921   7.884  0.1621 -1.6727 -1.2559
37353SOL     OW22372   4.039   2.636   5.833  0.3235  0.3226  0.0346
37353SOL    HW122373   4.078   2.600   5.913  0.1495 -0.7014 -0.3211
37353SOL    HW222374   4.006   2.559   5.786  0.8307  0.8522 -1.2442
37354SOL     OW22375   1.770   6.989  12.409  0.2650  0.6479 -0.1531
37354SOL    HW122376   1.723   7.058  12.363  0.2652  0.0326 -1.0964
37354SOL    HW222377   1.716   6.969  12.486 -0.4413  0.7187 -0.6266
37355SOL     OW22378   2.535   1.580   9.922  0.1348 -0.7600  0.0382
37355SOL    HW122379   2.547   1.494   9.962 -0.0131 -1.1267 -0.7022
37355SOL    HW222380   2.543   1.565   9.828 -0.2727 -0.0257 -0.1242
37356SOL     OW22381   3.516   1.972   1.635  0.1807 -0.4012  0.0795
37356SOL    HW122382   3.437   1.954   1.685 -0.3001  1.9114  0.2704
37356SOL    HW222383   3.588   1.959   1.697 -0.0789 -1.8484  0.0923
37357SOL     OW22384   8.104   6.283   3.073 -0.3955  0.3696 -0.1630
37357SOL    HW122385   8.045   6.358   3.077 -0.9483 -0.0803  0.2140
37357SOL    HW222386   8.083   6.240   2.991 -0.7975  0.0540  0.0982
37358SOL     OW22387   5.992   2.131   2.017  0.3267 -0.0782 -0.1117
37358SOL    HW122388   5.958   2.139   2.106  0.9461  0.2042  0.1103
37358SOL    HW222389   5.996   2.221   1.985 -0.0549 -0.1918 -0.4941
37359SOL     OW22390   4.459   8.190  12.678  0.1526 -0.1254  0.2324
37359SOL    HW122391   4.480   8.148  12.595  1.2727 -2.3363  1.5362
37359SOL    HW222392   4.522   8.262  12.685 -0.4463  0.5609 -1.1331
37360SOL     OW22393   7.130   2.062   2.555 -0.7455 -0.5699 -0.2381
37360SOL    HW122394   7.125   2.114   2.635 -0.3439 -0.9943  0.0713
37360SOL    HW222395   7.048   2.013   2.551  0.0037 -2.0008  0.9413
37361SOL     OW22396   4.919   8.142   4.828 -0.2882 -0.1716 -0.4799
37361SOL    HW122397   4.847   8.121   4.769 -0.9094 -0.5030  0.3788
37361SOL    HW222398   4.896   8.099   4.910  0.1767  0.9245  0.2406
37362SOL     OW22399   4.756   9.165   1.374 -0.1563 -0.1865  0.6241
37362SOL    HW122400   4.850   9.156   1.386 -0.1493 -1.3328 -0.1428
37362SOL    HW222401   4.718   9.090   1.420 -0.8055  0.9615  2.0248
37363SOL     OW22402   7.926  12.257  12.586 -0.2449 -0.5018 -0.6116
37363SOL    HW122403   7.902  12.165  12.595 -0.3348 -0.4870 -0.6971
37363SOL    HW222404   7.922  12.273  12.492 -1.6869 -0.0155 -0.4882
37364SOL     OW22405   0.256  12.735  10.631 -0.2535 -0.1061  0.5643
37364SOL    HW122406   0.343  12.697  10.637 -0.6883 -1.1050  0.7969
37364SOL    HW222407   0.251  12.769  10.542  0.6487  0.6689  0.8011
37365SOL     OW22408   3.045   3.719   3.147 -0.0857  0.1303  0.4331
37365SOL    HW122409   3.083   3.645   3.195  1.7280  0.9781  0.3694
37365SOL    HW222410   2.973   3.680   3.097 -0.8477 -1.1106  2.3770
37366SOL     OW22411  12.662  11.581   8.233  0.5099 -0.1468 -0.0679
37366SOL    HW122412  12.728  11.540   8.289  3.1871  0.9616 -2.2083
37366SOL    HW222413  12.671  11.536   8.149 -1.5894 -0.0175 -0.4053
37367SOL     OW22414   6.069   0.797   1.962  0.0969  0.1134 -0.0072
37367SOL    HW122415   6.132   0.728   1.943 -0.3633 -0.3077 -0.0401
37367SOL    HW222416   5.989   0.751   1.987 -0.6818  0.5975 -1.4858
37368SOL     OW22417   2.437   5.128  11.648 -0.2960  0.0308 -0.6474
37368SOL    HW122418   2.352   5.106  11.686  0.2304  0.4557  0.8561
37368SOL    HW222419   2.452   5.219  11.675  1.8985 -0.8903  1.6529
37369SOL     OW22420   3.578  11.488   1.748 -0.2173 -0.4948  0.2108
37369SOL    HW122421   3.562  11.542   1.671 -1.5726 -0.6398  0.3698
37369SOL    HW222422   3.518  11.414   1.739 -0.8102 -0.2333  1.6627
37370SOL     OW22423   2.776   3.105   0.663  0.3759  0.3726 -0.5645
37370SOL    HW122424   2.695   3.119   0.712  0.8838  3.3944 -0.3900
37370SOL    HW222425   2.807   3.019   0.692 -1.6209  0.1123  1.0322
37371SOL     OW22426   3.365   4.273  10.161 -0.3032  0.3021  0.2422
37371SOL    HW122427   3.286   4.269  10.215 -0.4114 -1.5442  0.0264
37371SOL    HW222428   3.371   4.185  10.123  0.7434  1.0360 -1.3492
37372SOL     OW22429   2.504   3.874   9.451  0.3344 -0.5074  0.1065
37372SOL    HW122430   2.475   3.800   9.505  0.6577 -0.8462 -0.1769
37372SOL    HW222431   2.552   3.833   9.379 -0.0901 -0.0599 -0.4381
37373SOL     OW22432  10.681   4.911  12.336 -0.3392 -0.3845 -0.6394
37373SOL    HW122433  10.614   4.880  12.397 -0.4597  0.3032 -0.4099
37373SOL    HW222434  10.634   4.972  12.279 -0.1190 -0.6515 -1.1131
37374SOL     OW22435   7.415   8.583   8.050  0.1818  0.1455  0.4274
37374SOL    HW122436   7.507   8.609   8.057  0.4819 -0.9281  0.6933
37374SOL    HW222437   7.375   8.650   7.995  1.6651 -0.6533 -1.7359
37375SOL     OW22438   0.689   6.186  12.329 -0.2834  0.5817 -0.3996
37375SOL    HW122439   0.753   6.117  12.346 -0.4735  0.9204  2.0448
37375SOL    HW222440   0.606   6.140  12.316 -0.5865  0.2987  2.0990
37376SOL     OW22441   1.160   2.106   3.783 -0.3879 -0.5148  0.5199
37376SOL    HW122442   1.134   2.167   3.853 -1.2163 -0.4685  0.1783
37376SOL    HW222443   1.090   2.041   3.781  0.1143 -1.0578  0.3694
37377SOL     OW22444   4.127   3.347   8.891  0.0227  0.2504 -0.3887
37377SOL    HW122445   4.190   3.420   8.894 -1.5275  1.6563 -0.3728
37377SOL    HW222446   4.060   3.377   8.830 -0.8703 -0.9927 -0.0437
37378SOL     OW22447   8.470   2.107   4.499  0.0545 -0.0010 -0.5487
37378SOL    HW122448   8.464   2.037   4.435  1.0697 -0.6310  0.0058
37378SOL    HW222449   8.398   2.091   4.560 -0.1994 -0.0797 -0.8681
37379SOL     OW22450   8.713   7.806   7.811  0.1199 -0.0821 -0.3459
37379SOL    HW122451   8.638   7.806   7.870  1.0156 -2.4841  0.9244
37379SOL    HW222452   8.687   7.746   7.740  0.5477 -0.3398 -0.2880
37380SOL     OW22453   3.409   6.767   4.392 -0.0322  0.4274  0.3492
37380SOL    HW122454   3.455   6.828   4.335 -0.2843 -0.8199 -1.2498
37380SOL    HW222455   3.472   6.696   4.406  1.3135  2.0768  4.3803
37381SOL     OW22456   2.935  12.245   2.248 -0.0016  0.3875  0.3407
37381SOL    HW122457   2.952  12.212   2.336  1.6907 -1.8422 -0.7041
37381SOL    HW222458   2.994  12.194   2.192 -2.2182  0.4885 -2.2844
37382SOL     OW22459   4.690   3.321   6.754 -0.2030  0.2753 -0.4015
37382SOL    HW122460   4.777   3.348   6.783 -0.2543 -0.4595  0.5219
37382SOL    HW222461   4.630   3.373   6.808 -0.3613  1.3877 -1.6208
37383SOL     OW22462   7.571  11.368   9.355  0.2047  0.3216 -0.2544
37383SOL    HW122463   7.631  11.360   9.281 -0.2844  0.5252 -0.6796
37383SOL    HW222464   7.484  11.360   9.316 -0.0782  0.9802  0.2221
37384SOL     OW22465   5.712  12.725   1.069  0.0324  0.1149 -0.0464
37384SOL    HW122466   5.766  12.782   1.014  1.6289 -0.1615  1.1750
37384SOL    HW222467   5.678  12.784   1.136 -0.8769  0.1962 -0.5535
37385SOL     OW22468  11.254   2.306   3.472 -0.0202  0.2230  0.3227
37385SOL    HW122469  11.343   2.277   3.492 -0.6051 -0.6558  1.7997
37385SOL    HW222470  11.214   2.323   3.557 -1.2749  0.5977 -0.3119
37386SOL     OW22471   1.559  12.801  11.901 -0.2908 -0.0784  0.5555
37386SOL    HW122472   1.567  12.765  11.812 -0.3480 -0.8996  0.8769
37386SOL    HW222473   1.648  12.798  11.936 -0.2918  0.1268  0.5809
37387SOL     OW22474   0.547   6.531   5.537 -0.2330  0.2580 -0.1691
37387SOL    HW122475   0.630   6.562   5.501 -0.0039  0.0851  0.1986
37387SOL    HW222476   0.500   6.610   5.564 -0.2045  0.3579 -0.4186
37388SOL     OW22477   3.874  12.686   8.927  0.7106  0.0856 -0.7271
37388SOL    HW122478   3.909  12.749   8.990 -1.1846  1.7871 -1.2469
37388SOL    HW222479   3.780  12.707   8.923  0.0750 -2.5114 -1.2826
37389SOL     OW22480  12.198  12.927   9.665 -0.2966 -0.3837 -0.0760
37389SOL    HW122481  12.252  12.946   9.742 -1.5931  1.2936  0.4850
37389SOL    HW222482  12.223  12.993   9.601 -2.1894  0.9792  0.4978
37390SOL     OW22483   8.877   8.989   8.581 -0.2781 -0.2714 -0.0444
37390SOL    HW122484   8.791   9.004   8.620  1.0780  3.1363  2.1128
37390SOL    HW222485   8.887   9.061   8.518  0.3792 -1.6507 -1.5965
37391SOL     OW22486   5.337   3.443   3.414  0.3338  0.1228 -0.2847
37391SOL    HW122487   5.290   3.500   3.476 -0.6520  0.9187 -1.7157
37391SOL    HW222488   5.424   3.434   3.453  0.4167  2.3228  0.2000
37392SOL     OW22489   1.585  10.310   8.897 -0.2144  0.1555 -0.2120
37392SOL    HW122490   1.597  10.266   8.981 -1.4559 -1.5877 -0.8843
37392SOL    HW222491   1.639  10.389   8.903  1.7867 -1.2132  1.2466
37393SOL     OW22492   0.504   8.265   8.072 -0.4161  0.2756  0.1999
37393SOL    HW122493   0.592   8.270   8.033 -0.5584 -0.8311 -0.3122
37393SOL    HW222494   0.445   8.276   7.997 -0.6975 -0.4845  0.3008
37394SOL     OW22495   3.775   2.668   9.646 -0.3298  0.2564  0.3503
37394SOL    HW122496   3.855   2.717   9.625 -0.2201 -1.0726 -3.0328
37394SOL    HW222497   3.802   2.576   9.640 -1.7513 -0.2067  0.8143
37395SOL     OW22498   8.890   9.542   0.367  0.2350  0.2888  0.9492
37395SOL    HW122499   8.849   9.525   0.282  1.0506  0.5342  0.4958
37395SOL    HW222500   8.870   9.464   0.419  1.2164 -0.6739 -0.0562
37396SOL     OW22501   5.052  10.735  12.854  0.4794 -0.0805  0.6567
37396SOL    HW122502   5.067  10.669  12.786 -0.2996  0.5303 -0.1336
37396SOL    HW222503   5.088  10.816  12.816 -0.9136  0.4914  0.5006
37397SOL     OW22504   4.258  10.022  10.638 -0.9786 -0.1595  0.1291
37397SOL    HW122505   4.301  10.068  10.709  2.6291 -1.1077 -1.2102
37397SOL    HW222506   4.272  10.078  10.561 -0.2453 -1.4541 -0.7197
37398SOL     OW22507   5.775   2.173   2.714  0.1557 -0.1035  0.2118
37398SOL    HW122508   5.705   2.114   2.684 -0.9792  1.7973 -1.0889
37398SOL    HW222509   5.747   2.199   2.801  0.7415 -1.5314  0.8645
37399SOL     OW22510   5.269   4.803   3.303 -0.3110  0.0814 -0.3447
37399SOL    HW122511   5.189   4.848   3.330  0.4838  1.3749 -0.0965
37399SOL    HW222512   5.306   4.770   3.385 -1.6011 -2.3497 -0.6367
37400SOL     OW22513  11.188   2.700   1.144 -0.1624  0.5295  0.3227
37400SOL    HW122514  11.172   2.754   1.221  1.0637  0.8528  0.3788
37400SOL    HW222515  11.233   2.758   1.082  1.1164 -0.3699  0.3527
37401SOL     OW22516   2.919   6.825  11.063 -0.1158 -0.0641 -0.4060
37401SOL    HW122517   2.870   6.867  11.134 -2.0303 -0.0447 -1.6507
37401SOL    HW222518   3.003   6.802  11.102 -0.3543  1.6838  1.3119
37402SOL     OW22519   1.348   4.243   9.184  0.7552  0.3998 -0.6245
37402SOL    HW122520   1.281   4.224   9.249  0.5826  0.2730 -0.8349
37402SOL    HW222521   1.332   4.179   9.114  2.4079 -1.0487  0.2453
37403SOL     OW22522   5.653   2.138   7.303 -0.1296 -0.0957 -0.3509
37403SOL    HW122523   5.731   2.109   7.254 -0.3597 -1.1252 -0.1440
37403SOL    HW222524   5.610   2.056   7.327 -0.8945  0.4562  0.1583
37404SOL     OW22525  10.700   1.537   7.542 -0.9489 -0.5659  0.0180
37404SOL    HW122526  10.761   1.463   7.542 -1.9385 -1.4001  0.4839
37404SOL    HW222527  10.645   1.523   7.464 -0.1449  0.5486 -0.7863
37405SOL     OW22528   3.890   8.470  11.368  0.5108  0.0199 -0.1758
37405SOL    HW122529   3.875   8.378  11.385 -2.3705  0.4946  0.3288
37405SOL    HW222530   3.878   8.480  11.274  2.3655 -0.3050 -0.4890
37406SOL     OW22531   8.116  12.599   5.445  0.3166  0.2997 -0.2755
37406SOL    HW122532   8.122  12.671   5.509 -1.7695 -2.6295  3.6544
37406SOL    HW222533   8.045  12.625   5.387 -1.3132  0.9911  1.8802
37407SOL     OW22534   7.327   6.739   5.065  0.0857 -0.4608  0.1350
37407SOL    HW122535   7.395   6.787   5.112  1.8325 -2.5023 -0.1877
37407SOL    HW222536   7.348   6.753   4.973 -0.8824  0.1472 -0.0072
37408SOL     OW22537   9.558  11.091   8.676  0.4073  0.3640 -0.1428
37408SOL    HW122538   9.585  11.147   8.749  0.4415  0.3154 -0.1189
37408SOL    HW222539   9.538  11.007   8.717 -1.4168  0.8682  0.0892
37409SOL     OW22540   1.689   7.486   0.396 -0.0738 -0.2138 -0.7219
37409SOL    HW122541   1.773   7.454   0.362  0.7144  0.5078  0.4489
37409SOL    HW222542   1.713   7.557   0.456 -1.5481  0.1949 -0.5745
37410SOL     OW22543   9.913   7.913   0.376 -0.3990  0.0338  0.0858
37410SOL    HW122544  10.006   7.893   0.390 -0.4386 -1.2170 -1.1633
37410SOL    HW222545   9.911   7.959   0.292 -0.9537 -0.5575 -0.2343
37411SOL     OW22546  11.158   0.844   5.143 -0.4335  0.0689 -0.1404
37411SOL    HW122547  11.105   0.793   5.205  0.1058 -1.7289 -1.0889
37411SOL    HW222548  11.101   0.855   5.066 -1.3913  2.9610  0.8421
37412SOL     OW22549   9.561   7.377   9.352  0.3720  0.1305  0.4056
37412SOL    HW122550   9.521   7.306   9.402 -2.5096  0.6876 -0.8829
37412SOL    HW222551   9.561   7.452   9.411  0.7729 -0.2076  0.8435
37413SOL     OW22552   2.145   8.991  12.336 -0.3709 -0.1733 -0.2547
37413SOL    HW122553   2.106   8.904  12.344  0.5766 -0.5152  0.8227
37413SOL    HW222554   2.230   8.983  12.379  0.7858  0.6341 -2.2898
37414SOL     OW22555   4.623   7.557  12.104  0.2737  0.1761  0.4434
37414SOL    HW122556   4.698   7.545  12.046 -0.2148  1.0295 -0.4129
37414SOL    HW222557   4.558   7.494  12.073  0.7460 -0.8074  1.4091
37415SOL     OW22558  12.367   4.607   6.399 -0.3735 -0.5399  0.0263
37415SOL    HW122559  12.274   4.625   6.408 -0.4864 -1.4435  0.9470
37415SOL    HW222560  12.402   4.680   6.348 -1.4386  0.2163  0.3523
37416SOL     OW22561   5.413   8.876   2.260  0.3535  0.0258  0.4366
37416SOL    HW122562   5.374   8.823   2.330 -1.0740  0.9067  0.3559
37416SOL    HW222563   5.347   8.943   2.242  1.1903  0.5038 -0.9709
37417SOL     OW22564  11.156   4.038   0.429 -0.2421 -0.2613  0.3936
37417SOL    HW122565  11.175   3.950   0.395 -3.2757 -0.9450  0.2024
37417SOL    HW222566  11.070   4.030   0.470 -0.5290  2.5944  0.5503
37418SOL     OW22567   5.460   4.635   1.379 -0.2984  0.9793 -0.1906
37418SOL    HW122568   5.378   4.594   1.407 -1.0960  1.3222 -1.9224
37418SOL    HW222569   5.449   4.649   1.285  0.9830  2.7976 -0.1164
37419SOL     OW22570   3.379   7.806   8.604 -0.2135 -0.7752  0.2606
37419SOL    HW122571   3.411   7.739   8.664  0.2327 -0.9361 -0.1444
37419SOL    HW222572   3.303   7.844   8.648 -0.1603 -1.1921  0.7234
37420SOL     OW22573  10.636   2.188   2.784  0.5357  0.6746  0.4813
37420SOL    HW122574  10.591   2.225   2.708 -1.5734 -0.8073  0.9080
37420SOL    HW222575  10.596   2.102   2.796  1.5972  0.3996  2.5960
37421SOL     OW22576  11.508  12.927   4.725  0.3366 -0.1300  0.5781
37421SOL    HW122577  11.482  12.914   4.816  0.6010  0.1103  0.6891
37421SOL    HW222578  11.429  12.957   4.682  1.0033  3.4187  1.5007
37422SOL     OW22579  10.997  12.169   3.781  0.2761  1.1962  0.1073
37422SOL    HW122580  11.025  12.251   3.822 -0.4048  1.6280 -0.2789
37422SOL    HW222581  11.047  12.165   3.700  0.5125  1.0885  0.2559
37423SOL     OW22582   0.996  12.894   1.551  0.0011  0.5722 -0.1931
37423SOL    HW122583   0.992  12.989   1.544  1.4977  0.6649 -0.1583
37423SOL    HW222584   0.974  12.862   1.464  0.2496  0.9880 -0.4141
37424SOL     OW22585   7.686   0.958   0.349  0.4172 -0.0935  0.4891
37424SOL    HW122586   7.596   0.961   0.315  0.6962 -0.3250 -0.2798
37424SOL    HW222587   7.741   0.972   0.273  1.1083 -2.3535  0.5002
37425SOL     OW22588   0.013   7.263  12.216 -1.0018 -0.0866 -0.6436
37425SOL    HW122589   0.066   7.208  12.272 -3.9004 -0.6614  1.8012
37425SOL    HW222590  -0.009   7.339  12.270 -2.4261  0.2391 -1.6015
37426SOL     OW22591   9.838   3.298   8.141 -0.1747  0.6369 -0.0345
37426SOL    HW122592   9.744   3.315   8.144 -0.6576 -1.6611 -0.1456
37426SOL    HW222593   9.878   3.383   8.158 -2.2707  1.4158  1.5367
37427SOL     OW22594   2.226   8.992   2.535  0.3223  0.1494 -0.2139
37427SOL    HW122595   2.230   8.922   2.469 -0.0024  0.5791 -0.6889
37427SOL    HW222596   2.248   8.947   2.617  1.9343 -0.1549 -0.7733
37428SOL     OW22597  12.811   3.031  11.251 -0.4866 -0.0537  0.2866
37428SOL    HW122598  12.793   2.953  11.303 -1.4192  0.7761  1.2494
37428SOL    HW222599  12.725   3.073  11.240 -0.3188 -0.1616 -1.8944
37429SOL     OW22600  11.770   4.242   2.207  0.0741 -0.0296  0.1305
37429SOL    HW122601  11.750   4.185   2.133 -0.3033  0.2505  0.0185
37429SOL    HW222602  11.706   4.219   2.274  0.6927 -0.5995  0.5454
37430SOL     OW22603   4.851  10.006  10.340  0.3128  0.4303  0.5029
37430SOL    HW122604   4.919   9.973  10.399  1.6613  0.6972 -0.8478
37430SOL    HW222605   4.893  10.008  10.254 -1.4309  0.5637 -0.3860
37431SOL     OW22606   6.924   0.791   7.474 -0.3162 -0.0454  0.2977
37431SOL    HW122607   6.954   0.836   7.553  0.8484  1.4657 -0.9389
37431SOL    HW222608   6.832   0.814   7.467  0.0354  1.4620  0.2013
37432SOL     OW22609   6.038   0.082   1.596  0.5827 -0.1430  0.5435
37432SOL    HW122610   6.073   0.088   1.507  0.5569  0.8113  0.5911
37432SOL    HW222611   5.958   0.030   1.587  0.1924  0.5593 -0.1137
37433SOL     OW22612   5.662  10.856  12.461  0.3139  0.6447 -0.2810
37433SOL    HW122613   5.720  10.932  12.453  0.7630  0.4252  0.7165
37433SOL    HW222614   5.657  10.820  12.372 -0.2110  2.0428 -0.8456
37434SOL     OW22615   9.044   7.157   1.885  0.2079  0.4327 -0.3498
37434SOL    HW122616   9.009   7.071   1.909  2.5290 -0.5332 -0.2179
37434SOL    HW222617   8.997   7.181   1.805 -1.6172 -0.1747  0.4790
37435SOL     OW22618   0.207   3.600   4.168 -0.5688 -0.5520  0.7461
37435SOL    HW122619   0.285   3.655   4.176  0.4809 -2.1305  2.2440
37435SOL    HW222620   0.134   3.661   4.176  0.4861  0.9067 -0.0929
37436SOL     OW22621   9.699   7.115   2.268  0.4094 -0.1514  0.5939
37436SOL    HW122622   9.722   7.022   2.266  0.8367 -0.1202  2.4775
37436SOL    HW222623   9.632   7.122   2.336 -0.0009  0.8597  0.1139
37437SOL     OW22624   2.147  10.591   7.078  0.1492  0.1053  0.1931
37437SOL    HW122625   2.054  10.567   7.070  0.3928 -0.6089 -0.6707
37437SOL    HW222626   2.150  10.683   7.051 -0.1431 -0.2004 -0.9171
37438SOL     OW22627   6.995   8.544   6.850  0.2279  0.2063  0.1020
37438SOL    HW122628   6.990   8.610   6.781 -1.0056  0.5423  0.4842
37438SOL    HW222629   7.062   8.577   6.910 -0.4174  1.1775  0.3267
37439SOL     OW22630  11.171  10.304   2.886 -0.2069  0.0518  0.2482
37439SOL    HW122631  11.092  10.252   2.867 -0.4377  0.2499  0.6508
37439SOL    HW222632  11.158  10.385   2.837  0.2580 -0.3518 -0.5620
37440SOL     OW22633   9.258   3.039  10.041  0.3018 -0.1940 -0.2083
37440SOL    HW122634   9.299   2.954  10.024 -0.6992 -1.0378  1.3554
37440SOL    HW222635   9.171   3.032  10.001  0.8293  0.7728 -1.5952
37441SOL     OW22636   1.405   0.947   7.942 -0.0498 -0.0448 -0.2077
37441SOL    HW122637   1.422   0.853   7.932  0.2994 -0.1746  1.3990
37441SOL    HW222638   1.372   0.956   8.031 -0.9806  1.2570 -0.6570
37442SOL     OW22639   5.209   6.340   3.512  0.1761  0.0918 -0.1097
37442SOL    HW122640   5.154   6.345   3.434  0.9534  2.1704 -0.5997
37442SOL    HW222641   5.171   6.404   3.572  1.3871  0.7880 -0.0455
37443SOL     OW22642  10.847   0.760  10.214 -0.0393  0.2817  0.2514
37443SOL    HW122643  10.768   0.705  10.215  0.3194 -0.5460 -3.0573
37443SOL    HW222644  10.816   0.846  10.187  0.0575  0.1915 -0.1574
37444SOL     OW22645   5.033   2.145   1.364  0.3812  0.0703  0.5232
37444SOL    HW122646   5.008   2.184   1.280  0.4582 -0.1501  0.3959
37444SOL    HW222647   5.007   2.210   1.430  2.3109  1.2219  0.2130
37445SOL     OW22648   4.048   4.040   5.194 -0.2412  0.4873  0.0963
37445SOL    HW122649   4.045   4.016   5.286  3.6775 -1.3092 -0.0531
37445SOL    HW222650   4.134   4.080   5.182 -0.0090 -0.6421 -3.0213
37446SOL     OW22651   9.891   4.925   7.876  0.0861  0.0048 -0.3769
37446SOL    HW122652   9.956   4.962   7.937 -0.1420  0.7612 -0.5860
37446SOL    HW222653   9.879   4.993   7.810 -1.7310  0.3372  0.2423
37447SOL     OW22654   1.380   7.469   3.417 -0.6188 -0.3763  0.3859
37447SOL    HW122655   1.417   7.381   3.414 -0.2485 -0.2212  0.4541
37447SOL    HW222656   1.377   7.497   3.326  0.3343 -0.0114  0.4565
37448SOL     OW22657   4.690  11.814   4.082 -0.3936  0.7597 -0.9296
37448SOL    HW122658   4.650  11.895   4.110 -1.4464  0.4204 -1.4204
37448SOL    HW222659   4.740  11.837   4.003  0.8009  1.2700 -0.0673
37449SOL     OW22660   0.339   4.161   9.999 -0.3336  0.0330  0.6702
37449SOL    HW122661   0.400   4.164   9.925 -1.8749  0.6938 -0.6256
37449SOL    HW222662   0.386   4.203  10.071  1.1547 -0.5070  0.0413
37450SOL     OW22663   1.367   3.126  11.186  0.5535  0.0276  0.0096
37450SOL    HW122664   1.334   3.131  11.276  1.5912 -1.3215  0.4985
37450SOL    HW222665   1.289   3.116  11.132  0.0325 -1.2945  0.9667
37451SOL     OW22666   9.895   7.847   9.882 -0.0964 -0.1677 -0.7626
37451SOL    HW122667   9.808   7.811   9.867  0.3370 -2.3540  1.2898
37451SOL    HW222668   9.893   7.933   9.840 -2.6667 -0.8099 -2.1961
37452SOL     OW22669   9.553   0.817  10.385  0.1773 -0.2820 -0.6209
37452SOL    HW122670   9.647   0.827  10.397  0.1607  0.0109 -0.7416
37452SOL    HW222671   9.515   0.851  10.466  0.1896 -0.7579 -0.4081
37453SOL     OW22672   5.799   4.764   5.583  0.3018  0.3282  0.7486
37453SOL    HW122673   5.829   4.850   5.613 -2.4608  1.3621  0.9023
37453SOL    HW222674   5.797   4.771   5.488 -0.0632  0.4895  0.7676
37454SOL     OW22675  12.854   9.031  10.238 -0.0324 -0.1087  0.1328
37454SOL    HW122676  12.809   8.960  10.286  0.8004 -0.2132  0.7803
37454SOL    HW222677  12.945   9.025  10.267 -0.0655  1.6452  0.7039
37455SOL     OW22678   7.504   2.967   9.327  0.1328  0.5025 -0.7147
37455SOL    HW122679   7.537   2.961   9.238 -0.8844  3.3664 -1.3835
37455SOL    HW222680   7.544   3.047   9.362  0.6382 -0.6388  1.4971
37456SOL     OW22681   9.962  12.568   6.942  0.0329 -0.2260  0.1464
37456SOL    HW122682   9.982  12.586   6.850  2.9769 -1.2737  0.4775
37456SOL    HW222683  10.022  12.624   6.991 -0.7725 -0.4474  1.4311
37457SOL     OW22684  10.921  12.201   9.653  0.6331 -0.3906  0.3687
37457SOL    HW122685  10.852  12.134   9.659  0.1508  0.1629  1.0782
37457SOL    HW222686  10.984  12.176   9.721  1.2183 -0.9704 -0.3649
37458SOL     OW22687   4.253   1.095   6.120  0.0227  0.0686 -0.2871
37458SOL    HW122688   4.175   1.141   6.088 -1.1963 -1.4050  0.3990
37458SOL    HW222689   4.240   1.088   6.214  0.9092 -0.3612 -0.1876
37459SOL     OW22690   1.441   8.166  12.323 -0.2414  0.0733  0.5420
37459SOL    HW122691   1.378   8.168  12.252 -1.1785  2.2070  1.3443
37459SOL    HW222692   1.524   8.191  12.281  0.1571 -2.7214 -0.5076
37460SOL     OW22693  12.061   5.177   7.689 -0.0375 -0.8231 -0.5964
37460SOL    HW122694  11.994   5.194   7.622 -0.5672 -1.0607 -0.1286
37460SOL    HW222695  12.138   5.148   7.639 -0.9950 -2.8261 -1.0243
37461SOL     OW22696   7.841   4.929   4.415 -0.5262 -0.1758 -0.0522
37461SOL    HW122697   7.877   4.841   4.404 -0.8348 -0.1030 -2.1187
37461SOL    HW222698   7.905   4.986   4.372 -0.0350  0.7138  1.7840
37462SOL     OW22699   1.302   7.572   8.821  0.4611 -0.2535 -0.3988
37462SOL    HW122700   1.210   7.595   8.810  0.2494 -1.0090 -0.3040
37462SOL    HW222701   1.344   7.652   8.850 -0.5172 -0.3262  1.3693
37463SOL     OW22702   2.712   5.868   2.927  0.0984  0.2762 -1.1240
37463SOL    HW122703   2.650   5.939   2.911 -0.6705  0.1032  0.7831
37463SOL    HW222704   2.772   5.903   2.992 -0.0122 -0.6389 -0.5046
37464SOL     OW22705   6.318   1.951   4.325  0.0312  0.0344 -0.1548
37464SOL    HW122706   6.318   2.032   4.275  1.2338  0.1610  0.0324
37464SOL    HW222707   6.388   1.961   4.389  0.4200 -1.2703 -0.3319
37465SOL     OW22708  10.344   7.245   5.637  0.0825  0.3745 -1.0749
37465SOL    HW122709  10.381   7.240   5.549  0.5031  2.9859 -1.1257
37465SOL    HW222710  10.257   7.283   5.623 -0.2062 -0.0351 -0.4242
37466SOL     OW22711   9.376   9.015   3.799  0.4442 -0.1822  0.1007
37466SOL    HW122712   9.369   9.107   3.825  1.9803  0.5214 -1.6533
37466SOL    HW222713   9.452   8.982   3.847  0.4378 -0.2588  0.0593
37467SOL     OW22714  12.603  10.653   6.714  0.1450 -0.6853  0.0840
37467SOL    HW122715  12.648  10.627   6.795  2.2442  1.1839 -0.3831
37467SOL    HW222716  12.545  10.724   6.739  0.9829  0.0658 -0.0436
37468SOL     OW22717  10.063   8.208   8.009  0.1353 -0.0624  0.7925
37468SOL    HW122718  10.007   8.237   8.081 -0.5647  1.8843 -0.4523
37468SOL    HW222719  10.003   8.161   7.950  0.3321 -0.1478  0.6603
37469SOL     OW22720   9.015   3.893   2.846  0.0831 -0.0456 -0.3013
37469SOL    HW122721   9.066   3.973   2.855 -0.1839  0.0761  0.1603
37469SOL    HW222722   9.079   3.827   2.819  0.4851  0.1095  0.2484
37470SOL     OW22723  12.104  12.525  12.219  0.2289  0.7082  0.7156
37470SOL    HW122724  12.155  12.456  12.177  1.3886  0.4982  2.3830
37470SOL    HW222725  12.159  12.603  12.211 -1.7073  1.9624 -2.5213
37471SOL     OW22726   9.668   1.398  11.581 -0.0246  0.9822  0.3696
37471SOL    HW122727   9.729   1.471  11.593 -0.8956  1.5626  1.5232
37471SOL    HW222728   9.595   1.436  11.532  0.6893  0.1843 -1.3758
37472SOL     OW22729  10.498   5.359  11.483  0.2514  0.0854 -0.5685
37472SOL    HW122730  10.452   5.430  11.437  0.8373  0.1861 -1.0050
37472SOL    HW222731  10.474   5.280  11.434 -0.9462 -0.1290  0.3197
37473SOL     OW22732  12.675   6.274   2.203  0.0505  0.0045  0.8646
37473SOL    HW122733  12.675   6.347   2.140  0.6215 -0.1658  0.6639
37473SOL    HW222734  12.727   6.206   2.160 -0.5686 -0.5670  1.0041
37474SOL     OW22735   9.926   8.309  10.620  0.3834  0.3453  0.0037
37474SOL    HW122736   9.966   8.394  10.604 -0.3796  0.9725  1.2920
37474SOL    HW222737   9.879   8.319  10.703  0.5104 -1.4128  0.3358
37475SOL     OW22738   4.406   8.252   6.446  0.2331 -0.1186  0.9972
37475SOL    HW122739   4.451   8.335   6.435 -0.1635  0.1464  1.3213
37475SOL    HW222740   4.329   8.259   6.390  0.8811 -0.7979 -0.0124
37476SOL     OW22741   1.913   1.830   4.395 -0.0600  0.1490  0.2653
37476SOL    HW122742   1.822   1.858   4.399 -0.3942 -0.9671  0.6984
37476SOL    HW222743   1.954   1.891   4.333 -1.4528 -0.3081 -1.1696
37477SOL     OW22744   3.635   6.040   9.799  0.2217  0.0980 -0.5567
37477SOL    HW122745   3.720   6.069   9.832 -0.0451  0.8091 -0.4848
37477SOL    HW222746   3.625   6.085   9.715 -0.1312  0.0956 -0.5164
37478SOL     OW22747   3.682   3.464   5.030 -0.5158 -0.1747  0.5474
37478SOL    HW122748   3.595   3.456   5.069  0.8866 -1.2039  3.9066
37478SOL    HW222749   3.696   3.382   4.984 -1.5202  0.2599 -0.5669
37479SOL     OW22750   4.917   4.744   2.176  0.4619  0.3118  0.0960
37479SOL    HW122751   4.831   4.785   2.169 -0.3262 -0.8784  2.0283
37479SOL    HW222752   4.960   4.764   2.093 -1.4013  1.5384 -0.6304
37480SOL     OW22753  10.639   1.621  11.019  0.0135 -0.1041  0.0912
37480SOL    HW122754  10.584   1.685  10.973  0.4817  0.6635  0.5797
37480SOL    HW222755  10.712   1.672  11.053  1.4754 -1.2273 -1.1946
37481SOL     OW22756   6.067   6.606   2.737  0.1350 -0.1809  0.0328
37481SOL    HW122757   6.065   6.697   2.770  1.0369 -0.2193  0.2331
37481SOL    HW222758   5.980   6.572   2.756  0.1208  0.3128  0.9448
37482SOL     OW22759  10.640   4.524  10.927  0.0802 -0.2689  0.4457
37482SOL    HW122760  10.608   4.463  10.861 -0.8609  1.2387 -0.5649
37482SOL    HW222761  10.735   4.525  10.915  0.1738 -1.8960  0.8464
37483SOL     OW22762   4.472   5.130   9.990  0.3184 -0.4949 -0.6160
37483SOL    HW122763   4.557   5.163  10.020 -0.6189 -1.4662  3.9264
37483SOL    HW222764   4.413   5.206   9.997 -0.2270 -1.0695  1.9751
37484SOL     OW22765   3.921   5.547   7.034  0.1034 -0.5383  0.0192
37484SOL    HW122766   3.846   5.607   7.031 -0.0743 -0.7356  0.4251
37484SOL    HW222767   3.926   5.520   7.126  0.3701 -0.9079 -0.1012
37485SOL     OW22768  11.846   6.690  10.358  0.3714  0.2951  0.9161
37485SOL    HW122769  11.900   6.733  10.291  0.4299  1.9421  1.9756
37485SOL    HW222770  11.758   6.691  10.321  0.5128  0.5899  0.5781
37486SOL     OW22771  10.747  12.713   5.212  0.3215  0.2467  0.3991
37486SOL    HW122772  10.668  12.766   5.204 -0.4945 -1.2319 -2.8486
37486SOL    HW222773  10.719  12.636   5.261 -1.1329 -1.4762 -2.8258
37487SOL     OW22774   3.027   6.769   0.083 -0.4684 -0.5165 -0.2062
37487SOL    HW122775   2.935   6.748   0.101 -1.0132  1.4449 -0.5145
37487SOL    HW222776   3.076   6.721   0.150 -1.6744 -1.7739 -0.1728
37488SOL     OW22777   3.661   9.304  11.024  0.0473  0.4284 -0.0610
37488SOL    HW122778   3.627   9.383  10.983 -2.4869 -1.1406 -1.2849
37488SOL    HW222779   3.730   9.274  10.964  0.6590  1.3979  0.1407
37489SOL     OW22780   0.336   6.882   3.820  0.6802 -0.1792 -0.0152
37489SOL    HW122781   0.291   6.967   3.816  0.1404 -0.4134  0.7369
37489SOL    HW222782   0.271   6.819   3.789  0.3319 -0.5671  1.4215
37490SOL     OW22783  11.607   1.208   1.754  0.1189  0.1269 -0.2973
37490SOL    HW122784  11.629   1.118   1.777 -1.8205 -0.6490 -1.2027
37490SOL    HW222785  11.654   1.262   1.818  2.4478 -1.4173 -0.6147
37491SOL     OW22786   5.926   8.309   6.606 -0.2053 -0.3555 -0.1055
37491SOL    HW122787   5.833   8.331   6.607  0.0093  0.7854  2.4851
37491SOL    HW222788   5.938   8.251   6.681  1.3598  0.6572  0.4925
37492SOL     OW22789   7.249   6.975   8.763 -0.2207 -0.5950 -0.3000
37492SOL    HW122790   7.199   7.055   8.745 -1.1436 -0.7425  1.4192
37492SOL    HW222791   7.190   6.921   8.816  0.2562 -2.5888 -1.6589
37493SOL     OW22792   3.077  10.416   9.925 -0.6448  0.5078  0.0267
37493SOL    HW122793   3.006  10.480   9.916 -0.2939  0.9699  0.4960
37493SOL    HW222794   3.106  10.424  10.016 -0.7669 -0.5088  0.1614
37494SOL     OW22795   6.918   1.685   8.441  0.4495  0.2008  0.0447
37494SOL    HW122796   6.884   1.697   8.529  0.4699  1.1485 -0.0634
37494SOL    HW222797   7.005   1.725   8.444  0.4133  0.3176 -0.4229
37495SOL     OW22798   4.886   8.809   1.356 -0.4510  0.4252 -0.5910
37495SOL    HW122799   4.831   8.795   1.433 -1.5675  2.8675 -0.8418
37495SOL    HW222800   4.864   8.736   1.298 -0.6659 -0.6547  0.7889
37496SOL     OW22801   8.646   8.529   7.349  0.5077  0.0259  0.9176
37496SOL    HW122802   8.595   8.484   7.282  1.9593  1.6815 -1.4747
37496SOL    HW222803   8.735   8.496   7.337  0.8745  0.6967  1.7384
37497SOL     OW22804  11.607   9.069   3.038 -0.1248  0.3462  0.2710
37497SOL    HW122805  11.567   9.141   3.087  0.1030 -0.3608  1.5047
37497SOL    HW222806  11.699   9.095   3.029  0.7691 -1.1620  3.5242
37498SOL     OW22807   4.573  11.757   0.247  0.0382  0.4702  0.4647
37498SOL    HW122808   4.651  11.741   0.302  0.0901 -0.9754  0.0109
37498SOL    HW222809   4.588  11.844   0.209  1.6426  0.0539  0.0663
37499SOL     OW22810   6.605   2.883   3.610  0.5115  0.5279  0.4182
37499SOL    HW122811   6.570   2.926   3.532  2.6305  0.8943 -0.3784
37499SOL    HW222812   6.543   2.812   3.628  0.4358 -0.1309 -2.1528
37500SOL     OW22813   7.681   6.603   4.668 -0.3916  0.2700 -0.6665
37500SOL    HW122814   7.645   6.690   4.651 -0.7750 -0.0153 -1.3486
37500SOL    HW222815   7.718   6.576   4.584  2.0838  0.8333  0.1441
37501SOL     OW22816   1.331   4.642   9.293 -0.0565  0.6420  0.2941
37501SOL    HW122817   1.349   4.628   9.386  0.0199  1.8446  0.4645
37501SOL    HW222818   1.312   4.735   9.285 -1.1260  0.3677 -0.7272
37502SOL     OW22819   2.401   9.096  10.597  0.0450  0.3251  0.0698
37502SOL    HW122820   2.476   9.045  10.568  1.1117  1.4626  0.7194
37502SOL    HW222821   2.427   9.129  10.684 -1.6321 -0.1249  0.7790
37503SOL     OW22822   4.798   0.328   4.646 -0.5255  0.1429  0.8902
37503SOL    HW122823   4.815   0.304   4.737 -2.1410 -0.6031  1.0302
37503SOL    HW222824   4.730   0.395   4.651 -1.1850 -0.4572  0.2300
37504SOL     OW22825   9.642   2.164   5.301 -0.0858 -0.1474 -0.0266
37504SOL    HW122826   9.630   2.113   5.381 -1.6086 -1.3931 -0.9859
37504SOL    HW222827   9.675   2.101   5.237  0.0145  0.5536 -0.6833
37505SOL     OW22828   2.462   3.633   9.346  0.4547  0.4215 -0.2378
37505SOL    HW122829   2.439   3.541   9.339 -0.8849  0.4532  2.4493
37505SOL    HW222830   2.544   3.634   9.394 -0.5713  0.6267  1.5833
37506SOL     OW22831  10.608  10.331   8.608 -0.3729 -0.2247  0.0802
37506SOL    HW122832  10.532  10.379   8.577 -0.6660 -1.1332 -0.6445
37506SOL    HW222833  10.573  10.249   8.644  0.2194 -0.4575  0.1523
37507SOL     OW22834   6.404   0.500   8.952 -0.3561  0.0952  0.8460
37507SOL    HW122835   6.471   0.543   9.006  0.7742  1.1150 -1.2052
37507SOL    HW222836   6.454   0.454   8.885 -1.6912 -0.2618  0.0596
37508SOL     OW22837   1.910   8.253   9.570 -0.1156  0.2049  0.3510
37508SOL    HW122838   1.873   8.341   9.576 -1.2150 -0.2668  0.8133
37508SOL    HW222839   1.894   8.226   9.480 -2.3452 -0.5809  0.9397
37509SOL     OW22840   5.429   0.867   2.701  0.7304 -0.4996 -0.2975
37509SOL    HW122841   5.430   0.777   2.668  0.5324 -0.8618  0.6721
37509SOL    HW222842   5.405   0.859   2.793  0.0162  0.6018 -0.3653
37510SOL     OW22843   6.950   0.856   6.598 -0.3264 -0.5779 -0.0951
37510SOL    HW122844   7.043   0.835   6.584  0.2746  2.5347 -1.5935
37510SOL    HW222845   6.905   0.772   6.588  2.2886 -2.1943  0.6787
37511SOL     OW22846   5.351   0.870  12.273 -0.6992 -0.0547 -0.2033
37511SOL    HW122847   5.367   0.865  12.367 -0.0260 -0.8160 -0.3497
37511SOL    HW222848   5.292   0.945  12.262 -1.5531 -0.5519  0.9166
37512SOL     OW22849   1.560   9.782   0.022 -0.1827 -0.3277  0.2492
37512SOL    HW122850   1.476   9.740   0.039  0.4998 -1.3031  1.4591
37512SOL    HW222851   1.608   9.717  -0.031 -0.7575  0.9250 -1.9162
37513SOL     OW22852   8.690   3.856   1.471  0.2832 -0.5886  0.0962
37513SOL    HW122853   8.671   3.763   1.479  1.3016 -0.7107  1.4738
37513SOL    HW222854   8.697   3.887   1.561 -0.0287  0.8276 -0.3435
37514SOL     OW22855   2.455   5.583   6.122 -0.8779 -0.1817 -0.0685
37514SOL    HW122856   2.499   5.537   6.193  1.6176  0.8035 -0.8712
37514SOL    HW222857   2.415   5.659   6.164  1.4650  0.9691  0.2430
37515SOL     OW22858  12.087   0.760   1.855  0.0779  0.1943 -0.3189
37515SOL    HW122859  12.029   0.758   1.931 -0.2961 -1.2263 -0.6180
37515SOL    HW222860  12.086   0.851   1.826 -1.1045  0.4109  0.3568
37516SOL     OW22861   1.212   2.206   2.770  0.1243 -0.7245 -0.3556
37516SOL    HW122862   1.242   2.271   2.834  0.1956 -0.6295 -0.4855
37516SOL    HW222863   1.228   2.246   2.685  0.1067 -0.8852 -0.4362
37517SOL     OW22864  11.366  11.844   1.024  0.1932 -0.5212 -0.0665
37517SOL    HW122865  11.317  11.812   0.948 -0.2800 -2.0416  0.8466
37517SOL    HW222866  11.364  11.940   1.014 -0.4673 -0.6569 -1.5748
37518SOL     OW22867   2.688   0.567   2.299  0.2230 -0.1543 -0.3272
37518SOL    HW122868   2.779   0.568   2.328  0.3745  0.8072 -0.7947
37518SOL    HW222869   2.692   0.601   2.209 -0.6357  0.2254 -0.2271
37519SOL     OW22870   5.846   3.795   7.044 -0.0206 -0.5630 -0.0885
37519SOL    HW122871   5.847   3.722   6.982  2.1539  0.8929 -1.9339
37519SOL    HW222872   5.924   3.782   7.098  0.2329  0.2389 -0.2516
37520SOL     OW22873  12.800   4.396   0.557  0.9113  0.1991  0.1936
37520SOL    HW122874  12.799   4.455   0.633  0.0311  0.0829  0.2751
37520SOL    HW222875  12.823   4.310   0.594 -0.0879  0.0222  0.4271
37521SOL     OW22876   9.718   6.977   0.488  0.0162 -0.1810 -0.3850
37521SOL    HW122877   9.683   6.991   0.576  0.4578  0.2402 -0.2743
37521SOL    HW222878   9.663   7.032   0.432  0.5077  0.4955 -0.2087
37522SOL     OW22879   8.494   1.677   7.912  0.1186  0.2292  0.0923
37522SOL    HW122880   8.470   1.612   7.978  0.2977 -0.1613 -0.2193
37522SOL    HW222881   8.444   1.755   7.935 -0.7993 -0.2922 -0.0429
37523SOL     OW22882   4.485   9.575  12.568  0.0359 -0.1334  0.5290
37523SOL    HW122883   4.433   9.505  12.529  1.7225 -1.3063  0.2550
37523SOL    HW222884   4.453   9.583  12.657 -2.1644  0.8217 -0.2779
37524SOL     OW22885   5.918   9.772   4.495  0.4743 -0.3153 -0.0062
37524SOL    HW122886   5.914   9.753   4.589 -0.3496  0.1218  0.0595
37524SOL    HW222887   6.010   9.763   4.472  0.6771 -0.4602  0.8418
37525SOL     OW22888   6.175   8.616   9.731  0.0559  0.0379 -0.6752
37525SOL    HW122889   6.241   8.676   9.697  0.6369 -0.5110 -0.5481
37525SOL    HW222890   6.149   8.563   9.656 -2.6151  2.3248 -1.4876
37526SOL     OW22891   3.993   3.491   0.965 -0.1714  0.8971  0.0944
37526SOL    HW122892   3.899   3.501   0.979 -0.3613  0.5746 -0.8796
37526SOL    HW222893   4.026   3.453   1.047 -1.0231  0.2473  0.1509
37527SOL     OW22894  11.042   3.205   7.474  0.0342 -0.7670 -0.3352
37527SOL    HW122895  11.036   3.197   7.379 -1.9358  2.1695 -0.5780
37527SOL    HW222896  10.966   3.158   7.508 -0.9718  0.6413 -0.5072
37528SOL     OW22897   4.929   5.740   4.733 -0.2864 -0.2213 -0.5498
37528SOL    HW122898   4.886   5.819   4.699 -0.2627 -0.4662 -1.1627
37528SOL    HW222899   5.020   5.749   4.707  0.3723  0.9450  1.9080
37529SOL     OW22900   7.028   9.275  10.969  0.0079  0.4277 -0.5619
37529SOL    HW122901   6.941   9.258  11.006  0.6988  0.3054  1.1000
37529SOL    HW222902   7.032   9.219  10.892  0.0145 -2.5842  1.4731
37530SOL     OW22903   3.086   8.007   9.051  0.3048 -0.5461  0.3423
37530SOL    HW122904   3.169   8.053   9.045 -0.4071  0.9040  1.1086
37530SOL    HW222905   3.028   8.053   8.990  0.0346 -1.5007 -0.1380
37531SOL     OW22906   9.610   1.745  11.430  0.4495 -0.0401  0.9151
37531SOL    HW122907   9.591   1.821  11.375  1.5795 -0.6691 -0.4245
37531SOL    HW222908   9.602   1.777  11.520 -2.0358  0.8920  0.4363
37532SOL     OW22909  10.837   5.997   9.630 -0.5508 -0.5966 -0.0541
37532SOL    HW122910  10.856   6.050   9.553 -0.2660  1.2123  1.2030
37532SOL    HW222911  10.923   5.964   9.658 -0.6051 -0.9266 -0.2680
37533SOL     OW22912   0.997   6.043  11.546 -0.1197  0.2028 -0.4313
37533SOL    HW122913   0.931   6.042  11.476  0.1992  1.6824 -0.7812
37533SOL    HW222914   0.947   6.033  11.626 -0.7642  1.0422 -0.7124
37534SOL     OW22915  10.556   0.889   4.248 -0.4271  0.3866 -0.6049
37534SOL    HW122916  10.635   0.839   4.227 -0.6346 -0.6971  0.9715
37534SOL    HW222917  10.487   0.823   4.252 -1.0829  1.0779 -0.2831
37535SOL     OW22918   5.097  12.842   3.928 -0.7969  0.5023  0.0969
37535SOL    HW122919   5.033  12.861   3.860 -1.2028 -0.9731  0.0321
37535SOL    HW222920   5.045  12.834   4.008 -0.5424  0.5123  0.2651
37536SOL     OW22921   1.140  12.189   2.021  0.9344 -0.3104  0.0525
37536SOL    HW122922   1.107  12.253   2.084  0.5317 -1.1707  0.7301
37536SOL    HW222923   1.121  12.104   2.061  1.1174 -0.8616 -1.0095
37537SOL     OW22924  11.415   1.864   3.657  0.3274 -0.0626  0.0291
37537SOL    HW122925  11.359   1.787   3.665  0.8498 -0.7951 -2.4881
37537SOL    HW222926  11.494   1.832   3.612  0.6981  1.8409 -0.7900
37538SOL     OW22927  11.388   1.426   5.749  0.2142  0.0461  0.5187
37538SOL    HW122928  11.371   1.333   5.734  0.1178  0.1365  0.0676
37538SOL    HW222929  11.469   1.444   5.702  0.8349 -0.0606  1.5219
37539SOL     OW22930  11.506   8.696   6.623 -0.2930 -0.2000 -0.2124
37539SOL    HW122931  11.482   8.736   6.706  2.5597  1.0493  0.1270
37539SOL    HW222932  11.468   8.608   6.627 -0.7910  0.0473  2.0968
37540SOL     OW22933   5.258   8.793   8.966  0.6127  0.0168  0.2594
37540SOL    HW122934   5.230   8.712   9.010  2.8579 -1.6686 -1.1891
37540SOL    HW222935   5.309   8.839   9.033 -0.1151 -0.0922  0.9027
37541SOL     OW22936   9.045   0.139   2.259  0.3120 -0.3893  0.3807
37541SOL    HW122937   9.010   0.220   2.296 -0.9762 -0.1781 -1.2086
37541SOL    HW222938   8.997   0.070   2.304 -0.3740 -0.1840 -0.0375
37542SOL     OW22939   8.514  10.626   2.987  0.2726 -0.0820  0.1256
37542SOL    HW122940   8.579  10.561   2.960  0.7042  0.5242 -0.3234
37542SOL    HW222941   8.443  10.616   2.924 -0.7737 -1.7621  1.4888
37543SOL     OW22942   4.119   9.957   3.900  0.0789  0.1039  1.0620
37543SOL    HW122943   4.088   9.874   3.937 -1.9063  1.0458  1.6692
37543SOL    HW222944   4.106  10.020   3.971  2.4537  0.8135  0.9397
37544SOL     OW22945  11.329   6.587  12.167 -0.2353  0.2208 -0.5446
37544SOL    HW122946  11.270   6.641  12.114  0.3073  1.8114  0.4119
37544SOL    HW222947  11.379   6.536  12.103 -2.0837 -0.6127 -1.3994
37545SOL     OW22948   5.969   8.988   6.993 -0.1138  0.5306 -0.2948
37545SOL    HW122949   5.990   9.047   6.920 -0.9133  2.2698  0.8075
37545SOL    HW222950   5.993   9.038   7.071 -2.9320  0.3637  0.7822
37546SOL     OW22951   3.276   1.816   5.535  0.2329  0.5575  0.1379
37546SOL    HW122952   3.245   1.860   5.455 -1.8107 -0.8965  0.0628
37546SOL    HW222953   3.316   1.735   5.503 -0.3998  0.0735  0.5587
37547SOL     OW22954   9.134   5.287   2.980 -0.1734  0.0887  0.1441
37547SOL    HW122955   9.211   5.231   2.996  0.6224  0.9338 -0.5808
37547SOL    HW222956   9.139   5.307   2.886 -2.5479 -1.6490 -0.4489
37548SOL     OW22957   0.073  11.652   5.950  0.3044 -0.9469  0.5146
37548SOL    HW122958  -0.009  11.699   5.970  0.0277 -1.4052  0.4696
37548SOL    HW222959   0.115  11.705   5.882 -0.3940 -1.1870 -0.1144
37549SOL     OW22960   9.772   7.169   8.047  0.0593  0.4285 -0.3985
37549SOL    HW122961   9.722   7.105   7.996  0.6606 -0.2947 -0.1098
37549SOL    HW222962   9.862   7.137   8.044 -0.0340 -0.2737  2.0124
37550SOL     OW22963   2.090  11.706   7.754  0.0857  0.3495  0.2768
37550SOL    HW122964   2.164  11.765   7.737 -0.3275  0.8527  0.2311
37550SOL    HW222965   2.018  11.741   7.702 -0.2277 -0.0651  0.4234
37551SOL     OW22966   6.266   5.767   5.170  0.2701  0.1088  0.3463
37551SOL    HW122967   6.258   5.704   5.241  2.6602  0.1295  0.7290
37551SOL    HW222968   6.348   5.814   5.189  0.5796  0.6374 -2.0026
37552SOL     OW22969  11.174   7.506   5.569 -0.2937 -0.0834 -0.0882
37552SOL    HW122970  11.130   7.584   5.604 -0.0552  0.6514 -1.3648
37552SOL    HW222971  11.128   7.433   5.608 -0.6580  0.6973  0.9840
37553SOL     OW22972   3.799   1.162   0.991  0.3191 -0.0620 -0.3269
37553SOL    HW122973   3.855   1.098   0.947 -0.6893 -1.2097  0.0033
37553SOL    HW222974   3.759   1.211   0.919  2.1628  1.2203 -0.5705
37554SOL     OW22975   4.027   6.016  12.810  0.3059 -0.1095 -0.1463
37554SOL    HW122976   4.073   6.019  12.727  0.1609 -1.5009 -0.3010
37554SOL    HW222977   3.984   6.101  12.817  0.9878  0.3321 -1.0923
37555SOL     OW22978   6.949   7.943   8.652  0.6081  0.3240 -0.3720
37555SOL    HW122979   6.900   7.948   8.735 -0.7406 -0.8734 -1.0686
37555SOL    HW222980   6.937   8.029   8.613  1.3836  0.9623  0.7115
37556SOL     OW22981   3.903   0.181  10.199 -0.1744  0.2768  0.3478
37556SOL    HW122982   3.867   0.191  10.288 -0.3996  0.2981  0.2555
37556SOL    HW222983   3.826   0.181  10.143 -0.0237  0.3931  0.1398
37557SOL     OW22984  11.489   3.273  11.464  0.0130  0.5474 -0.0017
37557SOL    HW122985  11.475   3.216  11.539  2.7595  1.3285  1.2367
37557SOL    HW222986  11.491   3.213  11.389  0.2665 -0.6545  0.9292
37558SOL     OW22987   2.142  10.666  10.312 -0.5135  0.1263  0.0139
37558SOL    HW122988   2.225  10.671  10.264  1.3114  0.2298  2.9322
37558SOL    HW222989   2.132  10.752  10.352 -1.8077 -0.0438  0.0981
37559SOL     OW22990   5.554   2.014   8.187 -0.3112 -0.2734  0.2706
37559SOL    HW122991   5.516   1.935   8.224  1.8633 -0.8559  1.4526
37559SOL    HW222992   5.628   1.983   8.135 -0.0450  0.9177 -0.0985
37560SOL     OW22993   2.321   0.048   8.778 -0.0385 -0.0067  0.0431
37560SOL    HW122994   2.366  -0.000   8.848 -1.5783 -3.0764 -0.9301
37560SOL    HW222995   2.287   0.126   8.822  2.5663  0.3317  1.7174
37561SOL     OW22996   2.788   8.447   6.677 -0.2504  0.2870  0.5400
37561SOL    HW122997   2.834   8.526   6.705  0.2148  0.2440 -0.0844
37561SOL    HW222998   2.706   8.448   6.727 -0.6623  1.6321 -0.1236
37562SOL     OW22999  12.719   4.570   4.833 -0.0328  0.7432  0.2411
37562SOL    HW123000  12.744   4.510   4.902  2.2245 -0.8343 -1.7798
37562SOL    HW223001  12.762   4.653   4.856 -0.4984  0.6758  1.3994
37563SOL     OW23002  11.922   0.609   2.556 -0.5102 -0.3666 -0.3581
37563SOL    HW123003  11.926   0.576   2.466 -0.8820  0.1820 -0.5793
37563SOL    HW223004  11.917   0.530   2.610 -0.2619 -0.7003 -0.8139
37564SOL     OW23005   5.970   2.301   6.643  0.4467 -0.6001  0.5130
37564SOL    HW123006   5.893   2.249   6.667 -0.3624  0.0121 -0.6713
37564SOL    HW223007   5.948   2.390   6.668  0.8959 -0.4634  0.4390
37565SOL     OW23008   8.752   8.510   6.361  0.1988 -0.3764  0.3694
37565SOL    HW123009   8.766   8.601   6.388  0.2929 -0.1517 -0.4358
37565SOL    HW223010   8.811   8.496   6.287  0.5921 -1.2667  0.8262
37566SOL     OW23011   8.191   7.552   2.279  0.6374 -0.4712 -0.8519
37566SOL    HW123012   8.240   7.633   2.268 -1.3936  1.0592  0.5340
37566SOL    HW223013   8.123   7.573   2.343 -0.3542 -3.1150 -0.8794
37567SOL     OW23014  12.546   7.601  11.897  0.0190 -0.5049  0.4720
37567SOL    HW123015  12.520   7.691  11.913 -1.6562 -1.0886  1.2251
37567SOL    HW223016  12.592   7.575  11.978 -2.1549 -1.2186  1.5531
37568SOL     OW23017   9.214   7.031   1.500 -0.0246  0.2477  0.1202
37568SOL    HW123018   9.275   6.980   1.446 -2.2966 -0.5233 -1.9346
37568SOL    HW223019   9.239   7.122   1.485  0.5843 -0.0450 -0.7167
37569SOL     OW23020   3.843   7.690   2.402  0.4713  0.4151  0.2074
37569SOL    HW123021   3.782   7.764   2.398  0.8166  0.6369 -2.7502
37569SOL    HW223022   3.903   7.713   2.473 -1.3654  1.3723  1.5342
37570SOL     OW23023   3.304   9.832   5.346 -0.9030 -0.3054 -0.5932
37570SOL    HW123024   3.251   9.875   5.278 -0.3513 -0.9578 -1.4479
37570SOL    HW223025   3.393   9.832   5.311  0.0195  2.1463  1.4796
37571SOL     OW23026   0.058  12.272  11.204  0.2570  0.1435 -0.2332
37571SOL    HW123027  -0.008  12.209  11.234 -0.6537  0.7431 -0.9440
37571SOL    HW223028   0.034  12.290  11.113  1.0833  0.7817 -0.3293
37572SOL     OW23029   0.595  12.149   8.733 -0.2309  0.1199  0.5511
37572SOL    HW123030   0.659  12.085   8.702  2.5499  1.2527  3.3902
37572SOL    HW223031   0.576  12.121   8.823 -0.5338  2.1115  1.1397
37573SOL     OW23032  11.763   1.435  10.225 -0.0037 -0.2953  0.1602
37573SOL    HW123033  11.741   1.496  10.155 -0.3969  0.2438  0.7441
37573SOL    HW223034  11.846   1.468  10.261 -0.6782  0.4493  1.0788
37574SOL     OW23035   5.380   2.693  10.593 -0.6190 -0.2983  0.2633
37574SOL    HW123036   5.475   2.696  10.584 -0.5872 -2.0737 -0.4005
37574SOL    HW223037   5.365   2.649  10.677 -0.8917  0.8376  0.8393
37575SOL     OW23038   8.820   9.423  10.494 -0.8361 -0.0990  0.2472
37575SOL    HW123039   8.783   9.477  10.563  0.5557 -0.3345  1.2401
37575SOL    HW223040   8.914   9.418  10.515 -0.6835 -1.7280 -0.5877
37576SOL     OW23041   3.005   9.582   1.570  0.2977 -0.0549 -0.6432
37576SOL    HW123042   2.953   9.525   1.626 -1.7599 -0.7208 -3.0646
37576SOL    HW223043   3.082   9.530   1.548  1.3331  0.3482  1.7011
37577SOL     OW23044   6.361  11.142  11.837  0.1657  0.0414 -0.0850
37577SOL    HW123045   6.431  11.086  11.803  1.3338  1.1504  0.4040
37577SOL    HW223046   6.344  11.205  11.767  1.4624  1.3356  0.6941
37578SOL     OW23047   1.953   5.381   4.243  0.3095  0.0444 -0.5301
37578SOL    HW123048   1.941   5.428   4.325  0.9315 -0.3491 -0.2110
37578SOL    HW223049   1.907   5.435   4.178  0.7148  0.9164 -0.1123
37579SOL     OW23050   1.182   5.432  12.043 -0.4113  0.1711  0.7457
37579SOL    HW123051   1.102   5.484  12.043 -2.2106 -2.3272 -0.7915
37579SOL    HW223052   1.240   5.477  11.981 -1.4837  0.8887  0.2325
37580SOL     OW23053   4.335   6.580   1.697 -0.4464  0.6872 -0.7116
37580SOL    HW123054   4.276   6.539   1.760  0.3735  1.0018  0.2920
37580SOL    HW223055   4.298   6.667   1.683 -0.9117  0.4345 -1.0582
37581SOL     OW23056   9.153   2.093   5.030 -0.9105  0.2338 -0.0543
37581SOL    HW123057   9.206   2.026   4.987 -0.4657 -0.7666  1.9408
37581SOL    HW223058   9.188   2.176   4.997  0.8365 -0.4351 -0.0050
37582SOL     OW23059   3.361   6.953   7.910 -0.2116  0.5662  0.1011
37582SOL    HW123060   3.303   6.916   7.843  0.3356  0.5223 -0.3601
37582SOL    HW223061   3.443   6.905   7.899 -0.2441  0.2670  1.0931
37583SOL     OW23062  11.181   4.570   6.058 -0.5916  0.2514  0.1664
37583SOL    HW123063  11.162   4.618   6.139 -0.3829 -0.2934  0.5423
37583SOL    HW223064  11.103   4.584   6.004 -0.0824  1.9604 -0.2108
37584SOL     OW23065   3.898   4.426   2.029 -0.1366  0.6059 -0.4487
37584SOL    HW123066   3.911   4.436   2.123  1.2061  0.4191 -0.5994
37584SOL    HW223067   3.955   4.353   2.004 -1.5674 -0.3039 -1.1791
37585SOL     OW23068   9.634   4.025   0.309 -0.1464 -0.1509 -0.4932
37585SOL    HW123069   9.541   4.037   0.328  0.2108 -0.6700  1.8823
37585SOL    HW223070   9.668   3.979   0.386  2.5559  2.1729 -0.1491
37586SOL     OW23071   2.140   1.591   8.969 -0.0435 -0.3150  0.0842
37586SOL    HW123072   2.127   1.672   8.919 -0.3905 -0.4160  0.0100
37586SOL    HW223073   2.231   1.596   8.998 -0.3458  0.5938  0.9554
37587SOL     OW23074   9.358  10.419   3.137  0.1860 -0.2005 -0.1150
37587SOL    HW123075   9.307  10.477   3.194 -0.0269 -0.4119 -0.0932
37587SOL    HW223076   9.294  10.360   3.098  0.2216  0.4402 -1.1873
37588SOL     OW23077   6.006   8.333   6.065 -0.1377  0.1456 -0.4429
37588SOL    HW123078   6.001   8.424   6.094 -0.6965  0.3966 -1.2985
37588SOL    HW223079   5.984   8.336   5.972  1.6342 -0.6207 -0.9447
37589SOL     OW23080  10.101   8.235  11.494 -0.6160 -0.2565  0.3107
37589SOL    HW123081  10.006   8.231  11.491 -0.6281  0.0847  0.3032
37589SOL    HW223082  10.121   8.312  11.547 -0.3417  0.6647 -1.0783
37590SOL     OW23083   0.687   9.121  11.576 -0.4578  0.8328 -0.9061
37590SOL    HW123084   0.594   9.144  11.576 -0.6412  0.3471  1.1972
37590SOL    HW223085   0.731   9.197  11.615 -0.0526  0.7895 -1.2671
37591SOL     OW23086   2.486   7.900   9.626 -0.2921  0.3964  0.1749
37591SOL    HW123087   2.433   7.902   9.546 -2.0810 -0.7345  1.2583
37591SOL    HW223088   2.507   7.992   9.643 -0.3805  0.7009 -1.2556
37592SOL     OW23089   9.248   7.903   1.861 -0.4064  0.1381  0.0242
37592SOL    HW123090   9.191   7.825   1.866 -1.3707  0.5803 -2.4560
37592SOL    HW223091   9.319   7.876   1.802 -1.6704  1.5443 -2.3016
37593SOL     OW23092   0.338   1.013  11.361 -0.8634 -0.0765  0.8557
37593SOL    HW123093   0.271   0.947  11.378 -0.1738 -1.0753 -0.1336
37593SOL    HW223094   0.292   1.097  11.372 -2.7050 -0.7067 -1.2578
37594SOL     OW23095   2.492   2.062   8.612 -0.5064 -0.1408 -0.0770
37594SOL    HW123096   2.524   2.074   8.523 -0.1055 -0.5067  0.0109
37594SOL    HW223097   2.497   2.148   8.652  2.8994 -0.5641  0.7542
37595SOL     OW23098   5.059  11.437  11.293 -0.1357  0.0164  0.8874
37595SOL    HW123099   4.973  11.479  11.300  0.3763  1.2929 -0.0479
37595SOL    HW223100   5.065  11.383  11.372 -2.9963 -2.5122 -0.4295
37596SOL     OW23101  12.588   8.159   3.466 -0.0626 -0.9429 -0.1154
37596SOL    HW123102  12.682   8.163   3.485 -0.2749 -0.7488  0.9470
37596SOL    HW223103  12.581   8.094   3.396  0.6499 -2.6196  1.2950
37597SOL     OW23104   1.114  12.030   9.011  0.0570  1.0267 -0.2245
37597SOL    HW123105   1.023  12.058   8.998  0.1532  1.0900 -0.8135
37597SOL    HW223106   1.145  12.009   8.923  0.0480 -0.7773  0.1765
37598SOL     OW23107   7.119   2.752   3.568  0.1030 -0.2679 -0.0988
37598SOL    HW123108   7.149   2.734   3.657 -0.6148  1.3013  0.4890
37598SOL    HW223109   7.105   2.665   3.530  1.2135 -0.9702  1.0328
37599SOL     OW23110  11.922   5.367  10.417  0.4551  0.4039  0.5609
37599SOL    HW123111  11.952   5.294  10.471  0.2231 -1.3556 -1.5513
37599SOL    HW223112  11.950   5.344  10.329 -0.6776  2.3081 -0.3378
37600SOL     OW23113  12.286  12.082   8.251 -0.0133 -0.3025  0.4695
37600SOL    HW123114  12.299  12.062   8.344 -1.1761  1.1153  0.9860
37600SOL    HW223115  12.332  12.166   8.238  1.2142 -1.0926 -0.5792
37601SOL     OW23116   0.915   0.946  10.873  0.8043  0.3143  0.3087
37601SOL    HW123117   0.930   0.963  10.780  1.5510  2.2561  0.7442
37601SOL    HW223118   0.843   0.882  10.874  1.3329 -0.3740 -1.5932
37602SOL     OW23119   3.339   7.280   7.662 -0.1699 -0.2363 -0.1959
37602SOL    HW123120   3.308   7.356   7.711 -0.6875 -0.8831  0.4878
37602SOL    HW223121   3.398   7.318   7.596 -1.5667  0.9156 -0.8568
37603SOL     OW23122  12.433   2.196   1.971  0.6537 -0.1820  0.2053
37603SOL    HW123123  12.417   2.233   1.884 -1.2053  0.1775  0.6614
37603SOL    HW223124  12.409   2.265   2.032 -0.7276 -1.3188  1.0304
37604SOL     OW23125  10.151   1.378   7.263  0.3314  0.1416 -0.0064
37604SOL    HW123126  10.181   1.418   7.181  3.0840 -1.6565 -0.0172
37604SOL    HW223127  10.159   1.448   7.328 -1.7121  1.5373 -1.1244
37605SOL     OW23128  12.003   7.763   3.574  0.7867  0.0332 -0.5862
37605SOL    HW123129  11.986   7.847   3.617  1.2169 -0.3896  0.4475
37605SOL    HW223130  11.921   7.740   3.532  0.5182  0.7446 -0.4627
37606SOL     OW23131  12.477   2.382   5.880  1.0419 -0.0047 -0.5567
37606SOL    HW123132  12.490   2.461   5.828  0.4956 -0.9990 -2.2674
37606SOL    HW223133  12.492   2.309   5.819 -1.8416 -1.2305  0.0564
37607SOL     OW23134   4.894   0.673   9.896 -0.0477  0.2654  0.3670
37607SOL    HW123135   4.862   0.684   9.807  1.1470  0.0792 -0.1082
37607SOL    HW223136   4.942   0.590   9.894  1.6852  1.2101  0.6527
37608SOL     OW23137   3.733   0.090  10.695  0.4743  0.2094 -0.4005
37608SOL    HW123138   3.774   0.041  10.766 -0.2333 -1.2940 -0.9699
37608SOL    HW223139   3.640   0.088  10.716  0.4537  1.6796 -0.2525
37609SOL     OW23140   4.892   2.776   0.919 -0.1276  0.0580 -0.2730
37609SOL    HW123141   4.860   2.769   1.009 -1.3268 -0.6755 -0.7295
37609SOL    HW223142   4.817   2.809   0.869  0.0500 -0.9279 -1.2404
37610SOL     OW23143  10.574   1.165  12.194 -0.0832  0.0208 -0.5480
37610SOL    HW123144  10.597   1.073  12.184  2.6446  0.7111 -1.2501
37610SOL    HW223145  10.601   1.206  12.112 -3.2089  1.1815 -1.1553
37611SOL     OW23146   0.121   5.351   5.196  0.1920 -0.0605 -0.4877
37611SOL    HW123147   0.185   5.287   5.229  0.1566  0.0695 -0.1660
37611SOL    HW223148   0.046   5.298   5.169 -0.2461 -0.0795  0.7284
37612SOL     OW23149  11.294   1.194  10.094 -0.4598 -0.0289  0.3358
37612SOL    HW123150  11.354   1.155  10.030 -1.4229 -1.9674  0.5185
37612SOL    HW223151  11.346   1.260  10.140  1.4826 -1.4589  0.3210
37613SOL     OW23152   7.214  11.201   1.376 -0.3740 -0.4039 -0.1455
37613SOL    HW123153   7.300  11.202   1.419 -1.7144  1.1514  2.7475
37613SOL    HW223154   7.220  11.271   1.311  0.8448 -0.9918 -0.7010
37614SOL     OW23155   6.528   0.361   9.681  0.2263  0.1026  0.1114
37614SOL    HW123156   6.554   0.433   9.739  1.0327 -1.3379  1.6448
37614SOL    HW223157   6.433   0.356   9.690  0.2719  0.3350  0.8288
37615SOL     OW23158   4.461   3.723   5.509  0.8941  0.2854  0.0446
37615SOL    HW123159   4.467   3.809   5.468  0.0650  0.0745 -0.5665
37615SOL    HW223160   4.473   3.661   5.437  0.4138 -0.0982  0.2833
37616SOL     OW23161  10.966  11.237  10.470  0.5840 -0.0077  0.1520
37616SOL    HW123162  10.950  11.279  10.555  1.0046 -0.8395  0.6621
37616SOL    HW223163  10.939  11.301  10.405 -1.9850 -0.2064  0.9252
37617SOL     OW23164  11.643   9.160   0.446 -0.7284  0.5268 -0.3734
37617SOL    HW123165  11.578   9.223   0.416 -0.1462  1.7024  0.7217
37617SOL    HW223166  11.669   9.192   0.533  1.7127  0.4125 -0.9980
37618SOL     OW23167   1.584  10.974   9.149  0.5552 -0.5483 -0.0588
37618SOL    HW123168   1.665  10.936   9.183  0.1258 -0.7112  0.8203
37618SOL    HW223169   1.547  10.906   9.092  1.7883  0.1099 -1.7143
37619SOL     OW23170  11.044  10.970   0.367 -0.7975 -0.2669 -0.6516
37619SOL    HW123171  11.018  10.993   0.457  0.2996  0.1712 -0.4292
37619SOL    HW223172  10.963  10.942   0.325 -1.6351  1.1218 -0.0148
37620SOL     OW23173   1.211   0.725   6.405 -0.0008  0.3983  0.1855
37620SOL    HW123174   1.217   0.809   6.359  1.2426 -0.5124 -1.4321
37620SOL    HW223175   1.134   0.684   6.368  0.2770  0.1981 -0.1834
37621SOL     OW23176   9.215   7.911  10.584 -0.0845  0.1738  0.0014
37621SOL    HW123177   9.299   7.865  10.582  0.3644  0.9794 -0.4698
37621SOL    HW223178   9.236   8.000  10.554 -1.5107 -0.2983 -2.6960
37622SOL     OW23179   0.342   1.427   7.573  0.1707  0.3129 -0.2050
37622SOL    HW123180   0.323   1.386   7.657  0.9891 -0.5687 -0.4363
37622SOL    HW223181   0.332   1.356   7.509  1.0290  0.6136 -0.6840
37623SOL     OW23182   0.522   9.092   8.510  0.0147 -0.2156  0.3702
37623SOL    HW123183   0.526   9.171   8.456  2.1688 -1.1268 -0.9270
37623SOL    HW223184   0.611   9.080   8.542 -0.6329 -1.2468  1.9256
37624SOL     OW23185  10.124   3.628   8.416  0.1339 -0.2061 -0.1152
37624SOL    HW123186  10.080   3.633   8.501  1.5946  1.6600  0.6156
37624SOL    HW223187  10.196   3.691   8.423 -1.1779  2.0085 -3.5906
37625SOL     OW23188   9.263   1.899   9.725 -0.8968 -0.2002 -0.0055
37625SOL    HW123189   9.210   1.854   9.791 -0.6613 -2.4794 -1.2464
37625SOL    HW223190   9.213   1.889   9.644  0.5389 -0.8532 -0.8658
37626SOL     OW23191   6.772   8.021   4.161 -0.2102  0.3075  0.2126
37626SOL    HW123192   6.706   8.089   4.165  0.3936  0.8963  0.3493
37626SOL    HW223193   6.725   7.940   4.182 -1.5292  0.2345 -2.5746
37627SOL     OW23194   2.244   7.480  10.100  0.1729  0.5862  0.0142
37627SOL    HW123195   2.157   7.476  10.141 -0.3956 -2.2970 -1.2003
37627SOL    HW223196   2.225   7.487  10.006  1.2920  0.8726 -0.1978
37628SOL     OW23197   0.784   4.657   4.915  0.0799  0.1532  0.0832
37628SOL    HW123198   0.854   4.671   4.850  0.2462  2.1819  0.6330
37628SOL    HW223199   0.736   4.740   4.917 -0.5755 -0.2236  1.7791
37629SOL     OW23200  10.376   3.145  10.338 -0.1196 -0.7820 -0.5571
37629SOL    HW123201  10.425   3.180  10.264  0.2214 -1.4191 -0.6389
37629SOL    HW223202  10.339   3.063  10.305  0.1466 -1.1363  0.0219
37630SOL     OW23203  11.792   4.914   4.209 -0.3920 -0.5716 -0.0623
37630SOL    HW123204  11.747   4.829   4.217 -2.5149  0.3607 -1.2690
37630SOL    HW223205  11.772   4.959   4.291 -0.6255 -0.6375 -0.0806
37631SOL     OW23206   8.657   4.641   7.667  0.2270  0.1109  0.5663
37631SOL    HW123207   8.719   4.654   7.739  1.4813  1.1568 -0.6483
37631SOL    HW223208   8.704   4.587   7.605 -0.0799  0.8666 -0.3473
37632SOL     OW23209  11.957   8.015   0.295 -0.0111 -0.3993  0.2730
37632SOL    HW123210  11.899   8.068   0.350  0.5431  1.3566 -0.7241
37632SOL    HW223211  11.920   8.023   0.207  0.7326 -0.7303 -0.0793
37633SOL     OW23212   4.737   7.684   7.627 -0.4486  0.0831  0.3162
37633SOL    HW123213   4.736   7.748   7.698 -1.0361 -1.0979  1.4042
37633SOL    HW223214   4.645   7.663   7.612 -0.2744 -0.3400 -0.1916
37634SOL     OW23215   8.590   1.944   0.949  0.2782 -0.4122 -0.2960
37634SOL    HW123216   8.661   1.954   1.012 -0.0186 -0.3083  0.0285
37634SOL    HW223217   8.617   1.997   0.873  0.2379  0.1829  0.0981
37635SOL     OW23218   0.444   8.509  12.385  0.4259  0.3134 -0.3317
37635SOL    HW123219   0.475   8.574  12.321 -0.6510 -0.1390 -1.3375
37635SOL    HW223220   0.524   8.469  12.418  1.0515  1.2154 -0.6894
37636SOL     OW23221  10.748   8.780   6.503  0.4244 -0.0300  0.2056
37636SOL    HW123222  10.709   8.867   6.500  0.4607 -0.0322 -1.8225
37636SOL    HW223223  10.792   8.771   6.419 -0.9822 -2.6429 -0.3522
37637SOL     OW23224   5.978   1.000   0.389 -0.1826  0.1581  0.0048
37637SOL    HW123225   6.025   0.930   0.435  2.9563  0.9306 -1.7577
37637SOL    HW223226   5.918   0.954   0.330  1.1400 -1.0333 -0.4433
37638SOL     OW23227   6.012   0.612   3.883  0.5689 -0.7334  0.1857
37638SOL    HW123228   6.038   0.600   3.974 -0.8173  0.3972  0.7681
37638SOL    HW223229   5.931   0.663   3.887  2.3761  2.7218 -1.7387
37639SOL     OW23230   9.943   3.873   8.867  0.2211 -0.2056 -0.2647
37639SOL    HW123231   9.957   3.871   8.962 -0.9223  2.0852  0.0203
37639SOL    HW223232  10.030   3.859   8.830  0.9090  0.1023  1.1521
37640SOL     OW23233   4.399   1.437   5.850 -0.0693 -0.7498  0.4928
37640SOL    HW123234   4.333   1.495   5.888 -0.1408 -0.8455  0.5118
37640SOL    HW223235   4.418   1.373   5.918 -0.1085 -0.8479  0.4107
37641SOL     OW23236   6.262   8.120   2.977 -0.5840  0.1033  0.2367
37641SOL    HW123237   6.312   8.038   2.976  0.5853  0.7727 -1.5262
37641SOL    HW223238   6.317   8.180   3.027 -0.7793  0.1825  0.3532
37642SOL     OW23239   8.822   9.419   6.038  0.2913  0.2095  0.6568
37642SOL    HW123240   8.869   9.336   6.047 -0.5939 -0.3825 -0.0223
37642SOL    HW223241   8.888   9.486   6.054  0.5668 -0.6149  3.5367
37643SOL     OW23242   6.884   1.490  12.754 -0.4235  0.5191  0.1583
37643SOL    HW123243   6.808   1.447  12.792 -1.5525  0.8407 -1.6112
37643SOL    HW223244   6.848   1.563  12.703  1.0511  0.6522 -0.7722
37644SOL     OW23245  12.222   2.826  10.983  0.1737  0.1008 -0.3409
37644SOL    HW123246  12.136   2.782  10.987  0.7541 -0.9736  1.1631
37644SOL    HW223247  12.241   2.830  10.889 -2.1569  1.7251 -0.8486
37645SOL     OW23248   7.557   0.253   7.889  0.4424  0.2939  0.0096
37645SOL    HW123249   7.616   0.297   7.828  0.4754 -1.3611 -1.2034
37645SOL    HW223250   7.526   0.176   7.842 -0.0980 -0.6599  1.8331
37646SOL     OW23251   5.472  10.171   9.471  0.0143  0.4594 -0.5503
37646SOL    HW123252   5.535  10.141   9.536 -1.2731  1.0655  1.0363
37646SOL    HW223253   5.504  10.258   9.445 -0.3449  0.9347  0.5447
37647SOL     OW23254  10.115   5.630   3.791  0.1935 -0.0887 -0.3016
37647SOL    HW123255  10.058   5.558   3.763 -0.0615 -0.1583  0.3719
37647SOL    HW223256  10.155   5.599   3.872  0.4324  0.3508 -0.2486
37648SOL     OW23257   0.775   1.492  12.877  0.2516 -0.0960  0.3786
37648SOL    HW123258   0.702   1.504  12.816  0.0530  2.7420  1.0445
37648SOL    HW223259   0.738   1.442  12.949 -0.7436  0.3655  0.2058
37649SOL     OW23260  12.489   0.641   9.136  0.2680 -0.2114 -0.2905
37649SOL    HW123261  12.489   0.579   9.209 -0.4718  1.8676  1.5902
37649SOL    HW223262  12.582   0.654   9.116  0.4316 -2.2039 -1.0608
37650SOL     OW23263  11.535  10.676   0.893 -0.3161 -0.3759 -0.2371
37650SOL    HW123264  11.517  10.598   0.840  0.1743 -0.2770 -0.5535
37650SOL    HW223265  11.472  10.741   0.863  0.2542 -0.1730 -1.0299
37651SOL     OW23266   0.321   4.922   8.933  0.2383 -0.5551  0.0449
37651SOL    HW123267   0.330   4.930   9.028 -0.6251  1.7745 -0.0067
37651SOL    HW223268   0.402   4.879   8.905  1.5621  0.7591  1.6251
37652SOL     OW23269  10.235  11.522   9.832 -0.2004 -0.2808  0.1732
37652SOL    HW123270  10.148  11.511   9.870 -0.6506  0.3005 -0.6550
37652SOL    HW223271  10.243  11.448   9.771  0.7057 -1.4807  1.6701
37653SOL     OW23272   0.137   1.585   2.110 -0.3315  0.0818 -0.0272
37653SOL    HW123273   0.179   1.647   2.050  1.6105  0.0492  1.2163
37653SOL    HW223274   0.065   1.635   2.149  1.0171  1.5151  0.7356
37654SOL     OW23275   3.587  10.414  12.965 -0.4732  0.1003  0.0287
37654SOL    HW123276   3.538  10.496  12.972 -0.1666  0.2441  0.5485
37654SOL    HW223277   3.590  10.380  13.054 -0.2729 -0.2876 -0.1217
37655SOL     OW23278   4.198   4.383   8.421  0.1680 -0.4052 -0.0058
37655SOL    HW123279   4.288   4.376   8.453  0.4609  2.6519  0.1044
37655SOL    HW223280   4.191   4.314   8.355  1.3726 -3.0882  2.3990
37656SOL     OW23281   4.344   6.456   3.581 -0.4563 -0.0256  0.4939
37656SOL    HW123282   4.314   6.539   3.545  1.0854  0.2666 -0.2263
37656SOL    HW223283   4.400   6.480   3.655  2.4763 -0.1418 -1.5105
37657SOL     OW23284   5.910  12.373  11.984 -0.1716 -0.5468 -0.0872
37657SOL    HW123285   5.826  12.355  11.942 -0.2709  0.8453 -0.5564
37657SOL    HW223286   5.886  12.415  12.067  0.0545  0.0915 -0.3421
37658SOL     OW23287   9.567  10.107  12.391  0.9558 -0.1016 -0.3376
37658SOL    HW123288   9.546  10.186  12.441 -0.4054  0.8625 -2.3064
37658SOL    HW223289   9.531  10.123  12.304  0.3482 -3.0229 -0.7398
37659SOL     OW23290   5.059  11.496   7.017 -0.2470 -0.2325  0.0329
37659SOL    HW123291   5.012  11.549   7.082 -0.5590  0.3908 -0.6914
37659SOL    HW223292   4.999  11.491   6.943  0.9055  0.7640 -1.0060
37660SOL     OW23293   3.541   6.187  12.031 -0.0493  0.0121  0.0451
37660SOL    HW123294   3.507   6.276  12.042 -0.1269  0.0290 -0.2961
37660SOL    HW223295   3.464   6.133  12.015  0.1425  0.2842 -2.1752
37661SOL     OW23296   6.568   3.680   2.487 -0.2080  0.0642  0.0166
37661SOL    HW123297   6.525   3.647   2.408  0.5232 -0.8783  0.0001
37661SOL    HW223298   6.657   3.700   2.460 -0.2250  0.6795  0.3850
37662SOL     OW23299   0.386   4.998  11.364  0.0261  0.2907  0.0646
37662SOL    HW123300   0.382   5.094  11.362 -1.2274  0.2493 -0.3264
37662SOL    HW223301   0.295   4.970  11.351  0.4395 -0.9597 -0.2541
37663SOL     OW23302   0.444  10.500   2.168 -0.2576  0.8164 -0.2926
37663SOL    HW123303   0.443  10.486   2.073 -2.3477 -0.1833 -0.1911
37663SOL    HW223304   0.504  10.573   2.181  0.3129  0.7787 -2.3514
37664SOL     OW23305  11.223  12.413   1.885  0.3680 -0.5214  0.0335
37664SOL    HW123306  11.297  12.468   1.910 -0.2401  0.8678 -1.0923
37664SOL    HW223307  11.161  12.422   1.958  1.2240 -1.6140  0.9370
37665SOL     OW23308   8.336  11.471   8.173  0.4301  0.0194 -0.1931
37665SOL    HW123309   8.361  11.504   8.259  0.6863 -0.7408  0.0328
37665SOL    HW223310   8.403  11.405   8.152  1.0473  0.9933 -1.4860
37666SOL     OW23311  12.090   1.217   9.711  0.9801 -0.0757 -0.3108
37666SOL    HW123312  12.072   1.123   9.717  0.6090  0.0551  0.9674
37666SOL    HW223313  12.177   1.227   9.751  0.9145  0.1515 -0.2217
37667SOL     OW23314   2.670   1.004   6.322 -1.0521  0.3354 -0.3388
37667SOL    HW123315   2.613   0.984   6.248 -1.7448 -0.5845  0.4033
37667SOL    HW223316   2.718   1.082   6.296  0.0104 -0.9530 -2.4717
37668SOL     OW23317   8.857  11.827   7.787 -1.0508 -0.2579  0.2114
37668SOL    HW123318   8.817  11.888   7.725  0.4335  0.4088 -0.1188
37668SOL    HW223319   8.838  11.740   7.750 -1.6399  0.0588 -0.2594
37669SOL     OW23320  11.145  12.121   1.633  0.1763  0.1350 -0.2653
37669SOL    HW123321  11.207  12.147   1.700  1.7789 -0.0011 -1.6256
37669SOL    HW223322  11.199  12.106   1.555 -1.3484 -1.6723 -1.0515
37670SOL     OW23323   6.774   9.553   9.711  0.3750  0.2740 -0.5377
37670SOL    HW123324   6.837   9.484   9.690  0.7370  0.0967  1.0523
37670SOL    HW223325   6.807   9.630   9.665  0.6941 -0.2711 -1.2477
37671SOL     OW23326  10.463   6.569  10.489  0.1372 -0.1738  0.3096
37671SOL    HW123327  10.399   6.640  10.504  1.6806  1.4794 -0.5294
37671SOL    HW223328  10.425   6.517  10.419 -0.3372  0.7553 -0.1461
37672SOL     OW23329   8.566   9.753   1.416 -0.1719 -0.1333  0.0783
37672SOL    HW123330   8.615   9.784   1.493 -0.3015 -1.8988  0.9261
37672SOL    HW223331   8.475   9.771   1.438 -0.1348  0.3252 -0.1356
37673SOL     OW23332   1.729   5.873   2.947  1.0425 -0.1573  0.2986
37673SOL    HW123333   1.724   5.909   3.036  0.9247 -1.3628  0.8028
37673SOL    HW223334   1.640   5.881   2.913  1.1209  0.4456  0.2324
37674SOL     OW23335   1.007   7.256   5.075  0.1620 -0.1968 -0.2609
37674SOL    HW123336   1.071   7.208   5.023  0.9433  1.8731 -1.3607
37674SOL    HW223337   0.923   7.239   5.032 -0.0020 -2.5052  0.8737
37675SOL     OW23338   1.869   6.278   7.521  0.4399  0.0750  0.3883
37675SOL    HW123339   1.824   6.340   7.579  0.2700  0.0831  0.2477
37675SOL    HW223340   1.803   6.254   7.456  1.1019  1.3455 -0.7993
37676SOL     OW23341   8.437   0.721  12.734  0.2735 -0.1959  0.0492
37676SOL    HW123342   8.351   0.761  12.742  1.2532  2.2066 -0.3317
37676SOL    HW223343   8.472   0.719  12.823  1.7496  3.7558 -0.2521
37677SOL     OW23344   6.847  11.870   4.307 -0.3127 -0.6940  0.0659
37677SOL    HW123345   6.856  11.851   4.213  0.8597 -0.4395  0.1126
37677SOL    HW223346   6.842  11.965   4.311 -3.0893 -0.7616  0.0777
37678SOL     OW23347   2.956  11.582   5.676 -0.3499 -1.2809 -0.4835
37678SOL    HW123348   2.987  11.564   5.587  1.8468  1.5189 -0.4282
37678SOL    HW223349   2.909  11.665   5.669 -1.0624 -1.5408  0.8273
37679SOL     OW23350   5.323  11.684   6.351 -0.2303  0.1008  0.0163
37679SOL    HW123351   5.287  11.771   6.335 -1.3058 -0.4897 -0.8971
37679SOL    HW223352   5.253  11.637   6.397  0.5499 -0.1233  1.0114
37680SOL     OW23353  12.730   4.705   0.769  0.3967 -0.7772  0.1734
37680SOL    HW123354  12.720   4.761   0.693 -2.6229  0.5226  1.3767
37680SOL    HW223355  12.807   4.739   0.814 -0.5622  1.6127  0.1511
37681SOL     OW23356   2.883   5.820  12.444  0.2366  1.0226 -0.5543
37681SOL    HW123357   2.867   5.908  12.412  0.8624  1.1640 -0.4978
37681SOL    HW223358   2.966   5.795  12.404  0.0583  0.4561 -0.5791
37682SOL     OW23359   5.643  10.766   6.140  0.0851 -0.1436  0.2758
37682SOL    HW123360   5.587  10.836   6.107  0.4758 -0.5630 -1.3891
37682SOL    HW223361   5.714  10.812   6.186 -0.8166  0.4393  1.1119
37683SOL     OW23362   3.822  12.655   4.419  0.1769 -0.2423 -0.6400
37683SOL    HW123363   3.769  12.628   4.494  0.7833  0.8270  0.2000
37683SOL    HW223364   3.758  12.686   4.355 -0.3973 -1.8085 -0.8790
37684SOL     OW23365   7.456   0.692   6.816  0.3795 -0.0988 -0.1008
37684SOL    HW123366   7.506   0.732   6.745  1.8142 -0.9591  0.3824
37684SOL    HW223367   7.469   0.598   6.805 -0.4216 -0.2988  0.5665
37685SOL     OW23368   8.096   1.539   4.957  0.3243  0.5308  0.1076
37685SOL    HW123369   8.127   1.522   5.045  1.1139 -2.1498 -0.5975
37685SOL    HW223370   8.114   1.632   4.943 -1.3046  1.4712  3.2604
37686SOL     OW23371   1.320  10.577   5.938 -0.3259  0.1761 -0.1011
37686SOL    HW123372   1.344  10.504   5.995  0.5578 -1.3091 -2.2509
37686SOL    HW223373   1.229  10.559   5.914 -1.0997  1.4265  1.6201
37687SOL     OW23374   1.187   6.156   3.233 -0.2126  0.1680  0.1342
37687SOL    HW123375   1.271   6.188   3.267 -0.4347 -0.4053  1.2605
37687SOL    HW223376   1.122   6.214   3.273 -0.4143  0.1015 -0.0969
37688SOL     OW23377   5.874  10.755   2.278  0.8417 -0.3411 -0.7537
37688SOL    HW123378   5.798  10.737   2.333  0.5970 -0.8179 -1.2400
37688SOL    HW223379   5.944  10.703   2.317  0.7758 -0.3519 -0.6482
37689SOL     OW23380   3.848   1.167   9.809  0.3742  0.1965  0.0575
37689SOL    HW123381   3.832   1.250   9.764 -1.0708  1.5771  2.8625
37689SOL    HW223382   3.931   1.181   9.855  1.1291 -0.6907 -0.9773
37690SOL     OW23383   3.731  11.497  11.393 -0.1681 -0.2508 -0.0300
37690SOL    HW123384   3.669  11.569  11.404 -1.1243 -0.8139 -1.4836
37690SOL    HW223385   3.784  11.522  11.317  0.7286 -0.2562  0.5726
37691SOL     OW23386   8.655   0.209   9.710  0.0501 -0.4472  0.1950
37691SOL    HW123387   8.735   0.205   9.658  0.5437  1.9336  0.6616
37691SOL    HW223388   8.584   0.210   9.645  0.5609  0.5251 -0.3692
37692SOL     OW23389  10.751  10.569   4.335  0.4261 -0.3367  0.0347
37692SOL    HW123390  10.843  10.595   4.332  1.5282 -3.3493  2.0075
37692SOL    HW223391  10.718  10.607   4.416  0.9303 -1.7715  0.9550
37693SOL     OW23392  11.761   6.365   8.725  0.5325 -0.3144 -0.0122
37693SOL    HW123393  11.685   6.322   8.685 -0.9282  2.3926 -0.4276
37693SOL    HW223394  11.824   6.375   8.653 -0.0077  0.0934 -0.4422
37694SOL     OW23395   9.599   7.907   3.123  0.6516  0.1891  0.0830
37694SOL    HW123396   9.609   7.965   3.198 -0.5142 -0.0768  0.4684
37694SOL    HW223397   9.542   7.955   3.063  0.8410  0.0282 -0.2290
37695SOL     OW23398   5.015   1.250  11.351  0.5701  0.1617  0.4993
37695SOL    HW123399   5.007   1.198  11.430  0.9554  1.6519  1.5612
37695SOL    HW223400   5.108   1.271  11.345  0.4541  0.5522 -0.0206
37696SOL     OW23401   5.664   0.435   5.621  0.2158  0.2561 -0.2324
37696SOL    HW123402   5.609   0.391   5.686  1.6888 -1.6527 -0.1995
37696SOL    HW223403   5.737   0.470   5.672  0.8563 -0.3725 -0.7045
37697SOL     OW23404   0.540   4.869   9.753  0.0231 -0.1015  0.2303
37697SOL    HW123405   0.576   4.801   9.696 -0.3382 -0.2443  0.1711
37697SOL    HW223406   0.563   4.951   9.710 -1.0286 -0.2211 -0.6128
37698SOL     OW23407   4.134  12.262   9.677  0.0551  0.0688  0.2740
37698SOL    HW123408   4.227  12.258   9.700  0.4884  1.9761 -0.9219
37698SOL    HW223409   4.117  12.180   9.632  0.6762 -1.1097  2.0931
37699SOL     OW23410   0.604  11.668   3.072 -0.2639  0.1562 -0.0138
37699SOL    HW123411   0.511  11.649   3.078 -0.7124  2.3347  0.9648
37699SOL    HW223412   0.610  11.733   3.002  0.5844 -0.2618 -0.3415
37700SOL     OW23413   5.219   9.635   9.119  0.1382  0.1785 -0.2309
37700SOL    HW123414   5.236   9.626   9.025  3.3840 -1.9180  0.4250
37700SOL    HW223415   5.145   9.576   9.135  2.0475 -2.6128 -0.9685
37701SOL     OW23416   8.422   8.308   3.427 -0.1377  0.2911 -0.4154
37701SOL    HW123417   8.386   8.290   3.514  0.3193 -0.6741 -0.4154
37701SOL    HW223418   8.345   8.324   3.373 -0.3849  2.5659  0.4777
37702SOL     OW23419   9.955   4.729   9.925  0.2269 -0.9065 -0.2979
37702SOL    HW123420   9.949   4.636   9.945 -0.4780 -0.8555 -0.2676
37702SOL    HW223421  10.025   4.761   9.982 -0.6646 -1.0869  0.9233
37703SOL     OW23422  12.984   5.083   4.216 -0.3654  0.4322 -0.2693
37703SOL    HW123423  12.896   5.093   4.252 -0.3238  0.4108 -0.1624
37703SOL    HW223424  13.036   5.049   4.288  0.0294  1.6732  0.0564
37704SOL     OW23425  12.911   8.164   9.198  0.7137  0.3595 -0.0073
37704SOL    HW123426  12.960   8.243   9.221  0.5052 -0.0437  1.9747
37704SOL    HW223427  12.830   8.170   9.249  1.0471 -1.5174  0.8104
37705SOL     OW23428   1.810   7.451   3.260 -0.1213  0.4426  0.6289
37705SOL    HW123429   1.862   7.523   3.295 -1.8460  1.8366  0.4692
37705SOL    HW223430   1.809   7.466   3.166  0.8060 -0.7352  0.4042
37706SOL     OW23431   0.638   5.938   0.261  0.0018  0.0951  0.2250
37706SOL    HW123432   0.556   5.939   0.210 -0.6181 -0.2720  1.1949
37706SOL    HW223433   0.704   5.968   0.199 -1.0793  1.7104 -0.2281
37707SOL     OW23434   7.163   7.971   5.571 -0.2815 -0.1361 -0.1752
37707SOL    HW123435   7.102   7.907   5.535 -1.1398  0.7275 -0.3139
37707SOL    HW223436   7.194   7.932   5.652 -1.9483 -0.0978  0.5162
37708SOL     OW23437   4.915   2.299   0.140  0.3186  0.4800  0.3649
37708SOL    HW123438   4.889   2.367   0.078 -1.1538 -0.1728  0.2174
37708SOL    HW223439   4.886   2.331   0.225 -0.9655 -0.2186  0.2107
37709SOL     OW23440  11.465   5.013   8.360 -0.2067  0.0558 -0.3610
37709SOL    HW123441  11.456   5.012   8.265 -1.1021 -0.9497 -0.2833
37709SOL    HW223442  11.486   4.923   8.383 -0.7356  0.1325  0.4603
37710SOL     OW23443   9.667   4.662   5.264 -0.3407 -0.1164  0.4770
37710SOL    HW123444   9.743   4.677   5.207 -0.0293 -0.4094  0.8095
37710SOL    HW223445   9.607   4.734   5.243 -0.8918 -1.0433 -1.2991
37711SOL     OW23446   2.755   7.889   8.799 -0.4184  0.6727  0.5989
37711SOL    HW123447   2.834   7.885   8.853 -0.1800  1.5611  0.3306
37711SOL    HW223448   2.712   7.805   8.814 -0.1507  0.7387  1.8502
37712SOL     OW23449   4.919   8.522   4.506  0.2365  0.0480 -0.0261
37712SOL    HW123450   4.904   8.600   4.558 -1.4916 -0.1263 -0.1824
37712SOL    HW223451   4.998   8.483   4.542  0.7523  1.5139  0.4754
37713SOL     OW23452   4.925  11.335   4.096  0.2157 -0.0882 -0.4960
37713SOL    HW123453   4.968  11.336   4.010  0.0709 -1.0511 -0.5939
37713SOL    HW223454   4.872  11.256   4.094 -0.1235  0.1181  0.3279
37714SOL     OW23455   5.548  10.696   9.332 -0.0893 -0.3386 -1.0056
37714SOL    HW123456   5.472  10.708   9.388  0.6970  0.1949 -0.0312
37714SOL    HW223457   5.570  10.603   9.340  0.3404 -0.1659  0.0252
37715SOL     OW23458   5.340  12.381   8.087 -0.0760  0.4913 -0.5520
37715SOL    HW123459   5.345  12.475   8.105 -1.2669  0.5571 -0.5121
37715SOL    HW223460   5.430  12.357   8.064  0.7466  1.1861  1.6485
37716SOL     OW23461   7.982  12.986   3.439 -0.0344 -0.4414 -0.3216
37716SOL    HW123462   8.032  12.972   3.359  0.3540 -0.7307 -0.0294
37716SOL    HW223463   8.014  12.920   3.500  1.3328  1.1965  0.8514
37717SOL     OW23464   3.259   5.272   6.501  0.0142  0.1024 -0.1176
37717SOL    HW123465   3.266   5.178   6.519  0.9133  0.2987  0.5879
37717SOL    HW223466   3.231   5.311   6.584 -0.4954  0.4558 -0.4454
37718SOL     OW23467  12.341   7.490   2.459 -0.7253  0.7869 -0.3485
37718SOL    HW123468  12.264   7.546   2.475 -0.9366  0.2495  0.5699
37718SOL    HW223469  12.307   7.401   2.467 -0.3994  0.4993 -1.8516
37719SOL     OW23470   5.715  10.339   2.956 -0.3219  0.0066 -0.0985
37719SOL    HW123471   5.646  10.281   2.924 -0.1182  0.7167 -1.9357
37719SOL    HW223472   5.788  10.280   2.977 -1.3359 -0.7172  1.5985
37720SOL     OW23473  12.794  11.417   1.622 -0.2180 -0.2052  0.2438
37720SOL    HW123474  12.885  11.434   1.648 -0.4926 -1.0038  1.8616
37720SOL    HW223475  12.785  11.459   1.537  1.6441 -0.0384  0.0898
37721SOL     OW23476   1.085   7.992   4.623  0.4704 -0.2620  0.0581
37721SOL    HW123477   1.024   7.931   4.664  0.4823 -1.3202 -1.4039
37721SOL    HW223478   1.029   8.065   4.595  0.1722 -0.3726  0.3537
37722SOL     OW23479   5.766  12.593   2.529  0.2467  0.1302 -0.3913
37722SOL    HW123480   5.848  12.554   2.498 -0.1097 -0.4014 -0.6994
37722SOL    HW223481   5.754  12.557   2.617  0.4956  0.4427 -0.2311
37723SOL     OW23482  11.717   1.095   3.638  0.0656 -0.5388 -0.0510
37723SOL    HW123483  11.697   1.069   3.728 -2.2810 -0.2478 -0.4085
37723SOL    HW223484  11.752   1.183   3.645  0.5759 -0.7900  0.6185
37724SOL     OW23485   8.178   1.768   1.895 -0.2290 -0.4468  0.4401
37724SOL    HW123486   8.182   1.861   1.876 -0.4421 -0.5514 -0.1553
37724SOL    HW223487   8.255   1.750   1.948  0.1647 -0.0562  0.0055
37725SOL     OW23488   2.912   8.924   2.838  0.5744 -0.1483 -0.4694
37725SOL    HW123489   2.852   8.863   2.882 -0.0534 -0.9626 -2.3503
37725SOL    HW223490   2.967   8.869   2.783  1.2697  0.8359 -0.7994
37726SOL     OW23491  12.725   5.560  12.293 -0.6077 -0.4043  0.4339
37726SOL    HW123492  12.810   5.525  12.266 -1.1311 -2.4178  1.1928
37726SOL    HW223493  12.683   5.586  12.211 -0.1775 -1.6335 -0.2092
37727SOL     OW23494   0.406   2.061  11.925  0.0260 -0.0749 -0.3115
37727SOL    HW123495   0.441   2.150  11.921 -1.1148  0.4161  0.2422
37727SOL    HW223496   0.436   2.020  11.844  0.5444  0.8085 -0.5890
37728SOL     OW23497   0.036   1.881  10.306 -0.5828  0.0935 -0.3962
37728SOL    HW123498   0.130   1.901  10.309 -0.6390  0.2521  2.3129
37728SOL    HW223499  -0.005   1.947  10.361 -2.0206 -1.2539  0.2310
37729SOL     OW23500   7.885   7.867   3.427 -0.4922 -0.2163 -0.2691
37729SOL    HW123501   7.792   7.856   3.444 -0.5006  0.9766  0.6053
37729SOL    HW223502   7.902   7.814   3.349 -1.7964 -0.8084 -0.1703
37730SOL     OW23503   6.086   7.572   0.694 -0.1622  0.3214 -0.0448
37730SOL    HW123504   6.096   7.602   0.785  1.7047  2.1610 -0.7733
37730SOL    HW223505   6.174   7.545   0.668 -0.5789  0.2665 -1.4480
37731SOL     OW23506   4.466   9.339   5.126  0.7740 -0.1751  0.0863
37731SOL    HW123507   4.404   9.289   5.073  0.0875  0.5455  0.2043
37731SOL    HW223508   4.467   9.294   5.211 -0.2951  0.3542  0.3862
37732SOL     OW23509   5.186   4.823   0.299 -0.5191 -0.1158  0.7494
37732SOL    HW123510   5.209   4.732   0.277  0.0937  0.2335 -0.1230
37732SOL    HW223511   5.124   4.848   0.230  1.9165  1.2116 -1.1425
37733SOL     OW23512   3.409   0.258   4.213 -0.1619 -0.1124 -0.0604
37733SOL    HW123513   3.348   0.332   4.220 -1.0326 -0.8104 -0.0146
37733SOL    HW223514   3.398   0.211   4.296 -1.1355 -1.4192 -0.9020
37734SOL     OW23515   4.584   1.503   8.707 -0.5188  0.8956 -0.1894
37734SOL    HW123516   4.529   1.502   8.628  1.2310 -0.3354 -1.4807
37734SOL    HW223517   4.548   1.434   8.762  0.2120 -0.5457 -1.4349
37735SOL     OW23518   6.433   7.757   3.358  0.0583  0.4804  0.0960
37735SOL    HW123519   6.471   7.845   3.358 -0.3986  0.6795  0.0282
37735SOL    HW223520   6.380   7.754   3.437  1.6158 -0.4237  1.1614
37736SOL     OW23521   5.179   2.545   2.049 -0.2987 -0.1067 -0.0899
37736SOL    HW123522   5.147   2.461   2.082  1.2381 -1.4080 -1.7165
37736SOL    HW223523   5.103   2.585   2.007 -0.7855 -1.2190 -0.3033
37737SOL     OW23524   3.818   0.607   8.245  0.0432  0.6664 -0.7100
37737SOL    HW123525   3.892   0.639   8.193  0.0569  0.3690 -0.8743
37737SOL    HW223526   3.793   0.682   8.300  0.9168  0.5509 -0.1376
37738SOL     OW23527  12.364   5.182   0.304 -0.5430 -0.0074  0.0738
37738SOL    HW123528  12.294   5.191   0.368  0.7936 -0.5594  1.6837
37738SOL    HW223529  12.320   5.154   0.223 -2.2691  0.7372  0.7007
37739SOL     OW23530  11.598  12.052   5.191 -0.0104  0.0328  0.3418
37739SOL    HW123531  11.545  12.094   5.123 -1.7733  1.2404  2.3521
37739SOL    HW223532  11.554  11.968   5.207 -0.6155  0.4971  1.1553
37740SOL     OW23533   6.766  12.082   0.882 -0.7437  0.0860  0.4309
37740SOL    HW123534   6.752  11.989   0.867 -1.0641 -0.2500  2.5253
37740SOL    HW223535   6.823  12.086   0.959  1.2497  1.6161 -1.0332
37741SOL     OW23536  12.745   8.047  10.312 -0.2868  0.9424  0.3343
37741SOL    HW123537  12.761   8.010  10.399  0.9507 -0.3562 -0.4131
37741SOL    HW223538  12.767   7.977  10.251 -1.5927  1.6690 -1.0457
37742SOL     OW23539  12.226  12.558   0.380 -0.5574 -0.3757  0.4989
37742SOL    HW123540  12.315  12.563   0.345 -0.6291  1.6293  0.4770
37742SOL    HW223541  12.229  12.488   0.444  1.0024 -0.4409  0.3861
37743SOL     OW23542  10.393   5.512   1.972 -0.0727  0.5238  0.1976
37743SOL    HW123543  10.385   5.500   1.877 -0.0615 -1.2663  0.3860
37743SOL    HW223544  10.302   5.518   2.003 -0.0701  1.4182  0.0572
37744SOL     OW23545   5.924   8.469  12.230 -0.0724  0.0905  0.0653
37744SOL    HW123546   5.849   8.424  12.268 -0.5124  2.1795  1.8897
37744SOL    HW223547   5.996   8.451  12.290  0.1277  0.5188 -0.0424
37745SOL     OW23548  12.418   8.154   9.190 -0.0166  0.3825  0.2362
37745SOL    HW123549  12.464   8.233   9.163  0.0295  0.1199 -0.4601
37745SOL    HW223550  12.327   8.167   9.164 -0.0896  0.3765  0.4854
37746SOL     OW23551   0.333  12.853   9.406  0.4666 -0.2838 -0.3667
37746SOL    HW123552   0.427  12.843   9.418  0.2474  0.6558  3.0838
37746SOL    HW223553   0.324  12.910   9.330  2.7721  0.9534  0.1982
37747SOL     OW23554   2.094   2.055   6.184  0.1251 -0.3088 -0.1065
37747SOL    HW123555   2.052   2.139   6.162 -0.4596 -0.7914 -0.9278
37747SOL    HW223556   2.119   2.019   6.099 -0.1294 -1.2139  0.1912
37748SOL     OW23557   0.915   8.105  10.663  0.1491 -0.1949  0.1758
37748SOL    HW123558   0.967   8.026  10.680  0.0180 -0.0898  1.1289
37748SOL    HW223559   0.824   8.074  10.664  0.0589  0.0788  1.2722
37749SOL     OW23560   1.815  11.272   4.097  0.0140 -0.0349 -0.1740
37749SOL    HW123561   1.905  11.258   4.066 -0.0062 -0.0067 -0.2450
37749SOL    HW223562   1.790  11.357   4.061  0.3548  0.4824  0.7734
37750SOL     OW23563   1.265  12.945   8.627  0.2850 -0.7147 -0.2603
37750SOL    HW123564   1.294  13.036   8.624  1.6948 -1.1429  0.0149
37750SOL    HW223565   1.188  12.943   8.569  1.4368  0.2445 -1.9209
37751SOL     OW23566   4.722  12.360   3.433  0.5667 -0.0976 -0.2382
37751SOL    HW123567   4.785  12.317   3.376  2.0405  1.6450 -0.0123
37751SOL    HW223568   4.708  12.446   3.393  0.5153  0.6028  1.2188
37752SOL     OW23569   2.389   9.790   1.297 -0.1774 -0.9254 -1.1341
37752SOL    HW123570   2.402   9.799   1.203 -1.7144 -2.1280 -1.4967
37752SOL    HW223571   2.303   9.828   1.314  0.6998  0.6492  0.0638
37753SOL     OW23572  10.340   5.937   4.797 -0.3248  0.3051 -0.0599
37753SOL    HW123573  10.380   5.890   4.870  0.1679  0.4907 -0.2091
37753SOL    HW223574  10.412   5.951   4.735 -0.3145  1.8062  0.2510
37754SOL     OW23575   9.166   2.231   7.152  0.6467  0.6058  0.1129
37754SOL    HW123576   9.207   2.257   7.070  1.8777 -1.3305  0.0658
37754SOL    HW223577   9.072   2.237   7.135  0.8885  1.1993 -1.0884
37755SOL     OW23578  12.281  12.545  10.904  0.5467 -0.4908  0.0521
37755SOL    HW123579  12.221  12.531  10.977  1.1631 -1.2502  0.4279
37755SOL    HW223580  12.299  12.457  10.870  1.6799 -0.3157  0.1473
37756SOL     OW23581   5.396   0.016   1.130  0.0601  0.0414 -0.2506
37756SOL    HW123582   5.466  -0.026   1.181  0.7631 -1.0643 -2.0105
37756SOL    HW223583   5.409   0.109   1.142 -0.4887 -0.1440  2.4276
37757SOL     OW23584   7.892   2.127  11.301  0.1260  0.3392  0.3199
37757SOL    HW123585   7.919   2.045  11.259  1.9455  1.1062 -0.1018
37757SOL    HW223586   7.874   2.186  11.228 -1.7464  0.1921  0.6130
37758SOL     OW23587   3.038   3.823   9.127  1.1231  0.2864  0.4250
37758SOL    HW123588   3.100   3.808   9.198 -0.1807 -2.0428  1.1696
37758SOL    HW223589   3.073   3.899   9.080  5.0485 -1.3706  0.2500
37759SOL     OW23590   4.123   2.796   1.748  0.6649 -0.4471  0.3659
37759SOL    HW123591   4.186   2.752   1.805  0.2195 -0.7825  0.6000
37759SOL    HW223592   4.138   2.757   1.661 -1.7773 -3.3609  1.0966
37760SOL     OW23593   3.043   6.937   3.140  0.1581 -0.1021  0.6055
37760SOL    HW123594   2.984   6.899   3.205  0.0801 -1.6972 -0.3401
37760SOL    HW223595   3.128   6.941   3.184 -0.0707 -0.3706  1.0834
37761SOL     OW23596   6.089   1.817   9.833 -0.2461 -0.1365 -0.5960
37761SOL    HW123597   6.175   1.856   9.846  0.2459 -1.4039  0.1701
37761SOL    HW223598   6.085   1.797   9.739  0.2319  0.0716 -0.6618
37762SOL     OW23599  11.163   8.975  12.765 -0.3827  0.5921  0.4117
37762SOL    HW123600  11.239   8.970  12.707 -0.8487  1.3658 -0.2917
37762SOL    HW223601  11.159   8.890  12.807 -0.8652 -0.5276 -1.7665
37763SOL     OW23602   1.480   5.675   7.611 -0.3703  0.3233  0.0057
37763SOL    HW123603   1.530   5.745   7.653 -0.2508  1.2315 -1.5740
37763SOL    HW223604   1.450   5.713   7.528 -2.6060 -0.6053  0.3004
37764SOL     OW23605   1.991   5.734   1.869  0.0762  0.6911 -0.2459
37764SOL    HW123606   1.981   5.817   1.823 -0.6315  1.1713  0.7493
37764SOL    HW223607   1.957   5.750   1.956  0.0730 -0.6100  0.0176
37765SOL     OW23608  12.240   5.134  11.781 -0.1483  0.6773 -0.0117
37765SOL    HW123609  12.327   5.097  11.793  0.2567  2.0042  1.4314
37765SOL    HW223610  12.248   5.191  11.705  0.2984  0.9572  0.2456
37766SOL     OW23611   6.608   6.310   5.227 -0.2150 -0.2224  0.0476
37766SOL    HW123612   6.681   6.280   5.173 -1.7593 -0.9112 -1.8287
37766SOL    HW223613   6.552   6.359   5.166 -0.7196  1.3408  1.6990
37767SOL     OW23614   3.112  11.831   5.594  0.0262  0.0572  0.1511
37767SOL    HW123615   3.158  11.912   5.573  0.5394 -0.2684 -0.0001
37767SOL    HW223616   3.052  11.818   5.520  0.4537 -0.0750 -0.1784
37768SOL     OW23617  10.559   1.841   1.848 -0.6329  0.1377  0.0009
37768SOL    HW123618  10.525   1.907   1.909  1.8759  0.3873  1.2645
37768SOL    HW223619  10.502   1.848   1.771 -0.2812  4.0536 -0.1156
37769SOL     OW23620   3.199  10.100   7.284  0.0744 -0.5095 -0.3365
37769SOL    HW123621   3.212  10.061   7.370  0.5855 -2.9574 -1.4581
37769SOL    HW223622   3.106  10.088   7.266 -0.1030  0.2991 -0.0359
37770SOL     OW23623   1.677   0.364   9.522 -0.6466  0.4826 -0.3986
37770SOL    HW123624   1.718   0.278   9.510 -1.0407  0.1083  0.8071
37770SOL    HW223625   1.585   0.349   9.501 -0.6651  0.6805 -0.4544
37771SOL     OW23626   4.742   3.481   2.703  0.3068 -0.1311 -0.3331
37771SOL    HW123627   4.765   3.563   2.748  1.8377  0.8194 -2.6740
37771SOL    HW223628   4.688   3.509   2.629  1.4361 -1.1076 -1.5734
37772SOL     OW23629  10.235   6.434   5.457  0.5947 -0.2628  0.4685
37772SOL    HW123630  10.175   6.385   5.402 -0.7502 -1.4186  2.7999
37772SOL    HW223631  10.221   6.399   5.545  2.2872  1.7830  1.6554
37773SOL     OW23632   0.954  12.602  12.764  0.5982  0.4118 -0.6787
37773SOL    HW123633   0.858  12.597  12.770  0.6818  0.6757  1.1783
37773SOL    HW223634   0.970  12.624  12.672 -1.0335 -1.2774 -1.4395
37774SOL     OW23635   2.437  11.472  12.477 -0.3768 -0.0646 -0.0297
37774SOL    HW123636   2.471  11.394  12.520 -1.3323 -0.0169  0.8594
37774SOL    HW223637   2.433  11.449  12.384 -0.0056 -0.8197  0.1367
37775SOL     OW23638   9.777  12.826   0.889 -0.3396 -0.0696 -0.0232
37775SOL    HW123639   9.852  12.777   0.855 -1.0491 -1.0465 -0.2354
37775SOL    HW223640   9.717  12.758   0.920 -0.1020  0.7538  2.4497
37776SOL     OW23641   8.500   1.195  11.202  0.1282 -0.3507  0.3595
37776SOL    HW123642   8.458   1.254  11.140 -0.6617 -1.2043  0.0639
37776SOL    HW223643   8.532   1.122  11.148 -1.4707 -1.6091  1.0352
37777SOL     OW23644  10.942   4.597   3.224  0.1101 -0.1778  0.0357
37777SOL    HW123645  10.867   4.578   3.168 -0.7716  0.7035  0.8770
37777SOL    HW223646  10.951   4.520   3.280 -0.6229 -0.0070  0.4035
37778SOL     OW23647   8.186   0.806   7.405  0.8491 -0.4614 -0.3270
37778SOL    HW123648   8.189   0.734   7.468  0.4855 -0.0927  0.1227
37778SOL    HW223649   8.246   0.780   7.335  1.5744 -0.6833  0.3716
37779SOL     OW23650   8.793   6.273   2.582 -0.1952  0.1294 -0.2282
37779SOL    HW123651   8.847   6.352   2.577  1.3635 -0.9282 -1.0298
37779SOL    HW223652   8.826   6.226   2.659 -1.1224  0.2313  0.2524
37780SOL     OW23653   9.872   0.442  12.758  0.4486 -0.1955  0.7806
37780SOL    HW123654   9.890   0.410  12.846  1.7361 -1.0337  0.2420
37780SOL    HW223655   9.829   0.369  12.714 -1.6015  0.7325  1.1176
37781SOL     OW23656   3.982  10.890   3.292  0.0702  0.4404  0.3584
37781SOL    HW123657   3.974  10.896   3.196 -0.7539 -1.0373  0.3121
37781SOL    HW223658   3.893  10.902   3.324  0.4017  1.3041  0.9827
37782SOL     OW23659  10.328   1.116  11.302 -0.5082 -0.0539  0.4684
37782SOL    HW123660  10.281   1.173  11.241 -0.4862  0.4007  0.8735
37782SOL    HW223661  10.317   1.028  11.266 -0.9981  0.1433  0.1328
37783SOL     OW23662   7.271   7.882  12.965 -0.0050  0.2759 -0.1619
37783SOL    HW123663   7.298   7.925  12.884 -0.7970  0.8053 -0.1600
37783SOL    HW223664   7.176   7.891  12.965 -0.1167 -0.8581  0.1984
37784SOL     OW23665  10.207   6.133   1.980  0.0046  0.0234 -0.1197
37784SOL    HW123666  10.282   6.091   2.022 -0.4036 -0.0208  0.5908
37784SOL    HW223667  10.132   6.108   2.035 -0.4104  0.7075 -0.3649
37785SOL     OW23668   7.674   6.364   7.189  0.4424  0.4744  0.2813
37785SOL    HW123669   7.583   6.383   7.214  0.0639  0.1361 -0.7443
37785SOL    HW223670   7.710   6.448   7.163  0.3415  0.5778  0.4819
37786SOL     OW23671   9.396   3.169   1.471 -0.0295  0.1126 -0.2110
37786SOL    HW123672   9.415   3.263   1.470  0.2547  0.0550 -0.6491
37786SOL    HW223673   9.313   3.160   1.425 -0.3918  0.2155  0.4143
37787SOL     OW23674   1.141  11.340  12.912 -0.2009 -0.0599  0.0446
37787SOL    HW123675   1.071  11.367  12.852  1.3098 -0.6119 -2.0496
37787SOL    HW223676   1.142  11.244  12.905  0.6752 -0.0580  0.1577
37788SOL     OW23677   2.298   6.586   3.954 -0.0425  0.0796  0.6275
37788SOL    HW123678   2.378   6.565   3.906  1.1953  1.0853  2.1380
37788SOL    HW223679   2.248   6.643   3.896  0.5154 -0.2568 -0.1900
37789SOL     OW23680  12.938   0.277   8.857  0.3238 -0.5063 -0.4153
37789SOL    HW123681  12.971   0.191   8.881  2.4191  0.0154 -1.1806
37789SOL    HW223682  12.946   0.280   8.762 -0.2968  0.3142 -0.4554
37790SOL     OW23683   0.764  12.780   7.862  0.6104 -0.1019 -0.3028
37790SOL    HW123684   0.854  12.800   7.889  1.5140  0.0158 -3.0237
37790SOL    HW223685   0.712  12.851   7.898  1.7270  0.2382  0.7096
37791SOL     OW23686   2.801   7.010   5.624  0.0792 -0.2603  0.2826
37791SOL    HW123687   2.710   7.026   5.599 -0.3140 -1.0403  1.1440
37791SOL    HW223688   2.824   7.084   5.680 -0.4128 -0.6520  1.0093
37792SOL     OW23689   7.894   1.197   1.971  0.0469 -0.0900 -0.3577
37792SOL    HW123690   7.811   1.183   2.015  0.9957 -1.1188  1.2222
37792SOL    HW223691   7.902   1.293   1.965 -0.4778  0.0717  1.0509
37793SOL     OW23692   9.649   7.243   7.299 -0.2959  0.0936  0.7983
37793SOL    HW123693   9.667   7.151   7.277  0.1382  0.2126  0.6534
37793SOL    HW223694   9.554   7.247   7.307 -0.4966  0.0447 -1.0917
37794SOL     OW23695   4.239   8.217   9.944 -0.6082 -0.7718 -0.1037
37794SOL    HW123696   4.171   8.174   9.997 -0.4656 -0.2632  0.5054
37794SOL    HW223697   4.196   8.296   9.911 -0.1706 -0.1938  0.6898
37795SOL     OW23698   5.652   4.637   7.308 -0.4010 -0.2052  0.4136
37795SOL    HW123699   5.577   4.592   7.270 -0.3801 -0.1084  0.2601
37795SOL    HW223700   5.616   4.713   7.352 -0.4767 -0.5638  0.9770
37796SOL     OW23701   0.512   7.288   2.981 -0.0804  0.1608 -0.0559
37796SOL    HW123702   0.590   7.248   3.020  1.5769 -0.4900 -3.6765
37796SOL    HW223703   0.448   7.218   2.979 -1.1611  0.8442  3.4656
37797SOL     OW23704   6.435  12.302   4.970 -0.0787 -0.3269  0.1800
37797SOL    HW123705   6.493  12.261   5.034 -0.3899 -1.3414 -0.1623
37797SOL    HW223706   6.358  12.328   5.020  0.8982  1.5753  0.7478
37798SOL     OW23707   2.961   4.263   2.982  0.0847 -0.0779  0.2788
37798SOL    HW123708   2.957   4.202   2.909 -3.0906 -1.8016  1.7035
37798SOL    HW223709   2.872   4.299   2.988  0.2880  0.1325  3.1245
37799SOL     OW23710   2.077   3.476   9.570 -0.2996 -0.3865 -0.5702
37799SOL    HW123711   2.129   3.525   9.634 -1.3542  1.3857 -1.0104
37799SOL    HW223712   2.111   3.387   9.575 -1.4877 -0.7981  3.7147
37800SOL     OW23713   2.654   0.751  10.663 -0.2164 -0.3087  0.2163
37800SOL    HW123714   2.693   0.806  10.730  0.0230 -0.3730  0.1330
37800SOL    HW223715   2.586   0.805  10.623 -0.0334 -0.0992  0.1865
37801SOL     OW23716  12.743   7.360  12.143  1.0165 -0.0035  0.1631
37801SOL    HW123717  12.817   7.301  12.157  1.7787  0.7804 -0.3950
37801SOL    HW223718  12.781   7.435  12.098  0.0028  0.7400  0.5044
37802SOL     OW23719   9.228   9.915  11.153 -0.2156  0.1612 -0.0116
37802SOL    HW123720   9.148   9.879  11.191 -1.0094  2.1128  0.2791
37802SOL    HW223721   9.243   9.863  11.075 -0.1705 -2.0581  1.4043
37803SOL     OW23722   0.256   0.016   7.237  0.4932 -0.4295 -0.1464
37803SOL    HW123723   0.198   0.080   7.279  0.4672 -0.4740 -0.1146
37803SOL    HW223724   0.340   0.061   7.229  0.4618 -0.3743 -0.1677
37804SOL     OW23725   0.342   6.796   1.335  0.6035 -0.1794  0.4002
37804SOL    HW123726   0.329   6.718   1.389  3.6591 -1.6660 -0.7153
37804SOL    HW223727   0.354   6.867   1.397  3.2605 -1.6944  1.8255
37805SOL     OW23728   5.172   6.823   9.213 -0.3795 -0.3036  0.3329
37805SOL    HW123729   5.179   6.898   9.154 -0.5515 -1.3485 -1.0713
37805SOL    HW223730   5.081   6.823   9.242 -0.9897 -1.1840 -1.4139
37806SOL     OW23731  11.478   2.395   5.501  0.3088  0.1817  0.3363
37806SOL    HW123732  11.478   2.440   5.586 -1.0168 -2.2450  1.7042
37806SOL    HW223733  11.406   2.435   5.453  0.1603  0.6098  0.9027
37807SOL     OW23734  12.105   5.028   1.492 -0.5006  0.2839  0.1797
37807SOL    HW123735  12.130   4.946   1.448  0.1406  0.0827  0.9066
37807SOL    HW223736  12.009   5.027   1.489 -0.4950 -0.2978 -0.1677
37808SOL     OW23737   4.739  12.108   1.932 -0.2864 -0.6679 -0.4318
37808SOL    HW123738   4.780  12.034   1.887  1.4902 -0.8876  1.3686
37808SOL    HW223739   4.813  12.163   1.960 -1.5412  1.8482 -1.7162
37809SOL     OW23740   1.032   3.338   0.588  0.4844 -0.0178  0.1320
37809SOL    HW123741   0.963   3.311   0.528  1.4654  1.2003 -1.6347
37809SOL    HW223742   1.108   3.285   0.562  0.9119  0.5061  0.3002
37810SOL     OW23743   3.474  12.006   7.708  0.4972 -0.5455 -0.1019
37810SOL    HW123744   3.433  12.093   7.714 -0.6199 -1.0128 -0.6180
37810SOL    HW223745   3.519  11.994   7.791 -1.1072 -0.3264  0.8296
37811SOL     OW23746   6.722  12.922   9.815 -0.1176  0.6339 -0.0957
37811SOL    HW123747   6.665  12.994   9.841 -2.7243 -1.1088 -0.5902
37811SOL    HW223748   6.665  12.862   9.767  1.8758 -1.8637  0.4232
37812SOL     OW23749  10.521   5.337   8.160 -0.1490 -0.3481 -0.0551
37812SOL    HW123750  10.511   5.253   8.205 -1.4560  0.7159  1.7609
37812SOL    HW223751  10.546   5.399   8.229 -0.1710  0.9399 -1.1641
37813SOL     OW23752   3.651  12.517   4.891  0.4183 -0.3275 -0.0789
37813SOL    HW123753   3.591  12.442   4.888 -0.8204  0.6381 -1.9881
37813SOL    HW223754   3.642  12.551   4.980 -0.8760 -1.0140  0.0893
37814SOL     OW23755   2.163  10.720   4.490  0.2306  0.3438 -0.3163
37814SOL    HW123756   2.109  10.641   4.500 -0.9518  1.2294  0.6477
37814SOL    HW223757   2.114  10.775   4.429 -0.5604  1.5998  1.3664
37815SOL     OW23758   0.673   1.815   0.810 -0.5601  0.7596 -1.1614
37815SOL    HW123759   0.664   1.721   0.792 -0.6803  0.2028  1.3663
37815SOL    HW223760   0.739   1.845   0.749  0.5720 -1.3275 -1.0605
37816SOL     OW23761  12.494  10.069  11.962 -0.2078  0.3973 -0.6845
37816SOL    HW123762  12.584  10.098  11.976 -0.0454 -0.2526 -0.3346
37816SOL    HW223763  12.445  10.150  11.949 -0.1155  1.0138  2.1161
37817SOL     OW23764   4.980  11.047   0.057 -0.2461  0.6839 -0.1495
37817SOL    HW123765   5.013  10.964   0.025 -0.8124 -1.1053  3.3931
37817SOL    HW223766   4.894  11.057   0.015  1.0968  1.1962 -2.9955
37818SOL     OW23767  11.613   6.428   4.839 -0.0161 -0.5145 -0.4623
37818SOL    HW123768  11.518   6.429   4.824 -0.0238 -0.2797 -0.3960
37818SOL    HW223769  11.651   6.445   4.753 -0.0778  1.8464 -0.1022
37819SOL     OW23770  10.238  12.696   3.962 -0.3639 -0.2023 -0.4062
37819SOL    HW123771  10.180  12.624   3.986  0.5100 -0.6234  0.4941
37819SOL    HW223772  10.221  12.764   4.027 -0.8730  0.2529 -0.9992
37820SOL     OW23773   3.980   2.365  11.800  0.0633  0.2076  0.1911
37820SOL    HW123774   4.003   2.288  11.851  0.0161 -0.0463 -0.1706
37820SOL    HW223775   3.951   2.331  11.715 -0.1135  0.6112  0.0852
37821SOL     OW23776   5.501   3.498   8.651  0.0883  0.3305  0.2263
37821SOL    HW123777   5.523   3.590   8.640  0.7309  0.2782  1.0009
37821SOL    HW223778   5.543   3.453   8.578 -1.5180  0.8296 -1.0430
37822SOL     OW23779   7.393   0.347   8.200 -0.0517  0.1390 -0.5610
37822SOL    HW123780   7.466   0.289   8.180 -0.7585 -0.5696 -1.1819
37822SOL    HW223781   7.434   0.430   8.226  1.0149 -0.9094  1.3328
37823SOL     OW23782   1.675  11.514   7.876  0.8309  0.5619  0.0024
37823SOL    HW123783   1.589  11.506   7.836  0.2358  0.6528  1.2410
37823SOL    HW223784   1.699  11.425   7.900  0.6832  0.6468  0.4708
37824SOL     OW23785  12.652  11.447   4.634 -0.1754 -0.2972  0.1548
37824SOL    HW123786  12.616  11.428   4.548 -0.2816 -0.6550  0.2749
37824SOL    HW223787  12.747  11.445   4.621 -0.1563  1.9808 -0.4477
37825SOL     OW23788  11.580   8.832   9.519  0.5697  0.0321  0.4366
37825SOL    HW123789  11.637   8.792   9.585  1.4553 -1.1298 -0.9686
37825SOL    HW223790  11.608   8.924   9.516  2.9600 -0.6478 -0.7203
37826SOL     OW23791  11.499   9.237   7.707  0.1027  0.0368 -0.2803
37826SOL    HW123792  11.461   9.151   7.692 -0.2157  0.4608 -2.1266
37826SOL    HW223793  11.428   9.298   7.689  1.3318  0.8159 -3.1177
37827SOL     OW23794   9.441  11.237   7.122 -0.5703 -0.3705  0.7360
37827SOL    HW123795   9.431  11.290   7.043  0.6204  1.0256  1.4690
37827SOL    HW223796   9.520  11.272   7.165 -1.3572 -0.8566  2.7001
37828SOL     OW23797   5.919   0.534  11.242 -0.1378  0.0222  0.2050
37828SOL    HW123798   5.864   0.460  11.216 -2.0822  0.8007  1.8041
37828SOL    HW223799   5.895   0.604  11.181 -1.3631  0.4994  1.1779
37829SOL     OW23800   3.314   0.974   5.543  0.6210  0.2095  0.1041
37829SOL    HW123801   3.223   1.004   5.552  0.3024 -0.6220 -0.1925
37829SOL    HW223802   3.338   0.996   5.454  0.2758 -0.6509 -0.2218
37830SOL     OW23803   3.544  11.143  12.584  0.4023 -0.0754  0.0684
37830SOL    HW123804   3.527  11.175  12.496 -0.5317 -1.0463 -0.1193
37830SOL    HW223805   3.498  11.204  12.641 -0.6387 -0.5678 -0.2358
37831SOL     OW23806  11.684   5.511  12.569 -0.4861  0.5294  0.2297
37831SOL    HW123807  11.739   5.585  12.543  1.7650 -1.5579 -1.3630
37831SOL    HW223808  11.709   5.493  12.660 -1.3046  1.8735  0.7455
37832SOL     OW23809  12.130   6.259  11.295 -0.5284 -0.3272 -0.1586
37832SOL    HW123810  12.179   6.181  11.321 -0.7725 -0.1759  0.7628
37832SOL    HW223811  12.160   6.328  11.353 -0.4366  0.2417 -0.8594
37833SOL     OW23812   2.503   4.297   5.240  0.2017 -0.1266  0.3832
37833SOL    HW123813   2.525   4.261   5.326 -0.4771 -0.9060  0.2423
37833SOL    HW223814   2.428   4.246   5.211 -0.7872  1.3769  0.1457
37834SOL     OW23815  12.505   9.486   9.599 -0.0319  0.2824  0.5961
37834SOL    HW123816  12.517   9.541   9.521  1.2285  1.8932  1.8376
37834SOL    HW223817  12.520   9.397   9.568  2.2929  1.0238 -0.6970
37835SOL     OW23818   4.546   2.302   3.626  0.4286 -0.0206 -0.1839
37835SOL    HW123819   4.540   2.397   3.621 -0.0832 -0.1227 -2.1537
37835SOL    HW223820   4.455   2.273   3.630  0.5660 -0.4656 -0.3068
37836SOL     OW23821   0.326   9.496   4.995  0.0722 -0.0270 -0.6903
37836SOL    HW123822   0.365   9.516   5.080 -0.4713  0.8591 -0.6397
37836SOL    HW223823   0.268   9.421   5.012 -0.0446  0.1560 -0.2826
37837SOL     OW23824   6.733   7.633  10.382 -0.6667 -0.2465 -0.1245
37837SOL    HW123825   6.744   7.715  10.430  1.8857  0.9501 -2.5304
37837SOL    HW223826   6.803   7.577  10.414 -1.3725 -0.9289  0.2821
37838SOL     OW23827  12.073   3.174   6.429 -0.2636  0.1353 -0.1322
37838SOL    HW123828  12.044   3.159   6.339  2.3387 -0.8106 -0.8883
37838SOL    HW223829  12.033   3.103   6.479 -1.7644  0.6921 -0.4776
37839SOL     OW23830  10.644   5.072   2.088  0.1199  0.7409  0.1092
37839SOL    HW123831  10.557   5.099   2.060  0.5989  1.1803 -0.9993
37839SOL    HW223832  10.632   4.983   2.122 -0.6718  0.6082 -0.4970
37840SOL     OW23833   1.589   7.862   7.073 -0.0875  0.0188 -0.2630
37840SOL    HW123834   1.599   7.957   7.067  0.2160 -0.0402 -0.8018
37840SOL    HW223835   1.560   7.836   6.986 -1.0110 -0.2900  0.1334
37841SOL     OW23836  10.514   3.603   3.542  0.3789 -0.6406  0.3014
37841SOL    HW123837  10.432   3.558   3.564 -0.4154 -0.1229 -1.4374
37841SOL    HW223838  10.533   3.576   3.452  2.4492 -1.1869  0.8392
37842SOL     OW23839  11.612   6.282  12.458 -0.1300 -0.1669  0.2765
37842SOL    HW123840  11.576   6.330  12.533  0.3495  0.2370  0.2539
37842SOL    HW223841  11.561   6.312  12.383 -0.1665 -0.0700  0.3398
37843SOL     OW23842   2.019   8.098   6.194 -1.1719  0.0136 -0.2361
37843SOL    HW123843   1.964   8.155   6.140  0.5898  0.4677 -1.6436
37843SOL    HW223844   2.092   8.154   6.222  0.4136 -1.3869 -1.3588
37844SOL     OW23845   6.779  10.782  10.909 -0.5458 -0.5833  0.0693
37844SOL    HW123846   6.864  10.817  10.883 -0.8514 -0.2774 -0.5608
37844SOL    HW223847   6.781  10.690  10.881  0.8927 -1.6323  3.2235
37845SOL     OW23848   8.919   5.897   6.182  0.4454 -0.5917  0.3897
37845SOL    HW123849   9.008   5.862   6.185  1.8024  2.3810 -0.8912
37845SOL    HW223850   8.903   5.928   6.271  1.5126  0.4935  0.2483
37846SOL     OW23851   9.171   3.126   8.356  0.7798  0.3395 -0.1898
37846SOL    HW123852   9.202   3.198   8.410 -0.6079  0.7511  0.0970
37846SOL    HW223853   9.170   3.161   8.267  0.1961  0.6652 -0.0630
37847SOL     OW23854   6.001  11.772   4.962  0.1262 -0.4573 -0.6220
37847SOL    HW123855   6.013  11.679   4.984 -0.9689 -0.4029  0.2857
37847SOL    HW223856   5.919  11.774   4.914  0.5421 -0.0406 -1.3365
37848SOL     OW23857   6.433   2.012   9.484 -0.6347 -0.9516 -0.2157
37848SOL    HW123858   6.423   1.931   9.535  1.2225 -1.7482 -1.0208
37848SOL    HW223859   6.419   1.985   9.394  0.4502 -0.5002 -0.5384
37849SOL     OW23860   0.432   3.260   1.866 -0.7470  0.1389  0.4718
37849SOL    HW123861   0.396   3.273   1.953 -3.0963  1.6038 -0.6251
37849SOL    HW223862   0.497   3.329   1.856  1.1863 -1.3588  1.7573
37850SOL     OW23863  10.904   8.567   3.389  0.1911  0.0556  0.0895
37850SOL    HW123864  10.848   8.495   3.419 -0.1889  0.6365  0.7981
37850SOL    HW223865  10.917   8.550   3.296  1.3405 -1.7602  0.5218
37851SOL     OW23866  11.287   4.840   1.549 -0.0009 -0.5442 -0.2284
37851SOL    HW123867  11.376   4.860   1.520  0.2315  0.8019  1.2765
37851SOL    HW223868  11.291   4.845   1.645 -1.4938 -1.3652 -0.0894
37852SOL     OW23869   0.888   1.667   0.567 -0.3553  0.5092  0.1518
37852SOL    HW123870   0.844   1.751   0.556  1.1924  1.2577 -0.5488
37852SOL    HW223871   0.980   1.685   0.549  0.1099 -1.2125  0.6075
37853SOL     OW23872  10.236   6.616   7.610 -0.0043  0.3197  0.0980
37853SOL    HW123873  10.206   6.531   7.642 -0.2906 -0.2092 -1.4600
37853SOL    HW223874  10.331   6.616   7.626  0.4482 -1.3899 -2.0495
37854SOL     OW23875   4.505   3.610   0.055 -0.7348 -0.0429 -0.0156
37854SOL    HW123876   4.442   3.671   0.096  0.2910  2.2500 -1.6718
37854SOL    HW223877   4.469   3.595  -0.032 -0.0745 -0.4421 -0.2163
37855SOL     OW23878   3.391   4.043   2.224  0.2291 -0.1677 -0.5289
37855SOL    HW123879   3.303   4.074   2.203 -0.9151 -2.1570  0.8640
37855SOL    HW223880   3.443   4.061   2.146 -1.4628  0.8879 -1.4744
37856SOL     OW23881  11.973  10.041   3.449  0.3918  0.0069 -0.0815
37856SOL    HW123882  12.066  10.062   3.457  0.1486  0.6563  1.2743
37856SOL    HW223883  11.935  10.115   3.402  0.7051 -0.7241 -1.5401
37857SOL     OW23884   8.804   2.118   2.389  0.0008  0.0173 -0.4214
37857SOL    HW123885   8.816   2.208   2.418 -0.8701  0.5452 -1.6036
37857SOL    HW223886   8.739   2.124   2.319  0.2513 -1.4755 -0.8181
37858SOL     OW23887   5.853   8.595   3.348  0.2980  0.2920 -0.0738
37858SOL    HW123888   5.759   8.587   3.360  0.4929 -0.6552  1.1081
37858SOL    HW223889   5.865   8.615   3.255 -1.0486  0.1236 -0.2940
37859SOL     OW23890  10.697   9.316   2.707  0.0275  0.2892 -0.1560
37859SOL    HW123891  10.649   9.237   2.729  1.4413 -0.7865 -0.7610
37859SOL    HW223892  10.642   9.388   2.738 -0.6885 -0.9540  1.5862
37860SOL     OW23893  11.585   3.333   2.428  0.5618 -0.6184  0.3298
37860SOL    HW123894  11.592   3.319   2.522  0.7638 -1.0956  0.2464
37860SOL    HW223895  11.669   3.303   2.393  0.7236  0.1215  0.0604
37861SOL     OW23896   3.588   6.762   1.013 -0.1697 -0.1830 -0.2421
37861SOL    HW123897   3.682   6.759   1.029 -0.2397 -0.3286  0.1526
37861SOL    HW223898   3.574   6.705   0.938  0.1425  0.3673 -0.7286
37862SOL     OW23899   7.602  11.095  10.813 -0.4473  0.5015  0.0581
37862SOL    HW123900   7.566  11.125  10.897 -1.6205 -0.8660  0.0759
37862SOL    HW223901   7.526  11.090  10.755 -0.0903 -1.0857 -0.3113
37863SOL     OW23902  11.820   1.788   1.090 -0.3396  0.0396  0.4856
37863SOL    HW123903  11.789   1.727   1.022 -0.2335 -1.4446  1.7103
37863SOL    HW223904  11.769   1.764   1.167  1.2105  0.0750  1.5566
37864SOL     OW23905   3.265   3.475   8.746 -0.6308  0.6003  0.3658
37864SOL    HW123906   3.173   3.470   8.720 -0.3550 -1.0751 -0.4080
37864SOL    HW223907   3.266   3.539   8.817 -1.9451  2.8087 -1.4193
37865SOL     OW23908  10.129   1.579  10.211  0.0620  0.6020 -0.1035
37865SOL    HW123909  10.171   1.529  10.280  0.2764 -1.4193 -1.6046
37865SOL    HW223910  10.044   1.536  10.197  1.0444 -0.7156 -2.7342
37866SOL     OW23911   1.523   0.094  11.791  0.2523 -0.1600  0.0922
37866SOL    HW123912   1.518   0.189  11.802 -1.1515 -0.4685  3.0725
37866SOL    HW223913   1.613   0.072  11.815  0.7863  0.4248 -1.2619
37867SOL     OW23914  12.741  11.859   0.658  0.5430  0.0372  0.4402
37867SOL    HW123915  12.741  11.940   0.608 -0.9875 -0.9973 -1.3924
37867SOL    HW223916  12.684  11.877   0.733 -0.8981  0.2935 -0.6749
37868SOL     OW23917   7.733   1.653   0.967 -0.5566  0.0124 -0.8772
37868SOL    HW123918   7.741   1.644   0.872  1.7329  1.0200 -0.8400
37868SOL    HW223919   7.777   1.575   1.002  1.7858  1.3547 -0.6751
37869SOL     OW23920   3.461   5.505   4.099  0.1907  0.1811  0.1928
37869SOL    HW123921   3.427   5.432   4.046 -0.7423  0.1859  0.7637
37869SOL    HW223922   3.506   5.561   4.036  2.6248 -1.8183 -0.0054
37870SOL     OW23923  12.066   9.810   4.431 -0.3604 -0.1989 -0.1803
37870SOL    HW123924  12.048   9.743   4.366 -1.3926  0.6800 -0.8419
37870SOL    HW223925  11.987   9.813   4.485  0.9242 -1.7485  1.9300
37871SOL     OW23926  10.520   7.054   3.237  0.2872 -0.7190  0.1746
37871SOL    HW123927  10.529   7.045   3.332  3.0574  1.0334  0.1850
37871SOL    HW223928  10.430   7.084   3.224 -0.4989 -2.0389  2.0921
37872SOL     OW23929   9.536   2.130   7.250 -0.6884 -0.2834 -0.3017
37872SOL    HW123930   9.623   2.172   7.245 -1.1342  0.6207 -0.7311
37872SOL    HW223931   9.507   2.124   7.159 -1.3708  0.0690 -0.1147
37873SOL     OW23932   8.841   1.202  12.532  0.4335  0.1106 -0.1606
37873SOL    HW123933   8.926   1.227  12.495  0.2042  3.0058  0.9554
37873SOL    HW223934   8.817   1.276  12.588 -3.7104  0.3434 -1.8707
37874SOL     OW23935   1.222   4.213   7.902  0.0673  0.5495 -0.0962
37874SOL    HW123936   1.225   4.250   7.990 -1.2924 -0.5400  0.4460
37874SOL    HW223937   1.144   4.252   7.862  0.7612  1.1605 -0.9096
37875SOL     OW23938   0.769   6.675   3.433  0.7103 -0.3531 -0.2079
37875SOL    HW123939   0.848   6.692   3.382  1.0797  0.7200  0.6793
37875SOL    HW223940   0.798   6.682   3.524 -0.6672  1.5018  0.1524
37876SOL     OW23941   4.633   1.757   8.145 -0.6188 -0.1683  0.3000
37876SOL    HW123942   4.606   1.834   8.096 -0.2222 -0.7834 -0.9274
37876SOL    HW223943   4.640   1.688   8.079 -2.3244 -1.6404  1.5372
37877SOL     OW23944   3.469   8.179  10.504 -0.3669  0.5137  0.4043
37877SOL    HW123945   3.399   8.123  10.535 -0.0552  0.8891  1.8684
37877SOL    HW223946   3.428   8.232  10.436 -1.4580  0.5676  1.0688
37878SOL     OW23947   5.674   7.985   9.621  0.0683 -0.1013 -0.3695
37878SOL    HW123948   5.601   8.047   9.625  0.7318  0.6877 -0.1139
37878SOL    HW223949   5.752   8.040   9.627  0.6806 -0.9480 -0.4190
37879SOL     OW23950  10.158   4.834   7.281 -0.1309  0.0287  0.0064
37879SOL    HW123951  10.181   4.927   7.290  0.9991 -0.3802  1.8467
37879SOL    HW223952  10.062   4.833   7.279 -0.1563  1.2976 -1.2761
37880SOL     OW23953   7.363   2.520   5.586 -0.0560  0.3910  0.0926
37880SOL    HW123954   7.456   2.541   5.578  0.0227  0.0370  0.0299
37880SOL    HW223955   7.318   2.589   5.538  0.1992  0.3264 -0.2405
37881SOL     OW23956   1.216  11.786   7.670 -0.3676  0.0391 -0.2104
37881SOL    HW123957   1.175  11.769   7.755 -0.5964  0.0234 -0.3245
37881SOL    HW223958   1.284  11.850   7.690  2.8533 -3.3516  0.8708
37882SOL     OW23959   9.769   7.902   1.806 -0.0929 -1.0764 -0.1870
37882SOL    HW123960   9.802   7.925   1.893  0.4594 -1.8289 -0.1884
37882SOL    HW223961   9.674   7.914   1.811 -0.0136 -0.7120  0.3919
37883SOL     OW23962   4.614   9.916   1.111 -0.4483 -0.4545 -0.2011
37883SOL    HW123963   4.553   9.857   1.067 -2.4569  0.3076  1.4062
37883SOL    HW223964   4.701   9.879   1.093 -1.2797 -1.3156 -2.9815
37884SOL     OW23965  11.762  11.278  11.408 -0.3885 -0.1643 -0.4715
37884SOL    HW123966  11.853  11.304  11.393 -0.9420  1.5607 -1.1158
37884SOL    HW223967  11.764  11.182  11.408  1.2154 -0.1801 -1.9132
37885SOL     OW23968   4.002   7.129   2.139  0.2671  0.4207 -0.4484
37885SOL    HW123969   4.076   7.148   2.197  0.5278  1.6826 -1.1444
37885SOL    HW223970   3.969   7.216   2.114 -0.6362 -0.1148 -1.1681
37886SOL     OW23971   2.232   5.838  12.249 -0.2393 -0.1762 -0.1700
37886SOL    HW123972   2.182   5.782  12.189  1.1819 -1.0985 -0.5293
37886SOL    HW223973   2.182   5.834  12.331 -1.0240 -0.6739 -0.6492
37887SOL     OW23974   1.992  10.352   5.484  0.6940  0.1517  0.0645
37887SOL    HW123975   2.045  10.334   5.406 -0.0478 -1.3345 -0.1278
37887SOL    HW223976   1.939  10.274   5.496 -1.6046  1.6345  0.1628
37888SOL     OW23977   2.015  11.524   4.789 -0.6357 -0.5193  0.4940
37888SOL    HW123978   1.927  11.501   4.817 -0.1167 -0.0709  2.6638
37888SOL    HW223979   2.032  11.609   4.830 -0.2198  0.8365 -2.2435
37889SOL     OW23980   4.501  12.079   6.542  0.0033  0.3302 -0.4611
37889SOL    HW123981   4.499  12.153   6.482  0.6731  0.7188 -0.0230
37889SOL    HW223982   4.448  12.012   6.500 -0.3761  0.9603 -0.9973
37890SOL     OW23983   6.337  10.391   2.738 -0.1285 -1.2102 -0.2133
37890SOL    HW123984   6.313  10.301   2.713 -2.1707 -1.0038  0.8139
37890SOL    HW223985   6.253  10.435   2.752  0.8514  0.3051  1.2334
37891SOL     OW23986   0.387   0.281   3.197  0.3320 -0.1563 -0.5571
37891SOL    HW123987   0.316   0.276   3.132  0.8285 -1.5466 -1.0189
37891SOL    HW223988   0.445   0.349   3.163 -0.5106  0.6344 -0.4413
37892SOL     OW23989   5.102   1.659   2.481 -0.2805  0.4548  0.0152
37892SOL    HW123990   5.175   1.696   2.529  0.2843  0.1840 -0.6231
37892SOL    HW223991   5.103   1.566   2.503 -0.9286  0.5728  0.6215
37893SOL     OW23992   9.710   8.548   6.422  0.3418  0.2670 -0.1039
37893SOL    HW123993   9.681   8.527   6.334  0.4831 -0.8953  0.1172
37893SOL    HW223994   9.801   8.579   6.411  0.6325 -0.6350 -0.2873
37894SOL     OW23995   2.874  11.426   9.343 -0.3775  0.1003 -0.0038
37894SOL    HW123996   2.781  11.440   9.361 -0.1778  1.4102  0.0531
37894SOL    HW223997   2.876  11.383   9.257 -0.9809  1.1864 -0.5709
37895SOL     OW23998  10.351   2.909   9.387  0.2261  0.7093  0.4101
37895SOL    HW123999  10.311   2.964   9.454  1.4558  1.8706  0.2073
37895SOL    HW224000  10.281   2.896   9.322 -0.1642  1.8099  0.5925
37896SOL     OW24001   6.764  11.934   5.410  0.1832 -0.0268 -0.3788
37896SOL    HW124002   6.670  11.938   5.389  0.0028 -0.8983  0.2239
37896SOL    HW224003   6.768  11.954   5.503  0.5011 -0.8551 -0.2053
37897SOL     OW24004   3.421   7.581   4.214 -0.0854  0.0499  0.0177
37897SOL    HW124005   3.336   7.546   4.188  0.8471 -1.1525 -1.6097
37897SOL    HW224006   3.421   7.575   4.310  0.0717 -4.8304 -0.0533
37898SOL     OW24007   9.518   0.238   1.026 -0.3569  0.1448  0.1711
37898SOL    HW124008   9.577   0.284   0.967 -0.9191  1.3873  0.5331
37898SOL    HW224009   9.558   0.152   1.040  1.1884  0.8469  0.1707
37899SOL     OW24010   1.423   4.445   6.122 -0.3252 -0.1452  0.6133
37899SOL    HW124011   1.458   4.451   6.034 -4.4411 -0.7096 -1.2772
37899SOL    HW224012   1.470   4.372   6.163  1.4778 -0.0394 -1.1500
37900SOL     OW24013   9.444   1.246   7.516 -0.1082 -0.1977  0.2403
37900SOL    HW124014   9.462   1.266   7.424 -1.6976  0.7753  0.1088
37900SOL    HW224015   9.409   1.157   7.515  1.5227 -0.8734  0.1418
37901SOL     OW24016  10.933  10.769   3.152 -0.2829  0.1483  0.0024
37901SOL    HW124017  10.886  10.741   3.073  0.4569 -0.8559 -0.1008
37901SOL    HW224018  10.942  10.689   3.204 -0.7416  0.7971  1.1137
37902SOL     OW24019   9.343   8.421  11.489 -0.4486 -0.1071  0.0917
37902SOL    HW124020   9.271   8.438  11.550 -1.0403 -0.1219 -0.5959
37902SOL    HW224021   9.421   8.447  11.538 -1.0125  1.0677  0.4136
37903SOL     OW24022   3.738   7.789  12.726  0.8197  0.1008 -0.5847
37903SOL    HW124023   3.787   7.721  12.772 -0.3791 -1.3698 -1.3817
37903SOL    HW224024   3.665   7.810  12.784  2.3420  2.4055  0.6753
37904SOL     OW24025   5.633   9.832  10.493  0.0665  0.1121  0.1359
37904SOL    HW124026   5.631   9.910  10.548 -2.0360  1.1092 -1.2029
37904SOL    HW224027   5.558   9.780  10.523 -0.1413 -0.0927 -0.7089
37905SOL     OW24028   1.834  11.987   4.235 -0.0408 -0.6048 -0.1357
37905SOL    HW124029   1.898  11.922   4.205  0.8312 -0.5975  1.5314
37905SOL    HW224030   1.833  12.054   4.167  0.4946 -1.4088 -0.9633
37906SOL     OW24031  12.399   1.651  11.754  0.1189  0.2441  0.0610
37906SOL    HW124032  12.454   1.593  11.807 -1.8122 -1.5816  0.2188
37906SOL    HW224033  12.441   1.736  11.760  2.8495 -1.0189  0.2007
37907SOL     OW24034   8.516   0.823  10.614 -0.3808 -0.1402  0.0903
37907SOL    HW124035   8.602   0.851  10.585 -0.4254 -0.7186 -0.6165
37907SOL    HW224036   8.471   0.904  10.637 -0.2357  0.3140 -1.1632
37908SOL     OW24037  11.602  10.844  12.531 -0.4376  0.6476  0.1795
37908SOL    HW124038  11.661  10.772  12.552 -0.9127  0.2236  0.0863
37908SOL    HW224039  11.515  10.810  12.551 -0.7628  0.8091 -0.8780
37909SOL     OW24040  11.876   7.747   5.376  0.1116  0.4753  0.2263
37909SOL    HW124041  11.816   7.821   5.363  0.1280  0.3720 -0.4718
37909SOL    HW224042  11.850   7.710   5.461 -0.6972  0.5323  0.0100
37910SOL     OW24043   9.153  11.254   6.483 -0.6552  0.0188 -0.0825
37910SOL    HW124044   9.088  11.229   6.417  0.3951 -3.1216 -0.0610
37910SOL    HW224045   9.102  11.269   6.562 -1.6632  1.3156 -0.9263
37911SOL     OW24046   7.492   4.871   6.912  0.1214 -0.8968  0.0995
37911SOL    HW124047   7.587   4.885   6.910  0.2717 -1.7450 -2.5110
37911SOL    HW224048   7.458   4.948   6.958  2.0352 -0.5247  1.0158
37912SOL     OW24049   3.033  10.525   8.465  0.0891 -0.3963 -0.0571
37912SOL    HW124050   3.127  10.534   8.450  0.5625 -3.0050  0.8312
37912SOL    HW224051   3.000  10.484   8.385  0.0762 -1.2785  0.3934
37913SOL     OW24052   7.136   9.469   6.278 -0.0480  0.0592  0.3084
37913SOL    HW124053   7.163   9.409   6.209  0.4428  1.2202 -0.5484
37913SOL    HW224054   7.069   9.524   6.236  0.3559  0.8660  0.7107
37914SOL     OW24055   2.743   7.079   2.194 -0.3706  0.2459  0.1382
37914SOL    HW124056   2.683   7.035   2.253 -1.3734 -1.3107 -1.9104
37914SOL    HW224057   2.736   7.172   2.217 -3.0699  0.0398  0.4492
37915SOL     OW24058   9.912  10.152  10.633 -0.5947  0.1028  0.3091
37915SOL    HW124059   9.871  10.238  10.629 -1.2978 -0.0594  2.4880
37915SOL    HW224060   9.975  10.159  10.705  1.7653 -0.2711 -1.6310
37916SOL     OW24061   3.223   9.374   1.557 -0.4873  0.0911  0.2759
37916SOL    HW124062   3.299   9.385   1.501  0.2020 -0.1647  1.1504
37916SOL    HW224063   3.166   9.315   1.508  0.2933 -0.4770  0.0377
37917SOL     OW24064  10.379   2.404   5.976  0.6884  0.1586 -0.0531
37917SOL    HW124065  10.465   2.368   5.954  1.0964  1.0900 -0.0129
37917SOL    HW224066  10.317   2.353   5.923  1.3943  0.4447 -1.1973
37918SOL     OW24067  12.289   5.795   1.810  0.0211 -0.1545 -0.7130
37918SOL    HW124068  12.344   5.781   1.733 -1.4296  0.9481 -2.0257
37918SOL    HW224069  12.340   5.851   1.867  0.8560 -0.4077 -1.1977
37919SOL     OW24070   1.139   4.659   4.839 -0.0104 -0.6046  0.8176
37919SOL    HW124071   1.175   4.582   4.796 -1.9755 -0.8907 -0.4592
37919SOL    HW224072   1.147   4.729   4.773  0.0524 -0.1751  1.2709
37920SOL     OW24073   5.014   9.844   1.688 -0.2031  0.4423  0.2342
37920SOL    HW124074   5.042   9.819   1.600 -1.7122 -1.8724  0.3155
37920SOL    HW224075   5.046   9.934   1.699  1.9706  0.0092 -1.7844
37921SOL     OW24076  11.233   9.080   7.946  0.3207 -0.2683  0.3314
37921SOL    HW124077  11.152   9.045   7.981 -0.3251  0.8166 -0.0429
37921SOL    HW224078  11.209   9.116   7.861  1.7231 -2.2952 -1.0183
37922SOL     OW24079   4.582   8.892   7.936  0.0220 -0.0285 -0.4965
37922SOL    HW124080   4.645   8.906   7.865  0.9197  0.0333  0.2937
37922SOL    HW224081   4.544   8.805   7.918  0.4790 -0.1552 -0.8624
37923SOL     OW24082   0.649   1.211  11.317  0.1019  0.2786  0.2120
37923SOL    HW124083   0.665   1.118  11.304 -2.3366 -0.0393 -1.1069
37923SOL    HW224084   0.725   1.254  11.277  1.7848 -1.0905  1.7671
37924SOL     OW24085   3.252   8.925   8.179  0.0106 -0.9642 -0.2095
37924SOL    HW124086   3.248   8.889   8.268  0.0684 -0.4240  0.0185
37924SOL    HW224087   3.230   9.018   8.190 -1.2503 -1.1488 -0.9288
37925SOL     OW24088  11.708   6.700  12.919  0.2969 -0.0764 -0.2727
37925SOL    HW124089  11.798   6.733  12.924  0.6234 -0.8359 -0.8514
37925SOL    HW224090  11.660   6.749  12.986  0.0648  3.5909 -2.8449
37926SOL     OW24091   9.841  12.189  10.423 -0.5531  0.1839 -0.2098
37926SOL    HW124092   9.816  12.270  10.469  1.4624  0.5271  0.3874
37926SOL    HW224093   9.898  12.218  10.352  1.2910 -0.7709  0.8195
37927SOL     OW24094   5.033   0.820   9.080  0.8162 -0.3549 -0.4413
37927SOL    HW124095   5.053   0.913   9.088  1.6164 -0.6160  0.7063
37927SOL    HW224096   5.056   0.799   8.989  1.0621  0.4559 -0.5752
37928SOL     OW24097  12.072   1.434   2.181  0.1853  0.0160 -0.0409
37928SOL    HW124098  12.088   1.471   2.268  1.2045 -1.5352  0.4730
37928SOL    HW224099  11.976   1.433   2.173  0.0170 -0.9337  1.6039
37929SOL     OW24100   8.205  10.508   0.261  0.2744  0.1283 -0.0114
37929SOL    HW124101   8.188  10.489   0.353  0.2242 -0.7922 -0.2016
37929SOL    HW224102   8.298  10.531   0.258  0.3565 -0.1599  0.2236
37930SOL     OW24103   2.167  10.205   2.843 -0.4904 -0.6482 -0.5226
37930SOL    HW124104   2.207  10.169   2.764  0.7111 -1.5422  0.4473
37930SOL    HW224105   2.227  10.274   2.870 -0.9896 -0.2293 -0.4780
37931SOL     OW24106   3.727  10.475   5.692  0.7891  0.0588  0.4623
37931SOL    HW124107   3.821  10.456   5.704  0.9781 -1.0220 -2.0080
37931SOL    HW224108   3.712  10.555   5.741  2.8327 -0.1507  1.5499
37932SOL     OW24109   3.741   8.423   6.899  0.2961 -0.0013  0.5681
37932SOL    HW124110   3.771   8.368   6.971  0.5669 -0.7341 -0.0856
37932SOL    HW224111   3.775   8.510   6.919  0.0129 -0.1082  1.5284
37933SOL     OW24112   2.019  11.055   1.831 -0.0649  0.1333  0.2765
37933SOL    HW124113   1.960  10.984   1.853 -0.0959  0.5970  1.7944
37933SOL    HW224114   1.967  11.114   1.776 -0.1284 -0.8326 -0.7338
37934SOL     OW24115   9.524   2.227   0.174  0.1112 -0.7590  0.2293
37934SOL    HW124116   9.563   2.295   0.118 -1.9630 -0.0550 -0.4537
37934SOL    HW224117   9.509   2.271   0.258  1.0252 -1.1288  0.6045
37935SOL     OW24118   6.708   3.116   6.835  0.6203 -0.0492 -0.1976
37935SOL    HW124119   6.654   3.038   6.843  0.5309  0.0273 -0.0585
37935SOL    HW224120   6.771   3.094   6.766  0.5979 -0.2439 -0.1574
37936SOL     OW24121  10.401   8.977   0.955 -0.3950  0.6313  0.1355
37936SOL    HW124122  10.328   9.008   0.901 -0.5980  0.6525  0.4171
37936SOL    HW224123  10.377   9.004   1.044 -2.1214 -2.9833  0.9563
37937SOL     OW24124   8.516   5.595   4.254 -0.2799  0.4138  0.3846
37937SOL    HW124125   8.601   5.638   4.248 -0.2574  0.7784  2.5584
37937SOL    HW224126   8.465   5.650   4.313 -2.1268  0.3005 -1.0040
37938SOL     OW24127   4.835   9.494   0.978 -0.1289 -0.0130 -0.7801
37938SOL    HW124128   4.825   9.405   0.944 -0.1889 -0.1343 -0.4514
37938SOL    HW224129   4.903   9.487   1.045  0.0950  0.2515 -0.9729
37939SOL     OW24130   8.330   3.816   7.929 -0.7377 -0.1546  0.3370
37939SOL    HW124131   8.299   3.905   7.948  1.6192  0.4739  1.8435
37939SOL    HW224132   8.317   3.805   7.835  2.2264  3.3679 -0.7637
37940SOL     OW24133   1.696  12.557   4.306 -0.0702  0.1388 -0.2495
37940SOL    HW124134   1.726  12.630   4.252 -1.7704 -0.4831 -2.1960
37940SOL    HW224135   1.614  12.588   4.345 -1.0821 -0.8119 -1.5016
37941SOL     OW24136   7.475   2.423   6.845  0.0292  0.1820  0.5115
37941SOL    HW124137   7.523   2.340   6.842 -1.1227 -0.6937  3.0065
37941SOL    HW224138   7.383   2.397   6.838 -0.2656  1.5127 -0.9520
37942SOL     OW24139   7.532  11.365   1.475 -0.2287  0.0708  0.3555
37942SOL    HW124140   7.605  11.405   1.428  0.4711 -0.6083  0.8435
37942SOL    HW224141   7.454  11.393   1.427  0.2442  1.7608  0.4987
37943SOL     OW24142   8.798   3.432   2.397  0.5222  0.3080  0.0377
37943SOL    HW124143   8.778   3.411   2.488  2.2969 -0.3561  0.3160
37943SOL    HW224144   8.844   3.516   2.401 -0.6839  1.0182 -0.4213
37944SOL     OW24145   9.434  11.167   5.873 -0.0602  0.3693  0.2351
37944SOL    HW124146   9.461  11.124   5.792  1.1266  1.8681 -0.2100
37944SOL    HW224147   9.340  11.147   5.880  0.0420 -0.6799 -0.9269
37945SOL     OW24148  12.527   7.718   6.188  0.6845 -0.3455  0.0771
37945SOL    HW124149  12.441   7.750   6.160  1.5979  0.0376 -2.6090
37945SOL    HW224150  12.510   7.631   6.224 -0.7212 -0.7800 -1.5190
37946SOL     OW24151   4.535   0.361  10.500 -0.3412  0.0029  0.2320
37946SOL    HW124152   4.469   0.292  10.507  1.0768 -1.2734  1.6041
37946SOL    HW224153   4.569   0.372  10.588  2.0997 -0.2492 -0.5842
37947SOL     OW24154  12.331   9.132   5.840  0.3350 -0.1111  0.4577
37947SOL    HW124155  12.282   9.171   5.768 -0.5671  1.2250  1.7420
37947SOL    HW224156  12.379   9.060   5.800 -0.9907 -0.0963 -1.2571
37948SOL     OW24157   3.941   4.055   2.091  0.2238  0.5894 -0.1853
37948SOL    HW124158   3.885   4.104   2.032 -1.7289 -1.0227  0.2063
37948SOL    HW224159   4.015   4.028   2.037  0.3689  2.2849 -0.8800
37949SOL     OW24160   4.507  12.551  11.447  0.2798 -0.0734 -0.6314
37949SOL    HW124161   4.441  12.524  11.383  1.3134 -1.1285 -1.3014
37949SOL    HW224162   4.462  12.549  11.531 -0.3431 -1.5640 -0.9666
37950SOL     OW24163  12.075   1.589   7.062  0.0366 -0.3570  0.0505
37950SOL    HW124164  11.995   1.642   7.055  0.6338  0.5295 -0.2835
37950SOL    HW224165  12.144   1.647   7.030  1.1680 -0.3090  2.4112
37951SOL     OW24166   1.958   7.384   4.714 -0.3927 -0.0411  0.5825
37951SOL    HW124167   2.046   7.413   4.689 -0.3025 -1.8540 -1.4548
37951SOL    HW224168   1.973   7.300   4.759 -0.9395  0.9346  2.7196
37952SOL     OW24169   6.738   5.297  12.750  0.4554 -0.2132  0.0215
37952SOL    HW124170   6.761   5.362  12.816  0.0500  1.8359 -1.7510
37952SOL    HW224171   6.647   5.274  12.770  0.2654  0.5507  0.0775
37953SOL     OW24172   7.561  10.298   4.595  0.5310 -0.3411 -0.0935
37953SOL    HW124173   7.491  10.352   4.630  1.1343  0.3846  0.0202
37953SOL    HW224174   7.590  10.344   4.516 -0.1922 -1.4737 -1.0503
37954SOL     OW24175   7.321   0.045   7.968 -0.6820 -0.0770 -0.2332
37954SOL    HW124176   7.383   0.018   7.901 -0.1107 -0.8756  0.5965
37954SOL    HW224177   7.270   0.115   7.927 -0.4107 -0.6147 -1.5162
37955SOL     OW24178   6.760   7.138   4.563 -0.7293  0.0730 -0.6447
37955SOL    HW124179   6.787   7.173   4.479 -0.6144 -0.3053 -0.7641
37955SOL    HW224180   6.842   7.123   4.611 -0.8171  1.0843 -0.1365
37956SOL     OW24181   4.061   7.542   6.998 -0.3300 -0.6430 -0.4087
37956SOL    HW124182   4.146   7.565   6.959  0.4556 -0.7714  1.1469
37956SOL    HW224183   4.080   7.532   7.092 -2.0953 -0.5737 -0.0182
37957SOL     OW24184  11.532   5.982  11.173  0.2389  0.6163  0.4065
37957SOL    HW124185  11.440   6.008  11.180  0.1299  0.8451 -1.5492
37957SOL    HW224186  11.570   6.008  11.257 -1.1249  1.9523  0.6593
37958SOL     OW24187   7.168   8.248   0.646  0.2343 -0.2758  0.0656
37958SOL    HW124188   7.256   8.232   0.680 -0.3667  0.0980  1.9050
37958SOL    HW224189   7.123   8.164   0.654  0.2522 -0.3288 -0.3571
37959SOL     OW24190  10.326   7.522  12.538  0.3678  0.2606  0.7018
37959SOL    HW124191  10.272   7.514  12.459 -2.6345  0.0456  2.6479
37959SOL    HW224192  10.345   7.431  12.562  0.0067  0.2813  1.0578
37960SOL     OW24193   1.803   1.432   2.404 -0.8515  0.3728 -0.5380
37960SOL    HW124194   1.817   1.360   2.465  1.6734  0.0095 -1.4168
37960SOL    HW224195   1.709   1.447   2.405 -1.2258 -1.7117  1.0431
37961SOL     OW24196   1.491  12.196  12.679  0.0774  0.2158 -0.3114
37961SOL    HW124197   1.565  12.239  12.638  0.8589 -1.6435 -0.9435
37961SOL    HW224198   1.527  12.156  12.758 -0.5094  0.2408 -0.0226
37962SOL     OW24199  10.203   8.600   4.523 -0.0349 -0.3106 -0.5437
37962SOL    HW124200  10.174   8.686   4.494 -0.4687 -0.2051  0.1684
37962SOL    HW224201  10.130   8.542   4.505  0.0493 -0.4230 -0.5240
37963SOL     OW24202   0.595  11.167   0.536  0.2953 -0.3268 -0.4106
37963SOL    HW124203   0.605  11.076   0.507  0.4538 -0.4710  0.0909
37963SOL    HW224204   0.562  11.213   0.459 -1.4420 -1.1331 -0.2047
37964SOL     OW24205  11.733  12.710   3.220  0.8157  0.0408 -0.3378
37964SOL    HW124206  11.807  12.722   3.280 -0.4186  1.2100  1.0047
37964SOL    HW224207  11.664  12.674   3.274 -0.7531  2.3047 -0.6973
37965SOL     OW24208   0.296  10.344   6.654 -0.7525  0.1826 -0.2085
37965SOL    HW124209   0.249  10.270   6.615  0.4134 -0.8797  0.3464
37965SOL    HW224210   0.255  10.421   6.615 -1.4701 -0.7690 -1.4165
37966SOL     OW24211   3.130   7.206  12.002  0.2966  0.2432 -0.3872
37966SOL    HW124212   3.064   7.209  12.071  2.1273  3.6631  1.5429
37966SOL    HW224213   3.114   7.124  11.956 -1.1653 -2.3166  4.0426
37967SOL     OW24214   8.200   5.429   2.639 -0.2659 -0.6044  0.1856
37967SOL    HW124215   8.204   5.451   2.732 -0.6363  0.3436 -0.0152
37967SOL    HW224216   8.108   5.407   2.624 -0.1727 -0.9248  0.0746
37968SOL     OW24217   7.581  12.974   6.820  0.2456 -0.1327  0.2931
37968SOL    HW124218   7.667  12.980   6.779  0.4358  2.0824  0.9184
37968SOL    HW224219   7.570  13.057   6.867 -1.9458 -0.6400  0.8007
37969SOL     OW24220  10.581  11.523  12.685  0.1619 -0.4122 -0.4640
37969SOL    HW124221  10.572  11.574  12.604 -2.6024 -1.2037 -0.7597
37969SOL    HW224222  10.571  11.587  12.755 -1.0655 -0.1810 -0.8216
37970SOL     OW24223   1.591   0.472   1.560 -0.4359 -0.4558  0.9966
37970SOL    HW124224   1.532   0.408   1.520 -0.3500 -0.8505  1.4927
37970SOL    HW224225   1.603   0.538   1.492  0.2882 -1.4795  0.0857
37971SOL     OW24226   8.220   3.484   6.850  0.6372 -0.0360  0.6949
37971SOL    HW124227   8.187   3.485   6.760  0.4309  0.0029  0.7713
37971SOL    HW224228   8.209   3.574   6.881  1.0694  0.0427  0.6305
37972SOL     OW24229   2.778   9.536   4.521 -0.2238 -0.0490  0.5130
37972SOL    HW124230   2.716   9.602   4.490 -0.1270  0.2744  0.9883
37972SOL    HW224231   2.823   9.578   4.595  1.2356  0.0663 -0.4053
37973SOL     OW24232  12.033  10.866  10.750 -0.2582  0.0746 -0.2432
37973SOL    HW124233  12.066  10.945  10.708 -0.5619 -0.5495 -1.7397
37973SOL    HW224234  12.105  10.803  10.743 -0.1872  0.0659  0.4999
37974SOL     OW24235   8.226   2.814   8.376  0.4700  0.4070 -0.8616
37974SOL    HW124236   8.247   2.725   8.404  1.1891  1.1236  1.1163
37974SOL    HW224237   8.309   2.849   8.344  0.7137  0.9846  0.3211
37975SOL     OW24238   0.184  12.591  12.378  0.0770 -0.3070 -0.0909
37975SOL    HW124239   0.092  12.565  12.366 -0.0594 -0.3100  0.8886
37975SOL    HW224240   0.183  12.650  12.453  1.1941 -2.3756  1.6817
37976SOL     OW24241   4.578  12.834   0.549  0.1124 -0.0852  0.1830
37976SOL    HW124242   4.562  12.924   0.575  0.3535  0.0337 -0.0752
37976SOL    HW224243   4.651  12.839   0.487  0.1707 -0.4624  0.2175
37977SOL     OW24244   3.109   5.434   6.311  0.2526  0.3947  0.1860
37977SOL    HW124245   3.170   5.465   6.245 -0.3328 -0.7191 -0.9366
37977SOL    HW224246   3.162   5.381   6.370  0.0236 -3.8899 -2.9301
37978SOL     OW24247   6.337  10.588   9.631 -0.4505 -0.4826  0.2740
37978SOL    HW124248   6.349  10.528   9.558  2.7573  2.1872 -1.6899
37978SOL    HW224249   6.419  10.581   9.681 -1.9717 -1.1490  2.8794
37979SOL     OW24250   5.581   0.806   4.856 -0.1335 -0.4977 -0.0034
37979SOL    HW124251   5.642   0.880   4.852 -1.1649  0.3342 -1.1267
37979SOL    HW224252   5.501   0.843   4.894 -1.2719 -0.5336 -2.2161
37980SOL     OW24253  12.949   0.275   7.620  0.8766  0.2110  0.2073
37980SOL    HW124254  13.009   0.350   7.624 -0.2887  1.2061 -0.1980
37980SOL    HW224255  12.863   0.313   7.638  0.2906 -1.0832  0.2002
37981SOL     OW24256   0.329   5.270  11.308  0.1708 -0.3981  0.5327
37981SOL    HW124257   0.372   5.283  11.223  0.7232 -0.6905  0.7611
37981SOL    HW224258   0.247   5.317  11.300  0.6677  0.4414  0.1910
37982SOL     OW24259  12.882  10.192   4.247 -0.4210  0.0673 -0.2953
37982SOL    HW124260  12.802  10.189   4.195  0.6255  1.2385 -2.0906
37982SOL    HW224261  12.907  10.285   4.247  0.8102 -0.2379  0.4266
37983SOL     OW24262   0.869   1.555   4.108 -0.6754 -0.2807  0.1315
37983SOL    HW124263   0.961   1.578   4.095 -0.7328 -0.6222 -0.9449
37983SOL    HW224264   0.827   1.639   4.128  0.1229 -0.3404  2.3608
37984SOL     OW24265   2.515   9.245   4.720 -0.2150  0.2918 -0.7644
37984SOL    HW124266   2.607   9.231   4.698  0.3220  2.1702  0.1310
37984SOL    HW224267   2.484   9.160   4.752  1.8355  0.1737  1.0730
37985SOL     OW24268  10.348   6.413   5.902  0.2848  0.2520  0.3048
37985SOL    HW124269  10.283   6.377   5.963  0.1842  0.1053  0.1113
37985SOL    HW224270  10.431   6.408   5.950  0.0182  1.2500  0.8854
37986SOL     OW24271   2.583   8.917  10.499 -0.0685  0.3729  0.5862
37986SOL    HW124272   2.671   8.920  10.461  0.9117  1.4309  2.7310
37986SOL    HW224273   2.530   8.869  10.435  1.8375  0.5181 -1.1960
37987SOL     OW24274   7.384   8.235  10.646  0.2004  0.5554  0.2826
37987SOL    HW124275   7.434   8.163  10.608 -1.1050 -1.7625  2.6154
37987SOL    HW224276   7.446   8.280  10.704  0.4806 -0.0766  0.4765
37988SOL     OW24277   5.360  10.748   1.249  0.1008  0.0236  0.2452
37988SOL    HW124278   5.453  10.730   1.260  0.6961  3.2609  2.0193
37988SOL    HW224279   5.351  10.771   1.157  0.8631 -1.1425 -0.1391
37989SOL     OW24280   3.822   2.510  10.055  0.6077  0.1386 -0.3693
37989SOL    HW124281   3.845   2.578  10.118 -0.0823 -2.3215  2.8428
37989SOL    HW224282   3.726   2.510  10.053  0.5698 -1.0603  0.1773
37990SOL     OW24283   4.671   3.474   8.875  0.3832 -0.1950  0.6974
37990SOL    HW124284   4.758   3.458   8.839 -0.0880  1.2695 -1.2568
37990SOL    HW224285   4.671   3.566   8.899 -0.1999 -0.5186  1.9972
37991SOL     OW24286   5.029  10.315   6.377  0.2175 -0.5407 -0.5415
37991SOL    HW124287   5.048  10.224   6.401 -1.5962 -0.8100 -0.0312
37991SOL    HW224288   5.069  10.367   6.447  0.5719 -0.9768 -0.4146
37992SOL     OW24289   2.794   3.322   8.106 -0.2452 -0.3198 -0.1693
37992SOL    HW124290   2.807   3.403   8.155  1.0874 -1.2828  1.1700
37992SOL    HW224291   2.834   3.339   8.021 -0.9205  0.7577 -0.2923
37993SOL     OW24292   0.520   7.971  10.882 -0.5711  0.0034 -0.2459
37993SOL    HW124293   0.479   8.040  10.933 -0.4490 -1.1517  1.5310
37993SOL    HW224294   0.610   7.967  10.916  0.1137  0.4438 -1.9098
37994SOL     OW24295   0.127   7.439   8.977 -0.1297  0.1775 -0.3253
37994SOL    HW124296   0.178   7.359   8.988 -2.0721 -1.0155  0.6297
37994SOL    HW224297   0.072   7.444   9.056 -3.9496 -0.5532 -2.6654
37995SOL     OW24298   6.685   9.426   6.317 -0.4465  0.2327 -0.1177
37995SOL    HW124299   6.663   9.466   6.401 -1.7637 -0.0940 -0.2895
37995SOL    HW224300   6.731   9.345   6.339 -1.0335  0.0107  0.2997
37996SOL     OW24301  11.033  11.615   2.312  0.1501  0.1226  0.1138
37996SOL    HW124302  11.056  11.695   2.264 -1.3055  0.6889  0.3135
37996SOL    HW224303  11.027  11.548   2.244 -1.4550  0.8278 -0.4999
37997SOL     OW24304   4.406   8.674   9.570  0.7855 -0.4976  0.3895
37997SOL    HW124305   4.465   8.626   9.629  2.0512 -0.3747 -0.7571
37997SOL    HW224306   4.392   8.758   9.614  0.1150 -1.1507  1.4671
37998SOL     OW24307  10.310   8.854   1.761 -0.2119 -0.5256 -0.0823
37998SOL    HW124308  10.275   8.803   1.834 -0.9181  1.6505  1.2240
37998SOL    HW224309  10.364   8.921   1.802 -0.9522  1.0288 -1.4822
37999SOL     OW24310   0.577   6.156   9.385  0.1413 -0.4060  0.4804
37999SOL    HW124311   0.630   6.190   9.457  1.4628 -0.8119 -0.2647
37999SOL    HW224312   0.486   6.167   9.415  0.6060  0.9134  1.5135
38000SOL     OW24313   3.509   1.225   3.633 -0.1161  0.4325  0.5112
38000SOL    HW124314   3.475   1.148   3.588 -1.1277  1.8973 -1.3723
38000SOL    HW224315   3.571   1.264   3.571  0.1311  1.3286  1.2972
38001SOL     OW24316   9.142   4.338   6.610  0.4863 -0.0494  0.2153
38001SOL    HW124317   9.181   4.412   6.563  1.1402  0.1509  1.0388
38001SOL    HW224318   9.151   4.362   6.703 -0.3221 -0.6532  0.4551
38002SOL     OW24319   3.791   6.637   4.145  0.0574 -0.1175  0.4618
38002SOL    HW124320   3.739   6.659   4.068  0.2463  0.0048  0.3709
38002SOL    HW224321   3.812   6.721   4.185 -1.6945 -0.2201  1.7494
38003SOL     OW24322  11.567   0.427   7.579  0.4410  0.4342 -0.0301
38003SOL    HW124323  11.558   0.333   7.597 -0.5202  0.1674 -1.7149
38003SOL    HW224324  11.485   0.465   7.609  1.1645  0.9036  1.4394
38004SOL     OW24325   7.110  12.661  10.657  0.0065 -0.8094  0.1766
38004SOL    HW124326   7.070  12.575  10.673  1.9923 -1.6594  0.8781
38004SOL    HW224327   7.189  12.661  10.711 -0.1141  1.6147  0.4472
38005SOL     OW24328   3.871   2.542   7.984 -0.1499  0.0885 -0.3196
38005SOL    HW124329   3.780   2.563   8.007 -0.1975 -0.0638 -0.3688
38005SOL    HW224330   3.923   2.608   8.030 -0.2465 -0.1698  0.1730
38006SOL     OW24331   4.437  10.178   0.144  0.1991 -0.3782  0.7265
38006SOL    HW124332   4.446  10.135   0.229 -1.0142 -1.3846  0.3866
38006SOL    HW224333   4.349  10.154   0.115  0.4012  0.3808 -0.5804
38007SOL     OW24334   9.523   3.507   3.726  0.6606 -0.1122  0.1514
38007SOL    HW124335   9.434   3.529   3.702  0.6077  0.2764  0.7060
38007SOL    HW224336   9.546   3.434   3.667 -0.2546 -0.6783  0.4685
38008SOL     OW24337  10.797   5.228   8.468 -0.4393  0.6746  0.1112
38008SOL    HW124338  10.816   5.192   8.381  0.3332  3.0140 -0.7781
38008SOL    HW224339  10.882   5.261   8.498 -0.7645  0.1585  1.6534
38009SOL     OW24340   4.361   9.592   7.753  0.3622 -0.6751 -0.6100
38009SOL    HW124341   4.360   9.630   7.841 -1.1454 -1.0063 -0.4613
38009SOL    HW224342   4.274   9.609   7.719  1.0636 -0.1762 -2.2312
38010SOL     OW24343  11.131  12.162   0.628 -0.1787 -0.5338 -0.4397
38010SOL    HW124344  11.151  12.191   0.539  0.7979 -2.2019 -0.8084
38010SOL    HW224345  11.078  12.083   0.617  1.0352 -1.5056  0.4068
38011SOL     OW24346  12.459   8.960   9.554  0.3330  0.1558  0.4313
38011SOL    HW124347  12.491   8.995   9.637 -2.3146  0.7611  1.2925
38011SOL    HW224348  12.381   8.910   9.577 -0.2073 -0.0514 -1.6348
38012SOL     OW24349   9.137   9.147   7.699  0.0648  0.8379  0.2445
38012SOL    HW124350   9.121   9.084   7.769  2.2466 -0.7210 -0.5627
38012SOL    HW224351   9.057   9.145   7.646 -0.0223 -1.1408  0.3682
38013SOL     OW24352   2.191   5.899  10.397 -0.9232 -0.6939  0.2225
38013SOL    HW124353   2.147   5.980  10.422 -0.4887 -0.7292  1.1299
38013SOL    HW224354   2.227   5.917  10.310 -0.2744  0.3081  0.6920
38014SOL     OW24355   2.612   3.940  11.793  0.1465  0.3566 -0.8388
38014SOL    HW124356   2.606   3.994  11.872  0.3320 -0.9631  0.0974
38014SOL    HW224357   2.693   3.969  11.751  0.9161 -0.0448  0.3189
38015SOL     OW24358  10.232   8.328   2.350  0.0469  0.3597  0.3110
38015SOL    HW124359  10.289   8.335   2.273  0.9086 -1.4639  0.7326
38015SOL    HW224360  10.155   8.280   2.320 -0.1712  0.7048  0.3114
38016SOL     OW24361  12.683   4.468   9.492  0.4828 -0.3033  0.6958
38016SOL    HW124362  12.749   4.454   9.559  1.8543  1.4513 -0.2134
38016SOL    HW224363  12.733   4.489   9.413 -1.1221  2.4554  0.2876
38017SOL     OW24364   4.727  10.259   0.592 -0.3323  0.0736  0.7277
38017SOL    HW124365   4.669  10.321   0.637  0.3265  1.7918 -0.6763
38017SOL    HW224366   4.703  10.267   0.500  0.2901 -1.2250  0.4405
38018SOL     OW24367   0.639   0.541   4.855 -0.3901  0.1427 -0.6020
38018SOL    HW124368   0.643   0.474   4.787  0.0543  0.2850 -0.7225
38018SOL    HW224369   0.615   0.621   4.808  0.2929  0.3205 -0.6545
38019SOL     OW24370  11.876   6.777   3.780 -0.6056  0.1246  0.0983
38019SOL    HW124371  11.804   6.747   3.835  0.9188  0.1389  2.2213
38019SOL    HW224372  11.836   6.841   3.721 -2.2242  0.6265  1.6675
38020SOL     OW24373   9.385   7.620  11.427  0.8176 -0.6567 -0.4711
38020SOL    HW124374   9.368   7.698  11.479 -1.4658 -1.8668  0.7654
38020SOL    HW224375   9.461   7.579  11.470 -0.2043 -0.9394  1.1737
38021SOL     OW24376   7.259   7.604   3.067 -0.1457  0.7146  0.6676
38021SOL    HW124377   7.266   7.684   3.014 -0.2713  0.6475  0.5465
38021SOL    HW224378   7.165   7.584   3.067 -0.5913  2.3112  3.3117
38022SOL     OW24379   3.803  12.174  12.777 -0.1601 -0.5310 -0.3228
38022SOL    HW124380   3.794  12.099  12.836 -3.1016  0.8488  1.2010
38022SOL    HW224381   3.814  12.135  12.691  2.9778 -2.6411  0.8239
38023SOL     OW24382   3.150  12.631   0.602 -0.7557  0.2159 -0.1632
38023SOL    HW124383   3.115  12.682   0.528  0.1354  0.3946 -0.4790
38023SOL    HW224384   3.163  12.543   0.566 -0.3047  0.3077 -0.2269
38024SOL     OW24385   8.990   2.796   4.696  0.2828  0.2104  0.0097
38024SOL    HW124386   8.947   2.730   4.751  1.4368  0.3419  1.1154
38024SOL    HW224387   9.041   2.744   4.634 -0.1088  0.0672 -0.1989
38025SOL     OW24388   6.632   8.017  10.313 -0.5335  0.2714  0.2913
38025SOL    HW124389   6.660   8.098  10.356 -1.5362  0.2983  0.9202
38025SOL    HW224390   6.666   8.025  10.224  2.4613 -0.2264  1.2690
38026SOL     OW24391   0.821   8.225   9.261  0.1415 -0.0618  0.1173
38026SOL    HW124392   0.766   8.294   9.299 -0.6280 -1.3533  1.4720
38026SOL    HW224393   0.909   8.243   9.296  0.1411  0.7285 -0.2652
38027SOL     OW24394  12.013   9.603   0.216  0.1946  0.0080  0.2984
38027SOL    HW124395  11.960   9.525   0.234  1.1614 -0.8157 -0.3285
38027SOL    HW224396  11.972   9.643   0.140 -0.1103 -0.0691  0.4201
38028SOL     OW24397   8.075   9.437   0.803  0.1349  0.0546  0.0458
38028SOL    HW124398   8.047   9.360   0.753  0.9280  0.7969 -1.6285
38028SOL    HW224399   8.023   9.509   0.768  0.8619  0.6259  0.1101
38029SOL     OW24400   9.649   3.271   6.418 -1.0011 -0.5096  0.1303
38029SOL    HW124401   9.635   3.348   6.364  1.6075  0.2060  0.3706
38029SOL    HW224402   9.591   3.205   6.381 -1.3770  0.7932 -1.7240
38030SOL     OW24403   9.092   2.155   8.075  0.0933 -0.0116 -0.3484
38030SOL    HW124404   9.146   2.166   8.153  0.5111  2.6394 -0.9025
38030SOL    HW224405   9.024   2.093   8.101  0.0867  0.9448  2.2004
38031SOL     OW24406   2.965   1.997   3.251  0.4397 -0.1051 -0.1297
38031SOL    HW124407   2.924   1.911   3.242 -1.1347  0.6474 -0.3645
38031SOL    HW224408   2.893   2.057   3.265  1.5569  1.1341  0.5806
38032SOL     OW24409   5.026   0.789   2.638 -0.6152  0.5518  0.0887
38032SOL    HW124410   4.954   0.794   2.576 -0.8198  0.2315  0.2985
38032SOL    HW224411   4.988   0.751   2.717 -0.0494 -0.3588 -0.0559
38033SOL     OW24412   4.345   1.160  11.659 -0.5707 -0.1456 -0.5504
38033SOL    HW124413   4.312   1.131  11.574 -1.1098  0.5409 -0.5878
38033SOL    HW224414   4.369   1.252  11.646  2.0702 -0.7638 -0.7101
38034SOL     OW24415   3.547   6.953   4.261 -0.0902  0.0711  0.0848
38034SOL    HW124416   3.487   7.023   4.234 -1.0069 -1.6122 -2.7112
38034SOL    HW224417   3.578   6.980   4.347 -2.1107  2.7859  0.1086
38035SOL     OW24418  10.320   5.084   0.956 -0.0341 -0.3307  0.1686
38035SOL    HW124419  10.376   5.017   0.917  0.5744 -0.4449  1.2025
38035SOL    HW224420  10.286   5.043   1.036  0.3154  0.5721  0.7883
38036SOL     OW24421  12.153   6.410   6.007 -0.4821 -0.2102 -0.4561
38036SOL    HW124422  12.080   6.372   5.958  0.1421  0.6001 -2.0759
38036SOL    HW224423  12.164   6.497   5.970  1.3941 -0.3647 -0.3557
38037SOL     OW24424   0.586   8.366   5.289  0.0380  0.6892  0.1847
38037SOL    HW124425   0.583   8.312   5.210  0.0437 -1.0429  1.3315
38037SOL    HW224426   0.677   8.363   5.317 -0.3360 -0.3767  1.3528
38038SOL     OW24427   5.424   7.630   1.590  0.1928  0.3618 -0.0905
38038SOL    HW124428   5.420   7.590   1.677 -1.1261  1.7226  0.5068
38038SOL    HW224429   5.347   7.597   1.544 -0.6971  1.8222  0.2747
38039SOL     OW24430   6.689   2.925   9.556  0.1078 -0.2282  0.3631
38039SOL    HW124431   6.785   2.922   9.551  0.0352 -2.4622 -1.6147
38039SOL    HW224432   6.660   2.902   9.468 -2.2892  0.2683  0.9445
38040SOL     OW24433   0.131   8.678   9.294 -0.4368  0.3468 -0.2044
38040SOL    HW124434   0.118   8.585   9.313 -1.5875  0.8486  1.7612
38040SOL    HW224435   0.149   8.681   9.200  0.3568 -1.9136 -0.1944
38041SOL     OW24436   9.398   3.571   1.707 -0.2919 -0.2098  0.3793
38041SOL    HW124437   9.468   3.573   1.641 -1.1613 -1.2209 -0.6213
38041SOL    HW224438   9.338   3.640   1.679  0.6071  1.1410  1.6399
38042SOL     OW24439  10.839  11.705   4.834 -0.0004 -0.5800 -0.1144
38042SOL    HW124440  10.810  11.737   4.749 -0.3538 -1.8262 -0.4788
38042SOL    HW224441  10.760  11.667   4.874 -0.3761  1.8782  1.7086
38043SOL     OW24442   0.566   8.583   4.940 -0.5351 -0.4139 -0.7851
38043SOL    HW124443   0.482   8.620   4.913 -1.7358 -1.5008  1.2560
38043SOL    HW224444   0.584   8.624   5.024  1.6974  0.7807 -1.7563
38044SOL     OW24445   3.250   2.511  12.867  0.0779  0.1329 -0.7735
38044SOL    HW124446   3.195   2.489  12.792 -0.1249 -0.1315 -0.5485
38044SOL    HW224447   3.225   2.448  12.935  0.0103  0.5955 -0.3648
38045SOL     OW24448  11.727   3.846  10.705 -0.2585 -0.3199 -0.0713
38045SOL    HW124449  11.656   3.823  10.766  1.4314 -0.2888  2.0061
38045SOL    HW224450  11.751   3.935  10.729  2.1098 -1.1681  1.0034
38046SOL     OW24451  10.831   7.402  10.453 -0.5823  0.0913  0.0468
38046SOL    HW124452  10.844   7.470  10.519  0.1932  1.1800 -1.1653
38046SOL    HW224453  10.893   7.333  10.478  0.1033  0.7323  0.1730
38047SOL     OW24454   7.824   2.817   3.617  0.2438  0.0392  0.0861
38047SOL    HW124455   7.916   2.832   3.592 -0.0980  3.2721  0.3956
38047SOL    HW224456   7.775   2.837   3.537 -0.4202  3.8409  1.2548
38048SOL     OW24457   3.648   9.486   4.865  0.5747 -0.8937  0.1178
38048SOL    HW124458   3.666   9.442   4.783  0.7939 -0.3435 -0.1353
38048SOL    HW224459   3.672   9.423   4.933  1.4060 -0.9596 -0.2302
38049SOL     OW24460   0.756   7.832   9.524 -0.1392  0.2397  0.4587
38049SOL    HW124461   0.738   7.926   9.519 -1.2496 -0.0352 -1.9161
38049SOL    HW224462   0.671   7.792   9.543 -0.0472 -0.4010 -0.4205
38050SOL     OW24463   9.083   3.023   2.020 -0.0575 -0.0089  0.2561
38050SOL    HW124464   9.156   3.068   2.063  0.7218 -0.5650 -0.4339
38050SOL    HW224465   9.109   2.931   2.019 -0.6834 -0.1867 -0.1627
38051SOL     OW24466   3.041  11.554   4.716  0.2134 -0.0362 -0.3900
38051SOL    HW124467   3.050  11.647   4.697  1.3173  0.0719  0.5196
38051SOL    HW224468   3.088  11.510   4.646  2.1188  0.2446  0.6489
38052SOL     OW24469   2.960   6.260   9.077 -0.3011  0.4105  0.0121
38052SOL    HW124470   2.938   6.168   9.066 -1.5261  0.8335 -1.4222
38052SOL    HW224471   3.033   6.275   9.017 -0.5067  0.5103 -0.2136
38053SOL     OW24472   3.109   7.359   6.869 -0.5913 -0.5499 -0.2254
38053SOL    HW124473   3.109   7.394   6.958 -2.0843 -1.1141  0.0283
38053SOL    HW224474   3.165   7.282   6.874  0.3069  0.0942 -0.0805
38054SOL     OW24475   4.951   2.469   0.712  0.3513  0.6022 -0.0211
38054SOL    HW124476   4.980   2.459   0.621  0.6428  0.8202  0.0461
38054SOL    HW224477   4.873   2.415   0.718  0.4320  0.4435 -0.3555
38055SOL     OW24478   4.561   6.576   8.231 -0.0359 -0.3331 -0.1357
38055SOL    HW124479   4.474   6.616   8.229 -0.0179 -0.2801  0.1748
38055SOL    HW224480   4.620   6.647   8.206  0.1032  0.1233  1.3963
38056SOL     OW24481   7.301   9.764   8.875  0.2351  0.1877  0.3020
38056SOL    HW124482   7.337   9.810   8.800  1.4524 -0.4031  0.5081
38056SOL    HW224483   7.361   9.691   8.891 -1.1146 -0.9193  0.5795
38057SOL     OW24484   9.954   9.138   4.043  0.2173 -0.1986 -0.5053
38057SOL    HW124485   9.920   9.214   3.996  0.0856  0.4432  0.6004
38057SOL    HW224486   9.876   9.086   4.064  0.1000  0.3367  0.4116
38058SOL     OW24487   0.534   2.286  10.105 -0.0517 -0.2353 -0.2550
38058SOL    HW124488   0.563   2.239  10.027 -0.7261  0.0822 -0.7101
38058SOL    HW224489   0.457   2.336  10.076  0.8365  1.4321  0.1115
38059SOL     OW24490   5.360   8.359   3.296 -0.2338  0.1763 -0.0591
38059SOL    HW124491   5.298   8.424   3.330  0.3078  1.6512 -1.7542
38059SOL    HW224492   5.306   8.282   3.278 -1.4623  1.1585 -0.7599
38060SOL     OW24493  10.251   9.284   0.473 -0.6227  0.2815 -0.0693
38060SOL    HW124494  10.303   9.359   0.445  1.4877 -0.9478  0.3472
38060SOL    HW224495  10.282   9.264   0.561 -3.0952  0.5473  0.9375
38061SOL     OW24496   7.223   3.144   8.191 -0.3887 -0.6964 -0.3776
38061SOL    HW124497   7.306   3.096   8.187  0.3915  0.5486 -0.0875
38061SOL    HW224498   7.206   3.170   8.100 -0.4872 -1.0089 -0.4467
38062SOL     OW24499   5.075  10.119   1.685 -0.0838  0.1559  0.3174
38062SOL    HW124500   5.169  10.137   1.688 -0.3341  1.3936  1.7686
38062SOL    HW224501   5.034  10.205   1.680 -1.1402 -0.4085 -1.2385
38063SOL     OW24502   7.718   8.482   3.872  0.3049 -0.2925 -0.5213
38063SOL    HW124503   7.813   8.470   3.878  0.6996  1.9082 -1.3950
38063SOL    HW224504   7.694   8.519   3.957  0.2641 -0.6228 -0.3881
38064SOL     OW24505  10.230   9.326   4.722 -0.2179  0.0829 -0.6665
38064SOL    HW124506  10.315   9.329   4.678 -0.4279 -0.7123 -1.1678
38064SOL    HW224507  10.248   9.351   4.812  0.2651  1.5351 -1.1481
38065SOL     OW24508   9.974   5.029   6.614  0.3301 -0.2459  0.1664
38065SOL    HW124509   9.911   4.974   6.568  0.2528 -0.8662  0.9897
38065SOL    HW224510  10.046   4.970   6.635  0.1248 -0.1001  1.3012
38066SOL     OW24511   9.141   0.349   2.526  0.1048  0.0447 -0.8620
38066SOL    HW124512   9.140   0.433   2.572  1.3652 -0.1019 -0.5356
38066SOL    HW224513   9.054   0.312   2.543 -0.9484  1.7985 -2.0445
38067SOL     OW24514   2.135   0.025   9.801 -0.4444 -0.3255  0.6641
38067SOL    HW124515   2.226   0.018   9.829 -0.0826  0.4360 -0.2623
38067SOL    HW224516   2.088   0.051   9.880  0.1674 -0.5556  1.1104
38068SOL     OW24517   5.397   0.916   6.502  0.0216 -0.3924 -0.1315
38068SOL    HW124518   5.403   0.969   6.423 -1.0403 -2.4798 -1.6822
38068SOL    HW224519   5.486   0.917   6.538  1.1900 -1.5044 -2.7864
38069SOL     OW24520   6.399   2.758   6.249 -0.0720 -0.0170  0.1098
38069SOL    HW124521   6.473   2.705   6.220 -0.4783 -0.9821  0.7729
38069SOL    HW224522   6.329   2.739   6.186 -0.0263  0.2379 -0.0221
38070SOL     OW24523   7.125   7.830   3.207 -0.7154  0.3365  0.6579
38070SOL    HW124524   7.096   7.851   3.118  2.8200  1.6103 -0.3654
38070SOL    HW224525   7.155   7.739   3.203  0.2293  0.6536  0.2673
38071SOL     OW24526   8.058   8.486   4.441 -0.3546  0.6706 -0.3873
38071SOL    HW124527   8.065   8.580   4.455 -2.2115  0.7755  0.1178
38071SOL    HW224528   8.046   8.477   4.347  0.1598  0.9068 -0.4781
38072SOL     OW24529  10.661   2.884  12.404  0.5896 -1.1362  0.3888
38072SOL    HW124530  10.655   2.940  12.481  0.8996 -1.7288  0.8578
38072SOL    HW224531  10.733   2.825  12.423  1.7786 -0.2408 -1.0641
38073SOL     OW24532   0.379   3.946   2.512  0.7614  0.3448 -0.0213
38073SOL    HW124533   0.291   3.984   2.516  1.7016  2.8450 -1.0447
38073SOL    HW224534   0.375   3.882   2.442 -0.0159  1.1620 -0.7492
38074SOL     OW24535   0.689   2.062   1.546 -0.0710  0.1362  0.0784
38074SOL    HW124536   0.659   1.972   1.561 -0.0707 -0.0955 -1.2075
38074SOL    HW224537   0.780   2.052   1.516 -0.3861  0.4804 -1.0354
38075SOL     OW24538  10.211  10.041   2.220 -0.4211  0.2158  0.0224
38075SOL    HW124539  10.289  10.051   2.166 -0.5235  1.5271  0.0698
38075SOL    HW224540  10.212   9.950   2.249  0.1178 -0.2622 -1.4452
38076SOL     OW24541  11.401   0.161   1.797  0.4653  0.1632 -0.4598
38076SOL    HW124542  11.376   0.151   1.706  0.9313  0.5647 -0.6391
38076SOL    HW224543  11.349   0.096   1.844  1.8512 -1.6381 -1.2812
38077SOL     OW24544   9.437   8.757   0.573 -0.1936 -0.4548 -0.1457
38077SOL    HW124545   9.461   8.729   0.484  0.8296  0.7476 -0.2807
38077SOL    HW224546   9.360   8.813   0.560 -0.2880 -0.6015 -0.2269
38078SOL     OW24547  10.658   4.736   0.702  0.1269 -0.3959  0.2060
38078SOL    HW124548  10.564   4.732   0.682 -0.2861 -2.7284  2.1344
38078SOL    HW224549  10.673   4.826   0.728 -1.5390  0.0914 -0.3596
38079SOL     OW24550   2.906   5.348  10.480  0.2278  0.1167  0.4238
38079SOL    HW124551   2.991   5.356  10.436 -0.1532  0.2643 -0.3115
38079SOL    HW224552   2.861   5.430  10.460 -0.5070 -0.4029 -0.1437
38080SOL     OW24553   1.904   6.512   7.782 -0.0137 -0.0084 -0.0754
38080SOL    HW124554   1.860   6.473   7.857  1.8933  0.5285  1.4008
38080SOL    HW224555   1.839   6.509   7.712 -2.1991  0.2994  1.8114
38081SOL     OW24556  10.588  10.439   7.089  0.0462 -0.3402 -0.4085
38081SOL    HW124557  10.670  10.488   7.085 -0.7365  1.0697  0.2868
38081SOL    HW224558  10.608  10.356   7.045  1.0947  1.0156 -2.6476
38082SOL     OW24559   8.822   1.560   8.069 -0.1513  0.5865  0.1221
38082SOL    HW124560   8.848   1.469   8.061  0.0193  0.7154 -0.9487
38082SOL    HW224561   8.745   1.559   8.127 -0.1507 -0.2224  0.1117
38083SOL     OW24562   8.376  10.362   7.255 -0.6127  0.2591 -0.0934
38083SOL    HW124563   8.333  10.276   7.260 -0.0636 -0.1533 -1.7081
38083SOL    HW224564   8.318  10.421   7.303 -1.5551 -0.8140  0.1318
38084SOL     OW24565   0.121   2.371   3.944 -0.5085 -0.1803 -0.5453
38084SOL    HW124566   0.207   2.331   3.959 -0.0580  1.0611  0.2762
38084SOL    HW224567   0.087   2.326   3.866  2.6316  2.0486 -3.5076
38085SOL     OW24568   3.788   6.993   7.793  0.8450 -0.1936 -0.1407
38085SOL    HW124569   3.817   6.987   7.884 -0.1489  0.2601  0.2166
38085SOL    HW224570   3.808   7.083   7.768  0.1519 -0.0062 -0.0293
38086SOL     OW24571   9.353   7.870   9.180 -0.5046 -0.5476  0.4319
38086SOL    HW124572   9.446   7.859   9.161 -0.5019  0.7784 -0.4549
38086SOL    HW224573   9.309   7.811   9.119 -0.3253  0.5803 -0.8091
38087SOL     OW24574   4.136   1.923  10.371  0.0085 -0.5189 -0.9269
38087SOL    HW124575   4.063   1.953  10.318 -0.7757  2.6374  1.6281
38087SOL    HW224576   4.098   1.854  10.426 -1.2285  1.1553  0.4497
38088SOL     OW24577  11.649   7.424   0.783 -0.1066 -0.4475  0.0007
38088SOL    HW124578  11.584   7.487   0.815  1.3401  1.4498 -0.5890
38088SOL    HW224579  11.628   7.342   0.828 -2.4819  0.2598  0.2999
38089SOL     OW24580   2.933   7.898   3.941  0.2984  0.6953 -0.4407
38089SOL    HW124581   2.940   7.975   3.997  0.1224 -0.0790  0.6774
38089SOL    HW224582   3.023   7.879   3.914  0.2121  2.0384 -1.8051
38090SOL     OW24583  11.741   7.379   4.304  0.6389  0.9260 -0.1359
38090SOL    HW124584  11.657   7.371   4.260  1.0031  1.1583 -0.8911
38090SOL    HW224585  11.745   7.470   4.333  1.5567  1.5644 -2.0809
38091SOL     OW24586   2.635   4.188   4.621  0.3294  0.2232 -0.5321
38091SOL    HW124587   2.623   4.205   4.715 -0.1880 -1.5595 -0.2508
38091SOL    HW224588   2.614   4.272   4.579 -1.2863  0.5505  0.8134
38092SOL     OW24589  11.192  12.467   7.386  0.3051 -0.4683  0.1304
38092SOL    HW124590  11.252  12.428   7.450 -1.4247 -1.1962  1.3633
38092SOL    HW224591  11.145  12.535   7.434 -0.8659 -0.8651 -0.4142
38093SOL     OW24592  10.153   0.189   5.051  0.4562 -0.2068 -0.5556
38093SOL    HW124593  10.246   0.169   5.055  0.8898  1.0497 -2.8605
38093SOL    HW224594  10.115   0.139   5.123  2.8569 -0.9168  0.3186
38094SOL     OW24595   4.874   1.777   4.488 -0.3481  0.2182  0.2378
38094SOL    HW124596   4.802   1.796   4.548  0.1831  2.6285  0.2331
38094SOL    HW224597   4.832   1.759   4.404 -0.9805  0.3352  0.5262
38095SOL     OW24598   1.533   4.595   4.303  0.2566  0.0665  0.2715
38095SOL    HW124599   1.610   4.651   4.311 -0.1805  0.5052  1.7252
38095SOL    HW224600   1.483   4.612   4.383 -0.6517 -1.2654  0.0118
38096SOL     OW24601   5.455   0.761   3.581 -0.3605 -0.4976  0.4534
38096SOL    HW124602   5.385   0.705   3.548 -1.2027  0.9183 -0.2540
38096SOL    HW224603   5.515   0.701   3.625 -1.9036 -1.7748  0.9054
38097SOL     OW24604  11.904   3.384   5.726 -0.0141  0.2888 -0.7976
38097SOL    HW124605  11.936   3.349   5.809  0.1952 -1.5252 -1.5961
38097SOL    HW224606  11.897   3.478   5.741 -0.8117 -0.0714  1.5329
38098SOL     OW24607   5.052   3.920   2.869 -0.0629 -0.7154 -0.6050
38098SOL    HW124608   5.145   3.907   2.890  0.1061 -0.0541 -0.9161
38098SOL    HW224609   5.014   3.832   2.875  0.7809 -1.1625 -1.4203
38099SOL     OW24610   8.923   5.525   6.502  0.6798 -0.0209  0.0058
38099SOL    HW124611   8.986   5.597   6.493  0.1693  0.4882  0.5121
38099SOL    HW224612   8.929   5.499   6.594 -0.6756  0.7922  0.3374
38100SOL     OW24613   5.170  11.211   9.244 -0.0028  0.5728  0.1327
38100SOL    HW124614   5.249  11.254   9.276  0.1204  1.6124 -1.4716
38100SOL    HW224615   5.192  11.183   9.155 -1.6521  1.6075 -0.6515
38101SOL     OW24616   7.427  11.717   6.467 -0.2807  0.1842  0.4223
38101SOL    HW124617   7.481  11.699   6.544  1.4078  0.0750 -0.7140
38101SOL    HW224618   7.359  11.650   6.469 -0.4153  0.3365  1.9261
38102SOL     OW24619   9.640   2.200   3.496  0.4051  0.2687  0.7639
38102SOL    HW124620   9.593   2.131   3.542 -1.6443  0.8622 -0.2937
38102SOL    HW224621   9.573   2.266   3.478  1.1703  0.3559 -2.4652
38103SOL     OW24622  10.226   5.118   9.070 -0.0037 -0.4246 -0.0688
38103SOL    HW124623  10.167   5.138   8.997 -2.8426 -0.4547  2.0489
38103SOL    HW224624  10.228   5.199   9.122  0.6831 -0.8841  0.6374
38104SOL     OW24625  11.866   8.819   0.394  0.3952 -0.3037 -0.2875
38104SOL    HW124626  11.796   8.754   0.386  0.3186 -0.2053 -0.4332
38104SOL    HW224627  11.890   8.838   0.303 -0.5992  0.9617 -0.3107
38105SOL     OW24628  12.388   2.272   1.668 -0.3883  0.3869  0.6488
38105SOL    HW124629  12.294   2.289   1.675 -0.1759  1.5897  0.8236
38105SOL    HW224630  12.425   2.356   1.640  0.7724  0.3022  1.8398
38106SOL     OW24631   7.163  11.420   6.739  0.3679  0.7543 -0.7896
38106SOL    HW124632   7.157  11.464   6.824  0.9653 -1.0538  0.2215
38106SOL    HW224633   7.076  11.383   6.725  0.9749 -1.2091  0.3406
38107SOL     OW24634   0.581  10.060   1.163  0.3259 -0.1611 -0.3840
38107SOL    HW124635   0.503  10.006   1.174  2.1397 -2.9596 -0.2569
38107SOL    HW224636   0.601  10.055   1.070  0.5488  0.2520 -0.3606
38108SOL     OW24637   0.612   9.730   7.796  0.1860 -0.0452 -0.1644
38108SOL    HW124638   0.540   9.776   7.840  1.0679 -0.1287  1.4361
38108SOL    HW224639   0.650   9.795   7.739  0.2362  0.6736  0.6683
38109SOL     OW24640   2.065   3.279   5.603  0.0086  0.7662  0.1612
38109SOL    HW124641   1.975   3.256   5.581  0.0979  0.7638 -0.2046
38109SOL    HW224642   2.090   3.346   5.539 -0.2202  1.8341  1.1671
38110SOL     OW24643   2.083   8.046   0.851  0.5156 -0.0864 -0.2718
38110SOL    HW124644   2.069   7.980   0.919 -1.0708  0.9090  0.4356
38110SOL    HW224645   2.082   7.997   0.769  0.5944 -1.0936  0.3070
38111SOL     OW24646  12.764   5.072   8.778  0.1052  0.0352  0.2360
38111SOL    HW124647  12.796   4.997   8.827 -1.4459 -1.1487 -0.5040
38111SOL    HW224648  12.757   5.040   8.688 -0.7708  1.0092 -0.0556
38112SOL     OW24649   8.114  12.561   4.004 -0.3180 -0.7222 -0.2269
38112SOL    HW124650   8.109  12.594   4.094  1.0719 -0.0394 -0.3758
38112SOL    HW224651   8.058  12.484   4.004 -0.7995 -0.4054  1.0770
38113SOL     OW24652   0.615   2.439   7.997  0.1966 -0.1548 -0.5773
38113SOL    HW124653   0.658   2.463   8.078 -1.0599 -3.2041  1.1701
38113SOL    HW224654   0.654   2.354   7.973  1.1865  1.0402 -3.7566
38114SOL     OW24655   4.247   5.769   7.608  0.2034 -0.7291 -0.1016
38114SOL    HW124656   4.323   5.729   7.651  0.4372  1.4786  1.7581
38114SOL    HW224657   4.178   5.703   7.615  1.3623 -1.9542  0.1239
38115SOL     OW24658  11.660   1.544   8.256 -0.5986  0.3852  0.1394
38115SOL    HW124659  11.644   1.470   8.197 -0.9094  0.4198  0.1785
38115SOL    HW224660  11.676   1.503   8.342 -0.3773  0.3459  0.0801
38116SOL     OW24661   0.868  10.801  11.156  0.5109  0.3216  0.4312
38116SOL    HW124662   0.803  10.732  11.167 -0.5094  1.2650  0.4504
38116SOL    HW224663   0.952  10.758  11.175  0.3654 -1.8409 -2.9049
38117SOL     OW24664   0.159  12.639   9.573  0.6793  0.5984 -0.3133
38117SOL    HW124665   0.115  12.676   9.650  2.4216  1.9264  0.1226
38117SOL    HW224666   0.213  12.711   9.541  0.2181 -0.0217 -2.6397
38118SOL     OW24667  10.037   5.825   4.908  0.4168 -0.6111 -0.2030
38118SOL    HW124668  10.104   5.823   4.977  2.0016  1.1414 -1.5983
38118SOL    HW224669  10.044   5.912   4.870 -0.9621 -1.2447 -2.0576
38119SOL     OW24670   9.162   8.098   1.526 -0.1609 -0.0028 -0.2332
38119SOL    HW124671   9.081   8.055   1.497 -1.2871  1.8103  0.1035
38119SOL    HW224672   9.139   8.138   1.610  0.8979  1.0863 -0.4369
38120SOL     OW24673  12.731   4.096   3.909 -0.0800  0.2266 -0.3981
38120SOL    HW124674  12.690   4.119   3.826  0.9258 -0.1207 -1.0091
38120SOL    HW224675  12.694   4.011   3.932 -1.6376  1.0874  0.3964
38121SOL     OW24676  11.828   4.877   6.475 -0.2292  1.0781  0.5207
38121SOL    HW124677  11.796   4.846   6.391 -0.5736  0.3691  0.9069
38121SOL    HW224678  11.923   4.871   6.468 -0.2825 -1.5678  1.1096
38122SOL     OW24679   5.315   8.143   6.490  0.0966 -0.0996 -0.2955
38122SOL    HW124680   5.377   8.084   6.532  0.0931  1.0401  1.4075
38122SOL    HW224681   5.369   8.217   6.461 -0.1849 -0.0215 -0.6303
38123SOL     OW24682  10.070  11.343   8.101 -0.2086 -0.0271 -0.7972
38123SOL    HW124683  10.003  11.412   8.099 -0.3594 -0.0322  1.4905
38123SOL    HW224684  10.042  11.280   8.034 -0.1743  1.9843 -2.7953
38124SOL     OW24685   5.239  10.479  10.347  0.0029  0.4276 -0.0245
38124SOL    HW124686   5.165  10.425  10.320  0.7319 -1.2509  1.1601
38124SOL    HW224687   5.234  10.481  10.442  0.8094  1.3005  0.0148
38125SOL     OW24688   8.835   0.082   6.152 -0.5282  0.5378  0.2797
38125SOL    HW124689   8.811   0.145   6.220  1.4212  2.3972 -0.6175
38125SOL    HW224690   8.894   0.021   6.196 -0.0095  1.1757  0.4824
38126SOL     OW24691   1.804   0.677   7.932  0.4777  0.4061 -0.2764
38126SOL    HW124692   1.779   0.595   7.889  1.8370 -1.8185  2.8264
38126SOL    HW224693   1.730   0.697   7.990  0.9024  0.3861  0.2720
38127SOL     OW24694  11.732   2.280   2.502  0.1557 -0.0177 -0.1920
38127SOL    HW124695  11.647   2.283   2.546  0.5744  0.7364  0.5797
38127SOL    HW224696  11.786   2.224   2.557  0.3733  0.0866 -0.2973
38128SOL     OW24697   6.093  11.473  11.926  0.3027  0.1774  0.1175
38128SOL    HW124698   6.107  11.379  11.938  2.5417  0.5902  1.3847
38128SOL    HW224699   6.080  11.484  11.832  1.1638 -1.2990 -0.2083
38129SOL     OW24700  11.239   8.165   7.455  0.1217 -0.1412  0.1732
38129SOL    HW124701  11.299   8.131   7.522  0.0125 -1.7920 -0.5072
38129SOL    HW224702  11.293   8.171   7.376  0.6727  3.2873  0.6599
38130SOL     OW24703   1.141   3.414  12.781  0.4682  0.2318 -0.1274
38130SOL    HW124704   1.112   3.493  12.736  1.0486  0.0046 -0.9286
38130SOL    HW224705   1.234   3.429  12.797  0.6724 -0.4432 -0.6375
38131SOL     OW24706   1.816   5.777  10.848 -0.5335 -0.5107 -0.1170
38131SOL    HW124707   1.724   5.780  10.875 -0.4516  2.7874  0.1583
38131SOL    HW224708   1.863   5.754  10.928 -0.9648  0.1649  0.3443
38132SOL     OW24709   8.223   4.850   2.280  0.1282  0.3241 -0.0411
38132SOL    HW124710   8.264   4.899   2.209  2.7225  0.1679  1.2494
38132SOL    HW224711   8.296   4.819   2.333 -1.6627 -0.7630  1.9249
38133SOL     OW24712   9.135   1.695   5.404 -0.4853  0.4543  0.3083
38133SOL    HW124713   9.188   1.637   5.349 -1.4555 -1.0935  0.9224
38133SOL    HW224714   9.187   1.775   5.412  0.5551 -0.0173 -1.2204
38134SOL     OW24715  12.060   0.564   1.658 -0.1775 -0.6015 -0.3313
38134SOL    HW124716  12.073   0.628   1.728  0.7889 -0.8963 -0.2145
38134SOL    HW224717  12.027   0.486   1.702  0.1119 -0.6768 -0.2426
38135SOL     OW24718   0.894   4.352  10.760 -0.0403  0.2049  0.6031
38135SOL    HW124719   0.889   4.266  10.803  0.0316 -0.2273 -0.2331
38135SOL    HW224720   0.933   4.409  10.826  1.3759 -0.7631  0.6543
38136SOL     OW24721   8.850   3.555  10.664  0.0303 -0.0969  0.3307
38136SOL    HW124722   8.823   3.466  10.643 -2.3931 -0.2429  3.1874
38136SOL    HW224723   8.941   3.561  10.637  0.2357 -3.3962 -0.0511
38137SOL     OW24724   5.510  10.633  12.074 -0.1261  0.1434 -0.2798
38137SOL    HW124725   5.514  10.673  11.987  0.0188 -0.0008 -0.3412
38137SOL    HW224726   5.423  10.593  12.079 -0.6264  1.2549  0.1345
38138SOL     OW24727  10.436  10.602   5.014 -0.5241  0.5176 -0.1362
38138SOL    HW124728  10.453  10.679   5.068  1.0950 -0.3720  0.6917
38138SOL    HW224729  10.400  10.538   5.076  0.9263 -0.3617 -0.1534
38139SOL     OW24730   3.295   5.431   0.119  0.5669 -0.4265  0.0166
38139SOL    HW124731   3.252   5.347   0.108 -0.7357  0.2747 -0.5199
38139SOL    HW224732   3.225   5.490   0.146  0.8370  1.1145 -2.3751
38140SOL     OW24733   4.781   2.701  10.328 -0.0017 -0.1025  0.8020
38140SOL    HW124734   4.685   2.700  10.320 -0.0704  1.7078  0.9902
38140SOL    HW224735   4.812   2.707  10.238 -0.1379  0.9249  0.8119
38141SOL     OW24736   0.829  10.424   2.146  0.1741 -0.5158 -0.2319
38141SOL    HW124737   0.790  10.337   2.158 -0.3505 -0.3183 -0.4885
38141SOL    HW224738   0.812  10.469   2.229  1.5254 -1.0641  0.3645
38142SOL     OW24739  10.630   5.151   3.334 -0.0414 -0.3915 -0.6529
38142SOL    HW124740  10.567   5.179   3.400 -0.2915  1.3084 -1.5729
38142SOL    HW224741  10.694   5.099   3.382  0.0101  1.1376  0.9945
38143SOL     OW24742   8.683   2.863   6.562  0.4974 -0.1338 -0.4020
38143SOL    HW124743   8.639   2.780   6.544  0.4480 -0.6062  1.6005
38143SOL    HW224744   8.720   2.852   6.650 -0.3039  2.2831  0.3249
38144SOL     OW24745   3.177   1.406   4.826  0.6633  0.4565 -0.3388
38144SOL    HW124746   3.228   1.437   4.901 -0.5419  0.1821  0.6282
38144SOL    HW224747   3.174   1.481   4.767  0.1298  1.2941  0.7124
38145SOL     OW24748   1.072   3.800  12.578  0.1272  0.1791 -0.6072
38145SOL    HW124749   1.015   3.816  12.503  0.5917 -1.8171 -1.4760
38145SOL    HW224750   1.160   3.792  12.539  0.5973  0.5778  0.3467
38146SOL     OW24751   2.053   6.795   3.176 -0.4058  0.0788 -0.2585
38146SOL    HW124752   2.025   6.783   3.086  1.1448 -0.6585 -0.6772
38146SOL    HW224753   2.101   6.878   3.177 -0.8970  0.3642  0.0174
38147SOL     OW24754   9.980  11.786   0.971  0.5525  0.1224 -0.5509
38147SOL    HW124755  10.058  11.770   0.917  0.9743 -0.7615  0.2784
38147SOL    HW224756  10.014  11.831   1.049  0.2741 -0.4226 -0.1053
38148SOL     OW24757   7.807   4.418  12.879  0.2335  0.5663 -0.6558
38148SOL    HW124758   7.791   4.504  12.841 -0.1445  0.4469 -0.7692
38148SOL    HW224759   7.844   4.366  12.807 -0.2125  0.4237 -0.7800
38149SOL     OW24760   9.338  10.699   5.895 -0.1948  0.1513  0.0004
38149SOL    HW124761   9.313  10.686   5.986 -0.7810  0.3109 -0.1392
38149SOL    HW224762   9.434  10.698   5.897 -0.1851  1.0775  0.7566
38150SOL     OW24763  11.379  10.108   5.882 -0.4380  0.4060  0.2513
38150SOL    HW124764  11.395  10.058   5.962  0.9217 -0.1453 -0.3186
38150SOL    HW224765  11.307  10.063   5.839 -0.2347 -0.1540  0.4865
38151SOL     OW24766   4.094   6.780   5.310 -0.1136 -0.3874  0.3438
38151SOL    HW124767   4.004   6.805   5.288 -0.1979  0.6188  1.6763
38151SOL    HW224768   4.148   6.850   5.274  0.2356 -1.3596 -1.0972
38152SOL     OW24769   9.433   7.247   5.453  0.1984 -0.0645 -0.1598
38152SOL    HW124770   9.483   7.320   5.489 -0.2534 -0.2913  0.9982
38152SOL    HW224771   9.494   7.173   5.453 -0.1780 -0.4365  1.6084
38153SOL     OW24772   2.101   4.916   3.938  0.0743 -0.1375  0.3019
38153SOL    HW124773   2.180   4.965   3.960 -0.4445 -0.2914  2.7819
38153SOL    HW224774   2.070   4.957   3.857  2.8383 -0.3346 -0.9705
38154SOL     OW24775  12.761  12.337   3.106  0.3401 -0.2896  0.1686
38154SOL    HW124776  12.846  12.293   3.115 -0.9819 -2.6774  2.1472
38154SOL    HW224777  12.755  12.393   3.183  0.3184  0.2766 -0.2428
38155SOL     OW24778   1.885  12.691   1.531 -0.1128  0.1758  0.5288
38155SOL    HW124779   1.846  12.669   1.447 -0.5923 -0.3752  0.8906
38155SOL    HW224780   1.926  12.777   1.516 -0.2309  0.1087 -0.2448
38156SOL     OW24781   5.985   5.401   6.377  0.1793 -0.2673 -0.8676
38156SOL    HW124782   5.995   5.487   6.418  0.0138 -0.0088 -1.3642
38156SOL    HW224783   5.897   5.402   6.341 -0.4118 -1.2376  0.4614
38157SOL     OW24784   6.804  10.949   7.946 -0.0820  0.3611 -0.3815
38157SOL    HW124785   6.730  10.912   7.994 -1.1560  1.1424 -1.3733
38157SOL    HW224786   6.765  11.017   7.891  1.4224  0.9847 -0.7233
38158SOL     OW24787   5.120   4.985   9.480  0.4870 -0.0164  0.3604
38158SOL    HW124788   5.167   4.986   9.563 -1.9776 -3.3799  2.0112
38158SOL    HW224789   5.027   4.985   9.505 -0.3800  0.6609 -2.4997
38159SOL     OW24790   0.247   4.217   4.829 -0.2604  0.0488 -0.5576
38159SOL    HW124791   0.228   4.246   4.918 -2.3361 -2.2585 -0.1298
38159SOL    HW224792   0.302   4.140   4.840 -2.5560 -1.7636 -1.0380
38160SOL     OW24793  10.051  11.960   8.287 -0.2081  0.1233 -0.3574
38160SOL    HW124794   9.990  12.009   8.342  0.1224 -1.5721  1.5977
38160SOL    HW224795   9.996  11.916   8.222 -0.7132  1.1337 -0.6401
38161SOL     OW24796   0.255  10.775   0.609 -0.9455 -0.1164  0.2011
38161SOL    HW124797   0.162  10.753   0.618 -0.8227 -0.7244  0.0639
38161SOL    HW224798   0.257  10.851   0.551 -1.4368  0.8093  1.3538
38162SOL     OW24799   4.914   7.748  10.326 -0.3914  0.7201 -0.4147
38162SOL    HW124800   4.898   7.783  10.414  1.2669  2.1617 -0.6148
38162SOL    HW224801   5.002   7.709  10.332 -0.1438  1.0782 -1.4784
38163SOL     OW24802   6.930  12.947   2.612 -0.0792  0.0974 -0.1789
38163SOL    HW124803   6.871  12.912   2.545 -0.8228 -2.2352  1.5421
38163SOL    HW224804   6.871  12.982   2.679  0.5378 -0.0851  0.4731
38164SOL     OW24805  11.493   9.302  10.429  0.0631 -0.2307 -0.0913
38164SOL    HW124806  11.414   9.314  10.377  0.8997  0.1373 -1.2972
38164SOL    HW224807  11.474   9.224  10.482 -1.5232  0.4907  0.4939
38165SOL     OW24808   7.037   8.858   8.027  0.2168  0.0500  0.0405
38165SOL    HW124809   7.061   8.851   8.119  1.8406  3.0876 -0.0135
38165SOL    HW224810   6.945   8.885   8.027  0.1578 -0.1499  0.7546
38166SOL     OW24811   4.550   6.747   4.316  0.3943 -0.2352 -0.3951
38166SOL    HW124812   4.545   6.729   4.410  0.4283 -0.5934 -0.4605
38166SOL    HW224813   4.639   6.722   4.292  0.0048 -1.3592 -0.7633
38167SOL     OW24814   2.879  12.592  10.603 -0.7794 -0.0156  0.1408
38167SOL    HW124815   2.919  12.629  10.681  0.4702  0.8835 -0.8803
38167SOL    HW224816   2.901  12.654  10.533 -0.0692 -1.8237 -1.3209
38168SOL     OW24817  12.559   5.581   6.840 -0.3076 -0.3400  0.6657
38168SOL    HW124818  12.530   5.672   6.839  0.8900  0.0579 -0.6808
38168SOL    HW224819  12.497   5.537   6.898 -0.0405  1.6124  2.5556
38169SOL     OW24820   9.073   0.632   8.596 -0.4502  0.1921 -0.0537
38169SOL    HW124821   9.163   0.603   8.582 -1.2379 -2.0917 -0.7351
38169SOL    HW224822   9.058   0.696   8.527  0.2365 -0.3947 -0.7636
38170SOL     OW24823   4.468   0.906   2.511 -0.5943  0.1144  0.2585
38170SOL    HW124824   4.519   0.987   2.509 -1.0246  0.4445  1.5126
38170SOL    HW224825   4.532   0.839   2.534 -0.3412  0.1734 -0.2433
38171SOL     OW24826   5.913  12.164   6.827 -0.0363  0.0607  0.2258
38171SOL    HW124827   5.821  12.184   6.807  0.2080  0.7233 -0.2710
38171SOL    HW224828   5.934  12.219   6.902 -0.4828 -1.2457  1.3558
38172SOL     OW24829   1.407   4.178  12.331  0.0765  0.9254 -0.1512
38172SOL    HW124830   1.370   4.260  12.362 -0.0802  0.7599  0.1031
38172SOL    HW224831   1.460   4.146  12.404 -3.2391 -1.3609  1.5266
38173SOL     OW24832   7.563   8.778   4.693  0.3438  0.1656  0.3817
38173SOL    HW124833   7.650   8.767   4.731  0.5139  0.1073 -0.0271
38173SOL    HW224834   7.557   8.711   4.625  0.0281  0.2544  0.3191
38174SOL     OW24835  12.479  11.115  12.780  0.2787 -0.1151  0.2513
38174SOL    HW124836  12.533  11.048  12.738  0.2084 -0.2381  0.3555
38174SOL    HW224837  12.495  11.104  12.874  2.4593  1.8511  0.1966
38175SOL     OW24838   1.783   8.567  10.976  0.4030  0.1114 -0.1536
38175SOL    HW124839   1.754   8.539  10.889 -1.0574  0.8210  0.0704
38175SOL    HW224840   1.803   8.660  10.966 -0.7946  0.4559  0.4837
38176SOL     OW24841   0.985  12.438   0.410  0.3860 -0.3825 -0.1315
38176SOL    HW124842   0.961  12.511   0.353  0.9731 -0.4601 -0.4876
38176SOL    HW224843   0.934  12.452   0.490  1.0645  0.8567  0.1157
38177SOL     OW24844   2.114   0.011   6.695 -0.1647 -0.3760  0.1780
38177SOL    HW124845   2.116   0.004   6.600  0.8231 -1.8933  0.2664
38177SOL    HW224846   2.133  -0.078   6.726  0.4105  0.2620  1.7845
38178SOL     OW24847   9.871   9.624   8.668  0.3466 -0.2006 -0.3603
38178SOL    HW124848   9.844   9.609   8.758 -0.1405 -0.4150 -0.5395
38178SOL    HW224849   9.966   9.629   8.672  0.2610  1.5797  0.4327
38179SOL     OW24850  12.302   7.785   6.067  0.2064 -0.0568  0.3485
38179SOL    HW124851  12.312   7.768   5.974  2.7808 -0.7147  0.6741
38179SOL    HW224852  12.223   7.737   6.092 -0.4601  0.0438 -1.4400
38180SOL     OW24853  10.333   6.490   1.942  0.3439  0.3159 -0.6931
38180SOL    HW124854  10.420   6.462   1.914 -0.0473 -0.4786 -1.1395
38180SOL    HW224855  10.285   6.409   1.955 -0.5351  0.7562 -1.1170
38181SOL     OW24856   8.318  12.294   4.069 -0.2358 -0.1248 -0.2911
38181SOL    HW124857   8.369  12.228   4.117  0.8976  1.2953  0.5428
38181SOL    HW224858   8.248  12.244   4.027  1.8290 -2.1654 -1.5076
38182SOL     OW24859   9.042  10.906   6.444  0.2521  0.1533 -0.1405
38182SOL    HW124860   9.040  10.918   6.539  0.6487  0.1697 -0.1348
38182SOL    HW224861   9.061  10.813   6.432 -1.5304 -0.2458 -0.1975
38183SOL     OW24862   4.325   7.676   9.128 -0.0483  0.5376  0.3542
38183SOL    HW124863   4.365   7.640   9.207  0.1284  0.4256  0.2145
38183SOL    HW224864   4.272   7.604   9.093  0.0749  0.5045  0.2328
38184SOL     OW24865   8.920   0.034   9.161  0.0112 -0.1286  0.2150
38184SOL    HW124866   8.915  -0.045   9.216 -2.0153  1.3125  2.2962
38184SOL    HW224867   8.866   0.014   9.085 -0.7692 -0.6564  0.8891
38185SOL     OW24868   0.044   6.615   0.458  0.3475  0.2859 -0.7774
38185SOL    HW124869   0.010   6.660   0.381  0.5524  6.0164  1.9816
38185SOL    HW224870  -0.034   6.596   0.511  0.5122  2.2820  0.2606
38186SOL     OW24871  12.095   3.448   6.466 -0.6025 -0.1792  0.1115
38186SOL    HW124872  12.081   3.354   6.465  0.5245 -0.3659 -1.0587
38186SOL    HW224873  12.015   3.484   6.504 -1.1411 -1.5797  0.3650
38187SOL     OW24874  10.501   7.387   4.197 -0.8552 -0.4262  0.2229
38187SOL    HW124875  10.588   7.425   4.183 -1.0037  0.2512  1.0255
38187SOL    HW224876  10.467   7.433   4.274 -2.7115  0.6937 -1.1722
38188SOL     OW24877  12.762   4.487   7.130  0.2664  0.1386 -0.4733
38188SOL    HW124878  12.674   4.459   7.103  0.2501  1.3226 -1.7574
38188SOL    HW224879  12.822   4.437   7.074  0.5106 -1.3564  1.0222
38189SOL     OW24880   3.717   8.438   3.823 -0.7191  0.2079 -0.1580
38189SOL    HW124881   3.688   8.357   3.783 -1.1314 -0.0515  0.6492
38189SOL    HW224882   3.723   8.418   3.916  4.0002 -0.4200 -0.3379
38190SOL     OW24883   1.138   0.774   1.314 -0.2992 -0.0178  0.1446
38190SOL    HW124884   1.063   0.806   1.364 -2.0975 -4.1458  0.5123
38190SOL    HW224885   1.194   0.730   1.379 -0.9938 -2.5811 -0.8432
38191SOL     OW24886   1.261   3.723   4.984 -0.4122  0.5227  0.3457
38191SOL    HW124887   1.215   3.701   4.903 -0.0829  1.5561 -0.1424
38191SOL    HW224888   1.347   3.751   4.955  0.2253 -0.4954  1.1828
38192SOL     OW24889  11.052   0.788   7.804 -0.2293  0.4830 -0.0015
38192SOL    HW124890  11.091   0.871   7.776 -1.0829  0.7099 -0.5366
38192SOL    HW224891  11.018   0.749   7.723 -0.7618  0.0972  0.4054
38193SOL     OW24892   0.652   8.095   1.246 -0.3086 -0.3499  0.5257
38193SOL    HW124893   0.681   8.033   1.313  1.3430  0.8824  1.0251
38193SOL    HW224894   0.581   8.050   1.201  1.9506 -3.3777 -0.3423
38194SOL     OW24895   3.149   6.083  12.673  0.2053  0.2794  0.0298
38194SOL    HW124896   3.089   6.009  12.680 -0.2449  0.6907  0.5579
38194SOL    HW224897   3.180   6.080  12.582 -1.5271  0.7645 -0.6102
38195SOL     OW24898  11.448   2.347   2.083  0.1669  0.5433  0.7543
38195SOL    HW124899  11.494   2.293   2.148  0.9686  1.0310  0.6018
38195SOL    HW224900  11.406   2.283   2.026  2.0310 -0.0014 -0.0986
38196SOL     OW24901   0.455  11.249   6.725  0.4417  0.0849  0.0665
38196SOL    HW124902   0.541  11.214   6.749  1.0918  1.9883  0.7049
38196SOL    HW224903   0.462  11.343   6.742 -1.1089  0.5991 -1.7972
38197SOL     OW24904  12.481   5.541  11.019  0.3993 -0.2853  0.8464
38197SOL    HW124905  12.486   5.530  10.924  1.6371  1.7115  0.6090
38197SOL    HW224906  12.389   5.560  11.036  0.0559 -1.2509  0.1368
38198SOL     OW24907   1.880   8.229   6.006  0.5976  0.4912 -0.2555
38198SOL    HW124908   1.923   8.191   5.930  1.2338 -0.3686  0.5158
38198SOL    HW224909   1.875   8.323   5.986  1.1969  0.3471 -1.1421
38199SOL     OW24910  10.089  12.155   1.535  0.0112 -0.5440 -0.6366
38199SOL    HW124911  10.141  12.177   1.458  0.5368 -1.6660 -0.6197
38199SOL    HW224912  10.020  12.098   1.502 -0.9783  0.5742 -0.5840
38200SOL     OW24913   8.430   0.100   8.021  0.1626  1.0057 -0.0438
38200SOL    HW124914   8.503   0.103   8.083  0.9316  1.9115 -0.9725
38200SOL    HW224915   8.414   0.191   7.997 -2.0493  0.9645  0.9874
38201SOL     OW24916   1.214   2.501  12.299 -0.3709 -0.0990  0.9398
38201SOL    HW124917   1.293   2.467  12.342 -0.2362 -1.3270 -0.2089
38201SOL    HW224918   1.143   2.449  12.336 -0.1580 -1.7903 -0.8690
38202SOL     OW24919   7.010  10.142   2.907  0.1827  0.4092  0.1372
38202SOL    HW124920   6.971  10.209   2.851 -0.1777  0.7852  0.8280
38202SOL    HW224921   6.944  10.126   2.975  1.1692  0.9863  1.2798
38203SOL     OW24922  10.555  10.920   6.716 -0.2860  0.6376  0.0464
38203SOL    HW124923  10.546  10.917   6.620 -0.5136  0.9405  0.0580
38203SOL    HW224924  10.553  10.828   6.743  1.0451  0.4719 -0.3520
38204SOL     OW24925  11.219   5.454   8.266 -0.0174 -0.1543 -0.3268
38204SOL    HW124926  11.167   5.460   8.346  0.7641 -1.0788  0.2776
38204SOL    HW224927  11.255   5.542   8.254  1.3547 -0.4230  1.3947
38205SOL     OW24928   9.153   4.143   0.632 -0.1013  0.1203 -0.4733
38205SOL    HW124929   9.060   4.124   0.639 -0.2243 -0.5605 -2.8582
38205SOL    HW224930   9.169   4.213   0.695 -1.7810 -1.0644  1.3529
38206SOL     OW24931   6.669   6.194   7.148 -0.1090 -0.4373  0.5884
38206SOL    HW124932   6.709   6.220   7.231 -0.4422 -0.7709  0.8563
38206SOL    HW224933   6.612   6.268   7.125  1.2445  0.4033 -0.2062
38207SOL     OW24934   6.262  12.295   8.030  0.4803 -0.1030 -0.2373
38207SOL    HW124935   6.347  12.321   7.993  0.3298  0.3779 -0.2511
38207SOL    HW224936   6.212  12.264   7.955  1.4732 -2.7541  0.0805
38208SOL     OW24937   2.580   9.683   1.829  0.5005 -0.1275  0.0889
38208SOL    HW124938   2.623   9.610   1.875 -1.6478 -1.3879  0.2210
38208SOL    HW224939   2.524   9.640   1.764 -2.2106  1.2416  1.3610
38209SOL     OW24940   8.615   8.169   7.114  0.1435 -0.1190  0.2006
38209SOL    HW124941   8.643   8.081   7.139  0.4023  0.0489  0.5132
38209SOL    HW224942   8.639   8.177   7.022 -0.7479 -0.7150 -0.0845
38210SOL     OW24943   8.191  12.153   0.300 -0.5494  0.5471  0.0755
38210SOL    HW124944   8.157  12.134   0.213 -0.5217 -0.2292  0.2274
38210SOL    HW224945   8.149  12.089   0.357  2.0184 -1.3022  0.0926
38211SOL     OW24946  12.913  10.136   2.684 -0.0845  0.0845  0.2148
38211SOL    HW124947  12.967  10.206   2.719 -2.5825  1.3066  1.9627
38211SOL    HW224948  12.913  10.069   2.752 -1.9633  0.8140  0.9937
38212SOL     OW24949   2.858  10.585  10.525  0.2207  0.4486  0.3534
38212SOL    HW124950   2.893  10.508  10.569  0.8641 -0.1875 -1.1766
38212SOL    HW224951   2.814  10.635  10.593 -1.6782 -2.1050  1.1274
38213SOL     OW24952  10.709  11.248   5.028 -0.3423 -0.0180  0.3863
38213SOL    HW124953  10.770  11.188   5.070  0.3427 -0.3087 -0.9545
38213SOL    HW224954  10.746  11.335   5.045 -0.1438 -0.1203  0.4847
38214SOL     OW24955   7.043   3.030   6.939  0.3176 -0.0139  0.1704
38214SOL    HW124956   7.101   3.033   7.014  0.5464  0.0820 -0.0078
38214SOL    HW224957   7.003   2.944   6.943  0.5436 -0.1169  0.2433
38215SOL     OW24958   0.870  12.200   9.705  0.1655  0.7028  0.2760
38215SOL    HW124959   0.895  12.170   9.792 -1.0733  0.3907  0.5415
38215SOL    HW224960   0.895  12.292   9.703  0.6110  0.5954  0.7994
38216SOL     OW24961   0.677  12.974   5.830  0.4430 -0.0408 -0.5473
38216SOL    HW124962   0.687  12.961   5.925  2.1489  0.8587 -0.5519
38216SOL    HW224963   0.620  13.051   5.823  0.4301 -0.0188 -0.2415
38217SOL     OW24964  11.596  10.239   3.074 -0.3813  0.0927 -0.1228
38217SOL    HW124965  11.652  10.317   3.077  0.9941 -0.8800  0.9560
38217SOL    HW224966  11.545  10.249   2.994  1.3110  1.0480 -1.1342
38218SOL     OW24967   4.184   3.781  12.379 -0.1198  0.2222 -0.2026
38218SOL    HW124968   4.175   3.689  12.404  0.6637  0.5704  1.5223
38218SOL    HW224969   4.103   3.801  12.332 -0.2756 -1.3440 -0.6644
38219SOL     OW24970   4.662   7.507   8.196  0.0762  0.1831  0.5378
38219SOL    HW124971   4.738   7.480   8.145 -0.0387  0.4953  0.2019
38219SOL    HW224972   4.679   7.599   8.219  0.0722  0.0826  0.9575
38220SOL     OW24973   5.030   6.613   3.048  0.0019 -0.5473  0.0732
38220SOL    HW124974   4.935   6.603   3.053 -0.2420  0.8645 -1.2274
38220SOL    HW224975   5.065   6.535   3.092 -1.7355 -2.0535 -1.0903
38221SOL     OW24976   9.865   0.359  11.882 -0.1146 -0.6236 -0.1189
38221SOL    HW124977   9.923   0.285  11.864  0.5721  0.1835 -1.3086
38221SOL    HW224978   9.778   0.320  11.889  0.5706 -1.9427  2.2458
38222SOL     OW24979  10.449   6.130   0.600 -0.2431 -0.2735 -0.6346
38222SOL    HW124980  10.477   6.122   0.691 -0.0987  0.3343 -0.6223
38222SOL    HW224981  10.476   6.218   0.574 -0.1092 -0.5088 -1.3262
38223SOL     OW24982   5.872  12.413   6.022  0.0615  0.3621 -0.2716
38223SOL    HW124983   5.870  12.474   6.095  0.0852  1.0528 -0.8299
38223SOL    HW224984   5.940  12.448   5.963  0.5363 -0.5755 -0.2883
38224SOL     OW24985  10.205  11.588   5.193  0.0897  0.1149  0.0826
38224SOL    HW124986  10.151  11.529   5.141 -1.1001  1.4453 -0.2558
38224SOL    HW224987  10.173  11.576   5.283  0.2026 -0.1046  0.0959
38225SOL     OW24988   0.697   6.338   9.544 -0.0700  0.3851 -0.0996
38225SOL    HW124989   0.764   6.294   9.597 -0.3399  1.3814  1.1249
38225SOL    HW224990   0.681   6.421   9.590 -1.0971  0.8127 -1.1750
38226SOL     OW24991   3.076   4.655   6.775 -0.3764 -0.7974  0.6226
38226SOL    HW124992   3.164   4.689   6.791 -0.8557  0.3011  1.0892
38226SOL    HW224993   3.077   4.625   6.685 -0.0901  1.1364 -0.0707
38227SOL     OW24994  12.657   6.078   3.367  0.1686  0.1116 -0.2708
38227SOL    HW124995  12.644   6.172   3.353 -0.0323 -0.0293 -1.1004
38227SOL    HW224996  12.609   6.036   3.295  2.1873 -0.5362 -1.3145
38228SOL     OW24997   4.940   9.696  11.129 -0.1997  0.3044  0.1692
38228SOL    HW124998   4.902   9.737  11.052 -1.0655 -0.9222 -0.0813
38228SOL    HW224999   4.882   9.719  11.201  0.0182  0.5568  0.2686
38229SOL     OW25000   4.652   1.140   3.369  0.0245  0.1166 -0.1091
38229SOL    HW125001   4.625   1.209   3.309 -0.3388 -0.0639 -0.1554
38229SOL    HW225002   4.613   1.060   3.334 -0.8924  0.1362  0.8220
38230SOL     OW25003   1.058   6.643  10.363  0.0430  0.2960 -0.0890
38230SOL    HW125004   1.109   6.633  10.283 -0.4611 -0.8301 -0.2778
38230SOL    HW225005   1.121   6.629  10.434  0.7169  2.2691 -0.2174
38231SOL     OW25006   2.508  10.087   9.124 -0.0205  0.2934 -0.3149
38231SOL    HW125007   2.537  10.147   9.055 -1.3724  0.8712 -0.4058
38231SOL    HW225008   2.477  10.145   9.194  0.6625 -0.2933  0.4976
38232SOL     OW25009   4.431   6.086  12.537  0.1943 -0.2782 -0.0337
38232SOL    HW125010   4.506   6.064  12.482 -0.2904  2.0885 -1.7699
38232SOL    HW225011   4.470   6.118  12.618  1.0071 -0.3980 -0.3670
38233SOL     OW25012   8.523   0.553   1.865 -0.5541 -0.5337 -0.2885
38233SOL    HW125013   8.562   0.572   1.950  0.2616 -0.9092 -0.5707
38233SOL    HW225014   8.495   0.462   1.871 -1.4921 -0.2446 -0.0604
38234SOL     OW25015   5.987   1.626   9.082  0.7039  0.6305  0.0685
38234SOL    HW125016   5.893   1.644   9.092  0.4910 -0.1824 -0.4033
38234SOL    HW225017   6.001   1.545   9.131  1.0933  0.5583 -0.1593
38235SOL     OW25018   1.888   1.000   2.218 -0.4362 -0.1891 -0.3800
38235SOL    HW125019   1.804   0.957   2.232 -0.1861 -0.5459  0.0846
38235SOL    HW225020   1.906   0.989   2.125 -0.9142 -0.0851 -0.4878
38236SOL     OW25021   3.083   6.968   8.995 -0.0622  0.7784 -0.0862
38236SOL    HW125022   3.173   6.941   8.978 -0.3529 -1.4854  1.5358
38236SOL    HW225023   3.031   6.919   8.931 -0.2701  0.6850  0.1509
38237SOL     OW25024   4.056   5.613  10.617 -0.4349  0.2900  0.1079
38237SOL    HW125025   4.114   5.647  10.549  0.1715 -1.9861 -0.6035
38237SOL    HW225026   4.089   5.651  10.698  1.6863 -0.3856 -0.3630
38238SOL     OW25027   2.995   4.916   7.818  0.5125 -0.0006 -0.4211
38238SOL    HW125028   2.933   4.960   7.759  0.8911  0.2537 -0.6280
38238SOL    HW225029   2.965   4.825   7.820  0.2942  0.0616 -0.7389
38239SOL     OW25030   0.162   5.769   3.774  0.4611  0.2080  0.2940
38239SOL    HW125031   0.224   5.760   3.701  0.4444 -1.0673  0.4116
38239SOL    HW225032   0.190   5.703   3.838 -0.0754  0.6873  1.0437
38240SOL     OW25033   8.198  10.089   9.334 -0.1351 -0.4974  0.8777
38240SOL    HW125034   8.134  10.064   9.401 -2.4346 -0.4036 -1.1472
38240SOL    HW225035   8.145  10.125   9.263  2.2905  0.5264 -0.5255
38241SOL     OW25036  12.610   9.194  10.429 -0.3114 -0.6559  0.1084
38241SOL    HW125037  12.516   9.207  10.416 -0.0756  1.8271  0.3780
38241SOL    HW225038  12.650   9.273  10.392  1.6576 -1.4872  0.3346
38242SOL     OW25039   8.853   5.787   3.297  0.2001  0.0550 -0.2900
38242SOL    HW125040   8.805   5.705   3.284  1.4053 -0.7405  0.0725
38242SOL    HW225041   8.915   5.790   3.225  1.0094  0.0107  0.3964
38243SOL     OW25042   4.695   4.594   5.708 -0.7134  0.0004 -0.2535
38243SOL    HW125043   4.681   4.659   5.777  0.1986 -1.0706  0.9770
38243SOL    HW225044   4.633   4.524   5.729  2.0098 -2.0313  1.7380
38244SOL     OW25045   4.798   2.931   9.395 -0.6515  0.3577 -0.6295
38244SOL    HW125046   4.712   2.952   9.359  0.3014  0.8058 -2.8132
38244SOL    HW225047   4.831   3.015   9.428  0.5642  1.1821 -3.5958
38245SOL     OW25048  11.742   2.339   9.440 -0.0999 -0.0019 -0.8519
38245SOL    HW125049  11.821   2.382   9.472  0.4378 -0.8253 -1.0537
38245SOL    HW225050  11.723   2.272   9.505 -2.6141  2.3118  1.0435
38246SOL     OW25051  11.502   6.699   1.442  0.2989  0.2181  0.0079
38246SOL    HW125052  11.487   6.782   1.487  0.9298  0.7687 -0.7747
38246SOL    HW225053  11.505   6.722   1.349 -0.4324 -0.8193 -0.2912
38247SOL     OW25054  10.533   6.847  12.960  0.5449 -0.0683 -0.4145
38247SOL    HW125055  10.585   6.899  12.899 -0.8924  0.6228 -1.0928
38247SOL    HW225056  10.557   6.881  13.046 -0.3819  1.7842 -0.8474
38248SOL     OW25057  11.331   6.651   4.162  0.0544 -0.0171  0.0848
38248SOL    HW125058  11.343   6.586   4.231 -0.8035 -0.1806  0.0875
38248SOL    HW225059  11.306   6.731   4.209 -2.0163 -0.5064 -0.0973
38249SOL     OW25060   8.756   4.862   4.981  0.2461 -0.1903  0.7005
38249SOL    HW125061   8.713   4.914   4.913  3.3393  1.2814 -0.3106
38249SOL    HW225062   8.772   4.777   4.939  1.3029  0.4009 -0.1485
38250SOL     OW25063   2.550   7.116   6.620  0.4407  0.8694  0.2110
38250SOL    HW125064   2.464   7.076   6.610 -0.2073  2.4064 -0.6803
38250SOL    HW225065   2.611   7.042   6.619 -0.9263 -0.4729  2.9678
38251SOL     OW25066   0.020   7.153   0.584  0.4254 -0.4850 -0.1515
38251SOL    HW125067   0.108   7.176   0.554  0.5388  1.4155  1.3731
38251SOL    HW225068   0.026   7.158   0.680 -0.7982 -2.6124  0.0903
38252SOL     OW25069   1.169   4.592   2.123 -0.2511 -0.3044 -0.1981
38252SOL    HW125070   1.127   4.511   2.093  0.9679 -1.1387  0.2506
38252SOL    HW225071   1.111   4.624   2.192 -0.4995 -1.0756 -0.0336
38253SOL     OW25072   8.015   1.554   6.488 -0.0869 -0.3046  0.3566
38253SOL    HW125073   7.958   1.626   6.459 -1.3775 -1.4886 -0.1997
38253SOL    HW225074   8.015   1.560   6.583 -0.1551  0.4506  0.3133
38254SOL     OW25075   9.482   3.156   9.717  0.4759 -0.0396 -0.0801
38254SOL    HW125076   9.545   3.143   9.646 -0.2121 -1.5028 -0.4630
38254SOL    HW225077   9.436   3.073   9.723 -1.2678  0.9164  0.3349
38255SOL     OW25078   4.675   8.881   7.482  0.0016 -0.5588 -0.0882
38255SOL    HW125079   4.729   8.891   7.404 -1.3377 -1.1142 -1.1363
38255SOL    HW225080   4.602   8.826   7.453  0.5126 -2.5603  2.0812
38256SOL     OW25081  10.894   4.763  11.534  0.3110  0.9081  0.1066
38256SOL    HW125082  10.819   4.704  11.531  0.6938  0.1454  2.8413
38256SOL    HW225083  10.882   4.812  11.616  1.9376  1.9508 -0.2376
38257SOL     OW25084   3.876  10.054   6.926  0.3719 -0.2177 -0.5743
38257SOL    HW125085   3.834  10.026   7.008  0.6009  2.6017  0.6113
38257SOL    HW225086   3.805  10.053   6.862  0.0259 -1.7964 -0.2091
38258SOL     OW25087  11.130  11.449  12.324  0.2425  0.3556  0.1581
38258SOL    HW125088  11.036  11.434  12.321  0.2506 -0.1585  1.5165
38258SOL    HW225089  11.139  11.538  12.358  0.2526  0.8439 -1.0838
38259SOL     OW25090   7.605   4.340   8.174 -0.3381  0.3670 -1.1127
38259SOL    HW125091   7.567   4.298   8.096 -1.8459  1.8186 -1.2141
38259SOL    HW225092   7.565   4.427   8.176  2.4056  1.7208 -0.7322
38260SOL     OW25093   9.074   1.083   4.790 -0.6948  0.0041  0.1321
38260SOL    HW125094   9.047   1.069   4.881 -1.3339  1.6502  0.2263
38260SOL    HW225095   9.060   0.999   4.747 -0.8285 -0.6617  1.4513
38261SOL     OW25096  11.511   1.799   6.048  0.0813  0.2538  0.4400
38261SOL    HW125097  11.524   1.847   5.966 -0.9117 -1.2549 -0.6484
38261SOL    HW225098  11.580   1.832   6.106  0.7927  1.3769 -0.9764
38262SOL     OW25099   1.942   8.484   3.164 -0.0412  0.4394 -0.3524
38262SOL    HW125100   1.952   8.388   3.166  3.4051  0.6686 -0.9385
38262SOL    HW225101   1.867   8.499   3.107 -2.9151 -1.8992  2.4420
38263SOL     OW25102   0.202   5.242   1.250  0.4418 -0.1169  0.0757
38263SOL    HW125103   0.259   5.207   1.318  2.3884  0.3428 -1.2449
38263SOL    HW225104   0.136   5.292   1.298  0.3436 -1.7410  1.7193
38264SOL     OW25105  12.834  12.233   7.115 -0.3568  0.2649 -0.8087
38264SOL    HW125106  12.840  12.149   7.071  1.5849 -0.2971  0.4001
38264SOL    HW225107  12.924  12.267   7.114 -0.2272  0.3136  2.3840
38265SOL     OW25108  12.251   8.848   8.410 -0.2940 -0.3645  0.5438
38265SOL    HW125109  12.206   8.793   8.474 -0.4201 -1.0876 -0.1441
38265SOL    HW225110  12.341   8.853   8.441 -0.1161 -1.5373  0.2645
38266SOL     OW25111   7.930   7.895   8.089 -0.2257  0.2224  0.1950
38266SOL    HW125112   8.014   7.855   8.065  1.4775  3.6117 -0.0281
38266SOL    HW225113   7.936   7.910   8.183 -1.4713 -1.2758  0.5501
38267SOL     OW25114  11.361  10.283   0.426  0.3545  0.2639  0.0204
38267SOL    HW125115  11.430  10.337   0.464  0.6571 -0.1166  0.0132
38267SOL    HW225116  11.402  10.198   0.409 -0.4521 -0.4202  1.3035
38268SOL     OW25117   4.205  10.713   5.488  0.2845 -0.0013 -0.8531
38268SOL    HW125118   4.281  10.677   5.533  0.4360  1.1276 -0.1826
38268SOL    HW225119   4.225  10.704   5.395 -0.3489 -3.0497 -0.7948
38269SOL     OW25120   5.626   1.909   7.114  0.1209 -0.2033 -0.4863
38269SOL    HW125121   5.645   1.820   7.142 -0.7699 -0.4581 -0.6705
38269SOL    HW225122   5.712   1.949   7.101  0.5250 -0.9540 -0.1593
38270SOL     OW25123  11.782   8.193   8.715 -0.4095  0.0239  0.1900
38270SOL    HW125124  11.876   8.178   8.701 -0.4877 -1.1976  0.8009
38270SOL    HW225125  11.771   8.188   8.810 -0.6647  3.1789  0.4300
38271SOL     OW25126   6.433   3.443   3.007  0.2158  0.5788 -0.6730
38271SOL    HW125127   6.495   3.461   2.936  2.3231 -1.5510  0.4719
38271SOL    HW225128   6.452   3.510   3.073  2.9343 -1.2433  0.5581
38272SOL     OW25129   6.947   8.349   1.901  0.4440 -0.2487  0.1969
38272SOL    HW125130   6.886   8.300   1.847 -0.5757  0.7903  0.3790
38272SOL    HW225131   6.935   8.440   1.876  0.2185  0.2317  1.8775
38273SOL     OW25132   6.341   4.932   5.804  0.2979  0.5334  0.0817
38273SOL    HW125133   6.294   4.882   5.737 -0.3003 -0.8718  1.5071
38273SOL    HW225134   6.326   4.885   5.885 -1.1539  3.5965  1.7532
38274SOL     OW25135   0.545   5.942   4.511  0.4797  0.1600  0.0698
38274SOL    HW125136   0.602   6.003   4.464 -1.4238  3.4989  1.7817
38274SOL    HW225137   0.469   5.932   4.454  0.3159  0.2304  0.2775
38275SOL     OW25138   4.137  11.946  11.231 -0.7076  0.0334  0.1997
38275SOL    HW125139   4.120  12.026  11.182  1.1019 -0.0862 -0.7288
38275SOL    HW225140   4.199  11.897  11.176 -1.0056 -1.5491  1.1945
38276SOL     OW25141   8.166   9.086   5.170  0.0284  0.4108  0.0055
38276SOL    HW125142   8.214   9.018   5.123 -0.5433 -0.6490  0.9012
38276SOL    HW225143   8.233   9.149   5.197  0.8983 -0.8387  0.8889
38277SOL     OW25144   0.085   4.748   7.443  0.6361  0.5972 -0.1192
38277SOL    HW125145   0.010   4.698   7.410  2.2956 -2.4966  0.4584
38277SOL    HW225146   0.144   4.755   7.369  1.3646 -0.2769  0.3621
38278SOL     OW25147  11.780   0.653  12.401 -0.8011  0.0100 -0.1279
38278SOL    HW125148  11.723   0.721  12.365 -0.5718  2.0192  2.9946
38278SOL    HW225149  11.721   0.595  12.448 -0.7075 -0.4929 -0.6195
38279SOL     OW25150   1.772   0.495   6.954 -0.3976 -0.5267 -0.2775
38279SOL    HW125151   1.795   0.427   7.018  0.3055 -0.4959 -0.4855
38279SOL    HW225152   1.753   0.573   7.007  1.4247 -0.1408 -0.1252
38280SOL     OW25153   4.727  11.229   5.572  0.6142 -0.2807 -0.4442
38280SOL    HW125154   4.653  11.218   5.513  2.6897  0.6704 -3.4418
38280SOL    HW225155   4.715  11.317   5.609  1.2824  0.7932 -2.6303
38281SOL     OW25156   2.952   6.533   2.955  0.6328  0.3424 -0.4358
38281SOL    HW125157   2.968   6.622   2.923 -0.0906 -0.0083 -1.8599
38281SOL    HW225158   2.874   6.504   2.908  0.4235 -0.7996  0.5454
38282SOL     OW25159   3.295  12.045  11.519 -0.2366  0.0556  0.1489
38282SOL    HW125160   3.373  12.073  11.567  1.7681 -2.4586 -1.3628
38282SOL    HW225161   3.317  12.059  11.427 -1.7572 -0.3067 -0.2999
38283SOL     OW25162  11.316   8.083   4.514 -0.4103  0.2584 -0.1216
38283SOL    HW125163  11.298   7.992   4.539 -0.3531  0.5094  0.8960
38283SOL    HW225164  11.344   8.077   4.423 -1.7902 -0.5746 -0.5261
38284SOL     OW25165   7.552   6.275   7.792  0.0536 -0.6303 -0.1338
38284SOL    HW125166   7.646   6.258   7.798 -0.0803 -1.1279  0.9746
38284SOL    HW225167   7.529   6.310   7.879 -0.9707 -1.5806 -0.0043
38285SOL     OW25168   8.844  12.928   0.686 -0.2645 -0.1617 -0.1286
38285SOL    HW125169   8.887  12.846   0.714  0.0202  0.4212  1.2171
38285SOL    HW225170   8.844  12.982   0.764  1.2082  1.8612 -1.4287
38286SOL     OW25171   3.691   0.185   3.759  0.1118  0.2728 -0.0259
38286SOL    HW125172   3.629   0.217   3.693  0.0572  2.3394  0.9439
38286SOL    HW225173   3.645   0.198   3.843  0.8697 -0.6150  0.5446
38287SOL     OW25174   0.836   0.702   7.308  0.6995  0.4986  0.2161
38287SOL    HW125175   0.777   0.742   7.372 -0.0837  0.7099 -0.6232
38287SOL    HW225176   0.817   0.608   7.314  0.1229  0.5836 -0.1941
38288SOL     OW25177  11.000   7.669   0.085 -0.6231 -0.4062 -0.0864
38288SOL    HW125178  11.007   7.595   0.147 -1.3851 -2.4082 -2.2543
38288SOL    HW225179  11.075   7.724   0.107 -2.4859  0.7281  4.6315
38289SOL     OW25180   2.044   8.061  12.928  0.4435 -0.0559  0.3643
38289SOL    HW125181   2.033   8.091  13.018 -0.0744  0.8913  0.0022
38289SOL    HW225182   2.135   8.030  12.924  0.6109  0.3174  1.0911
38290SOL     OW25183  10.908   6.716   6.842 -0.2364 -0.1594  0.0180
38290SOL    HW125184  10.944   6.772   6.912 -0.8954 -0.8800  0.9600
38290SOL    HW225185  10.965   6.732   6.767  1.6659 -0.7801  1.2691
38291SOL     OW25186   5.566   8.985   8.488 -0.7905 -0.0861  0.3555
38291SOL    HW125187   5.623   9.060   8.472 -0.4111 -0.4645 -0.0923
38291SOL    HW225188   5.477   9.021   8.484 -0.6002  0.4152  0.5585
38292SOL     OW25189   0.740  10.041   8.328 -0.0885  0.1651 -0.4003
38292SOL    HW125190   0.701  10.012   8.246  0.5052  0.7484 -0.9016
38292SOL    HW225191   0.830  10.007   8.325 -0.1505 -0.0465  0.1317
38293SOL     OW25192   0.293   9.564   4.129  0.2010  0.2021 -0.1217
38293SOL    HW125193   0.218   9.624   4.126 -0.5040 -0.6765 -0.9442
38293SOL    HW225194   0.313   9.547   4.037  0.2660 -0.9386  0.0865
38294SOL     OW25195  11.350   5.354   9.822 -0.0061  0.0466  0.7670
38294SOL    HW125196  11.385   5.361   9.733 -0.8635 -0.7531  0.3494
38294SOL    HW225197  11.309   5.439   9.839  0.6731  0.4091  0.6350
38295SOL     OW25198  11.614   2.002   4.427  0.0062  0.1602  0.2100
38295SOL    HW125199  11.668   1.973   4.353  0.2752  2.1901 -0.4363
38295SOL    HW225200  11.580   2.087   4.401  0.8777  1.4043  2.7618
38296SOL     OW25201   3.053   0.474   7.250  0.5281 -0.1922  0.6607
38296SOL    HW125202   3.075   0.387   7.215  2.3489  0.5694 -0.2419
38296SOL    HW225203   2.958   0.474   7.257  0.5455 -2.7539  2.0240
38297SOL     OW25204   9.180   7.054   9.172  0.7446  0.4664 -0.2193
38297SOL    HW125205   9.232   6.987   9.215  0.5583 -0.2496 -1.0835
38297SOL    HW225206   9.243   7.103   9.119  0.7735  0.5602 -0.0987
38298SOL     OW25207  11.882   0.287  12.688 -0.6170 -0.4792  0.5078
38298SOL    HW125208  11.796   0.276  12.648 -2.1362  0.0451  3.4120
38298SOL    HW225209  11.885   0.221  12.757  1.8737 -1.3204 -0.2731
38299SOL     OW25210   0.822   9.233   8.804 -0.6162 -0.3038 -0.0945
38299SOL    HW125211   0.880   9.163   8.833 -0.7117 -0.0844  0.6589
38299SOL    HW225212   0.828   9.299   8.873 -0.7558  0.2944 -0.6487
38300SOL     OW25213  12.039  12.573   8.257  0.4616 -0.6996  0.2768
38300SOL    HW125214  12.019  12.481   8.241 -0.3668 -0.3082 -1.0461
38300SOL    HW225215  12.126  12.572   8.298  1.6337 -1.9466 -2.0619
38301SOL     OW25216  11.312   3.048  10.318 -0.0136 -0.3725 -0.2439
38301SOL    HW125217  11.217   3.037  10.321  0.0479 -0.9736 -0.3025
38301SOL    HW225218  11.332   3.065  10.226 -0.0827 -0.0429 -0.1986
38302SOL     OW25219   3.793  10.935   1.911  0.0831  0.6939 -0.0600
38302SOL    HW125220   3.793  10.934   1.815  0.5811 -0.6578 -0.0660
38302SOL    HW225221   3.854  11.005   1.934  0.8779  0.2544 -0.7551
38303SOL     OW25222   6.698   9.322   7.840 -0.1101  0.7755 -0.8626
38303SOL    HW125223   6.781   9.281   7.865 -0.3403  0.7018 -0.2058
38303SOL    HW225224   6.631   9.271   7.886 -0.7867 -1.0354 -3.6056
38304SOL     OW25225   2.842   9.157  12.768  0.4452 -0.0321 -0.1276
38304SOL    HW125226   2.816   9.078  12.721 -0.2973 -0.3305  0.7473
38304SOL    HW225227   2.920   9.188  12.722  1.0619 -1.5731 -0.1661
38305SOL     OW25228   2.002  12.596   8.977  0.1329  0.7088 -0.1282
38305SOL    HW125229   1.989  12.536   9.050  0.1169  1.1206  0.2116
38305SOL    HW225230   2.097  12.608   8.973  0.1498  0.5234 -0.3109
38306SOL     OW25231  12.964   5.934   2.336 -0.6579 -0.0856  0.1471
38306SOL    HW125232  12.961   5.840   2.317 -0.1464 -0.2778  0.9773
38306SOL    HW225233  12.889   5.971   2.289 -0.5024 -0.8152 -0.6894
38307SOL     OW25234   4.549   0.663   8.467 -0.8915  0.2180 -0.1825
38307SOL    HW125235   4.501   0.629   8.392 -0.7113  0.6319 -0.4858
38307SOL    HW225236   4.585   0.585   8.510 -1.3869 -0.0555 -0.2544
38308SOL     OW25237  12.188  12.334   3.881 -0.8153 -0.4251  0.3765
38308SOL    HW125238  12.277  12.365   3.898  0.0530 -2.9218  0.8584
38308SOL    HW225239  12.135  12.376   3.949  0.1110  0.5962  0.4886
38309SOL     OW25240   9.886   9.729  12.394  0.0792 -0.3207  0.3438
38309SOL    HW125241   9.978   9.735  12.419 -0.1871  0.1321  1.2569
38309SOL    HW225242   9.861   9.640  12.415  0.6021 -0.8313 -1.0282
38310SOL     OW25243  10.627   1.923   1.459 -0.4239  0.0238  0.1406
38310SOL    HW125244  10.618   1.955   1.549  1.6269  0.7008  0.1613
38310SOL    HW225245  10.575   1.843   1.457 -0.9311  0.2670  1.7880
38311SOL     OW25246   4.574  11.753   3.411  0.7894 -0.0685  0.2275
38311SOL    HW125247   4.515  11.794   3.349  0.3057  2.8543  2.4222
38311SOL    HW225248   4.653  11.807   3.410  1.3795 -0.8712  1.0443
38312SOL     OW25249   5.876   4.268   3.659 -0.2999 -0.4454 -0.1016
38312SOL    HW125250   5.844   4.179   3.676  1.6771 -1.1041  0.5615
38312SOL    HW225251   5.863   4.281   3.565  0.1505 -1.7999 -0.3774
38313SOL     OW25252   5.527   0.604   0.107  0.7054 -0.1294  0.0333
38313SOL    HW125253   5.486   0.541   0.048 -1.3936  0.2478  1.0077
38313SOL    HW225254   5.594   0.648   0.053 -0.2825 -0.6592 -1.6852
38314SOL     OW25255  12.179  11.837   5.078 -0.4206  0.3251  0.0042
38314SOL    HW125256  12.083  11.847   5.079 -0.5709 -0.8527 -0.7546
38314SOL    HW225257  12.193  11.743   5.075  0.7507  0.5029 -1.1130
38315SOL     OW25258  11.788   4.491   8.730 -0.1600 -0.3122  0.0917
38315SOL    HW125259  11.770   4.542   8.810  0.7234 -2.1764  1.5593
38315SOL    HW225260  11.739   4.536   8.661 -1.5757  0.9445  1.8270
38316SOL     OW25261   2.532   7.273   5.552  0.3388 -0.0249  0.2118
38316SOL    HW125262   2.507   7.364   5.533  0.1941 -0.2905 -0.9233
38316SOL    HW225263   2.485   7.252   5.632 -0.7263  0.4620 -0.2614
38317SOL     OW25264   1.490   9.912   0.490  0.4803  0.3422  0.4549
38317SOL    HW125265   1.427   9.896   0.561  1.0177  1.1700  1.1461
38317SOL    HW225266   1.538   9.830   0.483  1.0648  0.5426  1.7344
38318SOL     OW25267   9.041   4.595   3.452 -0.0995 -0.0833  0.1990
38318SOL    HW125268   9.039   4.689   3.468  1.6649 -0.0547  0.5605
38318SOL    HW225269   8.995   4.557   3.526 -0.1494  0.4710  0.4562
38319SOL     OW25270  12.537   4.712   4.221  0.0872 -0.1089 -0.4784
38319SOL    HW125271  12.467   4.656   4.188  0.0517  0.7925 -2.0755
38319SOL    HW225272  12.495   4.765   4.289 -0.3532 -0.7198 -0.2656
38320SOL     OW25273   6.187   1.782   9.303 -0.0173 -0.4672 -0.1917
38320SOL    HW125274   6.147   1.825   9.227  0.1715 -0.9536 -0.5665
38320SOL    HW225275   6.280   1.777   9.282 -0.1569 -1.8917 -0.5704
38321SOL     OW25276   9.168   6.550   4.952  0.0751 -0.1132 -0.2922
38321SOL    HW125277   9.124   6.624   4.994  1.8633  1.3178 -0.7759
38321SOL    HW225278   9.219   6.509   5.022 -0.0499 -0.2070 -0.2554
38322SOL     OW25279   1.755   1.692   6.334  0.0743  0.0663 -0.5682
38322SOL    HW125280   1.794   1.702   6.421 -0.7169  0.8814 -0.2874
38322SOL    HW225281   1.828   1.664   6.278  1.1832  1.9886 -0.1722
38323SOL     OW25282   8.346   4.057   3.075 -0.0344  0.0029  0.4126
38323SOL    HW125283   8.332   4.121   3.005 -1.0281 -1.4424 -0.7930
38323SOL    HW225284   8.441   4.053   3.086  0.0305  1.8156  0.6836
38324SOL     OW25285   9.039   2.739   5.476 -0.9434 -0.3062 -0.0531
38324SOL    HW125286   9.055   2.791   5.555  0.4415  0.2359 -0.6578
38324SOL    HW225287   8.974   2.789   5.427 -0.4782  0.2919 -0.0778
38325SOL     OW25288  12.837   0.101   2.588  0.1492  0.2611 -0.6236
38325SOL    HW125289  12.759   0.072   2.540 -0.6244  0.0920  0.6769
38325SOL    HW225290  12.806   0.173   2.643  0.2694 -1.3335  1.7164
38326SOL     OW25291  11.958   3.291  11.899 -0.1132 -0.3350  0.2961
38326SOL    HW125292  11.924   3.333  11.820  1.1637  0.1891  0.0047
38326SOL    HW225293  11.988   3.205  11.869 -2.2789 -1.3220  0.7991
38327SOL     OW25294  12.944  10.117   0.182 -0.1820 -0.1638  0.1096
38327SOL    HW125295  12.924  10.183   0.249  1.1768 -0.1709  0.5539
38327SOL    HW225296  12.897  10.147   0.104  0.3135  1.2973  0.3352
38328SOL     OW25297   6.710   7.326   2.146  0.0021 -0.7832  0.3001
38328SOL    HW125298   6.753   7.271   2.081 -0.8236 -0.8230 -0.2249
38328SOL    HW225299   6.748   7.299   2.229  0.0873 -1.6832 -0.0206
38329SOL     OW25300   9.133   6.152   5.461 -0.7763  0.3830  0.4933
38329SOL    HW125301   9.125   6.234   5.510  0.7882  0.7222  0.2597
38329SOL    HW225302   9.073   6.161   5.387 -2.2031  0.3993  1.6200
38330SOL     OW25303   9.438   2.012   5.909  0.0149  0.1517 -0.0537
38330SOL    HW125304   9.514   1.957   5.888  1.2104  1.3932  0.8400
38330SOL    HW225305   9.434   2.075   5.837 -0.4036 -0.1283 -0.2810
38331SOL     OW25306   5.419   2.623   9.890  0.7272  0.1956  0.1059
38331SOL    HW125307   5.419   2.632   9.986  0.5260  0.5263  0.0790
38331SOL    HW225308   5.378   2.703   9.859  1.2975  0.3404 -0.2878
38332SOL     OW25309  12.224  12.450   8.421  0.5094 -0.4579  0.0932
38332SOL    HW125310  12.196  12.364   8.452 -0.6017  0.0969  0.6691
38332SOL    HW225311  12.319  12.445   8.420  0.5485 -1.0577  2.0396
38333SOL     OW25312   6.213   2.439   9.148  0.1804  0.2518  0.1596
38333SOL    HW125313   6.304   2.426   9.122  0.9397  1.7869  1.9183
38333SOL    HW225314   6.181   2.508   9.091 -0.2045 -0.8620 -1.0406
38334SOL     OW25315   6.092  12.851   0.133  0.3355  0.3091  0.4139
38334SOL    HW125316   6.167  12.911   0.132 -0.0339  0.7829  0.4930
38334SOL    HW225317   6.017  12.907   0.112  0.1641 -0.3945 -0.9056
38335SOL     OW25318  11.830   3.370  10.757 -0.0773  0.0827 -0.0835
38335SOL    HW125319  11.823   3.465  10.747  0.0504  0.0627 -0.3637
38335SOL    HW225320  11.743   3.343  10.789  0.5526  0.5680  2.2321
38336SOL     OW25321  11.153  10.193  12.907 -0.0526  0.0189 -0.1491
38336SOL    HW125322  11.060  10.201  12.882 -0.0815 -2.4545 -1.0959
38336SOL    HW225323  11.155  10.123  12.972  1.1592 -0.1042 -0.2921
38337SOL     OW25324   0.850   7.579  12.826 -1.2070 -0.3731  0.2409
38337SOL    HW125325   0.886   7.653  12.778  0.3766  0.4723  2.5618
38337SOL    HW225326   0.761   7.568  12.791 -0.5506  0.8734 -1.9944
38338SOL     OW25327  10.288   1.346   3.865  0.0458  0.5957  0.2916
38338SOL    HW125328  10.308   1.362   3.958 -0.7882  1.2689  0.3751
38338SOL    HW225329  10.280   1.434   3.827  2.7408  0.3641 -0.9975
38339SOL     OW25330   9.334   8.156   5.565 -0.3728 -0.2507  0.4024
38339SOL    HW125331   9.265   8.096   5.592  0.6219 -1.0162  1.3342
38339SOL    HW225332   9.404   8.099   5.534  0.0710  0.4924  0.0152
38340SOL     OW25333   9.339   1.350   6.718  0.0893  0.1416  0.1668
38340SOL    HW125334   9.343   1.417   6.650 -0.6298 -1.0295 -1.0781
38340SOL    HW225335   9.430   1.332   6.739  0.3317  0.3529 -0.6591
38341SOL     OW25336   7.208  10.522   5.099 -0.7121 -0.1224  0.3598
38341SOL    HW125337   7.246  10.455   5.156  0.3007  1.0189  1.0865
38341SOL    HW225338   7.240  10.499   5.012 -1.3134 -1.2231  0.4120
38342SOL     OW25339   2.094   4.549   0.505 -0.3519  0.1642  0.1802
38342SOL    HW125340   2.000   4.530   0.518 -0.3449  0.0750  0.1070
38342SOL    HW225341   2.136   4.513   0.583 -0.0605 -2.3432 -1.0169
38343SOL     OW25342   2.235  12.785  11.046  0.2701 -0.0744  0.6144
38343SOL    HW125343   2.141  12.773  11.062  0.0192  1.2616  0.2547
38343SOL    HW225344   2.277  12.722  11.104 -0.8382 -0.5446  0.9426
38344SOL     OW25345   9.626   1.698  12.799  0.3399 -0.6587  0.2021
38344SOL    HW125346   9.569   1.775  12.793 -0.9828 -1.6519 -0.4926
38344SOL    HW225347   9.695   1.725  12.859 -0.8329  0.6127  1.0694
38345SOL     OW25348   5.970   7.474   1.053 -1.0620 -0.3879 -0.3733
38345SOL    HW125349   6.014   7.408   0.999  2.3924  1.6408 -0.3376
38345SOL    HW225350   5.991   7.557   1.010 -0.6243  1.0945  2.5017
38346SOL     OW25351   9.684   8.983  10.173 -0.3184 -0.0171  0.0181
38346SOL    HW125352   9.686   9.035  10.092  1.5615  0.2759  0.2060
38346SOL    HW225353   9.684   9.048  10.243 -3.2082 -0.2373  0.3519
38347SOL     OW25354   3.162   0.696   7.394 -0.0790 -0.2830  0.4872
38347SOL    HW125355   3.126   0.631   7.333 -0.3650  0.9438 -0.7042
38347SOL    HW225356   3.130   0.669   7.480  0.3802 -2.1000  0.1407
38348SOL     OW25357   2.000   4.206   7.970  0.2550 -0.0490  0.2204
38348SOL    HW125358   1.935   4.276   7.962 -0.0381 -0.2454  0.7552
38348SOL    HW225359   2.040   4.200   7.884 -0.7200 -0.1837 -0.2432
38349SOL     OW25360   1.861   2.229  10.504  0.0808 -0.4744  0.0017
38349SOL    HW125361   1.934   2.248  10.564 -0.8596  2.8196  0.3096
38349SOL    HW225362   1.798   2.298  10.522 -2.0174 -1.7495 -2.0567
38350SOL     OW25363  11.755   4.277   9.371 -0.1678  0.2037  0.0823
38350SOL    HW125364  11.820   4.300   9.304 -0.9265  0.2409 -0.6575
38350SOL    HW225365  11.704   4.206   9.331  1.3119 -2.0024  1.8103
38351SOL     OW25366   0.377   4.985   7.891 -0.2648 -0.1911  0.4077
38351SOL    HW125367   0.416   4.918   7.835 -0.0423 -0.2501  0.6327
38351SOL    HW225368   0.387   4.952   7.980 -2.2961 -0.9779  0.3925
38352SOL     OW25369   7.293   1.779   0.153 -0.2643 -0.3743 -0.2900
38352SOL    HW125370   7.383   1.749   0.146  0.5642  1.2283  2.1918
38352SOL    HW225371   7.254   1.757   0.068  2.7450 -0.1233 -1.8984
38353SOL     OW25372   0.361   9.263   7.656 -0.2720  0.4382  0.4448
38353SOL    HW125373   0.319   9.258   7.570 -0.1954  1.4425  0.3347
38353SOL    HW225374   0.395   9.352   7.661  1.2866 -0.1385  0.7938
38354SOL     OW25375   1.153   4.285   1.580 -0.0646  0.0323 -0.2052
38354SOL    HW125376   1.168   4.379   1.584  0.8097 -0.0951 -0.4459
38354SOL    HW225377   1.069   4.276   1.534  0.1531  0.6653 -0.7303
38355SOL     OW25378   3.298   9.474   6.837  0.0883 -0.0015 -0.7885
38355SOL    HW125379   3.283   9.402   6.898  0.3212 -0.4125 -1.2128
38355SOL    HW225380   3.268   9.552   6.885  1.5314 -0.1240  0.3943
38356SOL     OW25381   4.733  11.712  10.364 -0.5663 -0.1861  0.2006
38356SOL    HW125382   4.729  11.748  10.452 -1.2150  0.8987 -0.2555
38356SOL    HW225383   4.689  11.627  10.371 -0.1060 -0.3699  1.0267
38357SOL     OW25384   5.887   7.127   3.255  0.4505 -0.0280  0.7786
38357SOL    HW125385   5.972   7.171   3.256  0.7224 -0.3927 -1.5729
38357SOL    HW225386   5.832   7.179   3.314  1.0412  2.9128 -1.0879
38358SOL     OW25387  11.606  12.370   1.930  0.3845  0.1484  0.2499
38358SOL    HW125388  11.562  12.300   1.978 -0.9036 -0.4478 -1.7047
38358SOL    HW225389  11.699  12.348   1.934 -0.0741 -2.5862 -1.5898
38359SOL     OW25390   4.995   7.269  11.927 -0.5740  0.1287 -0.0165
38359SOL    HW125391   4.914   7.299  11.887 -0.0567  0.1207 -1.1025
38359SOL    HW225392   5.061   7.278  11.858  0.3910  0.3250  0.9032
38360SOL     OW25393   0.414   5.502  12.155 -0.5470  0.3525  0.1864
38360SOL    HW125394   0.443   5.433  12.215 -2.1014 -0.9316 -0.4768
38360SOL    HW225395   0.464   5.486  12.074  0.4722  1.1985  0.6160
38361SOL     OW25396  11.304   2.970   8.528 -0.7255 -0.4764  0.6907
38361SOL    HW125397  11.329   2.878   8.517  0.1698 -0.3812  1.7381
38361SOL    HW225398  11.386   3.016   8.542 -0.9427  0.8783 -1.9501
38362SOL     OW25399   4.218   8.455   3.330  0.2380 -0.0124 -0.2517
38362SOL    HW125400   4.193   8.363   3.333  0.4449 -0.0615  0.0136
38362SOL    HW225401   4.153   8.500   3.383 -0.4394  0.1341 -1.1858
38363SOL     OW25402   5.768  12.767   7.746 -0.0238  0.4462 -0.5945
38363SOL    HW125403   5.678  12.749   7.719  0.0493  0.5076 -0.8844
38363SOL    HW225404   5.765  12.857   7.780 -0.0314  0.5262 -0.8015
38364SOL     OW25405   8.967   1.425  11.106  0.0857 -0.5248  0.1030
38364SOL    HW125406   8.996   1.454  11.193 -1.0853 -0.5083  0.5143
38364SOL    HW225407   8.872   1.437  11.108  0.0358 -0.6058 -1.1596
38365SOL     OW25408   3.309   5.162   1.309  0.1112 -0.2802  0.1447
38365SOL    HW125409   3.353   5.088   1.268 -0.0143  0.7293 -1.9530
38365SOL    HW225410   3.256   5.200   1.239 -1.5661  0.4757  1.7518
38366SOL     OW25411   3.954  12.578   0.622  0.0584  0.2986 -0.8465
38366SOL    HW125412   3.864  12.577   0.587  0.3531  0.2615 -1.6213
38366SOL    HW225413   4.000  12.641   0.567  0.5700  0.1355 -0.6053
38367SOL     OW25414   1.159   8.123  11.096 -0.1689 -0.3137  0.0541
38367SOL    HW125415   1.240   8.085  11.062  0.6269  1.1788  0.2118
38367SOL    HW225416   1.105   8.136  11.018  0.7936  1.0675 -0.4346
38368SOL     OW25417   3.955   3.061   4.779 -0.1561 -0.1672  0.2271
38368SOL    HW125418   4.040   3.104   4.786 -0.8928  2.1125 -2.5660
38368SOL    HW225419   3.913   3.076   4.863  1.5871  0.0620  1.0981
38369SOL     OW25420  10.159   4.089   5.751 -0.2123  0.1371  0.2891
38369SOL    HW125421  10.080   4.144   5.758  0.5988  1.7358 -2.0741
38369SOL    HW225422  10.140   4.030   5.678 -0.1707 -1.2575  1.3657
38370SOL     OW25423   1.629   0.556   9.771  0.5862 -0.8064 -0.1563
38370SOL    HW125424   1.670   0.505   9.702  3.5012  0.1157  0.7319
38370SOL    HW225425   1.637   0.501   9.849 -2.2685 -1.6556 -0.3723
38371SOL     OW25426  11.557   8.767   5.694  0.1844  0.4457  0.1358
38371SOL    HW125427  11.479   8.817   5.668  0.3478  0.2751 -0.6938
38371SOL    HW225428  11.588   8.727   5.613  1.2968  0.7258  0.4175
38372SOL     OW25429   2.780   4.509   7.675 -0.0822  0.7404 -0.5843
38372SOL    HW125430   2.755   4.447   7.743  1.4400 -0.2475 -0.8862
38372SOL    HW225431   2.843   4.567   7.717  0.6202  0.3258 -1.0396
38373SOL     OW25432   3.826   8.709   4.731  0.2600  0.3381 -0.3215
38373SOL    HW125433   3.839   8.787   4.677  1.1400 -0.3403 -1.1160
38373SOL    HW225434   3.840   8.635   4.672 -2.3002 -0.4895 -0.0375
38374SOL     OW25435  12.535   1.718   6.831 -0.2213 -0.0368  0.0384
38374SOL    HW125436  12.491   1.689   6.751 -1.1608  0.6768  0.2749
38374SOL    HW225437  12.527   1.643   6.891 -0.9413  0.0027  0.0035
38375SOL     OW25438   7.784   8.757   9.579  0.0186 -0.0135  0.2507
38375SOL    HW125439   7.782   8.675   9.530  0.6552 -0.0093  0.2108
38375SOL    HW225440   7.877   8.771   9.598 -0.1898  0.0718  1.3042
38376SOL     OW25441  11.568  11.315   9.376 -0.4805  0.1453 -0.4307
38376SOL    HW125442  11.617  11.397   9.379 -0.1556  0.0586 -2.3680
38376SOL    HW225443  11.636  11.247   9.380 -0.3323  0.0242 -3.2782
38377SOL     OW25444  11.347   7.817   9.790 -0.3139 -0.1860  0.4030
38377SOL    HW125445  11.274   7.761   9.817 -1.0240  0.4179 -0.2194
38377SOL    HW225446  11.318   7.906   9.809 -0.0597  0.1191 -0.5705
38378SOL     OW25447  12.864   8.150   3.535  0.4685  0.0176 -0.2611
38378SOL    HW125448  12.927   8.093   3.492 -0.0920 -0.3579 -0.5952
38378SOL    HW225449  12.862   8.120   3.626 -1.2618 -1.8315 -0.8390
38379SOL     OW25450   2.771   7.292   0.876 -0.0137 -0.4457 -0.4721
38379SOL    HW125451   2.799   7.217   0.928  0.2681 -0.0780 -0.0808
38379SOL    HW225452   2.837   7.300   0.808  1.4669  1.0273  1.0363
38380SOL     OW25453   3.247   3.362   0.516 -0.2184  0.4430  0.1051
38380SOL    HW125454   3.246   3.273   0.551 -3.0726  1.0082  1.8342
38380SOL    HW225455   3.193   3.358   0.437 -0.1013  0.5638  0.0198
38381SOL     OW25456   8.960  11.472   3.167 -0.2303  0.1960 -0.1370
38381SOL    HW125457   8.930  11.541   3.226 -2.2009 -2.9433  2.8848
38381SOL    HW225458   8.896  11.472   3.096 -0.5445  1.0800  0.1354
38382SOL     OW25459   6.533   5.931   7.412 -0.2875  0.5726  0.1136
38382SOL    HW125460   6.507   5.844   7.382  0.2760  0.0827  1.0160
38382SOL    HW225461   6.482   5.991   7.357 -0.4038 -0.3084 -0.7718
38383SOL     OW25462   9.169   6.556   1.511  0.3387 -0.4715  0.5179
38383SOL    HW125463   9.148   6.465   1.531 -0.2666 -0.9446 -1.9591
38383SOL    HW225464   9.196   6.555   1.419 -1.6143  2.1169 -0.1880
38384SOL     OW25465   4.888   3.857   3.220 -0.2235 -0.3741 -1.0453
38384SOL    HW125466   4.843   3.845   3.136 -0.3315  3.3192 -1.6802
38384SOL    HW225467   4.818   3.854   3.285 -0.4087 -1.3020 -1.2720
38385SOL     OW25468  11.215   6.767   4.663 -0.4166 -0.5249 -0.1282
38385SOL    HW125469  11.249   6.779   4.752 -2.3564  0.3444  0.5654
38385SOL    HW225470  11.243   6.846   4.616 -1.2015  0.0703  0.3676
38386SOL     OW25471   0.806  10.577   5.852  0.8598  0.5763 -0.4411
38386SOL    HW125472   0.830  10.592   5.761  0.8601 -1.2148 -0.7850
38386SOL    HW225473   0.888  10.552   5.894  0.8052  1.0990 -0.0154
38387SOL     OW25474   0.677   4.441   8.669 -0.7074 -0.3527 -0.7664
38387SOL    HW125475   0.716   4.412   8.587 -0.6902 -1.3045 -0.4393
38387SOL    HW225476   0.749   4.481   8.718 -0.4433 -0.8757 -0.7239
38388SOL     OW25477   9.719  12.105   6.661  0.1703  0.7179  0.0667
38388SOL    HW125478   9.763  12.021   6.648  1.6925  1.4006  0.6130
38388SOL    HW225479   9.740  12.130   6.751  0.2032  1.9425 -0.2645
38389SOL     OW25480   3.931  11.469  12.090  0.8599  0.1919  0.2057
38389SOL    HW125481   3.918  11.375  12.104 -1.5680  0.5912  0.9765
38389SOL    HW225482   3.938  11.478  11.995  0.6178 -0.7169  0.0906
38390SOL     OW25483   2.326  11.294   9.377 -0.1244 -0.5777  0.3244
38390SOL    HW125484   2.323  11.333   9.290 -1.8996  0.4737  0.8080
38390SOL    HW225485   2.235  11.288   9.404  0.4191  0.3608  2.6368
38391SOL     OW25486  12.950  10.013   8.354 -0.2226  0.0072 -0.0408
38391SOL    HW125487  12.947   9.932   8.303 -0.6962 -0.0281  0.0373
38391SOL    HW225488  12.865  10.017   8.398 -0.6168  1.0440 -0.8278
38392SOL     OW25489   5.566   1.716   6.629 -1.0370  0.1469 -0.0720
38392SOL    HW125490   5.548   1.694   6.721  1.5740  1.8118  0.9748
38392SOL    HW225491   5.514   1.796   6.614  0.4340  1.3255  0.8474
38393SOL     OW25492   2.822   7.764   4.154 -0.4320 -0.4097 -0.5373
38393SOL    HW125493   2.881   7.789   4.083  0.9485 -1.7725  0.0619
38393SOL    HW225494   2.853   7.814   4.230 -0.5800 -0.5031 -0.4152
38394SOL     OW25495  12.250   0.119   4.145 -0.3739  0.3550 -0.0399
38394SOL    HW125496  12.166   0.092   4.106 -0.6655  1.7654 -0.4665
38394SOL    HW225497  12.234   0.119   4.239 -0.7023  0.1440 -0.0945
38395SOL     OW25498  12.858  10.764   0.992  0.8123 -0.0989 -0.5112
38395SOL    HW125499  12.859  10.675   0.957  1.1192 -0.2598 -0.1049
38395SOL    HW225500  12.949  10.783   1.013  0.4369 -0.8059  2.1321
38396SOL     OW25501   0.207   3.777   7.303  0.2399  0.1979 -0.3238
38396SOL    HW125502   0.235   3.842   7.367 -1.3619  0.9545 -0.3550
38396SOL    HW225503   0.180   3.702   7.356  1.0749 -0.0651 -0.2452
38397SOL     OW25504   1.888  11.070  11.921  0.2642  0.1116 -0.6329
38397SOL    HW125505   1.961  11.119  11.882 -1.4324  1.9371 -1.6623
38397SOL    HW225506   1.815  11.084  11.862 -1.7584  0.8643  1.8611
38398SOL     OW25507   7.001   0.668  12.826  0.2900  0.0513  0.2308
38398SOL    HW125508   7.004   0.700  12.736 -0.5990 -1.4064 -0.3568
38398SOL    HW225509   7.011   0.573  12.817  0.5334 -0.0764  1.7062
38399SOL     OW25510  12.366  11.673   6.801 -0.1935  0.3402 -0.2920
38399SOL    HW125511  12.369  11.645   6.709 -1.5722 -2.2425  0.3683
38399SOL    HW225512  12.368  11.769   6.796  2.1673  0.3164 -2.8730
38400SOL     OW25513   1.119   4.231   4.715 -0.0753 -0.2283  0.3061
38400SOL    HW125514   1.167   4.309   4.742  0.6729  0.7910 -3.3442
38400SOL    HW225515   1.186   4.163   4.708 -0.2382 -0.4470  0.8240
38401SOL     OW25516  12.470   5.822  11.873 -0.6372 -0.4872  0.0489
38401SOL    HW125517  12.541   5.860  11.821 -2.3094 -0.0220 -1.9990
38401SOL    HW225518  12.435   5.896  11.922 -0.7777 -0.3718 -0.2235
38402SOL     OW25519  12.229  12.203  12.956 -0.2165 -0.3306  0.6663
38402SOL    HW125520  12.175  12.183  13.032 -0.9259  2.5508  1.0013
38402SOL    HW225521  12.170  12.190  12.881 -0.1660 -0.9780  0.7261
38403SOL     OW25522  12.036   0.283   2.244  0.8124 -0.6527 -0.4750
38403SOL    HW125523  12.125   0.303   2.217  0.6064  0.2415 -0.5285
38403SOL    HW225524  12.011   0.207   2.191  0.8067  0.3761 -1.9989
38404SOL     OW25525   5.171  12.723   5.493  0.3262  0.4888 -0.6672
38404SOL    HW125526   5.105  12.731   5.424 -1.7148 -2.2813  0.7550
38404SOL    HW225527   5.230  12.654   5.463 -0.5744 -0.7314  0.2866
38405SOL     OW25528   2.388   3.855   9.936  0.2681 -0.0311  0.0996
38405SOL    HW125529   2.321   3.922   9.947  0.4472  0.1310  0.2226
38405SOL    HW225530   2.380   3.827   9.845  0.6603  0.6638 -0.1601
38406SOL     OW25531  12.914   3.617   8.772  0.0672  1.5920 -0.0979
38406SOL    HW125532  12.907   3.675   8.848  1.4510  0.9530  0.5480
38406SOL    HW225533  13.008   3.603   8.761 -0.2035 -1.4069  0.4678
38407SOL     OW25534   5.632   6.825   7.169  0.7871  0.5556 -0.1250
38407SOL    HW125535   5.671   6.881   7.236  1.7648  0.4298 -0.5724
38407SOL    HW225536   5.705   6.800   7.113  0.7849 -2.7587  1.1361
38408SOL     OW25537  10.151  11.071   3.867  0.0998 -0.0402  0.2011
38408SOL    HW125538  10.140  10.976   3.866 -2.5174  0.1754  0.0803
38408SOL    HW225539  10.243  11.085   3.889  0.5535 -2.5880  0.2010
38409SOL     OW25540   2.908   9.128   1.189  0.1863  0.3701  0.0624
38409SOL    HW125541   2.901   9.057   1.252 -0.1757 -0.5495 -0.9653
38409SOL    HW225542   2.824   9.173   1.194  0.6520  1.1689  1.1823
38410SOL     OW25543   6.150   8.834  10.852 -0.2196 -0.6320 -0.4312
38410SOL    HW125544   6.236   8.875  10.863 -0.9268  1.3333 -1.6313
38410SOL    HW225545   6.168   8.752  10.807  0.9479  0.4754 -2.1173
38411SOL     OW25546  10.511  10.563  11.358  0.0088  0.7801  0.2709
38411SOL    HW125547  10.567  10.567  11.436 -1.0432 -0.5032  1.1372
38411SOL    HW225548  10.561  10.512  11.294  0.5076  1.0656  0.4333
38412SOL     OW25549   5.579   4.601   4.629 -0.1937 -0.5906 -0.2312
38412SOL    HW125550   5.577   4.509   4.601  0.7735 -0.3819 -1.0620
38412SOL    HW225551   5.665   4.612   4.669 -0.3959 -0.0982  0.0800
38413SOL     OW25552  10.019   3.538   0.315  0.0359 -0.5246  0.0848
38413SOL    HW125553  10.045   3.505   0.230  1.8912 -0.6327  0.6587
38413SOL    HW225554   9.976   3.622   0.296 -0.2523 -0.9059 -0.9962
38414SOL     OW25555   1.449   0.199  12.243 -0.5939 -0.5665  0.0180
38414SOL    HW125556   1.533   0.165  12.273 -0.2244 -1.2738 -1.7412
38414SOL    HW225557   1.470   0.278  12.193 -0.9674 -0.7532 -0.4452
38415SOL     OW25558  11.902   2.995   6.613 -0.9686  0.1581  0.2354
38415SOL    HW125559  11.890   3.025   6.703  0.6723  0.6249  0.3326
38415SOL    HW225560  11.932   2.904   6.621 -0.7221  0.2324  0.1745
38416SOL     OW25561   7.059   6.882   4.917 -0.3745  0.0109 -0.1198
38416SOL    HW125562   7.066   6.968   4.959 -0.6930  0.3798 -0.8037
38416SOL    HW225563   6.990   6.837   4.964  0.0097  0.0037  0.4491
38417SOL     OW25564   2.469   4.390   4.325 -0.2570 -0.2789  0.3392
38417SOL    HW125565   2.519   4.431   4.395  0.8537 -0.1324 -0.5225
38417SOL    HW225566   2.527   4.324   4.289 -1.2559 -1.1784  0.3224
38418SOL     OW25567  11.398   3.463   7.593  0.8074 -0.5764  0.6769
38418SOL    HW125568  11.336   3.486   7.524 -0.9293 -1.8841  1.7195
38418SOL    HW225569  11.393   3.536   7.655 -0.0945 -0.9070  1.0043
38419SOL     OW25570   1.205   6.992   2.712 -0.1200 -0.2113 -0.2011
38419SOL    HW125571   1.141   6.971   2.780  0.5064  0.7211  0.6989
38419SOL    HW225572   1.185   6.931   2.641 -0.3832 -1.6597  1.0529
38420SOL     OW25573   4.457   9.071   0.255 -0.3045 -0.4373  0.5593
38420SOL    HW125574   4.445   8.977   0.242 -0.6936 -0.7928  2.9807
38420SOL    HW225575   4.551   9.083   0.263  0.2258  0.1445 -4.0218
38421SOL     OW25576   0.649   4.052   6.999  0.1998 -0.1041  0.3940
38421SOL    HW125577   0.613   3.965   7.015  1.0419 -0.5533 -0.0922
38421SOL    HW225578   0.641   4.096   7.084 -1.4373 -0.1893  0.3057
38422SOL     OW25579   5.379   7.640  10.528  0.2522 -0.5641 -0.3679
38422SOL    HW125580   5.312   7.625  10.595  0.0094  0.1968 -0.4262
38422SOL    HW225581   5.436   7.564  10.534 -0.1591 -0.8379  0.2357
38423SOL     OW25582  11.757   4.198   8.375 -0.0478  0.0175  0.0941
38423SOL    HW125583  11.723   4.206   8.286 -1.8796 -0.1733  0.7508
38423SOL    HW225584  11.779   4.288   8.400  1.4183 -0.0331 -0.8617
38424SOL     OW25585   1.638  11.543   6.916  0.0376  0.2627 -0.0394
38424SOL    HW125586   1.692  11.556   6.838  0.0119 -0.7317 -0.2394
38424SOL    HW225587   1.655  11.452   6.942 -0.5477  0.3419  0.6607
38425SOL     OW25588  12.592  12.380   7.134  0.1203  0.1073  0.9409
38425SOL    HW125589  12.551  12.381   7.048 -1.5450 -3.1625  1.5513
38425SOL    HW225590  12.682  12.352   7.119  0.4630  1.5102  0.1606
38426SOL     OW25591  12.444   4.147   0.092 -0.3461 -0.1971 -0.3889
38426SOL    HW125592  12.390   4.084   0.140  1.7628  0.0136  2.5810
38426SOL    HW225593  12.388   4.179   0.022 -2.8157 -2.4798  0.3771
38427SOL     OW25594   8.309   5.810   7.086  0.4153  0.1507  0.3300
38427SOL    HW125595   8.309   5.882   7.149  2.3085  1.2763 -0.8479
38427SOL    HW225596   8.355   5.846   7.010 -0.4443 -1.6522 -1.1058
38428SOL     OW25597   3.758   4.118  11.127  0.3763  0.2933 -0.2087
38428SOL    HW125598   3.772   4.172  11.049 -0.9729 -0.7440 -1.2152
38428SOL    HW225599   3.681   4.155  11.169  1.7674  1.5803  1.3589
38429SOL     OW25600   3.812   9.826   1.457 -0.1828  0.0440 -0.2711
38429SOL    HW125601   3.758   9.847   1.533 -0.2581 -0.1219 -0.2780
38429SOL    HW225602   3.805   9.730   1.448  0.8041 -0.0938  0.2564
38430SOL     OW25603   1.359   9.665   2.209 -0.1301 -0.2088 -0.2609
38430SOL    HW125604   1.454   9.655   2.218 -0.1464  0.4162  0.7925
38430SOL    HW225605   1.337   9.614   2.131  1.2684  0.8323 -1.3879
38431SOL     OW25606   8.042  12.042   4.402 -0.1299 -0.0784  1.0350
38431SOL    HW125607   8.004  12.026   4.489 -0.9752 -1.0875  0.4994
38431SOL    HW225608   8.007  12.127   4.376  1.3389  0.9671  2.2955
38432SOL     OW25609   5.229  12.125   0.716  0.3552 -0.7193  0.3983
38432SOL    HW125610   5.287  12.067   0.766  0.9445 -0.7531 -0.2941
38432SOL    HW225611   5.256  12.112   0.625  0.5472  0.6764  0.2273
38433SOL     OW25612   1.931   2.226  10.091 -0.2540 -0.7479  0.2763
38433SOL    HW125613   1.925   2.298  10.154  1.2727 -0.5177  0.1986
38433SOL    HW225614   1.908   2.265  10.007  0.2382 -0.4097  0.2909
38434SOL     OW25615  10.587   3.702  10.870 -0.3247  0.2013  0.5029
38434SOL    HW125616  10.626   3.632  10.922 -0.4987 -0.1655  0.1421
38434SOL    HW225617  10.610   3.782  10.917  3.1732  0.2803 -0.9889
38435SOL     OW25618   3.774   0.680   9.009  0.5323  0.0245 -0.3022
38435SOL    HW125619   3.769   0.770   9.042  2.1031 -0.1085  0.4078
38435SOL    HW225620   3.698   0.671   8.952 -0.5888  1.2430  0.9362
38436SOL     OW25621   2.744  11.369  10.548  0.0248 -0.5697  0.1998
38436SOL    HW125622   2.663  11.412  10.575  0.8140  1.1863 -0.1073
38436SOL    HW225623   2.788  11.347  10.630 -0.9854 -2.0457  0.3782
38437SOL     OW25624  10.429  11.001   3.866 -0.3622  0.4313 -0.4260
38437SOL    HW125625  10.411  10.913   3.900  1.3355 -0.4789 -1.7552
38437SOL    HW225626  10.495  11.036   3.926 -0.3747  0.4497 -0.4227
38438SOL     OW25627   9.556   3.424  12.862  0.5581  0.4418 -0.0470
38438SOL    HW125628   9.474   3.441  12.909  0.5327  0.7658 -0.2087
38438SOL    HW225629   9.535   3.352  12.802 -0.0400  1.5443 -1.1968
38439SOL     OW25630   1.110  11.300   6.277 -0.0229  0.7075 -0.4142
38439SOL    HW125631   1.014  11.303   6.269 -0.1830  0.3454  1.1051
38439SOL    HW225632   1.140  11.379   6.232 -1.1168  1.4273  0.0801
38440SOL     OW25633   6.902   6.350   8.258 -0.4449 -0.0029 -0.3495
38440SOL    HW125634   6.830   6.385   8.310  0.4961  0.3862  0.7317
38440SOL    HW225635   6.971   6.416   8.264  1.3089 -1.8714  1.6111
38441SOL     OW25636  12.504   3.052   9.925  0.1936  0.4010  0.3383
38441SOL    HW125637  12.454   3.061   9.844  1.1936 -1.7922 -0.6092
38441SOL    HW225638  12.455   2.988   9.977 -0.8459  2.3472  1.8768
38442SOL     OW25639  10.063   8.296   3.051 -0.2603  0.3785 -0.0989
38442SOL    HW125640  10.059   8.215   3.000  0.8167 -0.0098  0.3937
38442SOL    HW225641  10.136   8.345   3.013  0.2952  0.2652  0.7982
38443SOL     OW25642   8.643   1.123   1.399 -0.1364 -0.5559 -0.1737
38443SOL    HW125643   8.664   1.208   1.437 -2.2068  0.4530 -1.1215
38443SOL    HW225644   8.562   1.097   1.443 -1.0708 -0.6620 -1.8991
38444SOL     OW25645  10.522   1.753  12.032  0.9563  0.3054  0.0136
38444SOL    HW125646  10.507   1.741  11.938 -0.2279  0.5089  0.1612
38444SOL    HW225647  10.504   1.846  12.047  0.5225  0.1409  0.5428
38445SOL     OW25648   5.549  10.439   8.931 -0.0826  0.7244 -0.0558
38445SOL    HW125649   5.623  10.385   8.957 -0.1420  0.6899  0.0415
38445SOL    HW225650   5.568  10.526   8.967  1.0831  1.3650 -2.0367
38446SOL     OW25651   8.612   6.229   9.904 -0.0393 -0.3494 -0.1126
38446SOL    HW125652   8.707   6.232   9.912 -0.0163 -0.3879 -0.3712
38446SOL    HW225653   8.582   6.200   9.990  0.3098 -2.5614 -0.6805
38447SOL     OW25654   5.597  11.870  11.615 -0.1008  0.4456  1.0210
38447SOL    HW125655   5.505  11.897  11.612 -0.5223 -0.9526  0.7209
38447SOL    HW225656   5.616  11.863  11.708 -0.7073 -0.5406  1.0819
38448SOL     OW25657  12.040   8.815   1.676 -0.2935  0.3185 -0.8974
38448SOL    HW125658  11.997   8.736   1.642  0.2152 -0.1287 -0.5092
38448SOL    HW225659  12.114   8.782   1.726  1.5969  1.1171 -3.0105
38449SOL     OW25660   6.336   0.397   4.277 -0.5329  0.4300  0.4364
38449SOL    HW125661   6.286   0.477   4.293  0.9037  1.0962  1.8036
38449SOL    HW225662   6.407   0.425   4.219  1.0682  0.6386  2.3888
38450SOL     OW25663   2.952   6.768   5.073 -0.6644  0.0656 -0.1217
38450SOL    HW125664   2.934   6.823   4.997  0.0441 -0.0764 -0.3981
38450SOL    HW225665   2.968   6.681   5.036  0.0909  0.0850  0.1525
38451SOL     OW25666   6.497  11.213  11.142  0.7056  0.2748 -0.2450
38451SOL    HW125667   6.456  11.294  11.172 -1.5612 -1.1470  0.7386
38451SOL    HW225668   6.591  11.228  11.153  0.2464  2.0208  1.9129
38452SOL     OW25669   2.957   8.718  12.812  0.0547  0.2753 -0.3773
38452SOL    HW125670   2.884   8.774  12.786  0.6425  0.8995 -0.7028
38452SOL    HW225671   2.975   8.743  12.903 -2.2513 -2.1757  0.9061
38453SOL     OW25672   8.180  12.918   2.511  0.0544  0.3718 -0.3780
38453SOL    HW125673   8.234  12.839   2.504 -1.7301 -1.1315  1.6965
38453SOL    HW225674   8.134  12.923   2.427  1.4089  0.2032 -1.1596
38454SOL     OW25675   9.630  10.687   9.363 -0.0433  0.1938 -0.2343
38454SOL    HW125676   9.634  10.782   9.375  0.8640  0.1923 -0.4541
38454SOL    HW225677   9.543  10.663   9.396 -0.7769  1.2498 -1.3072
38455SOL     OW25678   4.711   4.740   1.972  0.1171  0.1709  0.5226
38455SOL    HW125679   4.743   4.790   1.897 -1.3475 -0.9149 -0.8977
38455SOL    HW225680   4.772   4.666   1.978  0.9304  0.8630  1.1952
38456SOL     OW25681  12.084   7.163   3.694 -0.6860  0.0751 -0.2609
38456SOL    HW125682  12.159   7.148   3.751 -1.1028 -0.2526  0.2075
38456SOL    HW225683  12.107   7.121   3.611  0.2539  1.2175 -0.6183
38457SOL     OW25684  11.988  12.985   1.442 -0.5719 -0.0547 -0.1505
38457SOL    HW125685  11.951  13.071   1.425  1.7106  0.4754 -3.3003
38457SOL    HW225686  11.930  12.924   1.396 -1.9414 -0.2446  1.7209
38458SOL     OW25687   1.768  12.913   8.617  0.5438  0.2157  0.1814
38458SOL    HW125688   1.852  12.957   8.605  0.4497  0.6531  0.9989
38458SOL    HW225689   1.748  12.873   8.533  2.7136 -1.9267  0.5747
38459SOL     OW25690  11.305   9.928   8.728 -0.1248 -0.0587 -0.2302
38459SOL    HW125691  11.335   9.848   8.685 -2.3988 -0.5773 -1.0099
38459SOL    HW225692  11.379   9.987   8.723  2.5801 -2.7912  2.5083
38460SOL     OW25693  11.426  12.972   3.296  0.3551 -0.1106  0.1768
38460SOL    HW125694  11.506  13.023   3.280  0.3968 -0.2821 -0.1728
38460SOL    HW225695  11.440  12.891   3.247  0.9746 -1.1595  2.0170
38461SOL     OW25696   5.058   7.846   0.395  0.1383  0.0919 -0.2654
38461SOL    HW125697   5.044   7.796   0.315 -1.3504  1.2639 -0.7894
38461SOL    HW225698   5.069   7.936   0.365  1.5860  0.2873  0.7356
38462SOL     OW25699   8.847   8.871   1.145 -0.0902  0.5500  0.1901
38462SOL    HW125700   8.935   8.867   1.108  0.0991  2.9936  0.1996
38462SOL    HW225701   8.859   8.853   1.238  0.7439  2.5991  0.5341
38463SOL     OW25702   1.668   1.109   7.197 -0.1030 -0.2452  0.0274
38463SOL    HW125703   1.739   1.137   7.139  1.2003  1.0363  2.1280
38463SOL    HW225704   1.590   1.153   7.161  0.5340  0.0138 -1.0874
38464SOL     OW25705   2.591   6.588   7.177 -0.1146  0.2668  0.0913
38464SOL    HW125706   2.595   6.619   7.267 -2.2531  0.5444  0.1433
38464SOL    HW225707   2.593   6.668   7.124  0.3939  0.1445 -0.0774
38465SOL     OW25708   5.887   2.921   9.895  0.1071 -0.7166 -0.2643
38465SOL    HW125709   5.811   2.888   9.943 -0.6627  1.0608 -0.1902
38465SOL    HW225710   5.850   2.957   9.814  0.7208  1.0102  0.1859
38466SOL     OW25711   6.808  11.585   0.314  0.8068 -0.4709  0.0220
38466SOL    HW125712   6.777  11.527   0.384 -0.6049 -0.2567 -0.3866
38466SOL    HW225713   6.814  11.671   0.356  0.2407 -0.3965 -0.0472
38467SOL     OW25714   3.209   5.801  10.610 -0.0507  0.2653 -0.4081
38467SOL    HW125715   3.209   5.799  10.705  0.1830  1.7990 -0.3565
38467SOL    HW225716   3.254   5.721  10.584 -1.3152 -0.8652  0.7247
38468SOL     OW25717  11.447   4.912   0.396  0.0203  0.3243  0.1934
38468SOL    HW125718  11.363   4.901   0.351  0.1129  2.2843 -0.5270
38468SOL    HW225719  11.424   4.943   0.484 -0.0041  2.0222 -0.3895
38469SOL     OW25720   1.148   8.905   8.323 -0.6875 -0.1251 -0.7405
38469SOL    HW125721   1.098   8.983   8.301 -2.6684 -1.0993  0.0078
38469SOL    HW225722   1.184   8.875   8.239  0.2216  1.6048 -1.0176
38470SOL     OW25723   0.001   6.985  12.141  0.0521  0.0710  0.1916
38470SOL    HW125724  -0.045   6.941  12.068  0.3119  0.2391 -0.0729
38470SOL    HW225725   0.025   7.071  12.106 -0.5001  0.4554  0.7251
38471SOL     OW25726   8.739  12.543   3.168 -0.2278  0.3783 -0.7468
38471SOL    HW125727   8.694  12.477   3.115 -0.8577 -0.6953  1.0215
38471SOL    HW225728   8.807  12.578   3.111  0.4454 -2.1463 -1.6167
38472SOL     OW25729  10.414   2.340   0.600 -0.9020 -0.0106 -0.0952
38472SOL    HW125730  10.379   2.252   0.617 -1.2271 -0.2448 -1.8161
38472SOL    HW225731  10.496   2.325   0.554 -0.0094  0.5924  1.2454
38473SOL     OW25732   4.445   7.092   5.677 -1.0348 -0.6895  0.0484
38473SOL    HW125733   4.411   7.156   5.614  0.1268 -1.3922 -1.3430
38473SOL    HW225734   4.446   7.009   5.629  0.5817 -1.1054  0.7309
38474SOL     OW25735  11.003  10.974   6.798 -0.0221  0.4901 -0.5964
38474SOL    HW125736  11.023  10.912   6.868 -0.6236 -1.3216 -1.9466
38474SOL    HW225737  11.034  11.059   6.831  1.4685 -0.6207  1.0471
38475SOL     OW25738  11.751   6.577   7.044 -0.2362 -0.2959  0.1619
38475SOL    HW125739  11.721   6.534   7.124  0.5195  0.4129  0.8305
38475SOL    HW225740  11.791   6.659   7.073  0.9281 -0.4758 -0.8420
38476SOL     OW25741  10.846   8.556   7.706 -0.0916  0.1154 -0.4856
38476SOL    HW125742  10.811   8.592   7.625 -0.4364  1.8304  0.3825
38476SOL    HW225743  10.844   8.628   7.768  1.3226 -0.8038  0.7290
38477SOL     OW25744   0.921   6.208   9.074 -0.1331 -0.1408 -0.3143
38477SOL    HW125745   0.908   6.302   9.086  1.2906 -0.0686  0.8272
38477SOL    HW225746   0.836   6.170   9.098 -1.0540  0.8777 -1.7473
38478SOL     OW25747   5.203   7.290   4.822  0.5187 -0.0285 -0.1028
38478SOL    HW125748   5.232   7.302   4.732 -0.9856 -0.6497 -0.6895
38478SOL    HW225749   5.191   7.379   4.855 -1.5427  0.2449 -1.4179
38479SOL     OW25750  10.378   4.705  11.037 -0.0157 -0.4380  0.1782
38479SOL    HW125751  10.467   4.738  11.027 -0.5391  1.3598  1.0659
38479SOL    HW225752  10.352   4.732  11.126 -1.3530 -1.1586  0.0367
38480SOL     OW25753   7.342   2.710   4.428  0.3189  0.1595 -0.3601
38480SOL    HW125754   7.286   2.733   4.354  0.7551 -0.8308 -1.0265
38480SOL    HW225755   7.341   2.787   4.484 -0.5124  0.7028 -1.0937
38481SOL     OW25756  10.640   3.398  12.774 -0.3200 -0.3086 -0.0588
38481SOL    HW125757  10.634   3.379  12.681  1.4238 -0.9249 -0.0767
38481SOL    HW225758  10.720   3.450  12.783 -0.4420 -0.2927  1.1037
38482SOL     OW25759  10.483   1.945   6.324 -0.0390 -0.4137 -0.2060
38482SOL    HW125760  10.465   1.855   6.351 -1.2901 -0.1207 -0.0496
38482SOL    HW225761  10.557   1.972   6.379 -0.7382 -0.7778  0.9280
38483SOL     OW25762   2.119   4.143  12.469  0.1334 -0.6466 -0.1555
38483SOL    HW125763   2.199   4.158  12.418 -1.1533  1.4169 -1.7075
38483SOL    HW225764   2.057   4.108  12.405 -1.4125  1.6476  0.0088
38484SOL     OW25765   3.057  10.959  12.195 -0.3874  0.6508  0.1201
38484SOL    HW125766   2.985  10.979  12.136 -0.7479 -1.0685 -0.0679
38484SOL    HW225767   3.015  10.939  12.279  0.0152  1.4136  0.5217
38485SOL     OW25768   1.584   7.873   0.013  0.0347  0.4875 -0.6705
38485SOL    HW125769   1.557   7.965   0.014  0.0859  0.5056 -0.8701
38485SOL    HW225770   1.665   7.872  -0.039  0.6129  0.4839  0.2162
38486SOL     OW25771  10.766   7.913  12.666 -0.2968  0.4616 -0.1491
38486SOL    HW125772  10.826   7.930  12.739 -0.4860  1.2300 -0.1599
38486SOL    HW225773  10.804   7.961  12.593 -0.5606  0.3937 -0.3295
38487SOL     OW25774  11.593   9.690   2.224 -0.0403  0.0514 -0.1920
38487SOL    HW125775  11.534   9.726   2.159 -0.2502  0.6394  0.3142
38487SOL    HW225776  11.680   9.722   2.198 -0.0425 -0.1856 -0.4982
38488SOL     OW25777   2.126   8.533   6.303 -0.3466 -0.4567  0.7666
38488SOL    HW125778   2.129   8.459   6.242 -0.4756 -0.4084  0.7000
38488SOL    HW225779   2.216   8.566   6.305 -0.1950 -0.8811  1.1276
38489SOL     OW25780   5.588   9.580   7.550  0.1665 -0.5048  0.0727
38489SOL    HW125781   5.622   9.493   7.569  0.9943 -0.0815  0.5734
38489SOL    HW225782   5.497   9.578   7.579  0.9254 -0.3718  2.7341
38490SOL     OW25783  10.429   8.373  12.554  0.3745  0.3037  0.0580
38490SOL    HW125784  10.395   8.422  12.629 -0.6543  0.5719 -0.5641
38490SOL    HW225785  10.524   8.387  12.558  0.3937 -0.0377  1.5347
38491SOL     OW25786  10.506  11.700   5.662 -0.1774  0.2319  0.2407
38491SOL    HW125787  10.535  11.608   5.658  3.7375  1.3414 -2.2169
38491SOL    HW225788  10.525  11.727   5.752  1.2140 -0.7178  0.2725
38492SOL     OW25789   0.133   7.375   5.766  0.0235  0.3349 -0.3984
38492SOL    HW125790   0.142   7.340   5.854 -0.2084  0.2106 -0.4231
38492SOL    HW225791   0.086   7.458   5.778  1.6973  1.2866 -0.2063
38493SOL     OW25792  10.416   1.939   4.094  0.2131  0.6658  0.2734
38493SOL    HW125793  10.439   1.900   4.009 -1.5053 -0.9163  0.4730
38493SOL    HW225794  10.328   1.975   4.081  0.3841  1.4122  1.0852
38494SOL     OW25795   1.664  10.573   8.955 -0.3359 -0.1025 -0.2835
38494SOL    HW125796   1.634  10.621   9.032  0.5390 -1.1601  0.7355
38494SOL    HW225797   1.679  10.641   8.889  1.2403  1.0892  1.2309
38495SOL     OW25798   0.980   2.466   2.061 -0.1640  0.3609 -0.1121
38495SOL    HW125799   0.968   2.385   2.012  0.2174 -0.0774  0.5070
38495SOL    HW225800   1.015   2.528   1.997  0.8337 -0.3573 -0.2940
38496SOL     OW25801   0.137   8.555   4.443 -0.1084 -0.6552 -0.0812
38496SOL    HW125802   0.142   8.610   4.364 -2.0662  1.2525  1.0017
38496SOL    HW225803   0.105   8.471   4.411  0.0796 -0.2387 -1.4389
38497SOL     OW25804   8.070   6.519   7.497 -0.2596 -0.2506 -0.2633
38497SOL    HW125805   8.006   6.448   7.505 -0.3041 -0.2690 -0.7779
38497SOL    HW225806   8.040   6.570   7.422 -0.1120  0.1976 -0.0244
38498SOL     OW25807  10.041  12.814   4.185 -0.0247 -0.1087 -0.0609
38498SOL    HW125808   9.980  12.790   4.115 -1.3597  0.5764  0.8156
38498SOL    HW225809  10.032  12.909   4.192  0.5868 -0.0901  0.5939
38499SOL     OW25810   7.390   2.548   9.904 -0.4264  0.1727  0.1228
38499SOL    HW125811   7.324   2.486   9.874  1.0674 -1.5694  0.2783
38499SOL    HW225812   7.462   2.494   9.935  1.0350  1.9916  0.1071
38500SOL     OW25813  11.166   6.190   8.747  0.1247  0.0239 -0.1910
38500SOL    HW125814  11.208   6.240   8.677 -0.3930 -0.6186 -0.9842
38500SOL    HW225815  11.192   6.235   8.827  2.7524 -0.6491 -0.5771
38501SOL     OW25816   0.051  10.805   2.808 -0.2899  0.1454  0.2502
38501SOL    HW125817   0.108  10.780   2.880  0.3149  1.2040  0.1484
38501SOL    HW225818   0.111  10.829   2.737 -0.8604 -1.2992 -0.7878
38502SOL     OW25819   8.614   1.569   4.368 -0.0754 -0.5746 -0.3751
38502SOL    HW125820   8.630   1.521   4.449  0.4690 -1.4621 -0.9842
38502SOL    HW225821   8.693   1.554   4.316 -0.5291 -0.2488 -1.1696
38503SOL     OW25822   5.034  11.129   9.710 -0.1605  0.5943  0.5380
38503SOL    HW125823   4.979  11.152   9.635 -1.9125 -0.4205  1.4465
38503SOL    HW225824   5.115  11.178   9.696 -1.9812  3.7423  0.1253
38504SOL     OW25825   8.807   2.854   3.688  0.2080 -0.2325  0.4760
38504SOL    HW125826   8.845   2.891   3.768 -0.1113  0.0279  0.5127
38504SOL    HW225827   8.730   2.909   3.671  0.6261  0.1195 -0.3657
38505SOL     OW25828   0.141   5.754   7.166  0.5377 -0.0043  0.1636
38505SOL    HW125829   0.162   5.774   7.074  0.1209  0.0681  0.0803
38505SOL    HW225830   0.080   5.681   7.161  0.6303 -0.0975  0.3917
38506SOL     OW25831   7.025   8.643   1.182  0.1141 -0.7000 -0.2173
38506SOL    HW125832   6.967   8.612   1.252  0.3404  1.2624  0.9250
38506SOL    HW225833   6.971   8.703   1.131  0.7828  0.3461  0.2412
38507SOL     OW25834   4.019  12.253   5.423 -0.3072  0.0956 -0.1814
38507SOL    HW125835   3.958  12.326   5.420  0.4908  0.7856  0.2367
38507SOL    HW225836   3.980  12.187   5.365 -1.2696  0.6540 -0.1826
38508SOL     OW25837   0.728   8.634  10.331 -0.1070  0.1922  0.5756
38508SOL    HW125838   0.670   8.702  10.298 -0.4760 -0.7571 -0.8171
38508SOL    HW225839   0.681   8.596  10.405 -1.3628 -0.6359 -0.6005
38509SOL     OW25840   9.394   0.919   6.270  0.6087 -0.2020 -0.5408
38509SOL    HW125841   9.377   0.980   6.342 -1.6574 -2.0975  0.6759
38509SOL    HW225842   9.333   0.945   6.202 -0.7391 -1.3373  0.1836
38510SOL     OW25843   1.634  12.335  11.749  0.1847  0.6080 -0.3258
38510SOL    HW125844   1.539  12.346  11.741 -0.0543  0.6665  2.0151
38510SOL    HW225845   1.646  12.241  11.759  0.3219  0.6552 -0.0591
38511SOL     OW25846   0.538   9.511   0.025 -0.3549  0.0686  0.0982
38511SOL    HW125847   0.529   9.522   0.120 -0.5181 -0.0791  0.0993
38511SOL    HW225848   0.607   9.573   0.000 -0.2157  0.0082  0.3347
38512SOL     OW25849   6.892   1.269  10.299  0.3386  0.7176  0.0027
38512SOL    HW125850   6.844   1.289  10.219 -0.2174  2.1981  0.6837
38512SOL    HW225851   6.851   1.189  10.332 -0.8222  1.2571 -0.1008
38513SOL     OW25852   8.555  12.463  11.116 -0.2719  0.0055 -0.1694
38513SOL    HW125853   8.503  12.502  11.187  0.1913  0.9915 -0.3502
38513SOL    HW225854   8.536  12.369  11.121  0.5009 -0.1063  1.9043
38514SOL     OW25855  12.069  12.417  11.550  0.3375 -0.1483 -0.4418
38514SOL    HW125856  12.130  12.345  11.532 -0.4842 -1.0734  0.3719
38514SOL    HW225857  12.043  12.405  11.641 -1.5881 -0.2011 -0.9579
38515SOL     OW25858  12.056   8.162  10.220  0.0338 -0.2748 -0.1898
38515SOL    HW125859  11.999   8.153  10.297  0.0823 -1.0313 -0.2404
38515SOL    HW225860  11.995   8.173  10.147 -0.0788 -1.6750 -0.3255
38516SOL     OW25861  12.629  11.506   8.896  0.4924  0.1141  0.0039
38516SOL    HW125862  12.716  11.504   8.855  0.7682 -1.3516  0.5908
38516SOL    HW225863  12.621  11.594   8.932  1.1137  0.7474 -1.3416
38517SOL     OW25864   3.623   3.055   9.564  0.2139  0.2138  0.0030
38517SOL    HW125865   3.610   3.011   9.648  3.5997 -0.4452  0.3254
38517SOL    HW225866   3.709   3.025   9.535  1.1978  3.9280 -1.4626
38518SOL     OW25867   5.916   4.815   8.312 -0.4509 -0.2567 -0.5288
38518SOL    HW125868   5.966   4.885   8.270 -1.3342 -0.9013 -2.8272
38518SOL    HW225869   5.976   4.740   8.311 -0.3925 -0.2098 -0.4765
38519SOL     OW25870  11.599   7.653   0.516  0.4773  0.2820 -0.3897
38519SOL    HW125871  11.548   7.585   0.560  0.8268  0.4154  0.2283
38519SOL    HW225872  11.542   7.682   0.444 -0.8551  1.2697  0.9895
38520SOL     OW25873   2.600   8.252   2.177 -0.3963 -0.0970 -0.4820
38520SOL    HW125874   2.640   8.339   2.179  0.6929 -0.5603 -1.0787
38520SOL    HW225875   2.507   8.269   2.163 -0.2631  0.9789 -0.1914
38521SOL     OW25876  12.430   8.303  11.491  0.6774 -0.0718  0.1632
38521SOL    HW125877  12.430   8.395  11.464 -0.3347  0.5468  2.0914
38521SOL    HW225878  12.358   8.264  11.442  0.1232  0.5581  0.4417
38522SOL     OW25879   2.461  10.402  12.049  0.2305  0.0308  0.1159
38522SOL    HW125880   2.551  10.371  12.060 -0.2071 -1.1750  0.4115
38522SOL    HW225881   2.437  10.375  11.960  0.0709  0.1455  0.1233
38523SOL     OW25882  11.639   4.034   0.599 -0.3830  0.0337 -0.3334
38523SOL    HW125883  11.681   4.017   0.514  2.0356 -1.1089  0.9777
38523SOL    HW225884  11.704   4.083   0.649 -0.7212 -1.4418  1.6846
38524SOL     OW25885   4.091   8.727   6.374  0.5075 -0.4209 -0.0940
38524SOL    HW125886   4.179   8.721   6.412  1.2295  0.2054 -1.5963
38524SOL    HW225887   4.058   8.637   6.378  0.4474 -0.3705  2.1257
38525SOL     OW25888   8.026   9.560   4.654 -0.0118 -0.0541  0.5669
38525SOL    HW125889   8.018   9.597   4.566 -1.0105  0.1696  0.7472
38525SOL    HW225890   8.119   9.571   4.676  0.3785 -0.6737 -0.6990
38526SOL     OW25891   7.124  10.214   5.626 -0.0275  0.2345  0.3724
38526SOL    HW125892   7.170  10.275   5.684  1.0593  0.5014 -0.7232
38526SOL    HW225893   7.150  10.127   5.659 -0.2811  0.3624  0.9299
38527SOL     OW25894   0.442  10.949   6.030  0.6590 -0.1425 -0.0875
38527SOL    HW125895   0.350  10.941   6.003  0.3299  3.0357 -0.2710
38527SOL    HW225896   0.491  10.957   5.948  1.0117 -0.9235  0.0378
38528SOL     OW25897   4.311  11.175   4.091  0.0050 -0.2681  0.6530
38528SOL    HW125898   4.355  11.184   4.006  1.4231  0.6208  1.4561
38528SOL    HW225899   4.277  11.086   4.090 -1.9720  0.4141 -1.7378
38529SOL     OW25900   4.941   9.759   0.269 -0.0033 -0.2153  0.1918
38529SOL    HW125901   4.867   9.737   0.211 -0.6180 -0.4890  1.0653
38529SOL    HW225902   5.013   9.778   0.209 -1.1519  1.4905 -0.7378
38530SOL     OW25903   5.332   3.519   1.118  0.5956 -0.4173 -0.1585
38530SOL    HW125904   5.344   3.574   1.040 -0.9714 -0.5536 -0.5103
38530SOL    HW225905   5.288   3.576   1.181 -0.6160 -1.1052 -0.3579
38531SOL     OW25906   9.870   1.473  10.181  0.4061 -0.2268  0.3016
38531SOL    HW125907   9.805   1.431  10.238 -2.0707 -1.4340 -3.0397
38531SOL    HW225908   9.824   1.484  10.097  3.0235  3.4791 -0.8924
38532SOL     OW25909   7.710   4.193   1.978 -0.5811  0.5836 -0.1272
38532SOL    HW125910   7.684   4.263   1.919  0.2790 -0.3518 -1.6783
38532SOL    HW225911   7.750   4.238   2.053 -2.8058  1.8401  0.3949
38533SOL     OW25912  12.325   5.586   5.814  0.7855  0.1350  0.1374
38533SOL    HW125913  12.374   5.662   5.781 -0.6704  1.1918  0.2962
38533SOL    HW225914  12.254   5.575   5.751 -0.6581  0.7056  1.5938
38534SOL     OW25915   8.036  12.698   9.154  0.1671  0.0145 -0.2154
38534SOL    HW125916   7.976  12.625   9.141 -0.4118  0.0279  1.9757
38534SOL    HW225917   7.986  12.776   9.130 -0.1083 -0.1158 -0.0650
38535SOL     OW25918   2.814   8.402  10.732 -0.1028  0.1698 -0.3560
38535SOL    HW125919   2.793   8.494  10.716 -0.8760 -0.4873 -3.7805
38535SOL    HW225920   2.909   8.401  10.745  0.1260  1.3136 -1.6621
38536SOL     OW25921  10.569   7.762  10.522 -0.6820  0.1615 -0.1894
38536SOL    HW125922  10.652   7.760  10.569 -0.5237 -0.9903 -0.4849
38536SOL    HW225923  10.505   7.791  10.587 -0.4596 -1.3255  0.7576
38537SOL     OW25924   9.306   1.292   5.389 -0.8728  0.0508  0.5124
38537SOL    HW125925   9.284   1.365   5.332 -1.9647 -0.2138  0.5736
38537SOL    HW225926   9.223   1.267   5.429 -0.2607 -0.2908  1.6008
38538SOL     OW25927   1.570   0.461   4.547  0.6433 -0.1187 -0.4685
38538SOL    HW125928   1.534   0.372   4.546 -1.3312  0.5973  0.8417
38538SOL    HW225929   1.597   0.475   4.638  0.6098  0.7551 -0.5870
38539SOL     OW25930   0.189  12.507   2.501  0.7169  0.0150  0.3189
38539SOL    HW125931   0.116  12.487   2.559 -0.2252  1.0249 -0.4847
38539SOL    HW225932   0.264  12.517   2.559  0.0078  0.0121  1.2616
38540SOL     OW25933   1.959  10.154   3.012  0.1074 -0.4278  0.2059
38540SOL    HW125934   1.963  10.068   3.054  0.3950 -0.8638 -0.6929
38540SOL    HW225935   2.043  10.162   2.967 -0.8259 -0.7018 -1.6770
38541SOL     OW25936  11.916  11.666   8.963 -0.4752  0.4206  0.0996
38541SOL    HW125937  11.851  11.610   9.003 -0.5822 -1.3205 -2.2878
38541SOL    HW225938  11.879  11.690   8.878  1.7842 -0.3912 -1.2252
38542SOL     OW25939   1.458   7.941   4.532 -0.4798  0.4744  0.2959
38542SOL    HW125940   1.553   7.941   4.547 -0.6617 -0.0621  1.6652
38542SOL    HW225941   1.442   8.015   4.474  1.1436 -1.2893 -2.6765
38543SOL     OW25942   6.007   3.022   0.914 -0.6725  0.2886 -0.0279
38543SOL    HW125943   6.023   3.075   0.836  1.8460 -0.5283 -0.1637
38543SOL    HW225944   5.944   3.073   0.965 -2.5798  0.7464 -2.6432
38544SOL     OW25945   1.177   7.916   6.293  0.4794  0.3078  0.1824
38544SOL    HW125946   1.190   7.831   6.336  0.7328  0.8416  1.2100
38544SOL    HW225947   1.237   7.975   6.340 -0.8918  1.4188  0.6053
38545SOL     OW25948   5.453  12.453  12.218 -0.2521  0.0436 -0.0916
38545SOL    HW125949   5.507  12.377  12.240  0.0104 -0.1711 -1.4263
38545SOL    HW225950   5.510  12.508  12.164 -1.2177  0.0161 -1.1635
38546SOL     OW25951   1.576   2.784  12.285 -0.0111 -0.3871  0.1520
38546SOL    HW125952   1.621   2.730  12.220  2.5091  1.0033  0.6089
38546SOL    HW225953   1.573   2.871  12.247 -1.1529 -0.1552  0.7209
38547SOL     OW25954   2.399   3.889   1.841 -0.5022 -0.3636  0.1455
38547SOL    HW125955   2.463   3.897   1.770  0.8833 -0.0252  1.3870
38547SOL    HW225956   2.408   3.969   1.891 -2.1884 -0.1448  0.1712
38548SOL     OW25957   5.434  12.264   3.190  1.1035  0.6879 -0.0127
38548SOL    HW125958   5.455  12.353   3.164  0.4742  1.1705  1.0809
38548SOL    HW225959   5.353  12.244   3.142  0.4495  1.2480  0.8173
38549SOL     OW25960  12.172  12.462   9.364  0.3565  0.4027 -0.3537
38549SOL    HW125961  12.090  12.483   9.408 -0.1299  1.3073 -1.6283
38549SOL    HW225962  12.163  12.370   9.338  1.1876 -0.5727  2.4684
38550SOL     OW25963   2.571   3.754   0.943  0.0914  0.0495  0.2134
38550SOL    HW125964   2.481   3.765   0.971  0.0998  1.4614 -0.2554
38550SOL    HW225965   2.566   3.700   0.863 -0.3381  0.2102  0.1340
38551SOL     OW25966  10.752   7.109  10.033 -0.0320 -0.0697 -0.1668
38551SOL    HW125967  10.658   7.115  10.053  0.0226  1.5938 -0.2378
38551SOL    HW225968  10.761   7.154   9.949  0.7744 -0.5831 -0.3615
38552SOL     OW25969   7.089  11.709   6.780 -0.1363 -0.7324  0.3640
38552SOL    HW125970   7.117  11.749   6.863  0.3862  0.0960 -0.2019
38552SOL    HW225971   6.999  11.682   6.796 -1.3036  2.5991  0.1364
38553SOL     OW25972   0.940   6.686   8.895  0.1803  0.6187 -0.2202
38553SOL    HW125973   0.991   6.639   8.962  1.6726  1.6320 -0.5940
38553SOL    HW225974   0.967   6.646   8.812  0.4562  1.2277 -0.4284
38554SOL     OW25975   0.392  11.325  12.033 -0.1889 -0.5431 -0.3140
38554SOL    HW125976   0.327  11.313  12.103 -0.1459 -0.8542 -0.3248
38554SOL    HW225977   0.453  11.252  12.044 -0.6839 -1.1134 -1.2320
38555SOL     OW25978  12.889  11.250   4.355 -0.0512 -0.1807 -0.4515
38555SOL    HW125979  12.848  11.202   4.282 -0.2225 -0.0210 -0.4605
38555SOL    HW225980  12.903  11.183   4.422  2.6907 -0.9656 -1.6519
38556SOL     OW25981   5.572  10.235   5.732  0.0714  0.2612  0.6264
38556SOL    HW125982   5.568  10.157   5.676 -2.3587  0.5158  0.3383
38556SOL    HW225983   5.591  10.307   5.672  0.3696  0.1672  0.6036
38557SOL     OW25984  12.740   3.591  10.507 -0.4572 -0.3479  1.0212
38557SOL    HW125985  12.726   3.567  10.416  0.3784  0.3736  0.6805
38557SOL    HW225986  12.654   3.618  10.539 -0.2932  2.0973 -0.3971
38558SOL     OW25987   9.923  10.292   3.665  0.8702  0.0140  0.7616
38558SOL    HW125988   9.937  10.203   3.633 -0.6701  0.4373 -1.2458
38558SOL    HW225989   9.841  10.288   3.714  0.0402  0.5759 -0.5362
38559SOL     OW25990   2.214   9.995   2.158  0.4012  0.3059 -0.2194
38559SOL    HW125991   2.184   9.926   2.218 -0.3783 -0.3865 -1.3816
38559SOL    HW225992   2.266   9.949   2.093 -1.0260  0.6256 -1.6351
38560SOL     OW25993   5.068   3.265   5.546  0.1677 -0.0546 -0.1803
38560SOL    HW125994   4.978   3.287   5.571  0.1590  1.6114 -1.5098
38560SOL    HW225995   5.115   3.259   5.629 -0.6319  1.6082  0.4253
38561SOL     OW25996   7.716   1.904   7.146 -0.4795 -0.2016  0.2147
38561SOL    HW125997   7.797   1.929   7.102 -1.3852 -0.7891 -1.8946
38561SOL    HW225998   7.653   1.972   7.121 -1.1702 -0.8722  0.0965
38562SOL     OW25999   8.258   2.252   8.704  0.0232  0.1119  0.1470
38562SOL    HW126000   8.276   2.249   8.610  0.6220 -0.2314  0.2652
38562SOL    HW226001   8.164   2.271   8.710  0.2562  1.5542 -0.4986
38563SOL     OW26002  10.683   8.571  12.249 -0.4023  0.0179 -0.2724
38563SOL    HW126003  10.736   8.650  12.246 -0.6908  0.2606  0.9152
38563SOL    HW226004  10.596   8.600  12.274 -0.1360 -0.8265  1.8445
38564SOL     OW26005   1.582   2.265  12.493 -0.2464  0.1612 -0.4277
38564SOL    HW126006   1.540   2.221  12.420  1.6999 -0.0276 -1.5138
38564SOL    HW226007   1.675   2.245  12.482  0.1397  0.3777  1.9410
38565SOL     OW26008  12.553  11.033   4.766  0.5647 -0.4200  0.0670
38565SOL    HW126009  12.645  11.011   4.778  0.7991  0.6942  0.4527
38565SOL    HW226010  12.519  11.047   4.855 -0.0102 -0.9460 -0.0630
38566SOL     OW26011  12.542  11.680   7.096 -0.5679  0.6580  0.1906
38566SOL    HW126012  12.526  11.590   7.069 -1.4823  0.7261  0.4615
38566SOL    HW226013  12.626  11.677   7.142 -0.7421 -0.1227  0.4745
38567SOL     OW26014  10.542  12.563   3.619 -0.3764 -0.9699  0.5727
38567SOL    HW126015  10.476  12.574   3.551  0.5525 -1.1492 -0.3845
38567SOL    HW226016  10.495  12.523   3.693 -1.6311  0.2498  0.4549
38568SOL     OW26017  10.727   3.947   1.288 -0.5023  0.1496 -0.1828
38568SOL    HW126018  10.769   3.862   1.301  1.1207  1.0081  0.4741
38568SOL    HW226019  10.668   3.955   1.363  0.0539  0.0117  0.2774
38569SOL     OW26020  10.158   8.455   2.049 -0.2121 -0.2212 -0.2228
38569SOL    HW126021  10.064   8.438   2.057 -0.2298  0.0838  0.2489
38569SOL    HW226022  10.164   8.549   2.033  0.1535  0.6425  3.7680
38570SOL     OW26023   1.718   9.908   3.003  0.1359 -0.0293  0.3114
38570SOL    HW126024   1.652   9.913   2.933 -1.0558  0.5102  1.4415
38570SOL    HW226025   1.720   9.816   3.027  0.3599 -0.1738 -0.2390
38571SOL     OW26026  11.857  10.412   8.267 -0.3405 -0.0141  0.1263
38571SOL    HW126027  11.873  10.366   8.350 -1.6511  2.6474  1.9899
38571SOL    HW226028  11.812  10.348   8.212  1.6589 -2.2654  0.9025
38572SOL     OW26029   3.815   3.940   2.315  0.0135 -0.4484 -0.4371
38572SOL    HW126030   3.852   3.991   2.243  1.0520 -0.6050 -0.0277
38572SOL    HW226031   3.735   3.987   2.339  0.1492  0.1186 -1.0803
38573SOL     OW26032   1.608   4.289   3.281  0.7057  0.3493  0.6594
38573SOL    HW126033   1.562   4.361   3.325  0.0327  0.0440  0.4776
38573SOL    HW226034   1.620   4.318   3.191  0.0707  0.0891  0.4795
38574SOL     OW26035  12.372   7.617   4.421  0.5132  0.2847 -0.3313
38574SOL    HW126036  12.450   7.561   4.424  1.3077  1.3607  0.2858
38574SOL    HW226037  12.319   7.582   4.349  1.1076 -1.0607 -0.1366
38575SOL     OW26038   9.871   4.478   1.331 -0.7067  0.1881 -0.8338
38575SOL    HW126039   9.894   4.393   1.293 -1.3034 -0.1794 -0.4023
38575SOL    HW226040   9.913   4.477   1.417  1.1281  1.2561 -1.6585
38576SOL     OW26041   7.189   3.713   6.933  0.6037 -0.4800  0.0227
38576SOL    HW126042   7.218   3.787   6.987  1.3185 -0.7285 -0.0131
38576SOL    HW226043   7.098   3.699   6.959  1.6333 -2.2577  3.0622
38577SOL     OW26044   1.010   6.454  10.607 -0.5726  0.0719  0.9570
38577SOL    HW126045   0.997   6.438  10.700 -0.3850 -0.6867  0.8612
38577SOL    HW226046   1.072   6.527  10.604 -0.8474  0.3285  1.4198
38578SOL     OW26047  11.669   8.257   1.691  0.0195 -0.1687 -0.3219
38578SOL    HW126048  11.690   8.250   1.598  0.8285  1.4151 -0.2926
38578SOL    HW226049  11.582   8.219   1.700 -1.2895  2.1169 -2.2411
38579SOL     OW26050  11.558  12.550   2.592 -0.0414  0.1505  0.6320
38579SOL    HW126051  11.521  12.637   2.601  0.1453  0.5079 -1.3983
38579SOL    HW226052  11.652  12.561   2.610  0.1494  0.5963 -0.5464
38580SOL     OW26053   9.885   1.991   6.517  0.3302 -0.2052 -0.3896
38580SOL    HW126054   9.832   2.030   6.586  0.4250  2.0734 -1.5155
38580SOL    HW226055   9.950   2.058   6.496  0.9020 -1.2121 -2.0241
38581SOL     OW26056   5.582   3.099   2.808  0.0034  0.3599 -0.1200
38581SOL    HW126057   5.625   3.167   2.755  0.3322  0.0399 -0.2736
38581SOL    HW226058   5.572   3.139   2.894 -0.8787  1.0237 -0.5152
38582SOL     OW26059   3.567   7.740   6.505 -0.5385  0.3314  0.0984
38582SOL    HW126060   3.490   7.796   6.520  0.1579  1.0040  1.2430
38582SOL    HW226061   3.597   7.715   6.592  0.6399  0.2036 -0.3213
38583SOL     OW26062   6.602   7.240   3.244  0.0327  0.0049 -0.0058
38583SOL    HW126063   6.575   7.314   3.190 -0.3613  0.2162  0.4739
38583SOL    HW226064   6.682   7.208   3.202 -1.1423 -0.8991 -1.6941
38584SOL     OW26065   8.920   5.722   6.782  0.6430  0.4785 -0.6429
38584SOL    HW126066   8.991   5.740   6.722 -1.4832  0.5168 -3.3269
38584SOL    HW226067   8.931   5.629   6.806  1.3771  0.3948 -1.2806
38585SOL     OW26068   9.452   6.307   3.018 -0.1537 -0.4104 -0.2700
38585SOL    HW126069   9.409   6.382   3.059  1.2384 -0.0792  0.6497
38585SOL    HW226070   9.485   6.341   2.935 -1.5849 -0.6644 -0.9819
38586SOL     OW26071   4.132   7.989   6.079 -0.4642 -0.6280  0.5111
38586SOL    HW126072   4.081   8.049   6.025 -0.1846 -0.1711  0.7461
38586SOL    HW226073   4.067   7.944   6.134 -0.6737 -0.5420  0.3341
38587SOL     OW26074   8.375   6.242  11.901  0.9452 -0.2134  0.7859
38587SOL    HW126075   8.320   6.177  11.858 -0.3093 -0.9223  3.2744
38587SOL    HW226076   8.328   6.325  11.891  0.5046 -0.4296  1.0291
38588SOL     OW26077  12.863   8.020   8.913 -0.1292 -0.1795  0.6565
38588SOL    HW126078  12.944   8.044   8.868 -0.3495  1.0110  0.8589
38588SOL    HW226079  12.868   8.066   8.997 -1.5679  0.9492  0.1579
38589SOL     OW26080   5.669   4.541   8.386  0.6963 -0.0060  0.6861
38589SOL    HW126081   5.650   4.635   8.380  1.6267  0.1220 -1.0817
38589SOL    HW226082   5.591   4.503   8.426 -0.2628  1.3518  0.1858
38590SOL     OW26083   1.237   5.398   0.456  0.4176 -0.5108  0.5670
38590SOL    HW126084   1.197   5.344   0.388 -0.0058 -1.1716  1.3257
38590SOL    HW226085   1.272   5.474   0.409 -1.4217 -0.0736 -0.1930
38591SOL     OW26086   9.216   7.344   3.548  0.1365  0.0451  0.0526
38591SOL    HW126087   9.239   7.354   3.640 -3.5497 -1.5126  1.3470
38591SOL    HW226088   9.187   7.431   3.520 -2.4434 -0.2057  1.6705
38592SOL     OW26089  12.907   3.311   9.534 -0.1405 -0.3280 -0.1628
38592SOL    HW126090  12.890   3.342   9.445 -0.8206 -0.0737  0.0473
38592SOL    HW226091  12.999   3.284   9.533 -0.8128 -2.9606 -1.7142
38593SOL     OW26092   3.090   8.296   6.199  0.1518  0.0069  0.2145
38593SOL    HW126093   3.097   8.362   6.268  1.8124 -0.8888  0.9729
38593SOL    HW226094   3.012   8.246   6.222 -0.5867  1.0951  0.1614
38594SOL     OW26095   9.481  12.418   2.248 -0.0483  0.2847  0.3808
38594SOL    HW126096   9.496  12.512   2.253 -0.4032  0.3525  0.2446
38594SOL    HW226097   9.562  12.378   2.280  0.0746  0.6366  0.5075
38595SOL     OW26098   8.599  12.673  10.532  0.1168  0.2476 -0.3327
38595SOL    HW126099   8.526  12.637  10.482  0.4345 -1.3655  0.2977
38595SOL    HW226100   8.676  12.629  10.498  0.6146  0.8015  0.0492
38596SOL     OW26101  11.594   8.028   2.914  0.1607 -0.1756 -0.2748
38596SOL    HW126102  11.563   8.119   2.920 -0.6709 -0.4424 -0.4358
38596SOL    HW226103  11.641   8.024   2.830  1.9420  0.6082  0.6271
38597SOL     OW26104   4.025   6.899   3.608  0.2479  0.2020  0.6390
38597SOL    HW126105   4.096   6.920   3.668  1.6513 -1.2906 -0.4325
38597SOL    HW226106   4.007   6.806   3.623  0.1777 -0.0306 -0.7721
38598SOL     OW26107   8.175   8.730   4.431 -0.0903  0.2859 -0.0520
38598SOL    HW126108   8.231   8.726   4.353 -0.9814  2.1742 -0.8345
38598SOL    HW226109   8.235   8.752   4.502  0.7500 -1.5622 -0.1269
38599SOL     OW26110   8.363   2.115  12.439 -0.5588 -0.3988  0.4855
38599SOL    HW126111   8.297   2.087  12.503 -0.5161 -2.0278 -0.1258
38599SOL    HW226112   8.447   2.106  12.485 -0.3847 -3.1046 -0.2040
38600SOL     OW26113   1.877   7.563   3.530 -0.2775 -0.0603  0.6335
38600SOL    HW126114   1.806   7.501   3.549  0.5395 -1.7813 -1.3877
38600SOL    HW226115   1.932   7.562   3.609 -0.4552 -1.7627  0.7868
38601SOL     OW26116   5.026   8.057   2.120  0.0342 -0.3036  0.3514
38601SOL    HW126117   5.082   8.125   2.157  1.3900 -1.1725 -0.0078
38601SOL    HW226118   4.972   8.027   2.194 -0.1382  0.7163  0.6469
38602SOL     OW26119   0.745  11.746   8.881  0.3024 -0.6128 -0.2779
38602SOL    HW126120   0.697  11.740   8.963 -1.2673  1.0724 -0.9917
38602SOL    HW226121   0.742  11.658   8.844  0.3611 -1.2108  1.0978
38603SOL     OW26122   1.136   0.450   4.311  0.1667 -0.3236 -0.8032
38603SOL    HW126123   1.120   0.543   4.330  0.2164 -0.4822  0.0252
38603SOL    HW226124   1.159   0.412   4.395  0.3533 -1.0520 -1.1806
38604SOL     OW26125   5.656   0.663   5.868  0.1609 -0.1071  0.3257
38604SOL    HW126126   5.564   0.663   5.844  0.2362 -0.0320  0.0220
38604SOL    HW226127   5.691   0.743   5.828  0.9596 -1.5055 -2.0174
38605SOL     OW26128   6.885   4.144   7.123 -0.4475 -0.3316  0.1783
38605SOL    HW126129   6.864   4.223   7.074 -1.6161 -1.2432 -0.8502
38605SOL    HW226130   6.841   4.156   7.207  0.4766  0.6676  0.5440
38606SOL     OW26131   4.039   4.087   4.502 -0.0084  0.2522 -0.0382
38606SOL    HW126132   4.120   4.093   4.552 -0.1163  2.2129 -0.0203
38606SOL    HW226133   4.067   4.076   4.411  0.2779  0.7119 -0.0060
38607SOL     OW26134   3.579  10.361   0.253  0.1263  0.2796  0.1594
38607SOL    HW126135   3.556  10.283   0.304 -0.3380  0.3929  0.1283
38607SOL    HW226136   3.509  10.423   0.272  1.2006  1.2065  1.2696
38608SOL     OW26137   2.595   7.079   5.345  0.0208  0.7523  0.1898
38608SOL    HW126138   2.594   7.129   5.426  2.6340 -1.7631  2.0048
38608SOL    HW226139   2.677   7.104   5.302  0.9319 -1.1316  0.7015
38609SOL     OW26140   0.872  11.629  10.870  0.1919 -0.2547 -0.2296
38609SOL    HW126141   0.872  11.724  10.882 -0.8826 -0.2780  0.1180
38609SOL    HW226142   0.831  11.595  10.950 -0.3608 -0.9333 -0.7827
38610SOL     OW26143  11.600   4.758   7.219 -0.0272 -0.4228  0.1588
38610SOL    HW126144  11.667   4.824   7.198 -0.0766 -0.6036 -0.6188
38610SOL    HW226145  11.644   4.697   7.278 -0.0395  0.4051  1.0602
38611SOL     OW26146   7.623   0.770   3.450 -0.3970  0.0555 -0.0886
38611SOL    HW126147   7.599   0.684   3.484  1.8912 -0.3458  0.7372
38611SOL    HW226148   7.568   0.831   3.500  0.8700 -0.7132  2.4479
38612SOL     OW26149   5.795  10.085  10.932  0.1407 -0.1015 -0.0336
38612SOL    HW126150   5.774  10.175  10.906  0.8371  0.0385 -0.1311
38612SOL    HW226151   5.725  10.060  10.993 -0.0877  0.4782 -0.0548
38613SOL     OW26152   6.408  10.637   5.550 -0.2985  0.0187  0.7829
38613SOL    HW126153   6.388  10.607   5.461  0.6816 -1.7219  1.0976
38613SOL    HW226154   6.362  10.575   5.607 -0.9306  1.1278  1.5091
38614SOL     OW26155   1.363  11.611  11.452  0.1547 -0.2372  0.5084
38614SOL    HW126156   1.312  11.693  11.455 -0.1141 -0.3694 -0.3012
38614SOL    HW226157   1.307  11.550  11.404  0.3118 -0.9392  1.1958
38615SOL     OW26158   4.200   2.495   5.432  0.1764  0.0680  0.0082
38615SOL    HW126159   4.182   2.538   5.348 -0.9477  0.7623  0.5780
38615SOL    HW226160   4.291   2.469   5.426  0.2199  0.4388 -1.2934
38616SOL     OW26161   4.810   6.839  12.185 -0.0376 -0.3771  0.2490
38616SOL    HW126162   4.720   6.827  12.156 -0.3013 -0.5356  1.1064
38616SOL    HW226163   4.848   6.751  12.181  0.5361 -0.0953 -1.5094
38617SOL     OW26164   0.610   5.629  10.644  0.3096  0.0717 -0.1502
38617SOL    HW126165   0.688   5.577  10.622  0.9709  0.1107  1.9403
38617SOL    HW226166   0.629   5.716  10.608  0.9931 -0.0724 -0.1585
38618SOL     OW26167  11.236   2.498   0.878  0.3479  0.3735  0.1508
38618SOL    HW126168  11.186   2.579   0.887  0.2843  0.2820  0.6510
38618SOL    HW226169  11.170   2.429   0.879  0.5329  0.1250  2.5055
38619SOL     OW26170   6.878   2.292   8.465 -0.9054  0.0581  0.2512
38619SOL    HW126171   6.916   2.214   8.424  0.1874  0.2444  0.8683
38619SOL    HW226172   6.784   2.281   8.454 -0.6887 -0.0380 -2.0519
38620SOL     OW26173   4.563   1.607   5.713  0.6166 -0.4142  0.1414
38620SOL    HW126174   4.506   1.683   5.703  1.3237  0.3363  1.4040
38620SOL    HW226175   4.504   1.536   5.738  0.0094 -0.1357 -0.4848
38621SOL     OW26176   7.585   0.945   8.393 -0.1454 -0.1986  0.1509
38621SOL    HW126177   7.637   0.865   8.393 -0.1257 -0.1900  0.8808
38621SOL    HW226178   7.580   0.970   8.300  1.3915 -0.0395  0.0910
38622SOL     OW26179   1.119   7.382   0.734 -0.3952  0.1589 -0.1002
38622SOL    HW126180   1.119   7.304   0.679  1.1004 -0.7424  1.0991
38622SOL    HW226181   1.132   7.348   0.823 -1.7034  1.6456  0.7010
38623SOL     OW26182   8.271   0.550   1.573 -0.0738  0.4196  0.0656
38623SOL    HW126183   8.254   0.478   1.634  1.6340 -0.1667 -0.0878
38623SOL    HW226184   8.191   0.556   1.521 -0.6964 -0.5919  0.8557
38624SOL     OW26185   4.640   1.120   7.468 -0.3023  0.4395 -0.3720
38624SOL    HW126186   4.620   1.200   7.420  0.2283  1.1239  0.5111
38624SOL    HW226187   4.559   1.100   7.515  0.0448  1.4009  0.6861
38625SOL     OW26188   5.775   2.130   1.650  0.2496 -0.0583 -0.1588
38625SOL    HW126189   5.710   2.094   1.711  0.2580  0.4206  0.1350
38625SOL    HW226190   5.723   2.159   1.575  0.3833 -2.0039 -1.0477
38626SOL     OW26191   1.480   2.669  10.115 -0.2596  0.0544 -0.0753
38626SOL    HW126192   1.396   2.707  10.088 -0.9515 -1.2116  0.2208
38626SOL    HW226193   1.545   2.734  10.089 -1.4097  1.5072  0.5635
38627SOL     OW26194  10.253  10.609   7.862  0.7073 -0.0010 -0.2645
38627SOL    HW126195  10.188  10.571   7.803  1.0552 -1.1463  0.0768
38627SOL    HW226196  10.259  10.548   7.934  0.1269  1.4817  1.1063
38628SOL     OW26197   8.612   3.291  11.765 -0.0736  0.3437  0.4808
38628SOL    HW126198   8.695   3.324  11.799 -0.6254  1.6064  0.6445
38628SOL    HW226199   8.598   3.338  11.683 -0.3542 -0.2887  0.1533
38629SOL     OW26200  11.223   3.140   3.146 -0.5865 -0.4238 -0.1827
38629SOL    HW126201  11.213   3.207   3.079  0.7023 -0.5772 -0.5634
38629SOL    HW226202  11.135   3.128   3.182 -1.1571  0.2140 -1.3089
38630SOL     OW26203  10.811   9.891   3.570  0.1946  0.0423 -0.2673
38630SOL    HW126204  10.754   9.954   3.524 -0.8472 -2.2917 -2.4213
38630SOL    HW226205  10.892   9.891   3.519 -0.2181 -1.0841 -0.9682
38631SOL     OW26206   7.796   7.970   9.537 -0.0815  0.4117 -0.1366
38631SOL    HW126207   7.776   8.057   9.503 -0.4669  0.5448  0.4085
38631SOL    HW226208   7.734   7.958   9.609 -0.0468 -0.3280 -0.2306
38632SOL     OW26209   9.837   0.464   9.672  0.0000  0.1011 -0.0946
38632SOL    HW126210   9.855   0.410   9.749 -1.3270  0.4937  0.5078
38632SOL    HW226211   9.876   0.549   9.693  0.0372  0.0769 -0.0643
38633SOL     OW26212   2.727  12.313   9.136 -0.5789 -0.1585  0.4383
38633SOL    HW126213   2.754  12.376   9.203 -0.7116  1.2222 -0.7514
38633SOL    HW226214   2.663  12.257   9.180  1.4987 -1.2176  2.2869
38634SOL     OW26215  12.330   0.367   0.288  0.3760 -0.0671 -0.4182
38634SOL    HW126216  12.320   0.372   0.193 -1.9645 -1.1474 -0.2850
38634SOL    HW226217  12.241   0.374   0.323  1.1621  0.1811  1.7091
38635SOL     OW26218  12.713  10.430   1.425 -0.4133 -0.1488  0.3031
38635SOL    HW126219  12.687  10.340   1.449  0.3278 -0.8364 -1.3529
38635SOL    HW226220  12.636  10.465   1.379 -0.8448  0.2274  1.2790
38636SOL     OW26221   9.367  11.491  12.465  0.6111  0.2860 -0.0283
38636SOL    HW126222   9.326  11.411  12.497  2.7422  0.1854  2.8585
38636SOL    HW226223   9.317  11.562  12.504  1.1929  0.2239  0.8657
38637SOL     OW26224   6.960   9.756   2.528  0.1333  0.3038  0.1439
38637SOL    HW126225   6.920   9.672   2.549  3.0782 -1.3248 -0.2711
38637SOL    HW226226   6.942   9.811   2.604 -2.4060 -0.3935  0.1417
38638SOL     OW26227   3.226   4.986  11.055 -0.1407  0.7043 -0.2676
38638SOL    HW126228   3.320   4.975  11.045 -0.2619  0.0401 -0.7163
38638SOL    HW226229   3.188   4.940  10.981 -0.8854 -0.5487  0.8332
38639SOL     OW26230  11.126   9.565   6.154  0.1286 -0.0081 -0.0210
38639SOL    HW126231  11.106   9.567   6.248 -1.7430  0.7912 -0.3953
38639SOL    HW226232  11.220   9.584   6.149  0.3224 -0.3480  1.6910
38640SOL     OW26233   9.896   8.892   9.068  0.3321  0.1710 -0.5929
38640SOL    HW126234   9.930   8.805   9.087  0.0307 -1.1030 -4.8138
38640SOL    HW226235   9.965   8.934   9.016 -0.0188  2.0241  0.3688
38641SOL     OW26236   8.541   7.584   4.445  0.0845  0.3336  0.2273
38641SOL    HW126237   8.554   7.596   4.540  0.8271  3.7445 -0.1734
38641SOL    HW226238   8.625   7.550   4.414 -0.5752 -2.0747  0.8681
38642SOL     OW26239  11.374   3.524   3.214  0.3984  0.3957 -0.7361
38642SOL    HW126240  11.324   3.536   3.133 -0.2619 -0.4546 -0.4672
38642SOL    HW226241  11.383   3.612   3.250 -2.2736  0.4552  0.0026
38643SOL     OW26242   4.447   4.840   4.486 -0.0295 -0.2051 -0.3991
38643SOL    HW126243   4.495   4.804   4.560 -0.5437 -1.8036 -0.8104
38643SOL    HW226244   4.358   4.807   4.496 -0.6451  1.2965 -0.5998
38644SOL     OW26245  10.210   3.301   1.436 -0.1424  0.2129 -0.6632
38644SOL    HW126246  10.273   3.366   1.468 -0.2602 -0.0926  0.2227
38644SOL    HW226247  10.263   3.223   1.418 -0.1850  0.1330 -0.4482
38645SOL     OW26248   9.658  12.036   5.017  0.8257  0.3814 -0.4124
38645SOL    HW126249   9.731  12.078   4.972  0.1430  0.5698 -1.3712
38645SOL    HW226250   9.593  12.106   5.026  0.1944 -0.1359 -0.8604
38646SOL     OW26251  12.225   5.693  12.814 -0.9103  0.3472  0.3085
38646SOL    HW126252  12.239   5.782  12.781 -0.6498  0.9386  1.9581
38646SOL    HW226253  12.200   5.643  12.736 -0.8020  1.7917 -0.6977
38647SOL     OW26254   8.833   6.663   6.525  0.0376  0.5936 -0.2080
38647SOL    HW126255   8.767   6.709   6.473 -0.3167  3.0658  2.1388
38647SOL    HW226256   8.782   6.606   6.583 -0.0606  1.8005  0.9541
38648SOL     OW26257  12.241   4.888  12.711  0.4118 -0.2919  0.3724
38648SOL    HW126258  12.305   4.932  12.655 -0.0422  0.1598  0.2042
38648SOL    HW226259  12.217   4.809  12.662  0.7303 -0.3889  0.3717
38649SOL     OW26260   0.631   9.833   8.855 -0.2206 -0.2558 -0.1373
38649SOL    HW126261   0.726   9.831   8.864 -0.1031  1.7850 -0.4378
38649SOL    HW226262   0.607   9.924   8.874 -1.7412  0.1171 -3.2305
38650SOL     OW26263   9.501   8.026   7.157 -0.3760  0.0875  0.2041
38650SOL    HW126264   9.423   8.015   7.102 -0.4714  1.2071  0.0904
38650SOL    HW226265   9.480   8.100   7.214 -0.1824 -0.9060  1.6064
38651SOL     OW26266   3.559   7.311   0.162 -0.2668 -0.5121  0.3312
38651SOL    HW126267   3.591   7.223   0.179  0.3015 -0.6134 -1.1333
38651SOL    HW226268   3.468   7.298   0.134 -0.2019 -0.6279  0.1722
38652SOL     OW26269   0.171  11.822   1.252  0.4460 -0.0449  0.4666
38652SOL    HW126270   0.221  11.743   1.231  0.1352 -0.2615  0.5334
38652SOL    HW226271   0.230  11.894   1.230  1.3720 -0.3096  1.9591
38653SOL     OW26272  12.193   0.725   3.751 -0.1064  0.1486  0.3711
38653SOL    HW126273  12.175   0.684   3.835  0.3401 -0.8317  0.0016
38653SOL    HW226274  12.247   0.661   3.703  1.3450  1.4946  0.0979
38654SOL     OW26275   0.188   7.991   2.829 -0.4508  0.3271 -0.0494
38654SOL    HW126276   0.261   7.937   2.798  0.3899  1.6937 -0.5458
38654SOL    HW226277   0.211   8.013   2.919 -0.1801  0.8561 -0.2443
38655SOL     OW26278   9.794   1.119   8.562  0.3075 -0.0473  0.0317
38655SOL    HW126279   9.846   1.162   8.494  0.1283 -0.9572 -0.6913
38655SOL    HW226280   9.859   1.069   8.613  0.8070  2.3881  1.9982
38656SOL     OW26281  11.801   6.282   8.098 -0.5378 -0.7235 -0.1130
38656SOL    HW126282  11.842   6.286   8.184 -1.3528  0.0991  0.2466
38656SOL    HW226283  11.870   6.310   8.037 -0.1331 -0.7615  0.3240
38657SOL     OW26284   1.530   4.502   5.854 -0.1121  0.2766 -0.2611
38657SOL    HW126285   1.619   4.471   5.869 -0.1359  0.1676 -0.3456
38657SOL    HW226286   1.541   4.584   5.806 -0.0663  0.0897 -0.5731
38658SOL     OW26287  11.682   1.972   9.885 -0.3877  0.1150 -0.4364
38658SOL    HW126288  11.776   1.967   9.868 -0.5840 -1.6275 -1.1812
38658SOL    HW226289  11.667   1.911   9.957 -1.0789 -0.3104 -0.9331
38659SOL     OW26290   9.447   3.085   6.454 -0.1004  0.1834  0.1489
38659SOL    HW126291   9.485   3.003   6.423 -0.1407  0.6433 -1.1618
38659SOL    HW226292   9.371   3.058   6.506  0.7698 -0.6543  1.0097
38660SOL     OW26293   3.381   3.893   5.316 -0.0554  0.2978 -0.1699
38660SOL    HW126294   3.387   3.846   5.233  0.9080 -0.0144  0.0596
38660SOL    HW226295   3.288   3.908   5.329 -0.1377  1.6012 -1.9955
38661SOL     OW26296   6.911   1.423  11.131 -0.2134  0.0668  1.0166
38661SOL    HW126297   6.952   1.427  11.045 -1.7124 -1.3575  0.1752
38661SOL    HW226298   6.979   1.388  11.188 -0.4491 -3.3949 -0.5773
38662SOL     OW26299   5.712   4.569   6.587  0.0325  0.1463  0.3124
38662SOL    HW126300   5.726   4.579   6.681 -0.8459  0.6753  0.3963
38662SOL    HW226301   5.617   4.574   6.576  0.0608 -0.7196 -0.5116
38663SOL     OW26302   7.159   7.056   8.391  0.4958  0.1112  0.4877
38663SOL    HW126303   7.138   7.131   8.336  2.1509  1.5434  1.6978
38663SOL    HW226304   7.079   7.041   8.441  0.1261  1.0629  0.2070
38664SOL     OW26305  10.471   3.336   7.212 -0.2626  0.4977 -0.6481
38664SOL    HW126306  10.557   3.353   7.174 -0.5931 -0.4147 -1.8620
38664SOL    HW226307  10.472   3.243   7.235 -0.4393  0.8012  0.6411
38665SOL     OW26308  11.887  12.941   6.125 -0.2818  0.1362  0.6377
38665SOL    HW126309  11.794  12.926   6.114 -0.3205  0.4939  0.4343
38665SOL    HW226310  11.895  13.036   6.138  0.0364  0.0889  0.8204
38666SOL     OW26311   9.554   5.071   6.348 -0.0373 -0.5361 -0.1949
38666SOL    HW126312   9.555   5.045   6.440  1.5067 -0.0359 -0.0460
38666SOL    HW226313   9.558   4.989   6.300  0.0017 -0.7637  0.1932
38667SOL     OW26314  10.831  10.010  11.638 -0.0424  0.0542 -0.7783
38667SOL    HW126315  10.878  10.054  11.568  2.3647  0.4253  0.9426
38667SOL    HW226316  10.855   9.918  11.629  1.9079  0.3635  0.6397
38668SOL     OW26317   0.222  12.124   1.744 -0.0641  0.3328 -0.1557
38668SOL    HW126318   0.279  12.050   1.729 -0.1001  0.4084 -0.6814
38668SOL    HW226319   0.260  12.195   1.693 -0.3106  0.5387 -0.0581
38669SOL     OW26320   2.699   7.935   4.553  0.1954  0.1500 -0.5281
38669SOL    HW126321   2.614   7.909   4.518  0.1050  1.3513 -1.2601
38669SOL    HW226322   2.706   8.028   4.532  1.0334  0.4360  0.8839
38670SOL     OW26323   1.179   0.746   5.138 -0.5783  0.0804 -0.0978
38670SOL    HW126324   1.207   0.838   5.142  1.6498 -0.5249 -0.1051
38670SOL    HW226325   1.245   0.699   5.190 -1.6247 -1.5384 -0.1550
38671SOL     OW26326  11.611   4.981  12.460 -0.5513 -0.4701 -0.7105
38671SOL    HW126327  11.655   4.921  12.400  1.5519 -0.7757  1.0109
38671SOL    HW226328  11.648   5.067  12.440  0.3483 -0.6113  0.2486
38672SOL     OW26329  11.018   6.716   9.881 -0.8698 -0.2637 -0.3069
38672SOL    HW126330  11.098   6.742   9.927 -0.3460 -0.9189 -0.8210
38672SOL    HW226331  10.982   6.798   9.847 -0.5124  0.0587  0.0852
38673SOL     OW26332   6.500   9.101   5.003  0.2924  0.0314  1.1423
38673SOL    HW126333   6.406   9.117   4.991  0.7897  2.6703 -0.0422
38673SOL    HW226334   6.509   9.006   5.001 -2.4244 -0.3315  2.0321
38674SOL     OW26335   9.752  11.308   5.140  0.6226 -0.4077 -0.0168
38674SOL    HW126336   9.725  11.396   5.167 -0.4181 -0.3188 -1.2231
38674SOL    HW226337   9.723  11.251   5.211 -1.8300 -0.1592 -0.7121
38675SOL     OW26338   9.752  10.114   8.262 -0.2348  0.6585  0.2268
38675SOL    HW126339   9.675  10.058   8.271 -0.6321  1.1970  0.2114
38675SOL    HW226340   9.807  10.091   8.337  0.3374 -0.8599 -0.6149
38676SOL     OW26341   7.802   9.591   0.924 -0.2820 -0.7484 -0.3604
38676SOL    HW126342   7.759   9.651   0.984 -0.9584 -0.5523 -1.0292
38676SOL    HW226343   7.788   9.504   0.963  0.7694 -0.4945  0.6500
38677SOL     OW26344  11.197   5.215   8.185  0.3824  0.2150 -0.4286
38677SOL    HW126345  11.216   5.306   8.210  0.1435 -0.1219  1.1020
38677SOL    HW226346  11.128   5.222   8.119 -0.2256  1.1333  0.2721
38678SOL     OW26347   5.923  11.055   6.207  0.1676  0.7455 -0.3653
38678SOL    HW126348   5.904  10.985   6.144 -0.7469 -1.6077  2.3170
38678SOL    HW226349   5.896  11.019   6.292  3.1499  2.9396  1.7180
38679SOL     OW26350   2.523  10.691   5.283  0.3043  0.7209  0.0093
38679SOL    HW126351   2.592  10.626   5.292 -0.4989 -0.1138  0.3369
38679SOL    HW226352   2.565  10.774   5.306  1.3648  0.3448 -0.4898
38680SOL     OW26353  12.095   0.182  11.515 -0.7222 -0.3512  0.1036
38680SOL    HW126354  12.112   0.125  11.441  1.0112  0.4800 -0.1890
38680SOL    HW226355  12.143   0.142  11.588 -0.3787  0.1555  0.1601
38681SOL     OW26356   7.281   9.912   1.494 -0.1308 -0.4457  0.0909
38681SOL    HW126357   7.336   9.975   1.542 -0.2935 -0.3150  0.1041
38681SOL    HW226358   7.206   9.963   1.465  1.4162  0.3000 -3.0578
38682SOL     OW26359   6.444  12.934   7.146  0.0454 -0.1432 -0.3015
38682SOL    HW126360   6.369  12.880   7.170 -0.4541 -0.2359 -1.9814
38682SOL    HW226361   6.513  12.908   7.208 -1.2696 -0.0530  1.2644
38683SOL     OW26362   8.835   8.448   7.619  0.2613  0.9991  0.5242
38683SOL    HW126363   8.761   8.506   7.607 -0.5788 -0.2165 -0.4290
38683SOL    HW226364   8.853   8.413   7.532  2.2159  1.5477  0.6581
38684SOL     OW26365  12.224   5.578   4.427 -0.0499 -0.8357  0.2438
38684SOL    HW126366  12.253   5.611   4.512  0.2726 -2.3978  0.7730
38684SOL    HW226367  12.132   5.554   4.440 -0.6338  0.8627 -0.4640
38685SOL     OW26368   6.586   7.410  10.273 -0.0748 -0.1458  0.1126
38685SOL    HW126369   6.492   7.401  10.281  0.0459 -1.0549  0.6322
38685SOL    HW226370   6.613   7.462  10.348  0.0543 -1.5764  1.1032
38686SOL     OW26371  10.346   4.610   5.061  0.0675  0.6613  0.3060
38686SOL    HW126372  10.314   4.522   5.077  1.1879  0.3489  0.9095
38686SOL    HW226373  10.314   4.661   5.136  0.9111  0.3614  0.8812
38687SOL     OW26374   5.934   3.262   0.317  0.4172 -0.1181  0.2276
38687SOL    HW126375   5.932   3.336   0.377 -0.1284  0.4067 -0.4252
38687SOL    HW226376   6.020   3.267   0.274 -0.1366  0.9666 -0.8152
38688SOL     OW26377   6.562  12.892  11.796  0.1340 -0.4589 -0.5117
38688SOL    HW126378   6.603  12.946  11.728 -0.7108  1.4042  0.3858
38688SOL    HW226379   6.469  12.914  11.791 -0.3243 -2.2317 -0.4162
38689SOL     OW26380  11.102   3.815  12.006  0.3853 -0.5415  0.0155
38689SOL    HW126381  11.152   3.760  11.947 -0.6141 -1.1215 -0.3258
38689SOL    HW226382  11.040   3.755  12.048  0.1197  0.1099  0.5886
38690SOL     OW26383   1.378   0.005   7.025 -0.3602  0.2814  0.2144
38690SOL    HW126384   1.428   0.064   7.080 -2.0899  0.8815  1.1983
38690SOL    HW226385   1.327  -0.048   7.086 -1.6205  0.3287 -0.7605
38691SOL     OW26386  12.786   4.752   3.732 -0.3865  0.0926  0.2259
38691SOL    HW126387  12.751   4.736   3.819 -0.0314  0.4226  0.4292
38691SOL    HW226388  12.839   4.831   3.740  0.1241 -0.1984 -0.1517
38692SOL     OW26389   1.860  12.578   8.661 -0.4216  0.5313  0.0805
38692SOL    HW126390   1.913  12.569   8.581 -1.0419 -0.7724 -0.1982
38692SOL    HW226391   1.853  12.673   8.673  0.1760  0.7528 -1.0832
38693SOL     OW26392  12.596   2.796   9.041  0.0525  0.1000  0.1850
38693SOL    HW126393  12.615   2.795   9.135  1.3918  0.3028 -0.0667
38693SOL    HW226394  12.647   2.869   9.007 -2.0383  1.3622 -0.4001
38694SOL     OW26395   1.312  11.084   9.948  0.2769  0.0193 -0.2168
38694SOL    HW126396   1.267  11.010   9.907  0.3363 -0.1193 -0.0359
38694SOL    HW226397   1.252  11.157   9.936 -1.1034 -0.6283  2.0003
38695SOL     OW26398   0.296   0.308   3.464  0.4051 -0.4239  0.1937
38695SOL    HW126399   0.202   0.320   3.458  0.1921 -1.6086  0.8924
38695SOL    HW226400   0.323   0.287   3.374  0.0545  0.1890 -0.0585
38696SOL     OW26401   1.505   7.969   1.541  0.4038  0.3419  0.0856
38696SOL    HW126402   1.557   7.984   1.462 -0.7894  1.0885 -0.6082
38696SOL    HW226403   1.533   8.038   1.602  0.6200  0.3969 -0.0739
38697SOL     OW26404   6.497   0.541   3.780 -0.9521  0.5625 -0.4243
38697SOL    HW126405   6.525   0.605   3.716  0.5782  1.3414  0.9512
38697SOL    HW226406   6.532   0.458   3.748 -1.4120  0.6945 -1.2933
38698SOL     OW26407  11.202   4.714   8.491 -0.0250 -0.0637  0.1374
38698SOL    HW126408  11.161   4.662   8.560 -1.4209  0.0440 -0.5755
38698SOL    HW226409  11.132   4.772   8.460  0.8728  0.6292 -0.6387
38699SOL     OW26410  10.947   8.440  12.110  0.2795 -0.3804  0.2903
38699SOL    HW126411  10.855   8.423  12.132  0.7900 -2.2309  1.0917
38699SOL    HW226412  10.978   8.496  12.181  0.1062 -0.7947  0.6977
38700SOL     OW26413   5.908   0.165   3.784  0.3828  0.2767 -0.1016
38700SOL    HW126414   5.898   0.254   3.816  0.8733  0.6311 -0.9181
38700SOL    HW226415   5.998   0.160   3.753  0.6692 -0.7980  0.8138
38701SOL     OW26416  10.038   7.501  12.889 -0.7012  0.2815  0.7891
38701SOL    HW126417  10.118   7.552  12.879 -0.5172 -0.1596 -0.1317
38701SOL    HW226418  10.068   7.410  12.890 -1.3535 -0.1320 -2.8017
38702SOL     OW26419   8.447   8.731   1.610  0.4770 -0.4420  0.0343
38702SOL    HW126420   8.474   8.811   1.565 -0.4078  0.6793  1.4166
38702SOL    HW226421   8.525   8.676   1.611  0.7740 -0.1340 -1.9955
38703SOL     OW26422   6.473   7.629   5.112 -0.0770  0.3525  0.0028
38703SOL    HW126423   6.499   7.626   5.204 -0.3453 -2.4040  0.0614
38703SOL    HW226424   6.377   7.630   5.114 -0.0987 -0.3886 -0.2148
38704SOL     OW26425   5.965   5.712   9.271 -0.0647 -0.0388  1.1115
38704SOL    HW126426   5.952   5.806   9.259 -2.3621 -0.1818  2.0064
38704SOL    HW226427   5.941   5.674   9.186  1.9916  0.2090  0.3690
38705SOL     OW26428   4.971  10.025   1.040 -0.1588 -0.3172 -0.1003
38705SOL    HW126429   5.004  10.073   1.116 -0.5988 -0.4377  0.1688
38705SOL    HW226430   4.916  10.088   0.994 -0.1082 -0.3261 -0.1739
38706SOL     OW26431   7.966  10.617  11.842  0.6883  0.4866 -0.0808
38706SOL    HW126432   8.028  10.680  11.879  1.5464 -0.1440 -0.4095
38706SOL    HW226433   8.020  10.556  11.793 -0.4042  1.4687 -2.6990
38707SOL     OW26434  11.054  12.908  12.069 -0.3457  0.3809  0.2664
38707SOL    HW126435  11.030  12.860  11.990  0.2285 -1.8507  1.3872
38707SOL    HW226436  10.977  12.900  12.126 -0.0223  0.2806  0.6901
38708SOL     OW26437   2.513   4.602  10.355  0.3423  0.3831  0.5521
38708SOL    HW126438   2.571   4.638  10.287 -1.1847  1.1109 -0.4122
38708SOL    HW226439   2.486   4.677  10.407 -0.6982  0.2623  0.2159
38709SOL     OW26440   1.006   1.420   5.022  0.1174 -0.1820 -0.3641
38709SOL    HW126441   0.914   1.401   5.036  0.0161 -0.5706 -1.4888
38709SOL    HW226442   1.027   1.380   4.937  1.2139  0.2396 -0.3131
38710SOL     OW26443   3.634   8.938   8.784 -0.5422 -0.0978  0.1194
38710SOL    HW126444   3.702   8.938   8.716  1.2470  0.9338  1.8070
38710SOL    HW226445   3.632   9.029   8.815 -1.5113 -0.4961  1.2755
38711SOL     OW26446  12.675   7.253   0.789  0.3371 -0.0469  0.1355
38711SOL    HW126447  12.701   7.321   0.727 -1.1101  2.0755  1.7159
38711SOL    HW226448  12.708   7.284   0.874 -0.8137 -1.0492  0.9839
38712SOL     OW26449  12.049   9.944   9.295  0.6564 -0.1183  0.0946
38712SOL    HW126450  12.110  10.017   9.297 -0.3557  0.7351  0.2416
38712SOL    HW226451  12.026   9.929   9.387 -0.6439  0.6904 -0.0687
38713SOL     OW26452   4.362   6.333   4.635 -0.8853  0.5235 -0.3948
38713SOL    HW126453   4.375   6.418   4.678  0.5130  0.2048 -0.1435
38713SOL    HW226454   4.360   6.270   4.707  0.5204  0.0920 -0.7092
38714SOL     OW26455   7.188   4.049   0.379 -0.5848  0.1144 -0.7366
38714SOL    HW126456   7.163   4.069   0.469  1.6656 -1.7540  0.3986
38714SOL    HW226457   7.277   4.083   0.372 -1.0162  0.9803 -2.5887
38715SOL     OW26458   6.525   0.470  12.712 -0.0351  0.1693  0.0514
38715SOL    HW126459   6.592   0.407  12.736  0.0162  0.8235  1.8126
38715SOL    HW226460   6.442   0.425  12.731  0.0048  0.6727  1.5884
38716SOL     OW26461   8.239   9.646   5.658 -0.0021 -0.0697  0.1413
38716SOL    HW126462   8.163   9.705   5.657 -0.9867 -1.2779 -0.8967
38716SOL    HW226463   8.314   9.703   5.672 -1.0436  1.2537  0.5523
38717SOL     OW26464   6.675   1.973   1.986 -0.1879  0.0917 -0.4558
38717SOL    HW126465   6.741   1.959   2.054 -0.2180  1.4700 -0.1169
38717SOL    HW226466   6.692   2.062   1.954 -1.2800  0.1073 -1.0434
38718SOL     OW26467   1.981   7.254   3.138 -0.1782 -0.5898  0.2245
38718SOL    HW126468   1.891   7.285   3.137 -0.6627 -1.9115  0.6583
38718SOL    HW226469   2.011   7.269   3.227  0.2407  0.3532 -0.0566
38719SOL     OW26470  11.942   3.970   1.884 -0.1364 -0.4024  0.4631
38719SOL    HW126471  11.949   4.065   1.887  0.7907 -0.4876  1.7288
38719SOL    HW226472  11.883   3.948   1.956  1.0023 -0.8818  1.2697
38720SOL     OW26473   2.739   8.925   4.574  0.1806 -0.0238 -0.0664
38720SOL    HW126474   2.822   8.936   4.619  0.6761  0.5174 -1.0860
38720SOL    HW226475   2.720   9.012   4.537 -0.2694 -0.4244 -0.7947
38721SOL     OW26476  12.498   3.582  12.595 -0.0241  0.0521  0.3685
38721SOL    HW126477  12.517   3.488  12.593  0.1562  0.0911 -1.1392
38721SOL    HW226478  12.544   3.614  12.673 -0.2801 -1.1425  1.0357
38722SOL     OW26479   3.252   5.372   9.755 -0.1170  0.2251 -0.3217
38722SOL    HW126480   3.286   5.299   9.806  0.7640 -0.3781 -1.7103
38722SOL    HW226481   3.157   5.366   9.765 -0.0213 -0.7169  0.1133
38723SOL     OW26482   7.200  11.031  11.636  0.4218 -0.3838  0.6704
38723SOL    HW126483   7.176  11.124  11.627  0.8963 -0.2578  0.6790
38723SOL    HW226484   7.236  11.008  11.550 -0.6302 -0.8465  0.3362
38724SOL     OW26485  11.967   5.077   1.129 -0.2108  0.3343 -0.2044
38724SOL    HW126486  12.049   5.126   1.136 -1.0396  1.6956  0.2785
38724SOL    HW226487  11.903   5.142   1.099 -1.0952 -0.7338 -0.6814
38725SOL     OW26488   9.747   8.019   2.430 -0.0752 -0.0609  0.7868
38725SOL    HW126489   9.739   8.051   2.520 -2.5740 -2.3554  1.5217
38725SOL    HW226490   9.811   7.948   2.436 -0.5045 -0.4477  0.8514
38726SOL     OW26491   9.341   5.345   6.289  0.2621  0.4109 -0.2349
38726SOL    HW126492   9.250   5.352   6.262  0.2913 -1.4366 -0.9735
38726SOL    HW226493   9.339   5.288   6.366  0.6768  1.5634  0.6581
38727SOL     OW26494   6.908   7.038   3.243  1.1659 -0.2582  0.4906
38727SOL    HW126495   6.882   6.973   3.309  1.8140 -0.4511  0.5624
38727SOL    HW226496   6.848   7.022   3.170 -1.6063  1.9004  2.0667
38728SOL     OW26497   8.384  10.715   7.398 -0.4051 -0.3508  0.6041
38728SOL    HW126498   8.369  10.765   7.478  2.3302  1.0816  0.3306
38728SOL    HW226499   8.324  10.753   7.333 -0.1921  0.8055  1.0783
38729SOL     OW26500   9.332   7.152   6.451  0.4040  0.2710 -0.0037
38729SOL    HW126501   9.311   7.170   6.359 -1.9239 -1.2613  0.1469
38729SOL    HW226502   9.415   7.106   6.448 -0.7413 -1.8907 -1.6483
38730SOL     OW26503   8.464   6.961   5.218  0.1193 -0.5729 -0.2685
38730SOL    HW126504   8.382   6.999   5.252  1.2995  2.6459 -0.6961
38730SOL    HW226505   8.486   6.892   5.282 -0.9742  1.0579  2.0116
38731SOL     OW26506   7.940   4.722   4.658  0.5315  0.2905 -0.2344
38731SOL    HW126507   7.886   4.676   4.594  1.5239  1.6807 -2.1566
38731SOL    HW226508   7.904   4.695   4.743 -3.4121  1.3702 -1.3547
38732SOL     OW26509   6.686  10.865  10.210 -0.0506 -0.0952 -0.3935
38732SOL    HW126510   6.699  10.848  10.117 -0.7131  0.4536 -0.5939
38732SOL    HW226511   6.606  10.817  10.233  0.4525 -0.7473  0.0519
38733SOL     OW26512  10.182   7.750   1.041 -0.2842 -0.9480 -0.7508
38733SOL    HW126513  10.158   7.669   1.087  1.4802 -2.1747 -1.8283
38733SOL    HW226514  10.277   7.755   1.051 -0.2478  0.4505 -1.5830
38734SOL     OW26515   1.862   8.710   1.651  0.7855  0.1020  0.4105
38734SOL    HW126516   1.811   8.784   1.684 -0.3899  0.0977 -1.3010
38734SOL    HW226517   1.939   8.749   1.611 -0.6798  0.6291 -2.0802
38735SOL     OW26518   1.244  11.243   5.808 -0.0310 -0.4673  0.1163
38735SOL    HW126519   1.207  11.193   5.735 -1.9768 -1.6622  1.8144
38735SOL    HW226520   1.289  11.177   5.861 -1.0337 -0.1060  1.4340
38736SOL     OW26521   7.946   1.448  10.375  0.5561 -0.1822  0.0080
38736SOL    HW126522   7.915   1.536  10.395  1.3595 -0.1604  1.2234
38736SOL    HW226523   8.024   1.461  10.322 -1.3823 -0.2384 -3.1178
38737SOL     OW26524   9.343   3.457   1.197 -0.2738  0.0739  0.4255
38737SOL    HW126525   9.285   3.390   1.234 -0.4364 -0.3777 -0.6324
38737SOL    HW226526   9.288   3.536   1.193 -0.9284 -0.4154 -0.8161
38738SOL     OW26527   1.381   7.392   8.281 -0.1879 -0.2438  0.4258
38738SOL    HW126528   1.405   7.458   8.217  0.3262 -1.5822 -0.8298
38738SOL    HW226529   1.298   7.356   8.250 -0.3710 -0.3245  0.9853
38739SOL     OW26530   6.760   5.454   9.533  0.4872  0.6104  1.0504
38739SOL    HW126531   6.777   5.534   9.582  0.3552  1.0002  0.4682
38739SOL    HW226532   6.838   5.400   9.546  0.8478  1.0992  0.9219
38740SOL     OW26533   4.859  12.987  11.895  0.1875  0.2446 -1.0705
38740SOL    HW126534   4.776  12.994  11.848  0.4824  0.6924 -1.5338
38740SOL    HW226535   4.837  13.009  11.986 -0.3526 -0.4547 -1.0190
38741SOL     OW26536   4.676  10.308  12.584  0.3373  0.5915 -0.2751
38741SOL    HW126537   4.600  10.284  12.638  0.4048 -0.4568 -0.6154
38741SOL    HW226538   4.658  10.267  12.499  0.6186  1.5423 -0.8110
38742SOL     OW26539   8.665   0.875   4.259 -0.4981 -0.1522  0.3236
38742SOL    HW126540   8.607   0.857   4.334 -2.8751  1.8693 -0.8548
38742SOL    HW226541   8.686   0.789   4.223 -2.6110 -1.0219  1.0135
38743SOL     OW26542  10.712   0.007   5.926  0.0219 -0.5014  0.7263
38743SOL    HW126543  10.802   0.029   5.900 -0.3441 -0.2566 -0.4223
38743SOL    HW226544  10.663   0.088   5.911 -0.3934 -0.6334  1.3523
38744SOL     OW26545   1.903  12.194  12.340 -0.1948 -0.1349 -0.3447
38744SOL    HW126546   1.911  12.272  12.287  2.0764  0.0475  0.1710
38744SOL    HW226547   1.955  12.128  12.295 -0.6495 -0.8447  0.1348
38745SOL     OW26548   2.706   5.067   1.851  0.3391  0.0540  0.3483
38745SOL    HW126549   2.617   5.063   1.817  0.1724  2.9695  0.1466
38745SOL    HW226550   2.755   5.112   1.782  1.7855 -0.7334  0.8319
38746SOL     OW26551   4.120   9.428   9.522  0.2005 -0.4875  0.2006
38746SOL    HW126552   4.042   9.474   9.553 -0.8914 -2.3934  0.4555
38746SOL    HW226553   4.158   9.486   9.456 -0.4584  1.2372  1.2710
38747SOL     OW26554  12.716   9.904  12.388  0.0441 -0.5494  0.3468
38747SOL    HW126555  12.662   9.967  12.436 -2.8470 -1.4337 -1.5010
38747SOL    HW226556  12.741   9.839  12.454 -0.7339  0.1675  1.3824
38748SOL     OW26557  11.055   9.924  12.555 -0.1454  0.6678 -0.1762
38748SOL    HW126558  11.106   9.875  12.490  0.6458  1.1250  0.0829
38748SOL    HW226559  11.106   9.918  12.635 -1.3665 -0.3207  0.5592
38749SOL     OW26560   5.977  12.868   9.663  0.1891 -0.5511 -0.3727
38749SOL    HW126561   5.889  12.855   9.698  0.3015 -2.7359 -0.7653
38749SOL    HW226562   6.017  12.932   9.721 -1.1127 -0.7570  0.7909
38750SOL     OW26563   3.332   1.984  12.526 -0.0316 -0.1714  0.3341
38750SOL    HW126564   3.396   2.033  12.475  1.0912 -2.0573 -0.1778
38750SOL    HW226565   3.324   2.033  12.608  0.8964  0.9245 -0.1965
38751SOL     OW26566  12.771  11.692   4.718  0.0296  0.0408  0.3084
38751SOL    HW126567  12.726  11.622   4.670  1.2302 -0.5437 -0.0096
38751SOL    HW226568  12.860  11.658   4.731  0.2933  1.0302  1.1961
38752SOL     OW26569  10.122   5.680   5.328  0.4392 -0.3692  0.6323
38752SOL    HW126570  10.143   5.610   5.389 -0.1801 -0.4212  0.7908
38752SOL    HW226571  10.065   5.739   5.378  0.7659  0.1282  0.4305
38753SOL     OW26572   9.826   7.067   8.316  0.0878  0.0533 -0.5913
38753SOL    HW126573   9.793   6.994   8.369  1.1055  0.1460  0.2051
38753SOL    HW226574   9.755   7.087   8.255 -0.5559 -1.0011 -0.2084
38754SOL     OW26575   6.616   5.363   4.613 -0.3007 -0.5438 -0.1258
38754SOL    HW126576   6.670   5.399   4.683 -0.0228 -1.2966  0.0521
38754SOL    HW226577   6.549   5.312   4.657 -0.5362 -0.4587 -0.3828
38755SOL     OW26578  11.680   3.661   1.508  0.1356  0.2965 -0.3094
38755SOL    HW126579  11.688   3.746   1.465  1.0196  1.3686  1.8001
38755SOL    HW226580  11.741   3.666   1.582 -0.3227 -1.9191  0.3048
38756SOL     OW26581   8.748  11.584  12.961 -0.6603 -0.0030 -0.0766
38756SOL    HW126582   8.761  11.649  12.892  1.1179 -0.5436 -0.2976
38756SOL    HW226583   8.794  11.619  13.036 -2.1739  0.3455  0.7337
38757SOL     OW26584   7.068   6.748   7.597  0.1964  0.4568  0.4744
38757SOL    HW126585   7.076   6.842   7.582  0.8350  0.0188 -2.5512
38757SOL    HW226586   7.007   6.718   7.529  0.4574 -1.4116  1.0004
38758SOL     OW26587   7.737   4.127   3.903 -0.1267  0.0912 -0.0739
38758SOL    HW126588   7.647   4.114   3.875 -0.1796  0.4464 -0.0649
38758SOL    HW226589   7.788   4.065   3.850 -0.3764 -0.1169 -0.0693
38759SOL     OW26590   4.973  12.191   2.301 -0.5422  0.0412 -0.0274
38759SOL    HW126591   5.005  12.249   2.232  0.5207 -0.0736  0.3547
38759SOL    HW226592   4.950  12.249   2.373  0.7238  0.0095  0.4349
38760SOL     OW26593   5.746  12.545   3.458  0.1573  0.0269  0.2462
38760SOL    HW126594   5.701  12.515   3.537  0.3195 -0.3529  0.1950
38760SOL    HW226595   5.729  12.639   3.456 -0.1168 -0.0111  0.5604
38761SOL     OW26596   0.674  12.147  10.154  0.6623  0.1614 -0.2960
38761SOL    HW126597   0.621  12.075  10.119 -0.2418 -0.0404  1.3641
38761SOL    HW226598   0.620  12.225  10.141 -0.8736 -0.2321  2.7438
38762SOL     OW26599   5.564   7.522   9.615  0.5254 -0.6130  0.2952
38762SOL    HW126600   5.618   7.484   9.685 -1.8075  0.3470  2.8111
38762SOL    HW226601   5.573   7.616   9.626 -1.1132 -0.4314  0.3935
38763SOL     OW26602   3.578  10.580  11.189 -0.3329  0.0033  0.6703
38763SOL    HW126603   3.638  10.605  11.119 -0.3927 -2.9908 -0.6037
38763SOL    HW226604   3.491  10.604  11.156 -0.6863 -3.6705 -1.7187
38764SOL     OW26605   5.124   6.265   0.346  0.5073  0.1580  0.0934
38764SOL    HW126606   5.145   6.326   0.416  3.1042 -0.4658 -0.0633
38764SOL    HW226607   5.150   6.310   0.266  1.2212 -0.6416 -0.1314
38765SOL     OW26608   5.441   0.968   5.930 -0.7492 -0.6897 -0.6353
38765SOL    HW126609   5.426   1.059   5.904 -1.2358 -0.5659  0.0393
38765SOL    HW226610   5.455   0.921   5.848  2.5535  0.4812 -0.8890
38766SOL     OW26611   1.449   5.509   7.136 -0.0102  0.2439  0.5811
38766SOL    HW126612   1.370   5.506   7.082  1.8426  0.5083 -2.4030
38766SOL    HW226613   1.475   5.601   7.136  0.6780  0.0587  0.8795
38767SOL     OW26614   4.281   9.283   5.940  0.2617 -0.4487  0.7917
38767SOL    HW126615   4.372   9.315   5.942  0.4561 -0.5659 -2.3824
38767SOL    HW226616   4.279   9.213   6.005  1.8237  0.9718  2.4861
38768SOL     OW26617  11.214  11.665   9.734 -0.2142 -0.0203 -0.2332
38768SOL    HW126618  11.287  11.616   9.771 -0.6523 -1.0164 -0.6625
38768SOL    HW226619  11.171  11.604   9.674 -0.8013  0.8699 -0.7538
38769SOL     OW26620  12.147   8.839   8.152 -0.3797  0.3471  0.4146
38769SOL    HW126621  12.168   8.832   8.246 -0.3586  1.2429  0.4829
38769SOL    HW226622  12.162   8.751   8.118 -2.4143 -0.5770  1.6543
38770SOL     OW26623   0.895   0.320   0.732 -0.9286  0.1312  0.3962
38770SOL    HW126624   0.913   0.236   0.689 -1.9426  0.1416 -0.0866
38770SOL    HW226625   0.800   0.319   0.747 -0.7167  0.4432  2.0004
38771SOL     OW26626   7.729   7.223   4.569  0.3311 -0.5048  0.2530
38771SOL    HW126627   7.730   7.164   4.493  1.6388 -0.7448  0.4262
38771SOL    HW226628   7.750   7.166   4.643 -1.1821 -0.3185  0.8644
38772SOL     OW26629  11.281   7.183   7.220  0.1690  0.1692  0.1202
38772SOL    HW126630  11.236   7.100   7.208 -0.2213  0.4126 -0.1008
38772SOL    HW226631  11.211   7.248   7.229  0.4727  0.5846 -0.4720
38773SOL     OW26632   3.151   4.444   3.293  0.2528  0.0673  0.0261
38773SOL    HW126633   3.150   4.389   3.372 -0.8687 -0.4756 -0.3497
38773SOL    HW226634   3.160   4.533   3.326 -0.0098 -0.1719  0.7630
38774SOL     OW26635  12.773   3.452   0.838  0.0241 -0.6734 -0.4062
38774SOL    HW126636  12.855   3.414   0.870  0.5198 -2.6086 -3.5404
38774SOL    HW226637  12.707   3.386   0.858 -0.1684 -0.5704 -0.6904
38775SOL     OW26638  12.137  11.292   5.757 -0.3838  0.4108  0.1108
38775SOL    HW126639  12.179  11.323   5.837 -0.0811 -0.7186  0.4140
38775SOL    HW226640  12.195  11.222   5.725 -0.5093  0.8240 -1.0900
38776SOL     OW26641  12.853  12.234   3.908 -0.3753  0.0563  0.4386
38776SOL    HW126642  12.780  12.265   3.855 -1.3452 -1.5418  0.7493
38776SOL    HW226643  12.931  12.272   3.868 -1.1753 -0.1284 -1.3727
38777SOL     OW26644   0.565   4.153   6.140  0.1142  0.2017  0.9812
38777SOL    HW126645   0.546   4.125   6.050 -1.8215 -0.4946  1.5594
38777SOL    HW226646   0.481   4.180   6.176  0.2110 -2.3775  3.5195
38778SOL     OW26647   5.911   5.147   4.209 -0.4170 -0.3144 -0.0743
38778SOL    HW126648   5.992   5.095   4.210 -0.0596  0.2401  0.4613
38778SOL    HW226649   5.939   5.237   4.225 -1.1282 -0.0967  0.0067
38779SOL     OW26650   8.911   3.402   8.589  0.2500  0.2697  0.3196
38779SOL    HW126651   9.004   3.385   8.602  0.5641 -2.3991 -3.5825
38779SOL    HW226652   8.868   3.319   8.606 -0.8699  0.4304 -1.3817
38780SOL     OW26653   4.583   0.418   8.635  0.0259  0.7592 -0.7446
38780SOL    HW126654   4.505   0.382   8.677 -1.8913  3.2144 -1.9558
38780SOL    HW226655   4.638   0.446   8.707  0.1729 -1.6060  0.1561
38781SOL     OW26656   9.878   6.498   4.603 -0.5961  0.2135 -0.0677
38781SOL    HW126657   9.822   6.576   4.598 -1.8476 -0.7246 -1.2906
38781SOL    HW226658   9.850   6.454   4.684 -1.9876 -0.4741 -0.8907
38782SOL     OW26659   8.070  10.469  10.178  0.1806  0.3670 -0.1724
38782SOL    HW126660   8.090  10.495  10.088 -0.5629 -0.8029 -0.6966
38782SOL    HW226661   8.049  10.376  10.172 -0.6321  0.4479  1.1007
38783SOL     OW26662   3.244   9.295  12.013  0.0088 -0.2466  0.2249
38783SOL    HW126663   3.251   9.310  11.919 -1.4546 -0.2365  0.0841
38783SOL    HW226664   3.278   9.375  12.053 -2.2508  1.1108 -0.3987
38784SOL     OW26665   0.075   8.002   5.352  0.0091 -0.0283  0.1383
38784SOL    HW126666   0.016   7.982   5.279 -1.8566 -0.5981  1.7394
38784SOL    HW226667   0.157   8.029   5.309 -0.3744 -2.1573 -2.1489
38785SOL     OW26668   3.603  11.357   2.400 -0.4858 -0.3123 -0.0291
38785SOL    HW126669   3.584  11.444   2.366  1.7231  0.0596 -0.4737
38785SOL    HW226670   3.548  11.348   2.478 -1.1051  1.2696 -0.2592
38786SOL     OW26671   2.190   8.563   7.991 -0.2218  0.0051  0.5591
38786SOL    HW126672   2.245   8.504   7.939 -0.6174 -0.7999  1.0203
38786SOL    HW226673   2.137   8.610   7.926  2.4253  2.3866 -0.0541
38787SOL     OW26674   6.387   1.276  11.764 -0.6331 -0.0854  0.7385
38787SOL    HW126675   6.357   1.237  11.846 -0.5774 -0.7236  0.4662
38787SOL    HW226676   6.367   1.210  11.698 -0.1101  0.1587  0.3270
38788SOL     OW26677   3.733   5.094   0.509 -0.1573  0.1737  0.1232
38788SOL    HW126678   3.657   5.135   0.550  0.9364  0.2913  2.1842
38788SOL    HW226679   3.723   5.000   0.528 -0.0146  0.1319 -0.0065
38789SOL     OW26680   8.303   7.945   2.579 -0.0040  0.5583  0.7021
38789SOL    HW126681   8.296   7.867   2.634  0.7683 -0.1676 -0.2113
38789SOL    HW226682   8.395   7.949   2.553 -0.2906  1.0581 -0.2881
38790SOL     OW26683  10.876   9.615   5.570  0.3706  0.7259  0.2756
38790SOL    HW126684  10.809   9.553   5.602  0.7601 -0.3106 -0.8545
38790SOL    HW226685  10.959   9.569   5.582  1.0317  2.2859  2.3478
38791SOL     OW26686   4.394   6.985   0.683  0.2061 -0.0149  0.0835
38791SOL    HW126687   4.456   6.932   0.733 -1.0728 -1.4697  0.1821
38791SOL    HW226688   4.443   7.009   0.604  1.1699 -0.4126  0.5387
38792SOL     OW26689   2.295   8.056  12.858 -1.0256  0.5097  0.4473
38792SOL    HW126690   2.366   8.035  12.798 -0.6712 -1.0086  1.3284
38792SOL    HW226691   2.335   8.114  12.923 -0.3772 -0.8027  1.2715
38793SOL     OW26692   8.960  12.946  11.431 -0.3665  0.0418 -0.7010
38793SOL    HW126693   8.928  12.978  11.347  1.4596  0.0912 -1.4074
38793SOL    HW226694   8.925  13.008  11.495 -0.9837  0.5504 -1.5065
38794SOL     OW26695  12.186  12.955  12.406 -0.0116 -0.3585  0.3210
38794SOL    HW126696  12.227  13.008  12.338  0.3597  0.5536  1.2237
38794SOL    HW226697  12.092  12.970  12.395  0.0132 -0.6392 -0.3122
38795SOL     OW26698   4.207   6.205  12.412 -0.3254 -0.6460 -0.0080
38795SOL    HW126699   4.175   6.282  12.459  1.1224  0.0222 -0.0384
38795SOL    HW226700   4.272   6.166  12.471  1.1125 -0.1175 -1.1704
38796SOL     OW26701   4.752   0.077   7.081  0.7986  0.5794 -0.6218
38796SOL    HW126702   4.669   0.121   7.062 -1.5716 -2.6436  1.2123
38796SOL    HW226703   4.766   0.092   7.174  2.1936  0.9027 -0.8652
38797SOL     OW26704   0.967   7.637   4.592  0.7317 -0.2656 -0.6700
38797SOL    HW126705   0.898   7.688   4.634  1.9414  0.3421  0.6503
38797SOL    HW226706   1.009   7.698   4.531  2.6099  0.6065  1.3905
38798SOL     OW26707  11.638   9.976   3.711 -0.0092 -0.0790 -0.5100
38798SOL    HW126708  11.637  10.067   3.739  1.0883 -0.4843  0.9914
38798SOL    HW226709  11.720   9.941   3.746  0.9179 -0.9813 -3.3290
38799SOL     OW26710   6.464   3.776   5.243  0.2032 -0.8505 -0.1789
38799SOL    HW126711   6.443   3.699   5.190  1.3443 -0.3753 -1.3776
38799SOL    HW226712   6.381   3.822   5.253 -0.3441 -1.8401 -0.1016
38800SOL     OW26713   7.020   9.802   9.297  0.5034  0.2221 -0.1405
38800SOL    HW126714   7.057   9.745   9.228 -0.4430 -0.7980  0.1623
38800SOL    HW226715   6.952   9.853   9.252 -1.1185 -1.4705  0.2636
38801SOL     OW26716   2.301  10.481   9.042 -0.0239  0.1868  0.0168
38801SOL    HW126717   2.209  10.506   9.038 -0.7739 -2.2877  0.2472
38801SOL    HW226718   2.317  10.437   8.958  0.3373 -1.1872  0.7767
38802SOL     OW26719  12.855   8.276   3.986  0.2399 -0.7147  0.7428
38802SOL    HW126720  12.923   8.216   4.016  1.0150 -0.2393 -0.0163
38802SOL    HW226721  12.903   8.344   3.939 -0.8004 -0.6027 -0.1860
38803SOL     OW26722   1.840   0.238   2.273  0.2377 -0.0597  0.2792
38803SOL    HW126723   1.886   0.179   2.332  2.3471 -0.3122 -1.4715
38803SOL    HW226724   1.905   0.304   2.250  0.0357 -0.7965 -2.8386
38804SOL     OW26725   2.195   9.339   5.369  0.2692 -0.0748 -0.0884
38804SOL    HW126726   2.180   9.328   5.276  0.0209  0.7711 -0.1600
38804SOL    HW226727   2.269   9.401   5.374 -1.4768  2.1172  0.2355
38805SOL     OW26728   6.050   4.132   3.004 -0.1100  0.2251  0.2368
38805SOL    HW126729   6.077   4.221   3.025 -0.2610  0.3039  0.1003
38805SOL    HW226730   6.119   4.099   2.947 -0.7628  0.7630 -0.9104
38806SOL     OW26731   5.891   8.630   6.026  0.3245 -0.1050 -0.2766
38806SOL    HW126732   5.850   8.604   5.943  0.7592 -0.4453 -0.3822
38806SOL    HW226733   5.818   8.634   6.088  0.2834 -1.8720 -0.1799
38807SOL     OW26734   4.097   5.170   2.747  0.1674 -0.3564  0.2138
38807SOL    HW126735   4.005   5.146   2.734  0.0016  1.1431 -1.8429
38807SOL    HW226736   4.134   5.097   2.798 -2.2293 -0.7736  1.4828
38808SOL     OW26737   3.499   8.664   3.727 -0.0724 -0.0264 -0.2834
38808SOL    HW126738   3.450   8.699   3.802  2.4213  0.6773  1.1180
38808SOL    HW226739   3.492   8.569   3.737 -1.3404  0.0536 -0.2745
38809SOL     OW26740  10.211   5.340   2.584 -0.3056 -0.4223 -0.1587
38809SOL    HW126741  10.141   5.402   2.563  1.2194  1.5310  0.2463
38809SOL    HW226742  10.165   5.264   2.620 -2.1879  2.0578  3.3267
38810SOL     OW26743   8.589   6.458   7.929 -0.1299 -0.0949  0.1281
38810SOL    HW126744   8.529   6.470   8.002 -0.5889  0.2515 -0.3054
38810SOL    HW226745   8.656   6.399   7.964 -1.2682 -1.3386  0.2961
38811SOL     OW26746   2.415  11.000   5.426 -0.1505 -0.5145 -0.0405
38811SOL    HW126747   2.389  11.089   5.404 -3.1072 -0.9291  1.3238
38811SOL    HW226748   2.511  11.002   5.424 -0.1139  2.6504 -0.1341
38812SOL     OW26749  10.483  12.975   6.255 -0.2435 -0.6362  0.3022
38812SOL    HW126750  10.575  12.974   6.229 -0.2555 -1.4422  0.2866
38812SOL    HW226751  10.444  13.044   6.201  0.8311  1.4776  2.0436
38813SOL     OW26752   2.638  12.035   2.513  0.0875 -0.1376  0.0663
38813SOL    HW126753   2.667  12.086   2.437  2.8912  0.5047  1.4416
38813SOL    HW226754   2.587  12.096   2.566  2.2231  0.9297  0.9972
38814SOL     OW26755   3.840   2.536   0.272  0.1282 -0.7426 -0.5044
38814SOL    HW126756   3.772   2.470   0.283 -0.1018 -0.1282  2.7953
38814SOL    HW226757   3.793   2.616   0.251  0.0213 -0.7617 -0.3382
38815SOL     OW26758  12.478  11.630  10.804 -0.0536 -0.0859 -0.0375
38815SOL    HW126759  12.427  11.689  10.859  1.4244  1.6491 -0.4242
38815SOL    HW226760  12.426  11.549  10.800 -1.8346  0.9429  1.0477
38816SOL     OW26761  12.572   4.482   0.431 -0.0044 -0.0255 -0.1469
38816SOL    HW126762  12.647   4.478   0.491 -0.6437 -1.4741  0.6152
38816SOL    HW226763  12.548   4.390   0.418 -1.5016  0.4054 -0.5701
38817SOL     OW26764  10.285   8.792   4.802  0.4315 -0.3446  0.1508
38817SOL    HW126765  10.244   8.872   4.767  0.4377 -0.0572  0.7862
38817SOL    HW226766  10.379   8.806   4.790  0.3834 -0.8098 -0.8943
38818SOL     OW26767   7.128   2.394   5.681 -0.3265 -0.3517 -0.2005
38818SOL    HW126768   7.141   2.315   5.733 -0.6657  0.9709  2.0094
38818SOL    HW226769   7.215   2.416   5.649  0.4419  0.2471  2.0942
38819SOL     OW26770   1.131   1.610   1.996 -0.3201 -0.4091 -0.7366
38819SOL    HW126771   1.104   1.700   2.010 -0.0706 -0.2122 -1.4835
38819SOL    HW226772   1.207   1.598   2.054  0.2884  0.1853 -1.3883
38820SOL     OW26773   2.517   0.208   7.195  0.3092 -0.3141 -0.6262
38820SOL    HW126774   2.572   0.134   7.220  0.1741 -0.2894 -0.2438
38820SOL    HW226775   2.568   0.285   7.220  0.5004 -0.2758 -1.1335
38821SOL     OW26776   6.498   5.814   8.755 -0.4180 -0.0358 -0.4851
38821SOL    HW126777   6.513   5.900   8.794  0.3330  0.2923 -1.4657
38821SOL    HW226778   6.584   5.773   8.754 -0.7826 -0.8461  0.0464
38822SOL     OW26779   4.880   1.488  11.358  0.2280 -0.7767 -0.0704
38822SOL    HW126780   4.950   1.535  11.403  0.2807  0.2138 -1.1651
38822SOL    HW226781   4.920   1.405  11.332 -0.3436 -2.3267  3.4129
38823SOL     OW26782   9.126   4.712   8.747 -0.0097  0.3344 -0.4630
38823SOL    HW126783   9.148   4.621   8.726  0.6827  0.3537  0.1249
38823SOL    HW226784   9.135   4.718   8.842 -1.6415  0.6167 -0.2938
38824SOL     OW26785   8.013   2.755   1.095  0.1859  0.0035 -0.0206
38824SOL    HW126786   8.017   2.708   1.012 -1.9702 -1.7194  0.7178
38824SOL    HW226787   8.036   2.689   1.160 -0.0290  0.7837  0.8655
38825SOL     OW26788  11.338  12.909   2.303  0.6967 -0.1741  0.2068
38825SOL    HW126789  11.315  12.894   2.395  2.4997 -1.4129  0.5052
38825SOL    HW226790  11.322  13.002   2.290 -1.8434 -0.4033  1.0703
38826SOL     OW26791  12.053   0.614   4.488 -0.2816  0.3264  0.2145
38826SOL    HW126792  12.003   0.682   4.533 -0.5819  1.8551 -2.2556
38826SOL    HW226793  12.000   0.591   4.412  1.5547  0.1301 -1.0891
38827SOL     OW26794  10.263   8.934   9.748  0.0595 -0.0394  0.0541
38827SOL    HW126795  10.285   8.842   9.737  1.4525  0.4233 -1.4388
38827SOL    HW226796  10.329   8.968   9.808  0.8650  0.4021 -1.0347
38828SOL     OW26797   4.941   9.948  10.089  0.2587 -0.0537 -0.0010
38828SOL    HW126798   4.921   9.864  10.049  0.9137  0.0908 -0.6623
38828SOL    HW226799   4.896  10.012  10.034  1.5080  0.1774 -0.7791
38829SOL     OW26800   6.709  12.055  10.715  0.4773 -0.3670  0.1987
38829SOL    HW126801   6.760  11.974  10.709  0.4545 -0.3187 -1.0736
38829SOL    HW226802   6.622  12.030  10.682 -0.0215 -0.1977  1.3498
38830SOL     OW26803   1.633   3.935   6.316 -0.2366 -0.5919  0.1333
38830SOL    HW126804   1.593   3.850   6.332 -0.8396 -0.0992  1.3538
38830SOL    HW226805   1.646   3.973   6.403  0.6304  0.2899 -0.3616
38831SOL     OW26806   5.721  11.862  10.487  0.1617 -0.6777 -0.1004
38831SOL    HW126807   5.643  11.853  10.432 -0.7990 -0.2773  1.1478
38831SOL    HW226808   5.763  11.942  10.455  0.1412 -0.9567 -0.8594
38832SOL     OW26809  10.497   7.963   6.187  0.4416  0.0372 -0.2337
38832SOL    HW126810  10.456   8.049   6.179  0.1729 -0.1083 -0.4618
38832SOL    HW226811  10.586   7.975   6.154  0.6909  0.4325  0.5763
38833SOL     OW26812   0.424   4.944   1.840 -0.2560 -0.4436  0.1213
38833SOL    HW126813   0.439   4.958   1.933 -0.4351 -0.2123  0.1168
38833SOL    HW226814   0.340   4.987   1.823  0.7962  1.4051 -0.6047
38834SOL     OW26815   8.042   4.827   3.956 -0.1320  0.2467 -0.2143
38834SOL    HW126816   8.115   4.857   4.010 -0.0659  0.4015 -0.3865
38834SOL    HW226817   7.989   4.905   3.942 -1.0201 -0.1121  0.9535
38835SOL     OW26818   5.248  12.595   8.896  0.4265  0.3030 -0.4498
38835SOL    HW126819   5.155  12.579   8.909  0.6454  0.1314  1.1512
38835SOL    HW226820   5.282  12.512   8.862  0.5409 -0.8502  2.2309
38836SOL     OW26821   5.133   4.206   7.138  0.4114  0.0201  0.2973
38836SOL    HW126822   5.139   4.124   7.089  0.1472 -0.0656  0.4022
38836SOL    HW226823   5.209   4.206   7.195  0.4939 -0.0792  0.1889
38837SOL     OW26824  12.279   7.592   0.762  0.0040  0.4886 -0.3096
38837SOL    HW126825  12.278   7.537   0.840  0.9933  0.0518 -0.5821
38837SOL    HW226826  12.231   7.542   0.696 -0.1470  0.4973 -0.2048
38838SOL     OW26827   1.087  11.186   4.304 -0.6864 -0.1311  0.2098
38838SOL    HW126828   1.172  11.164   4.340  0.4330  2.5426 -0.5849
38838SOL    HW226829   1.039  11.224   4.377  0.1696  1.6790 -0.1163
38839SOL     OW26830   4.175   8.630   8.746 -0.2273  0.4304  0.5201
38839SOL    HW126831   4.095   8.675   8.771  0.5733  2.1275  0.1939
38839SOL    HW226832   4.148   8.541   8.726 -2.0164  0.9572  0.4461
38840SOL     OW26833   4.472   5.928   3.314 -0.2533  0.1025  0.7678
38840SOL    HW126834   4.547   5.980   3.344 -0.3908  1.0819 -0.5019
38840SOL    HW226835   4.411   5.929   3.388  0.1788  0.9175  1.1293
38841SOL     OW26836   5.069   0.012   5.471  0.3863  0.3613 -0.5779
38841SOL    HW126837   5.056  -0.040   5.392  0.1767  2.1924 -1.8229
38841SOL    HW226838   5.038  -0.044   5.542  1.0437 -1.5330 -1.7015
38842SOL     OW26839   9.644   0.040   0.698 -0.0707  0.2450 -0.1071
38842SOL    HW126840   9.690  -0.012   0.764 -0.1935  1.2943  0.8395
38842SOL    HW226841   9.713   0.068   0.638  0.0567 -0.6525 -0.3860
38843SOL     OW26842   4.972  11.595   5.987  0.2274  0.1970 -0.4731
38843SOL    HW126843   4.964  11.616   5.894  1.5638  0.6460 -0.5049
38843SOL    HW226844   5.060  11.560   5.997 -0.4949 -1.5319  0.3380
38844SOL     OW26845   9.582   1.507   0.668  0.0595  0.5242 -0.1244
38844SOL    HW126846   9.630   1.509   0.752  1.6970  2.1646 -1.0135
38844SOL    HW226847   9.588   1.416   0.640  3.3911  0.7171 -0.4956
38845SOL     OW26848   1.801   9.946  12.431  0.0933 -0.5819 -0.5222
38845SOL    HW126849   1.882   9.916  12.472 -0.4018  0.0711  1.0116
38845SOL    HW226850   1.829  10.010  12.366  0.8461 -0.9007 -0.5194
38846SOL     OW26851   5.269  11.629  10.408 -0.1752 -0.4500  0.3431
38846SOL    HW126852   5.305  11.605  10.493  0.9745 -0.6374 -0.1831
38846SOL    HW226853   5.292  11.721  10.398  1.5626 -0.9583 -0.6611
38847SOL     OW26854   0.265   1.867   4.446  0.3123  0.2345 -0.2385
38847SOL    HW126855   0.180   1.900   4.476  0.1484 -1.0434  0.8021
38847SOL    HW226856   0.247   1.829   4.360 -0.3555 -0.7207  0.3074
38848SOL     OW26857   2.560  11.646   3.082 -0.5799  0.2879 -0.0167
38848SOL    HW126858   2.518  11.618   3.002 -2.4410  1.2978  0.5363
38848SOL    HW226859   2.648  11.675   3.055 -1.6742  2.0681 -1.9882
38849SOL     OW26860   8.040   7.752   2.432 -0.2234 -0.3574 -0.4756
38849SOL    HW126861   7.955   7.715   2.456 -0.7443  0.1201 -1.4897
38849SOL    HW226862   8.064   7.807   2.506 -2.7680  2.7529 -1.6992
38850SOL     OW26863  12.911  12.251   4.192 -0.7063  0.7792 -0.4813
38850SOL    HW126864  12.890  12.255   4.099  1.7161  0.9623 -1.0848
38850SOL    HW226865  12.990  12.197   4.197  0.3729  2.3898  1.2178
38851SOL     OW26866   7.574  11.437   4.116 -0.2593 -0.2481 -0.1865
38851SOL    HW126867   7.515  11.362   4.106 -2.5601  0.6607  4.1171
38851SOL    HW226868   7.518  11.513   4.101  0.9512  0.6644 -0.2595
38852SOL     OW26869   7.059   8.435   2.352 -0.5406  0.0974 -0.3931
38852SOL    HW126870   7.115   8.400   2.422 -0.4314  0.9646 -0.0274
38852SOL    HW226871   6.970   8.433   2.389 -0.2669  2.3254  0.5566
38853SOL     OW26872   3.521   4.798   9.452  0.8110 -0.5163  0.0456
38853SOL    HW126873   3.460   4.872   9.445  0.7831 -0.5343  0.1020
38853SOL    HW226874   3.597   4.835   9.497  1.7921  0.1073 -2.0037
38854SOL     OW26875   3.492  11.752   7.647 -0.1368 -0.2990  0.6429
38854SOL    HW126876   3.500  11.753   7.551  1.9329 -0.8278  0.7608
38854SOL    HW226877   3.486  11.845   7.671  0.1587 -0.1126  0.0370
38855SOL     OW26878   3.010   9.075   2.372  0.2229 -0.0617 -0.3991
38855SOL    HW126879   3.079   9.125   2.414  0.6288 -0.1441 -0.9532
38855SOL    HW226880   3.042   9.060   2.283 -0.1561 -0.7749 -0.4272
38856SOL     OW26881   6.218   1.429  11.609  0.4564  0.0253  0.0205
38856SOL    HW126882   6.261   1.377  11.677  1.1130 -0.9916 -1.1304
38856SOL    HW226883   6.288   1.455  11.550  0.0360  1.6971  0.1871
38857SOL     OW26884   7.541  10.189  12.122 -0.8238 -0.0979 -0.1416
38857SOL    HW126885   7.450  10.185  12.151 -0.9791  0.0058 -0.5999
38857SOL    HW226886   7.572  10.098  12.127 -2.1133 -0.8967 -3.5751
38858SOL     OW26887   5.686   9.581   6.259 -0.6130  0.3018  0.1313
38858SOL    HW126888   5.610   9.621   6.217 -0.2977  0.1549 -0.5998
38858SOL    HW226889   5.731   9.654   6.302 -0.0693  0.7582 -1.1561
38859SOL     OW26890   8.360   0.399   2.128 -0.2620 -0.4382 -0.0293
38859SOL    HW126891   8.310   0.336   2.179  0.4598 -0.5232  0.5936
38859SOL    HW226892   8.394   0.349   2.053 -1.6802 -0.2123 -0.8533
38860SOL     OW26893   3.086   6.778   2.059 -0.0634 -0.6248 -0.6155
38860SOL    HW126894   3.172   6.780   2.101 -1.0829  0.8359  1.5749
38860SOL    HW226895   3.092   6.841   1.987  0.4834  0.0399  0.0069
38861SOL     OW26896  10.406  10.951  11.113  0.0527  0.5471  0.3524
38861SOL    HW126897  10.390  10.861  11.140 -0.3542  0.7744  0.8746
38861SOL    HW226898  10.409  10.947  11.017 -1.2523  0.1893  0.3162
38862SOL     OW26899   8.655   6.608   2.577  0.4827 -0.3841 -0.3990
38862SOL    HW126900   8.733   6.661   2.592  1.1117 -1.4599  0.2904
38862SOL    HW226901   8.658   6.541   2.646 -1.1178 -0.3754 -0.2864
38863SOL     OW26902   7.138  12.685   7.421 -0.6016  0.6145 -0.9224
38863SOL    HW126903   7.096  12.673   7.336 -0.4142 -0.6299 -0.8681
38863SOL    HW226904   7.187  12.604   7.434 -0.8175  0.6901  0.4718
38864SOL     OW26905  10.895   6.442   2.488  0.5365  0.0329 -0.0125
38864SOL    HW126906  10.896   6.416   2.395 -1.5206 -0.9290  0.1884
38864SOL    HW226907  10.877   6.361   2.535 -0.5868  0.8790  1.0648
38865SOL     OW26908   3.061   4.172   9.293 -0.0001  0.1422 -0.1148
38865SOL    HW126909   3.149   4.203   9.314  0.0528  0.1019 -0.2766
38865SOL    HW226910   3.056   4.176   9.197 -0.7322  1.6822 -0.0465
38866SOL     OW26911   8.027   3.019   8.007 -0.1633  0.2529 -0.4288
38866SOL    HW126912   8.006   3.096   8.061 -0.9884 -0.5426  0.4365
38866SOL    HW226913   8.122   3.010   8.015 -0.3728 -0.5752  1.9838
38867SOL     OW26914   9.940   8.537  12.242  0.1453 -0.0107  0.1015
38867SOL    HW126915  10.020   8.527  12.292  0.6275  1.9947 -0.1944
38867SOL    HW226916   9.965   8.518  12.152  0.1753  0.1575  0.0741
38868SOL     OW26917   4.934  11.276   1.727 -0.1702 -0.0821 -0.4363
38868SOL    HW126918   4.987  11.268   1.806 -1.7707 -0.6849  0.6435
38868SOL    HW226919   4.877  11.351   1.743 -0.9275 -0.5776 -0.7513
38869SOL     OW26920   1.922   6.811   8.405 -0.6022  0.2286 -0.3381
38869SOL    HW126921   1.960   6.737   8.452 -0.5103 -1.1956 -2.5357
38869SOL    HW226922   1.893   6.871   8.474  5.1190  1.3238  1.6807
38870SOL     OW26923   4.657  11.205   2.648 -0.7680  0.1373  0.1429
38870SOL    HW126924   4.679  11.248   2.731  0.2105 -1.3937  0.7250
38870SOL    HW226925   4.656  11.276   2.584  0.2776  1.1034  1.1420
38871SOL     OW26926   0.723   6.899   9.764  0.2455 -0.0690  0.0138
38871SOL    HW126927   0.695   6.981   9.804 -0.7466 -0.7041  0.6459
38871SOL    HW226928   0.642   6.850   9.751  0.7170 -0.5620 -1.2691
38872SOL     OW26929   5.908   3.941   4.270  0.1223 -0.1325 -0.5324
38872SOL    HW126930   5.991   3.983   4.289  0.3924 -1.1485  0.7089
38872SOL    HW226931   5.878   3.981   4.188  1.7620  0.3307 -0.9371
38873SOL     OW26932  10.795   2.806   5.595  0.5624 -0.1655 -0.0228
38873SOL    HW126933  10.883   2.808   5.556  0.7984  0.0146  0.5127
38873SOL    HW226934  10.736   2.805   5.520  1.0338 -1.8254 -0.4166
38874SOL     OW26935   3.976  12.738   1.253  0.2482 -0.1620  0.3446
38874SOL    HW126936   3.932  12.762   1.172 -0.8782  0.3743  1.0879
38874SOL    HW226937   4.055  12.691   1.225  0.3927  0.8581 -1.0622
38875SOL     OW26938   0.058   0.690  10.617 -0.6120  0.2558  0.0551
38875SOL    HW126939   0.131   0.648  10.573 -2.9679 -0.9350 -3.0774
38875SOL    HW226940   0.092   0.775  10.645  2.0557 -0.4304 -0.8841
38876SOL     OW26941   3.691   2.508   7.760 -0.0963 -0.4588 -0.3266
38876SOL    HW126942   3.750   2.497   7.834 -1.0909 -0.1760  0.5231
38876SOL    HW226943   3.727   2.450   7.692  0.5723 -1.0591  0.5166
38877SOL     OW26944   4.902   2.333   9.510 -0.3236 -0.2748 -0.0845
38877SOL    HW126945   4.838   2.327   9.439  0.3619  0.5886 -0.8053
38877SOL    HW226946   4.862   2.394   9.573 -0.2158  0.2903 -0.5488
38878SOL     OW26947   3.487  10.112   5.442 -0.5715 -0.2134  0.8238
38878SOL    HW126948   3.535  10.037   5.478  0.0782  0.5005  1.4667
38878SOL    HW226949   3.547  10.186   5.451 -0.1990 -0.0498 -2.1599
38879SOL     OW26950  10.807  11.200   2.699 -0.5694 -0.8308 -0.8932
38879SOL    HW126951  10.714  11.179   2.689 -0.6767  0.2344 -2.5250
38879SOL    HW226952  10.833  11.235   2.614  0.2971  2.6331  0.6047
38880SOL     OW26953   3.434   4.382   9.488  0.2748 -0.1423  0.0137
38880SOL    HW126954   3.351   4.429   9.481  0.5088  0.1199 -1.2355
38880SOL    HW226955   3.492   4.443   9.533  0.0629  0.0455  0.0339
38881SOL     OW26956   2.711   0.305  12.575 -0.2978  0.0899 -0.3607
38881SOL    HW126957   2.765   0.382  12.594  0.9851 -0.6602 -0.8502
38881SOL    HW226958   2.724   0.247  12.650 -0.0744 -0.2867 -0.6890
38882SOL     OW26959   9.428   3.724   0.669  0.1503  0.0160  0.2236
38882SOL    HW126960   9.515   3.711   0.632 -0.2395 -2.4484  0.0349
38882SOL    HW226961   9.438   3.710   0.763 -0.3292 -2.4276 -0.0176
38883SOL     OW26962   8.156   8.818   0.366  0.0832 -0.0090 -0.2594
38883SOL    HW126963   8.149   8.726   0.391  0.0356 -0.0289 -0.3431
38883SOL    HW226964   8.132   8.867   0.444 -0.2841 -0.0691 -0.3332
38884SOL     OW26965   2.932   9.095   0.030 -0.2536  0.4002 -0.2345
38884SOL    HW126966   2.898   9.162   0.089  0.0109  0.8548 -0.5931
38884SOL    HW226967   2.903   9.123  -0.057  0.7616  0.6377 -0.5130
38885SOL     OW26968  10.271  12.285   1.819  0.2691  0.0262 -0.0707
38885SOL    HW126969  10.366  12.295   1.812  0.3913 -0.8539  0.1687
38885SOL    HW226970  10.257  12.190   1.818 -0.3255 -0.0255  3.2341
38886SOL     OW26971   2.619   9.391   1.864  0.3360 -0.0061 -0.5192
38886SOL    HW126972   2.604   9.384   1.770 -2.2304  0.2962 -0.2104
38886SOL    HW226973   2.544   9.346   1.903  1.6170 -0.5790  1.3972
38887SOL     OW26974   8.354  11.266   6.392  0.0572  0.4097  0.5039
38887SOL    HW126975   8.367  11.241   6.483  1.9934  2.4422  0.8973
38887SOL    HW226976   8.441  11.258   6.352 -0.6101  0.2059 -1.0009
38888SOL     OW26977   9.034   2.420   1.750 -0.4920  0.0452  0.0601
38888SOL    HW126978   9.057   2.490   1.811 -1.6885 -0.7040  1.4553
38888SOL    HW226979   8.949   2.446   1.714 -1.7890 -1.3858  1.8753
38889SOL     OW26980   1.290  11.970   8.004  0.2577  0.3313  0.2025
38889SOL    HW126981   1.241  12.019   7.938 -0.5758 -0.4366  0.2268
38889SOL    HW226982   1.336  12.037   8.055  0.3444  0.9753 -0.7045
38890SOL     OW26983   9.340   4.366   6.066  0.5466 -0.0416  0.3461
38890SOL    HW126984   9.392   4.314   6.127 -0.0624  1.2560  2.0573
38890SOL    HW226985   9.313   4.442   6.117  0.5695  1.4561 -1.7664
38891SOL     OW26986   0.278  10.074   1.985  0.3469 -0.8097  0.3200
38891SOL    HW126987   0.330  10.106   2.059  1.1100  0.0415 -0.5562
38891SOL    HW226988   0.342  10.064   1.914 -0.7268  0.7232 -0.9295
38892SOL     OW26989  12.434  11.626  12.935  0.4495 -0.7478  0.1484
38892SOL    HW126990  12.383  11.545  12.931  0.2206 -0.5761 -0.4643
38892SOL    HW226991  12.446  11.642  13.029 -0.8616 -0.6402  0.3168
38893SOL     OW26992   7.981  11.150   7.117  0.8223 -0.0282  0.3943
38893SOL    HW126993   7.909  11.141   7.180 -0.0628 -0.2020 -0.6039
38893SOL    HW226994   7.939  11.185   7.039  1.6906 -0.9252 -0.4939
38894SOL     OW26995   3.618   0.101   8.330  0.0426  0.1597 -0.0011
38894SOL    HW126996   3.677   0.037   8.290 -0.2357 -0.7544  1.0088
38894SOL    HW226997   3.670   0.181   8.336  0.7056 -0.2264 -0.4368
38895SOL     OW26998   3.689   4.129   3.022 -0.5586 -0.1217 -0.4970
38895SOL    HW126999   3.600   4.097   3.035 -0.2795 -0.5879  0.3344
38895SOL    HW227000   3.744   4.068   3.072  0.3253 -0.4098 -1.7651
38896SOL     OW27001   3.261   7.726  10.676 -0.3072  0.2073  0.3666
38896SOL    HW127002   3.286   7.658  10.738  0.7031 -0.4810 -0.7478
38896SOL    HW227003   3.166   7.714  10.664 -0.5919  0.5713  1.9767
38897SOL     OW27004   8.314   1.323   4.390 -0.1354 -0.4261  0.3004
38897SOL    HW127005   8.325   1.319   4.485 -1.5160 -1.7877  0.4499
38897SOL    HW227006   8.258   1.399   4.375 -0.4560 -0.5899  0.6514
38898SOL     OW27007   6.058   0.575   4.472 -0.2315  0.2431  0.2842
38898SOL    HW127008   6.035   0.488   4.503 -1.5530  0.6042  0.3666
38898SOL    HW227009   5.989   0.598   4.410  1.5512  0.1230 -1.9055
38899SOL     OW27010   9.116  11.053   5.264 -0.2888 -0.1993  0.3626
38899SOL    HW127011   9.148  11.013   5.183 -0.9071 -1.4535  0.7137
38899SOL    HW227012   9.118  10.982   5.329 -2.1847  0.0976  0.8127
38900SOL     OW27013   0.474  11.707   6.045  0.0518 -0.2276  0.0513
38900SOL    HW127014   0.541  11.693   6.112  0.5598 -0.4298 -0.4917
38900SOL    HW227015   0.395  11.669   6.083  0.9587 -2.9772 -0.6056
38901SOL     OW27016   7.827   3.693   8.646  0.3122 -0.2156 -0.0426
38901SOL    HW127017   7.856   3.635   8.716  1.3575  0.3631  0.0141
38901SOL    HW227018   7.754   3.646   8.605  0.5899 -1.1811  0.5426
38902SOL     OW27019   2.495   0.788   8.174 -0.3295  0.4651  0.1795
38902SOL    HW127020   2.437   0.858   8.141 -1.0873  0.6435  1.8108
38902SOL    HW227021   2.437   0.712   8.182  0.7720 -0.8750 -2.9329
38903SOL     OW27022   4.609  10.630   7.230  0.0106  0.2050  0.3746
38903SOL    HW127023   4.631  10.666   7.144  0.2051  0.2050  0.4218
38903SOL    HW227024   4.637  10.539   7.227 -1.8511 -0.3860 -0.2529
38904SOL     OW27025   6.126   9.862  12.681 -0.5775 -0.2262  0.0390
38904SOL    HW127026   6.217   9.834  12.677 -0.4923  0.1091 -0.5077
38904SOL    HW227027   6.117   9.901  12.768  0.3991  1.6559 -0.6268
38905SOL     OW27028   6.543   8.066   0.807  0.0396 -0.4830 -0.4467
38905SOL    HW127029   6.450   8.045   0.799 -0.2652  1.2520 -2.5106
38905SOL    HW227030   6.587   8.002   0.752 -0.0033 -0.8004 -0.1169
38906SOL     OW27031  10.029   7.733   8.718 -0.7779  0.1647  0.3152
38906SOL    HW127032  10.032   7.772   8.631 -1.2685  0.1785  0.3019
38906SOL    HW227033  10.072   7.647   8.708  0.4570  0.7508  0.3831
38907SOL     OW27034  11.590   1.589   4.752  0.3963  0.1950  0.2196
38907SOL    HW127035  11.497   1.577   4.771  0.4588  2.2113  2.1949
38907SOL    HW227036  11.592   1.645   4.675 -0.0072 -0.1907 -0.0772
38908SOL     OW27037   6.573  12.096   0.058  0.3230  0.0869  0.1922
38908SOL    HW127038   6.507  12.059  -0.002  0.7271 -1.0870  0.4588
38908SOL    HW227039   6.554  12.190   0.058 -1.9118 -0.3064  0.9221
38909SOL     OW27040   4.481   3.060   1.870 -0.2363  0.1846 -0.0583
38909SOL    HW127041   4.528   3.128   1.917 -0.8146  1.1627 -0.8492
38909SOL    HW227042   4.483   3.088   1.778 -0.2548 -1.0033 -0.4360
38910SOL     OW27043   5.032   2.165   5.233  0.0386 -0.3487  0.1505
38910SOL    HW127044   5.011   2.151   5.325 -1.3796  0.6976  0.0178
38910SOL    HW227045   5.053   2.259   5.227  1.7816 -0.7195 -0.3213
38911SOL     OW27046  10.785   9.568   1.793  0.0299 -0.0814  0.3392
38911SOL    HW127047  10.756   9.520   1.871 -1.1585 -2.2937 -1.3505
38911SOL    HW227048  10.859   9.517   1.760 -0.8618 -0.4655 -1.1498
38912SOL     OW27049  11.072   4.351  12.689 -0.0532  0.3053 -0.1901
38912SOL    HW127050  11.026   4.270  12.665  0.8641 -0.4071  0.3742
38912SOL    HW227051  11.020   4.387  12.761 -0.2048 -0.0405 -0.1215
38913SOL     OW27052   5.329  10.928   0.993  0.2658  0.1474 -0.1027
38913SOL    HW127053   5.274  11.002   1.018  0.2472 -0.3763  1.4989
38913SOL    HW227054   5.350  10.944   0.901 -0.7476  1.4912 -0.1295
38914SOL     OW27055   7.228   4.782   6.391 -0.0191 -0.1387  0.0773
38914SOL    HW127056   7.295   4.772   6.458  0.2421  2.5412  0.3333
38914SOL    HW227057   7.175   4.856   6.421 -0.8441  0.1282 -1.8882
38915SOL     OW27058   0.302   8.915   9.391  0.1708  0.6848 -0.7577
38915SOL    HW127059   0.305   8.898   9.486 -2.2991 -0.7928 -0.8555
38915SOL    HW227060   0.257   8.839   9.355  1.6627  0.8836 -3.2615
38916SOL     OW27061   9.393  11.477   0.710  0.2874 -0.2629  0.6443
38916SOL    HW127062   9.308  11.464   0.666  1.1230 -2.1792 -0.5090
38916SOL    HW227063   9.445  11.525   0.645  0.7273 -0.8893  0.5314
38917SOL     OW27064   5.391   1.530  10.485  0.2571  0.0166 -0.3521
38917SOL    HW127065   5.478   1.566  10.469  0.3128  0.3105  0.5476
38917SOL    HW227066   5.405   1.459  10.548  0.1590 -1.7266 -2.2023
38918SOL     OW27067   1.846  12.869   0.855 -0.1778 -0.5772  0.5626
38918SOL    HW127068   1.816  12.869   0.946 -0.9418  0.4949  0.3345
38918SOL    HW227069   1.779  12.818   0.808 -1.6659  1.6644  0.0834
38919SOL     OW27070  11.057   2.793   4.756  0.3824  0.6359  0.7658
38919SOL    HW127071  11.014   2.813   4.673  0.6694  0.7008  0.6286
38919SOL    HW227072  11.137   2.746   4.731  0.2680  0.2975  1.0277
38920SOL     OW27073   2.423   2.997   8.126  0.0175  0.0889 -0.4239
38920SOL    HW127074   2.329   3.017   8.118  0.2229  1.2099 -0.0808
38920SOL    HW227075   2.467   3.081   8.110  0.9986 -0.5458 -1.1924
38921SOL     OW27076  12.923   6.068   9.694  0.1129 -0.4038  0.2635
38921SOL    HW127077  12.846   6.013   9.685 -0.1700  0.1501 -0.8727
38921SOL    HW227078  12.979   6.021   9.755 -0.9611 -0.9902  0.8252
38922SOL     OW27079  11.480   0.693   7.938  0.4478  0.1106  0.0172
38922SOL    HW127080  11.392   0.660   7.923 -0.0801  1.3902  0.1989
38922SOL    HW227081  11.480   0.719   8.031  1.7988 -2.1398  0.7296
38923SOL     OW27082  11.385   7.314   5.354  0.3752  0.2236  0.1739
38923SOL    HW127083  11.420   7.365   5.428  1.7474  1.7420 -1.4145
38923SOL    HW227084  11.450   7.246   5.340  0.0825 -0.1029  0.4018
38924SOL     OW27085   0.176   4.355  12.607  0.5555  0.0867  0.2736
38924SOL    HW127086   0.120   4.334  12.532  0.1800 -1.4485  0.9580
38924SOL    HW227087   0.158   4.447  12.625 -0.5589  0.0400 -0.5081
38925SOL     OW27088   3.317   8.507   8.506  0.1550 -0.5640 -0.3418
38925SOL    HW127089   3.395   8.557   8.483  0.0248  0.1209  0.6157
38925SOL    HW227090   3.337   8.417   8.480  0.8399 -0.2086 -1.0683
38926SOL     OW27091   2.582   3.596   5.253 -0.2849  0.0075  0.1270
38926SOL    HW127092   2.529   3.638   5.185  2.1631 -1.1479 -2.7226
38926SOL    HW227093   2.523   3.534   5.296 -1.2617 -1.6323 -3.2784
38927SOL     OW27094  11.297  10.983   4.012  0.3396  0.4998  0.0278
38927SOL    HW127095  11.209  11.021   4.001  0.4812  0.4089 -1.5692
38927SOL    HW227096  11.350  11.026   3.946  1.0686 -0.7877 -0.2519
38928SOL     OW27097   0.308   9.659   1.783  0.0999  0.2433 -0.1907
38928SOL    HW127098   0.372   9.610   1.731  0.6690  0.5980  0.1542
38928SOL    HW227099   0.268   9.720   1.721  1.7090  1.5857  0.0018
38929SOL     OW27100   0.972   9.069   3.377 -0.3288  0.1873 -0.3623
38929SOL    HW127101   0.890   9.023   3.356 -1.0656  1.1031  0.3859
38929SOL    HW227102   0.947   9.162   3.380  0.5690  0.4183  0.6031
38930SOL     OW27103   4.120   4.346  11.953 -0.5491  0.1425  0.3263
38930SOL    HW127104   4.157   4.275  11.901 -1.1435  0.8258 -1.0884
38930SOL    HW227105   4.030   4.353  11.922 -0.7274  1.0063  1.0127
38931SOL     OW27106   1.974   7.840   8.212  0.2460 -0.0359  0.1635
38931SOL    HW127107   2.057   7.872   8.175  1.0642  0.4064  2.2559
38931SOL    HW227108   1.956   7.759   8.164  1.1048  0.6323 -1.3423
38932SOL     OW27109  11.367   8.180   9.257 -0.0764 -0.2869  0.4337
38932SOL    HW127110  11.413   8.259   9.284 -1.1318 -0.1168  1.8942
38932SOL    HW227111  11.410   8.110   9.305  0.9645 -0.6638 -0.9848
38933SOL     OW27112   5.685   3.186   5.745  0.4580 -0.2187 -0.0566
38933SOL    HW127113   5.673   3.199   5.840  1.3582 -1.2040  0.2067
38933SOL    HW227114   5.770   3.224   5.726  0.2197  0.0971 -0.5053
38934SOL     OW27115   5.619   9.861   3.383  0.2476 -0.2640 -0.5298
38934SOL    HW127116   5.684   9.924   3.413  0.2856 -1.5274  2.3685
38934SOL    HW227117   5.666   9.805   3.321  0.9513  0.8578 -1.0291
38935SOL     OW27118   8.953  12.767   6.555 -0.2287 -0.1675 -0.2064
38935SOL    HW127119   8.945  12.722   6.640 -0.2249  0.5010  0.1579
38935SOL    HW227120   8.875  12.741   6.507 -0.5157 -0.1198  0.2200
38936SOL     OW27121   3.217   6.888   8.173 -0.3760 -0.7318  0.1171
38936SOL    HW127122   3.175   6.971   8.196 -0.8550 -0.8753 -0.2233
38936SOL    HW227123   3.279   6.910   8.103  0.7232 -0.3799  1.1741
38937SOL     OW27124  12.981   6.188   6.479 -0.5527 -0.3533 -0.8496
38937SOL    HW127125  12.925   6.264   6.464 -0.2217  0.2393  0.7987
38937SOL    HW227126  13.070   6.221   6.462 -0.5267 -0.8459 -1.7766
38938SOL     OW27127   6.003  12.445   8.121  0.6668 -0.3405  0.3131
38938SOL    HW127128   6.037  12.447   8.032 -1.6366  0.0446 -0.6340
38938SOL    HW227129   6.008  12.353   8.147  0.9935 -0.5181 -0.3602
38939SOL     OW27130   4.819   1.406   3.921 -0.6749 -0.5147 -0.3076
38939SOL    HW127131   4.806   1.496   3.891  1.1760  0.2985  1.1582
38939SOL    HW227132   4.892   1.374   3.870  0.1428 -0.3693  0.7404
38940SOL     OW27133   4.070   9.359   2.006 -0.6032  0.0537 -0.6453
38940SOL    HW127134   4.092   9.418   2.078 -1.5566 -0.3605  0.0039
38940SOL    HW227135   4.073   9.415   1.928 -0.3791  0.7007 -0.1862
38941SOL     OW27136   9.750  11.292   2.290  0.5260  0.3532  0.0669
38941SOL    HW127137   9.667  11.245   2.279  0.4426  0.7949 -1.2769
38941SOL    HW227138   9.805  11.230   2.337 -0.3366 -0.2081  0.3754
38942SOL     OW27139   9.020  11.971   9.647  0.4047  0.2659  0.3456
38942SOL    HW127140   8.925  11.982   9.651  0.2848 -0.2630 -0.6971
38942SOL    HW227141   9.034  11.911   9.573  1.5495  0.3602  0.4696
38943SOL     OW27142   4.041  10.088   5.272  0.0280 -0.3714  0.6422
38943SOL    HW127143   4.023  10.094   5.179 -0.2971  2.2982  0.7966
38943SOL    HW227144   4.110  10.153   5.288  0.3356 -1.0203  2.2003
38944SOL     OW27145   6.744   1.865   0.526  0.2426  0.0026 -0.3141
38944SOL    HW127146   6.758   1.776   0.558  1.7541 -0.6479 -2.5708
38944SOL    HW227147   6.776   1.921   0.597  1.1352 -1.2933  0.3502
38945SOL     OW27148   9.804   4.018   7.325 -0.0388  0.5349  0.1297
38945SOL    HW127149   9.759   3.963   7.260  0.0594 -0.9010  1.2146
38945SOL    HW227150   9.744   4.091   7.340 -1.4837 -0.6597  0.5798
38946SOL     OW27151   5.446   3.910   3.786 -0.1466  0.2924  0.3306
38946SOL    HW127152   5.480   3.831   3.828  1.3383  1.2460  0.9968
38946SOL    HW227153   5.503   3.923   3.710 -0.2281  0.8559  0.3610
38947SOL     OW27154   4.900   4.223   2.516 -0.0234 -0.3331  0.7005
38947SOL    HW127155   4.950   4.297   2.549  0.3705 -0.2190 -0.1445
38947SOL    HW227156   4.948   4.146   2.548  0.9565 -0.2288 -0.4666
38948SOL     OW27157   0.950   5.052   6.197 -0.7240 -0.0507 -0.4653
38948SOL    HW127158   0.982   4.987   6.259  0.6009 -0.0122 -1.0759
38948SOL    HW227159   0.935   5.130   6.251  1.5118  0.3432 -0.3224
38949SOL     OW27160   1.217   9.867   8.459  0.1104 -0.0063 -0.4000
38949SOL    HW127161   1.192   9.804   8.527  0.5842  2.2363  2.0366
38949SOL    HW227162   1.271   9.817   8.399 -0.4477 -2.1693  0.7917
38950SOL     OW27163   1.045  11.863   0.841  0.2202 -0.1167 -0.8917
38950SOL    HW127164   1.027  11.800   0.771 -0.2760 -0.0719 -0.8122
38950SOL    HW227165   0.966  11.917   0.844  0.2846 -0.0504 -0.3674
38951SOL     OW27166  10.573  11.687   9.130 -0.9763 -0.1299 -0.8876
38951SOL    HW127167  10.536  11.775   9.128 -0.7760 -0.0538 -2.3241
38951SOL    HW227168  10.628  11.682   9.051 -0.4912 -1.3247 -0.5007
38952SOL     OW27169   2.926   1.962   0.063 -0.3133  0.1610 -0.4390
38952SOL    HW127170   2.854   1.902   0.085 -0.1550 -0.3845 -1.3595
38952SOL    HW227171   2.899   2.045   0.101  0.9324 -1.1085  3.7385
38953SOL     OW27172   5.381   8.055   2.313 -0.1453  0.4574 -0.1950
38953SOL    HW127173   5.292   8.066   2.347  0.0165 -0.2187  0.4597
38953SOL    HW227174   5.408   8.144   2.290 -0.8891  0.7055 -0.1532
38954SOL     OW27175   9.716   9.330   4.965  0.1539  0.0990 -0.5386
38954SOL    HW127176   9.770   9.286   5.031 -0.7029  0.1247  0.2077
38954SOL    HW227177   9.770   9.404   4.935  0.0012  0.9794  1.2324
38955SOL     OW27178   0.749   0.792  11.155  0.5835  0.3681  0.4529
38955SOL    HW127179   0.770   0.711  11.202  1.5366 -0.3757 -1.1649
38955SOL    HW227180   0.796   0.860  11.203 -0.2786  0.0027  1.8688
38956SOL     OW27181   3.396   9.245   5.622 -0.3442  0.2694 -0.3001
38956SOL    HW127182   3.417   9.283   5.537 -1.5142 -0.5791 -0.9957
38956SOL    HW227183   3.456   9.170   5.630 -0.9005 -0.2401 -0.8328
38957SOL     OW27184  11.875   2.238   9.996  0.0036  0.0967 -0.0971
38957SOL    HW127185  11.947   2.274  10.048 -1.2819  0.4081  1.5577
38957SOL    HW227186  11.895   2.264   9.906  2.3236 -0.4741  0.1731
38958SOL     OW27187   8.323   9.641   9.185  0.7141 -0.0382  0.0403
38958SOL    HW127188   8.384   9.580   9.226  0.9922  1.3974  1.9114
38958SOL    HW227189   8.337   9.723   9.232 -2.2089  0.5182  0.1350
38959SOL     OW27190   4.418  12.864  12.028  0.2464  0.6251 -0.2449
38959SOL    HW127191   4.495  12.821  11.991 -1.9455 -2.7105 -1.4642
38959SOL    HW227192   4.425  12.850  12.122 -0.3249 -2.6843 -0.5744
38960SOL     OW27193   6.211  10.026   2.213  0.3293  0.2347  0.0390
38960SOL    HW127194   6.244  10.023   2.124  1.2328 -1.4639  0.3839
38960SOL    HW227195   6.117  10.008   2.205  0.5944 -1.0081 -0.5054
38961SOL     OW27196   1.849   8.166   1.709 -0.2620 -0.4826 -0.0070
38961SOL    HW127197   1.901   8.235   1.750  1.6602 -0.5124 -2.1919
38961SOL    HW227198   1.787   8.212   1.653 -0.9037 -0.5087  0.6627
38962SOL     OW27199   9.728   9.917   8.489 -0.4508 -0.3790 -0.6179
38962SOL    HW127200   9.670   9.911   8.413  0.0224 -0.1510 -0.9976
38962SOL    HW227201   9.750   9.826   8.509  0.2892 -0.3822 -1.4195
38963SOL     OW27202   4.820  11.980   8.114 -0.0424 -0.7867 -0.5311
38963SOL    HW127203   4.885  11.943   8.174  0.5628  1.2494  0.1466
38963SOL    HW227204   4.739  11.933   8.135  0.6409 -1.6198  0.3581
38964SOL     OW27205   2.092   8.961   2.243 -0.0238 -0.1990 -0.3904
38964SOL    HW127206   2.018   8.970   2.183 -0.3389  0.2131  0.0551
38964SOL    HW227207   2.107   8.866   2.247 -0.9421 -0.3407  0.0041
38965SOL     OW27208   5.543   1.901   3.055  0.3732  0.1755  0.1363
38965SOL    HW127209   5.515   1.838   2.988 -0.0287  1.6176 -1.1047
38965SOL    HW227210   5.568   1.847   3.129  1.5791 -1.5417 -1.4253
38966SOL     OW27211  10.389   2.808   7.774  0.5207  0.7890  0.5831
38966SOL    HW127212  10.318   2.805   7.710  0.1476  0.1330  1.0114
38966SOL    HW227213  10.350   2.848   7.852  0.0353 -1.2674  1.4792
38967SOL     OW27214   2.922   1.521   0.697  0.5360 -0.3700  0.6509
38967SOL    HW127215   2.944   1.523   0.791  0.7579  1.0060  0.5880
38967SOL    HW227216   2.827   1.509   0.696  0.3575  0.8019  1.1070
38968SOL     OW27217  12.094   7.529   6.754  0.4216 -0.2894  0.5186
38968SOL    HW127218  12.042   7.550   6.832  1.2448 -1.6639  1.4831
38968SOL    HW227219  12.040   7.558   6.681 -0.3958  1.0195  1.5769
38969SOL     OW27220   3.887   2.367   2.036 -0.0022 -0.0705 -0.2297
38969SOL    HW127221   3.926   2.439   2.086  0.5781  0.1220 -0.9531
38969SOL    HW227222   3.916   2.288   2.083 -1.7981  0.1749  1.4033
38970SOL     OW27223   5.989   0.334  10.646 -0.1422  0.2005 -0.2465
38970SOL    HW127224   6.077   0.336  10.684 -0.3662 -0.2155  0.2978
38970SOL    HW227225   6.003   0.359  10.554  0.6490 -0.6115 -0.3663
38971SOL     OW27226   2.036  10.945   6.672  0.1745  0.4063  0.0653
38971SOL    HW127227   2.001  10.990   6.748  1.1215 -0.0434  0.7898
38971SOL    HW227228   1.964  10.943   6.609 -0.1818  2.0429  0.3893
38972SOL     OW27229   9.971   6.451   0.655 -0.8673  0.0001  0.7274
38972SOL    HW127230   9.935   6.536   0.627 -0.0952  0.4193  0.9873
38972SOL    HW227231   9.997   6.409   0.573 -0.1167  0.5428  0.6722
38973SOL     OW27232   8.336   6.866   8.306  0.1627 -0.4687  0.7478
38973SOL    HW127233   8.271   6.903   8.246  0.0425 -1.3756  0.2948
38973SOL    HW227234   8.402   6.826   8.248 -0.1514 -1.7028  1.1978
38974SOL     OW27235   0.698   5.505   5.090 -0.0395 -0.1083 -0.8522
38974SOL    HW127236   0.752   5.509   5.169 -1.9206  1.6222  0.4668
38974SOL    HW227237   0.696   5.596   5.060 -1.2862 -0.3447 -1.5043
38975SOL     OW27238   9.588  11.603   0.542 -0.2195 -0.0382 -1.0529
38975SOL    HW127239   9.638  11.543   0.486  0.3520 -0.5658 -0.0127
38975SOL    HW227240   9.612  11.690   0.512  1.1394 -0.2938 -0.7590
38976SOL     OW27241   2.242   0.517   1.510 -0.0206 -0.0952  0.7896
38976SOL    HW127242   2.312   0.455   1.530 -0.7128 -1.1530 -0.0119
38976SOL    HW227243   2.256   0.541   1.419 -1.6559 -1.6129  0.0974
38977SOL     OW27244   0.195   0.392   8.625 -0.6005  0.4283  0.3036
38977SOL    HW127245   0.120   0.334   8.641 -0.6370  0.2512 -0.4795
38977SOL    HW227246   0.186   0.417   8.533  0.4539  0.1805  0.1264
38978SOL     OW27247   1.178   9.065  10.469  0.7814  0.7312  0.5338
38978SOL    HW127248   1.213   9.154  10.460  0.6888  0.7536  0.3996
38978SOL    HW227249   1.156   9.058  10.562  0.2441  1.0497  0.4313
38979SOL     OW27250   5.747   8.117   8.781  0.1843  0.4440 -0.0642
38979SOL    HW127251   5.712   8.030   8.797 -0.9581  0.8825 -0.0676
38979SOL    HW227252   5.737   8.131   8.687 -0.9300  1.0841  0.1249
38980SOL     OW27253   6.535  10.943   9.160 -0.4979 -0.2166 -0.0130
38980SOL    HW127254   6.540  10.968   9.252  0.9226  1.0439 -0.3928
38980SOL    HW227255   6.442  10.930   9.144 -0.7094 -1.5937  1.8546
38981SOL     OW27256   9.050   0.660   3.619 -0.2965  0.4670 -0.0397
38981SOL    HW127257   9.004   0.606   3.683 -0.5770  0.1354 -0.5146
38981SOL    HW227258   9.089   0.597   3.558  1.9326  0.6658  1.0931
38982SOL     OW27259  10.263   6.359   4.114  0.5390  0.6637  0.3617
38982SOL    HW127260  10.269   6.310   4.032 -1.6380 -2.0001  1.6126
38982SOL    HW227261  10.343   6.412   4.117  2.0895 -1.3178 -2.1220
38983SOL     OW27262   6.474   5.635   8.405  0.0377 -0.1142 -0.2154
38983SOL    HW127263   6.476   5.575   8.331 -0.4166  0.0632 -0.3751
38983SOL    HW227264   6.565   5.665   8.414  0.2125 -0.6148 -0.3023
38984SOL     OW27265   7.504  11.099   1.363 -0.4809  0.4608 -0.0726
38984SOL    HW127266   7.470  11.117   1.275 -0.6188  0.0849 -0.0956
38984SOL    HW227267   7.551  11.179   1.386  1.7327 -0.3302 -1.5010
38985SOL     OW27268  11.189   3.723  11.523 -0.0869  0.1528 -0.1990
38985SOL    HW127269  11.171   3.631  11.503 -1.2037  0.5012 -0.8749
38985SOL    HW227270  11.102   3.763  11.533  0.3670  1.2950 -0.6768
38986SOL     OW27271  11.318   7.374  11.086  0.1414 -0.3191 -0.4773
38986SOL    HW127272  11.300   7.281  11.075  0.2817 -0.4014 -0.0034
38986SOL    HW227273  11.393   7.378  11.145 -0.7548  0.1194  0.6680
38987SOL     OW27274  10.983  12.642  10.701  0.1461 -0.1963  0.5313
38987SOL    HW127275  10.980  12.647  10.797 -0.9122 -1.4497  0.5926
38987SOL    HW227276  11.060  12.588  10.683 -0.2093 -0.7713  0.7216
38988SOL     OW27277   7.116   8.117   1.596 -0.3217 -0.1574 -0.1285
38988SOL    HW127278   7.143   8.025   1.601 -1.0077 -0.3122  1.4452
38988SOL    HW227279   7.026   8.117   1.627 -0.1390  1.1143  0.4493
38989SOL     OW27280  12.607   8.639   6.468 -0.1146 -0.3878 -0.1661
38989SOL    HW127281  12.658   8.644   6.388 -0.2155 -2.1788 -0.3631
38989SOL    HW227282  12.528   8.590   6.444 -0.7293  0.1029  0.7483
38990SOL     OW27283  11.217   9.849   6.971  0.0414 -0.0787 -0.0186
38990SOL    HW127284  11.281   9.901   6.921  0.6673  0.5726  1.4145
38990SOL    HW227285  11.217   9.888   7.058 -0.3482 -1.7801  0.7791
38991SOL     OW27286   4.691   9.556   3.356  0.4980 -0.0320  0.1373
38991SOL    HW127287   4.697   9.651   3.344 -1.1230  0.0937  0.1052
38991SOL    HW227288   4.614   9.543   3.412  1.4419 -1.2714  1.2159
38992SOL     OW27289  11.856   7.011   2.436 -0.6187  0.0562 -0.1155
38992SOL    HW127290  11.930   6.993   2.378 -0.8168  2.2347 -1.1251
38992SOL    HW227291  11.812   7.086   2.397 -1.5884  0.7461  2.1288
38993SOL     OW27292   3.062   3.165   8.423  0.1222  0.8212  0.2542
38993SOL    HW127293   3.125   3.143   8.354 -0.5007 -1.4878  0.3688
38993SOL    HW227294   3.106   3.140   8.504 -0.4439  0.3680  0.4274
38994SOL     OW27295   8.690   9.331   9.488  0.2174 -0.0960  0.2719
38994SOL    HW127296   8.747   9.397   9.447 -0.0175 -0.3621 -0.4984
38994SOL    HW227297   8.682   9.360   9.579  1.1091  0.2655  0.2518
38995SOL     OW27298   0.696   1.961  11.793  0.0404  0.2213  0.4731
38995SOL    HW127299   0.627   1.993  11.735  1.2266  4.6294  1.1099
38995SOL    HW227300   0.777   1.974  11.744  0.7079 -1.2504  1.1247
38996SOL     OW27301  10.136   9.423   8.582 -0.4843  0.3639 -0.1971
38996SOL    HW127302  10.205   9.439   8.646  0.3896 -2.3785 -0.3588
38996SOL    HW227303  10.065   9.384   8.633 -1.7858  2.5675 -0.1493
38997SOL     OW27304   2.413   1.632   9.010 -0.0154 -0.2626 -0.0965
38997SOL    HW127305   2.411   1.705   9.072 -1.9461 -1.1076  0.9672
38997SOL    HW227306   2.505   1.608   9.003  0.3040 -0.1097  2.5046
38998SOL     OW27307   0.426  10.682   0.887  0.2674 -0.3153 -0.2234
38998SOL    HW127308   0.488  10.692   0.960  2.1483 -0.2222 -1.7648
38998SOL    HW227309   0.346  10.649   0.929  1.7126 -1.5953  1.7142
38999SOL     OW27310   7.467   5.097   5.453 -0.2652  0.0443 -0.1632
38999SOL    HW127311   7.416   5.157   5.507 -0.9253  0.5622 -1.3319
38999SOL    HW227312   7.525   5.153   5.402 -0.3747 -0.3564 -0.7403
39000SOL     OW27313   8.845   1.276   4.231  0.1518  0.2523 -0.1971
39000SOL    HW127314   8.865   1.369   4.219  0.0608  0.3337  0.2519
39000SOL    HW227315   8.852   1.263   4.326  1.7348 -0.5540 -0.3839
39001SOL     OW27316   2.480   7.155   7.730  0.1755  0.1876  0.3242
39001SOL    HW127317   2.411   7.118   7.675  2.6555 -1.2680 -2.0710
39001SOL    HW227318   2.508   7.234   7.684 -0.4872  1.3412  1.8159
39002SOL     OW27319  11.523   2.119   7.073  0.0896  0.1465  0.0397
39002SOL    HW127320  11.546   2.036   7.115 -0.3131 -0.2792 -0.5719
39002SOL    HW227321  11.590   2.131   7.005 -1.9107 -1.5870 -2.4106
39003SOL     OW27322   0.193   5.443   9.235  0.9225  0.3163 -0.6354
39003SOL    HW127323   0.118   5.467   9.289  1.4500 -0.1034  0.3050
39003SOL    HW227324   0.258   5.511   9.250  1.2014  0.0191 -0.4698
39004SOL     OW27325   4.020   9.385   3.411  0.5020 -0.3995  0.8213
39004SOL    HW127326   4.090   9.378   3.476  0.0542 -0.5694  1.2891
39004SOL    HW227327   3.971   9.303   3.420  2.3008 -1.9674 -1.9234
39005SOL     OW27328   9.761  10.283   1.996 -0.2581  0.2550  0.1935
39005SOL    HW127329   9.716  10.296   2.079  0.2395  1.0609  0.3438
39005SOL    HW227330   9.774  10.371   1.960  0.0872 -0.0408 -0.4378
39006SOL     OW27331   5.807   4.989   9.209  0.5770 -0.4822 -0.3852
39006SOL    HW127332   5.727   5.008   9.159  0.3605 -1.7529 -0.5747
39006SOL    HW227333   5.878   5.003   9.146  0.6065  1.4886  0.0232
39007SOL     OW27334  10.472   5.868   2.997  0.4439  0.3708 -0.1430
39007SOL    HW127335  10.399   5.913   2.954 -0.0571  0.4762  0.7961
39007SOL    HW227336  10.462   5.776   2.970 -0.4892  0.2503  0.5547
39008SOL     OW27337   2.891  10.303   7.772 -0.0207  0.9781  0.0451
39008SOL    HW127338   2.950  10.267   7.838 -1.4257  1.3943  1.5860
39008SOL    HW227339   2.946  10.365   7.723  0.6154  2.0706  2.0514
39009SOL     OW27340  10.426   4.526  12.577 -0.1954 -0.1141  0.4313
39009SOL    HW127341  10.459   4.436  12.577 -0.3504 -0.2368 -1.9462
39009SOL    HW227342  10.374   4.533  12.657  2.3090 -1.1433  2.2825
39010SOL     OW27343  12.176   5.532  11.122 -0.4359 -0.1428  0.4679
39010SOL    HW127344  12.176   5.625  11.143 -1.4475 -0.2163  0.8449
39010SOL    HW227345  12.093   5.499  11.157 -0.1427 -1.1639  0.2442
39011SOL     OW27346  12.023   6.639   3.978  0.8135  0.0472 -0.0943
39011SOL    HW127347  11.997   6.707   3.915  0.9398  1.9344  1.7808
39011SOL    HW227348  11.988   6.558   3.942 -0.1705  1.2288 -1.9558
39012SOL     OW27349   9.659   4.943   8.595 -0.1794 -0.2506 -0.0063
39012SOL    HW127350   9.666   4.849   8.576 -0.0580 -0.3419  0.4731
39012SOL    HW227351   9.663   4.948   8.691  2.0070  0.4154 -0.0815
39013SOL     OW27352   8.853   1.767   0.777 -0.0463  0.4616  0.6777
39013SOL    HW127353   8.768   1.781   0.735  0.2279  1.1504  0.3475
39013SOL    HW227354   8.888   1.855   0.791  0.1683  0.2253  1.7363
39014SOL     OW27355   7.925   7.899   3.019 -0.2571  0.1145 -0.1498
39014SOL    HW127356   7.854   7.866   3.074  2.0069 -0.1236  2.8937
39014SOL    HW227357   7.925   7.994   3.034 -0.5741  0.2628 -1.0190
39015SOL     OW27358   8.561   2.224  11.882  0.2991 -0.4262 -0.0631
39015SOL    HW127359   8.620   2.175  11.825 -0.8342 -0.2260 -1.4844
39015SOL    HW227360   8.614   2.249  11.957  1.6042 -1.5104 -0.5948
39016SOL     OW27361   7.234   8.950   4.900  0.0678  0.0905 -0.6947
39016SOL    HW127362   7.148   8.938   4.861  0.0503 -0.2620 -0.5476
39016SOL    HW227363   7.220   8.939   4.994  0.0171  1.4428 -0.5221
39017SOL     OW27364   7.273   8.277   4.636  0.1600  0.4913 -0.4268
39017SOL    HW127365   7.290   8.286   4.542 -0.2892  1.4041 -0.4332
39017SOL    HW227366   7.193   8.327   4.650  1.3550  2.1407  0.8078
39018SOL     OW27367   0.344  11.750   4.229 -0.0889  0.3785 -0.2226
39018SOL    HW127368   0.390  11.793   4.156  2.2938 -1.3343  0.1660
39018SOL    HW227369   0.388  11.784   4.307  1.3269 -2.0437  0.1188
39019SOL     OW27370   8.693   1.194   6.964 -0.2413  0.1687 -0.2344
39019SOL    HW127371   8.644   1.146   7.031  0.2819  0.1654  0.1455
39019SOL    HW227372   8.765   1.236   7.012  1.1380 -1.2103 -1.0453
39020SOL     OW27373  10.766   5.925   5.275 -0.5529 -0.4723  0.5729
39020SOL    HW127374  10.818   5.894   5.349 -0.8775 -1.7718  0.2792
39020SOL    HW227375  10.710   5.851   5.252 -2.2479  0.7362  0.6137
39021SOL     OW27376  10.093  10.614   8.268  0.1968 -0.0062  0.2337
39021SOL    HW127377  10.156  10.559   8.222  0.1150  0.7065 -0.7428
39021SOL    HW227378  10.138  10.696   8.283 -0.1062  0.1002  0.5792
39022SOL     OW27379   2.731   0.225   6.029 -0.3022 -0.3738 -0.6191
39022SOL    HW127380   2.773   0.239   5.945  0.5672 -0.0997 -0.1486
39022SOL    HW227381   2.777   0.284   6.089 -1.4781  0.0604 -0.1243
39023SOL     OW27382  11.910   5.702   8.442  0.7810 -0.7113  0.3889
39023SOL    HW127383  11.909   5.754   8.522  1.4679 -1.5786  0.9879
39023SOL    HW227384  11.979   5.741   8.388  0.3865 -0.1896  0.2614
39024SOL     OW27385   7.831   4.064   5.791 -0.2744 -0.4886  0.4697
39024SOL    HW127386   7.834   4.070   5.886  1.7034 -0.5167  0.4525
39024SOL    HW227387   7.812   4.154   5.762  2.5113  0.3253  0.8653
39025SOL     OW27388   0.588   2.455   5.957 -0.1269 -0.2516  0.4657
39025SOL    HW127389   0.523   2.387   5.974  0.3625 -0.4914  1.4326
39025SOL    HW227390   0.664   2.408   5.923  0.4841 -0.3008  1.8428
39026SOL     OW27391   4.866  10.256   0.888  0.2907  0.8881  0.0605
39026SOL    HW127392   4.827  10.271   0.802  0.1937 -0.1986 -0.0946
39026SOL    HW227393   4.923  10.332   0.902 -0.0090  1.2797 -0.7762
39027SOL     OW27394   6.408  12.003   6.683 -0.6527  0.0506 -0.0033
39027SOL    HW127395   6.351  11.927   6.696 -1.6161  0.4634 -1.5323
39027SOL    HW227396   6.349  12.078   6.685  0.1898  0.7168  0.7396
39028SOL     OW27397   3.047  10.921   4.709 -0.0329  0.0960  0.2627
39028SOL    HW127398   3.123  10.888   4.663 -1.3180  1.4663 -3.1946
39028SOL    HW227399   3.082  10.987   4.769  1.5721 -0.1462 -0.3553
39029SOL     OW27400   8.542   8.555   7.617 -0.1881  0.4958 -0.0377
39029SOL    HW127401   8.557   8.543   7.524 -0.8098 -1.5374  0.0726
39029SOL    HW227402   8.451   8.583   7.623 -0.6270 -0.8505 -0.0060
39030SOL     OW27403   5.275   2.467   7.976 -0.3993 -0.3476 -0.5433
39030SOL    HW127404   5.345   2.413   7.938 -0.0176  0.5359 -1.1317
39030SOL    HW227405   5.313   2.500   8.057 -1.0627 -1.8919  0.4437
39031SOL     OW27406   3.886   9.154   7.403 -0.1885  0.0889 -0.1423
39031SOL    HW127407   3.916   9.160   7.494  0.0948  0.7323 -0.2803
39031SOL    HW227408   3.966   9.153   7.351 -0.3768  0.8603 -0.4550
39032SOL     OW27409   8.582   2.256   7.723  0.6128  0.1441  0.2219
39032SOL    HW127410   8.559   2.164   7.736 -1.2019  0.7520  1.7881
39032SOL    HW227411   8.563   2.273   7.631 -1.5920 -0.4208  0.5238
39033SOL     OW27412   3.440  10.427   7.544 -0.2512  0.0932  0.5548
39033SOL    HW127413   3.473  10.517   7.551 -1.3449  0.8538 -2.5067
39033SOL    HW227414   3.510  10.380   7.498  0.1804 -0.6031  1.8698
39034SOL     OW27415   4.805   0.983  11.314  0.0024 -0.0983 -0.3296
39034SOL    HW127416   4.840   1.045  11.251  1.2889 -0.3590  0.1091
39034SOL    HW227417   4.859   0.994  11.392 -2.4463  1.2409  1.3100
39035SOL     OW27418  12.341   0.251   6.943 -0.3956 -0.0450 -0.0502
39035SOL    HW127419  12.359   0.190   6.871  0.9531  0.2352  0.0171
39035SOL    HW227420  12.255   0.288   6.923  0.7529  1.5009 -2.6056
39036SOL     OW27421   8.758   5.069   4.739  0.6690 -0.1046 -0.4402
39036SOL    HW127422   8.848   5.101   4.742  0.7652 -0.1281 -2.0772
39036SOL    HW227423   8.706   5.140   4.775  1.4059 -0.4978  1.5245
39037SOL     OW27424  12.804   9.452   3.595 -0.1999 -0.2205  0.5972
39037SOL    HW127425  12.874   9.514   3.614 -1.0332  0.7205  0.7003
39037SOL    HW227426  12.747   9.498   3.534 -1.8306 -0.1265  2.0917
39038SOL     OW27427   2.391   1.835   3.066 -0.6084 -0.2971 -0.3967
39038SOL    HW127428   2.359   1.747   3.041 -0.7070  0.0881 -1.7230
39038SOL    HW227429   2.346   1.854   3.148 -1.9743 -0.7625 -1.0080
39039SOL     OW27430  12.422   1.655   2.551  0.4243  0.1372 -0.0340
39039SOL    HW127431  12.438   1.560   2.550  1.1834  0.2600 -0.7614
39039SOL    HW227432  12.488   1.691   2.491  0.7241  1.2212  0.9051
39040SOL     OW27433   5.271   1.178  11.491  0.1736 -0.7299  0.5874
39040SOL    HW127434   5.306   1.125  11.419  0.2101  1.0314 -0.7459
39040SOL    HW227435   5.338   1.244  11.507 -1.4665  1.3180 -0.4734
39041SOL     OW27436   8.148   1.808   3.535  0.2640 -0.1497 -0.2901
39041SOL    HW127437   8.125   1.726   3.578 -4.1755  1.5458  1.1480
39041SOL    HW227438   8.114   1.799   3.446  0.1042 -0.0144 -0.2437
39042SOL     OW27439   4.290   8.289   4.267  0.4248 -0.2059  0.3191
39042SOL    HW127440   4.231   8.230   4.315  0.5030  0.9075  1.8321
39042SOL    HW227441   4.321   8.351   4.332  0.4721  1.4413 -1.1946
39043SOL     OW27442   8.998  12.309   8.051 -0.1703  0.0300 -0.2403
39043SOL    HW127443   8.963  12.221   8.061 -0.1125  0.0579  0.2620
39043SOL    HW227444   8.928  12.358   8.008 -1.3340  0.4400  1.9840
39044SOL     OW27445   1.926   5.817   3.527 -0.2113 -0.0221  0.2222
39044SOL    HW127446   1.893   5.743   3.476  2.2968 -1.0924 -0.0033
39044SOL    HW227447   1.986   5.777   3.591 -0.4129  1.6474  1.5328
39045SOL     OW27448   5.130  11.727  12.194 -0.4264 -0.3361  0.0924
39045SOL    HW127449   5.220  11.733  12.161 -0.3805 -0.7127  0.1513
39045SOL    HW227450   5.140  11.714  12.288 -0.5631  1.4974  0.4008
39046SOL     OW27451   2.097  12.064   3.092  0.1223  0.0657 -0.2599
39046SOL    HW127452   2.053  12.100   3.015 -0.3030  3.1074  1.2567
39046SOL    HW227453   2.025  12.029   3.146  0.2309 -0.4413 -0.4392
39047SOL     OW27454  11.143   7.432  10.608 -0.3244  0.2877 -0.1619
39047SOL    HW127455  11.162   7.346  10.645 -1.3689 -0.6971 -1.7639
39047SOL    HW227456  11.228   7.475  10.599  0.0259  0.2838  2.5544
39048SOL     OW27457  12.122   0.193  11.932 -0.1887 -0.4002 -0.3475
39048SOL    HW127458  12.096   0.118  11.985  0.5314 -0.0606  0.4969
39048SOL    HW227459  12.158   0.154  11.852 -0.6846 -0.9280 -0.3227
39049SOL     OW27460  12.248   9.793   0.679  0.0471  0.3806  0.3408
39049SOL    HW127461  12.264   9.835   0.595  0.3870  2.5728  1.4094
39049SOL    HW227462  12.154   9.779   0.681  0.2181 -1.2425 -1.0365
39050SOL     OW27463   7.229  12.255   5.358  0.3846  0.1348  0.3531
39050SOL    HW127464   7.159  12.224   5.416  0.8507  0.2697  0.9966
39050SOL    HW227465   7.247  12.180   5.301 -0.7081  0.2981 -0.2396
39051SOL     OW27466   2.706   9.451   6.447  0.0058  0.3773 -0.1153
39051SOL    HW127467   2.749   9.423   6.367  0.4022  1.5829 -0.3526
39051SOL    HW227468   2.736   9.541   6.460  0.4969 -0.0202  1.7681
39052SOL     OW27469   3.277   2.949   7.156  0.2725 -0.1578  0.2547
39052SOL    HW127470   3.221   2.895   7.211 -1.8221  1.7736  0.1499
39052SOL    HW227471   3.225   2.967   7.078  1.2511  1.2556 -0.1129
39053SOL     OW27472   6.702   1.284   4.679 -0.1783 -0.5895 -0.5185
39053SOL    HW127473   6.663   1.349   4.738  0.2582  0.9218 -1.8248
39053SOL    HW227474   6.666   1.306   4.592  1.7869 -0.5836 -1.3820
39054SOL     OW27475   0.490   3.767   4.525  0.1547  0.2903 -0.0135
39054SOL    HW127476   0.442   3.842   4.561 -1.2219 -0.4418 -0.2655
39054SOL    HW227477   0.454   3.756   4.437  0.5041 -0.5242 -0.0597
39055SOL     OW27478   5.948   3.352   6.673 -0.0806 -0.1187 -0.2491
39055SOL    HW127479   5.991   3.339   6.758 -3.1983 -2.8336  1.1820
39055SOL    HW227480   5.925   3.264   6.644 -3.0662  0.9672 -1.6186
39056SOL     OW27481   0.859   9.409  12.790  0.2696 -0.1617 -0.3224
39056SOL    HW127482   0.952   9.403  12.769  0.8779  4.8829 -0.1804
39056SOL    HW227483   0.816   9.422  12.705 -0.7906 -4.2954 -0.6281
39057SOL     OW27484  10.570  12.020   3.574  0.4012 -0.0017 -0.5603
39057SOL    HW127485  10.659  12.054   3.566  0.2164  0.7155  0.2652
39057SOL    HW227486  10.522  12.063   3.503  0.7971 -0.7356 -1.2922
39058SOL     OW27487   3.225   5.134   2.382 -0.3063 -0.0900 -0.1065
39058SOL    HW127488   3.161   5.071   2.348 -0.6688 -1.4254  2.6851
39058SOL    HW227489   3.176   5.184   2.447  1.2274 -0.6119  1.5302
39059SOL     OW27490   3.917   4.459  10.537  0.4110 -0.1629 -0.1704
39059SOL    HW127491   3.924   4.530  10.601  0.7698 -0.1614 -0.2106
39059SOL    HW227492   3.827   4.428  10.546  0.3667  0.0420  0.1198
39060SOL     OW27493  12.738   5.880   0.786 -0.4075  0.2153  0.3232
39060SOL    HW127494  12.816   5.837   0.821 -0.6874  1.5920  2.8697
39060SOL    HW227495  12.731   5.847   0.697  2.0934 -1.2660  0.5701
39061SOL     OW27496   6.788   3.272   9.605  0.0140 -0.2470 -0.3609
39061SOL    HW127497   6.842   3.288   9.682 -0.3370  0.0195 -0.1664
39061SOL    HW227498   6.700   3.258   9.640 -0.6058  2.1128 -0.8361
39062SOL     OW27499   7.740   0.519  12.964  0.2486  0.1162  0.0573
39062SOL    HW127500   7.708   0.516  13.054  1.1460  0.8074  0.4075
39062SOL    HW227501   7.799   0.594  12.961  0.6557 -0.2199 -0.9647
39063SOL     OW27502  12.667   9.729  11.292 -0.1500 -0.2240 -0.1811
39063SOL    HW127503  12.762   9.731  11.275 -0.4297  0.3737 -1.8325
39063SOL    HW227504  12.649   9.638  11.315  0.6830 -0.5644 -0.8046
39064SOL     OW27505   9.756  11.385   6.140 -0.5713  0.3627  0.3834
39064SOL    HW127506   9.735  11.313   6.080 -2.5594  0.2209  1.1744
39064SOL    HW227507   9.789  11.455   6.083  0.9158 -0.9574 -0.4501
39065SOL     OW27508   0.751   5.167  12.765  0.4005  0.3255  0.2562
39065SOL    HW127509   0.686   5.228  12.729  0.5515 -0.1376 -0.8376
39065SOL    HW227510   0.779   5.114  12.690 -0.9998 -2.3139  1.4722
39066SOL     OW27511   3.145   9.486   8.649  0.1599  0.2901 -0.4930
39066SOL    HW127512   3.198   9.412   8.679  0.5340  0.1902 -1.3828
39066SOL    HW227513   3.182   9.562   8.695  0.2588  0.0417 -0.1559
39067SOL     OW27514   2.881   3.452   2.465 -0.0902 -0.0577 -0.0421
39067SOL    HW127515   2.953   3.389   2.473 -0.2781 -1.1804 -4.4087
39067SOL    HW227516   2.809   3.411   2.512  0.7303 -1.5271  0.0195
39068SOL     OW27517   4.361  12.538  11.162 -0.3653  0.1632 -0.4091
39068SOL    HW127518   4.456  12.537  11.159 -0.3471 -2.5183 -2.2839
39068SOL    HW227519   4.333  12.531  11.071 -2.2011 -3.0893  0.2291
39069SOL     OW27520   3.374   2.701   1.533 -0.2050 -0.1075  0.4166
39069SOL    HW127521   3.432   2.725   1.460  0.4519  0.7610  1.2048
39069SOL    HW227522   3.355   2.608   1.517  0.5589 -0.1424 -0.4338
39070SOL     OW27523   5.347   9.076   1.926  0.3938  0.2185 -0.2175
39070SOL    HW127524   5.430   9.028   1.923  1.3487  1.8011 -0.6000
39070SOL    HW227525   5.285   9.021   1.878  0.3881 -2.3824  2.5086
39071SOL     OW27526   2.908   6.869   4.338 -0.3742  0.3412 -0.3530
39071SOL    HW127527   2.915   6.902   4.428  0.4123  1.5849 -0.8357
39071SOL    HW227528   2.973   6.799   4.333 -3.2174 -2.6615  1.1852
39072SOL     OW27529   2.174   4.334   6.059  0.1355 -0.5251  0.6813
39072SOL    HW127530   2.079   4.337   6.069  0.2659  0.7290  1.8794
39072SOL    HW227531   2.200   4.248   6.092 -0.4630 -0.3717  1.5782
39073SOL     OW27532  12.941   8.421   8.606  0.0048 -0.1203  0.4232
39073SOL    HW127533  12.974   8.355   8.667  2.0871  0.2057 -0.2786
39073SOL    HW227534  13.019   8.455   8.563 -1.3285  0.2015 -1.8936
39074SOL     OW27535   2.315   8.526   5.573 -0.5417  0.1988 -0.4670
39074SOL    HW127536   2.306   8.440   5.614 -0.5221  0.3777 -0.0878
39074SOL    HW227537   2.264   8.585   5.629  2.9545  1.2824  1.8466
39075SOL     OW27538  10.307   7.853   2.521 -0.3691 -0.2946  0.4567
39075SOL    HW127539  10.340   7.771   2.557  1.0055 -0.0749 -0.2084
39075SOL    HW227540  10.269   7.829   2.436 -1.2241 -0.4306  0.8702
39076SOL     OW27541  10.771   1.672   1.834 -0.3926  0.5915 -0.6822
39076SOL    HW127542  10.838   1.739   1.821  0.7584 -0.6212 -1.1878
39076SOL    HW227543  10.693   1.721   1.860  1.1312  1.9112  1.6706
39077SOL     OW27544   9.900   1.320   4.111 -0.3723  0.5428 -0.5658
39077SOL    HW127545   9.806   1.325   4.097 -0.8328  5.2909  2.1574
39077SOL    HW227546   9.937   1.317   4.023 -3.0254 -0.0014 -1.7592
39078SOL     OW27547  10.429   3.645   7.090 -0.3449 -0.1532  0.7776
39078SOL    HW127548  10.423   3.577   7.158  0.0633 -1.6718 -0.6428
39078SOL    HW227549  10.352   3.699   7.104 -1.4245 -1.7034  1.1681
39079SOL     OW27550   0.108   7.904   8.127 -0.4382 -0.8872  0.4736
39079SOL    HW127551   0.154   7.987   8.118 -2.0278 -0.0229 -0.1486
39079SOL    HW227552   0.028   7.926   8.175  0.0410 -2.4477  2.0994
39080SOL     OW27553   0.819  12.138   8.320 -0.0758  0.2761 -0.0240
39080SOL    HW127554   0.873  12.096   8.386  0.2234  0.8331  0.0924
39080SOL    HW227555   0.731  12.140   8.358  0.1603  0.8909  0.4977
39081SOL     OW27556   2.636   0.114   2.368 -0.0105  0.0531 -0.5516
39081SOL    HW127557   2.714   0.162   2.342 -0.0433 -0.4182 -1.5599
39081SOL    HW227558   2.565   0.152   2.316 -0.4935  0.5894  0.4751
39082SOL     OW27559   9.232  10.306   6.379  0.2950 -0.2251  0.5013
39082SOL    HW127560   9.176  10.280   6.452 -0.0640  1.9788  1.0782
39082SOL    HW227561   9.258  10.395   6.399  0.6442  0.2550 -1.8057
39083SOL     OW27562   6.925   5.379   6.631 -0.3384 -0.3935  0.1164
39083SOL    HW127563   6.999   5.434   6.604 -1.3954  0.0820 -2.0073
39083SOL    HW227564   6.856   5.441   6.654 -0.0324 -0.8277  2.5121
39084SOL     OW27565   8.546   6.028   7.332  0.0809  0.3615 -0.2291
39084SOL    HW127566   8.579   6.073   7.255 -2.3153  2.6652 -0.0363
39084SOL    HW227567   8.623   6.015   7.387  1.1094  2.9954 -0.9272
39085SOL     OW27568   5.341   7.753   6.302 -0.5479  0.4622 -0.0678
39085SOL    HW127569   5.291   7.686   6.256 -2.3557  1.5604  0.2329
39085SOL    HW227570   5.284   7.782   6.372  0.4071  1.9627  0.1279
39086SOL     OW27571  10.397   9.273   4.341  0.0302 -0.2248  0.5515
39086SOL    HW127572  10.465   9.225   4.293  0.9153  1.0361  0.4624
39086SOL    HW227573  10.335   9.207   4.369  0.4169 -1.2194 -0.8314
39087SOL     OW27574   6.250   0.185  10.378  0.3013  0.3534  0.0127
39087SOL    HW127575   6.328   0.136  10.353  0.1178  0.1791 -0.2235
39087SOL    HW227576   6.260   0.201  10.472 -1.3359 -3.2781  0.9904
39088SOL     OW27577   2.954   0.649   6.926 -0.4447 -0.5487 -0.1499
39088SOL    HW127578   2.897   0.573   6.917 -0.8576 -0.2715  0.1212
39088SOL    HW227579   3.043   0.613   6.922 -0.6291 -1.1730  1.0975
39089SOL     OW27580   4.421  11.671   1.579 -0.4575 -0.1452 -0.7658
39089SOL    HW127581   4.437  11.582   1.611 -0.0376  0.9861  2.5143
39089SOL    HW227582   4.341  11.664   1.527 -0.9436 -2.3038  0.1712
39090SOL     OW27583   6.222   0.466  11.565 -0.0335 -0.0740  0.0143
39090SOL    HW127584   6.270   0.400  11.615  1.0103  0.5495 -0.1372
39090SOL    HW227585   6.200   0.422  11.482  1.6084  0.0681 -0.5413
39091SOL     OW27586   4.134   0.355  12.551 -0.3367  0.5108  0.0517
39091SOL    HW127587   4.110   0.308  12.471  1.7338  1.5028 -1.2291
39091SOL    HW227588   4.218   0.317  12.577 -0.1914  1.3296  0.8182
39092SOL     OW27589  10.213   3.669   9.669 -0.2145 -0.6808  0.2039
39092SOL    HW127590  10.292   3.614   9.676 -0.3940 -0.9404  0.2129
39092SOL    HW227591  10.188   3.663   9.577  0.2579  0.0803  0.0239
39093SOL     OW27592  11.863   7.715   2.119 -0.5765  0.5189  0.1292
39093SOL    HW127593  11.769   7.735   2.120 -0.4960  0.9081  0.4310
39093SOL    HW227594  11.880   7.689   2.029 -0.8398  1.1424 -0.1093
39094SOL     OW27595   7.331   4.016   6.098 -0.1787  0.0060  0.5887
39094SOL    HW127596   7.415   4.027   6.054 -0.2591 -0.3311  0.3448
39094SOL    HW227597   7.345   3.941   6.157 -1.4542 -2.8600 -2.4284
39095SOL     OW27598   1.992   6.354   1.549 -0.7375 -0.2292  0.3908
39095SOL    HW127599   2.081   6.319   1.558 -1.3012 -1.5801  0.9806
39095SOL    HW227600   2.004   6.449   1.544  0.7777 -0.4156 -0.1683
39096SOL     OW27601  11.103   3.733   7.654  0.0073 -0.3602  0.1104
39096SOL    HW127602  11.049   3.751   7.577 -0.2799 -1.5550  0.0215
39096SOL    HW227603  11.150   3.815   7.670 -1.1965  0.4425 -0.3196
39097SOL     OW27604  11.422   2.924   2.107 -0.1362 -0.2559  0.1039
39097SOL    HW127605  11.422   3.003   2.054 -0.0514 -0.2194  0.1584
39097SOL    HW227606  11.508   2.923   2.149 -0.1940 -0.2958  0.2218
39098SOL     OW27607   8.173   3.117   0.930 -0.2005  0.0053  0.1255
39098SOL    HW127608   8.106   3.156   0.875 -0.9157 -0.8097  0.3990
39098SOL    HW227609   8.130   3.043   0.973  0.9179 -0.6764  0.1417
39099SOL     OW27610   2.346   1.873   0.210  0.4172  0.2983 -0.6549
39099SOL    HW127611   2.364   1.909   0.124 -2.8708 -0.6260 -1.8452
39099SOL    HW227612   2.332   1.780   0.195  3.1444 -0.5932  1.4906
39100SOL     OW27613   3.098   4.761   7.377  0.7942  0.3241  0.0043
39100SOL    HW127614   3.159   4.728   7.310  0.1488  0.0915 -0.4747
39100SOL    HW227615   3.151   4.822   7.428  1.6304 -0.4190  0.0500
39101SOL     OW27616  10.722  12.877   6.203  0.2198  0.3554 -0.3163
39101SOL    HW127617  10.800  12.894   6.256  0.8386 -2.2091 -0.3136
39101SOL    HW227618  10.736  12.927   6.123  0.7784  1.6978  0.5769
39102SOL     OW27619  11.590  10.010  11.085 -0.3378  0.0637  0.5731
39102SOL    HW127620  11.561  10.095  11.053  1.6780  0.9092  0.8736
39102SOL    HW227621  11.672   9.993  11.038  0.2252 -0.8579  1.8327
39103SOL     OW27622   2.367  11.737   3.236  0.2649  0.1651  0.2242
39103SOL    HW127623   2.450  11.703   3.203 -0.2743 -0.9016 -0.0644
39103SOL    HW227624   2.329  11.664   3.285  0.0245  1.0128  1.3521
39104SOL     OW27625   0.773  10.888   8.940  0.2645  0.0963  0.4368
39104SOL    HW127626   0.852  10.857   8.985  0.1120  0.6820  1.1221
39104SOL    HW227627   0.778  10.983   8.946  1.2133  0.3365 -2.4748
39105SOL     OW27628   9.179   3.842   0.597  0.1075 -0.1701 -0.1183
39105SOL    HW127629   9.093   3.811   0.624 -0.1618  0.1808 -0.5450
39105SOL    HW227630   9.239   3.771   0.619 -0.0423  0.2175  1.6681
39106SOL     OW27631  10.024   1.177   0.845  1.0931  0.6300 -0.6541
39106SOL    HW127632   9.960   1.226   0.896  1.6606  1.0573 -0.3428
39106SOL    HW227633   9.987   1.175   0.756  0.0723 -0.1746 -0.2233
39107SOL     OW27634   4.539  12.134   1.719 -0.0976  0.2437  0.7252
39107SOL    HW127635   4.605  12.122   1.788  3.0482  0.5000 -1.9870
39107SOL    HW227636   4.585  12.113   1.638 -3.2366  1.1347 -1.4776
39108SOL     OW27637   7.280   7.411   7.787  0.2131 -0.0347 -0.2598
39108SOL    HW127638   7.330   7.373   7.716  1.2994  0.5712  0.1615
39108SOL    HW227639   7.319   7.374   7.867 -0.6871 -0.3540  0.0461
39109SOL     OW27640   2.980   8.193   4.743 -0.1243 -0.3730 -0.0601
39109SOL    HW127641   2.926   8.272   4.737  1.2378  0.7265  1.3550
39109SOL    HW227642   2.970   8.164   4.833  2.5627  0.6422  0.6791
39110SOL     OW27643   3.663   1.417   9.619 -0.5061  0.3200  0.0257
39110SOL    HW127644   3.728   1.474   9.661  1.0636 -0.2865 -1.5113
39110SOL    HW227645   3.593   1.477   9.593  0.4413  1.3474 -0.2474
39111SOL     OW27646  10.322   3.174   9.293  0.8668 -0.0665  0.6142
39111SOL    HW127647  10.257   3.193   9.361  0.8289  2.6681 -0.0655
39111SOL    HW227648  10.337   3.080   9.299 -2.1630 -0.5789  1.6695
39112SOL     OW27649   7.390   8.282  12.952 -0.1379 -0.1196  0.3945
39112SOL    HW127650   7.407   8.211  12.889 -0.8016  0.6177 -0.6385
39112SOL    HW227651   7.446   8.261  13.027 -1.1769 -2.3937  0.6228
39113SOL     OW27652  12.946   3.026   8.705  0.0477  0.4421  0.1566
39113SOL    HW127653  12.928   2.943   8.748  1.9412  0.1768  0.5025
39113SOL    HW227654  12.993   3.078   8.770  0.9656  0.8784 -0.8194
39114SOL     OW27655   8.905   0.897   1.075  0.0408  0.3099 -0.3545
39114SOL    HW127656   8.935   0.856   1.156 -0.3765  1.6221  0.4792
39114SOL    HW227657   8.841   0.962   1.102 -2.7899 -1.5936 -2.0018
39115SOL     OW27658   1.219  11.278   1.360  0.4649 -0.3903  0.2321
39115SOL    HW127659   1.257  11.296   1.446 -0.7372  0.7026  0.5782
39115SOL    HW227660   1.292  11.288   1.299  1.6100 -2.3321  1.1798
39116SOL     OW27661   7.884  12.108   3.518  0.7404  0.0419 -1.0609
39116SOL    HW127662   7.931  12.081   3.597  1.1428  0.1242 -1.2745
39116SOL    HW227663   7.808  12.050   3.515  1.5622 -1.0297 -1.4831
39117SOL     OW27664  12.825   3.271   4.709 -0.2277 -0.4817 -0.2235
39117SOL    HW127665  12.896   3.216   4.740  0.3854 -0.9283 -2.2639
39117SOL    HW227666  12.819   3.253   4.615 -0.1973  2.6704 -0.9628
39118SOL     OW27667   4.001   8.203  10.183  0.1156 -0.1989 -0.2356
39118SOL    HW127668   3.945   8.132  10.213  1.5360 -1.5764 -0.6892
39118SOL    HW227669   4.030   8.246  10.263  0.6206 -1.2635  0.1806
39119SOL     OW27670   7.839  11.493   4.077 -0.2303  0.3168  0.3721
39119SOL    HW127671   7.827  11.586   4.056 -0.8552  0.3402  0.8081
39119SOL    HW227672   7.750  11.461   4.091  0.0711 -0.0653  1.4263
39120SOL     OW27673   7.706  11.012   6.569 -0.6168 -0.3409  0.8206
39120SOL    HW127674   7.773  11.058   6.620 -0.8829  1.1341 -0.1247
39120SOL    HW227675   7.660  11.080   6.521 -2.1756 -1.4221  0.6814
39121SOL     OW27676   3.077   1.397   6.784 -0.1767  0.3550 -0.5340
39121SOL    HW127677   3.032   1.318   6.752 -1.8395  0.0730  2.1399
39121SOL    HW227678   3.049   1.404   6.876  1.7031  2.8315 -0.0602
39122SOL     OW27679   2.958  11.912   2.396  0.2871  0.0128 -0.2368
39122SOL    HW127680   2.908  11.941   2.320  0.2660 -0.2398 -0.3208
39122SOL    HW227681   2.937  11.975   2.465 -2.3356 -1.6181  0.5963
39123SOL     OW27682   7.908   5.936   2.320  0.3582  0.3033  0.2122
39123SOL    HW127683   7.868   6.004   2.265 -1.4845 -0.6058  0.3280
39123SOL    HW227684   7.903   5.857   2.266  0.9744 -0.0591  0.6903
39124SOL     OW27685   5.672   0.454   4.183 -0.1816 -0.4227 -0.0844
39124SOL    HW127686   5.616   0.406   4.121 -0.1632  0.2663 -0.6523
39124SOL    HW227687   5.670   0.545   4.151  0.6978 -0.2625  0.3019
39125SOL     OW27688   8.694   4.950   2.662 -0.2148  0.2868  0.4680
39125SOL    HW127689   8.633   5.005   2.614  1.0087 -0.6269 -2.3323
39125SOL    HW227690   8.778   4.961   2.616  0.9860 -0.9268  2.2253
39126SOL     OW27691  10.845  12.927   6.516 -0.0771 -0.0982  0.5706
39126SOL    HW127692  10.909  12.998   6.528  0.8661 -0.8554  0.0994
39126SOL    HW227693  10.765  12.961   6.556  0.4688  1.0771  0.7122
39127SOL     OW27694   5.083   1.693   1.239 -0.1417 -0.0347 -0.5526
39127SOL    HW127695   5.076   1.766   1.301  2.0787  0.9450 -1.3240
39127SOL    HW227696   5.014   1.709   1.174 -1.3904 -0.1405  0.7189
39128SOL     OW27697   4.717  11.343   8.048 -1.1289  0.8637 -0.0916
39128SOL    HW127698   4.787  11.405   8.030 -0.4344  0.0853 -0.1211
39128SOL    HW227699   4.660  11.347   7.971 -1.6925  2.2381  0.3695
39129SOL     OW27700  10.299   2.544   0.433  0.4548 -0.4071  0.2147
39129SOL    HW127701  10.350   2.499   0.500 -1.6151 -0.1987  2.0463
39129SOL    HW227702  10.225   2.485   0.417 -0.0930  0.4492 -0.4607
39130SOL     OW27703   1.988  12.064  12.071 -0.6555  0.1152 -0.2239
39130SOL    HW127704   1.971  11.996  12.006  0.3839 -0.4800  0.1087
39130SOL    HW227705   1.941  12.140  12.038 -1.1908 -0.5350 -1.0124
39131SOL     OW27706   2.484   0.768   3.103  0.4159 -0.3227  0.0482
39131SOL    HW127707   2.411   0.723   3.147 -1.2054 -0.4740 -2.5879
39131SOL    HW227708   2.550   0.699   3.089 -0.4903 -1.0720 -0.6975
39132SOL     OW27709   6.092   8.772   6.319  0.1781  0.2254  0.5613
39132SOL    HW127710   6.105   8.791   6.226  0.0876 -0.2737  0.4397
39132SOL    HW227711   5.999   8.751   6.326  0.0467  0.8861  0.8853
39133SOL     OW27712   6.072  11.770  12.626 -0.8114 -0.7490 -0.3019
39133SOL    HW127713   6.074  11.713  12.702  1.1695  0.7698  0.8845
39133SOL    HW227714   6.155  11.819  12.630 -1.9055  1.4086 -1.8488
39134SOL     OW27715   2.067   6.795   2.129  0.2155 -0.2572  0.3083
39134SOL    HW127716   2.005   6.722   2.131  0.8682 -0.9191 -1.5293
39134SOL    HW227717   2.142   6.764   2.179  0.1103 -0.4859  0.3277
39135SOL     OW27718   6.348   1.024   1.795 -0.3496 -0.1376 -0.0482
39135SOL    HW127719   6.424   1.079   1.776 -0.1088  0.6634  2.8157
39135SOL    HW227720   6.294   1.030   1.716  2.6523 -1.0564 -2.3632
39136SOL     OW27721  11.509   2.469   8.363 -0.5520 -0.2037  0.2959
39136SOL    HW127722  11.484   2.377   8.370  0.4687 -0.5183  0.0264
39136SOL    HW227723  11.605   2.469   8.372 -0.0161  0.3299 -3.4634
39137SOL     OW27724   7.059   7.186   5.166 -0.1435  0.0005  0.0463
39137SOL    HW127725   6.982   7.153   5.213 -0.2717  0.6256  0.2786
39137SOL    HW227726   7.133   7.158   5.219 -0.1345 -1.4638 -0.6827
39138SOL     OW27727   1.986   4.860   5.254 -0.4659 -0.0338 -0.1676
39138SOL    HW127728   2.079   4.859   5.280 -0.3938 -0.9359 -0.4426
39138SOL    HW227729   1.978   4.790   5.189 -1.3960 -0.1425  0.0493
39139SOL     OW27730   0.925   1.964   8.005 -0.0469  0.1479  0.0502
39139SOL    HW127731   0.834   1.936   7.997  0.0470 -0.0684 -0.2966
39139SOL    HW227732   0.968   1.892   8.052 -0.7029  1.6311  3.1454
39140SOL     OW27733  10.977  11.897   2.204 -0.2583  0.3108 -0.4431
39140SOL    HW127734  11.016  11.949   2.134  2.1139 -0.7479  0.0108
39140SOL    HW227735  10.902  11.854   2.163 -0.4070  1.6178 -1.6303
39141SOL     OW27736   7.869   6.177   6.886  0.6169  0.6038  0.1878
39141SOL    HW127737   7.924   6.098   6.885 -0.7582 -0.4056  0.9713
39141SOL    HW227738   7.842   6.186   6.977 -1.9856 -0.0151 -0.4424
39142SOL     OW27739   4.899   1.714   9.390 -0.4241  0.2177  0.0554
39142SOL    HW127740   4.970   1.776   9.374 -1.6842  1.8387  0.4476
39142SOL    HW227741   4.935   1.653   9.454  0.3790  1.5097  0.8954
39143SOL     OW27742   9.040  11.129   6.723 -0.8153 -1.0198  0.0564
39143SOL    HW127743   9.000  11.068   6.785 -4.3564 -0.7627 -1.7205
39143SOL    HW227744   9.019  11.216   6.758  0.4531 -0.8080  0.3483
39144SOL     OW27745  12.674   4.293   8.920 -0.0179 -0.9790 -0.0217
39144SOL    HW127746  12.677   4.199   8.937 -0.2481 -1.1080 -0.6434
39144SOL    HW227747  12.657   4.299   8.826 -1.8976 -0.3254  0.3184
39145SOL     OW27748  12.134   0.816   5.869  0.1918 -0.3961  0.1917
39145SOL    HW127749  12.132   0.887   5.933  0.1299 -0.1440 -0.0872
39145SOL    HW227750  12.151   0.860   5.786 -0.8565 -0.5914 -0.1388
39146SOL     OW27751  10.906   4.763   0.233  0.0605 -0.0072 -0.0798
39146SOL    HW127752  10.833   4.705   0.213 -0.6049  1.2626 -1.4872
39146SOL    HW227753  10.974   4.739   0.169  0.6176 -0.6557  0.7259
39147SOL     OW27754  11.877   8.952   7.027  0.0537 -0.2363  0.2508
39147SOL    HW127755  11.843   8.874   7.070  0.3101 -0.6168 -0.2240
39147SOL    HW227756  11.896   8.923   6.937 -0.8561  0.6319 -0.2424
39148SOL     OW27757  12.124   1.287  11.854  0.5946  0.1934  0.1568
39148SOL    HW127758  12.187   1.227  11.815  0.4782  0.6536 -0.7723
39148SOL    HW227759  12.057   1.231  11.893  0.4148 -0.2891 -0.8120
39149SOL     OW27760   4.508   4.600   5.153  0.3101  0.3147 -0.0816
39149SOL    HW127761   4.511   4.584   5.058  0.3484  2.0181 -0.4046
39149SOL    HW227762   4.581   4.549   5.188  0.6991  0.1670 -1.0551
39150SOL     OW27763   7.672   1.652  10.987 -0.3627  0.1775  1.0965
39150SOL    HW127764   7.597   1.676  11.041 -2.5202  0.7893 -1.9100
39150SOL    HW227765   7.670   1.713  10.913  3.1194  0.1811  0.8058
39151SOL     OW27766   4.797   2.613   9.217  0.2753  0.7786 -0.2842
39151SOL    HW127767   4.702   2.612   9.213  0.1392  2.0997  1.4790
39151SOL    HW227768   4.823   2.682   9.156  0.0966  0.6305 -0.5302
39152SOL     OW27769  11.470   6.707  10.596 -0.1546 -0.3839 -0.4830
39152SOL    HW127770  11.500   6.639  10.657 -0.3415 -0.1547 -0.1290
39152SOL    HW227771  11.405   6.663  10.541  1.6225 -1.2130 -2.0407
39153SOL     OW27772  11.109  10.240  11.622  0.0290 -0.2331  0.5110
39153SOL    HW127773  11.121  10.198  11.537 -1.2681 -0.4180  0.3931
39153SOL    HW227774  11.192  10.226  11.668 -0.1140 -2.4032  0.2280
39154SOL     OW27775   0.100   6.994   4.168  0.0241  0.3189  0.2047
39154SOL    HW127776   0.191   7.017   4.150  0.4337 -0.8553  0.6989
39154SOL    HW227777   0.059   6.991   4.081 -0.0496  2.7517  0.1052
39155SOL     OW27778   5.237   3.441   4.896 -0.2893 -0.2949 -0.3565
39155SOL    HW127779   5.273   3.352   4.895  0.9673  0.1423  0.9701
39155SOL    HW227780   5.314   3.497   4.908 -1.0521  0.9891 -1.2095
39156SOL     OW27781   6.720   2.438   8.181 -0.3963  0.0245  0.2414
39156SOL    HW127782   6.801   2.392   8.159 -0.0541  1.6551 -2.1824
39156SOL    HW227783   6.653   2.369   8.184  0.9548 -1.3136  2.0653
39157SOL     OW27784  10.444  12.006   5.968  0.2365 -0.1129 -0.0449
39157SOL    HW127785  10.375  11.969   5.911  1.7486 -0.1198 -1.9687
39157SOL    HW227786  10.443  11.949   6.045  0.0485 -1.9811 -1.3400
39158SOL     OW27787  11.169   4.503   2.406  0.0873  0.0926  0.3315
39158SOL    HW127788  11.085   4.547   2.390  0.5586  0.1150 -2.4259
39158SOL    HW227789  11.146   4.427   2.459 -1.7191  0.0084 -0.4989
39159SOL     OW27790   3.944  12.561   5.718  0.2261 -0.6835 -0.0105
39159SOL    HW127791   3.902  12.476   5.709 -0.7435 -0.0904 -1.5307
39159SOL    HW227792   3.973  12.583   5.629  1.7569 -0.0529  0.6026
39160SOL     OW27793   6.531   0.222  10.162 -0.1834  0.0633  0.0709
39160SOL    HW127794   6.624   0.228  10.183  0.2910  3.1362 -2.2854
39160SOL    HW227795   6.529   0.189  10.072 -1.1987  1.7836 -0.5831
39161SOL     OW27796  12.454   1.994   1.178  0.4165  0.0377  0.8419
39161SOL    HW127797  12.550   1.992   1.172  0.3468 -0.3348 -0.5638
39161SOL    HW227798  12.436   2.060   1.245  1.6300  1.7313 -0.4163
39162SOL     OW27799   4.232   7.262   3.746 -0.1417  0.3101 -0.2593
39162SOL    HW127800   4.297   7.256   3.676 -0.7918 -0.2949 -0.8232
39162SOL    HW227801   4.167   7.324   3.714 -1.1339 -0.9520 -0.7950
39163SOL     OW27802   0.366   1.660   0.821 -0.6184  0.6089  0.0916
39163SOL    HW127803   0.448   1.618   0.795 -0.7788  0.1876  0.2580
39163SOL    HW227804   0.391   1.749   0.843 -0.6054  1.3049 -2.3897
39164SOL     OW27805   2.414   9.079   5.100  0.3396 -0.3239  0.4476
39164SOL    HW127806   2.408   9.051   5.009  0.9204 -1.6147  0.7760
39164SOL    HW227807   2.361   9.014   5.148 -1.0288  1.0774  0.9126
39165SOL     OW27808  11.421  10.614   9.954  0.2266 -0.0799  0.0503
39165SOL    HW127809  11.473  10.634   9.876  1.6433  1.9183  1.4023
39165SOL    HW227810  11.338  10.660   9.938  0.9732  1.4074  0.1949
39166SOL     OW27811  10.566   4.386   7.103 -0.2989 -0.3332 -0.9050
39166SOL    HW127812  10.532   4.317   7.046  0.2083 -1.3786  0.0046
39166SOL    HW227813  10.661   4.371   7.105  0.0386  1.3792 -1.9152
39167SOL     OW27814   2.593  12.048   1.885 -0.0844  0.5104 -0.0867
39167SOL    HW127815   2.651  12.052   1.809 -1.2481 -1.8892 -1.2228
39167SOL    HW227816   2.525  11.985   1.860 -1.4916  0.9376  2.3188
39168SOL     OW27817   2.218   4.765   6.472  0.6249 -0.2761  0.2547
39168SOL    HW127818   2.175   4.697   6.524 -0.4326 -0.7114 -1.1214
39168SOL    HW227819   2.296   4.723   6.437  0.1231 -0.7195 -0.3588
39169SOL     OW27820   8.201   3.581   1.127 -0.1980 -0.3423  0.0934
39169SOL    HW127821   8.246   3.659   1.096  0.8931 -0.8195  0.4276
39169SOL    HW227822   8.249   3.508   1.088 -0.1195 -0.8875  1.1613
39170SOL     OW27823   2.082  10.729   0.902 -0.4880 -0.2906 -0.0639
39170SOL    HW127824   2.005  10.763   0.857 -1.2019 -0.6590  0.8543
39170SOL    HW227825   2.073  10.634   0.897 -1.3575 -0.3711  2.0767
39171SOL     OW27826   8.648   9.383   9.766  0.0597  0.1124  0.1380
39171SOL    HW127827   8.735   9.385   9.806  0.4653  1.9099 -0.6990
39171SOL    HW227828   8.588   9.382   9.840  0.7826 -1.0987  0.7355
39172SOL     OW27829   7.412   9.737   2.207 -0.0758  0.0808 -0.1360
39172SOL    HW127830   7.339   9.768   2.261  0.2519 -0.4203  0.6054
39172SOL    HW227831   7.374   9.728   2.120 -1.0394 -0.6245  0.3375
39173SOL     OW27832   5.622   9.281  11.907  0.2319  0.5129 -0.1638
39173SOL    HW127833   5.626   9.224  11.984  0.9882  1.9186  0.9094
39173SOL    HW227834   5.529   9.288  11.887 -0.0808  0.9025  1.2696
39174SOL     OW27835   6.564   4.436   2.644 -0.0438  0.0621 -0.2170
39174SOL    HW127836   6.541   4.388   2.564  1.9964  1.4038 -1.7128
39174SOL    HW227837   6.627   4.380   2.688 -0.5304 -0.2985  0.0320
39175SOL     OW27838   1.249   2.611   8.388 -0.3342 -0.2169  0.6477
39175SOL    HW127839   1.206   2.620   8.473  0.8650  1.1251  1.1482
39175SOL    HW227840   1.342   2.599   8.409 -0.0543 -0.1242 -0.4679
39176SOL     OW27841   8.203  11.505   1.850  0.3955  0.0779 -0.0343
39176SOL    HW127842   8.279  11.556   1.821  1.9228 -1.6525  0.7177
39176SOL    HW227843   8.133  11.528   1.789  1.8075  0.9633 -1.3791
39177SOL     OW27844   7.838  10.772   3.548  0.0572  0.4436  0.3502
39177SOL    HW127845   7.807  10.707   3.485  1.1635 -0.2187  0.4727
39177SOL    HW227846   7.791  10.751   3.629  0.4959 -0.2940  0.4231
39178SOL     OW27847   7.153   3.574   5.870 -0.0944  0.1817 -0.3612
39178SOL    HW127848   7.103   3.645   5.911  0.4880  0.4904 -0.1688
39178SOL    HW227849   7.125   3.496   5.917  0.4571  0.5114  0.5605
39179SOL     OW27850  10.462   3.794  11.668  0.3848 -0.0804  0.6061
39179SOL    HW127851  10.504   3.848  11.600  0.2136 -0.3799  0.2553
39179SOL    HW227852  10.492   3.705  11.649  0.2183 -0.1868  0.8364
39180SOL     OW27853   5.967  11.815  10.600  0.3296 -0.1722  0.0978
39180SOL    HW127854   6.032  11.844  10.537  1.8025 -2.0775  0.6591
39180SOL    HW227855   5.887  11.804  10.549  0.9933  0.1649 -1.0393
39181SOL     OW27856   6.787   3.390   8.314  0.1740 -0.0642  0.1246
39181SOL    HW127857   6.814   3.462   8.370 -2.7568  1.9613 -0.8114
39181SOL    HW227858   6.855   3.385   8.247  0.2199  2.2437 -0.0766
39182SOL     OW27859   0.047  12.482   0.467  0.1613 -0.0236 -0.1115
39182SOL    HW127860   0.013  12.558   0.514  0.9055  0.9306 -1.0557
39182SOL    HW227861   0.139  12.477   0.493  0.5434  0.4164 -1.2796
39183SOL     OW27862   6.340  12.049   6.381 -0.1775  0.1412 -0.5211
39183SOL    HW127863   6.395  12.108   6.433  1.1173 -1.7953  0.4176
39183SOL    HW227864   6.376  12.054   6.293 -1.3118  2.1592 -0.9354
39184SOL     OW27865   4.476   5.316   6.474 -0.2564 -0.2105  0.1638
39184SOL    HW127866   4.414   5.362   6.530  1.1319  1.0727  0.7124
39184SOL    HW227867   4.551   5.375   6.467  1.0639 -1.8388 -0.1860
39185SOL     OW27868   1.717   3.914   2.703 -0.1887 -0.4866 -0.2655
39185SOL    HW127869   1.622   3.915   2.710 -0.1121  0.5121  1.1447
39185SOL    HW227870   1.747   3.952   2.786  1.4356 -0.7453 -0.7037
39186SOL     OW27871   9.099  11.315   0.790  0.7045 -0.5414 -0.3180
39186SOL    HW127872   9.060  11.351   0.869  1.2500 -1.2726  0.2920
39186SOL    HW227873   9.055  11.232   0.775  0.1082 -0.0865 -1.1962
39187SOL     OW27874  12.965   8.361  11.594 -0.2077 -0.0806  0.3719
39187SOL    HW127875  12.907   8.285  11.602  0.8920 -0.8640  1.1952
39187SOL    HW227876  13.006   8.368  11.679  0.9512  0.4199 -0.2151
39188SOL     OW27877  11.199  12.622   4.517  0.2352 -0.2947 -0.0287
39188SOL    HW127878  11.126  12.646   4.460  0.4782 -0.8523 -0.5896
39188SOL    HW227879  11.158  12.578   4.591 -0.1609  1.2200  0.6950
39189SOL     OW27880   8.592   1.105   5.312  0.4998 -0.1831  0.5790
39189SOL    HW127881   8.508   1.123   5.354  0.2033 -0.4142  0.1030
39189SOL    HW227882   8.569   1.086   5.221  1.0448 -0.5125  0.5056
39190SOL     OW27883  10.451   5.378   3.430 -0.7706 -0.4859 -0.0787
39190SOL    HW127884  10.428   5.412   3.517 -1.8731  0.8688 -0.8755
39190SOL    HW227885  10.455   5.455   3.374  0.6166 -1.2700 -1.1243
39191SOL     OW27886  10.147   7.989   9.847  0.3154 -0.0242  0.5291
39191SOL    HW127887  10.115   7.982   9.757  0.4173 -1.1539  0.5690
39191SOL    HW227888  10.242   7.976   9.839  0.4833  1.0312  0.6744
39192SOL     OW27889   5.213   2.905   4.150  0.3714 -0.1277 -0.2484
39192SOL    HW127890   5.118   2.902   4.138  0.4727  1.1510 -1.6830
39192SOL    HW227891   5.249   2.867   4.070  1.0746 -0.2773  0.1286
39193SOL     OW27892  12.639  12.007  10.456 -0.1231 -0.6197  0.1454
39193SOL    HW127893  12.553  12.048  10.447 -0.1545 -0.6859  0.1399
39193SOL    HW227894  12.622  11.924  10.502 -0.0981 -0.7613 -0.0980
39194SOL     OW27895   1.666   0.783  12.043  0.2995  0.3893 -0.2398
39194SOL    HW127896   1.693   0.717  12.108 -0.2522 -0.3484 -0.7411
39194SOL    HW227897   1.639   0.732  11.967 -2.4389  1.0456  0.2049
39195SOL     OW27898  11.420   7.695  11.546 -0.2830  0.4371  0.2982
39195SOL    HW127899  11.367   7.774  11.542  0.8053  1.1578 -0.6014
39195SOL    HW227900  11.510   7.726  11.555  0.0848 -0.7292  0.9451
39196SOL     OW27901   6.405   9.419   9.484 -0.0660 -0.2586 -0.3376
39196SOL    HW127902   6.460   9.495   9.463  0.0673 -0.3370 -0.2730
39196SOL    HW227903   6.344   9.413   9.411 -1.9337  1.6153  0.9584
39197SOL     OW27904  12.288   6.702   3.897  0.4471 -0.3171  0.5535
39197SOL    HW127905  12.284   6.759   3.819 -0.1185  1.8364  2.0665
39197SOL    HW227906  12.196   6.683   3.917  0.6297 -1.6315  0.1877
39198SOL     OW27907   3.578   5.953  12.883 -0.8739 -0.3843  0.1352
39198SOL    HW127908   3.592   5.944  12.789  0.8720 -3.3457  0.5578
39198SOL    HW227909   3.490   5.920  12.897 -0.5052 -1.6180 -0.3144
39199SOL     OW27910   3.874   8.272   7.364 -0.1212  0.1469 -0.4996
39199SOL    HW127911   3.910   8.189   7.398  0.2344  0.7784  0.7112
39199SOL    HW227912   3.810   8.299   7.429 -0.2192  0.8462 -0.8826
39200SOL     OW27913   2.099  12.837   8.088  0.0571 -0.2802  0.4854
39200SOL    HW127914   2.052  12.878   8.161 -0.3727  0.1676 -0.0342
39200SOL    HW227915   2.090  12.743   8.104  0.4951 -0.1916  1.3369
39201SOL     OW27916   0.510   1.029   4.321  0.2751  0.1558 -0.0787
39201SOL    HW127917   0.424   1.065   4.300  0.3214  0.7723  0.7445
39201SOL    HW227918   0.571   1.101   4.306  0.6110 -0.1687 -0.3049
39202SOL     OW27919  11.582   0.306   2.169  0.4958  0.8140  0.0328
39202SOL    HW127920  11.624   0.224   2.194  0.4194  0.8497  0.2801
39202SOL    HW227921  11.500   0.279   2.127 -0.0413  0.7835  1.0555
39203SOL     OW27922   9.307   7.633   1.094 -0.2532 -0.0146 -0.0289
39203SOL    HW127923   9.378   7.689   1.064  0.0547 -0.5904 -0.3960
39203SOL    HW227924   9.228   7.674   1.059 -0.0588  0.3361 -0.0660
39204SOL     OW27925   6.153   8.591   4.185  0.1511  0.2554  0.5380
39204SOL    HW127926   6.071   8.546   4.205 -0.2410  1.5040  1.8602
39204SOL    HW227927   6.170   8.567   4.094 -0.7666 -1.4000  0.7447
39205SOL     OW27928   3.955   4.927   2.482 -0.2556 -0.5281  0.2191
39205SOL    HW127929   3.936   4.990   2.552  0.5925 -0.2006  0.1752
39205SOL    HW227930   4.017   4.866   2.522 -1.1620 -1.4225  0.2966
39206SOL     OW27931   3.063  11.923   1.351  0.0953 -0.3212  0.4125
39206SOL    HW127932   3.034  11.926   1.442  0.0258 -0.0851  0.3833
39206SOL    HW227933   3.107  12.007   1.337 -0.4469 -0.0891  0.0493
39207SOL     OW27934  11.545   1.980   0.100  0.1933 -0.4173  0.2422
39207SOL    HW127935  11.628   1.996   0.145 -0.1247 -2.3269  1.6103
39207SOL    HW227936  11.528   1.887   0.113 -1.0612 -0.5491 -1.9718
39208SOL     OW27937  10.604   9.980   0.710  0.0153  0.3831  0.5948
39208SOL    HW127938  10.607  10.033   0.631 -0.2785 -0.4892 -0.0221
39208SOL    HW227939  10.514   9.989   0.742 -0.3912 -0.6739 -0.1897
39209SOL     OW27940   2.252   8.704   8.657  0.0207  0.0209 -0.1274
39209SOL    HW127941   2.247   8.757   8.737 -0.7671 -1.9141  1.1768
39209SOL    HW227942   2.340   8.722   8.623  1.8377 -1.6438  3.1271
39210SOL     OW27943   6.557   0.464   1.195 -0.1371 -0.1712  0.0505
39210SOL    HW127944   6.618   0.438   1.126  1.3093 -0.1483  1.2720
39210SOL    HW227945   6.596   0.431   1.276 -1.2601  0.6897  0.9798
39211SOL     OW27946   6.677   0.267   2.488 -0.0316  0.1908  1.0872
39211SOL    HW127947   6.750   0.252   2.429  0.1449 -0.8529  1.5580
39211SOL    HW227948   6.702   0.346   2.537  0.8219 -0.2031  1.3029
39212SOL     OW27949   5.580   2.439   1.211 -0.2290 -0.3389 -0.1678
39212SOL    HW127950   5.662   2.395   1.188  0.1805 -0.0875  0.7879
39212SOL    HW227951   5.553   2.483   1.130 -0.9542 -2.7618 -1.3737
39213SOL     OW27952  12.657   8.316   1.999 -0.0050  0.0868 -0.5970
39213SOL    HW127953  12.682   8.305   1.907  0.0422  0.1383 -0.5907
39213SOL    HW227954  12.650   8.227   2.033  0.9416  0.0871 -0.3902
39214SOL     OW27955  11.929   0.877   4.048 -0.4704 -0.0308  0.0941
39214SOL    HW127956  12.002   0.884   4.111  0.2116  2.2280 -0.8569
39214SOL    HW227957  11.971   0.849   3.967 -0.6432  1.1299 -0.4184
39215SOL     OW27958   0.264   7.672   0.861  0.2739 -0.5475 -0.1020
39215SOL    HW127959   0.279   7.583   0.892 -0.0517 -1.4965 -2.4818
39215SOL    HW227960   0.351   7.712   0.858  0.6271 -1.3521 -0.6435
39216SOL     OW27961   4.892   7.512   4.738 -0.1983 -0.3077 -0.6025
39216SOL    HW127962   4.866   7.586   4.683 -1.5175  1.9577  2.7464
39216SOL    HW227963   4.890   7.547   4.827  0.4130 -4.0758  1.0621
39217SOL     OW27964   1.162   0.439   7.622  0.2906 -0.2818  0.1471
39217SOL    HW127965   1.097   0.453   7.553 -0.1552 -0.3843  0.5388
39217SOL    HW227966   1.243   0.419   7.575  0.3836  1.2188 -0.3700
39218SOL     OW27967   5.754   4.780   2.749 -0.4591 -0.2184  0.1784
39218SOL    HW127968   5.795   4.846   2.804 -0.8230  0.8659 -0.8060
39218SOL    HW227969   5.823   4.756   2.686 -1.0451  1.0179 -0.9746
39219SOL     OW27970   1.101   7.352   3.667  0.1999 -0.4343  0.1989
39219SOL    HW127971   1.113   7.388   3.754 -0.0381  0.0596  0.0353
39219SOL    HW227972   1.015   7.309   3.670 -1.1218  1.9855 -0.5494
39220SOL     OW27973   0.174  10.582   6.566 -0.7067  0.1068 -0.3584
39220SOL    HW127974   0.160  10.557   6.475 -0.3259 -1.3208 -0.0541
39220SOL    HW227975   0.094  10.628   6.591 -0.5061  1.1947 -1.6130
39221SOL     OW27976   4.795  12.509   4.148 -0.3278  0.0813  0.1101
39221SOL    HW127977   4.734  12.507   4.074  1.1070  1.0847 -1.1731
39221SOL    HW227978   4.879  12.484   4.110  0.0205 -1.7156  1.9276
39222SOL     OW27979  10.045   0.290  11.265  0.5180 -0.0088 -0.5304
39222SOL    HW127980  10.132   0.250  11.255 -0.0569 -1.4365 -0.0393
39222SOL    HW227981   9.990   0.242  11.203 -0.6007 -1.2801  1.3717
39223SOL     OW27982  10.484   9.919  10.185 -0.7202 -0.1747  0.6582
39223SOL    HW127983  10.396   9.911  10.221 -1.2654  1.6847 -0.1341
39223SOL    HW227984  10.471   9.935  10.092  0.4612 -0.1275  0.4829
39224SOL     OW27985   9.872   1.892   1.668 -0.0494 -0.0159 -0.1463
39224SOL    HW127986   9.919   1.818   1.706  1.5151  1.2653  0.5374
39224SOL    HW227987   9.858   1.868   1.576  0.0217 -1.3147  0.1668
39225SOL     OW27988   2.600   2.459   2.957  0.5168  0.5331 -0.0849
39225SOL    HW127989   2.662   2.393   2.986 -0.4747 -0.1477  0.5462
39225SOL    HW227990   2.514   2.417   2.964  0.0523  0.9516 -2.2957
39226SOL     OW27991   8.576  10.295  11.493 -0.4645 -0.1637  0.1986
39226SOL    HW127992   8.529  10.260  11.417 -1.5793 -0.2031  0.8803
39226SOL    HW227993   8.593  10.387  11.470  1.0884 -0.7151 -0.9532
39227SOL     OW27994  10.858   4.350  12.239  0.3381 -0.3840 -0.1144
39227SOL    HW127995  10.853   4.254  12.230 -0.6253 -0.5646  1.7158
39227SOL    HW227996  10.936   4.375  12.190 -0.0537 -1.9617 -1.6256
39228SOL     OW27997   0.563   7.787   4.120 -0.1886 -0.0862 -0.5177
39228SOL    HW127998   0.639   7.767   4.174 -1.1054 -0.0165  0.8370
39228SOL    HW227999   0.538   7.876   4.145 -0.4083  0.0975 -1.3467
39229SOL     OW28000  11.173  12.282   6.941 -0.0877 -0.5224 -0.9245
39229SOL    HW128001  11.132  12.245   7.019 -0.9609  1.0556 -0.5925
39229SOL    HW228002  11.172  12.210   6.877  0.5889 -1.8119  0.4598
39230SOL     OW28003   4.203   7.273   3.092  0.3251 -0.0443  0.2982
39230SOL    HW128004   4.181   7.271   3.185 -0.1514  1.1294  0.2381
39230SOL    HW228005   4.123   7.244   3.048  0.5765 -0.6743  0.2599
39231SOL     OW28006   8.041   1.904   9.831  0.3944  0.0783 -0.1049
39231SOL    HW128007   7.990   1.852   9.768 -0.8105  0.6608  0.3548
39231SOL    HW228008   8.003   1.881   9.916 -1.2401  2.8026  0.0010
39232SOL     OW28009   9.031   1.555  11.368  0.1931 -0.4350 -0.5643
39232SOL    HW128010   9.008   1.563  11.461  1.1918 -0.6324 -0.2936
39232SOL    HW228011   9.070   1.468  11.361  1.4064  0.1277 -0.8917
39233SOL     OW28012   0.174   2.665   5.912  0.4486  0.7557 -0.1214
39233SOL    HW128013   0.263   2.670   5.878  0.8758 -2.1747  0.3665
39233SOL    HW228014   0.183   2.678   6.006  0.4425  0.0085 -0.0123
39234SOL     OW28015   8.594  10.947   6.580 -0.1755  0.4191 -0.7099
39234SOL    HW128016   8.531  10.990   6.638  0.5870  0.6134  0.0116
39234SOL    HW228017   8.567  10.972   6.492 -2.3059 -1.1707 -0.5870
39235SOL     OW28018   7.498  12.723  10.096 -0.0464  0.1669 -0.2537
39235SOL    HW128019   7.461  12.792  10.040 -1.1895 -0.8404 -0.7926
39235SOL    HW228020   7.443  12.723  10.174 -0.4609 -0.5364 -0.5324
39236SOL     OW28021   4.878   9.390   3.448 -0.4242  0.3409  0.0668
39236SOL    HW128022   4.806   9.447   3.421  0.5274  1.8162  0.5027
39236SOL    HW228023   4.877   9.394   3.543  0.8659  1.2528  0.0689
39237SOL     OW28024  12.052  12.070  12.473  0.0134  0.6955  0.0631
39237SOL    HW128025  12.107  12.135  12.429 -0.2138  1.2475  0.5903
39237SOL    HW228026  12.041  12.000  12.408 -0.5056  1.6027 -0.8524
39238SOL     OW28027   5.900   8.217   0.996  0.1199  0.2889 -0.5806
39238SOL    HW128028   5.866   8.247   0.911  0.7509 -0.4431 -1.0975
39238SOL    HW228029   5.822   8.186   1.042 -0.0835 -0.3329 -1.3201
39239SOL     OW28030   6.283   4.634   6.266  0.0311  0.4087 -0.0603
39239SOL    HW128031   6.351   4.586   6.314  0.8907  1.3657 -0.3072
39239SOL    HW228032   6.221   4.662   6.333  0.5197  0.5731  0.3247
39240SOL     OW28033   6.091   6.982  10.496  0.0565  0.2506  0.8747
39240SOL    HW128034   6.036   6.985  10.574 -0.5656  0.3333  0.4406
39240SOL    HW228035   6.138   7.065  10.496  0.4435  0.0352  1.4326
39241SOL     OW28036   6.940  12.168   3.269 -0.2658  0.2582  0.2500
39241SOL    HW128037   6.911  12.206   3.186  0.2019 -0.0559 -0.0589
39241SOL    HW228038   7.028  12.202   3.283 -0.2168  0.0562  0.4556
39242SOL     OW28039   0.901   0.743  11.769 -0.1818 -0.1094 -0.0561
39242SOL    HW128040   0.815   0.743  11.811 -0.6745  0.2913 -1.0220
39242SOL    HW228041   0.918   0.652  11.747 -0.1892 -0.2384  0.4693
39243SOL     OW28042   5.416   0.383   9.513  0.2063  0.2843  0.4531
39243SOL    HW128043   5.385   0.302   9.555 -0.7198  0.5719  0.3448
39243SOL    HW228044   5.348   0.404   9.449 -0.6371  2.2821  1.9243
39244SOL     OW28045   4.447   5.514   8.165  0.3393 -0.0645 -0.0974
39244SOL    HW128046   4.438   5.463   8.085  0.2995 -1.4880  0.7904
39244SOL    HW228047   4.533   5.555   8.158  0.9066 -1.2686 -0.2598
39245SOL     OW28048   7.758  10.666   5.092  0.1794  0.6958  0.1164
39245SOL    HW128049   7.704  10.684   5.168 -0.5181 -0.0060 -0.2000
39245SOL    HW228050   7.742  10.574   5.072  1.8660  0.3264  0.3084
39246SOL     OW28051  10.030   2.338   6.675  0.0063 -0.8771 -0.3508
39246SOL    HW128052  10.080   2.299   6.746  1.9248  0.2377 -1.0043
39246SOL    HW228053  10.041   2.277   6.602 -0.0085 -0.8926 -0.3399
39247SOL     OW28054   3.231   9.714   8.764  0.3259 -0.1635 -0.0075
39247SOL    HW128055   3.300   9.764   8.807 -0.2128 -0.7275  1.5784
39247SOL    HW228056   3.151   9.742   8.808 -0.1021 -1.6696  0.1962
39248SOL     OW28057   8.007  11.206  11.786 -0.3899  0.4639  0.3192
39248SOL    HW128058   8.083  11.170  11.833 -1.1412 -0.4340  0.8678
39248SOL    HW228059   7.938  11.210  11.852 -1.4000 -0.5938 -0.6396
39249SOL     OW28060   1.315   5.084   5.394 -0.2427  0.4160 -0.0575
39249SOL    HW128061   1.223   5.097   5.418 -0.6738 -2.0847 -0.1058
39249SOL    HW228062   1.320   5.112   5.303 -1.0145  0.4175 -0.1068
39250SOL     OW28063  10.521   2.817   4.275 -0.5733  0.2254  0.2840
39250SOL    HW128064  10.528   2.788   4.366 -0.4607 -0.6060  0.0232
39250SOL    HW228065  10.592   2.881   4.265  0.5130 -0.9151  0.3346
39251SOL     OW28066   3.630   5.508  10.301  0.2752 -0.1322  0.1306
39251SOL    HW128067   3.718   5.525  10.269  0.1086  0.5092 -0.0007
39251SOL    HW228068   3.621   5.567  10.376 -0.5380  0.8637 -0.7150
39252SOL     OW28069  10.344  12.795  10.513 -0.5271 -0.1573  0.5009
39252SOL    HW128070  10.250  12.809  10.513 -0.7572 -1.5711  0.0492
39252SOL    HW228071  10.372  12.816  10.424 -0.3742  0.4349  0.6828
39253SOL     OW28072   4.565   3.925  10.646  0.1759 -0.3286 -0.1824
39253SOL    HW128073   4.616   3.961  10.573  2.0301 -0.8676  0.7601
39253SOL    HW228074   4.565   3.995  10.712  0.9627 -0.8357  0.3748
39254SOL     OW28075   1.963   8.849   9.661  0.1640 -0.0190 -0.5832
39254SOL    HW128076   1.873   8.829   9.685 -0.3671  1.5172 -1.1731
39254SOL    HW228077   2.016   8.809   9.730 -1.0103 -0.0910  0.3075
39255SOL     OW28078   5.332  10.032   6.614  0.6221 -0.3021  0.3953
39255SOL    HW128079   5.321  10.009   6.707  0.2623 -1.0485  0.1731
39255SOL    HW228080   5.427  10.040   6.603  0.6019  1.9018  1.3136
39256SOL     OW28081   1.622   1.041   2.750  0.3477  0.2032  0.3657
39256SOL    HW128082   1.705   0.997   2.768  0.0333  0.1991  1.8895
39256SOL    HW228083   1.647   1.126   2.714  1.0038  0.0054  0.3483
39257SOL     OW28084   6.678  11.333   0.895 -0.2667  0.2082 -0.1605
39257SOL    HW128085   6.585  11.353   0.888 -0.1657  0.5685 -0.4873
39257SOL    HW228086   6.686  11.245   0.858 -0.1080  1.1350 -2.4739
39258SOL     OW28087   0.818   2.554   7.048 -0.2286 -0.1703  0.1410
39258SOL    HW128088   0.823   2.483   7.113  0.8231  1.0563  1.4842
39258SOL    HW228089   0.908   2.588   7.044 -0.4206  0.2157 -1.5124
39259SOL     OW28090   4.923   8.427   5.564 -0.2325 -0.8645  0.4003
39259SOL    HW128091   4.862   8.354   5.561 -0.5994 -0.5186 -1.3954
39259SOL    HW228092   4.873   8.503   5.534  0.2938  0.0338  1.6985
39260SOL     OW28093  12.480   7.008   5.697 -0.2416  0.5596  0.7417
39260SOL    HW128094  12.483   6.941   5.629  0.3394  2.0022 -0.7370
39260SOL    HW228095  12.404   6.987   5.750 -1.7957  0.3688 -1.4502
39261SOL     OW28096  11.954   4.337   7.413  0.8186 -0.5623  0.0548
39261SOL    HW128097  11.891   4.395   7.457  1.7600  2.1531 -1.8925
39261SOL    HW228098  11.936   4.349   7.320  2.0789 -2.3099 -0.4678
39262SOL     OW28099   1.749  12.204   8.773  0.5403  0.2517 -0.6701
39262SOL    HW128100   1.689  12.141   8.733 -0.5662  0.9548 -0.1654
39262SOL    HW228101   1.827  12.200   8.719  0.7670 -2.0138 -0.2925
39263SOL     OW28102  11.861  11.063   8.914 -0.6580 -0.3939  0.5581
39263SOL    HW128103  11.897  10.975   8.908  1.4636  0.2310  2.6446
39263SOL    HW228104  11.873  11.100   8.826  1.1096 -1.2395  0.4038
39264SOL     OW28105   0.120  11.527   0.129 -0.5256  0.4229 -0.1308
39264SOL    HW128106   0.094  11.470   0.201 -0.5801 -1.4155 -1.5517
39264SOL    HW228107   0.038  11.562   0.095 -0.4984  1.3182  0.6813
39265SOL     OW28108   6.611   0.901   8.817  0.5071 -0.0958 -0.1228
39265SOL    HW128109   6.661   0.880   8.896  0.6066 -0.1552 -0.2011
39265SOL    HW228110   6.664   0.865   8.746  0.7354  0.5148 -0.2691
39266SOL     OW28111   6.345   7.898   8.313 -0.3388 -0.2468  0.2281
39266SOL    HW128112   6.336   7.831   8.381 -0.5973 -0.5285 -0.0807
39266SOL    HW228113   6.392   7.970   8.356 -0.8208 -0.2760  0.8060
39267SOL     OW28114   2.984   4.684  11.495  0.1316 -0.4348  0.1152
39267SOL    HW128115   3.042   4.637  11.555  0.3579 -1.0622 -0.5793
39267SOL    HW228116   3.030   4.681  11.411  0.6407  1.9194  0.2426
39268SOL     OW28117  12.895  11.510   5.725 -0.1127  0.3616 -0.2590
39268SOL    HW128118  12.872  11.568   5.653 -0.3343  1.2430  0.5042
39268SOL    HW228119  12.982  11.539   5.752 -0.3462  0.5382  0.3141
39269SOL     OW28120  12.880   7.372   8.516 -0.4063  0.2151 -0.4388
39269SOL    HW128121  12.893   7.289   8.561 -3.1592 -0.2899 -0.3854
39269SOL    HW228122  12.918   7.438   8.574 -0.0749 -0.8070  0.5213
39270SOL     OW28123   4.493   7.633   0.899  0.0993  0.1230 -0.1663
39270SOL    HW128124   4.588   7.617   0.899  0.0124 -0.4316  0.0894
39270SOL    HW228125   4.474   7.656   0.990  0.3616  2.6660 -0.6963
39271SOL     OW28126  10.362   7.245   4.017  0.2296 -0.3079 -0.4506
39271SOL    HW128127  10.425   7.303   4.060  2.1671 -1.3055 -1.8039
39271SOL    HW228128  10.398   7.157   4.030 -1.6775 -1.0890 -0.0379
39272SOL     OW28129  12.775   8.071   7.383  0.0578 -0.1519 -0.7487
39272SOL    HW128130  12.818   8.005   7.328 -0.6008 -0.6718 -0.6488
39272SOL    HW228131  12.685   8.075   7.350 -0.7368 -1.4181  1.0719
39273SOL     OW28132   9.862   1.905   8.390  0.4372  0.3969 -0.5637
39273SOL    HW128133   9.788   1.951   8.348  1.1089  0.6839 -1.4762
39273SOL    HW228134   9.857   1.930   8.482 -0.9454 -0.0538 -0.4816
39274SOL     OW28135  11.242   3.018   5.528  0.0447 -0.5927 -0.6705
39274SOL    HW128136  11.309   2.949   5.526  0.0902 -0.5841  0.1113
39274SOL    HW228137  11.274   3.080   5.594 -0.9211 -0.7984  0.0065
39275SOL     OW28138   9.734   0.171  12.740 -0.2505 -0.4608  0.5632
39275SOL    HW128139   9.724   0.104  12.807 -1.8896  0.2490  1.0827
39275SOL    HW228140   9.645   0.187  12.709  0.2272  0.7760 -0.2424
39276SOL     OW28141   7.074   4.951  12.191  0.1697  0.8135  0.3409
39276SOL    HW128142   7.104   4.867  12.224 -0.1645  0.9015  0.8790
39276SOL    HW228143   7.021   4.930  12.114 -0.4461  0.4801  0.8483
39277SOL     OW28144  11.238   0.150  11.248  0.3741  0.1875  0.4837
39277SOL    HW128145  11.237   0.231  11.300 -0.0122  1.3118 -1.2065
39277SOL    HW228146  11.216   0.178  11.160  2.4509 -1.4514 -0.6384
39278SOL     OW28147   2.236   2.123   3.601  0.0027  0.1810 -0.0413
39278SOL    HW128148   2.234   2.041   3.552 -0.6129  0.2327 -0.1045
39278SOL    HW228149   2.148   2.132   3.637 -0.2166  1.2740 -0.8079
39279SOL     OW28150   6.139   6.246   5.234 -0.8039 -0.0081  0.0498
39279SOL    HW128151   6.059   6.298   5.229 -0.5041  0.5102  0.4758
39279SOL    HW228152   6.147   6.205   5.148 -1.0491  0.6458 -0.2895
39280SOL     OW28153  12.445   2.143   3.008 -0.3441  0.0280 -0.1660
39280SOL    HW128154  12.453   2.050   3.030  2.3331  0.1163 -0.4100
39280SOL    HW228155  12.427   2.186   3.092 -2.2764 -0.7114 -0.1483
39281SOL     OW28156  10.785  11.756   2.461  0.0181  0.0408 -0.8298
39281SOL    HW128157  10.817  11.729   2.548 -0.0973  0.6210 -0.6045
39281SOL    HW228158  10.864  11.762   2.408  0.1339  0.0648 -0.6574
39282SOL     OW28159   7.595   6.006   5.828  0.0502 -1.0320 -0.5101
39282SOL    HW128160   7.634   6.089   5.803 -0.3125 -0.2116  1.4772
39282SOL    HW228161   7.644   5.979   5.907 -1.4365 -1.4538  0.3015
39283SOL     OW28162  11.710   6.200   4.463 -0.0780  0.2905 -0.4065
39283SOL    HW128163  11.779   6.237   4.519 -0.4711  1.3625 -0.5985
39283SOL    HW228164  11.631   6.204   4.518 -0.4884  1.4449 -1.0307
39284SOL     OW28165   2.562   3.676   7.541 -0.3096 -0.1532 -0.1020
39284SOL    HW128166   2.586   3.729   7.465 -1.8515 -0.7789 -1.0691
39284SOL    HW228167   2.596   3.589   7.520 -1.9109 -0.6542 -0.7394
39285SOL     OW28168   1.940   0.241   1.432 -1.0034 -0.2831 -0.6448
39285SOL    HW128169   1.940   0.317   1.490  0.4008 -0.0628 -0.8964
39285SOL    HW228170   1.886   0.268   1.357 -0.0708  0.7026 -0.9906
39286SOL     OW28171   5.275   1.354   2.128  0.7475  0.3279  0.2149
39286SOL    HW128172   5.285   1.315   2.041 -0.2704  0.5506 -0.0206
39286SOL    HW228173   5.357   1.401   2.143  0.6571  0.9099 -0.9525
39287SOL     OW28174   4.745   6.756  10.862 -0.1233  0.4264  0.6140
39287SOL    HW128175   4.706   6.719  10.783 -0.4590 -1.2624  1.5319
39287SOL    HW228176   4.804   6.824  10.830  1.9927 -2.1316 -1.3422
39288SOL     OW28177   8.573   4.581   0.928  0.0873  0.3904 -0.3075
39288SOL    HW128178   8.617   4.536   1.000 -0.0993  0.8118  0.0807
39288SOL    HW228179   8.498   4.625   0.970 -0.0285  0.6291 -0.7592
39289SOL     OW28180   0.949   7.004   7.064 -0.2126  0.3984 -0.4779
39289SOL    HW128181   0.934   6.948   6.988  0.1895  2.1086 -1.8998
39289SOL    HW228182   0.945   7.093   7.029  1.0029  1.2262  1.3171
39290SOL     OW28183   0.910   6.282   5.312  0.5678 -0.3232  0.0093
39290SOL    HW128184   0.824   6.287   5.354  0.3426 -1.6982 -0.2290
39290SOL    HW228185   0.895   6.318   5.224  0.1964 -0.6874 -0.0794
39291SOL     OW28186   5.724  12.181   1.499  0.9744  0.0483 -0.4865
39291SOL    HW128187   5.684  12.221   1.576 -1.7014 -2.2967 -0.4648
39291SOL    HW228188   5.666  12.205   1.427  2.0451  0.1689 -1.3261
39292SOL     OW28189  11.070  10.606   2.123  0.4151  0.4814  0.2551
39292SOL    HW128190  11.138  10.600   2.056 -2.4451  0.6637 -2.9765
39292SOL    HW228191  11.048  10.515   2.143  0.1069  0.3814 -0.4800
39293SOL     OW28192   1.752   2.259  11.217 -0.6328  0.1515  0.0121
39293SOL    HW128193   1.682   2.301  11.267  0.4377  0.9337  0.8914
39293SOL    HW228194   1.750   2.303  11.132  0.0652  1.6047  0.7056
39294SOL     OW28195  10.570   4.208   1.751  0.0427 -0.2675  0.6471
39294SOL    HW128196  10.652   4.163   1.772  0.1207 -0.1339  0.6260
39294SOL    HW228197  10.573   4.289   1.802 -0.9631 -1.1493  2.2103
39295SOL     OW28198  11.434   3.858  11.449  0.2425  0.1502 -1.2531
39295SOL    HW128199  11.421   3.885  11.540 -1.8117 -0.0295 -1.4338
39295SOL    HW228200  11.353   3.812  11.426  2.3677 -3.6158 -1.9089
39296SOL     OW28201   1.518   5.547   4.658  0.5990  0.7188  0.0780
39296SOL    HW128202   1.512   5.636   4.692 -2.7602 -0.2731  2.6877
39296SOL    HW228203   1.569   5.500   4.725 -1.9753 -0.2602  1.4728
39297SOL     OW28204   5.682   6.492   7.947  0.1692  0.1417 -0.0225
39297SOL    HW128205   5.679   6.482   7.852  3.0262 -2.0015 -0.0176
39297SOL    HW228206   5.654   6.582   7.963 -0.6720  0.4598 -2.8339
39298SOL     OW28207   8.472  12.115   8.566  0.1741  0.4298 -0.4665
39298SOL    HW128208   8.504  12.202   8.542 -1.2393  1.4688  1.2083
39298SOL    HW228209   8.543  12.077   8.619  1.8263 -0.5078 -3.1233
39299SOL     OW28210   7.612   0.535   3.618 -0.6974  0.2191  0.0348
39299SOL    HW128211   7.641   0.598   3.684 -1.1951 -0.7208  1.1847
39299SOL    HW228212   7.659   0.454   3.639  1.2203  0.5674 -2.4212
39300SOL     OW28213  12.391  10.497   7.505  0.3244  0.0443  0.1902
39300SOL    HW128214  12.469  10.471   7.554  0.7358  0.2290 -0.3529
39300SOL    HW228215  12.334  10.538   7.570  0.7691  0.0950  0.5519
39301SOL     OW28216   7.666   2.075   6.228  0.3942  0.0992 -0.1402
39301SOL    HW128217   7.710   1.991   6.241 -0.7352 -0.4092  0.6112
39301SOL    HW228218   7.578   2.051   6.197  0.1308  1.0155 -0.1337
39302SOL     OW28219   6.884   7.142   3.882 -0.7133 -0.0443  0.1518
39302SOL    HW128220   6.963   7.157   3.934  0.3846 -3.8165 -0.1858
39302SOL    HW228221   6.905   7.179   3.796  0.7024 -0.9139  0.0935
39303SOL     OW28222   6.077   3.182   5.069 -0.0969 -0.8070 -0.1834
39303SOL    HW128223   6.169   3.208   5.072 -0.7971  2.1380 -0.6529
39303SOL    HW228224   6.076   3.106   5.011  2.2691 -2.4731  1.7533
39304SOL     OW28225   6.524   7.449   3.085  0.2279 -0.4321  0.4952
39304SOL    HW128226   6.506   7.418   2.996  0.6358  1.3536 -0.2427
39304SOL    HW228227   6.439   7.482   3.116  0.2588 -0.3153  0.4569
39305SOL     OW28228   1.994   8.703   0.736 -0.5019  0.6498  0.7312
39305SOL    HW128229   2.026   8.624   0.780  1.7072 -0.6784 -2.8222
39305SOL    HW228230   1.902   8.684   0.717 -0.0613 -1.0223  0.1275
39306SOL     OW28231   3.590   1.042   9.800 -0.6706 -0.5028  0.1070
39306SOL    HW128232   3.677   1.081   9.807 -0.3330 -1.2472  0.1080
39306SOL    HW228233   3.588   0.977   9.870 -0.8464 -1.2176 -0.5573
39307SOL     OW28234  11.859   1.356  10.815  0.2306 -0.8592  0.0677
39307SOL    HW128235  11.904   1.421  10.869 -0.8571 -0.0537  0.0487
39307SOL    HW228236  11.860   1.276  10.868  2.7963 -1.2719 -0.4748
39308SOL     OW28237   0.561   5.225   8.970  0.9737  0.4714 -0.5610
39308SOL    HW128238   0.619   5.300   8.977  1.5592  0.0507 -0.8494
39308SOL    HW228239   0.619   5.149   8.969  0.3552 -0.3800  4.1824
39309SOL     OW28240   9.132  11.840  12.901 -0.0664 -0.6321 -0.2766
39309SOL    HW128241   9.134  11.753  12.941 -3.1495 -0.8773 -0.3572
39309SOL    HW228242   9.131  11.823  12.807 -1.7567 -0.6491 -0.2900
39310SOL     OW28243   2.404  12.634   5.105  0.1360 -0.4957  0.8268
39310SOL    HW128244   2.392  12.603   5.195 -0.0238  0.6588  1.2208
39310SOL    HW228245   2.423  12.728   5.114 -1.9209  0.1244 -0.4282
39311SOL     OW28246   8.839   8.446   8.700 -0.0694  0.2306 -0.2332
39311SOL    HW128247   8.874   8.535   8.695 -1.9343  0.9993 -0.1650
39311SOL    HW228248   8.834   8.417   8.609  1.4656 -0.2224 -0.2047
39312SOL     OW28249   3.881   8.891   6.664 -0.1702  1.0977  0.2607
39312SOL    HW128250   3.904   8.799   6.675 -0.9047  0.6338 -1.6856
39312SOL    HW228251   3.888   8.928   6.752 -1.5155 -1.1789  1.4162
39313SOL     OW28252   3.405   0.872   8.354  0.0275  0.4639  0.3241
39313SOL    HW128253   3.375   0.896   8.266  1.3952 -0.2924 -0.3654
39313SOL    HW228254   3.500   0.881   8.351  0.1469 -0.1310  1.5591
39314SOL     OW28255   3.759   5.102   8.249 -0.2873  0.0785  0.3280
39314SOL    HW128256   3.725   5.133   8.164 -0.8371 -0.5048  0.3260
39314SOL    HW228257   3.724   5.165   8.313  0.4314  0.7350  0.0937
39315SOL     OW28258  11.522   6.215   5.898  0.0493 -0.1865 -0.4792
39315SOL    HW128259  11.478   6.130   5.894  1.1096 -0.7799  0.1569
39315SOL    HW228260  11.612   6.198   5.870  0.1138  0.8541 -0.9669
39316SOL     OW28261   3.679   9.913   9.460 -0.0490  0.7977  0.2124
39316SOL    HW128262   3.597   9.875   9.494 -0.3572  1.4793  0.2644
39316SOL    HW228263   3.713   9.964   9.534 -0.2339  1.5271 -0.1891
39317SOL     OW28264   4.993   5.899   1.875 -0.5721  0.3082  0.5771
39317SOL    HW128265   5.044   5.901   1.795 -2.9461  1.5195 -1.0211
39317SOL    HW228266   4.941   5.818   1.869  0.9504 -0.8578  2.1221
39318SOL     OW28267   4.310   1.575   7.221 -0.0683 -0.2600 -0.0626
39318SOL    HW128268   4.351   1.661   7.230 -2.3240  0.7111  1.8088
39318SOL    HW228269   4.262   1.580   7.138  0.6058 -0.0824 -0.4472
39319SOL     OW28270   0.117   9.925   2.684  0.7892  0.0473 -0.2130
39319SOL    HW128271   0.205   9.955   2.660  1.9150 -1.8836  1.2431
39319SOL    HW228272   0.103   9.847   2.631 -0.4181  0.7613 -0.9999
39320SOL     OW28273   6.804  11.377   1.832 -0.1072  0.0424  0.1033
39320SOL    HW128274   6.743  11.335   1.772 -0.2213 -0.1715  0.3736
39320SOL    HW228275   6.800  11.325   1.912  0.2526  0.1652  0.2022
39321SOL     OW28276  10.363   0.322   4.550 -0.2539  0.3118 -1.0672
39321SOL    HW128277  10.398   0.243   4.592  0.5274  0.9081 -0.5704
39321SOL    HW228278  10.420   0.337   4.475 -0.2861  0.5002 -1.0558
39322SOL     OW28279  11.851   6.955   6.571  0.4263 -0.1712 -0.3023
39322SOL    HW128280  11.781   6.930   6.511  1.8141 -0.4508 -1.8901
39322SOL    HW228281  11.817   7.032   6.617 -0.2711  0.8396 -2.3473
39323SOL     OW28282   0.450  10.157   1.668  0.0238  0.6963 -0.1513
39323SOL    HW128283   0.481  10.104   1.595  0.4622  1.2657 -0.3809
39323SOL    HW228284   0.438  10.244   1.631  0.0828  0.9495  0.4191
39324SOL     OW28285   1.684  11.569  10.669  0.0706  0.0710  0.3843
39324SOL    HW128286   1.714  11.648  10.624 -1.4851  0.4533 -0.0134
39324SOL    HW228287   1.678  11.595  10.761 -2.1198  1.0068  0.0447
39325SOL     OW28288   8.243  11.187   7.103 -0.1791  0.1780 -0.1309
39325SOL    HW128289   8.150  11.167   7.118 -0.0282 -1.9171 -1.5558
39325SOL    HW228290   8.246  11.283   7.098 -2.3733  0.2883 -0.6363
39326SOL     OW28291   5.589   6.533   9.468 -0.3609  0.7144 -0.0159
39326SOL    HW128292   5.608   6.471   9.397 -0.4917  1.6292 -0.8782
39326SOL    HW228293   5.577   6.617   9.423  0.1543  1.4371  1.1555
39327SOL     OW28294  10.562   8.230   7.710  0.0669  0.0926 -0.3268
39327SOL    HW128295  10.521   8.170   7.647  1.2050 -1.0949  0.0175
39327SOL    HW228296  10.576   8.177   7.788 -0.5875  1.3331  0.6806
39328SOL     OW28297  11.719  11.955  12.646 -0.3543  0.6417  0.1922
39328SOL    HW128298  11.736  11.898  12.722 -0.7030  0.3193  0.0298
39328SOL    HW228299  11.773  12.032  12.662  3.0421 -1.1834 -1.3431
39329SOL     OW28300   5.135  12.053  11.996  0.2551 -0.1806  0.8731
39329SOL    HW128301   5.054  12.102  12.009  0.6710  0.3919  1.3223
39329SOL    HW228302   5.138  11.993  12.070 -0.6932 -1.5345 -0.1293
39330SOL     OW28303   6.426   7.940   5.021  0.9329 -0.0455  0.3260
39330SOL    HW128304   6.408   8.004   5.090  0.6471 -0.6124  0.7922
39330SOL    HW228305   6.375   7.971   4.946  0.3505 -0.0182  0.7203
39331SOL     OW28306   7.611   8.834   5.850  0.3182  0.4486  0.2651
39331SOL    HW128307   7.577   8.861   5.936  2.9014  0.0570  1.4839
39331SOL    HW228308   7.543   8.776   5.816 -0.1019 -0.7041  2.7746
39332SOL     OW28309   2.930  12.675   7.162  0.2784 -0.4249  0.6304
39332SOL    HW128310   2.926  12.600   7.103 -1.9363  0.2951 -0.2160
39332SOL    HW228311   2.949  12.636   7.248 -1.1758 -2.0209  0.2872
39333SOL     OW28312   4.547   8.694   5.872  0.2710 -0.1135 -0.5294
39333SOL    HW128313   4.634   8.656   5.883  0.4440  0.3614 -0.2122
39333SOL    HW228314   4.550   8.775   5.923 -0.7394 -0.6826  0.4857
39334SOL     OW28315   6.690  12.624   8.488  0.4082  0.4828  0.8397
39334SOL    HW128316   6.775  12.582   8.470 -0.4520 -0.4064 -1.4840
39334SOL    HW228317   6.695  12.709   8.444  0.4547  0.8806  1.5963
39335SOL     OW28318  12.027   0.047   5.702  0.2337  0.0314 -0.1437
39335SOL    HW128319  12.117   0.057   5.671  0.3367 -0.7911 -0.1364
39335SOL    HW228320  12.030   0.076   5.793  0.7652 -1.1123  0.2227
39336SOL     OW28321   1.727   5.193   3.898 -0.4187  0.4712  0.3595
39336SOL    HW128322   1.716   5.104   3.865  2.5081  0.2214 -0.2027
39336SOL    HW228323   1.684   5.193   3.983 -1.2789 -1.1848 -0.0443
39337SOL     OW28324   2.079   0.795   3.016  0.0386 -1.1468 -0.4536
39337SOL    HW128325   2.107   0.770   3.105 -0.3585 -1.5733 -0.4447
39337SOL    HW228326   2.159   0.827   2.974 -0.1379  0.9681  0.6871
39338SOL     OW28327   0.699   7.218   9.711  0.1001  0.1358 -0.2992
39338SOL    HW128328   0.683   7.181   9.798 -0.2475 -1.5517 -1.0349
39338SOL    HW228329   0.634   7.287   9.701  1.3966  1.7161  1.5123
39339SOL     OW28330   1.810   4.697   9.796  0.1390  0.2965 -0.2479
39339SOL    HW128331   1.723   4.737   9.802  0.4191  0.9501 -0.4746
39339SOL    HW228332   1.797   4.621   9.740 -0.0731  1.0427 -1.2412
39340SOL     OW28333   0.851   1.157   7.507  0.1753  0.2292 -0.1399
39340SOL    HW128334   0.800   1.229   7.543 -1.1170 -1.7190  2.2618
39340SOL    HW228335   0.907   1.128   7.579 -0.2153 -1.8900 -0.6210
39341SOL     OW28336   6.194  10.388   9.463 -0.7434  0.8318 -0.2003
39341SOL    HW128337   6.242  10.324   9.410 -0.9985  0.0696  0.4667
39341SOL    HW228338   6.103  10.375   9.438 -0.5811  2.9523 -2.1932
39342SOL     OW28339   0.483   9.912  11.405  1.1544 -0.1786 -0.0298
39342SOL    HW128340   0.516   9.953  11.485  0.6559 -0.2292  0.2055
39342SOL    HW228341   0.414   9.853  11.435  1.6213 -0.9243 -0.4066
39343SOL     OW28342   0.386   3.423  10.629  0.3547 -0.4194 -0.1458
39343SOL    HW128343   0.427   3.479  10.563 -2.8929 -1.3784 -3.3145
39343SOL    HW228344   0.451   3.355  10.646  2.0971  1.0013 -0.7455
39344SOL     OW28345   6.665   6.095   6.272  0.5488 -0.0729 -0.3158
39344SOL    HW128346   6.724   6.122   6.343  1.1946  1.0720 -1.2445
39344SOL    HW228347   6.588   6.151   6.282  0.2347 -0.5520  0.0148
39345SOL     OW28348   9.798   6.163   1.469 -0.0934  0.2086 -0.0057
39345SOL    HW128349   9.788   6.156   1.564  1.5034  0.2526  0.1783
39345SOL    HW228350   9.817   6.074   1.440 -0.6259  0.1855 -0.3144
39346SOL     OW28351   5.505   2.761   1.305 -0.5670 -0.2788 -0.0160
39346SOL    HW128352   5.456   2.795   1.230  1.3037  0.9694 -0.7535
39346SOL    HW228353   5.552   2.685   1.270  0.9223  0.7650 -0.3908
39347SOL     OW28354   9.230   6.783   3.543 -0.4897 -0.3701 -0.6934
39347SOL    HW128355   9.271   6.743   3.619  0.8173 -0.8195 -1.5943
39347SOL    HW228356   9.300   6.833   3.501 -0.3897 -2.3312 -3.1016
39348SOL     OW28357   4.949   2.607   4.207  0.3003  0.2869  0.2548
39348SOL    HW128358   4.863   2.577   4.237  0.2652 -0.8028 -0.8623
39348SOL    HW228359   4.931   2.691   4.164 -0.1569  0.1956  0.2646
39349SOL     OW28360   0.364  11.032  10.674 -0.3071 -0.5271 -0.2694
39349SOL    HW128361   0.389  10.950  10.716  3.1085  1.0734  1.2813
39349SOL    HW228362   0.419  11.037  10.596 -0.2399  0.3403 -0.1863
39350SOL     OW28363   0.214   6.720   8.988  0.1507  0.9115 -0.2693
39350SOL    HW128364   0.239   6.733   9.079 -0.1267  2.0159 -0.3377
39350SOL    HW228365   0.119   6.706   8.990 -0.0501  2.1304 -0.4756
39351SOL     OW28366   2.721  10.940   6.750 -0.0663  0.7036 -0.4495
39351SOL    HW128367   2.794  11.000   6.736  2.0503 -1.9223 -1.6861
39351SOL    HW228368   2.650  10.976   6.698  0.7478  2.6192 -0.3329
39352SOL     OW28369   9.344  10.558   9.980  0.0389 -0.2525 -0.3533
39352SOL    HW128370   9.282  10.492   9.950 -1.1770  1.8850 -2.9732
39352SOL    HW228371   9.429  10.528   9.947 -0.0923 -1.6069  0.4853
39353SOL     OW28372  11.798  11.489  10.517 -0.0751 -0.2221 -0.1124
39353SOL    HW128373  11.839  11.431  10.453 -1.0742 -1.2756  0.1696
39353SOL    HW228374  11.753  11.555  10.464 -0.6274 -0.9016 -0.5116
39354SOL     OW28375   6.018   5.450   9.306  0.0449 -0.2872  0.3856
39354SOL    HW128376   6.025   5.543   9.329  1.8186 -0.1018 -0.6444
39354SOL    HW228377   6.096   5.434   9.253  0.1902 -2.5658  1.1881
39355SOL     OW28378   8.815   9.260  12.258 -0.7471 -0.1725 -0.0102
39355SOL    HW128379   8.838   9.325  12.191  2.1208  1.0993  1.9697
39355SOL    HW228380   8.876   9.188  12.243 -0.2449  0.0163  0.9944
39356SOL     OW28381   1.523  11.069  11.377 -0.1077  0.3711  0.6325
39356SOL    HW128382   1.570  10.985  11.374 -1.2857 -0.2961  0.2692
39356SOL    HW228383   1.572  11.121  11.440  1.3676 -0.1392 -0.0362
39357SOL     OW28384   5.242  10.843   2.556  0.3861 -0.4051  0.3843
39357SOL    HW128385   5.220  10.923   2.509 -0.1126 -0.7480  0.0139
39357SOL    HW228386   5.202  10.853   2.642 -1.0708 -0.9082 -0.1931
39358SOL     OW28387  11.635   1.382   5.286  0.7432 -0.2384  0.1898
39358SOL    HW128388  11.606   1.473   5.290  1.7589  0.3155 -2.4929
39358SOL    HW228389  11.554   1.331   5.278  0.1956  0.4696  1.0359
39359SOL     OW28390   3.245   9.300   7.030  0.0081 -0.1922  0.0110
39359SOL    HW128391   3.182   9.249   7.081 -1.0423  1.0763  0.0277
39359SOL    HW228392   3.264   9.376   7.085  0.5689  0.0844 -0.5532
39360SOL     OW28393   0.025   4.350   0.881  0.5603 -0.1286  0.0108
39360SOL    HW128394  -0.009   4.262   0.892  0.0151 -0.5551 -3.9770
39360SOL    HW228395  -0.047   4.407   0.906  0.3234 -0.8068  0.9285
39361SOL     OW28396  12.072   1.884   4.627  0.3878  0.1824  0.0077
39361SOL    HW128397  12.145   1.940   4.655  1.8340 -1.0954 -1.0675
39361SOL    HW228398  12.092   1.862   4.536 -2.3588  1.3256 -0.9727
39362SOL     OW28399  12.192   1.326  10.283 -0.1813  0.3682 -1.2169
39362SOL    HW128400  12.180   1.232  10.271 -0.4583 -0.0263  1.4789
39362SOL    HW228401  12.287   1.338  10.286 -0.0874  0.4991 -3.2700
39363SOL     OW28402   7.676   4.540   3.026 -0.3305 -0.4250 -0.4269
39363SOL    HW128403   7.703   4.465   3.079 -1.5695 -0.8149 -0.3164
39363SOL    HW228404   7.687   4.511   2.935 -0.6254 -0.6744 -0.3834
39364SOL     OW28405   0.494   4.947   5.348 -0.0543  0.1264 -0.3356
39364SOL    HW128406   0.530   4.996   5.422  1.6253 -0.1028 -0.9545
39364SOL    HW228407   0.556   4.963   5.277 -2.3340  1.4987 -2.1553
39365SOL     OW28408   7.670   2.259   1.203  0.0803 -0.2627  0.0265
39365SOL    HW128409   7.722   2.338   1.190 -1.9633  1.0620 -0.7071
39365SOL    HW228410   7.646   2.230   1.115  0.3371 -1.3903  0.3094
39366SOL     OW28411   6.988   8.053   2.275 -0.7676 -0.8524  0.7303
39366SOL    HW128412   7.070   8.072   2.321 -1.6206  1.1280  1.5467
39366SOL    HW228413   6.928   8.025   2.344 -1.0615 -1.3452  0.2772
39367SOL     OW28414  11.024  11.274  11.057  0.2613 -0.0910  0.1834
39367SOL    HW128415  11.089  11.342  11.074  1.3783 -1.1617  0.3197
39367SOL    HW228416  11.036  11.252  10.964  1.6272 -1.7987  0.7157
39368SOL     OW28417   6.457   1.217   9.117  0.0815  0.2337  0.9013
39368SOL    HW128418   6.379   1.163   9.129  0.7952 -1.1904 -0.5044
39368SOL    HW228419   6.441   1.264   9.035  0.3492  0.5558  1.0347
39369SOL     OW28420  10.002   8.218   3.367  0.1506  0.0307  0.0025
39369SOL    HW128421  10.006   8.282   3.296 -0.7211  0.0417 -0.0555
39369SOL    HW228422  10.045   8.261   3.440 -1.3070  1.1382  0.2741
39370SOL     OW28423   5.053   8.883  12.812 -0.1744 -0.2411 -0.1012
39370SOL    HW128424   4.972   8.919  12.774 -0.4324 -0.0433  0.6193
39370SOL    HW228425   5.057   8.794  12.778 -0.2864 -0.0005 -0.7648
39371SOL     OW28426  10.057   6.399   2.391  0.4187  0.6172 -0.5905
39371SOL    HW128427  10.138   6.359   2.360  0.8602  1.5064 -0.5894
39371SOL    HW228428  10.078   6.433   2.478 -0.4985 -0.8422  0.2664
39372SOL     OW28429   8.347   7.350   6.820 -0.1052 -0.1554  0.7126
39372SOL    HW128430   8.309   7.331   6.734 -2.9229  0.7192  1.6550
39372SOL    HW228431   8.340   7.445   6.829  2.0730  0.0037  1.1201
39373SOL     OW28432   1.700   1.924   1.520  0.1341 -0.5043  0.9380
39373SOL    HW128433   1.650   1.844   1.539  0.7086 -1.6682 -1.8913
39373SOL    HW228434   1.644   1.974   1.460  1.3658 -0.7456 -0.4668
39374SOL     OW28435   8.270  10.900   6.206 -0.4496 -0.0363 -0.1202
39374SOL    HW128436   8.249  10.938   6.291  0.7486 -0.8133  0.5486
39374SOL    HW228437   8.310  10.816   6.226  1.9246  0.7047 -1.3073
39375SOL     OW28438   8.053   7.388   5.778  0.4026 -0.0539 -0.6004
39375SOL    HW128439   8.006   7.326   5.723 -0.5134 -0.1582  0.2723
39375SOL    HW228440   7.984   7.441   5.819  1.1579  2.1399 -1.9642
39376SOL     OW28441   3.148   1.224   9.412 -0.0439  0.3604 -0.3061
39376SOL    HW128442   3.188   1.238   9.326 -0.8464  0.9817 -0.5909
39376SOL    HW228443   3.162   1.131   9.430  2.1156  0.6835 -0.0853
39377SOL     OW28444   3.428  11.939   6.897  0.0425 -0.6864 -0.2389
39377SOL    HW128445   3.520  11.945   6.871 -0.2008 -1.2014 -1.2768
39377SOL    HW228446   3.412  11.846   6.909  0.0324 -0.4931  1.4365
39378SOL     OW28447   6.211   3.585   7.939 -0.4104 -0.1497 -0.3974
39378SOL    HW128448   6.156   3.509   7.959  1.9693 -2.3651 -1.5815
39378SOL    HW228449   6.188   3.610   7.850  1.9796 -2.7087 -1.8985
39379SOL     OW28450   6.839   1.908   6.368 -0.0656 -0.2232  0.4361
39379SOL    HW128451   6.808   1.855   6.442 -0.2668 -1.5488 -0.5599
39379SOL    HW228452   6.927   1.875   6.351 -0.3990 -0.6504 -0.5413
39380SOL     OW28453  12.592   6.201  10.988  0.4197  0.4227 -0.5132
39380SOL    HW128454  12.641   6.282  11.003 -0.3848  0.8235 -0.0046
39380SOL    HW228455  12.502   6.223  11.010 -0.2977  0.1215 -2.8953
39381SOL     OW28456   4.978  11.512  12.060  0.5410 -0.2305 -0.3163
39381SOL    HW128457   5.024  11.579  12.110  0.0568 -0.1918  0.0866
39381SOL    HW228458   5.005  11.429  12.099 -1.8468 -0.1204  1.8304
39382SOL     OW28459   9.417  12.594  10.402 -0.4362  0.7611 -0.1151
39382SOL    HW128460   9.448  12.658  10.338  0.7370  0.4180  0.0897
39382SOL    HW228461   9.483  12.595  10.471  0.4044 -1.7024 -0.7942
39383SOL     OW28462   9.686   4.692   3.494  0.3343 -0.0070 -0.0612
39383SOL    HW128463   9.735   4.645   3.426  0.3562 -0.5127  0.3037
39383SOL    HW228464   9.741   4.768   3.515  0.0045  0.5448 -1.1034
39384SOL     OW28465   1.788   7.639   8.545 -0.0095  0.2968  0.0533
39384SOL    HW128466   1.829   7.579   8.607 -2.2588 -0.4611  0.9243
39384SOL    HW228467   1.823   7.725   8.569  1.6563 -0.3765  0.1717
39385SOL     OW28468  11.727   4.921   6.769 -0.1071 -0.4976 -0.3011
39385SOL    HW128469  11.710   4.937   6.862 -1.1330 -5.9782  0.7982
39385SOL    HW228470  11.821   4.936   6.759  0.3413 -1.2846  2.0855
39386SOL     OW28471   6.385   6.818   6.638  0.7815  0.5236  0.3181
39386SOL    HW128472   6.445   6.832   6.565  2.1137  0.7390  1.3996
39386SOL    HW228473   6.429   6.752   6.692 -0.6198 -0.3342  0.4487
39387SOL     OW28474   2.046  11.392   8.634 -0.8421  0.4467  0.5486
39387SOL    HW128475   2.043  11.478   8.675 -1.8838  0.9614 -0.5334
39387SOL    HW228476   1.989  11.400   8.557 -0.0631 -0.8813 -0.2084
39388SOL     OW28477  12.629   5.294   7.286 -0.1627  0.0140  0.7660
39388SOL    HW128478  12.701   5.266   7.230 -0.0919 -1.2152  1.4435
39388SOL    HW228479  12.579   5.355   7.232  1.3880  0.9356  0.2904
39389SOL     OW28480   9.660   8.933  11.064  0.0787 -0.5624  0.4283
39389SOL    HW128481   9.659   8.980  10.981  1.2990 -2.2512 -0.6234
39389SOL    HW228482   9.598   8.861  11.051  1.2492 -1.6117  0.4481
39390SOL     OW28483   1.772   5.956   9.741 -0.5424  0.9497 -0.2650
39390SOL    HW128484   1.846   5.896   9.731 -2.1028 -0.9478 -0.9402
39390SOL    HW228485   1.761   5.965   9.836 -1.7290 -1.8327 -0.0417
39391SOL     OW28486   2.220  11.622   6.943  0.2705 -0.4470  0.6209
39391SOL    HW128487   2.183  11.578   6.867 -2.1729  0.7516  1.0192
39391SOL    HW228488   2.244  11.709   6.912 -2.3773  0.6950  1.4712
39392SOL     OW28489  11.960   9.844   6.873  0.6650  0.0601 -0.0625
39392SOL    HW128490  11.914   9.851   6.957  3.2559 -1.2049  1.6088
39392SOL    HW228491  11.982   9.934   6.849 -0.8720  0.5110  0.1043
39393SOL     OW28492   6.245   8.834  10.471 -0.4472 -0.0297  0.0895
39393SOL    HW128493   6.299   8.913  10.473 -1.4639  0.6797  1.2169
39393SOL    HW228494   6.237   8.813  10.378 -0.9434  1.7760 -0.3279
39394SOL     OW28495   8.702  10.510   0.684  0.1905  0.1549 -0.3280
39394SOL    HW128496   8.625  10.483   0.734 -0.3079 -1.8527 -2.0585
39394SOL    HW228497   8.668  10.539   0.600  1.2603  0.0015 -0.8296
39395SOL     OW28498   4.354   7.478   3.036  0.3476 -0.0985  0.1535
39395SOL    HW128499   4.294   7.405   3.051 -1.0630  1.0842  0.5009
39395SOL    HW228500   4.398   7.490   3.120 -3.9577  3.3360  2.3197
39396SOL     OW28501  10.800   4.444   2.551  0.2029 -0.1881  0.0002
39396SOL    HW128502  10.751   4.526   2.550  0.5635  0.0310 -0.2309
39396SOL    HW228503  10.761   4.393   2.621 -2.1836 -1.1545 -1.8747
39397SOL     OW28504   5.995   3.421   5.146 -0.3117 -0.0482  0.0005
39397SOL    HW128505   6.074   3.461   5.110 -0.7337  0.4986 -0.3306
39397SOL    HW228506   5.997   3.331   5.113 -0.2705  0.2106 -0.7111
39398SOL     OW28507   1.161   7.213   2.547 -1.0379 -0.2143 -0.4841
39398SOL    HW128508   1.174   7.163   2.627 -0.7988  2.2279  1.0982
39398SOL    HW228509   1.196   7.157   2.478  0.9218 -1.4586  1.3917
39399SOL     OW28510  11.800   2.423   7.919  0.2916  0.0987  0.3365
39399SOL    HW128511  11.709   2.418   7.948 -0.3674 -2.9924 -1.7317
39399SOL    HW228512  11.827   2.332   7.907  3.2868  0.9357 -0.3395
39400SOL     OW28513  10.358   5.221   6.744 -0.5693 -0.2262 -0.0216
39400SOL    HW128514  10.375   5.212   6.837 -0.6902 -2.5358 -0.1719
39400SOL    HW228515  10.422   5.285   6.713 -0.0053 -0.0304  1.4987
39401SOL     OW28516   5.460  12.904   6.204  0.0987  0.2064 -0.5004
39401SOL    HW128517   5.492  12.844   6.272  0.4825  0.2607 -0.6267
39401SOL    HW228518   5.433  12.982   6.251 -1.1384 -0.3488 -0.2540
39402SOL     OW28519   2.174   4.598   3.918 -0.0854 -0.6881  0.0048
39402SOL    HW128520   2.078   4.607   3.920 -0.0523 -0.4203  0.9189
39402SOL    HW228521   2.206   4.683   3.888 -0.0794 -0.2100  1.3056
39403SOL     OW28522   6.370  10.122   0.882  0.1897  0.4712  0.2399
39403SOL    HW128523   6.345  10.062   0.953 -0.7824 -0.6740 -1.0142
39403SOL    HW228524   6.326  10.204   0.905 -1.2616 -0.2817  0.2989
39404SOL     OW28525  10.647   7.194   5.198 -0.1419 -0.1913  0.2007
39404SOL    HW128526  10.581   7.156   5.140 -0.5570 -0.5873  0.9181
39404SOL    HW228527  10.689   7.261   5.145  0.1915 -1.2339 -0.8918
39405SOL     OW28528  12.816   9.517   8.641 -0.4972  0.1364 -0.4131
39405SOL    HW128529  12.831   9.611   8.646 -1.7938  0.3144  1.9331
39405SOL    HW228530  12.865   9.488   8.564  0.1018  2.6722 -1.0713
39406SOL     OW28531   1.681   7.688   7.240 -0.0176  0.1316 -0.2020
39406SOL    HW128532   1.623   7.741   7.185 -0.3909  1.3535  1.3072
39406SOL    HW228533   1.763   7.737   7.242  0.4121 -0.5529 -0.6675
39407SOL     OW28534  10.479   1.929   8.765 -0.0496 -0.0884  0.3949
39407SOL    HW128535  10.548   1.989   8.793 -0.9380  0.9254  0.4868
39407SOL    HW228536  10.436   1.973   8.692 -1.0515 -0.3610  0.7967
39408SOL     OW28537   6.675  11.373  10.183  0.0681  0.2637 -0.5393
39408SOL    HW128538   6.591  11.387  10.228  0.7668  0.7243  0.6462
39408SOL    HW228539   6.694  11.280  10.196 -0.5969 -0.0067 -1.4256
39409SOL     OW28540   8.727   9.568   7.142  0.3225 -0.2118 -0.2714
39409SOL    HW128541   8.677   9.503   7.094 -3.7543  2.3168  0.0938
39409SOL    HW228542   8.689   9.567   7.230 -0.9573  3.4183 -0.6042
39410SOL     OW28543   2.160   1.334   9.617 -0.4316 -0.2918 -0.4892
39410SOL    HW128544   2.200   1.288   9.691  1.9973 -0.5787 -1.8751
39410SOL    HW228545   2.135   1.419   9.653  1.9727  0.1190  0.3872
39411SOL     OW28546  12.954   2.054  10.489 -0.8677 -0.3477 -0.2532
39411SOL    HW128547  13.011   2.083  10.560 -3.7278  2.4438  1.1277
39411SOL    HW228548  12.884   2.006  10.534 -1.7191 -0.2238 -1.4311
39412SOL     OW28549   6.462   1.900   0.746  0.4305 -0.0522  0.4323
39412SOL    HW128550   6.371   1.923   0.763  0.5831  0.0175  1.1913
39412SOL    HW228551   6.458   1.816   0.702 -0.0227  0.1825  0.0170
39413SOL     OW28552   7.946   1.871   7.012  0.0751 -0.4274  0.5804
39413SOL    HW128553   7.962   1.787   7.055 -0.6742 -1.4006 -0.9477
39413SOL    HW228554   8.009   1.873   6.939 -0.4988 -0.0766  0.0814
39414SOL     OW28555  11.853   3.096  11.654  0.1384 -0.7222  0.7048
39414SOL    HW128556  11.933   3.072  11.701  0.6019  0.0389  0.3238
39414SOL    HW228557  11.837   3.022  11.595  1.4496 -0.2270 -0.3328
39415SOL     OW28558   7.328   1.078   5.751  0.1966 -0.2771  0.0115
39415SOL    HW128559   7.271   1.130   5.808 -0.1930  0.9507 -1.4448
39415SOL    HW228560   7.417   1.105   5.775  0.0792 -0.4106  0.6215
39416SOL     OW28561   7.516   0.586  11.608 -0.3032  0.0461  0.5980
39416SOL    HW128562   7.594   0.537  11.635 -0.0786  0.4630  0.7164
39416SOL    HW228563   7.480   0.535  11.535  0.0310 -0.1983  0.5986
39417SOL     OW28564   5.967   9.866   3.321  0.0592  0.0058 -0.0450
39417SOL    HW128565   5.971   9.868   3.225 -1.8784 -3.0876 -0.3315
39417SOL    HW228566   5.917   9.944   3.344  1.7580  1.5678 -1.3702
39418SOL     OW28567   0.357   8.048   3.530  0.5162 -0.5749 -0.0027
39418SOL    HW128568   0.337   8.031   3.622 -0.8873  0.5281 -0.0657
39418SOL    HW228569   0.430   7.989   3.510  1.3072 -0.3362  1.9841
39419SOL     OW28570   5.753   6.531   6.143  0.1439  0.1787 -0.2178
39419SOL    HW128571   5.815   6.569   6.080 -0.1623  2.3059  0.7162
39419SOL    HW228572   5.671   6.577   6.127 -0.5086 -0.7511  0.3560
39420SOL     OW28573  12.638  10.053  10.724  0.0976 -0.5421 -0.0361
39420SOL    HW128574  12.683  10.010  10.797  2.0363  4.2709  2.0370
39420SOL    HW228575  12.547  10.062  10.754  0.6889  0.6660  1.5564
39421SOL     OW28576  11.495   3.153   8.945 -0.3641  0.3468 -1.1959
39421SOL    HW128577  11.560   3.179   8.879 -2.0398  0.2473 -2.9797
39421SOL    HW228578  11.444   3.233   8.960 -0.7389  0.0626 -0.9350
39422SOL     OW28579   0.156   1.195  12.519  0.3782 -0.0752  0.2474
39422SOL    HW128580   0.194   1.139  12.451  0.8627  1.2485 -0.6026
39422SOL    HW228581   0.224   1.201  12.586  2.8288  4.0363 -2.2238
39423SOL     OW28582  11.587   0.178   7.671  0.3721 -0.0290 -0.0632
39423SOL    HW128583  11.517   0.153   7.731 -0.8311  1.1538 -0.9366
39423SOL    HW228584  11.661   0.200   7.729 -0.3683 -0.0732  0.9263
39424SOL     OW28585   9.983   4.677   5.498  0.3151 -0.0599 -0.1241
39424SOL    HW128586  10.002   4.679   5.404 -0.4598  0.4878 -0.2792
39424SOL    HW228587   9.902   4.626   5.504 -0.0658  0.5792  0.1679
39425SOL     OW28588  11.400   5.436   2.598 -0.2044  0.2166  0.4637
39425SOL    HW128589  11.311   5.442   2.632 -0.1351 -0.6777  0.8285
39425SOL    HW228590  11.432   5.351   2.629  0.9172  0.7033  0.6865
39426SOL     OW28591   1.874   4.479   0.710  0.3647  0.0441  0.1187
39426SOL    HW128592   1.819   4.555   0.728  1.2709  1.1161 -1.3522
39426SOL    HW228593   1.833   4.407   0.757 -1.7830  0.9806 -0.2206
39427SOL     OW28594   4.027   0.355   9.494  0.3886  0.0073  0.1722
39427SOL    HW128595   4.015   0.277   9.547  1.8145  0.1516  0.7407
39427SOL    HW228596   4.056   0.422   9.556  0.8063  0.5280 -0.5697
39428SOL     OW28597   0.663   6.123   7.853 -0.2067  0.2888  0.2716
39428SOL    HW128598   0.620   6.064   7.791 -0.3093  1.0125 -0.3724
39428SOL    HW228599   0.696   6.066   7.922 -2.1010 -0.3210  0.7376
39429SOL     OW28600   0.558   6.359   7.923  0.4120  0.3244  0.3105
39429SOL    HW128601   0.534   6.399   7.839  0.2560  0.0969  0.2468
39429SOL    HW228602   0.598   6.276   7.899  1.9294  1.0007  0.3698
39430SOL     OW28603  11.951   7.060  10.897 -0.0959  0.9970  0.8321
39430SOL    HW128604  12.009   6.992  10.862 -0.1914  0.6617  1.3269
39430SOL    HW228605  12.003   7.141  10.889 -0.4965  1.1246 -1.0619
39431SOL     OW28606   4.027   0.003   6.914 -0.0195 -0.1797 -0.5100
39431SOL    HW128607   3.992   0.013   7.003  2.8565  1.5361  0.5914
39431SOL    HW228608   4.028  -0.091   6.899 -2.6125 -0.4296  0.3046
39432SOL     OW28609  10.955   4.409   3.386  0.2334  0.2349 -0.3286
39432SOL    HW128610  10.876   4.446   3.426 -0.5784 -2.0498  0.3273
39432SOL    HW228611  11.022   4.415   3.453  0.6748  2.2053 -0.8945
39433SOL     OW28612   0.154   7.263   8.019 -0.5392  0.2753  0.0132
39433SOL    HW128613   0.131   7.274   8.111 -0.9858  0.6634 -0.1381
39433SOL    HW228614   0.074   7.288   7.971 -0.6792 -0.9752 -0.4484
39434SOL     OW28615   5.232   7.680   4.525 -0.0892  0.1976  0.1863
39434SOL    HW128616   5.245   7.767   4.561 -2.3564  1.4996 -1.8589
39434SOL    HW228617   5.187   7.632   4.594  0.7698  0.7545  1.1638
39435SOL     OW28618   9.508   1.782   7.560 -0.3744 -0.1197  0.1556
39435SOL    HW128619   9.539   1.716   7.622  0.7639  0.2551  0.0094
39435SOL    HW228620   9.480   1.731   7.484  1.9584 -0.4153 -0.5883
39436SOL     OW28621   9.165  12.683   7.840 -0.1295  0.7467  0.3920
39436SOL    HW128622   9.158  12.644   7.927 -0.1941  0.3623  0.2149
39436SOL    HW228623   9.092  12.745   7.834  0.5750  1.6739  1.0674
39437SOL     OW28624  12.337  10.239   1.389 -0.5255 -0.3430 -0.9106
39437SOL    HW128625  12.294  10.233   1.474 -0.6976 -1.6166 -1.0663
39437SOL    HW228626  12.344  10.148   1.359 -0.0072  0.0443 -2.0269
39438SOL     OW28627  10.518   7.483   1.738  0.1698  0.1504 -0.4505
39438SOL    HW128628  10.534   7.463   1.830 -0.5739 -0.1732 -0.3877
39438SOL    HW228629  10.597   7.454   1.693  0.4261  0.0686  0.0512
39439SOL     OW28630   6.250  11.629  12.082  0.6442 -0.1363 -0.3837
39439SOL    HW128631   6.209  11.567  12.022 -0.5880 -2.2304  2.3845
39439SOL    HW228632   6.232  11.715  12.044 -3.8487 -1.0611 -0.9225
39440SOL     OW28633   9.554   7.185   1.953  0.5687 -0.2323  0.3173
39440SOL    HW128634   9.470   7.165   1.913  0.6142 -0.0314  0.1228
39440SOL    HW228635   9.612   7.115   1.923  0.3122 -0.7402  0.9763
39441SOL     OW28636   9.175  11.061   1.490  0.6084 -0.3256 -0.9225
39441SOL    HW128637   9.225  10.980   1.480 -0.7593 -1.5528  1.3543
39441SOL    HW228638   9.084  11.033   1.493  0.2086  0.6963  3.4027
39442SOL     OW28639  12.385   5.361   7.774 -0.1738  0.0849 -0.1102
39442SOL    HW128640  12.450   5.379   7.707  0.4812 -0.3676  0.3912
39442SOL    HW228641  12.387   5.266   7.785  1.1632  0.2871  1.9268
39443SOL     OW28642   1.407   8.978   5.208 -0.6100 -0.1847 -0.4380
39443SOL    HW128643   1.459   8.917   5.155  0.7261 -2.7916  3.4482
39443SOL    HW228644   1.447   9.064   5.193  0.3318 -0.9507 -2.7583
39444SOL     OW28645   3.413   4.626  11.524  0.0207 -0.6683 -0.1061
39444SOL    HW128646   3.425   4.567  11.449  0.8813  0.4995 -0.9206
39444SOL    HW228647   3.367   4.702  11.488  1.9385  0.6789  0.1189
39445SOL     OW28648   8.551  12.062  11.330 -0.0502  0.1213 -0.0966
39445SOL    HW128649   8.581  12.047  11.420 -0.2729  0.9311  0.1198
39445SOL    HW228650   8.630  12.053  11.277  0.2166  0.3022  0.2612
39446SOL     OW28651   9.472   2.968   1.664 -0.2875 -0.0877  0.5002
39446SOL    HW128652   9.452   2.985   1.571 -2.2547 -0.6980  0.7536
39446SOL    HW228653   9.464   3.053   1.706  0.0220  0.0913  0.2035
39447SOL     OW28654   2.287  11.203  12.324 -0.6793 -0.1680  0.3233
39447SOL    HW128655   2.264  11.129  12.268 -0.4713 -1.1278  1.4425
39447SOL    HW228656   2.225  11.196  12.397  1.5678 -1.4636  2.2803
39448SOL     OW28657   6.807   4.666   7.839 -0.7739 -0.0368  0.1003
39448SOL    HW128658   6.752   4.738   7.869 -0.4493  0.4576 -0.4875
39448SOL    HW228659   6.883   4.708   7.799 -0.2608 -0.7118  0.3553
39449SOL     OW28660   5.653   0.180  12.467  0.8489 -0.2405 -0.0179
39449SOL    HW128661   5.600   0.245  12.421 -1.2115 -2.1694 -0.5764
39449SOL    HW228662   5.631   0.193  12.559  0.4914 -0.0825 -0.1217
39450SOL     OW28663   0.351   9.912   6.894  0.5218  0.7574  0.5949
39450SOL    HW128664   0.347   9.991   6.947  1.1050 -0.0974  1.9748
39450SOL    HW228665   0.277   9.919   6.834  1.0136  2.6840  0.1618
39451SOL     OW28666   3.195   2.763   2.449  0.1959 -0.7907  0.1610
39451SOL    HW128667   3.259   2.759   2.378  0.7223 -2.4396  0.6718
39451SOL    HW228668   3.232   2.708   2.518 -0.6511  0.1723  1.4310
39452SOL     OW28669   1.085   2.707   8.191 -0.2554  0.0237  0.1753
39452SOL    HW128670   1.136   2.663   8.259 -0.5585  1.2477  1.2318
39452SOL    HW228671   1.145   2.772   8.154  1.1293 -2.8839 -3.2828
39453SOL     OW28672   9.922   7.216   4.122  0.0821  0.4603  0.2417
39453SOL    HW128673   9.944   7.126   4.099  2.1014  1.1342 -0.7056
39453SOL    HW228674   9.865   7.245   4.050  0.4475  0.3204 -0.1067
39454SOL     OW28675  12.179   7.805   9.806 -0.3821  0.0376  0.1486
39454SOL    HW128676  12.241   7.860   9.855 -0.1830 -1.1833  1.3355
39454SOL    HW228677  12.218   7.797   9.719  0.8172 -0.1682  0.6771
39455SOL     OW28678   7.188   2.964   0.578  0.0346  0.1178  0.0834
39455SOL    HW128679   7.248   3.021   0.625  0.4662 -0.2680  0.0095
39455SOL    HW228680   7.241   2.889   0.553 -0.4055 -0.0871 -0.2527
39456SOL     OW28681   1.284   2.791  12.285 -0.3456  0.0899  0.7367
39456SOL    HW128682   1.263   2.703  12.255 -1.1196  0.5014  0.0154
39456SOL    HW228683   1.379   2.792  12.293 -0.1995 -0.3490 -0.7491
39457SOL     OW28684   0.525   3.517   9.755  0.5776  0.7763 -0.2114
39457SOL    HW128685   0.553   3.602   9.789  0.5515  1.1107 -1.0072
39457SOL    HW228686   0.443   3.498   9.802  0.7194  1.0656  0.1540
39458SOL     OW28687   8.619  11.302   0.915  0.5490 -0.0135  0.7537
39458SOL    HW128688   8.526  11.321   0.904  0.6056  0.2418  0.7144
39458SOL    HW228689   8.663  11.357   0.850  0.7437  0.0211  0.9120
39459SOL     OW28690   0.704   6.292   6.003  0.5128 -0.3899  0.2672
39459SOL    HW128691   0.646   6.328   6.071  0.0289 -0.5017 -0.0833
39459SOL    HW228692   0.745   6.369   5.964  0.3704 -0.2896  0.3134
39460SOL     OW28693  12.947   2.587   6.586  0.0135  0.2198 -0.2292
39460SOL    HW128694  12.932   2.588   6.491  1.4975 -0.7496 -0.4981
39460SOL    HW228695  13.019   2.526   6.599  0.6667  1.2649  1.4180
39461SOL     OW28696   7.378   8.700  12.340 -0.3965 -0.3669 -0.2000
39461SOL    HW128697   7.362   8.729  12.430 -0.2721 -1.0312  0.0383
39461SOL    HW228698   7.319   8.625  12.329  1.6933 -2.1789  0.3240
39462SOL     OW28699   4.881   1.132   5.471  0.5148 -0.2994 -0.5290
39462SOL    HW128700   4.896   1.040   5.450 -2.4651 -0.7361 -1.1097
39462SOL    HW228701   4.851   1.171   5.389  0.4841  0.8962  0.0317
39463SOL     OW28702   5.382   0.404   2.356  0.2132 -1.0478  0.0266
39463SOL    HW128703   5.297   0.386   2.397  0.3558 -1.2794  0.2250
39463SOL    HW228704   5.400   0.495   2.377 -0.3007 -0.7958 -0.5912
39464SOL     OW28705   1.074   6.363  10.322 -0.0533  0.1233  0.8484
39464SOL    HW128706   1.049   6.403  10.405  1.1084  3.0676 -0.0956
39464SOL    HW228707   1.015   6.402  10.258 -0.2649 -1.3347  0.1097
39465SOL     OW28708   0.235   6.101   1.991 -1.0506 -0.6298 -0.3633
39465SOL    HW128709   0.309   6.134   1.942 -0.2611 -1.2065  0.4093
39465SOL    HW228710   0.199   6.177   2.036  0.9098 -0.7898  1.6202
39466SOL     OW28711   7.034  12.008   2.371 -0.2296 -0.2501 -0.3093
39466SOL    HW128712   7.065  11.948   2.304  0.9790  0.5856 -0.5273
39466SOL    HW228713   7.111  12.060   2.395 -0.7326 -0.2212  1.3990
39467SOL     OW28714  11.111   1.943   5.103  0.2489 -0.1453  0.1575
39467SOL    HW128715  11.103   1.915   5.011  0.4123  0.5441 -0.0748
39467SOL    HW228716  11.059   1.879   5.152 -2.8544  1.4380 -0.7799
39468SOL     OW28717   2.368  12.765   7.624 -0.4258 -0.3554  0.4712
39468SOL    HW128718   2.285  12.768   7.576  0.5835  2.7225 -1.3120
39468SOL    HW228719   2.419  12.697   7.580 -0.5654  0.4847 -1.0289
39469SOL     OW28720   3.519   0.814   1.019  0.6718 -0.7911  0.2079
39469SOL    HW128721   3.506   0.731   0.973 -0.1582 -0.1991 -0.6618
39469SOL    HW228722   3.458   0.811   1.092  0.0456 -0.6096 -0.3020
39470SOL     OW28723  12.274  12.158   0.417  0.1109 -0.0161  0.3086
39470SOL    HW128724  12.333  12.154   0.341  0.1984  0.8793  0.3190
39470SOL    HW228725  12.315  12.102   0.482  0.8936  0.4914  0.2662
39471SOL     OW28726   6.553   2.442   7.504 -0.3095  0.6672 -0.1344
39471SOL    HW128727   6.610   2.474   7.573 -3.3566 -0.8091  3.4303
39471SOL    HW228728   6.565   2.347   7.505 -3.2821  0.1793  1.4761
39472SOL     OW28729   4.399   9.167  11.646 -0.9012 -0.3749 -0.1843
39472SOL    HW128730   4.384   9.117  11.726 -0.6723 -1.2454 -0.6731
39472SOL    HW228731   4.375   9.107  11.575 -1.3057  0.4548 -0.7679
39473SOL     OW28732   0.591   1.650   1.217 -0.4243 -0.2630  0.0876
39473SOL    HW128733   0.564   1.701   1.141 -1.1251 -1.9636 -0.8569
39473SOL    HW228734   0.545   1.690   1.291 -1.4242  0.0878 -0.7046
39474SOL     OW28735   2.805  11.394  10.241  0.4843 -0.6445  0.1100
39474SOL    HW128736   2.737  11.329  10.259  0.3313 -0.2022  1.2192
39474SOL    HW228737   2.822  11.434  10.326  0.9224  0.4305 -0.4690
39475SOL     OW28738   1.973   4.231   1.477  0.3892  0.2503 -0.0167
39475SOL    HW128739   2.032   4.192   1.412 -0.6279  0.3381 -1.0145
39475SOL    HW228740   2.007   4.320   1.489  2.0643 -0.5138  1.4599
39476SOL     OW28741   2.192  12.109   1.201 -0.4370  0.5903  0.1664
39476SOL    HW128742   2.277  12.152   1.185  0.4347 -1.5000 -1.2493
39476SOL    HW228743   2.201  12.070   1.288 -0.2471  1.0451  0.3522
39477SOL     OW28744  12.160   4.431   5.186  0.5996  0.1206 -0.5118
39477SOL    HW128745  12.133   4.383   5.108 -2.7264  1.0295 -0.0916
39477SOL    HW228746  12.120   4.384   5.258  1.8966  0.4646  0.4665
39478SOL     OW28747  10.391   6.446  10.202  0.1270 -0.2544 -0.5665
39478SOL    HW128748  10.439   6.519  10.162  0.5565 -0.2369 -0.0259
39478SOL    HW228749  10.300   6.462  10.178  0.0632  1.0929  0.4808
39479SOL     OW28750   6.199  12.865   8.123 -0.1620  0.0626  0.2096
39479SOL    HW128751   6.256  12.845   8.049  0.9259  0.4655  0.9059
39479SOL    HW228752   6.181  12.780   8.163 -1.5550 -0.2725 -1.0498
39480SOL     OW28753   4.684   6.265   1.127  0.6344 -0.2610  0.3108
39480SOL    HW128754   4.678   6.247   1.221 -1.5677  0.9540  0.4630
39480SOL    HW228755   4.726   6.188   1.090 -0.2529 -1.6442  2.0575
39481SOL     OW28756   8.298   1.241   9.722 -0.2651  0.6050 -0.2267
39481SOL    HW128757   8.270   1.151   9.708 -0.6647  0.4894  1.1685
39481SOL    HW228758   8.393   1.237   9.728 -0.2366  0.3809 -0.8690
39482SOL     OW28759   8.173  11.826   3.520 -0.5958 -0.4851  0.0065
39482SOL    HW128760   8.242  11.846   3.457 -1.6179 -0.4727 -1.1311
39482SOL    HW228761   8.204  11.749   3.567  0.6636  0.1491  0.2667
39483SOL     OW28762   3.223   2.675   5.846  0.0571 -0.1024 -0.0961
39483SOL    HW128763   3.151   2.638   5.897 -1.5939  0.3974 -1.9311
39483SOL    HW228764   3.245   2.606   5.783  0.6837  0.0351 -0.0348
39484SOL     OW28765  11.656   5.110   1.061  0.2927  0.0551 -0.5689
39484SOL    HW128766  11.569   5.126   1.027 -0.4894 -1.5675  0.5191
39484SOL    HW228767  11.672   5.181   1.123 -0.0100  0.6444 -1.1519
39485SOL     OW28768  12.605   3.066  12.094  0.2794 -0.0267  0.5792
39485SOL    HW128769  12.645   3.141  12.137 -1.0305  1.5570 -0.8289
39485SOL    HW228770  12.533   3.103  12.043  0.1400 -2.1292 -0.8802
39486SOL     OW28771   4.090   6.232   8.827 -0.1281  0.0164 -0.6005
39486SOL    HW128772   4.145   6.281   8.766 -1.0767  0.7174 -0.9150
39486SOL    HW228773   4.112   6.141   8.810 -0.6926  0.1579 -2.3357
39487SOL     OW28774   7.823  12.192  10.476  0.0820  0.3786 -0.4967
39487SOL    HW128775   7.731  12.218  10.466  0.4677  1.8840 -0.3580
39487SOL    HW228776   7.831  12.112  10.423 -1.1959  0.4664 -0.8530
39488SOL     OW28777   7.737  12.488  12.174 -0.2959 -0.1405 -0.2677
39488SOL    HW128778   7.699  12.520  12.256 -0.5118 -1.9462  0.3913
39488SOL    HW228779   7.673  12.513  12.107 -0.5293  0.6235  0.2294
39489SOL     OW28780  10.961   5.413  12.020  0.1558  0.4350  0.2343
39489SOL    HW128781  11.000   5.327  12.039  0.1481 -0.1407 -2.0876
39489SOL    HW228782  10.879   5.414  12.069  0.9065 -0.2014  1.5644
39490SOL     OW28783  12.965  11.921   0.913  0.6010  0.4987  0.2755
39490SOL    HW128784  13.053  11.885   0.909 -0.3532 -2.7943  3.4317
39490SOL    HW228785  12.924  11.894   0.831  1.9919  0.6271 -0.4994
39491SOL     OW28786  12.470   4.502   3.717  0.1155  0.5061 -0.4132
39491SOL    HW128787  12.512   4.453   3.788 -0.0913  0.3054 -0.4277
39491SOL    HW228788  12.417   4.437   3.672  0.8618  0.4579 -1.2412
39492SOL     OW28789  10.934   2.844   0.330 -0.2802 -0.0453  0.6245
39492SOL    HW128790  10.999   2.782   0.364  1.1305  0.2955 -1.3223
39492SOL    HW228791  10.985   2.911   0.286 -1.9321 -0.4008 -2.0604
39493SOL     OW28792  12.580   7.194  11.069 -0.1687  0.6404 -0.7329
39493SOL    HW128793  12.525   7.268  11.094  0.2094  0.5307  0.4678
39493SOL    HW228794  12.622   7.167  11.150  0.7889  0.0024 -1.4219
39494SOL     OW28795  10.372   2.651   2.788 -0.3442 -0.3250 -0.3424
39494SOL    HW128796  10.463   2.623   2.776 -0.3237  0.1152 -1.2946
39494SOL    HW228797  10.359   2.718   2.721 -1.8620 -1.4917 -1.2665
39495SOL     OW28798   6.480   9.645   0.139 -0.5854 -0.0795 -0.7341
39495SOL    HW128799   6.557   9.701   0.148 -1.5750  1.8249 -3.1372
39495SOL    HW228800   6.516   9.556   0.132  1.3323  0.6697 -1.0067
39496SOL     OW28801   0.514   6.356   6.888 -0.5566 -0.4954 -0.0532
39496SOL    HW128802   0.505   6.291   6.958 -1.8872  1.1762  1.4699
39496SOL    HW228803   0.608   6.364   6.875 -0.2377 -0.7532  1.7258
39497SOL     OW28804  11.710   9.793  11.525  0.0757 -0.3537  0.1101
39497SOL    HW128805  11.724   9.808  11.619  0.8675  1.9209 -0.3038
39497SOL    HW228806  11.696   9.699  11.518 -0.4827 -0.5339  2.5663
39498SOL     OW28807   5.186   6.166   1.494 -0.1180 -0.5647  0.2887
39498SOL    HW128808   5.195   6.207   1.408  1.1812 -0.2643  0.5469
39498SOL    HW228809   5.100   6.124   1.491 -0.0125 -0.7593 -1.2416
39499SOL     OW28810   4.336  11.794   7.048  0.3888 -0.0951  0.0837
39499SOL    HW128811   4.393  11.834   7.114  1.7600 -0.6825 -0.6928
39499SOL    HW228812   4.392  11.729   7.005 -0.4245  0.3388 -1.7196
39500SOL     OW28813   6.017  11.000   6.811 -0.1737  0.0780 -0.5053
39500SOL    HW128814   6.092  11.011   6.752  0.2102  2.3072  0.2857
39500SOL    HW228815   6.037  11.058   6.885 -1.7370 -0.8576  0.7082
39501SOL     OW28816   4.151   3.585   7.164 -0.1763  0.1824  0.6760
39501SOL    HW128817   4.180   3.548   7.080  2.6689  1.7217  0.8714
39501SOL    HW228818   4.061   3.553   7.174 -0.6593 -0.0313 -2.9720
39502SOL     OW28819  12.011   3.578  12.802  0.5508  0.1114 -0.0945
39502SOL    HW128820  11.918   3.558  12.796  0.8467 -1.4863  0.2376
39502SOL    HW228821  12.018   3.668  12.770 -0.9893 -0.0160 -0.8861
39503SOL     OW28822   6.725   1.014  11.717  0.0088 -0.7456 -0.5105
39503SOL    HW128823   6.808   1.057  11.738 -0.1699 -0.1022 -1.1181
39503SOL    HW228824   6.746   0.954  11.645  0.0065 -0.7903 -0.4742
39504SOL     OW28825   0.232  12.900   1.458  0.2852  0.3496 -0.1037
39504SOL    HW128826   0.307  12.843   1.475 -1.0190 -1.2409  0.6640
39504SOL    HW228827   0.166  12.841   1.420 -0.8362  1.5399 -0.0600
39505SOL     OW28828   9.870   5.363   4.874 -0.1867  0.0359  0.0804
39505SOL    HW128829   9.845   5.319   4.793  0.0492  0.4322 -0.2088
39505SOL    HW228830   9.924   5.437   4.846 -0.3175  0.3258  0.5820
39506SOL     OW28831   8.334  12.279   1.623 -0.1003 -0.3610 -0.0367
39506SOL    HW128832   8.288  12.212   1.674 -0.0516 -0.7603 -0.5014
39506SOL    HW228833   8.269  12.308   1.558  0.9366 -2.6197 -2.2495
39507SOL     OW28834   0.503   4.027   1.887 -0.0136  0.1079  0.1141
39507SOL    HW128835   0.408   4.034   1.904 -0.2098  0.0936 -0.9299
39507SOL    HW228836   0.527   4.114   1.856  0.1776 -0.1023 -0.3185
39508SOL     OW28837   8.130   0.052   7.134 -0.5576  0.4567 -0.3696
39508SOL    HW128838   8.123   0.145   7.155  0.8978  0.5785 -0.3064
39508SOL    HW228839   8.100   0.045   7.043 -4.4769  0.3148  0.7383
39509SOL     OW28840   3.023   0.229   9.756  0.0092 -1.0299  0.1344
39509SOL    HW128841   3.110   0.192   9.742 -0.7090 -2.9007  0.4308
39509SOL    HW228842   2.987   0.237   9.668 -0.1270 -1.8169  0.1118
39510SOL     OW28843   3.984  10.902  10.187  0.1833  0.2753  0.1253
39510SOL    HW128844   3.942  10.817  10.179  0.8992 -0.1388  0.6695
39510SOL    HW228845   3.992  10.934  10.097 -2.2516  0.8573  0.0696
39511SOL     OW28846   7.093   1.467   6.723 -0.4807 -0.1610 -0.5800
39511SOL    HW128847   7.122   1.380   6.749  0.0823 -0.2588 -1.5071
39511SOL    HW228848   7.169   1.523   6.740 -1.2232  0.3934  1.1520
39512SOL     OW28849   4.791   6.314   8.576  0.3183 -0.1474  0.7664
39512SOL    HW128850   4.715   6.370   8.560  0.3363 -0.2456  0.3338
39512SOL    HW228851   4.785   6.291   8.669  0.9620  1.5484  1.2648
39513SOL     OW28852  12.487   1.926  11.734 -0.3628 -0.4224  0.2447
39513SOL    HW128853  12.475   1.971  11.817 -0.0130  0.1494 -0.0035
39513SOL    HW228854  12.459   1.990  11.668  1.2804 -0.0828 -0.1827
39514SOL     OW28855   9.353   8.684   5.027  0.3007  0.0017  0.7347
39514SOL    HW128856   9.288   8.753   5.033  1.1528  0.9858 -0.6722
39514SOL    HW228857   9.307   8.605   5.057 -1.3035  0.7972  0.4865
39515SOL     OW28858   9.316  11.481   9.967  0.4044 -0.3504  0.1065
39515SOL    HW128859   9.373  11.546   9.927  0.9498  0.7169  2.4033
39515SOL    HW228860   9.336  11.487  10.061 -0.8773 -2.5422  0.5897
39516SOL     OW28861   5.680  10.599   8.493 -0.6312 -0.1219 -0.0007
39516SOL    HW128862   5.724  10.611   8.578 -1.5146 -0.0482  0.4553
39516SOL    HW228863   5.625  10.676   8.483  2.3590  1.9237 -2.5223
39517SOL     OW28864  12.570  12.198   6.536 -0.4647 -0.5130 -0.9337
39517SOL    HW128865  12.523  12.156   6.464 -1.3365 -1.8159  0.3477
39517SOL    HW228866  12.652  12.148   6.543 -1.1809 -1.5708  0.1220
39518SOL     OW28867   4.156   8.914  12.809 -0.4144  0.1965  0.2346
39518SOL    HW128868   4.070   8.876  12.826 -0.4372  0.1005 -0.1018
39518SOL    HW228869   4.146   9.007  12.828 -0.5916  0.1847  0.1916
39519SOL     OW28870   4.499   7.908   4.189 -0.1689 -0.3190  0.0212
39519SOL    HW128871   4.489   7.932   4.097  1.5279 -0.8890 -0.3580
39519SOL    HW228872   4.466   7.984   4.237  1.0920  1.0034 -1.0987
39520SOL     OW28873   2.420  10.580   5.064  0.4817  0.1472 -0.4735
39520SOL    HW128874   2.429  10.651   5.127 -1.0022 -1.3427  1.5772
39520SOL    HW228875   2.490  10.519   5.087  0.5330  0.0441 -0.9017
39521SOL     OW28876   7.680   9.813   3.335  0.2799  0.2789 -0.3497
39521SOL    HW128877   7.696   9.756   3.259 -1.6708  0.7111 -1.1592
39521SOL    HW228878   7.700   9.758   3.411  2.6873 -0.0415 -1.1157
39522SOL     OW28879   0.676   9.438   0.491  1.3605 -0.6190 -0.8738
39522SOL    HW128880   0.655   9.508   0.430  1.1258 -0.0719 -0.1742
39522SOL    HW228881   0.729   9.480   0.559 -1.4800 -0.3016  1.3501
39523SOL     OW28882  10.585   7.502   7.406 -0.0024  0.6559 -0.1478
39523SOL    HW128883  10.640   7.573   7.372  0.2276  0.9930  0.8817
39523SOL    HW228884  10.520   7.547   7.461  0.2397  0.0618  0.6304
39524SOL     OW28885   2.522  12.203   3.092  0.0187 -0.4648  0.1783
39524SOL    HW128886   2.451  12.235   3.037 -1.2527 -1.6022  1.0866
39524SOL    HW228887   2.482  12.133   3.144  2.0732 -1.8731 -0.0462
39525SOL     OW28888  12.866   5.386   0.493  1.0945  0.3015  0.2897
39525SOL    HW128889  12.773   5.377   0.474  0.7302 -0.8693  2.3532
39525SOL    HW228890  12.908   5.387   0.407 -0.9051  2.5208 -0.7907
39526SOL     OW28891   5.252   0.470   9.858 -0.0669  0.7827 -0.3261
39526SOL    HW128892   5.247   0.421   9.776  0.5254 -1.0471  0.6729
39526SOL    HW228893   5.165   0.460   9.898 -0.2904  1.5022 -0.6038
39527SOL     OW28894   9.955   8.273  12.971  0.3904 -0.2067 -0.0788
39527SOL    HW128895  10.014   8.206  13.004 -0.4782  0.2078  2.5138
39527SOL    HW228896   9.920   8.315  13.049 -3.1872 -0.2986 -1.4576
39528SOL     OW28897   9.683   2.283   8.887 -0.0071 -0.2881  0.6145
39528SOL    HW128898   9.649   2.195   8.907  2.2877 -1.5435 -0.5713
39528SOL    HW228899   9.628   2.314   8.815 -0.0889 -1.3015  0.2225
39529SOL     OW28900   4.406  12.399   2.221 -0.4115 -0.1458  0.2473
39529SOL    HW128901   4.414  12.400   2.316  0.1372 -0.5140  0.2084
39529SOL    HW228902   4.445  12.316   2.194 -0.8145 -0.1731 -0.2791
39530SOL     OW28903   4.316   2.853   9.419  0.9296  0.0319  0.2169
39530SOL    HW128904   4.238   2.888   9.376  1.8932  1.4515 -0.4326
39530SOL    HW228905   4.329   2.911   9.495  2.7827  1.4480 -1.1011
39531SOL     OW28906   6.172   3.902   4.554  0.1170  0.4473 -0.0318
39531SOL    HW128907   6.087   3.897   4.511 -0.0420  2.0279  0.0631
39531SOL    HW228908   6.195   3.995   4.554  1.6972  0.0948  0.2413
39532SOL     OW28909   0.791   4.879   7.412  0.4942 -0.9713 -0.3494
39532SOL    HW128910   0.715   4.894   7.356  0.4762 -0.7260 -0.2583
39532SOL    HW228911   0.856   4.942   7.382 -0.7397  1.7759  2.2684
39533SOL     OW28912  10.983  11.694   5.765  0.3112  0.7317 -0.0984
39533SOL    HW128913  10.971  11.783   5.797  2.0154  0.1830  2.4002
39533SOL    HW228914  10.909  11.679   5.706  0.5050  4.0907 -1.4240
39534SOL     OW28915   6.040   1.290   4.119 -0.0560  0.4408  0.0211
39534SOL    HW128916   6.104   1.322   4.056 -0.9624 -0.8360 -1.6290
39534SOL    HW228917   5.958   1.284   4.070 -1.4022  1.6074  1.9499
39535SOL     OW28918   0.004   4.735   0.852 -0.5590 -0.0529 -0.1559
39535SOL    HW128919   0.065   4.685   0.907 -0.5029  0.2899  0.0917
39535SOL    HW228920   0.059   4.781   0.789 -0.3235  2.1749  1.5587
39536SOL     OW28921   4.515   1.048   0.519 -0.2485 -0.3931 -0.1731
39536SOL    HW128922   4.443   1.010   0.469  1.1842  0.0895 -2.8251
39536SOL    HW228923   4.478   1.067   0.605 -3.0786 -0.7377 -1.2203
39537SOL     OW28924  11.340   2.121   8.266 -0.0973  0.2531 -0.3680
39537SOL    HW128925  11.424   2.166   8.263  1.1826 -1.9406 -0.0143
39537SOL    HW228926  11.360   2.032   8.238 -1.7767 -1.0117  2.0780
39538SOL     OW28927  12.952  11.485   4.665 -0.5434  0.1736  0.1540
39538SOL    HW128928  13.038  11.477   4.705 -1.4029 -1.5975  1.7995
39538SOL    HW228929  12.970  11.493   4.571  1.3831 -2.7773  0.1573
39539SOL     OW28930   9.525   9.754   9.478  0.0553 -0.1612  0.1298
39539SOL    HW128931   9.550   9.663   9.491  0.5196  0.1052  1.1665
39539SOL    HW228932   9.608   9.801   9.470 -0.1343  0.4064  1.3012
39540SOL     OW28933   1.920   7.939   1.871  0.2179 -0.3605 -0.5173
39540SOL    HW128934   1.898   7.998   1.799  2.7865  0.2926 -0.8624
39540SOL    HW228935   1.932   7.854   1.830  0.4963 -0.2509 -0.6614
39541SOL     OW28936   2.429   3.694   3.077 -0.1916  0.2796  0.0275
39541SOL    HW128937   2.338   3.688   3.105 -0.1956 -0.8801 -0.1866
39541SOL    HW228938   2.455   3.604   3.060  1.2638  0.4904  0.9037
39542SOL     OW28939   5.215  10.214   5.934 -0.0690 -0.4180 -0.3603
39542SOL    HW128940   5.190  10.199   6.025 -0.5358 -1.6152 -0.6684
39542SOL    HW228941   5.152  10.164   5.882  2.0389 -2.4122 -1.2143
39543SOL     OW28942   4.011  10.666   7.798  1.0818 -0.1101 -0.7968
39543SOL    HW128943   3.986  10.731   7.863 -0.5989 -0.4634 -1.0334
39543SOL    HW228944   4.105  10.677   7.787  0.7823  2.7197 -1.2783
39544SOL     OW28945   2.048  10.632   4.177  0.1338 -0.7525  0.6570
39544SOL    HW128946   2.035  10.543   4.209  1.1774 -0.2374  2.6510
39544SOL    HW228947   2.047  10.623   4.081  1.7903 -3.1483  0.7826
39545SOL     OW28948   5.568   2.268   7.056 -0.0203 -0.2666  0.1743
39545SOL    HW128949   5.579   2.204   7.126  1.5735 -0.1125  0.0898
39545SOL    HW228950   5.578   2.353   7.099 -1.1177 -0.0818  0.1038
39546SOL     OW28951  12.572   8.113  11.623  0.3677  0.2451  0.5641
39546SOL    HW128952  12.509   8.061  11.673 -1.0775 -1.1446 -2.4063
39546SOL    HW228953  12.520   8.186  11.588  1.1875  0.8890  0.6643
39547SOL     OW28954   9.392   8.781  11.224  0.3816 -0.0229 -0.4445
39547SOL    HW128955   9.383   8.701  11.276 -0.2276 -1.2358 -2.3180
39547SOL    HW228956   9.318   8.779  11.164  1.0443  1.3326 -1.3580
39548SOL     OW28957   9.164  12.635   6.438  0.1102 -0.7590  0.6032
39548SOL    HW128958   9.191  12.567   6.499  0.5478 -1.7914 -0.6994
39548SOL    HW228959   9.090  12.678   6.480  0.9623 -0.8216  2.2577
39549SOL     OW28960   0.127  12.031   4.568 -0.2942 -0.3628  0.0907
39549SOL    HW128961   0.118  12.103   4.506 -1.3765  1.7264  2.4637
39549SOL    HW228962   0.050  11.977   4.554  0.4133 -1.0061 -1.5673
39550SOL     OW28963   5.385   2.129   4.778 -0.1007 -0.3837 -0.0841
39550SOL    HW128964   5.463   2.149   4.726 -0.5706  0.3123 -0.5205
39550SOL    HW228965   5.401   2.040   4.810  1.5684  0.2607  1.0665
39551SOL     OW28966  12.814   3.161   2.997  0.1434 -0.1238  0.3403
39551SOL    HW128967  12.900   3.161   3.038  0.2640  0.6456  0.0937
39551SOL    HW228968  12.811   3.241   2.945  0.1900 -1.2590 -1.5406
39552SOL     OW28969   3.300   7.606   2.281 -0.1007  0.6487 -0.6428
39552SOL    HW128970   3.381   7.567   2.314  0.9106  1.3351 -2.1600
39552SOL    HW228971   3.230   7.552   2.317  1.0750 -0.4347  0.0845
39553SOL     OW28972   1.247  11.608   9.439  0.1282  0.4039 -0.2971
39553SOL    HW128973   1.221  11.517   9.457 -1.0058  0.5840 -0.9210
39553SOL    HW228974   1.284  11.639   9.522  0.3850 -0.5727 -0.0328
39554SOL     OW28975  11.963   0.876  12.232  0.2130  0.3730 -0.1659
39554SOL    HW128976  12.007   0.905  12.152  2.1015 -1.0116  0.3002
39554SOL    HW228977  12.032   0.873  12.298 -1.0156  0.0777  1.1583
39555SOL     OW28978   8.789   2.877   2.595 -0.0754  0.3991  0.2400
39555SOL    HW128979   8.761   2.969   2.600  2.5721  1.2530  2.4484
39555SOL    HW228980   8.838   2.871   2.513 -0.7966  0.7626 -0.2297
39556SOL     OW28981   8.191   3.867   1.537 -0.5067  0.3774  0.1527
39556SOL    HW128982   8.165   3.789   1.489  1.1173 -0.6412  0.8702
39556SOL    HW228983   8.117   3.886   1.594 -1.0700 -0.3988 -0.3038
39557SOL     OW28984   7.157   8.002  12.742 -0.3722  0.4621 -0.3857
39557SOL    HW128985   7.212   7.994  12.664 -0.7070 -0.9839 -0.4891
39557SOL    HW228986   7.194   8.078  12.789  2.3436 -0.9737  0.0207
39558SOL     OW28987   6.550  12.120   1.511  0.0461  0.1536 -0.2969
39558SOL    HW128988   6.510  12.133   1.425  0.4229  2.3490 -0.1929
39558SOL    HW228989   6.526  12.198   1.560 -1.1088 -1.5287  2.0269
39559SOL     OW28990   4.848  11.308  12.913  0.0755 -0.2763 -0.0248
39559SOL    HW128991   4.858  11.352  12.997  0.0349  0.2414 -0.2906
39559SOL    HW228992   4.844  11.379  12.848  2.6326 -0.6758 -0.7527
39560SOL     OW28993  12.235   7.530   7.166  0.0491 -0.2466 -0.6475
39560SOL    HW128994  12.250   7.452   7.112 -1.0834 -0.6949 -0.3572
39560SOL    HW228995  12.207   7.597   7.104  0.4861 -0.2418 -0.8368
39561SOL     OW28996   2.372   2.462   8.487 -0.2754  0.5550 -0.3695
39561SOL    HW128997   2.289   2.503   8.464 -1.3269 -0.6747  0.9908
39561SOL    HW228998   2.425   2.533   8.523 -1.4796  1.0253  0.5384
39562SOL     OW28999   7.615   3.941   8.669  0.2193  0.2699  0.1226
39562SOL    HW129000   7.680   3.910   8.606 -0.4326 -1.7453  0.3806
39562SOL    HW229001   7.570   4.013   8.623 -0.8604 -1.7068 -2.1833
39563SOL     OW29002   6.795   3.868   5.779 -0.3610  0.1346  0.2961
39563SOL    HW129003   6.727   3.887   5.714 -1.1579 -0.4810  0.9299
39563SOL    HW229004   6.801   3.948   5.831  0.0058  0.4926 -0.2812
39564SOL     OW29005   6.364  12.909   6.872 -0.1899  0.4685 -0.6672
39564SOL    HW129006   6.415  12.892   6.952 -0.1090  0.4999 -0.7118
39564SOL    HW229007   6.425  12.889   6.800 -0.2869  0.3679 -0.7214
39565SOL     OW29008   6.849  10.170  11.248 -0.0876  0.6068 -0.1466
39565SOL    HW129009   6.803  10.111  11.308 -0.5406  0.8773 -0.2195
39565SOL    HW229010   6.870  10.115  11.172 -0.8082  0.6133 -0.3617
39566SOL     OW29011   7.138  11.241   4.978  0.4414 -0.4599  0.2180
39566SOL    HW129012   7.065  11.213   4.922 -0.4436  2.1984 -0.1285
39566SOL    HW229013   7.099  11.250   5.065  0.7667 -0.6169  0.3788
39567SOL     OW29014   7.682  10.399   2.556 -0.4816 -0.5105 -0.4072
39567SOL    HW129015   7.702  10.481   2.602 -0.7480  0.9789 -2.7871
39567SOL    HW229016   7.655  10.339   2.625  3.3670  0.1451  1.9423
39568SOL     OW29017   5.045   1.986   7.001 -0.3760 -0.5945  0.5657
39568SOL    HW129018   4.992   1.949   6.930  0.7684  0.5161 -0.9403
39568SOL    HW229019   4.993   1.969   7.080 -2.8504  0.1502 -0.7685
39569SOL     OW29020  12.592   3.658   0.910 -0.5109  0.5745 -0.2577
39569SOL    HW129021  12.669   3.602   0.906 -0.8609  0.1346 -1.5640
39569SOL    HW229022  12.613   3.724   0.976 -0.0207 -0.9709  1.1748
39570SOL     OW29023  10.291   0.209   7.207 -0.2317  0.0208  0.0094
39570SOL    HW129024  10.365   0.198   7.266 -0.4520  0.4427  0.3733
39570SOL    HW229025  10.267   0.120   7.181  0.7606 -0.0915 -0.5712
39571SOL     OW29026   2.014   3.961  11.252  0.1844 -0.6549 -0.0628
39571SOL    HW129027   2.094   3.929  11.293  0.3096 -0.8052 -0.4129
39571SOL    HW229028   2.028   3.946  11.158  0.0630  0.0255 -0.1952
39572SOL     OW29029   8.940   7.291   7.148  0.0863 -0.0073 -0.1540
39572SOL    HW129030   8.876   7.249   7.091 -1.5689  1.3470  0.6277
39572SOL    HW229031   8.944   7.382   7.118 -0.6961  0.6915  1.7237
39573SOL     OW29032   9.222  11.143  10.234 -0.4746 -0.0608 -0.2503
39573SOL    HW129033   9.287  11.213  10.241 -0.3550 -0.2291  0.4546
39573SOL    HW229034   9.153  11.169  10.296 -1.3205  0.3620 -1.3430
39574SOL     OW29035  10.013   1.295   4.854  0.4982  0.4387 -0.0211
39574SOL    HW129036   9.980   1.222   4.802 -2.5762 -0.2589  2.6220
39574SOL    HW229037  10.084   1.257   4.906  0.9131  0.1344 -0.7974
39575SOL     OW29038   2.481   3.184   4.028  0.0266 -0.0778  0.2653
39575SOL    HW129039   2.470   3.232   4.110 -0.1059 -2.6228  1.8307
39575SOL    HW229040   2.400   3.134   4.018 -0.1028  0.4212 -1.6453
39576SOL     OW29041  10.720   6.225   5.443  0.6166  0.1144  0.3153
39576SOL    HW129042  10.646   6.186   5.398  0.2287  0.1880  0.8799
39576SOL    HW229043  10.742   6.162   5.512 -0.2926  1.0635  1.5218
39577SOL     OW29044  10.057  12.374   1.009  0.2245 -0.1844 -0.0257
39577SOL    HW129045  10.148  12.385   1.035  0.0726 -0.7154  0.7716
39577SOL    HW229046  10.031  12.291   1.049  0.7394 -2.5253 -3.9912
39578SOL     OW29047   8.656  12.167   0.640  0.3814 -0.0514 -0.2911
39578SOL    HW129048   8.667  12.141   0.549  0.3527 -2.2191  0.2596
39578SOL    HW229049   8.654  12.084   0.688  0.8243  1.0549  1.7334
39579SOL     OW29050   5.339   3.937   9.775  0.1985 -0.5278 -0.0456
39579SOL    HW129051   5.311   4.028   9.787  3.1407  0.2582  1.9808
39579SOL    HW229052   5.411   3.943   9.712  0.1049 -1.5410 -0.2607
39580SOL     OW29053   5.855  10.386   1.275 -0.8060  0.3476 -0.3995
39580SOL    HW129054   5.768  10.375   1.235 -0.4349 -0.9751 -0.9073
39580SOL    HW229055   5.901  10.305   1.253  0.0296  0.3606  1.2153
39581SOL     OW29056   4.017   9.197   2.319  0.1153 -0.2355 -0.3829
39581SOL    HW129057   4.104   9.232   2.300  0.2641 -1.0059 -1.2137
39581SOL    HW229058   3.976   9.263   2.375  0.9570  0.4884 -0.5947
39582SOL     OW29059   8.846  10.500  10.022 -0.3966 -0.3221  0.4033
39582SOL    HW129060   8.939  10.516  10.033 -0.5291  0.5454  0.3696
39582SOL    HW229061   8.825  10.433  10.087  0.4061 -1.1498 -0.1706
39583SOL     OW29062  12.105   4.613   3.888 -0.0480 -0.3110 -0.2299
39583SOL    HW129063  12.091   4.707   3.899 -1.5149 -0.6868  1.5850
39583SOL    HW229064  12.174   4.607   3.822 -0.8569  2.0012 -1.4047
39584SOL     OW29065   4.671  11.145   7.050  0.2333  0.3263  0.3823
39584SOL    HW129066   4.741  11.192   7.004 -0.8056  1.6734  0.1307
39584SOL    HW229067   4.683  11.168   7.142  1.4231 -1.2036  0.6449
39585SOL     OW29068  11.873   7.883   1.026  0.0546  0.4835 -0.1460
39585SOL    HW129069  11.880   7.871   1.121 -0.6928  0.4509 -0.0898
39585SOL    HW229070  11.865   7.794   0.991  1.0641  0.4457 -0.3134
39586SOL     OW29071  12.902  11.756   6.639  0.5981 -0.0437  0.1420
39586SOL    HW129072  12.844  11.732   6.712 -0.7801  0.2820 -0.8122
39586SOL    HW229073  12.951  11.676   6.620  0.1374 -0.4571  0.6657
39587SOL     OW29074   8.390  12.231   1.264  0.9391 -0.0786 -0.3948
39587SOL    HW129075   8.470  12.280   1.281  0.5374  0.8170 -1.0183
39587SOL    HW229076   8.412  12.173   1.192  0.8052  0.7510 -1.1138
39588SOL     OW29077   7.911   9.402  12.017  0.0214  0.2832  0.1770
39588SOL    HW129078   7.960   9.480  12.043 -1.3594  0.8709  1.1412
39588SOL    HW229079   7.963   9.328  12.050  0.8358  0.8289  0.1369
39589SOL     OW29080   1.198  11.789   5.288 -0.4231 -0.2190  0.1554
39589SOL    HW129081   1.248  11.718   5.329 -0.9216 -1.3673 -1.1651
39589SOL    HW229082   1.203  11.861   5.351  2.0779 -0.6026  0.4932
39590SOL     OW29083   7.085   1.477   8.030  0.4383  0.4507 -0.2796
39590SOL    HW129084   6.998   1.457   8.064  0.9429 -1.9604 -0.2110
39590SOL    HW229085   7.069   1.525   7.948 -1.0862 -2.0376 -1.5562
39591SOL     OW29086   2.005   4.795   9.643 -0.0316  0.4526  0.4674
39591SOL    HW129087   2.088   4.754   9.668 -0.0252 -0.4522 -0.9078
39591SOL    HW229088   1.940   4.756   9.702  0.1884 -0.5674  0.0564
39592SOL     OW29089  11.903  10.867   5.319  0.1836  0.5285 -0.2996
39592SOL    HW129090  11.978  10.879   5.262  0.0741  0.5793 -0.4346
39592SOL    HW229091  11.902  10.773   5.338  0.6189  0.6179  0.1755
39593SOL     OW29092   2.768  10.428   6.678  0.0457  0.4683 -0.1374
39593SOL    HW129093   2.807  10.498   6.731 -0.3255  0.1284  0.5958
39593SOL    HW229094   2.685  10.408   6.721  0.1622 -0.4540 -0.3143
39594SOL     OW29095   8.789   4.265   2.007  0.4916 -0.7616  0.6660
39594SOL    HW129096   8.851   4.203   2.046 -0.9370 -2.6982  0.0217
39594SOL    HW229097   8.720   4.274   2.072  0.7217  0.2415  0.7808
39595SOL     OW29098   9.535  10.977   5.666  0.6203 -0.2574  0.1601
39595SOL    HW129099   9.631  10.979   5.663  0.6898 -1.3600  0.9790
39595SOL    HW229100   9.512  10.886   5.649 -0.3265  0.1111 -0.6447
39596SOL     OW29101   7.450   7.367   0.227  0.2377  0.8916  0.6431
39596SOL    HW129102   7.369   7.327   0.258  0.2428  0.1470 -0.2713
39596SOL    HW229103   7.423   7.451   0.190 -0.2994  0.2016 -0.6082
39597SOL     OW29104   7.477   4.485  10.762  0.1186 -0.1770  0.2023
39597SOL    HW129105   7.400   4.479  10.818  1.0369 -0.0150  1.5178
39597SOL    HW229106   7.452   4.547  10.694 -1.1139 -0.5937  0.2548
39598SOL     OW29107  12.357   8.625   4.672  0.1415  0.2387  0.4480
39598SOL    HW129108  12.398   8.577   4.744  0.6770 -1.8833 -1.1352
39598SOL    HW229109  12.263   8.611   4.684  0.2504 -0.4734  0.5342
39599SOL     OW29110   6.289   0.672   3.058 -0.0968  0.4603 -0.2741
39599SOL    HW129111   6.238   0.604   3.102  0.3413  0.3390  0.0620
39599SOL    HW229112   6.246   0.684   2.973 -0.3641 -0.0171 -0.2105
39600SOL     OW29113  11.203  11.326   8.877 -0.4981  0.0114  0.4528
39600SOL    HW129114  11.233  11.331   8.968  0.1262 -2.6034  0.4563
39600SOL    HW229115  11.277  11.361   8.826 -0.1599 -0.1231  0.8442
39601SOL     OW29116   4.526   0.405   7.258 -0.0031 -0.0377 -0.4546
39601SOL    HW129117   4.474   0.459   7.316 -1.4076 -1.2676 -0.5137
39601SOL    HW229118   4.574   0.346   7.316 -0.3931 -0.3839 -0.4790
39602SOL     OW29119   1.795   4.252  10.861  0.0273  0.0680  0.5608
39602SOL    HW129120   1.861   4.254  10.792 -0.4953  1.0811  0.0586
39602SOL    HW229121   1.758   4.164  10.857 -1.7469  0.8029 -2.1894
39603SOL     OW29122   8.457  12.603   0.580  0.0003  0.1687 -0.0100
39603SOL    HW129123   8.440  12.678   0.638 -0.2523 -0.0847  0.2471
39603SOL    HW229124   8.553  12.597   0.577  0.0188  0.0047  0.6233
39604SOL     OW29125   0.923   4.843   5.776  0.1236 -0.4357  0.1740
39604SOL    HW129126   0.989   4.911   5.788  0.2336 -0.4863 -0.1468
39604SOL    HW229127   0.972   4.761   5.778 -0.0185 -0.5160  0.6425
39605SOL     OW29128   6.622   2.886   6.995  0.6163  0.1408  0.7771
39605SOL    HW129129   6.580   2.926   7.071  1.8378 -1.6262  2.4809
39605SOL    HW229130   6.564   2.814   6.970 -0.3840  1.4253 -0.7862
39606SOL     OW29131   3.681   9.189   3.806  0.1403  0.2852  0.1771
39606SOL    HW129132   3.728   9.142   3.737  0.8257  0.1985  0.7004
39606SOL    HW229133   3.715   9.153   3.888 -0.7100  0.3468  0.5686
39607SOL     OW29134   6.443   6.352   5.708 -0.0204  0.2102 -0.2896
39607SOL    HW129135   6.469   6.304   5.629 -3.2253 -3.4216  0.5413
39607SOL    HW229136   6.498   6.316   5.777 -0.5129 -0.2487 -0.1267
39608SOL     OW29137   7.039   0.504   8.246  0.3944  0.4007  0.0403
39608SOL    HW129138   7.074   0.557   8.175  1.9735 -0.3934  0.1741
39608SOL    HW229139   7.056   0.414   8.218 -0.9675 -0.0091  0.4478
39609SOL     OW29140   2.503   1.887   5.072  0.6248  0.0710  0.2450
39609SOL    HW129141   2.563   1.898   4.998 -0.3846  3.3121 -0.2340
39609SOL    HW229142   2.433   1.831   5.038  0.7178  0.6291 -0.8976
39610SOL     OW29143   1.713   4.867  11.523 -0.0790  0.2853 -0.3739
39610SOL    HW129144   1.796   4.875  11.570  0.2735  0.5135 -1.0316
39610SOL    HW229145   1.658   4.815  11.581  0.8965 -0.8360 -0.4277
39611SOL     OW29146  11.532   4.666  10.619  0.5382  0.1654  0.0034
39611SOL    HW129147  11.493   4.751  10.601  1.3832  0.8189  1.1647
39611SOL    HW229148  11.484   4.633  10.695  0.2881 -0.3640 -0.3724
39612SOL     OW29149  10.978   4.340   6.829 -0.0750  0.1452 -0.3872
39612SOL    HW129150  11.026   4.418   6.801 -0.9395  0.3749 -1.2905
39612SOL    HW229151  10.999   4.274   6.763 -1.1655  0.3265 -0.9492
39613SOL     OW29152   3.298   9.994   9.386 -0.2249 -0.0207 -0.3700
39613SOL    HW129153   3.356  10.028   9.318  0.6094  2.4641  1.3918
39613SOL    HW229154   3.337   9.911   9.412  0.6919  0.0570 -1.4258
39614SOL     OW29155  11.742  11.323  10.298 -0.0890  0.2766 -0.0156
39614SOL    HW129156  11.660  11.368  10.318 -0.1780  0.3674 -0.5697
39614SOL    HW229157  11.757  11.267  10.374  0.8759  2.4272  1.4615
39615SOL     OW29158  10.398   5.635   5.765  0.2999 -0.5270 -0.0406
39615SOL    HW129159  10.401   5.724   5.798  0.6499  0.8724 -3.4607
39615SOL    HW229160  10.488   5.615   5.739 -0.0273 -1.3176 -0.6227
39616SOL     OW29161   9.450   8.458   8.115  0.4042  0.0973  0.3565
39616SOL    HW129162   9.358   8.432   8.124  0.2682  0.8153  1.1732
39616SOL    HW229163   9.491   8.429   8.197  0.8274  0.1065  0.1510
39617SOL     OW29164   0.983   6.019   3.905  0.2650  0.1441 -0.3280
39617SOL    HW129165   0.921   5.947   3.890 -0.2991  0.9367 -2.0470
39617SOL    HW229166   1.069   5.977   3.900 -0.0682 -0.4973 -0.8734
39618SOL     OW29167   1.600   1.738   9.412 -0.2484  0.1053  0.1407
39618SOL    HW129168   1.582   1.702   9.498  1.2392  2.8101  1.7270
39618SOL    HW229169   1.691   1.768   9.416  0.4777 -1.2364 -3.0230
39619SOL     OW29170   6.144   7.510   5.659 -0.5476 -0.3332 -0.1224
39619SOL    HW129171   6.225   7.561   5.652 -0.9770  0.1688 -2.2396
39619SOL    HW229172   6.112   7.528   5.747  1.3279 -0.0858  0.5577
39620SOL     OW29173  10.169   1.025   7.007  0.0384 -0.1855  0.3183
39620SOL    HW129174  10.223   0.975   6.947  0.1112 -2.2992  2.0203
39620SOL    HW229175  10.209   1.011   7.093 -1.2399  1.0025  1.1533
39621SOL     OW29176   7.850  12.510  10.098  0.4930  0.3366 -0.2274
39621SOL    HW129177   7.898  12.585  10.133  0.7715  0.5502 -1.0405
39621SOL    HW229178   7.815  12.541  10.015 -1.8622  0.4742  0.7431
39622SOL     OW29179   7.112   8.360   1.447 -0.4778 -0.1831 -0.3526
39622SOL    HW129180   7.122   8.298   1.519 -0.9127  1.3448  1.0708
39622SOL    HW229181   7.025   8.398   1.460 -0.1721  0.8148 -1.1154
39623SOL     OW29182   8.578   1.200   8.194  0.1296 -0.4305 -0.3143
39623SOL    HW129183   8.503   1.146   8.166 -0.3866 -0.1573  0.5184
39623SOL    HW229184   8.539   1.284   8.218  0.7966 -0.0593 -0.5342
39624SOL     OW29185   3.646   0.277  12.610  0.1886 -0.0819 -0.2276
39624SOL    HW129186   3.658   0.287  12.705  2.2236  2.1274 -0.6161
39624SOL    HW229187   3.716   0.219  12.582  0.9349  0.9753 -0.6157
39625SOL     OW29188   9.134   0.540   2.137  0.2732 -0.1492  0.2918
39625SOL    HW129189   9.194   0.492   2.194 -1.6709 -2.4721  0.5483
39625SOL    HW229190   9.171   0.530   2.049  2.6450  2.4440  0.8531
39626SOL     OW29191   4.488  10.969   0.409  0.4566 -0.1154  0.1301
39626SOL    HW129192   4.413  10.972   0.350  1.5646 -0.7511 -1.3851
39626SOL    HW229193   4.508  11.061   0.427  0.4137  0.1224 -0.9457
39627SOL     OW29194   2.782   4.097   0.658 -0.3424  0.1600 -0.4098
39627SOL    HW129195   2.747   4.175   0.615 -1.1202 -0.3491 -0.7394
39627SOL    HW229196   2.771   4.027   0.593 -2.6014 -0.8695  0.9518
39628SOL     OW29197   0.515   0.984   1.477 -0.6368 -0.1288 -0.5159
39628SOL    HW129198   0.509   0.957   1.569  0.1270  1.0658 -0.0986
39628SOL    HW229199   0.594   0.940   1.445 -1.0898 -0.8214 -0.7216
39629SOL     OW29200  12.508   3.772   9.996  0.5484 -0.3545 -0.3965
39629SOL    HW129201  12.436   3.778   9.933 -0.0274  0.2080  0.2991
39629SOL    HW229202  12.498   3.686  10.036  0.8821 -0.6924 -1.0115
39630SOL     OW29203   3.615   4.854   0.562 -0.8014  0.2142  0.3561
39630SOL    HW129204   3.651   4.773   0.598  2.1980  0.1796 -2.3003
39630SOL    HW229205   3.551   4.825   0.497 -0.6179 -0.0004  0.2699
39631SOL     OW29206  12.782   1.377   6.269  0.5637 -1.0648  0.3786
39631SOL    HW129207  12.837   1.369   6.347 -1.1635 -1.1213  1.6562
39631SOL    HW229208  12.694   1.351   6.299 -0.3367 -0.1748 -1.3440
39632SOL     OW29209  10.883  12.854   7.788  0.3826  0.4310  0.0983
39632SOL    HW129210  10.969  12.895   7.781  0.0586  1.2922  0.9685
39632SOL    HW229211  10.854  12.845   7.697  0.8355  1.3439 -0.1498
39633SOL     OW29212   5.423   9.326   3.282  0.1791 -0.7155 -0.9725
39633SOL    HW129213   5.354   9.340   3.217  1.9376 -1.3600 -3.0535
39633SOL    HW229214   5.482   9.400   3.272  0.5790 -0.9163 -0.1934
39634SOL     OW29215   0.838   3.008   4.218 -0.1535 -0.2531 -0.3683
39634SOL    HW129216   0.807   2.983   4.305  2.0042 -2.8201 -0.1800
39634SOL    HW229217   0.832   3.103   4.216 -0.8045 -0.1638  2.3564
39635SOL     OW29218   5.349   3.286   8.062  0.1640 -0.2197 -0.0594
39635SOL    HW129219   5.384   3.237   7.988 -0.3541  0.2033 -0.5949
39635SOL    HW229220   5.320   3.220   8.124  3.9187 -0.7047  1.4803
39636SOL     OW29221   8.265   5.434   8.431 -0.2588  0.8159 -0.0632
39636SOL    HW129222   8.357   5.409   8.441  0.2182  2.1928 -0.8232
39636SOL    HW229223   8.243   5.410   8.340 -0.2372  1.7591 -0.3220
39637SOL     OW29224   7.044   7.621   9.136  0.2646  0.8934 -0.1864
39637SOL    HW129225   7.130   7.645   9.103 -0.6537  0.3679 -3.2974
39637SOL    HW229226   7.006   7.567   9.067 -2.3109  0.5411  1.3695
39638SOL     OW29227   5.202   3.308  11.357  0.0443  0.4401  0.1074
39638SOL    HW129228   5.178   3.322  11.449  2.0917  0.7015  0.6421
39638SOL    HW229229   5.170   3.386  11.312 -1.6486 -0.0307  0.4190
39639SOL     OW29230   3.777  10.296   8.928 -0.3113  0.6300  0.4672
39639SOL    HW129231   3.789  10.309   9.022 -0.3303  0.7575  0.4520
39639SOL    HW229232   3.682  10.300   8.915 -0.3806 -0.3708  0.5829
39640SOL     OW29233   0.094   7.273   4.939  0.0708 -0.3209  0.4426
39640SOL    HW129234   0.128   7.197   4.892 -1.6693 -0.6311 -0.4088
39640SOL    HW229235   0.006   7.247   4.967 -0.4756  1.2909  0.3331
39641SOL     OW29236  11.794   3.952   1.648  0.3013  0.0734  0.7251
39641SOL    HW129237  11.748   3.968   1.731  2.1939  0.0178  1.8609
39641SOL    HW229238  11.838   3.868   1.661 -0.3340 -0.5417 -0.8374
39642SOL     OW29239  10.657   4.207  10.271  0.0522  0.0679  0.7590
39642SOL    HW129240  10.715   4.275  10.235 -1.5599  0.8665 -0.4708
39642SOL    HW229241  10.638   4.150  10.197  0.2884 -0.9345  1.4586
39643SOL     OW29242  12.223   7.917   8.571  0.0415 -0.5469 -0.3369
39643SOL    HW129243  12.276   7.957   8.502 -0.6712  0.9493 -0.0629
39643SOL    HW229244  12.233   7.823   8.557  0.7123 -0.2882 -1.8593
39644SOL     OW29245   2.333  11.661   4.459  0.3131 -0.1645 -0.0625
39644SOL    HW129246   2.403  11.726   4.454  0.7185  0.1285  4.6143
39644SOL    HW229247   2.256  11.711   4.488 -0.6495 -1.1445 -0.8392
39645SOL     OW29248   8.569   3.307   8.405 -0.3314  0.0112  0.3337
39645SOL    HW129249   8.486   3.331   8.363 -0.0410 -1.6575 -1.3006
39645SOL    HW229250   8.619   3.262   8.336  0.8477 -1.3995  2.0374
39646SOL     OW29251   0.482   7.881   4.977 -0.1669  0.3127 -0.2726
39646SOL    HW129252   0.411   7.818   4.969 -0.3123  0.6314 -1.8464
39646SOL    HW229253   0.486   7.924   4.891  1.0870  1.1969  0.1925
39647SOL     OW29254  11.368  10.059   6.885 -0.0665  0.5271  0.4020
39647SOL    HW129255  11.310  10.134   6.897 -1.7115 -0.5223 -0.5143
39647SOL    HW229256  11.416  10.078   6.805  0.1643  0.9868  0.6495
39648SOL     OW29257   8.053  11.570  12.723  0.6458  0.0177  0.5899
39648SOL    HW129258   8.043  11.561  12.818  0.0020  2.3129  0.8073
39648SOL    HW229259   7.964  11.586  12.691  0.9366 -0.1484 -0.3287
39649SOL     OW29260   7.847   9.677   4.879 -0.0900  0.5221  0.8916
39649SOL    HW129261   7.899   9.718   4.810  0.8255 -2.8194 -0.6046
39649SOL    HW229262   7.842   9.743   4.948  2.2669  2.6200 -0.7709
39650SOL     OW29263   1.548  11.210  12.437 -0.1242  0.3261  0.5556
39650SOL    HW129264   1.512  11.258  12.512 -0.1620  2.0731 -0.5272
39650SOL    HW229265   1.534  11.269  12.362  0.5283 -1.0762 -0.7164
39651SOL     OW29266   1.793   5.974  12.780 -0.1428 -0.0898  0.3562
39651SOL    HW129267   1.872   6.020  12.811 -0.1606 -0.4142  0.9068
39651SOL    HW229268   1.757   6.031  12.713  0.6450 -0.0077 -0.0098
39652SOL     OW29269   5.162  10.002   7.520  0.2751  0.0518  0.1568
39652SOL    HW129270   5.104  10.019   7.446 -2.2526  1.7934  2.3534
39652SOL    HW229271   5.123   9.928   7.566  0.5282  0.4038  0.9610
39653SOL     OW29272   7.078   3.495   2.290  0.4318  0.2559  0.0547
39653SOL    HW129273   7.118   3.578   2.264 -1.9449  1.7716  0.8356
39653SOL    HW229274   6.984   3.509   2.278 -0.1826 -1.7189  1.8462
39654SOL     OW29275   2.500   2.316   8.945 -0.4828 -0.3041  0.0522
39654SOL    HW129276   2.444   2.394   8.949 -0.6447 -0.4035 -0.2141
39654SOL    HW229277   2.511   2.299   8.851 -0.3360 -0.5227  0.1072
39655SOL     OW29278   7.045   5.786   8.650  0.6371  0.2251 -0.2278
39655SOL    HW129279   7.126   5.738   8.636  1.0063  1.0835 -1.0951
39655SOL    HW229280   7.061   5.839   8.728 -0.0373 -1.5566  1.2177
39656SOL     OW29281   4.256   3.974  10.017  0.0937  0.2548 -0.1622
39656SOL    HW129282   4.245   4.058  10.063  0.2568 -0.5421  1.3854
39656SOL    HW229283   4.183   3.920  10.048  0.1213 -0.2546 -0.9741
39657SOL     OW29284   9.505  10.461   2.033  0.2200 -0.2265 -0.4644
39657SOL    HW129285   9.548  10.424   2.111 -1.5486 -0.1901  0.5914
39657SOL    HW229286   9.426  10.503   2.067 -0.6522 -0.2736 -2.3040
39658SOL     OW29287   0.277  11.911   6.607 -0.6128  0.4218  0.4213
39658SOL    HW129288   0.340  11.843   6.633 -0.1888  1.0498  1.0438
39658SOL    HW229289   0.246  11.949   6.689 -0.5548  1.2569  0.0640
39659SOL     OW29290   5.609  10.157  12.034  0.0656  0.1827 -0.5102
39659SOL    HW129291   5.637  10.242  12.002  1.1238  0.1814  0.3447
39659SOL    HW229292   5.537  10.176  12.094  1.7378  0.7305  1.4196
39660SOL     OW29293   9.959   0.694   0.982 -0.1924  0.1835 -0.4748
39660SOL    HW129294   9.962   0.651   1.067 -0.4047 -1.4834 -1.2827
39660SOL    HW229295   9.956   0.788   1.003  2.6926 -0.0160  1.2947
39661SOL     OW29296   1.166   8.367   4.575 -0.0489  0.3340 -0.1882
39661SOL    HW129297   1.123   8.407   4.650  0.3679 -0.4303  0.4805
39661SOL    HW229298   1.107   8.296   4.549  0.5273 -0.3756  0.3950
39662SOL     OW29299   6.749   9.216  12.567  0.1884 -0.0941  0.5618
39662SOL    HW129300   6.771   9.236  12.476  1.8633 -1.3740  0.6358
39662SOL    HW229301   6.684   9.146  12.561 -0.9190  0.9206  0.3673
39663SOL     OW29302   8.395  10.518   1.006 -0.1192  0.3721  0.7779
39663SOL    HW129303   8.446  10.588   0.966 -0.4425  0.6115  0.7871
39663SOL    HW229304   8.348  10.560   1.078 -0.5459  0.2045  0.5963
39664SOL     OW29305   7.362   5.313   3.626  0.1730  0.2342  0.2894
39664SOL    HW129306   7.386   5.329   3.535 -0.2552  0.2265  0.1758
39664SOL    HW229307   7.425   5.246   3.655  0.2084  0.1195 -0.0451
39665SOL     OW29308   1.873   1.294   4.273 -0.2174 -0.2691 -0.1855
39665SOL    HW129309   1.880   1.314   4.367 -2.4554 -1.1978  0.2701
39665SOL    HW229310   1.882   1.378   4.229 -0.4806  0.3960  0.9892
39666SOL     OW29311   9.714   0.285   7.487 -0.2616 -0.0569 -0.2479
39666SOL    HW129312   9.755   0.362   7.447 -0.8556  1.3363  1.6516
39666SOL    HW229313   9.635   0.319   7.529 -1.1298 -1.9291 -0.2716
39667SOL     OW29314   5.089   8.949  11.276  0.4149 -0.3017 -0.2239
39667SOL    HW129315   5.080   9.031  11.229 -0.8354  1.1198  2.2838
39667SOL    HW229316   4.999   8.919  11.290  0.8171 -1.5993 -0.2501
39668SOL     OW29317   9.232   2.102   4.101  0.4148 -0.3368 -0.5823
39668SOL    HW129318   9.226   2.046   4.179 -2.4424  1.1860  0.4392
39668SOL    HW229319   9.298   2.167   4.124 -0.5120  0.1927  0.7039
39669SOL     OW29320   1.426  10.874   3.120  0.0079  0.3158 -0.2688
39669SOL    HW129321   1.485  10.946   3.099 -0.8982  1.2550  0.3388
39669SOL    HW229322   1.339  10.913   3.123 -0.3521 -0.4814  1.5151
39670SOL     OW29323   9.630   3.690   5.789 -0.1539  0.8805  0.5620
39670SOL    HW129324   9.622   3.613   5.732  3.0488  0.0471  1.0473
39670SOL    HW229325   9.555   3.683   5.849 -0.3140 -1.5032  0.2006
39671SOL     OW29326   4.415   6.865   1.624 -0.3648  0.1796  0.4980
39671SOL    HW129327   4.349   6.920   1.664  0.6547  0.9336  1.1984
39671SOL    HW229328   4.392   6.864   1.531 -0.1310  2.2315  0.3746
39672SOL     OW29329   3.701   4.955   7.052  0.0681  0.4449 -0.5596
39672SOL    HW129330   3.780   4.990   7.092  0.1615  1.8456 -1.8887
39672SOL    HW229331   3.664   4.898   7.119  1.9899  0.0436  0.2322
39673SOL     OW29332  12.308  11.427   9.746  0.0652  0.4925 -0.1248
39673SOL    HW129333  12.240  11.372   9.785  0.9038  0.1816  0.9507
39673SOL    HW229334  12.359  11.368   9.692  0.0477  0.5262 -0.1782
39674SOL     OW29335   3.523   1.925   5.899  0.5829  0.1119 -0.0943
39674SOL    HW129336   3.460   1.982   5.855  1.0322 -0.2953 -1.2816
39674SOL    HW229337   3.609   1.963   5.879  0.8242 -0.3959 -0.0405
39675SOL     OW29338   4.856   5.831   1.210 -0.1261 -0.3172 -0.5151
39675SOL    HW129339   4.849   5.750   1.160 -0.5864 -0.1615 -0.7002
39675SOL    HW229340   4.795   5.820   1.283  0.5063 -0.5257  0.0010
39676SOL     OW29341   3.718   5.162   5.888  0.0217  0.0189 -0.4150
39676SOL    HW129342   3.808   5.190   5.873 -0.4122  1.1094 -1.0865
39676SOL    HW229343   3.696   5.109   5.812  0.4641 -1.2642  0.3148
39677SOL     OW29344   0.525  10.756   5.065  0.4701  0.4800  0.2210
39677SOL    HW129345   0.575  10.683   5.099 -0.8742  1.2224  4.3483
39677SOL    HW229346   0.559  10.833   5.111 -1.7757  1.5890  0.1948
39678SOL     OW29347   8.410   8.384  12.161  0.3036 -0.1342 -0.7281
39678SOL    HW129348   8.461   8.361  12.239 -0.7162 -2.6413 -0.7084
39678SOL    HW229349   8.471   8.377  12.088  0.7833  0.2665 -0.3706
39679SOL     OW29350   6.618   9.712  12.800  0.7379  0.2418  0.0139
39679SOL    HW129351   6.679   9.672  12.862  0.6570  0.3652  0.1752
39679SOL    HW229352   6.617   9.805  12.826 -0.0634  0.1134  0.4690
39680SOL     OW29353   2.451   8.773   7.249 -0.4951  0.3094  0.9361
39680SOL    HW129354   2.541   8.806   7.253 -0.7438  1.0294  0.8333
39680SOL    HW229355   2.396   8.850   7.266 -1.2421  0.8231 -2.9279
39681SOL     OW29356   3.839   5.428   2.211 -0.1027 -0.0842 -0.1769
39681SOL    HW129357   3.834   5.440   2.116 -0.1512  1.4725  0.0022
39681SOL    HW229358   3.813   5.512   2.248 -2.2671 -1.2962  1.2760
39682SOL     OW29359  12.125  10.762  12.916 -0.1057 -0.2086 -0.0476
39682SOL    HW129360  12.200  10.770  12.856 -0.6445  1.6072 -0.5299
39682SOL    HW229361  12.055  10.728  12.860 -0.2954  0.4046 -0.1888
39683SOL     OW29362   1.491   1.511   4.515 -0.3281  0.1196  0.4733
39683SOL    HW129363   1.499   1.554   4.600  0.3254 -0.6322  0.8057
39683SOL    HW229364   1.429   1.439   4.531  0.9716 -0.9860  0.7314
39684SOL     OW29365  10.797   7.297   4.956 -0.0937  0.1492 -0.2003
39684SOL    HW129366  10.888   7.325   4.966 -0.0594  0.4270 -1.2096
39684SOL    HW229367  10.801   7.204   4.934 -0.0954 -0.0085  0.4310
39685SOL     OW29368   8.263   9.580   5.934 -0.3545 -0.3620 -0.2154
39685SOL    HW129369   8.181   9.595   5.981 -1.8110 -0.2269 -2.6221
39685SOL    HW229370   8.245   9.609   5.845  2.2866 -0.5026 -0.8862
39686SOL     OW29371   1.098   0.832  11.288  0.2085  0.1758  0.1093
39686SOL    HW129372   1.053   0.749  11.272  1.3502 -0.6273  0.9412
39686SOL    HW229373   1.102   0.839  11.383  0.9222  0.7292  0.0445
39687SOL     OW29374   6.823   5.123   6.600  0.1733 -0.2142  0.5052
39687SOL    HW129375   6.808   5.113   6.694  0.0729 -1.4209  0.3863
39687SOL    HW229376   6.870   5.206   6.591 -1.3171  0.7801  1.4447
39688SOL     OW29377   8.475   3.073   3.019 -0.2240  0.0124  0.0983
39688SOL    HW129378   8.528   3.143   2.980  1.0688 -1.2205 -0.4241
39688SOL    HW229379   8.537   3.022   3.071 -0.7452 -1.7909 -0.9536
39689SOL     OW29380  11.015   7.425  11.180  0.1751 -0.3891 -0.8381
39689SOL    HW129381  11.105   7.436  11.148  0.3169 -0.1253 -0.3570
39689SOL    HW229382  11.018   7.346  11.234 -0.1213 -0.9807 -1.6673
39690SOL     OW29383  12.093   8.916   7.641 -0.0526  0.1849 -0.3094
39690SOL    HW129384  12.060   8.849   7.701  1.2859  0.1432  0.4114
39690SOL    HW229385  12.121   8.987   7.698  1.7694 -0.0827 -0.8209
39691SOL     OW29386   9.882   6.198   2.354  0.1899 -0.6329 -0.2760
39691SOL    HW129387   9.869   6.176   2.447 -0.7766 -0.2834 -0.3162
39691SOL    HW229388   9.921   6.285   2.355 -0.2370 -0.4395 -0.1991
39692SOL     OW29389  11.350  11.138  10.148 -0.7791 -0.0108  0.0898
39692SOL    HW129390  11.397  11.221  10.154 -0.7683 -0.0534  0.6734
39692SOL    HW229391  11.408  11.075  10.190 -1.5984  0.0455  1.3651
39693SOL     OW29392   5.041   3.370   0.777  0.0864 -0.1243  0.7297
39693SOL    HW129393   5.078   3.389   0.690 -2.1878  0.2316 -0.2143
39693SOL    HW229394   5.037   3.455   0.820  0.6051 -0.2096  0.9607
39694SOL     OW29395   5.737   8.074   4.387  0.5537  0.8398 -0.0366
39694SOL    HW129396   5.818   8.099   4.431  0.4945  2.2831 -0.7095
39694SOL    HW229397   5.764   8.012   4.320  0.9468  0.4394  0.4873
39695SOL     OW29398   9.531  11.645   7.632  0.5693 -0.0799 -0.0903
39695SOL    HW129399   9.560  11.672   7.719 -0.8930 -1.2296  0.8031
39695SOL    HW229400   9.458  11.703   7.611  0.1757 -0.5491 -0.0367
39696SOL     OW29401   5.142   1.695   2.894 -0.4759 -0.0401  0.2037
39696SOL    HW129402   5.052   1.672   2.917 -1.1843 -0.1455 -2.4499
39696SOL    HW229403   5.134   1.764   2.829  1.3559 -0.3882 -0.4501
39697SOL     OW29404   5.502  11.335   6.508 -0.0061 -0.4892  0.1564
39697SOL    HW129405   5.503  11.410   6.567 -2.2004 -0.7491  0.6218
39697SOL    HW229406   5.518  11.373   6.421 -1.2239  0.5977  0.3628
39698SOL     OW29407   1.014   8.887   3.846 -0.3514  0.0422  0.9953
39698SOL    HW129408   1.074   8.932   3.787 -1.0864  0.7345  0.7658
39698SOL    HW229409   0.978   8.816   3.793 -0.6758  0.3924  0.7400
39699SOL     OW29410   1.778   0.162   2.615 -0.5290  0.0641 -0.4815
39699SOL    HW129411   1.770   0.256   2.601 -1.8600 -0.3611 -3.2789
39699SOL    HW229412   1.724   0.144   2.693 -0.0467  1.5958  0.2390
39700SOL     OW29413  10.218   2.092   1.627 -0.1567  0.2141  0.7753
39700SOL    HW129414  10.213   2.054   1.540 -0.0300  2.0352 -0.0712
39700SOL    HW229415  10.309   2.119   1.637 -0.4342  1.1057  0.9719
39701SOL     OW29416  10.530   4.746   6.207 -0.2253  0.5338  0.2290
39701SOL    HW129417  10.501   4.834   6.184 -0.8654 -0.0457 -1.3682
39701SOL    HW229418  10.494   4.731   6.294 -2.6677  0.7871 -0.6543
39702SOL     OW29419   7.684   6.855   3.570  0.0797  0.6329  0.0389
39702SOL    HW129420   7.701   6.948   3.586 -0.8702  0.7331  0.5155
39702SOL    HW229421   7.604   6.836   3.619  0.0691 -0.3560 -0.3365
39703SOL     OW29422  12.500   0.777   1.728 -0.0108 -0.2004 -0.5266
39703SOL    HW129423  12.454   0.750   1.808  0.8594 -1.7338 -0.5065
39703SOL    HW229424  12.497   0.873   1.731  0.7991 -0.1680  1.8436
39704SOL     OW29425   4.487  11.739   7.473 -0.0471  0.3038  0.3287
39704SOL    HW129426   4.445  11.824   7.457 -1.0831 -0.4514 -1.2727
39704SOL    HW229427   4.460  11.685   7.398  1.7081 -1.0237  0.5879
39705SOL     OW29428   9.304   6.559   5.988  0.3012 -0.0543  0.3088
39705SOL    HW129429   9.254   6.503   6.047  0.7512 -0.8420 -0.0295
39705SOL    HW229430   9.379   6.504   5.962 -1.3457 -0.8535 -3.2501
39706SOL     OW29431   3.006   1.178   0.100 -0.6891  0.0994  0.5589
39706SOL    HW129432   2.940   1.158   0.034 -1.4018  1.0738  0.9485
39706SOL    HW229433   2.988   1.269   0.126  0.0751  0.0020  1.5121
39707SOL     OW29434   2.533   2.683   4.972 -0.4722 -1.1176 -0.4217
39707SOL    HW129435   2.522   2.622   4.899  0.1561 -1.0437 -0.5763
39707SOL    HW229436   2.511   2.631   5.050  3.7462 -2.7648 -0.1197
39708SOL     OW29437   2.940   1.807   7.908 -0.2332 -0.3399 -0.9455
39708SOL    HW129438   2.976   1.796   7.820 -0.3813  2.2669 -1.4005
39708SOL    HW229439   2.852   1.842   7.894  0.3545  1.7708  0.1859
39709SOL     OW29440   0.220   4.402   8.051  0.5211  0.3846  0.0076
39709SOL    HW129441   0.162   4.359   7.988 -0.7351  2.0576 -0.0703
39709SOL    HW229442   0.222   4.494   8.022  1.0391  0.9047  1.5948
39710SOL     OW29443   0.015   1.840  11.883  0.2305 -0.1214 -0.1465
39710SOL    HW129444   0.032   1.911  11.945 -0.0993 -1.5007  1.6170
39710SOL    HW229445   0.083   1.850  11.816  0.9395  1.1286  0.7172
39711SOL     OW29446  12.248   0.135  12.706 -0.6232  0.4664 -0.5625
39711SOL    HW129447  12.333   0.121  12.664 -0.6322  1.1932 -0.8369
39711SOL    HW229448  12.258   0.218  12.753 -1.3538  0.8489 -1.0615
39712SOL     OW29449   9.702   1.879   3.577  0.1413 -0.1333  0.4145
39712SOL    HW129450   9.707   1.850   3.486  1.7192  0.2713  0.3288
39712SOL    HW229451   9.762   1.954   3.581 -0.5375  0.3726  1.6025
39713SOL     OW29452   5.488   0.402   6.148  0.7948  0.4837 -0.1587
39713SOL    HW129453   5.413   0.458   6.126  0.7655  0.6034  0.2328
39713SOL    HW229454   5.448   0.321   6.179  0.8132  0.7552  0.5961
39714SOL     OW29455   3.200   1.310  11.114 -0.2005 -1.1659 -0.4557
39714SOL    HW129456   3.127   1.270  11.162 -0.3422 -1.1787 -0.6805
39714SOL    HW229457   3.249   1.236  11.078  0.1775 -1.1752  0.0601
39715SOL     OW29458   7.118   1.497   2.750 -0.1119 -0.4722  0.0263
39715SOL    HW129459   7.136   1.407   2.722  1.6575 -0.0490 -0.3132
39715SOL    HW229460   7.026   1.511   2.726 -0.3260 -2.0575 -0.2369
39716SOL     OW29461  12.822   8.376   3.687 -0.2916  0.1827  0.2410
39716SOL    HW129462  12.890   8.379   3.754 -0.3501  2.8399  0.2789
39716SOL    HW229463  12.862   8.326   3.615  1.3765  0.8987  0.6204
39717SOL     OW29464   6.525   0.151  12.495  0.1007  0.5155 -0.1061
39717SOL    HW129465   6.474   0.071  12.505  1.4799 -0.4794 -0.7575
39717SOL    HW229466   6.469   0.220  12.533 -1.7598 -0.4797 -0.9140
39718SOL     OW29467  12.369   6.432   4.430  0.2498  0.7971  0.6150
39718SOL    HW129468  12.342   6.496   4.364 -0.4392 -0.6520 -0.5672
39718SOL    HW229469  12.458   6.407   4.406 -0.0701  0.1284  0.1055
39719SOL     OW29470   6.167   3.460   6.527 -0.5484  0.1441  0.3302
39719SOL    HW129471   6.131   3.402   6.460  0.3675 -0.3149  0.2283
39719SOL    HW229472   6.106   3.452   6.601 -1.4468  0.4871 -0.3511
39720SOL     OW29473   2.458   6.146   0.548 -0.7670  0.4557  0.4623
39720SOL    HW129474   2.530   6.092   0.580 -1.9429 -1.5421 -0.0745
39720SOL    HW229475   2.450   6.216   0.613  0.7429 -0.0766  1.2699
39721SOL     OW29476  12.880   1.430   2.279  0.3823 -0.2136 -0.2310
39721SOL    HW129477  12.902   1.353   2.331 -1.4623  0.6063  1.9353
39721SOL    HW229478  12.884   1.400   2.188 -0.7712 -3.0446  0.5527
39722SOL     OW29479   2.761   0.330   0.031 -0.4608 -0.0550 -0.1699
39722SOL    HW129480   2.803   0.377   0.104 -2.4644 -0.2095  1.1771
39722SOL    HW229481   2.820   0.257   0.012  2.0161  2.1169 -1.3686
39723SOL     OW29482   3.326   3.748   0.168 -0.1727 -0.4763  0.2414
39723SOL    HW129483   3.384   3.703   0.230  1.3362 -0.3511 -0.9998
39723SOL    HW229484   3.295   3.678   0.110  0.9707 -0.1945 -0.7630
39724SOL     OW29485  10.175   3.322   1.788 -0.3567 -0.2074  0.6497
39724SOL    HW129486  10.233   3.365   1.725 -1.6196 -1.5687 -1.5576
39724SOL    HW229487  10.229   3.255   1.829  0.3777  0.4505  0.7807
39725SOL     OW29488   2.718  12.864  10.791  0.1437  0.8747 -0.3222
39725SOL    HW129489   2.766  12.797  10.742  0.4982  0.2078  0.9087
39725SOL    HW229490   2.653  12.816  10.842  1.5244  1.2370  1.8977
39726SOL     OW29491   3.922  12.550   2.178 -0.4527 -0.2203  0.1574
39726SOL    HW129492   3.918  12.525   2.270  1.1167 -0.6225  0.1434
39726SOL    HW229493   3.988  12.619   2.176 -0.7451  0.0431 -0.6249
39727SOL     OW29494   9.793   9.783   5.569 -0.2353  0.5271  0.8578
39727SOL    HW129495   9.867   9.843   5.557  0.9749 -0.8437  1.2311
39727SOL    HW229496   9.729   9.810   5.503  1.0619  1.0268 -0.2343
39728SOL     OW29497   9.502   9.326   3.458 -0.1123 -0.1443  0.5708
39728SOL    HW129498   9.476   9.299   3.370  1.0544 -0.3103  0.2564
39728SOL    HW229499   9.547   9.250   3.494  0.1789  0.2119  0.9735
39729SOL     OW29500  11.249  12.502  10.646  0.0843 -0.2511 -0.6563
39729SOL    HW129501  11.331  12.546  10.627  0.1057 -0.8524 -2.0509
39729SOL    HW229502  11.197  12.512  10.566 -1.5485  0.8333  0.4595
39730SOL     OW29503  10.564  10.304   3.465  0.4755 -0.8712 -0.4807
39730SOL    HW129504  10.533  10.250   3.537  1.1101 -0.2610  0.2765
39730SOL    HW229505  10.485  10.341   3.426  0.1822  0.8666  1.5677
39731SOL     OW29506   5.953  10.322   9.338 -0.0153 -0.0742  0.3488
39731SOL    HW129507   5.965  10.259   9.266  1.6451 -1.3607  1.6938
39731SOL    HW229508   5.909  10.272   9.406 -1.1837  1.0253  0.4462
39732SOL     OW29509  11.249   6.680   0.968  0.4560 -0.3770  0.2109
39732SOL    HW129510  11.203   6.618   1.025  0.0916  1.2799  1.8239
39732SOL    HW229511  11.336   6.642   0.958 -0.2120 -1.8852 -0.0999
39733SOL     OW29512   9.089   9.095   4.334 -0.2834  0.0701 -0.3262
39733SOL    HW129513   9.105   9.178   4.291  0.1503  1.1129  1.7341
39733SOL    HW229514   9.084   9.031   4.263  4.6891  0.9368 -1.7705
39734SOL     OW29515  11.913  11.428  12.367 -0.0765  0.5950 -0.1650
39734SOL    HW129516  11.850  11.356  12.369 -2.8845  2.8979  1.0680
39734SOL    HW229517  11.955  11.420  12.281 -0.1880 -2.4845 -0.0457
39735SOL     OW29518   8.836  11.272  10.745 -0.2109 -0.4026 -0.1079
39735SOL    HW129519   8.773  11.265  10.673 -2.0257 -0.3019  1.3953
39735SOL    HW229520   8.853  11.181  10.770  0.4574 -0.4400 -0.6797
39736SOL     OW29521  11.419   9.429   0.539  0.2463 -0.4694 -0.3126
39736SOL    HW129522  11.403   9.496   0.605 -0.1528 -0.5064 -0.3678
39736SOL    HW229523  11.420   9.347   0.588  2.1841 -0.3145 -0.0279
39737SOL     OW29524   4.359  10.317   6.754 -0.3844 -0.8597 -0.0223
39737SOL    HW129525   4.285  10.366   6.721 -0.9187 -2.4201 -1.2466
39737SOL    HW229526   4.326  10.273   6.832  0.6230  2.0846  2.2781
39738SOL     OW29527   9.795   8.427  12.684  0.1520  0.5584  0.0685
39738SOL    HW129528   9.881   8.395  12.659 -0.3110 -0.2443 -0.5690
39738SOL    HW229529   9.777   8.498  12.622 -1.0343 -1.4910 -2.1170
39739SOL     OW29530   2.412  10.710   0.797 -0.2693 -0.2314 -0.2548
39739SOL    HW129531   2.507  10.716   0.807  0.0662 -2.6114 -1.1537
39739SOL    HW229532   2.377  10.759   0.870  1.6170  1.6329 -0.4994
39740SOL     OW29533   3.582   3.277   0.538 -0.4519  0.0593 -0.0219
39740SOL    HW129534   3.515   3.209   0.536 -2.0807  1.5931  0.1954
39740SOL    HW229535   3.582   3.313   0.450 -0.9901  1.0331  0.3582
39741SOL     OW29536   6.579   3.780   3.946 -0.6277 -0.6831 -0.2265
39741SOL    HW129537   6.631   3.839   4.001 -2.4946  1.7912 -0.9290
39741SOL    HW229538   6.633   3.766   3.868  0.1087 -0.3924  0.2149
39742SOL     OW29539  12.315   5.832   2.985 -0.1872 -0.5614 -0.0862
39742SOL    HW129540  12.232   5.790   3.008 -0.1909 -2.9632 -3.7173
39742SOL    HW229541  12.378   5.760   2.983  0.7181  0.2196 -2.7000
39743SOL     OW29542   6.384  12.637   6.704  0.2675 -0.4159 -0.1768
39743SOL    HW129543   6.290  12.618   6.709  0.3030 -0.7579 -0.7390
39743SOL    HW229544   6.412  12.642   6.796 -0.3942  0.2071  0.0072
39744SOL     OW29545   6.758   3.082   3.693  0.4119  0.3586 -0.4988
39744SOL    HW129546   6.685   3.135   3.724 -1.2140  0.4856 -4.0860
39744SOL    HW229547   6.720   2.995   3.678  1.8947 -0.5742  0.8325
39745SOL     OW29548   2.578   2.909  10.028 -0.2236 -0.4417  0.1101
39745SOL    HW129549   2.507   2.969  10.004  0.8126  1.9390  2.5898
39745SOL    HW229550   2.550   2.870  10.110  1.1532  0.2664  0.9470
39746SOL     OW29551   1.119   4.114  11.108 -0.2421  0.0387  0.1492
39746SOL    HW129552   1.198   4.066  11.084 -0.2360 -0.2898  0.8117
39746SOL    HW229553   1.147   4.171  11.180 -1.2415 -2.2150  2.4536
39747SOL     OW29554   8.446   6.421   6.931 -0.0359 -0.1722  0.0267
39747SOL    HW129555   8.418   6.459   7.014  0.2549  1.4397 -0.5670
39747SOL    HW229556   8.536   6.453   6.919 -0.2827  0.1396 -1.1727
39748SOL     OW29557   3.024   2.541   9.818  0.0687 -0.3390  0.0483
39748SOL    HW129558   2.941   2.541   9.867 -0.0889 -0.6336 -0.2101
39748SOL    HW229559   2.999   2.570   9.730  0.2644 -0.2849  0.0115
39749SOL     OW29560   6.927   8.242   0.902 -0.2146  0.0534  0.3992
39749SOL    HW129561   6.923   8.239   0.998  2.9266  0.9584  0.6686
39749SOL    HW229562   6.994   8.178   0.879  0.5400  1.2919 -1.0108
39750SOL     OW29563  12.620   8.269   1.711 -0.0103 -0.5674 -0.0713
39750SOL    HW129564  12.633   8.194   1.652  0.6740 -2.7736  2.6283
39750SOL    HW229565  12.709   8.294   1.736 -0.2728  0.7128 -0.3722
39751SOL     OW29566   9.788   6.159   1.757  0.0866 -0.2464  0.4073
39751SOL    HW129567   9.877   6.127   1.744  0.3202  0.3424  0.5439
39751SOL    HW229568   9.794   6.219   1.831  0.0113  1.5214 -0.9710
39752SOL     OW29569   3.274  10.822  11.915  0.7124  0.1880 -0.0675
39752SOL    HW129570   3.251  10.744  11.965  0.7508 -0.4941 -1.0901
39752SOL    HW229571   3.190  10.860  11.890  0.6837  0.9590  1.1384
39753SOL     OW29572   0.698   5.513  12.460  0.2418 -0.1525 -0.3117
39753SOL    HW129573   0.747   5.506  12.378 -0.5240 -0.2602 -0.7714
39753SOL    HW229574   0.692   5.607  12.477  0.4478 -0.1314 -0.3508
39754SOL     OW29575  10.666  12.638   2.453 -0.1905  0.0141 -0.3295
39754SOL    HW129576  10.580  12.678   2.461 -0.2344 -0.2552  0.6370
39754SOL    HW229577  10.725  12.696   2.502 -0.2271 -0.9790  0.9396
39755SOL     OW29578   2.600   2.392   1.277  0.8423 -0.2282  0.4981
39755SOL    HW129579   2.646   2.321   1.232  2.9857  1.4299 -0.1022
39755SOL    HW229580   2.669   2.436   1.327 -0.5309  1.1181  1.2593
39756SOL     OW29581   2.955   7.993   3.153 -0.7188  0.2266 -0.4105
39756SOL    HW129582   3.014   8.004   3.079  2.5190 -1.9908  1.5752
39756SOL    HW229583   3.001   8.032   3.227 -1.4020 -2.0194  1.3512
39757SOL     OW29584   9.055   9.586   5.147  0.5440 -0.2162  0.2500
39757SOL    HW129585   9.077   9.495   5.166 -0.6226 -0.8318 -1.1600
39757SOL    HW229586   8.993   9.611   5.215  1.6482 -0.0988  1.2575
39758SOL     OW29587   1.856  12.270   2.363 -0.0907 -0.8248 -0.0514
39758SOL    HW129588   1.801  12.253   2.440 -0.8067 -1.9097 -0.7838
39758SOL    HW229589   1.879  12.184   2.329 -1.0434 -0.3827 -1.9454
39759SOL     OW29590   2.610  12.236   5.152  0.0390  0.3423  0.6329
39759SOL    HW129591   2.583  12.169   5.089 -0.6143  2.4055 -1.4739
39759SOL    HW229592   2.601  12.195   5.238 -0.0576 -2.2959 -0.5583
39760SOL     OW29593   8.130   8.389   1.534  0.0866  0.1046 -0.0427
39760SOL    HW129594   8.145   8.478   1.565  0.4487  0.6751 -1.7545
39760SOL    HW229595   8.197   8.375   1.467 -1.8402 -0.2932 -2.0160
39761SOL     OW29596   3.570   3.255  11.905  0.3083 -0.3267  0.3769
39761SOL    HW129597   3.644   3.223  11.853 -0.4370  0.7302 -1.4326
39761SOL    HW229598   3.541   3.179  11.955  2.0086 -1.0026  0.4224
39762SOL     OW29599  10.929   2.244  12.184  0.0514 -0.8063 -0.7134
39762SOL    HW129600  10.920   2.334  12.155  0.3280 -1.0354 -1.5182
39762SOL    HW229601  10.840   2.209  12.184 -0.1682 -0.2875  0.4394
39763SOL     OW29602  12.160   0.558   5.098 -0.2885  0.2630  0.1325
39763SOL    HW129603  12.099   0.630   5.116 -1.2829 -0.2930 -0.8497
39763SOL    HW229604  12.237   0.578   5.150  0.0073  2.7743 -1.1040
39764SOL     OW29605   4.047   8.444   9.435 -0.6993  0.1094  0.2648
39764SOL    HW129606   4.031   8.378   9.367 -0.4958  0.0530  0.2703
39764SOL    HW229607   4.085   8.518   9.388 -1.4085  0.4227  0.1816
39765SOL     OW29608   2.464   8.585   8.017  0.1581  0.0633  0.5006
39765SOL    HW129609   2.441   8.507   7.966 -0.2730  0.8248 -0.4995
39765SOL    HW229610   2.535   8.555   8.074  0.6467 -0.8427 -0.5231
39766SOL     OW29611   1.808   9.282   5.792 -0.2729 -0.1630  0.8586
39766SOL    HW129612   1.851   9.200   5.768 -2.2755 -1.2358  0.7751
39766SOL    HW229613   1.848   9.347   5.734  0.4636 -1.3027  0.0403
39767SOL     OW29614   8.438  10.621  10.005  0.5299 -0.2978  0.1715
39767SOL    HW129615   8.497  10.695  10.019 -1.7320  2.1241 -1.7832
39767SOL    HW229616   8.495  10.548   9.984  2.8732  1.3851  0.2959
39768SOL     OW29617   9.098   8.093   1.947 -0.0538 -0.5741 -0.0722
39768SOL    HW129618   9.154   8.034   1.896  0.1329 -1.3849  1.0224
39768SOL    HW229619   9.045   8.034   2.001  1.9962  0.2205  3.0391
39769SOL     OW29620   5.291   2.883   7.291 -0.2935  0.1469 -0.1400
39769SOL    HW129621   5.218   2.930   7.251 -0.4362  0.8218  0.8575
39769SOL    HW229622   5.367   2.907   7.238 -0.7323 -0.2958 -0.9850
39770SOL     OW29623   9.181  12.801   8.920  0.3592 -0.0866 -0.3322
39770SOL    HW129624   9.220  12.731   8.867  0.0631  0.0851 -0.7886
39770SOL    HW229625   9.172  12.763   9.007  3.2054  0.4701  0.2832
39771SOL     OW29626   5.577   5.895   8.841  0.1183 -0.0145  0.6434
39771SOL    HW129627   5.519   5.961   8.804 -0.9760 -0.6669  1.1357
39771SOL    HW229628   5.659   5.904   8.792 -0.3755  0.9728 -0.0231
39772SOL     OW29629   9.423   7.779  12.621 -0.0848  0.3962  0.1646
39772SOL    HW129630   9.370   7.845  12.577 -0.8113 -1.2474 -1.5801
39772SOL    HW229631   9.385   7.771  12.708 -0.3381  1.8395  0.2062
39773SOL     OW29632   5.908   9.134   7.487 -0.5794  0.1921 -0.0612
39773SOL    HW129633   5.897   9.180   7.403 -1.1908 -0.8331 -0.5627
39773SOL    HW229634   5.960   9.057   7.465  2.9856  1.9838  1.2621
39774SOL     OW29635   1.725   3.248   8.861 -0.5780  0.2372 -0.1204
39774SOL    HW129636   1.812   3.237   8.899 -1.4283 -0.4936  1.7474
39774SOL    HW229637   1.703   3.163   8.824 -0.3698  0.5226 -0.9190
39775SOL     OW29638   1.473   0.966  10.403  0.1188 -0.2654  0.8130
39775SOL    HW129639   1.518   0.893  10.360  2.8523  0.9924  1.3513
39775SOL    HW229640   1.505   1.044  10.358  0.2146  0.8303  2.6788
39776SOL     OW29641  10.669   8.219   6.343  0.2131  0.3966 -0.1682
39776SOL    HW129642  10.616   8.287   6.302  0.0582 -0.1012 -0.8041
39776SOL    HW229643  10.701   8.165   6.270 -1.6232 -1.6491  0.4080
39777SOL     OW29644  12.914   1.220   6.491 -0.0352 -0.0732  0.4612
39777SOL    HW129645  12.870   1.138   6.470 -0.1538  0.5237 -2.0314
39777SOL    HW229646  12.994   1.217   6.438 -1.0679  2.2561 -1.4326
39778SOL     OW29647   0.738   3.486   3.080 -0.0395 -0.2926  0.0114
39778SOL    HW129648   0.665   3.520   3.029  0.1231  1.4408  0.8351
39778SOL    HW229649   0.761   3.404   3.038 -0.3119  0.7373 -2.3032
39779SOL     OW29650  12.144  11.143   1.897  0.0617 -0.7610  0.0101
39779SOL    HW129651  12.231  11.114   1.870  0.5237  0.5899 -0.0514
39779SOL    HW229652  12.107  11.183   1.818 -1.0846 -2.3275 -0.2764
39780SOL     OW29653   5.708  10.041   1.367 -0.3944  0.1248  0.5275
39780SOL    HW129654   5.630   9.995   1.335 -0.2392 -0.2369  0.6707
39780SOL    HW229655   5.674  10.125   1.399 -0.5475  0.5057 -0.6090
39781SOL     OW29656   7.889  10.907   2.829 -0.7767  0.0650 -1.1599
39781SOL    HW129657   7.901  10.818   2.864  0.8426  1.2927  1.8087
39781SOL    HW229658   7.956  10.915   2.761  0.1818 -0.4934 -0.3047
39782SOL     OW29659   4.269  12.796   4.842  0.3451  0.1202 -0.3002
39782SOL    HW129660   4.212  12.786   4.918 -0.4032  1.1069 -0.7095
39782SOL    HW229661   4.240  12.728   4.781 -1.5356  1.6074 -1.1675
39783SOL     OW29662   9.778   3.202  11.125 -0.0705  0.0872  0.0269
39783SOL    HW129663   9.811   3.191  11.036  1.3807  0.0934  0.5521
39783SOL    HW229664   9.765   3.296  11.134  0.7827  0.1979  0.1619
39784SOL     OW29665   2.461   6.027  12.886  0.4745  0.0101 -0.5378
39784SOL    HW129666   2.526   5.968  12.925 -1.0899 -1.9853 -0.7651
39784SOL    HW229667   2.513   6.090  12.836  2.2845 -0.4069  0.7135
39785SOL     OW29668  12.525   6.349   8.010 -0.0739  0.0726  0.0105
39785SOL    HW129669  12.457   6.386   7.954 -0.9362 -1.3742  0.0479
39785SOL    HW229670  12.599   6.409   8.002 -1.3603  1.7029 -0.0050
39786SOL     OW29671   8.053   5.094   4.295 -0.4414  0.1648 -0.0092
39786SOL    HW129672   8.035   5.183   4.326 -1.3155  0.1309 -0.4034
39786SOL    HW229673   8.097   5.106   4.211 -1.5513  0.2220 -0.5917
39787SOL     OW29674  10.206   2.225   2.557 -0.0524  0.1445 -0.0591
39787SOL    HW129675  10.171   2.314   2.564 -0.8566  0.0732 -2.3556
39787SOL    HW229676  10.129   2.169   2.547  0.4905 -0.7076  0.3428
39788SOL     OW29677   8.446   6.438   4.723  0.3936 -0.0824  0.4537
39788SOL    HW129678   8.470   6.372   4.789  1.0607  1.4637  1.8561
39788SOL    HW229679   8.509   6.509   4.737 -0.6762  1.1223 -0.5711
39789SOL     OW29680   0.343   6.575   4.481 -0.9037 -0.0589 -0.1089
39789SOL    HW129681   0.328   6.594   4.388  0.8910 -2.0296 -0.8756
39789SOL    HW229682   0.346   6.480   4.486  2.2003 -0.0174  1.3330
39790SOL     OW29683   8.176   5.666   6.494 -0.2756 -0.3337  0.2050
39790SOL    HW129684   8.242   5.641   6.558 -1.0630 -0.3874  1.0194
39790SOL    HW229685   8.095   5.672   6.545 -0.8995 -0.2952 -0.7761
39791SOL     OW29686   1.897   1.710   4.008  0.2651  0.4067  0.1602
39791SOL    HW129687   1.966   1.708   3.942  0.2394 -3.3436  0.0022
39791SOL    HW229688   1.818   1.683   3.960  0.3104 -2.7157  1.5824
39792SOL     OW29689  10.469   2.122   5.440 -0.0336  0.3961  0.3725
39792SOL    HW129690  10.494   2.169   5.520 -1.6862  2.0079 -0.0050
39792SOL    HW229691  10.515   2.168   5.370  1.0513 -0.7331  0.3068
39793SOL     OW29692   4.122   8.982  10.493  0.2792  0.6464  0.2700
39793SOL    HW129693   4.092   8.991  10.403 -0.3559 -0.7109  0.3237
39793SOL    HW229694   4.217   8.981  10.486  0.2899  2.2509 -0.1881
39794SOL     OW29695   2.960  10.754   5.621  0.2153  0.0323 -1.0302
39794SOL    HW129696   3.002  10.668   5.624  1.8261  0.8005 -0.3178
39794SOL    HW229697   3.031  10.815   5.604 -0.7682  1.3324 -0.6481
39795SOL     OW29698   4.600  10.670   5.286  0.1142 -0.3678 -0.6817
39795SOL    HW129699   4.658  10.713   5.222 -1.4479  1.7513 -0.7746
39795SOL    HW229700   4.600  10.578   5.260  3.8055 -0.6352 -0.3474
39796SOL     OW29701   0.714   1.794   5.881 -0.0658 -0.2479  0.0550
39796SOL    HW129702   0.676   1.723   5.829  0.7390 -1.3314  0.9284
39796SOL    HW229703   0.729   1.756   5.967  1.7928  0.5328  0.1051
39797SOL     OW29704  12.166  10.292   6.826  0.8822  0.2271 -0.9140
39797SOL    HW129705  12.248  10.310   6.781  0.7347  0.3209 -1.1439
39797SOL    HW229706  12.145  10.374   6.870  1.1209  0.0805 -0.5198
39798SOL     OW29707   2.994   7.690   2.235  0.1230 -0.0292 -0.3150
39798SOL    HW129708   3.029   7.752   2.171  2.3698 -2.0715 -1.2032
39798SOL    HW229709   3.030   7.719   2.319  1.5999 -0.4040 -0.8021
39799SOL     OW29710   2.017  10.709   5.400  0.4524  0.1861  0.0037
39799SOL    HW129711   1.996  10.615   5.398  0.6781  0.1399 -0.3804
39799SOL    HW229712   2.112  10.712   5.389  0.6810  0.3855  1.7911
39800SOL     OW29713   8.989   2.013  11.892 -0.7017 -0.1317  0.5426
39800SOL    HW129714   8.917   2.058  11.847 -1.2197 -1.1986  0.2729
39800SOL    HW229715   9.069   2.052  11.856 -1.0196 -2.1882 -2.8010
39801SOL     OW29716   6.434  12.267   9.579 -0.1609  0.4955  0.1887
39801SOL    HW129717   6.393  12.324   9.644 -0.4300  1.7939 -1.0620
39801SOL    HW229718   6.512  12.232   9.622 -0.8660  0.5295  1.5265
39802SOL     OW29719   1.137   1.775   0.121 -0.3477  0.3647  0.3978
39802SOL    HW129720   1.070   1.723   0.076  1.5912 -1.5504 -0.4988
39802SOL    HW229721   1.218   1.725   0.107  1.2281  2.4503  1.6085
39803SOL     OW29722   1.979   0.923  11.675 -0.1252  0.4935  0.0047
39803SOL    HW129723   1.949   0.905  11.764  0.7377  0.0505  0.2100
39803SOL    HW229724   1.972   1.018  11.666  1.7265  0.8059  1.2699
39804SOL     OW29725  11.748   0.739   7.253  0.2143 -0.1061 -0.1086
39804SOL    HW129726  11.767   0.804   7.321  1.9815 -0.8693  0.2042
39804SOL    HW229727  11.729   0.659   7.301  0.4859 -0.4130 -0.5056
39805SOL     OW29728   7.593   3.127   2.687 -0.0118  0.0544  0.3413
39805SOL    HW129729   7.551   3.150   2.605 -0.8289 -1.4509  0.3000
39805SOL    HW229730   7.658   3.196   2.701 -0.5006  0.8422 -1.0736
39806SOL     OW29731   9.791   2.362   7.432 -0.0524 -0.2146 -0.4166
39806SOL    HW129732   9.821   2.450   7.452 -0.4223  0.1262 -1.3269
39806SOL    HW229733   9.832   2.307   7.499  0.1875  0.6398  0.1534
39807SOL     OW29734   5.046   6.673   4.152 -0.2503 -0.2770 -0.5515
39807SOL    HW129735   5.068   6.669   4.245  0.3432  3.1684 -0.4192
39807SOL    HW229736   5.101   6.744   4.117 -0.7984 -1.1348 -3.4492
39808SOL     OW29737   2.826   2.960   6.528  0.2765 -0.1013 -0.2457
39808SOL    HW129738   2.743   2.913   6.517  0.7570 -1.0524  0.1785
39808SOL    HW229739   2.866   2.959   6.441 -0.0910  0.2634 -0.4261
39809SOL     OW29740   8.992  12.123   2.143  0.0182 -0.2508 -0.5859
39809SOL    HW129741   8.930  12.051   2.154 -1.1804  1.0787  2.0980
39809SOL    HW229742   9.058  12.109   2.211  0.3920  0.5980 -0.7595
39810SOL     OW29743   1.709   2.504  12.254  0.0089  0.2905 -0.2743
39810SOL    HW129744   1.631   2.490  12.306 -0.0141  0.1295 -0.3495
39810SOL    HW229745   1.766   2.431  12.276  0.3868  0.7330  0.2295
39811SOL     OW29746   0.815  11.958  12.274 -0.7694  0.3579 -0.0929
39811SOL    HW129747   0.827  12.048  12.246  1.7277 -0.5628 -2.5009
39811SOL    HW229748   0.789  11.912  12.194  2.6314 -1.7437 -0.2066
39812SOL     OW29749   3.219   0.039  10.613  0.9190  0.1835 -0.4617
39812SOL    HW129750   3.226   0.103  10.543  2.6752 -0.3454 -0.8203
39812SOL    HW229751   3.302  -0.010  10.610  1.5530  0.8536  2.6377
39813SOL     OW29752   3.088  11.306   1.933 -0.0989 -0.5407 -0.1597
39813SOL    HW129753   2.995  11.291   1.918 -0.4185 -0.4916  1.5628
39813SOL    HW229754   3.096  11.400   1.948 -0.1006 -0.7870  1.5697
39814SOL     OW29755  10.397  12.984   1.684 -0.0422 -0.4049 -0.1182
39814SOL    HW129756  10.312  13.009   1.648  0.1705  0.8848  0.2346
39814SOL    HW229757  10.409  12.893   1.656 -1.2220 -0.3824 -0.7520
39815SOL     OW29758   5.395   4.401   8.942  0.1449  0.3786  0.6021
39815SOL    HW129759   5.347   4.351   8.876  0.7870  2.0623 -1.2660
39815SOL    HW229760   5.475   4.350   8.956  0.4638  0.4759 -0.7177
39816SOL     OW29761   8.044   7.813   4.337  0.6095 -0.8575 -0.8296
39816SOL    HW129762   8.108   7.856   4.394 -1.1350  2.0950 -0.9020
39816SOL    HW229763   7.963   7.811   4.387 -0.6279  0.6259 -2.6001
39817SOL     OW29764  10.462  12.391   7.862 -0.1555 -0.4197 -0.0830
39817SOL    HW129765  10.426  12.459   7.919  0.8419 -0.3823  0.5239
39817SOL    HW229766  10.451  12.426   7.773  2.4041  1.6570  0.2811
39818SOL     OW29767   2.927   4.202   3.580  0.7567  0.1421  0.0917
39818SOL    HW129768   2.854   4.140   3.575  0.0874  0.9587 -0.5110
39818SOL    HW229769   2.915   4.259   3.504  1.9646  0.3618  0.0471
39819SOL     OW29770   9.332   1.905   5.455 -0.5705  0.6225 -0.0823
39819SOL    HW129771   9.301   1.950   5.377 -0.2042 -0.4269 -0.8645
39819SOL    HW229772   9.348   1.974   5.519 -0.3448  1.5542 -1.1256
39820SOL     OW29773   0.955   8.751   3.176 -0.0238 -0.0889  0.0199
39820SOL    HW129774   0.988   8.728   3.090 -1.6537 -0.6579 -0.4838
39820SOL    HW229775   0.860   8.752   3.167 -0.2243  0.5013  1.6489
39821SOL     OW29776   3.607  12.983  11.335 -0.7247 -0.5474 -0.3087
39821SOL    HW129777   3.685  12.967  11.281  1.8956  0.0619  2.9592
39821SOL    HW229778   3.585  13.074  11.319 -1.6011 -1.0528 -2.1762
39822SOL     OW29779   7.994   9.613   2.555  0.1927  0.1670 -0.2929
39822SOL    HW129780   8.025   9.596   2.466 -0.1809  0.7645 -0.5462
39822SOL    HW229781   7.946   9.696   2.549 -0.3370 -0.0716  0.3466
39823SOL     OW29782   9.446   2.862  10.309  0.3502 -0.5637 -0.3816
39823SOL    HW129783   9.367   2.856  10.256 -0.4026  0.4427  0.5837
39823SOL    HW229784   9.518   2.860  10.246 -0.5364  1.5807 -1.5493
39824SOL     OW29785   9.184  12.824  11.882 -0.0400  0.2809 -0.6796
39824SOL    HW129786   9.102  12.776  11.873 -0.3625  0.4973  0.8321
39824SOL    HW229787   9.169  12.907  11.836 -0.6880  0.3379 -0.3701
39825SOL     OW29788   0.272   8.486   9.809 -0.4009  0.3621  0.6137
39825SOL    HW129789   0.209   8.516   9.875 -1.6166 -3.0630  1.2553
39825SOL    HW229790   0.233   8.511   9.726 -0.9193  1.1847  1.0921
39826SOL     OW29791   3.431   6.953   2.942 -0.4475  0.0339  0.2307
39826SOL    HW129792   3.395   6.974   3.028 -0.7837 -1.3502  0.4448
39826SOL    HW229793   3.428   6.858   2.937  0.9591  0.0110 -0.7284
39827SOL     OW29794  11.577   8.016   8.693  0.4056  0.2043 -0.2178
39827SOL    HW129795  11.651   8.077   8.696  1.2171 -0.7845  1.0446
39827SOL    HW229796  11.561   8.002   8.599  0.5960  1.8528 -0.5188
39828SOL     OW29797   2.276   5.599   3.056  0.1034  0.3656  0.2059
39828SOL    HW129798   2.307   5.549   2.981 -1.0699 -1.1359  0.6820
39828SOL    HW229799   2.348   5.594   3.119  0.1240 -0.4828  0.1234
39829SOL     OW29800   8.285   1.056   7.790 -0.3063 -0.4963  0.1447
39829SOL    HW129801   8.245   1.142   7.802 -0.8701 -0.6487 -0.6251
39829SOL    HW229802   8.324   1.059   7.703  0.7648 -0.5973  0.6001
39830SOL     OW29803   1.699  12.289  12.877 -0.4012  0.3394 -0.2948
39830SOL    HW129804   1.613  12.260  12.907 -0.2921  1.3516  1.1183
39830SOL    HW229805   1.756  12.279  12.954  0.2046  1.7547 -0.5223
39831SOL     OW29806   7.911   9.118   2.898 -0.1339  0.1047 -0.0278
39831SOL    HW129807   7.925   9.154   2.811  1.0405  1.4974  0.6939
39831SOL    HW229808   7.830   9.067   2.890  0.2855 -0.3231 -2.0534
39832SOL     OW29809   1.470   4.280   7.019  0.0688  0.2719  0.2610
39832SOL    HW129810   1.449   4.357   7.072 -0.4948 -0.4313  1.1107
39832SOL    HW229811   1.543   4.238   7.066  0.8500  0.6581 -0.5844
39833SOL     OW29812  12.761   1.131  12.841 -0.0537  0.2108 -0.0084
39833SOL    HW129813  12.778   1.084  12.923  1.2156 -0.9913 -0.9235
39833SOL    HW229814  12.694   1.079  12.797  0.2301  0.1159 -0.3289
39834SOL     OW29815   5.189   4.806   6.347  0.4003 -0.0935  0.5430
39834SOL    HW129816   5.131   4.739   6.310  1.5589 -1.4713  1.1627
39834SOL    HW229817   5.200   4.781   6.438 -0.7361  2.0995  1.3516
39835SOL     OW29818   6.815   8.535   4.067 -0.0345  0.3443 -0.7684
39835SOL    HW129819   6.849   8.607   4.014  0.1794  0.4597 -0.4687
39835SOL    HW229820   6.720   8.542   4.058 -0.0109  0.6274 -0.7853
39836SOL     OW29821   1.873   2.290  12.241  0.4135  0.2868 -0.1874
39836SOL    HW129822   1.920   2.242  12.310  2.2470  1.0396 -0.8445
39836SOL    HW229823   1.886   2.238  12.162 -2.9190 -1.3463  0.1959
39837SOL     OW29824  10.528  11.341   5.665 -0.5076 -0.4465 -0.1470
39837SOL    HW129825  10.619  11.361   5.690 -1.0862 -0.2783  2.0612
39837SOL    HW229826  10.490  11.303   5.744 -2.0980 -1.4913 -1.3612
39838SOL     OW29827   9.290   8.586   1.512  0.3143  0.4742 -0.1864
39838SOL    HW129828   9.359   8.645   1.484 -0.1825  0.7560 -0.8409
39838SOL    HW229829   9.292   8.515   1.448  0.7151 -0.0749  0.4251
39839SOL     OW29830   3.863   7.126   3.570 -0.2754 -0.0260 -0.6352
39839SOL    HW129831   3.817   7.071   3.633  1.6537 -0.8537  0.1252
39839SOL    HW229832   3.926   7.067   3.529  1.4295  1.4425 -0.2522
39840SOL     OW29833   1.948   8.620   7.597 -0.6670  0.5795 -0.6409
39840SOL    HW129834   1.931   8.536   7.553  0.3175  1.1461 -2.2016
39840SOL    HW229835   1.885   8.681   7.559 -0.7781  0.7458 -0.1892
39841SOL     OW29836  10.901   1.043  12.039 -0.3405 -0.1262  0.4000
39841SOL    HW129837  10.865   1.113  11.985  2.3800 -0.1811 -1.6765
39841SOL    HW229838  10.904   1.081  12.127 -2.0590  1.0794 -0.0057
39842SOL     OW29839  11.960   9.267   4.855 -0.0610  0.2489  0.0581
39842SOL    HW129840  11.908   9.189   4.874  1.1628 -0.5861  0.1042
39842SOL    HW229841  11.898   9.326   4.811 -1.0931 -0.6166  0.2874
39843SOL     OW29842   5.260   0.277   8.127 -0.1813 -0.3465  0.1156
39843SOL    HW129843   5.171   0.246   8.106  0.1485 -0.7533 -0.7034
39843SOL    HW229844   5.312   0.197   8.134  0.2385 -0.0757  0.0851
39844SOL     OW29845  10.309   5.513   3.994  0.1562  0.2272  0.2239
39844SOL    HW129846  10.378   5.579   3.987 -0.5194  0.8346 -0.8387
39844SOL    HW229847  10.291   5.507   4.088 -0.4032  2.2214  0.2884
39845SOL     OW29848  10.514   8.336   0.303  0.3676 -0.2294  0.0342
39845SOL    HW129849  10.587   8.380   0.346  0.8835  0.1633 -1.1893
39845SOL    HW229850  10.490   8.394   0.231 -1.1796 -0.3475  0.4236
39846SOL     OW29851   2.683   6.051  12.330 -0.5775  0.0762 -0.0047
39846SOL    HW129852   2.590   6.061  12.352 -0.5017  3.1554 -0.5798
39846SOL    HW229853   2.700   6.122  12.267  2.3928  0.3117  0.9050
39847SOL     OW29854  12.660  10.619   6.427 -0.0479  0.1385 -0.2338
39847SOL    HW129855  12.730  10.554   6.430 -1.0527 -1.0252 -0.6573
39847SOL    HW229856  12.636  10.634   6.519 -0.0499 -0.3863 -0.1452
39848SOL     OW29857   4.508   2.340   0.357  0.4315  0.4962  0.4468
39848SOL    HW129858   4.571   2.412   0.362  3.1892 -1.6391 -0.6993
39848SOL    HW229859   4.480   2.339   0.265  1.1414 -0.4137  0.2240
39849SOL     OW29860  11.693   7.743   6.619 -0.0129 -0.4258  0.2431
39849SOL    HW129861  11.688   7.836   6.599  1.4998 -0.9717 -3.4741
39849SOL    HW229862  11.609   7.708   6.590  0.0689 -0.4389  0.0180
39850SOL     OW29863   1.864   7.272   3.798 -0.0282  0.7643  0.1717
39850SOL    HW129864   1.913   7.350   3.771 -0.7291  1.5509  1.0861
39850SOL    HW229865   1.913   7.237   3.872 -0.6961  1.4274  0.9482
39851SOL     OW29866   5.849   9.141   5.739  0.3259 -0.2988 -0.0609
39851SOL    HW129867   5.824   9.089   5.815 -0.9097 -0.0422 -0.2779
39851SOL    HW229868   5.928   9.188   5.767 -1.3027  1.4998  1.8798
39852SOL     OW29869   9.712  12.843   1.675 -0.5919  0.1179  0.2979
39852SOL    HW129870   9.737  12.792   1.598 -0.2501  0.8056 -0.0540
39852SOL    HW229871   9.731  12.785   1.749 -2.4200 -1.1712 -0.1833
39853SOL     OW29872   8.073   4.318   5.686  0.0894  0.6757  0.5175
39853SOL    HW129873   8.123   4.375   5.745  0.3216  0.2160  0.7632
39853SOL    HW229874   8.092   4.229   5.716 -1.1706  0.4985  0.8497
39854SOL     OW29875  12.122   4.309   9.615 -0.3218  0.0116  0.3168
39854SOL    HW129876  12.033   4.314   9.650  0.5327 -0.1144  2.7240
39854SOL    HW229877  12.143   4.399   9.591 -1.6910 -0.2263 -2.0903
39855SOL     OW29878  10.017   1.166   5.558 -0.0755 -0.2942 -0.0658
39855SOL    HW129879  10.061   1.213   5.629  0.7837  0.8461 -1.3023
39855SOL    HW229880  10.031   1.074   5.579 -0.9012 -0.0312  1.8665
39856SOL     OW29881   7.846   4.564   0.379  0.2849 -0.4087  0.0968
39856SOL    HW129882   7.852   4.655   0.350  0.2314 -0.7767 -1.1154
39856SOL    HW229883   7.758   4.556   0.415 -1.0241 -0.8123 -2.9104
39857SOL     OW29884   3.064   1.626   8.834 -0.2003  0.2607 -0.1408
39857SOL    HW129885   3.025   1.679   8.904  0.2499  0.2592  0.1173
39857SOL    HW229886   3.056   1.536   8.866  0.1255  0.2707 -0.0322
39858SOL     OW29887   5.577   2.882   8.842 -0.0767 -0.0518 -0.2094
39858SOL    HW129888   5.582   2.800   8.889 -1.2253 -0.4074 -0.6879
39858SOL    HW229889   5.564   2.949   8.909 -1.1667 -0.4923  0.0232
39859SOL     OW29890   5.593  12.327   8.080  0.3687  0.4767  0.3952
39859SOL    HW129891   5.649  12.293   8.149 -0.3809  2.4343  2.0726
39859SOL    HW229892   5.651  12.336   8.004  1.1403 -1.9544  0.6311
39860SOL     OW29893   0.753   6.590   0.743  1.2228 -0.4650 -0.2364
39860SOL    HW129894   0.684   6.653   0.722  1.2981 -0.4612 -0.4725
39860SOL    HW229895   0.709   6.524   0.796  1.4339  0.4942  1.1939
39861SOL     OW29896   4.706   6.040   1.938 -0.0235  0.3260 -0.8694
39861SOL    HW129897   4.750   5.986   1.872  2.0658 -0.3231  0.9334
39861SOL    HW229898   4.660   6.107   1.887  0.4148 -0.9029 -3.0147
39862SOL     OW29899  12.146   8.449   6.762 -0.1837  0.2008 -1.0155
39862SOL    HW129900  12.206   8.492   6.824  0.3466 -1.3416 -0.4077
39862SOL    HW229901  12.161   8.495   6.680  0.2427  1.2786 -0.3689
39863SOL     OW29902   8.086  10.548   7.287  0.2240 -0.1568 -0.2198
39863SOL    HW129903   8.144  10.525   7.360  0.9112 -1.6811 -1.1853
39863SOL    HW229904   8.015  10.598   7.327  1.1869  0.0516  1.2977
39864SOL     OW29905   4.884  11.907   5.118  0.2054  0.0574 -0.9454
39864SOL    HW129906   4.949  11.917   5.188 -0.6101  0.1347 -0.1801
39864SOL    HW229907   4.843  11.823   5.137 -0.7778  0.5890 -0.6904
39865SOL     OW29908  12.344   9.919   1.954  0.6150  0.1911 -0.0997
39865SOL    HW129909  12.340  10.011   1.977  0.1176  0.1859 -0.1618
39865SOL    HW229910  12.311   9.915   1.864  0.4005 -0.0789 -0.0107
39866SOL     OW29911   9.715   2.594   6.146  0.1539 -0.0336 -0.2668
39866SOL    HW129912   9.662   2.622   6.221 -0.6045 -0.2208 -0.7255
39866SOL    HW229913   9.708   2.499   6.145  0.8338 -0.0934 -0.0960
39867SOL     OW29914   4.151   2.067  12.507  0.2677  0.4639 -0.0846
39867SOL    HW129915   4.101   2.123  12.566  0.7369 -0.1649  0.9241
39867SOL    HW229916   4.086   2.009  12.467  0.0886  0.1992  0.5951
39868SOL     OW29917   0.181   0.474   8.353 -0.1104 -0.4546  0.1923
39868SOL    HW129918   0.091   0.504   8.338 -0.2576 -0.4545  0.9926
39868SOL    HW229919   0.236   0.541   8.311 -0.4377  0.8922  1.7746
39869SOL     OW29920   8.608   5.472   1.270  0.0401  0.0405  0.7569
39869SOL    HW129921   8.574   5.538   1.330  0.4928  0.0378  1.0149
39869SOL    HW229922   8.680   5.431   1.317 -0.3589 -0.7774  0.6784
39870SOL     OW29923   8.830   2.560   8.476  0.4173 -0.5834 -0.1263
39870SOL    HW129924   8.738   2.540   8.493  0.4439 -0.0592  0.6529
39870SOL    HW229925   8.876   2.480   8.501  0.3000 -0.3763  0.7819
39871SOL     OW29926  11.431   6.163   0.236  0.0122 -0.3101  0.1648
39871SOL    HW129927  11.467   6.249   0.213 -0.5375 -0.4986 -1.4971
39871SOL    HW229928  11.406   6.124   0.152  0.9291 -2.4052  0.8077
39872SOL     OW29929   1.748   2.393   6.470 -0.6210  0.1774  0.5564
39872SOL    HW129930   1.786   2.364   6.388  0.3494 -1.5458  1.5593
39872SOL    HW229931   1.660   2.354   6.471 -0.2691 -0.6245  0.7600
39873SOL     OW29932  10.066   6.835   1.105 -0.6955  0.1998 -0.1910
39873SOL    HW129933   9.998   6.774   1.077 -0.4134  0.7922 -2.3402
39873SOL    HW229934  10.033   6.872   1.187 -2.7284  0.0735 -0.9059
39874SOL     OW29935  11.433   2.080   5.480  0.3705 -0.1026 -0.3861
39874SOL    HW129936  11.496   2.018   5.444  0.6360  0.1693 -0.3847
39874SOL    HW229937  11.476   2.165   5.475 -0.1425  0.1384 -0.7399
39875SOL     OW29938   3.033  11.743   2.967 -0.6329  0.5525  0.4857
39875SOL    HW129939   3.098  11.720   2.901 -0.3909 -0.3118  0.9987
39875SOL    HW229940   3.074  11.814   3.016 -0.4944  0.6863  0.1796
39876SOL     OW29941   1.595   7.904  10.231  0.0550  0.2311  0.0522
39876SOL    HW129942   1.605   7.926  10.324  0.6523  0.5859 -0.0868
39876SOL    HW229943   1.567   7.986  10.190 -1.1929 -0.1713  0.0640
39877SOL     OW29944   2.838   6.921   2.770  0.4542  0.3093 -0.1036
39877SOL    HW129945   2.859   6.996   2.825  0.5064 -0.1410  0.5020
39877SOL    HW229946   2.814   6.851   2.832 -1.6568  0.4260 -0.7035
39878SOL     OW29947  10.586   4.402  11.310 -0.5753  0.0904 -0.1275
39878SOL    HW129948  10.494   4.426  11.299 -0.1573  1.4967 -0.7779
39878SOL    HW229949  10.601   4.333  11.244 -1.0251  0.2332 -0.3843
39879SOL     OW29950  12.886   5.321  11.107  0.7330  0.4492  0.2665
39879SOL    HW129951  12.877   5.387  11.039 -1.3545  0.4065  0.4089
39879SOL    HW229952  12.798   5.282  11.113  1.5726 -1.4314  1.0840
39880SOL     OW29953   1.028   3.556   3.715 -0.8425  0.3786 -0.2244
39880SOL    HW129954   0.998   3.478   3.761 -1.2624 -0.1147 -1.3066
39880SOL    HW229955   1.108   3.582   3.762 -0.6819 -0.7164  0.1318
39881SOL     OW29956   3.486  11.055  10.713  0.3032  0.0636  0.1743
39881SOL    HW129957   3.449  10.967  10.707  0.7148 -0.0091 -2.4125
39881SOL    HW229958   3.580  11.042  10.721  0.2857  0.2731  0.7721
39882SOL     OW29959   1.862   3.498  10.527  0.7262 -0.1081 -0.0683
39882SOL    HW129960   1.833   3.433  10.463  0.5971  0.0608 -0.1823
39882SOL    HW229961   1.946   3.466  10.558  0.2064 -0.8623  0.6166
39883SOL     OW29962  11.147  12.806  10.923 -0.5746  0.4474 -0.1543
39883SOL    HW129963  11.073  12.855  10.887  0.3488  2.0178 -0.0284
39883SOL    HW229964  11.216  12.872  10.934  0.4483 -0.7350  0.8461
39884SOL     OW29965   8.607   1.999   7.847  0.6042 -0.2490  0.2805
39884SOL    HW129966   8.638   1.993   7.757  1.2546  0.6855  0.4265
39884SOL    HW229967   8.679   1.964   7.900  1.0047  0.9124  0.5454
39885SOL     OW29968   7.964   6.913   1.575 -0.3155  0.1740  0.3782
39885SOL    HW129969   7.875   6.884   1.597  0.1123 -1.1119  0.5243
39885SOL    HW229970   7.993   6.963   1.652  0.4021 -2.5157  1.9936
39886SOL     OW29971  12.112  12.163  10.240 -0.0140  0.3845 -0.7418
39886SOL    HW129972  12.161  12.167  10.157 -2.3080  2.9311 -2.1547
39886SOL    HW229973  12.161  12.220  10.299 -0.2959  1.5510 -1.5957
39887SOL     OW29974   8.790   8.506  12.050  0.2005  0.3578 -0.0561
39887SOL    HW129975   8.716   8.567  12.050  0.3561  0.5461 -0.3457
39887SOL    HW229976   8.831   8.517  12.135 -0.5682 -0.3052  0.4149
39888SOL     OW29977  12.927   3.340  12.759  0.6180  0.1512 -0.0950
39888SOL    HW129978  12.877   3.384  12.828  0.2024  0.8951 -0.8446
39888SOL    HW229979  13.006   3.392  12.750  1.2832 -0.6876  0.6837
39889SOL     OW29980   3.095   4.516   3.987  0.3312  0.4410  0.8017
39889SOL    HW129981   3.122   4.449   3.925 -2.5774  0.4282 -0.6269
39889SOL    HW229982   3.144   4.594   3.961 -0.5432  0.3462 -1.3784
39890SOL     OW29983   0.763  10.769  11.906 -0.0260 -0.7306  0.1336
39890SOL    HW129984   0.762  10.674  11.893  1.6493 -0.7406 -0.0690
39890SOL    HW229985   0.842  10.799  11.861 -0.7255  0.8175 -0.1236
39891SOL     OW29986   3.319  11.055   7.836 -0.6308  0.1090  0.2089
39891SOL    HW129987   3.279  11.091   7.756 -0.0635  0.6382  0.1559
39891SOL    HW229988   3.274  11.101   7.907  1.1388  2.1479  0.1228
39892SOL     OW29989   4.105   0.197   9.208 -0.2570 -0.6936 -0.3353
39892SOL    HW129990   4.159   0.218   9.284  0.6377 -1.4142 -0.7560
39892SOL    HW229991   4.031   0.147   9.244 -0.0022 -0.7621  0.1005
39893SOL     OW29992   9.823   5.384   9.376 -0.4948  0.2517  0.1208
39893SOL    HW129993   9.881   5.437   9.321 -1.6096  0.0476 -1.3126
39893SOL    HW229994   9.830   5.295   9.340 -0.8670  0.0095  0.6325
39894SOL     OW29995   8.514   9.784   6.864  0.1386 -0.2658 -0.1009
39894SOL    HW129996   8.549   9.847   6.801  1.7042 -0.7741  0.2169
39894SOL    HW229997   8.565   9.798   6.943  0.5652 -1.9374 -0.0290
39895SOL     OW29998   4.260   2.718  11.310  0.0519  0.3397 -0.1041
39895SOL    HW129999   4.281   2.638  11.264 -0.8682 -0.0879  0.1980
39895SOL    HW230000   4.315   2.785  11.269 -0.7291 -0.0228 -1.8027
39896SOL     OW30001   4.190   7.207  10.873  0.2838  0.0343 -0.4018
39896SOL    HW130002   4.166   7.174  10.786 -0.7106  2.1370 -0.9926
39896SOL    HW230003   4.145   7.291  10.880  1.3533  0.4996  1.6692
39897SOL     OW30004   5.171   4.344   9.463 -0.3981 -0.1935  0.1175
39897SOL    HW130005   5.100   4.374   9.519 -0.2545 -1.7310  1.1927
39897SOL    HW230006   5.208   4.424   9.425 -1.4439  0.7688  1.0638
39898SOL     OW30007   3.332  12.456   1.198 -0.2974 -0.3288  0.0359
39898SOL    HW130008   3.265  12.479   1.133 -0.5771 -2.0053 -0.3054
39898SOL    HW230009   3.382  12.386   1.158  0.6430 -0.2145  0.9535
39899SOL     OW30010  11.740   3.889   2.378  0.0134 -0.5211  1.1557
39899SOL    HW130011  11.722   3.982   2.393 -1.1164 -0.2110 -1.6603
39899SOL    HW230012  11.654   3.848   2.379  0.3239 -1.2014  0.3990
39900SOL     OW30013  10.268   2.654   9.559 -0.0974 -0.1672  0.2028
39900SOL    HW130014  10.225   2.581   9.514 -1.5318 -0.6386  2.2038
39900SOL    HW230015  10.355   2.621   9.580 -0.2506 -0.7965 -0.1124
39901SOL     OW30016   7.019  12.746   7.165 -0.1026 -0.1651 -0.5441
39901SOL    HW130017   7.061  12.698   7.094  0.1495  0.6724 -0.9801
39901SOL    HW230018   6.960  12.807   7.120 -1.6346 -1.1562  0.0480
39902SOL     OW30019  11.759   1.036   9.155 -0.3634 -0.3830 -0.2989
39902SOL    HW130020  11.823   1.042   9.226  1.6516 -1.3433 -1.9669
39902SOL    HW230021  11.692   0.976   9.190 -0.0473  0.0893  1.2150
39903SOL     OW30022   2.125   5.718   4.515 -0.7729 -0.4479  0.4233
39903SOL    HW130023   2.044   5.672   4.539 -1.9647  0.4317 -1.5996
39903SOL    HW230024   2.149   5.680   4.430 -2.4891  3.2568 -1.9621
39904SOL     OW30025   3.419   8.090   5.400  0.0443  0.1277  0.2750
39904SOL    HW130026   3.511   8.064   5.412 -0.2596 -0.3953  1.7228
39904SOL    HW230027   3.390   8.112   5.489 -1.3184 -0.0124 -0.1278
39905SOL     OW30028   5.070   9.149   7.819 -0.1345 -0.1804 -0.2241
39905SOL    HW130029   5.088   9.065   7.777  2.1188 -0.5020  1.1986
39905SOL    HW230030   5.142   9.205   7.792  0.1762  0.2557  1.3849
39906SOL     OW30031   7.264   7.868   1.550 -0.2270  0.3119 -0.0740
39906SOL    HW130032   7.348   7.878   1.595  0.5496  2.3188 -1.7650
39906SOL    HW230033   7.288   7.842   1.461 -1.5936 -1.6426  0.0668
39907SOL     OW30034   3.375  11.594   7.139 -0.7848 -0.0920 -0.1626
39907SOL    HW130035   3.442  11.544   7.092 -1.5024 -1.5711  0.3283
39907SOL    HW230036   3.320  11.632   7.071  1.1626  2.1366 -0.6282
39908SOL     OW30037   1.853   0.128  11.341  0.2621  0.7984 -0.3938
39908SOL    HW130038   1.795   0.144  11.266 -0.5259  4.5824  0.8081
39908SOL    HW230039   1.797   0.086  11.406 -0.2861  1.4730 -0.4139
39909SOL     OW30040   5.867  11.987   5.263  0.1484 -0.5877 -0.2937
39909SOL    HW130041   5.858  12.022   5.174  1.9069 -0.7320 -0.5675
39909SOL    HW230042   5.880  12.064   5.318 -0.6095 -0.5233 -0.1908
39910SOL     OW30043   2.257  11.510   3.333  0.4575 -0.0535 -0.3458
39910SOL    HW130044   2.209  11.561   3.398 -1.1590  0.1951 -1.6670
39910SOL    HW230045   2.223  11.421   3.341  1.3723 -0.3756  0.1637
39911SOL     OW30046   5.888   7.619   6.952 -0.7667  0.7287 -0.4458
39911SOL    HW130047   5.905   7.706   6.988 -1.6102  0.6127  0.2434
39911SOL    HW230048   5.961   7.604   6.891 -0.7664  2.0297 -0.7891
39912SOL     OW30049   1.600  12.686  12.661  0.2803  0.3833 -0.1828
39912SOL    HW130050   1.682  12.721  12.695  0.0087  2.0085 -1.1143
39912SOL    HW230051   1.537  12.700  12.732  0.8305 -1.2781  0.7155
39913SOL     OW30052   4.769   3.684   3.805 -0.0712  0.4081 -0.2150
39913SOL    HW130053   4.833   3.626   3.764 -0.0400 -0.2948  0.7887
39913SOL    HW230054   4.782   3.671   3.899 -1.6517  0.2729  0.0125
39914SOL     OW30055   2.291   1.962   8.090  0.3004  0.2964 -0.2557
39914SOL    HW130056   2.269   1.987   8.180  1.6223  0.8573 -0.0620
39914SOL    HW230057   2.211   1.975   8.041  0.2646  2.6181  0.3206
39915SOL     OW30058   3.378   9.899   0.491  0.0305 -0.7274 -0.1063
39915SOL    HW130059   3.331   9.863   0.416 -0.9121  1.1933 -0.5068
39915SOL    HW230060   3.446   9.834   0.511 -1.6191 -2.7313 -0.6665
39916SOL     OW30061  10.284   1.166  10.070 -0.3682  0.2158 -0.6039
39916SOL    HW130062  10.288   1.190   9.978 -0.7114  1.7040 -0.2758
39916SOL    HW230063  10.198   1.198  10.099 -0.8995 -1.5742 -0.1000
39917SOL     OW30064   9.828  12.284   7.210 -0.0596 -0.6100  0.2428
39917SOL    HW130065   9.787  12.369   7.195  0.7648 -0.1852  0.3470
39917SOL    HW230066   9.892  12.300   7.280 -1.1498 -1.7183  1.5309
39918SOL     OW30067   0.649   4.683   4.141  0.8765  0.4182 -0.2486
39918SOL    HW130068   0.666   4.592   4.116  1.2191  0.4311 -0.0750
39918SOL    HW230069   0.603   4.720   4.066  2.3277  0.5857 -1.0967
39919SOL     OW30070   2.694  11.222  12.926 -0.3845 -0.0222  0.3085
39919SOL    HW130071   2.723  11.137  12.892 -2.4904 -0.3000 -0.9467
39919SOL    HW230072   2.775  11.265  12.953  0.8694 -1.9280 -0.1718
39920SOL     OW30073   5.767   3.324   9.716 -0.3121  0.6821 -0.1614
39920SOL    HW130074   5.684   3.309   9.670 -0.0061  0.4512 -0.6482
39920SOL    HW230075   5.822   3.250   9.689 -0.3255  0.1967  1.0549
39921SOL     OW30076  12.969  12.403   5.700 -0.3085  0.4301 -1.0839
39921SOL    HW130077  12.906  12.330   5.700 -0.4882  0.5678 -0.0595
39921SOL    HW230078  12.970  12.434   5.609 -1.0449 -0.1502 -1.3018
39922SOL     OW30079  11.135   9.183   1.728  0.4593 -0.0613  0.4739
39922SOL    HW130080  11.162   9.115   1.789  0.4116 -0.3988  0.1171
39922SOL    HW230081  11.047   9.208   1.758  0.6871  0.2168  0.9218
39923SOL     OW30082   8.803   0.823  10.577 -1.0167  0.1937  0.9376
39923SOL    HW130083   8.814   0.744  10.524 -1.1508 -0.1330  1.3945
39923SOL    HW230084   8.884   0.872  10.564 -0.6893 -0.2966  1.1121
39924SOL     OW30085   2.106   2.110   6.723  0.3524 -0.2539  0.1223
39924SOL    HW130086   2.101   2.023   6.683  1.1364 -0.2553  0.0182
39924SOL    HW230087   2.031   2.157   6.686 -0.3714 -1.0294  0.5571
39925SOL     OW30088   5.703   0.250   6.117  0.1399 -0.8698  0.2711
39925SOL    HW130089   5.714   0.179   6.180 -0.8411  1.0222  2.7077
39925SOL    HW230090   5.621   0.292   6.141 -0.9335 -0.7363 -3.0793
39926SOL     OW30091   5.933  10.843   1.988  0.1599 -0.4634  0.3601
39926SOL    HW130092   5.838  10.847   1.988  0.1343 -0.2418 -1.4200
39926SOL    HW230093   5.958  10.850   2.081 -1.5022  0.7944  0.7516
39927SOL     OW30094   6.006   1.372   9.145  0.3580 -0.9906  0.2411
39927SOL    HW130095   6.033   1.323   9.223  0.8348 -1.6116 -0.2977
39927SOL    HW230096   5.955   1.309   9.094  0.0789 -0.5979  0.0331
39928SOL     OW30097   5.036   1.141   2.117 -0.2663 -0.7174  0.1391
39928SOL    HW130098   5.111   1.172   2.169  0.4923 -2.3775  0.1011
39928SOL    HW230099   5.002   1.067   2.167 -2.1920  0.2649  0.3675
39929SOL     OW30100   2.482   0.523   9.782  0.0155  0.1094  1.1541
39929SOL    HW130101   2.575   0.541   9.775  0.0830 -0.1266  1.4178
39929SOL    HW230102   2.451   0.521   9.691  0.5107 -1.0116  0.9856
39930SOL     OW30103   1.862   9.700  12.184 -0.0355  0.2204 -0.9160
39930SOL    HW130104   1.790   9.762  12.179 -0.0464  0.1935 -1.0852
39930SOL    HW230105   1.941   9.754  12.178 -0.0461  0.2061 -1.2014
39931SOL     OW30106   6.644  12.518   9.633  0.0939  0.4158 -0.0500
39931SOL    HW130107   6.566  12.573   9.625  0.6025  1.2715  0.7389
39931SOL    HW230108   6.624  12.459   9.705 -0.2610 -0.1367 -0.5862
39932SOL     OW30109  11.214   5.750   3.603  0.2100 -0.1392  0.2006
39932SOL    HW130110  11.191   5.792   3.686  1.4118 -0.6452  0.8205
39932SOL    HW230111  11.159   5.793   3.538 -0.6406  0.3851  1.2297
39933SOL     OW30112   3.629  10.324   3.909 -0.2987  0.0701 -0.6468
39933SOL    HW130113   3.723  10.309   3.917 -0.6619 -1.3399  2.3806
39933SOL    HW230114   3.616  10.414   3.940 -0.1497 -0.5755  1.3986
39934SOL     OW30115  11.640   7.444   1.727  0.4570 -0.9424  0.3008
39934SOL    HW130116  11.720   7.412   1.768  0.7725  2.2014  2.5275
39934SOL    HW230117  11.671   7.494   1.651  0.6833  0.1740  1.0946
39935SOL     OW30118  10.398   6.002  10.158  0.8241  0.1946  0.2717
39935SOL    HW130119  10.419   5.928  10.101  0.2968 -1.8601  2.5326
39935SOL    HW230120  10.307   6.023  10.136  1.2018  0.6817 -0.8838
39936SOL     OW30121   6.316   9.780   5.929  0.3069 -0.3310  0.0277
39936SOL    HW130122   6.300   9.840   6.002  0.4425  0.3838 -0.5233
39936SOL    HW230123   6.281   9.696   5.959 -1.4032  0.3976  0.1767
39937SOL     OW30124   1.783   3.974   0.380 -0.3870  0.1739  0.3300
39937SOL    HW130125   1.867   3.944   0.344  0.1209  1.7121  0.1760
39937SOL    HW230126   1.757   3.904   0.440  0.9837 -0.3592  0.3524
39938SOL     OW30127  11.830   8.328   5.537  0.2606 -0.5300 -0.4576
39938SOL    HW130128  11.907   8.351   5.485  0.8017  0.0077  0.5656
39938SOL    HW230129  11.846   8.238   5.566  0.4597 -0.4509 -0.3215
39939SOL     OW30130   4.116   1.646   5.721 -0.5352 -0.0254 -0.1159
39939SOL    HW130131   4.074   1.718   5.673 -1.3862 -0.7371 -0.4676
39939SOL    HW230132   4.079   1.567   5.682 -0.3121 -0.6427  0.8924
39940SOL     OW30133   7.230   0.477   6.564  0.1252  0.3122 -0.1923
39940SOL    HW130134   7.297   0.506   6.501  0.2019  1.6794  0.4669
39940SOL    HW230135   7.148   0.484   6.516  0.3565 -0.4832 -0.7192
39941SOL     OW30136  11.435   6.335  12.765 -0.5928  0.0539 -0.0886
39941SOL    HW130137  11.481   6.252  12.756  0.0016  0.4642 -1.0422
39941SOL    HW230138  11.473   6.376  12.843 -0.8455 -0.5308  0.3490
39942SOL     OW30139   7.804   3.246   1.539  0.1134  0.2076 -0.4563
39942SOL    HW130140   7.800   3.169   1.596  0.5008 -0.2236 -0.9963
39942SOL    HW230141   7.831   3.211   1.454 -1.3884  0.7019 -1.1606
39943SOL     OW30142   9.384   3.893  12.193  0.1137 -0.4122 -0.0063
39943SOL    HW130143   9.290   3.878  12.191  0.0581 -0.2944  1.0943
39943SOL    HW230144   9.399   3.944  12.273  0.8751  1.2769 -1.1523
39944SOL     OW30145   8.607   8.928  10.509 -0.0496 -0.0904  0.1175
39944SOL    HW130146   8.575   9.001  10.456  0.5797  0.7653  0.8985
39944SOL    HW230147   8.606   8.854  10.448 -0.5031  0.5943 -0.7494
39945SOL     OW30148   0.255   7.990   3.795 -0.2785 -0.4525 -0.1690
39945SOL    HW130149   0.160   7.979   3.786 -0.1863  0.0419 -2.5729
39945SOL    HW230150   0.292   7.907   3.766  0.0535 -0.6940  0.9000
39946SOL     OW30151   3.406   6.035   1.782  0.0914  0.3343 -0.2050
39946SOL    HW130152   3.388   6.125   1.755  0.9518 -0.1118 -2.5212
39946SOL    HW230153   3.497   6.037   1.812  0.6485 -0.0073 -1.7676
39947SOL     OW30154   5.618  11.073   5.060 -0.1852  0.1084  0.0605
39947SOL    HW130155   5.626  11.129   5.137  1.0464  0.2023 -0.1030
39947SOL    HW230156   5.658  11.124   4.989 -1.9498  0.3212 -0.8192
39948SOL     OW30157   8.122  11.294   3.157 -0.1953 -0.3204  0.4265
39948SOL    HW130158   8.050  11.318   3.099  0.2259 -1.0541 -0.4164
39948SOL    HW230159   8.140  11.374   3.207 -0.5215  0.3462 -0.4954
39949SOL     OW30160   2.024   0.174   8.788  0.0298 -0.1642  0.9522
39949SOL    HW130161   2.046   0.082   8.802 -2.4097 -1.4083 -2.1502
39949SOL    HW230162   1.934   0.182   8.820 -0.5086  0.5506 -0.6356
39950SOL     OW30163   5.443   8.471  11.422  0.2430  0.4175 -0.2021
39950SOL    HW130164   5.356   8.462  11.382  0.8825 -2.1576 -1.2430
39950SOL    HW230165   5.427   8.460  11.516 -0.6007  0.3752 -0.3437
39951SOL     OW30166   4.690   3.977   5.582 -0.8844 -0.5049 -0.5126
39951SOL    HW130167   4.690   3.883   5.597  0.4785 -0.3653  0.5267
39951SOL    HW230168   4.693   4.015   5.670  0.9843  0.4512 -0.9326
39952SOL     OW30169  11.598   6.623  10.303  0.3732  0.0197  0.1726
39952SOL    HW130170  11.518   6.604  10.353  0.1340 -0.4119 -0.3504
39952SOL    HW230171  11.611   6.544  10.249 -0.2292  1.0511 -1.5506
39953SOL     OW30172  10.296   8.111   1.664  0.2488 -0.1603  0.2465
39953SOL    HW130173  10.235   8.045   1.631 -0.5292 -0.2925  1.8560
39953SOL    HW230174  10.241   8.174   1.711  0.9692  1.6825 -1.2394
39954SOL     OW30175   9.146   4.932   6.385 -0.3811 -0.3374  0.3788
39954SOL    HW130176   9.086   5.003   6.408  1.0953  1.5705 -1.2504
39954SOL    HW230177   9.096   4.875   6.327 -0.5165  1.6522 -1.6062
39955SOL     OW30178   2.259   7.369  12.555  0.3651  0.1245  0.7469
39955SOL    HW130179   2.170   7.396  12.532  0.3718 -0.1502  0.3840
39955SOL    HW230180   2.297   7.445  12.600 -0.1619  0.1235  1.2038
39956SOL     OW30181   6.493  12.404   5.324  0.5293 -0.2294  0.2731
39956SOL    HW130182   6.437  12.441   5.392  1.0539 -0.9068  1.1034
39956SOL    HW230183   6.573  12.457   5.328 -0.3203  1.2855 -1.4858
39957SOL     OW30184   6.217   5.551  11.346  0.4109 -0.2926 -0.5592
39957SOL    HW130185   6.181   5.514  11.426  2.1394  1.4508  1.1076
39957SOL    HW230186   6.162   5.628  11.328  1.1723  0.4072  0.0551
39958SOL     OW30187   6.430   5.724   1.796  0.2097  0.7847 -0.5939
39958SOL    HW130188   6.420   5.643   1.747 -0.4823  1.0570 -0.9271
39958SOL    HW230189   6.451   5.697   1.885 -1.6297  0.1633 -0.2983
39959SOL     OW30190   5.288   0.572   3.435  0.3868  0.0336 -0.1549
39959SOL    HW130191   5.258   0.543   3.348  0.4384 -2.0798  0.4743
39959SOL    HW230192   5.305   0.491   3.482  1.9720  1.1589  1.2967
39960SOL     OW30193   7.260   5.399  12.135  0.2172  0.0566  0.6668
39960SOL    HW130194   7.186   5.458  12.121  0.2303 -0.5986 -3.8087
39960SOL    HW230195   7.224   5.327  12.186 -1.4527  1.0530  0.9854
39961SOL     OW30196   1.268   9.499   7.699 -0.4935 -0.3142  0.6604
39961SOL    HW130197   1.181   9.519   7.733 -0.9286  0.7303 -0.9764
39961SOL    HW230198   1.251   9.448   7.620  0.4488 -1.2521  1.0334
39962SOL     OW30199  11.453   2.825   6.721 -0.0466 -0.2411  0.3227
39962SOL    HW130200  11.378   2.804   6.665 -1.3782  0.9399  1.5630
39962SOL    HW230201  11.475   2.916   6.699 -0.9069  0.4157  1.9543
39963SOL     OW30202  12.890  11.557   3.496  0.3392 -0.1255 -0.8803
39963SOL    HW130203  12.968  11.579   3.447 -0.0562  0.4250 -1.2761
39963SOL    HW230204  12.844  11.493   3.441  0.9425 -1.1340 -0.2380
39964SOL     OW30205   8.653   9.162  11.073 -0.7826  0.0455 -0.4418
39964SOL    HW130206   8.600   9.237  11.101 -1.6501  0.4511 -2.9166
39964SOL    HW230207   8.595   9.087  11.084 -1.2936  0.2646 -1.4656
39965SOL     OW30208   7.271  10.218   1.846 -0.1004 -0.1249  0.2672
39965SOL    HW130209   7.316  10.193   1.766 -1.4057  0.5009 -0.6997
39965SOL    HW230210   7.334  10.200   1.916  0.9930 -0.8628 -0.8677
39966SOL     OW30211   2.902   4.419  12.151  0.6487  0.1413 -0.1435
39966SOL    HW130212   2.936   4.337  12.118 -1.0233  0.7845 -3.9842
39966SOL    HW230213   2.965   4.485  12.123  1.2685  0.3853  1.6854
39967SOL     OW30214  12.615   3.534   4.962  0.0002 -0.3068  0.6524
39967SOL    HW130215  12.639   3.448   4.998 -0.1181 -0.5385  0.1812
39967SOL    HW230216  12.588   3.515   4.872 -0.8412  0.1071  0.8117
39968SOL     OW30217   8.725  10.971  12.640  0.1961 -0.2342 -0.4862
39968SOL    HW130218   8.753  11.022  12.716 -0.6399 -0.5667  0.0495
39968SOL    HW230219   8.714  10.882  12.673 -0.4948 -0.3129 -0.9166
39969SOL     OW30220   1.808   9.018   9.363  0.9353  0.1412  0.0082
39969SOL    HW130221   1.766   9.030   9.448 -1.1107  2.5975 -1.2173
39969SOL    HW230222   1.885   9.074   9.366  1.4421 -0.5694  0.5632
39970SOL     OW30223  10.225   2.691   5.704  0.3989 -0.2233 -0.1315
39970SOL    HW130224  10.250   2.758   5.767  0.4976 -1.4039  1.1468
39970SOL    HW230225  10.283   2.705   5.629  0.4896  1.0200  0.1544
39971SOL     OW30226   4.400   7.411  12.003  0.1089 -0.0838  0.4641
39971SOL    HW130227   4.325   7.449  12.049  0.9360  2.2099  0.0690
39971SOL    HW230228   4.381   7.427  11.910 -0.2034 -2.0819  0.1373
39972SOL     OW30229   3.826   2.573  12.953  0.4527 -0.2754 -0.4254
39972SOL    HW130230   3.871   2.656  12.969  2.2461 -1.3457  0.4055
39972SOL    HW230231   3.771   2.560  13.030  0.6492 -0.1455 -0.2622
39973SOL     OW30232   1.679   4.754   1.764  0.8933 -0.3592  0.0832
39973SOL    HW130233   1.656   4.845   1.781  0.4514 -0.4802  0.1472
39973SOL    HW230234   1.697   4.750   1.670 -2.1269 -0.8296 -0.5769
39974SOL     OW30235  12.854   1.538  12.292  0.3386 -0.7760 -0.3507
39974SOL    HW130236  12.800   1.494  12.358  0.4209 -0.6667 -0.2101
39974SOL    HW230237  12.927   1.477  12.277 -0.7102 -1.7438 -1.8219
39975SOL     OW30238   1.148  10.935   0.244 -0.2975 -0.0451  0.0660
39975SOL    HW130239   1.159  10.844   0.272 -0.4784 -1.2047 -3.2293
39975SOL    HW230240   1.232  10.957   0.202 -1.7554 -0.4602 -3.3820
39976SOL     OW30241   5.176  10.958  12.797  0.1036 -0.1664  0.4299
39976SOL    HW130242   5.240  10.992  12.735  0.7872  0.5739  1.5095
39976SOL    HW230243   5.114  11.031  12.809 -2.3322 -1.5562 -2.2872
39977SOL     OW30244  10.030   8.911   0.676  0.3272 -0.4203  0.2490
39977SOL    HW130245   9.968   8.853   0.632 -0.2591  0.0437  0.4523
39977SOL    HW230246  10.112   8.860   0.679  0.1960 -0.7216 -0.7513
39978SOL     OW30247   6.566   2.897   7.522  0.1511 -0.0595  0.7053
39978SOL    HW130248   6.630   2.875   7.453  3.1748  4.0527  1.7854
39978SOL    HW230249   6.610   2.874   7.603 -0.0963  1.9042  1.4462
39979SOL     OW30250   1.792   0.850   9.280 -0.1219  0.1167  0.2219
39979SOL    HW130251   1.831   0.766   9.256  0.2470  0.4716 -0.4532
39979SOL    HW230252   1.801   0.854   9.375 -0.0469 -0.5574  0.2486
39980SOL     OW30253   1.454  11.957  11.196  0.3026  0.4492 -0.4524
39980SOL    HW130254   1.392  11.885  11.186  0.9798 -0.2343  0.2216
39980SOL    HW230255   1.507  11.955  11.116 -1.1299  1.6505 -1.5000
39981SOL     OW30256  12.518   7.074  11.661 -0.3668  0.0888 -0.0161
39981SOL    HW130257  12.469   7.015  11.718  0.6875 -2.0328 -1.2077
39981SOL    HW230258  12.530   7.153  11.714 -3.3400 -0.0229  1.0099
39982SOL     OW30259   9.044  12.446   6.859 -0.5249  0.1175 -0.7007
39982SOL    HW130260   8.973  12.388   6.834 -0.6885  0.0245 -0.0496
39982SOL    HW230261   9.035  12.456   6.954  0.2531  0.2000 -0.6234
39983SOL     OW30262  12.230   3.527   5.261 -0.0983 -0.5249  0.3157
39983SOL    HW130263  12.200   3.524   5.170 -1.7751  1.0393  0.7612
39983SOL    HW230264  12.282   3.447   5.272 -1.7417 -1.9152 -1.3765
39984SOL     OW30265   7.068  11.193   1.841 -0.4349  0.0578 -0.6078
39984SOL    HW130266   7.124  11.242   1.901  0.6442  0.3686 -1.8333
39984SOL    HW230267   7.039  11.258   1.777 -0.7409 -0.4678 -1.0090
39985SOL     OW30268   0.879   1.499   6.559 -0.0145  0.1922  0.4152
39985SOL    HW130269   0.969   1.526   6.572 -0.4926  1.9771  0.3016
39985SOL    HW230270   0.827   1.573   6.592 -1.4501 -1.0577  1.0880
39986SOL     OW30271   3.854   8.779   4.257 -0.5336  0.0262 -0.7717
39986SOL    HW130272   3.762   8.797   4.240 -0.1811  2.4714 -0.4034
39986SOL    HW230273   3.884   8.735   4.178 -1.8106 -0.0244 -1.2534
39987SOL     OW30274   0.107   5.896   0.993 -0.1694  0.9249  0.0651
39987SOL    HW130275   0.165   5.823   1.011  1.4754  1.3542 -2.8407
39987SOL    HW230276   0.054   5.906   1.072  1.5617 -1.4916  1.6340
39988SOL     OW30277   0.223   2.977   2.417  0.6671 -0.3424  0.6342
39988SOL    HW130278   0.298   2.983   2.358  0.7927 -2.0209  0.5684
39988SOL    HW230279   0.258   2.939   2.497 -0.3561 -2.9807 -0.0437
39989SOL     OW30280   6.707   0.520   4.974 -0.2921  0.0176 -0.2112
39989SOL    HW130281   6.791   0.518   5.019 -0.0044  0.3361 -0.7246
39989SOL    HW230282   6.722   0.574   4.896 -1.4104  1.5652  0.5859
39990SOL     OW30283   6.918  10.569   2.507 -0.1719 -0.3694  0.3048
39990SOL    HW130284   6.966  10.561   2.424  0.6468 -1.4139  0.8500
39990SOL    HW230285   6.826  10.572   2.482  0.0883 -0.2082 -0.6659
39991SOL     OW30286   9.394   2.530   5.507 -0.0574  0.0409 -0.0491
39991SOL    HW130287   9.417   2.597   5.442 -0.8166 -0.7119 -1.1269
39991SOL    HW230288   9.333   2.575   5.566  0.1070  0.5441 -0.2543
39992SOL     OW30289  11.900  11.894  12.245 -0.4941  0.9192 -0.3660
39992SOL    HW130290  11.967  11.843  12.201 -0.9613  1.6241 -1.9586
39992SOL    HW230291  11.843  11.829  12.286 -1.0216  0.1195 -2.2660
39993SOL     OW30292   2.041   5.468  12.295  0.8330 -0.4412  0.7277
39993SOL    HW130293   1.983   5.450  12.221  1.2936  1.2374 -0.0969
39993SOL    HW230294   1.985   5.511  12.360  0.6699 -0.8948  0.8884
39994SOL     OW30295   3.380  12.660   5.354  0.8558 -0.3839  0.3668
39994SOL    HW130296   3.390  12.755   5.353 -0.8212 -0.1897 -0.4118
39994SOL    HW230297   3.286  12.645   5.363  1.1281 -1.9864  0.9825
39995SOL     OW30298   3.863   6.064   8.808  0.6834 -0.1592  0.4343
39995SOL    HW130299   3.930   6.129   8.829  0.6662 -0.4262  1.3818
39995SOL    HW230300   3.874   5.997   8.876  1.3327 -1.6178 -1.0364
39996SOL     OW30301   8.245   2.283   7.442 -0.4725  0.2529  0.1203
39996SOL    HW130302   8.224   2.347   7.375 -0.4266 -0.3677 -0.4960
39996SOL    HW230303   8.340   2.288   7.452 -0.5489  0.8080  0.6176
39997SOL     OW30304  12.731   8.982   6.310 -0.0944  0.1139  0.1740
39997SOL    HW130305  12.780   8.988   6.228 -0.6709  0.1902 -0.1761
39997SOL    HW230306  12.741   8.891   6.338  1.5022  0.4904  0.9156
39998SOL     OW30307   1.322   4.231  11.310 -0.2591  0.8717  0.0893
39998SOL    HW130308   1.361   4.190  11.387 -2.5987  1.0552  1.4499
39998SOL    HW230309   1.260   4.295  11.346 -1.5585  0.8220 -1.9437
39999SOL     OW30310   6.545   0.389   7.599 -0.3687  0.4393  0.1488
39999SOL    HW130311   6.467   0.357   7.645 -1.5303  3.0273  0.1988
39999SOL    HW230312   6.609   0.319   7.609 -1.8581 -0.7669  2.2887
40000SOL     OW30313   2.915   7.809   3.429 -0.2270 -0.2506  0.1901
40000SOL    HW130314   2.987   7.869   3.411  0.3143 -1.3307 -1.5062
40000SOL    HW230315   2.948   7.751   3.498 -0.3254  0.6180  0.9910
40001SOL     OW30316   5.893   2.047   7.148  0.2719  0.1575 -0.2592
40001SOL    HW130317   5.917   2.118   7.088  0.5117  0.0505 -0.2921
40001SOL    HW230318   5.955   2.056   7.221 -1.1196  1.3924  0.8465
40002SOL     OW30319   1.045   9.989   0.672 -0.4096  0.0602 -0.3568
40002SOL    HW130320   0.972  10.020   0.725 -0.8855 -0.6710 -0.5618
40002SOL    HW230321   1.005   9.963   0.589  0.1058 -0.2216 -0.5210
40003SOL     OW30322   4.243   4.089   6.607  0.2303 -0.2835 -0.0109
40003SOL    HW130323   4.263   4.182   6.595  0.4975 -0.3462 -0.0625
40003SOL    HW230324   4.316   4.044   6.564 -0.6061 -0.5292 -1.2080
40004SOL     OW30325   3.173   3.722   4.531  0.0540 -0.3258  0.1244
40004SOL    HW130326   3.252   3.710   4.583  0.9623  1.5190 -0.7269
40004SOL    HW230327   3.123   3.789   4.578  1.2702  1.9763 -1.6647
40005SOL     OW30328   4.316   5.293   7.626  0.7062  0.1984  0.3690
40005SOL    HW130329   4.244   5.251   7.579  0.4726 -1.5306  2.1176
40005SOL    HW230330   4.341   5.367   7.571 -1.0367 -0.3594 -1.2903
40006SOL     OW30331   7.914   8.107   4.366  1.1356  0.0496  0.4249
40006SOL    HW130332   7.847   8.053   4.324  1.0189  0.3453  0.2262
40006SOL    HW230333   7.982   8.116   4.300  2.0128 -1.3849  1.0916
40007SOL     OW30334   4.272  11.937   6.835 -0.5014  0.1809  0.2651
40007SOL    HW130335   4.259  11.855   6.883 -1.1355  0.2185  0.1757
40007SOL    HW230336   4.304  11.998   6.901 -0.4719 -0.0183  0.4360
40008SOL     OW30337   4.435   3.426   1.416  0.2345  0.1817  0.5805
40008SOL    HW130338   4.479   3.435   1.332  1.7001 -0.4876  1.2358
40008SOL    HW230339   4.505   3.434   1.481 -1.0905  2.5375  1.8627
40009SOL     OW30340   4.818   8.280   3.379  0.4591  0.7598 -0.0670
40009SOL    HW130341   4.752   8.270   3.311 -0.9698 -2.7947  1.6196
40009SOL    HW230342   4.776   8.334   3.446 -0.5755 -0.9011  0.6819
40010SOL     OW30343  11.791   1.105   4.342 -0.1361  0.7414 -0.0878
40010SOL    HW130344  11.840   1.091   4.424 -0.2394 -1.2990 -0.3084
40010SOL    HW230345  11.700   1.110   4.369  0.0146  3.1428  0.1801
40011SOL     OW30346   1.049   8.932   6.903  0.2153 -0.3310  0.5082
40011SOL    HW130347   1.133   8.938   6.947  0.6822  2.9712 -0.5611
40011SOL    HW230348   1.068   8.954   6.812 -1.5658 -1.3863 -0.1764
40012SOL     OW30349  10.154   7.387   7.978 -0.1069 -0.2807 -0.4904
40012SOL    HW130350  10.241   7.418   7.954 -0.4401 -1.0780 -2.9213
40012SOL    HW230351  10.113   7.462   8.022  0.7550  1.1204 -1.9901
40013SOL     OW30352   7.754   9.658   0.145  0.3889 -0.3536 -0.1584
40013SOL    HW130353   7.688   9.697   0.202  0.0229 -0.5220 -0.4591
40013SOL    HW230354   7.835   9.661   0.195  0.2711  0.3779 -0.0041
40014SOL     OW30355   6.405   3.367   8.921 -0.0827  0.1359 -0.4049
40014SOL    HW130356   6.456   3.384   8.841  0.5653 -1.7320 -0.4292
40014SOL    HW230357   6.434   3.434   8.982  0.2935  0.8655 -1.3489
40015SOL     OW30358   5.513   7.268   7.288 -0.6106 -0.0873 -0.2936
40015SOL    HW130359   5.531   7.360   7.306  0.6224 -0.1987 -0.8224
40015SOL    HW230360   5.590   7.238   7.239 -0.9575 -1.4154 -0.0664
40016SOL     OW30361  10.465   9.815   7.079  0.5035  0.3882 -0.1477
40016SOL    HW130362  10.398   9.792   7.014 -0.4353  1.3328  0.4594
40016SOL    HW230363  10.548   9.804   7.032 -0.1758  2.7902 -2.1687
40017SOL     OW30364   1.106  12.255   7.482 -0.4290  0.3185 -0.0960
40017SOL    HW130365   1.105  12.161   7.463 -2.0334  0.1081  0.8644
40017SOL    HW230366   1.054  12.295   7.413 -3.5367 -0.0853  1.7933
40018SOL     OW30367   9.216  10.873   4.307 -0.2416  0.0731 -0.0442
40018SOL    HW130368   9.158  10.850   4.380 -0.6842 -1.5527 -0.8558
40018SOL    HW230369   9.201  10.804   4.242  1.9792  0.0851 -0.6447
40019SOL     OW30370  12.021   5.056   3.642  0.5955  0.4383 -0.1900
40019SOL    HW130371  12.110   5.058   3.606  0.1671 -0.1469 -1.3379
40019SOL    HW230372  11.969   5.013   3.574 -0.3110 -0.4571  1.0300
40020SOL     OW30373  10.573   1.859  11.448 -0.2592 -0.1200 -0.2284
40020SOL    HW130374  10.530   1.944  11.456 -1.6090 -0.7415 -0.6449
40020SOL    HW230375  10.651   1.867  11.503  0.5684  1.9334 -1.5779
40021SOL     OW30376   0.379  12.449   2.703  0.0960 -0.4380 -0.1380
40021SOL    HW130377   0.470  12.422   2.696  0.8878  2.1885 -1.3246
40021SOL    HW230378   0.382  12.533   2.749 -1.8342 -0.7278  0.6301
40022SOL     OW30379   5.102  11.511  11.728  0.0842 -0.2650  0.1244
40022SOL    HW130380   5.058  11.577  11.782 -0.4308 -1.8751  1.7865
40022SOL    HW230381   5.192  11.543  11.719  0.3438 -0.1609  2.4447
40023SOL     OW30382  11.742  10.952   6.953  0.2217 -0.5956  0.7787
40023SOL    HW130383  11.673  11.014   6.973  0.1498 -0.4923  0.2089
40023SOL    HW230384  11.701  10.866   6.962 -0.7532 -0.5401 -2.1252
40024SOL     OW30385   1.855   2.020   5.239  0.0752  0.7539  0.5020
40024SOL    HW130386   1.774   2.013   5.290  0.1070  1.6276  0.6880
40024SOL    HW230387   1.880   2.112   5.246  1.2268  0.4494  0.6587
40025SOL     OW30388  11.518   1.707   4.130 -0.8248 -0.0534  0.8410
40025SOL    HW130389  11.580   1.635   4.128 -0.0667  0.5168  2.0489
40025SOL    HW230390  11.568   1.781   4.165 -1.8870  0.7288  0.7754
40026SOL     OW30391   4.545  10.538   1.328 -0.9245 -0.0160 -0.0308
40026SOL    HW130392   4.636  10.508   1.323 -0.6993  0.4229  1.1299
40026SOL    HW230393   4.513  10.531   1.238 -0.0757 -1.1795 -0.2670
40027SOL     OW30394   1.013   7.625   6.804  0.1693 -0.6638 -0.7133
40027SOL    HW130395   1.009   7.617   6.708  1.4409  0.5602 -0.8919
40027SOL    HW230396   0.964   7.705   6.823  0.8162 -0.3219 -0.4571
40028SOL     OW30397  10.682   7.768   6.817  0.7255  0.1314 -0.1357
40028SOL    HW130398  10.713   7.823   6.745 -0.4083  0.6710 -0.2306
40028SOL    HW230399  10.628   7.701   6.775 -0.3974  0.7750  0.2271
40029SOL     OW30400   9.936  10.804   7.478  0.2369  0.0829  0.2308
40029SOL    HW130401   9.944  10.709   7.488 -0.7756 -0.1606 -0.9803
40029SOL    HW230402   9.889  10.815   7.396 -0.1420  1.6325  0.6307
40030SOL     OW30403   8.219   1.856   8.802  0.1412 -0.0004  0.3497
40030SOL    HW130404   8.180   1.877   8.717  1.0800 -1.1137 -0.3870
40030SOL    HW230405   8.183   1.769   8.823 -0.3374  0.4002  1.2709
40031SOL     OW30406   0.570   0.475   8.876  0.0216 -0.0585 -0.0112
40031SOL    HW130407   0.526   0.415   8.816 -0.4238 -0.4613  0.6987
40031SOL    HW230408   0.647   0.505   8.828  0.5519 -1.6128 -0.1906
40032SOL     OW30409   6.521   6.044   5.705 -0.2586 -0.5744  0.4263
40032SOL    HW130410   6.593   5.984   5.687 -0.3306 -0.5982  0.2203
40032SOL    HW230411   6.548   6.090   5.785  1.5320  1.7272 -1.3356
40033SOL     OW30412   5.864   5.579   4.729 -0.4414 -0.1641  0.0252
40033SOL    HW130413   5.790   5.579   4.668  0.3365 -0.7546 -0.9599
40033SOL    HW230414   5.923   5.511   4.695  0.7936  0.6453  0.4614
40034SOL     OW30415   3.589  12.819  12.078  0.1701  0.2960 -0.0960
40034SOL    HW130416   3.580  12.807  12.172  0.8142 -0.1607 -0.0861
40034SOL    HW230417   3.680  12.848  12.066 -0.2534  1.5428 -0.4712
40035SOL     OW30418   3.588   2.224   9.733 -0.3133 -0.2959 -0.1318
40035SOL    HW130419   3.638   2.219   9.814 -0.7446  1.0217  0.2450
40035SOL    HW230420   3.576   2.318   9.718 -1.3412 -0.5489 -1.0287
40036SOL     OW30421  10.011   4.720   8.504  0.4431  0.6713  0.1438
40036SOL    HW130422   9.990   4.681   8.419 -1.3516  0.6138  0.5831
40036SOL    HW230423   9.974   4.660   8.568  1.1031  1.1123  0.9664
40037SOL     OW30424   3.372   9.586  10.599  0.1770 -0.6806  0.0376
40037SOL    HW130425   3.325   9.669  10.587  1.2385  0.1051  1.0507
40037SOL    HW230426   3.432   9.582  10.524  0.2118 -0.4603  0.0514
40038SOL     OW30427   3.897   8.808   5.924  0.1441  0.1742  0.3558
40038SOL    HW130428   3.866   8.727   5.882 -0.6878  0.9552 -0.6002
40038SOL    HW230429   3.964   8.779   5.985 -2.1363 -1.6002  2.2286
40039SOL     OW30430   0.625   0.214   6.761 -0.3145  0.1464  0.5647
40039SOL    HW130431   0.573   0.208   6.680 -1.1861  0.4324  1.0852
40039SOL    HW230432   0.602   0.134   6.809  0.3189 -0.0976  0.4637
40040SOL     OW30433   3.054   1.749  11.402  0.4192 -0.3536 -0.0907
40040SOL    HW130434   3.049   1.817  11.335  2.2684 -1.2464 -1.2239
40040SOL    HW230435   2.987   1.685  11.377  0.8899 -0.5304 -0.9494
40041SOL     OW30436  12.229   0.917   0.985 -0.7595  0.0613 -0.1876
40041SOL    HW130437  12.268   0.840   0.943  0.5154  0.2318  0.6152
40041SOL    HW230438  12.208   0.976   0.913 -2.7340 -1.4228 -0.9205
40042SOL     OW30439  10.012   2.838   2.552 -0.0970  0.4985 -0.0702
40042SOL    HW130440   9.977   2.786   2.625 -2.8777  1.5180 -0.5530
40042SOL    HW230441   9.950   2.911   2.543  0.3141  0.5856 -3.2609
40043SOL     OW30442  11.167   7.636   3.004  0.1528 -0.4670 -0.0393
40043SOL    HW130443  11.119   7.620   3.085  0.6503  0.5029  0.4755
40043SOL    HW230444  11.254   7.601   3.020  0.3716  0.0871 -0.0006
40044SOL     OW30445   2.651   3.813   5.017 -0.1248  0.5090  0.7284
40044SOL    HW130446   2.557   3.831   5.004 -0.3591 -1.6200 -1.2922
40044SOL    HW230447   2.695   3.889   4.980 -1.0706  0.8179  0.2013
40045SOL     OW30448   2.637  11.268  11.143 -0.1905 -0.1829  0.1378
40045SOL    HW130449   2.626  11.205  11.213 -0.3774 -0.2330  0.0640
40045SOL    HW230450   2.548  11.289  11.115 -0.1079 -0.6402 -0.5103
40046SOL     OW30451   6.899  11.344   6.694 -0.1375  0.7723  0.4677
40046SOL    HW130452   6.816  11.360   6.738 -0.3251  1.9001 -0.2444
40046SOL    HW230453   6.880  11.272   6.633 -0.1447 -0.0762  1.4436
40047SOL     OW30454   2.230   9.109  10.393  0.0271 -0.1268  0.7603
40047SOL    HW130455   2.273   9.049  10.454  0.3684  0.3432  0.9891
40047SOL    HW230456   2.250   9.073  10.306 -0.7947 -1.0233  0.9233
40048SOL     OW30457  10.461   7.675   0.886  0.5514 -0.4117 -0.1473
40048SOL    HW130458  10.415   7.757   0.869 -0.7208 -1.2687 -1.0265
40048SOL    HW230459  10.541   7.681   0.833  0.2963  0.1246 -0.4815
40049SOL     OW30460   4.045   3.679   3.436  0.0764 -0.1502 -0.1026
40049SOL    HW130461   3.988   3.756   3.434  0.3189  0.0348  0.2096
40049SOL    HW230462   4.123   3.707   3.483  0.2693 -0.5163 -0.2004
40050SOL     OW30463   9.173   4.358   6.921  0.4992 -0.4167  0.4101
40050SOL    HW130464   9.098   4.299   6.933  2.0256 -3.3100 -2.5848
40050SOL    HW230465   9.249   4.305   6.946  1.7987  1.1633 -0.0404
40051SOL     OW30466   1.579   1.718  10.182 -0.1361  0.8517  0.1264
40051SOL    HW130467   1.630   1.639  10.198 -0.7726  0.5375  0.6659
40051SOL    HW230468   1.499   1.706  10.234 -0.1408  1.9478  0.4126
40052SOL     OW30469   9.689  12.796  11.982  0.0017 -0.2711  0.1567
40052SOL    HW130470   9.738  12.832  12.055  0.4646 -1.9836  0.7301
40052SOL    HW230471   9.597  12.802  12.009 -0.0151  1.2850 -0.1639
40053SOL     OW30472   0.884   1.250  11.997 -0.1459 -0.2924 -0.5910
40053SOL    HW130473   0.873   1.271  11.905 -2.4869 -1.6503 -0.7128
40053SOL    HW230474   0.857   1.329  12.043  2.7951  1.0621 -0.9744
40054SOL     OW30475   1.476   9.309   1.979  0.2432  0.0077 -0.7605
40054SOL    HW130476   1.408   9.375   1.962 -0.3973 -0.9969 -2.3442
40054SOL    HW230477   1.556   9.360   1.989 -0.7324  1.2660  1.5471
40055SOL     OW30478   4.833   5.507   7.535  0.0443  0.3465  0.1747
40055SOL    HW130479   4.794   5.456   7.463 -2.3094  1.0785  0.8681
40055SOL    HW230480   4.775   5.581   7.546  1.6345  1.4765  1.3793
40056SOL     OW30481  12.802  12.150   4.879  0.0869 -0.0885  0.0902
40056SOL    HW130482  12.797  12.214   4.808  1.5469 -1.6711 -1.5368
40056SOL    HW230483  12.879  12.175   4.930 -0.1599  0.2366  0.3115
40057SOL     OW30484   8.198   2.473  11.076  0.6730  0.0224 -0.0815
40057SOL    HW130485   8.227   2.457  11.166 -0.3690 -1.7287 -0.0261
40057SOL    HW230486   8.166   2.563  11.077  0.1353 -0.1646  1.4597
40058SOL     OW30487   2.511   4.662   0.305  0.1096 -0.2986  0.2398
40058SOL    HW130488   2.508   4.758   0.305 -1.7816 -0.3094 -0.2260
40058SOL    HW230489   2.449   4.636   0.236 -0.3385 -1.8621  1.1788
40059SOL     OW30490   1.298   1.819  12.699  0.0307 -0.2887 -0.0471
40059SOL    HW130491   1.315   1.734  12.739 -0.8684  0.1113  1.2302
40059SOL    HW230492   1.343   1.881  12.756 -1.5087  0.3172  0.5619
40060SOL     OW30493  10.780   3.002  10.534 -0.1136  0.2088 -0.3249
40060SOL    HW130494  10.790   2.925  10.590  0.4352  0.0705 -0.6101
40060SOL    HW230495  10.806   3.076  10.590  2.3310 -0.0981 -0.9262
40061SOL     OW30496   6.772   3.953   5.087  0.1394 -0.0566  0.1162
40061SOL    HW130497   6.861   3.988   5.078 -0.2647  0.6278 -1.7964
40061SOL    HW230498   6.782   3.874   5.139  2.1795 -1.0249 -1.5856
40062SOL     OW30499   0.011   6.607   7.043 -0.6883 -0.1783 -0.1656
40062SOL    HW130500  -0.048   6.682   7.054 -0.7593 -0.2855  0.1987
40062SOL    HW230501  -0.026   6.539   7.099  0.9983  0.4705  1.8681
40063SOL     OW30502   9.583   5.116   3.447 -0.1146 -0.2190 -0.2150
40063SOL    HW130503   9.568   5.084   3.536 -2.3495 -0.6118 -0.6725
40063SOL    HW230504   9.561   5.041   3.391 -0.4647  0.5762 -1.1543
40064SOL     OW30505   3.184   4.175   2.104  0.1136 -0.4044  0.1971
40064SOL    HW130506   3.187   4.183   2.009 -3.3809 -1.9381 -0.1702
40064SOL    HW230507   3.093   4.154   2.124  0.3892  1.2039  4.0471
40065SOL     OW30508   1.450   0.260   1.451  0.0820  0.2675  0.4623
40065SOL    HW130509   1.509   0.192   1.482  1.0003  1.3001  1.0426
40065SOL    HW230510   1.411   0.223   1.372  1.7644 -0.3158 -0.1440
40066SOL     OW30511   1.697  10.582   9.865  0.1390  0.6126 -0.5122
40066SOL    HW130512   1.735  10.612   9.782 -0.1034  0.2945 -0.7416
40066SOL    HW230513   1.702  10.487   9.861 -2.1272  0.4432 -1.2888
40067SOL     OW30514   4.639   7.006   7.538  0.3524  0.8117 -0.8110
40067SOL    HW130515   4.592   6.961   7.467  0.7388  0.2487 -0.7191
40067SOL    HW230516   4.570   7.029   7.601  0.0945  0.7151 -1.0545
40068SOL     OW30517   1.590   6.024   0.252 -0.1499 -0.1683  0.6781
40068SOL    HW130518   1.627   6.086   0.189  0.9943 -1.8719 -0.4316
40068SOL    HW230519   1.495   6.029   0.238  0.0304  0.1500 -0.5784
40069SOL     OW30520   5.970   5.226   6.589 -0.1742  0.1608  0.2664
40069SOL    HW130521   5.914   5.276   6.648  3.1843  3.4765  1.0600
40069SOL    HW230522   5.983   5.282   6.513 -0.3308 -1.8482 -1.3388
40070SOL     OW30523   9.022  12.242   8.412  0.2216  0.5344 -0.3349
40070SOL    HW130524   8.929  12.228   8.425  0.7334 -1.2066  2.2224
40070SOL    HW230525   9.045  12.186   8.339 -0.1123 -2.3039  1.5869
40071SOL     OW30526  11.623   1.274   1.195  0.7325 -0.2479  0.1874
40071SOL    HW130527  11.562   1.269   1.269  1.0291 -0.4021  0.4285
40071SOL    HW230528  11.599   1.353   1.148  0.3503 -0.3059  0.2834
40072SOL     OW30529  11.460  10.557   1.582 -0.7508 -0.2513  0.1713
40072SOL    HW130530  11.501  10.487   1.632 -1.6005 -1.0190 -0.1962
40072SOL    HW230531  11.425  10.515   1.504  0.0790  0.8402 -0.8330
40073SOL     OW30532   0.281   2.376   9.365  0.7066  0.4819 -0.2981
40073SOL    HW130533   0.336   2.454   9.356 -0.4652  1.5419  1.2333
40073SOL    HW230534   0.254   2.376   9.456 -2.2355  0.2899 -1.0780
40074SOL     OW30535   6.869   1.894  12.525  0.2584  0.3441  0.1792
40074SOL    HW130536   6.962   1.870  12.533  0.4335  1.2036  0.8251
40074SOL    HW230537   6.870   1.981  12.485 -0.3182 -0.0378 -0.7035
40075SOL     OW30538  10.287   9.517   4.377  0.3952 -0.1633  0.6718
40075SOL    HW130539  10.260   9.551   4.292 -0.9829 -2.5522  0.0792
40075SOL    HW230540  10.344   9.443   4.357 -1.6387 -2.0964  1.7285
40076SOL     OW30541   5.017   2.490   2.712 -0.4319 -0.5030  0.1816
40076SOL    HW130542   4.982   2.564   2.663 -0.0286  0.1610  0.8681
40076SOL    HW230543   5.112   2.501   2.708 -0.3616 -1.1859 -0.0203
40077SOL     OW30544   5.650   3.541   4.097  0.0109  0.3659 -0.5157
40077SOL    HW130545   5.615   3.558   4.185 -1.8179  0.1242 -1.1586
40077SOL    HW230546   5.744   3.557   4.106  0.0542 -0.7320  1.7633
40078SOL     OW30547   8.327   5.105   7.142  0.4026 -0.2959  0.4603
40078SOL    HW130548   8.404   5.050   7.154  0.0012 -1.2933 -1.1481
40078SOL    HW230549   8.352   5.190   7.177  2.1265 -0.6795  0.2534
40079SOL     OW30550   8.263   4.488   6.187  0.5973 -0.3515  0.2046
40079SOL    HW130551   8.331   4.555   6.201  0.7202 -0.4964  0.2935
40079SOL    HW230552   8.199   4.505   6.257 -0.0077  0.4765 -0.5199
40080SOL     OW30553   7.997   8.186  11.853 -0.9013  0.3177  0.0999
40080SOL    HW130554   7.936   8.121  11.818 -1.0589 -0.1622  1.2520
40080SOL    HW230555   8.036   8.145  11.929 -0.1794  1.1645  0.2031
40081SOL     OW30556   2.921   6.464   9.629  0.0238 -0.1413 -0.6370
40081SOL    HW130557   2.868   6.514   9.690 -0.7636 -1.0131 -0.5757
40081SOL    HW230558   2.999   6.517   9.614 -0.5328  0.8223 -0.1489
40082SOL     OW30559  10.436  10.500   9.907 -0.1789  0.1958  0.4407
40082SOL    HW130560  10.419  10.581   9.956  0.6654  0.5322  0.2093
40082SOL    HW230561  10.361  10.491   9.848 -1.5536 -0.5722  2.2082
40083SOL     OW30562   9.889   8.468   3.160  0.0114 -0.1180 -0.8087
40083SOL    HW130563   9.825   8.454   3.090 -0.2956  0.7066 -0.7121
40083SOL    HW230564   9.970   8.430   3.126 -0.2763 -0.2461 -1.3737
40084SOL     OW30565   7.887   1.530  11.823 -0.3148  0.0385  0.0700
40084SOL    HW130566   7.796   1.500  11.822 -0.0139 -0.9534 -1.7651
40084SOL    HW230567   7.939   1.450  11.814  0.7629  0.5713  1.2686
40085SOL     OW30568   6.200   7.472   1.204  0.0010 -0.2437  0.6394
40085SOL    HW130569   6.246   7.556   1.204  0.9015 -0.7066 -0.7935
40085SOL    HW230570   6.120   7.488   1.154  0.9915 -0.6190 -1.1420
40086SOL     OW30571   0.401   8.663   3.569  0.4848 -0.3408 -0.3441
40086SOL    HW130572   0.337   8.733   3.554  0.3062 -0.6275 -0.9781
40086SOL    HW230573   0.486   8.706   3.563  0.3850 -0.2370 -1.1010
40087SOL     OW30574   3.354  12.370  11.492 -0.3076 -0.1417 -0.9386
40087SOL    HW130575   3.321  12.325  11.414  0.4479  1.5550 -2.3122
40087SOL    HW230576   3.277  12.385  11.546 -0.8235 -1.5342 -1.2508
40088SOL     OW30577   0.186   8.776  11.743  0.4631  0.2831 -0.4125
40088SOL    HW130578   0.097   8.810  11.743  0.4418  0.3397  1.5592
40088SOL    HW230579   0.199   8.742  11.832  3.0441  1.9964 -0.0365
40089SOL     OW30580  11.034   0.190   0.301  0.0169  0.2135 -0.2314
40089SOL    HW130581  11.061   0.247   0.374 -1.4808  0.1146  0.4251
40089SOL    HW230582  11.033   0.102   0.339 -0.4892  0.1263 -0.4458
40090SOL     OW30583   7.570  12.634   3.737  0.0958  0.0330  0.3931
40090SOL    HW130584   7.623  12.625   3.816  0.5923  0.7420  0.1579
40090SOL    HW230585   7.484  12.660   3.769 -0.3366 -1.8017  0.8215
40091SOL     OW30586   4.483  12.567  10.622 -0.2286 -1.0128  0.1907
40091SOL    HW130587   4.546  12.598  10.557  0.2619 -0.4945  0.8983
40091SOL    HW230588   4.536  12.546  10.698 -0.8157 -1.4596  0.4842
40092SOL     OW30589   2.131   7.794   9.771  0.5280 -0.0536  0.8397
40092SOL    HW130590   2.223   7.786   9.797  0.3450 -0.1687  1.4561
40092SOL    HW230591   2.127   7.753   9.684  1.1637  0.4235  0.5757
40093SOL     OW30592   1.249  10.332   8.189  0.3253 -0.1634  0.6954
40093SOL    HW130593   1.323  10.296   8.141 -0.0122  0.8415 -0.6402
40093SOL    HW230594   1.267  10.311   8.281  3.1856  1.5878  0.6646
40094SOL     OW30595  11.484  10.200  10.240 -0.0486  0.0199  0.0759
40094SOL    HW130596  11.504  10.163  10.326  1.6670  0.4863 -0.0869
40094SOL    HW230597  11.429  10.134  10.197  0.4428 -0.9568  0.9150
40095SOL     OW30598  11.932   6.197  11.573 -0.5066 -0.2256  0.1934
40095SOL    HW130599  11.909   6.275  11.523  0.2977  0.2237  0.5078
40095SOL    HW230600  11.852   6.144  11.573 -1.2427  0.8585  0.4644
40096SOL     OW30601   2.154   2.832   3.578  0.3054  0.1123 -0.3343
40096SOL    HW130602   2.066   2.800   3.596 -0.0244  1.2462  0.2061
40096SOL    HW230603   2.144   2.888   3.501  1.1071 -2.0382 -2.0905
40097SOL     OW30604  10.000   8.154   9.289 -0.3402 -0.0639  0.0505
40097SOL    HW130605   9.912   8.182   9.315 -0.9002 -0.7751 -1.0291
40097SOL    HW230606   9.986   8.094   9.216  0.9493 -1.5256  0.9434
40098SOL     OW30607  12.772   6.309   4.564 -0.3213 -0.4153  0.6525
40098SOL    HW130608  12.787   6.397   4.598 -0.2423  0.2447 -0.9715
40098SOL    HW230609  12.690   6.316   4.516  0.7043 -0.6495 -1.2301
40099SOL     OW30610   7.766   8.070   1.029 -0.0935  0.1168 -0.0668
40099SOL    HW130611   7.847   8.065   0.979 -0.1800  1.6071 -0.4016
40099SOL    HW230612   7.750   8.164   1.040  0.5973 -0.0728  3.8853
40100SOL     OW30613  10.394   0.332   2.607  0.0692 -0.1466 -0.3207
40100SOL    HW130614  10.395   0.302   2.517 -0.5538  1.1837 -0.8013
40100SOL    HW230615  10.486   0.335   2.633  0.1426 -2.9020 -0.0431
40101SOL     OW30616   3.172  10.760   2.339 -0.0884  0.2809 -0.5268
40101SOL    HW130617   3.200  10.683   2.388 -0.2705  1.0309  0.7907
40101SOL    HW230618   3.200  10.834   2.393 -3.5112  1.1188  0.3332
40102SOL     OW30619   5.720   8.580   9.312 -0.4953  0.2542  0.3792
40102SOL    HW130620   5.653   8.564   9.246 -3.2793 -1.1454  3.2901
40102SOL    HW230621   5.711   8.673   9.334 -2.1474 -0.0910  1.3055
40103SOL     OW30622   8.243  11.035   9.831  0.3887  0.7285 -0.5687
40103SOL    HW130623   8.271  11.092   9.903 -0.3243  2.1078 -1.3474
40103SOL    HW230624   8.171  10.983   9.868  1.4294 -0.1460  0.3205
40104SOL     OW30625   7.386  12.645   4.587 -0.1228  0.5342  0.4351
40104SOL    HW130626   7.349  12.557   4.574  0.7587  0.3769 -1.4275
40104SOL    HW230627   7.318  12.704   4.555  0.0292  0.3962 -0.1732
40105SOL     OW30628   3.900   4.516   3.765  0.0784 -0.2714  0.3114
40105SOL    HW130629   3.892   4.574   3.841  1.6769  2.1279 -1.2391
40105SOL    HW230630   3.815   4.519   3.722  0.5551  2.2914 -0.6000
40106SOL     OW30631  10.362  12.869   3.080  1.1335  1.1033  0.3481
40106SOL    HW130632  10.456  12.860   3.068  0.8544  0.2720 -1.5242
40106SOL    HW230633  10.338  12.795   3.136  1.6685  1.7509  1.4704
40107SOL     OW30634   9.041   5.659   7.478  0.0162 -0.9467  0.2050
40107SOL    HW130635   9.068   5.712   7.403 -1.4344  1.7476  1.4609
40107SOL    HW230636   9.061   5.569   7.452  0.9734  0.0168 -2.7665
40108SOL     OW30637  12.052   5.237   7.975  0.2522 -0.1296  0.5504
40108SOL    HW130638  12.140   5.240   8.011 -0.1516  1.0283  1.5273
40108SOL    HW230639  12.065   5.243   7.880  1.2703 -1.8739  0.5378
40109SOL     OW30640   2.302   5.221   9.582 -0.1938  0.5360  0.5917
40109SOL    HW130641   2.391   5.198   9.557  0.1783  1.2975  1.1753
40109SOL    HW230642   2.272   5.148   9.636 -0.3403 -0.2485 -0.5222
40110SOL     OW30643   8.118   4.739   4.928 -0.4407  0.4115 -0.8607
40110SOL    HW130644   8.023   4.731   4.915 -0.2672  0.6206 -2.4630
40110SOL    HW230645   8.146   4.652   4.957 -1.0884  0.2799 -0.6137
40111SOL     OW30646   2.791  12.108   0.684  0.0527 -0.1937  0.8072
40111SOL    HW130647   2.860  12.144   0.627 -0.0962 -1.2538 -0.0612
40111SOL    HW230648   2.716  12.095   0.627 -0.3223 -0.6619  1.3947
40112SOL     OW30649  11.220   4.135   5.008  0.2167  0.2303 -0.7915
40112SOL    HW130650  11.263   4.130   5.094 -0.8520  2.3304 -0.0680
40112SOL    HW230651  11.179   4.049   4.997  0.0302  0.0510  1.0049
40113SOL     OW30652   3.252   7.422  12.152  0.2873 -0.1734  0.0308
40113SOL    HW130653   3.283   7.499  12.198 -0.6653  0.6908 -0.7060
40113SOL    HW230654   3.176   7.453  12.102  0.3672 -1.4062 -0.9109
40114SOL     OW30655   8.080  10.676   5.747 -0.6233 -0.2976 -0.1973
40114SOL    HW130656   8.118  10.642   5.828 -2.4156  1.7104  1.5996
40114SOL    HW230657   7.993  10.706   5.772 -1.2796  0.2918 -2.9254
40115SOL     OW30658  12.320   1.895   6.269  0.2871  0.0979 -0.2718
40115SOL    HW130659  12.394   1.955   6.280  0.5945 -0.0015 -1.6671
40115SOL    HW230660  12.243   1.951   6.281  0.5522  0.2237  1.0766
40116SOL     OW30661   4.279   8.613   0.409 -0.8019 -0.7476  0.0329
40116SOL    HW130662   4.321   8.530   0.385 -0.6907 -1.1285  1.4379
40116SOL    HW230663   4.199   8.616   0.357 -1.5558 -2.4601  1.0044
40117SOL     OW30664   7.701   8.659   8.266  0.1051 -0.0518 -0.7515
40117SOL    HW130665   7.620   8.687   8.307 -0.0321  0.2219 -1.2059
40117SOL    HW230666   7.751   8.619   8.337 -0.5912 -0.5855 -0.5513
40118SOL     OW30667   4.847  10.928   6.039 -0.7483 -0.2151 -0.7708
40118SOL    HW130668   4.815  10.838   6.035 -2.0462  0.2380 -1.3104
40118SOL    HW230669   4.780  10.975   6.090  1.7970 -0.2624  3.0592
40119SOL     OW30670   2.302   6.072  12.110  0.4689 -0.2547 -0.2135
40119SOL    HW130671   2.219   6.118  12.097 -0.0357 -0.3212  2.2457
40119SOL    HW230672   2.278   5.993  12.159  1.7370 -1.4478 -1.4272
40120SOL     OW30673  10.570   3.142   6.200  0.0190 -0.3427  0.5722
40120SOL    HW130674  10.563   3.167   6.108  0.2849  0.5529  0.7815
40120SOL    HW230675  10.612   3.056   6.199  0.8296  0.0490 -0.1046
40121SOL     OW30676  11.310   1.567   9.179  0.2445  0.0688 -0.2438
40121SOL    HW130677  11.317   1.642   9.238  0.9015  0.3430 -0.6516
40121SOL    HW230678  11.272   1.497   9.232 -0.7700  0.8149  0.0221
40122SOL     OW30679   5.686   3.277   6.953 -0.1997 -0.3203  0.4145
40122SOL    HW130680   5.781   3.269   6.944 -0.0614 -0.1303  1.4655
40122SOL    HW230681   5.668   3.248   7.043 -0.8135  1.9120  1.0838
40123SOL     OW30682   7.312   8.669   3.913 -0.3250  0.1787  0.1922
40123SOL    HW130683   7.325   8.657   3.819  0.4824  0.9662  0.1889
40123SOL    HW230684   7.331   8.762   3.928 -2.4933  0.5936  0.8109
40124SOL     OW30685   5.092   1.917   3.732 -0.5463  0.5361  0.1693
40124SOL    HW130686   5.063   1.926   3.641  1.7321  1.4200 -0.5486
40124SOL    HW230687   5.021   1.953   3.784 -2.8840 -1.9478 -1.0389
40125SOL     OW30688   4.347   7.949   6.801  0.0062 -1.0057 -0.8940
40125SOL    HW130689   4.394   7.888   6.859  0.6876 -0.1969 -0.5763
40125SOL    HW230690   4.277   7.985   6.855 -0.5306 -1.6464 -1.1450
40126SOL     OW30691   9.677   6.910   2.616  0.1464 -0.0236 -0.5454
40126SOL    HW130692   9.602   6.970   2.624  0.4305  0.5916 -2.1069
40126SOL    HW230693   9.680   6.889   2.523 -1.1259 -4.0641  0.1211
40127SOL     OW30694  10.490   5.163  10.150 -0.6380  0.4747  0.5364
40127SOL    HW130695  10.439   5.092  10.110 -0.1493  0.4850 -0.1093
40127SOL    HW230696  10.474   5.238  10.093  0.1103  0.4715  0.3158
40128SOL     OW30697   5.093   7.781  12.532 -0.1834  0.4544  0.1947
40128SOL    HW130698   5.002   7.750  12.535 -0.2325  0.5572 -0.2581
40128SOL    HW230699   5.145   7.700  12.529 -0.3331  0.3827 -1.6186
40129SOL     OW30700   7.666   4.400  10.407  0.7274 -0.4284 -0.5136
40129SOL    HW130701   7.618   4.482  10.419 -2.4844 -2.0101 -1.2810
40129SOL    HW230702   7.671   4.390  10.312  2.6245 -0.3804 -0.4568
40130SOL     OW30703   1.260   2.373   4.230  0.7852 -0.0017 -0.1048
40130SOL    HW130704   1.218   2.294   4.195  0.1072  0.5037 -0.4758
40130SOL    HW230705   1.297   2.346   4.314  0.3605 -0.6575 -0.1216
40131SOL     OW30706   0.764  11.933   8.690 -0.1234 -0.0894 -0.2948
40131SOL    HW130707   0.853  11.920   8.659  0.3685  0.0661  0.9725
40131SOL    HW230708   0.748  11.860   8.749 -0.7981 -0.0556 -0.4279
40132SOL     OW30709   5.222   0.761   0.325  0.7314  0.0198 -0.6193
40132SOL    HW130710   5.232   0.667   0.337 -1.4265 -0.3384 -1.2300
40132SOL    HW230711   5.206   0.772   0.231  1.0255  1.0107 -0.5658
40133SOL     OW30712   1.763   5.256  10.799 -0.0676  0.0231  0.4031
40133SOL    HW130713   1.693   5.223  10.855 -0.4114  1.6171  0.9807
40133SOL    HW230714   1.736   5.232  10.710 -2.0600  1.7096  0.4676
40134SOL     OW30715   5.931  11.625   6.302 -0.0865  0.2440  0.3275
40134SOL    HW130716   5.911  11.563   6.372  0.6949 -0.9838 -0.5129
40134SOL    HW230717   6.026  11.625   6.295 -0.1588  0.1037 -0.9314
40135SOL     OW30718   4.566  11.031   2.962  0.4910  0.2125  0.0027
40135SOL    HW130719   4.640  10.995   3.011  0.6460  1.7840  1.0126
40135SOL    HW230720   4.491  10.978   2.988  0.8820 -0.0518  0.6176
40136SOL     OW30721   2.484   4.415   9.966  0.2754 -0.0037  0.3834
40136SOL    HW130722   2.534   4.489   9.931  0.5645  0.4216  1.6407
40136SOL    HW230723   2.477   4.354   9.893  0.2897  1.1358 -0.5952
40137SOL     OW30724   9.726   1.091   5.460  0.1108 -0.9401 -0.1631
40137SOL    HW130725   9.680   1.168   5.429 -0.2673 -1.4026 -0.7624
40137SOL    HW230726   9.815   1.122   5.480 -0.3137 -0.1484  0.5535
40138SOL     OW30727   9.853   5.548   6.917 -0.1811  0.0181 -0.3618
40138SOL    HW130728   9.807   5.468   6.940  0.0732 -0.5097 -1.5839
40138SOL    HW230729   9.942   5.519   6.893  0.0314  0.7020 -0.4489
40139SOL     OW30730   8.440   2.538   5.397  0.0825  0.8164 -0.3794
40139SOL    HW130731   8.512   2.479   5.374 -1.3341 -1.5282  0.8767
40139SOL    HW230732   8.402   2.563   5.313  0.6408 -0.1865 -0.9515
40140SOL     OW30733   0.975  10.975   5.179  0.2052 -0.0850 -0.0383
40140SOL    HW130734   1.047  10.999   5.238 -0.5876  0.2184  0.8471
40140SOL    HW230735   0.896  10.988   5.232 -0.4386 -1.6384 -0.5543
40141SOL     OW30736   5.968   1.317   7.930  0.0753 -0.1576  0.1658
40141SOL    HW130737   5.880   1.342   7.900  0.8726  0.7868 -1.5380
40141SOL    HW230738   5.966   1.221   7.933 -1.6180 -0.1236  2.2269
40142SOL     OW30739   5.306   4.815   8.592  0.0806 -0.1017  0.4443
40142SOL    HW130740   5.255   4.747   8.636 -2.2746  0.6139 -0.9867
40142SOL    HW230741   5.260   4.830   8.510  0.6091  3.0368  0.5947
40143SOL     OW30742   0.353   2.757  10.795 -0.3430 -0.3447  0.3388
40143SOL    HW130743   0.419   2.805  10.844 -0.3814 -0.6625  0.7068
40143SOL    HW230744   0.372   2.775  10.703 -1.5459  2.0009  0.4749
40144SOL     OW30745   9.105   0.914   3.676 -0.1449  0.0654  0.4062
40144SOL    HW130746   9.198   0.929   3.660 -0.8146  1.0687 -3.6403
40144SOL    HW230747   9.093   0.820   3.660  0.1779 -0.1625  1.3991
40145SOL     OW30748   2.627   9.845   1.436 -0.1308  0.3212  0.2557
40145SOL    HW130749   2.701   9.792   1.407  1.2666  2.9902 -1.5028
40145SOL    HW230750   2.550   9.802   1.398  0.9361 -0.4464 -1.1240
40146SOL     OW30751   7.438   3.195   0.125  0.0367  0.2989 -0.1674
40146SOL    HW130752   7.491   3.274   0.136  0.7343 -0.0341 -1.0372
40146SOL    HW230753   7.359   3.226   0.080  0.1821  0.5456 -0.2534
40147SOL     OW30754   4.660   0.666   6.604 -0.2000  0.2299  0.5578
40147SOL    HW130755   4.664   0.572   6.626  0.5984 -0.0955 -0.8424
40147SOL    HW230756   4.589   0.673   6.541  0.0977  0.4713  0.2470
40148SOL     OW30757  11.915  12.780  12.082 -0.0966 -0.8734  0.1648
40148SOL    HW130758  11.921  12.767  11.987 -0.3532  0.5623 -0.0714
40148SOL    HW230759  11.824  12.807  12.096 -0.1728 -1.4828  0.8872
40149SOL     OW30760  12.927   2.389   1.417  0.2168 -0.4283  0.3314
40149SOL    HW130761  12.836   2.366   1.436  0.3178 -0.9149  0.2402
40149SOL    HW230762  12.969   2.394   1.503  0.2260 -0.7117  0.3415
40150SOL     OW30763  10.821   2.745   2.884  0.0542  0.0895  0.4235
40150SOL    HW130764  10.804   2.800   2.807  1.3042  0.2916  0.2669
40150SOL    HW230765  10.903   2.701   2.864 -0.8701 -1.7883  0.5999
40151SOL     OW30766   3.026   3.911  10.625 -0.0464 -0.2223  0.0921
40151SOL    HW130767   2.956   3.864  10.580  0.1988  0.7399 -1.3727
40151SOL    HW230768   2.989   3.932  10.711 -0.1858 -2.9416  0.7952
40152SOL     OW30769   3.752   0.890   6.411 -0.2386 -0.2177 -0.1400
40152SOL    HW130770   3.788   0.885   6.322  0.1228 -0.7918  0.0373
40152SOL    HW230771   3.668   0.845   6.406  0.9203 -2.5738  0.3802
40153SOL     OW30772   9.682  10.959   9.364 -0.5840  0.2178 -0.0183
40153SOL    HW130773   9.750  11.024   9.382 -0.5438 -0.2387  1.6182
40153SOL    HW230774   9.661  10.972   9.272  2.1095  0.0123 -0.7473
40154SOL     OW30775   1.409   3.306   3.715  0.6956  0.3156 -0.0893
40154SOL    HW130776   1.380   3.305   3.806  1.0731  0.3316  0.0322
40154SOL    HW230777   1.504   3.316   3.720  0.9468 -1.5236 -0.4330
40155SOL     OW30778   2.654   7.514   9.463 -0.1938 -0.2440 -0.0520
40155SOL    HW130779   2.681   7.587   9.407  1.1538 -1.8912 -1.6887
40155SOL    HW230780   2.731   7.494   9.516 -0.5492 -0.4545  0.3864
40156SOL     OW30781   0.234   5.300   0.693  0.3238  0.1553 -0.1457
40156SOL    HW130782   0.185   5.224   0.663  0.9987 -0.7384  0.9734
40156SOL    HW230783   0.325   5.273   0.692  0.5559  0.8666  0.5046
40157SOL     OW30784   5.270   2.108   8.868 -0.0640  0.0807  0.4942
40157SOL    HW130785   5.348   2.061   8.896 -0.8753 -1.4754  0.2523
40157SOL    HW230786   5.234   2.146   8.948  1.1903  1.2329  0.5340
40158SOL     OW30787   0.452  10.815   1.494 -0.1956 -0.1736 -0.0129
40158SOL    HW130788   0.508  10.777   1.563  0.3890  1.1345  0.2550
40158SOL    HW230789   0.465  10.756   1.419  3.1493  1.0873 -0.6149
40159SOL     OW30790   4.344   3.662   3.500  0.1379  0.1938  0.6880
40159SOL    HW130791   4.392   3.670   3.583  1.3197  2.7393 -0.1440
40159SOL    HW230792   4.330   3.752   3.471 -4.0142 -0.4368  0.1213
40160SOL     OW30793   2.114   4.687   5.040 -0.3103  0.6363 -0.0851
40160SOL    HW130794   2.059   4.676   4.962  0.1083 -2.0592 -0.0972
40160SOL    HW230795   2.171   4.761   5.019  0.2878 -0.4539 -2.6650
40161SOL     OW30796   2.380   7.426   3.939 -0.6422  0.2299  0.2172
40161SOL    HW130797   2.301   7.472   3.912  0.6607  1.7222 -1.3052
40161SOL    HW230798   2.406   7.375   3.861  1.3029  1.8796 -0.3036
40162SOL     OW30799   5.658   6.558   8.756  0.0618 -0.1692 -0.1111
40162SOL    HW130800   5.679   6.621   8.826 -0.2859  1.4737 -1.4085
40162SOL    HW230801   5.726   6.573   8.690  0.1135 -1.3593 -0.3363
40163SOL     OW30802   8.591  10.985   6.266 -0.1064  0.1200  0.7140
40163SOL    HW130803   8.656  11.045   6.228 -0.0609  0.3907  1.2143
40163SOL    HW230804   8.520  10.983   6.202  1.0689 -1.4298 -0.6376
40164SOL     OW30805   2.842   0.293   6.596  0.1184 -0.3947 -0.1937
40164SOL    HW130806   2.759   0.333   6.571 -0.4239 -0.9476  0.6436
40164SOL    HW230807   2.868   0.240   6.521 -0.6928 -0.8351 -0.1662
40165SOL     OW30808   2.553   4.510   8.201 -0.1411 -0.4610 -0.0216
40165SOL    HW130809   2.597   4.498   8.286 -0.0651 -2.3287 -0.2735
40165SOL    HW230810   2.530   4.421   8.174 -2.1333  0.2779 -0.9491
40166SOL     OW30811   0.239   1.660   3.540  0.5096  0.7234  0.0695
40166SOL    HW130812   0.320   1.625   3.577  0.0939  0.2912  0.5855
40166SOL    HW230813   0.225   1.608   3.461 -0.0347 -0.2177  0.7617
40167SOL     OW30814   0.906  10.380   7.917 -0.1867  0.3854 -0.4145
40167SOL    HW130815   0.878  10.423   7.836 -2.0524  1.5851  0.7729
40167SOL    HW230816   0.920  10.453   7.978  1.8743 -0.4496  0.1893
40168SOL     OW30817  11.364   9.559   1.415  0.0645 -0.2145  0.5086
40168SOL    HW130818  11.444   9.565   1.468  0.2195 -0.5640  0.3161
40168SOL    HW230819  11.374   9.477   1.366 -0.3515 -0.1925  0.3851
40169SOL     OW30820   1.011   3.753   1.584 -0.0979 -0.1026 -0.0401
40169SOL    HW130821   0.925   3.746   1.543 -0.7508  2.9057  0.5819
40169SOL    HW230822   1.072   3.758   1.510 -0.5552 -1.0378 -0.4991
40170SOL     OW30823  11.633   2.742   8.051 -0.1273  0.1346 -0.0502
40170SOL    HW130824  11.593   2.656   8.060  2.5307 -1.0736  1.2950
40170SOL    HW230825  11.688   2.735   7.974  1.1621  0.1132  0.8406
40171SOL     OW30826  10.840   4.821  10.833 -0.6784 -0.1753  0.6099
40171SOL    HW130827  10.870   4.737  10.869 -0.6089  0.2737  1.6136
40171SOL    HW230828  10.919   4.873  10.825 -0.8146  0.0295  0.6033
40172SOL     OW30829   8.455   9.284   8.968  0.3436  0.9505  0.4196
40172SOL    HW130830   8.366   9.318   8.973  0.7329  1.8411  1.6622
40172SOL    HW230831   8.453   9.204   9.020 -0.0062  0.3200 -0.5456
40173SOL     OW30832   6.114   8.101   8.559 -0.4521 -0.3701 -0.1819
40173SOL    HW130833   6.095   8.099   8.653 -0.0462  0.3555 -0.0699
40173SOL    HW230834   6.168   8.180   8.548 -0.4963 -0.4520 -1.0253
40174SOL     OW30835   8.826   1.514   7.313  0.0030 -0.3604 -0.1881
40174SOL    HW130836   8.845   1.528   7.405  1.0150 -0.0919 -0.4262
40174SOL    HW230837   8.780   1.593   7.285  0.4862 -0.0533 -0.1219
40175SOL     OW30838   4.591  11.395   7.508 -0.6095 -0.1149 -0.0647
40175SOL    HW130839   4.648  11.436   7.573 -0.7511  0.5027 -0.3190
40175SOL    HW230840   4.502  11.412   7.541 -0.7206  1.1723 -0.9676
40176SOL     OW30841   7.823   9.717   9.726 -0.5322  0.0151  0.1041
40176SOL    HW130842   7.755   9.749   9.667 -0.9230  1.7020  1.3719
40176SOL    HW230843   7.777   9.659   9.786 -1.0009  1.4446  1.1923
40177SOL     OW30844  11.515   7.238   7.132  0.2170  0.7203 -0.3074
40177SOL    HW130845  11.421   7.228   7.149 -0.1444  3.1546 -0.4926
40177SOL    HW230846  11.541   7.312   7.187  2.1251 -0.1189 -0.0228
40178SOL     OW30847  10.339   9.146  10.487 -0.8932  0.2783 -0.3697
40178SOL    HW130848  10.296   9.229  10.464 -0.5494  0.4358 -0.4530
40178SOL    HW230849  10.425   9.173  10.518  0.1393 -0.2011 -2.6676
40179SOL     OW30850   4.249   4.753   6.226 -0.2984  0.3064 -0.2254
40179SOL    HW130851   4.207   4.667   6.213  0.1805  0.0183  0.0998
40179SOL    HW230852   4.218   4.782   6.311  0.5153 -0.1230  0.2301
40180SOL     OW30853   3.867  10.164   2.575  0.0962 -0.0485 -0.1877
40180SOL    HW130854   3.796  10.113   2.536 -0.1618 -1.3224  1.8231
40180SOL    HW230855   3.823  10.234   2.622  0.4227  1.6854 -2.2644
40181SOL     OW30856   2.888   5.388  12.194  0.0092 -0.0379 -0.1371
40181SOL    HW130857   2.966   5.435  12.225 -0.4991  0.3918  0.5357
40181SOL    HW230858   2.815   5.431  12.240 -0.5949 -0.6226 -0.5358
40182SOL     OW30859   1.528   0.494   1.892  0.0031  0.1591 -0.0817
40182SOL    HW130860   1.540   0.446   1.810 -1.1155  0.7997 -0.6543
40182SOL    HW230861   1.539   0.428   1.960 -1.9108 -1.0601 -0.8568
40183SOL     OW30862   6.773   0.023   4.324 -0.4783  0.3991  0.2399
40183SOL    HW130863   6.806   0.035   4.235  3.2420  0.8258  1.4794
40183SOL    HW230864   6.711   0.095   4.336 -1.1903  0.2478 -2.0093
40184SOL     OW30865   5.034   8.933   1.149  0.5932  0.6492  0.4580
40184SOL    HW130866   4.986   8.904   1.227 -1.4155  0.7004 -0.6869
40184SOL    HW230867   5.089   9.005   1.181  2.6020 -1.6045  2.4988
40185SOL     OW30868   3.398   9.619   3.292  0.2640  0.2226 -0.1649
40185SOL    HW130869   3.440   9.662   3.217  0.0367 -0.5496 -0.7531
40185SOL    HW230870   3.320   9.578   3.255  0.7627 -1.1462  0.2613
40186SOL     OW30871   6.227   3.898   8.737  0.0914 -0.5227  0.3046
40186SOL    HW130872   6.172   3.972   8.710  2.2597  1.1075  0.1387
40186SOL    HW230873   6.222   3.898   8.832 -0.0046 -0.2116  0.3023
40187SOL     OW30874  12.551   9.318   4.578  0.2716  0.2737 -1.0065
40187SOL    HW130875  12.624   9.378   4.565  0.5441  0.2245  0.1846
40187SOL    HW230876  12.593   9.235   4.604 -0.0635 -0.6178 -3.1062
40188SOL     OW30877   9.763   8.380   0.928 -0.4594 -0.6383 -0.1051
40188SOL    HW130878   9.855   8.390   0.950 -0.4004 -2.2396  0.4836
40188SOL    HW230879   9.734   8.469   0.904  1.3297 -0.2095 -0.8086
40189SOL     OW30880  11.908  10.928   0.535  0.3212  0.0452  0.1505
40189SOL    HW130881  11.984  10.872   0.547  1.2120  1.3173  0.7824
40189SOL    HW230882  11.875  10.943   0.624  0.3953  0.8655  0.0549
40190SOL     OW30883  12.681   1.008   8.917  0.5216 -0.1557  0.5254
40190SOL    HW130884  12.703   1.100   8.928  0.4578 -0.1887  0.9729
40190SOL    HW230885  12.635   1.003   8.833 -1.8920  0.6683  1.7247
40191SOL     OW30886   7.552   6.557   2.707  0.3249 -0.3104 -0.4995
40191SOL    HW130887   7.593   6.557   2.793  0.5825 -1.9849 -0.5958
40191SOL    HW230888   7.621   6.528   2.647 -0.0261  0.2297 -1.1888
40192SOL     OW30889   9.818  11.923   6.142 -0.0626 -0.0582  0.1853
40192SOL    HW130890   9.849  11.843   6.183  0.8714  0.8343  1.2699
40192SOL    HW230891   9.734  11.941   6.185  0.2019  0.0692  0.6584
40193SOL     OW30892   0.575  10.306  11.817  1.0009  0.3415 -0.0860
40193SOL    HW130893   0.624  10.320  11.736  1.7393 -0.3904  0.2096
40193SOL    HW230894   0.621  10.233  11.860  0.3215  0.3867  0.7473
40194SOL     OW30895  11.199   1.482  12.928 -0.5678 -0.1652 -0.3186
40194SOL    HW130896  11.283   1.436  12.933 -0.1177  0.3296 -2.4775
40194SOL    HW230897  11.174   1.495  13.020  1.8805 -0.0121  0.4064
40195SOL     OW30898   1.322  12.946   3.337  0.3379 -0.2219  0.1518
40195SOL    HW130899   1.417  12.945   3.323  0.5443 -3.0433  0.9740
40195SOL    HW230900   1.312  12.934   3.431 -0.8328 -0.3312  0.0244
40196SOL     OW30901   7.789  12.641   9.469  0.2695  0.1791 -0.2611
40196SOL    HW130902   7.730  12.712   9.494 -0.1586 -0.7295  1.4811
40196SOL    HW230903   7.864  12.650   9.528 -0.4737 -1.6519  1.0899
40197SOL     OW30904   0.272   3.241   6.637  0.0478 -0.5611 -0.1350
40197SOL    HW130905   0.195   3.295   6.619 -0.7248 -1.5808  0.0636
40197SOL    HW230906   0.301   3.268   6.724  0.7882  0.8260 -0.7766
40198SOL     OW30907  10.469   6.281   2.561 -0.0046  0.6257  0.2686
40198SOL    HW130908  10.384   6.293   2.517 -0.7144  0.5779  1.5786
40198SOL    HW230909  10.463   6.194   2.600  0.4379  0.8329  0.8102
40199SOL     OW30910  12.705  12.027   6.232 -0.4794  0.0929 -0.9654
40199SOL    HW130911  12.734  12.096   6.173 -0.9267  1.4283  0.3044
40199SOL    HW230912  12.636  11.981   6.184 -1.2192  1.4946 -1.2911
40200SOL     OW30913   3.214   3.134   5.433 -0.2081  0.5086 -0.3087
40200SOL    HW130914   3.177   3.207   5.483 -0.5800 -0.5636  1.0491
40200SOL    HW230915   3.198   3.157   5.342 -2.0556  1.2315  0.1476
40201SOL     OW30916   4.900   1.590   0.979 -0.4251 -0.2640  0.7463
40201SOL    HW130917   4.902   1.523   0.911 -1.0616  0.6697 -0.2276
40201SOL    HW230918   4.843   1.554   1.047 -0.4437 -0.8654  0.4128
40202SOL     OW30919  12.419   1.883   3.771 -0.0037 -0.2011  0.0726
40202SOL    HW130920  12.487   1.933   3.815  0.8255 -0.4989 -0.8429
40202SOL    HW230921  12.459   1.854   3.689 -1.0810 -0.7708 -0.2747
40203SOL     OW30922   8.903   2.229   7.068  0.2269 -0.8534 -0.6763
40203SOL    HW130923   8.852   2.222   6.988 -1.9014  2.1759  0.2420
40203SOL    HW230924   8.861   2.168   7.129 -0.1681 -0.8319 -0.9248
40204SOL     OW30925   3.229   3.639   1.179 -0.0635  0.3596  0.6321
40204SOL    HW130926   3.155   3.606   1.127  0.1599 -0.2960  0.7198
40204SOL    HW230927   3.188   3.682   1.254 -0.3871  1.2546 -0.0471
40205SOL     OW30928   1.775   3.062  12.400 -0.4175  0.2033  0.3617
40205SOL    HW130929   1.838   2.991  12.411 -0.9095 -0.2817  0.1097
40205SOL    HW230930   1.704   3.040  12.459 -2.0289 -1.2123 -1.9265
40206SOL     OW30931   8.041   3.892   1.748  0.0140 -0.2394 -0.4329
40206SOL    HW130932   8.081   3.919   1.831 -1.1583 -1.8295  0.7078
40206SOL    HW230933   7.948   3.913   1.758  0.1038  1.2461 -2.1202
40207SOL     OW30934   6.792  11.603  10.623  0.2492 -0.2756 -0.0580
40207SOL    HW130935   6.790  11.507  10.624  0.3105 -0.2727  0.3925
40207SOL    HW230936   6.700  11.629  10.620  0.2039 -0.3433  0.6080
40208SOL     OW30937  11.994   6.704   2.292  0.1539  0.4684  0.2535
40208SOL    HW130938  11.945   6.692   2.211  0.8803 -0.8485 -0.0155
40208SOL    HW230939  12.077   6.658   2.278  0.5289  0.6918  1.5402
40209SOL     OW30940   7.048  12.530   8.717 -0.1622  0.5724  0.5426
40209SOL    HW130941   6.981  12.502   8.780  0.0734  0.4254  0.7269
40209SOL    HW230942   7.102  12.453   8.703 -0.1659  0.6295  0.2208
40210SOL     OW30943   8.470   9.866   7.258 -0.2889  0.5482 -0.2623
40210SOL    HW130944   8.533   9.884   7.188  0.4793 -0.5244  0.1129
40210SOL    HW230945   8.399   9.819   7.214 -1.1650  2.2838 -0.7985
40211SOL     OW30946   6.317  12.540  10.737 -0.2923 -0.6097  0.1863
40211SOL    HW130947   6.282  12.507  10.655 -0.4395 -1.1485  0.4571
40211SOL    HW230948   6.394  12.485  10.754  0.9740  0.8276 -0.6158
40212SOL     OW30949   8.614  11.722   8.621  0.5120 -0.4438 -0.3379
40212SOL    HW130950   8.619  11.773   8.540 -1.7150  0.8096  0.2308
40212SOL    HW230951   8.592  11.786   8.688 -1.4962 -1.9591  0.5746
40213SOL     OW30952  11.554   3.172   0.827  0.0078  0.1577 -0.0887
40213SOL    HW130953  11.517   3.171   0.915 -2.0537  2.1191 -0.8211
40213SOL    HW230954  11.589   3.260   0.817 -1.3515  0.5828 -1.7424
40214SOL     OW30955  11.868  10.072   6.251 -0.5781 -0.5815 -0.4400
40214SOL    HW130956  11.930  10.021   6.198  0.9784 -0.2843  1.0010
40214SOL    HW230957  11.860  10.022   6.332  2.3418  2.1294  1.7441
40215SOL     OW30958   3.107   5.238   0.038  0.0823  0.3573  0.5857
40215SOL    HW130959   3.079   5.204  -0.047  1.7121  1.6894 -0.5390
40215SOL    HW230960   3.032   5.223   0.095 -1.5972  0.6484 -1.4087
40216SOL     OW30961  11.407  12.040   3.065 -0.4378  0.1061  0.0580
40216SOL    HW130962  11.487  12.091   3.078 -0.6841  0.2639  0.9847
40216SOL    HW230963  11.437  11.960   3.020  0.2080  0.2595  0.2027
40217SOL     OW30964  11.316   5.708  11.626 -0.6896  0.0295  0.1488
40217SOL    HW130965  11.296   5.743  11.539 -1.6197  0.4637  0.5293
40217SOL    HW230966  11.317   5.613  11.614 -1.8315  0.0441 -0.1346
40218SOL     OW30967   4.786   0.312  12.911  0.3811 -0.4195  0.0848
40218SOL    HW130968   4.826   0.369  12.976 -0.2567 -1.0968  1.1020
40218SOL    HW230969   4.727   0.370  12.861 -1.6269 -0.4304  2.2547
40219SOL     OW30970  11.325  11.615  12.883  0.4714 -0.8758 -0.2943
40219SOL    HW130971  11.361  11.638  12.968  0.6897  0.2532 -0.6804
40219SOL    HW230972  11.230  11.614  12.897  0.3779  1.2395 -0.4610
40220SOL     OW30973   6.912   8.118  11.392 -0.4358 -0.1454 -0.3156
40220SOL    HW130974   6.858   8.112  11.313  0.1905 -0.6681 -0.7161
40220SOL    HW230975   6.857   8.163  11.456 -0.0643  2.6809 -1.8423
40221SOL     OW30976   6.641   6.420   4.443 -0.2149  0.2813 -0.6294
40221SOL    HW130977   6.647   6.437   4.349 -0.2286  1.3019 -0.4631
40221SOL    HW230978   6.731   6.423   4.474 -0.0896 -1.1991 -0.7713
40222SOL     OW30979   0.737   3.192   1.926 -0.5222  0.5242 -0.5838
40222SOL    HW130980   0.713   3.100   1.915  2.0700 -0.1596 -1.2340
40222SOL    HW230981   0.771   3.198   2.016 -0.9083  0.8990 -0.4612
40223SOL     OW30982   8.037   1.364   2.657 -0.4625  0.5123 -0.2992
40223SOL    HW130983   8.029   1.400   2.745 -2.4014 -0.1556 -0.1558
40223SOL    HW230984   8.092   1.426   2.610  2.4914 -0.2179  1.9319
40224SOL     OW30985   5.531  12.185  12.787 -0.0768 -0.6207  0.5338
40224SOL    HW130986   5.587  12.216  12.858  1.4560 -1.4760 -0.2564
40224SOL    HW230987   5.444  12.217  12.810  0.8451  1.4965  1.3724
40225SOL     OW30988   8.471   8.782   8.772  0.3468  0.1370 -0.8380
40225SOL    HW130989   8.508   8.707   8.819 -1.5979 -1.6846 -2.0328
40225SOL    HW230990   8.404   8.817   8.831 -0.1236 -0.3626 -1.0611
40226SOL     OW30991   4.581  12.945   5.291  0.1981  0.6499  0.5470
40226SOL    HW130992   4.513  12.887   5.255 -0.0252 -0.5244  2.6657
40226SOL    HW230993   4.647  12.951   5.222 -2.2844  2.3767 -1.8763
40227SOL     OW30994   0.639  12.718   0.886 -0.1109 -0.2876  0.1742
40227SOL    HW130995   0.696  12.642   0.877 -1.6783 -1.4704 -0.2942
40227SOL    HW230996   0.670  12.779   0.819  0.6652 -0.8533  0.0082
40228SOL     OW30997   2.103   7.353   5.508  0.9965 -0.1111 -0.2533
40228SOL    HW130998   2.115   7.434   5.558 -2.6879  0.4629  0.0006
40228SOL    HW230999   2.096   7.284   5.575  0.7021 -0.0930 -0.2662
40229SOL     OW31000   8.390   8.621   6.746 -0.2913 -0.0667 -0.5196
40229SOL    HW131001   8.402   8.556   6.815  2.4373  2.5314  1.7603
40229SOL    HW231002   8.469   8.613   6.692 -0.5011  0.5603 -0.9291
40230SOL     OW31003   3.683  10.619  12.712 -0.4361  0.8387  0.0310
40230SOL    HW131004   3.669  10.689  12.649  0.6847  0.0632 -1.1099
40230SOL    HW231005   3.716  10.664  12.790 -0.0950  1.6268 -0.5501
40231SOL     OW31006  10.154  12.372  10.805 -0.1598  0.2752 -0.3240
40231SOL    HW131007  10.183  12.362  10.895  1.0614 -0.7619 -0.8005
40231SOL    HW231008  10.233  12.361  10.752 -1.1810 -1.4135 -1.6254
40232SOL     OW31009   8.659   0.641  12.976  0.0426  0.2295  0.0886
40232SOL    HW131010   8.740   0.610  12.936  0.0400  0.1293  0.1597
40232SOL    HW231011   8.688   0.684  13.057  0.0717  0.6642 -0.1501
40233SOL     OW31012   4.986  10.262  11.654  0.2834 -0.6427  0.6722
40233SOL    HW131013   4.919  10.327  11.631 -0.8411 -2.0604 -0.2630
40233SOL    HW231014   5.054  10.273  11.587  0.6575  0.3131  1.1927
40234SOL     OW31015  10.287  12.758   0.237 -0.1600 -0.1361  0.6271
40234SOL    HW131016  10.317  12.747   0.327  1.8252 -0.4390 -0.0232
40234SOL    HW231017  10.286  12.853   0.224  0.8309 -0.1271  0.5779
40235SOL     OW31018  11.323   3.963   9.685  0.1755  0.5314  0.5720
40235SOL    HW131019  11.283   3.988   9.601 -0.3736 -0.3537  0.5608
40235SOL    HW231020  11.333   3.868   9.680 -0.7440  0.3400  1.8703
40236SOL     OW31021   6.086   1.060   0.931  0.9418  0.8018 -0.2654
40236SOL    HW131022   6.037   0.978   0.932  1.0130  0.7650  0.3251
40236SOL    HW231023   6.024   1.125   0.897  0.2653  0.8904  1.0839
40237SOL     OW31024  10.956   9.032   5.641 -0.0165  0.1012 -0.4731
40237SOL    HW131025  11.006   8.953   5.621  0.9629  0.2791  1.1133
40237SOL    HW231026  10.889   9.003   5.704 -0.7437  0.2246 -1.1707
40238SOL     OW31027   1.037   9.724   7.829  0.1511  0.7245  0.3492
40238SOL    HW131028   1.088   9.752   7.905  1.9745  1.4283 -1.0542
40238SOL    HW231029   1.010   9.805   7.786  2.7020  0.5058 -1.9606
40239SOL     OW31030   2.005   7.156   0.433 -0.0996  0.0893  0.7315
40239SOL    HW131031   2.019   7.062   0.422  1.9480  0.6525 -3.0426
40239SOL    HW231032   1.942   7.179   0.365  0.3777  1.6373  0.7790
40240SOL     OW31033  12.075  10.921   2.758  0.1642 -0.1634  0.2080
40240SOL    HW131034  12.101  10.848   2.814 -0.4429 -0.9023 -0.4578
40240SOL    HW231035  12.016  10.883   2.694 -0.3770  0.9666  0.0034
40241SOL     OW31036   0.004   8.959   9.935 -0.2039 -0.2329  0.2043
40241SOL    HW131037  -0.046   9.012   9.873  0.9791 -0.5548 -1.0717
40241SOL    HW231038  -0.062   8.919   9.992 -1.2452  0.9183 -0.1613
40242SOL     OW31039   3.583   3.304   9.178  0.1657 -0.2090  0.0484
40242SOL    HW131040   3.586   3.381   9.234  0.2333  0.5662 -0.9854
40242SOL    HW231041   3.667   3.261   9.191  0.3202  0.1598  0.2723
40243SOL     OW31042   4.308   7.892   8.981 -0.2432 -0.2860  0.2762
40243SOL    HW131043   4.323   7.818   9.041  0.0588 -0.9343 -0.5840
40243SOL    HW231044   4.396   7.916   8.951 -0.3029  0.6983  0.8543
40244SOL     OW31045   6.205   1.979  12.773 -0.4433 -0.6212  0.9620
40244SOL    HW131046   6.286   1.989  12.822  0.2544 -0.4295 -0.2012
40244SOL    HW231047   6.227   1.921  12.700 -0.3724  2.1123 -1.3687
40245SOL     OW31048   9.569   8.824  12.437 -0.4803  0.1113 -0.2113
40245SOL    HW131049   9.599   8.903  12.392 -1.1464 -0.1914 -1.2060
40245SOL    HW231050   9.494   8.794  12.387 -1.9502  0.3457  1.7267
40246SOL     OW31051   9.753   9.232   9.620 -0.6380 -0.2793  0.3850
40246SOL    HW131052   9.808   9.309   9.604  0.2962 -0.8391  0.8590
40246SOL    HW231053   9.735   9.235   9.714 -2.8808  0.8438 -0.0033
40247SOL     OW31054  10.928   0.077   6.224 -0.0417 -0.2819 -0.0301
40247SOL    HW131055  10.996   0.107   6.164  0.4341  0.6838  0.9663
40247SOL    HW231056  10.924   0.143   6.293 -1.9632 -0.3483 -0.0179
40248SOL     OW31057   5.984   5.257   5.519 -0.4691  0.5829  0.0609
40248SOL    HW131058   5.983   5.224   5.430 -1.4953 -0.7778  0.5336
40248SOL    HW231059   5.923   5.330   5.518 -1.5056 -0.2582 -0.0906
40249SOL     OW31060  12.476   3.582  10.546  0.1835  0.2479  0.3609
40249SOL    HW131061  12.420   3.641  10.497  0.2239  2.1292  2.4102
40249SOL    HW231062  12.450   3.494  10.519 -1.5198  1.1477 -1.0531
40250SOL     OW31063   0.391   2.505   7.519  0.2669  0.3439 -0.3553
40250SOL    HW131064   0.435   2.481   7.601  0.4577  0.4990 -0.4106
40250SOL    HW231065   0.433   2.588   7.493 -0.6746  0.9579  0.0490
40251SOL     OW31066  12.423  12.804   3.629  0.0678 -0.4136 -0.0653
40251SOL    HW131067  12.508  12.832   3.661 -0.4187 -0.2388  1.1113
40251SOL    HW231068  12.360  12.847   3.686 -0.8004 -0.9776 -0.5678
40252SOL     OW31069   6.334   0.985   0.807  0.3339 -0.3615  0.0117
40252SOL    HW131070   6.250   1.024   0.831  0.4812  0.0339 -0.1036
40252SOL    HW231071   6.398   1.053   0.827  0.3638  0.4990 -2.6219
40253SOL     OW31072   2.762   8.416   2.447 -0.0691  0.3413 -0.1032
40253SOL    HW131073   2.839   8.358   2.443 -0.5469 -0.2276 -2.4807
40253SOL    HW231074   2.752   8.449   2.357 -0.1331  3.7774  1.0190
40254SOL     OW31075   7.069   6.566   8.410  0.2904 -0.0131  0.3189
40254SOL    HW131076   7.155   6.530   8.432  0.3549 -0.4004 -0.5227
40254SOL    HW231077   7.088   6.630   8.341 -0.1544 -0.5301 -0.2939
40255SOL     OW31078   2.402   1.891  11.538 -0.0455  0.1428 -0.5931
40255SOL    HW131079   2.405   1.943  11.618 -0.2486 -1.2122  0.3285
40255SOL    HW231080   2.366   1.950  11.472 -0.0598  1.2226  0.3532
40256SOL     OW31081  12.892   4.506   9.309 -0.4625 -0.5815 -0.0821
40256SOL    HW131082  12.982   4.479   9.291  0.8828  0.0499  4.5561
40256SOL    HW231083  12.886   4.595   9.274  1.2761 -0.0641  0.8435
40257SOL     OW31084  10.868   4.040   6.386 -0.0322  0.0650 -0.7518
40257SOL    HW131085  10.881   4.025   6.480  0.4753 -1.5747 -1.0514
40257SOL    HW231086  10.776   4.064   6.378  0.1323  1.1381  0.2533
40258SOL     OW31087   9.159   4.442   8.692 -0.0549  0.2487 -0.1349
40258SOL    HW131088   9.229   4.418   8.631 -0.4308  1.6517 -1.1514
40258SOL    HW231089   9.094   4.372   8.683 -0.1759  0.5126 -1.4830
40259SOL     OW31090   9.832   5.845   2.061 -0.4963 -0.2372 -0.0175
40259SOL    HW131091   9.883   5.926   2.064 -1.8951  0.6548  1.5392
40259SOL    HW231092   9.822   5.827   1.967  0.6942  0.8349 -0.3784
40260SOL     OW31093   1.117   9.773   4.841 -0.0689 -0.6261  0.3452
40260SOL    HW131094   1.068   9.842   4.796  1.3507 -0.8335 -1.6530
40260SOL    HW231095   1.072   9.692   4.818 -1.0822 -0.5062  1.7877
40261SOL     OW31096   2.030   4.741   6.748 -0.2461 -0.0475  0.2185
40261SOL    HW131097   2.034   4.690   6.829 -1.3180 -0.7063 -0.1208
40261SOL    HW231098   2.063   4.828   6.772  2.8141 -1.1816  0.5193
40262SOL     OW31099   4.458   1.289  11.914 -0.0053 -0.1898  0.6852
40262SOL    HW131100   4.450   1.356  11.845 -0.3367 -1.6548 -0.7836
40262SOL    HW231101   4.551   1.288  11.936  0.3173 -0.4185 -0.5654
40263SOL     OW31102   0.537  12.015   8.954 -0.0617 -0.2462  0.5083
40263SOL    HW131103   0.478  11.940   8.944 -0.4245 -0.0001  0.7921
40263SOL    HW231104   0.512  12.055   9.037 -0.6921  0.8994 -0.2034
40264SOL     OW31105   2.783   9.570   8.098  0.3489  0.2162 -0.1091
40264SOL    HW131106   2.720   9.579   8.169  0.2076 -0.9354 -0.0635
40264SOL    HW231107   2.729   9.564   8.019  0.4378  0.1288 -0.1633
40265SOL     OW31108  11.343  10.842   0.797 -0.2356  0.1473 -0.1597
40265SOL    HW131109  11.298  10.809   0.875  3.0227 -2.6100  0.8606
40265SOL    HW231110  11.282  10.826   0.725 -1.9729 -0.6619  1.4091
40266SOL     OW31111   9.851  11.448   1.325 -0.0466 -0.0134  0.5168
40266SOL    HW131112   9.883  11.514   1.263 -2.1951  0.8411  0.2436
40266SOL    HW231113   9.769  11.418   1.288  0.8306 -2.8751  0.6851
40267SOL     OW31114  12.561   6.867  11.288 -0.1063  0.0149  0.0871
40267SOL    HW131115  12.528   6.845  11.200 -2.5132  2.8804  0.1103
40267SOL    HW231116  12.484   6.866  11.344  1.0415  0.2716  1.7521
40268SOL     OW31117   2.178   1.042   5.766  0.5527  0.5461 -0.2630
40268SOL    HW131118   2.214   1.032   5.854  0.8863  1.6351 -0.2620
40268SOL    HW231119   2.249   1.016   5.708 -0.8058 -3.8751 -0.2639
40269SOL     OW31120   5.920  12.802  10.556  0.3625 -0.1485 -0.3188
40269SOL    HW131121   5.857  12.813  10.485  0.6280 -0.9447 -0.6827
40269SOL    HW231122   5.919  12.887  10.602 -0.8626 -0.1029 -0.3961
40270SOL     OW31123   1.394   7.777   7.474  0.0684  0.8714 -0.4753
40270SOL    HW131124   1.387   7.835   7.550 -0.6279  2.6395 -1.8178
40270SOL    HW231125   1.488   7.767   7.460  0.1994  0.4347  0.6776
40271SOL     OW31126   3.049   5.948   1.066 -0.1005  0.0014  0.1557
40271SOL    HW131127   2.964   5.906   1.059 -0.4440  0.8980 -2.2171
40271SOL    HW231128   3.047   6.016   0.999  0.8549  3.0708  2.9930
40272SOL     OW31129   7.670   8.215   5.825  0.2628 -0.3899 -0.3980
40272SOL    HW131130   7.610   8.223   5.751 -1.4962 -1.7814  0.7991
40272SOL    HW231131   7.713   8.300   5.829 -2.3226  1.0699 -0.8044
40273SOL     OW31132   1.175   8.837   7.301 -0.0390  0.2850  0.1560
40273SOL    HW131133   1.183   8.932   7.290  1.5910  0.2197  0.5694
40273SOL    HW231134   1.242   8.800   7.244 -0.1517 -0.5913  0.5692
40274SOL     OW31135  10.446   9.619   9.075 -0.1593 -0.0847 -0.3359
40274SOL    HW131136  10.520   9.561   9.056  0.2658 -0.7440  2.7392
40274SOL    HW231137  10.368   9.568   9.052  0.2865 -0.9408  0.0059
40275SOL     OW31138   4.654   1.584   1.994 -0.2607 -0.0960  0.3252
40275SOL    HW131139   4.722   1.650   1.982 -0.6490  0.5237  1.3538
40275SOL    HW231140   4.573   1.629   1.974 -0.3214 -1.2521 -2.4487
40276SOL     OW31141   0.212  11.271  12.840  0.4061  0.4407 -0.0478
40276SOL    HW131142   0.120  11.255  12.861  0.7736 -0.5178  0.8878
40276SOL    HW231143   0.215  11.274  12.744 -0.5319  0.0818 -0.0903
40277SOL     OW31144   1.140   2.844   6.344 -0.3742 -0.2057 -0.0207
40277SOL    HW131145   1.186   2.911   6.395 -1.1113 -0.3482  0.8520
40277SOL    HW231146   1.090   2.893   6.279  0.8012 -0.0367 -0.8228
40278SOL     OW31147  10.217  11.776  12.901  0.0349  0.9438 -0.1986
40278SOL    HW131148  10.142  11.726  12.869  0.4157  1.3323 -1.7740
40278SOL    HW231149  10.180  11.858  12.932 -0.0929  1.7856 -2.4034
40279SOL     OW31150   3.163   0.795   6.185 -0.1931  0.3934 -0.2622
40279SOL    HW131151   3.192   0.807   6.094  0.6289 -1.1800 -0.2350
40279SOL    HW231152   3.145   0.701   6.192 -0.6773  0.5741  1.0911
40280SOL     OW31153   3.163  10.601  10.677  0.0675  0.1917  0.1686
40280SOL    HW131154   3.220  10.546  10.623  0.1509 -0.0753  0.5236
40280SOL    HW231155   3.096  10.633  10.616  1.1699  1.3486 -0.4880
40281SOL     OW31156  10.482  11.929   9.093 -0.7198  0.7140  0.1620
40281SOL    HW131157  10.438  11.872   9.030  1.0323  1.5327 -1.9361
40281SOL    HW231158  10.471  12.017   9.058 -0.2250  1.2760  1.3661
40282SOL     OW31159   3.359   5.833   8.583  0.0790 -0.3189  0.1357
40282SOL    HW131160   3.314   5.914   8.558  2.5732  1.3653  0.7989
40282SOL    HW231161   3.381   5.791   8.500 -0.7677 -0.0879 -0.2219
40283SOL     OW31162   2.781   9.825   2.367 -0.0264  0.2843  0.0726
40283SOL    HW131163   2.701   9.871   2.339 -0.0242 -0.0986 -0.5720
40283SOL    HW231164   2.791   9.754   2.305  1.9524  1.5074 -1.1152
40284SOL     OW31165   5.106   4.251   2.104 -0.0030 -0.2618  0.5202
40284SOL    HW131166   5.127   4.174   2.052 -1.6508  0.2538 -1.0024
40284SOL    HW231167   5.175   4.314   2.083 -0.4410 -0.1939 -0.7918
40285SOL     OW31168  12.520   5.008   3.103  0.1019  0.6166 -0.5791
40285SOL    HW131169  12.504   4.989   3.010  1.4187 -2.4151 -0.3181
40285SOL    HW231170  12.612   4.983   3.117  0.1770  1.7921  1.3871
40286SOL     OW31171  12.750  10.675  11.144 -0.0356 -0.4794 -0.2034
40286SOL    HW131172  12.809  10.704  11.214  0.0845  1.8501 -1.1760
40286SOL    HW231173  12.806  10.669  11.066 -0.7665  0.1296 -0.7851
40287SOL     OW31174  12.327   2.010   8.368  0.1044  0.3339 -0.6030
40287SOL    HW131175  12.252   1.959   8.396  0.7387 -0.5920 -0.5446
40287SOL    HW231176  12.387   1.946   8.330  1.1906  0.9225  0.0461
40288SOL     OW31177   7.232   8.964   1.100 -0.0954  0.8866  0.1999
40288SOL    HW131178   7.163   8.970   1.034  1.6530  2.4566 -1.6219
40288SOL    HW231179   7.220   9.042   1.154  0.3657  1.3000 -0.2798
40289SOL     OW31180   6.932   2.634   7.324  0.1499 -0.4594 -0.1513
40289SOL    HW131181   6.981   2.708   7.360 -0.1795  0.5120 -1.6062
40289SOL    HW231182   6.964   2.558   7.373  2.7576  0.1821 -0.6606
40290SOL     OW31183  12.622   3.201   1.842  0.3195 -0.1644 -0.2016
40290SOL    HW131184  12.694   3.228   1.899 -0.1022  1.1179 -0.2447
40290SOL    HW231185  12.544   3.239   1.882 -0.4095 -1.7874  0.0153
40291SOL     OW31186   0.802  11.058   7.852  0.0529  0.2688 -0.0625
40291SOL    HW131187   0.724  11.002   7.843 -0.1079  0.1604  1.6812
40291SOL    HW231188   0.800  11.087   7.943  1.8064  0.6595 -0.1141
40292SOL     OW31189   0.295  10.939   9.392 -0.2551 -0.0362  0.3296
40292SOL    HW131190   0.259  10.996   9.323  0.8471  0.3936  0.0932
40292SOL    HW231191   0.251  10.855   9.379 -1.0637  0.4264 -0.0338
40293SOL     OW31192  10.201   4.363   2.006 -0.1305 -0.5063  0.1193
40293SOL    HW131193  10.260   4.438   2.010 -1.0298  0.1793  1.5326
40293SOL    HW231194  10.259   4.287   2.008  0.7599  0.1464 -0.0903
40294SOL     OW31195   1.217   2.379   0.599 -0.4286 -0.8052  0.4017
40294SOL    HW131196   1.253   2.466   0.584 -0.7457 -0.7558 -0.0776
40294SOL    HW231197   1.244   2.357   0.689  2.0927 -1.3902 -0.3975
40295SOL     OW31198   2.665   9.084   0.254  0.2468 -0.5786  0.0549
40295SOL    HW131199   2.673   9.034   0.173 -0.4701  2.0960 -1.7795
40295SOL    HW231200   2.592   9.044   0.300 -0.7939 -0.7798 -1.7016
40296SOL     OW31201   8.172   1.986   0.115 -0.6427 -0.1857 -0.1896
40296SOL    HW131202   8.239   2.041   0.075 -1.6007  0.8935 -0.3631
40296SOL    HW231203   8.221   1.917   0.159  0.5130 -0.3519 -1.6525
40297SOL     OW31204   6.252   7.605  10.510 -0.0868 -0.1688 -0.4201
40297SOL    HW131205   6.326   7.572  10.562  0.1389  0.8473 -0.0707
40297SOL    HW231206   6.288   7.681  10.463 -0.7656 -0.0016 -0.6776
40298SOL     OW31207   3.423   5.379   1.690  0.2760  0.1562 -0.5216
40298SOL    HW131208   3.340   5.333   1.674  0.1906  0.9268 -2.6530
40298SOL    HW231209   3.415   5.460   1.638  0.8705  2.0582  2.1719
40299SOL     OW31210   1.156   4.352  11.542 -0.2495 -0.2368 -0.3651
40299SOL    HW131211   1.110   4.423  11.587 -0.4385 -0.1935 -0.6268
40299SOL    HW231212   1.249   4.375  11.551 -0.2563 -0.4664  0.3997
40300SOL     OW31213  11.145   4.674   9.768 -0.0330  0.6111 -0.1478
40300SOL    HW131214  11.230   4.671   9.811 -0.2854 -2.7744  0.4415
40300SOL    HW231215  11.166   4.688   9.675  1.3827 -1.3726 -0.2094
40301SOL     OW31216   7.289  11.305  10.440 -0.4146 -0.5247 -0.1098
40301SOL    HW131217   7.206  11.295  10.394  0.0070 -0.0602 -1.0012
40301SOL    HW231218   7.291  11.398  10.465 -1.2160 -1.0310  2.0172
40302SOL     OW31219  10.266   2.750   4.225  0.1683  0.1696 -0.2209
40302SOL    HW131220  10.356   2.777   4.244  0.4859  0.1309 -1.6092
40302SOL    HW231221  10.243   2.694   4.299  0.0668  2.7950  1.9416
40303SOL     OW31222   4.328   2.887   7.818  0.2018 -0.1515 -0.0482
40303SOL    HW131223   4.263   2.909   7.885  1.7696  0.0697  1.4578
40303SOL    HW231224   4.277   2.876   7.738 -1.4990  1.6096  0.7362
40304SOL     OW31225  11.137   6.719  12.008  0.5666  0.3881  0.4353
40304SOL    HW131226  11.086   6.775  12.067  1.1342 -0.0525  1.3630
40304SOL    HW231227  11.171   6.780  11.942 -0.9116  0.7376 -0.0607
40305SOL     OW31228   4.088   4.337   8.670 -0.1574  0.1882 -0.0000
40305SOL    HW131229   4.125   4.366   8.587  0.4753  0.2409  0.2933
40305SOL    HW231230   4.157   4.282   8.709 -0.1484  0.7736  0.8255
40306SOL     OW31231   7.002  10.541   8.313 -0.1537  0.2345  0.0676
40306SOL    HW131232   7.052  10.466   8.344  1.0542  0.4972 -1.1420
40306SOL    HW231233   6.944  10.563   8.386  2.1179  0.4889  1.9404
40307SOL     OW31234  11.855  11.338  12.703  0.1388 -0.1626  0.2258
40307SOL    HW131235  11.875  11.290  12.623 -2.8188 -0.9379 -0.1656
40307SOL    HW231236  11.813  11.419  12.673 -2.4733 -1.1717  0.8963
40308SOL     OW31237  10.064   3.037   0.327 -0.0403  0.4230  0.5198
40308SOL    HW131238  10.067   2.960   0.271 -0.0438  1.5509 -1.1155
40308SOL    HW231239  10.147   3.036   0.374  0.3761 -0.0681 -0.2110
40309SOL     OW31240  10.248   8.526   6.628 -0.1245  0.4424  0.0328
40309SOL    HW131241  10.324   8.583   6.640 -1.0776  1.5612  1.1689
40309SOL    HW231242  10.175   8.587   6.613 -0.6755 -0.6284 -1.9376
40310SOL     OW31243   0.298   1.085   1.381  0.1008 -0.0514  0.3559
40310SOL    HW131244   0.382   1.049   1.409 -0.3725 -1.3969  0.0993
40310SOL    HW231245   0.233   1.034   1.428 -0.6054  0.0671 -0.4670
40311SOL     OW31246   9.535   8.312   8.323 -0.6181  0.0352  0.8619
40311SOL    HW131247   9.459   8.304   8.380 -1.0712  1.0214  0.4338
40311SOL    HW231248   9.610   8.313   8.382 -0.9258 -1.0457  1.2817
40312SOL     OW31249   3.946   1.113  11.721  0.0975  0.3108  0.8075
40312SOL    HW131250   3.954   1.059  11.643  1.9315  0.1514  1.0474
40312SOL    HW231251   3.871   1.078  11.768 -0.1629 -0.5017 -0.1916
40313SOL     OW31252  10.363   3.795   1.715 -0.2831 -0.2233  0.6558
40313SOL    HW131253  10.366   3.844   1.797 -1.4164  1.1835 -0.0995
40313SOL    HW231254  10.423   3.722   1.729  1.6540  1.4693  1.7585
40314SOL     OW31255  12.134   9.476  10.720 -0.3827 -0.4191 -0.2403
40314SOL    HW131256  12.159   9.385  10.704  0.5973 -0.3688  0.8759
40314SOL    HW231257  12.210   9.515  10.763 -0.8488  0.8873 -0.5492
40315SOL     OW31258   7.184   2.183  12.625  0.0542  0.0984 -0.3270
40315SOL    HW131259   7.190   2.103  12.677  1.3819  0.3621 -0.0476
40315SOL    HW231260   7.168   2.252  12.688  0.6858  0.2883 -0.3720
40316SOL     OW31261  11.481  10.926  10.290  0.1516  0.0281 -0.1677
40316SOL    HW131262  11.517  10.913  10.378  0.1062 -0.2251 -0.1853
40316SOL    HW231263  11.424  10.850  10.276 -0.4830  0.4899 -0.0956
40317SOL     OW31264   9.665   8.513   2.297  0.8333 -0.1866 -0.2234
40317SOL    HW131265   9.707   8.427   2.301  1.9080  0.3388  0.3415
40317SOL    HW231266   9.604   8.513   2.370  0.1877 -0.7774 -0.7482
40318SOL     OW31267  10.510   8.460   9.537 -0.0963 -0.2858  0.4899
40318SOL    HW131268  10.592   8.458   9.587  1.1760  0.1710 -1.4588
40318SOL    HW231269  10.496   8.553   9.519  0.0097 -0.4990 -0.7938
40319SOL     OW31270   9.289   0.706   7.471  0.3210 -0.2551 -0.2382
40319SOL    HW131271   9.241   0.736   7.394 -0.9995 -0.6405  0.4087
40319SOL    HW231272   9.222   0.667   7.528  1.4563 -1.1970  0.5116
40320SOL     OW31273  11.885   4.279   5.765 -0.6274 -0.0653  0.1598
40320SOL    HW131274  11.877   4.208   5.701  0.3241  0.2900 -0.3634
40320SOL    HW231275  11.887   4.234   5.850 -0.1655 -0.6642 -0.1608
40321SOL     OW31276   9.575   0.173  10.024  0.1027  0.0374 -0.4227
40321SOL    HW131277   9.538   0.255   9.993 -0.8098  0.4248  1.5412
40321SOL    HW231278   9.634   0.144   9.953  0.0888  2.1168 -1.3363
40322SOL     OW31279  10.630   1.794   0.978  0.6938 -0.8181  0.0957
40322SOL    HW131280  10.601   1.798   0.887  0.7745  0.8096  0.1133
40322SOL    HW231281  10.555   1.827   1.028  1.0980 -0.4971  0.4971
40323SOL     OW31282   9.018   0.618   4.799  0.3699 -0.2162 -0.2840
40323SOL    HW131283   8.998   0.529   4.773  1.8820 -0.9644  0.9545
40323SOL    HW231284   9.010   0.618   4.894  0.0000  1.0902 -0.2868
40324SOL     OW31285   4.354  12.033   8.616 -0.0649  0.1131  0.2002
40324SOL    HW131286   4.310  11.985   8.545 -2.2012  0.4341  1.2123
40324SOL    HW231287   4.355  11.970   8.689 -0.9238  0.8411  0.8690
40325SOL     OW31288   1.028   2.010   2.839  0.0184 -0.9262 -0.2006
40325SOL    HW131289   1.084   2.088   2.839  0.8025 -1.4630  0.7291
40325SOL    HW231290   1.052   1.964   2.758  0.3351 -0.7452 -0.2116
40326SOL     OW31291  11.493   8.451   8.765  0.1907 -0.4254 -0.0013
40326SOL    HW131292  11.452   8.374   8.806 -0.3734  0.1662  0.5576
40326SOL    HW231293  11.445   8.526   8.800  0.4895  0.1685 -0.8320
40327SOL     OW31294   3.221   3.888   6.803  0.7287 -0.7493  0.2751
40327SOL    HW131295   3.127   3.902   6.815  0.7000 -1.5497  1.1326
40327SOL    HW231296   3.237   3.912   6.712 -0.3179 -0.6694  0.0937
40328SOL     OW31297  10.315   2.197  11.366 -0.2484  0.5660 -0.6619
40328SOL    HW131298  10.308   2.107  11.335  1.0741  0.6365 -1.2414
40328SOL    HW231299  10.371   2.240  11.301 -0.2952  1.6288 -0.0249
40329SOL     OW31300   6.842   4.195   3.533  0.2794 -0.0641  0.3702
40329SOL    HW131301   6.837   4.174   3.439 -0.3036 -0.7469  0.5434
40329SOL    HW231302   6.909   4.135   3.566 -1.0359 -1.3723  0.7739
40330SOL     OW31303   5.347   4.088   0.846 -0.3313  0.2898  0.2875
40330SOL    HW131304   5.430   4.054   0.813 -0.5635  0.4327 -0.4531
40330SOL    HW231305   5.362   4.182   0.857 -0.7249  0.5198 -0.9407
40331SOL     OW31306   6.552   7.128   7.457  0.3734  0.0900 -0.0382
40331SOL    HW131307   6.622   7.065   7.438 -1.9606 -2.2711 -1.3882
40331SOL    HW231308   6.497   7.083   7.522 -2.6173 -0.4007 -2.7101
40332SOL     OW31309   9.171   5.260   7.689 -0.2561 -0.4084  0.7636
40332SOL    HW131310   9.140   5.199   7.622 -0.1273  0.3800 -0.0421
40332SOL    HW231311   9.191   5.340   7.640  3.1989 -0.8657  1.1996
40333SOL     OW31312   8.735   2.576  10.429  0.2543 -0.7936  0.5611
40333SOL    HW131313   8.658   2.519  10.438 -1.7998  1.9057  1.6220
40333SOL    HW231314   8.725   2.616  10.343 -0.0986  0.2615  1.0739
40334SOL     OW31315   8.932   5.649   1.615  0.1607 -0.7483 -0.2032
40334SOL    HW131316   9.024   5.667   1.635  0.2634 -0.8377 -0.5894
40334SOL    HW231317   8.886   5.730   1.638  0.3330 -0.7076  0.0020
40335SOL     OW31318   0.711  12.484   6.731  0.2155  0.2567 -0.5905
40335SOL    HW131319   0.653  12.551   6.696  0.7211  0.2515 -1.4592
40335SOL    HW231320   0.710  12.498   6.826  2.0245  2.9500 -0.8454
40336SOL     OW31321   6.333   7.541   4.077  0.4351  0.6656 -0.2346
40336SOL    HW131322   6.288   7.457   4.077  1.6578 -0.0589  1.3752
40336SOL    HW231323   6.314   7.579   4.163  2.0554  0.7549  0.1327
40337SOL     OW31324   4.059   1.947  10.756  0.0459 -0.4645  0.5194
40337SOL    HW131325   4.142   1.990  10.739 -0.9757  0.8833 -1.3788
40337SOL    HW231326   4.036   1.972  10.846  1.3960 -0.4066  0.8598
40338SOL     OW31327   0.063   9.467   9.358 -0.1180 -0.4151  0.5134
40338SOL    HW131328   0.002   9.394   9.355 -1.8299  0.9851 -2.1279
40338SOL    HW231329   0.040   9.522   9.283  1.9124  2.1964  1.6156
40339SOL     OW31330   1.393  10.114   6.445 -0.8147 -0.0955  0.5214
40339SOL    HW131331   1.306  10.117   6.487 -1.4350 -0.0517 -0.7219
40339SOL    HW231332   1.442  10.051   6.497 -1.9941 -1.0552  0.5311
40340SOL     OW31333   2.852  12.639   1.488 -0.5948 -0.2295 -0.3605
40340SOL    HW131334   2.933  12.596   1.517 -0.7743  0.3427  1.0755
40340SOL    HW231335   2.815  12.579   1.423  0.7719 -0.6868 -0.7461
40341SOL     OW31336  12.188   5.674  12.533  0.0310  0.1037  0.2870
40341SOL    HW131337  12.277   5.693  12.502  0.8391 -2.9794  0.4135
40341SOL    HW231338  12.147   5.628  12.459 -1.2144  0.7942  0.5256
40342SOL     OW31339   6.747   0.203   7.737  0.6430 -0.4431  0.1220
40342SOL    HW131340   6.833   0.167   7.762  0.9525  0.2088  0.0218
40342SOL    HW231341   6.707   0.227   7.820  0.2049 -1.5098  0.2308
40343SOL     OW31342   5.033   0.750  11.475 -0.2808 -0.2696  0.7176
40343SOL    HW131343   5.003   0.835  11.508 -0.1721 -0.1079  0.4073
40343SOL    HW231344   5.127   0.760  11.466 -0.2839 -0.3827  0.5616
40344SOL     OW31345   2.388   9.836  11.205  0.4136  0.4623  0.0371
40344SOL    HW131346   2.350   9.923  11.212 -0.4792  0.1749 -1.0445
40344SOL    HW231347   2.313   9.777  11.204  0.9446 -0.2239 -0.6256
40345SOL     OW31348   2.075   9.884  11.862  0.0692  0.6589  0.0036
40345SOL    HW131349   2.015   9.873  11.788  1.2450  1.5957 -1.1387
40345SOL    HW231350   2.099   9.977  11.860  1.1063  0.4263  0.7754
40346SOL     OW31351  10.934   2.428   7.528  0.2976  0.6944  0.1463
40346SOL    HW131352  11.016   2.379   7.523  0.2699  0.5870  0.6131
40346SOL    HW231353  10.887   2.405   7.448 -0.1219 -0.7967  0.7864
40347SOL     OW31354   3.902   9.764   2.265  0.1212  0.0545 -0.1258
40347SOL    HW131355   3.981   9.726   2.227  0.8727  0.5604  0.8764
40347SOL    HW231356   3.890   9.846   2.217  0.4380  0.1707 -0.0074
40348SOL     OW31357   7.790  11.666  11.850  0.3095  0.1111  0.3717
40348SOL    HW131358   7.843  11.590  11.872 -0.2140  0.0391  1.4404
40348SOL    HW231359   7.775  11.659  11.756  1.9866  0.0095  0.0819
40349SOL     OW31360   2.532  11.319   1.905 -0.0878  0.1875 -0.3987
40349SOL    HW131361   2.517  11.229   1.876  0.8099 -0.5585  1.3521
40349SOL    HW231362   2.563  11.364   1.826  1.1908 -1.4730 -0.9143
40350SOL     OW31363   9.747   1.404   9.939  0.1904  0.1269  0.3593
40350SOL    HW131364   9.791   1.414   9.854 -1.5166 -1.5022 -0.8173
40350SOL    HW231365   9.666   1.454   9.929 -0.8893 -1.5700  0.3038
40351SOL     OW31366   6.063   8.156   9.407  0.0935  0.5087  0.3121
40351SOL    HW131367   6.013   8.232   9.376 -0.3719 -0.6244 -1.8832
40351SOL    HW231368   6.010   8.081   9.380  1.7466 -0.6499  0.2233
40352SOL     OW31369   6.114   5.960   7.007  1.0495  0.5072  0.0910
40352SOL    HW131370   6.179   5.894   6.981  0.8168 -0.1158  1.0557
40352SOL    HW231371   6.031   5.927   6.972  1.4056  2.0444 -2.4564
40353SOL     OW31372   8.065   3.357   7.698 -0.2325 -0.1235 -0.2264
40353SOL    HW131373   7.980   3.375   7.658  0.1139  0.5934 -0.6556
40353SOL    HW231374   8.119   3.434   7.677  0.9570 -1.1546 -1.1244
40354SOL     OW31375   6.951   8.503   0.113  0.3602 -0.3642 -0.3697
40354SOL    HW131376   6.897   8.424   0.105 -0.9539  0.4069  0.4287
40354SOL    HW231377   7.039   8.474   0.090 -0.1558 -1.9763 -0.4784
40355SOL     OW31378   4.930  11.428   0.853  0.3166  0.1520  0.2637
40355SOL    HW131379   4.966  11.517   0.860 -0.0842  0.3909 -0.5994
40355SOL    HW231380   4.899  11.408   0.941  1.4110  0.4284  0.7299
40356SOL     OW31381   8.848  12.784  11.003  0.3636  0.4755  0.6147
40356SOL    HW131382   8.787  12.761  10.933  0.7501 -0.8423  0.6851
40356SOL    HW231383   8.932  12.797  10.959  0.6685 -0.6294  0.8430
40357SOL     OW31384   9.734   0.459  10.858  0.2203 -0.4023 -0.7920
40357SOL    HW131385   9.655   0.446  10.910 -0.0257  1.0070 -0.7813
40357SOL    HW231386   9.712   0.423  10.772 -0.3179 -0.3331 -0.6881
40358SOL     OW31387   1.753   7.917   9.295 -0.1968  0.1081 -0.6076
40358SOL    HW131388   1.746   8.011   9.309 -0.7459 -0.2767  2.4426
40358SOL    HW231389   1.774   7.881   9.382 -1.1029 -2.6610 -1.4275
40359SOL     OW31390  12.657   8.537  10.881  0.7691  0.4687  0.6203
40359SOL    HW131391  12.620   8.622  10.856  2.7732  0.8938 -1.2121
40359SOL    HW231392  12.619   8.475  10.820 -0.1921  0.1271  1.5395
40360SOL     OW31393   9.290  12.247   8.794  0.3409 -0.1461 -0.2238
40360SOL    HW131394   9.232  12.314   8.758  1.9774  1.1623 -0.5275
40360SOL    HW231395   9.290  12.177   8.728  0.8571  0.8512 -1.3152
40361SOL     OW31396   8.403   7.318   7.923 -0.1309  0.1765 -0.0649
40361SOL    HW131397   8.380   7.406   7.892 -2.8589 -0.7573 -1.0046
40361SOL    HW231398   8.381   7.261   7.850  0.4301 -1.4139  0.9666
40362SOL     OW31399   1.089   6.691   1.356  0.2942  0.8019  0.6485
40362SOL    HW131400   1.047   6.642   1.427  0.2924 -1.4307 -0.7875
40362SOL    HW231401   1.151   6.749   1.400 -0.2982  0.1033  2.5018
40363SOL     OW31402  11.441   4.824   0.829 -0.3250  0.1025  0.0398
40363SOL    HW131403  11.357   4.822   0.873 -0.2437 -2.0969  0.2046
40363SOL    HW231404  11.456   4.917   0.810 -2.3542  0.6322  0.7664
40364SOL     OW31405   7.336   1.028   3.999 -0.6153  0.0925  0.4464
40364SOL    HW131406   7.390   1.088   4.050 -0.4554  1.2185 -0.9631
40364SOL    HW231407   7.398   0.984   3.941 -0.7379 -1.4562  1.4303
40365SOL     OW31408   9.386   2.271   9.846 -0.6576  0.0498  0.4425
40365SOL    HW131409   9.354   2.240   9.761 -1.7531  0.3027  0.7497
40365SOL    HW231410   9.467   2.221   9.861  0.3817  1.0498 -1.4150
40366SOL     OW31411  12.280   0.983   6.334  0.0930  0.1901 -0.1741
40366SOL    HW131412  12.271   0.993   6.429 -1.4616  0.0707 -0.2795
40366SOL    HW231413  12.372   1.002   6.317  0.7937 -1.2994  1.5451
40367SOL     OW31414  11.403   0.299   9.049 -0.1485 -0.1325  0.0971
40367SOL    HW131415  11.398   0.214   9.007  0.6931 -0.6161  0.9401
40367SOL    HW231416  11.488   0.335   9.021  1.0572 -1.0257  2.3280
40368SOL     OW31417   8.977   2.707   1.800 -0.0595  0.1018 -0.2830
40368SOL    HW131418   9.019   2.719   1.885  0.6533  0.1920 -0.6457
40368SOL    HW231419   9.047   2.719   1.736 -0.3278 -1.1638 -0.8461
40369SOL     OW31420   4.918   0.700   6.399 -0.5822  0.1534  0.1852
40369SOL    HW131421   4.840   0.747   6.428 -1.2042 -0.3589 -0.6182
40369SOL    HW231422   4.885   0.617   6.365 -0.0592  1.0652 -2.8622
40370SOL     OW31423  11.850   9.486   2.941  0.2545 -0.2459 -0.7745
40370SOL    HW131424  11.800   9.528   2.871  1.6687  1.3326 -0.8896
40370SOL    HW231425  11.783   9.452   3.001 -1.0460 -2.2581 -3.1456
40371SOL     OW31426   7.105  12.172   4.166 -0.3176  0.2027 -0.0897
40371SOL    HW131427   7.034  12.159   4.229 -2.5876  2.0033 -2.0544
40371SOL    HW231428   7.152  12.249   4.198  0.5637 -0.7629  1.0136
40372SOL     OW31429   8.137  12.638   2.028 -0.2655  0.1742 -0.1656
40372SOL    HW131430   8.211  12.611   1.974  0.1078  1.7458 -0.5044
40372SOL    HW231431   8.080  12.686   1.968 -0.4790  0.8384  0.5493
40373SOL     OW31432   4.372  11.450   4.806  0.2855 -0.1352 -0.6040
40373SOL    HW131433   4.366  11.394   4.883 -0.0899 -2.1896 -2.0485
40373SOL    HW231434   4.282  11.462   4.777  0.4550  0.1544 -1.0300
40374SOL     OW31435   6.941   3.305   5.180  0.0212 -0.1092  0.3997
40374SOL    HW131436   6.991   3.316   5.261  0.4880  0.3510  0.0654
40374SOL    HW231437   6.875   3.239   5.200  1.1518 -1.1967  0.6925
40375SOL     OW31438   5.546   8.927   5.560 -0.1448  0.3681  0.6179
40375SOL    HW131439   5.574   8.861   5.623  1.7245  0.1993 -0.3320
40375SOL    HW231440   5.586   8.901   5.477 -3.1194  0.1965 -0.8770
40376SOL     OW31441   1.863   7.844   8.747  0.0590  0.1516 -0.2503
40376SOL    HW131442   1.808   7.916   8.716  1.5915  0.6142 -2.0981
40376SOL    HW231443   1.885   7.868   8.837 -2.0688  0.3280  0.2753
40377SOL     OW31444   1.157   9.055   4.623  0.0997 -0.2784  0.0133
40377SOL    HW131445   1.126   8.993   4.557 -3.9030  1.1122  0.3413
40377SOL    HW231446   1.192   9.128   4.572 -1.4648  0.0760 -0.6190
40378SOL     OW31447  11.709   5.694   1.352 -0.3298 -0.2343  0.1198
40378SOL    HW131448  11.726   5.712   1.260 -0.6466 -2.5753 -0.4462
40378SOL    HW231449  11.616   5.716   1.364 -0.3883 -0.3051 -0.2129
40379SOL     OW31450   3.651   0.211  10.063 -0.1242 -0.1246 -0.0260
40379SOL    HW131451   3.601   0.267  10.123 -0.1022  0.7333 -0.8039
40379SOL    HW231452   3.608   0.222   9.978  2.0528  1.5633 -0.9958
40380SOL     OW31453  11.021   9.186   9.197 -0.1089  0.0974 -0.6768
40380SOL    HW131454  11.021   9.101   9.242  1.2961  1.5878  2.4633
40380SOL    HW231455  11.094   9.180   9.136 -1.1782 -1.5256 -1.8874
40381SOL     OW31456   8.988   1.103  10.781  0.0371 -0.5323  0.1641
40381SOL    HW131457   8.927   1.140  10.716 -1.5215 -0.1259  1.7802
40381SOL    HW231458   8.984   1.008  10.765  0.9794 -0.3442 -1.3920
40382SOL     OW31459   1.547   5.074   5.878 -0.1015 -0.3315  0.3157
40382SOL    HW131460   1.572   4.984   5.902 -1.4461 -1.0852 -1.0060
40382SOL    HW231461   1.521   5.068   5.786  2.8218  2.0404 -0.8302
40383SOL     OW31462   8.414   4.147   5.340  0.7277  0.1722  0.2393
40383SOL    HW131463   8.380   4.236   5.336  0.6078  0.0897 -1.3951
40383SOL    HW231464   8.348   4.094   5.296  0.1364 -0.9779  2.4051
40384SOL     OW31465   1.132   2.161   2.372 -0.2703  0.3603 -0.0374
40384SOL    HW131466   1.151   2.068   2.365  0.7743  0.6806 -1.9481
40384SOL    HW231467   1.061   2.176   2.310  0.0774  0.9618 -0.3005
40385SOL     OW31468   4.098  12.045   9.494  0.1153 -0.2370 -0.1948
40385SOL    HW131469   4.122  11.954   9.509 -0.3933 -0.1337  1.5220
40385SOL    HW231470   4.166  12.080   9.436  1.1697 -1.3010  0.3677
40386SOL     OW31471   8.802  10.988   3.449  0.0843  0.1843  0.4520
40386SOL    HW131472   8.737  11.041   3.495 -3.2323 -2.0792 -1.2166
40386SOL    HW231473   8.839  11.048   3.384 -0.3052  1.5492  1.4364
40387SOL     OW31474   1.480   4.670  10.766  0.6849  0.0135 -0.1252
40387SOL    HW131475   1.547   4.602  10.757 -0.7647 -1.3092 -1.7587
40387SOL    HW231476   1.494   4.728  10.691  2.6508  2.3300  1.8872
40388SOL     OW31477   6.317  12.569  11.298  0.1162  0.5294  0.5720
40388SOL    HW131478   6.391  12.519  11.261  0.2613  1.4598 -0.4528
40388SOL    HW231479   6.359  12.635  11.353 -0.0456 -0.0103  1.3585
40389SOL     OW31480   4.796  11.933   3.827 -0.0888  0.8732 -0.0541
40389SOL    HW131481   4.867  11.947   3.765  0.0054  0.5813 -0.0141
40389SOL    HW231482   4.750  12.017   3.831  0.1431  1.0081 -0.2179
40390SOL     OW31483  10.219   7.196   0.870 -0.2188  0.6403 -0.0164
40390SOL    HW131484  10.288   7.180   0.806 -1.7473 -0.8544 -1.3626
40390SOL    HW231485  10.219   7.291   0.881  1.5909  0.7332 -0.4648
40391SOL     OW31486   8.075   8.064   0.670 -0.0276  0.1061 -0.2639
40391SOL    HW131487   8.115   8.137   0.623  1.4311  1.5202  2.8968
40391SOL    HW231488   8.146   8.001   0.683 -0.4533 -0.3588 -0.1388
40392SOL     OW31489   0.761   3.845   0.110  0.5940 -0.3451 -0.3613
40392SOL    HW131490   0.697   3.889   0.055  0.3547  0.3474  0.4419
40392SOL    HW231491   0.794   3.914   0.168  0.2414 -1.1887  0.8948
40393SOL     OW31492   5.652   5.324   4.635  0.3794  0.5419 -0.2958
40393SOL    HW131493   5.612   5.411   4.637  0.0032  0.3895 -0.9573
40393SOL    HW231494   5.698   5.320   4.552  0.7084  0.2422 -0.1017
40394SOL     OW31495   3.438   0.086   8.146 -0.0374  0.1027  0.8356
40394SOL    HW131496   3.498   0.061   8.217  1.3632 -1.2330 -0.7049
40394SOL    HW231497   3.485   0.154   8.097  0.2695 -0.9204 -0.3616
40395SOL     OW31498   0.924   7.310   9.849  0.1101  0.1685  0.0268
40395SOL    HW131499   0.893   7.394   9.883 -1.0986 -0.4133  0.4065
40395SOL    HW231500   0.868   7.292   9.774  1.3008  0.3654 -0.9423
40396SOL     OW31501   9.577   3.317   8.862  0.4999 -0.1193  0.0115
40396SOL    HW131502   9.570   3.259   8.786  2.0227 -0.1388 -0.1383
40396SOL    HW231503   9.543   3.265   8.935  1.3208 -1.0103 -0.2235
40397SOL     OW31504  10.203  12.728   8.886 -0.3657  0.0816  0.1373
40397SOL    HW131505  10.251  12.773   8.817  2.2800 -1.6588  0.7167
40397SOL    HW231506  10.207  12.788   8.961 -2.5951  1.6351 -0.8411
40398SOL     OW31507  11.879   4.821   8.901 -0.0011 -0.4246  0.4918
40398SOL    HW131508  11.883   4.743   8.956 -1.4173  0.7737  2.4166
40398SOL    HW231509  11.955   4.873   8.928  1.6355 -1.5164 -1.6097
40399SOL     OW31510   9.918   3.526   8.271 -0.3032  0.3893  0.0418
40399SOL    HW131511  10.002   3.564   8.295  0.4449 -0.4831 -1.0360
40399SOL    HW231512   9.852   3.589   8.301  0.7150  0.9451  1.1664
40400SOL     OW31513   6.768  11.871   1.256  0.3878 -0.1130  0.1655
40400SOL    HW131514   6.809  11.788   1.281  2.4005  1.0311  0.8603
40400SOL    HW231515   6.828  11.938   1.288 -0.6866  1.6121 -1.2634
40401SOL     OW31516  12.512  11.286  11.110 -0.1541 -0.0931  0.7301
40401SOL    HW131517  12.550  11.263  11.025 -1.1472  0.0440  0.2235
40401SOL    HW231518  12.575  11.255  11.174  0.5828 -0.2650 -0.0603
40402SOL     OW31519   3.925   6.359   1.507 -0.2488  0.4244  0.0070
40402SOL    HW131520   3.975   6.295   1.558  0.9759  2.0786  0.9816
40402SOL    HW231521   3.835   6.351   1.540  0.0544 -0.2032  0.7108
40403SOL     OW31522  10.652   6.707   4.537  0.0242 -0.2847  0.0236
40403SOL    HW131523  10.681   6.653   4.611 -1.1515 -0.0982  0.6499
40403SOL    HW231524  10.589   6.653   4.491  1.2930 -0.6898 -1.3315
40404SOL     OW31525  11.542   5.641   5.129 -0.0561 -0.3275 -0.1233
40404SOL    HW131526  11.556   5.553   5.165 -1.3359 -0.2128  0.7337
40404SOL    HW231527  11.627   5.683   5.135  0.6130 -1.5573 -0.6917
40405SOL     OW31528   2.989   2.264   0.969  0.0826  0.0112 -0.1204
40405SOL    HW131529   2.988   2.274   0.874 -0.7726  0.1039 -0.1102
40405SOL    HW231530   2.947   2.344   1.002  0.0620 -0.1779  0.3185
40406SOL     OW31531   4.109   7.871   5.085 -0.1230 -0.0254  0.5757
40406SOL    HW131532   4.021   7.848   5.115 -0.3210  0.2060  0.1823
40406SOL    HW231533   4.095   7.924   5.006  0.4230 -1.5357 -0.5806
40407SOL     OW31534   2.916  10.877   5.877  0.0414 -0.2535  0.5487
40407SOL    HW131535   2.846  10.942   5.881  0.8752  0.7436 -0.5299
40407SOL    HW231536   2.926  10.858   5.784 -0.4409 -2.2568  0.8461
40408SOL     OW31537  12.438   4.554  10.988  0.0289  0.3659 -0.6723
40408SOL    HW131538  12.490   4.491  11.038  0.5137  0.7988 -0.6182
40408SOL    HW231539  12.371   4.584  11.050  2.0929  2.7244  0.5867
40409SOL     OW31540  11.913   5.919  11.282  0.4527 -0.0139 -0.3634
40409SOL    HW131541  11.897   5.900  11.374  2.2921 -1.5397 -0.2872
40409SOL    HW231542  11.841   5.874  11.236 -1.2508  1.8683  0.3120
40410SOL     OW31543  12.520   8.521  11.092 -0.0959  0.4998  0.2921
40410SOL    HW131544  12.571   8.453  11.135 -0.3064  1.0229  1.4221
40410SOL    HW231545  12.560   8.531  11.006  1.1051  0.2435  0.8073
40411SOL     OW31546   2.797   7.880   1.305 -0.6671 -0.4466  0.1155
40411SOL    HW131547   2.711   7.882   1.263 -0.0454  0.6873 -1.1754
40411SOL    HW231548   2.777   7.868   1.398 -2.1202 -2.0804 -0.3512
40412SOL     OW31549   2.421   7.645   6.066 -0.3915 -0.7708  0.3244
40412SOL    HW131550   2.456   7.567   6.023  0.0590  0.3549 -1.4288
40412SOL    HW231551   2.489   7.671   6.128 -0.6012 -1.8171  1.0150
40413SOL     OW31552   7.555  10.045  10.933  0.0514  0.4298 -0.0341
40413SOL    HW131553   7.532   9.954  10.948  2.7625 -0.0979  1.4758
40413SOL    HW231554   7.534  10.090  11.015 -0.5176  1.0435 -0.4948
40414SOL     OW31555   2.542   8.509  10.243  0.3972  0.2777 -0.1371
40414SOL    HW131556   2.467   8.523  10.186 -0.4711  1.7716  1.2814
40414SOL    HW231557   2.576   8.423  10.219 -1.1171  0.0352 -1.5250
40415SOL     OW31558  10.856  10.850   1.638  0.2385  0.2465  0.2587
40415SOL    HW131559  10.891  10.919   1.695  1.1418 -1.0539  1.3503
40415SOL    HW231560  10.762  10.867   1.634  0.4501  1.5913  0.4137
40416SOL     OW31561  12.932   8.394   4.705 -0.6662  0.1774  0.1979
40416SOL    HW131562  12.875   8.404   4.781  1.5658 -0.9278  2.1264
40416SOL    HW231563  13.020   8.410   4.738  0.3034  0.8212 -2.4461
40417SOL     OW31564  12.190  12.645   9.622  0.4008 -0.1165 -0.0967
40417SOL    HW131565  12.111  12.635   9.569  0.3411  1.4044 -0.3368
40417SOL    HW231566  12.192  12.738   9.646  1.5054 -0.3569  0.8800
40418SOL     OW31567   7.777   5.385   5.991 -0.5005 -0.0333 -0.7042
40418SOL    HW131568   7.804   5.451   5.928  0.9789 -0.7524 -0.8617
40418SOL    HW231569   7.857   5.362   6.038 -1.6381  0.8738  1.8635
40419SOL     OW31570   9.047   1.535   3.055 -0.5003 -0.2237 -0.2388
40419SOL    HW131571   9.030   1.463   3.116  1.2775 -0.7873 -0.3538
40419SOL    HW231572   9.016   1.613   3.100  0.7308 -0.6331  1.4053
40420SOL     OW31573   6.278   7.078   4.815  0.1142  0.3626  0.4153
40420SOL    HW131574   6.352   7.023   4.839 -0.6378  0.1836  2.5589
40420SOL    HW231575   6.310   7.168   4.823  0.7104  0.3080 -0.9528
40421SOL     OW31576   6.166   1.216   5.607 -0.7289 -0.1188 -0.3211
40421SOL    HW131577   6.257   1.197   5.584 -0.9581  0.3927 -1.7539
40421SOL    HW231578   6.115   1.187   5.531 -1.7577 -0.2733  0.4023
40422SOL     OW31579   8.407   8.547   1.902 -0.0095  0.3122 -0.4598
40422SOL    HW131580   8.379   8.505   1.983  0.4398 -2.3836 -1.6036
40422SOL    HW231581   8.326   8.563   1.854 -0.0897 -0.9270 -0.7576
40423SOL     OW31582   5.258   7.165   6.582 -0.8399  0.2157  0.2256
40423SOL    HW131583   5.296   7.085   6.543  1.3336  1.0293  0.5767
40423SOL    HW231584   5.293   7.168   6.671 -1.9964  0.8688  0.6773
40424SOL     OW31585   7.591   3.377  11.987  0.4320  0.5479 -0.0408
40424SOL    HW131586   7.627   3.392  11.899  1.8342  2.9010  0.8458
40424SOL    HW231587   7.521   3.443  11.995  0.3994  0.4271  0.6605
40425SOL     OW31588  10.458   2.572   0.766 -0.2634  0.2683 -0.1536
40425SOL    HW131589  10.512   2.630   0.713 -0.3786  0.8994  0.4081
40425SOL    HW231590  10.455   2.490   0.716  1.6875  0.0044  0.0720
40426SOL     OW31591   3.550   3.333   6.443 -0.5180 -0.0445 -0.3598
40426SOL    HW131592   3.598   3.415   6.460 -0.9496  0.2348 -0.4694
40426SOL    HW231593   3.528   3.338   6.350  0.5046 -0.8566 -0.6682
40427SOL     OW31594   9.272  11.607   7.111 -0.1573  0.2294 -0.0490
40427SOL    HW131595   9.199  11.589   7.051  2.2150 -2.7469 -2.3855
40427SOL    HW231596   9.348  11.572   7.066  2.4568  1.3460  3.1536
40428SOL     OW31597   1.516   5.352   9.787  0.1016 -0.1400  0.3407
40428SOL    HW131598   1.485   5.420   9.846  0.5721  0.0493  0.3716
40428SOL    HW231599   1.592   5.391   9.743 -0.7948  0.0810 -1.0917
40429SOL     OW31600   0.209  11.575   6.958 -0.2529  0.4779  0.3799
40429SOL    HW131601   0.289  11.606   7.001  0.9600 -0.0570 -1.3967
40429SOL    HW231602   0.141  11.634   6.989  0.8233  0.9783  1.9091
40430SOL     OW31603   3.338   5.650   1.247  0.1186 -0.8295 -0.5492
40430SOL    HW131604   3.368   5.636   1.157 -1.1454  2.5236 -1.6543
40430SOL    HW231605   3.317   5.744   1.251 -2.6460 -1.3978  2.3681
40431SOL     OW31606   9.411   8.013   8.520  0.1179 -0.7436 -0.5779
40431SOL    HW131607   9.397   8.034   8.428 -1.9418 -2.3890 -0.7040
40431SOL    HW231608   9.496   7.967   8.521 -0.0472 -1.1060 -1.7369
40432SOL     OW31609  11.626   5.572  12.862  0.1302  0.4515 -0.2781
40432SOL    HW131610  11.612   5.483  12.832  0.0030  0.0892  0.7869
40432SOL    HW231611  11.556   5.623  12.821 -2.2454 -0.6607  2.0637
40433SOL     OW31612   4.521   8.345   7.721  0.6478  0.4420  0.1444
40433SOL    HW131613   4.584   8.357   7.650  1.3746  1.9740  0.9781
40433SOL    HW231614   4.560   8.279   7.778 -0.9654 -2.4700 -1.9085
40434SOL     OW31615   8.043   9.796   9.612  0.0562 -0.6503 -0.6845
40434SOL    HW131616   8.059   9.741   9.535  0.5040 -2.6117  0.7339
40434SOL    HW231617   7.965   9.759   9.652 -1.0058  1.2284 -0.8888
40435SOL     OW31618  11.052   2.865   9.210  0.2149  0.1385  0.0412
40435SOL    HW131619  11.036   2.913   9.291  1.4555  1.2975 -0.3455
40435SOL    HW231620  11.058   2.934   9.143  3.4655 -0.3304 -0.3247
40436SOL     OW31621   4.872   2.145   7.420  0.4228  0.0670  0.1475
40436SOL    HW131622   4.903   2.117   7.335  2.1065 -0.5378  0.9184
40436SOL    HW231623   4.816   2.073   7.451 -0.3103  0.3550 -0.4807
40437SOL     OW31624  12.412   3.696   0.490 -0.4733 -0.5325  0.3986
40437SOL    HW131625  12.346   3.725   0.553  0.0304  2.4181 -0.2762
40437SOL    HW231626  12.452   3.619   0.530 -1.5490  0.0225  2.6959
40438SOL     OW31627   3.360  12.930   2.576 -0.0653  0.3066  0.5473
40438SOL    HW131628   3.397  12.934   2.664  1.8465  0.4570 -0.2238
40438SOL    HW231629   3.342  13.022   2.554 -3.2328  0.1236  1.7735
40439SOL     OW31630   3.855   5.315   3.414  0.0893 -0.8362  0.0240
40439SOL    HW131631   3.865   5.394   3.467 -3.3042  0.4105 -0.9089
40439SOL    HW231632   3.862   5.345   3.324  1.1788 -2.0856 -0.3303
40440SOL     OW31633   6.160  12.276  11.177 -0.0745 -0.3951 -0.3286
40440SOL    HW131634   6.118  12.313  11.255  0.6188  3.8492 -1.7206
40440SOL    HW231635   6.246  12.247  11.208  0.7002  2.3699  0.4357
40441SOL     OW31636   7.513   6.064   8.922  0.1066 -0.3199 -0.5168
40441SOL    HW131637   7.524   6.022   9.008  1.5495 -0.7528 -0.8877
40441SOL    HW231638   7.602   6.066   8.886 -0.4863 -0.1097 -1.9867
40442SOL     OW31639  10.381   0.108  12.772 -0.6755 -0.3964  0.0582
40442SOL    HW131640  10.417   0.090  12.858  1.1143  0.0834 -0.5495
40442SOL    HW231641  10.444   0.166  12.730 -2.5959  1.2015 -0.7855
40443SOL     OW31642   0.582   1.743   7.422  0.2472  0.1585 -0.6943
40443SOL    HW131643   0.672   1.721   7.444 -0.7324 -0.9776  2.9527
40443SOL    HW231644   0.556   1.678   7.356  1.2342 -1.5339  0.5072
40444SOL     OW31645  10.183   2.494   2.640  0.7309  0.4365  0.0073
40444SOL    HW131646  10.144   2.474   2.725  0.1521  0.3742 -0.2664
40444SOL    HW231647  10.262   2.543   2.660  1.7281 -1.3321  0.6893
40445SOL     OW31648   5.175  11.364   2.278 -0.1673 -0.1869  0.0303
40445SOL    HW131649   5.253  11.328   2.320 -0.1762  0.6167  0.7701
40445SOL    HW231650   5.108  11.297   2.291 -0.3385  0.2715  1.8867
40446SOL     OW31651  11.147   5.816  10.660  0.0167  0.3320 -0.2402
40446SOL    HW131652  11.145   5.895  10.714 -0.1583  0.7794 -0.8900
40446SOL    HW231653  11.222   5.766  10.693  1.1956  1.5738 -0.9091
40447SOL     OW31654   9.863   1.064  12.719  0.1539 -0.8469 -0.3037
40447SOL    HW131655   9.823   1.049  12.805  1.6255 -3.1658  0.0673
40447SOL    HW231656   9.939   1.120  12.737 -0.1320 -0.4725 -0.2589
40448SOL     OW31657   4.880   2.062   5.964 -0.0526 -0.3069  0.2101
40448SOL    HW131658   4.799   2.012   5.948  0.1014  0.2085 -2.7308
40448SOL    HW231659   4.949   1.995   5.965 -0.2817 -0.5432  0.4138
40449SOL     OW31660  11.050  10.186   8.721  0.2671  0.1802 -0.4502
40449SOL    HW131661  10.988  10.144   8.781 -0.3895 -0.8076 -1.7529
40449SOL    HW231662  11.103  10.113   8.687  0.3437  0.6477 -1.3702
40450SOL     OW31663   5.009   7.298   0.912  0.0812  0.2121 -0.4414
40450SOL    HW131664   4.919   7.327   0.924  0.3842  0.4920  1.4355
40450SOL    HW231665   5.061   7.379   0.907  0.3059  0.0487 -0.8035
40451SOL     OW31666  12.739   3.633   4.503 -0.2335 -0.4928  0.0282
40451SOL    HW131667  12.800   3.670   4.567  1.0347 -2.2796 -0.0698
40451SOL    HW231668  12.686   3.571   4.554 -1.4646  0.4502 -0.0542
40452SOL     OW31669   5.416   2.838  11.619 -0.4633  0.5079 -0.6585
40452SOL    HW131670   5.493   2.840  11.676 -0.2244  0.7419 -0.9892
40452SOL    HW231671   5.382   2.927  11.621 -1.7149  0.0231  0.8214
40453SOL     OW31672  11.455   3.160   6.142 -0.3320 -0.3476 -0.0944
40453SOL    HW131673  11.482   3.210   6.066  0.7412 -0.7507  0.0034
40453SOL    HW231674  11.401   3.089   6.106  0.5592 -0.8164 -0.5487
40454SOL     OW31675   3.424   2.931   9.267  0.2128 -0.4944 -0.1366
40454SOL    HW131676   3.345   2.984   9.252  0.3316  0.0122  0.8686
40454SOL    HW231677   3.424   2.916   9.362  0.5755 -1.7034 -0.3171
40455SOL     OW31678  11.722   2.276   5.441 -0.0838  0.3737 -0.2252
40455SOL    HW131679  11.706   2.228   5.360 -1.6529  0.7347 -0.1595
40455SOL    HW231680  11.641   2.325   5.457 -0.4536 -0.8879  2.3633
40456SOL     OW31681   5.048  11.934   0.443  0.2289 -0.3055 -0.1466
40456SOL    HW131682   5.025  11.841   0.447  1.0027 -0.5927 -1.5761
40456SOL    HW231683   5.137  11.938   0.477 -0.5602  0.2799  2.0127
40457SOL     OW31684   8.430   8.711   1.097  1.2160 -0.1520 -0.1739
40457SOL    HW131685   8.513   8.670   1.121  1.5352  0.5586 -0.0437
40457SOL    HW231686   8.365   8.671   1.155  1.0672 -2.2822 -1.6873
40458SOL     OW31687   0.003   2.837   5.009  0.2564  0.2936  0.2880
40458SOL    HW131688  -0.037   2.845   5.096  1.0544 -2.4850  1.0233
40458SOL    HW231689   0.069   2.769   5.020  2.4437  1.9021 -1.8465
40459SOL     OW31690  11.674   6.581   1.677 -0.7421  0.3947  0.4747
40459SOL    HW131691  11.626   6.596   1.596 -0.5442  0.4649  0.3721
40459SOL    HW231692  11.753   6.535   1.650 -0.8370  0.1129  0.6656
40460SOL     OW31693   9.942   1.061   4.703  1.1747 -0.0106  0.0695
40460SOL    HW131694   9.991   0.981   4.684  2.1231  0.4311  0.5993
40460SOL    HW231695   9.935   1.106   4.618 -0.1229 -1.0344 -0.4107
40461SOL     OW31696  12.235   4.012  10.726 -0.2243  0.7258  0.3896
40461SOL    HW131697  12.287   4.076  10.774 -0.5799  1.9181 -0.7857
40461SOL    HW231698  12.260   3.928  10.765  2.0751  1.3124  0.3308
40462SOL     OW31699   8.474  12.139   7.630 -0.4633 -0.5138  0.2044
40462SOL    HW131700   8.432  12.145   7.543 -1.1163 -1.4794  0.4342
40462SOL    HW231701   8.446  12.054   7.663 -2.0622  0.7265  2.3054
40463SOL     OW31702  10.762   6.369   3.565  0.1704 -0.0817 -0.3613
40463SOL    HW131703  10.854   6.343   3.559  0.4675  1.0639 -1.0456
40463SOL    HW231704  10.716   6.308   3.508  0.6166 -0.1719 -0.6304
40464SOL     OW31705   6.031  11.060   1.892  0.3357 -0.0195  0.1203
40464SOL    HW131706   6.013  10.975   1.930 -0.0832  1.7705  4.4980
40464SOL    HW231707   5.960  11.116   1.922 -1.3504  1.4452 -5.3732
40465SOL     OW31708   3.755   0.283   5.114  0.3155 -0.0579  0.1281
40465SOL    HW131709   3.820   0.321   5.055  0.8737 -1.2887 -0.0711
40465SOL    HW231710   3.745   0.348   5.184 -0.4064  1.4656 -1.3248
40466SOL     OW31711  11.058   1.874   5.435  0.6628 -0.1984 -1.0280
40466SOL    HW131712  11.040   1.804   5.372 -1.1127 -0.7419  0.0229
40466SOL    HW231713  11.062   1.953   5.381  0.3377 -0.7875 -1.9564
40467SOL     OW31714   3.330  10.346  12.339 -0.8037  0.1732  0.1583
40467SOL    HW131715   3.252  10.397  12.317 -0.9478 -0.0334  0.1795
40467SOL    HW231716   3.308  10.305  12.423 -0.5779  0.3074  0.2815
40468SOL     OW31717  10.570   9.557   9.529 -0.4448  0.2659 -0.7901
40468SOL    HW131718  10.482   9.521   9.514  0.6455 -2.0378 -2.2469
40468SOL    HW231719  10.627   9.505   9.473  2.0950  0.6538  1.2238
40469SOL     OW31720   5.331   1.153  10.546 -0.0836  0.0668  0.4755
40469SOL    HW131721   5.272   1.176  10.474  0.6130  1.9352  0.4423
40469SOL    HW231722   5.274   1.124  10.616 -0.8232 -1.0858 -0.5792
40470SOL     OW31723   2.778   2.941  12.867  0.0740 -0.1408 -0.6144
40470SOL    HW131724   2.756   2.853  12.836 -1.5800  0.2965 -0.7656
40470SOL    HW231725   2.702   2.994  12.844  0.5364  1.0778  0.5536
40471SOL     OW31726   9.171   2.880   6.966  0.0179  0.1374 -0.3838
40471SOL    HW131727   9.169   2.790   7.000  2.0970  0.8790  2.0000
40471SOL    HW231728   9.264   2.899   6.955 -0.4320  1.3992 -2.7833
40472SOL     OW31729   2.225   9.222   8.007  0.2359  0.2616  0.6662
40472SOL    HW131730   2.155   9.157   8.011 -1.7586  2.3172  2.2229
40472SOL    HW231731   2.300   9.175   7.971 -0.5308 -3.3390  3.1919
40473SOL     OW31732  11.132   0.626   9.266  0.3045  0.3539 -0.1108
40473SOL    HW131733  11.212   0.578   9.244 -0.0036  0.2944 -1.1792
40473SOL    HW231734  11.066   0.558   9.278  0.4115  0.4032  0.7730
40474SOL     OW31735   0.705   0.994   7.336  0.1461  0.6901  0.5567
40474SOL    HW131736   0.752   1.001   7.253 -0.5461  1.1065  0.1825
40474SOL    HW231737   0.764   1.030   7.401  1.0818 -0.4964  0.4133
40475SOL     OW31738   7.415  12.371   3.256  0.0279  0.1342  0.2232
40475SOL    HW131739   7.491  12.390   3.312 -0.4817  2.0188  0.3447
40475SOL    HW231740   7.359  12.448   3.265 -1.3728 -0.7231 -0.7652
40476SOL     OW31741   4.249   8.841   5.605  0.4928  0.1795  0.1560
40476SOL    HW131742   4.307   8.887   5.666 -0.4934 -0.4099  1.5900
40476SOL    HW231743   4.163   8.881   5.619 -0.2554 -1.6163  0.9904
40477SOL     OW31744   9.421  12.515   1.756 -0.2318  0.1538 -0.7250
40477SOL    HW131745   9.376  12.577   1.814  0.6544  0.4526 -0.3531
40477SOL    HW231746   9.498  12.486   1.805  0.0180 -0.3250 -1.3761
40478SOL     OW31747   8.864   8.879   2.728  0.5075 -0.1662  0.1500
40478SOL    HW131748   8.929   8.943   2.757  0.1336  1.0609 -1.5006
40478SOL    HW231749   8.915   8.808   2.691  0.9218 -0.1680  0.7134
40479SOL     OW31750  11.700   3.969   8.050 -0.1970 -0.1040 -0.4544
40479SOL    HW131751  11.697   4.021   7.970 -2.8102 -0.0591 -0.4158
40479SOL    HW231752  11.669   3.882   8.024  1.1650 -0.7988  0.0916
40480SOL     OW31753   6.893   4.498   1.536  0.1917 -0.6268 -0.3604
40480SOL    HW131754   6.801   4.471   1.532  0.3804 -1.4715  0.4996
40480SOL    HW231755   6.918   4.481   1.627  0.3059  2.6830  0.3240
40481SOL     OW31756   2.107   4.013   1.591  0.0386 -0.0787 -1.1003
40481SOL    HW131757   2.092   4.064   1.511 -0.5071  1.6534  0.0516
40481SOL    HW231758   2.159   3.938   1.562 -1.3977 -0.3208 -3.3330
40482SOL     OW31759   9.338  10.345   8.720  0.0757  0.1532  0.3499
40482SOL    HW131760   9.313  10.386   8.637 -0.6845 -1.3107 -0.1719
40482SOL    HW231761   9.330  10.416   8.785 -0.9405  0.8946 -0.5502
40483SOL     OW31762   0.098  11.336   8.945  0.3350 -0.6892  0.7099
40483SOL    HW131763   0.039  11.371   9.012 -0.8401 -0.2219 -0.5040
40483SOL    HW231764   0.106  11.407   8.882  0.6992 -1.4177 -0.0794
40484SOL     OW31765   4.999   8.934   8.089 -0.2012 -0.3084  0.3609
40484SOL    HW131766   5.036   8.887   8.014 -2.5786  1.1455 -1.8657
40484SOL    HW231767   4.979   9.021   8.056  0.3444  1.0360  3.2591
40485SOL     OW31768   2.776   5.581   0.390 -0.1123 -0.9820 -0.3937
40485SOL    HW131769   2.860   5.554   0.352  0.4300 -0.8165  0.6559
40485SOL    HW231770   2.747   5.504   0.439  2.3746  0.6948  4.2375
40486SOL     OW31771   8.509   3.679   2.487  0.2766  0.0404 -0.6445
40486SOL    HW131772   8.586   3.662   2.540  0.5852 -0.3620 -1.2124
40486SOL    HW231773   8.438   3.689   2.550  0.6014 -0.6119 -0.1616
40487SOL     OW31774   5.562   8.623   8.255  0.3260 -0.4737  0.3177
40487SOL    HW131775   5.487   8.577   8.217  0.0269  0.3069 -0.0657
40487SOL    HW231776   5.529   8.659   8.337 -0.9605  3.0963 -1.5363
40488SOL     OW31777   2.183  11.867   0.669 -0.1032 -0.3078 -0.0278
40488SOL    HW131778   2.157  11.804   0.736 -0.1734  0.7937  1.0021
40488SOL    HW231779   2.139  11.948   0.694 -2.2235 -0.4549 -2.8049
40489SOL     OW31780   5.632   2.266   8.824 -0.3613 -0.3606  0.2161
40489SOL    HW131781   5.551   2.312   8.801 -0.1501 -1.1802 -2.5372
40489SOL    HW231782   5.604   2.177   8.845 -0.4668  0.1956  2.6373
40490SOL     OW31783   2.659  11.032   7.856  0.2719 -0.1598 -0.5107
40490SOL    HW131784   2.602  11.109   7.858  2.3010  1.4480 -1.2630
40490SOL    HW231785   2.599  10.959   7.840 -1.6002  1.3959 -0.9978
40491SOL     OW31786   0.459   4.681  12.792  0.0084  0.9716 -0.3299
40491SOL    HW131787   0.436   4.618  12.724 -2.7119  2.1532 -0.6196
40491SOL    HW231788   0.480   4.761  12.744 -1.3326  1.6385  0.1474
40492SOL     OW31789  11.255   2.294  11.457  0.1122  0.1505 -0.3607
40492SOL    HW131790  11.183   2.320  11.515  0.9349 -1.4102  1.5055
40492SOL    HW231791  11.329   2.279  11.516  1.2685 -0.6534 -1.9329
40493SOL     OW31792   9.544  11.252   0.692 -0.9148  0.1771 -0.1962
40493SOL    HW131793   9.471  11.194   0.717  0.2830 -0.4933  2.0067
40493SOL    HW231794   9.505  11.340   0.690 -1.7299 -0.1026  1.4678
40494SOL     OW31795  11.689   1.853   3.564 -0.9014 -0.7847 -0.1343
40494SOL    HW131796  11.683   1.897   3.479  3.1353  1.2396  0.3756
40494SOL    HW231797  11.737   1.915   3.619 -1.0862 -3.0990  2.8705
40495SOL     OW31798   5.656   9.853  11.732 -0.3148  0.6085  0.1246
40495SOL    HW131799   5.607   9.825  11.810  1.2979 -0.1908  0.8981
40495SOL    HW231800   5.709   9.927  11.763  0.1133  0.4772 -0.2883
40496SOL     OW31801   9.265  10.772   1.286 -0.0049 -0.1374 -0.1365
40496SOL    HW131802   9.283  10.712   1.214  1.1103  0.9610 -0.8018
40496SOL    HW231803   9.334  10.754   1.350 -0.5547 -0.5915  0.3419
40497SOL     OW31804   9.641   4.257   7.773  0.2651  0.4138  0.0585
40497SOL    HW131805   9.621   4.283   7.683 -2.3310  0.2552  0.5047
40497SOL    HW231806   9.720   4.307   7.796  0.4406  1.1487 -1.9847
40498SOL     OW31807  10.096  12.715  11.576 -0.5620  0.3878 -0.6671
40498SOL    HW131808  10.173  12.767  11.596 -0.7134  0.4064 -0.1169
40498SOL    HW231809  10.023  12.776  11.581 -0.8080  0.0313  0.5537
40499SOL     OW31810   0.856   0.658  12.720 -0.7444  0.4284  0.4171
40499SOL    HW131811   0.878   0.595  12.789  2.5262  0.0493 -0.7850
40499SOL    HW231812   0.888   0.742  12.754 -0.0762  0.4172 -0.1511
40500SOL     OW31813   3.652   1.254   4.136  0.4531 -0.0179  0.8664
40500SOL    HW131814   3.618   1.334   4.096  1.0966  0.0755  0.4911
40500SOL    HW231815   3.582   1.190   4.125  0.5881  0.0256 -0.3592
40501SOL     OW31816   9.002   1.846  11.396 -0.4461 -0.1239 -0.0428
40501SOL    HW131817   9.042   1.900  11.328 -1.4118  0.6746 -0.0090
40501SOL    HW231818   8.972   1.768  11.350  1.4995 -0.9383  0.0123
40502SOL     OW31819   3.522  10.490  10.892 -0.4438  0.0874  0.2916
40502SOL    HW131820   3.454  10.514  10.955 -0.5644 -1.5511  0.8491
40502SOL    HW231821   3.487  10.413  10.847  0.6968 -0.3248  0.0526
40503SOL     OW31822   1.043   0.300   6.952 -0.4820  0.9135 -0.9300
40503SOL    HW131823   0.995   0.377   6.980 -0.8643  0.4350 -0.2555
40503SOL    HW231824   1.135   0.323   6.964 -0.5776 -0.2013  3.4894
40504SOL     OW31825   0.564  11.767   9.129 -0.3813  0.1259 -0.6434
40504SOL    HW131826   0.642  11.780   9.183  0.1238  2.5414 -1.8136
40504SOL    HW231827   0.507  11.841   9.151 -1.2909 -0.2967 -1.5240
40505SOL     OW31828  11.723   8.330   0.258  0.2413 -1.2302 -0.2825
40505SOL    HW131829  11.755   8.299   0.343  0.0834 -1.7981 -0.4262
40505SOL    HW231830  11.650   8.272   0.237 -0.4837 -0.3448 -0.2599
40506SOL     OW31831   7.158   8.850  10.903  0.1350 -0.5173 -0.5642
40506SOL    HW131832   7.080   8.877  10.951  0.0484 -2.7034  0.6499
40506SOL    HW231833   7.131   8.851  10.811 -0.8684  0.1001 -0.2864
40507SOL     OW31834   6.038   1.120  12.186  0.1256  0.1152 -0.2608
40507SOL    HW131835   5.985   1.045  12.211  0.2935 -0.3010 -1.1107
40507SOL    HW231836   6.129   1.092  12.199  0.2000  0.0514 -0.8869
40508SOL     OW31837   0.972   2.012   3.261 -0.0082 -0.2454 -0.5742
40508SOL    HW131838   0.900   2.068   3.288  0.4629  0.0614  0.0853
40508SOL    HW231839   1.039   2.025   3.328  0.8651 -0.1183 -1.4360
40509SOL     OW31840   3.882   6.651   2.179  0.0114 -0.0912  0.1615
40509SOL    HW131841   3.880   6.743   2.205 -0.0296  0.1401 -0.6190
40509SOL    HW231842   3.791   6.629   2.159 -0.3430 -0.9633  2.4759
40510SOL     OW31843  10.609   3.364   6.362  0.1416 -0.1502 -0.0356
40510SOL    HW131844  10.545   3.301   6.394 -0.7114  1.2287  1.0994
40510SOL    HW231845  10.655   3.319   6.291 -1.0293 -1.7060  0.1600
40511SOL     OW31846   2.161   6.397  11.457 -0.3340 -0.0958 -0.1327
40511SOL    HW131847   2.125   6.316  11.421 -0.4599  0.0011 -0.2287
40511SOL    HW231848   2.255   6.391  11.441 -0.0945 -1.0183  1.4563
40512SOL     OW31849   9.295   0.193   8.016 -0.1136  0.4247 -0.1802
40512SOL    HW131850   9.261   0.133   8.083  0.3584 -0.0499 -0.3588
40512SOL    HW231851   9.227   0.194   7.949 -0.9740  1.5675  0.6887
40513SOL     OW31852  12.415   3.021  10.292 -0.0496 -0.4036 -0.1113
40513SOL    HW131853  12.363   3.049  10.217  0.5619  0.0932 -0.3570
40513SOL    HW231854  12.504   3.047  10.271 -0.0181  0.7267  1.2638
40514SOL     OW31855  10.155   2.030   9.192 -0.0545  0.2595  0.2275
40514SOL    HW131856  10.072   2.071   9.169 -0.8938 -0.3374  2.0158
40514SOL    HW231857  10.174   1.971   9.119 -1.0298  0.6283 -0.3414
40515SOL     OW31858  12.711   7.759   8.568  0.5702  0.4843  0.3578
40515SOL    HW131859  12.648   7.699   8.609 -0.6705  2.3939  1.3986
40515SOL    HW231860  12.673   7.846   8.580  1.4596  1.4153 -2.5698
40516SOL     OW31861   4.668  10.883   4.136  0.0866 -0.0285 -0.3311
40516SOL    HW131862   4.698  10.950   4.197  1.8139  0.2022 -1.3673
40516SOL    HW231863   4.604  10.833   4.186  0.7217  0.7398  1.3540
40517SOL     OW31864  10.343   2.525  12.567  0.0343 -0.2935 -0.1751
40517SOL    HW131865  10.363   2.608  12.524 -2.2917 -0.0860 -0.9920
40517SOL    HW231866  10.252   2.534  12.595  0.3132 -1.8882  1.4054
40518SOL     OW31867  10.585   5.769  11.015  0.6532  0.4098  0.1929
40518SOL    HW131868  10.552   5.700  10.957  0.0622  0.4411  0.4778
40518SOL    HW231869  10.598   5.725  11.100 -1.6753  1.0346  0.9498
40519SOL     OW31870   0.160   6.716   4.954 -0.3614  0.7787  0.1943
40519SOL    HW131871   0.180   6.738   5.045 -0.3777 -0.4897  0.5230
40519SOL    HW231872   0.245   6.693   4.915 -0.3226  1.5266 -0.1827
40520SOL     OW31873   4.258   0.479   5.737  0.2472  0.1256 -0.2634
40520SOL    HW131874   4.352   0.492   5.721  0.4741 -0.0650  0.7985
40520SOL    HW231875   4.228   0.561   5.775  0.2969 -0.2618  0.6459
40521SOL     OW31876   6.111  10.737   9.684 -0.1012  0.1293 -0.4620
40521SOL    HW131877   6.175  10.804   9.706  0.6841 -1.0505  1.0426
40521SOL    HW231878   6.163  10.662   9.656 -0.8119 -0.7321  0.4442
40522SOL     OW31879   6.247  10.731  10.729 -0.4139  0.3847 -0.1647
40522SOL    HW131880   6.165  10.780  10.729 -0.1705  0.8074 -0.6948
40522SOL    HW231881   6.234  10.664  10.662  0.1220  1.2481 -1.1603
40523SOL     OW31882   1.764   3.600   4.229 -0.0272 -0.3596 -0.7102
40523SOL    HW131883   1.711   3.674   4.257  0.1613  0.1559 -1.6699
40523SOL    HW231884   1.801   3.565   4.310 -1.3584 -0.3777 -0.0863
40524SOL     OW31885   9.775   4.423   2.149 -0.4448 -0.0238 -0.6807
40524SOL    HW131886   9.856   4.465   2.121 -0.7947  1.9623  1.0349
40524SOL    HW231887   9.778   4.335   2.111  2.9273 -0.3298  0.0217
40525SOL     OW31888   7.379   8.999   6.864 -0.1414  0.1916  0.1011
40525SOL    HW131889   7.355   9.011   6.956 -1.8547 -0.5616 -0.2028
40525SOL    HW231890   7.330   9.067   6.817  0.5439  0.4291 -0.2885
40526SOL     OW31891   6.694   1.316   3.301 -0.6055  0.4241  0.1250
40526SOL    HW131892   6.601   1.332   3.314 -1.0644 -1.1705 -0.8867
40526SOL    HW231893   6.712   1.347   3.212  0.2062  2.0820  0.8229
40527SOL     OW31894   8.857  12.528   4.438 -0.1464  0.3564  0.1224
40527SOL    HW131895   8.912  12.512   4.362  0.5777  0.2321  0.6632
40527SOL    HW231896   8.918  12.544   4.509 -0.7454 -1.2364  1.0669
40528SOL     OW31897   7.152   5.654   6.204  0.0289  0.1229 -0.1522
40528SOL    HW131898   7.192   5.590   6.264 -0.9766 -1.5099 -1.1481
40528SOL    HW231899   7.210   5.653   6.128 -0.3616 -0.1335 -0.4493
40529SOL     OW31900   9.752   6.276   0.784  0.2248 -0.6513 -0.2375
40529SOL    HW131901   9.683   6.280   0.718 -0.5201  0.5454  0.5701
40529SOL    HW231902   9.814   6.344   0.758 -0.3333  0.1879  0.5299
40530SOL     OW31903   4.275   0.308   3.913  0.1664  0.6698  0.0805
40530SOL    HW131904   4.292   0.304   3.819 -1.4045  0.2023 -0.2109
40530SOL    HW231905   4.339   0.248   3.951 -0.8639 -1.2219 -0.9885
40531SOL     OW31906   0.335   5.339  12.755 -0.0941 -0.2592  0.1371
40531SOL    HW131907   0.307   5.398  12.825  1.1845  0.7998 -0.1911
40531SOL    HW231908   0.378   5.266  12.801 -1.7875 -1.0294  0.5538
40532SOL     OW31909   0.004   0.319   2.454  0.1948  0.1665  0.1959
40532SOL    HW131910   0.009   0.313   2.549 -0.3247  1.1647  0.3013
40532SOL    HW231911   0.090   0.290   2.424  1.0549  1.6515  1.0864
40533SOL     OW31912   3.963   3.406   5.108 -0.4878 -0.6227 -0.6253
40533SOL    HW131913   3.901   3.477   5.097 -0.8065 -0.6257  0.9603
40533SOL    HW231914   3.916   3.340   5.159  0.9729 -0.3330  1.2246
40534SOL     OW31915   3.171   0.153  10.300 -0.4969 -0.1783  0.1600
40534SOL    HW131916   3.133   0.228  10.255 -0.0946 -0.2247 -0.2620
40534SOL    HW231917   3.199   0.095  10.230  2.1609  0.7265  0.3729
40535SOL     OW31918   4.908  12.210   8.015  0.7276 -0.1605 -0.1931
40535SOL    HW131919   4.875  12.122   8.031  0.1228  0.2126  0.6102
40535SOL    HW231920   5.003  12.198   8.006  0.6983 -0.8358  0.3304
40536SOL     OW31921  11.682  10.818   5.658 -0.1543 -0.2161  0.2242
40536SOL    HW131922  11.760  10.779   5.697  0.2258 -0.5468 -0.8358
40536SOL    HW231923  11.652  10.883   5.722  1.2304  0.2138  0.4560
40537SOL     OW31924   6.402   7.483   7.578 -0.7627  0.5133 -0.1183
40537SOL    HW131925   6.416   7.578   7.584 -0.4273  0.3826  3.3397
40537SOL    HW231926   6.425   7.461   7.488 -0.3313  3.6235 -0.8898
40538SOL     OW31927   8.319   1.964   1.096  0.1345 -0.0775  0.2074
40538SOL    HW131928   8.346   1.902   1.164 -0.0146  0.0272  0.3634
40538SOL    HW231929   8.296   1.909   1.021 -0.4903 -0.2450  0.5107
40539SOL     OW31930   3.081   9.760   4.978  0.5337  0.5155 -0.1341
40539SOL    HW131931   3.150   9.757   4.912  1.0262  1.4135  0.3108
40539SOL    HW231932   3.097   9.683   5.034  0.6406  0.2400 -0.5444
40540SOL     OW31933   1.452  10.552  10.523  0.6454 -0.0908  0.2221
40540SOL    HW131934   1.439  10.598  10.440  0.7204 -0.8085 -0.2003
40540SOL    HW231935   1.388  10.591  10.582 -2.2138 -2.1890 -1.2644
40541SOL     OW31936   3.140  10.218   5.906 -0.3869 -0.0257  0.1371
40541SOL    HW131937   3.176  10.261   5.828  1.9627  1.3454  1.8440
40541SOL    HW231938   3.161  10.125   5.894  3.0115  0.5767  0.5420
40542SOL     OW31939   3.674   6.765   5.050  0.3943 -0.0424 -0.2836
40542SOL    HW131940   3.700   6.809   5.131  1.0231 -0.0682 -0.4603
40542SOL    HW231941   3.579   6.761   5.053  0.3097  1.3901 -0.2820
40543SOL     OW31942  12.831   1.989  11.280 -0.0436  0.4420 -0.2176
40543SOL    HW131943  12.768   1.938  11.331  2.4973 -2.5880  0.2360
40543SOL    HW231944  12.908   1.995  11.337  1.4370  0.5632 -2.1238
40544SOL     OW31945   8.154  10.623  11.503 -0.2348  0.1637  0.1831
40544SOL    HW131946   8.190  10.654  11.587  1.1952  1.6006 -0.8835
40544SOL    HW231947   8.186  10.533  11.495  0.0123  0.1712  0.9673
40545SOL     OW31948   4.302   3.920   1.176 -0.1546  0.1771 -0.3807
40545SOL    HW131949   4.318   3.967   1.258  0.4876 -1.4902  0.5113
40545SOL    HW231950   4.345   3.972   1.109 -0.6926  1.5876  0.3263
40546SOL     OW31951   0.791  10.948   2.978  0.3468  0.2251 -0.2967
40546SOL    HW131952   0.793  11.044   2.969 -0.0693  0.2000 -0.6781
40546SOL    HW231953   0.768  10.933   3.070  0.5390  0.4909 -0.2041
40547SOL     OW31954   0.047   3.080   5.860 -0.4180  0.0869 -0.1326
40547SOL    HW131955   0.135   3.046   5.842 -1.2391 -2.6879  0.5038
40547SOL    HW231956   0.010   3.097   5.774  0.8093  1.5724 -0.3976
40548SOL     OW31957   4.099   3.363   2.617  0.1314 -0.0925  0.7176
40548SOL    HW131958   4.058   3.407   2.543 -0.5422 -1.7001  0.0945
40548SOL    HW231959   4.092   3.270   2.597 -0.1060 -0.5755  2.8221
40549SOL     OW31960   5.414  11.491   0.910  0.2905 -0.5094 -0.0637
40549SOL    HW131961   5.444  11.497   1.001 -0.5241 -0.1375  0.1952
40549SOL    HW231962   5.494  11.488   0.858  0.7718 -0.9899  0.6821
40550SOL     OW31963  12.049   6.964   2.228 -0.5011  0.0146 -0.2112
40550SOL    HW131964  12.042   6.871   2.248  1.0918 -0.5088 -1.8304
40550SOL    HW231965  12.143   6.983   2.232 -0.7768  1.4836 -0.1773
40551SOL     OW31966   5.397   2.016   1.523 -0.0510 -0.4409  0.1831
40551SOL    HW131967   5.450   2.092   1.548  0.3613 -0.2305 -1.2122
40551SOL    HW231968   5.350   1.991   1.603  0.9972  0.3121  1.0535
40552SOL     OW31969  10.103   7.229   2.399 -0.0814 -0.2088  0.6674
40552SOL    HW131970  10.039   7.171   2.441  0.1427 -0.1932  1.0393
40552SOL    HW231971  10.175   7.172   2.376  0.2106 -0.0565  1.1837
40553SOL     OW31972   0.501   6.790   1.084 -0.4802 -0.2330 -0.2869
40553SOL    HW131973   0.481   6.880   1.109  0.2473 -0.5272  1.5276
40553SOL    HW231974   0.471   6.737   1.158  0.6803 -1.3002 -0.5413
40554SOL     OW31975   8.251  11.030   3.947 -0.3713 -0.1811 -0.5136
40554SOL    HW131976   8.292  10.944   3.937 -1.8850 -0.6765 -3.2010
40554SOL    HW231977   8.314  11.091   3.908 -1.2852 -0.7050 -2.9192
40555SOL     OW31978   1.743   9.894   3.466  0.5033  0.4096  0.2547
40555SOL    HW131979   1.765   9.805   3.494 -1.5868  0.0577  0.9237
40555SOL    HW231980   1.656   9.886   3.427  0.3217  2.1601  0.2159
40556SOL     OW31981   9.063   3.976   0.369  0.4800 -0.0156 -0.2826
40556SOL    HW131982   8.976   3.984   0.408  0.4051  1.0898 -0.6277
40556SOL    HW231983   9.052   3.914   0.297  0.2782 -0.8736  0.4739
40557SOL     OW31984   8.946  12.872   4.329 -0.0998 -0.0538  0.0402
40557SOL    HW131985   9.028  12.838   4.294 -0.0310  0.5758 -0.4248
40557SOL    HW231986   8.963  12.965   4.345 -0.5771 -0.0192  0.3802
40558SOL     OW31987   9.191   2.738   4.479  0.1916  0.2586  0.3259
40558SOL    HW131988   9.227   2.668   4.425 -1.0023 -0.3552  0.2871
40558SOL    HW231989   9.262   2.762   4.538  0.9536 -0.2596 -0.3566
40559SOL     OW31990  11.949  12.559   5.823 -0.3989  0.1786  0.3052
40559SOL    HW131991  12.003  12.631   5.856  1.0919 -0.2206 -1.1293
40559SOL    HW231992  12.001  12.521   5.752 -1.9749 -1.1392 -0.1953
40560SOL     OW31993   0.637   2.508   5.128 -0.2079 -0.0506 -0.3591
40560SOL    HW131994   0.689   2.574   5.174 -1.6444  0.5843  0.4075
40560SOL    HW231995   0.673   2.424   5.157  0.1446  0.3732  0.4450
40561SOL     OW31996   0.751   2.934   2.945 -0.4222 -0.3379  0.6252
40561SOL    HW131997   0.725   2.863   2.886 -1.2143  0.8158 -0.4463
40561SOL    HW231998   0.846   2.941   2.933 -0.4765 -0.5666  0.0009
40562SOL     OW31999   7.283   4.358   6.663  0.0756 -0.3875 -0.7918
40562SOL    HW132000   7.249   4.405   6.587  0.4050  1.6311  0.2320
40562SOL    HW232001   7.370   4.328   6.636  1.6533  3.1705 -0.3259
40563SOL     OW32002   4.144   8.756  12.390 -0.3459 -0.4110 -0.6682
40563SOL    HW132003   4.154   8.687  12.325 -0.8107 -0.8223 -0.3072
40563SOL    HW232004   4.220   8.745  12.448  0.5381  0.4905 -1.6125
40564SOL     OW32005  10.542  11.752   1.770  0.6091  0.4799 -0.4197
40564SOL    HW132006  10.507  11.663   1.781 -0.6127  0.7431 -1.8955
40564SOL    HW232007  10.629  11.748   1.811  0.3351 -1.2157  0.1014
40565SOL     OW32008   7.019   9.557   8.635  0.0144  0.7605 -0.1288
40565SOL    HW132009   7.049   9.646   8.617 -2.7201  1.6495 -0.8635
40565SOL    HW232010   6.977   9.563   8.720 -0.1564  0.1678 -0.1679
40566SOL     OW32011   5.309   3.981   7.050  0.0013 -0.6273  0.5988
40566SOL    HW132012   5.369   3.927   6.997 -0.0606 -0.1756  0.0613
40566SOL    HW232013   5.361   4.058   7.074  0.5412 -1.5376  2.5442
40567SOL     OW32014   5.381   0.754   9.457 -0.1349  0.5291 -0.2684
40567SOL    HW132015   5.459   0.747   9.402 -0.5521  0.0364 -0.8124
40567SOL    HW232016   5.310   0.722   9.402 -0.6290  0.4180  0.4184
40568SOL     OW32017   0.127   1.999   6.824 -0.4614 -0.6470  0.3082
40568SOL    HW132018   0.220   2.007   6.848 -0.6054  3.2874  0.2097
40568SOL    HW232019   0.119   2.049   6.742 -3.0915  1.8232  1.8872
40569SOL     OW32020  11.306   0.117   4.981  0.5821 -0.7492  0.2519
40569SOL    HW132021  11.322   0.072   5.064  1.2151 -0.8540  0.0777
40569SOL    HW232022  11.268   0.049   4.925  1.2505 -0.9968  0.0872
40570SOL     OW32023   9.832  12.740   1.917  0.0835 -0.7270 -0.4056
40570SOL    HW132024   9.843  12.687   1.997  2.5368 -1.3227 -1.0600
40570SOL    HW232025   9.878  12.822   1.936 -0.5813 -0.2747 -0.7103
40571SOL     OW32026   4.465   1.629   6.957  0.4840 -0.2414  0.0519
40571SOL    HW132027   4.550   1.647   6.917  0.8990 -0.4425  0.8220
40571SOL    HW232028   4.485   1.572   7.031 -0.4789 -1.4049 -0.5489
40572SOL     OW32029   2.183   5.494   5.653 -0.2140 -0.0882  0.2312
40572SOL    HW132030   2.136   5.577   5.660  1.4723  0.9011  0.4179
40572SOL    HW232031   2.225   5.482   5.738  0.4785 -0.5528 -0.1602
40573SOL     OW32032   1.717   0.547   0.254 -0.1095  0.3560  0.2560
40573SOL    HW132033   1.704   0.459   0.217 -1.6718  0.2379  1.0155
40573SOL    HW232034   1.678   0.606   0.190  1.6607  0.6110 -0.6493
40574SOL     OW32035   6.077   1.860   0.794 -0.1612  0.4609  0.2677
40574SOL    HW132036   6.074   1.765   0.782  1.8309  0.4595 -0.7247
40574SOL    HW232037   6.122   1.893   0.716 -1.6272  2.3515  0.1337
40575SOL     OW32038   2.796   2.951   9.755 -0.1243 -0.2603  0.4989
40575SOL    HW132039   2.791   2.957   9.850 -1.0485  1.5817  0.3953
40575SOL    HW232040   2.776   2.860   9.735 -0.4664 -0.5501  2.0341
40576SOL     OW32041   4.997  11.466  10.439 -0.0520  0.4011  0.4402
40576SOL    HW132042   5.080  11.507  10.462  1.1813 -1.7224  0.0815
40576SOL    HW232043   4.983  11.489  10.348  1.0607 -0.5681 -0.0073
40577SOL     OW32044   5.533   6.547   2.801 -0.3391 -0.7588 -0.1225
40577SOL    HW132045   5.467   6.501   2.853  0.0574 -0.3064  0.8101
40577SOL    HW232046   5.500   6.637   2.795  1.0006 -0.0538  1.9018
40578SOL     OW32047   5.208   4.323   6.628 -0.0423 -0.6608 -0.6428
40578SOL    HW132048   5.176   4.241   6.589  1.5287 -1.9423  0.5966
40578SOL    HW232049   5.293   4.299   6.666  0.5583  1.6257 -0.4375
40579SOL     OW32050   7.818   0.009   9.775  0.1121  0.2421 -0.3190
40579SOL    HW132051   7.890  -0.044   9.809 -0.1490  1.0163  1.5616
40579SOL    HW232052   7.861   0.071   9.715  0.9696  0.4168  0.4520
40580SOL     OW32053   8.479   0.289   4.137 -0.5604 -0.0598 -0.3655
40580SOL    HW132054   8.510   0.204   4.106  0.3538  0.3795 -0.6846
40580SOL    HW232055   8.389   0.295   4.104  0.1754  0.1414 -2.4732
40581SOL     OW32056   4.346   2.468   3.418 -0.5020 -0.4563  0.7952
40581SOL    HW132057   4.347   2.562   3.400 -0.5802 -0.3413  1.3533
40581SOL    HW232058   4.266   2.455   3.469 -0.7851 -0.9223  0.2364
40582SOL     OW32059   7.394   5.759   7.308  0.1625  0.3925 -0.6028
40582SOL    HW132060   7.444   5.725   7.382 -1.9760 -1.3143  0.1482
40582SOL    HW232061   7.312   5.790   7.346 -0.2013  1.2570 -2.0266
40583SOL     OW32062   4.341  10.771   6.012  0.3591  0.7942  0.4003
40583SOL    HW132063   4.405  10.760   5.941  1.1776  1.3755  1.0268
40583SOL    HW232064   4.299  10.685   6.020  0.4793  0.6364 -0.5758
40584SOL     OW32065   7.919  11.446   0.854  0.2930 -0.0013  0.0297
40584SOL    HW132066   7.957  11.534   0.856  1.3036 -0.4341  0.4827
40584SOL    HW232067   7.994  11.387   0.856 -0.3884 -0.8915  1.4388
40585SOL     OW32068  11.897   2.349   7.099  0.1694  0.1728 -0.2030
40585SOL    HW132069  11.843   2.349   7.020 -0.2099 -0.3273  0.0463
40585SOL    HW232070  11.980   2.309   7.071 -0.2578 -0.7690 -0.1692
40586SOL     OW32071  11.582  12.187   3.723  0.1170  0.0233 -0.3373
40586SOL    HW132072  11.505  12.132   3.733 -1.1304  1.6005 -0.8737
40586SOL    HW232073  11.564  12.264   3.777  1.4204  0.3301 -0.2941
40587SOL     OW32074   5.306   7.115   7.395 -0.2841  0.3815 -0.2800
40587SOL    HW132075   5.365   7.174   7.349 -2.0069  1.3303 -1.4195
40587SOL    HW232076   5.315   7.032   7.349  1.1302  0.1072  0.4410
40588SOL     OW32077  12.723  12.755   6.642 -0.5364  0.0441  0.3852
40588SOL    HW132078  12.805  12.722   6.607  2.3885  2.6487  4.0010
40588SOL    HW232079  12.679  12.679   6.679  0.7058 -1.2530 -0.7276
40589SOL     OW32080   5.310   9.917   6.871 -0.1928  0.2265 -0.0415
40589SOL    HW132081   5.385   9.959   6.912  0.1631 -0.4830  0.0424
40589SOL    HW232082   5.235   9.943   6.925 -0.4126  2.8249 -1.4109
40590SOL     OW32083   1.867  12.432   9.376  0.2408 -0.0793  0.6557
40590SOL    HW132084   1.783  12.478   9.368  1.3298  2.2559  1.7242
40590SOL    HW232085   1.895  12.419   9.285 -0.1131  1.4368  0.2893
40591SOL     OW32086   5.568   7.743   8.208  0.1621 -0.1751  0.4361
40591SOL    HW132087   5.609   7.664   8.243  0.7124 -0.0038  0.1897
40591SOL    HW232088   5.474   7.725   8.211  0.2523 -0.5775  1.0028
40592SOL     OW32089  10.451   3.564   2.366  0.0501  0.3888 -0.2168
40592SOL    HW132090  10.495   3.500   2.310 -1.4396 -0.0019 -0.9908
40592SOL    HW232091  10.522   3.606   2.414  1.1410 -1.2041 -0.3581
40593SOL     OW32092   1.985   3.378   8.226  0.6597  0.1530 -0.5685
40593SOL    HW132093   1.924   3.307   8.246  0.1581  0.1523 -2.0562
40593SOL    HW232094   1.959   3.449   8.284 -0.7925  0.1656 -1.2061
40594SOL     OW32095  12.679   4.169   0.256 -0.0429 -0.1914  0.0060
40594SOL    HW132096  12.601   4.143   0.206  0.3410 -1.1858 -0.0983
40594SOL    HW232097  12.662   4.139   0.345  0.0162  0.0418  0.0981
40595SOL     OW32098   6.922  11.028   3.541  0.0368  0.3354 -0.9615
40595SOL    HW132099   6.922  11.120   3.512  0.6110  0.3878 -0.7903
40595SOL    HW232100   6.980  10.984   3.479  2.4705  0.7118  0.9497
40596SOL     OW32101   8.875   1.293   5.763  0.5154  0.0637 -0.5278
40596SOL    HW132102   8.875   1.242   5.844 -1.6491  1.2813  0.3281
40596SOL    HW232103   8.793   1.270   5.720  0.2220  1.6468 -0.8666
40597SOL     OW32104   6.269  10.417   0.609  0.3535 -0.1593  0.7066
40597SOL    HW132105   6.183  10.453   0.631  0.9814  1.9538 -0.0891
40597SOL    HW232106   6.275  10.425   0.514  1.9740  1.0460  0.8908
40598SOL     OW32107   6.730   1.416   2.006 -0.3045 -0.1282 -0.3430
40598SOL    HW132108   6.668   1.367   2.061  0.0369  0.5310  0.6571
40598SOL    HW232109   6.716   1.508   2.029  0.2202  0.1216 -0.9760
40599SOL     OW32110   8.752   6.896   3.242  0.2824 -0.4741 -0.2378
40599SOL    HW132111   8.671   6.940   3.267 -0.5216 -1.4011 -1.1368
40599SOL    HW232112   8.790   6.868   3.325 -0.0835  0.3357  0.2251
40600SOL     OW32113   3.732   6.204  11.594  0.2005 -0.0312  0.6987
40600SOL    HW132114   3.729   6.225  11.687 -1.6727 -0.2943  0.7183
40600SOL    HW232115   3.712   6.111  11.589  1.9579 -0.4305  0.1078
40601SOL     OW32116   3.380   9.720   5.875 -0.0168  0.5782 -0.2969
40601SOL    HW132117   3.286   9.707   5.870  0.2217 -2.8993  1.2217
40601SOL    HW232118   3.417   9.654   5.816  1.4444  0.5457  0.5878
40602SOL     OW32119   2.178   6.870  10.534  0.0918  0.0353  0.0180
40602SOL    HW132120   2.087   6.900  10.527  0.3230  1.1783  1.3747
40602SOL    HW232121   2.177   6.804  10.602  0.4081  0.7228  0.7046
40603SOL     OW32122   5.481   4.493   2.281  0.5174 -0.1014  0.2969
40603SOL    HW132123   5.488   4.496   2.377 -0.1289  0.1599  0.3454
40603SOL    HW232124   5.496   4.401   2.259  1.5253 -0.0073  0.5693
40604SOL     OW32125  12.367   1.469   4.307 -0.5595  0.3582  0.0604
40604SOL    HW132126  12.455   1.508   4.312 -0.3512 -0.1291  0.2520
40604SOL    HW232127  12.348   1.465   4.214  0.9887 -2.4965 -0.2435
40605SOL     OW32128   9.810  10.747  11.942  0.7473 -0.1036  0.4662
40605SOL    HW132129   9.863  10.807  11.890  0.8727  0.5992  1.3707
40605SOL    HW232130   9.848  10.661  11.926  2.0148  0.3569  0.9048
40606SOL     OW32131   4.518   1.682  11.955  0.1502  0.1197  0.2351
40606SOL    HW132132   4.481   1.663  11.868  0.6762 -0.6755  0.1754
40606SOL    HW232133   4.474   1.620  12.014  0.0340  0.4329  0.4765
40607SOL     OW32134   4.315  11.801   0.338  0.4612  0.1269 -0.0487
40607SOL    HW132135   4.385  11.772   0.280  1.8233 -0.4935  1.8397
40607SOL    HW232136   4.256  11.725   0.345 -0.3267  0.5673 -1.4338
40608SOL     OW32137   3.771   9.486  10.511  0.0677  0.1353  0.0934
40608SOL    HW132138   3.759   9.394  10.535 -0.3146  0.9538  3.7276
40608SOL    HW232139   3.685   9.514  10.478 -0.9624 -0.0764  2.3476
40609SOL     OW32140   0.316  10.944  11.007  0.2789  0.2595  0.3535
40609SOL    HW132141   0.340  10.903  10.924  1.0363 -0.0958  0.7315
40609SOL    HW232142   0.390  11.001  11.028 -0.2507  0.9433  0.4091
40610SOL     OW32143   3.289   8.183  12.440  0.4820 -0.3843  0.2155
40610SOL    HW132144   3.196   8.207  12.435  0.5143 -0.1398  0.7068
40610SOL    HW232145   3.322   8.232  12.516  1.6401  1.6441 -1.4841
40611SOL     OW32146   5.897   9.504   1.339 -0.2149 -0.1538  0.5296
40611SOL    HW132147   5.910   9.460   1.423  1.6241  0.6508  0.7030
40611SOL    HW232148   5.952   9.581   1.343 -0.2449  0.0162 -1.3563
40612SOL     OW32149  11.791   0.830   6.975 -0.1140 -0.1842  0.2066
40612SOL    HW132150  11.708   0.878   6.965  0.0643  0.0002 -0.4541
40612SOL    HW232151  11.782   0.784   7.059 -1.0508 -0.4833 -0.0395
40613SOL     OW32152   3.830   6.028  10.980  0.0716  0.7673 -0.3821
40613SOL    HW132153   3.923   6.006  10.974 -0.1152  0.3237 -2.5842
40613SOL    HW232154   3.823   6.081  11.059  1.4210 -2.8684  2.4774
40614SOL     OW32155   3.443   3.179  10.038  0.4704  0.2123  0.2184
40614SOL    HW132156   3.408   3.091  10.028  0.9874  0.1252 -0.9550
40614SOL    HW232157   3.428   3.201  10.130 -3.0393  0.3775 -0.2813
40615SOL     OW32158  11.156   2.949   3.473  0.4202 -0.1830 -0.5359
40615SOL    HW132159  11.102   3.018   3.513 -0.3387 -1.8757  1.5367
40615SOL    HW232160  11.093   2.880   3.452  1.0822 -0.0735 -3.1529
40616SOL     OW32161   2.960   6.634   1.374  0.4572  0.0901  0.3876
40616SOL    HW132162   2.966   6.724   1.406 -0.0722  0.1084  0.4422
40616SOL    HW232163   2.971   6.642   1.279 -0.1707  0.2800  0.3275
40617SOL     OW32164  10.487   6.382   4.747 -0.1137 -0.3209 -0.2343
40617SOL    HW132165  10.520   6.341   4.667  0.1630  0.7835 -0.6934
40617SOL    HW232166  10.554   6.446   4.771 -0.1468 -0.7049  0.9470
40618SOL     OW32167   0.223   9.068   4.728 -0.2818  0.2615 -0.5615
40618SOL    HW132168   0.287   9.075   4.798 -0.6404  0.1945 -0.2250
40618SOL    HW232169   0.141   9.048   4.772 -0.3392 -0.7043 -1.0752
40619SOL     OW32170  10.107   7.660  11.317  0.6875 -0.6205 -0.2364
40619SOL    HW132171  10.079   7.733  11.373  0.5996  0.8067 -2.0446
40619SOL    HW232172  10.203   7.664  11.320  0.6949  0.1473 -0.9842
40620SOL     OW32173   4.371   5.774   3.972 -0.2943  0.7560  0.0681
40620SOL    HW132174   4.402   5.745   3.886 -0.3116  0.9588 -0.0055
40620SOL    HW232175   4.451   5.779   4.025 -0.3033  0.4771  0.1087
40621SOL     OW32176   1.578   8.141   1.099  0.0445 -0.4966  0.1498
40621SOL    HW132177   1.671   8.118   1.109  0.4072  0.7674 -0.1791
40621SOL    HW232178   1.563   8.137   1.004 -0.1471 -0.3614  0.1748
40622SOL     OW32179  12.964   6.689   9.610 -0.6705 -0.3316  0.1345
40622SOL    HW132180  12.937   6.614   9.558 -1.1483 -0.6739  0.8546
40622SOL    HW232181  12.931   6.765   9.562  1.0010 -0.4629 -1.3191
40623SOL     OW32182  10.914  12.642   1.853  0.0990 -0.4157  0.4022
40623SOL    HW132183  10.844  12.687   1.805  1.4529  0.5724 -0.7520
40623SOL    HW232184  10.957  12.711   1.903  0.8208 -0.8179  0.3550
40624SOL     OW32185   4.409   0.885   3.007  0.1980  0.1566  0.4599
40624SOL    HW132186   4.362   0.954   2.959 -0.7993  0.0152  1.2069
40624SOL    HW232187   4.469   0.848   2.942 -0.5929  0.4696 -0.4816
40625SOL     OW32188   6.892   9.046   0.791  0.3746 -0.0282  0.5982
40625SOL    HW132189   6.830   9.093   0.735 -1.0743 -1.2414  1.1271
40625SOL    HW232190   6.913   8.966   0.743  2.6033  0.9408 -0.1676
40626SOL     OW32191   0.428   1.239  11.127  0.3493  0.0779  0.1364
40626SOL    HW132192   0.478   1.262  11.205 -0.7457  1.8186  0.3774
40626SOL    HW232193   0.458   1.151  11.104 -0.1370 -0.9846  3.1997
40627SOL     OW32194   3.170  12.815  11.878 -0.5684 -0.1332 -0.6210
40627SOL    HW132195   3.145  12.726  11.855  0.7428 -0.1790 -2.0350
40627SOL    HW232196   3.132  12.829  11.965 -0.3178 -2.2652 -0.1119
40628SOL     OW32197   8.746   9.741   3.457  0.2301 -0.3435 -0.0771
40628SOL    HW132198   8.731   9.656   3.498  1.1777 -1.0247 -1.0898
40628SOL    HW232199   8.806   9.786   3.517  0.6690 -0.8599 -0.1257
40629SOL     OW32200   0.501   2.819   4.843 -0.2591  0.1286 -0.2752
40629SOL    HW132201   0.572   2.869   4.883 -0.1646 -0.4978  0.3772
40629SOL    HW232202   0.450   2.787   4.918 -1.6661  1.1740 -0.7452
40630SOL     OW32203   0.942   6.025   0.201 -0.6835 -0.4852  0.7469
40630SOL    HW132204   1.019   6.058   0.155 -2.4137  2.1844 -0.5088
40630SOL    HW232205   0.963   5.934   0.222  1.8739 -0.5496 -1.5515
40631SOL     OW32206   3.962   3.657   6.801  0.5654 -0.4428 -0.0626
40631SOL    HW132207   3.918   3.734   6.837  1.5487  0.2306 -0.2515
40631SOL    HW232208   4.041   3.692   6.760  1.8184 -1.6981  1.1438
40632SOL     OW32209   0.210   4.252   2.087 -0.7928  0.5180 -0.6661
40632SOL    HW132210   0.231   4.160   2.069 -0.7957  0.4392 -0.2911
40632SOL    HW232211   0.129   4.269   2.040 -0.6417  0.4091 -0.9657
40633SOL     OW32212   8.186   5.029   3.280  0.1887  0.3113  0.1905
40633SOL    HW132213   8.172   4.961   3.214 -0.4665  0.7389 -0.1267
40633SOL    HW232214   8.271   5.067   3.258  1.4010 -1.5452  1.4183
40634SOL     OW32215   0.931   4.595   7.233  0.8174 -0.3429 -0.3575
40634SOL    HW132216   1.001   4.532   7.252  0.3759 -0.8102 -0.2488
40634SOL    HW232217   0.865   4.580   7.301  1.3072  1.2059  0.5096
40635SOL     OW32218   0.491   6.025  11.229 -0.0895  0.1822  0.4809
40635SOL    HW132219   0.417   5.966  11.239 -0.1401 -0.2958 -2.0241
40635SOL    HW232220   0.563   5.983  11.276 -0.4425 -1.3071 -0.2406
40636SOL     OW32221   7.183   2.971   9.017 -0.5167  0.6309 -0.1090
40636SOL    HW132222   7.131   3.042   9.055  0.4060  2.5523 -2.1424
40636SOL    HW232223   7.273   3.004   9.019  0.5042 -1.9850  1.9837
40637SOL     OW32224   5.086   2.790   6.178 -0.3484 -0.5184  0.6156
40637SOL    HW132225   5.054   2.762   6.264 -0.4455  1.3392  1.2182
40637SOL    HW232226   5.161   2.845   6.197 -0.4642  0.0430 -0.4885
40638SOL     OW32227   7.958  12.218  11.279  0.7045 -0.0957 -0.2300
40638SOL    HW132228   7.982  12.290  11.221  3.4464  0.0674  0.9653
40638SOL    HW232229   7.948  12.258  11.365  0.8471 -0.9351  0.1887
40639SOL     OW32230   2.400   0.347   6.300 -0.2956 -0.5947 -0.1011
40639SOL    HW132231   2.324   0.405   6.308  0.1425 -0.2135  1.8789
40639SOL    HW232232   2.365   0.265   6.267 -0.8991  0.7911 -3.3484
40640SOL     OW32233   1.242  11.669   9.177 -0.1326  0.3985  0.2005
40640SOL    HW132234   1.317  11.637   9.127 -0.2423 -0.3365  0.4944
40640SOL    HW232235   1.251  11.627   9.263 -2.1380 -1.5895 -0.4701
40641SOL     OW32236   1.185   9.503  12.622 -0.5526 -0.3271  0.2273
40641SOL    HW132237   1.265   9.555  12.626 -0.8004  0.0435  0.5035
40641SOL    HW232238   1.139   9.535  12.544 -0.2311 -0.8372 -0.1717
40642SOL     OW32239   6.218   1.518  12.045 -0.2523  0.2299  0.1594
40642SOL    HW132240   6.206   1.578  11.971 -0.4399  2.5293  1.9209
40642SOL    HW232241   6.135   1.521  12.092 -0.6914 -2.4259 -0.2915
40643SOL     OW32242  11.774  12.948   4.696 -0.2908  0.3388 -0.7954
40643SOL    HW132243  11.782  12.994   4.612  1.5242 -0.0700 -0.8972
40643SOL    HW232244  11.684  12.963   4.724 -0.1888  2.6560 -1.5528
40644SOL     OW32245   0.639  11.169   1.057  0.0794  0.3775  0.1238
40644SOL    HW132246   0.716  11.174   1.000  0.9858 -0.6600  1.1942
40644SOL    HW232247   0.675  11.170   1.145 -1.2726  1.6460  0.7095
40645SOL     OW32248  12.015   7.030   4.230 -0.0101  0.0725 -0.2019
40645SOL    HW132249  12.066   7.030   4.311  0.1325  2.0346 -0.2586
40645SOL    HW232250  11.994   6.937   4.216  0.1916 -0.3584  1.9201
40646SOL     OW32251   1.985   4.597   5.690 -0.0056 -0.4420  0.2731
40646SOL    HW132252   1.949   4.677   5.729  2.0381 -0.1741  1.7243
40646SOL    HW232253   1.984   4.615   5.596 -0.7460  0.7734  0.4882
40647SOL     OW32254   4.224   5.130   1.593  0.4061  0.1089 -0.1906
40647SOL    HW132255   4.175   5.182   1.657 -0.9224 -0.9287 -0.3324
40647SOL    HW232256   4.316   5.142   1.619  0.0710  1.6153  0.4450
40648SOL     OW32257  10.162  11.721   9.650 -0.3399 -0.2603  0.4061
40648SOL    HW132258  10.190  11.662   9.720 -0.9799 -1.4429 -0.3080
40648SOL    HW232259  10.142  11.664   9.576 -1.1973  0.8312 -0.2423
40649SOL     OW32260   6.385   7.455   2.163  0.0014 -0.1524  0.3824
40649SOL    HW132261   6.416   7.526   2.106 -0.3455 -0.9829 -0.8693
40649SOL    HW232262   6.465   7.416   2.198  0.3073 -0.7397 -0.9210
40650SOL     OW32263  11.116  11.232   2.474 -0.2601 -0.4933  0.0545
40650SOL    HW132264  11.085  11.144   2.454  1.4281 -0.6555 -2.2895
40650SOL    HW232265  11.106  11.280   2.392 -0.2751  1.2303  1.0325
40651SOL     OW32266   3.158   5.149  10.255  0.6073 -0.4085 -0.1859
40651SOL    HW132267   3.241   5.130  10.211  1.8897  0.7620  1.5977
40651SOL    HW232268   3.174   5.231  10.302 -1.7309  0.1075 -0.1712
40652SOL     OW32269   7.144   1.774  10.113 -0.0542  0.0705 -0.1886
40652SOL    HW132270   7.227   1.809  10.144 -0.3727  1.2383 -0.5907
40652SOL    HW232271   7.078   1.815  10.169 -0.3369 -1.2262  0.4502
40653SOL     OW32272   8.312   8.065   2.865  0.1732 -0.7964 -0.0512
40653SOL    HW132273   8.244   8.108   2.917 -0.9462  0.1622 -2.1706
40653SOL    HW232274   8.267   8.034   2.787  2.0810 -0.4458 -1.3840
40654SOL     OW32275   0.382  11.247  11.588 -0.0075  0.1727  0.5446
40654SOL    HW132276   0.442  11.184  11.629 -0.2452  1.1032  2.4249
40654SOL    HW232277   0.299  11.200  11.583  0.5957 -0.8008 -1.2239
40655SOL     OW32278   2.729   4.015   3.593  0.2916  0.5228  0.0811
40655SOL    HW132279   2.758   3.950   3.529  0.8886  0.0846  0.7752
40655SOL    HW232280   2.687   3.963   3.662  2.9232  0.5363  1.8694
40656SOL     OW32281   3.240   4.736  11.323 -1.0071  0.1317  0.2728
40656SOL    HW132282   3.153   4.776  11.316 -0.9520  0.3225  0.6611
40656SOL    HW232283   3.289   4.772  11.249 -1.2780 -0.0239  0.0170
40657SOL     OW32284   7.932   3.331   5.678 -0.2284 -0.3445  0.1677
40657SOL    HW132285   7.953   3.347   5.586  0.4936  1.6995  0.6434
40657SOL    HW232286   7.848   3.375   5.691  0.4805  0.8394  0.8680
40658SOL     OW32287   4.018   3.860   1.843  0.4778  0.0628  0.2862
40658SOL    HW132288   4.011   3.836   1.751 -1.0430  0.3221  0.2964
40658SOL    HW232289   3.927   3.865   1.873  0.6342  4.0486  0.7033
40659SOL     OW32290  10.738  12.008   0.408  0.1623  0.9247 -0.1108
40659SOL    HW132291  10.824  11.975   0.383 -0.0992  0.9621 -1.0859
40659SOL    HW232292  10.733  12.094   0.367 -0.6724  0.5760 -0.7496
40660SOL     OW32293  10.108  11.307   2.284 -0.7315 -0.0231  0.1288
40660SOL    HW132294  10.193  11.351   2.275 -0.3799 -0.7126  0.0572
40660SOL    HW232295  10.124  11.218   2.253 -1.6528  0.0414 -0.5675
40661SOL     OW32296  12.225  12.614   1.277 -0.0554 -0.0414 -0.6378
40661SOL    HW132297  12.233  12.708   1.292 -1.9667 -0.0874  1.1219
40661SOL    HW232298  12.299  12.576   1.324  0.6299  0.5519 -1.2132
40662SOL     OW32299   1.758   7.990  10.459 -0.4781  0.3625  0.0287
40662SOL    HW132300   1.760   7.916  10.520 -0.8928 -0.9623 -1.5084
40662SOL    HW232301   1.838   7.980  10.407 -1.9285 -0.7573 -2.1194
40663SOL     OW32302  11.992   2.389  10.483  0.1598 -0.1259 -0.5294
40663SOL    HW132303  11.901   2.369  10.505  0.3008  0.1211  0.3356
40663SOL    HW232304  11.987   2.435  10.400 -0.6355  1.1362  0.1909
40664SOL     OW32305  12.455   3.228   2.683  1.1313 -0.6540 -0.4662
40664SOL    HW132306  12.379   3.172   2.669 -1.1059  1.4503  2.1929
40664SOL    HW232307  12.478   3.258   2.595 -3.4335  1.3332 -1.2884
40665SOL     OW32308  11.121   2.520   5.369  0.7595  0.1069  0.4729
40665SOL    HW132309  11.166   2.451   5.321 -0.2687 -0.9258  0.9335
40665SOL    HW232310  11.127   2.493   5.461 -0.4527  0.1256  0.5734
40666SOL     OW32311   3.507   2.262   1.619 -0.7509 -0.0776 -0.1164
40666SOL    HW132312   3.522   2.167   1.613 -0.9205 -0.0918 -0.3539
40666SOL    HW232313   3.503   2.280   1.713 -1.6803 -0.4668 -0.0661
40667SOL     OW32314   2.887   2.185   3.871 -0.1219  0.2462  0.4058
40667SOL    HW132315   2.938   2.124   3.819  0.6821  1.5406 -0.3715
40667SOL    HW232316   2.802   2.142   3.883 -0.8250  0.3757 -3.0489
40668SOL     OW32317  10.999   2.504   4.489 -0.3384  0.2877 -0.1415
40668SOL    HW132318  11.079   2.557   4.484 -0.5369  0.5859 -0.1670
40668SOL    HW232319  11.026   2.417   4.457  0.5072 -0.2495  1.8638
40669SOL     OW32320   6.494   8.423   8.069 -0.1018 -0.3428  0.1953
40669SOL    HW132321   6.408   8.418   8.110  0.2728  0.5299  1.1189
40669SOL    HW232322   6.531   8.335   8.081  0.1034 -0.0466  2.0053
40670SOL     OW32323  12.350   4.504   7.756 -0.2116  0.4359  0.2413
40670SOL    HW132324  12.380   4.449   7.828 -0.4303 -0.3136 -0.2349
40670SOL    HW232325  12.257   4.481   7.745 -0.0956  0.2965 -0.5033
40671SOL     OW32326   7.859   9.408   7.386 -0.2683 -0.1448  0.2635
40671SOL    HW132327   7.899   9.354   7.455  1.0784 -1.5037 -1.4992
40671SOL    HW232328   7.928   9.418   7.321 -1.2338  1.8606 -0.5182
40672SOL     OW32329   4.208  10.031   2.843 -0.4784  0.0798 -0.2078
40672SOL    HW132330   4.146   9.962   2.820 -0.5484  0.5281 -1.4043
40672SOL    HW232331   4.173  10.068   2.925 -1.3942 -0.1494 -0.4884
40673SOL     OW32332  10.889  12.661   9.771 -0.3119 -0.1554  0.2829
40673SOL    HW132333  10.827  12.702   9.831  1.3576  0.4809  1.6677
40673SOL    HW232334  10.957  12.624   9.828  0.2904 -1.3355 -1.1377
40674SOL     OW32335   2.261   4.566  11.866  0.2855  0.4653  0.2495
40674SOL    HW132336   2.303   4.559  11.951  2.3003  0.4870 -0.6836
40674SOL    HW232337   2.276   4.480  11.825  0.0787  0.7282 -0.3938
40675SOL     OW32338  11.891   6.074   9.467 -0.1812 -0.2699 -0.4538
40675SOL    HW132339  11.933   6.028   9.394 -0.3671  1.3143 -1.6132
40675SOL    HW232340  11.798   6.072   9.446 -0.1923  0.6180 -0.5410
40676SOL     OW32341  11.251   1.047   5.299  0.0836 -0.1239  0.6413
40676SOL    HW132342  11.211   0.976   5.249 -0.3766 -0.2047  1.1175
40676SOL    HW232343  11.301   1.003   5.368 -0.7757  0.0115  1.3740
40677SOL     OW32344   1.525   5.663   3.257  0.5486 -0.6215 -0.0531
40677SOL    HW132345   1.532   5.581   3.305  0.6498 -1.7975 -1.9361
40677SOL    HW232346   1.460   5.646   3.189  3.3782 -0.6256 -3.0585
40678SOL     OW32347  11.012   7.977   3.116  0.3254  0.0198 -0.1581
40678SOL    HW132348  10.978   7.940   3.034 -1.8863  0.8258  0.3166
40678SOL    HW232349  11.018   7.902   3.175 -2.9367  0.0603  0.4150
40679SOL     OW32350   5.764  11.763   9.164 -0.0166  0.1278  0.1287
40679SOL    HW132351   5.835  11.756   9.227 -0.3235 -1.4410  0.3344
40679SOL    HW232352   5.694  11.807   9.212 -0.1510 -0.8080  0.8213
40680SOL     OW32353   8.385  10.564  11.695 -0.2098  0.4387 -0.4044
40680SOL    HW132354   8.441  10.637  11.669  1.0114 -0.8105 -1.4147
40680SOL    HW232355   8.437  10.515  11.759 -0.0813 -0.7691 -1.3907
40681SOL     OW32356   1.148  11.355   6.806  0.1367 -0.4529  0.1697
40681SOL    HW132357   1.128  11.400   6.723 -1.7899 -1.9677 -0.2420
40681SOL    HW232358   1.242  11.338   6.801  0.1715  0.0221 -1.4365
40682SOL     OW32359   7.168   8.903   9.007 -0.3099  0.0715 -0.2160
40682SOL    HW132360   7.076   8.892   8.982  0.5621 -1.5484 -3.1515
40682SOL    HW232361   7.184   8.997   8.998 -1.2596  0.1404 -1.4470
40683SOL     OW32362   4.756   9.287   1.663  0.0968  0.3258 -0.0475
40683SOL    HW132363   4.734   9.307   1.754  1.0708  0.6368  0.1227
40683SOL    HW232364   4.798   9.366   1.630 -2.0172  0.9849 -1.4018
40684SOL     OW32365   9.525   2.525   7.294 -0.2162 -0.0490 -0.4422
40684SOL    HW132366   9.437   2.489   7.299  0.5661 -2.6193 -2.6251
40684SOL    HW232367   9.525   2.579   7.215 -0.0582  0.6598  0.0363
40685SOL     OW32368   0.801  10.216   5.327 -0.7520 -0.1643  0.8811
40685SOL    HW132369   0.787  10.224   5.233 -1.7458 -2.4910  0.7707
40685SOL    HW232370   0.873  10.276   5.346 -0.5714  0.3941 -1.3399
40686SOL     OW32371   6.959   0.643   5.772 -0.3445  0.7229 -0.1337
40686SOL    HW132372   6.993   0.599   5.850 -1.3838  0.6066  0.2666
40686SOL    HW232373   6.950   0.735   5.799  0.0713  0.8364 -0.3795
40687SOL     OW32374  12.718   2.541   5.992 -0.4364  0.0736  0.3183
40687SOL    HW132375  12.670   2.617   5.959 -1.3778 -0.7883 -0.3543
40687SOL    HW232376  12.799   2.540   5.941 -1.6326 -0.9298 -1.6460
40688SOL     OW32377   6.208   6.075   2.100  0.1519  0.1938  0.5578
40688SOL    HW132378   6.300   6.103   2.101  0.9366 -2.1223  1.9261
40688SOL    HW232379   6.165   6.136   2.041  2.7610  0.7581 -0.9236
40689SOL     OW32380  10.106   2.904   8.102  0.0121 -0.3396 -0.5905
40689SOL    HW132381  10.146   2.819   8.122  0.4393 -0.3046 -1.2706
40689SOL    HW232382  10.151   2.965   8.160  0.9281 -0.3129 -1.3052
40690SOL     OW32383  11.919   4.984  11.651  0.0713  0.6937  0.6459
40690SOL    HW132384  11.956   5.004  11.565 -0.1286 -0.4034  0.2861
40690SOL    HW232385  11.899   5.069  11.689 -0.5421  1.1846 -0.7152
40691SOL     OW32386   3.644   9.664   8.669 -0.0002  0.1907  0.6173
40691SOL    HW132387   3.598   9.719   8.606  2.1822  1.0764 -0.3019
40691SOL    HW232388   3.692   9.601   8.615  0.4627 -0.2120  1.4754
40692SOL     OW32389   6.129   6.291   6.640 -0.8522 -0.3691  0.5906
40692SOL    HW132390   6.130   6.229   6.567  1.1125 -1.8191  1.7528
40692SOL    HW232391   6.130   6.377   6.598 -0.4332 -1.1505 -1.0989
40693SOL     OW32392   3.104   9.191   2.141 -0.3539 -0.0419  0.1080
40693SOL    HW132393   3.176   9.133   2.118  0.3729  0.1758  1.7610
40693SOL    HW232394   3.043   9.183   2.067  0.7029 -1.2740 -0.6734
40694SOL     OW32395   1.237   0.883  10.285  0.4459 -0.0948  0.0732
40694SOL    HW132396   1.276   0.944  10.222  1.3108  0.2228  0.8953
40694SOL    HW232397   1.303   0.873  10.353 -0.2499 -0.8685  0.6581
40695SOL     OW32398  10.333   0.076   1.935  1.2192 -0.1155  0.0278
40695SOL    HW132399  10.352  -0.000   1.990  1.3187 -1.1540 -1.3794
40695SOL    HW232400  10.350   0.045   1.845  1.3672  1.5995 -0.5716
40696SOL     OW32401   9.095   2.411   0.390 -0.0571 -0.4538  0.4874
40696SOL    HW132402   9.182   2.433   0.422  0.2280  0.0892 -0.6016
40696SOL    HW232403   9.108   2.334   0.335  0.1842  1.0295 -1.6472
40697SOL     OW32404   2.667  10.067   0.807  0.2425  1.1514  0.1312
40697SOL    HW132405   2.717  10.148   0.812  1.7569  0.2489  0.1489
40697SOL    HW232406   2.732   9.998   0.821 -1.0854 -0.0510  0.5900
40698SOL     OW32407   3.218  11.101   5.342  0.1847 -0.4299 -0.6555
40698SOL    HW132408   3.292  11.162   5.339 -0.0747 -0.0130  0.7174
40698SOL    HW232409   3.170  11.118   5.261 -0.2582  1.7014 -0.0211
40699SOL     OW32410   4.603  10.829  10.434  0.5632  0.4405 -0.0894
40699SOL    HW132411   4.668  10.892  10.405  0.5391  0.9350  0.8735
40699SOL    HW232412   4.554  10.805  10.355  1.0775  1.0388 -0.5891
40700SOL     OW32413  12.193   8.225   3.973  0.4206 -0.2217  0.0572
40700SOL    HW132414  12.248   8.289   4.019  0.8004 -1.3330  1.1952
40700SOL    HW232415  12.254   8.158   3.943 -0.1951 -0.9735  0.4649
40701SOL     OW32416   6.949   0.407  10.668  0.3683 -0.0510  0.3596
40701SOL    HW132417   6.969   0.350  10.594  1.2381  0.5209  0.1351
40701SOL    HW232418   6.992   0.366  10.743 -0.1725 -0.4132  0.4809
40702SOL     OW32419  11.351   2.567   0.630  0.2897  0.5597 -0.0889
40702SOL    HW132420  11.305   2.566   0.714  0.6731  1.3922  0.1474
40702SOL    HW232421  11.425   2.627   0.645  0.6057  0.3769 -0.8925
40703SOL     OW32422   1.400   9.164   8.132 -0.4013  0.4847  0.2866
40703SOL    HW132423   1.439   9.250   8.114 -0.1413  0.1631 -0.7466
40703SOL    HW232424   1.347   9.145   8.054  0.1903 -0.6502  0.1410
40704SOL     OW32425   7.655   0.431  12.058 -0.0107  0.0508 -0.5470
40704SOL    HW132426   7.719   0.494  12.092 -1.3536  0.9624  0.3907
40704SOL    HW232427   7.573   0.454  12.102 -0.7321 -1.8381 -0.8253
40705SOL     OW32428   5.494   2.704  12.397  1.1585 -0.1950 -0.1553
40705SOL    HW132429   5.496   2.700  12.302  1.9198 -1.9361 -0.1019
40705SOL    HW232430   5.512   2.796  12.418 -1.4170  0.7709 -1.6857
40706SOL     OW32431   3.789  11.778  10.094  0.0312 -0.1864  0.4128
40706SOL    HW132432   3.872  11.735  10.117  0.1050  0.4533  1.4158
40706SOL    HW232433   3.729  11.705  10.078  0.4849 -0.6737  0.8374
40707SOL     OW32434  10.027   9.743  10.068 -0.4215  0.3289  0.1217
40707SOL    HW132435  10.003   9.821  10.018 -0.9760 -0.8562 -1.5867
40707SOL    HW232436   9.946   9.692  10.072  0.8697 -2.3660 -3.1407
40708SOL     OW32437   3.267   6.408   0.011  0.5258 -0.0849  0.1474
40708SOL    HW132438   3.239   6.493  -0.022  0.9690  0.5663  1.3763
40708SOL    HW232439   3.188   6.369   0.047  0.4491  0.1151  0.2006
40709SOL     OW32440   5.189   4.509   2.278  0.9212  0.1628 -0.4058
40709SOL    HW132441   5.279   4.542   2.281  0.7457  0.6618 -0.4535
40709SOL    HW232442   5.161   4.526   2.187  0.5913  0.5367 -0.2387
40710SOL     OW32443   8.580  11.074   7.961  0.2443  0.5082 -0.1322
40710SOL    HW132444   8.648  11.017   7.997 -0.4396 -0.3654 -0.1921
40710SOL    HW232445   8.595  11.072   7.867 -0.9711 -1.2017 -0.3378
40711SOL     OW32446   6.127  12.898  10.372  0.3491 -0.3307 -0.7617
40711SOL    HW132447   6.112  12.986  10.338 -1.1122 -0.3289 -0.1848
40711SOL    HW232448   6.059  12.886  10.437  1.1126 -1.5496 -0.1586
40712SOL     OW32449   7.636  11.575   8.966  0.7129  0.1720 -0.2097
40712SOL    HW132450   7.592  11.637   8.908 -0.5364 -0.7417 -0.2824
40712SOL    HW232451   7.727  11.576   8.937 -0.1053 -1.3754 -3.2731
40713SOL     OW32452   4.573   5.092   1.398 -0.0452  0.1816 -0.0232
40713SOL    HW132453   4.547   5.173   1.354  0.8894  0.0262 -0.8993
40713SOL    HW232454   4.584   5.028   1.327  0.0386 -0.4870  0.5768
40714SOL     OW32455   1.402   5.166   0.514  0.2279 -0.1529 -0.1642
40714SOL    HW132456   1.372   5.256   0.503  0.4666 -0.1636 -0.9169
40714SOL    HW232457   1.437   5.141   0.429 -1.2016 -1.4595 -0.4132
40715SOL     OW32458   9.875   2.675  11.668  0.4625  0.0231 -0.5036
40715SOL    HW132459   9.822   2.651  11.745  0.0573  1.1404 -0.4244
40715SOL    HW232460   9.913   2.759  11.691 -0.4654  0.8740 -1.9122
40716SOL     OW32461  12.577   2.141   9.409 -0.0290  0.0102 -0.2410
40716SOL    HW132462  12.546   2.215   9.357  2.2110  0.9934 -0.3142
40716SOL    HW232463  12.624   2.182   9.483  2.3193 -1.2388 -0.9329
40717SOL     OW32464   7.840  11.307  11.188  0.3417 -0.1389  0.1492
40717SOL    HW132465   7.901  11.363  11.139 -1.1417  0.7460 -0.7682
40717SOL    HW232466   7.832  11.228  11.134  1.0182 -0.4571  0.5067
40718SOL     OW32467   5.157   7.426   2.144 -0.2314 -0.5091  0.2320
40718SOL    HW132468   5.159   7.378   2.227 -2.4297  0.9111  1.1952
40718SOL    HW232469   5.147   7.517   2.170  0.8633  0.1796 -1.6069
40719SOL     OW32470   3.474   9.260   1.269 -0.3397 -0.1864 -0.2850
40719SOL    HW132471   3.403   9.196   1.261  0.2029 -0.7888 -0.3748
40719SOL    HW232472   3.442   9.324   1.332 -0.8327 -0.6356 -0.0717
40720SOL     OW32473  10.471   0.553   2.395  0.3561  0.0693  0.1110
40720SOL    HW132474  10.390   0.539   2.344  0.6581  0.4379 -0.4817
40720SOL    HW232475  10.530   0.483   2.365  0.0631 -0.5622  0.9736
40721SOL     OW32476  11.678  11.930   6.387 -0.0447  0.0921 -0.2963
40721SOL    HW132477  11.743  11.924   6.457 -1.5026  0.6106  1.1680
40721SOL    HW232478  11.595  11.943   6.433 -1.2027 -0.5892 -2.0962
40722SOL     OW32479   9.819   0.748   7.794  0.2615  0.4370 -0.0850
40722SOL    HW132480   9.727   0.734   7.815 -0.1120  0.5568 -1.4997
40722SOL    HW232481   9.865   0.676   7.837 -0.3651  0.8611  1.3603
40723SOL     OW32482  12.862   7.144   5.857  0.3020  0.2466 -0.0931
40723SOL    HW132483  12.843   7.133   5.950 -0.9067 -1.1691 -0.4585
40723SOL    HW232484  12.956   7.129   5.849  0.5254  1.0269  0.9687
40724SOL     OW32485   4.271  12.404   1.807  0.2787  0.0298 -0.3238
40724SOL    HW132486   4.223  12.461   1.866  1.4551  0.0429  0.6460
40724SOL    HW232487   4.363  12.428   1.819  0.6351 -0.7614 -1.3091
40725SOL     OW32488  12.010  12.722   0.410  0.1327  0.0240 -0.0241
40725SOL    HW132489  12.080  12.660   0.388  0.5546  0.2991  0.5292
40725SOL    HW232490  11.982  12.757   0.325  2.0921  1.4625 -0.1642
40726SOL     OW32491   2.477   2.365   1.959  0.2370  0.5258 -0.0610
40726SOL    HW132492   2.459   2.280   1.999 -2.7732  0.6750 -0.8127
40726SOL    HW232493   2.461   2.351   1.865  1.1204  1.6136 -0.3961
40727SOL     OW32494   1.937   8.420   4.140  0.2741 -0.9556 -0.3297
40727SOL    HW132495   1.852   8.410   4.097  0.7362 -0.7401 -1.3134
40727SOL    HW232496   1.965   8.508   4.117  0.0109 -0.3819  1.4015
40728SOL     OW32497   6.317   8.284   0.435 -0.6084  0.2644 -0.2787
40728SOL    HW132498   6.261   8.208   0.450 -0.0604 -0.3623 -1.2723
40728SOL    HW232499   6.311   8.300   0.341 -0.4528  1.2508 -0.1293
40729SOL     OW32500   9.994   5.060  12.538  0.2404 -0.4268  0.5103
40729SOL    HW132501  10.088   5.046  12.533  0.2661 -0.0811 -0.0845
40729SOL    HW232502   9.980   5.099  12.624  0.6538 -0.4172  0.5734
40730SOL     OW32503   6.061   1.684   6.420  0.0057 -0.3023  0.3444
40730SOL    HW132504   6.040   1.777   6.414  1.4769 -0.0020 -1.2489
40730SOL    HW232505   6.156   1.681   6.408 -0.1414 -2.0580 -0.7517
40731SOL     OW32506   5.647   5.506   8.975  0.5587 -0.0006  0.1444
40731SOL    HW132507   5.665   5.416   8.947 -2.2934 -1.5490  2.6297
40731SOL    HW232508   5.706   5.521   9.049  1.8271  0.6659 -0.9695
40732SOL     OW32509   9.663   1.609  11.028  0.0397 -0.0037 -0.5637
40732SOL    HW132510   9.674   1.518  11.053  0.5133  0.1464 -0.2078
40732SOL    HW232511   9.700   1.659  11.102 -2.1465  0.5267  0.2499
40733SOL     OW32512   1.866   8.798   2.615 -0.3328  0.5672 -0.3299
40733SOL    HW132513   1.829   8.872   2.565 -1.9417 -0.2175 -0.3411
40733SOL    HW232514   1.862   8.724   2.554  0.4403  0.2519 -0.0099
40734SOL     OW32515   7.659   3.046   7.639  0.2563 -0.2751 -0.5099
40734SOL    HW132516   7.573   3.060   7.600  0.8566 -1.3619 -2.3660
40734SOL    HW232517   7.717   3.029   7.564  1.8344 -0.7743  0.7622
40735SOL     OW32518  10.068   8.248  11.795 -0.3251 -0.4123  0.0922
40735SOL    HW132519  10.130   8.176  11.781 -0.6481 -0.3983 -1.7203
40735SOL    HW232520  10.110   8.325  11.757 -1.2582 -0.3329 -0.8558
40736SOL     OW32521   0.988   6.592   1.607 -0.3415 -0.3174  0.4361
40736SOL    HW132522   0.983   6.651   1.683  0.2171  2.1685 -1.3443
40736SOL    HW232523   1.079   6.561   1.608 -0.3425 -0.3157  0.8180
40737SOL     OW32524  11.180   7.132  10.726  0.2104  0.2370 -0.3756
40737SOL    HW132525  11.179   7.149  10.820 -1.3945 -0.4310 -0.2395
40737SOL    HW232526  11.257   7.076  10.712  1.2497  1.4516  0.2962
40738SOL     OW32527   2.194  11.982   4.684 -1.0655  0.0178  0.2178
40738SOL    HW132528   2.166  11.946   4.600 -0.8965  0.0970  0.1261
40738SOL    HW232529   2.119  11.971   4.742 -0.5593 -1.7845  0.5950
40739SOL     OW32530   5.272  11.694   4.503 -0.0928  0.0331 -0.7331
40739SOL    HW132531   5.240  11.728   4.419 -0.9105 -0.3612 -0.5952
40739SOL    HW232532   5.262  11.767   4.564 -0.4265  0.0133 -0.7631
40740SOL     OW32533   8.019  12.318  10.600  0.3636 -0.4841 -0.0907
40740SOL    HW132534   7.953  12.295  10.534 -0.8717  0.1353  0.9089
40740SOL    HW232535   7.995  12.405  10.629  1.1113 -0.6035  0.9343
40741SOL     OW32536   1.715   1.062  12.188  0.1991  0.6420 -0.2512
40741SOL    HW132537   1.621   1.053  12.198  0.1887  1.7383  0.8817
40741SOL    HW232538   1.746   0.974  12.167 -1.0865  0.3132 -0.8613
40742SOL     OW32539  11.643   8.814   1.713 -0.3411  0.6397 -0.1893
40742SOL    HW132540  11.647   8.722   1.738  1.2209  1.1159  1.5435
40742SOL    HW232541  11.570   8.849   1.763  0.7211  0.8713  1.2663
40743SOL     OW32542   5.522   2.929  11.322 -0.4488  0.1920  0.6710
40743SOL    HW132543   5.507   2.925  11.417  1.4352  1.0968  1.0695
40743SOL    HW232544   5.530   3.023  11.304  0.4428 -0.0311 -0.1445
40744SOL     OW32545   1.331   4.130   8.402  0.4639 -0.0095 -0.1328
40744SOL    HW132546   1.381   4.058   8.364  1.7609  0.8285 -0.0945
40744SOL    HW232547   1.397   4.193   8.429 -0.5712  0.6354  1.0192
40745SOL     OW32548   7.781   0.340   3.726  0.3441  0.4080 -0.6172
40745SOL    HW132549   7.819   0.399   3.791  2.1796 -0.1711 -1.0945
40745SOL    HW232550   7.857   0.293   3.689 -0.9477 -1.5305 -0.9574
40746SOL     OW32551   8.488   2.421  10.394  0.0751  0.4081 -0.7499
40746SOL    HW132552   8.429   2.496  10.405  0.5564  0.7907 -0.7626
40746SOL    HW232553   8.430   2.348  10.375 -0.4018  0.7780 -0.7320
40747SOL     OW32554   5.638   8.391  10.781  0.2589 -0.2656 -0.7960
40747SOL    HW132555   5.581   8.394  10.858  1.5819 -3.1051  0.3924
40747SOL    HW232556   5.633   8.301  10.750  1.6878  0.2053 -2.5953
40748SOL     OW32557   0.842   1.797   2.902 -0.6161 -0.1425  0.6057
40748SOL    HW132558   0.901   1.871   2.891 -2.0606  1.1252  1.0538
40748SOL    HW232559   0.897   1.720   2.884  0.7257  1.0402 -0.6849
40749SOL     OW32560   2.017   9.684   5.388 -0.6319 -0.0332  0.1237
40749SOL    HW132561   2.017   9.611   5.326  0.0886  0.3642 -0.3573
40749SOL    HW232562   1.924   9.705   5.400 -0.7741  1.2414 -2.4691
40750SOL     OW32563   0.343   7.352  11.672 -0.5234 -0.3875 -0.0651
40750SOL    HW132564   0.333   7.363  11.767  0.4736  0.9714 -0.0881
40750SOL    HW232565   0.275   7.289  11.648 -1.1429 -0.3491  1.4623
40751SOL     OW32566   3.662   1.493   1.114  0.1571 -0.1468 -0.3994
40751SOL    HW132567   3.630   1.570   1.161  0.9205 -0.3003  0.4036
40751SOL    HW232568   3.629   1.503   1.025 -1.4525  0.0676  0.2060
40752SOL     OW32569   7.879   3.192   4.083  0.8820 -0.0485 -0.0348
40752SOL    HW132570   7.901   3.247   4.008 -1.1597  0.4825 -0.3097
40752SOL    HW232571   7.894   3.102   4.053  1.4119  0.2253 -0.5910
40753SOL     OW32572   2.953   7.565   9.889  0.1370  0.0489 -0.4216
40753SOL    HW132573   2.963   7.560   9.984  1.1959  0.5989 -0.4875
40753SOL    HW232574   2.990   7.650   9.866 -2.2282  0.9768 -1.0780
40754SOL     OW32575  11.899   4.144   6.007 -0.1386  0.6418 -0.6143
40754SOL    HW132576  11.874   4.160   6.098  1.9338  0.4021  0.0560
40754SOL    HW232577  11.839   4.075   5.978 -1.1509  1.0540  0.3956
40755SOL     OW32578   3.257   4.005  10.908 -0.3596  0.1125 -0.0640
40755SOL    HW132579   3.217   4.042  10.829  0.6856  1.9377  0.2231
40755SOL    HW232580   3.235   4.067  10.977 -1.4021 -1.5432  1.1709
40756SOL     OW32581   0.773   9.539   7.133 -0.3869 -0.1078 -0.2296
40756SOL    HW132582   0.704   9.520   7.196  0.0405  0.6948  0.5093
40756SOL    HW232583   0.808   9.453   7.108  0.1567 -0.4046  1.4597
40757SOL     OW32584   5.461   7.931   0.979 -0.2763 -0.2347 -0.1408
40757SOL    HW132585   5.544   7.970   0.951 -0.9832  1.8060  0.4219
40757SOL    HW232586   5.479   7.895   1.065 -0.0677  0.5919  0.1715
40758SOL     OW32587  11.205  10.325   2.348 -0.2093 -0.7497 -0.1100
40758SOL    HW132588  11.167  10.284   2.426  1.1413 -1.0209  0.4202
40758SOL    HW232589  11.284  10.275   2.330  0.9280  0.9636 -0.0568
40759SOL     OW32590  11.788  10.328   4.086 -0.3045  0.2307 -0.7740
40759SOL    HW132591  11.819  10.253   4.137  2.0262  1.8752  0.4760
40759SOL    HW232592  11.760  10.291   4.003  1.1832 -1.9972 -0.3881
40760SOL     OW32593   8.391  10.733   2.436 -0.4632  0.0229  0.4205
40760SOL    HW132594   8.465  10.705   2.383 -0.3089  0.7225  0.2516
40760SOL    HW232595   8.408  10.697   2.523 -1.5164 -2.5163 -0.3309
40761SOL     OW32596  10.704   5.512   0.704 -0.1878  0.0719 -0.4248
40761SOL    HW132597  10.717   5.537   0.795 -0.7260 -0.4178 -0.2069
40761SOL    HW232598  10.638   5.443   0.707  0.0816 -0.2302 -1.1527
40762SOL     OW32599  12.146  12.637   7.387  0.0519  1.0745 -0.2536
40762SOL    HW132600  12.137  12.604   7.298 -0.2361 -4.2451  1.4105
40762SOL    HW232601  12.240  12.635   7.404  0.1849  2.8560 -0.5549
40763SOL     OW32602   9.389   0.052   0.815 -0.2009  0.4647  0.5895
40763SOL    HW132603   9.460   0.006   0.770  1.0576  1.0907  1.8742
40763SOL    HW232604   9.372   0.129   0.761 -2.0256 -1.1790 -1.3441
40764SOL     OW32605   0.053   6.492  10.733  0.2526  0.0208 -0.1073
40764SOL    HW132606   0.046   6.586  10.718  0.7414 -0.1537 -1.5321
40764SOL    HW232607   0.012   6.451  10.657  3.1321 -0.9098 -1.3095
40765SOL     OW32608   9.169   6.574  10.700  0.4019  0.5424  0.0532
40765SOL    HW132609   9.190   6.501  10.759 -1.3302 -0.0098  0.0581
40765SOL    HW232610   9.157   6.649  10.758 -1.3847 -0.0172  0.4666
40766SOL     OW32611  10.358  11.407   3.719  0.0754  0.0239 -0.3798
40766SOL    HW132612  10.315  11.488   3.692 -1.1124 -0.0628  1.1145
40766SOL    HW232613  10.364  11.355   3.640  0.1740  1.2648 -1.2150
40767SOL     OW32614   5.934   1.017   2.724  0.1681 -0.0426 -0.1208
40767SOL    HW132615   5.841   1.005   2.708  0.3977 -2.7431  0.2488
40767SOL    HW232616   5.969   0.929   2.737  2.4610  0.9995  1.5739
40768SOL     OW32617   9.923   9.770  11.535 -0.0933 -0.0967 -0.3031
40768SOL    HW132618   9.879   9.786  11.618 -1.6695 -0.9440 -0.9322
40768SOL    HW232619   9.947   9.857  11.503 -1.3401  0.4092  0.0825
40769SOL     OW32620  11.476   0.477   4.020  0.0336 -0.3716  0.5191
40769SOL    HW132621  11.468   0.443   3.931  0.5359 -0.3595  0.4671
40769SOL    HW232622  11.413   0.426   4.071 -3.1958  2.2179 -0.5265
40770SOL     OW32623   9.034   4.201   4.962  0.4206 -0.1164  0.2217
40770SOL    HW132624   9.127   4.211   4.981  0.9791  0.5100 -2.4529
40770SOL    HW232625   9.031   4.153   4.879 -1.5910  1.0092 -0.4411
40771SOL     OW32626   9.888   7.271   4.379 -0.3345 -0.1340 -0.0042
40771SOL    HW132627   9.901   7.260   4.285 -2.0640  0.4140 -0.3475
40771SOL    HW232628   9.911   7.363   4.396 -0.2781 -0.1570  0.0408
40772SOL     OW32629   5.803   9.665  12.055 -0.1436  0.0922  0.1024
40772SOL    HW132630   5.885   9.713  12.065 -0.2228  0.6122 -1.4477
40772SOL    HW232631   5.744   9.704  12.120 -0.2579  2.2558 -1.2094
40773SOL     OW32632  11.836   2.123  12.464  0.3572 -0.0533 -0.2553
40773SOL    HW132633  11.912   2.136  12.521 -0.3603  2.1759  0.3015
40773SOL    HW232634  11.765   2.100  12.524  0.5515 -2.1091 -0.7683
40774SOL     OW32635  12.968   8.951   4.798 -0.3527 -0.3409 -0.2707
40774SOL    HW132636  12.881   8.991   4.801 -0.2654  0.0014 -1.7128
40774SOL    HW232637  12.967   8.897   4.719  0.6538 -0.5782 -0.1372
40775SOL     OW32638   1.878  10.433   5.166 -0.4220  0.4104 -0.0620
40775SOL    HW132639   1.965  10.421   5.127 -0.3093 -1.6522  0.7053
40775SOL    HW232640   1.850  10.345   5.189 -0.9466  1.3515  3.4709
40776SOL     OW32641   5.496   7.719   2.934  0.4332  0.4534 -0.2830
40776SOL    HW132642   5.443   7.799   2.938 -0.3774 -0.0891  0.0743
40776SOL    HW232643   5.432   7.650   2.917  1.0326 -0.2176  0.1798
40777SOL     OW32644   0.004   3.012  12.162  0.1594 -0.6464  0.2142
40777SOL    HW132645  -0.004   2.917  12.160 -0.5167 -0.6145  0.8782
40777SOL    HW232646  -0.028   3.041  12.077  0.5388 -1.0190 -0.0616
40778SOL     OW32647  10.470  10.225   1.698  0.3496 -1.0344 -0.4460
40778SOL    HW132648  10.519  10.148   1.725 -2.4844 -3.2970 -1.1617
40778SOL    HW232649  10.398  10.231   1.761 -0.4318 -0.0013 -1.3824
40779SOL     OW32650   6.406   1.185   4.860 -0.1418  0.4259  0.2587
40779SOL    HW132651   6.326   1.235   4.842 -1.4788 -1.2844  1.1311
40779SOL    HW232652   6.416   1.189   4.955 -0.7571 -1.5474  0.4578
40780SOL     OW32653   2.220   0.750   2.047  0.8907 -0.0478 -0.1466
40780SOL    HW132654   2.235   0.779   2.137 -0.0327 -2.1134  0.7457
40780SOL    HW232655   2.158   0.814   2.012  2.5658  1.7713  0.0634
40781SOL     OW32656   2.308  12.469  10.449 -0.1631  0.2177 -0.1423
40781SOL    HW132657   2.381  12.414  10.421 -0.2690  1.3370 -2.9277
40781SOL    HW232658   2.237  12.408  10.467 -0.1376 -0.6700 -2.7154
40782SOL     OW32659  12.954   3.808   4.100  0.3233 -0.0980 -0.2364
40782SOL    HW132660  12.871   3.854   4.109  0.0949 -0.2327 -1.4937
40782SOL    HW232661  12.949   3.735   4.162 -0.0134  0.5569  0.5209
40783SOL     OW32662   9.884   3.111   7.908  0.1306 -0.4393  0.1360
40783SOL    HW132663   9.874   3.122   8.002 -1.4535 -2.6107  0.3043
40783SOL    HW232664   9.796   3.124   7.873  0.0869 -2.4941 -0.6441
40784SOL     OW32665  12.054  12.743   8.018 -0.2453  0.0566 -0.2961
40784SOL    HW132666  12.118  12.716   7.951  0.7877 -0.1816  0.7485
40784SOL    HW232667  12.031  12.661   8.063  0.7646  0.4837  1.0619
40785SOL     OW32668   9.514  11.272   6.843  0.1099 -0.2552  0.3814
40785SOL    HW132669   9.519  11.292   6.749 -0.8675  1.2627  0.6215
40785SOL    HW232670   9.597  11.229   6.863  0.1636 -0.9952 -1.2603
40786SOL     OW32671   1.324   9.054   5.659  0.2103  0.1491 -0.1625
40786SOL    HW132672   1.241   9.038   5.703  0.4683 -0.3769  0.1346
40786SOL    HW232673   1.379   9.095   5.725  0.1080  0.7352 -0.4331
40787SOL     OW32674   0.859  10.024   4.736 -0.0794  0.3234  0.0583
40787SOL    HW132675   0.811  10.041   4.817 -0.1268  0.2056  0.0542
40787SOL    HW232676   0.819   9.945   4.700 -0.9548  1.1355 -0.7787
40788SOL     OW32677   0.821   9.344   3.435  0.3484  0.3501 -0.1091
40788SOL    HW132678   0.870   9.426   3.436 -0.4365  0.8269 -0.1965
40788SOL    HW232679   0.798   9.330   3.343  0.1950  0.2037 -0.0497
40789SOL     OW32680  10.096   0.319   4.819 -0.0316 -0.0394  0.0045
40789SOL    HW132681  10.110   0.280   4.906 -0.1818 -1.0807 -0.4259
40789SOL    HW232682  10.060   0.247   4.767  0.8989  0.3296 -1.1681
40790SOL     OW32683   6.408   5.536   5.012  0.1326  0.0247  0.2551
40790SOL    HW132684   6.485   5.593   5.007  0.5721 -0.1646  3.1761
40790SOL    HW232685   6.442   5.452   5.043 -1.2933  0.2693  2.7261
40791SOL     OW32686   4.574   7.413   6.779 -0.0224 -0.1672  0.1939
40791SOL    HW132687   4.592   7.383   6.868  0.1327 -0.4629  0.0630
40791SOL    HW232688   4.481   7.395   6.766  0.2546 -1.4271 -0.1960
40792SOL     OW32689  10.839   0.473   6.116 -1.2617  0.5523 -0.3498
40792SOL    HW132690  10.808   0.545   6.171 -0.3008  1.8925 -1.4723
40792SOL    HW232691  10.796   0.487   6.032 -1.7697 -0.7514 -0.3267
40793SOL     OW32692   1.659   9.944   5.060 -0.3376 -0.3698  0.6735
40793SOL    HW132693   1.697   9.971   5.143 -0.1025 -0.1746  0.5023
40793SOL    HW232694   1.607   9.867   5.082  1.3100 -1.5241  0.6584
40794SOL     OW32695   5.456  10.278  11.214  0.2523 -0.0186 -0.5314
40794SOL    HW132696   5.550  10.293  11.210  0.3260 -0.5662 -1.0673
40794SOL    HW232697   5.423  10.346  11.273  0.8091  1.0016 -1.3607
40795SOL     OW32698  10.310   0.795  11.508 -0.1325  0.1728  0.0334
40795SOL    HW132699  10.305   0.882  11.547  0.1610  0.7616 -1.1785
40795SOL    HW232700  10.326   0.736  11.582 -3.2390  0.7196  1.3068
40796SOL     OW32701   4.541   7.198  10.387  0.1048  0.2240 -0.2140
40796SOL    HW132702   4.559   7.109  10.359 -1.8306  0.0108 -0.9505
40796SOL    HW232703   4.626   7.234  10.410  1.0244 -1.5251 -0.7224
40797SOL     OW32704   0.678   5.834   5.007  0.3113  0.6090  0.1794
40797SOL    HW132705   0.714   5.919   5.031 -1.1308  0.9393  1.3203
40797SOL    HW232706   0.618   5.853   4.934  0.0867  0.5599  0.3489
40798SOL     OW32707  10.492   9.455   7.505  0.2771  0.0866  0.1012
40798SOL    HW132708  10.536   9.492   7.581  0.0911  0.4127  0.0518
40798SOL    HW232709  10.406   9.496   7.504  0.3107  0.1562 -0.3356
40799SOL     OW32710  12.123   0.921   4.282  0.4921 -0.1230  0.0064
40799SOL    HW132711  12.162   1.007   4.264  0.0063  0.0230 -0.3539
40799SOL    HW232712  12.087   0.929   4.370 -2.4899  1.1540 -1.1936
40800SOL     OW32713   5.516   1.699   6.114  0.3494 -0.4518  0.1158
40800SOL    HW132714   5.542   1.699   6.206 -1.4018  0.4495  0.6603
40800SOL    HW232715   5.572   1.765   6.073  1.7587 -1.4818  0.2938
40801SOL     OW32716   9.306  12.037   1.687 -0.3029  0.1352  0.2053
40801SOL    HW132717   9.222  12.012   1.647  0.8843 -1.9649 -1.2286
40801SOL    HW232718   9.285  12.111   1.743 -2.4638  2.1538 -2.9611
40802SOL     OW32719   8.932   6.182   9.930 -0.3927  0.0112 -0.1340
40802SOL    HW132720   9.017   6.225   9.918 -0.1292  0.0502  1.6850
40802SOL    HW232721   8.927   6.119   9.858  0.0536  1.7119 -1.7357
40803SOL     OW32722  11.292   4.399   9.365 -0.0240 -0.6174  0.1183
40803SOL    HW132723  11.298   4.404   9.269 -0.7818 -1.0591  0.0354
40803SOL    HW232724  11.199   4.384   9.382 -0.0521  0.4036  0.9760
40804SOL     OW32725   3.730   6.042   2.374  0.5026 -0.3123  0.1475
40804SOL    HW132726   3.661   6.108   2.362 -1.6380 -2.5936 -0.9105
40804SOL    HW232727   3.790   6.058   2.301  0.7899  1.2727  0.6779
40805SOL     OW32728   9.215   6.910   4.457 -0.2629  0.4298  0.1220
40805SOL    HW132729   9.188   6.896   4.366 -0.5439  0.7880  0.1464
40805SOL    HW232730   9.295   6.858   4.467 -0.7460 -0.3536 -0.0591
40806SOL     OW32731   9.689   6.645   9.326 -0.1283  0.2462  0.1481
40806SOL    HW132732   9.740   6.726   9.326  0.8060 -0.3215  0.8828
40806SOL    HW232733   9.644   6.645   9.410 -0.9407  0.4877 -0.2787
40807SOL     OW32734  12.403   9.091   4.748  0.0524 -0.5410  0.1879
40807SOL    HW132735  12.335   9.156   4.765 -1.6232 -2.4132  1.0724
40807SOL    HW232736  12.388   9.062   4.658  0.3272 -0.2490  0.0456
40808SOL     OW32737   2.043  11.237   0.112 -0.0641  0.3869  0.2823
40808SOL    HW132738   1.960  11.217   0.068 -0.1109  1.8330 -0.3494
40808SOL    HW232739   2.034  11.196   0.198 -0.7201 -0.9441 -0.3759
40809SOL     OW32740  11.089   2.612   0.355 -0.5345  0.1156 -0.2052
40809SOL    HW132741  11.064   2.649   0.271 -1.7876  1.2866  0.6399
40809SOL    HW232742  11.170   2.564   0.337  0.1110  1.6858 -1.7308
40810SOL     OW32743   4.110   0.447   5.344 -0.6931 -0.2614  0.4217
40810SOL    HW132744   4.151   0.363   5.366  0.7350  0.3194  0.1134
40810SOL    HW232745   4.018   0.426   5.330 -0.4489 -1.6969  0.7978
40811SOL     OW32746   4.868  10.012   5.519  0.1412  0.3297 -1.1255
40811SOL    HW132747   4.793  10.003   5.461 -0.9323 -1.8053  0.4828
40811SOL    HW232748   4.943   9.988   5.464 -0.5529  0.5846 -2.2278
40812SOL     OW32749   3.448   0.648   4.158  0.1375 -0.1741 -0.1485
40812SOL    HW132750   3.397   0.597   4.221  0.3483  1.0630  1.0652
40812SOL    HW232751   3.537   0.612   4.166  0.3500  0.5314  0.9187
40813SOL     OW32752  11.083   2.810   2.450  0.0113 -0.5380  0.5761
40813SOL    HW132753  11.154   2.835   2.391 -1.5871  0.9445 -0.8492
40813SOL    HW232754  11.120   2.819   2.538  1.2134  1.5647 -0.0702
40814SOL     OW32755   0.803  11.381   1.436  0.3110 -0.0664 -0.1483
40814SOL    HW132756   0.730  11.429   1.397 -0.6408 -1.3608 -0.0263
40814SOL    HW232757   0.802  11.296   1.392  0.5529 -0.7863  1.1796
40815SOL     OW32758   9.074   2.254   1.356 -0.0541  0.2175 -0.3371
40815SOL    HW132759   9.121   2.289   1.280 -0.6963 -0.9271 -1.2930
40815SOL    HW232760   9.129   2.183   1.388 -0.0312  0.3673 -0.0381
40816SOL     OW32761  10.718   0.021   7.334 -0.2854  0.0417  0.1178
40816SOL    HW132762  10.760  -0.017   7.257  0.4080 -1.4770  1.2052
40816SOL    HW232763  10.681   0.103   7.302  0.1900 -0.4227 -1.7729
40817SOL     OW32764   3.710  11.711   1.190  0.0277 -0.1685  0.5126
40817SOL    HW132765   3.802  11.692   1.174  0.6520  2.1876  0.9321
40817SOL    HW232766   3.665  11.683   1.110  1.3145  0.0227 -0.3027
40818SOL     OW32767   3.725   4.365   1.135  0.1359 -0.2297  0.2124
40818SOL    HW132768   3.644   4.321   1.107 -0.3387  0.3925  0.5705
40818SOL    HW232769   3.705   4.395   1.224  0.4482  0.6955 -0.0197
40819SOL     OW32770   9.036   2.170   3.944  0.3565 -0.7247  0.4375
40819SOL    HW132771   9.114   2.140   3.990  1.0980  1.3609  0.6668
40819SOL    HW232772   9.066   2.188   3.855  0.2723  0.5391  0.6517
40820SOL     OW32773   7.975   7.839  10.871  0.2571  0.7418 -0.3031
40820SOL    HW132774   7.894   7.807  10.910 -0.2050 -1.4314 -2.7776
40820SOL    HW232775   7.948   7.910  10.814  0.3830  1.2529  0.2626
40821SOL     OW32776   2.236   2.399  11.765  0.0279  0.6030 -0.2899
40821SOL    HW132777   2.191   2.417  11.848 -0.2930  0.7581 -0.4917
40821SOL    HW232778   2.192   2.456  11.702  0.7649  1.0390 -0.4240
40822SOL     OW32779   9.772   9.631  12.892 -0.1644  0.2177  0.0955
40822SOL    HW132780   9.731   9.573  12.955  0.3180  0.0116  0.2234
40822SOL    HW232781   9.714   9.629  12.816 -1.0239  0.8700  0.7113
40823SOL     OW32782  10.756   5.335  10.905 -0.6732  0.4058 -0.1223
40823SOL    HW132783  10.734   5.301  10.819 -1.6057 -1.2972  0.7302
40823SOL    HW232784  10.843   5.374  10.895  0.6206 -2.4602 -1.1950
40824SOL     OW32785   4.126   4.076   4.253 -0.2943 -0.1020  0.1269
40824SOL    HW132786   4.184   4.151   4.268 -1.4578  1.0083 -0.6561
40824SOL    HW232787   4.147   4.046   4.165  0.2022 -0.7473  0.4570
40825SOL     OW32788   8.570  10.978   1.762  0.2927  0.3459  0.0478
40825SOL    HW132789   8.553  10.982   1.856  0.9567 -0.7949  0.2341
40825SOL    HW232790   8.649  11.031   1.749  0.6472 -0.1217  0.2614
40826SOL     OW32791  10.891   1.727   6.605  0.1560 -0.1519  0.1420
40826SOL    HW132792  10.949   1.782   6.552 -0.8577  0.6128 -0.2177
40826SOL    HW232793  10.920   1.638   6.588  1.8675  0.2416  0.7614
40827SOL     OW32794  11.666   4.013   5.929  0.3345 -0.1861 -0.0113
40827SOL    HW132795  11.642   3.992   5.839  3.2535  0.0729 -0.9500
40827SOL    HW232796  11.618   3.950   5.982 -1.8216 -0.0434 -1.6663
40828SOL     OW32797   3.115  10.546   6.411  0.0096  0.9199 -0.0670
40828SOL    HW132798   3.190  10.604   6.420 -0.2969  1.0476  2.2203
40828SOL    HW232799   3.133  10.472   6.469  0.0173 -0.9783 -2.3029
40829SOL     OW32800   6.819   4.921   5.201  0.3595  0.6112 -0.4357
40829SOL    HW132801   6.785   4.852   5.259  0.3110  1.3038  0.3690
40829SOL    HW232802   6.863   4.982   5.259  0.9144  0.9686 -1.2156
40830SOL     OW32803   2.431  11.452   6.232 -0.0385 -0.0878 -0.2649
40830SOL    HW132804   2.406  11.362   6.250 -1.5544  0.3979  0.1293
40830SOL    HW232805   2.455  11.488   6.317  0.3033 -0.0291 -0.3834
40831SOL     OW32806   0.663   3.313  11.348 -0.5832  0.4889 -0.2628
40831SOL    HW132807   0.736   3.274  11.300 -0.1751  2.7137 -1.5912
40831SOL    HW232808   0.618   3.368  11.283 -2.1437  0.8559  1.0658
40832SOL     OW32809   8.531   8.558   2.327  0.3997 -0.0670 -0.1131
40832SOL    HW132810   8.608   8.544   2.382  0.2431  3.7145  1.3760
40832SOL    HW232811   8.560   8.619   2.259 -0.6223 -0.9016 -1.3583
40833SOL     OW32812   2.637   9.947   3.496 -0.0680  0.2224 -0.4683
40833SOL    HW132813   2.695   9.975   3.567 -0.5643 -0.3741  0.1784
40833SOL    HW232814   2.553   9.988   3.515 -0.3039 -0.2339 -0.5116
40834SOL     OW32815   9.557   1.185   3.831  0.4421 -0.0368  1.1506
40834SOL    HW132816   9.478   1.235   3.852  0.8141  0.6177  1.0097
40834SOL    HW232817   9.524   1.101   3.799 -0.1616 -0.3104  2.4568
40835SOL     OW32818  11.926   0.127   8.566 -0.3281 -0.3965 -0.5120
40835SOL    HW132819  11.947   0.052   8.509  0.6170 -0.4026 -0.1809
40835SOL    HW232820  12.002   0.135   8.623  0.0807  1.4978 -1.2601
40836SOL     OW32821   1.924   9.243   2.774  0.3238 -0.4060 -0.2341
40836SOL    HW132822   1.928   9.147   2.770  0.7304 -0.3439 -2.3531
40836SOL    HW232823   1.831   9.263   2.764 -0.0701 -0.5787  2.3812
40837SOL     OW32824   2.719   8.698  11.303 -0.0634  0.1738 -0.1816
40837SOL    HW132825   2.805   8.661  11.284 -0.0867  0.3776 -0.7160
40837SOL    HW232826   2.734   8.792  11.307 -0.4439  0.3094 -1.3999
40838SOL     OW32827   2.333   1.703   0.446 -0.5695  0.1294 -0.1343
40838SOL    HW132828   2.307   1.789   0.412 -1.5364  0.2114  0.7428
40838SOL    HW232829   2.277   1.690   0.523  0.5009 -0.6938  0.5383
40839SOL     OW32830   8.901  12.815   3.655 -0.1802  0.0054 -0.7936
40839SOL    HW132831   8.860  12.752   3.715  0.1047  1.2836  0.8188
40839SOL    HW232832   8.982  12.774   3.628  1.5425  0.7731  2.6398
40840SOL     OW32833   6.984   8.381   6.252 -1.1219  0.6880 -0.1288
40840SOL    HW132834   6.898   8.353   6.282  0.0882 -0.2738  2.7674
40840SOL    HW232835   6.966   8.454   6.193 -3.9570 -0.4465 -0.8297
40841SOL     OW32836   9.619  10.930  12.972 -0.2510 -0.1145  0.3288
40841SOL    HW132837   9.706  10.894  12.953 -0.1667 -0.5687  1.4829
40841SOL    HW232838   9.593  10.974  12.891  1.8566  1.6289  0.4749
40842SOL     OW32839   7.577  10.142  11.196  0.5485 -0.4042  0.2965
40842SOL    HW132840   7.635  10.218  11.194 -0.3846  0.3695  1.3235
40842SOL    HW232841   7.579  10.112  11.286 -0.8879 -0.1428  0.4387
40843SOL     OW32842   9.996  11.050   8.384 -0.5374  0.1971  0.1588
40843SOL    HW132843   9.986  11.003   8.302 -2.0463  2.4401 -1.0544
40843SOL    HW232844   9.989  10.983   8.452  2.5717 -2.0323 -1.4523
40844SOL     OW32845   6.120   7.540   7.266  0.1638  0.1304 -0.1061
40844SOL    HW132846   6.199   7.486   7.261  1.4185  1.5670  2.3896
40844SOL    HW232847   6.072   7.506   7.341 -0.5683  0.5595 -0.3754
40845SOL     OW32848   1.561   2.136   1.738 -0.2026 -0.2640 -0.1544
40845SOL    HW132849   1.630   2.118   1.674  1.4748 -0.6492  1.6633
40845SOL    HW232850   1.591   2.214   1.784 -1.4987  0.1442  0.0367
40846SOL     OW32851   8.490   3.139   4.253 -0.0805  0.4256 -0.1959
40846SOL    HW132852   8.481   3.127   4.159  0.3151  2.0057 -0.4675
40846SOL    HW232853   8.429   3.210   4.274 -1.2605 -0.8833  1.0078
40847SOL     OW32854   8.513  10.042   4.378  0.0387  0.1507 -0.3025
40847SOL    HW132855   8.522  10.041   4.473 -3.0297 -1.7283  0.0987
40847SOL    HW232856   8.508   9.950   4.353 -0.9496  0.6298 -2.0602
40848SOL     OW32857   0.242  11.332   6.571  0.2276 -0.1182  0.0621
40848SOL    HW132858   0.319  11.298   6.618  0.4892  1.3474  0.7444
40848SOL    HW232859   0.270  11.334   6.479  0.9162  0.1101  0.2655
40849SOL     OW32860  10.675   0.205   2.352  0.1347 -0.0662  0.4238
40849SOL    HW132861  10.581   0.200   2.333 -0.2655  1.0113  1.9036
40849SOL    HW232862  10.684   0.162   2.437  0.6638  1.4154  1.1500
40850SOL     OW32863   0.369   8.437  10.131  0.1348 -0.4227 -0.1168
40850SOL    HW132864   0.328   8.509  10.081 -2.1567 -0.3272  1.7167
40850SOL    HW232865   0.307   8.365  10.123 -0.0485 -0.5653  2.0749
40851SOL     OW32866   4.057   3.444   1.253 -0.0918  0.0551 -0.3554
40851SOL    HW132867   4.084   3.433   1.344  0.0778  1.9451 -0.1529
40851SOL    HW232868   3.961   3.449   1.257 -0.0238  1.5999 -0.0712
40852SOL     OW32869   8.660   0.791   6.720 -0.2563  0.7853 -0.2143
40852SOL    HW132870   8.681   0.877   6.756 -0.8242  0.5395  0.7294
40852SOL    HW232871   8.745   0.752   6.699  0.1279  0.7859  1.2400
40853SOL     OW32872   4.169   3.867   5.559  0.4032  0.2280  0.1126
40853SOL    HW132873   4.241   3.834   5.613  0.2281 -0.4762 -0.0850
40853SOL    HW232874   4.213   3.910   5.486  0.6418  1.0494  0.7139
40854SOL     OW32875   0.808   9.096  11.065 -0.3165  0.3078  0.5445
40854SOL    HW132876   0.784   9.151  10.991  3.2105  1.5963  0.1576
40854SOL    HW232877   0.779   9.144  11.142 -0.5000  0.9332  0.0883
40855SOL     OW32878   0.081   1.088   2.604 -0.2665 -0.3423 -0.3305
40855SOL    HW132879   0.070   1.002   2.563 -0.4347 -1.0059  1.0410
40855SOL    HW232880   0.151   1.076   2.667 -1.6554 -0.0582  1.3412
40856SOL     OW32881  12.879  12.277   7.632 -0.8311  0.0121  0.0044
40856SOL    HW132882  12.883  12.244   7.722  0.1633  1.3330  0.4902
40856SOL    HW232883  12.865  12.199   7.578  0.9384 -1.1418  1.1114
40857SOL     OW32884  10.516   0.767   7.183 -0.4896  0.1859  0.3555
40857SOL    HW132885  10.538   0.756   7.091  0.3607 -0.3582  0.6084
40857SOL    HW232886  10.427   0.802   7.183  0.0012  1.4989 -0.6969
40858SOL     OW32887   1.810   0.728   3.973 -0.6731 -0.2020  0.2717
40858SOL    HW132888   1.864   0.713   4.051 -0.5777 -1.5238 -0.0161
40858SOL    HW232889   1.831   0.655   3.915 -1.4739  0.2240 -0.5873
40859SOL     OW32890   5.194   8.890   8.426 -0.1610  0.5056 -0.0315
40859SOL    HW132891   5.102   8.889   8.401 -0.6609  0.4549  1.7046
40859SOL    HW232892   5.236   8.945   8.360 -1.2451 -0.2198 -1.3911
40860SOL     OW32893   4.966   6.944   3.083  0.1504  0.3798  0.1756
40860SOL    HW132894   4.933   6.868   3.036 -0.0636  0.4768  0.1677
40860SOL    HW232895   4.889   6.999   3.097  0.5901  1.4182 -1.3259
40861SOL     OW32896   9.233   1.257  12.655 -0.2315 -0.2178 -0.8930
40861SOL    HW132897   9.172   1.312  12.704  0.7859  0.0314  0.1264
40861SOL    HW232898   9.201   1.168  12.668 -0.6270 -0.0544 -0.7384
40862SOL     OW32899   0.179  12.092   0.329  0.7045  0.6630 -0.2581
40862SOL    HW132900   0.270  12.112   0.350  0.6482  0.2697  0.3659
40862SOL    HW232901   0.166  12.131   0.242  0.9547  2.2715  0.3842
40863SOL     OW32902   0.076   4.294   4.469 -0.3833  0.1965 -0.0407
40863SOL    HW132903   0.012   4.227   4.493 -2.8870  2.0712 -1.0190
40863SOL    HW232904   0.049   4.323   4.382  0.0550  2.9893  0.6553
40864SOL     OW32905   3.955  12.310   1.492  0.0451  0.0665 -0.2332
40864SOL    HW132906   4.008  12.319   1.571  0.5740  3.3005 -0.8166
40864SOL    HW232907   3.900  12.233   1.508  2.1880 -1.1422  1.9921
40865SOL     OW32908   1.029   5.233   6.627 -1.0514  0.2893  0.0542
40865SOL    HW132909   0.966   5.209   6.695  0.0762  0.0595  1.0417
40865SOL    HW232910   1.084   5.300   6.667  1.0155 -1.3733  0.1955
40866SOL     OW32911  11.065   8.268   9.136 -0.1062 -0.3251 -0.0502
40866SOL    HW132912  11.130   8.200   9.123 -0.1166 -0.4960  0.7139
40866SOL    HW232913  11.104   8.348   9.100 -0.6559 -0.9840 -2.2512
40867SOL     OW32914   8.762   1.463  10.913  0.2327 -0.5526  0.6121
40867SOL    HW132915   8.836   1.441  10.857  0.5485 -0.2051  0.8903
40867SOL    HW232916   8.694   1.400  10.889  0.0891  0.0737 -0.7149
40868SOL     OW32917   2.306  11.223   6.274  0.0530  0.1844  0.0997
40868SOL    HW132918   2.220  11.245   6.238 -0.6998 -1.9538  0.4630
40868SOL    HW232919   2.336  11.148   6.222  1.5752  0.6774  0.1972
40869SOL     OW32920   4.012   3.837   7.786  0.4213 -0.4354  0.3505
40869SOL    HW132921   4.088   3.845   7.844  0.6059  0.2017  0.0181
40869SOL    HW232922   4.048   3.810   7.702  0.3145  0.1263  0.1188
40870SOL     OW32923   3.640   7.462   4.940 -0.1097 -0.3596  0.2049
40870SOL    HW132924   3.612   7.372   4.954  0.4793 -0.2321  2.7846
40870SOL    HW232925   3.720   7.471   4.992 -0.8307  1.9653  1.0655
40871SOL     OW32926   3.775  12.219   8.395  0.6141  0.1417 -0.3001
40871SOL    HW132927   3.819  12.240   8.478 -1.7895 -0.1937  1.1521
40871SOL    HW232928   3.703  12.282   8.390 -0.2995 -0.9465 -1.2683
40872SOL     OW32929  12.178  12.081   5.726  0.2472  0.1686  0.4714
40872SOL    HW132930  12.216  12.110   5.810 -0.6397  0.2874  0.8411
40872SOL    HW232931  12.227  12.130   5.660  0.1981  0.9319  0.9832
40873SOL     OW32932   6.736  12.341   2.836  0.0305  0.1389 -0.3597
40873SOL    HW132933   6.694  12.400   2.898  0.8224 -1.5003  1.8463
40873SOL    HW232934   6.741  12.392   2.755 -2.3116  1.8762  0.4601
40874SOL     OW32935   7.955   5.250  12.106 -0.0194  0.5452  0.3548
40874SOL    HW132936   7.881   5.307  12.125  1.1245  1.8651  0.9378
40874SOL    HW232937   8.024   5.278  12.165  1.2790 -0.0015 -0.8326
40875SOL     OW32938   4.730   4.783   0.898  0.0647 -0.6118  0.2268
40875SOL    HW132939   4.702   4.782   0.807 -2.2181  0.9573  0.8180
40875SOL    HW232940   4.813   4.831   0.898 -0.0357 -0.4258 -0.9774
40876SOL     OW32941   2.373   6.632  10.436 -0.3096 -0.0085 -0.1365
40876SOL    HW132942   2.331   6.705  10.390 -0.8162 -0.3497 -0.2240
40876SOL    HW232943   2.461   6.627  10.399 -0.4415  0.2346 -0.4831
40877SOL     OW32944   2.889   1.518  11.228  0.1553 -0.3141 -0.3945
40877SOL    HW132945   2.802   1.537  11.191 -0.1453 -0.3100  0.2980
40877SOL    HW232946   2.945   1.508  11.152 -0.1317  1.1750 -0.8392
40878SOL     OW32947  10.285   3.900  11.371  1.0052  0.0856 -0.4247
40878SOL    HW132948  10.291   3.922  11.464 -0.3159  0.8013 -0.4861
40878SOL    HW232949  10.309   3.981  11.325 -0.2912  0.3542 -0.6732
40879SOL     OW32950   6.653   6.577   9.220  0.5587 -0.1665  0.2758
40879SOL    HW132951   6.674   6.572   9.126  0.8094 -0.3432  0.3413
40879SOL    HW232952   6.584   6.643   9.225  1.6810  1.0643  0.1474
40880SOL     OW32953   7.704   3.499   5.736  0.4797 -0.3431  0.2207
40880SOL    HW132954   7.609   3.507   5.726  0.3804 -1.3348  0.3254
40880SOL    HW232955   7.737   3.586   5.715 -0.5108  0.2180  0.8766
40881SOL     OW32956   0.917   0.102   2.859  0.3710  0.0251 -0.0874
40881SOL    HW132957   0.845   0.119   2.920  0.7007 -2.2850  1.0638
40881SOL    HW232958   0.996   0.113   2.912  0.6761 -1.5393 -0.1459
40882SOL     OW32959   6.887   0.539   4.362 -0.4250  0.5478  0.1304
40882SOL    HW132960   6.872   0.461   4.308  2.3775  0.3543 -0.5594
40882SOL    HW232961   6.904   0.505   4.450  3.2478 -0.0396 -0.6287
40883SOL     OW32962   1.590  10.990   2.514 -0.1015  0.3057  0.2279
40883SOL    HW132963   1.633  10.905   2.514 -0.3192  0.1730 -1.2447
40883SOL    HW232964   1.642  11.043   2.454 -0.3907  0.9932  0.5735
40884SOL     OW32965   2.051   9.909   6.988  0.5155 -0.3465  0.7520
40884SOL    HW132966   2.064   9.887   7.080  3.2651  2.1082  1.1136
40884SOL    HW232967   1.963   9.945   6.984 -0.4795 -2.5256  1.9225
40885SOL     OW32968   1.610   9.785  12.679 -0.3106  0.1012  0.2223
40885SOL    HW132969   1.667   9.762  12.607 -1.0882 -0.3749 -0.2569
40885SOL    HW232970   1.645   9.736  12.754  1.1670  1.4564  0.4711
40886SOL     OW32971   1.737   9.466   5.090 -0.0565 -0.1996 -0.2218
40886SOL    HW132972   1.702   9.417   5.164 -0.6597  0.4499 -0.0709
40886SOL    HW232973   1.708   9.417   5.013 -0.8691  0.0537 -0.0797
40887SOL     OW32974   1.397   0.842  12.126 -0.0088  0.2496 -0.1040
40887SOL    HW132975   1.492   0.833  12.116  0.1545  1.3101  0.4341
40887SOL    HW232976   1.361   0.792  12.052  1.0133  1.5740 -1.5656
40888SOL     OW32977   0.509   4.492   7.701  0.6122  0.4991  0.3416
40888SOL    HW132978   0.504   4.540   7.618  1.2066  1.4890  0.8593
40888SOL    HW232979   0.452   4.416   7.689  0.6846  0.6349 -0.9691
40889SOL     OW32980   4.367   9.709   9.010 -0.4294  0.3162 -0.2056
40889SOL    HW132981   4.400   9.743   9.094 -0.1430  0.1142 -0.2336
40889SOL    HW232982   4.330   9.786   8.967  0.6857  0.7174 -0.4909
40890SOL     OW32983   0.077   8.094   1.009 -0.6183  0.5794  0.4124
40890SOL    HW132984   0.127   8.049   0.941 -1.7327 -0.7691  0.4286
40890SOL    HW232985   0.141   8.147   1.056  0.4605  0.2313 -0.6282
40891SOL     OW32986  10.151   2.684   2.319  0.6131 -0.0727  0.0594
40891SOL    HW132987  10.093   2.672   2.394 -0.7423  0.6756 -0.8410
40891SOL    HW232988  10.106   2.640   2.247  0.3571  1.8606 -1.0219
40892SOL     OW32989   1.433  10.565  10.937  0.0279  0.4007 -0.3630
40892SOL    HW132990   1.386  10.590  11.016 -0.8315 -0.8604 -0.4541
40892SOL    HW232991   1.459  10.648  10.897 -1.5887  1.1084  0.0045
40893SOL     OW32992  12.712   0.433   7.213  0.4995 -0.2030  0.2607
40893SOL    HW132993  12.651   0.428   7.139 -0.2137  1.2001  0.7297
40893SOL    HW232994  12.798   0.439   7.173  0.3380 -1.8073 -0.4207
40894SOL     OW32995   3.026   9.372   4.047  0.6062 -0.0188 -0.3822
40894SOL    HW132996   3.087   9.431   4.092  1.7395 -0.0522 -1.7895
40894SOL    HW232997   3.040   9.390   3.954 -1.4341 -0.1748 -0.7593
40895SOL     OW32998   5.065   8.760   4.421  0.1101 -0.5009  0.0039
40895SOL    HW132999   5.062   8.804   4.506  1.3612 -0.4685  0.0606
40895SOL    HW233000   5.136   8.696   4.430 -1.1555 -2.0086 -0.3360
40896SOL     OW33001  12.982   7.804   5.494 -0.1930  0.1987  0.4361
40896SOL    HW133002  13.064   7.763   5.522 -1.5287 -1.9577  1.5869
40896SOL    HW233003  13.008   7.875   5.436  2.4173 -1.5490 -0.7224
40897SOL     OW33004   4.106   5.270   2.497 -0.0528 -0.2094 -0.2023
40897SOL    HW133005   4.028   5.323   2.509  1.6812  2.2519  1.2516
40897SOL    HW233006   4.112   5.217   2.576  1.1787  1.7648  1.1221
40898SOL     OW33007   9.258  12.879   1.392  0.5292 -0.4548 -0.1584
40898SOL    HW133008   9.328  12.909   1.451  0.2883  1.4998 -0.7939
40898SOL    HW233009   9.298  12.810   1.339  0.9484 -1.7880  1.7787
40899SOL     OW33010  11.487   4.696   3.231  0.3816  0.1655  0.0038
40899SOL    HW133011  11.394   4.677   3.228  0.4030  0.1079 -0.2939
40899SOL    HW233012  11.523   4.629   3.290  0.3341 -0.2174 -0.3956
40900SOL     OW33013   7.268   2.381  12.187 -0.3649  0.3045 -0.0452
40900SOL    HW133014   7.356   2.406  12.213 -0.3213  0.7149 -0.5851
40900SOL    HW233015   7.221   2.464  12.180 -0.5361  0.1522 -0.7043
40901SOL     OW33016  12.149  12.389   7.963  0.2788  0.5270 -0.3612
40901SOL    HW133017  12.214  12.392   8.034  0.2687  0.9718 -0.3648
40901SOL    HW233018  12.193  12.430   7.889  0.1609  0.3954 -0.5047
40902SOL     OW33019   8.021   1.093   0.499 -0.8723  0.5930 -0.0087
40902SOL    HW133020   8.060   1.036   0.433 -0.2836  0.6912  0.2455
40902SOL    HW233021   8.054   1.180   0.479  0.5242  0.3998  1.2858
40903SOL     OW33022  12.788   6.276  12.915 -0.1352 -0.1262 -0.1959
40903SOL    HW133023  12.722   6.309  12.975 -0.5655 -1.2197 -0.0512
40903SOL    HW233024  12.738   6.229  12.848  0.5350 -1.9827  0.5510
40904SOL     OW33025   5.812   2.023   4.009  0.1802 -0.3801  0.8909
40904SOL    HW133026   5.897   2.065   4.024  1.1543 -2.6529  2.1806
40904SOL    HW233027   5.794   2.039   3.916  2.2778 -0.2396  0.4497
40905SOL     OW33028   6.252   3.255   6.149  0.3508 -0.7240  0.1840
40905SOL    HW133029   6.339   3.233   6.184 -0.6285 -1.7932  2.1260
40905SOL    HW233030   6.209   3.170   6.138 -0.4505 -0.2044 -0.8106
40906SOL     OW33031   3.006   3.407   4.062 -0.9298 -0.4584 -0.5339
40906SOL    HW133032   2.968   3.433   3.978 -1.2817  1.4959  0.1984
40906SOL    HW233033   3.100   3.397   4.044 -1.1367 -0.9921 -1.3545
40907SOL     OW33034   2.420   3.916  12.450  0.8190  0.3675  0.4874
40907SOL    HW133035   2.370   3.891  12.527 -0.1298  1.0095  0.1047
40907SOL    HW233036   2.367   3.887  12.376  0.9070  1.2237  0.0697
40908SOL     OW33037   5.237   9.583   7.376  0.0248 -0.0722 -0.3779
40908SOL    HW133038   5.265   9.565   7.466  0.1013 -1.9773 -0.7386
40908SOL    HW233039   5.163   9.524   7.362 -1.2005  1.5219 -0.9933
40909SOL     OW33040   8.591   9.927  11.337  0.7300  0.7769 -0.6773
40909SOL    HW133041   8.551   9.896  11.418 -1.5148  0.8452 -1.6671
40909SOL    HW233042   8.602   9.849  11.283  4.5308  0.3398  0.5002
40910SOL     OW33043   7.379   1.835  10.224 -0.1253 -0.1703  0.2308
40910SOL    HW133044   7.360   1.916  10.270 -1.5997 -0.2152 -0.2237
40910SOL    HW233045   7.415   1.862  10.140 -1.6035  0.1004 -0.3575
40911SOL     OW33046   8.901   3.016   5.669  0.6067 -0.0998 -1.0509
40911SOL    HW133047   8.947   3.063   5.599  1.1415  0.3611 -0.3995
40911SOL    HW233048   8.960   2.945   5.694  0.7473  0.1796 -0.5706
40912SOL     OW33049   6.895   2.857   4.336 -0.2705 -0.0753 -0.3471
40912SOL    HW133050   6.960   2.925   4.357  0.6832 -0.6439 -1.3103
40912SOL    HW233051   6.945   2.791   4.288 -1.3909 -0.9862 -0.2943
40913SOL     OW33052   9.987   4.782   9.166 -0.2668  0.1980 -0.6412
40913SOL    HW133053  10.010   4.695   9.198  0.8586 -0.3126 -2.6333
40913SOL    HW233054  10.019   4.842   9.233 -1.6057 -0.8902  1.0611
40914SOL     OW33055   8.961   1.716  11.134 -0.7588 -0.7129 -0.2584
40914SOL    HW133056   8.985   1.648  11.197  1.6622  1.4986  1.3943
40914SOL    HW233057   8.869   1.735  11.154 -1.1227 -2.5653  0.0584
40915SOL     OW33058   2.837   9.217   2.542  0.1399 -0.1604 -0.1507
40915SOL    HW133059   2.893   9.165   2.485 -0.7093 -0.2612 -0.9120
40915SOL    HW233060   2.768   9.157   2.570 -0.7113  0.4735 -0.8455
40916SOL     OW33061   1.492   0.046   1.111 -0.4052 -0.8158  0.0148
40916SOL    HW133062   1.502  -0.048   1.096 -1.1135 -0.8639 -0.2062
40916SOL    HW233063   1.429   0.052   1.183  1.3736 -0.5413  1.6075
40917SOL     OW33064  10.854   5.627   2.393  0.1822  0.1740  0.4933
40917SOL    HW133065  10.940   5.585   2.387  0.8498  1.3164  1.6701
40917SOL    HW233066  10.819   5.596   2.477  0.4252  1.4605  1.0858
40918SOL     OW33067   3.631   1.599   0.449 -1.2504  0.2500  0.3938
40918SOL    HW133068   3.602   1.553   0.371 -0.9169 -0.0128  0.4252
40918SOL    HW233069   3.723   1.621   0.432 -0.8417 -0.7760  1.1462
40919SOL     OW33070   4.452   3.946   6.759  0.6257  0.5711 -0.4610
40919SOL    HW133071   4.427   3.929   6.668 -1.7715  0.8569  0.0635
40919SOL    HW233072   4.472   4.040   6.761  1.0256  0.4958 -0.7481
40920SOL     OW33073   5.362   6.614   5.365  0.3498  0.6289 -0.2521
40920SOL    HW133074   5.307   6.666   5.307 -1.1538 -1.3748 -0.7327
40920SOL    HW233075   5.319   6.528   5.368  2.1678 -0.2958  1.2728
40921SOL     OW33076   5.756  12.593   8.029 -0.3969  0.5071 -0.0332
40921SOL    HW133077   5.779  12.522   8.089  0.0587  0.0023 -0.7754
40921SOL    HW233078   5.805  12.572   7.949 -1.4219  0.8581 -0.7658
40922SOL     OW33079   4.321   0.163  10.569 -0.2997  0.6508 -0.1425
40922SOL    HW133080   4.227   0.148  10.565 -0.3061  0.2637  1.1272
40922SOL    HW233081   4.359   0.076  10.585  0.3326  0.7030 -1.2496
40923SOL     OW33082   2.817   7.990   9.491 -0.1334  0.3548 -0.2896
40923SOL    HW133083   2.837   8.028   9.577 -0.0782  2.3625 -1.1363
40923SOL    HW233084   2.903   7.965   9.456 -0.1116 -0.0505  0.0397
40924SOL     OW33085   0.143   3.876  12.164 -0.5382  0.1726 -0.6676
40924SOL    HW133086   0.181   3.928  12.094 -0.9412  1.1683 -0.1711
40924SOL    HW233087   0.210   3.811  12.185  0.4067  1.1282 -0.6204
40925SOL     OW33088   7.890   2.383  11.524  0.4334 -0.0255 -0.1756
40925SOL    HW133089   7.979   2.351  11.516  0.9106  1.3311 -0.5895
40925SOL    HW233090   7.877   2.437  11.446 -0.6431  0.0638  0.0455
40926SOL     OW33091  12.184  11.047   6.534  0.3229  0.0001  0.3864
40926SOL    HW133092  12.097  11.033   6.571  0.3793  1.0260  0.9446
40926SOL    HW233093  12.208  11.135   6.562  0.3581  0.8874 -2.1919
40927SOL     OW33094   3.653   6.488  11.580 -0.2980 -0.8756  0.2817
40927SOL    HW133095   3.714   6.426  11.541  0.5093  0.3485 -0.4928
40927SOL    HW233096   3.684   6.574  11.550 -1.6938 -0.1332  0.8590
40928SOL     OW33097  11.192  10.893   4.497 -0.4075  0.5242  0.9096
40928SOL    HW133098  11.199  10.799   4.512 -0.2753  0.2124 -0.9016
40928SOL    HW233099  11.121  10.922   4.555 -1.3838 -0.9388  0.4936
40929SOL     OW33100   0.926   3.099   5.628  0.7687 -0.1703  0.1935
40929SOL    HW133101   0.845   3.145   5.649 -0.0320 -1.7771  0.7706
40929SOL    HW233102   0.996   3.160   5.654 -0.2387  0.2831  2.0090
40930SOL     OW33103  11.919   1.561   1.798 -0.2349  0.2314  0.0530
40930SOL    HW133104  11.956   1.497   1.737 -0.1070  0.1891  0.1784
40930SOL    HW233105  11.841   1.518   1.834  0.5538 -0.3502  1.1044
40931SOL     OW33106   0.248   1.572   4.815  0.2678 -0.6120  0.4050
40931SOL    HW133107   0.205   1.633   4.875  0.0165  1.3934 -1.6273
40931SOL    HW233108   0.185   1.501   4.803 -0.4077 -0.1539  1.1707
40932SOL     OW33109   2.223  11.475   5.744  0.5483  0.2536  0.0973
40932SOL    HW133110   2.255  11.385   5.749  1.1164  0.3571 -1.2215
40932SOL    HW233111   2.303  11.528   5.745  0.3242  0.6287 -1.0987
40933SOL     OW33112   5.024  10.983   9.994  0.7401  0.2622 -0.4603
40933SOL    HW133113   4.974  10.910  10.032 -0.3047  0.1791 -1.8975
40933SOL    HW233114   5.115  10.958  10.008  0.5099  0.8508  3.0596
40934SOL     OW33115   4.440   6.163   3.122  0.1329 -0.8655 -0.1908
40934SOL    HW133116   4.398   6.143   3.038 -1.4860  0.1500  0.3276
40934SOL    HW233117   4.452   6.077   3.163 -1.2210 -1.2234 -0.4795
40935SOL     OW33118   6.288   3.566   4.354  0.2088 -0.0805  0.2423
40935SOL    HW133119   6.253   3.557   4.265  0.1087 -0.0236  0.2758
40935SOL    HW233120   6.345   3.490   4.365  0.5202  0.1135 -0.0070
40936SOL     OW33121   8.492   4.610   8.018  0.3895 -0.3558  0.0551
40936SOL    HW133122   8.465   4.632   7.929  1.9152  0.2204 -0.3073
40936SOL    HW233123   8.470   4.687   8.069 -0.4002 -0.6485  0.1623
40937SOL     OW33124   4.817   3.514   0.383 -0.6320 -0.0025  0.0326
40937SOL    HW133125   4.814   3.595   0.333  0.9001 -0.8475 -1.5563
40937SOL    HW233126   4.905   3.510   0.419 -1.3440  0.0062  1.8956
40938SOL     OW33127   0.360   0.229   5.596 -0.0333 -0.0765 -0.5515
40938SOL    HW133128   0.317   0.168   5.656 -1.4989  1.2701 -0.1688
40938SOL    HW233129   0.308   0.224   5.516  1.5950 -1.4569 -1.6018
40939SOL     OW33130   7.237   4.372   3.327  0.4259 -0.2511 -0.4237
40939SOL    HW133131   7.326   4.389   3.358  0.8575 -0.9652 -1.2513
40939SOL    HW233132   7.222   4.437   3.259  0.1287  0.1717  0.0348
40940SOL     OW33133  12.068   3.820   3.385 -0.4239 -0.5683  0.1494
40940SOL    HW133134  12.028   3.820   3.473  1.2087  2.3967  1.0135
40940SOL    HW233135  12.158   3.793   3.401 -0.2821 -0.6289 -0.7535
40941SOL     OW33136   0.954   8.269   3.985  0.3039  0.2428  0.0391
40941SOL    HW133137   0.961   8.198   3.922 -0.5665  1.4036 -1.4276
40941SOL    HW233138   0.880   8.244   4.041 -0.5331  0.3345 -0.9818
40942SOL     OW33139  12.269   1.950  12.726 -0.1467  0.4388  0.1158
40942SOL    HW133140  12.317   1.869  12.744 -0.0283  0.0995 -1.5706
40942SOL    HW233141  12.324   2.019  12.763 -0.1200 -0.2022  1.3373
40943SOL     OW33142  12.840   7.535   2.775  0.3337  0.3201 -0.5781
40943SOL    HW133143  12.924   7.527   2.729  1.9615  2.0508  1.8369
40943SOL    HW233144  12.793   7.604   2.728  0.7751  0.1652 -1.2559
40944SOL     OW33145   9.129   0.056  11.719  0.1573 -0.3641 -0.1095
40944SOL    HW133146   9.104   0.102  11.800 -1.8991 -2.3422  0.4974
40944SOL    HW233147   9.106   0.117  11.649 -0.6754  0.3086  0.7196
40945SOL     OW33148   8.674  12.620   1.606 -0.4712  0.2233  0.2309
40945SOL    HW133149   8.606  12.672   1.648 -0.0893  0.8955  0.0237
40945SOL    HW233150   8.648  12.615   1.514  0.0022  0.8809  0.0589
40946SOL     OW33151  10.628   6.855   9.910 -0.1605  0.3051  0.6494
40946SOL    HW133152  10.648   6.857  10.004  0.7874  2.3363  0.4495
40946SOL    HW233153  10.709   6.884   9.868 -1.0511  0.9041 -0.6979
40947SOL     OW33154   3.573   2.191   2.389 -0.2211 -0.6214  0.6297
40947SOL    HW133155   3.480   2.171   2.397 -0.1870 -0.4502  1.6293
40947SOL    HW233156   3.612   2.111   2.354 -0.8114 -0.5117 -0.3142
40948SOL     OW33157   1.204   4.471   6.749  0.8067  0.5621  0.4280
40948SOL    HW133158   1.280   4.418   6.725  0.9401  0.4775  1.0235
40948SOL    HW233159   1.236   4.531   6.817  0.2161  0.1392  1.1034
40949SOL     OW33160   0.262   0.707  12.016  0.1671 -0.7895  0.2546
40949SOL    HW133161   0.202   0.670  11.951 -0.3284 -1.8382  1.2799
40949SOL    HW233162   0.282   0.634  12.074  2.8122 -0.6046 -0.2911
40950SOL     OW33163   6.607   3.202   1.367 -0.3799 -0.8657  0.6279
40950SOL    HW133164   6.639   3.264   1.301 -0.2549  0.6587  2.0768
40950SOL    HW233165   6.686   3.172   1.412 -0.5739 -0.8745  0.9657
40951SOL     OW33166  12.111   3.234   3.433  0.1786  0.6247 -0.5340
40951SOL    HW133167  12.103   3.162   3.371  0.1275 -1.6696  1.9382
40951SOL    HW233168  12.204   3.235   3.457  0.1551  1.3226 -0.4539
40952SOL     OW33169   9.703   2.299   7.754 -0.1934  0.0036  0.7005
40952SOL    HW133170   9.659   2.384   7.761  1.5338  0.8740  1.7313
40952SOL    HW233171   9.695   2.260   7.842  1.6448  0.5176  1.1411
40953SOL     OW33172   9.135   1.106   7.019  0.1324 -0.1576  0.8569
40953SOL    HW133173   9.228   1.093   7.036  0.3707  1.4117  0.9135
40953SOL    HW233174   9.109   1.175   7.080 -0.3214  1.6601 -1.2713
40954SOL     OW33175   9.593   4.842   5.743  0.5018 -0.0415  0.0974
40954SOL    HW133176   9.568   4.890   5.664 -0.0239  0.9892  0.8612
40954SOL    HW233177   9.515   4.843   5.798  1.0364 -0.2265  0.8777
40955SOL     OW33178   6.353   3.963   6.526 -0.3412 -0.0947 -0.2443
40955SOL    HW133179   6.341   3.873   6.558 -0.8923 -0.5831 -1.7577
40955SOL    HW233180   6.279   3.977   6.467  1.2971  0.2890 -2.3047
40956SOL     OW33181   2.084   8.853   9.047  0.6198 -0.1349 -0.2649
40956SOL    HW133182   2.022   8.807   9.103  2.5205 -1.4042  0.9222
40956SOL    HW233183   2.146   8.893   9.108  2.8007 -1.6121 -1.3642
40957SOL     OW33184   7.607  12.449   9.817 -0.2948 -0.4735 -0.0188
40957SOL    HW133185   7.577  12.397   9.743 -1.6258 -0.3044  0.3721
40957SOL    HW233186   7.602  12.389   9.892  0.0249 -0.3353  0.1154
40958SOL     OW33187  12.048  10.893   1.999 -0.1151 -0.3189 -0.1801
40958SOL    HW133188  12.121  10.835   2.018 -0.0884 -0.4510 -0.6643
40958SOL    HW233189  12.084  10.962   1.943 -0.2942 -0.2198 -0.1777
40959SOL     OW33190  11.073   0.287   8.798 -0.0772 -0.1247  0.2805
40959SOL    HW133191  11.096   0.195   8.780 -1.7218 -0.6041  0.4677
40959SOL    HW233192  11.040   0.321   8.715  0.9011  0.4325  0.1105
40960SOL     OW33193  10.234   9.874   5.074  0.2032 -0.1141  0.6045
40960SOL    HW133194  10.280   9.916   5.001  1.1802 -0.6830  0.8806
40960SOL    HW233195  10.267   9.919   5.152 -0.4011  0.0893  0.7523
40961SOL     OW33196   6.960   2.281   1.067 -0.1929  0.6037 -0.1284
40961SOL    HW133197   6.867   2.302   1.080  0.2398  1.9252  0.9923
40961SOL    HW233198   6.961   2.186   1.057 -1.5013  0.3584  1.5623
40962SOL     OW33199   7.706   1.607  12.335 -0.1258  0.4813 -0.1653
40962SOL    HW133200   7.753   1.651  12.405 -0.6074 -0.1459  0.5686
40962SOL    HW233201   7.712   1.667  12.261  0.4165  1.1404  0.3968
40963SOL     OW33202   3.917   8.480   9.131 -0.1433 -0.3471  0.0740
40963SOL    HW133203   3.951   8.565   9.158 -0.0671 -0.6805  1.0912
40963SOL    HW233204   3.822   8.487   9.141 -0.3711  0.3192 -1.9913
40964SOL     OW33205   0.698  10.160   4.503 -0.0202  0.4976 -0.1567
40964SOL    HW133206   0.779  10.120   4.536  0.9807  2.6420  0.1912
40964SOL    HW233207   0.634  10.146   4.572  1.3416  2.6565  1.6615
40965SOL     OW33208   0.850  12.532   5.796  0.6699  0.1475 -0.4668
40965SOL    HW133209   0.875  12.461   5.736 -0.1780 -0.0548 -0.5878
40965SOL    HW233210   0.760  12.552   5.774  0.4236  0.2388  0.5785
40966SOL     OW33211   0.385  12.376  11.980  0.2153 -0.1220 -0.0428
40966SOL    HW133212   0.341  12.314  12.038 -0.3599  0.9673  0.7183
40966SOL    HW233213   0.317  12.403  11.917 -0.2167  1.4301  1.0265
40967SOL     OW33214  11.149   9.763  12.206 -0.2415 -0.6911 -0.3030
40967SOL    HW133215  11.226   9.758  12.262 -0.7411  0.4147  0.5252
40967SOL    HW233216  11.117   9.853  12.217 -0.8747 -0.7227 -1.6712
40968SOL     OW33217  10.646   0.929  10.103  0.0819  0.3807 -0.3597
40968SOL    HW133218  10.643   0.837  10.129 -0.0542 -0.3235 -2.6797
40968SOL    HW233219  10.570   0.968  10.147 -0.7628 -0.9678 -0.5453
40969SOL     OW33220  12.391   3.789   8.435 -0.0789  0.4191 -0.1692
40969SOL    HW133221  12.424   3.876   8.459  1.1195 -0.8452  3.2724
40969SOL    HW233222  12.295   3.797   8.442  0.0466  1.3130  0.7815
40970SOL     OW33223  11.843  11.577   8.479 -0.6985  0.5496  0.1123
40970SOL    HW133224  11.903  11.643   8.444 -0.6946  0.6495  0.3111
40970SOL    HW233225  11.767  11.582   8.420  0.1284 -0.6897 -1.1238
40971SOL     OW33226  10.505   3.458   4.938 -0.5584 -0.2391 -0.3067
40971SOL    HW133227  10.458   3.457   5.021 -1.8824  1.3296 -0.9751
40971SOL    HW233228  10.562   3.382   4.942 -0.1517  0.1100  2.2597
40972SOL     OW33229   9.113   8.493   6.781 -0.1768 -0.2573  0.8893
40972SOL    HW133230   9.086   8.533   6.698 -0.0778  0.7135  1.3150
40972SOL    HW233231   9.179   8.552   6.816  1.3590 -1.7629  0.6612
40973SOL     OW33232  12.836   2.890   1.130 -0.4679 -0.2436 -0.2255
40973SOL    HW133233  12.870   2.954   1.193  0.3376 -1.4751  0.6425
40973SOL    HW233234  12.911   2.872   1.073 -1.0670  0.5307 -1.2700
40974SOL     OW33235   1.755  10.379   9.546  0.1750 -0.4898  0.3827
40974SOL    HW133236   1.746  10.284   9.536 -0.6493 -0.3156 -0.6744
40974SOL    HW233237   1.718  10.398   9.632 -2.1594 -0.8272 -0.4783
40975SOL     OW33238   9.066  11.759   6.707  0.2907  0.5857  0.0373
40975SOL    HW133239   9.061  11.799   6.619 -2.0227  0.9530  0.2696
40975SOL    HW233240   9.132  11.811   6.752  0.7934  1.0565 -1.1755
40976SOL     OW33241   1.577   8.373   4.345  0.1041 -0.2098  0.2464
40976SOL    HW133242   1.605   8.464   4.346  1.3105 -0.5619 -0.1883
40976SOL    HW233243   1.658   8.322   4.338 -0.5910 -1.2894 -0.2978
40977SOL     OW33244   9.281   6.411   8.130 -0.4436  0.1609  0.3612
40977SOL    HW133245   9.224   6.444   8.060 -0.9154 -0.3154  0.5123
40977SOL    HW233246   9.348   6.360   8.085 -1.0061 -0.5228  0.2755
40978SOL     OW33247   0.420   0.159   0.263 -0.2289 -0.6626 -0.3460
40978SOL    HW133248   0.329   0.161   0.292  0.5608  1.2767  2.4066
40978SOL    HW233249   0.437   0.247   0.230  0.9904 -0.5998  0.4034
40979SOL     OW33250   4.071   9.376   0.749 -0.3207  0.3570 -0.1735
40979SOL    HW133251   4.120   9.308   0.797 -0.7208 -0.0352 -0.3156
40979SOL    HW233252   4.094   9.361   0.658 -0.7823  0.1090 -0.2505
40980SOL     OW33253  11.662   8.051   3.332 -0.7842  0.1916  0.0439
40980SOL    HW133254  11.754   8.037   3.312 -1.0276 -1.1604 -0.2273
40980SOL    HW233255  11.652   8.146   3.333  0.6947  0.3776  0.5026
40981SOL     OW33256   7.319  12.018  11.465  0.1881  0.1186 -0.0222
40981SOL    HW133257   7.347  12.049  11.551 -1.3519 -1.1057  0.9831
40981SOL    HW233258   7.355  11.930  11.457 -0.3785 -0.0979 -0.2652
40982SOL     OW33259   7.293   3.013   7.078  0.1976 -0.9686 -0.3842
40982SOL    HW133260   7.338   3.081   7.128 -1.5399  0.3459 -0.5288
40982SOL    HW233261   7.339   3.009   6.995  0.3755 -0.0067 -0.3426
40983SOL     OW33262  10.455  10.953   3.506  0.0237 -0.1647 -0.8059
40983SOL    HW133263  10.483  10.864   3.530  2.1765  0.4189 -0.9507
40983SOL    HW233264  10.371  10.964   3.550 -0.1878 -2.1803 -0.5955
40984SOL     OW33265   0.105   5.360   8.162 -0.2186 -0.5962  0.3980
40984SOL    HW133266   0.022   5.409   8.167 -0.6132 -1.2872  0.7169
40984SOL    HW233267   0.135   5.375   8.073  0.0483  0.8323  0.6955
40985SOL     OW33268  12.126  12.938  12.117  0.2538 -0.6069  0.0255
40985SOL    HW133269  12.052  12.877  12.115  0.2299 -0.5745 -1.5716
40985SOL    HW233270  12.202  12.882  12.134 -0.0678 -0.6955  1.2698
40986SOL     OW33271   2.202   4.840   5.452  0.1014  0.1085  0.6960
40986SOL    HW133272   2.290   4.801   5.455  0.1763  0.3058  1.6026
40986SOL    HW233273   2.215   4.928   5.489 -0.4473  0.2036  0.6599
40987SOL     OW33274   4.198  11.757   9.871  0.1741 -0.1875  0.0270
40987SOL    HW133275   4.226  11.688   9.812  0.4238 -0.6955  0.7219
40987SOL    HW233276   4.270  11.820   9.872  0.6681 -0.7460  0.6563
40988SOL     OW33277   7.052   0.238   1.162  0.5266 -0.5894  0.4633
40988SOL    HW133278   7.092   0.189   1.234  1.3040  0.2680  0.6416
40988SOL    HW233279   7.052   0.177   1.088  1.3624 -0.9030  0.7113
40989SOL     OW33280  11.322   2.110   2.624  0.2019 -0.1553 -0.4417
40989SOL    HW133281  11.311   2.172   2.551 -0.6900  0.0544 -0.1437
40989SOL    HW233282  11.411   2.127   2.657  0.2040  0.5162 -0.7769
40990SOL     OW33283   1.815   9.019  12.493  0.6842 -0.0277 -0.3550
40990SOL    HW133284   1.724   8.999  12.470  0.4827  0.2249  0.1936
40990SOL    HW233285   1.829   8.971  12.575  0.8655  0.3867 -0.1432
40991SOL     OW33286   0.618   4.341   6.612  0.4790 -0.2752  0.6691
40991SOL    HW133287   0.588   4.273   6.672 -0.9542 -0.9439 -0.7531
40991SOL    HW233288   0.547   4.405   6.611  0.5353 -0.2098 -0.1863
40992SOL     OW33289   1.123   5.040   3.135  0.2654  0.1769  0.4805
40992SOL    HW133290   1.090   4.963   3.182  1.1618 -0.1309  0.6218
40992SOL    HW233291   1.088   5.115   3.184 -1.7481 -0.0888 -0.4402
40993SOL     OW33292  10.689   4.388   3.548  0.0138 -0.4285  0.1507
40993SOL    HW133293  10.667   4.453   3.481  0.2337  0.5640  1.0145
40993SOL    HW233294  10.737   4.437   3.614  2.1444 -1.9137 -0.2057
40994SOL     OW33295  11.333  11.765  10.650  0.1501  0.5737 -0.2160
40994SOL    HW133296  11.427  11.766  10.636 -0.0952  1.4027 -1.9911
40994SOL    HW233297  11.296  11.810  10.574 -1.7975 -1.3341 -0.5115
40995SOL     OW33298   2.364  11.940   3.430 -0.6506  0.5794 -0.1048
40995SOL    HW133299   2.331  11.903   3.512 -1.1606  0.7470 -0.2330
40995SOL    HW233300   2.387  11.864   3.376  0.4378  0.4611  0.4802
40996SOL     OW33301   9.410   5.756   2.648  0.5191 -0.0146 -0.1203
40996SOL    HW133302   9.386   5.782   2.737  0.5426 -0.8437  0.1333
40996SOL    HW233303   9.409   5.660   2.649 -1.9404 -0.0809 -1.6737
40997SOL     OW33304   3.473   8.512  11.772  0.2529 -0.4056 -0.1327
40997SOL    HW133305   3.563   8.500  11.740  0.2182 -1.9925  0.2816
40997SOL    HW233306   3.420   8.517  11.693  0.7724  1.3824 -0.4021
40998SOL     OW33307  12.035   2.102   1.925  0.3377 -0.4295 -0.6064
40998SOL    HW133308  12.018   2.010   1.908 -3.2465 -0.4311  1.8159
40998SOL    HW233309  12.044   2.107   2.021  0.3662  1.7413 -0.6718
40999SOL     OW33310   2.897   8.130   8.497 -0.1935 -0.2499  0.2101
40999SOL    HW133311   2.971   8.106   8.440 -0.1314 -3.0043  1.3129
40999SOL    HW233312   2.820   8.093   8.454 -0.3107 -1.2795  1.2602
41000SOL     OW33313   3.994   9.678   3.439  0.0714 -0.3299  0.5617
41000SOL    HW133314   4.060   9.697   3.505  1.8133 -3.1535 -0.1525
41000SOL    HW233315   3.976   9.584   3.449 -1.2102 -0.3982 -1.5476
41001SOL     OW33316   6.350   8.112   3.903 -0.4291 -0.1210  0.1986
41001SOL    HW133317   6.420   8.148   3.957 -1.2660  1.4759  0.2933
41001SOL    HW233318   6.277   8.100   3.963 -0.9384  0.3920 -0.3018
41002SOL     OW33319   4.426  10.104  10.866 -0.2990  0.3777 -0.2821
41002SOL    HW133320   4.404  10.197  10.859  0.6041  0.5551 -0.9202
41002SOL    HW233321   4.490  10.100  10.936 -0.8420  0.1387  0.2045
41003SOL     OW33322   0.289   8.594   8.662 -0.3195  0.2590 -0.6800
41003SOL    HW133323   0.304   8.650   8.586 -0.7034  1.0458 -0.1765
41003SOL    HW233324   0.315   8.647   8.737 -2.1552  0.3534 -0.0721
41004SOL     OW33325  10.408   8.778   6.141 -0.3486  0.5180 -0.1859
41004SOL    HW133326  10.464   8.739   6.074  0.7533  0.3529  0.7960
41004SOL    HW233327  10.369   8.855   6.100  0.9259  0.8636 -0.7635
41005SOL     OW33328   0.866   9.630  11.983  0.0768  0.0837 -0.6800
41005SOL    HW133329   0.905   9.638  11.896  1.7158 -0.0840  0.0147
41005SOL    HW233330   0.915   9.560  12.025  0.2319  1.0710  0.8516
41006SOL     OW33331   1.188   6.963  12.150  0.0868 -0.5090 -0.5847
41006SOL    HW133332   1.114   6.995  12.201 -1.9766 -0.7571 -3.2553
41006SOL    HW233333   1.239   6.910  12.212 -2.0697 -0.5034  1.2882
41007SOL     OW33334   2.492   5.426   9.914  0.0274 -0.5808  0.1647
41007SOL    HW133335   2.475   5.341   9.955 -1.5083 -1.7134 -2.5412
41007SOL    HW233336   2.416   5.441   9.858  1.1657  1.6801 -0.9132
41008SOL     OW33337   6.754  10.596  12.440  0.4495  0.5282 -0.0575
41008SOL    HW133338   6.688  10.627  12.502 -0.6274 -0.6086 -0.5861
41008SOL    HW233339   6.816  10.548  12.494  0.4020  0.9112  0.3459
41009SOL     OW33340   4.442   1.102   0.141  0.7097  0.1958  0.0814
41009SOL    HW133341   4.375   1.136   0.082  0.1867 -1.7609 -0.5498
41009SOL    HW233342   4.405   1.115   0.228  0.9909  2.0923 -0.0516
41010SOL     OW33343   3.866   4.085   1.204  0.3799  0.6066 -0.0065
41010SOL    HW133344   3.950   4.122   1.233  1.4658 -0.5268 -1.5009
41010SOL    HW233345   3.827   4.154   1.150  1.0642  0.6111 -0.5071
41011SOL     OW33346   3.980  12.886   7.191 -0.6449 -0.1077 -0.3544
41011SOL    HW133347   3.971  12.806   7.140 -1.0227  1.8324 -3.6712
41011SOL    HW233348   3.892  12.905   7.224 -0.7502 -0.5519 -0.3822
41012SOL     OW33349  11.863  12.026   0.527  0.8146  0.6061 -0.5373
41012SOL    HW133350  11.898  12.086   0.461  1.1351 -0.0735 -0.9853
41012SOL    HW233351  11.772  12.012   0.501  1.1081 -0.1291 -1.1727
41013SOL     OW33352  11.395  11.928   7.731  0.4939 -0.3295 -0.0528
41013SOL    HW133353  11.461  11.909   7.797 -0.0282 -2.4052 -0.0601
41013SOL    HW233354  11.315  11.887   7.764 -0.2394  0.2077 -1.0986
41014SOL     OW33355   9.283   4.793   8.518  0.7328  0.3196  0.4376
41014SOL    HW133356   9.245   4.767   8.602 -0.0018 -1.5319 -0.3972
41014SOL    HW233357   9.317   4.711   8.481 -1.1048  0.5811 -2.1126
41015SOL     OW33358   5.784   6.206   4.748 -0.0407  0.7384  0.0833
41015SOL    HW133359   5.795   6.252   4.831  0.0958 -1.8133  1.5919
41015SOL    HW233360   5.835   6.257   4.686  2.1542  1.2827  2.1646
41016SOL     OW33361  12.265   6.860   4.112 -0.3776 -0.1984 -0.1359
41016SOL    HW133362  12.317   6.940   4.118 -1.3944  0.4744 -0.0060
41016SOL    HW233363  12.295   6.817   4.033  0.8403 -0.1756  0.2978
41017SOL     OW33364   5.426  10.656   6.320 -0.3504 -0.5464 -0.0226
41017SOL    HW133365   5.457  10.625   6.234  1.5216  1.8266 -0.3070
41017SOL    HW233366   5.335  10.681   6.305 -0.3090 -0.9465 -1.0840
41018SOL     OW33367   7.597   9.509   1.295  0.2820 -0.5656 -0.1442
41018SOL    HW133368   7.669   9.454   1.327 -1.7472 -1.8817  2.6477
41018SOL    HW233369   7.573   9.563   1.370 -0.9735  0.5963 -1.3235
41019SOL     OW33370   9.167  12.072  11.981  0.5170  0.1265 -0.4700
41019SOL    HW133371   9.165  12.162  11.949 -2.2515  0.5532  0.5953
41019SOL    HW233372   9.226  12.027  11.921  0.4274  2.2162 -2.2627
41020SOL     OW33373   0.424   0.577  10.773 -0.2050  0.6845 -0.1216
41020SOL    HW133374   0.467   0.556  10.856  1.7952 -0.4779 -1.3553
41020SOL    HW233375   0.402   0.670  10.780 -0.0425  0.6289  1.6560
41021SOL     OW33376  10.928   8.557  12.925 -0.4337  0.3142  0.1425
41021SOL    HW133377  10.866   8.615  12.882 -0.7851 -0.9092 -1.0712
41021SOL    HW233378  10.882   8.526  13.004 -0.0954  1.9268  1.0135
41022SOL     OW33379  12.438   5.417   7.043  0.1488 -0.0669  0.0467
41022SOL    HW133380  12.480   5.348   6.992 -0.1286  0.2370 -0.6034
41022SOL    HW233381  12.347   5.388   7.051 -0.2038  0.6805 -1.0675
41023SOL     OW33382  10.069  10.244   8.022  0.1407  0.0746 -0.7377
41023SOL    HW133383  10.019  10.190   8.084  1.6461 -0.9197 -0.3371
41023SOL    HW233384  10.008  10.261   7.951 -1.2718  0.2562  0.4609
41024SOL     OW33385   0.779   8.758   2.590 -0.1025 -0.5919 -0.6053
41024SOL    HW133386   0.805   8.667   2.581  0.9432 -0.7507  2.7089
41024SOL    HW233387   0.860   8.808   2.585 -0.7148  0.2952 -2.9232
41025SOL     OW33388   0.920   3.207  11.165 -0.1754  0.0666  0.7646
41025SOL    HW133389   0.958   3.263  11.233 -0.4676  0.0062  0.9853
41025SOL    HW233390   0.995   3.169  11.119  0.2224 -2.9880  3.5514
41026SOL     OW33391   9.897   1.462   7.561  0.6814 -0.2816 -0.2910
41026SOL    HW133392   9.894   1.467   7.466 -0.0735  1.8631 -0.2153
41026SOL    HW233393   9.985   1.430   7.581  0.7980 -0.8828 -1.6979
41027SOL     OW33394   5.693  12.263  11.266  0.1251  0.4291 -0.4416
41027SOL    HW133395   5.665  12.184  11.311  2.9316 -0.1659  0.4607
41027SOL    HW233396   5.693  12.331  11.334  0.5291  0.4840 -0.4900
41028SOL     OW33397   4.540  11.218   0.489 -0.0814 -0.0300 -0.1960
41028SOL    HW133398   4.624  11.261   0.505  0.0177 -0.7753  1.4194
41028SOL    HW233399   4.501  11.208   0.576 -1.5941 -0.2110 -0.8634
41029SOL     OW33400  11.400   1.370   3.712  0.0262 -0.6738 -0.3547
41029SOL    HW133401  11.345   1.296   3.736  1.4307 -1.3968  0.7778
41029SOL    HW233402  11.454   1.386   3.789  0.3788  0.9595 -0.9086
41030SOL     OW33403   3.662   8.414  12.018 -0.0169 -0.0225 -0.1841
41030SOL    HW133404   3.715   8.343  11.981  0.3792 -0.0586  0.4508
41030SOL    HW233405   3.670   8.403  12.113  0.5251  1.2148 -0.0692
41031SOL     OW33406   3.873  11.277   8.077 -0.3923  0.0737  0.1924
41031SOL    HW133407   3.950  11.266   8.134 -0.8823  0.0963  0.8647
41031SOL    HW233408   3.892  11.356   8.026  0.4936 -0.5001 -0.3997
41032SOL     OW33409  10.278   2.150   6.289 -0.2434  0.1699 -0.1771
41032SOL    HW133410  10.339   2.224   6.295  0.4007 -0.4384  1.4784
41032SOL    HW233411  10.334   2.074   6.275 -0.7920 -0.1621 -0.5853
41033SOL     OW33412   7.467  10.852   3.771 -0.6667  0.0081 -0.0546
41033SOL    HW133413   7.542  10.792   3.768 -1.2888 -0.8578  0.9442
41033SOL    HW233414   7.501  10.930   3.815  0.2596  0.6004 -1.7380
41034SOL     OW33415   8.672   2.892   4.129  0.2386  0.7606  0.3462
41034SOL    HW133416   8.742   2.951   4.158 -0.3854  1.1390  1.1157
41034SOL    HW233417   8.607   2.950   4.089  0.0917  0.4740  0.1659
41035SOL     OW33418   5.568   0.591   7.869 -0.0017 -0.1409  0.1599
41035SOL    HW133419   5.475   0.578   7.891  0.1042 -1.3110 -0.0152
41035SOL    HW233420   5.568   0.660   7.803 -0.7470 -0.1394  0.1532
41036SOL     OW33421   1.268   3.978   9.810  0.0516 -0.2657  0.1826
41036SOL    HW133422   1.194   4.019   9.854 -0.2155 -0.5308 -0.0113
41036SOL    HW233423   1.228   3.922   9.743  0.4850  1.0996 -1.2605
41037SOL     OW33424   7.511   1.700   9.365 -0.2972  0.5701  0.1282
41037SOL    HW133425   7.474   1.612   9.377  2.0755 -0.5038  0.1251
41037SOL    HW233426   7.534   1.729   9.453  0.8573  0.2426 -0.0425
41038SOL     OW33427  12.729   1.680   2.774 -0.0903  0.2076 -0.3675
41038SOL    HW133428  12.645   1.725   2.783  0.6519  1.9234 -1.3978
41038SOL    HW233429  12.717   1.597   2.819 -2.1524  0.6444 -0.0059
41039SOL     OW33430   7.321   2.895   4.608  0.1052 -0.0485  0.3545
41039SOL    HW133431   7.250   2.927   4.664  0.8758  0.1830  1.2154
41039SOL    HW233432   7.401   2.927   4.650  0.6981  0.2279 -0.9453
41040SOL     OW33433   1.447   9.433  12.179 -0.5153 -0.2921  0.6279
41040SOL    HW133434   1.420   9.365  12.119 -0.4834 -0.2607  0.5779
41040SOL    HW233435   1.507   9.488  12.128  0.5556 -1.0168  1.0621
41041SOL     OW33436   7.005  12.124   5.467  0.2522  0.0682  0.3298
41041SOL    HW133437   6.923  12.173   5.465  0.5767  0.6487  0.9289
41041SOL    HW233438   7.027  12.118   5.560  1.2491  0.5233  0.1314
41042SOL     OW33439   8.617  10.978   2.757  0.4918 -0.0736  0.0872
41042SOL    HW133440   8.534  11.021   2.775 -0.1956 -0.8557 -1.0479
41042SOL    HW233441   8.667  10.986   2.838 -0.3744  1.1075  0.5286
41043SOL     OW33442   3.381   5.770   6.902 -0.2595  0.3881 -0.3690
41043SOL    HW133443   3.322   5.707   6.943  0.4309 -0.2145 -0.2792
41043SOL    HW233444   3.393   5.839   6.967  1.1797 -0.7728  0.6882
41044SOL     OW33445   2.482   7.677   5.789 -0.1852 -0.0298  0.4128
41044SOL    HW133446   2.509   7.612   5.853  3.3376  2.4255  1.7578
41044SOL    HW233447   2.431   7.740   5.839 -2.0891 -0.7713 -0.5000
41045SOL     OW33448  10.942  12.831  10.492 -0.6912 -0.2071 -0.0323
41045SOL    HW133449  11.000  12.810  10.419 -1.9903 -0.3201 -1.0802
41045SOL    HW233450  10.968  12.770  10.561 -0.0835 -0.7878 -0.7530
41046SOL     OW33451   8.122   8.486   9.673  0.0156  0.7197  0.4196
41046SOL    HW133452   8.196   8.459   9.727  0.4432  1.2972  0.1317
41046SOL    HW233453   8.143   8.452   9.586 -0.4073  0.2619  0.4948
41047SOL     OW33454   3.379  10.170   6.654  0.8044  0.2156  0.1353
41047SOL    HW133455   3.368  10.075   6.664  0.3164  0.3929  1.6154
41047SOL    HW233456   3.383  10.202   6.744  2.2305  1.4675 -0.3380
41048SOL     OW33457   9.670   6.904   4.792 -0.2152 -0.0307 -0.3131
41048SOL    HW133458   9.764   6.925   4.793 -0.3701  0.6667  0.3095
41048SOL    HW233459   9.663   6.822   4.841  0.1767 -0.6147 -1.2007
41049SOL     OW33460  11.444   1.156   4.165 -0.6350  0.0957 -0.3286
41049SOL    HW133461  11.482   1.149   4.253 -0.7307 -0.8513 -0.3505
41049SOL    HW233462  11.361   1.202   4.179 -0.2640  0.6951 -0.0493
41050SOL     OW33463   1.812   8.010   7.356 -0.1640  0.4192  0.2924
41050SOL    HW133464   1.728   8.050   7.333 -0.0413  1.4507  1.5023
41050SOL    HW233465   1.840   8.057   7.435  1.6699  0.2704 -0.2185
41051SOL     OW33466   2.819   6.354   3.403 -0.2323  0.4559  0.1849
41051SOL    HW133467   2.914   6.368   3.403 -0.2002  0.2423  0.3016
41051SOL    HW233468   2.809   6.259   3.405 -0.4409  0.4760  2.0158
41052SOL     OW33469   5.829   8.253   3.201  0.0719 -0.4101 -0.1920
41052SOL    HW133470   5.883   8.329   3.181 -0.5027  0.1171  0.2259
41052SOL    HW233471   5.825   8.251   3.296 -2.5091  0.9428 -0.1716
41053SOL     OW33472  10.046   7.565   0.676  0.0620 -0.3496  0.1962
41053SOL    HW133473  10.090   7.650   0.673  0.3183 -0.4811  0.1826
41053SOL    HW233474   9.957   7.585   0.704 -0.4464  0.1531 -1.6906
41054SOL     OW33475   9.574   8.412  11.667  0.3708  0.2243  0.1110
41054SOL    HW133476   9.535   8.332  11.704  1.5543  0.1009  1.1613
41054SOL    HW233477   9.668   8.395  11.668  0.5286  0.4538 -2.4858
41055SOL     OW33478  11.963  10.780   3.463 -0.5738 -0.4545  0.2271
41055SOL    HW133479  11.967  10.784   3.368  0.3381 -2.7837  0.0975
41055SOL    HW233480  12.045  10.820   3.492  0.2370 -1.7769 -0.1244
41056SOL     OW33481   7.070  11.536   1.917  0.4709  0.0729  0.6110
41056SOL    HW133482   7.007  11.591   1.872 -0.2325 -0.4552  0.9380
41056SOL    HW233483   7.138  11.519   1.852 -0.0284  0.1347  0.0679
41057SOL     OW33484  10.803   1.447  10.236  0.4110  0.4207 -0.0099
41057SOL    HW133485  10.750   1.420  10.162  0.5157  2.0821 -0.7213
41057SOL    HW233486  10.869   1.377  10.245 -0.9508 -0.9181 -0.0353
41058SOL     OW33487   1.537   8.973  12.466  0.2834 -0.3265 -0.1672
41058SOL    HW133488   1.510   8.932  12.549  1.0196 -0.6201 -0.0638
41058SOL    HW233489   1.464   8.957  12.406  0.0215 -0.6797  0.2409
41059SOL     OW33490  10.854  10.888   7.738  0.1479  0.3971  0.6649
41059SOL    HW133491  10.796  10.953   7.777  1.5417  1.0022  1.7903
41059SOL    HW233492  10.914  10.863   7.808  0.2439 -1.4394  0.0004
41060SOL     OW33493  12.949   4.806   1.137 -0.5365 -0.1418  0.1635
41060SOL    HW133494  12.934   4.805   1.042  1.2423  1.5564 -0.2030
41060SOL    HW233495  13.022   4.746   1.151 -0.5655 -0.1235  0.3955
41061SOL     OW33496   2.372   1.031  12.828 -0.0261 -0.1708 -0.4901
41061SOL    HW133497   2.416   1.102  12.874 -1.1327  1.8643 -2.3740
41061SOL    HW233498   2.410   1.033  12.740 -2.1505  0.0741 -1.4480
41062SOL     OW33499   8.032  11.141   4.098 -0.4180  0.3617 -0.1169
41062SOL    HW133500   8.119  11.156   4.060 -0.1770  1.6264  0.8584
41062SOL    HW233501   8.040  11.056   4.142 -0.7339 -1.2119 -2.8196
41063SOL     OW33502   9.046   1.236   0.747 -0.2797  0.1577 -0.6488
41063SOL    HW133503   9.054   1.166   0.811  1.4347  0.1852 -0.7882
41063SOL    HW233504   9.035   1.316   0.799 -1.0873 -0.0710 -0.4612
41064SOL     OW33505   6.818   6.312   6.469  0.4656  0.6826  0.4707
41064SOL    HW133506   6.903   6.330   6.428  0.5817 -0.3845  0.2143
41064SOL    HW233507   6.835   6.240   6.529 -0.8284 -1.7466 -1.8540
41065SOL     OW33508  11.929   2.742  12.337  0.7834  0.3763 -0.0695
41065SOL    HW133509  11.891   2.813  12.391  0.8726  1.4871 -1.4035
41065SOL    HW233510  12.022   2.744  12.357  0.6002 -0.2822  0.9022
41066SOL     OW33511   1.545   6.563   2.234  0.3056 -0.3684 -0.0143
41066SOL    HW133512   1.482   6.492   2.224  2.8980 -2.8517 -0.1708
41066SOL    HW233513   1.579   6.552   2.323  1.0903  0.3634 -0.2058
41067SOL     OW33514   8.024  10.040   7.317  0.2579  0.4699 -0.8600
41067SOL    HW133515   7.975  10.122   7.317 -1.0304 -0.2591  0.3581
41067SOL    HW233516   7.991   9.992   7.240 -1.1339 -0.0781  0.0301
41068SOL     OW33517   6.348   0.879   9.231  0.0118  0.1898  0.3332
41068SOL    HW133518   6.415   0.942   9.255  0.6577  0.1353 -1.2270
41068SOL    HW233519   6.373   0.799   9.277  0.4304  0.4570  0.5731
41069SOL     OW33520   1.265  10.346  10.630  0.2273 -0.0706  0.4664
41069SOL    HW133521   1.344  10.398  10.612  0.4567 -0.2479  0.9614
41069SOL    HW233522   1.226  10.387  10.707 -0.0859 -0.0750  0.3117
41070SOL     OW33523   2.449   0.243   2.179  0.0922 -0.1080 -0.5265
41070SOL    HW133524   2.430   0.324   2.227  0.4688  0.0161 -0.5848
41070SOL    HW233525   2.441   0.267   2.087  1.5511  0.2173 -0.5904
41071SOL     OW33526   9.185   8.356   0.545 -0.1188 -0.2383 -0.6847
41071SOL    HW133527   9.154   8.431   0.597 -2.2954 -2.3848  1.3530
41071SOL    HW233528   9.172   8.383   0.454  0.1175  2.2023 -0.0740
41072SOL     OW33529   3.412   8.243   0.485  0.3326 -0.7002  0.2505
41072SOL    HW133530   3.384   8.280   0.401  0.4774 -0.1080  0.4557
41072SOL    HW233531   3.493   8.196   0.464  0.4943 -0.3584  0.0999
41073SOL     OW33532   2.677   0.128   8.885  0.0202 -0.6980  0.0500
41073SOL    HW133533   2.753   0.074   8.865  1.0395  0.1623  1.4324
41073SOL    HW233534   2.602   0.072   8.864  1.0277 -2.2116  0.3032
41074SOL     OW33535  12.625   8.011   5.869  0.3023  0.1320 -0.3381
41074SOL    HW133536  12.716   7.984   5.859  0.8131  1.4283  0.5362
41074SOL    HW233537  12.590   8.013   5.780  0.9982 -0.7931 -0.6360
41075SOL     OW33538   5.803   0.846   9.361 -0.0206 -0.0079  0.1365
41075SOL    HW133539   5.718   0.825   9.322 -0.8901  1.8389  0.8999
41075SOL    HW233540   5.782   0.882   9.447  1.5171  0.5975  0.2928
41076SOL     OW33541   8.501   6.468   2.174  0.0424  0.5656 -0.0332
41076SOL    HW133542   8.441   6.467   2.248  1.0004  1.1172  0.7655
41076SOL    HW233543   8.586   6.441   2.210  0.7697  1.8794 -0.6824
41077SOL     OW33544   1.322   5.567  11.538  0.0652  0.0532 -0.0739
41077SOL    HW133545   1.404   5.605  11.571 -1.0107  1.4308  1.1384
41077SOL    HW233546   1.313   5.601  11.450  0.7471 -0.0610 -0.1968
41078SOL     OW33547   1.707  12.389   1.486 -0.4573 -0.3250  0.1773
41078SOL    HW133548   1.691  12.476   1.450  1.0601 -0.3501 -0.6692
41078SOL    HW233549   1.623  12.361   1.521 -1.8810  0.0940 -2.5785
41079SOL     OW33550   3.880  12.815  12.116 -0.3574  0.9119 -0.0163
41079SOL    HW133551   3.950  12.865  12.158 -0.2025 -0.2364  1.1486
41079SOL    HW233552   3.924  12.739  12.079 -0.9629  0.2378  0.6237
41080SOL     OW33553   5.076   2.234  12.833 -0.1091  0.3292 -0.2844
41080SOL    HW133554   5.031   2.316  12.851 -0.4015  0.2917 -0.8321
41080SOL    HW233555   5.165   2.248  12.865  0.4678  1.6373 -2.3083
41081SOL     OW33556   8.645   0.715   7.717 -0.1351  0.1022  0.5751
41081SOL    HW133557   8.645   0.619   7.713  1.1273  0.0132  1.8145
41081SOL    HW233558   8.557   0.737   7.747 -0.3143 -0.6998  0.6737
41082SOL     OW33559   4.084  12.648  12.794  1.0412  0.0030 -0.5064
41082SOL    HW133560   4.078  12.641  12.699  0.7241 -0.0459 -0.4832
41082SOL    HW233561   4.178  12.653  12.812  1.5954 -5.1740 -0.4786
41083SOL     OW33562   7.605  10.265  10.433  0.4340 -0.2765  0.5638
41083SOL    HW133563   7.525  10.218  10.413  0.9372 -0.6181 -0.7377
41083SOL    HW233564   7.673  10.219  10.384  0.7020  2.8294 -2.3003
41084SOL     OW33565   6.984  10.626  10.017 -0.0612 -0.1440 -0.0131
41084SOL    HW133566   6.957  10.604  10.106  0.3759 -1.1697 -0.1231
41084SOL    HW233567   7.079  10.637  10.024 -0.0787  0.2058 -0.2792
41085SOL     OW33568   9.329   8.412   1.278 -0.1798  0.1472  0.0648
41085SOL    HW133569   9.412   8.367   1.267  0.9331  2.2995 -0.8857
41085SOL    HW233570   9.263   8.346   1.255  1.2959 -1.2466 -0.3444
41086SOL     OW33571   6.934   1.783  10.639 -0.1042 -0.4143  0.1296
41086SOL    HW133572   6.950   1.857  10.698 -1.4553 -0.8222  1.0820
41086SOL    HW233573   6.847   1.801  10.603 -0.8015 -1.8857  0.9820
41087SOL     OW33574   3.655   7.681   9.746 -0.0128  0.3934  0.0289
41087SOL    HW133575   3.668   7.766   9.788  1.4430  0.6733 -0.8966
41087SOL    HW233576   3.698   7.691   9.661 -0.0260 -1.2051 -0.1781
41088SOL     OW33577   9.203  10.714   0.415 -0.7625  0.3850  0.3154
41088SOL    HW133578   9.285  10.732   0.462 -0.5228  0.7010 -0.2055
41088SOL    HW233579   9.134  10.742   0.475 -0.4328  4.4307 -0.8631
41089SOL     OW33580  10.240   5.564   5.548  0.0118 -0.2337  0.2272
41089SOL    HW133581  10.195   5.480   5.546 -1.1575  0.3605  0.6971
41089SOL    HW233582  10.300   5.557   5.622 -0.7650 -0.3241  0.8561
41090SOL     OW33583   0.144   1.491   9.072  0.3230  0.0221  0.4437
41090SOL    HW133584   0.054   1.484   9.041  1.1086 -0.8901 -1.7893
41090SOL    HW233585   0.197   1.494   8.993  2.3981 -1.1276  1.6947
41091SOL     OW33586   4.990   7.892   3.149 -1.0803 -0.2098 -0.6741
41091SOL    HW133587   4.973   7.928   3.062 -1.7480  2.4215  0.4618
41091SOL    HW233588   4.906   7.898   3.195 -0.1771  0.9136  0.9452
41092SOL     OW33589  10.136   3.123  12.845 -0.4379  0.0332 -0.3316
41092SOL    HW133590  10.052   3.098  12.883  0.5816 -1.7006  0.9469
41092SOL    HW233591  10.167   3.043  12.803  0.2060  0.8879 -1.5207
41093SOL     OW33592  12.242   8.158   2.831 -0.0229 -0.2945  0.0089
41093SOL    HW133593  12.286   8.153   2.916 -0.2348 -1.4297  0.0606
41093SOL    HW233594  12.174   8.091   2.835 -1.7520  1.3844 -0.0889
41094SOL     OW33595   2.156   9.011   3.878  0.2191 -0.2421 -0.3053
41094SOL    HW133596   2.066   9.005   3.845  0.3109  0.7447 -0.7810
41094SOL    HW233597   2.174   9.105   3.880  0.8987 -0.3811  0.7464
41095SOL     OW33598   2.836   3.493   4.751  0.0698  0.1641 -0.2583
41095SOL    HW133599   2.884   3.418   4.716 -0.5842 -0.2639 -0.2580
41095SOL    HW233600   2.831   3.555   4.678 -1.6640 -0.8999 -1.0871
41096SOL     OW33601  10.158   7.147   5.119  0.0537  0.3015 -0.1158
41096SOL    HW133602  10.207   7.208   5.174  0.1023 -0.2057  0.4090
41096SOL    HW233603  10.069   7.150   5.154  0.1196 -0.1347  0.0866
41097SOL     OW33604   0.406   6.067   6.077 -0.4540 -0.1939 -0.1484
41097SOL    HW133605   0.400   5.990   6.134 -0.7494  0.2111  0.3845
41097SOL    HW233606   0.468   6.042   6.009 -2.2151 -1.7368 -1.2916
41098SOL     OW33607   5.764  11.749   4.834 -0.0454 -0.0977  0.2425
41098SOL    HW133608   5.723  11.662   4.828  0.7813 -0.4881  0.0692
41098SOL    HW233609   5.784  11.772   4.743  0.3464 -0.0347  0.3400
41099SOL     OW33610  12.214   0.354  11.347  0.5660  0.0169  0.4256
41099SOL    HW133611  12.225   0.444  11.379  0.6757 -0.2356  1.1244
41099SOL    HW233612  12.178   0.307  11.422 -3.0551  0.2607 -0.9637
41100SOL     OW33613   1.462  10.636   1.083 -0.4924  0.5494  0.0738
41100SOL    HW133614   1.506  10.557   1.052 -0.8730  0.0394  0.8233
41100SOL    HW233615   1.376  10.607   1.112 -0.7806  1.3022  0.0085
41101SOL     OW33616   4.285   2.786   1.249  0.2085 -0.4017 -0.4409
41101SOL    HW133617   4.307   2.817   1.161 -0.5864 -0.2717 -0.5937
41101SOL    HW233618   4.235   2.706   1.235  0.1489 -0.4233 -0.1051
41102SOL     OW33619   4.323   3.820   7.637  0.1467 -0.0667  0.2805
41102SOL    HW133620   4.348   3.852   7.724 -0.6768 -0.2557  0.5947
41102SOL    HW233621   4.228   3.829   7.635  0.2167  0.5339 -0.8522
41103SOL     OW33622   3.401   5.174   7.396 -0.4661  0.4444 -0.7256
41103SOL    HW133623   3.459   5.103   7.368 -0.5264 -0.0440  0.3371
41103SOL    HW233624   3.313   5.142   7.374 -0.4333  0.5858 -1.0700
41104SOL     OW33625   5.664   9.148   7.152 -0.1737 -0.7215  0.6207
41104SOL    HW133626   5.754   9.171   7.173 -0.5560  0.8550  0.6294
41104SOL    HW233627   5.625   9.229   7.118 -1.1866 -1.7216 -0.7693
41105SOL     OW33628   5.289   2.666   5.669  0.2469 -0.0275 -0.2164
41105SOL    HW133629   5.280   2.731   5.739 -0.9147 -0.3525 -0.0382
41105SOL    HW233630   5.372   2.622   5.688 -0.5837 -0.9047  1.6634
41106SOL     OW33631   6.641   4.874   7.213 -0.0046 -0.3842 -0.3150
41106SOL    HW133632   6.589   4.813   7.266 -1.0553  0.9055  0.1936
41106SOL    HW233633   6.592   4.882   7.131 -2.7988  3.5711  1.4368
41107SOL     OW33634   1.250   9.913   5.918  0.0729  0.3192  0.3483
41107SOL    HW133635   1.209   9.956   5.994  1.0580 -0.7964  1.5467
41107SOL    HW233636   1.314   9.977   5.886  1.5798 -0.1913  2.1616
41108SOL     OW33637   1.074   9.897   1.101 -0.0746  0.1559  0.7168
41108SOL    HW133638   1.143   9.881   1.037 -1.1261  0.2449 -0.4980
41108SOL    HW233639   1.085   9.989   1.126  0.7733 -0.0753  1.1992
41109SOL     OW33640   4.940   5.630   0.132 -0.4875  0.1403 -0.0218
41109SOL    HW133641   5.021   5.588   0.163 -1.2553 -2.3091 -1.0622
41109SOL    HW233642   4.878   5.614   0.203 -0.5168  0.4130  0.0115
41110SOL     OW33643   3.102   5.560   0.679 -0.1095  0.4566 -0.1686
41110SOL    HW133644   3.031   5.545   0.618  2.2221 -3.1975 -2.3623
41110SOL    HW233645   3.080   5.507   0.756  0.0890 -0.5772 -0.7984
41111SOL     OW33646  11.158   0.674   5.682 -0.2963  0.0296 -0.2747
41111SOL    HW133647  11.246   0.701   5.707 -0.1076 -0.5462 -0.3198
41111SOL    HW233648  11.166   0.582   5.660 -0.8260  0.0779 -0.6939
41112SOL     OW33649   1.713   5.778  12.158  0.2688 -0.7340 -0.5026
41112SOL    HW133650   1.786   5.811  12.106 -0.9015  0.8207 -1.2190
41112SOL    HW233651   1.678   5.705  12.107  1.1427 -1.3248 -0.2766
41113SOL     OW33652   7.342   1.363   1.079 -0.2676 -0.0731  0.2089
41113SOL    HW133653   7.261   1.322   1.107 -0.4238 -0.6849 -1.0508
41113SOL    HW233654   7.403   1.291   1.065  0.4292  0.3649  0.9341
41114SOL     OW33655   6.334  12.263   0.265  0.3960 -0.3038  0.1152
41114SOL    HW133656   6.293  12.302   0.342  0.8390 -1.4380  0.9516
41114SOL    HW233657   6.404  12.209   0.300  1.9139  0.7182 -1.2316
41115SOL     OW33658   7.857   1.360   0.393 -0.1006  0.0569  0.2199
41115SOL    HW133659   7.840   1.332   0.483 -1.4881  0.7156  0.2009
41115SOL    HW233660   7.806   1.441   0.383 -1.1673 -0.7683 -1.5956
41116SOL     OW33661   3.627   1.439   0.666 -0.2163 -0.6414  0.4694
41116SOL    HW133662   3.687   1.366   0.650 -0.7867 -0.8104 -1.0654
41116SOL    HW233663   3.643   1.499   0.592  0.1188  0.7197  1.6004
41117SOL     OW33664   0.422   1.445   4.034  0.1036 -0.1255 -0.6897
41117SOL    HW133665   0.332   1.416   4.025 -0.6006  0.6965  2.3651
41117SOL    HW233666   0.415   1.531   4.077  2.3219  0.2987 -1.0470
41118SOL     OW33667   9.804   3.429   6.019  0.2320 -0.0380  0.7183
41118SOL    HW133668   9.770   3.351   6.063 -1.1351  0.5722  0.7944
41118SOL    HW233669   9.833   3.398   5.934  0.1570 -0.7172  0.9325
41119SOL     OW33670   6.509   6.398   4.876 -0.1462  0.0860  0.0645
41119SOL    HW133671   6.487   6.310   4.846 -0.4307  0.2483 -0.2086
41119SOL    HW233672   6.604   6.404   4.865 -0.2783  0.2509 -1.1365
41120SOL     OW33673   0.409  11.867  11.565 -0.1739  0.5114 -0.3477
41120SOL    HW133674   0.486  11.923  11.561  2.1116 -2.4196 -3.3488
41120SOL    HW233675   0.409  11.832  11.654  2.4556  0.1356 -0.4160
41121SOL     OW33676   6.359   2.177   2.396  0.6538  0.1008 -0.1572
41121SOL    HW133677   6.428   2.137   2.343  0.0246 -1.2499  0.0010
41121SOL    HW233678   6.394   2.179   2.485  0.1553 -1.4775  0.1002
41122SOL     OW33679   5.334   2.227  12.536  0.3859  0.2991 -0.3432
41122SOL    HW133680   5.361   2.170  12.607  2.6482  1.2472 -0.3466
41122SOL    HW233681   5.409   2.285  12.522 -0.6296  1.2342 -2.3819
41123SOL     OW33682   0.004   8.811  12.935  0.1782  0.4218  0.0991
41123SOL    HW133683   0.085   8.852  12.905  2.0932 -1.3586  2.4020
41123SOL    HW233684  -0.031   8.872  13.000  0.6076  0.4553  0.3057
41124SOL     OW33685   7.629   2.462   0.567 -0.1422 -0.4190  0.2562
41124SOL    HW133686   7.608   2.507   0.648 -1.0603 -1.3684  0.5828
41124SOL    HW233687   7.603   2.371   0.583  2.4422 -1.2821 -0.0583
41125SOL     OW33688   5.639   0.649   5.263 -0.3265 -0.1758 -0.1854
41125SOL    HW133689   5.710   0.711   5.246  0.0716 -0.0950  1.5979
41125SOL    HW233690   5.608   0.625   5.176  2.0688 -0.4261 -1.0552
41126SOL     OW33691   1.102   3.017  12.921 -0.3001 -0.1467  0.5220
41126SOL    HW133692   1.142   3.100  12.894  0.1739 -0.1575  1.1639
41126SOL    HW233693   1.060   3.037  13.005 -0.3496 -0.5082  0.5856
41127SOL     OW33694  11.373   8.649   1.795 -0.2813 -0.1755  0.1405
41127SOL    HW133695  11.379   8.740   1.822  0.7336 -0.3426  0.5210
41127SOL    HW233696  11.401   8.599   1.872 -0.1255 -0.7768 -0.2987
41128SOL     OW33697   1.949  10.972   9.466 -0.3459 -0.2630  0.0685
41128SOL    HW133698   2.026  10.959   9.411 -1.4525 -2.2561 -1.1323
41128SOL    HW233699   1.955  10.903   9.532 -0.7029  0.0600  0.4435
41129SOL     OW33700  10.077   6.327   9.725  0.0059 -0.7694 -0.3557
41129SOL    HW133701  10.095   6.417   9.750 -0.6507 -0.5801 -0.5309
41129SOL    HW233702  10.112   6.319   9.636 -0.2648 -0.5695 -0.4832
41130SOL     OW33703   5.798   8.602  11.082 -0.0268 -0.9057  0.1159
41130SOL    HW133704   5.736   8.575  11.149 -0.4582 -1.6645 -0.5687
41130SOL    HW233705   5.770   8.690  11.057 -0.2926 -0.9002  0.4342
41131SOL     OW33706   9.337   8.000   3.301  0.4482  0.3559 -0.4399
41131SOL    HW133707   9.402   8.067   3.281  0.3899  1.5309  2.7688
41131SOL    HW233708   9.255   8.037   3.268  0.7722  0.7965 -0.7740
41132SOL     OW33709   4.186  11.143   1.503 -0.0747 -0.0629 -0.0210
41132SOL    HW133710   4.097  11.159   1.470  0.1752  0.4924 -0.4485
41132SOL    HW233711   4.197  11.048   1.498 -0.6437 -0.1332  0.0325
41133SOL     OW33712   1.323   7.072   5.480 -0.5368 -0.1087  0.2215
41133SOL    HW133713   1.405   7.120   5.472  0.6263 -1.5413  2.5408
41133SOL    HW233714   1.326   7.007   5.409 -0.3603  0.7177 -0.5557
41134SOL     OW33715  11.236   3.765   5.460  0.1990  0.3888  0.0846
41134SOL    HW133716  11.169   3.798   5.400  1.1721 -0.3800 -1.5143
41134SOL    HW233717  11.303   3.729   5.402  0.6718 -1.4329  1.6781
41135SOL     OW33718  11.995   9.772  10.882  0.0921 -0.2913 -0.0799
41135SOL    HW133719  11.966   9.724  10.805 -0.9382 -0.9333  0.6924
41135SOL    HW233720  11.952   9.857  10.875  0.7211 -0.0187 -0.6738
41136SOL     OW33721   1.979   5.089  10.687  0.2263 -0.2931  0.2300
41136SOL    HW133722   1.891   5.102  10.652  0.4716 -0.3006 -0.4139
41136SOL    HW233723   1.975   5.118  10.778 -0.4123 -0.1996  0.1703
41137SOL     OW33724  12.204   4.702   6.217  0.0214  0.6205  0.4487
41137SOL    HW133725  12.166   4.754   6.146  0.4782  0.7128  0.2691
41137SOL    HW233726  12.210   4.613   6.181 -1.2604  0.3099  0.9400
41138SOL     OW33727   6.151   6.812   7.657 -0.0187  0.5459 -0.0398
41138SOL    HW133728   6.186   6.850   7.738 -2.0408  0.5408  0.9075
41138SOL    HW233729   6.056   6.810   7.671 -0.2205 -2.1290 -1.2574
41139SOL     OW33730   2.694   0.605  10.255 -0.3315 -0.1595 -0.1731
41139SOL    HW133731   2.690   0.537  10.322 -0.8409 -0.1159 -0.1527
41139SOL    HW233732   2.782   0.641  10.262 -0.0714 -0.7884 -0.1566
41140SOL     OW33733   8.496   9.760   5.648 -0.4096 -0.3797  0.3008
41140SOL    HW133734   8.523   9.671   5.671 -1.1469 -0.5103  0.7119
41140SOL    HW233735   8.563   9.791   5.587 -0.7896 -1.6642 -0.8142
41141SOL     OW33736   1.115  12.104   7.843 -0.1749  0.3486  0.6550
41141SOL    HW133737   1.113  12.139   7.932  1.9579  0.5791  0.6688
41141SOL    HW233738   1.087  12.177   7.787 -0.0126  0.6975  1.0253
41142SOL     OW33739   2.188   2.331   6.126 -0.0360  0.0531 -0.8733
41142SOL    HW133740   2.190   2.417   6.085 -1.1962 -0.0574 -1.2168
41142SOL    HW233741   2.210   2.346   6.218 -0.5982  0.7702 -0.8529
41143SOL     OW33742   1.333  12.375   1.755  0.4554 -0.2211  0.6101
41143SOL    HW133743   1.264  12.373   1.689 -1.0504  1.2006  2.0452
41143SOL    HW233744   1.370  12.287   1.755 -0.5535 -0.6779 -1.0078
41144SOL     OW33745   3.751   2.488   7.117  0.6057  0.0606  0.3421
41144SOL    HW133746   3.846   2.480   7.129  0.8908  1.0594 -0.9625
41144SOL    HW233747   3.715   2.487   7.205  1.9884  1.2954  0.9560
41145SOL     OW33748   6.005   1.974  11.666 -0.1912 -0.4528 -0.1346
41145SOL    HW133749   5.921   1.952  11.626 -1.5107  0.1131  2.1827
41145SOL    HW233750   6.023   2.063  11.637  0.0933 -0.8742 -1.3337
41146SOL     OW33751   1.442   1.951   1.309 -0.0782 -0.2164  0.2552
41146SOL    HW133752   1.437   1.858   1.286 -0.0489 -0.3131  0.6305
41146SOL    HW233753   1.398   1.957   1.394 -0.2085  0.1383  0.1664
41147SOL     OW33754   3.086   1.146   5.381 -0.3201  0.4141  0.0837
41147SOL    HW133755   3.115   1.056   5.364  1.5187  0.8835  0.5086
41147SOL    HW233756   3.041   1.141   5.465  1.2818  0.1563  0.9528
41148SOL     OW33757   5.270  11.671   6.954 -0.2212  0.5503 -0.0214
41148SOL    HW133758   5.282  11.753   7.001 -1.1184  0.1339  0.9741
41148SOL    HW233759   5.185  11.638   6.984 -0.2662 -0.3201 -1.0471
41149SOL     OW33760   1.480   9.172  10.939  0.7339 -0.4860 -0.1199
41149SOL    HW133761   1.394   9.194  10.976 -0.4068 -2.7920 -1.1595
41149SOL    HW233762   1.478   9.208  10.850  0.8715 -0.5147 -0.1351
41150SOL     OW33763   1.093   9.543  10.142  0.2749 -0.5853  0.0400
41150SOL    HW133764   1.172   9.596  10.139 -0.5784  0.7056 -2.0253
41150SOL    HW233765   1.086   9.504  10.055 -2.0859  0.5820 -0.4017
41151SOL     OW33766   3.030   8.597  10.444  0.2530  0.0099 -0.1386
41151SOL    HW133767   3.074   8.616  10.361 -0.4889  1.7029 -0.1838
41151SOL    HW233768   2.938   8.619  10.428  0.2197  1.0824  1.3295
41152SOL     OW33769   9.764  10.213   4.708  0.4325  0.3628  0.0695
41152SOL    HW133770   9.838  10.246   4.657  0.6766  0.8923  0.7522
41152SOL    HW233771   9.751  10.278   4.777 -1.1058  0.6241 -0.4397
41153SOL     OW33772   4.511  10.835   5.003  0.0194 -0.0905  0.0720
41153SOL    HW133773   4.449  10.849   5.074  1.5845  1.1578  1.2482
41153SOL    HW233774   4.459  10.848   4.923 -1.4034  0.0641  0.9895
41154SOL     OW33775   6.525   7.400   5.742  0.3374 -0.2212  0.5080
41154SOL    HW133776   6.466   7.397   5.818  0.3865 -1.2217  0.5305
41154SOL    HW233777   6.495   7.475   5.691  0.2585  0.4327  1.4764
41155SOL     OW33778   2.837   4.722   8.312 -0.0562  0.5771 -0.4121
41155SOL    HW133779   2.753   4.748   8.350  0.3851  1.1360  0.2110
41155SOL    HW233780   2.838   4.626   8.319  0.3718  0.6936  1.8344
41156SOL     OW33781  11.843   2.587   2.234  0.0090  0.2879  0.1271
41156SOL    HW133782  11.898   2.538   2.173  0.6179  1.4307 -0.2690
41156SOL    HW233783  11.781   2.635   2.178 -2.7594 -2.4182  0.6033
41157SOL     OW33784   4.195   5.365   5.961 -0.4894 -0.1294 -0.5754
41157SOL    HW133785   4.267   5.426   5.943 -0.2478  0.2421  1.4069
41157SOL    HW233786   4.219   5.324   6.044 -1.6769 -1.3972 -0.8209
41158SOL     OW33787   3.177   2.894   1.506 -0.0468  0.0258  0.7364
41158SOL    HW133788   3.230   2.818   1.531  0.3676  0.8451  2.4851
41158SOL    HW233789   3.240   2.963   1.489 -0.4734  0.3880  0.5971
41159SOL     OW33790   7.337   7.706   7.876 -0.0490 -0.0109  0.0159
41159SOL    HW133791   7.256   7.756   7.873 -0.7335 -0.9348  1.6715
41159SOL    HW233792   7.316   7.624   7.831 -0.7144 -1.0554  2.0686
41160SOL     OW33793   5.053   8.710   5.723 -0.6580  0.4683  0.1889
41160SOL    HW133794   5.132   8.719   5.777  0.0352 -1.2534 -0.4764
41160SOL    HW233795   5.053   8.618   5.695 -0.1141  1.5885 -4.0821
41161SOL     OW33796   3.532   1.348  10.859  0.3368 -0.2379 -0.5756
41161SOL    HW133797   3.555   1.429  10.815  1.4811 -0.1893  0.0809
41161SOL    HW233798   3.535   1.369  10.952 -0.5092 -0.7437 -0.4192
41162SOL     OW33799  12.749   2.013   8.958  0.0761 -0.2299 -0.2424
41162SOL    HW133800  12.728   1.941   9.018  2.0471 -0.7241 -0.0993
41162SOL    HW233801  12.844   2.020   8.961  0.0949  0.8051 -2.1031
41163SOL     OW33802  11.806   4.426   4.531 -0.1868 -0.2075 -0.0574
41163SOL    HW133803  11.893   4.441   4.569 -0.2928  0.9319 -0.2196
41163SOL    HW233804  11.794   4.499   4.470 -0.8062 -0.9667 -0.8655
41164SOL     OW33805  11.408   5.337   0.682  0.0418  0.9756 -0.1790
41164SOL    HW133806  11.422   5.431   0.673  0.3407  0.8905 -0.6365
41164SOL    HW233807  11.329   5.320   0.631  1.2968  0.6200 -2.1347
41165SOL     OW33808   4.863  11.529   3.603  0.6766 -1.1038 -0.5312
41165SOL    HW133809   4.874  11.589   3.529  1.9227 -1.0439 -0.3168
41165SOL    HW233810   4.937  11.469   3.596 -0.0993 -2.1097 -0.2605
41166SOL     OW33811  12.881  12.738   3.311 -0.2544  0.1887  0.0642
41166SOL    HW133812  12.913  12.669   3.252  3.0388  1.6411 -0.0997
41166SOL    HW233813  12.854  12.809   3.252  0.0758  0.4669  0.2407
41167SOL     OW33814  11.691   7.669   3.144  0.0988  0.2595 -0.0551
41167SOL    HW133815  11.723   7.599   3.088  1.1764 -0.6974  1.6913
41167SOL    HW233816  11.595   7.661   3.139  0.1906 -0.5610 -0.7881
41168SOL     OW33817   1.998   1.876   3.537 -0.2314 -0.4525 -0.1475
41168SOL    HW133818   1.945   1.909   3.464 -2.1945 -1.8518  0.5415
41168SOL    HW233819   1.956   1.913   3.615 -0.1189 -1.4634  0.4100
41169SOL     OW33820   4.777   2.425   0.371  1.4195 -0.5864  0.3656
41169SOL    HW133821   4.814   2.373   0.442  1.5296  1.2673  1.7260
41169SOL    HW233822   4.820   2.510   0.379 -0.9858  0.7243  0.1693
41170SOL     OW33823   9.519   8.663   7.264  0.7735 -0.3576 -0.0621
41170SOL    HW133824   9.514   8.748   7.307 -1.7791 -0.4711  0.0151
41170SOL    HW233825   9.566   8.680   7.182  1.3505  0.8582  0.4932
41171SOL     OW33826   2.025  11.396   7.541 -0.0994  0.1382 -0.3221
41171SOL    HW133827   1.935  11.365   7.533 -0.3343  0.6143  0.3716
41171SOL    HW233828   2.065  11.337   7.605 -0.7695  1.6608  1.6017
41172SOL     OW33829   6.802   1.142   0.727  0.3959 -0.3836  0.2349
41172SOL    HW133830   6.890   1.170   0.702 -0.0572  0.5907 -0.2917
41172SOL    HW233831   6.797   1.051   0.697  1.3804 -0.6085  0.7031
41173SOL     OW33832   1.687   4.022  10.031 -0.5734 -0.9190  0.3068
41173SOL    HW133833   1.781   4.005  10.034 -0.5741 -0.8406  0.8491
41173SOL    HW233834   1.663   4.041  10.121 -0.5787  1.9692 -0.2177
41174SOL     OW33835  10.448   1.036  10.252  0.2084 -0.4845 -0.0207
41174SOL    HW133836  10.392   1.105  10.217 -1.8237 -0.6597  2.5276
41174SOL    HW233837  10.455   1.057  10.346  1.3146 -2.5590  0.4205
41175SOL     OW33838  12.197   6.421   4.654  0.2424  0.5468 -0.7504
41175SOL    HW133839  12.151   6.501   4.630 -1.1595 -0.2062 -0.6807
41175SOL    HW233840  12.269   6.415   4.592  0.6627  2.0915 -0.4558
41176SOL     OW33841   0.622   2.243   4.733  0.1013 -0.3087 -0.5313
41176SOL    HW133842   0.638   2.301   4.808 -2.3621 -1.3698  0.9299
41176SOL    HW233843   0.548   2.283   4.687 -0.3316 -1.2217 -0.6520
41177SOL     OW33844   3.397  10.732   3.387  0.3109  0.3439 -0.3692
41177SOL    HW133845   3.442  10.791   3.327  1.1170 -0.8232 -0.9532
41177SOL    HW233846   3.468  10.686   3.433 -0.2918 -0.0074  0.2351
41178SOL     OW33847  12.154   7.111   6.857  0.0276  0.0139 -0.5319
41178SOL    HW133848  12.096   7.157   6.918  0.7885  0.5173 -0.1705
41178SOL    HW233849  12.210   7.058   6.913  1.2937  1.1192 -0.7175
41179SOL     OW33850   9.149   3.417   7.209 -0.4806  0.2586  0.5961
41179SOL    HW133851   9.182   3.365   7.136 -0.2633  0.1695  0.7608
41179SOL    HW233852   9.222   3.425   7.269 -0.5796  0.5625  0.6793
41180SOL     OW33853  11.261  12.964   9.464  0.3844 -0.1522  0.7635
41180SOL    HW133854  11.318  13.005   9.399 -1.2683  1.0281 -0.0095
41180SOL    HW233855  11.186  13.023   9.471 -0.8414 -1.7364  1.6022
41181SOL     OW33856  10.743   2.217   4.814 -0.0804  0.9384  0.4385
41181SOL    HW133857  10.664   2.257   4.780  0.2540  2.4383  1.3298
41181SOL    HW233858  10.804   2.290   4.825  1.2600 -0.1141  0.2346
41182SOL     OW33859   6.950   2.941   6.359  0.0479  0.2292 -0.2541
41182SOL    HW133860   6.904   2.862   6.388  0.2818 -0.4365 -1.6388
41182SOL    HW233861   6.881   2.997   6.325 -0.4070  1.5391  2.5096
41183SOL     OW33862   4.932   6.498   0.327  0.0138 -0.1117 -0.2992
41183SOL    HW133863   4.943   6.573   0.386 -2.2458 -0.1326  0.2310
41183SOL    HW233864   4.984   6.429   0.367  1.5847  0.9402 -0.4298
41184SOL     OW33865   2.238   2.885   5.883  0.1223 -0.2902 -0.1268
41184SOL    HW133866   2.226   2.946   5.956  0.0907  1.5794 -1.6258
41184SOL    HW233867   2.150   2.870   5.849  0.2252 -0.4632 -0.3180
41185SOL     OW33868   9.967   4.262   3.591 -0.3607 -0.1758 -0.7091
41185SOL    HW133869   9.899   4.204   3.625 -0.8903 -1.5467 -3.8403
41185SOL    HW233870   9.977   4.238   3.499  2.7123  1.5996 -0.9970
41186SOL     OW33871   1.895  11.460  11.840  0.5269  0.5794 -0.4872
41186SOL    HW133872   1.952  11.533  11.864  1.6265  0.1495 -1.6924
41186SOL    HW233873   1.858  11.484  11.756  0.3304  0.0613 -0.5524
41187SOL     OW33874   5.185  12.188   4.785  0.3693 -0.0522 -0.5748
41187SOL    HW133875   5.190  12.266   4.729 -0.5976  2.2609  2.2916
41187SOL    HW233876   5.275  12.172   4.811  0.5574  0.2484 -1.0221
41188SOL     OW33877   9.664   9.732   7.314 -0.2956  0.4927  0.2826
41188SOL    HW133878   9.589   9.676   7.333  0.5439 -1.3006 -1.3539
41188SOL    HW233879   9.731   9.705   7.377  0.1797 -0.5482 -0.6412
41189SOL     OW33880   2.478   4.828   2.745 -0.4891 -0.3651 -0.2768
41189SOL    HW133881   2.387   4.836   2.774 -0.8918 -0.9599 -1.3134
41189SOL    HW233882   2.527   4.884   2.805 -1.6348  0.5881 -0.1827
41190SOL     OW33883   1.525   3.580   4.040 -0.4097  0.0474 -0.6987
41190SOL    HW133884   1.602   3.570   3.984  0.1788 -1.2021  0.2847
41190SOL    HW233885   1.535   3.511   4.106 -1.0630  1.4841  0.9582
41191SOL     OW33886   0.097   4.947  11.259 -0.3101 -0.9291 -0.2448
41191SOL    HW133887   0.041   4.993  11.321  1.3466  1.4365 -0.3651
41191SOL    HW233888   0.041   4.933  11.183 -1.0167  0.5970 -0.0523
41192SOL     OW33889   1.060   4.497   6.999  0.3886 -0.1464 -0.4497
41192SOL    HW133890   1.138   4.551   6.994 -0.3346  1.0656  0.7055
41192SOL    HW233891   1.010   4.533   7.072  0.6589 -3.4416  1.6050
41193SOL     OW33892   1.263   8.099  12.808 -0.5916 -0.2658 -0.0093
41193SOL    HW133893   1.266   8.006  12.830 -0.6479  0.4451  3.5886
41193SOL    HW233894   1.327   8.109  12.737  0.6221 -2.8019  0.6237
41194SOL     OW33895   8.194   1.502   7.409  1.3849  0.0372  0.1858
41194SOL    HW133896   8.261   1.540   7.466 -0.5064  0.6730  2.1338
41194SOL    HW233897   8.124   1.475   7.469 -0.2411 -0.3214 -1.7505
41195SOL     OW33898   4.736   7.547   4.222  0.1155  0.3927  0.4446
41195SOL    HW133899   4.791   7.477   4.257 -0.8862 -1.5636 -1.6539
41195SOL    HW233900   4.711   7.598   4.298  2.6584 -0.1823  1.8012
41196SOL     OW33901   7.645  10.694  10.460  0.0623  0.4855  0.3087
41196SOL    HW133902   7.631  10.601  10.477  3.1463  0.1108  1.4655
41196SOL    HW233903   7.632  10.737  10.545  1.8281  0.5932  0.5636
41197SOL     OW33904   5.289  11.562   1.637  0.2395  0.8245 -0.1658
41197SOL    HW133905   5.236  11.483   1.624  0.4907  0.2445  1.9930
41197SOL    HW233906   5.227  11.627   1.669  0.5763  0.5099  1.1794
41198SOL     OW33907   4.577   0.557   4.538 -0.6337 -0.0156  0.0770
41198SOL    HW133908   4.520   0.482   4.523 -0.2574 -0.5235  1.0965
41198SOL    HW233909   4.602   0.587   4.450  0.4534 -2.0310 -0.3530
41199SOL     OW33910  11.880   4.768   2.637  0.1416  0.4254 -0.6300
41199SOL    HW133911  11.866   4.861   2.653 -0.9393 -0.1782  2.6522
41199SOL    HW233912  11.965   4.749   2.674  0.1637  0.0057 -0.8864
41200SOL     OW33913   1.407   5.059  10.152 -0.0414  0.4116 -0.1187
41200SOL    HW133914   1.358   4.979  10.173 -0.7518  0.1797 -2.3580
41200SOL    HW233915   1.349   5.108  10.094  0.5022  2.4666  0.9798
41201SOL     OW33916  11.886   9.695  12.381  0.1377  0.0330 -0.5810
41201SOL    HW133917  11.948   9.624  12.368  1.3184  1.2522 -2.1213
41201SOL    HW233918  11.811   9.672  12.327  0.0770 -0.5323 -0.2550
41202SOL     OW33919   5.423   4.424  12.363  0.2570  0.2077 -0.5107
41202SOL    HW133920   5.409   4.499  12.305  0.3062  1.3902  0.9487
41202SOL    HW233921   5.336   4.383  12.371 -0.5047  1.9842  1.1159
41203SOL     OW33922  11.732   0.784   4.210  0.3453 -0.3777  0.4000
41203SOL    HW133923  11.787   0.851   4.171  1.6190  0.3889  3.2453
41203SOL    HW233924  11.648   0.828   4.226  0.5139 -0.0751  0.4478
41204SOL     OW33925  11.435   2.190   4.296 -0.2626 -0.5825 -0.3474
41204SOL    HW133926  11.359   2.133   4.281 -0.4914 -0.1757 -0.7389
41204SOL    HW233927  11.467   2.211   4.209  0.2745 -0.7044 -0.1864
41205SOL     OW33928   0.077   2.870  10.747 -0.2460  0.3284  0.3716
41205SOL    HW133929   0.162   2.851  10.786 -0.6321 -0.7380  0.7277
41205SOL    HW233930   0.014   2.854  10.818 -0.7516  1.1316  0.1242
41206SOL     OW33931   0.360  12.356   3.101 -0.7152  0.9318 -0.6361
41206SOL    HW133932   0.422  12.428   3.086  1.0998 -0.3561  0.3512
41206SOL    HW233933   0.311  12.349   3.018  0.6712  1.7954 -1.5629
41207SOL     OW33934   6.056  11.404   0.763  0.3811  0.5210  0.1086
41207SOL    HW133935   6.075  11.458   0.840  0.3067 -0.6855  1.0000
41207SOL    HW233936   6.127  11.340   0.761 -1.1187 -1.2726  0.8929
41208SOL     OW33937   0.719   6.035   9.888 -0.2318 -0.0673 -0.5788
41208SOL    HW133938   0.758   5.948   9.889 -1.2181 -0.5137 -0.0910
41208SOL    HW233939   0.780   6.088   9.836  1.4082 -0.5418  0.7756
41209SOL     OW33940  10.607   8.130   7.992  0.3315 -0.0390 -0.3173
41209SOL    HW133941  10.680   8.122   8.054 -0.0901 -1.2072  0.0503
41209SOL    HW233942  10.568   8.215   8.012  1.3846  0.4629 -0.3060
41210SOL     OW33943   9.241  10.372  11.691  0.1869  0.0485  0.3488
41210SOL    HW133944   9.198  10.396  11.609  0.4484  0.1115  0.2282
41210SOL    HW233945   9.262  10.279  11.681  1.7403  0.4332 -0.3636
41211SOL     OW33946   4.165   6.951   8.485 -0.1551  0.4566 -0.6954
41211SOL    HW133947   4.131   7.033   8.448  1.5808  0.0243 -3.6049
41211SOL    HW233948   4.240   6.930   8.429  0.7892 -2.0077  1.3364
41212SOL     OW33949  11.270   5.095   1.083 -0.2200  0.0110 -0.5349
41212SOL    HW133950  11.273   5.013   1.132  0.0856 -1.0385 -2.2384
41212SOL    HW233951  11.228   5.073   1.000 -3.8611  2.4295  0.4083
41213SOL     OW33952   2.301   7.555   8.725 -0.3062  0.4230  0.9137
41213SOL    HW133953   2.257   7.584   8.645 -0.0077 -1.3393  0.0387
41213SOL    HW233954   2.356   7.628   8.751  1.6826  0.1786 -2.0886
41214SOL     OW33955   5.096   3.833   8.260 -0.4682 -0.6646 -0.1124
41214SOL    HW133956   5.124   3.874   8.178  0.7300 -0.0549  0.5731
41214SOL    HW233957   5.004   3.857   8.268 -0.5032 -0.4134 -1.0915
41215SOL     OW33958   0.714  10.207   7.801 -0.5916 -0.4127 -0.1762
41215SOL    HW133959   0.686  10.298   7.810 -0.1177 -0.3420  0.7096
41215SOL    HW233960   0.670  10.161   7.872  1.5383 -0.2740  1.3478
41216SOL     OW33961  12.514   0.554   7.780  0.2646 -0.6440  0.1756
41216SOL    HW133962  12.551   0.628   7.732  1.5936 -1.1305  0.4028
41216SOL    HW233963  12.428   0.541   7.741 -0.1068  1.1563  0.2880
41217SOL     OW33964   0.046   8.605   0.188  1.1154 -0.1542 -0.4630
41217SOL    HW133965  -0.044   8.573   0.181  1.9844 -2.4632 -2.1921
41217SOL    HW233966   0.040   8.698   0.164 -1.0403  0.3139  1.5003
41218SOL     OW33967   4.249  12.416   5.293 -0.1519 -0.0772 -0.7344
41218SOL    HW133968   4.276  12.427   5.384 -1.0636 -0.2106 -0.4330
41218SOL    HW233969   4.247  12.322   5.280  1.8213 -0.0563 -1.4907
41219SOL     OW33970   4.252   7.454  12.772  0.7751 -0.2647 -0.2860
41219SOL    HW133971   4.243   7.402  12.692  0.1234 -1.5393  0.5834
41219SOL    HW233972   4.283   7.539  12.742  1.7225 -1.0930 -1.7827
41220SOL     OW33973   7.819  11.688   1.148  0.2337 -0.4096 -0.2009
41220SOL    HW133974   7.901  11.706   1.102 -0.3109  1.9477 -0.4122
41220SOL    HW233975   7.785  11.775   1.171 -1.9505 -1.3276  0.3330
41221SOL     OW33976  12.711   3.427   0.329  0.3057 -0.1058  0.2386
41221SOL    HW133977  12.694   3.521   0.323  1.5083  0.0621 -1.4606
41221SOL    HW233978  12.788   3.419   0.386  0.5751  0.0126 -0.1025
41222SOL     OW33979   9.544   6.662   2.199 -0.1580 -0.0238  0.0083
41222SOL    HW133980   9.528   6.585   2.253 -0.8594  0.9211  1.2182
41222SOL    HW233981   9.460   6.709   2.199  0.4588  1.1254 -0.0218
41223SOL     OW33982   3.451  12.802   7.537 -0.0562 -0.1484  0.1972
41223SOL    HW133983   3.444  12.715   7.497 -0.3224  0.5608 -1.3528
41223SOL    HW233984   3.463  12.784   7.631  1.6216 -1.9055 -0.2817
41224SOL     OW33985   0.259   7.932  10.509  0.0621 -0.5543 -0.4618
41224SOL    HW133986   0.345   7.894  10.528 -0.7106 -2.0014  0.2793
41224SOL    HW233987   0.260   7.948  10.415  1.5021  0.4330 -0.3199
41225SOL     OW33988   9.613   3.963   1.626  0.3060 -0.1665 -0.6601
41225SOL    HW133989   9.655   3.892   1.577 -0.7513 -0.7756 -0.7065
41225SOL    HW233990   9.597   4.031   1.561  1.1980  0.0784 -0.6429
41226SOL     OW33991   2.770   8.954  10.968 -0.1581  0.3816 -0.4193
41226SOL    HW133992   2.788   8.999  11.051 -1.1730  3.2430 -1.6136
41226SOL    HW233993   2.687   8.910  10.983 -0.1726  0.6026  0.1910
41227SOL     OW33994  12.336  10.183   7.097 -0.6461 -0.2348 -0.0265
41227SOL    HW133995  12.428  10.163   7.078 -0.2174 -1.1308  2.5581
41227SOL    HW233996  12.309  10.240   7.026  2.0284  0.3684 -0.6894
41228SOL     OW33997   6.491   0.249   0.934 -0.1391  0.5430  0.3441
41228SOL    HW133998   6.498   0.337   0.895  0.7485  0.2407 -0.2025
41228SOL    HW233999   6.402   0.221   0.913 -0.1511  0.9708 -0.2171
41229SOL     OW34000   2.011   7.921   5.467  0.3543  0.0041 -0.2173
41229SOL    HW134001   2.080   7.988   5.464 -0.9381  1.4375  0.2597
41229SOL    HW234002   2.005   7.889   5.378  1.3465  0.1559 -0.3531
41230SOL     OW34003   4.181   2.308   1.917  0.4111  0.1493 -0.1282
41230SOL    HW134004   4.182   2.311   2.013 -1.0189 -1.5573 -0.0152
41230SOL    HW234005   4.093   2.336   1.893  0.5864  0.0351 -0.9279
41231SOL     OW34006   4.387   8.671   6.422  0.0829 -0.0243  0.5593
41231SOL    HW134007   4.416   8.734   6.356 -2.9958  0.9670  0.0086
41231SOL    HW234008   4.466   8.623   6.445  1.5469  0.4102 -2.9458
41232SOL     OW34009   3.001   2.922   2.838  0.1166  0.0788  0.4828
41232SOL    HW134010   2.944   2.887   2.770 -0.0048  0.6102  0.3089
41232SOL    HW234011   3.037   2.845   2.881 -0.0627 -0.2591  0.0317
41233SOL     OW34012   6.799  11.494   6.209  0.9901  0.2349 -0.3845
41233SOL    HW134013   6.881  11.445   6.203  0.6532 -0.3483 -0.4264
41233SOL    HW234014   6.780  11.520   6.119 -0.2528 -2.0287 -0.8744
41234SOL     OW34015   6.241   8.342   4.715  0.6265  0.3272  0.1259
41234SOL    HW134016   6.193   8.347   4.632  1.0774  0.5053 -0.1282
41234SOL    HW234017   6.179   8.375   4.780  0.8892  1.9478 -0.4030
41235SOL     OW34018   7.831   7.218   6.324  0.5013  0.0551  0.1923
41235SOL    HW134019   7.892   7.284   6.291  1.8846 -0.6386  1.2577
41235SOL    HW234020   7.835   7.147   6.259 -0.7467  0.8530 -0.7887
41236SOL     OW34021   3.236  12.639   9.523 -0.5298 -0.1499 -0.2325
41236SOL    HW134022   3.179  12.566   9.546  1.3190 -1.2340  1.2024
41236SOL    HW234023   3.306  12.599   9.470  0.6873  0.4698  0.8515
41237SOL     OW34024  12.047   2.516  10.215 -0.3468 -0.7203 -0.2360
41237SOL    HW134025  12.098   2.448  10.171 -0.5096 -0.8224 -0.2665
41237SOL    HW234026  12.007   2.566  10.144  0.6726  0.1163 -0.2525
41238SOL     OW34027   1.903  11.568   4.249 -0.4383  0.5504 -0.2068
41238SOL    HW134028   1.816  11.547   4.284 -0.5563 -2.7351 -2.0692
41238SOL    HW234029   1.963  11.513   4.298  0.2415  0.8619 -0.6793
41239SOL     OW34030   3.415  11.993   1.321 -0.5975 -0.2285  0.3836
41239SOL    HW134031   3.508  11.979   1.303 -0.7244 -0.8655  0.1762
41239SOL    HW234032   3.372  11.976   1.238 -1.0118 -1.2816  0.7888
41240SOL     OW34033   4.835   0.171   0.728 -0.4142 -0.0623 -0.2411
41240SOL    HW134034   4.879   0.107   0.673  0.8120  0.7033 -0.1900
41240SOL    HW234035   4.742   0.155   0.714 -0.1224 -0.8871 -1.3445
41241SOL     OW34036   1.255   4.837  10.204 -0.1571  0.5283 -0.2308
41241SOL    HW134037   1.167   4.859  10.236 -0.6278 -0.0418 -1.1178
41241SOL    HW234038   1.245   4.827  10.110  0.4674 -1.4225 -0.1264
41242SOL     OW34039   2.285  11.315   0.989  0.0543  0.1361  0.4050
41242SOL    HW134040   2.217  11.352   1.045 -0.7622  0.7872 -0.9579
41242SOL    HW234041   2.314  11.237   1.035 -2.8118 -1.1305  0.2880
41243SOL     OW34042   5.648   8.851   4.475 -0.2052 -0.1663 -0.3286
41243SOL    HW134043   5.607   8.789   4.414  0.2488 -1.9476  1.0862
41243SOL    HW234044   5.588   8.926   4.476 -1.8242 -1.3787 -0.6573
41244SOL     OW34045  12.958   9.606   2.481 -0.3539  0.5674 -0.0860
41244SOL    HW134046  12.914   9.628   2.563 -0.7933 -1.1273  0.1611
41244SOL    HW234047  12.886   9.591   2.419 -0.0360  3.1037 -1.1991
41245SOL     OW34048  12.841   6.357   6.894  0.4248 -0.3144 -0.7560
41245SOL    HW134049  12.838   6.395   6.982 -1.0131  1.4615 -1.5192
41245SOL    HW234050  12.886   6.422   6.841  0.5756 -1.0150 -1.5121
41246SOL     OW34051  10.735   6.830   5.512 -0.5442  0.0817 -0.0058
41246SOL    HW134052  10.767   6.847   5.424 -2.3353  0.1214 -0.6903
41246SOL    HW234053  10.640   6.829   5.504 -0.7816  0.6651  2.0445
41247SOL     OW34054  12.463   0.183   0.460 -0.7218 -0.4599 -0.1242
41247SOL    HW134055  12.447   0.238   0.383  3.5859 -1.1116 -1.7620
41247SOL    HW234056  12.421   0.100   0.438 -2.2579  0.3058 -0.2577
41248SOL     OW34057   8.839   5.756   5.499 -0.4506  0.3502 -0.1760
41248SOL    HW134058   8.799   5.822   5.442 -1.7237 -0.7078 -0.5454
41248SOL    HW234059   8.803   5.673   5.468  0.6067 -0.4600  0.7160
41249SOL     OW34060   2.194  10.217   6.690  0.5804  0.1830  0.6316
41249SOL    HW134061   2.257  10.145   6.691 -0.0074 -0.3555  0.1643
41249SOL    HW234062   2.242  10.292   6.726  1.9634  0.1847 -1.0665
41250SOL     OW34063   2.397   1.516   1.342  0.6931 -0.2565 -0.1353
41250SOL    HW134064   2.307   1.538   1.367  0.8962 -1.2263  1.6236
41250SOL    HW234065   2.451   1.581   1.386  0.9536 -0.7352  0.2535
41251SOL     OW34066  12.393   7.188   3.171  0.6297 -0.0237  0.3695
41251SOL    HW134067  12.308   7.150   3.195  1.1891 -1.2198  0.4773
41251SOL    HW234068  12.385   7.280   3.198 -1.3611  0.4203 -1.4365
41252SOL     OW34069   1.542   3.910   2.137 -0.7600  0.5328 -0.1632
41252SOL    HW134070   1.476   3.971   2.171  0.8050  0.6162  3.1333
41252SOL    HW234071   1.619   3.965   2.120 -0.4572 -0.0312 -0.6676
41253SOL     OW34072  11.377   7.836   3.816 -0.4495 -0.0237  0.3964
41253SOL    HW134073  11.304   7.785   3.781  0.1199  0.3238 -1.4073
41253SOL    HW234074  11.447   7.826   3.751  0.8516  0.2782  1.6954
41254SOL     OW34075  11.121  12.859   3.001 -0.1226  0.1352 -0.8655
41254SOL    HW134076  11.062  12.860   3.076 -0.9766  0.2606 -1.5266
41254SOL    HW234077  11.081  12.799   2.939  0.8538 -0.3851 -1.0174
41255SOL     OW34078  10.119   9.690   0.493 -0.1784  0.6893  0.1776
41255SOL    HW134079  10.049   9.643   0.447  1.5043 -2.0573  0.1924
41255SOL    HW234080  10.165   9.737   0.423 -0.0196 -0.2494 -0.3680
41256SOL     OW34081   6.156  12.355   5.069 -0.8547 -0.2224 -0.0804
41256SOL    HW134082   6.139  12.339   4.976 -2.5212 -1.2346  0.3651
41256SOL    HW234083   6.092  12.421   5.093 -0.7512 -0.3249  0.4788
41257SOL     OW34084  11.738   9.373   2.251  0.4001 -0.2480  0.0690
41257SOL    HW134085  11.832   9.362   2.265  0.6063  1.9519  0.7405
41257SOL    HW234086  11.719   9.461   2.283 -1.7643 -0.3684 -0.7332
41258SOL     OW34087   7.824   6.149   7.170 -0.0149  0.1068  0.2362
41258SOL    HW134088   7.890   6.201   7.217  0.8896  0.6359 -1.5505
41258SOL    HW234089   7.745   6.203   7.173  0.3876  0.7161  0.0603
41259SOL     OW34090   0.672   0.683   3.377  0.2888 -0.3238 -0.3361
41259SOL    HW134091   0.691   0.736   3.299  1.5813 -0.3803 -0.0794
41259SOL    HW234092   0.722   0.603   3.364 -0.9422 -1.1259 -0.2936
41260SOL     OW34093   3.026   1.422   7.503 -0.4213  0.2731  0.0383
41260SOL    HW134094   3.002   1.358   7.437 -0.3081 -0.2395  0.4908
41260SOL    HW234095   3.110   1.391   7.538  0.1370  1.1965 -0.4252
41261SOL     OW34096  12.021   0.235  10.440  0.1566 -0.9585 -0.2232
41261SOL    HW134097  11.980   0.151  10.460 -0.2451 -0.5778  0.5907
41261SOL    HW234098  11.980   0.262  10.357  0.4620 -1.6625 -0.6169
41262SOL     OW34099   5.507   7.598   7.293  0.2315 -0.3760 -0.3031
41262SOL    HW134100   5.413   7.606   7.310  0.5007  0.5377  0.9360
41262SOL    HW234101   5.546   7.669   7.343  1.7041 -1.6267  0.4184
41263SOL     OW34102   0.864  11.497   7.203 -0.1101 -0.2987  0.0204
41263SOL    HW134103   0.810  11.420   7.189 -0.3135  0.1038 -1.5854
41263SOL    HW234104   0.802  11.565   7.230  0.0204 -0.5769  1.0720
41264SOL     OW34105   1.700  10.408  10.522  0.1221  0.1260  0.6702
41264SOL    HW134106   1.684  10.372  10.434  0.8421  1.6469 -0.1280
41264SOL    HW234107   1.616  10.447  10.547 -0.0399 -0.1632  0.5834
41265SOL     OW34108   4.743  10.547   8.769  0.0160  0.0943 -0.0345
41265SOL    HW134109   4.661  10.584   8.801  0.3490  1.1539 -0.3880
41265SOL    HW234110   4.721  10.508   8.685  0.0376  1.0956 -0.5136
41266SOL     OW34111   1.975   7.660   6.691 -0.6143 -0.1503 -0.0768
41266SOL    HW134112   1.952   7.705   6.772 -0.2448 -0.5867  0.2725
41266SOL    HW234113   1.912   7.589   6.684 -0.5716 -0.1852 -0.1098
41267SOL     OW34114   2.989  11.022   6.700  0.1939 -0.5989 -0.2103
41267SOL    HW134115   2.989  10.967   6.622  0.6733  0.7093 -1.1657
41267SOL    HW234116   3.024  10.966   6.769 -1.8289 -2.3167 -0.4947
41268SOL     OW34117   8.526   8.152   0.026 -0.1326 -0.8426  0.2520
41268SOL    HW134118   8.519   8.221  -0.039 -0.4128  0.4000  1.5475
41268SOL    HW234119   8.617   8.157   0.057  0.5206 -2.5608 -1.1863
41269SOL     OW34120   5.196   5.302   9.544 -0.1193 -0.0803  0.3586
41269SOL    HW134121   5.225   5.250   9.469 -0.7925 -0.3084  0.2511
41269SOL    HW234122   5.276   5.318   9.594  0.1564 -0.8960  0.1963
41270SOL     OW34123   1.924   9.705   4.661  0.0637  0.2427  0.0822
41270SOL    HW134124   1.874   9.631   4.626  0.3612 -0.2798  0.7278
41270SOL    HW234125   1.872   9.734   4.736 -0.7231  1.5414 -0.9257
41271SOL     OW34126   1.325   9.432   4.951  0.9250 -0.5752  0.0154
41271SOL    HW134127   1.287   9.371   4.887  1.1362 -0.7353  0.0374
41271SOL    HW234128   1.350   9.508   4.899  0.6448 -0.5008 -0.0108
41272SOL     OW34129   0.362   0.432  11.941 -0.2269 -0.0207 -0.2227
41272SOL    HW134130   0.425   0.361  11.947 -0.3762 -0.2517 -1.2072
41272SOL    HW234131   0.327   0.441  12.030 -0.1937 -1.1619 -0.0766
41273SOL     OW34132   3.853   7.844   1.693  0.1180  0.2235  0.4806
41273SOL    HW134133   3.900   7.863   1.611 -2.2689  1.1932 -0.7506
41273SOL    HW234134   3.876   7.753   1.712  1.4100  0.2388 -0.7834
41274SOL     OW34135   8.902   8.457   2.682 -0.4402  0.1819  0.1639
41274SOL    HW134136   8.939   8.373   2.710  0.9675  0.3496 -1.0910
41274SOL    HW234137   8.865   8.441   2.595 -0.7711  0.7092  0.1966
41275SOL     OW34138   1.043   8.709   1.761  0.5418 -0.0282 -0.2147
41275SOL    HW134139   1.137   8.712   1.778  0.8398 -0.2567 -1.6623
41275SOL    HW234140   1.035   8.658   1.680 -0.7522  0.7449 -0.6107
41276SOL     OW34141   9.837   5.301   6.992  0.6567 -0.0628 -0.0455
41276SOL    HW134142   9.875   5.213   6.979 -2.4503 -1.4669 -0.4797
41276SOL    HW234143   9.748   5.284   7.022 -0.2388  2.9774 -0.7191
41277SOL     OW34144   9.819   2.266   2.972  0.1457 -0.4047 -0.0191
41277SOL    HW134145   9.774   2.283   3.054  0.1361  1.8388 -0.4295
41277SOL    HW234146   9.760   2.207   2.924 -0.3465 -0.8764  1.1319
41278SOL     OW34147   0.761   3.536   6.331 -0.2043 -0.5475  0.7016
41278SOL    HW134148   0.700   3.489   6.388 -2.3676 -0.7798 -1.6157
41278SOL    HW234149   0.766   3.482   6.252  2.7883 -0.3114  0.6123
41279SOL     OW34150   9.876  12.294   9.890 -0.1725 -0.2599  0.4881
41279SOL    HW134151   9.958  12.339   9.907 -0.7289  2.5026 -2.9400
41279SOL    HW234152   9.815  12.332   9.953  0.0873  1.7196 -0.3669
41280SOL     OW34153   0.935   4.577   8.696 -0.2272 -0.1398 -0.2826
41280SOL    HW134154   0.894   4.642   8.639 -0.3265 -0.3218 -0.4216
41280SOL    HW234155   0.994   4.528   8.639  0.5769  0.4526  0.0210
41281SOL     OW34156   0.715   8.580   7.325 -0.0314 -0.2924 -0.2199
41281SOL    HW134157   0.748   8.491   7.313 -0.2865 -0.0948 -2.9266
41281SOL    HW234158   0.786   8.636   7.295 -0.3011  0.3810  0.3873
41282SOL     OW34159   3.427  11.074   8.199 -0.2191 -0.2362 -0.1405
41282SOL    HW134160   3.513  11.078   8.157 -0.4744 -1.5783 -0.8747
41282SOL    HW234161   3.442  11.022   8.279 -0.4673 -1.1543 -0.6725
41283SOL     OW34162   5.201  10.242   9.449  0.2095 -0.3457 -0.4763
41283SOL    HW134163   5.292  10.212   9.443  0.7977  0.5800  2.3348
41283SOL    HW234164   5.162  10.187   9.516 -0.0343  1.8608  1.3335
41284SOL     OW34165   7.565   1.095   3.820 -0.0519 -1.0252 -0.0100
41284SOL    HW134166   7.644   1.105   3.767 -0.3508 -0.0254 -0.2859
41284SOL    HW234167   7.503   1.157   3.782  0.2614  0.9634  2.5111
41285SOL     OW34168  11.563  10.200   7.915 -0.4307  0.3651  0.0657
41285SOL    HW134169  11.481  10.197   7.865 -0.6706  1.0573  0.3911
41285SOL    HW234170  11.631  10.183   7.851 -0.9348 -2.5766  0.1911
41286SOL     OW34171   0.465   0.427   9.706 -0.3160 -0.1501  0.1508
41286SOL    HW134172   0.471   0.519   9.732 -0.8756 -0.2274  0.5635
41286SOL    HW234173   0.551   0.407   9.667  0.3928  0.0994  1.5310
41287SOL     OW34174   1.465  11.110   9.358  0.7289 -0.2735 -0.1230
41287SOL    HW134175   1.380  11.073   9.336  1.1254 -0.6955 -0.9810
41287SOL    HW234176   1.519  11.095   9.281  1.1978  1.2094 -0.1168
41288SOL     OW34177  12.184  12.738   5.509 -0.5256  0.0172  0.7590
41288SOL    HW134178  12.120  12.781   5.453 -1.3523  0.1037  1.7421
41288SOL    HW234179  12.259  12.722   5.452  0.3671  3.8976  0.5876
41289SOL     OW34180   4.632   8.634   9.392 -0.5282  0.4615 -0.3260
41289SOL    HW134181   4.641   8.539   9.382  1.9114  0.1119  3.1356
41289SOL    HW234182   4.567   8.644   9.461  1.2831  0.9873  1.4277
41290SOL     OW34183  11.993  11.564   6.057 -0.1829  0.5235 -0.0938
41290SOL    HW134184  11.932  11.492   6.043 -0.2288  0.5125  0.1600
41290SOL    HW234185  12.079  11.523   6.059 -0.1401  0.5719 -0.7126
41291SOL     OW34186   8.114   0.429   8.936  0.6827  0.2544 -0.3925
41291SOL    HW134187   8.188   0.471   8.894  0.8562 -0.3276 -0.6846
41291SOL    HW234188   8.148   0.344   8.966  0.0822 -0.1217 -0.7472
41292SOL     OW34189   6.340   3.322   9.248 -0.2712 -0.2841 -0.1015
41292SOL    HW134190   6.365   3.388   9.184  0.4570  1.4271  1.8309
41292SOL    HW234191   6.247   3.337   9.264 -0.4968 -0.8326 -0.8520
41293SOL     OW34192  12.923   5.066   1.522 -0.1990 -0.2478  0.9003
41293SOL    HW134193  12.867   5.067   1.600  0.2879  0.6022  1.2552
41293SOL    HW234194  12.992   5.129   1.542 -0.6925  0.8341 -0.6728
41294SOL     OW34195   8.741  11.999   1.680 -0.6201 -0.3541  0.2429
41294SOL    HW134196   8.800  12.032   1.748  2.0331 -0.9143 -1.6155
41294SOL    HW234197   8.680  12.070   1.665  0.1171  0.6396  1.6583
41295SOL     OW34198   2.295   0.594   8.189  0.0159  0.0507  0.0982
41295SOL    HW134199   2.228   0.612   8.256 -0.3401 -2.7984  0.6480
41295SOL    HW234200   2.251   0.612   8.106 -0.1885  1.7118  0.5303
41296SOL     OW34201   6.631   0.941   0.426 -0.5401 -0.1062  0.0478
41296SOL    HW134202   6.664   0.868   0.479  2.1510  1.0091  0.0735
41296SOL    HW234203   6.609   0.901   0.342 -0.2911 -1.1457  0.4560
41297SOL     OW34204  12.913   1.482  10.545 -0.5295 -0.4580 -0.0910
41297SOL    HW134205  12.832   1.437  10.572 -0.5289 -0.8528 -0.7258
41297SOL    HW234206  12.903   1.571  10.579 -0.5374 -0.9197  1.1873
41298SOL     OW34207   0.464   8.631   9.310 -0.3142  0.1139  0.2189
41298SOL    HW134208   0.549   8.612   9.350  0.4319 -0.1602 -1.3989
41298SOL    HW234209   0.480   8.708   9.255 -0.5866 -0.9978 -1.5169
41299SOL     OW34210   1.908   6.487  11.766 -0.3179 -0.1991  0.0128
41299SOL    HW134211   1.951   6.402  11.765  0.2722  0.0804 -1.5318
41299SOL    HW234212   1.880   6.501  11.675 -0.7354  1.0867  0.3121
41300SOL     OW34213   1.663  11.299   2.344 -0.6994 -0.5252  0.0485
41300SOL    HW134214   1.627  11.308   2.256 -0.1862 -0.9248 -0.2090
41300SOL    HW234215   1.589  11.312   2.402 -0.6916  1.9440 -0.3731
41301SOL     OW34216   1.550  10.443   2.895 -0.0109 -0.2867  0.1039
41301SOL    HW134217   1.521  10.523   2.938  0.6197  0.3657 -0.6621
41301SOL    HW234218   1.634  10.422   2.936 -0.0871 -0.4666  0.1740
41302SOL     OW34219   7.698   9.063   9.841  0.4571 -0.2920  0.5480
41302SOL    HW134220   7.694   9.149   9.883  1.5684 -0.8003  1.7853
41302SOL    HW234221   7.731   9.082   9.753 -2.7080  0.8828 -0.5091
41303SOL     OW34222  10.322   8.856   5.289  0.2117 -0.4269 -0.2385
41303SOL    HW134223  10.367   8.896   5.215  3.2010 -1.9391  0.6077
41303SOL    HW234224  10.354   8.765   5.291 -1.3395 -1.0114  1.7022
41304SOL     OW34225   6.352   7.602   9.110  0.1239  0.3669 -0.4657
41304SOL    HW134226   6.375   7.692   9.134  1.2624 -0.5426  2.1661
41304SOL    HW234227   6.258   7.605   9.093  0.3858  2.3096 -1.9102
41305SOL     OW34228   5.862   8.449   3.598 -0.5144 -1.0444 -0.2017
41305SOL    HW134229   5.868   8.491   3.513  0.3135 -0.2749  0.2182
41305SOL    HW234230   5.868   8.355   3.580  0.0311 -0.8683 -0.9562
41306SOL     OW34231   9.252  11.744   3.344  0.1458 -0.2430  0.1967
41306SOL    HW134232   9.292  11.694   3.273  1.1289 -1.3783  1.5054
41306SOL    HW234233   9.325  11.787   3.388 -0.5004  0.8453  0.2587
41307SOL     OW34234  12.708   6.727   6.140  0.1007 -0.0576 -0.1751
41307SOL    HW134235  12.762   6.776   6.078 -0.1742 -0.9089 -1.1049
41307SOL    HW234236  12.704   6.638   6.104 -1.9510 -0.0164 -0.1874
41308SOL     OW34237   8.312   6.078   1.809 -0.0381  0.0230  0.7543
41308SOL    HW134238   8.315   6.169   1.841 -1.3464  0.6520 -0.7571
41308SOL    HW234239   8.233   6.075   1.756  1.1866 -1.3820 -1.0882
41309SOL     OW34240  10.560   8.934   2.338  0.3772 -0.0644 -0.3010
41309SOL    HW134241  10.586   9.015   2.381  1.4816  0.1422 -1.2893
41309SOL    HW234242  10.530   8.877   2.409 -1.6829  1.6379  0.2784
41310SOL     OW34243   2.444   7.889   3.207  0.1121 -0.2027  0.4717
41310SOL    HW134244   2.463   7.869   3.116 -0.3583 -0.8773  0.5173
41310SOL    HW234245   2.468   7.981   3.217  1.4460 -0.4747  0.0222
41311SOL     OW34246   3.245   4.013   9.067 -0.4790 -0.0226 -0.3326
41311SOL    HW134247   3.221   4.080   9.004 -1.9632 -0.8683 -0.7258
41311SOL    HW234248   3.266   4.061   9.147 -0.8035  0.9411 -0.8131
41312SOL     OW34249   3.992   7.164   9.349 -0.1573 -0.2794  0.0058
41312SOL    HW134250   3.970   7.073   9.370 -0.1845 -0.3705 -0.4051
41312SOL    HW234251   3.917   7.195   9.297  0.7133 -0.6200 -1.4870
41313SOL     OW34252   8.423  12.351   8.085 -0.3042 -0.2815 -0.3752
41313SOL    HW134253   8.407  12.260   8.110 -0.5480 -0.3802 -0.8778
41313SOL    HW234254   8.514  12.352   8.056 -0.7494 -0.7268 -1.8928
41314SOL     OW34255   6.907   1.678   1.927  0.0619 -0.0520 -0.4595
41314SOL    HW134256   6.890   1.615   1.857 -0.1154 -1.3456  0.7040
41314SOL    HW234257   6.820   1.702   1.960  0.1861 -1.9838  1.4510
41315SOL     OW34258   9.203   7.040   3.805  0.0322  0.3981  0.1244
41315SOL    HW134259   9.111   7.038   3.832  0.1848  1.3339  0.7711
41315SOL    HW234260   9.201   7.019   3.712 -0.7674 -0.2711  0.2738
41316SOL     OW34261   2.839   4.742  10.292  0.1382  0.0436  0.6353
41316SOL    HW134262   2.755   4.737  10.246 -0.0488  2.0580  0.6848
41316SOL    HW234263   2.873   4.829  10.272  1.8060 -0.4073  1.3421
41317SOL     OW34264   5.030  11.760   8.300  0.3275  0.2092  0.2597
41317SOL    HW134265   5.105  11.819   8.307  0.1593  0.2520  2.8500
41317SOL    HW234266   5.068  11.673   8.288  0.7840  0.3307  0.7900
41318SOL     OW34267   9.105   1.028   6.613  0.5176  0.2805  0.0695
41318SOL    HW134268   9.095   1.106   6.668  0.4334 -0.5610  1.3026
41318SOL    HW234269   9.180   1.047   6.557  0.0985  1.4907 -0.0926
41319SOL     OW34270  12.164   6.504   6.730 -0.3019  0.0074 -0.5169
41319SOL    HW134271  12.165   6.408   6.730  0.0963  0.0073 -0.8242
41319SOL    HW234272  12.080   6.527   6.770  0.0120 -0.4642  0.4503
41320SOL     OW34273   7.763   9.089   7.557  0.4883  0.1713  0.1798
41320SOL    HW134274   7.796   9.016   7.505  1.5480  0.1708  0.8202
41320SOL    HW234275   7.841   9.136   7.584  0.0525 -0.2561  2.3976
41321SOL     OW34276   0.554   4.277   1.772 -0.3970  0.0253 -0.1173
41321SOL    HW134277   0.469   4.321   1.764 -0.2344  0.3531 -0.0540
41321SOL    HW234278   0.575   4.250   1.683 -0.5910 -0.1046 -0.1256
41322SOL     OW34279  11.617   0.781   3.037 -0.2771 -0.0799 -0.3644
41322SOL    HW134280  11.710   0.763   3.023 -0.5159 -1.7892 -0.0117
41322SOL    HW234281  11.611   0.795   3.132 -0.3551  0.1242 -0.4014
41323SOL     OW34282  12.779   9.961   4.399  0.5374  0.7053  0.0657
41323SOL    HW134283  12.846  10.021   4.365  0.6014  0.4344 -0.2799
41323SOL    HW234284  12.711   9.959   4.332  0.5855  0.3038  0.0270
41324SOL     OW34285  11.960   4.283  12.638 -0.1052  0.1230 -0.3912
41324SOL    HW134286  11.922   4.333  12.710 -0.5365  0.0310 -0.5527
41324SOL    HW234287  11.885   4.243  12.594  0.3002 -2.1573  0.8053
41325SOL     OW34288   6.730   3.585   2.953  0.1144  0.6420 -0.1454
41325SOL    HW134289   6.747   3.497   2.986  0.2636  0.1770 -1.4285
41325SOL    HW234290   6.680   3.572   2.873  1.0270  1.6742 -0.9107
41326SOL     OW34291   2.096   8.137   8.378  0.2211  0.2403  0.0952
41326SOL    HW134292   2.053   8.177   8.303 -1.1329  0.6954  1.0881
41326SOL    HW234293   2.048   8.055   8.392  1.8942 -0.9865 -0.8733
41327SOL     OW34294  10.771   9.138   1.835 -0.0987  0.0020 -0.1274
41327SOL    HW134295  10.752   9.049   1.863  1.8239 -0.3475  0.2371
41327SOL    HW234296  10.804   9.128   1.746  1.2039  0.1714  0.3082
41328SOL     OW34297  12.502   1.837   5.511 -0.4185 -0.4777 -0.4226
41328SOL    HW134298  12.486   1.879   5.596 -0.6910  1.5145 -1.4196
41328SOL    HW234299  12.425   1.782   5.497 -0.5082 -0.6034  0.4567
41329SOL     OW34300   3.771   8.853   9.882  0.3094  0.2394 -0.0560
41329SOL    HW134301   3.790   8.805   9.962  0.5265  1.7821  0.8521
41329SOL    HW234302   3.706   8.799   9.836  2.3160 -2.1444 -0.3174
41330SOL     OW34303   3.571   4.415   3.114  0.3223  0.0247  0.7780
41330SOL    HW134304   3.606   4.337   3.071 -0.3865  0.2034 -0.1663
41330SOL    HW234305   3.489   4.433   3.068  1.0657  2.0435  0.1126
41331SOL     OW34306  10.592  11.737   2.744 -0.0904  0.2132  0.1653
41331SOL    HW134307  10.669  11.686   2.720 -0.1041  0.1673  0.2203
41331SOL    HW234308  10.523  11.672   2.759 -0.1138  0.2483  0.2131
41332SOL     OW34309   3.223   0.091  11.345 -0.2111  0.3603 -0.6095
41332SOL    HW134310   3.130   0.105  11.327 -0.5219  0.8434  1.1364
41332SOL    HW234311   3.268   0.127  11.269 -1.3688  3.0058 -0.1713
41333SOL     OW34312   7.500   9.769   0.257 -0.2066 -0.3069 -0.3026
41333SOL    HW134313   7.460   9.809   0.334  0.9121  0.3764 -0.0545
41333SOL    HW234314   7.556   9.837   0.220  0.2246 -1.0181 -1.0050
41334SOL     OW34315   0.654   7.743  11.678  0.2391  0.0654 -0.3159
41334SOL    HW134316   0.658   7.715  11.587  1.3115  0.2579 -0.3442
41334SOL    HW234317   0.635   7.837  11.673  0.6097  0.1392 -0.3539
41335SOL     OW34318   5.442   1.513   7.106  0.2749 -0.1694  0.6596
41335SOL    HW134319   5.459   1.535   7.198  0.9622  0.3039  0.4256
41335SOL    HW234320   5.346   1.518   7.098 -0.0206 -2.4672  1.8933
41336SOL     OW34321   7.305   9.479  11.188  0.5988 -0.5208  0.3500
41336SOL    HW134322   7.391   9.470  11.227 -0.0138  0.0873  1.9261
41336SOL    HW234323   7.252   9.412  11.231  0.4516 -1.4422 -1.1956
41337SOL     OW34324   8.566   7.704   8.586 -0.0439 -0.1557 -0.3433
41337SOL    HW134325   8.566   7.666   8.674 -0.8484 -2.2047 -1.1684
41337SOL    HW234326   8.478   7.741   8.577  0.4240  1.1106  0.1087
41338SOL     OW34327   8.874  11.825   4.275  0.1229 -0.2363  0.1349
41338SOL    HW134328   8.839  11.867   4.196 -1.2783 -0.9722  0.3186
41338SOL    HW234329   8.936  11.760   4.242 -0.0066 -0.1325 -0.3236
41339SOL     OW34330   9.680   0.458   8.065 -0.4189  0.1143 -0.3260
41339SOL    HW134331   9.629   0.408   8.128 -1.7773  0.5471 -1.0502
41339SOL    HW234332   9.637   0.442   7.981  0.8642  0.2002 -1.0299
41340SOL     OW34333   9.858   7.359   4.927  0.7642 -0.2606  0.1329
41340SOL    HW134334   9.901   7.323   4.849  3.3251  1.0048  0.8513
41340SOL    HW234335   9.845   7.451   4.906 -0.7390 -0.4146  0.3337
41341SOL     OW34336   5.502  12.029   1.934 -0.1735  0.0649  0.8771
41341SOL    HW134337   5.549  11.988   2.007 -0.4418 -0.6655  0.6407
41341SOL    HW234338   5.414  11.992   1.938 -0.6770  1.2569  1.1759
41342SOL     OW34339   4.717   5.989   5.004  0.2158  0.3160  0.3751
41342SOL    HW134340   4.740   6.077   4.975 -1.1774  0.5757 -0.0366
41342SOL    HW234341   4.621   5.986   4.999  0.1185 -0.6842  1.9590
41343SOL     OW34342   1.868   8.094   7.628  0.1557  0.2169  0.5473
41343SOL    HW134343   1.878   8.147   7.707  0.0663  0.9999  0.0396
41343SOL    HW234344   1.821   8.016   7.657 -1.0838  1.1139  1.0193
41344SOL     OW34345   7.202   1.421   5.036 -0.2122 -0.2309  0.5154
41344SOL    HW134346   7.236   1.336   5.063 -1.2087 -0.1714  2.0545
41344SOL    HW234347   7.266   1.485   5.068  0.4061 -0.3591 -0.4203
41345SOL     OW34348   3.630  11.724   9.125 -0.1389  0.1887 -0.2743
41345SOL    HW134349   3.686  11.700   9.051 -0.3239 -0.8345 -0.0969
41345SOL    HW234350   3.682  11.787   9.175  0.5832 -0.2350 -0.4826
41346SOL     OW34351   9.290  11.318  10.559  0.5376  0.9085  0.1205
41346SOL    HW134352   9.255  11.340  10.646  0.4963 -0.7429  0.5605
41346SOL    HW234353   9.383  11.343  10.564  0.3589  1.5554  0.3546
41347SOL     OW34354  10.173   1.909   4.709 -0.1761  0.5530  0.1477
41347SOL    HW134355  10.123   1.878   4.785 -1.2433 -0.6192 -0.9785
41347SOL    HW234356  10.242   1.964   4.747  0.3523 -1.3038  2.1119
41348SOL     OW34357   1.595   7.672   3.408  0.3237  0.1094  0.1802
41348SOL    HW134358   1.542   7.599   3.441  0.2409  0.3135  0.5037
41348SOL    HW234359   1.686   7.641   3.418  0.2673 -0.3163 -0.5560
41349SOL     OW34360   3.113   6.593   7.054  0.0196  0.1855 -0.0952
41349SOL    HW134361   3.181   6.534   7.021  0.0172 -0.1009  0.4023
41349SOL    HW234362   3.155   6.638   7.128 -0.3054  0.0759  0.1552
41350SOL     OW34363  12.402   2.260  12.110  0.5654  0.0596 -0.0370
41350SOL    HW134364  12.457   2.324  12.065 -0.3505  0.3815 -0.7242
41350SOL    HW234365  12.463   2.190  12.135  1.5755  1.1716  0.7308
41351SOL     OW34366   8.703   4.983   5.255 -0.2604  0.3972  0.4631
41351SOL    HW134367   8.693   4.896   5.217  0.1113  1.0824 -1.3083
41351SOL    HW234368   8.797   4.999   5.255 -0.3980  1.4609 -0.9150
41352SOL     OW34369   8.065   9.627  12.101  0.3056 -0.0897  0.3860
41352SOL    HW134370   8.124   9.554  12.122  0.6258  0.2425  0.6548
41352SOL    HW234371   8.047   9.667  12.186 -2.6733 -1.9540  0.7672
41353SOL     OW34372   2.650   1.373   0.978 -0.4347 -0.7445  0.7097
41353SOL    HW134373   2.703   1.452   0.969 -0.8745 -0.3862  1.1963
41353SOL    HW234374   2.687   1.327   1.054  0.6025 -1.6392 -0.3089
41354SOL     OW34375   8.435  12.514   9.504  0.4104 -0.0455 -0.0098
41354SOL    HW134376   8.408  12.428   9.535 -1.9682  0.4979 -0.3821
41354SOL    HW234377   8.526  12.503   9.478 -0.1451 -2.7593 -1.1459
41355SOL     OW34378   3.486   9.784   5.150 -0.1549  0.0025  0.3640
41355SOL    HW134379   3.451   9.867   5.117  0.2500  0.2873  0.6472
41355SOL    HW234380   3.474   9.723   5.077 -2.1959 -0.1877  0.8095
41356SOL     OW34381   4.677   7.818   3.534 -0.6048  0.2502 -0.9326
41356SOL    HW134382   4.651   7.735   3.574  0.6556 -0.2492 -1.1211
41356SOL    HW234383   4.652   7.885   3.598 -0.0516 -0.4106 -0.0144
41357SOL     OW34384  10.554   7.422   6.742 -0.0982  0.6396  0.4335
41357SOL    HW134385  10.570   7.499   6.687  0.6831  0.2579  0.1219
41357SOL    HW234386  10.596   7.350   6.696  0.1850  0.2319  1.3154
41358SOL     OW34387   7.902   7.941   1.267  0.2107  0.1284  0.5190
41358SOL    HW134388   7.849   7.986   1.202  0.3580 -0.2854  0.1091
41358SOL    HW234389   7.965   7.890   1.216  1.4988  1.1908  1.0113
41359SOL     OW34390   1.283   8.816   5.789  0.2020  0.8344 -0.4388
41359SOL    HW134391   1.216   8.859   5.736 -1.1037 -0.8333 -0.2153
41359SOL    HW234392   1.247   8.730   5.808  2.4113 -0.1147 -0.2673
41360SOL     OW34393   8.117   5.210   3.489  0.3296 -0.2729  0.1257
41360SOL    HW134394   8.085   5.300   3.491 -0.0337 -0.3580 -1.0199
41360SOL    HW234395   8.155   5.200   3.402 -0.3063 -1.4367 -0.0390
41361SOL     OW34396   0.455   0.341   2.644  0.2879  0.2713  0.7797
41361SOL    HW134397   0.399   0.265   2.658 -0.6842  1.0443  1.2817
41361SOL    HW234398   0.413   0.410   2.695 -2.9639  3.1464 -4.7247
41362SOL     OW34399   1.271   6.369   5.680  0.1360  0.1801  0.2605
41362SOL    HW134400   1.219   6.289   5.679 -0.5471  0.5411  2.0704
41362SOL    HW234401   1.326   6.364   5.602 -1.6608 -0.8378 -0.9994
41363SOL     OW34402   3.520   8.159   6.973  0.1123 -0.3001 -0.1758
41363SOL    HW134403   3.490   8.231   6.916 -0.9843 -2.2469 -2.2007
41363SOL    HW234404   3.588   8.115   6.923  1.7160  0.0139  1.6002
41364SOL     OW34405   3.702   6.990   6.849  0.1519  0.1334  0.0254
41364SOL    HW134406   3.757   7.041   6.909  0.9271 -1.1594  0.4498
41364SOL    HW234407   3.719   6.899   6.872  0.6572 -0.4342 -2.3285
41365SOL     OW34408   8.329   2.129   5.659 -0.2426  0.4268  0.5808
41365SOL    HW134409   8.337   2.034   5.664  1.3663  0.5118  0.1464
41365SOL    HW234410   8.388   2.162   5.727 -0.6494  1.1304  0.6122
41366SOL     OW34411   1.746   9.906  11.571 -0.1507  0.3413 -0.2783
41366SOL    HW134412   1.761   9.870  11.658  0.5934  0.2178 -0.4435
41366SOL    HW234413   1.834   9.931  11.541 -0.7116  3.3636  0.2712
41367SOL     OW34414   6.849  12.258  12.871 -0.2857 -0.5789 -0.1814
41367SOL    HW134415   6.765  12.283  12.834 -1.1108 -0.9377  1.3297
41367SOL    HW234416   6.910  12.324  12.840 -0.8435 -1.0060 -2.3227
41368SOL     OW34417   8.624   9.680   9.720  0.0743 -0.5057  0.5852
41368SOL    HW134418   8.631   9.584   9.723  3.4534 -0.4863 -1.6721
41368SOL    HW234419   8.651   9.708   9.808 -0.3588 -1.5961  1.0839
41369SOL     OW34420  12.762   0.536   8.057 -0.7075 -0.1392  0.1408
41369SOL    HW134421  12.700   0.504   7.992 -1.9480  0.0450  1.2011
41369SOL    HW234422  12.840   0.482   8.043 -1.7637 -1.7076  0.0241
41370SOL     OW34423   6.445   8.447   9.493 -0.5822 -0.1155  0.0264
41370SOL    HW134424   6.455   8.414   9.582  0.2424  0.6213  0.2214
41370SOL    HW234425   6.524   8.499   9.477 -0.2872 -0.9595 -1.4559
41371SOL     OW34426   7.249   4.248   1.605  0.1704  0.2338 -0.7540
41371SOL    HW134427   7.299   4.301   1.543 -2.1552  0.8465 -2.2118
41371SOL    HW234428   7.166   4.230   1.561 -2.0001  1.4312  2.4347
41372SOL     OW34429  11.203   2.627   7.437  0.0856 -0.3427 -0.1464
41372SOL    HW134430  11.160   2.545   7.462  1.5079 -0.6891  1.3521
41372SOL    HW234431  11.135   2.694   7.448 -1.2905 -1.3373 -2.0315
41373SOL     OW34432   9.346   4.559   5.250  0.7115  0.5760  0.3584
41373SOL    HW134433   9.414   4.604   5.199 -1.2313  1.2716 -1.8135
41373SOL    HW234434   9.372   4.467   5.249  1.9145  0.9021  0.0850
41374SOL     OW34435   2.610  12.499   1.905 -0.7694 -0.1876 -0.4836
41374SOL    HW134436   2.622  12.488   1.999 -3.4035  3.2620  0.4595
41374SOL    HW234437   2.692  12.539   1.875 -0.2518 -0.4915  0.4971
41375SOL     OW34438  12.523   8.495   3.039 -0.1049  0.5556 -0.4166
41375SOL    HW134439  12.493   8.405   3.049 -0.0556  0.6488  0.6690
41375SOL    HW234440  12.617   8.491   3.055 -0.1989  0.8895  0.2360
41376SOL     OW34441   6.783   8.397   0.476  0.4636  0.6568  0.6982
41376SOL    HW134442   6.789   8.361   0.564  0.3198 -1.0509  0.0554
41376SOL    HW234443   6.874   8.404   0.446  0.4595 -0.7925  0.2492
41377SOL     OW34444   9.768  12.601   7.945  0.3779 -0.2799  0.4466
41377SOL    HW134445   9.756  12.606   7.850  0.7711 -0.4207  0.3876
41377SOL    HW234446   9.807  12.515   7.959 -0.1181 -0.4506  0.7838
41378SOL     OW34447   5.884   2.336   4.781 -0.5557 -0.1138 -1.0002
41378SOL    HW134448   5.963   2.319   4.730 -0.7417 -1.3526 -0.8977
41378SOL    HW234449   5.865   2.253   4.826 -1.4608  0.3969 -0.3951
41379SOL     OW34450   5.019   1.207   0.721 -0.0764 -0.4322 -0.0014
41379SOL    HW134451   5.086   1.166   0.777 -0.7781  0.8128  1.8256
41379SOL    HW234452   5.040   1.300   0.722 -0.3214 -0.3245 -1.5950
41380SOL     OW34453  12.511   5.067  11.831 -0.0999 -0.3924 -0.1818
41380SOL    HW134454  12.579   5.038  11.892  0.5629  1.7307  0.1660
41380SOL    HW234455  12.556   5.127  11.771 -1.6669  1.2631  0.2046
41381SOL     OW34456   3.484  11.828   3.041 -0.4891  0.3976 -0.4370
41381SOL    HW134457   3.560  11.824   2.982 -0.5807  1.9440 -0.7085
41381SOL    HW234458   3.518  11.867   3.121 -1.4619  3.7255 -1.4990
41382SOL     OW34459   3.760  12.078   2.125 -0.2109 -0.1646 -0.1166
41382SOL    HW134460   3.718  12.042   2.047 -2.0331  0.3705  0.5734
41382SOL    HW234461   3.739  12.015   2.194  1.1199 -0.4714  0.0254
41383SOL     OW34462   4.347  12.669   2.016 -0.0983 -0.0066  0.1399
41383SOL    HW134463   4.257  12.684   1.987 -0.0678  1.6012  0.7799
41383SOL    HW234464   4.340  12.644   2.108  0.0373 -1.3690 -0.2029
41384SOL     OW34465  11.283   2.185   0.947  0.3686  0.0919 -0.2872
41384SOL    HW134466  11.325   2.201   1.032  1.3995 -0.5414 -0.6607
41384SOL    HW234467  11.274   2.090   0.942 -1.1901  0.2172 -0.2032
41385SOL     OW34468  10.440   0.889   9.762  0.0394 -0.3797 -0.2725
41385SOL    HW134469  10.391   0.946   9.820 -0.1562 -1.0730  0.2593
41385SOL    HW234470  10.381   0.871   9.689  1.0241  2.2062 -1.8252
41386SOL     OW34471   9.721  10.035   0.892 -0.2140  0.3098 -0.5620
41386SOL    HW134472   9.736  10.125   0.861 -0.0578 -0.3505 -2.6058
41386SOL    HW234473   9.679   9.992   0.817 -0.1666 -1.3510  0.3357
41387SOL     OW34474   5.189   8.476   4.585 -0.0384  0.9038  0.0361
41387SOL    HW134475   5.235   8.414   4.641 -0.3828 -0.0426 -0.6911
41387SOL    HW234476   5.250   8.493   4.513 -0.7129 -0.2414 -0.8551
41388SOL     OW34477   8.673   4.671   2.400 -0.3813  0.2398  0.2184
41388SOL    HW134478   8.753   4.700   2.444 -2.1022  1.1958  3.0485
41388SOL    HW234479   8.652   4.587   2.441 -1.9572  1.0865  1.3044
41389SOL     OW34480  11.198   5.107  11.103  0.6373 -0.1758  0.3493
41389SOL    HW134481  11.229   5.144  11.021 -1.2170  2.4874  0.7607
41389SOL    HW234482  11.140   5.036  11.077  0.1902  0.5386 -0.6489
41390SOL     OW34483  10.362   7.569   7.180  0.3983  0.0420 -0.2986
41390SOL    HW134484  10.341   7.525   7.262  1.0676 -0.6469 -0.4770
41390SOL    HW234485  10.299   7.641   7.173 -0.5060 -0.6843  0.1725
41391SOL     OW34486  12.623   2.366   6.304  0.2163 -1.2992  0.2244
41391SOL    HW134487  12.642   2.459   6.306  1.8520 -1.5624 -1.0997
41391SOL    HW234488  12.704   2.324   6.336 -0.0997 -2.2907 -0.2270
41392SOL     OW34489   0.847   5.646   6.127  0.1412  0.3541 -0.0535
41392SOL    HW134490   0.898   5.685   6.055  0.9824 -0.3703  0.1320
41392SOL    HW234491   0.862   5.705   6.201  2.1536 -0.7514  0.4784
41393SOL     OW34492   5.209   1.760  11.609  0.1099 -0.0374 -0.4444
41393SOL    HW134493   5.132   1.706  11.629  1.0196 -0.4721  2.3300
41393SOL    HW234494   5.257   1.710  11.543 -0.9700 -0.7242 -0.7344
41394SOL     OW34495  10.119   0.304  10.389  0.2199 -0.4455  0.2274
41394SOL    HW134496  10.184   0.358  10.344 -0.4165  1.5168  1.5277
41394SOL    HW234497  10.146   0.305  10.481 -2.1197  1.2805  0.9933
41395SOL     OW34498   5.050   5.468   1.644 -0.1169 -0.9542  0.0581
41395SOL    HW134499   5.000   5.495   1.567 -0.6345 -0.8849  0.4143
41395SOL    HW234500   5.142   5.483   1.620 -0.3620  1.7904  0.4451
41396SOL     OW34501   3.046   9.538   4.383 -0.0522 -0.2323 -0.2096
41396SOL    HW134502   3.049   9.562   4.475  1.4345  0.6038 -0.4562
41396SOL    HW234503   3.016   9.617   4.338 -0.8502 -0.6580 -0.4588
41397SOL     OW34504  11.074   5.905   9.740  0.3636  0.0174  0.2119
41397SOL    HW134505  11.163   5.880   9.767  0.1434  0.0142  0.9642
41397SOL    HW234506  11.051   5.977   9.798  0.4959  1.1427 -1.0779
41398SOL     OW34507  11.732   0.581   4.028  0.4928 -0.3058 -0.2240
41398SOL    HW134508  11.726   0.644   4.099  0.7048 -1.3623  0.7583
41398SOL    HW234509  11.644   0.542   4.023  0.3631  0.0508 -0.8233
41399SOL     OW34510   1.132   3.910   3.641  0.4031 -0.2676 -0.4341
41399SOL    HW134511   1.171   3.823   3.628 -0.8498 -0.8916 -0.1275
41399SOL    HW234512   1.198   3.958   3.691  0.3221 -1.6983  1.1352
41400SOL     OW34513   9.788   1.345   9.478 -0.0121  0.5507  0.4985
41400SOL    HW134514   9.871   1.393   9.471  0.0594  0.2661 -1.0836
41400SOL    HW234515   9.733   1.384   9.411 -0.9780  0.3563  1.1616
41401SOL     OW34516   0.187   8.171   8.163  0.0480  0.5394  0.2157
41401SOL    HW134517   0.115   8.204   8.218 -0.2623 -2.0964  1.5633
41401SOL    HW234518   0.266   8.203   8.206 -0.2529  0.1916  1.0488
41402SOL     OW34519  12.158   4.044   4.896  0.0168 -0.1743  0.0685
41402SOL    HW134520  12.244   4.087   4.898  0.9342 -1.8940 -0.5886
41402SOL    HW234521  12.164   3.976   4.962 -1.4406  0.6753  1.1273
41403SOL     OW34522   4.888   3.208   8.634  0.6161  0.4918  0.0082
41403SOL    HW134523   4.919   3.265   8.704 -0.3143 -0.6348  1.3840
41403SOL    HW234524   4.945   3.131   8.639 -0.1455 -0.0695  0.2700
41404SOL     OW34525   6.653   8.671   7.728  0.4826  0.1960  0.0339
41404SOL    HW134526   6.638   8.584   7.765  0.2615  1.1201  2.3033
41404SOL    HW234527   6.704   8.717   7.795  1.3629  1.5449 -1.4928
41405SOL     OW34528   6.478   8.730   0.572 -0.6962  0.3346 -0.4783
41405SOL    HW134529   6.427   8.650   0.562 -0.8591  0.5841 -1.8926
41405SOL    HW234530   6.559   8.712   0.525 -0.1268  0.5051  0.4144
41406SOL     OW34531   3.223   6.930  10.461 -0.2144  0.6441  0.1499
41406SOL    HW134532   3.161   6.989  10.418  0.3573  2.2078  1.3737
41406SOL    HW234533   3.167   6.867  10.506 -0.9228  1.4673  0.4751
41407SOL     OW34534   6.333  10.091  11.097 -0.3406  0.1621  0.1075
41407SOL    HW134535   6.397  10.067  11.030 -0.4711  0.1447 -0.0124
41407SOL    HW234536   6.250  10.099  11.049 -0.4884 -0.1212  0.3143
41408SOL     OW34537   4.405   8.465   1.353 -0.1271  0.1927 -0.0875
41408SOL    HW134538   4.500   8.477   1.353  0.0177 -0.8324 -1.0739
41408SOL    HW234539   4.387   8.418   1.434  0.3906 -0.7755 -0.5085
41409SOL     OW34540   9.383   0.972   7.522  0.0504 -0.3493 -0.2897
41409SOL    HW134541   9.359   0.879   7.517  0.2292 -0.3746 -0.6592
41409SOL    HW234542   9.473   0.975   7.490 -0.7507  0.2924 -2.6148
41410SOL     OW34543   6.326   9.380   5.630 -0.0553  0.2079 -0.0049
41410SOL    HW134544   6.398   9.371   5.691  0.1612 -0.4607 -0.3475
41410SOL    HW234545   6.267   9.307   5.650  0.2111 -0.2538 -0.8311
41411SOL     OW34546  12.975   4.294   7.284  0.1258 -0.4677  0.0375
41411SOL    HW134547  12.950   4.242   7.207  0.3283  2.6725 -2.3191
41411SOL    HW234548  12.893   4.311   7.329 -0.6149  0.8981 -1.7300
41412SOL     OW34549   3.395   1.097   1.334  0.3214  0.2041  0.1831
41412SOL    HW134550   3.402   1.012   1.378  2.2999  1.1581  1.9054
41412SOL    HW234551   3.462   1.094   1.265 -0.5306 -0.0997 -0.6432
41413SOL     OW34552   4.320   1.692   9.984  0.0976  0.2811  0.2547
41413SOL    HW134553   4.375   1.686   9.906  1.6765  0.7565  1.2859
41413SOL    HW234554   4.296   1.784   9.989 -0.3727  0.1688  0.0960
41414SOL     OW34555  12.717   5.748   3.191  0.4089  0.2947  0.1203
41414SOL    HW134556  12.762   5.742   3.275  1.4195  3.0329 -0.1024
41414SOL    HW234557  12.784   5.779   3.130 -1.1206  1.9564 -0.8279
41415SOL     OW34558   3.701   7.444   7.562 -0.2724  0.1709  0.0826
41415SOL    HW134559   3.632   7.507   7.584 -0.5740 -0.0256 -0.2887
41415SOL    HW234560   3.768   7.496   7.517 -0.5771  0.2033 -0.3346
41416SOL     OW34561   5.567   6.724   9.867  0.1089 -0.1676  0.0919
41416SOL    HW134562   5.508   6.655   9.834  1.0873 -0.4044 -1.2626
41416SOL    HW234563   5.579   6.703   9.959 -0.0090 -1.5396 -0.1783
41417SOL     OW34564   7.746  11.134   8.911 -0.4931 -0.3099 -0.7665
41417SOL    HW134565   7.680  11.091   8.856 -0.9567 -0.0234 -0.4333
41417SOL    HW234566   7.703  11.211   8.947  0.2318  0.2600 -1.0774
41418SOL     OW34567   0.637   9.119   9.053  0.6276  0.1309 -0.0103
41418SOL    HW134568   0.545   9.098   9.038  0.9837 -2.2717  0.7493
41418SOL    HW234569   0.674   9.129   8.965  0.3910 -2.7785 -0.5473
41419SOL     OW34570   1.266   8.958  12.014 -0.1901 -0.3364  0.1900
41419SOL    HW134571   1.321   8.953  11.937  0.4233 -0.2411  0.6116
41419SOL    HW234572   1.179   8.932  11.984 -0.2601  0.9835 -0.8311
41420SOL     OW34573  11.396   0.063   2.583  0.3263 -0.1549 -0.2436
41420SOL    HW134574  11.331   0.125   2.617  0.2208 -0.5834  0.3486
41420SOL    HW234575  11.468   0.118   2.553  0.4900  0.2336  0.8185
41421SOL     OW34576  10.567   6.009   4.177 -0.1329  0.1224  0.3318
41421SOL    HW134577  10.633   5.970   4.120 -0.0530  1.0806 -0.2486
41421SOL    HW234578  10.492   5.950   4.170  0.6751 -1.0281  1.0719
41422SOL     OW34579   7.016  10.379  12.637 -0.5732 -0.2782 -0.4714
41422SOL    HW134580   7.077  10.358  12.566 -0.1869 -1.4926  0.1831
41422SOL    HW234581   6.999  10.473  12.628 -0.3359 -0.3631 -2.0019
41423SOL     OW34582   9.889   7.351   1.675  0.1137  0.7280 -0.2604
41423SOL    HW134583   9.834   7.363   1.753 -0.2868 -0.2399 -0.3804
41423SOL    HW234584   9.859   7.269   1.637 -0.7770  1.9382 -2.3356
41424SOL     OW34585   7.042   9.250   3.721 -0.1425 -0.8428  0.0555
41424SOL    HW134586   6.984   9.315   3.759  1.7695  1.5441 -0.8857
41424SOL    HW234587   7.101   9.225   3.793  3.5083  3.7052 -0.9074
41425SOL     OW34588  11.375   8.152   0.794 -0.0087  0.2098  0.2331
41425SOL    HW134589  11.314   8.084   0.824 -2.1250  0.5211 -2.9607
41425SOL    HW234590  11.459   8.126   0.832 -0.8685 -3.7108 -0.0895
41426SOL     OW34591   5.572   9.765   0.832  0.2306 -0.1769 -0.3323
41426SOL    HW134592   5.516   9.768   0.754 -1.4419  2.0498  0.8176
41426SOL    HW234593   5.612   9.851   0.836 -0.5414  0.1569  1.7645
41427SOL     OW34594  10.980  12.308   1.758  0.3382  0.0774 -0.6842
41427SOL    HW134595  11.053  12.346   1.806 -0.5652 -0.5699  1.3036
41427SOL    HW234596  11.015  12.229   1.718  0.5863 -0.5998  0.8264
41428SOL     OW34597   7.621   9.939   7.520 -0.8305  0.5051  0.1067
41428SOL    HW134598   7.645  10.031   7.522 -1.5399  0.6810  1.5506
41428SOL    HW234599   7.531   9.937   7.488 -0.4045  0.1753 -1.1742
41429SOL     OW34600   5.402   3.439   9.681 -0.2017 -0.1830 -0.2327
41429SOL    HW134601   5.319   3.473   9.647 -0.7735 -0.1909  1.0893
41429SOL    HW234602   5.400   3.346   9.659 -0.6924 -0.2470  0.0734
41430SOL     OW34603   3.337   4.223   9.252  0.6197 -0.2497 -0.5383
41430SOL    HW134604   3.367   4.269   9.331  0.6515 -1.7142  0.3517
41430SOL    HW234605   3.372   4.274   9.179 -0.8651  2.1417  0.3142
41431SOL     OW34606   1.448   7.555   9.179  0.5348  0.2716 -0.1952
41431SOL    HW134607   1.358   7.532   9.202  0.0375  0.3933 -1.8894
41431SOL    HW234608   1.483   7.477   9.137 -0.4531  1.6109 -3.9834
41432SOL     OW34609   7.519  11.954   9.807  0.4956  0.2625 -0.3601
41432SOL    HW134610   7.543  11.925   9.895 -0.7214 -0.6406 -0.3028
41432SOL    HW234611   7.603  11.966   9.762  1.1371  0.6476  0.8718
41433SOL     OW34612   3.031  11.635  12.638  0.1965  0.3445  0.0177
41433SOL    HW134613   3.099  11.592  12.588  0.7465  0.3753  0.7243
41433SOL    HW234614   2.951  11.586  12.618  0.6157 -0.3357 -0.0045
41434SOL     OW34615  12.130  11.896   1.501 -0.0239  0.2983 -0.0808
41434SOL    HW134616  12.132  11.887   1.406 -0.6623 -0.0615 -0.0745
41434SOL    HW234617  12.177  11.976   1.520  1.3929 -0.3837 -0.5885
41435SOL     OW34618   2.306   9.860   0.464  0.0984 -0.1325 -0.4605
41435SOL    HW134619   2.220   9.832   0.493 -0.2084 -0.3976 -1.5728
41435SOL    HW234620   2.366   9.825   0.530 -0.4670 -1.6409 -0.6906
41436SOL     OW34621   9.830   6.787   6.053 -0.5505  0.3066 -0.4777
41436SOL    HW134622   9.832   6.694   6.074  0.6399  0.2937 -0.5920
41436SOL    HW234623   9.918   6.807   6.020 -0.7096  1.5218 -0.2383
41437SOL     OW34624   5.481   5.637   2.166 -0.8100 -0.1720  0.1974
41437SOL    HW134625   5.504   5.724   2.136 -2.2458 -0.0084 -0.5178
41437SOL    HW234626   5.465   5.648   2.260 -0.2775  0.1796  0.2482
41438SOL     OW34627   4.936   9.869  11.981 -0.4736 -0.0103  0.3630
41438SOL    HW134628   4.859   9.822  12.013 -0.8771  2.7661  4.1392
41438SOL    HW234629   4.900   9.947  11.938  0.2543 -0.8168 -1.8163
41439SOL     OW34630   9.448   2.509   0.242 -0.1046 -0.2068  0.0634
41439SOL    HW134631   9.537   2.490   0.273  0.0040 -1.0187 -0.7159
41439SOL    HW234632   9.458   2.526   0.149 -0.7100  0.1825  0.0664
41440SOL     OW34633   6.222   9.769   6.902  0.2948  0.4090 -0.0896
41440SOL    HW134634   6.167   9.716   6.844 -1.1111  1.6691  0.0448
41440SOL    HW234635   6.303   9.719   6.910 -0.2443 -0.7614 -1.5287
41441SOL     OW34636  10.023   0.673  11.608  0.2350  0.1273  0.0498
41441SOL    HW134637  10.081   0.744  11.636 -1.3842  1.8933 -0.8463
41441SOL    HW234638  10.063   0.641  11.527  1.5573 -0.7655  1.0153
41442SOL     OW34639   4.931   7.193  10.140  0.5538  0.1598 -0.1123
41442SOL    HW134640   5.003   7.159  10.192  0.3257 -1.4445 -0.7634
41442SOL    HW234641   4.971   7.219  10.057  0.4743 -0.2875 -0.2972
41443SOL     OW34642   9.927   7.945   3.948  0.2407 -0.2224  0.0053
41443SOL    HW134643   9.846   7.935   3.998  2.3169 -3.9700  3.2176
41443SOL    HW234644   9.950   7.855   3.922  2.8438  0.8394 -1.7635
41444SOL     OW34645   2.683   3.450   4.144  0.3208  0.0133 -0.0062
41444SOL    HW134646   2.603   3.446   4.196  0.7202  0.4611  0.6487
41444SOL    HW234647   2.743   3.387   4.186  0.6436  0.3779  0.0831
41445SOL     OW34648   4.921   3.132   1.769  0.2817  0.1919  0.5264
41445SOL    HW134649   5.002   3.108   1.723 -0.9610 -2.4084 -0.5115
41445SOL    HW234650   4.864   3.167   1.700  0.3852  1.7176  1.1906
41446SOL     OW34651   6.330   9.766  10.844 -0.0696  0.4021  0.3606
41446SOL    HW134652   6.296   9.678  10.828  1.9740 -0.1445 -1.3668
41446SOL    HW234653   6.340   9.772  10.939 -0.1720 -1.2353  0.4889
41447SOL     OW34654   9.962   5.327   7.237  0.0021  0.7981 -0.1006
41447SOL    HW134655   9.919   5.325   7.152  1.1761 -2.2159 -0.7501
41447SOL    HW234656   9.910   5.389   7.289 -0.8572  2.5872 -2.8795
41448SOL     OW34657  11.616   4.456   3.305  0.2397 -0.2735  0.2225
41448SOL    HW134658  11.603   4.451   3.210 -1.5336 -0.8739  0.4484
41448SOL    HW234659  11.703   4.419   3.320  1.2525  1.3529 -1.2918
41449SOL     OW34660   3.115   0.969   7.723  0.6745 -0.7724 -0.5130
41449SOL    HW134661   3.076   0.942   7.639 -0.7547  0.3346 -0.2522
41449SOL    HW234662   3.187   0.908   7.737  0.1642 -1.7564 -1.9499
41450SOL     OW34663   6.956  10.882   7.624  0.6447  0.0439 -0.5906
41450SOL    HW134664   7.007  10.922   7.694  1.1492 -4.3757  1.9362
41450SOL    HW234665   6.927  10.955   7.571  1.3896  3.6608  3.4294
41451SOL     OW34666   7.714   9.577   7.117  0.2045 -0.3904 -0.1626
41451SOL    HW134667   7.633   9.605   7.075 -0.3939 -0.9907  0.5485
41451SOL    HW234668   7.689   9.498   7.166  1.5794 -1.5012 -1.1937
41452SOL     OW34669   2.340  11.697   2.119  0.3199  0.4908  0.1519
41452SOL    HW134670   2.295  11.763   2.067  0.4962  2.1411  1.9865
41452SOL    HW234671   2.418  11.742   2.151  0.8381 -0.8601  0.8266
41453SOL     OW34672  11.025  10.258   1.465  0.0385 -0.4308  0.1011
41453SOL    HW134673  10.937  10.220   1.467  1.1118 -3.0985 -0.1708
41453SOL    HW234674  11.044  10.280   1.556  0.1929 -2.6224  0.6342
41454SOL     OW34675   3.961   8.074   5.498 -0.4232 -0.4048 -0.4652
41454SOL    HW134676   4.020   8.009   5.460 -0.3962 -1.2469  0.9268
41454SOL    HW234677   4.004   8.101   5.579 -1.3985 -0.1851 -0.0078
41455SOL     OW34678   0.170   2.955   1.735  0.5356 -0.1135  0.2013
41455SOL    HW134679   0.225   2.952   1.814  1.5980 -2.2687 -0.5353
41455SOL    HW234680   0.175   2.867   1.699 -0.0715  0.7388 -2.1886
41456SOL     OW34681  11.715   9.170   7.099  0.8462  0.3125  0.1882
41456SOL    HW134682  11.781   9.105   7.073  0.4246 -0.3955  0.8521
41456SOL    HW234683  11.696   9.149   7.191  0.6630  1.3457  0.3955
41457SOL     OW34684   8.264   0.087   5.552  0.1704 -0.3642 -0.6999
41457SOL    HW134685   8.268   0.173   5.511 -1.0574  1.6948  3.0022
41457SOL    HW234686   8.339   0.086   5.612  0.1471 -1.9308 -0.6518
41458SOL     OW34687   7.276  11.015   1.713 -0.3162  0.0639  0.1497
41458SOL    HW134688   7.224  11.007   1.633  0.1899  0.7612 -0.2611
41458SOL    HW234689   7.241  11.093   1.756  0.1134  0.3007  0.0756
41459SOL     OW34690  11.746  10.106  10.661 -0.2540 -0.9893  0.3681
41459SOL    HW134691  11.839  10.116  10.640 -0.6418 -1.1338 -1.5995
41459SOL    HW234692  11.725  10.016  10.636 -1.2290 -0.5318 -0.5151
41460SOL     OW34693   2.779   0.593   9.817 -0.1177 -0.3686  0.1490
41460SOL    HW134694   2.739   0.535   9.882  0.4818  0.5859  1.4007
41460SOL    HW234695   2.864   0.553   9.799  0.3915  0.2045  1.1810
41461SOL     OW34696   9.829   8.781   0.552  0.3364  0.1481 -0.2689
41461SOL    HW134697   9.783   8.797   0.635  0.2234  0.7213 -0.4383
41461SOL    HW234698   9.839   8.686   0.549  1.2931  0.1918  0.9038
41462SOL     OW34699   5.450   1.483   5.985 -0.7637  0.5015 -0.1088
41462SOL    HW134700   5.463   1.411   6.047 -1.0353 -2.1214 -2.8487
41462SOL    HW234701   5.488   1.560   6.028  2.4035 -1.8721  1.7822
41463SOL     OW34702   6.281  10.902   7.683  0.3001 -0.1491  0.0022
41463SOL    HW134703   6.221  10.869   7.750 -0.7473  0.2963 -0.6964
41463SOL    HW234704   6.353  10.942   7.733 -1.2925  1.7315  0.9243
41464SOL     OW34705   9.952   6.795   9.377 -0.7061  0.0986  0.2142
41464SOL    HW134706   9.954   6.799   9.282  0.6990 -0.4264  0.2015
41464SOL    HW234707  10.043   6.809   9.404 -1.3094  1.7982  1.5539
41465SOL     OW34708   3.926   1.105   4.803  0.1681 -0.0878 -0.6515
41465SOL    HW134709   3.957   1.023   4.765 -0.9356 -0.8881  0.1230
41465SOL    HW234710   3.936   1.092   4.897  1.7213  1.4026 -0.5563
41466SOL     OW34711  10.890   6.961   9.467 -0.3843  0.1770  0.0392
41466SOL    HW134712  10.823   7.029   9.473 -0.4545  0.0541  0.6415
41466SOL    HW234713  10.864   6.909   9.391  0.5631  1.7788 -1.4589
41467SOL     OW34714   9.403  10.452  12.591  0.1750 -0.0338 -0.0788
41467SOL    HW134715   9.459  10.513  12.639  0.5058  0.4029 -0.9985
41467SOL    HW234716   9.458  10.420  12.519  0.2371 -1.9453  0.7502
41468SOL     OW34717   3.440   6.622  11.479  0.4839  0.2440 -0.1990
41468SOL    HW134718   3.347   6.601  11.489  0.6884 -0.6724 -0.1360
41468SOL    HW234719   3.486   6.548  11.519  1.2441  0.1662 -1.1755
41469SOL     OW34720   6.313   0.397   1.325  0.8835  0.4069  0.0313
41469SOL    HW134721   6.386   0.430   1.273  2.5301 -1.4230  1.0488
41469SOL    HW234722   6.345   0.315   1.363 -1.7674 -0.5606  0.4138
41470SOL     OW34723   5.105   6.689   8.205 -0.1370 -0.1546 -0.0916
41470SOL    HW134724   5.074   6.734   8.126 -1.6752 -1.2856 -0.1758
41470SOL    HW234725   5.101   6.756   8.273  2.5649  1.2585 -1.1706
41471SOL     OW34726   9.356   7.067   1.779  0.0142  0.0443 -0.5118
41471SOL    HW134727   9.314   7.001   1.835 -1.8517  2.1808  0.8274
41471SOL    HW234728   9.351   7.030   1.691 -1.3488 -1.4377  0.1174
41472SOL     OW34729   7.510   7.578   0.438 -0.0324  0.5439 -0.6842
41472SOL    HW134730   7.532   7.508   0.499  2.2310  1.4148 -0.4281
41472SOL    HW234731   7.523   7.539   0.351 -0.9998  0.0058 -0.6051
41473SOL     OW34732  12.520   2.616   8.037  0.0752 -0.8626  0.5858
41473SOL    HW134733  12.610   2.638   8.015 -0.2054 -0.9490 -0.7755
41473SOL    HW234734  12.523   2.522   8.057  0.1271 -1.1347 -0.5894
41474SOL     OW34735   7.302  10.875   6.936  0.1621 -1.1700  0.2738
41474SOL    HW134736   7.309  10.879   7.032 -0.6615  0.1961  0.3115
41474SOL    HW234737   7.272  10.963   6.911 -0.3091 -1.7199 -1.1787
41475SOL     OW34738   9.433  12.698  11.743  0.8451  0.5939 -0.3823
41475SOL    HW134739   9.469  12.651  11.818 -0.2650  0.1260 -0.1202
41475SOL    HW234740   9.370  12.759  11.782  1.4138  1.4837 -0.8170
41476SOL     OW34741   0.173   1.733   9.195 -0.4520 -0.1099 -0.0026
41476SOL    HW134742   0.267   1.738   9.176 -0.4884 -0.0224 -0.1691
41476SOL    HW234743   0.154   1.639   9.195 -0.0434 -0.2184  1.6929
41477SOL     OW34744   7.459   7.819   4.982  0.3296 -0.1333  0.3028
41477SOL    HW134745   7.552   7.836   4.968  0.4546 -0.7595  0.3553
41477SOL    HW234746   7.454   7.783   5.071  0.1032 -0.5824  0.1117
41478SOL     OW34747   1.721   6.118  11.485  0.5019  0.1365 -0.4159
41478SOL    HW134748   1.774   6.152  11.558  0.8464 -1.6784  0.2364
41478SOL    HW234749   1.650   6.070  11.528 -0.0989  0.2159 -1.2962
41479SOL     OW34750  11.485   9.158   2.314 -0.1756 -0.8466 -0.0695
41479SOL    HW134751  11.558   9.119   2.364  0.9620 -0.7075 -1.5535
41479SOL    HW234752  11.525   9.231   2.268 -1.5334 -0.0815 -0.0709
41480SOL     OW34753   0.657  10.023   6.721 -0.0649 -0.2139 -0.2389
41480SOL    HW134754   0.642   9.938   6.763  2.0556 -0.5042  0.0779
41480SOL    HW234755   0.670  10.084   6.793  0.5441 -0.0801 -0.4510
41481SOL     OW34756   4.589   2.473  10.642 -0.2320 -0.1311  0.7031
41481SOL    HW134757   4.657   2.501  10.704 -2.0862  0.0622  2.7686
41481SOL    HW234758   4.571   2.551  10.591  1.7828 -0.4638 -0.6253
41482SOL     OW34759   0.683   1.554   0.451 -0.1904 -0.8367 -0.7575
41482SOL    HW134760   0.754   1.587   0.505 -2.1637  1.6428  0.5211
41482SOL    HW234761   0.709   1.574   0.361  0.3911  0.7611 -0.2578
41483SOL     OW34762  12.236   0.062  11.009  0.4265 -0.4060 -0.3049
41483SOL    HW134763  12.185   0.136  10.975  0.8765  0.6731  1.2162
41483SOL    HW234764  12.318   0.065  10.959 -0.2731 -1.0314 -1.5147
41484SOL     OW34765  12.864   2.930   1.702  0.0667  0.2595  0.2501
41484SOL    HW134766  12.958   2.945   1.687  0.0767  0.1181  0.1698
41484SOL    HW234767  12.823   3.014   1.682  0.0065 -0.0829 -1.1921
41485SOL     OW34768   8.155  10.529   1.577  0.1917 -0.1109 -0.2101
41485SOL    HW134769   8.168  10.617   1.612 -2.4373  0.6868 -1.0081
41485SOL    HW234770   8.191  10.532   1.488  1.5529 -0.3758  0.3052
41486SOL     OW34771   7.818   0.494  10.626 -0.4028  0.2750 -0.0783
41486SOL    HW134772   7.755   0.536  10.567 -0.6236 -1.0303 -0.8141
41486SOL    HW234773   7.889   0.464  10.568  1.1128  2.0285  0.7753
41487SOL     OW34774  10.577  11.489   4.652 -0.1154 -0.2013 -0.0659
41487SOL    HW134775  10.651  11.542   4.622 -0.6267  0.8226  0.4181
41487SOL    HW234776  10.542  11.537   4.728  0.0074 -1.7543  1.0309
41488SOL     OW34777   4.272   3.609   9.152 -0.1950 -0.0128  0.3281
41488SOL    HW134778   4.304   3.610   9.062  0.5668 -1.6099  0.5572
41488SOL    HW234779   4.259   3.702   9.173  0.8343  0.4682 -0.9866
41489SOL     OW34780   4.911  10.045   0.378  0.4289 -0.4822  0.3075
41489SOL    HW134781   4.891   9.953   0.395  3.0196 -1.3779 -0.9484
41489SOL    HW234782   4.931  10.048   0.284 -0.8530  1.6647  0.0401
41490SOL     OW34783   2.784   7.626   2.900 -0.5890  0.1593 -0.9191
41490SOL    HW134784   2.808   7.653   2.988 -0.4545 -1.1404 -0.5421
41490SOL    HW234785   2.780   7.531   2.904 -0.0298  0.0479 -2.4656
41491SOL     OW34786  11.220  11.061   6.609 -0.1964 -0.1956 -0.4614
41491SOL    HW134787  11.198  11.154   6.612  0.1962 -0.1123 -0.1721
41491SOL    HW234788  11.143  11.018   6.645 -0.4755  0.0018 -0.8172
41492SOL     OW34789   2.318   3.366   3.830  0.2020  0.7491 -0.3482
41492SOL    HW134790   2.292   3.386   3.920 -1.3240 -1.1574 -0.2813
41492SOL    HW234791   2.273   3.432   3.777  0.5963  1.4960  0.2350
41493SOL     OW34792   4.764   1.287   1.615 -0.2005  0.1859  0.4569
41493SOL    HW134793   4.708   1.332   1.678  0.0237  0.5256  0.4131
41493SOL    HW234794   4.817   1.227   1.668  0.3943  0.8827  0.6630
41494SOL     OW34795  11.703   5.016   5.504  0.4072 -0.2033  0.4403
41494SOL    HW134796  11.700   4.949   5.572 -0.5988 -1.3295 -0.6589
41494SOL    HW234797  11.771   4.986   5.443  1.6390  1.0391  1.1385
41495SOL     OW34798   8.828   3.471   4.663  0.0040 -0.3937  0.2650
41495SOL    HW134799   8.785   3.430   4.588  1.4008 -2.0699  0.2984
41495SOL    HW234800   8.819   3.565   4.648 -1.1487 -0.6940 -1.1582
41496SOL     OW34801   1.510   4.745   5.746  0.1579 -0.3999 -0.0848
41496SOL    HW134802   1.456   4.779   5.675 -0.6612 -2.3622 -0.4402
41496SOL    HW234803   1.459   4.762   5.825  0.0256 -0.2978 -0.1922
41497SOL     OW34804   1.009   6.405   2.294  0.3257  0.6144 -0.3864
41497SOL    HW134805   1.032   6.351   2.369 -0.3230  0.1280 -0.5324
41497SOL    HW234806   1.087   6.458   2.279  0.1093  1.4820  1.2775
41498SOL     OW34807  11.889  11.827  11.248 -0.2673 -0.1756 -0.3392
41498SOL    HW134808  11.818  11.830  11.312 -0.7753  0.9651 -0.9133
41498SOL    HW234809  11.876  11.746  11.201 -0.9998 -0.1360 -0.2179
41499SOL     OW34810  11.733   9.686   3.956 -0.0027  0.1286 -0.0004
41499SOL    HW134811  11.782   9.735   3.891  0.4693  1.0553  1.0194
41499SOL    HW234812  11.667   9.747   3.988  0.0549 -0.1635  0.6950
41500SOL     OW34813   1.406   7.507  12.009 -0.4217 -0.1826 -0.1157
41500SOL    HW134814   1.383   7.566  12.081 -0.3550  0.7676 -0.8559
41500SOL    HW234815   1.459   7.560  11.950  0.1580 -1.1693 -0.5007
41501SOL     OW34816   0.561   4.470   7.148  0.3831  0.5292 -0.1659
41501SOL    HW134817   0.606   4.454   7.231 -0.7723 -0.3795  0.3017
41501SOL    HW234818   0.481   4.517   7.172 -0.1222 -0.0341 -0.7195
41502SOL     OW34819   2.858   0.972   2.658 -0.6713  0.5097  0.0207
41502SOL    HW134820   2.860   0.892   2.605 -0.4414  0.7378 -0.3124
41502SOL    HW234821   2.930   0.961   2.721 -0.1001  0.8329 -0.5716
41503SOL     OW34822   4.464   9.663   6.199 -0.8518 -0.2716  0.0046
41503SOL    HW134823   4.442   9.679   6.108  0.4588 -0.2456 -0.3224
41503SOL    HW234824   4.497   9.573   6.201  1.7216  0.5937 -0.0896
41504SOL     OW34825   6.980   2.049   8.367  0.2628  0.0275  0.0194
41504SOL    HW134826   7.032   2.101   8.305  0.9694 -0.7396 -0.0523
41504SOL    HW234827   6.989   1.959   8.335  1.6798 -0.5676  1.9271
41505SOL     OW34828   0.170  11.631  11.649 -0.4677 -0.1511  0.1303
41505SOL    HW134829   0.176  11.709  11.705  0.0688  1.0147 -1.4672
41505SOL    HW234830   0.078  11.605  11.654 -0.5752  0.3479  0.9877
41506SOL     OW34831   4.908  12.475   9.333 -0.1305 -0.2656 -0.3310
41506SOL    HW134832   4.866  12.532   9.268  1.4202  0.8174 -0.4384
41506SOL    HW234833   4.858  12.489   9.413 -0.1699  0.7817 -0.5248
41507SOL     OW34834   0.409   5.924   6.383 -0.1522  0.0443  0.3766
41507SOL    HW134835   0.328   5.968   6.357 -1.2809 -2.0771  0.0917
41507SOL    HW234836   0.385   5.873   6.460  1.0054 -0.3887  0.4732
41508SOL     OW34837   0.267   5.159  12.002 -0.7674 -0.1412 -0.2659
41508SOL    HW134838   0.183   5.186  11.964 -0.9807  1.4703  1.1978
41508SOL    HW234839   0.332   5.213  11.956 -0.9627  1.3429  1.0960
41509SOL     OW34840   4.254   5.480   1.654 -0.1683  0.0363 -0.2483
41509SOL    HW134841   4.285   5.430   1.578  0.7883  0.1795  0.0359
41509SOL    HW234842   4.306   5.447   1.727 -0.9833  0.0078  0.3269
41510SOL     OW34843   7.460   0.945  12.603 -0.1705 -0.3445 -0.1919
41510SOL    HW134844   7.526   1.014  12.612 -0.1953 -0.2094 -0.9406
41510SOL    HW234845   7.456   0.903  12.689 -2.5586  2.7002  1.3519
41511SOL     OW34846  11.770  12.400  12.518 -0.5030  0.3494  0.1292
41511SOL    HW134847  11.785  12.444  12.434 -0.4932  0.1984  0.0520
41511SOL    HW234848  11.768  12.307  12.496  0.1674  0.2694  0.3984
41512SOL     OW34849  10.352   3.204  11.304 -0.1422 -0.4926 -0.5567
41512SOL    HW134850  10.266   3.186  11.266 -0.8040  0.6870  0.2913
41512SOL    HW234851  10.353   3.152  11.385  1.1347 -2.7473 -1.9019
41513SOL     OW34852  10.442   5.309   4.241 -0.1867  0.0705  0.1681
41513SOL    HW134853  10.386   5.385   4.257 -1.2281 -0.7362  0.4293
41513SOL    HW234854  10.494   5.333   4.164  0.7616  1.7225  1.2618
41514SOL     OW34855   9.210   9.948  12.604 -0.0196 -0.4450  0.3633
41514SOL    HW134856   9.164  10.012  12.550  0.9076 -0.3780 -0.3828
41514SOL    HW234857   9.213   9.987  12.691  1.1196  0.8680 -0.2290
41515SOL     OW34858  10.292   4.906   5.881  0.4716 -0.1969 -0.2021
41515SOL    HW134859  10.317   4.855   5.958 -0.3396 -0.0188  0.1909
41515SOL    HW234860  10.198   4.920   5.891  0.7901  2.0529  0.1335
41516SOL     OW34861   4.375   5.324   3.806  0.6823 -0.2660  0.8920
41516SOL    HW134862   4.423   5.291   3.730  0.1287  2.1949 -0.6305
41516SOL    HW234863   4.433   5.389   3.846  0.4113 -0.5513  1.7856
41517SOL     OW34864   8.921  11.569   1.404 -0.8884 -0.1558  0.4497
41517SOL    HW134865   8.874  11.487   1.420  0.3167 -1.2013 -1.0811
41517SOL    HW234866   8.958  11.558   1.316 -0.6221  2.0108  0.2477
41518SOL     OW34867   8.755   4.115   0.335 -0.1515 -0.7544 -0.2724
41518SOL    HW134868   8.807   4.140   0.259  0.1129 -1.9918 -0.5243
41518SOL    HW234869   8.671   4.157   0.321  0.7390  1.2672  0.1344
41519SOL     OW34870   6.920   9.125   5.861 -0.3508 -0.1100  0.5089
41519SOL    HW134871   6.827   9.140   5.846 -0.1038  0.0565 -1.0925
41519SOL    HW234872   6.958   9.124   5.773  1.1843 -0.0041  1.1384
41520SOL     OW34873   3.507   8.141   4.012  0.2463  0.5134  0.3054
41520SOL    HW134874   3.486   8.158   3.920 -0.3649 -0.7702  0.1761
41520SOL    HW234875   3.589   8.092   4.009  0.2498  0.5119  0.4393
41521SOL     OW34876   3.452   7.592   5.328  0.4258  0.0917 -0.2788
41521SOL    HW134877   3.542   7.563   5.337  0.3051 -0.4492 -0.7101
41521SOL    HW234878   3.446   7.672   5.381  0.7162 -0.7917  1.1386
41522SOL     OW34879   9.951  11.129   4.091  0.7299 -0.1032  0.1986
41522SOL    HW134880   9.970  11.041   4.122  0.1083 -0.2838  0.0633
41522SOL    HW234881  10.014  11.143   4.020 -0.3502 -1.1384 -1.0149
41523SOL     OW34882   3.921   4.999   8.418 -0.2682  0.1558  0.4028
41523SOL    HW134883   3.861   5.048   8.361  0.0272  0.2959  0.2103
41523SOL    HW234884   3.927   5.052   8.497  0.6282  0.8152 -0.0951
41524SOL     OW34885   2.475   7.623   0.355  0.0665  0.2419  0.1198
41524SOL    HW134886   2.474   7.583   0.442  2.1825 -1.2378 -0.4622
41524SOL    HW234887   2.541   7.574   0.307 -1.5371  0.5413 -2.5881
41525SOL     OW34888   4.268  11.847   5.770  0.3190 -0.3982 -0.0484
41525SOL    HW134889   4.351  11.801   5.754 -0.0951 -0.6159 -1.6972
41525SOL    HW234890   4.225  11.795   5.838  1.2458 -0.6337  0.3812
41526SOL     OW34891   2.199   8.406  12.450  0.1615  0.3357 -0.5179
41526SOL    HW134892   2.155   8.348  12.512  0.3300 -0.6403 -1.2975
41526SOL    HW234893   2.192   8.493  12.490 -0.4467 -0.1506  0.4700
41527SOL     OW34894   8.003  12.873   6.147  0.0075  0.1508 -0.5697
41527SOL    HW134895   7.934  12.814   6.115 -0.8843  1.1874 -0.6175
41527SOL    HW234896   8.053  12.820   6.209 -1.7175 -0.2544  0.5728
41528SOL     OW34897   2.241   4.334  11.733 -0.1463  0.4281 -0.1132
41528SOL    HW134898   2.198   4.355  11.651 -2.2739 -0.6409  0.6542
41528SOL    HW234899   2.282   4.249  11.718 -0.6382  0.1753 -0.0629
41529SOL     OW34900   2.996   5.184   9.980 -0.0966  0.2618 -0.5116
41529SOL    HW134901   3.078   5.214  10.019  0.7602 -0.5780 -1.5972
41529SOL    HW234902   2.996   5.223   9.892 -1.1808  0.7803 -0.2939
41530SOL     OW34903  10.714   2.841  11.448  0.5695  0.3320  0.0399
41530SOL    HW134904  10.676   2.914  11.399 -0.4798 -1.9179 -2.7493
41530SOL    HW234905  10.649   2.822  11.516  0.6522  1.6597  0.5276
41531SOL     OW34906  12.956   7.552  12.338  0.0482  0.1535 -0.2898
41531SOL    HW134907  12.941   7.577  12.247  0.7434  0.7548 -0.2448
41531SOL    HW234908  12.877   7.581  12.384  0.0781  0.6466 -0.5482
41532SOL     OW34909   3.209   0.716   5.195  0.2101  0.2046 -0.7552
41532SOL    HW134910   3.259   0.639   5.168  0.7572  1.3215 -3.1826
41532SOL    HW234911   3.127   0.710   5.147  0.6897  1.6195 -1.8336
41533SOL     OW34912   6.479   5.598   6.592  0.0303 -0.1446 -0.3121
41533SOL    HW134913   6.436   5.681   6.571  0.7870 -0.2275 -2.4368
41533SOL    HW234914   6.469   5.545   6.513  0.5814 -1.6449  0.5925
41534SOL     OW34915   0.788   4.523   2.526  0.0669  0.5779  0.0299
41534SOL    HW134916   0.849   4.564   2.588 -1.2156 -0.0044  1.7530
41534SOL    HW234917   0.707   4.512   2.576 -0.5549 -1.3092 -1.2830
41535SOL     OW34918   9.185   8.758  12.080 -0.7827 -0.1264  0.0072
41535SOL    HW134919   9.259   8.716  12.036 -1.1502 -1.1928  0.3842
41535SOL    HW234920   9.129   8.788  12.008 -0.9368 -1.0467 -0.2593
41536SOL     OW34921   0.434   0.274   6.348 -0.8710  0.1494 -0.2286
41536SOL    HW134922   0.411   0.216   6.421  1.0834  1.8227  1.8685
41536SOL    HW234923   0.524   0.252   6.327 -0.8621  0.8468 -0.9924
41537SOL     OW34924   3.719   7.687   4.789  0.3444  0.1673  0.6418
41537SOL    HW134925   3.705   7.616   4.852 -2.1453 -0.3552 -0.3744
41537SOL    HW234926   3.631   7.716   4.766  1.2508  1.9871 -0.7898
41538SOL     OW34927  10.756   0.819   5.590 -0.0878  0.1683  0.0131
41538SOL    HW134928  10.745   0.815   5.495 -0.5827  1.5524 -0.0098
41538SOL    HW234929  10.703   0.747   5.623  2.1894 -2.0399 -0.8539
41539SOL     OW34930   1.334  10.679   6.797 -0.3245  0.2927 -0.5630
41539SOL    HW134931   1.288  10.747   6.748 -0.2489  0.3880 -0.5021
41539SOL    HW234932   1.418  10.719   6.821  0.0935 -0.1258 -1.2972
41540SOL     OW34933  11.369   7.732   0.666 -0.1087 -0.4429 -0.2629
41540SOL    HW134934  11.388   7.642   0.641 -1.4474 -0.8800  0.2087
41540SOL    HW234935  11.277   7.745   0.642  0.6664  1.5837 -2.5660
41541SOL     OW34936   3.623   1.074   7.145 -0.1601  0.1332 -0.0831
41541SOL    HW134937   3.532   1.078   7.116 -0.0448  1.9608 -0.2761
41541SOL    HW234938   3.674   1.104   7.069  0.3870  1.6885  0.8526
41542SOL     OW34939   9.378   1.441  11.230 -0.0924  0.2385 -0.3771
41542SOL    HW134940   9.360   1.511  11.167  0.6308  0.5865 -0.2060
41542SOL    HW234941   9.331   1.366  11.196 -0.2842  0.6142 -0.9599
41543SOL     OW34942   3.918   1.410   7.997 -0.3827 -0.1009 -0.0919
41543SOL    HW134943   3.865   1.461   7.936 -0.7411  1.0527  1.1361
41543SOL    HW234944   3.867   1.407   8.077  0.5744 -0.5981  0.5214
41544SOL     OW34945   0.553  11.041   9.471 -0.2444  0.4628  0.2712
41544SOL    HW134946   0.575  11.021   9.562 -0.1164 -1.1111 -0.0796
41544SOL    HW234947   0.471  10.993   9.455  0.5853 -0.6275 -0.8936
41545SOL     OW34948   7.615  10.778  12.449  0.0452  0.0204 -0.2619
41545SOL    HW134949   7.704  10.774  12.486  0.3469 -0.6221 -1.0427
41545SOL    HW234950   7.586  10.867  12.468  0.2568 -0.2210  1.3622
41546SOL     OW34951   2.337  11.162   2.672 -0.5246 -0.4394 -0.3324
41546SOL    HW134952   2.406  11.143   2.736 -1.4955 -0.7107  0.6609
41546SOL    HW234953   2.384  11.192   2.594  0.6913  0.0481  0.5552
41547SOL     OW34954  12.522   5.066   1.804 -0.3995  0.0172 -0.1286
41547SOL    HW134955  12.500   5.077   1.712 -0.3443 -1.1977 -0.3063
41547SOL    HW234956  12.443   5.028   1.843 -0.9776  1.9435  0.6669
41548SOL     OW34957  12.143  12.161  10.587 -0.4653  0.0231 -0.3561
41548SOL    HW134958  12.203  12.160  10.661 -1.1758  0.8502  0.2355
41548SOL    HW234959  12.077  12.095  10.609 -0.3351 -0.1770 -0.5519
41549SOL     OW34960  10.927  12.286  10.176  0.3723  0.0752  0.1064
41549SOL    HW134961  10.937  12.381  10.174 -0.7036  0.2129  0.4039
41549SOL    HW234962  10.834  12.271  10.156 -0.0026 -0.7700  2.1911
41550SOL     OW34963   5.876   8.122   7.640  0.2250  0.4933  0.3893
41550SOL    HW134964   5.920   8.087   7.717 -0.4468 -0.4827  0.3510
41550SOL    HW234965   5.865   8.047   7.583 -1.4200  0.7075  0.3816
41551SOL     OW34966   7.950   0.870   7.301  0.3788 -0.1060  0.0170
41551SOL    HW134967   8.019   0.821   7.346 -1.0537 -1.2561  1.0414
41551SOL    HW234968   7.869   0.845   7.346 -0.7535  1.0200 -1.2981
41552SOL     OW34969   5.590   3.896   9.029 -0.0900 -0.2650  0.2800
41552SOL    HW134970   5.547   3.821   8.989 -1.2947  0.1166  0.8165
41552SOL    HW234971   5.650   3.859   9.094  0.2623 -0.7905 -0.3312
41553SOL     OW34972   6.233   8.003   7.567  0.0811  0.2592 -0.2979
41553SOL    HW134973   6.265   7.985   7.656  1.9745 -1.5821 -1.2637
41553SOL    HW234974   6.185   7.924   7.543  0.7133  0.1971 -1.3874
41554SOL     OW34975  10.642   4.315  12.527 -0.2793  0.9246  0.3894
41554SOL    HW134976  10.688   4.392  12.561  1.3685 -1.0514  2.9378
41554SOL    HW234977  10.711   4.257  12.496 -1.5459  0.7378 -2.3805
41555SOL     OW34978   5.730   5.802   3.744 -0.3465  0.2420 -0.1124
41555SOL    HW134979   5.774   5.838   3.821 -0.8615  0.6451 -0.0040
41555SOL    HW234980   5.800   5.788   3.681  0.2295 -1.0021  0.7597
41556SOL     OW34981   9.699   0.102   7.689 -0.7143  0.2206  0.2439
41556SOL    HW134982   9.766   0.034   7.687 -0.8363  0.1103 -0.7882
41556SOL    HW234983   9.724   0.162   7.618 -2.1401 -0.2807 -0.7324
41557SOL     OW34984  10.195   5.977   3.470 -0.5142  0.4461 -0.3480
41557SOL    HW134985  10.109   5.941   3.448  0.5752 -1.4949 -1.8024
41557SOL    HW234986  10.222   6.023   3.390  0.0805  0.4501 -0.1486
41558SOL     OW34987  11.270   1.025   9.541 -0.0593 -0.6497 -0.1137
41558SOL    HW134988  11.194   0.984   9.499  0.5533 -1.3809 -0.5394
41558SOL    HW234989  11.232   1.086   9.604 -1.0022 -0.9413 -0.3731
41559SOL     OW34990   7.583   3.527   8.537 -0.0326 -0.5724  0.5098
41559SOL    HW134991   7.494   3.521   8.500  0.1867 -0.1463 -0.1080
41559SOL    HW234992   7.639   3.490   8.469  0.4007  0.3928  0.3294
41560SOL     OW34993   5.162   6.618   9.897 -0.0062 -0.5479  0.0827
41560SOL    HW134994   5.242   6.593   9.850  0.7775  1.5545  0.2078
41560SOL    HW234995   5.190   6.631   9.987 -0.1708  1.4596 -0.1201
41561SOL     OW34996   0.944   7.966   7.951 -0.1399 -0.0067  0.5320
41561SOL    HW134997   1.012   7.995   8.012 -0.4693  1.1407  0.3771
41561SOL    HW234998   0.992   7.939   7.872  0.1902 -0.1481  0.7766
41562SOL     OW34999  10.187  12.807   6.040  0.3645 -0.2343 -0.2099
41562SOL    HW135000  10.125  12.862   6.088  1.4514  0.4263  0.4585
41562SOL    HW235001  10.177  12.720   6.078 -0.2472 -0.1636 -0.2027
41563SOL     OW35002   1.366   4.936   4.935 -0.1504 -0.4544 -0.6831
41563SOL    HW135003   1.283   4.890   4.917 -0.3681 -0.4901  0.3655
41563SOL    HW235004   1.431   4.866   4.943  0.0273 -0.4183 -1.6629
41564SOL     OW35005   2.625   3.864   3.804 -0.1047  0.0494  0.3255
41564SOL    HW135006   2.690   3.807   3.846 -0.9582 -2.0066 -1.0031
41564SOL    HW235007   2.544   3.814   3.806 -0.4127  0.2048 -2.8959
41565SOL     OW35008   3.780  11.877  11.320  0.5270 -0.0339 -0.6792
41565SOL    HW135009   3.780  11.811  11.251 -1.4940  0.3422 -1.0943
41565SOL    HW235010   3.798  11.959  11.273  0.2228  0.0745 -0.6100
41566SOL     OW35011   4.760   5.567   5.729 -0.1932  0.4635 -0.0684
41566SOL    HW135012   4.735   5.574   5.821 -0.2840 -0.5524  0.0044
41566SOL    HW235013   4.725   5.482   5.702  2.5270 -0.7296 -0.1557
41567SOL     OW35014  12.232   5.579   6.530 -0.5072  0.4131  0.1360
41567SOL    HW135015  12.148   5.556   6.570  0.7867  1.1005  3.5849
41567SOL    HW235016  12.275   5.637   6.594  1.5869  2.1856 -2.5959
41568SOL     OW35017   5.207   2.536   0.777  0.1262  0.0536 -0.7774
41568SOL    HW135018   5.235   2.547   0.686 -0.1717  0.9570 -0.7678
41568SOL    HW235019   5.112   2.523   0.772  0.0163  0.7060 -0.5715
41569SOL     OW35020   4.595   5.422   6.100 -0.3792  0.3346 -0.2923
41569SOL    HW135021   4.676   5.373   6.117 -0.8668 -0.3760  0.0381
41569SOL    HW235022   4.544   5.413   6.181 -0.8849  0.5867 -0.5781
41570SOL     OW35023   3.406   3.327   2.682 -0.0329 -0.4646 -0.2961
41570SOL    HW135024   3.328   3.331   2.737 -0.9241  0.2144 -1.5507
41570SOL    HW235025   3.465   3.393   2.719  0.7606 -2.2209  1.7641
41571SOL     OW35026  10.732   1.931   6.136  0.4018 -0.3121 -0.3026
41571SOL    HW135027  10.792   1.912   6.208  0.6845 -0.1428 -0.4920
41571SOL    HW235028  10.774   1.892   6.059  0.3332 -0.0854 -0.4562
41572SOL     OW35029   8.769   1.838  11.564 -0.4085 -0.1857 -0.4808
41572SOL    HW135030   8.794   1.821  11.655 -0.9223  0.7666 -0.1411
41572SOL    HW235031   8.851   1.857  11.519 -0.2268  0.1295 -0.0244
41573SOL     OW35032  12.793   8.897   6.929 -0.0128 -0.3708  0.0679
41573SOL    HW135033  12.761   8.827   6.871 -0.9720 -1.0571  1.3903
41573SOL    HW235034  12.734   8.971   6.912 -1.2640 -1.0673  1.2355
41574SOL     OW35035   5.229   1.426   4.259  0.9580  0.8428 -0.4568
41574SOL    HW135036   5.262   1.444   4.171  0.8777  2.5656 -0.1586
41574SOL    HW235037   5.181   1.505   4.284 -1.8857 -0.8486 -0.1331
41575SOL     OW35038   9.595   5.215   8.305  0.1811  0.1066 -0.0472
41575SOL    HW135039   9.689   5.200   8.289 -0.1198 -1.3418 -0.6433
41575SOL    HW235040   9.565   5.135   8.348 -1.2030 -0.3707 -1.7963
41576SOL     OW35041   9.196   9.430  10.771 -0.2665  0.4674 -0.2373
41576SOL    HW135042   9.216   9.376  10.847 -0.1264  0.2685 -0.4147
41576SOL    HW235043   9.279   9.435  10.723 -0.5821 -0.1580 -0.8548
41577SOL     OW35044  11.607   3.114  11.855 -0.4399 -0.3601  0.1090
41577SOL    HW135045  11.682   3.105  11.796  0.2685 -0.5536  1.0101
41577SOL    HW235046  11.625   3.052  11.926 -0.5205  0.9211  1.2832
41578SOL     OW35047   7.008   9.296   3.008  0.1659  0.3603 -0.5149
41578SOL    HW135048   7.017   9.248   2.926 -0.8901 -1.5349  0.4000
41578SOL    HW235049   7.087   9.274   3.058  0.3053  0.6536 -0.6035
41579SOL     OW35050   5.190   3.955   3.440  0.6137 -0.4186  0.2273
41579SOL    HW135051   5.107   3.937   3.484 -0.2538 -0.3563 -1.3071
41579SOL    HW235052   5.167   3.963   3.347  2.0328  1.4456 -0.0355
41580SOL     OW35053   6.263   4.789   4.240 -0.3041  0.0906  0.2289
41580SOL    HW135054   6.347   4.795   4.196  0.1776  2.4146  1.3051
41580SOL    HW235055   6.201   4.765   4.170  0.9480  0.1836 -0.9591
41581SOL     OW35056   5.228   8.329  11.254  0.0305 -0.0677 -0.8876
41581SOL    HW135057   5.133   8.317  11.254  0.1583 -1.3356 -1.8781
41581SOL    HW235058   5.262   8.243  11.228  1.5355 -0.1206  1.0926
41582SOL     OW35059   1.236   1.381   3.231 -0.3714  0.1748 -0.0581
41582SOL    HW135060   1.167   1.447   3.222 -1.5280 -0.9623  0.2595
41582SOL    HW235061   1.201   1.317   3.293 -0.0884 -1.7315 -1.7471
41583SOL     OW35062   3.711  10.673   5.077 -0.4026  0.0591 -0.1174
41583SOL    HW135063   3.764  10.703   5.151 -1.2313  2.5652 -0.4292
41583SOL    HW235064   3.621  10.688   5.105 -0.8208 -1.0334 -0.8282
41584SOL     OW35065  12.500   9.843   7.930 -0.7593 -0.1227 -0.5116
41584SOL    HW135066  12.470   9.930   7.904  0.3744  0.3860 -0.1824
41584SOL    HW235067  12.595   9.853   7.941 -0.3861 -1.7701 -1.9442
41585SOL     OW35068   9.920  10.554   5.809  0.4586 -0.1621  0.1143
41585SOL    HW135069   9.893  10.614   5.879  1.2651 -1.3537  1.5097
41585SOL    HW235070   9.889  10.595   5.728 -0.4290  1.3063  1.1596
41586SOL     OW35071   4.896   4.780   0.387  0.2459 -0.4670 -0.2687
41586SOL    HW135072   4.906   4.809   0.297 -0.0232  2.3910  0.5226
41586SOL    HW235073   4.984   4.788   0.424  0.3790 -1.7350 -0.2772
41587SOL     OW35074  11.914   9.731   8.982  0.4501 -0.1804  0.2193
41587SOL    HW135075  11.876   9.810   9.021  0.0513  0.1173 -0.7319
41587SOL    HW235076  11.956   9.686   9.055  1.4417  1.3475  0.6286
41588SOL     OW35077  12.501   1.500   6.975  0.2741 -0.2427 -0.0578
41588SOL    HW135078  12.434   1.433   6.966 -0.1795  0.2927 -0.8428
41588SOL    HW235079  12.578   1.464   6.931 -0.7773  0.7898 -2.9561
41589SOL     OW35080   9.009   4.204   3.123 -0.0258  0.2328  0.1969
41589SOL    HW135081   8.970   4.216   3.210 -0.0604  0.5332  0.1402
41589SOL    HW235082   9.102   4.192   3.141 -0.1951 -1.0086  0.3749
41590SOL     OW35083   3.987   9.574   8.050  0.1108  0.4635 -0.4890
41590SOL    HW135084   3.941   9.498   8.015 -0.1649 -1.1630  2.9507
41590SOL    HW235085   4.075   9.542   8.069 -0.4288  0.4254  2.3813
41591SOL     OW35086  11.686   6.413   9.533  0.1394 -0.0077  0.0125
41591SOL    HW135087  11.677   6.507   9.547 -2.3592  0.2634 -2.5587
41591SOL    HW235088  11.603   6.376   9.563  1.8220 -1.8167  2.9557
41592SOL     OW35089   5.120   8.493   9.934 -0.4960 -0.2663 -0.2593
41592SOL    HW135090   5.070   8.463   9.858 -0.6233  0.7836 -0.6156
41592SOL    HW235091   5.192   8.544   9.895 -0.2855 -0.1292  0.3079
41593SOL     OW35092   6.781   3.737   9.133 -0.3512  0.2651  0.1120
41593SOL    HW135093   6.781   3.832   9.139  0.2813  0.4676 -2.0969
41593SOL    HW235094   6.824   3.718   9.050  0.1974 -1.9942  0.8358
41594SOL     OW35095   0.144   6.021   0.677  0.1410 -0.2533  0.2180
41594SOL    HW135096   0.087   5.953   0.712  0.6791 -0.5433  0.5423
41594SOL    HW235097   0.189   6.056   0.753 -0.2354  0.5683  0.0725
41595SOL     OW35098   4.007   3.635   6.101  0.6809  0.4401 -0.1101
41595SOL    HW135099   4.052   3.650   6.184  1.2721  1.3645 -0.5823
41595SOL    HW235100   3.945   3.708   6.095 -0.6148 -0.5776  0.3260
41596SOL     OW35101   3.471   0.965  12.646  1.1387 -0.4660  0.1664
41596SOL    HW135102   3.498   0.952  12.737  2.9247  1.8552  0.0597
41596SOL    HW235103   3.473   0.878  12.607  2.5361 -1.2105  1.7920
41597SOL     OW35104   8.141  11.746   1.125 -0.3508  0.0638 -0.1836
41597SOL    HW135105   8.127  11.830   1.169  1.1163  0.5787 -0.6684
41597SOL    HW235106   8.145  11.682   1.197  2.3270  0.9267  0.5335
41598SOL     OW35107   2.053  11.549   2.460 -0.2968  0.3603  0.1712
41598SOL    HW135108   2.130  11.502   2.427  0.8302  2.0469  0.2523
41598SOL    HW235109   1.989  11.545   2.389 -0.1346 -1.0356  0.0874
41599SOL     OW35110   8.017  12.328  11.937  0.6080 -0.0192  0.0619
41599SOL    HW135111   8.106  12.351  11.908 -0.0391  1.2123 -1.1017
41599SOL    HW235112   7.960  12.384  11.884 -0.7362  2.1955  3.4873
41600SOL     OW35113   5.802   6.212   2.034  0.1122  0.2764 -0.6706
41600SOL    HW135114   5.737   6.193   2.102 -0.5422  1.6577 -0.8861
41600SOL    HW235115   5.751   6.250   1.962  1.0804  0.8491 -1.0734
41601SOL     OW35116   0.473   6.154   9.921  0.1296 -0.2751  0.7814
41601SOL    HW135117   0.564   6.129   9.906  0.0410 -0.6033  0.7723
41601SOL    HW235118   0.475   6.249   9.935  0.3104 -0.0594 -0.5629
41602SOL     OW35119   6.162   5.478   7.898 -0.2401  0.2790 -0.1377
41602SOL    HW135120   6.206   5.518   7.823  0.3356  0.5846  0.3523
41602SOL    HW235121   6.073   5.511   7.895 -0.6974 -1.0182 -1.6442
41603SOL     OW35122   3.393   7.594   3.244 -0.2431 -0.0625  0.3658
41603SOL    HW135123   3.403   7.586   3.149  3.6947  0.9769  0.5225
41603SOL    HW235124   3.428   7.512   3.279 -1.3262 -0.2840  0.9808
41604SOL     OW35125   4.340  12.713   3.373 -0.1794  0.6444 -0.2124
41604SOL    HW135126   4.408  12.766   3.333 -0.1860  0.0097 -1.0959
41604SOL    HW235127   4.361  12.712   3.466 -0.4383  2.5565 -0.0961
41605SOL     OW35128  11.249  12.258   1.261 -0.2093 -0.4324  0.2490
41605SOL    HW135129  11.269  12.196   1.330  3.8714  0.6619  0.2656
41605SOL    HW235130  11.277  12.343   1.295  1.2107  0.2664 -2.3918
41606SOL     OW35131   9.725   1.412   7.761 -0.1253  0.2554 -0.0886
41606SOL    HW135132   9.740   1.319   7.778  0.7037  0.6171  1.2615
41606SOL    HW235133   9.773   1.429   7.679  0.0260 -0.4151 -0.1455
41607SOL     OW35134   0.439   9.312  10.682 -0.6038 -0.0738  0.0977
41607SOL    HW135135   0.477   9.341  10.765 -0.8060 -0.6304  0.3910
41607SOL    HW235136   0.356   9.360  10.676  0.8276  2.4425 -1.3526
41608SOL     OW35137   9.614   1.666   7.132 -0.0904 -0.3285 -0.3174
41608SOL    HW135138   9.578   1.621   7.055 -0.8825 -4.1327  2.0224
41608SOL    HW235139   9.537   1.698   7.179  0.1490 -0.8721  0.4568
41609SOL     OW35140   3.345  10.984   7.043 -0.3144  0.0877 -0.2324
41609SOL    HW135141   3.272  11.043   7.024  0.0493  0.6754  0.1547
41609SOL    HW235142   3.405  11.037   7.095 -0.3908 -0.8885  0.8781
41610SOL     OW35143   6.574   4.014   2.804  0.0314  0.1588 -0.3746
41610SOL    HW135144   6.526   3.991   2.725  0.9657 -0.4448 -0.7937
41610SOL    HW235145   6.633   4.084   2.776 -0.0876  0.3876 -0.0527
41611SOL     OW35146   7.726   1.142   4.048  0.0372 -0.1321  0.5885
41611SOL    HW135147   7.749   1.229   4.015  2.1414 -1.0266 -0.5201
41611SOL    HW235148   7.669   1.105   3.981  1.0599 -0.4423 -0.1470
41612SOL     OW35149   4.468   1.450   0.452  0.9629 -0.1034 -0.4473
41612SOL    HW135150   4.481   1.412   0.540  0.5348 -0.8565 -0.6925
41612SOL    HW235151   4.533   1.405   0.397  0.5750 -0.3582 -0.7040
41613SOL     OW35152  11.225   5.942   3.820  0.5815 -0.0269 -0.0849
41613SOL    HW135153  11.288   6.003   3.780 -0.3809  0.2421 -1.2237
41613SOL    HW235154  11.274   5.902   3.892  2.1340  0.0242 -1.0579
41614SOL     OW35155   1.341  11.926   1.436  0.2260  0.3128 -0.4488
41614SOL    HW135156   1.358  11.949   1.345  1.3684 -1.5271 -0.7349
41614SOL    HW235157   1.306  11.837   1.433 -0.9882  0.7098  0.8347
41615SOL     OW35158   5.659   0.751   0.775  0.4628  0.3967  0.4291
41615SOL    HW135159   5.586   0.774   0.832 -0.7092  0.1474 -0.9122
41615SOL    HW235160   5.666   0.656   0.780 -1.5979  0.0140 -2.0079
41616SOL     OW35161   1.654   8.875   7.855 -0.0482 -0.0086  0.3546
41616SOL    HW135162   1.674   8.920   7.774 -1.4476  0.7684  0.3944
41616SOL    HW235163   1.595   8.803   7.829  0.4084 -0.4584  0.5507
41617SOL     OW35164   7.441   6.827   3.747  0.0866 -0.8763 -0.2180
41617SOL    HW135165   7.372   6.876   3.792  0.5539 -0.8036  0.4283
41617SOL    HW235166   7.415   6.736   3.756 -0.1992 -0.8208 -0.4442
41618SOL     OW35167  10.688   9.035   6.853 -0.6865 -0.4153 -0.7300
41618SOL    HW135168  10.681   8.940   6.848 -2.8617 -0.5149  1.6481
41618SOL    HW235169  10.771   9.051   6.897 -1.2509 -1.4008  0.7824
41619SOL     OW35170  12.824   7.034   5.462 -0.3907 -0.5211 -0.0024
41619SOL    HW135171  12.816   7.102   5.529  1.9908 -0.1521 -0.0177
41619SOL    HW235172  12.854   7.081   5.384 -1.1705 -1.2455 -0.7526
41620SOL     OW35173   0.479  11.908   2.586 -0.2394 -0.3878  0.4848
41620SOL    HW135174   0.440  11.844   2.646 -1.1214 -0.2314  0.0992
41620SOL    HW235175   0.507  11.980   2.643 -0.4135 -0.5571  0.7897
41621SOL     OW35176   1.708  12.615  12.277 -0.5714 -0.6498 -0.1745
41621SOL    HW135177   1.795  12.579  12.296 -1.0980 -1.8311  0.0968
41621SOL    HW235178   1.718  12.656  12.191  0.1241 -1.2536 -0.3965
41622SOL     OW35179   3.214   9.634  12.435 -0.3080 -0.4544  0.1933
41622SOL    HW135180   3.145   9.605  12.496  0.0347 -0.0367  0.7914
41622SOL    HW235181   3.172   9.702  12.382 -0.1498  0.3428  1.0703
41623SOL     OW35182   6.983   0.195   4.544 -0.1582 -0.1723  0.2761
41623SOL    HW135183   6.965   0.245   4.624 -0.6346 -0.5199  0.3898
41623SOL    HW235184   7.001   0.106   4.575  1.1447  0.0110  0.1155
41624SOL     OW35185   6.762   1.945  11.879 -0.3543 -0.1335 -0.4866
41624SOL    HW135186   6.766   1.980  11.790  0.4804  0.7922 -0.1046
41624SOL    HW235187   6.845   1.970  11.918  0.0420 -2.1136  0.0034
41625SOL     OW35188  10.017   5.361   7.997 -0.3438  0.3672  0.0007
41625SOL    HW135189   9.933   5.397   8.025 -0.6360 -1.9273  2.3735
41625SOL    HW235190  10.063   5.436   7.958 -2.3934  2.3377  1.1588
41626SOL     OW35191   2.685   9.896   9.215  0.2803  0.2224  0.0087
41626SOL    HW135192   2.661   9.900   9.308 -0.5874  1.2234 -0.2445
41626SOL    HW235193   2.627   9.958   9.172  1.0970  0.2400 -1.1269
41627SOL     OW35194  12.434   2.076   0.547  0.1476  0.3203  0.3664
41627SOL    HW135195  12.357   2.076   0.603 -2.0553  4.0675 -2.1903
41627SOL    HW235196  12.478   2.159   0.567  2.0787 -0.5266 -0.1037
41628SOL     OW35197   1.751   5.385   3.684  0.4535 -0.3126 -0.5188
41628SOL    HW135198   1.793   5.448   3.742 -0.1420  0.7262 -1.1829
41628SOL    HW235199   1.708   5.323   3.743 -0.3192  0.8411  0.1791
41629SOL     OW35200   3.670   3.130   4.767 -0.8839  0.0801 -0.7951
41629SOL    HW135201   3.592   3.109   4.818  0.2751  0.2067  1.1198
41629SOL    HW235202   3.743   3.097   4.820  0.4161  0.6193 -2.1760
41630SOL     OW35203   9.183   9.219  11.200  0.1610  0.4175  0.2101
41630SOL    HW135204   9.089   9.213  11.184  0.4026  0.1608 -1.2678
41630SOL    HW235205   9.196   9.178  11.285 -1.0258  0.1591  0.2758
41631SOL     OW35206   4.297   6.449   0.183  0.1521 -0.0420 -0.3853
41631SOL    HW135207   4.377   6.410   0.146  0.3834 -0.7229  0.8010
41631SOL    HW235208   4.227   6.390   0.156  0.5334 -1.5191  1.6335
41632SOL     OW35209   2.639  12.410   7.994  0.1298  0.1612 -0.3187
41632SOL    HW135210   2.699  12.433   7.923 -0.1709  0.5370 -0.4526
41632SOL    HW235211   2.696  12.390   8.069  0.4822 -1.0027 -0.8730
41633SOL     OW35212   2.877   9.293  12.240  0.1091 -0.0717 -0.0091
41633SOL    HW135213   2.890   9.297  12.145 -0.6396  3.4297 -0.0900
41633SOL    HW235214   2.781   9.292  12.251  0.1183 -2.9068  0.8094
41634SOL     OW35215   7.461   0.878   3.091  0.4691  0.3185  0.0037
41634SOL    HW135216   7.484   0.791   3.122  0.2217  0.4931  0.7044
41634SOL    HW235217   7.520   0.937   3.139 -0.6791  0.6830  1.0249
41635SOL     OW35218   1.945  10.684  10.879  0.0120 -0.1167 -0.2010
41635SOL    HW135219   1.889  10.712  10.951  0.4773 -1.0969  0.5583
41635SOL    HW235220   2.034  10.688  10.914  0.1592 -1.7564 -0.2929
41636SOL     OW35221  12.295   4.714   3.698 -0.2152  0.6183  0.1931
41636SOL    HW135222  12.314   4.803   3.729  1.1921  1.0036 -1.5479
41636SOL    HW235223  12.378   4.667   3.709 -0.2125  0.2574 -1.1690
41637SOL     OW35224   0.591  10.698   8.866  0.1161 -0.0471 -0.4096
41637SOL    HW135225   0.534  10.752   8.812 -0.9626 -0.5711  0.1695
41637SOL    HW235226   0.664  10.756   8.890 -0.3354  0.7332 -0.8901
41638SOL     OW35227   7.960   0.053  11.359  0.0072  0.3642  0.1646
41638SOL    HW135228   7.998   0.033  11.445 -0.2939  0.7026  0.3788
41638SOL    HW235229   7.894  -0.016  11.345  0.8559 -0.3751 -0.3219
41639SOL     OW35230   3.032   9.999   6.209  0.1940 -0.7033 -0.0686
41639SOL    HW135231   2.980  10.048   6.272  0.3188 -0.6316 -0.0232
41639SOL    HW235232   3.006  10.034   6.124 -0.7617 -1.5181 -0.1402
41640SOL     OW35233   0.046   2.763   2.271  0.4697 -0.1487 -0.1048
41640SOL    HW135234   0.069   2.849   2.304 -0.1319 -0.5091  1.3429
41640SOL    HW235235   0.048   2.706   2.348 -1.0921 -1.0221 -0.6520
41641SOL     OW35236  12.780   9.848   5.719 -0.2420  0.1066  0.4583
41641SOL    HW135237  12.691   9.819   5.734 -0.2335  0.0221  0.3422
41641SOL    HW235238  12.771   9.938   5.686 -0.1963  1.0901  2.9124
41642SOL     OW35239   4.103   2.439   3.618  0.0697  0.5392  0.0525
41642SOL    HW135240   4.016   2.399   3.613  0.7067 -0.9221  0.1288
41642SOL    HW235241   4.137   2.413   3.703  0.4481  1.4154  0.1801
41643SOL     OW35242   1.991  12.419   2.643  0.4071 -0.8818  0.7754
41643SOL    HW135243   2.068  12.455   2.599  0.4059 -1.3615  0.3603
41643SOL    HW235244   1.960  12.489   2.700  0.3505 -0.1935 -0.0697
41644SOL     OW35245   3.689  11.900   0.865  0.6553 -0.3213  0.1782
41644SOL    HW135246   3.639  11.906   0.783  1.6808  1.7331 -0.3651
41644SOL    HW235247   3.731  11.986   0.874  1.2630 -0.7914  2.4354
41645SOL     OW35248   8.596  12.285   5.740 -0.9132  0.5643  0.0930
41645SOL    HW135249   8.512  12.331   5.733 -1.7068 -0.6479  1.2302
41645SOL    HW235250   8.608  12.270   5.833  0.4743  0.4981 -0.0697
41646SOL     OW35251   1.247   3.261   0.449 -0.2040 -0.2221 -0.1952
41646SOL    HW135252   1.320   3.320   0.437 -1.5486  1.4106 -0.7654
41646SOL    HW235253   1.282   3.174   0.427  1.9023  0.2608  1.0210
41647SOL     OW35254  11.894   1.509   8.672 -0.0400 -0.1690  1.0827
41647SOL    HW135255  11.925   1.471   8.589 -1.3854  0.1111  0.4295
41647SOL    HW235256  11.876   1.434   8.728 -2.4052 -0.5667 -0.0967
41648SOL     OW35257   4.079   8.481  12.839  0.2845  0.2701 -0.0282
41648SOL    HW135258   4.165   8.521  12.825 -0.2688  1.5848  0.1126
41648SOL    HW235259   4.026   8.552  12.877 -1.1628 -0.1728 -1.1037
41649SOL     OW35260  10.744   3.596   5.168 -0.0250 -0.0768  0.2262
41649SOL    HW135261  10.815   3.648   5.132  0.6422 -1.8332 -1.1445
41649SOL    HW235262  10.695   3.565   5.092 -1.3105 -0.2132  1.0615
41650SOL     OW35263   1.104   7.498   3.904  0.0685  0.3084 -0.4695
41650SOL    HW135264   1.032   7.560   3.893 -0.8835 -0.3479  1.5264
41650SOL    HW235265   1.174   7.548   3.944 -0.9364  0.0441  1.7697
41651SOL     OW35266   6.935  12.278   5.125 -0.2307  0.3234 -0.1924
41651SOL    HW135267   6.927  12.325   5.207 -0.1471  0.4570 -0.2604
41651SOL    HW235268   6.899  12.191   5.143  0.6871  0.0220  0.2572
41652SOL     OW35269   3.072   7.910  11.715 -0.1302 -0.4329  0.0234
41652SOL    HW135270   3.001   7.852  11.688  0.0134 -1.6390  2.0456
41652SOL    HW235271   3.062   7.987  11.659 -1.3293 -1.7079 -1.6237
41653SOL     OW35272   6.998   5.485   8.418  0.0684  0.4046 -0.2270
41653SOL    HW135273   7.004   5.399   8.378  0.0800  0.4070 -0.2307
41653SOL    HW235274   7.080   5.529   8.395 -0.3390  0.7630 -1.0186
41654SOL     OW35275  12.006   8.933   2.566  0.0315  0.1441 -0.1526
41654SOL    HW135276  11.932   8.968   2.615  0.0251  0.0002 -0.0582
41654SOL    HW235277  12.022   8.997   2.497  1.4410  1.4861  1.3269
41655SOL     OW35278   6.653  12.597   1.561 -0.2402  0.4792  0.0395
41655SOL    HW135279   6.624  12.662   1.497  2.2818  1.0526 -0.6121
41655SOL    HW235280   6.717  12.644   1.615  0.2855 -0.9792  0.7222
41656SOL     OW35281  12.735   4.154   7.675  0.6469 -0.1347  0.1717
41656SOL    HW135282  12.710   4.225   7.735  0.8437  0.0786  0.0045
41656SOL    HW235283  12.695   4.076   7.712  1.7140 -0.2055  1.2017
41657SOL     OW35284   1.630  11.812   2.214 -0.1561 -0.4083  0.2711
41657SOL    HW135285   1.700  11.823   2.151 -0.3689  0.8201  0.2415
41657SOL    HW235286   1.556  11.778   2.163 -0.1382  0.0017 -0.0293
41658SOL     OW35287   0.834  12.592  10.351 -0.2387 -0.3608 -0.0294
41658SOL    HW135288   0.902  12.524  10.346 -0.7613 -0.9643  0.7398
41658SOL    HW235289   0.842  12.626  10.441  0.5825  1.2180 -0.6595
41659SOL     OW35290  10.639  10.614   6.825 -0.0589 -0.0616 -0.1234
41659SOL    HW135291  10.564  10.612   6.766  0.1830  0.4687 -0.4624
41659SOL    HW235292  10.704  10.556   6.784  0.0642  0.2140 -0.3248
41660SOL     OW35293   3.597   1.453  11.103  0.5169 -0.0982 -0.1191
41660SOL    HW135294   3.629   1.541  11.124  0.6959  0.5614 -2.8914
41660SOL    HW235295   3.552   1.425  11.183  2.3617  1.5740  1.6218
41661SOL     OW35296   6.755  10.771  11.729 -0.0198 -0.1169  0.7784
41661SOL    HW135297   6.802  10.688  11.731  0.4560  0.1578  1.3526
41661SOL    HW235298   6.814  10.833  11.772  0.1521  0.7955 -0.7043
41662SOL     OW35299  10.684  11.070  12.198 -0.1132  0.5273 -0.2107
41662SOL    HW135300  10.633  10.990  12.210 -0.4226  0.4947 -1.5632
41662SOL    HW235301  10.636  11.137  12.249 -1.6468  0.5400 -1.5757
41663SOL     OW35302   6.375  11.311  11.586  0.4552  0.1828 -0.0596
41663SOL    HW135303   6.313  11.336  11.518  2.6742  1.3368 -1.8084
41663SOL    HW235304   6.393  11.391  11.634 -0.2963 -0.4082  1.2774
41664SOL     OW35305   3.531   8.028   0.297 -0.1966  0.1785  0.8697
41664SOL    HW135306   3.598   8.007   0.232 -2.0102  0.2192 -1.1300
41664SOL    HW235307   3.537   7.958   0.362  0.6101 -0.7905 -0.2162
41665SOL     OW35308   4.422   2.138   1.942  0.0955  0.0778 -0.6460
41665SOL    HW135309   4.339   2.106   1.906 -0.1224  0.9306 -0.9289
41665SOL    HW235310   4.426   2.230   1.916  0.7953  0.2388 -0.0279
41666SOL     OW35311   8.968   5.454   6.768 -0.1704 -0.1698  0.1107
41666SOL    HW135312   9.063   5.465   6.768 -0.2833  1.0781  0.8262
41666SOL    HW235313   8.953   5.370   6.811  0.6146 -0.4593 -0.1677
41667SOL     OW35314   5.646   9.153  12.693 -0.2073  0.6381 -0.2470
41667SOL    HW135315   5.565   9.152  12.642  0.6831  0.5879 -1.7192
41667SOL    HW235316   5.639   9.231  12.748  0.3204  2.9243 -3.1392
41668SOL     OW35317   1.187   9.530  11.997  0.1942  0.2595 -0.2560
41668SOL    HW135318   1.263   9.502  12.048  0.1840  1.8776  0.6992
41668SOL    HW235319   1.116   9.474  12.028  0.2865  0.9243  1.2466
41669SOL     OW35320   4.754  10.776   4.507 -0.1206  0.0682  0.0412
41669SOL    HW135321   4.703  10.853   4.533  1.3096  0.6015  1.4353
41669SOL    HW235322   4.714  10.703   4.556  1.2245  0.7176  2.2504
41670SOL     OW35323  11.405   6.372   9.579 -0.2084 -0.5005  0.7954
41670SOL    HW135324  11.336   6.315   9.545  0.7251 -1.5682  0.6220
41670SOL    HW235325  11.409   6.445   9.516 -0.0564 -1.2931 -0.1420
41671SOL     OW35326   2.998   6.240   2.985  0.6300  0.5666  0.3541
41671SOL    HW135327   2.905   6.258   2.975  0.3728  0.1254  1.7108
41671SOL    HW235328   3.038   6.325   3.001  0.3938  0.7067  0.1969
41672SOL     OW35329  11.032   8.860   1.812  0.0648  0.3565  0.1517
41672SOL    HW135330  10.937   8.853   1.803 -0.1338  1.3578  1.2899
41672SOL    HW235331  11.065   8.853   1.722 -1.0856  0.1818 -0.2737
41673SOL     OW35332   2.041   6.142   3.971  0.0236 -0.2824 -0.4564
41673SOL    HW135333   1.960   6.185   4.000  0.1363 -0.8694  0.8018
41673SOL    HW235334   2.085   6.208   3.917 -1.7237 -0.2860 -1.9605
41674SOL     OW35335  10.648   1.043   4.901  0.0613  0.0032  0.2144
41674SOL    HW135336  10.673   0.969   4.845 -0.6017  0.1298 -0.2621
41674SOL    HW235337  10.553   1.038   4.905  0.0827  0.1403  1.1489
41675SOL     OW35338  12.125   1.697   5.933 -0.0647  0.7930  0.0028
41675SOL    HW135339  12.183   1.666   6.003  0.0434  1.5796  0.2688
41675SOL    HW235340  12.148   1.789   5.922 -1.4415  1.1891  0.2835
41676SOL     OW35341   1.408   0.331  10.901  0.7004 -0.3175 -0.2759
41676SOL    HW135342   1.461   0.252  10.916  2.2985  0.9390  1.1547
41676SOL    HW235343   1.428   0.387  10.976 -0.1146  1.6064 -1.4315
41677SOL     OW35344   1.980  12.658  11.334  0.1605 -0.1225 -0.1756
41677SOL    HW135345   1.984  12.678  11.427 -1.2849  1.3702 -0.3769
41677SOL    HW235346   1.992  12.743  11.291 -2.8505 -0.1094 -1.2216
41678SOL     OW35347  12.330   4.853  11.667  0.1568  0.2585 -0.3600
41678SOL    HW135348  12.412   4.881  11.707  0.4593 -0.1050 -0.7217
41678SOL    HW235349  12.302   4.778  11.720  0.0798  0.3523 -0.2676
41679SOL     OW35350  12.210   4.818   1.327 -0.0140  0.1330 -0.5576
41679SOL    HW135351  12.267   4.886   1.292 -0.3696  1.2269  0.8491
41679SOL    HW235352  12.227   4.741   1.274  0.1974  1.3985 -2.4086
41680SOL     OW35353   8.278   3.309   1.270  0.3323 -0.2629  0.4315
41680SOL    HW135354   8.310   3.353   1.349  2.3063  0.3993 -0.6716
41680SOL    HW235355   8.357   3.279   1.226 -0.7476 -0.9195 -1.1274
41681SOL     OW35356   2.096   8.838   4.266  0.1178  0.2154 -0.5591
41681SOL    HW135357   2.150   8.851   4.344 -2.0406 -1.3465  1.3519
41681SOL    HW235358   2.121   8.751   4.234  1.4854  1.1271 -2.1164
41682SOL     OW35359   7.908   8.814   6.620  0.1409 -0.6498  0.0661
41682SOL    HW135360   7.931   8.770   6.538 -1.2452 -0.6485 -0.3501
41682SOL    HW235361   7.961   8.770   6.687  0.2998 -1.5584 -0.6372
41683SOL     OW35362   4.790   6.280   0.507 -0.2278 -0.1108  0.5105
41683SOL    HW135363   4.860   6.215   0.509  0.8583  0.9954 -0.0132
41683SOL    HW235364   4.733   6.252   0.435  0.4147 -0.3074  0.0661
41684SOL     OW35365   6.284   5.943   4.626 -0.3676 -0.0453  0.0841
41684SOL    HW135366   6.237   6.023   4.604 -0.2150  0.1466  0.4529
41684SOL    HW235367   6.215   5.883   4.657 -0.3693  0.2526  0.6746
41685SOL     OW35368   1.176   1.236   3.458 -0.6979  0.0846 -0.3065
41685SOL    HW135369   1.201   1.281   3.539  0.2824  0.7153 -0.9562
41685SOL    HW235370   1.080   1.245   3.455 -0.5103  2.4573 -0.6058
41686SOL     OW35371   6.055  11.668   9.053  0.1323 -0.5748  0.3701
41686SOL    HW135372   6.048  11.758   9.085 -0.2185 -1.3178  2.5022
41686SOL    HW235373   5.973  11.627   9.081 -0.5626 -1.1169 -2.2066
41687SOL     OW35374   2.514   8.274   7.085  0.2348  0.1195 -0.3525
41687SOL    HW135375   2.458   8.347   7.061 -0.0067 -0.2353 -0.8924
41687SOL    HW235376   2.583   8.274   7.018 -0.7750 -1.2434 -1.4435
41688SOL     OW35377   5.345   4.531   2.813 -0.0850  0.0911  0.1906
41688SOL    HW135378   5.400   4.574   2.879  0.0047 -2.8639  2.2453
41688SOL    HW235379   5.396   4.456   2.784 -1.4944 -0.5604 -0.7199
41689SOL     OW35380   6.177   2.097   8.342  0.8851  0.0227 -0.2162
41689SOL    HW135381   6.214   2.171   8.391 -0.2411  0.8114 -0.4982
41689SOL    HW235382   6.109   2.061   8.399  0.1831  0.3773 -0.8006
41690SOL     OW35383   2.089  11.691   3.148 -0.3403 -0.2647  0.1669
41690SOL    HW135384   2.123  11.606   3.118 -0.1398 -0.0282 -0.2825
41690SOL    HW235385   2.115  11.696   3.240  2.1352  0.5474 -0.5103
41691SOL     OW35386   1.679   0.759   9.926  0.3463 -0.7249  0.1582
41691SOL    HW135387   1.655   0.686   9.869  1.3235 -0.4443 -0.6539
41691SOL    HW235388   1.768   0.739   9.954  1.5729  1.2292 -1.9816
41692SOL     OW35389  11.884   3.046   9.503  0.1945  0.2417 -0.5566
41692SOL    HW135390  11.803   3.079   9.464 -0.6819 -0.5477  0.5339
41692SOL    HW235391  11.927   3.124   9.538 -1.4738  0.4066  1.3147
41693SOL     OW35392   7.943   7.674   3.243  0.4427 -0.1095 -0.5156
41693SOL    HW135393   7.978   7.586   3.256 -1.7573 -1.0154 -0.2010
41693SOL    HW235394   7.859   7.660   3.199 -0.6394  1.6985  0.8200
41694SOL     OW35395   3.483   3.946   0.834 -0.3572  0.9285  0.1312
41694SOL    HW135396   3.412   3.947   0.769 -0.8260  1.0007  0.6360
41694SOL    HW235397   3.441   3.914   0.914 -0.0479  1.8915  0.6979
41695SOL     OW35398   3.245   2.966   0.406  0.4585 -0.0370  0.5050
41695SOL    HW135399   3.176   2.971   0.340  0.7812 -1.8965 -0.0404
41695SOL    HW235400   3.320   3.011   0.366 -0.4783  2.2619  1.2256
41696SOL     OW35401  10.092   4.920  11.401  0.1137  0.3240  0.2507
41696SOL    HW135402  10.040   4.902  11.322  1.2684 -0.4403 -0.3671
41696SOL    HW235403  10.104   5.014  11.400 -1.2797  0.5270  0.4304
41697SOL     OW35404  10.608   8.428   6.714 -0.1247 -0.0438 -0.2817
41697SOL    HW135405  10.526   8.412   6.761  0.5687  2.0342  1.8219
41697SOL    HW235406  10.658   8.347   6.725 -0.7856 -0.3206  0.8661
41698SOL     OW35407   0.205   8.913   4.374  0.2843 -0.2159 -0.4329
41698SOL    HW135408   0.263   8.893   4.301  0.7683 -1.5826  0.2879
41698SOL    HW235409   0.184   8.827   4.412 -3.1206  0.0598 -1.3174
41699SOL     OW35410  12.359  11.245   4.613  0.0315  0.0629 -0.8251
41699SOL    HW135411  12.436  11.202   4.651 -0.7367 -1.2859 -0.7311
41699SOL    HW235412  12.324  11.181   4.551 -1.3223  0.4274 -0.4673
41700SOL     OW35413   0.727   2.508  11.285  0.3809  0.2573 -0.1543
41700SOL    HW135414   0.665   2.490  11.214  1.1633 -0.3353 -0.6968
41700SOL    HW235415   0.775   2.586  11.255 -1.9282  2.4848  1.4931
41701SOL     OW35416   6.918   7.176   9.275  0.0241  0.0220  0.3034
41701SOL    HW135417   6.967   7.131   9.344  0.7052  1.0808  0.5371
41701SOL    HW235418   6.986   7.213   9.218 -0.4646  1.9313  0.8993
41702SOL     OW35419  10.123  11.297   3.051 -0.7660 -0.0635  0.4066
41702SOL    HW135420  10.070  11.252   3.117 -0.8605 -0.1913  0.2443
41702SOL    HW235421  10.143  11.230   2.986 -0.9503  0.1423  0.1378
41703SOL     OW35422   0.384   9.496   9.830 -0.1816 -0.0141  0.3398
41703SOL    HW135423   0.407   9.506   9.738 -0.6032 -0.9961  0.1188
41703SOL    HW235424   0.290   9.510   9.833  0.0704  1.8087  0.9129
41704SOL     OW35425  12.469   3.893   9.239  0.0120  0.3618  0.0879
41704SOL    HW135426  12.440   3.977   9.204 -1.7109 -0.0687  0.3902
41704SOL    HW235427  12.473   3.907   9.334 -0.7059  0.0172  0.1813
41705SOL     OW35428   7.195  12.233   9.382  0.1156  0.1716  0.1052
41705SOL    HW135429   7.108  12.229   9.344 -0.2667  0.5583  0.9202
41705SOL    HW235430   7.232  12.315   9.350 -0.3324  0.6617  0.8070
41706SOL     OW35431   3.852  10.117   8.593  0.1860 -0.2156  0.2156
41706SOL    HW135432   3.920  10.135   8.529  0.2397 -0.2808  0.2545
41706SOL    HW235433   3.896  10.068   8.662 -0.2044 -1.4919 -0.4247
41707SOL     OW35434   8.579  11.609  11.451  0.1960 -0.3619  0.0907
41707SOL    HW135435   8.618  11.522  11.441  0.4461 -0.1207 -1.1433
41707SOL    HW235436   8.644  11.669  11.415 -0.4782  0.2271 -0.1652
41708SOL     OW35437   0.424  12.115  12.669 -0.1817  0.3394 -0.2739
41708SOL    HW135438   0.380  12.200  12.673 -2.4914 -0.7805 -0.5685
41708SOL    HW235439   0.453  12.107  12.579 -2.5450 -0.3392 -1.0513
41709SOL     OW35440   7.607  12.383   4.706  0.0371 -0.2040  0.4071
41709SOL    HW135441   7.542  12.334   4.756  1.2284 -1.3425  0.9120
41709SOL    HW235442   7.683  12.387   4.764  0.3853  1.2235 -0.1050
41710SOL     OW35443   3.302   8.449  11.093 -0.4520  0.0650  0.3312
41710SOL    HW135444   3.346   8.478  11.013 -0.0264 -1.1356  0.1078
41710SOL    HW235445   3.319   8.518  11.156  0.8095  0.1618 -0.0896
41711SOL     OW35446   6.452  10.336   5.874 -0.2254  0.0410  0.2718
41711SOL    HW135447   6.513  10.387   5.926  1.4069 -0.4477 -1.0509
41711SOL    HW235448   6.487  10.247   5.876 -1.7282 -0.5828  0.6511
41712SOL     OW35449   0.309   5.631   9.904 -0.0394 -0.1628  0.1202
41712SOL    HW135450   0.367   5.687   9.852  0.9753 -0.0095  1.3771
41712SOL    HW235451   0.365   5.559   9.932 -1.0625 -1.2543 -0.5607
41713SOL     OW35452   7.958   4.533  10.909  0.2090 -0.2718  0.2253
41713SOL    HW135453   7.870   4.529  10.945 -0.9634 -1.4186 -2.5126
41713SOL    HW235454   7.975   4.444  10.877  2.1467  0.0672  0.2093
41714SOL     OW35455  11.359   4.100   7.161 -0.9823 -0.2699 -0.9112
41714SOL    HW135456  11.442   4.135   7.129 -0.0337 -2.4586 -1.0340
41714SOL    HW235457  11.292   4.141   7.106  0.1778  0.0704 -2.1032
41715SOL     OW35458   7.914   9.710   3.735  0.1191 -0.5785 -0.4142
41715SOL    HW135459   7.841   9.770   3.750  1.5528  1.3267 -0.6622
41715SOL    HW235460   7.948   9.734   3.649  1.1280 -1.3366 -0.2480
41716SOL     OW35461   9.101  12.346  11.898  0.3737 -0.6523 -0.1951
41716SOL    HW135462   9.156  12.372  11.825 -0.2898  0.3723 -0.3530
41716SOL    HW235463   9.119  12.410  11.967  0.2263 -0.9911  0.1664
41717SOL     OW35464   8.158   8.259   5.090  0.1028 -0.6733  0.7894
41717SOL    HW135465   8.106   8.199   5.036  0.0262 -0.7707  0.9714
41717SOL    HW235466   8.122   8.346   5.070  0.0774 -0.7084  0.6815
41718SOL     OW35467   5.585   0.286   2.176 -0.3471  0.3508  0.4302
41718SOL    HW135468   5.556   0.218   2.117 -0.5956  0.9765 -0.1821
41718SOL    HW235469   5.505   0.314   2.221 -0.2735  0.3545  0.5592
41719SOL     OW35470   3.731   0.955   1.407 -0.3106  0.7479  0.2928
41719SOL    HW135471   3.699   0.944   1.318  0.4007  1.6085 -0.0795
41719SOL    HW235472   3.652   0.968   1.460 -0.7005  0.7175 -0.2774
41720SOL     OW35473   2.751   1.745  12.502  0.1176 -0.0411  0.1952
41720SOL    HW135474   2.686   1.687  12.462 -2.0463  0.5724  2.5085
41720SOL    HW235475   2.728   1.832  12.471  0.9609  0.0014 -0.3247
41721SOL     OW35476   7.369   8.407   6.708  0.5307 -0.2331 -0.2168
41721SOL    HW135477   7.448   8.356   6.689  0.3539 -0.2464 -0.9587
41721SOL    HW235478   7.333   8.427   6.621 -1.6630 -2.3345  0.1141
41722SOL     OW35479   4.847   3.709   2.870  0.3196  0.3845  1.0260
41722SOL    HW135480   4.816   3.742   2.785  1.1070  2.0037  1.3318
41722SOL    HW235481   4.770   3.714   2.927  0.2756  1.1917  0.9112
41723SOL     OW35482   8.915  11.235   3.317 -0.4518 -0.1672  0.5851
41723SOL    HW135483   8.846  11.218   3.253 -0.7542  1.8603  0.3270
41723SOL    HW235484   8.953  11.319   3.291  2.1862 -1.2383  0.6787
41724SOL     OW35485   4.137   5.955   7.815  0.4664 -0.2062 -0.3071
41724SOL    HW135486   4.202   5.893   7.782  1.3711  0.5095  0.0961
41724SOL    HW235487   4.053   5.915   7.793  1.0283 -1.5094 -0.1868
41725SOL     OW35488   9.875   2.312  12.751 -0.0262 -0.1750 -0.4212
41725SOL    HW135489   9.817   2.252  12.705  0.1505 -0.7369  0.0687
41725SOL    HW235490   9.936   2.254  12.799  0.8950  0.3896 -0.8753
41726SOL     OW35491   9.263   6.327   6.311  0.0274 -0.1165  0.3819
41726SOL    HW135492   9.226   6.248   6.273  1.6993 -1.4407  1.3845
41726SOL    HW235493   9.355   6.327   6.285 -0.1110  2.0249 -0.3766
41727SOL     OW35494   5.640   3.955   9.435 -0.1766  0.1519 -0.3899
41727SOL    HW135495   5.691   4.026   9.473  1.4287 -0.7896 -0.6734
41727SOL    HW235496   5.689   3.876   9.457  0.0705 -0.5776 -3.1180
41728SOL     OW35497   2.852   6.388   0.288  0.6015 -0.1022  0.0575
41728SOL    HW135498   2.758   6.373   0.281  0.5724  0.2087 -0.2607
41728SOL    HW235499   2.861   6.438   0.369  0.4122  0.4757 -0.2694
41729SOL     OW35500   0.098  11.255   3.270  0.0791  0.1449 -0.2817
41729SOL    HW135501   0.096  11.348   3.247  1.5978  0.2256 -0.1507
41729SOL    HW235502   0.186  11.226   3.249  0.1909 -0.8395  1.3587
41730SOL     OW35503   8.702   0.660   7.252 -0.0105  0.1093 -0.3766
41730SOL    HW135504   8.668   0.585   7.301  4.0358 -2.0413 -0.3606
41730SOL    HW235505   8.701   0.632   7.161 -1.1647  1.3153 -0.7684
41731SOL     OW35506  11.236   9.336  10.323 -0.5121 -0.0414  0.5921
41731SOL    HW135507  11.172   9.358  10.390 -0.0974  0.3096  0.8836
41731SOL    HW235508  11.194   9.268  10.270  0.0701 -2.1360  2.6912
41732SOL     OW35509   8.372   1.421  12.165 -0.2401 -0.4464 -0.1094
41732SOL    HW135510   8.386   1.361  12.238 -0.2214 -0.5524 -0.1983
41732SOL    HW235511   8.361   1.363  12.089 -0.1381 -0.3338 -0.2109
41733SOL     OW35512  12.929   3.481   1.496  0.2492 -0.3366  0.4029
41733SOL    HW135513  13.014   3.442   1.475  0.6491  0.8070 -0.1582
41733SOL    HW235514  12.929   3.488   1.591  0.0583 -1.9032  0.5517
41734SOL     OW35515   7.451   1.763   1.343  1.0280  0.4469 -0.3197
41734SOL    HW135516   7.417   1.713   1.268 -0.1534  0.3179  0.2712
41734SOL    HW235517   7.425   1.854   1.324  1.1492  0.4875 -0.2909
41735SOL     OW35518  11.271   5.756   0.485 -1.0036 -0.0201  0.0763
41735SOL    HW135519  11.320   5.838   0.476 -0.3085 -0.5227 -0.8056
41735SOL    HW235520  11.242   5.735   0.396 -1.4354 -0.5820  0.3441
41736SOL     OW35521   5.807   2.390   3.327 -0.1575  0.3487  0.2705
41736SOL    HW135522   5.858   2.461   3.290  0.5885  0.9696  2.3399
41736SOL    HW235523   5.717   2.422   3.327 -0.1440  0.4012 -0.7873
41737SOL     OW35524  12.186   6.347  11.742  0.4283  0.9360 -0.3456
41737SOL    HW135525  12.137   6.336  11.823  0.9278 -1.0744 -0.2609
41737SOL    HW235526  12.210   6.258  11.716  0.6932  1.5689 -2.4517
41738SOL     OW35527   7.651   0.567   3.087 -0.0837 -0.4236  0.6694
41738SOL    HW135528   7.571   0.563   3.140 -1.0498  0.5100 -0.6521
41738SOL    HW235529   7.634   0.510   3.012  0.5752 -0.3674  0.4666
41739SOL     OW35530   5.010   2.468  11.276 -0.0614  0.2453  0.4132
41739SOL    HW135531   5.002   2.405  11.204  1.2604 -1.5545  1.7482
41739SOL    HW235532   5.099   2.502  11.267  0.1074  0.0169  1.1558
41740SOL     OW35533   4.694   0.672   1.951 -0.1113  0.2203  0.9209
41740SOL    HW135534   4.661   0.602   2.007  1.2218 -0.5125  0.8385
41740SOL    HW235535   4.778   0.697   1.990  0.3053  0.4843 -0.1008
41741SOL     OW35536   9.241   4.354   2.276 -0.1875  0.1197 -0.3020
41741SOL    HW135537   9.324   4.329   2.237 -0.3816 -2.1640  0.5670
41741SOL    HW235538   9.265   4.409   2.351  0.7760 -2.2534  1.2502
41742SOL     OW35539  11.128   3.262   1.626 -0.3313 -0.2394  0.3466
41742SOL    HW135540  11.144   3.338   1.571 -0.5461 -0.4098  0.0468
41742SOL    HW235541  11.216   3.230   1.649 -0.1942  1.0472  1.8197
41743SOL     OW35542   4.452   2.698   1.605  0.0676 -0.1332 -0.4441
41743SOL    HW135543   4.447   2.706   1.700  0.1664  2.1016 -0.5711
41743SOL    HW235544   4.363   2.674   1.578 -0.2814  0.4630  0.1376
41744SOL     OW35545   9.497  12.245   6.562 -0.5835 -0.0373  0.1158
41744SOL    HW135546   9.496  12.314   6.629 -0.1369 -1.2374  1.4114
41744SOL    HW235547   9.578  12.196   6.579 -0.4923 -0.4095 -1.2791
41745SOL     OW35548   4.459   5.105   5.119  0.3194  0.4561  0.0415
41745SOL    HW135549   4.515   5.032   5.143 -1.1678 -0.2244  1.5865
41745SOL    HW235550   4.410   5.074   5.043  1.1739  0.6349 -0.5949
41746SOL     OW35551   0.070   0.978   5.097 -0.5297 -0.3543 -0.1869
41746SOL    HW135552   0.146   0.933   5.060 -0.3308 -0.6403  0.5557
41746SOL    HW235553   0.056   0.936   5.181 -1.4451 -0.2210 -0.2652
41747SOL     OW35554   3.052   8.567   0.318 -0.4385 -0.0589 -0.1601
41747SOL    HW135555   3.021   8.479   0.337  0.4962 -0.0875  1.4021
41747SOL    HW235556   3.088   8.598   0.401 -2.3569  2.4910 -0.1391
41748SOL     OW35557   3.206   2.884   0.002  0.2059  0.4604  0.5099
41748SOL    HW135558   3.271   2.934  -0.047  0.2609 -1.0330 -1.0310
41748SOL    HW235559   3.236   2.794  -0.003 -1.6500 -0.1835  0.3075
41749SOL     OW35560   1.080   0.652   2.647 -0.3770  0.0903  0.4927
41749SOL    HW135561   1.029   0.586   2.693  0.2739  0.2747  1.5141
41749SOL    HW235562   1.030   0.733   2.658 -0.8951 -0.1200 -0.2829
41750SOL     OW35563  11.105   5.020  12.626 -0.6380  0.0702 -0.4217
41750SOL    HW135564  11.021   4.973  12.625 -0.1970 -0.7637  0.0987
41750SOL    HW235565  11.141   5.001  12.712  0.8610 -1.0301 -1.2379
41751SOL     OW35566   3.691  11.995   1.201  0.1707  0.1915 -0.4921
41751SOL    HW135567   3.705  11.903   1.180 -2.4066 -0.2088 -0.7077
41751SOL    HW235568   3.752  12.042   1.144 -0.3770 -1.2581 -2.3545
41752SOL     OW35569   9.462   0.947  10.605  0.3731 -0.4087  0.4916
41752SOL    HW135570   9.414   0.941  10.687  1.8358 -1.1612  1.3361
41752SOL    HW235571   9.421   1.020  10.558 -0.8084 -0.2873  1.6650
41753SOL     OW35572   1.786   1.538  11.330  0.0000  0.5820  0.0337
41753SOL    HW135573   1.872   1.578  11.317  0.5812 -0.2042  1.2234
41753SOL    HW235574   1.754   1.575  11.412 -0.4014  0.2176  0.0457
41754SOL     OW35575   2.704   0.490   0.820 -0.4034 -0.2970 -0.1930
41754SOL    HW135576   2.742   0.562   0.870 -0.9324  0.0922 -0.3473
41754SOL    HW235577   2.620   0.523   0.790 -1.6863 -1.7452  1.5866
41755SOL     OW35578   1.020   7.129   2.222 -0.3679  0.4949  0.0297
41755SOL    HW135579   0.948   7.157   2.278  0.5425 -0.1451  1.6002
41755SOL    HW235580   1.069   7.067   2.276  1.7277  1.3937 -0.7426
41756SOL     OW35581  11.731  10.582  10.822 -0.4087 -0.0129 -0.0425
41756SOL    HW135582  11.721  10.493  10.856  0.7365 -0.5214 -0.9927
41756SOL    HW235583  11.765  10.571  10.734  2.7003  1.3883  0.8358
41757SOL     OW35584   4.566   2.307   4.093 -0.2110  0.1050  0.2678
41757SOL    HW135585   4.530   2.219   4.078  3.2682 -1.3177 -1.0176
41757SOL    HW235586   4.585   2.309   4.186 -1.5878  0.0721  0.5645
41758SOL     OW35587   5.633  10.057   8.436  0.4780 -0.0641 -0.0122
41758SOL    HW135588   5.569  10.122   8.465  1.3695 -0.1850  2.4769
41758SOL    HW235589   5.679  10.100   8.364 -0.9627  0.8274 -0.4663
41759SOL     OW35590   0.506   0.035   2.844 -0.0755  0.1045 -0.3247
41759SOL    HW135591   0.576  -0.012   2.799 -1.9590 -2.7012 -0.5846
41759SOL    HW235592   0.520   0.016   2.937  0.3655  0.8635 -0.2263
41760SOL     OW35593   6.251   8.700  10.226  0.9830  0.1748  0.0838
41760SOL    HW135594   6.226   8.689  10.134 -0.3233  1.6701  0.2247
41760SOL    HW235595   6.344   8.678  10.228  0.9612 -0.2102 -1.5312
41761SOL     OW35596   0.866   9.986   1.748  0.0902 -0.1863 -0.0238
41761SOL    HW135597   0.868   9.951   1.659 -0.9187 -0.6408  0.1163
41761SOL    HW235598   0.861   9.909   1.805  1.0039  0.0852  0.4604
41762SOL     OW35599   6.298   9.572   8.243  0.3923  0.2422 -0.5701
41762SOL    HW135600   6.322   9.533   8.327 -0.0813 -1.9934 -1.3915
41762SOL    HW235601   6.205   9.591   8.251  0.7129  1.7228 -0.0181
41763SOL     OW35602   3.410   2.041   4.370  0.1014  0.5123  0.1538
41763SOL    HW135603   3.316   2.034   4.387  0.3634 -1.4993  1.0416
41763SOL    HW235604   3.418   2.118   4.314 -1.9714  1.2655  0.7732
41764SOL     OW35605   4.449   6.168   2.499  0.5586 -0.2833 -1.0273
41764SOL    HW135606   4.456   6.242   2.558  1.4416  0.2337 -1.7511
41764SOL    HW235607   4.461   6.205   2.412 -0.7270 -1.0242 -1.5605
41765SOL     OW35608   2.805  11.318   2.007 -0.5472 -0.5465 -0.2642
41765SOL    HW135609   2.824  11.245   1.948 -1.0604  0.3579 -1.5790
41765SOL    HW235610   2.715  11.343   1.986 -0.0840  1.0172 -0.4400
41766SOL     OW35611   9.589   2.389   4.787  0.9621 -0.1367  0.6095
41766SOL    HW135612   9.639   2.459   4.828  0.2832  0.4297  0.4884
41766SOL    HW235613   9.557   2.336   4.861 -1.6918  1.8382  1.0372
41767SOL     OW35614   5.895   7.063   9.734 -0.3050  0.0450 -0.2954
41767SOL    HW135615   5.952   7.138   9.717  1.3227 -0.9512  0.5077
41767SOL    HW235616   5.850   7.086   9.816 -0.5970  0.5630 -0.5946
41768SOL     OW35617   1.033   5.885   6.473 -0.1495 -0.5569  0.0233
41768SOL    HW135618   1.118   5.856   6.438  0.2439  2.6688 -2.0432
41768SOL    HW235619   1.050   5.899   6.567  1.0352 -1.7075  0.0232
41769SOL     OW35620   6.244   6.471   7.947  0.1977  0.2159 -0.4040
41769SOL    HW135621   6.200   6.388   7.930  0.4857 -0.0923  0.2895
41769SOL    HW235622   6.175   6.537   7.939  0.4214  0.2096 -3.3305
41770SOL     OW35623  10.662   6.255   1.101  0.2085  0.1085  0.3896
41770SOL    HW135624  10.640   6.320   1.034 -1.3823 -0.2073  0.5563
41770SOL    HW235625  10.643   6.299   1.184  0.8863  0.0465  0.5793
41771SOL     OW35626   5.727   9.485   7.942 -0.2224  0.4313  0.2482
41771SOL    HW135627   5.720   9.580   7.931  0.3279  0.5902  1.1659
41771SOL    HW235628   5.809   9.473   7.990  1.8822 -0.7957 -3.2863
41772SOL     OW35629  11.304   5.054  11.801 -0.1146  0.3108 -0.2679
41772SOL    HW135630  11.282   5.146  11.821 -0.6569  0.1942 -0.3159
41772SOL    HW235631  11.239   5.028  11.736 -0.0990 -0.1799 -0.0842
41773SOL     OW35632  10.098  11.022  12.910  0.5022  0.3723  0.1189
41773SOL    HW135633  10.033  11.088  12.932  0.3827  0.9059 -1.7018
41773SOL    HW235634  10.129  11.045  12.823  2.0666 -0.7278  0.3206
41774SOL     OW35635   3.950   0.375   0.835 -0.2740  0.8986  0.1597
41774SOL    HW135636   3.892   0.344   0.905  0.2706  1.0830  0.7021
41774SOL    HW235637   3.893   0.429   0.780 -0.8583  0.2400  0.0929
41775SOL     OW35638   6.059   1.868   4.088  0.5764 -0.0635 -0.7011
41775SOL    HW135639   5.980   1.921   4.081  1.4401  1.3706  0.0211
41775SOL    HW235640   6.113   1.896   4.014  0.3597 -1.1768 -1.3069
41776SOL     OW35641   5.462   3.890   8.377 -0.5580 -0.4702  0.0288
41776SOL    HW135642   5.505   3.884   8.293 -2.1265 -0.8434 -0.7962
41776SOL    HW235643   5.476   3.980   8.406  0.4563 -0.4964 -0.3591
41777SOL     OW35644   0.109   7.419   4.083 -0.0582 -0.0805 -0.2160
41777SOL    HW135645   0.015   7.429   4.097  0.4331  2.1896  2.3042
41777SOL    HW235646   0.134   7.497   4.035  0.7739  0.1680  0.6049
41778SOL     OW35647   6.745   1.577   4.690  0.0058  0.0392  0.2425
41778SOL    HW135648   6.746   1.571   4.595  1.0468  0.2850  0.2177
41778SOL    HW235649   6.657   1.549   4.716 -0.8661  1.6097 -0.8834
41779SOL     OW35650   5.300  12.691   1.604 -0.2863  0.3201 -0.2297
41779SOL    HW135651   5.265  12.604   1.590  2.3484 -0.7916 -0.6087
41779SOL    HW235652   5.317  12.696   1.698  1.5521 -0.4928 -0.4706
41780SOL     OW35653   8.790   5.882   2.648  0.2676 -0.7301  0.2854
41780SOL    HW135654   8.862   5.838   2.694  1.4230  0.5916 -0.2056
41780SOL    HW235655   8.804   5.975   2.663  0.9929 -0.1646 -3.0575
41781SOL     OW35656   1.083   1.963   0.581  0.1509 -0.6591 -0.0340
41781SOL    HW135657   1.081   1.885   0.526 -1.0014  0.0120 -1.0170
41781SOL    HW235658   0.991   1.978   0.603  0.1713  1.1504 -0.9809
41782SOL     OW35659  10.079   1.742   0.659  0.2138 -0.2616 -0.5427
41782SOL    HW135660   9.985   1.746   0.679  0.2174 -0.1938 -0.5416
41782SOL    HW235661  10.121   1.724   0.743  0.0814 -1.9118 -0.7813
41783SOL     OW35662  12.687   3.823   5.402  0.0778  0.7059  0.1627
41783SOL    HW135663  12.594   3.804   5.408 -0.3516  2.4941 -0.2203
41783SOL    HW235664  12.696   3.912   5.437  1.4191  1.0750 -1.0073
41784SOL     OW35665   5.075   8.842   1.988 -0.4693  0.4380  0.2155
41784SOL    HW135666   5.046   8.932   1.971  0.4490  0.3644 -2.2476
41784SOL    HW235667   5.146   8.828   1.925  0.6879 -1.4137  1.8129
41785SOL     OW35668  11.147   9.157   6.215  0.0300  0.2409  0.0100
41785SOL    HW135669  11.134   9.123   6.126  3.0144  0.6445 -0.6840
41785SOL    HW235670  11.206   9.231   6.204  1.1463 -0.2009  2.3986
41786SOL     OW35671  11.796   2.048   6.037 -0.1121  0.1083 -0.3865
41786SOL    HW135672  11.803   1.962   6.078 -1.2814 -0.7208 -1.8347
41786SOL    HW235673  11.708   2.078   6.060  0.8278  1.6679  1.4254
41787SOL     OW35674   5.468  10.219  12.854  0.1376  0.0941  0.4754
41787SOL    HW135675   5.470  10.134  12.899  4.0088 -0.3649 -0.1554
41787SOL    HW235676   5.481  10.196  12.761 -2.4946  1.2908 -0.2831
41788SOL     OW35677   3.321  12.840   5.031 -0.2842  0.4828 -0.0320
41788SOL    HW135678   3.327  12.901   4.958  0.8364 -0.5445 -0.8340
41788SOL    HW235679   3.283  12.760   4.994  0.2891 -0.0489  0.4923
41789SOL     OW35680   0.047   6.734   1.970 -0.0817  0.6622  0.9676
41789SOL    HW135681   0.136   6.770   1.977 -0.4111  1.5920  0.5228
41789SOL    HW235682  -0.008   6.810   1.950 -0.9585  0.0696  1.0869
41790SOL     OW35683   7.558   5.309   3.098  0.1001 -0.4220 -0.7694
41790SOL    HW135684   7.605   5.227   3.114 -0.8347 -1.0053 -0.8933
41790SOL    HW235685   7.497   5.316   3.171  1.9852  1.5862  0.7457
41791SOL     OW35686   9.519   1.573   8.339 -0.1036 -0.3291 -0.2025
41791SOL    HW135687   9.479   1.489   8.357  1.2127 -0.4075  3.2007
41791SOL    HW235688   9.610   1.563   8.368 -0.3428  2.6716  2.2071
41792SOL     OW35689   2.952   6.690   2.627  0.3942  0.3024  0.3181
41792SOL    HW135690   2.954   6.720   2.536  1.2206  1.5286  0.7147
41792SOL    HW235691   2.913   6.763   2.675 -1.3445 -0.8657  0.7965
41793SOL     OW35692   0.906   5.280   8.261  0.0826 -0.2908 -0.4033
41793SOL    HW135693   0.896   5.212   8.195  1.6666 -2.4068  1.3401
41793SOL    HW235694   0.935   5.232   8.340  0.4179  2.3192  1.1819
41794SOL     OW35695  11.926   9.699   6.572  0.5514 -0.0260 -0.1723
41794SOL    HW135696  11.928   9.713   6.666  0.9167  1.8777 -0.4418
41794SOL    HW235697  11.879   9.616   6.562  0.4325 -0.2217  1.6634
41795SOL     OW35698   6.867  10.463   1.480 -0.6158  0.3091 -0.2289
41795SOL    HW135699   6.858  10.372   1.509 -0.6561  0.4297  0.1525
41795SOL    HW235700   6.947  10.464   1.427 -0.2962  0.1618  0.2417
41796SOL     OW35701   8.285  12.051   2.847  0.0499  0.0802 -0.1369
41796SOL    HW135702   8.298  12.046   2.942 -0.0887 -0.3911 -0.1396
41796SOL    HW235703   8.348  12.118   2.818  0.4223 -0.1051  0.2255
41797SOL     OW35704   7.576   7.121   9.578  0.3886  0.2252  0.0468
41797SOL    HW135705   7.650   7.154   9.630  0.3537 -1.3017  1.1312
41797SOL    HW235706   7.585   7.165   9.493  3.1482 -0.6613 -0.2235
41798SOL     OW35707  12.207   9.269  12.599  0.1688  0.6638 -0.4638
41798SOL    HW135708  12.136   9.256  12.536 -0.9477 -0.7325  1.0026
41798SOL    HW235709  12.192   9.357  12.634 -2.3724 -0.4400  1.5416
41799SOL     OW35710   5.497   2.292   8.519  0.3858  0.4783 -0.2596
41799SOL    HW135711   5.475   2.328   8.605  1.9462 -0.2240  0.4758
41799SOL    HW235712   5.428   2.325   8.461 -1.4280 -0.0339  1.4679
41800SOL     OW35713   3.655   2.674   3.803 -0.1005 -0.6665  0.3131
41800SOL    HW135714   3.691   2.760   3.826 -0.0783 -1.0414  1.7697
41800SOL    HW235715   3.573   2.669   3.851  0.0613 -1.5915  0.5087
41801SOL     OW35716  12.960  12.414   6.161  0.2534 -0.2452  0.2090
41801SOL    HW135717  13.005  12.498   6.149  0.4051 -0.4939 -1.0302
41801SOL    HW235718  13.031  12.349   6.157 -0.1074 -0.5840 -1.0029
41802SOL     OW35719  11.312   4.047   2.198 -0.2306 -0.1472  0.0720
41802SOL    HW135720  11.370   4.119   2.173  1.0749 -1.4650 -0.8224
41802SOL    HW235721  11.272   4.076   2.280 -1.2693  2.4287 -1.2024
41803SOL     OW35722   7.549  10.917   2.604  0.0228 -0.1582  0.0240
41803SOL    HW135723   7.577  10.848   2.665  1.2328 -0.1778 -0.5313
41803SOL    HW235724   7.453  10.918   2.612  0.0888 -0.8082  1.2154
41804SOL     OW35725   4.090   8.900   7.501 -0.0798  0.4423  0.0221
41804SOL    HW135726   4.076   8.806   7.510  3.3244 -0.2193 -0.1794
41804SOL    HW235727   4.051   8.922   7.416 -0.5469 -0.8714 -0.1237
41805SOL     OW35728   6.456   9.206   4.212  0.6354 -0.0367  0.1665
41805SOL    HW135729   6.502   9.286   4.238 -0.3552  0.6407 -0.1029
41805SOL    HW235730   6.418   9.172   4.293  0.8604 -0.1067  0.2429
41806SOL     OW35731   8.282   7.996   1.526 -0.4632 -0.6146 -0.3071
41806SOL    HW135732   8.317   7.911   1.549  0.3937 -0.5120 -1.1967
41806SOL    HW235733   8.349   8.059   1.555 -0.0885 -0.3915 -1.5996
41807SOL     OW35734   0.959  12.876   5.319 -0.8000 -0.2371  0.3901
41807SOL    HW135735   0.939  12.871   5.412 -0.2659  1.5031  0.6271
41807SOL    HW235736   0.920  12.958   5.290  0.1964 -0.0920 -0.6138
41808SOL     OW35737   9.507  10.705   5.669  0.4267 -0.6474 -0.5040
41808SOL    HW135738   9.430  10.648   5.673 -0.2862  0.2103 -1.6773
41808SOL    HW235739   9.558  10.681   5.747 -1.9606  0.1198  1.4380
41809SOL     OW35740  11.280   1.992  10.873  0.3320  0.5461 -0.2955
41809SOL    HW135741  11.226   1.986  10.794 -1.8331 -0.4293  1.1532
41809SOL    HW235742  11.333   1.913  10.873 -0.1490  0.2245 -0.4331
41810SOL     OW35743   2.887   1.413   4.843 -0.9825  0.3554  0.3336
41810SOL    HW135744   2.878   1.365   4.925  0.4302  0.1628  0.4030
41810SOL    HW235745   2.979   1.402   4.819 -1.3835  0.3512 -1.3150
41811SOL     OW35746   6.894   7.762   8.228  0.3069 -0.4304 -0.1521
41811SOL    HW135747   6.842   7.842   8.235  0.7869 -0.2646  2.1366
41811SOL    HW235748   6.830   7.695   8.202 -0.5544  0.2521  0.1569
41812SOL     OW35749   9.200   9.046  11.429 -0.2465  0.7814  0.0899
41812SOL    HW135750   9.293   9.025  11.422 -0.3283  0.1358  0.7356
41812SOL    HW235751   9.156   8.961  11.432 -0.6800  1.0183  1.7538
41813SOL     OW35752   0.576   7.409   2.750  0.4307 -0.0543 -0.3669
41813SOL    HW135753   0.551   7.361   2.829  1.6624 -0.7873 -0.3982
41813SOL    HW235754   0.500   7.464   2.731  0.3695  0.7214  1.7640
41814SOL     OW35755   2.373   9.476  12.566 -0.0544 -0.4510 -0.5493
41814SOL    HW135756   2.282   9.473  12.537 -0.2590 -0.6675  0.0923
41814SOL    HW235757   2.416   9.537  12.507 -0.7998  0.2779 -0.3447
41815SOL     OW35758   3.621   3.126   3.750 -0.5034  0.1426 -0.0826
41815SOL    HW135759   3.586   3.199   3.699 -1.2448  0.7804  1.2898
41815SOL    HW235760   3.679   3.166   3.814 -1.8167 -0.2885  1.4643
41816SOL     OW35761   1.839   6.083   6.413  0.2363 -0.3102 -0.0255
41816SOL    HW135762   1.783   6.090   6.335  0.4634  0.7670 -0.1055
41816SOL    HW235763   1.835   5.990   6.437 -1.1435 -0.3500 -0.3511
41817SOL     OW35764   5.007   8.046   1.608 -0.0734 -0.0640  0.5937
41817SOL    HW135765   4.994   7.951   1.616 -0.1536  0.0811  2.6046
41817SOL    HW235766   4.985   8.081   1.695  3.2863  1.4088  0.9900
41818SOL     OW35767   5.273   1.333   9.157 -0.2090 -0.7683 -0.1608
41818SOL    HW135768   5.190   1.362   9.120  0.2580  0.4738 -0.2784
41818SOL    HW235769   5.250   1.293   9.241 -0.9524 -0.7663 -0.3619
41819SOL     OW35770   5.698  10.017   9.193 -0.6782  0.0363  0.8630
41819SOL    HW135771   5.737  10.085   9.138  2.6496 -1.8296  0.6450
41819SOL    HW235772   5.655   9.957   9.132  1.3573 -1.0045  0.3617
41820SOL     OW35773   5.754   1.577   5.475  0.8178  0.8232  0.3067
41820SOL    HW135774   5.793   1.490   5.469  1.3867  1.0741  0.2957
41820SOL    HW235775   5.763   1.601   5.567 -0.6672  0.2754  0.6249
41821SOL     OW35776   2.789   9.803   4.928 -0.3908  0.0611 -0.2941
41821SOL    HW135777   2.835   9.776   5.007  0.4139  0.1275 -0.7347
41821SOL    HW235778   2.696   9.794   4.951 -0.1923  0.9010  0.9357
41822SOL     OW35779  10.459   7.752   5.296  0.7936  0.1649 -0.1364
41822SOL    HW135780  10.505   7.776   5.216  1.8760 -0.4999  0.2714
41822SOL    HW235781  10.444   7.836   5.341 -0.2560  0.5970 -1.2304
41823SOL     OW35782   4.974   8.860   8.753 -0.8552  0.4066  0.9708
41823SOL    HW135783   5.051   8.804   8.741 -1.0665  0.3884 -0.4501
41823SOL    HW235784   4.926   8.819   8.825  0.3668  0.3287  1.7831
41824SOL     OW35785   9.882   8.602   9.503 -0.1312 -0.1135 -0.3549
41824SOL    HW135786   9.916   8.569   9.587  0.3052 -0.1483 -0.5415
41824SOL    HW235787   9.820   8.670   9.527  1.5242  1.3505 -0.0252
41825SOL     OW35788   0.069  11.317  11.457 -0.0517 -0.6158 -0.1875
41825SOL    HW135789   0.005  11.381  11.488  0.2823 -1.6419  3.0377
41825SOL    HW235790   0.029  11.277  11.380 -0.6130  2.7759 -1.8613
41826SOL     OW35791   7.855   7.434   6.002  0.1153 -0.3268 -0.6058
41826SOL    HW135792   7.883   7.347   6.028 -1.1123 -0.4935  0.2503
41826SOL    HW235793   7.774   7.420   5.953 -1.4305  0.4306  1.5881
41827SOL     OW35794   0.388   9.338   6.331  0.2796 -0.3876 -0.7464
41827SOL    HW135795   0.336   9.285   6.391  0.4077 -0.9245 -1.0975
41827SOL    HW235796   0.419   9.276   6.266  1.7613 -0.1838 -0.2784
41828SOL     OW35797   9.754  12.571  10.335 -0.1541  0.6987  0.5529
41828SOL    HW135798   9.832  12.574  10.280  0.9525  1.2420  2.0798
41828SOL    HW235799   9.729  12.663  10.345  0.0577  0.6684  1.4600
41829SOL     OW35800   9.462   5.368   6.699 -0.4529  0.0911  0.0230
41829SOL    HW135801   9.511   5.292   6.730 -1.7728 -0.7021  0.2273
41829SOL    HW235802   9.530   5.428   6.666  0.6026 -1.1859 -0.2190
41830SOL     OW35803   2.576  11.832  11.076 -0.3433 -0.1094  0.0976
41830SOL    HW135804   2.551  11.756  11.024 -3.3969  0.5398  0.4530
41830SOL    HW235805   2.565  11.907  11.017 -0.9262  0.3618  0.7882
41831SOL     OW35806  11.201   5.503   6.502 -0.1679 -0.5318 -0.1613
41831SOL    HW135807  11.123   5.450   6.484 -0.4883  0.0330 -0.4425
41831SOL    HW235808  11.251   5.501   6.421  0.6497 -1.7747  0.3449
41832SOL     OW35809   4.024   7.498   1.629  0.1446  0.1465 -0.2374
41832SOL    HW135810   3.967   7.455   1.565 -0.8837  1.8986 -0.5470
41832SOL    HW235811   3.974   7.496   1.711  0.9275 -0.9443  0.2532
41833SOL     OW35812  10.666   7.822   4.605  0.0574 -0.7376 -0.0755
41833SOL    HW135813  10.637   7.733   4.585  0.7532 -1.1536  0.6763
41833SOL    HW235814  10.586   7.874   4.607 -0.3199 -1.2741 -0.8819
41834SOL     OW35815  11.356  12.578   1.332 -0.0998 -0.3334 -0.4824
41834SOL    HW135816  11.430  12.605   1.278  0.5256  0.8876  0.8970
41834SOL    HW235817  11.396  12.531   1.406 -0.9073 -1.7376 -0.9043
41835SOL     OW35818   5.885   3.575   6.871 -0.0951 -0.5992  0.5183
41835SOL    HW135819   5.809   3.520   6.856  0.7055 -1.7981  0.7745
41835SOL    HW235820   5.952   3.541   6.811 -0.1536  1.3414 -0.7626
41836SOL     OW35821   2.513  11.058   5.020  0.5762  0.1119 -0.1383
41836SOL    HW135822   2.447  11.039   5.087  0.1497 -0.8444 -0.8127
41836SOL    HW235823   2.535  11.150   5.034 -1.3958  0.6447 -0.3148
41837SOL     OW35824  12.545   2.084  12.327 -0.6772 -0.6048  0.3841
41837SOL    HW135825  12.497   2.017  12.277  1.9598 -2.3005 -0.0526
41837SOL    HW235826  12.538   2.055  12.418  0.7100 -1.7454  0.1696
41838SOL     OW35827   7.109   4.405  12.761  0.3734 -0.1894 -0.3473
41838SOL    HW135828   7.049   4.331  12.752  0.4609 -0.0578 -2.3736
41838SOL    HW235829   7.196   4.366  12.764  0.4375 -0.1875 -1.6842
41839SOL     OW35830  12.437  12.312  12.505 -0.4957 -0.1385  0.3991
41839SOL    HW135831  12.527  12.328  12.535 -0.4001 -0.9358  0.5705
41839SOL    HW235832  12.423  12.219  12.523 -0.4698 -0.6529 -1.9937
41840SOL     OW35833  12.026  11.491   5.593  0.0459  0.2799 -0.0528
41840SOL    HW135834  12.073  11.448   5.665 -1.2022 -0.5056  0.3324
41840SOL    HW235835  11.959  11.427   5.568  0.3844  0.5884 -1.8481
41841SOL     OW35836  10.325   6.028   2.386  0.4148  0.0047 -0.8032
41841SOL    HW135837  10.348   5.940   2.357  0.2288 -0.4745  0.4314
41841SOL    HW235838  10.242   6.017   2.433  0.8200  0.6846  0.0933
41842SOL     OW35839  11.752   9.339  11.304  0.0577  0.0884  0.9730
41842SOL    HW135840  11.840   9.379  11.307 -0.6340  2.1100 -1.7275
41842SOL    HW235841  11.768   9.249  11.276  1.2685  1.1264 -2.1635
41843SOL     OW35842   1.487   3.385  10.432 -0.1236  0.3245 -0.7041
41843SOL    HW135843   1.560   3.367  10.374 -0.2280 -1.0953 -0.4358
41843SOL    HW235844   1.439   3.302  10.437 -2.5258  1.5395 -1.9113
41844SOL     OW35845   8.396  12.955   7.149  0.3167  0.4219  0.2100
41844SOL    HW135846   8.414  13.041   7.110  1.8360  0.2390  0.4452
41844SOL    HW235847   8.301  12.955   7.163 -0.1151  1.0182 -2.2156
41845SOL     OW35848   8.589   0.286   5.789  0.0045 -0.0510 -0.3591
41845SOL    HW135849   8.511   0.288   5.845  0.0676  1.4916 -0.2796
41845SOL    HW235850   8.659   0.254   5.846 -0.4391 -0.8796 -0.2683
41846SOL     OW35851  10.888   5.499   8.033  0.0211  0.3182 -0.2871
41846SOL    HW135852  10.885   5.441   7.956  0.0974 -0.4233  0.2610
41846SOL    HW235853  10.925   5.445   8.102 -1.1202  0.6222  0.5848
41847SOL     OW35854  12.257  10.324   6.064  0.0117 -0.0972  0.1699
41847SOL    HW135855  12.183  10.369   6.106 -1.6017 -1.1626 -1.3611
41847SOL    HW235856  12.326  10.324   6.130 -0.8950  2.0722  1.2181
41848SOL     OW35857  11.332   7.448   3.748 -0.3161  0.2111  0.5101
41848SOL    HW135858  11.422   7.417   3.753  0.0734  1.2228 -0.0762
41848SOL    HW235859  11.298   7.435   3.837  0.1493 -0.8818  0.5515
41849SOL     OW35860   1.988   7.927   4.606 -0.0459  0.1739  0.0426
41849SOL    HW135861   1.993   7.962   4.695 -0.6973 -0.7974  0.4761
41849SOL    HW235862   2.042   7.987   4.554  1.1519  0.2095  1.2542
41850SOL     OW35863  11.455  11.042   6.727  0.0054 -0.3556 -0.3866
41850SOL    HW135864  11.366  11.019   6.699  0.0345 -1.4934  0.4133
41850SOL    HW235865  11.483  10.968   6.781  0.6747  0.9155  1.0671
41851SOL     OW35866  10.618  12.182  10.273  0.0610 -0.2952  0.0880
41851SOL    HW135867  10.595  12.126  10.347  0.2218 -0.1961  0.2121
41851SOL    HW235868  10.657  12.260  10.313 -1.2288  0.4326 -0.0212
41852SOL     OW35869   9.930   9.156   4.325  0.1072  0.6305  0.6339
41852SOL    HW135870   9.845   9.114   4.343  0.5879 -0.1763  1.0799
41852SOL    HW235871   9.942   9.145   4.230  0.4037 -0.6161  0.7971
41853SOL     OW35872   9.085   9.858   5.219  0.3884 -0.6373  0.2926
41853SOL    HW135873   8.999   9.872   5.179  0.4515  0.5573  0.5455
41853SOL    HW235874   9.113   9.773   5.185  0.9249  0.7342 -3.0474
41854SOL     OW35875   7.414   8.343   7.349  0.1903 -0.7023  0.4266
41854SOL    HW135876   7.417   8.436   7.368 -0.0848 -0.9156  1.5628
41854SOL    HW235877   7.499   8.324   7.310  1.1416 -0.3936  2.2531
41855SOL     OW35878  10.849  10.110  10.670 -0.0522 -0.0137  0.1866
41855SOL    HW135879  10.796  10.168  10.615  1.6382  2.4608  1.0253
41855SOL    HW235880  10.934  10.107  10.628  0.4839 -0.2626  1.2526
41856SOL     OW35881   0.748  10.303   9.083 -0.1105 -0.2290  0.4843
41856SOL    HW135882   0.713  10.384   9.048  1.0071 -0.3134 -0.9052
41856SOL    HW235883   0.743  10.313   9.178 -1.0883  0.9543  0.3244
41857SOL     OW35884   0.476  11.271   7.763  0.3047 -0.0287 -0.3010
41857SOL    HW135885   0.505  11.193   7.716 -0.9804 -0.6875 -0.0449
41857SOL    HW235886   0.479  11.246   7.855 -2.0025 -0.5272 -0.2855
41858SOL     OW35887  12.960  11.665  12.711 -0.0638  0.6774 -0.9154
41858SOL    HW135888  12.869  11.647  12.732  0.7269  0.0324  2.4949
41858SOL    HW235889  12.985  11.596  12.650 -1.3954 -0.1816 -0.5234
41859SOL     OW35890   2.812   7.862  11.603 -0.0101 -0.0885  0.2242
41859SOL    HW135891   2.753   7.925  11.560 -0.8720 -1.6479 -1.0146
41859SOL    HW235892   2.754   7.809  11.657  0.5477 -0.4209  0.5012
41860SOL     OW35893   2.595   9.434   1.451 -0.1150  0.3851 -0.5218
41860SOL    HW135894   2.510   9.472   1.428 -0.1571  0.7597  0.2186
41860SOL    HW235895   2.657   9.479   1.394 -0.2191  1.2897  0.0534
41861SOL     OW35896   3.327  12.212   7.819  0.6054  0.1885 -0.5082
41861SOL    HW135897   3.388  12.248   7.883 -0.0807  1.3161 -0.4602
41861SOL    HW235898   3.269  12.156   7.870  0.3631  0.6990 -0.2145
41862SOL     OW35899   8.566   5.163   6.283  0.2273  0.0172 -0.4626
41862SOL    HW135900   8.606   5.243   6.318 -0.7221  0.6451 -0.7719
41862SOL    HW235901   8.474   5.170   6.306 -0.0404 -0.5471 -1.3069
41863SOL     OW35902  11.435   9.418   5.223  0.0861  0.0224 -0.2204
41863SOL    HW135903  11.460   9.470   5.299 -1.6534 -1.8903  1.7895
41863SOL    HW235904  11.354   9.373   5.249  1.0938 -3.1711 -2.0086
41864SOL     OW35905   9.325  12.570   2.846  0.2227  0.3410  0.3768
41864SOL    HW135906   9.244  12.521   2.862  0.7364 -0.5461  0.3535
41864SOL    HW235907   9.354  12.539   2.761 -0.1442  1.7154 -0.2773
41865SOL     OW35908  11.618   8.323  12.303  0.4291  0.2619  0.0405
41865SOL    HW135909  11.632   8.293  12.393  0.0155  1.5194  0.5400
41865SOL    HW235910  11.703   8.310  12.260  0.3359 -1.3643  0.2839
41866SOL     OW35911   0.448   4.037   4.610  0.2281 -0.0779 -0.1926
41866SOL    HW135912   0.430   4.122   4.571  1.2125  1.8151  3.0450
41866SOL    HW235913   0.544   4.030   4.612  0.1656 -1.4813 -0.7742
41867SOL     OW35914   9.042   7.723   3.937 -0.4216 -0.3907 -0.3411
41867SOL    HW135915   9.095   7.746   3.860 -1.2075 -1.7045 -1.2954
41867SOL    HW235916   8.963   7.777   3.929  0.5234  1.3090  0.9007
41868SOL     OW35917  12.705   8.714   7.408 -1.2936  0.1037  0.1542
41868SOL    HW135918  12.717   8.746   7.319  1.3156 -0.3188  0.2745
41868SOL    HW235919  12.660   8.630   7.397 -1.1903  0.1583 -0.7499
41869SOL     OW35920   4.982   1.302   3.423  0.5514  0.6118  0.2207
41869SOL    HW135921   4.912   1.362   3.394  0.6066  0.1306 -0.9570
41869SOL    HW235922   4.935   1.225   3.454  0.5407  0.1325 -0.9276
41870SOL     OW35923   0.849   6.065   3.389 -0.8241  0.4994  0.0443
41870SOL    HW135924   0.780   6.017   3.435 -2.2553  0.9535 -1.5240
41870SOL    HW235925   0.804   6.110   3.319  0.6230  3.3086  0.7751
41871SOL     OW35926   7.383   4.697   6.593  0.7592 -0.6168 -0.2025
41871SOL    HW135927   7.477   4.695   6.606  0.5689 -1.0665  1.3743
41871SOL    HW235928   7.347   4.666   6.676 -0.7643 -0.9675 -0.9568
41872SOL     OW35929   1.918  11.067   6.899 -0.4366  0.1046  0.3215
41872SOL    HW135930   1.998  11.099   6.939 -0.0032  0.1955 -0.5825
41872SOL    HW235931   1.847  11.113   6.945  0.0856  0.9010  0.3392
41873SOL     OW35932   3.912   1.308   5.158 -0.2363  0.2367  0.0937
41873SOL    HW135933   3.972   1.375   5.124 -1.1971  1.9072  1.5247
41873SOL    HW235934   3.927   1.308   5.252 -0.4507 -1.4326  0.1608
41874SOL     OW35935   0.463  10.339   9.225 -0.0679 -0.0186  0.0038
41874SOL    HW135936   0.472  10.409   9.290 -1.4573  1.7916 -1.6192
41874SOL    HW235937   0.486  10.381   9.142 -0.6279 -1.5912 -0.9834
41875SOL     OW35938   2.867   4.481   0.167  0.4031  0.3114 -0.2189
41875SOL    HW135939   2.860   4.497   0.261  0.2494  0.2885 -0.2267
41875SOL    HW235940   2.908   4.560   0.132  0.9038  0.1272 -0.0683
41876SOL     OW35941   5.700   1.391   9.003  0.3832  0.0396  0.1492
41876SOL    HW135942   5.769   1.334   8.967 -0.1203 -0.0048 -0.7899
41876SOL    HW235943   5.619   1.340   8.991  0.0508  0.5497  0.2132
41877SOL     OW35944   1.114  12.911   6.003 -0.0355  0.2834 -0.1115
41877SOL    HW135945   1.119  12.815   6.001  1.4383  0.3347 -1.5096
41877SOL    HW235946   1.205  12.939   6.015 -0.2821  1.5036 -0.9549
41878SOL     OW35947   3.716   9.126   5.616  0.6612  0.0871  0.4406
41878SOL    HW135948   3.741   9.163   5.701  0.7013  0.6763  0.1769
41878SOL    HW235949   3.658   9.054   5.638  0.9025  0.0484  0.9826
41879SOL     OW35950   1.895  10.322  11.409  0.1178  0.5697 -0.5405
41879SOL    HW135951   1.959  10.393  11.413  0.2104  0.4840 -0.4841
41879SOL    HW235952   1.948  10.243  11.396 -0.0332  0.6103 -1.4724
41880SOL     OW35953  11.135   1.329   1.350  0.0280 -0.4161 -0.2213
41880SOL    HW135954  11.202   1.289   1.405 -1.1008 -1.0143  0.7809
41880SOL    HW235955  11.166   1.315   1.261  1.6955  0.2011  0.2149
41881SOL     OW35956   0.534  12.033   0.142  0.2556 -0.2081 -0.5274
41881SOL    HW135957   0.601  12.082   0.094  0.7721 -0.1104  0.2606
41881SOL    HW235958   0.456  12.038   0.088  0.4195  1.1268 -0.6655
41882SOL     OW35959   6.311   1.660   3.493  0.5907  0.4171  0.1284
41882SOL    HW135960   6.360   1.646   3.412  1.0511  0.0759  0.4662
41882SOL    HW235961   6.228   1.699   3.464  0.3661 -0.5664 -0.5909
41883SOL     OW35962   1.084   1.481   0.264 -0.7179  0.0738 -0.3024
41883SOL    HW135963   1.058   1.389   0.265 -0.5300  0.0228  0.2503
41883SOL    HW235964   1.169   1.482   0.220 -1.7207  0.2753 -2.3871
41884SOL     OW35965   4.210   6.790  11.695 -0.0398  0.0070  0.5231
41884SOL    HW135966   4.271   6.839  11.750  0.8863 -1.3045  0.6826
41884SOL    HW235967   4.248   6.794  11.607 -0.3805  0.2365  0.3822
41885SOL     OW35968  12.250   9.884   3.749 -0.3642  0.4206 -0.0978
41885SOL    HW135969  12.158   9.857   3.742 -0.9689  2.2860  0.3034
41885SOL    HW235970  12.256   9.962   3.694  1.0740  0.1682 -0.3399
41886SOL     OW35971   4.705   1.475   5.545 -0.4120 -0.0168  0.4640
41886SOL    HW135972   4.657   1.547   5.586 -1.2594 -0.7776  0.8397
41886SOL    HW235973   4.755   1.517   5.475 -3.3424  0.5671 -1.4551
41887SOL     OW35974  12.356  10.972  12.055 -0.1592  0.1087 -0.6227
41887SOL    HW135975  12.389  11.047  12.005 -0.1372  1.4920  1.3738
41887SOL    HW235976  12.285  11.008  12.109 -3.1960 -2.2031 -2.7084
41888SOL     OW35977   9.218  11.292  12.545 -0.3941 -0.3333  0.3207
41888SOL    HW135978   9.182  11.204  12.544 -1.7614  0.2018 -0.4229
41888SOL    HW235979   9.270  11.296  12.625  1.3785 -2.4338 -0.6267
41889SOL     OW35980   2.138   5.265   9.357  0.5333 -0.2594 -0.0227
41889SOL    HW135981   2.216   5.263   9.302  0.5479  2.5646 -0.2750
41889SOL    HW235982   2.171   5.277   9.446  0.4489  1.1420 -0.1519
41890SOL     OW35983  10.171   6.785   5.528  0.5732 -0.3502 -0.3762
41890SOL    HW135984  10.159   6.784   5.433  1.8363 -1.8302 -0.5712
41890SOL    HW235985  10.174   6.692   5.552 -0.5137 -0.0031  1.2413
41891SOL     OW35986   7.196   4.397   5.337  0.3790 -0.4544 -0.1701
41891SOL    HW135987   7.152   4.473   5.375 -1.9131 -0.6650 -2.1463
41891SOL    HW235988   7.168   4.324   5.393 -0.4090 -0.3371 -0.3947
41892SOL     OW35989   6.435   2.673   0.499  0.8127 -0.1142  0.0272
41892SOL    HW135990   6.483   2.695   0.419  1.6093  1.2390  0.8315
41892SOL    HW235991   6.343   2.677   0.474  1.0532  0.3523 -0.8176
41893SOL     OW35992   4.922   7.263   6.808 -0.1605  0.2676 -0.1370
41893SOL    HW135993   4.956   7.174   6.819 -0.1012 -0.1061 -2.7410
41893SOL    HW235994   4.984   7.305   6.749  1.1466  2.9246  2.7999
41894SOL     OW35995   9.343   4.725   2.602  0.0490  0.0138 -0.4733
41894SOL    HW135996   9.288   4.646   2.610 -2.4911  1.5127 -1.8399
41894SOL    HW235997   9.408   4.701   2.536 -1.0092 -0.8401 -1.2656
41895SOL     OW35998   9.193   1.857   9.405 -0.1557 -0.1570 -0.3198
41895SOL    HW135999   9.253   1.788   9.376 -0.7657 -1.2682  0.9020
41895SOL    HW236000   9.222   1.935   9.359  1.7356 -0.8235 -0.3698
41896SOL     OW36001   3.530  10.036   1.818  0.1282  0.0898 -0.6026
41896SOL    HW136002   3.437  10.044   1.839 -0.3087 -1.5119 -1.7428
41896SOL    HW236003   3.574  10.088   1.885 -1.3789 -1.6408  1.9133
41897SOL     OW36004   1.047   9.666   5.903  0.2224 -0.5994  0.0825
41897SOL    HW136005   1.005   9.751   5.889 -2.1411 -1.1901  2.6263
41897SOL    HW236006   1.115   9.684   5.968  0.5557 -0.4504 -0.3075
41898SOL     OW36007   2.179   6.650   6.929 -0.5709 -0.0337 -0.1440
41898SOL    HW136008   2.127   6.594   6.872 -0.7147 -1.9303  1.7309
41898SOL    HW236009   2.160   6.620   7.018  2.1361  0.5628  0.7621
41899SOL     OW36010   2.236  12.704   0.220 -0.1003  0.5023 -0.7388
41899SOL    HW136011   2.222  12.749   0.303  1.6844  0.3553 -0.3089
41899SOL    HW236012   2.268  12.773   0.161  0.0203  0.3318 -0.8748
41900SOL     OW36013   4.992   0.567   7.681 -0.4708  0.4981  0.5185
41900SOL    HW136014   5.007   0.478   7.650 -1.5152 -0.0181  1.4636
41900SOL    HW236015   4.994   0.561   7.776 -1.5257  1.2961  0.6099
41901SOL     OW36016  12.463   4.698   1.753  0.8696  0.1431  0.1723
41901SOL    HW136017  12.404   4.711   1.678  0.6331  0.7568  0.4530
41901SOL    HW236018  12.442   4.771   1.811  1.1581 -0.2497  0.7687
41902SOL     OW36019  11.377   6.846   3.256  0.5139 -0.0004 -0.5480
41902SOL    HW136020  11.414   6.777   3.200 -0.2335  0.5914 -1.8219
41902SOL    HW236021  11.445   6.862   3.322  0.4121 -2.4349  0.2307
41903SOL     OW36022   5.821  12.741   2.178 -0.6853  0.3496  0.2572
41903SOL    HW136023   5.739  12.691   2.179 -1.2586  1.2301  2.6015
41903SOL    HW236024   5.793  12.832   2.175  0.2599  0.6379 -0.0987
41904SOL     OW36025   4.587   3.389   1.148 -0.0654  0.0569 -0.0646
41904SOL    HW136026   4.661   3.388   1.208  0.9728  0.0553 -1.2840
41904SOL    HW236027   4.584   3.479   1.115 -1.2437  0.3194  0.6915
41905SOL     OW36028   6.291  11.794   4.122 -0.1142  0.0886  0.2279
41905SOL    HW136029   6.215  11.781   4.065 -0.5794 -2.4175  1.2699
41905SOL    HW236030   6.343  11.861   4.078 -0.4631 -1.6442 -3.1316
41906SOL     OW36031  10.963   6.830   2.684 -0.4603 -0.0213  0.4240
41906SOL    HW136032  11.037   6.887   2.662 -0.4770 -0.3808 -0.6229
41906SOL    HW236033  10.892   6.891   2.702 -0.0835  0.3180  0.7917
41907SOL     OW36034   6.682   3.573   5.807  0.3635  0.4471  0.0740
41907SOL    HW136035   6.592   3.604   5.814  0.2267  0.3313 -1.0210
41907SOL    HW236036   6.735   3.653   5.812  0.2294  0.4904  0.9908
41908SOL     OW36037   2.207   3.753   0.077 -0.1354  0.0001  0.8088
41908SOL    HW136038   2.172   3.778  -0.009 -2.5339  1.4274  2.0796
41908SOL    HW236039   2.226   3.660   0.069  2.3221  0.5937 -2.0299
41909SOL     OW36040   4.117  10.281   7.978  0.5620 -0.6402  0.2056
41909SOL    HW136041   4.167  10.333   8.040  0.5739  1.1288 -1.2103
41909SOL    HW236042   4.027  10.314   7.986  0.5664 -0.3904 -0.6972
41910SOL     OW36043   5.471   1.242   5.807 -0.7764 -0.2949  0.4329
41910SOL    HW136044   5.406   1.292   5.758 -0.3898  0.9310  1.1294
41910SOL    HW236045   5.509   1.305   5.868  0.4363 -1.2050  0.6618
41911SOL     OW36046   2.738   2.489   4.580 -0.5569 -0.4441 -0.2178
41911SOL    HW136047   2.750   2.397   4.559 -1.5927 -0.1622 -2.3903
41911SOL    HW236048   2.743   2.533   4.495 -1.8706  1.2925  0.5416
41912SOL     OW36049   0.318   9.170   8.218 -0.5109 -0.0990  0.1395
41912SOL    HW136050   0.409   9.192   8.237 -0.6943  0.5805  0.2344
41912SOL    HW236051   0.270   9.252   8.230 -1.0470 -0.3106 -0.4886
41913SOL     OW36052   0.996   0.281   1.247 -0.2355  0.1757 -0.4377
41913SOL    HW136053   0.956   0.320   1.169 -0.6698  1.1570  0.2478
41913SOL    HW236054   0.925   0.234   1.290  0.1979 -1.0927 -1.0523
41914SOL     OW36055   9.353  12.157  10.559  0.1167 -0.1574 -0.2410
41914SOL    HW136056   9.314  12.210  10.490 -1.4306 -0.6131  0.2309
41914SOL    HW236057   9.424  12.210  10.594 -0.9877  1.3523 -0.2045
41915SOL     OW36058   5.464   1.294   7.487 -0.7385  0.7619  0.3089
41915SOL    HW136059   5.467   1.251   7.401 -2.8477  2.0875 -0.5098
41915SOL    HW236060   5.374   1.326   7.494 -0.4252  1.2738  2.7559
41916SOL     OW36061  12.145   8.895   0.436 -0.1974 -0.8874 -0.2876
41916SOL    HW136062  12.059   8.882   0.396  0.4884 -2.1026 -1.4285
41916SOL    HW236063  12.206   8.898   0.363  0.6815  0.8505  0.4421
41917SOL     OW36064   0.161  10.043   8.565 -0.1494 -0.0003  0.3034
41917SOL    HW136065   0.132  10.013   8.479 -1.9907 -1.2449  1.3115
41917SOL    HW236066   0.237   9.988   8.585 -0.8182 -0.9900  0.2210
41918SOL     OW36067   5.490   0.443   3.178  0.7494 -0.5090  0.1629
41918SOL    HW136068   5.510   0.415   3.088  2.4269  0.2136  0.2696
41918SOL    HW236069   5.512   0.367   3.232 -2.3946 -1.7775 -0.1344
41919SOL     OW36070  10.643   5.713   8.695  0.2100 -0.7542 -0.6723
41919SOL    HW136071  10.596   5.774   8.639 -1.1868 -0.7851  0.4141
41919SOL    HW236072  10.601   5.628   8.678 -1.3323 -0.5055  1.5089
41920SOL     OW36073   3.286  10.376   5.687 -0.4105  0.4436  0.5058
41920SOL    HW136074   3.368  10.395   5.732  1.4931 -1.3214 -1.9251
41920SOL    HW236075   3.280  10.441   5.618  0.6130 -1.1556 -1.1901
41921SOL     OW36076  12.980   8.080   7.055 -0.7297  0.1729 -0.2982
41921SOL    HW136077  13.022   8.005   7.014 -0.7159 -0.6255  1.1123
41921SOL    HW236078  12.912   8.107   6.993 -0.1009 -0.3958 -1.2515
41922SOL     OW36079   1.554  11.358  10.153  0.2832 -0.3534  0.1430
41922SOL    HW136080   1.554  11.262  10.147  0.6253 -0.3371 -0.1035
41922SOL    HW236081   1.462  11.381  10.164  0.1266 -0.6696 -0.4723
41923SOL     OW36082   3.483   3.115  10.525  0.6605  0.3298  0.0263
41923SOL    HW136083   3.474   3.209  10.536  0.8870  0.3831 -0.2168
41923SOL    HW236084   3.574   3.097  10.551  0.2604 -0.0067  1.2639
41924SOL     OW36085   7.553  10.098   6.793  0.1777  0.1349  0.0557
41924SOL    HW136086   7.491  10.034   6.830  0.2188  0.9423  1.5812
41924SOL    HW236087   7.580  10.058   6.710 -3.2142  0.2347 -1.2813
41925SOL     OW36088   3.149   7.210   0.632 -0.0409  0.1173  0.1027
41925SOL    HW136089   3.174   7.178   0.719  1.6105 -1.0794 -0.7419
41925SOL    HW236090   3.109   7.134   0.589  0.0608  0.3958 -0.5037
41926SOL     OW36091   8.751  11.116  12.868 -0.3677 -0.3856 -0.7243
41926SOL    HW136092   8.663  11.154  12.863  0.3115  1.3122 -0.3252
41926SOL    HW236093   8.746  11.053  12.939 -1.2542 -0.3083 -0.7011
41927SOL     OW36094   9.025   2.230  12.365  0.3313 -0.6609  0.4996
41927SOL    HW136095   8.960   2.192  12.306  1.6346  0.2268 -1.6126
41927SOL    HW236096   8.994   2.320  12.378  0.1878 -0.7777  0.9791
41928SOL     OW36097   0.731   7.485   4.215  0.4718  0.3731 -0.3417
41928SOL    HW136098   0.749   7.479   4.309 -1.7605  0.7199  0.1892
41928SOL    HW236099   0.638   7.462   4.208  0.1338  2.0794 -2.2394
41929SOL     OW36100   2.898   5.028  10.251 -0.5960  0.2267  0.5321
41929SOL    HW136101   2.854   5.103  10.211 -0.4467  0.4017  0.6980
41929SOL    HW236102   2.984   5.061  10.276 -0.7307  0.1541  1.1084
41930SOL     OW36103   4.019   0.121   9.654  0.4154 -0.5607  0.0669
41930SOL    HW136104   4.015   0.129   9.749  1.8335  0.4331  0.0746
41930SOL    HW236105   3.952   0.056   9.632 -2.4940  1.7881  1.3932
41931SOL     OW36106   2.249   9.656   8.741 -0.0140  0.2788 -0.1435
41931SOL    HW136107   2.205   9.582   8.699  0.7140 -0.3979  0.2396
41931SOL    HW236108   2.181   9.699   8.791 -0.0981 -1.3326  1.2294
41932SOL     OW36109   1.661   9.471   8.423 -0.3117 -0.4283 -0.1144
41932SOL    HW136110   1.752   9.456   8.450  0.6249  2.3413 -1.2920
41932SOL    HW236111   1.611   9.471   8.504  1.2264  0.6123  0.9108
41933SOL     OW36112   9.499   0.129  12.656  0.0232  0.3296 -0.5057
41933SOL    HW136113   9.450   0.139  12.575 -0.6031  0.9201 -0.0605
41933SOL    HW236114   9.433   0.107  12.722  0.2869  1.5415  0.1841
41934SOL     OW36115   2.454   5.168   9.991 -0.4098  0.5481  0.3123
41934SOL    HW136116   2.362   5.191   9.977 -0.9834 -0.2523  2.3943
41934SOL    HW236117   2.451   5.079  10.027  1.0028  1.3173  2.5102
41935SOL     OW36118   8.515  12.320   5.106  0.9197 -0.5446  0.0793
41935SOL    HW136119   8.425  12.291   5.092  0.5307  0.9778 -0.9445
41935SOL    HW236120   8.566  12.274   5.039  0.9911 -1.6721  0.8820
41936SOL     OW36121   9.556  11.964   6.203  0.1509 -0.1565 -0.1898
41936SOL    HW136122   9.554  12.053   6.237  3.2587 -0.6366  1.5810
41936SOL    HW236123   9.502  11.914   6.264  0.8050  0.0267  0.5533
41937SOL     OW36124   9.120   7.813   0.024  0.2527 -0.4176 -0.7068
41937SOL    HW136125   9.207   7.797  -0.014  0.0693  0.4572 -1.5534
41937SOL    HW236126   9.075   7.864  -0.043  0.6212  3.0986  1.4754
41938SOL     OW36127   2.880   4.497   9.673 -0.4214 -0.2556  0.0898
41938SOL    HW136128   2.935   4.455   9.739 -1.9845 -1.4987  0.6796
41938SOL    HW236129   2.879   4.435   9.600  1.0006  0.9453 -1.0112
41939SOL     OW36130   1.615   9.851   9.567  0.5584 -0.6766  0.2294
41939SOL    HW136131   1.529   9.838   9.528  0.3698 -1.4452  0.8706
41939SOL    HW236132   1.676   9.814   9.503  0.5074  0.7576 -0.6731
41940SOL     OW36133   3.911   3.118   0.821 -0.5243  0.0635  0.0138
41940SOL    HW136134   3.829   3.163   0.804 -1.0182 -1.0638 -0.6198
41940SOL    HW236135   3.954   3.112   0.736 -0.7418 -1.1846 -0.0208
41941SOL     OW36136  12.476   4.992   3.796  0.5174  0.0322 -0.2879
41941SOL    HW136137  12.466   4.945   3.879  0.5444  2.2823  1.0491
41941SOL    HW236138  12.562   5.033   3.802  0.7293 -0.1725 -1.6672
41942SOL     OW36139   1.954   3.800   1.072 -0.5118 -0.1280  0.1297
41942SOL    HW136140   2.020   3.755   1.019 -1.6091 -1.1690 -0.4006
41942SOL    HW236141   1.974   3.893   1.061  1.9257 -0.4049  1.3790
41943SOL     OW36142   6.439  11.587   0.494  0.1116 -0.0129  0.1969
41943SOL    HW136143   6.454  11.656   0.430 -0.6306  0.0723  0.1147
41943SOL    HW236144   6.350  11.558   0.479 -0.4317  0.6762  1.8226
41944SOL     OW36145   2.180   7.667   8.501  0.4697  0.9398  0.4192
41944SOL    HW136146   2.247   7.697   8.440  1.8281 -0.7918  0.9652
41944SOL    HW236147   2.150   7.584   8.464  0.4679  0.4501  1.4935
41945SOL     OW36148   4.538  10.421  11.228  0.2897  0.2587 -0.6575
41945SOL    HW136149   4.510  10.416  11.319  0.5518  0.5981 -0.5550
41945SOL    HW236150   4.458  10.440  11.179  0.3659  1.4483 -0.3459
41946SOL     OW36151   5.532   3.011   0.367 -0.1066 -0.1260  0.3973
41946SOL    HW136152   5.540   3.104   0.387 -1.4042 -0.3886  2.4700
41946SOL    HW236153   5.620   2.976   0.380  0.2967  0.7218  0.0278
41947SOL     OW36154  11.011   3.639   6.559  0.0985 -0.3991 -0.2096
41947SOL    HW136155  10.922   3.606   6.547  0.3944 -1.2276 -0.2269
41947SOL    HW236156  11.038   3.668   6.472 -0.2401  0.0847 -0.1550
41948SOL     OW36157  10.857   0.786   0.959 -0.2196 -0.3658  0.7092
41948SOL    HW136158  10.768   0.766   0.930  0.0404 -0.4095 -0.0919
41948SOL    HW236159  10.894   0.702   0.985 -0.9665 -0.1293  2.7303
41949SOL     OW36160   6.803   3.432   9.394 -0.2063  0.2231 -0.2459
41949SOL    HW136161   6.895   3.431   9.418 -0.3044  2.8860  0.4874
41949SOL    HW236162   6.761   3.372   9.455  0.7663  0.5023  0.7116
41950SOL     OW36163  12.402   6.253   8.787 -0.2411 -0.1306 -0.7540
41950SOL    HW136164  12.465   6.324   8.777 -0.9126  0.3530 -1.6994
41950SOL    HW236165  12.317   6.293   8.770 -0.7097 -0.9895 -0.4944
41951SOL     OW36166   4.570   2.629   8.500 -0.6528 -0.0974  0.5674
41951SOL    HW136167   4.575   2.712   8.453 -1.1896 -0.5052 -0.2425
41951SOL    HW236168   4.565   2.563   8.431  1.1307 -0.9268  1.1610
41952SOL     OW36169   2.270   4.682   8.524  0.3645  0.0776  0.5819
41952SOL    HW136170   2.311   4.598   8.543 -0.1354 -0.1485  0.7024
41952SOL    HW236171   2.188   4.658   8.480  1.8443  0.5725 -2.7186
41953SOL     OW36172   5.203   5.565   2.326  0.4401 -0.6505  0.6956
41953SOL    HW136173   5.159   5.637   2.280  0.0089  0.3574  2.5576
41953SOL    HW236174   5.229   5.505   2.257 -0.3078  0.6853 -0.8321
41954SOL     OW36175   7.880  11.044   5.629 -0.3814  0.4892 -0.4599
41954SOL    HW136176   7.900  10.984   5.700 -0.4617  0.8257 -0.1455
41954SOL    HW236177   7.848  10.989   5.558 -1.8569  0.2764  0.3246
41955SOL     OW36178   1.026   9.974   9.738  0.1960 -0.0192  0.3109
41955SOL    HW136179   1.017   9.895   9.684 -0.6270  0.4161 -0.2159
41955SOL    HW236180   0.950   9.973   9.796 -0.7326  1.1986 -0.8164
41956SOL     OW36181   2.371   9.814  12.540  0.0832 -0.1846  0.4298
41956SOL    HW136182   2.445   9.755  12.526  0.1416  0.1178 -0.6256
41956SOL    HW236183   2.398   9.897  12.500 -1.4343 -0.5325 -1.5333
41957SOL     OW36184   5.886   7.388  11.056 -0.0133 -0.1836  0.2852
41957SOL    HW136185   5.834   7.455  11.012 -0.2462 -1.0502 -0.8035
41957SOL    HW236186   5.976   7.419  11.050 -0.3537  1.4831  2.4522
41958SOL     OW36187   8.406   1.813   5.052  0.1497 -0.3726 -0.3733
41958SOL    HW136188   8.495   1.846   5.039  0.4794 -0.9680  0.2847
41958SOL    HW236189   8.408   1.725   5.014 -0.5929  0.1593 -1.7174
41959SOL     OW36190   1.222  10.667   2.174 -0.3461  0.1430 -0.1938
41959SOL    HW136191   1.221  10.614   2.254  0.0622  1.0395  0.4217
41959SOL    HW236192   1.141  10.717   2.177 -0.0853  0.5654 -0.0679
41960SOL     OW36193   1.222   2.995   5.361  0.2410 -0.4355  0.2410
41960SOL    HW136194   1.234   3.071   5.419 -0.0883 -0.3163  0.1537
41960SOL    HW236195   1.128   2.985   5.354  0.2754 -1.3944  0.9517
41961SOL     OW36196   8.948   4.640   6.820  0.3947 -0.0983  0.5719
41961SOL    HW136197   8.926   4.547   6.818  0.8452 -0.2008  0.3746
41961SOL    HW236198   9.016   4.650   6.754  1.3838  0.0994  1.5891
41962SOL     OW36199   2.125   1.710   3.871  0.1012 -0.0164  0.2488
41962SOL    HW136200   2.171   1.648   3.815  0.4949  1.2446 -0.8681
41962SOL    HW236201   2.194   1.748   3.926 -0.1438 -0.5741  0.9581
41963SOL     OW36202   1.963   5.346   5.537 -0.4395  0.3336 -0.1139
41963SOL    HW136203   2.009   5.315   5.459 -0.7081 -0.7522  0.1462
41963SOL    HW236204   2.023   5.409   5.577  0.2743 -0.1237 -0.4578
41964SOL     OW36205   6.965  10.512   9.103 -0.1663  0.6907 -0.3818
41964SOL    HW136206   7.004  10.513   9.016  2.4998  1.9277  0.6960
41964SOL    HW236207   6.967  10.603   9.132  1.5043  0.0221  1.9162
41965SOL     OW36208   0.315  12.217   5.882  0.0773 -0.0865  0.4581
41965SOL    HW136209   0.360  12.134   5.901  2.6670  0.9584 -0.6394
41965SOL    HW236210   0.264  12.198   5.804  3.0574 -0.0252 -1.6878
41966SOL     OW36211   7.587  12.627  11.481  0.1954 -0.1825 -0.1301
41966SOL    HW136212   7.566  12.676  11.402 -0.2610 -0.4221 -0.1641
41966SOL    HW236213   7.513  12.567  11.491 -0.6634  1.0582  1.4707
41967SOL     OW36214   2.011  12.339   8.700 -0.4240 -0.0647 -0.6247
41967SOL    HW136215   1.980  12.353   8.790  3.4575  0.9039  0.7539
41967SOL    HW236216   2.001  12.424   8.658  1.8450  0.8222  0.4391
41968SOL     OW36217   2.810   0.952   0.377 -0.6887 -0.1825 -0.3561
41968SOL    HW136218   2.815   0.874   0.432 -1.5191 -0.3484 -0.5101
41968SOL    HW236219   2.869   0.933   0.304  0.1966 -0.0759  0.3146
41969SOL     OW36220   6.966   7.602   4.527  0.1831  0.1983  0.0622
41969SOL    HW136221   6.880   7.562   4.541  0.2601  0.1437  0.3910
41969SOL    HW236222   6.952   7.695   4.545  0.4787  0.0084  1.4603
41970SOL     OW36223   7.725   9.204   4.480 -0.3635 -0.3645  0.0384
41970SOL    HW136224   7.667   9.280   4.483 -1.5455 -1.1822 -1.1917
41970SOL    HW236225   7.760   9.198   4.569 -0.6172  1.3154  0.2900
41971SOL     OW36226   7.974  12.374   2.846  0.0079  0.2800  0.0271
41971SOL    HW136227   7.924  12.401   2.924 -0.5682  1.2640 -0.6573
41971SOL    HW236228   7.954  12.281   2.837 -1.0085  0.4506  0.2900
41972SOL     OW36229  11.855  11.648   6.567  0.3317  0.5160  0.1104
41972SOL    HW136230  11.811  11.571   6.604  4.2603 -2.4872 -0.7753
41972SOL    HW236231  11.820  11.655   6.478  1.2946 -1.6676 -0.5084
41973SOL     OW36232   4.672  10.924   9.570  0.0010  0.1948  0.1065
41973SOL    HW136233   4.584  10.932   9.606 -0.5881 -1.4920 -0.8653
41973SOL    HW236234   4.726  10.894   9.643 -1.2722 -3.6446 -0.3193
41974SOL     OW36235   8.201   4.769   5.705 -0.7569  0.3047 -0.7036
41974SOL    HW136236   8.202   4.797   5.613  1.4973  1.2325 -0.4704
41974SOL    HW236237   8.292   4.746   5.724 -1.3874 -0.9765  0.9932
41975SOL     OW36238   9.845  11.519   0.449 -0.4491 -0.6239 -0.3141
41975SOL    HW136239   9.926  11.558   0.481  0.4267 -1.5535 -1.3119
41975SOL    HW236240   9.820  11.574   0.374  0.1529 -1.2710 -1.0020
41976SOL     OW36241   5.596   4.802   2.258 -0.1742 -0.0611  0.3864
41976SOL    HW136242   5.606   4.814   2.353  1.0061 -0.3176  0.3096
41976SOL    HW236243   5.503   4.814   2.242 -0.2152  1.1961  1.4138
41977SOL     OW36244  10.953   6.857   0.082  0.8381  0.5880  0.2050
41977SOL    HW136245  10.984   6.845   0.172 -0.2837 -0.1244  0.5165
41977SOL    HW236246  11.018   6.812   0.028 -0.6342 -2.8138  1.0030
41978SOL     OW36247   2.696   7.456   1.211  0.5820  0.1442  0.0118
41978SOL    HW136248   2.648   7.375   1.196 -0.9611  0.9716  0.2646
41978SOL    HW236249   2.760   7.460   1.139 -0.2679 -0.5973 -0.8041
41979SOL     OW36250   6.157  12.704   5.464 -0.0918 -0.3504  0.3021
41979SOL    HW136251   6.087  12.688   5.528 -1.4087 -2.6372 -1.5419
41979SOL    HW236252   6.112  12.742   5.388  0.3716 -2.6932 -1.2573
41980SOL     OW36253   5.972   8.313   9.969  0.2647  0.2493  0.2636
41980SOL    HW136254   5.891   8.354   9.940 -0.1410 -0.4172  0.4395
41980SOL    HW236255   5.977   8.331  10.063  0.3398  0.3277  0.2440
41981SOL     OW36256  11.729  12.736   0.110  0.5549  0.0020  0.1836
41981SOL    HW136257  11.638  12.749   0.081  0.0513 -2.6055  0.3376
41981SOL    HW236258  11.724  12.736   0.206  0.7837  0.2087  0.1958
41982SOL     OW36259  10.336   5.189   7.049  0.4637 -0.2185  0.0964
41982SOL    HW136260  10.418   5.162   7.091  0.6371  0.2741  0.0898
41982SOL    HW236261  10.285   5.228   7.119  1.8831  3.1982 -0.5566
41983SOL     OW36262   6.751   0.438   6.351  0.0103  0.7504 -0.7964
41983SOL    HW136263   6.684   0.504   6.371  0.5107  1.2221 -0.6389
41983SOL    HW236264   6.779   0.458   6.261 -1.5902 -0.8037 -1.7058
41984SOL     OW36265   8.911   0.133   5.365  0.4577 -0.2772 -0.1136
41984SOL    HW136266   8.824   0.115   5.401 -0.2587  1.2079 -0.9727
41984SOL    HW236267   8.970   0.075   5.413 -0.9704 -1.1409  0.6656
41985SOL     OW36268   5.715   4.614   5.074  0.6150 -0.4662  0.2823
41985SOL    HW136269   5.664   4.678   5.026  0.3875 -1.6104 -1.0740
41985SOL    HW236270   5.805   4.644   5.067  0.2389  1.7337  2.9408
41986SOL     OW36271   9.670   9.565   9.261 -0.2563 -0.7861 -0.1900
41986SOL    HW136272   9.606   9.526   9.201 -0.3759 -2.2755  0.8509
41986SOL    HW236273   9.697   9.646   9.218 -0.8843 -1.4436 -1.8988
41987SOL     OW36274   6.177  11.991   4.994  0.2483  0.5198 -0.6560
41987SOL    HW136275   6.107  12.053   5.012 -0.3008  0.0729 -1.1832
41987SOL    HW236276   6.132  11.908   4.979  0.9376  0.0828 -0.3627
41988SOL     OW36277   4.115   4.041   7.472  0.2734  0.1827 -0.2689
41988SOL    HW136278   4.131   4.093   7.393  0.6621 -0.5785 -0.7016
41988SOL    HW236279   4.072   3.962   7.441  0.2012 -0.0123  0.3122
41989SOL     OW36280   6.575   1.250   8.099  0.2067  0.1608  0.1793
41989SOL    HW136281   6.523   1.248   8.179 -1.4363  2.1585 -0.7588
41989SOL    HW236282   6.563   1.338   8.064  1.5668 -0.3769 -1.8377
41990SOL     OW36283   6.332   1.168  10.194  0.6928 -0.8197 -0.5674
41990SOL    HW136284   6.367   1.231  10.257  0.4505 -1.6359  0.3987
41990SOL    HW236285   6.367   1.198  10.109  0.2845  0.8150 -0.1939
41991SOL     OW36286  10.897   1.797   6.865  0.7142  0.3658  0.3797
41991SOL    HW136287  10.912   1.803   6.771  0.3866 -1.6234  0.1627
41991SOL    HW236288  10.905   1.887   6.896 -0.8109  1.3183 -1.7673
41992SOL     OW36289  11.949  11.658   0.972 -0.1135  0.7242 -0.9073
41992SOL    HW136290  12.010  11.654   0.899  0.9057  1.2490 -0.1100
41992SOL    HW236291  12.001  11.635   1.049 -1.4194 -0.9109 -0.4582
41993SOL     OW36292  10.576  12.946   0.457 -0.7625 -0.1113 -0.7892
41993SOL    HW136293  10.503  12.915   0.511  0.4476 -1.0990  0.3565
41993SOL    HW236294  10.653  12.936   0.513  0.1301  2.0582 -1.5109
41994SOL     OW36295   1.376   8.704   0.773 -0.2885  0.0998 -0.2575
41994SOL    HW136296   1.335   8.762   0.708 -0.4692 -1.9315 -2.0481
41994SOL    HW236297   1.458   8.677   0.732 -1.8562 -3.7738 -1.2057
41995SOL     OW36298   5.219   7.410   6.144  0.0231 -0.0672 -0.0663
41995SOL    HW136299   5.249   7.341   6.085  1.3750  0.9445 -0.6171
41995SOL    HW236300   5.250   7.383   6.230 -1.0169 -1.0089  0.0387
41996SOL     OW36301   9.842   8.865   9.810  0.0203  0.6452  0.5314
41996SOL    HW136302   9.810   8.950   9.840  1.4086  0.6827  2.0545
41996SOL    HW236303   9.800   8.801   9.867 -2.0489  0.1131 -1.4457
41997SOL     OW36304  10.300   2.142  12.962 -0.1575 -0.1423  0.2017
41997SOL    HW136305  10.350   2.185  12.891  0.7010  0.1784  0.9811
41997SOL    HW236306  10.325   2.050  12.957  1.4748  0.1982  1.3229
41998SOL     OW36307   3.234   1.921   9.330  0.1572 -0.0456 -0.5421
41998SOL    HW136308   3.286   1.961   9.400  0.7919  1.2147 -1.6822
41998SOL    HW236309   3.154   1.891   9.373 -0.5330  2.8053  0.3533
41999SOL     OW36310  10.463   8.468  11.820 -0.2130 -0.2277  0.2344
41999SOL    HW136311  10.409   8.543  11.843 -0.7928 -0.2954 -0.8411
41999SOL    HW236312  10.536   8.471  11.881  1.0494  2.6050 -1.2330
42000SOL     OW36313   4.551   7.248   3.305  0.2580  0.2727 -0.6890
42000SOL    HW136314   4.634   7.231   3.261  0.8957  0.6637  0.3281
42000SOL    HW236315   4.537   7.342   3.294  0.2554  0.3137 -0.3290
42001SOL     OW36316   6.680   3.625   9.730  0.5217 -0.6625 -0.5864
42001SOL    HW136317   6.689   3.709   9.684 -0.5639  0.2041  0.6994
42001SOL    HW236318   6.586   3.607   9.729  0.4342 -0.5398  1.3499
42002SOL     OW36319   0.759   2.907   3.552  0.2857 -0.1867 -0.1722
42002SOL    HW136320   0.816   2.982   3.533 -1.1856  1.0407  0.0926
42002SOL    HW236321   0.708   2.935   3.628  1.1931 -2.3084  1.3024
42003SOL     OW36322  12.718  10.602   7.445  0.0262 -0.0146  0.3245
42003SOL    HW136323  12.731  10.591   7.539 -0.1995 -0.6504  0.2853
42003SOL    HW236324  12.631  10.643   7.438  0.8090  1.7799  0.4628
42004SOL     OW36325   9.717   9.950   9.447 -0.1881  0.8193 -0.9076
42004SOL    HW136326   9.631   9.993   9.448 -1.2102 -1.0604  1.4156
42004SOL    HW236327   9.768   9.999   9.511  0.1052  1.2190 -1.4409
42005SOL     OW36328   4.028   8.247   3.165  0.5285 -0.1857 -0.3304
42005SOL    HW136329   4.029   8.254   3.260 -0.6100 -0.2913 -0.3062
42005SOL    HW236330   4.119   8.226   3.142  1.1701  1.4142  0.5991
42006SOL     OW36331  12.095   5.984   7.957 -0.3852 -0.1228  0.3369
42006SOL    HW136332  12.184   5.978   7.991 -0.3673  0.4770  0.4164
42006SOL    HW236333  12.101   5.954   7.867  0.0239  0.4917  0.1537
42007SOL     OW36334   7.104  10.427   2.286  0.2320 -0.2517 -0.4009
42007SOL    HW136335   7.056  10.364   2.341  0.7892  0.3893  0.8442
42007SOL    HW236336   7.071  10.410   2.197 -1.0091 -1.0160  0.1735
42008SOL     OW36337   2.863  10.638  11.005 -0.3792  0.3722  0.1331
42008SOL    HW136338   2.884  10.606  10.917  1.1158  2.5604 -0.3845
42008SOL    HW236339   2.854  10.559  11.058 -0.7388 -0.9835 -1.8517
42009SOL     OW36340   2.096   3.661   3.168  0.4529 -0.0146 -0.2242
42009SOL    HW136341   2.048   3.680   3.088  0.9834 -0.5505 -0.6823
42009SOL    HW236342   2.029   3.660   3.236 -0.1454 -0.4464 -0.8019
42010SOL     OW36343   4.972   4.574   8.025  0.1664 -0.3911 -0.3468
42010SOL    HW136344   4.955   4.613   8.110  0.9646  1.1516 -0.8617
42010SOL    HW236345   4.892   4.524   8.005 -1.1727  1.4961  0.0871
42011SOL     OW36346   6.686  11.908  11.970  0.4521  0.1974 -0.5104
42011SOL    HW136347   6.686  12.003  11.983 -0.6487  0.1333  0.0942
42011SOL    HW236348   6.597  11.888  11.940 -0.1656 -0.9251  1.8278
42012SOL     OW36349  12.404   3.350   9.317  0.2278  0.0552 -0.3044
42012SOL    HW136350  12.317   3.317   9.338 -0.0318  0.1435 -1.2041
42012SOL    HW236351  12.445   3.280   9.266  0.4853  0.2259 -0.3348
42013SOL     OW36352  10.235  11.656   5.910  0.5584  0.3317 -0.6842
42013SOL    HW136353  10.216  11.567   5.881  0.0164 -0.3674  1.5668
42013SOL    HW236354  10.319  11.648   5.957  0.2157  0.8583  0.0361
42014SOL     OW36355   2.178   5.870   8.999 -0.1349 -0.4939  0.2149
42014SOL    HW136356   2.153   5.782   8.972  0.3084 -1.2286  2.0409
42014SOL    HW236357   2.094   5.915   9.013 -0.3726 -0.1113 -2.1584
42015SOL     OW36358   6.166   3.188   0.195 -0.0151  0.1060 -0.0596
42015SOL    HW136359   6.235   3.195   0.129  0.3588 -1.4515  0.1283
42015SOL    HW236360   6.177   3.100   0.232 -1.0660  0.4547  1.1325
42016SOL     OW36361  11.522   3.832  11.056  0.1832  0.2895 -0.0207
42016SOL    HW136362  11.486   3.849  10.969  1.4947 -1.1489 -0.9019
42016SOL    HW236363  11.496   3.908  11.108  0.6871  1.9687 -2.0723
42017SOL     OW36364   1.731   1.037  11.558 -0.2960  0.2477  0.6192
42017SOL    HW136365   1.798   0.970  11.572 -1.1656 -0.2964  2.4167
42017SOL    HW236366   1.664   0.994  11.504 -0.5188 -0.1200  1.1831
42018SOL     OW36367   1.931   9.417   7.593  0.2125  0.0638  0.2018
42018SOL    HW136368   1.839   9.391   7.586  0.3710 -0.7553  0.9467
42018SOL    HW236369   1.967   9.402   7.506 -0.3686  0.4728 -0.1223
42019SOL     OW36370   2.504   8.882   6.916  0.6973  0.5400  0.1700
42019SOL    HW136371   2.445   8.884   6.991  1.1800  2.1556  0.5380
42019SOL    HW236372   2.533   8.972   6.905  2.8916 -0.1405 -0.1743
42020SOL     OW36373   0.355   1.743   1.420 -0.3446  0.1296  0.8703
42020SOL    HW136374   0.300   1.665   1.419 -0.9757  0.5630  0.5534
42020SOL    HW236375   0.374   1.759   1.512 -0.3451 -0.3050  0.9446
42021SOL     OW36376   2.619   6.083   8.065  0.1088  0.6985  0.3456
42021SOL    HW136377   2.702   6.060   8.107  0.2182  1.0494  0.3271
42021SOL    HW236378   2.575   6.140   8.128 -0.3832  0.0415  0.6064
42022SOL     OW36379   4.189   1.368   0.416  0.1384  0.0411 -0.3279
42022SOL    HW136380   4.277   1.397   0.393  0.2994 -1.0596 -1.2007
42022SOL    HW236381   4.173   1.406   0.502  1.4996  0.1935 -0.1193
42023SOL     OW36382   7.135   2.542   0.440  0.0811  0.8924  0.4463
42023SOL    HW136383   7.041   2.526   0.443 -0.1035  1.9658  0.7043
42023SOL    HW236384   7.174   2.462   0.475 -0.7157  0.3081  0.0358
42024SOL     OW36385  11.037   4.865   3.904 -0.4176 -0.1780  0.0634
42024SOL    HW136386  10.974   4.807   3.947 -1.8418  1.4096  0.2583
42024SOL    HW236387  11.097   4.891   3.973 -0.9322  0.0708  0.4237
42025SOL     OW36388  10.468   5.264   7.347 -0.0579  0.1501  0.4770
42025SOL    HW136389  10.564   5.269   7.342 -0.0057 -0.2722  0.8708
42025SOL    HW236390  10.437   5.325   7.281  0.4866  0.2551  0.3083
42026SOL     OW36391   6.069  11.271   4.243  0.1235 -0.0637 -0.5207
42026SOL    HW136392   5.985  11.253   4.285  0.2465  1.3104  0.3848
42026SOL    HW236393   6.128  11.203   4.276  0.2358  1.0001  1.6398
42027SOL     OW36394   4.232   2.576  10.516  0.3889 -0.4728  0.4737
42027SOL    HW136395   4.312   2.625  10.498  0.0746 -0.2056 -0.2510
42027SOL    HW236396   4.162   2.633  10.484 -0.0357 -1.0481  0.3713
42028SOL     OW36397  10.315   3.276   0.546 -0.2370 -0.5847  0.2254
42028SOL    HW136398  10.288   3.344   0.608 -0.5557 -0.8522  0.3823
42028SOL    HW236399  10.287   3.194   0.587 -1.0660 -0.7226 -0.5863
42029SOL     OW36400   9.671   6.971   7.174  0.2508  0.1502 -0.4147
42029SOL    HW136401   9.738   6.949   7.109  0.7119 -0.0610  0.1248
42029SOL    HW236402   9.693   6.917   7.250 -0.4612  0.1753 -0.1884
42030SOL     OW36403   2.189  12.245  10.914 -0.3827 -0.1586  0.1562
42030SOL    HW136404   2.229  12.185  10.850  0.4363  0.3418  0.1811
42030SOL    HW236405   2.177  12.191  10.992  0.2654 -0.3309  0.1471
42031SOL     OW36406   2.007  10.419   1.988 -0.3962 -0.6819  0.3181
42031SOL    HW136407   1.981  10.327   1.994 -0.4716 -0.7956 -1.3805
42031SOL    HW236408   1.924  10.466   1.978 -0.3889 -0.3568  1.5451
42032SOL     OW36409   1.927  11.468   0.491 -0.0192 -0.1808  0.0787
42032SOL    HW136410   1.898  11.528   0.422 -3.8900 -1.0500  0.7113
42032SOL    HW236411   1.930  11.522   0.570 -0.5873 -0.2138  0.1242
42033SOL     OW36412   8.531   8.402  12.421 -0.2522 -0.0382 -0.4500
42033SOL    HW136413   8.595   8.468  12.448 -0.5314  0.4770 -1.0184
42033SOL    HW236414   8.452   8.423  12.470  0.0969 -0.8795  0.5079
42034SOL     OW36415   4.387   1.515  10.245 -0.1776  0.3518 -0.6996
42034SOL    HW136416   4.446   1.512  10.170  0.3492  0.1961 -0.2846
42034SOL    HW236417   4.425   1.455  10.309 -0.6266  0.4678 -0.3125
42035SOL     OW36418   3.293  12.355   9.711 -0.1581 -0.4922 -0.4272
42035SOL    HW136419   3.317  12.436   9.755  0.8510  0.0439 -1.8802
42035SOL    HW236420   3.375  12.324   9.672 -0.6268 -1.9550 -0.3175
42036SOL     OW36421  11.057   1.761  12.058 -0.1660  0.3299  0.1058
42036SOL    HW136422  10.995   1.699  12.097 -1.1506  1.3629  0.2275
42036SOL    HW236423  11.113   1.788  12.131 -1.6965  1.8899  0.7613
42037SOL     OW36424   4.213  12.206   5.623  0.5137  0.0731  0.0714
42037SOL    HW136425   4.141  12.187   5.683  0.0708  2.3163  0.3468
42037SOL    HW236426   4.171  12.217   5.538  0.5002  1.3440  0.2249
42038SOL     OW36427  12.692   6.117   5.285  0.7708 -0.3187 -0.4465
42038SOL    HW136428  12.650   6.141   5.368 -0.9427  1.2029 -1.6804
42038SOL    HW236429  12.633   6.054   5.245  0.9681 -0.1290 -1.0525
42039SOL     OW36430   2.112   9.779   4.110  0.0762  0.5897 -0.1690
42039SOL    HW136431   2.193   9.799   4.156  0.5677 -2.9245  0.7855
42039SOL    HW236432   2.140   9.746   4.024 -0.5515  2.0667 -0.9795
42040SOL     OW36433   1.642  11.450   5.220 -0.2194 -0.4991 -0.0997
42040SOL    HW136434   1.635  11.534   5.265 -1.7994 -0.8261  0.3027
42040SOL    HW236435   1.700  11.398   5.275 -0.5978 -0.2488  0.5425
42041SOL     OW36436   1.674   0.308   0.143  0.6689 -0.2009 -0.1207
42041SOL    HW136437   1.671   0.234   0.083 -0.9153  0.5316 -0.9762
42041SOL    HW236438   1.681   0.268   0.230  1.8113 -1.2890 -0.6885
42042SOL     OW36439  12.238   0.488   8.377 -0.0207 -0.6073 -0.3829
42042SOL    HW136440  12.251   0.482   8.471 -0.2217 -0.4271 -0.3442
42042SOL    HW236441  12.146   0.512   8.366  0.4313  1.1915 -0.5641
42043SOL     OW36442   1.125   5.062   4.770 -0.7009  0.0506  0.1317
42043SOL    HW136443   1.144   4.984   4.718  0.1118  0.0772  0.3802
42043SOL    HW236444   1.208   5.110   4.772 -0.5051 -0.2866  2.0328
42044SOL     OW36445   8.642   2.015  10.318  0.1117 -0.2663  0.2407
42044SOL    HW136446   8.615   2.059  10.237  0.5926 -0.8862 -0.2693
42044SOL    HW236447   8.626   1.922  10.301  1.2523 -0.5163  0.4250
42045SOL     OW36448   4.856   7.075  11.622  0.4787  0.4033  0.3935
42045SOL    HW136449   4.791   7.076  11.552 -0.3510  0.7498  1.1521
42045SOL    HW236450   4.940   7.066  11.577  0.0125  1.2481 -0.6818
42046SOL     OW36451   4.375   5.175   5.813 -0.1041 -0.4057  0.0216
42046SOL    HW136452   4.290   5.130   5.819  0.6202 -1.8387 -0.0779
42046SOL    HW236453   4.414   5.165   5.899  0.1339 -0.0700 -0.0435
42047SOL     OW36454   4.822   5.021   5.648 -0.1780  0.2311 -0.0959
42047SOL    HW136455   4.733   5.006   5.616  0.8949 -0.7787 -2.9364
42047SOL    HW236456   4.878   5.002   5.573  2.5929 -0.9796  2.0960
42048SOL     OW36457  11.527   2.649   1.344 -0.1247 -0.3998  0.3276
42048SOL    HW136458  11.473   2.575   1.317  1.6562 -1.4015 -0.6532
42048SOL    HW236459  11.470   2.725   1.333 -1.3172 -1.3937 -0.7374
42049SOL     OW36460  10.624   6.909  12.561  0.0627  0.1751 -0.0256
42049SOL    HW136461  10.626   6.994  12.517  1.7992  0.3962  0.4270
42049SOL    HW236462  10.593   6.848  12.494 -2.5304  1.3179  0.0136
42050SOL     OW36463   0.421   9.566   9.566 -0.0163 -0.0787  0.5306
42050SOL    HW136464   0.338   9.613   9.570 -1.8070 -3.0486  2.2664
42050SOL    HW236465   0.415   9.512   9.488  0.3397 -0.1986  0.5821
42051SOL     OW36466   2.818   8.240   5.170 -0.2460 -0.5023  0.2420
42051SOL    HW136467   2.757   8.171   5.196 -1.6471  0.4851 -0.3524
42051SOL    HW236468   2.830   8.293   5.248  2.3342 -2.3810  1.3018
42052SOL     OW36469   8.260   7.661   0.294 -0.0180 -0.1253  0.0033
42052SOL    HW136470   8.341   7.627   0.334 -0.1717  1.6920  2.0532
42052SOL    HW236471   8.190   7.621   0.345 -0.2987  0.6190  0.2050
42053SOL     OW36472   6.213  12.189   6.997  0.1748  0.1726  0.4452
42053SOL    HW136473   6.190  12.187   6.904  0.6759 -1.5577  0.3272
42053SOL    HW236474   6.261  12.108   7.012  0.6526  0.7154  2.0904
42054SOL     OW36475  11.333  10.502   5.061  0.5987  0.2133 -0.3072
42054SOL    HW136476  11.366  10.591   5.058  1.8750 -0.2655 -1.8473
42054SOL    HW236477  11.258  10.502   5.000 -0.9746  0.7703  1.5323
42055SOL     OW36478   7.556   4.719  11.638  0.0239 -0.6318 -0.1854
42055SOL    HW136479   7.574   4.798  11.587  0.9068 -0.7827 -0.1326
42055SOL    HW236480   7.494   4.747  11.705  0.9625  0.2346  0.3543
42056SOL     OW36481   1.044   1.711   7.649  0.4808  0.4466  0.1209
42056SOL    HW136482   0.980   1.719   7.720  1.5948  0.1719  1.1886
42056SOL    HW236483   1.075   1.800   7.634 -0.1530  0.5847 -0.4191
42057SOL     OW36484   0.495   2.481   8.251  0.2076 -0.2300  0.3839
42057SOL    HW136485   0.494   2.426   8.173 -1.3603 -0.5257  0.5822
42057SOL    HW236486   0.545   2.558   8.225  0.0127 -0.4831 -0.7932
42058SOL     OW36487   8.171   2.715  11.759  0.1379 -0.4873  0.2166
42058SOL    HW136488   8.147   2.785  11.821  0.1183 -1.0159  0.8160
42058SOL    HW236489   8.177   2.636  11.813 -3.5979 -1.7882 -0.9863
42059SOL     OW36490   2.228   3.392   8.362  0.3753  0.0017 -0.3817
42059SOL    HW136491   2.151   3.387   8.306 -0.0844 -1.7796  0.3165
42059SOL    HW236492   2.281   3.316   8.337  0.8163 -0.0566  0.6544
42060SOL     OW36493  12.547   2.268   7.410  0.4031  0.4073  0.1447
42060SOL    HW136494  12.486   2.269   7.484  0.9627 -0.9193  0.6557
42060SOL    HW236495  12.513   2.335   7.351 -1.0817  0.2862  0.7951
42061SOL     OW36496   2.701   9.136   3.750  0.0695 -0.1338  0.4189
42061SOL    HW136497   2.637   9.116   3.819  0.9724  0.2136  1.3869
42061SOL    HW236498   2.648   9.152   3.672 -1.0109 -0.0686  1.1434
42062SOL     OW36499  12.239  11.223  11.178 -0.5883  0.2437  0.1059
42062SOL    HW136500  12.332  11.246  11.174 -0.7963  1.2630  0.7900
42062SOL    HW236501  12.233  11.138  11.133  0.5152  0.6278 -0.7999
42063SOL     OW36502   1.403  10.597  10.227 -0.7293  0.2758  0.2611
42063SOL    HW136503   1.458  10.536  10.177 -1.2261  0.7013 -0.8443
42063SOL    HW236504   1.343  10.634  10.162 -0.6855  1.6711  0.9652
42064SOL     OW36505   5.992  12.370  10.159  0.0847 -0.5930 -0.1357
42064SOL    HW136506   5.996  12.397  10.067  0.3869 -0.7576 -0.1743
42064SOL    HW236507   5.923  12.424  10.197  1.0804  0.6943 -0.0627
42065SOL     OW36508   8.719   2.610   9.393 -0.3171  0.3630  0.3498
42065SOL    HW136509   8.725   2.558   9.312 -0.8489 -0.4035  0.7892
42065SOL    HW236510   8.765   2.558   9.458  0.4187  1.1480  0.4780
42066SOL     OW36511   5.323  12.457   1.400 -0.2517 -0.2548  0.0032
42066SOL    HW136512   5.316  12.549   1.374  0.0630  0.3291  1.8786
42066SOL    HW236513   5.263  12.411   1.341 -1.8074  1.4015  0.2024
42067SOL     OW36514  12.891   2.533   6.341  0.5459 -0.2107  0.1212
42067SOL    HW136515  12.893   2.438   6.326  1.0285 -0.2044  0.1066
42067SOL    HW236516  12.965   2.566   6.290  1.5923 -0.0596  1.6697
42068SOL     OW36517   3.918   1.519   2.214 -0.0752 -0.0664  0.4803
42068SOL    HW136518   3.928   1.559   2.127 -1.6634 -0.3051  0.1436
42068SOL    HW236519   3.991   1.457   2.220 -0.1190 -0.2936 -0.8429
42069SOL     OW36520   0.755   7.761   4.725  0.0091  0.2018  0.2484
42069SOL    HW136521   0.679   7.704   4.710 -2.1231  3.2773 -1.6097
42069SOL    HW236522   0.758   7.771   4.820 -2.3416  0.4707  0.3505
42070SOL     OW36523  11.520  11.472  10.800 -0.2943  0.1174  0.1073
42070SOL    HW136524  11.501  11.512  10.884 -1.6067  1.4592 -0.7799
42070SOL    HW236525  11.447  11.496  10.744 -0.1810 -1.9330 -1.0541
42071SOL     OW36526  11.206   4.418   2.137  0.6292  0.4723  0.3705
42071SOL    HW136527  11.186   4.449   2.226  0.8135  0.2103  0.5048
42071SOL    HW236528  11.285   4.366   2.148  1.0878  1.0647 -0.0700
42072SOL     OW36529   4.082   4.131   6.862 -0.3999  0.4113 -0.3128
42072SOL    HW136530   4.133   4.105   6.786 -0.4695 -0.5282 -0.0475
42072SOL    HW236531   4.096   4.061   6.926 -0.2272  1.2546  0.5983
42073SOL     OW36532   7.995  11.901  10.433 -0.3320  0.2819  0.3078
42073SOL    HW136533   7.956  11.948  10.359  0.9225  1.5473  0.4056
42073SOL    HW236534   8.079  11.945  10.448  0.3302 -1.2066  1.2390
42074SOL     OW36535   0.903   8.043   6.184  0.4076  0.0854 -0.5426
42074SOL    HW136536   0.963   7.970   6.200 -0.0354 -0.1641  0.0631
42074SOL    HW236537   0.830   8.004   6.135  0.3495  0.2042 -0.5519
42075SOL     OW36538   1.208  11.009  10.858  0.2809 -0.6392  0.2090
42075SOL    HW136539   1.210  10.919  10.823 -3.8370 -1.0641  0.5571
42075SOL    HW236540   1.241  11.063  10.787 -0.8341 -2.1330 -1.5306
42076SOL     OW36541  11.481   2.166   2.979  0.5239  0.3494  0.3679
42076SOL    HW136542  11.493   2.234   3.045  1.3079 -0.7261  1.3659
42076SOL    HW236543  11.398   2.189   2.937  0.3902  1.4903  1.1864
42077SOL     OW36544   1.562  10.141   2.928  0.2957 -0.4250 -0.3679
42077SOL    HW136545   1.512  10.217   2.899 -1.4481 -1.1652  0.5173
42077SOL    HW236546   1.550  10.076   2.858  2.7804  0.4172 -1.7143
42078SOL     OW36547   3.177   8.934  10.424  0.2118  0.1336 -0.1025
42078SOL    HW136548   3.124   8.874  10.371 -0.4429  0.1874  0.4741
42078SOL    HW236549   3.263   8.891  10.430 -0.0950 -0.4946 -0.1251
42079SOL     OW36550   1.997   5.724   8.516  0.3429 -0.0153  0.5496
42079SOL    HW136551   1.937   5.697   8.586  0.4392 -1.1336  0.2267
42079SOL    HW236552   1.950   5.792   8.468  0.5323  1.2347  2.0679
42080SOL     OW36553   1.431  10.163   6.178  0.1026 -0.2736 -0.5400
42080SOL    HW136554   1.483  10.086   6.155 -1.2346 -1.0097 -1.2658
42080SOL    HW236555   1.425  10.160   6.274  1.8314  0.1556 -0.4002
42081SOL     OW36556   9.798   8.341   8.898  0.9194 -0.0118  0.6545
42081SOL    HW136557   9.765   8.291   8.823 -0.6486  1.0102  0.6112
42081SOL    HW236558   9.742   8.315   8.971  1.8523 -0.3272  1.2644
42082SOL     OW36559   4.572   5.589  12.296  0.7277 -0.2447 -0.2026
42082SOL    HW136560   4.529   5.629  12.220  0.6836 -1.4241 -0.8263
42082SOL    HW236561   4.666   5.605  12.282  0.6758  0.1025 -0.1638
42083SOL     OW36562   1.959   5.012   7.724 -0.6693 -0.1356 -0.2812
42083SOL    HW136563   1.883   5.069   7.736  0.0319  1.0023 -0.9965
42083SOL    HW236564   2.029   5.054   7.774 -0.2302 -0.5410 -0.5441
42084SOL     OW36565  11.271   9.893   6.479  0.1574  0.1357 -0.0572
42084SOL    HW136566  11.292   9.986   6.471 -0.2273  0.1806 -0.5702
42084SOL    HW236567  11.348   9.855   6.521 -0.0593  0.8376  1.0332
42085SOL     OW36568   4.064   5.014   6.968  0.1672 -0.3068 -0.0702
42085SOL    HW136569   4.001   5.048   7.031 -0.7717  0.4315 -1.3652
42085SOL    HW236570   4.050   5.067   6.889  0.4527 -1.9989 -1.3101
42086SOL     OW36571   9.077   8.243   8.480 -0.2232 -0.4554 -0.3606
42086SOL    HW136572   9.042   8.156   8.463 -0.6102 -0.2814 -0.4564
42086SOL    HW236573   9.001   8.300   8.484 -0.2117 -0.5144  2.2865
42087SOL     OW36574  10.960   4.582   1.875 -0.3903 -0.6073 -0.2292
42087SOL    HW136575  10.904   4.651   1.839 -0.8551 -0.7892  0.1396
42087SOL    HW236576  10.955   4.594   1.970  1.1420  0.1189 -0.2075
42088SOL     OW36577   0.813  10.332   1.104  0.6961 -0.2839  0.3953
42088SOL    HW136578   0.833  10.281   1.182 -1.1512  0.0872  1.1788
42088SOL    HW236579   0.722  10.309   1.083  1.1494 -0.3950 -1.6908
42089SOL     OW36580   3.530   0.223   0.419  0.5671  0.2883 -0.4802
42089SOL    HW136581   3.534   0.292   0.353  1.1338  0.2558 -0.4841
42089SOL    HW236582   3.576   0.260   0.495  0.0132  0.2841 -0.1423
42090SOL     OW36583   0.867   2.266   4.450 -0.2457  0.3335 -0.1197
42090SOL    HW136584   0.895   2.233   4.536  1.5112 -0.4785 -0.9410
42090SOL    HW236585   0.827   2.350   4.468 -2.6206 -1.0839  1.8057
42091SOL     OW36586   8.845  11.382   8.993  0.0565  0.2970 -0.1140
42091SOL    HW136587   8.814  11.296   8.967 -0.3831  0.6466 -0.7788
42091SOL    HW236588   8.800  11.443   8.934  1.2256  0.8931 -0.4264
42092SOL     OW36589   5.106  12.409   0.471  0.1451 -0.0329 -0.3937
42092SOL    HW136590   5.017  12.422   0.502 -0.8584  2.7517 -3.7870
42092SOL    HW236591   5.099  12.344   0.402  1.3327 -1.8670  1.1091
42093SOL     OW36592   4.316  11.676  12.123 -0.3674 -0.1970  0.2885
42093SOL    HW136593   4.260  11.630  12.186 -0.9834  0.1193 -0.0184
42093SOL    HW236594   4.404  11.640  12.138 -1.0836 -2.8395 -1.1171
42094SOL     OW36595   5.510   9.537   8.328 -1.1419 -0.0971 -0.1216
42094SOL    HW136596   5.605   9.535   8.318 -1.2127  2.0603 -1.9623
42094SOL    HW236597   5.493   9.484   8.406  1.5264 -0.7276  0.1184
42095SOL     OW36598   4.152   2.250  12.297  0.3080 -0.5594 -0.6029
42095SOL    HW136599   4.158   2.330  12.351 -1.8399  0.5175 -1.8389
42095SOL    HW236600   4.169   2.179  12.359  3.0951  0.7994  0.3959
42096SOL     OW36601  10.037   7.985   2.488 -0.2741 -0.1001 -0.2173
42096SOL    HW136602  10.046   7.894   2.461 -1.3226 -0.9832  2.1445
42096SOL    HW236603  10.063   7.986   2.580  0.0707  2.0730 -0.2740
42097SOL     OW36604   6.773   0.672  10.661 -0.2464  0.0836 -0.3506
42097SOL    HW136605   6.681   0.648  10.648 -0.3758  0.1496  0.4396
42097SOL    HW236606   6.817   0.588  10.677  0.3285 -0.3199 -3.3297
42098SOL     OW36607   4.272   5.957   4.752  0.0771 -0.5129  0.5161
42098SOL    HW136608   4.351   5.931   4.703  0.1969  1.0863 -0.1918
42098SOL    HW236609   4.295   6.042   4.790 -2.0757  1.1353 -1.6393
42099SOL     OW36610   3.127   1.428  10.877 -0.8272  0.4959 -0.4565
42099SOL    HW136611   3.151   1.396  10.964 -1.3823  0.1188 -0.4384
42099SOL    HW236612   3.190   1.497  10.859  0.0156 -0.2013 -0.2418
42100SOL     OW36613   9.278   9.513   1.438 -0.0190  0.1461 -0.0647
42100SOL    HW136614   9.301   9.431   1.481  0.0322  0.7596  1.1314
42100SOL    HW236615   9.186   9.527   1.461 -0.5110 -0.3428 -1.5838
42101SOL     OW36616   2.224   9.959   2.954 -0.5393  0.6416  0.6965
42101SOL    HW136617   2.198  10.050   2.938  0.3671  0.8528  0.3629
42101SOL    HW236618   2.298   9.944   2.895 -1.5521 -0.7691 -0.2870
42102SOL     OW36619   5.892  11.439   4.617  0.7276  0.0198 -0.3896
42102SOL    HW136620   5.828  11.488   4.566  1.4965  2.0958  0.5168
42102SOL    HW236621   5.865  11.348   4.609 -0.9182  0.5964 -1.9713
42103SOL     OW36622  10.440   3.913  12.173 -0.1231  0.2873 -0.4785
42103SOL    HW136623  10.454   3.910  12.078  1.4170  1.2166 -0.2999
42103SOL    HW236624  10.459   4.003  12.198 -2.1411  0.5041  0.5160
42104SOL     OW36625   9.894   5.516  10.234 -0.8783  0.1668  0.2884
42104SOL    HW136626   9.957   5.502  10.164 -0.7159  3.2739 -0.3220
42104SOL    HW236627   9.822   5.563  10.193 -0.8938  1.8470  2.0691
42105SOL     OW36628   5.638   6.208   3.348  0.5131  1.0679 -0.2497
42105SOL    HW136629   5.676   6.218   3.261 -0.1598  0.1074 -0.6746
42105SOL    HW236630   5.700   6.154   3.396 -0.4335 -0.8541 -1.0740
42106SOL     OW36631   2.877   8.924  11.286  0.0471 -0.0319 -0.0605
42106SOL    HW136632   2.938   8.905  11.215 -0.2910 -2.1752  0.1395
42106SOL    HW236633   2.842   9.010  11.265  1.4472  0.2641 -1.3945
42107SOL     OW36634   5.132   5.335   2.501 -0.2506  0.1334  0.0952
42107SOL    HW136635   5.141   5.429   2.492  0.9487 -0.0718 -1.2487
42107SOL    HW236636   5.222   5.302   2.498 -0.7433 -1.2229 -2.1929
42108SOL     OW36637   0.143   4.671  11.323  0.1920 -0.5499  0.4013
42108SOL    HW136638   0.199   4.706  11.393  0.7293  0.9399 -0.7269
42108SOL    HW236639   0.089   4.746  11.296  1.2438 -0.5632 -1.9720
42109SOL     OW36640  10.348  11.328   8.578  0.0474 -0.2857  0.2204
42109SOL    HW136641  10.443  11.338   8.566  0.1575 -0.7544  0.6680
42109SOL    HW236642  10.321  11.270   8.506  0.4596 -1.8850  1.3098
42110SOL     OW36643   9.485  11.755   2.473 -0.7379  0.4500  0.4753
42110SOL    HW136644   9.480  11.665   2.505 -0.4066  0.5036  0.6823
42110SOL    HW236645   9.439  11.754   2.389  0.9102 -0.3456 -0.4608
42111SOL     OW36646   2.802   0.676   0.982 -0.0881  0.8395 -0.1730
42111SOL    HW136647   2.890   0.670   1.020  0.0163  1.3763 -0.3284
42111SOL    HW236648   2.805   0.754   0.926 -1.1884  1.9212  1.2111
42112SOL     OW36649   4.485   1.311   0.694 -0.1153 -0.2256 -0.3641
42112SOL    HW136650   4.535   1.243   0.739 -1.2851 -1.4996 -0.9210
42112SOL    HW236651   4.421   1.341   0.758  1.6576  1.8620  0.5669
42113SOL     OW36652  11.584  12.828   9.975  0.3203  0.2903 -0.3887
42113SOL    HW136653  11.587  12.861   9.886 -2.7766 -0.2009 -0.7874
42113SOL    HW236654  11.497  12.788   9.983  1.4087 -1.9293  2.0777
42114SOL     OW36655   8.998   2.496  12.454  0.6763 -0.3511  0.2750
42114SOL    HW136656   8.942   2.537  12.519 -1.2361 -0.1444 -1.4338
42114SOL    HW236657   9.015   2.564  12.389  0.3297 -1.2841 -0.8171
42115SOL     OW36658   6.559  12.102  10.376  0.4205 -0.0177 -0.1035
42115SOL    HW136659   6.650  12.073  10.376 -0.0538 -1.6391 -1.5260
42115SOL    HW236660   6.532  12.097  10.467  1.5696 -0.1005  0.2447
42116SOL     OW36661   3.827   1.145  11.119 -0.6470 -0.2316  0.2684
42116SOL    HW136662   3.804   1.080  11.186 -1.4185 -0.2588 -0.0112
42116SOL    HW236663   3.850   1.093  11.042  1.8519 -0.2611  0.9503
42117SOL     OW36664   0.718   6.095  12.830 -0.2389  0.1223 -0.4155
42117SOL    HW136665   0.708   6.178  12.877 -0.1798  0.5669 -1.1701
42117SOL    HW236666   0.651   6.038  12.868 -0.1559  0.4541  0.2391
42118SOL     OW36667   8.387   5.028   4.985 -0.0052 -0.6569  0.4316
42118SOL    HW136668   8.368   5.112   4.944  1.5895 -1.3517 -1.9271
42118SOL    HW236669   8.375   4.964   4.915 -1.2753 -2.4814  2.1813
42119SOL     OW36670   6.911  11.365  12.535  0.3314  0.0555  0.3550
42119SOL    HW136671   6.975  11.432  12.512 -0.3962  0.7314  0.2520
42119SOL    HW236672   6.829  11.397  12.498 -0.3036 -0.2010  1.4895
42120SOL     OW36673  11.837   2.017   7.674  0.2143 -0.1988 -0.4229
42120SOL    HW136674  11.881   2.052   7.751  0.8157 -1.8721  0.0487
42120SOL    HW236675  11.744   2.021   7.694  0.3730 -0.6843  0.4232
42121SOL     OW36676   6.066  11.983   2.507  0.0247 -0.1274 -0.1536
42121SOL    HW136677   6.011  12.049   2.549  1.0385  0.1206  0.8292
42121SOL    HW236678   6.137  12.033   2.466 -0.5722 -0.4200 -1.6279
42122SOL     OW36679   9.713   3.242   1.714 -0.2537  0.2633 -0.7216
42122SOL    HW136680   9.743   3.332   1.726  0.1054  0.2210 -1.2308
42122SOL    HW236681   9.736   3.197   1.796 -2.5158  1.1525  0.4716
42123SOL     OW36682   4.882   5.824   2.995 -0.5428  0.1811 -0.2317
42123SOL    HW136683   4.880   5.895   2.932  1.2782  0.1190 -0.4228
42123SOL    HW236684   4.848   5.748   2.948 -1.5508  0.6965 -0.3408
42124SOL     OW36685   5.454   6.288   8.968  0.1565  0.6441 -0.1462
42124SOL    HW136686   5.510   6.282   9.046 -0.3856  2.2935  0.4188
42124SOL    HW236687   5.500   6.238   8.901  0.5224 -1.0259  1.2826
42125SOL     OW36688   7.579  10.854   1.445  0.0290  0.0204 -0.0576
42125SOL    HW136689   7.534  10.937   1.431 -1.3186 -0.7653 -0.5790
42125SOL    HW236690   7.517  10.787   1.413  0.0708 -1.3547  2.4749
42126SOL     OW36691   8.894   2.620   2.678 -0.1022  0.4633 -0.0316
42126SOL    HW136692   8.944   2.651   2.753 -1.9324  2.4777  0.4469
42126SOL    HW236693   8.840   2.695   2.652 -1.8810 -1.1667 -1.3333
42127SOL     OW36694   1.163   3.502   9.854 -0.3515 -0.3003 -0.1404
42127SOL    HW136695   1.074   3.517   9.886  0.2790  1.3427  1.0040
42127SOL    HW236696   1.155   3.500   9.759 -1.6562 -0.6562 -0.0387
42128SOL     OW36697  10.530   4.295   0.759 -0.1672 -0.9543 -0.6586
42128SOL    HW136698  10.520   4.218   0.702 -1.5266 -0.8160 -0.6441
42128SOL    HW236699  10.624   4.314   0.757 -0.0239 -1.6604 -1.9229
42129SOL     OW36700  12.742   5.864   4.858 -0.3720 -0.0319 -0.4787
42129SOL    HW136701  12.769   5.936   4.801 -0.3798  0.0477 -0.3822
42129SOL    HW236702  12.648   5.855   4.844  0.0264 -1.7278 -2.4487
42130SOL     OW36703   7.221   0.234   3.869 -0.3477  0.0451  0.0732
42130SOL    HW136704   7.197   0.314   3.823  0.0707 -0.3511 -0.8516
42130SOL    HW236705   7.227   0.261   3.961 -0.5075  1.0056 -0.1816
42131SOL     OW36706   9.787   2.631   5.646 -0.6808 -0.0652  0.0967
42131SOL    HW136707   9.826   2.548   5.673  1.6651  1.1761  0.7920
42131SOL    HW236708   9.717   2.647   5.710 -0.3904 -0.9493  0.6462
42132SOL     OW36709   0.409  12.732  11.822  0.4484 -0.3374  0.2519
42132SOL    HW136710   0.355  12.692  11.892 -1.1330  0.0510 -0.6934
42132SOL    HW236711   0.412  12.665  11.754  0.2595  0.0390 -0.1300
42133SOL     OW36712   1.635   1.961  10.071 -0.4096 -0.1371 -0.3352
42133SOL    HW136713   1.623   1.987  10.162 -0.5886  0.7896 -0.6196
42133SOL    HW236714   1.607   1.869  10.069  0.0533 -0.3150  0.6361
42134SOL     OW36715   2.545   1.599   7.275 -0.2056 -0.5307  0.4815
42134SOL    HW136716   2.591   1.662   7.219 -1.7355  0.2571  0.0562
42134SOL    HW236717   2.562   1.514   7.235  1.7265 -0.4146  0.9430
42135SOL     OW36718   1.976   0.227  11.813  0.0428 -0.4267  0.1954
42135SOL    HW136719   1.916   0.300  11.801 -0.0838 -0.1933  2.0497
42135SOL    HW236720   1.994   0.197  11.724  1.3209  2.8326 -0.8153
42136SOL     OW36721   1.041   7.854   5.451  0.1190 -0.4284 -0.1290
42136SOL    HW136722   1.094   7.929   5.480 -0.6638  0.5869 -1.2549
42136SOL    HW236723   1.105   7.792   5.415  0.8860 -0.7949  1.6973
42137SOL     OW36724   5.204  12.328   0.960 -0.3585 -0.3628 -0.3255
42137SOL    HW136725   5.258  12.267   1.010  0.0622  0.3083  0.0600
42137SOL    HW236726   5.206  12.295   0.871 -0.0742 -0.8695 -0.1310
42138SOL     OW36727   5.624   5.404   3.838 -0.1578 -0.3315  0.0679
42138SOL    HW136728   5.595   5.324   3.794 -0.3723 -2.5409  3.7660
42138SOL    HW236729   5.544   5.442   3.874  0.1484  0.7026 -0.3008
42139SOL     OW36730  12.449   8.449   9.643  0.2218 -0.7028 -0.0303
42139SOL    HW136731  12.432   8.514   9.711 -1.2513  1.0603 -1.9460
42139SOL    HW236732  12.533   8.411   9.667  0.6054  1.0882  1.8056
42140SOL     OW36733   4.387  11.329   0.698  0.0481 -0.1513  0.3083
42140SOL    HW136734   4.295  11.307   0.681 -0.7175  1.7746  1.5568
42140SOL    HW236735   4.382  11.405   0.756  2.4275 -1.6716  2.7290
42141SOL     OW36736   1.804   3.185  11.651  0.2922  0.3786 -0.3604
42141SOL    HW136737   1.807   3.280  11.659  0.1990  0.3109  0.4891
42141SOL    HW236738   1.895   3.157  11.664  0.0741  0.2374  0.9619
42142SOL     OW36739   6.214   1.501   0.557  0.6325  0.9615 -0.2794
42142SOL    HW136740   6.289   1.442   0.560 -0.7977 -0.9579 -0.3679
42142SOL    HW236741   6.158   1.467   0.487 -1.4476  0.8663  1.3160
42143SOL     OW36742   2.489   6.315   8.235  0.0453 -0.2484 -0.3803
42143SOL    HW136743   2.518   6.363   8.158  0.2635  0.5779  0.1932
42143SOL    HW236744   2.406   6.357   8.259  1.0794  1.0671  1.1394
42144SOL     OW36745   6.743   8.587   9.899 -0.1876  0.5554 -0.1041
42144SOL    HW136746   6.705   8.534   9.829  0.7147 -0.2516 -0.0107
42144SOL    HW236747   6.808   8.641   9.855 -0.3260  0.7817 -0.0324
42145SOL     OW36748   6.054   7.739   1.181  0.6025  0.3361 -0.3817
42145SOL    HW136749   6.083   7.737   1.273 -1.2645 -1.0107  0.2384
42145SOL    HW236750   5.995   7.815   1.177 -0.8455 -0.7289  0.0784
42146SOL     OW36751   1.273   3.520  11.004  0.2247 -0.0963  0.4816
42146SOL    HW136752   1.255   3.450  10.941  2.0152 -0.1539 -0.0303
42146SOL    HW236753   1.284   3.598  10.950  0.7055  0.0715  0.8215
42147SOL     OW36754  11.528   6.599   8.721 -0.0042  0.3616  0.2104
42147SOL    HW136755  11.593   6.583   8.653 -1.4105 -0.4147 -1.0061
42147SOL    HW236756  11.508   6.512   8.756  0.7230  0.7554  1.6639
42148SOL     OW36757   2.519  11.489  12.826 -0.6425 -0.1047 -0.0658
42148SOL    HW136758   2.490  11.409  12.782 -0.0438 -0.4796  0.2134
42148SOL    HW236759   2.614  11.482  12.828 -0.5243  0.9888 -0.7469
42149SOL     OW36760   2.297  12.061   8.349 -0.8372  0.3388 -0.4399
42149SOL    HW136761   2.379  12.109   8.358  0.0101 -0.8759 -1.3108
42149SOL    HW236762   2.249  12.081   8.429 -0.1549  1.9053 -0.3745
42150SOL     OW36763   2.239  10.817   8.877 -0.3117 -0.9964 -0.0920
42150SOL    HW136764   2.145  10.831   8.887 -0.5027 -1.0093 -1.7074
42150SOL    HW236765   2.276  10.845   8.961 -1.3420  2.7595 -0.6844
42151SOL     OW36766   4.953   9.154   9.742  0.0607  0.5310  0.8891
42151SOL    HW136767   4.940   9.061   9.760 -0.1630  0.2428 -0.6590
42151SOL    HW236768   5.005   9.156   9.662 -2.5257  1.6943 -0.8866
42152SOL     OW36769   3.941   5.178   0.650  0.2202  0.2001 -0.1978
42152SOL    HW136770   3.963   5.258   0.601 -0.7041  0.3009 -0.4756
42152SOL    HW236771   3.858   5.150   0.612 -0.8731  0.6458  1.7449
42153SOL     OW36772  11.137   4.603  12.529 -0.0205  0.6351 -0.3992
42153SOL    HW136773  11.185   4.660  12.590 -1.6809  0.3261  1.3154
42153SOL    HW236774  11.154   4.515  12.562 -0.0023  0.3739 -1.1102
42154SOL     OW36775   5.451   8.448   0.760  0.6211  0.3049  0.1715
42154SOL    HW136776   5.523   8.400   0.803  0.3049 -0.6801 -0.3512
42154SOL    HW236777   5.389   8.379   0.735 -0.3211  1.1037  0.2587
42155SOL     OW36778   0.029   0.525   8.977 -0.1964 -0.5317  0.1166
42155SOL    HW136779   0.120   0.522   8.949  0.0937  1.5486  0.7090
42155SOL    HW236780  -0.016   0.464   8.918  1.2334 -0.1174 -1.4753
42156SOL     OW36781   6.178   2.853   0.796  0.2448  0.1809  0.3076
42156SOL    HW136782   6.186   2.890   0.884 -0.4829  1.1526 -0.0177
42156SOL    HW236783   6.168   2.929   0.739 -0.2473 -0.4794 -0.5095
42157SOL     OW36784   3.598   4.884   2.392 -0.5068  0.0280 -0.1140
42157SOL    HW136785   3.659   4.820   2.429  0.5390  1.5429  0.9088
42157SOL    HW236786   3.648   4.926   2.321 -1.4303 -0.7347 -1.2527
42158SOL     OW36787   1.516   6.934   9.078  0.2372  0.7213  0.3980
42158SOL    HW136788   1.434   6.981   9.094  0.6075  1.6584 -0.3652
42158SOL    HW236789   1.503   6.849   9.120  0.0339  1.9200  2.9529
42159SOL     OW36790   0.797  11.929   6.429  0.7954 -0.1149  0.1948
42159SOL    HW136791   0.714  11.957   6.467  0.4315  0.0577 -0.7084
42159SOL    HW236792   0.808  11.839   6.458 -0.5476 -0.7115 -1.0389
42160SOL     OW36793   2.746  11.323   0.852 -0.4342 -0.8951  0.3030
42160SOL    HW136794   2.653  11.305   0.839 -0.4523 -0.3536 -0.4223
42160SOL    HW236795   2.751  11.419   0.852  0.3628 -0.8779 -1.7499
42161SOL     OW36796   3.065  10.392   5.048 -0.0220 -0.0233  0.3690
42161SOL    HW136797   3.086  10.482   5.022  1.2055 -0.0166  1.2958
42161SOL    HW236798   2.971  10.384   5.032  0.0353  1.0915 -0.6874
42162SOL     OW36799   5.736   2.573   6.587  0.0500 -0.1097 -0.3526
42162SOL    HW136800   5.818   2.569   6.637  0.1528  0.7948 -0.4418
42162SOL    HW236801   5.762   2.595   6.498 -0.3382  0.8642 -0.2339
42163SOL     OW36802   7.926  12.771  10.224  0.1905  0.1133 -0.2833
42163SOL    HW136803   7.836  12.800  10.212  0.0187  0.5887  1.8180
42163SOL    HW236804   7.975  12.852  10.242  1.2261 -0.0360 -2.1721
42164SOL     OW36805   2.605   3.047   9.423 -1.1732  0.2244  0.4412
42164SOL    HW136806   2.512   3.070   9.416 -0.9875  1.7906  2.3691
42164SOL    HW236807   2.622   3.047   9.517 -0.0515 -3.7513  0.3923
42165SOL     OW36808   8.233   4.349   0.641  0.0582  0.3565  0.0364
42165SOL    HW136809   8.239   4.436   0.602  1.5346  0.3977  0.3008
42165SOL    HW236810   8.296   4.351   0.713 -0.7053 -0.5803  0.7486
42166SOL     OW36811   1.752   4.069   2.052 -0.4755 -0.4204  0.0525
42166SOL    HW136812   1.840   4.084   2.016  0.3149 -2.0365  1.1899
42166SOL    HW236813   1.720   4.157   2.073  0.8200  0.2185 -0.5120
42167SOL     OW36814   5.940   5.812   1.963  0.3607 -0.1582 -0.1377
42167SOL    HW136815   5.984   5.858   1.892  1.5020  1.5216  1.5847
42167SOL    HW236816   6.009   5.795   2.028 -0.5563 -2.0203  0.4420
42168SOL     OW36817   4.203  10.185  11.909 -0.1673 -0.2084 -0.4557
42168SOL    HW136818   4.136  10.199  11.976 -0.7704 -1.2021 -0.8240
42168SOL    HW236819   4.264  10.257  11.920  0.3342 -0.9327  1.8719
42169SOL     OW36820  11.103   6.946   8.353 -0.1266  0.4209  0.3655
42169SOL    HW136821  11.091   6.865   8.403  0.0489 -0.3624 -0.8381
42169SOL    HW236822  11.176   6.990   8.397  0.4307 -0.5537  0.4446
42170SOL     OW36823   8.014  10.715   4.569  0.5173  0.8518 -0.0291
42170SOL    HW136824   8.049  10.628   4.548  0.5504  1.0574 -0.8857
42170SOL    HW236825   8.070  10.776   4.519 -0.6368  1.2256 -0.9177
42171SOL     OW36826   3.608   5.641   1.113 -0.1011  0.5079 -0.2408
42171SOL    HW136827   3.618   5.677   1.201  2.6116  3.0699 -1.4244
42171SOL    HW236828   3.691   5.599   1.094  0.5669  2.6345 -2.5550
42172SOL     OW36829   1.987   0.731   4.979  0.3814  0.3922 -0.2957
42172SOL    HW136830   1.895   0.727   5.005  0.4625  0.8797  0.0915
42172SOL    HW236831   2.001   0.823   4.954  0.8800  0.4274  0.0948
42173SOL     OW36832  10.950   6.313   5.351  0.2604  0.1391 -0.5232
42173SOL    HW136833  10.873   6.281   5.399  1.0398  1.1300  1.4857
42173SOL    HW236834  11.024   6.289   5.406  1.2500  0.8882 -1.4971
42174SOL     OW36835   6.723   1.893   4.639 -0.1287  0.2120 -0.0842
42174SOL    HW136836   6.642   1.844   4.640  0.2074 -0.3667 -0.5814
42174SOL    HW236837   6.724   1.941   4.722 -1.0556  0.3645 -0.1563
42175SOL     OW36838   0.291   6.643   4.224  0.5614  0.4803 -0.4833
42175SOL    HW136839   0.330   6.702   4.158  0.6367 -0.5753 -1.4086
42175SOL    HW236840   0.203   6.679   4.239  0.5186  0.6978 -1.2147
42176SOL     OW36841   4.323   0.068   2.849 -0.2536 -0.2593  0.2004
42176SOL    HW136842   4.349  -0.007   2.796  2.5562  0.4068  0.4795
42176SOL    HW236843   4.357   0.049   2.937  1.2368  1.6128  0.0925
42177SOL     OW36844   3.068   1.385   5.270 -0.2369 -0.5608 -0.1929
42177SOL    HW136845   2.994   1.444   5.283 -0.9609 -1.4264 -0.2236
42177SOL    HW236846   3.052   1.313   5.331 -1.0684 -2.2539 -2.2891
42178SOL     OW36847   3.863   4.569   7.872  0.3401 -0.3286 -0.1417
42178SOL    HW136848   3.943   4.517   7.875  0.5447 -0.0711 -0.8671
42178SOL    HW236849   3.869   4.618   7.790 -0.3094  0.0977  0.0527
42179SOL     OW36850  11.209  12.180   2.791 -0.7845  0.3588  0.0692
42179SOL    HW136851  11.275  12.116   2.763 -1.8820 -1.0827  0.5987
42179SOL    HW236852  11.250  12.265   2.777 -0.1664 -0.3189 -3.0756
42180SOL     OW36853  10.477   0.530   7.287  0.2633  0.1496 -0.3580
42180SOL    HW136854  10.471   0.526   7.383  3.0715  2.1655  0.0095
42180SOL    HW236855  10.464   0.622   7.266  2.0582  0.1563 -1.6332
42181SOL     OW36856   5.660   5.659   7.284 -0.3221  0.0227  0.4435
42181SOL    HW136857   5.646   5.744   7.326 -0.4992 -1.3046  3.2686
42181SOL    HW236858   5.755   5.653   7.274  0.1756 -1.1332  4.3498
42182SOL     OW36859   6.917   0.605  11.850 -0.5362 -0.0091 -0.2051
42182SOL    HW136860   6.837   0.645  11.884  0.8702  1.1544  1.9505
42182SOL    HW236861   6.918   0.517  11.887 -1.0678 -0.2396 -0.7162
42183SOL     OW36862  12.264   3.620   2.526 -0.2423 -0.2184  0.1108
42183SOL    HW136863  12.175   3.591   2.508 -0.5832  1.9238 -2.1491
42183SOL    HW236864  12.313   3.599   2.446  0.3830  1.7693 -0.0831
42184SOL     OW36865  10.470  10.380   5.418  0.4700 -0.3386 -0.0384
42184SOL    HW136866  10.555  10.380   5.462  0.9164 -2.0189 -0.8423
42184SOL    HW236867  10.425  10.303   5.452  0.3482 -0.9912 -1.5968
42185SOL     OW36868   3.722   0.078   2.904 -0.3693 -0.0908 -0.0002
42185SOL    HW136869   3.747   0.017   2.834 -1.7882  0.9814 -1.5167
42185SOL    HW236870   3.805   0.117   2.932  0.1383  0.6666 -2.2987
42186SOL     OW36871   9.228   9.883   4.868  0.1449 -0.1148 -0.1574
42186SOL    HW136872   9.228   9.887   4.963 -0.8166  1.3988 -0.1820
42186SOL    HW236873   9.308   9.835   4.845  0.3884 -0.4815  1.3950
42187SOL     OW36874   2.215   6.146   3.361 -0.8768 -0.3697  0.3511
42187SOL    HW136875   2.166   6.224   3.337 -0.6055 -0.5629 -0.8495
42187SOL    HW236876   2.282   6.136   3.294 -1.6803 -2.3157 -0.2410
42188SOL     OW36877   4.609   8.568   5.236  0.3520 -0.3989  0.8759
42188SOL    HW136878   4.597   8.497   5.299  4.9955 -2.7014 -0.3700
42188SOL    HW236879   4.597   8.528   5.150 -0.2199  1.2297  0.1485
42189SOL     OW36880   6.995   5.860   5.986  0.0010  0.5212 -0.2984
42189SOL    HW136881   7.019   5.952   5.976  2.6115 -0.0599 -0.1428
42189SOL    HW236882   6.984   5.848   6.080 -0.0321  0.6160 -0.2900
42190SOL     OW36883   1.875   9.285  12.755 -0.4672 -0.6434  0.5274
42190SOL    HW136884   1.785   9.312  12.734 -0.6355  0.4051  2.3368
42190SOL    HW236885   1.864   9.214  12.818 -0.0939  0.6858  2.1580
42191SOL     OW36886   9.816   2.881  10.890  0.2984  0.1246 -0.2300
42191SOL    HW136887   9.872   2.833  10.830  1.5930  1.1527  0.1235
42191SOL    HW236888   9.727   2.861  10.861  0.7471 -2.5146 -0.0616
42192SOL     OW36889   1.007   4.090   6.045 -0.4549  0.1764 -0.7738
42192SOL    HW136890   1.080   4.150   6.025 -0.5594  1.3658  1.9459
42192SOL    HW236891   1.031   4.051   6.129 -2.8877  0.5312  0.1601
42193SOL     OW36892   6.445  10.567  10.421  0.1104  0.3440  0.5917
42193SOL    HW136893   6.365  10.547  10.469  0.5260 -0.0636  1.1297
42193SOL    HW236894   6.515  10.529  10.474  0.4559 -1.7441 -1.2203
42194SOL     OW36895   3.425   7.326   0.599  0.4773 -0.0671 -0.4065
42194SOL    HW136896   3.332   7.306   0.610  0.0979  1.8931  0.3239
42194SOL    HW236897   3.470   7.246   0.625 -0.9401 -0.3316  1.4409
42195SOL     OW36898   6.480  12.126   8.255 -0.0971  0.5734 -0.3859
42195SOL    HW136899   6.425  12.180   8.313  0.6380  0.8948  0.0317
42195SOL    HW236900   6.418  12.083   8.197 -0.7995  0.8731  0.1200
42196SOL     OW36901   3.584   4.306   0.046 -0.1490 -0.1982  0.2257
42196SOL    HW136902   3.624   4.256   0.116  2.2567  0.8986 -0.2540
42196SOL    HW236903   3.552   4.386   0.088  0.7054  0.1663  0.1970
42197SOL     OW36904   2.843  12.834  11.497 -0.3248 -0.1250 -0.7692
42197SOL    HW136905   2.864  12.755  11.546  3.3235  0.3001 -1.3871
42197SOL    HW236906   2.832  12.805  11.406  3.2543  0.1544 -1.4239
42198SOL     OW36907   2.260   7.562  10.415 -0.1595 -0.2200  0.0279
42198SOL    HW136908   2.246   7.648  10.374 -2.2715  0.6125  2.2419
42198SOL    HW236909   2.186   7.509  10.386 -0.4371 -0.3385  0.9210
42199SOL     OW36910  11.695   8.034   0.901  0.0965 -0.0652 -0.5163
42199SOL    HW136911  11.639   7.973   0.852  0.2575 -0.0419 -0.7269
42199SOL    HW236912  11.762   7.979   0.940  0.6692  0.0564 -1.2953
42200SOL     OW36913   8.095  10.277  10.455  0.0619 -0.6593 -0.2792
42200SOL    HW136914   8.078  10.360  10.500 -1.1974 -1.1048  0.1066
42200SOL    HW236915   8.190  10.268  10.457  0.1524  0.2842  0.5559
42201SOL     OW36916   0.839   3.871   6.009 -0.4303  0.3667 -0.0909
42201SOL    HW136917   0.814   3.856   6.100 -1.8735  1.1414 -0.3296
42201SOL    HW236918   0.887   3.954   6.010  1.1243 -0.4796  0.1743
42202SOL     OW36919   9.611   2.692   3.200 -0.5494  0.3004  0.2772
42202SOL    HW136920   9.672   2.618   3.191  0.0482  0.5778  1.8241
42202SOL    HW236921   9.603   2.705   3.294  0.2779  2.9762  0.0498
42203SOL     OW36922   9.923   8.059  10.557  0.2861  0.8176 -0.4566
42203SOL    HW136923   9.919   8.148  10.591  0.4803 -0.4636  3.4325
42203SOL    HW236924   9.831   8.030  10.557  0.4118  0.3900  0.3446
42204SOL     OW36925   6.013  11.705   1.255 -0.3765  0.1286 -0.9642
42204SOL    HW136926   6.007  11.640   1.185 -0.3515 -0.2800 -0.5939
42204SOL    HW236927   6.104  11.735   1.253 -0.6066  0.8054 -1.7067
42205SOL     OW36928   4.913   5.804   9.429  0.4544  0.6043  0.3897
42205SOL    HW136929   4.962   5.730   9.465  1.0189  0.7482 -0.0617
42205SOL    HW236930   4.963   5.881   9.457  1.9387  0.6774 -2.0721
42206SOL     OW36931  12.001   7.286   6.692 -0.3301  0.0536  0.0625
42206SOL    HW136932  12.048   7.211   6.727  1.2096  1.4887  1.2669
42206SOL    HW236933  12.051   7.362   6.723 -3.1616  1.6836  0.9701
42207SOL     OW36934   3.361   1.953  11.760  0.5469 -0.1719 -0.1625
42207SOL    HW136935   3.423   1.977  11.829 -0.8215  0.7336  0.8052
42207SOL    HW236936   3.398   1.874  11.721  2.0958  0.1181  0.6315
42208SOL     OW36937  12.234   6.295   8.457  0.0787 -0.6060  0.0716
42208SOL    HW136938  12.217   6.314   8.549  1.0623 -1.7353  0.5094
42208SOL    HW236939  12.275   6.374   8.423 -0.8830  0.0593  0.4195
42209SOL     OW36940  10.775  10.963  10.655 -0.4701 -0.2854  0.5352
42209SOL    HW136941  10.698  10.914  10.683 -0.5577 -0.9955 -0.8529
42209SOL    HW236942  10.766  11.049  10.696 -1.3195 -0.7879  1.4313
42210SOL     OW36943  12.886   8.049   7.907 -0.1332  0.0823 -0.5543
42210SOL    HW136944  12.817   8.113   7.887 -0.4773  0.9332  2.7661
42210SOL    HW236945  12.864   8.016   7.994  3.8811  0.8072  0.9786
42211SOL     OW36946   3.069   3.995   0.850  0.0288 -0.1755  0.0933
42211SOL    HW136947   3.105   4.022   0.765  1.0612  0.4661  0.7094
42211SOL    HW236948   3.016   3.918   0.830  3.0408 -2.2473 -0.6986
42212SOL     OW36949   5.742  12.033   0.783  0.3390 -0.0316  0.6167
42212SOL    HW136950   5.775  12.015   0.695  0.8730 -0.6060  0.9217
42212SOL    HW236951   5.820  12.060   0.833 -0.2512  2.0858  0.4686
42213SOL     OW36952   2.610   1.719   4.197 -0.2516 -0.1707 -0.2196
42213SOL    HW136953   2.607   1.768   4.279 -1.4274 -1.3781  0.5084
42213SOL    HW236954   2.609   1.786   4.129  1.6992  0.8821  0.7307
42214SOL     OW36955  10.004   6.334   1.321  0.2010 -0.2553 -0.3454
42214SOL    HW136956   9.932   6.284   1.360  1.9926 -2.9346 -0.2502
42214SOL    HW236957  10.038   6.388   1.393 -0.8824  0.1055 -0.0838
42215SOL     OW36958   3.474   3.497  11.154 -0.0953  0.4621  0.0999
42215SOL    HW136959   3.378   3.496  11.155 -0.1148  1.1814  0.7726
42215SOL    HW236960   3.499   3.452  11.074 -0.9288 -2.5386  1.3955
42216SOL     OW36961  10.861   1.391   8.410 -0.0035 -0.4213 -0.1699
42216SOL    HW136962  10.879   1.481   8.382  1.6511 -0.2683  1.2465
42216SOL    HW236963  10.940   1.364   8.455 -0.9866 -2.1429  0.6085
42217SOL     OW36964   6.550  11.615  10.439 -0.6113  0.1909  0.3562
42217SOL    HW136965   6.491  11.541  10.428  0.1328 -0.4506  0.6130
42217SOL    HW236966   6.498  11.680  10.487 -0.9772 -0.5378  0.9708
42218SOL     OW36967   7.971   9.218  10.731 -0.0512  0.4228  0.1275
42218SOL    HW136968   7.947   9.142  10.679 -2.2547  0.9029  0.3022
42218SOL    HW236969   7.969   9.187  10.822 -1.7752  0.7933  0.2657
42219SOL     OW36970   2.194   7.303   0.124 -0.1659  0.3786  0.0171
42219SOL    HW136971   2.200   7.234   0.058  2.4237  0.0356  0.5161
42219SOL    HW236972   2.117   7.354   0.099  0.5501  0.1140 -3.1165
42220SOL     OW36973  12.957   0.491   7.084  0.5829 -0.1201 -0.1168
42220SOL    HW136974  13.033   0.467   7.030  0.2527 -0.9993 -0.1945
42220SOL    HW236975  12.920   0.568   7.040  0.9024 -0.2306 -0.5872
42221SOL     OW36976   8.100   0.457   4.717  1.0237  0.0709  0.6753
42221SOL    HW136977   8.025   0.426   4.768  0.3333 -1.3241 -1.0846
42221SOL    HW236978   8.064   0.476   4.631  2.4444  0.8631  0.2240
42222SOL     OW36979   7.554   1.666   0.000  0.4652  0.4661 -0.1292
42222SOL    HW136980   7.621   1.732   0.017 -1.4482  2.2541  1.0379
42222SOL    HW236981   7.532   1.676  -0.092 -0.2019  1.9508  0.1568
42223SOL     OW36982   2.170   2.974   1.941  0.2642 -0.2606 -0.1582
42223SOL    HW136983   2.157   2.951   2.033 -0.2672  3.0204  0.7337
42223SOL    HW236984   2.260   3.006   1.937 -0.8324  3.3092  0.2876
42224SOL     OW36985   3.911  12.080   1.027 -0.1456  0.7588  0.3070
42224SOL    HW136986   3.848  12.142   0.991  1.2225  2.0404  0.0153
42224SOL    HW236987   3.982  12.078   0.963  0.1046 -0.6791  0.6025
42225SOL     OW36988  11.287  10.109  10.744  0.0544  0.0855 -0.1034
42225SOL    HW136989  11.350  10.180  10.736  0.2103  0.1770  1.4761
42225SOL    HW236990  11.230  10.118  10.668  1.0718  0.8794 -0.7980
42226SOL     OW36991  11.685  10.288   3.439 -0.1102 -0.3400  0.3217
42226SOL    HW136992  11.612  10.350   3.441 -0.5692 -0.8022 -1.1195
42226SOL    HW236993  11.649  10.210   3.398  0.7893 -1.1456  1.0385
42227SOL     OW36994   0.178   0.513  11.353  0.2096 -0.1039 -0.0746
42227SOL    HW136995   0.120   0.546  11.285 -0.4537 -0.2807  0.3942
42227SOL    HW236996   0.125   0.514  11.432  0.7562 -0.5568  0.3058
42228SOL     OW36997  11.253   6.055   3.347  0.0115 -0.8271  0.0459
42228SOL    HW136998  11.308   5.983   3.378  0.7794  0.1257  0.9402
42228SOL    HW236999  11.193   6.013   3.285 -0.0200 -2.3591  1.0437
42229SOL     OW37000   2.915   4.097   1.281  0.3258  0.3992 -0.5966
42229SOL    HW137001   2.922   4.185   1.245 -0.7389  0.3534 -0.9469
42229SOL    HW237002   2.858   4.050   1.220 -0.9670  0.1186  0.7572
42230SOL     OW37003   6.859  10.193   1.517 -0.2872  0.0708  0.3536
42230SOL    HW137004   6.931  10.141   1.484 -0.3196 -0.9468  1.7779
42230SOL    HW237005   6.884  10.214   1.607 -1.3298  0.5424  0.5538
42231SOL     OW37006   3.893  11.003   7.731  0.0753 -0.3402  0.1171
42231SOL    HW137007   3.839  11.077   7.703 -2.1956 -1.7418  0.5262
42231SOL    HW237008   3.868  10.987   7.822  1.1320 -1.1017  0.2977
42232SOL     OW37009   3.851   2.154   2.914 -0.1004  0.7871 -0.0777
42232SOL    HW137010   3.870   2.060   2.904  1.4878  1.1129 -0.4589
42232SOL    HW237011   3.924   2.187   2.966 -0.0896  1.9969 -0.8332
42233SOL     OW37012   9.550   8.337   3.426 -0.0405 -0.6312 -0.5427
42233SOL    HW137013   9.514   8.280   3.358 -0.6105 -0.7273 -0.1682
42233SOL    HW237014   9.528   8.293   3.508 -2.1045  0.9601 -0.1463
42234SOL     OW37015   2.013   1.202  12.288  0.6578  0.3976 -0.2666
42234SOL    HW137016   1.998   1.121  12.240  0.7344  1.5521 -2.3430
42234SOL    HW237017   1.996   1.272  12.225 -0.8042  2.0870  1.8342
42235SOL     OW37018   1.846   8.680   7.183  0.0495  0.1046 -0.4174
42235SOL    HW137019   1.795   8.650   7.107 -0.1484  1.2261 -0.7484
42235SOL    HW237020   1.792   8.748   7.223  0.8780  0.6824 -0.2438
42236SOL     OW37021   0.347  11.164   3.058  0.3030 -0.3539 -0.1093
42236SOL    HW137022   0.404  11.087   3.056 -0.5276 -0.9942  0.1919
42236SOL    HW237023   0.259  11.128   3.050 -0.0376  0.6631 -1.2584
42237SOL     OW37024   2.742   2.020   4.262 -0.2623  0.8056  0.7703
42237SOL    HW137025   2.817   2.042   4.317  0.8200  0.6729 -0.5845
42237SOL    HW237026   2.780   1.974   4.187 -1.7611  0.2835  0.2871
42238SOL     OW37027   0.935   9.059   2.625 -0.2800 -0.3376  0.5576
42238SOL    HW137028   1.027   9.077   2.643 -0.6075  0.2629  1.7489
42238SOL    HW237029   0.890   9.077   2.708 -1.6326  0.6469 -0.3393
42239SOL     OW37030  10.129   0.718   0.118 -0.0868  0.5212 -0.2037
42239SOL    HW137031  10.034   0.724   0.122 -0.4443 -2.2318 -1.8916
42239SOL    HW237032  10.154   0.768   0.041 -0.4278 -0.2717 -0.8497
42240SOL     OW37033   2.994   2.293  12.414 -0.4166 -0.1520 -0.6459
42240SOL    HW137034   2.972   2.215  12.363  0.3593 -0.6451 -0.2472
42240SOL    HW237035   3.083   2.276  12.445 -1.3231 -0.4465  1.9769
42241SOL     OW37036   2.919   0.645   9.212  0.3989 -0.8753 -0.3876
42241SOL    HW137037   2.917   0.615   9.122 -0.9975 -0.4561 -0.5242
42241SOL    HW237038   2.852   0.593   9.257  1.0225 -1.0300  0.3935
42242SOL     OW37039   8.909  10.383  10.453  0.0348  0.3637  0.8003
42242SOL    HW137040   8.913  10.478  10.446  0.1667  0.3201  0.1627
42242SOL    HW237041   8.908  10.353  10.362  0.9320 -0.2904  0.9968
42243SOL     OW37042  10.505   9.496   0.669  0.1082 -0.3150 -0.0253
42243SOL    HW137043  10.472   9.501   0.579  0.4259  0.0969 -0.1225
42243SOL    HW237044  10.481   9.408   0.699 -0.5454 -0.2357 -0.2985
42244SOL     OW37045   7.829   0.271   9.266  0.6423  0.5458  0.9385
42244SOL    HW137046   7.821   0.188   9.312 -0.8000  0.6711  0.9853
42244SOL    HW237047   7.918   0.272   9.232  0.6327 -1.0846  0.7923
42245SOL     OW37048   0.805   8.629   0.583 -0.0131 -0.3554  0.1883
42245SOL    HW137049   0.866   8.576   0.634  0.3870 -0.0159  0.0739
42245SOL    HW237050   0.842   8.718   0.587 -1.7132  0.3367  2.0396
42246SOL     OW37051  10.692   2.591  10.479 -0.9475 -0.2789 -0.4876
42246SOL    HW137052  10.635   2.545  10.541 -0.1118 -0.9770 -0.2214
42246SOL    HW237053  10.688   2.538  10.399  0.0852 -0.9030 -0.1513
42247SOL     OW37054   6.253   7.457   4.713  0.1975 -0.0743  0.0353
42247SOL    HW137055   6.315   7.385   4.707 -0.1247 -0.4484  0.9085
42247SOL    HW237056   6.207   7.457   4.629 -0.8083 -1.8436  0.5392
42248SOL     OW37057   0.850  10.844   8.676  0.4702  0.0145 -0.4455
42248SOL    HW137058   0.789  10.857   8.749  0.0446 -0.5546 -0.6890
42248SOL    HW237059   0.937  10.848   8.716  0.2325 -1.6735  0.3536
42249SOL     OW37060   2.950   9.253   1.801  0.0680 -0.0163  0.2037
42249SOL    HW137061   2.905   9.180   1.844  1.2950 -0.7587  0.3014
42249SOL    HW237062   2.896   9.272   1.724  0.0637 -1.5080 -0.1983
42250SOL     OW37063   7.494   2.880   1.066 -0.1444 -0.4255  0.3504
42250SOL    HW137064   7.504   2.789   1.094  1.5718  0.0052  1.2470
42250SOL    HW237065   7.572   2.899   1.014 -0.9382  0.2838 -0.6536
42251SOL     OW37066   1.585   6.966   9.514 -0.0834 -0.1151 -0.0726
42251SOL    HW137067   1.537   7.046   9.496  0.3355  0.1081 -0.2269
42251SOL    HW237068   1.663   6.971   9.458  0.6846  0.0708  0.9788
42252SOL     OW37069  10.920   6.749   2.117  0.2971 -0.0923  0.6158
42252SOL    HW137070  10.943   6.831   2.075  0.1441 -0.6025 -0.4832
42252SOL    HW237071  11.002   6.719   2.158  0.8447 -0.3613 -0.6421
42253SOL     OW37072   2.028   3.151   6.549  0.1249 -0.6962 -0.3979
42253SOL    HW137073   2.118   3.178   6.531  0.2587  0.3315  1.5701
42253SOL    HW237074   2.036   3.072   6.603 -0.0475  0.5701  1.5751
42254SOL     OW37075   2.499   0.188   8.644 -0.4867 -0.1489 -0.0845
42254SOL    HW137076   2.441   0.264   8.632 -0.9657 -0.5795 -0.5565
42254SOL    HW237077   2.451   0.130   8.703 -1.7000 -1.6304 -2.3694
42255SOL     OW37078   4.519   1.080   3.888 -0.8102  0.4599 -0.0139
42255SOL    HW137079   4.429   1.049   3.873 -1.0116  0.9784  0.1179
42255SOL    HW237080   4.528   1.084   3.983 -0.0323 -1.3561  0.0244
42256SOL     OW37081  12.931  11.805   7.416  0.1696  0.0140  0.5524
42256SOL    HW137082  12.840  11.836   7.418 -0.3984 -1.6007  1.6763
42256SOL    HW237083  12.982  11.881   7.442 -0.6600  1.4259 -1.6308
42257SOL     OW37084   2.659   6.226  12.864  0.0521  0.0125 -0.4196
42257SOL    HW137085   2.670   6.243  12.771  0.7688  0.2557 -0.2961
42257SOL    HW237086   2.707   6.144  12.880 -0.2885 -0.1697 -0.3111
42258SOL     OW37087   1.654  12.958   3.988  0.3452  0.3483  0.0906
42258SOL    HW137088   1.681  13.048   4.006  0.5712  0.1525  0.7499
42258SOL    HW237089   1.615  12.962   3.900  1.4380  0.8511 -0.3852
42259SOL     OW37090   6.489  12.175   2.926  0.0325 -0.2747  0.2798
42259SOL    HW137091   6.564  12.120   2.948  1.3019  1.8168  1.4530
42259SOL    HW237092   6.485  12.173   2.830  0.1971 -2.1016  0.2656
42260SOL     OW37093  10.896  10.354   0.846 -0.0467  0.2418  0.5705
42260SOL    HW137094  10.979  10.402   0.851 -0.1083  0.2766  1.5225
42260SOL    HW237095  10.910  10.275   0.899 -0.4332 -0.0507  0.2508
42261SOL     OW37096   4.989   0.924   6.587  0.2155  0.2264  0.0434
42261SOL    HW137097   4.895   0.938   6.592  0.1759 -0.4036  1.8565
42261SOL    HW237098   4.999   0.838   6.548  0.0871  0.5763 -0.7899
42262SOL     OW37099   1.681   4.364   5.548  0.2098  0.1750 -0.3612
42262SOL    HW137100   1.607   4.310   5.575 -0.1545  0.6428 -0.4048
42262SOL    HW237101   1.725   4.387   5.629  0.8858 -0.9141 -0.4101
42263SOL     OW37102  12.741  10.249   3.117 -0.1381  0.0815 -0.1040
42263SOL    HW137103  12.816  10.234   3.174  0.0956 -1.2451 -0.7336
42263SOL    HW237104  12.670  10.199   3.158 -0.0944 -0.4732 -0.6966
42264SOL     OW37105  10.446  11.795   2.231 -0.3235 -0.1388  0.1392
42264SOL    HW137106  10.430  11.879   2.274 -1.4014 -0.3652  0.2152
42264SOL    HW237107  10.383  11.792   2.159 -2.4486 -2.1516  1.9521
42265SOL     OW37108   6.061   2.759   8.312  0.6708 -0.7750 -0.0684
42265SOL    HW137109   6.053   2.787   8.221 -1.5908 -0.0792  0.2719
42265SOL    HW237110   6.094   2.836   8.358 -1.7888  0.1810  0.2379
42266SOL     OW37111   8.969  11.009   0.862  0.7923 -0.7336 -0.0329
42266SOL    HW137112   8.924  11.007   0.947  1.5332 -1.7796  0.3519
42266SOL    HW237113   9.044  10.951   0.873  1.1527 -0.5318 -1.2742
42267SOL     OW37114   4.364   4.892  12.140  0.3936  0.3588 -0.4706
42267SOL    HW137115   4.329   4.866  12.225  1.4601 -1.9673 -0.6675
42267SOL    HW237116   4.293   4.873  12.079  1.2918 -3.0220 -0.6858
42268SOL     OW37117  10.032   9.266   2.671  0.3176 -0.1144  0.2549
42268SOL    HW137118   9.986   9.273   2.754 -3.8137 -0.2842 -1.7419
42268SOL    HW237119  10.026   9.173   2.647  2.0144 -0.1940 -0.0043
42269SOL     OW37120   3.511   4.633   1.021 -0.5096 -0.5235 -0.2547
42269SOL    HW137121   3.471   4.677   0.946 -1.2050  3.5100  2.1798
42269SOL    HW237122   3.438   4.592   1.067 -0.2692 -1.8093 -0.9586
42270SOL     OW37123   3.969  12.317   3.147  0.1902  0.2635  0.8398
42270SOL    HW137124   3.886  12.365   3.146 -0.3023 -0.5568 -0.2778
42270SOL    HW237125   4.019  12.357   3.218 -0.2488  2.3131  0.0665
42271SOL     OW37126   6.163   9.229  12.464  0.0681 -0.0765  0.5405
42271SOL    HW137127   6.189   9.150  12.417  1.8926  1.0415 -0.4556
42271SOL    HW237128   6.067   9.226  12.465 -0.0076 -0.9093 -1.9724
42272SOL     OW37129   5.800  10.361   0.399 -0.0990 -0.5244 -0.0051
42272SOL    HW137130   5.860  10.286   0.410 -1.4325 -1.7432 -0.7115
42272SOL    HW237131   5.823  10.398   0.314  1.0098  0.3249  0.6350
42273SOL     OW37132   1.806   3.371   4.687 -0.4836  0.7619 -0.2211
42273SOL    HW137133   1.773   3.281   4.685  3.1316 -0.7272 -2.1184
42273SOL    HW237134   1.883   3.367   4.743  0.2995  2.4762 -1.1210
42274SOL     OW37135   8.574   9.022   3.457 -0.5472 -0.2544 -0.3180
42274SOL    HW137136   8.620   9.032   3.540  1.1286  0.2407 -1.2594
42274SOL    HW237137   8.481   9.027   3.480 -0.1069  1.1639  1.3584
42275SOL     OW37138   3.630   0.687   6.698 -0.8859  0.1475  0.3179
42275SOL    HW137139   3.558   0.656   6.754  0.3306  0.1044  1.9174
42275SOL    HW237140   3.688   0.612   6.689  0.7671  1.1086  2.0754
42276SOL     OW37141   7.951   8.177   2.505  0.0981  0.3701  0.0189
42276SOL    HW137142   7.935   8.257   2.455 -1.3586  1.8057  2.5667
42276SOL    HW237143   7.930   8.106   2.444 -1.0131  1.9864 -1.5915
42277SOL     OW37144   7.839  12.503   5.367  0.1683  0.5461 -0.1331
42277SOL    HW137145   7.753  12.462   5.354  0.5518 -0.6622  0.9396
42277SOL    HW237146   7.849  12.507   5.462  0.7877  1.8220 -0.2354
42278SOL     OW37147   5.544   9.208   9.702 -0.5331  0.3947  0.5384
42278SOL    HW137148   5.517   9.123   9.735 -1.5108  1.0203  1.4157
42278SOL    HW237149   5.623   9.190   9.651 -1.2349 -1.1506 -0.0617
42279SOL     OW37150   4.503   4.350   4.968  0.6120  0.5062 -0.3841
42279SOL    HW137151   4.576   4.305   5.010  0.8176 -0.4450 -1.6621
42279SOL    HW237152   4.522   4.343   4.874 -1.9321 -1.3459 -0.8859
42280SOL     OW37153   5.176   5.401   6.338 -0.3360 -0.0909  0.7337
42280SOL    HW137154   5.080   5.407   6.337 -0.2499  2.0031  0.4626
42280SOL    HW237155   5.205   5.490   6.319  1.6831 -0.8811 -0.1090
42281SOL     OW37156   4.541   8.105   7.337 -0.0540 -0.2198  0.3189
42281SOL    HW137157   4.559   8.030   7.279  1.1426  0.7042 -0.5557
42281SOL    HW237158   4.571   8.076   7.423 -1.0398 -1.2925  0.3380
42282SOL     OW37159   6.008   2.984   6.923  0.0657 -0.1617 -0.2964
42282SOL    HW137160   6.007   2.979   6.828 -2.5678  0.9593 -0.4148
42282SOL    HW237161   6.025   3.077   6.942 -0.3157 -0.1982  0.2693
42283SOL     OW37162   2.092   2.509   4.046  0.0668  0.2266 -0.1589
42283SOL    HW137163   2.077   2.469   4.132 -1.1222  0.9394 -0.0048
42283SOL    HW237164   2.044   2.591   4.050  1.1137  0.8995 -1.0472
42284SOL     OW37165   0.329  12.580   9.216 -0.5269 -0.5178 -0.0013
42284SOL    HW137166   0.293  12.650   9.270 -0.1998 -0.4183  0.0846
42284SOL    HW237167   0.331  12.504   9.274  1.0203 -0.1051  0.5232
42285SOL     OW37168   1.150   4.481   3.900  0.1492 -0.3500  0.6105
42285SOL    HW137169   1.224   4.505   3.956 -0.5655 -1.4198  2.0709
42285SOL    HW237170   1.086   4.552   3.913  1.5905  1.7017 -2.2356
42286SOL     OW37171   5.712   7.781   1.412 -0.3959  0.2194  0.0137
42286SOL    HW137172   5.670   7.828   1.484  1.3404 -0.6114  1.6537
42286SOL    HW237173   5.719   7.690   1.444  0.5764 -0.1257 -1.1185
42287SOL     OW37174  11.282   8.755  11.420 -0.5461  0.3441 -0.0671
42287SOL    HW137175  11.352   8.690  11.411 -0.3107  0.6624 -0.6049
42287SOL    HW237176  11.324   8.828  11.467 -0.6352  0.3637 -0.0187
42288SOL     OW37177  12.798  11.618   1.074 -0.3491  0.2882 -0.4480
42288SOL    HW137178  12.798  11.708   1.107 -0.1111  0.3306 -0.5647
42288SOL    HW237179  12.821  11.625   0.982 -2.3293  0.2856 -0.9858
42289SOL     OW37180  12.797  11.548   3.010 -0.6457  0.0494 -0.1018
42289SOL    HW137181  12.801  11.455   2.984  0.1823  0.0723 -0.0988
42289SOL    HW237182  12.709  11.576   2.986 -0.4413 -0.3614 -1.4488
42290SOL     OW37183   6.987   0.671   0.704 -1.0183  0.2437  0.2298
42290SOL    HW137184   6.999   0.630   0.790  1.8568 -1.1752 -0.7257
42290SOL    HW237185   7.074   0.704   0.681 -1.8366  1.0281 -1.9153
42291SOL     OW37186   8.165   2.042  12.603 -0.3066 -0.0177 -0.1861
42291SOL    HW137187   8.156   1.947  12.590  0.0272 -0.0182 -0.4547
42291SOL    HW237188   8.080   2.078  12.581  0.2716  0.0063 -2.7704
42292SOL     OW37189  10.326   0.497   6.348 -0.3867 -0.2402  0.0027
42292SOL    HW137190  10.334   0.498   6.253  1.9481  1.6482  0.1004
42292SOL    HW237191  10.366   0.414   6.374  0.3810 -0.0799 -0.6162
42293SOL     OW37192   4.953   2.273   4.678 -0.0663 -0.7864 -0.4562
42293SOL    HW137193   4.990   2.192   4.642 -0.0965 -0.3882 -1.4102
42293SOL    HW237194   4.972   2.269   4.771  1.8976 -0.8495 -0.8300
42294SOL     OW37195   1.508  11.250   4.262  0.0164 -0.4256 -0.6521
42294SOL    HW137196   1.577  11.316   4.264 -0.5710  0.2463 -1.6932
42294SOL    HW237197   1.490  11.231   4.354  0.1154  0.9608 -0.3311
42295SOL     OW37198   8.236   6.061   4.610 -0.5349  0.2669 -0.6392
42295SOL    HW137199   8.245   5.994   4.677  0.1035  2.1545  1.2894
42295SOL    HW237200   8.146   6.091   4.617  0.1323  2.0746  1.1125
42296SOL     OW37201   5.040   9.148   7.156  0.3251  0.3120  0.0800
42296SOL    HW137202   5.029   9.055   7.176 -0.9523  0.9899  3.2119
42296SOL    HW237203   4.955   9.175   7.120  0.4337  0.4246 -0.0934
42297SOL     OW37204   0.722   1.457   9.964 -0.0822  0.3606 -0.2172
42297SOL    HW137205   0.676   1.498   9.891  1.0311  1.6001 -0.2588
42297SOL    HW237206   0.664   1.387   9.993 -0.6138 -0.0896 -2.2097
42298SOL     OW37207   3.927   2.737   1.172 -0.3446  0.4694 -0.3804
42298SOL    HW137208   4.017   2.704   1.168  0.4148  2.5327 -2.8274
42298SOL    HW237209   3.935   2.830   1.148 -3.2276  0.4824 -1.6125
42299SOL     OW37210   4.800  11.662  12.339  0.0298 -0.0917 -0.2558
42299SOL    HW137211   4.714  11.696  12.364  0.4495 -1.4798  3.9182
42299SOL    HW237212   4.855  11.740  12.328 -1.1530  0.7510 -0.3258
42300SOL     OW37213  11.672   9.128   7.372  0.0066  0.0479 -0.2290
42300SOL    HW137214  11.732   9.061   7.406 -0.6236 -1.9566 -2.7451
42300SOL    HW237215  11.688   9.204   7.427  2.9987 -1.2022  0.8657
42301SOL     OW37216  10.570  12.982   3.355 -0.0727 -0.0719 -0.2071
42301SOL    HW137217  10.494  13.027   3.318  1.1434  1.2724 -1.1791
42301SOL    HW237218  10.638  13.050   3.361  1.5151 -1.5235 -0.7589
42302SOL     OW37219  10.611   4.658   3.816  0.4921  0.3251  0.0888
42302SOL    HW137220  10.619   4.726   3.883 -1.0462  2.6290 -1.9050
42302SOL    HW237221  10.606   4.577   3.866 -0.9049  1.9219  2.8188
42303SOL     OW37222   6.020  10.232  11.828 -0.3363  0.1382  0.3322
42303SOL    HW137223   6.021  10.196  11.916 -2.3266 -0.6352  0.0806
42303SOL    HW237224   6.110  10.220  11.796  0.3943  0.3400  2.1766
42304SOL     OW37225   7.078   3.058   4.422 -0.2456  0.3528  0.3664
42304SOL    HW137226   7.172   3.064   4.406  0.0782  1.0243  2.2905
42304SOL    HW237227   7.070   3.037   4.515 -1.9747  2.2302  0.7312
42305SOL     OW37228  11.844  10.787   2.947 -0.7395 -0.2177 -0.3936
42305SOL    HW137229  11.788  10.720   2.908 -0.0024 -0.3926 -1.1866
42305SOL    HW237230  11.933  10.755   2.932 -0.4112 -0.7790  2.3037
42306SOL     OW37231   2.587  12.286  12.862  0.2218  0.5738  0.0756
42306SOL    HW137232   2.506  12.337  12.874 -1.6715 -2.4017  1.0233
42306SOL    HW237233   2.610  12.299  12.770 -1.6666  1.0743 -0.3634
42307SOL     OW37234   0.487   4.628   3.075 -0.2800 -0.2678 -0.5953
42307SOL    HW137235   0.417   4.563   3.078  1.0384 -1.7310  0.3067
42307SOL    HW237236   0.566   4.577   3.055  0.6725  1.1961 -0.7595
42308SOL     OW37237   3.485   8.222   1.543  0.4941  0.7315 -0.1042
42308SOL    HW137238   3.518   8.143   1.500 -1.5810  0.3935 -1.2164
42308SOL    HW237239   3.535   8.294   1.504  0.5667  0.1822 -1.0457
42309SOL     OW37240  12.062   4.956   8.114  0.6623  0.0820  0.1153
42309SOL    HW137241  12.072   5.049   8.093  0.3738 -0.5479 -3.3519
42309SOL    HW237242  12.121   4.911   8.054 -0.9225 -2.0902  0.0572
42310SOL     OW37243  11.331   5.797   6.973 -0.2068  0.3723  0.3445
42310SOL    HW137244  11.319   5.886   6.939  0.6039  0.6963  0.8955
42310SOL    HW237245  11.310   5.804   7.066 -0.0098  0.0074  0.4162
42311SOL     OW37246  11.281  11.420   9.858 -0.7925 -0.5984 -0.2882
42311SOL    HW137247  11.355  11.362   9.845 -0.1373  0.1535  0.0276
42311SOL    HW237248  11.208  11.362   9.880 -0.5379 -1.4186 -1.5292
42312SOL     OW37249   1.232   9.669   7.047  0.1708  0.0436 -0.3101
42312SOL    HW137250   1.263   9.732   7.112 -0.2808  0.5709 -0.5966
42312SOL    HW237251   1.301   9.666   6.981  0.4278 -0.1583 -0.0366
42313SOL     OW37252   7.679  12.267   0.964 -0.1686 -0.6394  0.7947
42313SOL    HW137253   7.701  12.320   0.888 -2.6016  0.8086  0.9813
42313SOL    HW237254   7.640  12.187   0.928 -0.6946 -0.2565  0.5104
42314SOL     OW37255   5.517  12.369   9.152  0.7338 -0.0233  0.2737
42314SOL    HW137256   5.454  12.312   9.108  1.1010 -1.4137  1.4742
42314SOL    HW237257   5.486  12.458   9.133 -1.6824 -0.6461  0.9381
42315SOL     OW37258   8.846  10.105   1.474  0.1515 -0.1516 -0.2183
42315SOL    HW137259   8.884  10.123   1.560 -0.7860  0.6416  0.0439
42315SOL    HW237260   8.764  10.156   1.473  0.6436  0.6557 -1.9639
42316SOL     OW37261  11.266   2.451  11.141  0.8033 -0.2257  0.1148
42316SOL    HW137262  11.286   2.455  11.048 -1.2979 -0.5664 -0.4034
42316SOL    HW237263  11.176   2.419  11.145 -0.1359  2.3321  2.1543
42317SOL     OW37264   9.076   9.930  10.201  0.1947 -0.1190  0.0458
42317SOL    HW137265   9.056  10.005  10.145 -0.1186 -0.0921  0.1956
42317SOL    HW237266   8.994   9.909  10.245 -0.1367 -1.5518 -1.1820
42318SOL     OW37267   5.399  12.628   4.741 -0.3517 -0.1517  0.8000
42318SOL    HW137268   5.482  12.628   4.693  1.9108 -1.9490  4.2711
42318SOL    HW237269   5.370  12.719   4.738  0.6956  0.1977 -2.0475
42319SOL     OW37270   3.350   6.711   6.840  0.3920  0.2954 -0.0046
42319SOL    HW137271   3.276   6.660   6.874 -0.2766  0.4140 -1.2138
42319SOL    HW237272   3.391   6.654   6.775 -0.6729  1.4004 -1.7518
42320SOL     OW37273   0.165  12.920   3.115  0.1878 -0.0611 -0.0554
42320SOL    HW137274   0.239  12.978   3.132  0.5822  0.0288 -1.8835
42320SOL    HW237275   0.089  12.967   3.151  0.5692  1.3885 -1.0509
42321SOL     OW37276   0.737   7.990  11.091 -0.2832 -0.3554 -0.2771
42321SOL    HW137277   0.704   7.900  11.097 -0.6014 -0.1621  1.6743
42321SOL    HW237278   0.719   8.027  11.177  3.1562  0.4591  0.2068
42322SOL     OW37279   5.202   1.155  11.052  0.2650  0.1352  0.2588
42322SOL    HW137280   5.228   1.091  11.117  1.6523 -0.3237 -0.7188
42322SOL    HW237281   5.167   1.103  10.979 -0.5463  0.6078  0.2873
42323SOL     OW37282   8.568  11.178   9.983  0.7226 -0.7080  0.8317
42323SOL    HW137283   8.586  11.205  10.073  0.6447  1.6070  0.2247
42323SOL    HW237284   8.524  11.093   9.991  0.1446 -0.2603  2.9935
42324SOL     OW37285   4.268   3.273   7.527 -0.3574  0.1222  0.2403
42324SOL    HW137286   4.244   3.251   7.617  0.6147  1.1715  0.7957
42324SOL    HW237287   4.313   3.195   7.494 -3.0747 -1.3219 -0.3324
42325SOL     OW37288   9.955   8.332   2.748 -0.5884  0.4773 -0.1465
42325SOL    HW137289   9.987   8.422   2.745 -1.0068  0.6760  0.9339
42325SOL    HW237290  10.034   8.278   2.752 -0.2701  0.6679 -2.4949
42326SOL     OW37291   4.747   9.704   5.630 -0.3836  0.0041 -0.0750
42326SOL    HW137292   4.834   9.716   5.591 -0.5915 -2.1053 -1.3628
42326SOL    HW237293   4.761   9.715   5.724  1.1385  0.4443 -0.3326
42327SOL     OW37294   8.978   6.462   2.014 -0.2395  0.8035 -0.0511
42327SOL    HW137295   9.071   6.468   2.038  0.0629 -1.1053 -0.6102
42327SOL    HW237296   8.975   6.491   1.922  0.0426 -0.4042 -0.4574
42328SOL     OW37297  12.821   8.075   0.418  0.0413  0.5637 -0.7024
42328SOL    HW137298  12.728   8.093   0.428  0.0843  0.4875 -0.1361
42328SOL    HW237299  12.825   8.005   0.353 -0.3152  0.3184 -0.4622
42329SOL     OW37300   4.715   1.521   5.956 -0.8179  0.6673 -0.0129
42329SOL    HW137301   4.629   1.508   5.916 -0.2144 -2.5834 -0.5658
42329SOL    HW237302   4.778   1.497   5.888  0.4328  0.6616  1.0977
42330SOL     OW37303  12.811   7.618   5.557 -0.2380 -0.1269  0.3829
42330SOL    HW137304  12.855   7.686   5.505 -1.4946  0.8628  0.5732
42330SOL    HW237305  12.820   7.539   5.504 -0.5046  0.6212 -0.8265
42331SOL     OW37306   6.170   4.563   5.664  0.1747  0.0438  0.0804
42331SOL    HW137307   6.231   4.634   5.642  2.3446 -0.9158  2.5209
42331SOL    HW237308   6.112   4.601   5.731 -1.6758  0.7714 -1.8148
42332SOL     OW37309   4.310  12.921   8.663 -0.1996 -0.3840 -0.1275
42332SOL    HW137310   4.325  12.844   8.609  0.7314  1.2946 -2.4566
42332SOL    HW237311   4.260  12.980   8.606  0.6568  1.4233  0.9153
42333SOL     OW37312   0.321   4.521   4.184  0.4703 -0.3376 -0.3763
42333SOL    HW137313   0.367   4.532   4.267  1.3620 -0.2827 -0.8625
42333SOL    HW237314   0.250   4.459   4.203  1.3009 -1.1406  0.1849
42334SOL     OW37315   4.421   1.410   9.168 -0.5417 -0.1807  0.1794
42334SOL    HW137316   4.410   1.473   9.239 -0.6667 -0.4413  0.3929
42334SOL    HW237317   4.506   1.370   9.183 -0.5544 -0.2134  0.1641
42335SOL     OW37318   9.945   1.213  11.953 -0.3236  0.1431  0.6110
42335SOL    HW137319   9.898   1.294  11.933  0.1367  0.3319  0.2798
42335SOL    HW237320   9.973   1.222  12.044 -0.1044  0.4404  0.5145
42336SOL     OW37321   2.797   9.128   1.984 -0.7889 -0.2504  0.4853
42336SOL    HW137322   2.759   9.075   2.054 -3.4770  2.0641  0.9343
42336SOL    HW237323   2.789   9.218   2.014  1.8156  0.6269 -1.0868
42337SOL     OW37324   2.600   1.238   8.829  0.0522  0.0984  0.0112
42337SOL    HW137325   2.660   1.171   8.796 -0.7947 -0.7617  0.1977
42337SOL    HW237326   2.535   1.248   8.760 -0.1497  0.3234  0.2321
42338SOL     OW37327   0.965   0.135   6.073 -0.2724 -0.1128  0.4836
42338SOL    HW137328   1.018   0.058   6.053 -0.3520 -0.0432  0.0136
42338SOL    HW237329   1.025   0.195   6.118  0.0393 -0.0421 -0.0296
42339SOL     OW37330   4.222   1.811   5.455 -0.6595  0.5835  0.1356
42339SOL    HW137331   4.217   1.894   5.503  1.0306  2.1442 -2.1265
42339SOL    HW237332   4.153   1.817   5.390  0.2023  0.8214 -0.7930
42340SOL     OW37333   9.722  10.995   3.899  0.0164 -0.0374 -0.4185
42340SOL    HW137334   9.764  11.061   3.954  1.7548 -2.5821  1.5440
42340SOL    HW237335   9.794  10.956   3.849 -0.8657 -0.8097 -1.1261
42341SOL     OW37336   6.182   3.027   9.288  0.4691  0.2095  0.3015
42341SOL    HW137337   6.267   3.042   9.247 -0.5542  1.9499 -1.3108
42341SOL    HW237338   6.118   3.052   9.222 -1.2984  0.6927  2.0841
42342SOL     OW37339   3.826   1.059  10.529 -0.0834  0.1103 -0.2543
42342SOL    HW137340   3.793   1.078  10.616  0.8734  2.6972 -0.3768
42342SOL    HW237341   3.768   1.108  10.470 -0.4885 -1.3004 -1.0890
42343SOL     OW37342  11.182   0.285  11.628  0.6048 -0.0125  0.3389
42343SOL    HW137343  11.181   0.333  11.711  0.4905  1.1729 -0.3253
42343SOL    HW237344  11.143   0.200  11.649  3.2245 -0.8898  2.1449
42344SOL     OW37345   0.448   9.697   7.054 -0.1067  0.6355  0.4470
42344SOL    HW137346   0.434   9.773   6.998 -0.3886  0.6775  0.5732
42344SOL    HW237347   0.499   9.730   7.127 -3.0818  1.5355  2.3054
42345SOL     OW37348   7.887  11.514   2.526 -0.0877  0.1143 -0.1331
42345SOL    HW137349   7.860  11.543   2.613  0.5166 -0.5257  0.2790
42345SOL    HW237350   7.976  11.548   2.516 -0.6310  1.3548 -1.0726
42346SOL     OW37351   2.248   8.766   3.887  0.0750 -0.2901  1.0134
42346SOL    HW137352   2.187   8.741   3.817  2.4018 -0.5594 -1.0805
42346SOL    HW237353   2.229   8.859   3.902 -1.0742 -0.4475  0.6893
42347SOL     OW37354  11.709   8.970   7.771  0.0029  0.1701  0.2055
42347SOL    HW137355  11.758   8.947   7.692  1.2125 -1.3595  1.3253
42347SOL    HW237356  11.619   8.981   7.742  0.6878  1.3451 -1.6401
42348SOL     OW37357   3.559   3.338   0.271  0.0188 -0.0551 -0.2154
42348SOL    HW137358   3.632   3.302   0.220  1.8754  1.1222  1.4654
42348SOL    HW237359   3.536   3.418   0.225  0.9431  0.4365  0.1519
42349SOL     OW37360   0.422  10.624   7.312 -0.5627 -0.0370  0.1895
42349SOL    HW137361   0.331  10.648   7.294 -0.6171 -1.0422 -1.0227
42349SOL    HW237362   0.466  10.631   7.228 -0.0107 -1.5933  0.3058
42350SOL     OW37363   8.577   8.659   7.004 -0.0141  0.1148 -0.2010
42350SOL    HW137364   8.599   8.569   7.028  1.7087  0.7122  0.6065
42350SOL    HW237365   8.531   8.694   7.081  1.4423  0.6307  0.4600
42351SOL     OW37366  12.861   8.100  11.595 -0.2543 -0.6216 -0.1595
42351SOL    HW137367  12.777   8.126  11.634  0.5152  2.4988 -0.3027
42351SOL    HW237368  12.911   8.064  11.668 -0.3654  1.1470  0.8515
42352SOL     OW37369   4.474  10.519   1.766 -0.1632  0.5712 -0.1953
42352SOL    HW137370   4.385  10.487   1.782 -0.2105  0.2041 -1.1146
42352SOL    HW237371   4.522  10.442   1.735  0.2244  0.9765 -0.6099
42353SOL     OW37372   8.359   0.615  10.811  0.0309  0.0131  0.2352
42353SOL    HW137373   8.298   0.660  10.752  0.0214 -1.4083 -0.8730
42353SOL    HW237374   8.442   0.613  10.763  0.2238 -0.4898  0.5853
42354SOL     OW37375   6.181  11.873   3.247 -0.3189 -0.0895  0.1135
42354SOL    HW137376   6.206  11.922   3.169 -1.1190  2.1810  1.2114
42354SOL    HW237377   6.232  11.912   3.318 -1.6961 -0.1430  1.1889
42355SOL     OW37378   9.650   2.609   1.955 -0.0484 -0.0373  0.5880
42355SOL    HW137379   9.662   2.567   1.870  0.6358 -0.6156  0.9536
42355SOL    HW237380   9.619   2.538   2.012  1.2865 -0.1141  1.2549
42356SOL     OW37381  10.282   0.857   8.363 -0.2766 -0.4044 -0.4678
42356SOL    HW137382  10.219   0.787   8.345  0.4659 -1.3363  0.4501
42356SOL    HW237383  10.238   0.911   8.429 -1.2379  0.5686 -1.8565
42357SOL     OW37384   9.062  10.569   4.603  0.0463  0.1593 -0.5002
42357SOL    HW137385   9.083  10.520   4.523 -2.6615 -1.2405 -0.4610
42357SOL    HW237386   9.055  10.502   4.671  0.6835  1.1535  0.5933
42358SOL     OW37387   8.322   8.549   7.382 -0.2850  0.4891  0.2609
42358SOL    HW137388   8.245   8.555   7.325 -0.3104  1.1890  0.3512
42358SOL    HW237389   8.286   8.549   7.471 -0.1469  2.1730  0.3488
42359SOL     OW37390   1.898   3.809   4.046  0.1700 -0.1391  0.9379
42359SOL    HW137391   1.852   3.756   4.110 -0.9919 -1.0078 -0.5377
42359SOL    HW237392   1.830   3.865   4.008  0.8631  0.4871  0.5892
42360SOL     OW37393   7.833   0.530   7.219 -0.0820  0.3278 -0.1566
42360SOL    HW137394   7.805   0.566   7.135 -0.1759  1.4073  0.3220
42360SOL    HW237395   7.786   0.447   7.226 -2.6887  1.7428  0.2905
42361SOL     OW37396  10.421  11.506  10.047 -0.7326 -0.0969  0.3997
42361SOL    HW137397  10.361  11.444  10.088 -1.1608  0.0016 -0.0728
42361SOL    HW237398  10.400  11.503   9.954  1.3349 -1.5313 -0.0840
42362SOL     OW37399   0.350  12.796   0.506 -0.5382  0.1914 -0.3043
42362SOL    HW137400   0.336  12.870   0.565 -0.1957 -0.1733  0.2459
42362SOL    HW237401   0.399  12.833   0.432  1.8927  0.0658  1.1316
42363SOL     OW37402  11.678  10.661  10.017 -0.3415 -0.0732  0.5043
42363SOL    HW137403  11.647  10.722  10.084 -2.3805  0.1261 -0.5497
42363SOL    HW237404  11.599  10.631   9.973  0.6423 -2.9273  0.4645
42364SOL     OW37405   7.296  11.424  10.160 -0.1453  0.1881  0.4098
42364SOL    HW137406   7.338  11.345  10.195 -0.0384  0.0160 -0.0984
42364SOL    HW237407   7.204  11.399  10.148  0.1105 -0.2544 -0.8593
42365SOL     OW37408   3.826  10.101  12.819 -0.2291  0.3224 -0.1595
42365SOL    HW137409   3.758  10.041  12.789 -0.3843  0.0961  0.6113
42365SOL    HW237410   3.844  10.073  12.909  0.1466  1.0363 -0.0074
42366SOL     OW37411   4.477   4.668   0.486 -0.0274  0.1691  0.0458
42366SOL    HW137412   4.545   4.601   0.482 -0.0035  0.2299 -0.6062
42366SOL    HW237413   4.484   4.705   0.574 -1.4611 -2.1936  1.2596
42367SOL     OW37414   5.106  10.229  10.373 -0.0962  0.6734  0.8622
42367SOL    HW137415   5.013  10.240  10.392 -0.6067  0.7447 -1.3201
42367SOL    HW237416   5.150  10.239  10.457 -1.9921  1.4272  1.8147
42368SOL     OW37417   7.502  10.322   3.535 -0.2171 -0.1717 -0.1078
42368SOL    HW137418   7.557  10.246   3.556 -0.0725  0.0077  0.1646
42368SOL    HW237419   7.478  10.309   3.443 -0.5138 -0.7451  0.0470
42369SOL     OW37420  11.123   9.885   5.962  0.0556 -0.0582 -0.0338
42369SOL    HW137421  11.089   9.799   5.984  1.9376 -0.4518  1.5522
42369SOL    HW237422  11.144   9.879   5.869  1.1432 -1.6879  0.2763
42370SOL     OW37423   9.378   7.413   1.744  0.2799  0.1759 -0.3776
42370SOL    HW137424   9.414   7.337   1.699  0.5667  1.4616 -2.4780
42370SOL    HW237425   9.447   7.480   1.735  0.2489  0.5659  1.8611
42371SOL     OW37426   8.126   2.544   7.824 -0.7051 -0.3989 -0.0166
42371SOL    HW137427   8.045   2.582   7.790  0.2560  1.5271 -0.2772
42371SOL    HW237428   8.101   2.456   7.853 -2.3709 -0.7344 -2.2198
42372SOL     OW37429   3.293  11.898   8.811 -0.2673 -0.2443 -0.5435
42372SOL    HW137430   3.364  11.962   8.800 -1.1083  0.3925 -2.9315
42372SOL    HW237431   3.222  11.932   8.758 -0.6340 -3.3462 -2.2879
42373SOL     OW37432   7.051   8.766  11.269  0.0128  0.4667  0.2151
42373SOL    HW137433   6.962   8.797  11.284 -0.6622 -1.1330 -0.2571
42373SOL    HW237434   7.079   8.734  11.355  0.7852  2.4306  0.7507
42374SOL     OW37435   2.336  12.776   3.021  0.2497 -0.2758 -0.1867
42374SOL    HW137436   2.348  12.681   3.022  3.0362  0.0045  1.2543
42374SOL    HW237437   2.420  12.811   2.991 -0.0197  1.7993  1.2882
42375SOL     OW37438   4.954  10.402   5.003 -0.3250  0.0402  0.3078
42375SOL    HW137439   4.944  10.331   5.067  0.5820 -0.5968 -0.2288
42375SOL    HW237440   5.002  10.470   5.050 -1.0728  0.2507  0.7841
42376SOL     OW37441   4.072   8.260   3.779  0.1881  0.7942  0.0253
42376SOL    HW137442   4.093   8.179   3.734  1.7683  0.6897  0.8891
42376SOL    HW237443   4.099   8.246   3.869 -1.3012  1.6149  0.6471
42377SOL     OW37444  10.391  10.323   0.689  0.2698 -0.0295 -0.0557
42377SOL    HW137445  10.328  10.379   0.734 -1.8771 -2.8333  0.7839
42377SOL    HW237446  10.466  10.318   0.748  1.0688  2.7145 -0.6895
42378SOL     OW37447   3.717  12.055  10.764  0.3518 -0.1241  0.4756
42378SOL    HW137448   3.763  12.119  10.710 -0.3585  0.1972  0.2397
42378SOL    HW237449   3.690  11.987  10.702  1.4609 -0.8753  0.7898
42379SOL     OW37450   2.291   9.346   6.245  0.5435 -0.5590 -0.1958
42379SOL    HW137451   2.277   9.423   6.301  0.9279 -0.6704  0.0556
42379SOL    HW237452   2.382   9.322   6.260  0.6683 -0.5620 -0.9062
42380SOL     OW37453   0.099  12.628   2.113 -0.5867  0.8160  0.1137
42380SOL    HW137454   0.193  12.611   2.126 -1.1925 -2.1556  1.4355
42380SOL    HW237455   0.070  12.661   2.198 -0.9238  0.6566  0.0599
42381SOL     OW37456   3.240   3.499   9.422  0.6813  0.4922 -0.2894
42381SOL    HW137457   3.300   3.538   9.486  0.0717  0.8221  0.0840
42381SOL    HW237458   3.238   3.407   9.445  1.0501  0.4758 -0.3084
42382SOL     OW37459  12.151   2.406  10.724  0.2274 -0.1859  0.1506
42382SOL    HW137460  12.125   2.413  10.633  0.6789  1.9748  0.1418
42382SOL    HW237461  12.085   2.348  10.764 -0.2250 -0.7883 -1.4116
42383SOL     OW37462  12.417  12.890   3.349 -0.1943  0.1282 -0.4940
42383SOL    HW137463  12.451  12.856   3.432 -1.0143  2.0300  0.6859
42383SOL    HW237464  12.349  12.827   3.324  0.7063 -0.9797 -0.2466
42384SOL     OW37465   0.448   4.516   9.879 -0.2596 -0.2899  0.0744
42384SOL    HW137466   0.410   4.604   9.887 -1.3339 -0.8757  1.6613
42384SOL    HW237467   0.478   4.494   9.967 -0.7449 -1.8502 -0.1281
42385SOL     OW37468   9.435  11.321  10.268 -0.0353 -0.2262  0.1057
42385SOL    HW137469   9.454  11.414  10.260 -1.1239 -0.0556 -0.7838
42385SOL    HW237470   9.520  11.280  10.280  0.6128  0.7349 -0.9863
42386SOL     OW37471  10.370   9.486   2.543  0.1068 -0.6710  0.1413
42386SOL    HW137472  10.342   9.395   2.553  1.3092 -1.0095  0.5515
42386SOL    HW237473  10.312   9.535   2.602  0.0660 -1.2915  0.6274
42387SOL     OW37474   4.450   9.246   8.274  0.1483 -0.4047  0.4282
42387SOL    HW137475   4.412   9.169   8.316 -0.9731 -0.2302 -0.2133
42387SOL    HW237476   4.512   9.280   8.337  0.0355 -1.3505  1.0723
42388SOL     OW37477  12.285   2.480   1.926 -0.4133  0.0671  0.5471
42388SOL    HW137478  12.241   2.404   1.965  0.7063 -0.8531  0.0473
42388SOL    HW237479  12.319   2.529   2.002 -0.5619 -0.2741  0.8380
42389SOL     OW37480   2.469   0.167   5.380 -1.0041 -0.1775  0.6166
42389SOL    HW137481   2.528   0.242   5.370 -1.2380 -0.0676 -0.0115
42389SOL    HW237482   2.406   0.177   5.308  0.3982 -2.2948 -1.0341
42390SOL     OW37483  12.527  10.779   2.805  0.5550 -0.3226 -0.3805
42390SOL    HW137484  12.530  10.722   2.728 -0.8340 -0.3757 -0.4129
42390SOL    HW237485  12.456  10.744   2.858 -1.4525  2.2631 -1.1407
42391SOL     OW37486   5.134   1.000  10.655 -0.1605  0.0134  0.4003
42391SOL    HW137487   5.091   1.015  10.739 -3.2581  0.4319 -1.1356
42391SOL    HW237488   5.212   0.949  10.677 -0.4995  0.6716  3.5600
42392SOL     OW37489   7.818   1.736   5.011  0.2506  0.5384  0.1010
42392SOL    HW137490   7.842   1.670   5.077  1.6799  1.4547  0.5729
42392SOL    HW237491   7.901   1.756   4.967  0.1664  2.9099  0.8551
42393SOL     OW37492   6.010   3.629   9.831  0.0369 -0.2605 -0.4037
42393SOL    HW137493   5.922   3.660   9.814  0.1246 -0.5857 -1.4956
42393SOL    HW237494   6.068   3.690   9.785  0.4239  0.2404  0.7096
42394SOL     OW37495   6.289  12.615   1.265  0.1838  0.7305  0.2202
42394SOL    HW137496   6.331  12.540   1.306 -1.1597 -0.6405 -0.8176
42394SOL    HW237497   6.358  12.656   1.212  0.9350  0.2809  0.8343
42395SOL     OW37498  11.377   1.525   6.625 -0.1652 -0.2412  0.0677
42395SOL    HW137499  11.444   1.573   6.674 -0.6586  0.0032  0.5219
42395SOL    HW237500  11.309   1.591   6.608  1.0689  0.3673 -3.1487
42396SOL     OW37501   6.312   2.542   6.595  0.2632  0.3430  0.2481
42396SOL    HW137502   6.406   2.541   6.615  0.1129 -0.0743  0.9968
42396SOL    HW237503   6.277   2.468   6.645 -0.2884 -0.1971 -0.9100
42397SOL     OW37504   1.533   1.948   7.193  0.3785  0.3895  0.7434
42397SOL    HW137505   1.606   1.890   7.176 -0.1572 -0.0109 -0.3016
42397SOL    HW237506   1.495   1.916   7.275  3.0901  2.4203  2.9923
42398SOL     OW37507  12.675   6.938   0.461 -0.3181  0.2120  0.3946
42398SOL    HW137508  12.716   6.852   0.455 -0.7499  0.0409 -0.1889
42398SOL    HW237509  12.583   6.923   0.440 -0.8760  0.4681  2.4608
42399SOL     OW37510   8.425   4.736   1.495  0.5177 -0.0119 -0.4957
42399SOL    HW137511   8.447   4.822   1.459  0.8376 -0.8512 -2.3872
42399SOL    HW237512   8.365   4.697   1.431 -1.0544 -0.5299  1.1988
42400SOL     OW37513   5.745   3.750   1.570  0.0798  0.1002 -0.4590
42400SOL    HW137514   5.735   3.655   1.560 -0.2447  0.2116 -1.2947
42400SOL    HW237515   5.696   3.786   1.496 -0.7584  0.9528  0.4891
42401SOL     OW37516   1.760   5.812   9.081  0.4423 -0.1303 -0.1219
42401SOL    HW137517   1.742   5.764   9.000 -1.4564  1.7693 -0.9423
42401SOL    HW237518   1.831   5.872   9.057 -0.1415  0.4542 -0.4061
42402SOL     OW37519   9.337   0.916   2.581 -0.2838 -0.3350 -0.0713
42402SOL    HW137520   9.251   0.943   2.549 -0.8654 -1.2762  0.6445
42402SOL    HW237521   9.395   0.926   2.505 -1.6420 -2.7144 -1.5351
42403SOL     OW37522  12.425  11.179   6.738  0.9458  0.7444  0.3684
42403SOL    HW137523  12.491  11.239   6.773  1.7139 -0.6966  1.5022
42403SOL    HW237524  12.358  11.236   6.700  0.9092  2.3706  2.7009
42404SOL     OW37525  11.914   8.581   1.557 -0.0923 -0.0433 -0.0073
42404SOL    HW137526  11.923   8.502   1.611 -1.4219  0.9218  1.7267
42404SOL    HW237527  11.890   8.548   1.471  1.4277 -1.6097  0.1165
42405SOL     OW37528   6.782   6.843   6.284 -0.1691 -0.2332  0.5183
42405SOL    HW137529   6.866   6.842   6.330 -0.1650 -0.1834  0.5126
42405SOL    HW237530   6.801   6.885   6.200 -0.2985  0.2213  0.7136
42406SOL     OW37531   2.598   3.501   1.133 -0.3617 -0.1081  0.6199
42406SOL    HW137532   2.689   3.473   1.121 -0.5320 -0.4422  0.1159
42406SOL    HW237533   2.591   3.582   1.083 -0.7669 -0.9127 -0.6483
42407SOL     OW37534   3.638   5.543   5.377 -0.3099 -0.2563  0.2539
42407SOL    HW137535   3.604   5.489   5.447  0.0136 -0.4682  0.2499
42407SOL    HW237536   3.564   5.556   5.318 -0.5846 -0.0674  0.6397
42408SOL     OW37537  10.484   1.661   8.263 -0.3095  0.5254  0.1872
42408SOL    HW137538  10.399   1.617   8.260 -0.7456  1.3765 -1.0162
42408SOL    HW237539  10.538   1.614   8.199 -0.4746  1.1003 -0.3942
42409SOL     OW37540   5.706   1.049  12.350 -0.3871  0.0292 -0.3857
42409SOL    HW137541   5.729   1.045  12.257 -0.5053  0.6143 -0.4429
42409SOL    HW237542   5.691   0.958  12.375 -0.2064 -0.1440 -0.9044
42410SOL     OW37543   5.345   1.375   8.193  0.2965 -0.3728  0.7874
42410SOL    HW137544   5.336   1.462   8.155 -1.7983 -1.0272 -0.4010
42410SOL    HW237545   5.420   1.337   8.149 -0.4384 -0.1168 -0.7605
42411SOL     OW37546   2.334   1.838   8.729 -0.0005 -0.2437 -0.4349
42411SOL    HW137547   2.359   1.780   8.657  0.4541 -1.4464  0.6492
42411SOL    HW237548   2.375   1.921   8.708  0.3359 -0.6512 -1.4463
42412SOL     OW37549   6.632  11.230   1.669  0.0021  0.2806 -0.3372
42412SOL    HW137550   6.562  11.282   1.629  0.4166  0.3861 -0.9482
42412SOL    HW237551   6.598  11.141   1.673 -1.3844  0.8310  2.2710
42413SOL     OW37552  10.947   5.963   1.689 -0.2051  0.6482  0.1856
42413SOL    HW137553  10.867   5.963   1.637 -0.5260  0.1385  0.6675
42413SOL    HW237554  10.936   5.889   1.749  1.6810 -1.0167 -1.3814
42414SOL     OW37555   9.031  10.798   9.032 -0.0764 -0.2884 -0.2203
42414SOL    HW137556   9.120  10.764   9.021  0.4230  0.1575  1.9223
42414SOL    HW237557   8.976  10.738   8.982  1.2627 -1.5675 -0.2269
42415SOL     OW37558  11.713  12.087   6.145  0.2873 -0.1542 -0.5066
42415SOL    HW137559  11.627  12.128   6.142 -0.0069 -0.7041  0.0981
42415SOL    HW237560  11.729  12.072   6.238  1.4584  0.7972 -0.5310
42416SOL     OW37561  12.182   0.568   0.505  0.4755 -0.0583 -0.0115
42416SOL    HW137562  12.193   0.479   0.537  0.2937 -0.2963 -0.6091
42416SOL    HW237563  12.139   0.559   0.420  0.1781  0.6125  0.0599
42417SOL     OW37564   0.275   7.114   9.823 -0.6067 -0.6586  0.1501
42417SOL    HW137565   0.308   7.031   9.790 -1.1136 -0.6290 -0.4646
42417SOL    HW237566   0.220   7.090   9.898 -0.3834 -0.8330  0.2587
42418SOL     OW37567   7.953   4.237   7.450  0.0195 -0.2824 -0.3192
42418SOL    HW137568   7.991   4.256   7.536 -0.3849 -1.2563  0.0868
42418SOL    HW237569   7.873   4.289   7.448  0.3396  0.2191 -0.3663
42419SOL     OW37570  10.731   2.170  10.796 -0.3949  0.7125  0.1709
42419SOL    HW137571  10.643   2.133  10.802 -0.7017  1.6237  2.6367
42419SOL    HW237572  10.788   2.100  10.828 -0.0909 -0.0804 -1.9540
42420SOL     OW37573  12.885   9.180   1.890 -0.5161 -0.3721  0.6383
42420SOL    HW137574  12.843   9.146   1.969 -0.0508 -2.0593  0.2045
42420SOL    HW237575  12.948   9.112   1.866  1.3282  1.3525  0.3656
42421SOL     OW37576   4.738   9.520   0.060  0.0995  0.0864 -0.4060
42421SOL    HW137577   4.735   9.615   0.063  1.2844  0.1134  0.7540
42421SOL    HW237578   4.703   9.497  -0.026  0.7199  1.6164 -1.0930
42422SOL     OW37579   8.429  12.086   4.878  0.7528 -0.2308  0.4823
42422SOL    HW137580   8.418  11.993   4.894 -0.0418 -0.1458  0.5093
42422SOL    HW237581   8.349  12.112   4.832  1.7838  0.0629 -1.2440
42423SOL     OW37582   3.367  11.839   0.076 -0.2508  0.2649 -0.2493
42423SOL    HW137583   3.362  11.930   0.047 -0.9415 -0.6054 -3.1469
42423SOL    HW237584   3.461  11.823   0.086 -0.0172  0.8318 -1.3951
42424SOL     OW37585  12.012  12.606   4.575  0.2095  0.6126 -0.6120
42424SOL    HW137586  11.949  12.579   4.508 -1.3192 -0.4196  1.1449
42424SOL    HW237587  12.068  12.530   4.587 -1.3222 -0.2911  1.2294
42425SOL     OW37588   6.052   3.848   6.294  0.2797  0.0708 -0.6250
42425SOL    HW137589   6.093   3.764   6.273 -1.1472 -0.5676 -0.9697
42425SOL    HW237590   5.985   3.826   6.358  0.2914  1.0532 -0.2629
42426SOL     OW37591   8.522  11.701   4.901 -0.0558 -0.2551  0.5341
42426SOL    HW137592   8.507  11.723   4.809  0.1286 -0.0468  0.5527
42426SOL    HW237593   8.447  11.739   4.946  0.2451  0.3305  0.5621
42427SOL     OW37594   1.393   8.445   1.079  0.1290  0.0055  0.1651
42427SOL    HW137595   1.418   8.422   1.168 -0.0024 -0.0845  0.1791
42427SOL    HW237596   1.457   8.511   1.052  1.0761 -1.0148 -0.1989
42428SOL     OW37597   9.876   7.675   7.041 -0.1234 -0.6480 -0.0857
42428SOL    HW137598   9.800   7.719   7.080  0.4044 -1.4243  1.9527
42428SOL    HW237599   9.864   7.583   7.063  1.6344 -0.7203  0.7474
42429SOL     OW37600   2.286   8.173   7.260  0.3979 -0.2742  0.3404
42429SOL    HW137601   2.366   8.204   7.217  0.8066 -0.1119  1.2106
42429SOL    HW237602   2.252   8.106   7.201  1.1301 -0.2853 -0.0786
42430SOL     OW37603  11.918  11.642   1.695 -0.2418 -0.1684 -0.9733
42430SOL    HW137604  11.875  11.726   1.679 -0.4813  0.1329  1.0542
42430SOL    HW237605  11.878  11.609   1.776 -0.0973 -2.2042 -1.6657
42431SOL     OW37606   6.005   4.743   9.250 -0.0375 -0.3964  0.3957
42431SOL    HW137607   6.045   4.671   9.201  0.2482 -0.4445  0.6953
42431SOL    HW237608   5.912   4.722   9.253 -0.3512  0.4685 -1.6184
42432SOL     OW37609   1.547   4.442  11.542  0.1189 -0.0260 -0.3624
42432SOL    HW137610   1.640   4.434  11.520  0.2355 -1.5482  0.5125
42432SOL    HW237611   1.517   4.351  11.553 -1.1453  0.4779  0.6011
42433SOL     OW37612   2.073  11.719  10.817 -0.8987  0.3786  0.2557
42433SOL    HW137613   2.135  11.701  10.747 -2.4577  1.8601 -1.6661
42433SOL    HW237614   2.029  11.636  10.833  0.2456 -0.2305  0.2922
42434SOL     OW37615   5.296  11.346  12.314  0.2690 -0.3833  0.5335
42434SOL    HW137616   5.235  11.298  12.370  1.5485 -2.0205  0.5965
42434SOL    HW237617   5.334  11.413  12.371 -0.4449 -0.2346  0.8476
42435SOL     OW37618   5.941   8.381   9.364 -0.4630  0.4970  0.5076
42435SOL    HW137619   5.873   8.339   9.416 -0.6061 -0.7906 -0.6611
42435SOL    HW237620   5.896   8.451   9.316 -0.8175  0.1337  0.3061
42436SOL     OW37621   7.209  11.066   2.246  0.4663 -0.3770 -0.2649
42436SOL    HW137622   7.209  11.038   2.154 -2.1592 -0.8851 -0.1919
42436SOL    HW237623   7.206  10.984   2.295  3.0029 -0.1451  0.3681
42437SOL     OW37624  10.365  10.616   4.147  0.4011  0.2896 -0.0598
42437SOL    HW137625  10.385  10.703   4.181  0.1798  0.3001  0.0492
42437SOL    HW237626  10.450  10.572   4.139  0.4033  0.0153  1.2599
42438SOL     OW37627  10.959   7.273   2.787  0.4742  0.3134 -0.1593
42438SOL    HW137628  10.945   7.350   2.732 -1.9605  1.2847  1.6602
42438SOL    HW237629  10.898   7.208   2.753  1.1287 -0.1758 -0.4407
42439SOL     OW37630   0.675   0.768  10.889  0.1582 -0.2817 -0.4718
42439SOL    HW137631   0.713   0.782  10.975  1.0606  1.8904 -1.1549
42439SOL    HW237632   0.581   0.786  10.901  0.1441 -0.7838  0.2018
42440SOL     OW37633  11.336   1.659  10.124  0.1018 -0.2759 -0.0211
42440SOL    HW137634  11.251   1.686  10.160  0.1489 -0.7844  0.4926
42440SOL    HW237635  11.320   1.648  10.030 -0.5215 -0.8236  0.1434
42441SOL     OW37636  10.105  10.804   6.064 -0.0481  0.5937  0.3319
42441SOL    HW137637  10.127  10.882   6.014 -0.9528  1.4474  1.2111
42441SOL    HW237638  10.018  10.779   6.033  0.0901  0.1228  0.3022
42442SOL     OW37639   8.198   1.532   1.783 -1.1279  0.3071  0.5174
42442SOL    HW137640   8.205   1.624   1.807 -1.0233  0.7707 -1.1227
42442SOL    HW237641   8.187   1.486   1.866 -0.8245  1.7533  1.3997
42443SOL     OW37642  12.185   1.156  12.534 -0.2898 -0.1557  0.3633
42443SOL    HW137643  12.211   1.245  12.512  2.6760 -1.2012 -0.8161
42443SOL    HW237644  12.154   1.119  12.451  0.2304 -0.7462  0.4234
42444SOL     OW37645   3.762   9.184   9.637  0.1280 -0.0693 -0.2340
42444SOL    HW137646   3.843   9.233   9.652 -0.5510  1.2518 -0.7348
42444SOL    HW237647   3.753   9.182   9.541  0.3016 -1.4844 -0.2474
42445SOL     OW37648  10.410   1.908   4.374 -0.2506 -0.1280  0.5135
42445SOL    HW137649  10.425   1.816   4.398 -2.4935  0.1349  3.4896
42445SOL    HW237650  10.339   1.904   4.310  0.9301 -0.4838 -0.8357
42446SOL     OW37651   1.708  12.295  12.517 -0.2991 -0.2338 -0.4946
42446SOL    HW137652   1.778  12.256  12.464 -0.5520  0.1920 -1.1609
42446SOL    HW237653   1.747  12.376  12.551 -0.1171 -0.5358  0.0354
42447SOL     OW37654  12.939   3.042   1.331  0.7164 -0.1000 -0.6049
42447SOL    HW137655  13.006   3.063   1.396  0.4112  0.9349 -0.6040
42447SOL    HW237656  12.862   3.019   1.383  1.0038 -1.1112 -0.6066
42448SOL     OW37657   8.221  11.555  11.273  0.6337 -0.7959  0.6615
42448SOL    HW137658   8.247  11.489  11.338  2.0524 -1.2914 -0.3601
42448SOL    HW237659   8.242  11.639  11.315  2.5676 -1.1433  0.4731
42449SOL     OW37660  12.126  10.504   7.006  0.0458 -0.4162 -0.0252
42449SOL    HW137661  12.058  10.554   6.963  0.7618  0.5567 -0.0467
42449SOL    HW237662  12.081  10.459   7.078 -0.4430  1.0237  0.5941
42450SOL     OW37663  11.196   4.707   6.984  0.1676 -0.0571  0.1826
42450SOL    HW137664  11.115   4.666   7.017  0.0149 -0.3677 -0.5616
42450SOL    HW237665  11.213   4.777   7.046  0.1281 -0.8949  1.1793
42451SOL     OW37666   6.478   6.497  10.138 -0.2237  0.2973 -0.0143
42451SOL    HW137667   6.515   6.557  10.073 -1.4270 -0.2106 -1.2363
42451SOL    HW237668   6.457   6.418  10.087  0.9201 -1.0329  1.4545
42452SOL     OW37669   6.422   7.086   6.846  0.7768 -0.0521 -0.0999
42452SOL    HW137670   6.395   7.038   6.768  0.1678 -0.4148  0.3295
42452SOL    HW237671   6.385   7.037   6.919  3.1520 -0.9649  0.5870
42453SOL     OW37672  10.758   3.283   3.265  0.2699 -0.0057  0.1261
42453SOL    HW137673  10.747   3.278   3.170 -0.4411  1.4768  0.1055
42453SOL    HW237674  10.842   3.240   3.282 -0.8213 -2.7897 -0.8309
42454SOL     OW37675   8.327   9.582   4.787 -0.6570 -0.2555 -0.2726
42454SOL    HW137676   8.330   9.508   4.847 -0.6572 -0.8559 -1.0057
42454SOL    HW237677   8.388   9.560   4.717  1.3260  1.5951  0.7613
42455SOL     OW37678   2.745   9.273  11.487 -0.7532 -0.5730  0.1347
42455SOL    HW137679   2.735   9.363  11.519  0.7260  0.0158 -0.9199
42455SOL    HW237680   2.839   9.255  11.497 -1.1985 -2.4762  1.4497
42456SOL     OW37681   0.412   5.353  11.061 -0.0252  0.7042  0.2376
42456SOL    HW137682   0.339   5.330  11.005  1.1030  0.5059 -1.2059
42456SOL    HW237683   0.442   5.438  11.028  0.5964  0.6362  0.6002
42457SOL     OW37684   3.296   7.565   8.488  0.0195 -0.4711 -0.7282
42457SOL    HW137685   3.332   7.555   8.576 -1.2714 -1.0196 -0.2325
42457SOL    HW237686   3.297   7.660   8.473  2.2741 -0.4937 -1.0431
42458SOL     OW37687   4.493   2.790  12.454  0.2339  0.0763  0.1972
42458SOL    HW137688   4.541   2.714  12.421  0.2257 -0.3287  1.0921
42458SOL    HW237689   4.466   2.838  12.375 -0.4887 -1.2904 -0.4267
42459SOL     OW37690   4.912   6.861   9.323 -0.3849 -0.5888 -0.0212
42459SOL    HW137691   4.874   6.854   9.411 -0.2910  3.2045  0.4962
42459SOL    HW237692   4.839   6.887   9.268 -0.2061 -1.8477 -0.8920
42460SOL     OW37693   6.287   1.199   3.442  0.2816 -0.4305  0.2589
42460SOL    HW137694   6.365   1.202   3.387 -0.9045  1.4207 -1.4604
42460SOL    HW237695   6.244   1.117   3.418  0.6144 -0.4320 -0.3401
42461SOL     OW37696   0.566   8.873  12.635 -0.3636  0.5160  0.2597
42461SOL    HW137697   0.622   8.947  12.613  1.3601 -0.3869  1.3809
42461SOL    HW237698   0.603   8.838  12.716 -0.7668 -1.8859 -0.5012
42462SOL     OW37699  11.984   3.546   8.093 -0.7336  0.6490 -0.3272
42462SOL    HW137700  12.073   3.523   8.119 -1.4106 -2.0494 -0.0976
42462SOL    HW237701  11.979   3.523   8.000 -0.9240  1.7832 -0.6178
42463SOL     OW37702   6.967   1.187   6.581 -0.2853  0.1643 -0.3251
42463SOL    HW137703   7.038   1.198   6.518 -0.7622  0.0050 -0.9055
42463SOL    HW237704   6.999   1.227   6.661 -0.1387  1.4481 -1.0085
42464SOL     OW37705   4.186  12.559   8.302 -0.0769  0.2103  0.2811
42464SOL    HW137706   4.150  12.518   8.224 -1.6814 -0.2677  1.2204
42464SOL    HW237707   4.271  12.516   8.315  0.2576  0.3808 -1.2321
42465SOL     OW37708   0.814   1.399  11.221 -0.0896 -0.1004  0.1082
42465SOL    HW137709   0.880   1.454  11.264 -1.5099  1.6494  0.1628
42465SOL    HW237710   0.849   1.384  11.133  0.9938 -0.3396  0.5633
42466SOL     OW37711  10.665   5.957   7.021 -0.1172  0.3588 -0.0161
42466SOL    HW137712  10.652   6.049   6.997  0.9493  0.5070 -0.0850
42466SOL    HW237713  10.715   5.921   6.948 -1.5580 -0.5997 -0.5636
42467SOL     OW37714   1.253   4.386  10.597 -0.3539  0.3781 -0.1155
42467SOL    HW137715   1.185   4.421  10.539  0.0048 -0.3559 -1.0016
42467SOL    HW237716   1.318   4.348  10.538 -0.5122 -1.3693  0.7861
42468SOL     OW37717  12.772   2.136   2.879  0.1571 -0.4939 -0.0894
42468SOL    HW137718  12.681   2.107   2.880 -0.6317  1.8721  0.7542
42468SOL    HW237719  12.812   2.091   2.954 -1.3427  1.3875  1.9578
42469SOL     OW37720   5.079   0.197  12.457 -0.1376  0.1217 -0.6973
42469SOL    HW137721   5.113   0.220  12.371  1.6608 -1.3333 -0.4429
42469SOL    HW237722   5.084   0.279  12.507  1.8143  0.2826 -1.0828
42470SOL     OW37723   1.079   6.964  10.480 -0.6660 -0.0570  0.1520
42470SOL    HW137724   1.000   6.913  10.496  1.2753 -4.1681 -1.7730
42470SOL    HW237725   1.128   6.960  10.562 -1.7640  1.2983  0.9058
42471SOL     OW37726   8.144  10.439  11.729 -0.3011  0.0871  0.0739
42471SOL    HW137727   8.232  10.474  11.716  0.0431  0.2590  2.3642
42471SOL    HW237728   8.155  10.372  11.796 -1.7556 -0.6790 -0.4210
42472SOL     OW37729  11.384   0.260   9.826 -0.5267 -0.3637  0.2754
42472SOL    HW137730  11.368   0.171   9.793  1.4698 -0.6108 -0.1906
42472SOL    HW237731  11.479   0.263   9.839 -0.1856  2.4137 -1.9251
42473SOL     OW37732   5.376   5.198   4.892  0.0636 -0.8997  0.8121
42473SOL    HW137733   5.428   5.146   4.830  1.4253  0.8664  0.3883
42473SOL    HW237734   5.432   5.273   4.913 -1.1859 -0.4147  2.6417
42474SOL     OW37735  12.439   6.019   3.170 -0.1197 -0.1261  0.3077
42474SOL    HW137736  12.401   5.971   3.097 -0.0800 -1.7623  1.3320
42474SOL    HW237737  12.371   6.021   3.237  0.1608  0.5793  0.5922
42475SOL     OW37738   6.151   0.453   8.057  0.0671  0.0939  0.2222
42475SOL    HW137739   6.228   0.508   8.071 -0.1246  0.4520 -0.1258
42475SOL    HW237740   6.149   0.436   7.963 -1.0766  1.2730  0.0105
42476SOL     OW37741  12.108   8.797   0.895  0.2944 -0.7873 -0.2183
42476SOL    HW137742  12.176   8.729   0.891 -1.3348 -2.5003 -0.4323
42476SOL    HW237743  12.139   8.865   0.835  2.2412 -1.0627  0.3996
42477SOL     OW37744   3.733   5.665   1.356 -0.0100  0.3941 -0.2835
42477SOL    HW137745   3.687   5.608   1.418 -1.0546  2.0548  0.5370
42477SOL    HW237746   3.737   5.749   1.400  1.6897  0.9343 -1.3768
42478SOL     OW37747   7.480  12.395  12.350 -0.0571 -0.1924 -0.3762
42478SOL    HW137748   7.514  12.483  12.335 -0.5833 -0.0290 -0.5919
42478SOL    HW237749   7.516  12.370  12.435  1.8176 -0.5986 -1.2323
42479SOL     OW37750  12.323  11.963   7.633 -0.2358 -0.3216  0.2973
42479SOL    HW137751  12.330  12.048   7.590  2.5092  0.2387  1.6305
42479SOL    HW237752  12.354  11.900   7.568  0.9878  0.1562  0.3821
42480SOL     OW37753  12.521   3.997   7.008  0.1717  0.1172  0.4104
42480SOL    HW137754  12.494   4.087   7.030 -1.7926 -0.6754  1.4850
42480SOL    HW237755  12.480   3.943   7.075  0.0944 -1.7523 -1.0721
42481SOL     OW37756   4.657   1.455   9.795  0.1733  0.3042 -0.3800
42481SOL    HW137757   4.720   1.423   9.730  0.4081  3.9154 -2.1516
42481SOL    HW237758   4.574   1.415   9.768  0.9049 -1.1672 -0.5772
42482SOL     OW37759   3.071   2.552   8.750  0.3612  0.1353  0.4143
42482SOL    HW137760   3.073   2.635   8.797 -0.0312  0.2889  0.1677
42482SOL    HW237761   3.148   2.555   8.693  0.5716  0.1529  0.6958
42483SOL     OW37762   4.684   1.489   6.567  0.1108  0.0305  0.3917
42483SOL    HW137763   4.697   1.532   6.482 -1.7878 -1.0965 -0.5296
42483SOL    HW237764   4.752   1.421   6.569  0.4153  0.3110 -0.0574
42484SOL     OW37765   8.462   8.292   4.449  0.5244  0.3343 -0.5743
42484SOL    HW137766   8.395   8.344   4.494 -0.3688  0.8893 -2.4185
42484SOL    HW237767   8.432   8.202   4.459 -0.2551  0.5376 -0.9484
42485SOL     OW37768   9.140   2.097   2.360  0.6082 -0.6179 -0.2307
42485SOL    HW137769   9.111   2.176   2.406  1.6555  0.6489 -1.6471
42485SOL    HW237770   9.102   2.025   2.411  0.0748  0.7512  1.4354
42486SOL     OW37771  10.489   1.463   0.214  0.0990 -0.0530  0.5599
42486SOL    HW137772  10.581   1.447   0.197  0.3545  0.3404  1.5118
42486SOL    HW237773  10.487   1.502   0.302 -1.1259 -2.3498  1.6611
42487SOL     OW37774   4.743  10.717   3.549 -0.1854  0.0566  0.1434
42487SOL    HW137775   4.716  10.656   3.482  0.1704 -0.2067  0.2377
42487SOL    HW237776   4.801  10.778   3.504 -0.6750  0.4329  0.0112
42488SOL     OW37777   2.277   2.165  12.639  0.7997 -0.1147 -0.2867
42488SOL    HW137778   2.266   2.224  12.713 -0.3233  0.5968 -0.9924
42488SOL    HW237779   2.227   2.087  12.663 -1.2339  0.8704 -1.0560
42489SOL     OW37780   1.577   1.485   7.031 -0.2714 -0.5514  0.1505
42489SOL    HW137781   1.638   1.465   7.102 -0.0112  0.9115  0.3672
42489SOL    HW237782   1.495   1.508   7.076 -0.1499  0.2308 -0.0120
42490SOL     OW37783  12.801  12.559  12.123 -0.2769 -0.4864  0.1456
42490SOL    HW137784  12.830  12.648  12.102 -1.2815 -0.2696 -0.4070
42490SOL    HW237785  12.828  12.546  12.214 -0.0606  0.3635  0.2146
42491SOL     OW37786   8.800   2.243  10.379 -0.1859  0.3182 -0.0225
42491SOL    HW137787   8.804   2.311  10.312 -1.2526  1.1714  0.7425
42491SOL    HW237788   8.762   2.167  10.334  0.6108  0.3565 -0.7777
42492SOL     OW37789  11.554   5.433   3.833 -0.2807 -0.1479  0.1269
42492SOL    HW137790  11.610   5.358   3.855 -2.0217 -0.9730  2.1744
42492SOL    HW237791  11.515   5.410   3.749  0.7239 -0.5787 -0.2430
42493SOL     OW37792  10.734  10.349  12.364 -0.6459  0.5497 -0.0706
42493SOL    HW137793  10.692  10.293  12.429 -1.9132  0.5713 -0.8303
42493SOL    HW237794  10.777  10.288  12.304  0.4059  0.5260  0.6862
42494SOL     OW37795   2.759  12.014   4.370  0.0170  0.4022 -0.1282
42494SOL    HW137796   2.760  12.072   4.446  0.9259 -0.3122  0.4278
42494SOL    HW237797   2.851  11.996   4.352 -0.1901  0.4686 -1.3416
42495SOL     OW37798   9.354  10.948  12.603 -0.2954 -0.5503 -0.0519
42495SOL    HW137799   9.365  10.873  12.544 -1.6750  0.3743 -1.5719
42495SOL    HW237800   9.282  10.923  12.661 -3.3156  0.8077 -2.8811
42496SOL     OW37801  10.477   9.066   1.832  0.1176  0.4931 -0.3812
42496SOL    HW137802  10.515   9.069   1.920  0.0859 -0.1040 -0.3426
42496SOL    HW237803  10.551   9.075   1.773  0.2927 -0.2771 -0.3004
42497SOL     OW37804   9.764  11.699   4.420  0.2159 -0.6619 -0.4625
42497SOL    HW137805   9.702  11.710   4.492  0.4965  0.2819 -0.3388
42497SOL    HW237806   9.840  11.658   4.460  1.5978  2.5377  0.5602
42498SOL     OW37807  11.443   6.123   6.852  0.5430 -0.0232  0.3568
42498SOL    HW137808  11.474   6.148   6.765 -0.2088  1.8242  0.5742
42498SOL    HW237809  11.348   6.117   6.842  0.0496  3.2401  1.6309
42499SOL     OW37810   1.825  10.361  12.810 -0.5282  0.2168  0.0551
42499SOL    HW137811   1.838  10.449  12.846  2.2460  0.1942 -0.6415
42499SOL    HW237812   1.804  10.307  12.886 -1.6342  1.3368  0.5837
42500SOL     OW37813   3.409   5.092   3.720  0.4282  0.2353 -0.5900
42500SOL    HW137814   3.317   5.090   3.694  0.4331  3.1979 -1.1310
42500SOL    HW237815   3.449   5.155   3.660  2.7275 -0.5863 -0.0124
42501SOL     OW37816  11.648  11.003   1.267 -0.1805 -0.3769  0.3635
42501SOL    HW137817  11.620  10.915   1.292  1.3480 -0.9452  0.1387
42501SOL    HW237818  11.642  11.054   1.348  0.9251 -1.2211  1.0060
42502SOL     OW37819   8.390   5.128   6.054 -0.3648  0.7077  0.1205
42502SOL    HW137820   8.439   5.185   5.994 -0.4717  0.2946 -0.3686
42502SOL    HW237821   8.443   5.125   6.133  1.0711 -0.7314 -0.8232
42503SOL     OW37822   7.186  11.981   1.706 -0.4226 -0.5778 -0.1505
42503SOL    HW137823   7.146  11.893   1.708  0.5396 -1.0445  2.5703
42503SOL    HW237824   7.224  11.987   1.618 -0.6328 -2.8346 -0.4784
42504SOL     OW37825   0.099   1.970   2.556 -0.1028 -0.2105 -0.6600
42504SOL    HW137826   0.136   2.022   2.485 -1.0481  0.5799 -0.5912
42504SOL    HW237827   0.122   1.879   2.534  1.3463  0.1925 -0.9133
42505SOL     OW37828  11.909   7.485   2.369 -0.1672 -0.1073 -0.4920
42505SOL    HW137829  11.894   7.557   2.308 -1.6383 -0.3077 -0.4047
42505SOL    HW237830  11.923   7.528   2.454 -0.5293  0.0881 -0.5311
42506SOL     OW37831  10.300  10.241   6.042  0.4247 -0.5009 -1.0902
42506SOL    HW137832  10.265  10.194   6.118  0.3209  0.8063 -0.2986
42506SOL    HW237833  10.394  10.222   6.044  0.8956  1.5109  0.9228
42507SOL     OW37834   3.090   1.046   6.973 -0.0301 -0.0579  0.1418
42507SOL    HW137835   3.085   1.028   6.879  0.6096 -2.1184  0.4371
42507SOL    HW237836   2.999   1.059   7.000 -0.7071 -3.3290 -0.1567
42508SOL     OW37837   4.315   8.183   8.097 -0.1010 -0.2978  0.0889
42508SOL    HW137838   4.346   8.130   8.024  0.4533  0.1410 -0.0052
42508SOL    HW237839   4.269   8.122   8.154  0.1772 -0.8017 -0.2204
42509SOL     OW37840   7.700  11.743   0.909  0.2863  0.0428  0.5312
42509SOL    HW137841   7.619  11.693   0.908  0.8387 -0.8842  0.5449
42509SOL    HW237842   7.733  11.735   0.998  0.2080  0.7279  0.6266
42510SOL     OW37843   8.625  12.873   0.519 -0.5061  0.2040 -0.1274
42510SOL    HW137844   8.693  12.902   0.580 -0.6841  1.5321 -0.5094
42510SOL    HW237845   8.640  12.779   0.509  1.0649  0.3991  0.0704
42511SOL     OW37846   7.766   0.660   6.950  0.3334 -0.5191 -0.7232
42511SOL    HW137847   7.794   0.749   6.971 -0.8040 -0.2999 -0.0742
42511SOL    HW237848   7.671   0.661   6.964  0.0884 -1.4262 -2.1499
42512SOL     OW37849  12.532   9.076   8.446  0.5493 -0.3454 -0.1019
42512SOL    HW137850  12.625   9.079   8.424  0.4753 -1.1100 -0.5605
42512SOL    HW237851  12.515   8.984   8.466 -0.1147 -0.2201 -0.0666
42513SOL     OW37852   8.981   0.202   1.541 -0.1973  0.0694 -0.3238
42513SOL    HW137853   9.029   0.236   1.466  0.4793  1.1524  0.5627
42513SOL    HW237854   8.917   0.270   1.562  0.7324  0.5620  1.0701
42514SOL     OW37855  11.689   8.901   4.155 -0.0077 -0.5390  0.0654
42514SOL    HW137856  11.621   8.967   4.149  0.3554 -0.1561  0.0851
42514SOL    HW237857  11.643   8.817   4.149 -0.5334 -0.2970  0.6336
42515SOL     OW37858   3.523   5.927   6.196  0.4626  0.4890  0.0221
42515SOL    HW137859   3.573   5.998   6.237  0.8396 -0.3600  1.0941
42515SOL    HW237860   3.557   5.922   6.107  1.3328  0.8266  0.3195
42516SOL     OW37861   1.314   4.073   5.759  0.6647  0.1394 -0.1389
42516SOL    HW137862   1.254   4.035   5.695  0.1853  1.8212 -0.7389
42516SOL    HW237863   1.291   4.030   5.841 -0.7870  0.1053 -0.5291
42517SOL     OW37864   8.646   3.914   7.478 -0.2412  0.4567 -0.0384
42517SOL    HW137865   8.647   3.864   7.397  1.7692  0.0678  0.1649
42517SOL    HW237866   8.554   3.934   7.494 -0.7341 -0.1009 -2.0063
42518SOL     OW37867   6.230   9.545  10.732  0.2516 -0.0382 -0.0425
42518SOL    HW137868   6.136   9.543  10.750  0.6673 -1.6397  2.5860
42518SOL    HW237869   6.237   9.577  10.642 -2.8518 -1.0315 -0.7654
42519SOL     OW37870   6.875   7.256   2.372 -0.2100  0.0861  0.0485
42519SOL    HW137871   6.909   7.173   2.340  0.0626  0.5030 -0.7783
42519SOL    HW237872   6.889   7.254   2.466 -1.5658 -1.4230  0.2633
42520SOL     OW37873   8.622  10.037   6.303 -0.3132  0.5565 -0.0029
42520SOL    HW137874   8.639  10.125   6.337 -0.5205  0.6896 -0.2405
42520SOL    HW237875   8.563  10.051   6.229 -2.3978  0.0182  1.4726
42521SOL     OW37876   9.051   9.517   1.680 -0.1307 -0.0221 -0.2245
42521SOL    HW137877   9.016   9.580   1.616 -0.5901 -1.5632 -1.5487
42521SOL    HW237878   8.975   9.466   1.706  0.1361  0.3128  1.2859
42522SOL     OW37879   2.316   5.451   6.532  0.3147 -0.4555 -0.0799
42522SOL    HW137880   2.283   5.533   6.569  0.7413 -0.7790  1.0421
42522SOL    HW237881   2.245   5.420   6.476 -0.4092 -0.0220  0.5782
42523SOL     OW37882   2.268   8.832   7.697  0.3724  0.0692  0.1932
42523SOL    HW137883   2.357   8.838   7.733  0.2814 -0.6218  0.5432
42523SOL    HW237884   2.233   8.920   7.706  1.2498  0.5083 -0.5395
42524SOL     OW37885   3.901  11.836   0.453  0.2198  0.1998  0.1195
42524SOL    HW137886   3.918  11.913   0.508  0.1917  0.2780  0.0196
42524SOL    HW237887   3.828  11.863   0.397  1.3143  0.7179 -1.1149
42525SOL     OW37888   6.764   8.753   9.626 -0.1815 -0.4372 -0.7469
42525SOL    HW137889   6.724   8.667   9.611 -1.3968 -0.0766  0.2438
42525SOL    HW237890   6.787   8.784   9.538 -0.2358 -1.5301 -1.1686
42526SOL     OW37891  11.879   5.560   1.625  0.2472 -0.3661  0.0296
42526SOL    HW137892  11.903   5.626   1.690 -0.0070 -0.3695  0.1298
42526SOL    HW237893  11.788   5.580   1.603  0.6415  0.2726 -1.0922
42527SOL     OW37894  10.294  12.358   7.468 -0.8957  0.6634 -0.3133
42527SOL    HW137895  10.242  12.369   7.389  2.0973 -0.4058 -2.6113
42527SOL    HW237896  10.249  12.288   7.516 -1.1720 -0.9121 -2.6669
42528SOL     OW37897   5.017   2.735   2.901  0.6306  0.4214  0.2233
42528SOL    HW137898   5.083   2.666   2.908 -0.0926 -0.1576  1.9942
42528SOL    HW237899   5.062   2.814   2.931  0.5862  0.0493  1.3284
42529SOL     OW37900   2.843   7.524   4.302  0.7438  0.4893 -0.3221
42529SOL    HW137901   2.787   7.550   4.375 -2.0877 -1.0505 -1.8040
42529SOL    HW237902   2.845   7.600   4.245 -1.8842 -0.0974 -1.3496
42530SOL     OW37903  11.639   9.017   8.614  0.5209 -0.3408 -0.2492
42530SOL    HW137904  11.544   9.010   8.609  0.4508  0.6445 -0.5834
42530SOL    HW237905  11.668   9.015   8.523  0.8157 -0.5684 -0.1512
42531SOL     OW37906   7.663  12.101   4.895  0.4133 -0.0671  0.3238
42531SOL    HW137907   7.704  12.184   4.873  0.3973 -0.4745 -1.4357
42531SOL    HW237908   7.598  12.123   4.961  0.3614  1.3279 -0.1551
42532SOL     OW37909   6.717   4.242   1.138 -0.0432  0.0040 -0.5151
42532SOL    HW137910   6.742   4.333   1.154  0.1052 -0.2888  1.1065
42532SOL    HW237911   6.772   4.191   1.197 -0.7242 -1.0728 -0.7712
42533SOL     OW37912   0.161   2.932   3.875  0.2174 -0.6197 -0.4086
42533SOL    HW137913   0.208   3.013   3.895  1.0391 -0.8140 -1.4736
42533SOL    HW237914   0.132   2.943   3.784 -3.2782  0.1884  0.6615
42534SOL     OW37915  11.004  11.869   0.618 -0.3690 -0.2421  0.3662
42534SOL    HW137916  11.022  11.779   0.646  0.0386 -0.1390  0.4409
42534SOL    HW237917  11.054  11.880   0.537  0.1738  0.1518  0.7499
42535SOL     OW37918   6.255   6.274   1.843 -1.0159 -0.8316 -0.0519
42535SOL    HW137919   6.208   6.278   1.927 -1.0835  1.5861 -0.1206
42535SOL    HW237920   6.189   6.244   1.780 -2.0991  0.9119  0.1592
42536SOL     OW37921   8.567  11.804   9.805  0.7743  0.7401 -0.5076
42536SOL    HW137922   8.650  11.774   9.840 -0.4782 -0.6912  1.3873
42536SOL    HW237923   8.501  11.763   9.859 -1.1820  4.0247 -0.1034
42537SOL     OW37924   2.214  12.521  12.459  0.4440 -0.3896 -0.3398
42537SOL    HW137925   2.196  12.455  12.526  1.8235 -0.3442  0.1060
42537SOL    HW237926   2.170  12.600  12.490 -1.2775 -1.0759 -0.9056
42538SOL     OW37927   8.757   8.215  12.695  0.1828  0.3142 -0.4777
42538SOL    HW137928   8.671   8.254  12.677  0.0366  0.2812  0.1370
42538SOL    HW237929   8.780   8.170  12.613  0.6783  2.2377 -1.4631
42539SOL     OW37930   6.485   8.893   5.284 -0.5545 -0.7772  0.4983
42539SOL    HW137931   6.452   8.817   5.236 -0.2578  0.4646 -1.7899
42539SOL    HW237932   6.579   8.894   5.265 -0.7355  0.7815 -0.4716
42540SOL     OW37933  10.374   5.255   2.350  0.0955  0.1111 -0.5946
42540SOL    HW137934  10.360   5.349   2.344 -1.7108 -0.1843 -1.6267
42540SOL    HW237935  10.400   5.228   2.262 -1.5700 -0.6303 -0.9050
42541SOL     OW37936   7.507   9.825  12.892  0.0008 -0.1639  0.3982
42541SOL    HW137937   7.532   9.891  12.956 -0.8215  0.5667 -0.0137
42541SOL    HW237938   7.465   9.874  12.822 -0.5197 -1.1091  0.0277
42542SOL     OW37939   0.407   5.451   3.625 -0.1023 -0.8655  0.8075
42542SOL    HW137940   0.428   5.364   3.590 -0.4420 -0.5270 -0.2910
42542SOL    HW237941   0.478   5.470   3.686  0.2825 -1.6731  0.6278
42543SOL     OW37942  10.045   7.274  10.898 -0.2258  0.1079 -0.0649
42543SOL    HW137943  10.114   7.327  10.858  0.0496 -0.8526 -0.9214
42543SOL    HW237944  10.031   7.203  10.835 -3.1647  1.1457 -0.7467
42544SOL     OW37945  11.646   4.037  11.552 -0.7989 -0.3798 -0.0021
42544SOL    HW137946  11.709   4.083  11.496  0.7573  0.6663  2.4111
42544SOL    HW237947  11.593   3.986  11.492  0.3076  1.1699 -2.4516
42545SOL     OW37948  11.718   8.499   9.525 -0.3007  0.0066 -0.1383
42545SOL    HW137949  11.734   8.582   9.570 -2.1081  0.8972 -1.0062
42545SOL    HW237950  11.781   8.497   9.453 -0.2326  0.6430 -0.1006
42546SOL     OW37951   2.000   9.977   7.812 -0.1007  0.5996  0.3720
42546SOL    HW137952   2.034   9.892   7.839  0.6133  1.8128  3.7202
42546SOL    HW237953   2.074  10.036   7.819 -1.3734  2.1433  1.7407
42547SOL     OW37954   6.125   1.729   5.601  0.2798 -0.0331 -0.1243
42547SOL    HW137955   6.106   1.635   5.609  1.2996 -0.2072  0.4038
42547SOL    HW237956   6.207   1.733   5.552  2.6742  0.3081  3.5544
42548SOL     OW37957  11.592   2.693  10.246 -0.6583  0.1163  0.1321
42548SOL    HW137958  11.684   2.681  10.269 -0.7835 -1.9950 -0.3068
42548SOL    HW237959  11.553   2.731  10.325  0.4240  0.2938  0.6056
42549SOL     OW37960  10.857   7.857   9.883  0.2802  0.1857  0.3627
42549SOL    HW137961  10.851   7.913   9.960 -1.5518 -1.0613  1.1831
42549SOL    HW237962  10.941   7.812   9.893  0.2918  0.4050  1.3736
42550SOL     OW37963  10.645   7.431   8.952 -0.6391  0.6725 -0.6443
42550SOL    HW137964  10.563   7.422   8.903 -1.0846  2.0597 -0.1990
42550SOL    HW237965  10.699   7.489   8.898 -0.2118  0.3106 -0.6100
42551SOL     OW37966   9.397   8.567   0.777 -0.2490 -0.6437  0.4310
42551SOL    HW137967   9.462   8.507   0.743 -0.7488 -1.2836  0.5834
42551SOL    HW237968   9.398   8.641   0.717  0.2362 -0.8889  0.1348
42552SOL     OW37969   4.042  11.139  12.449  0.5480  0.2766  0.3832
42552SOL    HW137970   3.953  11.168  12.428 -0.0146 -0.1319  2.0491
42552SOL    HW237971   4.063  11.076  12.380 -0.7605 -0.1923  0.3795
42553SOL     OW37972   2.309   6.130   5.969  0.1778 -0.9576 -0.0732
42553SOL    HW137973   2.295   6.190   6.042 -0.8469 -2.5880  1.1555
42553SOL    HW237974   2.401   6.140   5.945  0.3723  0.0369  1.0462
42554SOL     OW37975   9.292  11.129  11.403 -0.1583  0.2265 -0.0593
42554SOL    HW137976   9.297  11.101  11.312  0.9872 -1.1737  0.3879
42554SOL    HW237977   9.381  11.158  11.424  0.3066 -1.9677  1.3146
42555SOL     OW37978   3.017  12.455   9.523  0.9211 -0.2266  0.2467
42555SOL    HW137979   3.011  12.367   9.487  0.9718 -0.1882  0.1452
42555SOL    HW237980   2.963  12.452   9.602  1.5615 -0.5731  0.6816
42556SOL     OW37981   5.883   2.900   2.640 -0.3259 -0.1537  0.0017
42556SOL    HW137982   5.869   2.902   2.546  1.8668 -1.8599 -0.4421
42556SOL    HW237983   5.901   2.990   2.665  0.0883  0.1570 -1.3878
42557SOL     OW37984   3.825   6.340   0.984  0.7983  0.1043 -0.4219
42557SOL    HW137985   3.840   6.435   0.984 -0.1308  0.2674 -0.6508
42557SOL    HW237986   3.843   6.313   1.074 -1.6918  1.0112  0.4676
42558SOL     OW37987   3.756   5.824   7.204 -0.3929  0.9426 -0.1585
42558SOL    HW137988   3.762   5.815   7.108  0.5372 -0.3971 -0.0078
42558SOL    HW237989   3.726   5.914   7.218 -1.1169  0.9827 -1.7194
42559SOL     OW37990   4.206  11.737   3.906 -1.0988  0.1131 -0.3586
42559SOL    HW137991   4.289  11.744   3.954 -0.9156  4.2244 -0.9229
42559SOL    HW237992   4.231  11.715   3.817 -0.8206 -0.5291 -0.1298
42560SOL     OW37993   5.984   9.127   3.676 -0.2850 -0.2770 -0.3182
42560SOL    HW137994   5.978   9.031   3.672  0.1881 -0.5429  2.9136
42560SOL    HW237995   6.077   9.144   3.691 -0.5847  0.5632  0.6595
42561SOL     OW37996   1.940   2.752   5.923  0.3319  0.1289 -0.1481
42561SOL    HW137997   1.847   2.730   5.923  0.2343  0.4916  0.8953
42561SOL    HW237998   1.952   2.804   6.002  1.6916 -1.0697  0.4733
42562SOL     OW37999  12.315   1.389   5.488  0.3193 -0.0608 -0.3217
42562SOL    HW138000  12.270   1.403   5.405  0.1478 -0.6356 -0.3323
42562SOL    HW238001  12.357   1.472   5.507 -0.4618  0.3801 -0.4851
42563SOL     OW38002   3.011   1.793  11.749  0.3621 -0.3497 -0.0079
42563SOL    HW138003   3.037   1.766  11.661  1.2010 -0.6256  0.3091
42563SOL    HW238004   2.920   1.822  11.740  0.2285 -0.9820 -0.8332
42564SOL     OW38005   7.163  12.577   3.308 -0.4332 -0.3662 -0.1768
42564SOL    HW138006   7.090  12.632   3.336  0.0766 -0.3186  1.1391
42564SOL    HW238007   7.241  12.628   3.331  0.0365 -1.3195  0.4328
42565SOL     OW38008   8.539  11.672   0.263 -0.1301  0.0903 -0.2252
42565SOL    HW138009   8.471  11.675   0.196 -1.5036  0.4952  1.1055
42565SOL    HW238010   8.494  11.701   0.343  1.0086 -1.8023  1.1993
42566SOL     OW38011   4.910   4.217   1.242  0.2754  0.5501 -0.0797
42566SOL    HW138012   4.853   4.285   1.278  1.5025  1.5923 -0.0219
42566SOL    HW238013   4.998   4.255   1.247  0.9859 -1.0206 -0.1376
42567SOL     OW38014   6.055   5.696   1.180 -0.4806 -0.1790 -0.1721
42567SOL    HW138015   6.011   5.631   1.126 -0.2962  0.0882 -0.6497
42567SOL    HW238016   6.008   5.778   1.161  0.6608  0.2506 -1.2222
42568SOL     OW38017   9.424   9.766  12.820 -0.2380 -0.0621 -0.5304
42568SOL    HW138018   9.384   9.853  12.815  1.1505  0.5387 -2.2898
42568SOL    HW238019   9.463   9.761  12.907  0.4821  1.4758 -0.7461
42569SOL     OW38020   3.855  10.161   6.144 -0.3055  0.0376 -0.3306
42569SOL    HW138021   3.895  10.163   6.231  1.4372 -3.4971 -0.8620
42569SOL    HW238022   3.912  10.217   6.090  2.5539 -2.6956 -0.4428
42570SOL     OW38023  11.027  12.477   6.406 -0.4463 -1.1102 -0.5588
42570SOL    HW138024  10.961  12.532   6.449  0.8648 -0.4564  0.7161
42570SOL    HW238025  11.013  12.490   6.312 -0.9216  0.4977 -0.2837
42571SOL     OW38026   2.828  12.096   8.184 -0.5593 -0.2587  0.7652
42571SOL    HW138027   2.849  12.003   8.182 -0.5136 -0.2436 -0.9560
42571SOL    HW238028   2.899  12.138   8.136 -1.0404  0.5670  0.7582
42572SOL     OW38029  10.611   7.433  10.731 -0.1443 -0.5610 -0.3727
42572SOL    HW138030  10.694   7.458  10.773 -0.0656  0.3843 -1.0783
42572SOL    HW238031  10.543   7.461  10.793  0.0242 -0.7594 -0.0900
42573SOL     OW38032  12.268   0.367   7.969  0.0923 -0.4145 -0.3276
42573SOL    HW138033  12.256   0.402   7.881  1.4954  1.4748  0.1734
42573SOL    HW238034  12.362   0.376   7.987  0.3421 -3.4406  0.3200
42574SOL     OW38035   5.027   1.061   8.746 -0.4683 -0.4143  0.0773
42574SOL    HW138036   4.934   1.077   8.759 -0.4788 -1.3092  1.2260
42574SOL    HW238037   5.034   1.039   8.653 -1.5529 -1.2458  0.1669
42575SOL     OW38038   1.020   5.842   7.747 -0.6162  0.4782  0.7630
42575SOL    HW138039   1.027   5.897   7.668 -1.0560  0.9594  1.0517
42575SOL    HW238040   1.097   5.865   7.799  1.2496 -1.8806 -0.7478
42576SOL     OW38041   1.807   4.830  10.653  0.1250 -0.7105 -0.5758
42576SOL    HW138042   1.880   4.887  10.676  0.6623 -1.4136 -0.5050
42576SOL    HW238043   1.800   4.768  10.725 -2.2000  0.8676  0.6839
42577SOL     OW38044  12.148   8.625   3.831 -0.0464  0.3254  0.2119
42577SOL    HW138045  12.235   8.584   3.837  0.1444  0.5613 -0.7288
42577SOL    HW238046  12.165   8.718   3.844 -0.1969  0.3417  0.2874
42578SOL     OW38047   1.146   8.221   6.596  0.3821 -0.2273  0.0017
42578SOL    HW138048   1.108   8.241   6.510  0.4078  0.6810  0.1860
42578SOL    HW238049   1.166   8.307   6.633  1.6492 -0.6504  0.3491
42579SOL     OW38050   3.928   1.720   6.651 -0.1697  0.1615 -0.0117
42579SOL    HW138051   3.875   1.685   6.579 -0.5138 -0.2309  0.4244
42579SOL    HW238052   3.889   1.683   6.729  0.6905 -0.0313  0.3314
42580SOL     OW38053   3.924   8.597   6.689 -0.4277  0.3988 -0.5239
42580SOL    HW138054   3.983   8.538   6.643  0.1433  0.1559  0.4966
42580SOL    HW238055   3.891   8.546   6.762  1.1321  1.7162  1.1845
42581SOL     OW38056   2.078   8.072  10.052 -0.0225 -0.0415  0.3498
42581SOL    HW138057   2.079   8.074   9.956 -0.2255 -0.0873  0.3453
42581SOL    HW238058   2.161   8.033  10.076  0.9654  1.8521  0.2452
42582SOL     OW38059   8.295   0.102  10.118 -0.1558 -0.6257  0.3248
42582SOL    HW138060   8.378   0.092  10.165 -0.5514 -2.1390  0.7495
42582SOL    HW238061   8.293   0.194  10.092  1.0603 -0.2654  1.4141
42583SOL     OW38062   0.288  11.510   9.898  1.0996  1.0159 -0.7709
42583SOL    HW138063   0.302  11.534   9.806  0.6401  2.2492 -0.5382
42583SOL    HW238064   0.259  11.419   9.895 -0.8800  1.6355 -2.0146
42584SOL     OW38065   6.987   2.761   4.620  0.4710 -0.5063  0.5673
42584SOL    HW138066   7.023   2.844   4.652 -1.8067  0.1397  1.6326
42584SOL    HW238067   6.953   2.781   4.533 -0.1176 -0.2881  0.8416
42585SOL     OW38068   3.122   6.219   1.974  0.1385  0.6573  0.4155
42585SOL    HW138069   3.140   6.276   2.048 -0.0472  0.2357  0.7892
42585SOL    HW238070   3.174   6.140   1.991 -1.4004 -0.2499  1.1004
42586SOL     OW38071   5.518  11.097   3.503  0.0874  0.0778  0.0565
42586SOL    HW138072   5.598  11.118   3.455  0.1015 -0.2497 -0.0677
42586SOL    HW238073   5.535  11.125   3.593  0.9145 -1.3563  0.3699
42587SOL     OW38074   1.697   7.036  12.866  0.4290 -0.0972 -0.4861
42587SOL    HW138075   1.706   7.000  12.954 -0.1576 -0.3006 -0.5092
42587SOL    HW238076   1.631   7.104  12.873  2.6967  2.2120 -0.0912
42588SOL     OW38077   2.331   2.647  10.097 -0.2723 -0.1222  0.5348
42588SOL    HW138078   2.253   2.592  10.097  0.5048 -1.2807  1.7350
42588SOL    HW238079   2.389   2.606  10.032  0.3882 -0.8624  1.5768
42589SOL     OW38080   5.935   5.890   6.372 -0.6756 -0.7547  0.2062
42589SOL    HW138081   5.918   5.978   6.405 -0.2745 -1.0117  1.1259
42589SOL    HW238082   5.962   5.903   6.281 -0.0853  0.1199  0.5026
42590SOL     OW38083   4.999  11.709  12.901 -0.0807 -0.2489  0.1894
42590SOL    HW138084   5.027  11.618  12.907  0.5615 -0.0132  1.0570
42590SOL    HW238085   4.980  11.735  12.991  2.0045  1.1345  0.3000
42591SOL     OW38086  10.852   1.597   6.208  0.0397  0.4177  0.0316
42591SOL    HW138087  10.828   1.505   6.203  1.5683  0.0443 -1.2102
42591SOL    HW238088  10.947   1.596   6.219  0.0983  1.8521 -0.1595
42592SOL     OW38089   1.191   4.961   6.588 -0.3997  0.2654 -0.1653
42592SOL    HW138090   1.168   5.052   6.607  0.8905  0.5128  0.3188
42592SOL    HW238091   1.109   4.913   6.600 -0.6012  1.0174  2.0340
42593SOL     OW38092   0.075   9.539   1.557 -0.1086 -0.0831 -0.0927
42593SOL    HW138093   0.094   9.496   1.640  0.1645 -1.8684 -1.0232
42593SOL    HW238094   0.095   9.473   1.491 -2.4366  0.4955 -1.5020
42594SOL     OW38095  12.224   9.291   4.816 -1.0527 -0.7286 -0.0774
42594SOL    HW138096  12.247   9.310   4.906 -3.2733  2.5600 -0.0551
42594SOL    HW238097  12.132   9.265   4.820 -0.6029 -2.7195 -1.2375
42595SOL     OW38098   3.562   9.066   2.438  0.0465 -0.2142 -0.8430
42595SOL    HW138099   3.631   9.014   2.479  0.9175 -1.6889 -3.9465
42595SOL    HW238100   3.583   9.157   2.462  1.0166 -0.8993  1.0939
42596SOL     OW38101   5.902   4.424   1.710 -0.0226 -0.0798 -0.5049
42596SOL    HW138102   5.951   4.402   1.789  0.4883 -1.2691 -1.1353
42596SOL    HW238103   5.832   4.482   1.741  0.7615  0.2791  0.6578
42597SOL     OW38104   5.025   8.109   3.324  0.7334 -0.1467  0.6744
42597SOL    HW138105   4.996   8.021   3.300 -0.0461  0.0225  0.9336
42597SOL    HW238106   4.945   8.162   3.318  0.8911  0.2500  1.8980
42598SOL     OW38107   0.357   1.862   5.737 -0.3480 -0.1675 -0.1827
42598SOL    HW138108   0.288   1.808   5.698 -0.1316  0.6934 -1.8815
42598SOL    HW238109   0.365   1.937   5.677  0.2991  1.0598  1.3530
42599SOL     OW38110  12.738   4.864   5.746  0.1823 -0.1356  0.0480
42599SOL    HW138111  12.797   4.915   5.691 -0.1891  0.5819  0.3114
42599SOL    HW238112  12.760   4.891   5.835  0.4437 -0.9329  0.2406
42600SOL     OW38113   0.174  12.185   4.338  0.5138 -0.1993 -0.1137
42600SOL    HW138114   0.233  12.135   4.283  0.8404  0.0368  0.0186
42600SOL    HW238115   0.201  12.276   4.326 -1.2101  0.1486 -1.7520
42601SOL     OW38116  10.025   5.309   1.538 -0.1732  0.4433 -0.0474
42601SOL    HW138117  10.044   5.224   1.577 -0.0871  1.4934  2.3927
42601SOL    HW238118   9.930   5.309   1.525 -0.0632 -0.3384 -0.9467
42602SOL     OW38119  12.101  10.342  11.919 -0.2597 -0.6304  0.1424
42602SOL    HW138120  12.081  10.427  11.958 -1.4834 -0.2879 -1.1334
42602SOL    HW238121  12.196  10.339  11.915 -0.1722  0.2289  1.1597
42603SOL     OW38122  12.764  11.080  12.600 -0.3579  0.2714  0.1569
42603SOL    HW138123  12.754  11.168  12.636 -1.4159  0.0541  0.4335
42603SOL    HW238124  12.857  11.060  12.609 -0.0070  1.5874 -0.4545
42604SOL     OW38125   5.078   0.460   2.182 -0.1689 -0.1562  0.5925
42604SOL    HW138126   5.172   0.439   2.179 -0.3712 -1.3741  1.7505
42604SOL    HW238127   5.038   0.393   2.127 -0.5055 -0.6994  1.4840
42605SOL     OW38128   2.431   3.355   4.221 -0.4660 -0.0795  0.6998
42605SOL    HW138129   2.376   3.412   4.167 -2.2720 -0.7737  1.7416
42605SOL    HW238130   2.371   3.316   4.284  1.3654 -0.2961  2.3958
42606SOL     OW38131   4.561   3.550   4.286 -0.8389  0.2209  0.0365
42606SOL    HW138132   4.587   3.624   4.340  1.7336 -0.6697  0.1117
42606SOL    HW238133   4.509   3.495   4.344 -0.9940  0.9272  0.5832
42607SOL     OW38134   7.548   9.629   8.903 -0.3142 -0.3449 -0.1832
42607SOL    HW138135   7.569   9.622   8.810 -1.3919  0.8696 -0.5377
42607SOL    HW238136   7.592   9.709   8.932 -0.2991 -0.5126  0.2667
42608SOL     OW38137   0.883   4.831   4.675  0.2818 -0.2052 -0.3728
42608SOL    HW138138   0.871   4.902   4.611 -0.6842 -0.0278 -0.0216
42608SOL    HW238139   0.973   4.802   4.662 -0.1105 -0.6767 -2.3258
42609SOL     OW38140  12.952   7.761   9.127  0.2463 -0.4159  0.0089
42609SOL    HW138141  12.871   7.776   9.079 -0.4391 -1.5378  0.7639
42609SOL    HW238142  13.021   7.794   9.068 -0.5580 -1.5976 -1.6928
42610SOL     OW38143  12.808  11.218   7.100  0.2946  0.3144 -0.2090
42610SOL    HW138144  12.887  11.271   7.087 -0.1628  1.0332 -0.0750
42610SOL    HW238145  12.751  11.272   7.155 -1.2112  0.7594 -2.1018
42611SOL     OW38146   9.334   9.162   9.047  0.2851 -0.3401  0.1480
42611SOL    HW138147   9.377   9.077   9.036 -0.0480 -0.6598  1.2308
42611SOL    HW238148   9.242   9.145   9.024  0.1976 -0.2922  0.4687
42612SOL     OW38149   6.082   7.459   7.930 -0.2355 -0.2083 -0.0885
42612SOL    HW138150   6.065   7.522   8.000 -0.9822 -0.6883  0.1809
42612SOL    HW238151   6.081   7.511   7.850  2.3808  0.6596  0.3391
42613SOL     OW38152  11.218  12.282  11.979  0.0333  0.4966 -0.2423
42613SOL    HW138153  11.196  12.366  12.020  1.0765  1.7905 -2.1756
42613SOL    HW238154  11.247  12.305  11.891  0.7403 -1.8852 -0.7042
42614SOL     OW38155   7.451   8.434   2.963 -0.3670 -0.1848  0.3248
42614SOL    HW138156   7.391   8.362   2.943 -0.9668  0.6335 -1.0061
42614SOL    HW238157   7.409   8.482   3.034 -1.2722  0.3336 -0.5401
42615SOL     OW38158   9.601  12.628   4.210 -0.1505 -0.1667  1.1476
42615SOL    HW138159   9.593  12.542   4.252 -0.9343 -1.3666 -1.3001
42615SOL    HW238160   9.634  12.609   4.122  0.3813  2.1362  0.7814
42616SOL     OW38161   0.323   0.281   7.568  0.1514 -0.0761  0.3112
42616SOL    HW138162   0.334   0.190   7.540  2.2670  0.5476 -1.1082
42616SOL    HW238163   0.296   0.327   7.489  0.5303  0.7733  0.6724
42617SOL     OW38164   0.502   5.326   2.736  0.7005  1.0426  0.1697
42617SOL    HW138165   0.543   5.368   2.660 -1.2492 -0.6652 -2.0101
42617SOL    HW238166   0.564   5.258   2.762  1.4942  1.7925  0.2931
42618SOL     OW38167   1.973   8.696   1.924  0.5676  0.8956 -0.8722
42618SOL    HW138168   1.901   8.729   1.977  0.4488 -0.0488 -0.4370
42618SOL    HW238169   1.931   8.641   1.858  0.9137 -0.1538 -0.2451
42619SOL     OW38170   5.567   7.854   2.415 -0.1475  0.4831  0.0257
42619SOL    HW138171   5.651   7.895   2.393 -0.6191  1.0346 -0.8100
42619SOL    HW238172   5.501   7.913   2.378 -0.8547 -1.1032 -1.3850
42620SOL     OW38173   4.166   4.858   6.457 -0.1211 -0.0604 -0.6767
42620SOL    HW138174   4.131   4.776   6.492 -2.2806  0.8135 -0.5928
42620SOL    HW238175   4.213   4.898   6.530  1.7134 -1.5605 -0.9601
42621SOL     OW38176   9.145  11.033   5.910  0.3403 -0.3174  0.2717
42621SOL    HW138177   9.132  11.048   5.816 -1.9082  2.0720  0.8521
42621SOL    HW238178   9.067  10.985   5.938  1.3436 -1.6826  0.8502
42622SOL     OW38179   0.280   4.698   2.190 -0.3254  0.1499  0.0049
42622SOL    HW138180   0.316   4.668   2.273 -2.0826 -0.5602  0.5667
42622SOL    HW238181   0.331   4.652   2.123  1.7905  1.5018  0.5959
42623SOL     OW38182   7.868   2.283  11.069  0.3130  0.4356 -0.7531
42623SOL    HW138183   7.848   2.347  11.138 -0.2370 -1.2203  0.6991
42623SOL    HW238184   7.821   2.315  10.993  0.5486  2.0803 -0.2508
42624SOL     OW38185   1.482   5.140   8.122 -0.3235  0.0124 -0.0556
42624SOL    HW138186   1.387   5.140   8.125 -0.5603 -1.4626 -3.1883
42624SOL    HW238187   1.505   5.223   8.080  0.0840  1.6975  3.2062
42625SOL     OW38188   0.335  10.179   6.326 -0.1935  0.0980  0.0359
42625SOL    HW138189   0.289  10.097   6.342  2.9291 -1.6560  0.8474
42625SOL    HW238190   0.320  10.197   6.233 -1.9468 -0.6553  0.1288
42626SOL     OW38191   9.276   0.647   7.923  0.4598  0.1927 -0.0513
42626SOL    HW138192   9.243   0.730   7.887  1.4407  0.4557 -0.3677
42626SOL    HW238193   9.268   0.585   7.850  0.8136  0.2966 -0.1793
42627SOL     OW38194   8.723  11.125   8.983  0.0229  0.5997  0.5714
42627SOL    HW138195   8.798  11.102   9.038 -0.0077  0.8983  0.7453
42627SOL    HW238196   8.650  11.076   9.021  0.3224 -0.4864 -0.2178
42628SOL     OW38197   5.575  11.320   0.151  0.1525 -0.0925  0.7878
42628SOL    HW138198   5.642  11.369   0.199  0.4974 -1.0382  1.2801
42628SOL    HW238199   5.623  11.276   0.081 -0.5923  2.9420 -1.8992
42629SOL     OW38200   4.493   2.409   5.559 -0.2824  0.1996  0.4124
42629SOL    HW138201   4.584   2.380   5.549 -0.4828 -0.4489  0.3889
42629SOL    HW238202   4.494   2.465   5.636 -0.0318 -0.6082  1.0178
42630SOL     OW38203  10.912   0.963   4.514 -0.0948 -0.1059 -0.1362
42630SOL    HW138204  10.939   1.054   4.503  1.7731 -0.6241 -0.0856
42630SOL    HW238205  10.820   0.962   4.486 -0.9097  2.2446  2.0209
42631SOL     OW38206   5.084   2.055   7.581 -0.4201  0.2856 -0.8970
42631SOL    HW138207   5.157   2.106   7.547  0.1387 -0.4580 -0.8405
42631SOL    HW238208   5.010   2.077   7.524  0.1267  0.2034 -1.6468
42632SOL     OW38209  11.507  11.201  12.680 -0.1532  0.0456  0.2975
42632SOL    HW138210  11.560  11.125  12.706 -0.8148 -0.4638  0.1940
42632SOL    HW238211  11.480  11.241  12.763  0.2120  0.1832  0.3523
42633SOL     OW38212  12.139   2.758   1.714 -0.9277  0.1971  0.7169
42633SOL    HW138213  12.181   2.841   1.732  0.0913 -0.4602  1.4345
42633SOL    HW238214  12.077   2.746   1.786 -1.0612  0.3056  0.6228
42634SOL     OW38215   1.444  12.384   5.520  0.5048  0.2764 -0.1500
42634SOL    HW138216   1.388  12.330   5.576  1.2910 -0.8522 -0.4053
42634SOL    HW238217   1.387  12.410   5.447  0.0976 -0.1969 -0.0082
42635SOL     OW38218   3.744   7.410   9.475  0.0300  0.0211  0.1905
42635SOL    HW138219   3.757   7.358   9.554  1.3974 -0.0806 -0.0772
42635SOL    HW238220   3.756   7.347   9.403  0.0828  0.3727 -0.1088
42636SOL     OW38221   4.664  11.446   1.665 -0.0764 -0.1303 -0.6773
42636SOL    HW138222   4.683  11.403   1.582  0.5096 -0.4057 -0.4039
42636SOL    HW238223   4.623  11.379   1.719  0.5608 -0.2727 -0.3577
42637SOL     OW38224   2.039   8.818   6.974 -0.1906  0.3575 -0.0777
42637SOL    HW138225   2.060   8.865   7.055 -0.3245 -0.6427  0.5634
42637SOL    HW238226   1.954   8.777   6.991  0.6301 -1.4107  0.0223
42638SOL     OW38227   3.919  11.647   7.342  0.1616  0.0082  0.1102
42638SOL    HW138228   3.979  11.693   7.283  0.4547  0.3900  0.6939
42638SOL    HW238229   3.892  11.713   7.406 -0.5886 -0.2571  0.0838
42639SOL     OW38230   1.312   6.098   4.064 -0.0282  0.5929  0.3008
42639SOL    HW138231   1.295   6.030   3.999 -0.1232 -0.4441  1.3582
42639SOL    HW238232   1.378   6.154   4.024  2.6444 -2.0541  0.5962
42640SOL     OW38233  10.810   8.689  10.949  0.3104 -0.1396  0.1655
42640SOL    HW138234  10.835   8.667  10.860 -0.0562 -1.1934  0.3098
42640SOL    HW238235  10.863   8.765  10.971 -0.3111  0.7520 -1.2988
42641SOL     OW38236   8.530  10.783   1.558  0.2718 -0.3486 -0.0678
42641SOL    HW138237   8.559  10.855   1.615  0.6698 -0.8812  0.4149
42641SOL    HW238238   8.440  10.805   1.536  1.0228  1.3945 -1.6711
42642SOL     OW38239   0.871  12.455  12.263  0.0128  0.1210  0.1238
42642SOL    HW138240   0.898  12.492  12.179  0.5266 -0.7054 -0.0755
42642SOL    HW238241   0.775  12.454  12.259  0.0611 -1.3555 -1.0835
42643SOL     OW38242   0.542   2.217  10.373  0.0475  0.2069  0.3525
42643SOL    HW138243   0.551   2.246  10.282  0.7959 -0.1595  0.3003
42643SOL    HW238244   0.456   2.176  10.377  0.3586 -0.5436 -0.4106
42644SOL     OW38245   4.966   1.054   9.440 -0.4652  0.0245  0.1085
42644SOL    HW138246   4.882   1.073   9.481 -0.2880 -2.5071  1.8410
42644SOL    HW238247   5.000   0.979   9.488  1.6654 -0.5894 -2.1545
42645SOL     OW38248   1.796  10.431   2.987 -0.6873 -0.1228 -0.1106
42645SOL    HW138249   1.835  10.352   3.025  0.2318  1.3940  2.2983
42645SOL    HW238250   1.853  10.453   2.913  1.8212  0.7255  1.9174
42646SOL     OW38251   6.274   4.561   2.618  0.0450 -0.1857 -0.9442
42646SOL    HW138252   6.368   4.550   2.633 -0.2818  0.5141  2.4115
42646SOL    HW238253   6.235   4.478   2.644 -0.4549  0.5536  0.8231
42647SOL     OW38254   8.267  12.536   6.938 -0.4188  0.4460 -0.0960
42647SOL    HW138255   8.362  12.530   6.928 -0.3768 -0.5070  0.7117
42647SOL    HW238256   8.238  12.592   6.866  0.4882 -1.2629 -1.8626
42648SOL     OW38257   1.484   8.362   1.330 -0.0675  0.1438  0.3184
42648SOL    HW138258   1.517   8.349   1.419 -0.6815 -0.7427  0.4180
42648SOL    HW238259   1.551   8.322   1.274  0.3695  0.7906  0.3560
42649SOL     OW38260   5.622   8.515  12.191 -0.0333  0.5928  0.9390
42649SOL    HW138261   5.552   8.574  12.218  0.1106  1.3287 -0.2181
42649SOL    HW238262   5.644   8.543  12.102  0.8611 -0.4462  0.8105
42650SOL     OW38263   6.868  11.029  11.625  0.0324 -0.0837  0.5201
42650SOL    HW138264   6.853  10.960  11.560 -1.2771  2.4042 -2.0396
42650SOL    HW238265   6.963  11.038  11.630  0.1776 -1.0756 -0.1781
42651SOL     OW38266  11.892  10.527  12.333 -0.4676 -0.7136  0.0622
42651SOL    HW138267  11.985  10.512  12.315 -0.4227 -0.9777  0.5165
42651SOL    HW238268  11.876  10.615  12.299  0.0512 -0.4980  0.3492
42652SOL     OW38269   2.036   3.905   2.481  0.0758  0.0778  0.0598
42652SOL    HW138270   2.008   3.938   2.395 -1.1636 -1.5145 -0.2074
42652SOL    HW238271   2.039   3.810   2.470  0.9656 -0.0903  1.5005
42653SOL     OW38272  10.320   1.367  10.680 -0.4843  0.4573  0.4867
42653SOL    HW138273  10.240   1.371  10.733  0.0129 -1.6414  1.5214
42653SOL    HW238274  10.320   1.449  10.630 -2.1484  1.4927  2.0512
42654SOL     OW38275  11.659   0.443   4.644  0.2040 -0.0168 -0.4406
42654SOL    HW138276  11.565   0.458   4.632 -0.0105 -1.7044 -1.2695
42654SOL    HW238277  11.669   0.427   4.738 -0.5330 -0.8380 -0.4823
42655SOL     OW38278   0.149   0.500   1.787 -0.7184  0.0416  0.6920
42655SOL    HW138279   0.065   0.459   1.769 -0.1516 -0.4656 -0.9395
42655SOL    HW238280   0.194   0.503   1.702  0.5501  1.1240  1.3522
42656SOL     OW38281   1.877   9.017  11.622 -0.2796 -0.2082 -0.2286
42656SOL    HW138282   1.787   9.050  11.620  0.0786  0.8204 -0.1947
42656SOL    HW238283   1.873   8.941  11.680 -1.4881 -1.3442 -1.7057
42657SOL     OW38284   4.753   2.046   7.924 -0.7238  0.0812  0.1705
42657SOL    HW138285   4.670   2.032   7.878  0.2108 -2.9650 -0.8294
42657SOL    HW238286   4.737   2.015   8.013 -0.7082 -0.2927  0.0420
42658SOL     OW38287   0.807  10.725   6.622 -0.2705  0.5749  0.9441
42658SOL    HW138288   0.835  10.805   6.667 -0.2134  0.3536  1.3153
42658SOL    HW238289   0.785  10.665   6.694 -0.6670  0.3841  0.6634
42659SOL     OW38290   4.622   6.562   5.349 -0.3179 -0.0356 -0.4103
42659SOL    HW138291   4.634   6.647   5.308  2.6992 -0.3923 -0.4492
42659SOL    HW238292   4.551   6.576   5.412 -1.6603  1.7739 -2.2156
42660SOL     OW38293   7.545   0.448   7.330 -0.5300  0.2392 -0.4582
42660SOL    HW138294   7.550   0.539   7.302 -2.7201  0.6122  0.1915
42660SOL    HW238295   7.454   0.422   7.314 -0.9683 -0.6521  2.7286
42661SOL     OW38296   8.769   5.657   2.502  0.6386 -0.1788 -0.3153
42661SOL    HW138297   8.707   5.693   2.438 -0.8263  0.9271  1.6084
42661SOL    HW238298   8.775   5.724   2.570  0.7134 -2.0007  1.6000
42662SOL     OW38299   4.579  11.864   2.050 -0.0280  0.1552  0.1694
42662SOL    HW138300   4.618  11.898   2.131  0.5994 -1.4859  0.5954
42662SOL    HW238301   4.618  11.917   1.981  0.3105  0.8127  0.8434
42663SOL     OW38302   9.929   5.119  10.137 -0.0784 -0.1168  0.3245
42663SOL    HW138303   9.840   5.106  10.170 -0.0085 -0.6425  0.3161
42663SOL    HW238304   9.921   5.108  10.042 -0.1481  0.6565  0.2380
42664SOL     OW38305   3.864   7.025   9.063  0.7386  0.4616 -0.1016
42664SOL    HW138306   3.803   6.952   9.072  0.5098  0.5427 -0.9469
42664SOL    HW238307   3.812   7.103   9.084  1.2894  0.3049  2.0231
42665SOL     OW38308   0.730  11.243   6.808  0.6464  0.0399  0.5083
42665SOL    HW138309   0.748  11.153   6.833  1.8027  0.0410 -0.2427
42665SOL    HW238310   0.699  11.285   6.888 -1.8409 -1.4818  0.4325
42666SOL     OW38311   2.184   7.454   5.872  0.0657  0.1195 -0.3788
42666SOL    HW138312   2.093   7.426   5.864  0.2966 -0.1286 -2.6807
42666SOL    HW238313   2.215   7.410   5.951 -1.7300  0.0510  0.3413
42667SOL     OW38314  12.497   9.870  10.433 -0.1805 -0.5987 -0.1627
42667SOL    HW138315  12.525   9.847  10.521 -1.8863  0.1243  0.6175
42667SOL    HW238316  12.435   9.942  10.446 -0.6773 -0.6611 -1.9393
42668SOL     OW38317   2.730   9.008   2.223 -0.6953  0.0817  0.3443
42668SOL    HW138318   2.665   9.009   2.294 -0.7997  1.2168  0.2402
42668SOL    HW238319   2.813   9.024   2.266 -0.9577  2.6388  0.0562
42669SOL     OW38320   0.246   6.576   8.769 -0.3676  0.6271 -0.0755
42669SOL    HW138321   0.282   6.494   8.802  0.0513  1.3216  1.2497
42669SOL    HW238322   0.253   6.637   8.843 -0.7849  1.8218 -0.9931
42670SOL     OW38323   4.190   5.220   5.044  0.3929  0.4284  0.0872
42670SOL    HW138324   4.141   5.200   5.124 -1.2223 -0.7503 -1.1367
42670SOL    HW238325   4.263   5.274   5.074  0.5319 -0.9615  2.5219
42671SOL     OW38326   2.692   1.674   2.629  0.3449 -0.8829  0.8161
42671SOL    HW138327   2.616   1.695   2.682  0.0172  0.4228 -0.1247
42671SOL    HW238328   2.767   1.696   2.684  0.0109  0.8903  0.5939
42672SOL     OW38329  10.311   5.157   9.659  0.5959 -0.0325 -0.3141
42672SOL    HW138330  10.347   5.236   9.617  1.0429 -0.6357 -1.0906
42672SOL    HW238331  10.233   5.188   9.705  0.1918  0.6931 -1.4503
42673SOL     OW38332  10.864   5.442   4.020 -0.2276  0.2816 -0.5573
42673SOL    HW138333  10.942   5.386   4.013  0.0494  0.5536  0.2155
42673SOL    HW238334  10.873   5.504   3.947  0.7176  0.8235 -0.0064
42674SOL     OW38335   1.567   7.249   8.781 -0.1999 -0.9890 -0.4841
42674SOL    HW138336   1.645   7.262   8.834  0.6801 -1.4569 -1.6214
42674SOL    HW238337   1.573   7.159   8.750 -1.6827 -1.3421  0.1555
42675SOL     OW38338   6.326   5.602   2.273 -0.4401  0.2932 -0.1075
42675SOL    HW138339   6.269   5.526   2.258 -0.6949  0.2051  1.1304
42675SOL    HW238340   6.317   5.619   2.367 -0.9673  2.3211 -0.4816
42676SOL     OW38341   7.872   2.144   2.781  0.2504 -0.2405  0.0741
42676SOL    HW138342   7.805   2.206   2.810  1.7760  0.6615  1.9537
42676SOL    HW238343   7.834   2.057   2.799 -1.5315  0.0962 -1.7097
42677SOL     OW38344   5.833   7.955   1.183 -0.5554 -0.0120 -0.2220
42677SOL    HW138345   5.815   8.044   1.214  0.1759 -0.4159  1.4271
42677SOL    HW238346   5.806   7.898   1.254  0.2107 -1.0456 -0.7274
42678SOL     OW38347  12.859  10.561   3.085 -0.2393 -0.0523 -1.0480
42678SOL    HW138348  12.889  10.505   3.156  1.5503  1.5018 -0.4979
42678SOL    HW238349  12.768  10.579   3.105  0.3804  0.8186  1.2124
42679SOL     OW38350   7.098   6.867   6.888  0.3307 -0.3631  0.7297
42679SOL    HW138351   7.137   6.822   6.963  0.1865 -1.2429  0.2908
42679SOL    HW238352   7.147   6.834   6.813  1.1254  1.2505  0.5164
42680SOL     OW38353   4.540  12.898  10.614 -0.0649  0.1414 -0.3616
42680SOL    HW138354   4.467  12.879  10.673 -0.1169  1.0971 -0.1138
42680SOL    HW238355   4.529  12.835  10.542 -1.6419  0.8528 -0.7801
42681SOL     OW38356  10.005   7.289   4.710  0.3418  0.3169  0.0155
42681SOL    HW138357  10.032   7.365   4.657 -0.9259  0.2188 -0.8287
42681SOL    HW238358   9.952   7.237   4.650 -0.1256 -0.4272  1.0586
42682SOL     OW38359  12.177   2.451   7.684 -0.0430  0.2734  0.9077
42682SOL    HW138360  12.267   2.424   7.706  0.3686  0.7856 -0.0647
42682SOL    HW238361  12.149   2.505   7.757  0.3748 -0.0408  1.3044
42683SOL     OW38362   5.033   1.548   9.574  0.0341  0.5738 -0.4341
42683SOL    HW138363   5.046   1.561   9.668  0.4787 -3.5567  0.2733
42683SOL    HW238364   5.120   1.561   9.537  0.6764 -1.1757  0.3394
42684SOL     OW38365  11.242   6.799   3.939 -0.0097 -0.0434 -0.5557
42684SOL    HW138366  11.306   6.728   3.942 -2.0831 -2.0192 -0.4945
42684SOL    HW238367  11.238   6.831   4.029 -0.1109 -0.8784 -0.2491
42685SOL     OW38368   9.083   6.972   3.201  0.1207  0.2904 -0.3421
42685SOL    HW138369   9.027   7.008   3.270  1.5010  1.0851  0.4197
42685SOL    HW238370   9.147   7.041   3.183  1.0325 -0.6762 -0.9621
42686SOL     OW38371   2.335   6.461   5.317  0.2606  0.1380  0.2332
42686SOL    HW138372   2.281   6.474   5.396 -0.3872 -0.6323 -0.0692
42686SOL    HW238373   2.394   6.390   5.340  1.8827  1.6282  0.9117
42687SOL     OW38374   5.179   5.661   7.766  0.6574 -0.0751  0.9324
42687SOL    HW138375   5.264   5.623   7.745  1.5290  1.8290  0.8026
42687SOL    HW238376   5.199   5.734   7.824 -0.8525  0.6764  0.5587
42688SOL     OW38377   1.527   3.607   0.919 -0.3474  0.3947  0.2000
42688SOL    HW138378   1.491   3.688   0.954 -0.7973  0.7117 -0.9360
42688SOL    HW238379   1.621   3.623   0.911 -0.4307  0.8003  0.0071
42689SOL     OW38380   0.830  12.900   5.627  0.7040 -0.1469  0.8392
42689SOL    HW138381   0.768  12.918   5.699 -1.5875 -0.7565 -0.8543
42689SOL    HW238382   0.862  12.812   5.644 -0.3237 -0.5389  0.8034
42690SOL     OW38383  11.485  12.367   9.323  0.3106  0.2386 -0.4666
42690SOL    HW138384  11.416  12.369   9.389  0.2555 -2.5936 -0.3275
42690SOL    HW238385  11.441  12.393   9.242 -0.4364  0.4396 -0.0040
42691SOL     OW38386   2.192  10.893   8.619 -0.9275  0.0335 -0.5257
42691SOL    HW138387   2.218  10.870   8.708 -0.6959  0.5774 -0.4512
42691SOL    HW238388   2.138  10.971   8.629 -0.0333  0.7103 -0.9510
42692SOL     OW38389  10.512   6.105   1.824 -0.0425 -0.0218  0.6246
42692SOL    HW138390  10.459   6.065   1.893  0.5045 -0.2702  0.9057
42692SOL    HW238391  10.598   6.064   1.832  0.3136  0.6706  0.4322
42693SOL     OW38392  10.791   6.896   6.154 -0.0342 -0.2926  0.0055
42693SOL    HW138393  10.780   6.825   6.218  2.0333 -1.4550 -0.8358
42693SOL    HW238394  10.756   6.861   6.073 -1.8170  0.8442  0.2450
42694SOL     OW38395   7.456  10.807   0.402  0.3695 -0.2596 -0.0138
42694SOL    HW138396   7.403  10.761   0.337  0.3518 -1.5772  0.8831
42694SOL    HW238397   7.534  10.835   0.355  0.5411 -1.5430 -0.5403
42695SOL     OW38398   9.347  10.348   1.855  0.4043  0.0560 -0.1576
42695SOL    HW138399   9.422  10.386   1.900  0.6072 -1.9967  1.3575
42695SOL    HW238400   9.357  10.254   1.866  0.3949 -0.6675 -4.4933
42696SOL     OW38401  10.967   6.007  10.293  0.2763  0.1043  0.5691
42696SOL    HW138402  11.039   5.946  10.278  0.6212  0.8233 -0.8246
42696SOL    HW238403  10.891   5.951  10.308  0.7802 -0.6600  0.3198
42697SOL     OW38404   2.857   4.504   4.718 -0.1235  0.1205 -0.2648
42697SOL    HW138405   2.939   4.456   4.703 -0.4001 -1.0140  1.4513
42697SOL    HW238406   2.824   4.524   4.631  1.4383 -0.3618 -0.9989
42698SOL     OW38407   4.277   4.539   3.927 -0.0572 -0.2596 -0.0652
42698SOL    HW138408   4.358   4.578   3.960 -1.4341  1.5670  1.3422
42698SOL    HW238409   4.270   4.570   3.836  0.5780 -0.0653 -0.0524
42699SOL     OW38410   4.592  11.759   1.184 -0.9039  0.0714  0.1786
42699SOL    HW138411   4.565  11.672   1.215  0.7500  0.0728  1.7718
42699SOL    HW238412   4.687  11.753   1.174 -0.5987  2.0005  1.4434
42700SOL     OW38413  12.851   5.830   1.708  0.2761 -0.5773  0.0015
42700SOL    HW138414  12.902   5.793   1.636 -0.2495 -2.0280  0.3285
42700SOL    HW238415  12.774   5.868   1.666 -0.5499 -2.3240 -0.1910
42701SOL     OW38416   5.765  12.408   2.773 -0.3664 -0.2891 -0.0939
42701SOL    HW138417   5.859  12.393   2.766 -0.2143  0.4513  0.1775
42701SOL    HW238418   5.727  12.321   2.780 -0.2105 -1.0400 -5.0790
42702SOL     OW38419   7.726  12.882  10.093 -0.2992 -0.4301 -0.7351
42702SOL    HW138420   7.692  12.954  10.040 -2.7931 -1.2392 -0.3769
42702SOL    HW238421   7.672  12.806  10.068 -0.5176 -1.1935  1.7985
42703SOL     OW38422   5.317   5.216   4.495  0.4253  0.1988 -0.3191
42703SOL    HW138423   5.383   5.279   4.524  1.1670 -0.5732 -0.2708
42703SOL    HW238424   5.357   5.173   4.420 -0.1830 -0.0212 -0.5188
42704SOL     OW38425   1.783   8.247   2.054  0.4814 -0.8079 -0.3445
42704SOL    HW138426   1.781   8.158   2.090 -0.2106 -0.7413 -0.2057
42704SOL    HW238427   1.735   8.241   1.972  0.8062 -0.6454 -0.5509
42705SOL     OW38428   4.530  10.313   4.731 -0.6010 -0.2345  0.0540
42705SOL    HW138429   4.609  10.262   4.748 -0.7772 -0.3547  0.5299
42705SOL    HW238430   4.520  10.369   4.809 -0.9765 -0.2104 -0.0067
42706SOL     OW38431   2.779   6.660   0.134 -0.2352  0.3787  0.1385
42706SOL    HW138432   2.703   6.629   0.086 -1.2365  0.2391  1.7544
42706SOL    HW238433   2.813   6.583   0.178 -0.7862  0.9054  1.5576
42707SOL     OW38434   4.545   6.205   2.212 -0.0905 -0.0973 -0.5065
42707SOL    HW138435   4.540   6.145   2.138 -0.7056 -0.8660  0.1249
42707SOL    HW238436   4.638   6.212   2.232  0.0326 -0.3236 -1.0061
42708SOL     OW38437  11.446   7.804   2.951  0.2596 -0.1381 -0.1345
42708SOL    HW138438  11.525   7.838   2.910 -0.5988  1.1467 -0.7915
42708SOL    HW238439  11.386   7.879   2.955 -0.4286 -0.7381  1.6287
42709SOL     OW38440   5.495   1.427   4.853 -0.0352  0.0825 -0.2806
42709SOL    HW138441   5.450   1.353   4.894 -1.7548  2.0850  1.7291
42709SOL    HW238442   5.566   1.387   4.803 -1.3034 -2.9429  0.0967
42710SOL     OW38443   6.111  12.416   3.911 -0.1075  0.2052  0.3802
42710SOL    HW138444   6.056  12.431   3.988 -0.1725  0.8527  0.2150
42710SOL    HW238445   6.192  12.379   3.946 -0.7613 -1.0873  0.5984
42711SOL     OW38446   9.691   5.622  11.106 -0.3512 -0.5303 -0.2368
42711SOL    HW138447   9.636   5.600  11.030 -0.6134  0.0683 -0.2254
42711SOL    HW238448   9.666   5.712  11.129  0.7016 -0.2113 -0.2834
42712SOL     OW38449   6.367   8.763   2.184  0.5197  0.8719 -0.6133
42712SOL    HW138450   6.411   8.749   2.100  0.7128  1.0669 -0.5459
42712SOL    HW238451   6.325   8.848   2.175  1.2982  1.3115 -0.1932
42713SOL     OW38452   0.190   7.886   9.580 -0.1042  0.0591  0.2919
42713SOL    HW138453   0.168   7.806   9.629 -0.3657 -1.3272 -1.9353
42713SOL    HW238454   0.145   7.875   9.496  0.6028  2.1533 -0.4165
42714SOL     OW38455   1.861  12.289   3.152  0.8510  0.2372 -0.2350
42714SOL    HW138456   1.799  12.310   3.222  0.8890 -1.0441  0.2247
42714SOL    HW238457   1.946  12.315   3.186  0.9245 -0.7599  0.4044
42715SOL     OW38458   3.274   3.782   6.129  0.5452  0.6127 -0.4261
42715SOL    HW138459   3.258   3.738   6.212 -0.8542 -0.1380 -1.0425
42715SOL    HW238460   3.366   3.807   6.131  1.1804 -1.6010  0.3108
42716SOL     OW38461   2.766   1.241   6.255 -0.1854 -0.0734  0.3580
42716SOL    HW138462   2.745   1.282   6.339 -3.6417 -0.4848 -0.1705
42716SOL    HW238463   2.798   1.313   6.201  0.9478  0.4145  1.6189
42717SOL     OW38464  10.155   0.144   8.900 -0.3808 -0.1136  0.3546
42717SOL    HW138465  10.126   0.190   8.979  0.6119  1.9734 -0.4160
42717SOL    HW238466  10.214   0.206   8.857  0.8163 -2.0350 -0.9271
42718SOL     OW38467  11.164   0.417   5.611  0.2625  0.0853 -0.2439
42718SOL    HW138468  11.157   0.418   5.515  1.1302 -1.1578 -0.3457
42718SOL    HW238469  11.111   0.343   5.638  0.6311 -0.0322  0.1712
42719SOL     OW38470  11.754  11.676   8.732  0.5034 -0.3627 -0.2366
42719SOL    HW138471  11.739  11.753   8.677 -0.2080  0.1270  0.6163
42719SOL    HW238472  11.776  11.606   8.670  0.6769  0.4042 -1.0611
42720SOL     OW38473   0.339   7.778  11.584 -0.2525 -0.0612 -0.1130
42720SOL    HW138474   0.366   7.847  11.523 -0.4178  1.3843  1.3538
42720SOL    HW238475   0.354   7.696  11.537 -1.6870  0.9983 -2.6020
42721SOL     OW38476  11.917   6.630   5.319  0.0055  0.0836 -0.9185
42721SOL    HW138477  11.875   6.608   5.402 -1.3180  0.6455 -1.4133
42721SOL    HW238478  11.890   6.559   5.260  0.1048  0.2156 -1.1224
42722SOL     OW38479   8.278   9.900  10.207  0.0451  0.1338 -0.1502
42722SOL    HW138480   8.300   9.964  10.139  0.7943 -0.3118 -0.3317
42722SOL    HW238481   8.202   9.853  10.171  0.7601 -0.4571 -0.9256
42723SOL     OW38482   8.095  11.061   1.464  0.0475 -0.3503 -0.2513
42723SOL    HW138483   8.020  11.006   1.486  0.8047 -0.7523  1.5558
42723SOL    HW238484   8.131  11.087   1.549  0.4148  2.0025 -1.0603
42724SOL     OW38485  12.005   0.865   1.152 -0.1227  0.5912  0.0306
42724SOL    HW138486  12.070   0.866   1.082 -0.1068 -0.8570 -0.0037
42724SOL    HW238487  11.921   0.852   1.107  0.1159 -2.8359  0.3509
42725SOL     OW38488  10.210   3.550   6.166  0.5363 -0.0167  0.3022
42725SOL    HW138489  10.298   3.557   6.202  0.1580 -2.8075  2.0905
42725SOL    HW238490  10.219   3.488   6.093  0.3079  1.0215 -0.6291
42726SOL     OW38491   1.468   4.930   1.840  0.4519 -0.2974 -0.1805
42726SOL    HW138492   1.429   5.015   1.857 -0.7825 -0.3695 -2.3616
42726SOL    HW238493   1.401   4.867   1.866 -1.3720 -0.4136 -4.4576
42727SOL     OW38494   2.192   2.392   2.582 -0.4201  0.3994 -0.1280
42727SOL    HW138495   2.143   2.403   2.664 -2.2744 -1.7454 -0.8243
42727SOL    HW238496   2.230   2.304   2.589  0.3950  0.6686 -1.0844
42728SOL     OW38497   9.251   9.971   6.665  0.0674  0.2900 -0.0123
42728SOL    HW138498   9.183  10.035   6.642  1.7971  1.8441 -1.1951
42728SOL    HW238499   9.316  10.022   6.713  1.2601 -0.6949 -0.5353
42729SOL     OW38500   6.706   9.367   8.851  0.1996 -0.4493  0.5068
42729SOL    HW138501   6.742   9.291   8.897 -0.1720 -1.0783 -0.2224
42729SOL    HW238502   6.714   9.346   8.758  0.5392  0.6204  0.2753
42730SOL     OW38503   8.176  10.941   2.765  0.6097 -0.5632  0.2107
42730SOL    HW138504   8.124  11.019   2.744 -2.2770 -2.2738  0.3921
42730SOL    HW238505   8.207  10.957   2.855  1.1332  0.8441 -0.1863
42731SOL     OW38506   6.510  10.250   7.000 -0.0597  0.1342  0.0303
42731SOL    HW138507   6.564  10.181   6.960 -1.3585  0.4355 -2.4914
42731SOL    HW238508   6.571  10.322   7.015  0.5221  0.0500 -1.6481
42732SOL     OW38509   8.158  12.985   8.334  0.2544  0.4987 -0.6510
42732SOL    HW138510   8.133  12.953   8.421 -1.3552 -1.6090 -1.7944
42732SOL    HW238511   8.108  13.067   8.323 -1.5087 -0.5015 -0.5003
42733SOL     OW38512   8.294   4.675   4.469 -0.8262 -0.1668 -0.4122
42733SOL    HW138513   8.234   4.639   4.404 -2.3844  0.7961  0.4365
42733SOL    HW238514   8.275   4.628   4.549 -3.1463  2.5619  0.8076
42734SOL     OW38515   4.561  11.252   6.362  0.0122  0.4266  0.0189
42734SOL    HW138516   4.478  11.270   6.407 -0.0994  1.1724 -0.4686
42734SOL    HW238517   4.628  11.270   6.428 -0.2219 -0.7167  0.5864
42735SOL     OW38518   9.788  10.446  12.575 -0.1593 -0.0712 -0.2904
42735SOL    HW138519   9.735  10.490  12.641  0.3258  0.9722 -0.5800
42735SOL    HW238520   9.812  10.515  12.513 -0.7412 -1.0442 -1.6691
42736SOL     OW38521   2.822   0.277   4.456  0.0392 -0.0626 -0.0034
42736SOL    HW138522   2.897   0.220   4.472 -0.9913 -1.2333  0.8319
42736SOL    HW238523   2.850   0.363   4.488  1.3184 -0.2635 -0.5198
42737SOL     OW38524   4.933   5.287   2.227 -0.4853  0.2009  0.1625
42737SOL    HW138525   4.954   5.194   2.239  0.4758  0.3753 -0.0701
42737SOL    HW238526   5.006   5.334   2.269  2.2986  0.8594 -4.5600
42738SOL     OW38527   0.663   8.814   6.821  0.4160  0.3431 -0.0155
42738SOL    HW138528   0.671   8.754   6.747  2.7183  1.3399 -0.6508
42738SOL    HW238529   0.570   8.811   6.844  0.0560 -1.7147 -1.4590
42739SOL     OW38530   5.579   6.256  10.411 -0.9954  0.1477  0.0423
42739SOL    HW138531   5.592   6.212  10.327 -1.6587  0.7432 -0.3900
42739SOL    HW238532   5.648   6.223  10.467  1.3155  1.8763 -1.6014
42740SOL     OW38533  10.921  10.138  10.283 -0.0152  0.2271  0.1987
42740SOL    HW138534  11.004  10.098  10.310  0.2685  0.4943 -0.2789
42740SOL    HW238535  10.856  10.070  10.300  0.5487 -0.7482 -1.3215
42741SOL     OW38536  12.332   9.369   9.871 -0.1356 -0.2460  0.1567
42741SOL    HW138537  12.373   9.421   9.941 -0.0583  1.3119 -0.9983
42741SOL    HW238538  12.353   9.416   9.791  0.4028 -2.4006 -1.0404
42742SOL     OW38539   8.470  12.401   6.483 -0.1429  0.0631  0.0636
42742SOL    HW138540   8.547  12.348   6.462 -0.0500  1.2307 -3.1220
42742SOL    HW238541   8.494  12.446   6.564  1.1624 -2.0253  0.9302
42743SOL     OW38542  11.322  10.421   1.020 -0.1861 -0.5593 -1.0147
42743SOL    HW138543  11.370  10.436   0.938  0.3509 -0.1841 -0.6366
42743SOL    HW238544  11.244  10.477   1.013 -0.7671 -1.4337 -1.7806
42744SOL     OW38545   9.761   1.623   3.195 -0.0977  0.6113  0.5244
42744SOL    HW138546   9.806   1.539   3.208 -1.1697  0.1172  1.1753
42744SOL    HW238547   9.831   1.688   3.200  1.2694 -0.3699 -2.9614
42745SOL     OW38548   0.994  10.719  12.330 -1.1106 -0.2310 -0.4748
42745SOL    HW138549   1.000  10.668  12.249  0.1551 -0.4841 -0.2513
42745SOL    HW238550   1.085  10.728  12.359 -1.1032  3.0851 -1.0745
42746SOL     OW38551   2.201   1.953  12.829 -0.2681  0.0511  0.4132
42746SOL    HW138552   2.153   1.902  12.894 -0.6305 -0.4478 -0.2326
42746SOL    HW238553   2.146   1.951  12.750  0.6948 -0.3544 -0.2764
42747SOL     OW38554   0.974   8.502   6.054 -0.7735 -0.6918 -0.4384
42747SOL    HW138555   0.998   8.516   6.145 -0.2329 -0.1862 -0.6577
42747SOL    HW238556   0.898   8.559   6.040  1.0785  1.7589 -1.1753
42748SOL     OW38557  12.418   9.354   6.242 -0.0841  0.1719 -0.1274
42748SOL    HW138558  12.430   9.362   6.337  0.9712  0.0807 -0.2461
42748SOL    HW238559  12.504   9.329   6.209 -0.9965 -2.3824 -0.8344
42749SOL     OW38560   1.282   1.623   7.956  0.4340 -0.1843 -0.5035
42749SOL    HW138561   1.314   1.710   7.932  0.1518 -0.1080 -0.5997
42749SOL    HW238562   1.319   1.564   7.890  0.3094 -0.0847 -0.6603
42750SOL     OW38563   1.500   8.672   7.808 -0.1891  0.0646  0.2966
42750SOL    HW138564   1.472   8.674   7.716  2.2018 -0.3472 -0.5153
42750SOL    HW238565   1.423   8.641   7.855 -1.3162 -0.3004 -1.6473
42751SOL     OW38566   7.863   9.402   8.049  0.0308  0.0362  0.1772
42751SOL    HW138567   7.875   9.318   8.093 -0.4791 -1.4250 -2.2963
42751SOL    HW238568   7.950   9.428   8.022  0.2379  0.5289  1.2670
42752SOL     OW38569   0.158   7.646   9.724  0.6143 -0.2361 -0.3383
42752SOL    HW138570   0.163   7.553   9.743  0.5988  0.2439  2.4297
42752SOL    HW238571   0.067   7.669   9.741  1.1098  0.6601  1.4181
42753SOL     OW38572   3.500   2.054   1.240 -0.0602  0.0504 -0.5273
42753SOL    HW138573   3.549   1.993   1.294 -0.3854 -0.4386 -0.7775
42753SOL    HW238574   3.540   2.139   1.258  1.1048 -0.3712 -0.9710
42754SOL     OW38575  11.438   0.643   5.412  0.0778  0.3904  0.4183
42754SOL    HW138576  11.427   0.625   5.505 -2.3929  0.9396  0.2827
42754SOL    HW238577  11.457   0.557   5.373  1.8159  0.2569  1.4579
42755SOL     OW38578   3.768   4.632  12.062  0.3916 -0.2904  0.4942
42755SOL    HW138579   3.681   4.648  12.100  0.3440 -0.1743  0.3383
42755SOL    HW238580   3.765   4.542  12.030 -0.0469  0.0656 -0.5092
42756SOL     OW38581   1.534  10.360   5.415 -0.2120  0.3346 -0.2586
42756SOL    HW138582   1.589  10.304   5.361 -2.9557 -1.3453 -1.5137
42756SOL    HW238583   1.555  10.449   5.386  1.6669 -0.2457 -0.7945
42757SOL     OW38584   3.101  12.840   1.813 -0.5003 -0.7449  0.3021
42757SOL    HW138585   3.139  12.772   1.757 -1.4939 -0.9268 -0.1776
42757SOL    HW238586   3.151  12.919   1.792 -1.5298 -0.5386 -1.6945
42758SOL     OW38587   0.920   4.994   2.919 -0.2773  0.0720 -0.1388
42758SOL    HW138588   0.978   5.036   2.983 -0.0658 -1.3619  0.6515
42758SOL    HW238589   0.976   4.979   2.843  0.1581 -0.4713  0.2796
42759SOL     OW38590   1.010   4.075  12.972  0.0014 -0.2343 -0.1361
42759SOL    HW138591   0.965   4.051  12.890  0.8274 -1.0062 -0.3736
42759SOL    HW238592   0.938   4.093  13.033 -0.6386 -0.6064 -0.7532
42760SOL     OW38593   3.588   1.195   8.132  0.5515 -0.1185 -0.0279
42760SOL    HW138594   3.682   1.180   8.131  0.4351 -0.9551 -1.9597
42760SOL    HW238595   3.574   1.270   8.074 -0.1640 -1.6041 -1.8578
42761SOL     OW38596   1.235   0.265   0.560  0.0215 -1.0023  0.2757
42761SOL    HW138597   1.147   0.262   0.522  0.3179  0.0094 -0.5583
42761SOL    HW238598   1.294   0.250   0.486  0.5845 -0.3920  0.5855
42762SOL     OW38599   2.979   8.496   0.056 -0.4567  0.1990  0.2907
42762SOL    HW138600   3.055   8.520   0.109 -0.8644 -0.2068  1.0743
42762SOL    HW238601   2.956   8.576   0.009  1.8031 -0.2273 -1.7043
42763SOL     OW38602  11.379   4.120   8.447  0.0073 -0.1523  0.6117
42763SOL    HW138603  11.288   4.119   8.417  0.5083  2.2168 -1.2940
42763SOL    HW238604  11.420   4.046   8.403 -0.5251  0.0813 -0.2980
42764SOL     OW38605  11.789   1.988   3.150  0.3126 -0.7462 -0.1571
42764SOL    HW138606  11.776   1.899   3.117  0.6836 -0.6729 -0.5116
42764SOL    HW238607  11.882   2.006   3.135 -0.1917  0.4995 -2.1190
42765SOL     OW38608   4.140   1.473   5.065 -0.0458  0.1850 -0.2338
42765SOL    HW138609   4.166   1.550   5.116 -1.3339  1.4802 -1.4264
42765SOL    HW238610   4.094   1.509   4.989 -0.0659 -1.7524 -1.2147
42766SOL     OW38611  12.756  11.522   2.306  0.1822  0.4340 -1.0823
42766SOL    HW138612  12.752  11.427   2.321  2.2773  0.2335 -1.4628
42766SOL    HW238613  12.665  11.550   2.308 -0.3921 -1.2285  1.3012
42767SOL     OW38614   0.061   7.749   3.175  0.0917  1.1146 -0.1193
42767SOL    HW138615   0.013   7.672   3.147  1.2039 -0.3018  1.6292
42767SOL    HW238616  -0.001   7.821   3.166 -1.3765 -0.1692 -0.6473
42768SOL     OW38617   0.219  12.412  11.778  0.6893  0.4524  0.3490
42768SOL    HW138618   0.182  12.500  11.785 -1.4247 -0.2746 -0.8276
42768SOL    HW238619   0.162  12.367  11.715  2.0881 -1.5723  0.4405
42769SOL     OW38620   7.319   0.529   5.987  0.1855  0.3369 -0.2368
42769SOL    HW138621   7.402   0.501   6.026 -0.4178  0.9691  1.6623
42769SOL    HW238622   7.325   0.624   5.984 -0.7599  0.4550  0.7355
42770SOL     OW38623   2.592   4.125  11.980 -0.3476 -0.0338 -0.3336
42770SOL    HW138624   2.504   4.120  12.018 -0.2045  1.3373  0.2180
42770SOL    HW238625   2.651   4.106  12.053 -0.1013  1.7665 -0.0382
42771SOL     OW38626   2.563   7.696   4.216 -0.4988  0.1242 -0.1616
42771SOL    HW138627   2.576   7.658   4.303  0.4255  1.2897  0.2448
42771SOL    HW238628   2.651   7.726   4.190 -0.4807 -1.4178 -2.1142
42772SOL     OW38629   6.723  11.979   5.683 -0.4499 -0.3758  0.4020
42772SOL    HW138630   6.799  11.965   5.738  0.7410 -0.1021 -1.1106
42772SOL    HW238631   6.655  11.924   5.721  0.2562 -0.0407  2.2308
42773SOL     OW38632   3.138   1.151   3.080 -0.1679 -0.3544 -0.0583
42773SOL    HW138633   3.048   1.177   3.059 -0.2705 -0.5138  0.1869
42773SOL    HW238634   3.179   1.137   2.994  0.2377  1.7691 -0.2676
42774SOL     OW38635   6.073   9.378  11.008 -0.7475  0.1014  0.4947
42774SOL    HW138636   5.981   9.390  11.031 -0.5467  0.6081  1.0707
42774SOL    HW238637   6.097   9.459  10.963 -0.5005  0.1009  0.6251
42775SOL     OW38638   6.034  12.987   6.054  0.3450 -0.0052  1.1059
42775SOL    HW138639   6.008  12.993   5.962  1.6696  1.5049  0.7827
42775SOL    HW238640   5.972  12.924   6.093 -0.4786 -0.3764 -0.7083
42776SOL     OW38641   1.993   3.261   3.479  0.3448  0.1309  0.8042
42776SOL    HW138642   2.067   3.221   3.432  0.9787  0.2526  1.6773
42776SOL    HW238643   1.922   3.197   3.471  0.9300 -0.5545  1.0219
42777SOL     OW38644   9.333   0.384   0.787 -0.1796  0.5794 -0.1898
42777SOL    HW138645   9.421   0.367   0.753 -0.1859  0.3975 -0.1170
42777SOL    HW238646   9.321   0.478   0.777 -1.3841  0.1944 -3.6532
42778SOL     OW38647   2.803  12.598   7.855 -0.3022  0.2508  0.7281
42778SOL    HW138648   2.749  12.640   7.788 -0.1151  0.6707  0.8423
42778SOL    HW238649   2.830  12.669   7.913  0.8217  0.1330  0.3715
42779SOL     OW38650  12.569   8.065   2.087  0.4095 -0.1062 -0.1950
42779SOL    HW138651  12.628   8.000   2.126  0.3284 -0.2797 -0.3606
42779SOL    HW238652  12.482   8.031   2.103  0.2838  0.8305  1.2679
42780SOL     OW38653   7.218   6.523   7.633  0.2758 -0.0625 -0.2250
42780SOL    HW138654   7.196   6.485   7.718  3.9246 -0.6550  0.6645
42780SOL    HW238655   7.163   6.601   7.625 -2.8023 -1.9720  0.8928
42781SOL     OW38656   1.141   4.224   5.243 -0.8426  0.3252  0.3348
42781SOL    HW138657   1.235   4.236   5.226 -0.5379 -1.0389  0.9215
42781SOL    HW238658   1.108   4.312   5.260 -0.1579  1.1599 -2.1816
42782SOL     OW38659  10.830   3.580  10.738  0.1077  0.5615  1.0896
42782SOL    HW138660  10.756   3.639  10.752 -1.1049 -0.8624  1.0442
42782SOL    HW238661  10.861   3.559  10.827 -0.5656 -0.0315  1.1973
42783SOL     OW38662   6.526   0.223   4.370 -0.7446  0.4469 -0.6036
42783SOL    HW138663   6.579   0.264   4.301 -1.2265  1.5752 -0.3216
42783SOL    HW238664   6.441   0.265   4.363 -1.1564 -0.2704 -0.0615
42784SOL     OW38665   4.493   0.614   6.343  0.0317 -0.0644 -0.3850
42784SOL    HW138666   4.492   0.706   6.369  1.1802 -0.6751  2.1255
42784SOL    HW238667   4.407   0.581   6.366  0.1803  0.0074  0.2829
42785SOL     OW38668   4.433  11.809   2.927  0.1310 -0.1378  0.4141
42785SOL    HW138669   4.354  11.860   2.944 -0.4884 -0.7777 -0.4270
42785SOL    HW238670   4.479  11.806   3.010 -0.4352  0.7451  0.7720
42786SOL     OW38671   4.662   6.747   4.613  1.1171  0.2013 -0.1577
42786SOL    HW138672   4.645   6.746   4.707 -0.4062  0.7907 -0.3859
42786SOL    HW238673   4.721   6.822   4.601  1.1890  0.2265  0.3146
42787SOL     OW38674   3.083  12.898   8.491  0.1698 -0.2541  0.0724
42787SOL    HW138675   3.163  12.911   8.543 -0.6504 -0.0386  1.3199
42787SOL    HW238676   3.070  12.981   8.446  0.1628  0.0091  0.5578
42788SOL     OW38677   0.958  11.533   3.552 -0.7360 -0.4966 -0.1762
42788SOL    HW138678   0.916  11.590   3.616  1.0934  1.0031 -0.2265
42788SOL    HW238679   1.016  11.477   3.604 -1.2517 -1.1601 -0.2978
42789SOL     OW38680   0.300   0.495  12.208 -0.1304  0.0379 -0.7397
42789SOL    HW138681   0.308   0.411  12.254  0.8599  0.2394 -0.5368
42789SOL    HW238682   0.237   0.545  12.260  0.4690  0.0079  0.0271
42790SOL     OW38683   0.488   1.209   7.925 -0.0410  0.5861  0.1982
42790SOL    HW138684   0.582   1.225   7.915  0.3560 -0.6339  1.5472
42790SOL    HW238685   0.482   1.147   7.999 -1.7132 -1.5492 -1.5769
42791SOL     OW38686  11.406   5.243   9.114  0.0939 -0.2496 -0.1704
42791SOL    HW138687  11.458   5.267   9.191 -1.5710 -1.2391  1.3460
42791SOL    HW238688  11.452   5.168   9.076 -0.1339 -1.0792  1.1197
42792SOL     OW38689   4.808   4.244   5.819 -0.2040 -0.2759 -0.1509
42792SOL    HW138690   4.740   4.270   5.756  0.0098 -0.7613 -0.5910
42792SOL    HW238691   4.881   4.216   5.764  0.3639  0.2793  0.3242
42793SOL     OW38692   2.744  10.416   6.059  0.4036 -0.3259 -0.0550
42793SOL    HW138693   2.691  10.495   6.072  1.4640  0.3654  0.2685
42793SOL    HW238694   2.822  10.432   6.112  2.7061  0.4366 -3.3339
42794SOL     OW38695   9.620   3.913   7.161 -0.1806  0.0728  0.3947
42794SOL    HW138696   9.641   3.819   7.158 -0.3594  0.0351 -2.1781
42794SOL    HW238697   9.533   3.919   7.122  0.0904  1.3617 -0.0382
42795SOL     OW38698   9.664  12.682   2.809 -0.0346 -0.4364 -0.6936
42795SOL    HW138699   9.694  12.699   2.898  0.2652  1.0243 -1.0438
42795SOL    HW238700   9.739  12.639   2.767  0.2178 -0.1578 -0.5348
42796SOL     OW38701   6.839   3.567   8.922 -0.0353  0.1839 -0.2791
42796SOL    HW138702   6.846   3.502   8.992 -3.2028  0.0383  0.0377
42796SOL    HW238703   6.827   3.516   8.842  1.6476  0.3836 -0.6948
42797SOL     OW38704  10.286  11.688   0.964 -0.2859 -0.5354 -0.6392
42797SOL    HW138705  10.359  11.630   0.942  1.1705  1.6630 -2.0276
42797SOL    HW238706  10.257  11.722   0.879 -1.3571  0.4526  0.0975
42798SOL     OW38707   2.354   1.003   5.972 -0.2610  0.5966  0.1568
42798SOL    HW138708   2.424   1.066   5.991 -0.5399  0.9665 -0.0174
42798SOL    HW238709   2.398   0.919   5.961  0.2718  1.0120 -1.0212
42799SOL     OW38710   6.702   0.360  11.394 -0.6981  0.1741 -0.5139
42799SOL    HW138711   6.759   0.306  11.339 -0.8780 -0.4527 -0.1055
42799SOL    HW238712   6.619   0.312  11.396 -0.1778 -0.7938  1.7404
42800SOL     OW38713   6.112  10.713   9.971 -0.5790  0.1927 -0.0770
42800SOL    HW138714   6.207  10.719   9.966 -0.4607 -1.7259 -1.2254
42800SOL    HW238715   6.085  10.688   9.882 -2.1789  0.8871  0.1767
42801SOL     OW38716   1.020   5.194   3.372 -0.2107 -0.4706  0.3980
42801SOL    HW138717   1.065   5.172   3.453 -1.5568  2.2008  1.9713
42801SOL    HW238718   0.950   5.254   3.398 -0.6406  0.5731 -2.7528
42802SOL     OW38719  10.751   6.699   8.948 -1.1752 -0.5741  0.2494
42802SOL    HW138720  10.802   6.672   8.871 -0.4806 -1.0197  0.8502
42802SOL    HW238721  10.774   6.635   9.016 -0.8346  0.5146  1.1867
42803SOL     OW38722   0.822   9.807   1.029 -0.3049 -0.0051  0.2349
42803SOL    HW138723   0.914   9.833   1.023  0.7575 -3.5005 -1.4533
42803SOL    HW238724   0.777   9.862   0.966  1.2165 -0.1133 -1.0146
42804SOL     OW38725  12.230   3.824  12.406  0.8198  0.9984  0.2355
42804SOL    HW138726  12.283   3.877  12.465 -1.5373  2.3483  1.2511
42804SOL    HW238727  12.236   3.735  12.441  1.8325  1.2449  0.7108
42805SOL     OW38728  12.248   1.453  12.937  0.7801  0.4629 -0.1061
42805SOL    HW138729  12.207   1.501  12.866  1.1500 -2.2290 -2.3046
42805SOL    HW238730  12.201   1.369  12.940 -0.1986  0.9170  3.8565
42806SOL     OW38731   3.956   8.702  11.504 -0.4449 -0.3247  0.1742
42806SOL    HW138732   3.949   8.666  11.592 -0.8505 -2.0865 -0.5401
42806SOL    HW238733   3.958   8.626  11.446 -0.7454  0.7886 -1.3849
42807SOL     OW38734   8.233   0.778   1.250  0.4031  0.5603  0.5877
42807SOL    HW138735   8.319   0.762   1.211 -0.6022  1.1436 -2.1134
42807SOL    HW238736   8.192   0.691   1.252 -0.5792  0.8134 -2.6087
42808SOL     OW38737   8.005  12.794   9.884 -0.4394 -0.0445  0.4043
42808SOL    HW138738   8.062  12.772   9.957 -1.2801 -1.0264  0.7812
42808SOL    HW238739   7.918  12.763   9.910 -0.5624 -1.3911 -1.4214
42809SOL     OW38740   3.710  10.579   2.959 -0.0416 -0.2362 -0.3558
42809SOL    HW138741   3.633  10.542   3.003  1.3587  0.1407  2.7015
42809SOL    HW238742   3.681  10.664   2.926 -1.0613 -0.2717  0.4050
42810SOL     OW38743  11.755   7.952  12.709 -0.1319 -0.1100  0.5127
42810SOL    HW138744  11.771   7.988  12.797 -1.5059  0.2005  0.6592
42810SOL    HW238745  11.688   7.885  12.723 -0.0000 -0.4051 -0.2320
42811SOL     OW38746   4.797   5.653   7.889 -0.2968 -0.1886 -0.1222
42811SOL    HW138747   4.733   5.724   7.902 -1.0495 -0.6105 -1.3637
42811SOL    HW238748   4.881   5.698   7.883 -0.4741  0.3900  1.4074
42812SOL     OW38749   3.510   4.858   5.965  0.3161  0.0057 -0.1263
42812SOL    HW138750   3.546   4.914   6.034  0.3435  0.0672 -0.1898
42812SOL    HW238751   3.584   4.844   5.906  0.0432  0.7641 -0.6693
42813SOL     OW38752  11.612   1.441   9.935 -0.1677  0.3854 -0.1076
42813SOL    HW138753  11.571   1.378   9.875 -1.0503  0.7628  0.0844
42813SOL    HW238754  11.705   1.420   9.931 -0.4922 -1.3277  0.3905
42814SOL     OW38755   1.757   4.421   4.260 -0.1094 -0.1010 -0.5201
42814SOL    HW138756   1.818   4.495   4.262 -1.3910  0.9783 -0.1344
42814SOL    HW238757   1.677   4.457   4.223 -0.8291 -1.2530 -0.1224
42815SOL     OW38758   6.312  10.052   8.599 -0.0458  0.7202 -0.4231
42815SOL    HW138759   6.286  10.056   8.506  0.0447  1.6931 -0.4117
42815SOL    HW238760   6.382   9.987   8.601  0.4528  1.2145 -1.1622
42816SOL     OW38761   8.734   9.140   1.726  0.0238 -0.2535 -0.3295
42816SOL    HW138762   8.753   9.066   1.667 -0.9160 -0.5016 -0.3349
42816SOL    HW238763   8.675   9.103   1.792 -1.3765  0.7604 -0.9834
42817SOL     OW38764   4.175  11.219   6.627  0.1934 -0.1610  0.1444
42817SOL    HW138765   4.099  11.212   6.569 -1.3388  0.3656  1.9481
42817SOL    HW238766   4.140  11.197   6.714  1.9842  0.6940  1.1435
42818SOL     OW38767   8.032   5.148   8.182  0.3923  0.2551 -0.3417
42818SOL    HW138768   8.109   5.101   8.213  0.7120  0.9496 -0.0744
42818SOL    HW238769   7.967   5.136   8.252  1.5312  2.9140  1.3062
42819SOL     OW38770  12.738  11.749  11.788 -0.1647  0.2320  0.0911
42819SOL    HW138771  12.764  11.841  11.784 -0.9025  0.4213 -0.5980
42819SOL    HW238772  12.666  11.746  11.851  0.6737 -0.0954  1.0715
42820SOL     OW38773  10.711   1.384   8.735 -0.1483 -0.9834 -0.1779
42820SOL    HW138774  10.697   1.434   8.655 -0.4017 -0.3746  0.2456
42820SOL    HW238775  10.674   1.438   8.804  0.3275 -1.3733  0.3909
42821SOL     OW38776   9.643   3.200   0.828 -0.1936  0.1191 -0.1817
42821SOL    HW138777   9.639   3.107   0.809  0.7207 -0.0688  0.4625
42821SOL    HW238778   9.557   3.221   0.865  0.1959 -0.8852  1.3913
42822SOL     OW38779  10.609   4.569   8.092 -0.3008 -0.4542  0.1007
42822SOL    HW138780  10.578   4.608   8.174  0.6781  0.8669 -0.1300
42822SOL    HW238781  10.695   4.533   8.114  0.2147  0.4075 -0.4778
42823SOL     OW38782   0.184   1.818   9.464 -0.2413 -0.0773 -0.0932
42823SOL    HW138783   0.250   1.887   9.469 -1.4820  1.2303 -0.7039
42823SOL    HW238784   0.166   1.809   9.370 -0.4720 -0.8655  0.0202
42824SOL     OW38785   7.707   5.609  12.750 -0.3711 -0.0085  0.3504
42824SOL    HW138786   7.683   5.691  12.706 -0.4979 -0.5813 -0.6687
42824SOL    HW238787   7.690   5.541  12.686  1.2995 -0.7040  0.5748
42825SOL     OW38788  11.649  11.000   7.803  0.2149  0.3219  0.1301
42825SOL    HW138789  11.668  10.952   7.884  2.1197 -1.5771 -1.3415
42825SOL    HW238790  11.554  10.992   7.792 -0.0068  0.1696  1.8680
42826SOL     OW38791  11.915   3.660   7.021  0.3798 -0.1421 -0.1904
42826SOL    HW138792  11.963   3.655   6.938 -0.2999  0.4314 -0.6228
42826SOL    HW238793  11.964   3.724   7.073  0.7592 -0.4405 -0.1769
42827SOL     OW38794   8.402   8.252   6.754 -0.1928 -0.8107  0.7293
42827SOL    HW138795   8.485   8.280   6.716  0.2434 -1.4367  1.1912
42827SOL    HW238796   8.419   8.162   6.783 -0.8809 -0.7641  1.2864
42828SOL     OW38797   3.319   0.373   7.570  0.3374  0.5832  0.0752
42828SOL    HW138798   3.355   0.397   7.485  1.0485 -2.3923 -0.5903
42828SOL    HW238799   3.378   0.305   7.602 -1.0349  0.2307  2.0257
42829SOL     OW38800   9.343   8.742   7.816  0.0483  0.6797  0.0155
42829SOL    HW138801   9.264   8.795   7.826 -0.4082 -0.2208  1.6662
42829SOL    HW238802   9.346   8.690   7.896  0.1813 -2.1769 -1.7400
42830SOL     OW38803  10.947   3.281   2.699  0.2287 -0.3671  0.0328
42830SOL    HW138804  10.942   3.207   2.639 -0.1727  0.2450 -0.7105
42830SOL    HW238805  10.979   3.243   2.781  0.7340 -1.2324 -0.5391
42831SOL     OW38806   1.643   8.319   5.279  0.2694 -0.1912  0.1325
42831SOL    HW138807   1.580   8.391   5.286 -0.2536 -0.3253 -2.2416
42831SOL    HW238808   1.595   8.243   5.310 -0.2726 -0.0357 -0.2926
42832SOL     OW38809   2.374  10.498   7.226 -0.0242  0.0979  0.5699
42832SOL    HW138810   2.308  10.551   7.180  1.2174  2.5632  1.4240
42832SOL    HW238811   2.444  10.486   7.162 -0.6666 -1.3376  0.1007
42833SOL     OW38812   0.125  12.779   2.889  0.1316 -0.1553  0.3567
42833SOL    HW138813   0.123  12.853   2.829  1.0598  0.5321  1.1338
42833SOL    HW238814   0.132  12.819   2.976  0.7524 -1.1500  0.7831
42834SOL     OW38815   4.601  10.764   2.095 -0.4165  0.0613  0.4403
42834SOL    HW138816   4.670  10.725   2.149 -0.3864 -2.3181 -1.1726
42834SOL    HW238817   4.629  10.855   2.083  1.3553 -0.2931  1.5438
42835SOL     OW38818  11.896  10.760   2.607 -0.0781  0.0803  0.0082
42835SOL    HW138819  11.899  10.813   2.527 -1.7422 -0.5534 -0.5208
42835SOL    HW238820  11.811  10.779   2.645  0.3897 -0.2115  1.2331
42836SOL     OW38821   9.441   8.404   5.622  0.2158 -0.6617 -0.1160
42836SOL    HW138822   9.389   8.466   5.571 -2.3875  0.6899  3.6966
42836SOL    HW238823   9.407   8.318   5.598 -1.8404  0.0185  0.1618
42837SOL     OW38824   5.662  11.764   6.066 -0.0315 -0.4463  0.8371
42837SOL    HW138825   5.584  11.742   6.016  0.7773 -0.5522 -0.4331
42837SOL    HW238826   5.700  11.679   6.089  0.2228 -0.3998  0.5989
42838SOL     OW38827   9.778   2.199   9.572 -0.1940 -0.3844  0.2778
42838SOL    HW138828   9.730   2.280   9.589  1.6882  0.5809  1.3209
42838SOL    HW238829   9.792   2.161   9.659  0.6716 -0.7651 -0.0166
42839SOL     OW38830   1.598   2.728   6.905 -0.5521 -0.5681 -0.6919
42839SOL    HW138831   1.669   2.667   6.885  0.1857 -0.5489  1.5540
42839SOL    HW238832   1.543   2.680   6.967 -0.1696  0.8699  0.8260
42840SOL     OW38833   2.670   9.178   4.182  0.3443 -0.2554 -0.1523
42840SOL    HW138834   2.647   9.188   4.275  0.1056  1.6125 -0.3831
42840SOL    HW238835   2.597   9.129   4.145 -0.3971  0.4555  0.3274
42841SOL     OW38836  11.243   5.239   9.383  0.0377 -0.1496 -0.2391
42841SOL    HW138837  11.304   5.290   9.436 -2.1699 -0.4288  2.8213
42841SOL    HW238838  11.295   5.165   9.352  1.4568 -0.0303  1.6565
42842SOL     OW38839   4.449   4.089   6.263  0.3248 -0.4038 -0.3013
42842SOL    HW138840   4.409   4.100   6.177  0.3555 -0.6897 -0.3522
42842SOL    HW238841   4.400   4.149   6.320 -1.5813 -2.2536  0.0935
42843SOL     OW38842   4.713   1.722   2.747 -0.0872 -0.4969  0.7048
42843SOL    HW138843   4.666   1.747   2.826  0.0328  1.2521  0.2778
42843SOL    HW238844   4.659   1.755   2.675  0.4589 -0.8853  0.1027
42844SOL     OW38845   0.787   8.750  11.895  0.6974 -0.4104 -0.3264
42844SOL    HW138846   0.769   8.794  11.978  0.2884 -0.2215 -0.5152
42844SOL    HW238847   0.844   8.676  11.919  2.7203  1.1145 -0.1964
42845SOL     OW38848   3.517   5.121   2.945 -0.3351  0.3957 -0.1924
42845SOL    HW138849   3.593   5.069   2.918 -1.0585 -0.5214 -0.5331
42845SOL    HW238850   3.499   5.178   2.870 -0.9038 -0.4831 -0.7489
42846SOL     OW38851   1.995  12.091   0.760  0.0017 -0.6743 -0.3483
42846SOL    HW138852   1.926  12.026   0.766  0.1176 -0.8431 -0.7497
42846SOL    HW238853   1.961  12.168   0.805 -0.7371 -0.5144 -1.1525
42847SOL     OW38854  10.717  10.379   3.236 -0.1599 -0.2797  0.6160
42847SOL    HW138855  10.766  10.462   3.234 -0.2040 -0.2351  1.1144
42847SOL    HW238856  10.647  10.395   3.300 -1.0563 -0.2201 -0.3524
42848SOL     OW38857   3.021   5.484  12.804  0.2114 -0.4726  0.0179
42848SOL    HW138858   3.018   5.466  12.711 -0.4748 -0.9642  0.1267
42848SOL    HW238859   2.931   5.471  12.834 -0.0645  1.7339  0.3769
42849SOL     OW38860   6.083   4.415   1.483  0.0810 -0.1628 -0.1771
42849SOL    HW138861   6.060   4.429   1.575  0.5228  0.0815 -0.1003
42849SOL    HW238862   6.135   4.492   1.459  0.8428 -0.7127 -0.3306
42850SOL     OW38863  11.955   7.356   0.958  0.4403  0.2250  0.0405
42850SOL    HW138864  11.911   7.274   0.934 -1.3233  0.1910  2.8859
42850SOL    HW238865  12.047   7.341   0.939  0.0990 -2.2662  0.0811
42851SOL     OW38866   5.368   4.287   5.918  0.6646 -0.0248  0.1500
42851SOL    HW138867   5.288   4.240   5.939  0.5720 -0.0284 -0.2026
42851SOL    HW238868   5.378   4.277   5.823  0.2440  1.2846 -0.0521
42852SOL     OW38869  12.043   3.230   1.066 -0.3526  0.3184 -0.0132
42852SOL    HW138870  12.074   3.141   1.088 -1.6515 -0.6343 -1.8327
42852SOL    HW238871  11.949   3.226   1.080 -0.5502  1.1052 -1.0455
42853SOL     OW38872   4.977   8.247  10.928  0.4280 -0.3343 -0.3886
42853SOL    HW138873   4.914   8.314  10.901  1.2713  0.9345  0.6869
42853SOL    HW238874   5.062   8.287  10.915  0.9193 -0.1341  2.6785
42854SOL     OW38875  12.408   3.520   0.719 -0.4851  0.4447  0.1139
42854SOL    HW138876  12.365   3.580   0.781 -0.9747  0.7645 -0.5159
42854SOL    HW238877  12.491   3.498   0.761 -1.6453 -0.9834  1.8377
42855SOL     OW38878   6.818   7.140   6.518 -0.0336  0.1003 -0.1070
42855SOL    HW138879   6.798   7.223   6.562  1.1985  0.0738  0.5409
42855SOL    HW238880   6.875   7.164   6.445 -1.1141  0.0016 -1.0198
42856SOL     OW38881   7.588   5.642   2.359 -0.4383 -0.2163 -0.1656
42856SOL    HW138882   7.495   5.618   2.359 -0.5584  0.2258 -0.9012
42856SOL    HW238883   7.588   5.737   2.375 -0.0763 -0.3210  0.4926
42857SOL     OW38884   1.786  10.393   4.429  0.4163 -0.0492  0.3903
42857SOL    HW138885   1.697  10.404   4.396  0.3773 -2.1050 -0.3814
42857SOL    HW238886   1.781  10.315   4.484  1.9702 -1.0187 -0.7404
42858SOL     OW38887  12.115   3.635   0.849  0.3351 -0.1087 -0.1129
42858SOL    HW138888  12.042   3.691   0.878  0.2323 -0.8675  1.1701
42858SOL    HW238889  12.072   3.559   0.811  0.4172 -0.8800  1.2761
42859SOL     OW38890  12.247   6.761   8.473 -0.4543 -0.3675  0.4192
42859SOL    HW138891  12.272   6.742   8.564 -0.3783 -0.9856  0.2719
42859SOL    HW238892  12.271   6.682   8.425  0.1536  0.2179 -0.2704
42860SOL     OW38893   2.702   1.552   5.814 -0.6040 -0.2781 -0.0834
42860SOL    HW138894   2.796   1.572   5.813 -0.9719  1.6833  0.2843
42860SOL    HW238895   2.694   1.478   5.874  0.6083  0.1617  0.6636
42861SOL     OW38896   0.555   7.322   0.073 -0.4373  0.2231  0.0027
42861SOL    HW138897   0.643   7.290   0.054 -0.5841 -0.8820  1.1036
42861SOL    HW238898   0.504   7.244   0.096 -0.9056  1.1310  2.3827
42862SOL     OW38899  11.822   1.912  10.686  0.0727 -0.1519  0.4651
42862SOL    HW138900  11.752   1.899  10.749  0.8457 -1.0323  1.1606
42862SOL    HW238901  11.789   1.981  10.627 -1.1257 -0.1551  1.1120
42863SOL     OW38902   7.320  11.659  10.003 -0.0206 -0.0207  0.6230
42863SOL    HW138903   7.226  11.672  10.014  0.1356  1.3292  0.5470
42863SOL    HW238904   7.342  11.588  10.064 -1.5555 -2.5330 -1.4995
42864SOL     OW38905   5.523  12.914  11.958 -0.0817  0.1602 -0.3112
42864SOL    HW138906   5.588  12.921  12.027  0.2512 -1.7693 -0.3791
42864SOL    HW238907   5.522  13.001  11.917  0.5883  0.9747  1.2968
42865SOL     OW38908   5.452  11.932   8.947  0.7542 -0.1427  0.3289
42865SOL    HW138909   5.514  11.962   9.013  1.9015  0.2968 -0.9120
42865SOL    HW238910   5.469  11.838   8.938  0.6841 -0.1776  0.5547
42866SOL     OW38911   4.083  10.871   1.816  0.1157  0.0656 -0.1159
42866SOL    HW138912   4.012  10.913   1.767  0.9798  0.7490 -0.8005
42866SOL    HW238913   4.105  10.793   1.764  0.0548  0.0082 -0.0551
42867SOL     OW38914   4.701   3.424   4.786  0.2915 -0.2023 -0.2778
42867SOL    HW138915   4.679   3.366   4.713  3.4863 -0.3275 -1.2573
42867SOL    HW238916   4.745   3.499   4.745  0.9116  0.3975  1.4033
42868SOL     OW38917   9.306   8.267   4.170 -0.0453 -0.4637  0.2228
42868SOL    HW138918   9.376   8.293   4.110 -1.2666  0.2005 -0.9594
42868SOL    HW238919   9.244   8.219   4.116 -0.4010 -1.2640  1.3038
42869SOL     OW38920   7.491   8.503   7.696  0.6409 -0.6927 -0.3819
42869SOL    HW138921   7.463   8.536   7.611  1.1005 -2.0160 -1.0696
42869SOL    HW238922   7.416   8.519   7.753  0.5185  0.6887 -0.8826
42870SOL     OW38923   4.322   5.751  10.144 -0.4452 -0.0518 -0.2229
42870SOL    HW138924   4.250   5.776  10.086 -0.7726  0.9807  0.5774
42870SOL    HW238925   4.388   5.819  10.131 -0.7913  0.5631  1.0365
42871SOL     OW38926   1.032   9.886   0.110 -0.1883  0.5768  0.1087
42871SOL    HW138927   1.071   9.961   0.154  2.3701  0.8807 -2.3698
42871SOL    HW238928   1.063   9.892   0.019 -1.7993 -2.1989 -0.7686
42872SOL     OW38929   4.820   3.170   4.862 -0.4575  0.0321  0.2018
42872SOL    HW138930   4.820   3.170   4.957 -0.7660 -0.1616  0.2026
42872SOL    HW238931   4.789   3.258   4.838  0.3514  0.3396  0.2766
42873SOL     OW38932  10.717   7.045  11.748  0.5666 -0.2015 -0.1739
42873SOL    HW138933  10.770   6.967  11.763 -0.1705 -0.8611 -0.8816
42873SOL    HW238934  10.663   7.054  11.826  0.7561 -0.3159 -0.0306
42874SOL     OW38935   6.009   0.929  12.904  0.1583 -0.0960 -0.4076
42874SOL    HW138936   6.008   1.021  12.877  1.1545 -0.0240 -0.2403
42874SOL    HW238937   6.094   0.896  12.874  0.3003 -0.6456  0.5452
42875SOL     OW38938   9.846   8.769   5.796 -0.3887  0.1179 -0.7380
42875SOL    HW138939   9.777   8.776   5.730 -0.3719 -0.5786 -0.8352
42875SOL    HW238940   9.924   8.746   5.746 -0.3628 -0.3583 -0.4836
42876SOL     OW38941   8.935   6.390   5.513 -0.2703 -0.4396  0.5143
42876SOL    HW138942   8.913   6.409   5.604  2.7668 -1.3453  1.5657
42876SOL    HW238943   8.896   6.304   5.495 -2.5474  0.5939  0.2289
42877SOL     OW38944   7.710  11.018   7.550  0.5412  0.0194  0.0145
42877SOL    HW138945   7.664  10.934   7.553 -0.5943  0.5355 -1.6393
42877SOL    HW238946   7.757  11.016   7.467  2.1054  0.2476  0.8717
42878SOL     OW38947   8.942   9.259   5.051 -0.1883 -0.4164 -0.2810
42878SOL    HW138948   8.898   9.329   5.003  2.8780  2.5394  0.8139
42878SOL    HW238949   8.998   9.217   4.985 -0.7334 -0.6910 -0.5751
42879SOL     OW38950   0.517   6.720   9.498 -0.6094  0.3643  0.2407
42879SOL    HW138951   0.452   6.757   9.438 -1.3585 -1.1421  0.0787
42879SOL    HW238952   0.472   6.716   9.583 -0.5052 -0.0795  0.2771
42880SOL     OW38953   3.622   5.914  12.603  0.1465  1.0284  1.0334
42880SOL    HW138954   3.603   5.875  12.518 -1.2900 -1.1703  2.2731
42880SOL    HW238955   3.716   5.898  12.616 -0.0501 -0.5140  0.7404
42881SOL     OW38956  12.111   5.336   3.052  0.3489  0.0246  0.0099
42881SOL    HW138957  12.029   5.330   3.102  0.1103  1.1997 -0.2034
42881SOL    HW238958  12.176   5.365   3.116  0.7337 -1.3528  0.2861
42882SOL     OW38959   4.679  12.817   9.474  0.1731  0.3908 -0.1964
42882SOL    HW138960   4.587  12.793   9.461  0.5404 -0.4954 -1.2414
42882SOL    HW238961   4.720  12.738   9.510  0.6212  0.6447 -0.1455
42883SOL     OW38962   1.167   5.019   6.002 -0.1722 -0.1860 -0.1545
42883SOL    HW138963   1.093   5.028   6.062 -1.5062 -0.4189 -1.7049
42883SOL    HW238964   1.187   4.926   6.003  1.2583  0.0874  1.5388
42884SOL     OW38965   2.549  10.476   9.176 -0.2417 -0.0890 -0.3612
42884SOL    HW138966   2.455  10.477   9.156 -0.5149 -0.6137  0.8432
42884SOL    HW238967   2.588  10.423   9.106 -0.8771 -0.0815 -0.7256
42885SOL     OW38968   7.156   6.605   2.083 -0.6212 -0.1567  0.4181
42885SOL    HW138969   7.159   6.531   2.022 -1.6519 -0.8645  1.1950
42885SOL    HW238970   7.166   6.682   2.028 -0.7443 -0.8179 -0.5521
42886SOL     OW38971  12.595   9.649   9.370 -0.5028 -0.1074  0.3460
42886SOL    HW138972  12.635   9.576   9.323  1.1979  1.7676 -1.2927
42886SOL    HW238973  12.531   9.685   9.308  0.9389  1.6776 -0.1796
42887SOL     OW38974  12.533   3.610  11.510 -0.3211  0.2115 -0.4546
42887SOL    HW138975  12.503   3.694  11.475 -1.0271 -0.4554 -1.4935
42887SOL    HW238976  12.517   3.617  11.605  1.2811  1.9045 -0.2469
42888SOL     OW38977   3.471   9.810   4.362  0.0781 -0.4433  0.2687
42888SOL    HW138978   3.528   9.734   4.371  0.6176 -0.2385 -1.2085
42888SOL    HW238979   3.415   9.791   4.287 -0.2436  0.3341  0.2930
42889SOL     OW38980  11.124   5.969  12.673 -0.7455 -0.2471 -0.0539
42889SOL    HW138981  11.212   5.954  12.638 -0.6816  0.8328 -0.3906
42889SOL    HW238982  11.128   6.057  12.712 -0.8305 -1.3403  2.6364
42890SOL     OW38983   1.873   4.691   3.744 -0.4453 -0.0471 -1.1348
42890SOL    HW138984   1.876   4.651   3.657  1.8241 -2.8034  0.0109
42890SOL    HW238985   1.847   4.619   3.802 -0.9692  1.4623  0.5845
42891SOL     OW38986   4.385  10.683  12.180  0.7213 -0.2666  0.0147
42891SOL    HW138987   4.292  10.662  12.175  0.4137  0.6501  1.1831
42891SOL    HW238988   4.403  10.732  12.099  0.3470 -0.9674 -0.5006
42892SOL     OW38989   1.346   4.431  12.345 -0.0611  0.5664 -0.4939
42892SOL    HW138990   1.299   4.498  12.394  1.7734 -0.2812  2.7858
42892SOL    HW238991   1.438   4.457  12.350  0.6142 -1.6608  0.1258
42893SOL     OW38992  12.358   3.497  10.072 -0.1708 -0.4019  0.4068
42893SOL    HW138993  12.372   3.516  10.165 -1.6400  1.1328  0.3631
42893SOL    HW238994  12.264   3.481  10.066  0.1933 -2.3357 -0.5397
42894SOL     OW38995   9.712   3.043   2.795 -0.1991  0.0487 -0.0767
42894SOL    HW138996   9.760   2.986   2.855  2.7525  2.1374 -0.2647
42894SOL    HW238997   9.655   2.983   2.747  2.2046 -2.6902  0.1581
42895SOL     OW38998   8.793  11.954   7.506  0.2063 -0.0407 -0.4998
42895SOL    HW138999   8.884  11.925   7.516  1.2271  1.0864 -4.6937
42895SOL    HW239000   8.748  11.879   7.468  0.3891  0.5757 -1.9929
42896SOL     OW39001   2.549   9.699   9.444  0.1851 -0.0906 -0.2121
42896SOL    HW139002   2.606   9.711   9.520  1.4384 -0.2632 -1.0945
42896SOL    HW239003   2.578   9.616   9.405 -1.8839 -1.1317  0.3247
42897SOL     OW39004   6.548   2.987   9.784  0.1700 -0.1582  0.5617
42897SOL    HW139005   6.564   3.078   9.806  1.1449 -0.4080  0.9349
42897SOL    HW239006   6.591   2.974   9.700 -1.3348  0.1205 -0.2922
42898SOL     OW39007   9.441  11.296   0.045  0.7096  0.2204  0.2531
42898SOL    HW139008   9.411  11.353   0.116  1.6035 -0.7574  1.4619
42898SOL    HW239009   9.508  11.240   0.086  2.0520  0.3650 -1.6121
42899SOL     OW39010   3.570  12.027  10.270 -0.3527  0.0491 -0.1058
42899SOL    HW139011   3.534  11.956  10.217  1.4287 -0.0674 -1.2411
42899SOL    HW239012   3.662  12.032  10.244  0.7854 -0.3650  3.4027
42900SOL     OW39013   3.071   8.470   3.596  0.2478 -0.6699 -0.4558
42900SOL    HW139014   3.008   8.402   3.619 -1.6146  1.0973 -0.0377
42900SOL    HW239015   3.018   8.540   3.556  2.2124  0.0987 -1.8969
42901SOL     OW39016  10.238   1.070  12.814 -0.0536  0.0713  0.5611
42901SOL    HW139017  10.284   1.109  12.889  1.4234 -0.1681 -0.1762
42901SOL    HW239018  10.262   1.126  12.740  0.8325 -1.2778 -0.2242
42902SOL     OW39019   0.420   4.515  10.781  0.1832 -0.6318 -0.0181
42902SOL    HW139020   0.507   4.539  10.751  0.2622  1.5458  1.6844
42902SOL    HW239021   0.433   4.483  10.871 -0.7080 -0.6784  0.1074
42903SOL     OW39022   3.555   9.680   9.083  0.4939  0.2699  0.0994
42903SOL    HW139023   3.622   9.719   9.139 -0.0821 -0.9565  1.7174
42903SOL    HW239024   3.601   9.612   9.034  0.6103  0.0132  0.5624
42904SOL     OW39025   2.634   7.258   9.067  0.4543  0.0993  0.7708
42904SOL    HW139026   2.566   7.269   9.134  0.4622  1.4339  0.5951
42904SOL    HW239027   2.623   7.334   9.010  2.1129  0.3671  0.7560
42905SOL     OW39028   0.534   7.636   4.734  0.9336 -0.1436 -0.6796
42905SOL    HW139029   0.491   7.692   4.669 -0.3845  0.4658  0.6501
42905SOL    HW239030   0.462   7.606   4.790  2.1897  0.7686  1.5476
42906SOL     OW39031   3.008   6.555   7.350 -0.7342  0.2098 -0.5154
42906SOL    HW139032   2.959   6.631   7.318 -0.6465  0.3404 -0.3382
42906SOL    HW239033   3.003   6.492   7.278 -0.5108  0.5128 -0.8009
42907SOL     OW39034   3.571   2.591   0.474 -0.3380 -0.0341 -0.4371
42907SOL    HW139035   3.555   2.499   0.491 -1.8941  0.5475  1.8017
42907SOL    HW239036   3.512   2.613   0.402  0.5105 -0.8935 -1.4176
42908SOL     OW39037   3.600   9.456   1.170  0.6575  0.1543 -0.5199
42908SOL    HW139038   3.546   9.378   1.179 -1.0549  1.2906 -0.4694
42908SOL    HW239039   3.681   9.425   1.129  0.0612 -1.6320 -0.4250
42909SOL     OW39040   4.333  10.368   8.624  0.1161 -0.1276 -0.7090
42909SOL    HW139041   4.349  10.346   8.716 -1.3795  1.2975 -0.0656
42909SOL    HW239042   4.414  10.411   8.596  0.3101  0.1166  0.1864
42910SOL     OW39043  11.651  11.687  10.330  0.0234  0.4122  0.1744
42910SOL    HW139044  11.685  11.655  10.246 -0.0070  1.6200 -0.3277
42910SOL    HW239045  11.556  11.691  10.317  0.0056  0.4400  0.3200
42911SOL     OW39046  12.757   1.210   4.810  0.1989 -0.2507  0.1274
42911SOL    HW139047  12.698   1.166   4.748  0.7228  0.0787 -0.6155
42911SOL    HW239048  12.742   1.303   4.795 -1.5086 -0.0889  2.2557
42912SOL     OW39049   5.169  10.064   0.796 -0.3704  0.2279 -0.3563
42912SOL    HW139050   5.079  10.053   0.766 -0.2648  0.7894 -0.8827
42912SOL    HW239051   5.189  10.156   0.780 -0.3776  0.6153  1.6121
42913SOL     OW39052  10.703   4.562   0.924  0.4711  0.0734 -0.1098
42913SOL    HW139053  10.754   4.627   0.972 -1.6454  0.9647  1.0777
42913SOL    HW239054  10.688   4.602   0.838  0.4670  0.4958  0.0834
42914SOL     OW39055   4.176   3.021   8.396 -0.2006  0.6830  0.1083
42914SOL    HW139056   4.102   3.063   8.351 -2.4057 -1.0128  1.8776
42914SOL    HW239057   4.181   3.065   8.481 -0.8023 -0.7447  0.9289
42915SOL     OW39058  10.882   9.409   9.121 -0.0572 -0.0798 -0.1795
42915SOL    HW139059  10.938   9.480   9.151  1.2696 -2.1056  2.6291
42915SOL    HW239060  10.940   9.333   9.118 -1.5225 -1.2054 -2.5636
42916SOL     OW39061   2.786   6.056   0.319 -0.4553  0.4678 -0.0861
42916SOL    HW139062   2.751   6.132   0.365 -1.0578 -1.5555  3.1842
42916SOL    HW239063   2.732   5.983   0.350  0.1790 -1.3566 -2.9356
42917SOL     OW39064  10.530   9.135   2.855  0.3398  0.1715  0.7697
42917SOL    HW139065  10.497   9.071   2.918 -0.6112 -0.0612  0.0585
42917SOL    HW239066  10.451   9.173   2.815  0.8256 -1.6434 -2.2298
42918SOL     OW39067  11.321   1.579   0.936 -0.8818  0.4253  0.4285
42918SOL    HW139068  11.301   1.528   0.857 -0.4494  1.4980 -0.3919
42918SOL    HW239069  11.238   1.623   0.957 -1.4397 -1.0464  1.5110
42919SOL     OW39070   3.253  10.153  11.452  0.2442  0.4767 -0.3255
42919SOL    HW139071   3.184  10.135  11.516 -1.1672  0.8594 -1.7020
42919SOL    HW239072   3.252  10.077  11.393  0.5589  0.7871 -0.7346
42920SOL     OW39073   9.342   4.939   6.569 -0.4328  0.9448 -0.1197
42920SOL    HW139074   9.283   4.907   6.501 -0.0705  0.6607 -0.3025
42920SOL    HW239075   9.288   4.942   6.648 -0.2280 -1.1760  0.1696
42921SOL     OW39076  12.038   7.608   8.293 -0.2213  0.2264 -0.1406
42921SOL    HW139077  12.014   7.516   8.284  2.3222 -0.3694 -1.9235
42921SOL    HW239078  11.991   7.652   8.222 -1.2300  0.2998  0.5495
42922SOL     OW39079   7.056   8.630  10.480 -0.4889  0.6750 -0.2989
42922SOL    HW139080   7.090   8.577  10.408  0.3101  2.7148 -1.4905
42922SOL    HW239081   6.974   8.666  10.447 -0.5814  0.8989  0.1677
42923SOL     OW39082   9.816   8.161   7.623 -0.1907  0.1476  0.3894
42923SOL    HW139083   9.860   8.178   7.540 -0.2440  1.4797  0.6202
42923SOL    HW239084   9.725   8.145   7.599 -0.2941  0.9550  0.2140
42924SOL     OW39085   9.435  11.650   9.796 -0.0798  0.7884  0.4742
42924SOL    HW139086   9.488  11.649   9.717 -0.4106 -0.6588  0.2320
42924SOL    HW239087   9.366  11.714   9.779  0.4801  1.2829  0.0404
42925SOL     OW39088   5.792   3.022   0.380 -0.5027 -0.3211 -0.8272
42925SOL    HW139089   5.801   2.981   0.466 -1.5481  0.6868 -0.2066
42925SOL    HW239090   5.857   3.092   0.380 -0.1948 -0.6023 -1.0467
42926SOL     OW39091   5.378   5.479   3.913  0.6792 -0.6365  0.1985
42926SOL    HW139092   5.297   5.466   3.963  0.6053 -1.2778 -0.0871
42926SOL    HW239093   5.349   5.488   3.823  0.6123  2.5330  0.4305
42927SOL     OW39094   4.839   4.954   3.177  0.2351  0.2197 -0.0120
42927SOL    HW139095   4.791   4.871   3.178 -1.6492  1.2439  1.8264
42927SOL    HW239096   4.771   5.021   3.166  1.3247  1.6619  1.5122
42928SOL     OW39097   4.267   7.276   8.754  0.2208  0.2599  0.4169
42928SOL    HW139098   4.351   7.240   8.726 -0.8642 -1.5979 -0.6227
42928SOL    HW239099   4.222   7.299   8.673 -0.8576 -0.1925  0.8643
42929SOL     OW39100  12.072   7.137  11.574 -0.5747  0.7876 -0.8424
42929SOL    HW139101  12.113   7.223  11.576 -1.4376  1.2178 -1.2822
42929SOL    HW239102  12.094   7.099  11.659  0.4934  1.1050 -0.9616
42930SOL     OW39103   6.176  11.284  12.844  0.3492  0.1974 -0.3818
42930SOL    HW139104   6.127  11.323  12.771 -1.5657  0.7828  1.1265
42930SOL    HW239105   6.203  11.198  12.811 -2.1903 -0.3805 -1.1862
42931SOL     OW39106   3.795   9.636   0.599  0.2935 -0.5426  0.0890
42931SOL    HW139107   3.799   9.561   0.659  0.8034 -0.5628  0.0354
42931SOL    HW239108   3.702   9.643   0.577  0.0256 -0.2559  1.2224
42932SOL     OW39109   3.496   4.517   6.664  0.4972  0.2973 -0.1708
42932SOL    HW139110   3.511   4.611   6.659 -0.0183  0.3306 -1.8622
42932SOL    HW239111   3.424   4.507   6.726 -0.6358  1.2067 -1.2725
42933SOL     OW39112   9.578   2.098   9.881 -0.4177  0.2672 -0.0193
42933SOL    HW139113   9.668   2.118   9.906 -0.8010  0.7181  1.0672
42933SOL    HW239114   9.544   2.045   9.953 -0.3130 -1.9795 -1.5340
42934SOL     OW39115   4.686   9.165   2.606 -0.1609 -0.4015  0.4365
42934SOL    HW139116   4.646   9.213   2.534  0.4939  0.9136  0.9133
42934SOL    HW239117   4.620   9.100   2.631 -0.9983  0.1153 -0.3563
42935SOL     OW39118   7.798   0.820  10.948 -0.5249  0.3862 -0.0874
42935SOL    HW139119   7.703   0.813  10.941 -0.6375  2.2165 -0.7134
42935SOL    HW239120   7.814   0.859  11.034 -0.2580 -0.7399  0.4025
42936SOL     OW39121   5.642   9.233   6.456  0.6853  0.0640  0.3159
42936SOL    HW139122   5.700   9.305   6.433 -0.6093  1.5961  1.5867
42936SOL    HW239123   5.684   9.191   6.531  0.9869  0.0718  0.1520
42937SOL     OW39124   2.425  12.288   5.369 -0.6270  0.5927  0.0941
42937SOL    HW139125   2.330  12.276   5.364 -0.8132  1.8349  0.2309
42937SOL    HW239126   2.454  12.294   5.278 -0.3759 -1.6687 -0.0317
42938SOL     OW39127   7.606   8.133   8.329 -0.8640 -0.3615 -0.0293
42938SOL    HW139128   7.561   8.213   8.303  0.2619 -0.2858 -1.9847
42938SOL    HW239129   7.646   8.154   8.414 -1.9145  0.5776  0.2544
42939SOL     OW39130   7.483   2.321   4.214 -0.4250 -0.1035  0.0296
42939SOL    HW139131   7.488   2.255   4.145  1.7755 -0.6242  0.6131
42939SOL    HW239132   7.540   2.392   4.183 -1.2146  0.6760  0.3131
42940SOL     OW39133   3.454   6.816  11.749 -0.2202 -0.0050 -0.4156
42940SOL    HW139134   3.382   6.878  11.759 -1.4130 -1.2628 -0.8232
42940SOL    HW239135   3.420   6.749  11.690  1.1807 -0.8176 -0.3568
42941SOL     OW39136   7.398   0.519   2.120  0.1297  0.4859 -0.0640
42941SOL    HW139137   7.422   0.609   2.141  2.6774 -0.1784  0.1268
42941SOL    HW239138   7.445   0.499   2.039 -0.8368 -0.5312 -0.4134
42942SOL     OW39139  10.328   9.395   1.015  0.5033  0.1815 -0.7595
42942SOL    HW139140  10.263   9.445   0.966  0.6996  0.1898 -1.0157
42942SOL    HW239141  10.350   9.451   1.090  2.0813  1.3360 -2.0075
42943SOL     OW39142   1.350   5.797   7.317 -0.2724 -0.1949 -0.2443
42943SOL    HW139143   1.439   5.764   7.311 -0.9799 -2.0393 -1.2890
42943SOL    HW239144   1.358   5.879   7.367  2.0210 -0.1320 -0.6146
42944SOL     OW39145   0.882   6.827   9.192  0.6686 -0.0318 -0.2865
42944SOL    HW139146   0.875   6.764   9.263  0.2660  0.5592  0.2100
42944SOL    HW239147   0.891   6.912   9.236  0.0634  0.3815 -0.9391
42945SOL     OW39148   4.137   0.495   9.277 -0.0328  0.5113  0.6471
42945SOL    HW139149   4.051   0.504   9.235  1.0957 -0.4589 -2.0657
42945SOL    HW239150   4.118   0.452   9.361 -2.1392 -0.2714 -0.1739
42946SOL     OW39151   5.731   9.604   2.704 -0.6132 -0.4153 -0.5457
42946SOL    HW139152   5.658   9.655   2.668  1.0040  0.6058 -2.6398
42946SOL    HW239153   5.791   9.670   2.739  0.2959 -1.0424 -0.8812
42947SOL     OW39154   1.157   9.285   1.882  0.5908  0.1483 -0.2725
42947SOL    HW139155   1.093   9.258   1.817  0.8275 -0.6506 -0.1787
42947SOL    HW239156   1.233   9.314   1.831 -0.7990  3.8513 -0.5239
42948SOL     OW39157   4.134   0.381   4.689  0.0902  1.3267 -0.0594
42948SOL    HW139158   4.180   0.455   4.729 -0.1963  1.8648 -0.6917
42948SOL    HW239159   4.106   0.414   4.603 -0.1609  0.5242 -0.2988
42949SOL     OW39160   6.384  12.157   1.276 -0.3496 -0.2313  0.4998
42949SOL    HW139161   6.451  12.104   1.233  0.1121  1.2274 -0.6826
42949SOL    HW239162   6.332  12.194   1.204 -0.7655  0.7587  1.2685
42950SOL     OW39163   6.698   0.236  12.745 -0.6786  0.4414  0.7070
42950SOL    HW139164   6.731   0.157  12.787  0.0987  0.2036 -0.3171
42950SOL    HW239165   6.673   0.208  12.657 -0.8750  1.2356  0.4998
42951SOL     OW39166   0.238   4.493   8.309 -1.0894  0.0718 -0.0351
42951SOL    HW139167   0.280   4.577   8.297 -0.2767 -0.1214  1.2722
42951SOL    HW239168   0.227   4.458   8.220 -0.6896  1.1763 -0.5299
42952SOL     OW39169  12.624   2.188   6.032  0.1706 -0.0271 -0.7520
42952SOL    HW139170  12.595   2.097   6.043  1.3997 -0.2331  1.7192
42952SOL    HW239171  12.717   2.181   6.014  0.5125  0.6989  0.5412
42953SOL     OW39172   1.120   5.249   0.271  0.4879  0.5875 -0.0406
42953SOL    HW139173   1.160   5.161   0.268  1.0854  0.8765 -1.0087
42953SOL    HW239174   1.033   5.234   0.307  0.7645 -0.3432  0.2763
42954SOL     OW39175  10.833   4.264   7.656 -0.6433  0.2437 -0.0401
42954SOL    HW139176  10.866   4.206   7.724  1.2129  1.7124  0.3914
42954SOL    HW239177  10.794   4.337   7.703 -1.8141 -0.0047 -0.5822
42955SOL     OW39178   5.449   4.633   4.115 -0.4260  0.6324 -0.3574
42955SOL    HW139179   5.428   4.595   4.030 -1.1403  1.1851 -0.4386
42955SOL    HW239180   5.544   4.640   4.115 -0.2587 -1.1987 -0.3076
42956SOL     OW39181   8.985  12.067   4.047  0.2821  0.9200 -0.4267
42956SOL    HW139182   8.981  12.159   4.074  0.5687  0.7967  0.0555
42956SOL    HW239183   9.078  12.048   4.040  0.2584  0.3756  0.5322
42957SOL     OW39184  12.637   6.334   0.711  0.3499 -0.4558  0.3265
42957SOL    HW139185  12.661   6.246   0.742  0.2900  0.2014  2.3695
42957SOL    HW239186  12.575   6.318   0.640  0.7879 -2.0645  0.2598
42958SOL     OW39187   9.591  12.376   0.992  0.1662 -0.0166  0.1937
42958SOL    HW139188   9.601  12.296   0.940 -1.1465  0.5430 -0.9831
42958SOL    HW239189   9.631  12.355   1.076 -0.7560 -2.1661  0.1605
42959SOL     OW39190   1.356   2.187   5.289  0.3748  0.2888  0.0195
42959SOL    HW139191   1.356   2.230   5.204  3.3061 -0.3485 -0.4082
42959SOL    HW239192   1.401   2.248   5.348  1.9019 -0.8459  0.1090
42960SOL     OW39193   8.936   0.029   8.155  0.0035 -0.3079 -0.5277
42960SOL    HW139194   9.024  -0.006   8.141  0.0863 -0.5534  0.4851
42960SOL    HW239195   8.946   0.094   8.225 -0.2005  1.6156 -2.1986
42961SOL     OW39196   1.088   0.297  12.935 -0.4479  0.2527  0.4615
42961SOL    HW139197   1.035   0.240  12.879  0.9234  0.1691 -0.7988
42961SOL    HW239198   1.124   0.240  13.002  0.6151 -0.3135 -0.5721
42962SOL     OW39199   0.040   4.435  11.488  0.2464 -0.2875 -0.3927
42962SOL    HW139200   0.069   4.446  11.579 -0.5884  2.2199 -0.3473
42962SOL    HW239201   0.101   4.489  11.437 -0.4174 -0.1892 -1.0947
42963SOL     OW39202   1.593   5.704   6.743 -0.0458  0.1985 -0.2027
42963SOL    HW139203   1.605   5.631   6.803 -3.2518 -0.1661  0.1576
42963SOL    HW239204   1.660   5.692   6.676  2.3482 -0.4874  2.1753
42964SOL     OW39205   0.565   5.562   6.025  0.0577  0.1664  0.1050
42964SOL    HW139206   0.628   5.494   6.048  0.3871  0.3401 -0.2723
42964SOL    HW239207   0.585   5.634   6.086  0.7172  0.5023 -0.4865
42965SOL     OW39208   2.217   0.214   8.959  0.1855  0.0704  0.1687
42965SOL    HW139209   2.132   0.232   8.919 -0.0108  0.9795  0.9403
42965SOL    HW239210   2.201   0.141   9.018  0.5362 -1.4488 -1.5419
42966SOL     OW39211   8.333   2.314  11.788  0.1661 -0.0311 -0.6075
42966SOL    HW139212   8.314   2.377  11.857  1.2980 -0.1584 -0.1606
42966SOL    HW239213   8.408   2.264  11.820  0.1528 -0.6898 -1.5427
42967SOL     OW39214   2.907   6.879   8.302  0.9250  0.1730  0.4841
42967SOL    HW139215   2.955   6.941   8.356  1.4227 -1.0047  1.4445
42967SOL    HW239216   2.878   6.811   8.363 -1.4454  0.5044 -0.1727
42968SOL     OW39217   9.596   3.822   5.394 -0.4944 -0.4161  0.0091
42968SOL    HW139218   9.673   3.819   5.451  0.1412 -2.6108 -0.8555
42968SOL    HW239219   9.522   3.810   5.452  0.0837 -1.6747  0.5255
42969SOL     OW39220   3.693   3.034  11.809  0.3876 -0.0667  0.7899
42969SOL    HW139221   3.760   2.974  11.841 -0.8946 -1.9481  0.1293
42969SOL    HW239222   3.615   3.010  11.858 -0.9745 -1.2860 -1.7730
42970SOL     OW39223  12.681  10.044   5.555  0.4254  0.3521  0.0937
42970SOL    HW139224  12.767  10.075   5.528  0.4173 -0.3216 -0.7249
42970SOL    HW239225  12.626  10.123   5.555  0.7055  0.5579 -0.7492
42971SOL     OW39226   8.624   8.213   6.276 -0.1104  0.4534 -0.0529
42971SOL    HW139227   8.653   8.253   6.194 -1.0652  0.6398 -0.3061
42971SOL    HW239228   8.629   8.284   6.340  1.2410  0.1520  0.2146
42972SOL     OW39229  11.364   3.092  12.396 -0.3096 -0.5265 -0.3474
42972SOL    HW139230  11.403   3.091  12.484 -0.5102 -0.9267 -0.2601
42972SOL    HW239231  11.432   3.131  12.340  0.0872 -0.8938 -0.1323
42973SOL     OW39232  11.398   9.312   6.274 -0.0704 -0.0412 -0.0563
42973SOL    HW139233  11.420   9.400   6.242 -1.9303  0.4854 -0.0378
42973SOL    HW239234  11.425   9.312   6.366  0.5016  0.2967 -0.2219
42974SOL     OW39235   1.815   2.816   8.342  0.4747  0.3522  0.3812
42974SOL    HW139236   1.837   2.723   8.348  0.0441  0.3169  2.0504
42974SOL    HW239237   1.890   2.860   8.383  0.3191  0.6749  0.3207
42975SOL     OW39238  12.234   7.941   0.700 -0.0435  0.1150  0.3983
42975SOL    HW139239  12.213   7.969   0.611 -1.4162  1.4520  1.1024
42975SOL    HW239240  12.327   7.920   0.697  0.0029  0.4535 -1.2776
42976SOL     OW39241   8.392   8.304   7.986 -0.6944  0.0357  0.1124
42976SOL    HW139242   8.331   8.306   7.912 -0.2175 -0.9111 -0.3259
42976SOL    HW239243   8.478   8.317   7.946 -0.4638 -0.1597  0.5438
42977SOL     OW39244   2.910   1.972   3.523 -0.3519 -0.4394 -0.0621
42977SOL    HW139245   2.982   1.986   3.585  0.5930 -1.3442 -0.9215
42977SOL    HW239246   2.950   1.982   3.437 -1.5484  0.3238 -0.5581
42978SOL     OW39247   6.346  10.762  11.606  0.0904 -0.2504  0.0007
42978SOL    HW139248   6.416  10.747  11.542  0.5277 -0.3863  0.4967
42978SOL    HW239249   6.321  10.675  11.635  0.1911 -0.1730  0.3223
42979SOL     OW39250   9.406   8.117   6.461  0.1382  0.0076  0.1467
42979SOL    HW139251   9.346   8.045   6.443 -0.5515  0.8182 -0.9033
42979SOL    HW239252   9.351   8.185   6.499  0.1500  1.1565 -1.7893
42980SOL     OW39253  10.090   8.977   8.600 -0.0762 -0.3348  0.0537
42980SOL    HW139254  10.063   9.058   8.556  0.7959 -1.2862 -2.4607
42980SOL    HW239255  10.163   9.003   8.656 -0.5297  0.8024  0.1342
42981SOL     OW39256  12.673   9.907   8.222 -0.0735  0.2698  0.7009
42981SOL    HW139257  12.683   9.932   8.314 -0.5516 -1.7690  1.3594
42981SOL    HW239258  12.586   9.869   8.216 -0.0323  0.3215 -0.5895
42982SOL     OW39259  10.586  11.444  10.818 -0.2870  0.3459  0.2170
42982SOL    HW139260  10.515  11.436  10.754  0.5387  0.3282 -0.7139
42982SOL    HW239261  10.640  11.515  10.784  1.1718 -0.8781 -0.1083
42983SOL     OW39262   5.701   0.968   1.878 -0.2604  0.0714  0.3778
42983SOL    HW139263   5.611   0.937   1.869 -0.0651 -0.5077  0.3883
42983SOL    HW239264   5.742   0.947   1.794  0.8529 -2.9689  1.5614
42984SOL     OW39265   9.204  11.651   8.507  0.0757  0.0991 -0.1475
42984SOL    HW139266   9.250  11.722   8.463  0.0140 -1.2526 -2.5832
42984SOL    HW239267   9.272  11.604   8.555  0.2974  1.1144  0.5683
42985SOL     OW39268   6.363   0.155   4.759  0.3746  0.0197 -0.1463
42985SOL    HW139269   6.391   0.125   4.672  1.8898  0.5607  0.1196
42985SOL    HW239270   6.441   0.199   4.795 -0.7425  1.3233  0.7870
42986SOL     OW39271   1.986  12.554   8.408 -0.3978 -0.1572  0.0825
42986SOL    HW139272   2.072  12.519   8.432  0.5746  2.1812  0.2646
42986SOL    HW239273   1.978  12.534   8.315  0.3319 -0.4257  0.0626
42987SOL     OW39274   0.838   1.164   9.691 -0.1482  0.2782 -0.4121
42987SOL    HW139275   0.893   1.201   9.621  1.0322  0.6038  0.6444
42987SOL    HW239276   0.754   1.208   9.682 -0.1105  0.1150 -1.7894
42988SOL     OW39277  11.732   3.589   0.130 -0.0218  0.6730  0.1916
42988SOL    HW139278  11.768   3.640   0.058 -1.8822  0.2005 -1.1636
42988SOL    HW239279  11.643   3.624   0.142 -0.4013 -0.5016  1.0066
42989SOL     OW39280   8.012   4.295  11.126 -0.3891  0.3339  0.1699
42989SOL    HW139281   8.076   4.361  11.101 -1.1046  0.5850 -1.1206
42989SOL    HW239282   8.054   4.244  11.195  0.4797  1.6242  0.6082
42990SOL     OW39283   3.697   7.194   1.984 -0.5748  0.0015  0.2201
42990SOL    HW139284   3.777   7.172   2.032 -0.3200 -0.9529 -0.6117
42990SOL    HW239285   3.670   7.278   2.020  0.3369 -0.0638  1.1032
42991SOL     OW39286   9.707  12.038   7.216  0.3449 -0.6571  0.2352
42991SOL    HW139287   9.659  12.020   7.136 -0.8031  0.9824  0.5055
42991SOL    HW239288   9.749  12.122   7.201  0.8648 -0.7632  1.0298
42992SOL     OW39289   0.982   5.832   0.399  0.1124 -0.1830  0.0242
42992SOL    HW139290   0.991   5.738   0.381 -1.9197 -0.2176 -1.0621
42992SOL    HW239291   0.933   5.836   0.482  0.4176 -0.0813  0.1999
42993SOL     OW39292  10.864   7.020   2.349 -0.1943 -0.2834 -0.5160
42993SOL    HW139293  10.874   7.116   2.351 -0.6416 -0.2225 -0.9341
42993SOL    HW239294  10.951   6.986   2.366  0.1793  0.2024 -1.4070
42994SOL     OW39295   4.619   4.608  12.856  0.5370  0.3113  0.0551
42994SOL    HW139296   4.544   4.666  12.850 -0.2470 -0.6727  0.0239
42994SOL    HW239297   4.646   4.594  12.765  1.8567  2.0024  0.1366
42995SOL     OW39298   5.067   7.185   4.549  0.0215  0.5348  0.7211
42995SOL    HW139299   5.021   7.181   4.633  0.1158  1.1894  0.8085
42995SOL    HW239300   5.059   7.097   4.513 -2.3765  0.9172  0.1539
42996SOL     OW39301  12.641   8.407   7.473 -0.0153  0.6507  0.2442
42996SOL    HW139302  12.576   8.462   7.519 -0.1726  1.5545 -1.0233
42996SOL    HW239303  12.599   8.385   7.390 -0.4043 -2.3547  1.1468
42997SOL     OW39304   4.340   3.072   8.195 -0.1012 -0.2999 -0.5861
42997SOL    HW139305   4.414   3.119   8.233 -0.9074  0.3634  0.2143
42997SOL    HW239306   4.283   3.053   8.269 -0.3188 -1.5822 -1.0696
42998SOL     OW39307   7.449  10.101   2.010  0.4573  0.0337 -0.2976
42998SOL    HW139308   7.500  10.096   2.091  0.0397 -2.3962 -0.1196
42998SOL    HW239309   7.511  10.077   1.941  0.8559  2.2543 -0.7816
42999SOL     OW39310   2.429   0.760   7.357 -0.2776 -0.0696 -0.3091
42999SOL    HW139311   2.478   0.806   7.425  0.5470  2.0108 -2.1789
42999SOL    HW239312   2.339   0.793   7.366  0.3230  2.2022 -1.7045
43000SOL     OW39313   8.744   9.442   9.138  0.0012  0.3928 -0.4246
43000SOL    HW139314   8.788   9.446   9.223  1.6172  0.3220 -1.2145
43000SOL    HW239315   8.799   9.495   9.080 -1.6036  1.2608 -1.2234
43001SOL     OW39316   2.869   1.404   6.040  0.1948  0.0153  0.5668
43001SOL    HW139317   2.847   1.331   5.982 -1.8061  0.5047  0.6627
43001SOL    HW239318   2.923   1.462   5.986  1.1866 -1.1389  0.2677
43002SOL     OW39319   3.087   9.664   5.865 -0.1681 -0.2164 -0.4635
43002SOL    HW139320   3.030   9.738   5.886  2.4938  1.5054  1.3793
43002SOL    HW239321   3.036   9.587   5.888 -2.3565  1.1224 -0.5760
43003SOL     OW39322  10.862   1.955   0.040  0.1706  0.2563  0.3872
43003SOL    HW139323  10.834   2.025   0.099  0.2849 -0.2670  1.0759
43003SOL    HW239324  10.785   1.899   0.031 -0.0380  0.6671 -0.4688
43004SOL     OW39325   0.759   4.907   8.245  0.0143  0.1756 -0.0136
43004SOL    HW139326   0.784   4.981   8.189  0.9582  0.7985  1.1931
43004SOL    HW239327   0.671   4.929   8.276  0.5529  1.1549  0.8859
43005SOL     OW39328   1.000   3.225   5.920  0.0691 -0.8106  0.6978
43005SOL    HW139329   0.956   3.143   5.896  0.3273 -0.4010 -1.3376
43005SOL    HW239330   0.929   3.289   5.929  0.0439 -0.7002 -0.2102
43006SOL     OW39331   2.434   2.740   2.161 -0.5006 -0.7823  0.5920
43006SOL    HW139332   2.471   2.828   2.169 -0.4987  0.3877 -6.1955
43006SOL    HW239333   2.340   2.755   2.151 -0.4111 -1.2698 -1.4525
43007SOL     OW39334   7.891  12.394   7.829  0.3840  0.5528  0.3285
43007SOL    HW139335   7.816  12.395   7.889  0.9921  1.7383  1.0957
43007SOL    HW239336   7.901  12.302   7.805 -1.9753  0.4630 -0.6479
43008SOL     OW39337  10.403   2.422  12.250  0.0199 -0.5137 -0.4787
43008SOL    HW139338  10.394   2.427  12.345  1.5361  1.2728 -0.3687
43008SOL    HW239339  10.329   2.369  12.221 -1.1049 -0.1599  1.5968
43009SOL     OW39340  12.125   6.384  10.382  0.0979  0.4628 -0.3771
43009SOL    HW139341  12.031   6.392  10.394  0.0721  0.7342 -0.7346
43009SOL    HW239342  12.135   6.309  10.324  0.2433 -1.0996  1.5629
43010SOL     OW39343   5.164   4.622   2.608  0.1752  0.4518 -0.3139
43010SOL    HW139344   5.101   4.551   2.595 -0.6119  0.9375  0.7053
43010SOL    HW239345   5.212   4.597   2.686 -0.5950  1.3570  0.4810
43011SOL     OW39346  10.313  10.882   1.420 -0.7215 -0.0654  0.0358
43011SOL    HW139347  10.325  10.797   1.378  0.0558 -1.5502  2.9665
43011SOL    HW239348  10.327  10.946   1.350 -1.2675 -2.2924 -2.2791
43012SOL     OW39349  12.764   5.628   3.652  1.4448  0.3381  0.6099
43012SOL    HW139350  12.681   5.675   3.645  1.4821  0.2276 -0.8170
43012SOL    HW239351  12.743   5.548   3.701  0.7421  0.3732  0.3694
43013SOL     OW39352  10.830   4.404   9.022 -0.0751 -0.2350 -0.3931
43013SOL    HW139353  10.845   4.316   8.988  0.1679  0.0133 -0.9587
43013SOL    HW239354  10.739   4.424   8.997  0.0161 -0.1555 -0.6650
43014SOL     OW39355  10.065   3.232   9.422 -0.0977 -0.1801 -0.6906
43014SOL    HW139356  10.100   3.306   9.374 -0.6027 -1.0194 -2.4634
43014SOL    HW239357   9.976   3.259   9.447  0.0630  0.1558 -0.4804
43015SOL     OW39358  11.896   2.682  12.596 -0.1400  0.6463  0.2621
43015SOL    HW139359  11.956   2.698  12.668 -1.5547  1.9605  1.2133
43015SOL    HW239360  11.924   2.598  12.559  2.3687  1.3164  0.5091
43016SOL     OW39361   2.390   1.907   0.721 -0.3548 -0.5654  0.0978
43016SOL    HW139362   2.462   1.857   0.760  0.5147  0.4700 -0.1359
43016SOL    HW239363   2.347   1.949   0.796 -0.8712 -1.3653  0.2600
43017SOL     OW39364   2.623  11.449   7.985 -0.4595 -0.0515 -0.5902
43017SOL    HW139365   2.689  11.506   7.947 -0.5618 -0.5103 -1.4880
43017SOL    HW239366   2.673  11.389   8.041 -0.1615 -0.1419 -0.9488
43018SOL     OW39367   8.439   3.061   5.973 -0.0369  0.1611 -0.1358
43018SOL    HW139368   8.425   2.971   5.944 -1.6895 -0.0155  1.0471
43018SOL    HW239369   8.373   3.112   5.926 -1.5768  0.1317  1.8650
43019SOL     OW39370  10.794  11.497   7.664  0.1351 -0.3561  0.5127
43019SOL    HW139371  10.781  11.568   7.601  2.4953  0.0484  0.3830
43019SOL    HW239372  10.706  11.470   7.688 -0.8522  1.9838 -0.1537
43020SOL     OW39373  11.998  11.338   9.639  0.2814 -0.3737 -0.8396
43020SOL    HW139374  11.998  11.292   9.555  2.1353  1.7185 -2.1039
43020SOL    HW239375  12.042  11.278   9.700  0.0064 -1.4265 -1.6598
43021SOL     OW39376   7.385   7.639   3.601  0.5980  0.0311  0.5102
43021SOL    HW139377   7.335   7.565   3.566 -0.8963  0.9666  0.5605
43021SOL    HW239378   7.400   7.617   3.693 -0.6502  0.1704  0.7633
43022SOL     OW39379   6.706   4.170   5.820  0.0221 -0.3857  0.2432
43022SOL    HW139380   6.748   4.232   5.879  0.0292  1.0374 -1.1988
43022SOL    HW239381   6.613   4.184   5.833  0.0180 -0.4738  0.3112
43023SOL     OW39382   3.920   5.770   6.719 -0.0682  0.2508  0.1820
43023SOL    HW139383   3.908   5.851   6.669 -0.9534  0.1618  0.2299
43023SOL    HW239384   3.896   5.700   6.658 -1.5790  0.1651  0.8397
43024SOL     OW39385   5.151   7.030  10.930 -0.2876  0.0886 -0.2634
43024SOL    HW139386   5.163   7.115  10.973  0.7580 -0.1768 -0.0055
43024SOL    HW239387   5.135   6.969  11.002  0.0295 -0.1108 -0.3595
43025SOL     OW39388  10.233   4.000  11.628  0.3761 -0.4199 -0.3154
43025SOL    HW139389  10.147   3.971  11.599  0.6891 -1.6180 -0.1305
43025SOL    HW239390  10.229   4.095  11.626 -1.1500 -0.4545  0.2990
43026SOL     OW39391   2.752   1.256  10.494  0.6429 -0.0739 -0.6185
43026SOL    HW139392   2.834   1.206  10.497  0.2069 -0.7809  1.9509
43026SOL    HW239393   2.701   1.222  10.567 -1.6156  0.9574 -1.6454
43027SOL     OW39394   4.880   0.310   1.603  0.1358  0.2190  0.1426
43027SOL    HW139395   4.824   0.365   1.658  1.0336  1.4030 -0.0787
43027SOL    HW239396   4.859   0.220   1.630  0.2750  0.7363  2.1515
43028SOL     OW39397   6.411   8.201   4.370 -0.0616 -0.1210  0.7710
43028SOL    HW139398   6.459   8.222   4.290 -0.2371  0.8422  0.9026
43028SOL    HW239399   6.456   8.125   4.407  0.6946  0.1068  0.3343
43029SOL     OW39400   3.764   4.203   1.920 -0.3379  0.0962 -0.0922
43029SOL    HW139401   3.676   4.181   1.948 -0.1410 -1.4843 -0.6279
43029SOL    HW239402   3.770   4.298   1.931 -2.0426  0.2061  0.0679
43030SOL     OW39403   6.446  12.541   6.163 -0.6304 -0.0406 -0.1768
43030SOL    HW139404   6.352  12.549   6.149 -0.6352  0.3337  0.0532
43030SOL    HW239405   6.454  12.522   6.257 -0.4692  0.0425 -0.1746
43031SOL     OW39406   4.761   5.817  10.223 -0.9007  0.0141  0.8042
43031SOL    HW139407   4.775   5.902  10.183 -1.1091  0.7561  2.2569
43031SOL    HW239408   4.839   5.800  10.275 -0.5786 -0.9870  0.0227
43032SOL     OW39409   1.888   7.180   4.421  0.3479 -0.3702 -0.3250
43032SOL    HW139410   1.963   7.235   4.445 -0.4639  0.7977 -0.3782
43032SOL    HW239411   1.854   7.219   4.340 -2.3887  1.3461  1.4611
43033SOL     OW39412   0.903  11.015  10.888 -0.3355 -0.2369  0.5170
43033SOL    HW139413   0.882  10.967  10.808  0.5896  0.5458 -0.2049
43033SOL    HW239414   0.997  11.028  10.884 -0.6567  2.4005  0.2576
43034SOL     OW39415   7.884   8.465   8.740 -0.1219  0.4467 -0.1706
43034SOL    HW139416   7.961   8.431   8.785 -0.7126  0.9729  1.2967
43034SOL    HW239417   7.818   8.398   8.750  0.5994 -0.8374 -3.0232
43035SOL     OW39418   2.670   4.338   6.487 -0.6588  0.1797  0.1377
43035SOL    HW139419   2.588   4.303   6.452 -1.7601  3.5112 -1.0501
43035SOL    HW239420   2.707   4.388   6.415  2.2399 -0.8023  0.8304
43036SOL     OW39421  12.729   6.868   5.912  0.6847  0.2447  0.4985
43036SOL    HW139422  12.650   6.919   5.900  0.7536  0.2035 -0.1511
43036SOL    HW239423  12.801   6.931   5.903  0.8676 -0.2041 -2.2186
43037SOL     OW39424   9.904   1.683   7.762  0.3793 -0.5898  0.2051
43037SOL    HW139425   9.911   1.604   7.708 -1.0139 -0.4080 -0.2818
43037SOL    HW239426   9.817   1.678   7.800 -0.1043  1.1837 -0.5952
43038SOL     OW39427  12.887   0.633  10.403  0.6066  0.4573  0.4439
43038SOL    HW139428  12.961   0.616  10.345  0.8911 -1.6412  1.3539
43038SOL    HW239429  12.925   0.635  10.491  0.0361  2.6335  0.6926
43039SOL     OW39430   7.131   2.823   0.043 -0.7623  0.0117 -0.3451
43039SOL    HW139431   7.173   2.751   0.090  0.4666 -0.1748 -1.6795
43039SOL    HW239432   7.055   2.783   0.000 -1.2221 -0.0549  0.5099
43040SOL     OW39433   3.718  10.669   0.792 -0.2944 -0.3062 -0.5186
43040SOL    HW139434   3.729  10.606   0.863  2.1849 -0.7382 -1.1840
43040SOL    HW239435   3.799  10.721   0.794 -0.4920  0.1562 -2.5256
43041SOL     OW39436   1.719   4.760  10.099  0.0845 -0.0515  0.1588
43041SOL    HW139437   1.667   4.682  10.117  1.2436 -1.3498 -1.7288
43041SOL    HW239438   1.687   4.792  10.014 -0.3380  1.5362  0.8712
43042SOL     OW39439   2.296   0.505  10.491  0.5110  0.1883  0.0242
43042SOL    HW139440   2.349   0.456  10.554  0.9102 -0.6139 -0.9127
43042SOL    HW239441   2.355   0.569  10.453  0.8452 -0.7252 -1.0413
43043SOL     OW39442  10.957   7.496   8.545 -0.3672  0.6367 -0.0011
43043SOL    HW139443  11.007   7.417   8.526 -1.8721 -0.3387 -0.0859
43043SOL    HW239444  10.943   7.537   8.460  0.7850  1.2559  0.0882
43044SOL     OW39445   5.946  10.436  10.482  0.4244  0.0737 -0.3839
43044SOL    HW139446   5.885  10.496  10.525  0.6977  0.0351  0.0608
43044SOL    HW239447   5.924  10.442  10.389 -0.3778 -0.0746 -0.2107
43045SOL     OW39448  11.426  11.723   9.330  0.2278 -0.2506  0.2627
43045SOL    HW139449  11.364  11.720   9.257 -0.1880 -2.0315  0.6486
43045SOL    HW239450  11.374  11.699   9.407  0.8380  0.8016  1.0319
43046SOL     OW39451   5.640  12.336   3.970 -0.0477  0.6615  0.5989
43046SOL    HW139452   5.601  12.251   3.991  2.1827 -0.5454  0.1500
43046SOL    HW239453   5.665  12.372   4.055  1.2980 -0.3243  0.6381
43047SOL     OW39454   5.284   0.825  11.954  0.1082  1.1829 -0.6052
43047SOL    HW139455   5.207   0.792  11.907 -1.2926  1.5956  1.2719
43047SOL    HW239456   5.340   0.748  11.965 -1.0619  0.3696 -0.1447
43048SOL     OW39457   3.262   8.987   2.070  0.4702 -0.0702  0.2785
43048SOL    HW139458   3.336   8.960   2.124 -0.1676 -0.4292  0.9845
43048SOL    HW239459   3.248   8.913   2.009  1.0450  0.2407 -0.2423
43049SOL     OW39460   2.256   6.706   9.926  0.0927  0.5717  0.7455
43049SOL    HW139461   2.189   6.762   9.885 -0.8854 -1.8451 -1.2340
43049SOL    HW239462   2.210   6.625   9.946  1.9831 -0.4156  1.2879
43050SOL     OW39463   9.079   2.795   6.034  0.2553  0.3746 -0.1359
43050SOL    HW139464   9.039   2.855   6.097 -0.8327 -0.6634  0.1985
43050SOL    HW239465   9.075   2.842   5.951 -0.7857  0.6972  0.0723
43051SOL     OW39466  11.817  12.970  12.347  0.7367 -0.4218 -0.4403
43051SOL    HW139467  11.821  12.968  12.443  0.6433  0.6377 -0.4086
43051SOL    HW239468  11.739  12.918  12.326  2.1559 -2.8348 -0.0846
43052SOL     OW39469   1.282   9.874   2.613  0.2668  0.0312  0.1120
43052SOL    HW139470   1.226   9.937   2.658 -0.3772 -0.5723  0.1732
43052SOL    HW239471   1.317   9.922   2.538 -0.7340  0.2770 -0.2144
43053SOL     OW39472   9.026   5.478   2.237 -0.3229 -0.0217  0.0977
43053SOL    HW139473   8.974   5.434   2.171 -1.5435  0.1381  0.9152
43053SOL    HW239474   9.036   5.568   2.205 -0.7108 -0.0064  0.0198
43054SOL     OW39475  11.940   9.646   8.233  0.2415  0.0220  0.4571
43054SOL    HW139476  11.868   9.706   8.211  0.9602  1.5094  1.9556
43054SOL    HW239477  11.904   9.591   8.302  0.4556  0.6242  1.0568
43055SOL     OW39478   4.688   6.738   3.381 -0.3205 -0.2590  0.6654
43055SOL    HW139479   4.672   6.792   3.458  0.9327  1.0376  0.0729
43055SOL    HW239480   4.661   6.793   3.307 -0.5696 -1.0955  0.1170
43056SOL     OW39481  10.894   1.753  10.653  0.2449 -0.0113 -0.3516
43056SOL    HW139482  10.879   1.811  10.578 -0.0847  0.3604 -0.0003
43056SOL    HW239483  10.846   1.794  10.725 -0.2278 -0.8683 -0.1677
43057SOL     OW39484   4.209   0.899   8.680 -0.5209  0.1589  0.6065
43057SOL    HW139485   4.205   0.943   8.596 -1.9589  1.5234  1.3492
43057SOL    HW239486   4.231   0.968   8.743  0.6153 -0.8502  1.3778
43058SOL     OW39487   2.316  11.775   6.305 -0.3129  0.1740 -0.2754
43058SOL    HW139488   2.317  11.705   6.239 -0.3809 -0.0261 -0.0647
43058SOL    HW239489   2.391  11.830   6.282  3.0923 -2.7552  2.5431
43059SOL     OW39490  11.491   9.668   4.920 -0.2890 -0.0003  0.2775
43059SOL    HW139491  11.495   9.727   4.996  2.4040 -1.2946  1.2513
43059SOL    HW239492  11.568   9.612   4.928  0.4802  0.1571 -3.7429
43060SOL     OW39493   4.067  10.843   9.148 -0.6204 -0.1199 -0.0387
43060SOL    HW139494   4.148  10.795   9.166 -0.6461 -0.3198 -0.4554
43060SOL    HW239495   4.031  10.862   9.235 -0.4180 -0.5207  0.1345
43061SOL     OW39496  12.016  11.246   7.596 -0.0716  0.5479  0.3175
43061SOL    HW139497  11.927  11.281   7.592 -0.4660 -0.5435 -1.4824
43061SOL    HW239498  12.005  11.157   7.630  0.5362  0.9179  1.5521
43062SOL     OW39499   4.931   9.567  12.210  0.4308 -0.4589 -0.0959
43062SOL    HW139500   4.932   9.472  12.223 -1.5847 -0.4652  0.3918
43062SOL    HW239501   4.932   9.603  12.299 -0.9205 -0.1072 -0.2041
43063SOL     OW39502   4.149   6.971   7.103 -0.3807  0.4284 -0.4289
43063SOL    HW139503   4.185   6.914   7.036  0.9725  1.0470 -0.2637
43063SOL    HW239504   4.192   6.944   7.184 -2.2695 -0.5655  0.3159
43064SOL     OW39505  12.328   9.749   1.189 -0.5540 -0.3910  0.1020
43064SOL    HW139506  12.259   9.771   1.126 -0.4442  0.7181  0.3566
43064SOL    HW239507  12.337   9.654   1.181 -2.3397 -0.6265  0.2919
43065SOL     OW39508  11.964   3.910   7.199 -0.1641  1.0095  0.1059
43065SOL    HW139509  12.007   3.860   7.268 -0.9998  0.9645  0.6064
43065SOL    HW239510  11.877   3.929   7.233 -1.2582 -0.5462 -1.6084
43066SOL     OW39511  12.829   7.889   0.219  0.4418  0.5088 -0.3542
43066SOL    HW139512  12.886   7.879   0.143 -0.4422  0.4188 -1.0194
43066SOL    HW239513  12.845   7.810   0.271  1.7200  0.9951  0.0366
43067SOL     OW39514   8.700   0.259  11.802  0.7205 -0.4742  0.4727
43067SOL    HW139515   8.705   0.181  11.858  0.8113  0.3322  1.6316
43067SOL    HW239516   8.621   0.304  11.832  0.5769 -0.1954 -0.3082
43068SOL     OW39517   1.900   0.396  10.191  0.4350  0.5473  0.2575
43068SOL    HW139518   1.852   0.458  10.246 -0.4351 -0.7275  0.9724
43068SOL    HW239519   1.991   0.426  10.195  0.2235  1.0508  1.5849
43069SOL     OW39520   7.717   4.060   2.480 -0.3472  0.1134  0.2136
43069SOL    HW139521   7.625   4.038   2.462 -1.2225  2.4410  1.3995
43069SOL    HW239522   7.720   4.078   2.574  1.1531  0.7891  0.0708
43070SOL     OW39523  12.578   3.135  11.698 -0.5275 -0.0037 -0.1891
43070SOL    HW139524  12.657   3.096  11.658 -0.4984  0.2400 -0.3691
43070SOL    HW239525  12.505   3.096  11.649 -0.5101 -0.0337 -0.1911
43071SOL     OW39526   8.113   4.527   4.199 -0.5376  0.4609 -0.4023
43071SOL    HW139527   8.038   4.557   4.250 -0.9593 -1.2451  0.0318
43071SOL    HW239528   8.160   4.468   4.257  0.1404  0.1089 -1.2796
43072SOL     OW39529   8.028  11.405   8.721 -0.1475  0.0945 -0.1258
43072SOL    HW139530   7.941  11.437   8.747 -0.7280 -0.8876 -0.7912
43072SOL    HW239531   8.031  11.316   8.754  0.3242 -0.1200 -0.7454
43073SOL     OW39532  10.571   3.889   5.706 -0.1372  0.5202  0.6234
43073SOL    HW139533  10.594   3.817   5.766  3.1663  1.5064  0.7231
43073SOL    HW239534  10.563   3.966   5.763  2.0892  1.2862 -0.0295
43074SOL     OW39535   8.951  10.525   9.713  0.2102  0.5564 -0.0858
43074SOL    HW139536   8.922  10.505   9.802  0.9274  0.6289  0.1658
43074SOL    HW239537   8.913  10.456   9.659 -1.3426  1.2467  0.0666
43075SOL     OW39538   4.101  11.932   5.560  0.0871 -0.3469 -0.1379
43075SOL    HW139539   4.180  11.892   5.596  1.5575  2.8017  0.3901
43075SOL    HW239540   4.117  11.937   5.466  0.9279  0.9868  0.0509
43076SOL     OW39541  12.007   8.653   6.032  0.3606  0.0897  0.2251
43076SOL    HW139542  11.987   8.724   6.093 -0.4131 -2.1644  2.7987
43076SOL    HW239543  11.925   8.638   5.984  0.2909  0.3979  0.2468
43077SOL     OW39544  10.547   8.342   8.888  0.1927  0.0400  0.1608
43077SOL    HW139545  10.636   8.362   8.860  0.3793 -1.4302 -0.4173
43077SOL    HW239546  10.492   8.362   8.813  0.2014 -0.2144  0.0847
43078SOL     OW39547   2.885   5.910   9.425 -0.3424  0.2545  0.0313
43078SOL    HW139548   2.943   5.877   9.494 -2.1595 -2.3597  0.4351
43078SOL    HW239549   2.944   5.924   9.350  1.1680  0.0203  1.1204
43079SOL     OW39550  11.013   4.074   8.666 -0.5194 -0.2862 -0.2662
43079SOL    HW139551  11.006   3.993   8.617  2.4914 -0.5498 -0.4177
43079SOL    HW239552  11.060   4.134   8.607 -0.0691  0.5706  0.9216
43080SOL     OW39553   6.093  10.615   1.095 -0.2019 -0.5469  0.3698
43080SOL    HW139554   6.133  10.702   1.097  1.5122 -1.3000  0.9949
43080SOL    HW239555   6.021  10.621   1.158  1.0920 -0.0722  1.8910
43081SOL     OW39556  12.947   1.573   9.406 -0.4791 -0.4902 -1.0649
43081SOL    HW139557  12.878   1.620   9.453 -0.9259 -0.2362 -1.9634
43081SOL    HW239558  13.010   1.550   9.474 -0.7744  0.4665 -0.4456
43082SOL     OW39559   5.177  11.089   6.106  0.1333  0.0478  0.4672
43082SOL    HW139560   5.220  11.062   6.025  0.1456  3.6480 -0.9225
43082SOL    HW239561   5.249  11.106   6.167  0.3050  0.1154  0.2462
43083SOL     OW39562   9.572   5.443   4.558 -0.4537 -0.5772 -0.1772
43083SOL    HW139563   9.578   5.359   4.512 -0.6296 -0.1572 -1.0034
43083SOL    HW239564   9.488   5.479   4.529  0.1007  0.3575 -0.6865
43084SOL     OW39565   7.055  10.766   1.268 -0.0282 -0.6594  0.2031
43084SOL    HW139566   7.014  10.691   1.311 -1.0538 -1.7381 -2.4261
43084SOL    HW239567   7.101  10.728   1.193  0.4070  1.2316 -0.5452
43085SOL     OW39568   6.893   1.275   6.195 -0.1409 -0.4460  0.3312
43085SOL    HW139569   6.984   1.285   6.167 -0.0470 -0.2849  0.6865
43085SOL    HW239570   6.845   1.257   6.114  0.3913 -1.8147  0.2975
43086SOL     OW39571   5.325   9.582  11.885  0.2838  0.0704 -0.4342
43086SOL    HW139572   5.236   9.548  11.879 -0.6220  2.1352  0.3203
43086SOL    HW239573   5.375   9.533  11.820 -0.7435 -2.9834  0.9167
43087SOL     OW39574   2.623   8.533   3.120 -0.6853 -0.1222  0.1705
43087SOL    HW139575   2.636   8.441   3.097 -0.4694 -0.1301  0.3221
43087SOL    HW239576   2.619   8.534   3.216 -0.8076  0.0105  0.1646
43088SOL     OW39577   5.541   5.626   8.765 -0.4570 -0.0986  0.3454
43088SOL    HW139578   5.579   5.585   8.842  1.5819  1.1011  0.0384
43088SOL    HW239579   5.516   5.714   8.794 -2.3799 -0.6055  0.3429
43089SOL     OW39580   6.717   2.094   3.164  0.1913 -0.1781 -0.1064
43089SOL    HW139581   6.628   2.115   3.194  0.0546  1.4851 -1.5101
43089SOL    HW239582   6.770   2.167   3.196  1.0798 -1.1295  0.6609
43090SOL     OW39583   6.575  12.522   2.264  0.6558 -0.2618  0.7606
43090SOL    HW139584   6.654  12.576   2.259  0.8177 -0.5318  0.3106
43090SOL    HW239585   6.607  12.433   2.274  0.5016 -0.6839 -1.8446
43091SOL     OW39586   2.648   9.435   2.608  0.8937 -0.1876 -0.4721
43091SOL    HW139587   2.584   9.367   2.630  0.6396 -0.0385 -0.7458
43091SOL    HW239588   2.724   9.386   2.575  0.8339 -0.3547 -0.3636
43092SOL     OW39589  10.949  11.483  11.452 -0.2901  0.2253  0.1415
43092SOL    HW139590  10.949  11.405  11.507  0.7904  0.5550  0.6251
43092SOL    HW239591  10.858  11.492  11.424 -0.3921 -1.3231 -0.1063
43093SOL     OW39592   7.757   0.322   2.470  0.1766  0.2778 -0.2452
43093SOL    HW139593   7.713   0.405   2.454  1.2624  1.3258  1.7303
43093SOL    HW239594   7.687   0.256   2.471 -0.7008  1.1467 -1.8328
43094SOL     OW39595   4.907   2.798  12.667 -0.4300  0.2576  0.5394
43094SOL    HW139596   4.887   2.708  12.642 -1.2025  0.6459 -0.3151
43094SOL    HW239597   5.000   2.809  12.647 -0.4004 -0.2680  0.3810
43095SOL     OW39598  11.454   6.936   5.347  0.2992  0.2962 -0.0923
43095SOL    HW139599  11.382   6.901   5.400 -0.5125 -0.5742 -1.6853
43095SOL    HW239600  11.514   6.862   5.336  0.3371  0.3971 -0.5821
43096SOL     OW39601   8.352   2.915   3.488  0.6519  0.2384 -0.1960
43096SOL    HW139602   8.373   2.991   3.432  2.2887 -0.1980 -0.2327
43096SOL    HW239603   8.418   2.850   3.464  0.2515 -0.6165  0.9835
43097SOL     OW39604  10.910  12.830   9.537  0.1800  0.5089  0.1636
43097SOL    HW139605  10.932  12.737   9.531 -0.0305  0.5103 -0.8225
43097SOL    HW239606  10.829  12.832   9.589  0.0828  0.1190  0.0326
43098SOL     OW39607  10.647   9.960   3.846 -0.0385  0.2146  0.1524
43098SOL    HW139608  10.619   9.986   3.934  1.3685 -0.7979  0.9284
43098SOL    HW239609  10.719   9.899   3.860  0.8906  0.7895 -1.7305
43099SOL     OW39610  12.304   8.670   2.345 -0.6736 -0.0648  0.2781
43099SOL    HW139611  12.353   8.745   2.379  0.9464 -1.3973  1.0726
43099SOL    HW239612  12.245   8.645   2.416 -0.3169 -0.2892  0.4973
43100SOL     OW39613   2.597   6.175   8.851 -0.2881  0.2303 -0.0550
43100SOL    HW139614   2.613   6.097   8.799 -0.1068  0.6825 -0.6895
43100SOL    HW239615   2.504   6.171   8.872 -0.3255 -0.0408 -0.2698
43101SOL     OW39616   7.442   1.939   0.476  0.2478  0.1358  0.1543
43101SOL    HW139617   7.533   1.936   0.503  0.8652  0.4170 -1.7221
43101SOL    HW239618   7.421   1.850   0.447 -0.2179 -0.0285  0.9661
43102SOL     OW39619   7.771  10.568   1.871  0.2150 -0.5101  0.3012
43102SOL    HW139620   7.694  10.522   1.905 -2.6979  3.7761  0.2854
43102SOL    HW239621   7.815  10.601   1.949  0.0230 -0.0434  0.2126
43103SOL     OW39622  12.250  10.288   0.811  0.1138  0.2861  0.0414
43103SOL    HW139623  12.159  10.290   0.781  0.2212  1.8720 -0.2799
43103SOL    HW239624  12.267  10.196   0.830 -2.5264  0.2237  3.1116
43104SOL     OW39625   8.645   8.568   3.147 -0.0896  0.0686  0.2655
43104SOL    HW139626   8.708   8.640   3.135  0.1479 -0.2876 -0.7663
43104SOL    HW239627   8.687   8.510   3.210  1.1891 -0.7542 -1.2666
43105SOL     OW39628   6.224   9.151  12.919  0.1209  0.4201 -0.3555
43105SOL    HW139629   6.141   9.104  12.914 -0.2819  0.8853  1.2935
43105SOL    HW239630   6.235   9.170  13.012  1.8481  0.7925 -0.5971
43106SOL     OW39631   1.406   5.011   3.150  0.3676  0.3190 -0.1074
43106SOL    HW139632   1.312   5.012   3.129  0.6874  0.1867 -1.6734
43106SOL    HW239633   1.415   5.072   3.222 -1.0404 -0.2665  0.6065
43107SOL     OW39634   5.091   7.887   1.300 -0.1761  0.6187 -0.4899
43107SOL    HW139635   5.029   7.868   1.371  1.1568  1.5161  0.9842
43107SOL    HW239636   5.077   7.817   1.237  0.3789 -1.8010  1.8849
43108SOL     OW39637   9.086   8.642   6.568 -0.3535 -0.5602 -0.0393
43108SOL    HW139638   9.103   8.713   6.630  1.4439 -0.7505 -0.2713
43108SOL    HW239639   9.022   8.678   6.507  0.1122  0.6731  0.1802
43109SOL     OW39640  12.617   3.426   2.088 -0.0329 -0.5754  0.4810
43109SOL    HW139641  12.621   3.361   2.159 -0.4930  0.4164  1.4471
43109SOL    HW239642  12.538   3.404   2.040 -1.0731  0.2036  1.7713
43110SOL     OW39643   1.101   3.550   2.335  0.0239 -0.6285 -0.2410
43110SOL    HW139644   1.120   3.624   2.277 -3.2496 -1.2454 -2.3971
43110SOL    HW239645   1.121   3.472   2.283 -2.1186 -1.1887 -0.3618
43111SOL     OW39646   8.058   8.720   9.566 -0.5783  0.3501 -0.0449
43111SOL    HW139647   8.107   8.788   9.614 -0.0599 -1.1941  1.7256
43111SOL    HW239648   8.108   8.640   9.580 -1.0364 -0.4054 -2.3172
43112SOL     OW39649   1.340   1.338  11.260  0.0781 -0.6358 -0.1873
43112SOL    HW139650   1.409   1.315  11.322 -0.8127  0.9252  1.4624
43112SOL    HW239651   1.369   1.420  11.221 -1.8864  1.4692  2.4332
43113SOL     OW39652  10.342   4.274   4.765 -0.4958 -0.1602  0.3220
43113SOL    HW139653  10.395   4.213   4.713  0.2679  0.3696  0.4587
43113SOL    HW239654  10.281   4.313   4.702  0.6081  0.6810 -0.2568
43114SOL     OW39655   7.222  10.447  11.886 -0.0245  0.7454  0.0615
43114SOL    HW139656   7.187  10.496  11.961  0.5724  2.1845 -0.5580
43114SOL    HW239657   7.246  10.514  11.822  1.4736 -0.3012 -0.5566
43115SOL     OW39658   4.367   6.894   2.659  0.5830 -0.1993 -0.0392
43115SOL    HW139659   4.294   6.880   2.598  0.5515  1.2738 -0.3777
43115SOL    HW239660   4.326   6.889   2.746 -0.3452  2.3745 -0.2376
43116SOL     OW39661  10.660   5.353   1.858  0.3797  0.0791 -0.0159
43116SOL    HW139662  10.615   5.419   1.911  1.1134  0.9066 -0.3997
43116SOL    HW239663  10.594   5.285   1.843  0.0123  0.0257  1.5730
43117SOL     OW39664   8.049   4.741  11.070 -0.1330  0.3658  0.2184
43117SOL    HW139665   8.142   4.735  11.091  0.2532  2.7519 -0.5302
43117SOL    HW239666   8.036   4.676  11.001  1.7517  2.0492 -1.8823
43118SOL     OW39667   3.615   2.805  10.033  0.4943 -0.6469 -0.2883
43118SOL    HW139668   3.699   2.814  10.078 -0.0940 -1.0485  0.9270
43118SOL    HW239669   3.597   2.711  10.033  0.0299 -0.5656 -0.5257
43119SOL     OW39670   0.550   5.435  11.940 -0.7740 -0.1449 -0.2154
43119SOL    HW139671   0.524   5.350  11.903 -3.1512  0.4921 -0.1181
43119SOL    HW239672   0.582   5.485  11.865  2.6430 -1.6903 -0.0084
43120SOL     OW39673  10.130   1.469   5.508  0.6738  0.5169 -0.0674
43120SOL    HW139674  10.150   1.429   5.593 -2.1051  1.3181  1.0565
43120SOL    HW239675  10.166   1.558   5.515 -0.2789  0.8630  0.6368
43121SOL     OW39676   9.501   7.137   7.034 -0.1276  0.0728  0.1811
43121SOL    HW139677   9.566   7.207   7.034 -0.0002 -0.0458  0.2054
43121SOL    HW239678   9.534   7.073   7.097  0.5511 -0.7403 -0.9578
43122SOL     OW39679  10.886  11.591   0.246 -0.2240  0.3275 -0.3139
43122SOL    HW139680  10.865  11.611   0.337  1.9564  1.8190 -0.0459
43122SOL    HW239681  10.869  11.673   0.199  2.6629  1.0200 -0.3918
43123SOL     OW39682   4.701   9.597  10.163  0.0169 -0.7063  0.3492
43123SOL    HW139683   4.664   9.509  10.154 -0.3784 -0.6230  1.1012
43123SOL    HW239684   4.772   9.599  10.098  0.5615 -1.8672  0.8710
43124SOL     OW39685   0.122  12.372  10.638  0.2593 -0.6195 -0.0806
43124SOL    HW139686   0.041  12.379  10.588 -0.6298 -0.8053  1.2914
43124SOL    HW239687   0.154  12.283  10.619  1.0598 -0.0114 -1.8987
43125SOL     OW39688   6.607   3.218   0.033 -0.0271 -0.2094 -0.7698
43125SOL    HW139689   6.540   3.266  -0.016 -1.0586 -0.7793  0.0413
43125SOL    HW239690   6.680   3.279   0.041 -0.8432  0.7864 -0.8142
43126SOL     OW39691   6.057   0.209  12.556 -0.1740  0.7367 -0.3370
43126SOL    HW139692   6.007   0.285  12.586 -1.4762 -0.2728  0.1814
43126SOL    HW239693   6.000   0.135  12.574  0.7311 -0.3070 -1.5599
43127SOL     OW39694  12.674  12.062   6.775  0.3832  0.0018  0.4058
43127SOL    HW139695  12.618  12.038   6.701  1.0677 -2.1307  0.5020
43127SOL    HW239696  12.615  12.060   6.851 -0.3477  2.3087 -0.0232
43128SOL     OW39697   7.341  12.793   2.695  0.4157 -0.3383  0.0239
43128SOL    HW139698   7.275  12.762   2.633 -0.4499  0.4415  0.5492
43128SOL    HW239699   7.326  12.887   2.702  0.7519 -0.3505  1.1199
43129SOL     OW39700   6.057  10.332   7.285  0.0800 -0.3024  0.0431
43129SOL    HW139701   6.146  10.310   7.254  0.1399 -2.2421  1.3887
43129SOL    HW239702   6.062  10.322   7.380 -2.0197 -2.3889  0.0179
43130SOL     OW39703   2.455   8.327   2.747 -0.0821  0.3855  0.3448
43130SOL    HW139704   2.397   8.289   2.681  1.0141 -1.2001  0.2157
43130SOL    HW239705   2.405   8.398   2.786 -1.3883  0.2676 -1.0229
43131SOL     OW39706   2.871   0.642   6.205  0.1722 -0.1482  0.7067
43131SOL    HW139707   2.895   0.678   6.291  1.2047 -0.3299  0.5076
43131SOL    HW239708   2.916   0.558   6.201 -1.7338 -1.2326  0.9129
43132SOL     OW39709   2.731   2.660   2.496  0.1028 -0.1389  0.3765
43132SOL    HW139710   2.655   2.616   2.457 -0.0664 -0.3879  0.9704
43132SOL    HW239711   2.805   2.628   2.445 -0.2101  0.2821 -0.3567
43133SOL     OW39712   3.092   3.166   5.146 -0.6415 -0.2843 -0.4646
43133SOL    HW139713   3.037   3.165   5.068  2.5743 -0.6385 -2.9316
43133SOL    HW239714   3.088   3.076   5.179 -0.8728 -0.5183 -1.1209
43134SOL     OW39715  10.734   8.127   3.131  0.0312  0.1423  0.0970
43134SOL    HW139716  10.736   8.121   3.035 -2.1457 -0.3563  0.0375
43134SOL    HW239717  10.795   8.059   3.160  0.5557  0.1571 -0.9153
43135SOL     OW39718   2.160   2.232   8.305  0.0788  0.1280  0.2590
43135SOL    HW139719   2.163   2.283   8.224  0.4340  0.3694  0.4224
43135SOL    HW239720   2.217   2.279   8.365  2.0997 -1.5731 -0.2162
43136SOL     OW39721   9.951   2.980   9.745 -0.8127 -0.2967  0.1237
43136SOL    HW139722   9.948   2.924   9.667  4.0244  0.2402 -0.8023
43136SOL    HW239723   9.943   3.069   9.711  1.8236 -0.0277 -0.0378
43137SOL     OW39724   6.998  11.062   6.901  0.1464  1.0170  0.5692
43137SOL    HW139725   6.966  11.035   6.815 -0.5798  2.0928  0.4764
43137SOL    HW239726   7.091  11.080   6.887  0.1315  0.7586  0.1075
43138SOL     OW39727  11.264  12.952   5.628 -0.4101  0.2488  0.4005
43138SOL    HW139728  11.185  12.910   5.591 -0.3526  1.2924 -0.9658
43138SOL    HW239729  11.248  12.953   5.722 -1.8184  0.0009  0.1898
43139SOL     OW39730   6.486   1.460   7.972  0.4231  0.5012 -1.1113
43139SOL    HW139731   6.398   1.472   8.006  0.6727 -0.0421 -0.2546
43139SOL    HW239732   6.482   1.496   7.883 -0.7350  0.1816 -1.2013
43140SOL     OW39733  11.238   6.405   9.250 -0.1876 -0.0346 -0.8136
43140SOL    HW139734  11.332   6.426   9.245 -0.4313  1.1548 -0.6045
43140SOL    HW239735  11.233   6.335   9.315  0.6704 -0.9071 -1.6497
43141SOL     OW39736  12.425   2.490   5.381  0.2542 -0.5504 -0.1868
43141SOL    HW139737  12.343   2.452   5.350  1.4598 -1.7320 -2.1139
43141SOL    HW239738  12.478   2.503   5.302  1.5809  1.1021  0.8807
43142SOL     OW39739   0.276   0.098   5.042 -0.2073 -0.0125  0.0185
43142SOL    HW139740   0.322   0.169   5.088  0.0449  0.4084 -0.8531
43142SOL    HW239741   0.276   0.025   5.103  3.1692 -0.6309 -0.5357
43143SOL     OW39742   1.755   0.809   6.414  0.2801  0.1780  0.3780
43143SOL    HW139743   1.750   0.772   6.503  0.3873 -2.3084 -0.5803
43143SOL    HW239744   1.770   0.902   6.429 -0.0295 -0.0953  2.9787
43144SOL     OW39745  12.717   7.870   7.009 -0.8697 -0.2023  0.5286
43144SOL    HW139746  12.740   7.947   6.957 -0.3484  0.4706  1.7239
43144SOL    HW239747  12.723   7.797   6.947 -0.3721  0.5790 -0.3752
43145SOL     OW39748   7.614   4.118   7.218  0.5093  0.2691 -0.5203
43145SOL    HW139749   7.633   4.175   7.292  0.1871  0.9852 -0.9727
43145SOL    HW239750   7.533   4.073   7.242 -0.1339  1.2404 -0.8444
43146SOL     OW39751   7.763   8.723   5.474 -0.3025 -0.0411  0.3510
43146SOL    HW139752   7.802   8.712   5.561  0.1686 -0.6995  0.0666
43146SOL    HW239753   7.718   8.641   5.457  0.4808 -0.3323 -0.4444
43147SOL     OW39754   4.363   5.522  12.771 -0.3104 -0.1889 -0.0302
43147SOL    HW139755   4.405   5.573  12.702 -0.6111  0.5598  0.3235
43147SOL    HW239756   4.336   5.440  12.729 -0.3168  0.1784 -0.7439
43148SOL     OW39757   4.402   2.965   0.622  0.5615  0.4443 -0.6103
43148SOL    HW139758   4.420   3.030   0.690  0.2446  0.2733 -0.3581
43148SOL    HW239759   4.416   2.881   0.666  0.7603  0.3396 -0.8739
43149SOL     OW39760   4.168   8.611   2.496 -0.0381  0.4349 -0.0550
43149SOL    HW139761   4.117   8.602   2.577  0.3964  0.2116  0.1975
43149SOL    HW239762   4.259   8.598   2.524  0.1141  0.3877 -0.5741
43150SOL     OW39763   6.294  10.402   9.974  1.0649 -0.4294 -0.0426
43150SOL    HW139764   6.321  10.340   9.905  0.4416 -0.0689 -0.6241
43150SOL    HW239765   6.367  10.464   9.980  0.6388  0.2018 -1.1889
43151SOL     OW39766   8.875  11.446   2.395  0.6938  0.2365 -0.1765
43151SOL    HW139767   8.826  11.526   2.379  0.1263 -0.4044 -1.7870
43151SOL    HW239768   8.946  11.447   2.331  0.7156 -0.5089 -0.1767
43152SOL     OW39769  12.427   2.502   7.276  0.1856 -0.8469 -0.4244
43152SOL    HW139770  12.487   2.577   7.277  0.7050 -1.2535  0.0869
43152SOL    HW239771  12.340   2.541   7.282  0.2809 -0.1697 -2.4971
43153SOL     OW39772   1.086  11.935  11.798  0.8239 -0.6152 -0.4857
43153SOL    HW139773   1.029  11.997  11.752 -0.1124 -1.0242  0.0897
43153SOL    HW239774   1.073  11.955  11.891  3.0243  0.4916 -0.3559
43154SOL     OW39775  10.131   2.234   6.913  0.3691 -0.2895 -0.6778
43154SOL    HW139776  10.177   2.160   6.873 -0.2856 -0.8748 -0.3691
43154SOL    HW239777  10.150   2.227   7.006  1.2205  0.5962 -0.7761
43155SOL     OW39778   5.772   5.869   2.883  0.2412 -0.3956  0.0068
43155SOL    HW139779   5.797   5.960   2.896 -1.2910  0.0924 -0.3482
43155SOL    HW239780   5.811   5.845   2.799 -0.6498  0.4299 -0.6616
43156SOL     OW39781  11.949   5.557   4.275  0.1005 -0.5199  0.0084
43156SOL    HW139782  11.956   5.620   4.203 -0.2004 -0.9392 -0.3948
43156SOL    HW239783  11.897   5.486   4.239  0.4068 -0.9856  0.4742
43157SOL     OW39784   8.209   8.617   1.657 -0.7234  0.6253  0.1808
43157SOL    HW139785   8.299   8.644   1.638 -0.1856 -1.1531 -0.0302
43157SOL    HW239786   8.154   8.680   1.610  0.4723 -0.2328 -2.5954
43158SOL     OW39787  10.012   9.114  11.666  0.2499 -0.6762 -0.1196
43158SOL    HW139788   9.982   9.185  11.609  1.5631 -1.1883 -1.4982
43158SOL    HW239789   9.942   9.105  11.732  0.5341  2.6388  0.8112
43159SOL     OW39790  12.334   2.567   9.223 -0.2745 -0.4649  0.3748
43159SOL    HW139791  12.281   2.516   9.162  2.0098 -0.5618 -1.6839
43159SOL    HW239792  12.344   2.652   9.182  0.5068 -0.1925  1.0851
43160SOL     OW39793   3.081   7.656  12.079 -0.1670  0.0514 -0.6523
43160SOL    HW139794   3.088   7.746  12.111  1.4640 -0.2379 -0.0884
43160SOL    HW239795   3.016   7.660  12.009 -0.4667  1.5695 -0.3233
43161SOL     OW39796   5.527  10.373   0.441  0.8103  0.3858 -0.3410
43161SOL    HW139797   5.615  10.396   0.413  0.3135  1.4400 -1.1011
43161SOL    HW239798   5.470  10.428   0.388 -0.3051 -0.2139  0.2045
43162SOL     OW39799   0.978   7.264  12.727  0.3334  0.0986  0.0319
43162SOL    HW139800   0.963   7.265  12.633 -1.1392 -0.5134  0.2300
43162SOL    HW239801   0.920   7.331  12.762  0.0943 -0.3969  0.6008
43163SOL     OW39802  10.293   4.163  12.867  0.4692 -0.0237  0.3485
43163SOL    HW139803  10.289   4.258  12.852  0.1840  0.4368  2.8531
43163SOL    HW239804  10.349   4.154  12.945  2.1588 -2.1034 -0.9720
43164SOL     OW39805   5.238   0.788   1.279  0.2272  0.2968  0.0760
43164SOL    HW139806   5.310   0.845   1.307 -1.2224  2.1611  0.1744
43164SOL    HW239807   5.193   0.765   1.360  0.0565  0.0492 -0.0886
43165SOL     OW39808   7.107  10.213   6.009  0.0234  0.0468  0.2594
43165SOL    HW139809   7.020  10.203   6.047 -0.5533 -0.7456 -1.2270
43165SOL    HW239810   7.145  10.287   6.056 -1.0957 -0.1613  1.5503
43166SOL     OW39811   7.449  10.507   0.556  0.2672  0.2691 -0.7587
43166SOL    HW139812   7.510  10.435   0.538 -2.3281 -1.9090 -1.4138
43166SOL    HW239813   7.480  10.579   0.502  2.3784 -0.6461 -0.8667
43167SOL     OW39814   4.627   2.128   4.585  0.1666 -0.2711 -0.2434
43167SOL    HW139815   4.534   2.137   4.567  0.2176 -2.7022 -2.2897
43167SOL    HW239816   4.660   2.218   4.585 -2.1183  0.6410  0.4906
43168SOL     OW39817   3.888   1.122   3.344 -0.1315 -0.2971 -0.1074
43168SOL    HW139818   3.968   1.174   3.354  0.1763 -0.9006  0.6250
43168SOL    HW239819   3.821   1.174   3.388  0.2405 -0.6526  0.9052
43169SOL     OW39820   1.689   3.888   8.615  0.1048 -0.0481 -0.8307
43169SOL    HW139821   1.652   3.833   8.546  1.4561 -0.1936 -1.4653
43169SOL    HW239822   1.658   3.849   8.696 -0.3637 -0.7085 -1.3198
43170SOL     OW39823   7.864   9.106   6.342 -0.0542 -0.4957 -0.0085
43170SOL    HW139824   7.774   9.101   6.373 -0.5132  0.9926 -0.9917
43170SOL    HW239825   7.878   9.022   6.297 -0.4737 -1.2895  1.3001
43171SOL     OW39826   3.216   5.232  11.151 -0.2315 -0.3903  0.3396
43171SOL    HW139827   3.220   5.152  11.100 -0.3127 -0.5719  0.6180
43171SOL    HW239828   3.175   5.296  11.092  1.7636  0.0447 -0.6663
43172SOL     OW39829   5.080  12.425   2.524 -0.4759 -0.2232  0.1897
43172SOL    HW139830   5.052  12.498   2.468 -1.1859 -0.2249  0.5211
43172SOL    HW239831   5.171  12.444   2.545 -0.3384  0.0103 -0.6020
43173SOL     OW39832   6.530   3.264   9.758  0.2785  0.0640 -0.0084
43173SOL    HW139833   6.521   3.307   9.673 -1.3130 -0.8108 -0.3187
43173SOL    HW239834   6.481   3.320   9.819 -0.7753 -0.6413 -0.1841
43174SOL     OW39835   2.186   7.183   3.884 -0.0429 -0.1764 -0.1753
43174SOL    HW139836   2.252   7.207   3.949 -0.5115 -0.1062  0.2898
43174SOL    HW239837   2.106   7.172   3.936 -0.1020 -1.5915 -0.5370
43175SOL     OW39838   5.949  12.082   0.987 -0.3018  0.2338 -0.0874
43175SOL    HW139839   6.020  12.128   0.943  0.0219 -0.1905 -0.0159
43175SOL    HW239840   5.990  12.043   1.065 -0.7116  0.3734  0.2014
43176SOL     OW39841   3.426  10.721   5.133 -0.1583 -0.2152 -0.1050
43176SOL    HW139842   3.367  10.652   5.164 -0.3793  0.4877  1.1418
43176SOL    HW239843   3.382  10.757   5.056 -1.0932 -0.0954  0.4634
43177SOL     OW39844  11.535   5.041   3.175 -0.0777 -0.1400 -0.0144
43177SOL    HW139845  11.457   4.985   3.173  0.1620 -0.4586 -1.3866
43177SOL    HW239846  11.594   5.002   3.111  0.8961  0.5608  0.4388
43178SOL     OW39847   9.409  12.892   6.733 -0.2578  0.1070 -0.0180
43178SOL    HW139848   9.488  12.945   6.728 -0.8119  0.9304 -0.2528
43178SOL    HW239849   9.400  12.853   6.646 -0.6427  0.8065 -0.2977
43179SOL     OW39850   3.004   4.037   5.076  0.0634  0.0255 -0.5585
43179SOL    HW139851   2.996   3.951   5.118  1.0055 -0.4809 -1.3998
43179SOL    HW239852   3.095   4.062   5.089 -0.2999  1.1131  0.0497
43180SOL     OW39853  10.734   8.942   3.646 -0.8714 -0.3525  0.5565
43180SOL    HW139854  10.817   8.955   3.693  0.3614 -0.1233 -1.5428
43180SOL    HW239855  10.667   8.946   3.714  0.8621 -1.1050  2.4171
43181SOL     OW39856   2.504   4.960   5.381  0.0097  0.6452 -0.1599
43181SOL    HW139857   2.509   5.051   5.411 -1.4841  1.1700 -1.3332
43181SOL    HW239858   2.535   4.963   5.290 -0.0234 -0.0212 -0.1967
43182SOL     OW39859  12.128  11.099  10.644 -0.0341  0.0879 -0.0508
43182SOL    HW139860  12.218  11.119  10.617  0.9794 -0.6282  2.4571
43182SOL    HW239861  12.103  11.174  10.699 -1.1586  0.4733 -1.0574
43183SOL     OW39862  12.697   7.372   4.811 -0.2144 -0.3408 -0.3669
43183SOL    HW139863  12.614   7.376   4.762  0.6101  0.9436 -1.7368
43183SOL    HW239864  12.765   7.382   4.744  0.9658  1.5414  1.0065
43184SOL     OW39865  12.658   2.443  10.818  0.5639 -0.1389 -0.0918
43184SOL    HW139866  12.693   2.532  10.811 -0.2232  0.2252  0.4422
43184SOL    HW239867  12.566   2.456  10.841  0.4933 -1.1021  0.1780
43185SOL     OW39868   3.869   0.581   9.240 -0.4469 -0.6171  0.2395
43185SOL    HW139869   3.837   0.658   9.288 -0.3352  0.9011 -1.9775
43185SOL    HW239870   3.824   0.586   9.156  1.6264 -1.4396 -0.9734
43186SOL     OW39871   8.085  11.440   7.057  0.3715  0.4102 -0.4386
43186SOL    HW139872   8.082  11.371   6.991  0.1696 -0.2053  0.1922
43186SOL    HW239873   8.129  11.513   7.015  0.0138  0.1214 -1.3339
43187SOL     OW39874   3.452   3.793   9.141  0.7636  0.2571  0.2537
43187SOL    HW139875   3.404   3.875   9.147  0.9727  0.3930  0.0900
43187SOL    HW239876   3.385   3.725   9.149  0.3996  0.4480 -0.9454
43188SOL     OW39877   1.176  10.018   6.152 -0.6191  0.1968 -0.4054
43188SOL    HW139878   1.242  10.085   6.171 -1.3710  1.1055 -0.9337
43188SOL    HW239879   1.124  10.011   6.233  0.5993 -1.1319  0.3184
43189SOL     OW39880   9.354  10.182  10.191 -0.1173  0.5385  0.3068
43189SOL    HW139881   9.398  10.097  10.199  1.9086  1.6112  1.0137
43189SOL    HW239882   9.342  10.193  10.096 -0.9851 -0.7821  0.2331
43190SOL     OW39883   5.269  12.850  11.172  0.4770  0.0655  0.3722
43190SOL    HW139884   5.284  12.757  11.191  0.3965  0.2602  1.4728
43190SOL    HW239885   5.191  12.872  11.224 -1.3610  0.0311 -2.1814
43191SOL     OW39886  12.042   5.650   6.082 -0.2637 -0.0279  0.0133
43191SOL    HW139887  11.957   5.606   6.082 -0.7050  0.7887 -0.1455
43191SOL    HW239888  12.052   5.681   5.992  0.0244  0.2171  0.1282
43192SOL     OW39889   1.300   8.158   5.076  0.0742  0.2241 -0.3037
43192SOL    HW139890   1.244   8.136   5.150 -0.2664 -0.2663 -0.7056
43192SOL    HW239891   1.362   8.084   5.070 -0.4710 -0.1852 -1.0634
43193SOL     OW39892   2.165   4.543  12.303 -0.1468 -0.2801  0.1341
43193SOL    HW139893   2.082   4.497  12.286 -0.9714  0.9714  0.6527
43193SOL    HW239894   2.153   4.582  12.390  0.1000  1.7809 -0.7099
43194SOL     OW39895  12.759   2.587   9.265 -0.5131 -0.2933  0.1610
43194SOL    HW139896  12.742   2.676   9.294 -0.9750 -0.7139  1.2528
43194SOL    HW239897  12.846   2.567   9.298  0.6752  0.5798 -2.2354
43195SOL     OW39898  12.268   5.859   4.067  0.0564 -0.0307 -0.3395
43195SOL    HW139899  12.349   5.893   4.029 -0.4068  0.5109 -0.8647
43195SOL    HW239900  12.277   5.874   4.161 -0.3108  2.0125 -0.5791
43196SOL     OW39901   0.601   1.775   3.522  0.4242 -0.3471  0.3943
43196SOL    HW139902   0.516   1.817   3.512  0.6072 -0.1314 -0.3112
43196SOL    HW239903   0.639   1.777   3.434  1.0758 -0.6147  0.6655
43197SOL     OW39904   9.931   9.367  11.840  0.1860  0.4346  0.3924
43197SOL    HW139905   9.956   9.451  11.801  0.3710 -0.0494 -0.5626
43197SOL    HW239906   9.848   9.384  11.883  0.6096  1.3007  0.8890
43198SOL     OW39907   5.020   7.917   4.063  0.0684 -0.5357 -0.0280
43198SOL    HW139908   4.944   7.890   4.115 -0.5163 -1.4317 -1.3006
43198SOL    HW239909   5.085   7.849   4.078 -0.4462 -1.2938 -1.1913
43199SOL     OW39910   0.576   3.955   0.486  0.4972 -0.2472  0.0471
43199SOL    HW139911   0.612   3.881   0.536  0.8601  0.0330  0.2117
43199SOL    HW239912   0.548   4.017   0.553  0.9488  0.1148 -0.0954
43200SOL     OW39913   3.408   4.650   7.508 -0.4665  0.5375  0.3754
43200SOL    HW139914   3.459   4.627   7.585 -1.6807 -0.7749  0.8228
43200SOL    HW239915   3.349   4.720   7.538 -2.1423 -1.1288  1.1845
43201SOL     OW39916   4.407   9.325   3.406 -0.0000  0.4695 -0.4405
43201SOL    HW139917   4.425   9.397   3.467 -0.4023 -0.7494  1.1575
43201SOL    HW239918   4.369   9.369   3.329 -0.1620  1.9732  0.4522
43202SOL     OW39919  10.475   6.785   2.611 -0.0166 -0.4687  0.2721
43202SOL    HW139920  10.411   6.850   2.640  1.2892  0.9243  0.1402
43202SOL    HW239921  10.497   6.811   2.522  1.7565 -0.0493  0.7843
43203SOL     OW39922   0.809   5.814   2.758  0.3305 -0.8487  0.2695
43203SOL    HW139923   0.791   5.762   2.837 -1.5030  0.2783  0.6525
43203SOL    HW239924   0.895   5.852   2.774 -0.0661 -0.5137  1.8198
43204SOL     OW39925   1.075   3.755   5.179  0.7377  0.1859  0.5991
43204SOL    HW139926   1.137   3.738   5.107  1.8132 -0.7815  1.7123
43204SOL    HW239927   1.040   3.842   5.160  0.7175 -0.1745 -1.2828
43205SOL     OW39928   0.725   6.288  12.594  0.5011 -0.1639  0.6588
43205SOL    HW139929   0.736   6.215  12.654 -1.4284 -0.1087  1.1352
43205SOL    HW239930   0.700   6.248  12.511 -0.7942 -0.0744  0.9824
43206SOL     OW39931   8.749   5.495   5.395 -0.5227  0.0582 -0.6535
43206SOL    HW139932   8.659   5.479   5.425 -0.7351 -0.5183 -1.5759
43206SOL    HW239933   8.767   5.425   5.333  0.3129  0.5930 -1.0334
43207SOL     OW39934   5.186   4.863   8.224 -0.7303 -0.1477 -0.1709
43207SOL    HW139935   5.174   4.936   8.163 -2.5779 -0.0864  0.1980
43207SOL    HW239936   5.179   4.902   8.311 -2.6446 -0.8368  0.0320
43208SOL     OW39937   8.227  10.368  11.409  0.1982 -0.2238 -0.2613
43208SOL    HW139938   8.268  10.298  11.460  1.6390  0.3194 -0.6429
43208SOL    HW239939   8.266  10.361  11.322  1.8640  2.2085  0.1803
43209SOL     OW39940   0.288   8.494   6.787  0.1207 -0.0813 -0.3433
43209SOL    HW139941   0.259   8.494   6.878 -0.5843  0.3004 -0.5601
43209SOL    HW239942   0.234   8.428   6.744 -1.4413  1.5673 -1.0446
43210SOL     OW39943   3.273   9.398   2.642 -0.1065  0.1878  0.4335
43210SOL    HW139944   3.182   9.424   2.652 -0.3438 -0.2250 -0.5230
43210SOL    HW239945   3.318   9.477   2.611 -0.3781  0.0804 -0.2486
43211SOL     OW39946   5.887   5.926  10.786  0.0849  0.1275  0.1099
43211SOL    HW139947   5.897   6.018  10.809  1.1387 -0.1622  0.8715
43211SOL    HW239948   5.930   5.878  10.857  0.3309 -0.9144 -0.7143
43212SOL     OW39949   8.798  10.595   1.978 -0.7921  0.2277  0.0596
43212SOL    HW139950   8.859  10.529   2.008 -0.5647  0.7951  0.8647
43212SOL    HW239951   8.814  10.671   2.034 -2.4020  0.3118  0.4612
43213SOL     OW39952   3.470   1.370   5.380  0.4632 -0.0563 -0.4274
43213SOL    HW139953   3.493   1.299   5.320  0.5558  1.5789 -2.4596
43213SOL    HW239954   3.392   1.339   5.425 -0.6125 -0.7596 -2.6144
43214SOL     OW39955   9.335   3.084   4.265  0.6398 -0.1727  0.5890
43214SOL    HW139956   9.331   3.078   4.170  2.8960 -1.3678  0.5140
43214SOL    HW239957   9.247   3.061   4.294 -0.5500  1.7268 -1.2046
43215SOL     OW39958   8.571  12.102   6.534 -0.0296 -0.1281 -0.6022
43215SOL    HW139959   8.661  12.136   6.537  0.6647 -1.8948  0.6773
43215SOL    HW239960   8.532  12.143   6.457  1.5496  1.4583 -0.6210
43216SOL     OW39961   5.287   3.276   1.929 -0.1070  0.1833 -0.0030
43216SOL    HW139962   5.269   3.231   2.011 -1.4541  1.8871  0.7058
43216SOL    HW239963   5.254   3.365   1.943  1.2186  1.0082 -1.7971
43217SOL     OW39964   2.560   0.454   3.396  0.0445 -0.0577 -0.2422
43217SOL    HW139965   2.546   0.509   3.473  2.0460  1.1547 -0.6761
43217SOL    HW239966   2.534   0.510   3.322  1.1754 -0.0199 -0.6261
43218SOL     OW39967   5.041   8.582   3.104 -0.0239  0.2415  0.2177
43218SOL    HW139968   5.016   8.593   3.195  0.0213  0.6320  0.1832
43218SOL    HW239969   5.104   8.652   3.088 -0.4065  0.4806 -0.2557
43219SOL     OW39970  10.335   9.155   0.091  0.2302 -0.3345 -0.0178
43219SOL    HW139971  10.355   9.247   0.075 -1.4792 -0.0397 -0.6627
43219SOL    HW239972  10.248   9.142   0.052  0.1139 -2.0306  0.7198
43220SOL     OW39973  10.860   6.895   1.413  0.2000 -0.3723  0.3216
43220SOL    HW139974  10.922   6.926   1.479 -0.1587 -0.4767  0.7152
43220SOL    HW239975  10.829   6.811   1.447 -0.6316 -0.0218  0.4471
43221SOL     OW39976   3.124   5.467   4.846  0.1607 -0.3030 -0.0501
43221SOL    HW139977   3.217   5.471   4.867  0.0354  2.1374  0.2999
43221SOL    HW239978   3.117   5.508   4.760 -0.3210 -3.0863 -1.4639
43222SOL     OW39979  10.000   8.539   3.680 -0.1407  0.2813 -0.1210
43222SOL    HW139980  10.058   8.611   3.703 -0.6359  0.2103  1.5370
43222SOL    HW239981   9.959   8.565   3.597 -0.2322  1.8660  0.3904
43223SOL     OW39982  11.443   4.117   0.755 -0.0938  0.3509  0.4106
43223SOL    HW139983  11.507   4.068   0.703 -0.0581 -1.6171  2.1656
43223SOL    HW239984  11.410   4.184   0.695  2.7213  0.7005 -0.9266
43224SOL     OW39985   7.572   5.415  10.701  0.3130 -0.3890 -0.0565
43224SOL    HW139986   7.636   5.366  10.649  0.7517 -0.4609  0.5506
43224SOL    HW239987   7.609   5.503  10.708 -0.8807  0.3266 -1.8914
43225SOL     OW39988   0.973   7.868   6.965 -0.6975  0.0391 -0.4507
43225SOL    HW139989   0.952   7.943   6.910  2.2939  1.6221  0.4071
43225SOL    HW239990   0.906   7.869   7.033 -1.2339  1.3641 -0.9673
43226SOL     OW39991   7.347  11.352   6.549 -0.1026  0.8839  0.3851
43226SOL    HW139992   7.296  11.341   6.468  1.0109 -0.4680 -0.1868
43226SOL    HW239993   7.282  11.371   6.616 -1.1021  1.5968 -0.7503
43227SOL     OW39994   0.468  11.106   0.017  0.2750  0.2213 -0.6065
43227SOL    HW139995   0.378  11.076   0.013  0.9569 -1.9195 -1.5611
43227SOL    HW239996   0.495  11.114  -0.074  2.1832 -3.2822 -0.5538
43228SOL     OW39997   1.581   1.864   4.063  0.4465 -0.0765  0.2721
43228SOL    HW139998   1.508   1.814   4.026  0.7314 -1.3132  1.2945
43228SOL    HW239999   1.611   1.811   4.137  0.3776  1.9092  1.8041
43229SOL     OW40000   3.510  12.505   0.937  0.1140 -0.3490 -0.2817
43229SOL    HW140001   3.552  12.444   0.997  2.7037  0.0163 -1.5460
43229SOL    HW240002   3.421  12.472   0.927  0.6320 -2.3560  1.1144
43230SOL     OW40003   2.781   8.294   3.897 -0.3238  0.0629 -0.6491
43230SOL    HW140004   2.793   8.389   3.906 -0.3038  0.0065 -0.0806
43230SOL    HW240005   2.854   8.266   3.840  0.6106  0.1535  0.4688
43231SOL     OW40006   9.943  10.605   0.599  0.2373  0.1681 -0.0971
43231SOL    HW140007   9.867  10.650   0.636 -0.5140  0.2877 -1.7015
43231SOL    HW240008   9.997  10.674   0.562  0.1138 -0.0820 -0.7482
43232SOL     OW40009   2.192   3.526   3.660  0.0432  0.1256 -0.5943
43232SOL    HW140010   2.195   3.504   3.567 -0.3443  0.3388 -0.6581
43232SOL    HW240011   2.172   3.619   3.663  1.0135  0.3449 -0.3096
43233SOL     OW40012   6.468   5.843   2.447 -0.8067 -0.2283 -0.2024
43233SOL    HW140013   6.514   5.813   2.368 -2.2857 -1.1513 -0.7631
43233SOL    HW240014   6.441   5.932   2.426 -0.3574 -0.1221 -0.3483
43234SOL     OW40015  10.331   2.642   6.069 -0.7169 -0.7509 -0.4421
43234SOL    HW140016  10.399   2.660   6.134 -1.2463 -1.1968  0.2537
43234SOL    HW240017  10.350   2.553   6.039 -0.9114 -0.8257 -0.3449
43235SOL     OW40018  10.412   6.950   6.531 -0.1250 -0.1296  0.2276
43235SOL    HW140019  10.346   6.941   6.600 -1.4164 -0.2297 -0.9717
43235SOL    HW240020  10.395   6.876   6.473  1.2308 -0.2966  0.0190
43236SOL     OW40021   0.656   1.263  10.390 -0.2144  0.2916 -0.7072
43236SOL    HW140022   0.570   1.305  10.395  0.1909  1.2298 -1.2116
43236SOL    HW240023   0.707   1.305  10.459  0.3000  0.9119 -1.4439
43237SOL     OW40024  11.223   4.798   0.997 -0.3731  0.2519 -0.3364
43237SOL    HW140025  11.220   4.702   0.992 -1.8036  0.3025 -0.7960
43237SOL    HW240026  11.227   4.816   1.091  3.8741 -0.2768 -0.2455
43238SOL     OW40027   0.119   0.138  10.446 -0.1524 -0.0869 -0.2984
43238SOL    HW140028   0.191   0.198  10.432  1.0926 -1.2266  0.8440
43238SOL    HW240029   0.145   0.058  10.400 -1.0941 -0.2280 -0.6020
43239SOL     OW40030   0.794  10.232   3.549  0.3911 -0.5399 -0.2215
43239SOL    HW140031   0.724  10.284   3.509  1.5616  0.0661 -1.5605
43239SOL    HW240032   0.753  10.192   3.626 -0.7637  1.7291  0.4291
43240SOL     OW40033   1.463  10.562   7.307  0.6225  0.0133 -0.2625
43240SOL    HW140034   1.533  10.607   7.259 -0.1778  0.3851 -1.1106
43240SOL    HW240035   1.507  10.524   7.383  1.8321 -0.1815 -1.0384
43241SOL     OW40036   6.197   2.547   2.018 -0.2612 -0.1887  0.3224
43241SOL    HW140037   6.276   2.594   2.045  1.3027 -1.3473 -1.8229
43241SOL    HW240038   6.196   2.468   2.072 -0.6998  0.4338  1.2395
43242SOL     OW40039  10.241   4.436   1.705  0.2613 -0.0041  0.4779
43242SOL    HW140040  10.269   4.359   1.656  0.5669 -0.6455  1.6350
43242SOL    HW240041  10.299   4.438   1.781 -1.1047  0.1711  1.5525
43243SOL     OW40042   5.048   2.644   9.411 -0.3831 -0.0640  0.3571
43243SOL    HW140043   4.995   2.638   9.331 -0.3935 -0.4372  0.3925
43243SOL    HW240044   4.988   2.621   9.481 -0.5225  0.7917  0.5369
43244SOL     OW40045   4.821   5.611   1.062 -0.1196 -0.3809  0.2953
43244SOL    HW140046   4.895   5.575   1.013  0.3877 -1.0093  1.4759
43244SOL    HW240047   4.774   5.534   1.094 -2.2958 -0.0385 -1.7982
43245SOL     OW40048   4.700  12.250   8.696  0.1974  0.0817 -0.1265
43245SOL    HW140049   4.643  12.182   8.659  0.4219  0.5525 -1.3865
43245SOL    HW240050   4.781  12.204   8.717 -0.0523 -0.2592  0.1309
43246SOL     OW40051   1.567  10.105  10.754 -0.5049  0.1220 -0.1824
43246SOL    HW140052   1.621  10.184  10.759 -1.7578  1.0023 -0.3700
43246SOL    HW240053   1.560  10.075  10.844 -0.6931  0.6791 -0.0115
43247SOL     OW40054   0.956   0.232  10.374 -0.0212  0.1197  0.1503
43247SOL    HW140055   0.998   0.229  10.460  0.1857  0.0874  0.0505
43247SOL    HW240056   0.881   0.290  10.386 -1.3004 -1.5816  0.9103
43248SOL     OW40057  11.386   6.046  10.144 -0.7043 -0.3938  0.7747
43248SOL    HW140058  11.407   6.113  10.210 -1.0627  1.3507 -0.8194
43248SOL    HW240059  11.434   6.073  10.066 -0.4551 -2.3081  0.2221
43249SOL     OW40060   6.749   0.919   4.605 -0.1248 -0.0235  0.2165
43249SOL    HW140061   6.682   0.904   4.539 -1.0185 -0.2672  1.1427
43249SOL    HW240062   6.781   1.007   4.588 -0.9601  0.2405 -0.0126
43250SOL     OW40063   1.360   3.668   1.537  0.0786  0.0450 -0.1317
43250SOL    HW140064   1.327   3.595   1.589  0.5574 -0.4997 -0.5681
43250SOL    HW240065   1.327   3.651   1.449  1.1852 -0.3182 -0.4976
43251SOL     OW40066  10.517   3.251   1.995 -0.0736  0.3819  0.3249
43251SOL    HW140067  10.521   3.209   1.909  0.7226  1.1988 -0.0603
43251SOL    HW240068  10.595   3.218   2.040  0.2986  1.0595  0.1916
43252SOL     OW40069  10.160   8.080   8.382  0.4951  0.1582 -0.2723
43252SOL    HW140070  10.158   8.156   8.440 -1.5228  1.0593 -1.4260
43252SOL    HW240071  10.213   8.108   8.308 -2.2010  1.4432 -1.8522
43253SOL     OW40072   4.563   6.312   9.684 -0.5139 -0.0533 -0.2677
43253SOL    HW140073   4.578   6.403   9.708 -0.6671  0.2121 -1.1712
43253SOL    HW240074   4.467   6.302   9.685 -0.4742 -0.6413  1.3864
43254SOL     OW40075   2.927  10.657   0.933 -0.8365 -0.0325  0.1100
43254SOL    HW140076   2.838  10.654   0.897 -0.7358  1.6565 -0.3545
43254SOL    HW240077   2.915  10.690   1.022 -0.6991 -0.1945  0.1890
43255SOL     OW40078  12.331  10.765   6.834  0.3478 -0.5576  0.1117
43255SOL    HW140079  12.301  10.719   6.755 -1.1220  0.4067  0.0663
43255SOL    HW240080  12.260  10.826   6.854  1.5451  0.5532  1.0910
43256SOL     OW40081   2.089   6.498  10.025 -0.3069  0.1702  0.3734
43256SOL    HW140082   2.066   6.577  10.074 -0.5823  0.1080  0.3489
43256SOL    HW240083   2.032   6.430  10.062 -0.3184  0.0627  0.1590
43257SOL     OW40084   5.328   0.514   2.822  0.1907  0.5620 -0.0695
43257SOL    HW140085   5.270   0.492   2.895 -0.1692  3.8271  0.8127
43257SOL    HW240086   5.411   0.473   2.844 -0.5023 -0.3008  1.0680
43258SOL     OW40087   7.690  11.364   6.243 -0.1226 -0.1572 -0.6558
43258SOL    HW140088   7.762  11.420   6.213 -1.2548  1.5452 -0.3375
43258SOL    HW240089   7.615  11.389   6.188 -1.4512  0.8831  1.4997
43259SOL     OW40090   5.561   4.497   5.856 -0.5397  0.1970 -0.2808
43259SOL    HW140091   5.514   4.419   5.886  1.0970 -0.7594 -0.0766
43259SOL    HW240092   5.493   4.551   5.815 -2.1000 -0.3286  1.4519
43260SOL     OW40093   6.784   2.777   7.654 -0.2250  0.1936  0.4137
43260SOL    HW140094   6.798   2.787   7.748 -3.3534  2.3422  0.8117
43260SOL    HW240095   6.774   2.683   7.641 -1.8970 -0.0282  2.6925
43261SOL     OW40096   8.536  10.920   4.064  0.1235  0.0269 -0.0778
43261SOL    HW140097   8.555  10.901   4.156  0.8474  1.7349  0.1788
43261SOL    HW240098   8.614  10.891   4.017  0.3823  0.4961  0.0530
43262SOL     OW40099   3.674   6.464  12.634 -0.3177  0.5705 -0.1548
43262SOL    HW140100   3.712   6.384  12.599 -2.2714 -0.3738 -0.2188
43262SOL    HW240101   3.675   6.451  12.729 -0.2540  0.6700 -0.1409
43263SOL     OW40102   1.855  12.362   9.696 -0.2635 -0.2817 -0.6832
43263SOL    HW140103   1.816  12.419   9.762  1.4730  0.1038  0.0531
43263SOL    HW240104   1.791  12.361   9.624 -2.4390 -1.1015  1.1315
43264SOL     OW40105   1.386   2.084   4.118 -0.2991 -0.0764  0.0628
43264SOL    HW140106   1.421   2.004   4.080  0.2310  0.5672 -0.8302
43264SOL    HW240107   1.427   2.089   4.205 -0.7373 -1.0209  0.3418
43265SOL     OW40108   1.035   6.075   0.515  0.0788 -0.7758  0.2690
43265SOL    HW140109   1.000   5.991   0.482  0.0003 -0.9885  0.8861
43265SOL    HW240110   0.975   6.141   0.481  0.2197 -0.9491 -0.3403
43266SOL     OW40111   7.528   6.219   2.017 -0.1018 -0.0263 -0.3924
43266SOL    HW140112   7.535   6.209   1.922 -1.6928 -0.0263 -0.5282
43266SOL    HW240113   7.592   6.158   2.052  1.6027  1.0581 -1.4657
43267SOL     OW40114   2.202   8.433   3.395 -0.5149 -0.0575  0.2547
43267SOL    HW140115   2.217   8.471   3.309 -0.0244 -0.7695  0.0150
43267SOL    HW240116   2.117   8.467   3.422 -0.1070  1.1869  0.0497
43268SOL     OW40117   2.981   2.462   1.920 -0.0580  0.7124 -0.3573
43268SOL    HW140118   3.038   2.453   1.996  0.5158 -0.5742 -0.9178
43268SOL    HW240119   2.982   2.556   1.900  0.2090  0.9801  0.8834
43269SOL     OW40120   4.766   1.092   8.404  0.0321 -0.4333 -0.2942
43269SOL    HW140121   4.844   1.088   8.460 -0.6305  1.6964  0.8678
43269SOL    HW240122   4.723   1.008   8.417  0.7651 -0.6234  1.1080
43270SOL     OW40123   8.693   5.021   6.839 -0.6055 -0.0508 -0.1511
43270SOL    HW140124   8.634   5.054   6.771  1.1269  1.5873 -0.9717
43270SOL    HW240125   8.726   4.938   6.803  2.7699  2.2305 -3.1155
43271SOL     OW40126  11.286   0.107   8.623 -0.3033 -0.0235  0.3743
43271SOL    HW140127  11.317   0.031   8.574 -0.4761 -0.4229  0.8778
43271SOL    HW240128  11.217   0.073   8.679 -0.7230  0.6030  0.2453
43272SOL     OW40129   8.207   9.239   5.878  0.1949 -0.0306  0.0082
43272SOL    HW140130   8.289   9.272   5.841 -0.5589  0.4220 -1.3399
43272SOL    HW240131   8.219   9.244   5.972  1.6035  0.3058 -0.1706
43273SOL     OW40132   3.339   2.380   5.424  0.3469  0.1939 -0.1886
43273SOL    HW140133   3.432   2.401   5.421  0.5578 -0.5502  0.7623
43273SOL    HW240134   3.299   2.438   5.359  1.1169  2.3373  1.1692
43274SOL     OW40135   3.546   1.043   7.512 -0.4797  1.0300  0.6727
43274SOL    HW140136   3.584   1.027   7.599  0.6300 -2.4574 -0.3118
43274SOL    HW240137   3.621   1.067   7.457 -1.2445  3.7289  0.6540
43275SOL     OW40138   2.618   5.984  12.641  0.2272  0.0163 -0.0255
43275SOL    HW140139   2.656   5.910  12.593  0.7803  0.7534 -0.7517
43275SOL    HW240140   2.633   6.059  12.584  0.6874  0.8806  1.2101
43276SOL     OW40141  12.685   6.055   6.411  0.1624 -0.0131 -0.0707
43276SOL    HW140142  12.627   6.124   6.444 -1.6394 -0.9688 -1.1174
43276SOL    HW240143  12.670   6.054   6.317  0.6712 -1.3719 -0.1556
43277SOL     OW40144   2.614  11.822   2.074 -0.7366  0.4479 -0.1284
43277SOL    HW140145   2.697  11.865   2.095 -0.7880  1.1887 -1.3536
43277SOL    HW240146   2.554  11.895   2.054 -1.9733 -0.0117  1.6487
43278SOL     OW40147   9.905   0.347   8.418  0.3313 -0.1857 -0.3876
43278SOL    HW140148   9.921   0.304   8.502  0.3125 -0.7420 -0.6688
43278SOL    HW240149   9.862   0.430   8.442  0.7562 -0.1200  0.1795
43279SOL     OW40150  10.819   2.198   4.139 -0.0682  0.1181  0.3936
43279SOL    HW140151  10.809   2.293   4.138 -1.6777 -0.0212  0.5503
43279SOL    HW240152  10.755   2.167   4.203 -2.8499 -1.3376 -2.7839
43280SOL     OW40153   7.471   6.528   7.699 -0.0846 -0.3587  0.0996
43280SOL    HW140154   7.383   6.529   7.661 -1.0234 -1.0363  2.1541
43280SOL    HW240155   7.484   6.437   7.727  0.4661  0.1616  1.5924
43281SOL     OW40156   2.966   3.136   4.072 -0.1979 -0.2508  0.5078
43281SOL    HW140157   2.938   3.228   4.074 -0.1080 -0.1431 -1.1798
43281SOL    HW240158   2.884   3.086   4.077 -0.3354 -0.0510  0.2879
43282SOL     OW40159  12.020   3.081  12.833 -0.4541  0.1791 -0.5040
43282SOL    HW140160  12.103   3.035  12.842 -0.3077  0.4212 -0.5858
43282SOL    HW240161  11.961   3.038  12.894  0.1033  0.8536  0.5537
43283SOL     OW40162  12.040   0.012   0.249  0.8236 -0.4958  0.2764
43283SOL    HW140163  12.027  -0.046   0.173  0.1728 -1.9844  1.4594
43283SOL    HW240164  12.107   0.074   0.221  1.3507 -1.6485 -1.1644
43284SOL     OW40165  11.505   2.053  10.592 -0.1725  0.0486  0.0391
43284SOL    HW140166  11.532   1.992  10.661 -2.3211 -1.8883 -0.6969
43284SOL    HW240167  11.440   2.109  10.634  0.1344  0.3275  0.1427
43285SOL     OW40168   5.652   3.041   5.112 -0.2797  0.1378 -0.1201
43285SOL    HW140169   5.659   2.946   5.105 -0.4245  0.2097 -1.5225
43285SOL    HW240170   5.724   3.074   5.060 -0.1791  0.8138  0.4330
43286SOL     OW40171  10.444  12.044   4.383  0.9920 -0.0906 -0.2431
43286SOL    HW140172  10.388  12.054   4.306  1.6497 -0.2961 -0.7529
43286SOL    HW240173  10.451  12.133   4.418  0.6733  0.0005 -0.3973
43287SOL     OW40174   8.565   7.690   6.498  0.2205  0.6312  0.0127
43287SOL    HW140175   8.522   7.685   6.583  0.4399 -1.9995  0.0506
43287SOL    HW240176   8.653   7.723   6.518 -0.0314  0.9199  0.6689
43288SOL     OW40177   7.279   6.511   5.192  0.2691 -0.7543 -0.4756
43288SOL    HW140178   7.306   6.590   5.145  0.0378 -0.5525 -0.2720
43288SOL    HW240179   7.243   6.454   5.124 -1.4832  0.1480 -0.3576
43289SOL     OW40180   6.993   2.546   3.177 -0.0660 -0.0678 -0.5313
43289SOL    HW140181   6.986   2.633   3.216  2.0183  0.1584 -0.5793
43289SOL    HW240182   7.045   2.558   3.098  2.2110 -1.6517  0.6228
43290SOL     OW40183   9.899   5.723   9.367 -0.2317 -0.7147 -0.2372
43290SOL    HW140184   9.805   5.719   9.347 -0.2747 -1.6970  0.0796
43290SOL    HW240185   9.906   5.790   9.435 -0.6163 -0.1904 -0.7091
43291SOL     OW40186   2.781   4.555   1.947 -0.5410  0.1380 -0.5578
43291SOL    HW140187   2.789   4.472   1.994 -1.2732  0.7153  0.6476
43291SOL    HW240188   2.796   4.622   2.013  0.6567  0.9821 -1.6472
43292SOL     OW40189  10.083   7.055   9.803  0.3799  0.2960  0.0173
43292SOL    HW140190  10.112   7.111   9.875 -1.4208  0.4132  0.7084
43292SOL    HW240191   9.995   7.087   9.782 -0.1605 -1.3954 -0.4798
43293SOL     OW40192   2.900   5.540   8.198 -0.0663  0.2857  0.3270
43293SOL    HW140193   2.841   5.563   8.269  0.6960  0.3752  0.9451
43293SOL    HW240194   2.944   5.460   8.229 -0.2036 -0.0511 -0.3257
43294SOL     OW40195   7.734   8.890  10.879 -0.3325  0.0336  0.6053
43294SOL    HW140196   7.731   8.873  10.785  0.1114 -1.9406  0.9008
43294SOL    HW240197   7.648   8.861  10.910 -0.6365  1.0802  0.7623
43295SOL     OW40198   5.749   4.932   2.090 -0.1746 -0.2318 -0.1140
43295SOL    HW140199   5.694   4.917   2.166  2.1069  0.3492  1.7756
43295SOL    HW240200   5.769   4.845   2.057  2.4999 -0.9437  2.8694
43296SOL     OW40201   4.693   8.965   4.267 -0.0781  0.6106 -0.3477
43296SOL    HW140202   4.672   9.048   4.225  1.1121  0.3423 -1.5287
43296SOL    HW240203   4.789   8.961   4.267 -0.1068 -0.8760 -0.5536
43297SOL     OW40204   1.657   5.373  11.864  0.1419  0.3187  0.6095
43297SOL    HW140205   1.645   5.279  11.875 -0.1483  0.0198 -1.6815
43297SOL    HW240206   1.743   5.382  11.823 -0.7035  0.7973 -1.1987
43298SOL     OW40207   6.285  10.760   0.601  0.4795  0.2751 -0.1854
43298SOL    HW140208   6.298  10.852   0.578 -0.8022  0.3543 -0.6623
43298SOL    HW240209   6.349  10.713   0.548  0.3426  0.7958 -0.8265
43299SOL     OW40210   6.716   9.432  10.383  0.2113  0.5187 -0.2781
43299SOL    HW140211   6.798   9.399  10.420 -0.0304  0.7881  0.5216
43299SOL    HW240212   6.697   9.511  10.434 -0.3569  0.6619 -0.7007
43300SOL     OW40213   4.800   7.444   3.968  0.3769  0.0706 -0.1815
43300SOL    HW140214   4.861   7.446   4.042  0.0828 -1.6171  0.1481
43300SOL    HW240215   4.715   7.461   4.007  0.4281  0.9068 -0.4137
43301SOL     OW40216   3.269   8.260   4.785 -0.1797  0.0777  0.0378
43301SOL    HW140217   3.174   8.250   4.772  0.0864 -0.5675 -1.6261
43301SOL    HW240218   3.295   8.327   4.722  0.3531  0.9360  1.1407
43302SOL     OW40219   3.156   1.134   4.331  0.3827  0.3754  0.2706
43302SOL    HW140220   3.070   1.162   4.363  0.5094  1.7847 -0.5163
43302SOL    HW240221   3.216   1.156   4.402  0.1822  0.0625  0.5356
43303SOL     OW40222   8.937   2.883   7.631  0.3167  0.3165 -0.1028
43303SOL    HW140223   8.891   2.953   7.678  0.4863 -1.1543  2.4722
43303SOL    HW240224   8.866   2.827   7.598  0.1444  1.9983 -2.9162
43304SOL     OW40225  10.200   3.699   4.872  0.0798  0.1313 -0.4537
43304SOL    HW140226  10.157   3.627   4.919 -0.5203  1.7614  1.6420
43304SOL    HW240227  10.290   3.698   4.903  0.0923  0.2544 -0.4876
43305SOL     OW40228   9.010   6.882   4.184 -0.1525 -0.1294  0.3848
43305SOL    HW140229   9.097   6.921   4.188  1.1055 -2.7993  1.4341
43305SOL    HW240230   8.951   6.951   4.214  1.4763  1.9401 -0.9049
43306SOL     OW40231   0.644   6.932   3.515 -0.7788 -0.0767  0.3648
43306SOL    HW140232   0.549   6.928   3.500 -0.7266 -0.5364  0.1095
43306SOL    HW240233   0.674   6.842   3.500  0.2122  0.6759 -3.2357
43307SOL     OW40234   9.374   2.005  12.566  0.2547 -0.1337  0.2911
43307SOL    HW140235   9.447   2.055  12.532  1.4403 -0.4481  2.2601
43307SOL    HW240236   9.409   1.959  12.642 -2.3220  0.8589  2.2218
43308SOL     OW40237   6.087  12.264   0.124  0.1867  0.0985 -0.5884
43308SOL    HW140238   6.118  12.277   0.034  0.7229 -1.2307 -0.6201
43308SOL    HW240239   6.166  12.243   0.174 -0.3149 -0.8307 -0.1607
43309SOL     OW40240  12.127  12.926  10.713  0.0543 -0.1882  0.0739
43309SOL    HW140241  12.196  12.898  10.652 -1.3254  1.6509 -2.4920
43309SOL    HW240242  12.168  12.917  10.799  1.6682 -4.2974 -0.8278
43310SOL     OW40243   1.264   7.927  10.159 -0.0214  0.2725 -0.3409
43310SOL    HW140244   1.234   8.013  10.130 -0.2112 -0.2865 -1.8870
43310SOL    HW240245   1.259   7.931  10.255 -4.4936  0.4244 -0.4109
43311SOL     OW40246   3.716  11.301   6.491 -0.2175  0.5556  0.3961
43311SOL    HW140247   3.739  11.388   6.460 -1.7107  1.6867  2.2841
43311SOL    HW240248   3.641  11.275   6.438  0.7621 -0.0035 -0.7640
43312SOL     OW40249   8.581   6.379   5.618 -0.2268  0.3133 -0.6083
43312SOL    HW140250   8.617   6.467   5.619 -1.4695  0.8364  0.1481
43312SOL    HW240251   8.567   6.357   5.711  0.2096 -0.7476 -0.7723
43313SOL     OW40252  10.321   1.682  10.048 -0.5850 -0.7140  0.1362
43313SOL    HW140253  10.310   1.633   9.967  0.9989 -2.2603  0.7902
43313SOL    HW240254  10.256   1.646  10.108 -1.0230 -0.3323 -0.1051
43314SOL     OW40255   5.496  10.771   1.776  0.3095 -0.8042 -0.0064
43314SOL    HW140256   5.457  10.757   1.690  0.8202 -4.0128  0.1885
43314SOL    HW240257   5.426  10.750   1.838 -0.6703  3.2484  0.5805
43315SOL     OW40258   3.361   7.534   6.838 -0.1673 -0.2242 -0.2753
43315SOL    HW140259   3.402   7.451   6.812 -0.0127 -0.1134 -0.3836
43315SOL    HW240260   3.272   7.509   6.864 -0.4737 -0.2806 -1.3212
43316SOL     OW40261  10.042  12.766   1.697  0.0517  0.0371  1.3460
43316SOL    HW140262  10.041  12.815   1.615 -1.6144 -0.8184  0.8015
43316SOL    HW240263  10.009  12.828   1.763 -0.5325  0.1348  0.9677
43317SOL     OW40264   2.884   0.194   5.486 -0.2750 -0.1390  0.1761
43317SOL    HW140265   2.969   0.157   5.512  0.1921  1.3257  0.8606
43317SOL    HW240266   2.900   0.231   5.399 -0.9868 -2.2426 -0.9200
43318SOL     OW40267   6.288   6.687   7.214 -0.0983 -0.1844 -0.3288
43318SOL    HW140268   6.261   6.599   7.239 -1.0203  0.0192 -0.5826
43318SOL    HW240269   6.377   6.696   7.249  0.9431 -2.0396 -2.2337
43319SOL     OW40270   5.645   6.971   6.619  0.0326  0.2281 -0.0388
43319SOL    HW140271   5.733   6.965   6.658 -0.0163  0.3958  0.0966
43319SOL    HW240272   5.652   6.921   6.537  0.4660  0.8646 -0.4002
43320SOL     OW40273   3.731   7.468  11.925  0.1165 -0.8518 -0.1526
43320SOL    HW140274   3.765   7.392  11.973 -0.5028 -0.8359  0.3232
43320SOL    HW240275   3.677   7.430  11.856 -1.0588 -0.8364  0.7401
43321SOL     OW40276   6.605  11.915   6.497  0.4489  0.1107 -0.8424
43321SOL    HW140277   6.536  11.941   6.558  0.2106  0.7345 -1.3711
43321SOL    HW240278   6.560  11.903   6.414  0.9541  0.4118 -1.1632
43322SOL     OW40279  11.668   5.040   9.201  0.0843  0.4507  1.0900
43322SOL    HW140280  11.683   4.946   9.210 -0.0532  0.4080  0.8841
43322SOL    HW240281  11.755   5.078   9.202  0.1491  0.3067  1.0167
43323SOL     OW40282  12.858   8.439   1.299  0.0017  0.9638 -0.5500
43323SOL    HW140283  12.783   8.474   1.347 -1.9405 -2.9034 -0.3941
43323SOL    HW240284  12.894   8.373   1.358  1.8526  0.8086 -1.7876
43324SOL     OW40285   0.441   4.083   0.958  0.1582 -0.3183 -0.5116
43324SOL    HW140286   0.384   4.054   0.887 -0.1660  1.2074 -0.9209
43324SOL    HW240287   0.394   4.156   0.998  1.5478  0.6175 -0.5005
43325SOL     OW40288   9.795   3.778   1.543  0.2195  0.1205  0.4431
43325SOL    HW140289   9.879   3.813   1.572  0.4919  0.6579 -0.9142
43325SOL    HW240290   9.808   3.683   1.541  1.2044  0.2421 -0.8436
43326SOL     OW40291   8.246  12.952   7.506  0.6279 -0.2812 -0.3833
43326SOL    HW140292   8.158  12.979   7.478 -0.1995 -1.3241  1.0733
43326SOL    HW240293   8.232  12.912   7.591  2.7501  0.9753  0.6354
43327SOL     OW40294   8.569   1.434   6.734  0.3217  0.4234  0.2398
43327SOL    HW140295   8.640   1.373   6.716  0.1761  0.8566 -2.1157
43327SOL    HW240296   8.612   1.512   6.769  0.6596 -0.4215  1.7602
43328SOL     OW40297  11.958   5.818   9.888 -0.2746  0.4781  0.6518
43328SOL    HW140298  11.969   5.789   9.797 -0.5205  1.0488  0.4382
43328SOL    HW240299  11.956   5.737   9.939 -1.7856  0.0495 -0.0317
43329SOL     OW40300   3.618   2.997   3.230 -0.6142 -0.1634 -0.6898
43329SOL    HW140301   3.670   2.979   3.308 -1.1675  0.3601 -0.1915
43329SOL    HW240302   3.533   2.956   3.247 -0.7771  0.0524 -0.9689
43330SOL     OW40303   6.276  11.645   9.709  0.4717 -0.5460 -0.6012
43330SOL    HW140304   6.302  11.737   9.704 -0.8217 -0.1886 -1.0669
43330SOL    HW240305   6.222  11.640   9.788 -0.4064 -0.6492 -1.1973
43331SOL     OW40306   3.369   4.735   2.320  0.3770 -0.2076  0.5235
43331SOL    HW140307   3.306   4.788   2.271  0.0741 -0.9937  0.0490
43331SOL    HW240308   3.429   4.799   2.359  0.6375  0.4327 -0.8680
43332SOL     OW40309   9.349   0.582   4.175  0.4602  0.2848 -0.0964
43332SOL    HW140310   9.367   0.568   4.082  0.2148  0.4180 -0.1657
43332SOL    HW240311   9.433   0.606   4.213  0.6881 -0.3835 -0.1640
43333SOL     OW40312  10.494   8.406   3.869 -0.0966  0.3074  0.2810
43333SOL    HW140313  10.428   8.420   3.801 -1.0352 -1.2622  0.8202
43333SOL    HW240314  10.562   8.354   3.826 -0.4092 -0.1855  0.3744
43334SOL     OW40315   9.213   6.092   1.431 -0.0086 -0.2771  0.2514
43334SOL    HW140316   9.160   6.053   1.362 -1.3146 -0.1250  1.1258
43334SOL    HW240317   9.295   6.041   1.430 -0.7251 -1.4613 -0.2104
43335SOL     OW40318   2.586  12.765   2.071  0.5154  0.0086 -0.4035
43335SOL    HW140319   2.512  12.705   2.081  0.8940 -0.1446  2.0679
43335SOL    HW240320   2.547  12.852   2.067  0.1404 -0.1525 -0.3017
43336SOL     OW40321   2.784   8.058   1.878 -0.0850  1.0038 -0.5322
43336SOL    HW140322   2.746   8.025   1.959  2.3818 -1.7866 -0.3324
43336SOL    HW240323   2.720   8.036   1.811 -0.2799 -0.7063  0.1651
43337SOL     OW40324   7.552   2.474   2.195  0.2848  0.2205  0.0022
43337SOL    HW140325   7.523   2.479   2.286  0.1159  0.0846 -0.0426
43337SOL    HW240326   7.476   2.439   2.148  0.9133 -1.3385  0.0672
43338SOL     OW40327   0.066   5.435  11.285 -0.5608  0.5016 -0.5069
43338SOL    HW140328   0.016   5.427  11.366 -1.3707 -0.6173 -1.0937
43338SOL    HW240329   0.024   5.375  11.224  1.1665 -0.1020 -1.1905
43339SOL     OW40330   6.576  11.776   9.269  0.0802 -0.2974 -0.2678
43339SOL    HW140331   6.657  11.743   9.230 -0.6517 -2.1651 -0.3135
43339SOL    HW240332   6.514  11.779   9.197  0.0688  1.1072 -0.2296
43340SOL     OW40333   4.931   8.175  12.908  0.7195 -0.1425  0.1327
43340SOL    HW140334   5.013   8.127  12.898  0.8057 -0.1915  1.0277
43340SOL    HW240335   4.863   8.109  12.895  0.8180 -0.9916  3.1645
43341SOL     OW40336  12.298   8.042   9.462 -0.3459  0.1436 -0.3035
43341SOL    HW140337  12.348   8.073   9.387  0.9088  0.7482  0.7553
43341SOL    HW240338  12.282   8.120   9.515 -0.6712 -0.3682  0.3669
43342SOL     OW40339   2.165   8.898   8.355 -0.3210  0.3563 -0.1888
43342SOL    HW140340   2.216   8.855   8.286 -1.9277 -2.5681  0.2810
43342SOL    HW240341   2.078   8.908   8.317 -0.7664  0.3851  0.8187
43343SOL     OW40342   1.762   3.586   6.362 -0.0074  0.5943 -0.2306
43343SOL    HW140343   1.704   3.643   6.412  0.8972  2.5320 -1.3078
43343SOL    HW240344   1.848   3.626   6.371  0.4644  0.0450 -1.9748
43344SOL     OW40345   6.202   9.233   0.917  0.3069  0.2037 -0.1049
43344SOL    HW140346   6.165   9.191   0.995  0.9183  0.3687  0.2784
43344SOL    HW240347   6.236   9.160   0.865  1.5712  0.2048  0.6675
43345SOL     OW40348   9.929   5.860   3.454 -0.1952  0.4292  0.3798
43345SOL    HW140349   9.915   5.861   3.359 -1.5861  1.3562  0.5697
43345SOL    HW240350   9.980   5.780   3.469 -0.9802 -0.3827 -1.0100
43346SOL     OW40351   5.181   7.606   8.472  0.2948  0.2323 -0.6020
43346SOL    HW140352   5.237   7.558   8.411  1.3043 -0.4014  0.7496
43346SOL    HW240353   5.222   7.592   8.557 -2.0523 -0.4647  0.5043
43347SOL     OW40354   1.277   8.062   9.162 -0.0578 -0.0375 -0.4501
43347SOL    HW140355   1.198   8.084   9.212  1.3290  0.5334  1.6093
43347SOL    HW240356   1.349   8.090   9.217  1.6469 -1.4679 -1.8152
43348SOL     OW40357   8.216   9.882   6.778 -0.5513  0.5534 -0.1153
43348SOL    HW140358   8.240   9.796   6.814  3.3230  2.3259  2.1539
43348SOL    HW240359   8.132   9.902   6.818 -0.9010 -1.5853  0.3538
43349SOL     OW40360   6.176   7.824   5.574 -0.7250 -0.1217  0.2249
43349SOL    HW140361   6.235   7.883   5.622 -0.4999 -1.1858  1.2799
43349SOL    HW240362   6.088   7.855   5.596 -0.6353 -0.8232  1.6448
43350SOL     OW40363  12.860   5.840   2.101  0.1278 -0.5858 -0.3049
43350SOL    HW140364  12.920   5.794   2.042  0.6716 -1.6123  0.9912
43350SOL    HW240365  12.795   5.774   2.126  0.4813 -0.4674  0.9934
43351SOL     OW40366   2.484   2.873   1.129 -0.3165 -0.2846 -0.1072
43351SOL    HW140367   2.494   2.963   1.100 -0.7387 -0.4487 -0.7937
43351SOL    HW240368   2.418   2.877   1.198 -0.7371 -0.1423 -0.5190
43352SOL     OW40369   9.181   8.670  11.476  0.3683  0.4903 -0.3320
43352SOL    HW140370   9.204   8.619  11.554  1.5428  0.0955 -0.9136
43352SOL    HW240371   9.086   8.681  11.482  0.3618 -0.0078  0.8636
43353SOL     OW40372   4.576  11.933   4.515  0.6367 -0.3077  0.8289
43353SOL    HW140373   4.638  11.983   4.568 -0.2850  0.1022  1.5494
43353SOL    HW240374   4.579  11.845   4.552  1.8740 -0.6835 -0.1040
43354SOL     OW40375  12.653  11.289   9.042  0.0500  0.1726 -0.2249
43354SOL    HW140376  12.653  11.364   8.983  0.5356 -0.5051 -1.1222
43354SOL    HW240377  12.717  11.229   9.004 -0.4946 -0.7973  0.3445
43355SOL     OW40378   2.651  11.189   3.672 -0.3911  0.2584  0.3994
43355SOL    HW140379   2.689  11.148   3.594 -0.8522  1.2726 -0.3745
43355SOL    HW240380   2.588  11.252   3.638 -0.4145  0.9079  1.5930
43356SOL     OW40381   0.569   4.713   6.470 -0.4546 -0.3564  0.4481
43356SOL    HW140382   0.539   4.801   6.446 -0.5772  0.0617  2.0524
43356SOL    HW240383   0.661   4.724   6.494  0.2835 -1.1516 -1.7729
43357SOL     OW40384   8.933   8.102   7.129  0.2016 -0.3048 -0.3624
43357SOL    HW140385   8.934   8.185   7.081 -1.0213 -0.6706 -1.0476
43357SOL    HW240386   8.965   8.125   7.217  0.0571  0.8514 -0.5956
43358SOL     OW40387   3.618   0.155   7.283  0.0818 -0.1807  0.4270
43358SOL    HW140388   3.647   0.077   7.330 -2.2673 -2.0438 -0.9765
43358SOL    HW240389   3.661   0.228   7.328  2.7352 -2.2544  1.5517
43359SOL     OW40390   0.485   1.319   3.431  0.0908  0.1612  0.0374
43359SOL    HW140391   0.484   1.378   3.355 -0.6141 -1.8283 -1.6081
43359SOL    HW240392   0.401   1.274   3.428  1.1127 -1.8987  0.3627
43360SOL     OW40393   8.599   2.088  10.070  0.8491 -0.2116  0.2213
43360SOL    HW140394   8.614   2.181  10.051  2.1633 -0.1545  1.3445
43360SOL    HW240395   8.609   2.044   9.986 -0.7534  0.7440 -0.5057
43361SOL     OW40396  10.767   0.471   0.075  0.4513 -0.1244 -0.1837
43361SOL    HW140397  10.749   0.479  -0.019  0.3600 -0.4772 -0.1977
43361SOL    HW240398  10.859   0.446   0.080 -0.2797 -3.2728 -0.3367
43362SOL     OW40399   3.354   2.607  10.777 -0.4909  0.4274 -0.6593
43362SOL    HW140400   3.394   2.663  10.711  1.0671 -0.0910 -0.2047
43362SOL    HW240401   3.304   2.667  10.833 -0.1178  1.1438 -1.0901
43363SOL     OW40402   6.080   7.623   7.726  0.1124 -0.4684  0.5303
43363SOL    HW140403   6.017   7.685   7.762 -0.0092 -0.6423  0.6182
43363SOL    HW240404   6.144   7.678   7.681  0.3854 -0.2286  1.1938
43364SOL     OW40405   7.061   4.769   6.762  0.3106 -0.1185  0.3294
43364SOL    HW140406   7.081   4.843   6.705 -2.9563 -0.6509 -1.7319
43364SOL    HW240407   6.965   4.766   6.765  0.3382 -3.3384  1.6066
43365SOL     OW40408   1.432   2.892   2.906 -0.1697 -0.4373 -0.0824
43365SOL    HW140409   1.402   2.880   2.996  0.2470  0.2271  0.1551
43365SOL    HW240410   1.518   2.932   2.915 -0.6039  0.7007 -0.7698
43366SOL     OW40411   5.410  12.275   6.156  0.2775  1.4519  0.2181
43366SOL    HW140412   5.498  12.296   6.125 -0.3687  2.6725 -0.8696
43366SOL    HW240413   5.420  12.191   6.201  1.6771  0.6727 -1.4402
43367SOL     OW40414   9.930   7.868  11.091  0.2218  0.3390  0.3684
43367SOL    HW140415  10.003   7.839  11.146  0.2032  0.8142  0.6481
43367SOL    HW240416   9.863   7.898  11.153  0.1428  0.7428  0.0918
43368SOL     OW40417   9.899   7.378   2.927 -0.5148  0.0517  0.0660
43368SOL    HW140418   9.874   7.286   2.932 -0.4149 -0.1942 -2.5275
43368SOL    HW240419   9.828   7.425   2.970 -0.6695 -1.1996  1.2294
43369SOL     OW40420   7.426  10.309   6.070 -0.2265  0.4034  0.2745
43369SOL    HW140421   7.476  10.372   6.018  0.2391  0.7512  1.1350
43369SOL    HW240422   7.472  10.304   6.154  0.0264 -1.4385  0.0771
43370SOL     OW40423   5.734   0.925  10.846  0.4332  0.5548 -0.0011
43370SOL    HW140424   5.661   0.987  10.849 -0.5038 -0.4627 -0.8590
43370SOL    HW240425   5.802   0.971  10.795 -0.3077  0.8289 -0.7691
43371SOL     OW40426   9.627   8.366   9.155  0.1924 -0.1651  0.4697
43371SOL    HW140427   9.555   8.309   9.128  0.3142  0.9058 -2.5346
43371SOL    HW240428   9.606   8.390   9.245 -1.7778 -1.9869  0.5875
43372SOL     OW40429  12.718   6.463   6.023 -0.2521 -0.3776 -0.4786
43372SOL    HW140430  12.640   6.408   6.031  0.5733 -1.6536 -0.8894
43372SOL    HW240431  12.784   6.405   5.987  1.6712 -0.1197  2.3191
43373SOL     OW40432   2.893  10.742   6.251 -0.2707  0.1417 -0.0558
43373SOL    HW140433   2.936  10.785   6.325 -1.4264  0.1115  0.6784
43373SOL    HW240434   2.834  10.678   6.293 -0.0481 -0.7289 -1.0553
43374SOL     OW40435   8.958   4.664   6.149 -0.2346  0.0503  0.0908
43374SOL    HW140436   8.927   4.578   6.122 -0.1712  0.0452  0.0338
43374SOL    HW240437   8.926   4.675   6.239  1.7217 -1.0474  0.9964
43375SOL     OW40438   6.338  11.718   4.833  0.0466 -0.6386 -0.4721
43375SOL    HW140439   6.248  11.752   4.829  0.0383 -0.5900  0.0351
43375SOL    HW240440   6.392  11.795   4.852  0.1244 -0.7626 -0.1774
43376SOL     OW40441   0.901  10.836  10.636  0.1657 -0.2440 -0.1328
43376SOL    HW140442   0.855  10.829  10.552  1.4834 -0.0094 -0.9130
43376SOL    HW240443   0.897  10.749  10.673 -0.7403 -0.2671 -0.2778
43377SOL     OW40444   3.380  10.264  10.820 -0.1059 -0.4623 -0.3164
43377SOL    HW140445   3.304  10.206  10.805 -1.8331  1.7184 -0.4433
43377SOL    HW240446   3.391  10.264  10.915 -1.7076  0.8793 -0.0950
43378SOL     OW40447   0.768   0.565   8.708  0.0184  0.2617 -0.6074
43378SOL    HW140448   0.785   0.639   8.651  0.0604  0.7432  0.0154
43378SOL    HW240449   0.850   0.516   8.709  0.3530  0.8176 -0.1516
43379SOL     OW40450   3.375  10.799  11.660 -0.2059 -0.2631 -0.5453
43379SOL    HW140451   3.320  10.853  11.604  0.1462 -0.5774 -1.2115
43379SOL    HW240452   3.343  10.815  11.749  0.3876  1.6168 -0.6370
43380SOL     OW40453   5.369   1.898  10.313  0.1512 -0.2248  0.2414
43380SOL    HW140454   5.410   1.972  10.357  0.1109  0.2255 -0.4676
43380SOL    HW240455   5.430   1.873  10.244 -0.9726  0.7940 -1.1725
43381SOL     OW40456  11.606   2.028   8.035  0.0354  0.0750  0.0732
43381SOL    HW140457  11.527   1.977   8.049  0.6058 -0.8578 -0.0145
43381SOL    HW240458  11.609   2.044   7.941  1.4706 -2.4977 -0.4020
43382SOL     OW40459   3.127   1.996   4.298  0.1801 -0.4006  0.2324
43382SOL    HW140460   3.189   2.019   4.229  1.4610 -1.5227  0.9556
43382SOL    HW240461   3.114   1.901   4.288 -0.3780 -0.4051  0.9156
43383SOL     OW40462   1.144  11.878  10.464  0.2493 -0.4752 -0.0001
43383SOL    HW140463   1.162  11.791  10.427 -2.2822 -0.1753 -2.2554
43383SOL    HW240464   1.064  11.867  10.515 -0.5053  0.5913 -0.8825
43384SOL     OW40465   0.420   0.759   4.319  0.0785 -0.2444  0.0097
43384SOL    HW140466   0.439   0.853   4.322 -0.9311 -0.0245 -0.2596
43384SOL    HW240467   0.473   0.727   4.246 -1.1241  0.5002 -1.2235
43385SOL     OW40468  12.729   9.700   6.434 -0.0254 -0.2065  0.6845
43385SOL    HW140469  12.688   9.670   6.353 -0.3623  0.3081  0.6557
43385SOL    HW240470  12.690   9.646   6.503  0.8043 -1.1483  0.4326
43386SOL     OW40471   6.118   7.710   6.784 -0.2837  0.0248 -0.1454
43386SOL    HW140472   6.150   7.800   6.776  1.2561 -0.4593  0.2521
43386SOL    HW240473   6.142   7.683   6.873  2.9420 -2.0587 -1.4480
43387SOL     OW40474   3.496   5.067   5.097  0.3266 -0.4386  0.0159
43387SOL    HW140475   3.576   5.116   5.076  0.6683 -0.8704  0.3016
43387SOL    HW240476   3.484   5.009   5.022  0.9860 -1.2623  0.5254
43388SOL     OW40477   1.826  11.710   9.053 -0.4201 -0.3704  0.2804
43388SOL    HW140478   1.822  11.645   9.124  0.0431 -1.2244 -0.4665
43388SOL    HW240479   1.836  11.658   8.973 -0.4250  0.6091 -0.3694
43389SOL     OW40480   7.779   6.672   7.163  0.1362  0.6016  0.3821
43389SOL    HW140481   7.769   6.767   7.164 -0.8373  0.5252 -0.7095
43389SOL    HW240482   7.863   6.657   7.208  0.0676  1.9237  1.0160
43390SOL     OW40483   5.304  12.454   4.376  0.3607  0.4968  0.1849
43390SOL    HW140484   5.396  12.448   4.350  0.6057  2.5833  0.4448
43390SOL    HW240485   5.287  12.548   4.387 -1.3388  0.0697  1.8308
43391SOL     OW40486  10.719   9.396   7.342  0.1114 -0.0934  0.0570
43391SOL    HW140487  10.779   9.463   7.374  0.1315 -1.3730  2.9267
43391SOL    HW240488  10.635   9.417   7.383  0.7570 -3.3458  3.6491
43392SOL     OW40489   2.054  11.897  11.376 -0.3078  0.0602  0.3385
43392SOL    HW140490   2.056  11.955  11.453 -0.2562 -1.4548  1.5154
43392SOL    HW240491   2.129  11.925  11.324  0.6451  0.0473  1.6514
43393SOL     OW40492   0.330   2.028  12.185 -0.1192  0.5350  0.2050
43393SOL    HW140493   0.331   2.115  12.225  0.2812  0.8964 -0.5851
43393SOL    HW240494   0.320   2.044  12.091 -0.0013 -0.2719  0.0481
43394SOL     OW40495   3.225   8.070   9.638 -0.5511  0.4057 -0.0247
43394SOL    HW140496   3.163   8.006   9.675 -0.7956  1.5487  1.7005
43394SOL    HW240497   3.178   8.153   9.644  0.1985  0.9179 -1.1363
43395SOL     OW40498  11.010  12.271   7.250  0.1559  0.9527  0.2517
43395SOL    HW140499  11.062  12.346   7.279 -0.0285 -0.4224  4.9407
43395SOL    HW240500  10.926  12.309   7.223  0.1931  2.4890  2.1062
43396SOL     OW40501   6.877   9.443   3.813 -0.2011  0.1627  0.1238
43396SOL    HW140502   6.810   9.413   3.874  0.2566 -1.0690  0.0659
43396SOL    HW240503   6.916   9.519   3.854  0.4642 -0.9479  1.6481
43397SOL     OW40504   6.083   0.550  12.964  0.1413  0.2260 -0.2131
43397SOL    HW140505   6.072   0.553  13.059  2.2498  1.0256  0.0507
43397SOL    HW240506   6.006   0.596  12.930 -0.8569 -0.4447  1.0638
43398SOL     OW40507   5.198   1.882   8.192  0.6692 -0.3298  0.6507
43398SOL    HW140508   5.156   1.796   8.199 -0.6963  0.3618  1.2145
43398SOL    HW240509   5.258   1.885   8.267  0.3115 -0.5763  0.9542
43399SOL     OW40510   0.510   6.303   9.153  0.0799  0.2583  0.4011
43399SOL    HW140511   0.528   6.376   9.212 -2.7182  1.5464 -0.1892
43399SOL    HW240512   0.513   6.225   9.208  0.9583  1.0432  1.4936
43400SOL     OW40513   5.372   7.324   0.373  0.6318  0.1989 -0.3888
43400SOL    HW140514   5.311   7.397   0.375 -0.8987 -0.9161 -2.8459
43400SOL    HW240515   5.454   7.362   0.341 -0.0337  0.9388 -1.2568
43401SOL     OW40516   6.854   8.989   5.050 -0.3167 -0.3956 -0.3196
43401SOL    HW140517   6.896   8.988   4.964 -0.6207  0.4258 -0.4856
43401SOL    HW240518   6.887   9.068   5.092 -1.1791 -0.0882 -0.1941
43402SOL     OW40519   6.826  11.789   6.647  0.0734  0.0620  0.4310
43402SOL    HW140520   6.805  11.735   6.571 -0.7422 -0.0667  0.7338
43402SOL    HW240521   6.871  11.865   6.611  1.6307 -0.9932  0.0321
43403SOL     OW40522   2.049   1.270  12.566  0.3380 -0.1454  0.2319
43403SOL    HW140523   2.139   1.303  12.563  1.5902 -3.2421 -2.2353
43403SOL    HW240524   2.011   1.296  12.482 -1.3662  1.5935  1.4572
43404SOL     OW40525   6.095   9.149   9.033  0.1931  0.0056  1.1948
43404SOL    HW140526   6.062   9.059   9.036  0.3776 -0.1375 -0.2133
43404SOL    HW240527   6.059   9.191   9.111 -1.2356 -0.8452  1.0330
43405SOL     OW40528   6.650   9.152   5.810 -0.1593 -0.8472  0.0226
43405SOL    HW140529   6.608   9.236   5.792  0.4798 -0.7993 -1.4228
43405SOL    HW240530   6.592   9.110   5.874 -1.0826  0.2224 -0.0679
43406SOL     OW40531  11.838   3.883   4.918 -0.0748  0.0974 -0.0377
43406SOL    HW140532  11.800   3.965   4.887  0.1888 -0.3396 -1.5907
43406SOL    HW240533  11.871   3.840   4.839 -1.2995 -2.1009  0.5749
43407SOL     OW40534   9.007  11.102   9.354  0.0671 -0.1902 -0.0208
43407SOL    HW140535   9.066  11.142   9.418 -0.6294  1.7604 -0.5272
43407SOL    HW240536   8.950  11.046   9.406 -2.1946  3.2955  1.6186
43408SOL     OW40537   6.846   7.085   7.888  0.6607  0.4859 -0.1231
43408SOL    HW140538   6.792   7.149   7.843  0.8464  0.2225 -0.7208
43408SOL    HW240539   6.935   7.102   7.857  0.6752 -0.2218 -0.4716
43409SOL     OW40540   0.115   2.378   5.585  0.0521  0.0780  0.6325
43409SOL    HW140541   0.051   2.419   5.527  1.6260  0.9372 -0.6034
43409SOL    HW240542   0.130   2.292   5.546  0.0028  0.0751  0.6204
43410SOL     OW40543   4.178   6.382   4.330 -0.0586 -0.0944  0.4219
43410SOL    HW140544   4.258   6.403   4.282  1.2733 -0.4607  2.3774
43410SOL    HW240545   4.113   6.445   4.298  1.1376  0.5500 -0.8086
43411SOL     OW40546   8.091   1.573   9.486 -0.3051  0.6594 -0.2214
43411SOL    HW140547   8.175   1.528   9.486 -0.7231 -0.1848  1.2128
43411SOL    HW240548   8.047   1.541   9.407  0.7661  1.2551 -1.0811
43412SOL     OW40549   5.742   4.669   9.180  0.5955  0.5230  0.5649
43412SOL    HW140550   5.748   4.573   9.176  1.2008  0.5648  0.3613
43412SOL    HW240551   5.671   4.686   9.242 -0.5267 -0.0689 -0.4966
43413SOL     OW40552   8.967   4.055   6.686  0.1723  0.3049 -0.5011
43413SOL    HW140553   8.908   4.058   6.761 -0.4148  0.4343 -0.9644
43413SOL    HW240554   9.052   4.032   6.724 -0.1068  0.4108  0.2074
43414SOL     OW40555   1.635   9.503   0.523 -0.2821  0.9041 -0.2365
43414SOL    HW140556   1.583   9.538   0.596 -0.8789 -0.5543  0.0890
43414SOL    HW240557   1.723   9.495   0.558 -0.1502  1.9768 -0.2974
43415SOL     OW40558   6.142   7.797   7.337  0.7100  0.1153 -0.2809
43415SOL    HW140559   6.148   7.702   7.328 -0.0057  0.2069 -2.3250
43415SOL    HW240560   6.224   7.830   7.302  1.1750  0.2730  0.8949
43416SOL     OW40561   8.601   6.390   1.566 -0.0280  0.2370 -0.4473
43416SOL    HW140562   8.509   6.362   1.562 -0.3516  1.2284 -0.2046
43416SOL    HW240563   8.618   6.431   1.482 -0.2053  1.1962 -0.0346
43417SOL     OW40564   2.757  11.700   0.994  0.7051  0.0408 -0.1608
43417SOL    HW140565   2.749  11.747   0.911 -1.4076 -1.1199 -0.6982
43417SOL    HW240566   2.812  11.755   1.048 -1.2536  2.9193 -0.8898
43418SOL     OW40567   2.637   7.358  11.626 -0.2410  0.7712 -0.8294
43418SOL    HW140568   2.615   7.265  11.625  0.5073  0.5912 -1.0086
43418SOL    HW240569   2.569   7.398  11.680 -0.9269  0.2143 -1.2533
43419SOL     OW40570   3.689   6.735   2.965 -0.4240  0.2687  0.4769
43419SOL    HW140571   3.635   6.782   2.900 -1.1952  0.2881  1.1184
43419SOL    HW240572   3.661   6.644   2.958  0.5902 -0.0000 -0.2875
43420SOL     OW40573   6.844  12.159   6.858  0.3346  0.3651 -0.0993
43420SOL    HW140574   6.911  12.130   6.797  0.0706 -1.0011  0.2271
43420SOL    HW240575   6.892  12.180   6.938  0.3282 -1.4387  0.4192
43421SOL     OW40576   1.241   7.528  11.386 -0.2672 -0.0041 -0.5668
43421SOL    HW140577   1.300   7.587  11.339  1.6907 -1.1050  0.3896
43421SOL    HW240578   1.254   7.442  11.345  1.5211 -1.0081  1.8628
43422SOL     OW40579   4.576  12.047   0.147  0.1906 -0.5542  0.1449
43422SOL    HW140580   4.653  12.026   0.095  0.1217  1.0891 -0.7168
43422SOL    HW240581   4.565  12.142   0.136 -2.1689 -0.7933 -0.0778
43423SOL     OW40582   0.890   2.317   7.484 -0.0354 -0.3587  0.2588
43423SOL    HW140583   0.840   2.236   7.470 -1.9336  0.4134  1.9796
43423SOL    HW240584   0.952   2.295   7.553 -0.3651 -0.4318  0.5355
43424SOL     OW40585   9.435  10.172  10.565  0.1593  0.2711 -0.3930
43424SOL    HW140586   9.471  10.248  10.520  0.8640  0.4833  0.4901
43424SOL    HW240587   9.418  10.203  10.654  0.8298 -0.6978  0.0884
43425SOL     OW40588  10.580   1.631   2.099 -0.1538  0.1829 -0.0036
43425SOL    HW140589  10.530   1.593   2.171  1.9019 -3.5821 -0.3267
43425SOL    HW240590  10.532   1.606   2.020  0.5215 -0.6716 -0.1587
43426SOL     OW40591   8.909   0.169   0.900 -0.0725  0.1947 -0.2896
43426SOL    HW140592   8.901   0.261   0.928 -1.2953  0.0042  0.0505
43426SOL    HW240593   8.992   0.166   0.852  0.2062  1.3802  0.0717
43427SOL     OW40594   6.553   0.674  10.958 -0.2906  0.0993  0.2251
43427SOL    HW140595   6.601   0.595  10.933 -0.5627 -0.1022  0.3327
43427SOL    HW240596   6.597   0.704  11.038  0.2129  0.4155 -0.1669
43428SOL     OW40597   9.032   3.092   5.011 -0.2808 -0.0161 -0.1725
43428SOL    HW140598   8.970   3.103   5.083 -1.3416 -0.1645 -1.0325
43428SOL    HW240599   9.016   3.167   4.954 -1.0373 -1.0617 -1.3713
43429SOL     OW40600  10.896   2.797  12.578 -0.0409 -0.0588  0.8416
43429SOL    HW140601  10.954   2.791  12.655  0.2465 -0.3225  0.6087
43429SOL    HW240602  10.905   2.888  12.549  0.1862 -0.0740  0.8619
43430SOL     OW40603  12.957  10.168   0.669 -0.1624  0.4311  0.2925
43430SOL    HW140604  12.937  10.119   0.589 -1.0282  1.8410 -0.3872
43430SOL    HW240605  12.982  10.255   0.638 -0.8889  1.1186  1.5690
43431SOL     OW40606   1.112   1.728  12.539  0.4121  0.0130  0.2370
43431SOL    HW140607   1.187   1.752  12.595  1.7781 -1.6775 -0.7687
43431SOL    HW240608   1.073   1.812  12.515  1.3069  0.8904  1.6847
43432SOL     OW40609   0.069   0.590   0.708  0.4548  0.1432  0.4871
43432SOL    HW140610   0.139   0.555   0.763  0.2194 -0.2140  0.5570
43432SOL    HW240611   0.100   0.678   0.684  1.5870 -0.5240 -0.6506
43433SOL     OW40612   5.705   4.691   3.136 -0.1948 -0.1725  0.0680
43433SOL    HW140613   5.628   4.718   3.185  0.8235  0.4706  1.3856
43433SOL    HW240614   5.743   4.773   3.103  0.4319 -0.3933  0.2282
43434SOL     OW40615  10.799   7.142   1.794  0.1332 -0.0286 -0.1477
43434SOL    HW140616  10.728   7.199   1.763  1.2530  1.2222 -0.5348
43434SOL    HW240617  10.853   7.200   1.848 -0.6312 -1.6423  2.5193
43435SOL     OW40618   7.576   1.665   7.534  0.0924  0.2838 -0.4980
43435SOL    HW140619   7.508   1.732   7.543 -0.9062 -0.7318 -0.2295
43435SOL    HW240620   7.622   1.689   7.454  0.5969  2.0022  0.2464
43436SOL     OW40621  11.496   4.890  11.493  0.0568 -0.1969  0.0727
43436SOL    HW140622  11.424   4.946  11.463 -0.7177 -1.2386 -0.0599
43436SOL    HW240623  11.454   4.823  11.547  0.8490 -1.1587 -0.4618
43437SOL     OW40624  12.872  10.709   8.567 -0.1610 -0.2228  0.1430
43437SOL    HW140625  12.802  10.704   8.633  0.0361 -0.5761  0.3309
43437SOL    HW240626  12.919  10.790   8.588  0.6153 -0.9032  1.1730
43438SOL     OW40627   0.022   7.500   2.367  0.0371 -0.1130  0.3830
43438SOL    HW140628   0.117   7.507   2.377  0.0589  1.2721 -0.4636
43438SOL    HW240629  -0.001   7.416   2.407  1.7178 -0.8624 -0.1538
43439SOL     OW40630   0.620   8.910   0.095 -0.2191 -0.5060  0.1365
43439SOL    HW140631   0.544   8.957   0.130  0.7882  0.1992  1.4632
43439SOL    HW240632   0.674   8.978   0.055 -0.0973 -0.9531 -0.4734
43440SOL     OW40633   9.758  10.298   8.057  0.4608 -0.6075  0.2441
43440SOL    HW140634   9.752  10.222   8.115 -1.0145 -0.4503  0.3409
43440SOL    HW240635   9.807  10.363   8.107 -0.4873 -0.5980  1.2051
43441SOL     OW40636   6.146   8.022   3.443  0.2094  0.4850 -0.0459
43441SOL    HW140637   6.079   7.969   3.401  0.7523 -0.5290  0.3485
43441SOL    HW240638   6.204   7.959   3.487  1.7011  1.2929 -0.7650
43442SOL     OW40639  12.585   2.404   9.802 -0.2676  0.4726  0.2161
43442SOL    HW140640  12.493   2.429   9.802 -0.7490 -1.1360 -0.7662
43442SOL    HW240641  12.606   2.390   9.894 -1.1790  0.3255  0.4137
43443SOL     OW40642   6.256   0.828   6.573 -0.2147  0.1030 -0.2810
43443SOL    HW140643   6.319   0.791   6.635 -0.1731 -0.0589 -0.4220
43443SOL    HW240644   6.258   0.922   6.590  1.6124  0.3714 -1.7226
43444SOL     OW40645   7.587   2.699   5.316  0.0314 -0.0342  0.3920
43444SOL    HW140646   7.627   2.748   5.244 -0.2771 -0.0246  0.2233
43444SOL    HW240647   7.584   2.608   5.285  0.4420 -0.1335  0.6337
43445SOL     OW40648   5.929  10.000   5.836  0.4981  0.0103  0.5901
43445SOL    HW140649   6.016   9.964   5.815 -0.3186 -1.2299 -0.8962
43445SOL    HW240650   5.889   9.933   5.892 -0.2736 -0.5062 -0.5264
43446SOL     OW40651  11.141   0.460  10.299  0.0122  0.2145  0.2636
43446SOL    HW140652  11.085   0.429  10.370  1.0197  0.4568  1.1757
43446SOL    HW240653  11.142   0.555  10.308  0.6939  0.1993  0.3413
43447SOL     OW40654  10.302   8.604   5.891  0.1958 -0.1089 -0.3827
43447SOL    HW140655  10.383   8.656   5.887  0.8458 -0.5947  3.0039
43447SOL    HW240656  10.238   8.656   5.843  1.3069  2.9755  1.1888
43448SOL     OW40657   9.031  11.602   6.960 -0.0468 -0.0675 -0.1794
43448SOL    HW140658   8.939  11.599   6.985  0.2206 -2.4259  0.7868
43448SOL    HW240659   9.033  11.655   6.881 -2.0297  1.1590  0.5319
43449SOL     OW40660   6.830   3.369   9.128  0.0229 -0.2611 -0.3967
43449SOL    HW140661   6.753   3.312   9.118 -0.3111  0.4081 -2.0242
43449SOL    HW240662   6.828   3.396   9.219 -1.3855 -0.6690 -0.2778
43450SOL     OW40663   3.094   0.876   5.386  0.3224 -0.3549 -0.2518
43450SOL    HW140664   3.143   0.823   5.324  2.9119  1.2076  0.3129
43450SOL    HW240665   3.107   0.833   5.471  0.6947  0.0520 -0.1011
43451SOL     OW40666   7.881  11.883  11.586 -1.4501 -0.5628  0.1510
43451SOL    HW140667   7.861  11.930  11.505 -1.4162  0.4039  0.6867
43451SOL    HW240668   7.915  11.798  11.557 -1.6997 -0.3341 -0.8381
43452SOL     OW40669  11.436   9.222   1.529 -0.0881  0.2196  0.0604
43452SOL    HW140670  11.470   9.189   1.612 -0.0400  0.3739  0.1018
43452SOL    HW240671  11.348   9.185   1.524  0.4814 -1.1147 -0.5797
43453SOL     OW40672   6.986   2.141   4.816 -0.2907 -0.0395  0.2125
43453SOL    HW140673   6.946   2.228   4.812 -0.6067 -0.2223 -1.3004
43453SOL    HW240674   7.064   2.152   4.869 -1.0807  0.8493  1.2238
43454SOL     OW40675   4.000   1.200  11.353 -0.0652  0.2029 -0.4376
43454SOL    HW140676   3.929   1.258  11.383 -2.0904 -2.2101 -0.2621
43454SOL    HW240677   3.979   1.183  11.261  0.7120  0.0418 -0.5863
43455SOL     OW40678   5.231  10.520  10.617 -0.1843  0.0642  0.2993
43455SOL    HW140679   5.263  10.463  10.688 -1.3029 -1.9351 -0.7002
43455SOL    HW240680   5.221  10.606  10.658  0.1119 -0.8084  2.3211
43456SOL     OW40681   4.452   6.360   0.565  0.6749  0.4720  0.3378
43456SOL    HW140682   4.396   6.395   0.635  0.6050 -1.0415  1.0832
43456SOL    HW240683   4.505   6.293   0.609  0.7464 -0.3937 -1.0429
43457SOL     OW40684   9.872   3.596   7.945  0.3708 -0.3840 -0.2106
43457SOL    HW140685   9.823   3.568   7.868  1.3484  1.4307 -1.5730
43457SOL    HW240686   9.935   3.526   7.960 -0.2920 -1.0833 -0.5969
43458SOL     OW40687   9.710   4.722   1.079  0.4019 -0.7499 -0.0326
43458SOL    HW140688   9.662   4.641   1.062  0.9079 -0.7716 -1.4592
43458SOL    HW240689   9.658   4.767   1.146 -1.1178 -1.2069 -0.8572
43459SOL     OW40690  10.223   5.008   3.593 -0.0071 -0.3865 -0.7713
43459SOL    HW140691  10.188   5.008   3.682 -2.0591 -0.5106 -1.5213
43459SOL    HW240692  10.207   4.920   3.560  1.8083 -0.6933 -0.8936
43460SOL     OW40693   4.794   3.128  10.191  0.6310 -0.3808 -0.1228
43460SOL    HW140694   4.720   3.075  10.162  1.7564 -0.8502 -2.3807
43460SOL    HW240695   4.790   3.124  10.287 -1.7925 -0.9821 -0.1782
43461SOL     OW40696   1.415  12.018   4.093 -0.1709  0.1593  0.2834
43461SOL    HW140697   1.488  11.975   4.049  0.5758 -0.3162  1.9193
43461SOL    HW240698   1.337  11.978   4.055  0.4139  0.2694 -1.0799
43462SOL     OW40699   7.047   0.075  10.114 -0.3047  0.3794 -0.1470
43462SOL    HW140700   7.039  -0.015  10.148 -0.5736  0.8600  1.1297
43462SOL    HW240701   7.030   0.067  10.021 -1.4806 -0.7387  0.1335
43463SOL     OW40702   6.929   1.056   5.270 -0.0081  0.0199 -0.2481
43463SOL    HW140703   6.909   1.046   5.177  1.1903 -2.0749 -0.3338
43463SOL    HW240704   7.014   1.099   5.272  0.4018 -0.7793 -0.1612
43464SOL     OW40705   8.523   1.817   8.220 -0.6361 -0.0305  0.8686
43464SOL    HW140706   8.493   1.869   8.295 -2.0632  0.7951 -0.2380
43464SOL    HW240707   8.443   1.787   8.178  0.1087  0.1272 -0.7356
43465SOL     OW40708   5.186   8.844  11.904  0.8083 -0.3244 -0.2339
43465SOL    HW140709   5.279   8.831  11.922  0.8197  0.8561  0.6362
43465SOL    HW240710   5.143   8.835  11.989  0.1343 -0.6705 -0.6001
43466SOL     OW40711  10.816  11.312   4.126 -0.0228  0.4783 -0.5784
43466SOL    HW140712  10.837  11.401   4.096 -1.7399  1.1315  0.0316
43466SOL    HW240713  10.819  11.317   4.221  0.6172 -0.3248 -0.5504
43467SOL     OW40714   1.911   7.317   9.933 -0.4434 -0.0186  0.1602
43467SOL    HW140715   1.848   7.384   9.906 -0.2059 -0.5611 -1.8962
43467SOL    HW240716   1.872   7.234   9.903  1.1846 -0.3644 -1.1546
43468SOL     OW40717  11.158   8.918   2.762  0.4984  0.6093  0.1386
43468SOL    HW140718  11.093   8.927   2.831 -0.1170  1.6182 -0.5482
43468SOL    HW240719  11.113   8.946   2.682  1.1711 -0.5887 -0.6988
43469SOL     OW40720   3.924   8.459   1.627 -0.0994  1.0668 -0.6295
43469SOL    HW140721   4.007   8.496   1.596  0.3722  0.7868  0.2681
43469SOL    HW240722   3.944   8.366   1.641 -0.9755  0.6710 -1.8251
43470SOL     OW40723   3.601   3.773   9.408  0.0102 -0.3068 -0.2250
43470SOL    HW140724   3.544   3.803   9.337 -0.9527  0.8578  0.9943
43470SOL    HW240725   3.609   3.848   9.466  0.7222 -1.2508  0.9425
43471SOL     OW40726   7.065   6.152   6.653  0.5420 -0.2383  0.4122
43471SOL    HW140727   7.114   6.222   6.696  0.4988 -1.0272  1.7960
43471SOL    HW240728   7.051   6.087   6.722 -0.6652 -0.9587 -0.4850
43472SOL     OW40729   3.227   6.239   6.712 -0.3912  0.5940 -0.0219
43472SOL    HW140730   3.205   6.170   6.650  1.4400  0.3581 -0.4609
43472SOL    HW240731   3.232   6.319   6.658 -2.2040  1.0557  0.4323
43473SOL     OW40732   5.961  12.451  10.714 -0.2977  0.0269 -0.6401
43473SOL    HW140733   6.030  12.461  10.649 -0.1047 -1.2330 -0.6520
43473SOL    HW240734   6.008  12.443  10.797 -0.2459 -2.8722 -0.8547
43474SOL     OW40735  12.087   1.125  10.029 -0.0954 -0.3434 -0.1032
43474SOL    HW140736  12.054   1.102  10.115  0.4068 -0.6438  0.0175
43474SOL    HW240737  12.174   1.083  10.025  0.6621  1.1579 -0.0565
43475SOL     OW40738   9.762   9.210   9.322 -0.4294  0.0717  0.2686
43475SOL    HW140739   9.778   9.219   9.416 -1.0677  0.6336  0.3273
43475SOL    HW240740   9.682   9.260   9.306 -1.5239 -1.7109 -0.2069
43476SOL     OW40741   4.743   1.250   5.696  0.3260  0.4301 -0.0383
43476SOL    HW140742   4.774   1.195   5.624  1.9533  0.8923  0.2522
43476SOL    HW240743   4.733   1.337   5.657  2.3970  0.9626  0.4947
43477SOL     OW40744   1.648   8.014   2.722  0.6725  0.4260 -0.1668
43477SOL    HW140745   1.639   8.069   2.644 -1.1203 -0.2654 -0.5069
43477SOL    HW240746   1.586   7.942   2.707  0.8780 -0.1411  1.5439
43478SOL     OW40747   8.818   6.662   4.189 -0.1865 -0.6022  0.0655
43478SOL    HW140748   8.888   6.596   4.185  0.7267  0.3798 -1.0410
43478SOL    HW240749   8.863   6.743   4.214 -1.1430 -0.1870  0.5062
43479SOL     OW40750   3.791   4.311  10.913  0.0166 -0.3033  0.1865
43479SOL    HW140751   3.830   4.398  10.898 -0.1863 -0.4275 -1.2735
43479SOL    HW240752   3.781   4.275  10.825 -2.0545 -0.8625  0.6018
43480SOL     OW40753   8.557  10.843   1.222 -0.0737 -0.6018 -0.6752
43480SOL    HW140754   8.481  10.801   1.261  0.7227 -0.8213  0.7250
43480SOL    HW240755   8.574  10.919   1.277 -0.6877  0.8510 -2.3974
43481SOL     OW40756   2.100   8.209   4.091 -0.0390  0.5585  0.1010
43481SOL    HW140757   2.162   8.262   4.041  0.2413  0.6897  0.5746
43481SOL    HW240758   2.043   8.273   4.133  0.2077  0.4890  0.5555
43482SOL     OW40759   4.215  12.463   4.856 -0.2902  0.0049  0.1691
43482SOL    HW140760   4.204  12.474   4.761 -1.3260  0.8462  0.3702
43482SOL    HW240761   4.301  12.422   4.865  0.7298  1.7182 -1.0462
43483SOL     OW40762  12.197   3.468   5.753 -0.0637  0.0238  0.2893
43483SOL    HW140763  12.184   3.505   5.666 -1.2396 -0.6802  0.1572
43483SOL    HW240764  12.156   3.531   5.812  1.4968  0.9493  0.4475
43484SOL     OW40765   3.059   7.312   1.049  0.5218  0.4119 -0.2131
43484SOL    HW140766   3.110   7.251   0.996  0.3568 -0.1674  0.2794
43484SOL    HW240767   3.087   7.398   1.020  2.5132  0.1322  0.7102
43485SOL     OW40768   7.314   9.696   6.357  0.0673 -0.4063 -0.5065
43485SOL    HW140769   7.404   9.687   6.389 -0.2195 -0.5329  0.2856
43485SOL    HW240770   7.305   9.628   6.290  1.0813  0.6877 -1.8200
43486SOL     OW40771   8.466   2.988   2.609  0.3203  0.1316  0.2344
43486SOL    HW140772   8.391   2.967   2.665  0.7415 -1.4219  0.2652
43486SOL    HW240773   8.483   2.907   2.560  1.6270  0.6292 -0.1806
43487SOL     OW40774   0.503   6.630   3.415  0.1058  0.4891 -0.3348
43487SOL    HW140775   0.491   6.721   3.442 -0.1162  0.5033 -0.4863
43487SOL    HW240776   0.598   6.619   3.411  0.1812  0.2853  1.1544
43488SOL     OW40777  10.823   3.482   7.440  1.1022  0.0764 -0.1308
43488SOL    HW140778  10.871   3.455   7.519 -0.6230  1.3445  1.4499
43488SOL    HW240779  10.810   3.402   7.391  1.9294 -0.8165  1.0522
43489SOL     OW40780  11.392   1.871  12.695 -0.5964  0.1755  0.1141
43489SOL    HW140781  11.440   1.949  12.722  1.6254 -1.2295  0.5795
43489SOL    HW240782  11.365   1.830  12.777  0.3780 -0.7248  0.0156
43490SOL     OW40783   4.679   6.696   7.573 -0.5108 -0.5112  0.0554
43490SOL    HW140784   4.766   6.712   7.538 -0.8231 -0.6790 -0.8091
43490SOL    HW240785   4.694   6.648   7.655  0.1468 -2.2835 -1.0652
43491SOL     OW40786   8.375   8.382  11.133  0.2406  0.5166  0.4268
43491SOL    HW140787   8.321   8.432  11.194  0.6731  0.5215  0.8076
43491SOL    HW240788   8.410   8.448  11.072 -0.8169  0.4146 -0.3195
43492SOL     OW40789   6.214   7.950  10.130  0.1242  0.1304  0.4502
43492SOL    HW140790   6.203   7.995  10.213  0.3342  0.3132  0.3772
43492SOL    HW240791   6.308   7.952  10.113 -0.0260  1.1726 -0.3884
43493SOL     OW40792   2.281  10.093   2.627  0.3261 -0.4080  0.0611
43493SOL    HW140793   2.373  10.092   2.599 -0.2311  1.0529 -2.0817
43493SOL    HW240794   2.243  10.013   2.588  0.8792 -1.6207  1.8964
43494SOL     OW40795   9.378   0.380   5.504 -0.0268 -0.3040  0.5602
43494SOL    HW140796   9.366   0.436   5.427  0.4717  0.2406  0.8751
43494SOL    HW240797   9.317   0.307   5.490  1.3816 -1.1997 -1.2742
43495SOL     OW40798   4.930   0.634   4.024  0.1706 -0.5360  0.1220
43495SOL    HW140799   4.968   0.644   3.937  0.3497 -3.6442 -0.2714
43495SOL    HW240800   4.864   0.566   4.014  0.4525 -1.2604  2.4722
43496SOL     OW40801  12.454   0.295   9.236  0.1025 -0.3957  0.4661
43496SOL    HW140802  12.521   0.360   9.260  0.5631 -0.7653  0.2006
43496SOL    HW240803  12.477   0.217   9.288  1.2821 -1.3019 -1.3191
43497SOL     OW40804   1.758   7.351   0.750  0.2128  0.1000  0.5912
43497SOL    HW140805   1.673   7.341   0.793 -0.9310 -1.1034 -1.7321
43497SOL    HW240806   1.783   7.262   0.726  0.8147  0.6880 -1.0891
43498SOL     OW40807  11.638  11.464  11.195 -0.4617 -0.2234  0.3573
43498SOL    HW140808  11.711  11.421  11.150  0.5184  1.5822  0.0897
43498SOL    HW240809  11.647  11.437  11.286  2.3749  2.0756  0.9297
43499SOL     OW40810   6.419  10.326   6.237  0.9920 -0.1675 -0.1026
43499SOL    HW140811   6.392  10.392   6.173  0.4157 -0.3371 -0.0401
43499SOL    HW240812   6.413  10.371   6.322 -1.1058 -0.7793  0.1281
43500SOL     OW40813   3.217  12.874   6.594 -0.0587  0.3470  0.2201
43500SOL    HW140814   3.200  12.888   6.687 -0.8858  0.4940  0.0543
43500SOL    HW240815   3.217  12.779   6.582  2.6878  0.1873  0.8265
43501SOL     OW40816   6.974   0.753   3.559 -0.1731  0.4185  0.5704
43501SOL    HW140817   7.051   0.773   3.506 -0.6125  1.4541  0.3033
43501SOL    HW240818   6.903   0.802   3.518 -0.6192  0.8967  1.8510
43502SOL     OW40819  10.997  11.635   0.858  0.1374  0.2053 -0.0981
43502SOL    HW140820  10.991  11.711   0.916 -0.8420  0.9909 -1.1790
43502SOL    HW240821  11.061  11.578   0.901  1.0614  1.7093  0.6520
43503SOL     OW40822  10.901   4.975   0.399  0.2701  0.2431  0.0071
43503SOL    HW140823  10.913   4.897   0.346  0.1003 -0.5055  1.0493
43503SOL    HW240824  10.808   4.996   0.391  0.3945  0.5827 -0.5944
43504SOL     OW40825   3.893  12.547   6.609 -0.0421  0.5533 -0.5093
43504SOL    HW140826   3.931  12.487   6.545  0.5333  1.8358 -1.4142
43504SOL    HW240827   3.929  12.633   6.585 -1.7474  1.4530  0.0112
43505SOL     OW40828  11.170   7.106   1.511 -0.2178  0.1389  0.3126
43505SOL    HW140829  11.202   7.173   1.451 -2.6610  1.4621  0.3359
43505SOL    HW240830  11.169   7.026   1.460  1.6310  0.3176 -0.0832
43506SOL     OW40831  11.131   9.598   4.048  0.1447  0.2609 -0.0953
43506SOL    HW140832  11.143   9.690   4.027  0.4004  0.1138 -0.6062
43506SOL    HW240833  11.219   9.564   4.061  0.0568  0.0687  0.0094
43507SOL     OW40834   2.405   0.866   1.182 -0.2474  0.3413  0.0655
43507SOL    HW140835   2.326   0.887   1.231 -0.0687  0.3004  0.3715
43507SOL    HW240836   2.386   0.895   1.093 -0.2431  1.2291  0.3427
43508SOL     OW40837   7.385  12.388   4.016  0.0799 -0.2093 -0.1788
43508SOL    HW140838   7.458  12.449   4.025  1.1329 -1.4116 -0.1471
43508SOL    HW240839   7.366  12.360   4.106 -1.2363  0.9713 -0.0584
43509SOL     OW40840   5.855   7.008   0.973  0.3584  0.3039 -0.0851
43509SOL    HW140841   5.842   6.920   0.937 -0.2353  0.8471 -1.2494
43509SOL    HW240842   5.821   7.067   0.905  1.6205  1.4754  0.2697
43510SOL     OW40843   5.808   4.879   3.563 -0.3078  0.0199  0.0916
43510SOL    HW140844   5.882   4.893   3.621 -0.7663  0.1296  0.6623
43510SOL    HW240845   5.833   4.803   3.510  0.6181  0.6617 -0.4169
43511SOL     OW40846   4.551   6.312   5.225 -0.1776 -0.6214 -0.0112
43511SOL    HW140847   4.571   6.390   5.276 -0.2039 -2.3326  2.8157
43511SOL    HW240848   4.492   6.343   5.156 -0.4065  1.7931  1.1675
43512SOL     OW40849   4.690   6.532   1.178  0.0636 -0.4601  0.0500
43512SOL    HW140850   4.667   6.439   1.177  0.5965 -0.6308  1.5062
43512SOL    HW240851   4.764   6.538   1.238  2.1382  0.4869 -2.4336
43513SOL     OW40852   5.803  12.028   8.962  0.6397  0.2912 -0.4852
43513SOL    HW140853   5.893  12.013   8.990  0.8143  2.1055  0.0227
43513SOL    HW240854   5.763  11.941   8.963  1.8009 -0.2773  1.3293
43514SOL     OW40855   2.681  11.861   2.746 -0.2211 -0.0879  0.2977
43514SOL    HW140856   2.699  11.929   2.681 -0.8774  0.9378  1.1557
43514SOL    HW240857   2.586  11.859   2.752 -0.1887 -0.8267  0.5551
43515SOL     OW40858  12.680   7.615   8.211  0.2185 -0.1987  0.0197
43515SOL    HW140859  12.636   7.540   8.251 -0.9942 -0.0023 -0.8737
43515SOL    HW240860  12.614   7.653   8.153  1.1780  0.8908 -0.3977
43516SOL     OW40861   2.426   5.754   8.330 -0.3780 -0.1356 -0.0854
43516SOL    HW140862   2.363   5.688   8.361  1.5538 -1.7578  0.5989
43516SOL    HW240863   2.494   5.754   8.397  0.9810  0.6544 -1.4283
43517SOL     OW40864   5.085   7.424  12.683  0.0306  0.0799  0.0845
43517SOL    HW140865   4.996   7.401  12.711  0.9858 -0.7544  2.6750
43517SOL    HW240866   5.132   7.341  12.681  0.7537  0.4903 -1.4400
43518SOL     OW40867   7.126   3.795   2.378  0.7250 -0.4154  0.0505
43518SOL    HW140868   7.140   3.769   2.469  0.0001 -1.3183 -0.0782
43518SOL    HW240869   7.211   3.780   2.335  1.1815  0.3797  0.6400
43519SOL     OW40870   6.936   2.219   3.660  0.6474  0.4664 -0.5630
43519SOL    HW140871   7.015   2.196   3.611  0.2930  0.7675 -1.2834
43519SOL    HW240872   6.935   2.315   3.660  0.9075  0.4812  0.4720
43520SOL     OW40873   1.265  12.309   6.887  0.2980 -1.1563 -0.0625
43520SOL    HW140874   1.268  12.262   6.803  0.3920  0.5641 -1.0734
43520SOL    HW240875   1.357  12.327   6.908  0.2146  2.1250 -1.8650
43521SOL     OW40876   7.391  12.939   5.659  0.2816 -0.0836  0.1994
43521SOL    HW140877   7.412  12.947   5.566 -0.1077 -0.6170  0.0627
43521SOL    HW240878   7.309  12.988   5.669 -0.0353 -0.5895  0.1238
43522SOL     OW40879   5.976   9.325  12.866  0.1575  0.1309 -0.6045
43522SOL    HW140880   6.056   9.373  12.844  1.5551 -1.6581  0.3611
43522SOL    HW240881   5.990   9.237  12.831 -0.3863 -0.8503  1.5120
43523SOL     OW40882   6.593   1.515   0.903 -0.2551  0.3125  0.4074
43523SOL    HW140883   6.563   1.460   0.974 -1.9886  1.0866  0.3259
43523SOL    HW240884   6.577   1.464   0.824 -2.8386  1.2495  0.2485
43524SOL     OW40885   7.469   6.518   9.852 -0.1052  0.4199 -0.3980
43524SOL    HW140886   7.399   6.581   9.837  0.3894  0.7580 -1.3630
43524SOL    HW240887   7.487   6.481   9.765 -0.2824 -0.9474  0.1233
43525SOL     OW40888   2.065  12.451   4.999  0.1080  0.2545  0.1434
43525SOL    HW140889   2.000  12.510   5.036  0.4199  1.2247 -0.7647
43525SOL    HW240890   2.075  12.481   4.908  0.4357 -1.0798 -0.2849
43526SOL     OW40891  12.630   4.399   8.327 -0.3317 -0.2880 -0.6033
43526SOL    HW140892  12.681   4.466   8.373 -0.6693 -0.7150  0.4183
43526SOL    HW240893  12.545   4.440   8.312  0.7849  1.1243 -3.9827
43527SOL     OW40894   2.600   3.040   6.219 -0.0637  0.2401  0.5328
43527SOL    HW140895   2.530   2.981   6.193 -0.1891  0.9313 -0.7593
43527SOL    HW240896   2.656   2.987   6.277 -0.6304 -0.8718  0.0893
43528SOL     OW40897   5.753  10.347   1.856  0.3178 -0.5820 -0.1520
43528SOL    HW140898   5.765  10.358   1.761  2.5252  0.6294  0.2039
43528SOL    HW240899   5.708  10.426   1.884  0.6711 -0.4140 -0.0477
43529SOL     OW40900   5.105   2.036   6.599  0.7299  0.1877  0.0988
43529SOL    HW140901   5.024   2.042   6.651  0.9072  1.2416  0.2710
43529SOL    HW240902   5.098   1.951   6.555 -0.3747  0.1695  0.2654
43530SOL     OW40903   7.250   6.022   2.270  0.0747  0.4763 -0.8317
43530SOL    HW140904   7.280   5.992   2.355  0.5681 -0.8901 -1.4591
43530SOL    HW240905   7.157   6.043   2.283 -0.3641 -1.5889 -0.4027
43531SOL     OW40906   4.611   0.758   8.811  0.4162  0.2174  0.0990
43531SOL    HW140907   4.669   0.688   8.843  1.0438  0.5988 -0.1783
43531SOL    HW240908   4.554   0.714   8.748  1.1341  0.0362 -0.4437
43532SOL     OW40909   2.076   5.776   1.486  0.3836  0.8376  0.0343
43532SOL    HW140910   2.007   5.731   1.438 -0.2486  0.7035  1.0323
43532SOL    HW240911   2.029   5.828   1.552  1.2329  0.5959  0.8555
43533SOL     OW40912   5.951  11.718   7.692 -0.0766 -0.5889 -0.2847
43533SOL    HW140913   6.000  11.770   7.755  0.7375 -3.0753  1.2849
43533SOL    HW240914   5.924  11.780   7.625  0.0685  1.9618  1.8708
43534SOL     OW40915   9.620  12.117   7.766  0.0954 -0.0079 -0.5042
43534SOL    HW140916   9.647  12.208   7.777  2.3559 -0.7893  1.2803
43534SOL    HW240917   9.681  12.081   7.701  0.1021 -0.5727 -0.1948
43535SOL     OW40918  11.375   6.708   8.521  0.6278 -0.1639 -0.0253
43535SOL    HW140919  11.440   6.685   8.588  0.6133 -1.4982 -0.4327
43535SOL    HW240920  11.369   6.803   8.525  0.3411 -0.2161  2.1350
43536SOL     OW40921  11.296   1.518  12.071 -0.2421  0.4264 -0.2736
43536SOL    HW140922  11.312   1.532  11.978 -2.0300  0.5265 -0.5898
43536SOL    HW240923  11.367   1.458  12.098 -1.4667 -2.2370 -2.4453
43537SOL     OW40924  10.689   0.868  12.877  0.0119  0.1371 -0.1405
43537SOL    HW140925  10.704   0.820  12.795 -3.6540  0.7797 -1.4241
43537SOL    HW240926  10.656   0.953  12.848  0.3844  1.0864  2.0687
43538SOL     OW40927   4.963  12.142   7.048  0.1946 -0.1318  0.2842
43538SOL    HW140928   4.868  12.150   7.037  0.5882  1.4903 -3.5148
43538SOL    HW240929   4.976  12.144   7.143 -3.5973 -2.0364  1.0686
43539SOL     OW40930   3.339   5.768   1.653 -0.0660 -0.5686  0.2270
43539SOL    HW140931   3.403   5.732   1.592 -1.3231 -0.5322 -1.1793
43539SOL    HW240932   3.382   5.846   1.689  0.7012 -0.5675 -0.6402
43540SOL     OW40933   4.400   0.460   6.677  0.6505 -0.1030  0.2131
43540SOL    HW140934   4.417   0.552   6.696  1.0888 -0.0032 -0.6171
43540SOL    HW240935   4.325   0.437   6.733 -0.1904  1.0582 -0.4039
43541SOL     OW40936   0.518   7.818   7.960 -0.0097 -0.8825 -0.4440
43541SOL    HW140937   0.579   7.869   7.906 -0.4115 -0.1323 -0.2117
43541SOL    HW240938   0.529   7.728   7.930  0.9833 -0.7184 -0.6213
43542SOL     OW40939  12.234   8.617  11.092  1.1570  0.4111 -0.4056
43542SOL    HW140940  12.183   8.601  11.013 -0.4774  1.5792  0.3644
43542SOL    HW240941  12.324   8.596  11.067  0.1361 -4.5589 -1.0399
43543SOL     OW40942   1.158   5.357   8.686  0.1281  0.1276  0.6590
43543SOL    HW140943   1.184   5.438   8.644 -0.0005  1.3311  2.7257
43543SOL    HW240944   1.233   5.298   8.676  0.1294  0.3863 -1.0704
43544SOL     OW40945  12.222  11.345   6.615 -0.2247 -0.7219  0.2151
43544SOL    HW140946  12.241  11.431   6.652 -0.1681 -0.7062  0.1493
43544SOL    HW240947  12.147  11.313   6.666 -0.6451 -0.3693 -0.1750
43545SOL     OW40948   0.473   2.444   0.441 -0.2834 -0.8877 -0.4306
43545SOL    HW140949   0.464   2.507   0.512  2.2309  1.8897 -2.3308
43545SOL    HW240950   0.396   2.460   0.385  0.7697  1.3259 -1.3682
43546SOL     OW40951  12.016   7.407   4.711 -0.1816 -0.2869  0.0784
43546SOL    HW140952  12.042   7.369   4.795 -0.5851 -0.1965  0.2476
43546SOL    HW240953  12.092   7.395   4.654  0.9104  1.6145  1.0726
43547SOL     OW40954   9.445   4.011   0.580  0.0711 -0.0168 -0.3741
43547SOL    HW140955   9.463   4.102   0.605  1.4238  0.0869 -1.5992
43547SOL    HW240956   9.479   3.959   0.652 -1.3124  0.4342  0.6533
43548SOL     OW40957   2.032   6.521   2.345  0.1622 -0.0727 -0.1497
43548SOL    HW140958   2.100   6.476   2.295 -0.1604 -0.8742  0.1250
43548SOL    HW240959   1.958   6.461   2.346 -0.0548  0.1885  0.7651
43549SOL     OW40960   5.833   1.418   4.971  0.4769  0.2146 -0.3921
43549SOL    HW140961   5.858   1.330   4.945  2.2643 -0.6026  3.4025
43549SOL    HW240962   5.737   1.416   4.974  0.4129 -0.9172 -2.2790
43550SOL     OW40963  11.141   6.263  12.705 -0.0852 -0.5656  0.0261
43550SOL    HW140964  11.075   6.310  12.755 -1.2990 -1.6831 -0.4705
43550SOL    HW240965  11.224   6.283  12.749 -1.0943 -1.5842  2.5698
43551SOL     OW40966  12.732   1.444   6.840 -0.4821  0.4244  0.2356
43551SOL    HW140967  12.777   1.360   6.847 -0.0146  0.7635  1.6153
43551SOL    HW240968  12.787   1.505   6.889  1.1100  2.4045 -3.6415
43552SOL     OW40969   7.996   2.846   5.232 -0.2157  0.0147 -0.2298
43552SOL    HW140970   8.079   2.858   5.186 -0.1195 -1.3303 -0.4452
43552SOL    HW240971   7.993   2.753   5.252 -1.1159  0.2606  0.8726
43553SOL     OW40972   7.630  11.274  11.728 -0.8262  0.4669 -0.6715
43553SOL    HW140973   7.555  11.329  11.750  0.2706  2.0839 -0.7520
43553SOL    HW240974   7.621  11.256  11.635 -0.5963  1.5521 -0.9199
43554SOL     OW40975   6.537   3.182   8.103 -0.0802  0.2282  0.1245
43554SOL    HW140976   6.480   3.147   8.034  0.0807  0.1503  0.0307
43554SOL    HW240977   6.625   3.183   8.063 -0.0074  0.2997  0.2859
43555SOL     OW40978   0.050   8.693   5.732  0.0813 -0.4010  0.2436
43555SOL    HW140979   0.133   8.651   5.709  0.7106  0.3108  1.1321
43555SOL    HW240980   0.005   8.628   5.786  0.5603 -0.3631  0.6938
43556SOL     OW40981  11.481  11.136  12.021 -0.0899  0.1394 -0.1549
43556SOL    HW140982  11.423  11.094  12.084 -0.2091  0.6565  0.0884
43556SOL    HW240983  11.506  11.218  12.063  1.3966 -0.3887  0.0602
43557SOL     OW40984   3.849   8.294   4.972 -0.0310 -0.1916  0.0549
43557SOL    HW140985   3.850   8.262   5.062  1.3044 -0.6145 -0.0935
43557SOL    HW240986   3.758   8.317   4.956 -0.4091 -0.7527  1.2874
43558SOL     OW40987   6.115   6.804   3.945 -0.4693 -0.0413 -0.0778
43558SOL    HW140988   6.084   6.883   3.900 -1.6724 -1.0165 -1.0110
43558SOL    HW240989   6.046   6.784   4.008 -1.5111 -1.8051 -1.6578
43559SOL     OW40990   3.534   6.589   7.221  0.6572  0.2674  0.1539
43559SOL    HW140991   3.457   6.645   7.234  0.0992 -0.4979  0.2003
43559SOL    HW240992   3.503   6.517   7.166  0.8835 -0.9746  1.5782
43560SOL     OW40993  12.362   2.233   0.940 -0.3915  0.1220 -0.8293
43560SOL    HW140994  12.410   2.269   1.015 -0.8116  0.5665 -0.7706
43560SOL    HW240995  12.390   2.286   0.865 -2.0573  1.5560 -0.5166
43561SOL     OW40996   6.763   6.551   3.350  0.2920  0.0688 -0.4641
43561SOL    HW140997   6.743   6.483   3.414 -0.0879  0.7740  0.1822
43561SOL    HW240998   6.781   6.503   3.269  1.9140 -0.9192  0.4226
43562SOL     OW40999  11.537   8.557  11.582  0.2577  0.7059  0.0668
43562SOL    HW141000  11.469   8.492  11.564  1.4587 -0.8250  0.8749
43562SOL    HW241001  11.612   8.530  11.529  0.8625  1.2936  0.6048
43563SOL     OW41002   1.725   0.512  12.668  1.1176 -0.2615  0.4650
43563SOL    HW141003   1.797   0.560  12.707  1.7111  0.5870 -1.5848
43563SOL    HW241004   1.757   0.422  12.660  1.5703 -0.0993  0.4700
43564SOL     OW41005   6.675  11.308   7.556 -0.1305  0.2812  0.4656
43564SOL    HW141006   6.594  11.265   7.528 -0.1112  1.0636 -0.8821
43564SOL    HW241007   6.680  11.387   7.502  2.5367 -0.7153 -0.9490
43565SOL     OW41008   1.130  12.249   3.995 -0.2619  0.1461 -0.3969
43565SOL    HW141009   1.218  12.240   4.030 -0.2565 -2.9139 -0.9529
43565SOL    HW241010   1.072  12.225   4.068 -0.5515  0.0232 -0.6659
43566SOL     OW41011  10.524  10.338   4.425 -0.1515 -0.5904 -0.2037
43566SOL    HW141012  10.543  10.390   4.347  0.9299 -2.0572 -0.9613
43566SOL    HW241013  10.584  10.372   4.492 -1.0101  0.5980  0.0081
43567SOL     OW41014   4.654   3.361  12.922 -0.6894 -0.2659 -0.1401
43567SOL    HW141015   4.661   3.438  12.979  1.1741 -0.3532 -0.1976
43567SOL    HW241016   4.680   3.288  12.977 -2.2975 -0.8784 -0.1323
43568SOL     OW41017   3.078   8.307   2.784 -0.4444  0.2413  0.2129
43568SOL    HW141018   3.054   8.234   2.728 -0.1070  0.4047 -0.1495
43568SOL    HW241019   3.146   8.353   2.735 -0.9668  1.0565  0.2341
43569SOL     OW41020   8.126   7.006   6.291 -0.2020  0.0169 -0.1369
43569SOL    HW141021   8.138   7.091   6.332 -3.6447  0.4269  0.2742
43569SOL    HW241022   8.101   6.948   6.363 -0.5836 -0.6833 -0.8146
43570SOL     OW41023  10.447   7.143   0.755  0.2196  0.6079 -0.2631
43570SOL    HW141024  10.487   7.228   0.736  1.1961  0.1320 -0.3671
43570SOL    HW241025  10.490   7.114   0.836  0.3286 -0.0660 -0.5617
43571SOL     OW41026   9.587   0.402   0.682 -0.0031 -0.0673  0.1473
43571SOL    HW141027   9.659   0.438   0.733  0.5372 -1.1197  0.1466
43571SOL    HW241028   9.628   0.343   0.619 -0.9244 -1.9500  1.1849
43572SOL     OW41029   9.167   9.639  11.425 -0.0181 -0.7125 -0.0988
43572SOL    HW141030   9.208   9.716  11.464 -0.5965 -1.3497  1.9091
43572SOL    HW241031   9.236   9.600  11.370  1.1565 -0.2259  0.9823
43573SOL     OW41032   1.713   0.354   3.027 -0.0649  0.7136 -0.7118
43573SOL    HW141033   1.681   0.395   3.107  0.3687  0.8279 -0.5957
43573SOL    HW241034   1.747   0.269   3.055 -2.1678 -0.3269 -1.1377
43574SOL     OW41035   3.474  12.094   2.650  0.2660 -0.1452  0.1177
43574SOL    HW141036   3.391  12.106   2.697 -0.6003 -1.9317 -0.8548
43574SOL    HW241037   3.518  12.178   2.658 -1.0404  0.4360  1.8065
43575SOL     OW41038   3.824   8.979   8.580  0.0269  0.2830 -0.4494
43575SOL    HW141039   3.912   8.949   8.604 -0.3236 -0.1870  0.2695
43575SOL    HW241040   3.797   8.920   8.510 -0.0146 -0.0447 -0.1562
43576SOL     OW41041  10.581   3.850   6.831  0.2748 -0.1621 -0.1814
43576SOL    HW141042  10.596   3.886   6.918 -0.0841 -0.2739 -0.0722
43576SOL    HW241043  10.505   3.898   6.798 -0.0031 -0.5847 -0.1653
43577SOL     OW41044   4.021  12.524   0.186  0.2518  0.2283  0.3022
43577SOL    HW141045   4.026  12.526   0.090 -0.6752  0.3939  0.2556
43577SOL    HW241046   3.928  12.525   0.206  0.2759 -2.9640  1.1247
43578SOL     OW41047   5.701   8.352  12.414  0.2157  0.1313  0.3232
43578SOL    HW141048   5.634   8.367  12.481 -1.3110 -1.9739 -0.6151
43578SOL    HW241049   5.661   8.381  12.333  1.5092  1.3328  0.0857
43579SOL     OW41050   2.395  11.775   1.391 -0.2452 -0.5391 -0.2476
43579SOL    HW141051   2.338  11.851   1.378  1.8592  1.0444 -0.9060
43579SOL    HW241052   2.480  11.813   1.413  1.0717 -2.6843 -1.2959
43580SOL     OW41053   0.412   7.845   1.388  0.1756  0.1135 -0.5516
43580SOL    HW141054   0.392   7.894   1.308  0.5771  2.3046  0.6082
43580SOL    HW241055   0.507   7.836   1.388  0.0551 -1.4952 -1.1659
43581SOL     OW41056   0.491   5.429   0.215  0.2551 -0.1955  0.0897
43581SOL    HW141057   0.585   5.438   0.228 -0.2394  2.6272  2.8963
43581SOL    HW241058   0.468   5.498   0.152 -0.1155  0.1546  0.6010
43582SOL     OW41059   6.308   3.305   7.578 -0.3117 -0.4516  0.4763
43582SOL    HW141060   6.368   3.316   7.652  0.7603  0.5375 -0.5158
43582SOL    HW241061   6.328   3.219   7.543  2.2336  0.7115 -1.2517
43583SOL     OW41062   1.028   4.680   1.846 -0.3747 -0.5671 -0.3756
43583SOL    HW141063   0.949   4.696   1.795  0.9482  1.4412 -1.9895
43583SOL    HW241064   1.007   4.709   1.934 -0.6844  2.5571 -1.3752
43584SOL     OW41065   1.286   2.565   4.032  0.6187  0.2701 -0.3797
43584SOL    HW141066   1.259   2.512   3.957 -0.3696  0.8262 -0.4371
43584SOL    HW241067   1.285   2.505   4.106 -3.0668  0.6660  0.0785
43585SOL     OW41068  11.857   6.395  10.057  0.3818 -0.4897  0.3148
43585SOL    HW141069  11.882   6.400  10.149 -0.6109  0.3996  0.5619
43585SOL    HW241070  11.800   6.318  10.051 -0.1632 -0.1193  0.6166
43586SOL     OW41071   2.049  12.987   2.154  0.4644 -0.7629  0.3702
43586SOL    HW141072   2.034  12.997   2.248 -0.0910 -0.1896  0.2289
43586SOL    HW241073   2.073  13.075   2.124  0.5342 -0.9177 -0.0425
43587SOL     OW41074   0.433  11.934   4.920  0.5287 -0.2226  0.2860
43587SOL    HW141075   0.380  12.009   4.893 -0.0543 -0.3238  1.1000
43587SOL    HW241076   0.513  11.942   4.869  1.4904  2.2637  1.9903
43588SOL     OW41077   1.190   8.542  11.803 -0.5329  0.0297 -0.3811
43588SOL    HW141078   1.158   8.606  11.739 -1.2530  2.1577  1.9246
43588SOL    HW241079   1.272   8.580  11.835 -0.2977 -0.8799  0.1115
43589SOL     OW41080   9.894   1.847  10.606 -0.4525  0.1032  0.2523
43589SOL    HW141081   9.926   1.912  10.669 -0.7274  0.3181  0.1707
43589SOL    HW241082   9.813   1.814  10.645 -1.5602  1.4712 -0.7734
43590SOL     OW41083   9.942   7.456  12.092  0.2071 -0.0330  0.3492
43590SOL    HW141084   9.859   7.503  12.092  0.2055 -0.0369  0.8307
43590SOL    HW241085   9.918   7.364  12.099  0.2790  0.0276  1.6565
43591SOL     OW41086  12.284   7.803   6.423 -0.1588 -0.1744  0.5023
43591SOL    HW141087  12.358   7.797   6.362 -0.0007 -1.8524  0.8328
43591SOL    HW241088  12.211   7.832   6.369  0.8366  2.2642  0.2987
43592SOL     OW41089   7.233  12.680   1.715  0.2435 -0.6043  0.5018
43592SOL    HW141090   7.304  12.633   1.673 -0.4411 -1.5286  0.3427
43592SOL    HW241091   7.261  12.691   1.806  0.3685 -1.4213  0.5620
43593SOL     OW41092   0.938   0.946  10.590 -0.2566 -0.1627 -0.1900
43593SOL    HW141093   0.843   0.957  10.594 -0.1011  1.6383 -0.6499
43593SOL    HW241094   0.950   0.861  10.548 -1.6683  0.0171 -1.0519
43594SOL     OW41095  12.788   5.677   9.096 -0.1731 -0.0027 -0.7174
43594SOL    HW141096  12.752   5.766   9.100 -1.6556 -0.5211 -1.5595
43594SOL    HW241097  12.713   5.622   9.072  1.2244 -1.1704 -2.6739
43595SOL     OW41098  12.591   9.718   8.632 -0.9961 -0.2091  0.0116
43595SOL    HW141099  12.592   9.643   8.573 -2.2404 -0.6689  0.5227
43595SOL    HW241100  12.548   9.685   8.711 -0.5821  0.7528  0.6568
43596SOL     OW41101  12.187   9.410   7.813  0.4325  0.5594 -0.1880
43596SOL    HW141102  12.185   9.389   7.907 -0.1252  1.4456  0.0103
43596SOL    HW241103  12.227   9.497   7.809  0.3247  0.5855 -0.7637
43597SOL     OW41104   9.043   2.986   7.365  0.3829 -0.4408  0.6217
43597SOL    HW141105   9.033   3.008   7.457 -0.2780  0.0773  0.4292
43597SOL    HW241106   9.054   2.891   7.364  0.7433 -0.4111  1.2562
43598SOL     OW41107   2.766  12.770   0.753 -0.6993 -0.2106 -0.8100
43598SOL    HW141108   2.791  12.721   0.831 -0.5001  0.9928 -0.0867
43598SOL    HW241109   2.682  12.732   0.727 -0.6408 -0.8027 -0.1711
43599SOL     OW41110   8.841   1.906   4.482  0.6119  0.0519  0.4643
43599SOL    HW141111   8.788   1.915   4.402  0.4976  1.4919  0.6646
43599SOL    HW241112   8.811   1.825   4.522  0.7938 -0.8006 -1.0305
43600SOL     OW41113   5.776   2.608  12.228 -0.3066 -0.2904  1.1323
43600SOL    HW141114   5.761   2.701  12.208 -0.0886 -0.4435  0.2255
43600SOL    HW241115   5.863   2.590  12.193 -1.3188 -1.4577 -1.0458
43601SOL     OW41116   6.105   2.784   9.828 -0.4444  0.1917 -0.4702
43601SOL    HW141117   6.017   2.819   9.842 -0.9787  0.0117 -2.9800
43601SOL    HW241118   6.154   2.856   9.790  0.1817 -0.0542 -0.1462
43602SOL     OW41119   9.443   1.795  12.249  0.1905 -0.0620 -0.1308
43602SOL    HW141120   9.496   1.720  12.223  3.6531  2.5582 -1.4706
43602SOL    HW241121   9.442   1.793  12.344  1.0942 -1.2766 -0.1297
43603SOL     OW41122   7.459   7.603   3.855 -0.1811 -0.3654  0.1851
43603SOL    HW141123   7.420   7.613   3.942  0.8370  2.2180  0.4252
43603SOL    HW241124   7.550   7.578   3.872 -0.9704 -4.2617 -0.3341
43604SOL     OW41125   9.111  10.798  12.540 -0.2216 -0.2531  0.2955
43604SOL    HW141126   9.148  10.835  12.460  1.0691  1.3178  1.5576
43604SOL    HW241127   9.063  10.870  12.580  0.5582 -0.5158  1.7607
43605SOL     OW41128  10.638   1.298   4.314  0.0493  0.0627  0.4802
43605SOL    HW141129  10.682   1.376   4.346  0.6321 -0.5412  1.1972
43605SOL    HW241130  10.604   1.255   4.393 -0.3292 -0.3663  0.0942
43606SOL     OW41131  12.604  12.758   3.940 -0.8268 -0.4705  0.0011
43606SOL    HW141132  12.558  12.795   4.015  0.8370 -2.0312  1.9193
43606SOL    HW241133  12.634  12.672   3.970  1.1806 -0.5603 -1.9632
43607SOL     OW41134   2.450   4.612   3.263  0.1546 -0.2265  0.2872
43607SOL    HW141135   2.452   4.555   3.340  0.1627 -0.3556  0.1909
43607SOL    HW241136   2.539   4.608   3.229 -0.2404 -1.4404 -0.6651
43608SOL     OW41137   2.148   1.365   1.624  0.8133  0.3831 -0.4942
43608SOL    HW141138   2.199   1.327   1.696  1.2396  1.6035 -0.1312
43608SOL    HW241139   2.081   1.417   1.668  0.7596  0.7187 -0.9756
43609SOL     OW41140  11.959  12.746   9.258  0.6896  0.2497 -0.5968
43609SOL    HW141141  12.036  12.721   9.310 -0.6745 -1.3607  0.7999
43609SOL    HW241142  11.931  12.830   9.296  0.6925 -0.0805  0.1529
43610SOL     OW41143  10.297   8.902  10.726 -0.0658 -0.3108  0.1487
43610SOL    HW141144  10.262   8.990  10.733  2.4303  0.8852 -1.3308
43610SOL    HW241145  10.262   8.856  10.803 -1.3031  1.9718  1.0268
43611SOL     OW41146   3.893   9.797  12.331 -0.3624 -0.3637  0.1697
43611SOL    HW141147   3.817   9.750  12.363 -1.2769  0.7073 -0.3635
43611SOL    HW241148   3.920   9.852  12.404  0.8170 -1.7697  0.8550
43612SOL     OW41149   3.343   1.083   3.827 -0.5418  0.1149 -0.1518
43612SOL    HW141150   3.342   0.988   3.831  0.1250  0.0576 -0.9901
43612SOL    HW241151   3.434   1.105   3.803 -1.1833  0.8470 -2.0755
43613SOL     OW41152   9.534   9.895   6.612 -0.2212 -0.2900  0.5811
43613SOL    HW141153   9.531   9.810   6.656 -0.4711 -0.2815  0.5811
43613SOL    HW241154   9.443   9.916   6.595 -0.1669  0.0423  0.7008
43614SOL     OW41155   6.728  10.530   7.858  0.4449 -0.0323  0.2440
43614SOL    HW141156   6.692  10.528   7.947 -0.9401  1.2225 -0.2462
43614SOL    HW241157   6.706  10.445   7.822  1.5553 -0.7917  1.2803
43615SOL     OW41158  10.171   9.377  12.573  0.2517 -0.1620 -0.3474
43615SOL    HW141159  10.257   9.418  12.583  0.6311 -1.1681  0.7039
43615SOL    HW241160  10.109   9.444  12.602  0.7760  0.0908  0.2083
43616SOL     OW41161   4.893   3.370  10.099 -0.0831 -0.0525 -0.0658
43616SOL    HW141162   4.892   3.435  10.169 -0.3496  0.7382 -0.7848
43616SOL    HW241163   4.842   3.297  10.133  1.3937 -0.4991  1.3100
43617SOL     OW41164   2.683  10.404   8.278  0.3046  0.5158 -0.6536
43617SOL    HW141165   2.653  10.495   8.288  0.1466  0.5373 -1.2390
43617SOL    HW241166   2.777  10.412   8.263  0.9292  0.3627  2.5433
43618SOL     OW41167   0.593   3.938   1.115  0.5029  0.4560  1.0731
43618SOL    HW141168   0.673   3.915   1.068 -0.2864 -0.4032  0.0914
43618SOL    HW241169   0.542   3.987   1.051 -0.0512  0.3809  1.4540
43619SOL     OW41170   0.929   8.531  11.961  0.1140  0.1347  0.0741
43619SOL    HW141171   0.913   8.440  11.936 -0.9862  0.6594 -1.3178
43619SOL    HW241172   1.024   8.537  11.969  0.3324 -0.7716 -1.4242
43620SOL     OW41173   5.830  11.094   4.244  0.8123  0.0212 -0.2432
43620SOL    HW141174   5.762  11.086   4.311  0.8490 -0.9364 -0.3061
43620SOL    HW241175   5.783  11.111   4.163  0.6264 -0.7178 -0.3012
43621SOL     OW41176   2.092   8.519   8.515 -0.1924  0.0789 -0.0151
43621SOL    HW141177   2.151   8.577   8.563  1.2657 -2.6671  1.8124
43621SOL    HW241178   2.122   8.526   8.424  0.8518  1.1276  0.3729
43622SOL     OW41179  11.631   7.085  10.896  0.5735  0.2345  0.0023
43622SOL    HW141180  11.721   7.056  10.910  0.3369 -0.3576  0.3435
43622SOL    HW241181  11.639   7.171  10.855  1.3587 -1.2082 -3.1963
43623SOL     OW41182   0.823   6.365   1.496 -0.2710 -0.7875  0.3596
43623SOL    HW141183   0.813   6.283   1.545  1.8775 -1.3392 -0.0315
43623SOL    HW241184   0.910   6.397   1.520 -0.6303  0.8063 -0.3585
43624SOL     OW41185   7.539   7.181   3.443  0.4606 -0.6879 -0.0546
43624SOL    HW141186   7.589   7.195   3.523 -1.1061  0.2942  0.8097
43624SOL    HW241187   7.510   7.090   3.449  0.7125 -0.7480  0.2919
43625SOL     OW41188   1.066  12.145   1.445 -0.4229 -0.1553  0.2022
43625SOL    HW141189   1.096  12.154   1.535 -1.5329  0.3372  0.5335
43625SOL    HW241190   1.051  12.235   1.416 -1.6071 -0.3735  0.0724
43626SOL     OW41191   5.530  11.452   0.496 -0.0338  0.5141  0.2614
43626SOL    HW141192   5.460  11.403   0.453  0.5564  0.2420 -0.4164
43626SOL    HW241193   5.490  11.534   0.524 -1.7043 -1.2242  3.5595
43627SOL     OW41194  11.242  12.180  11.039 -0.0202  0.2697 -0.1657
43627SOL    HW141195  11.248  12.209  10.948 -0.7891 -0.1999 -0.3686
43627SOL    HW241196  11.163  12.128  11.043 -0.3605  0.8401  0.9402
43628SOL     OW41197   7.239   3.771   7.611 -0.2366 -0.3345 -0.5650
43628SOL    HW141198   7.220   3.741   7.700 -1.3409  0.6262 -0.4514
43628SOL    HW241199   7.161   3.822   7.586  2.0420  3.7549 -0.1576
43629SOL     OW41200   9.840   4.760   6.061 -0.1563  0.3576 -0.5577
43629SOL    HW141201   9.789   4.686   6.028  0.7423  0.6894 -2.8950
43629SOL    HW241202   9.810   4.772   6.151 -0.8771 -2.3479 -0.3423
43630SOL     OW41203   2.691   5.273   8.678  0.6452  0.6784 -0.1791
43630SOL    HW141204   2.723   5.246   8.764 -0.8430 -1.1847 -0.1536
43630SOL    HW241205   2.613   5.325   8.697 -0.5203 -0.9341 -0.3917
43631SOL     OW41206   0.310   1.528  10.261 -0.1394  0.2733  0.5447
43631SOL    HW141207   0.294   1.435  10.243 -0.6960  0.5850 -0.6694
43631SOL    HW241208   0.224   1.562  10.286  0.0105  0.5158  0.7274
43632SOL     OW41209   2.957   8.674   1.025 -0.4091 -0.3627  0.4609
43632SOL    HW141210   3.045   8.667   1.062 -0.1922 -0.7808 -0.1260
43632SOL    HW241211   2.940   8.769   1.023  0.1596 -0.2597  0.2762
43633SOL     OW41212   6.949   4.967   8.040  0.0641 -0.6146  0.3940
43633SOL    HW141213   6.872   4.977   8.097 -0.3484 -0.1902 -0.2282
43633SOL    HW241214   6.934   5.028   7.968  1.1527 -0.2764  0.4345
43634SOL     OW41215   6.629   6.160   5.922  0.1932  0.7818  0.5722
43634SOL    HW141216   6.599   6.111   5.998  2.2075 -0.1003  0.8470
43634SOL    HW241217   6.694   6.222   5.957  0.1544  1.3017 -0.2475
43635SOL     OW41218   4.980   0.884  12.477 -0.0735 -0.0000 -0.0015
43635SOL    HW141219   4.905   0.915  12.526  0.6654  0.1165  1.0886
43635SOL    HW241220   4.966   0.917  12.388 -0.6103  1.2061  0.5162
43636SOL     OW41221   1.295   4.025   9.019  0.1818  0.1197  0.0894
43636SOL    HW141222   1.385   4.022   8.986 -0.4698  0.3104 -1.8176
43636SOL    HW241223   1.249   3.959   8.968 -0.9238  0.4992  0.5694
43637SOL     OW41224   1.790   3.618   2.305  0.3831  0.0105 -0.0702
43637SOL    HW141225   1.772   3.617   2.399 -0.3569  0.1599 -0.2034
43637SOL    HW241226   1.876   3.577   2.297  2.7305  4.1052  1.1065
43638SOL     OW41227   9.474   3.776   9.094  0.1639 -0.6853  0.4616
43638SOL    HW141228   9.455   3.747   9.005  0.7676  2.2748 -0.7517
43638SOL    HW241229   9.389   3.800   9.131 -0.2509 -3.0817  1.2304
43639SOL     OW41230   8.471   5.642   7.211  0.1889  0.0898 -0.1238
43639SOL    HW141231   8.523   5.677   7.282  1.0078  0.0219 -0.6801
43639SOL    HW241232   8.413   5.714   7.185 -0.1365  0.1040  0.6115
43640SOL     OW41233  10.831  11.130   2.336 -0.2984  0.1388  0.1648
43640SOL    HW141234  10.737  11.115   2.348 -0.3797  0.1679 -0.3865
43640SOL    HW241235  10.873  11.067   2.394 -0.6630 -0.2540  0.0104
43641SOL     OW41236   9.318   1.863   0.552 -0.2263 -0.2888  0.3150
43641SOL    HW141237   9.399   1.823   0.584 -0.2352 -1.9787 -1.5759
43641SOL    HW241238   9.306   1.826   0.465 -1.2801  2.4972 -0.8417
43642SOL     OW41239  11.037   3.297   6.190  0.4758 -0.1283  0.5742
43642SOL    HW141240  10.983   3.276   6.114 -0.1928  0.2483  0.9389
43642SOL    HW241241  11.016   3.229   6.254  0.8482 -0.2953  0.5253
43643SOL     OW41242   4.289   4.636   9.772 -0.1281  0.0787  0.3511
43643SOL    HW141243   4.248   4.604   9.853 -0.3500  1.8073  0.9525
43643SOL    HW241244   4.241   4.716   9.750  0.5028  0.1144 -1.0152
43644SOL     OW41245  11.994  11.441   0.475  0.0342 -0.4787  0.4275
43644SOL    HW141246  11.901  11.430   0.459  0.3288  1.0516 -3.2948
43644SOL    HW241247  12.028  11.351   0.483 -1.4295 -1.1329 -0.3755
43645SOL     OW41248   8.319   8.582  12.526  0.2258 -0.3687 -0.1437
43645SOL    HW141249   8.239   8.621  12.492  1.1903  0.2101 -1.8745
43645SOL    HW241250   8.305   8.579  12.621 -1.9960 -0.7161 -0.4249
43646SOL     OW41251   3.625   0.358   2.053  0.3770  0.2658 -0.3480
43646SOL    HW141252   3.631   0.393   1.963 -1.7077  0.3191 -0.5039
43646SOL    HW241253   3.606   0.265   2.041 -1.9857  0.6544 -0.0406
43647SOL     OW41254   1.132  12.270   9.417  0.0810  0.3303  0.6726
43647SOL    HW141255   1.138  12.247   9.324 -0.7651 -2.8123  1.2670
43647SOL    HW241256   1.047  12.313   9.425 -0.0493  0.1998  0.0486
43648SOL     OW41257   1.994  12.852   1.888  0.7530 -0.0351 -0.0548
43648SOL    HW141258   2.042  12.911   1.947  0.3228 -0.6464  0.9386
43648SOL    HW241259   2.054  12.779   1.873  0.3249 -0.5906  0.8394
43649SOL     OW41260   3.953   9.789   1.172 -0.0743  0.3732 -0.4910
43649SOL    HW141261   3.978   9.791   1.264  0.8473  1.3318 -0.7254
43649SOL    HW241262   3.896   9.865   1.161 -1.4682 -0.6399 -0.3949
43650SOL     OW41263   0.849   4.039  10.116  0.5766 -0.2466  0.5170
43650SOL    HW141264   0.810   4.101  10.177  2.9518  0.9434  0.9487
43650SOL    HW241265   0.928   4.007  10.160  1.7494 -0.2190 -1.4171
43651SOL     OW41266  12.117   9.040  12.354 -0.4184  0.1271  0.5751
43651SOL    HW141267  12.024   9.019  12.365 -0.9095  1.4879 -0.4989
43651SOL    HW241268  12.141   8.997  12.272 -0.5519  1.0005  0.0552
43652SOL     OW41269   4.609  11.461  10.318 -1.0149 -0.4691 -0.0521
43652SOL    HW141270   4.555  11.412  10.380  0.3653 -0.7578  0.9806
43652SOL    HW241271   4.639  11.397  10.255 -1.6869 -0.3485 -0.5015
43653SOL     OW41272   0.103  10.487   5.955 -0.3239 -0.2531 -0.3924
43653SOL    HW141273   0.106  10.435   5.875 -0.7138 -0.2342 -0.4198
43653SOL    HW241274   0.013  10.479   5.986  0.2293 -1.7042  1.0022
43654SOL     OW41275  12.244   5.009   6.636 -0.3402 -0.8036  0.0733
43654SOL    HW141276  12.325   5.031   6.682 -1.2183  0.7206  0.9708
43654SOL    HW241277  12.268   5.015   6.543  0.6190 -0.5193  0.3183
43655SOL     OW41278   7.011   7.846   6.340 -0.4096  0.5725  0.0539
43655SOL    HW141279   7.067   7.923   6.338 -0.7762  0.8564  0.4545
43655SOL    HW241280   6.944   7.867   6.405 -0.8746  0.1695 -0.2858
43656SOL     OW41281  12.227   6.968   5.835 -0.2877 -0.2827 -0.3059
43656SOL    HW141282  12.163   6.917   5.786 -0.1554  0.4381 -1.2361
43656SOL    HW241283  12.194   7.057   5.834 -1.1376 -0.4716  2.3391
43657SOL     OW41284   7.659   4.418  12.166 -0.2725 -0.1536  0.7225
43657SOL    HW141285   7.690   4.413  12.256  0.4548 -1.7197  0.4152
43657SOL    HW241286   7.570   4.453  12.173  0.5895  1.9289  1.8307
43658SOL     OW41287   1.754   1.483   0.511  0.6586  0.2014 -0.2723
43658SOL    HW141288   1.696   1.412   0.483  0.6015  0.2630 -0.3126
43658SOL    HW241289   1.841   1.457   0.482  0.8134 -0.3660  0.6670
43659SOL     OW41290   4.014   0.563   8.005  0.3225  0.8254 -0.6116
43659SOL    HW141291   4.028   0.567   7.911  1.9891  1.2763 -0.3814
43659SOL    HW241292   4.076   0.626   8.042  0.4860 -0.1139  0.8455
43660SOL     OW41293  12.118   0.722   7.657  0.0919 -0.0883  0.4297
43660SOL    HW141294  12.200   0.680   7.630 -0.3284  0.5975 -2.1819
43660SOL    HW241295  12.114   0.803   7.606 -2.4829 -0.3861  0.0197
43661SOL     OW41296   5.183  11.307   4.272 -0.3481  0.3481  0.1413
43661SOL    HW141297   5.096  11.294   4.234 -0.6078  0.9924  0.5182
43661SOL    HW241298   5.187  11.400   4.293  0.5265  0.3764 -0.1011
43662SOL     OW41299   5.299   6.734  10.106 -0.5509 -0.3121  0.1907
43662SOL    HW141300   5.251   6.742  10.189 -2.1972 -1.5423 -0.5732
43662SOL    HW241301   5.391   6.738  10.131 -1.0135  0.4635  1.9395
43663SOL     OW41302   1.991   2.363   6.601 -0.2884  0.1309  0.4323
43663SOL    HW141303   1.907   2.386   6.561 -0.1620  0.0239  0.1045
43663SOL    HW241304   1.982   2.391   6.692 -0.6708  0.1429  0.3945
43664SOL     OW41305   7.706   6.789   5.621 -0.1957  0.2576  0.6401
43664SOL    HW141306   7.656   6.810   5.542  1.1444  1.2523  0.0280
43664SOL    HW241307   7.761   6.715   5.595 -1.3862 -0.9345  1.3579
43665SOL     OW41308   4.905   3.620   4.742 -0.3311  0.1655 -0.1790
43665SOL    HW141309   4.948   3.552   4.690  1.3022 -0.3955  1.7790
43665SOL    HW241310   4.950   3.701   4.718  0.5667 -0.1250  0.4646
43666SOL     OW41311   4.661   3.903   3.383  0.2911 -0.2469  0.4173
43666SOL    HW141312   4.671   3.863   3.469  0.6532 -2.1402 -0.4568
43666SOL    HW241313   4.574   3.944   3.385 -0.3633 -1.5954  1.1963
43667SOL     OW41314   5.075   6.545   7.691  0.6774 -0.3741 -0.0527
43667SOL    HW141315   5.127   6.530   7.613 -0.2435 -1.1512 -0.5333
43667SOL    HW241316   5.139   6.570   7.758  1.8361 -2.4086 -0.3171
43668SOL     OW41317  11.594   2.141   2.709 -0.7829 -0.1113 -0.0310
43668SOL    HW141318  11.638   2.056   2.707  0.0851  0.3102 -1.9809
43668SOL    HW241319  11.539   2.138   2.787  0.4434 -1.8297  0.8441
43669SOL     OW41320   9.760   5.461   8.050 -0.4555  0.4098  0.0213
43669SOL    HW141321   9.676   5.426   8.080 -1.6135  1.2888 -1.9973
43669SOL    HW241322   9.758   5.553   8.074  0.6694  0.1218  1.3688
43670SOL     OW41323   1.525   5.298   7.483  0.6245  0.3353  0.0202
43670SOL    HW141324   1.584   5.371   7.497 -0.1933  1.2884 -1.2523
43670SOL    HW241325   1.524   5.285   7.388 -0.9467  0.1541  0.0307
43671SOL     OW41326   2.978   3.493  12.545  0.2492  0.2841  0.0076
43671SOL    HW141327   3.028   3.415  12.522  0.3390  0.7274 -1.4253
43671SOL    HW241328   3.041   3.549  12.591  1.4520  1.2346 -2.5843
43672SOL     OW41329  10.937   0.912   3.321  0.0686 -0.3782  0.4348
43672SOL    HW141330  10.924   0.923   3.416  1.0208  0.4076  0.4957
43672SOL    HW241331  10.892   0.986   3.282  1.0021  0.1951  0.4001
43673SOL     OW41332   3.065   1.717   2.103  0.2522  0.9587 -0.0095
43673SOL    HW141333   3.099   1.710   2.192 -0.4209 -2.6378  0.1262
43673SOL    HW241334   2.970   1.713   2.113  0.1717 -1.8967 -0.8344
43674SOL     OW41335   3.966   0.109   7.495 -0.0026 -0.2000 -0.0710
43674SOL    HW141336   3.884   0.061   7.482  0.1475 -0.3930 -0.3031
43674SOL    HW241337   3.975   0.163   7.417  0.2473 -0.4067 -0.1870
43675SOL     OW41338   0.021   8.478   3.893  0.2181  0.1244 -0.4661
43675SOL    HW141339   0.110   8.486   3.926 -0.1840  2.4077  0.2414
43675SOL    HW241340   0.002   8.564   3.855 -1.2553 -0.7127 -1.7436
43676SOL     OW41341   7.660   4.777   6.505  0.2014 -0.3094  0.0062
43676SOL    HW141342   7.709   4.751   6.427  2.3132  1.6331  0.5808
43676SOL    HW241343   7.720   4.760   6.578  0.5514  3.1392  0.6621
43677SOL     OW41344   0.282  12.970   7.526 -0.0601 -0.9728 -0.0536
43677SOL    HW141345   0.250  12.883   7.551 -0.8031 -1.1888 -1.6184
43677SOL    HW241346   0.205  13.014   7.489  0.3208  0.3424  0.6827
43678SOL     OW41347   0.448  12.284  11.568  0.5810 -1.4949  0.2700
43678SOL    HW141348   0.498  12.229  11.507  0.7830  0.9745 -1.9972
43678SOL    HW241349   0.365  12.299  11.522  0.9777  0.9469  0.2631
43679SOL     OW41350  12.527   2.828   5.032 -0.0464 -0.0540 -0.3253
43679SOL    HW141351  12.542   2.737   5.057  0.1137 -0.2558 -1.1149
43679SOL    HW241352  12.464   2.861   5.096  0.9765 -0.2829  0.8470
43680SOL     OW41353   7.825   2.072   6.789  0.4696 -0.1181  0.1822
43680SOL    HW141354   7.878   2.002   6.828  0.9271 -0.6572 -1.3179
43680SOL    HW241355   7.882   2.148   6.789  1.1564 -0.5937 -1.0549
43681SOL     OW41356   6.272  12.224   1.497  0.0928 -0.3927 -0.0233
43681SOL    HW141357   6.177  12.219   1.483 -0.2569 -1.9071  2.4350
43681SOL    HW241358   6.310  12.182   1.420 -1.2678 -0.7190 -0.5386
43682SOL     OW41359   7.136  10.410   7.421  0.3445  0.2227 -0.0883
43682SOL    HW141360   7.092  10.326   7.426  0.6436  0.0591 -0.2020
43682SOL    HW241361   7.066  10.473   7.405 -0.2296  0.3080  2.2717
43683SOL     OW41362  11.529   8.768   9.065  0.0402 -0.3265 -0.0996
43683SOL    HW141363  11.499   8.818   9.142 -1.4753 -0.2645 -0.6943
43683SOL    HW241364  11.449   8.727   9.031  0.9809 -1.8118 -0.6101
43684SOL     OW41365   0.300   3.485   8.331 -0.0551 -0.2032  0.2072
43684SOL    HW141366   0.362   3.499   8.402 -0.7143  1.5934  0.4747
43684SOL    HW241367   0.344   3.423   8.272  0.9765 -0.8135  1.5721
43685SOL     OW41368   4.730  12.300   9.593 -0.0909 -0.3525 -0.4883
43685SOL    HW141369   4.804  12.247   9.564  0.4737 -0.0554  0.3911
43685SOL    HW241370   4.654  12.257   9.553  0.3160 -1.9705  0.3711
43686SOL     OW41371   3.233   5.422  10.094 -0.6068  0.0715 -0.2556
43686SOL    HW141372   3.274   5.483  10.033  1.8068 -0.1466  1.0438
43686SOL    HW241373   3.203   5.477  10.167  0.3602 -0.1187  0.2971
43687SOL     OW41374  11.743   1.859   8.806  0.1258  0.1869 -0.2494
43687SOL    HW141375  11.789   1.814   8.734  0.8261  1.0944 -0.3804
43687SOL    HW241376  11.664   1.894   8.765  1.0135  1.5691 -0.8429
43688SOL     OW41377   4.971   2.898   6.829  0.3645 -0.2263  0.2913
43688SOL    HW141378   4.905   2.906   6.897 -0.2010  1.0596 -0.3843
43688SOL    HW241379   4.922   2.875   6.750  0.9894 -1.4632  0.2315
43689SOL     OW41380  11.328   8.630   1.085  0.0792 -0.1932  0.1024
43689SOL    HW141381  11.411   8.661   1.049 -0.3524  0.7202 -0.1212
43689SOL    HW241382  11.310   8.548   1.038  1.6768 -1.3125  1.3262
43690SOL     OW41383   8.318   8.791   4.692  0.4654  0.3563 -0.1605
43690SOL    HW141384   8.410   8.779   4.669  0.7123  1.7258  0.0424
43690SOL    HW241385   8.312   8.881   4.724 -0.7026 -0.1167  1.0680
43691SOL     OW41386   2.902   4.001  10.865  0.2230  0.2845 -0.2968
43691SOL    HW141387   2.889   3.983  10.958  1.2858  1.5259  0.1222
43691SOL    HW241388   2.816   4.023  10.832 -0.2932 -0.8722  0.2112
43692SOL     OW41389   2.853   8.390   7.907 -0.3401  0.1041 -0.3192
43692SOL    HW141390   2.832   8.426   7.993  1.3965  1.5254 -0.4228
43692SOL    HW241391   2.874   8.467   7.854  0.9018 -0.8880 -1.3301
43693SOL     OW41392   1.229   6.853   1.522  0.4284  0.1230  0.2837
43693SOL    HW141393   1.226   6.945   1.549 -1.2691  0.3550 -0.6098
43693SOL    HW241394   1.215   6.805   1.604 -2.9825  0.7934  0.2480
43694SOL     OW41395   8.616   2.483   3.311  0.0049 -0.0982  0.0842
43694SOL    HW141396   8.560   2.431   3.369 -0.5938 -0.0085 -0.4115
43694SOL    HW241397   8.557   2.516   3.244  0.8079 -0.7564 -0.9675
43695SOL     OW41398  10.096   0.759   3.439 -0.1363 -0.2371 -0.1127
43695SOL    HW141399  10.147   0.829   3.480 -1.6934 -0.1822  1.9167
43695SOL    HW241400  10.118   0.764   3.346  1.7605  1.2275  0.3424
43696SOL     OW41401   3.623   0.072   2.433 -0.4621  0.4899 -0.4381
43696SOL    HW141402   3.712   0.045   2.411 -0.6293 -0.3605 -0.1364
43696SOL    HW241403   3.573   0.060   2.353 -0.6513 -0.6807 -0.1656
43697SOL     OW41404   4.276   8.097  10.316  0.1401  0.1413 -0.3518
43697SOL    HW141405   4.289   8.169  10.254  1.3555  0.8572  0.6930
43697SOL    HW241406   4.266   8.140  10.401  0.9869 -0.9128  0.3035
43698SOL     OW41407   5.233   8.861   1.776  0.7541 -0.3702 -0.5226
43698SOL    HW141408   5.296   8.789   1.771  0.8080 -0.3700  0.1629
43698SOL    HW241409   5.195   8.865   1.688  0.6180 -1.3489 -0.5204
43699SOL     OW41410   4.671   1.731   1.504  0.0111 -0.0162  0.0519
43699SOL    HW141411   4.636   1.813   1.471  1.2467  0.3526 -0.4000
43699SOL    HW241412   4.598   1.669   1.498 -0.2601  0.4330 -1.8964
43700SOL     OW41413   5.603  12.058   8.746 -0.0223 -0.1655  0.0688
43700SOL    HW141414   5.645  12.073   8.831  0.0131  0.3340 -0.0348
43700SOL    HW241415   5.527  12.004   8.767  0.9590 -1.5640  0.1886
43701SOL     OW41416   9.664   4.009   8.874 -0.1043 -0.2370 -0.1929
43701SOL    HW141417   9.733   3.976   8.817 -0.5564 -2.2440  0.3723
43701SOL    HW241418   9.675   3.962   8.956  1.6499  3.8181  2.2257
43702SOL     OW41419   3.616  12.754   4.280 -0.4929 -0.0449  0.0034
43702SOL    HW141420   3.625  12.842   4.243 -0.0201 -0.9923 -2.3268
43702SOL    HW241421   3.522  12.736   4.276 -0.4621 -0.0838 -0.6597
43703SOL     OW41422   3.712   0.528  12.538 -0.0857  0.4065 -0.3806
43703SOL    HW141423   3.679   0.441  12.558  2.3235 -0.4499  0.2989
43703SOL    HW241424   3.720   0.530  12.443  0.7113 -0.4979 -0.3452
43704SOL     OW41425   9.122   8.869   3.007 -0.6824 -0.1869  0.4786
43704SOL    HW141426   9.116   8.893   3.099 -4.2693 -0.8366  0.5663
43704SOL    HW241427   9.088   8.779   3.003  0.5673 -0.6449 -1.3598
43705SOL     OW41428   4.407   7.986   7.909  0.0784  0.1663  0.0217
43705SOL    HW141429   4.489   8.034   7.917 -0.1228  0.6960 -0.9804
43705SOL    HW241430   4.391   7.980   7.815 -0.3659 -1.0937  0.1508
43706SOL     OW41431   5.156  10.627   0.754  0.3331 -0.2633  0.1616
43706SOL    HW141432   5.070  10.603   0.719  0.3555  1.2076 -1.0210
43706SOL    HW241433   5.213  10.626   0.677  0.4028  3.0336  0.0349
43707SOL     OW41434   3.084   8.844   4.928 -0.3725 -0.2477 -0.2487
43707SOL    HW141435   3.179   8.840   4.939 -0.2922 -0.7979 -1.0407
43707SOL    HW241436   3.049   8.802   5.007  0.0797 -1.1126 -0.4908
43708SOL     OW41437  12.659   0.897   3.384 -0.1100 -0.2243  0.1426
43708SOL    HW141438  12.584   0.839   3.393 -0.5498  0.1531 -1.0102
43708SOL    HW241439  12.687   0.913   3.475 -0.4592 -1.5874  0.5108
43709SOL     OW41440   6.128   4.591   7.182 -0.2106 -0.0650  0.3441
43709SOL    HW141441   6.190   4.527   7.148 -1.4294 -1.2537  0.3011
43709SOL    HW241442   6.051   4.583   7.125 -1.0485  0.1846  1.4145
43710SOL     OW41443   7.687   6.037   9.876 -0.3461 -0.4754  0.3612
43710SOL    HW141444   7.770   6.074   9.846  0.0505  0.0628  2.0138
43710SOL    HW241445   7.644   6.007   9.796  0.6401  0.8569 -0.7192
43711SOL     OW41446   6.406  11.797   8.379 -0.1798  0.2029 -0.3443
43711SOL    HW141447   6.344  11.724   8.382  0.9873 -0.7969  0.4630
43711SOL    HW241448   6.352  11.875   8.392 -1.3224 -0.5977 -0.1690
43712SOL     OW41449   1.594   8.156   7.148 -0.0341  0.2198 -0.0458
43712SOL    HW141450   1.546   8.167   7.066 -0.3310 -0.2240  0.0708
43712SOL    HW241451   1.632   8.243   7.165 -0.3926  0.4431 -0.3851
43713SOL     OW41452  10.774  10.244   8.404 -0.1566 -0.1851 -0.0241
43713SOL    HW141453  10.704  10.197   8.359 -1.1170  1.6481 -0.5622
43713SOL    HW241454  10.729  10.299   8.468  0.9964 -0.6583  1.2613
43714SOL     OW41455   4.574   6.072   0.035 -0.3129  0.2761  0.1915
43714SOL    HW141456   4.637   6.003   0.053  0.5772  0.3970 -2.1200
43714SOL    HW241457   4.488   6.030   0.047  0.2080 -0.9829 -0.2924
43715SOL     OW41458   8.414   2.141  10.817  0.0942 -0.0925  0.0203
43715SOL    HW141459   8.409   2.064  10.873  1.3126  0.3125  0.7186
43715SOL    HW241460   8.443   2.108  10.732  0.1256 -0.4551  0.1744
43716SOL     OW41461   1.636   3.320   8.050  0.4057 -0.3611  0.5252
43716SOL    HW141462   1.651   3.309   7.956  2.0632  0.8391  0.6103
43716SOL    HW241463   1.553   3.368   8.055  1.1043  1.0100 -0.4193
43717SOL     OW41464   6.070   1.018  11.570  0.7296  0.0018  0.5576
43717SOL    HW141465   6.064   0.923  11.559 -0.2645  0.1187 -0.0196
43717SOL    HW241466   6.093   1.030  11.662  0.0587 -0.7885  0.8460
43718SOL     OW41467   4.172   5.852   0.315  0.2886  0.2319  0.2889
43718SOL    HW141468   4.142   5.885   0.230  0.3264 -0.4397  0.0012
43718SOL    HW241469   4.215   5.926   0.356  2.6672 -0.0833 -1.4172
43719SOL     OW41470  11.390  11.623   7.830  0.0687  0.4847  0.1957
43719SOL    HW141471  11.392  11.527   7.823  0.3764  0.4576  0.5684
43719SOL    HW241472  11.406  11.640   7.923 -0.3938  0.8906  0.2037
43720SOL     OW41473   2.390  11.641  11.355  0.1440 -0.1118  0.3411
43720SOL    HW141474   2.389  11.723  11.307  0.6255  0.3923  1.1726
43720SOL    HW241475   2.366  11.575  11.290  0.8037  0.5406 -0.5827
43721SOL     OW41476   0.241   9.724  12.454  0.2126 -0.1911  0.5659
43721SOL    HW141477   0.312   9.776  12.493  1.4157  0.1871 -1.9316
43721SOL    HW241478   0.191   9.692  12.529 -0.1643  3.8864  2.2759
43722SOL     OW41479   0.066  10.356  10.535  0.0674 -0.3214 -1.0089
43722SOL    HW141480   0.039  10.277  10.488 -2.9086 -1.3484  1.9817
43722SOL    HW241481   0.074  10.327  10.626  0.5197  2.5285 -0.0364
43723SOL     OW41482   5.458  10.107   0.395  0.5731  0.2804  0.7888
43723SOL    HW141483   5.365  10.089   0.411  0.7804 -0.1475  1.6015
43723SOL    HW241484   5.472  10.194   0.430  0.1755  0.9483 -0.6425
43724SOL     OW41485  11.486   2.317  11.594  0.3328 -0.2620 -0.5804
43724SOL    HW141486  11.572   2.348  11.619  1.0799 -2.6691  0.1149
43724SOL    HW241487  11.442   2.297  11.678 -0.2801 -0.5615 -0.9606
43725SOL     OW41488   8.448   1.920  11.561 -0.2496 -0.7169  0.3016
43725SOL    HW141489   8.475   1.910  11.652 -0.6777  2.7702  0.9547
43725SOL    HW241490   8.520   1.966  11.519 -1.1626  0.1071 -0.4188
43726SOL     OW41491   0.761   9.055   8.619  0.1655  0.1974 -0.5063
43726SOL    HW141492   0.833   8.993   8.615  1.3748  1.6181 -1.7576
43726SOL    HW241493   0.786   9.118   8.686 -0.6165 -0.0987  0.0858
43727SOL     OW41494   8.905  12.388  12.646  0.3463 -0.0441  0.1020
43727SOL    HW141495   8.941  12.476  12.655  0.4330  0.1622 -1.8476
43727SOL    HW241496   8.829  12.399  12.588 -0.4259 -1.0680  0.8894
43728SOL     OW41497   0.951  10.583   3.556  0.3810  0.1631  0.5054
43728SOL    HW141498   0.919  10.581   3.645 -0.7852  0.6775  0.1122
43728SOL    HW241499   0.883  10.540   3.504  1.0427 -0.1322 -0.1395
43729SOL     OW41500  10.540   2.982   3.358 -0.0460 -0.0804 -0.8184
43729SOL    HW141501  10.522   2.963   3.266  0.4315 -0.6271 -0.8054
43729SOL    HW241502  10.584   2.903   3.390  0.4229  0.3858 -0.3020
43730SOL     OW41503   5.961  10.030  12.535 -0.4142  0.6247 -0.0873
43730SOL    HW141504   6.011   9.963  12.581 -1.2456  0.0981  0.0651
43730SOL    HW241505   5.878  10.034  12.582 -1.6698 -0.5834 -2.0602
43731SOL     OW41506   1.493   7.478   5.842 -0.4492  0.2905  0.4170
43731SOL    HW141507   1.572   7.529   5.857 -0.2165  0.4447 -1.1650
43731SOL    HW241508   1.490   7.465   5.747 -2.6846  0.8777  0.3546
43732SOL     OW41509  10.929   5.148   1.381  0.3625  0.2442  0.2712
43732SOL    HW141510  10.972   5.222   1.339 -1.5695  0.7866 -0.9048
43732SOL    HW241511  10.940   5.076   1.319  1.1240 -0.1180  0.8150
43733SOL     OW41512   6.862   0.088   5.435 -0.2032 -0.6345 -0.1660
43733SOL    HW141513   6.779   0.044   5.455 -0.4966 -1.5565 -3.0536
43733SOL    HW241514   6.921   0.017   5.409  1.0917  0.1620  0.4835
43734SOL     OW41515   4.586   9.801   3.107 -0.3873 -0.4160  0.2803
43734SOL    HW141516   4.551   9.890   3.110 -0.0068 -0.2788  1.0368
43734SOL    HW241517   4.656   9.801   3.172 -0.5728 -1.3489  0.4960
43735SOL     OW41518   7.403   8.746  12.954  0.0057 -0.2165 -0.2509
43735SOL    HW141519   7.406   8.742  12.858  0.7002  1.2784 -0.3296
43735SOL    HW241520   7.319   8.789  12.973 -0.6890 -1.5693 -0.1002
43736SOL     OW41521  11.017   2.825  12.063  0.1064 -0.5386  0.2948
43736SOL    HW141522  10.999   2.894  11.999  0.2363 -0.7929 -0.0134
43736SOL    HW241523  11.090   2.859  12.114  2.0677 -1.6140 -1.6506
43737SOL     OW41524   9.270  11.542   6.463 -0.4576  0.1260 -0.1025
43737SOL    HW141525   9.281  11.447   6.474  2.3689  0.1930 -1.4594
43737SOL    HW241526   9.201  11.550   6.398 -1.3900 -0.9221  0.6950
43738SOL     OW41527  12.796   6.054   4.679  0.3605  0.2101 -0.2084
43738SOL    HW141528  12.775   6.007   4.598 -1.3060  1.4209 -0.5263
43738SOL    HW241529  12.734   6.127   4.681  1.1619  0.8910  1.5780
43739SOL     OW41530   5.772  12.482   1.145 -0.4784  0.4772 -0.5427
43739SOL    HW141531   5.862  12.509   1.165 -0.1218 -0.0410 -1.3783
43739SOL    HW241532   5.728  12.563   1.118 -0.5734  0.9207  0.8644
43740SOL     OW41533   0.968  11.644   8.546 -0.6694  0.3375  0.0270
43740SOL    HW141534   0.979  11.594   8.465 -0.9788  2.2454 -1.2619
43740SOL    HW241535   0.909  11.590   8.600 -0.1173 -1.1684 -0.8069
43741SOL     OW41536   4.355   1.084  11.148  0.7067 -0.1165 -0.2402
43741SOL    HW141537   4.287   1.068  11.083 -0.6889 -0.1845  1.1929
43741SOL    HW241538   4.436   1.085  11.097 -0.3077 -0.3565 -1.9462
43742SOL     OW41539   1.876  10.926   0.790  0.5324  0.3532 -0.0300
43742SOL    HW141540   1.814  10.958   0.855 -1.2717  1.0143 -1.9748
43742SOL    HW241541   1.941  10.995   0.783  0.6777  0.3339  0.9312
43743SOL     OW41542   7.093   7.135   4.232  0.3808 -0.2838  0.2352
43743SOL    HW141543   7.121   7.086   4.155  0.6979 -0.3262  0.3748
43743SOL    HW241544   7.156   7.206   4.240  1.3150 -1.1930  1.3652
43744SOL     OW41545   6.006   5.868   8.798 -0.2532 -0.0430 -0.4803
43744SOL    HW141546   5.958   5.807   8.742  0.5548  0.2331 -1.4890
43744SOL    HW241547   5.953   5.948   8.798 -1.0498 -0.5465  0.4311
43745SOL     OW41548   0.822   0.889   8.075  0.7121 -0.6044  0.0023
43745SOL    HW141549   0.857   0.887   8.164 -1.0289  0.2622  0.7666
43745SOL    HW241550   0.733   0.857   8.083  0.2578  0.2257 -1.2824
43746SOL     OW41551   3.691   8.679  11.001 -0.1698  0.2036  0.1255
43746SOL    HW141552   3.731   8.604  11.045 -0.5285  1.6784  3.2304
43746SOL    HW241553   3.625   8.640  10.943  0.5804 -1.9223  0.5921
43747SOL     OW41554   3.793   8.962   1.038  0.3953 -0.2268 -0.0184
43747SOL    HW141555   3.818   8.915   0.958  0.0931 -0.1274 -0.1696
43747SOL    HW241556   3.810   8.899   1.108  1.1584 -0.1364 -0.1088
43748SOL     OW41557   2.996  11.320   5.439  0.5574  0.4152  0.0249
43748SOL    HW141558   2.958  11.352   5.357  1.1264 -0.1989 -0.4902
43748SOL    HW241559   3.082  11.286   5.414 -0.1453 -1.8898  0.4127
43749SOL     OW41560   4.586   7.769   8.283  0.1200 -0.1260 -0.1595
43749SOL    HW141561   4.497   7.745   8.260  0.3758 -1.6452  0.3651
43749SOL    HW241562   4.587   7.773   8.379 -0.0481  2.6718 -0.1766
43750SOL     OW41563   8.673   4.067   6.217  0.0183 -0.1900  0.6799
43750SOL    HW141564   8.738   4.052   6.286 -0.4853 -1.3300  0.9380
43750SOL    HW241565   8.602   4.006   6.237 -0.6267  0.2346 -0.2340
43751SOL     OW41566   6.052   2.289   1.661 -0.4183 -0.3386  0.5328
43751SOL    HW141567   6.038   2.349   1.587 -0.9237 -0.5545  0.4527
43751SOL    HW241568   5.973   2.236   1.664 -0.9419  0.4842  1.9924
43752SOL     OW41569   8.981   4.903   6.928 -0.4446  0.3063 -0.4667
43752SOL    HW141570   8.986   4.811   6.902 -1.6205  0.4718 -1.3573
43752SOL    HW241571   8.900   4.909   6.980  0.3734  0.5669  0.8335
43753SOL     OW41572   3.062   0.800   9.640  0.0419  0.1115  0.4157
43753SOL    HW141573   3.147   0.835   9.614  0.0473 -1.0455 -1.2529
43753SOL    HW241574   3.007   0.808   9.562  0.0715 -3.5818 -0.1510
43754SOL     OW41575  11.540   9.808   1.231  0.2878 -0.5085  0.8615
43754SOL    HW141576  11.481   9.775   1.163 -0.0501  0.8207  0.4891
43754SOL    HW241577  11.610   9.743   1.234  1.7533  0.6056 -2.6874
43755SOL     OW41578   2.000  12.907   0.181 -0.3636  0.6116 -0.2607
43755SOL    HW141579   2.059  12.975   0.149  0.6224 -1.6878 -3.9923
43755SOL    HW241580   1.942  12.889   0.107 -1.7472 -1.3826  1.2012
43756SOL     OW41581   1.186  10.123  10.786 -0.2392  0.6239 -0.0801
43756SOL    HW141582   1.252  10.127  10.855 -1.3309  1.3096  0.9528
43756SOL    HW241583   1.196  10.207  10.740  0.0008  0.4749 -0.3024
43757SOL     OW41584   6.217   5.738  10.501 -0.0067  0.1117 -0.2774
43757SOL    HW141585   6.257   5.811  10.549 -0.4160 -1.1479  2.1745
43757SOL    HW241586   6.126   5.766  10.486  0.1587  0.5721 -0.4273
43758SOL     OW41587   7.104   6.068   5.197 -0.3439 -0.1771 -0.4049
43758SOL    HW141588   7.089   6.012   5.274  0.0397  0.7327  0.3573
43758SOL    HW241589   7.144   6.147   5.233 -2.1248  1.1729 -1.2613
43759SOL     OW41590   5.646   8.712   7.248 -0.0398 -0.3791  0.7248
43759SOL    HW141591   5.604   8.635   7.287 -2.0279  1.0218  1.5490
43759SOL    HW241592   5.659   8.772   7.322 -0.0726  0.7151 -0.1324
43760SOL     OW41593   3.713   0.046   9.661 -0.0882 -0.2949  0.3116
43760SOL    HW141594   3.718   0.132   9.701  0.2672 -0.3074  0.3005
43760SOL    HW241595   3.657  -0.005   9.719 -0.2189 -0.0839  0.3704
43761SOL     OW41596   5.123   6.618   8.790  0.2248  0.2761 -0.0370
43761SOL    HW141597   5.124   6.618   8.694  2.5572 -0.7745 -0.0715
43761SOL    HW241598   5.204   6.574   8.815 -0.1450  0.8581  2.4391
43762SOL     OW41599   5.721  10.327   8.711 -0.3413  0.1676  0.0797
43762SOL    HW141600   5.753  10.398   8.767 -1.2189  2.5100 -2.1868
43762SOL    HW241601   5.801  10.281   8.683  0.3519  0.9224  0.7637
43763SOL     OW41602   7.936   0.650   7.840 -0.1131  0.0124  0.3198
43763SOL    HW141603   8.016   0.689   7.804 -0.1780 -1.5463 -1.6987
43763SOL    HW241604   7.946   0.660   7.934  2.2768  0.2587  0.1249
43764SOL     OW41605   8.416   2.001   8.433  0.0942  0.0277  0.0045
43764SOL    HW141606   8.498   2.031   8.394 -0.3020 -1.2562 -1.9476
43764SOL    HW241607   8.357   2.076   8.426  0.0310 -0.1552 -1.9927
43765SOL     OW41608   2.305   2.062   9.509  0.4625 -0.2166 -0.0396
43765SOL    HW141609   2.297   2.109   9.426  0.9609 -0.9343 -0.4967
43765SOL    HW241610   2.384   2.009   9.500  0.9998  0.3233  1.2127
43766SOL     OW41611  11.533   3.552   6.804  0.2659  0.3536 -0.0804
43766SOL    HW141612  11.480   3.632   6.803  1.6154  1.2963  0.0441
43766SOL    HW241613  11.557   3.538   6.712  0.7005  0.5809 -0.0068
43767SOL     OW41614   4.810   0.640   7.502 -0.1028 -0.2060  0.2138
43767SOL    HW141615   4.877   0.612   7.564  0.0916 -1.0166 -0.3585
43767SOL    HW241616   4.818   0.736   7.501  1.1828 -0.2956  0.0114
43768SOL     OW41617  10.579   1.772  12.380 -0.3165 -0.3777 -0.1537
43768SOL    HW141618  10.631   1.848  12.354 -1.5966  0.3111 -0.7995
43768SOL    HW241619  10.491   1.807  12.394 -1.1874 -1.8886 -1.4903
43769SOL     OW41620  10.397   7.350   2.899 -0.4132  0.1975 -0.4816
43769SOL    HW141621  10.416   7.325   2.809  1.5692 -1.3278  0.2819
43769SOL    HW241622  10.315   7.305   2.920 -0.4809 -0.0588 -1.2790
43770SOL     OW41623   6.726   8.538   3.347  0.8465 -0.7353 -0.1733
43770SOL    HW141624   6.659   8.550   3.414 -0.3680  0.4113 -1.5401
43770SOL    HW241625   6.697   8.591   3.273  2.0818 -2.0411 -1.6848
43771SOL     OW41626   7.804   8.620   2.874  0.4840 -0.2260  0.1216
43771SOL    HW141627   7.782   8.531   2.849  0.8153  0.5461 -3.3437
43771SOL    HW241628   7.895   8.632   2.847  0.7737  0.9161  1.4406
43772SOL     OW41629   0.101   8.057   3.394 -0.0164 -0.1903  0.1599
43772SOL    HW141630   0.175   8.031   3.449  0.0550 -0.8494 -0.2399
43772SOL    HW241631   0.138   8.066   3.307 -0.1856  0.5855  0.1603
43773SOL     OW41632   3.728   7.238   4.735  0.5301  0.6936  0.4893
43773SOL    HW141633   3.813   7.194   4.736  0.4432  0.5152  0.2310
43773SOL    HW241634   3.667   7.174   4.772  0.2195  0.1954 -0.8296
43774SOL     OW41635   0.150   3.974  10.021 -0.1831  0.0353  0.1090
43774SOL    HW141636   0.189   3.942  10.102  0.8644  0.5601 -0.1624
43774SOL    HW241637   0.215   4.035   9.986 -0.5931 -0.2050 -1.1415
43775SOL     OW41638  10.976   0.072   0.606 -0.5321  0.3934 -0.2444
43775SOL    HW141639  10.901   0.109   0.652 -0.6304  0.8697 -0.7772
43775SOL    HW241640  11.030   0.148   0.584  0.8983 -0.0337  1.4665
43776SOL     OW41641   0.319   1.607   6.164  0.4881 -0.1197 -0.5704
43776SOL    HW141642   0.287   1.683   6.115  0.0155  0.2958  0.3437
43776SOL    HW241643   0.309   1.533   6.104 -0.8291  0.2441 -0.8357
43777SOL     OW41644  12.671   1.394   2.617  0.0412 -0.1785  0.0101
43777SOL    HW141645  12.722   1.445   2.554 -0.1752  0.8366  0.6265
43777SOL    HW241646  12.699   1.304   2.604  2.2365  0.3852  0.5644
43778SOL     OW41647   8.713   8.170   1.979 -0.8107  0.1507 -0.5683
43778SOL    HW141648   8.618   8.176   1.972 -1.1999 -0.9296  2.2398
43778SOL    HW241649   8.740   8.257   2.009 -1.2018 -0.1002  0.5618
43779SOL     OW41650  11.335   3.990   1.570  0.8242  0.0928 -0.1887
43779SOL    HW141651  11.315   3.900   1.594 -0.5366 -0.0241 -1.5794
43779SOL    HW241652  11.353   3.986   1.475  0.8833  1.2602 -0.2453
43780SOL     OW41653   1.309   2.036   1.804 -1.0707  0.2893 -0.0274
43780SOL    HW141654   1.397   2.070   1.790 -1.9064  2.2359 -0.9908
43780SOL    HW241655   1.310   2.001   1.893 -0.1285  3.1818  1.2259
43781SOL     OW41656   2.300   1.149   4.125  0.2453 -0.1546 -0.1110
43781SOL    HW141657   2.211   1.167   4.155  0.8344  5.0366 -0.6441
43781SOL    HW241658   2.291   1.075   4.066 -3.8150  0.4488 -0.5123
43782SOL     OW41659   0.755  10.216   3.923 -0.3490  0.1115 -0.3757
43782SOL    HW141660   0.715  10.171   3.997  1.9221 -0.9728  0.2965
43782SOL    HW241661   0.710  10.300   3.918 -2.0866 -0.7041  0.7773
43783SOL     OW41662   3.949  11.970   6.555  0.2452 -0.5039  0.1170
43783SOL    HW141663   3.961  12.012   6.640 -2.6066  1.6057 -0.3578
43783SOL    HW241664   3.978  11.880   6.568  0.5832 -0.0705  3.1014
43784SOL     OW41665   3.029   7.997  10.799 -0.3987 -0.3717  0.0322
43784SOL    HW141666   3.105   8.008  10.856 -0.5355  0.4584  0.0736
43784SOL    HW241667   3.007   7.904  10.804  0.5103 -0.5878  0.1510
43785SOL     OW41668  10.421  12.535   8.103  0.0158  0.2456  0.4701
43785SOL    HW141669  10.398  12.623   8.133  2.4727  0.2236  2.8084
43785SOL    HW241670  10.366  12.477   8.156  0.8596  0.3306  1.4641
43786SOL     OW41671   8.808   4.332   0.700 -0.4391 -0.1909 -0.2825
43786SOL    HW141672   8.846   4.338   0.613  0.4760 -1.5238 -0.0059
43786SOL    HW241673   8.791   4.238   0.713 -1.1272  0.0510  0.7390
43787SOL     OW41674   5.941   1.391  12.157 -0.5221 -0.1458  0.2081
43787SOL    HW141675   5.978   1.307  12.185 -0.5221 -0.0767  0.4179
43787SOL    HW241676   5.859   1.399  12.206  0.3836  0.8420  1.6407
43788SOL     OW41677   7.745   6.793   8.266 -0.1822  0.1721  0.1100
43788SOL    HW141678   7.827   6.792   8.217 -0.3084 -0.2880 -0.1025
43788SOL    HW241679   7.742   6.706   8.308  1.8999  1.8004  4.2544
43789SOL     OW41680  11.140   5.982   9.434  0.1216 -0.0522 -0.3993
43789SOL    HW141681  11.069   5.933   9.392  1.5846 -1.6735 -1.1384
43789SOL    HW241682  11.155   5.935   9.516  0.0232  0.5856 -0.0133
43790SOL     OW41683  11.385   6.275   0.876 -0.2880 -0.2305  0.0776
43790SOL    HW141684  11.331   6.255   0.952  0.1023  0.3800  0.5237
43790SOL    HW241685  11.323   6.282   0.803 -1.2962  3.2938  1.0566
43791SOL     OW41686   9.997   1.944   2.408 -0.1301  0.4028 -0.1657
43791SOL    HW141687   9.956   1.984   2.484 -1.2641 -0.1425 -0.4720
43791SOL    HW241688   9.945   1.974   2.334  0.9789  0.9557 -0.7476
43792SOL     OW41689   6.742  12.586   6.157 -0.5672  0.4354  0.6478
43792SOL    HW141690   6.692  12.569   6.077  1.6139 -0.6177 -0.5843
43792SOL    HW241691   6.724  12.512   6.214 -0.6337  0.2003  0.3206
43793SOL     OW41692  11.156   8.382   6.642 -0.1933  0.2290 -0.4175
43793SOL    HW141693  11.151   8.366   6.548 -0.3113 -0.7638 -0.2556
43793SOL    HW241694  11.083   8.441   6.661 -2.4132 -2.3384 -0.4272
43794SOL     OW41695   4.503  11.559  11.883  0.1168 -0.3121  0.3284
43794SOL    HW141696   4.493  11.546  11.978  0.8552 -0.0222  0.4549
43794SOL    HW241697   4.584  11.513  11.862  0.6630  0.7512  0.0815
43795SOL     OW41698   3.289   7.904   1.293  0.5248  0.2799  0.1507
43795SOL    HW141699   3.229   7.872   1.226  0.8944  1.3886 -0.7401
43795SOL    HW241700   3.273   7.998   1.298  1.9390  0.5498  0.1277
43796SOL     OW41701   7.534   2.661  10.214 -0.3587 -0.2297 -0.5623
43796SOL    HW141702   7.453   2.676  10.166 -1.6396 -1.6640  1.0245
43796SOL    HW241703   7.575   2.587  10.168 -0.3614 -0.0545 -0.8529
43797SOL     OW41704   3.218   3.953   7.965 -0.2681  0.2950 -0.1667
43797SOL    HW141705   3.310   3.945   7.944 -0.2957 -0.4502 -0.0438
43797SOL    HW241706   3.216   3.966   8.060 -0.3130 -0.4229 -0.0627
43798SOL     OW41707  11.824   2.934   4.778 -0.0033  0.0079 -0.1848
43798SOL    HW141708  11.824   3.010   4.720  0.3430  0.2125  0.0722
43798SOL    HW241709  11.796   2.969   4.863 -2.7995 -0.7262 -0.7372
43799SOL     OW41710   2.314  10.830   2.768 -0.3421 -0.0196  1.2534
43799SOL    HW141711   2.409  10.828   2.770 -0.2972 -0.2051 -0.1997
43799SOL    HW241712   2.290  10.782   2.689 -1.5866  0.9698  0.9887
43800SOL     OW41713  11.428  11.139  10.569 -0.8563 -0.4092  0.3477
43800SOL    HW141714  11.515  11.111  10.542 -0.3414  0.3453  1.1535
43800SOL    HW241715  11.437  11.232  10.587 -2.2639  0.0680 -1.2281
43801SOL     OW41716   2.756   1.410  12.011  0.0369 -0.1160 -0.5146
43801SOL    HW141717   2.699   1.368  12.076 -0.3964  1.9028  0.5161
43801SOL    HW241718   2.837   1.430  12.059 -0.4806  1.8695 -0.3604
43802SOL     OW41719  11.211   6.502   3.979  0.1550  0.0642  0.5803
43802SOL    HW141720  11.255   6.553   4.047  0.7104 -1.3089  1.3104
43802SOL    HW241721  11.265   6.514   3.901  0.0346  0.9115  0.6200
43803SOL     OW41722   1.250   6.858   7.642  0.0376  0.0261  0.5034
43803SOL    HW141723   1.338   6.827   7.620  0.7762  1.0401  1.8313
43803SOL    HW241724   1.253   6.872   7.737 -1.6268 -0.0940  0.6021
43804SOL     OW41725   9.563  12.972   8.372  0.1359 -0.0339  0.4012
43804SOL    HW141726   9.489  13.031   8.380  0.2323  0.2671 -0.8138
43804SOL    HW241727   9.638  13.023   8.403 -0.1296 -0.3021  1.5259
43805SOL     OW41728  10.655   7.813   9.682 -0.3346  0.2860 -0.3175
43805SOL    HW141729  10.727   7.838   9.739 -1.0401 -0.4427  0.9299
43805SOL    HW241730  10.669   7.720   9.664  0.3704  0.6953 -2.1080
43806SOL     OW41731   0.488   1.357   2.616 -0.2203  0.3547 -0.1180
43806SOL    HW141732   0.543   1.434   2.630  0.1947 -0.1224  1.0433
43806SOL    HW241733   0.534   1.307   2.548 -0.8474  1.4274 -1.3776
43807SOL     OW41734   8.941   3.816   0.743 -0.5649  0.1412  0.5622
43807SOL    HW141735   8.907   3.782   0.825 -0.4413 -2.4659 -0.3705
43807SOL    HW241736   8.864   3.845   0.695 -0.7875  0.2335  0.9704
43808SOL     OW41737  10.559   7.742   0.187 -0.0970  0.2604  0.0653
43808SOL    HW141738  10.628   7.693   0.141  1.1804  0.3683  1.7502
43808SOL    HW241739  10.538   7.815   0.129 -0.0026 -0.6946 -1.2208
43809SOL     OW41740   5.909   8.833   6.599 -0.2127  0.0854 -0.4388
43809SOL    HW141741   5.888   8.771   6.670 -1.6254  1.6624  0.6049
43809SOL    HW241742   5.878   8.790   6.520  0.5268 -1.3123 -0.0112
43810SOL     OW41743   4.432  10.946   6.263 -0.0571  0.6423  0.2229
43810SOL    HW141744   4.386  10.969   6.344  0.4271  0.1026  0.6553
43810SOL    HW241745   4.363  10.944   6.196 -0.9076 -1.3970  1.0810
43811SOL     OW41746   0.769   8.626  11.140  0.2650  0.3556 -0.4957
43811SOL    HW141747   0.774   8.683  11.217 -2.4715  0.3218 -0.1994
43811SOL    HW241748   0.717   8.675  11.077  0.3928 -0.6295 -1.3925
43812SOL     OW41749   6.757  12.300  11.321 -0.5203 -0.0359 -0.1437
43812SOL    HW141750   6.774  12.211  11.351  0.1414 -0.7441 -2.3636
43812SOL    HW241751   6.831  12.352  11.353  0.9577 -1.0737 -1.6988
43813SOL     OW41752   5.784  12.014  12.211 -0.0131 -0.0319 -0.0396
43813SOL    HW141753   5.866  12.033  12.256  0.7619 -0.4877 -1.2324
43813SOL    HW241754   5.745  11.943  12.261  0.2951  0.1960  0.5396
43814SOL     OW41755   3.145   0.997   0.264 -0.1165 -0.2442  0.2919
43814SOL    HW141756   3.079   0.929   0.271  0.1159 -0.6534 -1.1887
43814SOL    HW241757   3.112   1.056   0.196  0.8307 -0.2407 -0.1909
43815SOL     OW41758   6.052  11.622   8.772 -0.1287  0.4221  0.5715
43815SOL    HW141759   6.071  11.647   8.862 -1.1380  2.3012  0.3131
43815SOL    HW241760   6.060  11.704   8.722  1.0945 -0.7039 -1.1887
43816SOL     OW41761   3.885   0.232   2.126  0.2210 -0.3151 -0.0761
43816SOL    HW141762   3.844   0.285   2.057  1.1865  0.4308 -0.0911
43816SOL    HW241763   3.952   0.182   2.081  0.7645  0.0729  0.2911
43817SOL     OW41764  10.466   1.326   1.374 -0.0389 -0.2078 -0.1120
43817SOL    HW141765  10.535   1.264   1.352 -0.2146  0.0339 -1.4140
43817SOL    HW241766  10.460   1.383   1.298 -1.8620 -0.4012 -0.1497
43818SOL     OW41767   1.690   0.313   3.782  0.0686  0.2576  0.0723
43818SOL    HW141768   1.658   0.223   3.775  1.1207 -0.2337  1.2430
43818SOL    HW241769   1.623   0.366   3.738 -0.9645 -1.0050  0.0705
43819SOL     OW41770  12.106   7.365   2.174  0.2733  0.5092  0.1395
43819SOL    HW141771  12.058   7.283   2.174  0.2888  0.4958  0.7171
43819SOL    HW241772  12.075   7.412   2.251  1.7415  0.1638  0.9882
43820SOL     OW41773  10.468  12.659  12.183 -0.1158 -0.1635 -0.0385
43820SOL    HW141774  10.429  12.591  12.129  1.6403  0.0830 -1.7218
43820SOL    HW241775  10.524  12.708  12.123  0.1793  1.5525  1.5502
43821SOL     OW41776   0.327   3.655   6.636 -1.0867  0.5568 -0.4969
43821SOL    HW141777   0.264   3.613   6.695  1.7407 -0.8985  1.7481
43821SOL    HW241778   0.353   3.585   6.576  0.3178  0.3282  0.3401
43822SOL     OW41779   0.035   4.303   5.986 -0.0845 -1.1103  0.0920
43822SOL    HW141780  -0.000   4.310   5.897  0.2246 -1.5954 -0.0697
43822SOL    HW241781   0.126   4.275   5.974  0.8057  1.3308  0.4346
43823SOL     OW41782  10.397   6.521   2.663  0.1728  0.1604  0.0896
43823SOL    HW141783  10.435   6.608   2.645 -0.1373  0.6421  1.6093
43823SOL    HW241784  10.455   6.460   2.618  1.4834  1.0383  0.5107
43824SOL     OW41785   8.227   3.156   7.585  0.3628 -0.0763 -0.5491
43824SOL    HW141786   8.176   3.219   7.635  0.8681  1.2403 -1.6109
43824SOL    HW241787   8.194   3.164   7.495  0.7818 -0.9694 -0.7955
43825SOL     OW41788   8.679   1.478  10.546 -0.1218  0.6079  0.3429
43825SOL    HW141789   8.755   1.506  10.598  0.1178  0.5516  0.0292
43825SOL    HW241790   8.693   1.519  10.460  0.6494 -1.0781 -0.3860
43826SOL     OW41791   5.207   1.980   2.998 -0.1749  0.0266  0.5519
43826SOL    HW141792   5.164   2.027   2.926  0.4159  0.8615  0.7368
43826SOL    HW241793   5.288   1.947   2.960  0.3811  0.9020  0.9633
43827SOL     OW41794   5.744   6.497  10.423 -0.2008  0.1624  0.2777
43827SOL    HW141795   5.812   6.529  10.483  0.0641 -2.2489  1.3952
43827SOL    HW241796   5.668   6.552  10.442  0.2890  0.3479  1.8630
43828SOL     OW41797   2.135   6.018   3.011  0.1681 -0.3043  0.3256
43828SOL    HW141798   2.083   5.937   3.010  0.3427 -0.4161 -0.0237
43828SOL    HW241799   2.080   6.082   2.965 -0.3347  0.0143  1.3421
43829SOL     OW41800   6.001   9.165  10.823 -0.4510  0.1214  0.1242
43829SOL    HW141801   6.046   9.235  10.870  0.6784 -0.1821 -0.4728
43829SOL    HW241802   6.071   9.118  10.777 -1.3763 -0.3694 -0.8231
43830SOL     OW41803   4.961   2.087   3.137 -0.0783 -0.5222 -0.0376
43830SOL    HW141804   4.960   2.134   3.221 -0.2317  1.3030 -0.9961
43830SOL    HW241805   5.053   2.082   3.113 -0.1483  0.8539 -0.7116
43831SOL     OW41806  11.149  12.000   3.963 -0.3877  0.5480 -0.0664
43831SOL    HW141807  11.145  12.090   3.930 -0.1254  0.3212 -0.7284
43831SOL    HW241808  11.087  11.952   3.908  0.0907  0.1575 -0.2645
43832SOL     OW41809  10.486   4.966   9.741  0.2674 -0.2117 -0.5430
43832SOL    HW141810  10.439   4.931   9.817  2.1984  1.3725  1.5654
43832SOL    HW241811  10.422   5.020   9.695 -0.8422 -0.8436  0.2243
43833SOL     OW41812   2.491   7.510   8.373 -0.6647  0.4204 -0.2019
43833SOL    HW141813   2.446   7.501   8.289 -0.5592 -1.3035 -0.1092
43833SOL    HW241814   2.547   7.587   8.363  1.1195 -1.0631 -2.5625
43834SOL     OW41815   6.751   6.758   2.484 -0.0605  0.0361  0.0076
43834SOL    HW141816   6.740   6.705   2.405 -1.7016 -3.2036  2.1977
43834SOL    HW241817   6.823   6.717   2.531 -1.7865 -0.7939  2.0669
43835SOL     OW41818   8.122  11.168   5.758 -0.0312  0.4037  0.1074
43835SOL    HW141819   8.045  11.154   5.703  0.5105  0.1086 -0.5857
43835SOL    HW241820   8.088  11.216   5.834 -0.9195  0.1660 -0.1233
43836SOL     OW41821  12.297   0.847  10.572 -0.0097 -0.4218 -0.0108
43836SOL    HW141822  12.242   0.844  10.650  1.2500 -0.0522  0.9365
43836SOL    HW241823  12.323   0.939  10.564  0.3783 -0.5668 -0.5032
43837SOL     OW41824   8.052  10.100   1.664 -0.6400  0.6858 -0.0587
43837SOL    HW141825   8.084  10.190   1.673 -0.4095  0.7226 -1.1442
43837SOL    HW241826   7.957  10.108   1.660 -0.6827  0.7779  0.8705
43838SOL     OW41827   8.923  11.579   7.668 -0.2388 -0.1595 -0.0535
43838SOL    HW141828   8.900  11.509   7.607 -1.1248 -1.4874  1.7294
43838SOL    HW241829   8.937  11.535   7.752  0.2729  1.6776  0.8854
43839SOL     OW41830  11.629  10.452  12.236  0.0131  0.2131 -0.8461
43839SOL    HW141831  11.573  10.443  12.313 -1.0602 -0.2954 -1.6689
43839SOL    HW241832  11.717  10.431  12.267 -0.1814  1.3223  0.5359
43840SOL     OW41833   1.513   8.514   5.486 -0.1791 -0.3194  0.3470
43840SOL    HW141834   1.573   8.560   5.545  0.0794 -0.2641  0.0401
43840SOL    HW241835   1.486   8.581   5.422  0.0587 -0.5474  0.0060
43841SOL     OW41836   8.530  12.644   7.431 -0.2106 -0.0194  0.4924
43841SOL    HW141837   8.466  12.593   7.480  0.4859 -0.7666  0.6397
43841SOL    HW241838   8.531  12.729   7.474 -0.2475 -0.3827  1.2185
43842SOL     OW41839  10.051   8.148  10.298 -1.0748 -0.3253 -0.5674
43842SOL    HW141840  10.102   8.229  10.302 -2.2427  0.4717 -1.4666
43842SOL    HW241841  10.044   8.120  10.389  2.7182 -1.6238 -0.4939
43843SOL     OW41842   5.026   3.544  11.992 -0.2825  0.1234 -0.7390
43843SOL    HW141843   5.009   3.637  12.007 -0.0118 -0.0043  0.4328
43843SOL    HW241844   5.100   3.524  12.050 -0.2601 -0.7901 -1.0814
43844SOL     OW41845   1.965   9.303   3.293 -0.1585  0.8385 -0.2289
43844SOL    HW141846   1.886   9.334   3.248 -0.1727  1.8622  0.4604
43844SOL    HW241847   1.995   9.379   3.343  2.0273  0.8845 -1.4881
43845SOL     OW41848   6.008   3.359   9.876 -0.8324 -0.2010  0.5541
43845SOL    HW141849   6.006   3.452   9.854 -1.3796 -0.3466 -0.0616
43845SOL    HW241850   5.929   3.323   9.835  0.3854 -1.2984 -0.9658
43846SOL     OW41851   1.448  10.865   6.429  0.4760  0.3607  0.2542
43846SOL    HW141852   1.447  10.955   6.396 -0.0490  0.7913  1.4119
43846SOL    HW241853   1.435  10.811   6.351 -0.5504  1.3426 -0.2833
43847SOL     OW41854   4.712   7.633   8.695 -0.1781  0.1597 -0.6607
43847SOL    HW141855   4.680   7.544   8.713 -0.9507  0.3902 -0.8779
43847SOL    HW241856   4.642   7.674   8.645  0.6624  0.5228 -1.5720
43848SOL     OW41857   1.953   8.341   3.811  0.4043  0.0366 -0.0217
43848SOL    HW141858   1.882   8.306   3.863  0.8324 -0.8606 -0.0285
43848SOL    HW241859   1.985   8.416   3.862 -1.2802  1.2007 -0.5810
43849SOL     OW41860   0.168   2.387  12.966 -0.3618  0.9041 -0.6250
43849SOL    HW141861   0.172   2.483  12.962 -0.3343  0.9322 -0.0178
43849SOL    HW241862   0.257   2.359  12.983 -0.6983  0.8953  1.2872
43850SOL     OW41863   9.036   5.154   6.490 -0.4452  0.0218  0.2757
43850SOL    HW141864   8.999   5.208   6.420 -0.0425 -0.0041  0.0383
43850SOL    HW241865   9.122   5.193   6.508 -0.2657 -0.3754  0.2933
43851SOL     OW41866   4.290  12.037   2.352 -0.0032  0.5287 -0.0618
43851SOL    HW141867   4.376  11.996   2.364 -0.1759  0.5025  1.1630
43851SOL    HW241868   4.299  12.086   2.270  1.4075  1.1123  0.4169
43852SOL     OW41869   7.017   6.200   8.688 -0.3311  0.4830  0.5500
43852SOL    HW141870   7.077   6.191   8.762  0.0460  1.4731  0.3706
43852SOL    HW241871   6.955   6.128   8.700  2.2133 -2.1317 -0.5453
43853SOL     OW41872   5.063  10.137   1.334 -0.4857  0.0237  0.2079
43853SOL    HW141873   5.130  10.181   1.282 -0.1034  0.7975  1.3152
43853SOL    HW241874   5.012  10.208   1.373 -0.8773 -0.5446  0.7433
43854SOL     OW41875   8.709   5.751   6.019 -0.4607 -1.1777 -0.0957
43854SOL    HW141876   8.801   5.775   6.033  0.1205 -2.6921 -1.0917
43854SOL    HW241877   8.659   5.825   6.053  1.1777  0.8784 -1.9184
43855SOL     OW41878   4.614  12.198   2.322 -0.0984  0.7550  0.0483
43855SOL    HW141879   4.606  12.127   2.385 -1.1413 -0.2938 -1.2287
43855SOL    HW241880   4.571  12.167   2.243  1.5810  1.8364 -1.3950
43856SOL     OW41881  11.572  12.368   4.365 -0.1133 -0.0635 -0.5945
43856SOL    HW141882  11.545  12.393   4.277 -0.8526  0.8202 -0.1378
43856SOL    HW241883  11.494  12.381   4.418  0.5190  0.0973  0.3175
43857SOL     OW41884   4.760  12.680   5.117  0.2909  0.0033 -0.0610
43857SOL    HW141885   4.815  12.602   5.131 -1.0357 -1.1897 -1.1129
43857SOL    HW241886   4.671  12.650   5.138 -0.3735  0.9760 -1.3586
43858SOL     OW41887   0.208   4.843   2.423  0.1891 -0.6484  0.4552
43858SOL    HW141888   0.140   4.859   2.358 -0.7387  1.1989  1.7806
43858SOL    HW241889   0.288   4.877   2.384 -0.8043  2.7926  1.1310
43859SOL     OW41890  12.284  11.663   6.168 -1.1438 -0.2483 -0.0268
43859SOL    HW141891  12.284  11.633   6.077  0.4683 -2.2326  0.5595
43859SOL    HW241892  12.288  11.582   6.220  1.1242  0.8745  1.7167
43860SOL     OW41893  11.857   1.644   2.539 -0.2752 -0.1251 -0.7018
43860SOL    HW141894  11.780   1.591   2.561  0.3362 -0.9549 -0.5124
43860SOL    HW241895  11.848   1.662   2.445 -1.1962  0.6290 -0.4919
43861SOL     OW41896   7.735  10.799  11.866 -0.3640  0.2806  0.2338
43861SOL    HW141897   7.808  10.737  11.868 -0.1706  0.4128 -1.2615
43861SOL    HW241898   7.659  10.749  11.896 -0.1565 -0.6251 -0.7058
43862SOL     OW41899  10.083   6.217   7.532 -0.5413  0.1497  0.1378
43862SOL    HW141900  10.001   6.220   7.582 -0.6552 -1.2275  0.0737
43862SOL    HW241901  10.060   6.254   7.447 -0.4505  2.1334  0.9206
43863SOL     OW41902   1.321   6.535   4.419  1.0875 -0.1096  0.3434
43863SOL    HW141903   1.293   6.563   4.506  0.3379 -1.3490  0.5265
43863SOL    HW241904   1.241   6.503   4.377  1.1956  1.5428 -1.2683
43864SOL     OW41905   7.559   3.469   6.945  0.0606 -0.6888 -0.4042
43864SOL    HW141906   7.499   3.483   6.871  1.3747 -0.6074 -1.5095
43864SOL    HW241907   7.531   3.533   7.010  0.0129  0.5647 -1.5954
43865SOL     OW41908  12.357   9.131   9.772  0.1601  0.0697 -0.9475
43865SOL    HW141909  12.347   9.213   9.821  0.6925 -0.1342 -0.4874
43865SOL    HW241910  12.276   9.083   9.789  0.6698 -0.3446  0.4089
43866SOL     OW41911   1.382   5.910   9.414  0.0664  0.3068  0.5640
43866SOL    HW141912   1.331   5.875   9.487 -0.2349 -0.1791  0.1337
43866SOL    HW241913   1.472   5.883   9.432 -0.0357  0.0239  0.6589
43867SOL     OW41914   1.386   8.469  12.132 -0.5657 -0.0093 -0.6589
43867SOL    HW141915   1.347   8.428  12.055 -0.2951 -0.9079 -0.3305
43867SOL    HW241916   1.316   8.523  12.169 -1.6026 -1.7115  0.0096
43868SOL     OW41917   6.810  11.650   3.766 -0.0435  0.2286 -0.1500
43868SOL    HW141918   6.790  11.743   3.782 -1.3261 -0.2313  1.0875
43868SOL    HW241919   6.725  11.607   3.767  0.2620 -0.6782 -3.0839
43869SOL     OW41920   0.493  11.692   0.156  0.1283  0.4549 -0.3357
43869SOL    HW141921   0.463  11.608   0.122  1.3749 -0.3211  0.4158
43869SOL    HW241922   0.537  11.735   0.083 -3.1705  1.9208 -1.6871
43870SOL     OW41923   4.766   7.610   3.044 -0.5163 -0.3284  0.4201
43870SOL    HW141924   4.744   7.686   3.098  1.8606 -1.4374  3.2207
43870SOL    HW241925   4.836   7.642   2.987  0.1134 -0.2390  1.2224
43871SOL     OW41926   9.405   0.023  10.369 -0.4389 -0.0560 -0.0144
43871SOL    HW141927   9.355   0.061  10.297 -1.9586  1.4831  1.7586
43871SOL    HW241928   9.391   0.082  10.442  3.9769  0.4687  0.7038
43872SOL     OW41929   7.099   9.999  10.275 -0.9074 -0.1076 -0.2666
43872SOL    HW141930   7.019  10.051  10.268  0.1058  2.2021  2.9201
43872SOL    HW241931   7.068   9.911  10.299 -2.5328  0.3411 -0.5774
43873SOL     OW41932   8.670   9.201   5.110  0.8892 -0.0235 -0.4018
43873SOL    HW141933   8.737   9.194   5.179  1.2511 -1.9453 -0.8800
43873SOL    HW241934   8.709   9.260   5.046  2.4299 -1.5040 -0.9215
43874SOL     OW41935   6.634   2.417   1.559 -0.0243 -0.1549  0.0132
43874SOL    HW141936   6.547   2.445   1.532 -0.0611  0.2522  0.5260
43874SOL    HW241937   6.664   2.359   1.489 -0.7584 -0.4012 -0.1095
43875SOL     OW41938   8.375   5.444   4.048 -0.0422  0.4291  0.4373
43875SOL    HW141939   8.396   5.480   4.134 -0.8488  1.8189  0.0806
43875SOL    HW241940   8.300   5.494   4.018  1.2497  1.1707 -1.8211
43876SOL     OW41941   6.425   5.959   1.933 -0.0931 -0.3059  0.3434
43876SOL    HW141942   6.450   5.889   1.874 -0.3498 -1.2301  1.3037
43876SOL    HW241943   6.330   5.947   1.945  0.0589 -0.5149  1.4148
43877SOL     OW41944   5.581   1.123   9.272 -0.7006 -0.0259  0.3946
43877SOL    HW141945   5.501   1.095   9.227 -1.1593 -1.0874  1.7800
43877SOL    HW241946   5.638   1.046   9.268 -0.2237  0.3254  0.4544
43878SOL     OW41947   9.098  11.452   2.846 -0.1887 -0.4154 -0.2589
43878SOL    HW141948   9.112  11.462   2.940 -1.0236 -0.8044 -0.0844
43878SOL    HW241949   9.162  11.510   2.806 -0.9268  1.0515  0.5930
43879SOL     OW41950   5.530   0.588   9.935 -0.3829 -0.1920 -0.2205
43879SOL    HW141951   5.557   0.578   9.844 -2.7830  0.8068 -1.1373
43879SOL    HW241952   5.445   0.544   9.939 -1.2926  1.5578  0.9524
43880SOL     OW41953  12.184   9.761   6.467 -0.2858 -0.1721 -0.6213
43880SOL    HW141954  12.110   9.772   6.527 -0.4788 -0.3317 -0.8297
43880SOL    HW241955  12.217   9.849   6.453  1.1801 -0.2990  1.5056
43881SOL     OW41956   8.117   4.989   7.596 -0.0786 -0.3937 -0.1541
43881SOL    HW141957   8.173   4.932   7.544  1.1553  0.1462  0.5495
43881SOL    HW241958   8.119   4.950   7.684  1.4774  1.1764  0.5491
43882SOL     OW41959   3.873   7.520   5.107 -0.0539 -0.2247 -0.2757
43882SOL    HW141960   3.864   7.560   5.193 -2.3313  0.0886 -0.5842
43882SOL    HW241961   3.912   7.434   5.124 -0.5368 -0.1959  1.0927
43883SOL     OW41962   6.869   7.264   8.448  0.2524  0.5820  0.5045
43883SOL    HW141963   6.823   7.183   8.469  0.4386  0.8872  2.1867
43883SOL    HW241964   6.859   7.272   8.353  1.2004 -1.9861  0.1024
43884SOL     OW41965   5.889   8.136   5.549 -0.4131 -0.5994 -0.0958
43884SOL    HW141966   5.888   8.044   5.577  1.7767 -0.2768  1.2501
43884SOL    HW241967   5.977   8.149   5.512 -1.6389  0.2477 -2.9884
43885SOL     OW41968   6.673  10.429  11.556 -0.5509  0.2634 -0.3722
43885SOL    HW141969   6.666  10.507  11.501 -1.0390  0.5684  0.1086
43885SOL    HW241970   6.740  10.452  11.621  0.4231 -0.2958 -1.1404
43886SOL     OW41971   4.798   5.494   3.766  0.3972  0.1772 -0.1342
43886SOL    HW141972   4.841   5.579   3.777  1.4945 -0.2288 -1.0420
43886SOL    HW241973   4.870   5.431   3.766 -0.4440 -0.8211  1.0704
43887SOL     OW41974   2.126  12.782   4.599 -0.1859 -0.2713 -0.7004
43887SOL    HW141975   2.097  12.828   4.521 -0.3064 -1.1711 -1.1983
43887SOL    HW241976   2.209  12.822   4.622 -1.5445  2.0683  0.4855
43888SOL     OW41977   8.424  11.952  11.786 -0.2043 -0.0977 -0.2302
43888SOL    HW141978   8.482  11.953  11.862 -0.0804 -2.5101 -0.2216
43888SOL    HW241979   8.480  11.977  11.713  0.1820  0.2482  0.1760
43889SOL     OW41980   4.513   8.233   4.133 -0.0944  0.0559  0.3489
43889SOL    HW141981   4.433   8.265   4.175  1.0744  4.5805 -0.3123
43889SOL    HW241982   4.584   8.279   4.178  2.0550 -2.3455 -0.3440
43890SOL     OW41983  10.861  12.070   8.941  0.2116 -0.5675 -0.3518
43890SOL    HW141984  10.810  12.033   9.013  1.0330  0.4543  0.7974
43890SOL    HW241985  10.795  12.106   8.882 -0.4946 -1.8199 -0.3500
43891SOL     OW41986  11.505   4.696   6.959  0.1481  0.4983  0.2878
43891SOL    HW141987  11.442   4.628   6.982 -0.8801  0.7225 -1.6375
43891SOL    HW241988  11.548   4.718   7.042 -0.9338 -1.0221  1.3141
43892SOL     OW41989  11.703   4.325   2.606 -0.0652  0.0305 -0.5059
43892SOL    HW141990  11.768   4.384   2.567  0.0261 -0.4216 -1.0455
43892SOL    HW241991  11.640   4.383   2.648 -0.0634  0.5230 -1.1685
43893SOL     OW41992   3.264   0.855   3.039  0.0689  0.2285 -0.5408
43893SOL    HW141993   3.237   0.935   2.993 -0.6598  1.6074  2.1271
43893SOL    HW241994   3.206   0.788   3.004 -1.6571  1.5793 -0.4279
43894SOL     OW41995  10.930  11.869   4.518 -0.4946 -0.2934 -0.0477
43894SOL    HW141996  11.010  11.861   4.570 -1.4509  0.4731  1.6397
43894SOL    HW241997  10.931  11.959   4.486 -0.1872 -0.5952 -0.9137
43895SOL     OW41998   1.848   1.985   4.782 -0.0735  0.5309 -0.4219
43895SOL    HW141999   1.786   2.038   4.832  1.9195  0.7522  2.0238
43895SOL    HW242000   1.873   1.915   4.842  1.5538  0.0974 -1.5510
43896SOL     OW42001   1.318   2.934   6.919 -0.0940 -0.0551  0.0091
43896SOL    HW142002   1.399   2.887   6.900  0.0791 -0.2218  1.1118
43896SOL    HW242003   1.252   2.888   6.867  0.4327 -0.1676 -0.5853
43897SOL     OW42004   5.451   5.815   3.704  0.4129  0.4628  0.1673
43897SOL    HW142005   5.542   5.800   3.729  0.4894  0.6615  0.0096
43897SOL    HW242006   5.443   5.778   3.616  0.5231  1.0571 -0.0980
43898SOL     OW42007   2.902  12.762   1.236  0.2333  0.0837 -0.3804
43898SOL    HW142008   2.848  12.771   1.314  1.0767 -0.5876  0.3001
43898SOL    HW242009   2.964  12.693   1.257 -0.0300 -0.6941 -1.9474
43899SOL     OW42010   4.324   5.622   1.304  0.2937  0.3492 -0.1885
43899SOL    HW142011   4.346   5.654   1.392 -0.6166  0.1531  0.1168
43899SOL    HW242012   4.344   5.529   1.307  0.6233  0.4157 -0.3102
43900SOL     OW42013   9.034   9.404   9.073  0.1771  0.1462  0.3790
43900SOL    HW142014   9.098   9.397   9.002  1.6466  4.1800  1.0293
43900SOL    HW242015   9.062   9.339   9.137 -0.5477 -2.8393 -2.1142
43901SOL     OW42016   1.189   2.230   7.327  0.6473  0.2673  0.4571
43901SOL    HW142017   1.264   2.177   7.354  0.0587 -1.0854 -0.5044
43901SOL    HW242018   1.113   2.182   7.357  0.0991  0.5194 -0.4829
43902SOL     OW42019   4.935   7.961   7.936  0.2395  0.0847  0.2980
43902SOL    HW142020   4.925   7.985   8.028 -0.3867  2.7455 -0.3732
43902SOL    HW242021   4.938   8.045   7.889  0.2311 -1.1816 -2.1531
43903SOL     OW42022  12.179  11.914   1.239  0.4076  0.2458 -0.0926
43903SOL    HW142023  12.197  12.007   1.225 -0.4121  0.7270  1.7559
43903SOL    HW242024  12.256  11.870   1.203  0.2842  1.5188 -2.0977
43904SOL     OW42025   2.746   1.794  11.660 -0.4434  0.7142  0.0537
43904SOL    HW142026   2.669   1.778  11.714 -1.2990 -0.1660 -1.3838
43904SOL    HW242027   2.763   1.711  11.617  0.5187  1.2649 -0.6539
43905SOL     OW42028   3.896   4.841  11.802 -0.7175 -0.2270  0.2956
43905SOL    HW142029   3.894   4.758  11.849  0.9531  0.8329  2.4258
43905SOL    HW242030   3.892   4.816  11.710 -2.4080 -2.5105  0.8876
43906SOL     OW42031   4.451   9.481  11.796 -0.2006  0.3806  0.0979
43906SOL    HW142032   4.459   9.532  11.876 -0.4611  0.6091 -0.0190
43906SOL    HW242033   4.435   9.546  11.727  1.7359  0.3780 -0.4361
43907SOL     OW42034   3.759   3.380  12.663  0.1642  0.0572  0.2427
43907SOL    HW142035   3.790   3.389  12.753  0.9691  0.5276 -0.0722
43907SOL    HW242036   3.704   3.457  12.648  0.6952  0.4083  0.0733
43908SOL     OW42037  12.268   9.946   1.641  0.0707  0.0184 -0.1556
43908SOL    HW142038  12.302   9.900   1.564 -1.6969 -2.0430  0.1722
43908SOL    HW242039  12.236  10.029   1.607  0.7399 -0.1893 -1.3578
43909SOL     OW42040   0.614  11.119   8.606  0.4276 -0.5519 -0.0890
43909SOL    HW142041   0.671  11.124   8.683 -1.5868 -1.0749  1.5457
43909SOL    HW242042   0.551  11.050   8.629 -0.4189 -0.4919 -2.1047
43910SOL     OW42043   1.016  12.931   1.072 -0.0904  0.1659  0.6534
43910SOL    HW142044   1.084  12.998   1.060 -0.9966  1.1176  0.6379
43910SOL    HW242045   0.973  12.926   0.987  0.8946 -1.5276  0.2191
43911SOL     OW42046   9.902   5.073   9.865  0.1409  0.0584  0.3906
43911SOL    HW142047   9.936   5.017   9.796 -0.0767 -0.2301  0.5162
43911SOL    HW242048   9.943   5.158   9.849  1.1279 -0.3465  0.6943
43912SOL     OW42049   8.166   0.473   9.723  0.5500  0.8997 -0.6342
43912SOL    HW142050   8.141   0.518   9.804  0.4771 -0.2596  0.0151
43912SOL    HW242051   8.117   0.518   9.654 -2.6977 -0.6382  0.4570
43913SOL     OW42052   1.092   0.298   6.301 -0.1083  0.7118 -0.2077
43913SOL    HW142053   1.170   0.243   6.306  0.6076  1.7969  1.8237
43913SOL    HW242054   1.028   0.256   6.359 -0.1766  1.0794 -0.0129
43914SOL     OW42055   3.898  10.697  11.428 -0.0680 -0.5330  0.1606
43914SOL    HW142056   3.904  10.781  11.383 -2.9664 -1.8622 -3.1541
43914SOL    HW242057   3.985  10.684  11.465  0.9064  3.2237 -0.4248
43915SOL     OW42058   8.121   3.148   8.398  0.2127  0.2098 -0.3483
43915SOL    HW142059   8.061   3.211   8.438  0.6692  0.2406  0.3060
43915SOL    HW242060   8.149   3.092   8.471 -0.2794 -0.8356 -0.9427
43916SOL     OW42061  10.063   2.647   7.899  0.0698  0.6045 -0.3524
43916SOL    HW142062  10.150   2.616   7.927  0.2956  0.2129 -1.4293
43916SOL    HW242063  10.071   2.743   7.900 -0.8925  0.8669  3.8357
43917SOL     OW42064  10.602   6.665  11.324 -0.1366  0.6016 -0.4155
43917SOL    HW142065  10.686   6.706  11.303  0.1152  1.2613  1.7249
43917SOL    HW242066  10.544   6.694  11.253  0.5927  2.9181 -0.1626
43918SOL     OW42067   7.277   8.923   2.160  0.5589 -0.0281 -0.4330
43918SOL    HW142068   7.325   8.901   2.240  0.0886 -0.7510 -0.3413
43918SOL    HW242069   7.198   8.967   2.190  0.5453  0.0100 -0.5225
43919SOL     OW42070   4.813   0.202   3.136  0.1775 -0.3420 -0.1385
43919SOL    HW142071   4.803   0.285   3.182 -1.4089  0.1043 -1.2026
43919SOL    HW242072   4.874   0.152   3.190  0.7409  1.2944  0.8090
43920SOL     OW42073   9.726   7.568   6.396 -0.1991 -0.0915  0.5086
43920SOL    HW142074   9.752   7.512   6.323 -0.0843  1.7381 -0.9517
43920SOL    HW242075   9.779   7.538   6.469  1.1491 -0.7489 -0.6817
43921SOL     OW42076   4.425  11.460   3.892  0.6409 -0.3489 -0.1352
43921SOL    HW142077   4.356  11.435   3.830 -0.0341 -1.4143  0.9899
43921SOL    HW242078   4.503  11.415   3.860  0.8860  0.9458 -1.4763
43922SOL     OW42079   0.777   5.200   7.174  0.1066 -0.1217  0.0317
43922SOL    HW142080   0.823   5.181   7.255  0.1126  0.2093  0.1103
43922SOL    HW242081   0.810   5.286   7.147 -0.0485 -0.1351 -0.2089
43923SOL     OW42082   5.326   8.273  10.032  0.1217 -0.0673  0.4443
43923SOL    HW142083   5.395   8.311  10.087  0.5777 -0.8123  0.4046
43923SOL    HW242084   5.291   8.200  10.085  1.0048 -1.2070 -0.4929
43924SOL     OW42085  12.069   5.078   9.727  0.1964 -0.4065  0.3305
43924SOL    HW142086  12.002   5.143   9.706  0.9518  0.2790 -0.0398
43924SOL    HW242087  12.064   5.068   9.822 -0.3682 -0.3018  0.3136
43925SOL     OW42088   5.247   3.618   9.517  0.3401 -0.1493 -0.1251
43925SOL    HW142089   5.204   3.554   9.461  1.1539 -0.8189 -0.0175
43925SOL    HW242090   5.295   3.675   9.457 -0.1656  0.2035 -0.2036
43926SOL     OW42091   4.608  10.053  11.685  0.1359 -0.0632  0.2937
43926SOL    HW142092   4.518  10.065  11.655  0.3733  1.1917  0.0047
43926SOL    HW242093   4.660  10.054  11.604  0.5342  0.6966  0.5493
43927SOL     OW42094   2.370   8.331  12.141 -0.1715  0.6905 -0.1009
43927SOL    HW142095   2.357   8.239  12.119 -1.0641  0.4599  1.2716
43927SOL    HW242096   2.459   8.335  12.176  0.0217  0.4410 -0.5577
43928SOL     OW42097   6.261  12.402   1.720 -0.1177  0.4563  0.0012
43928SOL    HW142098   6.183  12.372   1.766  0.5768 -0.2192  0.7818
43928SOL    HW242099   6.274  12.338   1.650 -0.0935  0.4021  0.0555
43929SOL     OW42100   6.177  12.671  12.159  0.2833  0.5844  0.1025
43929SOL    HW142101   6.106  12.735  12.152 -0.7511 -0.4828  0.5769
43929SOL    HW242102   6.168  12.616  12.080  2.2389  2.0127 -1.2287
43930SOL     OW42103   3.051   8.520   6.052 -0.2016  0.2916 -0.3346
43930SOL    HW142104   3.062   8.438   6.100  0.5281  1.4741  1.6525
43930SOL    HW242105   3.037   8.586   6.120 -0.2714  1.9084 -1.8396
43931SOL     OW42106   0.257  10.454   1.283 -0.2436  0.2225  0.1290
43931SOL    HW142107   0.201  10.428   1.356  1.5029 -1.0231  1.1023
43931SOL    HW242108   0.252  10.381   1.221 -0.3588  0.4925 -0.1843
43932SOL     OW42109   1.501   8.609   2.498  0.0879  0.3745  0.0914
43932SOL    HW142110   1.443   8.669   2.451 -1.9607 -1.3546  0.2371
43932SOL    HW242111   1.536   8.552   2.429 -0.6186 -0.3195  0.2860
43933SOL     OW42112   9.305   5.410   7.175 -0.0756  0.0147  0.2582
43933SOL    HW142113   9.280   5.488   7.126 -0.7012 -0.7718 -0.7147
43933SOL    HW242114   9.232   5.349   7.162  0.9820 -1.2135 -0.0822
43934SOL     OW42115  10.020   9.596   5.784 -0.5032  0.5457  0.1699
43934SOL    HW142116   9.969   9.522   5.816  0.1283 -0.1209 -0.3474
43934SOL    HW242117   9.966   9.673   5.805 -1.2685 -0.0671  0.4978
43935SOL     OW42118  11.183   9.554   0.854 -0.4192  0.3194 -0.2215
43935SOL    HW142119  11.096   9.516   0.866 -0.3934  0.5915  0.9613
43935SOL    HW242120  11.190   9.569   0.760 -1.8708  0.8130 -0.2693
43936SOL     OW42121   2.733  12.066   5.918 -0.0118 -0.0231  0.2212
43936SOL    HW142122   2.659  12.008   5.906  1.0492 -1.5361  0.6665
43936SOL    HW242123   2.766  12.083   5.830 -2.1771  2.5398 -0.2207
43937SOL     OW42124   0.527   9.534   5.204  0.2932 -0.0786  0.2004
43937SOL    HW142125   0.601   9.577   5.162 -0.0310  1.2484  0.9377
43937SOL    HW242126   0.567   9.470   5.263  0.7999 -0.3834 -0.4584
43938SOL     OW42127   2.140  10.094   4.339 -0.2677  0.0504  0.3666
43938SOL    HW142128   2.139  10.163   4.406  2.9414 -2.2379  3.1339
43938SOL    HW242129   2.089  10.022   4.377 -0.9516 -0.2606 -1.0703
43939SOL     OW42130   8.401  12.233   6.953 -0.0646  0.1075 -0.2081
43939SOL    HW142131   8.424  12.305   7.012 -0.6123  0.0034  0.1432
43939SOL    HW242132   8.481  12.181   6.947  0.3605  0.7770 -0.5196
43940SOL     OW42133   8.227   7.785   3.947  0.1138 -0.2029 -0.7609
43940SOL    HW142134   8.268   7.819   3.868 -0.9847 -1.0958 -1.7550
43940SOL    HW242135   8.197   7.697   3.923 -1.7567  0.1469  0.1022
43941SOL     OW42136   4.029  11.047   6.828  0.6024 -0.1393 -0.5242
43941SOL    HW142137   3.947  11.012   6.793 -0.4638  0.5490  1.1600
43941SOL    HW242138   4.076  10.971   6.862 -1.7889 -0.1622  3.3201
43942SOL     OW42139   1.417   0.182   4.977  0.0065  0.7737 -0.1784
43942SOL    HW142140   1.355   0.125   5.023 -1.2259  0.7199 -1.8177
43942SOL    HW242141   1.486   0.198   5.041 -0.8967 -0.4677  1.1866
43943SOL     OW42142   2.802   3.304   0.164 -0.2483  0.3303 -0.2501
43943SOL    HW142143   2.728   3.362   0.181 -0.6068 -0.8154  2.8062
43943SOL    HW242144   2.789   3.230   0.224  3.0757 -0.1970  0.0277
43944SOL     OW42145  12.506  12.712   8.162  0.6951  0.5811  0.3718
43944SOL    HW142146  12.574  12.718   8.229  1.3737  2.0236 -0.4011
43944SOL    HW242147  12.434  12.765   8.196  0.3945 -0.0214  0.6824
43945SOL     OW42148   3.451   8.363   1.273 -0.0809 -0.2545 -0.0603
43945SOL    HW142149   3.459   8.457   1.261 -1.7264 -0.2385 -1.4044
43945SOL    HW242150   3.398   8.353   1.352 -3.4933  0.1734 -2.0668
43946SOL     OW42151   2.247   7.645  11.137  0.0710 -0.5986  0.3021
43946SOL    HW142152   2.214   7.649  11.227  0.9036 -1.6004  0.6601
43946SOL    HW242153   2.339   7.672  11.144 -0.1242  0.3180 -0.4159
43947SOL     OW42154   2.980   1.617   2.850  0.7772 -0.0575  0.2899
43947SOL    HW142155   2.959   1.710   2.854  0.4611 -0.1354  0.4772
43947SOL    HW242156   2.947   1.582   2.933 -0.2748 -0.5750 -0.3265
43948SOL     OW42157   1.913   5.172  12.020  0.0912 -0.0339  0.0637
43948SOL    HW142158   1.863   5.185  12.101 -0.5144  1.2156 -0.4813
43948SOL    HW242159   1.887   5.086  11.988 -1.3973  0.4146  0.0155
43949SOL     OW42160   0.312   3.161   3.891 -0.1078 -0.1119 -0.6754
43949SOL    HW142161   0.278   3.225   3.828 -1.9092 -1.5780 -1.3027
43949SOL    HW242162   0.327   3.212   3.970 -0.2814  1.3157 -1.5110
43950SOL     OW42163   3.702   3.976   5.316  0.2107  0.0218 -0.4696
43950SOL    HW142164   3.615   3.938   5.326  0.3896 -0.2293  0.1523
43950SOL    HW242165   3.752   3.909   5.270  0.6161 -0.6544  0.9098
43951SOL     OW42166   0.964   3.601  12.734  0.2080  0.3071  0.0964
43951SOL    HW142167   0.899   3.548  12.688  0.2721 -0.1472  0.5118
43951SOL    HW242168   0.973   3.680  12.681  0.5918 -0.3754 -0.8859
43952SOL     OW42169   8.789   0.245   0.616 -0.8971  0.3750  0.5041
43952SOL    HW142170   8.822   0.168   0.662 -1.1886 -0.0733 -0.0276
43952SOL    HW242171   8.867   0.289   0.584 -0.7730 -0.3140 -0.1689
43953SOL     OW42172  11.722   2.998   9.827  0.0834 -0.1568 -0.2536
43953SOL    HW142173  11.703   2.962   9.914  0.0384  1.6023  0.5037
43953SOL    HW242174  11.669   2.946   9.767  1.2485 -2.4139  0.5562
43954SOL     OW42175   1.783  11.216   9.754 -0.4537 -0.4554 -0.0226
43954SOL    HW142176   1.692  11.228   9.726 -0.3671 -1.1403 -0.6294
43954SOL    HW242177   1.833  11.213   9.673 -0.0348 -1.1839  0.2507
43955SOL     OW42178   3.030   9.317   3.083  0.3910 -0.3559 -0.3349
43955SOL    HW142179   2.967   9.263   3.131  0.4226 -1.6153 -1.6645
43955SOL    HW242180   3.008   9.304   2.991  0.6751  1.5873 -0.7312
43956SOL     OW42181   7.679  10.447   6.165 -0.4232  0.8357 -0.0584
43956SOL    HW142182   7.677  10.536   6.201 -0.4533  1.0793 -0.6602
43956SOL    HW242183   7.731  10.397   6.228  1.0242  1.6542 -0.5505
43957SOL     OW42184   2.808   5.054   8.253 -0.4084  0.5062 -0.2038
43957SOL    HW142185   2.814   5.066   8.347 -0.8011 -0.1095 -0.0895
43957SOL    HW242186   2.714   5.057   8.234 -0.3804 -0.0617 -0.4682
43958SOL     OW42187   5.922   0.318   4.526 -1.1290  0.9625 -0.0538
43958SOL    HW142188   5.961   0.286   4.608  1.9843  2.3105 -0.8577
43958SOL    HW242189   5.933   0.245   4.465  1.1678  1.6079 -0.5052
43959SOL     OW42190   9.150   0.243   4.690  0.1397  0.5147 -0.0714
43959SOL    HW142191   9.078   0.286   4.643 -0.4136 -0.1178  0.1746
43959SOL    HW242192   9.140   0.150   4.668  0.4198  0.3284  0.5852
43960SOL     OW42193   7.920   1.717   9.060  0.2097  0.4958 -0.3639
43960SOL    HW142194   8.006   1.678   9.044  0.2976  0.4020  0.2952
43960SOL    HW242195   7.934   1.811   9.052  0.6630  0.5708  0.9196
43961SOL     OW42196   0.882   2.956   5.921 -0.3830  0.1155 -0.0048
43961SOL    HW142197   0.836   2.912   5.851 -1.3631  1.1304 -0.0334
43961SOL    HW242198   0.814   2.977   5.986  0.3329  0.0643  0.7872
43962SOL     OW42199  11.305   5.378   6.298  0.7612 -0.4806 -0.0464
43962SOL    HW142200  11.325   5.377   6.204 -0.4350  0.3445 -0.3340
43962SOL    HW242201  11.239   5.310   6.309  0.6434 -0.3386  0.1365
43963SOL     OW42202  12.848   5.888   6.554 -0.0955 -0.1699 -0.1879
43963SOL    HW142203  12.824   5.805   6.513  0.5907  0.0839 -1.1461
43963SOL    HW242204  12.806   5.955   6.500  0.4088  0.1509 -0.1893
43964SOL     OW42205   1.177   2.892  12.493  0.1843 -0.3919 -0.3221
43964SOL    HW142206   1.215   2.856  12.413  0.7640  0.6863 -0.5466
43964SOL    HW242207   1.135   2.973  12.466 -2.1002 -1.3986 -0.0346
43965SOL     OW42208   7.494   0.444   1.656  0.1750 -0.0604 -0.4620
43965SOL    HW142209   7.543   0.430   1.574 -2.2650  0.5071 -2.1085
43965SOL    HW242210   7.513   0.366   1.708  0.0466 -1.5441 -2.5103
43966SOL     OW42211   1.411   9.546   0.687 -0.6752 -0.2678  0.0189
43966SOL    HW142212   1.377   9.630   0.657 -2.3452  0.1417  2.6988
43966SOL    HW242213   1.334   9.488   0.685  0.2203 -1.4667 -0.8126
43967SOL     OW42214   4.884   4.119   3.930  0.3261  0.3939 -0.1523
43967SOL    HW142215   4.891   4.109   3.835  1.3645 -1.5909  0.0799
43967SOL    HW242216   4.943   4.191   3.951 -1.5406  2.3250 -1.1932
43968SOL     OW42217   6.162   1.778   4.540  0.2148  0.4683 -0.3126
43968SOL    HW142218   6.220   1.833   4.487  2.2526 -0.1619  1.1444
43968SOL    HW242219   6.151   1.827   4.621  3.1031 -1.6243  1.5413
43969SOL     OW42220   6.400   4.413   5.709 -0.0548 -0.2506 -0.5383
43969SOL    HW142221   6.416   4.414   5.803 -0.4765 -0.6157 -0.4602
43969SOL    HW242222   6.313   4.453   5.699  0.3620  0.6040 -0.8508
43970SOL     OW42223   3.616   5.470  11.524 -0.1641 -0.1612 -0.6211
43970SOL    HW142224   3.692   5.485  11.466  0.5637 -1.8696 -0.1495
43970SOL    HW242225   3.545   5.449  11.464  0.5931 -1.9491 -0.9640
43971SOL     OW42226   8.370   5.079   7.950 -0.4767  0.2454  0.1146
43971SOL    HW142227   8.389   5.014   8.018  1.9022 -1.2091 -1.7819
43971SOL    HW242228   8.447   5.135   7.947 -0.2123 -0.1532 -1.7966
43972SOL     OW42229   1.126   9.233  12.620  0.0369 -0.1241  1.0063
43972SOL    HW142230   1.120   9.318  12.665 -0.7670 -0.0775  0.8251
43972SOL    HW242231   1.219   9.224  12.600 -0.2115  2.3661 -2.0450
43973SOL     OW42232   9.910   2.958   8.644  0.6101 -0.2751 -0.1286
43973SOL    HW142233   9.974   2.914   8.699  1.1255  0.8068  0.1612
43973SOL    HW242234   9.897   3.044   8.685  0.9022  0.5014 -1.5791
43974SOL     OW42235   2.422   4.853  10.412 -0.3681  0.3033 -0.5862
43974SOL    HW142236   2.330   4.877  10.425 -0.6491 -0.1709 -1.5558
43974SOL    HW242237   2.470   4.934  10.428 -0.4901 -0.3121  4.0370
43975SOL     OW42238  12.352  11.414   0.598  0.3284 -0.1127  0.2300
43975SOL    HW142239  12.357  11.387   0.690 -2.7510  0.3452  0.6577
43975SOL    HW242240  12.284  11.482   0.597  0.0912 -0.2899 -2.4056
43976SOL     OW42241   5.127   4.432   8.660  0.4008  0.5312 -0.4585
43976SOL    HW142242   5.191   4.362   8.671  1.1863  1.0338 -1.5823
43976SOL    HW242243   5.128   4.479   8.743  0.9578  0.1093 -0.2178
43977SOL     OW42244   5.503   1.503  10.155 -0.2122  0.4024 -0.0199
43977SOL    HW142245   5.569   1.543  10.098 -0.9353 -0.0408 -1.2026
43977SOL    HW242246   5.551   1.436  10.203 -0.1199 -1.2449 -2.2659
43978SOL     OW42247   1.947  11.447   2.823 -0.4997 -0.2757 -0.2145
43978SOL    HW142248   2.005  11.430   2.898  0.8439  1.1438 -0.8679
43978SOL    HW242249   2.006  11.479   2.754 -1.8564 -0.4443 -1.5055
43979SOL     OW42250  11.963   9.346   0.496 -0.0927 -0.8170 -0.2140
43979SOL    HW142251  12.012   9.427   0.483 -0.0835 -0.5145  1.4267
43979SOL    HW242252  11.872   9.369   0.477 -0.0321 -0.5338 -0.1629
43980SOL     OW42253   0.647   9.658  11.365  0.2463  0.0970 -0.6604
43980SOL    HW142254   0.732   9.646  11.406 -0.3322  0.6218  0.7599
43980SOL    HW242255   0.654   9.742  11.321  0.9708 -0.6085 -1.9457
43981SOL     OW42256   2.136  11.256   3.317 -0.1398 -0.2439 -0.1244
43981SOL    HW142257   2.050  11.225   3.347  0.4495 -1.1741  0.6769
43981SOL    HW242258   2.157  11.200   3.243  0.7110 -1.4844  1.0226
43982SOL     OW42259  12.006   9.802  12.001 -0.8146  0.6570  0.0084
43982SOL    HW142260  12.060   9.817  11.923  2.5973 -0.3848  1.9921
43982SOL    HW242261  12.016   9.882  12.053 -0.7727  0.2599  0.6195
43983SOL     OW42262   7.249   0.594   0.205  0.1181 -0.0847 -0.4736
43983SOL    HW142263   7.244   0.529   0.134 -0.8548 -0.0526 -0.4553
43983SOL    HW242264   7.306   0.555   0.270  0.7246 -0.2792 -1.1163
43984SOL     OW42265   2.637   8.212   4.650  0.4860 -0.6782 -0.9941
43984SOL    HW142266   2.642   8.178   4.739 -1.1718 -2.9848 -1.6985
43984SOL    HW242267   2.633   8.307   4.661  2.1588 -0.7775  1.2531
43985SOL     OW42268   1.617   6.081   5.755  0.5081  0.0240 -0.3325
43985SOL    HW142269   1.524   6.102   5.753  0.7114  1.0076  0.0060
43985SOL    HW242270   1.630   6.023   5.680 -0.8628 -2.3879  1.1559
43986SOL     OW42271   5.754   8.001   1.759  0.4994 -0.2247 -0.2346
43986SOL    HW142272   5.787   7.925   1.806 -1.1042  0.2714  1.8701
43986SOL    HW242273   5.687   7.967   1.701  0.9640 -0.6078 -0.5455
43987SOL     OW42274   8.929   0.493   0.287  0.4773  0.2928 -0.7558
43987SOL    HW142275   8.853   0.550   0.273  0.3060  0.5313  0.9083
43987SOL    HW242276   8.919   0.424   0.221 -0.0461  1.4184 -1.9196
43988SOL     OW42277   6.670   0.829   7.499 -0.1039 -0.0512 -0.9107
43988SOL    HW142278   6.671   0.846   7.594  0.7949  1.9604 -1.2340
43988SOL    HW242279   6.583   0.792   7.483 -0.5355  0.2275  0.5992
43989SOL     OW42280   7.297   2.548   8.064  0.4740  0.8918  0.1818
43989SOL    HW142281   7.290   2.534   7.969  0.0703 -1.0946  0.4547
43989SOL    HW242282   7.384   2.514   8.087  0.5250  1.2613  0.5366
43990SOL     OW42283   6.707   0.861   5.371  0.1664 -0.0711 -0.1206
43990SOL    HW142284   6.662   0.888   5.291  0.5705 -0.6133 -0.5410
43990SOL    HW242285   6.794   0.900   5.365 -0.0231  0.4484  0.3880
43991SOL     OW42286  11.646   1.729   4.512 -0.2516 -0.1844 -0.3913
43991SOL    HW142287  11.732   1.699   4.483 -0.3502 -0.3065 -0.5594
43991SOL    HW242288  11.632   1.811   4.464  0.0383  0.1616  0.1039
43992SOL     OW42289  10.565   3.890   7.919  0.1773  0.6860 -0.4664
43992SOL    HW142290  10.563   3.799   7.951 -0.5879  0.5819 -0.7830
43992SOL    HW242291  10.657   3.905   7.896  0.3290  0.0234 -0.3277
43993SOL     OW42292   2.358   4.935   2.122 -0.1383 -0.4588 -0.0004
43993SOL    HW142293   2.419   4.864   2.101 -0.0569 -0.3127 -0.2524
43993SOL    HW242294   2.359   4.992   2.045 -1.5524 -1.1175 -0.5317
43994SOL     OW42295  12.907  11.834   9.169 -0.4270 -0.0058  0.0248
43994SOL    HW142296  12.829  11.789   9.201 -0.3131 -0.1050  0.1652
43994SOL    HW242297  12.947  11.872   9.247  0.0333 -0.5321  0.0522
43995SOL     OW42298  11.941   1.212   2.755 -0.2020  0.2630 -0.0166
43995SOL    HW142299  11.987   1.263   2.688  0.1451  2.4527  1.7845
43995SOL    HW242300  11.879   1.273   2.794 -1.2574 -1.2951  0.8531
43996SOL     OW42301  10.507  12.708   9.814  0.0834 -0.3622 -0.2110
43996SOL    HW142302  10.561  12.730   9.890  0.4297 -0.0802 -0.5325
43996SOL    HW242303  10.553  12.634   9.774 -0.0684 -0.4754 -0.1724
43997SOL     OW42304   4.014   0.793   3.963  0.2234  0.4318 -0.2324
43997SOL    HW142305   4.021   0.700   3.939  2.5852  0.9928 -2.1328
43997SOL    HW242306   3.987   0.837   3.883 -1.1665  1.4062  0.7236
43998SOL     OW42307   5.668  12.744   8.638 -0.3673 -0.7813 -0.2950
43998SOL    HW142308   5.704  12.656   8.624 -1.8918 -1.0089 -3.8774
43998SOL    HW242309   5.576  12.736   8.614 -1.1438  1.3299  1.6578
43999SOL     OW42310   2.217   7.132   7.063  0.5780 -0.2845 -0.2957
43999SOL    HW142311   2.298   7.170   7.096 -0.0062  0.1392  0.6683
43999SOL    HW242312   2.245   7.077   6.989  1.6161  0.6732 -0.6392
44000SOL     OW42313  11.822   2.613  12.113  0.2639  0.5220  0.4212
44000SOL    HW142314  11.868   2.658  12.185  0.3856  0.7577  0.1969
44000SOL    HW242315  11.763   2.552  12.157  0.8664  0.1353  0.7167
44001SOL     OW42316   8.342   0.696   6.337  1.2322  0.4240 -0.1552
44001SOL    HW142317   8.291   0.692   6.257  0.1105  0.4924  0.5381
44001SOL    HW242318   8.401   0.771   6.324 -0.7009  2.0711  0.0755
44002SOL     OW42319   3.568   7.470  12.920 -0.0558 -0.3906  0.4095
44002SOL    HW142320   3.611   7.393  12.956 -1.0112 -1.6899 -1.0851
44002SOL    HW242321   3.538   7.519  12.996 -0.5629 -2.1681  1.4167
44003SOL     OW42322   8.737  11.296   9.699  0.2905 -0.0555 -0.0917
44003SOL    HW142323   8.685  11.218   9.678  0.1982  0.5497 -2.3056
44003SOL    HW242324   8.685  11.342   9.764  0.0767 -1.5350  0.8464
44004SOL     OW42325   7.369   2.859   1.608  0.5092  0.0136  0.1405
44004SOL    HW142326   7.363   2.851   1.703 -0.6486  0.8915  0.1504
44004SOL    HW242327   7.326   2.941   1.587  0.4888 -0.3053 -1.1830
44005SOL     OW42328   0.187  10.524   9.954 -0.5116 -0.4358 -0.0689
44005SOL    HW142329   0.219  10.435   9.940 -1.1862 -0.4916 -1.3308
44005SOL    HW242330   0.263  10.580   9.936  0.2284 -0.7603  1.7849
44006SOL     OW42331   2.840   8.340   1.635 -0.0815 -0.0346  0.1916
44006SOL    HW142332   2.845   8.250   1.602  0.1954  0.0384  0.0246
44006SOL    HW242333   2.761   8.377   1.594  0.4743  0.1786 -0.7242
44007SOL     OW42334   5.244   2.401   4.356 -0.5376  0.3320  0.5694
44007SOL    HW142335   5.297   2.435   4.428  0.2486  0.4678 -0.0646
44007SOL    HW242336   5.158   2.387   4.395 -0.4394  1.5038  1.2385
44008SOL     OW42337   0.864  12.931   4.602  0.1679  0.0736 -0.0100
44008SOL    HW142338   0.840  12.866   4.668  1.5850  0.3161  0.7826
44008SOL    HW242339   0.929  12.886   4.547 -1.5306 -0.3790 -1.7496
44009SOL     OW42340   8.776   7.070   3.676 -0.0380 -0.1090 -0.4564
44009SOL    HW142341   8.824   7.041   3.754  0.7723 -1.3730 -1.3768
44009SOL    HW242342   8.750   7.159   3.696 -0.7555 -0.7432  1.6640
44010SOL     OW42343   3.041   2.449  11.389 -0.0974 -0.3481  0.0306
44010SOL    HW142344   2.998   2.364  11.403 -1.0114 -0.0212 -0.7038
44010SOL    HW242345   3.027   2.496  11.471 -3.1400  0.5736 -0.8610
44011SOL     OW42346  12.027   4.019   3.169  0.0974  0.0954  0.3785
44011SOL    HW142347  11.972   3.965   3.111 -0.4132  1.6898 -0.7121
44011SOL    HW242348  12.058   3.959   3.236  1.5096 -2.0941 -2.0698
44012SOL     OW42349   3.085   2.949  11.867 -0.0409  0.2642  0.1841
44012SOL    HW142350   3.089   2.975  11.775  0.7368  0.2204  0.1939
44012SOL    HW242351   3.042   2.864  11.866 -0.0629  0.2777 -0.1392
44013SOL     OW42352   9.524   3.107   0.402  0.3404 -0.3732  0.1910
44013SOL    HW142353   9.616   3.127   0.419  0.5967 -1.9521  0.8001
44013SOL    HW242354   9.476   3.146   0.475  0.6263 -0.3886  0.3848
44014SOL     OW42355   5.275  11.787   2.803  0.1571 -0.3265  0.0928
44014SOL    HW142356   5.277  11.701   2.762 -2.2525 -0.6418  0.5000
44014SOL    HW242357   5.217  11.839   2.746  0.9738  0.8078  0.2595
44015SOL     OW42358   1.252  12.331  12.281  0.4815 -0.5433  0.6457
44015SOL    HW142359   1.307  12.395  12.326 -0.7523  0.7319  0.4041
44015SOL    HW242360   1.277  12.247  12.319  1.2418  0.2152  1.8878
44016SOL     OW42361   7.050   0.476   0.885  0.2022  0.1076  0.0746
44016SOL    HW142362   6.971   0.491   0.937  0.7689  0.7628  0.7545
44016SOL    HW242363   7.042   0.385   0.856 -0.1270 -0.2767  1.3017
44017SOL     OW42364   0.886   4.937   9.746 -0.1002  0.7938  0.4531
44017SOL    HW142365   0.825   4.945   9.673  1.5105  0.0630 -1.0271
44017SOL    HW242366   0.955   5.001   9.728  0.7270  0.0617  0.8974
44018SOL     OW42367   9.384   6.170  11.805 -0.1328 -0.1591  0.2934
44018SOL    HW142368   9.413   6.210  11.724 -0.3130 -1.0481 -0.2215
44018SOL    HW242369   9.417   6.228  11.874 -0.0912  0.6708 -0.4104
44019SOL     OW42370  12.744   1.968   1.180 -0.8100 -0.0603 -0.0666
44019SOL    HW142371  12.758   1.916   1.260  0.9375  1.6196  0.7995
44019SOL    HW242372  12.825   1.957   1.130 -0.6206  1.3615 -0.1130
44020SOL     OW42373   3.338  11.776   5.721  0.1201 -0.4347  0.2642
44020SOL    HW142374   3.389  11.823   5.655  0.1102 -0.2948  0.3568
44020SOL    HW242375   3.247  11.788   5.694 -0.0651  1.6409  1.6026
44021SOL     OW42376  11.430  12.406   5.645  0.0369 -0.3677  0.3402
44021SOL    HW142377  11.408  12.455   5.724 -0.4800 -1.4913  0.9088
44021SOL    HW242378  11.467  12.324   5.677  1.0771 -0.2928 -0.6019
44022SOL     OW42379   3.532  12.143   1.536 -0.7356 -0.0087 -0.5596
44022SOL    HW142380   3.475  12.105   1.469 -1.9722  1.3835 -0.3344
44022SOL    HW242381   3.526  12.237   1.523  0.6300  0.2208  0.2243
44023SOL     OW42382   5.911  10.869   8.834 -0.4260 -0.9381  0.2141
44023SOL    HW142383   5.935  10.804   8.900 -0.7630 -0.7350  0.5427
44023SOL    HW242384   5.950  10.950   8.865  0.3727 -1.0667 -0.4287
44024SOL     OW42385   1.730   5.098   8.490 -0.5430  0.5196 -0.0570
44024SOL    HW142386   1.780   5.173   8.522 -0.3371  0.3085  0.1094
44024SOL    HW242387   1.749   5.095   8.396 -1.8432  1.6834 -0.3942
44025SOL     OW42388   4.629  11.401   4.711  0.2132 -0.0725 -0.5088
44025SOL    HW142389   4.671  11.348   4.779  1.3686  1.3821 -0.0392
44025SOL    HW242390   4.551  11.436   4.753  0.5480  0.2558 -0.1514
44026SOL     OW42391   0.440   7.995   4.722  0.1949  0.3137  0.7046
44026SOL    HW142392   0.505   8.051   4.679 -0.2330  1.0274  0.9725
44026SOL    HW242393   0.359   8.013   4.675  0.1341 -0.4202  0.5078
44027SOL     OW42394   7.980   6.367   6.196  0.4401  0.2253  0.1106
44027SOL    HW142395   7.946   6.428   6.130  0.1819 -0.5154 -0.4448
44027SOL    HW242396   7.902   6.333   6.239  0.5089 -0.7394 -0.5053
44028SOL     OW42397   1.381  10.084  11.646  0.3772  0.4259 -0.4240
44028SOL    HW142398   1.381  10.129  11.561  0.3057  0.2714 -0.5072
44028SOL    HW242399   1.452  10.127  11.695  2.4207 -1.3937 -1.6049
44029SOL     OW42400   0.601  12.664   4.508  0.1522 -0.0346  0.1759
44029SOL    HW142401   0.651  12.698   4.582  0.0785 -1.2399  0.8077
44029SOL    HW242402   0.649  12.695   4.431 -1.4288  3.8119  0.5462
44030SOL     OW42403  12.913  11.245   6.285 -0.4790  0.4327 -0.3243
44030SOL    HW142404  12.828  11.204   6.296 -0.2350  0.1460  0.5798
44030SOL    HW242405  12.933  11.235   6.192 -0.0824 -2.2310 -0.0175
44031SOL     OW42406  10.291   8.521  12.768 -0.4063  0.1845  0.1697
44031SOL    HW142407  10.341   8.523  12.850 -0.5174 -0.7701  0.2661
44031SOL    HW242408  10.260   8.611  12.757  1.5048  0.8812 -0.0067
44032SOL     OW42409   2.803   3.628   1.725  0.1016 -0.2510 -0.5492
44032SOL    HW142410   2.812   3.705   1.781  0.2192 -0.9570  0.4151
44032SOL    HW242411   2.817   3.554   1.783  0.3680 -1.0025 -1.5475
44033SOL     OW42412   5.621   3.114   8.606  0.2795 -0.4501  0.3593
44033SOL    HW142413   5.668   3.059   8.543  1.2363  0.0835  0.5877
44033SOL    HW242414   5.535   3.127   8.567  1.0442  0.3529 -1.1504
44034SOL     OW42415   4.612   6.918  12.578 -0.6159  0.2599 -0.4675
44034SOL    HW142416   4.541   6.881  12.526  0.2571  1.1358 -2.3510
44034SOL    HW242417   4.692   6.886  12.537  0.1049  1.3638  0.0208
44035SOL     OW42418  11.056   0.782   6.358  0.2202 -0.2771  1.3369
44035SOL    HW142419  11.003   0.712   6.398  0.6075 -0.3681  1.7037
44035SOL    HW242420  11.145   0.745   6.355  0.8931  1.0160  3.6213
44036SOL     OW42421  11.318  11.495   8.520 -0.1961 -0.4495  0.2163
44036SOL    HW142422  11.353  11.469   8.605  0.2701  0.1393  0.2086
44036SOL    HW242423  11.233  11.535   8.541 -0.4600 -1.0472  0.3182
44037SOL     OW42424   2.424   1.502   3.351  0.4287 -0.5596  0.2676
44037SOL    HW142425   2.428   1.424   3.407  0.4874 -0.5554  0.2691
44037SOL    HW242426   2.439   1.575   3.411  2.0691 -0.6376  0.0166
44038SOL     OW42427   1.900   2.964  11.093 -0.1679 -0.0908  0.1640
44038SOL    HW142428   1.812   2.991  11.116 -0.2824 -0.6220  0.3560
44038SOL    HW242429   1.888   2.900  11.022 -0.0676 -1.5451  1.3923
44039SOL     OW42430   5.929   8.854   4.349 -0.3964  0.9576 -0.1296
44039SOL    HW142431   5.891   8.794   4.284  1.1435  0.0280 -0.2185
44039SOL    HW242432   5.855   8.877   4.406 -1.4834  0.7035 -1.3700
44040SOL     OW42433   6.884   9.091   0.029  0.0476 -0.0924 -0.0867
44040SOL    HW142434   6.907   9.035   0.104  0.5239 -0.4909 -0.5200
44040SOL    HW242435   6.968   9.118  -0.007 -0.1823  0.3661 -0.2816
44041SOL     OW42436   9.998   5.409   3.719 -0.1984 -0.2304  0.2463
44041SOL    HW142437   9.982   5.339   3.782 -2.0375  0.1260  0.2306
44041SOL    HW242438  10.065   5.374   3.661 -0.4463 -1.6311  0.7715
44042SOL     OW42439   6.770  11.460   6.981 -0.3002 -0.2073 -0.5612
44042SOL    HW142440   6.704  11.429   6.920 -1.4319 -0.7550  0.8902
44042SOL    HW242441   6.775  11.555   6.965 -1.6135 -0.1201 -0.5437
44043SOL     OW42442   4.107   4.456   7.969 -0.0463 -0.0694 -0.5075
44043SOL    HW142443   4.164   4.407   8.027 -0.4963  0.7214  0.6266
44043SOL    HW242444   4.120   4.548   7.993  0.5083  0.3842 -2.3364
44044SOL     OW42445  12.871  11.671   9.910 -0.1773 -0.1408  0.2509
44044SOL    HW142446  12.911  11.659   9.824 -0.0539  0.6649  0.1866
44044SOL    HW242447  12.863  11.766   9.919  0.7349 -0.1729  1.5591
44045SOL     OW42448  10.576   0.295  12.579  0.0215  0.0007 -0.2421
44045SOL    HW142449  10.569   0.275  12.485  0.2932 -0.9257 -0.0692
44045SOL    HW242450  10.633   0.227  12.614 -0.8575 -0.2335  0.7790
44046SOL     OW42451   0.022  10.105   5.131 -0.0293  0.3355 -0.2052
44046SOL    HW142452   0.107  10.107   5.088 -0.0404  1.5763 -0.2031
44046SOL    HW242453  -0.034  10.055   5.071  0.4951  0.1946 -0.5842
44047SOL     OW42454  10.849   6.731   7.592 -0.4658 -0.1729  0.1931
44047SOL    HW142455  10.920   6.667   7.588 -1.1214 -0.9399  0.5849
44047SOL    HW242456  10.793   6.701   7.664 -1.4751  0.1158 -0.4509
44048SOL     OW42457   2.319   1.544   3.757 -0.1440 -0.1104  0.0867
44048SOL    HW142458   2.371   1.515   3.682  1.4784  3.7469 -0.5199
44048SOL    HW242459   2.365   1.508   3.833 -0.9247 -2.7722 -0.5817
44049SOL     OW42460   6.439   3.794   2.219  0.1173 -0.0956  0.4372
44049SOL    HW142461   6.402   3.718   2.265 -0.0697 -0.0110  0.4281
44049SOL    HW242462   6.420   3.777   2.126  0.1215 -0.0618  0.4303
44050SOL     OW42463   2.577   1.953   7.927 -0.3005 -0.1265  0.1568
44050SOL    HW142464   2.593   2.044   7.902  0.6649 -0.5628 -0.8972
44050SOL    HW242465   2.520   1.918   7.858  0.5674 -0.7318 -0.2651
44051SOL     OW42466  10.491   9.024  10.929 -0.1528  0.0936  0.2627
44051SOL    HW142467  10.561   9.026  10.864  1.2030 -0.9398  1.6197
44051SOL    HW242468  10.418   9.068  10.887  0.7341 -0.3591 -1.8790
44052SOL     OW42469   4.291  10.991  11.112  0.0469  0.3552 -0.0201
44052SOL    HW142470   4.320  10.909  11.152 -1.4976 -0.5930 -0.7027
44052SOL    HW242471   4.273  10.967  11.021 -0.1423  1.5316 -0.2989
44053SOL     OW42472   4.447  10.574   8.164 -0.4587 -0.0293 -0.0052
44053SOL    HW142473   4.472  10.664   8.145  0.0954 -0.3274 -0.7242
44053SOL    HW242474   4.466  10.563   8.257 -1.3668  0.8587  0.3026
44054SOL     OW42475   5.029   8.506   0.311 -0.0755  0.5401 -0.1421
44054SOL    HW142476   5.105   8.459   0.279  0.2188  2.4107 -2.5664
44054SOL    HW242477   4.956   8.445   0.300  0.6998 -0.3440 -0.4166
44055SOL     OW42478   4.817   8.659  10.869  0.4824  0.0738  0.5053
44055SOL    HW142479   4.853   8.656  10.957 -0.2563 -0.4911  0.8050
44055SOL    HW242480   4.825   8.569  10.836  1.6127  0.4733 -0.3765
44056SOL     OW42481   0.489  11.218   8.898  0.0643 -0.4584  0.7118
44056SOL    HW142482   0.429  11.282   8.935 -3.8329 -0.3420 -4.6017
44056SOL    HW242483   0.448  11.133   8.916 -1.5922 -0.4278 -2.2316
44057SOL     OW42484  10.519  12.136  11.456  0.3065 -0.2832  0.0519
44057SOL    HW142485  10.463  12.098  11.525 -1.3438  0.4589 -0.8085
44057SOL    HW242486  10.458  12.188  11.403  2.1421  2.2232  0.2105
44058SOL     OW42487  12.204   6.922   0.263  0.1044  0.5892 -0.5239
44058SOL    HW142488  12.251   6.949   0.184  1.4809  0.8496  0.3486
44058SOL    HW242489  12.177   7.004   0.305 -1.4964  0.4431 -1.1854
44059SOL     OW42490  10.852   4.104  11.841  0.4415  0.3302  0.7557
44059SOL    HW142491  10.823   4.026  11.888 -0.6336 -0.0756 -0.5327
44059SOL    HW242492  10.948   4.094  11.836  0.2695 -1.3619 -0.1008
44060SOL     OW42493   3.709   0.747   1.208  0.3196 -0.4877 -0.2649
44060SOL    HW142494   3.635   0.747   1.270 -0.4601  0.0436 -1.1702
44060SOL    HW242495   3.668   0.752   1.122  1.3522 -2.0019 -0.8940
44061SOL     OW42496  10.499   8.472   2.094  0.1817 -0.7449  0.7272
44061SOL    HW142497  10.457   8.550   2.130  0.9232  0.0918 -0.1886
44061SOL    HW242498  10.460   8.462   2.007 -0.0692 -1.5339  0.9213
44062SOL     OW42499  11.801   8.841   8.088 -0.1086 -0.3110  0.0965
44062SOL    HW142500  11.856   8.790   8.029  1.0572 -0.2994  1.1178
44062SOL    HW242501  11.745   8.777   8.131 -0.5431 -0.3857 -0.5660
44063SOL     OW42502   1.784   3.859   5.329  0.3874 -0.0289 -0.3234
44063SOL    HW142503   1.803   3.923   5.397  1.3031  0.4593 -1.0083
44063SOL    HW242504   1.769   3.777   5.376 -0.0332  0.5178  0.5172
44064SOL     OW42505   1.184   3.019  12.182  0.0689 -0.0338 -0.0478
44064SOL    HW142506   1.254   3.075  12.148 -1.3653  0.2509 -2.7293
44064SOL    HW242507   1.229   2.937  12.203  1.5716  0.8666  0.4515
44065SOL     OW42508  10.462  12.700   0.047  0.3286  0.3826 -0.0024
44065SOL    HW142509  10.411  12.739  -0.024  0.4248 -0.2782 -0.4524
44065SOL    HW242510  10.406  12.706   0.124  0.1859  1.0307 -0.1525
44066SOL     OW42511  10.332   5.306   7.760 -0.7785 -0.0801  0.0354
44066SOL    HW142512  10.258   5.247   7.774 -0.4226 -0.2568  1.3421
44066SOL    HW242513  10.336   5.359   7.840  1.5662 -1.2871  0.8223
44067SOL     OW42514   7.305   2.162   9.604 -0.0027  0.7947  0.5335
44067SOL    HW142515   7.368   2.136   9.537 -1.5277 -2.5109  0.1767
44067SOL    HW242516   7.307   2.091   9.668 -3.6072  0.2591  0.2781
44068SOL     OW42517   9.551   5.458   7.256  0.0938 -0.1327  0.2020
44068SOL    HW142518   9.464   5.430   7.229 -0.8654 -0.5124  3.3622
44068SOL    HW242519   9.558   5.548   7.222 -0.8129 -0.6362 -1.4581
44069SOL     OW42520   0.060   2.973  10.046  0.0811 -0.1099  0.1371
44069SOL    HW142521  -0.004   2.990   9.977 -0.2880 -1.7049  0.0412
44069SOL    HW242522   0.093   2.885  10.026  2.0112  0.5060  0.4214
44070SOL     OW42523  10.356   2.115  11.043 -0.0168 -0.6069 -0.2655
44070SOL    HW142524  10.282   2.148  11.095 -0.2866  0.6471 -1.3935
44070SOL    HW242525  10.433   2.134  11.097 -0.2632  0.9572 -0.4221
44071SOL     OW42526   0.416  12.800  12.231 -0.0578  0.5658 -0.2056
44071SOL    HW142527   0.338  12.746  12.242  1.9185 -2.2293  1.3792
44071SOL    HW242528   0.462  12.761  12.157  2.5958 -1.8309  2.4106
44072SOL     OW42529   2.958   5.352   0.421 -0.0720 -0.3960  0.2656
44072SOL    HW142530   2.870   5.341   0.457 -0.0313 -1.5641  0.0552
44072SOL    HW242531   2.953   5.315   0.332  0.8428 -1.3751  0.5861
44073SOL     OW42532   2.934   8.320   9.930  0.0295  0.4249 -0.4632
44073SOL    HW142533   2.864   8.385   9.921 -1.6896 -1.4900 -1.9333
44073SOL    HW242534   2.971   8.313   9.842 -1.3012 -2.0706 -0.8966
44074SOL     OW42535  10.357   8.994   9.267 -0.5395 -0.0016  0.0285
44074SOL    HW142536  10.285   9.012   9.327 -1.2558  1.8569 -1.3214
44074SOL    HW242537  10.433   9.034   9.309 -0.2313 -1.8668  1.3966
44075SOL     OW42538   5.784   9.845   6.340  0.3796 -0.0736  0.3475
44075SOL    HW142539   5.859   9.894   6.308  0.6996 -0.2647  0.8019
44075SOL    HW242540   5.803   9.827   6.432 -0.3468  0.1119  0.5423
44076SOL     OW42541  10.027   6.711   7.453  0.3368 -0.2030 -0.0670
44076SOL    HW142542   9.964   6.649   7.491 -0.3285 -0.1743 -1.1015
44076SOL    HW242543  10.113   6.678   7.483 -0.1620  0.0410  1.7625
44077SOL     OW42544   5.559   2.138   6.063  0.1492 -0.9238 -0.0670
44077SOL    HW142545   5.627   2.071   6.066  0.2384 -0.8289  0.0849
44077SOL    HW242546   5.535   2.144   5.970  0.8568 -0.4570 -0.2250
44078SOL     OW42547   6.170   0.120   3.234 -0.7664 -0.0868  0.1210
44078SOL    HW142548   6.189   0.055   3.166 -0.3059 -0.1037  0.2567
44078SOL    HW242549   6.195   0.076   3.316 -0.5823  0.2100  0.2271
44079SOL     OW42550   0.436   8.351  11.561  0.2047 -0.2580  0.4701
44079SOL    HW142551   0.497   8.318  11.628  0.3570  0.3201  0.6154
44079SOL    HW242552   0.429   8.445  11.578 -0.4162 -0.2490  0.1991
44080SOL     OW42553   7.215  12.410  12.725  0.1591 -0.0213 -0.4593
44080SOL    HW142554   7.290  12.464  12.700  0.6377 -1.2889 -1.9316
44080SOL    HW242555   7.249  12.320  12.724 -0.8517 -0.4587  0.9626
44081SOL     OW42556   5.944   6.265  11.082  0.1456  0.0371  0.5273
44081SOL    HW142557   6.012   6.319  11.121 -0.8379  1.3413  0.4897
44081SOL    HW242558   5.934   6.192  11.142  2.5596 -1.0018 -0.1791
44082SOL     OW42559   8.099  11.027   4.719  0.5957 -0.1922  0.2068
44082SOL    HW142560   8.105  11.015   4.624  1.0242  1.9436 -0.0917
44082SOL    HW242561   8.025  10.972   4.746  0.7719 -1.2065 -1.2708
44083SOL     OW42562   9.639  10.031   2.195 -0.2464 -0.2410 -0.2826
44083SOL    HW142563   9.639   9.953   2.140  2.2055 -1.9294  1.8910
44083SOL    HW242564   9.730  10.043   2.220 -1.1363  0.8241  2.8481
44084SOL     OW42565   1.835   8.888   4.389  0.0771  0.2721 -0.5962
44084SOL    HW142566   1.892   8.813   4.371 -1.8903 -1.1932 -1.0395
44084SOL    HW242567   1.789   8.864   4.469 -0.6541  0.9572 -0.8096
44085SOL     OW42568   0.497   3.820   9.806 -0.9436  0.5300  0.5456
44085SOL    HW142569   0.552   3.839   9.730 -0.3942 -2.0854  0.1898
44085SOL    HW242570   0.410   3.804   9.770 -1.0258  0.7389  0.6486
44086SOL     OW42571   7.830   9.966   7.912  0.5118  0.6026  0.2238
44086SOL    HW142572   7.888  10.039   7.933  1.8529 -0.3995  0.1006
44086SOL    HW242573   7.815   9.974   7.818  0.7939  0.6117  0.1795
44087SOL     OW42574   6.878   2.052   8.975 -0.0801 -0.1943  0.3376
44087SOL    HW142575   6.931   1.984   9.016 -0.0170 -0.5448 -0.3064
44087SOL    HW242576   6.937   2.093   8.911 -0.8143 -1.1538 -0.9885
44088SOL     OW42577  10.031   6.976   5.675 -0.4119 -0.1369 -0.2979
44088SOL    HW142578  10.100   6.920   5.639 -1.2700  0.1810 -2.5837
44088SOL    HW242579   9.949   6.937   5.645 -1.1368  0.8915  0.2573
44089SOL     OW42580   4.157  12.810   2.781 -0.4467 -0.1334  0.1733
44089SOL    HW142581   4.172  12.784   2.871 -0.9770 -0.2111  0.2416
44089SOL    HW242582   4.239  12.789   2.735  0.2280  0.9138  0.8527
44090SOL     OW42583   6.567   0.806   0.823 -0.3561 -0.0918 -0.0550
44090SOL    HW142584   6.543   0.718   0.795 -1.4077  0.1490  0.0616
44090SOL    HW242585   6.493   0.861   0.796  0.1380  0.7017  0.1656
44091SOL     OW42586   0.813   8.003   0.483 -0.4192  0.2948  0.6710
44091SOL    HW142587   0.799   8.095   0.459  0.8757  0.2083 -0.5689
44091SOL    HW242588   0.860   7.966   0.408 -1.6888 -1.6170  0.7609
44092SOL     OW42589   1.011   3.714   7.029 -0.0703 -0.2830 -0.4349
44092SOL    HW142590   0.956   3.789   7.053  1.8025  0.4563  1.9696
44092SOL    HW242591   0.956   3.637   7.044 -0.9479  0.4942  0.4416
44093SOL     OW42592   6.167  12.319   3.480  0.0276 -0.3445  0.3296
44093SOL    HW142593   6.249  12.270   3.471  0.0525 -0.2956  0.2932
44093SOL    HW242594   6.160  12.369   3.398  0.8136  0.9603  1.0254
44094SOL     OW42595   8.151   2.647   7.015  0.2973 -0.4647  0.4425
44094SOL    HW142596   8.068   2.688   7.039  0.4625  0.8726 -1.0915
44094SOL    HW242597   8.211   2.720   7.000  1.1499 -1.3245 -0.5329
44095SOL     OW42598  10.505  12.083   0.800 -0.1640 -0.4502  0.1601
44095SOL    HW142599  10.489  12.125   0.715  1.8717  1.9675  0.8326
44095SOL    HW242600  10.581  12.026   0.784 -1.0322 -1.5958 -0.0418
44096SOL     OW42601  10.514   4.787   8.292  0.1591  0.4707  0.0131
44096SOL    HW142602  10.553   4.832   8.217  0.7960 -0.6534 -0.3674
44096SOL    HW242603  10.420   4.789   8.275  0.0405  2.8028  0.7022
44097SOL     OW42604   4.241  11.783   3.401 -0.5849  0.2714  0.4815
44097SOL    HW142605   4.196  11.837   3.465 -0.6004  1.3420 -0.4058
44097SOL    HW242606   4.296  11.844   3.351  1.7923 -0.9507  1.4196
44098SOL     OW42607   0.992   7.176   8.539 -0.2926 -0.1720 -0.3331
44098SOL    HW142608   1.003   7.191   8.445  0.1512  0.3011 -0.2131
44098SOL    HW242609   0.902   7.145   8.549 -0.7210  0.8856 -0.7851
44099SOL     OW42610   0.992  11.113  11.809 -0.0121 -0.3230 -0.4936
44099SOL    HW142611   0.948  11.097  11.892 -0.0206 -1.2676 -0.6727
44099SOL    HW242612   0.964  11.041  11.752  0.3190  0.0823 -1.1855
44100SOL     OW42613   9.579   6.537   7.173 -0.7337  0.0460 -0.2584
44100SOL    HW142614   9.620   6.595   7.237 -2.2520  0.4482  0.4175
44100SOL    HW242615   9.597   6.578   7.089  1.0428 -0.3281 -0.0964
44101SOL     OW42616   9.272   0.528   6.099 -0.0085 -0.0601 -0.6077
44101SOL    HW142617   9.301   0.463   6.035 -0.5396  1.1299 -2.1348
44101SOL    HW242618   9.292   0.612   6.057 -1.4034  0.7574  0.3086
44102SOL     OW42619   5.548   2.747   0.585 -0.5375  0.2064 -0.5222
44102SOL    HW142620   5.494   2.765   0.662  1.6274 -0.0290  1.1629
44102SOL    HW242621   5.636   2.777   0.611  0.8150 -2.2591 -1.9129
44103SOL     OW42622   8.977  12.863   7.762 -0.4606 -0.2351  0.6343
44103SOL    HW142623   8.948  12.881   7.672 -0.6691 -2.3403  0.2242
44103SOL    HW242624   8.904  12.892   7.817 -1.3433 -1.0622 -0.0655
44104SOL     OW42625  11.666   0.828   3.549  0.3332  0.2750 -0.2105
44104SOL    HW142626  11.736   0.791   3.603 -1.3601 -0.2130  1.7431
44104SOL    HW242627  11.673   0.922   3.562  0.9677  0.2766 -0.4969
44105SOL     OW42628   1.865  10.109   5.486  0.1640 -0.1137  0.0709
44105SOL    HW142629   1.827  10.085   5.571  1.2052  1.7469  1.1450
44105SOL    HW242630   1.946  10.059   5.482 -1.3503 -2.6720 -1.3847
44106SOL     OW42631  12.541   3.665   6.569 -0.2188  0.1431 -0.2233
44106SOL    HW142632  12.464   3.664   6.514  0.3218  1.0412 -1.0241
44106SOL    HW242633  12.608   3.709   6.517  1.1247 -1.4232  0.0763
44107SOL     OW42634   8.026   1.240   1.205  0.0209  0.2782  0.2004
44107SOL    HW142635   8.111   1.261   1.244 -0.1353  1.2243  0.0387
44107SOL    HW242636   7.989   1.324   1.181 -1.1961 -0.0900  0.7283
44108SOL     OW42637  12.294   9.754  12.241 -0.1113 -0.0096 -0.5290
44108SOL    HW142638  12.286   9.848  12.224 -2.8384  1.0071  4.2939
44108SOL    HW242639  12.373   9.746  12.294 -1.5833  0.3308  1.8808
44109SOL     OW42640   3.838   8.076  12.198 -0.0333  0.1222 -0.3020
44109SOL    HW142641   3.849   7.981  12.204  2.4479  0.2678 -1.1859
44109SOL    HW242642   3.898   8.111  12.264 -1.4247  1.1031  0.4914
44110SOL     OW42643  12.955  10.998   7.507 -0.0490 -0.3989  0.1978
44110SOL    HW142644  12.888  11.053   7.549 -0.4322 -0.7187  0.0139
44110SOL    HW242645  12.931  10.999   7.414  0.5061 -0.0996  0.0537
44111SOL     OW42646  12.201   5.278  11.054 -0.0218  0.2075  0.2254
44111SOL    HW142647  12.206   5.373  11.055  0.6827  0.1774  0.2003
44111SOL    HW242648  12.130   5.257  10.993  0.3573  0.6973 -0.3921
44112SOL     OW42649   1.506   3.377   8.794 -0.2831 -0.4184 -0.4576
44112SOL    HW142650   1.592   3.340   8.813  0.0921  0.7360  0.1615
44112SOL    HW242651   1.517   3.425   8.712 -0.3287 -0.2372 -0.3582
44113SOL     OW42652  11.690  11.874   0.752 -0.7950 -0.1118 -0.5184
44113SOL    HW142653  11.785  11.886   0.752 -0.6049 -1.4643 -0.3135
44113SOL    HW242654  11.674  11.810   0.821 -1.7566 -0.5623 -1.1436
44114SOL     OW42655   9.034  10.697   6.813 -0.9495 -0.1464  0.5656
44114SOL    HW142656   9.120  10.712   6.772  0.2720 -1.3523  2.5020
44114SOL    HW242657   8.976  10.759   6.770  0.7989  0.4376 -1.1126
44115SOL     OW42658  12.853   6.317   9.099 -0.5828  0.7577  0.5681
44115SOL    HW142659  12.841   6.243   9.158 -2.0002 -2.0272 -2.8424
44115SOL    HW242660  12.946   6.337   9.103 -0.2471 -0.9075  1.9834
44116SOL     OW42661   8.182   8.703   0.896  0.6953 -0.0397  0.0856
44116SOL    HW142662   8.194   8.798   0.904  2.1362 -0.0662 -1.2596
44116SOL    HW242663   8.227   8.667   0.973  2.0600  0.2956 -0.5220
44117SOL     OW42664   4.913   2.041   8.293 -0.2966  0.0468 -0.1719
44117SOL    HW142665   5.004   2.024   8.317  0.0026  1.1441 -0.4635
44117SOL    HW242666   4.866   1.963   8.321  0.4551  0.1790  1.5676
44118SOL     OW42667  12.796   5.266   2.439  0.1942  0.3642 -0.3848
44118SOL    HW142668  12.739   5.316   2.498 -1.4122 -2.1826  0.3912
44118SOL    HW242669  12.753   5.181   2.432  3.6314 -1.5411 -0.1939
44119SOL     OW42670   4.252   6.344   8.101  0.0735 -0.1147  0.4812
44119SOL    HW142671   4.265   6.328   8.008  1.2453  1.3922  0.3647
44119SOL    HW242672   4.338   6.332   8.140  0.1959  1.8951  0.9432
44120SOL     OW42673  10.822   2.701  10.196 -0.5463 -0.5451 -0.0218
44120SOL    HW142674  10.846   2.727  10.285  2.4072 -1.3020 -0.4701
44120SOL    HW242675  10.803   2.608  10.203 -1.8244 -0.2948  0.0309
44121SOL     OW42676  11.442  12.599  11.857  0.1073 -0.0674  0.3605
44121SOL    HW142677  11.431  12.537  11.784 -0.5981  1.0753 -0.5405
44121SOL    HW242678  11.464  12.544  11.932  4.8408 -1.1099 -1.4058
44122SOL     OW42679   4.709   0.256   2.557  0.0183  0.3263  0.1774
44122SOL    HW142680   4.686   0.185   2.497 -1.3802  0.6005  0.3480
44122SOL    HW242681   4.768   0.215   2.621 -1.9117 -1.1212  1.1547
44123SOL     OW42682  12.088   0.484  12.978 -0.4932 -0.2608 -0.1006
44123SOL    HW142683  12.150   0.460  12.909 -0.8772  0.2149 -0.6116
44123SOL    HW242684  12.028   0.546  12.937 -1.5396 -0.9889  0.2897
44124SOL     OW42685   9.038  11.715   9.504  0.3529  0.2374  0.0140
44124SOL    HW142686   9.112  11.712   9.443  1.2190  1.0567  0.9894
44124SOL    HW242687   9.028  11.625   9.535  3.3421  0.6425  2.6229
44125SOL     OW42688   3.673   6.247  12.355 -0.0260 -0.1841 -0.6077
44125SOL    HW142689   3.630   6.237  12.440 -0.0557 -0.2828 -0.6348
44125SOL    HW242690   3.616   6.307  12.306  0.2000  0.1941 -0.4143
44126SOL     OW42691   3.549   6.096   3.571  0.1058 -0.3135 -0.2699
44126SOL    HW142692   3.555   6.026   3.506 -0.8684  0.2704 -1.0205
44126SOL    HW242693   3.559   6.052   3.655  0.2191 -1.2543 -0.7651
44127SOL     OW42694  10.098   5.819   0.197  0.0735  0.4056 -0.0785
44127SOL    HW142695  10.099   5.913   0.216  1.5696  0.2885  0.6095
44127SOL    HW242696  10.018   5.787   0.238  0.1744  1.1925  0.7680
44128SOL     OW42697   8.129  10.295  10.976  0.0770 -0.2518 -0.5173
44128SOL    HW142698   8.177  10.372  11.007  0.1365 -0.2342 -0.6499
44128SOL    HW242699   8.041  10.304  11.012 -0.1293  0.2537 -1.1411
44129SOL     OW42700  12.625  10.658  10.413 -0.3859 -0.1103 -0.3609
44129SOL    HW142701  12.589  10.745  10.429  1.2835  0.8657 -1.6019
44129SOL    HW242702  12.620  10.647  10.318  3.3498  0.5301 -0.7648
44130SOL     OW42703   2.458   1.568   7.521 -0.2024  0.4178 -0.5997
44130SOL    HW142704   2.541   1.551   7.567  0.0715  2.4568 -0.2488
44130SOL    HW242705   2.484   1.581   7.430 -0.1628  0.8868 -0.5207
44131SOL     OW42706   3.084  11.678   4.359  0.2866 -0.4520 -0.2411
44131SOL    HW142707   3.054  11.757   4.313  1.4726 -0.0644 -0.3807
44131SOL    HW242708   3.025  11.609   4.329 -2.1086  0.7105  1.4151
44132SOL     OW42709   0.188   1.875  11.686 -0.2883 -0.4644 -0.4986
44132SOL    HW142710   0.205   1.835  11.601  0.1629  0.2772 -0.7704
44132SOL    HW242711   0.263   1.932  11.701  0.2069 -1.4458  0.9398
44133SOL     OW42712  10.949  11.517   6.012 -0.0872 -0.1355  0.3382
44133SOL    HW142713  10.958  11.609   6.037  1.3987 -0.7841  2.5266
44133SOL    HW242714  11.024  11.499   5.955  0.0430 -0.1531  0.5131
44134SOL     OW42715   2.253   8.230   6.209 -0.5345 -0.0145 -0.1446
44134SOL    HW142716   2.237   8.278   6.128 -0.3943  1.0751  0.4486
44134SOL    HW242717   2.326   8.276   6.251 -0.7907 -0.3782  0.7301
44135SOL     OW42718   4.178   8.056   7.564 -0.3963 -0.0654 -0.3697
44135SOL    HW142719   4.259   8.005   7.574 -0.4951 -0.0404  0.7310
44135SOL    HW242720   4.196   8.116   7.491  0.1742 -0.8095 -0.8587
44136SOL     OW42721   3.030   0.174   8.774 -0.1044  0.3852 -0.4192
44136SOL    HW142722   3.110   0.206   8.815 -0.1263  0.2413 -0.2635
44136SOL    HW242723   2.987   0.253   8.741 -1.5644  0.9194  2.4254
44137SOL     OW42724   7.704   7.816   3.141  1.0999 -0.0848 -0.5270
44137SOL    HW142725   7.626   7.767   3.166  1.8113 -1.0037 -0.0807
44137SOL    HW242726   7.708   7.889   3.203  1.2890 -0.7500  0.2526
44138SOL     OW42727   4.584   7.326   1.400  0.1264  0.6968  0.2182
44138SOL    HW142728   4.540   7.323   1.315 -2.0916  2.0056  1.2298
44138SOL    HW242729   4.526   7.277   1.459  2.3947 -1.5757  0.7581
44139SOL     OW42730   3.892   9.817   8.104 -0.2484  0.4639 -0.2162
44139SOL    HW142731   3.900   9.738   8.050 -2.5196 -2.2382  2.9316
44139SOL    HW242732   3.979   9.829   8.142  0.3583  0.0596 -1.4081
44140SOL     OW42733   3.352  11.307   3.143  0.4225 -0.1665  0.1440
44140SOL    HW142734   3.350  11.368   3.217 -3.4297  0.0920  0.0307
44140SOL    HW242735   3.383  11.225   3.180 -3.0042 -0.5422  2.6914
44141SOL     OW42736  10.116   6.626   9.757 -0.2685  0.3903 -0.5158
44141SOL    HW142737  10.085   6.624   9.667 -1.8584  0.3406  0.0164
44141SOL    HW242738  10.172   6.704   9.760 -0.7189  0.7620 -1.3733
44142SOL     OW42739   9.181   7.992  10.876  0.2334  0.3570 -0.3613
44142SOL    HW142740   9.101   8.042  10.892 -1.7330 -2.8960  0.9917
44142SOL    HW242741   9.168   7.955  10.789 -0.2701 -0.9686  0.2522
44143SOL     OW42742  12.828   8.562   4.224  0.4791  0.1690 -0.2751
44143SOL    HW142743  12.844   8.518   4.141 -0.1957 -0.3410 -0.1427
44143SOL    HW242744  12.836   8.493   4.290  1.4355  0.6534  0.1267
44144SOL     OW42745  12.762   3.691   8.167 -0.4764 -0.0661 -0.1904
44144SOL    HW142746  12.754   3.771   8.114 -0.7427 -1.2227 -1.9690
44144SOL    HW242747  12.849   3.657   8.146  0.3504  0.6036  1.8815
44145SOL     OW42748   0.592  10.084   3.659 -0.1661 -0.4031 -0.1405
44145SOL    HW142749   0.500  10.058   3.647 -0.8100  0.6372  2.1052
44145SOL    HW242750   0.599  10.104   3.752  1.9945  0.9402 -0.5426
44146SOL     OW42751  10.158   2.264  12.575 -1.1529  0.1007 -0.3458
44146SOL    HW142752  10.136   2.195  12.637  1.7599 -0.1388  0.5663
44146SOL    HW242753  10.128   2.345  12.617  2.4032  0.1916  2.5331
44147SOL     OW42754   7.517   0.860   0.992 -0.2186 -0.4500 -0.4343
44147SOL    HW142755   7.506   0.766   1.004 -0.1712 -0.4431 -0.3418
44147SOL    HW242756   7.612   0.874   0.995  0.0872 -0.8805 -3.7868
44148SOL     OW42757   5.897   6.793   3.566  0.2132  0.9555 -0.1799
44148SOL    HW142758   5.839   6.778   3.491  1.3846 -0.3406 -0.8650
44148SOL    HW242759   5.971   6.841   3.529 -0.0184  1.9187  0.5435
44149SOL     OW42760   5.376   6.566   4.094  0.3958  0.0650 -0.1639
44149SOL    HW142761   5.462   6.564   4.051 -0.3440 -1.6768 -1.7570
44149SOL    HW242762   5.334   6.645   4.060  0.1232 -0.8725 -2.1634
44150SOL     OW42763   8.116  12.797   9.443 -0.0368 -0.4854 -0.7098
44150SOL    HW142764   8.211  12.813   9.444 -0.0746 -0.1706  0.7267
44150SOL    HW242765   8.090  12.809   9.352  1.3695 -0.9573 -1.2021
44151SOL     OW42766   3.033   1.100   4.003 -0.2932 -0.3546 -0.0983
44151SOL    HW142767   2.967   1.152   4.048 -0.6602 -1.0387  0.1728
44151SOL    HW242768   3.080   1.163   3.948 -0.2079  0.3894  0.8034
44152SOL     OW42769  11.504  11.427  12.343  0.0403  0.2639  0.3611
44152SOL    HW142770  11.416  11.396  12.361 -0.3396  0.9461 -0.2673
44152SOL    HW242771  11.492  11.517  12.313  0.6251 -0.6129 -2.8492
44153SOL     OW42772   6.206  12.820   7.778  0.3413  0.1534 -0.1560
44153SOL    HW142773   6.297  12.849   7.780  1.0106 -1.7874  0.8395
44153SOL    HW242774   6.209  12.730   7.813 -2.1305  0.5644  1.3756
44154SOL     OW42775  12.839  12.360   8.959 -0.4435 -0.0557  0.0213
44154SOL    HW142776  12.805  12.306   9.030 -0.1704 -0.2294  0.0215
44154SOL    HW242777  12.789  12.441   8.964 -0.6596 -0.1991  0.1983
44155SOL     OW42778   8.072  10.447   4.511 -0.4605  0.7634  0.2570
44155SOL    HW142779   8.154  10.408   4.542 -0.6317  0.1735 -0.0025
44155SOL    HW242780   8.005  10.413   4.570 -0.5019  1.3661  0.5618
44156SOL     OW42781   9.637   2.257   2.386 -0.3332  0.3097  0.0150
44156SOL    HW142782   9.576   2.312   2.434 -1.5723  0.4268 -1.6227
44156SOL    HW242783   9.616   2.168   2.413 -0.7256  0.4027  0.0151
44157SOL     OW42784   0.299   8.596   2.495  0.1927  0.4109 -0.7862
44157SOL    HW142785   0.316   8.503   2.477 -0.2485  0.5619 -2.0806
44157SOL    HW242786   0.335   8.610   2.582 -0.7484 -1.2592 -0.0708
44158SOL     OW42787   9.176   4.052   4.323  0.0687 -0.2007  0.3296
44158SOL    HW142788   9.086   4.032   4.351  0.5011 -0.5889  1.4613
44158SOL    HW242789   9.178   4.026   4.231 -1.7071  2.1237 -0.4662
44159SOL     OW42790   6.622  11.024   2.775 -0.4019 -1.0233 -0.4375
44159SOL    HW142791   6.616  10.971   2.695  2.0397 -0.1443 -1.2906
44159SOL    HW242792   6.546  11.082   2.771 -1.1060 -1.9610 -1.3772
44160SOL     OW42793   4.627   8.144   7.956  0.4963 -0.1348 -0.8038
44160SOL    HW142794   4.698   8.156   7.893  0.6448  0.9693 -0.4455
44160SOL    HW242795   4.671   8.137   8.041  0.3578 -2.4079 -0.8464
44161SOL     OW42796   9.943   1.925   3.892 -0.0656  0.1228 -0.3133
44161SOL    HW142797   9.901   1.927   3.978  0.9832 -0.1255  0.2211
44161SOL    HW242798   9.902   1.851   3.847 -1.9309  1.3536 -0.7457
44162SOL     OW42799   5.235   1.321   2.805 -0.1697  0.5261 -0.1453
44162SOL    HW142800   5.184   1.324   2.886  0.2144  2.3212  0.0653
44162SOL    HW242801   5.277   1.235   2.807 -0.9523  0.1365  1.0588
44163SOL     OW42802   5.712   2.624   6.223 -0.7150  0.0736  0.1272
44163SOL    HW142803   5.799   2.614   6.263  0.0196 -0.5842 -1.5530
44163SOL    HW242804   5.723   2.693   6.157 -1.5209  0.1067  0.0134
44164SOL     OW42805  10.433   4.737   8.729  0.1726 -0.2196 -0.2334
44164SOL    HW142806  10.486   4.672   8.683 -0.8839 -1.2985  0.0242
44164SOL    HW242807  10.343   4.718   8.704 -0.3805 -0.3975  1.6921
44165SOL     OW42808   3.524   9.527   5.732 -0.2076 -0.1784  0.2338
44165SOL    HW142809   3.508   9.442   5.691  1.4704 -0.5346  0.2176
44165SOL    HW242810   3.542   9.506   5.823 -0.0056  0.1768  0.2769
44166SOL     OW42811   1.783   8.773  12.692 -0.2821  0.2352 -0.0680
44166SOL    HW142812   1.781   8.741  12.602  2.0738  0.4442 -0.2482
44166SOL    HW242813   1.872   8.804  12.705 -0.8523  1.2005  2.0209
44167SOL     OW42814   0.990   4.877   2.173 -0.3451  0.0596 -0.4112
44167SOL    HW142815   1.038   4.833   2.243 -1.2279  0.1811  0.2868
44167SOL    HW242816   0.929   4.811   2.140 -0.4113  0.2126 -0.5954
44168SOL     OW42817   4.263   0.212   8.958 -0.4705 -0.0989 -0.4609
44168SOL    HW142818   4.183   0.214   9.011 -0.0540 -0.1873  0.1909
44168SOL    HW242819   4.291   0.120   8.961 -1.0335 -0.3431 -1.7715
44169SOL     OW42820   3.189   4.243  12.917  0.6923  0.7491 -0.0396
44169SOL    HW142821   3.106   4.230  12.962 -0.5720  0.2398 -2.3521
44169SOL    HW242822   3.241   4.165  12.938 -0.8952 -0.7758 -1.4868
44170SOL     OW42823   2.048   2.748  12.859  0.3381 -0.1334 -0.1334
44170SOL    HW142824   1.986   2.807  12.900  1.4708  1.1354 -0.1797
44170SOL    HW242825   2.069   2.683  12.926 -0.0530  0.1884  0.2967
44171SOL     OW42826   4.053   5.139   0.907  0.0588  0.4754 -0.1278
44171SOL    HW142827   4.123   5.202   0.891 -1.2792  1.7377 -1.3511
44171SOL    HW242828   4.010   5.128   0.822  0.9133 -3.0247 -0.2690
44172SOL     OW42829   9.948   7.508  11.158  0.0117  0.2269 -0.0883
44172SOL    HW142830   9.872   7.521  11.215  0.8623  0.2784  1.0870
44172SOL    HW242831  10.020   7.552  11.205  1.0291 -0.8984 -0.5422
44173SOL     OW42832   9.655   2.066   3.986 -0.5227 -0.3455  0.5944
44173SOL    HW142833   9.614   2.019   3.913  1.1266 -0.5648 -0.2232
44173SOL    HW242834   9.667   2.155   3.953  2.5030 -1.0344 -0.4017
44174SOL     OW42835   8.654  11.920   0.795  0.0300 -0.5893 -0.0157
44174SOL    HW142836   8.697  11.862   0.859  0.5301 -0.1831  0.0249
44174SOL    HW242837   8.560  11.904   0.807  0.1888 -2.4484 -1.0005
44175SOL     OW42838   8.298   0.775   2.669 -0.3305 -0.2830 -0.6911
44175SOL    HW142839   8.290   0.780   2.764 -0.9307  1.7365 -0.8064
44175SOL    HW242840   8.306   0.682   2.650 -1.5107 -0.8217  1.2392
44176SOL     OW42841   8.357  12.648   7.929 -0.2125 -0.3765 -0.1998
44176SOL    HW142842   8.382  12.716   7.991 -0.7024 -0.8858  0.5772
44176SOL    HW242843   8.261  12.650   7.928 -0.2479 -1.3572  0.1942
44177SOL     OW42844   6.245   3.285   0.466  0.1643  0.4051  0.3560
44177SOL    HW142845   6.233   3.267   0.373  1.9134  0.4342  0.0806
44177SOL    HW242846   6.197   3.367   0.481  1.4828  1.4996 -1.0222
44178SOL     OW42847   2.740   7.839   7.796  0.2753  0.5381 -0.4232
44178SOL    HW142848   2.755   7.811   7.706  0.7039  0.0784 -0.2153
44178SOL    HW242849   2.718   7.932   7.789 -1.3576  0.1297 -1.1519
44179SOL     OW42850   4.762   0.315   8.446  0.5063  0.1073 -0.5040
44179SOL    HW142851   4.711   0.246   8.404 -0.1815 -0.2681  0.8902
44179SOL    HW242852   4.708   0.342   8.521  2.0728  0.1355  0.6470
44180SOL     OW42853  12.986   2.654  11.573  0.3108  0.1199  0.2419
44180SOL    HW142854  12.926   2.695  11.634 -1.0916  0.2882 -1.1836
44180SOL    HW242855  13.044   2.725  11.545 -0.5814  0.6118 -0.4106
44181SOL     OW42856   0.546   8.753   7.477  0.1466  0.1405 -0.6157
44181SOL    HW142857   0.630   8.717   7.449  0.8766  0.4025  1.0784
44181SOL    HW242858   0.501   8.679   7.518 -0.4747 -0.0011 -1.5278
44182SOL     OW42859   6.903   9.591   8.886  1.0415  0.7664 -0.0941
44182SOL    HW142860   6.870   9.680   8.894  0.3317  0.6409 -1.4032
44182SOL    HW242861   6.830   9.535   8.914  0.3764  0.5222 -2.1257
44183SOL     OW42862   3.421   2.232  12.042  0.1398 -0.5508  0.5793
44183SOL    HW142863   3.373   2.152  12.064 -0.1971 -0.5607 -0.1544
44183SOL    HW242864   3.457   2.215  11.955 -0.4739  0.3244  0.1307
44184SOL     OW42865   7.988   9.075   0.209  1.0858  0.2476  0.0723
44184SOL    HW142866   8.049   9.036   0.271  1.8901 -1.0388 -1.4633
44184SOL    HW242867   7.930   9.003   0.184  0.5100  0.8532 -0.3688
44185SOL     OW42868   5.938   3.129   3.119 -0.3995  0.1795 -0.2407
44185SOL    HW142869   5.895   3.139   3.034 -1.1390 -0.2046  0.0780
44185SOL    HW242870   5.993   3.052   3.108 -0.4919  0.1302 -0.3703
44186SOL     OW42871   3.512   8.366   6.789  0.3498  0.5030 -0.4153
44186SOL    HW142872   3.598   8.394   6.820 -0.2880  1.3521  0.6470
44186SOL    HW242873   3.463   8.447   6.779 -0.7538 -0.0641  0.2843
44187SOL     OW42874  12.027   6.830  11.955 -0.2869  0.2126  0.1705
44187SOL    HW142875  11.936   6.821  11.929  0.4798  0.3245 -2.9287
44187SOL    HW242876  12.061   6.740  11.957  0.5232  0.3368 -3.0892
44188SOL     OW42877   9.603   4.301  10.123 -0.0064  0.3742  0.1372
44188SOL    HW142878   9.632   4.388  10.094 -1.5160  1.2279  1.0137
44188SOL    HW242879   9.598   4.309  10.219  1.7260 -1.3363  0.4450
44189SOL     OW42880   5.113   0.412   3.819  0.5887  0.7105 -0.0325
44189SOL    HW142881   5.058   0.486   3.794  0.9822  0.5260 -1.5682
44189SOL    HW242882   5.088   0.342   3.759  0.3076 -0.3952  1.3052
44190SOL     OW42883   4.784   7.694   4.561  0.6317 -0.1192 -0.5262
44190SOL    HW142884   4.824   7.777   4.534 -0.6579  1.5197  2.2077
44190SOL    HW242885   4.699   7.693   4.516  0.2283  0.5602  0.2027
44191SOL     OW42886   3.167   7.651   3.375  0.1593  0.4047 -0.3635
44191SOL    HW142887   3.248   7.646   3.324  0.8030  0.4510  0.6339
44191SOL    HW242888   3.160   7.566   3.418  0.4727  0.9263  0.7296
44192SOL     OW42889  11.240   8.340   9.768  0.0828  0.0436 -0.6635
44192SOL    HW142890  11.237   8.384   9.684  0.0822  0.0555 -0.6575
44192SOL    HW242891  11.224   8.409   9.832  0.6594  0.1403 -0.6166
44193SOL     OW42892   3.062   0.414  12.715 -0.3596  0.5778 -0.2255
44193SOL    HW142893   3.116   0.464  12.777 -0.9720  2.2601 -0.9989
44193SOL    HW242894   3.118   0.342  12.687 -0.6198 -1.3870  3.5961
44194SOL     OW42895   3.134   1.701   7.390 -0.1269 -0.3764  0.2921
44194SOL    HW142896   3.098   1.696   7.301  1.0448  1.3061 -0.3396
44194SOL    HW242897   3.220   1.659   7.384  0.6311  1.1071  0.1821
44195SOL     OW42898  12.358   3.531   7.708  0.0848 -0.5734  0.2349
44195SOL    HW142899  12.314   3.450   7.734 -1.4171 -0.4606 -1.7360
44195SOL    HW242900  12.420   3.505   7.641  2.1614 -0.5194  2.0301
44196SOL     OW42901  11.982   6.872   9.792 -0.4952  0.1663 -0.2662
44196SOL    HW142902  12.024   6.816   9.858 -0.4015 -1.1964 -1.4428
44196SOL    HW242903  11.892   6.880   9.822 -1.6563 -3.9416 -1.9693
44197SOL     OW42904   3.086   1.164   1.017  0.3881 -0.8500  0.3713
44197SOL    HW142905   3.170   1.192   1.054  1.5831 -2.5857 -0.8233
44197SOL    HW242906   3.066   1.083   1.064  1.0039 -2.0972 -1.4154
44198SOL     OW42907   1.863   7.298   6.984  0.1391  0.1570  0.3358
44198SOL    HW142908   1.806   7.319   6.910 -0.7487 -0.7572  0.7379
44198SOL    HW242909   1.949   7.333   6.958 -0.6958  2.0904 -0.0222
44199SOL     OW42910   9.613   0.687   2.943  0.3760 -0.1671  0.1877
44199SOL    HW142911   9.605   0.629   3.019  0.3099  1.4262  1.4421
44199SOL    HW242912   9.560   0.645   2.875  0.2553 -1.5166  1.0751
44200SOL     OW42913   6.990   3.856   5.308  0.8599  0.2704 -0.0695
44200SOL    HW142914   6.934   3.784   5.278  0.6798  0.8498 -1.1702
44200SOL    HW242915   6.992   3.847   5.403 -0.1879 -0.4329 -0.0989
44201SOL     OW42916   2.920   0.482  11.066  0.2373  0.0368  0.4000
44201SOL    HW142917   2.920   0.496  11.161  0.6807 -0.3240  0.4564
44201SOL    HW242918   2.875   0.399  11.054 -2.2064  1.3180  0.0786
44202SOL     OW42919   9.038   0.893   7.584 -0.1645  0.3492  0.1469
44202SOL    HW142920   8.966   0.859   7.531 -0.3901  0.1396  0.5883
44202SOL    HW242921   9.050   0.983   7.552 -3.3891  1.9513  2.7782
44203SOL     OW42922   5.221   6.322   1.970 -0.2917 -0.0902 -0.2180
44203SOL    HW142923   5.207   6.408   2.009 -0.9684  0.3353 -1.3596
44203SOL    HW242924   5.139   6.275   1.985 -0.0605 -0.4139  0.0627
44204SOL     OW42925   9.984  12.442  11.728 -0.0841 -0.2656  0.1603
44204SOL    HW142926  10.061  12.469  11.679 -0.2436  0.5959  0.3706
44204SOL    HW242927   9.935  12.523  11.743  0.3291 -0.3735  2.3906
44205SOL     OW42928   3.772   3.729   0.392 -0.3098  0.5272  0.0505
44205SOL    HW142929   3.716   3.770   0.326  2.0678  0.7732 -1.9212
44205SOL    HW242930   3.710   3.684   0.450 -2.5574  0.9082 -1.8977
44206SOL     OW42931  11.345   6.968   3.013  0.5390  0.3812 -0.1444
44206SOL    HW142932  11.253   6.978   2.986  0.9724  0.3579 -1.7620
44206SOL    HW242933  11.342   6.968   3.108 -1.0228  1.5585 -0.1405
44207SOL     OW42934   5.983   1.203   3.327 -0.1152 -0.0202 -0.3263
44207SOL    HW142935   6.051   1.230   3.265  0.5850 -1.6114 -0.2994
44207SOL    HW242936   5.978   1.275   3.390  1.8616 -0.0254 -0.1048
44208SOL     OW42937   5.295   3.110  11.871  0.1431 -0.2753  0.7578
44208SOL    HW142938   5.379   3.065  11.881  0.3004  0.1079  1.1756
44208SOL    HW242939   5.229   3.042  11.889  0.2847 -1.0752 -1.3914
44209SOL     OW42940  10.187   2.525   8.981 -0.2017  0.4341 -0.5236
44209SOL    HW142941  10.100   2.487   8.978 -0.2479  0.1671  1.9627
44209SOL    HW242942  10.223   2.510   8.894 -1.3590 -2.5823 -0.6210
44210SOL     OW42943   5.659  12.492   1.809 -0.1905 -0.3456  0.7877
44210SOL    HW142944   5.749  12.524   1.797  0.0193 -0.5471  1.7808
44210SOL    HW242945   5.642  12.440   1.730  0.1329  0.6561  0.0317
44211SOL     OW42946   1.376   9.028  12.246  0.0654 -0.0509  0.3538
44211SOL    HW142947   1.345   9.119  12.245 -0.6874 -0.2687 -2.0968
44211SOL    HW242948   1.368   8.999  12.156  2.0448 -2.0025  0.7217
44212SOL     OW42949   3.001   2.670  10.456  0.0295 -0.1602  0.2138
44212SOL    HW142950   3.042   2.600  10.405  1.2407  1.8377 -1.7123
44212SOL    HW242951   2.924   2.696  10.405 -0.7529 -0.4402  1.2152
44213SOL     OW42952   3.568  11.848   0.596 -0.9295 -0.3265  0.2361
44213SOL    HW142953   3.518  11.925   0.567 -2.7436 -1.7467 -0.5650
44213SOL    HW242954   3.631  11.832   0.525 -1.3592 -0.2964 -0.1528
44214SOL     OW42955   2.875   7.912   6.622  0.1124 -0.5714 -0.1424
44214SOL    HW142956   2.815   7.902   6.696  1.1923 -2.4573  0.5297
44214SOL    HW242957   2.916   7.998   6.636 -3.2008  1.4004 -1.2969
44215SOL     OW42958   9.860   0.422   6.332  0.1823  0.3794 -0.3594
44215SOL    HW142959   9.926   0.485   6.361  1.2418 -0.0404 -1.7308
44215SOL    HW242960   9.803   0.473   6.273  0.5923  0.2336 -0.8839
44216SOL     OW42961   7.152   6.867   3.851  0.2438  0.9759  0.1480
44216SOL    HW142962   7.098   6.796   3.885  0.3473  1.6533  1.8112
44216SOL    HW242963   7.141   6.862   3.756 -1.2984 -0.0245  0.3424
44217SOL     OW42964  11.405   5.703   5.641  0.3592 -0.1920  0.0997
44217SOL    HW142965  11.360   5.721   5.724  0.5561 -0.9898  0.3904
44217SOL    HW242966  11.371   5.619   5.613  0.1400  0.1703 -0.7482
44218SOL     OW42967   6.387   8.762   6.141  0.2588 -0.6577  0.8221
44218SOL    HW142968   6.386   8.841   6.087  1.3776  0.3347  2.1599
44218SOL    HW242969   6.304   8.718   6.122 -0.7013  1.1840  0.5421
44219SOL     OW42970   4.609   9.567   7.623  0.2219 -0.5623 -0.0690
44219SOL    HW142971   4.681   9.630   7.626  0.0538 -0.1447 -2.4654
44219SOL    HW242972   4.532   9.616   7.649  0.3466 -0.1934 -0.3843
44220SOL     OW42973  12.040   3.338  11.620  0.2615 -0.0022  0.2235
44220SOL    HW142974  11.986   3.407  11.660 -0.3219 -0.3871  0.1221
44220SOL    HW242975  11.978   3.267  11.603  1.2666 -1.7003  2.9045
44221SOL     OW42976   0.395  10.546   0.545 -0.4917 -0.0397  0.3542
44221SOL    HW142977   0.442  10.603   0.485 -1.3506 -0.8777 -1.1790
44221SOL    HW242978   0.323  10.600   0.578 -1.1946 -0.1396 -0.9502
44222SOL     OW42979   8.633   4.676   6.095  0.8022  0.0793  0.2936
44222SOL    HW142980   8.555   4.732   6.101 -0.5233 -1.4274 -1.7297
44222SOL    HW242981   8.705   4.733   6.121 -0.6057  2.4152 -0.5885
44223SOL     OW42982   0.464   0.352   8.661  0.2717  0.2438 -0.2142
44223SOL    HW142983   0.384   0.344   8.609  0.2069  1.0261 -0.2443
44223SOL    HW242984   0.464   0.274   8.716 -0.4252  0.1488 -0.3329
44224SOL     OW42985   2.530  12.869   4.024 -0.0008 -0.1003 -0.0314
44224SOL    HW142986   2.508  12.790   3.974 -1.3226 -1.1276  1.9880
44224SOL    HW242987   2.471  12.936   3.990 -2.2152 -1.2585  1.2538
44225SOL     OW42988  12.975   2.563   9.837  0.8169  0.1128  0.3522
44225SOL    HW142989  12.978   2.476   9.798  0.8630 -0.5993  1.8767
44225SOL    HW242990  12.979   2.623   9.762 -2.6621 -1.1361 -1.0489
44226SOL     OW42991   9.770   7.594   8.709  0.1818 -0.6402  0.5120
44226SOL    HW142992   9.777   7.685   8.737 -1.3307 -0.4643  0.3858
44226SOL    HW242993   9.860   7.561   8.712  0.6280  0.5920  1.4333
44227SOL     OW42994   0.459  12.868   0.282  0.2180 -0.1006  0.1796
44227SOL    HW142995   0.434  12.961   0.282  0.1737 -0.1112 -0.1327
44227SOL    HW242996   0.450  12.841   0.191 -1.1058 -0.7670  0.4879
44228SOL     OW42997   7.071   8.025   9.087  0.7075 -0.1295 -0.5732
44228SOL    HW142998   7.119   7.964   9.031  0.0165 -1.1379 -0.0938
44228SOL    HW242999   6.979   8.013   9.062  0.5485  0.5718 -0.3378
44229SOL     OW43000   2.717   1.133   8.075  0.0545  0.2956  0.3373
44229SOL    HW143001   2.731   1.215   8.122  0.3697  0.0633  0.6542
44229SOL    HW243002   2.750   1.065   8.134 -2.1044 -0.2593  0.9630
44230SOL     OW43003   5.379  12.409  12.838 -0.3294  0.3536 -0.2400
44230SOL    HW143004   5.303  12.371  12.882 -0.2957  0.1157 -0.3863
44230SOL    HW243005   5.342  12.477  12.781 -0.3161  1.0996  0.6183
44231SOL     OW43006   4.321  10.593  11.001  0.0680  0.6529 -0.1706
44231SOL    HW143007   4.310  10.650  11.078  0.3255  0.6861 -0.1544
44231SOL    HW243008   4.281  10.641  10.929 -0.6632  0.3749  0.0489
44232SOL     OW43009   9.731   7.279   5.864 -0.3842 -0.0550  0.7172
44232SOL    HW143010   9.800   7.326   5.911  0.6000  1.0325 -1.6220
44232SOL    HW243011   9.760   7.188   5.862  0.6908  0.2834  0.3104
44233SOL     OW43012  10.455   5.086   2.803 -0.3237 -0.0960 -0.3255
44233SOL    HW143013  10.550   5.091   2.808 -0.2613 -0.8392 -0.6125
44233SOL    HW243014  10.433   5.134   2.724 -0.2691  0.8418  0.2160
44234SOL     OW43015   2.250   7.203  10.213 -0.2088  0.5762  0.7997
44234SOL    HW143016   2.312   7.184  10.284 -0.0217  0.7813  0.6901
44234SOL    HW243017   2.246   7.299  10.210 -0.9103  0.5665  1.1411
44235SOL     OW43018   1.675   2.664   2.572  0.1595 -0.2074  0.0893
44235SOL    HW143019   1.675   2.639   2.665 -0.1290  0.5995  0.3138
44235SOL    HW243020   1.618   2.740   2.568  0.9853  0.3994 -0.5815
44236SOL     OW43021   6.080   2.149   0.331 -0.4255  0.0356  0.3302
44236SOL    HW143022   6.077   2.104   0.415 -1.7411 -0.0399  0.2675
44236SOL    HW243023   6.030   2.093   0.272  0.2565  0.2221 -0.4404
44237SOL     OW43024   6.056   5.382   2.326  0.1089  0.4059  0.0071
44237SOL    HW143025   5.964   5.380   2.299  0.1151 -1.0700  0.0026
44237SOL    HW243026   6.054   5.399   2.420 -0.2030 -0.0075  0.0803
44238SOL     OW43027   5.806   1.761  12.535 -0.5051 -0.1126  0.3407
44238SOL    HW143028   5.804   1.721  12.449  0.9470  0.6611 -0.0781
44238SOL    HW243029   5.882   1.819  12.534 -0.4588 -0.0655  2.1365
44239SOL     OW43030   1.428   7.521   5.568  0.0149 -0.3733  0.3722
44239SOL    HW143031   1.439   7.465   5.491 -1.5824 -0.5948  0.2798
44239SOL    HW243032   1.436   7.610   5.534  0.3503 -0.4880  0.1395
44240SOL     OW43033   6.047   5.473   5.949 -0.4980 -0.9053  0.1097
44240SOL    HW143034   6.111   5.529   5.993 -0.9587 -1.5274  1.6785
44240SOL    HW243035   6.092   5.389   5.939 -0.3547 -0.7318 -0.7538
44241SOL     OW43036  11.700   4.003  11.265  0.3318 -0.0876  0.0353
44241SOL    HW143037  11.621   4.008  11.211  0.7960  0.6150 -0.5897
44241SOL    HW243038  11.727   4.094  11.278 -0.1990 -0.1781  2.1197
44242SOL     OW43039   5.239   1.457  10.251  0.5284 -0.0726 -0.2986
44242SOL    HW143040   5.276   1.499  10.329 -1.6371  0.1999  0.6415
44242SOL    HW243041   5.226   1.529  10.189 -1.4022  0.3950  0.5987
44243SOL     OW43042   5.481   4.198   1.572  0.0346  0.0361 -0.5154
44243SOL    HW143043   5.421   4.195   1.498  0.6084 -4.0540 -1.0080
44243SOL    HW243044   5.438   4.147   1.641  0.0084  2.8285  1.7241
44244SOL     OW43045   8.413   3.858   3.603 -0.1042 -0.7976  0.9235
44244SOL    HW143046   8.336   3.804   3.588  0.4493 -1.1708 -0.8897
44244SOL    HW243047   8.379   3.948   3.606 -0.4685 -0.6811 -2.3838
44245SOL     OW43048   7.451  10.703  10.211  0.1140 -0.0554 -0.8495
44245SOL    HW143049   7.533  10.717  10.162  1.1019  1.2005  1.0454
44245SOL    HW243050   7.479  10.668  10.295 -1.2573  0.8639  0.0254
44246SOL     OW43051  10.365   0.017   0.681  0.7485  0.2133 -0.3400
44246SOL    HW143052  10.284   0.026   0.733  0.6412 -0.5906 -0.3392
44246SOL    HW243053  10.413  -0.053   0.726  1.9478  1.4083  0.2785
44247SOL     OW43054  12.083  10.532   7.652  0.1008  0.1185  0.0707
44247SOL    HW143055  12.006  10.585   7.672  0.5808  1.4599 -1.4687
44247SOL    HW243056  12.145  10.551   7.723  0.5023  2.1639 -0.7662
44248SOL     OW43057   1.542   5.174   4.415  0.3073 -0.1103  0.7402
44248SOL    HW143058   1.581   5.108   4.473  2.1086 -1.6674 -2.0160
44248SOL    HW243059   1.456   5.138   4.394  1.1173 -1.4607 -0.4264
44249SOL     OW43060   6.703  10.092   1.942  0.0894  0.5374  0.2495
44249SOL    HW143061   6.623  10.076   1.891  0.9695  0.3257 -1.1140
44249SOL    HW243062   6.768  10.033   1.903  0.9224  0.7148  1.3283
44250SOL     OW43063   3.681   3.967   9.868 -0.2332 -0.0464  0.4849
44250SOL    HW143064   3.631   3.896   9.908  0.7450 -0.6350  0.6775
44250SOL    HW243065   3.765   3.928   9.846 -0.8722  0.0842 -2.6457
44251SOL     OW43066   3.263   8.045  10.935 -0.6288 -0.2276 -0.0076
44251SOL    HW143067   3.247   8.108  11.005 -0.0254  0.5944 -0.5901
44251SOL    HW243068   3.353   8.017  10.948  0.2317  1.5434 -1.6598
44252SOL     OW43069   3.030   6.682   1.120 -0.3308 -0.0763  0.0427
44252SOL    HW143070   3.090   6.627   1.069 -0.1790  0.2319 -0.1176
44252SOL    HW243071   3.080   6.762   1.137  0.2209 -0.8103  2.1051
44253SOL     OW43072   9.355   2.686   6.084  0.0868  0.0332  0.4279
44253SOL    HW143073   9.345   2.603   6.130  0.8814  0.1718  0.8658
44253SOL    HW243074   9.266   2.711   6.060 -0.0154 -2.1496 -1.8689
44254SOL     OW43075  11.127   1.315   1.687 -0.0439  0.6372  0.2626
44254SOL    HW143076  11.195   1.254   1.717 -0.2250  0.1819 -0.2303
44254SOL    HW243077  11.154   1.400   1.722  0.0145  0.2180  1.2813
44255SOL     OW43078   9.662  12.479   5.713  0.4133 -0.5844 -0.0311
44255SOL    HW143079   9.693  12.389   5.704 -1.2353 -1.2807  0.7931
44255SOL    HW243080   9.569  12.470   5.737  0.1359  1.3381 -0.2176
44256SOL     OW43081   4.697   5.870   6.146  0.1598 -0.3406  0.1346
44256SOL    HW143082   4.758   5.860   6.220 -2.9521 -1.3282  2.8013
44256SOL    HW243083   4.661   5.958   6.157 -1.3728 -1.0145  0.7450
44257SOL     OW43084  12.726   6.476  12.038 -0.3178 -0.5785  0.6871
44257SOL    HW143085  12.802   6.522  12.075  0.5204 -1.6456  0.3651
44257SOL    HW243086  12.750   6.383  12.044 -1.2734 -0.8937 -0.1363
44258SOL     OW43087  12.695   8.150  12.254  0.0186 -0.0569  0.3914
44258SOL    HW143088  12.745   8.185  12.328 -1.6074  0.9682  1.0404
44258SOL    HW243089  12.719   8.207  12.181  0.0053  0.2656  0.6360
44259SOL     OW43090   6.784   9.148   3.278 -0.0662  0.3100 -0.2315
44259SOL    HW143091   6.747   9.074   3.327 -0.4460  0.6052 -0.0591
44259SOL    HW243092   6.826   9.201   3.346 -0.8132  0.8519 -0.1786
44260SOL     OW43093   4.226   2.103   9.636  0.8310 -0.4244 -0.0698
44260SOL    HW143094   4.183   2.115   9.551 -0.8721  0.5823  0.8871
44260SOL    HW243095   4.244   2.192   9.667  1.9877 -0.7917  0.3838
44261SOL     OW43096   8.082   3.872   2.944  0.3921  0.6903  0.1066
44261SOL    HW143097   8.002   3.851   2.896 -0.2334 -2.1471  2.1171
44261SOL    HW243098   8.069   3.833   3.030  3.3255  1.5483  1.0695
44262SOL     OW43099   5.758  12.493  10.256  0.0837  0.5714 -0.3977
44262SOL    HW143100   5.680  12.466  10.207 -0.4104  0.4693  0.4305
44262SOL    HW243101   5.736  12.476  10.347  1.3695 -0.1988 -0.2086
44263SOL     OW43102   6.424   8.888   5.677  0.5674 -0.2616 -0.5218
44263SOL    HW143103   6.352   8.949   5.694  1.9183  1.6016 -1.1148
44263SOL    HW243104   6.485   8.938   5.624  2.7366 -1.4636  0.7115
44264SOL     OW43105   1.853   9.128   8.453 -0.0090  0.2869 -0.3678
44264SOL    HW143106   1.835   9.050   8.400 -0.6851 -0.7891  1.3512
44264SOL    HW243107   1.840   9.201   8.393  1.7624 -0.9088 -2.3470
44265SOL     OW43108   6.347   3.918   3.062  0.1085  0.4892  0.2072
44265SOL    HW143109   6.394   3.962   3.133  1.0815  0.9270 -0.6780
44265SOL    HW243110   6.415   3.894   3.000 -0.8695  1.7718 -1.4566
44266SOL     OW43111   6.352  10.591   1.887  0.4712 -0.0894 -0.6331
44266SOL    HW143112   6.333  10.663   1.826 -1.7255  0.3957  0.5010
44266SOL    HW243113   6.340  10.512   1.835 -0.7723  0.3265 -1.0216
44267SOL     OW43114   9.805  12.243   4.851  0.2043 -0.2898 -0.5367
44267SOL    HW143115   9.884  12.219   4.803  0.6115  2.9784 -1.7536
44267SOL    HW243116   9.759  12.304   4.793 -1.0560  1.1667  1.8401
44268SOL     OW43117   3.711   2.276   0.237  0.4695 -0.2320  0.0706
44268SOL    HW143118   3.698   2.207   0.301  1.1584 -0.1946  0.2592
44268SOL    HW243119   3.780   2.243   0.179  0.6006  0.1719 -0.0118
44269SOL     OW43120   1.945   7.435   8.628 -0.0801  0.2274 -0.5846
44269SOL    HW143121   1.938   7.346   8.661  2.3835 -0.0760 -0.6930
44269SOL    HW243122   1.994   7.426   8.546  0.1928  1.6691 -0.6030
44270SOL     OW43123   7.160   8.111  11.523  0.4049 -0.0326  0.0249
44270SOL    HW143124   7.192   8.171  11.591  0.2259  1.4026 -1.1207
44270SOL    HW243125   7.070   8.138  11.508 -0.8733 -2.8291  1.8765
44271SOL     OW43126   5.590   4.580   3.633  0.4996  0.6590  0.0804
44271SOL    HW143127   5.588   4.485   3.624  2.9244  0.3193  2.0294
44271SOL    HW243128   5.665   4.597   3.691  0.5361  3.8005 -0.7165
44272SOL     OW43129  10.440  11.302   0.830  0.0533 -0.1189 -0.4024
44272SOL    HW143130  10.425  11.318   0.737 -1.0973  1.4589  0.0071
44272SOL    HW243131  10.361  11.258   0.861 -0.0218  0.2974  0.0221
44273SOL     OW43132  12.006  12.715   4.258 -0.0930 -0.3651 -0.4529
44273SOL    HW143133  11.927  12.735   4.307  1.4248 -0.4172  2.2152
44273SOL    HW243134  11.987  12.633   4.214 -2.5562  1.1747 -2.5169
44274SOL     OW43135  11.053   2.673   0.090 -0.2897 -0.6333  0.6899
44274SOL    HW143136  10.965   2.680   0.053  0.5665  0.0895 -1.3640
44274SOL    HW243137  11.101   2.618   0.029  0.6914 -1.0780  1.8106
44275SOL     OW43138   5.217  11.315   0.872 -0.2055 -0.2797 -0.8679
44275SOL    HW143139   5.292  11.375   0.873 -0.2461 -0.1945  1.0833
44275SOL    HW243140   5.141  11.372   0.888 -0.4750 -0.6145 -0.9402
44276SOL     OW43141   2.680   7.305   1.480  0.3938 -0.4443  0.1341
44276SOL    HW143142   2.599   7.255   1.473 -1.5293  2.1535  2.0848
44276SOL    HW243143   2.692   7.344   1.393 -1.8393  0.9950  0.3841
44277SOL     OW43144   2.965  11.190   5.691  0.7345 -0.2357  0.5497
44277SOL    HW143145   2.962  11.234   5.606  2.5447  1.6057  1.3437
44277SOL    HW243146   3.009  11.107   5.674  0.8169 -0.0120 -0.3528
44278SOL     OW43147   5.262  12.709  10.696  0.4410 -0.3143 -0.2380
44278SOL    HW143148   5.329  12.702  10.628  0.9524 -1.5819  0.3622
44278SOL    HW243149   5.304  12.763  10.764  0.0799  0.6086 -0.7295
44279SOL     OW43150   4.382  11.989  10.540 -0.3801  0.5570  0.3738
44279SOL    HW143151   4.424  12.075  10.533  1.2876 -0.3201 -1.0627
44279SOL    HW243152   4.356  11.967  10.451 -0.0495 -0.7611  0.5748
44280SOL     OW43153   7.950  10.786   6.699  0.2315 -0.0470 -0.0022
44280SOL    HW143154   7.874  10.734   6.724  1.0631 -1.7047 -0.7489
44280SOL    HW243155   7.958  10.772   6.604  2.1341 -0.8590  0.2467
44281SOL     OW43156  12.778   7.843  10.110 -0.6973  0.3500  0.5616
44281SOL    HW143157  12.840   7.776  10.080  3.8471  3.4453  2.0741
44281SOL    HW243158  12.753   7.890  10.030 -1.1030 -0.8861 -0.0636
44282SOL     OW43159   2.158   4.968   7.110 -0.3804  0.1311  0.1592
44282SOL    HW143160   2.193   4.936   7.027  1.9107  0.7433  0.8120
44282SOL    HW243161   2.063   4.958   7.101 -0.2054 -0.0730 -2.4091
44283SOL     OW43162   9.993   5.591   4.138  0.0975 -0.2124  0.7167
44283SOL    HW143163  10.000   5.551   4.225 -0.2959  1.1840  1.4133
44283SOL    HW243164   9.911   5.640   4.141 -0.4902 -1.0119 -0.8356
44284SOL     OW43165   9.266   0.033  10.967 -0.7454  0.0669  0.0754
44284SOL    HW143166   9.265   0.035  11.062 -0.0700  1.6385  0.0631
44284SOL    HW243167   9.174   0.040  10.942 -0.8294  0.8619  0.5998
44285SOL     OW43168   2.846   6.022  10.017 -0.3589 -0.0919 -1.3159
44285SOL    HW143169   2.874   5.964  10.088 -1.8146  0.0642 -0.5852
44285SOL    HW243170   2.897   5.993   9.941 -0.2579 -1.6029 -0.7092
44286SOL     OW43171   2.122   2.543   8.437  0.3730 -0.1478  0.0015
44286SOL    HW143172   2.028   2.541   8.451  0.4943  0.9702  1.1480
44286SOL    HW243173   2.135   2.605   8.364  0.4586  4.0852  3.2245
44287SOL     OW43174   1.442   7.222  12.871 -1.0036  0.0857  0.0359
44287SOL    HW143175   1.351   7.198  12.891 -0.3390 -1.6987  1.1438
44287SOL    HW243176   1.446   7.221  12.775 -1.9841 -0.5713 -0.0217
44288SOL     OW43177   8.822  12.360   2.165  0.3946  0.3630  0.0355
44288SOL    HW143178   8.812  12.426   2.096 -0.4090  0.8052  0.5484
44288SOL    HW243179   8.887  12.299   2.132  0.1405  0.6637 -1.0448
44289SOL     OW43180   5.214  12.401   7.801  0.2718 -0.0460  0.0213
44289SOL    HW143181   5.187  12.475   7.855 -0.9808 -0.8704  0.5786
44289SOL    HW243182   5.231  12.331   7.863 -0.2770 -0.7341 -0.5825
44290SOL     OW43183   3.744   5.045   4.784 -0.0350 -0.1774  0.0980
44290SOL    HW143184   3.685   4.974   4.809 -0.0153 -0.0105  0.6180
44290SOL    HW243185   3.740   5.107   4.857  1.6699 -0.7101  0.6727
44291SOL     OW43186   8.522  10.163   8.163  0.4997  0.2256 -0.1763
44291SOL    HW143187   8.564  10.088   8.205  0.3688 -0.2906 -0.9435
44291SOL    HW243188   8.563  10.169   8.077  0.4898  1.0240 -0.1363
44292SOL     OW43189   6.713   9.795   0.117 -0.4952 -0.5911  0.4904
44292SOL    HW143190   6.774   9.858   0.080 -1.8898  0.8241  0.4830
44292SOL    HW243191   6.757   9.711   0.109  0.5759  0.0914 -1.4336
44293SOL     OW43192  11.945  10.862   3.878  0.0462 -0.0820  0.8626
44293SOL    HW143193  11.877  10.868   3.945 -2.5997 -1.9768 -1.4017
44293SOL    HW243194  11.926  10.934   3.818  1.2618  0.5035  1.1485
44294SOL     OW43195   5.354  10.363   3.467  0.1567 -0.3156 -0.1232
44294SOL    HW143196   5.263  10.334   3.466  0.3171 -0.8451 -0.5276
44294SOL    HW243197   5.364  10.413   3.386 -0.4589  2.0427  1.1938
44295SOL     OW43198   0.585   3.698   6.704 -0.7339  0.2166  0.0348
44295SOL    HW143199   0.497   3.672   6.678 -2.1509  0.9968  3.5054
44295SOL    HW243200   0.602   3.778   6.655 -1.6026 -0.3186 -1.1989
44296SOL     OW43201   0.241  12.640   0.246  0.1836  0.3696 -0.3194
44296SOL    HW143202   0.175  12.582   0.284  2.2282 -1.0751  1.1939
44296SOL    HW243203   0.243  12.717   0.304  1.5872 -0.7507  1.2018
44297SOL     OW43204   3.010   3.498   5.379 -0.4829  0.5436 -0.2091
44297SOL    HW143205   3.038   3.464   5.294  0.8544  0.6692  0.1621
44297SOL    HW243206   2.947   3.567   5.357 -0.5145  0.2531 -1.0810
44298SOL     OW43207   8.076   3.994   7.419 -0.0517  0.4006  0.0733
44298SOL    HW143208   8.024   4.074   7.413 -1.1150 -0.4019 -2.4991
44298SOL    HW243209   8.055   3.958   7.505 -0.0979  2.4818  0.9812
44299SOL     OW43210   8.190   1.488  11.195 -0.1455  0.0556 -0.2031
44299SOL    HW143211   8.255   1.426  11.161  0.0130  0.0159  0.1730
44299SOL    HW243212   8.242   1.557  11.236 -0.3474 -0.9980  1.9400
44300SOL     OW43213   3.879   9.015   2.136  0.5650 -0.4022 -0.2068
44300SOL    HW143214   3.933   8.936   2.126  1.0647 -0.2100  0.8729
44300SOL    HW243215   3.893   9.042   2.226 -1.6222 -0.5422  0.2065
44301SOL     OW43216   8.431  11.161   2.792  0.3437 -0.1971 -0.0876
44301SOL    HW143217   8.380  11.176   2.871  1.8977  0.7852  0.7910
44301SOL    HW243218   8.405  11.231   2.733 -0.3294 -0.5341 -0.2014
44302SOL     OW43219   7.812   1.506   8.448  0.0367  0.1581 -0.2447
44302SOL    HW143220   7.882   1.442   8.456  0.7672  0.5986 -2.3501
44302SOL    HW243221   7.744   1.462   8.398 -0.4194  0.3279  0.2114
44303SOL     OW43222   3.795   5.225  11.387 -0.1793 -0.3150  0.7319
44303SOL    HW143223   3.881   5.198  11.419  0.8241  1.3040 -0.4501
44303SOL    HW243224   3.800   5.321  11.384 -1.4610 -0.2629 -0.8645
44304SOL     OW43225   8.345   2.530   7.617 -0.5525  0.0500  0.0054
44304SOL    HW143226   8.294   2.507   7.695 -0.3819  2.2035  0.8473
44304SOL    HW243227   8.281   2.568   7.557 -0.4685 -0.3767 -0.3561
44305SOL     OW43228   3.657   8.872   1.451  0.5682 -0.0075 -0.6481
44305SOL    HW143229   3.567   8.870   1.485  0.3842  2.9259 -0.7200
44305SOL    HW243230   3.704   8.931   1.510  2.0596 -0.2906 -1.4973
44306SOL     OW43231   5.989  12.128  10.217 -0.0023  0.7580 -0.6016
44306SOL    HW143232   6.003  12.220  10.196  0.1392  0.9698  0.3665
44306SOL    HW243233   6.073  12.086  10.198 -0.0370  0.8391 -0.9450
44307SOL     OW43234  10.938   6.635  11.610  0.3126  0.0025 -0.3361
44307SOL    HW143235  10.912   6.657  11.700  0.7249  0.1318 -0.2457
44307SOL    HW243236  10.855   6.620  11.564  0.0808 -3.2053  0.8250
44308SOL     OW43237   6.016   1.012  10.591 -0.7123 -0.3894  0.5031
44308SOL    HW143238   6.106   1.040  10.610 -1.2503  2.0878 -0.1671
44308SOL    HW243239   5.994   1.059  10.511 -3.4695  1.1566  2.0503
44309SOL     OW43240   3.028   9.938   5.625 -0.0281 -0.3143  0.1174
44309SOL    HW143241   3.118   9.966   5.609  0.1634 -1.9613 -2.1057
44309SOL    HW243242   2.987   9.939   5.538 -1.8162 -0.7195  0.9202
44310SOL     OW43243  11.843   9.486   1.578  0.3626 -0.2050  0.0671
44310SOL    HW143244  11.864   9.436   1.657  1.2389 -0.7010 -0.4615
44310SOL    HW243245  11.925   9.489   1.528 -0.1073  0.3131 -0.7041
44311SOL     OW43246   5.014  12.702   2.092  0.1151  0.0928 -0.2526
44311SOL    HW143247   5.100  12.739   2.112  0.5320  0.2125 -2.0507
44311SOL    HW243248   5.007  12.708   1.996 -1.3877 -1.0397 -0.2579
44312SOL     OW43249   9.321   9.814   9.626  0.3392  0.3810 -0.4859
44312SOL    HW143250   9.405   9.813   9.579 -0.1807  1.5032 -1.4994
44312SOL    HW243251   9.285   9.727   9.610 -0.0012  0.8509 -2.5884
44313SOL     OW43252   6.636   9.118   6.526  0.5957  0.5355 -0.0236
44313SOL    HW143253   6.601   9.088   6.443 -0.2528  0.9295  0.1824
44313SOL    HW243254   6.708   9.176   6.502  1.0683 -0.2131 -0.4514
44314SOL     OW43255   0.343   2.852  12.613  0.4636  0.3185 -0.2366
44314SOL    HW143256   0.321   2.805  12.532 -0.7687 -0.2719  0.4056
44314SOL    HW243257   0.271   2.914  12.625 -0.0039 -0.4367  1.0282
44315SOL     OW43258   2.626   5.269   4.944 -0.0413 -0.2348  0.4074
44315SOL    HW143259   2.558   5.283   4.878  0.5328  1.0480  0.0489
44315SOL    HW243260   2.707   5.265   4.893  0.2984 -0.3404  0.9517
44316SOL     OW43261   4.158   7.861   3.393  0.1556 -0.1211  0.0853
44316SOL    HW143262   4.221   7.916   3.440 -0.1716  0.1643  0.2019
44316SOL    HW243263   4.180   7.871   3.301 -0.6319  1.1522  0.0145
44317SOL     OW43264   2.739   3.043   5.670 -0.4426  0.0887 -0.3776
44317SOL    HW143265   2.645   3.054   5.676 -0.4791 -1.0496  1.6239
44317SOL    HW243266   2.767   3.014   5.756  1.7350  0.2225 -0.9566
44318SOL     OW43267   8.950  10.054   9.707  0.0120  0.5802 -0.0166
44318SOL    HW143268   8.901  10.011   9.777 -1.9851  1.3714 -0.8745
44318SOL    HW243269   8.889  10.059   9.634  1.5768  1.0773 -1.3625
44319SOL     OW43270   5.973   7.257   5.671  0.6142 -0.2962  0.1002
44319SOL    HW143271   5.934   7.341   5.695  0.5408 -0.7364  1.6385
44319SOL    HW243272   6.064   7.277   5.650  0.7015  0.1297  0.8463
44320SOL     OW43273   4.650   5.310   5.400  0.5505 -0.1216  0.0807
44320SOL    HW143274   4.739   5.283   5.422  0.9453  0.0569 -1.2044
44320SOL    HW243275   4.661   5.382   5.338 -0.4730 -0.6787 -0.7939
44321SOL     OW43276   6.912   9.491   9.319 -0.2819  0.1197 -0.3706
44321SOL    HW143277   6.866   9.573   9.337 -1.0600 -0.5478  0.7998
44321SOL    HW243278   6.882   9.467   9.231 -2.7562 -0.6253  0.5979
44322SOL     OW43279   8.469   9.639   6.598  1.1015 -0.2464 -0.1223
44322SOL    HW143280   8.457   9.626   6.692  1.8338 -1.5059 -0.1825
44322SOL    HW243281   8.461   9.734   6.586 -0.0578 -0.1647  1.0436
44323SOL     OW43282   3.292   0.480   0.390  0.2367 -0.3691  0.9884
44323SOL    HW143283   3.279   0.400   0.338 -1.4519  0.7727 -0.4535
44323SOL    HW243284   3.366   0.523   0.348  1.3171 -1.2434  1.9243
44324SOL     OW43285   8.694   5.565   4.938 -0.0027  0.2089  0.5375
44324SOL    HW143286   8.666   5.643   4.890  1.1235  0.3308  0.0465
44324SOL    HW243287   8.759   5.525   4.882  0.3972 -0.3605  1.3913
44325SOL     OW43288   1.751   6.754   9.639  0.2786  0.3759 -0.4965
44325SOL    HW143289   1.688   6.810   9.593  0.4290 -0.5896 -1.9631
44325SOL    HW243290   1.709   6.734   9.723  0.0621  2.3439 -0.0852
44326SOL     OW43291  12.455   1.867   3.015 -0.0746  0.2474  0.0858
44326SOL    HW143292  12.405   1.794   3.050  1.8938 -0.5576  1.3994
44326SOL    HW243293  12.449   1.858   2.920 -1.9223 -0.0994  0.1968
44327SOL     OW43294   9.832   2.325  10.560  0.2154 -0.4748  0.1202
44327SOL    HW143295   9.817   2.410  10.601  0.0645 -0.8344  0.8257
44327SOL    HW243296   9.926   2.311  10.568 -0.0292 -1.3516  2.0167
44328SOL     OW43297   8.731   3.888   0.961 -0.1617  0.0938  0.4893
44328SOL    HW143298   8.692   3.841   1.035  2.2105 -0.9736  1.1834
44328SOL    HW243299   8.780   3.960   1.002 -2.5389  2.4151 -0.4641
44329SOL     OW43300   9.421   1.892   1.068 -0.3611 -0.0232  0.1465
44329SOL    HW143301   9.504   1.904   1.114  0.1103  0.6332 -0.8245
44329SOL    HW243302   9.394   1.803   1.090 -0.2758  0.3363  1.8462
44330SOL     OW43303   5.888  10.017   8.684  0.3524 -0.9651 -0.4746
44330SOL    HW143304   5.823  10.054   8.744 -0.7710  0.3878 -2.4062
44330SOL    HW243305   5.943  10.091   8.660  0.3723 -1.3250 -1.5910
44331SOL     OW43306   8.788   9.170   2.381  0.1245  0.1431  0.6095
44331SOL    HW143307   8.719   9.104   2.378  0.0155  0.2636  0.4166
44331SOL    HW243308   8.869   9.120   2.390 -0.1028  0.0636  2.7562
44332SOL     OW43309   3.555   7.729   5.777 -0.5415 -0.3980  0.0346
44332SOL    HW143310   3.569   7.654   5.835  0.4043 -0.5925 -0.4257
44332SOL    HW243311   3.622   7.792   5.802 -2.0578  0.8319  1.2164
44333SOL     OW43312  10.290   0.323   8.437 -0.1448  0.0090  0.0374
44333SOL    HW143313  10.338   0.406   8.431  0.7712 -0.4541  0.7314
44333SOL    HW243314  10.256   0.322   8.526 -1.2985  0.2410 -0.3916
44334SOL     OW43315   2.857   4.105   5.401 -0.2776  0.5201 -0.2248
44334SOL    HW143316   2.943   4.121   5.360  0.5359 -1.2102  0.6925
44334SOL    HW243317   2.840   4.184   5.452  1.3965  0.4163  0.5640
44335SOL     OW43318   2.538   5.307   1.529  0.5748 -0.5593  1.0091
44335SOL    HW143319   2.559   5.341   1.441 -0.4382 -0.2282  0.8803
44335SOL    HW243320   2.589   5.362   1.588 -0.9177  1.1553  0.7936
44336SOL     OW43321  10.161   8.770   5.717  0.1270 -0.1622  0.0879
44336SOL    HW143322  10.111   8.823   5.779  0.7332  0.9725 -0.3641
44336SOL    HW243323  10.097   8.744   5.650  0.4080  2.9126 -1.5563
44337SOL     OW43324  10.690   7.163   9.478  0.2245 -0.6314 -0.4082
44337SOL    HW143325  10.746   7.234   9.446  0.9678 -0.7134  0.6338
44337SOL    HW243326  10.693   7.172   9.574 -1.6390 -0.5959 -0.3232
44338SOL     OW43327   7.705  11.346   2.843  0.2277 -0.0092 -0.3847
44338SOL    HW143328   7.651  11.373   2.918  1.1327  0.5789  0.0694
44338SOL    HW243329   7.657  11.272   2.804 -0.8707  0.4675  0.0357
44339SOL     OW43330   8.585  12.679  12.667  0.1897 -0.0611  0.3781
44339SOL    HW143331   8.624  12.676  12.580  1.3789 -0.3693  0.8939
44339SOL    HW243332   8.547  12.592  12.679  0.6048 -0.2431  0.4076
44340SOL     OW43333  11.357   2.473  10.860 -0.6424  0.0509  0.0800
44340SOL    HW143334  11.362   2.378  10.855  1.9865  0.1692 -1.1200
44340SOL    HW243335  11.313   2.499  10.779 -1.8348 -0.1393  0.6530
44341SOL     OW43336   4.077   3.696   9.570 -0.0503 -0.1128  0.5174
44341SOL    HW143337   4.086   3.648   9.653  1.2112 -2.1486 -0.6929
44341SOL    HW243338   4.042   3.631   9.509 -1.9472  1.6289 -0.3721
44342SOL     OW43339   0.893   6.437   7.303 -0.1452  0.3041  0.2498
44342SOL    HW143340   0.800   6.416   7.303  0.0159 -0.7233  2.3167
44342SOL    HW243341   0.908   6.480   7.388  0.8053  3.0088 -1.1638
44343SOL     OW43342   2.180   9.328   2.734  0.1889 -0.0175  0.1939
44343SOL    HW143343   2.102   9.273   2.724 -0.4657  1.2089 -2.1313
44343SOL    HW243344   2.163   9.380   2.813 -0.9186 -0.4028  0.2226
44344SOL     OW43345   9.588   2.099   6.112 -0.1552  0.4197  0.5212
44344SOL    HW143346   9.505   2.070   6.076  0.0477 -0.9893  1.1466
44344SOL    HW243347   9.614   2.031   6.174  0.5883  1.7029  1.7002
44345SOL     OW43348  12.868   0.008   6.542  0.2389  0.1561 -0.4180
44345SOL    HW143349  12.920  -0.050   6.486 -0.3722 -0.3772 -0.4498
44345SOL    HW243350  12.784  -0.037   6.550  0.5848 -0.2119  1.6489
44346SOL     OW43351   6.115  11.307   2.472  0.1079 -0.0962 -0.0370
44346SOL    HW143352   6.093  11.399   2.459 -0.7118 -0.6325 -3.1598
44346SOL    HW243353   6.209  11.301   2.451  0.2926  0.0923  0.7083
44347SOL     OW43354   3.972   7.933  11.094 -0.4481 -0.0892 -0.0839
44347SOL    HW143355   4.007   7.870  11.158 -1.2382 -0.5604 -0.1082
44347SOL    HW243356   3.973   8.017  11.139 -0.2940 -0.2860  0.2818
44348SOL     OW43357   3.707  10.069   4.915 -0.2019  0.0844  0.0494
44348SOL    HW143358   3.796  10.074   4.950 -0.4510 -0.8688  0.8820
44348SOL    HW243359   3.704   9.985   4.869 -0.3221  0.6691 -1.0473
44349SOL     OW43360   0.203   7.123  12.346 -0.6691 -0.0313 -0.0282
44349SOL    HW143361   0.224   7.029  12.339 -0.2096  0.0786 -0.1968
44349SOL    HW243362   0.247   7.151  12.426 -1.1589 -0.0497  0.2471
44350SOL     OW43363   6.877  11.131   5.504 -0.4562  0.2459 -0.0784
44350SOL    HW143364   6.827  11.050   5.500 -0.8416  0.4862 -0.2764
44350SOL    HW243365   6.919  11.137   5.418 -1.2992  0.7863 -0.4783
44351SOL     OW43366   3.449   5.783   8.861  0.5269 -0.8665  0.3630
44351SOL    HW143367   3.402   5.852   8.908  0.4410  0.8424 -2.0530
44351SOL    HW243368   3.424   5.795   8.769  2.5486 -2.5032 -0.4745
44352SOL     OW43369   5.678   2.678   7.943  0.0387 -0.9349  0.1332
44352SOL    HW143370   5.721   2.688   7.858 -0.8312 -0.3242 -0.2485
44352SOL    HW243371   5.736   2.620   7.993  1.6794  0.4003 -0.1134
44353SOL     OW43372  10.004  12.478   7.421 -0.2920  0.0605 -0.2318
44353SOL    HW143373   9.991  12.568   7.392  0.7681 -0.1129 -1.3418
44353SOL    HW243374  10.043  12.434   7.345  1.4362 -0.7375  1.0318
44354SOL     OW43375   0.289  11.640   2.092  0.3319  0.3767 -0.2313
44354SOL    HW143376   0.223  11.573   2.078  1.4136 -0.8006  0.0657
44354SOL    HW243377   0.276  11.668   2.183  1.7058 -1.5919  0.6427
44355SOL     OW43378  12.365   9.895   5.454 -0.0559 -0.4992 -0.0423
44355SOL    HW143379  12.326   9.843   5.383 -0.2382 -0.6423  0.1630
44355SOL    HW243380  12.389   9.831   5.520 -1.7035 -0.2058  0.8979
44356SOL     OW43381   5.135   8.638   8.718  0.8514  0.0704  0.2033
44356SOL    HW143382   5.145   8.611   8.627  0.0802 -0.3238  0.2219
44356SOL    HW243383   5.219   8.619   8.759  1.2419  0.3645 -0.4570
44357SOL     OW43384  12.431   6.095   7.739  0.0535  0.4395  0.2190
44357SOL    HW143385  12.408   6.002   7.736  1.6908 -0.1033  1.9917
44357SOL    HW243386  12.525   6.095   7.760 -0.2671  2.4637  1.9405
44358SOL     OW43387   6.929  12.426   5.345 -0.2751  0.7260 -0.4094
44358SOL    HW143388   6.971  12.375   5.415  0.8223  2.4007  0.2418
44358SOL    HW243389   6.988  12.501   5.333 -1.1270  1.1396 -2.2502
44359SOL     OW43390  11.846   4.455   8.425 -0.6007 -0.0348 -0.2897
44359SOL    HW143391  11.832   4.510   8.503  0.8768 -2.0532  1.5290
44359SOL    HW243392  11.873   4.516   8.357 -0.5920  1.6697  1.1728
44360SOL     OW43393   2.121  12.763  12.512 -0.3649 -0.6866  0.0856
44360SOL    HW143394   2.176  12.822  12.460  0.9665  0.0423  2.1752
44360SOL    HW243395   2.051  12.819  12.546 -0.3274 -0.8057  0.3578
44361SOL     OW43396  11.772  11.548   1.918  0.3874  0.2191 -0.0338
44361SOL    HW143397  11.726  11.464   1.925 -2.3986  1.5673 -0.9029
44361SOL    HW243398  11.772  11.583   2.007  0.6799 -0.2527  0.1552
44362SOL     OW43399   1.237   6.945   7.930  0.3644  0.8470  0.2214
44362SOL    HW143400   1.196   6.859   7.926 -0.9318  1.4409  0.4641
44362SOL    HW243401   1.230   6.970   8.023 -0.2759  1.6893 -0.0462
44363SOL     OW43402  11.549  11.270   6.032 -0.1630  0.5744 -0.8451
44363SOL    HW143403  11.494  11.343   6.006  0.0716  1.0336 -0.1049
44363SOL    HW243404  11.489  11.209   6.075 -0.0887  1.1439  0.0995
44364SOL     OW43405  10.710   8.693   2.854 -0.0315  0.0447 -0.1937
44364SOL    HW143406  10.795   8.698   2.809  0.7760  0.5171  1.3042
44364SOL    HW243407  10.666   8.619   2.812  1.2744 -0.4497 -0.7700
44365SOL     OW43408   4.566  12.293   6.291  0.0782 -0.4739  0.4940
44365SOL    HW143409   4.476  12.302   6.321  0.4040  1.3315  1.0763
44365SOL    HW243410   4.559  12.253   6.204 -1.1806 -1.5269  1.0457
44366SOL     OW43411   6.672  11.356   6.472  0.3804  0.3132  0.6446
44366SOL    HW143412   6.687  11.287   6.407 -0.1114  1.0199 -0.2539
44366SOL    HW243413   6.711  11.434   6.433  0.4492  0.6646  1.3998
44367SOL     OW43414   9.032   9.102   9.111  0.0840 -0.1753  0.4896
44367SOL    HW143415   9.012   9.034   9.047  1.2771 -0.1162  0.0436
44367SOL    HW243416   8.948   9.148   9.123 -0.8557 -1.9428  1.1098
44368SOL     OW43417  10.461   6.985   6.244 -0.0201 -1.0997  0.8853
44368SOL    HW143418  10.405   6.911   6.264  1.2342 -2.5841 -0.8119
44368SOL    HW243419  10.469   7.032   6.328 -2.2162 -1.8512  1.5980
44369SOL     OW43420   4.462   8.242   3.472 -0.3490  0.1154  0.7007
44369SOL    HW143421   4.534   8.293   3.435  0.7432 -1.0659  1.1126
44369SOL    HW243422   4.399   8.233   3.400  0.2190  0.6095  0.1275
44370SOL     OW43423  10.946  10.193   2.793 -0.3498 -0.1570  0.7279
44370SOL    HW143424  10.865  10.239   2.772 -0.0104  0.2240  0.2293
44370SOL    HW243425  10.924  10.101   2.784 -0.7415 -0.0568  0.6455
44371SOL     OW43426   3.269   8.408  12.603 -0.2345 -0.0586 -0.4132
44371SOL    HW143427   3.336   8.425  12.669 -1.2829  0.0719  0.6537
44371SOL    HW243428   3.220   8.491  12.597 -2.1117 -0.9916  0.9995
44372SOL     OW43429   2.081  11.422   1.906  0.3376 -0.1735 -0.3310
44372SOL    HW143430   2.093  11.372   1.826 -1.8114 -0.0075 -0.8073
44372SOL    HW243431   2.155  11.397   1.961  0.3543 -2.4259 -1.2794
44373SOL     OW43432  12.672   4.174   8.107 -0.6037  0.2028  0.1914
44373SOL    HW143433  12.661   4.251   8.164 -0.5771  1.8625 -1.9280
44373SOL    HW243434  12.759   4.185   8.068  0.1681 -1.8985  1.1655
44374SOL     OW43435   0.742   8.257   3.254 -0.8685  0.2634 -0.5202
44374SOL    HW143436   0.660   8.303   3.269 -0.7420 -0.0643  1.3951
44374SOL    HW243437   0.804   8.294   3.317  0.4169  0.3479 -1.7612
44375SOL     OW43438  12.052   8.972  11.176 -1.0845 -0.3580  0.3744
44375SOL    HW143439  12.096   9.001  11.096 -1.9938  1.5413  0.5150
44375SOL    HW243440  12.111   8.907  11.214  0.2951  0.1594 -0.8051
44376SOL     OW43441  10.163   4.780   8.191  0.0411 -0.0056  0.8928
44376SOL    HW143442  10.075   4.744   8.205  0.5489 -1.7165 -0.0947
44376SOL    HW243443  10.208   4.714   8.139  1.3527  1.6627 -0.1843
44377SOL     OW43444   0.842   1.248  12.645 -0.0214  0.2819  0.3490
44377SOL    HW143445   0.818   1.339  12.662 -0.5092  0.2972 -0.3672
44377SOL    HW243446   0.931   1.253  12.609 -0.4767  0.6031 -0.8017
44378SOL     OW43447   8.751   0.652   6.381 -0.2477  0.1486 -0.0645
44378SOL    HW143448   8.749   0.737   6.336 -0.5360 -0.3853 -1.1039
44378SOL    HW243449   8.765   0.674   6.473 -0.5109  1.3341 -0.2853
44379SOL     OW43450   2.412   4.359   8.820 -0.0374 -0.4499 -0.0304
44379SOL    HW143451   2.489   4.406   8.854 -0.2594  0.5119 -0.7977
44379SOL    HW243452   2.418   4.371   8.725 -2.1394  1.3276 -0.0155
44380SOL     OW43453  12.538   9.713  12.338 -0.2018  0.3662  0.0098
44380SOL    HW143454  12.575   9.640  12.387 -2.1565 -0.3624  0.5119
44380SOL    HW243455  12.608   9.778  12.334 -0.0326  0.7453  4.2948
44381SOL     OW43456   2.652  10.563   4.876  0.1014 -0.2649 -0.7854
44381SOL    HW143457   2.647  10.579   4.782  0.4736  1.3614 -0.5572
44381SOL    HW243458   2.562  10.574   4.907  0.3780  2.0155 -0.5895
44382SOL     OW43459   0.564   6.495   7.271 -0.2379 -0.0190 -0.3690
44382SOL    HW143460   0.513   6.466   7.195 -0.8413  1.9770 -0.7879
44382SOL    HW243461   0.523   6.451   7.346 -1.4372  0.1223 -0.9123
44383SOL     OW43462   4.055  12.139  11.980  0.8846 -0.2257 -0.6022
44383SOL    HW143463   4.054  12.051  11.942  0.2565  0.2269 -1.7085
44383SOL    HW243464   3.963  12.157  12.001  1.0029  0.1821 -0.4268
44384SOL     OW43465   4.061  11.301   4.611 -0.2279  0.3237  0.1092
44384SOL    HW143466   4.065  11.382   4.561  0.5938  1.1152  1.3715
44384SOL    HW243467   3.970  11.273   4.607 -0.2577  0.5727 -1.4409
44385SOL     OW43468   6.896   3.765   0.513 -0.3812  0.1436 -0.0667
44385SOL    HW143469   6.904   3.679   0.555  1.4137  1.1737  1.8947
44385SOL    HW243470   6.959   3.763   0.441 -2.2018 -1.0018 -1.7550
44386SOL     OW43471   6.965  10.936   1.761 -0.3839  0.0784 -0.0218
44386SOL    HW143472   7.008  11.013   1.798  3.4460 -1.4571 -0.8068
44386SOL    HW243473   6.968  10.950   1.666  0.3819 -0.9602 -0.1739
44387SOL     OW43474   8.161   3.599   8.687 -0.2115 -0.5026 -0.2009
44387SOL    HW143475   8.207   3.577   8.606  0.8299 -1.2599  0.5729
44387SOL    HW243476   8.093   3.532   8.695 -0.0022 -0.7151 -0.1977
44388SOL     OW43477   0.288   8.874   7.864 -0.1041 -0.1420  0.1744
44388SOL    HW143478   0.362   8.817   7.846  0.8213  0.8643  0.6980
44388SOL    HW243479   0.237   8.826   7.931 -1.0379 -1.7224 -1.5584
44389SOL     OW43480   5.092   8.569   9.045  0.3958  0.4413  0.2216
44389SOL    HW143481   5.045   8.492   9.076 -1.4648  1.2114 -0.5730
44389SOL    HW243482   5.079   8.570   8.951  3.2117 -0.0426 -0.2770
44390SOL     OW43483   7.927   1.403  11.342 -0.1615  0.1286 -0.7149
44390SOL    HW143484   7.947   1.326  11.290 -0.7488 -0.2074 -0.4551
44390SOL    HW243485   7.994   1.467  11.318  1.3798 -1.0414  0.3504
44391SOL     OW43486  10.544   9.319   5.195  0.0356 -0.2033  0.6540
44391SOL    HW143487  10.540   9.388   5.129 -0.9364 -0.8371  0.0263
44391SOL    HW243488  10.607   9.255   5.160  2.4070  1.1938  2.1041
44392SOL     OW43489   9.405   2.670  11.812 -0.1129 -0.2251 -0.3810
44392SOL    HW143490   9.449   2.695  11.730 -1.1602 -1.0814 -1.2311
44392SOL    HW243491   9.432   2.580  11.827 -1.2034 -0.6150 -0.6824
44393SOL     OW43492   1.818   4.797   5.758 -0.1537 -0.2378 -0.1340
44393SOL    HW143493   1.765   4.827   5.833 -0.2457  0.4327 -0.4609
44393SOL    HW243494   1.756   4.794   5.685  0.0588 -0.3523 -0.3105
44394SOL     OW43495   6.776  12.911  12.418  0.5655  0.4523  0.1749
44394SOL    HW143496   6.786  13.003  12.395 -0.6453  0.4811 -0.3062
44394SOL    HW243497   6.731  12.872  12.343  0.7339 -0.4423  0.5315
44395SOL     OW43498   3.789   6.578   1.688 -0.2455 -0.5978  0.3704
44395SOL    HW143499   3.767   6.642   1.620 -0.1045 -0.2565  0.6432
44395SOL    HW243500   3.763   6.494   1.651 -0.5889 -0.3648  0.0754
44396SOL     OW43501   4.923   5.621   6.411 -0.2604  0.6496  0.5558
44396SOL    HW143502   4.881   5.636   6.495 -1.6753  1.2974 -0.2341
44396SOL    HW243503   4.906   5.528   6.392 -0.0081  0.5233  0.9277
44397SOL     OW43504   5.122  10.478   8.091  0.3197  0.4765 -0.0765
44397SOL    HW143505   5.113  10.525   8.174  0.1995 -0.4510  0.4565
44397SOL    HW243506   5.035  10.482   8.051  0.6760  1.9780 -0.7643
44398SOL     OW43507   2.957   6.233  11.872 -0.5558  0.2207 -0.4044
44398SOL    HW143508   2.942   6.235  11.778  0.8643  0.3192 -0.6602
44398SOL    HW243509   2.970   6.325  11.896 -1.2965  0.2335 -0.0390
44399SOL     OW43510   8.462  10.854  11.212  0.0898 -0.7969 -0.8965
44399SOL    HW143511   8.484  10.906  11.134  0.5235 -0.5175 -0.5926
44399SOL    HW243512   8.366  10.853  11.213  0.0754 -0.1435 -1.0092
44400SOL     OW43513   1.164  12.645   7.660  0.0414  0.9511  0.0691
44400SOL    HW143514   1.206  12.632   7.575  2.0379 -1.7121  1.3205
44400SOL    HW243515   1.079  12.684   7.638  0.0781 -0.4327 -3.2382
44401SOL     OW43516   9.534   9.074   0.860 -0.3057 -0.3097 -0.3514
44401SOL    HW143517   9.611   9.129   0.858 -0.6642  0.1829 -1.0068
44401SOL    HW243518   9.529   9.042   0.950 -0.7579  1.6888  0.3853
44402SOL     OW43519  11.758   8.239   0.727  0.1471  0.3568  0.2648
44402SOL    HW143520  11.735   8.167   0.785  1.4569 -0.1040  0.2371
44402SOL    HW243521  11.713   8.315   0.764 -2.9765 -0.8004 -0.8828
44403SOL     OW43522   4.629  12.339   7.545  0.3822 -0.6869 -0.2971
44403SOL    HW143523   4.698  12.337   7.479  0.7909  1.1219  0.0122
44403SOL    HW243524   4.658  12.276   7.611  0.6186 -1.5526 -1.1932
44404SOL     OW43525   5.331  12.562   2.908 -0.6471 -0.0067  0.6231
44404SOL    HW143526   5.329  12.627   2.838  0.1518  1.7933  2.2029
44404SOL    HW243527   5.345  12.612   2.988 -1.1734 -2.0253  2.0669
44405SOL     OW43528   5.203  11.050   8.043 -0.1930  0.2422  0.0984
44405SOL    HW143529   5.157  11.006   7.972 -0.7062  0.7643  0.0962
44405SOL    HW243530   5.281  10.997   8.058 -1.6753 -1.7506  1.3401
44406SOL     OW43531  11.976   4.323  12.184 -0.3377  0.1653 -0.7457
44406SOL    HW143532  11.920   4.282  12.250  0.0147  0.0305 -0.5300
44406SOL    HW243533  12.051   4.356  12.233  0.6481 -1.2070 -1.2459
44407SOL     OW43534  10.213   2.968   9.960 -0.1002 -0.7276  0.1865
44407SOL    HW143535  10.174   2.940   9.878 -2.3488  1.4354  0.3917
44407SOL    HW243536  10.265   3.045   9.937  0.0002 -0.6486  0.6577
44408SOL     OW43537   4.363  12.801   7.245  0.7753  0.0457  0.2045
44408SOL    HW143538   4.384  12.783   7.153 -1.3471  1.7185 -0.6989
44408SOL    HW243539   4.440  12.849   7.278  1.7150 -0.8769 -0.5547
44409SOL     OW43540  11.685   3.215   2.981 -0.3249 -0.4919  0.0142
44409SOL    HW143541  11.735   3.266   3.045  0.6283  0.7529 -1.6386
44409SOL    HW243542  11.626   3.161   3.034 -0.2459  1.1512  1.8875
44410SOL     OW43543   9.843   1.985   4.701  0.2262  0.6407  0.5556
44410SOL    HW143544   9.815   1.912   4.645 -0.3405 -0.8484  2.6655
44410SOL    HW243545   9.814   2.064   4.653 -1.2962 -0.5928 -0.6842
44411SOL     OW43546   6.421   1.295  12.161 -0.5166 -0.1824 -0.4664
44411SOL    HW143547   6.363   1.371  12.149  0.8579  0.8480 -0.8285
44411SOL    HW243548   6.508   1.328  12.140  0.3620 -1.4309  1.0241
44412SOL     OW43549   1.423  10.001   8.590  0.3130  0.6991 -0.0196
44412SOL    HW143550   1.332  10.013   8.615  0.6216  2.2316  0.4488
44412SOL    HW243551   1.419   9.960   8.504 -0.8180  0.7375  0.0064
44413SOL     OW43552   6.910  10.636   6.295  0.3571  0.1948  0.0949
44413SOL    HW143553   6.946  10.708   6.243  3.0592 -0.3331  1.0680
44413SOL    HW243554   6.898  10.565   6.232 -1.1763  1.0543 -0.6464
44414SOL     OW43555   0.844  12.732  11.445  0.3977 -0.5549 -0.0336
44414SOL    HW143556   0.798  12.763  11.524 -3.1787 -1.5488 -1.5169
44414SOL    HW243557   0.929  12.775  11.449 -1.4476  3.5436  1.8101
44415SOL     OW43558   1.584   7.222   8.223  0.6564 -0.0539 -0.4761
44415SOL    HW143559   1.509   7.282   8.234  0.8692  0.3111 -0.9797
44415SOL    HW243560   1.548   7.135   8.239  0.6655  0.3019  1.8685
44416SOL     OW43561   9.886   2.909  10.006 -0.1785  0.2213 -0.2867
44416SOL    HW143562   9.913   2.941   9.920  0.3262 -0.7424 -0.4987
44416SOL    HW243563   9.957   2.933  10.065 -0.7868  1.4087  0.0061
44417SOL     OW43564   4.386   0.092   7.484 -0.2813 -0.3083  0.1677
44417SOL    HW143565   4.352   0.164   7.537 -1.7149 -1.5912  1.0707
44417SOL    HW243566   4.333   0.093   7.404  1.9257  1.6706 -1.4025
44418SOL     OW43567   7.619   1.123  10.075  0.0778 -0.3337  0.2121
44418SOL    HW143568   7.548   1.090  10.019 -1.2475  0.5792  1.2815
44418SOL    HW243569   7.583   1.119  10.164  0.5716  2.0013  0.5940
44419SOL     OW43570  12.376   7.978  11.732 -0.4228 -0.2343  0.0657
44419SOL    HW143571  12.347   7.958  11.821  3.3865 -0.9246  1.3449
44419SOL    HW243572  12.387   7.893  11.690 -0.3200 -0.0132 -0.3669
44420SOL     OW43573   0.296   2.487   0.220 -0.2419  0.0754 -0.1178
44420SOL    HW143574   0.217   2.438   0.242 -0.9869  0.4532 -1.8066
44420SOL    HW243575   0.275   2.531   0.138  1.1807  1.4531  0.2076
44421SOL     OW43576   4.792   8.079   7.127  0.5588  0.3479 -0.2364
44421SOL    HW143577   4.747   8.108   7.207  1.0482  0.0609  0.1488
44421SOL    HW243578   4.798   8.158   7.073  0.2121  0.5408  0.0020
44422SOL     OW43579   1.773   2.471   0.110  0.2973  0.2327 -0.2406
44422SOL    HW143580   1.770   2.379   0.136 -0.0226  0.7005  1.5205
44422SOL    HW243581   1.716   2.476   0.033 -0.6947 -0.8158  0.3946
44423SOL     OW43582   3.222   9.155   1.856  0.1984  0.0656  0.0110
44423SOL    HW143583   3.233   9.121   1.945 -0.6463  0.1249  0.1502
44423SOL    HW243584   3.132   9.188   1.854 -0.2393 -1.1344 -1.2627
44424SOL     OW43585   2.430   3.831   0.299 -0.5116  0.2997 -0.0022
44424SOL    HW143586   2.342   3.799   0.317 -0.1798  0.2020  1.5986
44424SOL    HW243587   2.480   3.753   0.277 -0.1825 -0.0631  1.8956
44425SOL     OW43588   0.985   8.276   6.323  0.1112  0.0062 -0.0218
44425SOL    HW143589   0.937   8.196   6.303  1.1885 -0.6322 -0.1416
44425SOL    HW243590   1.049   8.284   6.253  0.2492  0.7803  0.1848
44426SOL     OW43591  10.272   1.770   6.905 -0.3594  0.0247 -0.0308
44426SOL    HW143592  10.268   1.684   6.864  0.3587 -0.1690  0.2925
44426SOL    HW243593  10.226   1.760   6.988 -0.7108  0.0881 -0.2149
44427SOL     OW43594  12.659  12.411  11.501  0.5651 -0.6662 -0.5914
44427SOL    HW143595  12.611  12.482  11.545  2.0316 -0.1719  0.2767
44427SOL    HW243596  12.606  12.391  11.424 -0.1993  0.9626 -0.5427
44428SOL     OW43597   3.091  11.140   1.317 -0.3780  0.0895  0.3624
44428SOL    HW143598   3.082  11.127   1.411  0.3730  0.2228  0.4597
44428SOL    HW243599   3.083  11.053   1.280 -0.8658  0.0609  0.5310
44429SOL     OW43600   1.486   1.671   6.195  0.1901 -0.1934  0.0871
44429SOL    HW143601   1.577   1.656   6.222  0.7271  1.1110 -0.9155
44429SOL    HW243602   1.463   1.593   6.145  0.7542 -0.5310  0.3455
44430SOL     OW43603   6.011   9.123   9.600  0.4199 -0.0675  0.9234
44430SOL    HW143604   5.935   9.144   9.654 -0.8889  0.3579 -0.9791
44430SOL    HW243605   6.067   9.201   9.604 -0.9947  1.0782 -0.4535
44431SOL     OW43606   6.820   5.026   9.024 -0.2182 -0.0481 -0.1982
44431SOL    HW143607   6.729   5.057   9.017 -0.7016 -0.2926  3.3509
44431SOL    HW243608   6.872   5.106   9.029 -0.4671  0.1097 -0.1136
44432SOL     OW43609   1.010  10.963   6.670  0.0302  0.5890 -0.0136
44432SOL    HW143610   1.075  10.912   6.623 -1.0035  1.1585 -2.1998
44432SOL    HW243611   0.990  11.036   6.612 -0.8081  1.7680  1.6593
44433SOL     OW43612   2.499   2.452   9.254 -0.3463 -0.3786 -0.2135
44433SOL    HW143613   2.488   2.504   9.333 -2.5519  0.5772 -1.0618
44433SOL    HW243614   2.579   2.486   9.214  0.1427 -0.0602  1.0066
44434SOL     OW43615  12.419   4.545  12.055 -0.4389  0.3550 -0.0467
44434SOL    HW143616  12.479   4.502  11.994 -1.1229 -0.9157  0.1504
44434SOL    HW243617  12.476   4.581  12.124  0.3557  1.8626 -1.4088
44435SOL     OW43618   1.527   4.571   1.870 -0.4911  0.0837  0.2359
44435SOL    HW143619   1.433   4.587   1.880 -0.4973  0.1527  0.0659
44435SOL    HW243620   1.563   4.654   1.841 -0.5346 -0.2132 -0.7196
44436SOL     OW43621   0.458  12.400   7.311 -0.4875 -0.2546  0.1920
44436SOL    HW143622   0.413  12.418   7.229  1.1789 -0.4475 -0.8197
44436SOL    HW243623   0.433  12.472   7.369 -0.5329  0.7203 -0.9907
44437SOL     OW43624   0.751   6.445   2.798  0.7336 -0.2885 -0.2308
44437SOL    HW143625   0.657   6.437   2.808  0.7580  1.0007  1.3195
44437SOL    HW243626   0.773   6.382   2.729 -1.1576 -1.0471 -0.1942
44438SOL     OW43627  10.083  10.476   7.704  0.2377  0.1087 -0.9023
44438SOL    HW143628  10.121  10.411   7.646  1.0583 -0.8889  0.6647
44438SOL    HW243629   9.992  10.447   7.718 -0.2715  0.8979 -2.3988
44439SOL     OW43630   1.960   4.194   7.483 -0.3319  0.3315  0.5661
44439SOL    HW143631   1.983   4.200   7.575  0.1962  2.0604  0.3483
44439SOL    HW243632   2.040   4.165   7.440  0.2246  2.0864  0.3535
44440SOL     OW43633   5.895  11.747   4.304  0.0665 -0.4486  0.5232
44440SOL    HW143634   5.980  11.701   4.302  0.3579  0.0792  0.5604
44440SOL    HW243635   5.906  11.818   4.241 -0.1004  0.0612  1.0641
44441SOL     OW43636   8.159   6.725  11.776 -0.3057  0.0204  0.3149
44441SOL    HW143637   8.216   6.801  11.783  0.6572 -0.6958  0.6023
44441SOL    HW243638   8.070   6.760  11.784 -0.0751  1.4439 -2.3178
44442SOL     OW43639   6.160   9.671   1.851 -0.3739  0.5012  0.7237
44442SOL    HW143640   6.249   9.703   1.836 -0.2839  0.7282  1.6781
44442SOL    HW243641   6.146   9.683   1.945 -0.5223 -1.8410  1.0432
44443SOL     OW43642   1.735   4.251   8.815 -0.3983  0.7558 -0.5291
44443SOL    HW143643   1.723   4.294   8.900  0.9363 -1.3388  0.7902
44443SOL    HW243644   1.828   4.262   8.795  0.0026 -1.5238 -0.0985
44444SOL     OW43645   1.223   8.757   8.567  0.1190  0.3611  0.4131
44444SOL    HW143646   1.279   8.684   8.542 -1.9633 -0.7084 -1.4783
44444SOL    HW243647   1.206   8.803   8.485 -0.7531  1.4131  1.1546
44445SOL     OW43648   2.398   5.391   2.013 -0.3261 -0.1799  0.2101
44445SOL    HW143649   2.337   5.338   1.961  1.0357 -0.6401 -1.0108
44445SOL    HW243650   2.381   5.481   1.987 -1.9027 -0.0721  1.4731
44446SOL     OW43651   9.332   3.375   8.432  0.0282 -0.2586 -0.3356
44446SOL    HW143652   9.406   3.334   8.389 -0.6756 -0.4056 -1.4470
44446SOL    HW243653   9.341   3.469   8.412  0.4009 -0.1597  0.2885
44447SOL     OW43654   5.963   7.844   3.307 -0.2311  0.2123 -0.1200
44447SOL    HW143655   6.021   7.781   3.264 -0.2784 -1.3406  1.8898
44447SOL    HW243656   5.917   7.888   3.236  0.1850 -1.6970 -1.6551
44448SOL     OW43657   1.268   6.308  11.233 -0.9333 -0.2571 -0.0123
44448SOL    HW143658   1.292   6.395  11.264 -2.1556 -0.4470  1.5683
44448SOL    HW243659   1.349   6.257  11.239 -0.4054  0.5482 -0.1840
44449SOL     OW43660  11.582   8.457   5.170  0.1745 -0.1580 -0.0601
44449SOL    HW143661  11.637   8.512   5.226 -1.5901  1.4691  0.1650
44449SOL    HW243662  11.494   8.491   5.182 -0.7619 -2.0548 -1.1642
44450SOL     OW43663   9.138   2.417   7.936 -0.2977  0.4160 -0.0145
44450SOL    HW143664   9.139   2.448   8.026 -2.1018 -0.3053  0.2884
44450SOL    HW243665   9.084   2.338   7.938  0.1249  0.0428 -1.6264
44451SOL     OW43666  11.523   2.679   2.717 -0.8017  0.2596 -0.4373
44451SOL    HW143667  11.520   2.619   2.643  2.8701 -0.6433 -0.0529
44451SOL    HW243668  11.599   2.735   2.699 -0.6866  0.9786  1.9586
44452SOL     OW43669   6.065   1.973   3.051 -0.0819  0.1576  1.3537
44452SOL    HW143670   6.046   2.004   2.962  1.6566 -0.9293  0.5531
44452SOL    HW243671   5.978   1.961   3.091 -1.0983 -2.2718 -1.2387
44453SOL     OW43672   0.727   0.863   1.348  0.6233 -0.2469  0.1145
44453SOL    HW143673   0.805   0.838   1.399  0.8022  0.7707  0.3488
44453SOL    HW243674   0.762   0.889   1.263  0.5026 -0.1266  0.1023
44454SOL     OW43675   3.845   8.463  10.792 -0.2638  1.1667  0.6123
44454SOL    HW143676   3.769   8.427  10.836  0.5675 -0.8395  0.5237
44454SOL    HW243677   3.811   8.493  10.707 -1.0844  0.9338  0.8477
44455SOL     OW43678   7.695   7.916   7.253  0.2549 -0.1346  0.4509
44455SOL    HW143679   7.683   7.959   7.338 -1.9199  2.1779 -0.9073
44455SOL    HW243680   7.784   7.940   7.227  1.3097 -1.6198  2.3573
44456SOL     OW43681   4.145   2.001   1.320  0.4062 -0.3467  0.4881
44456SOL    HW143682   4.150   2.097   1.325 -2.0379 -0.1068 -0.0003
44456SOL    HW243683   4.182   1.979   1.235  0.9009  0.1880  0.5625
44457SOL     OW43684   1.931   6.216   2.966 -0.6024  0.3564 -0.2764
44457SOL    HW143685   1.862   6.278   2.942 -0.2862  0.1262 -1.8709
44457SOL    HW243686   1.885   6.141   3.002 -1.0042  1.3806  1.5191
44458SOL     OW43687  10.397   8.988  12.738  0.0787  0.5536  0.2130
44458SOL    HW143688  10.358   9.072  12.762  0.1692  0.4859  0.6078
44458SOL    HW243689  10.491   9.002  12.747  0.1059  0.4714  0.0715
44459SOL     OW43690   7.879  10.229  10.768 -0.2095 -0.2179  0.2446
44459SOL    HW143691   7.929  10.296  10.721 -1.6784  0.3066 -0.6308
44459SOL    HW243692   7.857  10.165  10.700 -4.0170  1.4969 -0.3797
44460SOL     OW43693   7.621   8.236   4.818 -0.1904  0.0641  0.6207
44460SOL    HW143694   7.658   8.268   4.900  2.1749 -0.4777 -0.1587
44460SOL    HW243695   7.697   8.218   4.762 -1.6881 -0.0823 -1.5197
44461SOL     OW43696   4.054   6.218  11.979  0.5904  0.0566  0.3825
44461SOL    HW143697   3.963   6.244  11.970  0.5681 -0.0326  0.3474
44461SOL    HW243698   4.056   6.162  12.057  0.5537 -0.2193  0.1862
44462SOL     OW43699   4.056   1.929   8.141 -0.2411 -0.4717  0.7192
44462SOL    HW143700   4.145   1.902   8.121  0.0315  0.6943  0.2560
44462SOL    HW243701   4.065   2.018   8.177 -1.2503 -0.0865  0.0724
44463SOL     OW43702   5.148  10.597   8.332 -0.1118  0.5215 -0.0865
44463SOL    HW143703   5.180  10.546   8.407 -0.0548  0.0526 -0.4281
44463SOL    HW243704   5.144  10.687   8.365 -0.5644  0.2481  0.6334
44464SOL     OW43705   8.485   0.542  11.641  0.2022  0.6376  0.5243
44464SOL    HW143706   8.433   0.467  11.670  0.1184  0.0437 -1.0616
44464SOL    HW243707   8.571   0.528  11.681  0.0678 -0.1002  0.5749
44465SOL     OW43708  12.070   0.819   9.110 -0.1383 -0.5735 -0.4188
44465SOL    HW143709  12.054   0.855   9.197  1.2051 -0.6947 -0.0868
44465SOL    HW243710  11.992   0.768   9.089 -0.9236  0.3146  0.2568
44466SOL     OW43711   1.806   5.669  11.603  0.0636  0.2809  0.3217
44466SOL    HW143712   1.878   5.701  11.549  1.7965 -1.7616  1.2489
44466SOL    HW243713   1.837   5.584  11.635 -2.1086  0.0783  2.0998
44467SOL     OW43714  10.835   2.878   2.390  0.6608 -0.1559 -0.6889
44467SOL    HW143715  10.917   2.842   2.423 -0.4745 -2.0976  0.1933
44467SOL    HW243716  10.823   2.838   2.304  2.2329  2.7642 -2.4304
44468SOL     OW43717   1.410   0.629   2.498 -0.0677  0.0425 -0.3334
44468SOL    HW143718   1.413   0.681   2.417 -0.2097 -1.2595 -1.2098
44468SOL    HW243719   1.499   0.633   2.533 -0.1390  1.0636 -0.2555
44469SOL     OW43720  10.568   1.172   0.731  0.0482 -0.2951  0.3628
44469SOL    HW143721  10.478   1.169   0.763 -0.5693 -0.5760 -1.3157
44469SOL    HW243722  10.565   1.127   0.647  1.7473 -0.2152  0.2322
44470SOL     OW43723   9.686   4.138  12.568 -0.1686  0.6793 -0.0682
44470SOL    HW143724   9.765   4.172  12.609 -0.2791  0.5671  0.2424
44470SOL    HW243725   9.643   4.086  12.637  0.8553 -1.5414 -1.0077
44471SOL     OW43726   9.086  10.910  11.940  0.5270 -0.1880  0.4899
44471SOL    HW143727   9.111  10.973  11.872 -0.6161  0.6013  0.7709
44471SOL    HW243728   8.993  10.926  11.954 -0.1454 -2.8233 -0.3407
44472SOL     OW43729   8.566   7.000   6.020 -0.3497 -0.4727 -0.3811
44472SOL    HW143730   8.531   7.084   6.050  0.2141 -0.0010 -1.0076
44472SOL    HW243731   8.643   7.024   5.968  0.8006 -1.4521  0.7836
44473SOL     OW43732   8.338  11.751  11.426 -0.0011  0.0508 -0.1118
44473SOL    HW143733   8.307  11.751  11.517 -0.6057  1.5205 -0.3015
44473SOL    HW243734   8.428  11.719  11.432 -0.0598  0.0405  0.9977
44474SOL     OW43735  10.524   4.561   0.226 -0.1589 -0.4007 -0.8661
44474SOL    HW143736  10.464   4.530   0.294  1.1263  1.9369  1.5088
44474SOL    HW243737  10.579   4.627   0.270  1.7528  0.1760 -3.8199
44475SOL     OW43738   2.240   5.069  12.810  0.1265  0.3657 -0.5540
44475SOL    HW143739   2.208   4.997  12.864 -1.2253  0.8695 -0.6628
44475SOL    HW243740   2.232   5.146  12.867  0.3542  0.6287 -0.8789
44476SOL     OW43741   7.879   8.153   8.967 -0.3408 -0.2597  0.3406
44476SOL    HW143742   7.931   8.134   8.889 -0.5094 -2.0850  0.6247
44476SOL    HW243743   7.795   8.184   8.932 -0.9088 -2.3480 -0.3009
44477SOL     OW43744  12.519   8.007   4.877 -0.4527  0.4121 -0.7778
44477SOL    HW143745  12.602   8.055   4.874 -0.5956  0.6932 -0.3515
44477SOL    HW243746  12.531   7.934   4.815 -0.6223  1.5895 -2.2546
44478SOL     OW43747   6.393   5.496   1.659  0.2265 -0.1127  0.0185
44478SOL    HW143748   6.316   5.481   1.605 -1.3618 -0.6436  2.3178
44478SOL    HW243749   6.423   5.409   1.685  2.4668 -0.0145 -1.8433
44479SOL     OW43750   4.258   6.047   4.133  0.4358  0.0113 -0.0037
44479SOL    HW143751   4.169   6.043   4.169  0.3300  0.7572 -0.1523
44479SOL    HW243752   4.269   6.139   4.108  1.5460  0.0959  0.7519
44480SOL     OW43753  12.765  10.226   4.874 -0.0304 -0.1139  0.1640
44480SOL    HW143754  12.768  10.206   4.781  0.0368 -0.1391  0.1716
44480SOL    HW243755  12.837  10.288   4.888 -1.3072  1.5044 -0.1820
44481SOL     OW43756   2.167   8.269   4.762  0.1167 -0.0099 -0.2257
44481SOL    HW143757   2.173   8.193   4.820 -0.7117 -0.4674 -0.7307
44481SOL    HW243758   2.240   8.257   4.701  0.9240  0.4150  0.6331
44482SOL     OW43759   4.175   5.106   4.617  0.2967  0.3928 -0.5425
44482SOL    HW143760   4.170   5.148   4.531  2.1180  2.3266  0.2086
44482SOL    HW243761   4.183   5.012   4.598 -0.9951  0.6158 -2.3934
44483SOL     OW43762   3.055  12.467   8.961  0.2577 -0.1071 -0.3042
44483SOL    HW143763   3.084  12.379   8.986 -1.1389 -0.4236  0.3366
44483SOL    HW243764   3.036  12.510   9.044 -0.8811  0.1258 -0.6651
44484SOL     OW43765  11.538   4.801  10.103 -0.2767 -0.5104  0.0321
44484SOL    HW143766  11.484   4.858  10.157  0.6584  1.0698 -0.6213
44484SOL    HW243767  11.566   4.731  10.162  1.1356  1.4236  1.8287
44485SOL     OW43768  10.756  10.914   6.030  0.0210  0.4395 -0.1943
44485SOL    HW143769  10.837  10.915   5.979  0.3679  1.3606  0.3496
44485SOL    HW243770  10.699  10.852   5.984  0.8618  0.1278 -0.8437
44486SOL     OW43771   6.748   0.797   1.260 -0.1547 -0.0819  0.1301
44486SOL    HW143772   6.658   0.766   1.268  0.2502 -1.6918 -0.9400
44486SOL    HW243773   6.756   0.867   1.325 -2.2673  0.3501 -0.0320
44487SOL     OW43774   4.526   2.904   5.309 -0.3929  0.1243  0.1439
44487SOL    HW143775   4.468   2.905   5.385 -0.2879 -0.2923  0.2327
44487SOL    HW243776   4.568   2.990   5.309 -1.3434  0.5963 -0.1794
44488SOL     OW43777   1.960   1.565  12.451 -0.4694  0.0577  0.5789
44488SOL    HW143778   1.929   1.513  12.526 -0.4034 -0.3723  0.3087
44488SOL    HW243779   1.899   1.638  12.446 -0.3332  0.2285  1.2061
44489SOL     OW43780  11.973   1.685   4.193 -0.6278 -0.2772 -0.1109
44489SOL    HW143781  12.009   1.613   4.140  1.2889 -0.2368  1.0358
44489SOL    HW243782  11.994   1.764   4.143  0.7910 -0.2720  0.4343
44490SOL     OW43783   6.686   6.131   4.637 -0.2934  0.2359  0.7839
44490SOL    HW143784   6.699   6.036   4.627  0.2914  0.4027 -0.1724
44490SOL    HW243785   6.753   6.170   4.581 -2.7347  1.2103 -1.6539
44491SOL     OW43786   2.616   1.601   2.349  0.2072  0.5564  0.6633
44491SOL    HW143787   2.598   1.582   2.441 -0.4764  1.2651  0.6800
44491SOL    HW243788   2.530   1.597   2.306  0.6632 -0.9912 -0.1836
44492SOL     OW43789   9.683   1.769   9.507  0.0248 -0.1434  0.1788
44492SOL    HW143790   9.659   1.839   9.568  0.5689 -0.4135  0.7153
44492SOL    HW243791   9.774   1.788   9.485 -0.5056  0.6466 -1.5141
44493SOL     OW43792   1.533   2.296  12.781 -0.1057 -0.3158 -0.0124
44493SOL    HW143793   1.585   2.377  12.779  0.6283 -0.7504  0.8358
44493SOL    HW243794   1.535   2.265  12.690 -1.8439  1.4889 -0.7448
44494SOL     OW43795   4.281   0.054   1.234  0.4405  0.1075  0.0593
44494SOL    HW143796   4.318   0.135   1.198  1.1924 -0.0577  0.4476
44494SOL    HW243797   4.278  -0.006   1.160  0.7580  0.1881 -0.0175
44495SOL     OW43798   3.640   9.944   5.553 -0.5342  0.4329 -0.3117
44495SOL    HW143799   3.631   9.849   5.553  0.1136  0.2982 -2.6438
44495SOL    HW243800   3.732   9.960   5.529 -0.6109  1.6452  0.1235
44496SOL     OW43801  11.727   5.720   6.349  0.0897  0.1306  0.3957
44496SOL    HW143802  11.678   5.709   6.431 -0.8022  0.9109 -0.0015
44496SOL    HW243803  11.680   5.791   6.304  0.9715  0.1649 -0.4851
44497SOL     OW43804   2.350   7.895  10.516  0.2844 -0.3552 -0.0974
44497SOL    HW143805   2.431   7.919  10.469  0.3051  0.5348  0.3792
44497SOL    HW243806   2.285   7.885  10.447  0.1718  1.5109 -0.3179
44498SOL     OW43807  11.183   5.797   2.560 -0.3042 -0.0828  0.3277
44498SOL    HW143808  11.212   5.800   2.469 -0.0291  0.8463  0.4382
44498SOL    HW243809  11.088   5.791   2.555 -0.2634 -0.4828 -0.0152
44499SOL     OW43810   2.389  11.844   8.883  0.6115  0.1430  0.4426
44499SOL    HW143811   2.474  11.872   8.917  0.9023 -0.3926  0.1602
44499SOL    HW243812   2.361  11.776   8.944  1.3352 -1.1369 -0.6026
44500SOL     OW43813   6.537   6.607   8.846 -0.9876 -0.4796 -0.5068
44500SOL    HW143814   6.537   6.612   8.750 -1.9947 -0.2344 -0.5060
44500SOL    HW243815   6.503   6.692   8.874  0.5839 -0.0276  0.1197
44501SOL     OW43816   4.688   8.036   3.720 -0.1076  0.2201  0.3481
44501SOL    HW143817   4.691   8.127   3.690  3.0854  0.0471 -0.2309
44501SOL    HW243818   4.766   8.026   3.774  1.8267 -3.0223 -2.6040
44502SOL     OW43819   6.933   8.628  12.152  0.0652 -0.4303 -0.1431
44502SOL    HW143820   6.851   8.665  12.118 -0.8921 -1.1791  1.2502
44502SOL    HW243821   6.984   8.704  12.179 -0.4378  0.0189 -0.4333
44503SOL     OW43822   5.305  11.106   3.751  0.0633  0.0211 -0.0611
44503SOL    HW143823   5.270  11.151   3.828 -0.7158 -1.2618  0.3636
44503SOL    HW243824   5.260  11.022   3.750  2.0846 -1.1192 -0.3380
44504SOL     OW43825   7.779   5.488   4.212 -0.0962  0.2958  0.0336
44504SOL    HW143826   7.863   5.532   4.223  0.1412 -0.2907  0.6659
44504SOL    HW243827   7.722   5.529   4.277  0.1974 -0.4919  0.7994
44505SOL     OW43828   5.187   5.368   4.773 -0.6771 -0.0510 -0.0421
44505SOL    HW143829   5.249   5.324   4.832 -0.5253  1.0447  0.6304
44505SOL    HW243830   5.236   5.380   4.692  0.9547  3.0848  1.2661
44506SOL     OW43831   6.148   9.340   9.591  0.1242  0.2111  0.6342
44506SOL    HW143832   6.237   9.361   9.563  0.1219 -0.7137 -0.1292
44506SOL    HW243833   6.093   9.405   9.548  0.4533  1.0131  1.4016
44507SOL     OW43834   9.731   9.072   7.635 -0.3772  0.3978 -0.2949
44507SOL    HW143835   9.714   8.994   7.584  0.5354  0.3629 -0.5710
44507SOL    HW243836   9.673   9.065   7.711 -1.4377  0.2437 -1.1030
44508SOL     OW43837   6.749   2.204  12.177  0.4407 -0.0821 -0.4842
44508SOL    HW143838   6.786   2.132  12.127  0.6182  0.4097 -1.0770
44508SOL    HW243839   6.736   2.274  12.113  0.1430  0.3693  0.0510
44509SOL     OW43840  10.652   4.646   7.092 -0.0152  0.8506  0.3316
44509SOL    HW143841  10.646   4.551   7.086 -0.0758  0.9521 -2.4311
44509SOL    HW243842  10.570   4.678   7.054 -0.1085  2.0344  1.4412
44510SOL     OW43843   0.960   3.915   3.907  0.1459  0.4505  0.4359
44510SOL    HW143844   1.003   3.897   3.991  1.3206 -0.6534 -0.3724
44510SOL    HW243845   1.025   3.965   3.857  0.4916 -1.0968 -0.7401
44511SOL     OW43846   4.375   1.475   2.849  0.3568 -0.3159  0.5995
44511SOL    HW143847   4.303   1.531   2.819  0.9878 -0.3331 -1.0462
44511SOL    HW243848   4.334   1.413   2.910 -1.7105 -2.3117 -2.5400
44512SOL     OW43849  10.499   6.700   1.522  0.5487 -0.3796  0.1985
44512SOL    HW143850  10.492   6.607   1.546  2.3303 -0.7806 -0.6383
44512SOL    HW243851  10.465   6.704   1.432 -0.5556  0.0076  0.6187
44513SOL     OW43852  11.936   2.327  12.241 -0.3005 -0.0145  0.6643
44513SOL    HW143853  12.016   2.341  12.191 -1.1289  0.4581 -0.5992
44513SOL    HW243854  11.962   2.270  12.313  1.0431 -0.3444 -0.0483
44514SOL     OW43855   0.699   5.084   3.607  0.1659 -0.4942  0.3504
44514SOL    HW143856   0.620   5.125   3.572 -0.2814  0.6512  2.5045
44514SOL    HW243857   0.692   4.992   3.582 -1.9003 -0.4385  0.5676
44515SOL     OW43858   7.506   9.677   9.383 -0.5859  0.4175 -0.6446
44515SOL    HW143859   7.550   9.633   9.311  0.6094  0.2626  0.1510
44515SOL    HW243860   7.431   9.621   9.403 -0.3374 -0.0845 -1.0864
44516SOL     OW43861  12.125   7.931   1.235  0.2239  0.2804 -0.3804
44516SOL    HW143862  12.124   8.001   1.299 -0.9395 -0.7615  0.8003
44516SOL    HW243863  12.206   7.883   1.252  1.0469  1.3310 -1.2267
44517SOL     OW43864   2.451   0.207  11.972 -0.1356  0.4171  0.1075
44517SOL    HW143865   2.420   0.226  12.060  0.3016 -1.3380  0.6789
44517SOL    HW243866   2.376   0.228  11.916 -0.6073  1.0357  0.9352
44518SOL     OW43867   4.770   9.299   5.176  0.3943 -0.1722  0.7337
44518SOL    HW143868   4.677   9.304   5.156  0.4502  0.0348  0.5217
44518SOL    HW243869   4.777   9.333   5.266 -0.0983 -2.8554  1.8794
44519SOL     OW43870   4.908   8.580   4.230  0.0466  0.2877 -0.3720
44519SOL    HW143871   4.921   8.558   4.323  0.6077  0.6851 -0.3513
44519SOL    HW243872   4.837   8.643   4.230  0.0116  0.2498 -0.2152
44520SOL     OW43873   8.732  10.894   9.851 -1.0651 -0.0472  0.2442
44520SOL    HW143874   8.816  10.930   9.825 -0.7108 -1.0010  0.0166
44520SOL    HW243875   8.679  10.896   9.772 -0.0052 -2.9017 -0.6697
44521SOL     OW43876   2.443   9.178   4.414 -0.2582 -0.3280 -0.8396
44521SOL    HW143877   2.393   9.258   4.430  1.2302  0.7842 -1.5191
44521SOL    HW243878   2.528   9.194   4.455  0.2425 -1.3424 -1.4382
44522SOL     OW43879   9.445   8.060   8.273 -0.2455  0.0686 -0.4899
44522SOL    HW143880   9.494   8.143   8.276 -0.2991  0.1009 -0.5022
44522SOL    HW243881   9.383   8.072   8.202  0.1519 -0.2127 -0.8870
44523SOL     OW43882   6.518   0.084   8.848 -0.2900  0.8754 -0.3249
44523SOL    HW143883   6.542   0.064   8.939  1.0821  0.1309 -0.8308
44523SOL    HW243884   6.592   0.054   8.796 -0.2394  2.9539 -1.5685
44524SOL     OW43885  10.010   8.869   4.467  0.3641  0.5898 -0.0661
44524SOL    HW143886  10.037   8.870   4.375  3.0063 -0.5666  0.5990
44524SOL    HW243887   9.919   8.839   4.464  0.2027  1.0778 -2.3146
44525SOL     OW43888   0.741   3.848   2.326 -0.2795 -0.4988 -0.1118
44525SOL    HW143889   0.662   3.901   2.315  0.9192  1.2958 -0.4862
44525SOL    HW243890   0.780   3.846   2.238  1.4274  0.9150  0.5585
44526SOL     OW43891   3.967   7.810   7.214  0.1247  0.3213  0.2611
44526SOL    HW143892   3.949   7.868   7.140 -0.8002  0.7710  0.8213
44526SOL    HW243893   4.000   7.869   7.283  0.3949 -0.0072  0.4178
44527SOL     OW43894   8.637   0.711  11.127  0.0276 -0.1938 -0.3724
44527SOL    HW143895   8.731   0.705  11.142  0.5402 -3.6847 -3.5938
44527SOL    HW243896   8.601   0.745  11.209  3.9983  1.0387  1.0603
44528SOL     OW43897   3.067   1.815   4.643  0.1509  0.1146  0.1476
44528SOL    HW143898   3.015   1.744   4.681 -0.8826 -0.7237 -2.5706
44528SOL    HW243899   3.158   1.786   4.653  0.0170  0.4009  2.6980
44529SOL     OW43900  11.863   1.049   5.159 -0.5230 -0.4321 -0.0517
44529SOL    HW143901  11.874   1.118   5.225 -0.1569  0.6211 -1.1658
44529SOL    HW243902  11.768   1.042   5.146 -0.5345  0.4344 -0.4913
44530SOL     OW43903   5.890   7.893   9.130  0.0150 -0.0972  0.0490
44530SOL    HW143904   5.801   7.915   9.103 -0.2773 -0.2398  0.8746
44530SOL    HW243905   5.891   7.907   9.225  0.8812 -0.0634  0.0400
44531SOL     OW43906   2.695   8.045   8.364 -0.8692  0.1481 -0.6660
44531SOL    HW143907   2.654   8.034   8.278  0.4938  0.1346 -1.3495
44531SOL    HW243908   2.685   7.960   8.406 -2.7171  0.5388 -0.2520
44532SOL     OW43909   0.683  10.138  10.496  0.1827  0.2131 -0.4536
44532SOL    HW143910   0.774  10.107  10.491  0.2312  0.3336 -0.3238
44532SOL    HW243911   0.638  10.089  10.428  0.7305  1.5159 -1.7909
44533SOL     OW43912   7.513   0.499  10.614  0.3855 -0.0471  0.1828
44533SOL    HW143913   7.533   0.532  10.526 -0.1806 -1.4219 -0.4932
44533SOL    HW243914   7.590   0.448  10.638  0.0119 -0.7441 -0.0762
44534SOL     OW43915  10.528  10.752   3.681  0.0386  0.3093  0.0703
44534SOL    HW143916  10.519  10.708   3.766  1.5419 -0.0830  0.0518
44534SOL    HW243917  10.588  10.824   3.697 -0.0433  0.5254 -0.5596
44535SOL     OW43918   7.508   8.189   9.392 -0.1990 -0.1397 -1.2584
44535SOL    HW143919   7.430   8.207   9.444 -0.1836 -0.8616 -0.9706
44535SOL    HW243920   7.487   8.109   9.344  1.0890 -1.5926  0.4104
44536SOL     OW43921  11.425  10.263   5.627  0.3218 -0.0026  1.0488
44536SOL    HW143922  11.500  10.318   5.649 -0.6975  1.4284  1.0802
44536SOL    HW243923  11.394  10.230   5.711  0.6060 -0.2028  1.0791
44537SOL     OW43924   1.563   0.998   9.862  0.3697 -0.0711  0.7089
44537SOL    HW143925   1.595   1.000   9.772 -0.9044  1.0619  0.2498
44537SOL    HW243926   1.593   0.914   9.896  0.4570 -0.7410 -0.9223
44538SOL     OW43927  11.222   3.104  12.065 -0.5001 -0.3707 -0.4772
44538SOL    HW143928  11.158   3.173  12.050  0.3798  0.4644 -0.4843
44538SOL    HW243929  11.171   3.031  12.100 -1.2004  0.8945  1.2409
44539SOL     OW43930   4.757  12.830   4.912 -0.0591 -0.3004 -0.0174
44539SOL    HW143931   4.665  12.850   4.893 -0.0623 -1.3734 -1.3132
44539SOL    HW243932   4.754  12.781   4.994 -0.4024  1.4784  1.0938
44540SOL     OW43933   7.140   1.752  10.452  0.1052  0.1347 -0.6771
44540SOL    HW143934   7.101   1.804  10.381  1.0316  2.4865  0.4082
44540SOL    HW243935   7.092   1.780  10.530  2.3952  1.4485  0.3486
44541SOL     OW43936  11.530  10.263  11.027  0.7733 -0.2144  0.7779
44541SOL    HW143937  11.561  10.272  11.117  1.4911 -1.1394  0.6423
44541SOL    HW243938  11.444  10.303  11.027  1.2433  0.8288  1.6030
44542SOL     OW43939   8.584   3.781   6.929 -0.4369  0.5133  0.4257
44542SOL    HW143940   8.586   3.733   6.846 -0.5171 -0.0690  0.7538
44542SOL    HW243941   8.562   3.870   6.904 -0.5185  0.3322 -0.1779
44543SOL     OW43942   0.191  10.399   1.785  0.2979 -0.0568  0.2939
44543SOL    HW143943   0.143  10.320   1.808 -0.2588  0.6347  1.6327
44543SOL    HW243944   0.203  10.393   1.690 -3.1891  0.1166 -0.3040
44544SOL     OW43945   8.310   2.190   7.825  0.0585 -0.0219 -0.4144
44544SOL    HW143946   8.233   2.239   7.857 -1.1696 -1.0208 -1.7056
44544SOL    HW243947   8.275   2.135   7.755  1.8474 -1.0463 -0.5416
44545SOL     OW43948  12.868  11.082   4.116  0.1750 -0.4331 -0.4192
44545SOL    HW143949  12.936  11.145   4.090  1.3946 -0.2631  2.7473
44545SOL    HW243950  12.916  11.001   4.132 -0.1646 -0.2203  2.1828
44546SOL     OW43951  12.855   6.168   5.993 -0.2125  0.4100  0.0492
44546SOL    HW143952  12.910   6.166   5.914 -1.5229 -0.8311 -0.8851
44546SOL    HW243953  12.910   6.209   6.059  0.8907  1.6090 -1.5371
44547SOL     OW43954   1.032   8.020   0.960 -0.2659  0.5861  0.2470
44547SOL    HW143955   1.005   8.112   0.956 -0.2309  0.5843 -0.0469
44547SOL    HW243956   1.127   8.024   0.965 -0.2789  0.5729  0.4862
44548SOL     OW43957   2.802   7.486   7.767 -0.2893 -0.4072 -0.0286
44548SOL    HW143958   2.871   7.444   7.817 -0.5270 -2.1022 -1.0575
44548SOL    HW243959   2.827   7.579   7.764 -0.3288 -0.1910  3.2442
44549SOL     OW43960  11.318  12.856   8.521  0.6329 -0.1673  0.4329
44549SOL    HW143961  11.365  12.775   8.503  1.2502 -0.1906  2.0044
44549SOL    HW243962  11.226  12.830   8.527  0.7787 -0.6721  0.5051
44550SOL     OW43963   7.964   6.114   1.901 -0.2547 -0.2078  0.3680
44550SOL    HW143964   7.980   6.207   1.883 -3.3528  0.3594  0.0726
44550SOL    HW243965   8.006   6.067   1.829  0.4827  1.0203 -0.0240
44551SOL     OW43966   0.689   3.818   6.224 -0.0703 -0.3916 -0.3087
44551SOL    HW143967   0.599   3.798   6.200 -0.2102  0.2508 -0.3518
44551SOL    HW243968   0.725   3.735   6.255 -0.9346 -0.4731  0.5214
44552SOL     OW43969   3.839   6.788  10.903  0.6643 -0.3062  0.3776
44552SOL    HW143970   3.901   6.845  10.857  0.2368  0.1756  0.3837
44552SOL    HW243971   3.782   6.849  10.951  1.2074 -0.7905  1.7032
44553SOL     OW43972  12.025   4.100  12.832  0.4697 -0.4434 -0.0031
44553SOL    HW143973  12.009   4.007  12.822  0.7204 -0.5123  0.2330
44553SOL    HW243974  11.998   4.138  12.748  0.4084 -0.7301 -0.1147
44554SOL     OW43975  10.994   4.197   1.369  0.2780 -0.2356  0.2729
44554SOL    HW143976  11.007   4.211   1.275  0.7225 -1.6636  0.1034
44554SOL    HW243977  11.076   4.227   1.409 -0.0761  0.7855  0.2704
44555SOL     OW43978  12.491   8.803   4.897 -0.4778 -1.0540  0.1581
44555SOL    HW143979  12.493   8.714   4.930  0.0607 -1.1823 -0.2024
44555SOL    HW243980  12.398   8.823   4.886 -0.5799 -1.9338 -0.7283
44556SOL     OW43981   7.368   7.285   4.211  0.2225 -0.4743 -0.4362
44556SOL    HW143982   7.320   7.355   4.166 -0.0049 -0.3895 -0.0754
44556SOL    HW243983   7.460   7.309   4.203  0.1167  0.1468  0.1307
44557SOL     OW43984   6.388  10.171   8.136  0.2974  0.0259  0.2727
44557SOL    HW143985   6.352  10.257   8.156  1.0935  1.0063 -2.1037
44557SOL    HW243986   6.472  10.190   8.093 -0.2526 -1.8119 -1.8114
44558SOL     OW43987   9.349   7.320  10.144 -0.2388  0.0429  0.4208
44558SOL    HW143988   9.341   7.228  10.172  3.0255 -0.4511  0.0999
44558SOL    HW243989   9.340   7.317  10.049  2.9742 -0.5574  0.0239
44559SOL     OW43990   4.161   1.096   1.809 -0.1490  0.9401  0.4993
44559SOL    HW143991   4.181   1.080   1.716 -2.6802  1.5998 -0.2350
44559SOL    HW243992   4.233   1.055   1.856  0.0894 -1.4429 -1.6929
44560SOL     OW43993   0.845   2.230   2.293 -0.1939 -0.4586  0.2473
44560SOL    HW143994   0.857   2.324   2.307  2.7357 -0.7703  0.4720
44560SOL    HW243995   0.813   2.197   2.378  0.9318  0.0622  0.8989
44561SOL     OW43996   2.209   9.401   6.740 -0.1526 -0.4006  0.0851
44561SOL    HW143997   2.226   9.495   6.750  1.6988 -0.8730  2.3110
44561SOL    HW243998   2.153   9.379   6.815  1.8444 -1.5291  1.3223
44562SOL     OW43999   8.959   4.272   2.694 -0.3548 -0.0104  0.1056
44562SOL    HW144000   8.959   4.307   2.783 -1.6155  0.7688 -0.1777
44562SOL    HW244001   8.874   4.228   2.686  0.7849 -2.3738  0.1294
44563SOL     OW44002  11.515   3.825  10.006 -0.1721 -0.1243 -0.5088
44563SOL    HW144003  11.437   3.864   9.966 -0.4596 -1.3703 -1.2272
44563SOL    HW244004  11.536   3.883  10.079 -2.2955 -0.2206  0.2579
44564SOL     OW44005   9.260   7.865   4.606  0.0384  0.4800  0.3732
44564SOL    HW144006   9.327   7.907   4.553  0.3678 -1.4154 -0.8010
44564SOL    HW244007   9.251   7.777   4.568 -1.5928 -0.0337  1.8352
44565SOL     OW44008   6.572   0.951   9.390  0.4552 -0.4169  0.1877
44565SOL    HW144009   6.591   0.862   9.422  0.7488  0.8192  4.0481
44565SOL    HW244010   6.655   0.980   9.351  0.9258 -1.2146  0.5537
44566SOL     OW44011   3.483  12.216  10.057  0.0391  0.0320  0.0855
44566SOL    HW144012   3.552  12.154  10.081  1.3214  0.9123 -1.1091
44566SOL    HW244013   3.516  12.259   9.978 -0.2878  2.9512  1.3949
44567SOL     OW44014   2.610   5.605  11.482 -0.3220 -0.4008 -0.1740
44567SOL    HW144015   2.594   5.610  11.388  0.3095 -0.4523 -0.2849
44567SOL    HW244016   2.556   5.675  11.519  0.2088  0.2804 -0.6715
44568SOL     OW44017   6.779   0.661  12.271 -0.3626 -0.2242  0.1581
44568SOL    HW144018   6.844   0.730  12.273  0.7174 -1.2198  1.5536
44568SOL    HW244019   6.700   0.702  12.306  0.1434  0.4054  0.5872
44569SOL     OW44020   6.376   1.433  10.297 -0.4168  0.8505  0.2299
44569SOL    HW144021   6.299   1.471  10.255 -1.5714 -2.5178 -1.0061
44569SOL    HW244022   6.344   1.401  10.381 -0.6325 -1.1359 -0.5531
44570SOL     OW44023   2.267  12.839   0.475 -1.0185  0.0499 -0.4165
44570SOL    HW144024   2.197  12.812   0.535 -0.3517 -1.8834 -0.4549
44570SOL    HW244025   2.331  12.883   0.530 -0.7895 -1.0074  0.2015
44571SOL     OW44026   8.219   8.215   2.490  0.1336  0.3185 -0.1178
44571SOL    HW144027   8.256   8.145   2.542  0.8162  0.9303  0.2354
44571SOL    HW244028   8.124   8.201   2.494  0.2280 -0.1418  0.5617
44572SOL     OW44029   0.736   3.840   0.684 -0.3708  0.4709  0.1554
44572SOL    HW144030   0.791   3.888   0.746 -2.0441  1.3198  1.0432
44572SOL    HW244031   0.671   3.796   0.738 -0.9761  0.0282 -0.9010
44573SOL     OW44032   0.982   2.422   0.512 -0.3941 -0.1501  0.1824
44573SOL    HW144033   1.072   2.392   0.524 -0.4387  0.0190  1.0115
44573SOL    HW244034   0.931   2.341   0.510 -0.3215 -0.2162  0.6891
44574SOL     OW44035   1.599   1.025   7.455  0.2906  0.0568 -0.0395
44574SOL    HW144036   1.652   1.035   7.376  0.0445 -0.6473 -0.3013
44574SOL    HW244037   1.596   1.113   7.493  1.0234  0.2528 -0.4138
44575SOL     OW44038   6.500   2.198   0.106 -0.4889  0.2072 -0.0884
44575SOL    HW144039   6.458   2.177   0.189  0.2995 -1.7632 -0.1391
44575SOL    HW244040   6.593   2.209   0.129 -0.3604  0.2444 -0.6157
44576SOL     OW44041  11.098   7.731   8.707  0.3287  0.1345  0.6156
44576SOL    HW144042  11.156   7.689   8.771 -0.8792 -1.4835  0.7110
44576SOL    HW244043  11.088   7.667   8.637 -0.4323  0.8386  0.0510
44577SOL     OW44044   6.454  11.503   3.206 -0.2123  0.1821 -0.2704
44577SOL    HW144045   6.372  11.529   3.249 -0.6926 -1.6147 -0.0311
44577SOL    HW244046   6.508  11.469   3.277  0.4290  0.6052 -0.5528
44578SOL     OW44047   6.165  10.451   3.782 -0.4183  0.1364  0.2058
44578SOL    HW144048   6.207  10.537   3.787 -0.3994  0.1711 -0.5198
44578SOL    HW244049   6.141  10.431   3.873  1.0435  0.1698  0.6324
44579SOL     OW44050   6.282   6.553   8.419  0.8466  0.1693 -0.5029
44579SOL    HW144051   6.243   6.503   8.491  0.7038 -0.1872 -0.8306
44579SOL    HW244052   6.280   6.494   8.344 -1.6171  1.4417 -1.5781
44580SOL     OW44053   6.570   7.202   2.726  0.1465  0.1409 -0.4037
44580SOL    HW144054   6.594   7.192   2.634 -0.0067  2.1143 -0.6989
44580SOL    HW244055   6.645   7.167   2.774  1.2249  1.1280 -1.3018
44581SOL     OW44056   7.387   8.506   3.388  0.5997  0.1412 -0.8994
44581SOL    HW144057   7.444   8.581   3.372  1.1480 -0.2840 -0.9819
44581SOL    HW244058   7.445   8.430   3.379  0.2677 -0.2516  0.1465
44582SOL     OW44059   6.033   0.167  12.295 -0.1651 -0.1291 -0.4030
44582SOL    HW144060   6.046   0.261  12.279  1.8122 -0.0176  1.4354
44582SOL    HW244061   6.067   0.153  12.383 -0.0280 -2.6772 -0.7856
44583SOL     OW44062   2.995   2.723   0.315  0.3905  0.4758  0.0089
44583SOL    HW144063   3.082   2.702   0.348  0.3086 -0.2493 -0.2088
44583SOL    HW244064   3.004   2.809   0.275  1.2625 -0.0253 -0.9192
44584SOL     OW44065  12.915   5.177   3.243  0.1863 -0.0052 -0.3953
44584SOL    HW144066  12.879   5.091   3.222  0.8828  0.0189 -1.7986
44584SOL    HW244067  12.980   5.193   3.175  0.7624  1.2145  0.4131
44585SOL     OW44068   9.590   4.271   4.093  0.0139  0.1566  0.4011
44585SOL    HW144069   9.569   4.270   4.000 -0.8031 -1.6448  0.5552
44585SOL    HW244070   9.504   4.271   4.137  0.3511 -0.8169  1.1126
44586SOL     OW44071   5.427   2.456   8.762 -0.6317  0.1975  0.0115
44586SOL    HW144072   5.395   2.540   8.729 -1.1873 -0.2123 -0.5348
44586SOL    HW244073   5.347   2.403   8.773 -0.6253  0.6837  3.1917
44587SOL     OW44074   9.207   0.708   2.404 -0.5853 -0.3670 -0.0597
44587SOL    HW144075   9.208   0.788   2.458  0.7243  0.4394 -1.1961
44587SOL    HW244076   9.300   0.684   2.397 -0.8671 -1.2786 -0.7537
44588SOL     OW44077   7.672   0.271  11.052  0.5619 -0.5249  0.7525
44588SOL    HW144078   7.721   0.189  11.041  0.5493 -0.4564  0.1019
44588SOL    HW244079   7.717   0.333  10.995 -1.8151 -1.1398 -2.0410
44589SOL     OW44080   4.713   5.119   8.399 -0.3504  0.7743  0.7529
44589SOL    HW144081   4.684   5.064   8.327  0.5325 -0.3161  1.2022
44589SOL    HW244082   4.739   5.202   8.358  1.7495 -0.3924 -0.4578
44590SOL     OW44083   8.032   6.558   2.108  0.5961 -0.7890 -0.4563
44590SOL    HW144084   8.063   6.469   2.091  0.7281 -0.9810  0.7078
44590SOL    HW244085   8.112   6.610   2.116  0.5374 -0.7080 -0.3948
44591SOL     OW44086   9.917   2.623   4.178  0.5958 -0.1283  0.1208
44591SOL    HW144087   9.985   2.562   4.147 -0.3403 -0.4798 -1.3412
44591SOL    HW244088   9.837   2.593   4.135 -0.8416 -0.6271  2.9349
44592SOL     OW44089   1.530   4.121   5.608  0.4355 -0.2512  0.0593
44592SOL    HW144090   1.442   4.122   5.645 -0.0833 -0.9925 -1.0993
44592SOL    HW244091   1.533   4.040   5.556  1.9803 -0.5157  0.5054
44593SOL     OW44092  11.001  10.371   6.905  0.4628 -0.0381  0.1059
44593SOL    HW144093  10.956  10.454   6.918 -0.0343 -0.5785  2.0321
44593SOL    HW244094  11.035  10.376   6.815 -0.9378  1.5584 -0.3787
44594SOL     OW44095   0.347  12.377   9.766 -0.4747  0.1359  0.3219
44594SOL    HW144096   0.387  12.392   9.851  2.3060  0.6954 -0.9571
44594SOL    HW244097   0.295  12.455   9.749 -2.0317 -0.4855  1.9197
44595SOL     OW44098  12.595   0.373   6.977  0.3087  0.2986 -0.2663
44595SOL    HW144099  12.508   0.338   6.956 -0.2834  1.8471 -0.4969
44595SOL    HW244100  12.636   0.388   6.892  0.9362 -0.6562 -0.1577
44596SOL     OW44101   4.299   0.048  12.871  0.4111 -0.5095  0.4795
44596SOL    HW144102   4.289   0.012  12.959  2.0267 -0.1957  0.8189
44596SOL    HW244103   4.230   0.115  12.865 -0.8090 -1.6922  0.8526
44597SOL     OW44104   7.282   4.252   3.599  0.0079 -0.4069 -0.0083
44597SOL    HW144105   7.247   4.310   3.666  0.3559 -0.0119 -0.1636
44597SOL    HW244106   7.282   4.305   3.519 -1.3114 -1.1791 -0.5477
44598SOL     OW44107  11.638  11.702   8.304  0.1599  0.1401 -0.2027
44598SOL    HW144108  11.647  11.699   8.208  1.5982 -0.2471 -0.0727
44598SOL    HW244109  11.569  11.766   8.319 -1.8685 -1.5610 -1.5892
44599SOL     OW44110   4.086   2.042   5.996 -0.1961 -0.1938  0.1041
44599SOL    HW144111   4.044   1.969   5.950 -0.8074  0.3822 -0.2625
44599SOL    HW244112   4.013   2.095   6.029  0.2138  1.1199 -1.0182
44600SOL     OW44113   3.347  10.775   2.087  0.6807  0.3894  0.0431
44600SOL    HW144114   3.303  10.789   2.171  2.5647  0.2376  1.1250
44600SOL    HW244115   3.437  10.805   2.102  1.8193 -2.1472 -1.0363
44601SOL     OW44116  11.884   4.728  12.634  0.3253  0.1743 -0.1970
44601SOL    HW144117  11.896   4.667  12.561 -1.4456 -1.0540  0.4791
44601SOL    HW244118  11.822   4.793  12.601  0.5969  0.4252 -0.2237
44602SOL     OW44119   4.631  10.724   1.835  0.1732  0.0864  0.2305
44602SOL    HW144120   4.587  10.642   1.816  2.2436 -2.0106  3.4980
44602SOL    HW244121   4.604  10.747   1.924  2.2597  1.0186  0.7023
44603SOL     OW44122  10.375   4.472   5.388 -0.3284 -0.1776  0.1499
44603SOL    HW144123  10.297   4.461   5.333  0.5049  1.9669 -1.6165
44603SOL    HW244124  10.429   4.536   5.341  1.7182 -0.2826  2.1703
44604SOL     OW44125   7.507   6.662   8.609  0.7018 -0.4596  0.5468
44604SOL    HW144126   7.414   6.668   8.586  0.7329 -2.2495 -0.1355
44604SOL    HW244127   7.514   6.712   8.691 -1.0776 -1.2164  1.2048
44605SOL     OW44128   3.198  10.334   0.788 -0.2922  0.0281 -0.2321
44605SOL    HW144129   3.135  10.296   0.726 -0.7426  1.5041 -0.7095
44605SOL    HW244130   3.143  10.377   0.854  0.2107  0.1699  0.0963
44606SOL     OW44131  10.679  11.503  10.141  0.0649 -0.2741 -0.0076
44606SOL    HW144132  10.605  11.470  10.089  0.0129  0.5064 -0.4447
44606SOL    HW244133  10.656  11.480  10.231 -1.1816  0.7530 -0.0228
44607SOL     OW44134   7.416   5.649   7.963 -0.2472 -0.5273 -0.1187
44607SOL    HW144135   7.423   5.703   8.041  1.2244 -1.1564  0.2149
44607SOL    HW244136   7.504   5.647   7.927 -0.2305 -2.6679 -0.1066
44608SOL     OW44137  10.259   7.214   3.738  0.3483 -0.6144 -0.2221
44608SOL    HW144138  10.170   7.180   3.746 -0.4220  0.9749 -1.4019
44608SOL    HW244139  10.293   7.212   3.827 -1.7490  0.9738  0.7030
44609SOL     OW44140  11.553   2.490   4.758 -0.1839  0.2772  0.1690
44609SOL    HW144141  11.648   2.478   4.762 -0.2941 -1.1580 -0.7359
44609SOL    HW244142  11.529   2.460   4.670 -1.6702 -1.0244  0.9661
44610SOL     OW44143   4.209  12.940   6.157 -0.0615  0.2750  0.3920
44610SOL    HW144144   4.271  12.878   6.118 -0.9306 -0.9068  0.8296
44610SOL    HW244145   4.125  12.920   6.114 -0.2549  1.5079  0.1695
44611SOL     OW44146   3.510  10.918   6.297  0.2892  0.0727 -0.8751
44611SOL    HW144147   3.487  10.913   6.204  1.1165  1.8562 -1.2123
44611SOL    HW244148   3.606  10.923   6.297  0.2558  0.9208  0.0093
44612SOL     OW44149   5.817   0.867   3.544  0.0383  0.2217 -0.1814
44612SOL    HW144150   5.798   0.831   3.631  1.3488 -0.8352 -0.2958
44612SOL    HW244151   5.912   0.872   3.540 -0.0174  3.4537 -0.3345
44613SOL     OW44152   1.082   6.394   1.045 -0.2805  0.2761  0.5254
44613SOL    HW144153   1.010   6.335   1.067  0.6315 -1.6675 -1.3243
44613SOL    HW244154   1.039   6.472   1.008 -1.5270 -1.4146 -1.8741
44614SOL     OW44155   1.778   8.238   9.223  0.5991  0.5544  0.2181
44614SOL    HW144156   1.752   8.256   9.132  0.2995  0.0902  0.2108
44614SOL    HW244157   1.713   8.285   9.275 -1.2917 -1.8601  0.2185
44615SOL     OW44158   2.354   2.976  11.900 -0.2753  0.0335 -0.1664
44615SOL    HW144159   2.351   2.962  11.995 -0.7873  0.3344 -0.1323
44615SOL    HW244160   2.360   3.071  11.890  2.7669 -0.1110 -0.3974
44616SOL     OW44161   0.213  12.071   5.301 -0.7947 -0.5818 -0.3594
44616SOL    HW144162   0.302  12.034   5.301 -0.2939  0.5590 -1.2695
44616SOL    HW244163   0.225  12.162   5.274 -2.0941  0.0095  0.9321
44617SOL     OW44164   9.185   5.748   1.617 -0.1096 -0.6919  0.0385
44617SOL    HW144165   9.248   5.682   1.586  1.8820  1.1479 -0.0394
44617SOL    HW244166   9.221   5.778   1.701 -0.0073  1.4880 -0.7339
44618SOL     OW44167   3.278  11.862  12.501  0.6515 -0.6341  0.1063
44618SOL    HW144168   3.345  11.860  12.570 -0.7031  0.9580  1.5608
44618SOL    HW244169   3.205  11.910  12.540 -0.4697 -0.3039 -2.2270
44619SOL     OW44170  12.847   6.383   3.159 -0.2691 -0.2700 -0.4045
44619SOL    HW144171  12.940   6.394   3.141 -0.3947  1.1047 -0.2811
44619SOL    HW244172  12.830   6.291   3.137  1.5962 -1.2376  1.7293
44620SOL     OW44173   2.750   5.439   2.677  0.0865 -0.0357 -0.0059
44620SOL    HW144174   2.740   5.414   2.586  1.7013  0.5303 -0.3663
44620SOL    HW244175   2.693   5.516   2.687 -0.5560 -0.4595 -0.3584
44621SOL     OW44176  12.630   4.043   4.426  0.5974 -0.3466 -0.5519
44621SOL    HW144177  12.654   4.103   4.355  2.0009 -0.9698 -0.6343
44621SOL    HW244178  12.709   4.035   4.479  0.0744 -1.2225  0.1343
44622SOL     OW44179   6.068  12.171   6.233  0.7616  0.7429  0.1099
44622SOL    HW144180   5.994  12.145   6.289  1.8663 -2.1714  0.3910
44622SOL    HW244181   6.037  12.154   6.144  0.1199  2.3177  0.0104
44623SOL     OW44182   4.348  10.383   7.094 -0.5808 -0.2301 -0.1975
44623SOL    HW144183   4.432  10.428   7.102 -0.8065  0.0394  0.8161
44623SOL    HW244184   4.370  10.290   7.095 -0.2894 -0.1598 -0.0860
44624SOL     OW44185   1.419   5.990   9.012 -0.4069  0.3283 -0.5851
44624SOL    HW144186   1.354   5.994   9.081  0.5697  0.2299  0.3615
44624SOL    HW244187   1.448   6.081   9.001  0.3504  0.1698  0.0358
44625SOL     OW44188  11.790   5.527   8.278 -0.4458  0.2469 -0.2130
44625SOL    HW144189  11.834   5.600   8.322 -0.6262  0.7707 -0.8871
44625SOL    HW244190  11.714   5.567   8.235 -0.4266 -0.3035 -0.7700
44626SOL     OW44191   0.913  11.478  12.573 -0.0057 -0.0996 -0.2983
44626SOL    HW144192   0.987  11.438  12.528 -0.0157 -0.0875 -0.3253
44626SOL    HW244193   0.846  11.409  12.572  0.3362 -0.4598  0.5914
44627SOL     OW44194   6.795   7.219  10.285 -0.2070 -0.3151 -0.6766
44627SOL    HW144195   6.754   7.150  10.337  1.0362  0.0897  0.9261
44627SOL    HW244196   6.726   7.283  10.271 -0.6570 -0.5722  0.2613
44628SOL     OW44197   2.646   4.291   4.896 -0.1430 -0.2193  0.2915
44628SOL    HW144198   2.656   4.304   4.991  0.7503 -0.2955  0.2161
44628SOL    HW244199   2.637   4.380   4.861  0.7953 -0.0976  0.3243
44629SOL     OW44200   6.160   7.698   1.419 -0.1679 -0.3577  0.0608
44629SOL    HW144201   6.248   7.683   1.384  0.3622  0.9518  0.7258
44629SOL    HW244202   6.155   7.640   1.495 -0.0259 -0.7185 -0.2020
44630SOL     OW44203   0.454   4.603   5.722 -0.1286  0.4053  0.5813
44630SOL    HW144204   0.500   4.602   5.806  0.0580  0.6179  0.4818
44630SOL    HW244205   0.519   4.569   5.660  0.1861  1.4841  0.2928
44631SOL     OW44206   2.948   9.193   2.862 -0.1683  0.5608  0.1949
44631SOL    HW144207   2.955   9.233   2.776 -1.3636  1.8676  0.6636
44631SOL    HW244208   2.952   9.099   2.846  1.9235  0.8105 -1.0274
44632SOL     OW44209   2.146   7.544   4.206 -0.3041  0.3865  0.0251
44632SOL    HW144210   2.196   7.614   4.248  1.6437 -1.0943  0.2862
44632SOL    HW244211   2.079   7.590   4.155 -1.0963  2.3412  2.5780
44633SOL     OW44212   0.369   8.743   2.105  0.0681 -0.0745 -0.2568
44633SOL    HW144213   0.360   8.818   2.164  0.2699  0.7783 -1.2796
44633SOL    HW244214   0.349   8.667   2.160  0.5400  0.6634  0.9780
44634SOL     OW44215  12.480   5.843   4.530  0.3160  0.3009 -0.1451
44634SOL    HW144216  12.490   5.900   4.606  0.5329  0.4796 -0.3038
44634SOL    HW244217  12.465   5.756   4.567  1.3861  0.2106  0.1244
44635SOL     OW44218   5.809   1.302   8.400  0.4083 -0.4363 -0.0876
44635SOL    HW144219   5.773   1.342   8.479  0.0073 -0.2473 -0.3607
44635SOL    HW244220   5.870   1.236   8.432 -0.4498 -1.0220  0.4089
44636SOL     OW44221   1.691   0.492   4.803  0.3497 -0.1175  0.0239
44636SOL    HW144222   1.718   0.463   4.890  0.1942  0.5515  0.3064
44636SOL    HW244223   1.696   0.588   4.807  1.2202 -0.0993 -0.9998
44637SOL     OW44224   9.639   0.733   4.816 -0.3275  0.2441  0.3355
44637SOL    HW144225   9.703   0.663   4.828 -0.2371  0.3315  0.3583
44637SOL    HW244226   9.572   0.716   4.882 -1.6835 -1.3902 -1.3146
44638SOL     OW44227   1.595   2.268  11.985 -0.0541  0.4221 -0.4500
44638SOL    HW144228   1.523   2.329  11.969 -1.3939 -0.3125  2.1807
44638SOL    HW244229   1.582   2.198  11.921 -0.7343  1.0720 -1.0384
44639SOL     OW44230   8.304   4.956   2.581  0.2569 -0.0181  0.6363
44639SOL    HW144231   8.376   4.924   2.526 -0.4972  0.4359 -0.6523
44639SOL    HW244232   8.347   5.015   2.643  0.8603  1.6470 -1.2277
44640SOL     OW44233  12.117  10.419   0.527  0.1207 -0.0004 -0.3593
44640SOL    HW144234  12.041  10.390   0.577  1.1422 -2.3819 -0.0483
44640SOL    HW244235  12.103  10.513   0.514 -1.3421  0.2607  2.3446
44641SOL     OW44236   6.706   0.020  11.274  0.1145 -0.1714 -0.0319
44641SOL    HW144237   6.631   0.080  11.262  1.1670  1.2198  0.0295
44641SOL    HW244238   6.779   0.078  11.298  0.9317 -1.6300  1.1240
44642SOL     OW44239   7.464   1.966   2.770 -0.2575  0.0900 -0.0415
44642SOL    HW144240   7.482   1.981   2.678  0.6717  0.8209  0.2398
44642SOL    HW244241   7.453   1.871   2.778 -0.2780  0.0190 -0.8897
44643SOL     OW44242   1.105   6.953   0.968 -0.0266  0.1877  0.0019
44643SOL    HW144243   1.016   6.959   1.001 -0.3113 -1.1133 -0.4954
44643SOL    HW244244   1.140   6.873   1.006 -0.2678 -1.2227 -2.5483
44644SOL     OW44245   9.634   0.357   1.307  0.1765 -0.3201 -0.0321
44644SOL    HW144246   9.573   0.422   1.343 -1.1867 -0.6986 -1.5305
44644SOL    HW244247   9.578   0.295   1.260  1.6598 -1.1875 -0.7385
44645SOL     OW44248   7.762   7.890   4.664 -0.5013 -0.4553 -0.2379
44645SOL    HW144249   7.716   7.824   4.613 -1.5933 -2.6743  3.2874
44645SOL    HW244250   7.835   7.843   4.704 -0.6535  0.7175  1.5266
44646SOL     OW44251  10.184  11.353   9.579 -0.3302 -0.1427 -0.7440
44646SOL    HW144252  10.210  11.261   9.583  0.5164  0.0555 -1.3664
44646SOL    HW244253  10.101  11.352   9.531  0.0740 -0.5197 -1.4556
44647SOL     OW44254  11.647   7.707   1.561 -0.0067  0.1348 -0.3540
44647SOL    HW144255  11.593   7.759   1.502 -0.4737 -0.2333 -0.2587
44647SOL    HW244256  11.647   7.619   1.523 -0.8950 -0.2829  0.5444
44648SOL     OW44257  12.484   7.173  12.614 -0.3938 -0.4875  0.7029
44648SOL    HW144258  12.546   7.201  12.547  0.3209 -0.8582  1.1934
44648SOL    HW244259  12.539   7.143  12.687 -1.1503 -0.2547  1.3888
44649SOL     OW44260   1.648   3.112   7.585 -0.0220  0.2140  0.2569
44649SOL    HW144261   1.567   3.082   7.626  0.0747  2.0710  1.9693
44649SOL    HW244262   1.716   3.095   7.650  1.0884 -1.5750 -1.2662
44650SOL     OW44263  12.845   1.017   0.104 -0.2728 -0.0365  0.1025
44650SOL    HW144264  12.793   1.044   0.180  0.2594  0.8295  0.1780
44650SOL    HW244265  12.931   1.057   0.119 -0.0814 -0.0877 -0.8192
44651SOL     OW44266   2.818   9.822   7.531  0.1497  0.1513 -0.2509
44651SOL    HW144267   2.861   9.888   7.585 -1.2374  0.1999  0.8561
44651SOL    HW244268   2.798   9.751   7.592 -0.8423 -0.0862 -0.8317
44652SOL     OW44269   6.810   6.730   9.764 -0.3098 -0.2061  0.5317
44652SOL    HW144270   6.827   6.763   9.853 -1.3041  0.4594  0.4856
44652SOL    HW244271   6.814   6.635   9.773 -2.9949 -0.2872  1.8754
44653SOL     OW44272  12.861  12.224   8.379  0.4418  0.4207  0.5182
44653SOL    HW144273  12.790  12.178   8.424 -0.2544  0.9571 -0.0180
44653SOL    HW244274  12.842  12.317   8.392 -0.5944  0.6576 -2.0314
44654SOL     OW44275   0.380   9.349  11.512 -0.6645  0.3732 -0.2879
44654SOL    HW144276   0.298   9.395  11.529 -0.8508 -0.9308  2.9073
44654SOL    HW244277   0.355   9.257  11.507  0.3575  0.1354 -1.4760
44655SOL     OW44278   9.593  11.319   9.332  0.0238 -0.2573 -0.1180
44655SOL    HW144279   9.537  11.392   9.362  0.7941  0.0465  0.6165
44655SOL    HW244280   9.584  11.253   9.401  0.8268 -0.0671  0.1782
44656SOL     OW44281   8.436  11.527   7.132  0.6218 -0.1573 -0.1640
44656SOL    HW144282   8.408  11.612   7.097  2.2839  0.0202 -1.1951
44656SOL    HW244283   8.405  11.527   7.223 -1.1979  0.6541 -0.7505
44657SOL     OW44284  11.838   8.957   4.637 -0.4760  0.2918  0.4312
44657SOL    HW144285  11.875   8.972   4.549 -0.0266 -1.0215  0.3870
44657SOL    HW244286  11.762   9.016   4.640 -1.8713 -1.2394 -1.7053
44658SOL     OW44287   8.779  11.545   8.392 -0.1887  0.2986 -0.1061
44658SOL    HW144288   8.813  11.548   8.481  0.3177  2.2597 -0.3270
44658SOL    HW244289   8.719  11.619   8.387 -1.8398 -1.0146 -0.7949
44659SOL     OW44290   4.591   5.164   2.522  0.2121  0.3709  0.2018
44659SOL    HW144291   4.671   5.214   2.536  0.1644  0.6493 -0.4543
44659SOL    HW244292   4.573   5.123   2.606  1.2348  0.0140  0.2600
44660SOL     OW44293   7.517   2.161   6.803 -0.0212 -0.4906 -0.2462
44660SOL    HW144294   7.428   2.179   6.771 -0.2102 -0.2723  0.3786
44660SOL    HW244295   7.561   2.120   6.729 -1.1065 -2.0596 -0.0846
44661SOL     OW44296   5.018  12.002   7.822  0.1198 -0.2393  0.6402
44661SOL    HW144297   4.942  11.950   7.796 -0.2700  0.4740  0.3326
44661SOL    HW244298   5.070  11.943   7.877 -0.3614 -0.9164  0.3753
44662SOL     OW44299  12.770  12.476   3.348  0.3395  0.0442  0.1209
44662SOL    HW144300  12.770  12.464   3.443  1.0029 -0.0393  0.1200
44662SOL    HW244301  12.745  12.568   3.336 -1.5707 -0.4155  0.2777
44663SOL     OW44302  11.254  10.102   1.286 -0.6023  0.3375 -0.2634
44663SOL    HW144303  11.170  10.071   1.252 -0.5640  0.4264 -0.4402
44663SOL    HW244304  11.232  10.153   1.364 -0.5214 -2.1379  1.5046
44664SOL     OW44305   1.815   7.111   8.116 -0.0763  0.4070 -0.3551
44664SOL    HW144306   1.791   7.022   8.142  1.3991  0.6878  2.2993
44664SOL    HW244307   1.738   7.164   8.139  0.0162  0.1711  0.5317
44665SOL     OW44308  10.735   5.143   4.267 -0.7845 -0.3709  0.0858
44665SOL    HW144309  10.711   5.105   4.182 -2.0510 -1.3014  0.8242
44665SOL    HW244310  10.673   5.214   4.280  2.0647  2.7042 -1.6543
44666SOL     OW44311   3.051  10.369  11.980 -0.3815 -0.2307  0.2242
44666SOL    HW144312   3.010  10.382  12.066 -0.5261 -0.5687  0.2082
44666SOL    HW244313   3.002  10.297  11.941 -2.0434  1.5926 -1.2344
44667SOL     OW44314   1.359   2.441   1.231 -0.2089 -0.5069 -0.0011
44667SOL    HW144315   1.391   2.405   1.314  0.4204  1.0762  0.4810
44667SOL    HW244316   1.438   2.459   1.180 -0.4163  1.2062  0.2312
44668SOL     OW44317   7.153  10.136   6.613  0.4801  0.0286 -0.7023
44668SOL    HW144318   7.196  10.206   6.662  1.8605  0.8189 -2.9120
44668SOL    HW244319   7.122  10.179   6.533 -1.2063 -1.3303 -0.8311
44669SOL     OW44320   3.787   7.235  12.535  0.0055 -0.1054  0.5994
44669SOL    HW144321   3.786   7.153  12.585  0.1975 -0.3258  0.2431
44669SOL    HW244322   3.764   7.302  12.599  0.0434 -0.4131  0.9386
44670SOL     OW44323   9.631   7.242   4.460  0.7384 -0.1652  0.8091
44670SOL    HW144324   9.592   7.329   4.464  0.1067 -0.4533  0.9084
44670SOL    HW244325   9.717   7.256   4.419 -0.1551  0.2193 -1.0157
44671SOL     OW44326   9.429   8.419  10.079 -0.1441 -0.4037  0.2191
44671SOL    HW144327   9.414   8.377   9.994  0.4933 -1.2290  0.4973
44671SOL    HW244328   9.477   8.499  10.059  1.8250 -1.5932 -0.0775
44672SOL     OW44329  10.060   3.633   7.454  0.1435  0.1835 -0.5402
44672SOL    HW144330   9.990   3.691   7.484  1.3427  1.4873 -0.1247
44672SOL    HW244331  10.059   3.643   7.358 -1.6967 -1.6254 -0.7896
44673SOL     OW44332   8.879   1.949   9.999  0.1922 -0.0842  0.0125
44673SOL    HW144333   8.796   1.916   9.964  0.5217 -0.6296 -0.2574
44673SOL    HW244334   8.881   2.041   9.973 -1.0821  0.3785  1.4019
44674SOL     OW44335   2.169   9.372   8.475  0.2918 -0.3991 -0.1345
44674SOL    HW144336   2.185   9.294   8.423 -2.3045 -0.0991 -1.5308
44674SOL    HW244337   2.234   9.367   8.546  0.3225 -3.6978 -0.2346
44675SOL     OW44338   3.613   8.618  12.440  0.0323  0.0321 -0.0712
44675SOL    HW144339   3.538   8.668  12.473  0.3167 -0.5049  1.4793
44675SOL    HW244340   3.679   8.685  12.423 -0.6513  0.4728 -1.0911
44676SOL     OW44341   3.055   5.901   8.475  0.2493 -0.1428 -0.2166
44676SOL    HW144342   3.087   5.811   8.467  3.1311  0.7742 -0.2843
44676SOL    HW244343   3.060   5.920   8.568 -0.1731  0.0164 -0.2248
44677SOL     OW44344  11.231   2.336  12.576  0.0920  0.3391  0.0221
44677SOL    HW144345  11.190   2.254  12.605 -0.2705  0.3772 -0.3628
44677SOL    HW244346  11.303   2.307  12.520  0.3074  0.2759  0.3313
44678SOL     OW44347  10.883   0.350   7.258  0.0597 -0.0682 -0.2508
44678SOL    HW144348  10.915   0.388   7.176  2.1183  2.9103  1.7660
44678SOL    HW244349  10.946   0.281   7.278 -0.1937 -0.5042 -0.9107
44679SOL     OW44350   6.443   7.879   3.028  0.1267  0.0902  0.1323
44679SOL    HW144351   6.440   7.839   3.115  1.5516 -0.8308 -0.2059
44679SOL    HW244352   6.505   7.951   3.038 -0.2585  0.4388  0.0410
44680SOL     OW44353   1.887  12.504   2.199  0.7165  0.1663  0.1684
44680SOL    HW144354   1.866  12.448   2.273 -0.2745  0.4266  0.0983
44680SOL    HW244355   1.806  12.551   2.180  0.8844 -0.0565 -1.2294
44681SOL     OW44356   9.300   6.568   4.562 -0.0466  0.1734  0.1228
44681SOL    HW144357   9.300   6.479   4.596  0.0598 -0.8797 -2.4485
44681SOL    HW244358   9.241   6.565   4.486 -1.0491  2.6245  0.7015
44682SOL     OW44359   6.884   7.382   5.268  0.4313 -0.6239 -0.0796
44682SOL    HW144360   6.834   7.362   5.189  1.1440  1.1659 -1.0592
44682SOL    HW244361   6.887   7.300   5.317 -3.4243 -0.8559  0.0747
44683SOL     OW44362   0.465   7.040  10.147 -0.7131 -0.7011 -0.4953
44683SOL    HW144363   0.489   6.982  10.220 -0.4072  0.6022  0.4921
44683SOL    HW244364   0.377   7.013  10.123 -0.7722 -1.2525  0.2996
44684SOL     OW44365   9.095  12.454   1.761  0.5552  0.4426 -0.3034
44684SOL    HW144366   9.037  12.504   1.703  1.5105  0.9477 -0.8360
44684SOL    HW244367   9.132  12.519   1.820 -0.3457 -0.0548  0.8514
44685SOL     OW44368  12.877  10.448   1.868  0.0702  0.0158 -0.1146
44685SOL    HW144369  12.965  10.483   1.859  0.3997 -0.7591  0.0263
44685SOL    HW244370  12.884  10.382   1.937 -0.4435 -0.6035 -0.6355
44686SOL     OW44371   4.151   9.459   0.481 -0.7535 -0.2719 -0.6881
44686SOL    HW144372   4.229   9.437   0.429  0.2337 -0.4688  0.8223
44686SOL    HW244373   4.092   9.384   0.468 -0.3203 -0.5413 -1.1361
44687SOL     OW44374  11.724   1.315  12.674  0.0414  0.4275 -0.1209
44687SOL    HW144375  11.689   1.259  12.743  0.7175  1.2385  0.9119
44687SOL    HW244376  11.785   1.258  12.626  0.6976  0.2545  0.8900
44688SOL     OW44377   1.827   9.885   1.403 -0.4643 -0.2389  0.0485
44688SOL    HW144378   1.781   9.889   1.320 -0.0946 -0.4059 -0.1664
44688SOL    HW244379   1.823   9.974   1.437 -0.3399 -0.0998 -0.2992
44689SOL     OW44380  11.377   2.862  11.458  0.0787  0.4812 -0.7590
44689SOL    HW144381  11.445   2.830  11.518 -0.3352  1.4962  0.3092
44689SOL    HW244382  11.376   2.800  11.386 -0.2558 -1.5248  0.8876
44690SOL     OW44383  10.577   3.713   8.986 -0.4468  0.0851 -0.0344
44690SOL    HW144384  10.570   3.650   9.058 -0.2156  0.9081  0.7263
44690SOL    HW244385  10.589   3.659   8.908  1.6078 -0.7887  0.8124
44691SOL     OW44386   4.619   0.313   2.902 -0.2082  0.2457  0.2152
44691SOL    HW144387   4.690   0.269   2.949 -0.5844 -0.5864  0.0247
44691SOL    HW244388   4.543   0.258   2.918 -0.4832  0.3102 -0.8236
44692SOL     OW44389   2.119   2.756   5.119 -0.1640  0.1299  0.5131
44692SOL    HW144390   2.175   2.784   5.047 -1.2272  3.0092  0.6914
44692SOL    HW244391   2.173   2.766   5.197 -0.4922  1.7738  0.5625
44693SOL     OW44392   6.613   5.002   5.806 -0.2290 -0.0810  0.6048
44693SOL    HW144393   6.520   4.977   5.807 -1.0086  2.5175 -0.0433
44693SOL    HW244394   6.649   4.964   5.886 -1.5293 -2.1575  0.2819
44694SOL     OW44395   8.966   3.031   6.801  0.4110  0.3150 -0.0084
44694SOL    HW144396   8.872   3.040   6.813  0.0659  1.2183 -2.7614
44694SOL    HW244397   8.995   2.978   6.876 -2.0551  0.9990  1.5368
44695SOL     OW44398   2.735   4.914  12.219 -0.8631 -0.9971  0.2819
44695SOL    HW144399   2.780   4.988  12.178  1.2495 -1.8009  1.0043
44695SOL    HW244400   2.664   4.954  12.269 -1.1456  0.3165 -1.0933
44696SOL     OW44401   0.767   8.314   7.984  0.2804 -0.3984  0.0653
44696SOL    HW144402   0.787   8.404   7.958  0.4523 -0.7786 -1.2189
44696SOL    HW244403   0.850   8.280   8.017  0.4496 -0.3595 -0.3110
44697SOL     OW44404  12.419   1.567  11.129 -0.3629  0.1405 -0.2352
44697SOL    HW144405  12.389   1.580  11.219  1.3046 -1.2389  0.6002
44697SOL    HW244406  12.452   1.653  11.102 -1.6932  0.7820  0.1211
44698SOL     OW44407   7.424  10.813   9.143 -0.0801  0.2154  0.1500
44698SOL    HW144408   7.501  10.835   9.195  0.8523 -1.3503 -0.4853
44698SOL    HW244409   7.460  10.780   9.061 -1.4689  0.4351 -0.5680
44699SOL     OW44410  10.236   4.305   3.319 -0.4244  0.5090  0.0696
44699SOL    HW144411  10.305   4.267   3.373  1.7920  3.1730 -0.6764
44699SOL    HW244412  10.249   4.267   3.233  1.3441  2.2481 -0.5044
44700SOL     OW44413   6.949  11.260   7.548  0.4583 -0.1318 -0.5792
44700SOL    HW144414   6.993  11.258   7.633  1.2990 -0.3183 -1.0053
44700SOL    HW244415   6.870  11.312   7.563 -0.2258 -1.4554  0.6831
44701SOL     OW44416  12.497   5.997   2.031  0.3941  0.6992 -0.0692
44701SOL    HW144417  12.573   6.045   2.000  1.0056  0.7019  1.3757
44701SOL    HW244418  12.455   6.056   2.094 -0.0678  0.1963  0.1017
44702SOL     OW44419   5.118  12.920   3.641  0.1514 -0.3345 -0.1458
44702SOL    HW144420   5.088  13.010   3.630  1.5096 -0.1000 -2.6680
44702SOL    HW244421   5.204  12.927   3.681  0.9171 -0.3657 -1.7201
44703SOL     OW44422  12.751   7.678  12.461 -0.4021 -0.0167 -0.3496
44703SOL    HW144423  12.777   7.763  12.497 -1.5217  0.1449  0.1095
44703SOL    HW244424  12.662   7.665  12.492 -1.6162  0.3033 -3.3528
44704SOL     OW44425   3.508  11.376   2.933 -0.3685 -0.6679 -0.0172
44704SOL    HW144426   3.434  11.345   2.985  0.1587 -1.9704  0.0155
44704SOL    HW244427   3.532  11.459   2.973 -2.4457  0.3175 -0.6947
44705SOL     OW44428   6.430   1.846   7.996 -0.0587 -0.4141  0.3793
44705SOL    HW144429   6.392   1.866   7.910  1.4715 -0.0911 -0.2445
44705SOL    HW244430   6.384   1.767   8.025  0.3255 -1.3155 -1.3451
44706SOL     OW44431   5.276   6.369   9.589 -0.2548 -0.5472  0.1643
44706SOL    HW144432   5.355   6.321   9.564 -1.2314 -1.8573 -0.5364
44706SOL    HW244433   5.206   6.328   9.538 -1.0459  2.2316 -1.1904
44707SOL     OW44434   4.378   3.721   8.669 -0.9411 -0.0925  0.1814
44707SOL    HW144435   4.407   3.678   8.588 -3.0086 -2.9386  0.8063
44707SOL    HW244436   4.457   3.763   8.703  0.6395 -1.2156 -1.8748
44708SOL     OW44437   2.215   4.789   2.331  0.1004 -0.4174  0.3405
44708SOL    HW144438   2.281   4.794   2.401  1.0280 -0.9488 -0.4789
44708SOL    HW244439   2.260   4.819   2.253 -0.7476 -0.4423 -0.1731
44709SOL     OW44440   1.524   9.426   8.653  0.5612 -0.2285 -0.1586
44709SOL    HW144441   1.589   9.356   8.664  2.1601  1.1695 -0.2567
44709SOL    HW244442   1.529   9.477   8.734  0.7311  0.8015 -0.7966
44710SOL     OW44443   1.163   6.318   2.531  0.3711  0.3732 -0.4173
44710SOL    HW144444   1.201   6.303   2.618  1.2038 -1.6126 -1.0780
44710SOL    HW244445   1.233   6.293   2.470 -0.5312  0.8326 -1.6726
44711SOL     OW44446   9.779  11.576  11.796 -0.6890  0.4131  0.2227
44711SOL    HW144447   9.774  11.669  11.818 -0.4849  0.6057 -0.5144
44711SOL    HW244448   9.744  11.571  11.708 -0.1312 -0.1223  0.0275
44712SOL     OW44449  12.310  10.682   7.098 -0.1912  0.2802  0.2869
44712SOL    HW144450  12.360  10.732   7.033  0.0165 -0.0682  0.1781
44712SOL    HW244451  12.266  10.614   7.048  0.5493 -0.4376  0.6076
44713SOL     OW44452   4.939  12.173   9.499  0.1544  0.1242 -0.2477
44713SOL    HW144453   4.908  12.126   9.422  1.1441 -2.0730  0.6233
44713SOL    HW244454   5.016  12.221   9.468  0.0899 -0.1097 -0.7922
44714SOL     OW44455  10.162  12.030  10.061 -0.9145 -0.8350  0.2845
44714SOL    HW144456  10.230  12.067  10.003 -2.1382  0.3129 -0.4726
44714SOL    HW244457  10.109  11.975  10.004 -0.1777 -2.4021  1.0480
44715SOL     OW44458   4.627   0.834   0.231 -0.9134 -0.3620  0.1925
44715SOL    HW144459   4.621   0.890   0.154 -0.4010  0.2013  0.5548
44715SOL    HW244460   4.609   0.891   0.305 -0.2034 -0.6228  0.5807
44716SOL     OW44461   5.779   9.493   3.006  0.3596  0.2217  0.5004
44716SOL    HW144462   5.792   9.426   3.073  0.9297  1.1930  1.3981
44716SOL    HW244463   5.821   9.457   2.928  1.4586 -0.1053  1.2127
44717SOL     OW44464   6.707   0.886   8.058 -0.1854  0.2297  0.6384
44717SOL    HW144465   6.641   0.887   8.127 -0.2240 -1.2053  0.6548
44717SOL    HW244466   6.783   0.844   8.098  1.7846  4.1050  1.4634
44718SOL     OW44467  12.467  11.878   5.937 -0.5475 -0.2279  0.2190
44718SOL    HW144468  12.443  11.787   5.919 -0.3427 -0.6300  1.8267
44718SOL    HW244469  12.535  11.899   5.873 -1.7054 -0.6466 -1.2282
44719SOL     OW44470  10.216   1.203   5.038  0.0632  0.2209  0.0950
44719SOL    HW144471  10.225   1.235   5.128 -2.8069  2.6842 -0.3140
44719SOL    HW244472  10.174   1.118   5.046  0.7850 -0.0521  1.0888
44720SOL     OW44473   5.462   1.098  12.951 -0.1070 -0.6110  0.0448
44720SOL    HW144474   5.528   1.108  12.882 -1.1110  1.3102 -0.7123
44720SOL    HW244475   5.423   1.013  12.935  1.2465 -1.1930 -0.3226
44721SOL     OW44476   2.098  12.549   7.837 -0.2195  0.5274 -0.1379
44721SOL    HW144477   2.061  12.483   7.778  0.3491  1.4567 -1.6040
44721SOL    HW244478   2.098  12.630   7.785  3.6127  0.6605 -0.2196
44722SOL     OW44479   3.886   9.832   6.136  0.1877 -0.4926 -0.6575
44722SOL    HW144480   3.822   9.786   6.082  0.1439  0.9533 -1.8982
44722SOL    HW244481   3.856   9.922   6.138 -0.0282 -0.5376  2.1841
44723SOL     OW44482   9.133  10.447  11.460  0.7188  0.1129  0.2302
44723SOL    HW144483   9.093  10.392  11.392  1.1125 -1.0733  0.9333
44723SOL    HW244484   9.126  10.536  11.425 -1.4560 -0.1722 -0.1958
44724SOL     OW44485   2.779   4.205   8.192 -0.3078 -0.0281 -0.3447
44724SOL    HW144486   2.796   4.169   8.279 -0.5862  0.2152 -0.1871
44724SOL    HW244487   2.847   4.166   8.136  1.3662  1.6036  0.4360
44725SOL     OW44488   0.397  12.824  11.281  0.1271  0.0603 -0.4970
44725SOL    HW144489   0.374  12.766  11.209  0.6861 -1.4979  0.5369
44725SOL    HW244490   0.354  12.786  11.357  0.3497  1.1307  0.1867
44726SOL     OW44491   4.001   7.286  11.941  0.2492  0.5636 -0.1470
44726SOL    HW144492   4.064   7.219  11.968  1.7913  1.2723 -1.8019
44726SOL    HW244493   4.025   7.307  11.851 -1.6940  1.6588 -0.4618
44727SOL     OW44494   1.224   6.110   1.206 -0.1134  0.3709 -0.6639
44727SOL    HW144495   1.137   6.109   1.168  0.1712 -3.8296 -1.6813
44727SOL    HW244496   1.281   6.075   1.137  1.5139 -1.4417  1.4314
44728SOL     OW44497   1.740   2.466  10.230  0.0520 -0.4333 -0.1039
44728SOL    HW144498   1.669   2.441  10.290  0.9647 -0.7610  0.8718
44728SOL    HW244499   1.699   2.466  10.144 -0.9807 -1.2838  0.3558
44729SOL     OW44500   8.013  12.301  10.182  0.2204 -0.2943  0.8223
44729SOL    HW144501   7.945  12.366  10.198  0.4645  0.3832 -0.6930
44729SOL    HW244502   8.006  12.281  10.089  1.7674 -0.5834  0.7375
44730SOL     OW44503   4.204   7.834   0.709 -0.8304  0.1325  0.2124
44730SOL    HW144504   4.229   7.926   0.718  2.9812 -0.9272  2.8286
44730SOL    HW244505   4.266   7.798   0.645 -2.2154 -0.6946 -0.7148
44731SOL     OW44506  12.718   5.011   4.303  0.9833  0.4251  0.1951
44731SOL    HW144507  12.647   4.962   4.345 -0.1302  2.1602  0.4651
44731SOL    HW244508  12.676   5.092   4.272  2.3076  0.3465 -2.0185
44732SOL     OW44509  11.639   4.120   7.760 -0.2857 -0.0403  0.4372
44732SOL    HW144510  11.595   4.203   7.781 -0.2538 -0.2206  1.2482
44732SOL    HW244511  11.717   4.146   7.712 -1.4109  0.2732 -1.3566
44733SOL     OW44512   7.992   0.037   5.513 -0.0847  0.6162 -0.4779
44733SOL    HW144513   8.079   0.048   5.551  0.0076  0.0384 -0.5076
44733SOL    HW244514   7.942   0.113   5.544 -0.4938 -0.6296  2.1728
44734SOL     OW44515   6.780   1.790  11.601  0.1767 -0.4607  0.7163
44734SOL    HW144516   6.808   1.767  11.512 -1.4539 -0.8865  0.2688
44734SOL    HW244517   6.842   1.858  11.629 -0.0059  0.5884 -1.2332
44735SOL     OW44518   4.946   8.154   1.858  0.0812 -0.1014 -0.3312
44735SOL    HW144519   4.962   8.114   1.944 -1.3089  1.9855  1.0127
44735SOL    HW244520   4.976   8.245   1.869  0.6516 -0.0145 -2.3517
44736SOL     OW44521   1.224   4.920   0.314  0.5617 -0.0966 -0.1844
44736SOL    HW144522   1.250   4.975   0.240 -1.0446 -0.4823 -1.1005
44736SOL    HW244523   1.146   4.873   0.282 -0.8063  0.4702  2.0691
44737SOL     OW44524   8.046   4.320   2.099 -0.1813 -0.3440 -0.1324
44737SOL    HW144525   8.087   4.388   2.152 -0.2629 -1.2125  1.0838
44737SOL    HW244526   7.969   4.294   2.149  1.7362 -3.8678  1.3835
44738SOL     OW44527   6.096   2.954   1.933  0.1365 -0.2352  0.1552
44738SOL    HW144528   6.064   3.032   1.888  0.4365 -0.5852 -0.6824
44738SOL    HW244529   6.027   2.932   1.995 -1.0482 -0.6685 -1.2489
44739SOL     OW44530   1.966  10.830   8.868  0.2753  0.7919  0.2365
44739SOL    HW144531   1.972  10.737   8.847  0.2843  0.6908  0.6795
44739SOL    HW244532   1.944  10.872   8.785 -0.4333  0.3217  0.1824
44740SOL     OW44533   6.877   9.390  11.168 -0.1005 -0.8519 -0.1389
44740SOL    HW144534   6.964   9.355  11.150 -0.4290 -1.8573  0.1414
44740SOL    HW244535   6.875   9.405  11.262  0.4344  1.0857 -0.4026
44741SOL     OW44536   5.773   2.217  11.936 -0.3943 -0.0126 -0.6928
44741SOL    HW144537   5.832   2.182  12.003 -0.8275  0.7317  0.1030
44741SOL    HW244538   5.830   2.266  11.877 -0.3697  2.5522  1.2804
44742SOL     OW44539  10.956  10.937   2.532  0.5406 -0.1702 -0.4857
44742SOL    HW144540  10.908  10.855   2.533  0.7722 -0.3068  0.2134
44742SOL    HW244541  10.978  10.954   2.624  0.1805  0.8627 -0.5691
44743SOL     OW44542   2.557   7.364   3.321 -0.4701  0.0350  0.6993
44743SOL    HW144543   2.643   7.370   3.362  0.3990  0.8097 -1.1280
44743SOL    HW244544   2.510   7.442   3.353 -0.3219 -0.1289  1.3188
44744SOL     OW44545  10.808   0.131   3.081 -0.3401 -0.2669 -0.2370
44744SOL    HW144546  10.782   0.217   3.114  0.4468 -0.5420  1.1616
44744SOL    HW244547  10.875   0.150   3.015  0.8358  0.1760  1.0295
44745SOL     OW44548  10.505   1.778   0.657 -0.5321  0.6235  0.1556
44745SOL    HW144549  10.515   1.867   0.621  1.5532  1.0752  1.6647
44745SOL    HW244550  10.462   1.790   0.741 -1.1824  0.0660 -0.0871
44746SOL     OW44551  10.785  11.333   7.209 -0.2202 -0.0082  0.5961
44746SOL    HW144552  10.756  11.308   7.121 -0.2022 -0.4374  0.7058
44746SOL    HW244553  10.729  11.282   7.268  0.6238 -0.7293  0.8092
44747SOL     OW44554   5.070   5.498   2.832 -0.4272  0.1124  0.0815
44747SOL    HW144555   5.150   5.541   2.802 -0.0134 -1.1138 -0.6549
44747SOL    HW244556   5.002   5.528   2.771 -0.0917 -0.4281 -0.5758
44748SOL     OW44557  12.479   6.380   5.692 -0.1700  0.4805 -0.6438
44748SOL    HW144558  12.536   6.368   5.768 -1.5802 -0.3563  0.3210
44748SOL    HW244559  12.484   6.473   5.672  0.6837  0.6016  0.0790
44749SOL     OW44560   2.823   3.665   7.946  0.0098  0.0608 -0.0742
44749SOL    HW144561   2.918   3.676   7.938  0.0806 -1.8727 -3.4626
44749SOL    HW244562   2.809   3.571   7.938 -2.2208  0.2171  1.1129
44750SOL     OW44563   7.210   9.177   8.952  0.1452 -0.9388 -0.0628
44750SOL    HW144564   7.151   9.242   8.990 -0.8535 -2.1457  0.4892
44750SOL    HW244565   7.251   9.223   8.878 -1.4192 -0.0471 -0.4216
44751SOL     OW44566   6.153  10.215   6.343 -0.0429  0.6063  0.1915
44751SOL    HW144567   6.093  10.289   6.355 -0.7236  0.1924 -0.5612
44751SOL    HW244568   6.230  10.253   6.301 -1.3314  0.5470 -2.3983
44752SOL     OW44569   9.099  10.248   6.604 -0.5170 -0.6253  0.2207
44752SOL    HW144570   9.100  10.314   6.674 -1.0166 -1.5228  1.0988
44752SOL    HW244571   9.009  10.248   6.572 -1.5355 -3.2937  2.6502
44753SOL     OW44572   0.255  12.304  11.387  0.8962  0.2346 -0.0345
44753SOL    HW144573   0.194  12.230  11.392  0.5839  0.5351  0.8000
44753SOL    HW244574   0.219  12.361  11.318 -0.0644  0.6619  0.8009
44754SOL     OW44575   5.476   7.211   9.302  0.0042 -0.6659  0.0854
44754SOL    HW144576   5.400   7.189   9.355  0.0420 -0.1275  0.3673
44754SOL    HW244577   5.440   7.239   9.218 -0.1656  0.5239  0.5420
44755SOL     OW44578   0.034   3.669   5.086  0.3250 -1.0048  0.1608
44755SOL    HW144579   0.012   3.701   5.174 -0.5668 -1.5151  0.1340
44755SOL    HW244580   0.095   3.734   5.052 -0.1422 -0.2329  0.7550
44756SOL     OW44581   8.484   6.267   4.126  0.4917  0.2137  0.2843
44756SOL    HW144582   8.531   6.349   4.141 -0.9449  1.2227 -0.5482
44756SOL    HW244583   8.463   6.267   4.033  0.2534 -0.9934  0.3148
44757SOL     OW44584   4.177   5.804   9.017  0.3678 -0.5354 -0.6253
44757SOL    HW144585   4.192   5.858   9.094 -0.1979 -0.1495 -0.7780
44757SOL    HW244586   4.130   5.728   9.050  3.4277 -2.3111  0.0475
44758SOL     OW44587  10.877   9.570   7.487  0.4942 -0.4284  0.1293
44758SOL    HW144588  10.800   9.628   7.486  1.9955  1.9570 -3.8290
44758SOL    HW244589  10.940   9.615   7.543  0.2399 -0.4073  0.3987
44759SOL     OW44590  12.357   2.788  10.119  0.0434  0.8269 -0.3382
44759SOL    HW144591  12.414   2.763  10.191  0.9602  0.4250 -1.1766
44759SOL    HW244592  12.298   2.853  10.156 -0.3773 -0.3103  1.1216
44760SOL     OW44593   1.631   8.980   8.104  0.5389  0.6047  0.1015
44760SOL    HW144594   1.629   8.950   8.013 -1.8617 -1.4187  0.7222
44760SOL    HW244595   1.579   9.060   8.105 -0.1724  0.1521 -0.1804
44761SOL     OW44596   7.086   5.527   5.230  0.6046  0.0633  0.1127
44761SOL    HW144597   7.039   5.540   5.313 -0.9394  1.2354 -0.8899
44761SOL    HW244598   7.067   5.436   5.206  0.3590 -0.0226  0.6173
44762SOL     OW44599   6.998   9.395   2.161  0.2006 -0.2878 -0.4786
44762SOL    HW144600   6.962   9.484   2.158  0.5639 -0.1477 -3.4534
44762SOL    HW244601   7.072   9.402   2.221 -1.0158  0.8682  0.9800
44763SOL     OW44602   9.250  10.153   9.136 -0.0993  0.0109  0.2809
44763SOL    HW144603   9.191  10.127   9.065 -1.8655 -1.0086  2.0260
44763SOL    HW244604   9.239  10.248   9.142 -0.9758 -0.0698  0.0776
44764SOL     OW44605   3.246   4.669  10.642  0.5275 -0.4165 -0.0597
44764SOL    HW144606   3.161   4.656  10.599  0.2910 -2.3007  0.8713
44764SOL    HW244607   3.227   4.726  10.715  0.1899 -0.2751 -0.2555
44765SOL     OW44608   2.616   9.124  12.075  0.5222 -0.7309  0.0540
44765SOL    HW144609   2.699   9.078  12.087  1.5397  1.2735  1.1220
44765SOL    HW244610   2.638   9.202  12.024 -0.8025 -0.4382 -0.1194
44766SOL     OW44611   0.542  12.140   1.083  0.0220 -0.5904  0.1765
44766SOL    HW144612   0.458  12.096   1.093 -0.4637  0.5625  1.3020
44766SOL    HW244613   0.603  12.085   1.133 -0.1513 -1.1598 -0.2319
44767SOL     OW44614  11.334   3.209   7.640 -0.1427 -0.3729 -0.1620
44767SOL    HW144615  11.257   3.216   7.584 -2.5018 -0.5175  2.7937
44767SOL    HW244616  11.366   3.299   7.648 -2.9691  0.5651  2.2118
44768SOL     OW44617   9.901   5.107   3.609  0.0312  0.5681  0.3281
44768SOL    HW144618   9.971   5.105   3.674 -0.9438 -0.3014  1.4013
44768SOL    HW244619   9.899   5.018   3.573 -0.3967  0.6323  0.1834
44769SOL     OW44620  12.135   6.643   0.505 -0.4467  0.3002  0.8668
44769SOL    HW144621  12.066   6.705   0.527 -1.5347 -0.6271  0.1617
44769SOL    HW244622  12.138   6.642   0.409 -0.7948 -1.0646  0.8423
44770SOL     OW44623   1.837   2.753   0.867  0.0461 -0.2281  0.3487
44770SOL    HW144624   1.757   2.764   0.920  0.3632 -0.6065  0.9150
44770SOL    HW244625   1.908   2.771   0.928  0.4604 -1.7462  0.3593
44771SOL     OW44626  10.457   0.772   0.065 -0.4537 -0.1566 -0.6311
44771SOL    HW144627  10.514   0.733  -0.002  0.3790  0.6533 -0.4164
44771SOL    HW244628  10.372   0.782   0.022 -0.3707 -1.1538 -1.0388
44772SOL     OW44629   4.062   4.531   4.496 -0.1791 -0.2864  0.4530
44772SOL    HW144630   3.974   4.567   4.487 -0.5909 -1.4861 -0.4989
44772SOL    HW244631   4.049   4.437   4.508  0.9710 -0.4806  0.2690
44773SOL     OW44632  12.555   4.402   5.605  0.1303  0.4060 -0.0826
44773SOL    HW144633  12.641   4.433   5.577  0.1334  0.8920  0.4646
44773SOL    HW244634  12.495   4.434   5.537  0.2690  0.7579 -0.0398
44774SOL     OW44635   8.773   3.559   7.596  0.6854  0.1982 -0.3563
44774SOL    HW144636   8.700   3.497   7.592 -0.1379  1.0733  0.7959
44774SOL    HW244637   8.834   3.528   7.529 -0.4385 -0.9281 -0.8885
44775SOL     OW44638   1.690   0.400   8.251 -0.5261 -0.1657 -0.1609
44775SOL    HW144639   1.632   0.328   8.229 -0.7340 -0.3184  0.8257
44775SOL    HW244640   1.743   0.366   8.323 -0.4856  0.5953  0.1782
44776SOL     OW44641   1.348   0.683   2.021  0.1239 -0.0689  0.2405
44776SOL    HW144642   1.337   0.732   1.940  0.4776  0.2897  0.4047
44776SOL    HW244643   1.373   0.595   1.993 -2.2765 -0.6888 -0.1141
44777SOL     OW44644   0.748   3.914  10.663 -1.3510 -0.0865  0.0063
44777SOL    HW144645   0.788   3.963  10.735 -0.1028 -1.3595  0.2153
44777SOL    HW244646   0.659   3.896  10.692 -0.6157 -1.3228  1.6542
44778SOL     OW44647   5.894  12.290   2.491 -0.2757  0.1813  0.1242
44778SOL    HW144648   5.949  12.266   2.566 -0.8116  1.5058  0.9746
44778SOL    HW244649   5.953  12.338   2.433  0.0689 -0.6010 -0.1985
44779SOL     OW44650   4.300   8.194  12.001  0.9762  0.0204 -0.2006
44779SOL    HW144651   4.359   8.138  12.051 -0.7413 -1.3303  0.4159
44779SOL    HW244652   4.301   8.278  12.047 -0.4452 -1.1342  2.1225
44780SOL     OW44653  11.095   3.202   9.596  0.4535  0.2573  0.4752
44780SOL    HW144654  11.057   3.290   9.595 -0.6694 -0.1210  2.9434
44780SOL    HW244655  11.161   3.205   9.665  1.0098 -0.6340  0.0048
44781SOL     OW44656   7.255   9.383   2.336 -0.7587  0.1672  0.4877
44781SOL    HW144657   7.206   9.308   2.371  0.4745 -0.1754  1.5694
44781SOL    HW244658   7.272   9.438   2.412  1.8746 -0.5200  0.4872
44782SOL     OW44659   6.878  11.138   0.612 -0.3930  0.2469 -0.4846
44782SOL    HW144660   6.950  11.160   0.671  1.1481 -0.9912 -1.8065
44782SOL    HW244661   6.820  11.082   0.665  0.1569  0.3753  0.2719
44783SOL     OW44662  10.587   6.135   0.849 -0.6967 -0.2627 -0.3709
44783SOL    HW144663  10.618   6.165   0.934  0.2773  0.8279 -1.0828
44783SOL    HW244664  10.627   6.049   0.838 -0.4856 -0.2274  0.1006
44784SOL     OW44665   9.793   3.838   0.485  0.3808  0.3894  0.0952
44784SOL    HW144666   9.827   3.806   0.401  1.8041  0.9570  0.4263
44784SOL    HW244667   9.800   3.762   0.544  0.2329  0.2486 -0.0692
44785SOL     OW44668   4.360   6.755   6.292  0.0804 -0.0155  0.7556
44785SOL    HW144669   4.408   6.672   6.299  0.2479 -0.1252 -1.0417
44785SOL    HW244670   4.404   6.801   6.221  0.1319  1.7482  1.8884
44786SOL     OW44671   8.917   4.026   5.971 -0.4594  0.0507 -0.0866
44786SOL    HW144672   8.954   4.097   6.023 -0.4039 -1.9934  2.8844
44786SOL    HW244673   8.962   4.033   5.886  1.8672  1.6455  1.1642
44787SOL     OW44674   9.002  12.695   5.666 -0.3293 -0.1600  0.3496
44787SOL    HW144675   8.997  12.695   5.761 -0.0023 -0.3846  0.3685
44787SOL    HW244676   9.062  12.623   5.645 -0.4041 -0.1162 -0.0244
44788SOL     OW44677   3.832   3.795  11.490 -0.2714  0.7142  0.3353
44788SOL    HW144678   3.894   3.741  11.440 -0.1957  0.7649  0.3731
44788SOL    HW244679   3.761   3.813  11.429  0.1723  1.4005  0.0073
44789SOL     OW44680   1.750   6.284   2.672 -0.3370 -0.6753 -0.4234
44789SOL    HW144681   1.731   6.324   2.757 -1.6295 -0.2282 -0.8970
44789SOL    HW244682   1.732   6.353   2.608  0.8280 -0.9380 -1.0747
44790SOL     OW44683   9.562   4.818   7.559 -0.0766  0.5090  0.4052
44790SOL    HW144684   9.500   4.884   7.591 -1.1802 -0.1619 -0.2885
44790SOL    HW244685   9.644   4.867   7.547  0.2348  0.9482  3.4968
44791SOL     OW44686   9.199   0.852   9.084 -0.1726 -0.1435  0.1347
44791SOL    HW144687   9.157   0.817   9.005 -0.5458 -1.7368  0.9931
44791SOL    HW244688   9.237   0.775   9.127 -0.2941  0.6286  1.6942
44792SOL     OW44689   3.280   9.795   1.632  0.5694  0.0689  0.1973
44792SOL    HW144690   3.361   9.744   1.623 -0.1435 -1.1118  0.1795
44792SOL    HW244691   3.261   9.794   1.725 -0.0232 -0.6608  0.0807
44793SOL     OW44692  12.922   9.059   4.016 -0.3924 -0.1187 -0.3028
44793SOL    HW144693  12.838   9.103   4.028 -0.2918  0.6637 -2.0201
44793SOL    HW244694  12.986   9.117   4.057 -0.5372  0.0620 -0.3315
44794SOL     OW44695   8.752   5.926   9.352 -0.3284 -0.4740  0.2935
44794SOL    HW144696   8.834   5.902   9.309  0.4594  0.4494  1.2358
44794SOL    HW244697   8.744   5.863   9.424  0.0417  0.0004  0.7588
44795SOL     OW44698   3.421   9.843   7.516  0.1142  0.0672 -0.2883
44795SOL    HW144699   3.359   9.900   7.562  1.6438 -0.3014  2.4246
44795SOL    HW244700   3.404   9.756   7.552  1.9229 -0.0908  0.2534
44796SOL     OW44701   8.556  11.902   2.368  0.7215  0.0882  0.0455
44796SOL    HW144702   8.472  11.929   2.332  1.5817  2.2439 -0.4893
44796SOL    HW244703   8.537  11.880   2.459 -1.2668 -4.3177 -1.1343
44797SOL     OW44704  11.551   5.844   3.603  0.3134 -0.1349 -0.1045
44797SOL    HW144705  11.512   5.775   3.549 -0.4623  0.5267 -0.4165
44797SOL    HW244706  11.613   5.888   3.544  0.8561 -0.5942  0.1137
44798SOL     OW44707   6.643   0.795   1.727  0.0483  0.6731 -0.5376
44798SOL    HW144708   6.563   0.761   1.768 -0.1259 -0.6043 -1.8282
44798SOL    HW244709   6.705   0.806   1.799 -0.6359 -0.3050  0.2251
44799SOL     OW44710   7.553   7.160   0.076 -0.3256 -0.0014  0.0930
44799SOL    HW144711   7.475   7.141   0.022 -0.2694  0.8734 -0.3200
44799SOL    HW244712   7.518   7.205   0.153 -0.4648 -1.7280  1.0922
44800SOL     OW44713   7.792   4.582   7.450  0.0777 -0.1523 -0.6760
44800SOL    HW144714   7.886   4.567   7.436 -0.0784 -0.1986 -1.7647
44800SOL    HW244715   7.785   4.676   7.467  0.1093  0.2953 -2.8559
44801SOL     OW44716   2.500   5.734   5.813  0.4372 -0.2406 -0.0470
44801SOL    HW144717   2.491   5.746   5.719  0.7333 -1.7022 -0.2905
44801SOL    HW244718   2.426   5.679   5.838  1.2248 -1.1896  0.2728
44802SOL     OW44719   3.260   6.209   9.972  0.1392  0.2450 -0.2758
44802SOL    HW144720   3.169   6.219   9.999  0.2826  0.0580  0.2895
44802SOL    HW244721   3.274   6.278   9.907 -0.2684  0.5762 -0.0114
44803SOL     OW44722  12.155   6.662  11.039 -0.3887 -0.0979 -0.0265
44803SOL    HW144723  12.190   6.573  11.042 -0.2721 -0.0633 -0.3494
44803SOL    HW244724  12.185   6.697  10.955  1.2583  0.9225  0.9118
44804SOL     OW44725  11.978   2.900   3.529  0.1945  0.1001 -0.1772
44804SOL    HW144726  12.049   2.954   3.566 -0.0975  0.4387 -0.1073
44804SOL    HW244727  11.900   2.929   3.575  0.2108 -1.2442  0.7562
44805SOL     OW44728   4.996   9.110   1.906 -0.7286 -0.5039 -0.7038
44805SOL    HW144729   4.964   9.168   1.975 -1.5985 -0.7193 -0.9152
44805SOL    HW244730   4.920   9.096   1.849 -0.5712 -1.9353 -0.5922
44806SOL     OW44731   2.157   8.787   0.349  0.2626  0.8398  0.7756
44806SOL    HW144732   2.186   8.866   0.304  0.2575 -0.2593 -1.2919
44806SOL    HW244733   2.208   8.785   0.430  0.3094  2.8931  0.8393
44807SOL     OW44734   8.395  10.076  11.826 -0.5933 -0.1702  0.5809
44807SOL    HW144735   8.370  10.016  11.897 -1.8347  1.0732  1.2469
44807SOL    HW244736   8.317  10.081  11.770  0.7132 -2.0096 -1.5971
44808SOL     OW44737  11.827   6.183   7.036 -0.0775 -0.7440 -0.3486
44808SOL    HW144738  11.786   6.240   6.970 -0.7111 -0.7324  0.0468
44808SOL    HW244739  11.887   6.128   6.986 -0.2861 -0.4879 -0.8888
44809SOL     OW44740  10.686   9.158   9.504  0.1670 -0.1924  0.1377
44809SOL    HW144741  10.771   9.138   9.544  1.1922  0.5292 -1.5808
44809SOL    HW244742  10.702   9.236   9.451 -1.4019 -0.4502 -0.7696
44810SOL     OW44743   1.356   8.458   9.751 -0.5422  0.7538 -0.5147
44810SOL    HW144744   1.444   8.448   9.787 -0.6989  1.3275  0.0533
44810SOL    HW244745   1.325   8.369   9.736 -0.2664  0.5200  0.2859
44811SOL     OW44746   4.784   0.837   3.127  0.2642 -0.0371  0.0524
44811SOL    HW144747   4.807   0.923   3.092 -1.9316  0.0790 -1.2947
44811SOL    HW244748   4.693   0.845   3.155  0.7671 -1.2610  2.2698
44812SOL     OW44749   3.541   5.173  11.866 -0.2045  0.6296 -0.0577
44812SOL    HW144750   3.595   5.214  11.799 -0.2956  0.8590  0.0077
44812SOL    HW244751   3.565   5.080  11.863 -1.8183  0.2287 -1.9355
44813SOL     OW44752   9.093  10.549  12.667 -0.6691 -0.5343  0.2743
44813SOL    HW144753   9.044  10.590  12.738  1.2754 -0.6248  1.7321
44813SOL    HW244754   9.103  10.618  12.602 -0.9722  0.0779  0.8595
44814SOL     OW44755   0.775   7.183  12.968  0.2259  0.0753  0.4098
44814SOL    HW144756   0.849   7.236  13.000  0.3490 -0.4319  0.9899
44814SOL    HW244757   0.759   7.216  12.880  1.1699  0.1696  0.2591
44815SOL     OW44758   8.546   1.499   1.817 -0.2114  0.7429 -0.1488
44815SOL    HW144759   8.566   1.409   1.842  1.0579  1.0006 -0.1276
44815SOL    HW244760   8.476   1.525   1.876  0.3185  0.1904  0.7654
44816SOL     OW44761   3.614   3.271  11.267 -0.0452 -0.1736  0.2000
44816SOL    HW144762   3.570   3.351  11.236 -1.7746 -1.4872 -0.9500
44816SOL    HW244763   3.555   3.235  11.333  0.4126 -0.8109  0.2701
44817SOL     OW44764  10.400  12.432  11.732 -0.3748  0.0728  0.1478
44817SOL    HW144765  10.495  12.443  11.734 -0.3565  0.1372 -0.5870
44817SOL    HW244766  10.372  12.438  11.823  0.2789  0.5084  0.3227
44818SOL     OW44767   0.980   6.742   5.218 -0.6645 -0.0856 -0.5179
44818SOL    HW144768   1.039   6.703   5.282 -0.3731  3.3390  1.5461
44818SOL    HW244769   1.037   6.786   5.155 -1.0198 -1.2593 -1.7204
44819SOL     OW44770   3.572   9.952   0.107 -0.0698 -0.3811  0.0585
44819SOL    HW144771   3.569   9.993   0.021  0.0542  0.8829  0.6307
44819SOL    HW244772   3.647   9.993   0.151 -0.2939 -0.8118  0.8686
44820SOL     OW44773   3.782   9.308   6.518 -0.0573  0.0886 -0.1192
44820SOL    HW144774   3.805   9.216   6.503  2.1239  0.6096 -0.4599
44820SOL    HW244775   3.687   9.311   6.510 -0.6009 -2.6767  3.1170
44821SOL     OW44776  12.310  11.938  12.211  0.1601 -0.4023 -0.2707
44821SOL    HW144777  12.276  11.958  12.124 -0.0799 -0.8899 -0.2917
44821SOL    HW244778  12.369  12.011  12.231  0.7438 -0.6174 -1.1270
44822SOL     OW44779  11.094   6.673   8.452 -0.0341 -0.3945  0.1594
44822SOL    HW144780  11.182   6.669   8.490  0.4453  1.1622 -0.7164
44822SOL    HW244781  11.099   6.621   8.372  0.4736  0.7279 -0.5596
44823SOL     OW44782   7.475   6.643   2.262  0.3970 -0.0933 -0.0290
44823SOL    HW144783   7.470   6.604   2.174 -2.9342 -1.4850  0.6226
44823SOL    HW244784   7.505   6.571   2.318 -1.3931 -0.5067  0.4857
44824SOL     OW44785   6.767   9.528   1.968 -0.4167 -0.1742  0.5813
44824SOL    HW144786   6.765   9.605   1.911 -1.9381 -1.3455 -1.0867
44824SOL    HW244787   6.813   9.557   2.046 -0.0681  2.1316 -0.3891
44825SOL     OW44788   5.452  12.230  10.455 -0.1649 -0.2673  0.6498
44825SOL    HW144789   5.541  12.214  10.422 -1.0516 -1.3644 -1.3570
44825SOL    HW244790   5.433  12.154  10.510 -0.7503 -1.3495 -0.9746
44826SOL     OW44791  10.753   0.097   1.514 -0.4388 -0.4403  0.2572
44826SOL    HW144792  10.846   0.076   1.510 -0.8561 -2.6419  1.0807
44826SOL    HW244793  10.729   0.084   1.606 -1.6250 -0.1609  0.0100
44827SOL     OW44794   4.817  10.742   8.348 -0.4692 -0.0979 -0.0266
44827SOL    HW144795   4.813  10.837   8.358 -0.7139  0.1003 -1.7363
44827SOL    HW244796   4.740  10.709   8.395 -0.3204  0.5333  0.6668
44828SOL     OW44797   2.424   0.747   7.847 -0.4229  0.6039  0.1218
44828SOL    HW144798   2.415   0.842   7.850 -0.8489  0.5657  0.1203
44828SOL    HW244799   2.353   0.718   7.788  0.7409  0.4274 -1.2607
44829SOL     OW44800   3.386   8.168   2.184  0.3458  0.1022  0.3895
44829SOL    HW144801   3.414   8.175   2.093  2.7381  0.3273  1.0760
44829SOL    HW244802   3.372   8.074   2.197  1.6553 -0.1317  0.2204
44830SOL     OW44803   7.577   1.415   3.871 -0.3882  0.5147 -0.7243
44830SOL    HW144804   7.556   1.382   3.958 -0.4945  2.2147 -0.0846
44830SOL    HW244805   7.505   1.384   3.816  0.1804 -1.4274 -0.4583
44831SOL     OW44806  12.078   7.765  10.081  0.6760  0.4292 -0.1866
44831SOL    HW144807  12.118   7.795   9.999  1.0296  0.0934 -0.1390
44831SOL    HW244808  12.127   7.810  10.150  0.9080  0.0986 -0.1320
44832SOL     OW44809   7.803  11.663   1.478  0.2942 -0.3706  0.5933
44832SOL    HW144810   7.765  11.612   1.407  1.5676  1.5365 -1.6515
44832SOL    HW244811   7.745  11.739   1.487  1.7538  1.0208 -0.7757
44833SOL     OW44812   0.746   8.939   5.009  0.0965 -0.3560 -0.3761
44833SOL    HW144813   0.831   8.983   5.016 -0.2111  0.0799  1.0692
44833SOL    HW244814   0.747   8.896   4.924  2.0276 -0.9008 -0.1164
44834SOL     OW44815   9.455   0.189   0.425 -0.3589  0.8412  0.2120
44834SOL    HW144816   9.546   0.214   0.442 -0.9093  2.2036  1.4115
44834SOL    HW244817   9.455   0.093   0.434  0.7059  0.9319  1.5671
44835SOL     OW44818  12.068  12.292   5.347  0.5294 -0.3542  0.1637
44835SOL    HW144819  12.023  12.372   5.320 -1.8301 -1.5955  0.1084
44835SOL    HW244820  12.003  12.223   5.335  2.4797 -2.3144  0.1718
44836SOL     OW44821   8.564   8.940   3.197 -0.5641 -0.0974  0.1248
44836SOL    HW144822   8.579   8.970   3.286 -1.9762 -2.8250  1.3810
44836SOL    HW244823   8.642   8.888   3.176 -0.5082  0.0483 -0.0397
44837SOL     OW44824  11.439   9.900  12.889  0.3155 -0.3715 -0.6460
44837SOL    HW144825  11.443   9.911  12.984  0.8031  0.2970 -0.7390
44837SOL    HW244826  11.480   9.815  12.873  1.3813  0.0795 -0.3642
44838SOL     OW44827   9.830   5.352   4.062  0.3224 -0.6047 -1.1322
44838SOL    HW144828   9.880   5.303   4.127  1.3842 -0.4710 -1.8105
44838SOL    HW244829   9.878   5.435   4.052  0.1112 -0.5701 -1.9705
44839SOL     OW44830  10.231   4.750   2.871 -0.0597 -0.1986 -0.0605
44839SOL    HW144831  10.265   4.803   2.943 -0.9682  0.2824  0.0280
44839SOL    HW244832  10.303   4.746   2.808 -0.2936  2.0273 -0.5410
44840SOL     OW44833   7.062   4.187   4.659 -0.1481  0.0259  0.1590
44840SOL    HW144834   7.075   4.271   4.614  0.8188 -0.3315 -0.2679
44840SOL    HW244835   6.973   4.162   4.637 -0.0154  0.3288 -0.7960
44841SOL     OW44836   4.558   7.405  12.824 -0.1854 -0.3846  0.1773
44841SOL    HW144837   4.523   7.488  12.855  1.2025  0.3278 -0.0701
44841SOL    HW244838   4.486   7.343  12.833 -1.0966  0.7380  0.8167
44842SOL     OW44839   8.024   0.919   2.890 -0.1222  0.1866  0.1835
44842SOL    HW144840   7.976   0.850   2.936 -1.1904  0.6522 -0.1934
44842SOL    HW244841   7.989   1.001   2.925 -0.4345  0.5392 -0.9054
44843SOL     OW44842   1.145   9.391   2.150  0.5922 -0.1940 -0.0228
44843SOL    HW144843   1.109   9.480   2.141  3.5496  1.2255  0.8387
44843SOL    HW244844   1.183   9.373   2.064  4.0740  1.5086  0.9406
44844SOL     OW44845   9.437   6.092   0.658 -0.1657  0.1975 -0.1323
44844SOL    HW144846   9.350   6.091   0.698  0.7831  0.1140  2.0467
44844SOL    HW244847   9.472   6.178   0.679  0.3443  0.1703 -0.8644
44845SOL     OW44848  11.514   2.648  12.104  0.0244  0.0596  0.7827
44845SOL    HW144849  11.531   2.663  12.197 -0.5052  1.1870  0.7172
44845SOL    HW244850  11.428   2.607  12.102 -0.7467  1.6102  0.7293
44846SOL     OW44851   9.410   7.377   7.388  0.2634 -0.2490 -0.1427
44846SOL    HW144852   9.318   7.403   7.380  0.1078 -0.5206  0.6546
44846SOL    HW244853   9.428   7.382   7.482  0.3813 -2.4630  0.0105
44847SOL     OW44854   1.214   0.147   9.585  0.0457  0.3436 -0.3538
44847SOL    HW144855   1.287   0.149   9.647  1.6658  0.9972 -2.1925
44847SOL    HW244856   1.136   0.149   9.641  1.3720 -0.7994  1.7111
44848SOL     OW44857  10.103  11.170  12.440 -0.3904 -0.4807  0.2720
44848SOL    HW144858  10.137  11.248  12.397  2.0483 -1.3355  0.4756
44848SOL    HW244859  10.107  11.102  12.372  0.9520 -1.2238  1.0606
44849SOL     OW44860   9.947  11.773   8.597 -0.3219  0.0340  0.8257
44849SOL    HW144861  10.028  11.727   8.620 -0.2184  0.2858  0.9607
44849SOL    HW244862   9.947  11.852   8.651 -0.2847  0.4165  0.2732
44850SOL     OW44863   3.841   7.276   7.700 -0.2111 -0.1479 -0.2956
44850SOL    HW144864   3.784   7.335   7.651  1.0669  0.4404 -1.1183
44850SOL    HW244865   3.929   7.301   7.674  0.4724 -0.5025  1.5601
44851SOL     OW44866   4.495   5.942  10.068 -0.6385  0.0474  0.1487
44851SOL    HW144867   4.480   5.965   9.977 -1.5353 -0.6613  0.1126
44851SOL    HW244868   4.584   5.906  10.069  0.9429  3.4751  0.2355
44852SOL     OW44869  12.133   1.853   9.442 -0.1139 -0.3340  0.3984
44852SOL    HW144870  12.149   1.759   9.439  2.1882 -0.0565  1.8478
44852SOL    HW244871  12.219   1.892   9.453 -1.2710  1.7520  3.1775
44853SOL     OW44872  12.382   2.591  11.399 -0.4707  0.2751  0.3900
44853SOL    HW144873  12.455   2.532  11.415  0.2360  0.5168 -1.6892
44853SOL    HW244874  12.320   2.539  11.346 -1.1478  0.5252  0.9185
44854SOL     OW44875  12.717  12.438   0.554  0.1963 -0.1078  0.0276
44854SOL    HW144876  12.769  12.431   0.474  0.9971 -0.0494  0.5362
44854SOL    HW244877  12.780  12.459   0.622 -0.5663  0.4696  0.5764
44855SOL     OW44878  11.532   7.199   0.100 -0.0395 -0.0903  0.6502
44855SOL    HW144879  11.543   7.183   0.194  2.6954  0.5028  0.5418
44855SOL    HW244880  11.604   7.258   0.078 -1.7727  1.3957 -1.4802
44856SOL     OW44881  12.234   5.077   5.441  0.5045  0.8010 -0.1275
44856SOL    HW144882  12.330   5.074   5.434  0.5303  1.0394  0.1255
44856SOL    HW244883  12.205   5.109   5.355  0.6397  0.5132 -0.2810
44857SOL     OW44884   4.769  12.220   6.766 -0.4842  0.7985  0.0294
44857SOL    HW144885   4.698  12.275   6.734 -1.4749 -0.6871 -0.4401
44857SOL    HW244886   4.748  12.204   6.858 -0.9880  0.0472 -0.2074
44858SOL     OW44887   2.147   1.603   2.055 -0.1292  0.5898  0.1510
44858SOL    HW144888   2.230   1.560   2.071  0.8781  2.6466  0.7418
44858SOL    HW244889   2.099   1.594   2.137 -0.9688 -1.4318 -0.4819
44859SOL     OW44890  11.134   1.424  12.275 -0.0294 -0.7678 -0.2642
44859SOL    HW144891  11.204   1.450  12.215 -2.1364  1.0537 -2.1308
44859SOL    HW244892  11.055   1.462  12.237 -1.7558 -0.9047  2.8762
44860SOL     OW44893  12.833   9.667   2.732  0.9191  0.6868 -0.4702
44860SOL    HW144894  12.858   9.617   2.809  1.6947  1.6706 -0.0581
44860SOL    HW244895  12.769   9.730   2.764  1.3200  1.1671 -0.5934
44861SOL     OW44896  11.888   9.891   9.983  0.2105  0.0875  0.1414
44861SOL    HW144897  11.906   9.985   9.979 -0.0849  0.1134 -3.1040
44861SOL    HW244898  11.820   9.877   9.917 -1.2537 -2.1559  1.9693
44862SOL     OW44899   1.064   0.399   8.334  0.1862 -0.3332 -0.1559
44862SOL    HW144900   1.123   0.371   8.404 -0.2264 -2.8287 -0.7208
44862SOL    HW244901   1.119   0.451   8.276  1.6271 -1.8108 -0.1838
44863SOL     OW44902   9.371   1.890   6.507  0.2115 -0.0882 -0.3546
44863SOL    HW144903   9.437   1.827   6.479  1.3512  1.0680 -0.3861
44863SOL    HW244904   9.297   1.875   6.448  0.4865 -1.3093 -0.4217
44864SOL     OW44905   5.865   2.172   3.152 -0.0805  0.3993  0.6425
44864SOL    HW144906   5.866   2.085   3.191  0.0691  0.4728  0.8032
44864SOL    HW244907   5.863   2.232   3.227  0.0949  0.5382  0.5372
44865SOL     OW44908   6.805   9.324   9.134  0.5639  0.0356 -0.3394
44865SOL    HW144909   6.795   9.269   9.212  0.0049 -0.6590 -0.8809
44865SOL    HW244910   6.725   9.376   9.131  0.9999  0.7384  0.0568
44866SOL     OW44911   8.720   7.623   6.949 -1.0391 -0.0602  0.0600
44866SOL    HW144912   8.670   7.543   6.962  0.5791 -0.8677  1.6620
44866SOL    HW244913   8.735   7.657   7.037 -1.5643  1.9667 -0.5764
44867SOL     OW44914   2.313   3.650   8.219  0.3151  0.2278  0.1366
44867SOL    HW144915   2.233   3.656   8.272 -0.3109 -0.4597 -0.7046
44867SOL    HW244916   2.373   3.713   8.258 -1.1127  1.7285 -0.0244
44868SOL     OW44917   7.971  10.827  10.814 -0.3432  0.5921  0.2488
44868SOL    HW144918   8.051  10.796  10.857 -0.8268 -0.4727  0.4284
44868SOL    HW244919   8.000  10.852  10.726  0.2641  0.6166  0.4469
44869SOL     OW44920   5.718   6.424  10.174 -0.0698 -0.4809  0.8300
44869SOL    HW144921   5.714   6.454  10.265 -1.2668  0.9023  0.3609
44869SOL    HW244922   5.662   6.346  10.173 -0.4940 -0.1901  1.1772
44870SOL     OW44923   9.874   8.210   8.204 -0.2937  0.7147  0.2835
44870SOL    HW144924   9.815   8.274   8.243 -0.6250  1.0004 -0.6618
44870SOL    HW244925   9.903   8.156   8.277 -2.6003 -0.1493  0.6093
44871SOL     OW44926   2.079   0.354   0.870  0.1010 -0.0134 -0.1358
44871SOL    HW144927   2.017   0.402   0.925  0.1686  0.9332 -0.8527
44871SOL    HW244928   2.038   0.354   0.783  1.0836  0.6239 -0.6179
44872SOL     OW44929   2.676  12.806   5.033  0.2549  0.8604 -0.5435
44872SOL    HW144930   2.615  12.843   5.096 -1.1306 -0.4946 -0.9992
44872SOL    HW244931   2.631  12.728   5.000  1.1892  1.1776 -2.7399
44873SOL     OW44932   3.418   0.832  11.661  0.4485 -0.3612  0.3034
44873SOL    HW144933   3.471   0.752  11.663  0.5458 -0.2898  0.9849
44873SOL    HW244934   3.440   0.876  11.743 -0.2867 -0.0820  0.3518
44874SOL     OW44935  10.397   2.504  11.025  0.8772  0.6248 -0.2054
44874SOL    HW144936  10.397   2.596  10.998 -0.9759  0.4848 -0.8471
44874SOL    HW244937  10.396   2.456  10.943  0.6268  0.0641  0.1225
44875SOL     OW44938   9.906  10.500  11.813  0.5519  0.1433 -0.1337
44875SOL    HW144939   9.937  10.536  11.730 -1.8434  1.3678 -0.5984
44875SOL    HW244940   9.829  10.449  11.789 -0.0650  0.3572  1.3142
44876SOL     OW44941   1.885   8.450   1.742 -0.2223 -0.9806 -0.6851
44876SOL    HW144942   1.796   8.419   1.728  0.2221 -1.3282 -3.2040
44876SOL    HW244943   1.890   8.533   1.693  0.9808 -1.2599 -1.0871
44877SOL     OW44944   0.294   3.236   6.006  0.5207  0.3849 -0.5118
44877SOL    HW144945   0.276   3.149   5.971  1.3574 -0.1921  0.4595
44877SOL    HW244946   0.389   3.241   6.013  0.4082  0.2497  2.1553
44878SOL     OW44947   3.954  10.650   7.437  0.6235 -0.5701  0.1813
44878SOL    HW144948   3.995  10.736   7.441 -0.9593  0.4720 -2.8157
44878SOL    HW244949   3.883  10.654   7.501  0.3225  0.4892 -0.2099
44879SOL     OW44950   9.383   4.198   3.453 -0.3235 -0.5826  0.1058
44879SOL    HW144951   9.313   4.259   3.476 -0.6716 -1.0659  0.3511
44879SOL    HW244952   9.337   4.119   3.422  0.1189 -0.6391 -0.4375
44880SOL     OW44953   9.830   1.959  12.690 -0.1320  0.3387 -0.1860
44880SOL    HW144954   9.906   2.018  12.688 -0.4657  0.7756 -0.0404
44880SOL    HW244955   9.851   1.895  12.758 -2.0625  3.4317  3.7170
44881SOL     OW44956  11.977   7.860   3.910 -0.4527 -0.0305 -0.2214
44881SOL    HW144957  11.952   7.905   3.829  2.8419  0.3951 -1.1298
44881SOL    HW244958  11.934   7.775   3.904 -2.4193  0.9401 -1.0656
44882SOL     OW44959   0.176   5.879   1.838 -0.3813 -0.2422  0.0244
44882SOL    HW144960   0.178   5.958   1.893 -0.4432 -0.9298  1.0408
44882SOL    HW244961   0.113   5.822   1.881 -0.3223 -0.8532 -0.6968
44883SOL     OW44962   1.147   5.202  12.623 -0.2389  0.8594  0.0241
44883SOL    HW144963   1.090   5.156  12.562 -0.3099  0.5524  0.3173
44883SOL    HW244964   1.141   5.294  12.598 -0.8093  0.8194  0.0101
44884SOL     OW44965   5.738   1.200   3.084 -0.7244  0.5752  0.5560
44884SOL    HW144966   5.695   1.243   3.157 -0.2168 -0.3751  1.4360
44884SOL    HW244967   5.813   1.155   3.123 -0.1176  0.5116 -0.6297
44885SOL     OW44968   0.979   5.169   8.542  0.6857 -0.2808 -0.3740
44885SOL    HW144969   1.054   5.111   8.534  0.7803 -0.0990 -0.8236
44885SOL    HW244970   1.016   5.254   8.567  0.7364  0.0756 -1.6237
44886SOL     OW44971   6.864   5.645   4.450  0.4475 -0.7765  0.9694
44886SOL    HW144972   6.834   5.568   4.403  1.4556 -0.6450  0.0761
44886SOL    HW244973   6.798   5.712   4.430  0.4596 -0.9358  0.3707
44887SOL     OW44974   2.830   8.634   7.820 -0.2081  0.0029 -0.3008
44887SOL    HW144975   2.892   8.695   7.860  1.1328 -0.8477 -1.0078
44887SOL    HW244976   2.752   8.686   7.804 -1.1961  0.2971  4.0989
44888SOL     OW44977   5.358   6.303   1.305  0.3856  0.2466  0.3518
44888SOL    HW144978   5.397   6.355   1.375  0.1205  0.3710  0.4095
44888SOL    HW244979   5.423   6.306   1.234  0.5613  0.2966  0.5137
44889SOL     OW44980   2.388  11.470   8.940  0.4726 -0.2675 -0.2253
44889SOL    HW144981   2.353  11.380   8.936  1.4123 -0.7250  1.1059
44889SOL    HW244982   2.476  11.459   8.975  1.2735  1.0421 -1.7468
44890SOL     OW44983   7.228   8.958  11.186  0.3348  0.3153  0.1990
44890SOL    HW144984   7.198   9.048  11.201 -1.7380 -0.5543  1.7896
44890SOL    HW244985   7.162   8.904  11.230  0.9339 -2.0391 -1.6331
44891SOL     OW44986   0.086  11.055   0.730  0.3494 -0.3231 -0.1200
44891SOL    HW144987   0.170  11.047   0.775 -0.2775 -1.0414  0.9724
44891SOL    HW244988   0.108  11.062   0.638  1.5598 -2.0171  0.0064
44892SOL     OW44989  11.642   0.906   1.762  0.3796 -0.1011  0.1569
44892SOL    HW144990  11.597   0.865   1.688 -1.0361 -0.3872  1.1329
44892SOL    HW244991  11.726   0.934   1.727  0.7208 -2.3284 -0.9838
44893SOL     OW44992   5.963   8.049   8.005 -0.9061 -0.1170 -0.0375
44893SOL    HW144993   5.955   7.975   7.944  0.0268  0.8269 -1.3713
44893SOL    HW244994   5.892   8.109   7.979  0.2180  0.8338 -1.0444
44894SOL     OW44995   2.068   9.394   0.906  0.5773  0.8037 -0.3587
44894SOL    HW144996   2.096   9.480   0.874 -0.6233  0.7247 -1.7379
44894SOL    HW244997   1.973   9.395   0.898  0.5153 -0.5154 -0.0399
44895SOL     OW44998   5.406  12.605   5.962  0.3233 -0.7175 -0.3782
44895SOL    HW144999   5.411  12.580   6.054  0.1892  2.3576  0.5940
44895SOL    HW245000   5.494  12.636   5.940 -0.2294  0.9322 -0.4407
44896SOL     OW45001   1.586  10.351  12.679 -0.0493 -0.3395 -0.5263
44896SOL    HW145002   1.675  10.346  12.714  0.1813  3.0628 -0.2811
44896SOL    HW245003   1.590  10.304  12.596  1.6255 -1.3076  0.0524
44897SOL     OW45004   8.276  11.614   3.632 -0.1826 -0.8755 -0.2057
44897SOL    HW145005   8.255  11.620   3.726 -0.1879 -0.5954 -0.2271
44897SOL    HW245006   8.268  11.520   3.613  1.3435 -1.1630  0.4362
44898SOL     OW45007   0.597   7.485   2.206  0.6835  0.0594  0.3245
44898SOL    HW145008   0.620   7.570   2.242  1.3819 -0.2102  0.5250
44898SOL    HW245009   0.608   7.495   2.111 -0.5652  0.5884  0.2224
44899SOL     OW45010   0.986   4.606   8.036  0.0320  0.3928 -0.3627
44899SOL    HW145011   0.981   4.695   8.000  2.7083  0.2741 -1.2395
44899SOL    HW245012   0.963   4.617   8.128 -1.0193  1.7406 -0.7466
44900SOL     OW45013   0.511   3.157  10.671  0.2854 -0.5177 -0.0357
44900SOL    HW145014   0.426   3.120  10.649 -0.0612  1.6864 -2.9831
44900SOL    HW245015   0.499   3.192  10.760 -2.3228  0.7074 -0.7548
44901SOL     OW45016  12.179   9.854   0.955  0.2770  0.3385  0.1565
44901SOL    HW145017  12.199   9.807   0.874  0.8106  1.5969 -0.4756
44901SOL    HW245018  12.083   9.854   0.959  0.2637 -0.5457  0.0342
44902SOL     OW45019   6.890  11.978   2.635 -1.1510  0.1445 -0.1842
44902SOL    HW145020   6.957  11.953   2.699 -1.3071 -0.6766 -0.3330
44902SOL    HW245021   6.938  11.989   2.553 -1.0349  0.6365 -0.0497
44903SOL     OW45022   2.214   6.681  10.714 -0.4382  0.5912  0.1167
44903SOL    HW145023   2.178   6.592  10.725  1.4403 -0.6320 -2.4255
44903SOL    HW245024   2.280   6.689  10.782  0.0653 -0.3979 -0.2333
44904SOL     OW45025   2.501  12.533   5.971  0.1258  0.0646 -0.8350
44904SOL    HW145026   2.475  12.560   6.059  1.6650  0.8263 -0.5985
44904SOL    HW245027   2.418  12.527   5.923 -0.5367  2.3082 -0.0724
44905SOL     OW45028   5.590  10.438  12.301 -0.4368  0.0249 -0.6375
44905SOL    HW145029   5.592  10.532  12.287  0.1575  0.0276 -0.5703
44905SOL    HW245030   5.529  10.405  12.235  0.1041  0.3571 -1.3178
44906SOL     OW45031   6.846   1.789  11.342  0.2063 -0.1955 -1.1365
44906SOL    HW145032   6.794   1.747  11.273  0.7916  0.6548 -2.1210
44906SOL    HW245033   6.855   1.880  11.314 -0.1103  0.3485  0.4174
44907SOL     OW45034   7.625   0.182   3.502  0.5215 -0.7136 -0.0801
44907SOL    HW145035   7.546   0.227   3.531  0.9355 -1.2310  2.0387
44907SOL    HW245036   7.629   0.104   3.558  3.8497  0.5727  1.7474
44908SOL     OW45037   7.862   6.545   8.374  0.1090 -0.4608  0.2244
44908SOL    HW145038   7.903   6.526   8.458 -1.3283 -0.2943  0.9952
44908SOL    HW245039   7.772   6.513   8.383  0.3332 -1.8738 -1.8115
44909SOL     OW45040   2.747   8.671  10.376 -0.0050  0.4872  0.5739
44909SOL    HW145041   2.715   8.674  10.467 -0.0502  1.2035  0.5387
44909SOL    HW245042   2.690   8.608  10.333  1.2198 -1.3614  1.4906
44910SOL     OW45043   1.826  10.102   8.321 -0.1068 -0.5003  0.5294
44910SOL    HW145044   1.764  10.033   8.346 -0.9372 -0.2960 -0.8500
44910SOL    HW245045   1.770  10.173   8.286  0.9023 -0.9843 -2.3780
44911SOL     OW45046   4.385   4.097   7.439 -0.3455  0.3595  0.1282
44911SOL    HW145047   4.367   4.004   7.447 -0.3906  0.3548 -0.0283
44911SOL    HW245048   4.309   4.140   7.479  0.9827  0.3212  2.9648
44912SOL     OW45049   4.977   2.243   7.833  0.3208 -0.3226 -0.2971
44912SOL    HW145050   5.006   2.258   7.923  1.3100  0.1310 -0.6700
44912SOL    HW245051   4.983   2.329   7.791  0.9497 -0.7288 -1.0834
44913SOL     OW45052   8.635   1.876  12.062 -0.5679  0.1685  0.0933
44913SOL    HW145053   8.695   1.846  12.131  0.1251 -0.4265 -0.7504
44913SOL    HW245054   8.607   1.963  12.091  1.2660  0.7801  0.1784
44914SOL     OW45055   6.316   5.287   8.410  0.3462  0.3773  0.9446
44914SOL    HW145056   6.362   5.345   8.351 -0.1435  1.8889  1.9878
44914SOL    HW245057   6.374   5.277   8.485  0.1143  0.1305  1.0959
44915SOL     OW45058  10.825   3.142  11.199  0.1327  0.1010 -0.4822
44915SOL    HW145059  10.760   3.098  11.254  0.6016 -0.8374 -0.6638
44915SOL    HW245060  10.835   3.084  11.123  0.2209  0.8915 -1.0848
44916SOL     OW45061   9.571   7.803   7.781  0.0430 -0.5983 -0.3630
44916SOL    HW145062   9.510   7.853   7.727  0.1584 -0.6535 -0.5442
44916SOL    HW245063   9.653   7.805   7.733  0.5734  0.6534  0.5365
44917SOL     OW45064  12.889   3.262   1.938 -0.7174 -0.4738  0.6388
44917SOL    HW145065  12.897   3.308   1.854 -0.0270 -0.2717  0.8040
44917SOL    HW245066  12.923   3.325   2.003 -2.1889 -0.2424  1.2088
44918SOL     OW45067   7.517   9.091   2.645  0.0983 -0.5584 -0.0975
44918SOL    HW145068   7.490   9.158   2.707 -0.6973 -0.0489 -0.9804
44918SOL    HW245069   7.550   9.020   2.700 -0.1937  0.0524  0.8879
44919SOL     OW45070   1.944   3.635   2.950 -0.2273 -0.3621 -1.0003
44919SOL    HW145071   1.966   3.545   2.926 -1.6354 -0.7791 -0.7969
44919SOL    HW245072   1.941   3.682   2.867 -0.7479 -0.7977 -1.2328
44920SOL     OW45073   9.397   8.433   6.327  0.1463  0.1619  0.0924
44920SOL    HW145074   9.321   8.489   6.310 -2.1737 -2.1213  2.1711
44920SOL    HW245075   9.469   8.477   6.283 -2.1008  3.1436 -0.9301
44921SOL     OW45076   6.298  11.830   0.446 -0.2628 -0.0644 -0.1252
44921SOL    HW145077   6.238  11.843   0.519 -1.5554 -3.0759 -0.4675
44921SOL    HW245078   6.254  11.871   0.371 -1.0214 -0.5973  0.0106
44922SOL     OW45079  12.942   1.102   2.086  0.3951 -0.3487  0.8953
44922SOL    HW145080  12.969   1.194   2.082  0.6667 -0.2905  2.8205
44922SOL    HW245081  12.857   1.099   2.042  1.3113  0.3955 -1.0271
44923SOL     OW45082   9.032   2.761   2.881 -0.7394 -0.0934  0.2106
44923SOL    HW145083   8.999   2.746   2.970  0.6336  0.3803  0.8340
44923SOL    HW245084   9.014   2.854   2.865 -2.8736 -0.6223 -0.8750
44924SOL     OW45085   3.326   8.420   2.670  0.9754  0.0195 -0.3102
44924SOL    HW145086   3.364   8.504   2.645  2.3093 -0.7265 -0.9493
44924SOL    HW245087   3.330   8.367   2.591  1.5736 -1.1126  0.4321
44925SOL     OW45088   8.015   5.724   6.115  0.2399  0.7181  0.4856
44925SOL    HW145089   8.036   5.740   6.207  0.0171 -0.3536  0.7357
44925SOL    HW245090   7.975   5.637   6.114  0.2016  0.7319 -0.6235
44926SOL     OW45091  11.724   9.763   4.346  0.4724  0.4448  0.0069
44926SOL    HW145092  11.777   9.801   4.277  1.9526  1.3736  1.5589
44926SOL    HW245093  11.679   9.837   4.386  2.5248  0.5581  2.3554
44927SOL     OW45094  11.776  10.212   0.456 -0.0051 -0.0321 -0.5142
44927SOL    HW145095  11.732  10.295   0.477 -0.2308  0.4796 -2.7424
44927SOL    HW245096  11.857  10.214   0.505  1.0020  2.5571 -2.1002
44928SOL     OW45097   3.834   2.510  10.594  0.1099 -0.1527  0.0966
44928SOL    HW145098   3.789   2.587  10.627  0.2603  0.2801 -0.6771
44928SOL    HW245099   3.793   2.491  10.510  0.4484 -0.5837  0.0195
44929SOL     OW45100   0.728   5.884   8.578 -0.2264  0.2324  0.0617
44929SOL    HW145101   0.710   5.960   8.634 -0.7211 -0.6035  1.0652
44929SOL    HW245102   0.688   5.810   8.624 -0.5244 -0.5059 -1.3380
44930SOL     OW45103   6.735   6.778   5.821 -0.3503  0.0814 -0.1165
44930SOL    HW145104   6.722   6.728   5.901  1.5561 -0.1800  0.0868
44930SOL    HW245105   6.651   6.773   5.775 -1.2735 -0.3013  1.5500
44931SOL     OW45106   2.030  12.179  12.767 -0.3269  0.9091 -0.0153
44931SOL    HW145107   1.957  12.239  12.751 -0.4201  0.5288 -1.1034
44931SOL    HW245108   1.992  12.092  12.756 -0.0239  0.6694  0.8111
44932SOL     OW45109   1.650  12.828   3.118  0.2264  0.0301 -0.8795
44932SOL    HW145110   1.735  12.788   3.098  0.5945  0.2891  0.0786
44932SOL    HW245111   1.588  12.756   3.113  0.6122 -0.3039 -0.9270
44933SOL     OW45112  10.647   2.155   3.298  0.5647 -0.2031 -0.1387
44933SOL    HW145113  10.741   2.138   3.306  0.4460 -0.8127 -0.0168
44933SOL    HW245114  10.612   2.076   3.257 -0.3698 -1.3217  2.5980
44934SOL     OW45115   4.027   1.409  11.974 -0.1515 -0.3016  0.2239
44934SOL    HW145116   3.937   1.378  11.975 -0.2808  0.0815  0.8966
44934SOL    HW245117   4.079   1.330  11.957 -0.5737 -0.6382  0.4704
44935SOL     OW45118  10.537   5.256   5.491  0.0702  0.7501 -0.2167
44935SOL    HW145119  10.455   5.287   5.529 -0.0710 -0.6448  0.7084
44935SOL    HW245120  10.509   5.194   5.424  0.3533  0.0364  0.3150
44936SOL     OW45121   1.597   6.811   4.088 -0.1756  0.8050  0.1916
44936SOL    HW145122   1.692   6.798   4.084 -0.2540 -0.0689  0.7286
44936SOL    HW245123   1.566   6.739   4.144 -1.1664  1.0027 -0.0887
44937SOL     OW45124  12.868   7.933   1.338 -0.3680  0.6280 -0.7800
44937SOL    HW145125  12.909   7.922   1.424  2.2119  2.2224 -1.6775
44937SOL    HW245126  12.807   8.005   1.350  0.1033  0.9591 -0.3031
44938SOL     OW45127   3.506  11.477   9.689 -0.7157  0.1741  0.3527
44938SOL    HW145128   3.489  11.538   9.618  0.8193 -1.7825 -1.8343
44938SOL    HW245129   3.448  11.506   9.760 -1.3750  2.9829 -1.1883
44939SOL     OW45130   1.099   7.895   1.629  0.1826  0.1963 -0.7239
44939SOL    HW145131   1.006   7.915   1.630  0.0659 -0.3212 -0.4868
44939SOL    HW245132   1.122   7.891   1.537  0.0496  0.6772 -0.7780
44940SOL     OW45133   7.616  11.705   0.533  0.3215  0.3261 -0.1297
44940SOL    HW145134   7.625  11.657   0.450  0.4469  0.3524 -0.1311
44940SOL    HW245135   7.641  11.642   0.600 -0.4042  0.1020 -0.0606
44941SOL     OW45136   5.890   1.418   4.540  0.0982  0.2349  1.1415
44941SOL    HW145137   5.852   1.418   4.452 -1.0214  1.2610  1.6126
44941SOL    HW245138   5.981   1.446   4.526  0.8463 -2.4349 -0.0168
44942SOL     OW45139   6.442   2.144   3.738 -0.0237 -0.3193 -0.0463
44942SOL    HW145140   6.435   2.109   3.649 -1.7157  0.8442 -0.4276
44942SOL    HW245141   6.511   2.209   3.733 -0.2105 -0.1570 -0.5558
44943SOL     OW45142  10.716   6.188   6.202 -0.8783  0.3476  0.1050
44943SOL    HW145143  10.745   6.275   6.175 -0.5523  0.1933 -0.0401
44943SOL    HW245144  10.622   6.187   6.180 -0.7832  0.4967 -0.3210
44944SOL     OW45145   0.927   7.187   6.417 -0.6305  0.0886 -0.3781
44944SOL    HW145146   0.870   7.136   6.359  2.0618 -1.2814 -2.0053
44944SOL    HW245147   0.959   7.259   6.363 -0.9149  0.9948  0.5981
44945SOL     OW45148   3.823   1.442   7.641 -0.4215 -0.0690  0.4841
44945SOL    HW145149   3.860   1.485   7.718  0.4876 -1.7091  1.0100
44945SOL    HW245150   3.733   1.476   7.636  0.2959  1.9982  0.7223
44946SOL     OW45151   5.162   9.552  11.203  0.3534 -0.0557  0.2939
44946SOL    HW145152   5.073   9.583  11.188  0.7734  1.0462 -0.0667
44946SOL    HW245153   5.217   9.620  11.164  1.3613 -0.4444  1.0131
44947SOL     OW45154   9.194  11.340   7.265  0.5304  0.4628 -0.1314
44947SOL    HW145155   9.235  11.426   7.266 -1.3896  1.4205 -0.8156
44947SOL    HW245156   9.238  11.293   7.193  0.4952  1.4407 -0.8073
44948SOL     OW45157   0.088   2.613   2.500 -0.7276  0.4894 -0.0721
44948SOL    HW145158   0.015   2.632   2.558  0.4321  0.6658  1.3914
44948SOL    HW245159   0.165   2.648   2.545  0.3618 -0.3107 -1.2243
44949SOL     OW45160   9.955  11.584  12.389 -0.0637 -0.0593  0.6077
44949SOL    HW145161  10.032  11.581  12.446  1.0951  0.2641 -0.8785
44949SOL    HW245162   9.990  11.576  12.301 -1.7879 -0.3251 -0.1009
44950SOL     OW45163   7.751  10.664   9.444  0.0826 -0.2427  0.1093
44950SOL    HW145164   7.692  10.590   9.431 -0.0057 -0.2207  0.3783
44950SOL    HW245165   7.702  10.725   9.500 -0.1297  0.3575 -0.7139
44951SOL     OW45166  11.379   2.340   6.703  0.2534 -0.0057 -0.8443
44951SOL    HW145167  11.295   2.324   6.745  0.3495 -0.0572 -0.6732
44951SOL    HW245168  11.425   2.400   6.761 -0.1033  0.9230 -1.4871
44952SOL     OW45169   7.265   0.403   1.275 -0.7014 -0.0603 -0.2144
44952SOL    HW145170   7.192   0.346   1.253 -1.2172  0.2912  0.5432
44952SOL    HW245171   7.335   0.343   1.301  0.0039 -0.5017 -2.9133
44953SOL     OW45172   2.761   2.528  11.284  0.4688 -0.2104 -0.0338
44953SOL    HW145173   2.726   2.447  11.322  1.5288 -0.4080  0.5508
44953SOL    HW245174   2.855   2.512  11.277  0.8511  1.3766  1.0864
44954SOL     OW45175   7.293   2.039  10.401  0.0463  0.2579  0.0572
44954SOL    HW145176   7.275   2.127  10.436 -0.3767  0.6921 -1.1997
44954SOL    HW245177   7.320   1.988  10.478 -0.0251  1.3928  0.8673
44955SOL     OW45178   3.416  12.539   7.470 -0.3931  0.1184  0.5901
44955SOL    HW145179   3.384  12.490   7.394 -0.3840  0.1309  0.5776
44955SOL    HW245180   3.462  12.474   7.523 -0.2876  0.1341  0.5195
44956SOL     OW45181  12.348   8.681   4.408 -0.9212  0.3039 -0.1977
44956SOL    HW145182  12.415   8.748   4.395 -0.8115  0.2260 -0.0380
44956SOL    HW245183  12.351   8.662   4.501 -0.2462 -0.6622 -0.4092
44957SOL     OW45184   8.628  10.440   7.291 -0.1687  0.3955 -0.4985
44957SOL    HW145185   8.536  10.414   7.288 -0.0907  0.0057  0.2608
44957SOL    HW245186   8.676  10.357   7.287  0.1172  0.5147  0.3711
44958SOL     OW45187   3.307   8.641   3.017  0.5928 -0.1943 -0.0322
44958SOL    HW145188   3.395   8.615   2.988  1.8452  1.7400  1.7358
44958SOL    HW245189   3.278   8.704   2.952 -0.8552 -2.8714 -2.2309
44959SOL     OW45190   4.376   3.763   0.492 -0.1119 -0.0541 -0.2576
44959SOL    HW145191   4.331   3.838   0.454 -2.2487 -0.7491  0.7101
44959SOL    HW245192   4.333   3.687   0.453  0.6617 -0.7670  0.2317
44960SOL     OW45193  12.613   4.403   3.934  0.0699  0.1134 -0.3582
44960SOL    HW145194  12.686   4.463   3.950 -0.7622  0.8801  0.7136
44960SOL    HW245195  12.653   4.316   3.938  1.0979  0.5421 -0.7812
44961SOL     OW45196   5.248  11.953   1.616 -0.2420 -0.4739 -0.2664
44961SOL    HW145197   5.183  11.926   1.681 -0.8456 -0.2806 -0.7720
44961SOL    HW245198   5.302  12.018   1.662 -0.9504  0.0060 -0.0898
44962SOL     OW45199   6.274  10.100   5.177 -0.1932 -0.2967 -0.2197
44962SOL    HW145200   6.354  10.059   5.210  0.0977  0.1234 -0.3806
44962SOL    HW245201   6.301  10.143   5.096  0.3617  2.9590  1.4978
44963SOL     OW45202   6.253  11.978   8.891 -0.3741  0.2014 -0.7449
44963SOL    HW145203   6.265  12.015   8.803 -1.7430 -0.4520 -1.2340
44963SOL    HW245204   6.303  11.897   8.890 -0.8153 -0.0711 -1.1084
44964SOL     OW45205   5.540   7.887   7.313  0.8839  0.1662 -0.2152
44964SOL    HW145206   5.576   7.903   7.401  2.1196  1.0914 -0.8504
44964SOL    HW245207   5.478   7.958   7.300  1.1241  0.3626 -0.3029
44965SOL     OW45208  10.420   1.576   0.904 -0.1276 -0.4547  0.2555
44965SOL    HW145209  10.514   1.575   0.890 -0.2501  0.4207 -0.7773
44965SOL    HW245210  10.386   1.508   0.845 -0.2155 -0.1921  0.0036
44966SOL     OW45211   4.042   9.835   2.723 -0.1289 -0.0235 -0.3674
44966SOL    HW145212   4.108   9.792   2.669 -0.0940 -1.9432  1.0595
44966SOL    HW245213   3.969   9.853   2.663  1.5124  1.9273 -1.9184
44967SOL     OW45214   0.513   7.379   5.707  0.2055 -0.0225  1.0876
44967SOL    HW145215   0.528   7.347   5.796  0.7084 -1.1571  0.6132
44967SOL    HW245216   0.481   7.468   5.719  0.2186 -0.1737  2.4070
44968SOL     OW45217   8.217  11.784  10.029 -0.0485  0.4680 -0.0613
44968SOL    HW145218   8.306  11.750  10.016 -0.4776 -0.2339 -1.3256
44968SOL    HW245219   8.164  11.706  10.048 -0.3922  0.8912  0.7832
44969SOL     OW45220   9.940   9.866   4.435 -0.3226 -0.2248  0.6729
44969SOL    HW145221   9.984   9.950   4.452  0.0401 -0.3888  0.5369
44969SOL    HW245222  10.001   9.800   4.466 -0.6309 -0.4412  0.8251
44970SOL     OW45223  10.075  11.747   3.261 -0.3710 -0.3172 -0.1335
44970SOL    HW145224  10.109  11.710   3.342  0.8526  1.5264  0.2364
44970SOL    HW245225   9.987  11.709   3.253 -0.2616 -1.0535  1.6750
44971SOL     OW45226  12.247   1.136   9.391  1.0013  0.6312 -0.9266
44971SOL    HW145227  12.306   1.083   9.445 -1.4481 -0.8887  0.4380
44971SOL    HW245228  12.273   1.227   9.411  0.0231  0.1883  3.2731
44972SOL     OW45229   9.796   0.252  12.186  0.0123  0.1402  0.6716
44972SOL    HW145230   9.740   0.217  12.116 -1.6185 -0.0894  2.0220
44972SOL    HW245231   9.758   0.337  12.207  1.0088  0.5854  0.7053
44973SOL     OW45232   3.746  11.070  10.693  0.4509 -0.2979  0.0002
44973SOL    HW145233   3.840  11.054  10.706  0.9523  0.6743 -2.0156
44973SOL    HW245234   3.742  11.151  10.643 -1.4547 -0.6013 -0.4193
44974SOL     OW45235   7.281   0.448   7.234  0.1501  0.0504 -0.5531
44974SOL    HW145236   7.228   0.508   7.287  1.6047  2.0035 -1.2013
44974SOL    HW245237   7.293   0.494   7.151  1.1647 -1.2467 -1.1555
44975SOL     OW45238   8.666  12.476   9.654  0.0914 -0.0963 -0.6463
44975SOL    HW145239   8.644  12.556   9.702 -1.5626 -0.2709 -1.0340
44975SOL    HW245240   8.681  12.411   9.723  0.2912  0.2728 -0.3384
44976SOL     OW45241  10.676   8.555   2.443 -0.2861  0.4228 -0.4365
44976SOL    HW145242  10.757   8.513   2.415  0.4403  0.3176  1.6950
44976SOL    HW245243  10.616   8.482   2.460 -0.7230  0.4875 -1.5626
44977SOL     OW45244   8.062   4.303   7.690 -0.2243  0.1917 -0.0636
44977SOL    HW145245   8.027   4.340   7.771 -0.6913 -1.1986  0.4056
44977SOL    HW245246   8.147   4.345   7.680 -0.2332  0.5278  1.0617
44978SOL     OW45247  10.196   4.689   9.506 -0.5304  0.2451  0.0309
44978SOL    HW145248  10.167   4.639   9.582 -0.1358  1.1048  0.7536
44978SOL    HW245249  10.279   4.729   9.532 -0.8041  1.2317 -0.5473
44979SOL     OW45250   0.125   5.884   9.081  0.1675 -0.4806  0.1602
44979SOL    HW145251   0.167   5.900   9.165 -0.0908 -1.5878  0.5119
44979SOL    HW245252   0.034   5.914   9.094  0.0012 -1.0903  0.4351
44980SOL     OW45253   9.150   0.215  12.649  0.0629  0.1417  0.8707
44980SOL    HW145254   9.198   0.140  12.614  1.1376  1.4545 -0.5931
44980SOL    HW245255   9.075   0.226  12.590 -1.1246 -0.8118  2.1208
44981SOL     OW45256   1.187  12.651  10.437 -0.3504  0.0634  0.2737
44981SOL    HW145257   1.168  12.639  10.530  1.4855 -2.7234  0.4075
44981SOL    HW245258   1.282  12.663  10.432 -0.2548 -0.9215 -1.2635
44982SOL     OW45259   6.514  12.169  11.112 -0.2591  0.3333 -0.2366
44982SOL    HW145260   6.606  12.156  11.089 -0.7870 -0.2010 -2.2666
44982SOL    HW245261   6.465  12.129  11.040 -2.1083 -0.1689  1.2125
44983SOL     OW45262   0.079   5.977   0.418  0.1890  0.8585 -0.0092
44983SOL    HW145263   0.089   6.018   0.504  1.4372  0.0667  0.2626
44983SOL    HW245264   0.153   5.915   0.413 -0.2142  0.4580 -1.4009
44984SOL     OW45265  12.721   4.379   5.024 -0.2308  0.4765  0.0941
44984SOL    HW145266  12.673   4.379   5.107  0.3219 -3.0221  0.5993
44984SOL    HW245267  12.811   4.356   5.049  0.3942  1.2759 -1.3317
44985SOL     OW45268   1.802  10.760  10.331  0.4330 -0.1956  0.0028
44985SOL    HW145269   1.787  10.785  10.240  1.2165 -2.0826 -0.7099
44985SOL    HW245270   1.758  10.676  10.340 -2.0053  1.1880  2.2232
44986SOL     OW45271   3.727   3.862   7.922 -0.2226  0.3708  0.4115
44986SOL    HW145272   3.700   3.820   7.841 -0.2806 -1.8936  1.5181
44986SOL    HW245273   3.798   3.921   7.897 -0.4435 -0.0490 -1.2901
44987SOL     OW45274  10.731  11.470   6.176 -0.5912 -0.6884  0.0633
44987SOL    HW145275  10.761  11.473   6.266  1.1872 -1.9043 -0.4346
44987SOL    HW245276  10.798  11.516   6.126 -1.9184  0.6346 -0.5927
44988SOL     OW45277   4.051  12.055  12.408  0.2740 -0.1962 -0.3961
44988SOL    HW145278   3.966  12.047  12.453  0.0887  0.7828 -0.5542
44988SOL    HW245279   4.077  12.146  12.422  1.7503 -0.7294  0.4231
44989SOL     OW45280   1.373   9.048   9.835  0.5032 -0.3582 -0.3522
44989SOL    HW145281   1.300   9.068   9.776  2.0518  1.5265 -1.7448
44989SOL    HW245282   1.446   9.027   9.778  1.0117 -2.7017  1.0252
44990SOL     OW45283   4.579   4.796   3.107  0.4230 -0.4715 -0.9182
44990SOL    HW145284   4.605   4.824   3.019  1.6668 -0.8238 -0.6738
44990SOL    HW245285   4.530   4.715   3.094 -0.0936 -0.0976 -1.3406
44991SOL     OW45286   3.385   7.604   7.370 -0.4865 -0.9434  0.2100
44991SOL    HW145287   3.357   7.595   7.461  0.7390 -0.8821  0.6095
44991SOL    HW245288   3.415   7.517   7.345 -0.3127 -0.8372  0.0458
44992SOL     OW45289   7.156   0.109   9.255 -0.0294 -0.1043 -0.5954
44992SOL    HW145290   7.129   0.021   9.231 -1.4369 -0.0452  0.6269
44992SOL    HW245291   7.223   0.096   9.323  0.3118 -0.2366 -0.9570
44993SOL     OW45292   2.642   7.577   8.148  0.2314  0.5782  0.4391
44993SOL    HW145293   2.621   7.518   8.076  2.3154 -0.9974  1.0508
44993SOL    HW245294   2.632   7.665   8.110 -1.2789 -0.1510 -0.9763
44994SOL     OW45295   5.349   0.736   4.208  1.1695  0.0362  0.5678
44994SOL    HW145296   5.359   0.821   4.252 -1.3340  0.9321 -0.4092
44994SOL    HW245297   5.257   0.734   4.182  1.1788 -2.9901  0.4923
44995SOL     OW45298  11.988   5.239   7.394  0.1663 -0.5112  0.2606
44995SOL    HW145299  12.061   5.298   7.411  1.3209 -1.7215 -0.2608
44995SOL    HW245300  11.934   5.284   7.330  0.8448  0.1154  0.1211
44996SOL     OW45301  10.693   8.723   8.625  0.2137  0.3517  0.7284
44996SOL    HW145302  10.727   8.714   8.536  0.8402 -4.4861  1.1753
44996SOL    HW245303  10.599   8.710   8.617 -0.2745  3.2115  0.6063
44997SOL     OW45304   3.256   9.072   0.541 -0.2778 -0.2455  0.0902
44997SOL    HW145305   3.171   9.050   0.504 -0.3316 -2.0707  1.1698
44997SOL    HW245306   3.248   9.163   0.569 -0.6768  0.7825 -2.9759
44998SOL     OW45307  11.883   2.911   3.267  0.0804  0.2460 -0.1096
44998SOL    HW145308  11.953   2.940   3.209 -0.4200  1.2565 -0.2412
44998SOL    HW245309  11.923   2.911   3.354  0.3630  0.4184 -0.2378
44999SOL     OW45310   6.846   8.678   6.345  0.0992 -0.0340 -0.1277
44999SOL    HW145311   6.927   8.714   6.381 -0.3868  1.2534 -0.2839
44999SOL    HW245312   6.777   8.710   6.403 -0.3177 -1.1609  0.0394
45000SOL     OW45313   5.701  11.619   7.738 -0.4861  0.2087  0.0907
45000SOL    HW145314   5.702  11.533   7.696 -1.8487  0.1727  0.0638
45000SOL    HW245315   5.792  11.649   7.735 -0.0767 -1.0135 -0.3347
45001SOL     OW45316  11.755   8.056   5.341  0.1190  0.1794 -0.4046
45001SOL    HW145317  11.849   8.055   5.325  0.0010  1.0320 -1.2302
45001SOL    HW245318  11.730   8.148   5.333 -0.7907 -0.0376 -0.2023
45002SOL     OW45319   5.572   6.924   7.764 -0.5860  0.0712  0.7832
45002SOL    HW145320   5.583   6.858   7.832  2.6054 -0.9978 -0.5770
45002SOL    HW245321   5.630   6.995   7.789  0.5088 -0.2659 -0.6526
45003SOL     OW45322   2.017   9.758   2.904  0.3136 -0.7459  0.0333
45003SOL    HW145323   1.930   9.781   2.934  1.5533  0.3259  3.1869
45003SOL    HW245324   2.074   9.826   2.940  2.4865 -1.3313 -2.0045
45004SOL     OW45325   8.915   3.819   3.636 -0.6027  0.6795 -0.2988
45004SOL    HW145326   8.943   3.737   3.677  1.5012  0.8919 -1.2120
45004SOL    HW245327   8.825   3.831   3.667 -1.1361 -2.1560 -0.4266
45005SOL     OW45328   2.207   8.667   2.479 -0.1785 -0.5826 -0.4633
45005SOL    HW145329   2.163   8.627   2.404 -0.4276 -0.9850 -0.1087
45005SOL    HW245330   2.290   8.699   2.444  0.0862 -1.5328 -0.7404
45006SOL     OW45331  11.351   4.741   5.922  0.0091  0.1149  0.2965
45006SOL    HW145332  11.290   4.681   5.965  0.7158  0.5839  2.0649
45006SOL    HW245333  11.299   4.819   5.902 -0.1636  0.2241  1.1219
45007SOL     OW45334   7.968   9.154   3.473 -0.0099 -0.4101  0.0701
45007SOL    HW145335   8.010   9.071   3.495 -1.2671 -0.5001  2.3685
45007SOL    HW245336   7.887   9.130   3.429  0.9078 -0.2888 -1.7786
45008SOL     OW45337  11.973   9.292   2.041  0.2291 -0.5096 -0.3886
45008SOL    HW145338  12.041   9.237   2.003  1.3077  0.6651 -0.2019
45008SOL    HW245339  12.001   9.381   2.024  0.3831  0.0869  2.4772
45009SOL     OW45340  10.558   7.672  12.126 -0.0421 -0.3432  0.3355
45009SOL    HW145341  10.482   7.687  12.182  0.0052 -0.8711  0.5482
45009SOL    HW245342  10.618   7.620  12.180  0.5451  0.2043  0.2294
45010SOL     OW45343  12.061   4.983   5.653  0.1001  0.1701 -0.0738
45010SOL    HW145344  12.067   4.888   5.654 -0.0637  0.1433 -0.7259
45010SOL    HW245345  12.100   5.008   5.569 -0.7575  0.6024 -0.3640
45011SOL     OW45346   9.677   5.190   1.854 -0.4869  0.4666 -0.0194
45011SOL    HW145347   9.755   5.179   1.909  0.4164  0.1994 -1.3086
45011SOL    HW245348   9.613   5.231   1.911  0.6838  0.9285  1.0023
45012SOL     OW45349   2.611   9.304   9.731  0.2269  0.1460  0.4028
45012SOL    HW145350   2.608   9.216   9.695 -1.9996 -0.0287  0.8553
45012SOL    HW245351   2.598   9.361   9.655  0.2662  0.0166  0.2985
45013SOL     OW45352   6.631  10.516   9.674  0.0379  0.4567  0.0426
45013SOL    HW145353   6.643  10.500   9.581 -0.8261  2.9402 -0.5536
45013SOL    HW245354   6.717  10.499   9.713  1.0922  1.7735 -1.6026
45014SOL     OW45355   3.515  10.953   8.901 -0.1666  0.2810 -0.1566
45014SOL    HW145356   3.478  11.003   8.974  0.7553 -0.6238  0.9868
45014SOL    HW245357   3.443  10.899   8.869 -0.5992  0.7372  0.0410
45015SOL     OW45358   8.403   0.243   4.471  0.1032 -0.1215 -0.0603
45015SOL    HW145359   8.427   0.154   4.446  1.9420  0.3513 -0.1669
45015SOL    HW245360   8.367   0.235   4.559  0.3678 -0.9523 -0.0159
45016SOL     OW45361   4.449   1.738   1.944 -0.3970  0.0065  0.1184
45016SOL    HW145362   4.485   1.825   1.961  3.6284 -0.9617 -2.1169
45016SOL    HW245363   4.413   1.743   1.856  0.2051 -0.6393 -0.1741
45017SOL     OW45364   0.750   2.426   1.746 -0.3076 -0.4118  0.2605
45017SOL    HW145365   0.786   2.371   1.815 -1.4035 -2.4441 -0.7002
45017SOL    HW245366   0.811   2.418   1.673  0.7622  1.6015  0.8500
45018SOL     OW45367   2.583   2.563   8.193  0.3255 -0.3399 -0.3424
45018SOL    HW145368   2.604   2.657   8.191  0.7847 -0.4442 -0.7780
45018SOL    HW245369   2.488   2.559   8.177  0.3797  0.0317 -0.7875
45019SOL     OW45370   0.616   9.214   0.352  0.0794  0.0661 -1.0083
45019SOL    HW145371   0.650   9.282   0.410 -0.3636 -1.1535  0.7409
45019SOL    HW245372   0.585   9.145   0.410 -2.1211 -0.4369 -2.6252
45020SOL     OW45373  12.104   1.173  12.127 -0.4212 -0.2126 -0.1714
45020SOL    HW145374  12.044   1.151  12.056  0.0953  0.4989 -0.8308
45020SOL    HW245375  12.046   1.189  12.203 -0.8791 -3.2457  0.2439
45021SOL     OW45376   7.527  12.391   7.928 -0.1381  0.6959 -0.1585
45021SOL    HW145377   7.459  12.455   7.951 -0.2882  0.7657 -0.7856
45021SOL    HW245378   7.540  12.402   7.834 -0.0096 -0.0459 -0.2344
45022SOL     OW45379  11.648   9.690   0.623  0.2815  0.4759 -0.5085
45022SOL    HW145380  11.570   9.732   0.587  0.3058 -0.0162 -1.1495
45022SOL    HW245381  11.620   9.657   0.708 -0.5868 -0.8090 -1.2670
45023SOL     OW45382   7.671   1.203  12.871  0.5798  0.2748 -0.0089
45023SOL    HW145383   7.596   1.263  12.873 -0.0902 -0.4134 -1.9686
45023SOL    HW245384   7.746   1.257  12.892 -0.4293  0.9654  2.1605
45024SOL     OW45385   0.355   2.085   1.117 -0.2376 -0.1153 -0.0497
45024SOL    HW145386   0.406   2.029   1.175 -1.8846 -1.1667  0.4616
45024SOL    HW245387   0.412   2.103   1.043  2.1688  1.7267  2.0770
45025SOL     OW45388   0.364   0.883  10.498  0.3404 -0.4157  0.4265
45025SOL    HW145389   0.271   0.905  10.489  0.7194  0.6905 -1.1280
45025SOL    HW245390   0.393   0.867  10.408  1.2490 -2.6016  1.0488
45026SOL     OW45391   6.084   0.062   1.129 -0.2327 -0.3791 -0.7769
45026SOL    HW145392   6.058   0.138   1.181  0.2916  0.8067 -2.1629
45026SOL    HW245393   6.154   0.021   1.180 -1.1744 -0.5019  0.4458
45027SOL     OW45394   1.370  12.428   6.153  0.2229  0.3015  0.0857
45027SOL    HW145395   1.288  12.402   6.194 -0.0564  1.8376  0.5679
45027SOL    HW245396   1.376  12.523   6.167  1.5936  0.3920 -0.8070
45028SOL     OW45397   1.767  11.048  12.815 -0.0876 -0.0125 -0.5056
45028SOL    HW145398   1.758  11.109  12.889  0.4462  0.5872 -0.9251
45028SOL    HW245399   1.781  11.104  12.739  1.9346 -0.6754 -0.6841
45029SOL     OW45400  12.710   0.681   7.298  0.3224  0.3620 -0.1545
45029SOL    HW145401  12.708   0.587   7.282 -0.7088  0.4460 -0.5562
45029SOL    HW245402  12.770   0.691   7.372  2.0904 -0.3917 -1.4126
45030SOL     OW45403   6.805   8.447   6.006 -0.1412 -0.5187  0.2459
45030SOL    HW145404   6.864   8.515   5.972  0.4298 -1.3662 -0.4873
45030SOL    HW245405   6.734   8.496   6.048  0.2411  0.5306 -0.3028
45031SOL     OW45406   7.919  10.317   1.360  0.3173  0.8835 -0.3143
45031SOL    HW145407   7.953  10.376   1.293 -1.7812  2.0482 -0.4480
45031SOL    HW245408   7.891  10.374   1.431  0.0275 -0.1224  0.4125
45032SOL     OW45409  11.712   3.445   0.371 -0.1852  0.1355 -0.2965
45032SOL    HW145410  11.801   3.447   0.405 -0.1135  0.0960 -0.4793
45032SOL    HW245411  11.720   3.481   0.282 -0.0392 -1.5966 -1.0229
45033SOL     OW45412   9.644   9.791  11.503  0.1555 -0.2115 -0.4894
45033SOL    HW145413   9.620   9.812  11.413 -0.3651 -1.3814 -0.6331
45033SOL    HW245414   9.730   9.750  11.496 -1.0993 -2.9582 -0.8053
45034SOL     OW45415  11.578   6.545   6.828 -0.4156 -0.3794 -0.3480
45034SOL    HW145416  11.631   6.579   6.901 -1.8643  0.8139  0.1963
45034SOL    HW245417  11.607   6.596   6.753 -0.1094 -0.4140 -0.2550
45035SOL     OW45418   8.907   8.087  10.859  0.5121 -0.0493  0.1156
45035SOL    HW145419   8.888   8.099  10.766  1.4652 -0.3762 -0.1310
45035SOL    HW245420   8.841   8.026  10.890 -0.5468  0.9739 -0.0591
45036SOL     OW45421   4.398   8.600  11.438 -0.1506 -0.2479 -0.2594
45036SOL    HW145422   4.312   8.575  11.472 -0.6134  2.4442  0.7913
45036SOL    HW245423   4.378   8.648  11.357  0.2970  0.7514  0.2067
45037SOL     OW45424  12.268   7.747   6.980 -0.0643 -0.1829 -0.2185
45037SOL    HW145425  12.322   7.787   7.047  0.1111 -1.1690  0.2482
45037SOL    HW245426  12.310   7.771   6.897  0.2954  0.2024  0.0747
45038SOL     OW45427   2.911  10.955   7.010 -0.2268 -0.0367 -0.5253
45038SOL    HW145428   2.845  10.929   6.945 -1.2293 -1.2888  0.9213
45038SOL    HW245429   2.892  10.901   7.086  0.6034  1.7198  1.0067
45039SOL     OW45430   8.400   9.622   2.053 -0.8029 -0.6156  0.1494
45039SOL    HW145431   8.447   9.580   1.981 -0.6629  1.3604 -0.9902
45039SOL    HW245432   8.386   9.552   2.117  0.3897 -2.0950 -1.1288
45040SOL     OW45433   9.831   1.830   1.413  0.1994  0.0543 -0.3031
45040SOL    HW145434   9.804   1.738   1.419  1.2412 -0.2097  0.6921
45040SOL    HW245435   9.904   1.829   1.351  1.0549 -0.0171  0.6742
45041SOL     OW45436   7.679   6.980   2.152  0.6691 -0.4191  0.3103
45041SOL    HW145437   7.593   6.948   2.181 -0.3797  0.8107 -1.2167
45041SOL    HW245438   7.737   6.904   2.159 -0.3533 -1.0989  2.0557
45042SOL     OW45439   4.914   9.785   8.182  0.2660 -0.3892 -0.5444
45042SOL    HW145440   4.933   9.817   8.270  1.6009 -0.1539 -0.8980
45042SOL    HW245441   4.859   9.707   8.196  1.6148 -1.1854  0.5702
45043SOL     OW45442   2.039   6.009   8.425 -0.1349 -0.2297  0.7653
45043SOL    HW145443   1.974   5.995   8.356  1.1819  0.2791 -0.6509
45043SOL    HW245444   2.122   6.017   8.377  0.8258  0.0977  2.4349
45044SOL     OW45445   2.652   7.815  12.955 -0.3230  0.0062  0.3951
45044SOL    HW145446   2.676   7.725  12.934 -0.1116  0.1984 -0.2130
45044SOL    HW245447   2.705   7.868  12.895  2.0987  0.6986  2.9035
45045SOL     OW45448  11.704   2.469   5.132  0.3159 -0.0671  0.2186
45045SOL    HW145449  11.614   2.485   5.104 -0.1910 -1.4201  0.9673
45045SOL    HW245450  11.729   2.388   5.086  0.9547  0.0037  0.4310
45046SOL     OW45451  10.559   1.377  12.829  0.3182  0.1934  0.1135
45046SOL    HW145452  10.644   1.388  12.870  0.3717 -1.2446  0.4320
45046SOL    HW245453  10.553   1.448  12.766  0.9656  1.4182  1.3882
45047SOL     OW45454   7.067   9.722   8.178 -0.1011  0.1323 -0.7240
45047SOL    HW145455   6.999   9.682   8.123  0.4598 -2.4778  0.3261
45047SOL    HW245456   7.069   9.667   8.256  1.6709  1.5362  0.2734
45048SOL     OW45457  11.568   9.220   4.846 -0.4840 -0.1998  0.0287
45048SOL    HW145458  11.603   9.215   4.935 -1.5047 -0.4254  0.4374
45048SOL    HW245459  11.502   9.289   4.850 -0.1026  0.2174 -0.7177
45049SOL     OW45460  10.523  10.893   8.362 -0.2385  0.2084 -0.2369
45049SOL    HW145461  10.548  10.858   8.448 -0.1806 -0.4770 -0.5293
45049SOL    HW245462  10.539  10.821   8.301 -1.3794  0.3072 -0.6674
45050SOL     OW45463   9.791   7.322   1.915  0.3180 -0.0858 -0.0935
45050SOL    HW145464   9.846   7.314   1.993  0.2170 -0.6796 -0.0814
45050SOL    HW245465   9.705   7.291   1.943  0.8545 -2.7051 -1.0687
45051SOL     OW45466   7.258   5.205   4.611  0.3750 -0.0107 -0.2429
45051SOL    HW145467   7.267   5.297   4.590  0.9910  0.5558  2.2034
45051SOL    HW245468   7.342   5.166   4.586  0.0086  0.0012 -1.5489
45052SOL     OW45469   0.793   8.505   4.310  0.1118 -0.4063 -0.0299
45052SOL    HW145470   0.817   8.494   4.402  1.6837 -0.2007 -0.3867
45052SOL    HW245471   0.875   8.530   4.267 -0.6111 -0.4516 -1.4809
45053SOL     OW45472   2.718   0.981   2.926  0.3375  0.3769  0.4267
45053SOL    HW145473   2.622   0.987   2.927  0.4123  2.0955  0.3447
45053SOL    HW245474   2.742   1.002   2.836  0.7799 -0.6803  0.2856
45054SOL     OW45475   3.736   4.834   5.842  0.0405  0.7249 -0.1409
45054SOL    HW145476   3.821   4.867   5.873 -0.0172  1.9275 -1.2027
45054SOL    HW245477   3.718   4.885   5.763 -1.2469 -0.1632 -0.4392
45055SOL     OW45478   9.546  10.065   4.520  0.4545 -0.3414 -0.1286
45055SOL    HW145479   9.605   9.995   4.492  0.8573  0.6594 -1.9290
45055SOL    HW245480   9.594  10.113   4.586  1.2238 -0.2242 -0.7605
45056SOL     OW45481   9.788   1.292   0.169  0.2780 -0.0013 -0.3222
45056SOL    HW145482   9.846   1.221   0.195  0.4632  0.5062  0.7417
45056SOL    HW245483   9.783   1.286   0.074  2.6879  0.3864 -0.5321
45057SOL     OW45484   4.146   8.475  11.520 -0.8900 -0.1951 -0.3304
45057SOL    HW145485   4.087   8.433  11.458 -0.5739 -0.3929 -0.5026
45057SOL    HW245486   4.134   8.426  11.602 -1.1754 -0.0478 -0.2816
45058SOL     OW45487   6.027   2.746   4.865  0.2721  0.5497  0.1324
45058SOL    HW145488   5.934   2.733   4.848  0.6129  0.3726 -1.8864
45058SOL    HW245489   6.061   2.657   4.877  0.2935  0.5624  0.1635
45059SOL     OW45490   9.361   0.530  10.564  0.6811  0.0721  0.4337
45059SOL    HW145491   9.294   0.587  10.525  1.0943  0.6669  0.5867
45059SOL    HW245492   9.432   0.530  10.500  0.3416 -0.9666  0.0360
45060SOL     OW45493   3.142  10.987   5.608 -0.3771  0.1031  0.0942
45060SOL    HW145494   3.203  10.973   5.681 -0.4754 -1.0491 -0.0373
45060SOL    HW245495   3.197  11.022   5.537  0.1771 -1.1188 -0.0917
45061SOL     OW45496   8.383  12.745   0.158  0.0707 -0.1184 -0.2911
45061SOL    HW145497   8.302  12.735   0.109 -0.1220 -1.1096  0.2067
45061SOL    HW245498   8.452  12.745   0.091 -0.3325  0.9274 -0.7292
45062SOL     OW45499   6.465   7.012   7.700  0.0540  0.6478  0.3797
45062SOL    HW145500   6.397   7.077   7.718 -1.7728 -0.9453 -0.4548
45062SOL    HW245501   6.488   6.977   7.787 -1.2105  0.2581  0.5794
45063SOL     OW45502   8.636   9.099   8.375  0.3074  0.0205 -0.4204
45063SOL    HW145503   8.645   9.040   8.300 -0.2373 -2.1944  1.1387
45063SOL    HW245504   8.623   9.040   8.449 -1.0730  2.1596  1.1444
45064SOL     OW45505  10.269   3.558   9.215 -0.5192  0.3811  0.2023
45064SOL    HW145506  10.337   3.612   9.255  0.9905 -2.0625  1.1985
45064SOL    HW245507  10.195   3.564   9.276 -0.1358  0.8129  0.6365
45065SOL     OW45508   2.772  11.480   0.507 -0.1058  0.1103 -0.0000
45065SOL    HW145509   2.849  11.455   0.456  1.2653  1.0023  1.5278
45065SOL    HW245510   2.722  11.399   0.516  1.1474 -0.7234 -0.2175
45066SOL     OW45511   1.387  11.017   0.575  0.0082  0.1372 -0.3882
45066SOL    HW145512   1.472  11.055   0.599 -0.0569  0.1864 -0.2329
45066SOL    HW245513   1.375  10.945   0.636 -0.2525  0.3891 -0.1367
45067SOL     OW45514   0.325  10.971   8.060 -0.1596  0.2440  0.2797
45067SOL    HW145515   0.250  11.028   8.042 -0.4481 -0.5295 -1.1061
45067SOL    HW245516   0.370  10.963   7.975  1.8491  1.1471  1.1770
45068SOL     OW45517  10.563   7.359   8.022  0.1105  0.5454 -0.8204
45068SOL    HW145518  10.607   7.293   7.969  2.1865  0.8975  0.3792
45068SOL    HW245519  10.490   7.388   7.968  1.2656 -0.1711 -2.8592
45069SOL     OW45520   1.046  12.621   6.837  0.2122 -0.1862 -0.4047
45069SOL    HW145521   1.046  12.535   6.796  0.7270  0.3214 -1.4921
45069SOL    HW245522   0.980  12.671   6.789 -0.8526 -0.2725  0.9127
45070SOL     OW45523  11.137  12.907   5.112  0.2772  0.1598  0.0761
45070SOL    HW145524  11.204  12.930   5.176  0.1863  0.4897  0.0584
45070SOL    HW245525  11.183  12.861   5.043  0.8575  2.1352 -0.9330
45071SOL     OW45526   1.047   8.813   2.498 -0.5388  0.1513  0.3348
45071SOL    HW145527   1.050   8.764   2.416  0.2376 -0.5011  0.7434
45071SOL    HW245528   1.078   8.901   2.475 -0.4642  0.0133 -0.0961
45072SOL     OW45529   3.770   2.409   3.201  0.3715 -0.2877 -0.6219
45072SOL    HW145530   3.842   2.409   3.137  1.2668  0.0012  0.3458
45072SOL    HW245531   3.733   2.497   3.194 -0.1692 -0.5692 -1.4152
45073SOL     OW45532   0.354  11.510  11.041 -1.0875  0.0018 -0.4432
45073SOL    HW145533   0.369  11.504  10.946  0.0296 -2.1951 -0.2029
45073SOL    HW245534   0.357  11.419  11.071  1.2884  0.7641  2.0519
45074SOL     OW45535   8.482  11.631   9.468 -0.3803  0.6636 -0.1865
45074SOL    HW145536   8.463  11.653   9.560 -0.4587  0.2643 -0.1032
45074SOL    HW245537   8.565  11.676   9.449 -1.6531  2.8869 -0.7334
45075SOL     OW45538   4.681  10.763  11.637  0.0809  0.5044  0.0563
45075SOL    HW145539   4.691  10.768  11.732  0.5100  1.3715 -0.0260
45075SOL    HW245540   4.720  10.844  11.604 -2.1875  1.3782 -0.6928
45076SOL     OW45541   3.451   1.165   6.842  0.5943 -0.1211 -0.1038
45076SOL    HW145542   3.467   1.073   6.822  0.0859  0.0613 -1.4311
45076SOL    HW245543   3.383   1.163   6.911  2.0073 -0.7485  1.3394
45077SOL     OW45544   5.155   6.045   7.804 -0.2333  0.2697 -0.6597
45077SOL    HW145545   5.167   5.966   7.856 -0.1419  0.4721 -0.3688
45077SOL    HW245546   5.150   6.014   7.713 -0.7107 -0.1147 -0.5033
45078SOL     OW45547   3.378  10.123   8.805  0.0872  0.0885 -0.6135
45078SOL    HW145548   3.409  10.165   8.885  1.0984  0.2517 -1.0726
45078SOL    HW245549   3.381  10.193   8.739 -2.6445  0.5059 -0.3912
45079SOL     OW45550  12.341   7.152   1.096 -0.2015 -0.1723  0.0823
45079SOL    HW145551  12.322   7.101   1.175 -0.6582 -1.4064 -0.7878
45079SOL    HW245552  12.420   7.113   1.060  0.7359  1.2017  0.5726
45080SOL     OW45553   2.775   0.403   7.115 -0.1756  0.5491  0.6394
45080SOL    HW145554   2.723   0.465   7.063  0.8589  0.7864 -0.1403
45080SOL    HW245555   2.825   0.353   7.050 -1.1646 -1.2967  1.2316
45081SOL     OW45556   6.951   5.663   5.827 -0.3373  0.2220  1.0497
45081SOL    HW145557   6.984   5.681   5.739  1.9558 -2.6846  1.1494
45081SOL    HW245558   6.997   5.724   5.883  1.0635 -0.3667  0.5812
45082SOL     OW45559   9.931   6.131   2.100  0.1706 -0.3472 -0.1758
45082SOL    HW145560   9.902   6.145   2.190 -0.1155 -2.3818  0.0837
45082SOL    HW245561   9.882   6.196   2.049  0.5492  1.0128  1.1442
45083SOL     OW45562   7.572   1.180   7.720  0.4467  0.3147  0.1902
45083SOL    HW145563   7.550   1.159   7.629 -0.6510 -0.3314  0.5892
45083SOL    HW245564   7.488   1.178   7.766  1.0741 -0.0541  1.3501
45084SOL     OW45565   6.025   4.830   1.972 -0.1124 -0.2546 -0.1197
45084SOL    HW145566   6.016   4.746   2.017 -1.4088  0.4998  1.0763
45084SOL    HW245567   6.089   4.812   1.902 -0.3107 -2.2045  0.1353
45085SOL     OW45568   2.583   7.369   1.873 -0.1155  1.1972 -0.4518
45085SOL    HW145569   2.663   7.419   1.861 -0.7227  2.1790 -0.4940
45085SOL    HW245570   2.523   7.428   1.919 -0.0246 -0.3097  1.7940
45086SOL     OW45571   2.921   0.739  11.305  0.3087  0.2081 -0.1865
45086SOL    HW145572   2.828   0.732  11.329 -0.5193  1.0768 -2.7646
45086SOL    HW245573   2.956   0.806  11.364 -1.4991  2.0323 -1.0499
45087SOL     OW45574   3.069   4.427   2.560  0.0827  0.1579  0.3874
45087SOL    HW145575   3.049   4.356   2.499  1.1944  0.9140 -0.9045
45087SOL    HW245576   2.985   4.471   2.574 -0.4215 -0.8004  0.4271
45088SOL     OW45577   2.962   8.809   5.300  0.3404 -0.1711 -0.0318
45088SOL    HW145578   2.998   8.737   5.249  3.5582 -0.2564  2.1123
45088SOL    HW245579   2.942   8.771   5.385 -2.4528  0.5447 -0.2502
45089SOL     OW45580  11.107   2.144  11.280 -0.1200 -1.1252 -0.0701
45089SOL    HW145581  11.133   2.203  11.350 -1.1362  0.3348 -0.8736
45089SOL    HW245582  11.169   2.071  11.286  1.5922  0.2990  0.5676
45090SOL     OW45583   3.461   4.509   5.419 -0.4305 -0.1874 -0.5326
45090SOL    HW145584   3.534   4.569   5.436  0.0753 -0.6709 -0.9654
45090SOL    HW245585   3.386   4.551   5.460 -0.1138  0.8176 -0.9504
45091SOL     OW45586   5.987   7.211   8.951 -0.4974  0.4951 -0.0831
45091SOL    HW145587   6.019   7.203   8.861  0.2912  1.7432  0.0740
45091SOL    HW245588   6.020   7.132   8.994 -0.1225  0.3234 -0.6652
45092SOL     OW45589   0.026   4.052   4.768  0.2113  0.4532  0.0717
45092SOL    HW145590  -0.001   4.021   4.855  0.3324  2.1930  0.7620
45092SOL    HW245591   0.079   4.129   4.786  1.6648 -0.1290 -1.5009
45093SOL     OW45592   9.957  10.356   6.554 -0.1049  0.1069  0.1350
45093SOL    HW145593   9.948  10.308   6.472  1.1894  0.9005 -0.5037
45093SOL    HW245594   9.995  10.293   6.615 -0.1941 -0.2204 -0.1457
45094SOL     OW45595  12.432   2.348   0.169 -0.0846  0.2379  0.2056
45094SOL    HW145596  12.421   2.427   0.116 -0.1986 -0.0417 -0.2023
45094SOL    HW245597  12.490   2.373   0.240  1.9401  0.0607 -1.3028
45095SOL     OW45598  10.293   0.160  11.219  0.2582 -0.5034 -0.0162
45095SOL    HW145599  10.383   0.189  11.210  0.0695  0.4649  0.9694
45095SOL    HW245600  10.289   0.119  11.305 -0.2938 -0.3079  0.0590
45096SOL     OW45601   4.954   8.570   1.772 -0.6816  0.4753 -0.6382
45096SOL    HW145602   4.962   8.488   1.822  1.4601  1.4386  0.7700
45096SOL    HW245603   5.031   8.570   1.715 -1.1963  1.0719 -1.3387
45097SOL     OW45604   9.081   8.732   9.094  0.4537 -0.5954 -0.4739
45097SOL    HW145605   9.122   8.695   9.172  1.1379 -0.2496 -0.6561
45097SOL    HW245606   9.008   8.784   9.128  0.0682 -1.3396 -0.1518
45098SOL     OW45607  10.545   6.538   5.429  0.3050 -0.4348  0.2529
45098SOL    HW145608  10.456   6.528   5.396  0.3676  0.1074 -0.0803
45098SOL    HW245609  10.596   6.473   5.380  0.0105 -1.0962  0.8007
45099SOL     OW45610   4.397   3.587  12.081  0.1775 -0.3320  0.1366
45099SOL    HW145611   4.322   3.559  12.133  1.2577  0.7827  2.4116
45099SOL    HW245612   4.466   3.524  12.103  0.5595 -0.0336 -0.1972
45100SOL     OW45613   5.347  10.213   7.317 -0.3965 -0.3228 -0.5482
45100SOL    HW145614   5.328  10.278   7.385  3.3575  0.6700 -0.2040
45100SOL    HW245615   5.315  10.130   7.354  1.4731  0.1672  2.5798
45101SOL     OW45616   4.105   6.835   4.928  0.0068  0.1101 -0.1774
45101SOL    HW145617   4.123   6.784   4.848 -0.7079 -1.0578  0.3882
45101SOL    HW245618   4.063   6.773   4.987  0.3007  1.0333  1.0315
45102SOL     OW45619  10.489  12.189   0.524 -0.5564  0.9607  0.7554
45102SOL    HW145620  10.573  12.227   0.501  0.4773 -1.7024 -0.2930
45102SOL    HW245621  10.430  12.216   0.453 -0.1160  1.3837  0.5515
45103SOL     OW45622  10.497   5.824   0.173 -0.7110 -0.0017  0.1230
45103SOL    HW145623  10.501   5.911   0.132  2.6479 -0.5944 -1.0903
45103SOL    HW245624  10.490   5.843   0.267  0.3139  1.6211 -0.0853
45104SOL     OW45625  12.521   1.625  10.694  0.0807  0.3209  0.3027
45104SOL    HW145626  12.519   1.587  10.782  0.2800 -1.2229 -0.3236
45104SOL    HW245627  12.449   1.582  10.648  1.8380 -1.2338 -1.1700
45105SOL     OW45628  10.720  12.798  10.004 -1.2244  0.1117  0.4513
45105SOL    HW145629  10.800  12.850  10.009 -2.1892  1.5860  1.1356
45105SOL    HW245630  10.713  12.755  10.089  0.0851 -2.0497 -0.4293
45106SOL     OW45631  12.983  10.168  10.369 -0.0356  0.1496 -0.0946
45106SOL    HW145632  12.913  10.190  10.308  0.2282 -1.7527 -1.1394
45106SOL    HW245633  13.053  10.132  10.315 -0.3765 -3.0336  1.3910
45107SOL     OW45634   3.854  10.666  10.180  0.3758  0.3538  0.4632
45107SOL    HW145635   3.898  10.605  10.120 -2.5796 -1.0003 -0.5125
45107SOL    HW245636   3.853  10.621  10.264 -1.1432 -0.7271 -0.0828
45108SOL     OW45637   5.583  10.139   7.543  0.6191 -0.0162  0.1020
45108SOL    HW145638   5.527  10.138   7.620  3.2145  1.4694  2.1794
45108SOL    HW245639   5.592  10.046   7.519 -0.7434 -0.4576  1.1635
45109SOL     OW45640   8.216   2.386   2.207 -0.1669  0.3460  0.1007
45109SOL    HW145641   8.142   2.326   2.196 -0.1197  0.5855 -1.7493
45109SOL    HW245642   8.215   2.408   2.300 -2.0336 -0.1436  0.2251
45110SOL     OW45643   8.079   8.609   2.760  0.6343 -0.1985 -0.7369
45110SOL    HW145644   8.104   8.518   2.772  1.7133  0.1642 -0.1311
45110SOL    HW245645   8.149   8.659   2.801 -0.4516  0.8921 -0.1643
45111SOL     OW45646   2.450  12.963   5.846 -0.0006  0.6450  0.3610
45111SOL    HW145647   2.481  13.035   5.902  0.6839  0.1485  0.6359
45111SOL    HW245648   2.445  12.888   5.905 -2.4621  0.8369  0.5057
45112SOL     OW45649   6.608   3.595   9.269  0.1492  0.4590  0.2303
45112SOL    HW145650   6.651   3.665   9.220  0.3798  0.4761  0.4572
45112SOL    HW245651   6.679   3.535   9.291 -0.0374  0.1841  0.0928
45113SOL     OW45652   8.369  12.319   2.830 -0.0364  0.2136  0.4182
45113SOL    HW145653   8.281  12.340   2.798  0.1384 -1.8838 -1.7523
45113SOL    HW245654   8.410  12.404   2.847 -1.5326  1.3411 -1.2891
45114SOL     OW45655  10.239   0.672   7.196  0.6285  0.9478  0.1397
45114SOL    HW145656  10.172   0.627   7.248  0.4543  0.8103 -0.2059
45114SOL    HW245657  10.283   0.602   7.148  0.7347  1.0869  0.0351
45115SOL     OW45658   6.823  11.057   7.430 -0.3730 -0.4699 -0.0420
45115SOL    HW145659   6.853  11.131   7.483  0.0393 -0.3306 -0.4616
45115SOL    HW245660   6.853  11.078   7.342  1.4332 -2.0420  0.1497
45116SOL     OW45661  10.615   2.112   8.160  0.0471 -0.5078 -0.4602
45116SOL    HW145662  10.602   2.162   8.241 -2.5266  0.4570 -1.3964
45116SOL    HW245663  10.692   2.152   8.119 -0.6329  1.2150 -0.1042
45117SOL     OW45664  10.726   3.306   0.298  0.2076  0.5368  0.4724
45117SOL    HW145665  10.718   3.400   0.316  1.6921  0.8273 -0.1941
45117SOL    HW245666  10.738   3.301   0.203 -0.4849 -0.3901  0.4224
45118SOL     OW45667   2.774   0.085   0.318  0.3809  0.3117  0.7908
45118SOL    HW145668   2.747   0.146   0.386  0.5920  1.4735 -0.1318
45118SOL    HW245669   2.864   0.110   0.297  0.4585 -0.2901  0.3620
45119SOL     OW45670  12.454   5.865   6.854  0.6966 -0.7085 -0.0200
45119SOL    HW145671  12.378   5.808   6.853  0.4730 -0.4302 -1.2451
45119SOL    HW245672  12.482   5.869   6.762  0.0976  1.9469 -0.1633
45120SOL     OW45673   4.249   2.969   6.227  0.0780 -0.0306  0.2119
45120SOL    HW145674   4.156   2.971   6.205 -0.2816 -0.0480  1.6838
45120SOL    HW245675   4.277   3.060   6.223  0.0089 -0.0272 -0.2501
45121SOL     OW45676  10.224   7.670   2.958  0.2249 -0.1151  0.3571
45121SOL    HW145677  10.165   7.693   2.886  1.0349  3.0668  0.5435
45121SOL    HW245678  10.166   7.637   3.027 -1.2575  1.7248  0.0723
45122SOL     OW45679   0.904   2.439   7.868  0.2466 -0.0067  0.7034
45122SOL    HW145680   0.995   2.452   7.842 -0.3635 -1.3200 -2.5042
45122SOL    HW245681   0.904   2.356   7.915  0.5801 -0.5999 -0.3131
45123SOL     OW45682   0.860   4.960   1.781 -0.3033 -0.0361  0.3431
45123SOL    HW145683   0.953   4.939   1.780 -0.0687  0.6742 -2.8022
45123SOL    HW245684   0.817   4.878   1.757 -0.2378  0.2802 -0.9176
45124SOL     OW45685  11.462  12.591   8.838 -0.0923 -0.2100 -0.3468
45124SOL    HW145686  11.537  12.646   8.818  0.1184 -0.3526  0.0494
45124SOL    HW245687  11.387  12.640   8.804  0.0691  0.4061  0.1617
45125SOL     OW45688   3.909   5.031   3.430 -0.4079 -0.1488  0.4600
45125SOL    HW145689   3.980   5.046   3.493 -0.7110 -0.0459  0.7782
45125SOL    HW245690   3.883   5.119   3.401  0.1518 -0.2162 -0.2885
45126SOL     OW45691   2.498  12.879   9.499  0.2800  0.2359 -0.5946
45126SOL    HW145692   2.430  12.931   9.456  0.5684  1.1631  0.0393
45126SOL    HW245693   2.451  12.830   9.566  0.2834  1.2713  0.1972
45127SOL     OW45694   9.309   0.769  11.613  0.1204  0.0612 -0.0652
45127SOL    HW145695   9.342   0.683  11.588 -1.2221 -0.5474  0.1904
45127SOL    HW245696   9.382   0.829  11.595  0.7705 -0.9983 -1.0589
45128SOL     OW45697   4.086  10.248   7.193 -0.4991 -0.6254  0.2945
45128SOL    HW145698   4.150  10.311   7.226 -0.8351 -1.3808  2.5772
45128SOL    HW245699   4.134  10.196   7.128  0.5969  0.1395  0.4721
45129SOL     OW45700   7.870  12.666   4.175  0.5445  0.7534 -0.0782
45129SOL    HW145701   7.805  12.689   4.242 -0.4190  1.1622 -1.1386
45129SOL    HW245702   7.899  12.578   4.199 -1.8197 -0.2498 -0.6487
45130SOL     OW45703   3.438   7.869   6.803 -0.3215 -0.5484  0.4267
45130SOL    HW145704   3.394   7.869   6.718 -0.2008 -1.1919  0.3593
45130SOL    HW245705   3.398   7.797   6.851 -0.4159 -0.1590  0.9335
45131SOL     OW45706   3.689   6.407   4.546 -0.4150 -0.2844 -0.2973
45131SOL    HW145707   3.719   6.446   4.628 -0.3222 -0.3480 -0.3011
45131SOL    HW245708   3.649   6.324   4.571 -0.1038 -0.4507 -0.3489
45132SOL     OW45709  12.065   1.507   1.124 -0.0356 -0.7371  0.2915
45132SOL    HW145710  12.029   1.595   1.120  1.3123 -0.1184  1.1747
45132SOL    HW245711  12.115   1.504   1.206  1.7965 -1.5646 -0.7834
45133SOL     OW45712  10.596   8.751   5.055 -0.3444  0.0334  0.2268
45133SOL    HW145713  10.568   8.842   5.047 -0.2038  0.1103  0.5953
45133SOL    HW245714  10.583   8.714   4.968 -0.9503  0.2490  0.2228
45134SOL     OW45715   6.281   0.241   7.654 -0.1519 -0.5579  0.1898
45134SOL    HW145716   6.333   0.202   7.584  1.1430  1.8303 -0.2862
45134SOL    HW245717   6.245   0.321   7.616 -0.9254 -0.1549  1.6966
45135SOL     OW45718   3.818   1.984   2.027 -0.0910  0.0610  0.2563
45135SOL    HW145719   3.757   1.986   2.101  1.4918 -0.6606  1.6509
45135SOL    HW245720   3.889   1.926   2.056  1.0711  0.5522 -1.4516
45136SOL     OW45721   9.095   4.018   0.984  0.2015  0.3950 -0.3148
45136SOL    HW145722   9.084   3.938   0.933 -3.3752  1.1131 -0.9283
45136SOL    HW245723   9.169   4.063   0.943  0.1098 -1.0294 -2.1392
45137SOL     OW45724   4.818  10.486   9.090 -0.1748 -0.6190  0.5351
45137SOL    HW145725   4.911  10.507   9.084 -0.7122  1.8956 -0.2518
45137SOL    HW245726   4.785  10.498   9.001 -1.5416  0.2690  1.1230
45138SOL     OW45727   6.382   3.198   4.611  0.0370  0.1495 -0.1013
45138SOL    HW145728   6.315   3.257   4.645  0.8002  2.1111 -1.8269
45138SOL    HW245729   6.446   3.256   4.569  0.7910 -1.9081 -1.9620
45139SOL     OW45730   6.498   1.153  12.718 -0.1705  0.1201  0.2153
45139SOL    HW145731   6.587   1.123  12.699 -0.1024  0.4227  0.0612
45139SOL    HW245732   6.470   1.197  12.639 -0.4446  0.0632  0.2804
45140SOL     OW45733   7.359   8.407   6.245  0.3516  0.2274 -0.0712
45140SOL    HW145734   7.290   8.404   6.311  1.8695  1.2584  1.6592
45140SOL    HW245735   7.364   8.317   6.212 -2.4125  0.3103 -0.9942
45141SOL     OW45736   5.377   6.878   6.196  0.1894 -0.2444 -0.1815
45141SOL    HW145737   5.434   6.923   6.133 -0.5954 -2.4813 -2.7048
45141SOL    HW245738   5.291   6.918   6.183  0.0499 -0.6310 -0.4507
45142SOL     OW45739   1.710   1.354   6.503  0.2779 -0.2907  0.5175
45142SOL    HW145740   1.787   1.404   6.477 -0.5712  0.8156  0.0735
45142SOL    HW245741   1.644   1.420   6.525 -1.1916 -1.1445 -1.0347
45143SOL     OW45742   1.729   3.957  11.675  0.3719  0.1749  0.2603
45143SOL    HW145743   1.805   3.953  11.732  0.0361 -0.4031  0.6754
45143SOL    HW245744   1.765   3.966  11.587  0.9473 -0.9130  0.3738
45144SOL     OW45745  12.188   2.286   0.099  0.3082 -0.6020 -0.3364
45144SOL    HW145746  12.152   2.260   0.184 -1.6785  1.9119 -0.3085
45144SOL    HW245747  12.278   2.313   0.118  0.0695 -0.5939  0.8647
45145SOL     OW45748   4.382   1.630   6.512 -0.2138 -0.3906  0.9307
45145SOL    HW145749   4.370   1.538   6.490 -2.1609  0.2941 -1.3042
45145SOL    HW245750   4.313   1.648   6.577 -2.5857  0.3019 -1.5906
45146SOL     OW45751   4.632  11.536   6.286 -0.8268 -0.0031  0.3404
45146SOL    HW145752   4.608  11.454   6.328 -0.5827 -0.3234 -0.1417
45146SOL    HW245753   4.634  11.517   6.193 -2.2324  0.9291  0.0874
45147SOL     OW45754   2.040   8.731   7.832 -0.1980  0.5068  0.0226
45147SOL    HW145755   2.121   8.777   7.809 -0.3760  0.3521 -0.9409
45147SOL    HW245756   2.002   8.705   7.748  0.0980 -1.7708  0.5355
45148SOL     OW45757   9.118   2.072   9.072  0.0819 -0.0961 -0.4499
45148SOL    HW145758   9.030   2.039   9.056 -0.1704  0.3966 -0.1140
45148SOL    HW245759   9.151   2.095   8.985  0.0350 -0.6547 -0.6191
45149SOL     OW45760   0.756   8.352   6.448  0.0734  0.5476  0.5079
45149SOL    HW145761   0.749   8.282   6.514  0.3654  1.0806  1.1124
45149SOL    HW245762   0.836   8.330   6.399 -0.3577 -0.0674  0.0627
45150SOL     OW45763   0.736   7.782  12.408  0.3903 -0.1941  0.5511
45150SOL    HW145764   0.692   7.834  12.475 -1.3094  1.1763 -1.4906
45150SOL    HW245765   0.726   7.692  12.437 -3.7873  0.0039  0.3558
45151SOL     OW45766   2.796   7.371   6.106 -0.0732  0.3783  0.3269
45151SOL    HW145767   2.774   7.278   6.112  0.7287  0.1706  0.2305
45151SOL    HW245768   2.773   7.407   6.191 -0.1050  0.0213  0.4721
45152SOL     OW45769   4.072   6.034   5.449 -0.2206  0.2628  0.1189
45152SOL    HW145770   4.012   6.020   5.376  0.7492 -0.3000 -0.5933
45152SOL    HW245771   4.070   6.129   5.463  0.6140  0.5818 -1.5841
45153SOL     OW45772   2.258   7.673   3.233  0.1696 -0.3758  0.3887
45153SOL    HW145773   2.211   7.663   3.150 -2.0551  0.8549  1.4238
45153SOL    HW245774   2.330   7.733   3.212 -0.7604  0.4638 -0.5138
45154SOL     OW45775  12.865  12.143   7.382 -0.0353  0.1440 -0.6070
45154SOL    HW145776  12.851  12.164   7.289  0.4914 -1.9245 -1.1954
45154SOL    HW245777  12.787  12.094   7.408  0.9821 -1.6266 -0.7552
45155SOL     OW45778   0.619   2.729   1.086  1.0584 -0.0744  0.5020
45155SOL    HW145779   0.671   2.651   1.070  0.5687 -0.0078 -1.8044
45155SOL    HW245780   0.566   2.708   1.162 -0.0305 -2.5404 -0.8340
45156SOL     OW45781   0.819  11.471   2.390  0.4141 -0.3631 -0.3400
45156SOL    HW145782   0.817  11.531   2.465  2.4636 -0.4933 -0.1138
45156SOL    HW245783   0.867  11.519   2.323  0.2442 -0.9677 -0.8957
45157SOL     OW45784  12.055   8.696   7.825 -0.1278  0.4112 -0.3837
45157SOL    HW145785  12.075   8.613   7.781  1.5775  0.5120  0.1224
45157SOL    HW245786  12.079   8.681   7.916 -1.1508  1.0332 -0.0024
45158SOL     OW45787   0.196   5.218   7.177  0.5970  0.6289  0.1025
45158SOL    HW145788   0.181   5.213   7.083  0.1242  1.9083  0.0976
45158SOL    HW245789   0.280   5.264   7.185  0.9618 -0.0498  0.3085
45159SOL     OW45790   5.229   4.489   8.058  0.6310  0.0572 -0.5721
45159SOL    HW145791   5.292   4.549   8.099 -0.2469  0.5600  0.0646
45159SOL    HW245792   5.150   4.540   8.048 -0.4666 -1.2405  0.8985
45160SOL     OW45793  11.369  11.286   5.203  0.1529 -0.2023 -0.0945
45160SOL    HW145794  11.366  11.240   5.119  0.8138  0.7572 -0.6578
45160SOL    HW245795  11.286  11.263   5.245 -0.4367 -0.2791 -1.2419
45161SOL     OW45796   1.121   8.246   9.410  0.0558  0.0710  0.1151
45161SOL    HW145797   1.134   8.184   9.482  0.0959 -1.3545 -1.0506
45161SOL    HW245798   1.210   8.272   9.385 -0.0014  1.7974  1.5414
45162SOL     OW45799  10.581   9.945  10.931  0.4714  0.3531  0.1582
45162SOL    HW145800  10.488   9.933  10.950  0.4331  0.8476  0.2883
45162SOL    HW245801  10.591  10.040  10.920  1.0352  0.3437  0.5604
45163SOL     OW45802  10.519   2.557   3.536  0.1789 -0.2193 -0.2257
45163SOL    HW145803  10.512   2.636   3.589 -1.0697  0.3940 -1.2507
45163SOL    HW245804  10.548   2.587   3.450 -0.1099 -0.8909 -0.5700
45164SOL     OW45805   0.119   5.861   7.404  0.8810 -0.3700  0.7556
45164SOL    HW145806   0.105   5.833   7.313 -1.2259  0.9172  0.6230
45164SOL    HW245807   0.124   5.956   7.400 -1.0345 -0.1380  2.1154
45165SOL     OW45808   1.033   3.979   9.451  0.3130  0.3585 -0.1557
45165SOL    HW145809   1.087   3.977   9.373  0.0604  1.7650 -0.3825
45165SOL    HW245810   1.073   3.915   9.510 -0.5081 -2.0767 -2.0476
45166SOL     OW45811   7.217   0.742  10.648  0.5374  0.5078 -0.4493
45166SOL    HW145812   7.211   0.820  10.593 -1.2302  1.5918  1.1552
45166SOL    HW245813   7.199   0.774  10.737 -1.5346 -1.8755  0.0901
45167SOL     OW45814  11.214   7.105   0.543  0.1812 -0.2371  0.2312
45167SOL    HW145815  11.241   7.082   0.632  1.4021 -1.1574 -0.3432
45167SOL    HW245816  11.293   7.143   0.504  0.7145 -2.8719 -1.4813
45168SOL     OW45817  12.193   9.721  12.501  0.1932  0.1340  0.7103
45168SOL    HW145818  12.226   9.735  12.413 -0.4813  0.6658  0.5283
45168SOL    HW245819  12.199   9.807  12.543 -0.8856  0.2292  0.6888
45169SOL     OW45820  12.415  11.731   7.523 -0.5435 -0.0423 -0.2336
45169SOL    HW145821  12.381  11.707   7.437 -1.6883 -0.6683  0.3675
45169SOL    HW245822  12.410  11.650   7.574 -2.1212  0.8519  1.1159
45170SOL     OW45823   7.209   3.092   1.408 -0.0064 -0.4137  0.2832
45170SOL    HW145824   7.141   3.050   1.459  0.4498 -1.0937  0.3381
45170SOL    HW245825   7.169   3.174   1.377 -0.5758 -0.4235  0.9736
45171SOL     OW45826   7.330   9.390   0.514  0.0768  0.1291 -0.1425
45171SOL    HW145827   7.262   9.329   0.486 -2.0472  1.6599  1.2813
45171SOL    HW245828   7.376   9.344   0.584 -1.9238  0.3014  1.3755
45172SOL     OW45829   3.082   4.461   5.673 -0.1251  0.6348 -0.0587
45172SOL    HW145830   3.174   4.480   5.690  0.5145 -2.5173  0.7783
45172SOL    HW245831   3.056   4.402   5.744 -2.5164  0.6224 -0.8382
45173SOL     OW45832   8.094  10.294  11.955  0.1089  0.5631  0.1195
45173SOL    HW145833   8.061  10.349  12.026 -3.1964 -0.9399 -0.0339
45173SOL    HW245834   8.030  10.222  11.949  0.1647  0.5858 -4.3456
45174SOL     OW45835   5.149   3.084   7.155 -0.1965  0.0316  0.3047
45174SOL    HW145836   5.190   3.169   7.137 -0.3151  0.1384  0.5264
45174SOL    HW245837   5.060   3.106   7.183 -0.7006 -0.2437 -1.0349
45175SOL     OW45838   7.612   9.537   4.025 -0.2587  0.4431 -0.2475
45175SOL    HW145839   7.682   9.474   4.043 -0.7210 -0.2367 -0.7520
45175SOL    HW245840   7.578   9.560   4.111  0.5509  0.7457  0.0001
45176SOL     OW45841   3.375   7.917  11.646 -0.3262  0.0486  0.8571
45176SOL    HW145842   3.367   7.865  11.726  1.2623 -0.7824  0.5156
45176SOL    HW245843   3.321   7.871  11.581 -1.2837  0.4975  1.3093
45177SOL     OW45844   9.507  11.869   4.126  0.7095 -0.0212 -0.0344
45177SOL    HW145845   9.489  11.894   4.216 -1.1131  1.0865 -0.6434
45177SOL    HW245846   9.597  11.838   4.127  0.7706  0.0753  2.1280
45178SOL     OW45847   3.972   3.897   2.840 -0.2253 -0.4781 -0.6089
45178SOL    HW145848   4.052   3.949   2.836 -0.2170 -0.4084  0.3240
45178SOL    HW245849   3.904   3.960   2.865 -0.0377 -1.0696  1.5404
45179SOL     OW45850   3.857  10.649   6.331  0.1300  0.0165 -0.0966
45179SOL    HW145851   3.810  10.569   6.353  1.2628 -1.4761 -2.6279
45179SOL    HW245852   3.947  10.633   6.358 -0.1206  1.6356  1.9395
45180SOL     OW45853   8.715   6.272   8.092  0.3517 -0.0931 -0.9136
45180SOL    HW145854   8.632   6.275   8.139  0.5030 -0.8936 -0.5812
45180SOL    HW245855   8.763   6.200   8.133  1.1324  0.2391 -1.2311
45181SOL     OW45856   9.718   8.918   5.204  0.1002 -0.6089 -0.6522
45181SOL    HW145857   9.789   8.942   5.264 -0.5042  1.1672 -0.5877
45181SOL    HW245858   9.727   8.823   5.193  2.4582 -0.4434 -0.6482
45182SOL     OW45859   9.438  10.540  11.300  0.6573 -0.4706  0.0333
45182SOL    HW145860   9.371  10.605  11.278  0.4085 -0.0953  1.7075
45182SOL    HW245861   9.389  10.467  11.338  0.9358 -1.6871 -1.7944
45183SOL     OW45862  12.536   6.211   5.500  0.9968  0.0817 -0.0631
45183SOL    HW145863  12.551   6.296   5.459  1.0048  0.6138  1.0181
45183SOL    HW245864  12.496   6.232   5.585 -0.6365 -1.0685 -0.5070
45184SOL     OW45865   4.173  11.403   0.076 -0.2381 -0.2627  0.4757
45184SOL    HW145866   4.128  11.453   0.008 -1.0893 -1.4669  0.1282
45184SOL    HW245867   4.139  11.439   0.158  0.4503  0.8773  0.2929
45185SOL     OW45868  11.927   6.513   6.863  0.0911  0.2413  0.5948
45185SOL    HW145869  11.889   6.555   6.940  1.6311  1.9830  0.4625
45185SOL    HW245870  11.859   6.454   6.832 -1.0019  0.3621  2.6026
45186SOL     OW45871   1.389   6.208   3.478 -0.2247  0.6046  0.3345
45186SOL    HW145872   1.369   6.116   3.490 -0.5956  0.8743  2.0432
45186SOL    HW245873   1.331   6.254   3.538 -1.5632  2.1442 -1.9833
45187SOL     OW45874   9.966  12.185  10.753 -0.3647  0.0492 -0.6197
45187SOL    HW145875   9.937  12.226  10.671  0.1650  2.9968  0.5563
45187SOL    HW245876  10.055  12.217  10.765  0.0347 -1.4049  0.4909
45188SOL     OW45877  12.343  11.999   7.329 -0.5210 -0.2020 -0.0791
45188SOL    HW145878  12.278  11.996   7.258  0.6537 -1.5895 -1.1515
45188SOL    HW245879  12.376  12.089   7.327 -1.8892  0.3319  0.0353
45189SOL     OW45880   0.002   5.697   1.908  0.2926  0.3972 -0.3408
45189SOL    HW145881  -0.054   5.713   1.832 -0.7015 -0.4597  0.1857
45189SOL    HW245882   0.033   5.607   1.897 -0.9099 -0.2038  0.8832
45190SOL     OW45883   5.962  12.120  12.529 -0.3467  1.3588  0.4171
45190SOL    HW145884   5.885  12.063  12.532 -0.5879  1.7042  0.9628
45190SOL    HW245885   5.927  12.209  12.536  0.0888  1.5233  0.5709
45191SOL     OW45886   2.178  10.858   3.574  0.3812  0.4566  0.2100
45191SOL    HW145887   2.184  10.827   3.483  1.5604  1.2174  0.0059
45191SOL    HW245888   2.084  10.875   3.587 -0.3292 -2.7899  0.2476
45192SOL     OW45889   1.864   4.795   2.231  0.0747  0.1740 -0.6746
45192SOL    HW145890   1.785   4.745   2.208 -0.1822 -0.3560  1.1866
45192SOL    HW245891   1.831   4.880   2.260  0.1567 -0.1222  0.3094
45193SOL     OW45892   4.131  11.152   7.394  0.2979 -0.4013 -0.4893
45193SOL    HW145893   4.112  11.245   7.391 -2.2380 -0.8615 -0.8316
45193SOL    HW245894   4.054  11.110   7.356  1.2780 -2.6539 -0.1810
45194SOL     OW45895   2.227  10.266   7.309  0.5824  0.5313  0.3303
45194SOL    HW145896   2.237  10.359   7.289  0.7833  0.8168  1.6649
45194SOL    HW245897   2.273  10.221   7.238 -1.5654  1.3245 -1.6729
45195SOL     OW45898   1.706   1.217   8.224 -0.4361  0.0190 -0.4236
45195SOL    HW145899   1.779   1.188   8.279 -0.5514  0.8424  0.1814
45195SOL    HW245900   1.701   1.151   8.155  0.3207 -0.5230  0.0162
45196SOL     OW45901  11.867   4.493   9.670  0.6494  0.1244 -0.9220
45196SOL    HW145902  11.796   4.431   9.654 -0.0448  1.1066 -1.8202
45196SOL    HW245903  11.893   4.523   9.583  1.0454  1.0115 -0.5131
45197SOL     OW45904   4.845   2.977  11.410  0.3411  0.1112 -0.8121
45197SOL    HW145905   4.871   2.889  11.381  1.1116  0.0519 -0.0264
45197SOL    HW245906   4.921   3.031  11.390  1.1399 -0.0453  1.4898
45198SOL     OW45907   5.367   5.122   8.289  0.1619  0.2792 -0.0055
45198SOL    HW145908   5.341   5.175   8.214  0.5550 -0.3303 -0.5883
45198SOL    HW245909   5.410   5.045   8.250 -1.2529 -0.9546  0.7707
45199SOL     OW45910   0.374   2.506  11.158 -0.2888  0.6940  0.4654
45199SOL    HW145911   0.336   2.428  11.198 -0.0242 -0.2073 -0.9431
45199SOL    HW245912   0.441   2.471  11.098  0.3885  2.0514  0.4070
45200SOL     OW45913   8.417   8.666   3.945 -0.1172 -0.6476  0.1792
45200SOL    HW145914   8.362   8.603   3.992 -0.1663 -0.8748 -0.1845
45200SOL    HW245915   8.471   8.613   3.887 -0.0077 -0.3716  0.0254
45201SOL     OW45916  11.499   4.447   7.640  0.7890  0.2306  0.0836
45201SOL    HW145917  11.495   4.431   7.735  0.4347 -0.4536 -0.0444
45201SOL    HW245918  11.436   4.517   7.625  0.1319 -0.3286  0.2137
45202SOL     OW45919   9.903   9.842   5.899 -0.3582 -0.2319  0.0118
45202SOL    HW145920   9.866   9.911   5.954 -0.4610 -0.0915 -0.2370
45202SOL    HW245921   9.943   9.887   5.826 -0.7451 -0.4530 -0.3443
45203SOL     OW45922  10.120   7.867   5.362  0.2554 -0.3151 -0.1684
45203SOL    HW145923  10.134   7.775   5.341 -2.1851 -0.6498 -0.7039
45203SOL    HW245924  10.147   7.876   5.453 -0.9484 -1.9765  0.3873
45204SOL     OW45925  11.831   7.504  11.158  0.4325  0.2536  0.0721
45204SOL    HW145926  11.801   7.546  11.239 -0.6829  2.1503 -1.2637
45204SOL    HW245927  11.927   7.513  11.162  0.3844  0.5174  1.0705
45205SOL     OW45928  12.741   8.057   3.783  0.4975  0.5451 -0.2530
45205SOL    HW145929  12.652   8.092   3.774  0.8118  1.4218 -0.0018
45205SOL    HW245930  12.780   8.108   3.854  0.9953 -0.2651  0.0662
45206SOL     OW45931   0.562  12.017   6.516 -0.1718 -0.5477  0.3240
45206SOL    HW145932   0.470  11.992   6.515 -0.5680  0.8242 -0.9321
45206SOL    HW245933   0.565  12.096   6.570  0.0754  0.0557 -0.5610
45207SOL     OW45934   0.906   9.402   6.763  0.2414  0.2042  0.0409
45207SOL    HW145935   0.812   9.420   6.760  0.1929 -0.0569 -0.0517
45207SOL    HW245936   0.947   9.482   6.730  0.0705  0.4683  0.4678
45208SOL     OW45937   2.965   8.233   8.873 -0.2433 -0.3184 -0.2056
45208SOL    HW145938   2.992   8.303   8.932  2.2028 -1.0100 -0.3925
45208SOL    HW245939   2.877   8.258   8.845 -0.3859  1.4239  1.5686
45209SOL     OW45940  12.227  11.659   1.605  0.0533 -0.2348 -0.0829
45209SOL    HW145941  12.193  11.735   1.558 -1.6426 -1.0765 -0.2640
45209SOL    HW245942  12.220  11.587   1.543 -1.3032 -1.1620  1.0880
45210SOL     OW45943   6.103  11.150  10.353  0.2817 -0.0341 -0.2841
45210SOL    HW145944   6.155  11.127  10.431  0.9255  0.8015 -0.4520
45210SOL    HW245945   6.142  11.232  10.322 -0.9660  0.4602 -0.5860
45211SOL     OW45946   7.519   0.095  12.756 -0.7437 -0.2226  0.1723
45211SOL    HW145947   7.488   0.183  12.775 -0.4412 -0.3838  1.4549
45211SOL    HW245948   7.543   0.058  12.841  0.9480 -0.8694 -0.5440
45212SOL     OW45949   4.741   1.460   0.702  0.0596 -0.3038  0.0896
45212SOL    HW145950   4.675   1.506   0.650 -0.0953 -0.5226  0.0884
45212SOL    HW245951   4.691   1.394   0.750  0.1276  0.2214  0.9011
45213SOL     OW45952   9.694   6.685   5.409 -0.2077  0.2099 -0.7889
45213SOL    HW145953   9.630   6.624   5.445 -1.3598  1.2924 -0.8933
45213SOL    HW245954   9.726   6.643   5.330 -0.2877 -0.6471 -0.3739
45214SOL     OW45955   0.740  12.671   1.270  0.4490  0.1718 -0.2203
45214SOL    HW145956   0.690  12.708   1.197 -0.0031 -0.0718 -0.0398
45214SOL    HW245957   0.679  12.610   1.312  0.7107  0.2986  0.3501
45215SOL     OW45958   5.254   2.782   5.157 -0.4265  0.2585 -0.1068
45215SOL    HW145959   5.166   2.765   5.191  0.6509 -1.1388  2.3224
45215SOL    HW245960   5.278   2.701   5.112 -0.8419  1.1479 -2.0196
45216SOL     OW45961  10.831   8.422   7.328  0.4324 -0.3376  0.1377
45216SOL    HW145962  10.807   8.511   7.353 -3.5490 -1.1041 -0.3103
45216SOL    HW245963  10.924   8.427   7.307  0.0952  4.0065 -1.1708
45217SOL     OW45964  10.881   5.692   1.826  0.4698 -1.0833  0.1775
45217SOL    HW145965  10.865   5.628   1.895  2.2426 -0.4171  1.2680
45217SOL    HW245966  10.954   5.656   1.776 -1.2080 -1.8915 -1.8662
45218SOL     OW45967   5.646   5.905   2.039  0.5195 -0.1284 -0.3448
45218SOL    HW145968   5.723   5.858   2.009 -0.2973 -1.9575  0.2766
45218SOL    HW245969   5.592   5.916   1.960 -0.2428 -2.2124 -0.1807
45219SOL     OW45970   4.027   9.261  10.344 -0.0424 -0.7660  0.5076
45219SOL    HW145971   4.051   9.252  10.252 -0.7627 -1.4999  0.3842
45219SOL    HW245972   4.014   9.355  10.357 -0.7291 -0.7440 -0.3398
45220SOL     OW45973   0.942   5.299   6.373  0.0220 -0.0047  0.0414
45220SOL    HW145974   0.915   5.383   6.410  0.8055  0.2448  0.0680
45220SOL    HW245975   0.979   5.251   6.446 -1.2568 -0.7604  0.2288
45221SOL     OW45976   7.917  10.310   9.385  0.3629  0.5770  0.0315
45221SOL    HW145977   7.965  10.292   9.466  0.2186  0.5597  0.1130
45221SOL    HW245978   7.946  10.242   9.325 -1.9429 -1.4702  1.0558
45222SOL     OW45979   4.553   8.132  10.472  0.5133  0.4435 -0.0460
45222SOL    HW145980   4.470   8.164  10.439  1.3746  0.9680 -1.8152
45222SOL    HW245981   4.601   8.104  10.394  2.3570  1.0297  0.8247
45223SOL     OW45982  10.613   7.146  10.937 -0.2851  0.3700  0.0210
45223SOL    HW145983  10.637   7.219  10.879 -2.3710  2.2284  1.3195
45223SOL    HW245984  10.538   7.106  10.894 -0.2050  0.0718  0.1564
45224SOL     OW45985   6.539   1.284   2.139 -0.0428  0.0425  0.1035
45224SOL    HW145986   6.526   1.222   2.210 -0.2537 -1.0583 -0.8549
45224SOL    HW245987   6.460   1.278   2.086  1.1049 -1.0870 -1.6084
45225SOL     OW45988   7.520   5.768   3.803  0.1241 -0.1244  0.2161
45225SOL    HW145989   7.555   5.697   3.857 -0.1068  0.4630  1.1533
45225SOL    HW245990   7.535   5.739   3.713 -1.6433 -2.2468  0.5146
45226SOL     OW45991   6.637   2.121   9.626  0.2433  0.4658  0.4557
45226SOL    HW145992   6.611   2.213   9.633  0.0451  0.3355  1.6908
45226SOL    HW245993   6.562   2.078   9.585 -0.1623  0.6597  0.9820
45227SOL     OW45994   3.486   0.720   2.453 -0.4052 -0.0938  0.5182
45227SOL    HW145995   3.524   0.697   2.368 -1.2763  0.2035  0.0277
45227SOL    HW245996   3.539   0.673   2.517  1.0157  0.6133 -0.0964
45228SOL     OW45997   6.174  12.541   8.408 -0.4822 -0.1828  0.1111
45228SOL    HW145998   6.189  12.552   8.502 -0.8910 -1.6652  0.3723
45228SOL    HW245999   6.095  12.592   8.390  0.7281  1.7883  0.1404
45229SOL     OW46000   9.551   0.513   7.313 -0.4783  0.1187  0.7185
45229SOL    HW146001   9.574   0.577   7.380 -0.5930  0.9892 -0.0503
45229SOL    HW246002   9.635   0.477   7.283 -0.4378 -0.4012  1.4374
45230SOL     OW46003  12.025  12.122   5.986  0.1132  0.1184 -0.3790
45230SOL    HW146004  12.098  12.061   5.993  1.8449  1.9815 -1.2295
45230SOL    HW246005  11.971  12.087   5.915  1.6905  0.1423 -1.6275
45231SOL     OW46006   4.112   4.865   3.910  0.2026  0.2318  0.5967
45231SOL    HW146007   4.131   4.942   3.964 -1.5519  0.2282  1.2781
45231SOL    HW246008   4.103   4.900   3.822 -2.1294  1.1505  1.1109
45232SOL     OW46009   1.698   1.027   3.513  0.0427  0.3866  0.0536
45232SOL    HW146010   1.687   0.948   3.565 -0.5349  0.5091  0.1290
45232SOL    HW246011   1.608   1.059   3.500  0.1195  0.0481 -1.4815
45233SOL     OW46012   1.345   8.175   9.725 -0.0613  0.0801 -0.4018
45233SOL    HW146013   1.346   8.115   9.651  0.8345 -0.1734 -0.2054
45233SOL    HW246014   1.264   8.155   9.772 -0.7161  0.3541 -1.3912
45234SOL     OW46015   9.245   9.878   1.258 -0.6221 -0.6340 -0.0989
45234SOL    HW146016   9.292   9.936   1.318  0.9864 -1.7574 -0.2066
45234SOL    HW246017   9.174   9.932   1.224  0.8169  1.2997 -0.2195
45235SOL     OW46018   5.186   4.566   3.512 -0.2137 -0.0320  0.0361
45235SOL    HW146019   5.148   4.596   3.594  0.4235 -1.7744  1.0179
45235SOL    HW246020   5.123   4.593   3.445  0.0637  2.9612  0.8182
45236SOL     OW46021   9.367  10.427   2.702 -0.2954  0.8345  0.0707
45236SOL    HW146022   9.411  10.399   2.783 -1.0563  2.6126  1.1343
45236SOL    HW246023   9.424  10.494   2.666 -0.0418  0.1616 -0.8303
45237SOL     OW46024   3.420   5.530   6.476  0.9307 -0.0134 -0.6326
45237SOL    HW146025   3.365   5.589   6.528  0.7086  0.2440 -1.1551
45237SOL    HW246026   3.367   5.451   6.464  1.0497 -0.1417 -0.3238
45238SOL     OW46027   1.571   1.197   0.756  0.1051  0.2606  0.1656
45238SOL    HW146028   1.539   1.268   0.811  1.1359  0.1505  0.9343
45238SOL    HW246029   1.503   1.130   0.762 -1.8545  1.8670 -2.1364
45239SOL     OW46030   4.029   8.164   8.640 -0.1936  0.4519 -0.8803
45239SOL    HW146031   4.032   8.146   8.546 -0.3482 -1.0217 -0.6288
45239SOL    HW246032   4.077   8.092   8.680 -1.9748 -0.1521  0.3025
45240SOL     OW46033   9.255   3.734   3.080  0.4664  0.5019  0.4567
45240SOL    HW146034   9.310   3.770   3.149  1.4988 -0.2699  0.0765
45240SOL    HW246035   9.317   3.694   3.019 -0.5853 -2.1634  0.9973
45241SOL     OW46036  10.993   2.350   0.936  0.2570  0.0753  0.4092
45241SOL    HW146037  10.998   2.255   0.941 -0.2075  0.0506  0.5238
45241SOL    HW246038  10.908   2.367   0.894  0.8737  0.4210 -0.7546
45242SOL     OW46039   9.504   5.392   5.285 -0.0381 -0.4085 -0.5261
45242SOL    HW146040   9.579   5.402   5.226 -0.7991  2.4867 -1.1709
45242SOL    HW246041   9.432   5.366   5.228 -0.5724  1.5328 -0.7890
45243SOL     OW46042   5.009   8.848   3.422  0.1237  0.0245  0.0507
45243SOL    HW146043   4.955   8.927   3.428 -0.2777 -0.2434 -0.0156
45243SOL    HW246044   4.987   8.811   3.336 -0.5044 -0.7540  0.5431
45244SOL     OW46045   1.092   3.286   2.789  0.5885 -0.6643  0.0203
45244SOL    HW146046   1.072   3.335   2.868  0.6047 -3.4856  1.9055
45244SOL    HW246047   1.106   3.353   2.722 -1.9589  1.7919  1.7192
45245SOL     OW46048   6.485   5.229   3.145  0.0635  0.3044 -0.2456
45245SOL    HW146049   6.411   5.176   3.174  0.1983 -1.0005 -2.1352
45245SOL    HW246050   6.445   5.307   3.106 -0.2337  0.3199  0.0822
45246SOL     OW46051   5.908  10.637   6.032  0.1746  0.0145  0.1513
45246SOL    HW146052   5.969  10.578   5.987 -1.4495 -1.8469  0.2644
45246SOL    HW246053   5.925  10.723   5.994  2.4344 -0.5444 -0.2353
45247SOL     OW46054   2.266   2.313   9.353  0.3185 -0.7460 -0.4996
45247SOL    HW146055   2.331   2.309   9.423  0.4412 -2.5719 -0.6812
45247SOL    HW246056   2.307   2.368   9.286  0.1355  1.1690  0.8699
45248SOL     OW46057   7.511  12.897   4.173  0.3644  0.4755  0.3335
45248SOL    HW146058   7.461  12.829   4.218 -0.0949  1.4214  1.2848
45248SOL    HW246059   7.468  12.906   4.088  1.2254 -1.3095 -0.3534
45249SOL     OW46060   8.050  10.472   7.717 -0.0669  0.1034  0.2143
45249SOL    HW146061   8.081  10.493   7.806 -4.2167  3.6196  1.1933
45249SOL    HW246062   7.989  10.400   7.730  0.4639 -0.4069 -0.0894
45250SOL     OW46063  10.671   3.982  10.598  0.1616 -0.1640  0.1975
45250SOL    HW146064  10.622   4.060  10.573  0.0426 -0.7863 -1.6352
45250SOL    HW246065  10.633   3.911  10.546  0.5755 -1.3827  1.4774
45251SOL     OW46066  11.124  10.538   3.217 -0.5025 -0.0294  0.1171
45251SOL    HW146067  11.154  10.478   3.285 -0.1679 -0.0026 -0.0060
45251SOL    HW246068  11.204  10.574   3.180 -0.6555 -0.7092 -0.8910
45252SOL     OW46069  10.699   3.273   0.033 -0.0339  0.4341  0.3147
45252SOL    HW146070  10.765   3.208   0.007 -0.0627  0.9166 -1.0735
45252SOL    HW246071  10.675   3.316  -0.049  0.2223  2.4343  1.2268
45253SOL     OW46072   6.578   9.972  12.836 -0.2950 -0.0167 -0.0231
45253SOL    HW146073   6.641  10.010  12.774  1.8238 -2.5916  0.3480
45253SOL    HW246074   6.585  10.026  12.914  1.1744  0.0315 -0.1644
45254SOL     OW46075   4.021   2.154   5.167 -0.4828 -0.3549  0.1423
45254SOL    HW146076   3.935   2.193   5.181 -1.2862 -1.9870  0.0584
45254SOL    HW246077   4.075   2.188   5.238 -1.8115 -0.9969  1.5107
45255SOL     OW46078   8.416   1.154   1.856  0.1156  0.2820 -0.7743
45255SOL    HW146079   8.330   1.130   1.891  1.1542 -3.6610 -0.3993
45255SOL    HW246080   8.414   1.127   1.764  0.4468  1.7228 -1.2232
45256SOL     OW46081   9.809   3.303   2.227 -0.1101  0.0120  0.2376
45256SOL    HW146082   9.796   3.213   2.256 -0.1186 -0.5073 -1.2604
45256SOL    HW246083   9.724   3.330   2.193  0.2804 -0.0029 -0.7896
45257SOL     OW46084  12.579   6.036  12.504  0.3879  0.2867 -0.4887
45257SOL    HW146085  12.595   5.955  12.552  1.2376  0.9517  0.3896
45257SOL    HW246086  12.658   6.050  12.453  0.5202  0.9129 -0.1138
45258SOL     OW46087   1.224   4.565  10.816 -1.0211  0.4177  0.1893
45258SOL    HW146088   1.313   4.594  10.798 -1.1051  0.6929  0.2079
45258SOL    HW246089   1.210   4.492  10.756 -0.9268  0.6472 -0.1201
45259SOL     OW46090  11.358  10.821   6.048 -0.4357 -0.7566 -0.1729
45259SOL    HW146091  11.373  10.814   5.953 -0.4560  0.1706 -0.2500
45259SOL    HW246092  11.330  10.911   6.061 -2.6424 -1.4697  0.4170
45260SOL     OW46093   1.511   0.620  12.790 -0.3245 -0.3725 -0.0095
45260SOL    HW146094   1.582   0.587  12.734 -0.4762 -0.0256 -0.4045
45260SOL    HW246095   1.448   0.658  12.729 -1.3476 -1.5920  0.2500
45261SOL     OW46096   8.633   4.277   2.339 -0.0245  0.1373 -0.1402
45261SOL    HW146097   8.551   4.281   2.290 -0.4127 -0.5203  0.4316
45261SOL    HW246098   8.614   4.319   2.422 -0.0157 -0.6835  0.2917
45262SOL     OW46099   6.851   2.318   7.218 -0.5453 -0.4843  0.3116
45262SOL    HW146100   6.938   2.288   7.193  0.2986  2.0215 -0.0927
45262SOL    HW246101   6.828   2.264   7.294  0.9133 -1.8618 -0.1696
45263SOL     OW46102  11.402   5.963  12.975 -0.5284 -0.5719  0.0497
45263SOL    HW146103  11.465   5.894  12.994  0.2661 -0.4847 -1.9729
45263SOL    HW246104  11.323   5.917  12.945 -0.4301 -0.6297 -0.1210
45264SOL     OW46105   7.013   8.299   5.285 -0.4376  0.1419 -0.0324
45264SOL    HW146106   7.105   8.309   5.310 -0.0365 -0.7796 -1.0670
45264SOL    HW246107   7.015   8.243   5.207 -1.7669  1.3032 -0.9602
45265SOL     OW46108   9.932   3.455  11.159  0.2287 -0.4932 -0.3377
45265SOL    HW146109  10.016   3.417  11.132  1.2633  1.1824  0.4238
45265SOL    HW246110   9.901   3.503  11.082  1.8399  1.9911  0.4658
45266SOL     OW46111   7.666   9.127   8.631 -0.2577 -0.2229  0.1610
45266SOL    HW146112   7.572   9.117   8.648 -0.3098 -0.9142 -0.4951
45266SOL    HW246113   7.670   9.169   8.545  0.0255  1.6627  1.0436
45267SOL     OW46114   9.123   5.892   2.509 -0.0084  0.1201 -0.0065
45267SOL    HW146115   9.088   5.842   2.583 -0.0931 -0.0422 -0.1536
45267SOL    HW246116   9.216   5.866   2.505 -0.1468 -0.3470 -0.3358
45268SOL     OW46117  12.453   0.910   1.147 -0.3814  0.2189  0.3196
45268SOL    HW146118  12.375   0.923   1.093 -0.5386  0.7011  0.6605
45268SOL    HW246119  12.517   0.972   1.113 -0.8223  1.2681  1.3351
45269SOL     OW46120   0.475  12.012   9.230 -0.5388 -0.0034  0.3260
45269SOL    HW146121   0.558  12.057   9.243 -0.4105  0.1558 -0.9618
45269SOL    HW246122   0.432  12.017   9.316  0.5253  0.4069  0.8552
45270SOL     OW46123  11.207  11.153   9.779 -0.3704 -1.1619 -0.0940
45270SOL    HW146124  11.296  11.159   9.744 -0.0772  0.6575  0.8289
45270SOL    HW246125  11.210  11.080   9.840 -0.3592 -3.0692 -2.2387
45271SOL     OW46126  11.620   2.595   6.643  0.9754 -0.0626 -0.4645
45271SOL    HW146127  11.580   2.663   6.697  1.6020 -1.9611  2.6097
45271SOL    HW246128  11.711   2.593   6.671  0.8375 -2.5303 -0.0185
45272SOL     OW46129  12.379  12.914   4.593  0.3405 -0.4948  0.3394
45272SOL    HW146130  12.317  12.948   4.529  0.4458  1.0562  1.0117
45272SOL    HW246131  12.324  12.868   4.657  0.0916 -0.7789 -0.0729
45273SOL     OW46132   4.220   0.092   5.874 -0.1559 -0.3947 -0.2663
45273SOL    HW146133   4.170   0.169   5.846  0.3011 -0.2219 -0.6271
45273SOL    HW246134   4.157   0.039   5.923 -1.4229 -1.4549 -2.8796
45274SOL     OW46135  11.012   2.063   5.985  0.1036  0.3757 -0.5217
45274SOL    HW146136  10.945   2.008   5.945  0.5939 -0.2465 -0.5133
45274SOL    HW246137  11.011   2.144   5.934 -0.4170  0.2369 -0.7324
45275SOL     OW46138   4.633  10.363   5.591  0.1086  0.4506 -1.2550
45275SOL    HW146139   4.710  10.373   5.535 -0.5511 -0.4202 -2.3494
45275SOL    HW246140   4.559  10.354   5.530 -0.8037  0.7197 -0.2348
45276SOL     OW46141   3.646   1.571   2.252  0.0381 -0.4404 -0.0308
45276SOL    HW146142   3.608   1.520   2.180  1.6386  0.6793 -1.7660
45276SOL    HW246143   3.737   1.585   2.226  0.2270  1.4544  1.4266
45277SOL     OW46144   1.503  10.869   7.422 -0.3413 -0.2583 -0.3479
45277SOL    HW146145   1.422  10.920   7.419 -1.4074 -1.6563  2.0816
45277SOL    HW246146   1.568  10.931   7.456 -1.3552 -0.1118  1.4723
45278SOL     OW46147   6.132   1.078   9.572  0.8063 -0.2142  0.2477
45278SOL    HW146148   6.134   1.162   9.617  0.1837 -0.3482  0.5356
45278SOL    HW246149   6.224   1.059   9.552  0.9098  0.8119 -0.3494
45279SOL     OW46150   7.611  12.421   6.059 -0.2193 -0.4680  0.6763
45279SOL    HW146151   7.587  12.401   5.969 -0.5658 -0.2998  0.7315
45279SOL    HW246152   7.700  12.457   6.052  0.5410 -2.2558  0.6042
45280SOL     OW46153   3.436   8.891   2.256  0.0131 -0.3053  0.1581
45280SOL    HW146154   3.513   8.911   2.203 -1.4439  1.7754 -1.3131
45280SOL    HW246155   3.434   8.960   2.322 -1.5836  0.8124 -0.9944
45281SOL     OW46156   6.794   8.736   5.672  0.1654 -0.8110 -0.0112
45281SOL    HW146157   6.852   8.703   5.740 -1.8327 -2.0701  1.1805
45281SOL    HW246158   6.806   8.675   5.599  1.5773 -0.0294 -0.4817
45282SOL     OW46159   6.127  10.702   5.774 -0.7131  0.0007  0.3231
45282SOL    HW146160   6.036  10.678   5.757 -0.9240 -1.1084  2.7180
45282SOL    HW246161   6.175  10.620   5.762 -0.1213  0.4131 -0.1614
45283SOL     OW46162   0.515   4.885   2.847  0.7957  0.3495 -0.4986
45283SOL    HW146163   0.570   4.890   2.925  1.1765 -5.1807 -0.0268
45283SOL    HW246164   0.425   4.891   2.881  0.9723 -1.5873  0.4428
45284SOL     OW46165  10.436   4.806   9.435 -0.0288  0.0728 -0.0447
45284SOL    HW146166  10.522   4.805   9.477  0.7166 -1.5995 -1.4771
45284SOL    HW246167  10.418   4.898   9.419  1.6836  0.4379 -0.0733
45285SOL     OW46168  12.929  11.076   1.916  0.2967  0.0082 -0.2025
45285SOL    HW146169  12.945  10.991   1.958  0.5991  0.4688  0.6322
45285SOL    HW246170  12.951  11.140   1.983 -0.0152  0.7511 -0.8009
45286SOL     OW46171   6.815   0.206   0.991 -0.1777 -0.5536 -0.2358
45286SOL    HW146172   6.798   0.171   1.079  1.7055  0.8606  0.7691
45286SOL    HW246173   6.810   0.301   1.002 -1.1540 -0.3754 -1.9734
45287SOL     OW46174   2.011   7.286   3.409  0.1075  0.2574  0.0995
45287SOL    HW146175   2.075   7.349   3.441 -0.7580  0.3933  1.6443
45287SOL    HW246176   1.934   7.339   3.389 -0.1323 -0.1345 -0.0208
45288SOL     OW46177  10.359   1.706   2.979 -0.6567  0.1779  0.0935
45288SOL    HW146178  10.364   1.725   3.073  1.1446  0.9021 -0.1062
45288SOL    HW246179  10.440   1.659   2.960 -0.6029  0.7742 -1.2531
45289SOL     OW46180   8.760   9.638  11.427  0.3348  0.1499  0.9185
45289SOL    HW146181   8.841   9.590  11.443  1.7662  2.1366  0.0508
45289SOL    HW246182   8.771   9.719  11.476  0.1712  1.6988 -1.4536
45290SOL     OW46183   0.448   8.544   7.647  0.2978  0.6500 -0.0739
45290SOL    HW146184   0.362   8.512   7.620  1.0078 -0.3458 -1.2803
45290SOL    HW246185   0.437   8.569   7.738 -0.9264 -0.8223  0.2219
45291SOL     OW46186   8.638  12.384   1.041 -0.1008  0.3778  0.2092
45291SOL    HW146187   8.543  12.391   1.040 -0.1361  0.0059  0.6046
45291SOL    HW246188   8.660  12.366   1.132  0.0844 -2.6551 -0.3244
45292SOL     OW46189   2.922  11.235   2.463 -0.5016 -0.4073 -0.3216
45292SOL    HW146190   2.840  11.236   2.511 -1.8140 -1.5208 -2.3852
45292SOL    HW246191   2.909  11.297   2.391  0.5334 -0.4421 -0.5566
45293SOL     OW46192   0.578   2.704   6.458  0.7643  0.0281  0.0614
45293SOL    HW146193   0.490   2.670   6.473 -0.2669  1.7358 -1.7610
45293SOL    HW246194   0.634   2.627   6.463 -1.0180 -1.3616 -0.3071
45294SOL     OW46195  10.693   9.906   6.731  0.1604 -0.4128  0.0419
45294SOL    HW146196  10.698   9.869   6.819  0.4548 -1.4991 -0.4085
45294SOL    HW246197  10.660   9.834   6.677  0.9789 -0.0933 -0.9191
45295SOL     OW46198   0.713   6.490   6.689 -0.3143  0.5782 -0.1456
45295SOL    HW146199   0.650   6.549   6.646  0.1515  0.6322 -0.7669
45295SOL    HW246200   0.775   6.548   6.732  0.9615  0.5911 -1.9343
45296SOL     OW46201   9.298  12.397   9.259 -0.4831  0.2421 -1.0600
45296SOL    HW146202   9.238  12.376   9.331  0.1780  1.1191 -0.2270
45296SOL    HW246203   9.382  12.363   9.289 -0.5618 -1.1271 -2.2926
45297SOL     OW46204   9.235   0.458   3.503 -0.1021  0.3365 -0.5350
45297SOL    HW146205   9.245   0.363   3.491  0.5355  0.5168 -1.4774
45297SOL    HW246206   9.193   0.489   3.423 -0.6659  0.8019 -0.0662
45298SOL     OW46207   3.128  12.208   5.453  0.3645  0.1514  0.0175
45298SOL    HW146208   3.185  12.167   5.518  0.4064  1.3736  0.8002
45298SOL    HW246209   3.188  12.258   5.397  0.2510 -0.2433 -0.4590
45299SOL     OW46210   4.029   2.925   3.164 -0.2378  0.8514  0.4457
45299SOL    HW146211   4.098   2.949   3.225 -0.7482  0.5022  1.1721
45299SOL    HW246212   3.961   2.884   3.218 -0.9845  1.1216 -0.2552
45300SOL     OW46213   8.421   0.415   3.874  0.2768  0.8135 -0.7074
45300SOL    HW146214   8.476   0.365   3.813 -0.2955  0.3481 -0.8446
45300SOL    HW246215   8.482   0.446   3.941  0.5593 -0.5568 -0.2931
45301SOL     OW46216   9.793   3.123   3.516  0.4489 -0.4553 -0.5551
45301SOL    HW146217   9.875   3.172   3.525 -0.4930  1.1786 -0.3481
45301SOL    HW246218   9.820   3.032   3.507  2.3850  0.2161 -2.4126
45302SOL     OW46219   1.129   1.981   6.664 -0.4873 -0.2836 -0.4881
45302SOL    HW146220   1.155   2.017   6.580  0.8893 -0.3775 -0.1327
45302SOL    HW246221   1.151   1.888   6.658 -2.0371 -0.6805 -0.6339
45303SOL     OW46222  11.559   8.435   0.784  0.1120  0.5988 -0.7341
45303SOL    HW146223  11.558   8.504   0.718  0.9867  0.6760 -0.6757
45303SOL    HW246224  11.527   8.477   0.864  0.8215  0.9849 -0.6516
45304SOL     OW46225   8.765   4.593   0.743  0.1717  0.2800 -0.5101
45304SOL    HW146226   8.788   4.502   0.724  1.1842  0.4452 -0.1636
45304SOL    HW246227   8.684   4.587   0.794  1.4419 -0.6064  1.5648
45305SOL     OW46228   0.111   8.401   5.566 -0.2845  0.3367 -0.1343
45305SOL    HW146229   0.182   8.441   5.616  0.0380  1.1904 -1.2398
45305SOL    HW246230   0.128   8.307   5.572 -0.8628  0.3290  2.2278
45306SOL     OW46231   4.172  12.867   6.544  0.0397  0.0975  0.2227
45306SOL    HW146232   4.241  12.932   6.530  1.1776 -0.8770  1.0487
45306SOL    HW246233   4.177  12.811   6.466 -0.3237  0.4670 -0.0655
45307SOL     OW46234   9.376   2.695   3.428  0.1234  0.0623 -0.3498
45307SOL    HW146235   9.343   2.714   3.340  1.4037  1.8584 -0.5203
45307SOL    HW246236   9.337   2.763   3.483 -0.6014 -0.9970  0.4798
45308SOL     OW46237   7.964   1.212   9.284 -0.0926 -0.7301 -0.0749
45308SOL    HW146238   7.958   1.307   9.277  0.3606 -0.7960 -1.7818
45308SOL    HW246239   7.907   1.189   9.358 -0.9532  0.7660 -0.2520
45309SOL     OW46240   5.303   6.157   8.392 -0.3153 -0.6266 -0.5308
45309SOL    HW146241   5.272   6.221   8.456 -0.0403  0.0533 -1.0686
45309SOL    HW246242   5.246   6.081   8.406  0.3402 -0.8576  1.1482
45310SOL     OW46243   5.980  10.033   8.117  0.0144  0.5601 -0.0774
45310SOL    HW146244   6.048  10.025   8.184  0.0320 -0.2733 -0.1904
45310SOL    HW246245   5.931  10.112   8.142  0.6711  0.8466  0.3187
45311SOL     OW46246   9.408  10.206   6.001 -0.3242 -0.5077  0.0243
45311SOL    HW146247   9.351  10.280   6.021 -1.7732 -1.2467 -1.2069
45311SOL    HW246248   9.363  10.130   6.037  0.6264 -0.9468  0.3347
45312SOL     OW46249  12.288  10.019   6.667 -0.2283  0.0934 -0.1930
45312SOL    HW146250  12.224  10.072   6.619 -0.9863 -0.0915  0.5818
45312SOL    HW246251  12.373  10.047   6.633 -0.7436 -0.3368 -1.9437
45313SOL     OW46252   4.394  11.064  12.486 -0.2794 -0.3484 -0.0420
45313SOL    HW146253   4.348  11.130  12.433  0.7183  0.8618  0.5467
45313SOL    HW246254   4.374  10.981  12.443 -1.8153  0.2921 -0.6392
45314SOL     OW46255   1.320  10.936   4.864 -0.2239  0.5700 -0.3753
45314SOL    HW146256   1.265  10.869   4.903 -1.2723  0.7494 -1.4812
45314SOL    HW246257   1.361  10.980   4.938 -1.4161  0.2972  0.4667
45315SOL     OW46258   2.917   5.982   7.579  0.1599 -0.5868 -0.1376
45315SOL    HW146259   2.931   5.897   7.622 -1.5114 -1.3908 -1.1134
45315SOL    HW246260   2.910   5.961   7.486 -3.4817  0.1152 -0.1443
45316SOL     OW46261  10.959  10.993   6.343  0.0127 -0.2193  0.2477
45316SOL    HW146262  11.038  10.939   6.348  0.9873  1.1971  0.8633
45316SOL    HW246263  10.945  11.006   6.249  1.0383  0.2468  0.1516
45317SOL     OW46264   4.260   2.034   7.042  0.0660  0.0245 -0.3928
45317SOL    HW146265   4.314   2.112   7.058 -1.2301  0.8600  0.0590
45317SOL    HW246266   4.274   2.014   6.949  0.1921  0.9828 -0.5916
45318SOL     OW46267   2.011   2.942   7.568  0.5543  0.0552  0.0943
45318SOL    HW146268   2.023   2.907   7.656  2.2780 -0.0978 -0.1641
45318SOL    HW246269   2.016   3.037   7.578  1.5012  0.0143  0.0819
45319SOL     OW46270   2.089   8.089   9.763  0.3330  0.5320 -0.2237
45319SOL    HW146271   2.031   8.127   9.697 -1.7348 -0.4093  0.9349
45319SOL    HW246272   2.115   8.005   9.726 -1.2016 -0.2053  0.2748
45320SOL     OW46273   9.568  11.434   6.607  0.8584  0.3306 -0.2222
45320SOL    HW146274   9.540  11.412   6.518 -0.4326  2.5978 -0.4536
45320SOL    HW246275   9.664  11.435   6.603  0.8119  1.5573 -1.9358
45321SOL     OW46276   0.480   5.320   1.989  0.6503 -0.5410 -0.6323
45321SOL    HW146277   0.395   5.278   1.978 -0.2406  0.8874  0.4261
45321SOL    HW246278   0.499   5.311   2.082  1.7299 -0.9387 -0.8788
45322SOL     OW46279   6.539   2.371   3.056 -0.8707 -0.1587 -0.3308
45322SOL    HW146280   6.627   2.346   3.085 -0.8599 -0.0481 -0.2690
45322SOL    HW246281   6.507   2.430   3.124 -0.3326  1.1532 -1.1696
45323SOL     OW46282   3.676   1.927   4.677  0.1045  0.0826  0.4414
45323SOL    HW146283   3.738   1.926   4.750 -0.5821 -2.2111  1.1000
45323SOL    HW246284   3.730   1.915   4.599  0.8639  2.7215  0.4785
45324SOL     OW46285  10.750   8.791   2.557 -0.0411  0.0759  0.5752
45324SOL    HW146286  10.717   8.780   2.646 -1.3274  0.8006  0.2145
45324SOL    HW246287  10.732   8.708   2.514  0.9467 -0.4160  1.0893
45325SOL     OW46288   7.630   1.557   0.358 -0.5623  0.2137  0.2209
45325SOL    HW146289   7.548   1.596   0.388 -0.0569 -1.1987  4.0682
45325SOL    HW246290   7.680   1.631   0.322 -2.8450  1.3899 -0.6909
45326SOL     OW46291  10.775   7.867   8.702  0.0995  0.2221 -0.6459
45326SOL    HW146292  10.816   7.846   8.785  1.3705 -0.2437 -1.3597
45326SOL    HW246293  10.681   7.867   8.720  0.3506 -0.0217  0.7357
45327SOL     OW46294   9.756   2.889   1.755  0.1352  0.1872  0.1511
45327SOL    HW146295   9.802   2.960   1.799  0.4717  0.7883 -1.1070
45327SOL    HW246296   9.663   2.909   1.767  0.2174  1.2620 -0.7816
45328SOL     OW46297   8.038  11.809   0.050  0.1456 -0.3544 -0.4315
45328SOL    HW146298   7.964  11.829  -0.008  1.0924 -1.2229 -2.0083
45328SOL    HW246299   8.045  11.714   0.050  0.7158 -0.3302  0.4288
45329SOL     OW46300  11.468   5.070   9.405  0.0568 -0.2827 -0.3288
45329SOL    HW146301  11.529   5.125   9.455 -0.2029  0.2844 -0.6280
45329SOL    HW246302  11.512   5.057   9.321 -0.7182  1.0869 -0.9755
45330SOL     OW46303   1.678   0.575   7.422  0.0552  0.4263 -0.6975
45330SOL    HW146304   1.764   0.597   7.387  0.3298 -0.6032 -0.7098
45330SOL    HW246305   1.617   0.595   7.351  0.5451 -1.1141 -1.6204
45331SOL     OW46306   4.645  10.079   9.296 -0.6673  0.2870 -0.5277
45331SOL    HW146307   4.736  10.108   9.290 -0.3276 -0.9290 -1.6285
45331SOL    HW246308   4.600  10.150   9.342  0.7585  1.0636 -0.2867
45332SOL     OW46309   6.365   2.856   3.935  0.0873  0.3536 -0.3878
45332SOL    HW146310   6.358   2.927   3.870  0.6559 -0.9092 -1.9041
45332SOL    HW246311   6.275   2.832   3.955 -0.2807  3.5711  2.6337
45333SOL     OW46312   9.271  10.339   3.583  0.1415  0.8588  0.0287
45333SOL    HW146313   9.237  10.420   3.620 -2.5065 -0.0159 -0.2745
45333SOL    HW246314   9.208  10.315   3.516  1.4002 -0.9517 -0.5936
45334SOL     OW46315   1.421   0.330   2.675 -0.0582  0.1760  0.1695
45334SOL    HW146316   1.364   0.294   2.607  1.6108 -2.4684  0.0218
45334SOL    HW246317   1.488   0.378   2.626  0.9281 -1.4087 -0.1034
45335SOL     OW46318   2.579  12.230   6.102  0.4630  0.3669  0.3475
45335SOL    HW146319   2.606  12.187   6.021  0.1589  1.5897 -0.4216
45335SOL    HW246320   2.652  12.217   6.162  0.9226 -0.0854 -0.2979
45336SOL     OW46321   3.967   6.598   0.334  0.3226 -0.0933  0.2565
45336SOL    HW146322   3.953   6.551   0.252 -0.6273 -2.6831  1.7882
45336SOL    HW246323   4.028   6.543   0.384 -1.3218 -0.1630  2.3807
45337SOL     OW46324   3.520  12.929  10.814 -0.3313 -0.0069 -0.3177
45337SOL    HW146325   3.459  12.995  10.846  0.6761  1.3708 -1.0982
45337SOL    HW246326   3.556  12.888  10.892 -1.3248  0.0183  0.1664
45338SOL     OW46327  11.180   1.221   9.707 -0.4641 -0.0754  0.1250
45338SOL    HW146328  11.135   1.232   9.790  1.3284 -0.2568  1.1795
45338SOL    HW246329  11.159   1.300   9.658  0.2052  1.0979  1.6450
45339SOL     OW46330  11.539   0.238   6.968 -0.0936  0.5647  0.7248
45339SOL    HW146331  11.608   0.275   7.024  0.3730 -0.0679  0.5735
45339SOL    HW246332  11.579   0.231   6.882 -0.1150 -0.4500  0.7886
45340SOL     OW46333   6.784   1.867   7.993 -0.1581 -0.0861 -0.2511
45340SOL    HW146334   6.736   1.923   7.932  0.4948  0.5916 -0.1581
45340SOL    HW246335   6.735   1.873   8.075 -0.2075  0.1961 -0.2990
45341SOL     OW46336   4.093  11.807  12.389 -0.3892  0.3896 -0.4602
45341SOL    HW146337   4.077  11.899  12.369  0.2773  0.4055 -0.9427
45341SOL    HW246338   4.016  11.761  12.353 -0.6115  0.7294 -0.4238
45342SOL     OW46339   5.778  10.041   5.596 -0.0566  0.0494  0.6587
45342SOL    HW146340   5.837   9.992   5.539  2.0172  1.8314  1.1300
45342SOL    HW246341   5.823  10.045   5.680 -1.1328  0.9437  1.2217
45343SOL     OW46342   4.015   3.394  11.131 -0.3061  0.5277 -0.3293
45343SOL    HW146343   3.976   3.465  11.080 -0.2745 -0.8209 -2.3686
45343SOL    HW246344   4.107   3.420  11.141 -0.2534  0.7392 -1.2103
45344SOL     OW46345  10.224   2.034   7.599  0.2333 -0.1688  0.1236
45344SOL    HW146346  10.135   2.002   7.612 -0.3183  1.0323 -0.5353
45344SOL    HW246347  10.278   1.978   7.655 -0.9955 -0.5620  0.9570
45345SOL     OW46348   4.607   5.452   1.684  0.2983 -0.4728 -0.1962
45345SOL    HW146349   4.684   5.397   1.698  1.1828  0.6838 -0.2890
45345SOL    HW246350   4.632   5.510   1.611 -0.2027  0.6973  0.5328
45346SOL     OW46351   8.395   7.273   7.441  0.0589  0.3887  0.2593
45346SOL    HW146352   8.424   7.237   7.358 -0.8522 -1.3778  0.6610
45346SOL    HW246353   8.476   7.299   7.486  0.6937 -0.4924 -0.3584
45347SOL     OW46354   9.903  12.588   3.619  0.1957  0.4589 -0.2595
45347SOL    HW146355   9.890  12.592   3.524 -0.6072 -2.1282 -0.3215
45347SOL    HW246356   9.877  12.674   3.651  1.6304  1.8161 -2.4694
45348SOL     OW46357  12.624   0.944   4.341  0.2998  0.2663 -0.3135
45348SOL    HW146358  12.576   0.913   4.418 -0.8603 -0.8578 -1.4630
45348SOL    HW246359  12.570   0.919   4.267  0.7914  2.4188 -1.4738
45349SOL     OW46360   1.830   6.796   6.964 -0.0385  0.0263  0.2892
45349SOL    HW146361   1.757   6.792   6.902 -0.6688 -0.8560  1.0512
45349SOL    HW246362   1.790   6.825   7.046  0.6615  0.5192  0.4664
45350SOL     OW46363  12.149   8.878   3.071  0.0372 -0.0703 -0.1579
45350SOL    HW146364  12.191   8.805   3.116  0.7304  1.4804  1.8730
45350SOL    HW246365  12.202   8.891   2.992  0.7522 -0.8847  0.1740
45351SOL     OW46366   2.104  11.839   2.357  0.0061 -0.1730 -0.4725
45351SOL    HW146367   2.174  11.811   2.299  0.5868  0.6944 -0.2091
45351SOL    HW246368   2.073  11.758   2.398  0.3610 -0.6488 -1.1244
45352SOL     OW46369   4.282  10.198   7.776  0.4102  0.3389 -0.0906
45352SOL    HW146370   4.261  10.259   7.706  0.0924  0.5293  0.1652
45352SOL    HW246371   4.233  10.231   7.852  0.6760  0.0836  0.1939
45353SOL     OW46372   6.328  11.856  12.601 -0.3955 -1.0457  0.0048
45353SOL    HW146373   6.408  11.819  12.564  1.3502  1.0168  1.4590
45353SOL    HW246374   6.317  11.939  12.555 -1.5612 -1.1641  0.0416
45354SOL     OW46375   9.765   9.083  11.278 -0.2869 -0.6140 -0.1672
45354SOL    HW146376   9.780   8.999  11.322 -3.3436 -0.8587  0.7044
45354SOL    HW246377   9.725   9.059  11.194  0.6925 -0.0460 -0.8069
45355SOL     OW46378  10.363   0.617  10.506 -0.0931  0.2103 -0.1942
45355SOL    HW146379  10.340   0.678  10.437  1.5818 -0.6628 -1.6007
45355SOL    HW246380  10.384   0.536  10.460  1.6302 -0.2310  1.2804
45356SOL     OW46381   5.987   7.375   1.675  0.0096  0.3621  0.5100
45356SOL    HW146382   6.038   7.314   1.623  0.2779 -0.0374  1.2237
45356SOL    HW246383   5.926   7.320   1.724 -1.1688  0.8377 -0.3789
45357SOL     OW46384  12.971   1.264   3.618  0.1793 -0.0186 -0.2003
45357SOL    HW146385  12.976   1.204   3.692 -1.3539 -0.2849 -0.2798
45357SOL    HW246386  12.880   1.260   3.590  0.8024 -0.2246 -2.3640
45358SOL     OW46387  10.126   7.054   8.241  0.1725  0.5182  0.0919
45358SOL    HW146388  10.038   7.058   8.202 -0.3333  0.9346  1.2214
45358SOL    HW246389  10.118   7.102   8.323  0.8719 -1.2738  1.2850
45359SOL     OW46390  12.450   9.248   1.668 -0.3877 -0.2824 -0.0676
45359SOL    HW146391  12.541   9.231   1.641 -0.9935 -0.3263 -2.2252
45359SOL    HW246392  12.418   9.162   1.696 -0.0735 -0.4854 -0.3125
45360SOL     OW46393   9.228   7.873   6.463 -0.5523  0.0766  1.0902
45360SOL    HW146394   9.234   7.804   6.529  0.0460 -1.7710 -0.7942
45360SOL    HW246395   9.136   7.898   6.463 -1.2580 -2.3122  0.3288
45361SOL     OW46396   7.926   1.126   0.838 -0.0023 -0.4634 -0.1874
45361SOL    HW146397   7.884   1.123   0.923 -0.3295 -0.7233 -0.3577
45361SOL    HW246398   7.997   1.189   0.849  0.8567 -1.5485  0.6747
45362SOL     OW46399   5.536   6.846   5.810  0.2756  0.1435  0.9266
45362SOL    HW146400   5.585   6.801   5.878 -1.3802 -2.4047  0.5817
45362SOL    HW246401   5.577   6.816   5.728 -1.7561 -2.1528  0.6276
45363SOL     OW46402   7.012   1.953   9.695 -0.0253 -0.1662 -0.2572
45363SOL    HW146403   7.078   1.989   9.636  0.0515 -0.7370 -0.5208
45363SOL    HW246404   7.044   1.866   9.717  0.7736  0.5850  1.8868
45364SOL     OW46405   7.163  11.492   7.029  0.0921 -0.3420  0.0834
45364SOL    HW146406   7.093  11.433   7.056  0.4016  0.1292  2.1503
45364SOL    HW246407   7.241  11.457   7.073  0.8167  0.0997 -0.8145
45365SOL     OW46408   2.812   1.307   2.715  0.7739  0.5131 -0.2980
45365SOL    HW146409   2.821   1.390   2.668  1.0656  0.1396 -0.9086
45365SOL    HW246410   2.833   1.240   2.650  0.5526 -0.0421  0.1944
45366SOL     OW46411   0.404   2.751   0.243 -0.8687 -0.2097 -0.1093
45366SOL    HW146412   0.409   2.660   0.215  0.8322  0.0926 -0.9435
45366SOL    HW246413   0.370   2.798   0.167  1.3884  0.2567 -0.9384
45367SOL     OW46414   0.100   3.431  11.632 -0.4131 -0.0134  0.4874
45367SOL    HW146415   0.154   3.502  11.666  0.5276 -0.2156 -0.5408
45367SOL    HW246416   0.070   3.462  11.547  1.8837 -1.6611 -1.0588
45368SOL     OW46417  11.747   6.822   2.197  0.2267  0.3135 -0.1905
45368SOL    HW146418  11.660   6.861   2.187 -0.4781 -1.0235  0.4932
45368SOL    HW246419  11.805   6.896   2.216 -0.9533  1.0905  0.4491
45369SOL     OW46420   5.612   8.789   7.924 -0.0303  0.3793 -0.3759
45369SOL    HW146421   5.635   8.698   7.902 -1.0191 -0.6933  2.5035
45369SOL    HW246422   5.516   8.789   7.923 -0.0374  1.4898 -0.5412
45370SOL     OW46423   3.251   8.425   9.829  0.3144  0.3504  0.6747
45370SOL    HW146424   3.300   8.353   9.869 -0.4327  0.6298  2.1729
45370SOL    HW246425   3.181   8.382   9.779  0.2903  0.0133  0.9929
45371SOL     OW46426  10.208   7.639   0.252 -0.0135 -0.5852  0.0565
45371SOL    HW146427  10.241   7.609   0.337 -0.1846 -0.5177  0.1479
45371SOL    HW246428  10.244   7.576   0.189  1.6647  0.4314 -0.0560
45372SOL     OW46429   3.914   6.597   8.598  0.3958  0.1155 -0.5201
45372SOL    HW146430   3.833   6.595   8.546 -0.0574  1.3109  0.1022
45372SOL    HW246431   3.984   6.599   8.532 -0.0145 -1.5888 -1.0714
45373SOL     OW46432   1.657   0.376   9.230  0.3680 -0.3260  0.0287
45373SOL    HW146433   1.582   0.435   9.237  0.4281 -0.1957 -0.3602
45373SOL    HW246434   1.648   0.316   9.304  0.1180 -0.0411  0.2297
45374SOL     OW46435  10.745   7.754   3.682  0.4972  0.1468 -0.0640
45374SOL    HW146436  10.654   7.765   3.655  0.5089  0.6585  0.0946
45374SOL    HW246437  10.759   7.659   3.680 -0.2275  0.0165  0.5077
45375SOL     OW46438   1.023   6.575   2.539  0.3294 -0.1439 -0.4111
45375SOL    HW146439   1.065   6.489   2.543 -1.6061 -1.2849 -2.3678
45375SOL    HW246440   0.959   6.567   2.469 -2.2607  1.8488  1.5352
45376SOL     OW46441   0.233  10.403   3.599 -0.1471 -0.0995 -0.2226
45376SOL    HW146442   0.181  10.333   3.639  2.0854 -1.9101 -0.2980
45376SOL    HW246443   0.297  10.427   3.666  1.1888 -0.4535 -1.3288
45377SOL     OW46444   2.331   0.611   7.116  0.3278 -0.1809 -0.0361
45377SOL    HW146445   2.359   0.624   7.207  0.1459 -1.3266  0.2017
45377SOL    HW246446   2.248   0.563   7.123  1.1187 -1.7239 -0.8148
45378SOL     OW46447   9.998   2.365   7.957 -0.2665  0.4494  0.2045
45378SOL    HW146448  10.022   2.455   7.936 -0.0048  0.3183 -0.0563
45378SOL    HW246449  10.007   2.318   7.875 -0.9240  0.2937  0.2149
45379SOL     OW46450   2.789  12.745   7.588 -0.6397 -0.1528 -0.5827
45379SOL    HW146451   2.869  12.794   7.605 -1.1767  0.5719 -0.1101
45379SOL    HW246452   2.814  12.682   7.520  0.3114  0.0978 -0.4811
45380SOL     OW46453   2.810  10.754   1.158 -0.2960 -0.1020  0.4127
45380SOL    HW146454   2.719  10.776   1.179 -0.8130 -2.5623  1.0193
45380SOL    HW246455   2.860  10.780   1.235 -0.6839  0.0173  0.6242
45381SOL     OW46456   0.821  12.789  11.163  0.0739  0.0925  0.4392
45381SOL    HW146457   0.752  12.852  11.143  0.6327  0.2174 -1.2700
45381SOL    HW246458   0.829  12.790  11.259  0.0120  2.5470  0.4718
45382SOL     OW46459  12.680   0.808   0.058 -0.0566 -0.1387 -0.0154
45382SOL    HW146460  12.592   0.845   0.047  0.1296  0.2349 -0.2798
45382SOL    HW246461  12.738   0.884   0.063  0.2316 -0.3781  0.3780
45383SOL     OW46462  11.669   5.758   8.161  0.8590  0.3831  0.2089
45383SOL    HW146463  11.753   5.804   8.168 -0.7334  3.9335 -1.6238
45383SOL    HW246464  11.615   5.815   8.106 -1.0597 -4.2980 -3.4131
45384SOL     OW46465   4.378   4.047  10.459 -0.0522 -0.0069  0.0824
45384SOL    HW146466   4.456   4.103  10.456  0.4761 -0.7622 -1.7885
45384SOL    HW246467   4.409   3.965  10.497 -0.4210  0.3552  1.1945
45385SOL     OW46468   1.104  11.921  12.272 -0.5469  0.5918  0.3742
45385SOL    HW146469   1.071  11.945  12.186 -1.8545 -3.8292 -0.5887
45385SOL    HW246470   1.034  11.947  12.332 -0.8899  1.1578 -0.2517
45386SOL     OW46471   3.116   0.365   2.871  0.1662  0.2886  0.1828
45386SOL    HW146472   3.040   0.422   2.860  0.2470  0.3527 -0.0288
45386SOL    HW246473   3.088   0.302   2.938  0.0512  0.5258  0.3604
45387SOL     OW46474   1.606   7.461  12.322  0.3602  0.1222  0.5001
45387SOL    HW146475   1.631   7.546  12.285 -1.0531 -0.4016 -1.8814
45387SOL    HW246476   1.572   7.482  12.409  0.6413  1.9037  0.2266
45388SOL     OW46477   0.209   8.385   9.071 -0.6958  0.2444  0.1936
45388SOL    HW146478   0.227   8.292   9.086  0.7834  0.3986 -0.3992
45388SOL    HW246479   0.295   8.427   9.078 -1.2718  1.5059 -0.0123
45389SOL     OW46480  10.982   3.804  10.224  0.3506  0.5823  0.1429
45389SOL    HW146481  11.036   3.809  10.303 -2.5124 -0.1975  2.3289
45389SOL    HW246482  10.964   3.710  10.214 -0.1229  0.7736 -0.8846
45390SOL     OW46483  12.731  10.161  12.036  0.3693 -0.0991 -0.3285
45390SOL    HW146484  12.730  10.251  12.003  1.8188  0.3439  0.7719
45390SOL    HW246485  12.823  10.135  12.031  0.4307 -0.4916  2.0652
45391SOL     OW46486   4.022  10.617   4.763  0.3983 -0.3450 -0.3573
45391SOL    HW146487   4.076  10.539   4.778 -0.2012 -1.0597 -1.7135
45391SOL    HW246488   3.932  10.586   4.775  0.2207  0.7101  1.3575
45392SOL     OW46489   2.155  11.570   2.703 -0.2897  0.0652 -0.5774
45392SOL    HW146490   2.121  11.603   2.620 -1.4758  2.7314  0.8454
45392SOL    HW246491   2.250  11.571   2.693 -0.4153  0.1644 -1.9398
45393SOL     OW46492   1.850  12.829   7.273  0.0490  0.2903  0.0365
45393SOL    HW146493   1.893  12.802   7.192  0.5281 -2.8866  1.2209
45393SOL    HW246494   1.887  12.916   7.292 -0.9022  1.6544 -3.6095
45394SOL     OW46495   9.176  12.208  12.409  0.1139  0.0290  0.1204
45394SOL    HW146496   9.192  12.180  12.499  0.2436 -0.8285 -0.1668
45394SOL    HW246497   9.261  12.236  12.377  0.2883 -0.7313 -0.0969
45395SOL     OW46498   5.691   6.387   8.207  0.8230 -0.2053 -0.5374
45395SOL    HW146499   5.671   6.419   8.119  0.4683 -2.1735 -1.2083
45395SOL    HW246500   5.766   6.440   8.235 -0.4610  2.0225 -1.0681
45396SOL     OW46501   1.093  10.318   0.543 -0.0864 -0.8209  0.5232
45396SOL    HW146502   1.006  10.282   0.557 -1.7678  2.3941 -0.6498
45396SOL    HW246503   1.152  10.256   0.586 -3.0738 -2.0343  3.2632
45397SOL     OW46504   5.755   2.302   2.233 -0.0548 -0.9391 -0.1136
45397SOL    HW146505   5.702   2.282   2.155  1.1257  0.7907 -1.4403
45397SOL    HW246506   5.776   2.395   2.223 -0.4723 -0.4662  2.6895
45398SOL     OW46507   0.662  10.834   1.785  0.5489 -0.3520 -0.4215
45398SOL    HW146508   0.687  10.904   1.724 -0.0173  0.1508 -0.0839
45398SOL    HW246509   0.745  10.808   1.826  1.0339 -1.1118 -1.8199
45399SOL     OW46510   6.542   7.599   5.379 -0.0593  0.5074 -0.0171
45399SOL    HW146511   6.485   7.523   5.376  2.6543 -1.6754 -2.0026
45399SOL    HW246512   6.524   7.640   5.463 -4.2719 -0.0660 -0.4277
45400SOL     OW46513  10.789   2.345  12.749 -0.2349  0.2307  0.0751
45400SOL    HW146514  10.694   2.348  12.760 -0.2104  0.9188  0.1505
45400SOL    HW246515  10.824   2.370  12.834  0.0153 -0.0692  0.0607
45401SOL     OW46516   1.178   8.334   7.056  0.5548 -0.3399 -0.7551
45401SOL    HW146517   1.124   8.384   6.995  1.0033  1.7195  0.4056
45401SOL    HW246518   1.255   8.308   7.005  0.2721  0.1094 -1.4221
45402SOL     OW46519   1.884   4.724   3.114  0.1848  0.4089  0.1975
45402SOL    HW146520   1.841   4.808   3.096  0.8177  0.9503  1.1202
45402SOL    HW246521   1.964   4.748   3.161  0.4191 -0.7137  0.3954
45403SOL     OW46522  12.732   0.720   0.485  0.4725  0.1288 -0.0909
45403SOL    HW146523  12.660   0.677   0.439  0.7685  1.2215 -1.6328
45403SOL    HW246524  12.810   0.692   0.439  1.0362 -0.7298  1.3267
45404SOL     OW46525  11.311   3.205   6.740  0.3253  0.3057  0.1533
45404SOL    HW146526  11.227   3.160   6.734  0.2658  0.4793 -0.3942
45404SOL    HW246527  11.342   3.188   6.829 -1.0187  1.5460  0.8940
45405SOL     OW46528   4.332  11.475   7.592  0.3758  0.0374 -0.9817
45405SOL    HW146529   4.254  11.420   7.596  0.6292 -0.4745 -2.3043
45405SOL    HW246530   4.299  11.563   7.575 -0.1916  0.8761  3.3043
45406SOL     OW46531   7.135   2.093   6.079 -0.4545 -0.3428  0.0419
45406SOL    HW146532   7.076   2.020   6.060 -0.6853 -0.4569  1.1324
45406SOL    HW246533   7.080   2.158   6.124  0.0716 -0.1359  0.4005
45407SOL     OW46534   1.780   5.350   6.934  0.4558 -0.3541 -0.4478
45407SOL    HW146535   1.809   5.435   6.967 -3.3785  0.5972  1.0091
45407SOL    HW246536   1.802   5.288   7.004  0.0975  0.1077  0.0791
45408SOL     OW46537   7.094   1.289   2.482  0.4536 -1.1792  0.8238
45408SOL    HW146538   7.149   1.263   2.556  1.1730 -0.7232  0.4684
45408SOL    HW246539   7.008   1.305   2.520  1.1848  0.6329  1.8616
45409SOL     OW46540   0.023   1.136   3.843 -0.3927  0.4099 -0.1549
45409SOL    HW146541   0.049   1.044   3.838  1.5886  0.9952 -2.2633
45409SOL    HW246542   0.026   1.156   3.937 -1.2589 -1.7296  0.3927
45410SOL     OW46543   3.582  11.288   0.923  0.1036 -0.2739  0.2220
45410SOL    HW146544   3.528  11.366   0.913  1.1460  0.3521 -0.7854
45410SOL    HW246545   3.520  11.216   0.937 -1.1361  0.1157 -2.7011
45411SOL     OW46546   5.002  11.188  10.444 -0.2060  0.1220 -0.3066
45411SOL    HW146547   5.095  11.208  10.431  0.1317  0.3589  2.1126
45411SOL    HW246548   4.958  11.271  10.426  0.0839  0.1583 -0.9026
45412SOL     OW46549   1.862   9.156   4.901  0.2863 -0.6224 -0.4564
45412SOL    HW146550   1.931   9.090   4.904  2.1548  1.2461  0.9006
45412SOL    HW246551   1.890   9.218   4.834 -0.4877 -0.2705 -0.4713
45413SOL     OW46552   3.476  10.894   8.407 -0.0984 -0.7470  0.2385
45413SOL    HW146553   3.534  10.887   8.483  0.0991  0.5237  0.2265
45413SOL    HW246554   3.487  10.811   8.360  1.4599 -0.6622  0.4101
45414SOL     OW46555   5.586   9.993   3.646 -0.0248 -0.8296 -0.1593
45414SOL    HW146556   5.599  10.084   3.673 -0.7777 -1.2187  1.6552
45414SOL    HW246557   5.572   9.998   3.552  0.2314  0.9046 -0.1377
45415SOL     OW46558   1.498   3.242   5.860 -0.0053  0.5139  0.2417
45415SOL    HW146559   1.415   3.273   5.895  0.3466  0.7049  0.9222
45415SOL    HW246560   1.487   3.147   5.853  0.6101  0.1739  2.8725
45416SOL     OW46561  11.113  11.096   8.403 -0.4751  0.0092  0.3719
45416SOL    HW146562  11.100  11.008   8.437 -1.6121 -0.2838 -0.7360
45416SOL    HW246563  11.032  11.116   8.356 -0.0449  1.4518  0.1761
45417SOL     OW46564   7.405   5.823   6.511 -0.2173 -0.5873  0.4056
45417SOL    HW146565   7.392   5.916   6.527  1.7786 -0.0427 -0.8180
45417SOL    HW246566   7.404   5.815   6.416 -0.4553 -1.8508  0.4994
45418SOL     OW46567   2.985  10.323   1.039 -0.0686  0.5233 -0.3852
45418SOL    HW146568   2.960  10.326   1.131  0.7697 -0.7249 -0.0830
45418SOL    HW246569   3.052  10.254   1.035  1.4335  1.9580 -1.5715
45419SOL     OW46570   5.976   3.409   3.055  0.4913  0.5514 -0.1405
45419SOL    HW146571   5.958   3.461   3.133  0.2765  0.0173  0.1754
45419SOL    HW246572   5.995   3.321   3.088 -0.6320  0.0522 -0.7252
45420SOL     OW46573  12.637   0.218   3.457  0.6442 -0.0990 -0.1254
45420SOL    HW146574  12.676   0.134   3.482  0.2680 -0.3616 -0.4211
45420SOL    HW246575  12.644   0.221   3.362 -2.0921 -1.1972 -0.4573
45421SOL     OW46576   7.156  11.389  11.099 -0.3027 -0.2086 -0.1725
45421SOL    HW146577   7.198  11.388  11.014 -1.0356 -0.4823 -0.5480
45421SOL    HW246578   7.132  11.297  11.115  0.9088 -0.3710  0.8924
45422SOL     OW46579   2.478   7.193  10.684 -0.0765 -0.2617 -0.2868
45422SOL    HW146580   2.493   7.271  10.631  0.7608 -0.5888 -0.5382
45422SOL    HW246581   2.565   7.165  10.712 -0.3902 -0.9473  0.0339
45423SOL     OW46582  10.530   8.635   5.288  0.2191  0.6259 -0.0807
45423SOL    HW146583  10.611   8.588   5.304  0.4953  0.5322 -1.6155
45423SOL    HW246584  10.547   8.686   5.208 -0.9696  1.2148  0.0163
45424SOL     OW46585   5.412   5.500   7.751  0.7118  0.2199 -0.3745
45424SOL    HW146586   5.426   5.453   7.668 -0.5511 -1.8059  0.4875
45424SOL    HW246587   5.378   5.433   7.811  2.7200  1.3217  2.1829
45425SOL     OW46588   2.052  12.910   9.514 -0.3943  0.2322 -0.3279
45425SOL    HW146589   2.078  12.942   9.600 -1.0373  0.0164 -0.0440
45425SOL    HW246590   1.976  12.854   9.531  0.3048 -0.9219 -0.8964
45426SOL     OW46591   3.425   9.844   3.475 -0.5168  0.1935  0.4586
45426SOL    HW146592   3.388   9.929   3.451 -1.0659  0.1216  1.0625
45426SOL    HW246593   3.517   9.851   3.449 -1.0674  0.1019 -1.7469
45427SOL     OW46594   5.160   9.577  10.136  0.4924  0.3796  0.2129
45427SOL    HW146595   5.182   9.600  10.226 -3.3325 -0.1247  1.4630
45427SOL    HW246596   5.215   9.501  10.116  2.3438  1.2923  1.5753
45428SOL     OW46597   5.069  11.345   5.193 -0.2979  0.0826  0.2848
45428SOL    HW146598   5.069  11.344   5.289 -1.3494  0.0541  0.2936
45428SOL    HW246599   5.017  11.422   5.170 -1.8570 -1.0718 -0.2398
45429SOL     OW46600  10.052  11.567  10.129 -0.2442  0.1657 -0.1292
45429SOL    HW146601  10.104  11.508  10.184 -0.1995 -0.1683 -0.5275
45429SOL    HW246602  10.046  11.648  10.180 -1.8597 -0.7770  1.2680
45430SOL     OW46603   4.885   3.555   7.841 -0.5144 -0.4897  0.0795
45430SOL    HW146604   4.975   3.585   7.852 -0.6858 -0.0502  0.2964
45430SOL    HW246605   4.844   3.622   7.786 -1.1555  0.1987  1.3466
45431SOL     OW46606  11.168   4.778   9.507 -0.2203 -0.0635 -0.3702
45431SOL    HW146607  11.145   4.867   9.534  0.2198  0.7109 -2.3650
45431SOL    HW246608  11.262   4.781   9.490 -0.4815 -0.4243 -2.0450
45432SOL     OW46609  11.089   3.373   5.358 -0.2246 -0.5960  0.0458
45432SOL    HW146610  11.108   3.289   5.315 -0.3932  0.2019 -1.6694
45432SOL    HW246611  11.166   3.389   5.413  0.7044 -0.9530 -1.1052
45433SOL     OW46612   9.325   1.314   2.308  0.6290 -0.7869 -0.3836
45433SOL    HW146613   9.392   1.353   2.365  0.4237 -1.1012  0.0774
45433SOL    HW246614   9.358   1.227   2.289  0.4113 -0.8971 -0.2570
45434SOL     OW46615   3.906   1.143   2.524 -0.2386 -0.1214  0.1373
45434SOL    HW146616   3.852   1.221   2.516  0.3065  0.2909  0.4380
45434SOL    HW246617   3.996   1.174   2.509 -0.1398 -0.9151 -1.0543
45435SOL     OW46618   4.870   7.217   8.534 -0.4235  0.3347  0.1023
45435SOL    HW146619   4.952   7.221   8.485  0.0484 -0.4403  0.8066
45435SOL    HW246620   4.809   7.270   8.482 -0.2783 -1.3403 -1.9063
45436SOL     OW46621   5.484   5.761   9.048 -0.0929 -0.6067  0.5179
45436SOL    HW146622   5.527   5.827   8.994 -1.5421  0.2526  0.3636
45436SOL    HW246623   5.431   5.811   9.110 -1.1203 -1.6170  0.4893
45437SOL     OW46624   0.558  12.393  11.228  0.1905  0.2302  0.1051
45437SOL    HW146625   0.637  12.424  11.184 -0.2515  0.2601 -0.6713
45437SOL    HW246626   0.566  12.427  11.317  0.4562  1.2665 -0.2999
45438SOL     OW46627   8.626  11.655   2.112 -0.1415  0.0113  0.4517
45438SOL    HW146628   8.644  11.564   2.088  0.8961  0.3200 -0.0111
45438SOL    HW246629   8.666  11.666   2.198 -0.8376 -0.1413  0.8016
45439SOL     OW46630   3.950   4.946   9.308 -0.4284  0.4260 -0.1338
45439SOL    HW146631   3.928   5.034   9.280 -0.7486  0.2151 -0.5559
45439SOL    HW246632   3.890   4.889   9.260 -0.2855 -0.0173  0.1972
45440SOL     OW46633   7.278  12.884  11.582 -0.7248 -0.4796 -0.6032
45440SOL    HW146634   7.365  12.924  11.583 -0.3740 -1.1282  1.6192
45440SOL    HW246635   7.218  12.954  11.606 -0.4299 -0.6452  0.6930
45441SOL     OW46636   2.563   1.327   2.528  0.0785 -0.2044 -0.1938
45441SOL    HW146637   2.637   1.279   2.491 -1.1934 -0.0369 -3.1917
45441SOL    HW246638   2.502   1.259   2.556 -0.0976 -0.3618 -0.9352
45442SOL     OW46639  11.415   0.965   5.510 -0.0997  0.0834 -0.1642
45442SOL    HW146640  11.435   0.895   5.571  0.6886 -1.0341 -1.6571
45442SOL    HW246641  11.496   0.978   5.460 -0.9211  0.4636 -1.4482
45443SOL     OW46642  10.906   6.109   9.013 -0.0366 -0.7475  0.3653
45443SOL    HW146643  10.911   6.192   8.966  0.6004 -0.6362  0.6185
45443SOL    HW246644  10.812   6.088   9.015 -0.1716 -0.1947  0.0274
45444SOL     OW46645   1.997  12.281   4.507  0.2371 -0.3165 -0.1699
45444SOL    HW146646   1.921  12.230   4.479  1.0808 -1.1928 -0.9169
45444SOL    HW246647   2.069  12.246   4.455  1.4393 -0.4969  1.5668
45445SOL     OW46648   8.392   1.596   4.855 -0.4711  0.4489  0.0159
45445SOL    HW146649   8.463   1.613   4.792  0.5405 -0.0083  0.9871
45445SOL    HW246650   8.317   1.643   4.820  0.2615  0.7901 -1.1613
45446SOL     OW46651  11.540  10.132   9.963  0.0041  0.3181 -0.1122
45446SOL    HW146652  11.478  10.087  10.020  0.3670 -2.3896 -1.6791
45446SOL    HW246653  11.486  10.192   9.911 -1.1569 -1.0345 -0.5422
45447SOL     OW46654   2.929  12.423   4.331  0.5379 -0.0439 -0.7205
45447SOL    HW146655   2.934  12.515   4.357 -2.4523  0.5480 -1.8177
45447SOL    HW246656   2.869  12.383   4.394  0.3461 -0.7951 -1.3573
45448SOL     OW46657   1.228   0.075  10.730  0.6075 -0.4907  0.7591
45448SOL    HW146658   1.230   0.010  10.800  0.7789 -0.1949  1.0285
45448SOL    HW246659   1.311   0.064  10.684 -0.4352 -2.2956 -0.8908
45449SOL     OW46660   3.635   2.688   0.165  0.4625  0.3057 -0.1997
45449SOL    HW146661   3.586   2.606   0.166  0.8747  0.0570  0.5406
45449SOL    HW246662   3.617   2.726   0.079  0.1273 -0.4724 -0.4826
45450SOL     OW46663   0.679   5.646   5.792 -0.0396  0.2459 -0.1711
45450SOL    HW146664   0.647   5.612   5.876 -2.4845 -0.9596 -1.4812
45450SOL    HW246665   0.728   5.725   5.815  1.7579 -1.4931  2.6078
45451SOL     OW46666   2.478  10.368   7.802  0.5744 -0.1044  0.1072
45451SOL    HW146667   2.509  10.431   7.737 -0.4448  0.4545  0.1288
45451SOL    HW246668   2.539  10.377   7.875  0.1360  1.3051  0.3457
45452SOL     OW46669   0.741   6.235   3.210 -0.0127 -0.6026 -0.0642
45452SOL    HW146670   0.773   6.164   3.154  2.7339  0.5736 -0.1648
45452SOL    HW246671   0.752   6.313   3.157  1.2767  0.3766  1.5313
45453SOL     OW46672   1.466   8.517  11.430 -0.0691 -0.1627  0.0376
45453SOL    HW146673   1.461   8.601  11.476 -1.1593 -0.1909 -0.0004
45453SOL    HW246674   1.386   8.471  11.456  0.4967 -1.1769  0.0249
45454SOL     OW46675   7.411  12.026   8.979 -0.1028 -0.0735  0.0148
45454SOL    HW146676   7.342  12.091   8.966 -0.1664  0.1579  1.3761
45454SOL    HW246677   7.414  12.013   9.074 -0.2152 -2.1911 -0.2344
45455SOL     OW46678   8.079   0.324   3.685 -0.3764 -0.7291 -0.5900
45455SOL    HW146679   8.166   0.324   3.646  0.2507 -0.1400  0.7545
45455SOL    HW246680   8.035   0.399   3.646 -0.7760 -1.7962 -2.2736
45456SOL     OW46681   8.229   2.510   3.484  0.3571 -0.3799 -0.5658
45456SOL    HW146682   8.154   2.481   3.537 -0.9992  1.4220 -1.4014
45456SOL    HW246683   8.287   2.553   3.547 -1.0871  1.4594 -0.3956
45457SOL     OW46684  12.217   0.108   4.436  0.6130 -0.1065  0.3610
45457SOL    HW146685  12.144   0.047   4.428  1.2942 -1.2245  1.9949
45457SOL    HW246686  12.183   0.181   4.487  0.3459 -0.0791  0.1466
45458SOL     OW46687   8.370   7.867   8.521  0.0187  0.1596  0.4350
45458SOL    HW146688   8.313   7.933   8.561  0.2734  0.2355  0.6669
45458SOL    HW246689   8.348   7.871   8.428  2.1848  2.7347 -0.0680
45459SOL     OW46690  12.620  12.546   4.703  0.0866 -0.4682 -0.3883
45459SOL    HW146691  12.624  12.624   4.647 -0.2974  0.1988  0.5000
45459SOL    HW246692  12.530  12.514   4.692 -0.2680  0.1740  0.5000
45460SOL     OW46693   5.262  11.443   7.259 -0.3183 -0.4638 -0.2749
45460SOL    HW146694   5.254  11.348   7.257 -1.8077 -0.4013  0.7909
45460SOL    HW246695   5.184  11.475   7.214 -1.1247  0.2193  1.4799
45461SOL     OW46696   7.656   1.326  11.859 -0.5435 -0.0897  0.3339
45461SOL    HW146697   7.610   1.255  11.905 -1.4773  0.5259  0.3628
45461SOL    HW246698   7.683   1.286  11.776  0.5888 -1.0214  1.1070
45462SOL     OW46699   2.254   2.646   0.968  0.3436 -0.1338  0.0930
45462SOL    HW146700   2.293   2.568   1.008 -0.0142 -0.1767  0.3642
45462SOL    HW246701   2.320   2.676   0.906 -0.5172 -2.1879 -2.0010
45463SOL     OW46702   0.329   2.812   6.345  0.1264 -0.2581  0.1502
45463SOL    HW146703   0.287   2.873   6.407 -0.5412 -0.6106  0.0498
45463SOL    HW246704   0.399   2.864   6.305 -1.1263  0.8104 -0.7520
45464SOL     OW46705   5.469   9.575   4.307 -0.1761 -0.0278 -0.0745
45464SOL    HW146706   5.535   9.636   4.274  0.1886  0.3175  1.2249
45464SOL    HW246707   5.390   9.597   4.258 -0.1976  1.8744  0.7208
45465SOL     OW46708   9.585   7.480   8.323  0.4285 -0.8575  0.6967
45465SOL    HW146709   9.516   7.547   8.322 -0.0603 -1.3439 -0.4095
45465SOL    HW246710   9.539   7.399   8.346  1.2239 -0.6553  3.2725
45466SOL     OW46711   3.128  11.358   5.837  0.2852  0.3833  0.3722
45466SOL    HW146712   3.060  11.296   5.814 -0.3106  1.8451 -2.1224
45466SOL    HW246713   3.170  11.380   5.754  1.9561  1.6279  1.4770
45467SOL     OW46714   7.047   0.534   9.387 -0.1274  0.5551 -0.3372
45467SOL    HW146715   7.021   0.443   9.401  0.7158  0.4520  0.6367
45467SOL    HW246716   7.117   0.530   9.322 -0.3403  0.5522 -0.5708
45468SOL     OW46717  10.754   9.578   4.284 -0.1476 -0.5521  0.2868
45468SOL    HW146718  10.674   9.590   4.233 -0.1105 -2.3626 -0.2658
45468SOL    HW246719  10.790   9.666   4.293 -2.3822  0.3805  0.9076
45469SOL     OW46720  11.097   0.973   1.199 -0.4389 -0.3794 -0.5223
45469SOL    HW146721  11.183   1.003   1.170 -0.1856 -0.6956 -0.1208
45469SOL    HW246722  11.035   1.015   1.140 -0.2135  2.0140  0.8165
45470SOL     OW46723   3.479   5.699   0.180 -0.0823 -0.1755  0.1968
45470SOL    HW146724   3.556   5.743   0.217  1.6624 -1.6624 -1.4740
45470SOL    HW246725   3.443   5.761   0.117  2.5081 -1.0093 -2.3346
45471SOL     OW46726   9.533   9.174   0.273 -0.4937  0.7874 -0.3460
45471SOL    HW146727   9.538   9.173   0.369 -0.5162 -0.7313 -0.3276
45471SOL    HW246728   9.450   9.131   0.253 -0.3457  0.8162 -1.0467
45472SOL     OW46729   4.101  11.152   8.803  0.4172  0.6032  0.2134
45472SOL    HW146730   4.191  11.122   8.794  0.5396  0.8581  0.5690
45472SOL    HW246731   4.109  11.246   8.820  0.0110  1.1126 -2.0251
45473SOL     OW46732   2.089   2.480   4.349 -0.4241  0.3663  0.0010
45473SOL    HW146733   2.164   2.536   4.329 -0.4337  0.1973 -0.5235
45473SOL    HW246734   2.085   2.479   4.445  1.5096 -1.2910  0.1244
45474SOL     OW46735   6.851  12.501   7.428  0.7598 -0.2393 -0.2334
45474SOL    HW146736   6.895  12.533   7.508 -2.3427  1.1873  1.0497
45474SOL    HW246737   6.900  12.422   7.405  1.9229 -0.6345  2.9925
45475SOL     OW46738   8.113   2.415  12.839  0.4201  0.6291  0.3760
45475SOL    HW146739   8.111   2.493  12.895 -0.8116  0.6416  0.3345
45475SOL    HW246740   8.023   2.383  12.839  0.2826  0.8581 -1.9271
45476SOL     OW46741  11.293   2.370   8.056  0.0099  0.5122 -0.5349
45476SOL    HW146742  11.231   2.370   7.984 -1.3418 -0.3069  0.5787
45476SOL    HW246743  11.249   2.322   8.126  1.4991  0.7834  0.6482
45477SOL     OW46744   5.145   2.759   8.103 -0.7384  0.2337  0.2991
45477SOL    HW146745   5.134   2.820   8.175  0.1247  0.5209  0.1956
45477SOL    HW246746   5.238   2.735   8.105 -0.1963  1.7744 -1.9029
45478SOL     OW46747  12.510   1.236   0.252 -0.5469 -0.5548  0.0843
45478SOL    HW146748  12.506   1.241   0.157 -3.6101  1.1950  0.1651
45478SOL    HW246749  12.496   1.326   0.281  2.7248 -0.5938  2.2699
45479SOL     OW46750   2.047   5.630   7.957  0.2029  0.3838 -0.1456
45479SOL    HW146751   2.116   5.685   7.993 -0.1121  1.3425 -0.9263
45479SOL    HW246752   2.064   5.543   7.992  0.7285  0.9705  1.1277
45480SOL     OW46753   2.268  10.440   5.568 -0.6085 -0.5794  0.2173
45480SOL    HW146754   2.248  10.471   5.480  1.3251  1.0804  0.2804
45480SOL    HW246755   2.188  10.398   5.598 -1.5556 -0.5110 -2.0280
45481SOL     OW46756   9.016   4.301   8.179  0.2849  0.1180  0.9046
45481SOL    HW146757   9.011   4.227   8.119  0.5725  0.1504  0.8381
45481SOL    HW246758   9.029   4.377   8.121 -0.7612  0.3221  0.9142
45482SOL     OW46759   0.118  12.647   8.110 -0.4629 -0.7071 -0.1829
45482SOL    HW146760   0.042  12.704   8.102  0.6612  0.8337 -0.2617
45482SOL    HW246761   0.111  12.588   8.034 -0.9199  0.2320 -0.8952
45483SOL     OW46762   6.540   0.137   0.509  0.1543  0.1837  0.5834
45483SOL    HW146763   6.468   0.074   0.502 -0.6685  1.0729  0.8104
45483SOL    HW246764   6.584   0.114   0.591  0.3443 -0.5758  0.2753
45484SOL     OW46765  10.432  10.081   7.974 -0.0820 -0.3438  0.2475
45484SOL    HW146766  10.438  10.103   8.067 -0.4896  0.9453 -0.0069
45484SOL    HW246767  10.500  10.134   7.932 -1.1060  0.4822 -0.4025
45485SOL     OW46768   6.699  12.585   3.575  0.7505  0.7169  0.0077
45485SOL    HW146769   6.664  12.657   3.522 -0.6552 -0.7145 -1.1218
45485SOL    HW246770   6.725  12.519   3.510  0.6495 -0.3760  1.0525
45486SOL     OW46771   1.675   9.070   9.100  0.2066 -0.1110 -0.0448
45486SOL    HW146772   1.734   9.036   9.033 -0.7830 -0.3127 -0.8347
45486SOL    HW246773   1.720   9.053   9.183  0.6880 -1.4297 -0.5526
45487SOL     OW46774   9.532   6.369   0.640  0.2162  0.0466  0.5581
45487SOL    HW146775   9.568   6.362   0.552  0.1662  2.7720  0.2159
45487SOL    HW246776   9.438   6.383   0.626 -0.5885 -3.5055  1.3033
45488SOL     OW46777   6.980   6.159   7.531  0.1455  0.0018 -0.1611
45488SOL    HW146778   7.015   6.245   7.510  0.3055 -0.1214 -0.4043
45488SOL    HW246779   7.026   6.132   7.611  0.1671  0.0976 -0.1420
45489SOL     OW46780   4.849   9.327   6.262 -0.0664  0.3717 -0.2269
45489SOL    HW146781   4.870   9.321   6.169  3.4034  1.8327  0.2915
45489SOL    HW246782   4.906   9.262   6.304 -0.5828  0.6680  0.9689
45490SOL     OW46783   4.630  12.061   9.108  0.5521 -0.7109 -0.0793
45490SOL    HW146784   4.590  12.146   9.129  2.6016  0.4111 -0.5190
45490SOL    HW246785   4.587  11.999   9.167 -0.0837  0.8446  1.1460
45491SOL     OW46786   6.511  10.733  10.847  0.0247 -0.2585 -0.1818
45491SOL    HW146787   6.508  10.643  10.815  0.7021 -0.0164 -0.9587
45491SOL    HW246788   6.460  10.783  10.783  1.1737  0.1889 -0.7896
45492SOL     OW46789   5.120  10.185  10.693 -0.1191 -0.2359 -0.5520
45492SOL    HW146790   5.166  10.261  10.727 -0.2201 -0.0657 -0.7932
45492SOL    HW246791   5.103  10.131  10.771  0.2807 -0.1938 -0.4323
45493SOL     OW46792   6.671   9.173  12.889 -0.6222 -0.1834 -0.3099
45493SOL    HW146793   6.753   9.142  12.928 -0.5762  0.0421 -0.2280
45493SOL    HW246794   6.688   9.264  12.867 -1.1205  0.1035  0.4513
45494SOL     OW46795   0.053   8.967   0.818 -0.2664 -0.0629  0.0348
45494SOL    HW146796   0.011   8.941   0.900  1.8324 -0.6610  0.9897
45494SOL    HW246797  -0.006   9.032   0.780 -2.8878 -2.0324  0.4020
45495SOL     OW46798   5.679   3.499   1.892 -0.7568 -0.9781 -0.0466
45495SOL    HW146799   5.686   3.476   1.985 -0.4741 -0.0978  0.1612
45495SOL    HW246800   5.682   3.415   1.847 -1.3867 -1.4567  0.7629
45496SOL     OW46801   5.378   0.169   6.310  0.1877  0.1856  0.4013
45496SOL    HW146802   5.320   0.199   6.379  0.6859  0.0315  0.8966
45496SOL    HW246803   5.329   0.183   6.229 -0.1858  0.8771  0.7438
45497SOL     OW46804  12.768  10.809   6.292  0.1754  0.1971  0.4510
45497SOL    HW146805  12.743  10.732   6.343  0.2126 -0.5325 -0.6130
45497SOL    HW246806  12.861  10.822   6.313  0.7829 -1.3967 -1.0223
45498SOL     OW46807   2.709   1.251   9.814 -0.0273  0.2693  0.1458
45498SOL    HW146808   2.629   1.260   9.866 -0.4443 -1.2798 -0.1768
45498SOL    HW246809   2.679   1.210   9.732  0.8117  1.4755 -0.7936
45499SOL     OW46810  11.338  12.012   8.666  0.3503 -0.9220 -0.3549
45499SOL    HW146811  11.349  12.041   8.757  0.4711 -1.1124 -0.3106
45499SOL    HW246812  11.400  11.940   8.656 -1.3593 -2.5575  0.1377
45500SOL     OW46813   3.383   0.827   0.279  0.1023  0.3467 -0.2324
45500SOL    HW146814   3.380   0.846   0.373  0.5627 -0.1343 -0.1150
45500SOL    HW246815   3.319   0.887   0.241 -1.0129 -0.3192  0.5199
45501SOL     OW46816   4.389  11.847   8.812  0.5878  0.1205 -0.3412
45501SOL    HW146817   4.369  11.784   8.743 -0.0954  0.8188 -0.8016
45501SOL    HW246818   4.473  11.885   8.787  1.0866 -0.7025  0.0275
45502SOL     OW46819   7.576   1.265   5.794 -0.4114  0.2683 -0.2069
45502SOL    HW146820   7.631   1.197   5.757 -1.4503 -0.4314 -0.5093
45502SOL    HW246821   7.582   1.253   5.889  1.1265  1.1635 -0.1523
45503SOL     OW46822   4.171   5.211   8.122  0.0670 -0.0238  0.6522
45503SOL    HW146823   4.249   5.219   8.067 -0.2057 -0.1751  0.2419
45503SOL    HW246824   4.141   5.301   8.135 -0.1702 -0.0258  0.1197
45504SOL     OW46825   2.304   4.425   8.087 -0.2527 -0.3582 -0.0454
45504SOL    HW146826   2.393   4.394   8.073  0.8893  2.3753  0.6810
45504SOL    HW246827   2.296   4.432   8.182  0.0471  2.6548 -0.1533
45505SOL     OW46828  11.095  10.114   3.829 -0.7341 -0.4743  0.7322
45505SOL    HW146829  11.117  10.201   3.863 -0.3034 -0.0965 -0.4698
45505SOL    HW246830  11.003  10.120   3.806 -0.4331  0.0566 -0.4273
45506SOL     OW46831   8.713   1.978   4.231  0.1706  0.0206  0.4106
45506SOL    HW146832   8.718   2.071   4.254  2.0946  0.2842 -0.7903
45506SOL    HW246833   8.728   1.976   4.137  0.2271 -1.5091  0.4275
45507SOL     OW46834   1.910   0.390   5.030 -0.3119  0.2057  0.0167
45507SOL    HW146835   1.905   0.299   5.002  0.2264  0.1776 -0.0122
45507SOL    HW246836   1.923   0.385   5.125 -1.1631  0.2768  0.1432
45508SOL     OW46837   4.043  10.285   3.469  0.5451 -0.2555 -0.3596
45508SOL    HW146838   4.039  10.380   3.479  1.4809  0.3584 -4.0472
45508SOL    HW246839   3.956  10.260   3.440 -0.4042 -1.0093  2.8331
45509SOL     OW46840  12.182   4.375  10.381  0.0664  0.2193  0.2539
45509SOL    HW146841  12.252   4.435  10.406 -1.1934  1.0678  1.9414
45509SOL    HW246842  12.166   4.323  10.459 -0.6786 -0.4943 -0.3584
45510SOL     OW46843  10.757   7.626   3.008  0.5838 -0.0189  0.1468
45510SOL    HW146844  10.798   7.540   3.014  1.0416  0.0357 -1.5901
45510SOL    HW246845  10.669   7.609   2.975  0.0462  0.0647  1.4829
45511SOL     OW46846   4.628   0.490   4.257 -0.5306 -0.0360 -0.2696
45511SOL    HW146847   4.625   0.396   4.273 -0.9410 -0.3818 -2.1845
45511SOL    HW246848   4.600   0.501   4.166  0.9767  1.7923 -0.5930
45512SOL     OW46849   4.870   8.590   2.759 -0.1417  0.3261  0.0388
45512SOL    HW146850   4.945   8.561   2.707 -0.0288  0.8133 -0.0749
45512SOL    HW246851   4.833   8.664   2.710 -1.8686 -1.0926 -0.9126
45513SOL     OW46852   4.726   7.945   0.837  0.4482  0.2165  0.0330
45513SOL    HW146853   4.658   7.955   0.904  0.5026 -0.3931  0.1837
45513SOL    HW246854   4.796   8.005   0.865  0.3616  0.1593  0.3835
45514SOL     OW46855  12.202   1.001  11.173 -0.1201 -0.7076 -0.8061
45514SOL    HW146856  12.274   0.962  11.122  0.9526 -0.1793  0.2477
45514SOL    HW246857  12.123   0.965  11.134  0.7689 -3.0099 -0.6778
45515SOL     OW46858   9.952   8.064   3.008 -0.3758 -0.4699  0.3731
45515SOL    HW146859   9.975   8.008   3.082 -3.4955 -1.6755  0.5899
45515SOL    HW246860   9.877   8.115   3.039  0.0549  1.1284 -1.0630
45516SOL     OW46861   7.446  11.236   4.482  0.5857  0.0516  0.8672
45516SOL    HW146862   7.537  11.210   4.491  0.2888 -0.8502  1.3570
45516SOL    HW246863   7.450  11.327   4.452  1.6584  0.7409  2.8859
45517SOL     OW46864   0.037   5.936  11.294 -0.3996 -0.5660 -0.3348
45517SOL    HW146865  -0.027   6.002  11.321 -0.5398 -1.1794  0.9133
45517SOL    HW246866  -0.009   5.852  11.305  0.6507 -1.0289  0.7225
45518SOL     OW46867   5.294   1.050   3.539  0.1107 -0.5403  0.1025
45518SOL    HW146868   5.388   1.070   3.540 -0.1289  0.6152  0.2106
45518SOL    HW246869   5.259   1.095   3.616 -0.3134 -2.2037  0.9477
45519SOL     OW46870   0.551   3.994   7.776 -0.4205 -1.0092 -0.0368
45519SOL    HW146871   0.493   4.067   7.756 -0.9772 -0.9819  1.5438
45519SOL    HW246872   0.628   4.035   7.816 -0.4458 -1.2219  0.2352
45520SOL     OW46873  11.700   7.766  11.890 -0.2523  0.0511  0.6769
45520SOL    HW146874  11.638   7.708  11.846 -0.9422  1.4829 -0.3101
45520SOL    HW246875  11.645   7.824  11.942  0.0272  2.4555 -1.5211
45521SOL     OW46876  12.467  11.602   0.216  0.5025  0.4293 -0.1641
45521SOL    HW146877  12.510  11.590   0.301  1.0162  2.8199 -0.0079
45521SOL    HW246878  12.375  11.615   0.237  0.7087  1.5363  0.0968
45522SOL     OW46879   2.351   5.807   2.885  0.0114  0.4739  0.4352
45522SOL    HW146880   2.306   5.871   2.939 -2.3280 -0.3424 -0.4443
45522SOL    HW246881   2.308   5.724   2.905 -0.0667 -0.0527 -1.7148
45523SOL     OW46882   6.659   9.334   3.972 -0.3999 -0.3409 -0.3256
45523SOL    HW146883   6.685   9.252   4.014 -1.7169 -0.7982 -0.3639
45523SOL    HW246884   6.568   9.321   3.946 -0.4498  0.9158 -0.8935
45524SOL     OW46885   7.579   9.396   8.518 -1.0094 -0.3059 -0.2581
45524SOL    HW146886   7.536   9.352   8.445  0.0263 -2.8570  0.5656
45524SOL    HW246887   7.529   9.369   8.595 -0.5038  0.2023  0.2608
45525SOL     OW46888   1.819   0.742   8.584  0.5371 -0.2925  0.3282
45525SOL    HW146889   1.725   0.747   8.601  0.2445 -0.3130 -1.1530
45525SOL    HW246890   1.848   0.666   8.634 -0.0897  0.1626  1.3998
45526SOL     OW46891   4.967  11.142   5.930 -0.5452 -0.5046  0.6092
45526SOL    HW146892   5.050  11.138   5.979  0.5610 -2.0624 -1.2431
45526SOL    HW246893   4.918  11.066   5.961 -1.0118  0.0397  1.2215
45527SOL     OW46894  10.512  12.252   7.359 -0.2213  0.1199  0.1409
45527SOL    HW146895  10.449  12.318   7.390 -0.7622  0.8986 -2.3506
45527SOL    HW246896  10.548  12.290   7.279  0.8045 -1.8727 -0.3938
45528SOL     OW46897   5.816   3.135   1.040  0.4955  0.5417 -0.4105
45528SOL    HW146898   5.794   3.202   1.105 -0.7443 -0.4708  0.2298
45528SOL    HW246899   5.737   3.082   1.032  1.4265 -0.8029 -0.9748
45529SOL     OW46900  11.978  11.809   0.409  0.1492 -0.0463 -0.2447
45529SOL    HW146901  11.942  11.741   0.465  0.9305 -0.4467 -0.2216
45529SOL    HW246902  11.996  11.882   0.468  1.3963 -0.6297  0.1188
45530SOL     OW46903   1.387   6.069  12.381 -0.1899  0.2688 -0.0557
45530SOL    HW146904   1.343   6.148  12.350  0.8694  0.4525 -1.1784
45530SOL    HW246905   1.464   6.061  12.324 -0.6388 -1.9669 -0.4524
45531SOL     OW46906   3.465  10.943   9.875  0.0059  0.1289  0.6450
45531SOL    HW146907   3.538  10.892   9.911  1.4783  1.0131 -0.9313
45531SOL    HW246908   3.455  10.911   9.785 -0.5370  1.0633  0.3541
45532SOL     OW46909   9.981   0.230   1.774  0.2605 -0.1359  0.4552
45532SOL    HW146910  10.063   0.272   1.800  0.5514 -0.7995  0.6273
45532SOL    HW246911   9.916   0.300   1.779  1.0674  0.7933 -1.1554
45533SOL     OW46912   0.017   3.080   4.811 -0.3064  0.2682  0.1521
45533SOL    HW146913  -0.031   3.032   4.879 -1.0303  1.0350  0.2091
45533SOL    HW246914   0.073   3.014   4.770  0.4375 -0.1373  1.7341
45534SOL     OW46915  11.381  10.180   6.461 -0.0158 -0.8595 -0.5061
45534SOL    HW146916  11.421  10.259   6.426  0.9188 -2.2260 -2.7077
45534SOL    HW246917  11.454  10.132   6.500 -0.4304 -1.0234  0.0773
45535SOL     OW46918   2.441   1.240   4.587 -0.0204  0.3294 -0.5833
45535SOL    HW146919   2.476   1.308   4.645 -2.7821  0.6822  0.8115
45535SOL    HW246920   2.386   1.287   4.524 -1.2234 -0.5005 -0.1820
45536SOL     OW46921   0.945  11.047   6.155 -0.4717  0.3598 -0.2320
45536SOL    HW146922   0.979  11.136   6.148  0.0198  0.1640 -0.4448
45536SOL    HW246923   0.853  11.057   6.176 -0.3452  0.9148  0.0621
45537SOL     OW46924   2.626   8.314   5.735 -0.6015 -0.1139 -0.1138
45537SOL    HW146925   2.588   8.381   5.678 -1.9774 -1.2068 -0.5399
45537SOL    HW246926   2.675   8.257   5.675  0.7468  0.6002  0.2752
45538SOL     OW46927  12.245   0.120   8.505 -0.2999 -0.2104  0.0071
45538SOL    HW146928  12.279   0.032   8.519  1.8506  0.8396  1.8120
45538SOL    HW246929  12.253   0.134   8.410  2.6608 -0.7306  0.1071
45539SOL     OW46930   5.896  10.696   4.259 -0.6670 -0.0137 -0.1294
45539SOL    HW146931   5.893  10.774   4.203 -2.7299 -0.5368 -0.8371
45539SOL    HW246932   5.815  10.699   4.309 -0.3772 -1.2786  0.4543
45540SOL     OW46933   3.959  10.573   0.982  0.1846 -0.1811  1.0126
45540SOL    HW146934   4.015  10.550   1.057  1.0144 -2.7526 -0.2623
45540SOL    HW246935   3.878  10.524   0.997  0.9927 -2.1360 -0.4838
45541SOL     OW46936   3.760  12.678   7.399  0.0651 -0.1366 -0.3897
45541SOL    HW146937   3.727  12.620   7.468  0.3594 -1.5602 -1.4065
45541SOL    HW246938   3.855  12.683   7.416  0.4172 -1.8631 -1.6315
45542SOL     OW46939   8.573   7.968   0.237 -0.0035 -0.1136  0.1799
45542SOL    HW146940   8.644   8.032   0.237  0.9676 -1.1221 -0.5087
45542SOL    HW246941   8.500   8.013   0.195 -0.5197  1.6545  2.7961
45543SOL     OW46942   9.803   2.655   8.017 -0.1237  0.5643  0.3927
45543SOL    HW146943   9.890   2.654   7.978 -0.5356  3.0120 -0.7408
45543SOL    HW246944   9.745   2.685   7.947 -1.9559 -1.1232  1.0751
45544SOL     OW46945   2.879   1.951   9.239  0.0096 -0.3884  0.1995
45544SOL    HW146946   2.892   1.975   9.330  2.1130  1.5164 -0.5118
45544SOL    HW246947   2.844   2.030   9.198 -0.0627 -0.9322 -0.8096
45545SOL     OW46948   1.618  10.399   6.235  0.3956  0.0911 -0.2651
45545SOL    HW146949   1.606  10.312   6.274 -1.9175 -0.0515 -1.1296
45545SOL    HW246950   1.697  10.391   6.181 -0.5705 -1.9640 -1.4917
45546SOL     OW46951   5.802   0.011   8.389 -0.1171  0.1314 -0.2988
45546SOL    HW146952   5.897   0.015   8.374 -0.2535  2.8965 -1.0225
45546SOL    HW246953   5.768  -0.040   8.316  0.8101 -1.0574  0.0711
45547SOL     OW46954   4.163   5.545  10.188  0.3008  0.2294 -0.2352
45547SOL    HW146955   4.235   5.607  10.173 -1.3308  2.2204 -0.3513
45547SOL    HW246956   4.134   5.520  10.100  0.0550  0.4271 -0.2123
45548SOL     OW46957  12.712   7.080  11.307  0.1808 -0.0395  0.5957
45548SOL    HW146958  12.745   7.080  11.397  0.3885  1.1787  0.5373
45548SOL    HW246959  12.674   6.993  11.295 -0.1687 -0.0931  1.9759
45549SOL     OW46960   0.477   5.215   9.795 -0.0368  0.5707 -0.2727
45549SOL    HW146961   0.561   5.219   9.839 -0.3258 -0.5947  0.4315
45549SOL    HW246962   0.486   5.273   9.719  1.0691  1.1847  0.3171
45550SOL     OW46963   1.031   6.025   1.036  0.2121 -0.3412  0.4234
45550SOL    HW146964   0.947   6.060   1.009  0.1820 -0.9205 -0.2841
45550SOL    HW246965   1.066   5.984   0.957  1.1551 -0.1140  0.7063
45551SOL     OW46966   4.027   8.186   1.652  0.0075 -0.1497  0.7404
45551SOL    HW146967   4.071   8.110   1.613  1.0107  0.8410 -0.1443
45551SOL    HW246968   4.099   8.240   1.686 -0.5848  0.9515  0.3030
45552SOL     OW46969  12.493   2.549   3.591 -0.2621 -0.0245 -0.5145
45552SOL    HW146970  12.520   2.633   3.555 -2.9344  0.9326 -0.5218
45552SOL    HW246971  12.449   2.504   3.518 -1.0829 -0.3122  0.1292
45553SOL     OW46972   3.913   0.289   4.841  0.2083 -0.5532 -0.3550
45553SOL    HW146973   3.873   0.221   4.788  1.5325 -1.0755 -0.7147
45553SOL    HW246974   3.956   0.347   4.777  0.2935 -0.1862  0.0324
45554SOL     OW46975  10.072  12.320   6.948 -0.1318 -0.5818  0.0830
45554SOL    HW146976  10.047  12.411   6.959  0.2338 -0.4652 -0.0148
45554SOL    HW246977  10.134  12.321   6.874  0.5136 -0.7856  0.6096
45555SOL     OW46978   0.483  11.515   4.306 -0.8017  0.3405  0.3225
45555SOL    HW146979   0.504  11.527   4.398  1.1873  0.1239 -0.0755
45555SOL    HW246980   0.417  11.582   4.288  0.5468  2.0094  1.3256
45556SOL     OW46981   5.098   8.125   0.301 -0.7517 -0.3892 -0.0654
45556SOL    HW146982   5.107   8.178   0.381  1.1153  0.1714 -0.5850
45556SOL    HW246983   5.022   8.161   0.257 -0.0662  1.3170  0.0463
45557SOL     OW46984   2.581  12.277   2.798  0.2924 -0.4803 -0.4520
45557SOL    HW146985   2.513  12.246   2.858 -2.1608  1.5346 -1.9874
45557SOL    HW246986   2.614  12.358   2.838  1.0227 -0.8559 -0.2710
45558SOL     OW46987  12.654   8.620   1.444 -0.4061 -0.8023 -0.3348
45558SOL    HW146988  12.569   8.664   1.447 -0.7332 -1.4011 -0.6207
45558SOL    HW246989  12.692   8.635   1.531 -1.3821 -1.6265  0.2580
45559SOL     OW46990   1.626   9.127  11.934  0.2850  0.0434  0.2629
45559SOL    HW146991   1.718   9.135  11.962  1.2881 -2.4974 -1.8530
45559SOL    HW246992   1.586   9.072  12.001  0.9766 -0.7757  0.0314
45560SOL     OW46993   2.578   6.728   0.968  0.4663 -0.0454  0.2199
45560SOL    HW146994   2.567   6.814   0.928  2.0819 -0.1867 -0.6038
45560SOL    HW246995   2.667   6.702   0.946  0.8919 -0.8488  2.5912
45561SOL     OW46996   9.491  12.740   9.111  0.2900 -0.0499  0.3106
45561SOL    HW146997   9.426  12.719   9.178 -0.2925 -2.1836 -0.8505
45561SOL    HW246998   9.525  12.656   9.082 -0.1014  0.6863 -2.6625
45562SOL     OW46999   3.113   3.347   5.567 -0.1314 -0.1079 -0.5073
45562SOL    HW147000   3.092   3.399   5.645  2.3794 -0.4042  0.4556
45562SOL    HW247001   3.070   3.394   5.495 -1.8394  0.6265  0.9051
45563SOL     OW47002   3.200  11.055  12.545  0.2044 -0.2199  0.4249
45563SOL    HW147003   3.156  11.067  12.629  0.1384 -1.3542  0.5740
45563SOL    HW247004   3.171  10.968  12.515  0.8625 -0.1770 -0.3738
45564SOL     OW47005  12.641   2.180   1.496  0.2972  0.1167  0.1532
45564SOL    HW147006  12.619   2.168   1.404  1.1397  0.2667 -0.0792
45564SOL    HW247007  12.567   2.142   1.544 -0.0052 -0.2342 -0.5769
45565SOL     OW47008   8.592   9.672  11.223  0.5554  0.0080  0.3912
45565SOL    HW147009   8.503   9.646  11.248  0.5630 -1.4763 -1.0191
45565SOL    HW247010   8.646   9.648  11.298 -0.0241 -0.4454  0.6737
45566SOL     OW47011   2.511   9.879  10.846  0.7752 -0.2414  0.1258
45566SOL    HW147012   2.567   9.802  10.833  2.1124  0.5362  0.9839
45566SOL    HW247013   2.478   9.871  10.936 -0.4719 -0.6541 -0.3467
45567SOL     OW47014   1.824   4.629  12.170  0.0745  0.4936  0.1943
45567SOL    HW147015   1.859   4.628  12.259  0.9940  0.7113 -0.1442
45567SOL    HW247016   1.824   4.537  12.143 -0.2733  0.4202  0.4454
45568SOL     OW47017  12.706   1.015  10.627  0.3647  0.2242 -0.1110
45568SOL    HW147018  12.729   0.973  10.544 -1.1730  1.3206 -1.1462
45568SOL    HW247019  12.639   1.079  10.604  1.3382  2.0045  1.6908
45569SOL     OW47020   0.879   7.467   0.623  0.2159  0.0957 -0.2281
45569SOL    HW147021   0.891   7.561   0.617  2.3501 -0.0828  0.5238
45569SOL    HW247022   0.956   7.435   0.669 -0.9897 -1.9046  0.5655
45570SOL     OW47023   8.091   9.450   1.075  0.9357  0.1882  0.0707
45570SOL    HW147024   8.179   9.484   1.093  0.4917  1.5844 -0.2629
45570SOL    HW247025   8.085   9.448   0.980  0.0330  1.7472  0.0648
45571SOL     OW47026   4.652   6.956   3.183 -0.2850  0.7180 -0.6378
45571SOL    HW147027   4.690   7.044   3.192 -2.1880  1.4848  0.4832
45571SOL    HW247028   4.561   6.972   3.160 -0.8633 -0.9387  0.3519
45572SOL     OW47029   2.643   1.882   0.127 -0.2518  0.0970 -0.3217
45572SOL    HW147030   2.603   1.851   0.208 -1.1852 -1.0112 -1.1675
45572SOL    HW247031   2.569   1.910   0.073  0.1955 -0.7724 -1.4225
45573SOL     OW47032   3.909   8.557   7.794  0.0519 -0.2897  0.0020
45573SOL    HW147033   3.874   8.469   7.780 -0.9837  0.3011 -1.2262
45573SOL    HW247034   3.844   8.600   7.850 -0.6468  0.4384 -1.3386
45574SOL     OW47035   1.442  12.817   2.199 -0.8538  0.3012 -0.1061
45574SOL    HW147036   1.409  12.752   2.261 -1.4807 -0.3025 -1.0499
45574SOL    HW247037   1.366  12.840   2.146  0.0088 -0.4289 -1.7392
45575SOL     OW47038   0.150  10.675   1.997  0.3627 -0.0691  0.4204
45575SOL    HW147039   0.175  10.589   1.961 -1.3561 -1.0119  1.3481
45575SOL    HW247040   0.233  10.722   2.006  1.2333 -1.1874 -1.1769
45576SOL     OW47041   7.006   9.155   7.150  0.2513 -0.2156  0.3872
45576SOL    HW147042   7.061   9.093   7.199 -1.3575 -1.9130  0.1320
45576SOL    HW247043   6.917   9.123   7.162 -0.5480  1.4898 -0.6204
45577SOL     OW47044  10.317   2.462   7.164 -0.3744 -0.2418 -0.2168
45577SOL    HW147045  10.363   2.487   7.244 -0.1824 -0.3662 -0.2879
45577SOL    HW247046  10.329   2.368   7.157 -0.5437 -0.2583 -0.2964
45578SOL     OW47047  11.411  10.973  11.473  0.1256 -0.6256 -0.3286
45578SOL    HW147048  11.438  10.892  11.516 -0.9481 -0.8230  0.0192
45578SOL    HW247049  11.315  10.969  11.473  0.0551  0.5828 -0.4233
45579SOL     OW47050   1.754  12.878   1.753  0.2338 -1.1681  0.6567
45579SOL    HW147051   1.831  12.874   1.809  0.5856 -2.4797  0.1127
45579SOL    HW247052   1.775  12.821   1.679  0.0806  1.0305 -1.2123
45580SOL     OW47053  12.648   8.514   0.835 -0.3950 -0.2783  1.1166
45580SOL    HW147054  12.703   8.570   0.890 -0.3734  0.2630  0.5501
45580SOL    HW247055  12.585   8.475   0.897 -0.4599  0.4297  1.5098
45581SOL     OW47056   9.825   3.706   3.542 -0.1356 -0.0851 -0.5399
45581SOL    HW147057   9.830   3.752   3.626 -1.7697  0.2302 -0.5857
45581SOL    HW247058   9.846   3.615   3.563  1.0282  0.2670 -0.0826
45582SOL     OW47059   8.925   6.701   8.346 -0.0482  0.1505 -0.8135
45582SOL    HW147060   8.961   6.643   8.412 -0.4179 -0.3791 -1.0769
45582SOL    HW247061   8.886   6.773   8.396  1.2604  0.6848 -0.5196
45583SOL     OW47062   6.795   9.766   3.092  0.2501  0.2142  0.0204
45583SOL    HW147063   6.706   9.792   3.116  0.8616  1.7086  0.7780
45583SOL    HW247064   6.782   9.695   3.029 -1.4557 -1.0332  1.6427
45584SOL     OW47065   6.241   0.706   3.752 -0.3529  0.2393  0.0680
45584SOL    HW147066   6.319   0.651   3.755 -0.4367  0.0030 -1.2655
45584SOL    HW247067   6.182   0.669   3.818 -0.9743 -2.2060 -1.7283
45585SOL     OW47068   7.073   3.086   1.924  0.0342  0.4374  0.1073
45585SOL    HW147069   7.124   3.011   1.892 -2.3204 -0.7040 -1.1736
45585SOL    HW247070   7.136   3.136   1.976  2.0422 -1.7024 -0.0830
45586SOL     OW47071   3.323   0.066   7.509  1.1617 -0.2766 -0.0787
45586SOL    HW147072   3.271   0.079   7.588 -0.8721  0.1464 -1.4228
45586SOL    HW247073   3.372  -0.015   7.526 -2.0830 -2.3867  0.2341
45587SOL     OW47074   5.969   5.780   3.544 -0.5592  0.8869 -0.5822
45587SOL    HW147075   6.012   5.859   3.576  0.0802  0.9047 -1.4449
45587SOL    HW247076   6.028   5.746   3.477 -1.0515 -0.0685 -0.5499
45588SOL     OW47077   0.749   9.850   7.518  0.0757 -0.4169  0.1125
45588SOL    HW147078   0.709   9.765   7.537 -1.1375  0.2237  0.5466
45588SOL    HW247079   0.724   9.868   7.427 -0.9112  0.1182  0.4768
45589SOL     OW47080   8.353  11.760   8.096 -0.3789  0.3879 -0.2097
45589SOL    HW147081   8.344  11.665   8.086 -0.4556  0.4678 -0.9275
45589SOL    HW247082   8.289  11.783   8.163  0.5885 -0.2495  0.9793
45590SOL     OW47083   9.482   8.057   0.750  0.6615 -0.7256 -0.1866
45590SOL    HW147084   9.426   8.081   0.824 -0.1961 -0.0443 -1.0208
45590SOL    HW247085   9.481   8.134   0.693  0.8779 -1.4203 -1.1630
45591SOL     OW47086   4.509   9.539   5.386 -0.0067 -0.1328  0.1422
45591SOL    HW147087   4.421   9.564   5.358 -0.0233  0.2255  0.5181
45591SOL    HW247088   4.510   9.443   5.377 -1.0118 -0.3370  1.7795
45592SOL     OW47089   1.372   7.714  12.617  0.6045 -0.0485 -0.1406
45592SOL    HW147090   1.447   7.773  12.609  0.8733 -0.2600  0.7589
45592SOL    HW247091   1.336   7.731  12.703  2.5717 -3.2952  1.5163
45593SOL     OW47092   4.516   9.358   1.438 -0.3140 -0.0695 -0.2037
45593SOL    HW147093   4.522   9.452   1.455  0.6269 -0.0089 -0.7651
45593SOL    HW247094   4.599   9.323   1.469  0.0608 -0.4442 -1.5372
45594SOL     OW47095   1.341   6.868   7.180 -0.1481 -0.0132 -0.3591
45594SOL    HW147096   1.389   6.904   7.106 -1.5557  2.2113 -0.2849
45594SOL    HW247097   1.305   6.945   7.225 -1.6470 -1.4354  1.0219
45595SOL     OW47098   1.057  10.522  11.667  0.7617  0.1168  0.2029
45595SOL    HW147099   1.051  10.487  11.756 -0.3117 -2.6741 -0.8374
45595SOL    HW247100   1.043  10.446  11.610 -0.3242  2.0630 -2.3689
45596SOL     OW47101   3.575  12.502   1.517 -0.0829  0.0123 -0.7329
45596SOL    HW147102   3.627  12.506   1.597 -0.6320  0.2610 -0.3896
45596SOL    HW247103   3.641  12.493   1.447  0.4211  0.2714 -0.2995
45597SOL     OW47104   0.424   9.825   5.777  0.4363 -0.2801 -0.2865
45597SOL    HW147105   0.514   9.795   5.763  0.4193 -0.4511 -0.0406
45597SOL    HW247106   0.422   9.853   5.868 -0.0381 -1.2773  0.0225
45598SOL     OW47107  11.994   6.130   9.911  0.4599  0.3127 -0.1144
45598SOL    HW147108  12.009   6.195   9.843 -1.7311  1.2247  0.1674
45598SOL    HW247109  11.962   6.053   9.864  0.8900  0.2350 -0.2773
45599SOL     OW47110   0.551   5.504  11.455  0.0296  0.4363 -0.0489
45599SOL    HW147111   0.549   5.408  11.453  0.9956  0.4089 -0.1556
45599SOL    HW247112   0.462   5.530  11.432 -0.0919 -0.4344 -0.6176
45600SOL     OW47113   4.289   3.083   4.233  0.4711 -0.5126  0.5247
45600SOL    HW147114   4.255   3.167   4.203  2.6323  0.3330  0.2861
45600SOL    HW247115   4.301   3.032   4.153 -0.9916 -1.1471  0.6827
45601SOL     OW47116  10.356  11.667  11.116  0.3291 -0.4091  0.4744
45601SOL    HW147117  10.278  11.715  11.088 -0.9560 -2.3013  0.6049
45601SOL    HW247118  10.410  11.733  11.160 -0.7615  1.1414 -0.3922
45602SOL     OW47119   6.832  10.015   5.954 -0.0725 -0.0291  0.1429
45602SOL    HW147120   6.853   9.949   5.888  2.0393  0.7697 -0.0477
45602SOL    HW247121   6.832   9.967   6.037  1.0439 -0.3817 -0.0409
45603SOL     OW47122   9.056   2.903   8.466 -0.0002 -0.5658 -0.1978
45603SOL    HW147123   9.099   2.978   8.427 -3.2606  1.0754 -1.0012
45603SOL    HW247124   9.059   2.836   8.398  0.2633 -0.0866 -0.6661
45604SOL     OW47125   1.727  10.219   0.667 -0.3228  0.2068  0.2806
45604SOL    HW147126   1.729  10.162   0.590  0.1670 -0.0188  0.4502
45604SOL    HW247127   1.691  10.163   0.736  2.1838 -0.6659  1.0095
45605SOL     OW47128  10.332   9.621  11.785 -0.1561 -0.8217  0.6236
45605SOL    HW147129  10.360   9.578  11.704  0.3283  2.7146 -1.3228
45605SOL    HW247130  10.404   9.680  11.807 -1.5141  0.4449  1.9002
45606SOL     OW47131   2.894   4.594   6.973 -0.1279 -0.3456  0.4345
45606SOL    HW147132   2.818   4.608   6.916  1.2937 -2.9481 -2.3948
45606SOL    HW247133   2.969   4.620   6.919  1.2747 -2.4429  1.2695
45607SOL     OW47134   3.729   2.136   9.147  0.2219  0.5531  0.3201
45607SOL    HW147135   3.704   2.048   9.175  0.7062  0.6931  1.2339
45607SOL    HW247136   3.647   2.179   9.125 -0.2956  0.6420  2.2105
45608SOL     OW47137  10.826   3.068  11.947 -0.6512  0.2989  0.5584
45608SOL    HW147138  10.768   3.021  12.006 -0.5490 -2.7159 -1.5632
45608SOL    HW247139  10.768   3.125  11.897 -1.8648 -2.2347 -1.1244
45609SOL     OW47140   0.303   4.212   0.578  0.2532 -0.0463 -0.0817
45609SOL    HW147141   0.239   4.144   0.556 -1.0741  1.2594 -0.4124
45609SOL    HW247142   0.285   4.283   0.516 -0.6921  1.9878  2.3696
45610SOL     OW47143   3.420   3.277   2.162  0.0804 -0.3268  0.3610
45610SOL    HW147144   3.493   3.328   2.198  1.2529 -0.7616 -1.2693
45610SOL    HW247145   3.384   3.231   2.238  1.1666  0.2908  1.2989
45611SOL     OW47146   1.464   1.695   9.926  0.4523  0.1285 -0.0269
45611SOL    HW147147   1.389   1.639   9.949  0.1670 -0.2139 -1.6724
45611SOL    HW247148   1.511   1.707  10.009 -0.2488 -1.3963  0.6375
45612SOL     OW47149  10.496   9.115  12.379 -0.1325  0.5294 -0.2666
45612SOL    HW147150  10.411   9.156  12.360 -0.2351 -0.1759 -1.4595
45612SOL    HW247151  10.511   9.056  12.305 -0.3998 -2.2951  1.7921
45613SOL     OW47152   4.975   4.911   5.435  0.2224 -0.6025 -0.0909
45613SOL    HW147153   5.008   4.862   5.510 -0.6146 -2.7243 -1.0500
45613SOL    HW247154   5.052   4.952   5.397  0.9690 -1.2854  0.6516
45614SOL     OW47155  11.228   9.204   2.344 -0.0382  0.0085 -0.0713
45614SOL    HW147156  11.323   9.198   2.347  0.0117  0.8825  0.4784
45614SOL    HW247157  11.210   9.278   2.285 -0.3245  0.7892  0.9711
45615SOL     OW47158   4.256   9.758   3.336 -0.2047 -0.9821  0.0170
45615SOL    HW147159   4.230   9.836   3.386 -1.1449 -1.6010  0.5206
45615SOL    HW247160   4.267   9.791   3.246  2.2199  0.2858  0.6904
45616SOL     OW47161  11.704   6.929   9.888 -0.3238  0.3955  1.0326
45616SOL    HW147162  11.702   6.840   9.923 -0.9506 -0.7740 -1.6975
45616SOL    HW247163  11.616   6.942   9.852  0.0785  1.7209  0.4781
45617SOL     OW47164  11.606  10.026  12.689  0.3652 -0.0533 -0.7266
45617SOL    HW147165  11.583   9.952  12.633  0.6415  0.2380 -1.2332
45617SOL    HW247166  11.542  10.023  12.761  0.1732 -0.5849 -0.9168
45618SOL     OW47167   3.471   1.758  11.589 -0.2488 -0.8850  0.3024
45618SOL    HW147168   3.564   1.778  11.602 -0.9434  1.7836  1.8239
45618SOL    HW247169   3.467   1.722  11.500  2.0897 -0.0164 -0.2370
45619SOL     OW47170   3.224  12.321   3.546  0.1965  0.6340  0.2338
45619SOL    HW147171   3.157  12.356   3.604 -0.0558 -2.1129  1.7806
45619SOL    HW247172   3.297  12.297   3.604  1.0309  0.2293 -0.9273
45620SOL     OW47173   9.285  11.101   3.959  0.4202  0.1587  0.2032
45620SOL    HW147174   9.206  11.133   4.001  0.6294  0.9588  0.0121
45620SOL    HW247175   9.259  11.085   3.868  0.7037  1.3939 -0.1165
45621SOL     OW47176   7.266   3.100   6.440 -0.1831 -0.5527 -0.1694
45621SOL    HW147177   7.361   3.095   6.436 -0.0088 -0.8879  2.5872
45621SOL    HW247178   7.245   3.096   6.534 -2.8186  1.3662 -0.5489
45622SOL     OW47179   5.859   2.857   5.337 -0.1929  0.3132  0.2782
45622SOL    HW147180   5.824   2.821   5.255 -1.6011 -0.4002  1.1636
45622SOL    HW247181   5.842   2.951   5.330 -0.8341  0.1839 -0.0050
45623SOL     OW47182   7.886  10.584   3.753 -0.4307  0.1275  0.1948
45623SOL    HW147183   7.890  10.642   3.829 -0.7936 -0.1463  0.4262
45623SOL    HW247184   7.971  10.594   3.710 -0.6129  1.1066  0.0295
45624SOL     OW47185   3.264   6.682   2.596  0.4808  0.5611 -0.6131
45624SOL    HW147186   3.186   6.718   2.636  1.3592  2.6690 -0.6579
45624SOL    HW247187   3.241   6.670   2.504 -0.5294 -1.2317 -0.1676
45625SOL     OW47188   8.174   2.425  11.601  0.4044 -0.1144 -0.0329
45625SOL    HW147189   8.205   2.394  11.686  0.5513  0.3332  0.0769
45625SOL    HW247190   8.115   2.498  11.622  0.0716 -0.3031 -0.2924
45626SOL     OW47191   8.118   4.061   5.798 -0.1308  0.0307  0.4069
45626SOL    HW147192   8.142   3.973   5.769  1.1068  0.3525  0.3989
45626SOL    HW247193   8.024   4.067   5.781  0.3257 -0.1449 -2.6816
45627SOL     OW47194   4.814   3.328   5.697  0.1335 -0.0452 -0.0984
45627SOL    HW147195   4.832   3.254   5.755 -1.5111  1.2191  2.2067
45627SOL    HW247196   4.718   3.333   5.694  0.1763  0.3446 -2.4874
45628SOL     OW47197   6.529   9.761   7.989 -0.1003  0.4665  0.0583
45628SOL    HW147198   6.619   9.789   8.004 -0.2272  0.7931  0.2255
45628SOL    HW247199   6.536   9.668   7.968  0.1561  0.1431  1.4422
45629SOL     OW47200   5.347   2.865   1.929  0.7482 -0.1892  0.3297
45629SOL    HW147201   5.326   2.866   1.836  1.5228 -1.5022  0.1264
45629SOL    HW247202   5.266   2.893   1.972  0.1553 -0.2900 -0.6929
45630SOL     OW47203   8.790   5.808   2.973 -0.3660  0.1693  0.6880
45630SOL    HW147204   8.717   5.748   2.960 -2.3516  2.3006  1.4364
45630SOL    HW247205   8.755   5.877   3.029  1.7201  2.1595 -0.3143
45631SOL     OW47206   5.100   7.161  12.591 -0.4847 -0.0020  0.2227
45631SOL    HW147207   5.135   7.082  12.552 -0.8533  0.3046 -0.7626
45631SOL    HW247208   5.018   7.177  12.544 -0.0577  1.3664 -0.1266
45632SOL     OW47209  11.510   8.605   4.351 -0.0306  0.2383 -0.3277
45632SOL    HW147210  11.584   8.666   4.346 -1.1784  1.6023 -1.5212
45632SOL    HW247211  11.532   8.547   4.424  1.5016  1.5594  0.3198
45633SOL     OW47212   1.382  11.355   7.191  0.3341  0.1631 -0.1981
45633SOL    HW147213   1.287  11.352   7.206  0.5525  0.1263  1.2591
45633SOL    HW247214   1.393  11.419   7.120 -0.7250  0.6620  0.0691
45634SOL     OW47215   3.751  12.592  12.377 -0.3406 -0.0368  0.9090
45634SOL    HW147216   3.750  12.638  12.294  0.4016 -1.7043 -0.0803
45634SOL    HW247217   3.678  12.628  12.426 -1.2263  0.4927 -0.7421
45635SOL     OW47218  10.482  12.011   6.679 -0.7425 -0.3937  0.7717
45635SOL    HW147219  10.406  11.979   6.728  0.5562 -0.1004  3.1089
45635SOL    HW247220  10.557  11.967   6.718  0.3518 -0.6932 -1.4936
45636SOL     OW47221  10.979   2.688   0.909 -0.6317  0.5812 -0.4691
45636SOL    HW147222  10.943   2.699   0.997 -2.2734  0.9674 -1.1633
45636SOL    HW247223  10.998   2.777   0.880  0.2694  0.4275 -0.3761
45637SOL     OW47224   8.800   7.669   8.920  0.3403  0.1668  0.2622
45637SOL    HW147225   8.801   7.687   9.014  0.2550  0.4492  0.2094
45637SOL    HW247226   8.713   7.632   8.904  0.6025 -0.5316  0.4130
45638SOL     OW47227   4.219   2.761  12.556  0.2912 -0.3663 -0.3965
45638SOL    HW147228   4.312   2.783  12.563  0.1872 -0.3441  1.6221
45638SOL    HW247229   4.175   2.823  12.614 -0.6935 -1.8327  0.5180
45639SOL     OW47230  11.259   3.615   2.431 -0.2326 -0.5056 -0.4476
45639SOL    HW147231  11.315   3.558   2.484  1.6928  1.4068 -0.2717
45639SOL    HW247232  11.170   3.593   2.459  0.6009 -1.0310  2.1076
45640SOL     OW47233   7.823   9.319   9.164 -0.1625 -0.2589  0.4354
45640SOL    HW147234   7.732   9.349   9.162  0.6589  2.4385 -0.5181
45640SOL    HW247235   7.865   9.371   9.233  0.8059 -1.0066  0.4358
45641SOL     OW47236  11.722   9.584   5.665  0.1248 -0.0273 -0.1697
45641SOL    HW147237  11.705   9.648   5.597  0.8114  1.9299  1.4044
45641SOL    HW247238  11.667   9.612   5.738  1.6248 -0.2772  1.1034
45642SOL     OW47239   0.251  11.670   2.366 -0.0269  0.1463 -0.2249
45642SOL    HW147240   0.270  11.705   2.453  1.2774  1.2069 -0.8937
45642SOL    HW247241   0.156  11.679   2.357  0.0190  1.6777  0.4281
45643SOL     OW47242   2.896   2.924   0.980  0.6816  0.6635  0.1478
45643SOL    HW147243   2.944   2.896   1.058 -1.0026  0.1234  1.0504
45643SOL    HW247244   2.856   3.007   1.005 -0.4945  0.1164  0.1668
45644SOL     OW47245   9.779   8.928   0.179  0.1803  0.3820  0.6395
45644SOL    HW147246   9.804   8.895   0.092  0.4850 -1.2977  1.3291
45644SOL    HW247247   9.700   8.979   0.162 -0.0813 -0.3605 -0.5740
45645SOL     OW47248   1.096   0.062   5.721 -0.1597 -0.1328  0.0286
45645SOL    HW147249   1.020   0.008   5.702 -2.3047  2.1965  1.3841
45645SOL    HW247250   1.096   0.071   5.817  0.2409  2.0190 -0.1220
45646SOL     OW47251  12.404   5.876   5.620  0.2415 -0.2386 -0.1848
45646SOL    HW147252  12.398   5.961   5.578 -0.6654 -0.0769  0.2417
45646SOL    HW247253  12.492   5.845   5.600  0.4385  0.6191 -0.6806
45647SOL     OW47254   7.685   0.796   6.242 -0.2414 -0.1700 -0.2996
45647SOL    HW147255   7.661   0.829   6.155 -2.0833 -0.4240  0.0832
45647SOL    HW247256   7.611   0.818   6.298 -0.0199 -1.9033  0.7514
45648SOL     OW47257   4.567   8.151   0.591  0.3457  0.2352 -0.6484
45648SOL    HW147258   4.506   8.224   0.591 -1.1794 -0.9620 -1.3799
45648SOL    HW247259   4.584   8.133   0.684  0.3304  1.1629 -0.4589
45649SOL     OW47260  11.897  11.559   3.405 -0.5864 -0.6914  0.2582
45649SOL    HW147261  11.944  11.604   3.476 -0.5066  0.8799 -0.7372
45649SOL    HW247262  11.845  11.493   3.450 -1.2924  0.8873  1.9322
45650SOL     OW47263   0.701   5.138  10.433 -0.1078  0.1766 -0.1684
45650SOL    HW147264   0.639   5.200  10.472 -1.2978 -0.6965 -0.6273
45650SOL    HW247265   0.668   5.052  10.456  1.1625 -0.3130 -0.1007
45651SOL     OW47266   6.829   7.780   9.219 -0.1430 -0.6669 -0.1271
45651SOL    HW147267   6.920   7.749   9.221  0.0779 -0.1832 -1.5159
45651SOL    HW247268   6.815   7.806   9.128 -0.6592  2.3246  0.7171
45652SOL     OW47269  11.734  10.572   2.841  0.6478  0.2276  0.0689
45652SOL    HW147270  11.789  10.509   2.795 -1.0924  0.1254 -2.0254
45652SOL    HW247271  11.709  10.528   2.922 -1.0770 -2.1635 -1.6316
45653SOL     OW47272   2.876   7.405   6.756 -0.1252  0.0540 -0.1684
45653SOL    HW147273   2.874   7.432   6.664 -0.5286 -0.5562 -0.3501
45653SOL    HW247274   2.959   7.358   6.765  0.6082  1.3702  0.1665
45654SOL     OW47275   6.574   4.852   2.367  0.3261 -0.2638 -0.2882
45654SOL    HW147276   6.624   4.780   2.406 -0.2724 -0.5552 -0.0386
45654SOL    HW247277   6.640   4.914   2.336  0.8365 -0.2394  0.7855
45655SOL     OW47278   8.143   8.507   8.270  0.0948  1.1698  0.2754
45655SOL    HW147279   8.070   8.504   8.209  0.9674 -1.5716 -0.8071
45655SOL    HW247280   8.190   8.587   8.248  0.4019  0.2783 -2.8188
45656SOL     OW47281  11.731   8.824   5.112  0.5111 -0.2384 -0.3739
45656SOL    HW147282  11.668   8.819   5.040  0.6082  1.1479 -0.5935
45656SOL    HW247283  11.677   8.835   5.190  0.4317 -0.9801 -0.3161
45657SOL     OW47284   3.108   9.112  12.647  0.4948 -0.0842  0.0552
45657SOL    HW147285   3.196   9.097  12.681 -0.2732 -0.1109  2.1316
45657SOL    HW247286   3.077   9.026  12.620 -0.3405 -0.8451  3.0808
45658SOL     OW47287   5.414   8.425   3.712 -0.0456  0.5832 -0.3439
45658SOL    HW147288   5.334   8.406   3.762 -0.2073  1.8712 -0.0912
45658SOL    HW247289   5.413   8.362   3.640 -0.9312  0.1311  0.0497
45659SOL     OW47290  11.209   5.473   6.973  0.1174 -0.5715 -0.2082
45659SOL    HW147291  11.130   5.522   6.998  0.9360 -0.0548  1.5564
45659SOL    HW247292  11.177   5.385   6.951 -1.0780 -0.0131 -0.8096
45660SOL     OW47293   0.736   0.451   7.256 -0.3677 -0.6176 -0.6510
45660SOL    HW147294   0.691   0.489   7.180  0.0932 -0.2069 -0.7298
45660SOL    HW247295   0.706   0.360   7.259  0.2678 -0.9003 -1.8646
45661SOL     OW47296   2.338   8.403  11.431 -0.5919  0.7298  0.5971
45661SOL    HW147297   2.340   8.421  11.337 -1.3867  1.5256  0.7144
45661SOL    HW247298   2.430   8.390  11.455 -0.2416  1.8215 -0.0601
45662SOL     OW47299  11.175  10.240   5.266  0.2773 -0.0218  0.0750
45662SOL    HW147300  11.183  10.190   5.185  1.0924  0.1444  0.0363
45662SOL    HW247301  11.107  10.305   5.248 -1.8261 -1.9584  0.6056
45663SOL     OW47302   1.263   7.081   7.331 -0.6799 -0.4913 -0.1896
45663SOL    HW147303   1.227   7.168   7.315 -0.5360  0.0858  2.2099
45663SOL    HW247304   1.189   7.029   7.361 -0.2195 -0.2412  1.4971
45664SOL     OW47305   2.147   2.703   8.935  0.1417  0.0744 -0.3577
45664SOL    HW147306   2.177   2.765   9.000 -0.5890  0.9211 -0.8001
45664SOL    HW247307   2.193   2.622   8.955  1.1580  0.7715  0.1952
45665SOL     OW47308  10.379   8.862   1.395  0.3354 -0.8747  0.6698
45665SOL    HW147309  10.397   8.784   1.343  0.0728 -0.9951  0.7576
45665SOL    HW247310  10.443   8.926   1.365  1.9297 -1.7579  2.0403
45666SOL     OW47311   3.266  10.470   8.968 -0.3584 -0.3828 -0.3142
45666SOL    HW147312   3.222  10.473   8.883  0.0932 -1.1647 -0.5856
45666SOL    HW247313   3.206  10.420   9.024 -0.5941  0.0181 -0.2025
45667SOL     OW47314   9.580   3.752  12.843 -0.4733 -0.2730 -0.1512
45667SOL    HW147315   9.547   3.781  12.928 -0.0322  1.1684 -0.4604
45667SOL    HW247316   9.624   3.669  12.863 -0.9418 -0.2972  0.9060
45668SOL     OW47317  10.738  12.345   0.764 -0.1338 -0.0519 -0.1081
45668SOL    HW147318  10.708  12.254   0.771  1.1983 -0.4169  1.6141
45668SOL    HW247319  10.812  12.351   0.826 -0.0358  2.1382 -0.3496
45669SOL     OW47320  11.191   1.622   7.729 -0.3076  0.1367  0.3060
45669SOL    HW147321  11.170   1.702   7.681  0.1753  0.8707  1.3065
45669SOL    HW247322  11.274   1.640   7.772  0.5242 -1.3936 -0.5506
45670SOL     OW47323   7.009   8.234   1.201 -0.1316  0.2287 -0.2219
45670SOL    HW147324   6.921   8.270   1.213 -0.0134 -0.0329  1.7472
45670SOL    HW247325   7.055   8.255   1.282  1.1277 -1.0384 -0.5684
45671SOL     OW47326   2.091   8.283   1.976 -0.1253  0.7988 -0.0208
45671SOL    HW147327   1.999   8.283   2.005  0.3039  1.0898  1.4387
45671SOL    HW247328   2.090   8.234   1.894 -1.9091  2.5762 -1.1687
45672SOL     OW47329   0.316   3.240   7.857  0.2304  0.1715  0.0506
45672SOL    HW147330   0.412   3.250   7.862  0.1436  1.1710 -0.0868
45672SOL    HW247331   0.304   3.167   7.796  0.9046  0.9401 -1.0698
45673SOL     OW47332   2.528   1.310  10.023 -0.6414 -0.3265  0.6035
45673SOL    HW147333   2.454   1.250  10.022  0.6466 -2.0085  0.3010
45673SOL    HW247334   2.582   1.279  10.097  0.9940 -0.8161 -0.7193
45674SOL     OW47335   8.047  11.469  11.070 -0.4018  0.2674  0.3549
45674SOL    HW147336   8.095  11.484  10.989  1.0385 -1.3165  0.8389
45674SOL    HW247337   8.112  11.488  11.139 -1.2825  0.5882  1.1140
45675SOL     OW47338   1.615   8.287   9.021  0.4151 -0.2466  0.4120
45675SOL    HW147339   1.658   8.335   8.949 -1.5551  1.5342  0.3276
45675SOL    HW247340   1.542   8.241   8.978 -1.3158  1.5341  1.3114
45676SOL     OW47341   1.235  12.477   9.808 -0.3523  0.7068  0.3898
45676SOL    HW147342   1.210  12.420   9.880 -4.1184  0.5610 -0.8376
45676SOL    HW247343   1.206  12.564   9.835  0.2436  1.0537 -0.0618
45677SOL     OW47344  12.347   5.938   3.666 -0.6642 -0.0281  0.6839
45677SOL    HW147345  12.370   6.009   3.725  1.7978  0.3991 -0.6645
45677SOL    HW247346  12.282   5.976   3.606  1.6612  1.6792 -0.9410
45678SOL     OW47347   4.254  12.844   9.804  0.0453 -0.0980  0.0320
45678SOL    HW147348   4.280  12.771   9.860 -0.6009  0.3481  0.9446
45678SOL    HW247349   4.169  12.817   9.768 -0.7368  0.6522  1.2626
45679SOL     OW47350   7.578   0.222   4.599 -0.0711  0.0568 -0.1544
45679SOL    HW147351   7.561   0.243   4.507 -0.3422 -2.1798 -0.6626
45679SOL    HW247352   7.492   0.212   4.638  0.0489  0.5905  0.2680
45680SOL     OW47353   2.932   9.201   4.596 -0.6487 -0.5869  0.7580
45680SOL    HW147354   2.971   9.275   4.641  1.4986 -0.9577 -0.3876
45680SOL    HW247355   2.969   9.124   4.639  0.1202 -0.9508 -0.5192
45681SOL     OW47356   0.105   3.486   4.568  0.0017  0.3705 -0.2992
45681SOL    HW147357   0.195   3.474   4.540 -0.2397 -1.9513 -0.2957
45681SOL    HW247358   0.112   3.526   4.655  1.2035 -1.9985  0.8036
45682SOL     OW47359   9.368   1.654  11.033  0.3934  0.3335  0.2309
45682SOL    HW147360   9.350   1.733  10.982 -1.2252 -0.9583 -1.3293
45682SOL    HW247361   9.463   1.642  11.026  0.4102  1.0926 -1.1186
45683SOL     OW47362   1.142   5.577   2.194 -0.1801  0.4441  0.8391
45683SOL    HW147363   1.049   5.562   2.177 -0.2902  0.7312  1.1718
45683SOL    HW247364   1.183   5.578   2.108 -0.3362 -0.6347  0.7435
45684SOL     OW47365   1.466   2.677   2.019  0.3664  0.4480 -0.6167
45684SOL    HW147366   1.523   2.647   1.948  0.6314 -0.1516 -0.1646
45684SOL    HW247367   1.520   2.669   2.098  0.2993  1.7478 -0.4197
45685SOL     OW47368   3.990  12.508   1.711 -0.2490 -0.8426 -0.4959
45685SOL    HW147369   4.001  12.418   1.742  0.6946 -0.1070  1.4911
45685SOL    HW247370   4.065  12.523   1.654  1.0095 -0.5667  1.1678
45686SOL     OW47371   2.057   2.435   1.552  0.2399 -0.4136  0.2432
45686SOL    HW147372   2.092   2.375   1.487 -2.7781 -1.3698 -0.6849
45686SOL    HW247373   2.046   2.517   1.506 -0.3123 -0.6115  0.0113
45687SOL     OW47374   1.253   4.562   0.330 -0.0333  0.1670 -0.2339
45687SOL    HW147375   1.257   4.589   0.238  0.4658 -1.4914 -0.7308
45687SOL    HW247376   1.160   4.551   0.347 -0.1593  0.9348 -0.3965
45688SOL     OW47377   3.912   6.062   9.930 -0.3977  0.8659 -0.1268
45688SOL    HW147378   3.969   5.992   9.960 -0.1653  1.0319 -0.1810
45688SOL    HW247379   3.945   6.085   9.843 -0.3377  1.1890 -0.0199
45689SOL     OW47380   2.777   8.447   4.971  0.1354  0.1930 -0.0651
45689SOL    HW147381   2.785   8.373   5.032 -0.1390 -0.7447 -1.1313
45689SOL    HW247382   2.790   8.408   4.885  1.8327  1.6984 -0.5597
45690SOL     OW47383   4.119   7.121  10.338 -0.4069 -0.2569 -0.2735
45690SOL    HW147384   4.109   7.200  10.285 -0.1560 -0.8703 -1.2663
45690SOL    HW247385   4.047   7.064  10.310  0.6206 -1.2085 -1.1244
45691SOL     OW47386   3.633   4.410   3.627  1.0563  0.3850  0.1883
45691SOL    HW147387   3.693   4.335   3.620 -0.9893 -1.4884  1.5678
45691SOL    HW247388   3.559   4.387   3.571  0.1096  1.0688  1.1310
45692SOL     OW47389   4.665  11.708   3.764  0.1475  0.7593  0.2572
45692SOL    HW147390   4.740  11.656   3.736 -0.2630 -0.6465  1.6273
45692SOL    HW247391   4.703  11.790   3.796  0.9298  0.7497 -0.6149
45693SOL     OW47392  10.065   5.062   3.817 -0.0211  0.4440  0.2471
45693SOL    HW147393  10.011   5.009   3.876  2.2613 -1.8691  0.4585
45693SOL    HW247394  10.115   5.120   3.875 -0.5297  0.8676  0.2603
45694SOL     OW47395  12.144  11.914  10.058 -0.2359 -0.3184  0.1144
45694SOL    HW147396  12.202  11.990  10.055 -0.9988  0.2671  0.1087
45694SOL    HW247397  12.201  11.842  10.087  0.5665  0.1729 -0.2014
45695SOL     OW47398  11.738   0.983   6.524  0.3725  0.1995  0.2087
45695SOL    HW147399  11.787   0.916   6.572  1.7672  0.1703 -1.1597
45695SOL    HW247400  11.731   0.949   6.435 -0.3789  1.1306 -0.1061
45696SOL     OW47401   8.777   3.752   4.131 -0.1811  0.4882  0.1341
45696SOL    HW147402   8.730   3.835   4.143  0.4629  0.8027  0.5194
45696SOL    HW247403   8.869   3.776   4.131  0.0709 -0.3604  1.4516
45697SOL     OW47404   8.273   3.317   5.670  1.0516  0.7395 -0.2052
45697SOL    HW147405   8.364   3.331   5.694  1.0588 -1.0873  1.0050
45697SOL    HW247406   8.274   3.236   5.618  0.0381  0.1810  0.5990
45698SOL     OW47407   0.208  11.560   4.855  0.4592 -0.0242 -0.2667
45698SOL    HW147408   0.221  11.555   4.950 -2.4724  0.0649  0.2086
45698SOL    HW247409   0.151  11.635   4.842  1.1325  0.2257 -2.1891
45699SOL     OW47410   7.676   8.277   8.578 -0.4992 -0.1330  0.4259
45699SOL    HW147411   7.647   8.269   8.669 -0.4320 -1.1181  0.3740
45699SOL    HW247412   7.646   8.364   8.550 -1.6112 -0.3152  1.0019
45700SOL     OW47413   9.361   2.430   6.166 -0.4679 -0.0995 -0.1267
45700SOL    HW147414   9.421   2.382   6.223 -1.9846 -1.9331  0.0139
45700SOL    HW247415   9.402   2.425   6.079 -0.7641 -2.0711 -0.1954
45701SOL     OW47416  11.275   5.371  12.882 -0.1358 -0.2874 -0.2328
45701SOL    HW147417  11.334   5.445  12.864  0.0607 -0.6081 -0.9093
45701SOL    HW247418  11.301   5.304  12.820  0.9055 -1.6261  1.5532
45702SOL     OW47419   8.836   4.359   6.737 -0.2367  0.7180  0.6204
45702SOL    HW147420   8.909   4.327   6.684 -1.0849 -0.8344  0.3622
45702SOL    HW247421   8.758   4.335   6.688 -0.9685  1.8684  1.1717
45703SOL     OW47422  11.117  11.809   0.387  0.1255  0.0023  0.4877
45703SOL    HW147423  11.141  11.864   0.312 -0.8308  2.3739  1.8011
45703SOL    HW247424  11.116  11.720   0.353  0.9486  0.8731 -1.9900
45704SOL     OW47425   0.398   7.935   1.647 -0.1132 -0.2551 -0.4790
45704SOL    HW147426   0.381   7.854   1.695  0.1716  0.5142  0.9998
45704SOL    HW247427   0.384   7.912   1.555 -2.3820 -1.3869  0.0630
45705SOL     OW47428   3.318   6.840   1.413 -0.2570  0.3686 -0.4518
45705SOL    HW147429   3.274   6.803   1.490 -2.4257 -0.2131 -1.8717
45705SOL    HW247430   3.365   6.917   1.447  0.8977 -1.2049  1.8337
45706SOL     OW47431  12.739   6.332   3.778 -0.0616  0.3572  0.0870
45706SOL    HW147432  12.774   6.393   3.713 -0.1043  0.3862  0.0912
45706SOL    HW247433  12.745   6.246   3.736 -0.3204  0.4058 -0.0530
45707SOL     OW47434   3.912   3.515   2.800 -0.4356 -0.0906 -0.0805
45707SOL    HW147435   3.957   3.441   2.761  0.7349  0.5491  0.0240
45707SOL    HW247436   3.854   3.476   2.865  0.1638 -0.9159 -0.0262
45708SOL     OW47437   8.984   9.067   1.890  0.3336  0.1766 -0.1918
45708SOL    HW147438   8.918   9.099   1.828 -0.9734 -0.8422  0.6213
45708SOL    HW247439   9.062   9.054   1.836 -0.2369  0.9924 -1.2699
45709SOL     OW47440   7.367   9.158   9.839 -0.5997  0.3533 -0.1827
45709SOL    HW147441   7.436   9.143   9.775 -1.8077 -1.4061 -1.1849
45709SOL    HW247442   7.319   9.234   9.805 -1.5156 -0.8481 -1.6926
45710SOL     OW47443  10.793   7.036   2.731  0.1899  0.0037 -0.1014
45710SOL    HW147444  10.755   7.040   2.819 -0.3946 -0.4575 -0.3248
45710SOL    HW247445  10.718   7.021   2.673  0.4110  1.5125 -0.8211
45711SOL     OW47446  10.133  11.426   7.310  0.9020  0.6484  0.5208
45711SOL    HW147447  10.184  11.349   7.336  0.0224  0.1771  0.8845
45711SOL    HW247448  10.097  11.460   7.392  0.7814  1.0884  0.2883
45712SOL     OW47449   0.969   1.729   7.209 -0.3586  0.4591 -0.7590
45712SOL    HW147450   0.968   1.653   7.151 -1.7807  0.2445 -0.4859
45712SOL    HW247451   0.893   1.781   7.183  0.1589  1.4074 -0.4385
45713SOL     OW47452   9.057   4.300   4.121 -0.1801 -0.3716  0.2031
45713SOL    HW147453   8.976   4.256   4.148 -1.0836  0.6827 -0.6439
45713SOL    HW247454   9.072   4.268   4.032 -0.2674  0.2214 -0.0310
45714SOL     OW47455   3.984  12.611  12.511 -0.5171 -0.3385  0.1266
45714SOL    HW147456   3.993  12.527  12.556  0.9939 -0.2438  0.0458
45714SOL    HW247457   3.901  12.604  12.463 -0.3798 -1.8110  0.0675
45715SOL     OW47458   7.692   0.692   8.378  0.4912 -0.5754  0.1908
45715SOL    HW147459   7.747   0.704   8.456 -1.1754 -1.8497  1.6505
45715SOL    HW247460   7.733   0.620   8.331  0.7541 -0.7047  0.6078
45716SOL     OW47461   6.982  10.793   9.136  0.4773  0.2597 -0.2944
45716SOL    HW147462   6.944  10.878   9.162 -1.6518 -0.8924  0.6466
45716SOL    HW247463   6.996  10.802   9.042 -1.6393  1.0399 -0.6066
45717SOL     OW47464   8.897   3.344   8.288  0.2734  0.6300 -0.2746
45717SOL    HW147465   8.877   3.343   8.382  0.4247  1.7937 -0.2138
45717SOL    HW247466   8.959   3.272   8.276 -0.1926  0.1023  0.4112
45718SOL     OW47467   4.887   8.591  11.127 -0.3072  0.1019  0.3139
45718SOL    HW147468   4.857   8.500  11.131  1.7402 -0.6593 -0.1849
45718SOL    HW247469   4.867   8.627  11.213 -3.3386 -0.0321 -0.2563
45719SOL     OW47470   7.146   9.702   0.308 -0.1631  0.3996 -0.9061
45719SOL    HW147471   7.181   9.770   0.252 -0.6417 -0.4459 -2.2970
45719SOL    HW247472   7.091   9.649   0.250 -1.3953 -0.0081  0.5575
45720SOL     OW47473   6.956  11.930   6.174 -0.5995  0.5440  0.0193
45720SOL    HW147474   6.901  11.948   6.250 -2.4433 -1.3061 -0.7881
45720SOL    HW247475   6.962  11.834   6.170 -0.0584  0.6098 -1.8147
45721SOL     OW47476  12.232   1.707   7.999 -0.2088 -0.0308 -0.1896
45721SOL    HW147477  12.255   1.629   7.947  0.2014  1.0682 -1.7548
45721SOL    HW247478  12.273   1.780   7.951 -2.4295  1.4078 -0.0271
45722SOL     OW47479   3.860  11.484   1.771  0.0070  0.3630  0.0777
45722SOL    HW147480   3.765  11.482   1.771  0.0151 -0.3704  0.4708
45722SOL    HW247481   3.883  11.516   1.859  0.1264  1.3765 -0.3014
45723SOL     OW47482   7.792   7.197   0.779 -0.6101  0.6650  0.2929
45723SOL    HW147483   7.756   7.161   0.698 -0.5481  0.1977  0.4649
45723SOL    HW247484   7.799   7.291   0.764 -1.0272  0.6369 -0.0771
45724SOL     OW47485  11.097  12.594   1.641  0.4364  0.3811 -0.1865
45724SOL    HW147486  11.022  12.600   1.583  1.1095 -0.8086 -1.2201
45724SOL    HW247487  11.061  12.566   1.725 -0.2032 -1.0013 -0.8923
45725SOL     OW47488   5.130   9.546   3.297  0.1250  0.5208 -0.3918
45725SOL    HW147489   5.073   9.530   3.373 -0.3591 -0.4059 -0.9245
45725SOL    HW247490   5.209   9.584   3.334 -0.5611  1.1846  0.4490
45726SOL     OW47491   7.001  11.139  12.880  0.2261 -0.1022  0.2107
45726SOL    HW147492   6.957  11.058  12.904  0.6458 -0.0750  1.0963
45726SOL    HW247493   7.089  11.130  12.917 -0.1348  1.3249  1.5198
45727SOL     OW47494   9.728  12.340   6.438 -0.0298  0.3668 -0.1927
45727SOL    HW147495   9.710  12.430   6.465 -1.4279  0.3525 -0.9839
45727SOL    HW247496   9.688  12.332   6.351  0.3354 -0.9331 -0.2696
45728SOL     OW47497  10.295   8.545   9.999  0.1158  0.3443 -0.2228
45728SOL    HW147498  10.234   8.611   9.966  0.8130  0.5996 -1.0510
45728SOL    HW247499  10.261   8.462   9.965  0.2333  0.4857 -0.6913
45729SOL     OW47500  11.616   9.152   1.766 -0.7982  0.0130 -0.4626
45729SOL    HW147501  11.700   9.138   1.722 -1.2270 -3.0286 -0.4950
45729SOL    HW247502  11.635   9.140   1.859 -1.2684 -1.4366 -0.5267
45730SOL     OW47503   1.908   8.849  11.322  0.0845 -0.3098 -0.5611
45730SOL    HW147504   1.984   8.791  11.328  1.1760  1.1238  0.0235
45730SOL    HW247505   1.851   8.821  11.393  2.3201  1.6436  2.2133
45731SOL     OW47506   3.404   3.862  12.581 -0.0808  0.4100  0.2390
45731SOL    HW147507   3.419   3.956  12.574 -1.5887  0.8630  2.1548
45731SOL    HW247508   3.310   3.854  12.599 -0.1467 -1.5377 -0.7026
45732SOL     OW47509  11.670  11.321   4.398  0.5596  0.0055  0.1256
45732SOL    HW147510  11.613  11.332   4.322  1.4308 -0.1626 -0.5654
45732SOL    HW247511  11.613  11.339   4.474 -0.5903 -0.8926 -0.5008
45733SOL     OW47512  10.032   8.651   2.701 -0.4491  0.3794  0.7134
45733SOL    HW147513  10.110   8.701   2.678 -0.5946  0.2091 -0.1900
45733SOL    HW247514   9.971   8.668   2.630 -0.3349 -1.4336  0.1237
45734SOL     OW47515   2.219   9.977  10.103 -0.2446 -0.2888 -0.5665
45734SOL    HW147516   2.171   9.997  10.183  0.3136  1.2103 -0.5829
45734SOL    HW247517   2.226   9.881  10.102  0.3891 -0.3044  1.5524
45735SOL     OW47518  11.724   0.538  10.739  0.0098  0.4335 -0.0642
45735SOL    HW147519  11.668   0.535  10.662 -0.9167 -2.3006  0.6127
45735SOL    HW247520  11.786   0.466  10.727  0.5938  0.6894  1.2110
45736SOL     OW47521  10.790  11.051  11.904 -0.1364  0.6070  0.3879
45736SOL    HW147522  10.748  11.079  11.985 -1.8729  1.4750 -0.7417
45736SOL    HW247523  10.841  11.126  11.875  1.2784 -0.0319  1.1269
45737SOL     OW47524   9.284   4.426   0.621 -0.4108 -0.5358 -0.2955
45737SOL    HW147525   9.360   4.450   0.569 -0.0222 -2.7864 -0.8702
45737SOL    HW247526   9.285   4.486   0.695 -0.7325  2.4955 -2.5869
45738SOL     OW47527  11.927   0.456   9.254  0.3251 -0.2534 -0.0781
45738SOL    HW147528  11.857   0.429   9.195 -0.3442 -0.0183  0.6088
45738SOL    HW247529  11.917   0.551   9.262 -0.8567 -0.5045  2.0050
45739SOL     OW47530   2.958   8.113  12.341  0.1152  0.0066  0.2584
45739SOL    HW147531   2.908   8.034  12.323 -1.6343  1.3646 -1.1799
45739SOL    HW247532   2.982   8.106  12.433 -2.0701 -1.0685  0.8020
45740SOL     OW47533   2.914   3.497   3.343 -0.1424  0.3906 -0.0694
45740SOL    HW147534   2.836   3.475   3.394 -1.6222  0.7052 -2.0803
45740SOL    HW247535   2.885   3.493   3.252  2.1864  0.6256 -0.8847
45741SOL     OW47536   1.222   5.885   3.886 -0.0889 -0.3621  0.1920
45741SOL    HW147537   1.219   5.820   3.957 -0.2133 -0.9178 -0.3148
45741SOL    HW247538   1.232   5.833   3.807 -2.0687  0.1056 -0.4151
45742SOL     OW47539   3.739   5.156   2.170  0.7074  0.0002  0.4149
45742SOL    HW147540   3.766   5.248   2.172  1.0885 -0.1260  2.3139
45742SOL    HW247541   3.645   5.158   2.188  0.5586  0.0350 -0.2995
45743SOL     OW47542  12.001   6.307   3.607 -0.5010 -0.0465  0.4811
45743SOL    HW147543  11.935   6.347   3.551 -0.1789 -0.0400  0.1038
45743SOL    HW247544  12.069   6.277   3.547  0.1785  0.5842  0.9208
45744SOL     OW47545  10.823   2.359   6.899  0.3157 -0.1106  0.4090
45744SOL    HW147546  10.867   2.330   6.819 -0.6574  0.8426 -0.4986
45744SOL    HW247547  10.811   2.278   6.949 -1.1394 -1.1412 -1.4549
45745SOL     OW47548  12.825   9.570  10.609  0.3627 -0.1109 -0.3260
45745SOL    HW147549  12.857   9.483  10.632 -1.2739 -1.4553 -2.7086
45745SOL    HW247550  12.904   9.621  10.590  1.2951 -1.9184 -1.5577
45746SOL     OW47551   6.680   8.133  11.211 -0.0563 -0.3522  0.1747
45746SOL    HW147552   6.690   8.206  11.151  0.1520 -0.3835  0.1739
45746SOL    HW247553   6.609   8.081  11.174 -0.7877  0.3008  0.6195
45747SOL     OW47554   6.751   9.812   1.783 -0.1298 -0.0598  0.5310
45747SOL    HW147555   6.832   9.822   1.833  0.6642 -0.1104 -0.6755
45747SOL    HW247556   6.780   9.816   1.691 -1.2902 -1.5959  0.0589
45748SOL     OW47557   1.734  10.117   1.548 -0.3834 -0.4458  0.0517
45748SOL    HW147558   1.768  10.072   1.626  1.5916  1.7111  0.5463
45748SOL    HW247559   1.733  10.209   1.573 -2.9867 -0.0186 -1.3804
45749SOL     OW47560   0.156   3.448  12.981 -0.2323  0.3429 -0.5223
45749SOL    HW147561   0.182   3.386  13.049  0.8650  1.3796  0.0441
45749SOL    HW247562   0.219   3.434  12.910 -0.2614  0.5089 -0.5815
45750SOL     OW47563   2.051   1.242  10.248  0.0897  0.1568 -0.5676
45750SOL    HW147564   2.122   1.302  10.225  0.7805 -0.8417 -1.1040
45750SOL    HW247565   2.033   1.259  10.340 -0.3932  1.8601 -0.9424
45751SOL     OW47566  12.304   5.022   7.558 -0.2624  0.1886 -0.0267
45751SOL    HW147567  12.370   4.954   7.542 -1.6846 -0.9509 -1.4044
45751SOL    HW247568  12.342   5.101   7.518  0.3759 -0.3901 -0.6120
45752SOL     OW47569  10.344  12.777   2.077  0.0957 -0.9261  0.4799
45752SOL    HW147570  10.292  12.721   2.020 -1.0977  0.2128  0.4040
45752SOL    HW247571  10.293  12.780   2.159 -0.3355  0.7313  0.1807
45753SOL     OW47572   8.517  12.813   3.201  0.1003  0.4101 -0.1347
45753SOL    HW147573   8.540  12.890   3.252 -1.6221  0.5214  0.5402
45753SOL    HW247574   8.422  12.818   3.190  0.2447 -0.3120 -2.2510
45754SOL     OW47575   5.019   4.649   7.482  0.1287  0.3658 -0.0457
45754SOL    HW147576   4.969   4.599   7.418 -0.6052  1.1776 -0.1256
45754SOL    HW247577   5.000   4.607   7.566 -0.4148  0.4440 -0.1245
45755SOL     OW47578   5.905  12.033   7.961  0.0018  0.0576  0.2430
45755SOL    HW147579   5.824  11.993   7.930  1.1429 -1.0649 -1.4206
45755SOL    HW247580   5.884  12.126   7.967 -1.3711 -0.1874 -0.2461
45756SOL     OW47581  11.440   9.396   0.888  0.0292 -0.5025 -0.1453
45756SOL    HW147582  11.432   9.303   0.908  1.6560 -0.5371  0.4587
45756SOL    HW247583  11.349   9.428   0.888 -0.5296 -2.0033 -0.0380
45757SOL     OW47584   4.433  12.231   8.433  0.0105 -0.3271 -0.2041
45757SOL    HW147585   4.508  12.176   8.410 -0.1722 -0.3888 -0.6765
45757SOL    HW247586   4.389  12.183   8.503  0.9804  0.2161  0.8077
45758SOL     OW47587  10.002   4.567   6.176 -0.4703 -0.2801 -0.3897
45758SOL    HW147588   9.944   4.529   6.242 -1.6907 -0.9034 -1.7324
45758SOL    HW247589   9.944   4.620   6.121  0.3005 -0.5852 -1.5390
45759SOL     OW47590   8.288   4.347   4.330 -0.0064 -0.1594  0.5159
45759SOL    HW147591   8.286   4.274   4.392  2.1592  0.2249  1.1217
45759SOL    HW247592   8.358   4.404   4.363 -0.4854  1.3272 -0.9103
45760SOL     OW47593   6.383   5.164   1.522  0.3801 -0.0093  0.0775
45760SOL    HW147594   6.301   5.207   1.547  0.9646  0.2234  1.7080
45760SOL    HW247595   6.437   5.167   1.601  1.0210 -2.4443 -0.1877
45761SOL     OW47596   4.056   7.366  11.675 -0.0249 -0.2872 -0.1633
45761SOL    HW147597   4.121   7.351  11.606 -1.4290  0.6651 -1.7833
45761SOL    HW247598   3.973   7.339  11.635 -0.7027 -1.1173  1.7109
45762SOL     OW47599   4.682   5.870   6.773  0.6603  0.4254  0.4330
45762SOL    HW147600   4.658   5.889   6.864 -0.6289  0.5643  0.0768
45762SOL    HW247601   4.609   5.820   6.739 -1.1938  4.2651 -1.9053
45763SOL     OW47602  10.475  11.535   6.046  0.2104  0.1609 -0.3094
45763SOL    HW147603  10.429  11.451   6.053  0.4683 -0.0214 -0.7111
45763SOL    HW247604  10.561  11.518   6.085  0.9202 -0.2939 -1.9553
45764SOL     OW47605   3.817   4.128   7.533 -0.4197  0.0153 -0.2637
45764SOL    HW147606   3.905   4.145   7.498 -0.8441  1.4690 -0.6781
45764SOL    HW247607   3.777   4.071   7.467 -0.0321 -0.0884 -0.4159
45765SOL     OW47608   9.153   6.616   5.325 -0.5038  0.0333 -0.0069
45765SOL    HW147609   9.134   6.614   5.418 -0.8752  0.1325 -0.0798
45765SOL    HW247610   9.073   6.585   5.283 -0.3706  0.0792 -0.2986
45766SOL     OW47611   1.559   8.788   1.318  0.2251  0.7963  0.3590
45766SOL    HW147612   1.601   8.753   1.396  1.7926  0.9680 -0.3655
45766SOL    HW247613   1.528   8.711   1.270  1.1442  0.5532  0.1404
45767SOL     OW47614   2.707   7.934   5.969  0.0287 -0.1169  0.1322
45767SOL    HW147615   2.740   7.849   5.998  0.4842  0.2542  0.7174
45767SOL    HW247616   2.644   7.959   6.036  1.0076  0.6988  0.7693
45768SOL     OW47617   8.192  10.697  12.948  0.1274 -0.2712 -0.2692
45768SOL    HW147618   8.123  10.694  13.015  0.5008  0.5255  0.1673
45768SOL    HW247619   8.267  10.735  12.993 -0.2028  2.1972 -1.6156
45769SOL     OW47620  10.119   2.281  11.553 -0.1734 -0.0216 -0.1325
45769SOL    HW147621  10.097   2.367  11.588  0.4615 -0.3738  1.1898
45769SOL    HW247622  10.181   2.299  11.482  1.4698  0.5570  1.3740
45770SOL     OW47623  11.005   3.469   9.581  0.5288  0.4236  0.0949
45770SOL    HW147624  10.934   3.517   9.622  1.2997  0.8291  0.9919
45770SOL    HW247625  11.052   3.534   9.529  1.0730  0.4677  0.6353
45771SOL     OW47626   9.925   6.874   0.292  0.5374  0.3238 -0.1714
45771SOL    HW147627   9.875   6.887   0.372  2.3840  2.7706  0.7064
45771SOL    HW247628   9.882   6.929   0.227  0.6289  0.4937 -0.0895
45772SOL     OW47629   3.606   6.445   6.936  0.5927 -0.0021 -0.0453
45772SOL    HW147630   3.565   6.386   6.872  0.0226  0.5925 -0.2455
45772SOL    HW247631   3.643   6.388   7.003 -0.7572 -0.5512  0.2488
45773SOL     OW47632  12.439   8.921   1.378 -0.6448 -0.1760 -0.2069
45773SOL    HW147633  12.430   8.882   1.291 -1.8726 -3.5249  1.2230
45773SOL    HW247634  12.350   8.947   1.401 -0.1020  1.9959 -0.4273
45774SOL     OW47635  11.272   1.258   4.643 -0.2768  0.1649  0.6953
45774SOL    HW147636  11.264   1.328   4.578 -0.0110  0.3621  0.8716
45774SOL    HW247637  11.355   1.276   4.687  0.3726 -0.9226 -0.0446
45775SOL     OW47638   8.060   1.402   9.773  0.2214  0.7586 -0.3094
45775SOL    HW147639   8.146   1.360   9.770  0.1048  0.3431  1.1059
45775SOL    HW247640   8.007   1.342   9.826 -1.1720  0.6223 -1.8000
45776SOL     OW47641   9.690   8.754   4.674  0.0276 -0.2486  0.0595
45776SOL    HW147642   9.707   8.825   4.735 -0.6635 -0.5303  0.5958
45776SOL    HW247643   9.615   8.784   4.622  1.0018  0.2557 -1.0974
45777SOL     OW47644  12.517   5.731   7.451  0.3252  0.0624  0.3958
45777SOL    HW147645  12.442   5.761   7.502  0.8454  0.2933  1.0411
45777SOL    HW247646  12.584   5.798   7.464  1.2073 -0.9181  1.1704
45778SOL     OW47647   8.288  12.418  12.179 -0.1470 -0.0330 -0.1859
45778SOL    HW147648   8.282  12.323  12.167  1.0418 -0.0628 -0.6436
45778SOL    HW247649   8.207  12.451  12.141 -0.4505 -0.8416 -0.2776
45779SOL     OW47650   8.698   7.746   5.993 -0.2379  0.0922  0.2017
45779SOL    HW147651   8.708   7.662   5.947  2.2708  0.5090 -0.1322
45779SOL    HW247652   8.622   7.787   5.951 -1.9175 -2.1962  0.7652
45780SOL     OW47653   8.944   8.422   4.323 -0.5912  0.2221 -0.7260
45780SOL    HW147654   9.033   8.425   4.359 -0.7184  0.5668 -0.4387
45780SOL    HW247655   8.898   8.360   4.378 -0.6020  0.2486 -0.7054
45781SOL     OW47656   1.031   8.135   2.338  0.1432  0.2967  0.3462
45781SOL    HW147657   1.032   8.042   2.357 -1.4581  0.2111  0.1358
45781SOL    HW247658   1.024   8.177   2.423 -0.6220  0.1675  0.3464
45782SOL     OW47659   2.125  12.359   2.322 -0.2554 -0.4672 -0.1308
45782SOL    HW147660   2.030  12.352   2.310 -0.0843 -2.0788 -0.7728
45782SOL    HW247661   2.162  12.320   2.243  0.9771  0.9426 -0.3039
45783SOL     OW47662   0.180  11.199   8.502  1.0830  0.1989  0.7363
45783SOL    HW147663   0.169  11.193   8.597  1.8823  1.2498  0.9161
45783SOL    HW247664   0.154  11.289   8.480 -0.1070 -0.3534 -0.2010
45784SOL     OW47665   4.283   2.008   2.405  0.7506  0.5626 -0.1630
45784SOL    HW147666   4.378   2.012   2.411  0.6779  0.3103  1.7255
45784SOL    HW247667   4.252   2.069   2.473 -0.3980 -1.2626  1.0230
45785SOL     OW47668   5.147  11.667  12.460 -0.2816  0.1835  0.8530
45785SOL    HW147669   5.101  11.744  12.493 -0.2591  0.0617  1.1735
45785SOL    HW247670   5.127  11.598  12.523 -0.1778 -0.0335  0.6502
45786SOL     OW47671   5.893   1.999   5.145 -0.4534 -0.0926  0.7272
45786SOL    HW147672   5.906   2.090   5.173 -0.9536  0.0069  0.6378
45786SOL    HW247673   5.947   1.948   5.205  1.4059  0.3995 -0.4166
45787SOL     OW47674  12.629  11.838   7.644 -0.2643  0.1296  0.3625
45787SOL    HW147675  12.609  11.836   7.738 -0.5549  1.5253  0.3480
45787SOL    HW247676  12.559  11.785   7.604 -0.4350 -0.0477  0.8803
45788SOL     OW47677   1.434   2.927   9.376 -0.1751  0.5682  0.1296
45788SOL    HW147678   1.347   2.952   9.409 -0.5513 -0.9767  0.4106
45788SOL    HW247679   1.487   2.916   9.455 -0.8307 -2.2741  0.2566
45789SOL     OW47680   3.942   3.113   6.452 -0.2778  0.0156 -0.3095
45789SOL    HW147681   3.856   3.138   6.487 -0.2121  0.7203 -0.6427
45789SOL    HW247682   4.005   3.148   6.515 -0.2495 -1.6400  0.6486
45790SOL     OW47683   0.411   2.603   0.660  0.3929  0.0343  0.4574
45790SOL    HW147684   0.329   2.638   0.627  0.8752  1.6470  0.8603
45790SOL    HW247685   0.407   2.618   0.755  0.9636 -0.2711  0.5378
45791SOL     OW47686   3.903   4.618  12.574 -0.4965  0.5916  0.4377
45791SOL    HW147687   3.842   4.611  12.500  0.8772 -1.9729 -0.5927
45791SOL    HW247688   3.855   4.578  12.647 -0.7009  0.1554  0.0742
45792SOL     OW47689  11.770   5.474   5.249 -0.4025 -0.4803 -0.6003
45792SOL    HW147690  11.751   5.380   5.255 -0.0039 -0.5851 -0.9461
45792SOL    HW247691  11.810   5.485   5.163  0.3657 -0.1350 -0.2079
45793SOL     OW47692   3.828  10.697   1.997 -0.4422  0.1122 -0.0787
45793SOL    HW147693   3.843  10.791   1.986  0.8038  0.3947  2.9854
45793SOL    HW247694   3.766  10.692   2.071 -2.4460 -1.4880 -1.7543
45794SOL     OW47695   1.084   8.556   4.773  0.1524 -0.1734 -0.2191
45794SOL    HW147696   1.136   8.634   4.791  0.9023 -0.0425 -2.6734
45794SOL    HW247697   1.087   8.506   4.855  2.7206  0.6284  0.2595
45795SOL     OW47698   2.700   7.122  11.085 -0.0925  0.1967  0.3873
45795SOL    HW147699   2.757   7.066  11.137 -0.6304 -1.5384 -0.8048
45795SOL    HW247700   2.642   7.164  11.149  0.3815 -0.5474  1.3316
45796SOL     OW47701   4.253  10.053  12.717 -0.0064  0.4237  0.4134
45796SOL    HW147702   4.220   9.976  12.670 -0.7778  0.7067  0.4910
45796SOL    HW247703   4.332  10.021  12.762 -0.6487 -0.4716  0.9288
45797SOL     OW47704  10.479  12.200   9.030 -0.3397  0.7746  0.1667
45797SOL    HW147705  10.515  12.267   9.089 -0.4460  0.7381  0.2727
45797SOL    HW247706  10.414  12.246   8.978  0.6948  1.1223 -0.8581
45798SOL     OW47707   5.933   7.485   8.370  0.0892 -0.5211 -0.1262
45798SOL    HW147708   5.889   7.564   8.401  1.2108 -0.4196  1.3337
45798SOL    HW247709   6.017   7.517   8.336  1.2798 -1.1698  1.9866
45799SOL     OW47710   3.759  11.552  12.887 -0.2529  0.0487  0.3359
45799SOL    HW147711   3.708  11.613  12.833  0.6387  0.0038 -0.5877
45799SOL    HW247712   3.716  11.554  12.972 -0.2196  2.0316  0.3608
45800SOL     OW47713   0.389   8.545   0.548  0.3264  0.2575 -0.5560
45800SOL    HW147714   0.351   8.480   0.489 -1.4715  0.2140  0.5833
45800SOL    HW247715   0.441   8.494   0.610 -2.6165 -0.4431  1.5343
45801SOL     OW47716  12.375   4.120   2.114 -0.4791 -0.0699  0.1244
45801SOL    HW147717  12.407   4.143   2.026 -0.6421 -1.4578 -0.3139
45801SOL    HW247718  12.452   4.085   2.159 -0.4103  0.5841  0.5388
45802SOL     OW47719   2.118  11.713   3.455 -0.0400  0.5429  0.2804
45802SOL    HW147720   2.200  11.730   3.502 -0.2496 -2.4521  1.9857
45802SOL    HW247721   2.063  11.788   3.477  1.4757  1.5307  0.9301
45803SOL     OW47722   3.193  11.327   0.617 -0.0568  0.1397  0.0608
45803SOL    HW147723   3.206  11.365   0.530  0.1773 -0.6681 -0.2641
45803SOL    HW247724   3.154  11.398   0.668  2.2005  1.5173  0.0353
45804SOL     OW47725   8.080   9.017   9.444  0.1603 -0.2030  0.1957
45804SOL    HW147726   8.141   9.025   9.517  1.0647 -0.4502 -0.5236
45804SOL    HW247727   7.993   9.023   9.485  0.5885 -2.0325  1.5149
45805SOL     OW47728  12.755  11.303   6.043  0.3475  0.1289 -0.0339
45805SOL    HW147729  12.669  11.301   6.085 -0.4024  1.6540 -1.4302
45805SOL    HW247730  12.755  11.227   5.985  0.2671 -0.2927  0.4991
45806SOL     OW47731  10.948   4.882   2.054  0.0300  0.0481  0.5741
45806SOL    HW147732  10.921   4.966   2.017 -0.0731 -0.1722  0.1417
45806SOL    HW247733  10.931   4.891   2.148 -0.3834  0.3606  0.4747
45807SOL     OW47734   6.177   1.515   1.474  0.1111  0.6928  0.3473
45807SOL    HW147735   6.262   1.545   1.442 -0.1967  0.8446 -0.3296
45807SOL    HW247736   6.196   1.478   1.561  0.5794  2.3903  1.0079
45808SOL     OW47737   7.851   7.853   3.785 -0.0890  0.1276 -0.0847
45808SOL    HW147738   7.929   7.891   3.826 -1.1159  4.1689 -1.4331
45808SOL    HW247739   7.885   7.800   3.713  1.4867  1.2893 -0.2558
45809SOL     OW47740   6.388   8.048   9.770  0.8141 -0.7898  0.5425
45809SOL    HW147741   6.371   8.064   9.677  0.6767  2.0060  0.9481
45809SOL    HW247742   6.301   8.046   9.810  0.9145  0.1475  0.8462
45810SOL     OW47743   3.278   4.690  11.925  0.0211  0.4803  0.5194
45810SOL    HW147744   3.283   4.728  11.837  0.9776  2.2493  1.2917
45810SOL    HW247745   3.305   4.599  11.912 -1.4357  0.2416 -1.2508
45811SOL     OW47746   2.362  11.750   7.973  0.2871  0.0844 -0.5748
45811SOL    HW147747   2.346  11.785   8.061  0.7929  0.9564 -0.8203
45811SOL    HW247748   2.391  11.660   7.988 -0.2030  0.0290  0.1122
45812SOL     OW47749  12.333   2.806   9.083  0.7710  0.0943 -0.1500
45812SOL    HW147750  12.296   2.891   9.061  1.7530 -0.0046 -2.4315
45812SOL    HW247751  12.426   2.815   9.065  1.2111 -0.9465  1.3794
45813SOL     OW47752   1.096   9.052   0.576  0.1977  0.1830  0.3295
45813SOL    HW147753   1.042   8.999   0.517  0.1292 -0.6867  1.1535
45813SOL    HW247754   1.046   9.133   0.587  0.1557  0.3116 -0.7106
45814SOL     OW47755  12.861   0.162   2.172  0.0961  0.2872  0.4995
45814SOL    HW147756  12.797   0.104   2.130  0.1051  0.8480 -0.2982
45814SOL    HW247757  12.944   0.141   2.130  0.1908  0.5270  0.5652
45815SOL     OW47758   4.400  11.487  11.233  0.3485 -0.2338 -0.2243
45815SOL    HW147759   4.381  11.421  11.299 -0.0760  2.2597  2.3574
45815SOL    HW247760   4.467  11.542  11.273  0.9982  0.6933 -2.4315
45816SOL     OW47761  11.551   4.113   3.530 -0.1128 -0.0685 -0.1427
45816SOL    HW147762  11.603   4.114   3.611  0.6134  0.8044 -0.5936
45816SOL    HW247763  11.610   4.078   3.464 -0.5447 -0.3237 -0.3950
45817SOL     OW47764   1.182  12.766   6.396  0.4205 -0.0785 -0.1518
45817SOL    HW147765   1.216  12.784   6.484 -0.8581 -0.5631  0.4647
45817SOL    HW247766   1.159  12.673   6.397  0.8135 -0.2020 -1.1555
45818SOL     OW47767  10.539  10.789   5.256  0.4175 -0.7209  0.8649
45818SOL    HW147768  10.624  10.747   5.269 -0.2563 -2.2477  0.5750
45818SOL    HW247769  10.485  10.756   5.328 -0.3309 -0.9380  0.2168
45819SOL     OW47770  10.938  11.018   0.632  0.4881  0.1563 -0.3939
45819SOL    HW147771  10.854  11.035   0.591 -0.4383 -0.2470  1.2353
45819SOL    HW247772  10.970  11.104   0.659 -0.2217  0.1678  0.4578
45820SOL     OW47773   1.952   6.985   9.569 -0.1299  0.0593 -0.1270
45820SOL    HW147774   1.893   7.013   9.639 -1.0026  0.6316 -1.0623
45820SOL    HW247775   1.894   6.944   9.504  0.1912  2.3126 -1.9424
45821SOL     OW47776  10.716   6.804   9.200  0.2829  0.2505  0.0853
45821SOL    HW147777  10.645   6.744   9.220  0.1793  0.0967 -0.6894
45821SOL    HW247778  10.747   6.776   9.113 -0.2352  1.7379 -0.6142
45822SOL     OW47779   9.390   6.522   5.151  0.6972 -0.4374 -0.3318
45822SOL    HW147780   9.305   6.516   5.195 -1.0105  0.5275 -3.2322
45822SOL    HW247781   9.437   6.443   5.178 -1.6680 -1.7142  0.2966
45823SOL     OW47782  11.428  11.449   8.799 -0.1410 -0.5434  0.0878
45823SOL    HW147783  11.510  11.400   8.794  0.1077 -0.0878 -0.4160
45823SOL    HW247784  11.451  11.529   8.847 -0.4181 -0.6604  0.4209
45824SOL     OW47785  11.672   8.699   7.856  0.4561 -0.0931  0.3464
45824SOL    HW147786  11.686   8.793   7.844 -0.7016  0.3042  1.7302
45824SOL    HW247787  11.589   8.694   7.904 -0.4366 -1.9134 -1.2843
45825SOL     OW47788  12.258   5.146   1.085 -0.0919  0.0743 -0.0523
45825SOL    HW147789  12.274   5.052   1.090 -0.1602  0.0837  0.4374
45825SOL    HW247790  12.300   5.174   1.004 -0.0685 -0.3761 -0.1977
45826SOL     OW47791   4.558   0.150   6.226  0.4566  0.2561  0.7861
45826SOL    HW147792   4.574   0.111   6.140 -1.6856  0.1543  0.3948
45826SOL    HW247793   4.590   0.240   6.218  1.5756 -0.1569  0.3656
45827SOL     OW47794   6.072  11.329   5.253 -0.3348  0.0761  0.6509
45827SOL    HW147795   5.981  11.336   5.282 -0.7279  0.4910 -0.6084
45827SOL    HW247796   6.120  11.302   5.331 -1.2507  1.5682  1.7925
45828SOL     OW47797   4.922  10.792   6.909  0.8688  0.1443 -0.8770
45828SOL    HW147798   4.830  10.804   6.932  1.3593 -0.4505  1.7681
45828SOL    HW247799   4.947  10.873   6.866 -0.2250  1.4867  0.8863
45829SOL     OW47800   7.133   8.867  12.583 -0.1372  0.3240  0.4491
45829SOL    HW147801   7.066   8.807  12.616 -0.5474 -0.3275 -1.4134
45829SOL    HW247802   7.112   8.878  12.490  2.2203  0.2513 -0.1737
45830SOL     OW47803  12.602   3.839  11.231 -0.1673  0.0356  0.3669
45830SOL    HW147804  12.669   3.771  11.220  1.6476  1.8669 -0.7800
45830SOL    HW247805  12.622   3.878  11.316 -0.0358  0.3406  0.1944
45831SOL     OW47806   8.096   9.640   9.398 -0.0309 -0.1207 -0.1619
45831SOL    HW147807   8.127   9.670   9.313  1.2339 -2.2828 -0.5388
45831SOL    HW247808   8.046   9.561   9.379 -0.9657  0.1407  1.0129
45832SOL     OW47809   0.863   7.531   1.018  0.8441  0.0132 -0.5873
45832SOL    HW147810   0.923   7.511   1.089  0.8580  0.8054 -0.3705
45832SOL    HW247811   0.776   7.522   1.056  0.8547  1.7897 -0.0643
45833SOL     OW47812  11.030   7.455   0.250 -0.3134 -0.2610 -0.4707
45833SOL    HW147813  11.098   7.503   0.296  0.9563 -0.9113 -1.5796
45833SOL    HW247814  10.976   7.416   0.319 -0.1653  1.0673  0.4290
45834SOL     OW47815   8.756   4.253   8.290  0.3644  0.1879  0.1737
45834SOL    HW147816   8.838   4.219   8.255 -0.1038 -1.3641  0.5086
45834SOL    HW247817   8.781   4.333   8.336  1.8465 -0.7216  1.0139
45835SOL     OW47818   4.149   5.478   7.827 -0.1991 -0.0189  0.3176
45835SOL    HW147819   4.214   5.500   7.893  0.9808 -1.8614 -0.1314
45835SOL    HW247820   4.201   5.445   7.753 -1.5747  0.0619 -0.7121
45836SOL     OW47821  10.713   2.129   9.643 -0.4062  0.0626  0.3055
45836SOL    HW147822  10.699   2.070   9.716 -2.3849 -0.4900 -0.4630
45836SOL    HW247823  10.627   2.168   9.625  0.2824  1.1367 -0.9213
45837SOL     OW47824   0.243  11.652   8.873  0.2171 -0.4642 -0.6624
45837SOL    HW147825   0.263  11.744   8.852  0.6098  0.1019  1.8252
45837SOL    HW247826   0.271  11.603   8.796  2.0470  1.3024 -1.2121
45838SOL     OW47827   7.921   5.137   2.121 -0.3960 -0.2342  0.1302
45838SOL    HW147828   7.917   5.137   2.216 -0.6510 -0.4495  0.1236
45838SOL    HW247829   7.856   5.202   2.094  1.3461  1.6136  0.1350
45839SOL     OW47830   8.545   8.876   0.483 -0.0253  0.3152 -0.0397
45839SOL    HW147831   8.636   8.855   0.463  0.2951 -0.7865  2.2089
45839SOL    HW247832   8.547   8.968   0.510  0.6196  0.0700  0.8112
45840SOL     OW47833   3.611   7.153   1.185 -0.1885 -0.2820 -0.7395
45840SOL    HW147834   3.685   7.167   1.125 -0.9401  1.3121 -1.3524
45840SOL    HW247835   3.534   7.159   1.129 -0.8669  0.2554  0.2341
45841SOL     OW47836   7.890  11.086   6.767 -0.4523 -0.0062  0.3986
45841SOL    HW147837   7.828  11.084   6.840 -1.3071 -1.2109 -0.3222
45841SOL    HW247838   7.930  11.000   6.767  0.4652  0.4071  0.2020
45842SOL     OW47839   7.660   4.764   1.375 -0.5223 -0.4165  0.4457
45842SOL    HW147840   7.600   4.709   1.324 -1.3817  1.0194 -0.1405
45842SOL    HW247841   7.746   4.749   1.335 -1.0774  0.2143 -1.0743
45843SOL     OW47842   1.631  11.391   7.276 -0.0693 -0.2808 -0.3707
45843SOL    HW147843   1.553  11.377   7.222  0.0345  0.3378 -0.6953
45843SOL    HW247844   1.643  11.486   7.276 -0.2905 -0.2312  1.0579
45844SOL     OW47845   0.186   2.933  11.750  0.0387 -0.0297 -0.3202
45844SOL    HW147846   0.148   3.015  11.721  1.7762  1.1845  0.6151
45844SOL    HW247847   0.189   2.878  11.672 -2.4539  0.2113 -0.6600
45845SOL     OW47848   4.805   8.656  11.378  0.2707  0.0591 -0.2882
45845SOL    HW147849   4.761   8.728  11.333 -0.2104 -0.7511 -1.1679
45845SOL    HW247850   4.746   8.632  11.450  1.5264  2.0405  1.5152
45846SOL     OW47851  11.572   8.441   2.376 -0.4389 -0.0488  0.7479
45846SOL    HW147852  11.629   8.485   2.313 -1.3010  2.1022  1.3792
45846SOL    HW247853  11.485   8.442   2.334 -0.6262 -0.4168  1.1269
45847SOL     OW47854   4.036   8.466  10.035 -0.0100  0.1719  0.6824
45847SOL    HW147855   4.039   8.392  10.096 -0.7466 -0.3459  0.1050
45847SOL    HW247856   3.994   8.537  10.085 -0.7648 -0.3021  0.7335
45848SOL     OW47857   9.128  11.608   4.641 -0.4273  0.0447 -0.0307
45848SOL    HW147858   9.108  11.619   4.548  1.8621  0.8204 -0.5062
45848SOL    HW247859   9.214  11.565   4.641  1.0200  2.6831  1.6402
45849SOL     OW47860   8.912   9.978   5.818 -0.4919 -0.0296  0.2618
45849SOL    HW147861   8.826  10.003   5.853 -0.6597 -1.1270  0.6527
45849SOL    HW247862   8.935   9.899   5.866 -0.0766 -0.7646 -1.1146
45850SOL     OW47863   9.297   0.410   2.290  0.6480 -0.2429  0.0494
45850SOL    HW147864   9.229   0.418   2.357 -0.0814 -0.7712 -0.6013
45850SOL    HW247865   9.359   0.347   2.326 -0.6492 -1.8822 -0.4746
45851SOL     OW47866   7.587   0.503   6.039 -0.4014  0.4796 -0.4543
45851SOL    HW147867   7.601   0.592   6.008 -3.5799  0.6121 -1.9094
45851SOL    HW247868   7.634   0.498   6.122  1.1281  2.9828 -1.0883
45852SOL     OW47869   5.779   7.841   6.744 -0.3252  0.0915 -0.0568
45852SOL    HW147870   5.731   7.761   6.722  0.3816 -0.0960 -0.9994
45852SOL    HW247871   5.764   7.899   6.669  2.0864 -0.5271 -1.1142
45853SOL     OW47872   4.347   9.246   0.502  0.6886  0.1221 -0.2169
45853SOL    HW147873   4.372   9.186   0.573  0.4519  0.7586  0.4049
45853SOL    HW247874   4.348   9.190   0.423  0.7973 -0.6236  0.2988
45854SOL     OW47875   8.434  11.577  10.001 -0.7003 -0.5677 -0.4603
45854SOL    HW147876   8.423  11.499   9.946  1.3791 -0.5906 -0.9411
45854SOL    HW247877   8.459  11.541  10.087 -0.1160 -0.4640 -0.5806
45855SOL     OW47878   1.314   0.195   8.700  0.2155  0.2994  0.0997
45855SOL    HW147879   1.237   0.251   8.701  1.3634  1.9841  1.8079
45855SOL    HW247880   1.344   0.194   8.790  1.9525 -0.6555 -0.4412
45856SOL     OW47881   7.413   8.997   2.404 -0.7682 -0.0070 -0.2020
45856SOL    HW147882   7.486   8.939   2.383 -1.5714 -1.0042 -0.3131
45856SOL    HW247883   7.425   9.017   2.497 -1.6285 -2.1123  0.4301
45857SOL     OW47884   8.757   0.118   8.805  0.0214 -0.5043 -1.1096
45857SOL    HW147885   8.844   0.139   8.771  0.9769 -0.2946  1.2852
45857SOL    HW247886   8.771   0.046   8.866 -1.3510  0.1396  0.0180
45858SOL     OW47887   7.240  12.885   3.632  0.5123 -0.0988 -0.2605
45858SOL    HW147888   7.197  12.871   3.547  0.4915 -0.1674 -0.2389
45858SOL    HW247889   7.312  12.946   3.613  0.4360 -0.0238 -0.3059
45859SOL     OW47890   6.578   9.058  10.155 -0.0555  0.0651  0.5313
45859SOL    HW147891   6.566   9.138  10.104  1.0269 -0.2246 -0.2213
45859SOL    HW247892   6.527   8.992  10.108 -3.0120  0.7440  2.4957
45860SOL     OW47893  12.937   4.457   8.218 -1.0599  0.2825  0.7965
45860SOL    HW147894  13.024   4.471   8.255  0.1428  0.0276 -1.7071
45860SOL    HW247895  12.899   4.388   8.271  0.9052 -0.6850  1.0212
45861SOL     OW47896  10.130   3.681   8.123  0.2527  0.0521 -0.3433
45861SOL    HW147897  10.047   3.649   8.088  0.1995  1.2736 -1.4417
45861SOL    HW247898  10.104   3.748   8.187  0.3698 -1.5311  1.4239
45862SOL     OW47899   2.039   2.553  12.411 -0.3955 -0.5281 -0.2823
45862SOL    HW147900   2.128   2.551  12.376 -0.4667  1.3165 -0.6411
45862SOL    HW247901   2.009   2.462  12.404  0.5511 -0.7393 -2.5225
45863SOL     OW47902   2.191   2.017  10.994 -0.5898 -0.1041 -0.1280
45863SOL    HW147903   2.264   2.077  11.009  1.1132 -1.9384 -0.6161
45863SOL    HW247904   2.182   1.969  11.076 -1.5430  0.3820  0.0609
45864SOL     OW47905   9.111   6.521   6.201  0.2616  0.2105  0.4520
45864SOL    HW147906   9.148   6.449   6.252  2.6732  0.8542 -0.2620
45864SOL    HW247907   9.044   6.558   6.258 -0.0154 -1.6569  1.4357
45865SOL     OW47908   4.031   6.166   7.938  0.4109 -0.2138 -0.5121
45865SOL    HW147909   3.954   6.178   7.882  0.6202  0.0018 -0.7556
45865SOL    HW247910   4.075   6.089   7.901  1.0830  0.5080 -1.2712
45866SOL     OW47911   3.273   3.573   5.836  0.2415 -0.3602  0.1982
45866SOL    HW147912   3.288   3.649   5.780 -1.6349 -0.1209 -0.0156
45866SOL    HW247913   3.355   3.563   5.884  0.3248  2.2105  0.7198
45867SOL     OW47914   1.832   8.401   2.785  0.1279 -1.1736  0.3791
45867SOL    HW147915   1.871   8.486   2.805  1.3546 -1.4390 -0.7545
45867SOL    HW247916   1.753   8.421   2.735  0.4631 -0.6874  0.0409
45868SOL     OW47917   9.169   3.602   0.937  0.5191  0.2903 -0.5020
45868SOL    HW147918   9.100   3.632   0.996  1.0384 -0.7259  0.6684
45868SOL    HW247919   9.123   3.567   0.861 -0.1453  2.4193 -1.1519
45869SOL     OW47920   3.091   3.429   7.215 -0.2125  0.1040 -0.2485
45869SOL    HW147921   3.020   3.492   7.214  0.8592  1.4057  1.0570
45869SOL    HW247922   3.169   3.481   7.233  0.9364 -1.4162 -0.6001
45870SOL     OW47923   5.342   9.606   6.273 -0.5795 -0.2220 -0.1403
45870SOL    HW147924   5.375   9.684   6.316  1.1024 -0.1800 -1.4222
45870SOL    HW247925   5.391   9.601   6.191 -1.6253 -1.8737 -0.7147
45871SOL     OW47926   4.529   0.100   0.992  0.1243  0.3222  0.5050
45871SOL    HW147927   4.437   0.076   0.993  0.4888 -1.3910 -0.8240
45871SOL    HW247928   4.541   0.154   1.069 -2.4298  2.3734 -0.3941
45872SOL     OW47929   1.410  10.604   3.057 -0.0157  0.0556 -0.0273
45872SOL    HW147930   1.435  10.696   3.055  0.2660 -0.0309 -1.3718
45872SOL    HW247931   1.322  10.604   3.095 -0.3968  0.9765 -0.8697
45873SOL     OW47932   2.987   5.390   3.772  0.4869  0.0282 -0.4539
45873SOL    HW147933   2.927   5.448   3.819  0.4231 -1.2115  1.0614
45873SOL    HW247934   3.019   5.329   3.838  1.1304 -1.2021 -1.8382
45874SOL     OW47935   8.017   4.589   3.820 -0.1595 -0.2898  0.5408
45874SOL    HW147936   7.929   4.582   3.782 -1.0508  0.1217  2.4021
45874SOL    HW247937   8.028   4.682   3.839  0.6541 -0.3470  0.3798
45875SOL     OW47938  10.692   1.551   8.988 -0.1847  0.0045 -0.4657
45875SOL    HW147939  10.641   1.487   9.036 -0.5355 -0.3606 -1.3002
45875SOL    HW247940  10.698   1.626   9.047 -0.1180 -0.6356  0.3543
45876SOL     OW47941   6.182   0.884   7.798  0.4247  0.7922  0.1853
45876SOL    HW147942   6.106   0.908   7.744 -0.1374 -0.0817  0.5705
45876SOL    HW247943   6.255   0.929   7.757  0.1375 -0.3889 -1.7499
45877SOL     OW47944  10.185   2.559   4.994  0.6239  0.6412  0.0051
45877SOL    HW147945  10.168   2.490   5.058  4.4085 -0.5949 -0.0535
45877SOL    HW247946  10.099   2.588   4.966 -1.1543 -1.5240  2.7245
45878SOL     OW47947  11.737   7.024  12.915  0.5917  0.3875  1.3119
45878SOL    HW147948  11.746   7.054  13.006  0.2299  1.0279  1.1387
45878SOL    HW247949  11.700   7.099  12.868 -1.4125 -0.6729  1.0850
45879SOL     OW47950   1.357   8.523   0.273 -0.7480 -0.1045 -0.7140
45879SOL    HW147951   1.303   8.542   0.350  1.0121 -0.4580  0.6781
45879SOL    HW247952   1.417   8.454   0.302  0.2354  0.0313 -2.2942
45880SOL     OW47953   0.856   1.624   0.243  0.2837 -0.6254 -0.0954
45880SOL    HW147954   0.867   1.617   0.148  1.7159 -0.1867  0.0132
45880SOL    HW247955   0.938   1.589   0.279  0.3901  0.6045  0.9198
45881SOL     OW47956   5.195   7.256   7.796 -0.0255  0.4906  0.0054
45881SOL    HW147957   5.172   7.217   7.880 -0.4893 -2.1284 -1.2351
45881SOL    HW247958   5.287   7.281   7.805  1.1925 -3.4110  0.1735
45882SOL     OW47959  10.062   6.068   1.751  0.3840  0.4755 -0.1517
45882SOL    HW147960  10.090   6.100   1.837 -0.6453  0.0457  0.3605
45882SOL    HW247961  10.134   6.012   1.722  0.3841 -0.0342  0.8053
45883SOL     OW47962   5.412   8.653   9.745  0.9614 -0.1398  0.0947
45883SOL    HW147963   5.448   8.636   9.832 -0.8175  1.9498  1.3248
45883SOL    HW247964   5.466   8.723   9.709 -0.4113  1.4959  1.0625
45884SOL     OW47965  10.013   7.031   3.745  0.0463 -0.2546 -0.8038
45884SOL    HW147966   9.992   6.989   3.662 -0.4624  0.0218 -0.8194
45884SOL    HW247967  10.016   6.959   3.808 -0.0950 -0.4005 -0.9630
45885SOL     OW47968   3.849   2.048   6.829 -0.2153  0.0537  0.1352
45885SOL    HW147969   3.829   2.114   6.896 -0.1476 -2.3154  2.6256
45885SOL    HW247970   3.763   2.012   6.805 -0.0447 -1.1349  1.2060
45886SOL     OW47971  10.268   9.850  12.135 -0.3474 -0.0457  0.0969
45886SOL    HW147972  10.276   9.755  12.129  0.2978  0.0044  0.1776
45886SOL    HW247973  10.346   9.884  12.092 -0.1821  0.4388  0.7784
45887SOL     OW47974  10.188  10.344   9.616 -0.4881 -0.3211  0.8099
45887SOL    HW147975  10.139  10.423   9.591 -1.6723 -1.3286 -0.1578
45887SOL    HW247976  10.271  10.352   9.569  0.0833  1.0838  1.9536
45888SOL     OW47977   3.453   7.727   0.670  0.1902  0.1455 -0.2063
45888SOL    HW147978   3.492   7.678   0.742 -0.9263 -1.2995 -0.5273
45888SOL    HW247979   3.430   7.660   0.605  1.1999  1.3949 -1.9442
45889SOL     OW47980   8.015   4.256   5.025 -0.7601 -0.3684 -0.2277
45889SOL    HW147981   7.932   4.257   4.978 -3.0446  1.4921  3.3707
45889SOL    HW247982   8.000   4.197   5.100  0.9554  0.4361  0.8239
45890SOL     OW47983   5.231   3.521  12.157 -0.6245  0.2802  0.2430
45890SOL    HW147984   5.305   3.555  12.209 -1.3390  0.7394  0.9808
45890SOL    HW247985   5.237   3.426  12.169 -0.0621  0.2989  0.1701
45891SOL     OW47986   4.485   1.278   7.918 -0.3626  0.2194  0.4486
45891SOL    HW147987   4.428   1.258   7.844  2.2042  2.1955 -2.3093
45891SOL    HW247988   4.528   1.195   7.940 -1.9532 -0.6121  0.5276
45892SOL     OW47989   7.159  10.867   0.090 -0.0397  0.1129  0.1470
45892SOL    HW147990   7.105  10.913   0.154 -0.6964  1.8406 -1.5629
45892SOL    HW247991   7.219  10.933   0.057  0.9182 -0.9824 -0.3662
45893SOL     OW47992   2.556  12.813   2.785 -0.1408  0.3092  0.5924
45893SOL    HW147993   2.558  12.896   2.737  1.6255 -0.4160 -0.6886
45893SOL    HW247994   2.543  12.747   2.718 -0.9344 -0.5265  1.5373
45894SOL     OW47995   4.470   9.991  11.384 -0.2889  0.1467  0.2704
45894SOL    HW147996   4.411   9.924  11.349  0.1897  0.3592 -0.9993
45894SOL    HW247997   4.421  10.031  11.456 -1.6516  0.2681 -0.6883
45895SOL     OW47998   1.029   8.393   3.217  0.2426  0.0761 -0.3650
45895SOL    HW147999   1.116   8.407   3.255 -0.3095  0.8370  0.6829
45895SOL    HW248000   0.987   8.479   3.222 -1.1036 -0.6043  0.5607
45896SOL     OW48001   0.516   8.150   8.570 -0.5926 -0.2344  0.1175
45896SOL    HW148002   0.505   8.085   8.638 -2.0225 -0.9025 -0.7116
45896SOL    HW248003   0.567   8.106   8.502  0.3158  0.2345  0.4827
45897SOL     OW48004   8.859   8.748   5.089 -0.0040  0.5938 -0.2485
45897SOL    HW148005   8.846   8.843   5.090  0.1225  0.6055  0.7564
45897SOL    HW248006   8.887   8.726   5.178  0.1951 -0.3558 -0.5344
45898SOL     OW48007   1.848   6.568   3.841 -0.3511  0.2337  0.3529
45898SOL    HW148008   1.934   6.570   3.799 -0.2512 -1.2213  0.4276
45898SOL    HW248009   1.859   6.620   3.921  0.8832 -1.0067  1.0536
45899SOL     OW48010  12.272   1.100   9.096  0.4985  0.3039 -0.2389
45899SOL    HW148011  12.245   1.059   9.179 -0.3220  3.0395  0.9672
45899SOL    HW248012  12.360   1.066   9.080  0.2162 -1.2139  1.1023
45900SOL     OW48013   8.693   2.377   0.892 -0.0803 -0.3038  0.1326
45900SOL    HW148014   8.600   2.396   0.878  0.0447 -0.2545 -0.6567
45900SOL    HW248015   8.699   2.354   0.985 -1.1008 -1.5370 -0.0770
45901SOL     OW48016  10.510   1.833   6.031  0.2183 -0.2885 -0.1331
45901SOL    HW148017  10.450   1.778   6.082  1.7404 -2.2324 -0.2960
45901SOL    HW248018  10.574   1.863   6.094 -0.7926  1.7060  0.0219
45902SOL     OW48019  11.185   4.184  10.827 -0.1483 -0.2937 -0.5694
45902SOL    HW148020  11.244   4.128  10.776 -0.3601  0.0492 -1.1908
45902SOL    HW248021  11.170   4.260  10.772 -0.5239 -0.0016 -0.0688
45903SOL     OW48022   0.739   0.218   4.140 -0.1589 -0.3955  0.2781
45903SOL    HW148023   0.830   0.220   4.112  0.0205 -0.1651  0.8643
45903SOL    HW248024   0.740   0.173   4.224 -0.7472 -1.4290 -0.2433
45904SOL     OW48025   5.583  10.560   0.770 -0.2002  0.4314 -0.8425
45904SOL    HW148026   5.532  10.618   0.826 -0.7751  0.0390 -0.9458
45904SOL    HW248027   5.524  10.539   0.697  0.8168  1.6228 -2.0773
45905SOL     OW48028   4.792   9.003   6.930  0.0589  0.3074 -0.2626
45905SOL    HW148029   4.822   9.093   6.913  1.1187  0.1660  0.8142
45905SOL    HW248030   4.820   8.984   7.019  0.2562 -1.2697 -0.6341
45906SOL     OW48031  10.385   4.067   4.188 -0.9621 -0.0808  0.5405
45906SOL    HW148032  10.388   4.044   4.095 -0.2178  0.0708  0.5204
45906SOL    HW248033  10.292   4.084   4.206 -1.0076  0.6875 -0.3716
45907SOL     OW48034   9.943   9.371  11.549  0.2476 -0.1060  0.6281
45907SOL    HW148035   9.857   9.406  11.571  0.7023  1.1171  0.5494
45907SOL    HW248036  10.004   9.439  11.577  1.0410  0.1102 -1.4408
45908SOL     OW48037   1.841  10.534  11.652 -0.2016  0.4099  0.4251
45908SOL    HW148038   1.810  10.622  11.632 -1.4926  0.3363  1.9281
45908SOL    HW248039   1.763  10.479  11.642 -0.2565 -0.0197  2.7399
45909SOL     OW48040   5.529  10.155   2.890 -0.6028 -0.0141 -0.1835
45909SOL    HW148041   5.489  10.214   2.826 -0.1948 -0.1816 -0.6039
45909SOL    HW248042   5.488  10.070   2.871 -0.2801 -0.1198 -0.4026
45910SOL     OW48043   2.952   4.118   2.756  0.1866 -0.6809 -0.3611
45910SOL    HW148044   2.913   4.030   2.753  0.4807 -0.7960 -0.9713
45910SOL    HW248045   3.040   4.106   2.718 -0.2054  0.0957 -1.5621
45911SOL     OW48046   8.991   3.248   3.090  0.2075  0.3750  0.1787
45911SOL    HW148047   8.912   3.266   3.141 -0.0273 -1.2031  0.4479
45911SOL    HW248048   9.037   3.182   3.142  1.2057  0.5512 -0.4731
45912SOL     OW48049   0.821   7.625   8.155 -0.2324 -0.3054  0.0769
45912SOL    HW148050   0.764   7.582   8.218  3.2823 -1.0229  3.0370
45912SOL    HW248051   0.840   7.711   8.194 -0.6436  0.6797 -1.7525
45913SOL     OW48052   8.027   6.318   5.521 -0.0549  0.5210 -0.6917
45913SOL    HW148053   8.077   6.389   5.481  1.0652  0.0937 -0.1204
45913SOL    HW248054   8.055   6.318   5.613 -1.8672  0.8915 -0.0938
45914SOL     OW48055   7.877   0.240  12.747  0.8567  0.0999  0.2251
45914SOL    HW148056   7.843   0.265  12.833  1.2814  0.0622  0.4068
45914SOL    HW248057   7.871   0.320  12.695  0.4171  0.0730  0.2283
45915SOL     OW48058   5.448   4.657   6.587 -0.4219 -0.2045  0.0185
45915SOL    HW148059   5.358   4.688   6.600 -0.9578 -1.6340 -0.0882
45915SOL    HW248060   5.447   4.619   6.498  0.1852 -0.5427  0.1499
45916SOL     OW48061   7.917   4.862   1.478 -0.1140 -0.4900  0.0181
45916SOL    HW148062   7.938   4.914   1.556 -1.5778  0.9884 -0.5277
45916SOL    HW248063   7.984   4.793   1.477  1.0279  0.5229  1.5687
45917SOL     OW48064   6.981   4.235   4.308 -0.4081  0.0326  0.1745
45917SOL    HW148065   6.907   4.178   4.330 -0.3646  0.3669  1.2159
45917SOL    HW248066   6.958   4.272   4.222 -1.3508 -0.0187  0.4009
45918SOL     OW48067   3.842   6.535   6.402 -0.7631 -0.2797  0.7509
45918SOL    HW148068   3.867   6.517   6.493  2.8727  1.3502  0.2538
45918SOL    HW248069   3.925   6.549   6.357 -2.4925  3.5361 -1.7906
45919SOL     OW48070   0.126   1.109  11.638 -0.1974  0.2840  0.1136
45919SOL    HW148071   0.157   1.157  11.561 -0.1599 -0.4638 -0.3434
45919SOL    HW248072   0.175   1.026  11.636 -0.7344 -0.0500  0.5309
45920SOL     OW48073   9.009  11.222   2.462  0.1331  0.1213 -0.4915
45920SOL    HW148074   8.950  11.291   2.434  0.6152  0.5237 -0.5166
45920SOL    HW248075   9.022  11.168   2.384 -0.0847  0.1074 -0.5200
45921SOL     OW48076  12.982   0.925   7.450 -0.5392  0.2156  0.3090
45921SOL    HW148077  12.998   0.931   7.356 -0.5536  0.9771  0.3502
45921SOL    HW248078  13.060   0.963   7.491 -0.7316  0.3090  0.5934
45922SOL     OW48079   0.796   0.990   5.815  0.4953  0.2370 -0.1629
45922SOL    HW148080   0.821   0.993   5.723 -1.1662 -0.7098 -0.6912
45922SOL    HW248081   0.815   0.900   5.842 -1.8098 -0.4443 -0.5117
45923SOL     OW48082   6.767   0.544   1.587  0.5199 -0.4969 -0.2921
45923SOL    HW148083   6.787   0.620   1.641  0.4399  0.3350 -1.4123
45923SOL    HW248084   6.743   0.580   1.502  0.3224 -1.7694 -0.7977
45924SOL     OW48085   7.412  12.275   0.593  0.0453  0.1665  0.5682
45924SOL    HW148086   7.501  12.241   0.602 -0.3230 -0.9168  0.2161
45924SOL    HW248087   7.387  12.254   0.503 -0.3330  1.0711  0.4476
45925SOL     OW48088   1.431   5.311   0.196 -0.2593  0.1745  0.0733
45925SOL    HW148089   1.511   5.258   0.190  0.4049  1.3070 -1.9879
45925SOL    HW248090   1.360   5.249   0.176  0.1357 -0.6971  1.2727
45926SOL     OW48091   7.610   5.813   6.699 -0.2060 -0.3966  0.5060
45926SOL    HW148092   7.607   5.903   6.730 -0.3167 -0.3506  0.3644
45926SOL    HW248093   7.540   5.807   6.635  0.6445 -0.2190 -0.4655
45927SOL     OW48094   8.600   7.310   7.259  0.4576  0.4643 -0.4595
45927SOL    HW148095   8.598   7.215   7.253 -0.0365  0.4914 -0.7487
45927SOL    HW248096   8.692   7.331   7.274  0.3277 -0.1452  1.3879
45928SOL     OW48097   5.771   0.859   8.409  0.4682  0.4390 -0.5723
45928SOL    HW148098   5.794   0.832   8.320  1.2407 -0.0011 -0.2456
45928SOL    HW248099   5.835   0.927   8.431  0.8955 -0.1482  0.0136
45929SOL     OW48100   3.766   8.698  11.796 -0.0092 -0.1287 -0.0647
45929SOL    HW148101   3.787   8.615  11.753  0.9151  0.0086  0.1152
45929SOL    HW248102   3.697   8.736  11.742  0.9211 -0.0952 -1.2725
45930SOL     OW48103   2.847  12.628   0.274 -0.4298 -0.5756 -0.5602
45930SOL    HW148104   2.770  12.625   0.330 -0.7862  0.7066 -0.9351
45930SOL    HW248105   2.897  12.703   0.306  1.6397 -2.4452  0.8534
45931SOL     OW48106   9.518  10.097   9.019  0.6466  0.4147  0.1052
45931SOL    HW148107   9.510  10.002   9.032  1.0079  0.3301 -0.2668
45931SOL    HW248108   9.441  10.133   9.063 -0.4658 -0.1732 -1.2878
45932SOL     OW48109   6.430   0.171   5.542  0.7774  0.4474  0.2735
45932SOL    HW148110   6.488   0.159   5.617 -0.0510  1.1036  1.0380
45932SOL    HW248111   6.414   0.265   5.538 -0.2217  0.2837  0.0753
45933SOL     OW48112   0.650   8.106   9.561  0.2651  0.6545  0.0505
45933SOL    HW148113   0.647   8.116   9.466  1.3589  1.0455  0.0429
45933SOL    HW248114   0.578   8.160   9.594 -2.3848 -2.1543 -0.6987
45934SOL     OW48115   7.597   4.318   1.695 -0.6662  0.0095  0.2485
45934SOL    HW148116   7.670   4.265   1.663 -1.1174 -1.3045  1.3204
45934SOL    HW248117   7.535   4.321   1.622  0.3880  1.1020 -0.6558
45935SOL     OW48118   3.744   2.888   7.628  0.1327 -0.0887  0.5694
45935SOL    HW148119   3.726   2.962   7.570 -0.8468  0.5401  1.6209
45935SOL    HW248120   3.836   2.867   7.614  0.7457  2.0815  1.0655
45936SOL     OW48121  10.844  10.293   1.869 -0.1702 -0.2577  0.1688
45936SOL    HW148122  10.762  10.322   1.829 -0.7411  0.8396  2.0227
45936SOL    HW248123  10.824  10.286   1.962  1.7229 -0.4193  0.5918
45937SOL     OW48124   0.913   3.974   3.508 -0.1372 -0.2174  0.4244
45937SOL    HW148125   0.982   3.933   3.560 -0.0630 -1.3397 -0.4870
45937SOL    HW248126   0.912   3.923   3.427 -1.6333  0.1598  0.1748
45938SOL     OW48127   0.969   1.414   0.906 -0.5020  0.6746  0.1504
45938SOL    HW148128   0.997   1.368   0.826 -0.2535  0.8775  0.1202
45938SOL    HW248129   0.881   1.381   0.922 -0.4512  0.4305 -0.0574
45939SOL     OW48130   5.397   1.226  12.227  0.7061  0.3647 -0.0871
45939SOL    HW148131   5.416   1.295  12.163  2.3028 -1.1487 -1.3598
45939SOL    HW248132   5.319   1.183  12.193  0.7564  0.4267 -0.2846
45940SOL     OW48133   7.747  12.843  12.983 -0.2441 -0.1864 -0.1151
45940SOL    HW148134   7.685  12.912  13.004  0.4524  0.6454 -0.7334
45940SOL    HW248135   7.820  12.856  13.043 -0.5950 -1.0913  0.5312
45941SOL     OW48136  10.539   2.723   9.404 -0.3232 -0.2379 -0.7518
45941SOL    HW148137  10.465   2.783   9.394 -0.4200  0.0232  1.1812
45941SOL    HW248138  10.503   2.636   9.384 -1.0379 -0.0536 -0.2865
45942SOL     OW48139  10.283   3.060   3.929  0.6471 -0.3666 -0.3776
45942SOL    HW148140  10.266   3.041   3.837 -0.3619  1.0497 -0.5138
45942SOL    HW248141  10.277   2.975   3.972 -1.2820 -0.7611 -1.2887
45943SOL     OW48142   7.029   7.157   8.733 -0.0056 -0.3032  0.0481
45943SOL    HW148143   7.084   7.186   8.806 -0.6534  1.4615 -0.1263
45943SOL    HW248144   6.962   7.102   8.774 -1.0393  1.5740  1.0056
45944SOL     OW48145   3.257  11.934   0.635  0.2570  0.0627  0.3476
45944SOL    HW148146   3.292  11.849   0.662 -0.3060 -0.7759 -1.3944
45944SOL    HW248147   3.276  11.940   0.541 -0.0930  1.6752  0.3418
45945SOL     OW48148  11.194   1.062   2.118 -0.6511  0.4182  0.3545
45945SOL    HW148149  11.273   1.116   2.118  1.5998 -2.2332 -4.0771
45945SOL    HW248150  11.126   1.119   2.082 -0.3138  2.1378  2.2609
45946SOL     OW48151   0.932   0.059   2.120 -0.3508  0.4485 -0.4012
45946SOL    HW148152   0.842   0.082   2.146  0.0758  0.8970  0.7466
45946SOL    HW248153   0.983   0.137   2.142  1.2459 -1.5176  4.0368
45947SOL     OW48154   2.593   5.478  12.276  0.1933  0.4276 -0.2816
45947SOL    HW148155   2.570   5.403  12.331 -2.6060  1.1084 -0.3856
45947SOL    HW248156   2.551   5.553  12.318  0.9915  1.5565 -1.4287
45948SOL     OW48157  11.907   3.850   6.251 -0.4646 -0.2041 -0.3915
45948SOL    HW148158  11.874   3.814   6.169 -0.0960 -0.2203 -0.5355
45948SOL    HW248159  11.889   3.943   6.245 -0.5885 -0.2293 -0.4177
45949SOL     OW48160   8.434   8.909   0.875 -0.0516 -0.2123  0.0027
45949SOL    HW148161   8.431   8.874   0.964 -0.7738 -0.1889 -0.0116
45949SOL    HW248162   8.411   8.834   0.820 -0.3318 -0.0410 -0.1145
45950SOL     OW48163  10.974   1.086   9.149  0.1833  0.2819 -0.2442
45950SOL    HW148164  11.004   1.170   9.113 -0.5677  1.2764  1.3019
45950SOL    HW248165  10.879   1.098   9.160  0.1063 -0.6735  0.2266
45951SOL     OW48166   3.676  10.193  10.909 -0.2482  0.8131  0.1936
45951SOL    HW148167   3.735  10.139  10.962  1.9730  2.1409 -0.7867
45951SOL    HW248168   3.656  10.268  10.964 -1.3137  0.2026  0.6475
45952SOL     OW48169   1.488   3.689  10.379  0.4959  0.5968 -0.4453
45952SOL    HW148170   1.540   3.697  10.459 -1.8429  2.4238  1.0481
45952SOL    HW248171   1.485   3.595  10.361  2.3699  0.2703  0.6823
45953SOL     OW48172  12.358   1.988   2.195 -0.2398  0.1407 -0.3854
45953SOL    HW148173  12.330   2.053   2.259  2.8513  0.4898  0.8083
45953SOL    HW248174  12.361   2.035   2.112 -0.9650  0.6631 -0.1230
45954SOL     OW48175   7.664   8.502   7.929  0.3470  0.2346  0.2733
45954SOL    HW148176   7.648   8.553   7.849 -0.5713  2.4431  1.7683
45954SOL    HW248177   7.755   8.523   7.952  0.6531 -0.5017 -0.2322
45955SOL     OW48178   0.520  11.216   3.899 -0.0182 -0.3565 -0.1477
45955SOL    HW148179   0.502  11.222   3.993 -0.9847  1.3774 -0.4092
45955SOL    HW248180   0.456  11.153   3.866 -0.6811  0.1525  0.1398
45956SOL     OW48181   1.644   2.451   9.564 -0.2339 -0.3318 -0.0519
45956SOL    HW148182   1.644   2.355   9.555 -1.1954 -0.4058  0.5975
45956SOL    HW248183   1.651   2.466   9.658  1.9546  0.2915 -0.2560
45957SOL     OW48184   0.519   6.485  11.462 -0.0326  0.0272  0.2678
45957SOL    HW148185   0.608   6.464  11.492 -0.0808  0.8381  1.0252
45957SOL    HW248186   0.479   6.400  11.444  0.8000 -0.3600  0.2021
45958SOL     OW48187  10.528   3.329   1.565 -0.2771  0.2022 -0.0524
45958SOL    HW148188  10.571   3.260   1.514 -0.5191  1.0075 -1.4052
45958SOL    HW248189  10.473   3.375   1.501  1.0452  2.6250  0.4316
45959SOL     OW48190  12.838  12.666   5.996 -0.2562  0.7350  0.0294
45959SOL    HW148191  12.826  12.667   6.091 -2.3143 -1.2161 -0.1087
45959SOL    HW248192  12.758  12.706   5.962 -0.5149 -0.4609 -0.8558
45960SOL     OW48193  12.294   4.205   3.849  0.2180  0.1491 -0.3930
45960SOL    HW148194  12.222   4.160   3.891 -0.2473  0.6473 -0.6458
45960SOL    HW248195  12.364   4.205   3.914 -1.0037  2.3137  1.0679
45961SOL     OW48196   2.209   5.078   5.555 -0.3946 -0.2294 -0.0130
45961SOL    HW148197   2.207   5.121   5.640  0.8061  0.1988 -0.1859
45961SOL    HW248198   2.193   5.148   5.492 -0.7796 -0.4574 -0.1753
45962SOL     OW48199   1.375   6.552   2.734  0.3412 -0.0057  0.3669
45962SOL    HW148200   1.451   6.578   2.681  1.2268  0.3431  1.7515
45962SOL    HW248201   1.365   6.622   2.798 -1.1090 -0.1001  0.2864
45963SOL     OW48202   9.646   7.570   4.080 -0.1645 -0.1480 -0.0185
45963SOL    HW148203   9.729   7.537   4.045 -1.5645 -1.2367 -2.6329
45963SOL    HW248204   9.632   7.652   4.033  0.6265  1.4872  2.4083
45964SOL     OW48205   6.591  12.950   9.116  0.1243  0.6721 -0.0034
45964SOL    HW148206   6.520  13.014   9.115  0.0852  0.6887  1.7023
45964SOL    HW248207   6.648  12.977   9.188  2.2066  0.9654 -1.6604
45965SOL     OW48208   7.734   3.291   7.038  0.2524  0.0517  0.5880
45965SOL    HW148209   7.675   3.359   7.006 -0.0369 -0.6051 -0.3072
45965SOL    HW248210   7.817   3.310   6.994 -0.1331 -0.8249 -0.5610
45966SOL     OW48211   6.098   9.287   8.507  0.1635 -0.2571  0.4520
45966SOL    HW148212   6.169   9.339   8.545  1.3629 -1.8513  0.4802
45966SOL    HW248213   6.059   9.243   8.582  0.7783 -1.3035  0.1715
45967SOL     OW48214   5.233   0.557   6.137 -0.3237  0.1011 -0.6797
45967SOL    HW148215   5.275   0.631   6.092  0.0858  1.0920  1.2366
45967SOL    HW248216   5.231   0.583   6.229  0.7760 -2.7263  0.2381
45968SOL     OW48217   4.886  11.997   9.699  0.4776  0.2503 -0.3112
45968SOL    HW148218   4.877  11.908   9.664  1.6333  0.5327 -1.4158
45968SOL    HW248219   4.896  12.052   9.622  1.3142  1.1440  0.4040
45969SOL     OW48220   4.225   8.104   4.009 -0.1151  0.5039 -0.9551
45969SOL    HW148221   4.274   8.113   3.928  2.2164  1.3979  0.4380
45969SOL    HW248222   4.291   8.115   4.078 -2.2270  1.3971  1.0695
45970SOL     OW48223   5.880   4.438   2.531 -0.1794  0.0043 -0.0053
45970SOL    HW148224   5.965   4.396   2.516 -0.6084 -1.3665  1.1476
45970SOL    HW248225   5.816   4.373   2.501 -0.8577  1.6321 -2.3465
45971SOL     OW48226   4.071   7.819   4.338  0.0763  0.2766  0.0843
45971SOL    HW148227   4.137   7.820   4.407  0.0718  0.2449  0.0884
45971SOL    HW248228   3.987   7.829   4.384 -0.3303 -3.6630  0.4835
45972SOL     OW48229   1.787   1.078   8.016  0.4249 -1.1093 -0.7718
45972SOL    HW148230   1.871   1.046   8.050  0.3870 -1.0662 -0.6381
45972SOL    HW248231   1.812   1.139   7.947  0.5140 -0.6513 -0.3370
45973SOL     OW48232   9.010   4.940   4.510 -0.0041 -0.4768 -0.4415
45973SOL    HW148233   8.929   4.983   4.482  0.1321  0.3462  0.3748
45973SOL    HW248234   8.982   4.855   4.545 -0.4065 -0.5765 -1.0043
45974SOL     OW48235   5.931   3.288   5.852 -0.7024  0.1142  0.0689
45974SOL    HW148236   6.018   3.326   5.862 -0.7819  0.4336 -0.4267
45974SOL    HW248237   5.879   3.331   5.920 -0.0255 -1.4979  1.6630
45975SOL     OW48238   7.386  10.306  11.050  0.3452  0.1869  0.4042
45975SOL    HW148239   7.435  10.388  11.061 -0.3689  0.5255  1.1867
45975SOL    HW248240   7.426  10.246  11.112 -0.7038  0.7041  1.6306
45976SOL     OW48241  10.370   6.821   7.876 -0.2551 -0.0337  0.1406
45976SOL    HW148242  10.458   6.835   7.912 -0.7067 -0.2512  1.3823
45976SOL    HW248243  10.311   6.846   7.947 -1.1623 -1.4729 -0.0650
45977SOL     OW48244   9.271   8.616   8.364 -0.1682 -0.3788  0.2357
45977SOL    HW148245   9.266   8.681   8.294  0.2908 -0.0061  0.5411
45977SOL    HW248246   9.191   8.628   8.414  0.1355  0.2739  0.5684
45978SOL     OW48247   2.690   7.912   2.692 -0.4291  0.0738  0.4660
45978SOL    HW148248   2.654   7.938   2.607  1.2253 -0.6238 -0.4866
45978SOL    HW248249   2.640   7.964   2.755 -2.5775 -0.3113 -0.7965
45979SOL     OW48250   6.099   9.516   0.453 -0.2585  0.1737  0.1391
45979SOL    HW148251   6.110   9.467   0.372 -0.3931 -0.4508  0.4935
45979SOL    HW248252   6.043   9.590   0.428 -0.6248 -0.2309 -0.2549
45980SOL     OW48253   2.947   1.279  12.821  0.1805  0.1721  0.5732
45980SOL    HW148254   2.917   1.204  12.770  1.3875  0.2362 -0.2941
45980SOL    HW248255   2.875   1.299  12.880 -0.3443 -1.3746  0.4981
45981SOL     OW48256   9.934  11.883   9.347  0.4336  0.3247  0.3538
45981SOL    HW148257   9.895  11.797   9.363  0.9917  0.2712  1.5114
45981SOL    HW248258   9.859  11.943   9.347  0.2323  0.1088  1.6498
45982SOL     OW48259   1.038  12.010   6.328 -0.2312 -0.6462  0.2498
45982SOL    HW148260   1.095  11.939   6.357 -0.0478 -1.0392 -1.0004
45982SOL    HW248261   0.951  11.986   6.359 -0.0785 -1.1512  0.2892
45983SOL     OW48262  11.232   4.934   5.802  0.1503  0.1506  0.0570
45983SOL    HW148263  11.191   5.009   5.845  2.0489  1.9390 -1.0919
45983SOL    HW248264  11.177   4.917   5.726  1.8071  3.1608 -2.0275
45984SOL     OW48265  12.479   0.883   6.036 -0.4385  0.5747 -0.1659
45984SOL    HW148266  12.496   0.794   6.068 -0.8931  0.9230  1.1102
45984SOL    HW248267  12.497   0.939   6.111 -0.3247  1.5596 -0.9073
45985SOL     OW48268  10.250   5.123  12.832  0.2418  0.2738  0.1373
45985SOL    HW148269  10.279   5.151  12.919  0.0954  0.8520  0.0018
45985SOL    HW248270  10.164   5.164  12.821 -0.3217 -0.8296  0.2391
45986SOL     OW48271   1.731   0.944   5.255 -0.2741  0.2240  0.1642
45986SOL    HW148272   1.657   0.968   5.311 -0.1081  1.4719 -0.1235
45986SOL    HW248273   1.756   0.856   5.285  0.0226  0.9615  2.2847
45987SOL     OW48274   9.254   0.438   7.743  0.0414  0.1521  0.1078
45987SOL    HW148275   9.324   0.374   7.727 -0.1013  0.3369 -1.3697
45987SOL    HW248276   9.206   0.443   7.660 -1.5087  0.3139  0.9688
45988SOL     OW48277   7.126   6.293   2.314  0.5481  0.4111  0.4979
45988SOL    HW148278   7.154   6.282   2.223 -0.8212 -1.7255  0.2370
45988SOL    HW248279   7.035   6.262   2.314  0.9476 -1.0213  2.8368
45989SOL     OW48280   2.751   9.528   2.891 -0.0756  0.2490  0.1861
45989SOL    HW148281   2.742   9.612   2.935  1.7844  1.1249 -0.9784
45989SOL    HW248282   2.774   9.550   2.801  0.1376 -1.5084 -0.2367
45990SOL     OW48283   3.515   1.025  10.610  0.2231  0.3255  0.3530
45990SOL    HW148284   3.469   1.107  10.591 -1.2235 -0.4836  0.2055
45990SOL    HW248285   3.545   0.994  10.525 -0.5672 -0.0416  0.1964
45991SOL     OW48286   5.406   6.685   1.266 -0.8684 -0.1636  0.0274
45991SOL    HW148287   5.443   6.700   1.353 -2.1866 -3.1924  1.2627
45991SOL    HW248288   5.321   6.729   1.268 -1.3866 -1.1374  0.7668
45992SOL     OW48289   9.336   2.671   5.738 -0.2580 -0.1950  0.4308
45992SOL    HW148290   9.380   2.623   5.808 -0.7956  0.2397  1.0802
45992SOL    HW248291   9.406   2.718   5.693  0.2528 -1.4322 -0.1102
45993SOL     OW48292   3.905   9.513  12.801 -0.4932  0.5582  0.6256
45993SOL    HW148293   3.832   9.487  12.746  0.9377 -0.7735 -0.7467
45993SOL    HW248294   3.866   9.567  12.869 -2.5345  1.1253 -0.9008
45994SOL     OW48295  10.219   0.489   0.473  0.2796  0.8280 -0.4856
45994SOL    HW148296  10.199   0.577   0.442 -0.7825  0.4882 -0.7941
45994SOL    HW248297  10.147   0.468   0.533  0.6823  0.2809 -0.1845
45995SOL     OW48298   7.161  12.051   6.016 -0.1902  0.7177  0.4838
45995SOL    HW148299   7.102  12.028   6.088  0.0640  0.8208  0.7305
45995SOL    HW248300   7.234  12.095   6.059  0.1319  0.4668  0.1947
45996SOL     OW48301   3.266  10.531   3.235  0.5770 -0.1632 -0.1686
45996SOL    HW148302   3.306  10.605   3.281  1.6796 -1.1391  0.5106
45996SOL    HW248303   3.205  10.493   3.298  0.5170 -0.2395 -0.2715
45997SOL     OW48304   0.178   8.703   9.033 -0.0836  0.6175 -0.2742
45997SOL    HW148305   0.151   8.759   8.960  1.6056  1.4273 -0.3466
45997SOL    HW248306   0.274   8.698   9.024 -0.1827 -2.8050 -0.5976
45998SOL     OW48307  10.466  10.217  12.141  0.1095 -0.5785  0.7660
45998SOL    HW148308  10.413  10.268  12.202  0.1489 -1.3452  1.4481
45998SOL    HW248309  10.542  10.273  12.123 -0.3877  0.0690  0.6179
45999SOL     OW48310   5.531   8.814   3.981 -0.6110  0.1687  0.1357
45999SOL    HW148311   5.514   8.792   3.890  0.5142  0.4103 -0.1555
45999SOL    HW248312   5.562   8.905   3.979 -0.6150  0.1893  0.7587
46000SOL     OW48313  11.219   0.612   6.786 -0.2572  0.0164 -0.0110
46000SOL    HW148314  11.125   0.595   6.792 -0.0133 -1.0276  1.9689
46000SOL    HW248315  11.240   0.661   6.866  0.6384  1.6820 -1.2144
46001SOL     OW48316   9.295  11.035   8.124  0.0277 -0.0424  0.2936
46001SOL    HW148317   9.321  10.967   8.186 -1.1961 -0.7237  0.0884
46001SOL    HW248318   9.279  10.988   8.042 -0.4770  0.5483  0.0476
46002SOL     OW48319   0.291   9.187   6.528 -0.0421  0.4130  0.3967
46002SOL    HW148320   0.313   9.247   6.599  1.7886  0.4370 -0.1206
46002SOL    HW248321   0.240   9.118   6.570  0.3343  0.8337  1.5924
46003SOL     OW48322   4.509   3.944   1.880  0.0643  0.3366  0.2776
46003SOL    HW148323   4.458   3.879   1.832  0.9681 -0.6985  0.6711
46003SOL    HW248324   4.576   3.972   1.817  1.1628 -0.9186  0.8300
46004SOL     OW48325   5.816  11.086  12.420 -0.3797 -0.2013 -0.0622
46004SOL    HW148326   5.828  11.099  12.326  0.9941 -0.8137 -0.0090
46004SOL    HW248327   5.736  11.134  12.442  0.6278  2.1101 -1.0852
46005SOL     OW48328  12.059   5.884   7.694  0.6575  0.2202  0.1253
46005SOL    HW148329  12.026   5.812   7.748  2.6291 -1.1591 -0.3576
46005SOL    HW248330  12.009   5.878   7.613  0.0141  0.1347  0.5226
46006SOL     OW48331   9.560  10.698   4.374  0.2231  0.4585 -0.4969
46006SOL    HW148332   9.478  10.685   4.326 -1.0747 -0.4850  1.8424
46006SOL    HW248333   9.624  10.648   4.325 -1.1852 -1.0037 -0.9375
46007SOL     OW48334   1.882   7.583   8.857  0.2261  0.2240  0.0968
46007SOL    HW148335   1.883   7.667   8.810 -0.6948  0.5498  0.6173
46007SOL    HW248336   1.903   7.518   8.791  0.8976  0.8624 -0.3333
46008SOL     OW48337  12.945   0.383  10.075  0.2051  0.3223 -0.3204
46008SOL    HW148338  12.978   0.331  10.002 -0.7598  0.7889 -1.1112
46008SOL    HW248339  12.913   0.319  10.138  0.3010 -0.0738 -0.6712
46009SOL     OW48340   3.290   7.307  12.499 -0.1616  0.2092 -0.0359
46009SOL    HW148341   3.279   7.213  12.485 -0.5657  0.3358 -0.5780
46009SOL    HW248342   3.344   7.313  12.578 -0.5925 -0.4701  0.3168
46010SOL     OW48343   5.933   7.396   6.152  0.1968 -0.2512  0.0393
46010SOL    HW148344   6.010   7.420   6.203 -0.1024  0.7175  0.0661
46010SOL    HW248345   5.896   7.320   6.197  0.5331 -0.0551  0.6514
46011SOL     OW48346  10.646   5.693   5.194 -0.3323 -0.5327  0.0233
46011SOL    HW148347  10.587   5.683   5.270 -0.0048 -0.3546  0.3029
46011SOL    HW248348  10.664   5.603   5.167 -2.1023 -0.5900 -1.1481
46012SOL     OW48349   4.740   4.623   2.603  0.2220 -0.2468  0.6452
46012SOL    HW148350   4.809   4.635   2.538 -1.2267  0.0508 -0.9065
46012SOL    HW248351   4.665   4.591   2.553 -1.2668  0.9388  2.0047
46013SOL     OW48352   3.028   8.185   1.924 -0.5351 -0.0683  0.2875
46013SOL    HW148353   2.946   8.136   1.924  0.7902 -2.4501  0.1210
46013SOL    HW248354   3.089   8.129   1.875  1.1489  1.6925  0.2663
46014SOL     OW48355   7.322  12.382  10.546  0.0887  0.0655 -0.2209
46014SOL    HW148356   7.312  12.393  10.452  0.3487 -1.5865 -0.4703
46014SOL    HW248357   7.294  12.292  10.563 -0.0931  0.3783  1.3102
46015SOL     OW48358  12.352   0.908   9.962  0.1242  0.0576 -0.5192
46015SOL    HW148359  12.277   0.849   9.955 -1.1012  1.3892  0.6507
46015SOL    HW248360  12.423   0.854   9.995 -0.6089 -1.0110 -0.6696
46016SOL     OW48361  11.795  10.562   7.078  0.1369 -0.1567 -0.1809
46016SOL    HW148362  11.841  10.630   7.027  0.2786 -0.0872  0.0335
46016SOL    HW248363  11.737  10.611   7.136  2.2110 -0.0067  1.9633
46017SOL     OW48364   7.748  11.476   5.462 -0.1244 -0.2684 -0.6067
46017SOL    HW148365   7.729  11.388   5.430 -1.1828 -0.8665  1.5013
46017SOL    HW248366   7.664  11.523   5.454 -0.0876 -0.0702  0.1414
46018SOL     OW48367  12.252   5.437   7.340 -0.1427  0.0257 -0.2817
46018SOL    HW148368  12.239   5.414   7.248 -0.7835 -0.5608 -0.0586
46018SOL    HW248369  12.269   5.531   7.339 -1.2793  0.2457 -0.9152
46019SOL     OW48370   4.656  11.901   3.095 -0.6406  0.1463 -0.4665
46019SOL    HW148371   4.710  11.837   3.141 -1.7891  0.8877  2.0531
46019SOL    HW248372   4.718  11.972   3.073  0.7385 -1.8330 -3.6849
46020SOL     OW48373   0.469  11.839  12.774  0.1933 -0.5190  0.2518
46020SOL    HW148374   0.400  11.778  12.800 -0.0737 -0.6494 -0.7453
46020SOL    HW248375   0.423  11.909  12.727  0.6203 -0.0603  0.4998
46021SOL     OW48376   9.585   1.367   4.920 -0.1751 -0.3300  0.5164
46021SOL    HW148377   9.579   1.273   4.904  0.0899 -0.1850 -0.4835
46021SOL    HW248378   9.587   1.375   5.015  0.3263 -1.3671  0.6033
46022SOL     OW48379   8.495   8.554   3.533  0.0831 -0.6060  0.3902
46022SOL    HW148380   8.492   8.486   3.466  0.7261 -0.3459  0.0840
46022SOL    HW248381   8.466   8.633   3.488 -1.2984 -0.7921  0.9131
46023SOL     OW48382   1.652  12.074   7.898  0.1530 -0.1702  0.1436
46023SOL    HW148383   1.657  11.992   7.849 -2.0616  0.0589 -0.5599
46023SOL    HW248384   1.652  12.047   7.990  0.9295 -0.8230 -0.0333
46024SOL     OW48385   8.666   1.647   6.861  0.4138  0.0564  0.2240
46024SOL    HW148386   8.708   1.730   6.885  0.2151  0.7508 -1.6542
46024SOL    HW248387   8.696   1.585   6.928  2.9036  0.9640  0.0541
46025SOL     OW48388   7.310   7.611   4.092 -0.3467  0.0664  0.0991
46025SOL    HW148389   7.232   7.636   4.043  1.5115  3.3049 -1.5564
46025SOL    HW248390   7.311   7.671   4.167  0.4740 -0.0562  0.1934
46026SOL     OW48391   5.943   4.405   2.959 -0.6098 -0.2049  0.1075
46026SOL    HW148392   5.908   4.491   2.936 -1.1531  0.3672  2.7703
46026SOL    HW248393   6.019   4.424   3.014  0.8274 -1.4660 -1.3707
46027SOL     OW48394  10.602   5.865   3.235  0.6763 -0.4379  0.2206
46027SOL    HW148395  10.556   5.842   3.154  0.4081 -1.3840  0.6295
46027SOL    HW248396  10.691   5.832   3.222  1.1579  1.0629 -0.4217
46028SOL     OW48397   0.335   7.934   0.039  0.5436  0.0303  0.3996
46028SOL    HW148398   0.354   7.961  -0.051  0.6872  1.2661  0.7777
46028SOL    HW248399   0.402   7.869   0.060  2.0632  1.5066  0.4052
46029SOL     OW48400   1.750   4.105   2.920  0.4457 -0.0832  0.1371
46029SOL    HW148401   1.810   4.112   2.994 -0.7099  0.5719  1.0485
46029SOL    HW248402   1.772   4.181   2.865  1.7758 -0.9529 -0.5964
46030SOL     OW48403   8.806   7.254   3.406 -0.2366  0.2206  0.1312
46030SOL    HW148404   8.787   7.235   3.314 -0.1864 -1.5009  0.4447
46030SOL    HW248405   8.880   7.197   3.427 -3.7123 -3.9523  2.7300
46031SOL     OW48406   9.872   0.406   2.150 -0.0497 -0.4924  0.6447
46031SOL    HW148407   9.807   0.465   2.189  0.3960 -0.5419  1.4654
46031SOL    HW248408   9.950   0.460   2.140 -0.7769  0.2104 -2.3290
46032SOL     OW48409  12.492   8.071   7.585  0.2503 -0.0948  0.1193
46032SOL    HW148410  12.488   7.976   7.569  1.3151  0.1284 -1.7022
46032SOL    HW248411  12.439   8.109   7.515  0.0780  0.6835  0.6626
46033SOL     OW48412   5.565  10.384   4.766  0.0504  0.0194 -0.2563
46033SOL    HW148413   5.507  10.449   4.806  0.3812 -0.2348  0.6572
46033SOL    HW248414   5.533  10.300   4.799 -0.9093 -0.3923 -2.0888
46034SOL     OW48415   5.815   2.236   9.222  1.3479 -1.0523  0.0458
46034SOL    HW148416   5.852   2.278   9.300 -0.0469  0.0508  0.1464
46034SOL    HW248417   5.880   2.253   9.154  1.8341 -0.6184  0.6006
46035SOL     OW48418   8.241   4.934   3.567 -0.5710 -0.6778 -0.1587
46035SOL    HW148419   8.184   4.878   3.515 -2.2692  1.2773 -0.5497
46035SOL    HW248420   8.215   5.023   3.544  2.1408  0.3221  0.2671
46036SOL     OW48421   3.971  12.960   9.295  0.4092 -0.3052 -0.2524
46036SOL    HW148422   3.927  12.894   9.348  0.8632 -0.9179 -0.6218
46036SOL    HW248423   3.990  12.915   9.212 -3.3152  1.5143 -2.3908
46037SOL     OW48424  12.879  12.575   1.478  0.3142 -0.0383 -0.0492
46037SOL    HW148425  12.850  12.588   1.568  0.5690  0.0538  0.0221
46037SOL    HW248426  12.848  12.652   1.431 -2.3220 -1.3989 -0.6849
46038SOL     OW48427  10.471   5.088   4.029 -0.2082 -0.3470 -0.6865
46038SOL    HW148428  10.524   5.009   4.027  0.6616  0.2216 -0.4508
46038SOL    HW248429  10.524   5.154   3.984 -0.5276  0.3361 -0.0766
46039SOL     OW48430   3.495   8.595   5.152  0.2410 -0.1157 -0.1969
46039SOL    HW148431   3.503   8.505   5.184 -1.5997 -1.1907 -2.3999
46039SOL    HW248432   3.572   8.607   5.096 -0.4153 -1.0768 -1.3741
46040SOL     OW48433   0.188   9.572   8.531  0.5324 -0.0021  0.1403
46040SOL    HW148434   0.184   9.626   8.453  1.3235 -0.4204 -0.1984
46040SOL    HW248435   0.255   9.613   8.586 -0.9238  1.0646  1.2215
46041SOL     OW48436   7.038   9.269   4.680  0.0419  0.0589  0.3653
46041SOL    HW148437   7.082   9.268   4.595  0.7765 -1.4316  0.7229
46041SOL    HW248438   7.103   9.303   4.740  0.5006 -1.4421  0.7659
46042SOL     OW48439   7.380   9.774   4.005 -0.1019 -0.1099 -0.3069
46042SOL    HW148440   7.422   9.700   3.962  1.0534  0.0369  0.5256
46042SOL    HW248441   7.401   9.763   4.098 -0.7494  0.7222 -0.0489
46043SOL     OW48442   5.933   2.965   5.824  0.1216 -0.3552  0.3948
46043SOL    HW148443   5.897   3.054   5.812  0.7429 -0.1237  0.2324
46043SOL    HW248444   6.001   2.957   5.757 -1.7407 -1.9634 -1.4383
46044SOL     OW48445  10.053  11.854  11.777  0.1213  0.0682 -0.8776
46044SOL    HW148446  10.025  11.798  11.705  0.3530 -3.7039  1.6530
46044SOL    HW248447   9.977  11.858  11.835  1.4796 -1.5187  1.1252
46045SOL     OW48448   4.476   9.916   9.586 -0.2444  0.0287 -0.1187
46045SOL    HW148449   4.477  10.005   9.551 -0.4846 -0.0618 -0.3520
46045SOL    HW248450   4.448   9.926   9.677 -0.7643  0.1403 -0.2881
46046SOL     OW48451   4.586   9.740   7.092 -0.0546  0.2121  0.2312
46046SOL    HW148452   4.575   9.771   7.182 -1.0070  1.3668 -0.2628
46046SOL    HW248453   4.544   9.807   7.038 -3.2971 -2.4734 -0.8689
46047SOL     OW48454   1.554  11.564   9.908 -0.7179  0.3501  0.2910
46047SOL    HW148455   1.555  11.510   9.987  2.0813 -1.1711 -0.6696
46047SOL    HW248456   1.467  11.550   9.870 -1.5346 -0.1376  2.2190
46048SOL     OW48457   2.701  11.795   6.527  0.3537 -0.0828 -0.4046
46048SOL    HW148458   2.734  11.833   6.446 -0.7604 -0.1981 -0.9344
46048SOL    HW248459   2.695  11.869   6.588  0.5507  0.1256 -0.6372
46049SOL     OW48460   3.686  11.867  11.917 -0.2733  0.0577 -0.1353
46049SOL    HW148461   3.667  11.840  12.007  0.0086 -2.0106 -0.6457
46049SOL    HW248462   3.604  11.853  11.870 -0.2546  0.5752 -0.3238
46050SOL     OW48463   0.905   1.209  11.003 -0.3233  0.7628  0.7936
46050SOL    HW148464   0.993   1.192  11.038  0.7870  1.6519 -1.3377
46050SOL    HW248465   0.869   1.122  10.987  0.4489  0.3824  1.0348
46051SOL     OW48466  12.657  10.526   5.495 -0.1666  0.0037  0.8038
46051SOL    HW148467  12.699  10.568   5.570 -0.5429  0.9042  0.5280
46051SOL    HW248468  12.642  10.598   5.433  1.1545 -0.8958 -0.6334
46052SOL     OW48469   0.495   8.005   2.707 -0.0042 -0.4150  1.0048
46052SOL    HW148470   0.557   7.956   2.653 -1.9484 -1.1099 -0.7182
46052SOL    HW248471   0.433   8.042   2.645 -1.8612 -0.5179  2.6862
46053SOL     OW48472   0.396   5.383   9.579 -0.1224  0.3558 -0.3292
46053SOL    HW148473   0.409   5.468   9.623 -0.2743  0.4892 -0.5418
46053SOL    HW248474   0.474   5.372   9.525  0.2919 -0.0287  0.3209
46054SOL     OW48475   7.994   3.977   8.113  0.6256  0.4456 -0.0739
46054SOL    HW148476   8.084   4.009   8.120  0.7551  0.2350 -0.7481
46054SOL    HW248477   7.939   4.055   8.121  0.8162  0.4645  1.3655
46055SOL     OW48478   2.398   4.847  11.032  0.0144  0.2778  0.4225
46055SOL    HW148479   2.411   4.926  11.084 -1.3986  2.1130 -1.7925
46055SOL    HW248480   2.309   4.855  10.997  0.2525 -1.7070 -0.8139
46056SOL     OW48481   8.940   1.099   9.433 -0.3944 -0.5868  0.4909
46056SOL    HW148482   8.855   1.142   9.443 -0.8741 -1.7688  1.8566
46056SOL    HW248483   9.003   1.167   9.455 -0.9669  0.3550 -0.6957
46057SOL     OW48484   3.317   7.611   2.696 -0.8127 -0.5706  0.3630
46057SOL    HW148485   3.373   7.568   2.631 -1.1527 -0.7510  0.1914
46057SOL    HW248486   3.237   7.560   2.698 -0.2466 -1.4659  2.0157
46058SOL     OW48487   1.456   1.230   4.449  0.0288 -0.4803  0.4847
46058SOL    HW148488   1.449   1.281   4.368 -0.6805  0.2154  0.9706
46058SOL    HW248489   1.501   1.149   4.423 -0.5592 -0.4490 -0.6792
46059SOL     OW48490   6.959  10.434   2.038  0.2623 -0.9433  0.2639
46059SOL    HW148491   6.889  10.379   2.074 -0.9006  0.1804 -0.2254
46059SOL    HW248492   6.914  10.510   2.002  1.5271 -1.1967 -2.0244
46060SOL     OW48493   7.462  11.092   3.339 -0.2931  0.2388 -0.1028
46060SOL    HW148494   7.547  11.127   3.311  0.8448 -1.4444  1.0003
46060SOL    HW248495   7.448  11.129   3.426 -1.2673  1.3758 -0.7186
46061SOL     OW48496   2.598   3.842   4.189  0.4321  0.2524  0.2863
46061SOL    HW148497   2.540   3.849   4.265  0.8510 -2.1578  0.8959
46061SOL    HW248498   2.685   3.860   4.224  0.5785 -0.4878  0.3136
46062SOL     OW48499   8.473   1.985  10.539  0.0685  0.3566  0.5982
46062SOL    HW148500   8.528   2.011  10.465 -2.2356  0.6548 -1.1019
46062SOL    HW248501   8.472   1.890  10.535  2.3254  0.1742  2.1634
46063SOL     OW48502   8.132   5.426   2.318  0.0827  0.0662 -0.0723
46063SOL    HW148503   8.177   5.507   2.293  1.6279 -1.1374 -1.4043
46063SOL    HW248504   8.043   5.454   2.339  0.8747  2.2641  0.6531
46064SOL     OW48505   8.073   2.590   2.389 -0.0849 -0.1782  0.1743
46064SOL    HW148506   8.122   2.606   2.470  0.4353 -0.3005 -0.1125
46064SOL    HW248507   8.013   2.519   2.411 -1.5508  1.2745  1.1028
46065SOL     OW48508   9.084  12.379   8.643  0.1028 -0.0388 -0.2893
46065SOL    HW148509   9.076  12.344   8.554 -3.0675 -3.1039  0.9787
46065SOL    HW248510   9.008  12.437   8.652  0.4579  0.3288  0.4176
46066SOL     OW48511   1.941  11.300   8.970  0.0476 -0.8703  0.0031
46066SOL    HW148512   1.888  11.223   8.948  0.3791 -0.9048 -0.6819
46066SOL    HW248513   2.031  11.267   8.969  0.2054 -0.4333 -0.4710
46067SOL     OW48514   7.161   8.911   0.792  0.3110  0.1628 -0.0297
46067SOL    HW148515   7.087   8.878   0.843  0.7245  0.7743  0.9816
46067SOL    HW248516   7.233   8.850   0.812  0.3225  0.0746 -0.3319
46068SOL     OW48517  10.191  12.179   2.753  0.4024 -0.7252  0.2470
46068SOL    HW148518  10.128  12.175   2.681  0.5577  0.6525 -0.0079
46068SOL    HW248519  10.255  12.245   2.724 -0.6072  1.3676  2.4356
46069SOL     OW48520  11.279  12.406   5.052 -0.0780 -0.2488  0.0630
46069SOL    HW148521  11.226  12.352   4.993 -1.3448  0.7705  0.2072
46069SOL    HW248522  11.232  12.402   5.135  0.8218 -0.3837  0.5770
46070SOL     OW48523   9.927   9.420   6.740 -0.3646 -0.0213 -0.0878
46070SOL    HW148524   9.985   9.367   6.685  0.8834 -1.4780  2.4456
46070SOL    HW248525   9.901   9.362   6.811 -0.2494  2.2700  1.9614
46071SOL     OW48526   4.955  10.082   3.770 -0.8856  0.1685  0.1980
46071SOL    HW148527   5.023  10.082   3.838  0.5900 -3.3102 -1.0202
46071SOL    HW248528   4.960  10.170   3.731  2.7546  0.2155  0.4116
46072SOL     OW48529   7.916  12.669   4.867  0.0368  0.3868 -0.0587
46072SOL    HW148530   7.995  12.618   4.850  0.4061  0.9959 -0.2074
46072SOL    HW248531   7.898  12.656   4.960  1.0069  1.2059  0.2534
46073SOL     OW48532   6.279   4.426   8.560 -0.3837 -0.2048 -0.2609
46073SOL    HW148533   6.336   4.487   8.607 -1.1674  0.5496 -0.2653
46073SOL    HW248534   6.334   4.392   8.490 -0.3112  1.6132 -1.1670
46074SOL     OW48535   4.537   6.089   0.632 -0.2630 -0.4114 -0.1167
46074SOL    HW148536   4.595   6.054   0.564  0.9451  0.4718  0.4306
46074SOL    HW248537   4.559   6.039   0.711 -0.0485  0.1230  0.1640
46075SOL     OW48538   3.233   6.197   7.897 -0.0742 -0.1625  0.0747
46075SOL    HW148539   3.144   6.166   7.878  0.0902 -0.1892 -0.6931
46075SOL    HW248540   3.275   6.203   7.811  0.8913 -0.8177  0.4802
46076SOL     OW48541   9.884   5.833   7.592 -0.6367  0.0284 -0.2691
46076SOL    HW148542   9.850   5.754   7.634 -1.1539  0.1586 -0.4321
46076SOL    HW248543   9.972   5.843   7.628 -0.3325 -0.9604 -0.6899
46077SOL     OW48544   2.559   5.059   6.426  0.1780  0.4187 -0.2981
46077SOL    HW148545   2.611   5.058   6.346  1.2952  3.5995  0.2454
46077SOL    HW248546   2.468   5.056   6.396  0.5964 -0.2465 -1.5620
46078SOL     OW48547   9.949   1.122   0.292 -0.3438 -0.2580 -0.6931
46078SOL    HW148548  10.044   1.129   0.302 -0.4910  0.6124  0.4074
46078SOL    HW248549   9.922   1.070   0.368 -1.0277  2.2561  0.9264
46079SOL     OW48550   9.655   8.942   3.311 -0.3511 -0.5561 -0.4055
46079SOL    HW148551   9.708   8.864   3.294 -1.5035 -1.4149 -0.1768
46079SOL    HW248552   9.613   8.961   3.227 -1.7046 -1.4622  0.0399
46080SOL     OW48553   3.710  12.099   7.563  0.2214  0.3561 -0.1765
46080SOL    HW148554   3.745  12.017   7.528 -0.5778  0.0606 -0.2859
46080SOL    HW248555   3.622  12.078   7.592 -0.5730  1.5367 -1.6096
46081SOL     OW48556   3.906   5.045   1.348  0.8238 -0.0274 -0.5613
46081SOL    HW148557   3.973   4.979   1.362  2.5064  2.0796  2.2214
46081SOL    HW248558   3.931   5.089   1.267  1.9166 -0.2789 -0.3649
46082SOL     OW48559   4.693  12.000   5.969 -0.4657 -0.3490 -0.3019
46082SOL    HW148560   4.620  12.008   5.907 -0.4223  0.6309 -0.2447
46082SOL    HW248561   4.658  11.946   6.040 -1.0911 -0.0252 -0.3543
46083SOL     OW48562   0.176   7.803   5.869  0.6631 -0.0991 -0.1997
46083SOL    HW148563   0.230   7.869   5.827  1.7440 -0.3221  0.7844
46083SOL    HW248564   0.232   7.766   5.938 -1.3069  1.0057  2.1860
46084SOL     OW48565   9.917  11.027   3.118 -0.6153  0.1550  0.4155
46084SOL    HW148566   9.888  11.005   3.029  0.3950 -3.6665  0.8686
46084SOL    HW248567   9.855  10.981   3.175  0.2353  0.4922  1.6448
46085SOL     OW48568  10.161   7.350   4.192 -0.2609  0.0733  0.4193
46085SOL    HW148569  10.231   7.307   4.143  0.0370 -1.6276  2.1882
46085SOL    HW248570  10.083   7.296   4.175 -0.6688  0.7582  0.0842
46086SOL     OW48571   4.599  10.288  12.947 -0.2330 -0.9397  0.5038
46086SOL    HW148572   4.556  10.297  12.862 -0.5410  0.9750  0.8274
46086SOL    HW248573   4.534  10.244  13.002  0.0589 -2.4076 -0.2894
46087SOL     OW48574   3.777   1.063   3.898  0.7186 -0.0732  0.2284
46087SOL    HW148575   3.841   1.063   3.827  0.8000  1.2687  0.2765
46087SOL    HW248576   3.701   1.017   3.863  0.2891  1.6365 -1.1870
46088SOL     OW48577  10.141   6.940   4.383 -0.5068 -0.0308  0.4291
46088SOL    HW148578  10.186   7.022   4.360 -0.8986 -0.2985 -1.3825
46088SOL    HW248579  10.158   6.930   4.477  1.6351  0.8509  0.1969
46089SOL     OW48580   6.713  11.142   3.306  0.4053 -0.0540  0.1560
46089SOL    HW148581   6.797  11.186   3.317  1.2505 -1.5501 -0.0692
46089SOL    HW248582   6.735  11.052   3.284 -1.2271 -1.1855  2.6198
46090SOL     OW48583   4.639   0.423   6.249 -1.1252 -0.0857 -0.1126
46090SOL    HW148584   4.726   0.441   6.285 -0.4704 -0.9687 -1.2122
46090SOL    HW248585   4.582   0.488   6.292  0.2992  1.4243 -0.3980
46091SOL     OW48586  11.870   1.357   5.584 -0.1365 -0.1571  0.4883
46091SOL    HW148587  11.927   1.376   5.659  0.4873  2.1146 -0.4803
46091SOL    HW248588  11.790   1.320   5.624  1.1928 -1.5649  2.0172
46092SOL     OW48589   7.470   6.449   4.701 -0.0240 -0.1628 -0.1275
46092SOL    HW148590   7.405   6.493   4.647  2.0338 -0.2129 -2.8805
46092SOL    HW248591   7.542   6.511   4.708  0.2225 -0.5834  1.7774
46093SOL     OW48592   4.880  10.882   2.192  0.3624  0.7893 -0.1904
46093SOL    HW148593   4.863  10.790   2.213  0.2806  0.7906 -0.2544
46093SOL    HW248594   4.867  10.888   2.098 -2.4519  1.4829  0.1487
46094SOL     OW48595   7.588  12.585   1.372 -0.2665  0.0874  0.2519
46094SOL    HW148596   7.642  12.507   1.385 -1.4594 -0.7461  0.3285
46094SOL    HW248597   7.515  12.554   1.319 -1.5318  0.8081  1.5217
46095SOL     OW48598   3.917   5.403   4.605 -0.1448 -0.5382 -0.1622
46095SOL    HW148599   3.996   5.442   4.567  0.0680 -1.0829 -0.2857
46095SOL    HW248600   3.907   5.319   4.560 -0.2013 -0.9463  0.5790
46096SOL     OW48601   3.442   2.707   4.319  0.2493 -0.6420  0.0686
46096SOL    HW148602   3.464   2.685   4.410 -0.2535  1.7905  0.8567
46096SOL    HW248603   3.347   2.698   4.315  0.0727  0.8654  0.3100
46097SOL     OW48604   9.763   9.541   4.060 -0.2650 -0.2953  0.3428
46097SOL    HW148605   9.780   9.570   4.150  1.4773 -0.5980  0.1553
46097SOL    HW248606   9.679   9.580   4.037  0.6987  2.4162  1.0304
46098SOL     OW48607   5.964  11.400   1.669  0.0088  0.0531  0.8343
46098SOL    HW148608   5.884  11.452   1.667 -1.3719 -1.9547  0.1109
46098SOL    HW248609   6.033  11.459   1.639 -1.4190  1.5039  0.3208
46099SOL     OW48610  11.165   7.739  11.975  0.0201 -0.9679 -0.0515
46099SOL    HW148611  11.226   7.692  12.032 -0.5893 -0.5657  0.9601
46099SOL    HW248612  11.123   7.803  12.033 -1.8229 -1.6740 -0.5525
46100SOL     OW48613   7.395  12.941   6.293 -0.5314 -0.1868 -0.4169
46100SOL    HW148614   7.389  12.846   6.303  0.1634 -0.2284 -0.3525
46100SOL    HW248615   7.405  12.954   6.199 -0.3435 -0.2004 -0.4006
46101SOL     OW48616   0.378  11.089   1.746 -1.0075  0.8230  0.0704
46101SOL    HW148617   0.431  11.059   1.820 -0.3991  2.1633  0.2081
46101SOL    HW248618   0.396  11.183   1.741 -2.0570  0.9800 -0.9680
46102SOL     OW48619  12.129   7.711   5.270 -0.1826 -0.1910 -0.5441
46102SOL    HW148620  12.041   7.698   5.307 -0.3750  0.4702 -0.7680
46102SOL    HW248621  12.180   7.638   5.306 -0.0249  1.1103  2.1176
46103SOL     OW48622   2.133   1.288   2.682  0.1289 -0.0755 -0.1111
46103SOL    HW148623   2.043   1.262   2.664  0.4015 -2.5056  1.5575
46103SOL    HW248624   2.180   1.266   2.601 -0.3041 -1.6325  0.0169
46104SOL     OW48625   0.513   5.221   1.233  0.1577 -0.8420  0.6098
46104SOL    HW148626   0.463   5.292   1.192  3.0409 -0.0269 -1.7913
46104SOL    HW248627   0.574   5.266   1.292 -0.3778 -1.6742  1.8593
46105SOL     OW48628   2.301   8.248   2.136 -0.0404  0.2376 -0.1272
46105SOL    HW148629   2.318   8.155   2.121 -4.2127 -0.9115  0.8786
46105SOL    HW248630   2.243   8.274   2.064 -3.5954  0.2867  2.5012
46106SOL     OW48631   4.455   1.939   7.624 -0.4101  0.2975 -0.2148
46106SOL    HW148632   4.405   1.950   7.543  0.0441  0.7990 -0.4363
46106SOL    HW248633   4.479   2.028   7.650  0.8623  0.0464 -0.4483
46107SOL     OW48634   2.556   9.539   8.691 -0.3419 -0.1902  0.2746
46107SOL    HW148635   2.516   9.611   8.740  0.7600  1.2252 -0.8258
46107SOL    HW248636   2.487   9.472   8.685 -2.1258  1.6220 -0.4874
46108SOL     OW48637   3.131   7.505  12.426 -0.0250 -0.0454  0.0530
46108SOL    HW148638   3.166   7.420  12.452 -2.1080 -0.9960 -0.0581
46108SOL    HW248639   3.201   7.545  12.374  1.0296 -1.6456  0.1640
46109SOL     OW48640   4.001   8.860   9.487  0.1836  0.4197 -0.0652
46109SOL    HW148641   3.964   8.920   9.422  1.5752 -0.0379 -1.3292
46109SOL    HW248642   4.017   8.916   9.564  0.5227  1.4614 -0.8652
46110SOL     OW48643   4.647  10.168   7.475  0.5661 -0.0656 -0.1779
46110SOL    HW148644   4.703  10.145   7.549  0.7468  2.9941  0.7724
46110SOL    HW248645   4.558  10.153   7.507  0.6795  0.4328  0.4112
46111SOL     OW48646   6.754  11.516   4.597  0.2622 -0.0727 -0.0518
46111SOL    HW148647   6.844  11.548   4.598  0.6110 -1.0270 -0.2993
46111SOL    HW248648   6.702  11.593   4.572  0.9696  0.5487  0.3416
46112SOL     OW48649   1.279   0.268   4.158  0.2858 -0.1830  0.9475
46112SOL    HW148650   1.288   0.278   4.064 -0.1319 -2.7233  0.5672
46112SOL    HW248651   1.222   0.340   4.185  0.8645  0.9025 -0.6287
46113SOL     OW48652   2.674   3.203   2.324  0.3061  0.4348  0.1527
46113SOL    HW148653   2.670   3.259   2.402  0.7410 -0.3684  0.7708
46113SOL    HW248654   2.752   3.150   2.337 -1.6753 -2.5128  1.1333
46114SOL     OW48655   2.209   6.526   4.566 -0.5858  0.2428  0.6364
46114SOL    HW148656   2.120   6.547   4.538  0.2884  1.6579 -1.2460
46114SOL    HW248657   2.239   6.461   4.503 -0.0577  0.2617  0.8634
46115SOL     OW48658  12.192   6.676   5.913  0.0363  0.8873 -0.4167
46115SOL    HW148659  12.245   6.676   5.833 -0.6268  1.8944 -0.8819
46115SOL    HW248660  12.194   6.767   5.944 -0.5429  0.7213  0.1365
46116SOL     OW48661   4.792  11.130   3.750  0.0899  0.2031  0.3844
46116SOL    HW148662   4.814  11.119   3.657  0.6774 -0.3349  0.5737
46116SOL    HW248663   4.726  11.063   3.767  0.7443 -0.4176  0.5856
46117SOL     OW48664  12.521   8.136   8.410 -0.3964 -0.6386  0.1449
46117SOL    HW148665  12.486   8.164   8.495 -2.2526 -1.2261 -0.3779
46117SOL    HW248666  12.589   8.200   8.390 -1.1144  0.5336  1.2786
46118SOL     OW48667  10.622   5.286   7.904 -0.1853  0.3976 -0.0798
46118SOL    HW148668  10.586   5.330   7.981  1.8069  0.7244  0.7315
46118SOL    HW248669  10.545   5.265   7.851 -1.4329  2.5619  0.7010
46119SOL     OW48670   5.765  11.510   6.071  0.3875  0.0086 -0.1566
46119SOL    HW148671   5.833  11.538   6.133 -0.3413 -1.6856  1.5213
46119SOL    HW248672   5.806  11.440   6.021  1.2907  1.9960 -2.3896
46120SOL     OW48673   8.939  11.702   0.956  0.2722 -0.0486  0.1206
46120SOL    HW148674   8.847  11.677   0.946  0.1647  0.2158  0.4229
46120SOL    HW248675   8.981  11.625   0.995 -0.1975  0.4533  1.7176
46121SOL     OW48676  10.895  12.978  10.777 -0.3384 -0.2993  0.4764
46121SOL    HW148677  10.849  12.993  10.694  0.3796  0.4564  0.2010
46121SOL    HW248678  10.839  12.917  10.824 -0.5199 -1.1267 -0.7576
46122SOL     OW48679   1.223   5.588   8.532 -0.1833 -0.3058  0.3867
46122SOL    HW148680   1.255   5.665   8.484  0.5028 -1.0287 -0.3506
46122SOL    HW248681   1.156   5.550   8.476  0.8413 -1.3333 -0.1960
46123SOL     OW48682   3.747   2.129  12.429 -0.1973  0.0911 -0.1109
46123SOL    HW148683   3.743   2.208  12.483 -1.5656  0.0515 -0.1017
46123SOL    HW248684   3.782   2.159  12.346  0.7546  0.3988  0.3907
46124SOL     OW48685   3.090  11.523  12.956 -0.4774  0.5471 -0.1885
46124SOL    HW148686   3.149  11.499  12.885 -0.4162  2.0141 -0.6707
46124SOL    HW248687   3.007  11.480  12.935  0.7433 -2.8428  1.3082
46125SOL     OW48688  11.608  11.636   7.625  0.1822 -0.0170 -0.3127
46125SOL    HW148689  11.605  11.714   7.570  1.7947  0.4230  0.1722
46125SOL    HW248690  11.555  11.658   7.701  0.2437  0.4300 -0.3956
46126SOL     OW48691   6.613   0.313   1.660 -0.0006 -0.3935 -0.5166
46126SOL    HW148692   6.671   0.387   1.641  1.3782 -1.4110 -0.3776
46126SOL    HW248693   6.616   0.259   1.581 -1.2997 -0.1405 -0.7623
46127SOL     OW48694   3.090  11.518   8.804 -0.4427  0.8498 -0.1347
46127SOL    HW148695   3.097  11.460   8.728 -0.0597  0.5558  0.1178
46127SOL    HW248696   3.040  11.593   8.773  0.0183  0.8971 -0.7763
46128SOL     OW48697  11.005  10.952  12.244 -0.0196 -0.5252 -0.2790
46128SOL    HW148698  10.936  10.936  12.308  0.8248 -0.9106  0.5569
46128SOL    HW248699  10.967  10.923  12.161 -1.5639  1.0858 -0.2025
46129SOL     OW48700  12.543   5.047  11.321  0.7513  0.1954 -0.1312
46129SOL    HW148701  12.605   5.021  11.389 -0.2020  2.2823  1.6548
46129SOL    HW248702  12.473   4.983  11.326  1.1369 -0.2040  0.2294
46130SOL     OW48703   3.028   8.311   3.078 -0.1384  0.2119 -0.1477
46130SOL    HW148704   3.052   8.266   2.997  0.1189 -1.2877  0.7377
46130SOL    HW248705   3.111   8.336   3.117 -0.2845  1.8566 -0.8122
46131SOL     OW48706   3.853  12.400   3.897 -0.0865  0.2751 -0.4110
46131SOL    HW148707   3.887  12.312   3.910 -1.5094 -0.4553 -1.3951
46131SOL    HW248708   3.930  12.452   3.871  1.4647  0.2240  3.4992
46132SOL     OW48709   2.693  10.767   0.748 -0.0105 -0.1525 -0.4927
46132SOL    HW148710   2.660  10.856   0.736  0.6932  0.3769  1.1387
46132SOL    HW248711   2.696  10.730   0.660 -1.9083  0.8369 -1.0317
46133SOL     OW48712  12.124  10.268   9.459  0.0473  0.0117  0.1216
46133SOL    HW148713  12.188  10.290   9.527  0.1934  3.7258 -0.9735
46133SOL    HW248714  12.173  10.216   9.396  1.3306  0.6978  0.5089
46134SOL     OW48715   6.305   5.624   5.437  0.3006  0.0288 -0.1508
46134SOL    HW148716   6.214   5.595   5.432  0.3457  0.0616 -1.4935
46134SOL    HW248717   6.350   5.551   5.481  0.4463 -2.2282 -3.6419
46135SOL     OW48718   1.944   4.374  11.056  0.0033  0.3198 -0.2182
46135SOL    HW148719   1.899   4.319  10.992 -0.1379 -1.1391  1.0742
46135SOL    HW248720   1.949   4.320  11.134  1.1993  1.6304  0.6554
46136SOL     OW48721   2.781   7.405   5.583  0.0294  0.6729 -0.3492
46136SOL    HW148722   2.688   7.386   5.573 -0.1619  1.4089 -0.0382
46136SOL    HW248723   2.799   7.470   5.514  0.0776  1.2877  0.2363
46137SOL     OW48724   8.877  10.032   3.418  0.5529  0.0892  0.2369
46137SOL    HW148725   8.913   9.983   3.344  0.4699  0.9831 -0.4060
46137SOL    HW248726   8.911  10.121   3.407  0.1763  0.3431  1.0283
46138SOL     OW48727   8.645   2.296   9.733  0.8601  0.1765  0.4827
46138SOL    HW148728   8.617   2.242   9.659 -0.9707  1.0148  0.5005
46138SOL    HW248729   8.698   2.365   9.693  2.1279 -0.8528  0.3146
46139SOL     OW48730   6.801   1.635   4.129 -0.1819  0.5465 -0.3590
46139SOL    HW148731   6.804   1.703   4.061 -0.6361 -0.0166 -0.9596
46139SOL    HW248732   6.797   1.683   4.211  0.8793  1.2494 -0.7023
46140SOL     OW48733  12.054   8.363   6.176 -0.1405 -0.1644  0.2245
46140SOL    HW148734  12.022   8.450   6.157  1.4591  0.5564  0.6410
46140SOL    HW248735  12.012   8.340   6.259 -4.1689 -1.7818 -1.9760
46141SOL     OW48736  10.971   7.817   2.890  0.2665  0.0751  0.2249
46141SOL    HW148737  10.896   7.769   2.924  1.3540 -1.8465  0.0750
46141SOL    HW248738  11.044   7.755   2.897  1.9302  1.9560  0.6677
46142SOL     OW48739   4.088   0.672   6.863  0.2468 -0.4168 -0.6520
46142SOL    HW148740   4.022   0.698   6.927 -1.6505 -1.0375 -2.2530
46142SOL    HW248741   4.068   0.723   6.785  2.3747  0.1780 -0.8775
46143SOL     OW48742   7.128   2.695   8.942  0.5921  0.5607  0.0275
46143SOL    HW148743   7.125   2.784   8.977 -0.2899 -0.1156  1.7342
46143SOL    HW248744   7.065   2.646   8.993  1.4223 -1.1899 -0.5402
46144SOL     OW48745   3.027   3.955   3.269  0.0252  0.0966  0.1363
46144SOL    HW148746   3.088   4.021   3.237 -0.3929  0.6831  0.5297
46144SOL    HW248747   3.055   3.873   3.227  0.7367  0.4633 -0.1075
46145SOL     OW48748   4.926   5.241   5.462 -0.3676  0.1017  0.0829
46145SOL    HW148749   4.981   5.262   5.387 -1.5257  4.1159  0.1184
46145SOL    HW248750   4.960   5.296   5.533 -0.8540 -1.7264  1.8260
46146SOL     OW48751   5.279   8.734   6.562  0.4927  0.0911 -0.0673
46146SOL    HW148752   5.278   8.639   6.572 -0.3987 -0.0306 -1.1226
46146SOL    HW248753   5.372   8.757   6.556  0.7497 -0.5966  1.1193
46147SOL     OW48754  12.034   0.124   0.583 -0.1220  0.2801 -0.1080
46147SOL    HW148755  12.092   0.065   0.534 -0.5176  1.2651 -1.8772
46147SOL    HW248756  12.093   0.186   0.624  0.2656 -0.9822  1.3448
46148SOL     OW48757  10.010   3.943   7.110  0.3586 -0.2452  0.3935
46148SOL    HW148758  10.006   4.023   7.057  0.7630 -1.1902 -1.1298
46148SOL    HW248759  10.019   3.975   7.200  1.6609  1.4377 -0.2641
46149SOL     OW48760   5.840  10.120   5.061  0.1948  0.4016  0.3708
46149SOL    HW148761   5.933  10.101   5.071 -0.0903 -1.0982  0.4004
46149SOL    HW248762   5.809  10.056   4.997 -0.7866  0.9993  0.2231
46150SOL     OW48763   0.229   8.016   4.323  0.1131 -0.9528 -0.5886
46150SOL    HW148764   0.205   8.036   4.414 -0.1768 -0.8806 -0.6800
46150SOL    HW248765   0.314   8.058   4.311 -1.3607  2.1356 -1.4113
46151SOL     OW48766   6.528  10.820   4.901 -0.6831  0.1282  0.6776
46151SOL    HW148767   6.621  10.798   4.893 -0.3667  1.6569 -0.2559
46151SOL    HW248768   6.487  10.781   4.824 -0.3101  1.7860 -0.3958
46152SOL     OW48769  11.277  10.199   1.942 -0.5177 -0.3120  0.3075
46152SOL    HW148770  11.270  10.117   1.990  0.3146 -0.2303  0.5712
46152SOL    HW248771  11.308  10.174   1.855  0.9272 -0.1776  0.7604
46153SOL     OW48772   1.138   8.368  11.547  0.5311 -0.4789  0.3470
46153SOL    HW148773   1.115   8.456  11.576  1.3002 -0.0212 -0.4064
46153SOL    HW248774   1.101   8.361  11.459  0.2946 -0.9922  0.4817
46154SOL     OW48775   7.308  12.665   8.747  0.6826 -0.1892 -0.0710
46154SOL    HW148776   7.224  12.621   8.734  0.3506  0.1091  0.9777
46154SOL    HW248777   7.356  12.650   8.665 -0.5228 -0.0564 -0.8231
46155SOL     OW48778   9.708  11.504   3.948  0.2126 -0.0406  0.1237
46155SOL    HW148779   9.793  11.524   3.986  0.2998 -0.5305  0.1989
46155SOL    HW248780   9.666  11.447   4.013 -0.4444  0.7326  0.3955
46156SOL     OW48781   0.945   9.938   2.411  0.1406 -0.1168 -0.2159
46156SOL    HW148782   0.922   9.862   2.464  1.4962 -0.3841  0.0237
46156SOL    HW248783   1.000   9.903   2.341  0.1656  0.5436 -0.5410
46157SOL     OW48784  12.197   1.398   9.208 -0.0631  0.4061  0.5399
46157SOL    HW148785  12.109   1.417   9.242 -0.3452 -0.1471  0.1432
46157SOL    HW248786  12.196   1.304   9.191  0.5286  0.4381  0.3010
46158SOL     OW48787  11.330   1.624   9.603 -0.1827 -0.4213  0.0446
46158SOL    HW148788  11.416   1.648   9.638 -0.9808 -1.2253  2.8406
46158SOL    HW248789  11.343   1.537   9.566 -0.0913 -1.4198  2.2216
46159SOL     OW48790  10.580  12.374   8.623  0.1235  0.0163  0.2882
46159SOL    HW148791  10.503  12.330   8.587 -0.3435  0.0408  1.2432
46159SOL    HW248792  10.564  12.467   8.607  0.0863  0.0020  0.2401
46160SOL     OW48793   9.203   4.933   6.791 -0.0897  0.1561  0.1991
46160SOL    HW148794   9.110   4.937   6.814 -0.2356  0.5286 -0.4356
46160SOL    HW248795   9.247   4.973   6.866 -0.3818 -0.6167  0.7984
46161SOL     OW48796   7.382  10.068   8.439  0.6725  0.0977 -0.2244
46161SOL    HW148797   7.395  10.162   8.448 -2.4177  0.4817  1.3937
46161SOL    HW248798   7.380  10.054   8.344 -0.2971  1.9482 -0.5336
46162SOL     OW48799  12.664   8.620   9.044  0.1360  0.2626 -0.7724
46162SOL    HW148800  12.656   8.700   9.096  0.4341  0.0271 -0.3636
46162SOL    HW248801  12.754   8.590   9.059 -0.6085 -1.3353  0.8018
46163SOL     OW48802   0.408  11.071   8.370 -0.2217  0.3785  0.2631
46163SOL    HW148803   0.467  11.147   8.368 -1.3489  1.4648  3.0208
46163SOL    HW248804   0.328  11.104   8.411 -2.5403 -1.2439 -2.6445
46164SOL     OW48805  12.599   0.024   8.703  0.4632  0.5865 -0.2502
46164SOL    HW148806  12.690   0.011   8.730 -0.1480 -0.3465  1.4449
46164SOL    HW248807  12.565   0.091   8.763 -0.3547 -0.0611  0.0206
46165SOL     OW48808   1.846   0.458  11.710  0.1276  0.4276 -0.3479
46165SOL    HW148809   1.869   0.527  11.648 -1.2817  2.0395  0.8475
46165SOL    HW248810   1.757   0.433  11.687  1.3147 -2.7990 -2.2632
46166SOL     OW48811  11.187   1.486   3.090 -0.4962 -0.0165  0.0728
46166SOL    HW148812  11.240   1.548   3.040 -0.2541  1.1315  1.6485
46166SOL    HW248813  11.121   1.541   3.133 -3.0734 -1.4055 -1.8786
46167SOL     OW48814   7.639   1.184   2.113  0.5080 -0.3351  0.3922
46167SOL    HW148815   7.601   1.233   2.186  1.2570  2.0665 -0.7251
46167SOL    HW248816   7.563   1.152   2.064 -0.0202  0.0697  0.9213
46168SOL     OW48817   1.382   3.244   4.180 -0.0476  0.0617  0.2296
46168SOL    HW148818   1.301   3.273   4.139  0.3668  0.7719 -0.1012
46168SOL    HW248819   1.432   3.203   4.109  0.0495 -0.0224  0.3458
46169SOL     OW48820  10.155   3.502   4.642 -0.5618  0.6922  0.3919
46169SOL    HW148821  10.117   3.482   4.728 -0.5245 -3.0564 -0.2946
46169SOL    HW248822  10.235   3.551   4.663  0.2072 -1.3110  2.6933
46170SOL     OW48823  12.523   0.554   8.658 -0.0915  0.5018 -0.1955
46170SOL    HW148824  12.582   0.574   8.730 -0.2577  1.0341 -0.1949
46170SOL    HW248825  12.580   0.536   8.584  0.1048 -1.2819  0.3568
46171SOL     OW48826   3.990   8.708   9.225 -0.1936  0.3020  0.4669
46171SOL    HW148827   3.987   8.694   9.319 -4.3532 -0.3556  0.4232
46171SOL    HW248828   3.932   8.782   9.209  1.2820  1.1362 -1.5482
46172SOL     OW48829   7.002   1.530  11.622  0.2211  0.1850 -0.0842
46172SOL    HW148830   6.913   1.494  11.626 -0.0091  0.5934 -1.1231
46172SOL    HW248831   7.022   1.554  11.712 -1.2194  1.2433 -0.0063
46173SOL     OW48832   1.863   3.057   4.402 -0.4858 -0.5023 -0.0285
46173SOL    HW148833   1.780   3.105   4.409 -0.3551 -0.1578 -0.7297
46173SOL    HW248834   1.871   3.011   4.485 -0.0497  1.5751  1.1544
46174SOL     OW48835   6.649   1.759   9.776 -0.2248  0.4411  0.3880
46174SOL    HW148836   6.736   1.759   9.816 -0.1684 -1.0673  0.3466
46174SOL    HW248837   6.591   1.724   9.844 -0.3185 -1.0801 -0.4253
46175SOL     OW48838   5.705   8.884   7.472  0.1223  0.1100 -0.2763
46175SOL    HW148839   5.787   8.882   7.424  0.2115  1.2147 -0.1864
46175SOL    HW248840   5.727   8.921   7.557 -0.4149  0.1270 -0.1372
46176SOL     OW48841  10.410   8.497   6.290 -0.3016 -0.1531  0.2109
46176SOL    HW148842  10.445   8.503   6.379 -0.2647  0.4157  0.1655
46176SOL    HW248843  10.467   8.554   6.238 -1.4395  1.0237  0.1953
46177SOL     OW48844   8.552   8.812   2.832 -0.2004  0.0931  0.1775
46177SOL    HW148845   8.552   8.796   2.738  0.5986 -2.4510  0.5467
46177SOL    HW248846   8.643   8.830   2.854 -0.4726  1.3038  0.4195
46178SOL     OW48847   2.273   7.149  12.301 -0.2030 -0.1410 -0.1707
46178SOL    HW148848   2.267   7.224  12.361  0.4317 -1.0616  1.0795
46178SOL    HW248849   2.210   7.086  12.334 -0.3572 -0.3887 -0.9109
46179SOL     OW48850   7.471   7.155   5.031  0.2531 -0.3692  0.4941
46179SOL    HW148851   7.545   7.109   4.993  1.3195  2.6365 -1.3981
46179SOL    HW248852   7.492   7.248   5.019 -2.6228  0.6357  2.3011
46180SOL     OW48853  10.316   0.551   1.184  0.5798  0.8285  0.1430
46180SOL    HW148854  10.365   0.628   1.212  0.4393  1.3070 -0.8852
46180SOL    HW248855  10.301   0.565   1.090 -2.3658  1.1758  0.5748
46181SOL     OW48856  12.411  11.308   3.391 -0.1848  0.0038  0.1777
46181SOL    HW148857  12.374  11.243   3.331 -0.0141  0.8068 -0.8270
46181SOL    HW248858  12.470  11.259   3.448  0.7314 -0.5679 -1.2282
46182SOL     OW48859   4.562   8.921   6.383  0.7290  0.1903  0.1471
46182SOL    HW148860   4.638   8.977   6.364  0.0507  0.8003 -0.8498
46182SOL    HW248861   4.516   8.966   6.454  0.1703  0.9368 -0.6694
46183SOL     OW48862   8.447   5.502   2.043  0.4306  0.1629 -0.2473
46183SOL    HW148863   8.413   5.413   2.057  0.5792  0.2084  0.4607
46183SOL    HW248864   8.516   5.511   2.109 -0.1345  1.0946  0.2289
46184SOL     OW48865   2.545   9.492  10.718 -0.0806 -0.3471 -0.1144
46184SOL    HW148866   2.577   9.479  10.629  1.2425  0.0973  0.2810
46184SOL    HW248867   2.449   9.487  10.709 -0.0326  0.7004 -1.7235
46185SOL     OW48868   4.049  11.524   8.282  0.0754  0.5155 -0.2851
46185SOL    HW148869   4.101  11.446   8.263 -2.2235 -0.6844 -2.2473
46185SOL    HW248870   3.984  11.495   8.346  1.8906  2.1161  2.5119
46186SOL     OW48871  10.099   3.513   2.007  0.1474 -0.1723  0.2468
46186SOL    HW148872  10.166   3.487   1.943 -0.4149 -0.0108 -0.4160
46186SOL    HW248873  10.140   3.585   2.055  1.1972 -1.3476  1.1851
46187SOL     OW48874   7.395  11.776   7.311  0.1722  0.0611  0.7702
46187SOL    HW148875   7.367  11.867   7.321  2.7045  1.1279 -0.8539
46187SOL    HW248876   7.324  11.734   7.264 -0.0082  1.8824 -0.7041
46188SOL     OW48877   0.217  11.109   5.229  0.4063 -0.2689 -0.4048
46188SOL    HW148878   0.156  11.041   5.256  1.2492 -0.3635  1.3849
46188SOL    HW248879   0.183  11.189   5.269  0.0398  0.1957 -1.5793
46189SOL     OW48880   7.547   0.372  12.868 -0.5539  0.3270 -0.3920
46189SOL    HW148881   7.485   0.430  12.824 -1.3108 -1.8117 -2.3843
46189SOL    HW248882   7.624   0.426  12.882 -1.8761  2.3146 -0.3665
46190SOL     OW48883   9.165   0.161   0.484  0.5050  0.1425  0.2661
46190SOL    HW148884   9.196   0.251   0.474  1.0725 -0.1301 -0.5550
46190SOL    HW248885   9.103   0.149   0.412 -1.2895  0.5560  1.6573
46191SOL     OW48886   0.298  12.500   7.108  0.5562 -0.3732 -0.1131
46191SOL    HW148887   0.268  12.583   7.146  1.7220  0.5543 -1.1409
46191SOL    HW248888   0.244  12.488   7.030  0.4814 -0.5169 -0.0403
46192SOL     OW48889  12.142   2.572   4.526 -0.1769 -0.0958  0.0475
46192SOL    HW148890  12.121   2.581   4.434  0.6385 -0.1124 -0.1535
46192SOL    HW248891  12.058   2.579   4.572 -0.8288 -1.8272 -0.8018
46193SOL     OW48892  10.461   0.422   5.738  0.1352 -0.4782  0.0712
46193SOL    HW148893  10.406   0.498   5.718  1.1544  0.1363 -0.4981
46193SOL    HW248894  10.520   0.453   5.806  1.7987 -0.1325 -1.4629
46194SOL     OW48895   7.619   0.584   5.681  0.1613 -0.2277  0.2009
46194SOL    HW148896   7.645   0.504   5.636  1.2496  0.7802 -1.0774
46194SOL    HW248897   7.528   0.570   5.706  0.3155 -1.8171 -0.0488
46195SOL     OW48898   9.717   8.651   5.164  0.4526  0.1165  0.4182
46195SOL    HW148899   9.786   8.591   5.192 -0.7833 -0.4745  2.4267
46195SOL    HW248900   9.696   8.624   5.075  1.8784 -0.5281  0.2439
46196SOL     OW48901   7.875   3.187   4.383  0.2919 -0.0915 -0.6575
46196SOL    HW148902   7.839   3.194   4.295 -0.1276 -1.8581 -0.6635
46196SOL    HW248903   7.965   3.158   4.370  0.8899  1.6040 -0.5421
46197SOL     OW48904  12.161  11.333   1.129  0.5892 -0.0498  0.3957
46197SOL    HW148905  12.105  11.313   1.204  1.1083  2.0094  1.3862
46197SOL    HW248906  12.130  11.417   1.097  1.1598 -0.3302 -0.9942
46198SOL     OW48907   6.452   0.600   8.559  0.3921  0.3126 -0.2810
46198SOL    HW148908   6.408   0.678   8.592 -1.1302 -0.4697 -0.3665
46198SOL    HW248909   6.477   0.552   8.637 -1.0846 -0.3834 -0.1962
46199SOL     OW48910   3.266   7.158   4.714 -0.1611  0.0527  0.1197
46199SOL    HW148911   3.294   7.079   4.668 -0.2981 -0.2511  0.5463
46199SOL    HW248912   3.298   7.231   4.660 -1.4237 -0.2746 -1.1261
46200SOL     OW48913  10.861  10.072   6.855  0.0913  0.6128 -0.7909
46200SOL    HW148914  10.945  10.026   6.855  0.1629  0.6630  1.1537
46200SOL    HW248915  10.799  10.008   6.819  0.2958 -0.8931  1.3404
46201SOL     OW48916   7.066   9.081   7.789 -0.3680  0.2094  0.6878
46201SOL    HW148917   7.041   8.992   7.762  1.4231 -0.0805 -0.0945
46201SOL    HW248918   7.010   9.098   7.865 -4.1699  0.3055 -1.8592
46202SOL     OW48919   1.479   7.590   0.663 -0.1841  0.3274 -0.4177
46202SOL    HW148920   1.473   7.515   0.722  1.4540 -0.1618 -0.8299
46202SOL    HW248921   1.420   7.569   0.591  2.8492 -2.3958 -2.3884
46203SOL     OW48922   5.594  10.174  11.700 -0.1810  1.2410 -0.1633
46203SOL    HW148923   5.631  10.188  11.613 -0.2926 -0.7322 -0.5650
46203SOL    HW248924   5.657  10.117  11.744 -2.4654 -2.0276 -0.7876
46204SOL     OW48925   2.376   3.362   0.464  0.0074  0.1863 -0.0973
46204SOL    HW148926   2.448   3.383   0.406 -0.4494  0.7054 -0.4859
46204SOL    HW248927   2.297   3.386   0.415 -0.4031  0.2441  0.5699
46205SOL     OW48928   1.264   2.527  10.524 -0.1011  0.3319 -0.2436
46205SOL    HW148929   1.270   2.447  10.577  0.7862  0.9199  0.6030
46205SOL    HW248930   1.346   2.528  10.474  1.0754  1.8813  1.5601
46206SOL     OW48931   8.229   7.037   9.970 -0.4113  0.1353  0.5972
46206SOL    HW148932   8.232   7.031  10.066  1.1161  0.3135  0.5781
46206SOL    HW248933   8.246   7.129   9.951  1.3211 -0.2443  0.1216
46207SOL     OW48934  11.904   5.280   1.652 -0.1808  0.5565  0.2668
46207SOL    HW148935  11.923   5.262   1.744 -1.0818  2.2218  0.8316
46207SOL    HW248936  11.922   5.374   1.642 -1.5859  0.7531 -0.8215
46208SOL     OW48937  11.529   1.323   6.779 -0.4559 -0.4651  0.2154
46208SOL    HW148938  11.577   1.286   6.706 -1.7886  1.4900 -1.7785
46208SOL    HW248939  11.554   1.416   6.781 -0.3925 -0.4682  2.3345
46209SOL     OW48940  12.922   6.594   1.373 -0.3333  0.7713 -0.3966
46209SOL    HW148941  12.920   6.682   1.412  0.3687  0.3368  0.6416
46209SOL    HW248942  13.009   6.560   1.394 -0.3549  0.0723 -1.3650
46210SOL     OW48943   8.910   5.982   6.877  0.4361 -0.1645  0.4004
46210SOL    HW148944   8.895   5.893   6.846 -5.1563  0.1961  0.9503
46210SOL    HW248945   8.897   6.037   6.799  0.0241  0.2522  0.7531
46211SOL     OW48946   2.920   9.070  11.802  0.5629 -0.3878  0.0103
46211SOL    HW148947   2.997   9.034  11.758  1.3797  0.7106  0.4892
46211SOL    HW248948   2.921   9.163  11.778 -0.3960 -0.2806  0.3482
46212SOL     OW48949   6.322   0.076   0.178  0.0394  0.5915 -0.1607
46212SOL    HW148950   6.271   0.155   0.162 -1.8296 -0.7021 -0.9603
46212SOL    HW248951   6.372   0.063   0.097 -0.6795  0.2386 -0.5531
46213SOL     OW48952  12.971   4.639  12.757  0.4372  0.2409 -0.4239
46213SOL    HW148953  12.956   4.588  12.836 -0.1309  0.3213 -0.4799
46213SOL    HW248954  12.894   4.624  12.703 -0.5633  2.4699  0.2579
46214SOL     OW48955   7.941   9.558   8.931  0.0482  0.5077 -0.0364
46214SOL    HW148956   7.905   9.489   8.876 -1.7495 -0.7029  2.4715
46214SOL    HW248957   8.021   9.520   8.968  1.2318  1.3057 -1.6320
46215SOL     OW48958   3.005  11.757   9.078  0.6572  0.2598 -0.6362
46215SOL    HW148959   2.955  11.771   9.159 -0.8014 -1.4915 -1.1432
46215SOL    HW248960   3.041  11.668   9.088  1.4987  0.5023 -1.3997
46216SOL     OW48961   5.841   6.490   6.884 -0.0237 -0.0309 -0.0529
46216SOL    HW148962   5.841   6.506   6.790 -0.9355  0.6615  0.0541
46216SOL    HW248963   5.831   6.576   6.923 -0.2593 -0.3754  0.6615
46217SOL     OW48964   5.618   8.983   2.443 -0.6689  0.4109  0.4990
46217SOL    HW148965   5.626   8.903   2.494 -1.8501  0.3248  0.5673
46217SOL    HW248966   5.572   8.957   2.363  0.0683  0.7829 -0.0584
46218SOL     OW48967   4.390   2.114  11.614 -0.4420  0.4940  0.2798
46218SOL    HW148968   4.469   2.119  11.668 -1.6927  1.0170  2.1606
46218SOL    HW248969   4.386   2.199  11.569 -1.9245  2.1751  3.2613
46219SOL     OW48970   8.186  12.068   5.558  0.0085  0.0677 -0.4983
46219SOL    HW148971   8.125  12.026   5.618 -0.8314  0.7734 -0.8317
46219SOL    HW248972   8.262  12.010   5.555 -1.1092 -1.4032 -0.9584
46220SOL     OW48973   8.928   9.284   8.712  0.1656 -0.3261  0.7205
46220SOL    HW148974   8.930   9.190   8.726 -0.0809 -0.0822  2.6771
46220SOL    HW248975   8.854   9.315   8.765 -1.5442  0.6828 -2.0177
46221SOL     OW48976  11.154  11.278  12.611 -0.4460 -0.3632 -0.5729
46221SOL    HW148977  11.136  11.350  12.551  2.3612  0.6272 -0.3426
46221SOL    HW248978  11.234  11.238  12.578  0.4553 -0.6127  1.7340
46222SOL     OW48979   1.972  11.056   3.864  0.4532  0.0862  0.5386
46222SOL    HW148980   1.895  11.038   3.919  0.7279 -0.3039  0.8024
46222SOL    HW248981   1.957  11.002   3.786  0.5118 -0.0782  0.6397
46223SOL     OW48982   3.945  12.117   8.122 -0.5326  0.0711  0.5344
46223SOL    HW148983   3.920  12.042   8.068  1.7490 -1.9811  2.1149
46223SOL    HW248984   3.877  12.122   8.189 -0.6607 -0.6686  0.4731
46224SOL     OW48985   6.225   7.707   4.777  0.2491 -0.7731  0.1378
46224SOL    HW148986   6.212   7.717   4.871  1.2315  0.3392  0.1817
46224SOL    HW248987   6.228   7.612   4.763 -0.1515 -0.9540  1.1845
46225SOL     OW48988   6.628   0.618  11.220  0.5103  0.0650 -0.5906
46225SOL    HW148989   6.562   0.549  11.228 -0.4427  0.9411 -0.7444
46225SOL    HW248990   6.666   0.625  11.307  0.1936 -0.2463 -0.4259
46226SOL     OW48991  11.295   5.335   5.790 -0.2326  0.4655  0.0184
46226SOL    HW148992  11.322   5.365   5.704  0.1173 -1.0849 -0.4440
46226SOL    HW248993  11.376   5.306   5.832 -0.3209  1.6918  1.0911
46227SOL     OW48994   3.495   8.688   5.681  0.3383 -0.0377  0.0587
46227SOL    HW148995   3.512   8.668   5.773  1.1381 -1.3415 -0.3450
46227SOL    HW248996   3.410   8.648   5.664 -1.0778  2.4034  0.8426
46228SOL     OW48997   9.802   6.484   6.138 -0.5896 -0.6157  0.0384
46228SOL    HW148998   9.857   6.406   6.131  0.2046 -0.3034  2.2128
46228SOL    HW248999   9.827   6.524   6.221 -1.7357  1.3980 -0.5234
46229SOL     OW49000   0.494  10.480  11.152  0.0157 -0.3503  0.3902
46229SOL    HW149001   0.471  10.530  11.230  1.6950 -1.5992  1.7695
46229SOL    HW249002   0.533  10.399  11.186 -0.0738 -1.3701 -1.7500
46230SOL     OW49003   4.435   7.269  10.767  0.1865 -0.3161  0.3716
46230SOL    HW149004   4.408   7.290  10.677 -0.4783 -2.3758  0.0412
46230SOL    HW249005   4.353   7.249  10.812  0.7616 -2.4770  0.5284
46231SOL     OW49006   3.158  12.023   3.459 -0.4520 -0.5195  0.3809
46231SOL    HW149007   3.187  12.109   3.428 -1.6072 -0.2160  0.1113
46231SOL    HW249008   3.124  12.039   3.546 -3.2105 -0.1529 -0.6807
46232SOL     OW49009   0.920   6.160   3.670  0.2442  0.0075  0.1555
46232SOL    HW149010   0.917   6.093   3.602  3.5142 -0.6980  0.5453
46232SOL    HW249011   0.931   6.111   3.752  0.4026  0.9484  0.7191
46233SOL     OW49012   8.633   2.060  12.606 -0.0593 -0.2443 -0.5095
46233SOL    HW149013   8.634   1.983  12.549 -0.1465 -1.1603  0.6856
46233SOL    HW249014   8.698   2.041  12.674  0.6038  1.1606 -0.6982
46234SOL     OW49015   5.044   2.863   9.710 -0.1970 -0.3393  0.3865
46234SOL    HW149016   4.968   2.915   9.736  0.4004  0.7282  0.0433
46234SOL    HW249017   5.058   2.884   9.618 -0.4367 -1.7518  0.0089
46235SOL     OW49018   6.435  11.350   9.252  0.7716 -0.5484 -0.3910
46235SOL    HW149019   6.447  11.337   9.158  0.7429 -1.3205 -0.2916
46235SOL    HW249020   6.371  11.284   9.278 -2.0767  1.9287 -0.4767
46236SOL     OW49021  11.237   4.795   3.584 -0.1061 -0.6616  0.1718
46236SOL    HW149022  11.290   4.719   3.608  2.3670  0.9537  0.1681
46236SOL    HW249023  11.289   4.841   3.518 -3.2824 -0.9233 -2.7480
46237SOL     OW49024  12.756  11.286   2.940 -0.6194  0.2510 -0.4707
46237SOL    HW149025  12.829  11.250   2.991 -0.1637  1.4611 -0.2351
46237SOL    HW249026  12.754  11.233   2.860  2.7825  2.3049 -2.1287
46238SOL     OW49027  11.020  11.660   2.934 -0.0139 -0.0596 -0.5270
46238SOL    HW149028  10.960  11.655   2.860  0.7572  0.8231 -1.2225
46238SOL    HW249029  11.026  11.753   2.954 -0.3252 -0.2915  0.7512
46239SOL     OW49030  11.945   8.558   1.052  0.5660  0.2583 -0.4658
46239SOL    HW149031  11.994   8.494   1.000  0.5354  0.1827 -0.4020
46239SOL    HW249032  11.891   8.604   0.988  1.8901  1.4513 -0.7923
46240SOL     OW49033  11.441   8.216   7.721  0.8346 -0.0595 -0.0310
46240SOL    HW149034  11.525   8.202   7.677  0.0731 -1.2796 -1.1398
46240SOL    HW249035  11.391   8.136   7.705 -0.4886  0.5707  0.7608
46241SOL     OW49036   2.282   7.776   5.442  0.1430 -0.9219 -0.4741
46241SOL    HW149037   2.245   7.707   5.498 -0.9469  0.0060 -0.0175
46241SOL    HW249038   2.241   7.857   5.474  1.1921 -0.0928 -1.1777
46242SOL     OW49039   3.502   4.449   8.102  0.5539  0.4252 -0.0584
46242SOL    HW149040   3.440   4.507   8.146  0.7771  0.8571 -0.3091
46242SOL    HW249041   3.581   4.501   8.092  0.7905  0.0440 -0.1970
46243SOL     OW49042   8.313  11.375  12.179  0.9821 -0.2711  0.1354
46243SOL    HW149043   8.363  11.305  12.222 -0.2825 -0.0269  2.1006
46243SOL    HW249044   8.238  11.390  12.236 -0.1151  0.9909 -1.5421
46244SOL     OW49045   0.787   4.762   8.578 -0.8348  0.0259  0.0403
46244SOL    HW149046   0.798   4.765   8.483 -0.4639  2.4048  0.1197
46244SOL    HW249047   0.692   4.762   8.591 -0.9181 -1.7774 -0.3100
46245SOL     OW49048   2.643   6.137  11.604 -0.2031 -0.4507  0.5909
46245SOL    HW149049   2.572   6.196  11.629  0.6723  1.0994 -0.4271
46245SOL    HW249050   2.721   6.192  11.607  0.7066 -1.6806  0.0117
46246SOL     OW49051   4.435  12.662  10.102 -0.1873  0.2889 -0.6093
46246SOL    HW149052   4.521  12.655  10.061 -0.4797 -0.1213 -1.1652
46246SOL    HW249053   4.446  12.728  10.170  1.3194 -1.6599  1.2168
46247SOL     OW49054   2.983   7.457   0.730  0.6155  0.2005 -0.0094
46247SOL    HW149055   3.055   7.410   0.688 -2.3442 -1.9198 -3.2586
46247SOL    HW249056   2.946   7.513   0.661 -2.8369 -1.4018  0.2952
46248SOL     OW49057   4.258   6.939   2.193 -0.6110 -0.1084 -0.3463
46248SOL    HW149058   4.222   7.010   2.246 -3.4632 -1.1879 -0.6523
46248SOL    HW249059   4.334   6.977   2.150  0.5828  1.4370  2.8345
46249SOL     OW49060   6.613  10.034   1.529  0.2779  0.5391  0.3441
46249SOL    HW149061   6.688  10.090   1.508 -0.5350  1.8961  0.8881
46249SOL    HW249062   6.542  10.068   1.475 -0.2232 -0.0013  0.6535
46250SOL     OW49063   3.748  12.093   4.947  0.0715 -0.2164 -0.3991
46250SOL    HW149064   3.677  12.118   4.888  0.3410 -0.0913 -0.6722
46250SOL    HW249065   3.821  12.149   4.922  0.1456 -0.0566  0.1515
46251SOL     OW49066  12.466   5.780   1.595 -0.3370 -0.5600 -0.0267
46251SOL    HW149067  12.489   5.828   1.516 -0.3294  1.1164  0.9516
46251SOL    HW249068  12.430   5.697   1.563 -0.7094  0.2369 -1.7955
46252SOL     OW49069   0.448   3.672   6.188  0.1875 -0.2473  0.0119
46252SOL    HW149070   0.500   3.594   6.173  0.7142  0.1796 -0.4606
46252SOL    HW249071   0.389   3.649   6.259  1.1973 -0.6670  0.7422
46253SOL     OW49072   1.747   7.851   7.700 -0.8175  0.1441  0.1745
46253SOL    HW149073   1.681   7.827   7.765 -0.9204  0.0396  0.0332
46253SOL    HW249074   1.755   7.774   7.644  0.7028 -0.5032  1.2270
46254SOL     OW49075  10.309  12.080   8.247 -0.1646 -0.5873  0.1061
46254SOL    HW149076  10.345  12.092   8.159 -1.5111  2.2825 -0.1698
46254SOL    HW249077  10.221  12.044   8.233 -1.7064  2.8636 -0.1143
46255SOL     OW49078   1.690   6.337   3.765 -0.2736 -0.7912  0.5107
46255SOL    HW149079   1.753   6.407   3.780 -1.2418  0.4091 -0.7854
46255SOL    HW249080   1.726   6.287   3.692 -1.0834  0.2872 -0.6685
46256SOL     OW49081  10.897   3.590  11.026  0.6294 -0.0230  0.2631
46256SOL    HW149082  10.951   3.514  11.006 -1.7398 -1.3303 -1.8399
46256SOL    HW249083  10.945   3.665  10.990  1.2116 -1.0918 -1.2620
46257SOL     OW49084  12.712   7.548  10.981 -0.3445 -0.0117 -0.3361
46257SOL    HW149085  12.719   7.518  11.071 -3.5962 -1.3488 -0.3984
46257SOL    HW249086  12.742   7.640  10.984  0.1733 -0.1953  1.9330
46258SOL     OW49087   4.230   6.528   6.926  0.9381 -0.0985 -0.3627
46258SOL    HW149088   4.237   6.557   7.017 -0.4589 -0.7080 -0.0249
46258SOL    HW249089   4.293   6.456   6.919  1.0170 -0.0858  0.1385
46259SOL     OW49090  10.798   4.107  12.893  0.9175 -0.4723  0.1533
46259SOL    HW149091  10.822   4.068  12.977  2.0539 -0.1310  0.0063
46259SOL    HW249092  10.877   4.098  12.840  0.4574  0.0165 -0.6199
46260SOL     OW49093   1.071   7.676   0.386  0.5466  0.8676  0.3577
46260SOL    HW149094   1.025   7.709   0.464  2.3823  0.9601  1.4636
46260SOL    HW249095   1.123   7.750   0.356  0.4570  0.5910 -0.5100
46261SOL     OW49096   0.657   2.948   1.958  0.0722  0.0286  0.1352
46261SOL    HW149097   0.620   2.897   1.886  0.0125 -1.0060  0.8756
46261SOL    HW249098   0.594   2.938   2.029  1.7392 -1.8574  1.4651
46262SOL     OW49099   1.330   1.902   6.955 -0.0317 -0.1071  0.1610
46262SOL    HW149100   1.348   1.917   7.047  1.2448  0.7722 -0.2128
46262SOL    HW249101   1.416   1.900   6.913 -0.6072 -0.0541 -1.0827
46263SOL     OW49102   7.186   1.684  12.906 -0.2326  0.9803  0.2836
46263SOL    HW149103   7.104   1.712  12.948 -0.8383  0.4405 -0.5119
46263SOL    HW249104   7.185   1.589  12.912 -0.8745  0.7879 -1.8523
46264SOL     OW49105   3.658   0.896   2.704  0.3380 -0.0046  0.4540
46264SOL    HW149106   3.736   0.865   2.658  0.3436 -0.3142  0.6686
46264SOL    HW249107   3.668   0.863   2.793 -0.3459 -0.5989  0.3236
46265SOL     OW49108   5.934   0.572   8.171  0.0211 -0.5384 -0.0081
46265SOL    HW149109   6.015   0.527   8.145 -0.3512 -1.1620 -0.1073
46265SOL    HW249110   5.865   0.506   8.161 -0.5115 -0.0002  0.0295
46266SOL     OW49111  12.023   1.413   7.304  0.0944  0.2226  0.4185
46266SOL    HW149112  11.945   1.426   7.358  0.6431  0.1279  1.2345
46266SOL    HW249113  12.044   1.500   7.270 -0.9248  0.0958 -0.5921
46267SOL     OW49114   9.156   4.688   2.216  0.2391 -0.5645 -0.2757
46267SOL    HW149115   9.165   4.742   2.138 -0.7893 -1.1847 -0.8411
46267SOL    HW249116   9.239   4.699   2.262 -0.0840  1.8255 -0.1343
46268SOL     OW49117  11.562   4.280  10.675  0.0395  0.2810  0.1303
46268SOL    HW149118  11.490   4.222  10.652  1.1740 -1.4821  0.7779
46268SOL    HW249119  11.639   4.223  10.676  0.9884  1.4649  2.2818
46269SOL     OW49120   7.099   2.713   1.686  0.2917 -0.2615  0.0596
46269SOL    HW149121   7.109   2.661   1.607  2.7587 -0.9683  0.7536
46269SOL    HW249122   7.188   2.739   1.709 -0.7438  3.9784  0.0136
46270SOL     OW49123   7.021   8.445   9.507  0.1297  0.1945 -0.2903
46270SOL    HW149124   7.042   8.358   9.472  1.5544 -0.2603  1.5452
46270SOL    HW249125   7.098   8.498   9.484 -0.0623  0.5658 -0.0674
46271SOL     OW49126  11.202   1.687   8.077  0.7415 -0.2238  0.6108
46271SOL    HW149127  11.109   1.706   8.077  0.9700  0.9347  1.0026
46271SOL    HW249128  11.210   1.606   8.128 -0.1794 -1.1028 -0.6016
46272SOL     OW49129   6.599   3.923   5.589 -0.0934 -0.1265  0.6054
46272SOL    HW149130   6.569   3.936   5.499  1.7131  1.2479  0.1544
46272SOL    HW249131   6.578   4.006   5.633  1.3964  0.2020  0.7284
46273SOL     OW49132   7.378   2.478   3.192 -0.0201  0.2233  0.1982
46273SOL    HW149133   7.337   2.391   3.186 -0.8048  0.6018 -0.0104
46273SOL    HW249134   7.404   2.486   3.284 -0.4551 -0.0069  0.3435
46274SOL     OW49135   1.799   9.500  12.370 -0.2498  0.4330 -0.3984
46274SOL    HW149136   1.806   9.559  12.296  1.4685 -0.8470 -1.3216
46274SOL    HW249137   1.850   9.542  12.440  2.2430 -0.5271 -1.5102
46275SOL     OW49138   9.904   1.512   5.940 -0.3909  0.6089  0.2869
46275SOL    HW149139   9.971   1.446   5.921  0.7563  1.7722  0.1768
46275SOL    HW249140   9.937   1.558   6.017 -1.9273  0.0785  1.3054
46276SOL     OW49141   4.074  12.487  12.009  0.2232  0.2644  0.3773
46276SOL    HW149142   3.991  12.454  12.044 -0.2156  1.8789  0.9424
46276SOL    HW249143   4.139  12.464  12.075  0.0828 -0.2293  0.3484
46277SOL     OW49144   2.013  10.985   4.599 -0.0169  0.1515  0.2499
46277SOL    HW149145   2.000  11.031   4.516 -0.4929 -1.8784 -0.8762
46277SOL    HW249146   2.108  10.982   4.610  0.0269  1.2734  0.3142
46278SOL     OW49147   3.555   3.816  10.437 -0.0513 -0.1046  0.0368
46278SOL    HW149148   3.596   3.729  10.437  0.1406 -0.0263 -0.9820
46278SOL    HW249149   3.487   3.810  10.370  1.3804  1.1444 -1.6118
46279SOL     OW49150   0.008   3.651   6.333 -0.2704  0.1287  0.0506
46279SOL    HW149151   0.037   3.579   6.389 -0.3447 -0.3258 -0.4841
46279SOL    HW249152  -0.077   3.677   6.369 -1.0852 -1.2525 -0.8268
46280SOL     OW49153   2.205  11.193  11.394  0.0025  0.5591  0.4618
46280SOL    HW149154   2.237  11.124  11.451  0.9442  1.5796  1.1950
46280SOL    HW249155   2.157  11.146  11.325 -0.3896 -0.7394  1.5730
46281SOL     OW49156  10.050  11.180   7.668  0.2826  0.1032 -0.2359
46281SOL    HW149157   9.960  11.149   7.668  1.4290 -3.8466 -0.5809
46281SOL    HW249158  10.080  11.167   7.578  0.8342  2.9735 -0.5636
46282SOL     OW49159   7.166   0.740   2.358  0.2280 -0.1803 -0.3199
46282SOL    HW149160   7.072   0.721   2.347  0.3928 -0.1524 -1.8882
46282SOL    HW249161   7.185   0.806   2.292  1.6083 -1.0600 -0.8409
46283SOL     OW49162   6.761   0.204  12.389 -0.2166  0.2158 -0.1816
46283SOL    HW149163   6.697   0.184  12.457  0.6960 -1.4001  0.2429
46283SOL    HW249164   6.719   0.272  12.336 -1.8376 -0.0571  0.6928
46284SOL     OW49165  11.712   5.456   3.273  0.1390 -0.2709  0.2675
46284SOL    HW149166  11.751   5.542   3.287  1.5683 -0.6779 -0.8355
46284SOL    HW249167  11.649   5.445   3.344 -2.0428  2.7425 -0.9977
46285SOL     OW49168   0.156  12.573   5.063  0.4706  0.1901  0.2505
46285SOL    HW149169   0.089  12.623   5.108  1.3524  1.0065  0.6991
46285SOL    HW249170   0.231  12.574   5.122  0.8017 -0.9319 -0.1156
46286SOL     OW49171  11.313   5.138  12.303  0.0800 -0.2665  0.0119
46286SOL    HW149172  11.310   5.075  12.375 -0.2715 -0.8735 -0.5156
46286SOL    HW249173  11.337   5.085  12.227  2.1883  0.6361 -0.0272
46287SOL     OW49174   6.782   5.053   1.429 -0.8467 -0.1580  0.5031
46287SOL    HW149175   6.802   5.126   1.372  0.2351  0.3682  1.5179
46287SOL    HW249176   6.711   5.006   1.384 -0.2060  0.3631 -1.1240
46288SOL     OW49177  10.160  11.137   9.988 -0.4241 -0.2683  0.1895
46288SOL    HW149178  10.107  11.216   9.974 -0.6199 -0.5296 -0.5727
46288SOL    HW249179  10.108  11.066   9.951  0.2844 -0.5796 -0.2288
46289SOL     OW49180   6.245   8.437   6.329  0.4186 -0.5675 -0.3309
46289SOL    HW149181   6.226   8.526   6.358 -1.4217 -0.8064 -0.6548
46289SOL    HW249182   6.312   8.406   6.390 -1.6353 -0.2606  2.2821
46290SOL     OW49183   6.826   0.879  11.476 -0.5003 -0.1182  0.6234
46290SOL    HW149184   6.805   0.786  11.483  1.2736 -0.8560 -2.0692
46290SOL    HW249185   6.889   0.884  11.404 -1.2562  3.2947 -0.0014
46291SOL     OW49186   1.807   5.714   7.659 -0.4296  0.2044 -0.5043
46291SOL    HW149187   1.795   5.808   7.671 -0.5306  0.1291  0.0146
46291SOL    HW249188   1.894   5.706   7.622 -1.3495  0.6700 -2.9729
46292SOL     OW49189   1.862  12.509   0.872  0.8345  0.4100  0.0158
46292SOL    HW149190   1.770  12.491   0.851  1.0481 -0.8221  0.0436
46292SOL    HW249191   1.892  12.567   0.801  0.3847 -0.2510 -0.7363
46293SOL     OW49192   4.455   5.472  10.311  0.2480 -0.6875  0.0781
46293SOL    HW149193   4.421   5.527  10.383 -1.1890 -1.4361  0.0159
46293SOL    HW249194   4.378   5.426  10.278  1.0607 -1.1239 -1.2981
46294SOL     OW49195  11.440  10.778   5.022 -0.2032  0.7114 -0.2002
46294SOL    HW149196  11.525  10.822   5.015  0.0678  0.1987 -0.1548
46294SOL    HW249197  11.412  10.765   4.931 -0.8128  1.9615 -0.2233
46295SOL     OW49198   6.464   2.373   8.968  0.4265 -0.4615  0.0101
46295SOL    HW149199   6.554   2.341   8.975  1.2222  1.4503 -0.8711
46295SOL    HW249200   6.470   2.450   8.911 -2.2063 -1.9622 -2.5734
46296SOL     OW49201  10.609   5.446   3.047  0.1034  0.0577  0.0725
46296SOL    HW149202  10.553   5.506   2.997 -0.5530  0.8829  1.7374
46296SOL    HW249203  10.567   5.360   3.036 -0.3394  0.3169 -0.3457
46297SOL     OW49204  10.142  12.401   0.172  0.6980 -0.2405  0.1949
46297SOL    HW149205  10.166  12.486   0.209  0.0401 -0.1592  0.4440
46297SOL    HW249206  10.058  12.379   0.213  0.1238 -0.3057 -0.9681
46298SOL     OW49207   0.325  11.945   7.878  0.3613 -0.4009  0.1071
46298SOL    HW149208   0.237  11.976   7.855 -0.7414 -1.7131  2.1909
46298SOL    HW249209   0.378  12.025   7.885 -0.9453  0.5198 -0.1186
46299SOL     OW49210  11.408  11.670   5.862 -1.0174  0.2040 -0.1917
46299SOL    HW149211  11.436  11.748   5.910 -1.6411 -0.5950  1.5457
46299SOL    HW249212  11.352  11.703   5.792  2.0467  1.6412 -2.1763
46300SOL     OW49213   6.112   1.382   7.439 -0.6058 -0.2193 -0.3252
46300SOL    HW149214   6.195   1.426   7.423  0.0743 -1.3005  0.0827
46300SOL    HW249215   6.105   1.376   7.534 -1.0767 -0.2675 -0.3588
46301SOL     OW49216   9.210   3.617   7.812  0.3457  0.3832  0.1973
46301SOL    HW149217   9.225   3.694   7.867  3.2820 -0.2171  0.3940
46301SOL    HW249218   9.186   3.548   7.874  1.6660  0.2049  0.5423
46302SOL     OW49219   8.947   0.621  12.619 -0.1139  0.3120  0.3574
46302SOL    HW149220   8.977   0.712  12.620 -0.7179  0.5340 -0.4328
46302SOL    HW249221   8.901   0.612  12.536 -1.3883 -0.2882  1.0990
46303SOL     OW49222   9.854   1.038  11.745  0.1871 -0.2948 -0.3874
46303SOL    HW149223   9.764   1.067  11.729 -0.6209 -2.2881  0.2839
46303SOL    HW249224   9.884   1.091  11.819 -1.2863 -1.1884  0.9062
46304SOL     OW49225  11.018   8.994   6.386 -0.3921  0.0388 -0.2658
46304SOL    HW149226  11.076   9.047   6.330 -1.2487  0.9814 -0.2852
46304SOL    HW249227  10.930   9.017   6.358 -0.8462 -2.8466 -1.6087
46305SOL     OW49228   4.894   9.883  10.933  0.3543 -0.4001 -0.1331
46305SOL    HW149229   4.988   9.878  10.918  0.5654 -0.2617  1.0561
46305SOL    HW249230   4.876   9.976  10.945  0.2513 -0.5194  0.6970
46306SOL     OW49231   3.675  12.904   6.556  0.1137  0.3217  0.0421
46306SOL    HW149232   3.594  12.854   6.546 -0.4144  0.8703  1.3252
46306SOL    HW249233   3.736  12.843   6.596 -0.0370  0.2393  0.1479
46307SOL     OW49234   2.417  12.579  11.840  0.1898 -0.3994 -0.2251
46307SOL    HW149235   2.452  12.636  11.771 -1.0913  0.4037 -0.2443
46307SOL    HW249236   2.337  12.624  11.870  0.3785 -1.0406  1.3496
46308SOL     OW49237  12.833  12.016   0.184  0.0747  0.1619 -0.3735
46308SOL    HW149238  12.885  12.013   0.104 -0.9156  2.1681 -1.1735
46308SOL    HW249239  12.887  12.064   0.246 -0.1967  0.9655 -0.7380
46309SOL     OW49240   6.740   0.063   8.651  0.9066  0.0754 -1.0720
46309SOL    HW149241   6.689   0.031   8.576  1.2857 -0.7700 -0.9747
46309SOL    HW249242   6.797   0.130   8.613  2.7190 -1.9061 -2.0232
46310SOL     OW49243  11.336   6.910  11.173 -0.1093 -0.0779  0.1591
46310SOL    HW149244  11.421   6.954  11.177 -0.0309 -0.2607  0.5672
46310SOL    HW249245  11.355   6.821  11.144 -0.2901  0.2000 -0.8600
46311SOL     OW49246   0.391  12.613  12.715  0.4387 -0.1752 -0.4762
46311SOL    HW149247   0.416  12.563  12.637 -1.3553  0.1768 -1.3345
46311SOL    HW249248   0.324  12.559  12.757 -1.3447  1.2867 -1.2751
46312SOL     OW49249   2.585   4.299   3.314 -0.3877 -0.2581 -0.3374
46312SOL    HW149250   2.650   4.229   3.312 -1.5397 -1.3527 -0.5173
46312SOL    HW249251   2.627   4.372   3.268  0.5704 -1.0481 -0.7524
46313SOL     OW49252  10.388   7.451   2.211 -0.4236  0.1006 -0.3748
46313SOL    HW149253  10.421   7.538   2.191 -0.5761  0.4198  0.6889
46313SOL    HW249254  10.296   7.465   2.234 -0.0157 -0.0838  1.4816
46314SOL     OW49255   4.555   6.138  12.769  0.4725 -0.0935 -0.3688
46314SOL    HW149256   4.558   6.090  12.852 -1.1914  2.7123  1.4773
46314SOL    HW249257   4.615   6.211  12.782  0.0864  0.4555 -1.6067
46315SOL     OW49258   0.004   7.323  10.036 -0.2437 -0.5006  0.3658
46315SOL    HW149259  -0.009   7.373  10.117  0.8417  0.1876  0.1495
46315SOL    HW249260  -0.071   7.265  10.031 -0.8741  0.1970  1.3212
46316SOL     OW49261   8.588   0.469   8.670 -0.6011 -0.2170 -0.1203
46316SOL    HW149262   8.679   0.494   8.650 -0.9678 -0.2351 -1.9606
46316SOL    HW249263   8.585   0.465   8.765  1.5537 -1.0185 -0.0291
46317SOL     OW49264   8.767   9.588  10.696  0.2727 -0.5308  0.1440
46317SOL    HW149265   8.763   9.583  10.791 -0.0152  0.0513  0.1641
46317SOL    HW249266   8.788   9.679  10.677  1.0556 -0.7950 -0.3343
46318SOL     OW49267   7.065  12.675   5.245  0.0454 -0.0871 -0.0112
46318SOL    HW149268   7.145  12.624   5.236  0.5850  0.5212  1.1488
46318SOL    HW249269   7.036  12.692   5.155  1.6630  0.3921 -0.4661
46319SOL     OW49270  12.715   0.454   6.057  0.1145 -1.0675  0.5514
46319SOL    HW149271  12.743   0.534   6.013  0.2295 -0.2040  2.1087
46319SOL    HW249272  12.718   0.386   5.990  0.5472  0.1253 -0.6653
46320SOL     OW49273   9.405   9.746   9.961 -0.3544  0.1263  0.3802
46320SOL    HW149274   9.380   9.819  10.018 -1.5622 -0.3455  0.4798
46320SOL    HW249275   9.500   9.749   9.959 -0.3714  1.4563  0.7114
46321SOL     OW49276   0.581  11.362   9.669 -0.0100  0.2494  0.0349
46321SOL    HW149277   0.533  11.364   9.586 -0.7547  0.1400  0.4509
46321SOL    HW249278   0.617  11.450   9.678 -0.1785  0.3515 -0.2642
46322SOL     OW49279   7.104  11.198   5.910 -0.4136 -0.9078 -0.3780
46322SOL    HW149280   7.024  11.215   5.861 -0.2690 -1.6909 -0.9060
46322SOL    HW249281   7.117  11.103   5.903  0.0544 -0.9242  0.4959
46323SOL     OW49282  12.706  10.281   9.100  0.4030 -0.5432 -0.1407
46323SOL    HW149283  12.746  10.332   9.030  1.3429 -1.9780 -0.6931
46323SOL    HW249284  12.735  10.325   9.181  2.0687 -0.8010 -0.5661
46324SOL     OW49285   6.823   6.712   8.611 -0.3141  0.1054 -0.1519
46324SOL    HW149286   6.871   6.652   8.555 -1.5940  0.0840 -1.2823
46324SOL    HW249287   6.732   6.683   8.604 -0.8233  1.5692  0.0456
46325SOL     OW49288  12.002  11.689   4.663 -0.5980 -0.2307 -0.1015
46325SOL    HW149289  11.915  11.713   4.694 -1.4443  0.1139 -2.5056
46325SOL    HW249290  12.050  11.772   4.661 -0.2723 -0.3873  1.0341
46326SOL     OW49291   2.313  11.008   4.560  0.4619 -0.2280  0.0735
46326SOL    HW149292   2.302  11.063   4.637 -0.2314 -1.5965  1.0069
46326SOL    HW249293   2.376  10.941   4.587 -0.3181 -1.1361 -0.2688
46327SOL     OW49294  11.273   2.555   9.322 -0.0906 -0.2691 -0.1023
46327SOL    HW149295  11.346   2.493   9.326 -0.6480 -0.9913 -0.8655
46327SOL    HW249296  11.308   2.630   9.275 -0.0934 -0.9951 -1.3013
46328SOL     OW49297   1.597   3.522   1.717  0.4679 -0.0758 -0.2775
46328SOL    HW149298   1.551   3.449   1.676 -2.4599  1.5932 -0.2580
46328SOL    HW249299   1.595   3.501   1.811 -1.4206  0.4965 -0.1519
46329SOL     OW49300   7.536   8.321  11.227 -0.2638 -0.1513 -0.4996
46329SOL    HW149301   7.558   8.392  11.167 -0.9688  0.8373  0.3685
46329SOL    HW249302   7.467   8.357  11.283 -1.5530 -1.9315 -0.8251
46330SOL     OW49303  11.720   8.597   0.315 -0.0079  0.0137 -0.1564
46330SOL    HW149304  11.751   8.626   0.230  0.5745 -0.4617 -0.1164
46330SOL    HW249305  11.704   8.503   0.304  1.6427 -0.4017  0.6780
46331SOL     OW49306   7.470   5.525   4.291  0.4832 -0.0503  0.1900
46331SOL    HW149307   7.469   5.590   4.361 -0.4712 -1.0363  1.1404
46331SOL    HW249308   7.437   5.572   4.215  1.4335  1.0171  0.4062
46332SOL     OW49309  10.573  11.211   0.105  0.2987  0.0110  0.3281
46332SOL    HW149310  10.544  11.144   0.167  0.4883 -0.0360  0.3646
46332SOL    HW249311  10.658  11.181   0.075  0.6273  0.5065  0.7539
46333SOL     OW49312   0.880   1.681  10.919  0.7805 -0.1458 -0.5310
46333SOL    HW149313   0.801   1.629  10.936 -1.6126  3.0180 -0.9700
46333SOL    HW249314   0.926   1.632  10.851 -1.6432 -1.4194 -1.3912
46334SOL     OW49315   3.904   2.419   4.915  0.2038 -0.1119  0.2413
46334SOL    HW149316   3.943   2.466   4.988 -1.1594  0.1622  0.8222
46334SOL    HW249317   3.902   2.483   4.843  0.2465  0.0668  0.3983
46335SOL     OW49318   8.124   1.970   9.225 -0.0540  0.0853  0.7279
46335SOL    HW149319   8.155   1.886   9.257 -0.6410 -0.7623 -0.8166
46335SOL    HW249320   8.202   2.012   9.188  0.4410  0.6854  2.3687
46336SOL     OW49321  12.222   6.021  11.339 -0.0185  0.2430 -0.2589
46336SOL    HW149322  12.194   5.930  11.346  0.3282  0.1457 -0.1636
46336SOL    HW249323  12.311   6.017  11.304 -0.2051  0.5651 -0.7851
46337SOL     OW49324   8.997  11.848   2.344 -0.0852  0.0655 -0.4180
46337SOL    HW149325   9.070  11.848   2.405  1.7127  2.1154 -2.4116
46337SOL    HW249326   8.932  11.905   2.385  0.3143 -0.0569  0.3995
46338SOL     OW49327  12.502   6.923   8.258  0.0237 -0.7878 -0.2883
46338SOL    HW149328  12.468   7.012   8.245 -0.0567 -0.7309  0.2704
46338SOL    HW249329  12.462   6.872   8.188  0.6137 -0.2487 -1.0428
46339SOL     OW49330   5.928   2.403   1.975 -0.4176 -0.7631 -0.1377
46339SOL    HW149331   5.852   2.410   1.917  0.1149 -1.4632 -0.9486
46339SOL    HW249332   5.998   2.451   1.930 -0.4024 -0.0109  0.6622
46340SOL     OW49333   7.711   5.592   6.472 -0.6216  0.4900 -0.5156
46340SOL    HW149334   7.633   5.642   6.497  0.1869  0.5652  2.1566
46340SOL    HW249335   7.760   5.582   6.553  1.3985 -0.9302 -1.8190
46341SOL     OW49336   5.732   4.646   2.060 -0.0257 -0.5444 -0.3796
46341SOL    HW149337   5.794   4.670   2.128 -0.5980  2.3825 -0.7621
46341SOL    HW249338   5.646   4.655   2.102 -0.4382  2.2012 -1.5734
46342SOL     OW49339  11.321   0.930   8.962 -0.3995 -0.3201 -0.1579
46342SOL    HW149340  11.284   0.905   8.877 -1.4135 -2.1568  0.7708
46342SOL    HW249341  11.369   0.853   8.992  0.3725  0.4703  0.7385
46343SOL     OW49342  10.993   6.893  11.035 -0.2802  0.1152  0.0389
46343SOL    HW149343  11.059   6.918  10.970  2.2424  0.8296  2.6289
46343SOL    HW249344  10.946   6.974  11.055  0.2733  0.3417  0.4518
46344SOL     OW49345   0.920  11.994   5.070  0.0180  0.3971 -0.4127
46344SOL    HW149346   0.993  12.013   5.011  1.8042 -0.5868  1.3555
46344SOL    HW249347   0.941  12.041   5.151 -1.6545  0.5845 -0.0490
46345SOL     OW49348  11.188   1.286  12.495 -0.0841  0.2488 -0.0582
46345SOL    HW149349  11.284   1.280  12.486  0.5351  1.6440  3.6110
46345SOL    HW249350  11.164   1.363  12.443  0.8530  0.1746 -0.6261
46346SOL     OW49351  10.255   9.076  12.109 -0.2207 -0.1835  0.0632
46346SOL    HW149352  10.224   9.097  12.020 -0.0493 -2.1515 -0.5193
46346SOL    HW249353  10.192   9.011  12.141 -0.1311  0.3181  1.3046
46347SOL     OW49354   4.147   1.910   2.786 -0.2229 -0.9793  0.0161
46347SOL    HW149355   4.242   1.919   2.793 -0.2830 -0.0549 -0.2760
46347SOL    HW249356   4.122   1.859   2.864  0.5675 -1.7609 -0.2218
46348SOL     OW49357   9.960  10.232  12.558  0.0918  0.4661 -0.0940
46348SOL    HW149358  10.019  10.269  12.492 -0.4140  1.5372  0.0203
46348SOL    HW249359   9.898  10.303  12.576 -2.4267 -1.2215 -1.6012
46349SOL     OW49360   4.990   3.200  12.832 -0.0793 -0.1043  0.5366
46349SOL    HW149361   4.925   3.146  12.878  0.6281 -1.0564  0.4568
46349SOL    HW249362   5.074   3.164  12.860  0.4001  0.7623  0.2229
46350SOL     OW49363  11.969  11.586   0.145  0.1766 -0.0343 -0.1420
46350SOL    HW149364  11.962  11.501   0.103  0.8490  0.2108 -0.7707
46350SOL    HW249365  12.063  11.598   0.159  0.0292  0.2775  0.6316
46351SOL     OW49366   6.648   1.331  11.046  0.2985  0.3334 -0.4591
46351SOL    HW149367   6.719   1.389  11.074  1.2451 -0.2752 -1.5431
46351SOL    HW249368   6.602   1.309  11.127  2.6983 -1.0698  0.6138
46352SOL     OW49369   1.879   4.197   3.188  0.3643 -0.1869 -0.3296
46352SOL    HW149370   1.918   4.284   3.180  0.4846 -0.0859  1.1524
46352SOL    HW249371   1.793   4.213   3.228 -0.3324 -0.6119 -1.5829
46353SOL     OW49372   5.370   4.828   6.834 -0.0830 -0.1442 -0.3698
46353SOL    HW149373   5.328   4.843   6.919  3.0958  2.0197  0.9817
46353SOL    HW249374   5.432   4.757   6.849  2.0844  1.6940 -0.1655
46354SOL     OW49375  12.530   6.374   7.174  0.7169  0.3234 -0.1521
46354SOL    HW149376  12.475   6.336   7.105  0.8411 -1.1299  0.5178
46354SOL    HW249377  12.486   6.455   7.198 -1.3442 -0.9330  0.5806
46355SOL     OW49378   1.460  10.276   4.042 -0.7880  0.1969  0.1338
46355SOL    HW149379   1.539  10.314   4.003 -0.2847  0.3451  1.2414
46355SOL    HW249380   1.388  10.320   3.997 -0.3272 -1.4752 -2.4274
46356SOL     OW49381  10.071  11.542   3.517 -0.4053  0.4653 -0.6620
46356SOL    HW149382  10.148  11.542   3.574  0.1001 -1.3659 -1.2753
46356SOL    HW249383  10.026  11.460   3.538 -2.7149  1.8627  0.2994
46357SOL     OW49384  12.468  11.203  11.923  0.0300  0.2418  0.1588
46357SOL    HW149385  12.539  11.155  11.880 -0.4899  0.5964 -1.1389
46357SOL    HW249386  12.502  11.224  12.010  0.4146 -2.1443  0.6596
46358SOL     OW49387   0.678   1.515   1.606  0.8720  0.2056 -0.3016
46358SOL    HW149388   0.617   1.441   1.612  0.8210  0.0272 -2.3003
46358SOL    HW249389   0.750   1.482   1.552  3.4429  0.0080  2.9483
46359SOL     OW49390   2.875  10.009   8.861  0.1788  0.0619 -0.2315
46359SOL    HW149391   2.888  10.086   8.805 -1.3755  0.6362  0.1489
46359SOL    HW249392   2.909  10.036   8.946  0.3641  0.0467 -0.3009
46360SOL     OW49393   4.937   0.269   2.027  0.4338  0.5292  0.4875
46360SOL    HW149394   4.850   0.233   2.016  0.2764  0.6872  1.1770
46360SOL    HW249395   4.996   0.199   1.998  0.1045  0.1238  0.7868
46361SOL     OW49396   1.089   9.754   2.243 -0.2200 -0.1869 -0.8129
46361SOL    HW149397   1.176   9.715   2.243 -0.0508  0.1620 -1.9940
46361SOL    HW249398   1.089   9.814   2.168 -1.0599  0.7544 -0.0947
46362SOL     OW49399  10.698   8.226  12.953 -0.0333 -0.8885  0.7058
46362SOL    HW149400  10.701   8.236  12.858  2.0648 -2.2833  0.5621
46362SOL    HW249401  10.670   8.311  12.985  0.3259 -0.0389 -1.1202
46363SOL     OW49402   8.728   9.220  10.694 -0.2790 -0.1162 -0.0230
46363SOL    HW149403   8.670   9.268  10.634 -0.1764 -0.3168 -0.2821
46363SOL    HW249404   8.678   9.214  10.776 -0.4916  0.0009 -0.1425
46364SOL     OW49405   0.526   4.793   2.570  0.3060  0.0335 -0.2675
46364SOL    HW149406   0.493   4.842   2.645  2.2931  0.7506  0.1851
46364SOL    HW249407   0.555   4.709   2.607 -0.5869 -0.4392 -0.6010
46365SOL     OW49408   0.313   2.792   2.054  0.4776 -0.0868  0.3552
46365SOL    HW149409   0.332   2.705   2.020 -0.8776 -0.6591  1.0022
46365SOL    HW249410   0.218   2.796   2.060  0.5065  1.4937  0.2286
46366SOL     OW49411  10.073  11.213   5.179 -0.1971 -0.1476 -0.6610
46366SOL    HW149412  10.027  11.290   5.213  1.0456  0.6057 -0.5810
46366SOL    HW249413  10.005  11.149   5.162 -1.0579 -0.0057  1.8167
46367SOL     OW49414   4.219   3.351   4.195 -0.9398 -0.3638 -0.4237
46367SOL    HW149415   4.173   3.428   4.163 -1.4190  0.0915  1.2759
46367SOL    HW249416   4.204   3.351   4.289  0.4385 -1.6156 -0.1617
46368SOL     OW49417  12.931   7.915   4.494  0.1966  0.1439  0.2077
46368SOL    HW149418  12.987   7.948   4.564  1.7333 -1.4197 -0.2017
46368SOL    HW249419  12.955   7.822   4.486 -2.6822 -0.7089  0.1874
46369SOL     OW49420   7.709   6.275   5.802 -0.0441 -0.3126  0.0229
46369SOL    HW149421   7.800   6.294   5.827 -0.0968  1.5733 -1.0574
46369SOL    HW249422   7.658   6.302   5.879  0.2612 -1.0313  0.4916
46370SOL     OW49423   5.204   1.839  11.064 -0.1131  0.6434 -0.2511
46370SOL    HW149424   5.168   1.778  11.000  0.5864  0.4779 -0.4982
46370SOL    HW249425   5.282   1.794  11.098  1.6897  2.2466 -2.0044
46371SOL     OW49426   7.248  11.811   0.872 -0.5216 -0.1962 -0.2849
46371SOL    HW149427   7.301  11.860   0.809  0.0443  0.5142  0.7146
46371SOL    HW249428   7.169  11.789   0.824 -0.2328  0.5902 -1.1599
46372SOL     OW49429   6.013   3.093  10.300 -0.4677 -0.1367  0.2530
46372SOL    HW149430   6.062   3.061  10.225  0.8496  1.0714  0.5631
46372SOL    HW249431   6.002   3.186  10.284  0.8382  0.3842  2.0371
46373SOL     OW49432  11.731   0.786   1.291 -0.0815  0.0086  0.6258
46373SOL    HW149433  11.647   0.800   1.247 -0.0980  2.3379  1.2780
46373SOL    HW249434  11.768   0.709   1.247 -1.9585 -0.3113 -0.5382
46374SOL     OW49435   2.942   3.717  11.820 -0.2046 -0.3287  0.2193
46374SOL    HW149436   3.004   3.782  11.789 -1.1986  0.7055  0.3295
46374SOL    HW249437   2.988   3.634  11.810  1.2312  0.4041  0.4071
46375SOL     OW49438   5.431   6.054   8.635  0.0795 -0.0425  1.0398
46375SOL    HW149439   5.426   6.149   8.644 -0.8128  0.0908 -0.5928
46375SOL    HW249440   5.479   6.040   8.553  0.6156 -1.0225  1.5004
46376SOL     OW49441   4.292   4.615   3.679  0.0696  0.3343  0.1103
46376SOL    HW149442   4.248   4.700   3.677  0.2659  0.5234  2.2281
46376SOL    HW249443   4.364   4.625   3.616  0.8603  2.2102  1.2257
46377SOL     OW49444   2.517   6.034   9.972  0.0792 -0.8200  0.1593
46377SOL    HW149445   2.458   6.071   9.906 -0.0154 -2.3144 -0.6482
46377SOL    HW249446   2.603   6.033   9.929 -0.1188 -2.4684 -0.2598
46378SOL     OW49447   3.151   4.699   4.547 -0.6376 -0.2596 -0.6452
46378SOL    HW149448   3.104   4.723   4.627  0.4825  0.1629 -0.0817
46378SOL    HW249449   3.193   4.616   4.568 -2.7014 -1.6892 -1.8353
46379SOL     OW49450   3.712   4.831   9.217 -0.0057 -0.3313  0.1218
46379SOL    HW149451   3.731   4.762   9.154  0.6148  0.5061 -0.6372
46379SOL    HW249452   3.633   4.801   9.262 -0.2057 -1.1575 -0.7437
46380SOL     OW49453  11.595   0.325   3.735  0.5621  0.0034  0.3781
46380SOL    HW149454  11.646   0.404   3.752 -1.2622  1.2272  0.3488
46380SOL    HW249455  11.556   0.340   3.649  1.0428 -1.4116 -0.1114
46381SOL     OW49456   2.591   6.516   3.378 -0.6942  0.5245  0.3034
46381SOL    HW149457   2.531   6.453   3.420 -0.3649  0.7450  1.1361
46381SOL    HW249458   2.675   6.470   3.375 -0.4131  0.9601  1.0607
46382SOL     OW49459   2.848  12.194   3.374  0.3706  0.2610 -0.2302
46382SOL    HW149460   2.809  12.217   3.458  2.6078 -0.5568  1.1182
46382SOL    HW249461   2.870  12.101   3.383  2.3439  0.6086 -0.9877
46383SOL     OW49462   2.514  10.005   3.109 -0.5283  0.6237 -0.5749
46383SOL    HW149463   2.491  10.097   3.120  0.5059  0.9138 -0.7333
46383SOL    HW249464   2.513   9.990   3.015  0.0484  0.6706 -0.5886
46384SOL     OW49465  10.191   0.477   0.026  0.0750 -0.2500 -0.2437
46384SOL    HW149466  10.265   0.487  -0.034  2.6836  1.2745  2.9394
46384SOL    HW249467  10.171   0.566   0.055 -1.1721 -0.9162  1.0523
46385SOL     OW49468   6.754   2.575   9.823  0.3575  0.2926 -0.3553
46385SOL    HW149469   6.796   2.657   9.849 -0.1889  0.5530 -0.2798
46385SOL    HW249470   6.682   2.564   9.885  0.3596 -0.1903 -0.4337
46386SOL     OW49471   3.924   2.657   5.541 -0.3006 -0.7708 -0.2933
46386SOL    HW149472   3.986   2.647   5.469  0.6773 -1.3569  0.5896
46386SOL    HW249473   3.871   2.577   5.538  1.1989 -1.8830  0.9336
46387SOL     OW49474   5.083   8.710   3.821  0.1189 -0.4262  0.5745
46387SOL    HW149475   5.099   8.711   3.915 -0.1378  1.1964  0.6170
46387SOL    HW249476   5.163   8.745   3.783 -0.1065 -0.2728  0.2413
46388SOL     OW49477   4.331  10.897   1.157  1.0033  0.2222  0.3182
46388SOL    HW149478   4.237  10.897   1.139  0.9401 -1.1424  0.5186
46388SOL    HW249479   4.367  10.836   1.092  1.6752  0.3167  0.5983
46389SOL     OW49480   2.592  10.736  10.919  0.1167 -0.0516  0.1383
46389SOL    HW149481   2.640  10.656  10.897  1.8422  1.1711 -0.7845
46389SOL    HW249482   2.621  10.757  11.008 -0.4553 -0.5244  0.4393
46390SOL     OW49483   3.004  11.092   1.617  0.0571  0.1026  0.4044
46390SOL    HW149484   3.042  11.053   1.696 -0.9294 -1.0048  0.3625
46390SOL    HW249485   2.984  11.182   1.642 -0.5665 -0.3295  1.5529
46391SOL     OW49486   0.488   4.671  11.924  0.1496  0.7399 -0.1709
46391SOL    HW149487   0.537   4.612  11.981  0.7886  1.3773 -0.0518
46391SOL    HW249488   0.476   4.621  11.843  1.8519  0.9245 -0.5650
46392SOL     OW49489  12.982   1.729   8.004 -0.0274 -0.6705 -0.3443
46392SOL    HW149490  13.040   1.754   8.076 -1.5705 -0.8075  0.9875
46392SOL    HW249491  12.997   1.635   7.992 -1.6127 -1.2514  1.6223
46393SOL     OW49492   7.393   3.999   4.424  0.7643 -0.1604 -0.1144
46393SOL    HW149493   7.423   3.994   4.514 -0.2291  1.7191  0.3572
46393SOL    HW249494   7.473   4.004   4.372  1.3277  0.0423  0.7554
46394SOL     OW49495   8.340  11.386   5.982 -0.2334 -0.5596 -0.0418
46394SOL    HW149496   8.431  11.405   6.004 -0.5804  0.0911  0.9195
46394SOL    HW249497   8.335  11.397   5.887  0.8559 -1.3594 -0.2053
46395SOL     OW49498   8.334   8.779  11.805 -0.1661 -0.4890 -0.8122
46395SOL    HW149499   8.417   8.823  11.785  0.1089 -1.1843 -1.2219
46395SOL    HW249500   8.322   8.794  11.899 -0.3414  0.8971 -1.0376
46396SOL     OW49501  10.498   8.570   7.062 -0.1463  0.2795 -0.5476
46396SOL    HW149502  10.430   8.583   6.996  1.9929  2.3350 -2.5072
46396SOL    HW249503  10.470   8.623   7.136 -2.1637 -1.4087  0.0197
46397SOL     OW49504   2.432   7.547   3.536 -0.0434 -0.4761  0.0210
46397SOL    HW149505   2.465   7.482   3.599  1.0716 -0.7403 -0.7918
46397SOL    HW249506   2.405   7.621   3.589  0.0982 -1.0224  0.8687
46398SOL     OW49507   3.343   2.676  11.207  0.5274 -0.0558  0.6225
46398SOL    HW149508   3.303   2.761  11.225  2.5381  1.2804 -0.8355
46398SOL    HW249509   3.437   2.691  11.216  0.9161 -2.3765  1.1958
46399SOL     OW49510   9.413  10.801   0.123  0.2332 -0.3664 -0.2071
46399SOL    HW149511   9.476  10.848   0.068  0.4229  1.9002  1.7843
46399SOL    HW249512   9.461  10.782   0.204 -0.8898 -0.9404  0.3496
46400SOL     OW49513   5.217   6.548   6.719 -0.3325 -0.4272  0.2978
46400SOL    HW149514   5.153   6.508   6.778  0.8467 -2.1186  0.5211
46400SOL    HW249515   5.293   6.566   6.774  0.0641 -0.1875 -0.3166
46401SOL     OW49516   8.893   5.459   1.423 -1.1212 -0.5479 -0.1504
46401SOL    HW149517   8.876   5.395   1.492  1.3251 -0.4656  0.6052
46401SOL    HW249518   8.918   5.539   1.469  1.5644 -0.7710 -1.0111
46402SOL     OW49519  10.216  11.942   6.803  0.1034 -0.0582  0.4462
46402SOL    HW149520  10.168  12.005   6.748 -2.2557 -1.4845  0.7390
46402SOL    HW249521  10.176  11.951   6.889  0.5520 -1.1411  0.7778
46403SOL     OW49522   5.448   9.340   5.423  0.2736  0.1300 -0.3894
46403SOL    HW149523   5.487   9.290   5.494 -0.9946  0.5762  0.6485
46403SOL    HW249524   5.361   9.301   5.412 -0.8074  2.1562  0.5471
46404SOL     OW49525   0.813  11.622   2.624  0.1373 -0.2996  0.3149
46404SOL    HW149526   0.841  11.703   2.666 -1.8007  0.2799  0.5845
46404SOL    HW249527   0.734  11.596   2.672 -0.3449 -1.3295 -0.9679
46405SOL     OW49528   4.102   4.070  11.806  0.1099 -0.5024  0.2889
46405SOL    HW149529   4.008   4.082  11.791  0.1153 -1.0354 -0.1984
46405SOL    HW249530   4.121   3.983  11.770  0.7614 -0.4581  0.5163
46406SOL     OW49531   7.689   0.428   6.558 -0.3853 -0.2419 -0.0857
46406SOL    HW149532   7.764   0.488   6.568  1.1415 -2.0983  0.1512
46406SOL    HW249533   7.614   0.479   6.588  0.9903  1.2230  1.0699
46407SOL     OW49534   9.832  10.774  12.909  0.2656  0.7451 -0.3600
46407SOL    HW149535   9.917  10.777  12.866 -0.0753 -0.2740 -1.1241
46407SOL    HW249536   9.839  10.703  12.973 -0.1246  0.3919 -0.6987
46408SOL     OW49537   5.986   1.631  11.900  0.1206 -0.5713  0.3152
46408SOL    HW149538   5.921   1.563  11.879 -0.4502  0.0107  0.1770
46408SOL    HW249539   6.038   1.640  11.821 -0.4629 -0.1210 -0.0218
46409SOL     OW49540   9.158   3.009   6.576  0.5037 -0.2481 -0.3440
46409SOL    HW149541   9.169   2.916   6.595 -1.0703 -0.6577 -1.2906
46409SOL    HW249542   9.095   3.040   6.642  0.9019  0.1144 -0.1274
46410SOL     OW49543   2.247   3.166   0.833 -0.6541 -0.0643 -0.3588
46410SOL    HW149544   2.159   3.182   0.867 -0.4019  1.0961 -0.2229
46410SOL    HW249545   2.235   3.161   0.738 -0.7735  0.8095 -0.3973
46411SOL     OW49546   9.088   1.834   1.719  0.3357 -0.3743  0.1189
46411SOL    HW149547   9.095   1.929   1.724  1.1792 -0.4074 -0.2217
46411SOL    HW249548   9.008   1.813   1.767  1.0391  0.3631  1.6751
46412SOL     OW49549  11.869  12.080   1.287  0.5857 -0.0061  0.6058
46412SOL    HW149550  11.787  12.118   1.256 -0.2331 -0.2503  2.3710
46412SOL    HW249551  11.868  11.990   1.254  0.1374 -0.0091  0.6255
46413SOL     OW49552   6.587   8.670   3.921 -0.0957 -0.1579  0.0420
46413SOL    HW149553   6.645   8.733   3.879  0.2995 -1.2867 -1.1914
46413SOL    HW249554   6.592   8.592   3.865 -1.7788 -0.7427  0.6470
46414SOL     OW49555   9.804   1.128   9.278 -0.2755 -0.5778  0.1050
46414SOL    HW149556   9.799   1.053   9.338 -1.6915 -1.5781 -1.2063
46414SOL    HW249557   9.810   1.204   9.336 -1.5485 -1.5014  1.5359
46415SOL     OW49558   9.257   6.523   2.055  0.1450  0.1004 -0.4721
46415SOL    HW149559   9.308   6.445   2.074 -0.8759 -0.1900  1.2450
46415SOL    HW249560   9.259   6.530   1.959  3.6708  0.3494 -0.5068
46416SOL     OW49561  10.766  10.662   5.274  0.6182 -0.9286  0.1489
46416SOL    HW149562  10.767  10.574   5.311 -1.3269 -1.4066 -0.7864
46416SOL    HW249563  10.842  10.665   5.216  1.5273 -1.4479  1.2711
46417SOL     OW49564   2.639   0.565   3.114 -0.4320  0.4569 -0.1546
46417SOL    HW149565   2.677   0.477   3.111 -1.5270 -0.0652  0.5529
46417SOL    HW249566   2.714   0.624   3.103  0.4469 -0.5425  0.3005
46418SOL     OW49567  11.665   1.052   3.290  0.1632 -0.8136  0.5931
46418SOL    HW149568  11.655   1.113   3.217 -3.6818  0.1388  1.7189
46418SOL    HW249569  11.676   1.107   3.367  1.7150 -1.7444  1.0850
46419SOL     OW49570  12.058  11.682   8.323 -0.0790  0.0373 -0.5963
46419SOL    HW149571  12.144  11.663   8.361 -0.4450  0.6600  0.5747
46419SOL    HW249572  12.055  11.777   8.315 -1.0845  0.1183  0.4563
46420SOL     OW49573   7.457   4.432  11.197  0.1582 -0.7431 -0.2058
46420SOL    HW149574   7.482   4.519  11.228 -3.0689  0.4362 -0.6304
46420SOL    HW249575   7.523   4.411  11.131  2.4385  0.2085  1.6133
46421SOL     OW49576   2.960   1.657   5.833  0.3234 -0.5229 -0.2454
46421SOL    HW149577   3.017   1.713   5.886 -1.1361  0.1150  0.7127
46421SOL    HW249578   2.968   1.692   5.744 -3.1460  3.6773  0.7517
46422SOL     OW49579  11.643   1.887   5.378 -0.3041 -0.3501 -0.0128
46422SOL    HW149580  11.684   1.857   5.459 -1.0444  0.5148  0.6914
46422SOL    HW249581  11.708   1.944   5.337  0.0516 -0.7527 -0.0171
46423SOL     OW49582   5.662   4.105   8.503  0.2496  0.0216 -0.3489
46423SOL    HW149583   5.696   4.092   8.592  0.9011 -0.2764 -0.6411
46423SOL    HW249584   5.567   4.093   8.513  0.2319  0.6958  0.4344
46424SOL     OW49585  10.675   6.052  11.763  0.4296  0.4062 -0.0270
46424SOL    HW149586  10.662   6.050  11.858 -0.5240 -0.5270 -0.1671
46424SOL    HW249587  10.614   6.118  11.731  1.4968  1.4919  0.0930
46425SOL     OW49588   6.844   9.475   5.927  0.1149  0.4104 -0.8168
46425SOL    HW149589   6.749   9.467   5.926  0.1630 -0.3871 -0.0315
46425SOL    HW249590   6.875   9.394   5.969  1.1150  0.8498 -0.6745
46426SOL     OW49591   2.113   2.682   4.757 -0.3608 -0.4627  0.5545
46426SOL    HW149592   2.205   2.669   4.784 -0.2706 -1.1786 -0.0462
46426SOL    HW249593   2.065   2.687   4.840  0.0221 -1.7041  0.8837
46427SOL     OW49594   1.019   3.251   8.365 -0.0713  0.1591 -0.3511
46427SOL    HW149595   1.083   3.195   8.408  1.5578  1.6839 -0.6487
46427SOL    HW249596   0.936   3.230   8.407  0.6833 -1.5509  0.3910
46428SOL     OW49597  12.431   3.265   4.628  0.1154  0.1338  0.1415
46428SOL    HW149598  12.457   3.192   4.571  1.3019  0.8778 -0.3263
46428SOL    HW249599  12.382   3.225   4.699  1.9262 -1.3179  0.6430
46429SOL     OW49600  11.143   0.339   1.476 -0.1399  0.3734  0.3322
46429SOL    HW149601  11.182   0.256   1.503 -0.5851  0.3670  0.9779
46429SOL    HW249602  11.091   0.317   1.399 -0.3186  0.0358  0.5469
46430SOL     OW49603   3.277  11.432   4.255  0.3961 -0.1200 -0.0073
46430SOL    HW149604   3.259  11.504   4.194  2.0832  0.8709  0.6053
46430SOL    HW249605   3.198  11.379   4.253 -0.9661  1.8177 -0.3797
46431SOL     OW49606   3.838  11.256   9.711  0.3000 -0.4029 -0.2628
46431SOL    HW149607   3.910  11.195   9.698 -0.1645 -0.9018 -0.5496
46431SOL    HW249608   3.795  11.262   9.626 -0.7274 -1.0576  0.1949
46432SOL     OW49609   7.710   5.774   6.160  0.2001  0.3857 -0.0136
46432SOL    HW149610   7.753   5.734   6.084  0.5486  1.0106 -0.1514
46432SOL    HW249611   7.682   5.699   6.213 -0.8177 -0.0902 -1.1642
46433SOL     OW49612  10.593  10.980  11.464 -0.1363 -0.4126 -0.6973
46433SOL    HW149613  10.567  10.929  11.541  0.8530 -1.7535 -1.2088
46433SOL    HW249614  10.511  11.016  11.431 -0.8582 -1.5526 -0.2205
46434SOL     OW49615   6.387   5.675   6.044  0.5781  0.7875  0.2214
46434SOL    HW149616   6.466   5.643   6.087 -0.0471 -0.1200  0.7408
46434SOL    HW249617   6.404   5.664   5.951 -0.2582 -2.9954  0.3287
46435SOL     OW49618   6.307   6.536   6.294  0.1498 -0.4425  0.2939
46435SOL    HW149619   6.255   6.544   6.374  0.3681 -1.1647  0.5120
46435SOL    HW249620   6.396   6.554   6.322  0.2707 -1.0028  0.2762
46436SOL     OW49621   1.079   7.732   0.938 -0.0107  0.2100 -0.0353
46436SOL    HW149622   1.006   7.672   0.947  0.2658 -0.1603 -0.2188
46436SOL    HW249623   1.041   7.819   0.951 -0.5660  0.0563 -0.5936
46437SOL     OW49624   3.721  10.503   8.102 -0.4483 -0.3089 -0.1007
46437SOL    HW149625   3.723  10.594   8.071  1.5047 -0.5878 -0.9709
46437SOL    HW249626   3.760  10.507   8.190  1.0018 -0.4533 -0.7103
46438SOL     OW49627   4.997   4.343   0.316  0.1718 -0.6717  0.2586
46438SOL    HW149628   4.939   4.321   0.389 -1.0133 -0.9558 -0.7241
46438SOL    HW249629   5.024   4.258   0.280  0.0617 -0.5442 -0.1379
46439SOL     OW49630   4.087   5.808   3.593  0.2593  0.1889  0.3828
46439SOL    HW149631   4.096   5.743   3.663  0.2702 -1.3507 -0.9599
46439SOL    HW249632   4.009   5.859   3.617 -0.3509 -0.9779  1.0077
46440SOL     OW49633   9.467   0.651   1.350 -0.2351  0.1835 -0.1981
46440SOL    HW149634   9.466   0.673   1.257  0.2373 -1.6870 -0.6898
46440SOL    HW249635   9.377   0.624   1.369 -0.4355  0.9646  0.0209
46441SOL     OW49636   0.634  12.710   5.052  0.1156 -0.3092 -0.0869
46441SOL    HW149637   0.574  12.769   5.005  1.0000  0.4921 -0.2321
46441SOL    HW249638   0.578  12.664   5.114 -0.4869  1.2651  0.5958
46442SOL     OW49639  12.101  11.513   9.403  0.7848 -0.2890 -0.1526
46442SOL    HW149640  12.072  11.456   9.332  4.0475 -1.1860 -0.9116
46442SOL    HW249641  12.057  11.479   9.481  0.3927 -1.9879 -1.0647
46443SOL     OW49642  11.229   7.458   8.747 -0.2082  0.0286  0.0059
46443SOL    HW149643  11.220   7.429   8.657 -1.7497 -1.0039  0.4612
46443SOL    HW249644  11.224   7.378   8.799  0.3431  0.6319  1.0368
46444SOL     OW49645   4.405   1.976   4.235 -0.2862  0.3431 -0.2792
46444SOL    HW149646   4.461   2.024   4.296 -0.1434  1.4536 -1.2417
46444SOL    HW249647   4.333   1.944   4.289 -0.3561  1.6108  0.4330
46445SOL     OW49648   2.133   5.365  11.532  0.6217  0.1766 -0.1937
46445SOL    HW149649   2.097   5.314  11.604 -0.5380  2.2791  0.8137
46445SOL    HW249650   2.064   5.365  11.465  0.0725  1.4211  0.3424
46446SOL     OW49651   1.462   7.313   0.757 -0.1365 -0.3007  0.6383
46446SOL    HW149652   1.488   7.337   0.668  1.0446  1.5728  1.4097
46446SOL    HW249653   1.401   7.240   0.746  0.1131 -0.2334 -1.6795
46447SOL     OW49654   9.889  12.747   8.118  0.2453 -0.0319 -0.2923
46447SOL    HW149655   9.832  12.702   8.055 -1.1708  1.0148  0.1885
46447SOL    HW249656   9.956  12.789   8.064 -0.5304  0.2496 -1.0697
46448SOL     OW49657   6.029   2.038   7.937  0.3468 -0.5077  0.0320
46448SOL    HW149658   6.003   2.130   7.939  1.4695 -0.1907  1.3727
46448SOL    HW249659   6.101   2.036   7.873  0.8083 -0.2985  0.5334
46449SOL     OW49660   3.041   8.798   7.957  0.7118 -0.0802 -0.4371
46449SOL    HW149661   3.116   8.823   7.904  1.5563  0.0146  0.7756
46449SOL    HW249662   3.016   8.878   8.004 -0.9893  0.2461 -1.7811
46450SOL     OW49663   1.734   0.615   2.206 -0.4101 -0.2731 -0.6577
46450SOL    HW149664   1.797   0.621   2.277 -1.6663  0.1595  0.4537
46450SOL    HW249665   1.787   0.603   2.127  1.0664  0.5397  0.1861
46451SOL     OW49666   5.726   0.339  10.064 -0.6392 -0.2186  0.4614
46451SOL    HW149667   5.695   0.429  10.070 -1.9944 -0.4869 -1.7510
46451SOL    HW249668   5.743   0.314  10.155 -0.0225  2.2957  1.1214
46452SOL     OW49669   2.476   9.152   0.562  0.0786  0.4456  0.1612
46452SOL    HW149670   2.475   9.079   0.499  2.9208  0.2084  0.2415
46452SOL    HW249671   2.480   9.109   0.648  1.0479  0.6791  0.2416
46453SOL     OW49672  12.335  11.084   4.342  0.0124 -0.6708  0.3435
46453SOL    HW149673  12.316  11.155   4.281 -0.6596  0.3106  1.6409
46453SOL    HW249674  12.429  11.070   4.336  0.1764  0.4448  0.1813
46454SOL     OW49675   6.133  12.727  10.032  0.1120  0.0201  0.3238
46454SOL    HW149676   6.197  12.700  10.098  0.0630 -0.1549  0.3009
46454SOL    HW249677   6.050  12.733  10.080  0.1925  0.4939  0.4075
46455SOL     OW49678  11.514  12.691   5.237  0.4000  0.0734 -0.4200
46455SOL    HW149679  11.522  12.668   5.329 -1.2820  1.3641  0.0811
46455SOL    HW249680  11.582  12.639   5.194 -1.0580 -3.3429  1.0275
46456SOL     OW49681   8.920  12.039  11.466  0.0281  0.0178 -0.2968
46456SOL    HW149682   8.934  11.980  11.391 -0.4500 -0.7342  0.1970
46456SOL    HW249683   8.963  12.121  11.439 -0.6950 -0.0186 -1.6743
46457SOL     OW49684  11.228  11.442   6.231 -0.0195  0.1565 -0.1913
46457SOL    HW149685  11.315  11.481   6.219  1.0813 -2.5079 -1.8534
46457SOL    HW249686  11.205  11.408   6.145 -1.8634 -0.8570  0.6540
46458SOL     OW49687   4.520   3.160   3.010  0.1576  0.1894 -0.5267
46458SOL    HW149688   4.587   3.147   2.942  0.3271 -2.3044 -0.0035
46458SOL    HW249689   4.438   3.135   2.968  0.0154  0.2545 -0.2908
46459SOL     OW49690   1.920   2.364   2.335  0.1664 -0.0303 -0.4327
46459SOL    HW149691   1.864   2.298   2.375 -0.3096  0.0533 -0.9540
46459SOL    HW249692   2.002   2.318   2.318  0.1673 -0.2274  0.0831
46460SOL     OW49693  10.667  10.363  12.021  0.4518  0.0585  0.1972
46460SOL    HW149694  10.602  10.350  11.953 -1.5448 -2.0343  2.2990
46460SOL    HW249695  10.751  10.357  11.976 -0.7645  0.5666 -2.2823
46461SOL     OW49696   7.411  12.244   5.590 -0.1049 -0.3608 -0.0157
46461SOL    HW149697   7.437  12.152   5.583 -3.1496 -1.3108 -0.4491
46461SOL    HW249698   7.357  12.259   5.512  0.5772  1.9252 -0.1023
46462SOL     OW49699   8.836  10.493   5.629 -0.0120  0.3406  0.6044
46462SOL    HW149700   8.752  10.506   5.673  0.6243  0.1539  1.9368
46462SOL    HW249701   8.840  10.399   5.612  0.0951  0.2841  0.9265
46463SOL     OW49702   6.765  11.633   9.775 -0.2462  0.2385  0.0326
46463SOL    HW149703   6.742  11.611   9.865  0.7816  0.1818  0.2914
46463SOL    HW249704   6.748  11.552   9.726 -2.0561  0.6452 -0.0909
46464SOL     OW49705  12.822   4.857   8.938 -0.1822  0.1712 -0.4584
46464SOL    HW149706  12.910   4.829   8.912 -0.4886 -2.5525  1.0814
46464SOL    HW249707  12.837   4.913   9.014  0.2574  0.5576 -0.8248
46465SOL     OW49708  10.750   8.752  11.421  0.3725 -0.3128 -0.8269
46465SOL    HW149709  10.760   8.847  11.420 -2.2698  0.0901  1.2977
46465SOL    HW249710  10.705   8.732  11.339  0.0455  0.3983 -0.8248
46466SOL     OW49711   1.307  11.814   0.261  0.0527 -0.3257  0.3412
46466SOL    HW149712   1.215  11.803   0.286  0.0549 -0.7028  0.1821
46466SOL    HW249713   1.356  11.763   0.326  0.2413  0.8668  1.1787
46467SOL     OW49714   2.300  12.874  12.347 -0.3062  0.2322  0.0690
46467SOL    HW149715   2.385  12.839  12.375 -0.9268 -0.8641  0.6421
46467SOL    HW249716   2.273  12.816  12.276 -1.6334 -0.9173  1.4345
46468SOL     OW49717   9.074   4.122   2.391 -0.2380  0.1255  0.1288
46468SOL    HW149718   9.146   4.061   2.376 -0.2035  0.2447 -0.2078
46468SOL    HW249719   9.109   4.207   2.363  0.3793  0.6609  2.3678
46469SOL     OW49720   5.952   6.500   3.380  0.4908  0.1611 -0.2624
46469SOL    HW149721   5.876   6.554   3.404 -0.9617 -0.9114 -2.2175
46469SOL    HW249722   5.984   6.540   3.299  2.5111  1.0016  0.8686
46470SOL     OW49723   6.325   5.506   3.338  0.7768 -0.0924  0.2759
46470SOL    HW149724   6.364   5.560   3.406  0.7463  1.2077 -0.6950
46470SOL    HW249725   6.382   5.519   3.262  0.8874 -1.6167  0.0748
46471SOL     OW49726   8.306   9.434   5.505 -0.0196  0.0419 -0.3534
46471SOL    HW149727   8.261   9.479   5.577 -1.6295 -1.3036 -0.4737
46471SOL    HW249728   8.380   9.491   5.484 -0.8576  1.6327  0.8083
46472SOL     OW49729  10.986  12.519  12.322 -0.6677  0.8056  0.2279
46472SOL    HW149730  10.907  12.510  12.375 -0.8968 -1.0506 -0.3572
46472SOL    HW249731  11.053  12.549  12.383 -1.1161 -0.4837  1.3952
46473SOL     OW49732   6.411  10.540   1.198 -0.7139  0.0234 -0.7196
46473SOL    HW149733   6.358  10.554   1.276  0.3752 -0.0613  0.0663
46473SOL    HW249734   6.398  10.619   1.145 -1.8478 -0.1382 -0.7069
46474SOL     OW49735   3.308  12.016   1.060 -0.6148  0.0479 -0.8823
46474SOL    HW149736   3.249  11.966   1.003  0.6780  0.3791 -2.5913
46474SOL    HW249737   3.335  12.091   1.007  0.1335  0.7301  0.4162
46475SOL     OW49738   5.621   3.346   9.296  0.5573  0.2202 -0.2435
46475SOL    HW149739   5.536   3.389   9.307 -0.2335 -0.8900 -1.6336
46475SOL    HW249740   5.677   3.414   9.257 -0.8136 -0.0411 -2.8829
46476SOL     OW49741  10.241   8.603   2.386  0.0720 -0.5654 -0.4310
46476SOL    HW149742  10.146   8.615   2.376  0.1232  0.7434  0.4007
46476SOL    HW249743  10.254   8.509   2.374 -1.1530 -0.5973 -1.8624
46477SOL     OW49744   1.216  11.669   1.372  0.2491  0.0348 -0.3005
46477SOL    HW149745   1.186  11.672   1.281  2.5149  2.6476 -1.1028
46477SOL    HW249746   1.141  11.700   1.423  0.1535  2.4247 -1.7678
46478SOL     OW49747  10.569  12.071   1.587  0.1580 -0.2207  0.4862
46478SOL    HW149748  10.535  12.152   1.550 -2.0589 -0.8113  1.0851
46478SOL    HW249749  10.576  12.089   1.681  0.0795 -0.5873  0.5625
46479SOL     OW49750   9.641   2.217   1.329 -0.0308  0.4265 -0.3075
46479SOL    HW149751   9.627   2.244   1.420  0.0986 -1.7736  0.4116
46479SOL    HW249752   9.731   2.242   1.310  0.2148  0.1470  0.4520
46480SOL     OW49753  12.167   2.290  10.149  0.1558 -0.3127  0.2321
46480SOL    HW149754  12.135   2.218  10.203 -0.9073  1.2770  1.8501
46480SOL    HW249755  12.247   2.256  10.108 -0.2781 -2.3633  0.9599
46481SOL     OW49756  11.323   0.924  12.425  0.3104  0.3617  0.1436
46481SOL    HW149757  11.366   1.009  12.420  2.8080 -0.7997  0.3080
46481SOL    HW249758  11.265   0.922  12.349  0.5797  1.9817 -0.1420
46482SOL     OW49759   0.252   7.337  12.839  0.3386  0.7076 -0.6362
46482SOL    HW149760   0.163   7.372  12.827  0.5168  1.8488  1.0550
46482SOL    HW249761   0.309   7.414  12.837  1.1155  0.1607 -0.1315
46483SOL     OW49762   9.335  10.468  10.294 -0.9388  0.0328  0.2318
46483SOL    HW149763   9.265  10.458  10.359  1.2095 -4.2371  2.3037
46483SOL    HW249764   9.347  10.380  10.258  3.9510  0.2106  0.7576
46484SOL     OW49765   4.440   7.788   3.343 -0.3684 -0.1355  0.6723
46484SOL    HW149766   4.414   7.728   3.273 -0.8188 -0.2583  0.9416
46484SOL    HW249767   4.513   7.743   3.387 -0.6354 -0.4429  0.8068
46485SOL     OW49768   7.421  10.851   2.975  0.3024  0.2437  0.3136
46485SOL    HW149769   7.431  10.840   3.070  2.1160  1.2195  0.2840
46485SOL    HW249770   7.329  10.871   2.962  0.1981  0.9992  1.9768
46486SOL     OW49771  10.068   9.121   9.910  0.1194  0.1556 -0.0884
46486SOL    HW149772  10.093   9.031   9.886 -0.5014  0.1694 -0.8265
46486SOL    HW249773  10.117   9.176   9.848  0.9886  0.3757  0.7675
46487SOL     OW49774   2.671   7.953   9.255 -0.1223 -0.0330 -0.2518
46487SOL    HW149775   2.671   7.857   9.261 -1.3747  0.0122  0.9197
46487SOL    HW249776   2.726   7.982   9.327 -0.3049  0.1431 -0.1818
46488SOL     OW49777   6.074  12.295   2.718 -0.8174 -0.2917 -0.4785
46488SOL    HW149778   6.048  12.226   2.779 -1.0748 -1.1452 -1.5067
46488SOL    HW249779   6.169  12.298   2.724 -0.8467 -0.3296  0.0082
46489SOL     OW49780  12.601  10.405   7.641 -0.0916  0.4299  0.2738
46489SOL    HW149781  12.694  10.383   7.644 -0.4487 -1.3079 -0.2274
46489SOL    HW249782  12.574  10.409   7.733  0.2962  0.1110  0.4035
46490SOL     OW49783   1.113   1.018   5.687  0.4036  0.4474  0.0324
46490SOL    HW149784   1.132   0.942   5.633 -0.4543 -0.1417  0.5316
46490SOL    HW249785   1.099   0.983   5.775  4.1407  1.5881  1.2985
46491SOL     OW49786   4.119  12.082   0.868  0.4615 -0.2214  0.3399
46491SOL    HW149787   4.119  12.178   0.862  0.2946 -0.1789  0.9615
46491SOL    HW249788   4.210  12.057   0.853  0.7335  0.1209  1.3587
46492SOL     OW49789   4.070  11.491   4.814 -0.0372  0.0204 -0.0452
46492SOL    HW149790   4.015  11.462   4.888  0.0411 -0.1021 -0.0344
46492SOL    HW249791   4.063  11.420   4.750  0.1294 -0.0072 -0.0328
46493SOL     OW49792   9.081   1.219   3.434  0.8596  0.5413  0.4176
46493SOL    HW149793   9.129   1.219   3.517  0.5627 -0.1264  0.5984
46493SOL    HW249794   9.011   1.154   3.447 -0.7095  2.1937  0.5188
46494SOL     OW49795  10.891   2.296   7.782  0.0792  0.1134  0.2741
46494SOL    HW149796  10.920   2.343   7.703 -0.5707 -0.5319 -0.3587
46494SOL    HW249797  10.933   2.343   7.854  3.3611 -1.1736 -0.5913
46495SOL     OW49798   4.445   2.391   2.621  0.3586 -0.2332 -0.1224
46495SOL    HW149799   4.432   2.478   2.659  1.9488  0.9868 -2.1691
46495SOL    HW249800   4.539   2.383   2.610  0.1126 -1.3971 -1.7490
46496SOL     OW49801  10.088   4.368   0.208 -0.1969 -0.4930  0.6658
46496SOL    HW149802  10.033   4.417   0.146 -0.1215 -0.9479  0.2273
46496SOL    HW249803  10.039   4.288   0.225  1.4388 -2.1602 -1.7880
46497SOL     OW49804   4.272  10.905  10.865  0.2707 -0.5490  0.2187
46497SOL    HW149805   4.245  10.824  10.822 -1.9235  0.9540 -1.4388
46497SOL    HW249806   4.346  10.937  10.813  0.2692 -0.7977  0.0658
46498SOL     OW49807  10.576   9.997   1.758  0.1169  0.3079  0.3750
46498SOL    HW149808  10.521   9.951   1.822  1.0434 -0.8160  0.4167
46498SOL    HW249809  10.664   9.961   1.773  0.8200  1.8732  0.1567
46499SOL     OW49810   0.178   3.272   0.649  0.3556  0.6559 -0.4772
46499SOL    HW149811   0.222   3.333   0.590  1.7266 -0.3104 -0.5052
46499SOL    HW249812   0.135   3.328   0.714  1.6115  1.6564 -0.4737
46500SOL     OW49813   9.094  10.247   3.287  0.5759  0.2800  0.2917
46500SOL    HW149814   9.086  10.336   3.251 -1.1800  0.5467  1.2161
46500SOL    HW249815   9.020  10.200   3.249  1.3268 -0.7186  0.0412
46501SOL     OW49816  10.675   1.756   3.199  0.3688 -0.5105  0.3483
46501SOL    HW149817  10.587   1.783   3.175 -0.1181 -0.7105  1.8081
46501SOL    HW249818  10.694   1.803   3.280  1.7797 -0.1452 -0.1671
46502SOL     OW49819   5.305   8.353   6.909 -0.3295  0.1265  0.4221
46502SOL    HW149820   5.312   8.402   6.827 -1.2506  1.2537  0.9827
46502SOL    HW249821   5.284   8.419   6.975 -0.9579 -0.9405  1.3357
46503SOL     OW49822   6.759   2.609   2.161  0.5567 -0.7583 -0.4322
46503SOL    HW149823   6.670   2.611   2.125  0.3617 -2.9565 -0.1918
46503SOL    HW249824   6.754   2.662   2.241 -0.6832 -1.3219 -0.1148
46504SOL     OW49825  11.775  10.077  11.646 -0.3459 -0.0922 -0.0854
46504SOL    HW149826  11.854  10.131  11.648 -1.2085  1.2092  0.0535
46504SOL    HW249827  11.790  10.010  11.713  0.3536  0.5635  0.4314
46505SOL     OW49828   4.219   4.684   7.524 -0.3401  0.2990 -0.2349
46505SOL    HW149829   4.233   4.591   7.507 -0.7073  0.0534  0.7293
46505SOL    HW249830   4.293   4.727   7.481 -0.0626 -0.4545 -0.5384
46506SOL     OW49831   9.629   5.027   1.053 -0.0693  0.0399  0.1342
46506SOL    HW149832   9.534   5.030   1.041 -0.4961 -1.0332  2.5971
46506SOL    HW249833   9.662   4.982   0.976 -1.5424  0.3985 -0.7528
46507SOL     OW49834   1.196   9.040   2.953  0.0174  0.0970  0.1169
46507SOL    HW149835   1.159   9.125   2.977 -0.1436  0.5481 -1.6186
46507SOL    HW249836   1.278   9.061   2.907 -0.1287 -0.6567 -0.5107
46508SOL     OW49837   2.655   4.543   3.702  0.3683  0.0044  0.4739
46508SOL    HW149838   2.710   4.503   3.769  0.5918 -0.1141  0.2218
46508SOL    HW249839   2.672   4.637   3.710 -1.2152  0.2018  2.0077
46509SOL     OW49840   7.840   8.908   3.784  0.5051  0.0868  0.7521
46509SOL    HW149841   7.852   9.000   3.808  1.3327 -0.3434  2.0516
46509SOL    HW249842   7.749   8.889   3.804 -0.1511  1.0637 -1.1244
46510SOL     OW49843   7.928   9.191  11.703  0.2332 -0.1057  0.0144
46510SOL    HW149844   8.013   9.178  11.745 -0.4876 -1.5441  1.1139
46510SOL    HW249845   7.868   9.135  11.752 -0.6852 -1.8811 -2.8822
46511SOL     OW49846   3.422   4.464  11.961 -0.8244 -0.0485 -0.0527
46511SOL    HW149847   3.360   4.395  11.986 -0.6378 -0.1765  0.0627
46511SOL    HW249848   3.481   4.470  12.036 -0.8281  0.2246 -0.0717
46512SOL     OW49849   8.002  10.821   6.438  0.0222  0.5294  0.1118
46512SOL    HW149850   8.029  10.913   6.435 -2.3314  1.2811 -1.4635
46512SOL    HW249851   8.017  10.789   6.349  3.4639 -1.5804  1.2786
46513SOL     OW49852  10.652   9.140  10.173 -0.3694 -0.2647  0.3710
46513SOL    HW149853  10.725   9.141  10.111 -1.2493 -2.4649 -0.8008
46513SOL    HW249854  10.582   9.185  10.126 -0.4480 -0.1888  0.5646
46514SOL     OW49855   7.857  10.317  11.124  0.5249  0.2616 -0.0361
46514SOL    HW149856   7.858  10.381  11.052  2.1362  1.0731  0.6589
46514SOL    HW249857   7.899  10.363  11.197  0.8274 -1.2765  0.7852
46515SOL     OW49858  10.977   9.280   2.430 -0.3583 -0.1941  0.4618
46515SOL    HW149859  10.964   9.261   2.523  1.3924  0.3764  0.8604
46515SOL    HW249860  11.056   9.231   2.407 -0.2909  0.3556 -0.4997
46516SOL     OW49861   3.558   5.244  11.263  0.2411 -0.1940 -0.4065
46516SOL    HW149862   3.515   5.168  11.302 -0.0153 -0.4765 -1.2145
46516SOL    HW249863   3.650   5.235  11.286 -0.0804  0.3531  1.2534
46517SOL     OW49864  10.785   8.762   7.199  0.1927  0.0789  0.3158
46517SOL    HW149865  10.800   8.691   7.135  0.4195  1.0603 -0.7492
46517SOL    HW249866  10.719   8.817   7.158 -0.8269 -0.1134  1.6473
46518SOL     OW49867   0.517   6.448  12.013  0.2099 -0.0207  0.1214
46518SOL    HW149868   0.565   6.471  12.092  0.5285  0.3102 -0.1664
46518SOL    HW249869   0.456   6.380  12.041  1.2913 -0.9295  0.3569
46519SOL     OW49870   3.895   5.795   7.815  0.4703 -0.6848  0.1152
46519SOL    HW149871   3.886   5.701   7.828  3.0322 -0.9490  0.3910
46519SOL    HW249872   3.841   5.814   7.738  0.5343 -2.5115 -0.4236
46520SOL     OW49873   0.773   0.470   0.133 -0.1298  0.2454 -0.1104
46520SOL    HW149874   0.809   0.549   0.174  0.5342 -1.4170  2.7431
46520SOL    HW249875   0.680   0.471   0.157 -0.3670  0.6325 -0.9768
46521SOL     OW49876  11.812   5.542  10.601  0.4625  0.5298 -0.2469
46521SOL    HW149877  11.866   5.494  10.538  0.1812  0.0295 -0.1109
46521SOL    HW249878  11.739   5.484  10.619  0.1738  0.9680  0.0065
46522SOL     OW49879   1.932   0.684  11.551 -0.4404  0.3391 -0.2310
46522SOL    HW149880   1.906   0.724  11.468  0.6394 -0.4559 -0.9830
46522SOL    HW249881   1.953   0.758  11.607  0.1539  0.8744 -1.1320
46523SOL     OW49882   8.016   6.352  11.320  0.4278 -0.3417  0.3034
46523SOL    HW149883   8.041   6.443  11.308  1.3304 -0.5445  0.5209
46523SOL    HW249884   8.099   6.306  11.333 -0.1286 -0.8506  2.5488
46524SOL     OW49885   6.619   7.100   8.106 -0.1495  0.0823  0.3456
46524SOL    HW149886   6.580   7.187   8.113 -0.6937 -0.2851  2.1809
46524SOL    HW249887   6.698   7.114   8.052 -0.4630  1.6136  0.2381
46525SOL     OW49888   9.569   4.510   3.650 -0.5899  0.3497 -0.6913
46525SOL    HW149889   9.591   4.424   3.615  0.2010 -0.3524  1.3985
46525SOL    HW249890   9.619   4.571   3.596 -1.4346 -0.4177 -2.4382
46526SOL     OW49891   9.316   1.571   0.706 -0.1455  0.1942  0.2224
46526SOL    HW149892   9.407   1.596   0.689 -0.4700  1.5753  0.4232
46526SOL    HW249893   9.296   1.505   0.639  0.4690  1.1466 -0.9418
46527SOL     OW49894   5.653   6.423   9.211 -0.5601  0.4499  0.5240
46527SOL    HW149895   5.614   6.498   9.167 -0.8609  0.8475  1.4326
46527SOL    HW249896   5.741   6.416   9.173 -1.0134  0.4169 -0.5309
46528SOL     OW49897  10.306   5.742   2.346  0.5943  0.4761  0.5593
46528SOL    HW149898  10.368   5.675   2.316 -0.2829  0.2662 -0.8836
46528SOL    HW249899  10.220   5.711   2.317  0.1099  1.9852  0.2703
46529SOL     OW49900   4.346   6.575  10.371 -0.3948 -0.7467  0.2941
46529SOL    HW149901   4.274   6.566  10.433  0.7082  0.1316  1.7805
46529SOL    HW249902   4.320   6.647  10.314 -1.7052 -1.9787 -0.7078
46530SOL     OW49903   0.899  12.212   4.221 -0.1703  0.5728  0.1561
46530SOL    HW149904   0.831  12.173   4.276 -0.4289 -0.2118 -0.6890
46530SOL    HW249905   0.981  12.183   4.260 -0.3555 -1.5489 -0.9118
46531SOL     OW49906   9.793   0.124   3.626  0.2886  0.2795  0.1527
46531SOL    HW149907   9.848   0.131   3.704  1.6413  1.2411 -0.8624
46531SOL    HW249908   9.852   0.097   3.556 -0.7395  0.2700 -0.7516
46532SOL     OW49909   8.232   1.672  10.685 -0.2553 -0.2523  0.2388
46532SOL    HW149910   8.172   1.745  10.698  1.4499  1.4419 -1.0052
46532SOL    HW249911   8.227   1.622  10.766 -1.7975  0.9660  0.9437
46533SOL     OW49912   5.094   2.931   9.439 -0.0397 -0.1213  0.3105
46533SOL    HW149913   5.011   2.895   9.409  0.0447 -1.3365  1.4766
46533SOL    HW249914   5.160   2.887   9.385 -0.1309  1.2323 -0.9902
46534SOL     OW49915   3.450  12.341   5.613  0.3345 -0.4943  0.7500
46534SOL    HW149916   3.385  12.358   5.681 -0.7264 -0.6698 -0.1821
46534SOL    HW249917   3.495  12.262   5.641 -1.2218 -1.5167  0.4582
46535SOL     OW49918   1.778   2.737  12.108 -0.5902  0.0876 -0.3174
46535SOL    HW149919   1.826   2.708  12.186 -0.5254 -0.3072 -0.5018
46535SOL    HW249920   1.840   2.794  12.062 -1.2995  1.9352  0.9101
46536SOL     OW49921   0.638   3.666   8.363  0.1292  0.4940  0.3036
46536SOL    HW149922   0.651   3.619   8.281 -1.5466  2.1553 -0.9914
46536SOL    HW249923   0.556   3.631   8.398 -1.2361  2.4332 -0.7677
46537SOL     OW49924   6.683   5.753   7.165  0.2739  0.0836  0.1701
46537SOL    HW149925   6.601   5.730   7.210 -0.3256  0.9240 -0.4508
46537SOL    HW249926   6.751   5.707   7.214 -0.4653  0.1435  1.3021
46538SOL     OW49927  12.244   9.369   2.252 -0.7378 -0.3055  0.2198
46538SOL    HW149928  12.307   9.415   2.197 -1.5911  0.0009 -0.5300
46538SOL    HW249929  12.268   9.276   2.242 -1.0073 -0.2779 -0.8576
46539SOL     OW49930   9.985   6.739  12.884  0.7479  0.2784  0.1888
46539SOL    HW149931  10.070   6.739  12.928  0.9619  0.8603 -0.2138
46539SOL    HW249932   9.971   6.831  12.859 -0.1486  0.2462  0.5445
46540SOL     OW49933  10.806   0.868   7.371  0.2510 -0.2949 -0.0037
46540SOL    HW149934  10.800   0.927   7.296 -1.8602 -0.1789  0.1995
46540SOL    HW249935  10.773   0.784   7.338 -0.1156 -0.4053  0.6344
46541SOL     OW49936   1.644   5.074  11.841  0.1391 -0.1476  0.2849
46541SOL    HW149937   1.581   5.055  11.910  1.6132  0.4539  1.8847
46541SOL    HW249938   1.707   5.002  11.845  3.7324  2.6710  3.9691
46542SOL     OW49939   9.471   7.938   0.151 -0.3197  0.3292 -0.0531
46542SOL    HW149940   9.439   8.027   0.161  0.1603  0.5553 -0.4712
46542SOL    HW249941   9.539   7.929   0.217 -1.4086 -0.2412  1.0192
46543SOL     OW49942   4.609   7.098   0.138  0.1876 -0.2100  0.8180
46543SOL    HW149943   4.538   7.161   0.131  0.8287  0.3647 -1.0943
46543SOL    HW249944   4.592   7.034   0.070  2.0192  0.5320 -0.4217
46544SOL     OW49945   9.066   3.425   5.410 -0.2345 -0.4958 -0.1557
46544SOL    HW149946   9.051   3.481   5.334  1.0256 -2.8409 -2.2279
46544SOL    HW249947   9.161   3.427   5.423 -0.2415 -1.6308  0.1397
46545SOL     OW49948  11.731   7.967  10.988  0.5008 -0.2535 -0.0821
46545SOL    HW149949  11.681   8.037  10.946  0.4064 -1.0839 -1.4107
46545SOL    HW249950  11.817   7.970  10.946  1.2016  0.3747  1.3268
46546SOL     OW49951   9.690   8.734   1.720 -0.1172  0.2440 -0.1854
46546SOL    HW149952   9.597   8.753   1.734 -0.0493 -0.1110  0.8706
46546SOL    HW249953   9.691   8.659   1.661 -0.5319 -0.3505  0.5470
46547SOL     OW49954  12.112   7.807   4.718  0.4241  0.2624  0.5174
46547SOL    HW149955  12.107   7.889   4.668  2.4886  0.5096  0.6305
46547SOL    HW249956  12.156   7.831   4.799  1.3148 -1.0005  0.4327
46548SOL     OW49957   7.649   8.955  12.076  0.6954 -0.5913  0.2247
46548SOL    HW149958   7.661   9.048  12.094 -0.4720 -0.7691  2.2815
46548SOL    HW249959   7.569   8.950  12.025  1.2259 -0.4458 -0.6525
46549SOL     OW49960   7.524   2.745   7.898 -0.6132 -0.2705 -0.2127
46549SOL    HW149961   7.579   2.817   7.867 -1.9579  0.8204 -0.1167
46549SOL    HW249962   7.579   2.667   7.886  2.0574  1.0025  2.4620
46550SOL     OW49963   5.397   4.664   5.720  0.1527  0.0525 -0.9002
46550SOL    HW149964   5.398   4.751   5.679  1.3426 -0.4254 -1.9701
46550SOL    HW249965   5.459   4.613   5.668  2.0114 -0.5326  1.6813
46551SOL     OW49966   6.373   5.022   7.648  0.2394 -0.3254 -0.2719
46551SOL    HW149967   6.431   4.949   7.626 -0.3308 -0.7538 -0.3721
46551SOL    HW249968   6.334   5.048   7.564  1.6594  1.1924 -0.5399
46552SOL     OW49969   1.706   6.414   2.929 -0.9092 -0.4261  0.2558
46552SOL    HW149970   1.681   6.489   2.875  1.5542 -0.1539 -0.6502
46552SOL    HW249971   1.727   6.451   3.014 -0.8136 -0.2652  0.1617
46553SOL     OW49972   6.228   0.542   7.610  0.1822  0.2006 -0.2729
46553SOL    HW149973   6.177   0.520   7.533 -1.3212 -1.2216  1.0684
46553SOL    HW249974   6.171   0.599   7.661 -1.2021 -3.1563  2.3117
46554SOL     OW49975   5.152  11.031   3.346 -0.1315 -0.5305 -1.0191
46554SOL    HW149976   5.232  11.019   3.398 -0.2256  0.7782 -0.5334
46554SOL    HW249977   5.169  11.109   3.293 -1.5684  0.6237  0.1151
46555SOL     OW49978   1.596  12.312   4.291  0.2384  0.2362 -0.0638
46555SOL    HW149979   1.638  12.398   4.290  1.5011 -0.3614 -0.9716
46555SOL    HW249980   1.593  12.286   4.199  0.4501 -0.9623  0.2559
46556SOL     OW49981   3.170  12.805   9.080 -0.6412 -0.7054 -0.4298
46556SOL    HW149982   3.127  12.879   9.124 -2.0320 -1.3305 -0.6636
46556SOL    HW249983   3.240  12.844   9.029 -1.8043  0.5658 -1.1219
46557SOL     OW49984   1.879   8.769   9.225 -0.3786  0.8654 -0.2934
46557SOL    HW149985   1.812   8.719   9.177  1.0849 -0.2415 -1.2920
46557SOL    HW249986   1.830   8.838   9.270 -2.1561  0.2177 -1.1259
46558SOL     OW49987  10.004   8.582   6.853 -0.5326  0.1201  0.5152
46558SOL    HW149988   9.974   8.542   6.934 -3.9968  1.7814  0.2287
46558SOL    HW249989   9.954   8.539   6.784  0.0839  0.8306 -0.4076
46559SOL     OW49990  11.523   6.307   2.403  0.4543 -0.2353  0.1346
46559SOL    HW149991  11.561   6.290   2.316  0.7818 -0.8510  0.3894
46559SOL    HW249992  11.527   6.222   2.448 -0.6868 -0.1714  0.3840
46560SOL     OW49993   0.268   1.580   7.159  0.5543 -0.3241 -0.1673
46560SOL    HW149994   0.251   1.672   7.177  1.4321 -0.1783 -0.0132
46560SOL    HW249995   0.360   1.568   7.184  0.7353 -1.0044 -1.1291
46561SOL     OW49996   1.611   7.173   6.930  0.4204 -0.3011 -0.4606
46561SOL    HW149997   1.688   7.172   6.987 -0.3922  1.0823  0.7081
46561SOL    HW249998   1.566   7.254   6.951 -0.7364 -0.5023 -1.9972
46562SOL     OW49999   2.009   6.268   1.100 -0.2674  0.3865 -0.0226
46562SOL    HW150000   1.973   6.357   1.109  0.1883  0.6679 -0.8503
46562SOL    HW250001   2.096   6.273   1.140 -1.1121 -0.3142  2.0492
46563SOL     OW50002   0.939   5.770   1.119  0.4995  0.5959 -0.1743
46563SOL    HW150003   0.980   5.856   1.107  2.2121 -0.0253  0.8642
46563SOL    HW250004   0.860   5.773   1.065  0.1899  3.0290  0.3197
46564SOL     OW50005   3.525   0.372   7.000 -0.2629 -0.3018 -0.4803
46564SOL    HW150006   3.525   0.291   6.950  1.6055 -1.3023  0.9973
46564SOL    HW250007   3.607   0.415   6.976  0.3065 -0.4412  1.1067
46565SOL     OW50008   0.213  10.850   3.520 -0.7499 -0.5281 -1.2751
46565SOL    HW150009   0.141  10.899   3.481 -0.6659  0.0752 -0.6841
46565SOL    HW250010   0.292  10.891   3.483 -0.6886 -0.5241 -1.1403
46566SOL     OW50011  11.543  12.872   1.615  0.0111 -0.0231  0.1791
46566SOL    HW150012  11.462  12.860   1.564  0.2991 -0.7346 -0.1279
46566SOL    HW250013  11.556  12.788   1.659 -0.0809  0.4972  1.2226
46567SOL     OW50014  10.395   3.932   8.158 -0.0535  0.1699  0.0034
46567SOL    HW150015  10.329   4.001   8.163 -3.1799 -2.5601 -0.5149
46567SOL    HW250016  10.421   3.931   8.066  1.9661  2.1992  0.4679
46568SOL     OW50017   7.701   6.552   5.361 -0.4341  0.1207 -0.2341
46568SOL    HW150018   7.624   6.509   5.325 -0.2169  0.3517 -0.9896
46568SOL    HW250019   7.724   6.500   5.438 -1.3210  0.0355 -0.0240
46569SOL     OW50020   3.147   0.460  10.133  0.4403 -0.7135  0.1303
46569SOL    HW150021   3.065   0.504  10.154 -0.0625 -1.2412 -0.6618
46569SOL    HW250022   3.205   0.479  10.207 -0.2907 -0.0783  0.5492
46570SOL     OW50023  11.012   4.095  12.248  0.3680 -0.0937 -0.3611
46570SOL    HW150024  11.064   4.015  12.254 -0.1594 -0.4100  0.3173
46570SOL    HW250025  11.068   4.164  12.283  0.2248 -0.4973  0.7203
46571SOL     OW50026   4.951   9.128   8.929 -0.0183 -0.4467 -0.2764
46571SOL    HW150027   4.916   9.119   9.017 -0.4383 -0.0633 -0.4005
46571SOL    HW250028   4.951   9.038   8.894 -1.7615 -0.3564 -0.6007
46572SOL     OW50029   7.254   7.622  11.761  0.4796  0.4934 -0.3517
46572SOL    HW150030   7.330   7.573  11.729  0.1407  0.1901 -0.7064
46572SOL    HW250031   7.251   7.701  11.707  1.5103  1.3260  0.7724
46573SOL     OW50032   1.733   4.182  11.174  0.3628 -0.0016 -0.3294
46573SOL    HW150033   1.705   4.094  11.198  0.3145 -0.4384 -1.8841
46573SOL    HW250034   1.657   4.220  11.130  0.2398  0.9867  0.7039
46574SOL     OW50035   2.694   1.105  11.833 -0.2634  0.0723  0.3182
46574SOL    HW150036   2.690   1.014  11.804 -1.1016  0.1657  0.1064
46574SOL    HW250037   2.710   1.099  11.928 -3.1482 -0.4147  0.8671
46575SOL     OW50038   5.503   6.470   1.489  0.7244  0.2379  0.2133
46575SOL    HW150039   5.462   6.464   1.576  1.0996  0.4960  0.4066
46575SOL    HW250040   5.532   6.560   1.482 -0.7217  0.6605 -0.8335
46576SOL     OW50041  12.854   7.213   3.928 -0.1271  0.2345 -0.1066
46576SOL    HW150042  12.788   7.236   3.863  1.8470  2.8416 -1.3674
46576SOL    HW250043  12.839   7.274   4.001  0.6523  0.6126 -0.2551
46577SOL     OW50044   1.717   5.996   5.505  0.1587  0.5440 -0.1237
46577SOL    HW150045   1.653   6.037   5.447  1.4821  2.4888 -0.2928
46577SOL    HW250046   1.802   6.027   5.473  0.9416  2.0886  3.0560
46578SOL     OW50047   2.342  12.561   8.193  0.0602  1.1359 -0.2613
46578SOL    HW150048   2.393  12.579   8.272 -0.7387 -1.6680  1.0182
46578SOL    HW250049   2.372  12.476   8.163 -1.5787  0.8881 -1.3663
46579SOL     OW50050  12.269  11.278  11.608  0.6170  0.1286 -0.5466
46579SOL    HW150051  12.289  11.290  11.701  1.8351  0.1568 -0.7977
46579SOL    HW250052  12.236  11.363  11.579 -0.7261 -0.1584  0.0745
46580SOL     OW50053   0.674   3.137  10.408 -0.3170  0.4024 -0.1344
46580SOL    HW150054   0.740   3.192  10.448  0.7021 -0.9194  0.0666
46580SOL    HW250055   0.602   3.136  10.470  0.5960 -0.3311  0.9524
46581SOL     OW50056   7.251   9.417   9.781 -0.1709  0.4617  0.7343
46581SOL    HW150057   7.156   9.419   9.792 -0.3062 -0.2439 -0.1145
46581SOL    HW250058   7.275   9.507   9.760 -0.9699  0.2902 -1.1628
46582SOL     OW50059   8.921   2.334  12.040  0.1864  0.6740  0.1433
46582SOL    HW150060   8.838   2.363  12.077  0.7335  1.1055  1.0530
46582SOL    HW250061   8.931   2.244  12.071  0.2123  0.7297  0.2951
46583SOL     OW50062   6.837   4.445   8.649  0.0527 -0.0143 -0.2869
46583SOL    HW150063   6.916   4.412   8.692 -0.5269 -0.3521  0.5438
46583SOL    HW250064   6.864   4.463   8.559  0.9020 -0.8090 -0.2025
46584SOL     OW50065   9.773   8.422   2.936  0.0895 -0.2111  0.1154
46584SOL    HW150066   9.828   8.399   2.861 -0.4621  1.9977 -1.0551
46584SOL    HW250067   9.686   8.390   2.913  0.5194 -2.4248  1.3290
46585SOL     OW50068   6.399  11.394   5.698  0.4405  0.2929  0.1751
46585SOL    HW150069   6.376  11.327   5.762 -0.8735  1.2603  0.7854
46585SOL    HW250070   6.361  11.363   5.616 -1.2117  0.7827  0.6999
46586SOL     OW50071   3.848   5.945   5.604  0.5444  0.1292  0.0839
46586SOL    HW150072   3.936   5.954   5.568  0.6673 -1.5966 -0.1406
46586SOL    HW250073   3.844   5.854   5.635 -0.8066  0.4882  1.0557
46587SOL     OW50074   2.804   2.915   4.300 -0.1286  0.6092 -0.0036
46587SOL    HW150075   2.761   2.958   4.227  0.7944  2.3852  0.4409
46587SOL    HW250076   2.774   2.962   4.378 -1.2751 -1.3806  0.8381
46588SOL     OW50077   9.100   8.033   6.739  0.2081 -0.1297 -0.2846
46588SOL    HW150078   9.066   7.970   6.675  1.2393 -0.7276 -0.2662
46588SOL    HW250079   9.105   8.115   6.691 -0.7126 -0.1520 -0.4472
46589SOL     OW50080   5.784   8.530   5.792 -0.2246  0.1079 -0.2819
46589SOL    HW150081   5.744   8.513   5.707 -1.5268  1.7272 -0.0286
46589SOL    HW250082   5.829   8.448   5.814 -0.6593 -0.6495 -2.0810
46590SOL     OW50083   5.479   1.797  10.098  0.2729  0.2224 -0.1570
46590SOL    HW150084   5.472   1.702  10.101 -0.3508  0.2343 -0.8417
46590SOL    HW250085   5.567   1.814  10.064  0.6936 -0.0863  0.7500
46591SOL     OW50086   5.473   2.088   9.416 -0.0059  0.1858  0.1136
46591SOL    HW150087   5.505   2.166   9.370  1.3279 -1.4720 -1.9574
46591SOL    HW250088   5.408   2.121   9.478  1.2556  3.0316  0.0591
46592SOL     OW50089   3.220   9.519   4.629  0.9180  0.2566 -0.0538
46592SOL    HW150090   3.233   9.432   4.667  0.5572  0.2504  0.0603
46592SOL    HW250091   3.305   9.541   4.589  1.3500  0.3332  0.8925
46593SOL     OW50092  11.197  11.093  11.753 -0.2103  0.2914 -0.3406
46593SOL    HW150093  11.281  11.053  11.776 -0.0242  0.0574 -1.3547
46593SOL    HW250094  11.169  11.046  11.674 -1.2862  0.3898 -0.0275
46594SOL     OW50095  12.079   0.832   7.021  0.5134  0.1262  0.0879
46594SOL    HW150096  12.091   0.908   6.965 -0.6681  1.0983  1.0907
46594SOL    HW250097  11.985   0.821   7.028  0.5897 -2.8193 -1.7640
46595SOL     OW50098   0.226   4.289   6.583  0.0838  0.6620  0.1626
46595SOL    HW150099   0.236   4.272   6.676 -3.2649  0.2776  0.5817
46595SOL    HW250100   0.258   4.378   6.571  4.0057 -0.4817  0.8419
46596SOL     OW50101   0.523   8.609   4.299  0.6873 -0.5361 -0.0063
46596SOL    HW150102   0.606   8.566   4.316  0.4201 -0.9456  0.2795
46596SOL    HW250103   0.533   8.697   4.337  0.5013 -1.0567  1.2976
46597SOL     OW50104   8.689   0.226   2.818 -0.1975  0.4430  0.4040
46597SOL    HW150105   8.695   0.317   2.791 -1.0044  0.4464  0.2126
46597SOL    HW250106   8.618   0.190   2.765 -0.9000  0.0968  1.5470
46598SOL     OW50107   2.550   0.697   2.747  0.3409  0.5572 -0.7848
46598SOL    HW150108   2.643   0.694   2.767  0.2643 -1.2200 -0.5039
46598SOL    HW250109   2.542   0.763   2.678  1.5326  2.0116  0.4042
46599SOL     OW50110  10.309  11.336   3.460  0.3675 -0.3535 -0.0359
46599SOL    HW150111  10.249  11.391   3.411  1.0978  1.3001  0.8742
46599SOL    HW250112  10.366  11.297   3.392  0.0576  0.2676 -0.6594
46600SOL     OW50113   0.619   4.432   4.060  0.1217  0.1445 -0.2809
46600SOL    HW150114   0.538   4.444   4.109  0.9697  1.1200  0.9335
46600SOL    HW250115   0.635   4.337   4.063  0.2425  0.1926  1.5125
46601SOL     OW50116  12.849  10.069   9.374  0.4076  0.0724  0.1226
46601SOL    HW150117  12.763  10.045   9.338  1.5417 -0.9218 -2.0522
46601SOL    HW250118  12.895   9.986   9.383  1.9363  0.7800 -0.8860
46602SOL     OW50119  11.306   7.291   3.262 -0.8952 -0.0378  0.9255
46602SOL    HW150120  11.320   7.296   3.357 -1.6552  1.5632  0.9937
46602SOL    HW250121  11.240   7.359   3.244 -0.2842  0.1414 -0.8351
46603SOL     OW50122   1.303   5.080   0.121 -0.5339  0.1951  0.4156
46603SOL    HW150123   1.237   5.062   0.054 -0.4664 -1.3233  0.7278
46603SOL    HW250124   1.374   5.020   0.101  0.2964  1.0392  0.7561
46604SOL     OW50125   3.975   2.176   9.759  0.2209  0.1193 -0.0233
46604SOL    HW150126   3.949   2.087   9.738 -1.5762  0.4010  0.8779
46604SOL    HW250127   4.039   2.167   9.829  1.9351 -0.5245 -1.5710
46605SOL     OW50128   5.472   6.180   2.817 -1.0273 -0.1385  0.5795
46605SOL    HW150129   5.564   6.204   2.819 -1.2534  0.7385  1.4391
46605SOL    HW250130   5.444   6.196   2.727  0.2059 -2.6731 -0.3207
46606SOL     OW50131   3.868   7.373   6.023  0.4462  0.8001 -0.0782
46606SOL    HW150132   3.831   7.409   6.103 -0.3524 -1.7385  0.8032
46606SOL    HW250133   3.963   7.382   6.033  0.5217 -1.5571  2.3307
46607SOL     OW50134   8.844   9.095   6.410  0.0076  0.5173  0.1889
46607SOL    HW150135   8.772   9.120   6.467  0.4412  1.8739  0.1630
46607SOL    HW250136   8.818   9.126   6.324 -0.2109 -0.6832 -0.2045
46608SOL     OW50137   3.199   2.402   3.587 -0.8558  0.4089 -0.4700
46608SOL    HW150138   3.232   2.487   3.558 -0.0783  0.4778  0.5591
46608SOL    HW250139   3.105   2.413   3.593 -0.5683  2.4221  3.2628
46609SOL     OW50140   6.111  11.663   8.066 -0.1439  0.0863 -0.1652
46609SOL    HW150141   6.107  11.694   8.157  2.0833 -0.1270  0.0743
46609SOL    HW250142   6.088  11.739   8.013 -1.9204  0.0954  0.5474
46610SOL     OW50143  11.133   2.250   5.792  0.5934 -0.2999  0.4003
46610SOL    HW150144  11.199   2.238   5.860 -1.2276 -2.5958  1.8994
46610SOL    HW250145  11.155   2.184   5.725  0.5139 -0.2617  0.3362
46611SOL     OW50146   3.646   7.537  10.144 -0.0137  0.2138  0.6957
46611SOL    HW150147   3.648   7.442  10.153  1.1228  0.1650  0.1327
46611SOL    HW250148   3.707   7.556  10.072 -1.8831  1.2229 -0.7141
46612SOL     OW50149   2.380   6.694   5.713 -0.2254  0.2119 -0.2808
46612SOL    HW150150   2.431   6.671   5.791 -0.7982  1.2839  0.4268
46612SOL    HW250151   2.443   6.685   5.641  0.9139  1.2563  0.5352
46613SOL     OW50152   4.289   2.981   4.915  0.1978  0.6187 -0.0343
46613SOL    HW150153   4.384   2.974   4.927  0.3112  1.7057 -0.1935
46613SOL    HW250154   4.270   2.925   4.840  0.5251 -0.5670  0.7429
46614SOL     OW50155  10.897   9.354  10.097 -0.5560 -0.2668  0.1800
46614SOL    HW150156  10.966   9.415  10.122  0.3454 -0.7086 -1.1173
46614SOL    HW250157  10.840   9.404  10.038 -0.3973 -0.3759 -0.0678
46615SOL     OW50158   6.312   1.042   1.494 -0.6594  0.2791  0.4803
46615SOL    HW150159   6.260   1.106   1.445 -1.7597 -0.5585  0.5051
46615SOL    HW250160   6.258   0.963   1.494  0.0350 -0.2151  1.6789
46616SOL     OW50161   7.391  10.763  10.928 -0.3886 -0.2376  0.6942
46616SOL    HW150162   7.476  10.757  10.883 -1.0969  0.5588 -0.8332
46616SOL    HW250163   7.385  10.855  10.954 -0.1499 -0.6108  2.1833
46617SOL     OW50164   4.202   2.284   8.867  0.4234  0.6242  0.0353
46617SOL    HW150165   4.148   2.209   8.841 -0.9383  1.2561  0.9381
46617SOL    HW250166   4.167   2.358   8.817  1.2551  0.8067 -0.2829
46618SOL     OW50167   5.819   2.908  11.300  0.0987 -0.0229  0.7087
46618SOL    HW150168   5.790   2.816  11.302 -0.3617 -0.1808 -3.8258
46618SOL    HW250169   5.741   2.957  11.273  0.8218  1.4988  1.2772
46619SOL     OW50170   9.047   8.062   8.902 -0.4257  0.4324  0.4312
46619SOL    HW150171   8.965   8.109   8.884 -0.5921 -0.3308 -0.9981
46619SOL    HW250172   9.104   8.084   8.828  0.4045  0.3703  1.0358
46620SOL     OW50173  12.650   0.150   6.029  0.3142  0.0449  0.1256
46620SOL    HW150174  12.595   0.150   6.108  0.2599 -1.0826  0.1023
46620SOL    HW250175  12.617   0.078   5.977  0.3310  0.7986 -0.9642
46621SOL     OW50176   7.253   8.342   8.412  0.0671 -0.4616  0.0775
46621SOL    HW150177   7.337   8.356   8.368  0.5400 -0.9756  0.7948
46621SOL    HW250178   7.269   8.269   8.471 -0.3063  0.7478  1.7408
46622SOL     OW50179   5.492  12.005   3.431 -0.0462  0.2474  0.2553
46622SOL    HW150180   5.508  11.916   3.399 -2.2651 -0.2397  0.3287
46622SOL    HW250181   5.550  12.060   3.379 -0.9396 -0.9175 -2.1347
46623SOL     OW50182  12.724   1.836   8.010  0.7735  0.3166  0.2059
46623SOL    HW150183  12.807   1.815   7.967  0.5607  0.5007 -0.3082
46623SOL    HW250184  12.744   1.837   8.103  1.1759 -0.4149  0.1315
46624SOL     OW50185   2.962   9.451   3.344 -0.0120  0.2348 -0.2501
46624SOL    HW150186   3.027   9.471   3.277  0.1095  0.9647  0.0715
46624SOL    HW250187   2.888   9.413   3.296  0.5496 -0.3874 -0.6444
46625SOL     OW50188  10.277  11.688  11.662  0.1706  0.1783 -0.6416
46625SOL    HW150189  10.274  11.777  11.696 -0.0519  0.8759 -2.4020
46625SOL    HW250190  10.199  11.646  11.698  0.4846  0.5527  0.5179
46626SOL     OW50191   1.357  10.424   9.653 -0.0761  0.2491 -0.4625
46626SOL    HW150192   1.412  10.364   9.603  3.2841  0.9719  2.0538
46626SOL    HW250193   1.289  10.368   9.691  1.7814 -1.6714  0.2056
46627SOL     OW50194   2.297   9.879   7.638  0.2549  0.5433  0.4269
46627SOL    HW150195   2.210   9.851   7.612  0.3821 -0.1185  0.6915
46627SOL    HW250196   2.302   9.971   7.611  0.6194 -0.2591 -2.5390
46628SOL     OW50197   0.636   3.273  12.260 -0.0464  0.9002  0.0119
46628SOL    HW150198   0.633   3.193  12.312 -0.8275  0.9302  0.0260
46628SOL    HW250199   0.631   3.344  12.324 -0.9918  0.9374 -0.0831
46629SOL     OW50200  11.335   2.732   5.145 -0.1303  0.0731  0.1240
46629SOL    HW150201  11.364   2.653   5.100 -2.1587 -0.2880 -0.6524
46629SOL    HW250202  11.362   2.804   5.088  0.5431 -0.1381  0.1691
46630SOL     OW50203   1.286   4.679  10.454 -0.1231  0.3495  0.0383
46630SOL    HW150204   1.279   4.761  10.405 -0.5197  0.2907 -0.0108
46630SOL    HW250205   1.287   4.705  10.546  2.0167  0.5543 -0.0084
46631SOL     OW50206   9.859   4.807  12.510 -0.4917 -0.1438 -0.0548
46631SOL    HW150207   9.825   4.826  12.598  1.8410  1.6217  0.5435
46631SOL    HW250208   9.903   4.887  12.483 -0.8980 -0.7366 -2.7828
46632SOL     OW50209   0.072   7.508   3.546 -0.6449  0.0213  0.0630
46632SOL    HW150210  -0.024   7.509   3.540 -0.6759 -1.0276  0.0515
46632SOL    HW250211   0.090   7.447   3.618  0.0267 -1.5522 -1.3574
46633SOL     OW50212   7.851  10.397   8.152  0.6344 -0.3189 -0.3417
46633SOL    HW150213   7.892  10.324   8.199 -1.3629 -0.5505  1.1860
46633SOL    HW250214   7.796  10.440   8.217  0.6435  1.7124 -1.5715
46634SOL     OW50215   7.119  12.315  10.949 -0.4253 -0.1169  0.1949
46634SOL    HW150216   7.076  12.360  10.876  1.1344  1.1138 -0.0249
46634SOL    HW250217   7.051  12.303  11.014 -1.4103  0.4917 -0.6940
46635SOL     OW50218  11.179   2.025   1.589 -0.3946  0.0202 -0.4033
46635SOL    HW150219  11.263   2.021   1.635 -0.2484  4.0673  0.0850
46635SOL    HW250220  11.201   2.008   1.497  1.1245  1.4295 -0.3534
46636SOL     OW50221  11.664   6.450  12.111  0.3944 -0.1225  0.1858
46636SOL    HW150222  11.747   6.406  12.131  1.0477  0.4346 -1.2181
46636SOL    HW250223  11.600   6.379  12.106  1.0770 -0.7193 -0.2046
46637SOL     OW50224   3.688   5.001   6.128 -0.0119  0.5104 -0.0289
46637SOL    HW150225   3.682   5.068   6.060 -1.7432 -1.6265 -2.1931
46637SOL    HW250226   3.779   5.003   6.155  1.0693  0.8356 -3.2180
46638SOL     OW50227  10.304  12.396   1.148  0.2521 -0.4207 -0.2072
46638SOL    HW150228  10.391  12.379   1.111  0.0161 -0.6928 -0.6609
46638SOL    HW250229  10.312  12.479   1.193  0.9051 -0.7362  0.2661
46639SOL     OW50230  10.864  10.106   9.376 -0.0405  0.3287  0.1668
46639SOL    HW150231  10.824  10.192   9.388 -0.6542  0.1186 -0.3383
46639SOL    HW250232  10.957  10.120   9.393  0.3899  1.7346 -2.8547
46640SOL     OW50233   6.015   9.349   1.900  0.3773  0.1791 -0.6180
46640SOL    HW150234   6.095   9.353   1.847  0.5923  0.6925 -0.2617
46640SOL    HW250235   6.046   9.352   1.990  0.0725 -1.5636 -0.4147
46641SOL     OW50236  12.012  12.230   0.392 -0.6006 -0.4473 -0.4639
46641SOL    HW150237  12.098  12.197   0.419 -0.4423 -1.1995 -1.8359
46641SOL    HW250238  12.028  12.279   0.312 -1.4280 -0.4701 -0.6591
46642SOL     OW50239   3.359   2.597   3.422  0.6517  0.0864  0.3828
46642SOL    HW150240   3.406   2.651   3.358 -1.3211  0.3988 -0.8970
46642SOL    HW250241   3.414   2.599   3.501  1.0755  3.3321  0.1338
46643SOL     OW50242   0.833   8.927   9.654 -0.0732  0.6312  0.5841
46643SOL    HW150243   0.925   8.952   9.645 -0.1261  0.0887 -2.2113
46643SOL    HW250244   0.792   9.000   9.701  1.3264  1.9510 -0.1771
46644SOL     OW50245   9.627   1.402   9.265 -0.5194 -0.4570  0.7863
46644SOL    HW150246   9.550   1.352   9.292 -0.8814  0.1158  0.8351
46644SOL    HW250247   9.593   1.464   9.200 -0.3531  0.7060  1.7794
46645SOL     OW50248   7.803   1.449   7.439 -0.0609 -0.4828  0.1184
46645SOL    HW150249   7.768   1.439   7.528 -0.7819  1.1702  0.0616
46645SOL    HW250250   7.782   1.540   7.416 -0.0814 -0.9513 -1.8234
46646SOL     OW50251   4.919   9.575  10.780  0.0961  0.3180 -0.0762
46646SOL    HW150252   4.894   9.565  10.872  2.5575  0.4264  0.6679
46646SOL    HW250253   4.872   9.504  10.735 -2.4865  1.2811  0.9069
46647SOL     OW50254  11.134   9.080   4.766  0.2085  0.1221  0.3783
46647SOL    HW150255  11.184   9.004   4.736  0.1761  0.4196 -0.4350
46647SOL    HW250256  11.043   9.055   4.755  0.1582  1.1065 -2.1549
46648SOL     OW50257   1.974   9.556   1.271  0.2230 -0.0134  0.0567
46648SOL    HW150258   2.037   9.626   1.258 -1.5777  2.0714  1.7420
46648SOL    HW250259   1.925   9.552   1.189  0.5565  0.4578 -0.1685
46649SOL     OW50260   1.385   7.949   1.815  0.2543  0.1483 -0.1936
46649SOL    HW150261   1.329   7.875   1.836 -1.5657  1.2943 -0.7071
46649SOL    HW250262   1.360   7.972   1.725  0.5381  1.5423  0.0651
46650SOL     OW50263   9.411   5.810   3.243  0.2353 -0.1471 -0.1861
46650SOL    HW150264   9.462   5.871   3.296 -0.6454  0.9395 -0.5566
46650SOL    HW250265   9.320   5.823   3.272 -0.2902  0.5493 -1.9663
46651SOL     OW50266   7.267   6.917   7.929 -0.1678  0.3043 -0.4466
46651SOL    HW150267   7.352   6.882   7.903 -0.0821  0.2842 -0.1428
46651SOL    HW250268   7.206   6.845   7.911 -0.1414  0.3635 -0.7831
46652SOL     OW50269  10.636  12.926   1.332 -0.3676  0.1184  0.1671
46652SOL    HW150270  10.694  12.969   1.395  0.0450 -1.1551  0.6966
46652SOL    HW250271  10.551  12.966   1.346  0.6235  3.2900 -1.8036
46653SOL     OW50272   4.133   8.211   1.309  0.5829 -0.4811 -0.1215
46653SOL    HW150273   4.208   8.257   1.349  0.4879 -0.8256  0.4682
46653SOL    HW250274   4.171   8.132   1.271  0.2650 -1.6596  1.8882
46654SOL     OW50275  10.534   7.407   4.910 -0.1937  0.3077 -0.1355
46654SOL    HW150276  10.615   7.445   4.943 -0.2476 -0.3500  0.7866
46654SOL    HW250277  10.551   7.313   4.905 -1.1380  0.0556  0.8597
46655SOL     OW50278  12.454   0.982  12.979 -0.1472  0.3920 -0.1531
46655SOL    HW150279  12.439   0.984  13.073  1.5628  0.0462  0.1510
46655SOL    HW250280  12.379   0.932  12.944 -0.5526  0.1258  1.0577
46656SOL     OW50281   7.591  12.662  12.367 -0.3745  0.2955  0.2631
46656SOL    HW150282   7.669  12.712  12.392  0.0696  1.6522 -3.3088
46656SOL    HW250283   7.518  12.721  12.389 -0.0654  1.0341 -0.6229
46657SOL     OW50284   1.730   8.580   4.715 -0.2006  0.0811 -0.2340
46657SOL    HW150285   1.638   8.595   4.736 -0.0374  0.5215  0.1884
46657SOL    HW250286   1.741   8.485   4.723 -0.6812 -0.0066 -0.5660
46658SOL     OW50287  10.184   3.421   4.258  0.3777 -0.0695  0.2250
46658SOL    HW150288  10.253   3.383   4.202  0.1382  0.4145 -0.4154
46658SOL    HW250289  10.104   3.375   4.231 -0.3388  2.2759 -2.1158
46659SOL     OW50290   0.483   7.141   5.927 -0.0996  0.2009  0.3512
46659SOL    HW150291   0.390   7.137   5.905 -0.0513  1.1214 -0.0774
46659SOL    HW250292   0.486   7.195   6.006 -0.0177 -0.7464  1.0104
46660SOL     OW50293   8.944   9.855   8.063 -0.5143  0.5276 -0.7898
46660SOL    HW150294   8.920   9.944   8.091 -0.7450 -0.1446  1.3551
46660SOL    HW250295   9.007   9.869   7.992  0.4043  2.4598  0.3040
46661SOL     OW50296  11.583   0.571   6.124 -1.0735  0.3745 -0.0206
46661SOL    HW150297  11.512   0.610   6.175 -1.2879  0.0244 -0.0418
46661SOL    HW250298  11.542   0.546   6.041 -0.9721  0.0151  0.0324
46662SOL     OW50299   4.839   6.741   6.499 -0.3546 -0.6763 -0.1221
46662SOL    HW150300   4.919   6.734   6.447  0.0667  0.3629  0.3374
46662SOL    HW250301   4.851   6.823   6.548 -0.8365 -1.5009  1.4231
46663SOL     OW50302   3.735  10.558   1.374 -0.0252 -0.3223 -0.1063
46663SOL    HW150303   3.818  10.581   1.416 -0.5110  1.0243  0.1740
46663SOL    HW250304   3.757  10.484   1.317  1.7568  1.0444 -1.3381
46664SOL     OW50305   6.736   0.249   1.934 -0.4893  0.1408  0.5286
46664SOL    HW150306   6.679   0.243   1.858  0.7831 -1.3295 -0.3758
46664SOL    HW250307   6.680   0.226   2.008 -1.1342 -1.0798 -0.3078
46665SOL     OW50308   8.585   5.694   8.473  0.2306 -0.4131  0.5183
46665SOL    HW150309   8.618   5.638   8.543  0.4203 -1.0191 -0.0587
46665SOL    HW250310   8.598   5.644   8.393  0.1943  0.3616  0.0210
46666SOL     OW50311  10.853   9.167   2.154 -0.1566  0.9680  0.2913
46666SOL    HW150312  10.848   9.090   2.211 -0.8302 -0.6268 -1.7894
46666SOL    HW250313  10.903   9.231   2.205 -1.1547 -0.1384  2.8380
46667SOL     OW50314   4.134   6.267   5.249  0.6830 -0.2336 -0.2756
46667SOL    HW150315   4.077   6.333   5.289 -0.3669 -1.0746 -0.3195
46667SOL    HW250316   4.222   6.289   5.279  0.4133  1.3991 -0.5919
46668SOL     OW50317   4.831   4.141   8.166  0.1584  0.2023 -0.1566
46668SOL    HW150318   4.899   4.143   8.099 -0.0125 -0.3930 -0.3583
46668SOL    HW250319   4.875   4.102   8.243  0.0309 -0.2528 -0.3106
46669SOL     OW50320   8.265   7.119   4.640 -0.0500  0.0951  0.2243
46669SOL    HW150321   8.346   7.111   4.589  0.8566  2.8503  1.0051
46669SOL    HW250322   8.267   7.209   4.673 -2.5385 -0.3415  1.8452
46670SOL     OW50323   2.533   9.922   2.289  0.3850 -0.5501  0.0847
46670SOL    HW150324   2.470   9.902   2.220  0.1322 -0.8068  0.3881
46670SOL    HW250325   2.543  10.017   2.285  1.6726 -0.6987 -1.4257
46671SOL     OW50326   0.415  11.274   5.717  0.4426  0.3580 -0.1704
46671SOL    HW150327   0.488  11.216   5.739  1.6935  1.4216 -1.3318
46671SOL    HW250328   0.397  11.322   5.798 -0.3187 -1.2774  0.6801
46672SOL     OW50329   1.525   5.830  11.855  0.1305  0.5426 -0.1619
46672SOL    HW150330   1.571   5.756  11.895 -1.5780  0.1798  1.2324
46672SOL    HW250331   1.455   5.851  11.916  0.6672  3.4759 -0.3732
46673SOL     OW50332   5.684   5.873   3.376  0.6939  0.1724 -1.0000
46673SOL    HW150333   5.667   5.938   3.445  1.9413 -0.4978 -0.0375
46673SOL    HW250334   5.719   5.797   3.422 -0.4144 -1.0878 -2.1527
46674SOL     OW50335  12.513   2.122  10.408  0.2625  0.1489  0.4877
46674SOL    HW150336  12.510   2.045  10.464  0.0558  0.8874  1.5379
46674SOL    HW250337  12.427   2.163  10.419  0.2180  0.3064 -0.3869
46675SOL     OW50338  10.965   5.761   7.974 -0.5588 -0.2960 -0.2992
46675SOL    HW150339  10.942   5.673   8.003 -0.7488 -0.2310 -0.2446
46675SOL    HW250340  10.945   5.762   7.880  0.9383 -0.7915 -0.6390
46676SOL     OW50341   4.825  11.968   2.259 -0.0098  0.1496 -0.2459
46676SOL    HW150342   4.853  12.057   2.237 -0.3125  0.4542  0.5735
46676SOL    HW250343   4.862  11.952   2.346  0.2254 -0.6108 -0.4770
46677SOL     OW50344   3.033  10.251   1.471 -0.2263  0.1655  0.3395
46677SOL    HW150345   3.098  10.183   1.457 -1.1773 -0.9464  1.1594
46677SOL    HW250346   3.079  10.317   1.524  0.9487  0.6034 -1.1614
46678SOL     OW50347   3.286   3.081   6.846  0.4285  0.0576  0.1115
46678SOL    HW150348   3.206   3.041   6.813  0.7056  0.3167 -0.9361
46678SOL    HW250349   3.256   3.147   6.908 -0.1657  0.0029 -0.1108
46679SOL     OW50350  10.659   1.570   8.537 -0.2322  0.1740 -0.0107
46679SOL    HW150351  10.584   1.606   8.489  0.6740  1.3847 -0.6003
46679SOL    HW250352  10.732   1.580   8.476  0.7761  0.8758  1.2760
46680SOL     OW50353  12.776   5.236   1.050 -0.2710 -0.6553 -0.0238
46680SOL    HW150354  12.841   5.177   1.090 -0.3802 -0.6144  0.2135
46680SOL    HW250355  12.813   5.257   0.964 -0.0939 -0.8414  0.0060
46681SOL     OW50356  10.443   7.009   5.312  0.3327  0.0915  0.0083
46681SOL    HW150357  10.444   6.974   5.401 -0.0176 -1.0462 -0.4187
46681SOL    HW250358  10.494   7.090   5.318 -0.8239  0.7665  1.5282
46682SOL     OW50359   6.182   3.530   8.900  0.0538  0.3422  0.4559
46682SOL    HW150360   6.271   3.500   8.885 -0.4548 -0.3072 -1.6988
46682SOL    HW250361   6.182   3.564   8.989  2.1210 -0.7733  0.9298
46683SOL     OW50362  10.752  10.306   3.986  0.1033  0.6560 -0.2508
46683SOL    HW150363  10.769  10.235   3.924 -1.4605  0.1266 -0.1352
46683SOL    HW250364  10.818  10.295   4.054 -0.4956 -1.1418  0.1070
46684SOL     OW50365   5.894   1.723   9.418 -0.2170 -0.6791  0.1827
46684SOL    HW150366   5.854   1.808   9.401 -1.4137 -1.1457  0.5234
46684SOL    HW250367   5.943   1.703   9.338 -0.9736 -0.2402 -0.4035
46685SOL     OW50368   0.518   9.949   4.626  0.0523  0.4065  0.2936
46685SOL    HW150369   0.578   9.876   4.609 -1.4357 -0.2227 -3.1327
46685SOL    HW250370   0.433   9.908   4.642 -0.1867  1.3747  1.7033
46686SOL     OW50371   5.595  12.838   5.980  0.6844 -0.4976 -0.4028
46686SOL    HW150372   5.545  12.864   6.058 -0.0090  1.2028 -1.3545
46686SOL    HW250373   5.686  12.833   6.010  0.1807 -2.0509  0.9893
46687SOL     OW50374   5.677  12.549   8.392 -0.1742  0.6679 -0.4305
46687SOL    HW150375   5.693  12.500   8.473 -0.9824 -2.7332 -2.1373
46687SOL    HW250376   5.763  12.580   8.364  0.1652  1.5692  1.4446
46688SOL     OW50377  12.132  12.400   3.349  0.0129  0.0399 -0.1465
46688SOL    HW150378  12.123  12.306   3.359 -2.6225  0.3383  1.0478
46688SOL    HW250379  12.217  12.421   3.388  1.2042 -1.9121 -1.5252
46689SOL     OW50380   3.284   2.361  10.622 -0.6758 -0.3291  0.9240
46689SOL    HW150381   3.347   2.370  10.551 -0.8606 -0.8113  0.6957
46689SOL    HW250382   3.333   2.385  10.701  0.5636 -3.0276  1.0950
46690SOL     OW50383   9.826  10.461   8.507  0.4371  0.1010  0.4677
46690SOL    HW150384   9.773  10.407   8.567  1.6940 -1.4669  0.2191
46690SOL    HW250385   9.916  10.435   8.525  1.2133  2.9497  1.1030
46691SOL     OW50386   4.327   1.099   1.577 -0.1667  0.3558 -0.1874
46691SOL    HW150387   4.397   1.155   1.546 -0.5633  1.1570  0.3211
46691SOL    HW250388   4.326   1.025   1.516  0.7118  0.6317 -0.5497
46692SOL     OW50389   9.799   0.861  10.482  0.1871  1.0675  0.2788
46692SOL    HW150390   9.859   0.896  10.416  0.5154  0.5562  0.2966
46692SOL    HW250391   9.813   0.917  10.559  0.1340  1.3823  0.0625
46693SOL     OW50392   9.295   2.185   8.292 -0.2059 -0.0876  0.0565
46693SOL    HW150393   9.318   2.268   8.250 -1.8128 -0.6060 -1.9956
46693SOL    HW250394   9.228   2.209   8.356  0.5009  0.3992  0.6243
46694SOL     OW50395  11.346   3.448   2.667 -0.0240  0.1374 -0.1799
46694SOL    HW150396  11.406   3.375   2.684 -0.6191 -0.9366 -2.2987
46694SOL    HW250397  11.400   3.526   2.677  0.7306 -0.5598  1.7918
46695SOL     OW50398   3.002   3.416   4.351  0.3664  0.5139 -0.1562
46695SOL    HW150399   3.085   3.372   4.372  0.9955  1.5169 -0.4658
46695SOL    HW250400   3.007   3.432   4.257 -0.1250  0.7055 -0.1517
46696SOL     OW50401   8.930   1.250   3.783 -0.0001 -0.1133  0.3876
46696SOL    HW150402   8.866   1.280   3.718 -1.0968  0.7608  1.8028
46696SOL    HW250403   8.954   1.330   3.831  0.8604 -0.7204  0.9967
46697SOL     OW50404   5.639  11.792   1.832  0.1319  0.0921 -0.2602
46697SOL    HW150405   5.547  11.782   1.856  0.2000  1.1187  0.5121
46697SOL    HW250406   5.638  11.844   1.752  0.0222 -0.3771 -0.5642
46698SOL     OW50407   0.538   6.965   1.838  0.5537 -0.0488 -0.0367
46698SOL    HW150408   0.504   6.904   1.904  0.9104  0.8165  0.9655
46698SOL    HW250409   0.593   6.911   1.782  1.0925 -0.6105  1.0064
46699SOL     OW50410   6.441   1.653   0.097  0.6419  0.4549 -0.3543
46699SOL    HW150411   6.446   1.746   0.120  0.9286  0.5988 -0.9755
46699SOL    HW250412   6.357   1.644   0.051  0.5710  0.3911 -0.2108
46700SOL     OW50413   2.400   0.482   6.023 -0.4927 -0.0520  0.1482
46700SOL    HW150414   2.461   0.531   6.078 -0.6915  0.3484  0.0170
46700SOL    HW250415   2.348   0.431   6.085 -0.5828  0.2445  0.3196
46701SOL     OW50416   8.774   2.043   6.132 -0.6260 -0.0306 -0.7344
46701SOL    HW150417   8.834   1.988   6.080  0.3114  2.0536 -1.9808
46701SOL    HW250418   8.790   2.017   6.222  1.9725  0.1884 -1.0465
46702SOL     OW50419  12.766  12.633  11.747  0.4252 -0.3496 -0.1432
46702SOL    HW150420  12.703  12.581  11.798 -0.8230  1.1732 -0.0305
46702SOL    HW250421  12.723  12.645  11.662 -0.2191  1.9893  0.4363
46703SOL     OW50422   9.591   6.635   6.284 -0.5952 -0.3854 -0.0659
46703SOL    HW150423   9.533   6.569   6.322  0.4585 -0.9201  0.6782
46703SOL    HW250424   9.649   6.586   6.226 -0.6147  0.0816 -0.4859
46704SOL     OW50425   5.798  10.062  11.849 -0.2710 -0.6534  0.5005
46704SOL    HW150426   5.888  10.076  11.879 -0.7669  4.2554  0.4717
46704SOL    HW250427   5.744  10.083  11.925 -1.3555  3.2523 -1.1272
46705SOL     OW50428   8.157  11.234   8.388 -0.2089  0.3081 -0.0512
46705SOL    HW150429   8.218  11.179   8.338 -0.7426 -0.4701  0.1296
46705SOL    HW250430   8.210  11.269   8.460 -0.1722 -1.1350  0.6636
46706SOL     OW50431   4.303   6.678   0.311  0.8441  0.1127  0.2575
46706SOL    HW150432   4.391   6.668   0.349  0.9459  0.8201  0.2220
46706SOL    HW250433   4.285   6.593   0.270  1.1895 -0.2974  0.9299
46707SOL     OW50434   9.877   5.838   3.189 -0.0711 -0.1472 -0.5614
46707SOL    HW150435   9.937   5.817   3.118  0.4968 -3.2562  0.6848
46707SOL    HW250436   9.808   5.772   3.183  0.4785 -1.1195  2.2450
46708SOL     OW50437   3.360   9.752   7.237  0.3418  0.7598 -0.2059
46708SOL    HW150438   3.440   9.768   7.186  0.9263 -0.0375  0.4268
46708SOL    HW250439   3.375   9.801   7.319 -0.1525  1.2220 -0.3893
46709SOL     OW50440   4.214   0.400   0.853 -0.0518  0.0696  0.2197
46709SOL    HW150441   4.120   0.383   0.858 -0.1968  0.4627 -0.9197
46709SOL    HW250442   4.222   0.493   0.876  0.1458 -0.1301  0.9981
46710SOL     OW50443   0.772   7.351  11.849  0.3561 -0.5112 -0.1506
46710SOL    HW150444   0.698   7.374  11.905  1.6728  1.1325  1.0356
46710SOL    HW250445   0.733   7.300  11.778 -1.8362 -0.0764  0.6389
46711SOL     OW50446   9.308  12.588   7.406 -0.4561  0.3127  0.5478
46711SOL    HW150447   9.378  12.551   7.459  0.0319  1.8209  1.0056
46711SOL    HW250448   9.318  12.683   7.415 -1.4683  0.5869 -0.8051
46712SOL     OW50449  12.572  11.990   8.479  0.3795  0.2977  0.2516
46712SOL    HW150450  12.480  11.981   8.506  0.6181  0.2645  1.0586
46712SOL    HW250451  12.605  12.063   8.530  1.0745 -0.3132  0.6905
46713SOL     OW50452   7.041   9.494   1.614 -0.4665  0.1101  0.1795
46713SOL    HW150453   7.024   9.581   1.578 -0.9259  0.0488  0.2388
46713SOL    HW250454   6.956   9.465   1.645  0.1253  0.7545  2.6331
46714SOL     OW50455   6.061   0.180   0.132 -0.5257 -0.2041 -0.6782
46714SOL    HW150456   6.023   0.249   0.186 -0.5093 -0.1324 -0.7571
46714SOL    HW250457   6.018   0.191   0.047 -1.8594 -1.4228 -0.1994
46715SOL     OW50458  11.292  12.242  11.518 -0.2935  0.0939 -0.0951
46715SOL    HW150459  11.290  12.256  11.423 -0.8281  0.2319 -0.0645
46715SOL    HW250460  11.365  12.181  11.531  0.2351  0.6159 -0.5198
46716SOL     OW50461   4.761   3.429   3.254 -0.0014  0.1848  0.6736
46716SOL    HW150462   4.752   3.403   3.345 -1.1621 -0.7281  0.3261
46716SOL    HW250463   4.742   3.523   3.254 -1.0422 -0.0109  1.2454
46717SOL     OW50464   4.496   8.455   3.316  0.2434 -0.0912  0.8688
46717SOL    HW150465   4.403   8.471   3.327  0.2484 -0.0299  0.8247
46717SOL    HW250466   4.538   8.526   3.366  0.2661  0.0081  0.7112
46718SOL     OW50467   1.847   0.525   3.729 -0.1104 -0.2919 -0.0787
46718SOL    HW150468   1.795   0.448   3.749  1.5001 -1.4360 -0.0895
46718SOL    HW250469   1.831   0.542   3.636 -0.7146 -0.4183  0.0029
46719SOL     OW50470   6.516   7.756   0.900 -0.3173  0.1805  0.4727
46719SOL    HW150471   6.472   7.821   0.845 -0.4171  0.1959  0.5696
46719SOL    HW250472   6.605   7.790   0.911 -0.0348 -0.2440 -0.3773
46720SOL     OW50473  12.228  12.152   9.344 -0.1895 -1.1652 -0.0386
46720SOL    HW150474  12.300  12.167   9.406 -0.5905  0.2033  0.1379
46720SOL    HW250475  12.167  12.096   9.391  0.1565 -1.2686  0.2972
46721SOL     OW50476   9.992   5.109   2.357 -0.6053  0.0282 -0.0083
46721SOL    HW150477   9.935   5.038   2.386 -1.0128  0.2160 -0.3543
46721SOL    HW250478  10.077   5.089   2.397 -0.2449 -1.5783 -1.4433
46722SOL     OW50479   6.204  10.623   3.270  0.4042 -0.0545  0.2124
46722SOL    HW150480   6.178  10.640   3.180  1.7456  0.2743 -0.1313
46722SOL    HW250481   6.122  10.624   3.319 -0.1941  1.3390 -0.7492
46723SOL     OW50482   5.541   8.073  11.021  0.4718  0.1484  0.2911
46723SOL    HW150483   5.631   8.043  11.021  0.4622  0.1188  0.3882
46723SOL    HW250484   5.545   8.161  10.984  0.2574 -0.6917 -1.8633
46724SOL     OW50485   8.279   9.385  12.117 -0.2331 -0.2851  0.9800
46724SOL    HW150486   8.273   9.290  12.105  0.1291 -0.0403 -1.8240
46724SOL    HW250487   8.368   9.399  12.150  0.1859 -0.8429  0.1300
46725SOL     OW50488   9.524   4.630   6.941  0.0646 -0.6010 -0.3332
46725SOL    HW150489   9.469   4.606   7.016  0.2563  0.6771  0.2509
46725SOL    HW250490   9.470   4.611   6.864 -0.6610 -0.6774  0.1811
46726SOL     OW50491  11.365   2.009   5.160  0.7453  0.2967  0.3495
46726SOL    HW150492  11.271   1.996   5.173  1.0124  0.6118  3.4005
46726SOL    HW250493  11.398   1.923   5.137 -0.1054 -0.2160  0.9702
46727SOL     OW50494  11.955   3.394   3.013  0.0140  0.0224  0.4422
46727SOL    HW150495  11.909   3.418   3.093  1.8153  0.2335  1.4616
46727SOL    HW250496  12.031   3.452   3.011  0.0425 -0.0246 -1.4081
46728SOL     OW50497   0.362   9.859   3.303  0.0893  0.0084 -0.6356
46728SOL    HW150498   0.433   9.913   3.267  0.1577 -0.2976 -0.9707
46728SOL    HW250499   0.295   9.859   3.234 -0.0635 -0.0390 -0.4877
46729SOL     OW50500   4.340  11.364  10.561 -0.4111 -0.3724 -0.7702
46729SOL    HW150501   4.253  11.325  10.573  0.3808 -1.6765  1.0736
46729SOL    HW250502   4.327  11.457  10.580 -1.1798 -0.7507  0.6444
46730SOL     OW50503   2.008  12.975   8.293  0.2381 -0.1638  0.4841
46730SOL    HW150504   1.950  13.051   8.294 -0.2635 -0.5530  0.9037
46730SOL    HW250505   2.025  12.957   8.386  1.3204  0.1665  0.3641
46731SOL     OW50506   9.840   8.833   3.849 -0.7222 -0.4749 -0.4518
46731SOL    HW150507   9.866   8.925   3.837  2.2746 -0.8393  1.9416
46731SOL    HW250508   9.836   8.797   3.760 -1.6330  1.8276 -1.4299
46732SOL     OW50509   5.305  12.925   1.422 -0.0419 -0.4981  0.0092
46732SOL    HW150510   5.319  12.846   1.473  0.8787 -0.0117  0.5360
46732SOL    HW250511   5.390  12.945   1.383 -0.2792  0.1833 -0.1858
46733SOL     OW50512  11.115   3.910   1.311 -0.0664  0.2936  0.2679
46733SOL    HW150513  11.065   3.874   1.384 -0.2010  0.1994  0.1297
46733SOL    HW250514  11.076   3.996   1.295 -0.2688  0.1667  0.0766
46734SOL     OW50515   5.671   1.038  11.834  0.2551  0.4286  0.3653
46734SOL    HW150516   5.646   0.998  11.750 -0.4132 -0.3054  0.8982
46734SOL    HW250517   5.588   1.072  11.870  0.3223 -0.2994  1.2538
46735SOL     OW50518   0.035   8.628   6.174  0.4050  0.2566  0.5027
46735SOL    HW150519   0.064   8.704   6.124 -1.2152  1.2214  0.9801
46735SOL    HW250520   0.048   8.554   6.115 -1.2701  1.3305 -1.3134
46736SOL     OW50521  11.912   4.354   0.325  0.0669 -0.1507  0.2404
46736SOL    HW150522  11.838   4.414   0.336  0.7469  0.6729  0.4275
46736SOL    HW250523  11.873   4.274   0.290 -0.8274  0.4911 -0.2714
46737SOL     OW50524  11.580   6.379   1.244 -0.1812 -0.1364  0.3914
46737SOL    HW150525  11.591   6.361   1.338 -0.2930  0.2237  0.4765
46737SOL    HW250526  11.486   6.368   1.229 -0.0462 -1.0050  0.1428
46738SOL     OW50527   8.358   3.883   7.132  0.4440 -1.1615 -0.0692
46738SOL    HW150528   8.338   3.906   7.223 -1.0078  0.0872 -0.6563
46738SOL    HW250529   8.403   3.799   7.138  1.2790 -0.6414  1.8657
46739SOL     OW50530   2.850   9.947  12.093  0.2583 -0.4247 -0.0068
46739SOL    HW150531   2.816   9.858  12.098 -1.3615  0.0694 -1.2746
46739SOL    HW250532   2.871   9.970  12.183  0.8627 -2.1279  0.3152
46740SOL     OW50533   8.000   1.771   1.292  0.3179  0.0835  0.1573
46740SOL    HW150534   8.032   1.775   1.382  1.5698  1.6691 -0.2976
46740SOL    HW250535   8.073   1.732   1.243  0.2531  0.6240 -0.3853
46741SOL     OW50536   0.619   2.838   6.218 -0.4614 -0.5897  0.1487
46741SOL    HW150537   0.606   2.798   6.305  0.1587 -1.2286 -0.0412
46741SOL    HW250538   0.708   2.814   6.195 -0.1757  0.6955 -0.1043
46742SOL     OW50539   0.260   2.863   8.917  0.2172 -0.6481  0.6683
46742SOL    HW150540   0.258   2.767   8.910  0.9356 -0.6080 -0.2516
46742SOL    HW250541   0.298   2.892   8.834 -1.8265  0.5461  0.0610
46743SOL     OW50542   3.987   5.735   6.226 -0.1091  0.7074 -0.5157
46743SOL    HW150543   3.945   5.650   6.215 -1.8559  1.6914 -2.2036
46743SOL    HW250544   4.007   5.763   6.136  1.6775  1.5254  0.0825
46744SOL     OW50545   8.832   2.177   4.744  0.8303  0.4246  0.0065
46744SOL    HW150546   8.870   2.217   4.666  3.2733  0.1157  0.9501
46744SOL    HW250547   8.861   2.233   4.816 -0.2749 -0.0312  0.8289
46745SOL     OW50548   2.941   1.248   8.684 -0.8666 -0.3857  0.1937
46745SOL    HW150549   2.898   1.169   8.717  2.0227 -1.8298  0.7869
46745SOL    HW250550   2.969   1.225   8.595 -1.8824  0.7850 -0.4588
46746SOL     OW50551   3.382   0.298   9.264  0.1280 -0.2494 -0.4893
46746SOL    HW150552   3.422   0.385   9.270  0.1739 -0.3099  0.0705
46746SOL    HW250553   3.322   0.294   9.338  0.7821 -1.0345  0.0123
46747SOL     OW50554   2.629   3.073  11.236  0.1354 -0.0684  0.2108
46747SOL    HW150555   2.553   3.093  11.290  0.4654  0.1433  0.6005
46747SOL    HW250556   2.622   2.979  11.219 -0.6835  0.1074 -0.4930
46748SOL     OW50557  11.506   3.507   8.728  0.3048  0.2224 -0.2715
46748SOL    HW150558  11.542   3.527   8.642 -0.6665 -1.0054 -1.0004
46748SOL    HW250559  11.434   3.446   8.710 -0.0048  0.0548  1.3978
46749SOL     OW50560   9.022   5.327   6.277 -0.1799 -0.2607  0.4804
46749SOL    HW150561   8.940   5.364   6.309  0.4373 -0.2260  2.1484
46749SOL    HW250562   9.021   5.344   6.183 -2.9947 -2.1007  0.0562
46750SOL     OW50563  10.437   6.666  11.101 -0.0338 -0.7129  0.3138
46750SOL    HW150564  10.497   6.722  11.052 -1.0757 -1.3928 -1.8849
46750SOL    HW250565  10.357   6.717  11.110 -0.4110 -1.2022 -0.1934
46751SOL     OW50566   8.655   1.350   8.947  0.3014 -0.7337 -0.1192
46751SOL    HW150567   8.607   1.268   8.938 -1.5362  0.3118 -0.3714
46751SOL    HW250568   8.690   1.348   9.037 -0.7126 -1.3006  0.2801
46752SOL     OW50569   4.853   9.719   1.875 -0.2582  0.1189  0.1189
46752SOL    HW150570   4.864   9.626   1.855 -0.1564  0.4503 -1.4376
46752SOL    HW250571   4.904   9.765   1.809 -0.1084  1.2953  1.0122
46753SOL     OW50572   0.547  10.872   7.281 -0.1371 -0.3549 -0.6554
46753SOL    HW150573   0.466  10.859   7.331 -0.1586  0.2497 -0.5275
46753SOL    HW250574   0.520  10.919   7.203  0.1498  0.1879 -0.4275
46754SOL     OW50575  11.067  10.975   4.246  0.6482 -0.9342  0.3990
46754SOL    HW150576  11.133  10.908   4.265 -0.5218 -1.7857  1.6753
46754SOL    HW250577  11.064  11.028   4.325 -1.8831 -2.4086  1.3884
46755SOL     OW50578  11.584   5.242   4.665  0.4321 -0.0876  0.2600
46755SOL    HW150579  11.649   5.273   4.602  0.9006 -0.7277  0.4141
46755SOL    HW250580  11.509   5.300   4.653  0.1433 -0.7789 -1.5697
46756SOL     OW50581   8.538   9.204   2.564 -0.0874  0.5256 -0.4359
46756SOL    HW150582   8.593   9.282   2.550 -1.1854  1.3753 -0.2024
46756SOL    HW250583   8.541   9.189   2.658  0.8564 -0.2833 -0.5877
46757SOL     OW50584   3.935   6.869   0.777  0.5224  0.4933 -0.3458
46757SOL    HW150585   3.911   6.860   0.869  0.4864 -1.2353 -0.5073
46757SOL    HW250586   3.883   6.803   0.732 -0.1877  1.9575 -1.7584
46758SOL     OW50587   0.282   6.848   4.506  0.5199  0.4767  0.4267
46758SOL    HW150588   0.349   6.878   4.444  1.9479 -0.9715  1.1678
46758SOL    HW250589   0.286   6.752   4.500 -0.6265  0.3504  1.4022
46759SOL     OW50590   4.812   3.671   1.956  0.1999  0.3318 -0.4296
46759SOL    HW150591   4.795   3.761   1.985  0.1891  0.3676 -0.5456
46759SOL    HW250592   4.830   3.623   2.036  1.7307  0.7713 -0.4787
46760SOL     OW50593   5.450   5.117   4.296 -0.1674  0.1635 -1.0055
46760SOL    HW150594   5.450   5.058   4.220 -0.4167 -0.0517 -0.8380
46760SOL    HW250595   5.540   5.148   4.302  0.5595 -1.9957  0.2969
46761SOL     OW50596   1.991   8.339  10.652  0.0945 -0.1952  0.8678
46761SOL    HW150597   2.045   8.260  10.655 -0.4429 -0.6256 -0.1577
46761SOL    HW250598   2.043   8.405  10.697  1.8348 -0.3753 -0.7436
46762SOL     OW50599   0.281   1.455  12.198 -0.4218  0.6646  0.5893
46762SOL    HW150600   0.310   1.393  12.132 -1.5729  0.6889  0.0322
46762SOL    HW250601   0.258   1.534  12.149  3.5558  2.6318  1.4986
46763SOL     OW50602   7.145   1.141   0.067  0.2089  0.0806  0.2402
46763SOL    HW150603   7.227   1.094   0.078  0.2086 -0.0295 -0.2167
46763SOL    HW250604   7.115   1.158   0.156 -0.3604 -1.7802  0.4470
46764SOL     OW50605   2.842   7.007   9.512  0.5065  0.3643 -0.2584
46764SOL    HW150606   2.927   6.998   9.469  0.6345 -0.5768  0.1606
46764SOL    HW250607   2.855   7.076   9.577  0.5953  1.0820 -1.0202
46765SOL     OW50608   7.410   3.155   9.001  0.0442 -0.1532 -0.3832
46765SOL    HW150609   7.400   3.190   9.089 -1.2448 -2.9927  0.7029
46765SOL    HW250610   7.502   3.173   8.979  0.4076  0.6132  1.5419
46766SOL     OW50611  12.460   1.868  10.611  0.1504 -0.5549  0.8294
46766SOL    HW150612  12.466   1.778  10.645  0.8436  0.1135  2.5682
46766SOL    HW250613  12.382   1.904  10.654 -0.9680 -0.7424 -0.9661
46767SOL     OW50614   9.348   4.264   5.300  0.6624  0.0152  0.2618
46767SOL    HW150615   9.342   4.303   5.387  3.4107 -1.9618  1.5034
46767SOL    HW250616   9.305   4.179   5.308 -0.5201  0.4830 -0.8368
46768SOL     OW50617   8.979   8.767   0.286 -0.7599  0.3429 -0.1882
46768SOL    HW150618   9.010   8.789   0.199  3.0378 -1.7841  0.3927
46768SOL    HW250619   9.026   8.686   0.309 -1.6387  0.7266  3.7686
46769SOL     OW50620   4.162   3.325  10.089 -0.4177 -0.8779  0.0625
46769SOL    HW150621   4.225   3.397  10.094 -1.2520 -0.0591 -0.7296
46769SOL    HW250622   4.090   3.360  10.036 -1.2509 -2.0016  0.4138
46770SOL     OW50623   9.444  12.404  10.674 -0.2909  0.6603  0.0868
46770SOL    HW150624   9.443  12.449  10.759  0.4649  1.3799 -0.2664
46770SOL    HW250625   9.530  12.425  10.637  0.4807 -1.8111  0.2809
46771SOL     OW50626   9.142   6.242   5.888 -0.0898  0.1804 -0.1224
46771SOL    HW150627   9.146   6.148   5.871 -2.1173  0.0889 -0.3421
46771SOL    HW250628   9.205   6.257   5.958  1.7045 -0.9839 -1.3980
46772SOL     OW50629   2.487   2.739   7.118  0.0079  0.4987  0.6261
46772SOL    HW150630   2.576   2.758   7.089  0.3385 -2.0120 -0.2451
46772SOL    HW250631   2.496   2.660   7.172 -1.4095  1.5753  2.5419
46773SOL     OW50632  11.761  10.549   2.517 -0.4028  0.4323  0.5934
46773SOL    HW150633  11.796  10.630   2.554  0.9922 -0.1342  0.5546
46773SOL    HW250634  11.677  10.575   2.479 -0.5183  1.6235  1.5725
46774SOL     OW50635  11.025   9.015   8.125 -0.0550  0.5568 -0.3756
46774SOL    HW150636  10.934   8.995   8.100 -0.2573  2.1772 -1.0740
46774SOL    HW250637  11.017   9.064   8.207  0.1548  0.8977 -0.5545
46775SOL     OW50638   5.900   6.355   5.171  0.3368  0.3043 -0.2618
46775SOL    HW150639   5.892   6.408   5.092  0.2645  0.0824 -0.4005
46775SOL    HW250640   5.846   6.400   5.236  0.8299  0.7955 -0.1769
46776SOL     OW50641   4.520  10.797   8.041 -0.4505  0.0432 -0.0445
46776SOL    HW150642   4.613  10.806   8.062 -0.6801 -0.4180  1.2921
46776SOL    HW250643   4.490  10.886   8.024 -0.2173  0.4868  1.6807
46777SOL     OW50644   4.089   6.414   4.645  0.2223 -0.4849  0.6349
46777SOL    HW150645   4.153   6.410   4.574  0.5486 -0.9975  0.9506
46777SOL    HW250646   4.082   6.324   4.677 -0.4388 -0.3833  0.7994
46778SOL     OW50647   7.876   8.789   2.450 -0.3067 -0.4791  0.3674
46778SOL    HW150648   7.965   8.760   2.433 -0.5229 -0.2893 -1.1802
46778SOL    HW250649   7.887   8.875   2.492  0.2297 -0.1137 -0.5001
46779SOL     OW50650   7.127   0.763   3.058 -0.6185 -0.7218 -0.0555
46779SOL    HW150651   7.074   0.746   2.980 -1.8365 -0.0027  0.5970
46779SOL    HW250652   7.172   0.845   3.037  0.1699 -1.2626 -0.5544
46780SOL     OW50653   3.060   7.742   7.782 -0.3061  0.5164 -0.1990
46780SOL    HW150654   3.137   7.791   7.812 -0.1936  0.5276 -0.5029
46780SOL    HW250655   2.991   7.765   7.844  0.5510 -1.3886  1.5632
46781SOL     OW50656   5.357   0.893   8.013  0.1933  0.9615 -0.2784
46781SOL    HW150657   5.425   0.851   8.065 -0.6069  0.6875  0.5623
46781SOL    HW250658   5.404   0.956   7.959  1.1304  0.6736  0.1882
46782SOL     OW50659   2.967   0.716   8.338  0.3017 -0.3933 -0.4101
46782SOL    HW150660   2.998   0.688   8.424 -1.4017  1.4806  0.9078
46782SOL    HW250661   3.030   0.782   8.310  1.4856 -1.8093 -1.1567
46783SOL     OW50662  10.377   3.902   1.186  0.1009 -0.2509  0.1974
46783SOL    HW150663  10.318   3.901   1.110  1.4843  0.6779 -0.9473
46783SOL    HW250664  10.422   3.987   1.180  0.8905 -0.5500  1.5492
46784SOL     OW50665   4.391  11.419   3.018  0.2370  0.2095  0.2844
46784SOL    HW150666   4.342  11.379   3.089 -1.4322 -0.1824 -1.0330
46784SOL    HW250667   4.464  11.463   3.061 -0.2343 -0.7432  2.1384
46785SOL     OW50668   7.817   7.437   2.994 -0.3987 -0.7930  0.4677
46785SOL    HW150669   7.766   7.474   2.922  0.1209  0.3644  0.6850
46785SOL    HW250670   7.803   7.342   2.986 -0.8075 -0.6463 -0.8013
46786SOL     OW50671   9.879   2.027   2.161 -0.0800  0.2210  0.1390
46786SOL    HW150672   9.794   2.017   2.118 -0.1512 -0.4757  0.4359
46786SOL    HW250673   9.943   2.005   2.094 -0.1108  1.1488 -0.2074
46787SOL     OW50674   0.129  12.240   9.295 -0.0769 -0.1055  0.2772
46787SOL    HW150675   0.141  12.152   9.331  1.1936 -0.3165 -0.5801
46787SOL    HW250676   0.202  12.291   9.331 -0.1602  0.3001 -0.1094
46788SOL     OW50677   9.915   1.086   3.051 -0.5239  0.2320  0.0703
46788SOL    HW150678   9.854   1.146   3.009  0.3108 -0.4349 -2.2507
46788SOL    HW250679   9.893   1.000   3.016  0.4602 -0.3170  0.7388
46789SOL     OW50680   1.607   8.139   3.548  0.0189 -0.0672 -0.8440
46789SOL    HW150681   1.531   8.134   3.490  0.7977 -0.6365 -1.8576
46789SOL    HW250682   1.682   8.128   3.489  0.9613  1.7202 -0.0502
46790SOL     OW50683   5.752   0.945   4.160 -0.0169  0.4079 -0.1513
46790SOL    HW150684   5.840   0.970   4.133 -0.1701  0.6044 -0.4755
46790SOL    HW250685   5.695   0.988   4.097 -0.3970  1.1236  0.6646
46791SOL     OW50686   4.875  12.497   5.665 -0.0656 -0.2264 -0.4144
46791SOL    HW150687   4.909  12.424   5.717 -0.6094 -0.9011 -0.9825
46791SOL    HW250688   4.935  12.504   5.591 -0.8465 -1.0946 -1.1557
46792SOL     OW50689   6.222   0.495   5.296 -0.2420  0.6046 -0.1654
46792SOL    HW150690   6.131   0.475   5.316 -0.3502  1.0386 -0.2236
46792SOL    HW250691   6.219   0.563   5.229  0.1179  1.3222  0.5322
46793SOL     OW50692   8.324  11.798   2.800  1.0875 -0.5222 -0.0760
46793SOL    HW150693   8.244  11.758   2.833  2.9558 -1.8510  3.4059
46793SOL    HW250694   8.309  11.892   2.805 -1.6611 -0.5371 -3.7706
46794SOL     OW50695  12.387   4.173  10.882 -0.3772 -0.1145 -0.2615
46794SOL    HW150696  12.335   4.206  10.956 -0.2732 -0.9081  0.1783
46794SOL    HW250697  12.478   4.187  10.908 -0.3345 -0.6081 -0.1271
46795SOL     OW50698   5.902   5.418   3.140 -0.4876  0.4071 -0.2939
46795SOL    HW150699   5.813   5.449   3.122 -0.0942  0.6261 -2.0672
46795SOL    HW250700   5.890   5.339   3.191 -1.7063  0.4947 -0.4220
46796SOL     OW50701   6.465   3.991   9.538  0.6427 -0.4838  0.1515
46796SOL    HW150702   6.490   4.015   9.448 -0.4570 -2.4886 -0.7512
46796SOL    HW250703   6.537   3.938   9.570  1.1000  0.3475  0.5486
46797SOL     OW50704   0.513   6.690  11.246 -0.4613 -0.2686  0.4688
46797SOL    HW150705   0.437   6.636  11.266  0.6922 -1.1500  2.8505
46797SOL    HW250706   0.503   6.767  11.301 -0.5047  0.5039 -0.5800
46798SOL     OW50707   8.848   3.119   8.019 -0.3800 -0.6293  0.0420
46798SOL    HW150708   8.807   3.172   8.087 -1.4034 -0.4819 -0.6724
46798SOL    HW250709   8.794   3.041   8.014  0.4893 -1.2711  0.3291
46799SOL     OW50710  10.461   0.323   7.838  0.0783  1.0406  0.3121
46799SOL    HW150711  10.460   0.300   7.745 -0.0357  1.9370  0.0896
46799SOL    HW250712  10.548   0.297   7.869 -0.6385 -1.3895  0.5137
46800SOL     OW50713   1.462  11.781   8.621  0.1290  0.0455 -0.0138
46800SOL    HW150714   1.389  11.774   8.559  0.8361 -1.0205 -0.7470
46800SOL    HW250715   1.440  11.719   8.691 -0.4274  0.8897  0.5832
46801SOL     OW50716   9.083   7.364   0.065 -0.4891 -0.1630  0.0437
46801SOL    HW150717   9.121   7.392  -0.018  0.9485  0.1042  0.7636
46801SOL    HW250718   9.000   7.412   0.070 -0.4302  0.0933 -1.0635
46802SOL     OW50719   8.429   8.720   4.298  0.7741  1.3765 -0.1067
46802SOL    HW150720   8.479   8.721   4.379  0.4784  1.3335  0.0795
46802SOL    HW250721   8.472   8.654   4.243  1.4412  1.9622 -0.2908
46803SOL     OW50722   6.871   4.417   1.890  0.2121 -0.5025  0.3030
46803SOL    HW150723   6.881   4.438   1.983  0.5653 -0.1687  0.1946
46803SOL    HW250724   6.784   4.450   1.868 -0.2020 -1.3126  0.7037
46804SOL     OW50725   6.167   1.174   0.196  0.5601  0.4068 -0.0936
46804SOL    HW150726   6.222   1.188   0.119  0.1152 -2.4673 -1.0618
46804SOL    HW250727   6.077   1.180   0.161  0.3218  0.7575  0.5710
46805SOL     OW50728  11.625  11.260   8.774 -0.0275 -0.1530 -0.0372
46805SOL    HW150729  11.694  11.276   8.709 -1.3248  0.6233 -1.2667
46805SOL    HW250730  11.578  11.184   8.741  0.4374 -0.9161  1.0015
46806SOL     OW50731  11.018   1.290  10.222  0.4438 -0.1711 -0.0061
46806SOL    HW150732  11.034   1.205  10.264  2.5313 -0.4359 -1.1869
46806SOL    HW250733  11.078   1.350  10.265  2.3041 -0.3499 -2.1280
46807SOL     OW50734   6.123  10.652   2.364 -0.3548  0.3617 -0.1313
46807SOL    HW150735   6.161  10.573   2.326 -0.2024 -0.1895  1.1094
46807SOL    HW250736   6.163  10.658   2.451 -2.3918  0.2961  0.8548
46808SOL     OW50737   0.022   1.824  10.009 -0.0937  0.1823 -0.4511
46808SOL    HW150738   0.089   1.890   9.991 -0.0550  0.4659  0.6340
46808SOL    HW250739  -0.009   1.845  10.097 -0.5019 -0.8909 -0.3204
46809SOL     OW50740   3.813   5.335   6.873  0.2781 -0.0759  0.1720
46809SOL    HW150741   3.795   5.291   6.956  1.2443  0.3327  0.6218
46809SOL    HW250742   3.852   5.419   6.899 -1.3858  0.9933 -0.6702
46810SOL     OW50743   5.878  10.465   8.961 -0.0278 -0.2455 -0.0689
46810SOL    HW150744   5.874  10.561   8.954  2.7580 -0.0025  0.4897
46810SOL    HW250745   5.971  10.446   8.972 -0.3861 -3.1370 -1.2317
46811SOL     OW50746   0.525  12.749  10.636  0.0737 -0.2463 -0.4317
46811SOL    HW150747   0.523  12.767  10.730  0.4681  0.7553 -0.6029
46811SOL    HW250748   0.611  12.710  10.621  0.0386 -0.3422 -0.3805
46812SOL     OW50749  12.206   9.092   8.918  0.3561 -0.3053  0.1912
46812SOL    HW150750  12.236   9.121   8.831 -1.4696 -1.9818 -1.0900
46812SOL    HW250751  12.262   9.017   8.938  0.4235 -0.2445  0.2332
46813SOL     OW50752  11.433   7.881   8.965 -0.8267 -0.2381 -0.4595
46813SOL    HW150753  11.511   7.883   8.909 -0.3322 -1.0413  0.1626
46813SOL    HW250754  11.379   7.810   8.929 -0.3990 -0.9134  0.1877
46814SOL     OW50755  10.323   5.908   4.123 -0.6310 -0.2452 -0.4393
46814SOL    HW150756  10.367   5.832   4.084  1.0446  1.0598 -1.2049
46814SOL    HW250757  10.230   5.884   4.122 -0.2209 -2.0197 -1.2599
46815SOL     OW50758   7.788   5.717   2.868 -0.0835 -0.0731 -0.2149
46815SOL    HW150759   7.726   5.684   2.933 -0.4729  0.1578 -0.4610
46815SOL    HW250760   7.741   5.788   2.824 -0.5973 -1.4727 -2.0606
46816SOL     OW50761   0.660  12.499   2.935  0.0393  0.2343 -0.3443
46816SOL    HW150762   0.630  12.590   2.945  0.0997  0.4097 -1.5311
46816SOL    HW250763   0.677  12.491   2.841  0.4759 -0.8756 -0.1762
46817SOL     OW50764   0.947   2.126  11.277 -0.0067  0.5148  0.4386
46817SOL    HW150765   0.915   2.164  11.195  0.1845  0.4149  0.3134
46817SOL    HW250766   0.944   2.031  11.261  0.1727  0.4998  0.4906
46818SOL     OW50767  12.560  12.179  10.691 -0.2965 -0.0416  0.2025
46818SOL    HW150768  12.546  12.101  10.745 -1.7591  0.3867  0.4772
46818SOL    HW250769  12.642  12.161  10.644  0.0187 -1.2198  1.1502
46819SOL     OW50770   0.293   7.861   8.589 -0.4431 -0.1750  0.1951
46819SOL    HW150771   0.362   7.895   8.645  0.8150 -1.0371 -0.7820
46819SOL    HW250772   0.298   7.766   8.598 -1.8997 -0.2537  0.5420
46820SOL     OW50773   5.628   5.873   4.138 -0.4118 -0.0573  0.2853
46820SOL    HW150774   5.627   5.968   4.153 -1.3422  0.1525 -0.9712
46820SOL    HW250775   5.547   5.855   4.092 -0.2501 -1.4885  0.5134
46821SOL     OW50776   3.582   7.007   9.400  0.4304  0.3780 -0.1498
46821SOL    HW150777   3.643   7.025   9.472  0.5170  0.0054 -0.1287
46821SOL    HW250778   3.635   6.964   9.333  0.3136  0.5765 -0.3737
46822SOL     OW50779   2.953   1.309   9.561  0.3286 -0.0416  0.0911
46822SOL    HW150780   3.031   1.292   9.508  0.6444  0.1251  0.4968
46822SOL    HW250781   2.956   1.241   9.629  0.0142 -0.1570 -0.0108
46823SOL     OW50782   4.449   0.643   3.844 -1.2817 -0.1544 -0.1363
46823SOL    HW150783   4.470   0.713   3.906  1.1700 -0.7660 -0.1963
46823SOL    HW250784   4.430   0.567   3.899 -2.0188  0.0429 -0.1081
46824SOL     OW50785   3.660   8.970   0.540  0.1862  0.0304  0.0830
46824SOL    HW150786   3.626   9.013   0.462  3.9360 -0.4653 -2.0424
46824SOL    HW250787   3.727   9.029   0.573  0.6825 -1.0929  1.1806
46825SOL     OW50788   4.723   6.345   1.402 -0.0029  0.2824 -0.0726
46825SOL    HW150789   4.715   6.331   1.497 -3.8506  3.5462  0.3848
46825SOL    HW250790   4.761   6.432   1.394 -2.5622  1.4023 -1.2502
46826SOL     OW50791   0.550   7.054   7.608  0.3690  0.3361  0.0852
46826SOL    HW150792   0.588   7.037   7.694  0.8445  0.6815 -0.0573
46826SOL    HW250793   0.551   7.149   7.599 -0.2914  0.3394 -0.0289
46827SOL     OW50794   0.970   7.658  11.155  0.2548  0.3507  0.0736
46827SOL    HW150795   0.913   7.627  11.225  0.3694  1.3981  0.6589
46827SOL    HW250796   1.038   7.707  11.201  0.7495  0.4176 -0.7282
46828SOL     OW50797   9.051   2.237   7.593  0.0210 -0.0675  0.4705
46828SOL    HW150798   9.011   2.247   7.679  1.3547  4.4858  0.8256
46828SOL    HW250799   9.141   2.209   7.612  0.2958  0.8738  0.6262
46829SOL     OW50800   0.390   3.914  12.738 -0.6469 -0.1746 -0.1917
46829SOL    HW150801   0.381   3.901  12.644 -1.7568 -1.0967  0.0222
46829SOL    HW250802   0.308   3.955  12.765 -1.1716 -1.6963  0.6465
46830SOL     OW50803  11.510   9.570  10.447 -0.1128  0.0766 -0.1874
46830SOL    HW150804  11.459   9.591  10.525 -1.4588  0.3916 -1.1138
46830SOL    HW250805  11.538   9.479  10.461 -1.1495 -0.1959  0.2407
46831SOL     OW50806   0.467   2.317  11.646  0.0148 -0.3164 -0.3606
46831SOL    HW150807   0.386   2.363  11.625 -0.8628 -1.1692  0.9101
46831SOL    HW250808   0.526   2.384  11.680  0.2096  0.4660 -2.1663
46832SOL     OW50809   4.448   9.884   4.218  0.2383  0.4723 -0.1451
46832SOL    HW150810   4.456   9.961   4.162  1.5036  0.8930  0.5742
46832SOL    HW250811   4.494   9.908   4.299 -1.5073 -0.1294  1.0859
46833SOL     OW50812   3.142   7.766   6.757  0.4314 -0.1662  0.0819
46833SOL    HW150813   3.059   7.807   6.732  1.0131  1.2205  0.3713
46833SOL    HW250814   3.142   7.767   6.852  0.8879  0.0532  0.0801
46834SOL     OW50815  12.089   0.942   7.471  0.0683 -0.5016 -0.2239
46834SOL    HW150816  12.052   1.025   7.442  1.5130  0.7425  1.2705
46834SOL    HW250817  12.143   0.913   7.397  2.0742  1.5536  0.3345
46835SOL     OW50818   3.233   9.082   1.254  0.1011  0.6785 -0.7370
46835SOL    HW150819   3.258   8.991   1.239  1.8777  1.0865 -0.4281
46835SOL    HW250820   3.195   9.082   1.342  4.8384  0.9893  1.5849
46836SOL     OW50821   3.664   0.616  11.043  0.4606  0.7846  0.4081
46836SOL    HW150822   3.746   0.655  11.072  0.7294  0.1037  0.5744
46836SOL    HW250823   3.622   0.685  10.990  2.7982 -0.0144 -2.7635
46837SOL     OW50824   0.812   0.623   8.237  0.4738  0.0935 -0.0146
46837SOL    HW150825   0.718   0.613   8.220  0.1544  2.9449 -0.3356
46837SOL    HW250826   0.854   0.578   8.164 -0.6672 -0.1336 -0.5525
46838SOL     OW50827  11.472  10.433  12.709  0.1492 -0.3052 -0.0044
46838SOL    HW150828  11.432  10.435  12.796  1.8125 -0.2512  0.7807
46838SOL    HW250829  11.561  10.402  12.723  0.1421 -1.3218 -1.8331
46839SOL     OW50830   2.079   4.232   1.762  0.4309  1.0248  0.0058
46839SOL    HW150831   2.084   4.168   1.691 -0.5511 -0.5499  1.2839
46839SOL    HW250832   1.997   4.278   1.746  0.6885  1.3603 -0.3969
46840SOL     OW50833   1.294   7.184   3.560 -0.1115 -0.1264 -0.1097
46840SOL    HW150834   1.289   7.110   3.621 -1.0868 -0.0825 -0.1196
46840SOL    HW250835   1.225   7.243   3.588  0.2268  0.4738 -0.5176
46841SOL     OW50836   0.062   7.523   0.717 -0.3766  0.0004 -0.6171
46841SOL    HW150837   0.114   7.541   0.638 -0.9629  0.0321 -1.0020
46841SOL    HW250838   0.106   7.572   0.786  0.8228 -0.9617 -0.6780
46842SOL     OW50839   2.756  10.601  12.429  0.5184 -0.1331 -0.1016
46842SOL    HW150840   2.794  10.623  12.514 -0.7376 -1.8870  0.9636
46842SOL    HW250841   2.683  10.661  12.419  0.0136 -0.6234  0.5731
46843SOL     OW50842   0.655   5.956   3.573 -0.2947  0.0780  0.2415
46843SOL    HW150843   0.608   5.875   3.592  0.6666 -0.3944  0.6712
46843SOL    HW250844   0.608   6.023   3.620 -1.8263 -0.0104 -1.0806
46844SOL     OW50845   5.387   3.871   5.769  0.7255  1.0182  0.8287
46844SOL    HW150846   5.318   3.918   5.815 -1.2806 -0.8584 -0.0705
46844SOL    HW250847   5.346   3.840   5.688  2.7791  0.2515 -0.0098
46845SOL     OW50848   2.115  11.616   5.415  0.1466 -0.1326  0.3606
46845SOL    HW150849   2.154  11.703   5.429 -0.1523 -0.0441  0.6447
46845SOL    HW250850   2.191  11.557   5.408  0.4287  0.4205 -1.8043
46846SOL     OW50851   9.152   1.350  10.536 -0.1079 -0.2266  0.3893
46846SOL    HW150852   9.202   1.350  10.617  1.5140  0.4446 -0.5661
46846SOL    HW250853   9.202   1.406  10.477 -1.3185 -0.5870 -1.0353
46847SOL     OW50854  10.384   6.614   8.216  0.1672  0.2596  0.7735
46847SOL    HW150855  10.461   6.670   8.218 -0.8488  1.7926 -0.2122
46847SOL    HW250856  10.312   6.674   8.193 -1.4685 -0.9253  2.4456
46848SOL     OW50857  11.077   9.617   5.890 -0.6365  0.0291  0.2632
46848SOL    HW150858  11.084   9.590   5.981  0.7764  0.5082  0.3183
46848SOL    HW250859  11.158   9.586   5.849 -0.7952  0.7035 -0.5946
46849SOL     OW50860   6.950   3.275   7.668  0.3993  0.2779 -0.2691
46849SOL    HW150861   6.979   3.209   7.731  0.9540  0.4285 -0.3655
46849SOL    HW250862   6.906   3.225   7.599 -0.0119  0.0921  0.1179
46850SOL     OW50863   5.378  12.503   3.373  0.0406 -0.3122 -0.4988
46850SOL    HW150864   5.341  12.415   3.380  0.1152 -0.2658  0.7793
46850SOL    HW250865   5.374  12.537   3.462 -0.2282  1.0883 -1.0316
46851SOL     OW50866   0.574   7.233   9.063  0.3984  0.3057 -0.1737
46851SOL    HW150867   0.641   7.214   9.129  1.3452  3.2781 -0.1532
46851SOL    HW250868   0.506   7.167   9.079  2.1517 -1.2479  1.4533
46852SOL     OW50869   1.816   7.084   3.379  0.1459 -0.0875 -0.0595
46852SOL    HW150870   1.874   7.152   3.414 -0.8958  0.3256  0.9347
46852SOL    HW250871   1.735   7.130   3.359  0.0238 -0.7245 -1.0895
46853SOL     OW50872   8.733   1.830   2.141  0.0879  0.1689  0.2594
46853SOL    HW150873   8.753   1.920   2.165  0.9924  0.0608 -0.0465
46853SOL    HW250874   8.637   1.825   2.142  0.0531  0.9109  1.0478
46854SOL     OW50875   5.078   7.104   9.103 -0.0469 -0.1552 -0.2732
46854SOL    HW150876   5.006   7.167   9.100 -0.3477 -0.4158  1.0174
46854SOL    HW250877   5.069   7.054   9.022 -1.8521 -0.7447  0.2448
46855SOL     OW50878  11.980   6.844   3.153 -0.4438  0.3252  0.2847
46855SOL    HW150879  11.993   6.765   3.206 -2.1817  0.5007  1.0520
46855SOL    HW250880  11.929   6.814   3.078 -0.6773  0.6211  0.3245
46856SOL     OW50881   6.335   1.786   8.477 -0.3224 -0.3476  0.0051
46856SOL    HW150882   6.340   1.868   8.526  0.6080 -0.0193 -0.6163
46856SOL    HW250883   6.268   1.735   8.523  1.3572 -0.5771  2.4205
46857SOL     OW50884  10.182   9.610   2.713 -0.2224  0.2829 -0.4432
46857SOL    HW150885  10.137   9.654   2.785 -1.9711 -0.1443 -1.2305
46857SOL    HW250886  10.173   9.517   2.732 -0.1621  0.1785 -0.9112
46858SOL     OW50887  11.828  10.871   0.046 -0.0031 -0.2436  0.0851
46858SOL    HW150888  11.801  10.907   0.130  0.3105  0.2166 -0.0112
46858SOL    HW250889  11.915  10.834   0.062 -0.2361 -0.7788  0.1328
46859SOL     OW50890   5.790   6.858   8.460  0.7361 -0.4678  0.5194
46859SOL    HW150891   5.877   6.827   8.439  1.3886  1.2981  0.4638
46859SOL    HW250892   5.804   6.935   8.515 -0.6915  1.2891 -1.4057
46860SOL     OW50893   5.896  12.703   6.538  0.3391  0.0772 -0.0448
46860SOL    HW150894   5.870  12.636   6.601 -0.6652 -0.0295 -0.5599
46860SOL    HW250895   5.856  12.783   6.569  0.7620  0.2527  0.0553
46861SOL     OW50896   3.308  10.819  10.702  0.2699  0.4714 -0.6445
46861SOL    HW150897   3.248  10.893  10.713  0.5985  0.4110  2.2808
46861SOL    HW250898   3.254  10.742  10.720  0.4927  0.1648 -1.2632
46862SOL     OW50899  10.633  11.919   4.227  0.2059 -0.3626  0.6808
46862SOL    HW150900  10.574  11.966   4.286 -0.9145  0.7097 -1.1903
46862SOL    HW250901  10.697  11.985   4.199  0.2317 -0.6369  0.0803
46863SOL     OW50902   5.525   0.042   1.689 -0.2311 -0.0014  0.0713
46863SOL    HW150903   5.501   0.130   1.659 -0.7335 -0.0121  0.4231
46863SOL    HW250904   5.445  -0.010   1.677 -0.5363  0.0488  1.6261
46864SOL     OW50905  12.597   1.151  12.585 -0.3243 -0.1746 -0.1992
46864SOL    HW150906  12.585   1.057  12.601  1.7912 -0.2949  0.9831
46864SOL    HW250907  12.512   1.190  12.608 -1.2081 -1.7619 -0.6151
46865SOL     OW50908   3.859   6.161  10.695 -0.3244 -0.4305  0.6617
46865SOL    HW150909   3.858   6.150  10.790 -0.6403 -1.1440  0.5844
46865SOL    HW250910   3.789   6.104  10.663 -0.0910 -0.3548 -0.0127
46866SOL     OW50911   7.908  11.540   6.145  0.0240 -0.3633  0.0153
46866SOL    HW150912   7.970  11.478   6.183 -0.2013 -1.1992 -0.9344
46866SOL    HW250913   7.954  11.577   6.069 -0.8387 -1.4978 -1.1070
46867SOL     OW50914   6.303   3.544   2.357 -0.6400 -0.3343 -0.3189
46867SOL    HW150915   6.223   3.583   2.323  0.8082  1.1692 -2.2604
46867SOL    HW250916   6.291   3.450   2.345 -2.0045 -0.1172 -0.7957
46868SOL     OW50917   5.884   9.861   6.060  0.2250  0.2452  0.1996
46868SOL    HW150918   5.964   9.865   6.112 -0.3137 -1.0467  1.1978
46868SOL    HW250919   5.816   9.895   6.117  0.0199  1.2129 -0.5973
46869SOL     OW50920   4.743  10.712   5.540 -0.2240 -0.0142  0.0204
46869SOL    HW150921   4.716  10.698   5.449 -2.2902 -0.0874  0.6026
46869SOL    HW250922   4.751  10.807   5.548  2.1159 -0.0699 -0.7565
46870SOL     OW50923  12.589   1.032   3.892  0.5086  0.4058 -0.3516
46870SOL    HW150924  12.563   1.018   3.801 -0.1215  1.7541 -0.4042
46870SOL    HW250925  12.582   0.946   3.933  0.9719 -0.2528 -1.6107
46871SOL     OW50926   0.966   0.155   7.364 -0.2770  0.3019  0.0040
46871SOL    HW150927   1.011   0.103   7.431 -0.3108  0.6817  0.3235
46871SOL    HW250928   1.001   0.243   7.374  1.5993 -0.1026 -2.1296
46872SOL     OW50929   9.243  10.479  12.234 -0.2536 -0.3040  0.1322
46872SOL    HW150930   9.256  10.474  12.140 -0.4357 -0.2462  0.1033
46872SOL    HW250931   9.159  10.525  12.245  0.3944  0.8535  0.3538
46873SOL     OW50932   3.199   8.891   4.517  0.2700 -0.3725 -0.0398
46873SOL    HW150933   3.205   8.795   4.513  0.0375 -0.4417  1.0812
46873SOL    HW250934   3.290   8.921   4.516  0.3397 -0.4997 -2.0720
46874SOL     OW50935   6.338   4.999   6.334  0.4603 -0.2466  0.1393
46874SOL    HW150936   6.257   5.024   6.290 -0.0584 -1.9630  0.0198
46874SOL    HW250937   6.309   4.962   6.418  1.2698  0.8733  0.9348
46875SOL     OW50938   5.048   4.770   1.929 -0.4040 -0.1984 -0.4937
46875SOL    HW150939   5.096   4.850   1.946 -0.2229 -0.5567  0.7776
46875SOL    HW250940   5.033   4.770   1.834  1.0807  0.4878 -0.7511
46876SOL     OW50941   8.981   7.719   6.857  0.2221 -0.4351 -0.0763
46876SOL    HW150942   8.902   7.666   6.870 -0.6085  0.6834 -0.4323
46876SOL    HW250943   9.006   7.703   6.766  0.0314 -0.3101 -0.1523
46877SOL     OW50944   2.287   4.868   3.654  0.4695 -0.5808 -0.0305
46877SOL    HW150945   2.345   4.849   3.727 -0.1209 -0.2166  0.5486
46877SOL    HW250946   2.344   4.869   3.577  1.1236 -0.8147  0.4427
46878SOL     OW50947   0.398   3.017   9.189  0.1364 -0.4499 -0.1154
46878SOL    HW150948   0.451   2.965   9.128  0.9473 -0.4971  0.6026
46878SOL    HW250949   0.453   3.025   9.268 -0.0042  1.3972 -0.1574
46879SOL     OW50950   7.663  10.328   8.454 -0.5375  0.3649 -0.5160
46879SOL    HW150951   7.718  10.407   8.459  0.0558 -0.1140  1.1680
46879SOL    HW250952   7.602  10.346   8.383 -1.4788  3.0336  0.8341
46880SOL     OW50953   0.523   1.382   8.452 -0.3742  0.1391  0.0136
46880SOL    HW150954   0.524   1.299   8.404 -1.9075  0.6108 -0.9013
46880SOL    HW250955   0.614   1.411   8.451  0.2559 -1.6776  0.6557
46881SOL     OW50956  12.702   7.751   3.657 -0.1277 -0.4490 -0.1994
46881SOL    HW150957  12.741   7.834   3.686  0.1462 -1.0432  1.1746
46881SOL    HW250958  12.683   7.703   3.737 -0.9179 -1.4468 -0.9554
46882SOL     OW50959   0.912  12.246   8.628 -0.1797  0.0944 -0.0079
46882SOL    HW150960   0.902  12.151   8.633 -1.8348  0.2633  0.8291
46882SOL    HW250961   0.931  12.273   8.718  1.6840  0.4653 -0.4753
46883SOL     OW50962   2.630   8.107   7.824 -0.5164  0.2455  0.5827
46883SOL    HW150963   2.575   8.186   7.819 -0.4540  0.2147 -0.6937
46883SOL    HW250964   2.704   8.133   7.879 -0.0288  1.3778 -0.5653
46884SOL     OW50965  10.188   8.512   6.116 -0.1154  0.0817 -0.5356
46884SOL    HW150966  10.232   8.547   6.038  0.1907  0.8482 -0.0336
46884SOL    HW250967  10.247   8.534   6.189 -0.6622 -0.1253 -0.0211
46885SOL     OW50968   2.370   3.377   9.318 -0.2341 -0.6721 -0.1227
46885SOL    HW150969   2.350   3.285   9.299  0.5573 -0.8134 -0.2740
46885SOL    HW250970   2.292   3.424   9.289 -0.2470 -1.1981 -0.9651
46886SOL     OW50971   0.981   7.388   9.282  0.5667 -0.0581  0.1228
46886SOL    HW150972   1.009   7.296   9.291  0.0577 -0.3515 -1.1391
46886SOL    HW250973   0.944   7.409   9.368  0.2177 -1.2017  0.2754
46887SOL     OW50974  10.798   5.051  12.571  0.0961  0.5288  0.2507
46887SOL    HW150975  10.849   4.976  12.540 -1.2864 -0.1212 -0.5708
46887SOL    HW250976  10.826   5.123  12.514  0.7408  0.4114  0.4090
46888SOL     OW50977   0.964   7.507   1.297 -0.2460  0.0831  0.3386
46888SOL    HW150978   1.019   7.432   1.273 -1.4065 -0.2910 -1.3229
46888SOL    HW250979   0.945   7.493   1.389  0.1830 -1.2730  0.2563
46889SOL     OW50980   3.055   2.176   2.250 -0.0890  0.1244 -0.3639
46889SOL    HW150981   2.979   2.157   2.196 -1.0469 -0.6037  1.1510
46889SOL    HW250982   3.100   2.091   2.258  0.4210  0.3711 -0.5700
46890SOL     OW50983  11.242   1.848   7.379 -0.3487  0.0769  0.2870
46890SOL    HW150984  11.203   1.832   7.465  1.9582  0.2973  1.4615
46890SOL    HW250985  11.175   1.897   7.331 -2.0643 -0.8782  1.5938
46891SOL     OW50986   8.085   4.168   6.519  0.5385 -0.2363 -0.2722
46891SOL    HW150987   8.084   4.141   6.611  1.9081 -0.8934 -0.4338
46891SOL    HW250988   8.014   4.232   6.513  0.5304 -0.0563  1.2752
46892SOL     OW50989   7.912   0.482   7.503  0.2189 -0.5409  0.1136
46892SOL    HW150990   7.879   0.393   7.490  1.3892 -0.9107 -0.4246
46892SOL    HW250991   7.915   0.520   7.416 -1.2558  0.4118  0.4435
46893SOL     OW50992   4.186   2.532  11.674 -0.1699 -0.3008 -0.1340
46893SOL    HW150993   4.105   2.510  11.720  1.0213 -1.3411  1.5664
46893SOL    HW250994   4.178   2.625  11.653 -0.7334  0.2501  2.2826
46894SOL     OW50995   7.103   2.213   2.780  0.4006 -0.2767  0.2006
46894SOL    HW150996   7.165   2.180   2.845 -0.5042  0.9696  1.7573
46894SOL    HW250997   7.024   2.232   2.830 -0.7869 -0.5160 -1.5062
46895SOL     OW50998   9.341   6.807   8.309 -0.1504 -0.0991 -0.2669
46895SOL    HW150999   9.431   6.821   8.339 -0.4410  0.0579  0.5582
46895SOL    HW251000   9.291   6.876   8.351 -0.6354 -0.0741 -0.8719
46896SOL     OW51001   4.964  10.864  11.143 -0.0792 -0.4385  0.1968
46896SOL    HW151002   4.978  10.867  11.049  0.1867 -0.8892  0.2240
46896SOL    HW251003   4.875  10.899  11.155 -0.8014 -2.0105 -0.3794
46897SOL     OW51004   2.704   7.304  12.172  0.0081  0.2423 -0.5171
46897SOL    HW151005   2.708   7.281  12.079  0.8861  1.7423 -0.8853
46897SOL    HW251006   2.764   7.378  12.181 -1.8475  1.6798  0.7781
46898SOL     OW51007   1.582   7.276   0.111  0.4731 -0.1886  0.6516
46898SOL    HW151008   1.537   7.270   0.026  1.0524  0.5058  0.2857
46898SOL    HW251009   1.517   7.249   0.175 -0.3828  0.5245  0.1005
46899SOL     OW51010  12.080   1.056   2.221  0.5773  0.3102  0.6683
46899SOL    HW151011  12.125   0.976   2.248  0.8205  0.7387  1.5688
46899SOL    HW251012  12.025   1.079   2.296 -1.0552 -0.1093 -0.3418
46900SOL     OW51013   3.186  10.071   1.070 -0.1976 -0.0510 -0.2048
46900SOL    HW151014   3.244  10.048   0.998 -1.7937  1.5575 -2.1532
46900SOL    HW251015   3.158   9.987   1.107  1.2861 -0.8924 -0.9265
46901SOL     OW51016   1.640   7.776   5.431 -0.1931  0.1428  0.2823
46901SOL    HW151017   1.680   7.839   5.370  0.9074 -1.3551 -0.6024
46901SOL    HW251018   1.655   7.815   5.518  0.0897  1.3007 -0.2593
46902SOL     OW51019  11.722  11.615   5.379  0.1788  0.7765 -0.1962
46902SOL    HW151020  11.666  11.651   5.448 -0.7216  0.4077 -0.7247
46902SOL    HW251021  11.662  11.565   5.323  1.0257  0.4383 -0.8151
46903SOL     OW51022   2.627   5.654  11.195  0.6984 -0.4671 -0.3683
46903SOL    HW151023   2.649   5.562  11.178 -0.6003 -0.8607 -0.0329
46903SOL    HW251024   2.532   5.659  11.181  0.4970  0.4817  1.0992
46904SOL     OW51025  11.420   9.805  11.115  0.4032 -0.2729  0.5420
46904SOL    HW151026  11.389   9.807  11.205  1.0970 -2.5548  0.8850
46904SOL    HW251027  11.479   9.880  11.108 -1.4229  1.3157  1.2472
46905SOL     OW51028   0.306   2.290   2.866  0.8456  0.0552 -0.2750
46905SOL    HW151029   0.240   2.236   2.822  0.5125 -0.0156  0.2924
46905SOL    HW251030   0.267   2.377   2.869  0.7466  0.0023  0.1051
46906SOL     OW51031   5.051  11.685   0.803  0.3483 -0.7361 -0.3562
46906SOL    HW151032   4.985  11.688   0.733  1.1847  1.6088 -1.1494
46906SOL    HW251033   5.112  11.756   0.781  0.3434  0.5232  3.0713
46907SOL     OW51034   4.865   7.670   7.969  0.2294 -0.5027  0.4648
46907SOL    HW151035   4.911   7.608   7.913 -0.1441  0.7727 -1.3445
46907SOL    HW251036   4.819   7.728   7.908 -3.3774 -1.3491  2.0688
46908SOL     OW51037  11.557   9.339   6.504  0.1140  0.5074  0.4938
46908SOL    HW151038  11.618   9.323   6.432  1.1682 -0.3436  1.5561
46908SOL    HW251039  11.531   9.252   6.534  0.1458  0.8395  1.5275
46909SOL     OW51040   9.265   5.863   6.968 -0.0850  0.0649 -0.4988
46909SOL    HW151041   9.295   5.879   6.878  3.4718  0.0193  0.5278
46909SOL    HW251042   9.248   5.951   7.003  1.1595  0.3142 -0.4647
46910SOL     OW51043  10.266   5.033   3.212  0.1371 -0.4975  0.2700
46910SOL    HW151044  10.218   4.974   3.270 -1.7440  0.0025 -0.7046
46910SOL    HW251045  10.321   4.975   3.160  0.4887 -1.1065  1.2874
46911SOL     OW51046  10.720  10.802  11.798 -0.2885 -0.2365  0.6483
46911SOL    HW151047  10.714  10.744  11.873  0.0595  0.2933  1.0919
46911SOL    HW251048  10.754  10.884  11.833 -2.2272  0.7706  0.3375
46912SOL     OW51049   9.173   9.961   8.447  0.2647 -0.0950 -0.0710
46912SOL    HW151050   9.152   9.912   8.368  2.2468 -2.8414  0.9465
46912SOL    HW251051   9.108   9.932   8.511 -1.4831  2.2962 -0.6124
46913SOL     OW51052   8.605   8.697   5.561 -0.5060  0.3689 -0.0310
46913SOL    HW151053   8.684   8.726   5.606 -0.9277  1.3511  0.1135
46913SOL    HW251054   8.535   8.707   5.626 -0.6840 -0.9764  0.0080
46914SOL     OW51055   1.959   8.634   3.974 -0.2693  0.6051  0.6138
46914SOL    HW151056   2.021   8.681   3.917  1.1619 -0.6712  1.0565
46914SOL    HW251057   1.893   8.700   3.996 -1.4444  0.9618 -3.2267
46915SOL     OW51058   6.755   3.327   3.025  0.0326  0.0478 -0.0530
46915SOL    HW151059   6.767   3.237   2.997  0.1386 -0.0214  0.2102
46915SOL    HW251060   6.685   3.322   3.091  0.7136  0.0234  0.6712
46916SOL     OW51061  11.559  12.919  12.314 -0.0928 -0.5476  0.4534
46916SOL    HW151062  11.542  12.983  12.245 -0.9611 -0.7897  0.4367
46916SOL    HW251063  11.477  12.871  12.323  0.3685 -1.2608  0.8850
46917SOL     OW51064   9.612   3.508   1.126  0.1828  0.0972  0.1771
46917SOL    HW151065   9.518   3.490   1.124  0.4134 -1.1932 -0.1098
46917SOL    HW251066   9.620   3.588   1.176 -1.0907  0.3354  0.0441
46918SOL     OW51067   5.962  11.021  11.319  0.1735 -0.5451  0.1321
46918SOL    HW151068   5.938  11.108  11.350 -1.2601 -1.6111  2.2149
46918SOL    HW251069   6.044  11.000  11.364  1.2055  0.1570 -1.3272
46919SOL     OW51070  12.921   4.824  10.266 -0.3827 -0.0311 -0.0024
46919SOL    HW151071  12.827   4.828  10.249 -0.0074  1.4016 -2.1139
46919SOL    HW251072  12.953   4.755  10.208 -0.0275  0.0350  0.1130
46920SOL     OW51073   1.275   5.955   1.803 -0.2755 -0.6653  0.0659
46920SOL    HW151074   1.201   5.895   1.806 -2.4334  1.8458  1.7627
46920SOL    HW251075   1.250   6.021   1.738  1.6785 -1.0745 -1.1970
46921SOL     OW51076   2.611   9.869  12.777 -0.1299 -0.4394 -0.5923
46921SOL    HW151077   2.683   9.853  12.716  0.9968 -0.0020  0.5626
46921SOL    HW251078   2.550   9.797  12.762  0.7430 -1.0528 -1.3343
46922SOL     OW51079   9.606   3.113   3.226  0.0017  0.0422 -0.3408
46922SOL    HW151080   9.699   3.133   3.219  0.0830 -0.8962 -3.1571
46922SOL    HW251081   9.562   3.184   3.179 -0.5382 -0.4377 -0.5802
46923SOL     OW51082   7.038   2.824   3.018  0.1388 -0.1815  0.3798
46923SOL    HW151083   7.066   2.742   2.977 -1.9686 -1.0699  0.5972
46923SOL    HW251084   7.101   2.838   3.089  0.4449 -1.7054  0.4476
46924SOL     OW51085   8.513  11.035   2.276 -0.3363  0.2949 -0.0279
46924SOL    HW151086   8.565  11.025   2.355 -2.1918 -1.7002  1.0332
46924SOL    HW251087   8.424  11.049   2.307 -0.9965  0.1963 -1.7604
46925SOL     OW51088   4.780   3.476   1.354 -0.4839 -0.2389  0.0090
46925SOL    HW151089   4.853   3.523   1.396  0.1281 -2.4303  1.5722
46925SOL    HW251090   4.707   3.538   1.357  1.0523  1.7651 -0.9402
46926SOL     OW51091   8.553  11.794   3.039  0.4024  0.0494 -0.3549
46926SOL    HW151092   8.537  11.701   3.057  1.2763 -0.0382  0.0434
46926SOL    HW251093   8.528  11.805   2.948  1.4308 -0.8745 -0.7754
46927SOL     OW51094   8.988   3.947   1.899  0.3843 -0.2583 -0.2782
46927SOL    HW151095   9.035   3.866   1.921  2.4727  0.5028 -1.6118
46927SOL    HW251096   8.956   3.980   1.983  0.4198 -1.9111  0.4161
46928SOL     OW51097  12.112   1.541  11.103 -0.0654  0.1651 -0.1319
46928SOL    HW151098  12.207   1.530  11.103  0.1063  0.8274 -3.2704
46928SOL    HW251099  12.099   1.630  11.136  0.4777  0.3855 -0.4930
46929SOL     OW51100   2.639   9.736  11.103 -0.2054 -0.4924 -0.3336
46929SOL    HW151101   2.691   9.733  11.183  1.5995 -2.0768 -1.5147
46929SOL    HW251102   2.549   9.748  11.134  0.7039  1.7243  1.7869
46930SOL     OW51103   5.651   1.717   6.350  0.0733 -0.7669  0.2210
46930SOL    HW151104   5.714   1.645   6.352 -0.2756 -1.1008  3.0708
46930SOL    HW251105   5.624   1.728   6.441  0.3970  3.2435  0.0283
46931SOL     OW51106   4.328   5.301   7.095 -0.0226  0.7474 -0.2260
46931SOL    HW151107   4.353   5.299   7.187  1.1785  2.0818 -0.4791
46931SOL    HW251108   4.409   5.323   7.049 -0.2861 -1.1860 -1.7574
46932SOL     OW51109   8.791   0.902  12.245 -0.4937 -0.2212 -0.4450
46932SOL    HW151110   8.780   0.988  12.286 -0.3742 -0.8402  0.9393
46932SOL    HW251111   8.857   0.916  12.177  0.7003  0.4743  0.8042
46933SOL     OW51112   1.363   0.250   2.915 -0.2532 -0.1078  0.7502
46933SOL    HW151113   1.398   0.255   2.826 -1.1104 -1.8517  0.2628
46933SOL    HW251114   1.436   0.218   2.968  0.2953  1.0525  0.7140
46934SOL     OW51115   9.942  10.319   0.031 -0.0154  0.0150  0.1053
46934SOL    HW151116   9.925  10.345   0.121  0.0367  0.2112  0.0587
46934SOL    HW251117   9.995  10.239   0.039  2.2924  1.4569  0.2897
46935SOL     OW51118   3.484   3.779   9.931  0.4123  0.4001  0.0782
46935SOL    HW151119   3.498   3.717  10.003 -0.8542 -1.0697 -0.8655
46935SOL    HW251120   3.501   3.728   9.852 -0.6202  1.2644 -0.7270
46936SOL     OW51121   7.053   9.694   3.213 -0.0950  0.1734 -0.1917
46936SOL    HW151122   7.091   9.611   3.184  0.8471  0.9188 -1.1251
46936SOL    HW251123   6.979   9.708   3.153 -0.9090 -0.4815  0.6217
46937SOL     OW51124  11.572   5.821   0.852  0.2785 -0.7407 -0.3685
46937SOL    HW151125  11.533   5.902   0.820 -0.8294 -1.3026 -0.4719
46937SOL    HW251126  11.629   5.792   0.780 -0.4037 -0.7793 -0.8993
46938SOL     OW51127   9.242   1.558  11.967 -0.7357 -0.7039  0.4220
46938SOL    HW151128   9.267   1.641  11.927 -0.1087 -0.9188  0.3518
46938SOL    HW251129   9.220   1.500  11.894  1.0152 -1.2937  0.3013
46939SOL     OW51130  11.966   2.153   0.679  0.3033 -0.4757 -0.4933
46939SOL    HW151131  11.883   2.201   0.678 -1.1074 -2.6538 -2.8765
46939SOL    HW251132  11.945   2.072   0.725  2.0030  0.1287  1.4749
46940SOL     OW51133   4.391   1.773  12.355  0.0982  0.6327  0.5880
46940SOL    HW151134   4.348   1.844  12.308 -0.4294  1.0031  1.6029
46940SOL    HW251135   4.353   1.775  12.442  0.3659 -0.6541  0.7557
46941SOL     OW51136   0.316   0.133   2.699  0.0039 -0.1772 -0.0486
46941SOL    HW151137   0.375   0.097   2.765  0.1179 -0.0487 -0.0799
46941SOL    HW251138   0.234   0.086   2.712  0.0882 -0.2971  0.0500
46942SOL     OW51139   0.719   3.361   8.680  0.5293  0.2778 -0.0119
46942SOL    HW151140   0.645   3.418   8.659  0.0590 -0.9364 -1.9404
46942SOL    HW251141   0.703   3.333   8.770  0.8353  3.1613  1.0642
46943SOL     OW51142   2.588   3.927   3.082  0.4798  0.7256  0.0143
46943SOL    HW151143   2.579   3.965   2.994 -0.8448 -0.5969 -0.4608
46943SOL    HW251144   2.521   3.859   3.085  1.4131 -0.1598  1.5835
46944SOL     OW51145   2.779  11.422   2.791  0.1266 -0.3884 -0.4250
46944SOL    HW151146   2.756  11.508   2.828  0.8176  0.4391 -1.8373
46944SOL    HW251147   2.723  11.414   2.714 -0.3730 -1.5078  0.0284
46945SOL     OW51148   6.393   8.618  12.909 -0.0383  0.5424  0.2314
46945SOL    HW151149   6.395   8.598  13.002  2.3811 -0.3251  0.0712
46945SOL    HW251150   6.415   8.712  12.904 -0.7639  0.7340  0.5385
46946SOL     OW51151   2.888   6.617   2.156 -0.0317 -0.5087  0.2659
46946SOL    HW151152   2.858   6.569   2.079  0.4469 -0.1825 -0.1303
46946SOL    HW251153   2.959   6.673   2.124 -0.7845  0.7065  0.6324
46947SOL     OW51154   2.596  11.075   6.526  0.4687  0.2311 -0.2344
46947SOL    HW151155   2.547  10.997   6.501  1.0320 -0.6503  1.2550
46947SOL    HW251156   2.575  11.140   6.459 -1.5698 -0.5719 -0.4345
46948SOL     OW51157   4.631   3.856   0.394  0.0608  0.2092  0.4259
46948SOL    HW151158   4.555   3.822   0.440  0.0694 -2.1190 -1.0943
46948SOL    HW251159   4.607   3.851   0.301  1.6612  0.4430 -0.0304
46949SOL     OW51160   0.471  10.350   8.748  0.1988 -0.0172  0.2535
46949SOL    HW151161   0.508  10.358   8.660 -0.0602 -0.5577  0.0891
46949SOL    HW251162   0.423  10.267   8.746 -0.2987  0.2578  0.7294
46950SOL     OW51163   9.023  10.234  12.715  0.0746  0.0745 -0.1674
46950SOL    HW151164   9.025  10.192  12.801 -0.1749  0.6423  0.1201
46950SOL    HW251165   8.947  10.197  12.671 -0.6780  0.8873  0.4280
46951SOL     OW51166  11.476   9.008   8.369 -0.0835 -0.0797  0.0257
46951SOL    HW151167  11.395   8.980   8.327  0.2156 -2.1176  0.7035
46951SOL    HW251168  11.533   9.033   8.296 -1.3905  1.7555 -0.4409
46952SOL     OW51169   3.692   7.230  12.080 -0.0446  0.0263  0.5440
46952SOL    HW151170   3.611   7.268  12.113 -0.6271  0.2171 -1.0370
46952SOL    HW251171   3.688   7.138  12.109 -0.5878  0.1548  0.8938
46953SOL     OW51172   9.246   0.461   1.439 -0.4893 -0.4479  0.2133
46953SOL    HW151173   9.306   0.386   1.445  0.8973  0.6295  0.5400
46953SOL    HW251174   9.175   0.431   1.382  0.1801 -1.9019  0.0995
46954SOL     OW51175   7.542   1.729   3.519  0.2895 -0.1189 -0.5462
46954SOL    HW151176   7.465   1.769   3.479 -1.0740 -1.5969  0.4752
46954SOL    HW251177   7.544   1.640   3.484  1.7421 -0.0264 -0.7804
46955SOL     OW51178   3.176   2.811   4.610  0.1778  0.1486  0.0751
46955SOL    HW151179   3.204   2.721   4.626 -0.0040  0.1202  0.2386
46955SOL    HW251180   3.150   2.812   4.518  2.7891  0.7153 -0.7234
46956SOL     OW51181   2.700  12.430   1.337 -0.4501  0.1152 -0.3448
46956SOL    HW151182   2.706  12.355   1.278  0.3397 -0.9260  1.0031
46956SOL    HW251183   2.609  12.431   1.366  0.0654 -1.9895  1.6338
46957SOL     OW51184  12.169   8.816   3.470  0.5350 -0.7913  0.7469
46957SOL    HW151185  12.199   8.890   3.522 -1.3089  0.0695  0.6615
46957SOL    HW251186  12.244   8.793   3.416  0.8141  1.8379 -0.1443
46958SOL     OW51187   4.599   6.932   6.241 -0.7636  0.2852  0.2526
46958SOL    HW151188   4.649   6.851   6.229 -0.8598  0.5853 -3.5388
46958SOL    HW251189   4.616   6.982   6.161 -3.2589  2.6048  1.0258
46959SOL     OW51190   0.171  12.896   2.457 -0.3016 -0.5522 -0.0468
46959SOL    HW151191   0.104  12.863   2.397 -0.2712 -1.4212  0.3744
46959SOL    HW251192   0.146  12.860   2.543  1.5632 -2.2755 -0.1455
46960SOL     OW51193   0.630   9.189   4.972  0.0233 -0.1958 -0.2587
46960SOL    HW151194   0.666   9.104   4.999 -1.2787 -0.2699  1.4339
46960SOL    HW251195   0.698   9.228   4.917  0.9242 -2.0462 -0.5303
46961SOL     OW51196   2.984   5.219   3.993 -0.0540 -0.1442 -0.2605
46961SOL    HW151197   2.971   5.138   4.043  0.3474  0.7671  1.4018
46961SOL    HW251198   2.914   5.220   3.929 -1.3540 -0.7782  1.0988
46962SOL     OW51199  10.979   4.367  11.548 -0.7150  0.3464  0.1560
46962SOL    HW151200  11.073   4.356  11.565 -0.8732  1.1498  1.7613
46962SOL    HW251201  10.939   4.288  11.585 -0.8978  1.3375  2.2584
46963SOL     OW51202  12.935   6.985   7.586  0.6818  0.0700  0.0567
46963SOL    HW151203  13.020   6.946   7.565  0.4293 -0.1578 -0.5711
46963SOL    HW251204  12.872   6.936   7.532 -0.1224 -1.0642  1.9035
46964SOL     OW51205   0.134   6.704   7.582  0.5548  0.1297 -0.0768
46964SOL    HW151206   0.153   6.612   7.597 -3.6827 -1.0660 -0.9128
46964SOL    HW251207   0.195   6.730   7.512  2.8964 -1.4611  1.2331
46965SOL     OW51208   6.648   2.965   4.259 -0.5852  0.2686  0.1925
46965SOL    HW151209   6.646   3.060   4.270  0.3172  0.4433 -0.9793
46965SOL    HW251210   6.728   2.937   4.304 -0.7359  0.0917  0.3511
46966SOL     OW51211   0.680   7.297   0.711 -0.5589  0.3280  0.0676
46966SOL    HW151212   0.740   7.360   0.670 -0.9508  0.7281  0.0916
46966SOL    HW251213   0.735   7.223   0.735  0.0778  1.0258  0.8267
46967SOL     OW51214   4.710   8.467  10.412 -0.1381  0.0685  0.0982
46967SOL    HW151215   4.696   8.398  10.476 -0.7575 -0.4846 -0.6183
46967SOL    HW251216   4.622   8.494  10.385  0.1079  0.1221 -0.6863
46968SOL     OW51217   3.407   4.627   4.275  0.3516  0.0607 -0.2098
46968SOL    HW151218   3.352   4.550   4.264 -0.3722 -0.1925  3.6623
46968SOL    HW251219   3.493   4.592   4.298  0.7176  0.4434 -0.9668
46969SOL     OW51220   4.132   9.219  11.881  0.1741  0.0271 -0.0328
46969SOL    HW151221   4.098   9.185  11.964  0.6216 -0.1702  0.0685
46969SOL    HW251222   4.155   9.141  11.830  1.2650  0.1735  0.2267
46970SOL     OW51223  10.305   7.886   5.679  0.3850 -0.4719 -0.2492
46970SOL    HW151224  10.362   7.922   5.747 -1.3139  0.0370  0.9667
46970SOL    HW251225  10.246   7.958   5.657 -1.0322 -1.5369 -0.0715
46971SOL     OW51226   2.829   5.391   9.603  0.0409 -0.8189 -0.3402
46971SOL    HW151227   2.867   5.445   9.673 -1.8113  0.5125 -0.3031
46971SOL    HW251228   2.762   5.340   9.647 -1.6215  0.5380 -1.1978
46972SOL     OW51229   6.849   0.784  10.452  0.8676 -0.2230 -0.2311
46972SOL    HW151230   6.834   0.765  10.544  0.0502 -0.6682 -0.4498
46972SOL    HW251231   6.848   0.699  10.409  0.6787  0.0303 -0.7352
46973SOL     OW51232   0.903   4.642   3.604  0.2052 -0.3630 -0.2264
46973SOL    HW151233   0.826   4.690   3.575  1.1655  0.8073 -0.9700
46973SOL    HW251234   0.877   4.602   3.686 -0.3286  2.4245  1.0767
46974SOL     OW51235   3.648   9.147   5.353 -0.6811 -0.2349 -0.0140
46974SOL    HW151236   3.607   9.233   5.356 -0.0954  0.0575 -0.2078
46974SOL    HW251237   3.684   9.134   5.441 -0.7840 -0.2948  0.0204
46975SOL     OW51238   6.929   5.086   6.014  0.1297  0.8409 -0.2667
46975SOL    HW151239   6.906   5.147   6.084  1.5764 -1.5663  2.4708
46975SOL    HW251240   6.858   5.022   6.014  0.4652  0.4673 -0.5817
46976SOL     OW51241   4.228   2.416   6.977 -0.0571  0.3016 -0.1936
46976SOL    HW151242   4.248   2.406   6.884  1.9593 -0.7047  0.2910
46976SOL    HW251243   4.277   2.345   7.020 -0.8615  0.8038  1.6496
46977SOL     OW51244   0.390   8.055   6.031 -0.6933  0.2230 -0.3378
46977SOL    HW151245   0.311   8.018   6.072 -0.4400  0.8291  0.7350
46977SOL    HW251246   0.462   8.024   6.087 -0.3615  1.2442 -0.1858
46978SOL     OW51247   6.474   4.736   8.350 -0.1451 -0.3766 -0.0029
46978SOL    HW151248   6.537   4.666   8.332 -0.1222  0.0569 -1.8541
46978SOL    HW251249   6.522   4.799   8.403  0.4082 -0.9150  0.1421
46979SOL     OW51250   2.628   1.498   0.230 -0.7179 -0.3396 -0.1190
46979SOL    HW151251   2.610   1.506   0.137  1.9400 -0.8005 -0.7379
46979SOL    HW251252   2.614   1.586   0.265 -0.1790  0.2269 -1.2743
46980SOL     OW51253  12.164   7.684   2.537 -0.3694 -0.4916 -0.3855
46980SOL    HW151254  12.164   7.773   2.503  0.1851 -1.2652 -2.6066
46980SOL    HW251255  12.078   7.673   2.576 -1.6934  0.1006 -2.8868
46981SOL     OW51256   2.092   5.430   4.681  0.2184  0.8913 -0.1619
46981SOL    HW151257   2.041   5.357   4.647  0.6068  0.3024  0.5012
46981SOL    HW251258   2.027   5.497   4.703 -0.1347  0.7675 -0.7963
46982SOL     OW51259  12.914   2.401   3.652  0.3562  0.4785  0.4838
46982SOL    HW151260  12.970   2.324   3.660 -0.5852 -0.3422 -0.5654
46982SOL    HW251261  12.825   2.366   3.657 -0.1951  1.0074 -3.2446
46983SOL     OW51262   3.319   2.468   1.158  0.2141 -0.0089  0.0365
46983SOL    HW151263   3.282   2.383   1.183 -1.1623  0.7381  0.6498
46983SOL    HW251264   3.405   2.469   1.198  0.0117 -0.8830  0.5168
46984SOL     OW51265   3.276   2.070   1.474 -0.8662  0.4430  0.1311
46984SOL    HW151266   3.256   2.138   1.538  2.7657  1.9303 -0.0869
46984SOL    HW251267   3.358   2.031   1.504 -1.5180 -2.1611 -1.1368
46985SOL     OW51268   1.600   2.314   7.499  0.0416 -0.2705  0.0503
46985SOL    HW151269   1.661   2.335   7.570  0.8929 -1.6522 -0.2514
46985SOL    HW251270   1.602   2.393   7.443 -0.0776  0.5346  1.1488
46986SOL     OW51271   8.736  11.655   0.570  0.2939  0.5450  1.0592
46986SOL    HW151272   8.776  11.650   0.484  1.0718 -0.8204  1.4723
46986SOL    HW251273   8.752  11.746   0.598  1.6092  0.5199  0.4988
46987SOL     OW51274   6.886   2.158   7.452 -0.3196 -0.0601 -0.0762
46987SOL    HW151275   6.900   2.111   7.535  1.3323  0.3882 -0.0550
46987SOL    HW251276   6.826   2.102   7.403  0.6656 -1.6485  0.4234
46988SOL     OW51277   2.393   1.983   5.349  0.4051 -0.0950 -0.0756
46988SOL    HW151278   2.441   2.066   5.340  0.5444 -0.1562  0.0907
46988SOL    HW251279   2.396   1.944   5.262  0.4856 -0.0047 -0.1135
46989SOL     OW51280  12.660  11.602   6.136 -0.6146  0.6272 -0.1540
46989SOL    HW151281  12.711  11.663   6.083 -1.7859  0.9387 -0.9509
46989SOL    HW251282  12.683  11.515   6.102 -0.4977  0.7550 -0.4034
46990SOL     OW51283   2.318   6.469   7.555  0.4558  0.2731  0.3633
46990SOL    HW151284   2.237   6.461   7.607  0.2150 -0.1021 -0.0670
46990SOL    HW251285   2.385   6.491   7.620 -0.1406  1.4445  0.6199
46991SOL     OW51286  12.389   4.904  10.582 -0.0478 -0.3459 -0.2664
46991SOL    HW151287  12.480   4.880  10.599  0.1908 -0.5438 -1.7004
46991SOL    HW251288  12.347   4.905  10.668  0.9110 -1.8692  0.2479
46992SOL     OW51289   7.638  12.625   7.502  0.0459 -0.1830 -0.3151
46992SOL    HW151290   7.730  12.652   7.502  0.8128 -2.5384 -1.0322
46992SOL    HW251291   7.610  12.636   7.412  0.2519 -1.2434 -0.5307
46993SOL     OW51292   5.889   9.347  11.351 -0.3148 -0.1912  0.2316
46993SOL    HW151293   5.965   9.388  11.310 -0.6028 -0.8280 -1.0241
46993SOL    HW251294   5.856   9.287  11.283 -0.0213 -2.3415  1.8796
46994SOL     OW51295  11.675   5.370  11.094  0.0772 -0.0468 -0.6165
46994SOL    HW151296  11.677   5.275  11.083  0.4605  0.2250 -4.2137
46994SOL    HW251297  11.764   5.394  11.121  0.3092 -0.6217 -0.8636
46995SOL     OW51298   3.044   8.729   6.218 -0.0035  0.3494  0.3216
46995SOL    HW151299   2.981   8.774   6.274  2.1716  0.2541  3.1103
46995SOL    HW251300   3.129   8.766   6.243  1.1280  0.9707 -3.7176
46996SOL     OW51301   7.271  10.954  11.356 -0.1929  0.1386 -0.4745
46996SOL    HW151302   7.319  10.896  11.296 -0.3523  2.3659 -2.9473
46996SOL    HW251303   7.213  11.005  11.299 -3.9057 -0.7900  2.1360
46997SOL     OW51304  10.563   1.283   9.514 -0.2513 -0.1609 -0.0861
46997SOL    HW151305  10.588   1.190   9.510  0.4161 -0.0079  0.3126
46997SOL    HW251306  10.563   1.303   9.608 -1.5435 -0.0581 -0.1012
46998SOL     OW51307  11.385   3.393   9.010  0.5141 -0.0021 -0.0435
46998SOL    HW151308  11.318   3.433   9.066  2.4713  1.2367  1.5546
46998SOL    HW251309  11.412   3.464   8.951  0.6272 -0.3971 -0.4691
46999SOL     OW51310   7.448  10.569   2.031  0.2572 -0.2411 -0.2586
46999SOL    HW151311   7.356  10.543   2.037 -0.1863  0.9693 -1.2453
46999SOL    HW251312   7.496  10.486   2.026 -1.1396 -1.0539 -4.1999
47000SOL     OW51313   0.353   7.839  12.093 -0.8226  0.1852 -0.4381
47000SOL    HW151314   0.444   7.865  12.107 -1.2033  0.9826  0.6648
47000SOL    HW251315   0.338   7.853  11.999  1.2531 -3.4793 -1.5424
47001SOL     OW51316   4.551   7.451  12.504 -0.5941  0.1112  0.1696
47001SOL    HW151317   4.594   7.365  12.494  2.2821  1.5559 -1.4274
47001SOL    HW251318   4.549   7.466  12.598  2.0740 -0.3210  0.3772
47002SOL     OW51319   1.965   0.324   0.605 -0.2072  0.3066  0.3859
47002SOL    HW151320   2.011   0.394   0.558  2.0992 -1.6145 -0.4007
47002SOL    HW251321   1.936   0.264   0.536 -0.1911 -0.5988  1.1516
47003SOL     OW51322   3.736  12.490  11.943  0.3933  0.1304 -0.0873
47003SOL    HW151323   3.806  12.527  11.890 -0.3487  1.9158  0.0885
47003SOL    HW251324   3.659  12.492  11.887 -0.0557  0.5638  0.5263
47004SOL     OW51325   8.703   8.921   5.377 -0.1542  0.1264 -0.1373
47004SOL    HW151326   8.636   8.910   5.310 -0.9910  1.0665  0.5082
47004SOL    HW251327   8.660   8.897   5.459  0.7148 -0.5566  0.1454
47005SOL     OW51328   3.712   9.531   1.418  0.0947 -0.1922  0.1595
47005SOL    HW151329   3.756   9.446   1.415  0.8447  0.1976 -0.1715
47005SOL    HW251330   3.645   9.526   1.350 -0.1078 -0.6472  0.3890
47006SOL     OW51331   5.029   6.466   6.920  0.1116  0.4153  0.1041
47006SOL    HW151332   4.973   6.472   6.998 -0.3282  0.3902 -0.2071
47006SOL    HW251333   5.078   6.385   6.932 -0.2007  0.2379  0.1942
47007SOL     OW51334   3.071   0.313   4.664 -0.4300 -0.3466  0.3660
47007SOL    HW151335   3.044   0.385   4.722 -2.6203 -1.1019  0.3539
47007SOL    HW251336   3.081   0.238   4.723  2.3955  0.0015  0.4654
47008SOL     OW51337   3.474   0.496  10.109 -0.6765  0.1014  0.5737
47008SOL    HW151338   3.406   0.497  10.042 -0.7036 -2.6631  0.4453
47008SOL    HW251339   3.430   0.529  10.188 -1.6047  0.1508  0.0479
47009SOL     OW51340   0.500  10.963   4.065  0.5950  0.5053 -0.3428
47009SOL    HW151341   0.442  11.025   4.020  0.9470  0.7489 -0.4670
47009SOL    HW251342   0.456  10.944   4.148 -0.5761 -0.7565 -1.2158
47010SOL     OW51343   0.432   1.319   9.577 -0.0646 -0.0082  0.5707
47010SOL    HW151344   0.494   1.247   9.564 -0.3446 -0.1402 -0.0570
47010SOL    HW251345   0.408   1.347   9.489  0.3162  1.1006  0.7965
47011SOL     OW51346   5.005   8.928   5.247  0.7237  0.1123  0.1126
47011SOL    HW151347   5.012   8.842   5.206  3.1364 -0.0025  0.5914
47011SOL    HW251348   4.949   8.914   5.323 -0.8762 -0.4460 -1.1013
47012SOL     OW51349  10.747   2.486   4.257  0.3516 -0.6433 -0.5488
47012SOL    HW151350  10.770   2.578   4.243 -0.3443 -0.3872 -0.0335
47012SOL    HW251351  10.812   2.454   4.321 -0.5992  0.0410  0.7986
47013SOL     OW51352   6.577   0.268   4.960  0.2724  0.6001 -0.1266
47013SOL    HW151353   6.632   0.346   4.970  0.5707  0.4055 -0.2574
47013SOL    HW251354   6.505   0.281   5.023  0.6342  0.7110  0.2661
47014SOL     OW51355  11.346   6.988  10.408 -0.2666  0.4952 -0.3385
47014SOL    HW151356  11.390   6.989  10.493  1.7051 -1.9770 -1.1855
47014SOL    HW251357  11.391   6.919  10.359 -2.1166  1.0151 -2.9896
47015SOL     OW51358   2.536   7.354  12.459  0.4687  0.0009 -0.0343
47015SOL    HW151359   2.509   7.287  12.522 -0.8765 -0.6624 -1.2730
47015SOL    HW251360   2.628   7.337  12.444  0.2689 -1.2440  0.0686
47016SOL     OW51361   1.684   5.349   2.641  0.4467  0.0491  0.5023
47016SOL    HW151362   1.667   5.407   2.568  0.7630 -0.7018 -0.1939
47016SOL    HW251363   1.770   5.376   2.673  0.5242  0.0689  0.2808
47017SOL     OW51364  11.900   4.218  10.403 -0.4436  0.3133 -0.1309
47017SOL    HW151365  11.955   4.218  10.324  0.0706 -0.6077  0.2025
47017SOL    HW251366  11.963   4.229  10.475 -0.8225  0.3492  0.1958
47018SOL     OW51367   5.312  12.147   3.867  0.1844  0.0316 -0.0062
47018SOL    HW151368   5.370  12.175   3.938  0.0073 -2.0213  1.0356
47018SOL    HW251369   5.369  12.134   3.792  0.8275 -0.3996  0.5474
47019SOL     OW51370   3.424  10.761   9.639 -0.2328 -0.1764 -0.1879
47019SOL    HW151371   3.352  10.732   9.695 -0.1642 -0.6329 -0.3296
47019SOL    HW251372   3.416  10.708   9.559  0.8680 -0.9812  0.2052
47020SOL     OW51373   1.225  10.771  10.115 -0.1750  0.6606 -0.2021
47020SOL    HW151374   1.263  10.782  10.028 -1.0449 -0.4573 -0.7436
47020SOL    HW251375   1.211  10.861  10.146  1.7014  1.1042 -0.4837
47021SOL     OW51376  10.047   0.208   9.139  0.1937 -0.1413  0.4297
47021SOL    HW151377  10.062   0.244   9.227  2.1423 -1.9187  0.9089
47021SOL    HW251378   9.988   0.133   9.154 -0.1406  0.0488  0.0865
47022SOL     OW51379   5.650   8.830   5.991  0.2282 -0.2055 -0.5895
47022SOL    HW151380   5.561   8.866   5.985  0.6255  0.8190 -0.5496
47022SOL    HW251381   5.685   8.841   5.903  0.5538  0.0620 -0.4294
47023SOL     OW51382  11.857   5.210   5.181  0.0128  0.3676 -0.1942
47023SOL    HW151383  11.922   5.189   5.114  0.1681  1.4583 -0.4070
47023SOL    HW251384  11.781   5.158   5.158 -0.1257  1.1247 -1.5591
47024SOL     OW51385  12.763   9.815   1.128  0.1631 -0.1046 -0.2512
47024SOL    HW151386  12.760   9.774   1.214 -1.0733  0.4460 -0.0227
47024SOL    HW251387  12.725   9.902   1.140 -0.6122 -0.2447 -1.4636
47025SOL     OW51388   4.892   1.347   1.378 -0.0687  0.4027  0.1206
47025SOL    HW151389   4.868   1.260   1.345 -0.6768  0.1258  1.2349
47025SOL    HW251390   4.856   1.349   1.467  2.7888  0.5329  1.3602
47026SOL     OW51391   4.448   5.428  10.814 -0.9660 -0.2606  0.0972
47026SOL    HW151392   4.542   5.430  10.795 -0.9085  0.6928  0.4531
47026SOL    HW251393   4.437   5.349  10.867 -0.3934 -0.4671 -0.0830
47027SOL     OW51394   2.222   6.476   2.156 -0.1494 -0.6064  0.4256
47027SOL    HW151395   2.288   6.421   2.198 -0.3817 -1.2210 -0.0100
47027SOL    HW251396   2.256   6.565   2.166 -0.2046 -0.7255  1.9420
47028SOL     OW51397   8.121  12.643  10.507  0.0722 -0.1001 -0.2676
47028SOL    HW151398   8.028  12.620  10.502 -0.1081  0.0680  1.6680
47028SOL    HW251399   8.148  12.652  10.416 -1.5841 -1.0413 -0.8984
47029SOL     OW51400   0.239   8.896   7.097 -0.9414 -0.0169 -0.1636
47029SOL    HW151401   0.144   8.900   7.099 -0.9473 -0.2341  0.7446
47029SOL    HW251402   0.262   8.849   7.177 -0.0668  0.1116 -0.3287
47030SOL     OW51403  12.916   6.926   9.480 -0.4474 -0.2269  0.3245
47030SOL    HW151404  12.944   6.971   9.560 -1.1219  1.8120 -0.5261
47030SOL    HW251405  12.821   6.936   9.477 -0.6235 -1.6659  0.0325
47031SOL     OW51406   9.300   5.235   1.578  0.5183 -0.2899 -0.1892
47031SOL    HW151407   9.323   5.302   1.643  0.1498 -0.4943  0.1639
47031SOL    HW251408   9.213   5.205   1.606  1.2399 -1.8905  0.4704
47032SOL     OW51409   8.328  11.713   0.095  0.7874  0.2580 -0.2456
47032SOL    HW151410   8.243  11.726   0.053 -1.4237 -1.7446  3.1018
47032SOL    HW251411   8.367  11.801   0.098 -0.7452  1.1072 -2.5566
47033SOL     OW51412   3.230   2.789   1.846 -0.1973 -0.0917 -0.4891
47033SOL    HW151413   3.290   2.812   1.775 -0.1495 -1.4744 -0.9304
47033SOL    HW251414   3.263   2.838   1.922 -0.0686  1.1698 -1.3221
47034SOL     OW51415   3.332   8.831  11.803  0.2008  0.3187  0.4480
47034SOL    HW151416   3.273   8.846  11.876 -0.4700  1.0639 -0.2379
47034SOL    HW251417   3.417   8.864  11.833  0.2585 -0.6540  1.3907
47035SOL     OW51418   7.646   1.163  12.527  0.0031  0.1703 -0.1669
47035SOL    HW151419   7.618   1.253  12.515  0.2432  0.4308  1.0834
47035SOL    HW251420   7.710   1.167  12.598 -0.9745 -1.1495  0.8444
47036SOL     OW51421  12.890   2.552   5.151  0.7085  0.3784 -0.3339
47036SOL    HW151422  12.879   2.639   5.187 -1.4411  0.4056 -0.8950
47036SOL    HW251423  12.801   2.521   5.134  1.4701 -0.8743 -2.6000
47037SOL     OW51424   1.638   1.131   4.268  0.1220  0.2026  0.2511
47037SOL    HW151425   1.640   1.051   4.320  0.3712 -0.1048 -0.2191
47037SOL    HW251426   1.727   1.167   4.276  0.3187 -0.1253 -0.3752
47038SOL     OW51427   2.079   3.430   4.521 -0.2405  0.4929 -0.0012
47038SOL    HW151428   2.009   3.495   4.530  0.1978  1.0344 -0.4295
47038SOL    HW251429   2.118   3.425   4.608 -1.0513 -0.1056  0.3464
47039SOL     OW51430   2.137   1.480   4.595  0.2116  0.1715 -0.0800
47039SOL    HW151431   2.122   1.569   4.624  0.0081  0.9538 -2.3854
47039SOL    HW251432   2.215   1.486   4.538 -0.5548 -0.8357 -1.2989
47040SOL     OW51433   8.976   5.588   8.887  0.9587 -0.0475 -0.1198
47040SOL    HW151434   8.951   5.627   8.803  1.0073  2.8600  1.0935
47040SOL    HW251435   8.907   5.614   8.947  1.5693 -0.9830  1.0251
47041SOL     OW51436   6.331   1.196   7.826  0.5852 -0.3368 -0.2523
47041SOL    HW151437   6.372   1.203   7.912 -2.3009  1.9555  1.1436
47041SOL    HW251438   6.378   1.126   7.782  2.5834 -1.2205  2.9623
47042SOL     OW51439   6.604  10.539   6.731  0.2145  0.6234 -0.8431
47042SOL    HW151440   6.580  10.607   6.669 -2.2685  0.2319 -0.3955
47042SOL    HW251441   6.670  10.581   6.788 -1.1852  2.6623 -0.6238
47043SOL     OW51442  10.046  12.035   5.131  0.3999  0.0193  0.1079
47043SOL    HW151443  10.124  11.989   5.164  0.3160 -0.6063 -0.5450
47043SOL    HW251444   9.976  11.970   5.137  0.0084  0.4593  0.3210
47044SOL     OW51445   8.923  10.412   7.809  0.0297 -0.5449  0.0128
47044SOL    HW151446   8.966  10.493   7.782  1.2423 -1.3259 -0.5020
47044SOL    HW251447   8.844  10.408   7.756 -1.6963  1.7939  2.2289
47045SOL     OW51448  11.711  10.049   1.171  0.7843 -0.2397 -0.2144
47045SOL    HW151449  11.663   9.993   1.233  0.7857  2.0230  1.9899
47045SOL    HW251450  11.642  10.098   1.126  0.8658  0.7960  0.7420
47046SOL     OW51451   1.882   0.062   6.950 -0.8661 -0.0838 -0.0529
47046SOL    HW151452   1.949   0.012   6.995 -0.2988  1.1615  0.5530
47046SOL    HW251453   1.928   0.138   6.915 -1.8826  0.6017  0.0410
47047SOL     OW51454   4.068   0.993  12.089  0.4347  0.8006 -0.2426
47047SOL    HW151455   3.974   0.981  12.103  0.4953 -0.9811 -1.1216
47047SOL    HW251456   4.075   1.069  12.033 -0.5924  0.1461 -1.2935
47048SOL     OW51457   7.653  10.584   8.023  0.5370 -0.2366 -0.0760
47048SOL    HW151458   7.699  10.541   7.951  0.1974 -0.6882 -0.0318
47048SOL    HW251459   7.674  10.531   8.100 -0.3493 -0.6801 -0.1193
47049SOL     OW51460  11.705  12.815   3.765 -0.0997  0.1827  0.2973
47049SOL    HW151461  11.739  12.836   3.678 -1.1501 -0.2170 -0.2281
47049SOL    HW251462  11.665  12.896   3.796 -1.5856 -0.2132 -0.5013
47050SOL     OW51463   1.681  11.534   4.382 -0.4953  0.1479  0.3102
47050SOL    HW151464   1.631  11.614   4.367  0.8437  0.8568 -0.6641
47050SOL    HW251465   1.637  11.491   4.455 -1.6103  1.4665  0.4598
47051SOL     OW51466   3.780  12.158   4.472  0.2840 -0.1887 -0.1112
47051SOL    HW151467   3.759  12.238   4.425 -1.7229 -0.1877  0.6557
47051SOL    HW251468   3.757  12.088   4.411  0.6631 -0.1959 -0.2506
47052SOL     OW51469   4.679   2.824   0.674 -0.3267 -0.0810  0.1243
47052SOL    HW151470   4.678   2.733   0.647  0.4368 -0.4896  1.3936
47052SOL    HW251471   4.613   2.829   0.743  0.4884  0.0347  0.9084
47053SOL     OW51472   0.556   7.530  10.012  0.4715 -0.0931 -0.1834
47053SOL    HW151473   0.557   7.450  10.064 -0.6928 -0.1235 -0.1659
47053SOL    HW251474   0.463   7.547   9.997  0.7672 -1.0082 -3.7330
47054SOL     OW51475   9.173   8.422   0.869 -0.6962 -0.3579 -0.0779
47054SOL    HW151476   9.101   8.434   0.807 -0.8861  0.5280  0.2918
47054SOL    HW251477   9.242   8.482   0.838 -1.4416  1.4313  1.4978
47055SOL     OW51478   1.375   6.346   3.058 -0.4854 -0.2764 -0.6804
47055SOL    HW151479   1.408   6.257   3.071  3.0155  1.1057  1.3487
47055SOL    HW251480   1.406   6.371   2.971 -0.9057 -0.8027 -0.9837
47056SOL     OW51481   9.526   9.497   7.831 -0.3941 -0.3322  0.6684
47056SOL    HW151482   9.435   9.467   7.821  0.3567 -1.9736 -2.3097
47056SOL    HW251483   9.570   9.425   7.876 -0.3925  0.1243  1.4019
47057SOL     OW51484   2.800   0.881   9.860  0.1769 -0.0281 -0.1432
47057SOL    HW151485   2.886   0.905   9.893 -0.6599  0.7682  1.6045
47057SOL    HW251486   2.800   0.786   9.858  0.7576 -0.0594  0.8545
47058SOL     OW51487   6.739   9.415   7.182 -0.0050 -0.4760 -0.6254
47058SOL    HW151488   6.810   9.477   7.200  0.1530 -1.2375  1.7394
47058SOL    HW251489   6.660   9.469   7.181  0.0128 -0.2369  2.3241
47059SOL     OW51490   9.806   4.748   3.199 -0.1950 -0.2297 -0.0066
47059SOL    HW151491   9.835   4.766   3.110 -0.1358 -1.2256 -0.2050
47059SOL    HW251492   9.784   4.834   3.235  1.4671  0.3767 -0.3724
47060SOL     OW51493   2.772   7.113   7.425 -0.3832 -0.1371 -0.4130
47060SOL    HW151494   2.862   7.096   7.454 -0.4440 -0.6319 -0.4942
47060SOL    HW251495   2.781   7.177   7.355 -0.0117 -0.8305 -1.0191
47061SOL     OW51496  10.596   6.531   2.433 -0.4951 -0.3359 -0.4005
47061SOL    HW151497  10.643   6.525   2.350 -2.3947 -1.1335 -1.4861
47061SOL    HW251498  10.504   6.541   2.408 -0.9307  1.5323  1.6228
47062SOL     OW51499   5.911   0.674  11.863  0.5382 -0.3533 -0.3410
47062SOL    HW151500   5.986   0.619  11.842  1.1923  0.2449  0.3694
47062SOL    HW251501   5.925   0.702  11.953 -0.4609 -0.1016 -0.2465
47063SOL     OW51502   3.700   3.159  10.919  0.0692  0.1232 -0.0390
47063SOL    HW151503   3.646   3.234  10.943 -1.0844 -1.5545  3.2055
47063SOL    HW251504   3.787   3.197  10.905 -0.9347  2.3185 -0.9269
47064SOL     OW51505   1.671   2.205   2.417 -0.8014 -0.1109  0.7084
47064SOL    HW151506   1.621   2.286   2.429  0.3850  0.6172  0.8413
47064SOL    HW251507   1.633   2.166   2.338 -0.1545  1.5380 -0.4824
47065SOL     OW51508   3.268   8.904   6.262 -0.5550 -0.5602 -0.0170
47065SOL    HW151509   3.267   8.996   6.286  2.2134 -0.1356 -1.1698
47065SOL    HW251510   3.264   8.903   6.166 -1.7204 -1.7284  0.0077
47066SOL     OW51511   9.439   5.733   2.960  0.1037 -0.0319 -0.2857
47066SOL    HW151512   9.383   5.804   2.930 -0.8944 -0.6941 -0.0369
47066SOL    HW251513   9.488   5.769   3.034 -2.6410 -0.4378  1.8784
47067SOL     OW51514   7.828   1.888   3.548 -0.2362  0.2020 -0.2271
47067SOL    HW151515   7.911   1.930   3.524 -0.2152 -0.6629 -1.8102
47067SOL    HW251516   7.834   1.800   3.510 -0.2343 -1.3711  3.0517
47068SOL     OW51517   0.615   8.936   4.123  0.3726  0.2494  0.1940
47068SOL    HW151518   0.632   9.030   4.132 -0.7898  0.2924  3.4786
47068SOL    HW251519   0.700   8.898   4.104  0.8937  1.9296 -1.0709
47069SOL     OW51520   2.201   0.309   4.930  0.1391 -0.4820  0.6915
47069SOL    HW151521   2.190   0.403   4.915  2.2929 -0.1864  0.6774
47069SOL    HW251522   2.120   0.270   4.898 -1.7045  1.5143  2.5463
47070SOL     OW51523   5.557  12.369   6.630  0.4484 -0.8308  0.9532
47070SOL    HW151524   5.613  12.292   6.622 -0.4052 -1.5379  1.4647
47070SOL    HW251525   5.468  12.335   6.615  0.2102  0.3939 -0.6652
47071SOL     OW51526   5.131   2.738  10.897 -0.3023 -0.2549  0.8439
47071SOL    HW151527   5.222   2.709  10.887 -0.0510  1.0526 -1.3590
47071SOL    HW251528   5.105   2.707  10.983  2.5323  0.1201  1.9352
47072SOL     OW51529   7.164  12.762   8.406  0.2387 -0.2329  0.1678
47072SOL    HW151530   7.212  12.684   8.432  1.5902  1.1301  2.0313
47072SOL    HW251531   7.226  12.812   8.353  0.3519  0.7604  1.1858
47073SOL     OW51532   0.785   7.905   1.018 -0.3762 -0.0869  0.6242
47073SOL    HW151533   0.798   7.866   1.104  2.5976 -1.1667 -0.2220
47073SOL    HW251534   0.856   7.968   1.009 -0.1571 -0.5544 -1.3384
47074SOL     OW51535   3.254   4.740  12.588 -0.1418  0.3584 -0.2502
47074SOL    HW151536   3.200   4.818  12.589  0.0135  0.4720 -0.6371
47074SOL    HW251537   3.333   4.765  12.540 -0.0814 -0.0257 -0.3600
47075SOL     OW51538   9.553   1.574   4.362  0.0180 -0.4137 -0.1376
47075SOL    HW151539   9.486   1.510   4.385 -0.4868 -0.0779 -0.6386
47075SOL    HW251540   9.623   1.559   4.426 -0.6958 -0.5080  0.6521
47076SOL     OW51541   0.514   9.669   4.824 -0.7656 -0.3881 -0.7565
47076SOL    HW151542   0.482   9.756   4.848  2.3028  0.1831  2.0686
47076SOL    HW251543   0.444   9.610   4.852 -1.6487  1.0125  0.1551
47077SOL     OW51544   7.381   2.167   8.712 -0.4155 -0.4433  0.2181
47077SOL    HW151545   7.318   2.096   8.702 -1.3455  0.4581 -0.6167
47077SOL    HW251546   7.381   2.211   8.627  0.0065  0.6528  0.7654
47078SOL     OW51547   1.672  12.571   3.912  0.5293  0.1046  0.2538
47078SOL    HW151548   1.594  12.529   3.946  0.7133  0.4355  1.0965
47078SOL    HW251549   1.719  12.501   3.866 -1.1787  0.3139 -1.9621
47079SOL     OW51550   0.435  10.247  10.593 -0.2873  0.1983 -0.2868
47079SOL    HW151551   0.497  10.195  10.542 -1.2140 -1.3931  0.1291
47079SOL    HW251552   0.436  10.333  10.551  1.3419 -0.1114 -0.9708
47080SOL     OW51553   7.268  12.512   5.416  0.0546 -0.2938  0.1451
47080SOL    HW151554   7.243  12.426   5.381  0.2959 -0.0200 -0.6967
47080SOL    HW251555   7.305  12.559   5.342 -0.4380  0.6935  0.5094
47081SOL     OW51556   2.803  10.636   8.785  0.0382  0.5564  0.0419
47081SOL    HW151557   2.733  10.684   8.830  0.4720  2.2847 -1.0127
47081SOL    HW251558   2.757  10.583   8.720 -0.3692  0.9720 -0.0189
47082SOL     OW51559   0.401   9.078   0.205  0.0024  0.0666 -0.1801
47082SOL    HW151560   0.312   9.097   0.176 -1.0656 -1.5321  1.7904
47082SOL    HW251561   0.426   9.154   0.257 -0.7547 -0.0236  0.3353
47083SOL     OW51562   1.748   8.877   6.867 -0.0285  0.0733  0.0672
47083SOL    HW151563   1.726   8.788   6.840 -1.5483  0.8088 -1.2891
47083SOL    HW251564   1.800   8.912   6.795 -0.6280  0.7357 -0.0511
47084SOL     OW51565  12.229   0.887   7.253 -0.5487 -0.3341 -0.1696
47084SOL    HW151566  12.171   0.864   7.180 -1.5440  1.5245 -0.0245
47084SOL    HW251567  12.243   0.981   7.244 -1.5302  0.1865  2.5686
47085SOL     OW51568   5.057   4.203   4.783  0.5188 -0.2849  0.9646
47085SOL    HW151569   5.026   4.201   4.692 -0.5004  1.2771  1.2346
47085SOL    HW251570   5.150   4.181   4.777  1.1301  2.3482 -0.8173
47086SOL     OW51571   0.585   9.770  10.528  0.5953  0.7205 -0.4832
47086SOL    HW151572   0.579   9.832  10.456  1.1064 -1.2563 -2.3106
47086SOL    HW251573   0.679   9.753  10.538  0.4723  0.3231  0.0892
47087SOL     OW51574   3.195   4.077  11.855  0.0557 -0.9791 -0.2569
47087SOL    HW151575   3.276   4.124  11.836 -0.9936  0.2084 -2.1408
47087SOL    HW251576   3.142   4.141  11.904  0.8472 -2.3400  2.5625
47088SOL     OW51577  12.696   6.967   1.427 -0.5036 -0.0682 -0.0662
47088SOL    HW151578  12.648   6.884   1.432 -1.0538  0.2377 -0.2559
47088SOL    HW251579  12.661   7.020   1.499  0.5867 -0.3734  0.7199
47089SOL     OW51580   3.677   1.329   6.749  0.3659  0.5437 -0.1708
47089SOL    HW151581   3.714   1.375   6.824  1.0691 -0.4989  0.1493
47089SOL    HW251582   3.614   1.268   6.788  1.9654 -1.2276 -0.2028
47090SOL     OW51583  10.728   3.673   4.688  0.2572 -0.1327 -0.3312
47090SOL    HW151584  10.661   3.739   4.706  0.2475  0.4473 -2.3324
47090SOL    HW251585  10.679   3.591   4.681  0.2316 -0.3692  1.8139
47091SOL     OW51586   9.963   0.688   5.460 -0.4122 -0.0732 -0.1113
47091SOL    HW151587  10.007   0.675   5.544  1.9772 -2.9052 -1.6484
47091SOL    HW251588  10.015   0.755   5.416  1.6368 -2.3125 -1.3024
47092SOL     OW51589   0.505   8.724   2.370 -0.1760 -0.3795  0.0959
47092SOL    HW151590   0.530   8.772   2.449 -0.6790  1.5505 -0.8379
47092SOL    HW251591   0.411   8.707   2.381 -0.6582  1.4488 -0.7782
47093SOL     OW51592   7.810  10.675   1.463  0.0515 -0.0878  0.1698
47093SOL    HW151593   7.871  10.742   1.494  0.7881  0.0293 -1.4577
47093SOL    HW251594   7.731  10.723   1.439  0.9156  0.3877 -1.9112
47094SOL     OW51595   6.192  12.385   8.948  0.2212  0.2665  0.2921
47094SOL    HW151596   6.242  12.380   8.867  0.3212 -2.3375  0.4502
47094SOL    HW251597   6.126  12.452   8.932  0.0930 -0.3492 -2.0291
47095SOL     OW51598   3.161  10.357   9.196 -0.2417 -0.1502  0.2803
47095SOL    HW151599   3.159  10.284   9.258 -1.7763 -0.8596 -0.5468
47095SOL    HW251600   3.100  10.421   9.231 -0.9996 -0.4875 -0.3961
47096SOL     OW51601   1.066   7.692  12.324  0.1085 -0.3910  0.2516
47096SOL    HW151602   1.029   7.773  12.360  0.6698 -0.1417  0.2662
47096SOL    HW251603   0.996   7.658  12.267 -0.4323 -0.3114  0.8502
47097SOL     OW51604   1.944   6.517   4.540 -0.1330 -0.0839  0.1949
47097SOL    HW151605   1.875   6.477   4.487  1.6471 -1.7864 -1.0197
47097SOL    HW251606   1.898   6.577   4.599 -2.4544  0.0689 -1.6159
47098SOL     OW51607   1.380   0.205   3.581  0.0063 -0.3195 -0.2568
47098SOL    HW151608   1.435   0.176   3.508  0.3879 -1.3630  0.4250
47098SOL    HW251609   1.394   0.300   3.585 -0.3430 -0.1866 -1.7872
47099SOL     OW51610  12.398   1.802   7.263  0.0329  0.3538 -0.2285
47099SOL    HW151611  12.485   1.763   7.279 -0.5546 -0.6425  0.6976
47099SOL    HW251612  12.408   1.894   7.289  0.7582  0.2006  0.0598
47100SOL     OW51613   0.099  10.382   0.516  0.2467 -0.1543  0.2964
47100SOL    HW151614   0.044  10.459   0.503 -1.3860 -1.3177 -0.0228
47100SOL    HW251615   0.127  10.356   0.428 -1.4207 -1.4340  0.0977
47101SOL     OW51616   1.115   7.497   4.815 -0.6104  0.5763  0.2969
47101SOL    HW151617   1.029   7.461   4.833 -0.8631  1.2604  0.4955
47101SOL    HW251618   1.099   7.567   4.751 -0.2508  0.9197  0.5771
47102SOL     OW51619   9.173   9.359   8.854  0.5524  0.3000 -0.2474
47102SOL    HW151620   9.242   9.322   8.800  1.1028 -0.7516  1.1115
47102SOL    HW251621   9.092   9.320   8.820  1.0275 -1.4141  0.5211
47103SOL     OW51622   2.399   2.920  10.828  0.4034 -0.2929  0.1692
47103SOL    HW151623   2.389   3.001  10.879 -0.8055  0.9249 -1.8539
47103SOL    HW251624   2.309   2.892  10.812  0.8028 -1.5828  0.0834
47104SOL     OW51625  11.169   8.588   4.441 -0.3474  0.3519  0.7948
47104SOL    HW151626  11.144   8.575   4.532 -0.3056 -2.2786  0.5257
47104SOL    HW251627  11.253   8.541   4.433 -1.2364 -1.0459 -0.9590
47105SOL     OW51628   2.175   1.701   6.064  0.7587 -0.0938  0.0750
47105SOL    HW151629   2.253   1.651   6.040  0.5737 -0.2387 -0.2365
47105SOL    HW251630   2.164   1.763   5.993  1.1648  0.6028  0.6135
47106SOL     OW51631   3.113   3.727   7.925  0.3673  0.6808  0.2759
47106SOL    HW151632   3.157   3.812   7.925 -0.0311  0.8945  1.0956
47106SOL    HW251633   3.172   3.669   7.973  1.5805 -0.0371 -1.9379
47107SOL     OW51634   4.464   1.637   8.995 -0.3487  0.1559  0.4272
47107SOL    HW151635   4.420   1.661   8.913 -0.1423  0.7857  0.4957
47107SOL    HW251636   4.422   1.555   9.021 -0.7116  0.1703 -0.0875
47108SOL     OW51637   6.474   7.489   3.605  0.0588  0.1743  0.3906
47108SOL    HW151638   6.428   7.446   3.677  1.6329  0.7582  1.8202
47108SOL    HW251639   6.537   7.546   3.648  1.1413  0.4637 -1.4766
47109SOL     OW51640   1.401   8.939   1.728 -0.1464  0.3780 -0.0966
47109SOL    HW151641   1.447   8.856   1.736 -2.3477 -0.7383  2.7031
47109SOL    HW251642   1.334   8.923   1.660 -0.1895  0.0474  0.0212
47110SOL     OW51643   1.258   4.765   3.833 -0.1234 -0.1088  0.0833
47110SOL    HW151644   1.252   4.853   3.869  0.4983  0.8247 -1.9727
47110SOL    HW251645   1.217   4.771   3.747  0.6657 -1.6172 -0.4408
47111SOL     OW51646   1.295   9.042   2.424 -0.0981 -0.3247  0.4055
47111SOL    HW151647   1.336   8.969   2.471 -0.4832 -0.6284  0.2793
47111SOL    HW251648   1.272   9.005   2.338  0.8017  0.2841 -0.1107
47112SOL     OW51649  11.870  11.417   4.623  0.0488  0.4910  0.3478
47112SOL    HW151650  11.827  11.406   4.538  0.1535  0.8180  0.2525
47112SOL    HW251651  11.921  11.497   4.614  0.2641  0.3881  0.6359
47113SOL     OW51652   8.564   2.348  10.017  0.1286  0.3497 -0.4491
47113SOL    HW151653   8.553   2.359   9.923  0.9739  0.1631 -0.5711
47113SOL    HW251654   8.551   2.436  10.053 -1.8730  0.1423 -0.5563
47114SOL     OW51655   0.434   6.821   4.758 -0.5732 -0.2419  0.2501
47114SOL    HW151656   0.391   6.905   4.746 -0.8314 -0.0349  2.2090
47114SOL    HW251657   0.470   6.825   4.847 -0.3137 -2.0669  0.2773
47115SOL     OW51658  11.094   8.598   7.123 -0.1945 -0.1261  0.4534
47115SOL    HW151659  11.036   8.667   7.089 -0.3737  0.1251  1.2365
47115SOL    HW251660  11.160   8.645   7.173 -0.9956 -0.5638  1.9900
47116SOL     OW51661  12.740   9.714   0.830  0.1459 -0.2666  0.0049
47116SOL    HW151662  12.703   9.750   0.910 -0.3020  0.4817 -0.5284
47116SOL    HW251663  12.815   9.662   0.859 -0.2723 -0.3598  0.9376
47117SOL     OW51664  10.269  12.649   9.672 -0.0747  0.4971  0.3777
47117SOL    HW151665  10.351  12.691   9.700  0.5442 -1.3027  1.4352
47117SOL    HW251666  10.297  12.564   9.639 -1.5599 -0.3837  1.2968
47118SOL     OW51667   4.505  12.180   2.095  0.0939 -0.4110  0.0174
47118SOL    HW151668   4.581  12.217   2.050  1.0117 -2.3415 -0.1262
47118SOL    HW251669   4.449  12.147   2.025  1.2504 -2.8979  0.1553
47119SOL     OW51670   8.941   7.820   2.286 -0.0625  0.5554 -0.2845
47119SOL    HW151671   8.911   7.858   2.203  1.5003  0.3702 -0.9652
47119SOL    HW251672   8.993   7.744   2.260  0.1153  0.2590  0.8976
47120SOL     OW51673   3.621   9.863  12.117  0.3459 -0.3426 -0.1966
47120SOL    HW151674   3.653   9.863  12.027 -1.2455 -0.7628 -0.7892
47120SOL    HW251675   3.536   9.820  12.113 -0.3866  0.8536  1.2828
47121SOL     OW51676  11.237   1.911  10.385 -0.3366 -0.1447  0.4266
47121SOL    HW151677  11.190   1.900  10.303  1.1836  0.2800 -0.5485
47121SOL    HW251678  11.311   1.968  10.363 -0.3675  0.7032  2.2815
47122SOL     OW51679   6.068   6.201   9.431 -0.5521  0.5752  0.2614
47122SOL    HW151680   6.121   6.259   9.485  1.0877 -1.7251  1.2925
47122SOL    HW251681   6.095   6.219   9.341  1.5585 -0.0298  0.7136
47123SOL     OW51682   2.916   9.358   8.877  0.1375 -0.0222  0.1990
47123SOL    HW151683   2.993   9.336   8.930  0.2230 -2.1467 -0.6946
47123SOL    HW251684   2.866   9.419   8.931  1.4240 -0.2170  1.6784
47124SOL     OW51685   2.487  11.591   2.528  0.2638 -0.3001 -0.4941
47124SOL    HW151686   2.524  11.674   2.498 -2.0682  1.4861  1.1657
47124SOL    HW251687   2.420  11.570   2.462 -0.6160  0.3201  0.1837
47125SOL     OW51688   8.924  10.340   7.103  0.3096 -0.0807 -0.4129
47125SOL    HW151689   8.913  10.434   7.110  0.1192 -0.1779  0.9821
47125SOL    HW251690   9.007  10.329   7.056  1.7420  0.8553  1.7108
47126SOL     OW51691   9.100   9.713   8.736  0.1065  0.2068 -0.1042
47126SOL    HW151692   9.092   9.642   8.672  1.1349 -0.8443  0.8845
47126SOL    HW251693   9.032   9.776   8.711  0.2582 -0.3194 -2.0132
47127SOL     OW51694   2.186   8.740   5.733 -0.6109 -0.2371 -0.5349
47127SOL    HW151695   2.193   8.833   5.711  1.9691 -0.4335 -0.8315
47127SOL    HW251696   2.180   8.737   5.828 -0.7340  0.2202 -0.5280
47128SOL     OW51697   7.042  12.539   7.905  0.0672  0.2417  0.5902
47128SOL    HW151698   7.117  12.565   7.852 -0.8461  1.7269 -0.0767
47128SOL    HW251699   7.074  12.538   7.995  1.6085 -2.1540  0.0742
47129SOL     OW51700   3.812  10.015   1.078  0.3870 -0.2432 -0.1288
47129SOL    HW151701   3.789   9.972   0.996  0.8686 -0.3912 -0.1912
47129SOL    HW251702   3.729  10.042   1.116  0.1113 -0.8190 -0.3174
47130SOL     OW51703   0.790  12.101   6.700  0.3517 -0.1328  0.1266
47130SOL    HW151704   0.762  12.147   6.780  0.7369  1.6716 -0.7338
47130SOL    HW251705   0.753  12.013   6.710 -0.0670  0.1992  2.0403
47131SOL     OW51706   1.127   5.503   0.975 -0.3396 -0.2770 -0.1653
47131SOL    HW151707   1.134   5.493   0.880 -1.3272  0.5873 -0.3444
47131SOL    HW251708   1.180   5.431   1.011  1.3677  0.3277 -1.3585
47132SOL     OW51709   4.144   9.001  11.012 -0.3985  0.9648 -0.5428
47132SOL    HW151710   4.092   8.958  10.944 -0.3803  0.5122 -0.2831
47132SOL    HW251711   4.081   9.014  11.084 -0.4647  1.6156 -0.7212
47133SOL     OW51712  10.626   3.119  10.904  0.2945 -0.3594  0.5557
47133SOL    HW151713  10.575   3.046  10.940  1.0462 -1.0675  0.1906
47133SOL    HW251714  10.716   3.088  10.903  0.4986  0.2195 -0.5100
47134SOL     OW51715   7.876   0.435   9.745 -0.3339  0.3148  0.2293
47134SOL    HW151716   7.921   0.465   9.824 -1.4713 -0.4327  1.2063
47134SOL    HW251717   7.786   0.465   9.756 -0.4373  0.4714 -0.9423
47135SOL     OW51718   2.260   0.996   5.429  0.2208  0.0846  0.0002
47135SOL    HW151719   2.219   0.928   5.483  0.7060 -1.2160 -1.2207
47135SOL    HW251720   2.339   1.021   5.477  1.2428 -1.8532 -0.5837
47136SOL     OW51721   7.791   5.519   5.201  0.2005 -0.0087 -0.1964
47136SOL    HW151722   7.772   5.610   5.221  1.4419  1.0900 -3.3282
47136SOL    HW251723   7.887   5.513   5.206  0.0650 -1.9626  2.5834
47137SOL     OW51724  10.224   4.125   2.293  1.1615  0.2631 -0.1718
47137SOL    HW151725  10.172   4.204   2.308  0.6450  0.1380 -1.2286
47137SOL    HW251726  10.208   4.071   2.370  0.6686  0.7364  0.0620
47138SOL     OW51727  12.926   4.232   9.240 -0.2393  0.9878 -0.2593
47138SOL    HW151728  12.852   4.287   9.216  0.3165  2.0163  0.3241
47138SOL    HW251729  12.925   4.230   9.335 -0.1634  0.0877 -0.2692
47139SOL     OW51730  10.274   2.526   4.405 -0.2385  0.2759 -0.1809
47139SOL    HW151731  10.204   2.460   4.399  0.9581 -1.0790  0.1956
47139SOL    HW251732  10.311   2.513   4.492  0.2282  1.2618 -0.2219
47140SOL     OW51733   6.778   4.267   2.750  0.2312  0.0722 -0.2548
47140SOL    HW151734   6.832   4.341   2.778  1.2520 -0.0216 -1.8519
47140SOL    HW251735   6.841   4.198   2.729 -0.6291 -0.7299 -0.2641
47141SOL     OW51736  10.462   9.975  11.999  0.0109 -0.0335  0.0407
47141SOL    HW151737  10.469  10.051  12.057 -0.3727  0.2114 -0.2346
47141SOL    HW251738  10.497  10.005  11.915  0.5254 -0.3770  0.1268
47142SOL     OW51739   7.902   6.846   3.964  0.0475  0.2739  0.2201
47142SOL    HW151740   7.813   6.831   3.934  0.5964 -0.0817 -1.3097
47142SOL    HW251741   7.950   6.873   3.885  0.8179  2.6647  1.4025
47143SOL     OW51742   6.539   2.574   5.284  0.1163 -0.1971 -0.2329
47143SOL    HW151743   6.568   2.496   5.332 -1.1562 -1.0989 -0.8874
47143SOL    HW251744   6.492   2.626   5.349  1.4073  0.3190  0.3385
47144SOL     OW51745   7.439  12.947   3.375 -0.2676  0.5703 -0.2758
47144SOL    HW151746   7.535  12.946   3.382 -0.3240  0.4328  0.5763
47144SOL    HW251747   7.422  13.009   3.304  0.4351  1.1525  0.0384
47145SOL     OW51748   9.893  11.905   7.342 -0.1528  0.4193  0.6223
47145SOL    HW151749   9.825  11.966   7.312 -0.7944 -1.1829 -1.3844
47145SOL    HW251750   9.871  11.822   7.301  2.1446 -0.5557  1.1992
47146SOL     OW51751   5.722   2.763   5.109  0.1631 -0.2624 -0.0920
47146SOL    HW151752   5.738   2.763   5.015 -2.2394 -2.1848 -0.6028
47146SOL    HW251753   5.684   2.677   5.127 -1.5402  0.8529  2.2309
47147SOL     OW51754   3.247   6.830  12.683  0.1846 -0.5692  0.0373
47147SOL    HW151755   3.244   6.890  12.758 -2.0313 -1.4996  0.7714
47147SOL    HW251756   3.241   6.743  12.722 -4.2937 -1.0343 -1.2057
47148SOL     OW51757   2.970   6.317   1.745 -0.0060 -0.0210  0.0119
47148SOL    HW151758   2.895   6.287   1.796 -0.1824 -3.6748 -2.0800
47148SOL    HW251759   3.042   6.321   1.808 -1.3392  1.0507  1.5467
47149SOL     OW51760   3.655   0.080  11.811  0.2413  0.0850  0.4126
47149SOL    HW151761   3.574   0.073  11.861  0.7627  1.4136  1.5358
47149SOL    HW251762   3.694  -0.007  11.815  0.3123  0.1668  2.4859
47150SOL     OW51763   1.048   6.828  11.480  0.3218  0.0460  0.1547
47150SOL    HW151764   0.953   6.828  11.471  0.0836 -2.8737  1.4516
47150SOL    HW251765   1.064   6.870  11.565 -0.0759 -1.4797  1.0332
47151SOL     OW51766   5.764   9.393   9.997 -0.2690 -0.6214 -0.0114
47151SOL    HW151767   5.718   9.475   9.977  0.5307  0.2134  1.4232
47151SOL    HW251768   5.777   9.395  10.092  3.1193 -0.6016 -0.3830
47152SOL     OW51769   2.186   8.325  10.907 -0.2605 -0.3050 -0.5205
47152SOL    HW151770   2.214   8.241  10.943 -0.4219 -0.7008 -1.3113
47152SOL    HW251771   2.268   8.367  10.880 -0.1763 -0.1811 -0.0926
47153SOL     OW51772   6.588  11.480   5.293  0.4423 -0.1022 -0.2867
47153SOL    HW151773   6.625  11.460   5.207  1.3553 -1.3352  0.3497
47153SOL    HW251774   6.523  11.411   5.308  1.7083 -1.1361  0.8058
47154SOL     OW51775   7.061   8.570   4.216  0.1146 -0.0696 -0.0652
47154SOL    HW151776   7.027   8.570   4.305  1.8265 -3.9986  0.7933
47154SOL    HW251777   6.983   8.575   4.160 -1.3272 -1.3642  1.7104
47155SOL     OW51778   5.069   7.626   1.219 -0.5869  0.0508 -0.3052
47155SOL    HW151779   5.013   7.575   1.278 -2.5090  0.7404 -1.4075
47155SOL    HW251780   5.141   7.568   1.198 -0.2033 -0.4573  2.1305
47156SOL     OW51781  10.525  12.795   9.133  0.1016  0.1402 -0.8670
47156SOL    HW151782  10.515  12.728   9.200  1.3865  0.0622 -0.7295
47156SOL    HW251783  10.441  12.841   9.133  0.4885  1.0551  1.7941
47157SOL     OW51784  10.240   0.355  12.055  0.2742  0.2778 -0.0037
47157SOL    HW151785  10.188   0.275  12.048 -0.8255  0.8297  1.2755
47157SOL    HW251786  10.310   0.333  12.115  0.0141  0.2435  0.2911
47158SOL     OW51787   6.430   3.679   5.842 -0.1784  0.1769 -0.0266
47158SOL    HW151788   6.401   3.672   5.751  2.5350  2.1913 -1.1831
47158SOL    HW251789   6.418   3.771   5.865  0.9982  0.1230  0.9390
47159SOL     OW51790   6.963   7.465   8.919  0.3458  0.7265 -0.0575
47159SOL    HW151791   6.989   7.488   8.830  1.3746 -1.7728 -0.5004
47159SOL    HW251792   6.925   7.377   8.910 -2.6114  1.7049  1.5260
47160SOL     OW51793   9.405  10.991  11.137 -0.5133 -0.3281  0.8954
47160SOL    HW151794   9.449  10.927  11.082  0.3299 -1.0142  2.3144
47160SOL    HW251795   9.353  11.044  11.076  1.1068 -0.4478 -0.6533
47161SOL     OW51796   0.926   2.180  10.979  0.7715  0.0124  0.0095
47161SOL    HW151797   0.872   2.105  10.955  1.1754 -0.3266  0.1521
47161SOL    HW251798   0.989   2.187  10.907  0.2017  0.7451 -0.4342
47162SOL     OW51799  10.940  11.875   7.168 -0.3113 -0.3417  0.2680
47162SOL    HW151800  10.910  11.812   7.102 -0.5467  0.3889 -0.3258
47162SOL    HW251801  10.962  11.820   7.244  2.0709 -1.4274 -1.1032
47163SOL     OW51802  11.086   3.095   9.020 -0.0976 -0.4480 -0.2161
47163SOL    HW151803  11.105   3.055   8.936 -0.5317 -0.5196 -0.2834
47163SOL    HW251804  11.172   3.122   9.054  0.3526 -2.3905  0.3204
47164SOL     OW51805  12.764   8.509  10.566 -0.1556  0.1639  0.0892
47164SOL    HW151806  12.826   8.566  10.611  0.2315  1.7042 -2.2348
47164SOL    HW251807  12.684   8.516  10.618  0.5356  1.0869  1.0819
47165SOL     OW51808   8.399  10.050   0.913 -0.3814 -0.1026 -0.2636
47165SOL    HW151809   8.459   9.976   0.924  1.1467  1.1433  0.1803
47165SOL    HW251810   8.369  10.043   0.822  0.6461 -0.6340 -0.5819
47166SOL     OW51811   2.317  12.145   3.265 -0.0860 -0.5641 -0.3721
47166SOL    HW151812   2.229  12.123   3.235 -0.3643  0.4147 -0.3096
47166SOL    HW251813   2.336  12.080   3.332 -0.5930 -1.0442 -0.6902
47167SOL     OW51814   9.476  12.007   9.553  0.1928  0.7169  0.2306
47167SOL    HW151815   9.509  12.003   9.643  1.2903  1.2827 -0.1190
47167SOL    HW251816   9.398  12.061   9.558  0.3403  0.8853  0.8173
47168SOL     OW51817   9.778   6.956  11.997  0.0597  0.2471  0.5124
47168SOL    HW151818   9.717   7.000  12.056  0.9439  1.1878  0.7717
47168SOL    HW251819   9.749   6.865  11.995 -2.1130  0.9186 -0.4205
47169SOL     OW51820   8.594   7.758   2.671 -0.1836 -0.0724 -0.8909
47169SOL    HW151821   8.593   7.839   2.621 -3.2428 -0.0065 -0.9002
47169SOL    HW251822   8.627   7.692   2.609 -0.6706  0.6175 -1.9079
47170SOL     OW51823   3.167   7.430   4.161  0.1664  0.6452  0.2980
47170SOL    HW151824   3.079   7.467   4.155 -0.1766 -0.2705 -0.5267
47170SOL    HW251825   3.173   7.396   4.250 -0.6245 -0.0295  0.1016
47171SOL     OW51826   6.891   9.014   1.066 -0.2154 -0.4706 -0.1271
47171SOL    HW151827   6.895   9.045   0.975  1.1464 -2.0456 -0.6634
47171SOL    HW251828   6.863   8.923   1.059  0.6617 -0.8455  0.9529
47172SOL     OW51829  10.699  11.187  10.773 -1.3294  0.0127  0.8250
47172SOL    HW151830  10.709  11.174  10.867 -0.0504  1.9944  1.0310
47172SOL    HW251831  10.699  11.282  10.762 -1.3544 -0.1777 -1.1936
47173SOL     OW51832  11.487  11.723   5.530 -0.1448  0.0597  0.3139
47173SOL    HW151833  11.401  11.723   5.572 -0.4980 -0.9155 -0.3731
47173SOL    HW251834  11.533  11.649   5.570 -0.3056 -0.5728 -0.6341
47174SOL     OW51835   2.988   9.761   8.846 -0.0568 -0.3816  0.4790
47174SOL    HW151836   2.967   9.696   8.780  0.2230  1.0400 -1.0966
47174SOL    HW251837   2.943   9.840   8.817  0.2245  0.3400  1.9030
47175SOL     OW51838  11.077   5.968   3.140 -0.0422 -0.7523 -0.4772
47175SOL    HW151839  11.004   5.932   3.089  0.0627 -0.5818 -0.7510
47175SOL    HW251840  11.135   6.007   3.074  0.2136 -0.7415 -0.2466
47176SOL     OW51841   9.149   5.149   2.042 -0.2674  0.6427 -0.7579
47176SOL    HW151842   9.204   5.083   1.999 -1.5498 -0.3000 -1.0297
47176SOL    HW251843   9.196   5.231   2.030  2.0202 -0.3557  0.6687
47177SOL     OW51844   4.939   5.223   9.692  0.2955 -0.3937  0.5334
47177SOL    HW151845   4.978   5.246   9.607 -2.2006 -0.2459 -0.6481
47177SOL    HW251846   4.895   5.140   9.676 -0.4520 -0.2219  1.6165
47178SOL     OW51847  11.615  12.894  11.052  0.4704  0.0532  0.2707
47178SOL    HW151848  11.649  12.976  11.090  0.0001  1.1529 -1.5472
47178SOL    HW251849  11.531  12.881  11.095 -0.1784  1.4232 -0.5145
47179SOL     OW51850   1.716   2.244   0.250 -0.3587  0.0457  0.0175
47179SOL    HW151851   1.779   2.174   0.229 -0.3232 -0.5488  1.9481
47179SOL    HW251852   1.631   2.200   0.254 -0.6230  0.4838 -0.6358
47180SOL     OW51853   8.421  11.113  11.104  0.0662  1.2336 -0.5537
47180SOL    HW151854   8.504  11.103  11.151 -0.5502  0.9780  0.5368
47180SOL    HW251855   8.433  11.189  11.048  1.6257  0.1766 -1.7480
47181SOL     OW51856   4.774   1.742   6.120 -0.2486 -0.1212 -0.0004
47181SOL    HW151857   4.742   1.811   6.061 -0.3172  0.7656  1.0403
47181SOL    HW251858   4.741   1.661   6.081  0.9412  0.2750 -1.9903
47182SOL     OW51859   2.324   8.762  12.212 -0.4384 -0.4732  0.4084
47182SOL    HW151860   2.406   8.771  12.261  0.9185 -3.0845 -1.1420
47182SOL    HW251861   2.291   8.676  12.236 -0.4330 -1.2630 -2.1362
47183SOL     OW51862  12.540   6.827  12.476  0.3312  0.1877  0.2468
47183SOL    HW151863  12.619   6.780  12.451  0.4702  0.3101  0.4533
47183SOL    HW251864  12.556   6.856  12.566 -0.5985 -1.2034  0.8963
47184SOL     OW51865   7.350   5.859   5.543 -0.3335 -0.0430 -0.7309
47184SOL    HW151866   7.328   5.809   5.465 -1.2101  0.2810 -0.7041
47184SOL    HW251867   7.432   5.821   5.574  1.3583  1.3376 -3.1438
47185SOL     OW51868  12.210   9.879  11.243  0.2197  0.2173  0.5856
47185SOL    HW151869  12.115   9.869  11.234  0.0352  1.3233  1.0517
47185SOL    HW251870  12.237   9.808  11.301 -0.2307 -0.4435 -0.0017
47186SOL     OW51871   2.593   8.311   9.958  0.1034  0.1992  0.4196
47186SOL    HW151872   2.532   8.308   9.884  0.2335 -1.2400  0.3424
47186SOL    HW251873   2.640   8.394   9.946 -0.3600  0.3209 -0.7196
47187SOL     OW51874   2.987   7.387   8.487  0.2027 -0.4482 -0.1556
47187SOL    HW151875   3.010   7.415   8.576  1.1143  3.1128 -1.3663
47187SOL    HW251876   2.892   7.373   8.491  0.3927 -1.6582  1.6187
47188SOL     OW51877   4.162  11.542   6.791 -0.1444 -0.4559 -0.5825
47188SOL    HW151878   4.252  11.510   6.793 -0.7658 -2.4670  2.3480
47188SOL    HW251879   4.118  11.492   6.859 -2.6512  2.9544  0.5883
47189SOL     OW51880   0.517   5.829   9.834 -0.0665  0.4316 -0.1100
47189SOL    HW151881   0.510   5.924   9.831 -0.5208  0.5508  2.5210
47189SOL    HW251882   0.542   5.809   9.924  0.9016 -1.9180 -0.8138
47190SOL     OW51883   9.603   8.587   7.661  0.1042 -0.0663 -0.4067
47190SOL    HW151884   9.573   8.551   7.745  1.9416  1.4594  0.9970
47190SOL    HW251885   9.688   8.546   7.647 -0.7118 -1.2416 -2.2180
47191SOL     OW51886  12.525   0.788   4.042  0.7691  0.2116 -0.5336
47191SOL    HW151887  12.432   0.810   4.044  0.6297 -0.1171  3.0248
47191SOL    HW251888  12.527   0.693   4.034  0.5949 -0.0578  1.8741
47192SOL     OW51889  10.330  10.750   2.145  0.0924 -0.0710  0.1753
47192SOL    HW151890  10.350  10.844   2.146 -1.0078  0.1864 -0.3918
47192SOL    HW251891  10.360  10.718   2.230  3.3257  0.1447 -0.7592
47193SOL     OW51892   1.969   8.919   0.943 -1.2344  0.0023 -0.1515
47193SOL    HW151893   1.981   8.879   1.029 -1.0441 -0.5672 -0.4346
47193SOL    HW251894   2.012   8.858   0.883 -1.8242  0.1270 -0.7076
47194SOL     OW51895   7.821   0.196   6.483  0.2392 -0.4000 -0.2374
47194SOL    HW151896   7.788   0.272   6.530  0.6657 -0.6271  0.4596
47194SOL    HW251897   7.803   0.214   6.391 -0.7551 -0.0082  0.0252
47195SOL     OW51898   1.363   9.876   7.490 -0.0885 -0.2241  0.1973
47195SOL    HW151899   1.447   9.883   7.537 -0.0196  2.6193 -0.1606
47195SOL    HW251900   1.297   9.878   7.558  0.0778 -2.3628  0.4757
47196SOL     OW51901   2.275   2.810   0.147  0.5521  0.1630 -0.2921
47196SOL    HW151902   2.308   2.737   0.200  0.1481 -0.5323 -0.9800
47196SOL    HW251903   2.189   2.829   0.184  1.6590  1.9787  1.5048
47197SOL     OW51904   9.291  11.361   5.511 -0.3537  0.0981 -0.0846
47197SOL    HW151905   9.224  11.379   5.445 -0.9759 -1.3698  0.1137
47197SOL    HW251906   9.245  11.371   5.595  0.1298  0.7526  0.1169
47198SOL     OW51907   9.552   3.320   0.159  0.1599  0.2729  0.6561
47198SOL    HW151908   9.460   3.344   0.169 -0.2469 -0.7611 -0.3564
47198SOL    HW251909   9.586   3.382   0.095 -0.1312 -0.0199  0.2099
47199SOL     OW51910   3.163  10.661   4.972  0.5960 -0.4070 -0.1287
47199SOL    HW151911   3.206  10.744   4.948 -2.0055  1.7898  2.0781
47199SOL    HW251912   3.080  10.664   4.924 -0.4133 -0.6747  1.5356
47200SOL     OW51913   2.077   7.379   1.540 -0.3785 -0.0550  0.0974
47200SOL    HW151914   2.026   7.373   1.459  0.8978  2.3747 -1.0123
47200SOL    HW251915   2.071   7.292   1.579 -1.3753 -1.2160 -2.4148
47201SOL     OW51916   8.558   7.630   3.174 -0.1315 -0.3271  0.2569
47201SOL    HW151917   8.599   7.614   3.089 -0.7961  0.6573 -0.2663
47201SOL    HW251918   8.620   7.685   3.221 -0.5235  0.5903 -0.2726
47202SOL     OW51919  11.851  12.548  12.290  0.3827  0.0664  0.3817
47202SOL    HW151920  11.805  12.574  12.210 -0.3470  1.8185  1.3221
47202SOL    HW251921  11.943  12.542  12.264  0.1277  0.3905 -0.6328
47203SOL     OW51922   7.071  11.743  11.587 -0.1432 -0.1234  0.0410
47203SOL    HW151923   7.026  11.729  11.503 -0.5671 -0.3042  0.2991
47203SOL    HW251924   7.006  11.787  11.642 -0.3991 -1.3938  0.7954
47204SOL     OW51925   2.421   4.456   9.167 -0.2141 -0.3287 -0.3525
47204SOL    HW151926   2.384   4.391   9.227 -1.2974  1.3033  0.8510
47204SOL    HW251927   2.370   4.447   9.087 -0.5331 -0.7735 -0.1070
47205SOL     OW51928   3.851   5.744   5.117  0.0048  0.1672 -0.3527
47205SOL    HW151929   3.875   5.723   5.027  0.2378 -0.7901 -0.0831
47205SOL    HW251930   3.872   5.665   5.166  0.3743  0.8616  0.6351
47206SOL     OW51931   8.995  10.042  12.436  0.1189 -0.5605  0.2492
47206SOL    HW151932   8.930  10.035  12.366 -0.0068  2.6396 -0.1115
47206SOL    HW251933   8.943  10.051  12.516  0.1254  0.3177  0.1638
47207SOL     OW51934   3.348   6.016   3.913  0.6323 -0.3997 -0.5658
47207SOL    HW151935   3.257   5.999   3.938  0.9265 -1.4011 -0.1529
47207SOL    HW251936   3.371   5.943   3.855  1.3571 -0.4659 -0.1993
47208SOL     OW51937   5.758   9.387   0.776  0.2868  0.0945  0.3701
47208SOL    HW151938   5.799   9.319   0.829  1.7136 -0.0155 -0.8148
47208SOL    HW251939   5.674   9.404   0.819  0.0990 -2.0769  0.9505
47209SOL     OW51940   4.887   2.514  12.952 -0.0001 -0.4993 -0.2287
47209SOL    HW151941   4.916   2.606  12.951  1.6262 -0.9730 -0.2411
47209SOL    HW251942   4.792   2.519  12.959  0.0606  1.1906 -0.0889
47210SOL     OW51943  10.044   5.410  11.220  0.3708  0.0715 -0.2752
47210SOL    HW151944   9.993   5.345  11.268  1.7365 -0.7338  0.1376
47210SOL    HW251945  10.007   5.410  11.132 -1.0639  0.3399  0.2980
47211SOL     OW51946   5.880   5.617  12.672  0.0965 -0.1700  0.9782
47211SOL    HW151947   5.879   5.689  12.609 -0.2715  0.7052  1.9684
47211SOL    HW251948   5.788   5.593  12.682 -0.2800  1.9791  3.6986
47212SOL     OW51949  10.418   9.333   8.324 -0.1181 -0.2389  0.5791
47212SOL    HW151950  10.323   9.339   8.338 -0.5758 -0.9682 -1.7768
47212SOL    HW251951  10.434   9.241   8.305  0.7171  0.1977 -1.0214
47213SOL     OW51952   6.603   2.411   7.037 -0.7136 -0.4798  0.1639
47213SOL    HW151953   6.578   2.458   7.117 -0.5676  0.2953 -0.2408
47213SOL    HW251954   6.652   2.335   7.069  0.7201  0.6470  0.7975
47214SOL     OW51955   6.428   9.796   9.731  0.1468  0.0754  0.0790
47214SOL    HW151956   6.458   9.719   9.779  2.5688  0.1310 -1.1678
47214SOL    HW251957   6.361   9.762   9.671  0.3012 -0.8365  0.4036
47215SOL     OW51958   9.732  11.353   3.697  0.5203 -0.1434  0.1388
47215SOL    HW151959   9.725  11.436   3.650  0.6577 -0.4898 -0.5028
47215SOL    HW251960   9.685  11.368   3.779 -4.0234 -0.9467 -1.9844
47216SOL     OW51961   3.143   3.011  12.298  0.1622  0.4212 -0.2362
47216SOL    HW151962   3.054   2.991  12.270  0.3889 -0.2179 -0.5235
47216SOL    HW251963   3.198   2.955  12.244  0.7112  0.4864  0.2482
47217SOL     OW51964   6.938  12.519   0.454  0.0763  0.7128  0.4794
47217SOL    HW151965   7.006  12.452   0.460 -0.6907  0.0139  2.1827
47217SOL    HW251966   6.891  12.498   0.374  0.9025  0.2567  0.0963
47218SOL     OW51967  12.308   9.007  11.883  0.1353 -0.3379 -0.3341
47218SOL    HW151968  12.382   8.951  11.860  2.0987  1.9351  0.0091
47218SOL    HW251969  12.301   9.068  11.810 -1.0843 -0.1866 -0.1099
47219SOL     OW51970   1.509   8.243   3.780 -0.4267 -0.3666  0.0609
47219SOL    HW151971   1.553   8.196   3.708  0.4383 -1.4892  1.2736
47219SOL    HW251972   1.419   8.210   3.778 -0.7182  0.4407 -1.1828
47220SOL     OW51973   8.525  12.387   7.314 -0.6690  0.0075 -0.3394
47220SOL    HW151974   8.460  12.333   7.358  0.8112 -0.2000  1.7562
47220SOL    HW251975   8.519  12.472   7.356  0.6917 -0.1497  0.2431
47221SOL     OW51976   8.072  11.701   2.060 -0.1508 -0.5265 -0.6601
47221SOL    HW151977   8.001  11.726   2.119 -0.1289  0.7003 -1.1172
47221SOL    HW251978   8.029  11.649   1.992 -0.2965 -1.3287  0.0388
47222SOL     OW51979   9.501  12.928   8.909 -0.2392 -0.5181  1.1516
47222SOL    HW151980   9.544  12.863   8.854 -4.0856 -0.8594 -1.8707
47222SOL    HW251981   9.479  12.881   8.990 -0.5858 -2.2337  0.1066
47223SOL     OW51982   9.031   7.856   7.474 -0.1906  0.5687  0.3613
47223SOL    HW151983   8.994   7.775   7.509 -1.0651  0.6187 -0.4048
47223SOL    HW251984   9.089   7.828   7.403 -1.3562  0.6349 -0.6602
47224SOL     OW51985   2.355  12.511   7.914  0.1441  0.2292 -0.0085
47224SOL    HW151986   2.402  12.594   7.915 -1.3238  1.0858  0.4121
47224SOL    HW251987   2.264  12.535   7.895 -0.4417 -1.2029  0.8296
47225SOL     OW51988   0.005  10.723   0.075  0.4257  0.1983 -0.4911
47225SOL    HW151989   0.015  10.665  -0.001 -0.4918  0.0604 -0.5147
47225SOL    HW251990  -0.032  10.804   0.040  0.1257  0.1842 -0.2156
47226SOL     OW51991  10.099   1.641   2.288 -0.2122 -0.0846 -0.5077
47226SOL    HW151992  10.068   1.554   2.311  0.3522  0.2715  1.8395
47226SOL    HW251993  10.053   1.700   2.347  0.0572  1.1393 -1.4679
47227SOL     OW51994   9.123   3.302   3.843 -0.4397 -0.1768 -0.2093
47227SOL    HW151995   9.054   3.328   3.903  1.3170  1.7417  1.1310
47227SOL    HW251996   9.182   3.248   3.896  0.6147  0.7164 -0.4336
47228SOL     OW51997   4.511   3.980   7.054 -0.2951  0.2868  0.4833
47228SOL    HW151998   4.440   3.929   7.093 -0.7001  0.8503  0.5011
47228SOL    HW251999   4.497   3.972   6.960 -0.2007  0.1490  0.4804
47229SOL     OW52000   3.970   2.754  10.881 -0.3789 -0.1676 -0.1543
47229SOL    HW152001   3.961   2.737  10.975 -0.0303  1.8005  0.2698
47229SOL    HW252002   4.032   2.687  10.851  0.9595  0.3023  1.4078
47230SOL     OW52003  11.780   6.791   6.337 -1.0365  0.2714 -0.2094
47230SOL    HW152004  11.840   6.851   6.292  1.3577 -0.2612  2.0537
47230SOL    HW252005  11.810   6.704   6.313 -1.8321 -0.0347 -0.1490
47231SOL     OW52006  12.665  11.733   6.802  0.0901  0.4188  0.5431
47231SOL    HW152007  12.645  11.826   6.792 -0.0139  0.4208  0.7690
47231SOL    HW252008  12.580  11.690   6.804  0.1571  0.2025 -0.6560
47232SOL     OW52009   0.233   8.406  12.071  0.7596 -0.7849  0.2620
47232SOL    HW152010   0.264   8.480  12.019  0.6126 -2.6310 -2.7083
47232SOL    HW252011   0.184   8.446  12.143  1.9968  1.9886 -0.2985
47233SOL     OW52012   8.634  10.451   9.881  0.9992  0.0806  0.0141
47233SOL    HW152013   8.667  10.419   9.797 -0.0481  0.6182 -0.6274
47233SOL    HW252014   8.710  10.490   9.924  1.3894  0.5231 -1.0415
47234SOL     OW52015   9.700  11.125   5.359  0.3020 -0.2383 -0.4484
47234SOL    HW152016   9.674  11.040   5.397 -0.2118  0.9641  2.1096
47234SOL    HW252017   9.793  11.133   5.380  0.6509 -0.6291 -1.7315
47235SOL     OW52018  11.311   4.932  12.103  0.1743 -0.6420 -0.1251
47235SOL    HW152019  11.286   4.856  12.155 -0.1436  0.1595  0.9267
47235SOL    HW252020  11.252   4.929  12.027 -0.0147 -1.2938  0.0440
47236SOL     OW52021   9.837   2.729   7.326  0.7270  0.3905 -0.8848
47236SOL    HW152022   9.896   2.655   7.316  0.6005 -0.3067  2.5037
47236SOL    HW252023   9.890   2.805   7.301  1.4397 -0.6021 -2.5958
47237SOL     OW52024  10.189   7.354  11.133  0.5367 -0.0184  0.6209
47237SOL    HW152025  10.151   7.341  11.220 -0.0241 -0.8204  0.2675
47237SOL    HW252026  10.116   7.342  11.073  0.8290  0.9537  0.0484
47238SOL     OW52027   1.681   3.179  11.389  0.7996 -0.2733 -0.1208
47238SOL    HW152028   1.729   3.183  11.472  1.2270  0.1216 -0.3800
47238SOL    HW252029   1.589   3.173  11.415  0.8322  1.0459  0.3891
47239SOL     OW52030  10.914   2.355   3.830 -0.6187  0.4951  0.5422
47239SOL    HW152031  10.859   2.356   3.752  1.2193  1.1302 -0.8216
47239SOL    HW252032  10.886   2.276   3.877 -1.1675 -0.4254 -1.2247
47240SOL     OW52033   9.248   3.041  12.921 -0.0342  0.2076  0.2249
47240SOL    HW152034   9.188   2.969  12.940  1.1195 -0.6314  0.7874
47240SOL    HW252035   9.276   3.072  13.007 -2.2677  2.9271  0.1147
47241SOL     OW52036   6.735   5.287   3.297 -0.6321 -0.2318 -0.4973
47241SOL    HW152037   6.664   5.234   3.261 -2.0482  1.3414 -0.1481
47241SOL    HW252038   6.781   5.321   3.220 -0.5850 -0.8443 -0.7394
47242SOL     OW52039   4.609  10.265   3.349 -0.9138 -0.2999  0.5740
47242SOL    HW152040   4.533  10.216   3.318  0.0897 -1.7720  0.3653
47242SOL    HW252041   4.650  10.209   3.415 -0.4895  0.8559  1.3281
47243SOL     OW52042   3.160  10.587  12.322  0.0864  0.3692  0.4405
47243SOL    HW152043   3.243  10.616  12.286 -0.8357  1.8903 -0.5736
47243SOL    HW252044   3.170  10.597  12.417  1.6215 -1.1463  0.4824
47244SOL     OW52045   1.201   3.682   7.300 -0.2803  0.1597 -0.5084
47244SOL    HW152046   1.259   3.610   7.323 -0.6264  0.6352  2.1478
47244SOL    HW252047   1.113   3.646   7.309 -0.4357  0.6236 -0.1232
47245SOL     OW52048   5.597   9.069   3.955  0.2270  0.0057 -0.1412
47245SOL    HW152049   5.632   9.155   3.979  2.4467 -0.4214 -1.5442
47245SOL    HW252050   5.603   9.067   3.859 -0.7267 -1.3450 -0.1952
47246SOL     OW52051   3.050   6.113   4.897  0.5495 -0.1266  0.1007
47246SOL    HW152052   3.075   6.043   4.837  0.9128 -0.5316  0.7079
47246SOL    HW252053   3.077   6.081   4.984  2.1503  1.4032  0.2262
47247SOL     OW52054  10.113  11.200   1.203  0.3320 -0.7707  0.2761
47247SOL    HW152055  10.072  11.274   1.158  0.1018 -0.4316  1.0262
47247SOL    HW252056  10.060  11.188   1.282  2.2892  0.3785  1.8617
47248SOL     OW52057   9.885   4.469   6.410 -0.1587 -0.5919  0.2988
47248SOL    HW152058   9.845   4.472   6.497  2.3835 -1.1862  1.5946
47248SOL    HW252059   9.921   4.380   6.403  1.6978  0.1542 -0.3286
47249SOL     OW52060   0.264   8.370   0.819  0.0966  0.3036  0.1278
47249SOL    HW152061   0.202   8.343   0.752  0.8444 -4.0544  0.8873
47249SOL    HW252062   0.350   8.350   0.781  0.5720 -1.2312  1.8898
47250SOL     OW52063   4.346   1.116   2.862  0.2870 -0.1073  0.1610
47250SOL    HW152064   4.336   1.200   2.907 -0.4760 -0.9388  1.5940
47250SOL    HW252065   4.441   1.104   2.857  0.4016  0.0210  1.5678
47251SOL     OW52066  10.936   4.868   3.176 -0.1698  0.2155  0.2145
47251SOL    HW152067  10.945   4.775   3.199  0.0331  0.1912  0.0342
47251SOL    HW252068  11.017   4.908   3.205  0.1505  0.1578 -0.5917
47252SOL     OW52069   3.378   1.841   9.881 -0.3377  0.7253 -0.2473
47252SOL    HW152070   3.417   1.827   9.795  0.9745 -0.1594  0.4660
47252SOL    HW252071   3.338   1.757   9.903  3.0360 -0.5357  1.7985
47253SOL     OW52072   4.391  12.440   5.548 -0.4561  0.1154 -0.4273
47253SOL    HW152073   4.339  12.381   5.603  1.4486  1.2697  2.9070
47253SOL    HW252074   4.473  12.394   5.534 -0.2051  0.6268 -0.6507
47254SOL     OW52075  11.761   8.666   4.719  0.1152 -0.7246 -0.0839
47254SOL    HW152076  11.674   8.704   4.714  0.2561 -0.1576  1.3088
47254SOL    HW252077  11.767   8.630   4.807  1.2358 -0.8690 -0.1976
47255SOL     OW52078   7.638  12.148   5.220  0.0475  0.0613 -0.3429
47255SOL    HW152079   7.551  12.186   5.232 -0.2008 -0.0065 -1.7102
47255SOL    HW252080   7.696  12.223   5.209 -0.4227  0.1331 -2.9135
47256SOL     OW52081   8.701   1.894   3.482  0.5175  0.7278 -0.0834
47256SOL    HW152082   8.651   1.931   3.556  0.4728  1.8898 -0.6811
47256SOL    HW252083   8.670   1.943   3.406  2.1938  1.1063 -0.5447
47257SOL     OW52084   8.377   9.893   6.539  0.5077  0.5956 -0.5661
47257SOL    HW152085   8.313   9.919   6.605  1.1808 -0.9544  0.7958
47257SOL    HW252086   8.376   9.964   6.475 -1.3112  1.4202  0.2903
47258SOL     OW52087   0.814   4.474   3.862  0.0659 -0.5078 -0.1224
47258SOL    HW152088   0.813   4.379   3.878  1.5496 -0.8066 -1.6149
47258SOL    HW252089   0.751   4.509   3.926  1.3788 -2.2032  2.2663
47259SOL     OW52090   5.318   6.750  11.246 -0.3540 -0.0274  0.5344
47259SOL    HW152091   5.320   6.712  11.158 -0.1739 -1.0958  0.9984
47259SOL    HW252092   5.409   6.769  11.266 -0.4061  0.3257  0.4587
47260SOL     OW52093  10.111   3.175   3.055  0.1058 -0.5608 -0.1791
47260SOL    HW152094  10.129   3.265   3.082 -1.1573 -0.6750  1.1304
47260SOL    HW252095  10.192   3.128   3.074  0.3774  0.0603  0.2216
47261SOL     OW52096  11.539   4.498   9.723 -0.9185  0.4169  0.3851
47261SOL    HW152097  11.470   4.551   9.762 -1.0356  0.7449 -0.2498
47261SOL    HW252098  11.493   4.425   9.681 -0.7930  0.0485  0.8812
47262SOL     OW52099   2.883   3.209  12.914 -0.0960 -0.0960 -0.4767
47262SOL    HW152100   2.862   3.117  12.929  1.5861 -0.5714 -0.8219
47262SOL    HW252101   2.836   3.256  12.983  0.8687 -1.4477  1.1774
47263SOL     OW52102   2.081   0.270   6.823 -0.2511  0.2006 -0.0952
47263SOL    HW152103   2.089   0.197   6.762  0.7787  1.5137 -1.6013
47263SOL    HW252104   2.158   0.261   6.880 -0.1898  0.0417 -0.1997
47264SOL     OW52105   8.084  12.874   0.507  0.2841  0.5466 -0.2748
47264SOL    HW152106   8.078  12.817   0.430 -1.1600  2.6639 -1.8339
47264SOL    HW252107   8.170  12.916   0.499  1.1677 -0.9738  0.6479
47265SOL     OW52108  11.351   2.767  10.417  0.2047 -0.3526 -0.2485
47265SOL    HW152109  11.333   2.821  10.340  1.5566  0.6436  0.0854
47265SOL    HW252110  11.347   2.829  10.490 -0.0597 -1.0923  0.3728
47266SOL     OW52111   4.052   5.274   6.436  0.8635  0.0827  0.1121
47266SOL    HW152112   3.983   5.209   6.445  2.6766 -2.5089 -2.7210
47266SOL    HW252113   4.097   5.273   6.521 -0.6869 -0.4393  0.9621
47267SOL     OW52114  10.537   3.795   0.163 -0.4495 -0.1930 -0.5159
47267SOL    HW152115  10.516   3.716   0.114  2.8338 -2.2773  1.0979
47267SOL    HW252116  10.534   3.767   0.255 -0.2326  1.8749  0.1712
47268SOL     OW52117   3.759  12.418   2.467  0.2603  0.4389 -0.1178
47268SOL    HW152118   3.798  12.480   2.528 -1.4124  0.3432  1.1264
47268SOL    HW252119   3.811  12.338   2.477 -0.0862  0.3624  1.3735
47269SOL     OW52120   5.888   4.681   3.367  0.0639 -0.0106  0.2482
47269SOL    HW152121   5.966   4.650   3.320 -0.7530 -1.9967  0.1061
47269SOL    HW252122   5.822   4.694   3.298  0.4811  2.5880  0.2513
47270SOL     OW52123  12.794  12.701   2.064 -0.0208  0.2478  0.1243
47270SOL    HW152124  12.839  12.751   1.995  1.5071  0.3494  1.1355
47270SOL    HW252125  12.845  12.621   2.073 -1.9591 -1.2059 -0.8810
47271SOL     OW52126  12.532   5.392   8.675  0.1588 -0.6000 -0.0762
47271SOL    HW152127  12.606   5.418   8.729  1.9023 -3.3319 -0.9178
47271SOL    HW252128  12.469   5.464   8.682  0.7658 -0.2375  4.5423
47272SOL     OW52129   0.239  10.546   8.086 -0.1720 -0.2526 -0.6997
47272SOL    HW152130   0.197  10.497   8.157  1.5689  0.1869  0.6911
47272SOL    HW252131   0.267  10.479   8.024 -0.1475 -0.8034 -0.1007
47273SOL     OW52132   1.000   4.848   5.396  0.2376 -0.3883  0.2475
47273SOL    HW152133   1.054   4.915   5.439  0.4743 -0.4281  0.0181
47273SOL    HW252134   0.987   4.881   5.307 -1.8659  0.6277  0.8715
47274SOL     OW52135   5.529   7.032   5.457  0.1141 -0.3137 -0.4412
47274SOL    HW152136   5.538   6.970   5.529  1.2496  0.5510  0.1959
47274SOL    HW252137   5.618   7.066   5.442 -0.3157  0.4674 -1.3947
47275SOL     OW52138   0.914   3.673   7.819 -0.0742  0.0422 -0.1109
47275SOL    HW152139   0.984   3.736   7.800  3.4955 -2.6099  2.8550
47275SOL    HW252140   0.916   3.611   7.746 -1.4835  1.4750 -1.4634
47276SOL     OW52141   8.959  11.766   8.592  0.1512  0.6438  0.2163
47276SOL    HW152142   8.908  11.697   8.634  0.3598 -0.1321 -0.7796
47276SOL    HW252143   9.042  11.725   8.569  1.2666  1.8987  1.8280
47277SOL     OW52144   6.267   0.231   8.207 -0.5121  0.0307 -0.3120
47277SOL    HW152145   6.230   0.289   8.140 -0.5133  1.4263  0.8388
47277SOL    HW252146   6.300   0.291   8.274  0.7298 -1.2895  0.2949
47278SOL     OW52147   9.441   6.835   3.732 -0.3004  0.0310  0.1163
47278SOL    HW152148   9.526   6.850   3.775  0.2171 -1.5206 -0.2769
47278SOL    HW252149   9.457   6.853   3.640  0.2063 -2.1365 -0.2885
47279SOL     OW52150   9.601   8.726  10.304 -0.4768  0.1917 -0.5717
47279SOL    HW152151   9.690   8.691  10.315 -1.0120 -1.9736 -2.4202
47279SOL    HW252152   9.614   8.811  10.262  0.7174  0.3396  0.0259
47280SOL     OW52153  12.861   8.277   0.226 -0.9635  0.4474  0.2627
47280SOL    HW152154  12.955   8.257   0.220 -0.9623  0.8315 -1.3249
47280SOL    HW252155  12.832   8.229   0.303 -0.0578 -2.0593 -0.8421
47281SOL     OW52156  11.438   9.547   2.449 -0.0756 -0.4933 -0.0728
47281SOL    HW152157  11.355   9.507   2.474  0.2830 -2.3456 -1.5872
47281SOL    HW252158  11.431   9.561   2.354  0.7347  0.8800  0.0391
47282SOL     OW52159   4.023  11.435   7.008 -0.6777  0.6812 -0.8234
47282SOL    HW152160   4.054  11.352   7.046 -2.2662 -1.2343 -3.3490
47282SOL    HW252161   3.937  11.449   7.048  0.2469  2.0711  0.7980
47283SOL     OW52162   4.981   1.347   3.087 -0.4913 -0.2173 -0.0461
47283SOL    HW152163   5.000   1.402   3.163  0.6778 -2.4955  1.4295
47283SOL    HW252164   4.959   1.409   3.017  1.1712  2.1218  1.3522
47284SOL     OW52165   9.344   4.426   2.867  0.4435  0.3217  0.4218
47284SOL    HW152166   9.352   4.418   2.963  0.9130 -0.0495  0.3579
47284SOL    HW252167   9.291   4.504   2.854  0.3664  0.3724  0.9902
47285SOL     OW52168   6.848   8.848   8.327 -0.4050  0.2848  0.0705
47285SOL    HW152169   6.813   8.926   8.284  0.7383  1.8128  1.7765
47285SOL    HW252170   6.776   8.817   8.381 -0.9137  0.0284 -0.7273
47286SOL     OW52171   5.371   1.953   6.577 -0.4062 -0.0939  0.8762
47286SOL    HW152172   5.279   1.977   6.585  0.0752  2.4087  0.0830
47286SOL    HW252173   5.404   2.008   6.505  0.7553 -4.1122 -2.0396
47287SOL     OW52174   2.940  10.759   0.052  0.2449  0.2789 -0.0716
47287SOL    HW152175   2.850  10.729   0.037  0.2588  0.2617 -0.1214
47287SOL    HW252176   2.991  10.678   0.058  0.2391  0.2865  0.0693
47288SOL     OW52177  10.141   4.146  12.200  0.7461 -0.1879  0.1068
47288SOL    HW152178  10.210   4.211  12.212  1.2695 -1.2240  3.7582
47288SOL    HW252179  10.059   4.193  12.218  1.0169 -0.2123  1.4779
47289SOL     OW52180   5.268   0.509  11.506 -0.0798 -0.3907 -0.2637
47289SOL    HW152181   5.185   0.490  11.549 -0.7776 -1.3844 -1.9267
47289SOL    HW252182   5.247   0.578  11.443  0.3973 -0.4891 -0.5347
47290SOL     OW52183   9.655   0.985   9.840  0.3597  0.5466  0.2430
47290SOL    HW152184   9.682   1.061   9.893  3.2574 -0.3993  0.2784
47290SOL    HW252185   9.651   0.913   9.903  0.4335  0.1013 -0.2625
47291SOL     OW52186   1.313   7.039   0.511  0.4852 -0.2167 -0.0517
47291SOL    HW152187   1.314   6.956   0.463  1.7833  0.4707 -1.3177
47291SOL    HW252188   1.307   7.105   0.442  1.4743  0.7891  0.7901
47292SOL     OW52189  12.614  10.020   9.063  0.6016 -0.5982  0.2308
47292SOL    HW152190  12.694   9.969   9.048  0.9495 -0.1143  0.4092
47292SOL    HW252191  12.645  10.109   9.077 -0.1258  0.0767 -2.0163
47293SOL     OW52192  11.476   9.253   8.957 -0.1664 -0.1699 -0.1067
47293SOL    HW152193  11.528   9.175   8.938 -0.2800 -0.4829  0.8326
47293SOL    HW252194  11.511   9.285   9.040 -0.8923  0.1207  0.0916
47294SOL     OW52195   4.652   3.813   4.413  0.1453  0.4272 -0.1838
47294SOL    HW152196   4.560   3.820   4.438  0.2089  1.2701 -0.1294
47294SOL    HW252197   4.694   3.890   4.453  0.5231  1.0348 -1.6397
47295SOL     OW52198  12.432   7.331   2.935  0.3667  0.1131  0.0327
47295SOL    HW152199  12.395   7.292   3.014  0.7716  0.4849  0.4119
47295SOL    HW252200  12.378   7.408   2.918 -1.2773 -1.2821 -1.4754
47296SOL     OW52201   8.250   6.595   3.441  0.0292 -0.2096 -0.4718
47296SOL    HW152202   8.228   6.510   3.481  0.2613 -0.9199 -1.7881
47296SOL    HW252203   8.343   6.587   3.420 -0.2178 -0.0909 -1.6614
47297SOL     OW52204   9.348   5.786   5.885 -0.3180  0.5564  0.0531
47297SOL    HW152205   9.332   5.705   5.934  0.2753  0.5994  0.3206
47297SOL    HW252206   9.384   5.757   5.801  1.1735  0.5896  0.6618
47298SOL     OW52207   6.393   8.330  11.320  0.0435 -0.1877 -0.3258
47298SOL    HW152208   6.407   8.258  11.259 -1.4790 -0.0398 -0.8848
47298SOL    HW252209   6.345   8.291  11.393  1.0711 -0.1705  0.3802
47299SOL     OW52210   4.586   2.456   2.330  0.0314 -0.0916  0.1221
47299SOL    HW152211   4.602   2.367   2.299  1.0956 -0.3861  1.4533
47299SOL    HW252212   4.620   2.458   2.420  1.2286  2.0060 -0.2949
47300SOL     OW52213   4.586   5.184   9.387 -0.1513 -0.0328 -0.2092
47300SOL    HW152214   4.502   5.204   9.427  0.6977  2.9592  0.3451
47300SOL    HW252215   4.614   5.102   9.428 -1.6403  0.2554  1.4838
47301SOL     OW52216  11.977  11.307  10.740 -0.0658  1.0707 -0.0811
47301SOL    HW152217  11.906  11.323  10.678  0.6119  0.1400 -1.1538
47301SOL    HW252218  11.933  11.277  10.819 -0.8592 -0.1823 -0.9584
47302SOL     OW52219   7.979  10.153   5.954 -0.4368 -0.5815  0.5034
47302SOL    HW152220   7.973  10.161   6.049 -1.4726  0.3604  0.3857
47302SOL    HW252221   8.037  10.079   5.939  0.5362 -0.1406  1.8691
47303SOL     OW52222   4.838  11.057   2.401 -0.0737 -0.2062 -0.1472
47303SOL    HW152223   4.858  11.000   2.327  4.3134  1.1356 -0.2430
47303SOL    HW252224   4.868  11.008   2.477  0.2119  0.4812  0.1841
47304SOL     OW52225  10.657  11.026   3.216 -0.5690  0.6062 -0.1120
47304SOL    HW152226  10.565  11.054   3.218 -0.8238  0.1301 -2.1144
47304SOL    HW252227  10.654  10.933   3.238 -0.6808  0.4404 -0.7790
47305SOL     OW52228   2.571   2.959  11.568  0.1043  0.2523  0.1953
47305SOL    HW152229   2.568   2.907  11.487 -0.6170  0.0378  0.3615
47305SOL    HW252230   2.564   3.050  11.538 -0.5808  0.1511  0.0433
47306SOL     OW52231   0.098   0.210   2.964  0.5103 -0.3625 -0.4086
47306SOL    HW152232   0.047   0.167   3.033  0.1810  1.0982  0.2827
47306SOL    HW252233   0.140   0.284   3.007 -0.5597  1.2384 -1.9527
47307SOL     OW52234   1.514   7.420  10.192  0.3181 -0.4172 -0.5721
47307SOL    HW152235   1.542   7.462  10.110 -3.1337  1.1852 -1.1044
47307SOL    HW252236   1.485   7.493  10.247  2.5749 -1.4617  2.1944
47308SOL     OW52237  12.385   4.082  10.385  0.1180 -0.0481  0.8906
47308SOL    HW152238  12.322   4.105  10.453 -1.4204 -0.8940 -0.1871
47308SOL    HW252239  12.437   4.011  10.423 -0.5537 -0.3370  1.2926
47309SOL     OW52240   4.877   0.648   1.113 -0.2529  0.0247  0.1988
47309SOL    HW152241   4.787   0.679   1.129 -0.8064 -0.0564 -2.2674
47309SOL    HW252242   4.927   0.728   1.099  0.0492  0.0582  1.3462
47310SOL     OW52243  11.630  12.231   3.112  0.3521 -0.1269 -0.0646
47310SOL    HW152244  11.621  12.203   3.203  0.9230 -0.2629 -0.0411
47310SOL    HW252245  11.715  12.196   3.085  1.1755  1.6631  0.0043
47311SOL     OW52246   1.288   2.185  10.230 -0.4073  0.1093  0.3176
47311SOL    HW152247   1.204   2.197  10.274 -2.1853  1.7175 -3.1132
47311SOL    HW252248   1.303   2.268  10.184  0.4341 -1.7973 -3.2395
47312SOL     OW52249   6.096   6.586   3.772 -0.2844  0.2754  0.1275
47312SOL    HW152250   6.145   6.595   3.691  0.9591  0.4176  0.8698
47312SOL    HW252251   6.122   6.662   3.825  0.1337 -0.6142  1.2503
47313SOL     OW52252   9.197   2.618   5.302 -0.6313 -0.2099  0.8330
47313SOL    HW152253   9.137   2.669   5.356 -0.3751 -0.7258  1.6161
47313SOL    HW252254   9.282   2.663   5.312 -0.9629  0.8565 -0.7182
47314SOL     OW52255   2.148   1.888   1.500 -0.2256 -0.3987  0.3667
47314SOL    HW152256   2.109   1.873   1.413  0.4619  0.8243 -0.1795
47314SOL    HW252257   2.119   1.813   1.552 -0.3002 -1.3847 -1.0332
47315SOL     OW52258   4.627   5.535   4.896  0.1774 -0.5672 -0.5803
47315SOL    HW152259   4.543   5.579   4.912  1.2241  0.8832  1.3207
47315SOL    HW252260   4.689   5.582   4.950  2.5520 -0.6956 -2.9914
47316SOL     OW52261   1.564  11.442   4.611 -0.6830  0.4331 -0.6313
47316SOL    HW152262   1.613  11.361   4.596  1.2926  1.4591 -0.0466
47316SOL    HW252263   1.473  11.414   4.617 -0.1921 -1.5800 -1.6580
47317SOL     OW52264   5.161   6.971   5.701 -0.2014 -0.5378  0.2760
47317SOL    HW152265   5.080   6.965   5.649  1.1088 -1.4428 -1.8059
47317SOL    HW252266   5.184   7.064   5.698 -0.2432 -0.5460 -0.6767
47318SOL     OW52267   5.444   7.898   0.531 -0.1520  0.1202  0.1443
47318SOL    HW152268   5.532   7.918   0.565 -0.8568  1.7069  1.1437
47318SOL    HW252269   5.459   7.830   0.466  1.9474  1.0096 -0.3964
47319SOL     OW52270   3.454   2.102   6.735  0.1099  0.1445 -0.5225
47319SOL    HW152271   3.500   2.042   6.793  2.3386  0.8681 -1.4161
47319SOL    HW252272   3.370   2.118   6.777  0.1436 -2.2420  0.5706
47320SOL     OW52273   9.845   8.502   0.594  0.5115 -0.2176 -0.2032
47320SOL    HW152274   9.909   8.516   0.664  0.2950  0.9382 -0.2166
47320SOL    HW252275   9.897   8.491   0.515  0.8942 -3.7974  0.3810
47321SOL     OW52276  11.182   7.423   1.965  0.4465  0.5453 -0.5361
47321SOL    HW152277  11.251   7.363   1.938  0.3836  0.2778 -0.1273
47321SOL    HW252278  11.105   7.394   1.917  0.4144  0.2850 -0.3315
47322SOL     OW52279   2.868  10.096   1.629  0.4753 -0.1996 -0.4692
47322SOL    HW152280   2.916  10.171   1.594 -0.4550  0.4820 -0.3508
47322SOL    HW252281   2.934  10.028   1.642  1.6350  1.1120  0.8587
47323SOL     OW52282   3.755  10.407   0.551  0.3125 -0.2763 -0.0370
47323SOL    HW152283   3.754  10.503   0.559  0.1899 -0.1537 -1.2340
47323SOL    HW252284   3.804  10.377   0.627 -2.7461  0.4588  2.4305
47324SOL     OW52285   1.307  10.850  11.691 -0.0561 -0.1684  0.2052
47324SOL    HW152286   1.354  10.794  11.629 -0.5454 -0.0857 -0.2412
47324SOL    HW252287   1.375  10.906  11.729  0.4473 -1.0825  0.6903
47325SOL     OW52288   0.486   1.780   7.689 -0.4390 -0.5431 -0.6492
47325SOL    HW152289   0.498   1.704   7.746 -0.4484 -0.4305 -0.4986
47325SOL    HW252290   0.518   1.751   7.603  0.5347 -0.3821 -0.3494
47326SOL     OW52291   3.937   1.404   1.113  0.2480 -0.1327  0.2289
47326SOL    HW152292   3.918   1.311   1.105  0.9727 -0.4831  1.9384
47326SOL    HW252293   3.852   1.447   1.118 -0.0838 -0.7846  0.1849
47327SOL     OW52294  10.845  11.236  11.576  0.1120 -0.0018  0.2600
47327SOL    HW152295  10.890  11.242  11.660 -1.2814  0.5828  1.0070
47327SOL    HW252296  10.752  11.237  11.599 -0.3074  0.6289 -1.3229
47328SOL     OW52297   1.336  12.578   3.923 -0.0635  0.2561  0.6138
47328SOL    HW152298   1.368  12.562   4.012 -0.1641  0.8041  0.7569
47328SOL    HW252299   1.385  12.517   3.868  2.2809  1.9823  0.6203
47329SOL     OW52300   9.821   1.362   3.252 -0.6178  0.0629  0.2142
47329SOL    HW152301   9.892   1.371   3.316 -0.6891 -0.8174  0.4252
47329SOL    HW252302   9.778   1.280   3.275 -0.5496 -0.3544 -1.0602
47330SOL     OW52303   1.590   2.833   7.984  0.3721  0.1949 -0.3959
47330SOL    HW152304   1.570   2.890   7.910 -1.1666  1.0464  0.6282
47330SOL    HW252305   1.588   2.891   8.060  0.4113 -0.9351  0.4887
47331SOL     OW52306  10.940  11.297   7.756  0.0680  0.5785  0.3036
47331SOL    HW152307  10.871  11.363   7.740 -0.9257 -0.2786  0.9381
47331SOL    HW252308  10.893  11.221   7.788  1.0695 -0.8511 -1.4532
47332SOL     OW52309   1.133   9.673  11.144 -0.3129 -0.2321  0.3171
47332SOL    HW152310   1.153   9.724  11.065  0.8509 -0.2358  0.5884
47332SOL    HW252311   1.081   9.599  11.112 -0.7569  0.3213 -0.2860
47333SOL     OW52312   4.562   0.162   8.392 -0.1562  0.7642 -0.5028
47333SOL    HW152313   4.467   0.165   8.394 -0.2379  0.2898 -2.1234
47333SOL    HW252314   4.584   0.075   8.425 -0.3657  0.3626 -1.4012
47334SOL     OW52315   9.009   5.802   7.717 -0.1044 -0.3699  0.0773
47334SOL    HW152316   9.034   5.774   7.629 -0.4058 -0.4796  0.0255
47334SOL    HW252317   8.914   5.803   7.715 -0.1080  0.3814  0.1668
47335SOL     OW52318   6.848   0.556  10.285  0.0406  0.2319 -0.5191
47335SOL    HW152319   6.784   0.574  10.217  0.3592  1.3988 -0.5296
47335SOL    HW252320   6.904   0.487  10.249 -0.1400  0.4439 -1.2088
47336SOL     OW52321   7.433   1.648   4.542 -0.3813 -0.2755  0.2531
47336SOL    HW152322   7.457   1.578   4.602 -0.3677 -0.3850  0.1206
47336SOL    HW252323   7.338   1.655   4.550 -0.2869  0.3249  0.9612
47337SOL     OW52324   9.137   8.087  12.105 -0.2834  0.2591  0.4348
47337SOL    HW152325   9.164   8.003  12.144 -0.1012  0.3983  0.6111
47337SOL    HW252326   9.098   8.135  12.178 -2.8690 -0.6960 -0.1872
47338SOL     OW52327   5.135   5.927   5.597 -0.4969 -0.0293 -0.0047
47338SOL    HW152328   5.042   5.908   5.603  0.0551 -3.1281  0.1562
47338SOL    HW252329   5.173   5.891   5.677  1.0235 -0.1989 -0.7641
47339SOL     OW52330   7.595   4.799   7.855  0.5957  0.2305  0.0958
47339SOL    HW152331   7.645   4.724   7.825 -1.7196 -1.1325 -0.6196
47339SOL    HW252332   7.556   4.771   7.938 -1.6864 -0.0994 -1.0138
47340SOL     OW52333  11.196   6.236   9.466 -0.8194  0.0943 -0.3042
47340SOL    HW152334  11.116   6.265   9.510  0.2909 -0.0455  1.9720
47340SOL    HW252335  11.182   6.142   9.451 -1.6058  0.3437 -1.1551
47341SOL     OW52336  12.976  11.834  10.565  0.2320  0.0956 -0.5065
47341SOL    HW152337  12.964  11.770  10.495 -2.2634  1.1157 -1.1037
47341SOL    HW252338  12.995  11.916  10.519  3.2996 -0.0693  0.2434
47342SOL     OW52339   3.090  11.768  11.821  0.0274  0.2410 -0.3322
47342SOL    HW152340   3.028  11.753  11.893  1.5919  0.9962  1.2467
47342SOL    HW252341   3.035  11.799  11.749 -1.3572  2.0612  1.3620
47343SOL     OW52342  11.614  11.531   2.997 -0.6728  0.5622  0.3799
47343SOL    HW152343  11.641  11.463   3.058  1.1523  0.7531 -0.1420
47343SOL    HW252344  11.572  11.483   2.925  0.7679 -0.0772 -0.0755
47344SOL     OW52345   9.955  12.292   4.101  0.3972 -0.5447 -0.0247
47344SOL    HW152346   9.938  12.312   4.193 -0.1093  0.5707 -0.3337
47344SOL    HW252347   9.874  12.253   4.069 -0.0290  0.5618 -0.3709
47345SOL     OW52348   3.967   7.837   6.596  0.0116  0.0615  0.5135
47345SOL    HW152349   3.878   7.870   6.580  0.5154  1.3276  0.2200
47345SOL    HW252350   3.962   7.801   6.685 -1.2069 -1.4021 -0.1151
47346SOL     OW52351   2.208   4.101   2.602 -0.0301 -0.5312  0.2268
47346SOL    HW152352   2.138   4.053   2.559  0.6061 -0.6572 -0.7215
47346SOL    HW252353   2.233   4.047   2.677 -0.3077 -0.9479  0.0214
47347SOL     OW52354  10.715   4.772   7.547 -0.5037 -0.6126  0.7073
47347SOL    HW152355  10.678   4.724   7.473 -1.8799  0.5487  0.5905
47347SOL    HW252356  10.711   4.710   7.620 -0.4722 -1.2999  0.1310
47348SOL     OW52357   7.199   4.803   7.002 -0.7198 -0.8746 -0.5358
47348SOL    HW152358   7.271   4.867   7.005 -0.8473 -0.7511  0.1983
47348SOL    HW252359   7.157   4.818   6.918 -1.1837  0.5201 -0.0854
47349SOL     OW52360   4.386   1.170   2.413  0.3158 -0.1222  0.3681
47349SOL    HW152361   4.445   1.238   2.446  0.9093  0.1566 -1.2059
47349SOL    HW252362   4.398   1.171   2.318 -1.8475 -0.4206  0.0436
47350SOL     OW52363  10.708  12.486  12.236  0.8464  0.0217 -0.1750
47350SOL    HW152364  10.634  12.546  12.247 -1.7767 -2.4154 -2.7471
47350SOL    HW252365  10.755  12.520  12.160  0.3597 -0.2315 -0.5957
47351SOL     OW52366   9.879  10.093  10.301  0.5296  0.5690  0.2775
47351SOL    HW152367   9.908  10.001  10.300 -0.9078  0.0694 -1.9340
47351SOL    HW252368   9.956  10.141  10.330  1.2003 -1.3526  1.9613
47352SOL     OW52369   7.228  12.725   2.973 -0.8799 -0.2514  0.1766
47352SOL    HW152370   7.265  12.640   2.997 -0.0939  0.5834  2.2194
47352SOL    HW252371   7.277  12.752   2.896 -1.8622 -2.0657 -1.1535
47353SOL     OW52372   4.172   5.829   7.141 -0.2447 -0.8082  0.1780
47353SOL    HW152373   4.254   5.879   7.141  0.1362 -1.4223  0.6005
47353SOL    HW252374   4.145   5.826   7.233 -1.5129  0.6045 -0.1020
47354SOL     OW52375  11.999   6.337  10.859 -0.3574  0.3334 -0.1455
47354SOL    HW152376  12.089   6.366  10.848 -0.3205  0.1834 -0.2331
47354SOL    HW252377  11.983   6.279  10.784 -1.0838  1.7592 -1.1497
47355SOL     OW52378   3.193  11.153   7.616 -0.9133  0.1936  0.0152
47355SOL    HW152379   3.144  11.124   7.538 -0.9262 -0.1645  0.1541
47355SOL    HW252380   3.201  11.247   7.605  0.3493 -0.0153 -1.1604
47356SOL     OW52381   4.960  12.478   0.066  0.5218 -0.1730  0.0377
47356SOL    HW152382   4.889  12.497   0.129 -0.5367 -1.9367 -0.5595
47356SOL    HW252383   4.928  12.514  -0.016 -0.1958 -1.8485 -0.4588
47357SOL     OW52384   3.857  10.038   4.196 -0.2899 -0.0818  0.6009
47357SOL    HW152385   3.947  10.012   4.175 -0.4086  0.0146 -0.0220
47357SOL    HW252386   3.859  10.054   4.291  0.0859 -1.1273  0.7821
47358SOL     OW52387   2.648   7.028  12.776 -0.6574 -0.1662  0.3928
47358SOL    HW152388   2.580   7.069  12.722 -0.7697 -2.0926 -1.0393
47358SOL    HW252389   2.718   7.007  12.714  0.5584  0.2508  1.5613
47359SOL     OW52390   5.200   0.771  12.602  0.1860 -0.1076 -0.0372
47359SOL    HW152391   5.185   0.676  12.606  0.6613 -0.1561  0.8611
47359SOL    HW252392   5.123   0.805  12.557  0.2400 -0.9714 -0.8216
47360SOL     OW52393  12.414   7.175   2.687 -0.1258  0.0581 -0.2657
47360SOL    HW152394  12.348   7.227   2.640  0.8281  2.1986  0.6283
47360SOL    HW252395  12.412   7.210   2.776  1.9705 -0.0395 -0.1400
47361SOL     OW52396   9.471   2.470  10.793  0.2765  0.4163 -0.0939
47361SOL    HW152397   9.419   2.414  10.736  1.1628  0.8648 -1.3804
47361SOL    HW252398   9.408   2.535  10.827 -0.8744 -1.5419  1.8026
47362SOL     OW52399   4.474  11.543   3.574  0.2889  0.5694  0.3892
47362SOL    HW152400   4.524  11.614   3.534  0.8218  0.5720  1.0367
47362SOL    HW252401   4.537  11.499   3.631 -0.5125  0.7517  1.4514
47363SOL     OW52402   4.950   3.143   4.035 -0.0869  0.1436  0.1807
47363SOL    HW152403   4.986   3.169   4.120 -0.6842  1.1109  0.1577
47363SOL    HW252404   5.016   3.169   3.971 -1.0291  2.5200  0.0787
47364SOL     OW52405   8.941  10.681  12.849 -0.0500 -0.0467 -0.4655
47364SOL    HW152406   8.864  10.692  12.794 -1.0759  1.7809  1.2012
47364SOL    HW252407   8.993  10.760  12.833  0.8345 -0.6501 -0.5958
47365SOL     OW52408   3.898   0.408   9.946  0.2528  0.3711 -0.0892
47365SOL    HW152409   3.905   0.364  10.031  0.6730  0.2943 -0.1613
47365SOL    HW252410   3.979   0.385   9.900  0.1489  0.6303 -0.4099
47366SOL     OW52411   3.606   6.654   2.131  0.2717 -0.0053  0.1545
47366SOL    HW152412   3.568   6.566   2.131 -0.7379  0.3996  1.1671
47366SOL    HW252413   3.587   6.687   2.043 -2.6655  0.5106  0.8594
47367SOL     OW52414   9.486   1.193  12.737  0.3559 -0.2888 -0.6874
47367SOL    HW152415   9.406   1.244  12.727 -0.7939 -1.0901  2.9061
47367SOL    HW252416   9.468   1.111  12.690 -0.8432 -0.3588 -0.1280
47368SOL     OW52417   6.627   3.831   6.451  0.1784 -0.2908  0.5004
47368SOL    HW152418   6.607   3.899   6.516 -2.4395 -0.4311 -0.0602
47368SOL    HW252419   6.652   3.879   6.373  0.7072 -0.0512  0.8117
47369SOL     OW52420   2.883   6.298  11.591 -0.4535  0.0620 -0.2892
47369SOL    HW152421   2.830   6.378  11.582 -0.3259 -0.0601 -2.8556
47369SOL    HW252422   2.936   6.296  11.512  0.6409 -1.8252  0.4418
47370SOL     OW52423   2.889   2.065   5.648  0.0805  0.3000  0.0551
47370SOL    HW152424   2.911   2.118   5.572 -1.1087  0.9194  0.1125
47370SOL    HW252425   2.800   2.034   5.631  0.6287 -1.4573  0.1552
47371SOL     OW52426   2.313   1.235   3.832  0.1605 -0.0639  0.3142
47371SOL    HW152427   2.254   1.182   3.778 -1.1162  0.4449  1.1392
47371SOL    HW252428   2.361   1.172   3.885 -0.0203 -0.4677  0.0055
47372SOL     OW52429   2.461   5.899   3.567 -1.0701  0.5889 -0.3240
47372SOL    HW152430   2.479   5.953   3.644 -1.7596 -0.1498  0.3763
47372SOL    HW252431   2.518   5.823   3.577 -1.1286  0.5103 -0.5771
47373SOL     OW52432  12.978   9.017   7.062  0.0004  0.2493  0.2655
47373SOL    HW152433  13.020   9.062   6.989  1.4977  1.6961  1.9329
47373SOL    HW252434  12.913   8.960   7.021  0.9632  0.8112 -2.1821
47374SOL     OW52435  12.241   2.419   8.993 -0.4616  0.2587 -0.2863
47374SOL    HW152436  12.278   2.331   9.001 -2.1014 -0.4667 -0.2346
47374SOL    HW252437  12.255   2.443   8.902 -1.8735 -0.9575 -0.8554
47375SOL     OW52438   8.271  11.548   3.894  0.1660 -0.3709  0.0982
47375SOL    HW152439   8.279  11.575   3.986 -1.9283 -0.1614  0.2779
47375SOL    HW252440   8.356  11.511   3.872  0.8634 -0.0090  1.9833
47376SOL     OW52441   6.996   9.659   0.890  0.1093 -0.6797  0.1695
47376SOL    HW152442   6.903   9.677   0.903 -0.1240 -1.9224  0.3228
47376SOL    HW252443   7.019   9.708   0.811 -1.1666 -1.9064 -1.0374
47377SOL     OW52444   6.673   1.896   0.268  0.0143  0.4517  0.1949
47377SOL    HW152445   6.721   1.876   0.349  0.3182 -1.8393 -0.4819
47377SOL    HW252446   6.689   1.989   0.253  2.1710  0.3233  1.3442
47378SOL     OW52447  12.270   2.524  10.432  0.8046 -0.3673  0.0827
47378SOL    HW152448  12.207   2.527  10.361  1.2096 -0.9832 -0.3097
47378SOL    HW252449  12.271   2.433  10.460 -0.8537  0.1946  2.2611
47379SOL     OW52450   3.615   2.607   2.710  0.3142  0.0477  0.5748
47379SOL    HW152451   3.651   2.519   2.705 -0.6804 -0.4997  2.2790
47379SOL    HW252452   3.688   2.665   2.687  1.3882 -1.1442  0.8871
47380SOL     OW52453   9.773   8.008  11.269 -0.1597  0.1343  0.5063
47380SOL    HW152454   9.810   8.088  11.232 -3.1722  1.0406 -0.8941
47380SOL    HW252455   9.712   8.038  11.336 -0.7400 -1.0368  0.5360
47381SOL     OW52456   3.110   6.635   9.590  0.2520 -0.1583  0.2189
47381SOL    HW152457   3.165   6.712   9.606 -1.1759  0.8615  0.3627
47381SOL    HW252458   3.098   6.633   9.495  1.1397 -0.8437  0.1014
47382SOL     OW52459   0.038   3.111   0.395 -0.5114 -0.1052  0.4808
47382SOL    HW152460   0.079   3.066   0.469  1.9067  0.5782 -0.3493
47382SOL    HW252461   0.021   3.042   0.331 -0.6692 -0.4075  0.8471
47383SOL     OW52462   3.208   4.745   8.466 -0.5323 -0.0581  0.0874
47383SOL    HW152463   3.144   4.809   8.497  0.2991 -0.0873  2.0697
47383SOL    HW252464   3.289   4.795   8.458  0.1012 -0.7717  1.5571
47384SOL     OW52465  12.670   6.670   3.950  0.2187 -0.1466  0.1552
47384SOL    HW152466  12.640   6.702   4.035 -1.0267 -1.9243  0.4298
47384SOL    HW252467  12.623   6.588   3.937  2.4201 -1.3267 -0.9964
47385SOL     OW52468   3.656   8.573   2.611  0.0623  0.8880  0.1093
47385SOL    HW152469   3.575   8.605   2.572  0.3654  0.3519 -0.9789
47385SOL    HW252470   3.719   8.570   2.539  1.3514  2.2133  1.0986
47386SOL     OW52471   4.804   9.737   7.516  0.2164  0.1821  0.1978
47386SOL    HW152472   4.857   9.761   7.440  0.7690 -1.4828  0.0130
47386SOL    HW252473   4.788   9.820   7.562  0.3435  1.1361 -1.4209
47387SOL     OW52474   4.489  10.141  11.151 -0.7479  0.2807  0.2278
47387SOL    HW152475   4.558  10.206  11.159  0.0541 -0.5313  0.1402
47387SOL    HW252476   4.509  10.077  11.221  0.1923 -1.3672 -1.4425
47388SOL     OW52477   6.692   7.940   4.902  0.6603  0.2031  0.2942
47388SOL    HW152478   6.765   7.975   4.953  1.5688 -0.4403 -0.5207
47388SOL    HW252479   6.675   8.007   4.835  0.8685  0.1163  0.1530
47389SOL     OW52480   0.520   6.310   0.180  0.4655 -0.0809  0.4213
47389SOL    HW152481   0.506   6.379   0.245  0.6417  0.2385  0.1235
47389SOL    HW252482   0.587   6.254   0.219  0.8765  0.3486  0.3272
47390SOL     OW52483   2.863   2.861   5.501  0.1257  0.6288 -0.6410
47390SOL    HW152484   2.809   2.938   5.522 -2.2240 -1.3843  1.4859
47390SOL    HW252485   2.878   2.820   5.586  2.1828 -0.7661 -1.6112
47391SOL     OW52486  10.576   7.225   8.263  0.2323 -0.2475 -0.6020
47391SOL    HW152487  10.574   7.265   8.176  0.6726  0.1024 -0.4577
47391SOL    HW252488  10.527   7.286   8.318  0.7353 -0.0033 -0.4211
47392SOL     OW52489   8.737  11.473   1.764 -0.1653 -0.4411  0.3021
47392SOL    HW152490   8.670  11.407   1.778 -0.2258 -0.6125 -0.7352
47392SOL    HW252491   8.691  11.556   1.770 -0.5260 -0.5620 -0.5829
47393SOL     OW52492   1.474   1.943   1.019 -0.2544  0.0579 -0.1806
47393SOL    HW152493   1.420   1.867   0.998  0.6136 -0.1304 -1.9279
47393SOL    HW252494   1.473   1.947   1.115 -3.6574  0.3514 -0.1070
47394SOL     OW52495   9.809   2.916   6.823 -0.3464 -0.8085 -0.0964
47394SOL    HW152496   9.875   2.846   6.825 -1.8132 -2.3182 -1.1388
47394SOL    HW252497   9.794   2.931   6.730 -0.9193  0.0611  0.1317
47395SOL     OW52498   3.528  10.723   1.321  0.0548 -0.0386  0.4003
47395SOL    HW152499   3.593  10.652   1.322  0.3643  0.2387  0.2788
47395SOL    HW252500   3.444  10.678   1.328  0.1737 -0.5152 -0.9358
47396SOL     OW52501  12.047   7.422   5.998 -0.2866 -0.2322  0.3796
47396SOL    HW152502  12.042   7.478   6.075 -0.8909 -1.3361  1.1663
47396SOL    HW252503  11.967   7.439   5.949 -0.4189 -0.3229  0.5640
47397SOL     OW52504   4.852   8.929   4.645  0.4355 -0.2401 -0.0453
47397SOL    HW152505   4.832   9.015   4.609  0.7264 -0.0509  0.2389
47397SOL    HW252506   4.897   8.948   4.728 -1.0557 -0.6541  0.8935
47398SOL     OW52507   2.963  12.007   8.449 -0.0724 -0.0978  0.0220
47398SOL    HW152508   2.998  11.918   8.451  0.3505  0.0013 -1.4783
47398SOL    HW252509   3.019  12.057   8.509 -0.8507 -0.9942  1.5493
47399SOL     OW52510   9.802   6.920   3.041  0.2754  0.0901 -0.4098
47399SOL    HW152511   9.778   6.943   3.131  0.7645 -0.0668 -0.2396
47399SOL    HW252512   9.843   6.834   3.048 -0.1154 -0.1407 -0.8488
47400SOL     OW52513   2.359  10.671   7.539 -0.2267  0.5182 -0.7358
47400SOL    HW152514   2.294  10.639   7.477  0.5085 -2.5711 -0.0660
47400SOL    HW252515   2.310  10.726   7.600 -2.8126 -3.1624  0.8806
47401SOL     OW52516  12.800  11.282   3.309  0.5609  0.0986  0.0233
47401SOL    HW152517  12.756  11.201   3.285 -1.2128  0.7879  0.6695
47401SOL    HW252518  12.893  11.265   3.298  0.1099 -1.1359 -2.4474
47402SOL     OW52519   7.223   5.122   6.393  0.0433  0.2731  0.6576
47402SOL    HW152520   7.307   5.088   6.421  0.3303  1.6466  1.5812
47402SOL    HW252521   7.244   5.185   6.324 -0.3177 -0.1172  0.1875
47403SOL     OW52522  12.492   6.117   8.159  0.1051 -0.2220  0.3781
47403SOL    HW152523  12.402   6.087   8.144  0.4802 -1.1667 -0.0518
47403SOL    HW252524  12.502   6.191   8.099 -0.3783 -0.1255  0.4114
47404SOL     OW52525  10.609  11.026   0.314  0.2321  0.1690  0.4851
47404SOL    HW152526  10.684  10.999   0.261  0.2998  0.8034  0.2474
47404SOL    HW252527  10.647  11.052   0.398 -0.0113 -2.1902  1.3938
47405SOL     OW52528   0.079   6.042   1.616  0.0106  0.2401  0.1338
47405SOL    HW152529   0.109   5.973   1.675  3.4267  1.6875  0.3083
47405SOL    HW252530   0.079   6.000   1.530  1.4005 -0.2418  0.3298
47406SOL     OW52531   9.219   1.012   0.642 -0.5092 -0.2119 -0.0804
47406SOL    HW152532   9.212   1.053   0.556  0.5652  1.3430  0.5342
47406SOL    HW252533   9.189   1.078   0.704  0.0946 -0.7832  0.8541
47407SOL     OW52534   4.698  12.635   3.363 -0.3499 -0.1772  0.0325
47407SOL    HW152535   4.722  12.711   3.310  3.1594 -0.0634  1.4883
47407SOL    HW252536   4.687  12.671   3.452 -3.7146 -0.7248 -0.0111
47408SOL     OW52537   3.311   6.317   1.237  0.1229 -0.2147 -0.1735
47408SOL    HW152538   3.245   6.343   1.301  0.9740 -2.0732  1.5459
47408SOL    HW252539   3.365   6.252   1.282  2.8429  0.8363 -1.6609
47409SOL     OW52540   5.438   4.566   7.812 -0.4094 -0.2967  0.1402
47409SOL    HW152541   5.455   4.496   7.874 -0.0785 -0.2072  0.1528
47409SOL    HW252542   5.496   4.549   7.739  1.5235  1.3125  1.1965
47410SOL     OW52543   5.375  11.763   9.861  0.1468  0.3427 -0.5978
47410SOL    HW152544   5.338  11.849   9.882 -1.0005 -0.4947  0.9962
47410SOL    HW252545   5.304  11.701   9.876  1.6232 -1.1389  0.6746
47411SOL     OW52546   2.751  12.065  10.692 -0.5243  0.1302  0.0803
47411SOL    HW152547   2.808  12.001  10.650 -0.8479 -0.8479  1.0972
47411SOL    HW252548   2.796  12.149  10.678  0.5769 -0.4697 -0.1150
47412SOL     OW52549   4.025   0.246   8.373 -0.2040  0.4570  0.2594
47412SOL    HW152550   4.099   0.197   8.409  1.8690  2.1383 -1.4157
47412SOL    HW252551   4.034   0.333   8.410 -1.6773  0.5769  0.3894
47413SOL     OW52552   7.345   7.785   4.645 -0.3383  0.2826  0.2945
47413SOL    HW152553   7.356   7.877   4.667 -0.0902 -0.1580  2.1840
47413SOL    HW252554   7.255   7.764   4.673 -1.1849  0.4275 -2.0991
47414SOL     OW52555   7.381  11.975   2.170 -0.5308 -0.1003 -0.0240
47414SOL    HW152556   7.443  12.033   2.126  0.3907 -1.2358 -0.3013
47414SOL    HW252557   7.357  12.021   2.250 -1.7788  1.7421 -1.3717
47415SOL     OW52558   9.127   1.944  11.159  0.2569  0.6077 -0.2976
47415SOL    HW152559   9.189   1.935  11.086 -0.1503  0.6427 -0.6488
47415SOL    HW252560   9.064   1.874  11.146  0.1060  0.6959 -0.0491
47416SOL     OW52561   5.779   4.540   8.736  0.0331 -0.2408 -0.0758
47416SOL    HW152562   5.750   4.625   8.702  0.2807 -0.7465 -1.6131
47416SOL    HW252563   5.828   4.501   8.664  1.2539 -1.0459  1.1562
47417SOL     OW52564  12.390   3.273  12.982 -0.2840 -0.2199 -0.1114
47417SOL    HW152565  12.309   3.273  12.930 -0.3549 -1.3845 -0.0202
47417SOL    HW252566  12.459   3.292  12.918 -0.4747 -0.6851 -0.4646
47418SOL     OW52567   2.388   1.732   3.986 -0.2465 -0.2020 -0.3635
47418SOL    HW152568   2.391   1.648   3.940  1.6830  0.0450 -0.8001
47418SOL    HW252569   2.383   1.708   4.079 -0.5352 -0.7834 -0.5230
47419SOL     OW52570  11.681  11.901   2.899 -0.0778  0.3164 -0.4372
47419SOL    HW152571  11.763  11.862   2.869 -0.7606 -0.9864 -0.6584
47419SOL    HW252572  11.617  11.830   2.895 -1.5579  1.6310 -1.6131
47420SOL     OW52573   0.985   7.036  10.004 -0.5473 -0.2388  0.5950
47420SOL    HW152574   0.964   7.121   9.965  0.8105  0.5149  1.4107
47420SOL    HW252575   0.924   7.027  10.076  0.4390  0.9332  1.6361
47421SOL     OW52576   5.355  10.717   3.970 -0.1997 -0.5581  0.6816
47421SOL    HW152577   5.435  10.768   3.960  0.7185 -1.6489  2.0049
47421SOL    HW252578   5.293  10.756   3.909  0.7912  1.4296  0.8810
47422SOL     OW52579   4.046  12.614   3.241 -0.3221 -0.2212 -0.1527
47422SOL    HW152580   3.978  12.672   3.207 -0.3249  0.8009  1.4998
47422SOL    HW252581   4.004  12.567   3.313  1.0553  1.5227  1.9066
47423SOL     OW52582   6.552  10.429   4.742  0.3554  0.1678 -0.2496
47423SOL    HW152583   6.471  10.440   4.693  0.4192  1.5870 -0.0722
47423SOL    HW252584   6.600  10.362   4.694 -1.1837 -1.1833  0.0190
47424SOL     OW52585   0.949   1.222   0.299  0.3094  0.2904  0.2226
47424SOL    HW152586   0.858   1.197   0.318  1.0047 -1.2995  1.6274
47424SOL    HW252587   1.001   1.179   0.366  2.2990 -0.1293 -1.4775
47425SOL     OW52588   2.353   2.357   1.711 -0.5766  0.2193  0.0191
47425SOL    HW152589   2.333   2.398   1.627 -0.5430  0.6737  0.2306
47425SOL    HW252590   2.288   2.287   1.720  0.7917 -1.3311 -1.4295
47426SOL     OW52591   5.860   2.634   3.503  0.9716 -0.2725  0.1032
47426SOL    HW152592   5.884   2.596   3.587 -2.0162 -0.9360  0.7471
47426SOL    HW252593   5.852   2.559   3.444 -2.0342 -0.4865  0.6355
47427SOL     OW52594   5.815   0.285   1.913 -0.8675  0.0626 -0.0495
47427SOL    HW152595   5.871   0.210   1.891 -0.6154  0.5693 -1.2493
47427SOL    HW252596   5.793   0.273   2.005  0.1436 -0.8504  0.0917
47428SOL     OW52597  10.296  12.873   1.088 -0.2114 -0.0389 -0.0347
47428SOL    HW152598  10.322  12.792   1.133  1.0185  0.3309 -0.0334
47428SOL    HW252599  10.296  12.939   1.157 -2.6351 -0.2667  0.2627
47429SOL     OW52600  10.504   7.732   3.551 -0.2638  0.0830  0.5918
47429SOL    HW152601  10.449   7.653   3.554 -1.2370  0.3037 -4.3376
47429SOL    HW252602  10.443   7.804   3.567 -0.4239  0.0752  0.0276
47430SOL     OW52603   8.724  10.913   5.088  0.0560  0.6915 -0.2835
47430SOL    HW152604   8.633  10.885   5.076 -0.7900  2.5235  1.4334
47430SOL    HW252605   8.775  10.840   5.052 -2.0563 -0.5452 -1.0051
47431SOL     OW52606   2.750  11.588   9.715 -0.6475 -0.2318 -0.1394
47431SOL    HW152607   2.767  11.532   9.791 -0.0627 -1.7399 -1.3278
47431SOL    HW252608   2.836  11.617   9.687 -0.6427 -1.3243 -1.3759
47432SOL     OW52609  11.417   2.210   4.960 -0.0825  0.1424  0.1635
47432SOL    HW152610  11.419   2.116   4.978 -1.2607  0.0387 -0.1652
47432SOL    HW252611  11.489   2.223   4.898 -1.7502 -1.1122 -2.2009
47433SOL     OW52612   9.672  12.206   1.500  0.2157 -0.1113 -0.2779
47433SOL    HW152613   9.698  12.238   1.414 -0.4283 -0.7428 -0.7214
47433SOL    HW252614   9.671  12.284   1.555 -0.8709  0.5689 -1.2226
47434SOL     OW52615   2.000   0.132   3.582 -0.3959  0.2381  0.8013
47434SOL    HW152616   1.940   0.204   3.561 -0.8172 -0.5123 -0.6549
47434SOL    HW252617   1.944   0.054   3.586  0.1946 -0.1703  1.4341
47435SOL     OW52618   1.258   5.573   1.921 -0.0704 -0.1179  0.0279
47435SOL    HW152619   1.331   5.595   1.863  0.4248 -0.0390  0.6719
47435SOL    HW252620   1.187   5.629   1.892  0.3498  0.3383 -0.1306
47436SOL     OW52621   5.553   0.699   8.949 -0.2782  0.3673 -0.6422
47436SOL    HW152622   5.527   0.638   8.880  0.6536 -0.3332 -0.3887
47436SOL    HW252623   5.523   0.785   8.917 -0.0442  0.0299 -1.8268
47437SOL     OW52624   4.385   7.522   9.728 -0.2177  0.3598  0.2402
47437SOL    HW152625   4.416   7.448   9.781 -1.2026  0.8390  1.5587
47437SOL    HW252626   4.330   7.572   9.788  1.0964  2.6603 -0.3395
47438SOL     OW52627   8.263  12.467   3.085  0.2310  0.4218  0.0995
47438SOL    HW152628   8.212  12.386   3.084  0.0155  0.5451  0.7479
47438SOL    HW252629   8.221  12.522   3.151  0.1480  1.2180 -0.6024
47439SOL     OW52630   6.758   0.380   8.544  0.3069  0.3914 -0.4683
47439SOL    HW152631   6.836   0.325   8.552 -0.1709 -0.2948 -0.4570
47439SOL    HW252632   6.789   0.459   8.500  1.0534  0.2234 -0.2627
47440SOL     OW52633  11.510   7.111   7.628  0.0987  0.1165  0.1797
47440SOL    HW152634  11.513   7.036   7.569  0.7939  1.1495 -1.1592
47440SOL    HW252635  11.417   7.129   7.639 -0.0448 -0.0441 -0.6843
47441SOL     OW52636   2.577   8.760   8.883 -0.3890 -0.3489  0.6961
47441SOL    HW152637   2.631   8.761   8.804  0.6745  1.8709  1.3659
47441SOL    HW252638   2.619   8.697   8.940  0.7208  0.3481  0.6750
47442SOL     OW52639   1.260   1.426   9.849  0.1095  0.6075  0.6700
47442SOL    HW152640   1.297   1.343   9.820 -2.7185 -0.4445 -0.3321
47442SOL    HW252641   1.284   1.488   9.779 -1.6100 -0.5259 -1.0411
47443SOL     OW52642   1.235   3.047   6.490 -0.0532  0.3840  0.1185
47443SOL    HW152643   1.167   3.114   6.484  0.8412  1.2076 -1.0788
47443SOL    HW252644   1.231   3.017   6.581 -0.6354  1.8650  0.6020
47444SOL     OW52645  12.804   7.820   3.956 -0.4807  0.0254 -0.9199
47444SOL    HW152646  12.815   7.780   4.042  1.7607  2.4967  0.0937
47444SOL    HW252647  12.710   7.835   3.948 -0.9095 -1.6119  0.3977
47445SOL     OW52648  12.787   4.800   8.247  0.7206 -1.0045 -0.1269
47445SOL    HW152649  12.733   4.770   8.173 -1.3380 -0.5331  1.1171
47445SOL    HW252650  12.801   4.893   8.230  1.4704 -1.1929 -0.6118
47446SOL     OW52651   1.383   4.607   0.028 -0.2309  0.8579 -0.0552
47446SOL    HW152652   1.419   4.527  -0.010  0.3083  1.5054 -0.9436
47446SOL    HW252653   1.350   4.657  -0.047 -1.7285  0.9168  0.6054
47447SOL     OW52654   7.422  11.118  10.262 -0.2249  0.3372 -0.0264
47447SOL    HW152655   7.375  11.167  10.329 -1.8234 -0.2756 -0.6563
47447SOL    HW252656   7.361  11.050  10.235  1.8315 -1.9442  0.6960
47448SOL     OW52657   5.077  11.321   1.971 -0.3643 -0.8104 -0.1597
47448SOL    HW152658   5.016  11.394   1.973 -0.5663 -0.9611 -0.7657
47448SOL    HW252659   5.076  11.286   2.060 -1.7001 -1.2542 -0.3314
47449SOL     OW52660   1.272   0.171   1.238  0.3841 -0.5237 -0.0995
47449SOL    HW152661   1.256   0.151   1.146 -1.4522  0.1572  0.0343
47449SOL    HW252662   1.187   0.197   1.273  0.8519 -1.5458  2.0152
47450SOL     OW52663   8.672   7.330   5.385  0.0924  0.4116 -0.1587
47450SOL    HW152664   8.647   7.417   5.353 -1.1466 -0.3880 -1.4707
47450SOL    HW252665   8.691   7.280   5.306  1.9386 -0.2271  0.6164
47451SOL     OW52666   1.503   1.189  12.509 -0.3899 -0.7715  0.2354
47451SOL    HW152667   1.525   1.205  12.418 -0.6125  0.5667  0.3974
47451SOL    HW252668   1.443   1.114  12.506 -0.1463 -0.9402 -0.6815
47452SOL     OW52669   5.012   1.017  11.524  0.1861  0.0477 -0.0630
47452SOL    HW152670   4.980   1.026  11.614  0.8654 -4.2177  0.8544
47452SOL    HW252671   5.105   1.040  11.530  0.0140  0.7056  0.1012
47453SOL     OW52672   8.393  10.012   4.788  0.2541 -0.0968 -0.2609
47453SOL    HW152673   8.414   9.955   4.714 -2.1763 -1.7561  0.1875
47453SOL    HW252674   8.335   9.959   4.843 -2.2509  2.8221  0.1703
47454SOL     OW52675  12.502   8.230   5.039 -0.1065 -0.0826 -0.0957
47454SOL    HW152676  12.594   8.224   5.014 -0.5220  0.9927 -2.1771
47454SOL    HW252677  12.460   8.156   4.995 -0.4557  0.3278 -0.4665
47455SOL     OW52678   1.240   1.786   4.831 -0.0488 -0.5535 -0.2348
47455SOL    HW152679   1.163   1.729   4.821 -1.4126  0.6303  2.3592
47455SOL    HW252680   1.305   1.729   4.873 -0.4260 -0.9327 -0.1468
47456SOL     OW52681  12.015   8.777  10.843  0.2147 -0.1549 -0.5513
47456SOL    HW152682  12.059   8.694  10.860  1.4858  0.3617 -1.1629
47456SOL    HW252683  11.940   8.778  10.903 -0.6479 -2.3327 -1.4638
47457SOL     OW52684  12.826   0.368  12.463  0.1296 -0.3507 -0.0771
47457SOL    HW152685  12.898   0.430  12.477 -0.6416  0.2715  1.3238
47457SOL    HW252686  12.817   0.362  12.368  2.6137 -1.1421 -0.3380
47458SOL     OW52687  10.051   5.946   2.436 -0.5311 -0.0172 -0.2638
47458SOL    HW152688  10.002   6.026   2.418 -1.4744 -0.5727 -0.2621
47458SOL    HW252689  10.027   5.886   2.365  1.0707  0.0773 -0.9163
47459SOL     OW52690   5.446   2.603  11.868  0.0398 -0.2606 -0.0714
47459SOL    HW152691   5.386   2.608  11.793 -0.1664 -1.8417 -0.0502
47459SOL    HW252692   5.457   2.509  11.883  2.3370 -0.0085  0.1032
47460SOL     OW52693   8.286   7.941   7.299  0.0490 -0.0316  1.2357
47460SOL    HW152694   8.296   7.933   7.394  0.3938 -1.5048  1.0927
47460SOL    HW252695   8.259   8.032   7.286 -1.0668 -0.0837  2.8343
47461SOL     OW52696   8.682   1.157   2.263 -0.1221 -0.3109 -0.8853
47461SOL    HW152697   8.634   1.144   2.345  1.3087  0.2628  0.0759
47461SOL    HW252698   8.729   1.240   2.275  0.5271 -0.4760 -2.0919
47462SOL     OW52699   7.036  12.534   4.448 -0.2639  0.2692 -0.4329
47462SOL    HW152700   6.962  12.562   4.501  0.1445 -0.0977  0.3597
47462SOL    HW252701   7.104  12.511   4.512 -0.3313 -1.8165 -1.0377
47463SOL     OW52702   7.078  11.055   1.160 -0.2411 -0.0482 -0.0587
47463SOL    HW152703   7.105  10.965   1.176  1.3466  0.3661 -0.2394
47463SOL    HW252704   7.130  11.107   1.221 -0.9586  0.7686 -0.1250
47464SOL     OW52705   5.018  11.078   7.441 -0.0105 -0.1107  0.3345
47464SOL    HW152706   5.018  11.173   7.443  0.5978 -0.0479 -1.0479
47464SOL    HW252707   5.016  11.056   7.348  0.8544 -1.4290  0.5888
47465SOL     OW52708  12.841   8.828   4.303  0.5805 -0.5245 -0.6345
47465SOL    HW152709  12.834   8.742   4.261  0.8559  0.0539 -1.9050
47465SOL    HW252710  12.882   8.884   4.237  1.2853  0.3581  0.5098
47466SOL     OW52711  10.267   2.091   0.498  0.2805 -0.3618 -0.5934
47466SOL    HW152712  10.198   2.040   0.540 -0.8673  1.9022  0.4531
47466SOL    HW252713  10.345   2.036   0.505 -0.4738 -1.2614  2.1073
47467SOL     OW52714   2.940   0.603   8.949  0.5878 -0.2701  0.1213
47467SOL    HW152715   2.889   0.522   8.940  1.5392 -0.7549 -1.4078
47467SOL    HW252716   2.969   0.622   8.860  0.2369  1.8810  0.4326
47468SOL     OW52717   5.343   4.365   4.361  0.3846  1.1803 -0.8917
47468SOL    HW152718   5.314   4.440   4.310  0.6666  0.5123 -2.0603
47468SOL    HW252719   5.391   4.310   4.299 -0.7250 -0.4914 -0.3388
47469SOL     OW52720  11.470   3.879  12.038 -0.0231  0.0755  0.2928
47469SOL    HW152721  11.433   3.790  12.033 -0.0709  0.1268 -0.4125
47469SOL    HW252722  11.519   3.880  12.120  0.2881 -0.7255  0.1232
47470SOL     OW52723   1.574   0.598  11.823 -0.1766  0.0553 -0.4068
47470SOL    HW152724   1.507   0.657  11.788 -1.2044 -0.8828 -0.0730
47470SOL    HW252725   1.550   0.512  11.790  0.4939 -0.3934  0.2536
47471SOL     OW52726   3.754   6.160   9.245 -0.0752  0.5952 -0.1408
47471SOL    HW152727   3.695   6.178   9.172 -0.8314  0.7320  0.4950
47471SOL    HW252728   3.801   6.080   9.218 -0.4759  0.5370 -0.6905
47472SOL     OW52729   4.619   1.514   7.986  0.2700 -0.7077  0.1980
47472SOL    HW152730   4.559   1.563   7.930 -0.2803 -0.1565  1.2408
47472SOL    HW252731   4.593   1.423   7.975  0.2505 -0.6245 -0.5228
47473SOL     OW52732   1.216   0.882   3.287  0.3433 -0.2000 -0.4783
47473SOL    HW152733   1.179   0.920   3.207  0.1871  0.2236 -0.2085
47473SOL    HW252734   1.262   0.954   3.329  2.7740 -1.0267 -1.5308
47474SOL     OW52735   4.722   9.350  12.063 -0.2110 -0.7245 -0.5638
47474SOL    HW152736   4.641   9.318  12.025  1.1471 -1.2892 -3.2616
47474SOL    HW252737   4.762   9.403  11.994 -0.8519  4.4884  2.5948
47475SOL     OW52738   5.353  11.672   5.289 -0.1168 -0.0112  0.7843
47475SOL    HW152739   5.293  11.657   5.215 -1.3908  1.1409  1.5402
47475SOL    HW252740   5.402  11.590   5.296  1.6414  0.5306 -2.7001
47476SOL     OW52741   7.957   5.130   6.708  0.1548 -0.5204  0.3804
47476SOL    HW152742   7.970   5.148   6.801  2.1302  0.5674 -0.0576
47476SOL    HW252743   8.004   5.200   6.663  2.2216 -2.9004 -1.4436
47477SOL     OW52744  10.267   9.125   8.785 -0.2010 -0.1161 -0.7039
47477SOL    HW152745  10.226   9.115   8.871 -0.9215  2.0038 -0.7489
47477SOL    HW252746  10.361   9.123   8.802 -0.2887 -2.0202 -0.2076
47478SOL     OW52747  12.984   3.017   0.862 -0.3670 -0.2182  0.1143
47478SOL    HW152748  12.902   3.010   0.814 -0.0514  1.5813 -0.7795
47478SOL    HW252749  13.048   2.969   0.809 -0.2883  0.7059 -0.6616
47479SOL     OW52750  11.468   9.109   3.384 -0.3798 -0.9793 -0.1051
47479SOL    HW152751  11.420   9.027   3.369 -0.9310 -0.6805 -0.0352
47479SOL    HW252752  11.467   9.119   3.480  1.6158 -2.0036  0.0599
47480SOL     OW52753   3.032   3.956   6.154  0.0242 -0.2050 -0.2995
47480SOL    HW152754   3.022   3.970   6.248 -1.5618 -1.1333 -0.2978
47480SOL    HW252755   3.086   3.878   6.147 -0.5404 -0.6215 -0.1244
47481SOL     OW52756   3.823   9.550  12.183  0.5186 -0.1642 -0.0114
47481SOL    HW152757   3.884   9.496  12.233 -1.1349 -2.0832  0.0513
47481SOL    HW252758   3.765   9.589  12.249  0.6790  0.3767 -0.1840
47482SOL     OW52759   9.348   5.726   4.090  0.3055  0.6727 -0.6467
47482SOL    HW152760   9.312   5.646   4.128  1.1296  0.3686 -0.4687
47482SOL    HW252761   9.344   5.711   3.995  0.7542  0.2728 -0.6080
47483SOL     OW52762   0.398  11.327   5.003  0.1218 -0.2474 -0.1343
47483SOL    HW152763   0.322  11.383   5.015  0.7320  0.5331  0.1409
47483SOL    HW252764   0.435  11.353   4.919  1.0919  0.6225  0.5293
47484SOL     OW52765   6.127  12.688   0.682  0.3041 -0.7893 -0.2595
47484SOL    HW152766   6.052  12.695   0.622 -1.2629 -1.9267  1.4575
47484SOL    HW252767   6.202  12.671   0.625 -0.7585  0.2275 -2.0335
47485SOL     OW52768   5.833   6.532   7.236 -0.1468 -0.0399  0.3709
47485SOL    HW152769   5.884   6.580   7.300  0.3342  0.0129 -0.0489
47485SOL    HW252770   5.861   6.567   7.151 -1.9340  1.0413  0.1823
47486SOL     OW52771   3.884  11.380   3.148 -0.3503  0.1002  0.7492
47486SOL    HW152772   3.916  11.329   3.074 -0.6233  0.6505  0.2414
47486SOL    HW252773   3.866  11.467   3.112 -0.8666  0.2658  1.3694
47487SOL     OW52774  10.589   9.164   4.179 -0.0886 -0.7001  0.2422
47487SOL    HW152775  10.664   9.223   4.168 -0.0633 -0.5428  1.1172
47487SOL    HW252776  10.552   9.154   4.092 -0.8006  1.5648  0.2163
47488SOL     OW52777   7.689   9.242  11.265  0.0840 -0.2146 -0.0308
47488SOL    HW152778   7.740   9.221  11.344  1.0800 -2.9700 -1.2857
47488SOL    HW252779   7.751   9.288  11.208  0.0351 -0.1942 -0.0668
47489SOL     OW52780   4.983   2.808   8.901  0.0266 -0.2897  0.4778
47489SOL    HW152781   4.987   2.866   8.977  1.7046 -2.1265  1.9055
47489SOL    HW252782   5.052   2.743   8.916 -1.8405 -2.7886 -0.9093
47490SOL     OW52783   5.613   2.806  11.812 -0.6660  0.1116  0.1119
47490SOL    HW152784   5.615   2.884  11.867  0.8765 -0.0493  0.3272
47490SOL    HW252785   5.551   2.747  11.856 -0.9891  0.7733  0.5509
47491SOL     OW52786  12.834   6.675   0.015  0.3886  0.2127 -0.6147
47491SOL    HW152787  12.808   6.609   0.080 -0.5328  0.8937 -0.2666
47491SOL    HW252788  12.836   6.626  -0.068 -2.4382  0.1325 -0.7355
47492SOL     OW52789  12.001   3.598   8.639  0.3524  0.2450  0.6219
47492SOL    HW152790  12.001   3.578   8.733 -0.2376 -0.5977  0.4512
47492SOL    HW252791  11.986   3.692   8.635  0.0677  0.2417  1.3638
47493SOL     OW52792   6.641  10.878   3.205 -0.3003  0.0268 -0.4814
47493SOL    HW152793   6.591  10.798   3.219  0.2140 -0.3850 -0.9800
47493SOL    HW252794   6.661  10.878   3.112  0.2597  0.4104 -0.3636
47494SOL     OW52795   8.774   7.738   1.762  0.0539 -0.9546  0.6873
47494SOL    HW152796   8.771   7.662   1.703  0.6345  0.3939 -1.1606
47494SOL    HW252797   8.780   7.700   1.849 -1.1926 -3.0509 -0.0601
47495SOL     OW52798  10.737   0.938  11.636 -0.5058 -0.2811 -0.1050
47495SOL    HW152799  10.722   0.931  11.730 -0.3521 -1.4245 -0.1578
47495SOL    HW252800  10.654   0.973  11.601 -0.7097 -0.2602  0.3946
47496SOL     OW52801   8.841   7.132   6.925 -0.6006  0.1098  0.1419
47496SOL    HW152802   8.890   7.051   6.939 -0.7525  0.1942  1.2572
47496SOL    HW252803   8.873   7.165   6.841  0.7558 -0.1968  0.5080
47497SOL     OW52804   2.915   7.251   6.444  0.2894  0.2672 -0.3862
47497SOL    HW152805   2.893   7.183   6.508  0.6287  1.0413  0.5818
47497SOL    HW252806   2.830   7.279   6.409  0.2036 -1.3356 -1.5528
47498SOL     OW52807  10.335   4.886  11.874 -0.7974  0.2322  0.0374
47498SOL    HW152808  10.278   4.896  11.951  0.7166 -0.9889  1.4042
47498SOL    HW252809  10.381   4.804  11.890  0.2806  0.4416 -1.7451
47499SOL     OW52810   9.052  12.374   1.265  0.0417  0.7704  0.2564
47499SOL    HW152811   9.083  12.351   1.353  2.3446  1.9342 -0.1509
47499SOL    HW252812   8.960  12.396   1.277  0.5608  2.0253  2.6506
47500SOL     OW52813   9.926   2.178   9.137 -0.6950 -0.2813  0.1982
47500SOL    HW152814   9.932   2.187   9.042 -0.2982 -0.2992  0.2192
47500SOL    HW252815   9.872   2.251   9.165 -0.4978 -0.0583 -0.0010
47501SOL     OW52816   8.036   7.896   6.645 -0.1631  0.0731  0.3253
47501SOL    HW152817   8.021   7.962   6.576  0.1152 -0.6483 -0.4479
47501SOL    HW252818   7.949   7.867   6.670 -0.2504 -0.0669 -0.1328
47502SOL     OW52819  10.799   3.975   5.530  0.7445 -0.0835 -0.0252
47502SOL    HW152820  10.716   3.942   5.566  0.8528  0.7644  1.0681
47502SOL    HW252821  10.842   3.898   5.494 -0.0565 -0.7186  0.3279
47503SOL     OW52822   8.158   5.206   1.078 -1.1057 -0.3127 -0.1060
47503SOL    HW152823   8.107   5.234   1.002 -0.6976 -0.8809 -0.6038
47503SOL    HW252824   8.139   5.112   1.086 -0.6707 -0.3828  0.1187
47504SOL     OW52825   1.015   8.647  10.264  0.0026  0.0727 -0.5447
47504SOL    HW152826   1.014   8.570  10.207 -0.3281  0.9730 -1.7789
47504SOL    HW252827   0.923   8.665  10.282  0.1191 -0.5533  0.7869
47505SOL     OW52828   9.611   1.065   0.378  0.1113  0.4699  0.0431
47505SOL    HW152829   9.552   0.993   0.398  0.5401 -0.0500 -0.5189
47505SOL    HW252830   9.698   1.030   0.397  0.2674  1.1018  0.5114
47506SOL     OW52831   9.266  10.027   4.461  0.1633  0.1003 -0.4616
47506SOL    HW152832   9.352  10.022   4.502 -0.3771  0.2168  0.7372
47506SOL    HW252833   9.205  10.004   4.531 -0.8143  0.5674 -1.1410
47507SOL     OW52834  12.416   1.449   2.340 -0.4478  0.3835  0.0900
47507SOL    HW152835  12.463   1.385   2.287 -1.9726 -0.4173 -0.3509
47507SOL    HW252836  12.430   1.532   2.295 -2.3984 -0.3886 -2.1669
47508SOL     OW52837   3.168  10.492   3.718 -0.5303 -0.1094  0.6215
47508SOL    HW152838   3.135  10.457   3.800  1.4134 -1.0490  1.0770
47508SOL    HW252839   3.190  10.583   3.737 -1.7162  0.1957  0.6164
47509SOL     OW52840   7.251   0.518   8.036 -0.0664 -0.3882  0.1519
47509SOL    HW152841   7.276   0.491   7.948  1.9729 -0.5853  0.7371
47509SOL    HW252842   7.305   0.464   8.094  0.4646  1.4221  1.4434
47510SOL     OW52843   3.170   2.312   3.101 -0.1346  0.2493 -0.5488
47510SOL    HW152844   3.224   2.359   3.038  0.0284  0.3095 -0.3672
47510SOL    HW252845   3.093   2.369   3.113 -0.7964 -0.3778 -1.6690
47511SOL     OW52846   6.483  10.246   1.420 -0.0376  0.0553  0.2662
47511SOL    HW152847   6.520  10.250   1.332 -0.8939  2.1577 -0.0483
47511SOL    HW252848   6.538  10.303   1.473 -0.4920  0.0892  0.7135
47512SOL     OW52849  11.187   1.962   4.038  0.4026  0.1964 -0.0099
47512SOL    HW152850  11.217   1.969   4.129  0.5393 -0.0512 -0.0349
47512SOL    HW252851  11.244   1.896   3.999  0.9489  0.9659 -0.5336
47513SOL     OW52852   8.898   3.480   3.238 -0.0825  0.1500  0.0703
47513SOL    HW152853   8.958   3.461   3.310 -0.6536 -0.6644  0.3456
47513SOL    HW252854   8.947   3.540   3.181  1.1407 -0.8042  0.0717
47514SOL     OW52855   9.704   1.099   4.853 -0.0691 -0.3197 -0.1389
47514SOL    HW152856   9.644   1.042   4.805 -0.0150 -0.2934 -0.2389
47514SOL    HW252857   9.790   1.080   4.815  0.1763 -1.2605  0.8631
47515SOL     OW52858   8.098   4.753   3.156 -0.4429  0.0790 -0.4805
47515SOL    HW152859   8.127   4.782   3.069 -0.5135  1.1793 -0.1564
47515SOL    HW252860   8.010   4.790   3.166 -0.7203 -0.6365 -0.2194
47516SOL     OW52861   0.390   7.056   6.257  0.7271  0.3086 -0.1014
47516SOL    HW152862   0.445   7.128   6.223  0.3639  1.2912  1.3119
47516SOL    HW252863   0.314   7.100   6.295  1.0661 -0.7361  1.8807
47517SOL     OW52864   8.118  10.928   8.341  0.5164 -0.0160  0.2156
47517SOL    HW152865   8.183  10.956   8.405  1.9225  0.0858 -1.2023
47517SOL    HW252866   8.167  10.915   8.260 -1.2095 -0.0755 -0.8827
47518SOL     OW52867   8.162  11.330   0.705  0.1568  0.5068 -0.0449
47518SOL    HW152868   8.198  11.418   0.691 -1.5607  1.4185  0.9550
47518SOL    HW252869   8.148  11.297   0.616 -0.6429  1.8968 -0.4769
47519SOL     OW52870   7.829   6.185   7.842 -0.6682  0.6390  0.9524
47519SOL    HW152871   7.800   6.211   7.929  0.6166  0.8521  1.3325
47519SOL    HW252872   7.897   6.247   7.819 -0.2604 -0.0473  0.2400
47520SOL     OW52873   9.821   1.428  11.845  0.2471  0.6518  0.1297
47520SOL    HW152874   9.725   1.430  11.840  0.2858  0.5083 -0.9265
47520SOL    HW252875   9.850   1.475  11.766  1.0419 -1.7884 -1.1303
47521SOL     OW52876   7.054   7.414   6.998  0.3409 -0.4991  0.2545
47521SOL    HW152877   7.147   7.408   6.980  0.2177 -3.3060  0.2059
47521SOL    HW252878   7.011   7.391   6.916 -0.3391 -1.7766  0.9409
47522SOL     OW52879   2.557  11.875   6.169 -0.2004 -0.0723  0.3237
47522SOL    HW152880   2.558  11.792   6.122  0.4178 -0.0272  0.2479
47522SOL    HW252881   2.648  11.888   6.197  0.2906  1.8076 -1.8237
47523SOL     OW52882   7.423  11.642  10.899  0.2224 -0.0275 -0.0732
47523SOL    HW152883   7.472  11.568  10.936  0.7702 -0.2501 -1.2004
47523SOL    HW252884   7.489  11.709  10.884 -0.4528  1.2595  2.1728
47524SOL     OW52885   1.994   5.527   1.622 -0.4122 -0.4622  0.4525
47524SOL    HW152886   2.066   5.539   1.685  1.0607 -0.5643 -1.1512
47524SOL    HW252887   2.037   5.520   1.537 -2.4352  1.2495 -0.8062
47525SOL     OW52888  12.264   8.539   6.265  0.6339  0.5792  0.5736
47525SOL    HW152889  12.248   8.632   6.248  3.9323  1.2256  0.4110
47525SOL    HW252890  12.234   8.495   6.185  2.4850  2.0000 -1.0218
47526SOL     OW52891   3.759   1.489   7.025 -0.1026 -0.4433  0.2035
47526SOL    HW152892   3.713   1.479   7.108  3.2467  0.3426  2.3145
47526SOL    HW252893   3.848   1.459   7.042  0.8657  0.1699 -3.0052
47527SOL     OW52894  12.765   4.234   4.753 -0.0111 -0.2493  0.3205
47527SOL    HW152895  12.802   4.153   4.788  2.4457  1.1291  1.1280
47527SOL    HW252896  12.738   4.284   4.830 -1.0428 -0.0466 -0.1456
47528SOL     OW52897   9.551   6.563   4.613 -0.1186  0.3877 -0.2379
47528SOL    HW152898   9.471   6.549   4.563 -0.1157 -0.6792  0.0400
47528SOL    HW252899   9.521   6.567   4.704  0.1093  0.2605 -0.1574
47529SOL     OW52900   9.934   6.408   0.385  0.0008  0.5914  0.0972
47529SOL    HW152901   9.935   6.504   0.386 -0.1706  0.6427 -1.8885
47529SOL    HW252902   9.997   6.385   0.317 -0.5490 -0.6902  0.0063
47530SOL     OW52903   5.026   6.402   5.269  0.2248  0.1164 -0.7769
47530SOL    HW152904   4.992   6.447   5.347  0.9006  1.4464 -1.2056
47530SOL    HW252905   5.011   6.465   5.198  2.2362  0.1745 -1.2126
47531SOL     OW52906   7.510   0.211   0.591  0.4003 -0.1157 -0.1893
47531SOL    HW152907   7.506   0.115   0.597  0.7516 -0.0642  0.9499
47531SOL    HW252908   7.470   0.231   0.506  2.9648 -1.4814 -1.8738
47532SOL     OW52909   4.934  12.696   1.071 -0.1238  0.1824 -0.1055
47532SOL    HW152910   4.994  12.696   1.146 -0.2705  2.4661  0.0765
47532SOL    HW252911   4.864  12.755   1.096 -0.1004  1.1272 -2.0812
47533SOL     OW52912   6.422   0.258   3.655  1.0277 -0.4627  0.1069
47533SOL    HW152913   6.485   0.264   3.728  1.4902  0.3790 -0.3423
47533SOL    HW252914   6.456   0.320   3.590 -0.3437  0.1245 -0.0841
47534SOL     OW52915   6.600   7.370   1.296  0.1733 -0.2680 -0.3347
47534SOL    HW152916   6.518   7.321   1.294  0.1532 -0.2287 -0.5165
47534SOL    HW252917   6.596   7.426   1.218 -0.0152  0.3613  0.1199
47535SOL     OW52918   6.284  12.133   4.684  0.2788 -0.4497 -0.2675
47535SOL    HW152919   6.252  12.049   4.652  0.2028 -0.3749 -0.3836
47535SOL    HW252920   6.342  12.110   4.757 -0.7447 -0.5418  0.5444
47536SOL     OW52921   9.648   2.570  10.208  0.6153  0.1497  0.3246
47536SOL    HW152922   9.708   2.496  10.198  0.5623  0.0436  0.7690
47536SOL    HW252923   9.591   2.545  10.281  2.6263  1.9448  2.7151
47537SOL     OW52924  12.052   3.570  11.417  0.1669  0.2630 -0.0175
47537SOL    HW152925  12.054   3.509  11.343 -0.3291  0.3568 -0.1058
47537SOL    HW252926  12.097   3.522  11.487 -2.6809 -1.4383  0.8337
47538SOL     OW52927  10.065   7.822   5.875 -0.1729 -0.4944  0.4892
47538SOL    HW152928  10.073   7.832   5.970 -0.1494  0.0487  0.4328
47538SOL    HW252929  10.132   7.880   5.839  0.5062 -1.4806  0.1564
47539SOL     OW52930   1.346   8.964   3.209 -0.2768 -0.1002 -0.2575
47539SOL    HW152931   1.276   8.962   3.145  0.3428 -1.6191 -0.9221
47539SOL    HW252932   1.405   8.893   3.184  1.0163  0.5226  0.8338
47540SOL     OW52933   3.536   9.786   4.020 -0.6291  0.3584  0.2381
47540SOL    HW152934   3.628   9.775   4.045 -0.8095  2.1188  1.9269
47540SOL    HW252935   3.509   9.700   3.988  0.9157 -0.8637  2.0078
47541SOL     OW52936   4.871  12.185  10.161  0.2332 -0.5393  0.0204
47541SOL    HW152937   4.907  12.109  10.116  0.3470  0.7342 -2.2038
47541SOL    HW252938   4.791  12.153  10.202  0.1667 -1.8152 -1.0405
47542SOL     OW52939   1.362  12.560   4.210  0.5174 -0.2430 -0.3496
47542SOL    HW152940   1.347  12.653   4.226  1.0394 -0.1529 -0.3718
47542SOL    HW252941   1.398  12.527   4.292 -1.3290 -0.8195  0.2905
47543SOL     OW52942   7.923   8.857   8.417  0.2045  0.3188  0.8442
47543SOL    HW152943   7.859   8.900   8.360 -1.1180 -0.5243  1.6519
47543SOL    HW252944   7.880   8.777   8.446  1.4173  0.0074  1.8711
47544SOL     OW52945   5.302   9.737   6.631 -0.0259 -0.1125 -0.0647
47544SOL    HW152946   5.341   9.776   6.553 -0.4611  0.9796  0.2407
47544SOL    HW252947   5.311   9.805   6.698  0.0124 -0.8990  0.7323
47545SOL     OW52948   1.839   3.558   5.437 -0.4327 -0.2925 -0.4503
47545SOL    HW152949   1.771   3.493   5.453  1.2787 -1.9655  0.4691
47545SOL    HW252950   1.822   3.627   5.502 -1.3947 -0.5540 -0.4145
47546SOL     OW52951   4.876   0.709  12.022  0.1934 -0.1099  0.2498
47546SOL    HW152952   4.865   0.712  12.117 -0.3254  1.5458  0.1815
47546SOL    HW252953   4.840   0.793  11.992  0.5386 -0.5199 -1.3883
47547SOL     OW52954  10.756   9.006   5.871  0.0078 -0.0571 -0.4321
47547SOL    HW152955  10.771   9.066   5.945 -0.3094 -1.7903  1.1097
47547SOL    HW252956  10.688   9.049   5.819 -0.2879  0.8801  0.6723
47548SOL     OW52957  12.722   7.034   2.477  0.3403 -0.2129 -0.9548
47548SOL    HW152958  12.738   7.071   2.391  1.6583 -0.1423 -0.7017
47548SOL    HW252959  12.693   7.108   2.530  1.2494  0.1293 -0.9052
47549SOL     OW52960   6.029   1.318   6.943  0.1367 -0.0456  0.0534
47549SOL    HW152961   6.024   1.236   6.993 -0.6006 -0.6121 -0.9124
47549SOL    HW252962   6.085   1.375   6.996 -1.4439 -0.2494  2.0292
47550SOL     OW52963   4.958   0.400   3.301  0.3250 -0.2378  0.2506
47550SOL    HW152964   4.929   0.491   3.300  1.4844  0.1396  0.7149
47550SOL    HW252965   5.051   0.404   3.279  0.0301 -1.4584 -1.4475
47551SOL     OW52966   1.333  12.831   1.246  0.4015 -0.5642 -0.0944
47551SOL    HW152967   1.360  12.855   1.335 -1.1343 -2.4569  0.9738
47551SOL    HW252968   1.258  12.773   1.259  0.7610 -1.7270 -2.5921
47552SOL     OW52969   8.032   4.953   2.605 -0.1321 -0.3824 -0.0346
47552SOL    HW152970   8.015   5.028   2.662 -0.6263 -1.7118  1.6356
47552SOL    HW252971   8.127   4.955   2.591 -0.2439  1.0380 -0.7549
47553SOL     OW52972  11.435   5.081   0.744 -0.0734 -0.1838  0.4788
47553SOL    HW152973  11.353   5.050   0.705 -0.1462 -0.0510  0.5252
47553SOL    HW252974  11.430   5.176   0.736  0.4220 -0.2131 -0.2162
47554SOL     OW52975   6.835   4.098   3.964  0.1752  0.0485 -0.1493
47554SOL    HW152976   6.779   4.049   3.903 -0.9874 -0.1816  1.0682
47554SOL    HW252977   6.924   4.075   3.937 -0.3109 -0.5012 -1.3867
47555SOL     OW52978  10.959   6.423  12.859 -0.3384 -0.1291  0.2768
47555SOL    HW152979  10.879   6.440  12.909  0.2343 -0.6466  1.4242
47555SOL    HW252980  10.986   6.509  12.827 -0.4504  0.3136  1.3191
47556SOL     OW52981   3.882   0.038   2.346 -0.0061 -0.2594  0.4912
47556SOL    HW152982   3.970  -0.001   2.350  0.1955 -0.1408 -1.5285
47556SOL    HW252983   3.890   0.107   2.279 -1.7844 -0.7081 -0.2322
47557SOL     OW52984   8.988   3.379   5.810 -0.8297 -0.2444  0.3843
47557SOL    HW152985   8.943   3.309   5.857 -1.3450  0.0495  0.3361
47557SOL    HW252986   9.078   3.375   5.841 -0.3496 -2.2286 -1.0980
47558SOL     OW52987  10.060   9.606  11.749  0.3527  0.5309  0.2541
47558SOL    HW152988  10.045   9.650  11.666  1.9958 -1.8181 -1.4184
47558SOL    HW252989  10.154   9.614  11.764 -0.0550  1.8618  2.5299
47559SOL     OW52990   2.261  11.012   6.563 -0.2294  0.5582  0.2992
47559SOL    HW152991   2.294  10.955   6.493  1.2447  1.6462  0.0588
47559SOL    HW252992   2.178  10.972   6.589  0.0946 -0.9256 -0.7816
47560SOL     OW52993   0.589  12.034   6.214  0.2121 -0.1379  0.4310
47560SOL    HW152994   0.592  12.036   6.309 -0.5103  1.1147  0.4513
47560SOL    HW252995   0.676  12.003   6.187  0.4324 -0.4590  1.4830
47561SOL     OW52996   2.880   3.356   6.262  0.2733  0.5913 -0.0412
47561SOL    HW152997   2.841   3.406   6.190 -0.2560  1.4962  0.8443
47561SOL    HW252998   2.851   3.266   6.248  0.1970  0.7501 -0.9659
47562SOL     OW52999   1.218   6.711   9.564 -0.2978  0.8677  0.2186
47562SOL    HW153000   1.281   6.769   9.608 -0.3094  0.5284  0.6881
47562SOL    HW253001   1.272   6.644   9.523 -0.4084 -0.3157  1.9145
47563SOL     OW53002   7.578  10.491   7.674 -0.2916  0.0972  0.1448
47563SOL    HW153003   7.521  10.461   7.603 -0.3636  0.8762 -0.1262
47563SOL    HW253004   7.555  10.435   7.748 -2.1751  1.0837  0.3603
47564SOL     OW53005   6.204   2.965   8.430  0.1619  0.1516 -0.0252
47564SOL    HW153006   6.298   2.948   8.429  0.1356  0.0132 -0.2667
47564SOL    HW253007   6.197   3.060   8.440  0.3265  0.1568  0.0451
47565SOL     OW53008   7.125   1.225   6.824  0.3090 -0.3098  0.1039
47565SOL    HW153009   7.182   1.213   6.901  0.6249  2.4376  0.3899
47565SOL    HW253010   7.167   1.173   6.755  2.1669  0.1774  0.8110
47566SOL     OW53011  11.896   8.946   1.002 -0.1609  0.2948 -0.1038
47566SOL    HW153012  11.942   8.871   0.965 -0.0238  0.4368 -0.2210
47566SOL    HW253013  11.827   8.966   0.939  0.4664  0.9328 -0.5992
47567SOL     OW53014  12.021   2.577   7.892 -0.2842 -0.5812 -0.1331
47567SOL    HW153015  12.077   2.542   7.962  0.8513 -0.0531 -0.7437
47567SOL    HW253016  11.941   2.525   7.897  0.0008 -0.9338  1.1856
47568SOL     OW53017   2.692   0.687   3.816 -0.3462  0.0581 -0.6674
47568SOL    HW153018   2.773   0.739   3.817 -0.8863  0.9284 -0.5339
47568SOL    HW253019   2.683   0.658   3.725 -0.2591  0.5803 -0.8476
47569SOL     OW53020   2.742   2.479   2.098 -0.1270 -0.3307 -0.0773
47569SOL    HW153021   2.687   2.440   2.030 -1.2100 -0.2639  0.7312
47569SOL    HW253022   2.822   2.427   2.097 -0.1780 -0.4258 -1.2942
47570SOL     OW53023   9.612  11.138   1.775  0.7606 -0.2000  0.1105
47570SOL    HW153024   9.593  11.214   1.830 -0.0950 -0.5440  0.3100
47570SOL    HW253025   9.530  11.089   1.774  1.1689 -0.8794 -0.3977
47571SOL     OW53026   3.012   6.653   9.313 -0.2746 -0.0848  0.1113
47571SOL    HW153027   3.076   6.646   9.242 -0.0862 -1.1385  0.3721
47571SOL    HW253028   2.949   6.582   9.296  0.0777 -0.6955  1.2831
47572SOL     OW53029   7.746  12.117   2.414  0.5156 -0.0916  0.2548
47572SOL    HW153030   7.775  12.198   2.455  1.1009 -0.1394 -0.0539
47572SOL    HW253031   7.794  12.048   2.460 -0.2091 -0.2930  0.7239
47573SOL     OW53032   1.081   6.170   9.898  0.0090 -0.3853  0.0970
47573SOL    HW153033   1.148   6.103   9.892  0.7946  0.4548 -0.8556
47573SOL    HW253034   1.082   6.213   9.813 -0.7042  0.6173  0.5686
47574SOL     OW53035   5.243   9.662   3.889 -0.2649 -0.0066  0.2127
47574SOL    HW153036   5.173   9.720   3.859  0.7020  1.1038  0.0670
47574SOL    HW253037   5.212   9.629   3.974 -2.0341 -1.4587 -0.9151
47575SOL     OW53038   5.670   9.339   3.477  0.0566  0.0626  0.0845
47575SOL    HW153039   5.583   9.308   3.503  0.3177 -0.7708 -0.0294
47575SOL    HW253040   5.665   9.434   3.488 -0.7074 -0.0225  0.5679
47576SOL     OW53041  10.833   7.770  10.542 -0.3355 -0.4123  0.3015
47576SOL    HW153042  10.888   7.840  10.577 -1.3339 -0.5715  2.2902
47576SOL    HW253043  10.863   7.691  10.586 -1.8925 -0.5545  1.1429
47577SOL     OW53044   8.534  11.571  12.669 -0.1909  0.1493 -0.2431
47577SOL    HW153045   8.569  11.640  12.612  0.9843 -0.5571 -0.4240
47577SOL    HW253046   8.440  11.575  12.656 -0.1289  1.5774 -0.4130
47578SOL     OW53047   5.400   9.563   5.608  0.3727 -0.1135  0.0019
47578SOL    HW153048   5.431   9.477   5.579  1.7487  0.4893 -0.4092
47578SOL    HW253049   5.426   9.623   5.538 -0.6947  0.6206  0.2194
47579SOL     OW53050  12.896  11.912   5.026 -0.0079  0.1792 -0.0866
47579SOL    HW153051  12.870  11.994   4.983 -0.3319  0.2710  0.2794
47579SOL    HW253052  12.947  11.866   4.960 -0.9590  0.0675 -0.7738
47580SOL     OW53053   4.565   9.918  12.235 -0.2592 -0.0469  0.1234
47580SOL    HW153054   4.507   9.859  12.282 -1.1035 -0.4517 -1.3830
47580SOL    HW253055   4.634   9.861  12.199 -0.4432  0.0422 -0.3760
47581SOL     OW53056   7.478   2.441   0.018  0.4190  0.5850 -0.3300
47581SOL    HW153057   7.452   2.378   0.085  0.2574 -0.6724 -1.5127
47581SOL    HW253058   7.560   2.478   0.050  0.8687 -0.7254  0.1029
47582SOL     OW53059   8.017  10.155   8.002 -0.2175 -0.0401 -0.2112
47582SOL    HW153060   8.007  10.161   8.097 -1.9310  0.3941 -0.3851
47582SOL    HW253061   8.085  10.218   7.981 -1.3254  1.4497  0.5238
47583SOL     OW53062   8.130   1.118   3.493  0.4718 -0.1737  0.8348
47583SOL    HW153063   8.135   1.041   3.436  1.3757 -1.7122  2.8660
47583SOL    HW253064   8.134   1.193   3.433  1.6679 -1.6916 -1.0931
47584SOL     OW53065  10.502   3.041   2.696 -0.2629 -0.0888 -0.0469
47584SOL    HW153066  10.550   2.959   2.685 -1.8948 -1.1218  0.1827
47584SOL    HW253067  10.412   3.019   2.672 -0.8494  1.4881  0.6070
47585SOL     OW53068   5.776   2.456   3.934  0.5329 -0.2726 -0.0961
47585SOL    HW153069   5.793   2.460   4.028 -0.5088  0.7183  0.0740
47585SOL    HW253070   5.754   2.364   3.917  0.6946 -0.4485  0.6224
47586SOL     OW53071   5.101   0.835   8.077  0.0633  0.2494  0.2790
47586SOL    HW153072   5.172   0.858   8.017  0.2469 -1.3483 -0.1665
47586SOL    HW253073   5.144   0.812   8.158  0.0726 -0.7732 -0.0080
47587SOL     OW53074  11.642   2.031  11.072 -0.4855 -0.2278 -0.3698
47587SOL    HW153075  11.565   2.076  11.108  0.6278  0.6884  1.0141
47587SOL    HW253076  11.707   2.100  11.064 -0.2559 -0.6665 -3.0588
47588SOL     OW53077  10.720   4.243   1.390  0.2570  0.1298  0.2933
47588SOL    HW153078  10.706   4.301   1.316 -1.9581  0.0321  0.5734
47588SOL    HW253079  10.815   4.238   1.399  0.5316  2.0300 -1.0275
47589SOL     OW53080   4.446  11.834   9.816  0.2638 -0.2982 -0.0932
47589SOL    HW153081   4.501  11.788   9.752  0.9833  1.0720 -0.5009
47589SOL    HW253082   4.489  11.919   9.828  0.8119 -0.9185  3.1101
47590SOL     OW53083   0.758   7.800   4.347  0.0005 -0.7285 -0.1027
47590SOL    HW153084   0.762   7.845   4.432  1.8213 -2.3213  0.7341
47590SOL    HW253085   0.796   7.862   4.285 -2.5945  1.0135 -0.1170
47591SOL     OW53086  11.115   8.554   9.952  0.7170 -0.8687  0.0775
47591SOL    HW153087  11.071   8.612  10.014  0.3970 -1.2491  0.2094
47591SOL    HW253088  11.056   8.478   9.944  0.5002 -0.5898 -1.0975
47592SOL     OW53089  12.814   2.882   7.398 -0.0425 -0.1601  0.4188
47592SOL    HW153090  12.800   2.792   7.427 -2.0471 -0.3459 -0.9234
47592SOL    HW253091  12.827   2.876   7.304  2.8266  0.7453  0.6550
47593SOL     OW53092   1.282   9.588   9.555  0.0189  0.1837  0.0959
47593SOL    HW153093   1.251   9.545   9.475 -0.5864  0.7359  0.0269
47593SOL    HW253094   1.314   9.515   9.609 -0.4018 -0.2918 -0.2767
47594SOL     OW53095   4.475   0.142  10.016  0.1881 -0.0560 -0.2154
47594SOL    HW153096   4.454   0.227  10.054  0.3957 -0.2484  0.3353
47594SOL    HW253097   4.449   0.150   9.924  2.5423  1.4820 -0.8614
47595SOL     OW53098  11.448   3.106   5.138  0.0019  0.1279  0.1460
47595SOL    HW153099  11.493   3.062   5.066  2.0943  1.0608  0.8181
47595SOL    HW253100  11.517   3.152   5.186 -1.2504 -0.7420  2.9976
47596SOL     OW53101  12.076   3.225   0.253  0.6769  0.3550  0.3830
47596SOL    HW153102  12.008   3.282   0.217 -0.1929  0.5802  2.2623
47596SOL    HW253103  12.123   3.192   0.177  0.4507  2.6439 -0.8316
47597SOL     OW53104   6.791   5.036   2.284 -0.1126 -0.1278 -0.1000
47597SOL    HW153105   6.818   5.115   2.236  0.3730 -1.0175 -1.3387
47597SOL    HW253106   6.780   5.066   2.374  0.7173  1.2205 -0.4103
47598SOL     OW53107   0.023   8.773   5.017 -0.3018  0.0877  0.0287
47598SOL    HW153108   0.118   8.769   5.012 -0.4004 -0.5382 -2.1594
47598SOL    HW253109  -0.002   8.833   4.947 -1.4927  1.3985  1.4884
47599SOL     OW53110   5.132  12.909   0.329 -0.0874 -0.4536 -0.4569
47599SOL    HW153111   5.204  12.951   0.378  1.1933 -2.0179 -0.9056
47599SOL    HW253112   5.111  12.972   0.260  0.2308  0.4194  0.2138
47600SOL     OW53113   3.354   1.786   7.588 -0.5834  0.2049 -0.1673
47600SOL    HW153114   3.372   1.762   7.679 -2.9315  0.3971  0.4122
47600SOL    HW253115   3.361   1.703   7.540 -1.5047 -0.3346  0.5864
47601SOL     OW53116   1.197   3.607   5.493  0.0476 -0.3225  0.1561
47601SOL    HW153117   1.281   3.615   5.538  0.6762  0.2252 -1.0738
47601SOL    HW253118   1.195   3.516   5.462  0.0128 -0.4407  0.5011
47602SOL     OW53119   3.092   9.861  11.517  0.0128 -0.2288 -0.1491
47602SOL    HW153120   3.154   9.878  11.587 -0.0829  0.4672 -0.2230
47602SOL    HW253121   3.108   9.770  11.491  0.8481 -0.1167 -0.0267
47603SOL     OW53122  12.166   9.115   4.374  0.4535 -0.5133  0.1712
47603SOL    HW153123  12.108   9.039   4.372  2.2657 -1.9573  0.1277
47603SOL    HW253124  12.238   9.089   4.430  1.6758  0.7651 -0.7306
47604SOL     OW53125   8.183   6.914   6.819 -0.5121  0.2410 -0.1372
47604SOL    HW153126   8.213   6.971   6.890  0.8098  0.6412 -0.9705
47604SOL    HW253127   8.133   6.972   6.762 -0.5076  0.2069 -0.1758
47605SOL     OW53128   3.992   5.706   9.919 -0.3424  0.2414  0.0378
47605SOL    HW153129   3.903   5.704   9.885 -0.4807  1.8843  0.2564
47605SOL    HW253130   3.985   5.753  10.002  0.8636  1.1766 -0.3669
47606SOL     OW53131  10.251   8.405   2.878  0.0158  0.2828 -0.1442
47606SOL    HW153132  10.276   8.495   2.861  0.0339  0.3029 -0.0073
47606SOL    HW253133  10.236   8.368   2.791  1.2876  0.0446 -0.2866
47607SOL     OW53134   3.359   0.140   6.844 -0.2236 -0.1631 -0.3953
47607SOL    HW153135   3.367   0.044   6.848  0.5742 -0.0654  1.9971
47607SOL    HW253136   3.416   0.166   6.772  0.6494 -1.4087 -0.1846
47608SOL     OW53137   3.757  10.708   7.599 -0.1568 -0.5834 -0.4529
47608SOL    HW153138   3.822  10.764   7.641  1.2536 -0.6419 -2.4458
47608SOL    HW253139   3.708  10.670   7.672  1.2398  0.4097  1.0680
47609SOL     OW53140  10.381   4.814   0.198  0.6718  0.5658  0.0256
47609SOL    HW153141  10.454   4.825   0.259  0.5056 -1.1610  0.6047
47609SOL    HW253142  10.422   4.784   0.117  0.6914  0.4069  0.0927
47610SOL     OW53143   1.904  12.912   5.136  0.2051  0.4049 -0.4830
47610SOL    HW153144   1.852  12.835   5.160 -0.9890  0.2251 -3.2884
47610SOL    HW253145   1.995  12.881   5.137 -0.1041 -0.5079  0.2406
47611SOL     OW53146  11.375   0.959   7.725 -0.2728 -0.0847 -0.0325
47611SOL    HW153147  11.334   0.926   7.645 -0.5543 -0.7905  0.3871
47611SOL    HW253148  11.440   0.893   7.748 -0.5297 -0.1354  0.5796
47612SOL     OW53149  10.532   4.825   3.615 -0.6365  0.5129 -0.7886
47612SOL    HW153150  10.556   4.790   3.702 -1.4876  0.0908 -0.7102
47612SOL    HW253151  10.463   4.766   3.584  0.3971  0.0088 -2.2355
47613SOL     OW53152   4.732   0.229  11.723 -0.4468  0.5926  0.4100
47613SOL    HW153153   4.666   0.284  11.680 -1.2221 -0.4272  0.2729
47613SOL    HW253154   4.692   0.143  11.729  0.9554 -0.1075  0.1506
47614SOL     OW53155   7.428   9.833   6.031 -0.0505 -0.1525 -0.0468
47614SOL    HW153156   7.352   9.784   6.063  0.1368 -0.8993 -0.7260
47614SOL    HW253157   7.393   9.920   6.011 -0.3952  0.0013  1.1174
47615SOL     OW53158  10.897   1.494  12.135 -0.0347 -0.4835 -0.1926
47615SOL    HW153159  10.803   1.508  12.146  0.2132  0.5048  0.9891
47615SOL    HW253160  10.908   1.470  12.043 -1.2148  1.5960 -0.9368
47616SOL     OW53161   1.965   0.118   4.942 -0.2213  0.0023  0.1734
47616SOL    HW153162   1.944   0.056   5.011  3.6909 -1.7947  0.0471
47616SOL    HW253163   2.019   0.068   4.880  0.2692  2.6917 -1.7770
47617SOL     OW53164   9.881   6.118   5.748 -0.5238 -0.1042  0.2794
47617SOL    HW153165   9.947   6.051   5.766 -0.8931 -0.2565  1.0916
47617SOL    HW253166   9.899   6.145   5.658  1.6583  1.0094  0.9747
47618SOL     OW53167   0.902   1.165   6.195 -0.2428  0.2176 -0.2485
47618SOL    HW153168   0.972   1.193   6.135 -1.2333  1.3680 -0.9002
47618SOL    HW253169   0.933   1.193   6.281  0.0905  0.7567 -0.5341
47619SOL     OW53170   6.268  11.327  12.184  0.0988  1.0484  0.0155
47619SOL    HW153171   6.237  11.320  12.274 -0.0879 -2.2424 -0.1796
47619SOL    HW253172   6.329  11.401  12.185  0.4048  0.8752  2.9354
47620SOL     OW53173   3.005   1.420  12.121  0.9901  0.0540  0.1013
47620SOL    HW153174   3.092   1.386  12.145  1.2915  0.1440 -0.8415
47620SOL    HW253175   3.018   1.514  12.112  0.0734  0.5678  3.0758
47621SOL     OW53176   4.356  12.007   0.792  0.3711  0.1717  0.0049
47621SOL    HW153177   4.418  11.966   0.853  1.6072  1.6152 -0.2271
47621SOL    HW253178   4.345  11.942   0.722 -0.2159 -1.0553  1.1820
47622SOL     OW53179   1.614   6.440   5.282 -0.1819  0.0585 -0.8236
47622SOL    HW153180   1.670   6.447   5.205 -0.9596 -0.4608 -1.4637
47622SOL    HW253181   1.543   6.502   5.265  1.0182  1.9403  0.7437
47623SOL     OW53182   5.430   6.220   6.271 -0.0920 -0.2149  0.0976
47623SOL    HW153183   5.357   6.280   6.253  0.6147 -0.1217 -3.2072
47623SOL    HW253184   5.492   6.272   6.322 -0.1958  1.4389 -1.3478
47624SOL     OW53185  11.002   0.134   2.646  0.7291  0.4466 -0.2858
47624SOL    HW153186  11.027   0.177   2.565 -1.1567  0.0475 -1.1328
47624SOL    HW253187  10.955   0.055   2.618 -0.0255  0.3351  1.1878
47625SOL     OW53188   0.092   0.592   7.281 -0.7110  0.3164  0.4966
47625SOL    HW153189   0.051   0.549   7.206 -1.7164  1.7145  0.1895
47625SOL    HW253190   0.020   0.605   7.343 -0.2051  0.5566  1.0438
47626SOL     OW53191   0.936   4.715   9.343 -0.4410  0.2241 -0.4272
47626SOL    HW153192   0.996   4.682   9.275 -0.1241  1.4252 -0.7618
47626SOL    HW253193   0.921   4.640   9.400  1.1256 -0.2139 -0.5257
47627SOL     OW53194   9.597   4.008  12.815  0.8577  0.2324  0.1291
47627SOL    HW153195   9.618   3.916  12.799  1.2317  0.1418  1.0542
47627SOL    HW253196   9.503   4.008  12.832  0.6006  0.2278 -1.2026
47628SOL     OW53197   5.500  10.455   0.014  0.3336 -0.1689  0.2866
47628SOL    HW153198   5.417  10.502   0.015  0.3890  0.1070 -2.1147
47628SOL    HW253199   5.482  10.376  -0.036  1.4333 -0.2995  0.0762
47629SOL     OW53200   2.604   1.961  12.646 -0.1556  0.5327  0.2422
47629SOL    HW153201   2.569   1.888  12.697  1.9174 -0.3650  0.5089
47629SOL    HW253202   2.614   2.032  12.709 -1.7552  0.9265  0.0808
47630SOL     OW53203   9.923   0.678   9.873  0.6535  0.2136  0.3233
47630SOL    HW153204   9.911   0.767   9.839  1.1020  1.1660  2.4752
47630SOL    HW253205   9.842   0.659   9.921 -0.8212 -1.8944 -2.6827
47631SOL     OW53206   4.748   4.228   9.138  0.3600 -0.5851  0.3124
47631SOL    HW153207   4.766   4.150   9.191 -0.1041 -0.9291 -0.0277
47631SOL    HW253208   4.830   4.244   9.091  0.4293 -0.9193  0.3172
47632SOL     OW53209   9.342   9.782   6.905  0.0774 -0.4014 -0.0737
47632SOL    HW153210   9.293   9.743   6.978  0.6886  0.6129  0.9242
47632SOL    HW253211   9.424   9.733   6.901  0.9062  0.7880  1.2709
47633SOL     OW53212   9.089   1.935   0.215  0.0848  0.4044 -1.0680
47633SOL    HW153213   9.065   1.964   0.303 -1.2513 -0.5087 -1.1000
47633SOL    HW253214   9.037   1.855   0.201 -1.7559  1.9000 -3.6511
47634SOL     OW53215   0.904  12.426   3.618  0.3348  0.1842  0.3859
47634SOL    HW153216   0.830  12.374   3.588  1.0704 -0.6803  0.0243
47634SOL    HW253217   0.865  12.506   3.654 -0.6835  0.4835 -1.2944
47635SOL     OW53218   0.381   5.748   5.935  0.4917  0.1306  0.0422
47635SOL    HW153219   0.421   5.696   6.004 -0.6598  0.6061  1.1189
47635SOL    HW253220   0.303   5.786   5.976 -0.5225 -0.0009 -1.6800
47636SOL     OW53221   5.232   8.179   3.537  0.1575 -0.2526 -0.5385
47636SOL    HW153222   5.182   8.183   3.619  3.1502  0.5944  1.3970
47636SOL    HW253223   5.167   8.195   3.468 -2.5799 -1.5520  1.5812
47637SOL     OW53224  12.584  11.617  12.193 -0.0067 -0.4208 -0.0804
47637SOL    HW153225  12.515  11.645  12.252  0.7146  0.8235  0.2191
47637SOL    HW253226  12.581  11.679  12.121  0.9537 -0.1697  0.0716
47638SOL     OW53227   2.480  11.083   1.798  0.0034 -0.4432  0.2048
47638SOL    HW153228   2.427  11.005   1.779 -0.6834  0.2301 -0.7067
47638SOL    HW253229   2.539  11.090   1.723  1.9489 -1.5951  1.5279
47639SOL     OW53230  10.289   1.634   4.928  0.5285  0.4351  0.3463
47639SOL    HW153231  10.283   1.725   4.902 -0.4951  0.7284  1.5370
47639SOL    HW253232  10.205   1.595   4.903  0.2556  0.2751  1.4369
47640SOL     OW53233  12.624   7.551   5.755 -0.8497 -0.4119  0.5965
47640SOL    HW153234  12.695   7.573   5.695 -2.3345  1.1011 -0.7057
47640SOL    HW253235  12.633   7.614   5.827 -2.3211  1.5827 -0.8456
47641SOL     OW53236   6.784  12.968  12.777 -0.0521 -0.5887 -0.6271
47641SOL    HW153237   6.758  12.903  12.711  0.7387 -1.6540  0.0688
47641SOL    HW253238   6.880  12.967  12.775 -0.0078  1.1967 -1.1779
47642SOL     OW53239  11.648   4.926  10.501  0.1060 -0.0704  0.1862
47642SOL    HW153240  11.599   4.972  10.433  0.2778 -1.8539 -1.2002
47642SOL    HW253241  11.703   4.863  10.454  0.4931 -1.1314  1.9519
47643SOL     OW53242   2.983   1.173   9.110  0.0881 -0.4551 -0.3382
47643SOL    HW153243   2.942   1.181   9.196  2.4543 -3.1414  1.1923
47643SOL    HW253244   2.960   1.086   9.080  0.4236 -0.0640 -1.8371
47644SOL     OW53245  12.116   0.680   2.759  0.1903  0.2962 -0.3025
47644SOL    HW153246  12.056   0.605   2.762 -0.3637  0.5843 -2.4858
47644SOL    HW253247  12.187   0.656   2.819 -2.2280  0.1502  2.7370
47645SOL     OW53248  12.001   7.233  12.843  0.6700 -0.0362  0.2955
47645SOL    HW153249  12.008   7.140  12.820  0.6048 -0.1165  0.6075
47645SOL    HW253250  12.091   7.265  12.838  0.7848 -0.2649  0.8213
47646SOL     OW53251  11.959   0.235   2.493  0.4853 -0.2397  0.1554
47646SOL    HW153252  11.996   0.267   2.411  1.1348  0.5442  0.7394
47646SOL    HW253253  11.881   0.185   2.466  0.3722  0.4660 -0.8971
47647SOL     OW53254  11.828   2.932   8.909 -0.1319 -0.3668  0.9561
47647SOL    HW153255  11.792   2.919   8.822  0.6254  0.6423  0.4693
47647SOL    HW253256  11.883   2.854   8.924 -1.8668 -1.5600  1.4191
47648SOL     OW53257   0.345   5.897   4.340 -0.1205  1.1523  0.3886
47648SOL    HW153258   0.268   5.934   4.383 -2.4192 -2.1981 -0.4518
47648SOL    HW253259   0.344   5.937   4.252 -0.6114  1.5196  0.5536
47649SOL     OW53260   5.542  11.154   8.703 -0.0022  0.2619 -0.9239
47649SOL    HW153261   5.492  11.080   8.668  0.0841  0.5584 -1.6918
47649SOL    HW253262   5.588  11.117   8.779 -1.6459  0.0798  0.0293
47650SOL     OW53263   6.602   2.901   4.635 -0.1124  0.5828 -0.1802
47650SOL    HW153264   6.631   2.817   4.670  0.0379  1.1152  1.0351
47650SOL    HW253265   6.549   2.879   4.559  1.2572 -0.5345 -0.8583
47651SOL     OW53266   1.159  10.521   2.393  0.3633  0.1627  0.0636
47651SOL    HW153267   1.073  10.551   2.420  0.3911 -1.2101  1.8578
47651SOL    HW253268   1.142  10.439   2.346  0.6543  0.1681 -0.0521
47652SOL     OW53269   0.872   9.471   1.296  0.1965 -0.2187  0.2146
47652SOL    HW153270   0.838   9.446   1.211  0.1195  1.6616 -0.3434
47652SOL    HW253271   0.838   9.404   1.356 -2.1348  0.0166 -0.7605
47653SOL     OW53272  11.077   2.159   7.021  0.7001 -0.6582  0.2579
47653SOL    HW153273  10.999   2.150   6.966  0.6264 -0.2897  0.2994
47653SOL    HW253274  11.054   2.113   7.102  0.9063 -1.4280 -0.1151
47654SOL     OW53275   0.815   3.622  11.560 -0.7275 -0.2422  0.0284
47654SOL    HW153276   0.848   3.614  11.649 -0.8586 -0.8803  0.0285
47654SOL    HW253277   0.790   3.714  11.551 -0.7490 -0.1845  0.6604
47655SOL     OW53278  11.667   0.419   1.937 -0.1830 -0.3121 -0.2556
47655SOL    HW153279  11.644   0.345   1.881 -2.1012 -0.4274  0.5972
47655SOL    HW253280  11.651   0.387   2.026  1.4419  0.3252  0.3045
47656SOL     OW53281  10.778  11.328   2.954  0.0624  0.0165 -0.3319
47656SOL    HW153282  10.767  11.247   3.004 -1.8674  0.1709 -0.4089
47656SOL    HW253283  10.752  11.305   2.865 -2.0334  1.0125 -0.0456
47657SOL     OW53284   3.738  12.484   1.992  0.6532 -0.2405  0.9465
47657SOL    HW153285   3.672  12.424   2.026  1.2008 -1.3598  0.0817
47657SOL    HW253286   3.808  12.482   2.057  0.4262 -0.0784  1.2013
47658SOL     OW53287   7.835  12.379   1.716 -0.2568  0.3051 -0.6922
47658SOL    HW153288   7.858  12.466   1.683 -0.3212  0.8661  0.6708
47658SOL    HW253289   7.745  12.388   1.746  0.1567  0.1672  0.6759
47659SOL     OW53290  11.866   0.695  10.476 -0.5367  0.4282  0.0051
47659SOL    HW153291  11.835   0.604  10.470 -0.7250  0.5278 -0.6448
47659SOL    HW253292  11.957   0.687  10.505  0.1304 -0.1147 -2.0215
47660SOL     OW53293   1.433  10.473   3.486  0.4226 -0.3376 -0.2900
47660SOL    HW153294   1.347  10.516   3.480  0.1698 -0.8262 -0.2608
47660SOL    HW253295   1.459  10.460   3.395  0.1269 -0.8392 -0.3089
47661SOL     OW53296   3.448   0.332   1.019  0.3008  0.1916 -0.4508
47661SOL    HW153297   3.540   0.304   1.028  0.1334 -0.3708 -0.4505
47661SOL    HW253298   3.405   0.258   0.977  0.1234  1.0019 -1.7460
47662SOL     OW53299  12.861  10.432   6.348 -0.6489 -0.3326 -0.0667
47662SOL    HW153300  12.870  10.337   6.348 -0.3848 -0.3362 -1.8486
47662SOL    HW253301  12.951  10.465   6.353 -0.7497 -0.1597  0.7507
47663SOL     OW53302   4.913   6.965  10.782 -0.4077  0.2543  0.0551
47663SOL    HW153303   4.970   6.988  10.856  1.5277 -1.1669 -0.8884
47663SOL    HW253304   4.894   7.048  10.739 -0.4937  0.9548  1.3874
47664SOL     OW53305  12.048   7.748   0.588 -0.0075 -0.5000 -0.5452
47664SOL    HW153306  12.021   7.684   0.654  0.6827  0.6525  0.9358
47664SOL    HW253307  12.115   7.800   0.632 -0.9102  1.5811 -1.4686
47665SOL     OW53308   2.114  12.145  10.554 -0.1143 -0.4921  0.4656
47665SOL    HW153309   2.107  12.197  10.474 -0.4493 -0.1471  0.7094
47665SOL    HW253310   2.025  12.144  10.589 -0.0521 -1.0034  0.6095
47666SOL     OW53311   8.747   1.585   8.406 -0.3499 -0.4811  0.5395
47666SOL    HW153312   8.717   1.554   8.491  1.9795  1.4304  2.1999
47666SOL    HW253313   8.830   1.539   8.392  1.0286  1.6739  1.0659
47667SOL     OW53314   3.637  10.029   6.789 -0.8579 -0.1417 -0.2161
47667SOL    HW153315   3.549  10.003   6.817 -1.2081 -0.8419 -1.8775
47667SOL    HW253316   3.624  10.075   6.706  0.3583 -0.4391 -0.5997
47668SOL     OW53317   2.461   8.965   1.855  0.0374  0.6029  0.5564
47668SOL    HW153318   2.415   8.895   1.902 -0.6565  1.8650  1.8274
47668SOL    HW253319   2.401   8.991   1.785  1.1257 -1.3682 -1.2276
47669SOL     OW53320   2.773   9.845   0.023  0.3314 -0.1929  0.0423
47669SOL    HW153321   2.730   9.916   0.072  0.8107 -0.1149  0.3613
47669SOL    HW253322   2.719   9.833  -0.055  0.4611  0.7918 -0.2144
47670SOL     OW53323   5.166   7.541   0.744 -0.8313  0.0155 -0.1589
47670SOL    HW153324   5.097   7.566   0.806 -0.9096 -1.0664  0.1981
47670SOL    HW253325   5.242   7.592   0.773 -0.7257 -0.8281  1.1513
47671SOL     OW53326  12.184   4.584  12.551  0.6713  0.0083  0.8069
47671SOL    HW153327  12.125   4.512  12.571  1.8335 -1.3517 -0.4393
47671SOL    HW253328  12.152   4.620  12.469  0.5491  0.4233  1.0329
47672SOL     OW53329   7.804   1.775   8.499 -0.2087  0.3822  0.2428
47672SOL    HW153330   7.865   1.828   8.447  0.9657  0.9729  2.1412
47672SOL    HW253331   7.823   1.685   8.473 -1.4830  0.7335 -2.2271
47673SOL     OW53332   1.568   8.074   2.261  0.0055  0.0926  0.2223
47673SOL    HW153333   1.617   8.011   2.207  1.5830  1.5841 -0.1759
47673SOL    HW253334   1.477   8.064   2.232  0.4833 -0.7167 -1.1113
47674SOL     OW53335   6.928   3.478   7.276  0.3605  0.1260 -0.0075
47674SOL    HW153336   6.885   3.538   7.215  0.9271  0.6864  0.1255
47674SOL    HW253337   7.011   3.522   7.296  0.4011 -0.3029  0.7642
47675SOL     OW53338  12.415   8.167  12.146 -0.1215  0.0928  0.1032
47675SOL    HW153339  12.466   8.175  12.065  0.5812  0.0017  0.5238
47675SOL    HW253340  12.458   8.096  12.194  0.3374  1.0656  1.1648
47676SOL     OW53341   8.376   4.922   7.727  0.2747  0.0477  0.1467
47676SOL    HW153342   8.444   4.968   7.678  0.5863 -2.0642 -1.5574
47676SOL    HW253343   8.349   4.984   7.795  3.1249  1.3392  0.2249
47677SOL     OW53344   3.380   8.199  11.628  1.0368  0.3173  0.2730
47677SOL    HW153345   3.396   8.105  11.616  1.9968  0.6470 -1.2066
47677SOL    HW253346   3.353   8.206  11.720  1.1495 -1.3752  0.4795
47678SOL     OW53347   7.158   6.341   8.062 -0.2661  0.0199  0.2006
47678SOL    HW153348   7.081   6.288   8.043 -0.6995  0.9045 -0.5764
47678SOL    HW253349   7.221   6.279   8.100 -1.6870 -0.5188  1.7714
47679SOL     OW53350   4.083   8.415   6.889 -0.6336 -0.1441  0.0719
47679SOL    HW153351   4.076   8.327   6.851 -1.2786 -1.2605  2.5179
47679SOL    HW253352   4.177   8.434   6.889 -0.5931 -0.1922 -1.7358
47680SOL     OW53353   8.627   0.947  11.772  0.2402  0.3484 -0.0444
47680SOL    HW153354   8.542   0.905  11.783 -0.1130  1.4417  1.9935
47680SOL    HW253355   8.625   1.020  11.835  2.8372  0.1397  0.3690
47681SOL     OW53356  12.234   8.266   9.659 -0.2546  0.1046  0.7582
47681SOL    HW153357  12.300   8.335   9.666 -0.4044  0.1686  1.5891
47681SOL    HW253358  12.193   8.263   9.745 -0.5672 -0.7076  0.5875
47682SOL     OW53359   9.643   7.882   0.340  0.4472 -0.2217  0.3581
47682SOL    HW153360   9.603   7.892   0.427  0.4836  0.4300  0.3085
47682SOL    HW253361   9.734   7.858   0.358  0.0636 -1.6247  0.4723
47683SOL     OW53362   2.566   2.807   7.741  0.5172  0.0548 -0.5341
47683SOL    HW153363   2.648   2.783   7.783 -0.1020 -1.0354  0.1117
47683SOL    HW253364   2.581   2.794   7.648  0.7668 -1.1495 -0.3387
47684SOL     OW53365   6.565   1.561  10.722  0.0443 -0.0722  0.0327
47684SOL    HW153366   6.638   1.514  10.682  1.4903  1.0060  1.2886
47684SOL    HW253367   6.492   1.545  10.663  1.0952 -1.7685 -0.9107
47685SOL     OW53368   2.808   6.695   8.510  0.7049 -1.0544 -0.2370
47685SOL    HW153369   2.859   6.663   8.585 -0.4098 -1.8807  0.2050
47685SOL    HW253370   2.774   6.615   8.469 -1.2810 -0.5115  0.2568
47686SOL     OW53371   4.552   4.594   3.958 -0.0893 -0.2338 -0.2677
47686SOL    HW153372   4.600   4.657   4.012 -0.2323 -0.9316  0.7088
47686SOL    HW253373   4.617   4.528   3.935  0.1086  0.3504 -1.4560
47687SOL     OW53374   0.764  11.505   8.706  0.2529 -0.4640 -0.0231
47687SOL    HW153375   0.817  11.434   8.740 -0.7293 -1.5857 -0.7642
47687SOL    HW253376   0.679  11.465   8.686 -0.6077  1.0966  0.3503
47688SOL     OW53377  12.387   8.440   6.475  0.2734  0.1456 -0.2628
47688SOL    HW153378  12.317   8.398   6.525 -0.0349  3.8071  2.7791
47688SOL    HW253379  12.343   8.484   6.403  0.2041 -1.7377 -1.4372
47689SOL     OW53380   7.514  11.208   7.020 -0.2753  0.0702 -0.1152
47689SOL    HW153381   7.481  11.276   7.078  1.0463 -0.9428  1.9709
47689SOL    HW253382   7.514  11.129   7.074  0.8565 -0.9600 -1.5476
47690SOL     OW53383   6.618   8.442   1.587 -0.4137 -0.0233 -0.0965
47690SOL    HW153384   6.561   8.491   1.647 -0.9795  0.5680 -1.1031
47690SOL    HW253385   6.564   8.370   1.555 -0.4933  0.3323 -0.7804
47691SOL     OW53386   9.096   9.718   6.756 -0.2550 -0.0286 -0.4300
47691SOL    HW153387   9.093   9.689   6.665  3.1432 -0.5418 -0.5035
47691SOL    HW253388   9.127   9.809   6.752  0.3963 -0.2093  0.2085
47692SOL     OW53389   6.225  10.374  12.432  0.9509  0.4154 -0.7131
47692SOL    HW153390   6.130  10.392  12.432  0.8126 -0.1854 -2.1624
47692SOL    HW253391   6.251  10.388  12.341  1.9789 -0.8653 -0.6347
47693SOL     OW53392  10.131   1.333   6.443 -0.3854 -0.1082 -0.2788
47693SOL    HW153393  10.045   1.301   6.473 -1.0243  1.1881 -0.6453
47693SOL    HW253394  10.117   1.426   6.425  1.6433  0.6756  1.7228
47694SOL     OW53395   9.761   7.647  12.198  0.3590 -0.2729  0.0528
47694SOL    HW153396   9.704   7.674  12.270 -1.1012 -0.8233 -0.8677
47694SOL    HW253397   9.776   7.728  12.149 -0.3448 -0.2770 -0.1806
47695SOL     OW53398   6.882  10.023  12.278 -0.1939  0.0983 -0.3474
47695SOL    HW153399   6.841  10.108  12.260 -0.3908 -0.0772 -0.7512
47695SOL    HW253400   6.843   9.964  12.213  0.1551 -0.2363 -0.2533
47696SOL     OW53401   8.377   5.001   5.662 -0.1107 -0.3588 -0.0545
47696SOL    HW153402   8.427   4.935   5.615 -0.1050  0.2155 -0.8669
47696SOL    HW253403   8.292   5.003   5.619 -0.5953 -0.7925  0.8408
47697SOL     OW53404   8.544   1.836   4.368  0.3356  0.4192  0.1764
47697SOL    HW153405   8.592   1.769   4.417 -0.7862 -0.3323  0.2576
47697SOL    HW253406   8.607   1.866   4.302  0.1225 -2.4714 -1.5048
47698SOL     OW53407   1.778  11.425   6.280 -0.5307 -0.3609 -0.3849
47698SOL    HW153408   1.702  11.431   6.337  0.1447 -1.0921  0.6262
47698SOL    HW253409   1.801  11.332   6.280 -0.8063 -0.4718 -2.2615
47699SOL     OW53410   3.611   3.451   3.472  0.3461  0.2866  0.0983
47699SOL    HW153411   3.665   3.508   3.527 -0.5419  1.7035 -0.4455
47699SOL    HW253412   3.546   3.414   3.531  0.5906  0.2700  0.3575
47700SOL     OW53413  12.748  12.203   2.748 -0.2692  0.3930  0.0183
47700SOL    HW153414  12.664  12.171   2.780 -1.4317  1.9010 -1.3807
47700SOL    HW253415  12.803  12.207   2.826 -1.5412 -0.4308  1.0014
47701SOL     OW53416  11.787   0.509  10.052  0.4020  0.5845  1.0461
47701SOL    HW153417  11.712   0.546  10.099  0.5292 -1.3981  2.9486
47701SOL    HW253418  11.862   0.558  10.086  0.0315  2.7364 -1.0365
47702SOL     OW53419   6.668   9.796  10.914 -0.0135 -0.2432  0.0691
47702SOL    HW153420   6.667   9.717  10.860  0.8956 -1.2068  1.3868
47702SOL    HW253421   6.669   9.868  10.851  2.6171 -1.3125 -1.3061
47703SOL     OW53422   4.956   9.397   6.004  0.5550  0.2986 -0.5124
47703SOL    HW153423   5.038   9.375   5.960  0.5410 -1.1605  0.1411
47703SOL    HW253424   4.982   9.455   6.076  0.5348  3.0106 -2.5414
47704SOL     OW53425   6.047   8.597  11.152  0.6038 -0.3196 -0.0988
47704SOL    HW153426   5.961   8.613  11.114  0.4941  0.9331  0.6154
47704SOL    HW253427   6.096   8.677  11.136  1.7740 -1.1449 -0.8012
47705SOL     OW53428   1.307   3.498  12.557  0.1024 -0.3049 -0.0154
47705SOL    HW153429   1.372   3.552  12.601 -0.0383 -0.5662  0.5153
47705SOL    HW253430   1.345   3.481  12.470  0.8195 -0.5989  0.3508
47706SOL     OW53431   2.623   1.471  11.060  0.1920  0.1530  0.3250
47706SOL    HW153432   2.678   1.405  11.018  1.0785  1.3332 -0.4304
47706SOL    HW253433   2.534   1.449  11.033  0.6444  0.3133 -1.4322
47707SOL     OW53434   9.163   0.978  11.489  0.3274 -0.2437  0.3335
47707SOL    HW153435   9.207   0.896  11.513 -0.6557 -0.6230  0.8784
47707SOL    HW253436   9.082   0.950  11.446 -0.5452  0.4320  1.4999
47708SOL     OW53437   5.305  12.262   1.602  0.0336  0.2692  0.0079
47708SOL    HW153438   5.209  12.260   1.609 -0.0095 -0.4549 -0.6024
47708SOL    HW253439   5.323  12.336   1.545  0.0389  2.3009  2.4869
47709SOL     OW53440   2.870  11.455   9.941 -0.6055  0.9544  0.5741
47709SOL    HW153441   2.866  11.450  10.036 -1.5617  1.1175  0.5557
47709SOL    HW253442   2.841  11.369   9.911  0.3084  0.6862  0.4253
47710SOL     OW53443   3.191   8.991   9.520 -0.3448 -0.4408 -0.0599
47710SOL    HW153444   3.276   9.011   9.480 -0.7882  1.4378 -0.1749
47710SOL    HW253445   3.138   8.959   9.447 -0.0877 -0.4656 -0.2385
47711SOL     OW53446   5.209   7.869  11.177 -0.6755 -0.3877  0.1924
47711SOL    HW153447   5.131   7.881  11.230  0.6766  0.5601  2.1027
47711SOL    HW253448   5.237   7.779  11.194 -0.4487 -0.2007  0.8621
47712SOL     OW53449   2.833   3.830   6.741  0.2437  0.2350 -0.1497
47712SOL    HW153450   2.740   3.810   6.753 -0.0885  0.8869 -1.3814
47712SOL    HW253451   2.872   3.747   6.713  0.5412 -0.6463  2.6183
47713SOL     OW53452  11.928   9.353  12.076  0.0907  0.0267  0.4291
47713SOL    HW153453  11.979   9.433  12.092 -1.0480  1.1251 -1.1970
47713SOL    HW253454  11.993   9.283  12.076  1.3029  1.1162  0.4963
47714SOL     OW53455   5.442   7.085   4.955 -0.3172  0.5212  0.2843
47714SOL    HW153456   5.518   7.131   4.920  0.0312  0.3594  0.8127
47714SOL    HW253457   5.388   7.066   4.879  0.8823 -0.6519 -0.3094
47715SOL     OW53458   2.990   2.844   8.593  0.2722 -0.6854  0.1172
47715SOL    HW153459   2.931   2.915   8.619  0.0630 -0.9345  0.3377
47715SOL    HW253460   2.965   2.771   8.651  1.2094 -0.6113  0.6333
47716SOL     OW53461   5.345   4.529   5.030  0.1347 -0.1952  0.2383
47716SOL    HW153462   5.405   4.455   5.021 -0.3761 -0.5227 -0.5990
47716SOL    HW253463   5.268   4.504   4.979 -1.8290 -0.9046  3.2202
47717SOL     OW53464   4.808  10.996   8.344  0.0477 -0.5660  0.2176
47717SOL    HW153465   4.848  11.026   8.262 -0.5200  0.3394  0.2613
47717SOL    HW253466   4.841  11.057   8.410 -1.2735  0.1283  0.2762
47718SOL     OW53467   9.398  12.041  12.262  0.2750 -0.2354  0.4768
47718SOL    HW153468   9.441  11.974  12.208 -0.0363 -1.1692  1.3741
47718SOL    HW253469   9.321  11.998  12.299  0.8042  0.1784  2.1626
47719SOL     OW53470   9.777   3.810  12.185 -0.0988 -0.0254  0.6652
47719SOL    HW153471   9.791   3.719  12.162  0.6468 -0.2911  2.0266
47719SOL    HW253472   9.725   3.846  12.113  0.7999 -1.1468 -0.6079
47720SOL     OW53473   2.505   0.842   1.452  0.3491  0.3262  0.5606
47720SOL    HW153474   2.583   0.898   1.455  0.4041  0.3189 -0.4344
47720SOL    HW253475   2.472   0.851   1.363  0.6988 -1.6567  0.1790
47721SOL     OW53476   8.322   9.869  12.001 -0.0304 -0.8891  0.2883
47721SOL    HW153477   8.394   9.806  11.991 -0.3081 -1.3515  1.1392
47721SOL    HW253478   8.315   9.882  12.095 -0.2617  0.1026  0.1364
47722SOL     OW53479   9.969   6.820   8.039 -0.3453  0.4129  0.3064
47722SOL    HW153480   9.917   6.899   8.024 -0.7199  0.3034  1.0001
47722SOL    HW253481   9.954   6.767   7.961  1.0744  1.6388 -0.8470
47723SOL     OW53482   4.186   9.904   8.548  0.2044 -0.5612  0.2119
47723SOL    HW153483   4.160   9.960   8.475 -0.7882  0.7690  1.5367
47723SOL    HW253484   4.111   9.846   8.561  1.1902 -2.2417 -1.0938
47724SOL     OW53485   9.611   5.248   0.609  0.2854  0.5385  0.6038
47724SOL    HW153486   9.575   5.306   0.676  1.7250  1.3655  0.6872
47724SOL    HW253487   9.571   5.163   0.627 -1.2646  1.2932  0.9612
47725SOL     OW53488   6.190   3.014   1.481  0.2607 -0.1677  0.4197
47725SOL    HW153489   6.237   2.949   1.533  0.3719 -1.1003 -0.8019
47725SOL    HW253490   6.187   2.977   1.392  1.0549  1.8658 -0.5144
47726SOL     OW53491   3.670   3.559  11.882 -0.0939 -0.3210 -0.6547
47726SOL    HW153492   3.742   3.611  11.847  1.3858 -0.6402  1.6706
47726SOL    HW253493   3.705   3.470  11.888 -0.5857 -0.4553  0.6633
47727SOL     OW53494   7.515   8.865   9.570 -0.0951  0.2273 -0.3175
47727SOL    HW153495   7.530   8.852   9.476 -1.9292 -0.8975 -0.4876
47727SOL    HW253496   7.599   8.842   9.610  0.2508 -0.8527 -1.5594
47728SOL     OW53497   6.043   7.433   8.614  0.4107 -0.3041 -0.5264
47728SOL    HW153498   6.030   7.455   8.521  1.7482  0.7867 -0.4961
47728SOL    HW253499   6.105   7.499   8.645  0.6548 -1.1849  0.9343
47729SOL     OW53500  12.970   1.935   8.412  0.4119  0.6365  0.1344
47729SOL    HW153501  13.028   1.863   8.440  0.5262  0.5895 -0.2154
47729SOL    HW253502  13.030   2.000   8.376  0.3924  1.2956  1.2343
47730SOL     OW53503  12.447  10.869   9.592  0.3379 -0.3238 -0.1036
47730SOL    HW153504  12.509  10.933   9.628  0.9625 -0.6408 -0.6022
47730SOL    HW253505  12.502  10.803   9.551 -0.2287 -1.9832  1.6854
47731SOL     OW53506   1.407  12.150   4.860  0.3518  0.0219 -0.0392
47731SOL    HW153507   1.485  12.204   4.871  0.3988 -0.0159 -0.1864
47731SOL    HW253508   1.430  12.088   4.792  1.9613 -3.2192  3.1212
47732SOL     OW53509   0.536   5.763   1.744 -0.3048 -0.0825 -0.3226
47732SOL    HW153510   0.463   5.820   1.718  0.6094  1.8494  1.1216
47732SOL    HW253511   0.530   5.758   1.839  1.0685 -0.4425 -0.2411
47733SOL     OW53512  11.392  12.589   4.886 -0.0488 -0.6727 -0.5907
47733SOL    HW153513  11.370  12.543   4.967  0.0182 -1.3987 -0.9772
47733SOL    HW253514  11.477  12.630   4.904 -0.5459  0.0983  0.0735
47734SOL     OW53515   7.310  12.727   1.356  0.1112  0.1907 -0.2094
47734SOL    HW153516   7.260  12.756   1.432 -1.1699  0.4439 -1.1042
47734SOL    HW253517   7.287  12.634   1.346 -0.0335  0.2544 -0.5032
47735SOL     OW53518   7.674   3.459  11.741  0.0952 -0.4537  0.4358
47735SOL    HW153519   7.595   3.438  11.692 -0.2913 -0.0241  0.8661
47735SOL    HW253520   7.697   3.548  11.712  0.6908 -0.7539 -0.0366
47736SOL     OW53521   9.665  10.955   4.311  0.4666 -0.3455 -0.3712
47736SOL    HW153522   9.581  10.969   4.268 -0.5547  1.2030  1.9151
47736SOL    HW253523   9.662  10.864   4.341 -1.2381  0.1634  1.2159
47737SOL     OW53524  12.960   3.104  12.421  0.5280  0.0928 -0.9687
47737SOL    HW153525  12.973   3.086  12.328  1.5723  0.7162 -0.9579
47737SOL    HW253526  13.048   3.107  12.458  0.1237 -0.3802  0.1002
47738SOL     OW53527   8.951   5.562   8.286 -0.9184 -0.1520  0.0239
47738SOL    HW153528   8.920   5.606   8.208 -0.7809 -0.0814  0.0097
47738SOL    HW253529   8.999   5.485   8.254  1.2517  1.1586 -0.0705
47739SOL     OW53530   3.300   9.542   0.646 -0.0577  0.5023  0.5360
47739SOL    HW153531   3.220   9.567   0.599  0.1179  0.5925  0.2826
47739SOL    HW253532   3.297   9.447   0.650 -0.1128  0.4987  0.4139
47740SOL     OW53533  12.721   8.974   5.041 -0.1084  0.6849  0.3686
47740SOL    HW153534  12.776   8.896   5.030 -0.1086  0.7343 -0.0197
47740SOL    HW253535  12.755   9.017   5.119 -0.3077  0.1342  0.7695
47741SOL     OW53536   1.253   4.362   5.791  0.0235  0.2270 -0.5340
47741SOL    HW153537   1.249   4.315   5.874 -1.4706 -1.2108 -1.3600
47741SOL    HW253538   1.340   4.403   5.791  0.4989 -0.6800  1.2112
47742SOL     OW53539   8.794   8.377   3.573 -0.4857  0.0142  0.4893
47742SOL    HW153540   8.802   8.330   3.656 -1.2051  1.2667  1.2956
47742SOL    HW253541   8.808   8.469   3.596 -0.6717  0.3776 -0.7791
47743SOL     OW53542  11.678  10.269  12.772 -0.2359  0.4955  0.5545
47743SOL    HW153543  11.635  10.191  12.736  0.0709  0.5133  0.1465
47743SOL    HW253544  11.771  10.248  12.772 -0.2574  0.3032  1.8263
47744SOL     OW53545   5.306  11.977  10.893 -0.1074  0.2221  1.1073
47744SOL    HW153546   5.249  11.904  10.867 -0.0193  0.5527 -0.0660
47744SOL    HW253547   5.394  11.943  10.883 -0.0130  0.9736 -1.0811
47745SOL     OW53548   2.839   0.576   2.787  0.2677 -1.0860 -0.7386
47745SOL    HW153549   2.846   0.649   2.725 -1.4580 -0.5250 -0.3317
47745SOL    HW253550   2.856   0.615   2.873 -0.5276 -1.1749 -0.5338
47746SOL     OW53551   1.946   8.367  11.043  0.1341 -0.4222  0.3299
47746SOL    HW153552   2.037   8.359  11.012  0.4163 -0.2205  1.0816
47746SOL    HW253553   1.917   8.452  11.011  1.1138  0.7384  2.2726
47747SOL     OW53554   4.335   6.921   9.013  0.5308  0.3777  0.3573
47747SOL    HW153555   4.254   6.885   9.047  0.3550 -0.6223 -1.0156
47747SOL    HW253556   4.329   7.015   9.029 -0.6142  0.2354  0.8208
47748SOL     OW53557   2.757   4.130  10.262  0.3120 -0.1044  0.1096
47748SOL    HW153558   2.784   4.159  10.349  0.0006  1.6175 -0.3295
47748SOL    HW253559   2.673   4.172  10.247  1.1841  1.1378 -1.7247
47749SOL     OW53560   9.065   1.514   3.512 -0.4120 -0.0216  0.8269
47749SOL    HW153561   9.136   1.520   3.577 -0.7916 -0.1878  1.2649
47749SOL    HW253562   9.060   1.421   3.491  0.2448  0.1332 -0.0514
47750SOL     OW53563   5.571   2.401   6.258  0.1029 -0.2426  0.2500
47750SOL    HW153564   5.484   2.412   6.219  0.7282  1.6516 -0.6942
47750SOL    HW253565   5.618   2.480   6.235  2.3298 -1.5101  0.1907
47751SOL     OW53566   3.831   4.654   4.519  0.2040 -0.3873 -0.2378
47751SOL    HW153567   3.863   4.744   4.526  0.4313 -0.2809 -2.0578
47751SOL    HW253568   3.785   4.638   4.601  1.2438  0.9443  0.6526
47752SOL     OW53569  11.569   7.643   7.688  0.6837 -0.2678 -0.3304
47752SOL    HW153570  11.607   7.582   7.750  0.9615 -1.6360 -1.8007
47752SOL    HW253571  11.540   7.589   7.615 -1.5074  1.0482 -0.5458
47753SOL     OW53572   5.057   8.576  12.832  0.0409  0.4275 -0.6558
47753SOL    HW153573   5.107   8.494  12.844 -0.1138 -0.0302 -2.7700
47753SOL    HW253574   5.060   8.592  12.738 -2.1629  1.4613 -0.5999
47754SOL     OW53575   7.721   7.464   1.417  0.6801 -0.0561  0.3091
47754SOL    HW153576   7.646   7.517   1.442  0.9251 -0.3257  1.6517
47754SOL    HW253577   7.780   7.467   1.492  1.9233 -0.0461 -0.6228
47755SOL     OW53578   0.629   5.323  10.125 -0.0790 -0.5917  0.3688
47755SOL    HW153579   0.602   5.238  10.161 -0.6924 -1.0184 -0.9955
47755SOL    HW253580   0.724   5.321  10.128 -0.1016 -0.8258  1.4355
47756SOL     OW53581  10.952  12.730   8.826 -0.5397  0.0526 -0.7188
47756SOL    HW153582  10.940  12.665   8.757  1.0976 -1.7084  0.5599
47756SOL    HW253583  10.867  12.734   8.870 -0.8863 -0.6140 -1.3015
47757SOL     OW53584  10.974   8.734  12.518  0.4968 -0.4363 -0.0673
47757SOL    HW153585  11.010   8.745  12.430  0.4320  0.6024  0.0338
47757SOL    HW253586  10.999   8.645  12.543  1.9583 -0.1572 -0.4759
47758SOL     OW53587   3.505   4.746   3.319 -0.3073  0.1320  0.7366
47758SOL    HW153588   3.535   4.686   3.387 -0.5124 -1.3370 -0.3906
47758SOL    HW253589   3.410   4.733   3.315 -0.0577 -1.8081 -1.5043
47759SOL     OW53590   6.362   2.156   0.314 -0.3168  0.3657 -0.0739
47759SOL    HW153591   6.380   2.196   0.399  0.6948 -1.2181  0.5025
47759SOL    HW253592   6.267   2.162   0.304 -0.6211 -0.6754  1.8459
47760SOL     OW53593  10.432   3.528   0.102  0.1589 -0.0376 -0.4293
47760SOL    HW153594  10.381   3.488   0.032  0.3529 -0.2805 -0.4355
47760SOL    HW253595  10.447   3.457   0.164 -0.1000  0.2045 -0.0907
47761SOL     OW53596   0.230   6.818   5.469  0.5280 -0.6767  0.0716
47761SOL    HW153597   0.298   6.822   5.536 -0.0066 -2.0001  0.7263
47761SOL    HW253598   0.185   6.902   5.476 -0.2559 -1.2090  2.2075
47762SOL     OW53599  10.353  11.976   0.181 -0.1877  0.6116 -0.0271
47762SOL    HW153600  10.275  11.956   0.129  0.9612 -0.0740 -1.5822
47762SOL    HW253601  10.353  12.072   0.187  0.0287  0.7984 -2.0370
47763SOL     OW53602  11.883   6.887   1.077 -0.7896 -0.5586 -0.3409
47763SOL    HW153603  11.852   6.811   1.027  0.7970 -1.1546 -0.4589
47763SOL    HW253604  11.854   6.871   1.166 -1.5361 -0.6835 -0.5968
47764SOL     OW53605   7.703   8.335   1.067  0.2155 -0.5178  0.4174
47764SOL    HW153606   7.736   8.374   1.149 -1.4243 -0.7958  1.2631
47764SOL    HW253607   7.612   8.365   1.062 -0.2843 -2.0491 -0.3047
47765SOL     OW53608   8.354  11.512  10.576 -0.0859  0.6593  0.7203
47765SOL    HW153609   8.384  11.481  10.490 -2.0335 -1.1344  0.5900
47765SOL    HW253610   8.358  11.607  10.570  0.9111  0.5621 -0.9480
47766SOL     OW53611   8.775   9.896   7.737  0.2526 -0.3670  0.5995
47766SOL    HW153612   8.709   9.954   7.700 -0.5037 -0.4985  1.6850
47766SOL    HW253613   8.857   9.946   7.733  0.0068 -0.0250 -0.3378
47767SOL     OW53614   1.825   0.288   7.143  0.8885  0.1988 -0.1877
47767SOL    HW153615   1.858   0.203   7.114  0.9875 -0.0859  0.7428
47767SOL    HW253616   1.860   0.299   7.231 -2.4846 -0.7360  1.4511
47768SOL     OW53617   1.140  10.506   0.826 -0.0906 -0.0702  0.3825
47768SOL    HW153618   1.148  10.528   0.734  2.6004 -0.8172  0.3629
47768SOL    HW253619   1.062  10.450   0.831 -0.0191 -0.3847 -1.4853
47769SOL     OW53620   7.100   7.855  11.353  0.5737 -0.0221 -0.1885
47769SOL    HW153621   7.034   7.825  11.415  0.4167 -0.0430 -0.3673
47769SOL    HW253622   7.090   7.797  11.277  0.2927  0.4605 -0.5201
47770SOL     OW53623   9.266   7.996   3.560  0.0610  0.1562 -0.4130
47770SOL    HW153624   9.322   8.066   3.595 -0.4072  0.5654 -0.4686
47770SOL    HW253625   9.295   7.985   3.470  0.3267  0.0812 -0.3202
47771SOL     OW53626   5.770  11.760   8.892  0.1639 -0.6351  0.2534
47771SOL    HW153627   5.742  11.749   8.983 -0.0888 -2.4506 -0.0137
47771SOL    HW253628   5.815  11.679   8.871  1.2330  0.2218 -0.9087
47772SOL     OW53629  10.354   0.622   6.755  0.6240  0.0487 -0.1376
47772SOL    HW153630  10.376   0.665   6.672  0.5232  0.2242 -0.0754
47772SOL    HW253631  10.321   0.536   6.730 -2.7648  1.3199 -0.5749
47773SOL     OW53632   0.922  11.571   0.443 -0.0038 -0.4244 -0.0434
47773SOL    HW153633   0.989  11.621   0.397 -1.4326  0.0477 -1.7001
47773SOL    HW253634   0.892  11.506   0.379 -1.2379 -0.5045  0.5794
47774SOL     OW53635   3.770  10.960   0.984  0.5180 -0.0929 -0.4887
47774SOL    HW153636   3.690  10.911   0.963  0.3595  0.6791 -1.8045
47774SOL    HW253637   3.757  10.989   1.074 -0.0343 -1.1966 -0.1840
47775SOL     OW53638   0.986   1.226  10.550 -0.5974  0.0743  0.8711
47775SOL    HW153639   0.969   1.132  10.543  2.0049 -0.4005 -0.4547
47775SOL    HW253640   0.942   1.252  10.631 -1.4157 -2.2658  1.2732
47776SOL     OW53641   4.446  11.081   1.844 -0.2476  0.5195 -0.5965
47776SOL    HW153642   4.523  11.128   1.876  0.1208 -0.2147 -0.3631
47776SOL    HW253643   4.482  11.010   1.790 -0.7325 -0.1698 -0.0315
47777SOL     OW53644   1.923  10.229   2.328  1.1616 -0.3969 -0.6561
47777SOL    HW153645   1.862  10.209   2.399  0.0243  1.5854 -0.9985
47777SOL    HW253646   1.905  10.162   2.262  1.6001 -1.7182  0.5293
47778SOL     OW53647   2.295   1.255   6.615  0.4808  0.2556 -0.3505
47778SOL    HW153648   2.217   1.228   6.665  0.7471 -1.6782 -0.8752
47778SOL    HW253649   2.336   1.172   6.590  3.4306  1.2029  0.9793
47779SOL     OW53650  10.498   2.936   9.825 -0.4844 -0.1846  0.7994
47779SOL    HW153651  10.593   2.927   9.834 -0.0889  1.8895 -0.3448
47779SOL    HW253652  10.470   2.857   9.779  1.1398  0.2818 -1.1370
47780SOL     OW53653  10.127  12.885  10.638 -0.0432  0.4135 -0.1431
47780SOL    HW153654  10.061  12.817  10.627 -0.8189  0.9716  0.9025
47780SOL    HW253655  10.141  12.890  10.732  0.8381  0.9247 -0.2937
47781SOL     OW53656   3.927   5.994   6.574 -0.6481 -0.0259 -0.1847
47781SOL    HW153657   3.962   6.082   6.560 -0.8233 -0.0607 -0.8976
47781SOL    HW253658   3.867   5.981   6.501 -0.3764 -0.8621 -0.2652
47782SOL     OW53659  12.931   6.712   3.908 -0.2355  0.9419  0.4639
47782SOL    HW153660  12.925   6.807   3.899  0.3758  1.2265  2.4112
47782SOL    HW253661  12.841   6.683   3.923 -0.2698  1.4365  1.3065
47783SOL     OW53662  10.768   8.758  12.830 -0.2164 -0.2903 -0.1163
47783SOL    HW153663  10.823   8.836  12.838 -0.3425 -0.2795  0.6766
47783SOL    HW253664  10.717   8.774  12.750  0.2796  0.1054 -0.3615
47784SOL     OW53665   1.311   1.430  11.729 -0.9719  0.2767 -0.0325
47784SOL    HW153666   1.227   1.438  11.775 -1.1769  0.2865 -0.4007
47784SOL    HW253667   1.334   1.519  11.705  0.1672  0.5355  1.8327
47785SOL     OW53668  11.135   6.906  11.360 -0.0412  0.0692  0.0493
47785SOL    HW153669  11.144   6.813  11.382  1.6111  0.4214  0.9921
47785SOL    HW253670  11.186   6.918  11.281 -0.2082  0.1846 -0.0431
47786SOL     OW53671  11.998  10.888   4.953 -0.1437  0.0725  0.9102
47786SOL    HW153672  12.031  10.899   5.042  0.5255  1.3057  0.5339
47786SOL    HW253673  12.065  10.929   4.898 -1.0741  0.3025 -0.0709
47787SOL     OW53674  10.617   2.692   3.303  0.0426  0.2664  0.4498
47787SOL    HW153675  10.534   2.699   3.257 -1.3403 -1.0072  2.5370
47787SOL    HW253676  10.669   2.632   3.250 -0.2293  1.3013 -1.0324
47788SOL     OW53677  12.418   0.648   3.199  0.1203 -0.1618 -0.0490
47788SOL    HW153678  12.422   0.561   3.239 -3.0068 -0.3684  0.0507
47788SOL    HW253679  12.425   0.708   3.273  2.0577 -0.2740 -0.0950
47789SOL     OW53680   7.496  10.417  12.439  0.3134 -0.3348  0.0517
47789SOL    HW153681   7.476  10.467  12.518 -2.9529 -1.2852 -0.0260
47789SOL    HW253682   7.475  10.477  12.367  0.3277 -0.4716 -0.0665
47790SOL     OW53683   7.654   6.957   7.663  0.3123  0.6102  0.1769
47790SOL    HW153684   7.591   6.898   7.705 -0.2003  0.7496 -0.3706
47790SOL    HW253685   7.670   7.026   7.728  1.3085 -0.3781  1.0246
47791SOL     OW53686   5.216  12.385   5.976  0.1090 -0.3649 -0.2820
47791SOL    HW153687   5.274  12.329   6.028  1.8705  0.0562 -1.6860
47791SOL    HW253688   5.251  12.473   5.989 -1.0102  0.0810 -0.1790
47792SOL     OW53689  10.040   2.474   2.145 -0.6044  0.2773  0.4629
47792SOL    HW153690   9.975   2.421   2.192  1.6510 -2.1517  1.0809
47792SOL    HW253691  10.124   2.438   2.172  0.9311  0.4844 -3.4436
47793SOL     OW53692  11.356   9.712   7.658 -0.0606  0.4415 -0.2622
47793SOL    HW153693  11.375   9.768   7.733 -0.1156 -1.3537  1.1651
47793SOL    HW253694  11.423   9.735   7.593  1.2019  0.7101  1.0744
47794SOL     OW53695   1.845   4.906   4.430 -0.1502  0.3567  0.3056
47794SOL    HW153696   1.864   4.987   4.384  0.7314 -0.4045 -0.7251
47794SOL    HW253697   1.770   4.926   4.485 -1.5133  1.2188 -1.7665
47795SOL     OW53698   5.367   8.256  11.657 -0.2258 -0.0472  0.4875
47795SOL    HW153699   5.286   8.284  11.614 -0.3060 -2.0023 -0.7534
47795SOL    HW253700   5.394   8.178  11.609 -0.0019 -2.0678  3.6579
47796SOL     OW53701  11.222   4.785   0.304 -0.1433 -0.0266 -0.1599
47796SOL    HW153702  11.191   4.748   0.386 -1.2774 -1.5261 -1.2135
47796SOL    HW253703  11.158   4.852   0.281 -1.3047 -1.3807 -1.0606
47797SOL     OW53704  11.965  12.658   3.360  0.2173  0.1095 -0.0834
47797SOL    HW153705  12.012  12.723   3.412  0.7199  0.4207 -0.9129
47797SOL    HW253706  12.022  12.582   3.360  0.2014  0.0984 -0.1589
47798SOL     OW53707   8.765  12.520   5.686  0.2560  0.0196 -0.3394
47798SOL    HW153708   8.728  12.446   5.638 -1.0031  1.0479 -1.0330
47798SOL    HW253709   8.760  12.593   5.624  0.9805  0.8092  0.5037
47799SOL     OW53710   1.797   9.330  12.137  0.3557  0.2758 -0.2513
47799SOL    HW153711   1.877   9.280  12.152  0.4640  0.3677 -0.5135
47799SOL    HW253712   1.775   9.367  12.222  0.2608 -0.2378 -0.0477
47800SOL     OW53713  12.570   0.671   9.744  0.0882  0.4038  0.0509
47800SOL    HW153714  12.522   0.626   9.675 -0.7155  0.2962  0.6721
47800SOL    HW253715  12.625   0.734   9.697  0.0032 -0.0805 -0.7175
47801SOL     OW53716   2.881   9.767   3.427  0.1265  0.6249 -0.6172
47801SOL    HW153717   2.895   9.680   3.464 -0.4739  0.9454  0.3861
47801SOL    HW253718   2.788   9.769   3.406  0.1696  0.9774 -0.7812
47802SOL     OW53719   5.709   9.613   3.557 -0.8161  0.1764 -0.3404
47802SOL    HW153720   5.799   9.643   3.568 -0.5849 -1.0096  1.5999
47802SOL    HW253721   5.671   9.671   3.492  1.1410  1.1554 -0.6613
47803SOL     OW53722   4.527  12.160   3.385 -0.1241  0.2373  0.0481
47803SOL    HW153723   4.591  12.231   3.382  0.6777 -0.2037  3.0760
47803SOL    HW253724   4.455  12.196   3.436  0.0226 -0.8683  1.0777
47804SOL     OW53725   1.334   9.394   0.052 -0.0185  0.2667 -0.8501
47804SOL    HW153726   1.384   9.325   0.008 -0.5603 -1.3554  0.9604
47804SOL    HW253727   1.384   9.412   0.132 -2.0499 -1.1301  0.8217
47805SOL     OW53728  11.520  12.611   5.500  0.2184  0.2437  0.2287
47805SOL    HW153729  11.488  12.531   5.541  0.1452 -0.1308 -0.5537
47805SOL    HW253730  11.500  12.680   5.564  0.4402 -0.3758  0.9852
47806SOL     OW53731   3.401   0.710   1.811 -0.1889  0.2743 -0.1511
47806SOL    HW153732   3.319   0.680   1.771 -0.1351 -0.1866  0.0734
47806SOL    HW253733   3.374   0.751   1.893 -0.1171 -0.8053  0.4255
47807SOL     OW53734   9.487  10.491  11.770  0.1986  0.2882  0.3495
47807SOL    HW153735   9.458  10.506  11.860 -1.6613  1.8739 -0.4325
47807SOL    HW253736   9.407  10.467  11.723  1.0635 -0.1357 -0.9669
47808SOL     OW53737  12.692   5.771   3.912  0.2279 -0.0873 -0.0795
47808SOL    HW153738  12.774   5.746   3.956 -0.4969 -2.6348 -0.0536
47808SOL    HW253739  12.718   5.792   3.823  1.1946  1.5016  0.5254
47809SOL     OW53740   1.138   9.168   4.861 -0.8993 -0.2997  0.0077
47809SOL    HW153741   1.124   9.148   4.768  1.0005 -0.9945 -0.1849
47809SOL    HW253742   1.198   9.099   4.891 -0.7914  0.4195  1.5326
47810SOL     OW53743   6.543   0.143   9.874  0.3008  0.4643 -0.2586
47810SOL    HW153744   6.542   0.232   9.838  1.4518  0.1844 -1.0282
47810SOL    HW253745   6.499   0.090   9.808 -1.0282  0.5512  0.5221
47811SOL     OW53746   1.276  12.028   7.124 -0.4066  0.4804 -0.4559
47811SOL    HW153747   1.196  11.994   7.165  0.6235  1.0000  2.1853
47811SOL    HW253748   1.271  11.998   7.034 -2.1732 -2.0193  0.3587
47812SOL     OW53749   8.705   4.621   6.574 -0.0600  0.2740 -0.2035
47812SOL    HW153750   8.651   4.592   6.501 -0.0672  0.2612 -0.1933
47812SOL    HW253751   8.795   4.608   6.543 -0.0616 -0.3502  0.0322
47813SOL     OW53752   8.818   0.544  12.121 -0.1266 -0.1001  0.5089
47813SOL    HW153753   8.866   0.618  12.082 -0.6362  0.3448  0.7191
47813SOL    HW253754   8.729   0.577  12.135 -0.5544 -0.9816 -0.0560
47814SOL     OW53755   9.069   2.339  10.234 -0.2584 -0.3445  0.4074
47814SOL    HW153756   9.041   2.307  10.320  1.4245 -1.7333  0.5117
47814SOL    HW253757   8.992   2.330  10.178 -1.1601 -0.1363  1.5814
47815SOL     OW53758  10.803   0.598   7.015 -0.3998  0.1830 -0.0006
47815SOL    HW153759  10.813   0.594   7.110  1.6677  1.6003 -0.0971
47815SOL    HW253760  10.773   0.687   6.998  3.0489  1.3151 -0.8423
47816SOL     OW53761   5.943   8.593  10.626  0.0405 -0.1557  1.0247
47816SOL    HW153762   6.028   8.568  10.661  0.2998  0.8818  1.1653
47816SOL    HW253763   5.955   8.682  10.593 -0.9804  0.0027  1.0304
47817SOL     OW53764   3.937   1.841   3.919  0.6043  0.4112 -0.4297
47817SOL    HW153765   3.950   1.797   4.003  1.7977 -0.1511 -0.8867
47817SOL    HW253766   3.921   1.770   3.857 -0.3855  0.8295 -0.6768
47818SOL     OW53767   9.723   8.968   2.718 -0.4027 -0.1876  0.3222
47818SOL    HW153768   9.685   9.010   2.795 -2.0979 -1.3887  0.1878
47818SOL    HW253769   9.662   8.988   2.647  0.1113 -0.7285 -0.2867
47819SOL     OW53770   9.554   7.724   9.078 -0.3569  0.3926 -0.3031
47819SOL    HW153771   9.622   7.699   9.141  0.6326  0.7638 -1.2114
47819SOL    HW253772   9.534   7.644   9.031 -0.0418  0.4347 -0.5103
47820SOL     OW53773  12.614   1.479   4.819  0.5794  0.3128 -0.0463
47820SOL    HW153774  12.565   1.554   4.785  2.0296  0.7235 -1.3396
47820SOL    HW253775  12.566   1.452   4.897 -2.4621 -0.1411 -1.9374
47821SOL     OW53776  10.652  12.679   1.233  0.0883  0.3463 -0.0745
47821SOL    HW153777  10.728  12.667   1.176  0.4116 -2.0351  0.7452
47821SOL    HW253778  10.658  12.770   1.262  1.9487  0.5540 -0.9467
47822SOL     OW53779   7.948   4.137   4.328  0.0490 -0.0366 -0.2944
47822SOL    HW153780   7.941   4.141   4.233 -0.0932  1.4464 -0.2485
47822SOL    HW253781   7.974   4.225   4.354  1.1729 -0.7076  0.9705
47823SOL     OW53782   1.039   8.585   6.330  0.0495  0.1789  0.0157
47823SOL    HW153783   0.962   8.624   6.370  0.2516  1.0893 -0.4456
47823SOL    HW253784   1.085   8.659   6.290  0.6109 -0.4959 -0.6164
47824SOL     OW53785   5.394   6.163   3.443  0.1478 -0.1576  0.1098
47824SOL    HW153786   5.353   6.238   3.485 -1.0976 -1.1685  0.7945
47824SOL    HW253787   5.476   6.197   3.406 -1.2445  1.9351 -1.2451
47825SOL     OW53788   1.253   5.502   9.896  0.3120  0.2447 -0.6474
47825SOL    HW153789   1.216   5.511   9.983 -0.8559  0.3784 -1.1367
47825SOL    HW253790   1.308   5.579   9.884  3.5734 -1.5141  1.3460
47826SOL     OW53791   8.332   1.408   1.092  0.4371  0.4181 -0.1254
47826SOL    HW153792   8.299   1.371   1.174 -0.4755 -1.6372 -1.3263
47826SOL    HW253793   8.418   1.368   1.080  0.9237  1.3474  0.2149
47827SOL     OW53794   3.502   4.207   4.154  0.0315 -0.0413  0.0395
47827SOL    HW153795   3.436   4.275   4.139 -0.1704  0.0657  1.3150
47827SOL    HW253796   3.571   4.227   4.090 -0.9410  0.1238 -0.9937
47828SOL     OW53797  11.424  11.407   8.264  0.1134 -0.2328  0.4457
47828SOL    HW153798  11.515  11.427   8.285 -0.4989  2.4032  0.9716
47828SOL    HW253799  11.376  11.425   8.344 -0.8986 -1.8728  0.2625
47829SOL     OW53800  12.730   2.998   8.963 -0.7851  0.2663 -0.1750
47829SOL    HW153801  12.712   3.076   8.911  1.1153  0.4451 -0.6445
47829SOL    HW253802  12.790   3.028   9.032  0.0348 -0.7553 -0.4146
47830SOL     OW53803   5.245  11.145   4.796 -0.0433  0.2163  0.5382
47830SOL    HW153804   5.256  11.095   4.877  0.1799  0.3089  0.5654
47830SOL    HW253805   5.163  11.193   4.809  0.1027  0.3985  0.8011
47831SOL     OW53806   2.184   8.461   6.029  0.7136 -0.1212 -0.7973
47831SOL    HW153807   2.156   8.551   6.012  2.4146  0.2343 -1.9495
47831SOL    HW253808   2.274   8.458   5.998  1.1855 -1.8397  0.5861
47832SOL     OW53809   5.034   6.464   1.603 -0.2248 -0.2703  0.1065
47832SOL    HW153810   5.098   6.392   1.600  1.3804  1.1014  0.1840
47832SOL    HW253811   5.043   6.499   1.692  1.7103  2.3097 -0.9891
47833SOL     OW53812  10.948   1.236   4.460  0.0154 -0.3872 -0.8711
47833SOL    HW153813  11.014   1.257   4.393  0.9557 -1.1955 -0.2273
47833SOL    HW253814  10.874   1.293   4.439  1.7175  2.1968 -0.3472
47834SOL     OW53815   0.397   7.200   1.884  0.5784 -0.2876  0.6119
47834SOL    HW153816   0.384   7.187   1.978 -0.7830 -1.2622  0.3095
47834SOL    HW253817   0.452   7.127   1.857  0.7956 -0.1222  0.5984
47835SOL     OW53818   8.879   5.361   5.611 -0.1623  0.0463 -0.0446
47835SOL    HW153819   8.955   5.419   5.609 -1.8092  2.3040 -1.7906
47835SOL    HW253820   8.879   5.319   5.524  0.8259 -2.5085  1.0681
47836SOL     OW53821  11.076   9.364  11.235  0.8582 -0.2055  0.0429
47836SOL    HW153822  11.009   9.389  11.171  0.4846 -0.4474  0.3308
47836SOL    HW253823  11.152   9.418  11.214 -0.3305  2.2254  1.4931
47837SOL     OW53824   1.973  12.357  12.041 -0.4426  0.2647 -0.9455
47837SOL    HW153825   2.067  12.343  12.028 -0.5177 -0.7850 -0.4903
47837SOL    HW253826   1.948  12.418  11.972  0.5741  0.5689 -1.0633
47838SOL     OW53827   2.169   7.401   7.676  0.4665  0.2551 -0.3994
47838SOL    HW153828   2.173   7.361   7.763  1.5401 -0.1033 -0.5999
47838SOL    HW253829   2.076   7.395   7.652  0.2263 -0.0306  0.5355
47839SOL     OW53830   9.807   7.058   6.714 -0.1512 -0.2843 -0.0858
47839SOL    HW153831   9.864   6.994   6.672 -0.1871 -0.6691  0.4533
47839SOL    HW253832   9.844   7.143   6.690 -0.0162 -0.5056 -0.6738
47840SOL     OW53833   9.796   4.943   2.419  0.2858 -0.0331 -0.1282
47840SOL    HW153834   9.794   4.979   2.330 -0.6588 -0.4339 -0.2853
47840SOL    HW253835   9.704   4.930   2.441  0.5656 -1.2735  0.3676
47841SOL     OW53836  11.328   0.520   9.800  0.1599 -0.4815  0.2593
47841SOL    HW153837  11.295   0.515   9.710  0.5104 -0.2734  0.1193
47841SOL    HW253838  11.340   0.429   9.826  0.5478 -0.5329 -0.0856
47842SOL     OW53839   9.140  11.414  11.515 -0.0208  0.3765 -0.1256
47842SOL    HW153840   9.087  11.365  11.578 -0.6639  0.7998 -0.3256
47842SOL    HW253841   9.227  11.419  11.555  0.2888 -1.6190 -0.4695
47843SOL     OW53842   0.108  11.121  10.824  0.1150 -0.5228 -0.0859
47843SOL    HW153843   0.149  11.096  10.907  0.4541  0.5851  0.1060
47843SOL    HW253844   0.182  11.135  10.764 -0.1226 -1.1717 -0.5431
47844SOL     OW53845  10.241   9.882  10.290  0.2391 -0.6748 -0.0369
47844SOL    HW153846  10.171   9.880  10.355 -0.4391  0.4731 -0.7056
47844SOL    HW253847  10.205   9.932  10.217  1.5191 -0.6494 -0.6811
47845SOL     OW53848  11.334   1.738   5.630 -0.4819 -0.2268 -0.5019
47845SOL    HW153849  11.298   1.650   5.617 -0.5449 -0.1112 -1.1458
47845SOL    HW253850  11.427   1.724   5.645 -0.6608 -0.4762  0.4172
47846SOL     OW53851   1.059   9.129   2.082  0.0310  0.5100 -0.6117
47846SOL    HW153852   0.994   9.070   2.045 -0.6299  1.0657 -0.3693
47846SOL    HW253853   1.109   9.160   2.007  0.6495 -0.6395 -0.7025
47847SOL     OW53854   7.281   0.611   3.510 -0.2491  0.5913  0.3350
47847SOL    HW153855   7.302   0.670   3.583  0.7710  1.6108 -0.7299
47847SOL    HW253856   7.230   0.664   3.450 -0.0198  0.1469 -0.2646
47848SOL     OW53857   9.296   7.270   9.878 -0.2955  0.5765  0.3831
47848SOL    HW153858   9.234   7.206   9.913 -0.6243  0.8306  0.2702
47848SOL    HW253859   9.242   7.334   9.833 -0.0992  1.7315  1.7211
47849SOL     OW53860   6.219   1.162  12.891  0.0070  0.0852  0.3813
47849SOL    HW153861   6.312   1.182  12.883  0.8516 -2.8383  1.3334
47849SOL    HW253862   6.190   1.147  12.801  0.9207 -0.5330  0.1712
47850SOL     OW53863   5.861   1.327   5.585  0.5061 -0.0007  0.1220
47850SOL    HW153864   5.940   1.305   5.634 -0.9778 -2.5649  1.5541
47850SOL    HW253865   5.790   1.285   5.633 -1.8812  2.7214 -0.7397
47851SOL     OW53866   3.007   2.739  11.430 -0.1317  0.6984 -0.2513
47851SOL    HW153867   3.041   2.671  11.372  0.0841 -0.2741  0.9866
47851SOL    HW253868   3.074   2.808  11.427  0.8166 -0.1768  0.3164
47852SOL     OW53869   8.725   8.261   4.447  0.1868  0.6982 -0.0272
47852SOL    HW153870   8.646   8.314   4.456 -0.0892  0.7056 -2.1013
47852SOL    HW253871   8.695   8.171   4.465 -0.1763  0.7629 -0.3020
47853SOL     OW53872  10.987   8.715  11.259  0.2860 -0.2000 -0.2949
47853SOL    HW153873  10.905   8.754  11.231 -1.2060 -3.5667 -1.2004
47853SOL    HW253874  11.036   8.700  11.178  1.5076  1.0659  0.1697
47854SOL     OW53875   1.179   4.896   8.066 -0.0252  0.2730 -0.1807
47854SOL    HW153876   1.083   4.894   8.057 -0.0187  1.0896 -0.5326
47854SOL    HW253877   1.210   4.831   8.003 -0.3630 -0.3674  0.3010
47855SOL     OW53878  10.526   7.235  10.505  0.4351 -0.2841  0.2768
47855SOL    HW153879  10.575   7.288  10.568  0.7122 -1.4463  1.0841
47855SOL    HW253880  10.442   7.219  10.546 -0.1248  0.5443 -0.5057
47856SOL     OW53881   1.939  12.508  12.300  0.3248 -0.4891 -0.0456
47856SOL    HW153882   2.032  12.529  12.305  0.8551 -2.4386 -0.8378
47856SOL    HW253883   1.930  12.457  12.220 -1.4330 -0.3748  0.0377
47857SOL     OW53884  10.658   2.935  12.120  0.0392 -0.6064 -0.4279
47857SOL    HW153885  10.632   2.847  12.146 -1.4769  0.4715  2.1093
47857SOL    HW253886  10.658   2.985  12.202 -1.5386  2.3324 -2.0543
47858SOL     OW53887   2.097   0.712   1.047 -0.1474 -0.3699  0.0065
47858SOL    HW153888   2.184   0.745   1.026  0.0288  0.9871  2.4325
47858SOL    HW253889   2.038   0.768   0.997  0.3314 -0.0708 -0.2326
47859SOL     OW53890   6.145   8.103   1.077 -0.4804  0.0329  0.2999
47859SOL    HW153891   6.061   8.118   1.034  0.2571  0.4519 -1.0661
47859SOL    HW253892   6.203   8.171   1.041  0.5233 -0.4492  0.9538
47860SOL     OW53893   5.183   0.239  11.223 -0.0734 -0.7827  0.4049
47860SOL    HW153894   5.182   0.143  11.221  4.0778 -0.9983 -0.3852
47860SOL    HW253895   5.171   0.265  11.132 -0.9410 -0.5420  0.5829
47861SOL     OW53896   1.810   0.645   4.439 -0.2273 -0.0461  0.2350
47861SOL    HW153897   1.743   0.643   4.372 -0.0577 -0.3319  0.0707
47861SOL    HW253898   1.775   0.592   4.511 -0.0611 -0.4387  0.0325
47862SOL     OW53899   7.535   0.958  10.893  0.0416 -0.7272  0.5668
47862SOL    HW153900   7.578   1.033  10.933  0.6726 -0.6724 -0.1824
47862SOL    HW253901   7.446   0.959  10.928  0.5218 -0.6025  1.8223
47863SOL     OW53902   2.402   6.172  10.419 -0.6443  0.5374 -0.1159
47863SOL    HW153903   2.420   6.140  10.330  0.7952  0.9205  0.0194
47863SOL    HW253904   2.455   6.115  10.476  0.7314  2.1065  0.2457
47864SOL     OW53905   1.437  11.554  12.401  0.3474 -0.1596 -0.6729
47864SOL    HW153906   1.372  11.600  12.455 -0.1590  0.2025 -1.5689
47864SOL    HW253907   1.516  11.552  12.455 -0.1744  0.0928  0.1218
47865SOL     OW53908   1.109   0.839   2.416 -0.3980  0.3394  0.0695
47865SOL    HW153909   1.121   0.764   2.358  0.1140  1.5004 -1.4052
47865SOL    HW253910   1.120   0.804   2.504  0.8713 -1.1171 -0.6237
47866SOL     OW53911   1.692   9.591   6.256 -0.3358  0.2395 -0.4440
47866SOL    HW153912   1.740   9.512   6.282 -0.1736  0.7128  0.7638
47866SOL    HW253913   1.714   9.656   6.324  0.4599  1.7036 -2.0171
47867SOL     OW53914   2.946   6.982   1.427 -0.0093 -0.5048  0.3772
47867SOL    HW153915   2.914   7.021   1.508 -0.3263 -1.5876  0.7918
47867SOL    HW253916   3.003   7.048   1.388  0.3941 -0.0975  1.6414
47868SOL     OW53917   4.926  11.772   7.556  0.0277 -0.5223 -0.3382
47868SOL    HW153918   4.966  11.736   7.635 -0.7497  1.5510  1.1157
47868SOL    HW253919   4.832  11.775   7.577 -0.0728  1.0585 -0.8748
47869SOL     OW53920   3.066   7.141   7.461 -0.5415  0.0704  0.0837
47869SOL    HW153921   3.083   7.219   7.514 -0.6085  0.4774 -0.4940
47869SOL    HW253922   3.040   7.074   7.525 -0.2571  0.4479  0.6053
47870SOL     OW53923  10.453   0.702   9.090  0.1061 -0.0189  0.0020
47870SOL    HW153924  10.474   0.617   9.129  0.8611 -0.2076 -0.7935
47870SOL    HW253925  10.514   0.711   9.016 -0.7683  0.6821 -0.6566
47871SOL     OW53926   8.910   8.663  11.657 -0.3537  0.0821  0.5810
47871SOL    HW153927   8.879   8.585  11.703  0.4504 -0.8407 -0.3873
47871SOL    HW253928   8.838   8.685  11.597 -0.4974 -0.0254  0.7116
47872SOL     OW53929  10.400   3.995   3.499 -0.0097 -0.1454 -0.4557
47872SOL    HW153930  10.406   4.090   3.503  1.2075 -0.2418  1.4618
47872SOL    HW253931  10.466   3.964   3.561 -2.7690 -2.1811  1.7565
47873SOL     OW53932   4.847   9.206   7.974 -0.1223  0.8335  0.6236
47873SOL    HW153933   4.909   9.170   7.912 -1.0005 -0.9497  0.7293
47873SOL    HW253934   4.788   9.260   7.921 -0.4652 -0.1349  0.0045
47874SOL     OW53935   1.274   6.552  10.524 -0.1237 -0.2109 -0.0857
47874SOL    HW153936   1.281   6.467  10.567 -0.7343 -0.3937 -0.3355
47874SOL    HW253937   1.357   6.596  10.544  1.0884 -1.6470 -1.6190
47875SOL     OW53938   6.334   0.034   6.111  0.1909 -0.5427 -0.0483
47875SOL    HW153939   6.392  -0.040   6.095  0.0769 -0.3849 -1.2832
47875SOL    HW253940   6.361   0.100   6.047 -2.0674 -0.9008 -1.5020
47876SOL     OW53941  10.703   8.267   5.096 -0.3150 -0.3478  0.0013
47876SOL    HW153942  10.736   8.179   5.118 -0.7678  0.1249  3.0216
47876SOL    HW253943  10.650   8.253   5.018 -1.4810 -3.0898  1.1224
47877SOL     OW53944  12.082  10.735   7.227  0.0503  0.1556 -0.6666
47877SOL    HW153945  12.167  10.727   7.184  1.1161  2.4508  0.8235
47877SOL    HW253946  12.046  10.817   7.194  2.2045  3.6587  4.5061
47878SOL     OW53947  11.019   4.279   2.828 -0.3445 -0.1273  0.0377
47878SOL    HW153948  10.925   4.296   2.837 -0.0903  0.5476  1.7456
47878SOL    HW253949  11.039   4.217   2.897  0.5075 -0.1498 -0.2159
47879SOL     OW53950   4.363   3.299  12.516  0.1776 -0.7115 -0.0828
47879SOL    HW153951   4.447   3.343  12.504  0.5773 -1.1736  0.9259
47879SOL    HW253952   4.381   3.229  12.579 -0.8918 -1.0227 -0.1033
47880SOL     OW53953  12.125   1.587   7.633  0.1545  0.4998 -0.0313
47880SOL    HW153954  12.194   1.630   7.683 -0.3316  0.1226  0.9831
47880SOL    HW253955  12.135   1.622   7.544  2.5077 -0.5711 -0.2686
47881SOL     OW53956   3.527   1.592  10.684 -0.0225  0.1611 -0.3686
47881SOL    HW153957   3.546   1.666  10.742 -0.7082 -0.9149  1.2870
47881SOL    HW253958   3.433   1.601  10.664 -0.0328 -0.0851 -0.4323
47882SOL     OW53959   1.792   9.887   7.636  0.2793  0.2169  0.1437
47882SOL    HW153960   1.738   9.947   7.585  0.1401  0.1495  0.2112
47882SOL    HW253961   1.851   9.944   7.685 -0.3564  0.3403  0.7855
47883SOL     OW53962  11.301   3.884   2.766 -0.2713 -0.1481  0.0708
47883SOL    HW153963  11.218   3.866   2.723  0.6757 -1.1061 -1.4617
47883SOL    HW253964  11.280   3.888   2.859 -2.0582 -0.0876 -0.3057
47884SOL     OW53965   1.377   4.925   6.388  0.2273 -0.0299  0.0790
47884SOL    HW153966   1.368   4.837   6.352 -0.0501 -0.1944  0.5364
47884SOL    HW253967   1.303   4.934   6.448  0.2022  0.5491 -0.0314
47885SOL     OW53968  10.513   9.515   5.007 -0.0023  0.1177 -0.1896
47885SOL    HW153969  10.592   9.566   5.022 -0.5312  1.0186 -0.3882
47885SOL    HW253970  10.488   9.534   4.917  0.1133 -0.9721 -0.4680
47886SOL     OW53971  10.734  11.119   7.850  0.0836 -0.5564  0.1402
47886SOL    HW153972  10.699  11.127   7.939 -1.6277 -1.0582 -0.4540
47886SOL    HW253973  10.658  11.100   7.796  1.3937 -2.7164 -1.0982
47887SOL     OW53974  11.022   4.165   6.610  0.4101 -0.3384 -0.3685
47887SOL    HW153975  11.026   4.224   6.534  0.6613 -0.5380 -0.5080
47887SOL    HW253976  11.112   4.137   6.624  0.0801 -2.0238 -1.3445
47888SOL     OW53977  12.031  10.971   0.809 -0.4467  0.3484 -0.4366
47888SOL    HW153978  12.102  10.963   0.872  0.0992  2.1522 -0.7729
47888SOL    HW253979  11.972  11.035   0.847 -1.6494 -0.7304 -0.4213
47889SOL     OW53980   0.842   1.080   0.976 -0.2830  0.1089  0.1101
47889SOL    HW153981   0.850   1.122   0.891  2.4147  1.0812  0.7422
47889SOL    HW253982   0.849   0.986   0.958 -0.6961  0.2399 -0.7948
47890SOL     OW53983   8.726   4.397   5.463  0.2922 -0.1409 -0.0913
47890SOL    HW153984   8.764   4.436   5.384  0.1242 -1.1614 -0.6882
47890SOL    HW253985   8.794   4.406   5.530  0.3991  0.8186 -0.3169
47891SOL     OW53986   6.067   9.106   6.110 -0.5186 -0.1645  0.0038
47891SOL    HW153987   6.112   9.154   6.180 -1.0529 -0.2639  0.4264
47891SOL    HW253988   6.100   9.145   6.029  0.4943 -0.3895  0.2908
47892SOL     OW53989   8.333   3.317   3.757 -0.0438  0.5324 -0.1525
47892SOL    HW153990   8.362   3.225   3.756  2.0403  1.1182 -2.0305
47892SOL    HW253991   8.295   3.330   3.670  1.1161  1.8039 -0.5045
47893SOL     OW53992   2.242  11.046   2.351  0.1498  0.1179 -0.1221
47893SOL    HW153993   2.208  11.056   2.262  0.3961 -0.1221 -0.2431
47893SOL    HW253994   2.295  10.966   2.349 -0.2216 -0.1435  0.3590
47894SOL     OW53995   4.448   6.192   9.385 -0.0885 -0.0636  0.2363
47894SOL    HW153996   4.514   6.215   9.451 -0.0571  0.1416  0.1347
47894SOL    HW253997   4.449   6.096   9.383  0.3150 -0.0605  0.1266
47895SOL     OW53998  10.425  10.893  12.765  0.1536 -0.2018  0.3144
47895SOL    HW153999  10.365  10.851  12.827 -0.4954  0.7646  0.3632
47895SOL    HW254000  10.429  10.833  12.690  1.7210 -1.8782  1.6502
47896SOL     OW54001  12.816   8.243  10.648  0.3801 -0.3199  0.0722
47896SOL    HW154002  12.779   8.331  10.639 -0.0478 -0.6001 -1.1079
47896SOL    HW254003  12.909   8.254  10.628  0.2430 -0.2009 -0.5106
47897SOL     OW54004   7.304   9.758   1.706  0.0712 -0.4904  0.3278
47897SOL    HW154005   7.293   9.799   1.620  1.0287 -1.0572 -0.0863
47897SOL    HW254006   7.398   9.769   1.725 -0.1955 -0.0546  1.4724
47898SOL     OW54007   1.854   5.750   1.094 -0.1975 -0.2516 -0.3393
47898SOL    HW154008   1.766   5.738   1.128 -0.5838 -0.3646 -1.3506
47898SOL    HW254009   1.870   5.844   1.104 -1.7398  0.4278 -3.1001
47899SOL     OW54010  12.810  10.405  12.273 -0.2667  0.2610 -0.1165
47899SOL    HW154011  12.779  10.433  12.187  1.8751  2.0080 -0.4267
47899SOL    HW254012  12.765  10.462  12.335 -0.3272  0.3495 -0.2419
47900SOL     OW54013  12.113   2.410   7.435  0.1962 -0.6867 -0.0804
47900SOL    HW154014  12.134   2.430   7.526 -1.3339  0.7825  0.0097
47900SOL    HW254015  12.072   2.323   7.439 -2.7445  0.6067  1.1952
47901SOL     OW54016   6.693   4.133   2.101 -0.0273  0.2359  0.1022
47901SOL    HW154017   6.744   4.201   2.144  0.1736 -0.9081  1.7545
47901SOL    HW254018   6.639   4.095   2.171  0.9147 -2.2540 -0.4069
47902SOL     OW54019   8.271   8.131   8.618  0.0638  0.0530 -0.1301
47902SOL    HW154020   8.194   8.170   8.575 -0.0091  1.4888  1.2153
47902SOL    HW254021   8.346   8.172   8.575 -0.0140  1.8827  1.3679
47903SOL     OW54022   9.054   9.352   5.287 -0.4553  0.3274  0.0380
47903SOL    HW154023   9.048   9.279   5.349 -0.2225  0.1775 -0.1148
47903SOL    HW254024   9.029   9.313   5.203 -1.7762  0.7572  0.2083
47904SOL     OW54025  12.155   3.595   3.594  0.6213 -0.4055  0.3475
47904SOL    HW154026  12.233   3.540   3.600 -0.0189 -1.2811  0.6961
47904SOL    HW254027  12.179   3.675   3.642  0.6643 -1.4386  2.1066
47905SOL     OW54028  11.868   2.667   0.259 -0.0028  0.1144 -0.0508
47905SOL    HW154029  11.879   2.725   0.335  0.1787 -1.4131  1.1509
47905SOL    HW254030  11.924   2.592   0.278  0.5890 -0.0127 -2.0566
47906SOL     OW54031   0.149   2.224  12.696 -0.9897 -0.5931  0.0743
47906SOL    HW154032   0.058   2.226  12.728 -0.5425  0.1984  1.3950
47906SOL    HW254033   0.201   2.252  12.771  0.0555  2.4775 -1.6326
47907SOL     OW54034   8.190   2.130  11.629 -0.4419 -0.1894  0.0070
47907SOL    HW154035   8.233   2.049  11.656 -2.9107 -0.7682  2.6426
47907SOL    HW254036   8.227   2.197  11.686 -0.8263 -0.0974  0.1456
47908SOL     OW54037   9.027   6.937   7.833 -0.1260  0.0504 -0.5288
47908SOL    HW154038   8.986   6.901   7.755 -0.1852  2.5079 -1.7440
47908SOL    HW254039   8.970   6.910   7.905 -0.9111 -1.0166 -1.5222
47909SOL     OW54040   0.028  12.281   3.196  0.0901  0.8046 -0.2094
47909SOL    HW154041  -0.017  12.320   3.271 -0.1406 -0.2445  0.2275
47909SOL    HW254042   0.114  12.257   3.230  0.6862  2.0369 -0.8114
47910SOL     OW54043   9.482  12.192   0.266  0.0850  0.2756 -0.1774
47910SOL    HW154044   9.399  12.214   0.310  0.6581  1.2156  0.4537
47910SOL    HW254045   9.490  12.097   0.277 -1.3653  0.0219 -1.0660
47911SOL     OW54046   8.659   8.114   5.795  0.1652  0.6336 -0.5666
47911SOL    HW154047   8.607   8.131   5.717 -0.3740 -0.5773 -0.4961
47911SOL    HW254048   8.607   8.050   5.845  0.6752  1.0902  0.5950
47912SOL     OW54049  11.869   4.802  10.391 -0.5228  0.4535  0.1697
47912SOL    HW154050  11.936   4.866  10.366  0.9942 -0.8734  0.7322
47912SOL    HW254051  11.915   4.718  10.394 -2.6666 -0.8783 -1.4936
47913SOL     OW54052   7.350  12.011   9.255 -0.2277  0.2195  0.8327
47913SOL    HW154053   7.301  11.936   9.287  1.1246 -0.1350  2.1685
47913SOL    HW254054   7.320  12.085   9.309  0.4565  0.0669  1.4300
47914SOL     OW54055   3.030   5.011  12.799 -0.1831 -0.5525 -0.0311
47914SOL    HW154056   2.980   4.931  12.812  2.0499 -2.0149  0.2374
47914SOL    HW254057   3.040   5.019  12.704 -0.7039 -0.3885 -0.0738
47915SOL     OW54058   9.427   9.014  12.861 -0.4826  0.4065  0.0009
47915SOL    HW154059   9.485   9.088  12.841 -0.2660  0.0156 -0.8461
47915SOL    HW254060   9.424   8.963  12.780 -0.7017 -0.4666  0.5461
47916SOL     OW54061   8.995   9.185   5.773 -0.8200 -0.3430  0.3600
47916SOL    HW154062   9.041   9.238   5.709  1.5391 -2.1234  0.4142
47916SOL    HW254063   9.012   9.228   5.857  1.8575 -1.4948  0.5237
47917SOL     OW54064   2.111  12.790   1.274  0.2933 -0.1506  0.1618
47917SOL    HW154065   2.044  12.770   1.209  0.7794 -0.2674 -0.3126
47917SOL    HW254066   2.070  12.853   1.333 -0.1772 -0.1046 -0.2107
47918SOL     OW54067   1.541   1.109   8.458 -0.3572  0.4373 -0.0756
47918SOL    HW154068   1.544   1.148   8.545 -0.1853  0.8610 -0.2698
47918SOL    HW254069   1.595   1.167   8.404 -1.6275  0.9999 -0.7858
47919SOL     OW54070   0.175  11.806   9.093 -0.4246  0.6846  0.2708
47919SOL    HW154071   0.083  11.805   9.119 -0.1750 -0.9694  1.2412
47919SOL    HW254072   0.188  11.723   9.047  0.4283  1.2121 -0.4810
47920SOL     OW54073   5.155   1.376   8.389 -0.1819  0.0920 -0.1994
47920SOL    HW154074   5.104   1.451   8.360  0.3982  0.3934 -0.4396
47920SOL    HW254075   5.224   1.366   8.322 -0.6221 -1.0304 -0.5182
47921SOL     OW54076  11.751   4.784   9.280  0.0934  0.2779  0.0011
47921SOL    HW154077  11.789   4.720   9.220  0.6946  0.6169  0.0117
47921SOL    HW254078  11.705   4.732   9.346 -0.2797 -0.1069 -0.5532
47922SOL     OW54079  12.171   8.566   3.567 -0.1167  0.2309  0.0186
47922SOL    HW154080  12.151   8.655   3.539  3.7675  1.5798  0.7926
47922SOL    HW254081  12.168   8.570   3.663 -0.8950 -0.7815  0.0514
47923SOL     OW54082   1.887   9.533   2.274  0.2610  0.1623  0.1043
47923SOL    HW154083   1.817   9.476   2.304 -1.2467  1.3781 -0.9470
47923SOL    HW254084   1.913   9.496   2.190  0.1930  0.2657  0.0374
47924SOL     OW54085  11.746  12.167  11.008  0.1575  0.4794 -0.3130
47924SOL    HW154086  11.685  12.156  10.935 -0.8428 -0.1660  0.5917
47924SOL    HW254087  11.722  12.251  11.047  1.5224  1.4362 -1.4611
47925SOL     OW54088  11.216   9.825   4.591  0.3998 -0.5208 -0.4376
47925SOL    HW154089  11.297   9.775   4.594  0.3427 -0.7179 -1.6998
47925SOL    HW254090  11.245   9.917   4.587  0.5396 -0.5463 -0.0203
47926SOL     OW54091   3.738  11.730   1.479 -0.0418 -0.1185  0.4083
47926SOL    HW154092   3.796  11.655   1.469 -0.2700 -0.1635 -0.6962
47926SOL    HW254093   3.735  11.770   1.392 -0.4410  0.7894  0.8229
47927SOL     OW54094   7.633   5.569   3.971  0.1581 -0.2842  0.7710
47927SOL    HW154095   7.668   5.521   4.046  0.0784 -1.9293 -0.2047
47927SOL    HW254096   7.548   5.530   3.955 -0.7651  1.4958  1.1082
47928SOL     OW54097   1.405   3.387   7.716 -0.6334 -0.0255  0.5630
47928SOL    HW154098   1.334   3.336   7.675 -0.7279 -1.9957  2.9782
47928SOL    HW254099   1.371   3.476   7.721 -1.4671 -0.1659 -1.5403
47929SOL     OW54100  11.152  12.705   7.808  0.7633  0.2748 -0.0133
47929SOL    HW154101  11.137  12.799   7.817  1.0496  0.2572  0.7502
47929SOL    HW254102  11.108  12.681   7.727  0.3195  0.9883  0.0095
47930SOL     OW54103  12.070   6.326   1.543  0.5338  0.0882  0.0238
47930SOL    HW154104  12.140   6.263   1.529  0.3354  0.3349 -2.6233
47930SOL    HW254105  12.002   6.276   1.588  0.3788 -1.6649 -2.0010
47931SOL     OW54106   2.708  11.169   5.788  0.1519 -0.1163  0.2299
47931SOL    HW154107   2.784  11.161   5.731 -0.5377 -0.7529 -0.6187
47931SOL    HW254108   2.729  11.244   5.845  0.7627  0.6804 -0.9932
47932SOL     OW54109   0.355   5.491   7.912  0.3964 -0.0969  0.4243
47932SOL    HW154110   0.408   5.558   7.870  2.1413 -1.3813  0.4570
47932SOL    HW254111   0.366   5.413   7.858 -2.7029 -0.1120 -0.4092
47933SOL     OW54112   1.815   3.347   7.306 -0.4516  0.0388 -0.1057
47933SOL    HW154113   1.795   3.273   7.249 -1.9531 -0.5974  1.1515
47933SOL    HW254114   1.754   3.416   7.277 -0.9572 -0.1614  0.4546
47934SOL     OW54115   0.271   2.036   3.942 -0.5782 -0.1754 -0.0182
47934SOL    HW154116   0.301   1.969   3.881  1.7185 -1.3978  2.2671
47934SOL    HW254117   0.345   2.096   3.951 -1.9524  1.7360 -0.6449
47935SOL     OW54118   6.364   5.436   2.844 -0.1828 -0.3056  0.2319
47935SOL    HW154119   6.299   5.458   2.910  0.2039  1.3268  0.1053
47935SOL    HW254120   6.345   5.345   2.821 -1.7590 -0.1807  0.9269
47936SOL     OW54121   2.270   5.230   1.549 -0.6383 -0.5961 -0.2390
47936SOL    HW154122   2.232   5.294   1.488  0.2015  0.3190  0.1642
47936SOL    HW254123   2.362   5.255   1.555 -0.6599 -0.7957  1.2378
47937SOL     OW54124   0.219   5.027   5.881  0.0771 -0.1087 -0.0308
47937SOL    HW154125   0.224   4.942   5.837 -0.5730 -0.8951  1.3521
47937SOL    HW254126   0.293   5.076   5.847  0.9114 -1.5088 -0.3031
47938SOL     OW54127   3.111   5.842   3.154 -0.2187  0.0372  0.0578
47938SOL    HW154128   3.175   5.823   3.223 -0.3837  0.1991  0.2558
47938SOL    HW254129   3.136   5.785   3.082  0.5726  0.5885 -0.1231
47939SOL     OW54130   2.314   0.609   9.983  0.1249 -0.1663  0.3271
47939SOL    HW154131   2.379   0.594   9.915  0.5409 -0.7962  0.8508
47939SOL    HW254132   2.247   0.542   9.968 -1.2115  1.4306 -1.1488
47940SOL     OW54133   7.252   8.473   1.241 -0.1152  0.0307  0.4205
47940SOL    HW154134   7.177   8.509   1.194  0.2667 -0.3516 -0.5219
47940SOL    HW254135   7.214   8.425   1.314 -0.6510  1.9820  1.5001
47941SOL     OW54136   4.020   1.973   3.649  0.2662 -0.1246 -0.3566
47941SOL    HW154137   4.112   1.952   3.633  0.2350 -0.5231 -0.0411
47941SOL    HW254138   3.983   1.891   3.683 -0.6208 -0.5281 -2.1618
47942SOL     OW54139   9.865  10.618  11.125  0.1191  0.0259  0.3055
47942SOL    HW154140   9.930  10.550  11.144  0.2800  0.7277  2.5719
47942SOL    HW254141   9.780  10.575  11.136  0.1676 -0.4808 -1.0787
47943SOL     OW54142  10.810   2.061   6.951 -0.3948 -0.2567  0.0324
47943SOL    HW154143  10.754   2.044   7.026 -0.3459 -0.3952  0.0369
47943SOL    HW254144  10.751   2.051   6.875 -0.7834  1.2482  0.1089
47944SOL     OW54145  12.721   0.853  11.184 -0.4044  0.1996 -0.0268
47944SOL    HW154146  12.807   0.879  11.151 -0.6784 -0.3974 -1.2765
47944SOL    HW254147  12.737   0.770  11.230 -0.0294  1.0056  1.3303
47945SOL     OW54148   1.592   5.178   3.588 -0.2595 -0.5876 -0.1589
47945SOL    HW154149   1.672   5.228   3.571 -0.3147 -0.3526  0.2639
47945SOL    HW254150   1.621   5.086   3.586 -0.4402 -0.6565 -2.5055
47946SOL     OW54151   0.623   0.332   1.846 -0.1312  0.2153 -0.3182
47946SOL    HW154152   0.635   0.416   1.801 -0.5026 -0.7881 -2.3594
47946SOL    HW254153   0.540   0.298   1.814  0.1017 -1.0460  0.3283
47947SOL     OW54154   1.861   4.090   3.938 -0.2890  0.1985  0.2844
47947SOL    HW154155   1.926   4.131   3.995 -0.9262  0.6465  0.7054
47947SOL    HW254156   1.892   4.110   3.849  0.8012 -0.6518  0.4468
47948SOL     OW54157  12.986   9.775   6.555 -0.0115 -0.3752 -0.4290
47948SOL    HW154158  13.073   9.792   6.520 -0.4031 -0.8900 -1.7193
47948SOL    HW254159  13.001   9.741   6.643  0.9612  1.9439  0.3689
47949SOL     OW54160  10.332   1.196   1.811  0.4783 -0.1149  0.0130
47949SOL    HW154161  10.400   1.262   1.793  0.1614  0.6945  1.5840
47949SOL    HW254162  10.255   1.248   1.834 -0.1486 -1.0495  0.0310
47950SOL     OW54163   6.942   2.357  11.430 -0.8668 -0.1311  0.2277
47950SOL    HW154164   6.932   2.422  11.361 -0.2941  0.4651  0.6922
47950SOL    HW254165   6.877   2.382  11.495 -0.8400 -0.1898  0.2759
47951SOL     OW54166   6.151   6.496   6.070 -0.0180 -0.5105 -0.0701
47951SOL    HW154167   6.216   6.503   6.001  1.1058 -2.9126  0.6464
47951SOL    HW254168   6.199   6.516   6.151 -0.8531  0.4034  0.2173
47952SOL     OW54169   5.720   8.405   9.852  0.0866 -0.1110  0.3568
47952SOL    HW154170   5.706   8.406   9.757  0.4573 -0.0727  0.3024
47952SOL    HW254171   5.735   8.497   9.875  0.9381 -0.2361  0.3105
47953SOL     OW54172   1.991   0.836   6.730  0.1424  0.3132 -0.2272
47953SOL    HW154173   1.998   0.754   6.778  3.2901  0.2174 -0.6714
47953SOL    HW254174   2.015   0.903   6.794  0.6013  0.5623 -0.6549
47954SOL     OW54175   6.175   9.208  11.447 -0.2687  0.7121  0.1107
47954SOL    HW154176   6.268   9.224  11.434 -0.6505  3.2903 -0.1200
47954SOL    HW254177   6.139   9.202  11.359 -0.6080  2.1802  0.1132
47955SOL     OW54178  11.558   1.802  11.306  0.1123  0.1422 -0.0471
47955SOL    HW154179  11.587   1.715  11.336 -0.8092  0.4113  1.7770
47955SOL    HW254180  11.593   1.810  11.218 -0.3413 -2.3773 -0.5349
47956SOL     OW54181   5.436  12.855   5.037  0.9080 -0.0483  0.1573
47956SOL    HW154182   5.474  12.786   4.983 -0.8492 -0.5850 -0.4705
47956SOL    HW254183   5.348  12.824   5.057  0.7336  1.1779  1.4541
47957SOL     OW54184  11.670  10.743   3.234  0.9709  1.0296 -0.1947
47957SOL    HW154185  11.622  10.783   3.306  0.8327  2.3502 -0.9955
47957SOL    HW254186  11.744  10.802   3.220  0.5245  1.2568 -1.6818
47958SOL     OW54187   5.614   9.025   8.893 -0.4285 -0.3703 -0.3458
47958SOL    HW154188   5.670   9.015   8.970  0.0143 -1.1460 -0.7575
47958SOL    HW254189   5.527   8.998   8.923 -1.0630  2.5627  0.8083
47959SOL     OW54190   9.783   3.108   7.239 -0.3584  0.1275  0.1455
47959SOL    HW154191   9.760   3.200   7.246 -1.6813 -0.3018  2.0686
47959SOL    HW254192   9.823   3.086   7.323  2.8413 -0.3876 -1.3323
47960SOL     OW54193   6.268   9.954   6.120  0.1751  0.0040 -0.2388
47960SOL    HW154194   6.245  10.047   6.128  0.2107  0.2708 -2.6210
47960SOL    HW254195   6.198   9.908   6.165  0.5672  1.1731  1.6996
47961SOL     OW54196   0.273  11.162  10.357 -0.4608  0.0385  0.3561
47961SOL    HW154197   0.265  11.129  10.267 -2.0721  0.0373  0.4606
47961SOL    HW254198   0.308  11.087  10.406 -1.8704 -0.8026  0.1520
47962SOL     OW54199   4.296   3.721   2.427  0.1427 -0.1304  0.1371
47962SOL    HW154200   4.366   3.785   2.441 -1.3484  1.5817  0.1603
47962SOL    HW254201   4.239   3.731   2.504 -0.5102 -0.9832 -0.2160
47963SOL     OW54202  12.843   2.586   3.368  0.2237  0.3403  0.0732
47963SOL    HW154203  12.827   2.645   3.441 -0.4171 -0.7638  0.8537
47963SOL    HW254204  12.911   2.527   3.399 -1.9996 -1.9374  0.9181
47964SOL     OW54205   6.599   2.884   6.475 -0.3612 -0.0953  0.0062
47964SOL    HW154206   6.613   2.944   6.403  0.3595  0.4878  0.6217
47964SOL    HW254207   6.602   2.797   6.435 -1.1766  0.2630 -0.8453
47965SOL     OW54208   1.068   8.593   1.525  0.1896  0.3489 -0.5406
47965SOL    HW154209   1.142   8.535   1.506  1.2875  1.6244 -0.3405
47965SOL    HW254210   1.028   8.609   1.440  1.3281  1.1424 -0.9559
47966SOL     OW54211   8.231  12.723   1.555  0.3176 -0.3163 -0.4915
47966SOL    HW154212   8.198  12.675   1.480  0.5796 -1.6508  0.2088
47966SOL    HW254213   8.206  12.670   1.631  1.2101  0.3131  0.2762
47967SOL     OW54214   1.933   3.336   6.740  0.3312  0.5842  0.6985
47967SOL    HW154215   1.939   3.268   6.807 -0.4468 -0.5715 -0.3630
47967SOL    HW254216   1.930   3.288   6.658 -0.8015  1.8811 -0.0499
47968SOL     OW54217   8.878  10.127   1.809 -0.8546 -0.0862 -0.2430
47968SOL    HW154218   8.959  10.175   1.792 -0.5920 -1.0992 -2.1055
47968SOL    HW254219   8.899  10.071   1.884 -0.0387  0.1756 -0.2668
47969SOL     OW54220   8.222   8.048   5.917  0.3849  0.0604  0.4546
47969SOL    HW154221   8.133   8.025   5.890  0.4547 -1.0827  1.1190
47969SOL    HW254222   8.232   8.140   5.892  0.1346 -0.6382 -2.5367
47970SOL     OW54223   4.760   8.385  10.814  0.0249 -0.0366  0.6409
47970SOL    HW154224   4.700   8.377  10.741  0.4712  0.7241  0.1700
47970SOL    HW254225   4.711   8.353  10.890 -0.2696 -1.2923 -0.0647
47971SOL     OW54226   4.399   3.010   5.818 -0.1302 -0.1709 -0.2007
47971SOL    HW154227   4.318   2.974   5.856 -0.5901 -0.4505 -1.4046
47971SOL    HW254228   4.454   2.933   5.801  1.3020  0.1285  2.4942
47972SOL     OW54229  10.945   3.343  10.426  0.2870  0.1279  0.3701
47972SOL    HW154230  11.009   3.303  10.485  1.9837  0.1297 -1.3715
47972SOL    HW254231  10.984   3.335  10.339 -3.3542 -2.4170 -1.2498
47973SOL     OW54232   8.968  12.597   4.687 -0.1292 -0.5127  0.0023
47973SOL    HW154233   8.986  12.598   4.781 -0.1106 -1.7371  0.0336
47973SOL    HW254234   8.931  12.683   4.668 -0.7068 -0.4718  1.2490
47974SOL     OW54235  11.173   6.477  11.272  0.3540  0.3204 -0.0377
47974SOL    HW154236  11.096   6.483  11.216  0.3219 -0.8761 -0.1378
47974SOL    HW254237  11.247   6.478  11.211  0.5446  2.9131  0.1165
47975SOL     OW54238   8.103  11.897   2.504  0.0737 -0.1676 -0.0441
47975SOL    HW154239   8.130  11.806   2.492 -0.4809 -0.7787  2.6606
47975SOL    HW254240   8.008  11.895   2.496 -0.2008 -0.3823  2.3834
47976SOL     OW54241   1.337  10.028   8.174  0.3216 -0.2911  0.6006
47976SOL    HW154242   1.401   9.966   8.139 -0.2356 -0.2003 -0.6620
47976SOL    HW254243   1.268  10.031   8.107 -0.4167  0.5098  1.3683
47977SOL     OW54244  10.786   7.799   4.152  0.2999  0.0004 -0.2574
47977SOL    HW154245  10.830   7.819   4.070 -0.7937 -0.4738 -0.9843
47977SOL    HW254246  10.791   7.881   4.202  1.3293  0.1701 -0.6137
47978SOL     OW54247  10.880  11.784   1.225  0.3602 -0.1592 -0.3069
47978SOL    HW154248  10.820  11.855   1.249  0.0479 -0.5791  0.1726
47978SOL    HW254249  10.957  11.829   1.190 -0.1595  0.3891 -0.7718
47979SOL     OW54250   1.084   1.139   8.338 -0.0006 -0.1461  0.1236
47979SOL    HW154251   1.094   1.044   8.333 -1.1413 -0.2444 -0.5995
47979SOL    HW254252   1.164   1.173   8.299  0.2200 -0.8094 -0.0276
47980SOL     OW54253  11.005   8.790   4.367 -0.2886  0.1983 -0.0705
47980SOL    HW154254  10.927   8.750   4.331 -0.5810  0.6848  0.0132
47980SOL    HW254255  11.055   8.717   4.403 -1.6302  0.0579  1.6478
47981SOL     OW54256   0.622   8.509   5.986 -0.5207 -0.2285 -0.0693
47981SOL    HW154257   0.540   8.558   5.979 -0.7701 -0.4406  1.1734
47981SOL    HW254258   0.689   8.577   5.998 -1.1090 -0.1206  3.9273
47982SOL     OW54259   0.332   9.625   6.308  0.5107  0.2626 -0.5484
47982SOL    HW154260   0.334   9.631   6.213  1.2201 -0.4416 -0.5881
47982SOL    HW254261   0.333   9.531   6.327  3.2480  0.3525  0.1733
47983SOL     OW54262   4.433   9.152  12.532 -0.2270  0.1998 -0.0086
47983SOL    HW154263   4.502   9.184  12.590  0.5018 -0.8075 -0.2839
47983SOL    HW254264   4.467   9.169  12.444 -0.4568 -0.0563 -0.1477
47984SOL     OW54265   3.724   2.905   3.958 -0.2446  0.4677  0.3997
47984SOL    HW154266   3.680   2.857   4.028  1.2903 -0.2159  0.9407
47984SOL    HW254267   3.662   2.973   3.932 -1.9030 -0.9188  0.5928
47985SOL     OW54268   2.974   5.850   2.492 -0.5989  0.1537  0.6330
47985SOL    HW154269   3.039   5.781   2.507  0.9652  1.3982 -0.1143
47985SOL    HW254270   2.938   5.831   2.405  0.7101  0.9037 -0.1087
47986SOL     OW54271   4.971  12.462   5.032  0.5085  0.0858  0.1172
47986SOL    HW154272   4.968  12.370   5.006 -0.0284  0.3332 -0.7595
47986SOL    HW254273   5.001  12.508   4.954 -2.2526  0.9828 -0.5554
47987SOL     OW54274   9.347   0.577   8.535  0.5373 -0.5300 -0.0887
47987SOL    HW154275   9.334   0.537   8.450  1.5898 -0.1964 -0.4173
47987SOL    HW254276   9.354   0.503   8.596  1.6137 -0.8409 -0.5629
47988SOL     OW54277   7.035  10.110   7.461  0.1672 -0.2169  0.0534
47988SOL    HW154278   7.065  10.051   7.392  1.4917  1.0030 -0.4636
47988SOL    HW254279   6.943  10.125   7.441  0.2747 -0.6856 -0.8537
47989SOL     OW54280   3.042   6.266   3.945 -0.0527 -0.0580  0.2301
47989SOL    HW154281   3.070   6.346   3.901 -1.4294  0.5234  0.3861
47989SOL    HW254282   3.029   6.203   3.875 -1.8486  0.7492 -0.2122
47990SOL     OW54283   7.091   5.433   7.286  0.2789 -0.2539  1.3042
47990SOL    HW154284   7.064   5.508   7.233  1.4177  0.3921  1.6031
47990SOL    HW254285   7.024   5.367   7.270 -0.3035  0.5315  0.3891
47991SOL     OW54286   4.009  12.651  10.478 -0.0797  0.5813  0.1218
47991SOL    HW154287   3.951  12.575  10.481  1.0213 -0.2460  1.9619
47991SOL    HW254288   4.083  12.628  10.534  0.9229  2.5162 -0.2963
47992SOL     OW54289   0.061   1.343   8.565 -0.4602  0.0307 -0.2714
47992SOL    HW154290   0.020   1.269   8.610  0.1381 -0.1390 -0.0029
47992SOL    HW254291   0.155   1.330   8.577 -0.3121  0.2549 -1.1477
47993SOL     OW54292  10.125   4.765  10.134 -0.4294 -0.5443  0.4819
47993SOL    HW154293  10.194   4.828  10.154 -2.2433  1.6572  0.2738
47993SOL    HW254294  10.055   4.786  10.197 -2.1405 -0.5003 -1.3395
47994SOL     OW54295  11.073   5.348  12.484  0.1877  0.0875 -0.3308
47994SOL    HW154296  11.133   5.422  12.492  0.0203  0.4928 -2.3815
47994SOL    HW254297  11.120   5.285  12.430 -0.8174 -0.0248 -1.0936
47995SOL     OW54298   0.228   8.305   1.090 -0.0215  0.4779 -0.3544
47995SOL    HW154299   0.265   8.316   1.002  0.8913  1.2619  0.1087
47995SOL    HW254300   0.303   8.312   1.148 -0.8049  1.5096  0.5807
47996SOL     OW54301  12.503  10.109   7.863  0.4850 -0.4088  0.3383
47996SOL    HW154302  12.422  10.130   7.817  0.9323 -0.8347 -0.6748
47996SOL    HW254303  12.491  10.146   7.950 -1.2872 -1.4709  0.6003
47997SOL     OW54304   3.441   8.706   7.952 -0.1300  0.1193 -0.1139
47997SOL    HW154305   3.422   8.797   7.931  0.2123 -0.0639 -1.3197
47997SOL    HW254306   3.536   8.704   7.969 -0.1799  0.0346  0.1598
47998SOL     OW54307   1.063   1.205   7.309 -0.1007  0.0131 -0.2185
47998SOL    HW154308   0.977   1.191   7.350  0.5452  0.9393  1.5614
47998SOL    HW254309   1.124   1.213   7.382  1.2593  0.9758 -1.3902
47999SOL     OW54310   7.087   7.812   8.447  0.0762 -0.7154 -0.2456
47999SOL    HW154311   7.020   7.786   8.384 -0.6704  0.4588  0.0445
47999SOL    HW254312   7.039   7.849   8.521  1.0473  0.6270 -0.2448
48000SOL     OW54313   9.339   5.978   5.546  0.2398  0.4848 -0.1050
48000SOL    HW154314   9.342   6.073   5.562 -1.1505  0.7963 -1.4380
48000SOL    HW254315   9.252   5.952   5.577  1.1120 -0.6428  1.5105
48001SOL     OW54316   2.002   3.275  10.400  0.2450  0.0152 -0.2734
48001SOL    HW154317   2.016   3.227  10.318  3.7295 -0.3326  0.3611
48001SOL    HW254318   2.061   3.233  10.463 -0.3469  1.9511  1.6980
48002SOL     OW54319   6.560   2.440  10.757 -0.2482 -0.3365 -0.0059
48002SOL    HW154320   6.506   2.419  10.680 -1.6722  0.6359  0.6849
48002SOL    HW254321   6.502   2.424  10.831  0.7555 -0.2036  0.8162
48003SOL     OW54322  11.538   0.490  11.062  0.2536  0.7136 -0.0352
48003SOL    HW154323  11.632   0.478  11.048  0.0094 -1.9719 -0.0188
48003SOL    HW254324  11.500   0.489  10.974  0.1759  1.1506 -0.0097
48004SOL     OW54325  11.779   9.262   4.154  0.1748 -0.3961  0.2383
48004SOL    HW154326  11.769   9.336   4.213 -1.3443  0.4628 -1.0435
48004SOL    HW254327  11.697   9.213   4.163 -0.3060  0.0430 -1.5279
48005SOL     OW54328   5.504   6.901   6.855  0.2285  0.3260 -0.4558
48005SOL    HW154329   5.587   6.924   6.896  0.2659 -0.0363 -0.3256
48005SOL    HW254330   5.521   6.907   6.761  1.1504 -2.2144 -0.5251
48006SOL     OW54331  11.828   1.340  10.537  0.2393  0.1010 -0.0081
48006SOL    HW154332  11.852   1.347  10.630 -0.7662  0.1305  0.2625
48006SOL    HW254333  11.896   1.390  10.491  0.3200  0.7450  0.7783
48007SOL     OW54334  10.446   9.596   6.498 -1.0104  0.5785 -0.4618
48007SOL    HW154335  10.541   9.600   6.512 -0.8871  2.7050 -1.5183
48007SOL    HW254336  10.435   9.540   6.422 -0.5320  0.8589 -0.7403
48008SOL     OW54337  12.922  11.798   1.592  0.2623 -0.4569  0.2760
48008SOL    HW154338  12.833  11.788   1.627  0.4075 -2.6989  0.1638
48008SOL    HW254339  12.960  11.870   1.643 -1.4845  0.3318  0.5480
48009SOL     OW54340   9.137   6.343   7.100 -0.1510  0.0207  0.6731
48009SOL    HW154341   9.111   6.371   7.012 -0.7414 -0.6633  0.6148
48009SOL    HW254342   9.232   6.352   7.101 -0.1395  0.0690 -0.0260
48010SOL     OW54343   6.324  10.875   2.952  0.0944 -0.2711  0.3286
48010SOL    HW154344   6.392  10.816   2.920 -0.5356 -0.9741  0.2254
48010SOL    HW254345   6.305  10.933   2.879  0.4699 -0.1738  0.3077
48011SOL     OW54346   7.655   2.667   2.018 -0.7490 -0.2968  0.4509
48011SOL    HW154347   7.717   2.710   2.077  0.5638 -1.7996  0.2591
48011SOL    HW254348   7.600   2.614   2.075 -1.5430  0.6568  0.5794
48012SOL     OW54349   9.599  12.788   2.571 -0.2694  0.3460 -0.0751
48012SOL    HW154350   9.562  12.876   2.581  1.3329  1.0153  0.2433
48012SOL    HW254351   9.627  12.763   2.659  0.7260  0.1820 -0.4345
48013SOL     OW54352   2.745   8.378   1.886  0.2661  0.6102  0.3457
48013SOL    HW154353   2.757   8.295   1.932 -1.0802  0.3706  0.3208
48013SOL    HW254354   2.803   8.371   1.810 -1.4675 -1.3338 -0.9102
48014SOL     OW54355   6.120   8.997   6.489  0.2869 -0.1587 -0.4139
48014SOL    HW154356   6.045   8.962   6.537  0.8230  0.0738  0.6336
48014SOL    HW254357   6.148   8.926   6.432  0.3300 -0.8532  0.4591
48015SOL     OW54358   7.124   0.504   4.787 -0.0856 -0.1066 -0.2240
48015SOL    HW154359   7.040   0.485   4.745 -0.5237  1.6561 -0.2141
48015SOL    HW254360   7.129   0.600   4.789 -0.3153  0.0108  4.1381
48016SOL     OW54361   7.441   8.378   3.828 -0.7409 -0.5216 -0.6663
48016SOL    HW154362   7.383   8.453   3.814 -2.8739 -2.2578 -1.9320
48016SOL    HW254363   7.519   8.415   3.868 -1.8592  2.2891 -0.8251
48017SOL     OW54364  11.356   0.558   2.164 -0.1221 -0.4343  0.2620
48017SOL    HW154365  11.431   0.549   2.105  0.9351 -0.6985  1.6021
48017SOL    HW254366  11.385   0.620   2.230 -0.9281 -0.8781  1.0462
48018SOL     OW54367   9.977   0.090  11.803 -0.3357  0.4664 -0.3949
48018SOL    HW154368  10.028   0.142  11.741 -1.6034  0.8559 -1.1576
48018SOL    HW254369   9.917   0.039  11.748  0.6772 -1.6357  0.3419
48019SOL     OW54370   2.866   2.677   5.736  0.0310 -0.1524 -0.4716
48019SOL    HW154371   2.843   2.638   5.821 -0.7879 -0.9986 -1.0683
48019SOL    HW254372   2.848   2.609   5.672  2.8281 -0.3766 -1.1755
48020SOL     OW54373   8.633  11.895   6.226 -0.4529  0.5057  0.3550
48020SOL    HW154374   8.600  11.979   6.258 -1.7695 -0.1319  0.7322
48020SOL    HW254375   8.638  11.905   6.131 -2.5768  0.3775  0.1788
48021SOL     OW54376  12.510   4.455   9.798  0.5064  0.0267  0.2875
48021SOL    HW154377  12.539   4.525   9.740  0.4544 -0.1594  0.0334
48021SOL    HW254378  12.415   4.470   9.808  0.2418 -0.7844 -0.8531
48022SOL     OW54379  12.457   6.209   7.468 -0.6435 -0.1205 -0.0097
48022SOL    HW154380  12.390   6.178   7.408 -1.0058 -0.1324  0.3938
48022SOL    HW254381  12.430   6.175   7.554  0.8419 -1.6880 -0.1002
48023SOL     OW54382   1.511   8.853   6.531  0.2430 -0.3012  0.0118
48023SOL    HW154383   1.576   8.812   6.473 -0.9256 -1.4597 -0.5275
48023SOL    HW254384   1.501   8.942   6.497  0.9560 -0.3698 -0.3987
48024SOL     OW54385  11.686   3.807   4.643 -0.1480  0.3737 -0.6457
48024SOL    HW154386  11.639   3.810   4.726  0.1317  0.3164 -0.4826
48024SOL    HW254387  11.638   3.866   4.585  0.0025  0.8798 -0.2623
48025SOL     OW54388  12.377   9.306   3.705 -0.0451 -0.2398 -0.3124
48025SOL    HW154389  12.449   9.350   3.750 -0.0574 -0.7677  0.2471
48025SOL    HW254390  12.420   9.240   3.650 -0.0521  0.1108 -0.7390
48026SOL     OW54391   7.066   8.288  12.271  0.4543  0.1592  0.2503
48026SOL    HW154392   7.007   8.270  12.197  0.8360  2.2965 -0.6633
48026SOL    HW254393   7.143   8.235  12.254 -0.0595 -0.5151 -0.0558
48027SOL     OW54394   6.751  12.448  12.287  0.1263  0.2030  0.6605
48027SOL    HW154395   6.706  12.515  12.235 -0.7113 -0.0649  1.0280
48027SOL    HW254396   6.839  12.445  12.250 -0.4914 -0.0896 -0.8476
48028SOL     OW54397   1.019   2.035   1.504  0.7584  0.3817 -0.1958
48028SOL    HW154398   1.073   1.969   1.459 -1.0602 -1.5576  0.2776
48028SOL    HW254399   0.999   2.100   1.437  1.2010 -0.4507 -1.1618
48029SOL     OW54400   3.625   1.982   3.594  0.4743  0.1616  0.0087
48029SOL    HW154401   3.691   2.004   3.661  0.0074  0.3937  0.3995
48029SOL    HW254402   3.583   2.066   3.574 -1.2005 -0.3120  1.3729
48030SOL     OW54403   0.016   6.723   3.058  0.0876  0.4714 -0.2740
48030SOL    HW154404   0.058   6.801   3.095  0.2002  0.7062 -0.8848
48030SOL    HW254405   0.034   6.728   2.964 -0.3949  0.0087 -0.3976
48031SOL     OW54406   6.030   2.901   9.527  0.5993 -0.2727  0.2703
48031SOL    HW154407   6.049   2.825   9.473  0.0151 -1.3474  1.5192
48031SOL    HW254408   6.109   2.914   9.580  1.6873  1.5822 -1.6676
48032SOL     OW54409   8.647   3.340   3.194 -0.6705  0.8424 -0.1036
48032SOL    HW154410   8.716   3.403   3.215  0.6872  0.1250 -2.1088
48032SOL    HW254411   8.637   3.348   3.099 -1.5051 -0.9226 -0.1880
48033SOL     OW54412  12.036   9.293   2.823 -0.3625 -0.0328 -0.0059
48033SOL    HW154413  11.990   9.368   2.862  1.1844 -0.1712  2.2716
48033SOL    HW254414  12.028   9.224   2.889 -1.0282 -1.6475 -1.7002
48034SOL     OW54415   7.094  10.191   9.272  0.2095  0.0385 -0.7652
48034SOL    HW154416   7.040  10.245   9.215  0.7161  0.3410 -0.9597
48034SOL    HW254417   7.126  10.251   9.339 -0.0930 -0.2438 -0.3631
48035SOL     OW54418   0.250   6.422   5.463  0.4185 -0.0122  0.0282
48035SOL    HW154419   0.235   6.452   5.374 -0.0765  1.6312  0.6437
48035SOL    HW254420   0.339   6.452   5.484 -0.0607  1.0441  0.6277
48036SOL     OW54421   7.584   9.798   1.465  0.3341  0.2027  0.4240
48036SOL    HW154422   7.591   9.779   1.559  1.9836  2.3255  0.8298
48036SOL    HW254423   7.515   9.864   1.459  0.2372  0.0770  0.1659
48037SOL     OW54424   6.005   0.641   4.147 -0.6924 -0.4473  0.0387
48037SOL    HW154425   6.040   0.726   4.175  3.9066 -2.1226  0.1196
48037SOL    HW254426   5.934   0.623   4.209  0.0591  2.0558  1.7993
48038SOL     OW54427   1.707   5.121   6.589 -0.6828 -0.0537  0.1270
48038SOL    HW154428   1.748   5.056   6.646 -0.2781 -0.3509 -0.4863
48038SOL    HW254429   1.622   5.084   6.566 -0.1388 -0.7400 -0.8425
48039SOL     OW54430  12.738  12.255  10.941 -0.0254 -0.1041  0.0995
48039SOL    HW154431  12.694  12.270  10.857 -0.4563  0.5921  0.4465
48039SOL    HW254432  12.669  12.264  11.007  0.4434  0.0165  0.5812
48040SOL     OW54433   4.398  10.873   7.696  0.1643  0.7886 -0.1344
48040SOL    HW154434   4.382  10.798   7.753  0.0514  1.6274  0.9664
48040SOL    HW254435   4.437  10.835   7.617  0.1447 -0.4162  0.4106
48041SOL     OW54436   9.748   7.095   5.567 -0.0211 -0.2674 -0.3415
48041SOL    HW154437   9.769   7.188   5.556 -1.7451  0.0741 -1.0822
48041SOL    HW254438   9.754   7.081   5.661 -0.2131  0.7373 -0.1628
48042SOL     OW54439   4.384   6.880   0.040 -0.0874 -0.0588 -0.0034
48042SOL    HW154440   4.412   6.920  -0.042 -0.3019  0.9361  0.4014
48042SOL    HW254441   4.450   6.813   0.057  0.2069  0.0289 -0.7521
48043SOL     OW54442   7.580  11.910  11.118 -0.3912  0.7116 -0.3058
48043SOL    HW154443   7.551  12.001  11.112 -0.0712  0.9418  1.2254
48043SOL    HW254444   7.499  11.859  11.120 -0.7232  1.2167  2.0608
48044SOL     OW54445   3.408   8.983   7.248  0.1369 -0.5680  0.3183
48044SOL    HW154446   3.498   8.983   7.280  0.3059  1.0017 -0.0758
48044SOL    HW254447   3.377   9.072   7.265 -1.4982 -1.2027  0.8420
48045SOL     OW54448   0.503   2.255   9.535 -0.4523  0.2118 -0.0439
48045SOL    HW154449   0.507   2.257   9.630  0.9604 -0.1885 -0.0674
48045SOL    HW254450   0.489   2.162   9.513 -0.5070  0.2619 -0.2248
48046SOL     OW54451   9.983   7.520   4.537  0.1605 -0.2529  0.3425
48046SOL    HW154452  10.066   7.566   4.529 -0.4160  0.6274 -1.0081
48046SOL    HW254453   9.926   7.561   4.472 -1.5990 -0.2792  1.7673
48047SOL     OW54454   1.989   2.894   8.508  0.0092 -0.1502  0.3892
48047SOL    HW154455   2.025   2.825   8.563  1.6883  0.8737  0.6368
48047SOL    HW254456   2.053   2.965   8.513 -1.9917  1.7482  0.7577
48048SOL     OW54457   8.962  10.747   3.222  0.1001  0.8547 -0.4774
48048SOL    HW154458   8.877  10.770   3.258  0.0183  1.9096 -1.2647
48048SOL    HW254459   9.003  10.832   3.203  0.8068  0.3517 -1.2732
48049SOL     OW54460   5.512   1.332  11.083 -0.0737  0.1016  0.3282
48049SOL    HW154461   5.498   1.241  11.111 -0.6091  0.3628  0.9288
48049SOL    HW254462   5.589   1.361  11.132 -0.6230  0.3505  1.0620
48050SOL     OW54463   5.765   3.729   9.782  0.0172  0.4796  0.1620
48050SOL    HW154464   5.712   3.801   9.818  0.1723  0.3755  0.6019
48050SOL    HW254465   5.705   3.683   9.723  0.0105  1.1665 -0.3934
48051SOL     OW54466   7.652   1.453  11.338 -0.1694 -0.1324 -0.2911
48051SOL    HW154467   7.659   1.527  11.277  0.7234 -2.0423 -2.6914
48051SOL    HW254468   7.738   1.449  11.380 -0.3964  0.4909  0.2477
48052SOL     OW54469   9.806   9.484   9.509  0.0019  0.0742  0.0066
48052SOL    HW154470   9.901   9.490   9.505 -0.0437  1.2840  0.4520
48052SOL    HW254471   9.776   9.514   9.423  0.0256 -1.1766 -0.4719
48053SOL     OW54472  10.256  10.530  10.230 -0.5981 -0.1109 -0.2381
48053SOL    HW154473  10.193  10.498  10.294 -0.1579 -0.9440 -0.2078
48053SOL    HW254474  10.341  10.526  10.275 -0.4305  0.3487 -0.5051
48054SOL     OW54475  11.579   9.048   2.762 -0.1460  0.3800  0.3398
48054SOL    HW154476  11.544   9.055   2.851 -1.4026  0.9481 -0.1813
48054SOL    HW254477  11.593   9.138   2.735 -0.5642  0.2483 -0.3411
48055SOL     OW54478   8.169   9.308   8.249  0.3649 -0.1038  0.1427
48055SOL    HW154479   8.163   9.404   8.255 -0.4866 -0.1035 -0.5200
48055SOL    HW254480   8.238   9.285   8.311  0.5016  0.9304  0.4037
48056SOL     OW54481   2.946   6.174   0.604 -0.3420 -0.3979 -0.2781
48056SOL    HW154482   2.850   6.165   0.605 -0.2844 -1.0478  0.5128
48056SOL    HW254483   2.961   6.264   0.575 -1.2520  0.2149  1.0513
48057SOL     OW54484   8.279  10.415   7.962 -0.2558 -0.3213  0.2870
48057SOL    HW154485   8.340  10.485   7.985  1.2386 -0.9153 -1.5400
48057SOL    HW254486   8.333  10.350   7.916 -2.2772 -0.7692 -1.6622
48058SOL     OW54487   3.869   2.054   5.449  0.3325  0.1545 -0.0897
48058SOL    HW154488   3.824   2.004   5.382  0.0764  0.4621 -0.1484
48058SOL    HW254489   3.934   2.106   5.401  0.2768  0.2345 -0.0779
48059SOL     OW54490   8.310   0.368   6.917 -0.2311  0.1598  0.2230
48059SOL    HW154491   8.338   0.289   6.963  2.0191  0.5075 -0.4532
48059SOL    HW254492   8.243   0.338   6.855  2.6105 -1.8358 -2.1160
48060SOL     OW54493   6.032   8.935  11.222  0.1881 -0.5737 -0.3897
48060SOL    HW154494   6.086   9.010  11.196 -0.9334  0.2405 -0.4787
48060SOL    HW254495   5.975   8.920  11.147 -1.8972  0.6991  0.8396
48061SOL     OW54496   5.976   9.185   7.205  0.3839  0.0644  0.2688
48061SOL    HW154497   6.045   9.193   7.270  1.3221 -2.0251 -0.3676
48061SOL    HW254498   6.013   9.222   7.125  1.2914 -2.0272 -0.3611
48062SOL     OW54499   7.811   4.595   2.000  0.3277 -0.3766 -0.0509
48062SOL    HW154500   7.804   4.546   2.082 -1.4988  0.1450  0.1510
48062SOL    HW254501   7.814   4.687   2.027 -3.1617  0.0201 -0.5324
48063SOL     OW54502   5.600   4.208  10.814 -0.1541 -0.5938  0.1202
48063SOL    HW154503   5.608   4.186  10.722  0.6515 -0.2835  0.1100
48063SOL    HW254504   5.667   4.155  10.858  0.4671  0.3641  0.3389
48064SOL     OW54505   9.663  12.140  12.107  0.1265 -0.0668 -0.6201
48064SOL    HW154506   9.611  12.060  12.103  0.6141 -0.3697 -1.0252
48064SOL    HW254507   9.692  12.154  12.017 -0.7421  1.1026 -0.7465
48065SOL     OW54508  11.777   9.173   3.807 -0.1050  0.3638  0.2375
48065SOL    HW154509  11.815   9.145   3.890  0.4448 -1.1316 -0.4810
48065SOL    HW254510  11.834   9.243   3.776  1.6276 -1.2497 -0.3947
48066SOL     OW54511   5.194   4.982   5.265  0.8564  0.4677  0.0388
48066SOL    HW154512   5.248   4.926   5.209  1.5550  0.1024  1.0573
48066SOL    HW254513   5.159   5.048   5.205 -0.9421 -1.6772 -1.4481
48067SOL     OW54514   4.120  10.430   7.669  0.3536 -0.3901  0.0434
48067SOL    HW154515   4.083  10.342   7.668 -0.0599 -0.2212 -0.6329
48067SOL    HW254516   4.047  10.486   7.694  0.5263 -0.1977  0.1234
48068SOL     OW54517   8.673   1.633   2.749 -0.0911 -0.1937  0.6766
48068SOL    HW154518   8.765   1.622   2.773 -0.1311 -1.5924  0.2916
48068SOL    HW254519   8.632   1.550   2.775 -1.1973  0.3401  0.6600
48069SOL     OW54520  10.279   5.187   6.003  0.1954  0.0601  0.0522
48069SOL    HW154521  10.210   5.187   6.070 -0.0170 -0.1149 -0.1627
48069SOL    HW254522  10.275   5.274   5.964  0.1831  0.0945  0.1306
48070SOL     OW54523   9.788   0.136   8.118 -0.6149  0.1341  0.4145
48070SOL    HW154524   9.709   0.174   8.154 -0.2752  1.0838  0.1953
48070SOL    HW254525   9.761   0.052   8.083 -1.8799  1.1207 -1.0908
48071SOL     OW54526   4.351   7.258   1.530 -0.1429 -0.2997 -0.4611
48071SOL    HW154527   4.319   7.247   1.620  1.7276 -2.3396  0.0440
48071SOL    HW254528   4.304   7.191   1.480 -0.4525  0.1755 -0.8175
48072SOL     OW54529   0.933   3.117   7.674 -0.2784  0.0486  0.6135
48072SOL    HW154530   0.998   3.159   7.617 -0.3158  1.6110  1.6523
48072SOL    HW254531   0.849   3.144   7.638 -0.3103  0.3106  0.8801
48073SOL     OW54532  10.532   4.519   8.632  0.3596 -0.4678 -0.1982
48073SOL    HW154533  10.549   4.469   8.712  0.8292 -1.3019 -0.8059
48073SOL    HW254534  10.521   4.453   8.564 -2.6636  0.1026 -0.4021
48074SOL     OW54535   0.476  11.835   3.312  0.1559 -0.4061 -0.9429
48074SOL    HW154536   0.416  11.767   3.342 -0.5521 -0.2787 -2.0193
48074SOL    HW254537   0.559  11.789   3.297 -0.5654 -1.2678 -2.5861
48075SOL     OW54538  12.166   3.524   8.457 -0.3248 -0.0175  0.3597
48075SOL    HW154539  12.185   3.602   8.406 -1.5389 -0.4436 -0.7957
48075SOL    HW254540  12.107   3.554   8.526 -2.5873 -0.2151 -1.3687
48076SOL     OW54541  12.520   2.955  10.568  0.0717  0.5903  0.1953
48076SOL    HW154542  12.586   2.912  10.513 -0.6798 -1.3872  0.7581
48076SOL    HW254543  12.558   2.954  10.656 -0.5989 -0.3450  0.4806
48077SOL     OW54544   7.393  12.729   0.383  0.3960 -0.2060  1.0951
48077SOL    HW154545   7.483  12.704   0.363  1.4272  2.8670  1.3180
48077SOL    HW254546   7.345  12.714   0.301  1.4912 -0.4031  0.4673
48078SOL     OW54547   2.988   4.044   6.877 -0.1162  0.0980  0.4180
48078SOL    HW154548   2.934   3.983   6.828  0.5227  0.0984 -0.3087
48078SOL    HW254549   2.967   4.027   6.969 -0.2753 -0.9044  0.2043
48079SOL     OW54550  10.611   7.662   3.931  0.0591 -0.1073 -0.1267
48079SOL    HW154551  10.537   7.717   3.908  0.7397  0.5321 -0.8779
48079SOL    HW254552  10.656   7.709   4.001  1.3421  0.9735 -1.6039
48080SOL     OW54553   8.035   2.313  10.014 -0.2385 -0.0779  0.2573
48080SOL    HW154554   8.001   2.368  10.085  0.0916 -0.2070  0.5179
48080SOL    HW254555   8.126   2.341  10.004 -0.3460  0.0853 -0.2566
48081SOL     OW54556   4.443   4.279   2.751  0.1267  0.2620 -0.1456
48081SOL    HW154557   4.498   4.202   2.733  0.2290  0.5907 -1.3006
48081SOL    HW254558   4.420   4.313   2.665 -0.2859  1.2802  0.3492
48082SOL     OW54559   0.875  10.578  10.720 -0.0683 -0.1779 -0.2609
48082SOL    HW154560   0.864  10.524  10.642  0.5646  0.7772 -1.0487
48082SOL    HW254561   0.960  10.552  10.755 -0.4808 -0.8099  0.2913
48083SOL     OW54562   4.089   8.839  10.745 -0.2920 -0.2709  0.0261
48083SOL    HW154563   4.087   8.907  10.677 -0.4544  0.8172  1.1004
48083SOL    HW254564   4.177   8.803  10.741  0.6612  1.8129  1.1804
48084SOL     OW54565   4.300   6.779   4.184 -0.4685 -0.1124 -0.3832
48084SOL    HW154566   4.374   6.721   4.204 -1.0197 -1.3893 -1.8338
48084SOL    HW254567   4.272   6.752   4.097 -0.8888  2.2376 -1.0472
48085SOL     OW54568  11.924   6.549  11.979  0.2428  0.1866 -0.2157
48085SOL    HW154569  11.843   6.588  11.947  0.1095 -0.6742 -0.9975
48085SOL    HW254570  11.929   6.465  11.933  0.6978 -0.5484  1.1243
48086SOL     OW54571   7.524   8.632  12.698  0.3374 -0.0263  0.6210
48086SOL    HW154572   7.480   8.714  12.674 -0.1190 -0.4511 -0.0061
48086SOL    HW254573   7.603   8.661  12.743  0.7082  0.7866 -0.4910
48087SOL     OW54574  10.291   3.361   7.000 -0.4634  0.7634 -0.0231
48087SOL    HW154575  10.306   3.271   6.973 -2.9370  0.2722  0.0750
48087SOL    HW254576  10.343   3.370   7.080 -0.1551 -0.5497 -0.0480
48088SOL     OW54577  12.369   4.471   1.954  0.5225  0.0975 -0.1200
48088SOL    HW154578  12.410   4.528   1.889 -1.8044  0.9341 -0.9585
48088SOL    HW254579  12.391   4.382   1.926  1.6847  0.5023 -0.5345
48089SOL     OW54580  10.322   6.841   3.005 -0.3531  0.1416 -0.5479
48089SOL    HW154581  10.390   6.800   3.058  0.9081  0.7849 -1.6029
48089SOL    HW254582  10.242   6.827   3.054  0.6340 -0.0218  1.1100
48090SOL     OW54583   0.958  10.587   4.191  0.7969 -0.2041  0.2997
48090SOL    HW154584   0.943  10.682   4.184  0.5980 -0.2932 -0.6951
48090SOL    HW254585   0.896  10.557   4.257 -0.6152  0.0601 -0.8495
48091SOL     OW54586   0.704   8.181   4.695  0.0523 -0.1330 -0.8293
48091SOL    HW154587   0.775   8.214   4.749 -0.2141 -0.3105 -0.3638
48091SOL    HW254588   0.644   8.255   4.684 -2.5479 -1.2050  3.4019
48092SOL     OW54589   2.761  12.166  10.130 -0.1227  0.9495 -0.4304
48092SOL    HW154590   2.839  12.119  10.101  0.1319  1.6408 -0.9295
48092SOL    HW254591   2.695  12.145  10.064 -0.1868  0.8227 -0.3262
48093SOL     OW54592   1.979   4.814  10.043  0.4131 -0.6185  0.0925
48093SOL    HW154593   1.889   4.794  10.070 -0.1669  0.1188 -1.1785
48093SOL    HW254594   1.989   4.769   9.959  1.2247 -0.6599  0.2050
48094SOL     OW54595   2.219   5.460  11.900  0.2199  0.3091  0.4112
48094SOL    HW154596   2.189   5.410  11.976 -0.0555  0.8982  0.6963
48094SOL    HW254597   2.305   5.422  11.879 -0.9127 -1.7830 -0.7742
48095SOL     OW54598   9.101  11.979   4.323 -0.0493  0.3640 -0.5194
48095SOL    HW154599   9.019  11.930   4.328 -0.2898  0.7593 -0.5467
48095SOL    HW254600   9.154  11.930   4.260  0.2527 -0.6341  0.4655
48096SOL     OW54601   1.501   8.102   9.304 -0.9533 -0.2200 -0.3672
48096SOL    HW154602   1.548   8.075   9.382 -2.0711 -2.0773 -0.2833
48096SOL    HW254603   1.517   8.196   9.298  1.1271 -0.4473  0.7195
48097SOL     OW54604   3.903   8.599   4.473 -0.1577 -0.1090 -0.9093
48097SOL    HW154605   3.859   8.526   4.430  0.2811  0.1630 -1.8481
48097SOL    HW254606   3.878   8.676   4.421 -0.8448  0.4692  0.2300
48098SOL     OW54607  12.438   7.950   1.212 -0.1520  0.2376 -0.1162
48098SOL    HW154608  12.442   7.928   1.119  0.5553  1.3114 -0.3707
48098SOL    HW254609  12.373   8.020   1.218 -0.6891 -0.2910  0.3066
48099SOL     OW54610   0.468   6.298   1.559  0.1875 -0.4816  0.3332
48099SOL    HW154611   0.422   6.300   1.475 -0.3045  0.3434  0.6043
48099SOL    HW254612   0.487   6.390   1.577 -2.9808 -0.1570  2.8723
48100SOL     OW54613  12.497   2.931   2.436  0.7794  0.0085 -0.3096
48100SOL    HW154614  12.510   2.840   2.407 -1.8902 -0.7195  0.4458
48100SOL    HW254615  12.540   2.936   2.521 -1.6150 -1.6046  1.1249
48101SOL     OW54616  10.905   8.211   4.438  0.3141  0.1955  0.5421
48101SOL    HW154617  10.845   8.241   4.369 -1.4849 -1.0098  1.4758
48101SOL    HW254618  10.872   8.253   4.518  1.0439 -0.1000  1.0049
48102SOL     OW54619  10.608   4.514  12.250  0.4933  0.4032 -0.2095
48102SOL    HW154620  10.659   4.436  12.230 -2.3550 -1.5192 -0.6039
48102SOL    HW254621  10.589   4.507  12.344 -0.5987  0.0411 -0.4442
48103SOL     OW54622   8.932  10.628  11.805  0.0685 -0.2355  0.1149
48103SOL    HW154623   8.957  10.618  11.897 -0.1641 -2.8916 -0.0382
48103SOL    HW254624   9.002  10.680  11.767  0.0159  1.1883  1.8133
48104SOL     OW54625   3.431  12.106   9.144  0.1211 -0.1918  0.1628
48104SOL    HW154626   3.360  12.044   9.154  0.0615 -0.0600  0.6062
48104SOL    HW254627   3.393  12.190   9.171 -0.0273  0.1906 -1.1749
48105SOL     OW54628   3.761   9.440   3.889 -0.0851 -0.0924  0.3708
48105SOL    HW154629   3.737   9.353   3.860 -0.2489  0.0887 -0.0380
48105SOL    HW254630   3.763   9.493   3.809  0.8633  0.0837  0.4919
48106SOL     OW54631  11.255   7.668   5.331  0.0496  0.3528  0.2863
48106SOL    HW154632  11.239   7.614   5.409  1.5630  0.1681  0.4902
48106SOL    HW254633  11.345   7.698   5.341 -0.1288  1.3019 -0.8205
48107SOL     OW54634   1.551   7.184  12.018  0.5359 -0.2123  0.2460
48107SOL    HW154635   1.561   7.111  12.078  0.9284  1.0204  1.7554
48107SOL    HW254636   1.555   7.145  11.931 -1.7687 -2.2791  0.9650
48108SOL     OW54637   0.058   2.714   1.039  0.1971 -0.6529 -0.3062
48108SOL    HW154638   0.127   2.756   0.987 -0.0675  2.1041  1.4050
48108SOL    HW254639   0.096   2.631   1.066  2.1709 -0.0069 -0.9082
48109SOL     OW54640   9.697   2.877  11.760 -0.3476 -0.2182  0.1084
48109SOL    HW154641   9.643   2.938  11.810 -2.2060 -1.8056  0.1138
48109SOL    HW254642   9.639   2.805  11.738  1.7161 -1.9331 -0.0727
48110SOL     OW54643  11.050   7.637   5.141 -0.0765 -0.1547 -0.1404
48110SOL    HW154644  11.132   7.650   5.188 -0.5143  0.7205  0.4013
48110SOL    HW254645  10.985   7.626   5.210 -0.9174  2.2468 -0.4560
48111SOL     OW54646   9.346   4.949   1.033 -0.3707 -0.5865  0.3453
48111SOL    HW154647   9.335   4.901   0.951 -0.5229 -0.6968  0.4316
48111SOL    HW254648   9.262   4.992   1.047 -1.2454 -2.5933  1.7613
48112SOL     OW54649   8.913   6.414   0.721  0.3551  0.6144  0.3986
48112SOL    HW154650   8.942   6.445   0.807  2.4378 -0.1790  0.0450
48112SOL    HW254651   8.867   6.489   0.682  2.2931  2.1384  0.8888
48113SOL     OW54652  12.270   9.172  10.095 -0.0158 -0.3533 -0.2763
48113SOL    HW154653  12.362   9.158  10.074  0.0342  0.4869 -0.6403
48113SOL    HW254654  12.223   9.112  10.037  0.2920 -0.7143 -0.1591
48114SOL     OW54655   6.651   7.840   2.304 -0.4531 -0.1432 -0.2827
48114SOL    HW154656   6.692   7.905   2.361  0.5388  0.3826 -1.5714
48114SOL    HW254657   6.714   7.768   2.300 -0.6109 -0.2680 -0.5465
48115SOL     OW54658  12.597   5.924  10.998  0.0354 -0.6289  0.0262
48115SOL    HW154659  12.602   6.018  10.983  0.1302 -0.2442  2.1372
48115SOL    HW254660  12.560   5.888  10.918 -0.0252  1.2096 -0.8045
48116SOL     OW54661  10.888   2.763   9.653 -0.1231  0.0671  0.1074
48116SOL    HW154662  10.897   2.842   9.600 -0.9305  0.0643 -0.0494
48116SOL    HW254663  10.915   2.692   9.594 -1.5113  0.0125 -0.4909
48117SOL     OW54664   9.425   6.715   1.134 -0.0796 -0.2691  0.2645
48117SOL    HW154665   9.398   6.777   1.067  0.7161  0.6395  0.7690
48117SOL    HW254666   9.520   6.709   1.125 -0.2158 -2.2137 -0.4559
48118SOL     OW54667   6.680   1.600   0.340  0.4638  0.0544 -0.3565
48118SOL    HW154668   6.612   1.542   0.307  1.2025 -0.0802 -1.7260
48118SOL    HW254669   6.641   1.687   0.339 -0.7417 -0.3999  1.9631
48119SOL     OW54670   8.490   0.628  12.080  0.1711  0.1918  0.1673
48119SOL    HW154671   8.434   0.697  12.043  0.1320  0.9111  1.5223
48119SOL    HW254672   8.515   0.661  12.166 -1.7091 -2.4484  1.8731
48120SOL     OW54673   0.109  10.327   2.669 -0.3544 -0.2726  0.0733
48120SOL    HW154674   0.117  10.364   2.581  0.7598 -1.1121 -0.2085
48120SOL    HW254675   0.058  10.391   2.717  0.8806  1.2971 -0.5884
48121SOL     OW54676  12.410   6.550   0.599  0.3308  0.1841 -0.0633
48121SOL    HW154677  12.317   6.566   0.583  0.4790  0.9198 -0.2372
48121SOL    HW254678  12.416   6.536   0.693  0.0971  0.5494  0.0099
48122SOL     OW54679   1.912   3.161   2.775 -0.3916 -0.1346  0.4372
48122SOL    HW154680   1.841   3.104   2.805  0.4413 -1.9641 -0.8938
48122SOL    HW254681   1.878   3.201   2.695 -0.1808 -0.5289  0.1434
48123SOL     OW54682   4.442   9.847   0.546 -0.2951 -0.5100  0.2573
48123SOL    HW154683   4.357   9.819   0.580 -1.3912 -0.3939 -2.1916
48123SOL    HW254684   4.477   9.904   0.615 -2.0387 -0.8052  1.4663
48124SOL     OW54685   6.538  12.413  11.218 -0.1361 -0.5098 -0.4275
48124SOL    HW154686   6.613  12.392  11.273 -0.0104 -1.9648 -1.1155
48124SOL    HW254687   6.518  12.332  11.171 -2.6448 -0.4367  0.3273
48125SOL     OW54688   7.988   0.440   6.083  0.0420 -0.0059 -0.2559
48125SOL    HW154689   8.050   0.404   6.146  2.2438  2.6939 -0.7013
48125SOL    HW254690   7.941   0.508   6.132 -2.1973 -1.5403 -0.1259
48126SOL     OW54691  12.456   4.197   5.997  0.3721 -0.1573  0.4757
48126SOL    HW154692  12.481   4.246   6.076  1.1672 -0.4440  0.4036
48126SOL    HW254693  12.360   4.195   6.000  0.4005 -0.2740  1.4992
48127SOL     OW54694  10.239   6.721  11.854 -0.2678  0.0413 -0.1175
48127SOL    HW154695  10.240   6.627  11.835  0.5572 -0.1657  0.8148
48127SOL    HW254696  10.148   6.740  11.875 -0.4700 -0.5247 -0.4528
48128SOL     OW54697   6.359   2.265   9.950 -0.2208 -0.5420  0.2462
48128SOL    HW154698   6.370   2.358   9.965  0.0656 -0.6710  0.8922
48128SOL    HW254699   6.279   2.257   9.898 -0.4956  0.0290  0.5818
48129SOL     OW54700   8.972   0.862   6.221  0.5321  0.1100  0.1088
48129SOL    HW154701   9.007   0.933   6.167 -1.2455  1.2572  0.3906
48129SOL    HW254702   8.938   0.905   6.299 -0.9016 -1.0000  0.1379
48130SOL     OW54703   7.981   0.894  11.469  0.2836  0.3814 -0.2471
48130SOL    HW154704   8.067   0.915  11.505  0.7733 -1.6688 -0.0988
48130SOL    HW254705   7.992   0.906  11.374  0.7278  0.1897 -0.2246
48131SOL     OW54706   5.064   3.578   0.110 -0.0944 -0.4761  0.0364
48131SOL    HW154707   5.095   3.659   0.070 -3.1251 -0.1074 -1.9514
48131SOL    HW254708   5.043   3.521   0.035 -1.1763 -1.7797  1.2711
48132SOL     OW54709   6.401   6.871   8.930  0.6372  0.1485  0.2732
48132SOL    HW154710   6.460   6.945   8.913  2.2899 -1.2359 -0.4022
48132SOL    HW254711   6.316   6.901   8.898  0.4453  2.8996  2.8903
48133SOL     OW54712   6.478   5.065   7.924 -0.3255  0.0285  0.6730
48133SOL    HW154713   6.407   5.129   7.934 -0.0219  0.6938 -1.0106
48133SOL    HW254714   6.433   4.982   7.907 -0.8507  0.8490 -2.7594
48134SOL     OW54715   0.810   8.977   4.713  0.3330  0.6574  0.0671
48134SOL    HW154716   0.832   8.886   4.729  1.7678  0.9960  0.2137
48134SOL    HW254717   0.826   8.990   4.620  1.9849  1.1771  0.3722
48135SOL     OW54718   8.945   3.862   7.138  0.0945 -0.2027 -0.2616
48135SOL    HW154719   8.976   3.788   7.084  0.9653  1.8293 -2.7722
48135SOL    HW254720   8.994   3.853   7.220  1.9036 -1.1894 -1.3600
48136SOL     OW54721  11.020   8.481  12.365  0.3387 -0.0434 -0.0683
48136SOL    HW154722  11.039   8.490  12.458 -2.8648  0.7585  0.6459
48136SOL    HW254723  11.056   8.561  12.326  2.0618 -0.5723  0.3490
48137SOL     OW54724   8.765   0.472   1.259 -0.3538  0.9198 -0.1340
48137SOL    HW154725   8.732   0.383   1.269  0.0959  0.6702 -0.8378
48137SOL    HW254726   8.723   0.521   1.330 -1.8738  0.5020 -0.6902
48138SOL     OW54727   9.965  10.032   0.072 -0.3973 -0.3744 -0.7828
48138SOL    HW154728   9.963   9.951   0.124 -0.7751  0.4683  0.5697
48138SOL    HW254729   9.902  10.016   0.002  0.2388 -1.6048 -1.1127
48139SOL     OW54730   8.027   8.619  10.569  0.5202  0.7314  0.6446
48139SOL    HW154731   8.066   8.699  10.534  1.2489 -0.3636 -1.1523
48139SOL    HW254732   7.980   8.581  10.495 -1.0222  0.1906  1.8406
48140SOL     OW54733   2.047   6.222   0.755  0.5625 -0.1369  0.0536
48140SOL    HW154734   2.080   6.307   0.727  0.9488 -1.0673 -2.6777
48140SOL    HW254735   2.117   6.187   0.810  1.5020  0.3612 -0.7809
48141SOL     OW54736   6.524   0.444   3.498 -0.8065  0.6105 -0.3316
48141SOL    HW154737   6.609   0.484   3.484 -0.8775  0.4537 -1.3685
48141SOL    HW254738   6.461   0.513   3.478 -0.9211  0.3178 -1.0257
48142SOL     OW54739  12.186   2.754  12.356 -0.3283 -0.1736  0.5033
48142SOL    HW154740  12.257   2.690  12.368  0.3545  0.4102 -0.2626
48142SOL    HW254741  12.230   2.834  12.327 -1.0527  1.0264  2.5365
48143SOL     OW54742   0.691   3.506   2.130  0.1172 -0.5513 -0.4725
48143SOL    HW154743   0.614   3.562   2.122 -0.0583 -0.5094  1.2396
48143SOL    HW254744   0.765   3.567   2.123 -0.0100 -0.4826 -1.3025
48144SOL     OW54745   7.975  11.887  10.707  0.2742 -0.0754 -0.5878
48144SOL    HW154746   7.916  11.958  10.735 -2.0918 -2.2824  0.4301
48144SOL    HW254747   7.943  11.863  10.620  0.3168 -0.6345 -0.4505
48145SOL     OW54748   4.905   2.896   1.439 -0.0085  0.3379 -0.0426
48145SOL    HW154749   4.921   2.976   1.388 -0.1028  1.1427  1.1583
48145SOL    HW254750   4.834   2.919   1.499  0.2183 -0.5300  0.5787
48146SOL     OW54751   7.322   0.863   1.303 -0.1384  0.3686  0.7824
48146SOL    HW154752   7.234   0.831   1.318  0.7146 -1.6196  1.9517
48146SOL    HW254753   7.326   0.878   1.208 -0.9528 -2.0742  0.2999
48147SOL     OW54754   5.999  11.154   7.780 -0.0235  0.0477 -0.1840
48147SOL    HW154755   5.954  11.186   7.858  0.8237  2.1785 -0.5015
48147SOL    HW254756   6.079  11.113   7.813 -0.8118 -1.2729  0.1818
48148SOL     OW54757   3.794   5.773   0.194 -0.4779 -0.0701 -0.2390
48148SOL    HW154758   3.770   5.702   0.136 -1.3531  0.9591 -1.1889
48148SOL    HW254759   3.842   5.835   0.139 -0.7413  0.6160  0.2771
48149SOL     OW54760   6.179  10.674   4.246 -0.7520 -0.1106 -0.0752
48149SOL    HW154761   6.215  10.692   4.159 -2.2975  0.4314 -0.6451
48149SOL    HW254762   6.084  10.676   4.233 -1.0083 -0.2178  1.5905
48150SOL     OW54763   9.890   4.821   2.014 -0.3992  0.4183 -0.2210
48150SOL    HW154764   9.846   4.738   1.997 -2.0098  1.1509  0.1513
48150SOL    HW254765   9.919   4.851   1.928 -1.2254  0.2186 -0.5767
48151SOL     OW54766   1.363  12.250   0.808 -0.1861  0.2033 -0.1904
48151SOL    HW154767   1.319  12.167   0.792 -0.4702  0.0404  1.2644
48151SOL    HW254768   1.294  12.316   0.799 -0.0463  0.2440 -0.9616
48152SOL     OW54769   6.824   6.706   8.890  0.2506  0.4556 -0.5445
48152SOL    HW154770   6.796   6.615   8.901  1.3583  0.0497 -0.9535
48152SOL    HW254771   6.825   6.719   8.795 -0.3622  1.0506 -0.4760
48153SOL     OW54772   2.974  10.331   4.681  0.0494  0.0012  0.2363
48153SOL    HW154773   3.046  10.291   4.634 -0.0322  0.1444 -0.0173
48153SOL    HW254774   2.956  10.272   4.754  1.7349  0.9483  1.4981
48154SOL     OW54775   0.032   4.997   7.005 -0.0048  0.6431  0.3392
48154SOL    HW154776  -0.008   5.010   7.091 -0.7935 -0.1108  0.1022
48154SOL    HW254777   0.124   4.978   7.024 -0.5826 -1.5939  1.1904
48155SOL     OW54778  12.783   0.587  11.272  0.4891 -0.0574  0.6382
48155SOL    HW154779  12.795   0.502  11.315  2.4556  0.0454  0.3650
48155SOL    HW254780  12.832   0.580  11.191  0.6463  1.3244  0.5872
48156SOL     OW54781  12.367  12.348   2.856  0.2598  0.5097  0.6215
48156SOL    HW154782  12.355  12.427   2.802 -0.2836 -0.5732 -0.9337
48156SOL    HW254783  12.391  12.381   2.942 -0.7645  2.4096  0.2429
48157SOL     OW54784   7.466  11.420   3.527 -0.4943 -0.2832 -0.6155
48157SOL    HW154785   7.388  11.428   3.581 -0.7854 -1.2348 -0.8862
48157SOL    HW254786   7.531  11.379   3.585  0.6465  2.7253  0.4165
48158SOL     OW54787   2.725   5.277   6.876 -0.1419 -0.3187  0.6157
48158SOL    HW154788   2.721   5.329   6.956  0.3967 -0.3827  0.6919
48158SOL    HW254789   2.747   5.340   6.807 -0.4756 -0.2847  0.5418
48159SOL     OW54790   6.917   1.916   2.625 -0.0268 -0.1068 -0.4254
48159SOL    HW154791   6.934   1.921   2.719  0.2508  1.8526 -0.5397
48159SOL    HW254792   6.821   1.912   2.619 -0.0329 -0.7860 -0.0730
48160SOL     OW54793  11.198  11.451  10.951 -0.3781 -0.0696 -0.2428
48160SOL    HW154794  11.284  11.488  10.973 -1.2644  0.9818  1.7255
48160SOL    HW254795  11.193  11.458  10.855  0.9766  1.5872 -0.2474
48161SOL     OW54796  12.655   0.597  10.266 -0.2668  0.0419  0.3211
48161SOL    HW154797  12.672   0.607  10.172 -0.4967  0.2131  0.2967
48161SOL    HW254798  12.742   0.589  10.305 -0.2022 -2.8415 -0.2041
48162SOL     OW54799   7.071   8.250   9.239  0.0912  0.0142  0.3194
48162SOL    HW154800   7.056   8.168   9.191  3.4207  0.6697 -2.2074
48162SOL    HW254801   7.024   8.316   9.190  2.1848  0.4235 -1.2862
48163SOL     OW54802   5.781   9.450  10.276 -0.2197  0.1496  0.0482
48163SOL    HW154803   5.825   9.535  10.287 -1.4503  0.5384  2.9133
48163SOL    HW254804   5.688   9.472  10.273 -0.4575 -0.9485 -1.9041
48164SOL     OW54805   3.257   1.418   3.165 -0.2705 -0.4245  0.1603
48164SOL    HW154806   3.190   1.352   3.146 -0.8725  0.4579 -0.9826
48164SOL    HW254807   3.340   1.375   3.145 -0.6736 -0.7657 -0.8677
48165SOL     OW54808  10.344   2.170   9.321 -0.0650 -0.1919  0.4459
48165SOL    HW154809  10.421   2.130   9.281 -0.7847 -3.3342  1.9430
48165SOL    HW254810  10.270   2.132   9.275 -0.7930  0.3156  1.1668
48166SOL     OW54811   2.847   3.818   4.290  0.2942  0.2473  0.0254
48166SOL    HW154812   2.937   3.809   4.258 -0.4810 -4.2315 -1.5898
48166SOL    HW254813   2.847   3.771   4.373 -0.4581  0.8579  0.3781
48167SOL     OW54814  12.861   8.767   3.137  0.3072  0.5276  0.2117
48167SOL    HW154815  12.918   8.837   3.107  3.1660 -0.4750  2.7524
48167SOL    HW254816  12.816   8.803   3.214 -1.9035  0.9737 -1.1868
48168SOL     OW54817   0.117   9.454  11.534  0.1675 -0.4330  0.3846
48168SOL    HW154818   0.033   9.450  11.579  0.4585 -1.4389  0.8896
48168SOL    HW254819   0.099   9.422  11.446 -0.0060 -0.5068  0.4469
48169SOL     OW54820   0.983  12.238   0.020 -0.1906  0.5413  0.0790
48169SOL    HW154821   0.972  12.190  -0.062  0.4132 -1.9182  1.3522
48169SOL    HW254822   1.052  12.303   0.000  2.1425 -1.9566 -0.6570
48170SOL     OW54823   3.592   2.268   3.499  0.4892  0.4998 -0.6256
48170SOL    HW154824   3.583   2.350   3.546 -2.0889 -0.2238  0.3456
48170SOL    HW254825   3.547   2.283   3.416 -0.1711  0.0376 -0.3603
48171SOL     OW54826  11.626   9.019   8.932 -0.0105  0.4641 -0.0395
48171SOL    HW154827  11.575   8.946   8.967 -0.3583 -0.1292 -1.7119
48171SOL    HW254828  11.651   8.992   8.844  0.2409  2.1804 -0.5422
48172SOL     OW54829   9.400  11.123   5.132  0.5215  0.5400  0.1332
48172SOL    HW154830   9.377  11.138   5.224  1.8523  0.3024  0.5161
48172SOL    HW254831   9.455  11.045   5.133 -1.0646 -0.6536 -1.1189
48173SOL     OW54832   4.000   8.924   3.969 -0.1516  0.4073 -0.3788
48173SOL    HW154833   3.923   8.964   4.008  0.6470  2.4103 -0.6765
48173SOL    HW254834   4.009   8.839   4.012 -1.3631  0.9890  1.1061
48174SOL     OW54835  11.257   6.280   5.941  0.6749 -0.4070  0.0488
48174SOL    HW154836  11.290   6.190   5.945  0.3538 -0.5691 -0.8145
48174SOL    HW254837  11.334   6.333   5.920  0.1627 -1.0155 -4.1930
48175SOL     OW54838   0.869   3.453   7.635  0.0931  0.2248  0.0197
48175SOL    HW154839   0.931   3.426   7.568  1.2810 -1.8237  1.7986
48175SOL    HW254840   0.810   3.378   7.644 -1.0154  1.0932  0.2007
48176SOL     OW54841   8.736  11.775   2.800  0.4284  0.2857 -0.3225
48176SOL    HW154842   8.776  11.691   2.774 -0.9267 -0.4350 -0.1579
48176SOL    HW254843   8.798  11.812   2.863  1.8035  0.1561 -1.5527
48177SOL     OW54844   1.288   0.964   7.678  0.1753 -0.8033  0.0748
48177SOL    HW154845   1.284   0.876   7.714  0.4416 -0.8951 -0.1135
48177SOL    HW254846   1.380   0.990   7.689 -0.4238  0.5598  2.7103
48178SOL     OW54847   8.982  11.933  12.631 -0.2699 -1.0666  0.0972
48178SOL    HW154848   8.926  11.966  12.561 -2.8499  0.7220  2.8001
48178SOL    HW254849   9.029  11.860  12.590 -0.2690  0.8894 -3.9294
48179SOL     OW54850   0.262   7.720   4.945  0.0773  0.0443 -0.3851
48179SOL    HW154851   0.210   7.663   5.002 -0.5051  0.3016 -0.6558
48179SOL    HW254852   0.215   7.720   4.862  0.1462  0.8148 -0.4300
48180SOL     OW54853   1.078   5.234  11.489  0.0381  0.3214  0.2649
48180SOL    HW154854   1.123   5.150  11.498 -0.6799 -0.0568  0.4513
48180SOL    HW254855   0.995   5.221  11.535 -0.3344  0.9410 -0.2197
48181SOL     OW54856  10.823   3.360   4.607  0.1163 -0.4714 -0.3056
48181SOL    HW154857  10.736   3.379   4.642  0.2009 -0.0474 -0.3176
48181SOL    HW254858  10.810   3.284   4.550 -0.3537 -0.0514 -0.7634
48182SOL     OW54859  10.851   5.295   1.705  0.1413  0.6593  0.4290
48182SOL    HW154860  10.876   5.372   1.653  1.2736  0.5738  0.8168
48182SOL    HW254861  10.783   5.328   1.765 -1.5873  0.6319 -1.4119
48183SOL     OW54862   5.865   8.284   1.698  0.0044 -0.0316  0.4131
48183SOL    HW154863   5.939   8.225   1.680  0.7373  0.7781  0.7154
48183SOL    HW254864   5.802   8.264   1.629 -0.1333 -1.7485  0.9779
48184SOL     OW54865   9.502   0.129  10.787 -0.3454 -0.0074 -0.0917
48184SOL    HW154866   9.569   0.063  10.806 -0.4493  0.2110  1.1079
48184SOL    HW254867   9.419   0.081  10.793 -0.3386 -0.1475 -0.9906
48185SOL     OW54868  10.992   4.643   1.244 -0.1829  0.2729  0.2430
48185SOL    HW154869  11.082   4.615   1.259 -0.3518 -0.2914  0.2508
48185SOL    HW254870  10.968   4.690   1.324  0.0056  0.1552  0.3701
48186SOL     OW54871   7.826   0.273  10.249 -0.4753 -0.1984 -0.2516
48186SOL    HW154872   7.878   0.201  10.213 -1.0655 -0.4101 -0.7059
48186SOL    HW254873   7.736   0.240  10.248 -0.4361 -0.5997  2.3613
48187SOL     OW54874  10.180   9.883  10.738  0.0637 -0.0912  0.4265
48187SOL    HW154875  10.158   9.975  10.750 -1.9593 -0.0452 -2.4900
48187SOL    HW254876  10.262   9.884  10.688 -0.6175  0.2060 -0.7123
48188SOL     OW54877  11.442   5.669   1.050 -0.2596 -0.2454 -0.0999
48188SOL    HW154878  11.504   5.676   0.978 -1.5408  2.2460 -1.0894
48188SOL    HW254879  11.433   5.759   1.082 -0.8495 -1.0613  2.2198
48189SOL     OW54880  11.183   0.248   1.129 -0.2200 -0.1302 -0.2614
48189SOL    HW154881  11.149   0.337   1.140  1.7162  0.8261 -1.5207
48189SOL    HW254882  11.154   0.222   1.041 -0.8345 -0.8064  0.1275
48190SOL     OW54883   9.683   6.956   3.888 -0.1674 -0.0127  0.1205
48190SOL    HW154884   9.594   6.961   3.924 -0.3134 -0.7161 -0.1411
48190SOL    HW254885   9.725   6.886   3.938 -0.2393 -0.7074 -0.7820
48191SOL     OW54886   0.509   0.710   4.656  0.2995  0.0494 -0.3340
48191SOL    HW154887   0.447   0.641   4.681 -0.7071  0.7662 -0.7707
48191SOL    HW254888   0.499   0.717   4.561  1.8248 -0.5238 -0.5630
48192SOL     OW54889   7.820   7.125   9.032  0.0542  0.1632  0.2984
48192SOL    HW154890   7.866   7.143   9.114  1.1243  2.0055 -0.6571
48192SOL    HW254891   7.886   7.137   8.964 -0.9757 -0.7006 -0.8862
48193SOL     OW54892   3.157  11.435  10.220  0.0179  0.2124 -0.1227
48193SOL    HW154893   3.129  11.344  10.230 -0.0923  0.1286 -1.0500
48193SOL    HW254894   3.130  11.478  10.301 -1.0562 -0.3070 -0.1870
48194SOL     OW54895   2.095   1.940   5.592  0.3296  0.0721  0.1598
48194SOL    HW154896   2.156   1.877   5.554 -0.4911 -0.6092 -0.0418
48194SOL    HW254897   2.033   1.959   5.522  0.7737  1.4029  0.0951
48195SOL     OW54898   0.192   1.346   2.575 -0.4397 -0.6329 -0.0216
48195SOL    HW154899   0.170   1.253   2.565  0.8395 -0.7411 -2.6748
48195SOL    HW254900   0.282   1.345   2.608  0.3086 -0.4401 -1.9214
48196SOL     OW54901   1.348   1.846  10.528 -0.0964 -0.5332  0.0671
48196SOL    HW154902   1.415   1.785  10.497 -0.4168  0.2606 -2.4021
48196SOL    HW254903   1.266   1.797  10.520 -0.3434  0.1022 -1.8340
48197SOL     OW54904   4.660   2.996   4.175 -0.0822  0.3482 -0.3907
48197SOL    HW154905   4.641   2.902   4.165 -0.0574  0.2838  0.1580
48197SOL    HW254906   4.744   2.999   4.220  0.6620  0.6435 -1.7557
48198SOL     OW54907   5.568   0.779   6.263 -0.0855 -0.2585 -0.5565
48198SOL    HW154908   5.480   0.816   6.253 -0.6161 -1.1422  0.5984
48198SOL    HW254909   5.613   0.802   6.182 -1.2552  0.5446 -1.0065
48199SOL     OW54910  12.275   9.997  12.135 -0.0110 -0.2549 -0.8289
48199SOL    HW154911  12.334  10.048  12.080 -0.5820  1.9534  0.4717
48199SOL    HW254912  12.234  10.062  12.192  0.6418 -2.3732  2.3209
48200SOL     OW54913   9.688  12.369   6.174 -0.0920  0.1633 -0.2923
48200SOL    HW154914   9.606  12.396   6.131  1.1223  0.4092 -2.6084
48200SOL    HW254915   9.752  12.366   6.103  1.7438 -0.8257  1.3237
48201SOL     OW54916   1.928   9.049   5.713 -0.3253 -0.7814  0.0118
48201SOL    HW154917   1.896   9.025   5.626  0.6686 -0.5001 -0.4439
48201SOL    HW254918   2.023   9.038   5.708 -0.2165 -0.3894  0.9500
48202SOL     OW54919  12.211   9.222  12.019  0.7818  0.0913  0.3146
48202SOL    HW154920  12.254   9.225  12.105  0.9744 -0.7873  0.2529
48202SOL    HW254921  12.228   9.134  11.986 -1.6434 -0.5773  0.6024
48203SOL     OW54922   3.426   6.534  12.473  0.6793  0.0391  0.7273
48203SOL    HW154923   3.499   6.531  12.535  1.4118  2.4777  0.1030
48203SOL    HW254924   3.348   6.539  12.528  0.7779 -3.5201  1.4221
48204SOL     OW54925   8.919   9.372   4.622 -0.3352 -0.1366 -0.4834
48204SOL    HW154926   8.945   9.447   4.676 -0.3628 -0.8713  0.5785
48204SOL    HW254927   8.976   9.377   4.545 -1.1166  1.6178 -0.9987
48205SOL     OW54928  10.080  12.342  12.100 -0.2052 -0.4469  0.4702
48205SOL    HW154929  10.067  12.435  12.079  1.5181 -0.4417 -0.8497
48205SOL    HW254930  10.085  12.299  12.014  0.7215 -1.4669  1.0067
48206SOL     OW54931   2.721   6.466   4.496 -0.0856  0.2465  0.1965
48206SOL    HW154932   2.729   6.524   4.572  0.8379 -0.1898  0.4455
48206SOL    HW254933   2.645   6.499   4.448  0.4118  1.6391  0.3471
48207SOL     OW54934   8.049  12.752   8.234  0.8967  0.0374  0.2702
48207SOL    HW154935   7.998  12.744   8.314 -1.8809 -0.1948 -1.4057
48207SOL    HW254936   8.082  12.842   8.234  0.5157  0.1819  1.4003
48208SOL     OW54937  12.240   7.802  12.214  0.3966 -0.3894  0.5084
48208SOL    HW154938  12.206   7.766  12.295  0.0522  0.8583  0.9328
48208SOL    HW254939  12.317   7.852  12.240  2.2522 -2.6380 -0.3568
48209SOL     OW54940   5.745  10.417   6.221  0.0720 -0.6876 -0.1959
48209SOL    HW154941   5.762  10.431   6.314  1.3367 -1.0887 -0.3435
48209SOL    HW254942   5.715  10.326   6.215 -0.1087 -0.6303 -0.1765
48210SOL     OW54943  11.380   3.289   8.137  0.3590 -0.0750 -0.3887
48210SOL    HW154944  11.445   3.286   8.066 -0.1531  0.1369 -0.8705
48210SOL    HW254945  11.430   3.267   8.216  1.3256  1.4793 -0.5264
48211SOL     OW54946  11.853   7.739   9.484  0.2527 -0.6143 -0.2722
48211SOL    HW154947  11.939   7.781   9.490 -0.2129  0.5511 -1.3307
48211SOL    HW254948  11.829   7.723   9.576  0.9540  0.4122  0.1185
48212SOL     OW54949   8.528   1.581   7.536 -0.2101  0.4503 -1.0024
48212SOL    HW154950   8.477   1.629   7.602 -0.9725  1.6606 -2.4076
48212SOL    HW254951   8.610   1.630   7.529  0.1395 -0.0602 -0.4905
48213SOL     OW54952   3.341   8.969   7.939  0.0561  0.2008 -0.1308
48213SOL    HW154953   3.365   9.062   7.948 -0.6969  0.5459 -1.4618
48213SOL    HW254954   3.332   8.939   8.029  0.7319  1.3055  0.3360
48214SOL     OW54955  10.491   2.248   5.175 -0.4519 -0.8050 -0.6128
48214SOL    HW154956  10.568   2.290   5.139 -0.8281 -0.1457 -0.6533
48214SOL    HW254957  10.489   2.161   5.133  0.4061 -0.9311 -0.4045
48215SOL     OW54958   0.850   7.454   7.938 -0.7127  0.6109  0.1185
48215SOL    HW154959   0.823   7.504   7.862 -1.9687 -0.6669 -0.3119
48215SOL    HW254960   0.840   7.514   8.012 -4.5246  0.3554 -0.0356
48216SOL     OW54961   6.654   8.752  10.139  0.2995  0.0469  0.0331
48216SOL    HW154962   6.578   8.783  10.090 -1.1568 -3.4905 -0.2454
48216SOL    HW254963   6.723   8.740  10.073 -1.0699 -2.9096 -1.0493
48217SOL     OW54964  12.025  12.162   3.713 -0.7151  0.1213  0.4157
48217SOL    HW154965  12.102  12.212   3.741 -1.4778  1.3083  0.4487
48217SOL    HW254966  11.959  12.181   3.780 -1.5721  0.4768 -0.5197
48218SOL     OW54967  11.437  12.725  12.598 -0.0391 -0.3814  0.3063
48218SOL    HW154968  11.409  12.796  12.541  0.3552 -0.5106 -0.0547
48218SOL    HW254969  11.522  12.698  12.563 -0.0089 -0.7735  0.6709
48219SOL     OW54970   8.647  11.526   8.802 -0.1810  0.1340  0.3268
48219SOL    HW154971   8.654  11.598   8.739 -1.6347 -0.8050 -0.9653
48219SOL    HW254972   8.631  11.449   8.749  3.1015 -1.5749  1.4915
48220SOL     OW54973   0.857   7.594  12.192  0.6395 -0.2480 -0.1441
48220SOL    HW154974   0.779   7.621  12.241 -0.5930 -0.0521 -2.0818
48220SOL    HW254975   0.857   7.499  12.198 -0.1194 -0.2886 -0.6195
48221SOL     OW54976   5.677  10.433   9.291 -0.1607  0.0474 -0.2158
48221SOL    HW154977   5.617  10.384   9.235  0.0054 -0.3120 -0.0879
48221SOL    HW254978   5.760  10.386   9.283 -0.5531 -1.0780  1.6857
48222SOL     OW54979   0.861   5.324   4.921 -0.3406  0.1206 -0.0587
48222SOL    HW154980   0.898   5.413   4.925  1.2848 -0.5836  2.1684
48222SOL    HW254981   0.790   5.325   4.985  0.0826 -0.3298  0.4252
48223SOL     OW54982   7.809  12.341   4.889  0.0014 -0.4448 -0.8652
48223SOL    HW154983   7.892  12.372   4.927 -0.7275 -0.2097  0.6214
48223SOL    HW254984   7.744  12.357   4.958 -1.1111 -1.5614 -1.6163
48224SOL     OW54985   5.550   1.626   1.843 -0.5607  0.0961 -0.2816
48224SOL    HW154986   5.516   1.609   1.755 -0.8979  1.1225 -0.3626
48224SOL    HW254987   5.475   1.610   1.901 -0.5616  0.2122 -0.2517
48225SOL     OW54988  11.226   6.041   5.681  0.5098 -0.2864  0.3212
48225SOL    HW154989  11.223   6.033   5.776  0.3516 -0.3447  0.3126
48225SOL    HW254990  11.318   6.052   5.660  1.0358 -3.7933  0.1948
48226SOL     OW54991   4.851  11.507   8.339  0.4116  0.2697 -0.1520
48226SOL    HW154992   4.759  11.497   8.315  0.1690  0.9469  0.4361
48226SOL    HW254993   4.865  11.602   8.340  1.1229  0.1696 -0.2600
48227SOL     OW54994   3.464  11.751   3.778 -0.0611  0.3881 -0.1882
48227SOL    HW154995   3.555  11.726   3.792  0.5789  2.5132 -0.1733
48227SOL    HW254996   3.427  11.679   3.726  0.8276 -1.8005  2.0040
48228SOL     OW54997  12.850  12.689  12.847 -0.5082  0.2310  0.2491
48228SOL    HW154998  12.805  12.729  12.922 -1.3882 -0.3490  0.0452
48228SOL    HW254999  12.848  12.757  12.780  1.3047  1.1813  1.0872
48229SOL     OW55000   3.211   1.516  11.474 -0.3544  0.3094  0.0554
48229SOL    HW155001   3.233   1.506  11.382 -2.8045 -0.1726 -0.5373
48229SOL    HW255002   3.161   1.598  11.479 -2.2507 -0.8042  0.4859
48230SOL     OW55003   3.919   8.734   8.816 -0.5730 -0.4251 -0.0590
48230SOL    HW155004   3.825   8.743   8.800 -0.3256  0.2014 -1.3502
48230SOL    HW255005   3.940   8.803   8.879 -0.9447 -0.3814  0.0149
48231SOL     OW55006   7.269  12.647   6.231 -0.1251 -0.5641  0.1953
48231SOL    HW155007   7.186  12.694   6.238  0.6392  0.9391 -0.3626
48231SOL    HW255008   7.264  12.600   6.148 -0.4584 -0.5804  0.2233
48232SOL     OW55009   5.979   4.993   6.743  0.0394  0.2654 -0.1466
48232SOL    HW155010   5.960   5.074   6.694 -1.8654 -0.5160 -0.7671
48232SOL    HW255011   6.065   5.010   6.782  0.1075  2.2443 -0.9837
48233SOL     OW55012   7.207   3.676   8.775  0.5961  0.0264  0.1707
48233SOL    HW155013   7.186   3.677   8.869  0.0982  0.3969  0.0558
48233SOL    HW255014   7.226   3.584   8.756 -1.2915 -0.4209  0.2061
48234SOL     OW55015   2.065   2.553   0.053  0.0330 -0.2217  0.3861
48234SOL    HW155016   1.980   2.515   0.073  1.1446 -2.1232  1.8485
48234SOL    HW255017   2.109   2.559   0.137  1.0982  1.4561 -0.2329
48235SOL     OW55018   2.275   5.752   5.332 -0.6612  0.7566 -0.4340
48235SOL    HW155019   2.196   5.790   5.293 -0.5409 -0.0573 -1.5400
48235SOL    HW255020   2.339   5.823   5.331 -0.9752  1.0390 -0.8211
48236SOL     OW55021   0.735   1.551  11.717 -0.6643 -0.0487  0.9132
48236SOL    HW155022   0.668   1.618  11.729  0.7164  1.4909  0.4310
48236SOL    HW255023   0.797   1.567  11.789 -1.0640 -1.8028  1.6834
48237SOL     OW55024   6.928  11.684   0.106  0.0353 -0.0051  0.3614
48237SOL    HW155025   6.882  11.662   0.187  1.0392 -0.1594  0.9084
48237SOL    HW255026   6.877  11.642   0.037  0.0970 -1.3202  1.0787
48238SOL     OW55027   4.309   9.608   6.860  0.2649 -0.6310  0.0493
48238SOL    HW155028   4.335   9.526   6.902  0.3611 -0.4921  0.2617
48238SOL    HW255029   4.233   9.585   6.807 -0.9334 -0.4702  1.6330
48239SOL     OW55030  12.619  11.370   0.088  0.2370 -0.1094 -0.4876
48239SOL    HW155031  12.569  11.451   0.095  0.7360  0.1256  0.5586
48239SOL    HW255032  12.710  11.398   0.090  0.4243 -0.7547  0.9531
48240SOL     OW55033  10.730   6.556   2.197 -0.4404 -0.3664 -0.3014
48240SOL    HW155034  10.781   6.514   2.127  1.8845  1.3856  0.2144
48240SOL    HW255035  10.743   6.649   2.182 -2.4173  0.1195  0.7388
48241SOL     OW55036   3.059   2.343   9.225  0.1925 -0.1575 -0.0054
48241SOL    HW155037   3.079   2.325   9.133 -2.0794 -0.9100 -0.4343
48241SOL    HW255038   3.050   2.439   9.229  0.7934 -0.0768 -0.4487
48242SOL     OW55039   4.382  11.594   2.494 -0.4116  0.0387 -0.1255
48242SOL    HW155040   4.300  11.551   2.518 -0.2943  0.6433  1.4369
48242SOL    HW255041   4.366  11.628   2.406 -0.5644 -2.9736 -1.3746
48243SOL     OW55042   0.981   2.333   6.409 -0.2968  0.3270  0.5594
48243SOL    HW155043   1.071   2.303   6.398 -0.5920 -0.4340  0.0768
48243SOL    HW255044   0.964   2.387   6.332 -0.5840 -0.4196  0.0819
48244SOL     OW55045   9.545   7.576   1.551  0.5669  0.5513  0.1845
48244SOL    HW155046   9.478   7.585   1.483  3.2125  1.7768 -2.5310
48244SOL    HW255047   9.585   7.490   1.535 -0.4453 -0.3073  1.9722
48245SOL     OW55048   8.855   0.807   2.685 -0.5686 -0.3121 -0.5640
48245SOL    HW155049   8.876   0.787   2.594 -2.5287 -0.0640 -1.1185
48245SOL    HW255050   8.762   0.828   2.684 -0.5663 -0.0041  1.4623
48246SOL     OW55051  11.350  11.665  10.268 -0.3665  0.1311  0.1397
48246SOL    HW155052  11.274  11.612  10.290  0.3959 -0.2475  2.1523
48246SOL    HW255053  11.363  11.653  10.174 -3.7871  1.6037 -0.6566
48247SOL     OW55054   3.528  11.000   5.211 -0.2722  0.4038 -0.4343
48247SOL    HW155055   3.609  11.005   5.263 -0.3755 -1.1032 -0.0723
48247SOL    HW255056   3.497  10.910   5.224 -1.6234  0.7376 -1.1559
48248SOL     OW55057   8.816   4.175   4.065 -0.3351  0.2665  0.5945
48248SOL    HW155058   8.823   4.130   3.981  0.1272 -0.6175  1.1004
48248SOL    HW255059   8.769   4.114   4.122 -1.5968  1.2924  0.6837
48249SOL     OW55060   4.652   8.013   9.697  0.1024  0.7442 -0.1170
48249SOL    HW155061   4.637   8.054   9.611 -2.4016  0.2111  0.0002
48249SOL    HW255062   4.577   8.039   9.750  1.6735  1.2043  2.0448
48250SOL     OW55063   1.735   6.227   0.419 -0.1660 -1.0675  0.3848
48250SOL    HW155064   1.692   6.178   0.348 -1.6887 -1.0455  1.2470
48250SOL    HW255065   1.792   6.162   0.461  1.8823 -0.7427 -1.6603
48251SOL     OW55066   5.514   8.650   9.984  0.5490  0.2342 -0.0358
48251SOL    HW155067   5.602   8.623   9.957 -0.2161 -1.3824 -1.0891
48251SOL    HW255068   5.492   8.590  10.055 -0.8483 -1.5210 -1.8343
48252SOL     OW55069  11.118   5.202   5.508 -0.2315 -0.0787 -0.1155
48252SOL    HW155070  11.120   5.226   5.415 -1.3273  4.1898  0.7625
48252SOL    HW255071  11.207   5.217   5.538 -0.4804  1.2533  0.0195
48253SOL     OW55072  12.472  10.187  11.082  0.1476 -0.1606  0.6454
48253SOL    HW155073  12.485  10.282  11.090  1.3639 -0.1626 -0.8705
48253SOL    HW255074  12.542  10.149  11.135  1.2082 -0.1610 -0.6729
48254SOL     OW55075   6.726   5.576   6.667 -0.6833 -0.1634  0.1475
48254SOL    HW155076   6.717   5.574   6.762 -0.5063 -2.1745  0.1691
48254SOL    HW255077   6.637   5.569   6.633 -0.6152 -2.2263  0.2384
48255SOL     OW55078   7.506   5.012   6.473  0.4906  0.2587  0.3646
48255SOL    HW155079   7.524   4.918   6.475 -0.3444  0.0679 -0.4456
48255SOL    HW255080   7.540   5.045   6.556 -0.4620 -0.9861  1.2738
48256SOL     OW55081  11.945   0.282   4.697  0.1797 -0.0580  0.4013
48256SOL    HW155082  11.921   0.299   4.606  1.2558 -0.2979  0.0630
48256SOL    HW255083  11.892   0.343   4.748  0.7547  1.2186 -0.4918
48257SOL     OW55084   6.008  12.538   4.662  0.0778 -0.0606  0.4308
48257SOL    HW155085   6.022  12.453   4.703 -0.1213  0.1158  0.8767
48257SOL    HW255086   5.989  12.518   4.571 -1.3165 -0.5945  0.8139
48258SOL     OW55087  12.273  12.906   8.290  1.1049  0.0014  0.0137
48258SOL    HW155088  12.225  12.956   8.223  0.5809 -0.3936  0.0859
48258SOL    HW255089  12.209  12.891   8.359  1.7733  0.7903  0.8156
48259SOL     OW55090  11.179   2.063  12.610 -0.0008 -0.0291  0.3940
48259SOL    HW155091  11.245   1.994  12.602  0.2723  0.2922 -0.2639
48259SOL    HW255092  11.112   2.026  12.667  0.5110 -0.5461  0.6737
48260SOL     OW55093  10.580   9.065   2.076  0.2893  0.1833  0.8118
48260SOL    HW155094  10.545   9.068   2.164  0.3141  3.8070  0.8238
48260SOL    HW255095  10.674   9.083   2.086  0.5060 -0.4606  0.1051
48261SOL     OW55096   3.016   2.029   1.373 -0.1475  0.0920 -0.3204
48261SOL    HW155097   3.090   2.034   1.434 -1.4850  4.4334  1.3097
48261SOL    HW255098   2.955   1.968   1.416  0.4894  0.2062  0.7969
48262SOL     OW55099   2.631  12.414  11.348  0.1711  0.5578 -0.1348
48262SOL    HW155100   2.599  12.379  11.431 -0.9507  0.0977 -0.7317
48262SOL    HW255101   2.718  12.375  11.338  0.9336  1.7457  1.4760
48263SOL     OW55102   6.898  12.129   7.238 -0.0674  0.2007 -0.3634
48263SOL    HW155103   6.958  12.056   7.225 -1.9173 -1.3492 -0.6808
48263SOL    HW255104   6.875  12.125   7.331  0.1564  0.6652 -0.2841
48264SOL     OW55105   6.206   6.543   7.604 -0.8211  0.2610 -0.4276
48264SOL    HW155106   6.157   6.585   7.675  0.7755 -0.3600  1.1290
48264SOL    HW255107   6.252   6.615   7.561  0.3432  0.3903  0.9565
48265SOL     OW55108  10.910  12.739   2.812  0.1172  0.3497 -0.9178
48265SOL    HW155109  10.830  12.693   2.838  1.1938 -0.9230  0.2645
48265SOL    HW255110  10.879  12.812   2.758 -2.0690  1.4893  1.6313
48266SOL     OW55111  12.467   2.044   0.118 -0.5085 -0.5303  0.0935
48266SOL    HW155112  12.448   2.126   0.164  1.1514  0.5668 -1.0700
48266SOL    HW255113  12.562   2.034   0.124 -0.7105 -2.6384  0.5686
48267SOL     OW55114   5.277   4.818   4.073  0.2495 -0.5644  0.2048
48267SOL    HW155115   5.328   4.899   4.081  0.9219 -1.0002  0.4204
48267SOL    HW255116   5.342   4.748   4.076 -0.1436 -1.0705 -1.6986
48268SOL     OW55117  12.948   4.344  10.403  0.8648  0.3203 -0.2105
48268SOL    HW155118  12.957   4.336  10.308  0.5167  1.2467 -0.3278
48268SOL    HW255119  12.930   4.255  10.433 -0.9713  0.3179 -1.2267
48269SOL     OW55120   9.278   9.814   6.401 -0.7432  0.3456 -0.2441
48269SOL    HW155121   9.256   9.830   6.493 -1.1590  0.0149 -0.2867
48269SOL    HW255122   9.340   9.742   6.403 -0.4582  0.5905 -0.1966
48270SOL     OW55123   9.449   0.804   5.447 -0.3049 -0.2496  0.6788
48270SOL    HW155124   9.456   0.898   5.460 -0.2129  0.2897 -2.4567
48270SOL    HW255125   9.538   0.771   5.464 -0.2326  0.2658  1.3459
48271SOL     OW55126   6.757   2.997   8.498 -0.1610  0.0571  0.3186
48271SOL    HW155127   6.689   3.012   8.563 -1.3709  0.0713 -0.8926
48271SOL    HW255128   6.742   3.066   8.432 -0.5654 -1.4068 -1.1906
48272SOL     OW55129   3.244   8.340   7.881 -0.2918 -0.2167  0.2564
48272SOL    HW155130   3.230   8.430   7.853  2.0452  1.1736  3.0554
48272SOL    HW255131   3.209   8.336   7.970  0.4073 -1.8255  0.5018
48273SOL     OW55132   3.938  10.802   0.829 -0.0061 -0.4147 -0.0750
48273SOL    HW155133   3.998  10.734   0.861  1.1718  1.0063  0.8809
48273SOL    HW255134   3.906  10.844   0.909 -3.2605 -1.8280 -0.4707
48274SOL     OW55135   6.732   6.765   3.914 -0.0516  0.7130 -0.2780
48274SOL    HW155136   6.772   6.830   3.972  0.1134  0.4433 -0.0915
48274SOL    HW255137   6.645   6.752   3.950  0.2101  0.2074  0.1787
48275SOL     OW55138   4.766   5.617   0.327  0.2559 -0.4671 -0.1298
48275SOL    HW155139   4.734   5.667   0.402 -1.0466  0.3753 -1.2013
48275SOL    HW255140   4.781   5.529   0.362  0.8457  0.1898  1.3779
48276SOL     OW55141   9.638  10.843   1.563  0.3789  0.2750  0.1894
48276SOL    HW155142   9.733  10.848   1.566  0.3983 -0.1434  2.7204
48276SOL    HW255143   9.612  10.834   1.655 -2.1152  0.5139 -0.4265
48277SOL     OW55144   5.777  10.148   2.067 -0.1896  0.0658  0.2864
48277SOL    HW155145   5.760  10.211   1.997  0.2763 -0.6923 -0.5238
48277SOL    HW255146   5.690  10.128   2.103 -0.2652  1.8416  1.1710
48278SOL     OW55147   7.251  11.548   6.200 -0.3969 -0.6486  0.0476
48278SOL    HW155148   7.271  11.623   6.144  1.1693 -1.4765 -0.5937
48278SOL    HW255149   7.267  11.579   6.289  1.3913 -0.5247 -0.2874
48279SOL     OW55150  12.085  10.529   3.745  0.1227  0.2249 -0.1273
48279SOL    HW155151  12.116  10.466   3.680 -0.3126 -2.1521  1.8358
48279SOL    HW255152  11.993  10.542   3.723 -0.4344 -1.7405  0.7847
48280SOL     OW55153   1.019   9.582   7.471 -0.2766 -0.4057 -0.3361
48280SOL    HW155154   0.924   9.596   7.467 -0.5418 -1.6590  1.0948
48280SOL    HW255155   1.044   9.611   7.559  0.6877 -0.0526 -0.7125
48281SOL     OW55156   9.268   7.843   0.790  0.0667 -0.1130 -0.8519
48281SOL    HW155157   9.278   7.924   0.739 -0.6154  0.4357 -0.1461
48281SOL    HW255158   9.191   7.859   0.844  1.7193  0.0665  1.6479
48282SOL     OW55159   7.299   4.299   2.912  0.6992 -0.3248 -0.1109
48282SOL    HW155160   7.284   4.362   2.982  1.8540 -0.6474  0.4457
48282SOL    HW255161   7.324   4.218   2.956 -0.7523 -1.2116 -0.8164
48283SOL     OW55162   7.114   1.854   5.777  0.3197 -0.3759 -0.1076
48283SOL    HW155163   7.192   1.885   5.824 -0.0341 -0.1079  0.3156
48283SOL    HW255164   7.137   1.859   5.685  0.4951  0.5492 -0.0165
48284SOL     OW55165   9.138   3.430   9.063 -0.7682 -0.3883  0.3592
48284SOL    HW155166   9.044   3.417   9.062 -0.7282 -0.7535  0.9068
48284SOL    HW255167   9.156   3.471   9.148 -0.6729  1.6477 -0.5775
48285SOL     OW55168   0.369   9.582  11.310 -0.0454  0.1449 -0.3982
48285SOL    HW155169   0.460   9.564  11.335  0.5185 -1.3136 -3.1028
48285SOL    HW255170   0.334   9.497  11.284 -1.4182  1.0452 -1.6584
48286SOL     OW55171   7.616   9.673   7.748  0.3193 -0.2527  0.0691
48286SOL    HW155172   7.708   9.649   7.739  0.6713  1.1666 -0.2292
48286SOL    HW255173   7.596   9.724   7.669  0.3710  2.7554  1.8600
48287SOL     OW55174   4.425   8.029   4.504 -0.0605 -0.0384 -0.3766
48287SOL    HW155175   4.404   8.039   4.597 -0.6550 -2.3344 -0.1948
48287SOL    HW255176   4.486   8.100   4.485  1.6875 -0.6878  2.2914
48288SOL     OW55177   8.946  12.602   1.572  0.3190  0.7595 -0.1167
48288SOL    HW155178   8.856  12.570   1.571  0.7874 -0.6374  0.1957
48288SOL    HW255179   8.956  12.648   1.488 -0.5614  0.6117 -0.3146
48289SOL     OW55180   7.329   5.387   7.131 -0.7570  0.4257 -0.2041
48289SOL    HW155181   7.249   5.384   7.183 -1.6393 -1.0089 -1.5833
48289SOL    HW255182   7.303   5.426   7.048  0.6313  2.6549  0.2889
48290SOL     OW55183  10.942   3.612   1.096 -0.1683  0.1750  0.4567
48290SOL    HW155184  10.887   3.535   1.086 -3.0407  2.2452 -1.2514
48290SOL    HW255185  10.915   3.651   1.179 -0.6051  0.7028  0.0695
48291SOL     OW55186   5.538   2.504   9.036  0.2257 -0.6153 -0.2784
48291SOL    HW155187   5.590   2.432   9.000 -0.5601 -0.1672 -2.4885
48291SOL    HW255188   5.454   2.463   9.058  0.8435 -0.9733  1.5525
48292SOL     OW55189  12.001   0.641  10.126 -0.2076 -0.0836 -0.2415
48292SOL    HW155190  12.063   0.574  10.153 -1.7025 -1.6297 -0.4658
48292SOL    HW255191  12.038   0.676  10.044  1.0992  0.1177  0.4140
48293SOL     OW55192   6.987   0.236   8.043  0.1436 -0.6848 -0.3929
48293SOL    HW155193   7.049   0.218   8.113  0.7575  0.9553 -0.4528
48293SOL    HW255194   7.028   0.199   7.964  1.5614  1.1641 -0.5970
48294SOL     OW55195   7.227   2.186   5.835  0.3756 -0.1641  0.7273
48294SOL    HW155196   7.181   2.159   5.915 -0.8762  0.2566  0.1721
48294SOL    HW255197   7.293   2.119   5.822  0.6516 -0.2099  2.1539
48295SOL     OW55198   9.505   3.589  10.846 -0.7143  0.1487 -0.5189
48295SOL    HW155199   9.444   3.635  10.903  0.6906  0.2874  0.9330
48295SOL    HW255200   9.494   3.630  10.760 -1.2055  1.5454  0.1855
48296SOL     OW55201   4.472   2.240   2.225  0.2991  0.1104  0.5057
48296SOL    HW155202   4.495   2.168   2.285 -1.7713  0.2078  1.5007
48296SOL    HW255203   4.467   2.198   2.139 -0.0803 -0.7861  0.9456
48297SOL     OW55204   3.174   0.529   6.320 -0.0610  0.2614 -0.5013
48297SOL    HW155205   3.211   0.441   6.332 -0.7820 -0.1902 -1.5371
48297SOL    HW255206   3.215   0.581   6.390 -0.0152 -1.0071  0.4491
48298SOL     OW55207   9.941  12.627   9.884  0.0669  0.7760  0.2972
48298SOL    HW155208   9.854  12.619   9.846 -1.4180  0.6592  3.4293
48298SOL    HW255209   9.974  12.711   9.852 -1.3336  0.9846 -0.6665
48299SOL     OW55210   3.320  11.735   1.080 -0.3909  0.5513 -0.1086
48299SOL    HW155211   3.357  11.821   1.059  1.1731 -0.7306 -3.2284
48299SOL    HW255212   3.258  11.718   1.009 -1.7781 -0.3146  1.2701
48300SOL     OW55213  10.782   3.285   1.712  0.3743  0.2719 -0.4381
48300SOL    HW155214  10.834   3.247   1.641  0.7891  1.3775 -0.7424
48300SOL    HW255215  10.834   3.358   1.743  0.3574 -0.3975  1.2584
48301SOL     OW55216   4.061  11.512   4.451 -0.4060 -0.0570 -0.4889
48301SOL    HW155217   4.064  11.606   4.473 -0.9375 -0.1855  0.1887
48301SOL    HW255218   4.140  11.497   4.400  0.2013  0.5672  0.2265
48302SOL     OW55219   9.166   1.691   7.168 -0.1683 -0.1933 -0.2858
48302SOL    HW155220   9.235   1.743   7.127  1.0330 -0.8436  0.8671
48302SOL    HW255221   9.132   1.747   7.238 -0.2779 -0.1858 -0.3432
48303SOL     OW55222   5.766   8.775   0.391 -0.4679  0.2307  0.1116
48303SOL    HW155223   5.847   8.725   0.402 -0.7325 -0.0738  0.7242
48303SOL    HW255224   5.744   8.763   0.298  0.0125  0.0526  0.0122
48304SOL     OW55225   3.249   4.260   0.234  0.0428  0.2209  0.7426
48304SOL    HW155226   3.221   4.268   0.143 -1.7273  0.1922  1.2300
48304SOL    HW255227   3.233   4.168   0.256 -0.0008  0.3344  1.2017
48305SOL     OW55228   3.398   9.606   0.228 -0.4869  0.1939 -0.6778
48305SOL    HW155229   3.321   9.662   0.242 -0.0533  0.7044 -0.2940
48305SOL    HW255230   3.361   9.519   0.212 -1.1376 -0.0632  1.7204
48306SOL     OW55231  11.680   7.705   5.991  0.0407  0.1277 -0.3923
48306SOL    HW155232  11.699   7.763   6.064  0.6661 -1.8436  1.0893
48306SOL    HW255233  11.716   7.750   5.914  1.0076  1.4140  0.7662
48307SOL     OW55234   4.153   5.139   4.305  1.1593 -0.0921  0.5524
48307SOL    HW155235   4.134   5.093   4.223 -1.5052 -1.3852  1.7859
48307SOL    HW255236   4.103   5.220   4.300  1.7651  0.2887  0.5265
48308SOL     OW55237  11.716   5.695  11.558 -0.4790 -0.2949 -0.1875
48308SOL    HW155238  11.689   5.660  11.473  0.6901 -1.5700 -0.0586
48308SOL    HW255239  11.756   5.621  11.603  2.5591  1.2682 -0.0935
48309SOL     OW55240  11.059   5.465   2.458 -0.0857  0.0063 -0.5189
48309SOL    HW155241  11.010   5.389   2.426  1.3188 -1.0513 -0.2686
48309SOL    HW255242  11.071   5.448   2.551 -0.3291  0.8748 -0.3269
48310SOL     OW55243   3.000  11.395   0.388  0.0481 -0.2093 -0.1930
48310SOL    HW155244   3.002  11.302   0.364 -2.0702 -0.2611 -0.3339
48310SOL    HW255245   3.092  11.421   0.388  0.7309 -2.3801  0.1693
48311SOL     OW55246   8.813   2.646   6.694  0.4083 -0.0849  0.0472
48311SOL    HW155247   8.894   2.602   6.721 -0.5327 -2.3034 -0.5156
48311SOL    HW255248   8.791   2.607   6.610 -0.7536  1.1960 -0.2870
48312SOL     OW55249   3.000   5.809  11.063 -0.0330 -0.2484  0.2609
48312SOL    HW155250   3.032   5.899  11.067  0.1678 -0.3268  0.4667
48312SOL    HW255251   2.906   5.818  11.048 -0.0326 -0.0024  0.3921
48313SOL     OW55252   8.965   1.447   0.915  0.1466 -0.1956  0.0593
48313SOL    HW155253   8.985   1.518   0.976  1.0051  0.3513 -0.8318
48313SOL    HW255254   8.898   1.395   0.960 -0.0697  0.8355  0.9725
48314SOL     OW55255   8.695   0.214   8.498  0.2131 -0.5250  0.3871
48314SOL    HW155256   8.770   0.170   8.539 -0.5143 -1.3963  0.8169
48314SOL    HW255257   8.676   0.287   8.556  2.4824  1.4670 -1.1927
48315SOL     OW55258  11.502   3.918  10.491  0.1894 -0.2857 -0.0133
48315SOL    HW155259  11.573   3.871  10.534 -0.1121 -1.8416 -1.1188
48315SOL    HW255260  11.543   3.997  10.455  0.5961  0.6481  2.3351
48316SOL     OW55261   7.335   0.597   5.634 -0.1642  0.1883  0.2112
48316SOL    HW155262   7.337   0.502   5.632 -1.5539  0.1267  0.5519
48316SOL    HW255263   7.242   0.619   5.629  0.1450  1.5290  0.0150
48317SOL     OW55264  12.553   7.160   1.594  0.0374 -0.3567  0.0229
48317SOL    HW155265  12.569   7.253   1.610 -0.7351 -0.2528  0.2252
48317SOL    HW255266  12.465   7.145   1.627 -0.5045 -0.7859 -1.5138
48318SOL     OW55267   9.901   9.793   9.612 -0.2729  0.6186 -0.0079
48318SOL    HW155268   9.888   9.813   9.519 -0.0686 -2.0992 -0.7258
48318SOL    HW255269   9.983   9.838   9.635  0.1381  0.6397 -1.3957
48319SOL     OW55270   0.460  11.516   2.439  0.2485 -0.4580  0.3809
48319SOL    HW155271   0.538  11.512   2.384  0.5036 -0.2846  0.7315
48319SOL    HW255272   0.397  11.566   2.387  0.0818 -1.2928 -0.2522
48320SOL     OW55273   5.856   1.682   8.146 -0.5014 -0.1603 -0.1361
48320SOL    HW155274   5.826   1.593   8.129  0.9925 -0.5686 -0.7877
48320SOL    HW255275   5.919   1.673   8.218  0.6716  0.1503 -1.0919
48321SOL     OW55276   4.466  12.853   9.156 -0.0765  0.1061 -0.0119
48321SOL    HW155277   4.468  12.763   9.189  2.7542  0.2207  0.3329
48321SOL    HW255278   4.414  12.901   9.220  1.6412 -0.5450  1.9730
48322SOL     OW55279   4.324   2.130   4.805  0.1213  0.0224  0.3774
48322SOL    HW155280   4.402   2.112   4.856 -0.0286  2.0983  1.4604
48322SOL    HW255281   4.251   2.113   4.865 -0.1645  0.1182  0.0645
48323SOL     OW55282   7.802   3.933   4.480  0.1021  0.1213  0.0577
48323SOL    HW155283   7.755   3.989   4.541  0.7016  0.5872  0.1045
48323SOL    HW255284   7.866   3.991   4.439 -0.0005 -0.2883 -0.6881
48324SOL     OW55285   4.408   7.299   2.499 -0.0544  0.3203  0.2929
48324SOL    HW155286   4.481   7.339   2.451  0.2835  0.7455  1.1529
48324SOL    HW255287   4.414   7.336   2.587  0.1280 -1.4470  1.0684
48325SOL     OW55288  11.357   5.063   2.855 -0.4045  0.1431 -0.3277
48325SOL    HW155289  11.289   5.094   2.915  1.7733 -0.2246  2.5738
48325SOL    HW255290  11.372   4.972   2.882  0.6239 -0.0448 -1.4787
48326SOL     OW55291   7.750   4.133   6.268 -0.0567  0.1645  0.0802
48326SOL    HW155292   7.770   4.210   6.321  1.6267  0.7335 -1.2606
48326SOL    HW255293   7.719   4.067   6.330  1.4829  0.9092  1.7290
48327SOL     OW55294   4.250   6.131   7.091  0.4378  0.3383 -0.0924
48327SOL    HW155295   4.246   6.226   7.081 -0.9119  0.4389  1.1802
48327SOL    HW255296   4.205   6.097   7.014  1.7588  0.6616 -1.0537
48328SOL     OW55297   7.947  10.652   8.818 -0.1263 -0.2670 -0.0325
48328SOL    HW155298   8.041  10.657   8.837 -0.2936  0.2321  0.7077
48328SOL    HW255299   7.909  10.725   8.867 -0.9782 -0.8088  0.1241
48329SOL     OW55300   3.725  12.514   4.631 -0.4889  0.5953 -0.2009
48329SOL    HW155301   3.707  12.535   4.723  0.8914 -3.3492  1.2004
48329SOL    HW255302   3.666  12.441   4.611  1.0094 -0.3286 -1.5127
48330SOL     OW55303   7.058  12.278   6.426 -0.3265  0.6834  0.0259
48330SOL    HW155304   7.015  12.259   6.343  0.6208 -2.9252  0.2035
48330SOL    HW255305   7.149  12.297   6.403  0.2149 -1.4592  0.2275
48331SOL     OW55306   1.797   6.972   7.550  0.0548 -0.2232  0.0421
48331SOL    HW155307   1.794   7.000   7.642 -2.5165 -2.2529  0.7142
48331SOL    HW255308   1.705   6.965   7.525  0.6854 -1.1508 -2.2520
48332SOL     OW55309  10.340   1.938   5.274 -0.1840  0.3687 -0.1040
48332SOL    HW155310  10.380   2.009   5.323  1.4012  0.0938 -0.9378
48332SOL    HW255311  10.282   1.982   5.211 -1.4682  0.7522  1.2731
48333SOL     OW55312  12.217   1.716   4.907 -0.3721 -0.6599 -0.4130
48333SOL    HW155313  12.146   1.726   4.844 -0.9027 -0.5718  0.1908
48333SOL    HW255314  12.204   1.630   4.946 -0.6304 -0.3127  0.2828
48334SOL     OW55315  12.572   4.859   6.058  0.0274 -0.1243  0.3400
48334SOL    HW155316  12.533   4.784   6.103  0.2407  0.3209  1.3038
48334SOL    HW255317  12.530   4.860   5.972 -2.7876  0.8116  1.5693
48335SOL     OW55318  10.299   6.763   7.048 -0.0160 -0.4640  0.0891
48335SOL    HW155319  10.375   6.807   7.085 -0.0889  0.1588 -0.4733
48335SOL    HW255320  10.329   6.730   6.963 -0.4142 -0.0586 -0.2150
48336SOL     OW55321   3.757   4.676   0.723  0.0402 -0.0262  0.0216
48336SOL    HW155322   3.784   4.628   0.801 -0.8335  0.4214  0.6140
48336SOL    HW255323   3.804   4.759   0.729 -1.5368  0.8449  1.1707
48337SOL     OW55324   2.517   2.585  10.563  0.2951 -0.5039  0.2335
48337SOL    HW155325   2.427   2.585  10.593  0.3117 -0.2827  0.2836
48337SOL    HW255326   2.564   2.638  10.627  0.3808 -0.2627 -0.0290
48338SOL     OW55327  12.330   7.368   1.671 -0.0920  0.3193  0.1147
48338SOL    HW155328  12.280   7.329   1.743  0.0387 -0.7207 -0.3388
48338SOL    HW255329  12.272   7.363   1.595  0.2218  0.2929 -0.1260
48339SOL     OW55330   8.393  12.835   8.125 -0.2137 -0.2707  0.2224
48339SOL    HW155331   8.334  12.812   8.197  0.8103  0.8578  1.4724
48339SOL    HW255332   8.381  12.929   8.114  1.1629 -0.0628  0.3570
48340SOL     OW55333   6.725   2.331   4.237 -0.3207 -0.2746  0.3198
48340SOL    HW155334   6.748   2.423   4.250 -0.5723  0.0620 -1.3221
48340SOL    HW255335   6.796   2.282   4.277 -0.4899  0.6094  1.7696
48341SOL     OW55336   3.600   9.034   9.149 -0.1301  0.3408  0.1029
48341SOL    HW155337   3.601   9.103   9.082  2.4707 -0.9287 -1.3227
48341SOL    HW255338   3.567   8.957   9.104 -0.0554 -0.1098  0.7981
48342SOL     OW55339  11.431  11.301   7.809  0.1957  0.3358  0.7589
48342SOL    HW155340  11.397  11.259   7.888  0.2148 -0.8770  0.1655
48342SOL    HW255341  11.518  11.332   7.833  1.0055 -1.7106  0.7534
48343SOL     OW55342   1.886   8.311   7.046 -0.3331 -0.1033  0.0267
48343SOL    HW155343   1.844   8.226   7.030  0.0655 -0.5071  1.0320
48343SOL    HW255344   1.935   8.298   7.128  0.1880  0.9286 -0.1098
48344SOL     OW55345   2.527   4.354  11.841 -0.0240 -0.2596  0.6401
48344SOL    HW155346   2.461   4.288  11.818  0.2316 -0.9940  1.9262
48344SOL    HW255347   2.599   4.304  11.880  0.7391  0.6591  0.4589
48345SOL     OW55348  10.103  11.465   8.483  0.2706 -0.6119 -0.1945
48345SOL    HW155349  10.186  11.425   8.459 -0.3626 -1.8333 -0.4399
48345SOL    HW255350  10.117  11.498   8.572  1.0374 -0.7565 -0.2583
48346SOL     OW55351   1.781   9.977   9.840 -0.1453 -0.1922  0.0926
48346SOL    HW155352   1.735   9.967   9.757 -2.1986  2.1051  0.8195
48346SOL    HW255353   1.778   9.890   9.880  0.5292 -1.2403 -2.0157
48347SOL     OW55354   2.787   2.234   8.769  0.3095  0.1000 -0.6220
48347SOL    HW155355   2.790   2.166   8.837 -1.7960 -0.0557 -0.6155
48347SOL    HW255356   2.878   2.243   8.740  1.0971 -0.5496  1.4957
48348SOL     OW55357   7.243   7.091   6.499  0.1665  0.3046 -0.1050
48348SOL    HW155358   7.280   7.011   6.538 -1.7990 -1.2038 -1.1073
48348SOL    HW255359   7.212   7.063   6.412  0.0942  2.3637 -0.7895
48349SOL     OW55360   9.625   2.397   9.132 -0.3506 -0.2882  0.1145
48349SOL    HW155361   9.548   2.451   9.116 -1.6773 -2.0502  0.3381
48349SOL    HW255362   9.643   2.354   9.048  2.0389  2.0392 -0.6994
48350SOL     OW55363   0.084   6.483   6.805 -0.3730  0.4763 -0.4720
48350SOL    HW155364   0.151   6.530   6.756 -0.0253  1.2243  0.6881
48350SOL    HW255365   0.068   6.537   6.883  0.0796 -1.3135  0.9470
48351SOL     OW55366   3.732   9.819   9.220 -0.8673  0.0864 -0.2221
48351SOL    HW155367   3.800   9.883   9.199  1.8268 -1.2077  3.4559
48351SOL    HW255368   3.698   9.848   9.305 -0.8996 -2.2486  0.6286
48352SOL     OW55369   1.153   9.209   2.563 -0.0440 -0.7467 -0.2888
48352SOL    HW155370   1.210   9.143   2.523  0.2059 -0.6357 -0.1148
48352SOL    HW255371   1.090   9.230   2.494 -0.9883 -2.1701  0.0995
48353SOL     OW55372   0.560   9.582   4.557  0.6399 -0.1816 -0.1261
48353SOL    HW155373   0.639   9.536   4.529  1.6089  0.9448  0.6554
48353SOL    HW255374   0.567   9.587   4.652 -1.1981 -1.4763  0.1160
48354SOL     OW55375   2.569  10.157   1.962 -0.1095  0.4145  0.5142
48354SOL    HW155376   2.484  10.177   1.922 -0.8045  0.7390  2.0591
48354SOL    HW255377   2.589  10.069   1.931 -0.3263  0.8551 -0.9663
48355SOL     OW55378  11.676  10.690  12.055  0.1562 -0.0746 -0.8228
48355SOL    HW155379  11.663  10.606  12.098 -1.0168  0.7335  0.5088
48355SOL    HW255380  11.688  10.752  12.128  0.6633  0.9583 -1.7604
48356SOL     OW55381   6.052  10.345   7.538 -0.8717  0.6915 -0.3820
48356SOL    HW155382   5.969  10.380   7.570 -0.9337  1.0117 -0.8849
48356SOL    HW255383   6.111  10.351   7.614 -1.5006 -0.2635  0.2177
48357SOL     OW55384   8.833  11.162   2.070 -0.7981  0.4971 -0.0803
48357SOL    HW155385   8.919  11.125   2.091 -1.3590  0.7390  3.1606
48357SOL    HW255386   8.849  11.256   2.059 -0.2952  0.1993 -2.2398
48358SOL     OW55387   8.486   9.513   6.881  0.0082  0.0247 -0.3583
48358SOL    HW155388   8.521   9.601   6.894 -1.2711  0.5132 -0.0509
48358SOL    HW255389   8.550   9.455   6.922  0.8165  0.8108 -0.4767
48359SOL     OW55390   2.886   3.452   5.784  0.2041 -0.4259 -0.3072
48359SOL    HW155391   2.925   3.518   5.727 -0.0298 -0.2557 -0.2709
48359SOL    HW255392   2.846   3.389   5.723  1.6102 -1.2856 -0.3876
48360SOL     OW55393  10.705   5.534   8.245 -0.4833 -0.5573  0.0803
48360SOL    HW155394  10.765   5.574   8.307 -0.8043 -2.1778  1.5052
48360SOL    HW255395  10.761   5.503   8.173 -0.1472  1.5476 -0.6168
48361SOL     OW55396   5.650   1.101  12.749  0.2643 -0.4351 -0.5101
48361SOL    HW155397   5.713   1.039  12.712 -0.4840 -0.6199 -1.5079
48361SOL    HW255398   5.600   1.132  12.674 -0.5212  0.0712  0.2083
48362SOL     OW55399  12.178   8.344   7.378 -0.6707 -0.5220  0.0961
48362SOL    HW155400  12.256   8.376   7.333 -0.4094 -0.2398  0.7447
48362SOL    HW255401  12.185   8.248   7.373 -1.3761 -0.5241 -1.7092
48363SOL     OW55402   4.688   9.193   4.765 -0.3998  0.1881 -0.0041
48363SOL    HW155403   4.643   9.130   4.821  0.2577  1.8388  2.5852
48363SOL    HW255404   4.780   9.186   4.790 -0.1379  1.2695 -0.6024
48364SOL     OW55405  10.023   1.844  12.062 -0.5899 -0.0603 -0.0943
48364SOL    HW155406   9.961   1.779  12.029 -0.1497 -0.1663 -0.7220
48364SOL    HW255407   9.986   1.870  12.146 -0.9046 -0.9392  0.0576
48365SOL     OW55408  12.194   5.556  11.423 -0.6272  0.1130  0.4138
48365SOL    HW155409  12.169   5.638  11.465 -1.3981 -0.8453  1.9140
48365SOL    HW255410  12.138   5.490  11.464 -0.4914 -1.0812 -1.2144
48366SOL     OW55411   3.549   4.559   2.233  0.3167  0.6966  0.1375
48366SOL    HW155412   3.473   4.608   2.265  0.8256  1.2015  0.5886
48366SOL    HW255413   3.624   4.616   2.252  0.7559  0.4502 -0.8100
48367SOL     OW55414   9.769   8.714   2.557  0.1920 -0.0979  0.5865
48367SOL    HW155415   9.750   8.807   2.565  1.7339  0.2548  0.3514
48367SOL    HW255416   9.703   8.672   2.613 -0.9165  1.0673  0.1984
48368SOL     OW55417   5.362   0.554   6.678 -0.2507 -0.1319  0.1995
48368SOL    HW155418   5.334   0.589   6.593  0.2764  0.1420  0.1372
48368SOL    HW255419   5.391   0.631   6.727 -0.0606 -0.3561  0.4406
48369SOL     OW55420   5.230   4.819   3.041 -0.2355  0.1320 -0.8017
48369SOL    HW155421   5.249   4.804   3.134 -1.0850  1.2329 -0.4131
48369SOL    HW255422   5.312   4.803   2.996  0.4790  0.6020  0.2808
48370SOL     OW55423  11.103   6.888   6.177 -0.0652 -0.1972 -0.4675
48370SOL    HW155424  11.128   6.800   6.208 -0.2314 -0.0366  0.1442
48370SOL    HW255425  11.023   6.873   6.127 -1.0241 -0.2189  0.9897
48371SOL     OW55426   1.441   4.532   3.016 -0.1225  0.2129 -0.2565
48371SOL    HW155427   1.504   4.540   2.945 -0.3122 -0.3418 -0.4905
48371SOL    HW255428   1.467   4.599   3.079 -0.8989  1.7950 -1.5604
48372SOL     OW55429   9.852   4.085   6.252  0.3705 -0.4558 -0.1552
48372SOL    HW155430   9.807   4.058   6.332 -0.4601  0.6568 -0.2216
48372SOL    HW255431   9.933   4.127   6.282 -0.4291  0.9019  0.1885
48373SOL     OW55432   8.993   7.367   8.482 -0.1481 -0.3016 -0.2184
48373SOL    HW155433   8.937   7.418   8.424 -0.8277 -1.6158 -0.7631
48373SOL    HW255434   9.058   7.430   8.514 -0.3011  0.6539 -1.6962
48374SOL     OW55435   0.819   6.284  11.727  0.7193  0.2837 -0.0903
48374SOL    HW155436   0.831   6.194  11.756  2.0476  0.2523 -0.6625
48374SOL    HW255437   0.906   6.324  11.737  0.6990  0.8690 -1.9065
48375SOL     OW55438   2.534   1.526  12.964 -0.0394  0.2433 -0.4633
48375SOL    HW155439   2.533   1.564  12.876 -1.8442  0.4340 -0.3984
48375SOL    HW255440   2.535   1.431  12.949 -0.4061  0.2743 -0.6927
48376SOL     OW55441  12.873   1.518  11.810  0.2919  0.4153  0.9656
48376SOL    HW155442  12.960   1.514  11.851  1.5570  1.5198 -1.4127
48376SOL    HW255443  12.858   1.612  11.796 -0.3293  0.1201 -0.5141
48377SOL     OW55444  12.828   7.803   1.041 -0.2239  0.3585 -0.6141
48377SOL    HW155445  12.902   7.834   0.989 -1.4268  0.2025 -2.5265
48377SOL    HW255446  12.824   7.863   1.115  1.8558  0.2926 -0.3919
48378SOL     OW55447   8.503   4.000   2.690  0.3444  0.0819 -0.2480
48378SOL    HW155448   8.433   3.935   2.680  0.9486 -0.6311  0.0494
48378SOL    HW255449   8.576   3.951   2.728  1.6269  0.3770 -2.1469
48379SOL     OW55450   0.050   5.361   2.470 -0.1991  0.2178 -0.0533
48379SOL    HW155451   0.054   5.340   2.563  0.1158 -0.1245 -0.1430
48379SOL    HW255452  -0.038   5.335   2.443 -0.2330  0.1623  0.1127
48380SOL     OW55453   9.937  12.027   9.886 -0.0159 -0.2452 -0.1384
48380SOL    HW155454   9.936  11.999   9.794  1.2688  0.6584 -0.4530
48380SOL    HW255455   9.926  12.122   9.882 -1.9389 -0.3890  0.7746
48381SOL     OW55456   5.206  10.038   4.923  0.6310 -0.6964 -0.4991
48381SOL    HW155457   5.192  10.071   5.011 -1.9771  1.4216 -1.5826
48381SOL    HW255458   5.157   9.956   4.919  1.0901 -1.0063  0.1085
48382SOL     OW55459   9.902   9.618   6.443 -0.1290  0.1098 -0.1578
48382SOL    HW155460   9.936   9.700   6.477  0.8140 -0.9051  1.5198
48382SOL    HW255461   9.819   9.605   6.489  0.1019 -0.2352  0.1683
48383SOL     OW55462   4.551  10.473   2.264  0.5666 -0.3055  0.1551
48383SOL    HW155463   4.534  10.438   2.351 -1.1982  0.1294  0.0226
48383SOL    HW255464   4.475  10.529   2.245  0.5537 -0.9527 -1.9431
48384SOL     OW55465   5.827   4.913   5.310 -0.0014  0.3068  0.8098
48384SOL    HW155466   5.923   4.907   5.305  0.1042  1.1444  1.5050
48384SOL    HW255467   5.809   5.006   5.297 -0.4059  0.8645  4.3848
48385SOL     OW55468   9.257  12.654   3.305 -0.1186  0.2783 -0.9163
48385SOL    HW155469   9.224  12.576   3.261 -0.4820 -0.9150  1.2844
48385SOL    HW255470   9.326  12.621   3.364 -0.4726  1.5370  0.2674
48386SOL     OW55471   9.001   9.218   1.489 -0.7793  0.3946 -0.3018
48386SOL    HW155472   9.013   9.196   1.397 -1.7594 -0.7982 -0.1754
48386SOL    HW255473   8.945   9.296   1.487 -0.6210  0.5003 -0.7214
48387SOL     OW55474   6.967   5.267   5.529  0.9186  0.1477  0.3588
48387SOL    HW155475   7.053   5.285   5.491 -0.5330  0.7816 -3.0120
48387SOL    HW255476   6.922   5.351   5.529  0.1932 -0.1946  1.9510
48388SOL     OW55477   8.541  11.972  10.172  0.9413  0.1186 -0.2201
48388SOL    HW155478   8.580  11.890  10.141 -0.4597 -0.2793 -0.9938
48388SOL    HW255479   8.593  12.041  10.129  1.2106 -0.3809 -0.7054
48389SOL     OW55480   1.590   4.861   8.128 -0.5965  0.2902  0.8029
48389SOL    HW155481   1.612   4.953   8.115  0.6025 -0.1448 -0.4768
48389SOL    HW255482   1.538   4.860   8.209  0.5407  1.9064  1.6183
48390SOL     OW55483   8.506   5.975   4.667 -0.2035 -0.0512 -0.2737
48390SOL    HW155484   8.417   5.980   4.632  0.1291  0.3535 -1.0908
48390SOL    HW255485   8.554   5.922   4.604  0.3559  0.4854 -0.3076
48391SOL     OW55486   0.541  11.471   6.481 -0.0601 -0.4029 -0.0364
48391SOL    HW155487   0.462  11.457   6.430  0.1802 -0.8830 -0.2860
48391SOL    HW255488   0.607  11.416   6.438  0.9515  1.5311 -1.0724
48392SOL     OW55489  12.964   4.860   9.705  0.2061  0.2999 -0.1741
48392SOL    HW155490  12.938   4.938   9.657 -1.1638  0.8497  1.3660
48392SOL    HW255491  13.047   4.834   9.667  0.0834  1.7982 -1.5307
48393SOL     OW55492   5.893   1.203   8.962 -0.1067 -0.0709 -0.3885
48393SOL    HW155493   5.859   1.138   9.023 -0.8941  0.4739 -0.2349
48393SOL    HW255494   5.976   1.167   8.933  0.4654 -0.1936  1.2726
48394SOL     OW55495  11.565   2.904   5.571  0.0959  0.3534 -0.0608
48394SOL    HW155496  11.649   2.941   5.596 -0.4688  1.5092  0.1609
48394SOL    HW255497  11.562   2.911   5.475  0.3483  0.0667 -0.0928
48395SOL     OW55498  10.194   1.148   9.711 -0.0386  0.1040 -0.5213
48395SOL    HW155499  10.107   1.153   9.752 -0.2163 -2.5123 -0.3821
48395SOL    HW255500  10.176   1.151   9.617  0.0295  2.2969 -0.5164
48396SOL     OW55501  12.924   7.013   1.961 -0.5914 -0.4212 -0.4406
48396SOL    HW155502  12.941   7.017   1.867 -1.3515 -1.3512 -0.6277
48396SOL    HW255503  12.832   7.036   1.970 -0.8692 -1.6124 -0.0609
48397SOL     OW55504   0.328  10.884   4.309 -0.3447 -0.0396 -0.0683
48397SOL    HW155505   0.321  10.845   4.396 -1.3441 -2.2495 -1.0705
48397SOL    HW255506   0.323  10.978   4.325  2.1364 -0.1867  2.4742
48398SOL     OW55507   7.556  12.712   6.577 -0.3566  0.2009 -0.1468
48398SOL    HW155508   7.508  12.642   6.622 -0.0973 -0.2528 -0.5647
48398SOL    HW255509   7.645  12.707   6.614 -0.1293 -0.2073 -0.7382
48399SOL     OW55510   9.268   0.682  11.074 -0.0453  0.2803  0.2923
48399SOL    HW155511   9.319   0.664  10.995  1.4830 -1.5080  1.5921
48399SOL    HW255512   9.321   0.743  11.125 -0.8137  1.0766  0.1648
48400SOL     OW55513   7.374   9.400  12.549 -0.7464 -0.2324  0.0218
48400SOL    HW155514   7.327   9.454  12.485 -0.2450 -1.2223 -1.2509
48400SOL    HW255515   7.420   9.462  12.605 -2.9437  0.7378  0.8437
48401SOL     OW55516   5.133   1.095   4.054  0.3482 -0.2438 -0.3380
48401SOL    HW155517   5.124   1.024   4.117  1.6087 -1.4421 -1.4299
48401SOL    HW255518   5.044   1.129   4.043  0.0316 -0.3095  1.6789
48402SOL     OW55519   5.250   1.400  11.225 -0.6323  0.3394 -0.6763
48402SOL    HW155520   5.264   1.484  11.182 -0.8240  0.4353 -0.5487
48402SOL    HW255521   5.292   1.336  11.166 -1.3309  0.4115 -1.2642
48403SOL     OW55522   4.302  10.878   3.981  0.0587  0.6551  0.6877
48403SOL    HW155523   4.271  10.885   3.891 -4.4024  1.4188  2.0509
48403SOL    HW255524   4.285  10.787   4.005 -0.5440  0.9277  1.3053
48404SOL     OW55525   1.212   2.656   7.484  0.0616  0.3264 -0.0008
48404SOL    HW155526   1.139   2.718   7.481 -1.0036 -0.8821  0.1116
48404SOL    HW255527   1.230   2.645   7.577  0.7612  1.0214 -0.0421
48405SOL     OW55528   1.572   3.331   6.236 -0.1828 -0.0897  0.0903
48405SOL    HW155529   1.665   3.343   6.216  0.4085 -1.3596  1.7663
48405SOL    HW255530   1.555   3.239   6.217 -0.9720  0.0096  0.2804
48406SOL     OW55531   6.902   0.324   9.885  0.4560 -0.2102  0.6268
48406SOL    HW155532   6.906   0.228   9.881 -0.4298 -0.2281 -0.0298
48406SOL    HW255533   6.879   0.351   9.796  2.0097  0.7069  0.4539
48407SOL     OW55534   4.837   2.461  12.193  0.0583 -0.5921  0.5214
48407SOL    HW155535   4.921   2.419  12.179 -1.0339 -2.7059  0.0274
48407SOL    HW255536   4.773   2.405  12.149 -1.6524  0.8389  1.0424
48408SOL     OW55537   4.280   3.003   0.396 -0.0278  0.0428  0.5005
48408SOL    HW155538   4.328   2.961   0.468 -0.8314 -1.6509  0.1183
48408SOL    HW255539   4.273   2.934   0.330 -0.9579  0.9769 -0.4025
48409SOL     OW55540   7.263   2.250   1.478 -0.4333  0.1884  0.4642
48409SOL    HW155541   7.224   2.323   1.430  0.9993  1.5101  1.2372
48409SOL    HW255542   7.188   2.207   1.520 -1.3502  0.9545 -0.3413
48410SOL     OW55543   7.680   2.015   9.809  0.4199  0.5040 -0.0664
48410SOL    HW155544   7.767   2.055   9.811  1.3807 -1.4574 -0.4862
48410SOL    HW255545   7.622   2.085   9.781  1.9570  1.6956 -0.4016
48411SOL     OW55546   1.828  11.792   8.279  0.5970  0.3306 -0.7755
48411SOL    HW155547   1.890  11.860   8.305  1.4807 -0.8629  0.4197
48411SOL    HW255548   1.848  11.775   8.187  1.7534  0.2944 -0.5366
48412SOL     OW55549   3.522  11.673   3.429  0.1750  0.4253 -0.3692
48412SOL    HW155550   3.463  11.732   3.381 -0.7017 -0.3409 -0.2715
48412SOL    HW255551   3.607  11.686   3.389 -0.4733  0.0188 -1.9667
48413SOL     OW55552   5.892   7.051   5.489  0.0440 -0.2834 -0.5453
48413SOL    HW155553   5.888   7.110   5.414  1.2243 -0.5144 -0.8003
48413SOL    HW255554   5.929   7.103   5.559 -0.3083 -0.3046 -0.3379
48414SOL     OW55555   5.615   1.207   1.751 -0.3156 -0.0588 -0.7545
48414SOL    HW155556   5.632   1.141   1.819  0.3143 -0.4626 -1.2985
48414SOL    HW255557   5.632   1.162   1.669 -0.2517  0.6816 -1.1515
48415SOL     OW55558   1.321   4.684   1.013  0.0311 -0.1091 -0.0897
48415SOL    HW155559   1.252   4.684   0.946  0.8165  0.1782 -0.9225
48415SOL    HW255560   1.376   4.759   0.990  1.5144 -1.2504 -0.3711
48416SOL     OW55561   8.089  12.367   2.142 -0.0352  0.1836 -0.3359
48416SOL    HW155562   8.115  12.445   2.093 -1.0493  0.7773  0.0538
48416SOL    HW255563   8.059  12.306   2.074 -0.8527  0.7728 -0.5088
48417SOL     OW55564   2.388   2.279  11.182  0.1977  0.2942 -0.7968
48417SOL    HW155565   2.476   2.300  11.152  0.0325  0.8032 -0.9313
48417SOL    HW255566   2.332   2.293  11.106  0.0234 -0.2421 -0.7749
48418SOL     OW55567   5.687   3.411   8.444  0.6229 -0.0073  0.5909
48418SOL    HW155568   5.743   3.476   8.403  0.9477 -0.6442  0.0139
48418SOL    HW255569   5.670   3.346   8.376 -0.9049  0.2155  0.7144
48419SOL     OW55570  10.350   7.235  12.453 -0.2310 -0.2216 -0.5633
48419SOL    HW155571  10.435   7.217  12.494 -0.2833 -0.8177 -0.7018
48419SOL    HW255572  10.365   7.220  12.360 -0.7532 -1.4272 -0.4711
48420SOL     OW55573   8.712   3.377   4.427  0.0012  0.1801  0.1334
48420SOL    HW155574   8.641   3.316   4.407  0.2711 -0.0591 -0.1271
48420SOL    HW255575   8.694   3.454   4.375  0.8690 -0.5591 -1.3385
48421SOL     OW55576   5.762  10.369  10.873 -0.3596  0.1455  0.1575
48421SOL    HW155577   5.807  10.420  10.940 -0.6616  1.2953 -0.4851
48421SOL    HW255578   5.705  10.432  10.829 -0.4472 -0.6616 -0.9371
48422SOL     OW55579   6.418  11.581   6.018 -0.9492  0.3522  0.5536
48422SOL    HW155580   6.513  11.592   6.007 -1.0655  1.3147  0.5026
48422SOL    HW255581   6.395  11.641   6.089 -1.7624  1.2330 -0.4401
48423SOL     OW55582   4.298   2.040  12.174 -0.0484  0.6040 -1.0495
48423SOL    HW155583   4.209   2.006  12.168  0.7745 -2.2935  0.9388
48423SOL    HW255584   4.286   2.134  12.190 -2.7768  0.2239 -0.2188
48424SOL     OW55585   6.297   1.957   6.797  0.0542 -0.8895 -0.5909
48424SOL    HW155586   6.257   1.872   6.817 -0.6479 -0.5706 -0.6044
48424SOL    HW255587   6.287   2.007   6.878  0.3978 -0.7984 -0.6072
48425SOL     OW55588   0.848  12.912   1.317 -0.2719  0.4569  0.5214
48425SOL    HW155589   0.828  12.820   1.300 -1.1357  0.8865 -0.8409
48425SOL    HW255590   0.919  12.933   1.256 -0.0792  0.7089  0.8248
48426SOL     OW55591   9.927   6.857   6.618 -0.5231  0.1152  0.3423
48426SOL    HW155592   9.952   6.765   6.630 -2.0262 -0.4447 -0.5626
48426SOL    HW255593   9.890   6.861   6.530 -1.6193  1.3139  0.8218
48427SOL     OW55594  11.226   9.162  10.108 -0.0656 -0.1313  0.0651
48427SOL    HW155595  11.242   9.234  10.046  0.3641  0.2450  0.5996
48427SOL    HW255596  11.137   9.133  10.088  0.0524  0.0070 -0.7027
48428SOL     OW55597   3.472   6.801  12.028 -0.2919 -0.3750  0.7409
48428SOL    HW155598   3.426   6.725  12.063 -1.5504  0.0495  0.0675
48428SOL    HW255599   3.474   6.786  11.933 -1.3723  0.8544  0.5063
48429SOL     OW55600   8.121   8.303   3.976  0.7027  0.2842  0.9188
48429SOL    HW155601   8.084   8.310   3.888  1.7796 -0.0087  0.4304
48429SOL    HW255602   8.046   8.280   4.031  0.2137 -0.6862 -0.1052
48430SOL     OW55603   3.763   8.218  11.133  0.3219  0.4290 -0.0998
48430SOL    HW155604   3.858   8.207  11.143  0.2843 -0.3164 -0.5215
48430SOL    HW255605   3.725   8.144  11.180 -0.0219  0.2235 -0.6993
48431SOL     OW55606  12.849  11.754  10.796 -0.0976  0.1387  0.4010
48431SOL    HW155607  12.897  11.797  10.726 -0.3218  1.2139  0.8875
48431SOL    HW255608  12.908  11.684  10.825  0.8883  0.9826  0.5110
48432SOL     OW55609  12.931   4.224   2.505 -0.2747 -0.7440  0.7408
48432SOL    HW155610  12.891   4.251   2.588 -0.9077  0.6312  0.0144
48432SOL    HW255611  12.857   4.200   2.449  0.1330 -1.3718  0.4629
48433SOL     OW55612   9.981   3.823   2.759 -0.1828  0.2401 -0.3400
48433SOL    HW155613   9.934   3.770   2.824  0.5193  0.4624  0.3565
48433SOL    HW255614   9.947   3.792   2.674  0.7007 -1.7971  0.0019
48434SOL     OW55615   2.778  11.680   2.924  0.4981 -0.2644  0.6598
48434SOL    HW155616   2.866  11.715   2.936  0.4855 -0.2706  0.7690
48434SOL    HW255617   2.731  11.747   2.874  0.0166  0.5668  2.1604
48435SOL     OW55618  12.460   2.432   7.015 -0.2956  0.3274  0.0197
48435SOL    HW155619  12.441   2.340   6.999  0.5026 -0.0614  1.1984
48435SOL    HW255620  12.476   2.438   7.109  1.8728  1.2300 -0.3455
48436SOL     OW55621   7.279   9.703   0.964 -0.1192  0.1770 -0.1989
48436SOL    HW155622   7.185   9.682   0.965  0.1577 -1.3053  1.5515
48436SOL    HW255623   7.321   9.625   1.002  1.8432  0.7712 -1.0138
48437SOL     OW55624   9.381   1.110   7.119  0.3454 -0.1952 -0.9021
48437SOL    HW155625   9.449   1.076   7.061 -0.4905 -0.4645 -1.7560
48437SOL    HW255626   9.426   1.175   7.173  1.6261 -1.4731 -0.3421
48438SOL     OW55627   7.082  11.120   4.022 -0.3096  0.4160  0.3618
48438SOL    HW155628   7.058  11.030   4.001  2.9609 -0.5210  0.0359
48438SOL    HW255629   7.026  11.144   4.095  0.1784 -2.7085  1.9058
48439SOL     OW55630   4.268   7.594   8.697  0.6375  0.2793  0.2576
48439SOL    HW155631   4.357   7.620   8.670  2.2123 -2.3901  2.3713
48439SOL    HW255632   4.255   7.508   8.659 -0.3067 -0.1237  1.4160
48440SOL     OW55633  11.563   2.662  12.704 -0.7482  0.1807 -0.1891
48440SOL    HW155634  11.620   2.597  12.663 -0.3039  1.2145 -1.2751
48440SOL    HW255635  11.481   2.657  12.654 -0.4320  0.9933 -0.8075
48441SOL     OW55636   2.279   1.029   8.478  0.1363 -0.1498 -0.0631
48441SOL    HW155637   2.210   0.971   8.510 -0.2156  0.6391  0.6753
48441SOL    HW255638   2.255   1.047   8.387 -0.6175  0.0784  0.1686
48442SOL     OW55639  12.527   1.709   9.284  0.2503 -0.0790 -0.1797
48442SOL    HW155640  12.582   1.788   9.283  1.2437 -0.6226  2.4168
48442SOL    HW255641  12.459   1.728   9.349  0.7608 -1.4610  0.8133
48443SOL     OW55642   7.803  12.771   1.846  0.3629  0.1235  0.0530
48443SOL    HW155643   7.759  12.825   1.912  0.1844 -0.0371  0.0662
48443SOL    HW255644   7.791  12.819   1.764 -0.5761 -0.3249 -0.0953
48444SOL     OW55645   9.908   3.081   1.867  0.2634 -0.1941 -0.0480
48444SOL    HW155646   9.984   3.131   1.836 -1.2970  2.2523 -0.2060
48444SOL    HW255647   9.926   3.064   1.959  2.2401 -2.2148 -0.7250
48445SOL     OW55648   9.879   3.359  10.338  0.2209  0.5480 -0.1249
48445SOL    HW155649   9.906   3.347  10.428  1.3801 -1.3664 -0.6804
48445SOL    HW255650   9.957   3.390  10.293 -0.5054  2.0908 -0.3999
48446SOL     OW55651   0.550   2.545   6.986 -0.2451  0.1734  0.9435
48446SOL    HW155652   0.543   2.616   6.922 -0.9320  0.4690  1.3452
48446SOL    HW255653   0.637   2.557   7.025 -0.2013  0.5546  0.7364
48447SOL     OW55654   9.486  12.143   5.756 -0.1211 -0.1543 -0.3179
48447SOL    HW155655   9.562  12.185   5.715  1.5139 -1.9627  0.7231
48447SOL    HW255656   9.464  12.071   5.697 -0.6645  0.0007 -0.3063
48448SOL     OW55657   7.234  10.166   3.099 -0.6015 -0.0137 -0.0829
48448SOL    HW155658   7.278  10.192   3.018 -0.8247 -0.5416 -0.3805
48448SOL    HW255659   7.141  10.161   3.075 -0.8239  1.0655  0.5300
48449SOL     OW55660   7.136  12.450  12.979 -0.5521  0.1283 -0.0121
48449SOL    HW155661   7.196  12.432  12.907  0.6196  0.5465  0.8330
48449SOL    HW255662   7.122  12.365  13.021  0.3915  0.2134  0.4923
48450SOL     OW55663   7.701   3.683   6.314  0.0737 -0.2145  0.0406
48450SOL    HW155664   7.789   3.718   6.300  0.4864 -1.9744 -2.5761
48450SOL    HW255665   7.683   3.632   6.235 -3.1142 -0.3458  0.7197
48451SOL     OW55666  10.854   2.897   8.022  0.1294  0.1264 -0.3918
48451SOL    HW155667  10.865   2.973   7.965 -0.5519  0.4886 -0.0543
48451SOL    HW255668  10.921   2.835   7.993  1.0218  1.0401 -0.3665
48452SOL     OW55669  12.828   9.186   0.782  0.5388 -0.0106  0.9698
48452SOL    HW155670  12.835   9.220   0.871 -1.6332 -0.9966  1.5695
48452SOL    HW255671  12.735   9.172   0.768  0.8567 -0.2700 -1.3332
48453SOL     OW55672  10.334   8.161   9.079  0.2587  0.2085 -0.3763
48453SOL    HW155673  10.301   8.176   8.990 -0.7213  1.1206  0.1257
48453SOL    HW255674  10.426   8.136   9.066 -0.0407 -0.2927 -1.6740
48454SOL     OW55675   5.931  10.790   9.473 -0.2372 -0.0289 -0.2232
48454SOL    HW155676   5.850  10.838   9.490  0.3619  0.7858  0.4393
48454SOL    HW255677   5.969  10.775   9.560  0.5835  0.0682 -0.5545
48455SOL     OW55678   8.005   3.319   3.190 -1.0465 -0.4479  0.1275
48455SOL    HW155679   8.079   3.260   3.203  0.0636  0.9460  0.4305
48455SOL    HW255680   7.977   3.343   3.278 -0.8850  0.1767  0.0193
48456SOL     OW55681   8.064   1.778   7.743  0.3304  0.7132  0.3930
48456SOL    HW155682   8.082   1.869   7.718 -1.0613  1.3553  1.5716
48456SOL    HW255683   7.970   1.768   7.728  0.6938 -1.0224 -1.1037
48457SOL     OW55684   7.560   6.259   3.480  0.1153 -0.7058 -0.0960
48457SOL    HW155685   7.590   6.206   3.406  1.0488 -1.3090  0.6946
48457SOL    HW255686   7.635   6.262   3.540 -0.6634 -0.3315  0.8847
48458SOL     OW55687   7.601  11.340   3.739 -0.6830 -0.0203 -0.0687
48458SOL    HW155688   7.558  11.304   3.816 -1.5193  0.2653 -0.3880
48458SOL    HW255689   7.694  11.326   3.754 -0.7695  0.8550  1.4072
48459SOL     OW55690   5.897   8.448  10.887 -0.0227 -0.3029  0.7888
48459SOL    HW155691   5.984   8.428  10.919  0.2901  0.0727  0.1880
48459SOL    HW255692   5.863   8.512  10.950  0.1321 -0.4449  1.0194
48460SOL     OW55693  10.705   7.904   7.549  0.4432  0.4721  0.0301
48460SOL    HW155694  10.799   7.916   7.558  0.2200  1.8640  0.7827
48460SOL    HW255695  10.696   7.830   7.489  2.0050  0.5902 -0.3972
48461SOL     OW55696   2.692  11.780   0.104 -0.4458  0.3044  0.3026
48461SOL    HW155697   2.613  11.739   0.138 -0.2903  1.5669  2.3776
48461SOL    HW255698   2.667  11.871   0.089 -0.0066  0.1735 -1.3876
48462SOL     OW55699   6.752  12.179  12.096  0.4541 -0.1560 -0.0583
48462SOL    HW155700   6.844  12.204  12.102  0.3851  0.2895 -0.7241
48462SOL    HW255701   6.705  12.246  12.146  0.4023  0.2301 -0.6129
48463SOL     OW55702   0.365   9.509   1.547  0.0462 -0.4084  0.7392
48463SOL    HW155703   0.387   9.447   1.477  2.1091  0.4069  0.6159
48463SOL    HW255704   0.294   9.562   1.510  1.9581  0.8836 -1.3560
48464SOL     OW55705   5.325   0.885   6.189 -0.2348  0.6904  0.0833
48464SOL    HW155706   5.343   0.906   6.097 -0.7505  0.2063 -0.1375
48464SOL    HW255707   5.229   0.892   6.196 -0.2206  0.4789  0.5178
48465SOL     OW55708   9.802  11.607   4.987  0.5242  0.0101 -0.5563
48465SOL    HW155709   9.780  11.586   5.078 -0.1745  0.1921 -0.6794
48465SOL    HW255710   9.718  11.603   4.941  0.7594  0.6588 -1.0504
48466SOL     OW55711   6.184   8.218  12.959 -0.0036  0.5690 -0.5386
48466SOL    HW155712   6.092   8.206  12.984  0.1311 -1.7635 -0.8746
48466SOL    HW255713   6.217   8.128  12.951  2.0343  1.3619 -1.4202
48467SOL     OW55714  11.228  11.540   2.038 -0.1339  0.0305 -0.4037
48467SOL    HW155715  11.312  11.504   2.009 -1.2697 -0.9914 -2.7451
48467SOL    HW255716  11.188  11.470   2.089  0.3239  0.4448  0.5451
48468SOL     OW55717   8.365   7.628   5.165 -0.0085  0.4524  0.0037
48468SOL    HW155718   8.299   7.559   5.176 -0.5249  0.3341 -2.9012
48468SOL    HW255719   8.366   7.644   5.070  2.1051  2.4931  0.2972
48469SOL     OW55720   2.486   9.728   8.854 -0.1171 -0.5738 -0.2475
48469SOL    HW155721   2.394   9.738   8.828 -0.0003 -1.3008 -0.9690
48469SOL    HW255722   2.520   9.817   8.857 -0.9106 -0.2806  0.2584
48470SOL     OW55723   7.787   1.086   5.738  0.2313  0.2672 -0.8559
48470SOL    HW155724   7.842   1.091   5.816  0.3826  2.5413 -1.0375
48470SOL    HW255725   7.829   1.020   5.683  0.8048 -0.5008  0.4487
48471SOL     OW55726   0.661   2.218   8.393  0.0419 -0.1775  0.1257
48471SOL    HW155727   0.665   2.307   8.430  1.4068 -1.4197  3.3640
48471SOL    HW255728   0.738   2.174   8.428 -2.6122 -3.7989  2.1659
48472SOL     OW55729   9.396   8.293   9.816  0.1022 -0.3748 -0.1140
48472SOL    HW155730   9.377   8.273   9.724  0.3579 -0.6511 -0.1075
48472SOL    HW255731   9.450   8.220   9.846  1.5850  0.6071 -0.2661
48473SOL     OW55732   3.233   9.466   9.990 -0.3483  0.2431  0.4383
48473SOL    HW155733   3.303   9.477   9.926 -0.8837  2.4575  0.1357
48473SOL    HW255734   3.174   9.402   9.949  0.3567  0.0543 -0.3241
48474SOL     OW55735   6.513  10.043  12.126 -0.3643  0.3710 -0.0677
48474SOL    HW155736   6.472  10.029  12.212 -0.0974 -0.0567 -0.0087
48474SOL    HW255737   6.439  10.049  12.065 -0.5337 -1.8154 -0.1808
48475SOL     OW55738   2.533  11.382   1.206 -0.1498  0.0710  0.2280
48475SOL    HW155739   2.451  11.431   1.198 -0.6444 -0.7943 -0.0328
48475SOL    HW255740   2.598  11.437   1.161 -0.4323  1.0919  1.0288
48476SOL     OW55741   1.025   1.008   2.163  0.5017  1.0038 -0.1162
48476SOL    HW155742   1.027   0.966   2.249  0.1711  1.4171  0.0955
48476SOL    HW255743   0.936   0.994   2.131  0.5158  1.1793 -0.2337
48477SOL     OW55744  12.880   4.758   2.182  0.4462 -0.1016 -0.3211
48477SOL    HW155745  12.798   4.784   2.140  0.3643 -0.7444 -0.5767
48477SOL    HW255746  12.898   4.671   2.146  0.1504 -0.8647  1.2592
48478SOL     OW55747   4.723   6.676   2.320 -0.0964 -0.1015  0.2234
48478SOL    HW155748   4.687   6.652   2.406 -0.3954  0.4797  0.2663
48478SOL    HW255749   4.739   6.770   2.327  1.6042 -0.3590  0.2623
48479SOL     OW55750   5.581   8.391   3.113  0.0608  0.5021 -0.3356
48479SOL    HW155751   5.504   8.391   3.169 -0.6612  0.7843 -1.3006
48479SOL    HW255752   5.638   8.323   3.150 -0.2571  0.8829  0.8949
48480SOL     OW55753   8.690   4.349   1.072  0.0837 -0.7619 -0.0848
48480SOL    HW155754   8.757   4.282   1.061 -1.0648 -1.7213 -1.8752
48480SOL    HW255755   8.607   4.302   1.062 -0.9633  0.2424  2.7288
48481SOL     OW55756  10.889  12.818  11.860  0.0499  0.2798  0.1499
48481SOL    HW155757  10.885  12.857  11.773 -2.0067 -1.0757 -0.4636
48481SOL    HW255758  10.946  12.741  11.849 -0.0100  0.2483  0.0566
48482SOL     OW55759  11.217   0.610   7.917  0.1031 -0.0653 -0.3297
48482SOL    HW155760  11.170   0.678   7.870 -0.3022 -0.2118 -0.1340
48482SOL    HW255761  11.190   0.528   7.874  0.3591 -0.1307 -0.3695
48483SOL     OW55762  11.350   7.172   6.185  0.5977 -0.1959  0.3554
48483SOL    HW155763  11.350   7.262   6.152 -0.5974 -0.2012  0.3257
48483SOL    HW255764  11.267   7.162   6.231  1.1486 -0.9804  1.2337
48484SOL     OW55765  10.587   7.974   2.593 -0.1849 -0.2193  0.0886
48484SOL    HW155766  10.491   7.973   2.593 -0.2227  0.8279 -0.9398
48484SOL    HW255767  10.612   7.904   2.652 -1.5911  0.7968  2.0018
48485SOL     OW55768   5.408   3.136   9.711 -0.3415 -0.5752 -0.2274
48485SOL    HW155769   5.463   3.062   9.688  0.4118 -0.8780  2.2839
48485SOL    HW255770   5.425   3.151   9.804 -1.0074  2.2922 -0.4716
48486SOL     OW55771   2.126   9.318  11.519  0.0605 -0.4176 -0.0517
48486SOL    HW155772   2.085   9.245  11.473  0.6349 -0.8827  0.1627
48486SOL    HW255773   2.096   9.309  11.610 -2.5466  1.5504 -0.6045
48487SOL     OW55774   6.403   9.618   6.686  0.5709 -0.0620 -0.4196
48487SOL    HW155775   6.440   9.631   6.773  2.9780  0.1414 -1.4141
48487SOL    HW255776   6.408   9.704   6.644 -3.5522  0.6793  0.1978
48488SOL     OW55777   0.271   1.356   7.838 -0.2247  0.4346  0.3718
48488SOL    HW155778   0.318   1.292   7.891 -0.5926 -1.2926 -1.2639
48488SOL    HW255779   0.194   1.378   7.890  0.1192 -0.1131  1.1387
48489SOL     OW55780   9.742   9.878   9.973  0.1952 -0.8095  0.0351
48489SOL    HW155781   9.700   9.841   9.896 -0.4142  0.4731 -0.2779
48489SOL    HW255782   9.790   9.954   9.940 -1.2351  0.6126  1.0880
48490SOL     OW55783  10.211   3.009   4.388  0.0435 -0.0633  0.0891
48490SOL    HW155784  10.218   2.948   4.315  0.2838 -2.8312  2.2364
48490SOL    HW255785  10.117   3.015   4.407  0.0990 -0.9723  0.7405
48491SOL     OW55786   6.914  11.804   5.005 -0.1796 -0.2279  0.2800
48491SOL    HW155787   6.924  11.839   4.916  0.6298  0.4543  0.6294
48491SOL    HW255788   6.819  11.801   5.018 -0.4490 -2.6126 -1.4598
48492SOL     OW55789   6.754   7.717  10.766  0.3614  0.0796 -0.0601
48492SOL    HW155790   6.738   7.782  10.698 -0.6820  0.4990  0.5662
48492SOL    HW255791   6.849   7.718  10.778  0.4804  0.5188 -0.9943
48493SOL     OW55792   5.327   3.752   4.736  0.1304 -0.4832 -0.8017
48493SOL    HW155793   5.329   3.841   4.703  1.7094 -0.2436 -0.1590
48493SOL    HW255794   5.259   3.751   4.803  0.4085  0.3711 -0.5004
48494SOL     OW55795  10.336  12.252  12.774 -0.3530 -0.2243 -0.1837
48494SOL    HW155796  10.301  12.340  12.789 -1.3994 -0.7766  0.7914
48494SOL    HW255797  10.403  12.242  12.841 -0.5208 -0.3108 -0.0272
48495SOL     OW55798  12.011   7.281   3.064 -0.1339 -0.1545  0.0917
48495SOL    HW155799  11.934   7.302   3.012  0.4663 -0.3601 -0.9132
48495SOL    HW255800  12.051   7.366   3.083 -1.2969  0.0639  1.7616
48496SOL     OW55801  11.249   1.272  10.560 -0.1276 -0.1614 -0.4178
48496SOL    HW155802  11.212   1.340  10.503 -0.6992 -0.3549 -0.2776
48496SOL    HW255803  11.318   1.317  10.608 -0.7756  0.4306 -0.0274
48497SOL     OW55804  10.421   4.633   1.416  0.0406 -0.1373 -0.1430
48497SOL    HW155805  10.458   4.547   1.401 -2.1201 -0.8365 -2.0694
48497SOL    HW255806  10.495   4.693   1.406  1.1604 -1.6002 -1.0600
48498SOL     OW55807   8.283  11.656  12.585  0.2040  0.8397 -0.3469
48498SOL    HW155808   8.230  11.594  12.636 -0.1915  0.1751 -1.5167
48498SOL    HW255809   8.251  11.742  12.612 -0.6476  0.4773 -0.1461
48499SOL     OW55810   2.115   7.477   3.033 -0.7079  0.4699  0.4105
48499SOL    HW155811   2.059   7.399   3.038 -1.1510  0.5571 -2.0128
48499SOL    HW255812   2.072   7.541   3.090 -1.5559 -0.3501  0.7208
48500SOL     OW55813   2.781   5.366   2.424 -0.6139  0.1321 -0.1217
48500SOL    HW155814   2.860   5.342   2.474 -0.7617  0.6083  0.3503
48500SOL    HW255815   2.804   5.348   2.333  0.5216  1.4917 -0.1410
48501SOL     OW55816   9.801  12.737  12.878 -0.3521  0.4107  0.5512
48501SOL    HW155817   9.710  12.760  12.859 -0.7498  0.1364  2.0021
48501SOL    HW255818   9.806  12.736  12.973  1.0632 -0.0317  0.4929
48502SOL     OW55819   7.881  12.757   3.017 -0.3101 -0.1829  0.0412
48502SOL    HW155820   7.922  12.787   2.936 -0.0806 -0.0832  0.1913
48502SOL    HW255821   7.874  12.836   3.071 -0.4092 -0.2582  0.1385
48503SOL     OW55822   0.023   7.445  12.741  0.3778  0.0212 -0.2930
48503SOL    HW155823   0.006   7.391  12.664  0.4528  0.6185 -0.7360
48503SOL    HW255824  -0.063   7.459  12.780 -0.3706  3.3376 -2.7247
48504SOL     OW55825  12.122  11.315  12.665 -0.1688 -0.0087  0.2903
48504SOL    HW155826  12.033  11.336  12.694  0.2403  1.7444  0.4212
48504SOL    HW255827  12.130  11.221  12.678 -1.7039 -0.0611  1.1305
48505SOL     OW55828   9.583   7.928   6.532  0.2730  0.0696  0.1545
48505SOL    HW155829   9.537   8.008   6.509 -2.4982 -0.6610  2.6196
48505SOL    HW255830   9.553   7.864   6.467 -1.5158 -0.1198  1.0900
48506SOL     OW55831  10.785   1.555   7.817  0.4372  0.2023 -0.1355
48506SOL    HW155832  10.867   1.506   7.818  0.3614  0.0481 -0.8955
48506SOL    HW255833  10.738   1.522   7.741  0.4376  1.5535 -0.7406
48507SOL     OW55834   9.313  10.794   0.872 -0.3551  0.0944  0.1276
48507SOL    HW155835   9.350  10.749   0.948  2.6571 -0.0761 -1.2909
48507SOL    HW255836   9.225  10.757   0.862  0.0976 -1.6585  2.0410
48508SOL     OW55837  11.577   9.301   5.573  0.0722 -0.0889  0.7073
48508SOL    HW155838  11.577   9.313   5.668 -0.9437  3.4493  0.4048
48508SOL    HW255839  11.655   9.347   5.543  0.7285 -1.7137 -0.1735
48509SOL     OW55840  10.152  11.650   8.983 -0.1461  0.2069 -0.1248
48509SOL    HW155841  10.163  11.556   8.989 -0.6478  0.0944 -0.8346
48509SOL    HW255842  10.059  11.666   9.000 -0.7307  0.2495 -2.8897
48510SOL     OW55843   4.020  11.575   5.686 -0.1995  0.7573 -0.5023
48510SOL    HW155844   4.002  11.554   5.595 -1.1236 -0.0632 -0.1509
48510SOL    HW255845   4.104  11.533   5.704  0.8982  2.4712 -1.4659
48511SOL     OW55846   3.639  10.619   8.949  0.4222  0.4924  0.1084
48511SOL    HW155847   3.622  10.537   8.996 -1.8971  0.0823 -1.3047
48511SOL    HW255848   3.722  10.650   8.986  0.2231 -1.2919  2.3168
48512SOL     OW55849   1.024   5.614  11.126  0.1503  0.2984  0.0319
48512SOL    HW155850   0.929   5.601  11.125  0.4534 -2.4887  0.2981
48512SOL    HW255851   1.038   5.690  11.070 -2.0972 -0.5706 -1.9095
48513SOL     OW55852   4.082   0.346  12.037  0.2291  0.5226  0.2548
48513SOL    HW155853   4.132   0.266  12.056  1.0680  1.3452  1.6530
48513SOL    HW255854   4.132   0.416  12.077 -1.2168  1.5939  0.2805
48514SOL     OW55855  10.119   0.137  12.773  0.4247 -0.4975 -0.1312
48514SOL    HW155856  10.103   0.046  12.746  0.6825 -0.5025 -0.2701
48514SOL    HW255857  10.214   0.145  12.775  0.4447 -0.7148  1.5084
48515SOL     OW55858   4.659   2.010   2.182 -0.1818  0.3888  0.7547
48515SOL    HW155859   4.575   1.966   2.197  0.5959 -1.0046  1.0873
48515SOL    HW255860   4.715   1.943   2.143  0.3208  1.7211 -0.9646
48516SOL     OW55861   5.462   1.148   2.858 -0.6102  0.2884  0.2063
48516SOL    HW155862   5.522   1.077   2.878 -2.1002 -0.8381  0.8950
48516SOL    HW255863   5.439   1.185   2.943  0.3551  1.7997 -0.1622
48517SOL     OW55864  12.556   6.726   1.497 -0.2278  0.0513  0.1044
48517SOL    HW155865  12.549   6.714   1.591  0.7789  0.0461  0.1913
48517SOL    HW255866  12.600   6.648   1.466  0.6339  0.6312 -0.1803
48518SOL     OW55867   8.252  12.265   5.064 -0.1631 -0.4937 -0.3024
48518SOL    HW155868   8.199  12.226   5.134 -1.1818 -0.0125 -0.7901
48518SOL    HW255869   8.260  12.195   4.999 -1.0169 -0.2738 -0.6561
48519SOL     OW55870   0.101   6.520   3.211 -0.2024 -0.4640  0.0103
48519SOL    HW155871   0.194   6.512   3.189 -0.0404 -2.3582  1.1559
48519SOL    HW255872   0.073   6.601   3.168  1.7472 -0.3169 -1.1004
48520SOL     OW55873   8.826   8.186   3.110 -0.3569  0.1894  0.0535
48520SOL    HW155874   8.818   8.264   3.055  0.7143  0.8201  0.7557
48520SOL    HW255875   8.789   8.212   3.194 -0.1544 -0.1053  0.2378
48521SOL     OW55876   5.225  12.108   6.368 -0.0951  0.0049 -0.6677
48521SOL    HW155877   5.161  12.051   6.410  0.4819  0.1277  0.4310
48521SOL    HW255878   5.183  12.137   6.287 -1.4008  0.0559  0.0110
48522SOL     OW55879   7.007  12.797   5.985  0.2795  0.0644 -0.2026
48522SOL    HW155880   7.089  12.836   5.953 -1.3815  5.0076  0.7302
48522SOL    HW255881   7.021  12.783   6.078  0.1724  0.5323 -0.1177
48523SOL     OW55882  12.053   5.106  11.433 -0.3332 -0.4493 -0.4039
48523SOL    HW155883  12.099   5.023  11.416  0.4059  0.2811 -2.2870
48523SOL    HW255884  11.999   5.119  11.355  0.1800  1.2211 -0.5135
48524SOL     OW55885   1.059   9.532   7.211 -0.3926  0.3794 -0.5571
48524SOL    HW155886   1.060   9.568   7.300  0.7067  0.5366 -0.6167
48524SOL    HW255887   1.140   9.564   7.172 -0.7155  0.0471 -1.5140
48525SOL     OW55888   8.865  12.059   4.760 -0.5640 -0.1780  0.5427
48525SOL    HW155889   8.893  11.986   4.814 -0.7223 -0.3620  0.3764
48525SOL    HW255890   8.850  12.021   4.673  1.4546  0.4103 -0.1441
48526SOL     OW55891   1.048   9.157  11.994 -0.5574  0.3913 -0.6055
48526SOL    HW155892   1.068   9.104  11.917  0.3181  0.5744 -0.5114
48526SOL    HW255893   0.966   9.120  12.027  0.3384 -1.3448 -0.1782
48527SOL     OW55894   6.531   5.095   4.372  0.3285  0.3153 -0.4907
48527SOL    HW155895   6.473   5.108   4.447  0.0591 -0.2447 -0.5988
48527SOL    HW255896   6.618   5.087   4.410 -0.1320 -3.5617  0.1685
48528SOL     OW55897   2.735   7.216   0.303  0.8862 -0.6010  0.3327
48528SOL    HW155898   2.671   7.196   0.371  0.4170 -1.0498 -0.2326
48528SOL    HW255899   2.715   7.155   0.232  1.5565 -0.3370 -0.0935
48529SOL     OW55900  10.118   8.053   5.622 -0.4468 -0.2841  0.2306
48529SOL    HW155901  10.077   8.092   5.545  0.0088  2.0663  1.0817
48529SOL    HW255902  10.058   8.073   5.694  0.0552 -0.7275  0.7814
48530SOL     OW55903   5.297  12.378  10.121 -0.6264  0.5240 -0.2622
48530SOL    HW155904   5.336  12.404  10.205 -1.5862  0.5979  0.1761
48530SOL    HW255905   5.256  12.294  10.138 -1.4023  0.8503 -0.4744
48531SOL     OW55906  10.554   0.421   8.676 -0.7920  0.3960 -0.6123
48531SOL    HW155907  10.541   0.501   8.625 -3.2633  0.6033  0.2041
48531SOL    HW255908  10.631   0.379   8.636 -0.1234  2.5827 -1.7778
48532SOL     OW55909   5.633   0.975   3.001  0.7332  0.1036 -0.1645
48532SOL    HW155910   5.674   0.894   3.032  2.4933  0.3210 -1.7139
48532SOL    HW255911   5.673   1.044   3.054 -0.0563  0.0473  0.5102
48533SOL     OW55912  12.115   2.043   7.296 -1.1248 -0.6513  0.1726
48533SOL    HW155913  12.105   2.112   7.361  0.1480 -0.1429 -0.1458
48533SOL    HW255914  12.059   1.972   7.328  0.5344 -0.9998  2.6465
48534SOL     OW55915   7.612   0.520   9.734 -0.6741  0.3417 -0.4072
48534SOL    HW155916   7.595   0.572   9.656 -1.0056 -1.3664 -1.5328
48534SOL    HW255917   7.611   0.429   9.703  1.9136 -0.2913  1.0543
48535SOL     OW55918   6.296   8.305   1.008 -0.3047 -0.0802 -0.0533
48535SOL    HW155919   6.284   8.370   1.078  0.1485 -0.3623  0.2979
48535SOL    HW255920   6.251   8.342   0.933  1.8263  1.7367 -0.5471
48536SOL     OW55921   1.901  10.121   8.617  0.5601 -0.2449  0.7413
48536SOL    HW155922   1.900  10.073   8.534  0.0789  1.7917 -0.4825
48536SOL    HW255923   1.809  10.147   8.630  0.9904  1.4233  0.6791
48537SOL     OW55924   2.902   3.873   7.106 -0.3224  0.2087 -0.0068
48537SOL    HW155925   2.949   3.882   7.189  0.6889  0.3284 -0.5769
48537SOL    HW255926   2.842   3.948   7.105  2.2002  2.3690 -0.9695
48538SOL     OW55927   8.006   1.530   2.909 -0.2496 -0.4440  0.0322
48538SOL    HW155928   7.944   1.494   2.974 -0.0996  1.4791  1.2998
48538SOL    HW255929   7.951   1.582   2.851 -0.6916 -3.5709 -2.6694
48539SOL     OW55930  10.271   5.287   5.544 -0.5497  0.4333 -0.0124
48539SOL    HW155931  10.234   5.293   5.456  1.0369  0.1726 -0.7287
48539SOL    HW255932  10.265   5.195   5.567  0.0719  0.3031 -0.3395
48540SOL     OW55933  11.601   0.049  10.507 -0.2182 -0.6807  0.4827
48540SOL    HW155934  11.518   0.062  10.553 -0.9751  0.3684 -1.1109
48540SOL    HW255935  11.645  -0.020  10.557 -1.2979 -0.1057  2.3368
48541SOL     OW55936  12.424   0.423  10.240  0.3376 -0.5822 -0.2451
48541SOL    HW155937  12.502   0.476  10.252  0.7176 -1.5845  2.4454
48541SOL    HW255938  12.457   0.334  10.226 -0.3272 -0.5244 -2.6910
48542SOL     OW55939  11.709  11.948   1.866 -0.1563 -0.5614  0.3011
48542SOL    HW155940  11.745  11.935   1.779 -0.0332  2.0471 -0.1258
48542SOL    HW255941  11.623  11.907   1.864  0.8519 -2.7686 -0.1659
48543SOL     OW55942   0.596   7.752   9.185 -0.4266 -0.6832  0.2441
48543SOL    HW155943   0.522   7.723   9.238 -1.6599 -0.8813 -1.5119
48543SOL    HW255944   0.628   7.672   9.143 -1.3467 -0.1828 -1.5391
48544SOL     OW55945  12.040  10.419   9.212 -0.0579  0.3300  0.1839
48544SOL    HW155946  12.088  10.355   9.159  0.8456  0.4286  0.8767
48544SOL    HW255947  12.041  10.383   9.301 -2.2553 -0.2432  0.0541
48545SOL     OW55948  12.434   3.290   1.109  0.1454 -0.5518  0.5446
48545SOL    HW155949  12.491   3.291   1.032  1.8469  1.2699  1.7268
48545SOL    HW255950  12.358   3.343   1.083  1.5758  1.7039  0.6161
48546SOL     OW55951   7.538  10.748   7.641 -0.2403 -0.4831  0.0386
48546SOL    HW155952   7.552  10.660   7.677 -1.1227 -0.8349 -0.4504
48546SOL    HW255953   7.580  10.745   7.555  3.0569  0.7643  1.4186
48547SOL     OW55954   5.386   6.456   1.739  0.6534 -0.1128  0.3599
48547SOL    HW155955   5.313   6.406   1.775  1.1945  0.8690  3.1379
48547SOL    HW255956   5.383   6.540   1.785  2.0363  0.9259 -1.3179
48548SOL     OW55957   3.670   7.570   8.316 -0.3146 -1.0383 -0.8453
48548SOL    HW155958   3.735   7.638   8.335 -0.6322 -0.3151 -2.2404
48548SOL    HW255959   3.588   7.604   8.353 -0.1763 -1.3813 -0.1973
48549SOL     OW55960   4.049   7.043   0.406 -0.7449 -1.1084  0.0916
48549SOL    HW155961   4.062   7.018   0.497 -0.9309  0.1206  0.4766
48549SOL    HW255962   4.129   7.015   0.361 -0.0260 -0.4022  0.9237
48550SOL     OW55963   1.117   7.770   9.714 -0.6559 -0.4357 -0.2973
48550SOL    HW155964   1.160   7.702   9.766 -1.9451 -0.8760  0.2441
48550SOL    HW255965   1.147   7.754   9.624 -0.7667 -1.6163 -0.1478
48551SOL     OW55966   3.322   8.172   8.936  0.5467  0.0490  0.9587
48551SOL    HW155967   3.337   8.256   8.980 -1.2587  1.3742 -0.8026
48551SOL    HW255968   3.380   8.175   8.860 -0.1697  0.0945  0.4120
48552SOL     OW55969   9.770   4.853  12.779 -0.2629 -0.4050  0.5287
48552SOL    HW155970   9.839   4.920  12.783  1.1719 -1.6600 -1.4198
48552SOL    HW255971   9.692   4.897  12.813  0.5679  2.3084 -0.7755
48553SOL     OW55972   0.024   0.614  11.112  0.0395 -0.4890 -0.1029
48553SOL    HW155973   0.049   0.558  11.038 -0.0111  0.2791 -0.7262
48553SOL    HW255974   0.074   0.695  11.098 -0.4704 -0.0895  0.3411
48554SOL     OW55975   8.829   9.485   0.115 -0.1435 -0.1519 -0.0292
48554SOL    HW155976   8.866   9.440   0.039  1.0855  2.9405 -1.4087
48554SOL    HW255977   8.737   9.460   0.115  0.1171 -1.2807 -1.6870
48555SOL     OW55978   7.993   2.338   2.677 -0.2103 -0.6274  0.4851
48555SOL    HW155979   7.951   2.363   2.594  0.1726 -0.8061  0.2379
48555SOL    HW255980   7.944   2.261   2.706 -0.5925 -0.3395  0.6225
48556SOL     OW55981   3.244  12.401  12.036  0.4111 -0.2112  0.0449
48556SOL    HW155982   3.311  12.464  12.061 -0.0192 -0.9729  3.6474
48556SOL    HW255983   3.172  12.415  12.098 -2.4239 -0.1423 -2.9617
48557SOL     OW55984   0.379   1.325  11.968  0.2091 -0.0283  0.0815
48557SOL    HW155985   0.333   1.386  11.911  0.4266  0.2641  0.2156
48557SOL    HW255986   0.402   1.251  11.911 -0.0803 -0.0018 -0.0732
48558SOL     OW55987   5.618   8.786   1.599  0.0944  0.0299  0.5218
48558SOL    HW155988   5.594   8.721   1.534  0.3018 -0.5032  0.9646
48558SOL    HW255989   5.539   8.798   1.651 -0.2729  0.9532 -0.2263
48559SOL     OW55990   9.060   3.894   6.471  0.1375 -0.3226 -0.5835
48559SOL    HW155991   9.033   3.986   6.479 -1.6969 -0.8638 -0.0955
48559SOL    HW255992   9.118   3.879   6.546  1.7328  0.8013 -1.5138
48560SOL     OW55993  11.882   2.901   2.880 -0.0581 -0.3097  0.1063
48560SOL    HW155994  11.922   2.987   2.890 -2.4188  1.3744 -3.0473
48560SOL    HW255995  11.955   2.839   2.883  2.1642  2.0996 -0.7903
48561SOL     OW55996   9.306  12.004   3.205 -0.1213  0.3689 -0.1639
48561SOL    HW155997   9.381  11.999   3.263 -1.4557  3.4926  2.1212
48561SOL    HW255998   9.336  12.055   3.130  0.3612  0.5726  0.1669
48562SOL     OW55999   4.472   9.513   2.201 -0.4246 -0.0620  0.3601
48562SOL    HW156000   4.385   9.538   2.229 -0.0865  0.9317  0.5609
48562SOL    HW256001   4.492   9.573   2.129  0.3239  0.1268  0.7136
48563SOL     OW56002  10.626   3.311   9.558 -0.2139 -0.3255  0.0992
48563SOL    HW156003  10.676   3.268   9.627  0.7807 -0.3005 -0.5818
48563SOL    HW256004  10.578   3.240   9.516 -1.4582 -0.2300  1.3054
48564SOL     OW56005   5.265  12.085   1.348 -0.1723  0.1525 -0.5933
48564SOL    HW156006   5.259  12.020   1.418  1.8523 -0.9302 -1.3437
48564SOL    HW256007   5.240  12.167   1.391 -0.2407 -0.6868  1.0759
48565SOL     OW56008   9.875   6.871   6.949  0.4328  0.0246 -0.2946
48565SOL    HW156009   9.847   6.932   6.881 -0.0135  0.6730  0.4580
48565SOL    HW256010   9.970   6.881   6.954  0.4033  0.3700 -0.4327
48566SOL     OW56011  10.128  11.489   4.279 -0.3601  0.4776  0.6656
48566SOL    HW156012  10.175  11.572   4.279  0.5665  0.1461 -2.7298
48566SOL    HW256013  10.197  11.423   4.283 -0.9458 -0.1032  1.3230
48567SOL     OW56014   8.669  11.093   8.447  0.2711  0.4118 -0.3946
48567SOL    HW156015   8.742  11.046   8.488 -0.0402 -0.5794 -0.9390
48567SOL    HW256016   8.699  11.109   8.357  0.8706  2.3827  0.1041
48568SOL     OW56017   5.479   5.448   7.429  0.4234  0.2174 -0.0826
48568SOL    HW156018   5.393   5.406   7.437  0.4100  0.3208  0.3413
48568SOL    HW256019   5.463   5.522   7.371  1.2862 -2.6866 -4.5358
48569SOL     OW56020   3.169   7.692  10.269 -0.1030  0.5621  0.6321
48569SOL    HW156021   3.155   7.784  10.292 -1.3380  0.6404 -0.3355
48569SOL    HW256022   3.224   7.694  10.191 -0.1442  0.4739  0.6000
48570SOL     OW56023  12.564  10.523   3.344 -0.3445  0.2333 -0.0253
48570SOL    HW156024  12.585  10.565   3.260  1.5858  0.8940  0.7259
48570SOL    HW256025  12.583  10.590   3.409  1.0869 -1.1867  1.1015
48571SOL     OW56026   8.029   9.016  11.246  0.5038  0.0094 -0.0018
48571SOL    HW156027   7.977   8.937  11.261  2.2375 -0.9903  1.0948
48571SOL    HW256028   7.991   9.081  11.305 -1.4480  0.3306 -1.4770
48572SOL     OW56029   0.415  12.656   3.127 -0.1153  0.0089  0.0176
48572SOL    HW156030   0.393  12.750   3.131 -2.2162 -0.3480 -1.6413
48572SOL    HW256031   0.345  12.614   3.177  0.1582 -0.7726 -0.2564
48573SOL     OW56032   5.498  11.218   7.139  0.2047 -0.1469  0.4043
48573SOL    HW156033   5.462  11.283   7.079 -1.3582 -0.0950  1.3498
48573SOL    HW256034   5.587  11.202   7.107 -0.2008  0.7045 -1.2304
48574SOL     OW56035   9.216   6.042   3.354 -0.6584  0.3215 -0.2961
48574SOL    HW156036   9.309   6.056   3.335 -0.3920 -1.1735 -0.1831
48574SOL    HW256037   9.198   6.102   3.427  0.9432 -1.2820  1.5413
48575SOL     OW56038  11.217   2.476   2.589  1.1771  0.2157 -0.3992
48575SOL    HW156039  11.296   2.522   2.561  1.4088  0.1811  0.1858
48575SOL    HW256040  11.211   2.401   2.530  1.8856 -0.0822 -0.1119
48576SOL     OW56041   8.141   9.312   4.784 -0.4341  0.4321 -0.1196
48576SOL    HW156042   8.137   9.402   4.751  1.8727  1.5722  2.3037
48576SOL    HW256043   8.091   9.315   4.866 -0.2272 -0.4594  0.0453
48577SOL     OW56044   4.873   6.925  11.872  0.1599  0.8886  0.8716
48577SOL    HW156045   4.790   6.887  11.842  0.5163  0.0718  0.9079
48577SOL    HW256046   4.895   6.990  11.805  0.4890 -0.2722 -0.1765
48578SOL     OW56047   8.515   4.865   8.618 -0.7954 -0.2734  0.1582
48578SOL    HW156048   8.589   4.828   8.570 -1.5762 -3.7490  1.3501
48578SOL    HW256049   8.545   4.869   8.709 -1.6173 -0.4279  0.4424
48579SOL     OW56050   7.076   8.150   6.341 -0.1232 -0.0804 -0.2069
48579SOL    HW156051   7.075   8.176   6.433 -1.3754 -0.8421  0.0238
48579SOL    HW256052   7.045   8.228   6.294 -2.0273 -0.4855  0.2955
48580SOL     OW56053   3.643   5.187   8.007  0.3219  0.6679 -0.0226
48580SOL    HW156054   3.550   5.200   8.022  0.4159  1.1888  0.1333
48580SOL    HW256055   3.666   5.248   7.937  0.4021  0.0306 -0.5578
48581SOL     OW56056   7.405  10.542   4.643  0.2355  0.1488 -0.0988
48581SOL    HW156057   7.333  10.553   4.705  0.0476 -1.5970  0.0584
48581SOL    HW256058   7.369  10.569   4.559  0.1040  1.3633  0.3304
48582SOL     OW56059   2.002   4.304   8.749  0.5305  0.1372  0.3699
48582SOL    HW156060   2.048   4.298   8.833  1.9536  0.1556 -0.3848
48582SOL    HW256061   2.020   4.221   8.705  1.9456  1.0783 -0.9465
48583SOL     OW56062   8.031   1.277  11.602  0.3054 -0.3470 -0.6202
48583SOL    HW156063   8.005   1.348  11.544 -4.0398 -0.6906  0.5474
48583SOL    HW256064   8.057   1.206  11.543 -0.1832  0.5494 -1.9558
48584SOL     OW56065  12.456   3.465   8.492  0.1341 -0.2647 -0.0886
48584SOL    HW156066  12.523   3.530   8.470  0.7770 -1.0215 -0.4604
48584SOL    HW256067  12.379   3.492   8.443  0.9036 -0.7182 -1.6191
48585SOL     OW56068   5.093   4.078   0.212 -0.3742 -0.2493 -0.6717
48585SOL    HW156069   5.044   4.011   0.163  0.0437 -0.5408 -0.6998
48585SOL    HW256070   5.163   4.104   0.152  3.4828 -4.3800  1.4376
48586SOL     OW56071   6.603   5.173   6.441  0.8342 -0.3784  0.2158
48586SOL    HW156072   6.551   5.097   6.467 -0.2812  0.5527  0.8014
48586SOL    HW256073   6.660   5.189   6.516 -0.0485  0.2898  0.7752
48587SOL     OW56074   8.250   0.305  10.348 -0.2400  0.3004  0.3893
48587SOL    HW156075   8.305   0.380  10.323  0.6083 -1.0218 -2.1046
48587SOL    HW256076   8.311   0.242  10.386 -0.1279 -0.7367 -1.3889
48588SOL     OW56077   7.163   4.685  12.254  0.1745  0.6649 -0.5465
48588SOL    HW156078   7.232   4.645  12.201  0.0712 -0.0774 -0.1301
48588SOL    HW256079   7.210   4.739  12.317  0.3013  1.5065 -1.3323
48589SOL     OW56080   6.018  12.400   6.562 -0.0328  0.6467  0.0755
48589SOL    HW156081   6.029  12.307   6.546 -1.0818  0.2291  1.5849
48589SOL    HW256082   5.944  12.426   6.507 -1.4566 -0.0373  1.5797
48590SOL     OW56083   2.620   9.210   6.501 -0.2797 -0.0626  0.1705
48590SOL    HW156084   2.569   9.193   6.422  0.9474  0.2937 -0.7088
48590SOL    HW256085   2.631   9.305   6.503  1.1420 -0.2052 -0.1625
48591SOL     OW56086  11.188   7.151  11.014 -0.3550 -0.2250 -0.2869
48591SOL    HW156087  11.103   7.180  11.048 -0.0445 -1.8909  2.1865
48591SOL    HW256088  11.205   7.069  11.061  2.9820  0.4535 -0.0873
48592SOL     OW56089  12.740   4.367   7.433 -0.2451  0.0490  0.3934
48592SOL    HW156090  12.684   4.293   7.408  1.3469 -1.5415  1.2805
48592SOL    HW256091  12.725   4.377   7.528 -0.1689  0.6266  0.3471
48593SOL     OW56092   8.966   1.265  11.852  0.3179  0.2524  0.1975
48593SOL    HW156093   8.915   1.308  11.784 -0.2472  1.3374  1.2519
48593SOL    HW256094   8.982   1.177  11.819  0.6234  0.9533 -1.5927
48594SOL     OW56095   2.857  11.812   6.000  0.1725  0.2525  0.4282
48594SOL    HW156096   2.941  11.851   5.972 -1.3103  1.8027 -2.3466
48594SOL    HW256097   2.796  11.886   6.002 -1.0681 -0.7222  3.0748
48595SOL     OW56098   9.207  10.822   5.685 -0.3153 -0.4888 -0.5396
48595SOL    HW156099   9.270  10.784   5.746 -0.7158 -1.0474 -0.4689
48595SOL    HW256100   9.183  10.751   5.627 -0.5569 -0.1672 -0.8384
48596SOL     OW56101   4.005   2.118   4.617 -0.4152 -0.3487  0.2074
48596SOL    HW156102   4.014   2.142   4.709 -1.2306 -1.1421  0.5012
48596SOL    HW256103   4.015   2.023   4.616 -0.9547 -0.4027 -0.4534
48597SOL     OW56104   9.115   8.841   3.309 -0.3605  0.3313 -0.3164
48597SOL    HW156105   9.206   8.811   3.304  0.4754  2.3176  1.3911
48597SOL    HW256106   9.070   8.773   3.359  0.4565 -0.1336 -0.1960
48598SOL     OW56107  12.335   6.805  11.422 -0.2871 -0.0267 -0.0312
48598SOL    HW156108  12.299   6.830  11.507  1.4593 -0.3954  0.8560
48598SOL    HW256109  12.266   6.753  11.381 -1.1592  0.1728  1.1441
48599SOL     OW56110   6.140   3.002   5.625  0.0945  0.4772 -0.2883
48599SOL    HW156111   6.194   3.036   5.696 -0.0297  0.2573 -0.0876
48599SOL    HW256112   6.170   3.049   5.547  0.1870  0.7640 -0.0795
48600SOL     OW56113   5.929   5.608   7.280  0.1883 -0.4832  0.2717
48600SOL    HW156114   5.985   5.569   7.347  2.8841  2.8214  0.2100
48600SOL    HW256115   5.965   5.578   7.197  0.3130 -0.2907  0.2554
48601SOL     OW56116   1.543  11.471   2.144  0.0679 -0.0714 -0.1468
48601SOL    HW156117   1.455  11.451   2.113 -0.2089  0.2113  0.4402
48601SOL    HW256118   1.548  11.566   2.144  0.5109 -0.0874 -0.5339
48602SOL     OW56119   8.600   3.627   4.634  0.2549  0.4720  0.7095
48602SOL    HW156120   8.516   3.626   4.588  1.3767 -0.8211 -1.4806
48602SOL    HW256121   8.604   3.544   4.681  0.1129  0.7429  1.2032
48603SOL     OW56122   5.439  11.727   7.791  0.1515 -0.3979 -0.3548
48603SOL    HW156123   5.391  11.657   7.747  0.1427 -0.7821  0.2459
48603SOL    HW256124   5.532  11.707   7.775  0.1384  0.5161 -1.7813
48604SOL     OW56125   5.828   3.434   1.141 -0.2236 -0.3680  0.2171
48604SOL    HW156126   5.748   3.486   1.136 -1.2813 -1.6933  1.9930
48604SOL    HW256127   5.834   3.407   1.233  2.1232 -0.5624  0.0703
48605SOL     OW56128  11.780   5.614   7.744 -0.3785  0.2418 -0.3606
48605SOL    HW156129  11.775   5.563   7.825 -0.8988 -0.5834 -0.9036
48605SOL    HW256130  11.779   5.548   7.674  1.3575  0.8580 -1.0221
48606SOL     OW56131   6.380   8.801   9.685  0.2427 -0.1127  0.4613
48606SOL    HW156132   6.431   8.723   9.706  0.7229  0.2761  0.7678
48606SOL    HW256133   6.444   8.872   9.689 -0.1930  0.2949  0.1909
48607SOL     OW56134   4.941   0.312  11.573  0.3032  0.0700 -0.4228
48607SOL    HW156135   4.885   0.269  11.638 -0.4089  1.3833 -0.1290
48607SOL    HW256136   4.941   0.404  11.599 -0.7038  0.8049 -2.7907
48608SOL     OW56137   6.906   2.036  12.899  0.1969 -0.1842  0.0412
48608SOL    HW156138   6.865   1.956  12.932 -1.4324  0.6698  0.2055
48608SOL    HW256139   6.971   2.006  12.836  0.0654 -1.6520  0.5764
48609SOL     OW56140   6.818   8.067   6.531  0.4659 -0.0672  0.0465
48609SOL    HW156141   6.814   8.014   6.611 -1.8592  0.8095  0.5861
48609SOL    HW256142   6.901   8.115   6.539  0.4849 -0.3095  1.7310
48610SOL     OW56143  10.083   4.442  10.388 -0.3373 -1.0950  0.2675
48610SOL    HW156144  10.143   4.435  10.314 -0.9163 -0.1417 -0.3197
48610SOL    HW256145  10.106   4.369  10.445 -0.3834 -2.3110 -1.2183
48611SOL     OW56146  10.002  10.877   4.562  0.5323 -0.3471  0.8414
48611SOL    HW156147   9.934  10.810   4.565  0.8286 -0.7108 -0.1359
48611SOL    HW256148   9.956  10.960   4.579 -0.2472 -0.5238 -0.3188
48612SOL     OW56149   2.725  12.427   2.540  0.5211 -0.2780 -0.1296
48612SOL    HW156150   2.693  12.373   2.468  0.3384  1.3171 -1.2871
48612SOL    HW256151   2.759  12.364   2.603  0.7417 -1.7253 -1.6186
48613SOL     OW56152   1.226   1.527   5.171 -0.1215 -0.6134  0.2259
48613SOL    HW156153   1.277   1.573   5.104 -0.3420  2.3261  1.8707
48613SOL    HW256154   1.156   1.484   5.123  0.2267  0.6525 -1.5054
48614SOL     OW56155   0.832   8.749   1.010  0.1753 -0.1538  0.0977
48614SOL    HW156156   0.878   8.817   1.059  0.2711 -0.4164  0.3724
48614SOL    HW256157   0.901   8.705   0.960 -0.0274  0.6421 -0.9182
48615SOL     OW56158   6.665  12.468   8.023 -1.1968 -0.2776  0.1395
48615SOL    HW156159   6.647  12.544   7.967  1.4465  1.0609  0.9359
48615SOL    HW256160   6.642  12.498   8.111  2.4900  0.8345  0.9085
48616SOL     OW56161   0.983  12.253   2.244 -0.3212 -0.5444  0.2464
48616SOL    HW156162   1.024  12.207   2.317  2.9860  0.8914 -0.4949
48616SOL    HW256163   0.966  12.341   2.278 -2.8382 -1.0324  0.4589
48617SOL     OW56164  11.673   4.391  12.222 -0.2179  0.1685  0.8412
48617SOL    HW156165  11.666   4.317  12.161  0.5782 -0.4777  1.5088
48617SOL    HW256166  11.685   4.467  12.166  1.4894 -0.5360  0.1854
48618SOL     OW56167   2.683   6.035   0.650  0.0717  0.2046  0.1753
48618SOL    HW156168   2.686   6.033   0.745  0.2074 -1.0862  0.1591
48618SOL    HW256169   2.712   5.948   0.622  0.7246  0.7843 -1.0731
48619SOL     OW56170   8.524  10.779   0.965  0.4113 -0.5978  0.5376
48619SOL    HW156171   8.516  10.795   1.059 -0.5888 -0.2694  0.4134
48619SOL    HW256172   8.549  10.864   0.929 -0.5608 -0.3790  0.3620
48620SOL     OW56173   9.393   7.341   8.700 -0.5387  0.3375  0.0736
48620SOL    HW156174   9.476   7.352   8.746 -1.1332  1.6463  0.9124
48620SOL    HW256175   9.388   7.247   8.681  1.8437  0.4431 -1.4617
48621SOL     OW56176   0.140   5.924   8.826 -0.4571 -1.0552  0.2705
48621SOL    HW156177   0.135   5.898   8.918 -0.8752  1.1005  0.9265
48621SOL    HW256178   0.211   5.989   8.823 -0.6719 -0.8464 -0.8480
48622SOL     OW56179  11.691   0.857   6.254 -0.2492  0.6266 -0.2141
48622SOL    HW156180  11.762   0.848   6.190 -1.2606  0.6662 -1.3867
48622SOL    HW256181  11.630   0.787   6.232 -0.2539  0.1527  1.2339
48623SOL     OW56182   4.696  11.601   7.284  0.0699 -0.6936 -0.3856
48623SOL    HW156183   4.659  11.672   7.336  0.9311  0.3080 -1.1137
48623SOL    HW256184   4.628  11.533   7.285 -1.8366  1.0995 -1.6964
48624SOL     OW56185   4.286   6.195   4.879 -0.3409 -0.7884  0.0424
48624SOL    HW156186   4.343   6.256   4.926  0.5380 -2.8623  1.8406
48624SOL    HW256187   4.200   6.236   4.883  0.7347  2.0429 -2.0394
48625SOL     OW56188   6.225   0.922   3.331  0.2323 -0.4231  0.0128
48625SOL    HW156189   6.164   0.931   3.258 -0.1963 -0.7251  0.3311
48625SOL    HW256190   6.308   0.897   3.290 -0.1376 -1.1164 -0.3340
48626SOL     OW56191   4.887   8.297   0.232 -0.0590  0.3598 -0.3267
48626SOL    HW156192   4.862   8.225   0.289  0.7630  0.8074  0.6328
48626SOL    HW256193   4.840   8.281   0.151 -0.5543 -0.7849  0.1672
48627SOL     OW56194   6.863   7.214   9.001  0.2652  0.1019  0.1779
48627SOL    HW156195   6.847   7.175   9.087 -2.3285  0.1408 -0.1889
48627SOL    HW256196   6.789   7.274   8.988  1.5619  1.4534 -1.3265
48628SOL     OW56197   7.836   0.486  11.280  0.2266 -0.6301  0.3775
48628SOL    HW156198   7.758   0.452  11.235  0.5521  0.1400 -0.7985
48628SOL    HW256199   7.801   0.543  11.349 -0.3004  1.6257 -1.6252
48629SOL     OW56200   3.401   1.009   4.601 -0.2187  0.7687 -0.2550
48629SOL    HW156201   3.327   1.035   4.656 -0.3247 -0.4095  0.1971
48629SOL    HW256202   3.392   1.062   4.522 -2.1432 -0.0275 -0.6346
48630SOL     OW56203   2.636   3.211   3.186 -0.3450 -0.8272 -0.4552
48630SOL    HW156204   2.589   3.181   3.264 -0.2928 -0.4257 -0.2689
48630SOL    HW256205   2.667   3.130   3.145 -1.0317 -1.0803 -0.4778
48631SOL     OW56206   3.654   5.314   7.140 -0.0982  0.5436 -0.1770
48631SOL    HW156207   3.626   5.404   7.124  2.6471  1.3415 -0.9800
48631SOL    HW256208   3.593   5.261   7.088 -2.4515  1.7828  1.1860
48632SOL     OW56209   2.286   1.887   9.955 -0.3418  0.0843 -0.4164
48632SOL    HW156210   2.201   1.929   9.942 -0.5001 -0.1050  0.0018
48632SOL    HW256211   2.347   1.959   9.964 -0.6868  0.2406  0.7912
48633SOL     OW56212   9.032   3.394   2.190 -0.1782 -0.4266 -0.4219
48633SOL    HW156213   9.123   3.371   2.171 -0.0723 -2.3381  1.8759
48633SOL    HW256214   9.038   3.459   2.260 -0.6187  1.4445 -2.0373
48634SOL     OW56215   3.054   4.311   6.905  0.0329  0.4242  0.1427
48634SOL    HW156216   3.021   4.377   6.844 -1.6336 -0.1731  0.3365
48634SOL    HW256217   3.000   4.234   6.888  1.1303 -0.4999  0.7634
48635SOL     OW56218  12.149   9.214   1.445 -0.4843 -0.3443 -0.5704
48635SOL    HW156219  12.133   9.235   1.537  0.5304 -1.4507 -0.1251
48635SOL    HW256220  12.142   9.118   1.441 -1.5083 -0.2476 -1.8551
48636SOL     OW56221   0.414   3.802   3.207  0.3333 -0.3817 -0.1051
48636SOL    HW156222   0.369   3.775   3.127  0.6861  1.6104 -1.0210
48636SOL    HW256223   0.392   3.895   3.218  0.5908 -0.5010  1.9266
48637SOL     OW56224   0.864   2.883   4.471  0.0797  0.1436 -0.6963
48637SOL    HW156225   0.957   2.880   4.453  0.6507  3.6628  0.7634
48637SOL    HW256226   0.858   2.906   4.564 -2.2154  0.4336 -0.8474
48638SOL     OW56227   0.870   6.334  12.096 -0.2477  0.1636  0.2801
48638SOL    HW156228   0.930   6.359  12.026  1.3228 -1.3663  1.0098
48638SOL    HW256229   0.845   6.244  12.076  1.0743 -0.6911  2.1650
48639SOL     OW56230   9.024   2.636   6.338 -0.4282  0.4098 -0.6459
48639SOL    HW156231   8.955   2.648   6.273 -0.4643  0.2407 -0.6389
48639SOL    HW256232   9.015   2.545   6.366 -1.4660  0.9231  0.7970
48640SOL     OW56233   7.378   4.622   6.839 -0.4787 -0.6867  0.4578
48640SOL    HW156234   7.399   4.704   6.885 -0.7529  0.2669 -1.0485
48640SOL    HW256235   7.292   4.597   6.873 -1.1475  0.5685 -0.2400
48641SOL     OW56236   7.089   7.360  10.375  0.1525  0.2179 -0.0175
48641SOL    HW156237   7.135   7.285  10.338  0.8584  0.8208 -0.4055
48641SOL    HW256238   7.036   7.395  10.303 -0.4625 -0.1268  0.2655
48642SOL     OW56239   7.836   1.411   3.118  0.5285 -0.0490 -0.5785
48642SOL    HW156240   7.780   1.471   3.070  2.2158  1.4231 -0.7977
48642SOL    HW256241   7.866   1.461   3.194  1.4977 -0.8076 -0.4320
48643SOL     OW56242  10.222   3.177   8.580 -0.0708 -0.9315  0.7942
48643SOL    HW156243  10.162   3.240   8.539  0.0417 -0.9333  0.6243
48643SOL    HW256244  10.203   3.184   8.674  0.3671 -0.1953  0.8383
48644SOL     OW56245   0.548   0.202  11.337  0.4051 -0.0625 -0.6246
48644SOL    HW156246   0.557   0.197  11.432 -0.6946  0.2499 -0.4892
48644SOL    HW256247   0.620   0.258  11.309 -1.6986  3.6415  0.5457
48645SOL     OW56248   7.919   9.440   3.824  0.2821  0.5887  0.2730
48645SOL    HW156249   7.896   9.532   3.813 -1.6697 -0.0693 -2.0361
48645SOL    HW256250   7.913   9.403   3.736  1.0200 -1.7711  1.1346
48646SOL     OW56251   2.413   6.707   9.428 -0.1045  0.2015 -0.3704
48646SOL    HW156252   2.349   6.771   9.456 -0.6736 -0.2556 -0.6185
48646SOL    HW256253   2.493   6.758   9.414 -0.6294  0.8992 -0.8703
48647SOL     OW56254   4.717   8.236  11.892  0.1677  0.7205  0.0895
48647SOL    HW156255   4.654   8.307  11.905 -0.9088 -0.2985  0.6228
48647SOL    HW256256   4.753   8.252  11.805 -0.8219  1.3316 -0.2224
48648SOL     OW56257   8.312   8.187   6.358 -0.0785  0.5375  0.1744
48648SOL    HW156258   8.305   8.098   6.390  0.2540  0.9805  1.5263
48648SOL    HW256259   8.390   8.187   6.302  0.5364  0.2253  1.0192
48649SOL     OW56260   2.114   6.721   4.919  0.3866  0.2380  0.1338
48649SOL    HW156261   2.054   6.743   4.847  0.2213 -1.0407 -0.1458
48649SOL    HW256262   2.124   6.802   4.968 -1.3550  0.5558  0.0224
48650SOL     OW56263   2.606   0.310   1.867  0.8117 -0.0549 -0.0349
48650SOL    HW156264   2.653   0.241   1.914  0.7408 -0.0647  0.0214
48650SOL    HW256265   2.670   0.344   1.804  0.1641 -1.7462 -1.6994
48651SOL     OW56266   1.333   1.824   8.873  0.8372  0.0896  0.4718
48651SOL    HW156267   1.345   1.897   8.934 -2.1197  0.2191  1.0367
48651SOL    HW256268   1.253   1.846   8.825  1.2504 -1.6376 -1.1125
48652SOL     OW56269  11.610  11.951  12.403 -0.1705  0.2418 -0.4701
48652SOL    HW156270  11.646  11.940  12.491  1.0121 -0.6630 -1.0427
48652SOL    HW256271  11.608  11.863  12.367  1.1113  0.7901 -1.9959
48653SOL     OW56272   6.815   0.821   9.009 -0.1428  0.1955 -0.6761
48653SOL    HW156273   6.894   0.835   8.956  0.0520 -1.1029 -0.7794
48653SOL    HW256274   6.848   0.817   9.099 -0.2374  0.7176 -0.6193
48654SOL     OW56275   7.699   4.160   4.627  0.2068  0.0897  0.3298
48654SOL    HW156276   7.736   4.223   4.566  0.0705 -0.1300  0.0188
48654SOL    HW256277   7.609   4.189   4.641  0.6224  0.9057  1.4640
48655SOL     OW56278   7.881   0.740   8.586 -0.3674  0.5905 -0.2552
48655SOL    HW156279   7.901   0.672   8.650 -2.0348  0.6006  0.3244
48655SOL    HW256280   7.964   0.755   8.540  0.3744 -0.8105  0.5611
48656SOL     OW56281   2.603   5.290   9.001  0.0404 -0.5122  0.2316
48656SOL    HW156282   2.595   5.305   9.095 -2.0226 -2.6221  0.5117
48656SOL    HW256283   2.690   5.253   8.990 -0.4538 -2.3004  1.7210
48657SOL     OW56284   4.641   6.141   7.946  0.3231 -0.2104  0.1979
48657SOL    HW156285   4.610   6.209   7.887  1.6470  0.6018  0.3962
48657SOL    HW256286   4.735   6.156   7.954  1.0241 -3.1232 -1.0962
48658SOL     OW56287   3.452   5.546   1.466  0.0124  0.3091  0.7145
48658SOL    HW156288   3.410   5.588   1.391  0.0945  0.9354  1.0155
48658SOL    HW256289   3.487   5.464   1.431  0.0817  0.6139  0.0644
48659SOL     OW56290  11.482  11.217   3.529 -0.2139  0.2252 -0.4348
48659SOL    HW156291  11.437  11.302   3.535  0.3236  0.4516  0.4937
48659SOL    HW256292  11.461  11.186   3.441  0.0426  1.5870 -1.0104
48660SOL     OW56293   8.139  12.138   2.569 -0.1287 -0.3559 -0.9800
48660SOL    HW156294   8.140  12.045   2.546  1.0116 -0.8098  0.7835
48660SOL    HW256295   8.231  12.165   2.564 -0.4671  0.7555 -1.6602
48661SOL     OW56296   9.390  11.402  12.139 -0.1512 -0.2275 -0.5191
48661SOL    HW156297   9.325  11.332  12.150  2.6053 -3.0326 -0.7172
48661SOL    HW256298   9.449  11.392  12.214  2.0786 -0.2289 -2.1859
48662SOL     OW56299   0.488  12.583  10.865 -0.1851 -0.3079  0.6161
48662SOL    HW156300   0.535  12.664  10.886 -0.8354  0.1112  0.4766
48662SOL    HW256301   0.420  12.577  10.932 -0.8798 -0.1176 -0.0570
48663SOL     OW56302  10.633   8.718  11.168 -0.0936 -0.2106 -0.0073
48663SOL    HW156303  10.546   8.690  11.140 -0.3780  1.7275 -1.3031
48663SOL    HW256304  10.689   8.702  11.092  0.6329 -1.1444  0.7062
48664SOL     OW56305  12.624   7.777  11.578  0.2303 -0.8598 -0.1542
48664SOL    HW156306  12.684   7.787  11.503  0.6112  0.8497  0.3268
48664SOL    HW256307  12.537   7.781  11.539  0.4249 -0.0564 -0.5474
48665SOL     OW56308   0.498   9.338   3.465 -0.2987 -0.2090  0.4844
48665SOL    HW156309   0.438   9.275   3.505 -0.0598  0.3719  1.8043
48665SOL    HW256310   0.569   9.346   3.528  0.7121 -0.1687 -0.6223
48666SOL     OW56311   4.136   1.820   0.242 -0.0990 -0.2069 -0.1047
48666SOL    HW156312   4.134   1.836   0.148 -1.9213  1.6098  0.1667
48666SOL    HW256313   4.208   1.758   0.254  1.0930  0.5678 -2.5120
48667SOL     OW56314   9.764   9.294   0.199  0.8857  0.1600  0.2093
48667SOL    HW156315   9.687   9.246   0.228  1.3996 -0.7772  0.0462
48667SOL    HW256316   9.836   9.255   0.248  1.3978  0.3293 -0.4040
48668SOL     OW56317   8.489   5.187   8.238  0.0437 -0.3504 -0.1754
48668SOL    HW156318   8.514   5.226   8.322 -1.4725 -0.8376  0.5267
48668SOL    HW256319   8.422   5.245   8.203  0.6796 -0.1401 -1.0843
48669SOL     OW56320   3.648   1.234   8.754 -0.2778 -0.2358 -0.0600
48669SOL    HW156321   3.627   1.319   8.792  0.7758  0.4961 -1.0392
48669SOL    HW256322   3.607   1.170   8.812  1.2267  0.8215  2.3158
48670SOL     OW56323   6.925   0.323   6.149 -0.1299 -0.2325 -0.0229
48670SOL    HW156324   6.968   0.286   6.072 -0.3507 -1.2652  0.3378
48670SOL    HW256325   6.933   0.255   6.216  0.7686  0.9433  1.1329
48671SOL     OW56326   0.172   2.104   8.310  0.2763  0.9648  0.3732
48671SOL    HW156327   0.199   2.078   8.222 -0.5444  1.1391  0.0569
48671SOL    HW256328   0.238   2.167   8.337 -0.2843  2.1129 -0.7742
48672SOL     OW56329  10.239   5.711   9.136  0.1562 -0.6079  0.1490
48672SOL    HW156330  10.233   5.731   9.230  0.5421 -1.7183  0.4315
48672SOL    HW256331  10.333   5.708   9.119  0.1065  1.7401 -0.7866
48673SOL     OW56332   9.711   4.902   1.363  0.4649 -0.6334 -0.5879
48673SOL    HW156333   9.643   4.925   1.301  0.7499 -1.0350 -1.0541
48673SOL    HW256334   9.669   4.840   1.423 -0.4156  1.3081  0.9078
48674SOL     OW56335   6.009   8.870  10.574 -0.3763  0.3218  0.2676
48674SOL    HW156336   6.094   8.867  10.531 -1.3033 -2.1307 -1.6368
48674SOL    HW256337   6.029   8.888  10.666  2.1952 -0.4328 -0.0713
48675SOL     OW56338   1.529   9.686  11.384  0.3541 -0.4952  0.4791
48675SOL    HW156339   1.532   9.780  11.367  1.3945 -0.1837  2.1967
48675SOL    HW256340   1.620   9.658  11.380  0.0919 -1.3773  0.3714
48676SOL     OW56341   5.984   0.816   3.128  0.4227 -0.4696 -0.7744
48676SOL    HW156342   5.922   0.880   3.165  0.2444 -1.0246 -0.0933
48676SOL    HW256343   5.977   0.740   3.186  0.7871 -1.0311 -1.4531
48677SOL     OW56344   0.904   7.731   5.909  0.2620  0.1471 -0.1442
48677SOL    HW156345   0.998   7.714   5.909 -0.0333 -1.7771 -0.4586
48677SOL    HW256346   0.895   7.817   5.869  1.8081 -0.3668 -1.7267
48678SOL     OW56347   3.426   3.016   1.410 -0.0794  0.4219  0.3469
48678SOL    HW156348   3.502   2.961   1.389  0.3574  1.2215 -0.2108
48678SOL    HW256349   3.455   3.105   1.392 -1.3272  0.6963 -0.3962
48679SOL     OW56350   6.552   3.263   3.781 -0.4150  0.0687  0.3418
48679SOL    HW156351   6.566   3.333   3.844  0.1477 -1.0416  1.4981
48679SOL    HW256352   6.520   3.307   3.702  0.4373  1.6613  0.8521
48680SOL     OW56353   8.665   4.705   1.246 -0.2156 -0.1622  0.0662
48680SOL    HW156354   8.613   4.625   1.242  0.4624 -0.6401  0.6015
48680SOL    HW256355   8.676   4.721   1.339 -0.5185  0.6845 -0.0322
48681SOL     OW56356   3.386   8.255   8.422  0.3295  0.1292  0.2101
48681SOL    HW156357   3.445   8.280   8.351 -0.8201 -0.4098 -0.9800
48681SOL    HW256358   3.380   8.160   8.415 -1.5299  0.2627 -0.4175
48682SOL     OW56359   2.253   4.556  10.274 -0.3959 -0.0834  0.3161
48682SOL    HW156360   2.230   4.648  10.282  0.2444  0.5307 -3.1002
48682SOL    HW256361   2.346   4.552  10.293 -0.1998  0.2168 -0.5132
48683SOL     OW56362   0.187  10.648   4.294  0.5381 -0.1985  0.7423
48683SOL    HW156363   0.145  10.647   4.380  1.2174 -0.7952  1.0849
48683SOL    HW256364   0.197  10.741   4.274 -0.4529 -0.0540  0.8882
48684SOL     OW56365   0.611   0.006   6.970  0.2164 -0.4368 -0.0455
48684SOL    HW156366   0.699  -0.010   7.006  0.7193  0.9302 -0.5885
48684SOL    HW256367   0.558   0.031   7.046  0.6643  0.1312  0.0841
48685SOL     OW56368   2.244   7.131   2.475 -0.1147  0.3049 -0.2386
48685SOL    HW156369   2.238   7.072   2.550  0.5721 -1.1835 -1.3210
48685SOL    HW256370   2.333   7.165   2.478  0.7864 -1.7176 -1.7408
48686SOL     OW56371   2.706   4.083   2.004  0.1828  0.2901 -0.4815
48686SOL    HW156372   2.612   4.066   2.010  0.3394 -0.6202 -0.5032
48686SOL    HW256373   2.716   4.137   1.925 -0.3484  0.6460 -0.3091
48687SOL     OW56374   2.365   2.273   3.038  0.3468  0.1381  0.5624
48687SOL    HW156375   2.279   2.290   2.999  0.8303 -0.0868 -0.6360
48687SOL    HW256376   2.408   2.214   2.977  2.1009  1.7948  0.1240
48688SOL     OW56377   0.455   3.197   7.502 -0.8280  0.1196  0.4638
48688SOL    HW156378   0.444   3.145   7.582 -1.9214 -0.7524 -0.2121
48688SOL    HW256379   0.371   3.187   7.456 -0.1320  0.3791 -0.9015
48689SOL     OW56380  10.036   0.931   6.059 -0.2177 -0.0227  0.9706
48689SOL    HW156381  10.122   0.953   6.097  1.5547 -0.8685 -2.1794
48689SOL    HW256382  10.008   0.854   6.108  1.8729 -1.0073  0.7403
48690SOL     OW56383   0.695  12.696   2.237  0.2241  0.4905 -0.6279
48690SOL    HW156384   0.705  12.687   2.332 -0.8097  0.5285 -0.5063
48690SOL    HW256385   0.677  12.606   2.207  0.7136  0.4513 -0.8139
48691SOL     OW56386   1.126   1.014  12.034 -0.3961  0.4264  0.1615
48691SOL    HW156387   1.146   1.004  12.127 -1.1027 -1.5057  0.1563
48691SOL    HW256388   1.063   1.086  12.030 -1.7116 -0.6064  1.4084
48692SOL     OW56389   8.323   7.043   3.539  0.3674  0.1173  0.2504
48692SOL    HW156390   8.317   7.079   3.627  2.3672  0.6250  0.2461
48692SOL    HW256391   8.281   6.957   3.544 -0.8803  0.7606  1.2972
48693SOL     OW56392   0.287   6.631  10.836  0.4785 -0.0166  0.3078
48693SOL    HW156393   0.269   6.538  10.821 -0.7124  0.5356 -2.2526
48693SOL    HW256394   0.381   6.636  10.848  0.8273 -1.3712 -1.4557
48694SOL     OW56395   9.405  12.428   6.141  0.3960  0.4382  0.1970
48694SOL    HW156396   9.424  12.521   6.153  0.7452  0.4589 -0.4370
48694SOL    HW256397   9.386  12.420   6.047  0.6319 -0.1738  0.1969
48695SOL     OW56398   0.255   6.250   0.123  0.2977  0.1479  0.0757
48695SOL    HW156399   0.224   6.302   0.048  0.8765 -2.4368 -2.1240
48695SOL    HW256400   0.345   6.278   0.136  0.1691  0.6821 -0.1384
48696SOL     OW56401  11.141  11.896   8.211 -0.3968  0.3989 -0.4114
48696SOL    HW156402  11.051  11.928   8.219 -0.4311  0.6013 -1.4457
48696SOL    HW256403  11.163  11.911   8.120  0.1153 -1.1777 -0.5792
48697SOL     OW56404  11.141   4.949   3.336 -0.0964 -0.0318  0.0720
48697SOL    HW156405  11.113   5.041   3.335 -0.3548 -0.0943  0.7644
48697SOL    HW256406  11.223   4.950   3.384 -0.3378 -0.2242  0.4926
48698SOL     OW56407   0.870   8.224   4.895 -0.1802  0.4011  0.0241
48698SOL    HW156408   0.959   8.257   4.885  0.3589 -1.4539 -2.5859
48698SOL    HW256409   0.878   8.130   4.880 -2.2052 -0.3398  2.7882
48699SOL     OW56410   4.804  11.833   5.579 -0.1936 -0.2388 -0.0226
48699SOL    HW156411   4.769  11.894   5.514  1.1310 -1.6862 -2.2093
48699SOL    HW256412   4.891  11.868   5.601  0.1201 -0.7478 -0.4484
48700SOL     OW56413   2.686  10.450   7.962 -0.1178 -0.2202 -0.1320
48700SOL    HW156414   2.762  10.498   7.929  0.0092 -0.6802 -0.5139
48700SOL    HW256415   2.646  10.509   8.026 -0.3196  0.6514 -1.0421
48701SOL     OW56416  12.955   9.611  12.180 -0.0248  0.0881  0.5534
48701SOL    HW156417  13.050   9.597  12.175  0.1775  1.7774 -1.9094
48701SOL    HW256418  12.946   9.701  12.213 -0.6282  0.9046 -1.6869
48702SOL     OW56419   3.531   5.622   3.206 -0.3577  0.7261 -0.0579
48702SOL    HW156420   3.510   5.572   3.285  0.5730  0.4892  0.0520
48702SOL    HW256421   3.576   5.559   3.149 -0.8596  0.9456 -0.7072
48703SOL     OW56422   6.511   5.252  11.948 -0.5665  0.1423  0.0183
48703SOL    HW156423   6.577   5.303  11.996 -0.5026 -0.0327  0.1207
48703SOL    HW256424   6.541   5.161  11.957 -0.4020  0.1362 -0.5951
48704SOL     OW56425  12.381   6.968   5.411 -0.1484  0.3603 -0.1545
48704SOL    HW156426  12.287   6.985   5.409 -0.2321 -0.1653 -2.0566
48704SOL    HW256427  12.393   6.886   5.363  1.3686  0.9275 -0.8200
48705SOL     OW56428   6.382   2.816   5.100 -0.0052 -0.0066 -0.0543
48705SOL    HW156429   6.456   2.764   5.070 -0.3600 -0.5667  0.0274
48705SOL    HW256430   6.331   2.834   5.021 -1.7041 -2.6847  0.3157
48706SOL     OW56431   8.657   9.754   8.431 -0.4171 -0.1206 -0.6764
48706SOL    HW156432   8.566   9.784   8.432 -0.2874  0.2730 -0.1197
48706SOL    HW256433   8.658   9.681   8.369 -0.8270  0.7434 -1.7308
48707SOL     OW56434   7.607   3.269   6.670  0.3969 -0.4516 -0.8825
48707SOL    HW156435   7.522   3.300   6.701  0.5161  0.0205 -1.0210
48707SOL    HW256436   7.645   3.344   6.625  1.1661 -0.4493 -0.2489
48708SOL     OW56437  10.968   7.885   8.928 -0.5945  0.4303 -0.1014
48708SOL    HW156438  10.987   7.807   8.980 -2.1356  0.8772  1.2426
48708SOL    HW256439  11.014   7.872   8.846 -0.6359 -1.7885  0.1797
48709SOL     OW56440   3.589   1.965   0.214 -0.6148  0.2494 -0.1508
48709SOL    HW156441   3.570   2.034   0.149  0.5362  2.3141  1.5690
48709SOL    HW256442   3.506   1.950   0.257 -0.9618  0.2987 -0.7854
48710SOL     OW56443   6.352   8.337   9.740 -0.0946  0.2728  0.5250
48710SOL    HW156444   6.326   8.272   9.674 -1.2998  0.5519  0.6868
48710SOL    HW256445   6.343   8.291   9.823 -0.4423  0.4804  0.6049
48711SOL     OW56446   5.212  10.329   0.673  0.1164 -0.2783 -0.4807
48711SOL    HW156447   5.208  10.336   0.578 -1.5238 -0.2028 -0.4293
48711SOL    HW256448   5.139  10.383   0.705  0.8477 -0.0177  0.8379
48712SOL     OW56449  11.184   9.155   1.473 -0.2563  0.0695  0.6833
48712SOL    HW156450  11.142   9.077   1.435  1.1748 -0.4662  0.1386
48712SOL    HW256451  11.134   9.172   1.552 -0.7549 -1.2730  0.6920
48713SOL     OW56452   8.211   9.760   3.801  0.0652  0.3743  0.2300
48713SOL    HW156453   8.198   9.844   3.846 -0.1832  1.2566 -1.4248
48713SOL    HW256454   8.123   9.721   3.799  0.0599  0.3729  0.4231
48714SOL     OW56455   7.221  11.880  11.795  0.0090  0.5519 -0.0950
48714SOL    HW156456   7.262  11.933  11.727  0.1635 -0.7171 -1.0197
48714SOL    HW256457   7.185  11.804  11.748 -0.5592  0.0313  1.1357
48715SOL     OW56458  10.278  10.396   1.215  0.4405  0.0387 -0.1650
48715SOL    HW156459  10.218  10.452   1.167  1.8029  0.4505 -1.4807
48715SOL    HW256460  10.297  10.324   1.155  0.4422 -0.6448  0.6428
48716SOL     OW56461   1.572   4.155   7.280  0.2055 -0.3848 -0.4315
48716SOL    HW156462   1.531   4.217   7.340 -1.4014 -0.5751 -1.2847
48716SOL    HW256463   1.566   4.070   7.325  0.6358 -0.2499 -0.1087
48717SOL     OW56464   9.155   7.647   4.193  0.0900 -0.1613 -0.6714
48717SOL    HW156465   9.149   7.571   4.136 -0.9427  1.4109 -2.8011
48717SOL    HW256466   9.120   7.719   4.141  1.4988  1.8991  1.0529
48718SOL     OW56467  10.470   6.735   2.086  0.1951  0.3575 -0.5333
48718SOL    HW156468  10.455   6.677   2.011  1.8000  0.0762 -0.6756
48718SOL    HW256469  10.527   6.804   2.051  0.1160  0.7954  0.1870
48719SOL     OW56470   2.908   6.922   6.344 -0.3820  0.1874 -0.0408
48719SOL    HW156471   2.936   6.835   6.374 -0.1683  0.3501  0.2350
48719SOL    HW256472   2.957   6.937   6.264  0.8320  0.7465  0.7787
48720SOL     OW56473  10.541   4.607   4.887  0.2650 -0.5834 -0.0036
48720SOL    HW156474  10.559   4.514   4.883 -0.7267 -0.8546  1.2071
48720SOL    HW256475  10.488   4.618   4.966 -1.1686  0.7438 -1.0689
48721SOL     OW56476   0.310   8.335   0.384  0.5539  0.2197  0.2810
48721SOL    HW156477   0.257   8.292   0.318  2.5883  0.4923 -1.6383
48721SOL    HW256478   0.387   8.279   0.394  0.9387  0.9058  1.4060
48722SOL     OW56479   6.398  12.683  11.579 -0.1952 -0.4311  0.3122
48722SOL    HW156480   6.372  12.720  11.664 -1.3487  0.8274 -0.5302
48722SOL    HW256481   6.316  12.652  11.541  0.4215 -1.6488 -0.0537
48723SOL     OW56482   0.720  12.220   7.653  0.1692 -0.4435 -0.4275
48723SOL    HW156483   0.793  12.255   7.705  0.9297 -1.1713 -0.9648
48723SOL    HW256484   0.750  12.227   7.562 -0.6427 -0.3085 -0.6964
48724SOL     OW56485  10.702   9.673  11.338  0.1120  0.5520 -0.2355
48724SOL    HW156486  10.720   9.579  11.339  0.0817  0.5267 -1.2172
48724SOL    HW256487  10.786   9.715  11.355  0.0036  0.3545  0.9004
48725SOL     OW56488   9.171  12.253   0.291 -0.4029 -0.1592 -0.3812
48725SOL    HW156489   9.121  12.283   0.215  0.9482  1.0176 -0.8532
48725SOL    HW256490   9.107  12.245   0.361 -1.0909  2.9330 -0.4916
48726SOL     OW56491   2.002   3.144   6.275 -0.0867  0.0216 -0.1648
48726SOL    HW156492   2.033   3.234   6.285 -1.3828  0.3751  0.9209
48726SOL    HW256493   1.989   3.113   6.364 -1.7027 -0.4947 -0.5457
48727SOL     OW56494  11.191  12.805   0.776  0.0421  0.2582  0.7095
48727SOL    HW156495  11.163  12.717   0.799 -0.5402  0.9715  2.9256
48727SOL    HW256496  11.200  12.850   0.860  2.2962  1.7388 -0.2336
48728SOL     OW56497   2.957  11.503   8.330 -0.8097 -0.5078  0.2212
48728SOL    HW156498   3.017  11.442   8.286  0.4461  1.1914 -0.5390
48728SOL    HW256499   2.905  11.447   8.388  1.6593 -2.0506  1.1063
48729SOL     OW56500   0.270   3.041  12.260  0.1963  0.0156  0.4010
48729SOL    HW156501   0.192   3.026  12.206  0.5141  1.5666 -0.5754
48729SOL    HW256502   0.236   3.084  12.339 -0.0563 -0.3016  0.4669
48730SOL     OW56503   1.165   9.056   6.628  0.0832  0.0097 -0.3585
48730SOL    HW156504   1.147   9.077   6.536 -1.1253 -0.1801 -0.1747
48730SOL    HW256505   1.210   9.133   6.661  1.4934 -0.3351 -1.3696
48731SOL     OW56506  12.811   6.882  11.933  0.1710 -0.5725  0.5282
48731SOL    HW156507  12.732   6.870  11.986  0.2350 -1.2807  0.4713
48731SOL    HW256508  12.786   6.948  11.868 -0.2874 -0.5886  0.6830
48732SOL     OW56509   6.022   2.543   9.667 -0.1413  0.8290 -0.2664
48732SOL    HW156510   6.017   2.637   9.680 -0.0194  0.8304 -0.2330
48732SOL    HW256511   6.072   2.533   9.585  1.4647  0.7424  0.6828
48733SOL     OW56512   9.745   2.535  12.824  0.4269  0.3602  0.6073
48733SOL    HW156513   9.655   2.508  12.804  0.0056  2.6696 -0.9685
48733SOL    HW256514   9.799   2.465  12.787 -0.6733 -0.2435  0.0782
48734SOL     OW56515  10.357   3.618   0.371  0.4309 -0.0945  0.5625
48734SOL    HW156516  10.381   3.580   0.287 -0.4246 -0.4352  0.4577
48734SOL    HW256517  10.280   3.568   0.399 -0.2616  1.0482  0.7881
48735SOL     OW56518   5.184   4.450   4.570 -0.3002 -0.0058 -0.3530
48735SOL    HW156519   5.100   4.405   4.578 -0.6632  0.6443 -0.4344
48735SOL    HW256520   5.236   4.394   4.512 -0.2258 -1.0420  0.6726
48736SOL     OW56521  10.651  10.606   6.415 -0.7694 -0.8409  0.4422
48736SOL    HW156522  10.725  10.647   6.372 -1.8154 -0.9929 -1.5996
48736SOL    HW256523  10.587  10.677   6.426 -1.1539 -1.1500  0.2243
48737SOL     OW56524   0.656  11.874   6.761 -0.5543 -0.2414  0.8735
48737SOL    HW156525   0.623  11.831   6.682 -0.5041  1.0062  0.1463
48737SOL    HW256526   0.577  11.907   6.804 -0.4098  2.9641 -0.9954
48738SOL     OW56527   6.008  10.203   0.361  0.1828  0.2176 -0.1113
48738SOL    HW156528   5.989  10.175   0.271  0.3854  1.0515 -0.4218
48738SOL    HW256529   6.101  10.225   0.360  0.3748 -0.5158  0.5095
48739SOL     OW56530   0.735  11.258   3.049  0.1142  0.0150 -0.2498
48739SOL    HW156531   0.752  11.289   2.960  1.9457  0.0614  0.0831
48739SOL    HW256532   0.749  11.335   3.104 -3.8050  0.8042 -0.0313
48740SOL     OW56533   4.531  10.909   3.566 -0.1777  0.1365 -0.3874
48740SOL    HW156534   4.604  10.847   3.572  0.1983  0.1365 -3.4343
48740SOL    HW256535   4.453  10.854   3.577  0.1677  0.0360  2.1926
48741SOL     OW56536   3.702   0.797   3.826  0.1961  0.3338  0.1823
48741SOL    HW156537   3.611   0.788   3.854 -0.2011 -0.1425 -1.1784
48741SOL    HW256538   3.748   0.725   3.871 -0.5236 -0.7415 -0.7672
48742SOL     OW56539  10.134  10.471   9.991 -0.3205 -0.0891 -0.1338
48742SOL    HW156540  10.200  10.402   9.985  0.1610  0.4279 -1.0246
48742SOL    HW256541  10.169  10.532  10.056 -0.2216 -0.1357 -0.1425
48743SOL     OW56542   9.649   6.548   1.093 -0.2969 -0.1025 -0.3207
48743SOL    HW156543   9.571   6.533   1.039 -1.2959  0.0242  1.0501
48743SOL    HW256544   9.676   6.461   1.121  0.4115 -0.1970 -1.2390
48744SOL     OW56545   1.107   9.134   7.201 -0.7145 -0.1802  0.0270
48744SOL    HW156546   1.202   9.144   7.198 -0.6470 -0.6986  0.3193
48744SOL    HW256547   1.078   9.154   7.111 -0.4007  0.5638  0.0806
48745SOL     OW56548   8.377   2.657  10.488 -0.4351 -0.3697 -0.3645
48745SOL    HW156549   8.455   2.642  10.541 -0.8448 -2.5986 -0.3283
48745SOL    HW256550   8.307   2.673  10.552 -0.0976  1.4972 -0.3953
48746SOL     OW56551   7.548   8.024  11.419  0.2556 -0.8031 -0.2910
48746SOL    HW156552   7.587   8.076  11.490 -2.8878  1.3248  0.1060
48746SOL    HW256553   7.507   7.950  11.464 -0.8846  0.0108  0.0657
48747SOL     OW56554   4.649   9.348   8.976  0.0132 -0.1711  0.5902
48747SOL    HW156555   4.654   9.442   8.997  0.2180  0.0088 -0.2224
48747SOL    HW256556   4.740   9.322   8.965 -0.0839 -0.2981  0.0933
48748SOL     OW56557   1.039   3.541   9.218  0.1957  0.1351  0.1339
48748SOL    HW156558   1.114   3.513   9.271  0.1369  1.3121  0.8654
48748SOL    HW256559   1.044   3.636   9.218 -0.9548  0.2085 -0.3286
48749SOL     OW56560   3.332   1.977   1.053  0.4511  0.1061 -0.2408
48749SOL    HW156561   3.383   1.981   0.972  0.7430 -1.0899 -0.1289
48749SOL    HW256562   3.393   2.006   1.121  0.5884 -0.0778 -0.2846
48750SOL     OW56563   2.096   9.852  12.515  0.1476 -0.0874 -0.7153
48750SOL    HW156564   2.168   9.790  12.524 -0.9054 -1.6076 -2.1632
48750SOL    HW256565   2.125   9.915  12.449  0.8412  0.4265  0.0622
48751SOL     OW56566  11.311   5.797  10.972 -0.2350  0.2559  0.1989
48751SOL    HW156567  11.258   5.720  10.995  0.2242 -0.1316 -0.0157
48751SOL    HW256568  11.248   5.858  10.933 -0.9632  0.7858  2.0793
48752SOL     OW56569   6.911   2.293   6.890 -0.9730  0.3384 -0.4009
48752SOL    HW156570   6.881   2.374   6.850 -1.0152  0.1717 -0.7049
48752SOL    HW256571   6.947   2.242   6.818 -0.7938  0.1553 -0.1834
48753SOL     OW56572   0.078   3.071   5.241  0.3147 -0.0520  0.5946
48753SOL    HW156573   0.115   3.124   5.171 -0.5456  1.4198  1.2148
48753SOL    HW256574  -0.013   3.055   5.213 -0.5313  1.9008  2.0558
48754SOL     OW56575   7.043  11.602   7.495 -0.0330  0.0283  0.9221
48754SOL    HW156576   7.039  11.616   7.590 -0.8918  0.9729  0.7714
48754SOL    HW256577   7.136  11.588   7.476  0.3765  1.5254  1.6977
48755SOL     OW56578   0.830  11.531  11.123  0.4890 -0.1431 -0.0831
48755SOL    HW156579   0.908  11.520  11.177  1.1026  1.1194 -0.6671
48755SOL    HW256580   0.789  11.611  11.156  0.9239  0.6997 -1.5253
48756SOL     OW56581   7.114  11.713   5.169  0.8037  0.3517 -0.5242
48756SOL    HW156582   7.052  11.694   5.239  1.0176  1.1056 -0.1246
48756SOL    HW256583   7.059  11.746   5.097  0.6528  0.2166 -0.4708
48757SOL     OW56584   2.431   6.393  11.378  0.4031 -0.3096  0.3152
48757SOL    HW156585   2.518   6.365  11.352  0.6579 -0.0886  0.9004
48757SOL    HW256586   2.418   6.477  11.334  0.3335 -0.5159 -0.0628
48758SOL     OW56587   5.065   2.252  12.543 -0.4793  0.5398  0.4478
48758SOL    HW156588   5.147   2.224  12.502  0.6486  0.7813  2.4077
48758SOL    HW256589   5.081   2.244  12.637 -2.9962 -0.1612  0.8963
48759SOL     OW56590   7.967   9.400  12.427 -0.4532 -0.0586 -0.5405
48759SOL    HW156591   7.876   9.428  12.431 -1.1931 -1.8361 -2.6854
48759SOL    HW256592   7.975   9.333  12.495 -1.1474 -0.7876 -1.1467
48760SOL     OW56593  12.242   1.589   1.357 -0.3662  0.1828  0.0629
48760SOL    HW156594  12.230   1.676   1.396 -1.1731 -0.7787  2.1409
48760SOL    HW256595  12.308   1.602   1.289 -1.6080  2.6853 -0.7797
48761SOL     OW56596   4.437  11.814   3.662 -0.0237 -0.0115 -0.0891
48761SOL    HW156597   4.516  11.775   3.698  0.1710  1.1766  0.8101
48761SOL    HW256598   4.421  11.765   3.581  1.7421 -0.1251 -0.4015
48762SOL     OW56599   0.763   9.636   3.041 -0.4273 -0.3208 -0.3857
48762SOL    HW156600   0.772   9.713   3.096 -0.2678  0.0898 -0.9736
48762SOL    HW256601   0.703   9.578   3.089  1.4710 -0.9917  1.3128
48763SOL     OW56602   7.216   9.633   2.935  0.0884  0.4549  0.1787
48763SOL    HW156603   7.241   9.621   3.026  0.1689  1.2209  0.2602
48763SOL    HW256604   7.213   9.727   2.923 -1.5787  0.3869 -0.1597
48764SOL     OW56605   9.441   4.366   1.910  0.8368 -0.7693  0.1769
48764SOL    HW156606   9.368   4.320   1.869  1.2348 -0.0298 -1.4131
48764SOL    HW256607   9.505   4.378   1.840  2.0693 -0.5181  1.2959
48765SOL     OW56608   7.336   0.475   7.774 -0.6433  0.5400  0.2902
48765SOL    HW156609   7.327   0.550   7.715 -0.3028 -0.7298 -1.4489
48765SOL    HW256610   7.427   0.446   7.762 -1.0780 -0.7896  0.1331
48766SOL     OW56611   3.664   1.741   8.366 -0.8389 -0.2939 -0.2201
48766SOL    HW156612   3.637   1.818   8.317  2.5387  1.0530 -0.2863
48766SOL    HW256613   3.739   1.706   8.318  1.4166 -0.0667  2.7967
48767SOL     OW56614  12.800  11.381   8.624 -0.3888  0.5307  0.7801
48767SOL    HW156615  12.811  11.344   8.537 -1.5482 -0.8393  1.1724
48767SOL    HW256616  12.743  11.456   8.612 -0.2531  0.5589  0.3098
48768SOL     OW56617   1.228   7.524  11.701 -0.1169 -0.4495 -0.2006
48768SOL    HW156618   1.299   7.587  11.690  0.5517 -0.9503  1.0396
48768SOL    HW256619   1.211   7.523  11.795 -3.4869  1.4698 -0.6321
48769SOL     OW56620   4.909   1.355   4.448  0.2266 -0.3946  0.1189
48769SOL    HW156621   4.971   1.401   4.391 -1.1278 -0.4893 -1.5329
48769SOL    HW256622   4.881   1.421   4.511  1.4435 -0.1638  0.4573
48770SOL     OW56623   1.171   4.303   2.818  0.8242 -0.1619 -0.2147
48770SOL    HW156624   1.186   4.279   2.910 -0.4094  0.1717  0.0954
48770SOL    HW256625   1.077   4.286   2.804  0.8761  0.3454 -1.2419
48771SOL     OW56626   0.932  10.713   1.603  0.1415  0.1365 -0.1674
48771SOL    HW156627   0.914  10.619   1.604  2.5838 -0.3923  0.5885
48771SOL    HW256628   0.928  10.737   1.511  1.9456 -1.2953 -0.6730
48772SOL     OW56629  12.253   8.546   0.091  0.0935 -0.3411 -0.6898
48772SOL    HW156630  12.336   8.553   0.139  0.2732  2.5267 -1.2012
48772SOL    HW256631  12.194   8.502   0.151  1.2515  0.0587  0.8050
48773SOL     OW56632   2.573   8.264   6.090  0.4693  0.4232 -0.0355
48773SOL    HW156633   2.590   8.170   6.091 -0.2919  0.2841  0.9372
48773SOL    HW256634   2.587   8.289   5.999  1.8813 -0.3940 -0.0717
48774SOL     OW56635   4.374  10.658   6.376  0.2344 -1.3153  0.0059
48774SOL    HW156636   4.415  10.628   6.457  1.1042 -1.3983 -0.4531
48774SOL    HW256637   4.424  10.735   6.351 -1.3581 -0.0306  0.6450
48775SOL     OW56638   7.373   0.937  10.074 -0.6089 -0.3986 -0.1732
48775SOL    HW156639   7.403   0.897   9.992  0.7943  2.1747 -1.0190
48775SOL    HW256640   7.290   0.978  10.052  0.3405  1.3326 -0.7259
48776SOL     OW56641   5.051   7.018   0.064 -0.3421  0.0529 -0.1645
48776SOL    HW156642   4.984   7.042  -0.000  0.4497 -2.7939 -2.2034
48776SOL    HW256643   5.002   6.984   0.139 -1.1997  0.0368 -0.7303
48777SOL     OW56644   3.698   3.080   2.962 -0.5507 -0.4534  0.0653
48777SOL    HW156645   3.668   2.991   2.943 -2.6762 -0.0233  1.0925
48777SOL    HW256646   3.713   3.080   3.057  0.3321  0.0462 -0.0694
48778SOL     OW56647   8.977   5.106   3.810  0.5349 -0.0609  0.0561
48778SOL    HW156648   8.891   5.092   3.849  0.4209  1.7391  0.5241
48778SOL    HW256649   9.037   5.057   3.866 -0.1480 -1.2240 -0.1982
48779SOL     OW56650   2.240   3.772   1.519 -0.4429 -0.1115  0.3121
48779SOL    HW156651   2.322   3.755   1.564 -0.6225  0.7466  0.9884
48779SOL    HW256652   2.184   3.698   1.541 -0.9819  0.9193  2.6199
48780SOL     OW56653   8.676  10.796   8.208 -0.1189 -0.1081  0.8205
48780SOL    HW156654   8.762  10.836   8.220 -0.2764 -0.0861  1.9606
48780SOL    HW256655   8.689  10.704   8.231 -0.4122 -0.0959  1.0368
48781SOL     OW56656   4.110  10.262  10.290  0.2549 -0.2578  0.5737
48781SOL    HW156657   4.184  10.313  10.258  1.0266 -1.0654  1.0227
48781SOL    HW256658   4.117  10.178  10.245 -1.0460  0.0268 -0.2146
48782SOL     OW56659  11.399  11.210   2.181 -0.3528  0.4673  0.0962
48782SOL    HW156660  11.450  11.130   2.173 -0.0726  0.5850  0.6650
48782SOL    HW256661  11.448  11.276   2.133 -1.5109 -0.0988 -2.0033
48783SOL     OW56662   3.654   9.377   0.670 -0.1285  0.1069  0.5588
48783SOL    HW156663   3.587   9.310   0.655  0.0698  0.1502 -0.5960
48783SOL    HW256664   3.630   9.416   0.754 -2.6300  1.3382 -0.6073
48784SOL     OW56665   9.936   2.187   7.635 -0.4533  0.1307  0.0461
48784SOL    HW156666   9.861   2.225   7.682 -0.2146  1.0912 -0.3185
48784SOL    HW256667   9.934   2.094   7.657 -2.7753 -0.2228 -1.2628
48785SOL     OW56668   9.504  10.918   9.951 -0.0402  0.5971 -0.2217
48785SOL    HW156669   9.550  10.970   9.885 -0.7768  2.1926  0.4686
48785SOL    HW256670   9.426  10.970   9.973 -1.6112 -1.4712 -0.5313
48786SOL     OW56671   5.042   2.506   6.693  0.0475  0.1163 -0.1014
48786SOL    HW156672   4.960   2.556   6.698 -0.5834 -0.9472  0.8276
48786SOL    HW256673   5.061   2.481   6.783  0.3804 -1.2222 -0.5072
48787SOL     OW56674   5.113  11.008  12.176 -0.0519  0.0984  0.1086
48787SOL    HW156675   5.157  10.955  12.109 -2.1226 -0.1010 -1.1682
48787SOL    HW256676   5.129  10.961  12.258  0.3367 -1.0911 -0.6244
48788SOL     OW56677  11.669  12.421   4.837  0.2141 -0.1143 -0.5436
48788SOL    HW156678  11.732  12.364   4.880 -0.8137 -0.5410  0.4676
48788SOL    HW256679  11.657  12.494   4.898  0.4772  0.4845 -1.1935
48789SOL     OW56680   7.843   1.186   0.170 -0.4004 -0.7226 -0.6124
48789SOL    HW156681   7.900   1.109   0.166 -1.7911 -1.8787  0.5799
48789SOL    HW256682   7.837   1.207   0.263 -0.9364  0.1239 -0.8299
48790SOL     OW56683   9.937   2.302   5.169 -0.7910  0.5280 -0.0090
48790SOL    HW156684   9.956   2.208   5.173 -0.6113  0.5274 -0.7597
48790SOL    HW256685   9.943   2.324   5.076 -0.8423  1.2830  0.1591
48791SOL     OW56686   0.864   3.598   0.862 -0.7555 -0.4173  0.3761
48791SOL    HW156687   0.888   3.626   0.774  0.6438 -1.7119  0.2956
48791SOL    HW256688   0.781   3.553   0.852 -0.7906 -0.2284 -0.2052
48792SOL     OW56689   4.038   5.303   7.550 -0.3402  0.0833 -0.1501
48792SOL    HW156690   3.968   5.277   7.491  0.0022  0.1070 -0.5761
48792SOL    HW256691   4.008   5.275   7.636  0.2453 -2.3110 -0.6284
48793SOL     OW56692   1.738   9.494   3.971 -0.1797  0.4938 -0.1603
48793SOL    HW156693   1.743   9.545   4.052  0.5950  0.1809 -0.0071
48793SOL    HW256694   1.731   9.559   3.902 -0.6113  0.7711  0.1389
48794SOL     OW56695   8.655   0.907   8.069  0.2696  0.0908  0.0270
48794SOL    HW156696   8.664   0.956   7.987  1.2545 -2.4076 -1.4974
48794SOL    HW256697   8.702   0.825   8.053 -1.8893 -1.7086  2.0832
48795SOL     OW56698   4.912   4.577   9.527  0.4032 -0.1993  0.0687
48795SOL    HW156699   4.971   4.630   9.474 -0.5621  2.9356  1.8798
48795SOL    HW256700   4.825   4.614   9.511 -0.4113 -1.5404  1.1276
48796SOL     OW56701   4.964  12.722   1.459  0.5523 -0.3089 -0.3077
48796SOL    HW156702   4.906  12.666   1.407 -0.1665  0.5160 -0.4047
48796SOL    HW256703   5.050  12.714   1.416  0.5541 -1.6088 -0.1063
48797SOL     OW56704   3.644  10.559   4.062  0.0285  0.0778 -0.0615
48797SOL    HW156705   3.567  10.565   4.119 -1.2763 -0.1452 -1.7175
48797SOL    HW256706   3.717  10.543   4.122 -1.2277  0.1270  1.5542
48798SOL     OW56707   9.278  11.289   0.990  0.1676 -0.0179  0.1917
48798SOL    HW156708   9.222  11.241   1.052 -1.6385 -0.3031 -1.5455
48798SOL    HW256709   9.227  11.291   0.909  2.1733  0.8784 -1.1205
48799SOL     OW56710   8.857   0.291  12.073  0.1965 -0.6578  0.0374
48799SOL    HW156711   8.836   0.373  12.116  0.3835 -1.5867  1.9871
48799SOL    HW256712   8.781   0.272  12.018  0.6256  1.3403 -1.3489
48800SOL     OW56713  11.150   6.657  11.460 -0.0334 -0.1477 -0.0615
48800SOL    HW156714  11.078   6.641  11.521  0.2612 -0.4435  0.2080
48800SOL    HW256715  11.151   6.580  11.403 -0.0523 -0.0554 -0.1851
48801SOL     OW56716  11.859   2.743   9.510  0.1575 -0.1178 -0.0360
48801SOL    HW156717  11.842   2.741   9.416  1.3684 -0.1547 -0.2668
48801SOL    HW256718  11.829   2.829   9.538  0.3583  0.1308 -0.5736
48802SOL     OW56719   2.808  12.147   0.253  0.5770 -0.3687 -0.2649
48802SOL    HW156720   2.767  12.095   0.183  0.8482 -0.5091 -0.3221
48802SOL    HW256721   2.794  12.238   0.226 -1.9969 -0.2941  1.0048
48803SOL     OW56722   5.400  10.455   3.998  0.0667 -0.2837 -0.0601
48803SOL    HW156723   5.352  10.396   3.941 -2.0935  1.3125 -0.0252
48803SOL    HW256724   5.363  10.542   3.979  2.8763  1.0609  0.0909
48804SOL     OW56725   2.085   1.081   0.904  0.0626 -0.3725 -0.1274
48804SOL    HW156726   2.048   1.001   0.865 -0.1943  0.2318 -1.1560
48804SOL    HW256727   2.011   1.141   0.912  0.6950  0.7071 -1.8332
48805SOL     OW56728   1.286   0.740   3.622  0.5653 -1.0342 -0.5508
48805SOL    HW156729   1.374   0.738   3.585  0.5278 -0.0267 -0.7198
48805SOL    HW256730   1.229   0.713   3.550  0.8251 -3.0284 -0.0666
48806SOL     OW56731  10.162   0.057   3.030 -0.0325  0.0485 -0.0141
48806SOL    HW156732  10.233  -0.007   3.024  0.1418  0.2789 -0.3969
48806SOL    HW256733  10.148   0.067   3.125 -1.1585 -1.7507  0.0599
48807SOL     OW56734   3.845  12.516   3.412 -0.2600  0.2365 -0.2808
48807SOL    HW156735   3.875  12.450   3.474  0.1702  1.5926  0.9933
48807SOL    HW256736   3.763  12.548   3.450  0.3264  1.5180 -0.0522
48808SOL     OW56737   5.366  12.091   9.526  0.1434 -0.2333 -0.1234
48808SOL    HW156738   5.318  12.008   9.526 -0.9732  0.3850 -1.3301
48808SOL    HW256739   5.438  12.077   9.588 -0.9142 -1.5709  0.8432
48809SOL     OW56740  11.871   6.267   5.870 -0.1258 -0.0151  0.2183
48809SOL    HW156741  11.942   6.203   5.858 -1.0409 -0.7910 -1.5163
48809SOL    HW256742  11.848   6.261   5.963  3.1178  1.4507  1.2340
48810SOL     OW56743   3.067   1.033  11.750 -0.0431 -0.7535 -0.0619
48810SOL    HW156744   3.028   1.074  11.827 -2.6477 -1.5401 -0.8493
48810SOL    HW256745   3.124   1.100  11.713 -2.1162  1.2363  0.1415
48811SOL     OW56746   0.464  11.305  12.371 -0.2412 -0.4340 -0.3838
48811SOL    HW156747   0.449  11.396  12.344 -0.2282  0.0238  1.0823
48811SOL    HW256748   0.386  11.282  12.421  0.7479 -0.4482  1.2011
48812SOL     OW56749   8.592   8.690   9.943 -0.2351  0.4793 -0.2827
48812SOL    HW156750   8.528   8.754   9.975 -0.2750  1.0147 -1.3728
48812SOL    HW256751   8.581   8.615  10.001 -1.3538  0.8291 -0.0024
48813SOL     OW56752  11.756   2.146  12.154 -0.3416  0.0496 -0.1255
48813SOL    HW156753  11.743   2.109  12.241 -3.7287 -0.4698 -0.7434
48813SOL    HW256754  11.812   2.223  12.169  0.7956 -1.1257  2.1659
48814SOL     OW56755  12.667   1.553   6.596  0.0236  0.4565  0.1606
48814SOL    HW156756  12.749   1.598   6.573 -0.1180  1.1933  1.0357
48814SOL    HW256757  12.683   1.518   6.684 -0.5006  0.3532  0.2163
48815SOL     OW56758   3.047  10.707   2.628  0.6298 -0.3166 -0.2152
48815SOL    HW156759   2.996  10.760   2.567 -0.5287  0.0007  0.9810
48815SOL    HW256760   3.011  10.618   2.618 -0.8219  0.0552  1.2225
48816SOL     OW56761   9.131   5.739   6.588  0.1409 -0.0945 -0.2354
48816SOL    HW156762   9.176   5.823   6.598  0.8867 -0.5283  0.2157
48816SOL    HW256763   9.182   5.693   6.521 -1.0680  0.3214 -1.4874
48817SOL     OW56764   9.844   0.464   1.176  0.3623  0.7098  0.3503
48817SOL    HW156765   9.910   0.502   1.234  0.3890  0.4224  0.5143
48817SOL    HW256766   9.773   0.437   1.235  0.8584 -0.5880  0.4052
48818SOL     OW56767  12.782   6.333   8.713  0.1048  0.2739 -0.5705
48818SOL    HW156768  12.877   6.325   8.721  0.1153  1.7586  2.3679
48818SOL    HW256769  12.768   6.419   8.672  0.0520  0.5262 -0.0329
48819SOL     OW56770   2.397   4.667   6.056  1.0789  0.3199 -0.1045
48819SOL    HW156771   2.377   4.681   6.148  0.8326 -1.7270  0.2082
48819SOL    HW256772   2.317   4.691   6.010  0.2993 -1.0113  0.4846
48820SOL     OW56773   7.851   7.017  12.245  0.3731  0.4020  0.5604
48820SOL    HW156774   7.878   7.018  12.336  1.9203 -1.2172  0.1726
48820SOL    HW256775   7.791   6.943  12.238 -1.1436  1.5753  0.5801
48821SOL     OW56776   7.525   8.419   1.278  0.2403  0.0008 -0.2559
48821SOL    HW156777   7.520   8.413   1.374 -0.1663 -0.3614 -0.2982
48821SOL    HW256778   7.435   8.430   1.250  0.0906 -2.0525 -0.7327
48822SOL     OW56779   8.789   1.889   6.830  0.6648 -0.5190 -0.1440
48822SOL    HW156780   8.856   1.956   6.813 -0.2337  0.3212 -0.5017
48822SOL    HW256781   8.780   1.843   6.747  1.1767 -0.9882  0.0588
48823SOL     OW56782   1.408   1.809  10.874  0.3446  0.3870  0.3667
48823SOL    HW156783   1.359   1.879  10.832 -2.8917 -1.8642 -0.0244
48823SOL    HW256784   1.383   1.730  10.826  1.5291 -1.4280  2.5269
48824SOL     OW56785   4.050   4.216   1.357  0.5667  0.3067 -0.0459
48824SOL    HW156786   4.038   4.153   1.428  1.3244  0.7261  0.4739
48824SOL    HW256787   4.088   4.293   1.400 -2.0389  1.8847 -0.3045
48825SOL     OW56788   9.417   0.582  11.439  0.0083 -0.2335 -0.0780
48825SOL    HW156789   9.380   0.495  11.428 -1.2430  0.2734 -0.0967
48825SOL    HW256790   9.511   0.569  11.433 -0.1782 -1.4919 -0.7008
48826SOL     OW56791   1.379  12.509   1.290 -0.0782  0.2649 -0.2542
48826SOL    HW156792   1.373  12.453   1.368  0.8150 -2.0000 -1.7079
48826SOL    HW256793   1.464  12.552   1.297  0.0111  0.0469  0.0039
48827SOL     OW56794   0.536   8.116   9.900 -0.0319  0.2576  0.1987
48827SOL    HW156795   0.479   8.130   9.824 -0.3124 -1.8310 -0.0449
48827SOL    HW256796   0.599   8.050   9.870  3.2986  3.2252  0.1145
48828SOL     OW56797   8.446   5.939   2.677 -0.5493 -0.0273  0.0332
48828SOL    HW156798   8.433   5.844   2.675 -1.0405 -0.0390  1.7655
48828SOL    HW256799   8.515   5.955   2.612 -0.3545 -1.5812 -0.1897
48829SOL     OW56800  10.601  10.871   4.965 -0.7506 -0.2198  0.1493
48829SOL    HW156801  10.543  10.913   4.902 -0.2369  2.6055  1.4144
48829SOL    HW256802  10.554  10.877   5.048  0.5354  0.4339  0.8538
48830SOL     OW56803   3.844   1.682  11.304  0.6139  0.0447  0.1936
48830SOL    HW156804   3.915   1.664  11.243  0.3219 -2.3963  0.4473
48830SOL    HW256805   3.769   1.703  11.248  1.3402  2.0509 -0.0912
48831SOL     OW56806   3.876   0.927   9.626  0.1291  0.2713  0.0885
48831SOL    HW156807   3.847   0.986   9.695  1.2612  0.7592  0.1593
48831SOL    HW256808   3.941   0.871   9.667 -0.6578 -0.8033 -0.0774
48832SOL     OW56809   7.316   2.600   8.795  0.1094 -0.0424  0.4808
48832SOL    HW156810   7.266   2.587   8.714  0.2782  0.0465  0.3622
48832SOL    HW256811   7.256   2.649   8.852  0.6837  1.6904 -0.3212
48833SOL     OW56812   6.174  10.794   9.350 -0.3450 -0.6734  0.2417
48833SOL    HW156813   6.101  10.805   9.411  0.5125 -0.3580  1.2409
48833SOL    HW256814   6.166  10.704   9.319 -0.8441 -0.8145  0.7573
48834SOL     OW56815   7.115   4.724   2.921  0.1473 -0.3996 -0.1162
48834SOL    HW156816   7.136   4.813   2.895  0.9929  0.4858  3.1690
48834SOL    HW256817   7.019   4.719   2.916  0.1766  0.0870 -1.8707
48835SOL     OW56818  10.052   9.847   6.997 -0.1246  0.3653  0.7613
48835SOL    HW156819  10.021   9.781   6.934 -0.7521  1.0053  0.3920
48835SOL    HW256820   9.973   9.889   7.029  0.3011  1.4967  0.3866
48836SOL     OW56821   4.481   9.898   3.532 -0.0078  0.1059 -0.4277
48836SOL    HW156822   4.529   9.974   3.565 -1.5339  1.5216 -1.2956
48836SOL    HW256823   4.447   9.926   3.447 -0.2207 -1.7460 -1.0073
48837SOL     OW56824   2.356  11.520   3.692 -0.6541 -0.5067  0.8882
48837SOL    HW156825   2.342  11.502   3.785  0.2040 -2.0681  0.7520
48837SOL    HW256826   2.329  11.440   3.647  2.9056 -1.5288  0.1968
48838SOL     OW56827   8.519   1.506   2.440  0.2522 -0.1289  0.2918
48838SOL    HW156828   8.464   1.576   2.474 -0.3322 -0.1009 -0.6852
48838SOL    HW256829   8.609   1.540   2.449 -0.0331  0.8630 -0.4129
48839SOL     OW56830  12.342  12.243   0.916 -0.0365 -0.0258 -0.5025
48839SOL    HW156831  12.311  12.334   0.914 -0.2911 -0.0841  0.3890
48839SOL    HW256832  12.435  12.249   0.892  0.9840  0.9576  3.0643
48840SOL     OW56833   3.846  11.329   3.846  0.1877  0.3168 -0.4566
48840SOL    HW156834   3.766  11.291   3.881 -0.6443  1.8199 -0.6629
48840SOL    HW256835   3.911  11.259   3.854 -1.0884 -0.8737 -0.1330
48841SOL     OW56836  11.456   1.173   2.421  0.9772 -0.0256  0.0516
48841SOL    HW156837  11.430   1.264   2.435  2.3708  0.6855 -1.6893
48841SOL    HW256838  11.539   1.164   2.468  0.6932 -0.5130  0.4769
48842SOL     OW56839   5.059   8.294   5.343  0.3828  0.4217 -0.3365
48842SOL    HW156840   4.984   8.237   5.324 -0.1102  1.1124 -0.4663
48842SOL    HW256841   5.052   8.311   5.437  1.5265 -1.1271  0.0868
48843SOL     OW56842   0.007   4.476   2.372  0.7129 -0.6043  0.3767
48843SOL    HW156843   0.036   4.544   2.432 -0.3828 -0.3317  0.6218
48843SOL    HW256844   0.005   4.396   2.425  0.7646 -0.5763  0.4215
48844SOL     OW56845  12.332   8.170  10.196 -0.2442 -0.7578  0.7118
48844SOL    HW156846  12.242   8.199  10.215 -0.0027  0.0050  0.7293
48844SOL    HW256847  12.384   8.205  10.268  0.0285 -1.4436  0.8533
48845SOL     OW56848  12.843   1.878  12.765 -0.0191  0.4686 -0.0676
48845SOL    HW156849  12.849   1.968  12.796  1.2970  0.4679 -0.2758
48845SOL    HW256850  12.928   1.861  12.725 -0.8212 -0.3188 -1.5213
48846SOL     OW56851   5.826   9.541   4.097 -0.1753  0.2078 -0.3079
48846SOL    HW156852   5.864   9.549   4.009  1.1251  1.7044  0.3279
48846SOL    HW256853   5.744   9.589   4.092  0.1889  0.8189 -0.5618
48847SOL     OW56854   2.514   7.719  11.182  0.0392  0.8391  0.2858
48847SOL    HW156855   2.597   7.722  11.229  0.7804  2.0853 -1.0572
48847SOL    HW256856   2.538   7.698  11.092 -1.3617 -1.5663  0.3714
48848SOL     OW56857   0.987   5.400   7.996 -0.0593  0.5222  0.2143
48848SOL    HW156858   1.017   5.309   8.006 -2.1278 -0.5478 -2.0610
48848SOL    HW256859   1.061   5.445   7.957  1.0693 -0.1167  1.5459
48849SOL     OW56860   1.316   5.980   6.535 -0.1473 -0.1789 -0.6808
48849SOL    HW156861   1.371   5.918   6.488  1.9101  1.1770 -0.1848
48849SOL    HW256862   1.342   5.971   6.627 -0.0591  1.1344 -0.5518
48850SOL     OW56863   6.466   5.151   3.860  0.0358 -0.2687 -0.4656
48850SOL    HW156864   6.443   5.185   3.773  0.8357  2.3751  0.2713
48850SOL    HW256865   6.398   5.184   3.918 -0.1742 -1.5461  0.0585
48851SOL     OW56866   1.970   3.508   3.860  0.0807 -0.0097 -0.0569
48851SOL    HW156867   1.938   3.593   3.832 -0.5948 -0.4774 -0.7211
48851SOL    HW256868   2.052   3.497   3.812  0.4043  0.4522  0.3732
48852SOL     OW56869  11.341   8.947   9.153  0.0071  0.0117  0.0144
48852SOL    HW156870  11.402   8.999   9.205 -0.9807  0.3146  0.8980
48852SOL    HW256871  11.294   8.894   9.217 -0.3056 -0.6108 -0.7093
48853SOL     OW56872   5.598   9.011   9.433 -0.1703  0.1121 -0.0416
48853SOL    HW156873   5.509   9.033   9.458 -0.1001 -0.3086  0.5824
48853SOL    HW256874   5.645   9.095   9.433 -0.7586  0.4629 -1.2214
48854SOL     OW56875  12.208   7.286   7.584  0.2965 -0.1654 -0.0365
48854SOL    HW156876  12.229   7.242   7.666  0.3617 -1.2691 -0.6251
48854SOL    HW256877  12.130   7.338   7.604 -0.8375 -1.9010  0.2724
48855SOL     OW56878   9.659   1.369  11.189 -0.2252  0.3251 -0.6080
48855SOL    HW156879   9.706   1.287  11.203  1.2739  1.2255 -0.2099
48855SOL    HW256880   9.592   1.371  11.257 -1.1306 -1.1285 -1.3908
48856SOL     OW56881  10.392   2.480   8.523  0.5511  0.1087  0.0402
48856SOL    HW156882  10.464   2.540   8.544 -0.4606  0.8966  1.4797
48856SOL    HW256883  10.378   2.430   8.604  0.2926 -0.9110 -0.6182
48857SOL     OW56884   4.780   2.222   6.169 -0.0843  0.2072  0.6757
48857SOL    HW156885   4.789   2.161   6.242 -0.4341 -0.4508  0.1804
48857SOL    HW256886   4.818   2.176   6.094  0.4814  0.9666  0.4788
48858SOL     OW56887   3.784  12.921   6.318 -0.7483 -0.3787 -0.0351
48858SOL    HW156888   3.746  12.926   6.406 -1.4943  1.2342 -0.4104
48858SOL    HW256889   3.796  13.012   6.292  2.6079 -0.7933 -0.3237
48859SOL     OW56890  12.436   4.857  10.248 -0.9124  0.1728 -0.6446
48859SOL    HW156891  12.381   4.832  10.322  0.7415 -2.0668 -0.0496
48859SOL    HW256892  12.382   4.840  10.171 -1.8852  0.4134 -0.0365
48860SOL     OW56893   2.999  12.216   1.780  0.0388  0.0231 -0.1271
48860SOL    HW156894   2.957  12.252   1.702  0.0361  0.1679 -0.0595
48860SOL    HW256895   2.928  12.208   1.844 -0.2138 -1.3244 -0.5645
48861SOL     OW56896   5.640   8.324   8.208 -0.4304 -0.7152 -0.0042
48861SOL    HW156897   5.620   8.407   8.163  0.4435 -0.0941  0.7252
48861SOL    HW256898   5.623   8.342   8.300  0.9399 -0.9557  0.3190
48862SOL     OW56899  10.104   7.003   9.057 -0.2257  0.0170 -0.4795
48862SOL    HW156900  10.150   7.064   9.000  0.5956 -1.3681 -1.3657
48862SOL    HW256901  10.173   6.957   9.104 -0.8434  0.1081  0.5317
48863SOL     OW56902   2.928   9.428   7.446  0.6877  0.7331 -0.0683
48863SOL    HW156903   3.010   9.383   7.464  0.7701  0.9364  0.0734
48863SOL    HW256904   2.954   9.509   7.402  0.8207  2.2143  2.5006
48864SOL     OW56905   4.938   2.134   3.802 -0.7221 -0.0404 -0.3980
48864SOL    HW156906   4.843   2.141   3.786 -1.2473 -1.8569  1.5324
48864SOL    HW256907   4.957   2.206   3.862 -0.4849  1.3047 -1.9835
48865SOL     OW56908   7.081  10.093   3.333 -0.1384 -0.2199  0.1924
48865SOL    HW156909   7.135  10.128   3.404  1.0625  0.0201 -0.7984
48865SOL    HW256910   7.129  10.115   3.253 -1.6333 -0.1752 -0.7262
48866SOL     OW56911   9.225   3.370   1.679  0.1445 -0.4700 -0.3947
48866SOL    HW156912   9.277   3.450   1.670  1.7175 -1.5286 -1.2510
48866SOL    HW256913   9.146   3.398   1.724 -0.7956  2.1734 -3.2937
48867SOL     OW56914   4.779   7.192   3.166  0.1745  0.1946  0.2304
48867SOL    HW156915   4.756   7.243   3.088 -1.2592 -1.2150 -0.3111
48867SOL    HW256916   4.864   7.227   3.193  0.9425  0.4268 -2.2496
48868SOL     OW56917   4.867   1.691   3.878 -0.2122 -0.2083  0.1699
48868SOL    HW156918   4.848   1.670   3.786  1.3723  0.9017 -0.4582
48868SOL    HW256919   4.833   1.780   3.889  0.7857  0.1654  0.2622
48869SOL     OW56920   6.157   9.695   6.163  0.0323  0.3245 -0.5852
48869SOL    HW156921   6.104   9.639   6.220 -0.0031 -0.2432 -1.1696
48869SOL    HW256922   6.194   9.635   6.098  0.0298  0.9801 -1.1939
48870SOL     OW56923   2.191   5.366   8.962 -0.3921 -0.0610 -0.3859
48870SOL    HW156924   2.166   5.275   8.975 -1.1823  0.4163  1.9729
48870SOL    HW256925   2.227   5.393   9.047 -0.1238  1.7993 -1.0478
48871SOL     OW56926   1.060   5.793   1.825  0.0228 -0.3995  0.0164
48871SOL    HW156927   1.047   5.733   1.751  0.3518  1.8665 -2.0139
48871SOL    HW256928   0.975   5.837   1.835  0.9185  1.8752 -1.5346
48872SOL     OW56929  12.008   1.533  10.358  0.4167  0.0635  0.0633
48872SOL    HW156930  12.052   1.614  10.383  1.6737 -0.2117 -1.1149
48872SOL    HW256931  12.076   1.482  10.313 -0.5252 -1.3552  0.1825
48873SOL     OW56932   2.671  11.940  11.803 -0.2381  0.4881 -0.4202
48873SOL    HW156933   2.625  12.012  11.845  0.2757  0.5593  0.0295
48873SOL    HW256934   2.764  11.960  11.815 -0.0855  0.1267 -0.9350
48874SOL     OW56935   5.305   2.276   6.469 -0.0635  0.5107  0.3056
48874SOL    HW156936   5.225   2.226   6.458  0.9774 -1.0220 -0.6645
48874SOL    HW256937   5.371   2.227   6.420  1.8508  0.7855  2.4171
48875SOL     OW56938   3.664   1.135  12.489 -0.1752  0.2130 -0.4801
48875SOL    HW156939   3.617   1.059  12.523  1.8044 -0.9250 -0.1206
48875SOL    HW256940   3.658   1.200  12.559  0.2019 -0.5377  0.2748
48876SOL     OW56941   1.810  12.471   7.217  0.0329 -0.1488 -0.2663
48876SOL    HW156942   1.754  12.410   7.265 -0.6984  0.6682 -0.0616
48876SOL    HW256943   1.754  12.506   7.147  0.6007 -0.1090 -0.7093
48877SOL     OW56944   1.599   5.758   8.861  0.4664  0.1724 -0.3432
48877SOL    HW156945   1.527   5.697   8.880  1.2501 -0.8327 -0.5193
48877SOL    HW256946   1.558   5.845   8.864 -0.8822 -0.4068 -1.0408
48878SOL     OW56947   8.610  10.567   5.766  0.0275  0.3397 -0.2780
48878SOL    HW156948   8.525  10.542   5.802  0.0119  1.2315  0.3228
48878SOL    HW256949   8.616  10.662   5.779  1.1425  0.2856 -0.2481
48879SOL     OW56950   6.937   7.760   2.463 -0.4192  0.7892 -0.2568
48879SOL    HW156951   6.870   7.759   2.532  0.0286 -1.2429  0.2078
48879SOL    HW256952   6.899   7.708   2.392  0.7732 -0.7100  0.1621
48880SOL     OW56953   7.677   9.236  12.059 -0.1684  0.0098 -0.0451
48880SOL    HW156954   7.622   9.284  12.121 -0.5935 -0.2841 -0.1924
48880SOL    HW256955   7.749   9.297  12.039  0.0590  0.0387  0.8567
48881SOL     OW56956   6.267   7.936  12.929 -0.1845 -0.4503  0.6059
48881SOL    HW156957   6.339   7.878  12.905  0.6254  1.0515 -0.8188
48881SOL    HW256958   6.197   7.914  12.867 -0.8957 -1.6658  1.7663
48882SOL     OW56959   2.676   2.932   9.109  0.2463 -0.3199  0.2835
48882SOL    HW156960   2.589   2.893   9.107  0.2762 -0.4673  1.4705
48882SOL    HW256961   2.735   2.862   9.080 -0.0884 -0.0047 -1.2224
48883SOL     OW56962  10.497   7.580   1.435 -0.3195 -0.3344 -0.0451
48883SOL    HW156963  10.462   7.491   1.423  0.4304 -0.4340 -1.9423
48883SOL    HW256964  10.441   7.619   1.501 -1.0430 -2.0312  0.4101
48884SOL     OW56965   6.300   9.296   7.865  0.2307 -0.3529 -0.3864
48884SOL    HW156966   6.248   9.219   7.886 -2.8693  1.1898 -1.7159
48884SOL    HW256967   6.274   9.319   7.776  1.2505  2.0638 -0.1468
48885SOL     OW56968   0.209   8.346   2.956 -0.0226  0.6349 -0.2773
48885SOL    HW156969   0.175   8.368   2.869 -0.4615  1.2298  0.0334
48885SOL    HW256970   0.288   8.400   2.965  0.0366  0.5545 -0.3200
48886SOL     OW56971   9.198   8.911   7.373  0.3237  0.3363  0.1158
48886SOL    HW156972   9.205   8.817   7.392 -0.1538  0.5771  1.6718
48886SOL    HW256973   9.105   8.924   7.352  0.0314  0.6823  1.4885
48887SOL     OW56974  12.066   7.355   5.573  0.4635 -0.0972 -0.3940
48887SOL    HW156975  11.978   7.344   5.609  1.2200  0.1799  1.6750
48887SOL    HW256976  12.054   7.355   5.479 -1.7267 -0.2710 -0.1522
48888SOL     OW56977   2.405   1.030   2.226 -0.7530  0.5484 -0.3282
48888SOL    HW156978   2.414   1.121   2.198 -1.3727  0.1746 -1.8001
48888SOL    HW256979   2.485   0.987   2.196 -1.8722 -0.0905 -2.6363
48889SOL     OW56980  12.789   6.733   1.737 -0.1072 -0.4860  0.3270
48889SOL    HW156981  12.866   6.790   1.733 -0.2753 -0.3204 -1.4165
48889SOL    HW256982  12.717   6.787   1.706 -0.4139 -1.3777 -0.5930
48890SOL     OW56983  11.298   0.630   0.502  0.0110  0.4162  0.0718
48890SOL    HW156984  11.380   0.652   0.545  0.7618  1.4393 -1.7504
48890SOL    HW256985  11.317   0.550   0.452  0.4248  1.4948 -1.5827
48891SOL     OW56986   3.796   9.860   4.751  0.3534 -0.6258  0.7463
48891SOL    HW156987   3.836   9.781   4.788  0.2300 -1.0912 -0.1015
48891SOL    HW256988   3.870   9.910   4.716  0.3989 -0.4985  1.0171
48892SOL     OW56989   9.935   8.533   4.890  0.0916  0.0950 -0.1600
48892SOL    HW156990  10.026   8.505   4.879  0.1310 -1.8763  3.5052
48892SOL    HW256991   9.943   8.622   4.927  0.4498  0.3903 -0.9214
48893SOL     OW56992   1.742   8.993   7.350  0.1780  0.7811  0.0810
48893SOL    HW156993   1.694   8.952   7.278  0.7643 -0.0270  0.1286
48893SOL    HW256994   1.712   9.084   7.351 -0.4717  0.5834 -0.6292
48894SOL     OW56995  11.464   1.884   2.999 -0.6181 -0.3463  0.1313
48894SOL    HW156996  11.371   1.877   3.021 -0.8841  0.7410 -0.5738
48894SOL    HW256997  11.483   1.978   3.001  0.5031 -0.5581  0.3773
48895SOL     OW56998   2.161   3.081   1.605  0.0966  0.3252 -0.1426
48895SOL    HW156999   2.253   3.082   1.579  0.3067 -0.5103  0.5279
48895SOL    HW257000   2.151   3.161   1.657  0.4679  0.3645 -0.1243
48896SOL     OW57001   4.549   4.220   6.750 -0.8954 -0.6614  0.7136
48896SOL    HW157002   4.513   4.306   6.769  0.4594  0.0141  0.3475
48896SOL    HW257003   4.636   4.220   6.791 -1.5761 -2.5570  2.3439
48897SOL     OW57004   1.098   8.367   5.554  0.2937 -0.4509 -0.2974
48897SOL    HW157005   1.059   8.454   5.563  0.4832 -0.4156  0.2293
48897SOL    HW257006   1.162   8.376   5.484  1.3949  0.2326  0.7588
48898SOL     OW57007   0.486   8.877  11.244  0.1103 -0.5844  0.0635
48898SOL    HW157008   0.455   8.962  11.213  0.1210 -1.6497 -3.3713
48898SOL    HW257009   0.411   8.838  11.288 -1.1248 -0.1716 -1.5634
48899SOL     OW57010   2.016   0.787   8.974  0.0381  0.1416 -0.0859
48899SOL    HW157011   1.926   0.757   8.959 -0.6244  1.3762  1.2127
48899SOL    HW257012   2.071   0.717   8.938 -1.4256 -1.8823  1.4065
48900SOL     OW57013   6.240   3.741   8.139  0.0555  0.0884 -0.2218
48900SOL    HW157014   6.224   3.675   8.072  1.3715  1.2407 -1.7609
48900SOL    HW257015   6.330   3.725   8.167 -0.2969 -0.0237  0.8704
48901SOL     OW57016   7.306   4.381   4.879 -0.5591  0.2593 -0.0002
48901SOL    HW157017   7.379   4.435   4.847  1.2296 -2.0386 -0.0354
48901SOL    HW257018   7.300   4.404   4.972  0.2494  0.4421  0.0186
48902SOL     OW57019   1.139   0.792  11.859 -0.2892  0.3016  0.5161
48902SOL    HW157020   1.139   0.880  11.897 -1.1003  0.0315  1.1627
48902SOL    HW257021   1.049   0.779  11.829 -0.3266 -0.5246  0.9530
48903SOL     OW57022   0.727   1.458  12.146  0.2333 -0.0119  0.2469
48903SOL    HW157023   0.676   1.382  12.175  0.6662 -0.7555 -0.8677
48903SOL    HW257024   0.662   1.526  12.132 -0.4978 -0.9612 -1.2073
48904SOL     OW57025   7.973   8.885   1.764 -0.4392  0.2939  0.7181
48904SOL    HW157026   8.017   8.874   1.848  0.2122 -0.6739  0.2630
48904SOL    HW257027   8.031   8.843   1.700 -1.5798 -0.2256 -0.0201
48905SOL     OW57028   4.770   2.007  10.901  0.0050  0.1230  0.0494
48905SOL    HW157029   4.686   2.052  10.908 -0.3445 -0.6444  1.3110
48905SOL    HW257030   4.750   1.917  10.927  1.0810 -0.2480 -0.3598
48906SOL     OW57031   3.481   0.962  11.917  0.2733 -0.2328 -0.1968
48906SOL    HW157032   3.397   0.995  11.949 -0.9273  1.0836 -4.0218
48906SOL    HW257033   3.500   0.885  11.971 -2.4876  0.4166  1.9224
48907SOL     OW57034  11.851   2.481   4.492  0.3247  0.0234  0.4452
48907SOL    HW157035  11.852   2.568   4.533  1.0567  0.1922  0.0897
48907SOL    HW257036  11.775   2.483   4.434 -1.0097 -0.3733  2.0804
48908SOL     OW57037   5.661   8.452   9.078 -0.6395 -0.0755  0.3425
48908SOL    HW157038   5.657   8.476   8.986  1.8964  0.7073  0.3461
48908SOL    HW257039   5.687   8.359   9.077 -3.0930 -0.8304  0.3369
48909SOL     OW57040   0.024   2.068  12.026 -0.4951  0.3178  0.6937
48909SOL    HW157041   0.078   2.145  12.008 -0.5609  0.6121  1.6911
48909SOL    HW257042  -0.051   2.102  12.074 -0.1250 -0.4689  1.8539
48910SOL     OW57043  12.211   3.120   0.507 -0.1252 -0.3173  0.0923
48910SOL    HW157044  12.130   3.100   0.554 -0.8336  0.9640 -0.5343
48910SOL    HW257045  12.196   3.206   0.469  1.0871 -0.5831 -1.0483
48911SOL     OW57046  10.048   0.278   9.806 -0.7071 -0.4277 -0.6507
48911SOL    HW157047  10.103   0.271   9.728 -1.0113  0.6248 -0.9762
48911SOL    HW257048  10.100   0.241   9.877 -0.3549 -1.2302 -1.3137
48912SOL     OW57049  10.694   0.663   1.963  0.2039 -0.4600  0.0833
48912SOL    HW157050  10.660   0.674   2.052 -2.7626  0.6872 -1.0695
48912SOL    HW257051  10.786   0.641   1.976 -0.1857 -0.7262  3.4310
48913SOL     OW57052  10.433   9.264  12.759 -0.4907 -0.2255 -0.0565
48913SOL    HW157053  10.423   9.342  12.704  0.1755 -0.8524 -1.1084
48913SOL    HW257054  10.445   9.299  12.847  0.4119  0.9018 -0.5932
48914SOL     OW57055   8.123   7.465   5.264 -0.1741  0.2364 -0.5342
48914SOL    HW157056   8.172   7.516   5.328  0.7660  0.9366 -1.7604
48914SOL    HW257057   8.032   7.468   5.295  0.3940 -0.3944  1.3403
48915SOL     OW57058   0.646   8.429   9.393  0.6072  0.5158 -0.1904
48915SOL    HW157059   0.718   8.459   9.448 -0.7647  1.8184  0.9850
48915SOL    HW257060   0.627   8.341   9.426  2.7056 -0.5873 -1.6681
48916SOL     OW57061   6.007  11.638   8.467 -0.3038 -0.2564  0.5721
48916SOL    HW157062   5.972  11.564   8.517 -1.6136  0.3566  0.6052
48916SOL    HW257063   6.099  11.616   8.453 -0.6078 -1.7752  0.7924
48917SOL     OW57064   4.294  10.377   4.576  0.2914  0.5686  0.2925
48917SOL    HW157065   4.227  10.363   4.643  1.5309 -0.6287  1.3491
48917SOL    HW257066   4.377  10.376   4.625  1.1095  1.6941 -1.0095
48918SOL     OW57067   2.411  11.661  12.019  0.1411  0.2713  0.7402
48918SOL    HW157068   2.422  11.578  12.065  1.3336 -0.4061 -0.6817
48918SOL    HW257069   2.500  11.698  12.016 -0.2296  1.1522  0.5698
48919SOL     OW57070   1.355   6.908   9.715  0.0143  0.7200 -0.2969
48919SOL    HW157071   1.431   6.940   9.666  0.6763 -0.6837 -0.2441
48919SOL    HW257072   1.387   6.901   9.805 -0.6531  1.5819  0.0132
48920SOL     OW57073   2.386   1.901   4.626  0.3931 -0.4524  0.6684
48920SOL    HW157074   2.382   1.873   4.717  1.8274 -1.7343  0.3897
48920SOL    HW257075   2.457   1.848   4.588 -0.3329 -0.1277 -1.2472
48921SOL     OW57076   4.683  12.384   5.210 -0.4124  0.2238  0.2569
48921SOL    HW157077   4.734  12.447   5.261  0.4822  0.2649 -0.6704
48921SOL    HW257078   4.594  12.392   5.246  0.4548 -0.8923  2.8921
48922SOL     OW57079   0.280   1.774   1.132  0.1390 -0.3035  0.0061
48922SOL    HW157080   0.360   1.784   1.080  0.7133  1.0063  1.1002
48922SOL    HW257081   0.310   1.774   1.223 -0.8206 -2.8831  0.3916
48923SOL     OW57082   2.477  12.821   2.385 -0.4485 -0.2627 -0.9934
48923SOL    HW157083   2.547  12.771   2.343  0.7071  0.0782  0.4510
48923SOL    HW257084   2.440  12.874   2.315  0.7048 -0.4860 -1.7967
48924SOL     OW57085  11.884   0.855  10.250  0.2611 -0.7600 -0.2478
48924SOL    HW157086  11.864   0.833  10.340  0.0341 -0.7046 -0.2852
48924SOL    HW257087  11.932   0.778  10.217  0.5900 -0.6644 -0.0005
48925SOL     OW57088  10.775  10.086   5.350  0.2813  0.3648  0.4346
48925SOL    HW157089  10.813  10.000   5.330 -1.9496 -0.3878 -1.0329
48925SOL    HW257090  10.721  10.071   5.428 -1.1061  0.0508 -0.5426
48926SOL     OW57091   8.911   1.460   7.636 -0.4069  0.5474  0.1523
48926SOL    HW157092   8.858   1.500   7.704  2.8117  1.8243  2.1510
48926SOL    HW257093   8.905   1.366   7.653 -1.7195  0.6859  0.5068
48927SOL     OW57094   6.811  12.474  11.929  0.0193  0.2239 -0.0463
48927SOL    HW157095   6.820  12.400  11.869 -0.1310  0.7945 -0.7847
48927SOL    HW257096   6.717  12.491  11.933  0.1256  1.0232 -0.6959
48928SOL     OW57097  11.650   8.745   8.740 -0.0905  0.3119 -0.1557
48928SOL    HW157098  11.630   8.714   8.828  0.6365  0.6183  0.1239
48928SOL    HW257099  11.743   8.724   8.728 -0.3055 -0.1608 -1.0353
48929SOL     OW57100   6.271  10.398   8.206  0.3845 -0.4929 -0.1804
48929SOL    HW157101   6.334  10.449   8.257 -1.8286  1.1583  1.1161
48929SOL    HW257102   6.198  10.384   8.267 -0.8214 -1.6237 -1.8258
48930SOL     OW57103   5.572   1.038   3.589 -0.0979 -0.8586 -0.6111
48930SOL    HW157104   5.534   0.962   3.632  3.6315 -1.6694  1.7660
48930SOL    HW257105   5.652   1.006   3.548  1.3049  1.6086 -0.0425
48931SOL     OW57106  10.495   1.954   3.115  0.2580 -0.6037 -0.3447
48931SOL    HW157107  10.507   1.961   3.021  1.8512 -1.4236 -0.2244
48931SOL    HW257108  10.416   1.901   3.125 -2.3220  2.6939 -1.1484
48932SOL     OW57109   4.357   4.250   5.697  0.5440  0.5349 -0.1451
48932SOL    HW157110   4.331   4.319   5.636  0.2336  1.0319  0.5393
48932SOL    HW257111   4.277   4.201   5.714  0.7509  0.0319 -0.5807
48933SOL     OW57112  12.342   8.475   0.408  0.3553 -0.4722  0.2442
48933SOL    HW157113  12.311   8.414   0.475  2.1390 -1.4616  0.2221
48933SOL    HW257114  12.379   8.548   0.458  0.1413 -0.3932  0.2913
48934SOL     OW57115   1.245   2.422   8.130  0.4698 -0.3498 -0.1571
48934SOL    HW157116   1.177   2.445   8.193 -1.3778 -2.3439 -1.2700
48934SOL    HW257117   1.324   2.464   8.163 -0.8701  0.4491  2.2729
48935SOL     OW57118   2.657   9.479   7.558  0.8227  0.0955  0.4587
48935SOL    HW157119   2.734   9.458   7.505  0.0038 -1.6048 -0.1357
48935SOL    HW257120   2.585   9.483   7.495  0.1068 -0.3141  1.2365
48936SOL     OW57121   8.522   6.144   2.170  0.7391 -0.0256 -0.5838
48936SOL    HW157122   8.597   6.203   2.165  2.5685 -2.2029 -0.7524
48936SOL    HW257123   8.472   6.175   2.246  1.3046  2.0032 -0.9811
48937SOL     OW57124   9.860   7.984   6.425  0.3943  0.0238 -0.6563
48937SOL    HW157125   9.769   7.954   6.424 -0.0735  0.9163  3.2238
48937SOL    HW257126   9.856   8.075   6.396  0.4836 -0.5604 -2.7177
48938SOL     OW57127   5.804  10.195   7.368  0.2812 -0.2499  0.0444
48938SOL    HW157128   5.726  10.187   7.424  0.2642 -0.4049  0.0004
48938SOL    HW257129   5.844  10.277   7.393  2.2142 -1.8784  2.7404
48939SOL     OW57130   2.629   1.108   3.698 -0.1511  0.3648  0.2455
48939SOL    HW157131   2.704   1.076   3.646 -1.0131  2.3976 -2.4674
48939SOL    HW257132   2.557   1.110   3.636 -1.8337  0.9668  2.1426
48940SOL     OW57133  10.059   2.576  12.604 -0.1791  0.2072  0.0928
48940SOL    HW157134   9.988   2.511  12.605 -0.2149  0.2507  1.0973
48940SOL    HW257135  10.013   2.660  12.599 -0.1899  0.2232  0.4562
48941SOL     OW57136   5.024   0.147   8.122 -0.3396 -0.3254 -0.0321
48941SOL    HW157137   5.065   0.105   8.047  2.9763  1.5729  0.5012
48941SOL    HW257138   4.962   0.209   8.084 -0.4941 -1.0920 -1.0570
48942SOL     OW57139  10.705   1.377   1.715  0.4713 -0.0122  0.3891
48942SOL    HW157140  10.765   1.343   1.650 -0.6427  2.1110 -1.9211
48942SOL    HW257141  10.723   1.471   1.718 -1.5424  0.4132  0.8807
48943SOL     OW57142  11.808   7.197  11.700  0.1201 -0.0915  0.1154
48943SOL    HW157143  11.835   7.282  11.733  0.7476  0.2225 -1.1281
48943SOL    HW257144  11.888   7.161  11.660 -0.0321 -1.4424  0.9767
48944SOL     OW57145   9.513   3.236   4.527  0.1022 -0.2005  0.1979
48944SOL    HW157146   9.523   3.143   4.505 -0.6930 -0.1481 -0.4340
48944SOL    HW257147   9.426   3.242   4.567 -0.5414  0.5313 -1.2660
48945SOL     OW57148   6.209   4.639   1.426  0.0911 -0.7910  0.8335
48945SOL    HW157149   6.305   4.645   1.431  0.0520 -0.2820  1.0242
48945SOL    HW257150   6.178   4.723   1.460 -0.5152 -2.1070  3.8237
48946SOL     OW57151   0.801   4.573  11.913 -0.0574  0.4527 -0.1973
48946SOL    HW157152   0.794   4.666  11.893 -0.0311  0.5101  0.0535
48946SOL    HW257153   0.887   4.564  11.954  0.3335  0.1584 -1.0803
48947SOL     OW57154   4.430   2.572  12.233  0.0564  0.1075  0.2162
48947SOL    HW157155   4.353   2.629  12.224  0.0001  0.1374  0.8279
48947SOL    HW257156   4.439   2.530  12.148 -1.6063 -1.1284  0.5984
48948SOL     OW57157   0.986   1.378   8.437 -0.3010 -0.2359  0.0203
48948SOL    HW157158   1.017   1.374   8.527  0.3022  1.1412 -0.1006
48948SOL    HW257159   0.994   1.288   8.405  0.9528 -0.4467  0.8662
48949SOL     OW57160   1.636  10.847   4.792  0.4149 -0.2071  0.4069
48949SOL    HW157161   1.631  10.941   4.809  2.4297 -0.1130  0.7181
48949SOL    HW257162   1.729  10.827   4.791  0.0432 -2.2466  0.5007
48950SOL     OW57163   6.541   9.412  11.707  0.2431  0.2013 -0.3886
48950SOL    HW157164   6.512   9.395  11.618  1.7862  0.0469 -0.8882
48950SOL    HW257165   6.594   9.335  11.730 -0.3260  0.1306  0.7496
48951SOL     OW57166   8.095   2.745   1.494 -0.1491  0.3787 -0.3712
48951SOL    HW157167   8.142   2.786   1.567 -1.2233 -1.0194  1.1916
48951SOL    HW257168   8.053   2.819   1.449 -2.0355  1.1385  2.3621
48952SOL     OW57169   3.212  10.913   8.107  0.4182  0.6016  0.1390
48952SOL    HW157170   3.191  10.873   8.192 -2.6186  0.7386 -0.4311
48952SOL    HW257171   3.241  11.001   8.129 -0.4917  0.6884  1.0440
48953SOL     OW57172   9.877  12.289   7.630 -0.8672 -0.1287  0.3940
48953SOL    HW157173   9.872  12.201   7.593  1.7442  0.0242 -0.5472
48953SOL    HW257174   9.901  12.345   7.556  2.0634  0.5964  1.7167
48954SOL     OW57175   7.551   0.154   7.376  0.1674  0.0797 -0.1952
48954SOL    HW157176   7.479   0.147   7.439 -1.7668  1.9005 -2.0217
48954SOL    HW257177   7.560   0.247   7.359  2.6719 -0.1393 -0.4607
48955SOL     OW57178   9.273   5.656   8.321 -0.7939 -0.3330  0.5127
48955SOL    HW157179   9.326   5.580   8.297  0.6202 -0.0404  2.4524
48955SOL    HW257180   9.283   5.717   8.247 -0.4153 -1.2686 -0.2277
48956SOL     OW57181   1.721   3.061   1.738 -0.1553 -0.2132 -0.0314
48956SOL    HW157182   1.802   3.011   1.747  0.2040  0.4055  0.2423
48956SOL    HW257183   1.744   3.134   1.680 -0.5842 -0.1647 -0.1474
48957SOL     OW57184   3.281  10.010   0.749  0.4606  0.7903 -0.6301
48957SOL    HW157185   3.322   9.946   0.691  1.3579 -0.1896  1.0135
48957SOL    HW257186   3.254  10.081   0.691  2.2279  0.3243 -2.1179
48958SOL     OW57187  11.756   0.907   0.990 -0.8284 -0.6253 -0.0602
48958SOL    HW157188  11.666   0.876   0.989 -0.9533 -0.3084 -1.7080
48958SOL    HW257189  11.791   0.884   0.904  0.4369 -0.0995  0.2817
48959SOL     OW57190  10.553   2.873   3.006  0.1030  0.4553  0.5147
48959SOL    HW157191  10.518   2.945   2.955  0.3757 -0.1670 -0.5731
48959SOL    HW257192  10.594   2.815   2.942  2.1694  0.6061  1.6019
48960SOL     OW57193   4.414   7.235   4.491  0.2343 -0.1298 -0.2541
48960SOL    HW157194   4.343   7.178   4.463  0.2943 -0.7484  0.8201
48960SOL    HW257195   4.438   7.204   4.578  0.9587  0.8853 -0.0659
48961SOL     OW57196   1.440  10.937  10.618 -0.1336  0.1317  1.3781
48961SOL    HW157197   1.450  10.896  10.532  0.4617  0.2312  1.3913
48961SOL    HW257198   1.419  11.029  10.598  2.1902  0.7039  1.2840
48962SOL     OW57199   1.161   7.880   7.404 -0.4690  0.3208  0.3543
48962SOL    HW157200   1.166   7.961   7.354 -1.9217  1.5255  2.0289
48962SOL    HW257201   1.253   7.859   7.423 -0.0730  2.9894  1.9594
48963SOL     OW57202   1.366   7.519   1.307 -0.1429 -0.0285  0.4616
48963SOL    HW157203   1.363   7.451   1.239 -0.4835  0.8718 -0.4449
48963SOL    HW257204   1.332   7.597   1.264  0.6227  0.8265  1.3720
48964SOL     OW57205   0.535   4.974   8.374  0.1245 -0.2278 -0.6993
48964SOL    HW157206   0.495   4.946   8.456  2.6164  0.8927  1.0418
48964SOL    HW257207   0.547   5.069   8.384  1.5915 -0.2515 -1.8111
48965SOL     OW57208   5.217  10.749   6.020  0.2474  0.0538  0.2580
48965SOL    HW157209   5.142  10.796   6.056  0.6310  0.5849  0.3827
48965SOL    HW257210   5.241  10.686   6.088 -1.3039 -1.5293 -0.5782
48966SOL     OW57211   5.565   1.952   5.626 -0.5279  0.2476  0.1632
48966SOL    HW157212   5.487   1.902   5.649 -0.1719 -0.3258  0.1353
48966SOL    HW257213   5.602   1.905   5.551 -0.0503  0.4073  0.2994
48967SOL     OW57214  11.748   6.958  12.459  0.1546 -0.0209 -0.0365
48967SOL    HW157215  11.689   6.960  12.534 -1.3054 -2.6364 -1.0029
48967SOL    HW257216  11.834   6.977  12.497 -0.9590  2.0473  1.6991
48968SOL     OW57217   3.094   0.069   9.242  0.0886  0.1610 -0.3175
48968SOL    HW157218   3.186   0.065   9.217  0.3456 -0.6392  0.6984
48968SOL    HW257219   3.086   0.008   9.315 -0.6773  2.1443  1.3509
48969SOL     OW57220   9.675   3.748   6.292 -0.0374  0.1521  0.3124
48969SOL    HW157221   9.598   3.740   6.236 -0.3050  0.8436  0.5802
48969SOL    HW257222   9.643   3.785   6.373  0.7035  1.2467  0.1260
48970SOL     OW57223   4.062  11.727   2.485  0.3845 -0.0853  0.5127
48970SOL    HW157224   4.080  11.644   2.529 -1.0252 -0.2377  0.8476
48970SOL    HW257225   4.108  11.720   2.401 -0.3334 -1.5382  0.2007
48971SOL     OW57226  12.203  11.418   2.641  0.3303  0.3331 -0.5548
48971SOL    HW157227  12.161  11.457   2.565  2.1919  1.4943 -1.0643
48971SOL    HW257228  12.174  11.471   2.715 -0.0826  0.3214 -0.7081
48972SOL     OW57229   5.214   5.485   1.996  0.1358 -0.4723 -0.2959
48972SOL    HW157230   5.225   5.496   1.901 -0.0889 -0.0876 -0.2800
48972SOL    HW257231   5.253   5.564   2.034 -0.0133 -0.5009 -0.0826
48973SOL     OW57232  11.730  12.094   2.302 -0.2981 -0.5939  0.6688
48973SOL    HW157233  11.733  12.020   2.363  3.0433 -2.1541 -1.1382
48973SOL    HW257234  11.772  12.166   2.349  0.4303 -1.1773  0.9205
48974SOL     OW57235   2.911   9.960   6.659  0.6562 -0.8004  0.3217
48974SOL    HW157236   2.963   9.903   6.604  0.1482 -1.7653  0.8227
48974SOL    HW257237   2.857   9.901   6.711  0.5144  0.1085  1.2434
48975SOL     OW57238   8.794   9.872  11.573  0.0589 -0.4318  0.1429
48975SOL    HW157239   8.699   9.875  11.588 -0.0247  0.2981 -0.4153
48975SOL    HW257240   8.823   9.962  11.590  0.3342 -0.1697 -1.5764
48976SOL     OW57241   6.357   0.194   2.706 -0.7486 -0.1678 -0.9156
48976SOL    HW157242   6.353   0.129   2.636 -2.0369 -0.6280 -0.4488
48976SOL    HW257243   6.284   0.253   2.688  0.8533  1.6665 -1.7699
48977SOL     OW57244   7.289   9.879  11.756 -0.2397 -0.2603 -0.4967
48977SOL    HW157245   7.307   9.785  11.748  1.6099 -0.1522  1.4376
48977SOL    HW257246   7.278   9.893  11.850  1.4293  1.7022 -0.5168
48978SOL     OW57247   4.989   4.166   7.952 -0.3826  0.6071 -0.3736
48978SOL    HW157248   5.029   4.226   7.889  1.0282 -0.0834 -0.1737
48978SOL    HW257249   4.992   4.080   7.908  0.6561  0.1133  0.6093
48979SOL     OW57250   6.840  12.309   3.551  0.5748  0.0559 -0.2821
48979SOL    HW157251   6.841  12.287   3.644 -0.3099  0.0905 -0.2568
48979SOL    HW257252   6.931  12.298   3.523  1.3192  2.1492  1.0785
48980SOL     OW57253   9.282  10.094  11.637  0.0743  0.7736 -0.3950
48980SOL    HW157254   9.302  10.009  11.598  1.6189  0.6876  0.5095
48980SOL    HW257255   9.198  10.119  11.598  0.4131 -0.3682 -1.9494
48981SOL     OW57256   4.843  11.614   0.634  0.3721 -0.4214 -1.4358
48981SOL    HW157257   4.780  11.609   0.706  1.3171  0.0895 -0.5577
48981SOL    HW257258   4.848  11.524   0.601  1.1189 -1.0101  0.1868
48982SOL     OW57259   2.456   5.382   8.808  0.0679 -0.2940 -0.2579
48982SOL    HW157260   2.521   5.361   8.875 -0.1027 -0.0321 -0.0068
48982SOL    HW257261   2.390   5.313   8.817  0.9525 -1.3455 -1.4074
48983SOL     OW57262   6.876   2.168   6.479 -0.3930 -0.0850 -0.1799
48983SOL    HW157263   6.863   2.077   6.453 -1.5888 -0.1357  0.5350
48983SOL    HW257264   6.945   2.200   6.421  0.2030 -1.5010 -0.2956
48984SOL     OW57265  10.835  11.313  12.706 -0.2679  0.3721 -0.1732
48984SOL    HW157266  10.739  11.316  12.708 -0.3208 -1.2245  1.8161
48984SOL    HW257267  10.856  11.253  12.634 -0.8481 -0.7231  0.5469
48985SOL     OW57268   1.418   9.345   7.210 -0.5181 -0.6867 -0.4049
48985SOL    HW157269   1.398   9.408   7.279  1.5505  0.8999 -1.1541
48985SOL    HW257270   1.345   9.354   7.148  0.5200  2.3240 -1.3431
48986SOL     OW57271   9.591  11.858   0.837 -0.1609 -0.0907 -0.0959
48986SOL    HW157272   9.509  11.865   0.787  0.4136  0.9863 -0.9585
48986SOL    HW257273   9.633  11.779   0.804  0.5302  0.9610 -1.9098
48987SOL     OW57274  10.154  12.506   7.846 -0.1021 -0.2004  0.3266
48987SOL    HW157275  10.081  12.549   7.801  0.5710  0.7205  0.0812
48987SOL    HW257276  10.147  12.537   7.936  1.4757  2.0082 -0.2310
48988SOL     OW57277  12.000   7.251  11.277  0.2963  0.2158 -0.2040
48988SOL    HW157278  12.073   7.243  11.339  0.0632 -2.1523 -0.1495
48988SOL    HW257279  11.929   7.291  11.329  0.8234  0.4008  0.3871
48989SOL     OW57280   2.794   4.350   2.718  0.4777  0.0159  0.5849
48989SOL    HW157281   2.753   4.335   2.804 -1.1912 -2.0561 -0.4769
48989SOL    HW257282   2.830   4.265   2.694 -0.3955  0.1543 -1.3805
48990SOL     OW57283   9.943   0.386   6.605 -0.2636 -0.2790  0.3850
48990SOL    HW157284   9.988   0.427   6.680 -0.4875  0.5212  0.0842
48990SOL    HW257285   9.956   0.447   6.533 -1.5132 -0.2269  0.1954
48991SOL     OW57286   4.647   1.351   9.289  0.0912 -0.2940 -0.1449
48991SOL    HW157287   4.669   1.276   9.234 -1.9920 -0.1342 -1.3211
48991SOL    HW257288   4.702   1.422   9.256  2.4927 -1.3540  1.3479
48992SOL     OW57289   9.802   7.641   4.357 -0.3642 -0.1058 -0.6741
48992SOL    HW157290   9.748   7.718   4.377 -1.0533 -0.9410  0.9247
48992SOL    HW257291   9.814   7.644   4.262 -0.0484  2.1578 -0.6144
48993SOL     OW57292   0.417  12.559   0.878  0.0724  0.8094  0.3846
48993SOL    HW157293   0.479  12.630   0.865  0.6166  0.2039 -0.3829
48993SOL    HW257294   0.415  12.512   0.795 -2.2985  1.4916 -0.0185
48994SOL     OW57295  11.280  11.753   5.025 -0.5472  0.5679  0.3087
48994SOL    HW157296  11.325  11.733   4.943 -2.6692  0.1144 -0.8123
48994SOL    HW257297  11.350  11.762   5.089  1.0838 -0.6076 -1.2200
48995SOL     OW57298   0.742   6.727   5.538  0.1749  0.1100  0.1421
48995SOL    HW157299   0.721   6.733   5.632 -1.2994  0.0938 -0.1525
48995SOL    HW257300   0.819   6.782   5.527 -0.7809  1.7356  1.0600
48996SOL     OW57301   3.024   0.957   1.392  0.0527  0.1387  0.6752
48996SOL    HW157302   3.052   0.976   1.481  1.7069  0.5327  0.1156
48996SOL    HW257303   3.054   1.032   1.341 -0.8053 -0.1064 -0.2268
48997SOL     OW57304  10.846   5.663   4.907  0.6528 -0.4477  0.1040
48997SOL    HW157305  10.888   5.577   4.914 -2.5732 -2.2042 -0.3818
48997SOL    HW257306  10.855   5.700   4.995 -2.0558 -3.5085  1.8856
48998SOL     OW57307   9.255   7.135   2.735  0.6251  0.3892 -0.5901
48998SOL    HW157308   9.224   7.171   2.652  1.1605  1.4512 -0.3422
48998SOL    HW257309   9.207   7.184   2.802  1.6410  0.9153 -0.2339
48999SOL     OW57310  12.214   6.360  12.063  0.8537  0.2974 -0.4837
48999SOL    HW157311  12.217   6.274  12.104 -0.2699  0.6159  0.3387
48999SOL    HW257312  12.297   6.401  12.085  1.6937 -0.8232 -1.4843
49000SOL     OW57313   5.603   9.067   3.675 -0.1268 -0.0059  0.3325
49000SOL    HW157314   5.533   9.132   3.665  1.9683  2.1003 -2.4111
49000SOL    HW257315   5.603   9.019   3.592  0.2117 -1.6253  1.2311
49001SOL     OW57316   6.291  12.737  11.844 -0.2267 -0.0337  0.0206
49001SOL    HW157317   6.251  12.656  11.877  0.0978  0.5921  2.0973
49001SOL    HW257318   6.217  12.796  11.829 -0.3257 -0.0666  0.3815
49002SOL     OW57319   8.919   7.585   7.884 -0.3951  0.1768  0.7836
49002SOL    HW157320   8.840   7.546   7.923 -1.5912  0.0480 -1.5808
49002SOL    HW257321   8.920   7.675   7.917 -0.8970 -0.1378  1.7097
49003SOL     OW57322   4.518   9.354   1.162 -0.1675  0.1467  0.6920
49003SOL    HW157323   4.541   9.331   1.252  1.5906 -0.7174  0.0821
49003SOL    HW257324   4.591   9.409   1.132  0.3243 -1.2342 -0.8039
49004SOL     OW57325   2.200  12.881  11.659  0.0451 -0.2445  0.0629
49004SOL    HW157326   2.122  12.835  11.628  0.1291 -1.5760  1.6760
49004SOL    HW257327   2.265  12.866  11.590 -0.7671 -0.1218 -0.7481
49005SOL     OW57328   7.816   5.906   4.082  0.9998 -0.3434 -0.4585
49005SOL    HW157329   7.835   5.999   4.069 -0.0165 -0.3697 -2.4125
49005SOL    HW257330   7.838   5.865   3.999 -0.0771 -1.5980 -0.1496
49006SOL     OW57331   0.604   7.486   1.084  0.2768  0.0191  0.4735
49006SOL    HW157332   0.582   7.520   1.171 -0.2541  0.1371  0.2964
49006SOL    HW257333   0.539   7.526   1.026  0.6455 -0.0379  0.0192
49007SOL     OW57334   2.151   5.170   3.593  0.2544 -0.0553  0.1604
49007SOL    HW157335   2.109   5.084   3.600 -1.0155  0.6298  1.5535
49007SOL    HW257336   2.130   5.214   3.676  1.9812  1.1292  0.0216
49008SOL     OW57337   4.608   1.242  11.058 -0.0988 -0.4715 -0.1722
49008SOL    HW157338   4.703   1.238  11.063 -0.1211 -1.8947 -0.4497
49008SOL    HW257339   4.589   1.270  10.968  0.0644 -0.7842 -0.3062
49009SOL     OW57340   4.312  10.742   9.158 -0.2182  0.2400  0.1880
49009SOL    HW157341   4.371  10.749   9.083 -0.3080  0.9884  0.1836
49009SOL    HW257342   4.359  10.687   9.220 -0.5663 -1.2593 -0.8229
49010SOL     OW57343   4.647  11.557  12.987 -0.6968 -0.3112 -0.6670
49010SOL    HW157344   4.597  11.480  13.014 -0.1808 -0.3334  0.2847
49010SOL    HW257345   4.718  11.563  13.052 -0.9317  1.1551 -0.5215
49011SOL     OW57346   0.664   5.533   1.640 -0.5471  0.0196 -0.0847
49011SOL    HW157347   0.668   5.469   1.711 -0.5774  0.9134  0.7404
49011SOL    HW257348   0.620   5.609   1.678 -0.7674  0.4313 -1.1287
49012SOL     OW57349   6.405   3.023   5.456  0.4715 -0.0449  0.4840
49012SOL    HW157350   6.464   2.948   5.459 -0.6420 -0.9254  0.9238
49012SOL    HW257351   6.321   2.987   5.426  0.6035  1.4958 -2.0852
49013SOL     OW57352  11.302   3.554   1.802 -0.3330  0.0485 -0.4822
49013SOL    HW157353  11.292   3.636   1.754 -2.0766 -0.6381 -1.3777
49013SOL    HW257354  11.325   3.490   1.735  0.0774 -0.3843  0.0630
49014SOL     OW57355   7.672   8.753   6.767 -0.1184  0.0038 -0.1217
49014SOL    HW157356   7.703   8.797   6.847  0.0602 -0.9653  0.3532
49014SOL    HW257357   7.750   8.742   6.713  0.2006 -1.4047  0.5802
49015SOL     OW57358   4.738   1.626   6.356 -0.9494  0.8944 -0.2193
49015SOL    HW157359   4.655   1.594   6.321 -1.6057  1.0333  1.1534
49015SOL    HW257360   4.776   1.678   6.285 -2.0887  0.9103 -0.8278
49016SOL     OW57361   7.932   5.060   2.383 -0.3445  0.3358  0.1832
49016SOL    HW157362   7.969   5.132   2.435  1.9123 -0.7865  0.2411
49016SOL    HW257363   7.962   4.981   2.428 -3.1680 -0.7091  0.3888
49017SOL     OW57364   4.268   3.577   7.938  0.4740 -0.3294  0.3866
49017SOL    HW157365   4.357   3.576   7.902  0.7712  2.0340  0.9325
49017SOL    HW257366   4.279   3.598   8.030 -0.5432 -2.5830  1.1080
49018SOL     OW57367   6.919   4.146   2.498  0.1725 -0.3567  0.1787
49018SOL    HW157368   6.959   4.089   2.432  0.8201  0.3649 -0.0676
49018SOL    HW257369   6.993   4.182   2.547 -0.2493 -0.0462  0.5970
49019SOL     OW57370   1.479   8.889   4.060  0.3905 -0.3378  0.0049
49019SOL    HW157371   1.506   8.955   4.123  0.0445 -0.1049 -0.0888
49019SOL    HW257372   1.446   8.939   3.985 -1.3134 -0.6038  0.5523
49020SOL     OW57373   6.759   5.113   2.550 -0.6561  0.6286  0.3333
49020SOL    HW157374   6.676   5.155   2.572 -0.5821 -0.0893  2.1779
49020SOL    HW257375   6.750   5.023   2.580 -0.0601 -0.1589 -1.6664
49021SOL     OW57376   4.592   1.120   1.067  0.4420  0.3704 -0.1279
49021SOL    HW157377   4.532   1.193   1.079 -0.5832 -0.5496  0.5767
49021SOL    HW257378   4.537   1.047   1.039  1.1394 -0.6053  0.8969
49022SOL     OW57379  11.408   8.002  11.946  0.1142 -0.2791  0.2444
49022SOL    HW157380  11.343   7.962  11.890  1.4310  0.0150 -1.5897
49022SOL    HW257381  11.371   7.996  12.034 -1.8287 -1.1554 -0.5737
49023SOL     OW57382  10.647  10.137   4.846 -0.4923 -0.7313 -0.4051
49023SOL    HW157383  10.691  10.081   4.909  1.5280  0.1681 -0.9082
49023SOL    HW257384  10.681  10.109   4.761 -0.0193  0.6826 -0.7228
49024SOL     OW57385   3.279   1.342   7.828 -0.0664 -0.6128 -0.0457
49024SOL    HW157386   3.300   1.339   7.735 -0.3079 -3.0097 -0.0862
49024SOL    HW257387   3.290   1.434   7.853  1.4720 -0.1933 -2.0851
49025SOL     OW57388  11.556   2.420   9.888  0.4422  0.4968 -0.1678
49025SOL    HW157389  11.564   2.371   9.807  1.6428 -0.1039  0.2893
49025SOL    HW257390  11.516   2.358   9.949 -1.2746  1.2214 -0.5057
49026SOL     OW57391   9.590  11.225   1.519  0.1079 -0.2845 -0.3520
49026SOL    HW157392   9.595  11.182   1.605 -0.5922  0.6185  0.1626
49026SOL    HW257393   9.602  11.154   1.456  1.1954 -0.8894  0.4837
49027SOL     OW57394   0.946   4.867  11.219 -0.1537  0.0655  0.4386
49027SOL    HW157395   1.028   4.887  11.174  0.0876  3.3210  1.9946
49027SOL    HW257396   0.878   4.905  11.163 -0.1517  1.0487  1.0619
49028SOL     OW57397  10.880   9.673   2.281  0.3624 -0.2354 -0.2011
49028SOL    HW157398  10.915   9.631   2.202  0.2806  0.3132 -0.5357
49028SOL    HW257399  10.843   9.601   2.332  1.6866 -0.7873  0.0154
49029SOL     OW57400   7.135   0.084  11.176  0.3896 -0.5023  0.4998
49029SOL    HW157401   7.093   0.165  11.206 -0.1461 -0.5958  0.0064
49029SOL    HW257402   7.213   0.114  11.129 -0.1199 -0.2467 -0.1871
49030SOL     OW57403   7.426  10.751   2.248  0.6925 -0.1965 -0.0118
49030SOL    HW157404   7.493  10.702   2.295  1.5746  1.2216  0.2515
49030SOL    HW257405   7.421  10.708   2.162  0.6356 -1.4231  0.5804
49031SOL     OW57406   7.410  12.371   2.327  0.5931 -0.1421  0.1506
49031SOL    HW157407   7.443  12.376   2.416  1.9395  0.7002 -0.3706
49031SOL    HW257408   7.418  12.461   2.293 -0.7344 -0.2495 -0.5437
49032SOL     OW57409   1.487   1.045  11.697  0.2101 -0.0578  0.8312
49032SOL    HW157410   1.479   1.095  11.778  0.1852 -0.2781  0.9676
49032SOL    HW257411   1.580   1.050  11.675  0.0424  0.8919  0.2925
49033SOL     OW57412   0.374  12.891   6.032 -0.4708 -0.0000 -0.3104
49033SOL    HW157413   0.334  12.854   6.110  1.3649  0.7124  1.0451
49033SOL    HW257414   0.383  12.816   5.973 -1.4863 -0.6466  0.3252
49034SOL     OW57415   5.558   4.125   5.723 -0.0489  0.3304 -0.1915
49034SOL    HW157416   5.527   4.057   5.782  0.3321 -1.4691 -1.9474
49034SOL    HW257417   5.536   4.092   5.636  2.0896  1.4346 -1.2116
49035SOL     OW57418   9.352   6.335   4.139 -0.4259 -0.5022 -0.9694
49035SOL    HW157419   9.393   6.252   4.114 -0.4484  0.1251 -3.3236
49035SOL    HW257420   9.270   6.309   4.181  0.9194 -1.6932  1.0835
49036SOL     OW57421   6.061   7.358   2.819 -0.5456 -0.1396  0.0040
49036SOL    HW157422   6.091   7.435   2.867  0.1284  0.6195 -1.5596
49036SOL    HW257423   6.078   7.379   2.727 -1.3930 -1.7057 -0.5469
49037SOL     OW57424   8.091  10.158   5.655 -0.4251 -0.2947  0.0555
49037SOL    HW157425   8.173  10.137   5.611 -0.4030  0.6304 -0.3764
49037SOL    HW257426   8.074  10.249   5.631 -1.9570 -0.6815 -0.4843
49038SOL     OW57427   0.544   0.938   1.724  0.3350  0.4735 -0.4723
49038SOL    HW157428   0.484   1.003   1.763  0.4903 -0.2154  0.9882
49038SOL    HW257429   0.630   0.961   1.760  0.5775  0.1568 -0.8526
49039SOL     OW57430   0.954  10.769   2.131 -0.3513  0.0084  0.5434
49039SOL    HW157431   0.896  10.696   2.151 -0.0593  0.4018  3.1563
49039SOL    HW257432   0.942  10.784   2.037 -2.0005 -1.9984  0.3640
49040SOL     OW57433  11.358   3.216   5.696 -0.2239 -0.6433 -0.5011
49040SOL    HW157434  11.388   3.268   5.621  0.6790 -0.6715 -0.1642
49040SOL    HW257435  11.420   3.236   5.766  0.4400 -2.5251 -0.5013
49041SOL     OW57436  11.432   3.499   0.315  0.3306  0.4997 -0.1489
49041SOL    HW157437  11.506   3.468   0.368  0.1947  0.3294 -0.0594
49041SOL    HW257438  11.473   3.553   0.247  0.4717  1.0195  0.3449
49042SOL     OW57439   9.259   4.058   6.894 -0.2754  0.3129 -0.1580
49042SOL    HW157440   9.289   4.048   6.985 -2.6624 -1.2812  0.5496
49042SOL    HW257441   9.239   3.969   6.866  0.2296  0.8068 -2.2320
49043SOL     OW57442  10.807   4.154   0.952  0.2935 -0.4007  0.6937
49043SOL    HW157443  10.784   4.061   0.947 -0.8420 -0.1236  0.3207
49043SOL    HW257444  10.883   4.163   0.895  1.4065 -1.3619  1.9469
49044SOL     OW57445  12.629   1.946   2.697 -0.4290 -0.0258  0.4122
49044SOL    HW157446  12.543   1.987   2.692 -0.2770  0.1332 -2.0506
49044SOL    HW257447  12.673   1.974   2.617  1.7077 -0.5956  1.3228
49045SOL     OW57448   2.376   8.669   6.303 -0.2192 -0.2583  0.0090
49045SOL    HW157449   2.378   8.739   6.238 -2.7319  0.0922  0.1796
49045SOL    HW257450   2.384   8.714   6.387  1.5457 -0.5608  0.0283
49046SOL     OW57451   0.430   8.681   8.970 -0.3225  0.0169  0.8862
49046SOL    HW157452   0.476   8.607   9.008 -0.7204 -0.7602 -0.0802
49046SOL    HW257453   0.493   8.720   8.909 -0.5000 -0.2662  0.5131
49047SOL     OW57454  12.097   9.281   7.145 -0.2273 -0.0838  0.6365
49047SOL    HW157455  12.038   9.351   7.117  0.5800  0.8479  1.2219
49047SOL    HW257456  12.117   9.233   7.064 -0.9550  0.2307  0.2648
49048SOL     OW57457   9.229  12.475   6.661  0.0701 -0.8305  0.1405
49048SOL    HW157458   9.310  12.439   6.696  0.1038 -0.8599  0.0317
49048SOL    HW257459   9.165  12.462   6.731 -0.0029 -1.4276 -0.0365
49049SOL     OW57460   9.706  12.450   8.429  0.3079  0.3418 -0.0123
49049SOL    HW157461   9.785  12.422   8.383  0.6970  0.8325  0.3515
49049SOL    HW257462   9.682  12.533   8.387 -0.1951  0.0456 -0.3279
49050SOL     OW57463   7.405   1.542   5.266  0.4965 -0.7022  0.3668
49050SOL    HW157464   7.356   1.558   5.347 -1.2180  0.3760 -0.8167
49050SOL    HW257465   7.493   1.521   5.296 -0.0093 -0.0891  2.5146
49051SOL     OW57466   3.949   8.203   4.176  0.2025  0.6029  0.2059
49051SOL    HW157467   3.951   8.186   4.270 -0.3512 -0.0207  0.1086
49051SOL    HW257468   4.000   8.131   4.138  0.2942  0.7661  0.0201
49052SOL     OW57469  11.325   2.896  12.800 -0.3104 -0.2514  0.5949
49052SOL    HW157470  11.308   2.807  12.831 -2.1185  0.3553  1.4805
49052SOL    HW257471  11.285   2.900  12.714 -1.7282  0.1500  1.2402
49053SOL     OW57472   6.670   6.644   6.055  0.8195  0.1591 -0.5992
49053SOL    HW157473   6.653   6.662   6.147 -0.0440 -0.3199 -0.6572
49053SOL    HW257474   6.684   6.549   6.051  0.4066  0.1117 -1.0261
49054SOL     OW57475   9.221  12.908   3.282  0.1501 -0.0145  0.0985
49054SOL    HW157476   9.244  12.817   3.300 -1.9629 -1.0975 -2.0947
49054SOL    HW257477   9.271  12.931   3.204 -0.7124  0.0275 -0.4605
49055SOL     OW57478  12.202   8.363   4.833  0.2526  0.1538  0.1975
49055SOL    HW157479  12.140   8.360   4.905  0.7471  0.4375  0.6346
49055SOL    HW257480  12.277   8.412   4.866  0.2548  0.7757 -0.6850
49056SOL     OW57481   0.551   3.152   4.246  0.3304 -0.9116  0.1992
49056SOL    HW157482   0.627   3.206   4.266  0.2338 -0.3507 -0.9082
49056SOL    HW257483   0.559   3.076   4.305  2.0040 -1.0992 -0.2348
49057SOL     OW57484   7.851  10.881   4.853 -0.0720  0.2988  0.2753
49057SOL    HW157485   7.758  10.863   4.836  0.7525 -1.8758 -3.0108
49057SOL    HW257486   7.892  10.795   4.849  2.1069  1.1719  2.0780
49058SOL     OW57487  11.811   9.887   9.173  0.4104 -0.3326 -0.3211
49058SOL    HW157488  11.886   9.926   9.218  0.1410  3.4848 -2.7194
49058SOL    HW257489  11.748   9.959   9.164 -1.9819 -2.4187 -1.6208
49059SOL     OW57490   0.438  12.541   7.745  0.1047 -0.2175  0.1333
49059SOL    HW157491   0.384  12.586   7.810  0.9120  0.1672  0.5415
49059SOL    HW257492   0.520  12.523   7.789  0.1927 -1.1374 -0.3688
49060SOL     OW57493  12.836   8.814  11.051 -0.3335  0.1169 -0.5816
49060SOL    HW157494  12.741   8.807  11.053 -0.2261 -3.4961  0.8417
49060SOL    HW257495  12.858   8.878  11.118 -1.7634 -0.8756  0.8945
49061SOL     OW57496  10.577  10.799  10.729 -0.4000  0.2260 -0.1571
49061SOL    HW157497  10.540  10.805  10.641 -0.1672 -0.5699 -0.3142
49061SOL    HW257498  10.521  10.856  10.782 -0.8479  0.3196 -0.7192
49062SOL     OW57499  11.029   3.893  10.905  0.0369  0.0611 -0.0975
49062SOL    HW157500  11.085   3.934  10.972  1.2377  0.8617 -1.5290
49062SOL    HW257501  11.084   3.891  10.827 -0.8555 -2.0820 -0.7359
49063SOL     OW57502  10.912  10.805   8.224 -0.3186 -0.6628 -0.3480
49063SOL    HW157503  10.924  10.712   8.206  1.0836 -0.5397 -0.1057
49063SOL    HW257504  10.958  10.821   8.307  0.0716  0.3798 -0.7416
49064SOL     OW57505   8.164   2.282   2.470  0.2703  0.0964 -0.4691
49064SOL    HW157506   8.158   2.187   2.478  1.8315  0.0830  1.1764
49064SOL    HW257507   8.130   2.315   2.553  2.4862  0.7918  0.2369
49065SOL     OW57508   6.896   4.997   4.130 -0.0456  0.4124  0.1550
49065SOL    HW157509   6.807   5.020   4.104  0.0725  1.3637  0.5404
49065SOL    HW257510   6.885   4.939   4.205 -0.3644 -1.4670 -1.2595
49066SOL     OW57511   4.465  10.964  10.664  0.3030 -0.4247  0.2159
49066SOL    HW157512   4.529  10.916  10.611  2.0724  1.0700  0.8827
49066SOL    HW257513   4.412  11.012  10.600  3.1816  2.3183 -0.3593
49067SOL     OW57514   9.439  11.710   5.313 -0.3837  0.1048 -0.3441
49067SOL    HW157515   9.515  11.743   5.264 -0.6521  0.2642 -0.6567
49067SOL    HW257516   9.365  11.725   5.255 -0.8831  1.3824  0.5730
49068SOL     OW57517   2.127  10.508  12.845  0.0536 -0.2902  0.1647
49068SOL    HW157518   2.196  10.504  12.911  1.3616  1.2448 -1.0293
49068SOL    HW257519   2.124  10.420  12.808  0.4582 -0.7188  1.1234
49069SOL     OW57520   1.864   7.025  10.398  0.3235  0.1532  0.0572
49069SOL    HW157521   1.788   6.976  10.367  0.0628  0.6460 -0.0813
49069SOL    HW257522   1.926   7.023  10.325 -0.1397  0.9905 -0.3710
49070SOL     OW57523   9.524  10.779   7.280 -0.1446 -0.4608  0.0693
49070SOL    HW157524   9.488  10.779   7.191  0.7671  0.9069 -0.3413
49070SOL    HW257525   9.616  10.801   7.269  0.0073 -0.3509  1.3492
49071SOL     OW57526   6.573  10.965   5.801 -0.3286  0.9844 -0.1184
49071SOL    HW157527   6.489  11.011   5.808 -1.6574 -1.1198 -1.0305
49071SOL    HW257528   6.599  10.977   5.710 -1.1658 -0.7280 -0.6251
49072SOL     OW57529   8.752   8.161   0.216 -0.1459  0.8568  0.0937
49072SOL    HW157530   8.810   8.150   0.140  0.7492  0.6073  0.8008
49072SOL    HW257531   8.728   8.254   0.214  0.0128  0.8939 -0.3922
49073SOL     OW57532  12.169   3.355  10.951 -0.4506 -0.0263  0.0377
49073SOL    HW157533  12.203   3.358  10.861 -1.9231  1.6244 -0.5357
49073SOL    HW257534  12.138   3.265  10.962  1.4810 -0.7766 -0.3904
49074SOL     OW57535   2.482   0.866   0.486  0.7545 -0.0763 -0.0952
49074SOL    HW157536   2.520   0.941   0.532 -0.0052  1.1664 -1.4066
49074SOL    HW257537   2.512   0.875   0.396  1.3383 -1.8538 -0.1040
49075SOL     OW57538   1.611  11.192   3.814 -0.4256 -0.7305  0.0181
49075SOL    HW157539   1.656  11.215   3.895 -1.5018 -0.1749  0.4674
49075SOL    HW257540   1.529  11.241   3.816  0.0225  0.2024 -1.9434
49076SOL     OW57541   5.711   6.078   7.573  0.2695 -0.3134  0.5796
49076SOL    HW157542   5.685   5.994   7.610  0.6461 -0.1847  1.1518
49076SOL    HW257543   5.716   6.062   7.479  1.2377 -1.1929  0.7647
49077SOL     OW57544   3.972   9.296   4.435  0.0034  0.1670 -0.0506
49077SOL    HW157545   3.998   9.388   4.442  0.3653 -0.0374  2.2946
49077SOL    HW257546   3.886   9.298   4.393  0.4297  1.4845 -0.9008
49078SOL     OW57547  10.668   8.544  11.984  0.1896  0.0454  0.0979
49078SOL    HW157548  10.757   8.550  11.949  0.5950 -1.1257  0.8816
49078SOL    HW257549  10.680   8.537  12.078 -0.8337  1.7079  0.4015
49079SOL     OW57550  11.254   4.756   6.305 -0.3132 -0.4683  0.0280
49079SOL    HW157551  11.281   4.847   6.288 -0.3082 -0.4787 -0.0216
49079SOL    HW257552  11.325   4.703   6.268 -0.7493 -0.5143 -0.7745
49080SOL     OW57553  10.600   0.743   0.954 -0.1363  0.3367 -0.5886
49080SOL    HW157554  10.529   0.780   1.006  1.4535  1.0135  1.2024
49080SOL    HW257555  10.555   0.694   0.884 -2.4889 -2.3808  2.4965
49081SOL     OW57556   5.872   8.581   8.805 -0.2185  0.3354  0.1078
49081SOL    HW157557   5.836   8.586   8.893 -0.6752 -1.6764  0.0650
49081SOL    HW257558   5.887   8.488   8.790 -0.4329  0.6027 -2.0538
49082SOL     OW57559   4.680   1.400   0.123  0.3568  0.0960 -0.3572
49082SOL    HW157560   4.775   1.411   0.111  0.3250  0.7199 -0.1012
49082SOL    HW257561   4.673   1.339   0.196  0.6323  2.5205  1.8646
49083SOL     OW57562   1.796   8.805   5.194  0.0172  0.3342 -0.2510
49083SOL    HW157563   1.871   8.757   5.159 -0.1911  0.3173 -0.6827
49083SOL    HW257564   1.820   8.897   5.185 -0.7444  0.4060 -2.1287
49084SOL     OW57565   9.775   1.320   4.683  0.2515  0.2818  0.4190
49084SOL    HW157566   9.814   1.310   4.770 -1.6447 -0.8158  1.2202
49084SOL    HW257567   9.682   1.300   4.697  0.1152 -1.1755 -2.0745
49085SOL     OW57568  11.142  10.427   6.674  0.2675  0.5519  0.6905
49085SOL    HW157569  11.231  10.463   6.685 -0.4367  2.0098  2.1453
49085SOL    HW257570  11.112  10.465   6.591  0.5317  1.1386  0.8520
49086SOL     OW57571  12.268   2.685  11.618 -0.0646  0.2871  0.3514
49086SOL    HW157572  12.344   2.668  11.563  0.7310  0.1669  1.4387
49086SOL    HW257573  12.195   2.641  11.575  0.6847 -0.4101 -0.2086
49087SOL     OW57574  12.297   2.167   9.863 -0.0834 -0.1418  0.0953
49087SOL    HW157575  12.295   2.247   9.811 -1.4496  1.1813  2.0216
49087SOL    HW257576  12.222   2.117   9.832 -0.2008  0.0969 -0.0163
49088SOL     OW57577   1.724  12.085   6.592 -0.6814  0.5652  0.3610
49088SOL    HW157578   1.718  12.047   6.505 -1.4108  0.5604  0.4091
49088SOL    HW257579   1.785  12.028   6.639  0.7189  1.2962 -0.5144
49089SOL     OW57580   2.235  11.866  10.501 -0.5207  0.2247  0.2832
49089SOL    HW157581   2.215  11.959  10.499  0.1139  0.3629 -0.6258
49089SOL    HW257582   2.304  11.855  10.435 -1.8995 -1.1768 -1.0308
49090SOL     OW57583   1.943   7.523   7.942  0.4026 -0.3071  0.1669
49090SOL    HW157584   1.939   7.513   8.037  0.6928  0.1404  0.2305
49090SOL    HW257585   1.952   7.617   7.928 -0.6403 -0.2738 -0.3504
49091SOL     OW57586   5.057   5.808   8.140 -0.5745  0.8722 -0.2381
49091SOL    HW157587   5.052   5.894   8.181 -0.1833  0.2345  1.1922
49091SOL    HW257588   4.978   5.804   8.086 -1.4964  1.4813  0.9980
49092SOL     OW57589   9.943   9.219  11.111  0.3439 -0.1550 -0.1673
49092SOL    HW157590   9.956   9.303  11.156  1.2304 -0.0536 -0.6030
49092SOL    HW257591   9.885   9.170  11.170 -0.4182  0.8519 -0.0341
49093SOL     OW57592  11.245   7.696   4.184  0.1391 -0.3686 -0.2185
49093SOL    HW157593  11.319   7.645   4.215  0.4881 -0.8638 -1.7510
49093SOL    HW257594  11.187   7.703   4.259  1.0513 -1.2525  0.5955
49094SOL     OW57595   6.582   8.781   4.189 -0.5662 -0.2158  0.3965
49094SOL    HW157596   6.517   8.849   4.171  1.0190  1.0643 -0.7307
49094SOL    HW257597   6.571   8.718   4.117  0.3360  0.7229 -0.5963
49095SOL     OW57598  11.843  12.900   3.561  0.3176 -0.6796  0.4992
49095SOL    HW157599  11.938  12.904   3.550  0.4013 -1.3048  0.9778
49095SOL    HW257600  11.809  12.964   3.497  1.0901  0.1159  0.8626
49096SOL     OW57601   0.606  10.596   1.676 -0.1655 -0.2506 -0.1278
49096SOL    HW157602   0.620  10.679   1.721 -0.7958 -0.4891  0.5407
49096SOL    HW257603   0.688  10.548   1.688  0.2558  0.3276 -0.6492
49097SOL     OW57604   8.824   3.409  11.873 -0.0983  0.4508  0.1707
49097SOL    HW157605   8.785   3.492  11.844 -0.9722 -0.1981 -0.5737
49097SOL    HW257606   8.918   3.423  11.866 -0.1423  0.0410 -4.0940
49098SOL     OW57607   3.099  12.580   5.340 -0.4573 -0.3210 -0.5524
49098SOL    HW157608   3.017  12.595   5.293 -1.8490  0.2218  1.9095
49098SOL    HW257609   3.147  12.517   5.285 -1.8000  0.5313 -2.8237
49099SOL     OW57610   5.678   4.854   6.474  0.1123  0.6236  0.1746
49099SOL    HW157611   5.695   4.896   6.559 -0.4048  1.2304 -0.0103
49099SOL    HW257612   5.649   4.766   6.497 -0.3388  0.8840  0.6553
49100SOL     OW57613   0.943  12.309  10.407 -0.0425 -0.3961  0.2898
49100SOL    HW157614   0.850  12.325  10.423 -0.1241 -0.5847  0.0081
49100SOL    HW257615   0.984  12.322  10.492 -0.4194 -1.0078  0.5694
49101SOL     OW57616   3.653   8.621  10.570 -0.3684 -0.3769 -0.4047
49101SOL    HW157617   3.563   8.638  10.541 -0.2797 -0.5541 -0.7846
49101SOL    HW257618   3.698   8.704  10.556 -0.4565 -0.3069 -0.2773
49102SOL     OW57619   5.957   9.039   0.249 -0.2287  0.2588  0.0559
49102SOL    HW157620   5.952   8.972   0.317 -2.4774 -1.8808 -2.0178
49102SOL    HW257621   5.888   9.102   0.273 -1.1730 -0.6090 -0.3080
49103SOL     OW57622   1.360   3.211   9.262  0.4267  0.2277  0.3255
49103SOL    HW157623   1.314   3.138   9.220 -0.8224 -0.0310  2.0224
49103SOL    HW257624   1.439   3.172   9.298 -0.4992 -0.4654  1.6987
49104SOL     OW57625  12.292   2.314   8.253 -0.3744  0.2435  0.4977
49104SOL    HW157626  12.325   2.241   8.306 -0.6151 -0.8279 -0.7798
49104SOL    HW257627  12.339   2.390   8.286 -0.2329 -0.4489  1.9838
49105SOL     OW57628   5.445   9.624   3.275 -0.3139  0.2974  0.4453
49105SOL    HW157629   5.457   9.655   3.364  1.4518  0.7263  0.0963
49105SOL    HW257630   5.525   9.650   3.229 -0.5509 -1.1823 -0.9042
49106SOL     OW57631  10.241   5.875   7.926  0.2220  0.0920  0.1891
49106SOL    HW157632  10.283   5.887   7.841  0.4292 -0.1426  0.2583
49106SOL    HW257633  10.157   5.921   7.918 -0.6723 -1.6077 -0.8191
49107SOL     OW57634   3.258  11.326   1.522  0.3955 -0.6340 -0.2081
49107SOL    HW157635   3.262  11.422   1.531 -3.5396 -0.2398 -0.8361
49107SOL    HW257636   3.289  11.309   1.433 -0.1477  0.2333 -0.5756
49108SOL     OW57637  10.126  10.269   1.402 -0.4091  0.2939  0.5605
49108SOL    HW157638  10.072  10.343   1.426 -0.6484  0.5827 -0.7899
49108SOL    HW257639  10.186  10.303   1.336  1.1453 -0.1267  1.6975
49109SOL     OW57640   8.877   0.077   4.089  0.5207  0.0382  0.2172
49109SOL    HW157641   8.968   0.106   4.091  0.1126  1.3948  2.8824
49109SOL    HW257642   8.875  -0.003   4.141  0.2516 -0.3000 -0.2977
49110SOL     OW57643   3.534  11.566   5.005  0.0048 -0.4712  0.1282
49110SOL    HW157644   3.505  11.493   4.951  0.1402  0.0960 -0.7379
49110SOL    HW257645   3.467  11.634   4.993 -0.7484 -0.8594  1.8668
49111SOL     OW57646   5.021  11.494  10.771 -0.6158 -0.1277 -0.7595
49111SOL    HW157647   4.935  11.490  10.728 -0.1271 -1.3589 -1.6750
49111SOL    HW257648   5.006  11.462  10.859 -0.6358 -3.1427 -1.7537
49112SOL     OW57649   7.678   9.455   4.890 -0.1942 -0.0077  0.3833
49112SOL    HW157650   7.709   9.387   4.831 -1.4673  0.0052 -0.3485
49112SOL    HW257651   7.743   9.524   4.884 -0.2281 -0.0631 -0.9067
49113SOL     OW57652   9.914   1.928   0.432  0.1409 -0.0799 -0.0093
49113SOL    HW157653   9.979   1.945   0.501 -0.5380 -0.3397  0.7088
49113SOL    HW257654   9.838   1.893   0.479 -0.4729  0.0959 -0.8550
49114SOL     OW57655  12.789  10.334   0.362 -0.1440  0.5297  0.6079
49114SOL    HW157656  12.824  10.251   0.397 -1.5337 -0.9478 -1.2937
49114SOL    HW257657  12.713  10.307   0.310  0.2534  2.8742 -1.3149
49115SOL     OW57658   6.118   3.418   1.852 -0.3519 -0.5192  0.2321
49115SOL    HW157659   6.104   3.510   1.875 -2.2816 -0.3871 -1.1940
49115SOL    HW257660   6.144   3.421   1.759 -1.2758 -1.4418 -0.0655
49116SOL     OW57661   9.370   7.780  11.011 -0.1226 -0.0889 -0.0611
49116SOL    HW157662   9.288   7.822  11.036  0.3168  1.2959 -0.8139
49116SOL    HW257663   9.345   7.710  10.951 -0.8507 -0.7376  0.9637
49117SOL     OW57664  12.460   3.510   9.569 -0.1795  0.9513 -0.3373
49117SOL    HW157665  12.529   3.484   9.630 -1.3658  0.0615  0.6744
49117SOL    HW257666  12.460   3.442   9.501 -0.6643  0.4381  0.1678
49118SOL     OW57667   4.192   4.746   8.067  0.2412  0.3705 -0.3459
49118SOL    HW157668   4.223   4.690   8.138  0.4752  1.5013  0.4742
49118SOL    HW257669   4.142   4.815   8.111  0.4592  1.1330 -1.2657
49119SOL     OW57670  11.247   7.937  10.221 -0.1627 -0.0302  0.4336
49119SOL    HW157671  11.277   7.855  10.182  0.5951  0.5948 -0.3181
49119SOL    HW257672  11.291   7.941  10.306  1.3616  0.5424 -0.3628
49120SOL     OW57673   2.612  11.979   1.137 -0.0088 -0.0513 -0.0433
49120SOL    HW157674   2.612  11.913   1.068  4.8970 -1.0609  0.5231
49120SOL    HW257675   2.645  11.933   1.214 -3.7941  1.3894  2.7467
49121SOL     OW57676   2.107   9.635   3.852 -0.2638  0.1481 -0.0420
49121SOL    HW157677   2.112   9.704   3.786 -0.4786 -0.8958 -1.1773
49121SOL    HW257678   2.072   9.559   3.806  1.8759 -1.3706  0.6321
49122SOL     OW57679   3.409   9.809   8.165 -0.1994  0.0867  1.0948
49122SOL    HW157680   3.446   9.760   8.091  0.6395  0.8284  1.0010
49122SOL    HW257681   3.374   9.889   8.127 -2.4852 -0.8315  1.1065
49123SOL     OW57682   2.861  10.758   2.410 -0.0765  1.0506 -0.0392
49123SOL    HW157683   2.821  10.762   2.324  0.2552  0.2753 -0.2349
49123SOL    HW257684   2.921  10.833   2.412 -1.8183  2.4766  0.4276
49124SOL     OW57685   8.379  12.271   9.656  0.4201  0.1103  0.1953
49124SOL    HW157686   8.443  12.224   9.710 -1.2506  0.0148  2.2291
49124SOL    HW257687   8.309  12.294   9.717 -2.8732 -2.2363 -2.3355
49125SOL     OW57688   8.557   6.813   8.509 -0.3374  0.2511 -0.0784
49125SOL    HW157689   8.572   6.834   8.417 -0.8050  1.8724  0.1893
49125SOL    HW257690   8.498   6.738   8.506  0.0986 -0.0803 -1.0872
49126SOL     OW57691   5.031  10.036   2.676 -0.7728 -0.1625  0.0536
49126SOL    HW157692   5.062   9.980   2.605 -0.1959  2.0141 -1.5360
49126SOL    HW257693   5.105  10.044   2.736 -0.4056 -0.0946 -0.3994
49127SOL     OW57694   9.618   3.889   1.894 -0.2958 -0.7790  0.5503
49127SOL    HW157695   9.618   3.795   1.879 -0.2923 -0.8191  0.7848
49127SOL    HW257696   9.612   3.928   1.807 -1.5325 -1.0034  0.5233
49128SOL     OW57697   2.475   8.220   8.076 -0.0374 -0.2166  0.4617
49128SOL    HW157698   2.387   8.251   8.054  0.6016  0.4081 -1.4355
49128SOL    HW257699   2.519   8.298   8.110  1.0565  0.6866 -2.7243
49129SOL     OW57700   2.757   1.092   8.453  0.0896  0.1903  0.1688
49129SOL    HW157701   2.725   1.177   8.424 -0.1701 -0.0346 -0.2280
49129SOL    HW257702   2.774   1.044   8.371 -0.8210 -0.5211  0.3773
49130SOL     OW57703   9.271   3.327   2.056 -0.6210  0.5285 -0.0414
49130SOL    HW157704   9.274   3.376   1.974  0.8273  1.0770  0.3178
49130SOL    HW257705   9.329   3.252   2.041  0.3664  1.1105  0.7651
49131SOL     OW57706   5.339   7.930   2.883  0.0902  0.1451 -0.2388
49131SOL    HW157707   5.304   7.917   2.795 -1.3371  0.7449  0.2225
49131SOL    HW257708   5.323   8.023   2.901 -0.4821 -0.1805  1.0061
49132SOL     OW57709   5.725   3.259   1.746 -0.1916 -0.0529  0.2742
49132SOL    HW157710   5.685   3.296   1.668  2.7344  1.6696 -0.5400
49132SOL    HW257711   5.686   3.172   1.753 -0.9980 -0.0609 -2.7709
49133SOL     OW57712  10.358   2.975   4.616 -0.0778 -1.0519  0.2465
49133SOL    HW157713  10.317   2.988   4.531 -2.4682 -1.2499  1.2850
49133SOL    HW257714  10.313   3.036   4.674  1.8990 -0.5043  1.2959
49134SOL     OW57715   5.545   3.744   3.117  0.0917  0.4318  0.4856
49134SOL    HW157716   5.618   3.722   3.175 -0.2110  0.9411  1.0591
49134SOL    HW257717   5.574   3.821   3.069  0.8594 -0.7375 -0.9974
49135SOL     OW57718  10.210   6.810   6.287  0.0836  1.1109 -0.2446
49135SOL    HW157719  10.182   6.751   6.216  1.0008  1.2797 -0.7570
49135SOL    HW257720  10.259   6.754   6.347 -2.5959  0.4441  1.5230
49136SOL     OW57721   5.563   6.370   6.850 -0.4391  0.1801  0.4168
49136SOL    HW157722   5.648   6.407   6.874 -0.5901 -0.3890  1.8936
49136SOL    HW257723   5.508   6.447   6.833  0.1896  0.5626  0.0743
49137SOL     OW57724   9.351  12.898   9.377  0.0230  0.0878  0.4164
49137SOL    HW157725   9.369  12.804   9.371  3.4188  0.6130  0.8329
49137SOL    HW257726   9.411  12.930   9.444  1.0666  3.0223 -1.7347
49138SOL     OW57727   9.815   6.705   2.785 -0.0884  0.1630  0.3618
49138SOL    HW157728   9.767   6.785   2.761 -0.6329 -0.1176  0.4937
49138SOL    HW257729   9.904   6.720   2.753 -0.1189  0.9280  0.6072
49139SOL     OW57730   1.514  10.350   0.241  0.2707  0.3984 -0.0252
49139SOL    HW157731   1.479  10.282   0.298  0.5410 -0.0524 -0.3980
49139SOL    HW257732   1.582  10.392   0.293 -0.6149  1.1049  0.6081
49140SOL     OW57733  12.627  12.444  11.927  0.4412 -0.1505  0.5421
49140SOL    HW157734  12.542  12.488  11.931 -0.7086 -2.0249 -1.2200
49140SOL    HW257735  12.668  12.463  12.011 -1.7782  0.6901  1.5122
49141SOL     OW57736   5.274  10.368   2.140  0.1600  0.4741  0.1665
49141SOL    HW157737   5.368  10.349   2.142  0.3548  1.3455 -0.4101
49141SOL    HW257738   5.267  10.461   2.163 -0.6624  0.1284  1.4543
49142SOL     OW57739   4.340   7.288   6.066  0.2802  0.5796  0.2913
49142SOL    HW157740   4.411   7.326   6.117  0.5920 -1.7044  1.6724
49142SOL    HW257741   4.368   7.198   6.049 -1.8342 -0.0790  0.0227
49143SOL     OW57742   6.564   9.245   9.980 -0.6697 -0.1547 -0.1843
49143SOL    HW157743   6.604   9.168   9.941 -1.4563 -1.6032  1.6952
49143SOL    HW257744   6.517   9.288   9.908 -1.7031 -2.4294 -0.9436
49144SOL     OW57745   2.230   5.261   1.237 -0.2026  0.1622  0.2401
49144SOL    HW157746   2.309   5.207   1.240 -0.3317 -0.0596  3.7027
49144SOL    HW257747   2.158   5.197   1.240 -0.4547  0.4317 -0.0524
49145SOL     OW57748   1.947   3.824   6.061  0.3102  0.3187  0.3535
49145SOL    HW157749   1.893   3.902   6.068  0.8665  0.6938  0.5801
49145SOL    HW257750   1.888   3.757   6.027 -0.2694  0.7382  0.5036
49146SOL     OW57751   2.870   0.537   1.590 -0.0364  0.0168 -0.5908
49146SOL    HW157752   2.788   0.586   1.590 -0.4507 -0.5731  1.5174
49146SOL    HW257753   2.844   0.447   1.611  1.2015  0.0104  1.1396
49147SOL     OW57754  11.671  11.233  12.471  0.1874 -0.0882 -0.3052
49147SOL    HW157755  11.625  11.211  12.552  1.8056  0.8480  0.9370
49147SOL    HW257756  11.619  11.303  12.432  0.3947  0.8031  0.9577
49148SOL     OW57757  10.986   1.362   8.779 -0.2175 -0.0789  0.0137
49148SOL    HW157758  10.891   1.372   8.770 -0.0023  0.6370 -1.9091
49148SOL    HW257759  11.019   1.368   8.690  1.7108  0.2669  0.7104
49149SOL     OW57760   4.310   1.164  12.149  0.3454  0.0039 -0.5602
49149SOL    HW157761   4.356   1.192  12.069 -2.3210  3.0150 -1.2430
49149SOL    HW257762   4.232   1.120  12.117  0.0766 -0.2678  0.4362
49150SOL     OW57763   5.259   5.723   2.539  1.0196 -0.2589  0.2823
49150SOL    HW157764   5.248   5.690   2.450 -0.7491  0.1222  0.3332
49150SOL    HW257765   5.308   5.805   2.529  0.8799 -0.2509 -0.3243
49151SOL     OW57766  12.684   4.678  12.681  0.1451 -0.1577  0.4353
49151SOL    HW157767  12.608   4.636  12.721 -0.4234  0.8049  0.3871
49151SOL    HW257768  12.717   4.738  12.748  0.8579 -0.5533  0.4496
49152SOL     OW57769   5.703   4.395   1.951 -0.1632  0.0049 -0.7913
49152SOL    HW157770   5.730   4.473   1.999 -2.4388  0.4525 -0.1095
49152SOL    HW257771   5.657   4.429   1.874 -0.1013 -0.6738 -1.1317
49153SOL     OW57772   2.126   2.030   4.514 -0.4989 -0.1227  0.1715
49153SOL    HW157773   2.182   1.953   4.523 -0.2371  0.0160 -0.2638
49153SOL    HW257774   2.149   2.067   4.429 -0.1763  0.7919  0.6389
49154SOL     OW57775  11.720  12.168   7.591 -0.2815  0.1577 -0.0670
49154SOL    HW157776  11.730  12.091   7.648 -1.0437 -0.1551 -0.3461
49154SOL    HW257777  11.762  12.239   7.639  0.9046 -0.5298 -0.0245
49155SOL     OW57778   0.589   1.931   3.782 -0.1634 -0.6342  0.0665
49155SOL    HW157779   0.635   1.937   3.698 -1.4782 -0.7145 -0.6861
49155SOL    HW257780   0.645   1.979   3.843  0.6478 -0.2633 -0.9318
49156SOL     OW57781   2.749  12.734   6.274  0.7320  0.0523  0.0513
49156SOL    HW157782   2.754  12.640   6.288 -0.5429  0.1144  1.1334
49156SOL    HW257783   2.768  12.746   6.182  0.9642 -1.2655 -0.0870
49157SOL     OW57784   4.193   4.471   2.207 -0.6412 -0.0873  0.4259
49157SOL    HW157785   4.206   4.546   2.265 -1.7031  1.1191 -0.8346
49157SOL    HW257786   4.117   4.426   2.243 -0.1827 -0.4132  1.0107
49158SOL     OW57787   4.782   9.142   4.480 -0.0943 -0.0706 -0.2186
49158SOL    HW157788   4.819   9.185   4.403  0.4292  1.8481  1.0366
49158SOL    HW257789   4.689   9.167   4.480 -0.6408 -1.9476 -1.4211
49159SOL     OW57790   9.637   1.365   5.201 -0.3927 -0.2931 -0.2887
49159SOL    HW157791   9.713   1.422   5.213 -0.4940 -0.1408 -0.3593
49159SOL    HW257792   9.599   1.355   5.288  0.6081 -1.6454  0.0107
49160SOL     OW57793  12.397  12.554   3.965 -0.3001  0.0627  0.0272
49160SOL    HW157794  12.365  12.569   4.054  2.3363 -1.4844  1.3565
49160SOL    HW257795  12.404  12.642   3.927 -0.2626  0.8832  1.8174
49161SOL     OW57796   9.559   3.866   4.881  0.1050 -0.1289  0.1095
49161SOL    HW157797   9.561   3.928   4.808  0.6303 -0.1545  0.1011
49161SOL    HW257798   9.477   3.818   4.870 -0.1460  0.3367 -0.0729
49162SOL     OW57799   4.017   5.318   9.480  0.4287 -0.1126 -0.5658
49162SOL    HW157800   3.997   5.410   9.496 -1.8225 -1.0057  2.9000
49162SOL    HW257801   4.003   5.306   9.386 -1.6642  2.5973 -0.7209
49163SOL     OW57802   5.752  10.199   6.956 -0.6198 -0.1717 -0.4685
49163SOL    HW157803   5.779  10.130   7.017 -0.0823  0.2194 -0.2498
49163SOL    HW257804   5.704  10.261   7.011 -0.0947  0.2047 -0.4319
49164SOL     OW57805   0.297   6.408   9.316 -0.0981 -0.0945  0.0805
49164SOL    HW157806   0.352   6.481   9.289  3.0387 -1.4140  2.4137
49164SOL    HW257807   0.273   6.427   9.407  0.3816 -1.6997  0.5747
49165SOL     OW57808   0.829   9.880  11.351  0.2786 -0.2960  0.0897
49165SOL    HW157809   0.892   9.935  11.303 -1.5315  1.9965  0.1545
49165SOL    HW257810   0.813   9.928  11.432 -2.5367 -0.0523 -0.5272
49166SOL     OW57811  10.927   3.075   4.012  0.1926 -0.0035 -0.0593
49166SOL    HW157812  10.984   3.151   4.021  0.8288 -0.7626  3.6750
49166SOL    HW257813  10.986   3.003   3.990  0.2461 -0.2301  0.8150
49167SOL     OW57814   5.995   8.603   2.062  0.0547  0.1937 -0.0013
49167SOL    HW157815   6.062   8.536   2.069  1.2613  1.3968  0.4310
49167SOL    HW257816   5.952   8.586   1.979 -0.5573 -1.8702  0.6745
49168SOL     OW57817   1.835   8.146   2.927  0.1454  0.3251  0.6818
49168SOL    HW157818   1.890   8.169   3.002 -2.2055  0.3298  2.5090
49168SOL    HW257819   1.828   8.227   2.877 -0.0989  0.9662  1.7264
49169SOL     OW57820   2.072   8.521  12.815 -0.2780  0.0818 -0.3287
49169SOL    HW157821   2.102   8.601  12.859  0.3450 -0.3094 -0.0333
49169SOL    HW257822   2.067   8.456  12.885  4.4849 -1.6928 -1.2221
49170SOL     OW57823   8.976  10.350   9.343 -0.8474  0.0868  0.7001
49170SOL    HW157824   8.995  10.430   9.295 -0.4263 -1.7853 -2.5987
49170SOL    HW257825   9.054  10.336   9.398 -0.0359  0.9400 -0.1843
49171SOL     OW57826  12.229   5.741   6.756  0.0703  0.2288 -0.3687
49171SOL    HW157827  12.165   5.798   6.714 -0.7993 -1.3025 -1.2157
49171SOL    HW257828  12.182   5.701   6.829  0.3143 -0.2805 -0.4863
49172SOL     OW57829   3.014   3.072  12.673  0.3199  0.1380  0.1005
49172SOL    HW157830   2.950   3.085  12.603 -0.6643 -1.8909  0.5204
49172SOL    HW257831   2.969   3.102  12.753  0.5863  0.3743  0.1635
49173SOL     OW57832   5.107   7.355   5.453  0.5838 -0.6223  0.2797
49173SOL    HW157833   5.090   7.267   5.420  1.6292 -0.4163 -0.8745
49173SOL    HW257834   5.024   7.401   5.443  0.6560 -0.8025 -1.3565
49174SOL     OW57835   9.086   0.005   4.958  0.1767  0.2913 -0.1326
49174SOL    HW157836   9.069   0.052   4.876  0.0590  0.0048 -0.2735
49174SOL    HW257837   9.132   0.069   5.013 -1.1856  1.0126  0.1956
49175SOL     OW57838   1.422   3.775   0.162  0.0820 -0.2439  0.1820
49175SOL    HW157839   1.369   3.702   0.132 -0.6217 -0.1690  1.1750
49175SOL    HW257840   1.364   3.851   0.157  0.5344  0.0975 -0.0228
49176SOL     OW57841   4.591   6.591   9.727  0.1211 -0.5013 -0.1609
49176SOL    HW157842   4.651   6.592   9.653 -0.5014  0.9818 -0.6763
49176SOL    HW257843   4.529   6.662   9.709 -1.5857 -1.7404  0.5238
49177SOL     OW57844  10.998   8.224   9.969 -0.0109 -0.6052  0.1983
49177SOL    HW157845  10.957   8.166  10.033 -1.4384  1.0164  0.8294
49177SOL    HW257846  11.088   8.191   9.962 -0.1519 -1.5785  2.1221
49178SOL     OW57847   5.538   4.828   7.458 -0.5168 -0.2752  0.5430
49178SOL    HW157848   5.495   4.904   7.420 -0.0776  0.1849  0.9459
49178SOL    HW257849   5.545   4.849   7.551 -2.1457 -1.6364  1.0395
49179SOL     OW57850   4.061  12.536   3.735 -0.0449  0.0081 -0.6293
49179SOL    HW157851   4.009  12.616   3.742 -1.2521 -0.8096  0.2114
49179SOL    HW257852   4.147  12.565   3.705 -0.0402  1.7676  0.9436
49180SOL     OW57853   7.572   9.332  11.767  0.1742  0.6927  0.8200
49180SOL    HW157854   7.624   9.390  11.822  0.8122  0.7645  0.1628
49180SOL    HW257855   7.608   9.245  11.782 -0.1427  0.6079  1.0805
49181SOL     OW57856   9.061   1.281  11.389  0.1201  0.4130 -0.0904
49181SOL    HW157857   8.991   1.223  11.421 -0.0359 -0.5029 -1.9407
49181SOL    HW257858   9.142   1.241  11.422 -0.1020  0.2026  0.2083
49182SOL     OW57859  10.823   8.272  11.153 -0.1126  0.1177 -0.1524
49182SOL    HW157860  10.849   8.281  11.245 -0.1410  0.0420 -0.1364
49182SOL    HW257861  10.890   8.214  11.116 -0.2815 -0.1092 -0.1018
49183SOL     OW57862   6.107   9.018  12.274 -0.1998  0.0641  0.1973
49183SOL    HW157863   6.046   9.052  12.208 -0.2415  0.5594  0.4865
49183SOL    HW257864   6.050   8.986  12.344 -0.1274  1.4438  0.9205
49184SOL     OW57865   8.291  11.949  10.243  0.0602  0.0553 -0.2173
49184SOL    HW157866   8.384  11.967  10.226  0.1914  0.3837  0.7380
49184SOL    HW257867   8.262  11.899  10.168  0.5781  1.3699 -1.3451
49185SOL     OW57868   7.027   2.764   1.039  0.0441 -0.3891  0.0680
49185SOL    HW157869   7.054   2.715   0.962 -1.1547 -1.7142  0.4486
49185SOL    HW257870   7.090   2.836   1.046  0.6226 -0.6957 -1.6830
49186SOL     OW57871  12.572  12.455  10.776  0.1627 -0.8716 -0.0621
49186SOL    HW157872  12.571  12.376  10.722 -0.4204  1.4819 -3.8829
49186SOL    HW257873  12.485  12.493  10.764  1.4406  1.9857 -1.1942
49187SOL     OW57874   0.312   0.267   9.029  0.0758 -0.7984  0.1474
49187SOL    HW157875   0.297   0.352   8.989 -0.6010 -1.0809 -0.2061
49187SOL    HW257876   0.302   0.204   8.957  2.5787 -1.0674 -0.0759
49188SOL     OW57877   5.838   6.063   3.504  0.5747 -0.1970  0.3428
49188SOL    HW157878   5.892   6.052   3.583 -0.5793  0.0227  1.1895
49188SOL    HW257879   5.887   6.125   3.450  0.5334  1.0780  1.7070
49189SOL     OW57880   0.841  11.641   6.494  0.2445  0.4239 -0.3539
49189SOL    HW157881   0.776  11.623   6.425 -1.2640  0.5207  0.9905
49189SOL    HW257882   0.921  11.601   6.462 -1.0683 -1.8543 -0.9983
49190SOL     OW57883   0.551   0.326   7.008  0.0807  0.1191  0.2695
49190SOL    HW157884   0.562   0.420   7.026  0.0331  0.2954 -0.5772
49190SOL    HW257885   0.593   0.313   6.923 -0.4008 -0.5200  0.1214
49191SOL     OW57886  11.749   7.615   4.429  0.1107  0.2709  0.0290
49191SOL    HW157887  11.781   7.585   4.514 -0.9574  0.3881  0.4806
49191SOL    HW257888  11.809   7.686   4.405  0.3795  0.2830  0.7149
49192SOL     OW57889   8.168  11.348   7.487  0.3727 -0.1371 -0.1834
49192SOL    HW157890   8.259  11.370   7.506  0.5143 -0.8984  0.0554
49192SOL    HW257891   8.167  11.252   7.478 -0.6493 -0.3156  1.2993
49193SOL     OW57892   4.517   3.154   3.953 -0.3301  0.1921  0.2239
49193SOL    HW157893   4.572   3.172   3.876 -1.3726  0.6247 -0.4323
49193SOL    HW257894   4.558   3.077   3.993 -0.1182 -0.4427 -1.1227
49194SOL     OW57895   5.334  10.774   5.353  0.3359  0.0623 -0.0763
49194SOL    HW157896   5.261  10.737   5.303  1.3038 -0.5093 -1.1194
49194SOL    HW257897   5.304  10.862   5.377 -0.3254  0.2042 -1.3257
49195SOL     OW57898   0.042   5.265   7.414 -0.1876 -0.6997  0.0029
49195SOL    HW157899   0.024   5.258   7.320 -0.1594 -1.4177  0.0490
49195SOL    HW257900  -0.045   5.265   7.454 -0.1787 -1.8834  0.0678
49196SOL     OW57901   1.569   4.385  12.043  0.2306 -0.5412 -0.4841
49196SOL    HW157902   1.662   4.389  12.017  0.4967 -1.7320  0.2147
49196SOL    HW257903   1.522   4.421  11.968  1.1021 -2.2894 -1.9595
49197SOL     OW57904  12.446   8.847   8.042 -0.3728  0.0672  0.5955
49197SOL    HW157905  12.379   8.894   8.092 -1.0426 -1.8566  1.5857
49197SOL    HW257906  12.461   8.766   8.091  3.0648  0.6230  0.6597
49198SOL     OW57907   1.489   7.133   4.774  0.6336 -0.0049 -0.1332
49198SOL    HW157908   1.423   7.068   4.749  1.7978 -1.8923  1.3835
49198SOL    HW257909   1.563   7.116   4.716  0.1557  1.5102 -1.2313
49199SOL     OW57910   3.879  10.014   6.553  0.0253  0.2131  0.1740
49199SOL    HW157911   3.952  10.073   6.535 -0.8387  1.8185  1.6243
49199SOL    HW257912   3.811  10.071   6.589 -1.3922 -1.4697  0.2822
49200SOL     OW57913   2.164   4.542   4.306 -0.1595  0.1392  0.5709
49200SOL    HW157914   2.142   4.629   4.272  2.0399  1.0639  1.3691
49200SOL    HW257915   2.133   4.543   4.396 -1.5373 -0.5331  0.1467
49201SOL     OW57916   5.648  12.809   0.177  0.5044 -0.3121 -0.1116
49201SOL    HW157917   5.565  12.772   0.204  1.5467 -0.9001  2.6467
49201SOL    HW257918   5.626  12.870   0.106 -2.0410 -1.4566 -0.3939
49202SOL     OW57919  11.565   4.821   8.822 -0.0781 -0.5728  0.0165
49202SOL    HW157920  11.657   4.811   8.847  0.7123 -0.9733 -2.7177
49202SOL    HW257921  11.524   4.739   8.850  0.4304 -0.4765  1.0909
49203SOL     OW57922   0.167  11.109   6.333 -0.1545  0.0775  0.1527
49203SOL    HW157923   0.095  11.171   6.348 -0.0103  0.1651  0.4889
49203SOL    HW257924   0.201  11.133   6.247  0.1671  0.7351  0.4543
49204SOL     OW57925  12.956   7.061   4.393 -0.4220  0.0158  0.1288
49204SOL    HW157926  12.989   7.056   4.304 -1.8320 -2.2681 -0.3350
49204SOL    HW257927  12.979   6.977   4.433  0.1036  0.9456  1.9314
49205SOL     OW57928  11.987   1.250   8.083  0.2864  0.0460  0.0786
49205SOL    HW157929  11.902   1.211   8.063 -0.6530  1.2019  1.6611
49205SOL    HW257930  12.002   1.313   8.012 -0.9814  1.0388  0.6683
49206SOL     OW57931  11.678   2.571   1.682 -0.0539  0.3846  0.3502
49206SOL    HW157932  11.730   2.620   1.619 -0.5277  2.0738  1.2076
49206SOL    HW257933  11.612   2.526   1.629  1.2482 -0.4776 -0.5823
49207SOL     OW57934   4.471   4.511   1.291  0.0918 -0.2059 -0.6228
49207SOL    HW157935   4.452   4.605   1.292 -0.1340 -0.2393 -1.4039
49207SOL    HW257936   4.450   4.483   1.202  3.1916 -0.3548 -1.4309
49208SOL     OW57937   3.439  10.113   8.390  0.0394 -0.3771 -1.0001
49208SOL    HW157938   3.418  10.043   8.453 -0.3955 -0.1599 -0.9031
49208SOL    HW257939   3.532  10.101   8.372  0.4791  0.2866  0.6009
49209SOL     OW57940   7.990   7.108   7.028 -0.0128  0.0639  0.4902
49209SOL    HW157941   8.012   7.168   7.099  0.8292 -0.6785  0.8717
49209SOL    HW257942   8.012   7.022   7.062 -1.5639 -0.5228  0.0986
49210SOL     OW57943   6.228   9.429   6.597  0.4209  0.1351 -0.2100
49210SOL    HW157944   6.258   9.380   6.521 -0.1104  1.8093 -1.5632
49210SOL    HW257945   6.302   9.484   6.622  0.6160 -0.4510  0.5611
49211SOL     OW57946   4.156   7.891  11.705 -0.3308  0.0421 -0.3448
49211SOL    HW157947   4.131   7.889  11.797  2.6071  2.6101  0.7012
49211SOL    HW257948   4.224   7.824  11.697  0.6233  0.9576 -0.1507
49212SOL     OW57949  12.473   0.861   4.566 -0.1911 -0.2824 -0.3715
49212SOL    HW157950  12.420   0.845   4.644 -0.2923 -2.0061 -0.7640
49212SOL    HW257951  12.436   0.803   4.499  0.3757  0.6037 -1.4946
49213SOL     OW57952   8.650  12.024  11.933 -0.1221 -0.1435 -0.1302
49213SOL    HW157953   8.712  12.096  11.921 -1.7270  1.3029 -0.0696
49213SOL    HW257954   8.644  12.014  12.028 -0.2435 -0.0324 -0.1255
49214SOL     OW57955   5.112  12.769   3.409 -0.1627  0.0459  0.3927
49214SOL    HW157956   5.124  12.813   3.493 -2.6082 -0.3316  1.0013
49214SOL    HW257957   5.030  12.804   3.374 -0.2876 -1.3407 -0.8372
49215SOL     OW57958   3.824   0.193   6.212 -0.2720  0.2018  0.3316
49215SOL    HW157959   3.758   0.223   6.150  1.8914  1.5764 -1.4725
49215SOL    HW257960   3.899   0.250   6.197  1.7212 -1.9152  1.5476
49216SOL     OW57961  11.491   4.498   1.952  0.1843  0.2176 -0.0392
49216SOL    HW157962  11.511   4.465   1.865 -1.3155 -0.4185 -0.1833
49216SOL    HW257963  11.405   4.540   1.943 -0.3326 -0.4870  1.2722
49217SOL     OW57964   4.058  12.967   5.563  0.3680 -0.1880 -0.0234
49217SOL    HW157965   4.128  12.922   5.610 -0.3819 -0.6761  0.6642
49217SOL    HW257966   4.074  13.059   5.580  0.1066 -0.3538  1.2351
49218SOL     OW57967   9.881   2.036   3.277 -0.1979 -0.9784  0.2962
49218SOL    HW157968   9.913   2.120   3.245  0.1751 -0.8346  1.0315
49218SOL    HW257969   9.844   1.993   3.200 -3.2604  1.1224  0.4096
49219SOL     OW57970  10.119   5.512   1.135 -0.1102  0.0130 -0.0009
49219SOL    HW157971  10.141   5.438   1.192 -0.4890 -0.2523 -0.1975
49219SOL    HW257972  10.146   5.483   1.047  0.6060  0.4750  0.0519
49220SOL     OW57973   3.333   2.537   0.736  0.6787 -0.2239 -0.3323
49220SOL    HW157974   3.317   2.445   0.716  1.6791 -0.8612  1.6000
49220SOL    HW257975   3.275   2.557   0.809  0.1894  0.8099 -0.9798
49221SOL     OW57976   5.279   1.878   2.350 -0.1285  0.3680  0.6237
49221SOL    HW157977   5.260   1.815   2.280 -0.9212  1.0907  0.1778
49221SOL    HW257978   5.333   1.829   2.412  1.2039 -0.0902 -0.8272
49222SOL     OW57979   3.008   9.734   1.920 -0.0665 -0.1558 -0.2228
49222SOL    HW157980   2.959   9.816   1.917 -0.9371 -0.6109  0.9327
49222SOL    HW257981   2.950   9.670   1.880 -0.9818 -0.9377  2.1783
49223SOL     OW57982  11.863   9.041  11.497  0.5555 -0.4122 -0.0333
49223SOL    HW157983  11.859   9.062  11.404  2.4382 -0.9370 -0.2728
49223SOL    HW257984  11.821   8.955  11.504  0.1056 -0.2207 -0.3310
49224SOL     OW57985  11.616   8.460   2.115  0.2599 -0.0439 -0.1502
49224SOL    HW157986  11.562   8.387   2.085  0.9434 -0.1007 -1.3140
49224SOL    HW257987  11.575   8.538   2.076  0.2866  0.0560  0.0176
49225SOL     OW57988   2.931   7.707  10.711 -0.6487 -0.1122 -0.7731
49225SOL    HW157989   2.864   7.651  10.751 -0.3476 -0.1609 -0.3313
49225SOL    HW257990   2.913   7.702  10.617 -0.5434 -1.0599 -0.7484
49226SOL     OW57991  11.366  10.022   2.667 -0.5223 -0.5715  0.1998
49226SOL    HW157992  11.288  10.043   2.616 -2.7078 -3.5240  1.9750
49226SOL    HW257993  11.412   9.956   2.615  0.8849  1.1148 -0.8117
49227SOL     OW57994   8.949  10.678   4.111 -0.2069  0.1090 -0.4769
49227SOL    HW157995   8.972  10.685   4.019 -1.9667  1.9818 -0.8718
49227SOL    HW257996   9.011  10.736   4.156 -0.5871  0.7811 -0.7893
49228SOL     OW57997   6.619   8.590   4.837  0.3649  0.7039 -0.3497
49228SOL    HW157998   6.558   8.591   4.763 -0.4716 -1.4959  0.2213
49228SOL    HW257999   6.705   8.604   4.797  0.3946 -3.4374 -2.3712
49229SOL     OW58000   5.769  10.153   2.633  0.2367  0.6569 -0.1663
49229SOL    HW158001   5.741  10.128   2.545 -2.7614 -1.5567  1.2394
49229SOL    HW258002   5.695  10.204   2.668 -0.0105 -1.0308  2.0067
49230SOL     OW58003   3.175   5.314   5.797 -0.0641 -0.0500 -0.5602
49230SOL    HW158004   3.271   5.309   5.790  0.1346 -1.7701  2.0340
49230SOL    HW258005   3.151   5.390   5.744  2.7543  0.5786 -1.0897
49231SOL     OW58006   9.577   8.982  12.210  0.1220  0.3106 -0.4958
49231SOL    HW158007   9.601   9.042  12.139 -0.5758 -1.6564 -2.5276
49231SOL    HW258008   9.484   8.965  12.196  0.0444 -0.3741  0.7260
49232SOL     OW58009   8.930   7.395   1.420  0.4915 -0.5424 -0.1353
49232SOL    HW158010   8.933   7.480   1.375 -0.5653 -1.3309 -1.8024
49232SOL    HW258011   8.938   7.331   1.350 -1.1631 -1.8465  0.8022
49233SOL     OW58012   0.854   8.971   4.448 -0.4744 -0.2567 -0.1604
49233SOL    HW158013   0.927   8.913   4.428 -1.5233 -2.0321  0.8588
49233SOL    HW258014   0.856   9.038   4.380  1.4324 -0.8845 -0.7647
49234SOL     OW58015   2.568   3.401   1.793  0.9617  0.1664  0.2644
49234SOL    HW158016   2.611   3.382   1.709 -0.4647 -1.1546 -0.2041
49234SOL    HW258017   2.480   3.429   1.769  0.3638 -0.7184  1.3189
49235SOL     OW58018   3.252   4.531  10.349 -0.0883  0.0405 -0.2390
49235SOL    HW158019   3.162   4.521  10.317  0.1109 -0.8595 -0.5716
49235SOL    HW258020   3.263   4.459  10.411  0.1703  0.5936  0.3669
49236SOL     OW58021   0.326   7.181  12.610 -0.4019  0.1836  0.0878
49236SOL    HW158022   0.288   7.217  12.691 -2.3983 -0.8584 -0.3186
49236SOL    HW258023   0.346   7.090  12.631 -0.7263 -0.0343 -0.5260
49237SOL     OW58024  10.364  12.808  12.792 -0.0996  0.0227  0.9149
49237SOL    HW158025  10.408  12.892  12.782  0.0248 -0.0202  1.1164
49237SOL    HW258026  10.271  12.829  12.782  0.0223 -0.0613 -0.7278
49238SOL     OW58027   0.927   6.687   0.458 -0.3899  0.5579 -0.3298
49238SOL    HW158028   0.930   6.607   0.405  1.8468  0.3158  0.0583
49238SOL    HW258029   0.927   6.758   0.395  5.0837  0.3716 -0.9508
49239SOL     OW58030   3.982   2.582   4.485 -0.0376  0.1920  0.4920
49239SOL    HW158031   4.023   2.635   4.416 -0.6069 -0.6393 -0.5101
49239SOL    HW258032   3.892   2.569   4.454 -0.4528  0.2272  1.6473
49240SOL     OW58033  11.827   1.748  11.473 -0.9949  0.2472  0.2363
49240SOL    HW158034  11.859   1.734  11.562  0.6238 -2.1213 -0.6010
49240SOL    HW258035  11.846   1.840  11.455  1.2146  0.1056  1.4417
49241SOL     OW58036  11.413  10.448   7.306 -0.2191 -0.1216  0.0082
49241SOL    HW158037  11.478  10.390   7.266 -0.3613 -0.0382 -0.3560
49241SOL    HW258038  11.401  10.413   7.394 -1.2777 -1.4711 -0.6245
49242SOL     OW58039  11.328  12.308   2.491  0.3624 -0.2894  0.4548
49242SOL    HW158040  11.381  12.362   2.432 -1.1894  1.1564  0.2899
49242SOL    HW258041  11.380  12.300   2.570  0.5838  1.6982  0.5778
49243SOL     OW58042   1.406   6.231   1.887 -0.2481  0.3349 -0.3378
49243SOL    HW158043   1.316   6.211   1.861 -0.1284  0.0247 -0.5258
49243SOL    HW258044   1.451   6.252   1.805 -0.3847  1.4621 -0.1385
49244SOL     OW58045  11.789   4.332   8.076 -0.3478 -0.6147  0.2998
49244SOL    HW158046  11.711   4.278   8.089 -0.1714 -0.3290  3.2258
49244SOL    HW258047  11.860   4.269   8.067 -0.7403 -0.8677 -1.1963
49245SOL     OW58048   6.230  11.435  11.401  0.1742 -0.0765 -0.1748
49245SOL    HW158049   6.143  11.422  11.365  0.2105  1.0747 -0.7182
49245SOL    HW258050   6.288  11.437  11.325  0.7650 -1.4284  0.2188
49246SOL     OW58051   4.234   7.495   2.394  0.2794  0.1037  0.1561
49246SOL    HW158052   4.299   7.428   2.417  0.5922  1.0038  2.1287
49246SOL    HW258053   4.248   7.511   2.300  0.3406 -2.3794 -0.3251
49247SOL     OW58054   1.342  12.726   6.161 -0.2066  0.1364 -0.2770
49247SOL    HW158055   1.431  12.743   6.193 -0.2494 -0.6622  0.2937
49247SOL    HW258056   1.286  12.741   6.237 -0.7616  2.2623 -1.0386
49248SOL     OW58057   1.896   3.474   3.258  0.8582 -0.4013  0.5186
49248SOL    HW158058   1.935   3.387   3.272 -0.3176 -0.8389  1.1523
49248SOL    HW258059   1.941   3.507   3.179 -0.2576 -2.5545 -1.1233
49249SOL     OW58060   5.929   1.229  10.380  0.5743  0.3027 -0.1176
49249SOL    HW158061   5.837   1.252  10.369  0.3258 -0.0079  1.1250
49249SOL    HW258062   5.973   1.269  10.305 -0.6889 -0.3020 -1.2223
49250SOL     OW58063   9.788   6.341  11.199 -0.3615 -0.2335  0.4395
49250SOL    HW158064   9.875   6.312  11.171 -0.7549 -0.9547 -0.0621
49250SOL    HW258065   9.803   6.428  11.237  0.6580 -0.5615  0.8343
49251SOL     OW58066   3.180   7.786   2.533 -0.0020  0.3176  0.2736
49251SOL    HW158067   3.267   7.753   2.556 -0.3078  0.3119  1.4468
49251SOL    HW258068   3.119   7.724   2.573 -0.5656  0.3042 -0.5650
49252SOL     OW58069  11.160   2.410   2.168 -0.3265  0.4360  0.5690
49252SOL    HW158070  11.220   2.485   2.163  0.5105 -0.1149  1.9149
49252SOL    HW258071  11.184   2.355   2.093 -0.2748  1.0236  0.1489
49253SOL     OW58072   1.710  11.805  12.958 -0.8531 -0.4583  0.6405
49253SOL    HW158073   1.620  11.819  12.928 -1.3218 -2.6879  0.8266
49253SOL    HW258074   1.764  11.852  12.894 -2.1113  0.8421  0.4681
49254SOL     OW58075   5.163   0.747   7.549  0.1746 -0.0322 -0.1470
49254SOL    HW158076   5.134   0.687   7.618 -0.3505  1.1761  0.7114
49254SOL    HW258077   5.083   0.774   7.505  0.5427 -1.1891 -1.6176
49255SOL     OW58078   4.103   9.700   0.210  0.0150 -0.3558  0.5809
49255SOL    HW158079   4.011   9.675   0.216 -0.3878  1.0821  0.8927
49255SOL    HW258080   4.117   9.755   0.288  1.3555 -1.2085  0.9646
49256SOL     OW58081   9.447  11.305   3.913  0.0266 -0.2060  0.3972
49256SOL    HW158082   9.536  11.293   3.949 -0.0428 -0.3972  0.5078
49256SOL    HW258083   9.408  11.218   3.919 -0.0686 -0.1842  0.0760
49257SOL     OW58084   1.217   3.301  10.156  0.3786 -0.0745 -0.1293
49257SOL    HW158085   1.261   3.373  10.112 -1.2418  1.5475  0.7392
49257SOL    HW258086   1.155   3.344  10.216 -0.1919 -2.1899  0.9097
49258SOL     OW58087   3.415   4.273   5.173  0.6731  0.1394  0.0706
49258SOL    HW158088   3.457   4.353   5.143  1.2769 -0.1461  0.1303
49258SOL    HW258089   3.482   4.228   5.224  0.6970 -0.8819 -0.8064
49259SOL     OW58090   3.407   5.727   8.347 -0.0505  0.1437  0.1283
49259SOL    HW158091   3.429   5.635   8.335 -0.0203  0.2464 -0.6373
49259SOL    HW258092   3.351   5.748   8.272 -0.3663  0.6470  0.5023
49260SOL     OW58093   0.424   6.198  11.477  0.1033  0.3662 -0.0490
49260SOL    HW158094   0.515   6.187  11.450  0.3579  0.3608  0.7819
49260SOL    HW258095   0.397   6.113  11.510 -0.0398  0.5047  0.1957
49261SOL     OW58096   1.109  10.097   2.590 -0.1090  0.3634  0.2261
49261SOL    HW158097   1.060  10.048   2.523 -0.7365 -0.7069  1.4324
49261SOL    HW258098   1.058  10.178   2.601  0.0188  0.5682 -0.5992
49262SOL     OW58099   1.238   2.064   6.426 -0.2818  0.6187  0.6926
49262SOL    HW158100   1.319   2.086   6.472 -0.8441 -1.8440  3.1462
49262SOL    HW258101   1.258   1.983   6.378 -1.1311  0.2442  0.9417
49263SOL     OW58102  11.908   3.124   7.672  0.4224 -0.0052 -0.2998
49263SOL    HW158103  11.815   3.131   7.696  0.9832  1.2018  1.6442
49263SOL    HW258104  11.931   3.033   7.691  0.3455  0.4224  2.0329
49264SOL     OW58105   2.707   9.138   5.420  0.1094 -0.2979  0.1266
49264SOL    HW158106   2.651   9.214   5.406 -0.6164 -0.6586  0.9542
49264SOL    HW258107   2.724   9.104   5.333 -1.9656 -0.8836 -0.0970
49265SOL     OW58108   1.243  12.435   0.448  0.2594  0.0190 -0.2420
49265SOL    HW158109   1.292  12.432   0.366  2.2728  0.7853  0.8371
49265SOL    HW258110   1.152  12.444   0.422  0.9673  1.9853 -2.4054
49266SOL     OW58111   9.355   7.709   0.584 -0.0015  0.0416  0.1904
49266SOL    HW158112   9.265   7.688   0.557 -0.3895  2.1950 -0.3952
49266SOL    HW258113   9.344   7.761   0.664  0.5758  1.6692 -0.7402
49267SOL     OW58114   3.216   6.426   9.807  0.3659 -0.5870  0.1984
49267SOL    HW158115   3.230   6.396   9.717 -0.8316 -0.1088 -0.1628
49267SOL    HW258116   3.177   6.513   9.798  1.6195  0.1248  1.2110
49268SOL     OW58117  12.284   7.635   8.813 -0.2965 -0.0153 -0.2136
49268SOL    HW158118  12.266   7.544   8.837  0.3874 -0.0061  0.3865
49268SOL    HW258119  12.199   7.671   8.791 -0.9113 -0.2239  1.6151
49269SOL     OW58120  12.123   1.202   5.307  0.1663  0.3182  0.1446
49269SOL    HW158121  12.030   1.213   5.323  0.4974  1.0926  1.6619
49269SOL    HW258122  12.141   1.111   5.331  0.0509  0.5682  1.2185
49270SOL     OW58123   3.039  10.816   1.632  0.4194 -0.0887 -0.1930
49270SOL    HW158124   3.041  10.911   1.620 -1.6780  0.2412  1.3051
49270SOL    HW258125   3.086  10.801   1.714  3.5916 -0.8090 -2.0003
49271SOL     OW58126   1.862   0.722   6.135 -0.0366 -0.3349  0.5070
49271SOL    HW158127   1.825   0.770   6.209 -0.7378  1.7764 -1.0949
49271SOL    HW258128   1.804   0.647   6.125 -0.5852 -0.0583  1.4329
49272SOL     OW58129   6.243   6.641  10.216 -0.3298  0.0624 -0.2537
49272SOL    HW158130   6.306   6.570  10.207 -0.2842 -0.2525  1.8664
49272SOL    HW258131   6.159   6.596  10.230 -0.8119  0.4679 -1.7159
49273SOL     OW58132   3.255   0.548  12.876  0.0111  0.0168 -0.7409
49273SOL    HW158133   3.290   0.481  12.935 -0.2170  0.0376 -0.5783
49273SOL    HW258134   3.332   0.597  12.846  0.0340  0.8287  0.5440
49274SOL     OW58135   3.864  10.021  11.053  0.1840 -0.1095 -0.0858
49274SOL    HW158136   3.908  10.061  11.129  1.4141  0.6032 -1.1323
49274SOL    HW258137   3.930   9.962  11.016 -0.4454 -0.5396 -0.5390
49275SOL     OW58138  11.595   6.394   2.898  0.4547  0.2357 -0.1790
49275SOL    HW158139  11.671   6.395   2.840  0.6145  0.1040  0.0273
49275SOL    HW258140  11.604   6.314   2.950  0.9230  0.9061  0.8195
49276SOL     OW58141   3.854  12.956   8.684 -0.1783  0.4238  0.3058
49276SOL    HW158142   3.874  12.864   8.703  1.9218  0.6726 -0.3897
49276SOL    HW258143   3.760  12.957   8.666 -0.1443 -1.7236 -0.3262
49277SOL     OW58144   1.086   0.328   5.536  0.6015  0.3213  0.0308
49277SOL    HW158145   1.037   0.249   5.560  0.3051  0.1209 -1.1790
49277SOL    HW258146   1.175   0.298   5.524  0.8589  0.5090  1.2598
49278SOL     OW58147   2.940   1.907   2.558 -0.3499 -0.4723 -0.1222
49278SOL    HW158148   2.844   1.909   2.554 -0.3987 -1.8849 -0.4252
49278SOL    HW258149   2.959   1.828   2.610  0.6486 -1.0140 -1.2813
49279SOL     OW58150   9.649  10.329   9.090 -0.0620  0.4783 -0.4939
49279SOL    HW158151   9.603  10.346   9.172  0.0702  0.5524 -0.4352
49279SOL    HW258152   9.609  10.249   9.056  1.1639 -0.6338  0.5799
49280SOL     OW58153   5.725   9.264   9.459  0.2463  0.3436 -0.4987
49280SOL    HW158154   5.780   9.288   9.385 -0.2042 -0.9384 -1.2877
49280SOL    HW258155   5.764   9.309   9.534  2.2338 -0.3524 -1.0625
49281SOL     OW58156   8.354  10.516   5.735  0.1140  0.4279  0.1242
49281SOL    HW158157   8.361  10.501   5.641  2.6979  0.9640  0.1453
49281SOL    HW258158   8.296  10.447   5.766 -1.3634  0.6475 -1.9074
49282SOL     OW58159   1.713   9.262   8.224 -0.0958  0.3146 -0.3154
49282SOL    HW158160   1.679   9.351   8.227 -1.9574 -0.0356 -4.2676
49282SOL    HW258161   1.799   9.270   8.183  0.2049  0.3623  0.3179
49283SOL     OW58162   0.311   4.380   1.715  0.4932  0.1828  0.1788
49283SOL    HW158163   0.248   4.438   1.758  0.2503 -0.6017  0.9162
49283SOL    HW258164   0.280   4.292   1.736  0.7020 -0.2275 -1.1353
49284SOL     OW58165   3.612   6.038   9.024  0.3876 -0.2957  0.7227
49284SOL    HW158166   3.624   5.951   8.985  1.7353 -0.2971  1.0885
49284SOL    HW258167   3.517   6.048   9.032 -0.1882  0.3837 -4.0494
49285SOL     OW58168   1.842   6.355   9.443 -0.3691  0.0406 -0.0864
49285SOL    HW158169   1.920   6.335   9.390 -0.7481 -0.9613 -0.2861
49285SOL    HW258170   1.860   6.316   9.528  0.7096  2.5820  0.9468
49286SOL     OW58171   1.072   9.072  11.024  0.3017  0.0338  0.4523
49286SOL    HW158172   1.112   9.011  11.087 -0.6876 -1.2098 -0.0699
49286SOL    HW258173   0.980   9.073  11.048 -0.0601 -0.3319 -0.8507
49287SOL     OW58174   7.265   3.957   8.789  0.3888  0.4684  0.1794
49287SOL    HW158175   7.304   3.873   8.765  1.2504  0.5811  1.1078
49287SOL    HW258176   7.190   3.933   8.844  1.1047  0.3035  1.1104
49288SOL     OW58177   8.456   4.646   6.685 -0.0261  0.1372  0.4624
49288SOL    HW158178   8.428   4.714   6.624 -0.2197  1.8837  2.3919
49288SOL    HW258179   8.537   4.610   6.646 -0.7967  0.2906 -1.3874
49289SOL     OW58180   7.853   4.994  11.965  0.5665 -0.1427  0.0580
49289SOL    HW158181   7.893   5.069  12.008  0.3417  0.7120 -1.1931
49289SOL    HW258182   7.801   5.031  11.894  0.1448 -1.4526 -0.3468
49290SOL     OW58183   0.604   4.508  11.408  0.3334  0.4658  0.5998
49290SOL    HW158184   0.567   4.467  11.330  0.4733  0.2813  0.6309
49290SOL    HW258185   0.695   4.525  11.385  0.8638 -1.1907  1.3347
49291SOL     OW58186   6.603   2.631   1.736 -0.2352  0.5190  0.1225
49291SOL    HW158187   6.618   2.567   1.666 -2.9983  3.6531 -3.8001
49291SOL    HW258188   6.673   2.695   1.725  0.1193  0.3451  1.2603
49292SOL     OW58189  12.442   9.538   3.242 -0.6962  0.7694 -0.3738
49292SOL    HW158190  12.457   9.627   3.209 -0.5200  0.9851  0.2682
49292SOL    HW258191  12.352   9.518   3.217 -0.3565  0.6526 -1.5880
49293SOL     OW58192   7.457   8.785   4.942  0.0911 -0.9069 -0.0322
49293SOL    HW158193   7.376   8.836   4.946  0.4956 -0.3461  1.9143
49293SOL    HW258194   7.484   8.791   4.850 -0.3141  1.7105 -0.0684
49294SOL     OW58195   1.269   4.132   1.394  0.2270 -0.5360  0.0043
49294SOL    HW158196   1.221   4.187   1.332  1.7239  1.0477  0.1560
49294SOL    HW258197   1.252   4.172   1.479 -0.4853 -1.7009  0.4257
49295SOL     OW58198   8.771   6.628   7.461  0.1207  0.5220 -0.2480
49295SOL    HW158199   8.853   6.589   7.428 -0.6493 -0.9394 -0.5256
49295SOL    HW258200   8.720   6.646   7.382  0.1207  1.3550 -0.0703
49296SOL     OW58201   9.639   0.771   3.669  0.2575  0.0294  0.1502
49296SOL    HW158202   9.598   0.685   3.662 -0.0470  0.1645  0.2271
49296SOL    HW258203   9.700   0.775   3.595  0.2504 -0.2399  0.1297
49297SOL     OW58204   1.714  12.053   2.032  0.4370  0.3531  0.0726
49297SOL    HW158205   1.703  11.968   1.990 -0.7752 -0.1615  1.3680
49297SOL    HW258206   1.652  12.110   1.987  0.5540  0.3116 -0.1436
49298SOL     OW58207   6.826  11.747  12.421 -0.0205  0.5446 -0.1374
49298SOL    HW158208   6.839  11.830  12.468 -0.4775  0.7709 -0.4027
49298SOL    HW258209   6.735  11.725  12.436  0.2770 -0.2799  0.5026
49299SOL     OW58210  11.099   0.439   5.354 -0.3651 -0.0683 -0.2068
49299SOL    HW158211  11.134   0.480   5.275 -0.4054 -0.2678 -0.3290
49299SOL    HW258212  11.032   0.378   5.322  0.2320 -0.8001 -0.0947
49300SOL     OW58213   6.523   9.135   7.986 -0.7517 -0.0266 -0.1196
49300SOL    HW158214   6.471   9.140   8.066  0.0056 -0.4960  0.4197
49300SOL    HW258215   6.459   9.126   7.915 -1.4905  1.6874  0.2925
49301SOL     OW58216   6.224   0.811   1.098 -0.1625  0.7346  0.4199
49301SOL    HW158217   6.260   0.900   1.097  1.9891  0.1442 -4.6579
49301SOL    HW258218   6.144   0.817   1.047  1.2240 -0.4592 -2.0500
49302SOL     OW58219   2.889   5.125   3.441 -0.5727  0.3758  0.3901
49302SOL    HW158220   2.853   5.116   3.529  1.0785 -0.0420  1.0479
49302SOL    HW258221   2.921   5.215   3.437  1.4323 -0.2537  1.0784
49303SOL     OW58222  10.124  11.030   2.256 -0.7480 -0.4393 -0.4549
49303SOL    HW158223  10.103  11.018   2.163 -1.7605 -2.1285 -0.0502
49303SOL    HW258224  10.085  10.955   2.299 -0.0136  0.1488  1.3243
49304SOL     OW58225   0.399  11.654   0.595  0.0406 -0.1633  0.1351
49304SOL    HW158226   0.306  11.675   0.606  0.4814  0.8337  2.4502
49304SOL    HW258227   0.433  11.723   0.538 -0.4108  0.0558  0.1233
49305SOL     OW58228   8.397   6.403   3.131  0.5412  0.2328  0.0327
49305SOL    HW158229   8.404   6.418   3.225  0.8136  1.0117 -0.1102
49305SOL    HW258230   8.330   6.334   3.124 -0.2118  0.8599  0.7420
49306SOL     OW58231   3.679   2.328   8.567  0.6344  0.3399  0.2324
49306SOL    HW158232   3.600   2.298   8.612  0.3923  0.8345  0.1552
49306SOL    HW258233   3.655   2.415   8.535  0.4981 -0.3360 -1.6059
49307SOL     OW58234   5.360   9.343   1.913 -0.1019  0.1328 -0.6392
49307SOL    HW158235   5.417   9.377   1.982 -1.7380  0.9275  0.3751
49307SOL    HW258236   5.354   9.249   1.931  3.0745 -0.5725 -2.4490
49308SOL     OW58237  10.809   2.440   9.393 -0.7777  0.8056 -0.1336
49308SOL    HW158238  10.744   2.483   9.450  0.7459  2.7865  0.2011
49308SOL    HW258239  10.879   2.504   9.383  1.2546 -1.3017 -0.3535
49309SOL     OW58240   9.911   5.028   1.669  0.3220 -0.1829  0.1740
49309SOL    HW158241   9.959   4.976   1.605  1.3334  1.3885 -0.4085
49309SOL    HW258242   9.828   4.982   1.680 -0.1368 -0.2186 -2.7280
49310SOL     OW58243  10.436   2.971  11.018  0.0865  0.4752  0.4529
49310SOL    HW158244  10.392   3.055  11.033  1.2421  1.6614 -2.1438
49310SOL    HW258245  10.365   2.908  11.009 -1.0061  1.8153 -0.8785
49311SOL     OW58246   0.584   7.569   3.152 -0.1548 -0.3282  0.2375
49311SOL    HW158247   0.548   7.518   3.225 -0.2432 -1.0840 -0.3206
49311SOL    HW258248   0.534   7.540   3.076  0.1117  0.2644 -0.1677
49312SOL     OW58249   0.679   4.753  12.931  0.4832  0.1792  0.0131
49312SOL    HW158250   0.606   4.725  12.876  0.5364  0.8605 -0.4146
49312SOL    HW258251   0.676   4.694  13.006 -0.0734 -0.2545 -0.3397
49313SOL     OW58252  11.072   6.611   1.412 -0.1467 -0.3457  0.0402
49313SOL    HW158253  11.137   6.549   1.446 -3.2328 -3.3844  0.9754
49313SOL    HW258254  11.034   6.651   1.490  0.8999  1.9441 -0.5219
49314SOL     OW58255   4.219   2.675   4.999 -0.2038  0.3735 -0.0986
49314SOL    HW158256   4.286   2.686   5.067  0.0051  0.4377 -0.3121
49314SOL    HW258257   4.257   2.717   4.921 -1.3571  2.3010  0.3297
49315SOL     OW58258   9.172   0.537   0.045  0.5553 -0.2318  0.3111
49315SOL    HW158259   9.089   0.572   0.013 -0.3859 -1.9964  0.6713
49315SOL    HW258260   9.201   0.599   0.112 -0.6460  0.2407  0.4109
49316SOL     OW58261  11.638   8.329   7.474 -0.1633  0.2103 -0.0598
49316SOL    HW158262  11.719   8.379   7.466 -1.5100  2.3148 -1.5970
49316SOL    HW258263  11.657   8.246   7.430  0.9637  0.9613 -1.0777
49317SOL     OW58264   1.836   4.095   5.516 -0.2671  0.3821  0.1667
49317SOL    HW158265   1.745   4.067   5.519 -0.4290  0.9835  1.2717
49317SOL    HW258266   1.832   4.190   5.510  0.2619  0.5083  1.4009
49318SOL     OW58267  12.057   3.569   4.206  0.5006  0.0436 -0.3239
49318SOL    HW158268  11.973   3.523   4.209 -0.0950  0.8329 -2.5957
49318SOL    HW258269  12.042   3.651   4.253 -0.1489  0.3476 -1.0308
49319SOL     OW58270   0.242   5.106   7.585 -0.2437 -0.5740  0.1263
49319SOL    HW158271   0.192   5.177   7.545  0.2220 -0.9026 -1.0962
49319SOL    HW258272   0.195   5.026   7.559  0.1695 -0.8026  0.0727
49320SOL     OW58273   6.368  12.137  12.839 -0.0133 -0.0432 -0.2343
49320SOL    HW158274   6.288  12.189  12.842 -0.1931 -0.3091 -0.4193
49320SOL    HW258275   6.401  12.148  12.750 -0.7674 -1.3175 -0.6860
49321SOL     OW58276   2.067   6.901   6.862  0.0318  0.5930  0.2099
49321SOL    HW158277   1.986   6.883   6.910 -0.5339  0.1727 -0.8674
49321SOL    HW258278   2.129   6.836   6.895 -0.7605 -0.6075 -0.5789
49322SOL     OW58279  11.749  12.825   7.226 -0.2579 -0.1243  0.0833
49322SOL    HW158280  11.803  12.903   7.231 -1.0245  0.3691  0.8604
49322SOL    HW258281  11.788  12.774   7.155  0.3553  0.8705 -0.3163
49323SOL     OW58282   0.401   0.168   4.246 -0.3185  0.0022  0.0884
49323SOL    HW158283   0.485   0.213   4.256  0.1751 -0.9586  0.4086
49323SOL    HW258284   0.336   0.233   4.272  0.4433  0.1536  1.7552
49324SOL     OW58285   2.361  12.225   8.807 -0.4279  0.7089  0.3983
49324SOL    HW158286   2.335  12.218   8.715  0.1158  3.0237  0.0053
49324SOL    HW258287   2.455  12.243   8.804 -0.2337 -0.0169  1.4753
49325SOL     OW58288   0.167   6.185   8.506  0.3483 -0.3349 -0.0783
49325SOL    HW158289   0.255   6.205   8.475  0.1831  0.7672  0.1183
49325SOL    HW258290   0.127   6.271   8.521 -1.1860 -0.7751 -1.3850
49326SOL     OW58291   2.851   5.136   3.159 -0.7218 -0.3322 -0.2026
49326SOL    HW158292   2.862   5.110   3.250 -1.9259 -1.1224 -0.2626
49326SOL    HW258293   2.811   5.223   3.164 -0.2686 -0.1378  0.0223
49327SOL     OW58294  10.569   9.039   1.315 -0.4839 -0.3158  0.0049
49327SOL    HW158295  10.622   9.047   1.235 -0.6637 -0.9762 -0.1914
49327SOL    HW258296  10.594   9.114   1.368 -0.7540  0.4312 -0.9007
49328SOL     OW58297   5.281   4.214   8.775  0.2829 -0.2366 -0.2749
49328SOL    HW158298   5.343   4.159   8.823 -0.8180 -0.1130  1.3415
49328SOL    HW258299   5.195   4.182   8.801 -0.4143  2.2917  0.8377
49329SOL     OW58300   8.401  10.218   7.831  0.0416  0.3746 -0.2581
49329SOL    HW158301   8.399  10.127   7.861  2.9335  0.6268  1.0333
49329SOL    HW258302   8.385  10.213   7.737  2.6138 -1.8219 -0.6989
49330SOL     OW58303   6.669   9.852  12.525 -0.2408 -0.1040 -0.5050
49330SOL    HW158304   6.613   9.867  12.449  0.2044 -1.6206 -1.1820
49330SOL    HW258305   6.608   9.839  12.598 -0.6863  0.7735 -0.7146
49331SOL     OW58306   1.443  11.759  10.084 -0.2864  0.0954 -0.0481
49331SOL    HW158307   1.476  11.730  10.169 -2.0287  1.9053  1.3445
49331SOL    HW258308   1.364  11.707  10.069 -1.7474  1.8539  1.0404
49332SOL     OW58309   6.103   7.607   4.422 -0.1789  0.0681  0.5700
49332SOL    HW158310   6.094   7.512   4.415  0.9209  0.0700 -2.4091
49332SOL    HW258311   6.013   7.639   4.430 -0.6657 -1.1707  0.2644
49333SOL     OW58312   0.800   3.398  10.116  0.0242 -0.0719 -0.1305
49333SOL    HW158313   0.832   3.414  10.028 -0.2156  0.1934 -0.1698
49333SOL    HW258314   0.773   3.484  10.148  1.0263 -0.0028  0.5682
49334SOL     OW58315   4.685   4.477   6.840 -0.2227  0.5423  0.0853
49334SOL    HW158316   4.663   4.531   6.765 -0.6736  1.2963  0.7374
49334SOL    HW258317   4.768   4.512   6.872  1.2755 -1.3580 -1.4941
49335SOL     OW58318   0.475   7.397   8.532  0.4918 -0.0600  0.0946
49335SOL    HW158319   0.396   7.439   8.566  1.4122 -0.3797  2.8576
49335SOL    HW258320   0.460   7.303   8.545  1.0693 -0.1656  0.0278
49336SOL     OW58321   4.015   5.331  12.469  0.2241  0.2368  0.4249
49336SOL    HW158322   3.987   5.253  12.518 -2.2468  1.6934  1.5174
49336SOL    HW258323   4.075   5.297  12.403 -0.1519 -2.4768  1.3346
49337SOL     OW58324   7.460  11.510   7.403  0.5388  0.0124 -1.1221
49337SOL    HW158325   7.540  11.472   7.441  0.3887  0.2394 -0.5625
49337SOL    HW258326   7.481  11.602   7.390  0.1328  0.2319 -0.2870
49338SOL     OW58327   1.202  12.765   2.441  0.6979 -0.3099  0.1644
49338SOL    HW158328   1.277  12.801   2.488  0.9853 -1.6951  0.8204
49338SOL    HW258329   1.146  12.841   2.423  2.1982  0.7380 -0.2713
49339SOL     OW58330   5.598   6.127   4.136 -0.5555  0.8884  0.4316
49339SOL    HW158331   5.644   6.160   4.058  0.5256  0.6078  0.9396
49339SOL    HW258332   5.505   6.125   4.110 -0.1536  0.2192 -1.0528
49340SOL     OW58333   0.888   4.843   3.950  0.1698  0.3338  0.1302
49340SOL    HW158334   0.945   4.780   3.993 -0.2025  0.2736  0.5362
49340SOL    HW258335   0.939   4.875   3.876  0.0690 -1.0361 -0.5583
49341SOL     OW58336   6.979  10.642   0.212 -0.0756  0.7791  0.2051
49341SOL    HW158337   7.019  10.723   0.179 -0.0179  0.9074  0.5821
49341SOL    HW258338   7.052  10.595   0.253  0.5063 -0.7621 -2.3737
49342SOL     OW58339   9.359   3.997   8.222 -0.4514  0.1561  0.5528
49342SOL    HW158340   9.267   4.006   8.245 -0.6214  1.1056 -0.4329
49342SOL    HW258341   9.361   3.999   8.126  0.7118  1.7724  0.5622
49343SOL     OW58342   6.762   8.985   7.738 -0.0056 -0.5516  0.0451
49343SOL    HW158343   6.764   8.974   7.833 -0.6404 -0.3219  0.0948
49343SOL    HW258344   6.841   8.942   7.706 -0.0974 -1.1542  0.6237
49344SOL     OW58345   3.627   1.834  10.796 -0.4400  0.2534  0.3448
49344SOL    HW158346   3.613   1.890  10.720  1.3614  0.3015  0.0048
49344SOL    HW258347   3.597   1.886  10.871 -1.5940  0.4665 -0.2481
49345SOL     OW58348  12.466   0.171   5.043  0.6934 -0.0107  0.0195
49345SOL    HW158349  12.488   0.090   4.997  1.6794  1.1680 -1.6971
49345SOL    HW258350  12.370   0.172   5.046  0.6127 -0.4389 -1.5061
49346SOL     OW58351   1.143  11.331   3.219 -0.2526 -0.4583  0.0203
49346SOL    HW158352   1.162  11.245   3.182 -0.4407 -0.6714  0.4141
49346SOL    HW258353   1.069  11.316   3.278  0.5809 -0.2884  1.1341
49347SOL     OW58354   0.513   8.509  12.953 -0.0358  0.4254  0.7163
49347SOL    HW158355   0.493   8.428  12.907  2.6506  0.5499 -0.9028
49347SOL    HW258356   0.429   8.539  12.987 -1.8233 -0.9617 -2.0685
49348SOL     OW58357   7.076  12.082   5.738 -0.1208  0.0122  0.4192
49348SOL    HW158358   7.058  12.020   5.809  0.9294 -0.1176  0.5946
49348SOL    HW258359   7.138  12.144   5.776  0.7556 -0.2810 -0.4894
49349SOL     OW58360  10.782  10.102   2.558 -0.2562  0.1596  0.2058
49349SOL    HW158361  10.696  10.078   2.523 -0.6229 -0.3365  1.3978
49349SOL    HW258362  10.840  10.033   2.528 -0.4608  0.0198  0.1242
49350SOL     OW58363   1.024  10.804  11.715  0.2968  0.1747  0.2290
49350SOL    HW158364   1.118  10.823  11.724  0.1904  1.4134 -0.8964
49350SOL    HW258365   1.020  10.715  11.680  1.0748  0.2674 -0.1186
49351SOL     OW58366   9.618   7.998   9.569  0.0807 -0.0088 -0.0140
49351SOL    HW158367   9.592   8.019   9.659  1.6575 -0.2395  0.5199
49351SOL    HW258368   9.712   7.981   9.574 -0.2196 -2.6656 -1.2027
49352SOL     OW58369   5.836  10.469   2.674 -0.3181  0.5188 -0.1393
49352SOL    HW158370   5.924  10.504   2.691  0.9515 -2.4280 -0.1198
49352SOL    HW258371   5.821  10.406   2.744 -1.2637 -1.0554 -1.6992
49353SOL     OW58372   0.245   8.876  11.392 -0.0976  0.3981  0.2643
49353SOL    HW158373   0.157   8.897  11.360  0.2271  2.2227  0.4317
49353SOL    HW258374   0.235   8.793  11.438 -1.6835  0.4560  0.0804
49354SOL     OW58375   0.420   8.774   0.380 -0.3977 -0.3985 -0.3520
49354SOL    HW158376   0.469   8.706   0.335  0.4444  0.4396 -0.7534
49354SOL    HW258377   0.378   8.824   0.310  0.7653  0.7958 -0.2356
49355SOL     OW58378  12.004  11.011   1.525 -0.5351  0.1344  0.7862
49355SOL    HW158379  12.087  10.963   1.530 -0.3472  0.1088 -1.7010
49355SOL    HW258380  11.937  10.943   1.533 -0.2796 -0.3000 -0.5873
49356SOL     OW58381  12.280   4.633  11.824  0.0625  0.6692 -0.0857
49356SOL    HW158382  12.250   4.542  11.827  1.1721  0.1631 -2.2343
49356SOL    HW258383  12.286   4.659  11.916  1.4704 -2.0423  0.6961
49357SOL     OW58384   2.183  10.280   4.855 -0.4078 -0.7253  0.6628
49357SOL    HW158385   2.146  10.360   4.895 -0.9271 -1.3524  1.4762
49357SOL    HW258386   2.273  10.278   4.886 -0.8458 -1.2829  1.9862
49358SOL     OW58387   7.299  11.205   9.471  0.2407 -0.1909  0.1356
49358SOL    HW158388   7.347  11.190   9.389  1.6460  1.0025  0.6910
49358SOL    HW258389   7.244  11.127   9.481  2.2742 -1.8110 -0.4194
49359SOL     OW58390  11.828   9.834   1.422  0.4239  0.2096 -0.0537
49359SOL    HW158391  11.880   9.837   1.503  0.7116 -0.1600 -0.2218
49359SOL    HW258392  11.815   9.741   1.405 -1.0040  0.3044  0.4242
49360SOL     OW58393   0.114   6.693   0.936  0.4172 -0.2328  0.4627
49360SOL    HW158394   0.037   6.716   0.884  0.4658 -1.0100  0.0223
49360SOL    HW258395   0.188   6.725   0.885  0.4830 -1.2751 -0.1312
49361SOL     OW58396  11.856  12.589  11.643  0.2812 -0.4399 -0.6993
49361SOL    HW158397  11.771  12.556  11.615 -0.4578  1.4419 -0.8657
49361SOL    HW258398  11.917  12.565  11.573 -0.4988 -0.2239 -1.4622
49362SOL     OW58399   5.087  12.383  10.536  0.3498  0.3063 -0.6254
49362SOL    HW158400   5.080  12.414  10.446  2.5778 -3.8769 -2.5446
49362SOL    HW258401   5.180  12.390  10.557  0.3059 -1.2731  0.2687
49363SOL     OW58402  11.649   5.663   9.767 -0.1101 -0.2169  0.3253
49363SOL    HW158403  11.553   5.668   9.773 -0.1668 -1.7239  1.1891
49363SOL    HW258404  11.673   5.594   9.829  1.4780 -0.3936 -0.4450
49364SOL     OW58405  12.885  10.533  10.017  0.5812  0.0022 -0.2917
49364SOL    HW158406  12.968  10.485  10.014  1.6159  1.5732  1.2512
49364SOL    HW258407  12.873  10.566   9.928  1.4394 -0.5205 -0.6112
49365SOL     OW58408   6.396   0.409   1.781 -0.7266  0.0407 -0.3959
49365SOL    HW158409   6.417   0.499   1.809 -0.2982 -0.1085 -0.2301
49365SOL    HW258410   6.480   0.373   1.752 -0.8903 -0.3258 -0.4123
49366SOL     OW58411   9.373   1.809  10.366 -0.1745 -0.3837  0.6511
49366SOL    HW158412   9.282   1.800  10.337 -0.6372 -0.0607  1.9195
49366SOL    HW258413   9.392   1.903  10.356  0.7909 -0.7530 -1.6825
49367SOL     OW58414   8.677   1.760   6.535 -0.2070  0.1179 -0.1109
49367SOL    HW158415   8.641   1.678   6.503 -1.8616  1.4160 -1.8129
49367SOL    HW258416   8.617   1.788   6.604  1.3006 -0.8497  1.7001
49368SOL     OW58417   1.687  11.994  12.425  0.1712  0.5458  0.3350
49368SOL    HW158418   1.762  12.054  12.421  2.4098 -1.6196  3.6155
49368SOL    HW258419   1.715  11.918  12.374  0.3706 -0.3150  1.6598
49369SOL     OW58420  10.381   0.754   0.603 -0.0286  0.0805  0.0694
49369SOL    HW158421  10.356   0.692   0.534 -0.0985 -0.5088  0.6084
49369SOL    HW258422  10.440   0.704   0.659 -0.0826  0.5083  0.5100
49370SOL     OW58423   3.076   8.566   2.451  0.2374  0.8512  0.1963
49370SOL    HW158424   3.024   8.498   2.496 -0.2846  0.8161 -0.4513
49370SOL    HW258425   3.118   8.520   2.379  1.0407  0.9209  0.6058
49371SOL     OW58426  11.997   6.720  12.320 -0.3481 -1.0421 -0.4521
49371SOL    HW158427  12.089   6.695  12.326 -0.0989 -0.1449 -0.4473
49371SOL    HW258428  11.998   6.811  12.291 -1.1838 -0.4126  1.3905
49372SOL     OW58429   3.617   7.594   6.962 -0.2382 -0.6143  0.4879
49372SOL    HW158430   3.521   7.596   6.961 -0.2766 -1.7427  0.6246
49372SOL    HW258431   3.638   7.534   7.033  0.5622 -1.0064 -0.0791
49373SOL     OW58432   2.073   5.862   5.538  0.4443 -0.4100  0.3008
49373SOL    HW158433   2.074   5.794   5.605  2.9522 -0.0413  0.7436
49373SOL    HW258434   2.048   5.817   5.457  0.0520 -1.4193  0.9775
49374SOL     OW58435  11.290  12.874  10.542 -0.5393 -0.0792 -0.0774
49374SOL    HW158436  11.355  12.807  10.562  2.7635  2.6641 -0.7683
49374SOL    HW258437  11.241  12.838  10.468  0.2794 -2.1913  0.3278
49375SOL     OW58438  11.042   5.114   7.653 -0.4098  0.2613  0.5223
49375SOL    HW158439  10.998   5.153   7.729 -0.2235  1.0338  0.2431
49375SOL    HW258440  11.106   5.180   7.626 -0.7133  0.1497 -0.5162
49376SOL     OW58441   2.483   1.912   7.268  0.9610  0.5132 -0.2309
49376SOL    HW158442   2.450   1.822   7.274 -2.2356  1.6275  1.2088
49376SOL    HW258443   2.575   1.902   7.244  0.8565 -3.1348  0.2899
49377SOL     OW58444   3.791   5.624   4.224 -0.2389  0.5566 -0.0082
49377SOL    HW158445   3.886   5.634   4.233 -0.2780 -0.6651  3.1137
49377SOL    HW258446   3.754   5.691   4.283 -1.0731 -1.7492  2.2864
49378SOL     OW58447   5.508   7.169  10.820 -0.8011 -0.2929  0.3736
49378SOL    HW158448   5.603   7.178  10.826 -0.4849 -0.8318 -2.4272
49378SOL    HW258449   5.482   7.130  10.904  1.4932 -0.6345  0.9916
49379SOL     OW58450  10.057   5.089  10.370  0.3358 -0.5349 -0.4941
49379SOL    HW158451  10.005   5.102  10.291  1.2897 -0.2177 -1.0856
49379SOL    HW258452  10.039   4.998  10.395  1.4073 -1.2549 -2.1437
49380SOL     OW58453   7.302  11.338  11.381 -0.3124  0.0937 -0.5655
49380SOL    HW158454   7.375  11.398  11.366 -1.3942  0.9361 -3.1281
49380SOL    HW258455   7.249  11.346  11.301 -2.1820 -1.9142  0.3935
49381SOL     OW58456   6.476   0.698  10.565  0.9021  0.3344  0.7425
49381SOL    HW158457   6.539   0.758  10.526  1.1302  0.0464  0.6625
49381SOL    HW258458   6.392   0.725  10.530  0.7493  1.7512  2.0780
49382SOL     OW58459  12.345   0.814   6.676  0.2935 -0.2809  0.1764
49382SOL    HW158460  12.298   0.896   6.663 -1.0375 -0.9797  0.3209
49382SOL    HW258461  12.351   0.804   6.771 -0.2394 -0.7020  0.1738
49383SOL     OW58462   4.776  12.896  12.790  0.5227 -0.2503  0.2703
49383SOL    HW158463   4.685  12.926  12.789  0.8589  0.8025  0.0279
49383SOL    HW258464   4.793  12.868  12.700  0.2096 -1.1825  0.4955
49384SOL     OW58465   7.972   7.602   1.074 -0.4084 -0.0572 -0.2405
49384SOL    HW158466   7.894   7.550   1.094  0.1730 -0.7750  0.2203
49384SOL    HW258467   7.938   7.682   1.034 -1.3569 -0.5342 -0.4199
49385SOL     OW58468   1.502   6.265   8.971  0.1559 -0.0507 -0.6657
49385SOL    HW158469   1.476   6.344   8.923  0.1900  0.6432  0.4271
49385SOL    HW258470   1.596   6.258   8.957  0.0179 -0.3908 -1.4672
49386SOL     OW58471   0.334   9.322   5.366 -0.1159 -0.9006  0.2860
49386SOL    HW158472   0.260   9.380   5.384 -0.9727 -2.2320  1.2296
49386SOL    HW258473   0.343   9.269   5.445  0.7230 -1.9616 -0.4841
49387SOL     OW58474   3.414   9.990   6.907 -0.3441 -0.1528  1.0907
49387SOL    HW158475   3.347   9.925   6.929 -0.5609 -0.8019 -1.2752
49387SOL    HW258476   3.448  10.018   6.992 -1.6232 -1.9044  2.2554
49388SOL     OW58477   6.803  11.435   9.556 -0.0499  0.0112 -0.5087
49388SOL    HW158478   6.780  11.367   9.493 -1.0638  0.2229 -0.3875
49388SOL    HW258479   6.722  11.484   9.568  0.4739  0.7737 -0.0197
49389SOL     OW58480  10.876   6.372   9.352 -0.2746 -0.1505  0.1459
49389SOL    HW158481  10.905   6.405   9.437 -0.2611 -0.3400  0.2155
49389SOL    HW258482  10.808   6.307   9.373 -0.0007 -0.4777  0.0293
49390SOL     OW58483  12.631   3.353  12.862  0.3225 -0.6344  0.4924
49390SOL    HW158484  12.686   3.346  12.941 -1.1683 -0.5001  1.5873
49390SOL    HW258485  12.603   3.444  12.861 -2.4588 -1.3615  1.8311
49391SOL     OW58486   1.450   3.238   1.801  0.2980 -0.6094 -0.1100
49391SOL    HW158487   1.488   3.231   1.888 -0.1505  1.1155  0.2673
49391SOL    HW258488   1.363   3.199   1.809  0.0211  0.0964  0.3921
49392SOL     OW58489   3.319   7.790   7.927 -0.4320  1.1396 -0.3805
49392SOL    HW158490   3.408   7.759   7.948 -0.8702 -0.3984 -0.6473
49392SOL    HW258491   3.272   7.785   8.010 -0.8628 -0.2499 -0.6912
49393SOL     OW58492   9.338  11.897  10.336  0.5280 -0.4698 -0.3781
49393SOL    HW158493   9.350  11.986  10.371 -1.7075  0.1727 -1.0909
49393SOL    HW258494   9.254  11.868  10.372  0.9088 -2.0614 -0.6970
49394SOL     OW58495   4.506   2.210   6.068  0.3834 -0.1683 -0.5598
49394SOL    HW158496   4.596   2.221   6.099 -0.0960  1.0355  0.4999
49394SOL    HW258497   4.466   2.151   6.132 -0.3932  1.7057  0.7595
49395SOL     OW58498   4.349  10.365  10.790  0.1990  0.4924 -0.0293
49395SOL    HW158499   4.359  10.419  10.868 -1.0118 -2.2910  2.2381
49395SOL    HW258500   4.255  10.365  10.773 -0.0356 -1.8512  0.8934
49396SOL     OW58501   9.269   5.466   8.131  0.3824 -0.7070 -0.4894
49396SOL    HW158502   9.183   5.487   8.167  0.6754 -1.0134  0.4216
49396SOL    HW258503   9.254   5.456   8.037 -0.7060 -1.4039 -0.2615
49397SOL     OW58504  10.737  10.364   2.703  0.1969 -0.3681 -0.0410
49397SOL    HW158505  10.666  10.328   2.651 -0.0247 -0.7108  0.4927
49397SOL    HW258506  10.797  10.403   2.639 -0.4751 -0.0580 -0.4909
49398SOL     OW58507  10.676   6.820   1.910 -0.0005 -0.6845  0.1199
49398SOL    HW158508  10.719   6.736   1.892  0.6656 -0.2341 -0.4631
49398SOL    HW258509  10.740   6.869   1.961  0.5079  0.2676 -1.3681
49399SOL     OW58510  12.530  10.216  12.747  0.4050 -0.3907 -0.5705
49399SOL    HW158511  12.465  10.239  12.680  1.3814  0.5356 -1.2166
49399SOL    HW258512  12.478  10.176  12.817 -1.0489  1.4045 -0.5503
49400SOL     OW58513   2.309   1.052   4.739 -0.4657  0.1354 -0.0572
49400SOL    HW158514   2.372   1.119   4.712  0.4453 -0.7459 -0.1651
49400SOL    HW258515   2.336   1.028   4.827 -0.2174 -0.7331 -0.3574
49401SOL     OW58516   4.203   7.388   4.269  0.6249  0.3030  0.0993
49401SOL    HW158517   4.243   7.302   4.263  0.5769  0.2024  1.0819
49401SOL    HW258518   4.135   7.389   4.201 -0.6788 -1.1395  1.3163
49402SOL     OW58519   9.523   3.460   3.333  0.5127  0.1922  0.3187
49402SOL    HW158520   9.570   3.415   3.403  0.5586 -0.4884 -0.1452
49402SOL    HW258521   9.435   3.424   3.336  0.8485 -0.7971 -0.7893
49403SOL     OW58522   3.050   2.743   3.048  0.4439 -0.3857  0.2395
49403SOL    HW158523   3.108   2.667   3.043 -0.0198 -0.7215 -0.1463
49403SOL    HW258524   2.981   2.718   3.110  1.1129  0.3021  1.3002
49404SOL     OW58525   2.729  11.548  12.340 -0.1494 -0.2895  0.1738
49404SOL    HW158526   2.646  11.571  12.382  0.2420  0.7177  0.4284
49404SOL    HW258527   2.780  11.505  12.408 -1.2974 -3.0638 -0.5935
49405SOL     OW58528   5.947   2.378   2.934 -0.3879  0.8180 -0.4738
49405SOL    HW158529   5.958   2.444   3.001 -3.5817  1.3465 -0.3077
49405SOL    HW258530   5.948   2.295   2.981  1.2970  0.8804 -0.3631
49406SOL     OW58531   9.733   2.128   0.777 -0.7954 -0.0103  0.6314
49406SOL    HW158532   9.641   2.127   0.802 -0.7876  2.4037  0.9407
49406SOL    HW258533   9.781   2.112   0.858 -0.8979 -0.5199  0.5982
49407SOL     OW58534   7.860   3.465   6.726  0.4134 -0.0304 -0.5555
49407SOL    HW158535   7.810   3.462   6.644  1.5119  0.0470 -1.2484
49407SOL    HW258536   7.871   3.374   6.751 -0.9494 -0.0142  0.1618
49408SOL     OW58537   5.330   9.430   9.714  0.3242  0.1529  0.0150
49408SOL    HW158538   5.341   9.514   9.671  0.3593  1.7072  2.7761
49408SOL    HW258539   5.415   9.386   9.703  0.9747  1.3268  0.1122
49409SOL     OW58540   2.046  10.363   0.516 -0.3740  0.4472  0.4506
49409SOL    HW158541   2.109  10.376   0.586 -0.0234  1.1244  0.0237
49409SOL    HW258542   2.055  10.441   0.461  0.3237 -0.6437 -1.0779
49410SOL     OW58543  12.838   7.582   3.078  0.6375 -0.6374 -0.0637
49410SOL    HW158544  12.749   7.566   3.108  0.9085 -0.8292  0.6796
49410SOL    HW258545  12.832   7.586   2.983  0.0426 -1.9296 -0.0958
49411SOL     OW58546   4.578   4.153   7.260  0.2744  0.5158 -0.0535
49411SOL    HW158547   4.491   4.144   7.299  1.0296  0.2651  1.6296
49411SOL    HW258548   4.582   4.082   7.196 -0.1263 -0.5799  1.0943
49412SOL     OW58549   8.082   0.287   9.413 -0.0448 -0.2611 -0.0160
49412SOL    HW158550   8.140   0.274   9.488 -0.6479 -1.4781  0.2650
49412SOL    HW258551   8.121   0.360   9.365  1.8272 -1.1459  0.0483
49413SOL     OW58552   2.660   3.158   1.000 -0.4411 -0.1083  0.4302
49413SOL    HW158553   2.638   3.084   0.943 -0.0964 -0.9480  1.3759
49413SOL    HW258554   2.576   3.188   1.034 -0.8213  1.2978 -1.5537
49414SOL     OW58555   5.404   7.332   8.049  0.0541 -0.1082 -0.1899
49414SOL    HW158556   5.433   7.352   7.960  1.1825 -1.5913 -0.1805
49414SOL    HW258557   5.432   7.242   8.065  1.3806  0.6423  2.2739
49415SOL     OW58558   9.626   9.750   9.779 -0.6572  0.3670 -0.2815
49415SOL    HW158559   9.683   9.755   9.702 -1.5016  1.5493 -0.8583
49415SOL    HW258560   9.544   9.713   9.746 -1.1879  1.3283 -0.0571
49416SOL     OW58561   3.091   4.683   6.370 -0.0483 -0.3278 -0.0330
49416SOL    HW158562   3.087   4.613   6.435  3.1178 -1.6208 -1.0437
49416SOL    HW258563   3.098   4.637   6.286  1.0172  1.2047 -0.8313
49417SOL     OW58564   6.413   6.086   7.719  0.4691  0.0715 -0.3070
49417SOL    HW158565   6.490   6.061   7.669  0.5742  0.4906 -0.3602
49417SOL    HW258566   6.444   6.155   7.778  0.6888 -1.3979  1.3645
49418SOL     OW58567  11.647   1.723   1.724  0.6069  0.1396  0.2502
49418SOL    HW158568  11.661   1.646   1.668  1.0561  1.3246 -1.3562
49418SOL    HW258569  11.733   1.765   1.728 -0.1522  1.9844 -1.1837
49419SOL     OW58570   1.411   5.562   0.064 -0.5045 -0.3524  0.1788
49419SOL    HW158571   1.384   5.628   0.128 -0.6067 -0.3923  0.1765
49419SOL    HW258572   1.426   5.483   0.116  2.8328  0.4852  0.7133
49420SOL     OW58573  10.939   5.356   9.718 -0.4525  0.1387  0.5425
49420SOL    HW158574  10.940   5.335   9.625 -0.5857 -0.3393  0.6479
49420SOL    HW258575  10.960   5.449   9.722  2.0761 -0.3680  0.1910
49421SOL     OW58576  11.586   3.555  10.113 -0.1001 -0.0708  0.4214
49421SOL    HW158577  11.632   3.578  10.194 -0.8046  0.0717  0.7890
49421SOL    HW258578  11.576   3.639  10.067  1.1123 -0.2781 -0.2617
49422SOL     OW58579  10.671   6.050   6.716 -0.0554  0.4612 -0.0974
49422SOL    HW158580  10.716   6.115   6.662 -0.6301  0.7172 -0.2838
49422SOL    HW258581  10.615   6.003   6.654 -0.6782  0.7167  0.2562
49423SOL     OW58582   6.163  11.524   6.583 -0.1943  0.0958 -0.5383
49423SOL    HW158583   6.071  11.521   6.558 -0.8713 -0.7844  1.7901
49423SOL    HW258584   6.198  11.438   6.557 -0.7608 -0.6103  0.8831
49424SOL     OW58585   7.995  12.148   0.845 -0.0657  0.4150  0.2538
49424SOL    HW158586   7.964  12.237   0.861 -0.1115  0.1097  2.0322
49424SOL    HW258587   8.034  12.121   0.928  1.3125 -0.6861 -0.7143
49425SOL     OW58588   6.951  11.596   2.262  0.3272  0.0812 -0.5567
49425SOL    HW158589   7.039  11.612   2.228  0.4541  1.7755  0.4727
49425SOL    HW258590   6.962  11.591   2.357 -0.8911  2.2860 -0.2376
49426SOL     OW58591   3.080   8.001   4.585 -0.9881  0.4151 -0.2716
49426SOL    HW158592   3.111   7.954   4.663 -0.9735  1.4770  0.3868
49426SOL    HW258593   3.024   8.071   4.619  0.2440  1.8681 -1.0698
49427SOL     OW58594  12.967   6.025   8.618  0.0970 -0.3591 -0.1708
49427SOL    HW158595  13.037   6.064   8.566  0.4839  0.5580  0.9850
49427SOL    HW258596  13.011   5.995   8.698 -0.6624 -0.7003  0.1318
49428SOL     OW58597  11.800   2.658   9.794 -0.2498 -0.0585 -0.1524
49428SOL    HW158598  11.705   2.665   9.808 -0.1052 -0.9374  1.5734
49428SOL    HW258599  11.814   2.694   9.706 -1.9532  1.7847  0.2385
49429SOL     OW58600   1.029   9.707   5.101  0.0737  0.2759  0.5077
49429SOL    HW158601   1.065   9.721   5.013 -0.8801 -1.8420 -0.2787
49429SOL    HW258602   1.019   9.795   5.137 -1.2462  1.3534 -2.2114
49430SOL     OW58603   3.217  12.066   2.221  0.0471  0.2036  0.0758
49430SOL    HW158604   3.175  12.039   2.302  0.0737  0.6817  0.2506
49430SOL    HW258605   3.290  12.005   2.210 -2.0651 -2.2550 -1.5030
49431SOL     OW58606  12.029   5.741   0.358  0.4297 -0.3251  0.8083
49431SOL    HW158607  12.074   5.786   0.430  1.6992 -0.9419  0.4366
49431SOL    HW258608  11.994   5.662   0.398 -1.8260  0.9273  1.4684
49432SOL     OW58609   5.874   1.629   7.844 -0.2344  0.2591 -0.3307
49432SOL    HW158610   5.820   1.550   7.836 -1.0466  0.7123  0.4876
49432SOL    HW258611   5.904   1.628   7.935 -1.4343  1.6172  0.1188
49433SOL     OW58612  12.475   7.700   2.340  0.0467 -0.0950  0.0500
49433SOL    HW158613  12.483   7.785   2.383 -0.5357  0.1930 -0.4023
49433SOL    HW258614  12.436   7.644   2.407 -0.7106  0.3112 -0.0369
49434SOL     OW58615  11.899   5.160   4.433  0.4854  0.3279 -0.2631
49434SOL    HW158616  11.948   5.156   4.350 -1.2810  0.5419 -1.3765
49434SOL    HW258617  11.841   5.235   4.423 -1.3596 -0.9582  0.2165
49435SOL     OW58618   5.666   0.743   0.448 -0.4851 -0.2145  0.3893
49435SOL    HW158619   5.607   0.674   0.419 -1.7078  0.3392  1.4368
49435SOL    HW258620   5.744   0.696   0.479 -0.5779 -0.9973 -0.5239
49436SOL     OW58621   2.289   9.076  11.266  0.3002 -1.1690  0.2972
49436SOL    HW158622   2.249   9.031  11.341 -1.9957  1.3357  0.7150
49436SOL    HW258623   2.365   9.120  11.303  1.1977 -2.6741  0.3560
49437SOL     OW58624  12.713  12.870   5.149 -0.0961  0.1716  0.2396
49437SOL    HW158625  12.632  12.832   5.117 -0.3288  1.7983 -1.2324
49437SOL    HW258626  12.779  12.842   5.085 -0.1793  1.7306 -0.5629
49438SOL     OW58627   2.896   5.312   7.754 -0.2493  0.0490  0.6860
49438SOL    HW158628   2.822   5.366   7.728  1.3374  1.4594 -1.2444
49438SOL    HW258629   2.938   5.287   7.671  1.5674 -0.4910  1.7158
49439SOL     OW58630   1.009   6.804   2.112  0.6032 -0.3736  0.0553
49439SOL    HW158631   0.914   6.799   2.118  0.4458 -0.6965 -1.9721
49439SOL    HW258632   1.030   6.897   2.124  0.0452 -0.3035  0.5156
49440SOL     OW58633   7.194   0.171   7.188 -0.1476 -0.7050 -0.5198
49440SOL    HW158634   7.225   0.257   7.213  2.9697 -1.3546 -1.7273
49440SOL    HW258635   7.166   0.130   7.270  0.2101  0.7124  0.3426
49441SOL     OW58636   2.243   8.848   0.652 -0.2456  0.6422 -0.0060
49441SOL    HW158637   2.192   8.769   0.672 -0.2744  1.1206  1.9662
49441SOL    HW258638   2.194   8.920   0.691  2.0297  1.0894  2.3573
49442SOL     OW58639   9.038   0.821   4.648  0.0283 -0.1140 -0.2806
49442SOL    HW158640   9.036   0.744   4.705 -0.9939 -0.8247 -1.2243
49442SOL    HW258641   8.946   0.841   4.632  0.2854  0.2631 -1.4007
49443SOL     OW58642   9.201   9.036   1.277  0.1552  0.3875 -0.1645
49443SOL    HW158643   9.143   9.108   1.251 -1.8441 -0.2127  2.1659
49443SOL    HW258644   9.161   8.957   1.240 -0.5318 -0.0254  1.3821
49444SOL     OW58645   7.399   7.819   5.662 -0.6962  0.5318  0.3352
49444SOL    HW158646   7.471   7.819   5.599 -1.6728 -1.2430 -0.8979
49444SOL    HW258647   7.441   7.800   5.746  0.5561  2.2682  0.1573
49445SOL     OW58648   0.355   0.500   3.644  0.0661  0.2816  0.2737
49445SOL    HW158649   0.319   0.451   3.570 -0.8321  2.0677 -0.5353
49445SOL    HW258650   0.409   0.568   3.603 -0.2574  1.1555  1.2601
49446SOL     OW58651  10.113   2.038   8.544 -0.3370 -0.4964 -0.1651
49446SOL    HW158652  10.027   2.007   8.574  0.2179 -2.2331 -0.2953
49446SOL    HW258653  10.149   2.084   8.620 -0.9222 -0.7141  0.2579
49447SOL     OW58654   0.431   3.931   2.914  0.4807 -0.3329 -0.0045
49447SOL    HW158655   0.370   3.993   2.876  0.9782 -0.9708 -1.9761
49447SOL    HW258656   0.456   3.970   2.998 -1.4877  0.6271  0.1981
49448SOL     OW58657  12.318   3.902   1.784 -0.2260  0.5817 -0.2674
49448SOL    HW158658  12.374   3.900   1.862 -0.8698  0.1085  0.1875
49448SOL    HW258659  12.284   3.991   1.781 -0.8419  0.3739  0.4543
49449SOL     OW58660   5.005   9.922   4.487 -0.3830  0.1724 -0.3013
49449SOL    HW158661   5.058   9.998   4.510 -1.5588  1.0217 -0.2483
49449SOL    HW258662   4.969   9.891   4.570 -0.0299 -0.3480 -0.3413
49450SOL     OW58663   5.730   1.799   0.654  0.4881 -0.5196  0.4038
49450SOL    HW158664   5.638   1.777   0.663 -0.3008  1.9353 -0.8773
49450SOL    HW258665   5.753   1.844   0.736  0.3437 -0.4542  0.4079
49451SOL     OW58666   6.326   9.768   3.260 -0.3823 -0.4607  0.4185
49451SOL    HW158667   6.240   9.754   3.221 -1.6294 -0.5969  2.9829
49451SOL    HW258668   6.314   9.842   3.320  1.5995  0.2564  0.0191
49452SOL     OW58669   6.289   8.291   8.256  0.1500  0.2646  0.1902
49452SOL    HW158670   6.263   8.383   8.259  2.0703  0.9169 -0.9792
49452SOL    HW258671   6.208   8.244   8.236 -0.8012  1.7270  0.4201
49453SOL     OW58672   5.005   4.365   3.809 -0.1503 -0.3039 -0.1172
49453SOL    HW158673   5.038   4.454   3.806  0.8699 -0.4439  2.9873
49453SOL    HW258674   5.055   4.318   3.743  0.4991  1.0554 -0.6224
49454SOL     OW58675   7.676   3.732   7.885 -0.0497 -0.4775 -0.2887
49454SOL    HW158676   7.733   3.664   7.919 -1.2545 -1.4547 -0.1286
49454SOL    HW258677   7.689   3.729   7.790  0.6691 -0.2103 -0.2019
49455SOL     OW58678   3.894  12.284  11.662  0.1172 -0.4097  0.3403
49455SOL    HW158679   3.859  12.204  11.702  0.4770  0.0206  1.5693
49455SOL    HW258680   3.985  12.261  11.640  0.8982  0.2239  2.5888
49456SOL     OW58681   7.312  10.296   6.763  0.6621 -0.0861  0.0400
49456SOL    HW158682   7.393  10.311   6.715  1.7130  2.4558  2.3291
49456SOL    HW258683   7.334  10.315   6.855 -1.6652 -2.8048  1.3379
49457SOL     OW58684   6.683   7.965   0.338 -0.9661 -0.0168  0.1535
49457SOL    HW158685   6.654   8.051   0.307 -0.1967  0.4157  0.6077
49457SOL    HW258686   6.603   7.923   0.369 -1.1934  0.9854  0.9985
49458SOL     OW58687   0.153   0.451   6.305 -0.0622 -0.0503  0.3428
49458SOL    HW158688   0.090   0.382   6.285 -0.2906  0.4099 -0.6202
49458SOL    HW258689   0.130   0.481   6.393 -1.1723  0.0810  0.0263
49459SOL     OW58690   3.898   7.592  12.927 -0.1217  0.5537 -0.0125
49459SOL    HW158691   3.883   7.577  13.021  0.1776 -2.0397 -0.3127
49459SOL    HW258692   3.985   7.633  12.924  1.4865 -2.4945  0.7692
49460SOL     OW58693   7.119   0.133  11.635 -0.0086 -0.5585  0.3372
49460SOL    HW158694   7.091   0.224  11.630  0.4907 -0.1985  2.7266
49460SOL    HW258695   7.063   0.095  11.703  0.5322 -1.7178  0.1545
49461SOL     OW58696   4.621   3.310   6.291  0.2325  0.1838  0.1651
49461SOL    HW158697   4.594   3.338   6.203  0.8088 -1.4830 -0.5946
49461SOL    HW258698   4.716   3.295   6.283  0.4150  0.6889  1.2741
49462SOL     OW58699   4.660   5.978   0.415 -0.4001 -0.4750 -0.6184
49462SOL    HW158700   4.669   6.021   0.330  2.2936 -0.5102 -0.4440
49462SOL    HW258701   4.581   5.925   0.407 -1.3448  1.0689 -2.3641
49463SOL     OW58702   2.543   4.046   2.841 -0.2876  0.4787 -0.0284
49463SOL    HW158703   2.452   4.019   2.826 -1.0391  2.1109  1.2481
49463SOL    HW258704   2.560   4.111   2.773 -0.2218  0.4974  0.0064
49464SOL     OW58705   3.839   6.069   3.337 -0.1729  0.3300  0.2386
49464SOL    HW158706   3.765   6.130   3.331 -0.3002  0.2541  0.9952
49464SOL    HW258707   3.914   6.121   3.308  0.0199  1.4075  2.4457
49465SOL     OW58708   5.111   2.462   3.749  0.2886  0.1373 -0.3646
49465SOL    HW158709   5.198   2.500   3.740  0.2169  0.6957  1.0012
49465SOL    HW258710   5.087   2.479   3.840 -1.1873 -0.1543 -0.6733
49466SOL     OW58711  12.763   6.517   5.083 -0.1173 -0.4379  0.6891
49466SOL    HW158712  12.741   6.427   5.059 -1.0867 -0.2356  0.8042
49466SOL    HW258713  12.786   6.558   5.000  0.2630 -0.7671  0.6257
49467SOL     OW58714   3.279   5.979   0.476 -0.1788 -0.0898 -0.3316
49467SOL    HW158715   3.218   5.954   0.546 -0.5416 -1.7395 -1.1669
49467SOL    HW258716   3.356   6.013   0.522 -1.3965  1.3038  0.7661
49468SOL     OW58717   3.581   4.005   3.805  0.0907  0.4205 -0.0642
49468SOL    HW158718   3.667   3.994   3.764 -1.0656  0.5062 -2.7205
49468SOL    HW258719   3.586   4.089   3.850  1.1403  0.7994 -0.8499
49469SOL     OW58720   4.743   6.754   3.939 -0.7227 -0.2869 -0.6124
49469SOL    HW158721   4.728   6.685   3.874 -0.1990 -0.7965 -0.2058
49469SOL    HW258722   4.836   6.774   3.931 -0.4342 -1.0315  0.6233
49470SOL     OW58723  12.406   3.473   3.577 -0.4099 -0.3414 -0.1170
49470SOL    HW158724  12.393   3.378   3.578  0.1761 -0.4210 -0.0956
49470SOL    HW258725  12.500   3.485   3.584 -0.4318  0.2333 -0.7059
49471SOL     OW58726   1.033   1.297  10.013 -0.3721 -0.4835  0.6636
49471SOL    HW158727   1.020   1.213   9.970  1.1293 -0.9749  1.1075
49471SOL    HW258728   0.979   1.292  10.092  1.7717 -2.1965  2.1346
49472SOL     OW58729  10.582  10.574  12.233 -0.3847  0.1949 -0.7117
49472SOL    HW158730  10.610  10.532  12.151  1.1268 -2.0857  0.8596
49472SOL    HW258731  10.652  10.555  12.295 -2.3658  0.1170  1.6582
49473SOL     OW58732   9.721   2.205  12.073 -0.0383 -0.0037 -0.1155
49473SOL    HW158733   9.797   2.264  12.071 -0.4801  0.5893 -2.3691
49473SOL    HW258734   9.677   2.225  12.156  0.1127  2.4905 -0.5653
49474SOL     OW58735   5.235   4.177   9.693 -0.1184  0.5204  0.0968
49474SOL    HW158736   5.155   4.181   9.746 -1.1536 -1.3151 -1.2445
49474SOL    HW258737   5.209   4.130   9.614  1.2806  3.3715 -2.2660
49475SOL     OW58738   0.680   8.695   1.269  0.1984  0.3557  0.5533
49475SOL    HW158739   0.717   8.611   1.295 -1.3295 -0.9677 -1.2215
49475SOL    HW258740   0.732   8.722   1.193 -0.2272  0.2294  0.2057
49476SOL     OW58741  10.289   0.582   7.508  0.2843  0.1627 -0.4216
49476SOL    HW158742  10.273   0.667   7.549  2.3660  1.2356 -1.6794
49476SOL    HW258743  10.358   0.543   7.561 -0.9231 -0.9568  0.3751
49477SOL     OW58744   3.813   7.260   9.932  0.2478 -0.3389  0.0144
49477SOL    HW158745   3.766   7.200   9.989  0.4485  0.1541  0.7026
49477SOL    HW258746   3.748   7.326   9.907  0.2373 -0.3860 -0.0828
49478SOL     OW58747   3.546   4.891   6.347  0.1828 -0.0546  0.5273
49478SOL    HW158748   3.580   4.929   6.265  2.0291 -0.5521  1.0153
49478SOL    HW258749   3.476   4.951   6.374  0.8582  1.1935 -0.4056
49479SOL     OW58750   3.774   7.312   3.963  0.3887  0.1040 -0.3027
49479SOL    HW158751   3.816   7.226   3.959  0.4499  0.1124  0.1359
49479SOL    HW258752   3.684   7.295   3.935  1.0114  0.3302 -2.6373
49480SOL     OW58753   4.785  12.850   0.380  0.0237  0.0849  0.5600
49480SOL    HW158754   4.836  12.931   0.385  1.7021 -0.7996 -0.9297
49480SOL    HW258755   4.849  12.781   0.401 -0.2524 -1.1494 -2.2848
49481SOL     OW58756  10.820   8.807  12.194  0.9459 -0.9045 -0.4730
49481SOL    HW158757  10.821   8.798  12.099  0.4111 -1.1114 -0.4637
49481SOL    HW258758  10.833   8.900  12.210 -1.3358 -0.4610 -0.8454
49482SOL     OW58759   8.936   8.638  12.500 -0.4468  0.0717 -0.6518
49482SOL    HW158760   9.027   8.613  12.487 -0.5774 -0.4820 -0.5289
49482SOL    HW258761   8.899   8.643  12.412 -0.9249 -2.1256 -0.6214
49483SOL     OW58762   8.135  11.528   3.293  0.0871 -0.0055 -0.2574
49483SOL    HW158763   8.099  11.614   3.271 -0.7716  0.0643  1.2496
49483SOL    HW258764   8.079  11.497   3.365  1.0663 -1.3386 -0.0377
49484SOL     OW58765   8.079  12.328   6.835  0.4896 -0.0318  0.1757
49484SOL    HW158766   8.122  12.413   6.846  1.0685 -0.4292  1.0823
49484SOL    HW258767   8.092  12.283   6.918  0.4441 -1.1243 -0.3799
49485SOL     OW58768  12.838  10.604   1.630  0.1064 -0.0104  0.0151
49485SOL    HW158769  12.850  10.515   1.662  0.4996 -0.0884 -0.3440
49485SOL    HW258770  12.780  10.595   1.554 -0.8623  0.1802  0.7139
49486SOL     OW58771   5.708  11.513  11.822 -0.3986 -0.1811 -1.1463
49486SOL    HW158772   5.745  11.494  11.908 -0.8653  0.6479 -0.7392
49486SOL    HW258773   5.677  11.604  11.830  1.4183  0.6420 -2.8517
49487SOL     OW58774   7.878  10.861  12.613  0.1089  0.0275 -0.3091
49487SOL    HW158775   7.893  10.945  12.655 -0.7142 -0.4753  1.0490
49487SOL    HW258776   7.964  10.817  12.616  0.1745  0.1938  0.4279
49488SOL     OW58777   9.518   8.796   8.522  0.0381  0.2818  0.3674
49488SOL    HW158778   9.493   8.755   8.605 -0.0037  0.6472  0.5412
49488SOL    HW258779   9.437   8.831   8.487 -0.1257 -0.8088 -0.3675
49489SOL     OW58780   8.188   4.426   1.028 -0.0216 -0.0180 -0.3643
49489SOL    HW158781   8.183   4.380   1.112  1.2124  2.8606  1.4224
49489SOL    HW258782   8.252   4.376   0.977 -0.7063 -1.7464  0.3765
49490SOL     OW58783  12.584  11.707   5.616 -0.7064  0.0212  0.5801
49490SOL    HW158784  12.665  11.757   5.601  0.1846 -0.9343  1.9276
49490SOL    HW258785  12.559  11.675   5.530  1.1892 -0.8742  0.3169
49491SOL     OW58786   8.601   0.688   0.754  0.0374  0.5565  0.2156
49491SOL    HW158787   8.513   0.724   0.765 -0.9679 -0.8824 -2.2028
49491SOL    HW258788   8.597   0.602   0.797 -0.1185  0.0230 -0.8388
49492SOL     OW58789   8.525  10.211   4.176  0.2546 -0.4315 -0.2705
49492SOL    HW158790   8.433  10.226   4.158  0.2803  0.6859  0.4269
49492SOL    HW258791   8.525  10.152   4.252  0.1308 -1.2942 -0.9310
49493SOL     OW58792  11.853   8.607   6.689 -0.8580 -0.0155  0.0756
49493SOL    HW158793  11.794   8.651   6.750 -0.1391  0.3367  0.5436
49493SOL    HW258794  11.845   8.657   6.608 -0.3038  0.7999  0.5019
49494SOL     OW58795  12.443   8.542  11.382  0.0624  0.0171 -0.1055
49494SOL    HW158796  12.447   8.633  11.412  3.4490 -0.1065  0.2862
49494SOL    HW258797  12.463   8.547  11.289 -0.1860 -0.2966 -0.1759
49495SOL     OW58798   7.694   0.179   7.103  0.4789  0.2606 -0.0887
49495SOL    HW158799   7.718   0.209   7.015 -1.7063 -1.6581 -1.4590
49495SOL    HW258800   7.775   0.141   7.139  1.5701  1.6763 -0.9687
49496SOL     OW58801   1.736   1.433   7.291  0.3325 -0.0156 -0.5043
49496SOL    HW158802   1.790   1.355   7.291 -2.8311 -2.4120 -0.1741
49496SOL    HW258803   1.700   1.437   7.380  0.9616  2.3370 -0.2646
49497SOL     OW58804   9.921   1.695   6.824  0.3095 -0.4598 -0.3582
49497SOL    HW158805   9.827   1.684   6.812  0.2665 -1.1081  0.5249
49497SOL    HW258806   9.953   1.726   6.739 -1.1412  2.8256  0.1385
49498SOL     OW58807  12.311   4.424   2.214  0.1559  0.0212  0.1169
49498SOL    HW158808  12.353   4.434   2.129 -0.2418  0.8591  0.0186
49498SOL    HW258809  12.270   4.508   2.232 -1.3455 -0.7125  0.3004
49499SOL     OW58810  12.071   5.510   5.298  0.4882 -0.1642  0.1155
49499SOL    HW158811  12.057   5.600   5.271  1.7818 -0.1691 -0.6270
49499SOL    HW258812  11.989   5.465   5.276  0.1024  0.6722 -0.1738
49500SOL     OW58813   3.446   7.974   7.177 -0.4839  0.5692 -0.2190
49500SOL    HW158814   3.538   7.986   7.201 -0.4246 -0.8828  0.3341
49500SOL    HW258815   3.433   8.035   7.103  1.0119  0.5189 -0.5582
49501SOL     OW58816   7.892   0.762   2.498 -0.1845 -0.3339  0.3020
49501SOL    HW158817   7.915   0.842   2.547 -2.2988  1.0177 -0.7584
49501SOL    HW258818   7.929   0.776   2.411 -0.0070 -0.8113  0.3012
49502SOL     OW58819   8.137   8.103   4.247  0.0360 -0.3541 -0.8396
49502SOL    HW158820   8.198   8.172   4.224  0.8232  0.7186  3.4911
49502SOL    HW258821   8.180   8.022   4.219  1.9426  0.5908 -0.7912
49503SOL     OW58822   4.965   7.113   3.407 -0.1793  0.0854  0.6403
49503SOL    HW158823   5.031   7.102   3.476  1.3113  0.7961 -0.6139
49503SOL    HW258824   4.981   7.041   3.346 -0.6406  0.1957  0.3833
49504SOL     OW58825   5.348   2.100   2.213  0.4148  0.1799  0.4606
49504SOL    HW158826   5.418   2.147   2.259  1.4344 -0.4279 -0.4279
49504SOL    HW258827   5.331   2.023   2.267  0.5376  0.2492  0.5972
49505SOL     OW58828   0.687   2.850  10.370  0.2886 -0.3371  0.1054
49505SOL    HW158829   0.722   2.926  10.417 -0.1349 -0.9364  1.4487
49505SOL    HW258830   0.754   2.783  10.381  1.0880  0.0593 -1.8640
49506SOL     OW58831   4.492   4.851   8.433 -0.3756 -0.7904  0.2152
49506SOL    HW158832   4.489   4.937   8.391 -1.0219 -1.1614 -0.5316
49506SOL    HW258833   4.575   4.850   8.480 -0.4543  0.3201  0.4061
49507SOL     OW58834   3.627  10.298   7.396 -0.3242  0.4609 -0.1551
49507SOL    HW158835   3.721  10.304   7.409 -0.5345  1.1834  1.2367
49507SOL    HW258836   3.615  10.307   7.301  1.1245 -1.8743 -0.6412
49508SOL     OW58837   0.775   8.799   9.117  0.5960 -0.0234  0.2740
49508SOL    HW158838   0.707   8.853   9.157 -0.8825 -0.7934 -1.0397
49508SOL    HW258839   0.786   8.837   9.029  0.2889 -1.1633 -0.2826
49509SOL     OW58840  11.627   6.341   1.507  0.3350  0.7287 -0.5404
49509SOL    HW158841  11.693   6.272   1.517 -0.4005  0.0852 -0.0393
49509SOL    HW258842  11.589   6.350   1.595  0.8277  2.1934 -0.4605
49510SOL     OW58843   5.669  10.030   6.569 -0.3276  0.2935  0.4451
49510SOL    HW158844   5.713  10.100   6.618 -0.0524  0.4141  0.0312
49510SOL    HW258845   5.721   9.952   6.587 -2.1981 -0.4600  3.1839
49511SOL     OW58846   1.146   7.004   8.695 -0.0851  0.5978 -0.4659
49511SOL    HW158847   1.230   7.005   8.649  0.0966  1.0569 -0.1273
49511SOL    HW258848   1.095   7.073   8.652 -0.6677 -0.3421 -1.3502
49512SOL     OW58849   8.784   1.560  10.304  0.1230 -0.2328 -0.1543
49512SOL    HW158850   8.701   1.540  10.260  0.2581 -2.3673  0.4499
49512SOL    HW258851   8.806   1.648  10.275 -2.2569  0.3200 -0.4808
49513SOL     OW58852   0.444   3.219   2.377  0.1427  0.7078 -0.1133
49513SOL    HW158853   0.368   3.245   2.428  0.0268 -1.1199  0.7398
49513SOL    HW258854   0.408   3.179   2.298  0.2991  1.9657 -0.8563
49514SOL     OW58855   7.360   6.127   8.223 -0.4454 -0.1032  0.1199
49514SOL    HW158856   7.280   6.131   8.276 -0.6054  2.8468 -0.1589
49514SOL    HW258857   7.424   6.084   8.280 -2.0026 -1.9694  0.5796
49515SOL     OW58858   1.854   2.366   8.683 -0.0293 -0.2937 -0.3036
49515SOL    HW158859   1.858   2.314   8.603  0.2422 -0.2549 -0.3165
49515SOL    HW258860   1.831   2.303   8.751  0.5813 -0.4914 -0.2709
49516SOL     OW58861   8.776  11.290   8.270  0.0800  0.2770 -0.4789
49516SOL    HW158862   8.768  11.375   8.313 -1.6763 -0.3228  0.4720
49516SOL    HW258863   8.869  11.268   8.279  0.1226  1.0013  1.4459
49517SOL     OW58864   3.177   7.405   3.498 -0.1805 -0.3300  0.1888
49517SOL    HW158865   3.152   7.344   3.429 -1.0418  1.7052 -1.4068
49517SOL    HW258866   3.123   7.380   3.573 -1.6495 -0.6168 -0.9066
49518SOL     OW58867   6.296   5.241   6.615 -0.0273 -0.3090 -0.3215
49518SOL    HW158868   6.297   5.247   6.519 -0.5599 -0.9647 -0.3791
49518SOL    HW258869   6.317   5.330   6.645 -0.0757 -0.0455 -1.0412
49519SOL     OW58870  12.292   2.766   7.444  0.7019 -0.1318 -0.6053
49519SOL    HW158871  12.202   2.776   7.411  0.9978 -0.7117 -1.6225
49519SOL    HW258872  12.298   2.674   7.470  1.4132 -0.4630 -1.8651
49520SOL     OW58873  10.743   2.372   9.051 -0.9547  0.2000  0.3184
49520SOL    HW158874  10.809   2.359   8.984 -2.2680 -1.0087 -0.7893
49520SOL    HW258875  10.738   2.468   9.061  2.5838  0.3783  2.2140
49521SOL     OW58876   1.939   1.464   1.901 -0.6310 -0.4096 -0.0590
49521SOL    HW158877   1.988   1.534   1.945  0.4559 -0.4008 -1.2361
49521SOL    HW258878   1.922   1.400   1.970 -0.7543  0.5394  0.8111
49522SOL     OW58879   9.950   1.932  12.342  0.5634 -0.0639  0.5080
49522SOL    HW158880   9.855   1.936  12.351  0.7974  0.9764  3.1926
49522SOL    HW258881   9.976   1.854  12.391  1.0736 -1.0183 -1.1784
49523SOL     OW58882   0.046   6.181   2.712 -0.3341  0.1585  0.2412
49523SOL    HW158883   0.112   6.221   2.655 -0.5303  0.5177  0.2661
49523SOL    HW258884  -0.036   6.223   2.687 -0.4157  0.3493  0.8222
49524SOL     OW58885   5.899   8.404   7.017  0.7431  0.3487  0.4149
49524SOL    HW158886   5.903   8.492   7.053 -0.8795  0.5357  0.2137
49524SOL    HW258887   5.815   8.370   7.046  0.8324 -0.7006 -0.4875
49525SOL     OW58888   5.690   8.045   3.372 -0.6399  0.2880 -0.2115
49525SOL    HW158889   5.608   8.005   3.400  0.8011 -2.5152  0.3626
49525SOL    HW258890   5.710   8.002   3.289  1.2572 -0.6977  0.6964
49526SOL     OW58891  10.551   2.273   8.358 -0.4366  0.3229  0.4898
49526SOL    HW158892  10.487   2.328   8.403 -0.7431  1.8353 -1.6316
49526SOL    HW258893  10.635   2.297   8.395 -0.4550  2.9879 -0.9607
49527SOL     OW58894   8.326   7.152   3.087 -0.0297  0.4226  0.1914
49527SOL    HW158895   8.342   7.218   3.155  1.5576 -0.5963  0.8480
49527SOL    HW258896   8.399   7.162   3.026 -1.2208  1.0493 -1.2084
49528SOL     OW58897   1.510   1.525   6.637  0.0370  0.2069  0.6467
49528SOL    HW158898   1.510   1.598   6.574  1.9262  1.0098  1.5049
49528SOL    HW258899   1.551   1.561   6.716  0.2672 -1.5654  1.3844
49529SOL     OW58900   8.151   4.504   5.930  0.3723  0.2778 -0.7990
49529SOL    HW158901   8.209   4.541   5.997 -0.0930  0.5127 -0.5240
49529SOL    HW258902   8.090   4.448   5.978  0.7892 -0.5080 -1.1629
49530SOL     OW58903   8.799   0.142   5.882  0.2948  0.6667  0.3111
49530SOL    HW158904   8.810   0.120   5.974 -1.3375  0.2087  0.4234
49530SOL    HW258905   8.858   0.082   5.836  0.2302  0.0702  0.9867
49531SOL     OW58906  12.821  12.974  11.123  0.1272  0.2028 -0.4441
49531SOL    HW158907  12.900  12.920  11.120 -0.7952 -1.2030 -1.1882
49531SOL    HW258908  12.829  13.032  11.048  0.3041 -0.1779 -0.7255
49532SOL     OW58909  10.875   0.696   4.014 -0.0463  0.2799  1.0282
49532SOL    HW158910  10.787   0.665   4.036 -0.4357  1.1135  0.7221
49532SOL    HW258911  10.886   0.775   4.067  0.5337  0.1561  1.0899
49533SOL     OW58912   9.216   5.306   0.938 -0.0783  0.3216 -0.1291
49533SOL    HW158913   9.308   5.281   0.929  0.2805  1.2136  0.8442
49533SOL    HW258914   9.219   5.396   0.970 -1.2551 -0.3317  2.0322
49534SOL     OW58915   0.919   5.403   2.847 -0.0088 -0.2822 -0.1175
49534SOL    HW158916   0.876   5.333   2.898 -0.5430 -0.0625 -0.2563
49534SOL    HW258917   0.870   5.482   2.869 -0.3299 -0.2072 -1.0692
49535SOL     OW58918   2.578  10.941   6.139 -0.1360 -0.3909 -0.1404
49535SOL    HW158919   2.662  10.986   6.144 -0.3027 -0.0659 -0.2269
49535SOL    HW258920   2.560  10.934   6.045  0.2471 -1.3207 -0.1596
49536SOL     OW58921   8.083   1.835  12.284 -0.2619  0.3109 -0.2646
49536SOL    HW158922   8.123   1.821  12.370  1.5542  2.4192 -0.6672
49536SOL    HW258923   8.106   1.757  12.234 -0.2602 -0.3768  0.7740
49537SOL     OW58924   8.874   7.048   5.066  0.1328  0.2665 -0.0304
49537SOL    HW158925   8.939   7.073   5.131  0.2488 -1.9544  0.7872
49537SOL    HW258926   8.901   6.960   5.037 -2.6605 -0.9212  0.6323
49538SOL     OW58927  10.806  12.633   4.001  0.2984  0.1195  0.1399
49538SOL    HW158928  10.745  12.684   4.054  1.5838  0.2113  1.5733
49538SOL    HW258929  10.787  12.542   4.022  0.7401  0.1525  0.6870
49539SOL     OW58930   6.968   3.209   4.163  0.0261  0.0653 -0.1864
49539SOL    HW158931   6.924   3.293   4.149 -1.9689 -0.9007 -0.0525
49539SOL    HW258932   6.897   3.146   4.172  1.3817 -1.2331  2.5606
49540SOL     OW58933   5.133   2.755   4.703 -0.4955 -0.4162 -0.0197
49540SOL    HW158934   5.096   2.777   4.618  0.5148  1.5886 -0.0035
49540SOL    HW258935   5.227   2.765   4.692 -0.4073  0.8428  1.5607
49541SOL     OW58936   7.945   9.404   9.379 -0.2569 -0.7101  0.4726
49541SOL    HW158937   7.889   9.442   9.447 -1.2771 -1.4284  0.0496
49541SOL    HW258938   7.950   9.311   9.402 -0.0128 -0.8207 -0.0270
49542SOL     OW58939   7.498   8.031   1.156  0.4411 -0.0741 -0.5289
49542SOL    HW158940   7.420   8.080   1.131  1.0743  1.4319  0.3331
49542SOL    HW258941   7.569   8.073   1.108  1.0657  0.1871  0.5975
49543SOL     OW58942   0.704  12.497  11.499 -0.1937 -0.4616  0.4129
49543SOL    HW158943   0.763  12.428  11.469  0.2684 -0.3728  1.0855
49543SOL    HW258944   0.743  12.578  11.467 -0.8033 -0.5027 -0.4842
49544SOL     OW58945  11.612   5.814   2.263  0.4239  0.0662 -0.0672
49544SOL    HW158946  11.578   5.815   2.353  1.1760 -0.8531  0.2545
49544SOL    HW258947  11.634   5.905   2.245  0.3952  0.2468  0.7447
49545SOL     OW58948   0.029   0.791   4.731  0.2616 -0.2381 -0.8720
49545SOL    HW158949   0.100   0.745   4.774 -0.6580 -1.6201 -0.7852
49545SOL    HW258950  -0.026   0.722   4.694  1.9876  0.7265 -6.1518
49546SOL     OW58951   1.705  11.040   9.940  0.7781 -0.1051  0.5068
49546SOL    HW158952   1.771  10.989   9.894  2.1514  2.3129 -0.4306
49546SOL    HW258953   1.703  11.124   9.893 -2.2018  0.3195  1.1939
49547SOL     OW58954   2.432   4.073  11.394  0.0947  1.3258 -0.3990
49547SOL    HW158955   2.353   4.028  11.425  1.2796 -0.4766  0.1868
49547SOL    HW258956   2.426   4.161  11.431 -1.4104  1.0838 -0.0024
49548SOL     OW58957  11.283   6.032   2.931  0.2880  0.4430  0.1821
49548SOL    HW158958  11.262   5.942   2.907 -0.8774  0.8757 -0.4853
49548SOL    HW258959  11.330   6.067   2.856 -0.8821  0.9357 -0.3468
49549SOL     OW58960   3.390   2.786   0.998  0.3341 -0.3678 -0.7485
49549SOL    HW158961   3.458   2.739   1.047 -1.6357 -0.4521  2.1263
49549SOL    HW258962   3.365   2.858   1.055 -1.6043 -0.0204 -1.9611
49550SOL     OW58963   8.266   2.820   6.197 -0.0398 -0.1392  0.3658
49550SOL    HW158964   8.268   2.772   6.114 -1.7857 -1.6971  1.1525
49550SOL    HW258965   8.213   2.897   6.178 -1.9198 -1.3616  0.3935
49551SOL     OW58966   2.349   5.273   9.196  0.0168  0.3104  0.5350
49551SOL    HW158967   2.386   5.185   9.189  0.4455  0.5862 -1.3347
49551SOL    HW258968   2.418   5.324   9.239  0.3994  0.0485  0.2460
49552SOL     OW58969   9.099   0.233   0.736 -0.1545 -1.1286 -0.0477
49552SOL    HW158970   9.179   0.280   0.758  0.3385 -1.6892 -0.5789
49552SOL    HW258971   9.119   0.188   0.654 -1.2051 -0.8396 -0.4832
49553SOL     OW58972  12.837   3.054  11.907  0.0696 -0.5437  0.3137
49553SOL    HW158973  12.748   3.086  11.922 -0.1925 -0.9607 -0.2980
49553SOL    HW258974  12.839   3.032  11.814  0.5856 -1.2197  0.4782
49554SOL     OW58975   2.817   5.150   8.912 -0.3221  0.2754 -0.5715
49554SOL    HW158976   2.851   5.144   9.002 -1.0147  0.2007 -0.3093
49554SOL    HW258977   2.851   5.072   8.868 -0.9458 -0.3038 -0.0404
49555SOL     OW58978   5.585  12.366   2.510 -0.1405  0.9093  0.7617
49555SOL    HW158979   5.574  12.271   2.519 -0.6700  0.8883 -0.0030
49555SOL    HW258980   5.678  12.381   2.526 -0.2227  0.3819  1.8195
49556SOL     OW58981   5.708  10.684   8.758 -0.3795  0.2805  0.6138
49556SOL    HW158982   5.747  10.764   8.794  1.1696 -0.9424  1.8264
49556SOL    HW258983   5.685  10.632   8.834  0.0556 -1.0605 -0.1246
49557SOL     OW58984  10.839   4.486   9.751  0.1859 -0.1054  0.2842
49557SOL    HW158985  10.828   4.553   9.818 -1.8082 -0.7793  0.7257
49557SOL    HW258986  10.757   4.490   9.700  0.2047 -1.8529  0.0421
49558SOL     OW58987  11.015   8.643  11.530  0.1553  0.5391  0.0656
49558SOL    HW158988  11.103   8.624  11.497  0.7263  0.2484  1.6453
49558SOL    HW258989  10.964   8.664  11.452  1.4941  0.2091 -0.9397
49559SOL     OW58990   3.341   6.465   8.297 -0.6607  0.4532 -0.3853
49559SOL    HW158991   3.270   6.524   8.318 -1.7288 -0.5814 -0.9740
49559SOL    HW258992   3.323   6.436   8.207 -1.2930 -2.2648  0.5249
49560SOL     OW58993   3.145   1.951   2.398 -0.0923  0.1098 -0.0961
49560SOL    HW158994   3.198   1.871   2.397 -0.2400  0.0129 -0.5798
49560SOL    HW258995   3.078   1.935   2.464  0.3210  0.1300  0.3339
49561SOL     OW58996  11.368   6.840   2.742 -0.0118  0.0148 -0.1439
49561SOL    HW158997  11.405   6.751   2.749  3.9353  1.4981  0.5037
49561SOL    HW258998  11.406   6.887   2.816 -2.3335  2.2294 -0.2409
49562SOL     OW58999   5.980   3.898   1.445 -0.2732 -0.6690  0.0027
49562SOL    HW159000   5.949   3.969   1.389 -1.2705 -0.4641  0.7765
49562SOL    HW259001   5.900   3.854   1.474  0.1779 -0.3942  1.7508
49563SOL     OW59002  11.454   1.611   0.652 -0.2118  0.0830 -0.0330
49563SOL    HW159003  11.476   1.564   0.732 -0.0424 -0.0291 -0.1447
49563SOL    HW259004  11.512   1.687   0.652  1.9880 -1.4628 -1.5427
49564SOL     OW59005  10.812  12.022   4.034 -0.3517 -0.0767 -0.6603
49564SOL    HW159006  10.759  12.032   3.954  2.2787  0.4238 -2.4597
49564SOL    HW259007  10.902  12.013   4.002  0.8570  0.5478  2.2939
49565SOL     OW59008   2.829   5.436   8.454  0.2108 -0.5277 -0.0560
49565SOL    HW159009   2.866   5.361   8.408 -2.0321 -2.2777  0.8074
49565SOL    HW259010   2.784   5.399   8.529  0.5298  1.8934  1.4496
49566SOL     OW59011   6.321   9.755   1.030 -0.2621  0.3470  0.5377
49566SOL    HW159012   6.267   9.825   0.994 -1.0042 -0.9905 -1.1171
49566SOL    HW259013   6.263   9.678   1.031  1.0198 -0.6641  0.6021
49567SOL     OW59014   8.452   9.176   6.387 -0.9379 -0.2957 -0.0087
49567SOL    HW159015   8.385   9.232   6.426 -2.0407 -2.7988  1.9874
49567SOL    HW259016   8.403   9.115   6.331  0.0797 -0.1009 -1.1549
49568SOL     OW59017   4.489   7.812   8.541  0.2914 -0.4184  0.2798
49568SOL    HW159018   4.519   7.892   8.586 -0.6322  0.3943 -0.5024
49568SOL    HW259019   4.410   7.839   8.495  0.5293 -1.5378 -0.8367
49569SOL     OW59020   1.366   6.405   7.837  0.3616  0.3170  0.0380
49569SOL    HW159021   1.449   6.452   7.838  0.1657  0.6939 -0.7375
49569SOL    HW259022   1.318   6.442   7.763 -0.3653 -0.1252  0.2762
49570SOL     OW59023   0.820  10.956   6.869 -0.3541  0.1320 -0.3757
49570SOL    HW159024   0.901  10.968   6.820  0.6095  1.4816  1.4192
49570SOL    HW259025   0.816  10.861   6.886 -0.3139 -0.2450 -2.2903
49571SOL     OW59026   1.116  10.806   5.021 -0.7528 -0.5078  0.4809
49571SOL    HW159027   1.194  10.769   5.062  0.2247  2.4482  1.5497
49571SOL    HW259028   1.070  10.849   5.093 -1.8149  0.2893 -0.6479
49572SOL     OW59029   5.560   5.487   6.662  0.1529  0.5623  0.2305
49572SOL    HW159030   5.633   5.522   6.713  1.2562 -1.7881  0.4378
49572SOL    HW259031   5.565   5.532   6.578  2.9018 -0.5966 -0.3378
49573SOL     OW59032   2.829   6.757  10.388 -0.1008 -0.0816 -0.1204
49573SOL    HW159033   2.862   6.845  10.403  1.3242 -0.8250  1.4021
49573SOL    HW259034   2.901   6.699  10.414 -1.5252 -1.7327  0.3630
49574SOL     OW59035   9.980   2.021   0.937  0.2374 -0.5302 -0.0175
49574SOL    HW159036   9.923   1.948   0.962  1.6818 -1.3291  1.0856
49574SOL    HW259037  10.036   2.035   1.013  0.1777  1.5920 -0.3106
49575SOL     OW59038   4.270  10.456   5.735  0.5476  0.1092 -0.3051
49575SOL    HW159039   4.338  10.517   5.708  2.0222 -1.3506 -0.0521
49575SOL    HW259040   4.317  10.383   5.775 -1.2238 -0.6076  0.5935
49576SOL     OW59041  12.198   7.847  10.365 -0.1199 -0.1636 -1.1130
49576SOL    HW159042  12.205   7.792  10.442  1.5197  1.7817  0.2447
49576SOL    HW259043  12.112   7.889  10.372 -0.9150 -1.6558 -1.5911
49577SOL     OW59044   0.710   9.727   3.403 -0.5215 -0.6027  0.3260
49577SOL    HW159045   0.735   9.768   3.321 -1.3251 -1.2683 -0.2711
49577SOL    HW259046   0.785   9.673   3.428 -0.6899 -1.2682 -0.5623
49578SOL     OW59047   3.102   2.385   8.177 -0.6196  0.6645 -0.6608
49578SOL    HW159048   3.077   2.326   8.249 -1.2750  1.0541 -0.5612
49578SOL    HW259049   3.122   2.468   8.220 -0.5911  0.7764 -0.8890
49579SOL     OW59050   2.630   7.634   6.509  0.6307  0.3162  0.7273
49579SOL    HW159051   2.638   7.698   6.580  0.3725  1.3715 -0.1655
49579SOL    HW259052   2.536   7.617   6.502  0.4545  1.5921 -0.5057
49580SOL     OW59053   7.163   6.219   3.738 -0.5104 -0.4376 -0.2857
49580SOL    HW159054   7.250   6.197   3.773 -0.0107 -0.0828 -1.2540
49580SOL    HW259055   7.179   6.238   3.645 -1.3253  1.4060 -0.0870
49581SOL     OW59056   3.658   3.865   4.334  0.2077 -0.3112  0.4457
49581SOL    HW159057   3.721   3.893   4.267 -1.4419  0.3301 -0.8885
49581SOL    HW259058   3.688   3.908   4.414 -0.0466  2.2540 -0.7445
49582SOL     OW59059   2.012   6.720   2.898 -0.4861 -0.1352 -0.3722
49582SOL    HW159060   2.047   6.657   2.836 -1.3148 -0.9198 -0.0677
49582SOL    HW259061   1.917   6.712   2.890 -0.6104 -0.1983  0.9368
49583SOL     OW59062   3.544   9.018   4.265 -0.4132  0.4136  0.6112
49583SOL    HW159063   3.518   9.009   4.357 -1.7473 -1.9090  0.0898
49583SOL    HW259064   3.461   9.015   4.217  0.4198 -1.7143 -0.8247
49584SOL     OW59065   4.155   1.071   5.483 -0.4564  0.2294 -0.3255
49584SOL    HW159066   4.214   1.135   5.523 -0.6259 -0.1626  0.5814
49584SOL    HW259067   4.213   1.003   5.449 -0.3552  0.0987  0.1053
49585SOL     OW59068  12.938  11.971   3.946 -0.1373 -0.1274  0.2929
49585SOL    HW159069  12.899  11.922   3.874 -1.6955 -1.0148  1.6711
49585SOL    HW259070  12.915  12.063   3.929 -0.4158 -0.3162 -0.3582
49586SOL     OW59071   9.740   0.393   4.120 -0.3659  0.0495  0.6255
49586SOL    HW159072   9.755   0.475   4.073  1.2595 -0.9313 -0.6792
49586SOL    HW259073   9.667   0.352   4.073  0.6920 -0.5291 -0.5683
49587SOL     OW59074   1.334   1.889   7.630  0.4025 -0.3448 -0.1479
49587SOL    HW159075   1.365   1.833   7.701  0.9724 -0.6968 -0.6653
49587SOL    HW259076   1.262   1.939   7.668  0.8835 -0.3250  0.7503
49588SOL     OW59077  12.845   7.310   0.156 -0.2175  0.2289 -0.3439
49588SOL    HW159078  12.938   7.311   0.131  0.3536  1.2528  1.5653
49588SOL    HW259079  12.841   7.248   0.229 -0.7760  1.0811  0.3668
49589SOL     OW59080   3.995   8.075   9.782 -0.4903  0.4362  0.3264
49589SOL    HW159081   4.082   8.051   9.748 -0.9743 -0.3665 -0.3766
49589SOL    HW259082   3.993   8.171   9.777  0.1442  0.4325 -0.1749
49590SOL     OW59083   1.603   9.845   6.750  0.7796 -0.8437 -0.9062
49590SOL    HW159084   1.611   9.925   6.698  0.5424 -0.1892  0.0277
49590SOL    HW259085   1.681   9.846   6.807 -1.0442  0.8092  1.8365
49591SOL     OW59086  10.087   7.993   0.938  0.0598 -0.0283  0.0420
49591SOL    HW159087  10.118   7.907   0.968  0.8647 -0.1748 -1.1466
49591SOL    HW259088  10.133   8.056   0.994 -1.1394 -0.3531  1.4630
49592SOL     OW59089   6.395   0.716   1.875 -0.3770  0.1588  0.2492
49592SOL    HW159090   6.350   0.799   1.860 -0.7448  0.0576  0.7667
49592SOL    HW259091   6.440   0.728   1.959 -1.7606 -0.7082  1.1596
49593SOL     OW59092   1.692   5.930   2.114  0.7584  0.1808  0.2113
49593SOL    HW159093   1.675   6.016   2.076  3.1658  0.9736  0.7525
49593SOL    HW259094   1.620   5.916   2.176  0.2283  1.7003 -0.0218
49594SOL     OW59095   8.183   0.496   5.610 -0.2304  0.2424  0.3682
49594SOL    HW159096   8.272   0.507   5.578  0.5178 -0.6888  2.0163
49594SOL    HW259097   8.155   0.585   5.634 -0.6315  0.8894 -2.2005
49595SOL     OW59098   6.555   9.052   7.416 -0.5719 -0.2693 -0.0278
49595SOL    HW159099   6.486   9.008   7.368 -1.6272  0.4507  0.7897
49595SOL    HW259100   6.545   9.022   7.507  1.2571 -1.4501 -0.1695
49596SOL     OW59101  12.871   0.115   4.169 -0.7806  0.2226 -0.4892
49596SOL    HW159102  12.947   0.066   4.199 -1.0978  0.6235  1.0820
49596SOL    HW259103  12.847   0.075   4.086 -1.0109 -2.2875  0.6959
49597SOL     OW59104   0.063   3.086   3.097  0.3389  0.1232  0.2921
49597SOL    HW159105   0.077   2.997   3.129 -1.0382 -0.1052  0.3178
49597SOL    HW259106   0.150   3.117   3.072  0.7328 -1.5362 -0.5292
49598SOL     OW59107   5.817   7.647   7.406  0.1279  0.1129 -0.1119
49598SOL    HW159108   5.759   7.600   7.466  0.1034 -0.2232 -0.3905
49598SOL    HW259109   5.904   7.613   7.426  0.3913  1.4133  1.0590
49599SOL     OW59110   5.660   3.518   2.874  0.1280 -0.4866 -0.0860
49599SOL    HW159111   5.588   3.475   2.919  0.9215  0.0848  1.8294
49599SOL    HW259112   5.668   3.604   2.917  1.3498 -0.1761 -0.8648
49600SOL     OW59113  10.213   4.187   3.047 -0.6219 -0.0967 -0.6006
49600SOL    HW159114  10.269   4.133   2.990  1.4592  0.9956  0.3338
49600SOL    HW259115  10.217   4.274   3.008  0.9039  0.6888  1.1692
49601SOL     OW59116  10.580   2.562   8.241 -0.2356 -0.2962 -0.1268
49601SOL    HW159117  10.631   2.610   8.306  1.6485 -0.9909 -1.0175
49601SOL    HW259118  10.583   2.617   8.163 -2.4077  0.4870  0.2604
49602SOL     OW59119   2.316   9.577   0.615 -0.2758  0.3544 -0.4294
49602SOL    HW159120   2.382   9.645   0.628  2.1418 -1.9372  0.1769
49602SOL    HW259121   2.292   9.549   0.703 -0.3154 -0.4130 -0.6740
49603SOL     OW59122  11.169  11.060   2.151  0.3452  0.6905  0.8010
49603SOL    HW159123  11.248  11.112   2.166  1.5885 -0.9606  0.1932
49603SOL    HW259124  11.165  11.000   2.225  0.4895 -0.2024  0.1042
49604SOL     OW59125   9.011   9.042  12.258 -1.4371 -0.1429 -0.3459
49604SOL    HW159126   9.097   9.028  12.218 -1.2139 -1.5736  0.5464
49604SOL    HW259127   9.029   9.094  12.337 -1.4908  0.1676 -0.5365
49605SOL     OW59128  12.678   8.460   5.823  0.0930 -0.1136  0.9769
49605SOL    HW159129  12.591   8.498   5.837 -0.0245 -0.4681  1.2210
49605SOL    HW259130  12.661   8.377   5.779  0.3297 -0.0332  0.7321
49606SOL     OW59131  12.971   8.791   4.022  0.4617 -0.1796 -0.1572
49606SOL    HW159132  12.967   8.887   4.019 -0.4188 -0.1940  0.2994
49606SOL    HW259133  12.945   8.764   3.934 -0.2889 -0.0136  0.0062
49607SOL     OW59134   6.092   0.226   4.139  0.3616 -0.3113  0.6603
49607SOL    HW159135   6.174   0.230   4.091  0.6169  0.8738  1.1487
49607SOL    HW259136   6.042   0.302   4.109 -0.3267 -0.7105  0.7672
49608SOL     OW59137   5.555  11.810   3.210 -0.7424  0.2742  1.3812
49608SOL    HW159138   5.524  11.773   3.127 -0.3039 -0.5221  1.5590
49608SOL    HW259139   5.506  11.761   3.276 -0.9915  0.8138  1.5938
49609SOL     OW59140  11.453  11.811  11.640  0.5719  0.0532 -0.4303
49609SOL    HW159141  11.371  11.783  11.680  1.3357  0.7123  1.7922
49609SOL    HW259142  11.497  11.730  11.615 -0.8462 -0.2981 -1.9661
49610SOL     OW59143   8.208   1.343   5.611 -0.1594  0.2735  0.1572
49610SOL    HW159144   8.223   1.305   5.697 -1.5966 -0.2769  0.1820
49610SOL    HW259145   8.113   1.341   5.599 -0.1156  1.9074 -0.7392
49611SOL     OW59146   3.916   2.496   2.958  0.3127  0.5329  0.5150
49611SOL    HW159147   3.902   2.572   2.901 -2.6832 -0.4001 -0.1783
49611SOL    HW259148   3.947   2.427   2.899 -1.8389 -0.1465  0.0823
49612SOL     OW59149  11.871   6.394   9.292 -0.6125 -0.1150 -0.0448
49612SOL    HW159150  11.815   6.324   9.257 -2.2452  1.2419 -0.2605
49612SOL    HW259151  11.845   6.401   9.384 -1.9534  1.5230 -0.4973
49613SOL     OW59152   4.892  10.467  12.525  0.3251  0.6378  0.1682
49613SOL    HW159153   4.814  10.432  12.567 -1.1286  1.7653 -1.4239
49613SOL    HW259154   4.910  10.408  12.452 -0.9377  2.0015 -1.3141
49614SOL     OW59155   5.532   2.105   7.767  0.1061  0.3355  0.1770
49614SOL    HW159156   5.595   2.130   7.700  1.9390  1.8608  2.3310
49614SOL    HW259157   5.572   2.031   7.813  0.8334  1.8053  2.0611
49615SOL     OW59158  10.144   9.536   7.738  0.2802  0.0234  0.2757
49615SOL    HW159159  10.194   9.492   7.807  0.7601  1.0963  0.6425
49615SOL    HW259160  10.104   9.611   7.783 -1.4640 -0.6646 -0.0698
49616SOL     OW59161   1.366   6.576  11.302  0.1398  0.3423  0.5065
49616SOL    HW159162   1.338   6.585  11.393 -1.6268 -1.6561  0.2448
49616SOL    HW259163   1.353   6.663  11.264 -0.2561  0.8993  1.8673
49617SOL     OW59164   8.232   6.475  11.900  0.7506 -0.2435  0.1431
49617SOL    HW159165   8.180   6.456  11.978  0.6648  0.2919  0.2213
49617SOL    HW259166   8.189   6.551  11.860  1.0460 -0.2478 -0.1897
49618SOL     OW59167   6.892   9.335  10.583  0.0998 -0.0677  0.0845
49618SOL    HW159168   6.945   9.283  10.644  2.0762  0.8927 -0.7035
49618SOL    HW259169   6.928   9.423  10.590 -1.4088  0.6322 -0.5400
49619SOL     OW59170   0.596   2.387   6.599 -0.2881 -0.4770  0.0224
49619SOL    HW159171   0.653   2.452   6.557 -1.7104  0.7739 -0.0908
49619SOL    HW259172   0.638   2.370   6.684 -0.4688  1.5575  0.5913
49620SOL     OW59173  11.254   9.504  10.104 -0.2742 -0.1826  0.1915
49620SOL    HW159174  11.325   9.567  10.117  1.2646 -1.5575 -1.0941
49620SOL    HW259175  11.250   9.455  10.186  1.5811 -1.3009 -0.3230
49621SOL     OW59176  10.423   8.648   3.373 -0.1659 -0.2916 -0.0918
49621SOL    HW159177  10.441   8.573   3.316  2.0404 -0.1283  0.2923
49621SOL    HW259178  10.366   8.705   3.321 -0.9064 -1.6688 -0.8392
49622SOL     OW59179  10.809   1.199   9.743 -0.5467 -0.1683  0.6340
49622SOL    HW159180  10.871   1.251   9.794 -0.9337  1.0420 -0.0790
49622SOL    HW259181  10.830   1.220   9.652 -0.4333 -1.6240  0.3054
49623SOL     OW59182   9.573   0.055   2.963 -0.3422  0.3894  0.0348
49623SOL    HW159183   9.653   0.017   2.928 -1.6104 -1.2696 -1.2492
49623SOL    HW259184   9.589   0.149   2.965  1.4771  0.1186 -0.5527
49624SOL     OW59185   9.985   0.228   8.643 -0.2682 -0.1584 -0.5140
49624SOL    HW159186  10.041   0.151   8.657  2.3785  1.1545 -2.7146
49624SOL    HW259187  10.012   0.290   8.710  0.4356  0.1856 -1.0923
49625SOL     OW59188   8.315  10.345  12.091  0.2473 -0.0642  0.1092
49625SOL    HW159189   8.249  10.320  12.026  3.8893 -0.4994 -3.9268
49625SOL    HW259190   8.326  10.439  12.079  0.8230 -0.1170  0.1833
49626SOL     OW59191   6.443   0.392   5.797  0.0652 -0.6040 -0.5170
49626SOL    HW159192   6.535   0.399   5.824  0.0432 -1.0185 -0.3356
49626SOL    HW259193   6.426   0.299   5.790 -0.6677 -0.5877  0.6078
49627SOL     OW59194   8.813   1.934   0.069 -0.3702  0.0159 -0.0753
49627SOL    HW159195   8.887   1.987   0.039 -1.3585  1.4976  0.0026
49627SOL    HW259196   8.736   1.978   0.035 -1.2139 -2.3259 -1.4307
49628SOL     OW59197  12.096   4.055   2.161  0.1425  0.4340 -0.1843
49628SOL    HW159198  12.015   4.006   2.174 -0.8937  2.3617  1.1531
49628SOL    HW259199  12.093   4.083   2.069  0.1072 -0.8548 -0.5906
49629SOL     OW59200   6.623   6.781   5.158 -0.6642  0.8795  0.7995
49629SOL    HW159201   6.531   6.780   5.182 -1.1068 -0.3974 -0.7999
49629SOL    HW259202   6.669   6.800   5.240 -2.3310  1.6706  1.5960
49630SOL     OW59203   7.825   4.220   1.042 -0.3558  0.3479  0.0839
49630SOL    HW159204   7.920   4.209   1.033 -0.2930  2.1215 -2.3203
49630SOL    HW259205   7.815   4.305   1.086 -0.8662 -0.4351  1.5393
49631SOL     OW59206   4.664   7.507   0.093  0.0973  0.0583 -0.4594
49631SOL    HW159207   4.595   7.530   0.030 -0.3467  2.1304  0.6619
49631SOL    HW259208   4.621   7.516   0.178  1.5221  0.5294  0.2298
49632SOL     OW59209   1.641   1.300  11.343 -0.0781  0.2044 -0.0781
49632SOL    HW159210   1.682   1.387  11.334  2.0584 -0.6805  0.4026
49632SOL    HW259211   1.589   1.306  11.423 -1.0369  1.4156 -0.7636
49633SOL     OW59212   7.862   8.966  12.331  0.1346 -0.0286 -0.5509
49633SOL    HW159213   7.849   8.903  12.402  3.1705 -1.2139 -0.9301
49633SOL    HW259214   7.850   8.915  12.251 -0.2885  0.5957 -0.8951
49634SOL     OW59215   6.230  10.292   1.453  0.4333 -0.0869 -0.5098
49634SOL    HW159216   6.317  10.263   1.429 -0.0902 -1.7516 -0.5087
49634SOL    HW259217   6.178  10.212   1.458 -0.7044  0.6913  1.1427
49635SOL     OW59218   9.775   1.551   4.536  0.0318  0.0326  0.0119
49635SOL    HW159219   9.854   1.562   4.483 -0.8234  0.4363 -1.2247
49635SOL    HW259220   9.773   1.458   4.558  1.2088  0.1435  0.6672
49636SOL     OW59221  10.260  12.509  12.753 -0.2037 -0.2794 -0.0402
49636SOL    HW159222  10.175  12.550  12.768 -0.9875 -1.1516 -1.7701
49636SOL    HW259223  10.324  12.580  12.766 -1.2009  0.4547  0.9947
49637SOL     OW59224   6.447   1.273   8.840  0.2437  0.0350  0.2812
49637SOL    HW159225   6.502   1.351   8.842 -0.0354  0.2675 -0.5005
49637SOL    HW259226   6.369   1.300   8.791 -1.0895  0.0277  2.3006
49638SOL     OW59227   3.668   4.367  10.525  0.6383 -1.2151 -0.0673
49638SOL    HW159228   3.609   4.432  10.564  1.2604  0.0332 -1.1185
49638SOL    HW259229   3.634   4.356  10.436  1.0825 -1.6471 -0.1831
49639SOL     OW59230   6.120  10.115  10.946  0.3243 -0.4604 -0.5302
49639SOL    HW159231   6.186  10.087  10.882  0.4589 -0.0806 -0.5593
49639SOL    HW259232   6.037  10.104  10.900  0.4829  0.8586 -1.1775
49640SOL     OW59233  11.572   2.063   7.763 -0.5648  0.0166 -0.4863
49640SOL    HW159234  11.547   2.156   7.765 -1.4810 -0.2310  0.3280
49640SOL    HW259235  11.535   2.029   7.682 -0.4633  0.2967 -0.6517
49641SOL     OW59236  10.299   7.511  10.554 -0.0701  0.2140 -0.2218
49641SOL    HW159237  10.304   7.552  10.467  0.7345  0.4132 -0.0933
49641SOL    HW259238  10.389   7.517  10.588 -0.3337 -0.0509  0.5375
49642SOL     OW59239   7.606   0.661   5.091 -0.4522 -0.0117 -0.3091
49642SOL    HW159240   7.519   0.639   5.058 -0.4285 -0.3497 -0.1423
49642SOL    HW259241   7.590   0.695   5.179 -0.3201 -1.0960  0.1491
49643SOL     OW59242   3.564   4.645  11.772 -0.4841  0.1990  0.6137
49643SOL    HW159243   3.520   4.639  11.687  0.9795 -1.5799 -0.0802
49643SOL    HW259244   3.523   4.576  11.824 -0.2116  0.1598  0.7769
49644SOL     OW59245   1.230   0.843   4.096  0.1621 -0.5039 -0.5042
49644SOL    HW159246   1.245   0.874   4.007  2.3717  2.3274  0.6850
49644SOL    HW259247   1.317   0.840   4.135 -0.7414 -1.6778  1.5981
49645SOL     OW59248   5.684  11.206   4.825  0.3113 -0.1173 -0.5639
49645SOL    HW159249   5.605  11.174   4.781 -0.1031  0.6088 -0.3568
49645SOL    HW259250   5.747  11.218   4.754  0.1798 -0.5064 -0.7540
49646SOL     OW59251   4.685  12.325   3.076 -0.3888 -0.2504  0.0646
49646SOL    HW159252   4.667  12.242   3.031 -3.1031 -0.6820  1.7332
49646SOL    HW259253   4.725  12.380   3.009 -1.7227 -1.7735 -2.1245
49647SOL     OW59254   5.922   3.390  10.158 -0.3876 -0.2083 -0.0563
49647SOL    HW159255   5.849   3.432  10.112  0.7041  1.0067 -0.7247
49647SOL    HW259256   5.982   3.364  10.089 -0.0008 -0.8552  0.5170
49648SOL     OW59257   0.663   9.796   7.199 -0.1568  0.8628  0.6463
49648SOL    HW159258   0.713   9.875   7.181  0.9358  0.0952  0.1822
49648SOL    HW259259   0.729   9.727   7.210 -1.0840 -0.4306 -1.1795
49649SOL     OW59260  11.205   9.927   2.913  0.2381 -0.3239  0.2364
49649SOL    HW159261  11.264   9.937   2.839 -0.5438  1.0791 -0.2407
49649SOL    HW259262  11.117   9.941   2.877 -0.1990 -0.0987  1.3134
49650SOL     OW59263   7.574   0.956  12.314 -0.0036  0.5524 -0.5129
49650SOL    HW159264   7.555   0.887  12.377 -0.5983  1.3657  0.2107
49650SOL    HW259265   7.609   1.028  12.366 -1.1338  1.4880 -0.9800
49651SOL     OW59266   3.920   9.726   8.983 -0.0032 -0.4793 -0.2616
49651SOL    HW159267   3.851   9.661   8.970  0.5974 -0.7749 -2.4284
49651SOL    HW259268   3.999   9.683   8.951  0.2828  1.5136 -2.5610
49652SOL     OW59269   1.705   9.016   2.545  0.5685 -0.3885 -0.3970
49652SOL    HW159270   1.739   9.076   2.479 -0.1315 -0.7854 -1.1376
49652SOL    HW259271   1.685   9.072   2.620  0.9240  0.1430 -0.6916
49653SOL     OW59272  12.801   3.426   2.876  0.4583 -0.1105  0.1927
49653SOL    HW159273  12.858   3.503   2.877 -0.5795  0.7130 -1.1596
49653SOL    HW259274  12.719   3.457   2.837  0.5581 -2.2530 -1.9588
49654SOL     OW59275   5.715  10.476   3.719 -0.3173 -0.1835  0.0666
49654SOL    HW159276   5.736  10.464   3.812 -0.0351  1.0019  0.1714
49654SOL    HW259277   5.799  10.475   3.675 -0.5202 -2.0094 -0.3722
49655SOL     OW59278  12.028   0.036   6.413 -0.3272 -0.6353 -0.0935
49655SOL    HW159279  12.008   0.125   6.441 -0.0939 -0.3206 -0.9313
49655SOL    HW259280  11.961   0.015   6.347 -0.0235 -0.8659 -0.3316
49656SOL     OW59281  11.736   9.444   7.181 -0.3386  0.0688  0.0669
49656SOL    HW159282  11.777   9.362   7.153  0.3784  0.4284  0.0402
49656SOL    HW259283  11.809   9.497   7.214 -0.8539  0.5347  0.4705
49657SOL     OW59284   1.800   7.152   8.463  0.2163 -0.3756 -0.2872
49657SOL    HW159285   1.830   7.219   8.401  0.4200  0.9237  1.1529
49657SOL    HW259286   1.715   7.125   8.430 -0.0280  0.8668 -0.7339
49658SOL     OW59287  11.470   7.974   4.272  0.5299 -0.0150 -0.2837
49658SOL    HW159288  11.413   7.991   4.198 -1.0536 -0.9978  0.6478
49658SOL    HW259289  11.480   7.879   4.274  0.3666 -0.0325  0.8489
49659SOL     OW59290   8.529   2.109  12.187 -0.6155  0.1130 -0.1612
49659SOL    HW159291   8.568   2.196  12.175 -0.3932  0.1429  0.7392
49659SOL    HW259292   8.481   2.116  12.269 -0.7726 -0.5550 -0.1961
49660SOL     OW59293   7.972  10.670  12.298  0.0891  0.1239  0.3957
49660SOL    HW159294   8.001  10.629  12.380  0.7530 -0.4841 -0.1291
49660SOL    HW259295   7.983  10.601  12.232  1.3794  1.1978 -0.5430
49661SOL     OW59296   0.565   4.837   7.226  0.1507 -0.2386  0.5876
49661SOL    HW159297   0.620   4.878   7.160  1.1114 -0.2253  1.3706
49661SOL    HW259298   0.487   4.808   7.178 -0.0778  1.5221 -0.1784
49662SOL     OW59299  10.849   4.086   9.369 -0.2681 -0.5141  0.2237
49662SOL    HW159300  10.899   4.054   9.443  1.7927  1.2550 -0.2653
49662SOL    HW259301  10.871   4.027   9.297  0.5104 -0.2102  0.2081
49663SOL     OW59302   2.150   4.778  11.985 -0.5381 -0.2461  0.3684
49663SOL    HW159303   2.232   4.827  11.991 -0.6204 -0.0928  0.2430
49663SOL    HW259304   2.175   4.695  11.944  0.0522 -1.3431  2.7410
49664SOL     OW59305   6.892   7.917   3.628  0.4489 -0.2662  0.4190
49664SOL    HW159306   6.932   7.844   3.580 -1.9223 -0.8618 -0.8482
49664SOL    HW259307   6.909   7.898   3.720  0.9412 -1.7769  0.0405
49665SOL     OW59308  11.580   1.858   2.761 -0.2107  0.1092  0.0819
49665SOL    HW159309  11.553   1.792   2.697  1.7969 -0.6262 -0.0662
49665SOL    HW259310  11.531   1.835   2.841  0.8551 -1.9406  0.2021
49666SOL     OW59311   9.762   4.915   8.269 -0.4741 -0.5288  0.0979
49666SOL    HW159312   9.822   4.889   8.339  1.1058  1.2985 -0.4751
49666SOL    HW259313   9.730   4.833   8.233  0.8405 -1.5558  1.1629
49667SOL     OW59314  11.740   1.280   0.870 -0.1963 -0.5561  0.6003
49667SOL    HW159315  11.783   1.245   0.948 -2.1404  0.1963  2.0979
49667SOL    HW259316  11.798   1.256   0.798  2.0934 -0.6091  2.3323
49668SOL     OW59317   2.002   5.203   4.526  0.3078  0.0497  0.6895
49668SOL    HW159318   1.969   5.146   4.457  0.5716  0.0279  0.5809
49668SOL    HW259319   2.084   5.163   4.554 -1.1482 -1.5530  3.0385
49669SOL     OW59320  11.020   8.860   8.842 -0.8289 -0.2942 -0.0953
49669SOL    HW159321  11.038   8.813   8.761  0.1469 -0.3957  0.1752
49669SOL    HW259322  10.938   8.908   8.824 -1.2253 -1.1932 -0.7482
49670SOL     OW59323  10.022  12.685   0.867 -0.2131 -0.1410  0.1176
49670SOL    HW159324  10.112  12.660   0.885 -0.5222 -0.1958  1.7739
49670SOL    HW259325   9.979  12.604   0.839 -0.0131 -0.3534  0.4240
49671SOL     OW59326   8.518   1.418  11.808  0.6195  0.1663 -0.8341
49671SOL    HW159327   8.563   1.440  11.890 -1.5912 -0.9195  0.7709
49671SOL    HW259328   8.528   1.496  11.753  3.8109  0.2269 -0.3689
49672SOL     OW59329   1.162   3.733   2.133  0.1797  0.3954  0.1955
49672SOL    HW159330   1.194   3.779   2.211  0.3108  0.3129  0.1896
49672SOL    HW259331   1.215   3.768   2.062  0.5370 -0.0419  0.2456
49673SOL     OW59332   2.955   0.845   2.902  0.2769 -0.1776 -0.1947
49673SOL    HW159333   2.992   0.832   2.990  0.8147 -1.2869 -0.5590
49673SOL    HW259334   2.879   0.901   2.916  0.3396 -0.3604  0.9866
49674SOL     OW59335   9.556   9.667   2.773 -0.1274  0.0400  0.0183
49674SOL    HW159336   9.558   9.763   2.782  0.0821  0.0611 -0.2405
49674SOL    HW259337   9.480   9.640   2.825  1.4048  0.0839  2.4393
49675SOL     OW59338   1.740   5.738   5.618 -0.1186  0.1298  0.2458
49675SOL    HW159339   1.716   5.813   5.564 -1.0747 -1.7496 -2.1262
49675SOL    HW259340   1.680   5.669   5.591  0.4509 -1.4043  2.6237
49676SOL     OW59341   3.441  12.837   6.267  0.1261  0.2989 -0.3195
49676SOL    HW159342   3.427  12.775   6.339  0.1176 -0.5214 -1.0218
49676SOL    HW259343   3.499  12.792   6.207 -0.3897  0.7240 -1.1556
49677SOL     OW59344   1.686   7.308  11.381 -0.1445  0.0547  0.5404
49677SOL    HW159345   1.743   7.318  11.305  0.3635 -0.7413  0.8086
49677SOL    HW259346   1.712   7.225  11.420 -0.5672  0.3346  1.4469
49678SOL     OW59347   4.228   6.049   2.238 -0.3122  0.1137 -0.6320
49678SOL    HW159348   4.189   6.053   2.326 -0.5645  0.8847 -0.7700
49678SOL    HW259349   4.301   5.989   2.247 -1.7504 -1.7095 -0.4511
49679SOL     OW59350   5.403   2.904   2.839 -0.2348  0.3825 -0.1144
49679SOL    HW159351   5.335   2.961   2.802 -1.8066 -0.1621  1.8005
49679SOL    HW259352   5.482   2.959   2.838 -0.9241  1.4220 -1.3704
49680SOL     OW59353   3.034   7.951   9.333  0.2709 -0.3042  0.5069
49680SOL    HW159354   3.098   7.896   9.379  1.5170  0.2508 -0.5059
49680SOL    HW259355   3.069   7.960   9.245 -1.5476 -0.4747 -0.2691
49681SOL     OW59356   3.703   7.371   4.364 -0.1382  0.1445  0.0259
49681SOL    HW159357   3.624   7.336   4.323  0.0555  0.4364 -0.5983
49681SOL    HW259358   3.733   7.440   4.305  0.7399 -0.1447  0.1117
49682SOL     OW59359  12.786   9.130   5.493  0.0740  0.0305 -0.3287
49682SOL    HW159360  12.823   9.050   5.532  0.2365 -0.2223 -0.9925
49682SOL    HW259361  12.843   9.200   5.524  0.4154 -0.2116 -0.4088
49683SOL     OW59362   5.161  11.595   4.084  0.4185  0.3979  0.1796
49683SOL    HW159363   5.213  11.515   4.076 -0.0534 -0.0195  1.1197
49683SOL    HW259364   5.112  11.601   4.002  0.4296 -0.2980  0.1186
49684SOL     OW59365  12.718   3.172   6.052  0.1143 -0.2827  0.5008
49684SOL    HW159366  12.799   3.220   6.067 -0.4215  1.3384 -1.2601
49684SOL    HW259367  12.657   3.207   6.117  0.5496 -0.7953  1.1920
49685SOL     OW59368   4.009   9.023   8.005 -0.5351 -0.0239 -0.0625
49685SOL    HW159369   4.054   9.009   8.087 -1.0838 -1.4371  0.0304
49685SOL    HW259370   4.030   8.946   7.952 -0.6614  0.5804 -1.0235
49686SOL     OW59371   2.423   8.551   9.228 -0.4574 -0.0488 -0.0183
49686SOL    HW159372   2.365   8.585   9.159  0.0551 -0.2332 -0.5462
49686SOL    HW259373   2.387   8.588   9.309 -0.1351  1.4700 -0.5368
49687SOL     OW59374   7.999   9.688   0.235 -0.5975  0.6234 -0.2449
49687SOL    HW159375   8.042   9.609   0.267 -1.6532  0.2586  0.3289
49687SOL    HW259376   8.025   9.694   0.143  0.5583  0.3525  0.0538
49688SOL     OW59377  11.177   0.970   4.283 -0.4488 -0.6750 -0.1531
49688SOL    HW159378  11.261   0.930   4.261  0.4527  0.2604  1.3524
49688SOL    HW259379  11.180   1.055   4.239 -0.5590 -0.6125 -0.0399
49689SOL     OW59380   9.167   5.507   4.094  0.0491  0.3048  0.1057
49689SOL    HW159381   9.148   5.414   4.110  0.4365  0.4920  1.7610
49689SOL    HW259382   9.136   5.522   4.004  0.7397 -1.6234 -0.5159
49690SOL     OW59383   1.667   9.202  10.365  0.0060 -0.1765 -0.0141
49690SOL    HW159384   1.625   9.283  10.395 -1.0970 -0.3947 -0.9081
49690SOL    HW259385   1.749   9.232  10.325 -0.4325  0.5246 -0.4233
49691SOL     OW59386  10.138   8.041   4.673  0.0445  0.0153  0.0220
49691SOL    HW159387  10.133   8.053   4.768  1.7333 -2.7872  0.6154
49691SOL    HW259388  10.053   8.006   4.648 -0.5155  1.0637  0.4407
49692SOL     OW59389   0.555  10.823   2.494  0.2473  0.2089  0.2046
49692SOL    HW159390   0.604  10.840   2.575  0.8430 -2.9099  0.5933
49692SOL    HW259391   0.464  10.817   2.522  0.6629 -3.2204  1.2033
49693SOL     OW59392   6.713   9.824   6.491  0.2266 -0.1317  0.1608
49693SOL    HW159393   6.746   9.886   6.557  2.2981 -0.5960 -0.3633
49693SOL    HW259394   6.777   9.753   6.491 -1.2356 -1.4950 -0.4126
49694SOL     OW59395  10.644   8.860   1.538 -0.2986  0.2083  0.5116
49694SOL    HW159396  10.695   8.933   1.503  0.8744 -0.0759  1.5608
49694SOL    HW259397  10.566   8.857   1.483  1.0870  0.2492 -1.5698
49695SOL     OW59398  10.354   7.341   1.417 -0.0026 -0.1707 -0.0682
49695SOL    HW159399  10.316   7.264   1.374 -0.3071 -1.6464  2.6181
49695SOL    HW259400  10.282   7.377   1.469  0.8132  0.3660  0.7252
49696SOL     OW59401  10.591  11.203   1.819 -0.2090  0.2524 -0.2232
49696SOL    HW159402  10.521  11.244   1.768 -0.1734  1.1201  0.4015
49696SOL    HW259403  10.590  11.250   1.902  0.3474 -0.5196  0.2282
49697SOL     OW59404  11.366  12.075   9.510 -0.3416  0.0671  0.2058
49697SOL    HW159405  11.347  12.166   9.534  1.0243  0.6031 -0.6383
49697SOL    HW259406  11.432  12.048   9.573  0.0159  0.0054 -0.1964
49698SOL     OW59407  11.735   6.163  10.094  0.2086 -0.4558  0.1658
49698SOL    HW159408  11.792   6.132  10.165  1.3219  1.1652  0.0307
49698SOL    HW259409  11.736   6.092  10.030 -1.4175 -2.2789  2.0320
49699SOL     OW59410  11.359   6.083   4.139 -0.1833 -0.1116 -0.3018
49699SOL    HW159411  11.288   6.139   4.109 -0.0452  0.0737 -0.2804
49699SOL    HW259412  11.428   6.143   4.165 -0.3957 -0.2531  0.6334
49700SOL     OW59413   0.535   1.412   5.418 -0.3276  0.5712 -0.0835
49700SOL    HW159414   0.526   1.490   5.472  2.1582  0.1289  1.1210
49700SOL    HW259415   0.556   1.446   5.331  1.3677  1.3053  0.5691
49701SOL     OW59416   0.396   4.959   6.715 -0.1262  0.7189  0.2401
49701SOL    HW159417   0.464   5.010   6.758 -0.4950  0.5940  0.9885
49701SOL    HW259418   0.413   4.970   6.622  1.8670 -0.5944  0.3872
49702SOL     OW59419   0.887   2.238   8.039 -0.3093  0.4023  0.0462
49702SOL    HW159420   0.873   2.266   8.129  0.5296  1.1913 -0.0479
49702SOL    HW259421   0.915   2.147   8.045  0.1645  0.5844  0.6164
49703SOL     OW59422   9.964  12.437   5.376  0.0487  0.0891  0.3741
49703SOL    HW159423  10.029  12.367   5.376 -0.3293 -0.2816  1.6666
49703SOL    HW259424   9.999  12.502   5.438 -0.8745 -0.1930  1.2136
49704SOL     OW59425   3.594   6.588   4.358  0.1505  0.4770 -0.4105
49704SOL    HW159426   3.655   6.582   4.284 -1.1778  0.0956 -1.5241
49704SOL    HW259427   3.636   6.536   4.427  1.2450  0.5092 -1.0166
49705SOL     OW59428   9.406   1.586   7.389  0.0642 -0.3210  0.0285
49705SOL    HW159429   9.311   1.577   7.390  0.0210  0.0129 -0.6388
49705SOL    HW259430   9.439   1.500   7.416 -0.4244 -0.3614  0.5228
49706SOL     OW59431   6.536  10.219  12.943  0.1547  0.8048 -0.6374
49706SOL    HW159432   6.567  10.279  12.875  1.8294  0.5822 -0.1177
49706SOL    HW259433   6.581  10.248  13.023 -2.5632  1.7250  0.6770
49707SOL     OW59434   8.598   8.164   8.790  0.0070 -0.0647  0.2909
49707SOL    HW159435   8.575   8.189   8.700  0.3333 -0.0366  0.2145
49707SOL    HW259436   8.547   8.085   8.806  1.8296 -1.5520 -0.8323
49708SOL     OW59437  12.490   1.136   8.442 -0.0150  0.0361  0.1309
49708SOL    HW159438  12.467   1.045   8.464  0.1526  0.1933  0.9866
49708SOL    HW259439  12.531   1.170   8.521 -1.3082  1.2904  0.2994
49709SOL     OW59440   2.055  12.445   7.092  0.5358  0.6585 -0.1345
49709SOL    HW159441   1.988  12.487   7.145 -0.8918 -0.5471 -0.9047
49709SOL    HW259442   2.090  12.376   7.147 -0.2579  0.0351 -0.3923
49710SOL     OW59443   4.535   1.082  12.319  0.1125 -0.8047 -0.5375
49710SOL    HW159444   4.447   1.097  12.287  0.1052  0.3403 -0.0372
49710SOL    HW259445   4.592   1.097  12.243 -0.0834 -0.8312 -0.6883
49711SOL     OW59446   6.356   2.585  10.515  0.0934  0.9119  0.2492
49711SOL    HW159447   6.364   2.490  10.510 -0.5455  0.8864 -0.6214
49711SOL    HW259448   6.436   2.619  10.477  0.2225  0.7252  0.3548
49712SOL     OW59449   3.432   0.355   3.233 -0.1104 -0.0677  0.1636
49712SOL    HW159450   3.440   0.421   3.302 -3.0939 -1.1599  1.7634
49712SOL    HW259451   3.508   0.298   3.244 -0.3118  0.0187  2.3522
49713SOL     OW59452   4.569   6.938   6.506 -0.1189  0.1936  0.0565
49713SOL    HW159453   4.595   6.919   6.416  0.1975 -0.6375  0.3141
49713SOL    HW259454   4.501   7.005   6.498 -1.8812 -1.6234 -0.9768
49714SOL     OW59455   4.654  12.448  10.816 -0.2822 -0.2517 -0.7159
49714SOL    HW159456   4.722  12.429  10.752 -1.2318 -0.7858 -1.5944
49714SOL    HW259457   4.675  12.393  10.892  0.8149  0.3417 -0.5737
49715SOL     OW59458   8.500   8.791   7.277  0.0064  0.1199  0.7036
49715SOL    HW159459   8.555   8.715   7.295  0.0316 -0.0285  0.0105
49715SOL    HW259460   8.414   8.767   7.313  0.1786  0.0331  1.0670
49716SOL     OW59461   0.752   1.178   4.740  0.1822 -0.1405  0.3437
49716SOL    HW159462   0.717   1.124   4.669  1.4131 -2.5016  1.4315
49716SOL    HW259463   0.697   1.256   4.739 -1.6332 -1.3283 -1.4117
49717SOL     OW59464  11.125   0.733  10.264  0.5271  0.0120 -0.1204
49717SOL    HW159465  11.172   0.737  10.181 -0.4364  1.4474 -0.6321
49717SOL    HW259466  11.033   0.744  10.241  0.3501  1.8687  1.2187
49718SOL     OW59467   8.287  12.026   4.536 -0.0354 -0.0706  0.9471
49718SOL    HW159468   8.265  11.971   4.460  2.5789 -1.2738  0.9302
49718SOL    HW259469   8.314  11.964   4.603  0.6208  1.0927  1.7895
49719SOL     OW59470   1.060   4.247   9.824  0.0880  0.0168 -0.0865
49719SOL    HW159471   1.053   4.152   9.832  1.3401 -0.0026  1.0845
49719SOL    HW259472   0.970   4.279   9.831 -0.3669 -1.0790 -0.6999
49720SOL     OW59473   7.813   1.413   8.865  0.3123  0.1791 -0.0064
49720SOL    HW159474   7.875   1.473   8.823  1.5808 -0.4999  0.8063
49720SOL    HW259475   7.869   1.347   8.907 -0.7274  1.3551  3.6361
49721SOL     OW59476  10.868   1.649  11.763 -0.4960  0.3959 -0.0257
49721SOL    HW159477  10.933   1.592  11.805  0.5240  1.1551 -0.5083
49721SOL    HW259478  10.870   1.730  11.815 -0.4620  0.7102 -0.5044
49722SOL     OW59479   5.903  12.402   7.531  0.2563  0.0875 -0.7574
49722SOL    HW159480   5.989  12.380   7.568  0.4761  2.0520  0.0290
49722SOL    HW259481   5.896  12.497   7.541 -1.1103  0.2693 -2.8166
49723SOL     OW59482  10.778   5.655   2.831  0.0134  0.3619 -0.8182
49723SOL    HW159483  10.757   5.600   2.907 -1.4126  1.5740 -0.2919
49723SOL    HW259484  10.740   5.609   2.756 -0.1760  0.0677 -0.5441
49724SOL     OW59485   4.192  12.696   0.738  0.2809 -1.0048  0.6997
49724SOL    HW159486   4.131  12.648   0.683 -0.3321  1.8350 -1.3764
49724SOL    HW259487   4.202  12.643   0.817 -1.6945 -3.5005 -0.5979
49725SOL     OW59488   0.149   4.066   9.196 -0.0379 -0.3322 -0.0002
49725SOL    HW159489   0.092   4.132   9.235  1.5411  1.6835 -0.8697
49725SOL    HW259490   0.115   4.054   9.107  0.6432  0.6676 -0.4257
49726SOL     OW59491   3.358   8.320   3.251  0.1919 -0.1807  0.1735
49726SOL    HW159492   3.399   8.234   3.244 -0.4312 -0.3934 -1.2783
49726SOL    HW259493   3.333   8.342   3.161  0.2020  1.4574  0.5327
49727SOL     OW59494   4.952  10.087   7.904 -0.1503 -0.4689  0.1186
49727SOL    HW159495   5.024  10.064   7.963 -0.3428  1.1550  1.0201
49727SOL    HW259496   4.888  10.131   7.960 -2.4938 -2.9621 -0.3777
49728SOL     OW59497   5.522   4.516   6.297 -0.0340 -0.4684  0.2773
49728SOL    HW159498   5.526   4.610   6.279 -0.4684 -0.4629  0.1839
49728SOL    HW259499   5.429   4.499   6.312  0.2640 -0.4459  2.6280
49729SOL     OW59500   5.425   6.524   2.173  0.0030  0.5293 -0.4414
49729SOL    HW159501   5.416   6.559   2.262 -0.1056 -1.0368  0.1886
49729SOL    HW259502   5.433   6.430   2.185  0.2179  0.3140 -2.0930
49730SOL     OW59503  10.203  10.953   5.138  0.2024 -0.0776  0.0677
49730SOL    HW159504  10.175  10.902   5.062  0.4210 -0.7665  0.4342
49730SOL    HW259505  10.271  11.011   5.105  1.2878 -1.3493 -0.0148
49731SOL     OW59506   3.176   5.224   7.071 -0.0530 -0.1809 -0.4138
49731SOL    HW159507   3.204   5.314   7.054 -1.3992  0.0720 -1.3806
49731SOL    HW259508   3.099   5.211   7.016 -0.6241 -1.5266  0.6336
49732SOL     OW59509   5.819   4.996   1.805  0.7072  0.6524 -0.0705
49732SOL    HW159510   5.904   4.963   1.835  0.3075 -0.5018 -0.1724
49732SOL    HW259511   5.811   4.963   1.716 -0.1650  0.1214  0.1918
49733SOL     OW59512   6.976   0.481   6.494 -0.5040  0.3303 -0.3752
49733SOL    HW159513   6.992   0.394   6.531 -0.1227  0.5692  0.0386
49733SOL    HW259514   6.911   0.467   6.425  0.7809 -0.5420 -1.4567
49734SOL     OW59515  10.320  10.181   9.788 -0.7679  0.1775 -0.1113
49734SOL    HW159516  10.266  10.253   9.755 -0.9536  0.4350  0.7278
49734SOL    HW259517  10.399  10.183   9.733 -0.6047  1.2658  0.1409
49735SOL     OW59518  12.119   4.082   7.914  0.1102 -0.0280  0.1380
49735SOL    HW159519  12.082   4.044   7.834  0.3129  0.6368 -0.2738
49735SOL    HW259520  12.202   4.036   7.926 -0.6411 -1.2835  0.8771
49736SOL     OW59521   0.496   5.015   8.723 -0.1416  0.1679 -0.5351
49736SOL    HW159522   0.453   5.098   8.745 -0.1174 -0.0866  0.5137
49736SOL    HW259523   0.587   5.040   8.705  0.3898  0.1630  1.7852
49737SOL     OW59524   2.639   8.409  11.587  0.2479  0.6534 -0.0305
49737SOL    HW159525   2.587   8.484  11.560 -1.6833 -0.6580 -0.1681
49737SOL    HW259526   2.701   8.395  11.515 -0.7528  0.8855 -0.9628
49738SOL     OW59527   7.965   6.731   2.749 -0.1508  0.6681 -0.0304
49738SOL    HW159528   8.045   6.745   2.800  0.1511  0.3385 -0.4085
49738SOL    HW259529   7.951   6.814   2.705  1.0076  0.1828 -1.3845
49739SOL     OW59530   4.879  12.189   5.259 -0.8782 -0.2044  0.4819
49739SOL    HW159531   4.925  12.171   5.178  0.7077 -0.5871  1.4340
49739SOL    HW259532   4.808  12.248   5.234 -1.0420 -1.1007 -1.3249
49740SOL     OW59533  11.607   9.497   9.675 -0.4304 -0.2568 -0.0876
49740SOL    HW159534  11.695   9.477   9.706 -0.4488  1.6082  1.3675
49740SOL    HW259535  11.550   9.446   9.732 -0.3663  1.4390  1.6267
49741SOL     OW59536   1.915  12.513   5.418 -0.0691  0.0154 -0.5525
49741SOL    HW159537   1.923  12.492   5.325  0.1523  0.6240 -0.6804
49741SOL    HW259538   1.825  12.546   5.427  0.0785  0.4654 -0.6666
49742SOL     OW59539   2.269   8.516   4.599  0.1263  0.2242  0.4130
49742SOL    HW159540   2.231   8.441   4.645 -0.7912 -0.5759 -1.5436
49742SOL    HW259541   2.278   8.486   4.508  2.8959  1.3427  0.2163
49743SOL     OW59542   9.690   6.355   7.386 -0.2774 -0.2056 -0.1163
49743SOL    HW159543   9.673   6.264   7.412 -0.3802 -0.0827  0.2611
49743SOL    HW259544   9.635   6.368   7.309 -1.2563 -0.0756  0.5877
49744SOL     OW59545  11.028  12.725   4.330 -0.4928 -0.1051  0.2944
49744SOL    HW159546  10.986  12.798   4.286 -1.7938 -1.1897 -0.3487
49744SOL    HW259547  11.047  12.662   4.260 -0.2795 -0.7856  0.9424
49745SOL     OW59548   6.250   2.384   1.354  0.2927 -0.6525  0.2633
49745SOL    HW159549   6.240   2.292   1.327 -1.8970 -0.1602 -0.8020
49745SOL    HW259550   6.162   2.412   1.378  0.9268  1.1702  0.6156
49746SOL     OW59551   1.236   2.862  11.019  0.2205 -0.9233  0.7016
49746SOL    HW159552   1.238   2.850  10.924  2.8083  0.5419  0.4705
49746SOL    HW259553   1.284   2.787  11.053  0.4464 -0.7700  0.7254
49747SOL     OW59554  12.252   2.926   2.310 -0.2934  0.0712  0.5289
49747SOL    HW159555  12.318   2.930   2.379  0.8791  0.9050 -0.5926
49747SOL    HW259556  12.247   2.833   2.287 -0.5592 -0.1898  1.5768
49748SOL     OW59557   7.507   6.947   4.189  0.5586 -0.4896  0.4930
49748SOL    HW159558   7.471   7.036   4.193 -1.2651 -1.1838  0.2456
49748SOL    HW259559   7.552   6.943   4.104  0.6527  0.1743  0.5024
49749SOL     OW59560  11.486   9.116  10.160 -0.4565  0.3172 -0.1810
49749SOL    HW159561  11.528   9.199  10.139  0.3324  0.1777  0.7906
49749SOL    HW259562  11.393   9.133  10.149 -0.2710  1.1599 -0.5451
49750SOL     OW59563  12.197   4.904   4.230 -0.1337 -0.0070  0.4198
49750SOL    HW159564  12.136   4.978   4.225  1.4384  1.5588  2.5506
49750SOL    HW259565  12.149   4.838   4.279 -1.7908 -0.7833 -2.0296
49751SOL     OW59566   8.936   4.241   6.401  0.2248 -0.3536  0.2133
49751SOL    HW159567   9.017   4.239   6.453  0.5985 -0.9804 -0.3759
49751SOL    HW259568   8.868   4.210   6.460  0.6443 -1.0513  0.3431
49752SOL     OW59569  12.195   6.839   3.650 -0.0689 -0.6875 -0.1703
49752SOL    HW159570  12.175   6.746   3.654  0.6827 -0.8349  0.4637
49752SOL    HW259571  12.145   6.872   3.575  1.1595 -1.9751 -1.6207
49753SOL     OW59572   6.135   5.716   5.701 -0.2050 -0.4262 -0.1804
49753SOL    HW159573   6.178   5.681   5.780  0.4637 -1.0372 -0.8045
49753SOL    HW259574   6.139   5.811   5.712  0.4107 -0.4934  0.2549
49754SOL     OW59575   0.211   5.380   4.900 -0.0005 -0.9325 -0.2463
49754SOL    HW159576   0.279   5.352   4.961  1.0697 -0.2872 -1.0997
49754SOL    HW259577   0.141   5.414   4.956  0.5058 -1.3393  0.6449
49755SOL     OW59578   0.776   8.079   5.155 -0.5682 -0.0546  0.5337
49755SOL    HW159579   0.867   8.109   5.160  0.4652 -2.9138  0.8942
49755SOL    HW259580   0.783   7.988   5.128 -3.4265 -0.0924 -0.4106
49756SOL     OW59581   2.876   1.750   3.349  0.6214  0.4360  0.3627
49756SOL    HW159582   2.959   1.723   3.310  0.9523  0.1993  1.2195
49756SOL    HW259583   2.900   1.810   3.419  0.0820  0.2742  0.6944
49757SOL     OW59584   6.354   9.686  12.697 -0.3619 -0.2438  0.0136
49757SOL    HW159585   6.353   9.612  12.637  0.2694  1.5848 -2.4327
49757SOL    HW259586   6.444   9.691  12.728 -0.6511 -1.0913  1.0486
49758SOL     OW59587   4.487   2.617  12.757 -0.5251 -0.1788 -0.3384
49758SOL    HW159588   4.527   2.548  12.703 -1.2499  0.6336 -1.9888
49758SOL    HW259589   4.548   2.690  12.751 -0.3983 -0.2197  0.3366
49759SOL     OW59590   7.489   9.074   9.165  0.2618  0.2794  0.0145
49759SOL    HW159591   7.422   9.141   9.155  0.1805  0.4091  1.2515
49759SOL    HW259592   7.556   9.097   9.101  1.4479  3.0680  2.0553
49760SOL     OW59593  11.423   6.674   6.610 -0.6059  0.0409 -0.0625
49760SOL    HW159594  11.494   6.725   6.649  0.2228 -0.8239 -0.3980
49760SOL    HW259595  11.442   6.673   6.517  0.4192 -2.3129  0.0932
49761SOL     OW59596   4.631   3.938   3.096  0.2513 -0.1333 -0.0911
49761SOL    HW159597   4.656   3.930   3.188  1.0428 -0.2966 -0.3059
49761SOL    HW259598   4.700   3.993   3.058  0.6533 -1.1151 -0.8438
49762SOL     OW59599  12.918   9.627   0.063 -0.3623  0.3836 -0.5010
49762SOL    HW159600  12.828   9.624   0.095  0.1508 -2.0060  1.0037
49762SOL    HW259601  12.955   9.707   0.100 -1.6262  1.0233 -0.5634
49763SOL     OW59602   4.708  11.323   3.258 -0.6821  0.0509 -0.0446
49763SOL    HW159603   4.688  11.404   3.210  0.1858  0.3672  0.1153
49763SOL    HW259604   4.624  11.278   3.264 -1.2016  0.9844 -0.0556
49764SOL     OW59605   3.987  12.176   2.274 -0.2136 -0.4421  0.3973
49764SOL    HW159606   3.914  12.151   2.217  0.0706  0.0909 -0.2183
49764SOL    HW259607   3.998  12.101   2.332  0.1452 -1.4631 -0.9211
49765SOL     OW59608   7.253   7.851   0.777 -0.1680  0.1991  0.1856
49765SOL    HW159609   7.347   7.861   0.767 -0.0372 -1.2814 -0.3015
49765SOL    HW259610   7.217   7.863   0.689 -0.3705  0.1569  0.2611
49766SOL     OW59611   5.525  10.454   5.575 -0.4172  0.0756  0.2040
49766SOL    HW159612   5.433  10.428   5.578 -1.1750  2.5619  0.8485
49766SOL    HW259613   5.530  10.516   5.502  1.1485 -1.1845 -0.8440
49767SOL     OW59614   0.131   9.514   2.842 -0.4485 -0.2378 -0.3513
49767SOL    HW159615   0.105   9.606   2.841 -2.5664 -0.7250 -2.7619
49767SOL    HW259616   0.193   9.506   2.770 -2.2038 -1.0377 -1.8870
49768SOL     OW59617   8.739   9.219   4.726 -0.1526  0.0178 -0.5262
49768SOL    HW159618   8.808   9.281   4.700  1.0397 -0.6620  0.8687
49768SOL    HW259619   8.686   9.207   4.647  0.3032  1.8743 -1.1622
49769SOL     OW59620   7.793  10.247   6.792  0.1755  0.1487  0.4412
49769SOL    HW159621   7.706  10.210   6.778  0.1110 -1.1469  3.4391
49769SOL    HW259622   7.789  10.286   6.880  2.6112  0.0027  0.6974
49770SOL     OW59623   4.994   2.172  11.719  0.1222 -0.2867  0.1492
49770SOL    HW159624   5.061   2.107  11.741  0.4681 -1.0500 -2.7003
49770SOL    HW259625   4.952   2.137  11.640 -1.5875  1.6341  0.1223
49771SOL     OW59626  10.048   3.371   7.941  0.1544 -0.3667  0.1237
49771SOL    HW159627  10.129   3.342   7.983  1.2033 -1.9510 -2.7315
49771SOL    HW259628   9.997   3.291   7.929 -1.0660  0.3628  0.2706
49772SOL     OW59629   3.627   8.080  11.936 -0.1170 -0.1136 -0.4006
49772SOL    HW159630   3.568   8.005  11.939 -1.7767  1.1640  1.6554
49772SOL    HW259631   3.667   8.083  12.023  0.9472  0.6464 -0.8815
49773SOL     OW59632   6.062   5.798   7.537 -0.1468  0.1523 -0.4246
49773SOL    HW159633   6.047   5.870   7.476 -0.9741  1.1181  0.8572
49773SOL    HW259634   5.982   5.746   7.535  0.1545 -0.3037 -0.7850
49774SOL     OW59635  10.899   1.865   8.839 -0.2717 -0.3315  0.1488
49774SOL    HW159636  10.950   1.784   8.836  1.2376  0.6245 -1.3935
49774SOL    HW259637  10.834   1.855   8.769 -1.8749 -1.2734  1.6910
49775SOL     OW59638  11.695   2.012  11.934  0.4660  0.0507  0.1751
49775SOL    HW159639  11.742   2.070  11.874  1.4248  0.4518  1.2666
49775SOL    HW259640  11.720   2.042  12.022 -0.3482 -0.9493  0.7848
49776SOL     OW59641   7.150   9.683  12.698 -0.1038  0.0146  0.0579
49776SOL    HW159642   7.114   9.681  12.609  1.1842  3.4429 -0.7097
49776SOL    HW259643   7.242   9.660  12.687  0.2376  1.1891  0.3437
49777SOL     OW59644   1.719  11.536  12.477  0.8271  0.3557  0.8268
49777SOL    HW159645   1.732  11.629  12.498  0.8756  0.5291  0.0673
49777SOL    HW259646   1.767  11.489  12.545 -1.1718  0.8146  2.6642
49778SOL     OW59647  11.884  12.733  10.381  0.0669  0.1493 -0.5452
49778SOL    HW159648  11.845  12.759  10.298 -1.0328 -2.3718 -0.8897
49778SOL    HW259649  11.848  12.647  10.399  2.7007 -0.7569  0.9900
49779SOL     OW59650   0.027   8.995   3.740  0.0512 -0.1929  0.6905
49779SOL    HW159651  -0.019   9.056   3.683  1.7863  1.6156  1.1023
49779SOL    HW259652   0.018   9.032   3.828 -0.0302 -1.3043  1.1718
49780SOL     OW59653   7.274   5.495   4.626 -0.2505  0.4685 -0.4550
49780SOL    HW159654   7.282   5.566   4.562 -0.7843  0.0560 -0.9913
49780SOL    HW259655   7.181   5.496   4.652 -0.4654 -0.5759 -1.1223
49781SOL     OW59656   5.923  10.981   5.584 -0.3321  0.1626 -0.0741
49781SOL    HW159657   5.874  10.904   5.615  0.2695  0.4124  1.5982
49781SOL    HW259658   6.012  10.949   5.574 -0.2448  0.4525 -0.2148
49782SOL     OW59659   0.361   7.846  11.087 -0.8506  0.0980 -0.0870
49782SOL    HW159660   0.404   7.890  11.013 -2.7980  0.3282 -1.1397
49782SOL    HW259661   0.422   7.777  11.113 -0.6024 -0.7508 -2.6960
49783SOL     OW59662   5.943   2.105   4.397  0.0131 -0.6780  0.0988
49783SOL    HW159663   5.967   2.032   4.340  0.4114  1.0852 -2.1250
49783SOL    HW259664   6.024   2.156   4.407 -0.7578  0.7042 -0.3572
49784SOL     OW59665  11.520  12.147   0.380 -0.3111  0.0599  0.0728
49784SOL    HW159666  11.518  12.056   0.409 -0.5849 -0.2401 -0.8584
49784SOL    HW259667  11.520  12.198   0.461  2.2512 -0.7787  0.7029
49785SOL     OW59668   5.339  12.122   2.581  0.1356 -0.0175 -0.9172
49785SOL    HW159669   5.330  12.205   2.627  0.4041  1.0881 -2.7543
49785SOL    HW259670   5.393  12.068   2.638 -0.3438  0.9221  0.4800
49786SOL     OW59671   3.657   5.985  11.214 -1.0555  0.2575 -0.5225
49786SOL    HW159672   3.614   5.999  11.299 -1.1956 -0.9791 -0.3738
49786SOL    HW259673   3.620   6.052  11.157 -2.1682  0.0893 -0.0267
49787SOL     OW59674   7.013   3.524  11.271  0.3846  0.7244  0.3914
49787SOL    HW159675   7.018   3.556  11.361  0.6638 -2.9460  1.8552
49787SOL    HW259676   6.924   3.543  11.243  0.4938  2.5196  1.1278
49788SOL     OW59677   8.319   9.964   7.884  0.2888 -0.0397  0.5476
49788SOL    HW159678   8.249   9.899   7.873  0.1317  0.4343 -1.8946
49788SOL    HW259679   8.379   9.925   7.947 -1.1123 -1.3693  1.1337
49789SOL     OW59680   3.660   2.382  11.572  0.5542 -0.7868  0.4438
49789SOL    HW159681   3.588   2.352  11.517  0.1389 -0.4277  0.7868
49789SOL    HW259682   3.737   2.336  11.538  0.0106 -1.8893  0.6706
49790SOL     OW59683  10.207   6.246   3.622  0.3940  1.2921 -0.1979
49790SOL    HW159684  10.262   6.256   3.544 -0.4094 -0.0642 -0.9578
49790SOL    HW259685  10.186   6.153   3.626  0.1994  1.3631  1.5131
49791SOL     OW59686   3.319  10.760   4.356  0.1235 -0.1308  0.0845
49791SOL    HW159687   3.353  10.672   4.340 -2.3851 -1.5914  2.1064
49791SOL    HW259688   3.229  10.746   4.383 -0.4831  3.1366  0.1038
49792SOL     OW59689   6.228   6.475   2.904  0.1001 -1.0087 -0.2523
49792SOL    HW159690   6.218   6.540   2.835 -0.5432 -0.5071  0.3035
49792SOL    HW259691   6.178   6.399   2.872 -1.5176 -0.2218  0.3473
49793SOL     OW59692  10.824   6.729   8.355 -0.0656  0.4165 -0.0233
49793SOL    HW159693  10.905   6.691   8.389 -0.5540  0.7760  1.6187
49793SOL    HW259694  10.818   6.696   8.265  2.9858  2.0390 -0.9822
49794SOL     OW59695   9.406   3.743   2.351 -0.2246 -0.0372  0.6921
49794SOL    HW159696   9.494   3.744   2.314 -0.0122  0.5187  1.1945
49794SOL    HW259697   9.408   3.672   2.415  0.6861  1.5735  2.5860
49795SOL     OW59698   7.616   9.277   6.704 -0.2916  0.0965  0.2047
49795SOL    HW159699   7.621   9.202   6.645  0.2783  0.3737 -0.1154
49795SOL    HW259700   7.557   9.338   6.660 -1.8296 -0.6908  1.0967
49796SOL     OW59701   2.813  11.491  11.176 -0.2635  0.3309  0.2216
49796SOL    HW159702   2.845  11.533  11.096  0.5490 -0.3558  0.1785
49796SOL    HW259703   2.748  11.428  11.146 -0.3249  0.4249  0.1544
49797SOL     OW59704   4.275   0.469  12.178 -0.1372  0.3813  0.1108
49797SOL    HW159705   4.340   0.516  12.125 -0.3672 -0.0685 -0.5803
49797SOL    HW259706   4.323   0.445  12.257  0.7636 -0.5556 -0.6826
49798SOL     OW59707   0.447  10.128   3.210  0.3599 -0.1156  0.0943
49798SOL    HW159708   0.541  10.144   3.211  0.8117 -2.2247 -1.3456
49798SOL    HW259709   0.414  10.173   3.288  2.3533  1.5963  0.0278
49799SOL     OW59710  11.006   0.872   1.663 -0.1866 -0.7530 -0.3088
49799SOL    HW159711  10.923   0.897   1.624 -0.0324  1.3604  0.5584
49799SOL    HW259712  11.067   0.870   1.590 -0.4388  0.5820 -0.5947
49800SOL     OW59713   9.481   0.688   2.363 -0.1471 -0.4649  0.1499
49800SOL    HW159714   9.487   0.731   2.278  0.8915 -1.3546 -0.2516
49800SOL    HW259715   9.566   0.646   2.375  0.0610  0.3801  2.0468
49801SOL     OW59716  11.326   6.642   9.921 -0.1704  0.0540  0.4445
49801SOL    HW159717  11.358   6.559   9.888 -1.9488 -1.2131  1.6620
49801SOL    HW259718  11.288   6.686   9.845 -1.7207 -1.5484  0.2314
49802SOL     OW59719   7.285   2.541   2.115 -0.0565  0.4065  0.1302
49802SOL    HW159720   7.193   2.566   2.107  0.1215  1.0213 -0.0412
49802SOL    HW259721   7.298   2.527   2.209 -0.6420 -0.9507  0.0309
49803SOL     OW59722   2.770   1.782   6.065 -0.8233  0.3389  0.2187
49803SOL    HW159723   2.734   1.717   6.005 -1.9752  0.0865  1.1338
49803SOL    HW259724   2.863   1.762   6.070 -0.9315 -0.4072 -0.5217
49804SOL     OW59725   0.803   8.011   9.100  0.0877 -0.9974  0.2085
49804SOL    HW159726   0.825   8.082   9.160 -2.1599 -0.9526  1.0928
49804SOL    HW259727   0.823   7.931   9.148 -0.5030 -0.9503  0.5483
49805SOL     OW59728   7.979   6.678   4.262 -0.0596  0.3546  0.3303
49805SOL    HW159729   7.983   6.715   4.351 -2.4754  3.2399 -0.5960
49805SOL    HW259730   8.062   6.703   4.222  0.1394  1.0110  1.1162
49806SOL     OW59731   4.785   6.514   3.298  0.4522 -0.6909  0.2621
49806SOL    HW159732   4.744   6.483   3.217  2.0645  0.7097 -1.1647
49806SOL    HW259733   4.733   6.591   3.322 -0.0131 -1.0932  0.5722
49807SOL     OW59734   1.903   4.792   7.891  0.1510 -0.1717 -0.2394
49807SOL    HW159735   1.988   4.766   7.926  0.4233  0.7621 -0.1842
49807SOL    HW259736   1.922   4.869   7.837 -0.8527  0.9529  0.9507
49808SOL     OW59737   3.993   5.919   2.907  0.5479  0.2729 -0.3691
49808SOL    HW159738   3.927   5.982   2.879 -0.1837 -0.3963 -0.1631
49808SOL    HW259739   4.060   5.972   2.950 -1.0040  0.7179  1.6134
49809SOL     OW59740  12.516  12.962   4.845 -0.3730 -0.5986 -0.7680
49809SOL    HW159741  12.571  12.895   4.806 -0.6416 -0.0296 -2.1789
49809SOL    HW259742  12.462  12.994   4.773 -0.0583  1.3196 -0.2087
49810SOL     OW59743  12.878  10.530   8.012 -0.3079  0.1815  0.1370
49810SOL    HW159744  12.914  10.521   8.100 -0.3080  0.8787  0.2108
49810SOL    HW259745  12.827  10.450   7.999 -1.7674  0.8507  1.4512
49811SOL     OW59746   8.540   1.964  11.063  0.1752 -0.3587  0.3978
49811SOL    HW159747   8.504   1.875  11.069 -0.7716  0.0388  0.7577
49811SOL    HW259748   8.484   2.017  11.120 -1.1232  1.0472 -1.9905
49812SOL     OW59749  10.272   9.605   3.660 -0.0673 -0.0552 -0.3859
49812SOL    HW159750  10.262   9.685   3.608 -0.3627  0.0231 -0.2117
49812SOL    HW259751  10.270   9.534   3.595  1.2561  0.1247 -0.6525
49813SOL     OW59752   9.540   1.030   9.590  0.8370  0.0672 -0.0916
49813SOL    HW159753   9.567   1.005   9.679  1.1016  2.9846  0.7601
49813SOL    HW259754   9.511   0.948   9.550  3.0990 -1.8030  1.7850
49814SOL     OW59755  11.194  12.617  11.109 -0.0205 -0.0038  0.3135
49814SOL    HW159756  11.156  12.697  11.072 -1.1729 -0.7541 -0.1818
49814SOL    HW259757  11.257  12.588  11.044 -1.1669 -0.6547 -0.5493
49815SOL     OW59758   1.246   9.734   0.338  0.1094  0.0711  0.0219
49815SOL    HW159759   1.230   9.744   0.244 -0.5240 -0.4225  0.0695
49815SOL    HW259760   1.341   9.730   0.346  0.1625 -0.0129 -0.6154
49816SOL     OW59761  10.016   0.048   5.260  0.3192  0.4827 -0.1849
49816SOL    HW159762   9.955   0.061   5.188 -1.7183 -0.2073  1.3037
49816SOL    HW259763   9.962   0.009   5.329  2.3147  0.5331  1.4799
49817SOL     OW59764   0.521   3.779   7.344  0.3820  0.0108 -0.1564
49817SOL    HW159765   0.526   3.722   7.421  0.1934 -0.6333 -0.6036
49817SOL    HW259766   0.473   3.856   7.374  0.5642 -0.1036  0.4442
49818SOL     OW59767  10.093  12.036   2.167 -0.6571  0.3056 -0.0633
49818SOL    HW159768  10.019  12.076   2.213 -1.3296  0.7295 -1.4393
49818SOL    HW259769  10.152  12.109   2.148 -0.3502  0.1224  0.1800
49819SOL     OW59770   4.031   9.053  11.629  0.2219  0.0403 -0.3308
49819SOL    HW159771   4.096   9.055  11.560  1.3259 -0.7843  0.6395
49819SOL    HW259772   3.962   9.112  11.599  2.0373  2.0585 -0.7657
49820SOL     OW59773   4.084   3.020  11.023 -0.1855 -0.5706 -0.4106
49820SOL    HW159774   3.991   3.043  11.025 -0.2437 -0.8495  0.9894
49820SOL    HW259775   4.128   3.102  11.002 -0.6183  0.0974  1.1264
49821SOL     OW59776   9.830   9.142  12.639 -0.7430 -0.6929  0.2492
49821SOL    HW159777   9.925   9.146  12.627 -0.7642 -2.3241 -0.7676
49821SOL    HW259778   9.818   9.146  12.734  0.4104 -1.3397  0.4462
49822SOL     OW59779   8.538   4.548   3.528 -0.2398  0.3728 -0.4281
49822SOL    HW159780   8.595   4.621   3.553 -2.3854  1.8749  0.3904
49822SOL    HW259781   8.526   4.498   3.610  0.4891 -0.3887 -0.7743
49823SOL     OW59782  10.202   3.821   6.697  0.1316 -0.4109 -0.1060
49823SOL    HW159783  10.134   3.887   6.706  0.5983  0.1345 -0.5113
49823SOL    HW259784  10.161   3.739   6.726 -0.0899  0.2666  1.5977
49824SOL     OW59785   6.121   7.718   3.098 -0.0183  0.0237 -0.0893
49824SOL    HW159786   6.181   7.749   3.030 -0.3422  0.2485 -0.2753
49824SOL    HW259787   6.138   7.624   3.103  0.8022  0.1924  0.3150
49825SOL     OW59788   8.610   9.315   3.382 -1.3959 -0.3305 -0.0583
49825SOL    HW159789   8.599   9.222   3.401  0.0100 -0.8040 -1.3842
49825SOL    HW259790   8.539   9.335   3.320 -1.8083 -0.4517  0.3635
49826SOL     OW59791   4.187   1.294   7.193  0.4881  0.4636  0.4527
49826SOL    HW159792   4.139   1.376   7.194 -1.1115 -0.3777 -1.2548
49826SOL    HW259793   4.264   1.312   7.139 -0.6014  0.5072 -1.1439
49827SOL     OW59794  10.426   7.177   7.129  0.0500  0.8029  0.1420
49827SOL    HW159795  10.470   7.095   7.109 -0.3093  0.5908  0.1983
49827SOL    HW259796  10.363   7.188   7.058  0.4516  1.2956 -0.1438
49828SOL     OW59797   0.855  10.487   7.640  0.1775  0.4612 -0.0595
49828SOL    HW159798   0.769  10.444   7.644  1.0182 -1.3033  0.3236
49828SOL    HW259799   0.877  10.487   7.547  0.0834  0.2367 -0.0832
49829SOL     OW59800  12.892   4.246  11.072 -0.4648  0.2093  0.2208
49829SOL    HW159801  12.866   4.156  11.053 -0.9792  0.2263  0.8184
49829SOL    HW259802  12.951   4.269  11.000  0.3768 -0.9005  0.5234
49830SOL     OW59803   9.479   2.487   0.883  0.4717 -0.2135  0.3212
49830SOL    HW159804   9.448   2.449   0.800  0.9449 -0.0930  0.0859
49830SOL    HW259805   9.514   2.412   0.932  1.9694 -0.0195 -0.3967
49831SOL     OW59806   9.534   9.413   5.531 -0.7715 -0.1197  0.2918
49831SOL    HW159807   9.518   9.496   5.577 -0.6264  0.4878 -0.7186
49831SOL    HW259808   9.589   9.437   5.457 -0.0558 -1.2588  0.4206
49832SOL     OW59809   7.619   7.845   5.489 -0.8389  0.0096 -0.2992
49832SOL    HW159810   7.697   7.901   5.498 -0.7798 -0.2599  1.0590
49832SOL    HW259811   7.652   7.764   5.452 -0.5406  0.0601 -0.1498
49833SOL     OW59812   6.543  11.801   8.092  0.3367  0.3086 -0.1588
49833SOL    HW159813   6.495  11.882   8.107 -0.8504 -0.5923  1.2111
49833SOL    HW259814   6.517  11.744   8.164  1.4138 -1.1757 -0.8829
49834SOL     OW59815   7.529   7.007   7.422  0.7434  0.1415 -0.7052
49834SOL    HW159816   7.564   7.021   7.510  0.5860  2.6660 -0.9489
49834SOL    HW259817   7.585   7.061   7.366  0.1388 -0.5232 -1.9877
49835SOL     OW59818  12.596   1.602   7.906 -0.0609 -0.7736  0.1639
49835SOL    HW159819  12.662   1.639   7.965  2.0415 -0.7545 -2.0126
49835SOL    HW259820  12.645   1.539   7.853 -1.6288 -0.2667 -2.0152
49836SOL     OW59821   0.524   7.141   5.271 -0.0002 -0.1084  0.3290
49836SOL    HW159822   0.508   7.053   5.304 -1.5809  0.0739  0.1256
49836SOL    HW259823   0.588   7.178   5.332  1.4077 -1.6858 -0.1191
49837SOL     OW59824   6.530   3.630   3.221  0.3374  0.1629  0.2141
49837SOL    HW159825   6.545   3.708   3.168 -0.8045 -0.1741 -0.6453
49837SOL    HW259826   6.475   3.660   3.293  1.6470  0.5605  1.0805
49838SOL     OW59827   2.548  10.078   8.214  0.5936  0.2557  0.1246
49838SOL    HW159828   2.626  10.124   8.182  0.9344 -1.0238 -0.9939
49838SOL    HW259829   2.513  10.135   8.282  1.2868  1.8874 -0.8244
49839SOL     OW59830   5.169   7.619   1.743  0.5788  0.1898 -0.4905
49839SOL    HW159831   5.075   7.612   1.756  0.9671 -0.9892  2.4786
49839SOL    HW259832   5.192   7.706   1.779  0.7313  0.0581 -0.2645
49840SOL     OW59833   8.311   0.717   7.180 -0.1503  0.2717 -0.2953
49840SOL    HW159834   8.327   0.624   7.195  0.3708  0.4429  0.2394
49840SOL    HW259835   8.316   0.727   7.084 -0.2559 -0.2510 -0.3586
49841SOL     OW59836   8.936  10.751   4.964  0.4786 -0.0019  0.1143
49841SOL    HW159837   8.898  10.806   4.895 -1.6091  1.1275  2.0417
49841SOL    HW259838   9.014  10.799   4.992 -0.3989  1.1554  0.6379
49842SOL     OW59839   3.665   2.949   0.283  0.0300  0.6100 -0.4306
49842SOL    HW159840   3.578   2.970   0.317 -0.4085 -0.4300 -0.8739
49842SOL    HW259841   3.650   2.880   0.219  1.2583 -0.1739  0.0797
49843SOL     OW59842  10.288   8.026  12.764 -0.1199 -0.3503  0.0185
49843SOL    HW159843  10.231   7.960  12.804  3.3676 -3.2155  0.8168
49843SOL    HW259844  10.298   8.093  12.831 -1.8846 -0.1142  0.1019
49844SOL     OW59845   4.368   8.726   4.163  0.2771 -0.2481 -0.3279
49844SOL    HW159846   4.308   8.665   4.119  0.4658 -1.3850  0.9253
49844SOL    HW259847   4.318   8.757   4.239  0.5728  0.3228 -0.3701
49845SOL     OW59848   6.081   2.021  11.223  0.2637 -0.4256 -0.3244
49845SOL    HW159849   6.134   1.989  11.295 -0.0766 -0.0980  0.0790
49845SOL    HW259850   6.020   2.083  11.263 -1.5684 -2.0311 -0.4701
49846SOL     OW59851  11.739   8.863  12.719  0.1047  0.2109 -0.3107
49846SOL    HW159852  11.784   8.933  12.766  1.5012  1.0398 -2.6893
49846SOL    HW259853  11.689   8.909  12.651 -2.0745 -0.9039  0.4276
49847SOL     OW59854  10.614  11.619   6.549  0.1650 -0.0220 -0.2447
49847SOL    HW159855  10.624  11.524   6.551  1.5542  0.0895  1.8369
49847SOL    HW259856  10.522  11.634   6.568  0.0915 -0.9473  0.1903
49848SOL     OW59857  10.238   6.987   7.516 -0.1312  0.0608  0.4019
49848SOL    HW159858  10.196   6.912   7.558  0.3939 -0.4487  0.0330
49848SOL    HW259859  10.323   6.953   7.487  0.5087  1.0496  1.0605
49849SOL     OW59860  11.566   2.733   0.738  0.3808  0.0890 -0.0200
49849SOL    HW159861  11.527   2.819   0.718  0.1792  0.0970  0.3758
49849SOL    HW259862  11.659   2.743   0.717  0.2932  0.2931 -0.3156
49850SOL     OW59863   2.682   6.533   6.921 -0.5679  0.0537  0.2857
49850SOL    HW159864   2.672   6.534   7.016 -0.3160 -1.3633  0.3442
49850SOL    HW259865   2.611   6.476   6.890 -0.5120  0.3229 -0.3716
49851SOL     OW59866  10.751   0.639  11.207  0.2041  0.6914 -0.1125
49851SOL    HW159867  10.703   0.556  11.210  0.0909  0.7657  2.6471
49851SOL    HW259868  10.685   0.706  11.226  0.3397  1.4501 -2.0873
49852SOL     OW59869   8.828   6.788   7.675  0.3736  0.1441  0.7163
49852SOL    HW159870   8.813   6.767   7.583  2.1933 -1.8597  0.7886
49852SOL    HW259871   8.773   6.726   7.723  0.1625  0.5276  0.9703
49853SOL     OW59872   5.506   1.657   6.875  0.3999 -0.4948  0.4918
49853SOL    HW159873   5.454   1.734   6.900  0.1498 -0.2921 -0.6110
49853SOL    HW259874   5.512   1.605   6.955 -0.1039  0.2853  1.0507
49854SOL     OW59875   8.695   8.296   6.813 -0.3126 -0.1587 -0.4309
49854SOL    HW159876   8.743   8.342   6.882 -0.7617  1.4242 -1.1199
49854SOL    HW259877   8.759   8.236   6.776  0.6954  0.7859 -0.2907
49855SOL     OW59878  12.902  11.222   6.798  0.0708 -0.0463  0.5100
49855SOL    HW159879  12.979  11.279   6.798  1.0889 -1.2842  2.5120
49855SOL    HW259880  12.931  11.144   6.845 -1.5079 -1.8989 -1.4271
49856SOL     OW59881   0.119   1.590   4.212  0.1763 -0.4378 -0.5133
49856SOL    HW159882   0.034   1.546   4.201 -1.4170  1.7981  1.7758
49856SOL    HW259883   0.101   1.682   4.197  2.1930  0.1119  0.1280
49857SOL     OW59884   2.493  10.106  12.797 -0.2065 -0.2544  0.2032
49857SOL    HW159885   2.401  10.078  12.791  0.2795 -1.8456 -0.2257
49857SOL    HW259886   2.543  10.025  12.795  1.2594  0.6210 -0.2353
49858SOL     OW59887   2.850   8.563   3.887 -0.3233  0.3927 -0.1175
49858SOL    HW159888   2.798   8.640   3.866  0.6134  0.7538 -1.2691
49858SOL    HW259889   2.913   8.593   3.952  1.0388  1.0781 -1.6533
49859SOL     OW59890   4.440  10.230   9.430  0.1270 -0.0975  0.3863
49859SOL    HW159891   4.456  10.317   9.466 -1.0742  0.3940 -0.2172
49859SOL    HW259892   4.347  10.213   9.447 -0.8498  0.6041 -3.2301
49860SOL     OW59893   3.960  11.468   4.117 -0.2898 -0.0754 -0.5408
49860SOL    HW159894   3.935  11.399   4.056 -1.0391 -1.6224  1.3886
49860SOL    HW259895   4.056  11.466   4.116 -0.2427 -2.4567  0.7430
49861SOL     OW59896   7.121   9.804   5.158 -0.2162  0.4169 -0.8682
49861SOL    HW159897   7.130   9.767   5.070  1.6065 -0.4063 -0.3929
49861SOL    HW259898   7.130   9.729   5.217 -1.4400  0.9558  0.0383
49862SOL     OW59899  12.447   6.074   1.456 -0.1406  0.5257  0.5865
49862SOL    HW159900  12.436   6.167   1.476  0.9224  0.7433  0.2150
49862SOL    HW259901  12.358   6.039   1.453 -0.4968  0.8830  3.6315
49863SOL     OW59902   9.386   9.657   5.421 -0.6458  0.2001  0.5189
49863SOL    HW159903   9.456   9.706   5.378 -0.2615 -0.4914  0.3533
49863SOL    HW259904   9.374   9.579   5.366  0.6663 -1.3227  2.2792
49864SOL     OW59905  12.909   9.688   5.977  0.2874  0.5344 -0.0921
49864SOL    HW159906  12.953   9.749   5.918  0.9938 -0.9749 -1.1950
49864SOL    HW259907  12.828   9.733   6.002  1.1697  2.2445 -0.1872
49865SOL     OW59908   3.182   6.624   5.551  0.1359 -0.8726  0.1654
49865SOL    HW159909   3.119   6.555   5.532 -1.8567 -0.3633  3.9380
49865SOL    HW259910   3.138   6.705   5.524  0.3360 -0.7311  0.2569
49866SOL     OW59911   3.406   5.094   1.999 -0.1222  0.5234  0.5112
49866SOL    HW159912   3.367   5.019   2.044 -0.5361 -0.1941 -0.9678
49866SOL    HW259913   3.479   5.057   1.949 -1.1996  0.8082 -1.3671
49867SOL     OW59914   1.638   5.002   4.617  0.0116  0.0436  0.2206
49867SOL    HW159915   1.702   4.950   4.666 -0.3567 -0.5189  0.1119
49867SOL    HW259916   1.594   5.054   4.684  0.6440  0.5007  0.2845
49868SOL     OW59917   0.029   1.237   4.097 -0.1219  0.3924 -0.0163
49868SOL    HW159918  -0.040   1.178   4.125 -0.2661  0.6282  0.1354
49868SOL    HW259919   0.057   1.281   4.177 -1.4573  2.0549 -0.3765
49869SOL     OW59920   6.457   0.849   3.188 -0.3802 -0.4061  0.3901
49869SOL    HW159921   6.407   0.797   3.125  0.5428 -0.4803 -0.2883
49869SOL    HW259922   6.530   0.793   3.215 -0.3240 -0.0841  0.9380
49870SOL     OW59923  12.004  12.735   0.107 -0.5334 -0.4540 -0.5970
49870SOL    HW159924  12.018  12.683   0.028 -0.7401 -0.9857 -0.2865
49870SOL    HW259925  11.910  12.751   0.110 -0.3735  0.7038 -1.1632
49871SOL     OW59926   9.045   0.539   3.974  0.4097  0.1582 -0.1981
49871SOL    HW159927   9.109   0.469   3.966 -0.2250 -0.3431 -1.0627
49871SOL    HW259928   9.086   0.604   4.032  0.9201 -1.0106  0.7838
49872SOL     OW59929  12.208   1.939   7.764  0.0364  0.6338 -0.3873
49872SOL    HW159930  12.263   1.863   7.780 -0.0315  0.5524 -0.5407
49872SOL    HW259931  12.125   1.919   7.806  0.1435  0.7861 -0.0952
49873SOL     OW59932   3.955   9.783   8.615  0.0200 -0.2104  0.8952
49873SOL    HW159933   3.954   9.837   8.694  0.8791  1.1790  0.0101
49873SOL    HW259934   3.870   9.798   8.574  0.3791  0.7861  0.4807
49874SOL     OW59935   5.156   8.519  10.206 -0.5427  0.3969 -0.0204
49874SOL    HW159936   5.160   8.507  10.111  1.0578  1.2309 -0.1075
49874SOL    HW259937   5.216   8.592  10.222 -2.2610  1.5676  1.4381
49875SOL     OW59938   4.405  11.365  10.102  0.6625 -0.2383 -0.4140
49875SOL    HW159939   4.381  11.424  10.174 -1.8008  0.4024 -1.6313
49875SOL    HW259940   4.500  11.371  10.097  0.6851  1.7891  1.0477
49876SOL     OW59941  11.211  10.017   5.445 -0.1858 -0.8270 -0.0648
49876SOL    HW159942  11.121   9.993   5.425 -0.2386 -0.7237  0.0444
49876SOL    HW259943  11.228  10.094   5.390 -0.7039  0.1501  1.0984
49877SOL     OW59944   2.655  10.298   8.990  0.9056  0.1503 -0.6938
49877SOL    HW159945   2.647  10.300   8.895 -0.9627  0.3840 -0.5679
49877SOL    HW259946   2.733  10.244   9.007  0.7654 -0.6062 -2.3200
49878SOL     OW59947  10.921  12.711   4.930 -0.2255  0.4566  0.0764
49878SOL    HW159948  10.892  12.788   4.979 -1.0630  0.8195 -0.9332
49878SOL    HW259949  10.968  12.658   4.994  0.1164  1.6668  0.8639
49879SOL     OW59950   6.204   2.640   7.033  0.2292 -0.6884 -0.3031
49879SOL    HW159951   6.194   2.558   6.985  0.7223 -0.0295 -1.5921
49879SOL    HW259952   6.122   2.687   7.019 -0.4865 -1.3757  1.3309
49880SOL     OW59953   2.074   2.124   9.280  0.5014  0.4770  0.6481
49880SOL    HW159954   2.065   2.137   9.185 -0.5081 -0.1066  0.6532
49880SOL    HW259955   2.122   2.201   9.310 -1.3384  1.9310  0.0213
49881SOL     OW59956  11.731   2.925   4.332  0.1307 -0.3828 -0.4224
49881SOL    HW159957  11.677   2.907   4.409 -1.3118 -1.8113 -1.6941
49881SOL    HW259958  11.759   3.016   4.342 -3.8327  0.9930 -0.4087
49882SOL     OW59959   6.764   2.395  11.995 -0.8232 -0.1191 -0.5884
49882SOL    HW159960   6.802   2.445  12.067  0.0970 -0.0496 -1.1115
49882SOL    HW259961   6.731   2.461  11.934  0.4456 -0.1194 -1.3081
49883SOL     OW59962   8.763   2.264   3.694  0.1328  0.1488  0.3635
49883SOL    HW159963   8.844   2.285   3.648 -0.4973  1.6444 -0.1272
49883SOL    HW259964   8.742   2.343   3.743 -0.1182 -0.8323  1.8919
49884SOL     OW59965   7.588   7.269   9.356  0.1410  0.1003  0.0932
49884SOL    HW159966   7.513   7.257   9.299 -1.0244 -1.2538  1.8339
49884SOL    HW259967   7.657   7.214   9.318  0.1929  1.0669 -1.2982
49885SOL     OW59968   0.663   7.731  11.052  0.2424  0.3398  0.4546
49885SOL    HW159969   0.717   7.712  10.975  0.2584  0.4983  0.4262
49885SOL    HW259970   0.718   7.710  11.126  0.6042  1.1965  0.4342
49886SOL     OW59971   1.482   8.895   2.603 -0.4325  0.2734  0.0811
49886SOL    HW159972   1.497   8.805   2.632  0.4648 -0.5261 -2.5381
49886SOL    HW259973   1.570   8.930   2.588 -0.8144  0.9521 -0.6408
49887SOL     OW59974   6.028  12.433   0.491  0.2209 -0.0665 -0.1319
49887SOL    HW159975   6.048  12.498   0.423 -1.4849  1.1774  0.4816
49887SOL    HW259976   5.987  12.361   0.445 -1.0517  0.8264 -0.4531
49888SOL     OW59977   1.608  12.496   5.838  0.4655  0.4963  0.0756
49888SOL    HW159978   1.664  12.460   5.769  0.8537  1.1927  0.0053
49888SOL    HW259979   1.642  12.585   5.851 -0.3776  0.7921  0.3174
49889SOL     OW59980  10.355   2.623   3.235  0.1168  0.0826 -0.2409
49889SOL    HW159981  10.309   2.655   3.157 -1.0486 -0.1323  0.3457
49889SOL    HW259982  10.363   2.529   3.221  0.9216  0.1977 -0.6102
49890SOL     OW59983   6.080  10.570  11.382 -0.0838  0.2760 -0.7556
49890SOL    HW159984   6.000  10.622  11.374 -0.3261 -0.1762 -1.4032
49890SOL    HW259985   6.151  10.633  11.370 -0.3715  0.4762 -1.4587
49891SOL     OW59986   2.448   4.554  11.530 -0.3256  0.4501  0.3023
49891SOL    HW159987   2.355   4.579  11.530 -0.4938 -0.1583 -0.1641
49891SOL    HW259988   2.448   4.463  11.502  0.2131 -0.3116  2.5880
49892SOL     OW59989   0.866  11.565   3.965  0.1035 -0.0347 -0.0723
49892SOL    HW159990   0.844  11.642   4.017 -0.5939 -1.4055  1.7557
49892SOL    HW259991   0.862  11.492   4.027  1.9101 -1.4116 -1.4638
49893SOL     OW59992   4.835  12.211   0.851  0.1374  0.2537 -0.0014
49893SOL    HW159993   4.903  12.274   0.826  1.1756 -0.9818 -0.4414
49893SOL    HW259994   4.753  12.251   0.823  0.6682  1.7741  0.5106
49894SOL     OW59995   5.837   8.661   7.074 -0.3499  0.2214 -0.3390
49894SOL    HW159996   5.898   8.733   7.092 -0.0673  0.4237 -1.9115
49894SOL    HW259997   5.753   8.692   7.107  0.2563  0.2173  1.2549
49895SOL     OW59998   8.276   2.878   5.140 -0.1905 -0.0722 -0.6881
49895SOL    HW159999   8.308   2.789   5.159  0.3617  0.4997  1.3923
49895SOL    HW260000   8.329   2.907   5.066  0.8548 -0.8669 -0.2846
49896SOL     OW60001  11.753   3.657  10.999  0.2176  0.0456  0.2097
49896SOL    HW160002  11.751   3.562  11.009 -0.7763  0.0514  0.1666
49896SOL    HW260003  11.662   3.684  11.008  0.3585  0.8925 -0.7041
49897SOL     OW60004  10.104   0.724   0.398  0.5657 -0.3701  0.1528
49897SOL    HW160005  10.094   0.817   0.421  1.2946  0.0417 -1.0570
49897SOL    HW260006  10.089   0.723   0.303  1.1449 -1.4065  0.0699
49898SOL     OW60007   4.780  12.894   3.244  0.0414 -0.1957 -0.2760
49898SOL    HW160008   4.776  12.877   3.150 -1.7194  0.4512 -0.3432
49898SOL    HW260009   4.860  12.945   3.255 -0.2443  0.5960 -1.5812
49899SOL     OW60010   2.217   5.593   8.392  0.6172 -0.0855  0.4409
49899SOL    HW160011   2.185   5.507   8.421  1.7549  0.0942  2.4039
49899SOL    HW260012   2.145   5.653   8.412 -0.6800 -0.6526 -2.0477
49900SOL     OW60013  10.164   1.160   3.015  0.3579  0.1711  0.0109
49900SOL    HW160014  10.181   1.234   3.072 -0.6036  0.7583 -0.4404
49900SOL    HW260015  10.072   1.137   3.032  0.4809 -0.5540 -0.2531
49901SOL     OW60016  10.890   5.258   0.196 -0.4325  0.3679 -0.6214
49901SOL    HW160017  10.923   5.348   0.201  0.2052  0.1944 -1.4278
49901SOL    HW260018  10.795   5.268   0.182 -0.1300  0.9963 -2.6406
49902SOL     OW60019   5.806   1.117   2.064 -0.1765  0.3073  0.0640
49902SOL    HW160020   5.749   1.093   2.137  0.7370 -1.2991  0.2890
49902SOL    HW260021   5.782   1.058   1.993  0.6875  0.1077 -0.0779
49903SOL     OW60022   7.664  12.044   1.661 -0.1175  0.0379 -0.4131
49903SOL    HW160023   7.648  12.097   1.739 -0.2637 -0.3864 -0.1502
49903SOL    HW260024   7.756  12.061   1.639 -0.7508  2.2060 -1.7146
49904SOL     OW60025   1.473   0.471   7.820  0.3798 -0.0758 -0.1734
49904SOL    HW160026   1.427   0.387   7.812 -0.2503  0.3031 -0.5525
49904SOL    HW260027   1.499   0.475   7.912  2.3338 -1.6754 -0.5867
49905SOL     OW60028   0.671   1.237   4.266 -0.0335 -0.0695 -0.3070
49905SOL    HW160029   0.631   1.313   4.307  0.5004  0.3550 -0.5548
49905SOL    HW260030   0.764   1.260   4.259  0.9459 -2.2909  3.2513
49906SOL     OW60031  11.110   8.143   6.467  0.4881  0.1130 -0.0181
49906SOL    HW160032  11.142   8.204   6.400  1.2077  0.2304  0.4171
49906SOL    HW260033  11.075   8.069   6.418 -2.1820  1.6619 -0.6364
49907SOL     OW60034   6.567   5.887   3.271  0.1595  0.0265  0.1642
49907SOL    HW160035   6.576   5.806   3.222  3.5205  1.0723 -1.2098
49907SOL    HW260036   6.474   5.908   3.266 -0.0862 -1.2426 -3.6978
49908SOL     OW60037   1.673   9.627   9.057  0.0800 -0.5599 -0.1218
49908SOL    HW160038   1.650   9.597   9.145 -0.7954 -2.2124 -0.8533
49908SOL    HW260039   1.722   9.554   9.019 -0.0259 -0.1015 -1.1769
49909SOL     OW60040   1.553   9.411   6.906 -0.0408  0.3347 -0.3754
49909SOL    HW160041   1.583   9.321   6.919 -1.5420 -0.3517 -1.3245
49909SOL    HW260042   1.540   9.446   6.994 -1.5622 -1.1586  0.0459
49910SOL     OW60043   2.256   8.920   5.231 -0.5962  0.0348 -0.5935
49910SOL    HW160044   2.192   8.889   5.294 -0.6764  0.0632 -0.6615
49910SOL    HW260045   2.255   8.854   5.161  0.4573 -0.7120  0.0598
49911SOL     OW60046   2.156   6.487   2.612  0.1694 -0.2134  0.1920
49911SOL    HW160047   2.085   6.509   2.552  0.0572  0.5538  0.5890
49911SOL    HW260048   2.223   6.554   2.594  1.0478 -1.2786 -0.5971
49912SOL     OW60049   9.477  12.533   7.052 -0.1802  0.5870  0.4838
49912SOL    HW160050   9.527  12.609   7.082  0.4179  0.5296 -0.3424
49912SOL    HW260051   9.452  12.487   7.132 -1.2649  2.0909  1.0529
49913SOL     OW60052   7.516   2.609   1.105  0.6374  0.5139 -0.8764
49913SOL    HW160053   7.470   2.573   1.030  1.9582 -0.5215 -1.2375
49913SOL    HW260054   7.515   2.538   1.170 -1.3474  1.7214  0.5282
49914SOL     OW60055  10.426   1.389   7.652 -0.0360  0.0063 -0.2352
49914SOL    HW160056  10.381   1.365   7.734 -1.1024 -2.8824 -1.5202
49914SOL    HW260057  10.507   1.338   7.653  0.3125  0.5416 -0.6516
49915SOL     OW60058  12.157   9.975   8.461 -0.2921 -0.5914  0.6465
49915SOL    HW160059  12.182   9.907   8.399 -0.3224  0.1189 -0.1501
49915SOL    HW260060  12.231   9.981   8.521  0.6935  0.2347 -0.6202
49916SOL     OW60061   7.653   2.562   5.614 -0.1912 -0.1657  0.5888
49916SOL    HW160062   7.654   2.617   5.536  1.5633 -0.0406  0.6584
49916SOL    HW260063   7.735   2.513   5.610 -0.9541 -1.5670  1.3909
49917SOL     OW60064   1.630   3.011  11.190  0.1502  0.6465  0.0879
49917SOL    HW160065   1.542   3.044  11.172 -1.3278 -2.4690  0.9742
49917SOL    HW260066   1.649   3.043  11.278 -0.9140 -0.1089  0.6200
49918SOL     OW60067   1.319   4.745   2.932  0.2863  0.4755 -0.0704
49918SOL    HW160068   1.401   4.773   2.892  1.0072 -0.9280  0.3713
49918SOL    HW260069   1.332   4.653   2.952 -0.4671  0.8307  2.3314
49919SOL     OW60070   3.731   6.108   9.534  0.7559 -0.3339 -0.2732
49919SOL    HW160071   3.639   6.080   9.532  0.6226 -0.0533  0.8948
49919SOL    HW260072   3.748   6.143   9.447 -0.3303 -0.1511 -0.4282
49920SOL     OW60073   5.060   7.609  11.748  0.1646 -0.6420 -0.8286
49920SOL    HW160074   5.150   7.631  11.773  0.0999  3.1364 -3.2006
49920SOL    HW260075   5.070   7.541  11.682  1.7502  2.0931 -3.6589
49921SOL     OW60076   3.102   2.936  10.569  0.5650  0.0379  0.4581
49921SOL    HW160077   3.092   2.851  10.526  1.7651 -0.1631  0.5362
49921SOL    HW260078   3.013   2.966  10.585  0.1302 -1.2894  0.5985
49922SOL     OW60079   5.487   2.471   6.630  0.3717 -0.4566 -0.0392
49922SOL    HW160080   5.461   2.391   6.584  1.3043 -0.7814 -0.0334
49922SOL    HW260081   5.580   2.481   6.608  0.0964  1.0509 -0.6752
49923SOL     OW60082   8.222   2.051   7.584 -0.1462  0.4728  0.5207
49923SOL    HW160083   8.263   1.983   7.530 -1.3025  0.1270  0.0402
49923SOL    HW260084   8.236   2.132   7.535 -0.0741  0.3533  0.3439
49924SOL     OW60085   0.766   7.618   5.625 -0.1150  0.1243 -0.0303
49924SOL    HW160086   0.749   7.619   5.719 -1.8477  0.8729 -0.3129
49924SOL    HW260087   0.860   7.601   5.618  0.2961  1.2922  1.8608
49925SOL     OW60088   5.611   9.396   1.785 -0.0727 -0.2966 -0.3438
49925SOL    HW160089   5.534   9.406   1.841  2.3016  2.4229  2.7969
49925SOL    HW260090   5.584   9.434   1.701 -1.7333  2.1763  1.1696
49926SOL     OW60091   5.328   0.551  12.331 -0.2671 -0.4428 -0.4538
49926SOL    HW160092   5.310   0.640  12.299  0.7626  0.5658  1.5616
49926SOL    HW260093   5.253   0.531  12.388  0.5291  0.0598  0.8075
49927SOL     OW60094   6.620   1.699   2.639 -0.4037  0.1176  0.1161
49927SOL    HW160095   6.612   1.705   2.734 -0.7832  0.9538  0.0368
49927SOL    HW260096   6.648   1.786   2.612 -0.3782 -0.0953 -0.5490
49928SOL     OW60097   5.979   5.610   8.275  0.6386  0.3116  0.5734
49928SOL    HW160098   6.061   5.563   8.294 -0.2273 -1.1909  0.7683
49928SOL    HW260099   5.991   5.642   8.186  0.7176 -1.6089 -0.1582
49929SOL     OW60100   2.935  12.472   2.939 -0.2935 -1.0253  0.6122
49929SOL    HW160101   2.975  12.429   3.014  0.5581 -0.1605  0.6747
49929SOL    HW260102   2.991  12.548   2.922  0.4508 -2.0605 -1.8997
49930SOL     OW60103   3.675  12.068   2.915 -0.4514 -0.2023 -0.0700
49930SOL    HW160104   3.597  12.095   2.964 -1.3271 -0.9195 -1.0116
49930SOL    HW260105   3.684  12.135   2.847 -0.5662 -0.4068 -0.2875
49931SOL     OW60106   0.088  12.971   4.347  0.1049 -0.1556  0.1951
49931SOL    HW160107   0.156  12.958   4.413  0.0994 -1.8538 -0.0904
49931SOL    HW260108   0.011  12.927   4.383  0.3977 -2.0702 -1.3537
49932SOL     OW60109   8.335   6.710   7.005 -0.7551  0.1581  0.0983
49932SOL    HW160110   8.286   6.780   7.049  0.9452  1.4136  0.0949
49932SOL    HW260111   8.378   6.754   6.931 -0.1602 -1.0428 -0.2887
49933SOL     OW60112   4.387   4.067   0.013 -0.1720  0.2010 -0.0179
49933SOL    HW160113   4.372   4.006   0.085 -0.3254  0.9795  0.6328
49933SOL    HW260114   4.300   4.093  -0.016 -0.1067  0.3159 -0.1150
49934SOL     OW60115   8.609  12.257  10.786 -0.0112  0.4407  0.4591
49934SOL    HW160116   8.553  12.191  10.826 -0.2243 -0.3711 -1.0776
49934SOL    HW260117   8.693  12.248  10.830 -0.0972 -0.7469  0.4200
49935SOL     OW60118  12.881   9.188   3.591 -0.3023 -0.3087  0.2013
49935SOL    HW160119  12.825   9.170   3.516 -2.7262  0.1333  1.7916
49935SOL    HW260120  12.861   9.278   3.615  1.6726  0.1172  0.4266
49936SOL     OW60121   2.773   0.925   5.202  0.0535  0.3118  0.2168
49936SOL    HW160122   2.683   0.959   5.209 -0.4780 -0.8915 -0.4808
49936SOL    HW260123   2.811   0.940   5.289 -1.2914 -0.4382  0.9637
49937SOL     OW60124   2.054   7.336   1.946  0.5220  0.6804 -0.3162
49937SOL    HW160125   1.983   7.279   1.915  1.3855  0.0829 -1.2600
49937SOL    HW260126   2.009   7.405   1.996 -0.8055  0.7932 -1.5893
49938SOL     OW60127   3.309   6.052  10.698  0.5776  0.3196 -0.0113
49938SOL    HW160128   3.277   5.976  10.649  1.2240  0.9371 -1.4445
49938SOL    HW260129   3.326   6.018  10.786  0.2277 -1.0352 -0.4355
49939SOL     OW60130   2.402   8.428   9.561 -0.2434 -0.0355 -0.0074
49939SOL    HW160131   2.359   8.346   9.536  1.0216 -0.2704 -1.5575
49939SOL    HW260132   2.350   8.496   9.518 -1.0241 -0.0220  0.9086
49940SOL     OW60133  11.044   1.279   3.545 -0.4843  0.1708 -0.3570
49940SOL    HW160134  11.118   1.247   3.494  0.6451  0.4869  1.0166
49940SOL    HW260135  11.007   1.201   3.586 -0.5988  0.0790 -0.6319
49941SOL     OW60136   9.931   5.906  12.459 -0.2094  0.3804 -0.1148
49941SOL    HW160137   9.979   5.985  12.483 -0.2357  0.1059  0.8828
49941SOL    HW260138   9.992   5.856  12.405  0.5821  0.1139  0.9979
49942SOL     OW60139   3.785   0.553   6.967 -0.0169  0.1826 -0.7018
49942SOL    HW160140   3.844   0.628   6.966 -2.5156  2.2985 -1.0847
49942SOL    HW260141   3.819   0.495   6.899  1.8516  1.0500 -0.5685
49943SOL     OW60142   5.689  11.669  12.688 -0.1672 -0.5852  0.6494
49943SOL    HW160143   5.747  11.631  12.622  1.2554 -0.5444  1.8153
49943SOL    HW260144   5.651  11.594  12.734 -0.8672 -0.6109  0.0382
49944SOL     OW60145  12.120   5.966   0.550  0.5073  0.3510 -0.3235
49944SOL    HW160146  12.211   5.969   0.579  0.6106 -0.4062 -0.5587
49944SOL    HW260147  12.070   5.971   0.631  0.7782 -0.3954 -0.1037
49945SOL     OW60148   1.006   1.117   0.037  0.5288 -0.1691 -0.3270
49945SOL    HW160149   1.034   1.196  -0.008  1.5370 -0.5863 -0.4684
49945SOL    HW260150   0.978   1.147   0.124  0.1912  0.4275 -0.6416
49946SOL     OW60151   0.117   8.251  11.847  0.2656  0.3389  0.0997
49946SOL    HW160152   0.188   8.209  11.799  1.2257 -0.5215  2.1131
49946SOL    HW260153   0.161   8.309  11.909 -0.8520  0.7122  0.5729
49947SOL     OW60154  11.568   6.385   3.718  0.0992  0.5101  0.1029
49947SOL    HW160155  11.622   6.404   3.641 -2.1229  0.3885 -1.5804
49947SOL    HW260156  11.574   6.290   3.729 -0.3927  0.3865 -0.6058
49948SOL     OW60157   1.728   1.063   4.841 -0.2194  0.1580 -0.3332
49948SOL    HW160158   1.821   1.087   4.838 -0.4243  1.0631  0.3097
49948SOL    HW260159   1.683   1.136   4.798 -0.5646 -0.7654 -1.6051
49949SOL     OW60160   9.180   5.914   4.214 -0.6862 -0.0062 -0.4088
49949SOL    HW160161   9.093   5.921   4.175 -1.2439 -0.6443  0.6716
49949SOL    HW260162   9.226   5.850   4.160 -1.1288 -0.1941 -0.5657
49950SOL     OW60163   1.007   4.376   2.089 -0.6745 -0.4335  0.2381
49950SOL    HW160164   0.961   4.350   2.169 -1.8925  1.3840  0.1905
49950SOL    HW260165   0.949   4.349   2.018 -0.8363  0.2545  0.0983
49951SOL     OW60166   3.766   4.949   1.966  1.1075  0.7080 -0.6915
49951SOL    HW160167   3.811   4.989   1.890 -1.5277  0.9741 -2.2186
49951SOL    HW260168   3.765   5.018   2.032  0.3829  1.7164 -1.7261
49952SOL     OW60169   1.851   2.579   8.488 -0.8803 -0.4138 -0.0175
49952SOL    HW160170   1.830   2.521   8.561 -4.4197 -0.0187 -0.5101
49952SOL    HW260171   1.879   2.661   8.530  1.1136 -1.4044  0.7243
49953SOL     OW60172   3.701   9.748   3.374 -0.0135 -0.6188 -0.2583
49953SOL    HW160173   3.742   9.718   3.455 -1.3553  0.2288  0.7642
49953SOL    HW260174   3.694   9.669   3.320 -0.2496 -1.4571  0.9592
49954SOL     OW60175  12.167   4.641   5.749 -0.3373 -0.6044  0.2397
49954SOL    HW160176  12.125   4.589   5.818  0.4910 -1.0074  0.4575
49954SOL    HW260177  12.260   4.620   5.758  0.0617  1.2103  0.5596
49955SOL     OW60178   5.785   2.381  11.050  0.1496 -0.1891 -0.6628
49955SOL    HW160179   5.749   2.467  11.029  2.0510  0.5383 -1.1138
49955SOL    HW260180   5.841   2.359  10.975 -0.1162 -1.7267 -0.4513
49956SOL     OW60181   1.490   1.226   6.989  0.0597  0.3943  0.2877
49956SOL    HW160182   1.553   1.211   6.918 -1.1233  0.7083 -0.8559
49956SOL    HW260183   1.503   1.318   7.013 -0.3755  0.6332 -0.3729
49957SOL     OW60184   0.788  12.753   4.333  0.6771 -0.2191 -0.0626
49957SOL    HW160185   0.872  12.775   4.372  0.4792  0.6119 -0.0852
49957SOL    HW260186   0.770  12.825   4.272 -0.7404  0.4084  1.0323
49958SOL     OW60187   4.048  11.962   9.782  0.7917 -0.2466  0.3974
49958SOL    HW160188   4.094  11.891   9.827 -0.2203 -1.4968 -0.4678
49958SOL    HW260189   4.059  11.942   9.689  1.3101  1.2859  0.1013
49959SOL     OW60190  12.623  12.952   3.184 -0.6719 -0.1871  0.7662
49959SOL    HW160191  12.550  12.943   3.245 -0.7632 -4.0619  0.3349
49959SOL    HW260192  12.695  12.986   3.238 -1.9625  0.8190  1.9114
49960SOL     OW60193  12.388  11.923   0.205  0.0927 -0.1155  0.7356
49960SOL    HW160194  12.412  12.016   0.201 -0.7458  0.0729 -0.1691
49960SOL    HW260195  12.464  11.877   0.169 -0.3811  0.3965 -1.0102
49961SOL     OW60196   5.206  11.437   5.959 -0.2108 -0.0003 -0.1084
49961SOL    HW160197   5.228  11.355   5.916 -2.1339 -0.8871  0.4698
49961SOL    HW260198   5.281  11.455   6.016  0.1657 -1.4989 -0.0775
49962SOL     OW60199  11.531   1.202   7.788 -0.5176 -0.3347 -0.4644
49962SOL    HW160200  11.614   1.157   7.773  0.0698  0.7265 -0.4922
49962SOL    HW260201  11.465   1.132   7.785  0.5888 -1.6986  2.5044
49963SOL     OW60202   7.553   7.299  10.878 -0.5910  0.2061  0.0153
49963SOL    HW160203   7.458   7.310  10.880 -0.4822  1.1971  0.4054
49963SOL    HW260204   7.576   7.301  10.786 -0.6575  2.9377 -0.0129
49964SOL     OW60205   9.062   1.550   4.580  0.5145  0.0019 -0.3478
49964SOL    HW160206   9.057   1.492   4.655 -0.2099 -1.0386 -1.1644
49964SOL    HW260207   9.135   1.609   4.599 -1.2242  1.4555  2.3084
49965SOL     OW60208   9.874  11.038   1.714 -0.2720  0.0770 -0.3480
49965SOL    HW160209   9.926  11.114   1.738  0.1023 -0.9340  2.3792
49965SOL    HW260210   9.787  11.056   1.751 -0.3857 -0.5072 -0.3213
49966SOL     OW60211   9.924  12.426   8.270 -0.1843 -0.2096 -0.1433
49966SOL    HW160212   9.990  12.483   8.232 -0.6374  0.1799 -0.3639
49966SOL    HW260213   9.925  12.347   8.215 -0.1887 -0.0360 -0.3907
49967SOL     OW60214   2.963   2.013   5.924 -0.0585  0.5435  0.1149
49967SOL    HW160215   2.928   2.028   5.835 -2.4916 -1.1986  0.6799
49967SOL    HW260216   3.044   1.964   5.910  1.2386  2.8635 -1.1885
49968SOL     OW60217   0.303  12.005   0.678  0.5466 -0.6854 -1.0728
49968SOL    HW160218   0.252  12.061   0.619  0.5012 -0.1071 -0.4949
49968SOL    HW260219   0.392  12.038   0.670  0.2493  0.6594  0.5806
49969SOL     OW60220   0.400  10.339   3.805 -0.3459  1.3132 -0.1834
49969SOL    HW160221   0.360  10.301   3.884 -0.5844  1.2382 -0.3413
49969SOL    HW260222   0.474  10.389   3.839  0.3201  0.2466 -0.0190
49970SOL     OW60223   7.255  11.155   6.889 -0.6759  0.4150 -0.0683
49970SOL    HW160224   7.272  11.155   6.795  0.9116 -2.4104  0.0952
49970SOL    HW260225   7.324  11.211   6.926  0.6968 -0.9621 -0.4241
49971SOL     OW60226  10.727   0.222   6.980 -0.5624 -0.1623 -0.2216
49971SOL    HW160227  10.809   0.172   6.988 -0.9778 -0.8937 -0.5126
49971SOL    HW260228  10.658   0.158   6.998 -1.0443  0.7292  1.3334
49972SOL     OW60229  11.743   9.487   6.626  0.3231  0.7290 -0.3190
49972SOL    HW160230  11.750   9.445   6.712 -0.8752  3.3957  1.2067
49972SOL    HW260231  11.670   9.441   6.584  1.0394 -0.7360 -0.0225
49973SOL     OW60232   5.640   5.343   8.453 -0.4761 -0.2873  0.0276
49973SOL    HW160233   5.605   5.417   8.503  1.1093  0.0759  0.6749
49973SOL    HW260234   5.584   5.269   8.477 -1.2825  0.4239  0.3921
49974SOL     OW60235   5.269  11.915   7.086 -0.2914  0.0189  0.3405
49974SOL    HW160236   5.265  11.870   7.171 -2.1357 -1.0186 -0.2484
49974SOL    HW260237   5.251  12.007   7.107 -1.8450 -0.3989  0.9788
49975SOL     OW60238   7.183   0.254   7.837 -1.0582 -0.0943  0.3717
49975SOL    HW160239   7.230   0.332   7.807 -1.7690  0.4794  0.7074
49975SOL    HW260240   7.111   0.245   7.774 -0.4073 -1.0793 -0.2565
49976SOL     OW60241   2.874   3.163   5.932 -0.0180 -0.2963 -0.1973
49976SOL    HW160242   2.952   3.133   5.886  0.7377 -0.2881  1.0307
49976SOL    HW260243   2.886   3.257   5.941  0.6431 -0.5093  1.4160
49977SOL     OW60244   2.538   9.391   1.022  1.0602 -0.0698 -0.0730
49977SOL    HW160245   2.576   9.372   1.108  1.1010  0.4236  0.0212
49977SOL    HW260246   2.503   9.307   0.992  0.2820 -0.0709  0.8037
49978SOL     OW60247  12.353   8.920   2.906 -0.2300 -0.5564 -0.0386
49978SOL    HW160248  12.350   8.824   2.906 -0.7081 -0.5449  0.2365
49978SOL    HW260249  12.447   8.941   2.904 -0.0921 -1.0368  0.9964
49979SOL     OW60250  12.750   7.187   6.313  0.6976 -0.0095 -0.3394
49979SOL    HW160251  12.792   7.274   6.313 -0.8646  0.7892 -1.8215
49979SOL    HW260252  12.685   7.192   6.383  2.1927 -0.8817  1.2168
49980SOL     OW60253   5.396   8.700   9.443  0.4022  0.1588 -0.0806
49980SOL    HW160254   5.448   8.734   9.517 -1.1820  0.0632  1.1395
49980SOL    HW260255   5.409   8.605   9.447 -0.9476 -0.0090  1.1401
49981SOL     OW60256   6.183   6.759   9.821  0.4739  0.4829  0.7712
49981SOL    HW160257   6.200   6.668   9.847  2.0682  1.0248  1.7991
49981SOL    HW260258   6.088   6.767   9.821  0.3220 -1.0225  1.2443
49982SOL     OW60259   8.849   8.880   2.204  0.3193 -0.2190  0.2405
49982SOL    HW160260   8.782   8.863   2.138  0.6049 -1.3195  0.2109
49982SOL    HW260261   8.802   8.873   2.287  0.3840 -1.0081  0.2208
49983SOL     OW60262   4.068  10.102   0.982 -0.1708 -1.0517  0.2244
49983SOL    HW160263   4.047  10.096   0.889  0.5546  0.1066 -0.0343
49983SOL    HW260264   3.985  10.081   1.026 -0.9801  0.0673 -0.6981
49984SOL     OW60265   1.947  11.767   2.119 -0.3015 -0.3703 -0.0086
49984SOL    HW160266   2.010  11.837   2.101  0.1482 -0.0870  2.3696
49984SOL    HW260267   1.894  11.761   2.039  1.1674  1.0528 -1.1421
49985SOL     OW60268   9.159   6.588   7.527  0.7194  0.3518 -0.1934
49985SOL    HW160269   9.226   6.526   7.499  0.0057 -0.7701  0.5318
49985SOL    HW260270   9.082   6.535   7.546 -0.3511  1.5976 -0.8557
49986SOL     OW60271   9.451   6.109   3.215  0.0395 -0.3758  0.1978
49986SOL    HW160272   9.434   6.179   3.151 -0.9549 -0.0328  0.8094
49986SOL    HW260273   9.546   6.095   3.211  0.1982  0.7292 -0.2300
49987SOL     OW60274   7.952   8.974   7.782  0.5936  0.0979 -0.6413
49987SOL    HW160275   8.033   8.987   7.732  0.5619  0.6707 -0.5575
49987SOL    HW260276   7.938   9.058   7.826  1.0278 -0.6270  0.9336
49988SOL     OW60277   1.015  12.295   7.006 -0.1657 -0.0290 -0.4074
49988SOL    HW160278   1.050  12.258   7.088 -1.2423 -1.7540 -0.6786
49988SOL    HW260279   1.093  12.311   6.952  0.3868 -1.9597 -0.2616
49989SOL     OW60280   6.090   8.983   1.073  0.0275 -0.4690 -0.3066
49989SOL    HW160281   6.018   8.991   1.136 -1.4810 -0.0257 -2.0093
49989SOL    HW260282   6.082   8.895   1.038  1.1249 -0.8628  0.3641
49990SOL     OW60283  11.611   4.928   7.475  0.0566 -0.0730 -0.1199
49990SOL    HW160284  11.617   4.895   7.565 -1.4909  5.0062  2.2804
49990SOL    HW260285  11.697   4.966   7.458  0.1308 -0.4161 -0.5076
49991SOL     OW60286   4.777   0.750  10.350  0.5048  0.4569  0.5029
49991SOL    HW160287   4.711   0.733  10.417  0.6835  0.6187  0.7206
49991SOL    HW260288   4.729   0.747  10.267  0.3044  0.1333  0.6268
49992SOL     OW60289   2.235   1.212  10.772  0.6155 -0.4224 -0.4600
49992SOL    HW160290   2.248   1.131  10.820 -0.0048 -0.4294 -0.2949
49992SOL    HW260291   2.140   1.226  10.772  0.7734  0.8002  0.3503
49993SOL     OW60292   0.572   5.870   3.902  0.1358  0.1662  0.0519
49993SOL    HW160293   0.539   5.958   3.883  2.1044  0.8137 -0.6014
49993SOL    HW260294   0.561   5.860   3.997 -2.4038  0.0894 -0.1923
49994SOL     OW60295   8.154  11.345   6.198 -0.1658  0.2683 -0.7394
49994SOL    HW160296   8.221  11.369   6.135 -0.1990 -0.8335 -1.2120
49994SOL    HW260297   8.202  11.328   6.279  0.0063  0.5357 -0.7846
49995SOL     OW60298  10.561   8.271   7.295 -0.6271 -0.6195  0.3399
49995SOL    HW160299  10.636   8.331   7.300 -0.7052 -0.4680 -0.2137
49995SOL    HW260300  10.598   8.190   7.260 -0.5948 -0.7678  0.7188
49996SOL     OW60301  12.390  12.253   7.296  0.0849 -0.2583  0.2756
49996SOL    HW160302  12.461  12.290   7.243  1.1609  0.3519  2.0545
49996SOL    HW260303  12.310  12.290   7.258  0.9720  1.9491  0.4411
49997SOL     OW60304   1.007   3.203   6.540  0.0789 -0.3397  0.2848
49997SOL    HW160305   1.047   3.290   6.546  0.9287 -0.7956  1.5021
49997SOL    HW260306   1.005   3.171   6.630 -1.3312 -1.1079  0.0070
49998SOL     OW60307   5.775   0.964   9.959  0.2124 -0.0583  0.0711
49998SOL    HW160308   5.789   0.907  10.035  1.0246  0.7679  0.5653
49998SOL    HW260309   5.708   0.919   9.907  1.0342 -1.5963  0.2960
49999SOL     OW60310   1.998   4.616   5.430  0.8768 -0.2318  0.1485
49999SOL    HW160311   2.071   4.678   5.428  1.9214 -1.3541  1.4134
49999SOL    HW260312   2.039   4.530   5.416 -0.3014 -0.8138  0.1655
50000SOL     OW60313   5.612   0.586   3.778 -0.3034 -0.0894  0.1547
50000SOL    HW160314   5.578   0.500   3.803  0.0506 -0.0467  0.7945
50000SOL    HW260315   5.620   0.633   3.860  1.1037 -0.0291  0.0023
50001SOL     OW60316   1.115   9.914  11.674  0.5344 -0.0569  0.0148
50001SOL    HW160317   1.182   9.848  11.658  0.6117 -0.4965  1.8751
50001SOL    HW260318   1.159   9.997  11.656  1.7842 -0.3139  1.6593
50002SOL     OW60319   6.742  11.643   6.428 -0.3313 -0.3246 -0.0393
50002SOL    HW160320   6.797  11.607   6.358  2.0822  2.1387  0.4109
50002SOL    HW260321   6.683  11.704   6.384  0.0957  0.0311 -0.1297
50003SOL     OW60322  11.493  10.710  11.207  0.1696 -0.5138 -0.1223
50003SOL    HW160323  11.512  10.666  11.124  1.2053 -0.1818 -0.0866
50003SOL    HW260324  11.542  10.792  11.201 -0.4613 -0.0901  0.4598
50004SOL     OW60325   1.531   0.675   6.301  0.1416  0.5270 -0.2465
50004SOL    HW160326   1.608   0.694   6.354  0.3893 -0.9251 -0.0627
50004SOL    HW260327   1.459   0.670   6.364  0.7454 -3.2578  0.3801
50005SOL     OW60328  12.964   5.295   4.480  0.3126  0.1908 -0.5337
50005SOL    HW160329  13.032   5.228   4.468  1.1220  1.0133 -0.6739
50005SOL    HW260330  12.938   5.287   4.571  1.6239  0.7879 -0.0854
50006SOL     OW60331  11.330   1.162   5.677  0.0311 -0.5129 -0.6490
50006SOL    HW160332  11.362   1.090   5.623  0.3762 -0.5402 -0.4093
50006SOL    HW260333  11.244   1.183   5.640 -0.4095 -1.5476 -0.2542
50007SOL     OW60334   3.142   3.910  12.657  0.2180 -0.1688 -0.6510
50007SOL    HW160335   3.047   3.897  12.664  0.3160 -1.7831 -1.6446
50007SOL    HW260336   3.158   3.994  12.698 -1.6252  0.0395 -0.2669
50008SOL     OW60337  11.190   0.247  12.417 -0.7772  0.6436 -0.4835
50008SOL    HW160338  11.126   0.196  12.467  0.1454 -0.2398 -0.1656
50008SOL    HW260339  11.196   0.201  12.333  0.8656 -0.4798  0.1981
50009SOL     OW60340   7.663   8.508   5.331 -0.1893  0.2153 -0.2343
50009SOL    HW160341   7.676   8.550   5.246 -0.3020 -0.9943 -0.8652
50009SOL    HW260342   7.579   8.543   5.362 -0.1356  0.6855 -0.5965
50010SOL     OW60343   5.002  10.278   9.005 -0.0193  0.2516  0.2988
50010SOL    HW160344   5.049  10.332   9.068 -0.3872 -0.4581  1.2197
50010SOL    HW260345   4.952  10.217   9.060  3.4324 -3.8158 -0.4967
50011SOL     OW60346   4.194  10.871   9.694  0.4244  0.0284 -0.3002
50011SOL    HW160347   4.171  10.840   9.606 -0.9315  1.0054 -0.3280
50011SOL    HW260348   4.175  10.965   9.692  0.1864  0.0302  1.0896
50012SOL     OW60349   8.012   6.378   7.827  0.0863  0.0717  0.2938
50012SOL    HW160350   8.071   6.363   7.901 -0.6618  1.8963  1.3237
50012SOL    HW260351   8.068   6.375   7.750  1.2080 -0.0250  1.0949
50013SOL     OW60352   0.204   7.791  10.741 -0.3776 -0.3335 -0.6454
50013SOL    HW160353   0.154   7.810  10.661 -0.2290  1.0468 -0.4278
50013SOL    HW260354   0.293   7.820  10.721 -0.4806  0.6220  0.2339
50014SOL     OW60355   2.985  11.851  10.327 -0.0377  0.0515 -0.0101
50014SOL    HW160356   2.984  11.755  10.333 -0.9972  0.0604  0.1240
50014SOL    HW260357   3.077  11.873  10.319  0.3301 -0.8111  1.3567
50015SOL     OW60358  10.423  10.451   3.253 -0.0364  0.4715 -0.6673
50015SOL    HW160359  10.381  10.517   3.309  0.1955  1.6939 -1.8663
50015SOL    HW260360  10.355  10.429   3.188  0.2188  0.2916 -0.8741
50016SOL     OW60361   3.650   6.876  11.072 -0.8208 -0.2543 -0.4247
50016SOL    HW160362   3.652   6.785  11.102  0.9874  0.0202  0.4667
50016SOL    HW260363   3.652   6.927  11.153  0.8886  0.5380 -0.9182
50017SOL     OW60364  12.435   8.306   9.968  0.2398 -0.5794  0.1332
50017SOL    HW160365  12.345   8.287   9.993 -0.1039 -0.7650 -1.1854
50017SOL    HW260366  12.487   8.286  10.047 -0.9523  0.4801  1.2286
50018SOL     OW60367   5.935   1.210   4.852 -0.2335  0.4078 -0.1158
50018SOL    HW160368   5.980   1.145   4.798 -0.9682 -0.5518  0.3882
50018SOL    HW260369   5.847   1.215   4.815 -0.7367 -0.2423  0.9498
50019SOL     OW60370   5.316   0.247   7.199  0.8114 -0.0453  0.4024
50019SOL    HW160371   5.281   0.159   7.188  0.2168  0.2791 -0.5604
50019SOL    HW260372   5.403   0.244   7.160 -0.0288  0.2732 -1.6953
50020SOL     OW60373   8.716  12.138   0.304 -0.0165 -0.1288  0.3131
50020SOL    HW160374   8.677  12.225   0.314 -1.1190 -0.4005 -1.2003
50020SOL    HW260375   8.752  12.138   0.215  0.2099 -1.1159  0.3955
50021SOL     OW60376   2.714  10.298  12.093 -0.1762  0.0981 -0.7745
50021SOL    HW160377   2.776  10.363  12.125  0.4012 -0.4919 -0.6831
50021SOL    HW260378   2.718  10.227  12.157  0.8635 -1.0263 -2.0331
50022SOL     OW60379   3.720   1.674   8.022 -0.7546  0.6029  0.2780
50022SOL    HW160380   3.700   1.768   8.020 -2.4084  0.2817 -1.7886
50022SOL    HW260381   3.642   1.635   8.061  0.0974  0.0779  1.5199
50023SOL     OW60382   1.771  11.429   8.337  0.0788 -0.1294 -0.1293
50023SOL    HW160383   1.701  11.495   8.336 -0.5484 -0.7250  1.5099
50023SOL    HW260384   1.851  11.479   8.326 -0.5107  0.7035 -0.7953
50024SOL     OW60385   5.025  12.617  11.015  0.2492 -0.1586  0.2554
50024SOL    HW160386   4.980  12.544  11.057 -1.4819  0.1320 -1.0318
50024SOL    HW260387   5.117  12.589  11.011 -0.0828 -1.5059  1.3264
50025SOL     OW60388   7.984   9.190  12.191 -0.3017  0.1214  0.2993
50025SOL    HW160389   7.949   9.109  12.227 -1.0386  0.9255  1.4761
50025SOL    HW260390   7.961   9.257  12.256 -0.8612  1.4997 -1.2644
50026SOL     OW60391   9.403   9.779   1.915 -0.1168  0.0404  0.1163
50026SOL    HW160392   9.386   9.691   1.881 -0.1546 -0.2444  0.8518
50026SOL    HW260393   9.327   9.831   1.887  0.4030  0.1003 -1.2101
50027SOL     OW60394   1.619   7.698   9.528 -0.6808 -0.2225 -0.0317
50027SOL    HW160395   1.691   7.745   9.571  0.1820 -1.0682 -0.5122
50027SOL    HW260396   1.591   7.756   9.458 -0.7121  0.2709  0.3843
50028SOL     OW60397   4.905  11.118  12.306  0.2157 -0.0773  0.6163
50028SOL    HW160398   4.975  11.081  12.254  1.1815 -1.2092  2.5987
50028SOL    HW260399   4.913  11.213  12.294  1.4869 -0.2417  0.0993
50029SOL     OW60400   6.898  12.345   7.098  0.2097 -0.0894  0.1145
50029SOL    HW160401   6.907  12.268   7.153  2.4194  1.1277  1.5996
50029SOL    HW260402   6.957  12.410   7.136 -1.2680  2.2526 -1.2622
50030SOL     OW60403   8.158   9.170   6.395 -0.2776 -0.1094 -0.1273
50030SOL    HW160404   8.066   9.145   6.389 -0.1510 -0.2786 -2.3596
50030SOL    HW260405   8.168   9.208   6.482 -1.9440 -2.0280  0.9706
50031SOL     OW60406   9.787  12.853  10.288  0.1288  0.1848  0.7552
50031SOL    HW160407   9.834  12.862  10.205  0.7776  1.5031  1.2530
50031SOL    HW260408   9.808  12.932  10.337 -1.6325  0.2373  1.4959
50032SOL     OW60409  12.779   0.771   5.622  0.0398  0.7389  0.4398
50032SOL    HW160410  12.771   0.677   5.605  1.1339  0.3936  1.7203
50032SOL    HW260411  12.707   0.810   5.571  0.9649 -0.5270 -2.0344
50033SOL     OW60412   1.606   9.417   4.850 -0.7975  0.0362 -0.3783
50033SOL    HW160413   1.574   9.327   4.840  1.7317 -0.8535 -1.2252
50033SOL    HW260414   1.633   9.443   4.762 -0.3830  1.1796  0.0742
50034SOL     OW60415   6.415   7.371   1.577  0.2079  0.1851 -0.1431
50034SOL    HW160416   6.478   7.300   1.569  1.6580  1.3858  0.1857
50034SOL    HW260417   6.408   7.386   1.671  0.7772  1.1886 -0.2480
50035SOL     OW60418   4.987   7.577  11.325 -0.4679 -0.1924 -0.1362
50035SOL    HW160419   4.921   7.579  11.256 -1.2470  1.2012  0.6141
50035SOL    HW260420   4.937   7.568  11.406  0.1357  2.0638  0.5465
50036SOL     OW60421   0.312   9.958   1.207 -0.7181 -0.7884  0.4706
50036SOL    HW160422   0.298   9.879   1.155 -1.5877  0.0677 -0.6699
50036SOL    HW260423   0.229  10.005   1.201 -0.0368  0.4813  0.6194
50037SOL     OW60424  11.300   7.663   8.881  0.7045  0.0659  0.1653
50037SOL    HW160425  11.284   7.626   8.967 -2.1325 -1.0574 -0.7495
50037SOL    HW260426  11.286   7.590   8.820  2.6592  0.8131 -1.3212
50038SOL     OW60427  12.557  11.213   7.525  0.4631  0.3824  0.3427
50038SOL    HW160428  12.642  11.233   7.564  0.7760  0.6120 -0.4453
50038SOL    HW260429  12.541  11.122   7.550  0.9494  0.3286  0.4821
50039SOL     OW60430   6.225   2.014   5.571 -0.4624 -0.2129  0.4165
50039SOL    HW160431   6.232   1.932   5.618  0.2658  0.1421  0.9506
50039SOL    HW260432   6.158   1.999   5.504 -2.3858 -0.3640  2.2859
50040SOL     OW60433   5.441  10.916   2.387  0.3120 -0.1034  0.4307
50040SOL    HW160434   5.523  10.947   2.349  0.1030  0.4307  0.4088
50040SOL    HW260435   5.466  10.882   2.473  0.8132 -1.4655 -0.2222
50041SOL     OW60436   2.407   5.717   1.935  0.4517  0.5541  1.0096
50041SOL    HW160437   2.352   5.795   1.928  2.0682  1.7551  0.9563
50041SOL    HW260438   2.476   5.742   1.997  0.1165 -1.4205  2.2625
50042SOL     OW60439   1.420   1.876   0.623  0.0123 -0.7872 -0.6385
50042SOL    HW160440   1.468   1.839   0.697  0.8407 -1.5688 -1.5421
50042SOL    HW260441   1.463   1.840   0.546  0.7554  1.9030 -1.5847
50043SOL     OW60442   7.706  12.980   0.805 -0.5516 -0.1395  0.4847
50043SOL    HW160443   7.703  12.943   0.717 -0.0030  1.2619 -0.1483
50043SOL    HW260444   7.617  12.966   0.840 -1.2961  0.7825 -0.9428
50044SOL     OW60445   2.196  11.851  11.748  0.2139  0.4425 -0.6338
50044SOL    HW160446   2.277  11.869  11.701  1.3613  0.6084  1.2768
50044SOL    HW260447   2.221  11.858  11.840 -1.8482 -0.1295  0.0074
50045SOL     OW60448   7.224  12.169   2.738  0.3779  0.3376  0.1525
50045SOL    HW160449   7.280  12.183   2.814 -0.6398  1.7651  0.6885
50045SOL    HW260450   7.142  12.213   2.761  0.7201  2.6783 -2.5670
50046SOL     OW60451   6.003   0.697   7.156 -0.3937 -0.6693 -0.1384
50046SOL    HW160452   6.011   0.704   7.061  0.2250  2.1402  0.0237
50046SOL    HW260453   6.093   0.703   7.188 -0.5275 -2.3169  0.6262
50047SOL     OW60454   2.934   1.434   0.218  0.3281 -0.0676 -0.0224
50047SOL    HW160455   2.994   1.447   0.292  1.0362  2.5676 -0.9601
50047SOL    HW260456   2.893   1.520   0.205 -1.5435 -1.0671 -1.2544
50048SOL     OW60457  12.270   7.166   6.340 -0.0344 -0.3524 -0.0929
50048SOL    HW160458  12.291   7.197   6.252 -3.0405 -0.6529 -1.0386
50048SOL    HW260459  12.196   7.220   6.367  0.5148 -0.6009  2.0881
50049SOL     OW60460   8.076  10.708  10.293  0.1168  0.0788  0.0704
50049SOL    HW160461   7.989  10.738  10.319  0.4316  1.2015 -0.1130
50049SOL    HW260462   8.064  10.615  10.272 -0.5233 -0.4323  2.4363
50050SOL     OW60463  10.823   8.988   0.739  0.6415 -0.5851  0.0321
50050SOL    HW160464  10.873   8.997   0.658  0.4762 -1.1961 -0.1452
50050SOL    HW260465  10.887   8.957   0.803  0.7098 -0.3793  0.0639
50051SOL     OW60466   4.513   7.923   2.924 -0.1537 -0.0197 -0.2789
50051SOL    HW160467   4.584   7.886   2.871 -0.3602  0.8058 -1.1618
50051SOL    HW260468   4.438   7.926   2.864  0.0898  2.6192 -0.5444
50052SOL     OW60469  12.790   3.176   0.125  0.3886  0.1013 -0.4925
50052SOL    HW160470  12.811   3.264   0.158 -1.9602  0.9132 -0.9812
50052SOL    HW260471  12.874   3.131   0.123  1.3317  1.5552  2.0117
50053SOL     OW60472   0.400  12.308   2.052 -0.2718 -0.0257  0.3407
50053SOL    HW160473   0.469  12.322   1.987  2.5044 -0.9081  2.8852
50053SOL    HW260474   0.369  12.219   2.035  2.2141 -1.2355  1.6148
50054SOL     OW60475   6.440  11.241   5.381 -0.2800 -0.3157 -0.1854
50054SOL    HW160476   6.390  11.184   5.439 -0.2784  0.4254  0.5505
50054SOL    HW260477   6.519  11.190   5.360 -0.2227 -0.5515  0.5586
50055SOL     OW60478   6.254   5.798   7.277 -0.0539 -0.2304  0.4798
50055SOL    HW160479   6.182   5.780   7.216 -1.1559 -1.0680  1.9760
50055SOL    HW260480   6.272   5.892   7.265 -0.3624 -0.3362 -0.9793
50056SOL     OW60481   8.149   2.171  11.358 -0.0810  0.8479  0.0078
50056SOL    HW160482   8.176   2.162  11.450 -0.1981 -0.4105 -0.0599
50056SOL    HW260483   8.074   2.112  11.350  0.5693  0.1453 -1.1513
50057SOL     OW60484  12.181   5.354   7.088 -0.5204 -0.2108 -0.1584
50057SOL    HW160485  12.096   5.398   7.099 -0.1716  0.5034 -0.2524
50057SOL    HW260486  12.161   5.275   7.039 -1.2321 -0.3903  0.3922
50058SOL     OW60487   6.826  10.896   5.160 -0.3809  0.1775  0.4982
50058SOL    HW160488   6.907  10.941   5.184 -0.1118  0.5082 -0.9221
50058SOL    HW260489   6.854  10.829   5.097 -1.1167 -0.2010  0.5595
50059SOL     OW60490   1.927   1.685   9.951  0.1260 -0.4230 -0.5604
50059SOL    HW160491   1.857   1.747   9.971 -0.2155 -1.5006  1.8864
50059SOL    HW260492   2.003   1.740   9.933  0.0927  0.8241  2.4616
50060SOL     OW60493   8.859   0.585  10.423  0.3223 -0.6894 -0.0359
50060SOL    HW160494   8.840   0.511  10.480  1.6008 -1.8182 -1.0161
50060SOL    HW260495   8.801   0.573  10.347  0.2937 -0.5081 -0.0430
50061SOL     OW60496   5.530   8.480   2.617 -0.1243  0.0985  0.6059
50061SOL    HW160497   5.517   8.518   2.704  0.4354  1.4514  0.1336
50061SOL    HW260498   5.592   8.408   2.631 -2.4322 -1.8008  1.7646
50062SOL     OW60499  11.524   4.934   2.342 -0.0531  0.5373  0.2475
50062SOL    HW160500  11.531   5.028   2.328 -0.5191  0.3266 -1.7763
50062SOL    HW260501  11.594   4.897   2.288 -1.6091 -0.3758 -1.2306
50063SOL     OW60502   0.400   0.172   2.181 -0.1020 -0.1676 -0.5718
50063SOL    HW160503   0.383   0.238   2.113 -1.2810 -1.9208 -2.0599
50063SOL    HW260504   0.342   0.196   2.253 -0.4199  0.4995 -1.0354
50064SOL     OW60505   1.686  10.865  12.509  0.2240 -0.4424  0.5674
50064SOL    HW160506   1.701  10.771  12.521 -1.0187 -0.9450 -1.3315
50064SOL    HW260507   1.591  10.874  12.511  0.3239  0.7390  0.4066
50065SOL     OW60508   9.597   0.337   3.531 -0.4006  0.0082  0.0864
50065SOL    HW160509   9.656   0.374   3.466  0.1696 -0.6416  0.2130
50065SOL    HW260510   9.646   0.264   3.569 -1.4975 -0.8969 -0.1787
50066SOL     OW60511   2.485   5.046   8.983  1.0679  0.5372  0.0349
50066SOL    HW160512   2.455   5.022   9.071  0.4947 -0.0029 -0.2981
50066SOL    HW260513   2.520   5.134   8.993 -0.1116  0.9709  0.5666
50067SOL     OW60514   4.788   8.490   2.980 -0.0858  0.1054 -0.1153
50067SOL    HW160515   4.844   8.536   3.043 -1.8085  0.4543  1.2233
50067SOL    HW260516   4.801   8.537   2.898  0.1855  1.3300  0.6042
50068SOL     OW60517  12.696  11.695  12.731  0.4326  0.8098 -0.3387
50068SOL    HW160518  12.604  11.713  12.753  0.4079 -0.1920  0.4497
50068SOL    HW260519  12.696  11.686  12.636 -0.3305  0.6100 -0.3283
50069SOL     OW60520   6.749  11.158   8.265 -0.2337  0.1720  0.1539
50069SOL    HW160521   6.692  11.131   8.194 -1.5600  1.8826  0.5130
50069SOL    HW260522   6.772  11.248   8.245 -0.3926  0.6011  1.7320
50070SOL     OW60523  10.218   5.143   1.813 -0.1017  0.3133  0.4332
50070SOL    HW160524  10.208   5.048   1.811  2.6924 -0.0808  0.7761
50070SOL    HW260525  10.275   5.162   1.738 -0.4738  1.7042  0.4758
50071SOL     OW60526  10.054   7.462   6.464  0.2716 -0.2187 -0.0124
50071SOL    HW160527  10.000   7.533   6.500  0.9835  1.4374 -1.9867
50071SOL    HW260528  10.138   7.504   6.444  0.2959 -1.2565 -2.4700
50072SOL     OW60529   9.060  11.595   9.210  0.0395  0.5647  0.6697
50072SOL    HW160530   8.975  11.550   9.213  0.0731  0.1718 -1.7670
50072SOL    HW260531   9.124  11.527   9.233 -0.2481  0.8894  2.6193
50073SOL     OW60532   9.965   5.544   6.125  0.4643  0.1991  0.1931
50073SOL    HW160533   9.934   5.499   6.046 -2.3071  2.9826 -0.4694
50073SOL    HW260534  10.023   5.613   6.093  0.6402  0.3175  0.7512
50074SOL     OW60535   4.797  11.256   6.715  0.2468  0.0018 -0.2325
50074SOL    HW160536   4.843  11.208   6.784  0.8536  0.1404 -0.5324
50074SOL    HW260537   4.723  11.200   6.692 -2.0866  1.4127  2.9024
50075SOL     OW60538   8.032   6.808   3.349 -0.4956  0.2763 -0.5741
50075SOL    HW160539   7.952   6.765   3.320 -0.1860 -0.0535 -0.9551
50075SOL    HW260540   8.051   6.768   3.434 -0.4314 -0.0506 -0.7404
50076SOL     OW60541   4.008  11.918   3.295 -0.2102 -0.3371 -0.0451
50076SOL    HW160542   3.993  11.959   3.380 -0.0764 -1.0533  0.3281
50076SOL    HW260543   3.956  11.970   3.234  1.8576  1.9449 -0.0143
50077SOL     OW60544  11.036   6.872   4.423  0.1235  0.1843 -0.3698
50077SOL    HW160545  10.972   6.931   4.385 -0.1813 -0.0876 -0.2823
50077SOL    HW260546  10.992   6.787   4.426  0.3502  0.0768  0.0366
50078SOL     OW60547   6.601   7.118   7.071 -0.3457 -0.7061  0.5960
50078SOL    HW160548   6.527   7.106   7.131 -0.3727  1.3205  1.0309
50078SOL    HW260549   6.568   7.088   6.986 -1.5506 -0.2050  0.8666
50079SOL     OW60550   7.220   3.273   4.688  0.3671  0.1819  1.0556
50079SOL    HW160551   7.182   3.317   4.764 -3.2327  0.6052 -0.7754
50079SOL    HW260552   7.233   3.342   4.624 -1.5022 -0.7497 -0.4241
50080SOL     OW60553  10.170  11.275  10.416 -0.0473 -0.1148 -0.2657
50080SOL    HW160554  10.091  11.259  10.468  0.6614 -0.0579  0.8571
50080SOL    HW260555  10.176  11.370  10.410  0.8528 -0.0516  1.1453
50081SOL     OW60556   6.766   8.216   1.740 -0.2163  0.3555  0.2213
50081SOL    HW160557   6.744   8.295   1.692 -0.4485  0.7924  1.0292
50081SOL    HW260558   6.754   8.145   1.676  2.0389  1.1168 -1.1345
50082SOL     OW60559   3.401   2.283  10.091 -0.0615 -0.1193 -0.1801
50082SOL    HW160560   3.311   2.309  10.072  0.1998 -0.1272 -1.5291
50082SOL    HW260561   3.410   2.195  10.053  0.8524  0.3662 -1.1516
50083SOL     OW60562   0.024   8.426  10.451 -0.2378 -0.2941  0.7575
50083SOL    HW160563  -0.068   8.440  10.472 -0.4600  0.8282 -0.7884
50083SOL    HW260564   0.071   8.463  10.527 -1.0422  1.3628  0.5051
50084SOL     OW60565   2.919   9.109   5.199  0.3466 -0.4213 -0.1535
50084SOL    HW160566   2.982   9.145   5.136  0.7854 -1.7157 -0.4823
50084SOL    HW260567   2.961   9.031   5.233 -0.6854 -0.7702  0.3606
50085SOL     OW60568   9.685   1.809   0.502  0.0757  0.4486 -0.1178
50085SOL    HW160569   9.669   1.717   0.480 -0.8721  0.3702  0.8316
50085SOL    HW260570   9.668   1.814   0.596  1.0267  1.4075  0.0139
50086SOL     OW60571  10.636   0.790   8.905 -0.4850  0.1412 -0.2552
50086SOL    HW160572  10.728   0.792   8.931  0.3557 -1.8757 -2.6512
50086SOL    HW260573  10.633   0.842   8.824 -0.8485 -1.8171 -1.5701
50087SOL     OW60574   0.118   1.012   3.274  0.2758  0.0389 -0.3386
50087SOL    HW160575   0.106   1.045   3.363 -0.0290  0.8882 -0.6825
50087SOL    HW260576   0.089   0.921   3.278  2.5050 -0.6776  0.9668
50088SOL     OW60577   3.929   7.839   8.229 -0.2195  0.3482 -0.1345
50088SOL    HW160578   3.957   7.753   8.263 -0.2700 -0.2394 -1.5183
50088SOL    HW260579   3.871   7.873   8.297 -0.4614 -0.8682  0.3092
50089SOL     OW60580   2.243  11.757   3.906 -0.2171 -0.5515  0.7947
50089SOL    HW160581   2.153  11.728   3.917 -0.1274 -0.4024  2.0681
50089SOL    HW260582   2.290  11.718   3.980  0.8823 -1.0963 -0.1708
50090SOL     OW60583   1.530   6.537  10.242 -0.4867 -0.0209 -0.7882
50090SOL    HW160584   1.544   6.545  10.336 -1.8999  0.2067 -0.5849
50090SOL    HW260585   1.568   6.452  10.220  0.6595  0.3129 -0.1924
50091SOL     OW60586   0.425  11.244   0.739 -0.5058  0.4158 -0.1815
50091SOL    HW160587   0.385  11.161   0.767  1.1367 -0.0593  0.9349
50091SOL    HW260588   0.483  11.220   0.667  0.3879  0.4835  0.5030
50092SOL     OW60589   5.058   9.134  11.070  0.1526 -0.4830 -0.2651
50092SOL    HW160590   5.141   9.175  11.045  0.1240  0.5969  1.2358
50092SOL    HW260591   4.995   9.206  11.068 -0.0133 -0.5015  1.9065
50093SOL     OW60592  10.207   9.442   3.048  0.0848  0.5949 -0.5293
50093SOL    HW160593  10.142   9.502   3.012 -0.7881  0.2457  0.4292
50093SOL    HW260594  10.289   9.491   3.046  0.3343  0.3010 -3.8151
50094SOL     OW60595   4.367   0.047   6.367  0.5829 -0.6483  0.3122
50094SOL    HW160596   4.308   0.026   6.295  0.0813 -0.1944  0.5790
50094SOL    HW260597   4.441   0.092   6.326 -0.6133  1.3832  0.2712
50095SOL     OW60598  11.368   4.569   1.584  0.0066  0.0529  0.1645
50095SOL    HW160599  11.456   4.603   1.570  0.2480  0.2967  2.0721
50095SOL    HW260600  11.310   4.641   1.558  0.2494 -0.5256 -2.2899
50096SOL     OW60601   3.979  10.887   3.939  0.0518 -0.9841 -0.1590
50096SOL    HW160602   3.912  10.888   4.006 -0.4196  0.3928 -0.6167
50096SOL    HW260603   4.031  10.966   3.955 -0.6849 -0.0654 -1.9788
50097SOL     OW60604   4.649   5.668   0.617  0.3085  1.2955 -0.2496
50097SOL    HW160605   4.602   5.741   0.577  1.3252  2.6694  0.9498
50097SOL    HW260606   4.732   5.706   0.646 -0.5374  0.6446  3.6598
50098SOL     OW60607   8.802   3.834   6.367 -0.2505 -0.1252  0.1839
50098SOL    HW160608   8.825   3.813   6.277 -0.7710 -2.4493  0.5339
50098SOL    HW260609   8.887   3.843   6.412  0.0031  0.7801 -0.4547
50099SOL     OW60610   9.788   4.991   7.574 -0.3653  0.3298  0.7163
50099SOL    HW160611   9.882   4.986   7.590 -0.0034 -0.8561 -1.3936
50099SOL    HW260612   9.751   5.018   7.658  1.8858  1.4145  1.4538
50100SOL     OW60613   5.676   2.723   6.915  0.0963  0.0593 -0.0703
50100SOL    HW160614   5.656   2.770   6.997  0.9703  0.2992  0.0144
50100SOL    HW260615   5.607   2.658   6.907 -0.7603  0.9149  0.1697
50101SOL     OW60616   7.361   8.900  11.450 -0.5984  0.3848 -0.6216
50101SOL    HW160617   7.342   8.993  11.446 -0.5364  0.4376  0.2209
50101SOL    HW260618   7.372   8.874  11.359 -0.1078  1.3009 -0.8331
50102SOL     OW60619   3.263   3.152   8.620 -0.2922  0.0623  0.2413
50102SOL    HW160620   3.294   3.239   8.644 -0.9087  0.4570 -0.3693
50102SOL    HW260621   3.335   3.114   8.571 -0.9028  1.1493 -1.5816
50103SOL     OW60622  10.737   1.739   2.660  0.9705  0.1810 -0.4283
50103SOL    HW160623  10.787   1.801   2.608  0.9683 -0.2218 -0.9186
50103SOL    HW260624  10.658   1.786   2.685  1.2096  0.5456 -0.3541
50104SOL     OW60625   6.439   2.790   4.460  0.4879 -0.1383  1.2217
50104SOL    HW160626   6.391   2.792   4.377 -2.9434 -0.3357  3.0352
50104SOL    HW260627   6.478   2.702   4.462  1.9912  0.3873 -0.7548
50105SOL     OW60628   4.946   1.857   7.736 -0.6974  0.0270  0.3157
50105SOL    HW160629   4.953   1.824   7.646  0.0826 -0.6290  0.6004
50105SOL    HW260630   4.901   1.787   7.783 -0.2348 -0.0554  0.6404
50106SOL     OW60631  12.200   5.891   5.808  0.6685  0.1433  0.1139
50106SOL    HW160632  12.231   5.975   5.841  1.3455 -0.5472  1.3298
50106SOL    HW260633  12.267   5.865   5.744  0.5904  0.4123 -0.0784
50107SOL     OW60634  12.551   5.107   9.187 -0.3104  0.4520 -0.1378
50107SOL    HW160635  12.610   5.180   9.202  1.4001 -0.6158 -1.3141
50107SOL    HW260636  12.526   5.113   9.095 -1.3263  0.3531  0.1111
50108SOL     OW60637  10.441  11.396  12.907  0.0442  0.1052  0.1767
50108SOL    HW160638  10.473  11.336  12.975 -1.1797 -0.7145  0.0648
50108SOL    HW260639  10.383  11.456  12.952 -0.8225 -0.4806 -0.1327
50109SOL     OW60640   4.177  10.116   6.895  0.3137 -0.5464 -0.1019
50109SOL    HW160641   4.200  10.023   6.897  0.2367 -0.5601  0.1467
50109SOL    HW260642   4.084  10.118   6.874  0.2264 -0.5413  0.2740
50110SOL     OW60643  11.167   6.089   5.181  0.2559 -0.3350 -0.1183
50110SOL    HW160644  11.144   6.018   5.121  0.1403 -0.3493 -0.0571
50110SOL    HW260645  11.162   6.051   5.268 -2.1479  0.3236  0.1122
50111SOL     OW60646   1.482  11.148  12.751  0.4225  0.3297 -0.2720
50111SOL    HW160647   1.462  11.153  12.844 -2.3417 -1.0813 -0.6575
50111SOL    HW260648   1.505  11.056  12.736 -2.3522 -0.2981 -1.3794
50112SOL     OW60649  11.631   3.746   7.176  0.2356 -0.0306 -0.1625
50112SOL    HW160650  11.685   3.723   7.252  1.0728  1.0386 -0.4124
50112SOL    HW260651  11.609   3.661   7.137  0.7284 -0.5452  0.6386
50113SOL     OW60652   3.132   1.190  10.756  0.0475  0.6754  0.6376
50113SOL    HW160653   3.108   1.280  10.778 -1.5667  0.4129  0.0965
50113SOL    HW260654   3.176   1.156  10.834  0.2350  1.7752  1.0161
50114SOL     OW60655   4.901   5.928   7.616  0.0701 -0.3183 -0.3603
50114SOL    HW160656   4.899   6.005   7.560 -0.3287  0.3376  0.5279
50114SOL    HW260657   4.822   5.878   7.591 -0.8258  0.6274  0.4899
50115SOL     OW60658   5.325   3.355   2.849 -0.1086  0.3074  0.0616
50115SOL    HW160659   5.262   3.288   2.823  0.9015 -1.3540  1.6112
50115SOL    HW260660   5.383   3.310   2.910  0.9051  2.5136  0.8206
50116SOL     OW60661   2.492   3.235   7.820 -0.3823  0.4666  0.0809
50116SOL    HW160662   2.519   3.248   7.911 -0.4518 -0.1836  0.1985
50116SOL    HW260663   2.563   3.274   7.769 -1.0492  2.2046  0.4016
50117SOL     OW60664   4.770   2.668   3.845 -0.3192 -0.4207 -0.3274
50117SOL    HW160665   4.733   2.611   3.913  0.6340  0.1795  0.7128
50117SOL    HW260666   4.717   2.748   3.850 -0.0257 -0.2440 -0.0564
50118SOL     OW60667   1.230   8.847   1.481  0.2839 -0.3700  0.4087
50118SOL    HW160668   1.189   8.791   1.546 -1.1061  1.8922  1.5935
50118SOL    HW260669   1.240   8.791   1.404 -0.2669 -2.4250  1.7514
50119SOL     OW60670  10.210   1.442   0.773  0.6551  0.4407 -0.2818
50119SOL    HW160671  10.137   1.480   0.725 -0.0680 -0.8635 -0.2781
50119SOL    HW260672  10.243   1.373   0.715 -0.9877 -1.9808  1.4361
50120SOL     OW60673   1.675   1.408   8.925 -0.4325 -0.2160  0.1747
50120SOL    HW160674   1.766   1.382   8.911 -0.3837  0.1671 -0.2454
50120SOL    HW260675   1.654   1.378   9.013  0.4982  0.7911  0.7550
50121SOL     OW60676   2.938   4.074   7.593 -0.0857  0.4386 -0.3499
50121SOL    HW160677   2.981   4.158   7.575 -0.4871  0.6630 -0.2664
50121SOL    HW260678   3.005   4.023   7.639 -0.4909  1.4559  1.4789
50122SOL     OW60679   5.587  10.559  10.773 -0.1234 -0.7643  0.4945
50122SOL    HW160680   5.546  10.565  10.687 -1.6713 -2.5474  1.0188
50122SOL    HW260681   5.522  10.594  10.834  0.7272 -0.0275  1.0017
50123SOL     OW60682   9.855   1.179  12.280 -0.1157  0.0856 -0.0646
50123SOL    HW160683   9.796   1.208  12.210  1.3011  2.3304 -0.4650
50123SOL    HW260684   9.803   1.119  12.333 -1.6477 -0.6953 -2.3042
50124SOL     OW60685  10.409   7.677   9.486  0.4889 -0.2242  0.2293
50124SOL    HW160686  10.388   7.585   9.470 -0.9167  0.2702 -0.9801
50124SOL    HW260687  10.370   7.696   9.571 -2.4956  0.1461 -1.1108
50125SOL     OW60688   4.353   2.354   6.734  0.1500  0.0469 -0.6287
50125SOL    HW160689   4.392   2.350   6.647  3.1849 -0.9729  0.6672
50125SOL    HW260690   4.281   2.292   6.730  1.3694 -1.3573 -1.9154
50126SOL     OW60691  12.914   2.694  12.393 -0.1267  0.4010  0.1627
50126SOL    HW160692  12.829   2.652  12.406 -1.0386  2.5694  1.8554
50126SOL    HW260693  12.930   2.687  12.299 -1.0290 -2.0799  0.1233
50127SOL     OW60694   5.027   1.742   7.462  0.4986  0.0764 -0.1852
50127SOL    HW160695   4.963   1.794   7.412 -0.0206  0.0398  0.4275
50127SOL    HW260696   5.112   1.767   7.426  0.2886  1.6443  0.3268
50128SOL     OW60697  11.055   6.214   6.264  0.5674  0.3350 -0.0594
50128SOL    HW160698  11.058   6.285   6.328 -0.6511  0.3337  0.0236
50128SOL    HW260699  11.037   6.258   6.180 -1.2340  0.0824  0.1484
50129SOL     OW60700   0.260   6.806   8.022  0.2511  0.1097 -0.1552
50129SOL    HW160701   0.309   6.781   7.943  1.1896  1.3775  0.0024
50129SOL    HW260702   0.219   6.889   8.000  0.0321  0.1805  0.4996
50130SOL     OW60703   3.037  12.381  11.214 -0.5031 -0.5749  0.1966
50130SOL    HW160704   3.116  12.333  11.191 -0.6505 -0.9036  0.3663
50130SOL    HW260705   3.066  12.447  11.277 -0.1613  0.0926 -0.6368
50131SOL     OW60706   0.433   9.046   1.601 -0.3503  0.0665 -0.1474
50131SOL    HW160707   0.411   8.977   1.538  1.5489 -1.4913  0.7768
50131SOL    HW260708   0.467   8.999   1.677  3.2819  1.9750 -0.3459
50132SOL     OW60709   3.594   3.778   7.699 -0.2771 -0.0519  0.1174
50132SOL    HW160710   3.560   3.691   7.719 -0.5691 -0.1257 -0.6590
50132SOL    HW260711   3.516   3.829   7.675 -0.0688  0.3357  0.2510
50133SOL     OW60712  10.719   6.013   1.575 -0.4648 -0.3089 -0.3958
50133SOL    HW160713  10.629   5.980   1.577 -1.8859  3.1409  2.3963
50133SOL    HW260714  10.711   6.104   1.547  2.0550  0.3817  0.8339
50134SOL     OW60715  11.598   6.350   7.650  0.2338  0.1710 -0.2091
50134SOL    HW160716  11.571   6.391   7.568  0.6217  0.9157  0.0214
50134SOL    HW260717  11.617   6.259   7.626 -0.0470  0.2766 -0.8591
50135SOL     OW60718   8.210   8.915   9.700 -0.2692  0.2192 -0.2799
50135SOL    HW160719   8.241   8.961   9.779  0.6603 -0.0410 -0.4807
50135SOL    HW260720   8.289   8.878   9.662 -0.9748 -1.4408 -0.2035
50136SOL     OW60721   8.856   7.717  10.822 -0.5533  0.0454  0.1151
50136SOL    HW160722   8.840   7.737  10.729  1.8679  2.6151  0.1050
50136SOL    HW260723   8.778   7.751  10.867  0.3059  3.4430 -0.6571
50137SOL     OW60724   8.378   0.895   3.380 -0.5495 -0.4390  0.5317
50137SOL    HW160725   8.283   0.880   3.378 -0.5454 -0.4141 -0.3888
50137SOL    HW260726   8.400   0.920   3.290 -0.1425  2.5784  1.3617
50138SOL     OW60727   5.854   7.093   9.238  0.0729  0.1670  0.5295
50138SOL    HW160728   5.805   7.173   9.258 -0.7234 -0.1548 -0.0842
50138SOL    HW260729   5.787   7.024   9.233  0.2240  0.1126 -2.6397
50139SOL     OW60730   0.726  12.159   4.008 -0.2769  0.3345 -0.2230
50139SOL    HW160731   0.791  12.198   4.067  0.0318 -2.1523  1.2373
50139SOL    HW260732   0.778  12.106   3.947 -0.7596  0.9640 -1.2072
50140SOL     OW60733   0.463  11.364   8.388 -0.2420  0.1830 -0.8121
50140SOL    HW160734   0.510  11.447   8.388  0.0404  0.0584  1.1211
50140SOL    HW260735   0.371  11.388   8.380 -0.4312  0.9487  2.3312
50141SOL     OW60736   5.013   1.190   6.719  0.0177  0.6422 -0.1436
50141SOL    HW160737   5.054   1.104   6.714 -2.8460 -0.8481 -0.3196
50141SOL    HW260738   4.995   1.203   6.812  0.3009  0.9969 -0.1356
50142SOL     OW60739   1.169   4.978   8.651 -0.2791  0.3337 -0.3945
50142SOL    HW160740   1.225   5.052   8.676 -0.3707  0.7231 -1.2953
50142SOL    HW260741   1.220   4.901   8.675 -0.8517  0.6239  2.1093
50143SOL     OW60742  11.769   8.144   9.005 -0.2181  0.3121 -0.2221
50143SOL    HW160743  11.859   8.129   9.037 -0.6670  1.6173  1.8347
50143SOL    HW260744  11.740   8.057   8.976  0.9673 -0.5821  1.0946
50144SOL     OW60745   0.076  12.984  11.770  0.1963  0.0372  0.0635
50144SOL    HW160746   0.079  12.971  11.675  1.5693 -1.8722  0.3073
50144SOL    HW260747   0.164  13.014  11.793  0.3304 -0.9410  0.8851
50145SOL     OW60748   9.637  10.494  11.119  0.2316  0.1563 -0.3257
50145SOL    HW160749   9.561  10.512  11.175  1.3850  2.6513  0.6179
50145SOL    HW260750   9.614  10.415  11.072 -2.6545  0.4127  0.4446
50146SOL     OW60751  11.234   2.982   7.361  0.1714 -0.2683  0.4240
50146SOL    HW160752  11.299   3.050   7.374  1.2394 -1.2772  0.5528
50146SOL    HW260753  11.283   2.908   7.325 -0.4192 -1.8516  2.6441
50147SOL     OW60754   2.393   7.769   7.529  0.3320 -0.7263 -0.0274
50147SOL    HW160755   2.376   7.737   7.441  0.8005  0.2240 -0.4729
50147SOL    HW260756   2.440   7.851   7.517 -0.2310 -0.2115  1.0919
50148SOL     OW60757   5.135   5.829   4.555 -0.6622  0.3957  0.2027
50148SOL    HW160758   5.108   5.881   4.479 -0.9686  0.1973  0.1712
50148SOL    HW260759   5.151   5.893   4.624  1.1412  0.7124 -0.4599
50149SOL     OW60760   0.261  11.626   6.156 -0.3389 -0.4798  0.3073
50149SOL    HW160761   0.187  11.641   6.098  0.4501 -0.1599 -0.6517
50149SOL    HW260762   0.234  11.664   6.240 -1.5572 -1.0891  0.2071
50150SOL     OW60763  12.410   4.959  12.093 -0.5406 -0.1207  0.7436
50150SOL    HW160764  12.480   4.983  12.032 -2.1513  0.7544 -0.8694
50150SOL    HW260765  12.450   4.896  12.153  1.2622 -0.5998 -0.8802
50151SOL     OW60766   3.369   5.723   5.432  0.0589 -0.0158 -0.2163
50151SOL    HW160767   3.453   5.707   5.475 -0.5594 -0.1777  0.9951
50151SOL    HW260768   3.390   5.729   5.339  1.5497  0.9491  0.1449
50152SOL     OW60769   4.537  12.067  11.153 -0.6884  0.0613  0.0732
50152SOL    HW160770   4.460  12.017  11.179 -2.0277  1.0660 -1.7814
50152SOL    HW260771   4.576  12.016  11.082 -0.7132  0.4814 -0.2422
50153SOL     OW60772   3.959   3.770   5.686 -0.4096 -0.5588 -0.3832
50153SOL    HW160773   4.045   3.794   5.651  0.6956 -1.1333  1.7094
50153SOL    HW260774   3.976   3.692   5.739 -2.3838 -1.1345 -0.5139
50154SOL     OW60775   9.536   1.067   8.182  0.7110  0.1732  0.4500
50154SOL    HW160776   9.620   1.096   8.146  1.6838 -1.3936  1.3381
50154SOL    HW260777   9.486   1.037   8.106  0.3137  2.4363 -0.2777
50155SOL     OW60778   0.930  12.775   7.616  0.1982  0.4368 -0.0742
50155SOL    HW160779   0.874  12.790   7.691 -0.4895 -1.1081 -0.2337
50155SOL    HW260780   0.870  12.775   7.541  0.3115 -1.4107 -0.2256
50156SOL     OW60781   3.958   5.314  10.248  0.5157 -0.1582  0.2057
50156SOL    HW160782   4.051   5.301  10.227  0.9831  0.7222  1.6205
50156SOL    HW260783   3.958   5.340  10.340 -1.2058 -0.8577  0.4230
50157SOL     OW60784   1.582   7.034  10.763 -0.0311 -0.1434 -0.1057
50157SOL    HW160785   1.561   6.975  10.836  2.1500  0.8328  1.4047
50157SOL    HW260786   1.545   7.118  10.788 -0.6451 -0.1589 -0.9124
50158SOL     OW60787   5.465   9.157   2.611  0.1094 -0.1862  0.1876
50158SOL    HW160788   5.393   9.095   2.616  1.0541 -1.2102  2.0343
50158SOL    HW260789   5.529   9.114   2.554 -0.0571  0.0136 -0.1567
50159SOL     OW60790   9.715   5.180   7.770 -0.5626 -0.1765 -0.1192
50159SOL    HW160791   9.694   5.175   7.863  0.7539  2.0213  0.3800
50159SOL    HW260792   9.631   5.172   7.725 -1.3254 -0.4146  1.2938
50160SOL     OW60793   8.866   5.819   8.168  0.0116  0.3080 -0.2010
50160SOL    HW160794   8.920   5.896   8.184 -0.3239  0.9265 -1.8309
50160SOL    HW260795   8.796   5.825   8.233 -1.0001  2.3806 -1.3654
50161SOL     OW60796   7.155   2.726   6.865  0.4113 -0.8883  0.0836
50161SOL    HW160797   7.066   2.761   6.853  0.7387  0.1999  0.7110
50161SOL    HW260798   7.158   2.699   6.957  0.4058 -1.9233 -0.2060
50162SOL     OW60799   1.753   4.433   9.290  0.2744  0.2541 -0.0454
50162SOL    HW160800   1.691   4.367   9.322  0.4211 -0.7277 -1.6548
50162SOL    HW260801   1.836   4.408   9.328 -0.2930  1.7638  2.3883
50163SOL     OW60802   1.959   9.078  11.083  0.5835 -0.1101 -0.3117
50163SOL    HW160803   1.978   9.110  11.172 -0.4211 -0.3130 -0.0145
50163SOL    HW260804   1.868   9.102  11.068 -0.6749 -3.8032  0.4073
50164SOL     OW60805   5.484   1.282   3.837 -0.1206 -0.2354 -0.1893
50164SOL    HW160806   5.470   1.279   3.743  0.4112  3.9234 -0.5695
50164SOL    HW260807   5.410   1.331   3.871  1.1659  0.9200  1.1045
50165SOL     OW60808   7.243  10.354   0.667 -0.4952  1.1531 -0.1726
50165SOL    HW160809   7.319  10.388   0.621 -1.2359 -0.1051 -2.5143
50165SOL    HW260810   7.273  10.272   0.706 -0.6286  0.5953 -1.1997
50166SOL     OW60811  11.352   9.487  12.858  0.1441  0.2002  0.0785
50166SOL    HW160812  11.267   9.511  12.823 -0.7619 -0.6525  1.6054
50166SOL    HW260813  11.333   9.437  12.937  2.0540 -0.4933  0.1639
50167SOL     OW60814   9.390   4.996   1.592 -0.4106 -0.1780 -0.0088
50167SOL    HW160815   9.364   5.087   1.576 -0.2136  0.2636  1.9208
50167SOL    HW260816   9.310   4.946   1.577 -0.5209  0.3097 -1.1083
50168SOL     OW60817   9.019  11.304   5.644 -0.5627  0.1558  0.5916
50168SOL    HW160818   9.014  11.323   5.551  1.6320  0.8591  0.5422
50168SOL    HW260819   9.067  11.221   5.649  2.3641  1.7250  1.0600
50169SOL     OW60820  11.705   3.928   8.396  0.4706  0.1391  0.1067
50169SOL    HW160821  11.748   4.013   8.391  0.1101  0.2843 -1.0721
50169SOL    HW260822  11.612   3.948   8.380  0.7094 -0.6996 -3.0008
50170SOL     OW60823   6.869   6.488   5.145 -0.1279  0.5733  0.0992
50170SOL    HW160824   6.866   6.395   5.125 -1.2094  0.4200  0.9349
50170SOL    HW260825   6.881   6.492   5.240 -0.2318  1.2891  0.0877
50171SOL     OW60826  12.315   2.287   4.956 -0.0213 -0.3915 -0.0647
50171SOL    HW160827  12.390   2.253   4.908  0.7456  2.7906 -1.3912
50171SOL    HW260828  12.351   2.357   5.011 -1.6591 -0.5453  1.3005
50172SOL     OW60829   4.616  11.507   0.334 -0.3861 -0.9046  0.2617
50172SOL    HW160830   4.582  11.570   0.271  1.3836  0.4593  0.5666
50172SOL    HW260831   4.583  11.536   0.419  0.2803 -0.4492  0.3795
50173SOL     OW60832  10.408   7.178  12.801  0.5438  0.0339  0.3116
50173SOL    HW160833  10.458   7.259  12.792  0.2880  0.0402 -1.3973
50173SOL    HW260834  10.456   7.127  12.866  1.0390  1.2838  0.9741
50174SOL     OW60835   2.845   7.122   1.668 -0.5738 -0.4071  0.3313
50174SOL    HW160836   2.812   7.088   1.751 -1.1320  0.1422  0.3368
50174SOL    HW260837   2.771   7.171   1.631  0.9696  3.2559  1.6309
50175SOL     OW60838  10.637  11.473   0.203  0.5322  0.3472 -0.1599
50175SOL    HW160839  10.727  11.496   0.227  0.1614  0.5790  1.0623
50175SOL    HW260840  10.641  11.381   0.179  0.8179 -0.0964  1.4959
50176SOL     OW60841   6.486   7.188   1.020  0.5210  0.2836  0.0660
50176SOL    HW160842   6.499   7.094   1.008 -0.7193  0.3194 -1.8410
50176SOL    HW260843   6.452   7.196   1.109  0.9266 -1.0224  0.3659
50177SOL     OW60844   7.709   1.143   0.607  0.0550  0.4193 -0.0121
50177SOL    HW160845   7.662   1.084   0.547  1.1336  0.4667 -0.9369
50177SOL    HW260846   7.661   1.226   0.601  0.0696  0.3828 -0.7211
50178SOL     OW60847  12.045   8.322   8.616  0.5556 -0.0781  0.0210
50178SOL    HW160848  12.095   8.299   8.694 -2.4990 -0.9291  1.8528
50178SOL    HW260849  12.015   8.239   8.581  0.6238  0.3999 -1.2307
50179SOL     OW60850   8.743  11.163   6.663 -0.1996  0.3710  0.2424
50179SOL    HW160851   8.695  11.084   6.638  1.6527 -1.1272  1.1852
50179SOL    HW260852   8.783  11.194   6.582 -3.2418  2.1161 -0.7365
50180SOL     OW60853   2.519  10.255   3.757  0.4729  0.2968 -0.0783
50180SOL    HW160854   2.452  10.229   3.693 -0.7915  1.7893  0.5995
50180SOL    HW260855   2.524  10.350   3.750  1.0526  0.3966  1.3479
50181SOL     OW60856   4.467   4.445   7.349  0.8841 -0.0429 -0.1139
50181SOL    HW160857   4.487   4.373   7.289  0.7751 -0.0971 -0.0854
50181SOL    HW260858   4.387   4.418   7.393 -0.0679  0.8114 -1.2574
50182SOL     OW60859   4.156   6.590  11.891  0.7973 -0.0283  0.0523
50182SOL    HW160860   4.159   6.513  11.834  0.5181  1.4961 -2.1399
50182SOL    HW260861   4.146   6.664  11.831 -3.5936  1.4861  2.2150
50183SOL     OW60862   8.537   4.464   6.420 -0.4372 -0.1271  0.0713
50183SOL    HW160863   8.470   4.526   6.390 -0.0692  0.5200  0.5455
50183SOL    HW260864   8.582   4.436   6.341 -1.4786 -0.8340 -0.2948
50184SOL     OW60865   1.121   1.361  12.937 -0.1686 -0.3758  0.3271
50184SOL    HW160866   1.172   1.385  13.014  0.9205 -2.0679  0.1708
50184SOL    HW260867   1.140   1.429  12.873  4.1577 -2.2406 -0.6927
50185SOL     OW60868   7.145   2.554   2.897  0.8272  0.9017 -0.3416
50185SOL    HW160869   7.238   2.572   2.884  1.0324 -0.8075 -1.7094
50185SOL    HW260870   7.107   2.561   2.809  0.0169 -0.1408 -0.0920
50186SOL     OW60871   2.491   1.268  10.886 -0.1991 -0.1651 -0.3406
50186SOL    HW160872   2.553   1.233  10.822  0.2531 -0.3146  0.1788
50186SOL    HW260873   2.406   1.262  10.842  0.2025  0.4764 -1.2363
50187SOL     OW60874   2.678   2.247   9.765  0.3190  0.1508  0.2852
50187SOL    HW160875   2.759   2.240   9.815  0.3002  1.5909  0.5679
50187SOL    HW260876   2.706   2.239   9.673  0.7074  0.0897  0.4081
50188SOL     OW60877   6.487   2.895   8.403 -0.5204  0.4231 -0.5869
50188SOL    HW160878   6.510   2.803   8.416  0.0347  0.4985 -0.9954
50188SOL    HW260879   6.572   2.940   8.394 -0.7460  1.1221  0.5486
50189SOL     OW60880   3.389   7.105   6.429  0.0509  0.0154 -0.0156
50189SOL    HW160881   3.457   7.083   6.492 -0.3561  0.0045  0.4205
50189SOL    HW260882   3.381   7.200   6.434 -0.5391 -0.0584  0.5319
50190SOL     OW60883   0.120   8.753   8.280 -0.2642  0.2708  0.4658
50190SOL    HW160884   0.049   8.724   8.223  0.6825  2.1046 -1.8056
50190SOL    HW260885   0.158   8.672   8.314 -1.5208 -0.8538 -0.6908
50191SOL     OW60886   2.789   5.480   6.695 -0.6000 -0.3725  0.5567
50191SOL    HW160887   2.841   5.483   6.614  0.5784 -0.7596  1.2815
50191SOL    HW260888   2.715   5.539   6.677 -0.3952 -0.4833 -0.8192
50192SOL     OW60889   6.644   6.399   2.885 -0.2151  0.1466  0.0240
50192SOL    HW160890   6.585   6.462   2.846  0.4707 -0.0361 -1.3616
50192SOL    HW260891   6.731   6.436   2.873  0.1068 -0.4948  0.2925
50193SOL     OW60892   6.108  10.732   4.845  0.2981  0.2858 -0.6070
50193SOL    HW160893   6.030  10.676   4.848  0.7686 -0.3779 -0.4150
50193SOL    HW260894   6.082  10.812   4.889  0.0827 -0.4097  0.5656
50194SOL     OW60895  11.267   0.592   7.591 -0.2172 -0.4526 -0.4792
50194SOL    HW160896  11.279   0.686   7.603  0.9203 -0.5198 -1.0006
50194SOL    HW260897  11.256   0.581   7.497  3.0245 -1.1579 -0.8694
50195SOL     OW60898  12.222   7.329   4.546  0.1596 -0.0178  0.1804
50195SOL    HW160899  12.255   7.354   4.460  2.4707  1.4819  1.3953
50195SOL    HW260900  12.202   7.235   4.538 -0.5474  0.2708 -2.1825
50196SOL     OW60901   5.053   7.116  11.409  0.2691  0.1475 -0.6671
50196SOL    HW160902   5.145   7.112  11.385  0.1423  0.1511 -1.1667
50196SOL    HW260903   5.015   7.038  11.369  0.2046 -0.2655  0.1948
50197SOL     OW60904   3.392   6.043   7.390 -0.1186  0.4764  0.9858
50197SOL    HW160905   3.462   5.980   7.372  0.0357  0.7599  0.5737
50197SOL    HW260906   3.315   5.989   7.407  0.0085  0.1759  0.6196
50198SOL     OW60907   2.533   9.862   7.812 -0.2328 -0.2371  0.1494
50198SOL    HW160908   2.527   9.791   7.748 -1.1786 -1.7557  1.8119
50198SOL    HW260909   2.455   9.915   7.797 -1.2743 -1.4718  0.9780
50199SOL     OW60910   5.875   8.252   5.246  1.0149 -0.7569  0.3544
50199SOL    HW160911   5.872   8.181   5.182  1.4423 -1.0017  0.6059
50199SOL    HW260912   5.814   8.224   5.315 -1.4035  0.6275 -1.0687
50200SOL     OW60913   5.204  11.908  10.344 -0.4522 -0.4759 -0.2767
50200SOL    HW160914   5.179  11.928  10.435  2.2129 -1.5418  0.7913
50200SOL    HW260915   5.132  11.853  10.311 -2.4712  1.5967  0.4195
50201SOL     OW60916   8.985   7.247   9.236  0.6807  1.2654 -0.6652
50201SOL    HW160917   8.985   7.282   9.147 -0.4155 -0.1860 -1.2911
50201SOL    HW260918   9.068   7.199   9.243  0.3927  0.6733 -1.2241
50202SOL     OW60919  10.916   4.953   4.317 -0.1557  0.2449  0.6269
50202SOL    HW160920  10.979   4.998   4.373  2.6060 -0.4530 -1.6973
50202SOL    HW260921  10.862   5.023   4.281  0.6533  1.1273  1.0838
50203SOL     OW60922   8.772   2.646   6.245 -0.5137 -0.0798  0.2431
50203SOL    HW160923   8.730   2.732   6.253 -2.2499 -0.7443 -1.0382
50203SOL    HW260924   8.733   2.608   6.166  2.9257 -0.5982 -1.3550
50204SOL     OW60925  10.169   3.397   3.251 -0.8030  0.2391  0.3132
50204SOL    HW160926  10.222   3.449   3.191 -1.1913 -1.1814 -1.3579
50204SOL    HW260927  10.082   3.437   3.246 -1.5390 -1.4418 -2.2884
50205SOL     OW60928   1.105   5.811  10.205  0.3939 -0.3451 -1.2667
50205SOL    HW160929   1.123   5.735  10.150  2.3841 -1.0284  0.1872
50205SOL    HW260930   1.185   5.862  10.202 -0.3671  0.8997 -0.9690
50206SOL     OW60931  10.499   8.954  12.160 -0.0978  0.2765  0.1648
50206SOL    HW160932  10.556   8.958  12.083 -0.3574  1.7704  0.0377
50206SOL    HW260933  10.422   9.004  12.136 -0.2656  0.6026  1.3318
50207SOL     OW60934   5.764   0.326   8.420  0.6158 -0.1266 -0.5664
50207SOL    HW160935   5.829   0.367   8.477  1.7532 -2.2220 -0.2736
50207SOL    HW260936   5.804   0.244   8.392 -0.9602 -0.3489 -2.3435
50208SOL     OW60937  12.694  12.227   5.690  0.2702  0.4466  0.0125
50208SOL    HW160938  12.661  12.255   5.604 -0.6674 -0.1833  0.1488
50208SOL    HW260939  12.664  12.296   5.750 -0.6020  0.0193  0.0903
50209SOL     OW60940   7.553  10.552   2.401  0.6225 -0.4095 -0.2625
50209SOL    HW160941   7.509  10.485   2.347  0.3685 -0.9685  0.6173
50209SOL    HW260942   7.632  10.509   2.432 -0.2220 -0.8121  1.4420
50210SOL     OW60943   2.774   2.452   8.943  0.5486  0.1511  0.1046
50210SOL    HW160944   2.797   2.388   8.876 -0.8615 -1.5231  1.1399
50210SOL    HW260945   2.682   2.435   8.963  0.2777  2.1457  0.8301
50211SOL     OW60946   8.392   8.778   2.545  0.1280 -0.5598  0.1645
50211SOL    HW160947   8.306   8.793   2.585  0.2079 -0.1444  0.1945
50211SOL    HW260948   8.393   8.685   2.523 -0.6873 -0.3832 -0.6698
50212SOL     OW60949   2.581   6.432   8.011  0.0892 -0.6402  0.1105
50212SOL    HW160950   2.607   6.371   7.942  1.3701 -1.4744  1.2705
50212SOL    HW260951   2.662   6.477   8.035 -0.6203  0.6996  0.0811
50213SOL     OW60952   4.396   0.278   7.952 -0.1042  0.6796  0.3610
50213SOL    HW160953   4.410   0.321   7.868 -1.1814  0.5047  0.0664
50213SOL    HW260954   4.314   0.230   7.940  0.6244 -0.7732  0.9514
50214SOL     OW60955   3.912   0.318   7.815  0.1599  0.1464  0.4942
50214SOL    HW160956   3.842   0.317   7.749 -0.7078  1.7783  1.3137
50214SOL    HW260957   3.870   0.354   7.894  1.6075 -0.0622  1.3988
50215SOL     OW60958   3.119   4.957   3.382 -0.1329 -0.3822  0.0871
50215SOL    HW160959   3.189   5.022   3.386 -0.4950  0.1959 -1.9663
50215SOL    HW260960   3.041   5.005   3.410  0.0439 -0.7027  1.1941
50216SOL     OW60961  10.418  11.469   5.439  0.0956  0.0294 -0.6657
50216SOL    HW160962  10.455  11.432   5.519 -0.7419  0.1954 -0.1967
50216SOL    HW260963  10.388  11.394   5.389  0.2403 -0.0459 -0.6416
50217SOL     OW60964   1.500   3.651   5.279 -0.4900  0.2624 -0.2412
50217SOL    HW160965   1.531   3.563   5.300  0.1916  0.3534 -0.8099
50217SOL    HW260966   1.420   3.637   5.229 -0.9381 -0.0003  0.5276
50218SOL     OW60967   8.093   1.289   7.215 -0.5804 -0.2037  0.3944
50218SOL    HW160968   8.119   1.352   7.282 -1.0052 -0.2408  0.5997
50218SOL    HW260969   8.175   1.253   7.182 -0.2992  0.9330 -0.1934
50219SOL     OW60970   3.242   0.646   7.927  0.1584 -0.1493 -0.2477
50219SOL    HW160971   3.202   0.599   7.854  1.7420 -1.0142 -0.6298
50219SOL    HW260972   3.262   0.577   7.991 -0.9255  0.5546  0.8816
50220SOL     OW60973   3.779  11.689   5.776  0.2589  0.1134  0.6028
50220SOL    HW160974   3.871  11.678   5.750  0.2584  0.1421  0.5885
50220SOL    HW260975   3.733  11.706   5.695  0.3947  1.0956  0.7128
50221SOL     OW60976   7.515   2.456   4.447  0.5843 -0.2116 -0.6653
50221SOL    HW160977   7.597   2.506   4.440 -0.7179  1.8775 -2.1150
50221SOL    HW260978   7.517   2.398   4.371  0.5675  0.1470 -0.9478
50222SOL     OW60979   2.034   1.779  10.380 -0.3086  0.5027  0.0479
50222SOL    HW160980   2.121   1.796  10.416  1.3493 -1.5092 -2.6106
50222SOL    HW260981   2.009   1.860  10.335  0.7057  0.7409 -0.0977
50223SOL     OW60982   7.049  12.836  12.473  0.2702 -0.3094 -0.1407
50223SOL    HW160983   7.092  12.844  12.388  0.3131 -2.4488 -0.3665
50223SOL    HW260984   6.961  12.871  12.459  0.1964 -0.8609 -1.1433
50224SOL     OW60985   2.821  11.189   9.891 -0.1338 -0.3857 -0.0324
50224SOL    HW160986   2.876  11.133   9.836  0.3391 -0.1469  0.1952
50224SOL    HW260987   2.808  11.138   9.970 -1.2984 -0.9781 -0.5846
50225SOL     OW60988   0.250   4.410  12.159  0.1708  0.0930  0.1245
50225SOL    HW160989   0.229   4.361  12.080  0.5402 -1.1382  0.7504
50225SOL    HW260990   0.345   4.399  12.169  0.3252  1.2705  0.0849
50226SOL     OW60991   3.379   8.602   2.267  0.0599 -0.0603  0.7105
50226SOL    HW160992   3.390   8.695   2.247  0.7198 -0.1643  0.5743
50226SOL    HW260993   3.413   8.557   2.190 -1.4059 -0.4096  0.2328
50227SOL     OW60994   5.722   1.646   7.159  0.0488  0.5408 -0.0161
50227SOL    HW160995   5.633   1.609   7.153  0.1877  0.1489  0.2731
50227SOL    HW260996   5.779   1.574   7.131  0.2881  0.7142  0.0274
50228SOL     OW60997   6.653   1.077   4.344 -0.1453 -0.0681 -0.3615
50228SOL    HW160998   6.596   1.154   4.347 -0.2721 -0.1489 -0.6965
50228SOL    HW260999   6.734   1.105   4.386 -0.6354 -0.1235  0.6401
50229SOL     OW61000   1.834   3.388   6.192 -0.3819  0.2027 -0.2011
50229SOL    HW161001   1.913   3.353   6.232 -2.3899 -2.9002  1.4313
50229SOL    HW261002   1.803   3.454   6.254  0.4546  0.8545 -0.4582
50230SOL     OW61003  11.996   2.190   8.273 -0.2679  0.3764 -0.2556
50230SOL    HW161004  11.961   2.108   8.237 -0.7197 -0.0824  1.1580
50230SOL    HW261005  12.091   2.177   8.272 -0.3026  0.1316 -0.7166
50231SOL     OW61006   9.015  12.779   9.293 -0.2078 -0.6747  0.1970
50231SOL    HW161007   9.059  12.709   9.246  0.5319 -0.1192  0.0447
50231SOL    HW261008   8.994  12.741   9.378  1.1947 -0.7642  0.5376
50232SOL     OW61009   4.763  10.092   1.333 -0.3178  0.0910  0.5343
50232SOL    HW161010   4.801  10.006   1.320 -0.6260 -0.1574  1.2110
50232SOL    HW261011   4.720  10.113   1.250 -3.2135 -1.9317  1.3653
50233SOL     OW61012   1.391   8.643   7.548  0.7392  0.6387 -0.1144
50233SOL    HW161013   1.436   8.563   7.520  1.6561  1.7443 -2.0128
50233SOL    HW261014   1.329   8.661   7.477  0.5333  1.6022  0.3012
50234SOL     OW61015   0.512   6.067   2.202 -0.1846 -0.1505 -0.3043
50234SOL    HW161016   0.417   6.061   2.209 -0.1777  0.3402  0.2278
50234SOL    HW261017   0.531   6.160   2.202  0.3797 -0.2493  0.7782
50235SOL     OW61018   8.409   4.380   0.847  0.5101  0.0584 -0.1992
50235SOL    HW161019   8.480   4.445   0.847  0.5778 -0.0180  0.4681
50235SOL    HW261020   8.437   4.314   0.909 -0.4334  0.3394  0.5413
50236SOL     OW61021   2.824   8.549   9.449  0.0168  0.3005  0.3227
50236SOL    HW161022   2.790   8.574   9.363  2.3951 -1.2905 -1.1943
50236SOL    HW261023   2.917   8.572   9.446  0.0269  0.9198  2.8173
50237SOL     OW61024  10.980   9.077  10.056 -0.0849  0.0365  0.1282
50237SOL    HW161025  10.953   9.030   9.977 -1.2436 -1.6989  1.4724
50237SOL    HW261026  10.935   9.162  10.050 -0.2385 -0.1133 -1.0155
50238SOL     OW61027  11.527   8.826  10.642 -0.4619 -0.5219  0.1457
50238SOL    HW161028  11.448   8.783  10.674 -0.8766 -0.3231 -0.5855
50238SOL    HW261029  11.498   8.877  10.566  0.4727 -0.9473 -0.5233
50239SOL     OW61030  10.168  11.082   9.585  0.0577  0.5101 -0.1776
50239SOL    HW161031  10.080  11.087   9.622  0.4571 -1.0897  1.1276
50239SOL    HW261032  10.166  11.002   9.531  0.5538  0.7867 -0.6133
50240SOL     OW61033   4.614   6.634   7.132 -0.1060 -0.2726 -0.4267
50240SOL    HW161034   4.610   6.598   7.044  0.1809  0.2732 -0.6687
50240SOL    HW261035   4.565   6.716   7.127  1.7143  0.8656 -0.6395
50241SOL     OW61036   2.061  11.691   8.069 -0.7053  0.3382 -0.1654
50241SOL    HW161037   2.063  11.782   8.039 -2.1533  0.1645 -0.8543
50241SOL    HW261038   2.148  11.657   8.047  0.0425  1.6787  0.5664
50242SOL     OW61039  11.722   3.764   9.059 -0.0306  0.5694  0.3909
50242SOL    HW161040  11.735   3.714   9.140  0.3996 -0.7890 -0.4741
50242SOL    HW261041  11.641   3.813   9.074  0.1778  0.5564  1.7306
50243SOL     OW61042   5.866   6.786   0.820  0.0204  0.0796 -0.0867
50243SOL    HW161043   5.936   6.761   0.759 -0.6732  0.7378 -1.1658
50243SOL    HW261044   5.788   6.793   0.766 -0.8165 -0.2663  1.0514
50244SOL     OW61045   2.515   8.717   9.940 -0.4847  0.1412  0.4136
50244SOL    HW161046   2.506   8.724   9.845  2.1491 -2.3922 -0.1582
50244SOL    HW261047   2.571   8.791   9.963 -0.5523  0.3641 -0.1029
50245SOL     OW61048   9.474   9.590   6.375 -0.1842 -0.0508 -0.0939
50245SOL    HW161049   9.532   9.591   6.451  1.0967 -0.1690 -1.0328
50245SOL    HW261050   9.523   9.542   6.308 -1.3809 -0.1571 -0.9213
50246SOL     OW61051   2.609   9.592  11.893  0.1700  0.0823 -0.0026
50246SOL    HW161052   2.645   9.595  11.804 -1.4560  0.6934 -0.6802
50246SOL    HW261053   2.531   9.537  11.886  2.0804 -3.2003  1.9332
50247SOL     OW61054   7.223   6.851   5.462 -0.2375 -0.5254  0.5875
50247SOL    HW161055   7.169   6.909   5.516 -0.8086 -1.7824  1.4072
50247SOL    HW261056   7.168   6.829   5.388  0.4962  1.0867 -0.4910
50248SOL     OW61057   7.040   3.251   9.736 -0.1378  0.4361 -0.2354
50248SOL    HW161058   7.036   3.345   9.749 -0.3004  0.4978 -0.7304
50248SOL    HW261059   7.047   3.215   9.824 -1.0480  0.8571  0.0228
50249SOL     OW61060   9.571   3.921   3.910 -0.1417  0.6600 -0.0536
50249SOL    HW161061   9.499   3.941   3.851 -0.2762 -1.7580 -0.7984
50249SOL    HW261062   9.531   3.872   3.982  0.7258 -0.7965 -0.5187
50250SOL     OW61063  12.520   1.560  10.131 -0.1632  0.7535 -0.4702
50250SOL    HW161064  12.614   1.544  10.134 -0.0678  1.4493  0.9626
50250SOL    HW261065  12.482   1.487  10.180 -0.3758  0.5067 -0.9940
50251SOL     OW61066   9.972   8.185   6.657 -0.7330  0.5318  0.4036
50251SOL    HW161067   9.970   8.197   6.752  0.8737 -1.1624  0.7059
50251SOL    HW261068   9.921   8.105   6.642  0.7803 -0.4255  0.1273
50252SOL     OW61069  11.229  10.951   5.143  0.2401 -0.3875  0.2536
50252SOL    HW161070  11.287  10.875   5.137 -1.7053 -1.9030 -0.7305
50252SOL    HW261071  11.269  11.017   5.087  1.2957 -1.1627  0.0710
50253SOL     OW61072   3.261   8.614   5.268  0.2523  0.2318  0.6743
50253SOL    HW161073   3.349   8.615   5.230  0.4935 -0.9184  1.1286
50253SOL    HW261074   3.235   8.522   5.264 -0.9440  0.5609  0.5375
50254SOL     OW61075   7.348  12.672   0.120  0.5005 -0.7635  0.5284
50254SOL    HW161076   7.424  12.676   0.063  0.7540  1.7394  0.9612
50254SOL    HW261077   7.288  12.611   0.076  1.4719 -0.3983 -1.3873
50255SOL     OW61078   9.218  11.199   9.529  0.6084  0.4860 -0.5944
50255SOL    HW161079   9.173  11.228   9.609  0.0887  2.1238 -1.4536
50255SOL    HW261080   9.309  11.224   9.542  0.8007 -0.4680  0.0294
50256SOL     OW61081  11.679   7.479   9.056 -0.4650 -0.4212  0.0287
50256SOL    HW161082  11.770   7.470   9.083 -0.7009 -1.6715  0.4983
50256SOL    HW261083  11.677   7.559   9.003  1.1472 -1.0499 -1.0624
50257SOL     OW61084  11.617   4.072   9.210 -0.0276  0.3516 -0.1858
50257SOL    HW161085  11.653   4.089   9.123  0.4633 -0.0291 -0.0558
50257SOL    HW261086  11.548   4.008   9.195 -2.1739  2.6246 -0.7451
50258SOL     OW61087   1.900   1.109   8.388  0.3602  0.3344  0.1235
50258SOL    HW161088   1.976   1.063   8.424  0.7972  0.2601 -0.8579
50258SOL    HW261089   1.913   1.201   8.412  0.0114  0.1196  1.1988
50259SOL     OW61090   7.043   6.313   6.998 -0.2301 -0.5295  0.2362
50259SOL    HW161091   7.065   6.221   7.013  1.2461 -0.1133  0.8367
50259SOL    HW261092   7.128   6.357   6.992 -0.9119  0.8775  0.5535
50260SOL     OW61093   6.760   5.630   6.036  0.2043  0.1092  0.3259
50260SOL    HW161094   6.725   5.708   6.080  0.4629 -0.6779  1.9938
50260SOL    HW261095   6.784   5.661   5.949 -3.4256  0.9961 -0.5190
50261SOL     OW61096   7.828  12.559  11.886  0.7009  0.0527  0.9605
50261SOL    HW161097   7.750  12.505  11.879  0.2537  0.8580 -1.0012
50261SOL    HW261098   7.797  12.641  11.924  0.8241 -0.0545  1.2916
50262SOL     OW61099   1.733   3.777   7.533 -0.5057 -0.6703  0.5946
50262SOL    HW161100   1.780   3.720   7.472 -0.8673 -0.0507 -0.2795
50262SOL    HW261101   1.740   3.732   7.618  0.9268 -1.0109  0.3209
50263SOL     OW61102   6.483   8.507   5.049  0.0154  0.3214  0.0537
50263SOL    HW161103   6.423   8.578   5.073 -1.9846 -1.1291 -0.4553
50263SOL    HW261104   6.532   8.542   4.975 -0.7187  1.2656 -0.0126
50264SOL     OW61105  10.872   1.653   8.373 -0.1988  0.3867 -0.5120
50264SOL    HW161106  10.838   1.724   8.319 -1.2579 -1.6258 -2.6987
50264SOL    HW261107  10.966   1.653   8.357  0.0961  2.3399  0.9339
50265SOL     OW61108   4.988   3.739   4.180 -0.2606 -0.1154 -0.2260
50265SOL    HW161109   4.896   3.732   4.154 -1.0215 -0.3917  2.2897
50265SOL    HW261110   4.999   3.829   4.208  0.0936 -0.2131 -0.0418
50266SOL     OW61111   9.240  10.796   6.672 -0.0741 -0.1155  0.3504
50266SOL    HW161112   9.263  10.873   6.620 -2.1720 -0.7669 -1.7477
50266SOL    HW261113   9.322  10.748   6.683  0.5953  0.4360 -1.8202
50267SOL     OW61114   8.453   0.392   7.981 -0.2746  0.3646 -0.2225
50267SOL    HW161115   8.501   0.432   8.053 -1.2339 -0.2000  0.7566
50267SOL    HW261116   8.369   0.437   7.981 -0.4786 -0.0117 -0.6428
50268SOL     OW61117   6.282   5.037   5.105 -0.1451 -0.9512 -0.3100
50268SOL    HW161118   6.298   5.006   5.016 -1.4478 -3.2280  0.1674
50268SOL    HW261119   6.369   5.036   5.146  0.6408  1.0660 -1.7376
50269SOL     OW61120   6.231   2.536  11.172 -0.4079 -0.5354  0.1497
50269SOL    HW161121   6.210   2.527  11.265  0.4147 -1.8747  0.2243
50269SOL    HW261122   6.146   2.544  11.129 -0.8282 -0.6724  0.9306
50270SOL     OW61123  11.627   6.426   7.253 -0.2046  1.0958  0.2872
50270SOL    HW161124  11.669   6.340   7.247  1.0123  1.6222  0.8922
50270SOL    HW261125  11.557   6.423   7.188  0.2762 -0.0936 -0.2074
50271SOL     OW61126  10.080  10.400  10.733  0.3201  0.2442  0.6871
50271SOL    HW161127  10.149  10.395  10.667 -0.0861  1.2064  0.1676
50271SOL    HW261128  10.051  10.491  10.731 -1.2682 -0.2288  0.5818
50272SOL     OW61129   8.820  11.796  10.800 -0.0435  0.7205 -0.1291
50272SOL    HW161130   8.756  11.791  10.870 -1.7832 -0.4385 -1.6966
50272SOL    HW261131   8.769  11.816  10.722  1.9590  3.1078 -0.9435
50273SOL     OW61132   5.837   5.764   2.356 -0.2199  0.1414 -0.5359
50273SOL    HW161133   5.853   5.694   2.293 -1.9949 -0.6565 -0.1571
50273SOL    HW261134   5.849   5.845   2.306  0.7215 -0.4377 -1.2685
50274SOL     OW61135  10.863   6.763  10.551 -0.3145  0.3500  0.3546
50274SOL    HW161136  10.821   6.845  10.578  0.2457  0.6534  0.3023
50274SOL    HW261137  10.956   6.782  10.551  0.0321 -0.9167  2.5940
50275SOL     OW61138  12.114  10.375   3.522 -0.7064 -0.5715  0.0046
50275SOL    HW161139  12.025  10.355   3.492 -1.7596  0.9295  1.8610
50275SOL    HW261140  12.153  10.425   3.451 -1.6975 -0.4358 -0.4609
50276SOL     OW61141  11.004   0.275   7.897  0.6887  0.8291 -0.1518
50276SOL    HW161142  11.017   0.361   7.858  1.0211  0.7484 -0.2196
50276SOL    HW261143  11.087   0.254   7.939  0.8764  0.2087 -0.7999
50277SOL     OW61144  11.205   3.269  11.661 -0.1904  0.1002  0.6151
50277SOL    HW161145  11.270   3.200  11.670 -0.3994 -0.6063 -2.3046
50277SOL    HW261146  11.256   3.350  11.658  0.4914 -0.3574 -0.5914
50278SOL     OW61147  11.976   6.182  10.580  0.1127  0.2330 -0.1749
50278SOL    HW161148  12.068   6.160  10.566  0.3958  1.7439 -0.9163
50278SOL    HW261149  11.954   6.240  10.506 -1.2066  0.5082  0.4091
50279SOL     OW61150  10.500   3.917   5.428  0.3765 -0.3909 -0.3706
50279SOL    HW161151  10.496   3.899   5.522 -0.9926  0.3573 -0.2540
50279SOL    HW261152  10.457   4.002   5.419  1.0199 -0.1849 -1.6155
50280SOL     OW61153  12.948   6.907   8.758  0.1424 -0.3479  0.0246
50280SOL    HW161154  12.988   6.860   8.831 -1.2301 -0.2518  0.8682
50280SOL    HW261155  12.886   6.967   8.799 -0.1600  0.1916 -1.1893
50281SOL     OW61156   3.320   4.580   7.849  0.0908  0.8056  0.2632
50281SOL    HW161157   3.385   4.513   7.872 -0.1863 -0.1050 -1.4949
50281SOL    HW261158   3.254   4.574   7.919  0.3439 -0.3805  0.4219
50282SOL     OW61159   0.790  10.516   8.765 -0.0687 -0.2420  0.7159
50282SOL    HW161160   0.754  10.496   8.679  1.6190  2.8064 -0.8658
50282SOL    HW261161   0.719  10.563   8.811 -0.6708 -1.0981  0.6794
50283SOL     OW61162   0.975   2.166  10.461  0.3496 -0.3957 -0.0087
50283SOL    HW161163   0.969   2.101  10.391  0.6784 -0.3576 -0.0717
50283SOL    HW261164   1.028   2.237  10.424  2.1501 -1.2023  0.8911
50284SOL     OW61165   5.023   9.748   7.916  0.1167 -0.1035 -0.2234
50284SOL    HW161166   4.996   9.788   7.999 -0.7105  1.8961 -1.3884
50284SOL    HW261167   4.949   9.692   7.892  0.7631 -1.4630  0.8130
50285SOL     OW61168  10.045   8.790   5.285 -0.0614  0.4658 -0.2171
50285SOL    HW161169  10.128   8.837   5.279 -0.0673  0.3993 -0.9572
50285SOL    HW261170   9.984   8.853   5.322  0.1494  0.7554 -0.3556
50286SOL     OW61171   5.758   4.201   4.388  0.4566  0.3419 -0.4571
50286SOL    HW161172   5.835   4.201   4.446  1.2960 -0.9043 -1.5158
50286SOL    HW261173   5.701   4.269   4.424  1.5860  0.5828  0.9756
50287SOL     OW61174   6.928  10.779  11.968  0.3684  0.1041 -0.2407
50287SOL    HW161175   6.929  10.871  11.995 -1.1128  0.4249 -1.1716
50287SOL    HW261176   6.978  10.779  11.886 -1.0343  0.4090 -1.1233
50288SOL     OW61177  10.128   1.910   5.687  0.1319 -0.2755 -0.0647
50288SOL    HW161178  10.136   2.004   5.669  0.7044 -0.0906  1.0277
50288SOL    HW261179  10.150   1.868   5.605 -1.7309  0.5506 -1.0614
50289SOL     OW61180   0.432   6.640  10.477 -0.5470 -0.2987  0.2582
50289SOL    HW161181   0.364   6.661  10.540 -1.6981 -3.2623  0.1748
50289SOL    HW261182   0.471   6.559  10.510  1.4574  0.1462 -0.8678
50290SOL     OW61183   4.579   8.989   7.154 -0.3001 -0.4050 -0.0702
50290SOL    HW161184   4.653   8.929   7.165  0.0544  0.1849  0.8480
50290SOL    HW261185   4.612   9.073   7.184 -1.3541 -0.1420  0.3852
50291SOL     OW61186   5.364   3.217   4.623  0.7106  0.3827  0.6297
50291SOL    HW161187   5.403   3.302   4.602 -0.1243  0.2559 -1.7562
50291SOL    HW261188   5.367   3.211   4.718  1.5012  2.7327  0.7948
50292SOL     OW61189   8.344   8.791  12.097  0.0791 -0.5012  0.1144
50292SOL    HW161190   8.358   8.836  12.180 -1.1567  1.1402 -0.5221
50292SOL    HW261191   8.282   8.721  12.118  0.4982 -0.6983  0.7348
50293SOL     OW61192   4.327  12.876  12.648  0.1042 -0.4568 -0.0002
50293SOL    HW161193   4.300  12.942  12.711 -0.0709  0.1338 -0.6763
50293SOL    HW261194   4.390  12.822  12.695 -0.3543 -0.3050  0.8124
50294SOL     OW61195   1.969   9.325   8.070 -0.1631  0.1166  0.1641
50294SOL    HW161196   2.060   9.301   8.087 -0.2420 -0.2974  0.0005
50294SOL    HW261197   1.957   9.406   8.119  0.5603  0.6680 -0.5366
50295SOL     OW61198   4.386   0.451   3.365  0.4298 -0.3430  0.0140
50295SOL    HW161199   4.375   0.361   3.337 -1.9220  0.1170 -0.8187
50295SOL    HW261200   4.468   0.479   3.326 -0.7609 -0.9483 -3.2428
50296SOL     OW61201   4.161   6.592   5.980  0.1550  0.0170  0.4437
50296SOL    HW161202   4.174   6.644   6.059 -0.1759 -0.4740  0.8285
50296SOL    HW261203   4.163   6.655   5.908 -1.5501  0.7529  0.9878
50297SOL     OW61204   2.569  11.354   7.444  0.2675 -0.2433  0.4852
50297SOL    HW161205   2.544  11.306   7.365 -0.7294 -0.2656  0.7954
50297SOL    HW261206   2.644  11.407   7.417  0.5298 -0.9540 -0.2217
50298SOL     OW61207   4.883   7.418   2.087  0.2430  0.0411  0.4980
50298SOL    HW161208   4.977   7.399   2.085  0.5380  1.3676 -1.4997
50298SOL    HW261209   4.878   7.510   2.115 -0.5621 -0.3783  1.7909
50299SOL     OW61210  12.955   3.347   4.395 -0.5453  0.4278 -0.1111
50299SOL    HW161211  12.865   3.320   4.412  0.0667 -1.5333  0.3348
50299SOL    HW261212  12.975   3.411   4.464 -2.1524  2.3461 -1.3527
50300SOL     OW61213  12.915   5.792   2.978  0.3459  0.1249 -0.0221
50300SOL    HW161214  13.008   5.778   2.993  0.1613  0.0713  1.1893
50300SOL    HW261215  12.884   5.711   2.938  0.5828 -0.3709  0.7744
50301SOL     OW61216  11.558   1.713  11.775  0.6482  0.6362  0.1517
50301SOL    HW161217  11.498   1.757  11.834  1.9419 -0.3178  2.2873
50301SOL    HW261218  11.639   1.703  11.825  1.2742 -1.7403 -1.1837
50302SOL     OW61219   5.212   0.213   1.512 -0.0662  0.2619  0.1264
50302SOL    HW161220   5.237   0.297   1.475 -3.4049  1.2130 -0.3254
50302SOL    HW261221   5.246   0.148   1.451 -1.8941  1.6000 -2.4870
50303SOL     OW61222   8.418   7.018   6.708 -0.5999  0.1418  0.3850
50303SOL    HW161223   8.341   6.962   6.700 -0.5753 -0.0197  1.1496
50303SOL    HW261224   8.410   7.058   6.795 -1.4834  2.6715 -0.7794
50304SOL     OW61225  11.934   1.153   7.037 -0.4980 -0.2673  0.2045
50304SOL    HW161226  11.947   1.101   6.958 -3.1150  0.2426 -0.6616
50304SOL    HW261227  11.967   1.240   7.015  0.8640 -0.6604  0.5348
50305SOL     OW61228   6.093   2.798   4.001 -0.1870 -0.1687 -0.1249
50305SOL    HW161229   6.066   2.844   4.080 -0.7893 -0.3709 -0.2077
50305SOL    HW261230   6.124   2.713   4.032 -1.5848 -0.7311 -0.2005
50306SOL     OW61231   8.333  10.315   5.535  0.2267 -0.1271 -0.1922
50306SOL    HW161232   8.428  10.325   5.548  0.1352 -1.0709  1.4444
50306SOL    HW261233   8.325  10.234   5.486  0.2349 -0.8276  0.9218
50307SOL     OW61234  11.453   9.723   6.604  0.3316  0.2098 -0.3270
50307SOL    HW161235  11.462   9.765   6.690 -0.1513 -1.9055  0.8300
50307SOL    HW261236  11.543   9.697   6.581  0.4972  1.0024 -0.6035
50308SOL     OW61237   0.424   4.322   8.648  0.1217  0.0855  0.1365
50308SOL    HW161238   0.399   4.316   8.740  0.9453 -1.1673  0.2950
50308SOL    HW261239   0.512   4.359   8.649  1.0817 -2.0405  0.0366
50309SOL     OW61240   5.106   4.799   2.366 -0.4786  0.0635  0.0894
50309SOL    HW161241   5.113   4.734   2.436  0.5140 -1.1033 -1.0516
50309SOL    HW261242   5.047   4.760   2.302  1.7102 -0.7273 -1.5863
50310SOL     OW61243   7.847   8.011   0.505 -0.0760  0.0425 -0.2659
50310SOL    HW161244   7.923   8.029   0.562 -0.6438  0.1402  0.4756
50310SOL    HW261245   7.865   7.924   0.469  0.7451  0.3733 -0.6975
50311SOL     OW61246   6.024   9.616   8.768  0.5542  0.3294 -0.5848
50311SOL    HW161247   6.058   9.602   8.680  2.2686 -2.9545  0.4504
50311SOL    HW261248   6.101   9.642   8.820 -0.4771  2.5188 -0.0300
50312SOL     OW61249   8.459   4.282   7.439  0.1990  0.1827  0.1878
50312SOL    HW161250   8.417   4.315   7.360  0.0796 -1.8029 -0.6307
50312SOL    HW261251   8.549   4.315   7.434  0.0714  0.4415 -0.5427
50313SOL     OW61252   1.913   4.477   4.528  0.3964 -0.1250 -1.0100
50313SOL    HW161253   1.847   4.531   4.571  0.7292 -1.1787  0.9146
50313SOL    HW261254   1.867   4.438   4.453 -0.2464  1.5981 -1.5478
50314SOL     OW61255   2.757   7.358   2.924  0.3218 -0.1887 -0.2602
50314SOL    HW161256   2.827   7.301   2.893  0.7709  0.1700  0.0868
50314SOL    HW261257   2.754   7.345   3.018  0.0507 -0.0550 -0.2458
50315SOL     OW61258   1.487   6.780   9.301  0.1604  0.1124  0.2398
50315SOL    HW161259   1.437   6.857   9.328  0.9106  0.3335  1.0420
50315SOL    HW261260   1.462   6.712   9.363  0.0947 -0.0638  0.0205
50316SOL     OW61261   0.751  11.063   3.883 -0.1538  0.8729 -0.1121
50316SOL    HW161262   0.695  11.138   3.867 -1.9621 -0.3223  0.3457
50316SOL    HW261263   0.703  11.010   3.946  0.3732 -1.3503 -1.4615
50317SOL     OW61264   6.947   8.009   7.986  0.2069  0.2072  0.1475
50317SOL    HW161265   7.042   8.003   7.985  0.2238  0.2539 -1.3006
50317SOL    HW261266   6.929   8.102   7.972 -0.0664  0.2507  0.7352
50318SOL     OW61267   9.735   7.603   9.247  0.1487 -0.7883 -0.4419
50318SOL    HW161268   9.823   7.577   9.275 -1.0757 -2.2853  2.3592
50318SOL    HW261269   9.689   7.625   9.329 -2.1365 -0.1273 -1.8106
50319SOL     OW61270  11.046   7.330   7.252 -0.0699  0.0639 -0.1651
50319SOL    HW161271  11.009   7.377   7.327  0.4907  0.1795  0.0393
50319SOL    HW261272  10.977   7.333   7.186  0.4045  2.2822 -0.6323
50320SOL     OW61273  11.400   2.604  10.084  0.5059 -0.0142 -0.8051
50320SOL    HW161274  11.416   2.627   9.992 -0.4558  2.8531 -0.3727
50320SOL    HW261275  11.472   2.646  10.132 -0.3370  0.6658 -0.0863
50321SOL     OW61276   2.426   9.596   7.685  0.1243 -0.0927  0.4441
50321SOL    HW161277   2.353   9.658   7.687 -0.9063 -1.1619 -1.4147
50321SOL    HW261278   2.460   9.602   7.596  0.3413 -1.8010  0.3846
50322SOL     OW61279   5.027  12.472   9.638 -0.1672 -0.2836 -0.5323
50322SOL    HW161280   5.036  12.384   9.602 -0.0788 -0.1470 -0.8512
50322SOL    HW261281   5.116  12.496   9.664 -0.0206  0.0650 -1.3016
50323SOL     OW61282   9.379   5.739   2.115 -0.7507 -0.3083 -0.1735
50323SOL    HW161283   9.406   5.651   2.088  1.0299  0.1219  0.0495
50323SOL    HW261284   9.285   5.741   2.099 -0.7617 -2.0947 -0.6147
50324SOL     OW61285   3.260   9.841   6.151  0.3182 -0.3189  0.2339
50324SOL    HW161286   3.307   9.856   6.069 -0.5495 -1.3668 -0.4792
50324SOL    HW261287   3.213   9.923   6.167 -1.9603 -1.0795 -1.9938
50325SOL     OW61288   2.593   4.520   8.931  0.4429 -0.4447  0.0742
50325SOL    HW161289   2.608   4.520   9.025  1.3622  0.1148 -0.0645
50325SOL    HW261290   2.549   4.603   8.913  1.3501 -0.0030 -0.1456
50326SOL     OW61291  11.262   2.495  12.136  0.1999 -0.2149  0.1846
50326SOL    HW161292  11.235   2.519  12.048  0.7851  0.2493  0.1246
50326SOL    HW261293  11.218   2.558  12.193  0.8360  0.2963  0.1180
50327SOL     OW61294   2.705   1.378   7.225 -1.0465  0.2811 -0.4835
50327SOL    HW161295   2.687   1.285   7.239 -3.1848  0.8284  0.9256
50327SOL    HW261296   2.696   1.390   7.131  2.1113 -1.3999 -1.1248
50328SOL     OW61297  12.227   3.709   6.186 -0.3903  0.2107  0.1576
50328SOL    HW161298  12.175   3.694   6.107 -2.8422 -1.7197  1.9757
50328SOL    HW261299  12.304   3.654   6.175 -0.6159  0.0803 -0.9111
50329SOL     OW61300   6.684   7.317   3.886  0.5076 -0.0557 -0.5281
50329SOL    HW161301   6.745   7.244   3.876 -0.4680 -0.7231 -1.8588
50329SOL    HW261302   6.740   7.395   3.895  1.5432 -0.7125 -1.1887
50330SOL     OW61303   3.395   9.853   8.920 -0.1568  0.3978 -0.3301
50330SOL    HW161304   3.430   9.930   8.876 -1.9616  1.0673 -0.7063
50330SOL    HW261305   3.471   9.809   8.956  1.0324  1.7559 -1.0721
50331SOL     OW61306  12.674   6.617   7.679  0.6264  0.4772  0.2652
50331SOL    HW161307  12.658   6.565   7.600  0.7932  0.1112  0.4673
50331SOL    HW261308  12.758   6.583   7.713  1.0466  1.2976  0.0622
50332SOL     OW61309  12.185   1.570   9.462 -0.1124  0.6304  0.2067
50332SOL    HW161310  12.252   1.505   9.439  0.3934  1.1908  0.0765
50332SOL    HW261311  12.134   1.528   9.531  1.2348  0.7202  1.2860
50333SOL     OW61312  11.678   2.974   2.169 -0.2545 -0.1588 -0.0515
50333SOL    HW161313  11.720   3.058   2.150  1.4087 -1.1879 -1.1634
50333SOL    HW261314  11.736   2.933   2.233 -1.4036 -0.2315  0.9903
50334SOL     OW61315   1.844  10.350  10.084  0.3373 -0.2216  0.0434
50334SOL    HW161316   1.845  10.288  10.157  0.1444  0.0243  0.2546
50334SOL    HW261317   1.924  10.401  10.095  0.5830 -0.5379 -0.2263
50335SOL     OW61318   1.838  11.070   6.134 -0.2317 -0.1898  0.6052
50335SOL    HW161319   1.781  11.103   6.203 -0.2525 -0.9099  0.9455
50335SOL    HW261320   1.789  10.996   6.096  0.3477 -0.6428  0.7218
50336SOL     OW61321   9.054   0.361   6.889 -0.4986  0.2225 -0.2638
50336SOL    HW161322   9.137   0.402   6.863 -0.5954  0.5116 -0.1172
50336SOL    HW261323   9.079   0.295   6.953 -0.4272  0.6081  0.1046
50337SOL     OW61324   8.087   9.285  12.683  0.6522  0.1580 -0.1984
50337SOL    HW161325   8.054   9.284  12.772 -1.4204  1.7557 -0.8625
50337SOL    HW261326   8.178   9.314  12.692  0.7863 -0.6666  1.4446
50338SOL     OW61327   4.494  11.845  11.750 -0.0004 -0.1096  0.0170
50338SOL    HW161328   4.454  11.890  11.824 -0.2460  1.7210 -1.1611
50338SOL    HW261329   4.469  11.753  11.761 -2.3884  0.5670  0.6880
50339SOL     OW61330  10.279   0.551   7.838 -0.5028  0.2666 -0.3864
50339SOL    HW161331  10.284   0.567   7.932 -1.8439 -0.8613 -0.0875
50339SOL    HW261332  10.342   0.481   7.822 -1.2860 -0.5328 -0.0557
50340SOL     OW61333   3.288   8.388   7.235 -0.3652  0.0030 -0.6299
50340SOL    HW161334   3.372   8.410   7.274 -0.6022 -0.3857  0.1091
50340SOL    HW261335   3.234   8.357   7.308 -0.6416 -1.2656 -1.3417
50341SOL     OW61336   4.715   1.688  12.874 -0.3496  0.8048 -0.2612
50341SOL    HW161337   4.803   1.702  12.839 -0.3080 -2.2053 -1.6415
50341SOL    HW261338   4.728   1.680  12.969  0.9426  0.0250 -0.4846
50342SOL     OW61339   8.102   0.239   6.434  0.9273  0.0377 -0.6859
50342SOL    HW161340   8.091   0.334   6.430 -1.5747 -0.0909  1.1440
50342SOL    HW261341   8.046   0.205   6.363 -0.1285 -0.1317  0.2084
50343SOL     OW61342   4.948   9.301   3.208 -0.6728 -0.0390 -0.6722
50343SOL    HW161343   4.871   9.253   3.178 -0.8490  0.0491 -0.3683
50343SOL    HW261344   4.927   9.325   3.298 -0.3013  0.0123 -0.5978
50344SOL     OW61345  11.145   5.395   2.719  0.1363  0.1254  0.4043
50344SOL    HW161346  11.061   5.354   2.739 -0.7513  0.9640 -1.3893
50344SOL    HW261347  11.168   5.441   2.800 -1.1984 -0.0246  0.8989
50345SOL     OW61348   0.478   4.610   9.314  0.3949 -0.1751  0.5019
50345SOL    HW161349   0.511   4.531   9.272 -0.3740  0.7729 -2.0538
50345SOL    HW261350   0.548   4.675   9.304  0.1350  0.1138  0.5182
50346SOL     OW61351   2.156   8.890   7.221  0.3138 -0.3920 -0.3562
50346SOL    HW161352   2.148   8.843   7.304 -0.4845  1.0115  0.4194
50346SOL    HW261353   2.116   8.975   7.239  2.5136  0.9489 -1.3904
50347SOL     OW61354  12.178  11.653   5.457  0.2932  0.4626  0.4413
50347SOL    HW161355  12.181  11.729   5.516 -1.1382  0.3596  0.6854
50347SOL    HW261356  12.137  11.584   5.510  1.5237 -0.4968  0.2091
50348SOL     OW61357   8.305  12.302  10.584  0.0254 -0.7024 -0.1064
50348SOL    HW161358   8.210  12.288  10.587 -0.1092  0.1757 -0.0422
50348SOL    HW261359   8.324  12.358  10.659  0.6567 -1.1757  0.0947
50349SOL     OW61360   9.802   3.516   6.568  0.6340 -0.1134 -0.3345
50349SOL    HW161361   9.822   3.426   6.544  0.3408 -0.3803  0.3840
50349SOL    HW261362   9.833   3.569   6.495  0.5860 -0.8195 -0.8659
50350SOL     OW61363   0.011   2.228  10.934 -0.1429 -0.1691  0.0990
50350SOL    HW161364  -0.058   2.286  10.967  1.2968  1.6781 -0.0038
50350SOL    HW261365   0.070   2.285  10.886  1.6340 -1.6276  0.4278
50351SOL     OW61366   3.744   4.165   6.042  0.1554 -0.2116  0.4952
50351SOL    HW161367   3.738   4.253   6.080  2.4602  1.2603 -2.2410
50351SOL    HW261368   3.658   4.151   6.002 -0.7311  0.1140  2.1913
50352SOL     OW61369  11.260   0.812   3.319  0.4786 -0.0766 -0.5620
50352SOL    HW161370  11.214   0.866   3.255 -0.0819  0.8185  0.5784
50352SOL    HW261371  11.353   0.822   3.297  0.4539  2.0531  0.1361
50353SOL     OW61372   3.256   4.456   1.061 -0.0764 -0.4757 -0.3305
50353SOL    HW161373   3.176   4.496   1.097  0.7807  0.4360  0.6399
50353SOL    HW261374   3.239   4.362   1.064 -0.7918 -0.3331  0.6717
50354SOL     OW61375  11.133   9.388  12.499  0.2179 -0.0111  0.1069
50354SOL    HW161376  11.075   9.312  12.503 -2.1557  1.6525 -0.7911
50354SOL    HW261377  11.108   9.441  12.574 -0.2478  1.2461 -0.9038
50355SOL     OW61378   2.307   8.547   0.193 -0.8304  0.3744  0.2188
50355SOL    HW161379   2.307   8.626   0.247 -1.4156  0.2176  0.4590
50355SOL    HW261380   2.274   8.576   0.108 -0.8530  0.4326  0.2475
50356SOL     OW61381   5.997   1.390   5.294 -0.2170  0.7861  0.1643
50356SOL    HW161382   5.978   1.337   5.372 -0.0815  0.3208 -0.1213
50356SOL    HW261383   5.936   1.358   5.228  2.3037 -1.6273 -1.1901
50357SOL     OW61384   2.918   3.585   6.684  0.1878 -0.4506  0.6723
50357SOL    HW161385   2.967   3.544   6.756  0.4974  0.3758  0.9500
50357SOL    HW261386   2.896   3.513   6.625 -1.3053 -1.3978  2.2849
50358SOL     OW61387   3.284   1.492   1.304  1.0051  0.5416  0.0795
50358SOL    HW161388   3.310   1.482   1.395 -0.2051 -0.2608  0.3626
50358SOL    HW261389   3.262   1.585   1.295  2.2192  0.8697  0.2754
50359SOL     OW61390   0.010   0.409   8.053 -0.0985  0.1215 -0.2178
50359SOL    HW161391   0.044   0.462   8.126 -0.1366 -0.9821  0.6199
50359SOL    HW261392   0.087   0.364   8.019 -0.2390 -0.0988 -0.2425
50360SOL     OW61393  11.922  12.381   6.560  0.8869  0.3451  0.1064
50360SOL    HW161394  11.923  12.390   6.465  1.1124  2.2245  0.2461
50360SOL    HW261395  11.850  12.436   6.589  2.0208  1.3511  1.1269
50361SOL     OW61396  12.152   4.715  10.541  0.0523 -0.3511  0.0126
50361SOL    HW161397  12.211   4.641  10.528  1.6450  0.4702  2.0778
50361SOL    HW261398  12.205   4.792  10.520 -0.6222  0.3510  0.7871
50362SOL     OW61399   0.300  11.471   5.403 -0.0403  0.2909 -0.2018
50362SOL    HW161400   0.300  11.564   5.427 -0.0202  0.2283  0.0397
50362SOL    HW261401   0.360  11.430   5.466 -0.7595 -0.0372  0.2775
50363SOL     OW61402   2.269   6.439   0.346 -0.1693 -0.0395 -0.2541
50363SOL    HW161403   2.361   6.441   0.318  0.8599 -0.4432  2.7271
50363SOL    HW261404   2.225   6.501   0.288  2.1933  0.8982 -1.1698
50364SOL     OW61405  11.040  11.138   4.002  0.5490 -0.4748 -0.1285
50364SOL    HW161406  10.956  11.177   3.975  0.2801 -0.5235  0.6079
50364SOL    HW261407  11.027  11.115   4.095  1.3820 -0.4764 -0.0056
50365SOL     OW61408   1.361  11.530   6.980 -0.0474  0.1607  0.1155
50365SOL    HW161409   1.456  11.534   6.969  0.2760 -0.8369  2.1032
50365SOL    HW261410   1.329  11.614   6.947  1.6239  0.8859  0.2741
50366SOL     OW61411   5.089  10.920   7.820 -0.7121  0.6231  0.2929
50366SOL    HW161412   5.093  10.830   7.788 -0.4389  0.1639  1.5738
50366SOL    HW261413   5.137  10.971   7.755 -0.0785 -0.2971  0.0222
50367SOL     OW61414  10.344   1.863   8.096 -0.1372 -0.6037  0.1502
50367SOL    HW161415  10.399   1.820   8.162 -0.8947 -0.5677  0.8199
50367SOL    HW261416  10.264   1.885   8.143 -1.3430 -1.9742 -1.1567
50368SOL     OW61417  11.487  10.671   8.589 -0.3673 -0.0674  0.7459
50368SOL    HW161418  11.555  10.627   8.536 -0.1657  0.4619  0.5587
50368SOL    HW261419  11.535  10.712   8.660 -0.5054  0.2002  0.6861
50369SOL     OW61420   2.991   7.173  12.520  0.2688  0.2725 -0.0147
50369SOL    HW161421   3.008   7.219  12.603  2.3876 -0.5985  0.1097
50369SOL    HW261422   2.911   7.124  12.535  0.1524  0.8167  1.2306
50370SOL     OW61423   7.113   1.223   1.161  0.2406 -0.5315 -0.0634
50370SOL    HW161424   7.048   1.243   1.093  1.2038  0.0258 -0.8498
50370SOL    HW261425   7.124   1.128   1.156  0.4514 -0.4741 -0.8497
50371SOL     OW61426  12.508   7.744   8.022  0.2483  0.6186  0.0005
50371SOL    HW161427  12.413   7.729   8.026  0.1861  1.0680  0.3828
50371SOL    HW261428  12.519   7.812   7.956  0.3354  0.3576 -0.2564
50372SOL     OW61429   0.489   0.088   8.708 -0.1171  0.3953  0.8321
50372SOL    HW161430   0.552   0.066   8.777  0.1228 -2.0252 -0.0537
50372SOL    HW261431   0.496   0.015   8.646 -0.6548  2.2335 -1.5314
50373SOL     OW61432  11.112   3.884   8.899 -0.1016  0.2009  0.7457
50373SOL    HW161433  11.126   3.825   8.973 -1.2474  0.1067  0.9062
50373SOL    HW261434  11.025   3.862   8.867 -0.8521  2.2452  1.2360
50374SOL     OW61435  10.145  12.552   4.198  0.0842  0.9831 -0.1405
50374SOL    HW161436  10.121  12.641   4.224 -1.9561 -0.0544  1.8541
50374SOL    HW261437  10.064  12.502   4.203  1.6768 -1.6893  2.0804
50375SOL     OW61438  11.013  11.152   4.958  0.0348  0.4008  0.1118
50375SOL    HW161439  11.102  11.145   4.990  0.2322  0.9233 -0.2984
50375SOL    HW261440  10.997  11.247   4.951 -1.6178  0.4635  3.0997
50376SOL     OW61441   2.705   5.765   7.669  0.4809 -0.0271  0.1093
50376SOL    HW161442   2.793   5.782   7.705  1.0336 -1.3552 -0.5461
50376SOL    HW261443   2.651   5.748   7.746  0.1771  3.1276  0.7272
50377SOL     OW61444   1.051   7.646   6.226  0.7456  0.3570  0.0579
50377SOL    HW161445   1.089   7.715   6.172  0.4089 -0.0918 -0.7656
50377SOL    HW261446   1.097   7.566   6.200  0.1757  0.0387  0.0086
50378SOL     OW61447   8.079   9.246   9.106  0.5524 -0.1388  0.1937
50378SOL    HW161448   8.069   9.184   9.033 -1.2318  2.8906 -2.3814
50378SOL    HW261449   7.990   9.269   9.130  1.1266  1.9939  0.4711
50379SOL     OW61450  12.784  12.846   1.372  0.1297  0.1635  0.1270
50379SOL    HW161451  12.733  12.862   1.452 -3.6356 -0.5505 -1.8981
50379SOL    HW261452  12.803  12.934   1.338  1.7010  0.4744  1.6357
50380SOL     OW61453   4.896   2.529   5.525 -0.2940 -0.7404  0.1636
50380SOL    HW161454   4.950   2.572   5.458 -0.4778 -1.6410 -0.5923
50380SOL    HW261455   4.816   2.581   5.529 -0.0240 -0.3184  0.1369
50381SOL     OW61456   1.747   3.207   9.287 -0.1513  0.3616 -0.4222
50381SOL    HW161457   1.696   3.212   9.368 -1.2880 -0.0106 -1.1011
50381SOL    HW261458   1.797   3.126   9.295 -0.5622  0.1238 -0.2737
50382SOL     OW61459   7.264   0.914   7.278  0.3112  0.0277  0.2531
50382SOL    HW161460   7.276   0.911   7.183 -1.4862 -0.8935  0.0291
50382SOL    HW261461   7.205   0.988   7.293  1.3081  0.7494  0.7710
50383SOL     OW61462   0.646   0.007   9.954 -0.0203  0.6262  0.5417
50383SOL    HW161463   0.629   0.088  10.002  0.8484  0.9726  0.2776
50383SOL    HW261464   0.702   0.033   9.881  0.6912 -0.2836  0.7397
50384SOL     OW61465   5.637   3.177   7.207  0.4462  0.0417  0.2146
50384SOL    HW161466   5.598   3.091   7.190  1.8355 -0.4217 -0.7350
50384SOL    HW261467   5.679   3.167   7.293  0.7028 -0.2730  0.0551
50385SOL     OW61468   3.150   0.100  11.747 -0.0108  0.1013  0.4480
50385SOL    HW161469   3.108   0.031  11.695  0.9582 -0.4717  0.4072
50385SOL    HW261470   3.135   0.073  11.838  0.0638  0.0302  0.4389
50386SOL     OW61471   9.377   9.002   5.973 -0.3909 -0.0380  0.2168
50386SOL    HW161472   9.427   8.968   5.899  0.6832 -0.0718  0.9274
50386SOL    HW261473   9.426   8.972   6.050 -1.1762  0.4574  0.9226
50387SOL     OW61474   7.285   8.200   1.154 -0.2770  0.1739  0.2773
50387SOL    HW161475   7.261   8.293   1.148 -0.5940  0.0066 -1.3608
50387SOL    HW261476   7.201   8.154   1.161 -0.2683 -0.1252 -1.2746
50388SOL     OW61477   0.732   3.240   7.529 -0.1081 -0.5134 -0.1922
50388SOL    HW161478   0.638   3.237   7.510 -0.1271  1.5039 -0.6221
50388SOL    HW261479   0.773   3.205   7.449 -0.4609 -1.8986  0.1924
50389SOL     OW61480  10.830   7.320  10.192 -0.0082 -0.0479 -0.2653
50389SOL    HW161481  10.778   7.317  10.273  0.8461  0.5261  0.3267
50389SOL    HW261482  10.804   7.242  10.144 -0.9744 -0.0872  0.2846
50390SOL     OW61483   3.318   8.859  11.408 -0.0341 -0.2891 -0.5505
50390SOL    HW161484   3.338   8.945  11.444  0.9567 -1.2684  1.3665
50390SOL    HW261485   3.401   8.829  11.371 -0.1374 -0.8002 -0.3716
50391SOL     OW61486   6.886   8.355  10.904 -0.1089 -0.0297  0.0199
50391SOL    HW161487   6.976   8.361  10.937 -0.2027  0.1474  0.2463
50391SOL    HW261488   6.863   8.263  10.913  0.4307 -0.2941 -1.0514
50392SOL     OW61489   0.962   6.919   2.810  0.6052 -0.1895  0.4282
50392SOL    HW161490   0.932   6.829   2.798  1.7926 -0.5832  0.2074
50392SOL    HW261491   0.898   6.959   2.868 -1.2508 -0.4635 -1.3224
50393SOL     OW61492   5.312   9.896   8.406  0.2108  0.8640  0.0212
50393SOL    HW161493   5.372   9.953   8.357 -1.5055  3.4405  0.6801
50393SOL    HW261494   5.234   9.891   8.352 -0.0969  0.0916  0.5216
50394SOL     OW61495   9.145   8.330   2.522  0.4516  0.3014 -0.2666
50394SOL    HW161496   9.195   8.396   2.570  0.9938 -0.4428  0.2275
50394SOL    HW261497   9.196   8.250   2.533 -1.0271 -0.5711  0.5520
50395SOL     OW61498   4.777   6.333   3.056  0.7058  0.3421  0.1471
50395SOL    HW161499   4.739   6.341   2.968  0.2320  0.2516  0.3415
50395SOL    HW261500   4.840   6.261   3.048  1.9042  1.4074 -0.5379
50396SOL     OW61501   2.656  11.872   3.389  0.0016 -0.4360  0.4125
50396SOL    HW161502   2.720  11.900   3.454 -0.5576 -0.9651  1.2112
50396SOL    HW261503   2.585  11.936   3.395 -0.1514 -0.6116  0.4739
50397SOL     OW61504   8.669   0.724  10.005  0.0117  0.3385  0.1065
50397SOL    HW161505   8.634   0.646   9.963 -1.9194  1.5360 -0.5929
50397SOL    HW261506   8.718   0.768   9.936 -0.0522  0.4406  0.1268
50398SOL     OW61507  10.772  12.004   9.218  0.0518 -0.5912 -0.1336
50398SOL    HW161508  10.690  12.032   9.260 -0.1434  0.2823 -1.0528
50398SOL    HW261509  10.840  12.051   9.266 -0.1047 -0.2321 -0.2585
50399SOL     OW61510   8.547  11.218   5.582 -0.6984  0.4926  0.0934
50399SOL    HW161511   8.457  11.205   5.552 -0.3485  2.1053 -1.9066
50399SOL    HW261512   8.585  11.131   5.585 -1.6062  0.0061 -1.5503
50400SOL     OW61513   1.894   1.355   8.540  0.2013 -0.5889  0.0605
50400SOL    HW161514   1.965   1.420   8.544  0.5459 -0.6432 -2.7781
50400SOL    HW261515   1.817   1.405   8.513  0.4830 -1.2506 -2.2125
50401SOL     OW61516   4.423   9.629  12.822  0.2331 -0.1217  0.1658
50401SOL    HW161517   4.424   9.724  12.832  0.7616 -0.0961 -0.0866
50401SOL    HW261518   4.374   9.597  12.897 -0.0193  0.3578  0.2024
50402SOL     OW61519  11.855   2.606   3.268  0.4233  0.3344 -0.2801
50402SOL    HW161520  11.786   2.556   3.313  0.3495 -1.5602 -2.3071
50402SOL    HW261521  11.833   2.697   3.286 -0.6231 -0.2653  1.9275
50403SOL     OW61522  10.132   4.225   5.325  0.0644  0.3367  0.6720
50403SOL    HW161523  10.079   4.256   5.251 -0.4754  0.6714  1.1869
50403SOL    HW261524  10.133   4.130   5.316  1.6892  0.4353 -0.8996
50404SOL     OW61525   2.482   6.483   1.525  0.0015 -0.0960  0.0956
50404SOL    HW161526   2.550   6.416   1.524  0.8264  0.7133  0.0687
50404SOL    HW261527   2.530   6.565   1.539 -0.9074  0.5639 -0.5557
50405SOL     OW61528   6.271  12.577   7.909 -0.3491  0.2222  0.2309
50405SOL    HW161529   6.289  12.575   8.003  0.8314  0.1948  0.0193
50405SOL    HW261530   6.342  12.526   7.870  1.9772  4.0018 -1.0644
50406SOL     OW61531   6.950   8.173   2.572 -0.3172 -0.2057  1.1136
50406SOL    HW161532   6.991   8.104   2.624  0.4831 -0.5728  0.0343
50406SOL    HW261533   7.003   8.251   2.589  0.1659 -0.4143  0.5611
50407SOL     OW61534   4.086   3.105   8.667 -0.2750  0.0391 -0.0981
50407SOL    HW161535   4.123   3.027   8.708 -1.9088 -1.5034 -1.4267
50407SOL    HW261536   4.115   3.177   8.723  1.7065 -1.4289  0.8918
50408SOL     OW61537   3.844   5.783   1.921 -0.6373  0.7266 -0.7093
50408SOL    HW161538   3.875   5.862   1.966 -0.7092  2.3120 -3.2586
50408SOL    HW261539   3.922   5.748   1.877 -0.6496 -0.5716  0.2206
50409SOL     OW61540   0.514   4.749   8.663  0.1844  0.7053  0.2522
50409SOL    HW161541   0.498   4.699   8.743  2.6097  1.4862  1.3364
50409SOL    HW261542   0.486   4.838   8.685 -0.1452  0.7041 -0.1571
50410SOL     OW61543   5.074   7.135   5.311  0.0956  0.2795 -0.3905
50410SOL    HW161544   5.033   7.135   5.224 -0.2702  1.1975 -0.2249
50410SOL    HW261545   5.144   7.069   5.304 -1.0603 -0.9495 -0.8224
50411SOL     OW61546   8.876  10.116   8.087 -0.4081 -0.7490 -0.2079
50411SOL    HW161547   8.822  10.098   8.164 -1.3804  1.0193 -0.4116
50411SOL    HW261548   8.813  10.140   8.019  0.5336 -0.6110 -1.0580
50412SOL     OW61549   8.986   0.654   5.087 -0.0520 -0.0082  0.2723
50412SOL    HW161550   8.996   0.724   5.151 -0.4062  0.7673 -0.5021
50412SOL    HW261551   9.014   0.575   5.133 -0.3092  0.5280  1.3837
50413SOL     OW61552   3.325   2.706   4.945  0.1118 -0.1423 -0.5507
50413SOL    HW161553   3.258   2.775   4.944 -0.7045 -0.8790  0.4235
50413SOL    HW261554   3.303   2.650   4.871 -1.3216 -1.2087  0.5987
50414SOL     OW61555   4.654   8.773  12.618 -0.0130 -0.3906 -0.1291
50414SOL    HW161556   4.642   8.688  12.575 -1.2963  0.1923 -0.9977
50414SOL    HW261557   4.565   8.802  12.638  0.3761  0.9112 -0.1868
50415SOL     OW61558   6.062   3.128  10.018  0.1782 -0.3916  0.3317
50415SOL    HW161559   6.068   3.047   9.966 -4.4043  0.2098 -1.6545
50415SOL    HW261560   6.082   3.197   9.955 -2.3354  0.1923  0.0638
50416SOL     OW61561  10.594   8.690   1.887  0.1701 -0.5932  0.1650
50416SOL    HW161562  10.554   8.620   1.835  1.2273 -0.8486 -0.3326
50416SOL    HW261563  10.527   8.712   1.953 -0.9245 -0.7174 -0.8736
50417SOL     OW61564   7.661   1.146   7.060 -0.3992 -0.3854  0.2238
50417SOL    HW161565   7.740   1.151   7.113 -0.2982 -1.1410  0.1558
50417SOL    HW261566   7.590   1.170   7.121 -0.4988 -2.9266  1.2464
50418SOL     OW61567  12.605   1.004   5.555  0.3100 -0.4055  0.2017
50418SOL    HW161568  12.587   0.998   5.649  3.2527  1.6364  1.0488
50418SOL    HW261569  12.533   1.057   5.521  0.4333  0.9317  1.8443
50419SOL     OW61570   6.653   2.472   5.665 -0.1900  0.9908  0.3748
50419SOL    HW161571   6.645   2.394   5.721 -2.1073 -0.0681 -1.2627
50419SOL    HW261572   6.627   2.544   5.722 -0.4171  0.1682  1.3501
50420SOL     OW61573  10.527   6.561   9.139  0.1977  0.3370 -0.9579
50420SOL    HW161574  10.440   6.545   9.175  0.4422  1.2638  0.0979
50420SOL    HW261575  10.577   6.483   9.161  0.2319  0.7228  0.4206
50421SOL     OW61576  11.593   7.695  10.920 -0.0306  0.1196 -0.0716
50421SOL    HW161577  11.614   7.789  10.918  1.0005 -0.0643  1.0963
50421SOL    HW261578  11.572   7.677  11.012 -2.1558 -0.4138 -0.6159
50422SOL     OW61579   1.670  11.988   6.339  0.0211 -0.0218  0.3043
50422SOL    HW161580   1.745  11.964   6.284  2.0323  1.5046  2.1510
50422SOL    HW261581   1.603  11.924   6.318  1.8658 -1.5335 -1.4264
50423SOL     OW61582   0.955   0.008   9.193 -0.2733  0.1919 -0.3604
50423SOL    HW161583   0.936   0.060   9.115 -0.0374 -0.5251 -0.9133
50423SOL    HW261584   0.915  -0.077   9.176 -0.6859  0.1929  0.5433
50424SOL     OW61585   7.714  11.435   4.635 -0.2284 -0.2265  0.6041
50424SOL    HW161586   7.736  11.493   4.563  1.8200  0.0931  1.4087
50424SOL    HW261587   7.717  11.347   4.598 -1.0113  0.0341 -0.0911
50425SOL     OW61588   9.708   0.235   0.452 -0.2046 -0.0786 -0.2465
50425SOL    HW161589   9.781   0.177   0.474  1.9394  1.9514 -1.5020
50425SOL    HW261590   9.727   0.265   0.363 -1.0744  2.6705  0.3901
50426SOL     OW61591   1.060  10.022   5.660  0.0740  0.2852  0.3350
50426SOL    HW161592   1.019  10.020   5.746  0.6599 -1.1768  0.6070
50426SOL    HW261593   1.032   9.940   5.618 -0.4109  1.0811 -0.9816
50427SOL     OW61594   8.217   2.103   0.420 -0.0094 -0.0316  0.3209
50427SOL    HW161595   8.265   2.186   0.419 -0.3111  0.1310 -0.7841
50427SOL    HW261596   8.270   2.044   0.365 -1.2609  0.2687 -1.2636
50428SOL     OW61597   7.407   1.996   6.138 -0.5087 -0.0596 -0.5027
50428SOL    HW161598   7.313   2.014   6.149 -0.9364 -2.2831 -0.0303
50428SOL    HW261599   7.418   1.983   6.044 -0.7839 -0.2642 -0.5096
50429SOL     OW61600   4.074   7.430   3.575 -0.2036 -0.8278 -0.1080
50429SOL    HW161601   4.002   7.451   3.633 -0.0355  1.9080 -0.7659
50429SOL    HW261602   4.138   7.500   3.588  2.1841 -2.8852  0.0960
50430SOL     OW61603  12.962  11.174   1.468  0.2172 -0.3754  0.7046
50430SOL    HW161604  12.995  11.227   1.396 -0.0164 -1.5440 -0.2926
50430SOL    HW261605  12.973  11.229   1.545 -2.5798  2.2881 -0.5741
50431SOL     OW61606   1.970   7.560   8.205  0.3217 -0.0311 -0.8798
50431SOL    HW161607   1.882   7.553   8.241  0.7091  1.7400  0.5557
50431SOL    HW261608   2.027   7.524   8.273  0.8158  0.1351 -1.2016
50432SOL     OW61609   7.772   8.158  12.608 -0.7615  0.1450  0.1558
50432SOL    HW161610   7.842   8.222  12.592 -0.2441 -0.5838 -0.5736
50432SOL    HW261611   7.691   8.207  12.595 -0.4245  0.0041 -3.5221
50433SOL     OW61612   6.091   4.607   8.350 -0.0781  0.0331  0.1994
50433SOL    HW161613   6.015   4.550   8.360  1.9481 -2.7374  0.7821
50433SOL    HW261614   6.154   4.576   8.415  1.9215  1.6598 -0.8179
50434SOL     OW61615   8.866  12.627   7.923 -0.2938 -0.4783  0.0291
50434SOL    HW161616   8.879  12.644   7.830 -0.0474 -4.3572 -0.7854
50434SOL    HW261617   8.830  12.709   7.957  0.9165  1.5638 -3.1285
50435SOL     OW61618  12.027  11.562   6.805  0.1227  0.3151  0.0267
50435SOL    HW161619  11.969  11.504   6.856  0.4993  1.3870  1.7795
50435SOL    HW261620  11.993  11.558   6.716 -0.6101 -1.6270  0.3363
50436SOL     OW61621   0.200   9.914  11.970 -0.5470  0.3223  0.2122
50436SOL    HW161622   0.123   9.870  12.006 -0.7104  1.0635  0.7963
50436SOL    HW261623   0.180  10.007  11.978  0.2841  0.5166  0.0757
50437SOL     OW61624   0.685   4.401   7.383  0.4906  0.3533 -0.0041
50437SOL    HW161625   0.649   4.319   7.416  1.4567 -0.8511 -1.7823
50437SOL    HW261626   0.749   4.428   7.450 -1.2493  0.8106  1.5826
50438SOL     OW61627   4.927   4.565   6.978  0.1995 -0.0253  0.0790
50438SOL    HW161628   4.972   4.516   6.909  0.1491 -0.0507  0.0640
50438SOL    HW261629   4.927   4.505   7.053 -1.4001 -0.7419 -0.4580
50439SOL     OW61630  12.872   1.187   2.414  0.2250  0.0179  0.2492
50439SOL    HW161631  12.920   1.192   2.497  0.6926  0.0556 -0.0198
50439SOL    HW261632  12.869   1.093   2.393  0.2331  0.0206  0.2355
50440SOL     OW61633  11.548   5.889   8.891 -0.0945 -0.6219  0.2885
50440SOL    HW161634  11.576   5.803   8.858  1.5924 -0.0471  0.1320
50440SOL    HW261635  11.465   5.871   8.936 -0.9714 -1.9469 -1.6750
50441SOL     OW61636   8.729   0.871   5.406  0.0226 -1.0827 -0.3223
50441SOL    HW161637   8.697   0.943   5.351 -0.5182  0.0024  1.3209
50441SOL    HW261638   8.651   0.817   5.422 -0.2269 -0.4596  0.6980
50442SOL     OW61639   3.054   4.296   5.894  0.1806  0.4504 -0.3459
50442SOL    HW161640   2.998   4.219   5.882  1.5227 -0.6993  0.3675
50442SOL    HW261641   2.993   4.369   5.905 -1.1417 -0.5251 -0.9152
50443SOL     OW61642   8.318  11.539   8.450  0.2007 -0.2039  0.1649
50443SOL    HW161643   8.313  11.585   8.534 -1.3853  1.8813 -0.9673
50443SOL    HW261644   8.336  11.448   8.473  2.2901  0.7199  2.6090
50444SOL     OW61645  10.554   4.306  11.997 -0.0473 -0.4179 -0.4948
50444SOL    HW161646  10.522   4.355  12.072  0.1359  0.0101 -0.6889
50444SOL    HW261647  10.642   4.341  11.981  0.5021 -1.5178 -0.0188
50445SOL     OW61648   6.503   9.092   6.286 -0.7217 -0.2791  0.1881
50445SOL    HW161649   6.472   9.004   6.310 -2.4121  0.6323  1.5811
50445SOL    HW261650   6.509   9.090   6.191  0.1046 -2.1396  0.2233
50446SOL     OW61651   0.968  10.420  10.202  0.2045 -0.3901 -0.0769
50446SOL    HW161652   1.029  10.384  10.267 -0.8307  2.8001  2.9265
50446SOL    HW261653   0.882  10.394  10.233 -0.2616 -0.2637 -1.2212
50447SOL     OW61654   4.507   1.360   2.631 -0.6573  0.9821 -0.3298
50447SOL    HW161655   4.560   1.292   2.673  1.3063  1.7273 -1.4819
50447SOL    HW261656   4.463   1.404   2.703  2.2241  1.9329  0.9903
50448SOL     OW61657   5.415   3.854   7.685 -0.7507  0.2481 -0.3815
50448SOL    HW161658   5.371   3.791   7.742 -0.3090  0.6943  0.4676
50448SOL    HW261659   5.391   3.939   7.720  1.4418  0.5083  0.6361
50449SOL     OW61660   7.230   1.033   3.000 -0.0523  0.1529 -0.0994
50449SOL    HW161661   7.320   1.004   3.016  0.4776  1.5197 -0.4158
50449SOL    HW261662   7.236   1.088   2.922 -0.6549  2.3956  1.3313
50450SOL     OW61663   4.822   9.108   9.201  0.2939 -0.0973 -0.7237
50450SOL    HW161664   4.830   9.054   9.280  0.2987 -0.6515 -1.1009
50450SOL    HW261665   4.732   9.142   9.203  1.1164  2.2643  1.0311
50451SOL     OW61666   1.828   3.765  10.988 -0.1831  0.1416 -0.5069
50451SOL    HW161667   1.882   3.705  11.040 -1.7442 -0.2921  0.7179
50451SOL    HW261668   1.824   3.724  10.901 -0.7320 -1.2506  0.1430
50452SOL     OW61669   2.982   5.702   3.535  0.0118 -0.2082  0.3605
50452SOL    HW161670   3.042   5.684   3.607  0.8102  2.9722  0.6620
50452SOL    HW261671   3.023   5.660   3.459  0.8224 -0.9579  1.1880
50453SOL     OW61672  11.099   1.499   4.892 -0.0561  0.1407 -0.2300
50453SOL    HW161673  11.045   1.577   4.903  0.4588  0.8605 -2.3622
50453SOL    HW261674  11.039   1.426   4.904 -0.4846  0.8042  2.1178
50454SOL     OW61675   8.901   6.392   5.785  0.7854 -0.0872  0.3124
50454SOL    HW161676   8.985   6.346   5.795  0.8149 -0.1320 -0.1116
50454SOL    HW261677   8.848   6.363   5.859 -0.2481 -3.0803 -1.4378
50455SOL     OW61678   6.777   9.120  10.996  0.0669  0.0825  0.4146
50455SOL    HW161679   6.707   9.138  10.934 -0.8357 -3.2271  0.2715
50455SOL    HW261680   6.837   9.063  10.948  0.3548 -0.9886  1.9751
50456SOL     OW61681   1.499   9.370   7.758 -1.1215 -0.7145 -0.0515
50456SOL    HW161682   1.414   9.408   7.738 -0.2802  0.3260 -1.9535
50456SOL    HW261683   1.504   9.370   7.853 -1.8476  2.5369  0.1082
50457SOL     OW61684   3.588   2.837  12.949 -0.8696  0.6135 -0.0480
50457SOL    HW161685   3.555   2.807  12.865 -2.1717  0.6819  0.4243
50457SOL    HW261686   3.609   2.929  12.935  1.3998  0.0424 -0.9870
50458SOL     OW61687  11.235   1.913   0.964  0.3665 -0.6533 -0.2913
50458SOL    HW161688  11.180   1.862   1.023  1.2880  0.3511  1.5001
50458SOL    HW261689  11.226   1.869   0.879 -1.8633 -1.4835  0.3086
50459SOL     OW61690   7.852   3.936   6.668  0.0146  0.5305  0.9278
50459SOL    HW161691   7.918   3.994   6.706 -0.7214  0.3296  2.6012
50459SOL    HW261692   7.896   3.851   6.661  0.0725  0.4831  1.7047
50460SOL     OW61693  11.691   6.420   4.077 -0.1268  0.3199  0.2069
50460SOL    HW161694  11.620   6.384   4.129  1.7446 -1.2328  1.8338
50460SOL    HW261695  11.697   6.363   4.001 -0.3668  0.2241  0.2597
50461SOL     OW61696  12.883   2.232   6.371  0.0342  0.1509  0.4491
50461SOL    HW161697  12.907   2.163   6.432  0.3964 -0.0421  0.0964
50461SOL    HW261698  12.922   2.205   6.288 -0.8009  0.1963  0.0323
50462SOL     OW61699   3.033   8.606   4.056 -0.2534 -0.3131  0.0301
50462SOL    HW161700   3.039   8.698   4.083 -0.4225 -0.5356  0.8428
50462SOL    HW261701   3.057   8.556   4.134  1.3252 -0.9469 -0.8162
50463SOL     OW61702   9.583   4.887   9.226 -0.1580 -0.0769  0.2651
50463SOL    HW161703   9.637   4.881   9.306 -1.4886 -2.3215  1.0840
50463SOL    HW261704   9.502   4.842   9.249 -2.3111  2.7745 -1.0613
50464SOL     OW61705   7.214   1.158   5.295  0.2608  0.1433  0.1115
50464SOL    HW161706   7.299   1.148   5.251  0.0666  0.2554 -0.2925
50464SOL    HW261707   7.224   1.108   5.376  0.0983 -1.4253 -0.7850
50465SOL     OW61708   7.004   7.723   4.158 -0.2786 -0.3709  0.0960
50465SOL    HW161709   7.039   7.687   4.077 -1.3315 -1.3565  0.0655
50465SOL    HW261710   7.058   7.684   4.227  0.0906 -0.1554 -0.0613
50466SOL     OW61711   6.834   8.118   6.970 -0.2908  0.2326 -0.1364
50466SOL    HW161712   6.861   8.047   6.912 -0.5646 -0.9785  1.1597
50466SOL    HW261713   6.787   8.179   6.913 -1.2828 -1.3054 -1.0571
50467SOL     OW61714   5.917  11.882   0.167 -0.3235 -0.1167  0.2301
50467SOL    HW161715   5.900  11.871   0.074  1.9907 -0.3377 -0.2341
50467SOL    HW261716   5.862  11.956   0.194  1.9925  2.8156 -2.3444
50468SOL     OW61717   2.533  10.006  10.607  0.3487 -0.5745  0.5906
50468SOL    HW161718   2.539   9.927  10.552  2.9624  0.8562 -1.4047
50468SOL    HW261719   2.571   9.979  10.691 -2.3998 -2.4081  1.3876
50469SOL     OW61720   1.194   5.904  12.467  0.0684  0.2615  0.2721
50469SOL    HW161721   1.224   5.815  12.453  0.9280  0.0867  2.8180
50469SOL    HW261722   1.258   5.959  12.422  0.3200 -0.3503 -0.1149
50470SOL     OW61723   6.060   0.703   8.682 -0.9031 -0.3408 -0.6002
50470SOL    HW161724   6.038   0.654   8.602 -1.7266 -0.0319 -0.5739
50470SOL    HW261725   6.152   0.729   8.669 -0.6080 -1.4401 -0.8366
50471SOL     OW61726   1.690   4.404  12.585  0.5020  0.8436 -0.3572
50471SOL    HW161727   1.781   4.376  12.592 -0.0604 -0.9560  0.2930
50471SOL    HW261728   1.672   4.450  12.667  0.7921  1.1041 -0.4409
50472SOL     OW61729   6.482  11.035   6.829 -0.7935  0.4372  0.1737
50472SOL    HW161730   6.459  10.993   6.912 -0.5187 -0.3999 -0.1639
50472SOL    HW261731   6.404  11.027   6.775 -0.2489 -1.0909 -0.4502
50473SOL     OW61732  10.884   6.314   4.146  0.0444  0.3742 -0.3842
50473SOL    HW161733  10.839   6.306   4.062  0.0483  0.5689 -0.4044
50473SOL    HW261734  10.835   6.256   4.205 -1.4481  2.0681  0.0985
50474SOL     OW61735   6.785  10.370   0.547  0.4698 -0.0166 -0.9605
50474SOL    HW161736   6.705  10.375   0.600 -0.4298 -1.5639 -2.0713
50474SOL    HW261737   6.765  10.421   0.468  0.9989  0.4787 -0.7848
50475SOL     OW61738  10.599  10.727   8.601 -0.2539 -0.8665  0.5687
50475SOL    HW161739  10.694  10.716   8.610  0.4096  2.7640 -0.2715
50475SOL    HW261740  10.566  10.728   8.691  0.5900 -1.6059  0.8930
50476SOL     OW61741   3.344   8.960   0.751  0.0375  0.3629 -0.4067
50476SOL    HW161742   3.413   8.898   0.727 -0.4306 -0.5776  0.5601
50476SOL    HW261743   3.308   8.990   0.668  1.5429  0.8168 -0.9332
50477SOL     OW61744  11.393   3.694   7.735  0.0447  0.4733 -0.2989
50477SOL    HW161745  11.427   3.771   7.689  1.2345 -0.0124 -0.2711
50477SOL    HW261746  11.298   3.702   7.727  0.1883  0.9528 -1.9322
50478SOL     OW61747  12.371   6.985   6.095 -0.1942  0.4428 -0.0618
50478SOL    HW161748  12.344   6.980   6.004  1.3618 -1.5716 -0.4799
50478SOL    HW261749  12.442   7.049   6.096  0.0666  0.1620 -0.3609
50479SOL     OW61750  11.845   3.093  10.894 -0.2289 -0.3411  0.2129
50479SOL    HW161751  11.937   3.088  10.921  0.6321  1.1495 -2.1570
50479SOL    HW261752  11.796   3.086  10.975  1.9612 -1.2439  1.5496
50480SOL     OW61753   0.763  10.151   2.135  0.2120 -0.4319 -0.2283
50480SOL    HW161754   0.713  10.071   2.155 -0.1419 -0.2556 -0.4017
50480SOL    HW261755   0.744  10.169   2.043  0.5348 -0.3153 -0.2755
50481SOL     OW61756   0.157   7.807   7.297  0.8318 -0.2128 -0.3919
50481SOL    HW161757   0.085   7.842   7.243  0.0793  2.2409  1.9958
50481SOL    HW261758   0.115   7.779   7.378  2.2168 -1.8195 -0.1734
50482SOL     OW61759   0.992   6.229   7.714  0.3924 -0.2721  0.0993
50482SOL    HW161760   0.939   6.150   7.708  1.1843 -0.8263  0.1920
50482SOL    HW261761   1.053   6.223   7.640  0.8185 -0.0295  0.4237
50483SOL     OW61762   0.719   7.305  11.336  0.1695  0.2677 -0.0269
50483SOL    HW161763   0.653   7.264  11.281 -0.1980  1.6506 -0.6694
50483SOL    HW261764   0.683   7.298  11.425 -0.8375  0.9341 -0.3600
50484SOL     OW61765  11.721   8.693   3.226  0.1364 -0.8604 -0.4157
50484SOL    HW161766  11.644   8.751   3.221  1.1326  0.4182 -1.4221
50484SOL    HW261767  11.781   8.738   3.285  0.3841 -1.5457 -0.1335
50485SOL     OW61768   8.689   6.810   6.355 -0.1338  0.0063  0.1925
50485SOL    HW161769   8.609   6.863   6.349  0.0533  0.4646  1.4740
50485SOL    HW261770   8.751   6.853   6.296 -1.5268 -1.7890 -2.8649
50486SOL     OW61771   0.607   0.432   3.795  0.3938 -0.8116 -0.4288
50486SOL    HW161772   0.691   0.467   3.824  0.4625 -2.4353  1.5693
50486SOL    HW261773   0.552   0.509   3.781  0.8015  0.2618  2.9310
50487SOL     OW61774  12.780   5.293   9.975 -0.6067 -0.2613  0.2860
50487SOL    HW161775  12.791   5.362  10.039  0.8864  0.1326 -0.3339
50487SOL    HW261776  12.860   5.240   9.983 -0.8749 -0.8165 -0.5212
50488SOL     OW61777   4.264   5.486   6.669 -0.5235 -0.2769  0.6231
50488SOL    HW161778   4.255   5.405   6.720 -0.0764 -0.3504  0.5936
50488SOL    HW261779   4.235   5.555   6.729 -1.0567 -0.4720  0.5950
50489SOL     OW61780   2.791  10.936   4.838 -0.0757  0.0455  0.2814
50489SOL    HW161781   2.870  10.944   4.784 -1.5606  2.0782 -1.7452
50489SOL    HW261782   2.768  11.026   4.860 -3.1413 -0.2587 -1.2275
50490SOL     OW61783   7.486  12.544  11.154 -0.3335 -0.0994 -0.5229
50490SOL    HW161784   7.563  12.507  11.110 -0.0538 -0.9471  0.6334
50490SOL    HW261785   7.418  12.545  11.087 -0.1119 -1.9819 -0.8315
50491SOL     OW61786   3.988   0.829   4.269 -0.7179 -1.0742 -0.3223
50491SOL    HW161787   4.009   0.774   4.194  1.6447  1.5568 -1.8187
50491SOL    HW261788   3.931   0.897   4.233  0.1799  0.0343  0.2711
50492SOL     OW61789   2.711   8.066   6.880  0.1039  0.0167 -0.0235
50492SOL    HW161790   2.701   7.972   6.863  0.8719 -0.0669 -0.0562
50492SOL    HW261791   2.786   8.071   6.940  0.3395  0.6347 -0.3673
50493SOL     OW61792   6.857  11.722   9.460  0.4016  0.5922 -0.7383
50493SOL    HW161793   6.852  11.649   9.521  0.1636  1.1717 -0.0528
50493SOL    HW261794   6.944  11.713   9.419  1.2302  1.1083  0.8484
50494SOL     OW61795  10.217   0.538   4.172  0.4442 -0.1515 -0.5523
50494SOL    HW161796  10.124   0.545   4.193  0.4866  0.2173 -0.4908
50494SOL    HW261797  10.226   0.452   4.130 -0.1800  0.3750 -1.8336
50495SOL     OW61798  12.731  10.325  11.439  0.1876 -0.5071  0.1776
50495SOL    HW161799  12.713  10.242  11.395  0.1376 -0.3154 -0.1695
50495SOL    HW261800  12.779  10.376  11.374  1.1217 -0.6429  0.7487
50496SOL     OW61801   1.896  11.236   1.687 -0.5388  0.0876  0.1700
50496SOL    HW161802   1.849  11.320   1.692 -1.7822 -0.5382 -0.6619
50496SOL    HW261803   1.960  11.249   1.617 -0.2346  0.5658  0.5284
50497SOL     OW61804  11.018   6.334   6.027  0.7158 -0.5061  0.3109
50497SOL    HW161805  11.101   6.306   5.989  0.0273 -1.8771 -0.2400
50497SOL    HW261806  10.955   6.327   5.956  0.4477  2.6087  0.0830
50498SOL     OW61807  11.475   0.440   0.689  0.6139 -0.5221 -0.5314
50498SOL    HW161808  11.528   0.380   0.636  0.4328 -1.1105 -0.0653
50498SOL    HW261809  11.539   0.496   0.733  0.7905 -0.4187 -0.9191
50499SOL     OW61810   0.112   6.416   4.355  0.1150  0.2069 -0.3736
50499SOL    HW161811   0.182   6.430   4.292  1.2426 -2.7560  0.0495
50499SOL    HW261812   0.031   6.417   4.303  1.0143 -2.1681 -1.9840
50500SOL     OW61813   1.600   9.934   4.689 -0.5664 -0.4979 -0.6150
50500SOL    HW161814   1.540  10.008   4.698 -0.3684 -0.2103 -1.5431
50500SOL    HW261815   1.566   9.869   4.750 -0.4937  0.5066  0.5463
50501SOL     OW61816  10.197  10.858   7.373  0.3646 -0.5433 -0.6474
50501SOL    HW161817  10.231  10.770   7.359 -0.0609 -0.9139  0.5893
50501SOL    HW261818  10.103  10.846   7.387  0.4189  0.0111  0.2880
50502SOL     OW61819   9.582   4.522   7.279  0.3472  0.2860 -0.0365
50502SOL    HW161820   9.560   4.577   7.354  0.3915 -2.3032  2.0584
50502SOL    HW261821   9.663   4.559   7.244 -0.0389  1.9581  0.7634
50503SOL     OW61822   3.328   9.421   5.022  0.3934 -0.3147 -0.0298
50503SOL    HW161823   3.367   9.337   5.045  0.5905  0.1345  1.3820
50503SOL    HW261824   3.243   9.421   5.067  0.4187  0.2596  0.0234
50504SOL     OW61825   5.919   2.628  10.700  0.0188  0.2591 -0.1560
50504SOL    HW161826   5.915   2.608  10.607 -1.7605  0.8329 -0.2572
50504SOL    HW261827   6.012   2.633  10.721  0.5400  3.0249 -2.5682
50505SOL     OW61828   0.239   1.011  12.301  0.2423  0.1341  0.0124
50505SOL    HW161829   0.174   0.950  12.336  1.8789 -0.2394  2.7090
50505SOL    HW261830   0.219   1.016  12.208 -2.3872 -1.4568  0.3705
50506SOL     OW61831   7.023   0.140   1.662  0.4771  0.3367 -0.0534
50506SOL    HW161832   7.115   0.165   1.669  0.6031 -0.3152  0.8703
50506SOL    HW261833   7.021   0.050   1.692 -0.0929 -0.5316 -2.5107
50507SOL     OW61834   4.155   6.027   5.086 -0.0884 -0.0735  0.6592
50507SOL    HW161835   4.207   6.050   5.009 -0.3605 -0.9575  0.1984
50507SOL    HW261836   4.162   6.104   5.143  1.6997 -0.1472  0.6117
50508SOL     OW61837   7.074  10.461  11.538 -1.1043  0.0647  0.4921
50508SOL    HW161838   7.069  10.553  11.563 -0.6680  0.3654 -0.4788
50508SOL    HW261839   7.046  10.459  11.447  0.6598 -0.4778 -0.0808
50509SOL     OW61840   3.211   4.748   3.898  0.2861 -0.3009  0.1237
50509SOL    HW161841   3.148   4.814   3.869  1.4616  0.3050 -1.1847
50509SOL    HW261842   3.296   4.783   3.871  0.9713 -2.1873 -0.3117
50510SOL     OW61843   1.218   6.405   9.943  0.1992 -0.4208  0.0275
50510SOL    HW161844   1.171   6.323   9.954  0.0468 -0.5179 -1.1846
50510SOL    HW261845   1.309   6.379   9.931  0.1911 -0.3971 -0.0875
50511SOL     OW61846  10.559   4.116   1.153  0.4644  0.5038 -0.2071
50511SOL    HW161847  10.622   4.078   1.214  0.0626  1.2259  0.6870
50511SOL    HW261848  10.587   4.207   1.143  0.6801  0.3369 -1.3323
50512SOL     OW61849   1.220   9.454   3.316  0.1143  0.3286 -0.1849
50512SOL    HW161850   1.261   9.540   3.325  1.7924 -0.4972  0.4348
50512SOL    HW261851   1.285   9.401   3.270  1.4167 -2.0465  3.9393
50513SOL     OW61852   0.614  12.643   8.286 -0.3276  0.0406  0.0360
50513SOL    HW161853   0.704  12.672   8.270 -0.1492 -0.5135  0.0106
50513SOL    HW261854   0.596  12.669   8.376 -0.5047  1.0669 -0.2882
50514SOL     OW61855   9.728   3.379   5.231  0.1377 -0.1663 -0.2663
50514SOL    HW161856   9.724   3.343   5.143  1.3200  1.5500 -1.0828
50514SOL    HW261857   9.817   3.414   5.239  0.4477 -1.3325  2.0628
50515SOL     OW61858   3.610   7.312  11.376 -0.5537  0.3568 -0.0694
50515SOL    HW161859   3.611   7.373  11.303  0.6814  0.1182 -0.2846
50515SOL    HW261860   3.518   7.305  11.401 -0.8101  1.6609 -0.5712
50516SOL     OW61861  10.830   1.483   5.512  0.0394  0.1263 -0.0523
50516SOL    HW161862  10.775   1.538   5.457 -2.1300  0.0411  1.8501
50516SOL    HW261863  10.914   1.478   5.466 -0.7398  2.2920 -1.8963
50517SOL     OW61864   8.277  12.924   4.159 -0.3789  0.0663 -0.1883
50517SOL    HW161865   8.358  12.925   4.210  0.0703  3.2101 -0.7421
50517SOL    HW261866   8.242  12.835   4.169  3.4612 -1.6451 -0.5298
50518SOL     OW61867   9.441   3.207   1.779 -0.2383  0.5910 -0.1343
50518SOL    HW161868   9.523   3.224   1.733 -0.4198  0.5816 -0.4616
50518SOL    HW261869   9.373   3.236   1.718 -0.5027  0.0475 -0.1022
50519SOL     OW61870  10.409   0.249   3.840 -0.5853  0.2393  0.3173
50519SOL    HW161871  10.336   0.187   3.844 -0.8541  0.5741  0.8116
50519SOL    HW261872  10.415   0.274   3.747 -3.0061  2.3953  0.6098
50520SOL     OW61873  11.545  12.362   0.596 -0.4400 -0.4690  0.8396
50520SOL    HW161874  11.636  12.388   0.581 -0.8285  0.3116 -0.2691
50520SOL    HW261875  11.495  12.443   0.591 -1.4206 -1.1183 -0.5101
50521SOL     OW61876   4.076   9.212   4.685 -0.2426 -0.0783  0.4423
50521SOL    HW161877   4.037   9.240   4.602 -1.2194 -0.4191  0.7714
50521SOL    HW261878   4.133   9.284   4.711 -0.9864  0.6256  0.1576
50522SOL     OW61879  11.920   6.832   6.061 -0.1379  0.0429 -0.0787
50522SOL    HW161880  11.945   6.921   6.036  0.7651  0.7737  2.9779
50522SOL    HW261881  12.003   6.785   6.069 -0.5550 -0.8547 -0.8259
50523SOL     OW61882   7.881   8.312   9.194  0.3527 -0.3695  0.5801
50523SOL    HW161883   7.910   8.268   9.114 -0.0622 -0.8122  0.6628
50523SOL    HW261884   7.866   8.403   9.167 -1.4572 -0.8671 -0.3072
50524SOL     OW61885  11.846   1.163  10.240  0.3690  0.2602 -0.8743
50524SOL    HW161886  11.813   1.250  10.219  1.4190  0.7485 -0.6041
50524SOL    HW261887  11.789   1.103  10.193 -1.8003  0.9535  0.7305
50525SOL     OW61888   0.207  11.786  10.700  0.1352 -0.2417 -0.5183
50525SOL    HW161889   0.202  11.857  10.765  0.6263  0.2471 -1.0046
50525SOL    HW261890   0.131  11.799  10.644  0.8896  0.6672 -1.3631
50526SOL     OW61891  11.033   2.652  10.945  0.0366  0.7250 -0.2172
50526SOL    HW161892  11.034   2.596  11.023 -0.5842  2.0557  0.7924
50526SOL    HW261893  10.966   2.718  10.964  0.9167  1.9695 -1.2417
50527SOL     OW61894   0.320   0.100   1.009 -0.0521  0.1621  0.1608
50527SOL    HW161895   0.385   0.152   0.962 -0.4860  0.3556 -0.2323
50527SOL    HW261896   0.372   0.036   1.059  0.4346  0.2724 -0.1974
50528SOL     OW61897   6.754   2.475   6.515  0.1353 -0.0979 -0.1780
50528SOL    HW161898   6.841   2.441   6.537  1.1760  1.9176 -0.9395
50528SOL    HW261899   6.699   2.450   6.590  1.9191  0.6098  1.4471
50529SOL     OW61900   8.583  11.906  12.170 -0.8233 -0.2621  0.1202
50529SOL    HW161901   8.547  11.865  12.248 -1.5037  0.2003  0.0559
50529SOL    HW261902   8.545  11.857  12.097 -0.4744 -0.4609  0.0710
50530SOL     OW61903  11.167  12.687   2.719 -0.6585  0.2691 -0.2801
50530SOL    HW161904  11.152  12.630   2.643 -2.1012 -0.4311  0.4832
50530SOL    HW261905  11.079  12.708   2.750 -0.1754  2.8046 -0.4099
50531SOL     OW61906   7.615  11.761   2.605 -0.0350 -0.1661 -0.2533
50531SOL    HW161907   7.580  11.827   2.666 -0.5299 -0.5627 -0.1071
50531SOL    HW261908   7.687  11.720   2.653 -0.2995 -0.3448 -0.0126
50532SOL     OW61909   3.080   5.102   1.803  0.6596  0.3687 -0.1374
50532SOL    HW161910   3.124   5.021   1.828  1.4370  0.8150 -0.0569
50532SOL    HW261911   3.148   5.157   1.764 -0.1712  0.3542 -1.7237
50533SOL     OW61912  10.706   1.285  11.505 -0.0116 -0.2784 -0.1424
50533SOL    HW161913  10.691   1.290  11.410 -0.6997 -1.6777 -0.1425
50533SOL    HW261914  10.642   1.220  11.535  3.2139 -3.4787  0.5378
50534SOL     OW61915   8.620   1.691  12.696 -0.0836  0.3691  0.4905
50534SOL    HW161916   8.598   1.645  12.616 -1.4530  1.3615  0.2666
50534SOL    HW261917   8.674   1.765  12.668 -0.6831  0.7997  0.4471
50535SOL     OW61918  10.183   1.587   7.768  0.3561 -0.2838  0.2538
50535SOL    HW161919  10.254   1.543   7.815  0.9183  2.1783  1.9273
50535SOL    HW261920  10.123   1.616   7.837 -1.4297 -0.8356 -1.0056
50536SOL     OW61921   1.794  10.856   4.323 -0.0654  1.0243 -0.0911
50536SOL    HW161922   1.720  10.879   4.381 -0.7832 -0.4219 -0.3982
50536SOL    HW261923   1.843  10.790   4.372 -0.2222  0.3810 -0.7961
50537SOL     OW61924  12.890   9.083   5.225  0.5266  0.0347 -0.1092
50537SOL    HW161925  12.872   9.104   5.317  1.2946  2.4738 -0.4468
50537SOL    HW261926  12.977   9.043   5.226  1.2767  1.5792  0.1233
50538SOL     OW61927   4.364   8.983   9.478 -0.1924 -0.0036  0.1723
50538SOL    HW161928   4.333   9.062   9.524 -2.2533 -1.2665  1.1022
50538SOL    HW261929   4.318   8.984   9.395  2.0547  1.2419 -1.1702
50539SOL     OW61930  10.045   0.919   5.681  0.2971 -0.7379 -0.4876
50539SOL    HW161931  10.015   0.930   5.772  0.6134 -0.0209 -0.4646
50539SOL    HW261932  10.101   0.842   5.684  1.5777  0.1897  0.2606
50540SOL     OW61933   1.590   6.990   7.925 -0.6028 -0.0996  0.0867
50540SOL    HW161934   1.520   7.021   7.868 -0.0501  3.1545  1.0059
50540SOL    HW261935   1.670   7.002   7.874 -0.4513 -1.5144 -0.0611
50541SOL     OW61936   4.856  12.819   2.975 -0.1928  0.2888 -0.2195
50541SOL    HW161937   4.817  12.736   2.948  0.2623  0.5120 -1.6411
50541SOL    HW261938   4.949  12.799   2.987 -0.2980  0.3148  0.7479
50542SOL     OW61939   7.854   0.579   2.703  0.2612 -0.0536  0.0711
50542SOL    HW161940   7.887   0.645   2.641  0.0981  0.0854  0.1321
50542SOL    HW261941   7.760   0.595   2.707  0.1515 -0.5941 -0.2725
50543SOL     OW61942   0.198   6.596   0.149  0.0240  0.0822  0.0660
50543SOL    HW161943   0.151   6.667   0.193  0.7934  1.6371 -1.4661
50543SOL    HW261944   0.131   6.549   0.101 -0.5854 -0.6392  1.5734
50544SOL     OW61945   1.943   3.186   3.203  0.0036 -0.4659 -0.0334
50544SOL    HW161946   1.971   3.121   3.267 -0.2043 -0.8764 -0.3570
50544SOL    HW261947   2.019   3.200   3.147  0.3704  0.3086  0.6286
50545SOL     OW61948   9.895  11.982   4.363 -0.3913 -0.6476  0.0077
50545SOL    HW161949   9.938  11.955   4.444  1.1733 -0.1372 -0.6226
50545SOL    HW261950   9.941  12.061   4.336 -3.4178  1.5068  0.6259
50546SOL     OW61951  12.970   5.924   4.186  0.3766 -0.0270 -0.0173
50546SOL    HW161952  12.965   5.836   4.148  1.9864  0.0923 -0.5794
50546SOL    HW261953  13.033   5.915   4.258 -0.3149  0.4291  0.6564
50547SOL     OW61954   9.642  10.844   8.293 -0.9958 -0.1358 -0.1473
50547SOL    HW161955   9.650  10.921   8.349 -1.4151 -0.1820 -0.0218
50547SOL    HW261956   9.557  10.854   8.250 -1.5353 -1.0530  0.6665
50548SOL     OW61957   4.065  12.655   5.470 -0.0882  0.7734  0.1725
50548SOL    HW161958   4.161  12.660   5.464 -0.0776  0.0332 -0.5373
50548SOL    HW261959   4.036  12.655   5.378 -0.5657 -2.1990  0.2187
50549SOL     OW61960   9.658   0.630   8.291 -0.3845 -0.5620  0.5334
50549SOL    HW161961   9.728   0.682   8.328 -0.8413  2.1430 -2.0636
50549SOL    HW261962   9.700   0.578   8.222 -0.6565 -0.0737 -0.0109
50550SOL     OW61963   6.294  10.146   2.667  0.5598  0.5193  0.4770
50550SOL    HW161964   6.325  10.117   2.581 -0.3021 -0.5859  0.5206
50550SOL    HW261965   6.199  10.143   2.660  0.4825  0.4881  1.4497
50551SOL     OW61966   8.179   7.414   6.561 -0.0446  0.5318  0.1206
50551SOL    HW161967   8.089   7.426   6.590 -0.1523  1.2509 -0.4863
50551SOL    HW261968   8.209   7.501   6.537  0.7184  0.2554  0.0381
50552SOL     OW61969  11.995   5.196   3.911 -0.2641 -0.3198  0.3534
50552SOL    HW161970  12.015   5.281   3.871 -0.7518 -0.0818  0.6015
50552SOL    HW261971  12.014   5.132   3.843  2.2013 -0.2024  0.8320
50553SOL     OW61972   0.707  12.720   2.508  0.6585  0.8132 -0.0020
50553SOL    HW161973   0.777  12.766   2.554  0.5914  0.6931  0.2223
50553SOL    HW261974   0.631  12.777   2.516  1.0707  1.6251 -1.4641
50554SOL     OW61975   4.234   7.906   8.443  0.5873 -0.8493  0.3747
50554SOL    HW161976   4.252   8.000   8.444  1.3878 -0.9862  0.1366
50554SOL    HW261977   4.161   7.895   8.503 -1.8996  0.3792 -2.2115
50555SOL     OW61978   2.200   2.179   1.364 -0.7445  0.2038 -0.5856
50555SOL    HW161979   2.184   2.116   1.434 -0.9108 -0.1800 -0.9619
50555SOL    HW261980   2.153   2.143   1.288  0.9280 -0.3589 -1.4103
50556SOL     OW61981   0.008   0.103   7.862  0.4136 -0.8553  0.3989
50556SOL    HW161982   0.091   0.148   7.878 -1.0642  1.6244  1.7641
50556SOL    HW261983  -0.013   0.126   7.771  0.0879  0.6142  0.8135
50557SOL     OW61984   2.161   5.892   8.663  0.4778 -0.2753  0.0794
50557SOL    HW161985   2.119   5.824   8.610 -0.3432  0.5266 -0.3279
50557SOL    HW261986   2.153   5.972   8.611  0.9702  0.2439  0.7720
50558SOL     OW61987   1.709   0.825   0.505 -0.5233 -0.1049  0.2946
50558SOL    HW161988   1.734   0.909   0.465 -0.0422 -0.1040  0.5846
50558SOL    HW261989   1.781   0.766   0.482 -1.1358 -0.5898 -0.3859
50559SOL     OW61990   3.358  12.782   0.283  0.5092  0.4365 -0.0805
50559SOL    HW161991   3.362  12.697   0.240  0.4631  0.4207 -0.0540
50559SOL    HW261992   3.442  12.789   0.330 -0.0329 -0.1852  1.0285
50560SOL     OW61993   6.201   2.467   0.519  0.1755 -0.1516  0.6081
50560SOL    HW161994   6.152   2.499   0.594  0.1162 -0.3044  0.6362
50560SOL    HW261995   6.134   2.434   0.459  0.2989 -1.7096  1.2740
50561SOL     OW61996   9.699   1.942  12.444  0.1724  1.0124  0.2667
50561SOL    HW161997   9.686   1.847  12.452 -1.7441  1.1782 -0.1993
50561SOL    HW261998   9.750   1.966  12.520  1.0278 -0.4480  0.1925
50562SOL     OW61999   0.224   0.557   4.370  0.5305 -0.0408  0.7092
50562SOL    HW162000   0.299   0.615   4.358 -0.3493  1.0292  0.1618
50562SOL    HW262001   0.154   0.598   4.320 -0.1596 -1.5461  0.3684
50563SOL     OW62002   5.647   2.109  12.923  0.1675 -0.1341 -0.2388
50563SOL    HW162003   5.672   2.099  13.014 -2.2920 -2.9424  0.2775
50563SOL    HW262004   5.678   2.029  12.880  1.0873  1.0327 -1.8777
50564SOL     OW62005   1.550  10.298   4.545 -0.0842  0.1421  0.1160
50564SOL    HW162006   1.474  10.269   4.596  1.2545 -1.6400  1.1918
50564SOL    HW262007   1.559  10.233   4.476 -0.0489  0.8509 -0.5647
50565SOL     OW62008  10.652   4.403   4.423  0.5393  0.1486 -0.0550
50565SOL    HW162009  10.631   4.437   4.336  0.4510  0.2701  0.0143
50565SOL    HW262010  10.669   4.480   4.476 -0.8902  0.1680  0.4279
50566SOL     OW62011   3.360   1.960  12.082  0.0475  0.2447  0.2557
50566SOL    HW162012   3.416   1.894  12.041 -0.7642 -0.5723  0.4115
50566SOL    HW262013   3.338   1.923  12.167 -0.1159  0.8962  0.5040
50567SOL     OW62014   6.064  11.485   3.759  0.4660 -0.2478  0.4110
50567SOL    HW162015   6.059  11.479   3.854 -0.3350  2.4899  0.6107
50567SOL    HW262016   5.974  11.482   3.729  0.5169  1.3723 -0.0113
50568SOL     OW62017   7.509   2.691   6.495  0.3495  0.4443  0.1087
50568SOL    HW162018   7.500   2.751   6.421 -1.1555  1.8935  1.4013
50568SOL    HW262019   7.425   2.695   6.540  0.3100 -2.3837  0.4925
50569SOL     OW62020   0.314   6.565   4.784  0.2052  0.1864 -0.6589
50569SOL    HW162021   0.367   6.630   4.738  0.9944 -0.5963 -0.8814
50569SOL    HW262022   0.317   6.487   4.728  1.2151 -0.8034  0.7121
50570SOL     OW62023   4.909   8.002   0.625  0.0278 -0.2587 -0.0001
50570SOL    HW162024   4.984   7.943   0.638  1.3029  0.9577 -1.5114
50570SOL    HW262025   4.838   7.960   0.674  1.6188 -1.5528  1.3508
50571SOL     OW62026  11.139   6.363   5.154 -0.2437 -0.1370  0.1592
50571SOL    HW162027  11.154   6.273   5.127  2.3301  0.4379 -0.5967
50571SOL    HW262028  11.099   6.356   5.241 -1.6853 -1.9639 -0.5871
50572SOL     OW62029  10.054   8.366   8.854  0.0492 -0.6417 -0.5013
50572SOL    HW162030   9.962   8.352   8.877 -0.1336  0.3451 -0.5910
50572SOL    HW262031  10.101   8.356   8.937 -0.6960  3.7405  0.6906
50573SOL     OW62032   2.212   4.029   7.990  0.0019 -0.1146 -0.3753
50573SOL    HW162033   2.122   4.048   7.963  0.5635 -1.1768 -3.4626
50573SOL    HW262034   2.208   3.939   8.023 -0.3847  0.5859  1.5965
50574SOL     OW62035   8.017  11.501   7.326 -0.0392  0.7333  0.2636
50574SOL    HW162036   8.084  11.448   7.369  1.1004  1.2386 -0.7918
50574SOL    HW262037   8.020  11.472   7.234 -1.0961  0.9464  0.1550
50575SOL     OW62038   7.348   6.760   6.949  0.2239  0.1294  0.6936
50575SOL    HW162039   7.431   6.733   6.908  0.3349 -0.8523  1.5346
50575SOL    HW262040   7.359   6.738   7.042 -1.5735 -1.5010  0.5731
50576SOL     OW62041   7.889   1.122   8.611  0.7453  0.0287  0.7194
50576SOL    HW162042   7.799   1.150   8.595  0.9309  0.0792 -0.2727
50576SOL    HW262043   7.903   1.049   8.550  2.1981  1.6734 -1.0261
50577SOL     OW62044   9.369   9.931  10.819 -0.3141  0.5489 -0.4832
50577SOL    HW162045   9.353   9.984  10.741 -0.7988  0.2113 -0.6173
50577SOL    HW262046   9.425   9.859  10.788  1.1215  1.4584 -0.1171
50578SOL     OW62047   3.889   2.263   7.971  0.4037 -0.2423  0.0476
50578SOL    HW162048   3.881   2.355   7.944  2.8128  0.3789  1.2152
50578SOL    HW262049   3.932   2.221   7.897  0.7936 -0.0464  0.1576
50579SOL     OW62050  12.733   0.231   4.377 -0.0134 -0.1364  0.4127
50579SOL    HW162051  12.763   0.153   4.329  0.6073  0.6336 -0.4808
50579SOL    HW262052  12.653   0.203   4.420 -0.5109 -0.9219 -0.9496
50580SOL     OW62053  12.189   2.304  11.485  0.8869 -0.0638 -0.7814
50580SOL    HW162054  12.253   2.251  11.533  1.0971  1.2668  0.4978
50580SOL    HW262055  12.181   2.261  11.400  2.7176 -0.8411 -0.6111
50581SOL     OW62056   4.813   0.652  12.284 -0.7955 -0.3192 -0.0626
50581SOL    HW162057   4.814   0.623  12.375  0.4063  1.5806  0.5862
50581SOL    HW262058   4.745   0.719  12.281 -0.8371 -0.3788 -0.5796
50582SOL     OW62059   3.608  10.286  10.254 -0.3319 -0.0162 -0.2328
50582SOL    HW162060   3.526  10.274  10.206 -0.1678 -0.4965 -0.3983
50582SOL    HW262061   3.581  10.317  10.340 -0.6991 -0.3926 -0.2126
50583SOL     OW62062   7.969   3.054   2.086  0.2110 -0.3428 -0.3874
50583SOL    HW162063   7.933   3.129   2.134 -1.2974 -1.0001 -0.4462
50583SOL    HW262064   8.051   3.035   2.131 -0.9658 -0.7168  1.7648
50584SOL     OW62065   4.881  10.621   9.743  0.2282 -0.3897 -0.0131
50584SOL    HW162066   4.934  10.593   9.818  0.0426 -0.9481 -0.0891
50584SOL    HW262067   4.863  10.714   9.760  1.8784  0.0242 -0.3657
50585SOL     OW62068  11.985  10.709   9.589 -0.0521  0.2522 -0.4932
50585SOL    HW162069  11.953  10.619   9.583 -0.8870  0.4167  1.0413
50585SOL    HW262070  11.996  10.725   9.683 -0.0604  1.7995 -0.7274
50586SOL     OW62071   3.643   7.052   0.679  0.0489 -0.1448  0.1252
50586SOL    HW162072   3.679   7.060   0.591  0.9936  1.0211  0.5941
50586SOL    HW262073   3.634   6.958   0.694  2.5494 -0.4767 -0.1613
50587SOL     OW62074   3.911  10.370   7.376  0.5582  0.2540  0.0368
50587SOL    HW162075   3.975  10.330   7.317 -0.8481  0.9153 -2.0196
50587SOL    HW262076   3.931  10.463   7.374  0.3013  0.3177  0.3643
50588SOL     OW62077  12.148   7.821  11.410  0.0961 -0.4985  0.1307
50588SOL    HW162078  12.115   7.817  11.320  1.7409  1.6057 -0.6507
50588SOL    HW262079  12.071   7.803  11.465 -1.2855 -0.3462 -1.6643
50589SOL     OW62080   0.878   3.001   4.732  0.3276 -0.4877 -0.2075
50589SOL    HW162081   0.951   3.056   4.762  0.1540 -0.5377  0.3117
50589SOL    HW262082   0.803   3.060   4.732  0.2729 -0.5560 -0.3092
50590SOL     OW62083   7.596   9.407   2.016 -0.1930  0.9485  0.0622
50590SOL    HW162084   7.591   9.315   2.044  0.1630  1.2969  1.3087
50590SOL    HW262085   7.513   9.445   2.044 -0.1471  1.1198 -0.0345
50591SOL     OW62086   9.505  12.769   8.056 -0.0557 -0.1254 -0.4584
50591SOL    HW162087   9.539  12.858   8.059 -1.1157  0.2893 -0.0121
50591SOL    HW262088   9.552  12.723   8.126 -1.5202  0.8732  1.2752
50592SOL     OW62089   1.817   8.553   8.599 -0.3285  0.1153 -0.1881
50592SOL    HW162090   1.906   8.554   8.564 -0.6580 -1.9775 -1.2357
50592SOL    HW262091   1.766   8.605   8.537 -0.2967 -0.8954 -1.0914
50593SOL     OW62092   3.087   3.795  11.030 -0.3628  0.2413  0.9690
50593SOL    HW162093   3.140   3.828  10.957 -1.1252 -2.8516 -1.1714
50593SOL    HW262094   3.003   3.841  11.022 -0.1872  0.4594  0.3690
50594SOL     OW62095   7.317   8.787   9.734 -0.2909  0.0200  0.1173
50594SOL    HW162096   7.234   8.834   9.727 -0.6215 -0.7293 -1.2676
50594SOL    HW262097   7.371   8.823   9.663  0.2240 -0.1903  0.3962
50595SOL     OW62098   1.390   0.474   5.975  0.2129  0.6115  0.6240
50595SOL    HW162099   1.416   0.447   6.063  0.4644  1.5555  0.8557
50595SOL    HW262100   1.472   0.488   5.928  0.0785 -0.6467 -0.0178
50596SOL     OW62101  11.914   2.450   1.900  0.1934  0.1764  0.4874
50596SOL    HW162102  11.934   2.543   1.890 -1.4277  0.5015  0.0483
50596SOL    HW262103  11.966   2.422   1.975  0.6635  1.4446  0.6542
50597SOL     OW62104   2.037   6.136  10.471  0.2136  0.5131  0.2476
50597SOL    HW162105   2.063   6.192  10.544 -2.5196 -1.4450  2.9948
50597SOL    HW262106   2.027   6.196  10.398  0.5344  3.0898  2.1622
50598SOL     OW62107   7.492   7.217   8.856  0.0740  0.2531 -0.6889
50598SOL    HW162108   7.564   7.281   8.865 -0.7035  1.3786 -2.0100
50598SOL    HW262109   7.493   7.194   8.763 -1.0714  0.0469 -0.6572
50599SOL     OW62110   8.851   0.481  10.963 -0.1033 -0.5640  0.1525
50599SOL    HW162111   8.838   0.568  10.925 -0.9871 -0.3365  0.9130
50599SOL    HW262112   8.812   0.421  10.900  0.1935 -0.3735 -0.2126
50600SOL     OW62113   1.091   4.609   5.503  0.2274  0.0906  0.5431
50600SOL    HW162114   1.160   4.599   5.437 -1.5228  0.7751 -1.4996
50600SOL    HW262115   1.054   4.695   5.487 -0.2405  0.3084  2.5016
50601SOL     OW62116   0.071   8.258   5.820 -0.4250  0.0148 -0.8259
50601SOL    HW162117   0.079   8.195   5.748  1.9170 -1.7950  0.8540
50601SOL    HW262118   0.160   8.267   5.854 -1.2303  1.8035  1.0452
50602SOL     OW62119   5.698   2.230   7.580  0.1397  0.6373  0.2637
50602SOL    HW162120   5.678   2.321   7.603 -2.2468  0.4943 -0.9185
50602SOL    HW262121   5.677   2.224   7.487 -0.7435 -1.3707  0.5432
50603SOL     OW62122   6.272   2.100  10.624 -0.2811  0.0865  0.4638
50603SOL    HW162123   6.276   2.014  10.666 -2.6583  0.5899  1.8734
50603SOL    HW262124   6.209   2.088  10.552 -0.9911  0.7420  0.9653
50604SOL     OW62125   9.638   8.334   8.629 -0.0562  0.3049 -0.0616
50604SOL    HW162126   9.560   8.324   8.685 -0.9320 -0.0451 -1.3101
50604SOL    HW262127   9.655   8.428   8.630  0.4612  0.2196  1.4577
50605SOL     OW62128   3.901  11.573   6.481  0.1523 -0.1799  0.3556
50605SOL    HW162129   3.852  11.621   6.415  0.5648  0.0221  0.1916
50605SOL    HW262130   3.902  11.630   6.558  3.2386  1.5192 -0.7708
50606SOL     OW62131  11.373  11.008   8.014 -0.2559  0.1225 -0.3096
50606SOL    HW162132  11.362  11.102   8.027  1.4852  0.7925 -2.9637
50606SOL    HW262133  11.317  10.987   7.939  1.2265 -0.4164 -1.3032
50607SOL     OW62134   2.164   4.052   0.015 -0.0992  0.5350  0.4337
50607SOL    HW162135   2.078   4.068   0.053 -0.0300  1.6516  0.1574
50607SOL    HW262136   2.187   3.964   0.045 -1.2039  0.3322  0.7435
50608SOL     OW62137  12.307   6.257   0.658 -0.2078  0.0367 -0.8840
50608SOL    HW162138  12.325   6.278   0.749 -0.5124 -0.2346 -0.7567
50608SOL    HW262139  12.322   6.162   0.652  0.3424  0.1416 -1.2459
50609SOL     OW62140  11.474  10.566   2.452 -0.9899 -0.1433  0.1503
50609SOL    HW162141  11.463  10.488   2.398 -1.9037 -0.1667  0.3537
50609SOL    HW262142  11.414  10.554   2.526 -1.6198  1.0269 -0.1358
50610SOL     OW62143   1.284   7.375   0.123 -0.4716  0.4093  0.5983
50610SOL    HW162144   1.273   7.292   0.170 -0.1241  0.2886  0.4686
50610SOL    HW262145   1.256   7.357   0.034 -0.9157  0.5795  0.7005
50611SOL     OW62146   7.462   5.739   7.579 -0.1955 -0.2426 -0.2847
50611SOL    HW162147   7.403   5.697   7.642  2.6567 -2.1366  1.3640
50611SOL    HW262148   7.475   5.827   7.614 -2.4423  0.5025 -1.0858
50612SOL     OW62149  12.672   5.612  10.535  0.3514  0.2035 -0.3738
50612SOL    HW162150  12.653   5.559  10.613  0.4844  0.6858 -0.0077
50612SOL    HW262151  12.749   5.664  10.559 -0.0544  0.9007 -0.5561
50613SOL     OW62152   2.831  10.105   9.370  0.6606  0.4858  0.2393
50613SOL    HW162153   2.855  10.023   9.327  0.5288 -0.8186  2.5011
50613SOL    HW262154   2.915  10.145   9.394  0.7312 -0.5428  1.8285
50614SOL     OW62155   7.637   2.958   3.188  0.0758  0.0569  0.3605
50614SOL    HW162156   7.689   3.020   3.240 -0.5829 -0.3253  1.5238
50614SOL    HW262157   7.630   2.998   3.102  5.3915 -1.4881 -1.1765
50615SOL     OW62158  11.413  12.779   2.630 -0.5986 -0.5256  0.2534
50615SOL    HW162159  11.378  12.859   2.590 -0.2208 -1.2407 -1.6122
50615SOL    HW262160  11.343  12.749   2.689 -1.4783  0.2327 -0.3740
50616SOL     OW62161  12.212   2.791   3.720  0.5006 -0.1881  0.1076
50616SOL    HW162162  12.175   2.770   3.805  2.1972 -3.0058  0.2974
50616SOL    HW262163  12.230   2.885   3.723  3.7381 -0.6795  4.3043
50617SOL     OW62164   8.397   2.210   3.678 -0.0804 -0.2846  0.5438
50617SOL    HW162165   8.337   2.136   3.685  1.0275 -1.1015  2.0146
50617SOL    HW262166   8.422   2.229   3.768  2.4761 -0.4909 -0.0562
50618SOL     OW62167  10.020   5.490   4.380  0.2204  0.1413  0.3409
50618SOL    HW162168  10.115   5.481   4.369  0.1796  1.1370 -1.1989
50618SOL    HW262169  10.001   5.445   4.462  2.0116 -0.1475  0.6477
50619SOL     OW62170  11.651   0.401  11.770 -0.2218 -0.1249  0.5143
50619SOL    HW162171  11.581   0.404  11.704 -0.7577  0.2335  1.0895
50619SOL    HW262172  11.729   0.377  11.720 -0.0228  2.8015 -0.8035
50620SOL     OW62173   1.334   4.732   6.231  0.4336 -0.0288 -0.0578
50620SOL    HW162174   1.354   4.638   6.229  1.1966  0.1323 -0.1366
50620SOL    HW262175   1.314   4.754   6.140  1.9184  0.2303 -0.3390
50621SOL     OW62176  10.331  11.257   1.700  0.0356 -0.5840  0.0966
50621SOL    HW162177  10.287  11.180   1.663  0.8655 -0.6802 -0.7259
50621SOL    HW262178  10.366  11.304   1.624 -2.8097  2.1528  0.2795
50622SOL     OW62179   5.771   2.925   2.922  1.0538  0.1366 -0.0090
50622SOL    HW162180   5.724   2.992   2.873  1.1349  1.1025  1.1799
50622SOL    HW262181   5.816   2.873   2.856  1.3518  1.5376 -0.9352
50623SOL     OW62182  10.219  11.877   8.556  0.0274  0.4715  0.1762
50623SOL    HW162183  10.202  11.967   8.585 -0.8569  0.6893 -0.9406
50623SOL    HW262184  10.195  11.877   8.464  0.0727 -0.9039  0.1482
50624SOL     OW62185   6.966   0.194   2.357 -0.5590  0.5073 -0.3319
50624SOL    HW162186   6.972   0.100   2.375 -1.0311  0.5911  0.3130
50624SOL    HW262187   6.979   0.202   2.262 -1.6167 -0.3244 -0.5684
50625SOL     OW62188   0.506   0.658   6.776  0.1988  0.2372  0.6625
50625SOL    HW162189   0.464   0.606   6.708  0.6189  0.3575  0.3043
50625SOL    HW262190   0.456   0.739   6.779  0.6820  0.5726 -0.0900
50626SOL     OW62191   3.914   7.584   1.866  0.2229  0.2160  0.3577
50626SOL    HW162192   3.849   7.535   1.917  1.2537 -1.1524  0.4019
50626SOL    HW262193   3.982   7.607   1.930  0.9027 -0.4003 -0.1197
50627SOL     OW62194   8.816  10.012   2.262 -0.4771 -0.0716 -0.2522
50627SOL    HW162195   8.836   9.984   2.172  0.7953 -1.1713  0.3328
50627SOL    HW262196   8.891  10.067   2.287 -0.9021  0.3617  0.0905
50628SOL     OW62197  11.467   6.573   8.023 -0.3572 -0.3450  0.1855
50628SOL    HW162198  11.480   6.623   8.103  2.9564 -0.1178 -0.3489
50628SOL    HW262199  11.518   6.619   7.957  1.3625 -3.3119 -0.7612
50629SOL     OW62200   9.010  10.280  11.277  0.7486  0.4314 -0.1004
50629SOL    HW162201   8.999  10.254  11.186  0.1942 -0.7899  0.2899
50629SOL    HW262202   8.924  10.264  11.317  1.1534  0.3525  0.7665
50630SOL     OW62203   8.032   2.027   2.445 -0.0528 -0.4356  0.0195
50630SOL    HW162204   7.969   2.091   2.414  0.7026 -0.2910 -1.2878
50630SOL    HW262205   8.040   1.964   2.373 -0.1433 -1.5223  0.9382
50631SOL     OW62206   6.436   8.769   8.290 -0.3631 -0.3386  0.4934
50631SOL    HW162207   6.500   8.729   8.231  0.7034 -1.8137  2.5396
50631SOL    HW262208   6.480   8.848   8.323 -0.6558  0.0683 -0.0761
50632SOL     OW62209  12.186   2.692  12.791 -0.1398  0.2928 -0.0864
50632SOL    HW162210  12.184   2.724  12.881  2.7679 -1.2729  0.6520
50632SOL    HW262211  12.207   2.769  12.738  0.3782  0.8130  0.8507
50633SOL     OW62212   3.777  10.889   6.246 -0.1412 -0.4112  0.1040
50633SOL    HW162213   3.818  10.809   6.278  0.9400 -0.3212 -0.9529
50633SOL    HW262214   3.770  10.876   6.151  2.1057  1.5395 -0.4406
50634SOL     OW62215  12.007  10.208  11.678  0.1552  0.3281 -0.0152
50634SOL    HW162216  12.074  10.229  11.612  0.8730 -1.0101  0.2608
50634SOL    HW262217  12.046  10.232  11.761 -0.1376  0.5541  0.0592
50635SOL     OW62218   3.482   4.149  12.295 -0.3410 -0.0632 -0.5899
50635SOL    HW162219   3.504   4.079  12.234  0.7387  0.1247 -0.4362
50635SOL    HW262220   3.399   4.122  12.334 -1.8085  0.4487 -3.1171
50636SOL     OW62221  10.740   9.611   0.799  0.1715 -0.0413  0.1570
50636SOL    HW162222  10.674   9.563   0.749  0.8057 -0.3283 -0.4129
50636SOL    HW262223  10.689   9.670   0.855 -0.5629  0.1897 -0.7249
50637SOL     OW62224   6.122   2.462   2.743 -0.1216 -0.6659  0.0999
50637SOL    HW162225   6.111   2.556   2.732 -1.6386 -0.9415 -1.1960
50637SOL    HW262226   6.051   2.436   2.802 -1.1164 -1.2563 -1.2845
50638SOL     OW62227   8.296   2.172   9.612  0.0362 -0.1969 -0.6981
50638SOL    HW162228   8.296   2.095   9.669 -1.5458  0.4541  0.2394
50638SOL    HW262229   8.240   2.146   9.538  0.7815 -0.4807 -1.1700
50639SOL     OW62230   2.377  10.336   9.672  0.1616  0.2396 -0.0406
50639SOL    HW162231   2.338  10.416   9.636 -0.7956  0.4934  1.4452
50639SOL    HW262232   2.427  10.366   9.748  0.2120 -0.5115  0.2330
50640SOL     OW62233   5.636   3.934   2.340 -0.1181  0.3367 -0.3379
50640SOL    HW162234   5.603   3.877   2.271  0.1496  0.2759 -0.4166
50640SOL    HW262235   5.700   3.880   2.387  0.7867  0.8449 -0.9576
50641SOL     OW62236   6.348  12.941   0.418 -0.5170 -0.1248  0.1858
50641SOL    HW162237   6.352  12.973   0.328 -0.0717 -0.4479  0.0870
50641SOL    HW262238   6.260  12.905   0.427 -0.5595 -0.1015 -0.1231
50642SOL     OW62239   9.642  10.493   5.073  0.0489 -0.4709  0.1949
50642SOL    HW162240   9.640  10.562   5.006 -1.8805 -0.7315 -0.0827
50642SOL    HW262241   9.694  10.423   5.033 -2.0437 -1.1004 -1.6158
50643SOL     OW62242   7.226  10.628   9.218 -0.2146  0.5001  0.2423
50643SOL    HW162243   7.270  10.713   9.220 -0.0037  0.3927  0.1422
50643SOL    HW262244   7.133  10.649   9.218 -0.1693  0.7175  1.0678
50644SOL     OW62245   4.384   4.204   7.864 -0.5460  0.0586  0.0798
50644SOL    HW162246   4.303   4.169   7.827  0.4682 -2.6749  0.1898
50644SOL    HW262247   4.444   4.209   7.790  0.1846 -1.2626  0.5530
50645SOL     OW62248  12.304   7.445  10.257  0.7989  0.5403 -0.2888
50645SOL    HW162249  12.382   7.479  10.213 -0.2915 -0.1826 -2.9756
50645SOL    HW262250  12.258   7.524  10.287  2.1719  0.9962  0.7855
50646SOL     OW62251   9.019  10.965   6.964  0.4288  0.1548  0.1350
50646SOL    HW162252   8.951  11.027   6.992  0.2991 -0.9052  2.3890
50646SOL    HW262253   9.038  10.914   7.043  4.3007  0.7863 -0.2031
50647SOL     OW62254   6.226  12.962   9.952  0.4561 -0.5457  0.1078
50647SOL    HW162255   6.308  12.953   9.902  1.5464  0.1333  1.6989
50647SOL    HW262256   6.213  12.877   9.993  0.9437 -0.3485  0.6836
50648SOL     OW62257   1.147   5.779   2.409 -0.2370 -0.2265  0.3807
50648SOL    HW162258   1.107   5.721   2.344  0.1065  0.4996 -0.5002
50648SOL    HW262259   1.129   5.867   2.376  1.1898  0.1252  0.4971
50649SOL     OW62260  12.291   3.775  10.396  0.3592  0.7244 -0.1716
50649SOL    HW162261  12.228   3.847  10.396 -1.9523 -1.1580 -0.8638
50649SOL    HW262262  12.328   3.776  10.308 -1.9689 -0.6889 -1.2641
50650SOL     OW62263   9.457  12.752   3.851  0.2295 -0.4413 -0.0148
50650SOL    HW162264   9.472  12.805   3.929  1.0105 -0.5746 -0.0612
50650SOL    HW262265   9.508  12.796   3.783 -0.7677 -0.0918 -0.5608
50651SOL     OW62266   2.618  11.566   3.615 -0.3368 -0.3188 -0.0743
50651SOL    HW162267   2.613  11.561   3.520  0.5199 -0.0411 -0.1462
50651SOL    HW262268   2.531  11.541   3.645 -0.2484 -1.7304 -0.8896
50652SOL     OW62269   4.970   5.931   2.355 -0.3537  0.3073  0.6177
50652SOL    HW162270   5.013   6.016   2.363  0.5925 -0.2783  2.1588
50652SOL    HW262271   4.909   5.928   2.428 -1.7343  0.3694 -0.4814
50653SOL     OW62272   3.802  10.502  11.604 -0.4316 -0.7708 -0.4988
50653SOL    HW162273   3.845  10.560  11.542 -0.7524  0.0276  0.0167
50653SOL    HW262274   3.711  10.533  11.608 -0.1568 -0.0812  1.2047
50654SOL     OW62275   4.412   4.547   3.115  0.7814 -0.3156  0.0102
50654SOL    HW162276   4.425   4.514   3.204  1.2905 -1.0446 -0.3278
50654SOL    HW262277   4.336   4.605   3.122  0.8525 -0.3206  0.9285
50655SOL     OW62278   3.946   5.213   4.057  0.3147 -0.1400 -0.2014
50655SOL    HW162279   3.940   5.300   4.017  0.5870  0.0332  0.1297
50655SOL    HW262280   3.858   5.196   4.089 -0.6274 -1.3774 -3.0980
50656SOL     OW62281   6.112   0.116   8.977 -0.0312  0.2055  0.2969
50656SOL    HW162282   6.107   0.077   9.064 -1.4087  1.2827  0.7286
50656SOL    HW262283   6.131   0.208   8.992 -1.0520  0.5657 -0.4962
50657SOL     OW62284   3.340   5.001   8.783  0.1814  0.2376 -0.2556
50657SOL    HW162285   3.305   5.046   8.860 -0.2328 -0.5899  0.0415
50657SOL    HW262286   3.275   5.016   8.715 -0.8510 -1.4066  0.3294
50658SOL     OW62287   4.598   8.428   6.391  0.5656  0.3854  0.2790
50658SOL    HW162288   4.590   8.354   6.331  0.0352  0.7898 -0.1714
50658SOL    HW262289   4.648   8.494   6.341 -0.3699  0.9426  0.0493
50659SOL     OW62290   8.023   5.700   3.508 -0.6806  0.1741  0.1525
50659SOL    HW162291   8.094   5.654   3.465 -0.3256 -1.2736  2.1419
50659SOL    HW262292   8.053   5.790   3.516  0.1681 -0.0393 -0.5861
50660SOL     OW62293   8.243   9.074  11.075 -0.3677  0.3719  0.3588
50660SOL    HW162294   8.289   9.144  11.121  1.7487 -0.3005 -0.6047
50660SOL    HW262295   8.156   9.073  11.114  0.6696  1.1551  2.9160
50661SOL     OW62296   6.276   9.044   1.457 -0.1363 -0.3100 -0.4985
50661SOL    HW162297   6.225   8.982   1.404 -1.5925  1.6224 -1.4763
50661SOL    HW262298   6.323   9.097   1.394  0.1566  0.3486  0.2621
50662SOL     OW62299   1.070  12.920  10.446  0.4581 -0.3502 -0.4311
50662SOL    HW162300   1.090  12.833  10.411 -0.8735 -0.4560 -1.0034
50662SOL    HW262301   1.057  12.975  10.368 -1.5421 -0.3511 -0.1708
50663SOL     OW62302   1.444   5.714   7.938 -0.1135 -0.2805  0.0079
50663SOL    HW162303   1.403   5.746   7.858  1.9614  1.0420 -0.6089
50663SOL    HW262304   1.530   5.682   7.911 -0.4281 -2.4082  1.3225
50664SOL     OW62305  11.457   5.624   4.371  0.5884 -0.2722 -0.2955
50664SOL    HW162306  11.498   5.541   4.347  0.9752 -0.0819 -0.2992
50664SOL    HW262307  11.483   5.685   4.303 -0.5679 -0.3967 -0.8720
50665SOL     OW62308   3.431  11.052   1.110 -0.2035 -0.0961 -0.4909
50665SOL    HW162309   3.367  10.998   1.157  0.0504 -0.3002 -0.3797
50665SOL    HW262310   3.461  10.997   1.038  1.3194 -0.7726  0.5929
50666SOL     OW62311   6.814   3.873   4.791  0.1862  0.5891 -0.4226
50666SOL    HW162312   6.851   3.891   4.877 -0.3223 -0.7142  0.0998
50666SOL    HW262313   6.879   3.818   4.747  0.0411  0.4842 -0.5102
50667SOL     OW62314   3.668   7.675  10.608 -0.3433  0.2231  0.2785
50667SOL    HW162315   3.679   7.664  10.514 -0.0870 -2.5575  0.5510
50667SOL    HW262316   3.734   7.740  10.632  1.8040 -1.3049 -1.0636
50668SOL     OW62317   3.913   7.404   3.096  0.7258 -0.2136 -0.5312
50668SOL    HW162318   3.938   7.479   3.150  3.0275 -1.5710  0.4297
50668SOL    HW262319   3.923   7.434   3.006 -0.3963  1.2223 -0.2028
50669SOL     OW62320   7.246  10.945   5.175  0.1106  0.5154  1.3275
50669SOL    HW162321   7.283  10.890   5.244  0.6762 -0.6622  0.1061
50669SOL    HW262322   7.250  10.892   5.096 -0.0417  2.0267  0.2559
50670SOL     OW62323   8.728   7.749   3.330  0.8172 -0.1876 -1.0749
50670SOL    HW162324   8.768   7.807   3.265  0.2055  0.1250 -1.1764
50670SOL    HW262325   8.755   7.787   3.414  1.3331 -0.4005 -1.1400
50671SOL     OW62326  12.249   8.829   9.666  0.5352 -0.2128  0.4308
50671SOL    HW162327  12.182   8.773   9.625 -0.5327  0.4130  1.2564
50671SOL    HW262328  12.305   8.768   9.714  0.3866 -0.7271 -0.0381
50672SOL     OW62329   1.571   8.874   5.008 -0.8706  0.0071  0.9466
50672SOL    HW162330   1.629   8.825   5.065  0.0482  0.2280  0.2303
50672SOL    HW262331   1.522   8.807   4.960  0.2296 -0.2331  0.1217
50673SOL     OW62332   7.811   3.502   0.720 -0.1390  0.3695 -0.3071
50673SOL    HW162333   7.757   3.580   0.718 -0.1036  0.3775 -1.8611
50673SOL    HW262334   7.900   3.533   0.702 -0.2841 -0.1271 -1.9916
50674SOL     OW62335   2.380   5.726  11.177  0.0171  0.1431  0.1795
50674SOL    HW162336   2.363   5.787  11.105 -1.1996 -0.5322 -0.1233
50674SOL    HW262337   2.350   5.772  11.256 -1.5451 -0.2864 -0.1276
50675SOL     OW62338   3.570   0.391   2.385 -0.3622  0.8192 -0.3501
50675SOL    HW162339   3.630   0.453   2.426 -0.5296  0.8920 -0.2188
50675SOL    HW262340   3.602   0.305   2.413  0.4188  0.7939 -1.2555
50676SOL     OW62341   9.789   7.083   0.134  0.2111 -0.0901 -0.4476
50676SOL    HW162342   9.808   7.150   0.199  2.3561 -0.0389 -1.0484
50676SOL    HW262343   9.717   7.119   0.082  0.8968  1.4689 -0.3562
50677SOL     OW62344  10.369   4.055  10.895 -0.5665  0.3599  0.6850
50677SOL    HW162345  10.350   3.979  10.950 -0.4401 -0.8193 -0.8575
50677SOL    HW262346  10.290   4.070  10.845 -0.5082  1.1195  0.8002
50678SOL     OW62347   2.042   4.556   8.409 -0.4892  0.7128 -0.3232
50678SOL    HW162348   1.967   4.596   8.366 -0.6761  2.7228  1.6733
50678SOL    HW262349   2.005   4.517   8.489  0.1961 -0.8186 -0.7162
50679SOL     OW62350   1.234  12.279  12.726  0.2374  0.2461 -0.5582
50679SOL    HW162351   1.234  12.347  12.658 -1.3000 -0.6976 -1.5685
50679SOL    HW262352   1.317  12.233  12.714  0.0645  0.2083 -1.6978
50680SOL     OW62353  12.020  11.240   9.398  0.2392 -0.5464  0.6075
50680SOL    HW162354  11.955  11.239   9.328  0.9172  0.0820 -0.0502
50680SOL    HW262355  12.078  11.167   9.378  0.7881  0.0036  0.1550
50681SOL     OW62356   1.504   5.800  10.737  0.2239  0.0606 -0.1331
50681SOL    HW162357   1.478   5.890  10.756  0.6290 -0.0604  1.1129
50681SOL    HW262358   1.441   5.747  10.785  0.7416 -0.2896  0.1704
50682SOL     OW62359   3.559  10.735   3.875 -0.4147  0.6169  0.6936
50682SOL    HW162360   3.611  10.810   3.906  0.4939  1.3686 -2.3000
50682SOL    HW262361   3.588  10.662   3.929  1.7695  1.6101  0.9991
50683SOL     OW62362   1.177   6.579   3.884  0.0625  0.3998 -0.2699
50683SOL    HW162363   1.263   6.564   3.924  0.4561 -0.8748 -1.4983
50683SOL    HW262364   1.169   6.509   3.819 -1.0940  1.6185 -1.5005
50684SOL     OW62365   0.723   9.089  12.676 -0.3132 -0.8179  0.0579
50684SOL    HW162366   0.789   9.060  12.739  0.2940  0.4326  0.0224
50684SOL    HW262367   0.710   9.182  12.695 -1.8316 -0.9593 -0.1555
50685SOL     OW62368   2.297   5.398   4.496  0.0795  0.6056 -0.1486
50685SOL    HW162369   2.225   5.403   4.558  0.3999  1.9222  0.1537
50685SOL    HW262370   2.278   5.465   4.431  0.7415  0.5795 -0.3855
50686SOL     OW62371   8.931   9.801   0.450  0.0503  0.0994  0.4133
50686SOL    HW162372   8.958   9.717   0.412  1.5011  0.4477  0.6049
50686SOL    HW262373   8.908   9.855   0.375 -0.5028 -0.3245  0.2663
50687SOL     OW62374   0.835   4.543   9.559 -0.4041  0.0529  0.0223
50687SOL    HW162375   0.797   4.468   9.513 -2.2952  1.1946 -0.3854
50687SOL    HW262376   0.761   4.584   9.604  0.6037  1.5639  0.3964
50688SOL     OW62377   0.211   0.135   6.610 -0.4980  0.4125 -0.0579
50688SOL    HW162378   0.148   0.194   6.568  0.4755  0.6149 -1.3123
50688SOL    HW262379   0.157   0.073   6.658 -1.6402  0.8015 -0.7901
50689SOL     OW62380   8.696  12.818   3.463  0.7183  0.1908 -0.1898
50689SOL    HW162381   8.629  12.880   3.492  2.0165  0.6423  2.0299
50689SOL    HW262382   8.773  12.841   3.514  1.8928 -1.8270 -0.9727
50690SOL     OW62383   4.613   2.422   8.300  0.0117 -0.0027  0.3363
50690SOL    HW162384   4.676   2.394   8.234  2.6433  0.7911  2.3371
50690SOL    HW262385   4.560   2.345   8.317  1.3274 -1.1285 -0.4806
50691SOL     OW62386  11.118   6.623   0.497  0.5176  0.2978  0.6384
50691SOL    HW162387  11.113   6.646   0.589  0.3306 -1.2894  1.0655
50691SOL    HW262388  11.030   6.591   0.475  0.6241  0.4317 -0.0192
50692SOL     OW62389   9.142  11.796  10.068  0.1755  0.3495 -0.0428
50692SOL    HW162390   9.151  11.707  10.102  0.3989  0.5378  0.3925
50692SOL    HW262391   9.056  11.825  10.099  0.8258  0.9166  1.3026
50693SOL     OW62392   3.268  11.661  10.065 -0.4872 -0.6756 -0.6656
50693SOL    HW162393   3.287  11.586  10.008 -1.1910 -0.6784 -0.9085
50693SOL    HW262394   3.205  11.627  10.128  0.8039 -0.8609  0.5681
50694SOL     OW62395   2.555   5.713   9.909 -0.1812 -0.0425 -0.7483
50694SOL    HW162396   2.584   5.758   9.829 -0.6471  0.0942 -0.8445
50694SOL    HW262397   2.525   5.627   9.879  2.2767 -1.1172 -0.3563
50695SOL     OW62398  11.268   4.539   7.392 -1.2079 -0.7411 -0.4579
50695SOL    HW162399  11.252   4.488   7.472  2.2029  0.0971  0.9732
50695SOL    HW262400  11.327   4.483   7.341 -2.8888 -1.0091 -2.1710
50696SOL     OW62401  11.044  12.794   6.227  0.5296 -0.1876  0.4043
50696SOL    HW162402  11.017  12.885   6.236  1.8521  0.0669  2.3899
50696SOL    HW262403  11.139  12.798   6.215  0.5080 -1.2869 -0.2748
50697SOL     OW62404  12.910  12.872   5.384  0.2193  0.7275 -0.6091
50697SOL    HW162405  12.824  12.895   5.348 -0.6075 -0.3373  0.5911
50697SOL    HW262406  12.893  12.795   5.438  1.9656  0.4436 -0.4234
50698SOL     OW62407  12.101   5.875   9.547 -0.7706 -0.3616  0.4570
50698SOL    HW162408  12.049   5.950   9.575 -1.7436 -1.0284  0.5048
50698SOL    HW262409  12.181   5.880   9.599 -0.7227  0.7602  0.2900
50699SOL     OW62410  10.227   6.309   9.492 -0.4442  0.5042  0.4646
50699SOL    HW162411  10.314   6.275   9.513 -0.7833 -0.4143  0.4046
50699SOL    HW262412  10.235   6.404   9.507  0.9909  0.6629 -0.9959
50700SOL     OW62413   0.477   0.498   3.053  0.7409  0.9163 -0.1266
50700SOL    HW162414   0.484   0.592   3.070  0.9072  0.5038  2.6653
50700SOL    HW262415   0.567   0.470   3.040  0.8118  0.9634  0.2548
50701SOL     OW62416   9.978   9.225   2.925  0.4571  0.4093 -0.1481
50701SOL    HW162417   9.938   9.292   2.981  1.0665  0.7304 -0.0834
50701SOL    HW262418  10.054   9.195   2.975 -0.4689 -1.2025  0.3601
50702SOL     OW62419  10.381   3.493   7.395  0.3443 -0.2043  0.3415
50702SOL    HW162420  10.305   3.446   7.429  1.0129 -0.3222  1.7917
50702SOL    HW262421  10.405   3.447   7.315 -0.6615 -0.6201  0.2704
50703SOL     OW62422   6.357   0.605   8.106  0.4707 -0.8923  0.0462
50703SOL    HW162423   6.414   0.609   8.029  0.7031 -0.1186  0.2427
50703SOL    HW262424   6.418   0.602   8.180  0.3509  1.6249  0.3562
50704SOL     OW62425   6.458   0.671   7.503 -0.2533 -0.1245  0.5490
50704SOL    HW162426   6.492   0.582   7.514  0.0574  0.1569  2.2623
50704SOL    HW262427   6.381   0.674   7.559  1.2319  1.3983  2.7014
50705SOL     OW62428   1.186   3.372   1.557 -0.1217  0.1564  0.1338
50705SOL    HW162429   1.145   3.376   1.644 -0.9851 -0.8115 -0.2096
50705SOL    HW262430   1.113   3.372   1.496  0.4890  3.8003 -0.8148
50706SOL     OW62431  12.742   4.785   6.315  0.1290  0.0009 -0.1432
50706SOL    HW162432  12.728   4.692   6.333 -0.3608  0.3295  1.2517
50706SOL    HW262433  12.660   4.815   6.276  0.0819 -0.0174 -0.0573
50707SOL     OW62434   5.638   9.882   5.808 -0.7658 -0.5884  0.2607
50707SOL    HW162435   5.558   9.928   5.834  0.2631  0.8758  0.9760
50707SOL    HW262436   5.678   9.940   5.742  0.6630 -0.3009  1.3365
50708SOL     OW62437   0.405   8.592   7.903  0.2326 -0.3670 -0.3084
50708SOL    HW162438   0.457   8.582   7.982  0.8900  0.6173 -0.5936
50708SOL    HW262439   0.314   8.593   7.934  0.4524 -0.6516  0.3564
50709SOL     OW62440  11.764   2.825  10.622 -0.8135  0.1008 -0.4020
50709SOL    HW162441  11.766   2.731  10.602 -0.6198  0.1400 -0.5754
50709SOL    HW262442  11.672   2.848  10.619 -0.7055  0.4236 -2.7814
50710SOL     OW62443   2.358  12.626   2.127 -0.3266 -0.3362 -0.4192
50710SOL    HW162444   2.265  12.650   2.122 -0.5430 -1.0540  0.0334
50710SOL    HW262445   2.365  12.573   2.206  0.3726 -0.7451 -0.7471
50711SOL     OW62446  11.226   9.782   1.648  0.5714  0.0197 -0.3316
50711SOL    HW162447  11.282   9.712   1.683  0.1262 -0.3552 -0.3685
50711SOL    HW262448  11.275   9.816   1.573 -0.0064 -1.4818 -1.4568
50712SOL     OW62449   8.933   5.753   8.695 -0.3287 -0.1398  0.1747
50712SOL    HW162450   8.879   5.831   8.707  1.0523  0.7063  1.2118
50712SOL    HW262451   8.972   5.764   8.608  0.4394  0.7194  0.6128
50713SOL     OW62452   7.189   3.880   1.350 -0.4581 -0.6701  0.1167
50713SOL    HW162453   7.237   3.824   1.410 -1.3875 -0.3638  1.2022
50713SOL    HW262454   7.113   3.828   1.323 -0.6307 -0.4113  0.0924
50714SOL     OW62455  11.029   2.767   5.402 -0.4551 -0.4106 -0.4211
50714SOL    HW162456  11.076   2.684   5.391 -0.0454 -0.2147 -0.1424
50714SOL    HW262457  11.057   2.821   5.328  2.0431  0.7836  1.2758
50715SOL     OW62458   3.138   7.908  12.183 -0.0113  0.5774 -0.1893
50715SOL    HW162459   3.167   7.996  12.209  0.0857  0.1954  1.0512
50715SOL    HW262460   3.073   7.924  12.114 -0.0808  1.6293  0.0981
50716SOL     OW62461  12.749   2.591  12.839 -0.5176  0.2953  0.6321
50716SOL    HW162462  12.735   2.592  12.934  0.9218 -2.8698  0.9966
50716SOL    HW262463  12.674   2.544  12.804 -0.3584  0.2541  0.3460
50717SOL     OW62464   9.029   2.752   0.550 -0.7948  0.3759 -0.0283
50717SOL    HW162465   9.010   2.698   0.473  0.7668 -0.8596  0.3958
50717SOL    HW262466   8.967   2.722   0.616  0.1443 -1.0719  0.2482
50718SOL     OW62467  11.935   3.453   0.740  0.1944 -0.0115  0.1691
50718SOL    HW162468  11.970   3.434   0.653  1.0998  1.1227  0.2491
50718SOL    HW262469  11.927   3.367   0.782  1.0043 -0.4737 -0.5748
50719SOL     OW62470  11.336   5.643   9.891 -0.3515 -0.1194  0.4635
50719SOL    HW162471  11.364   5.674   9.977  0.8758  1.1367 -0.3477
50719SOL    HW262472  11.336   5.722   9.836 -0.2201 -1.0495 -0.9136
50720SOL     OW62473   0.523  12.022  12.433  0.3605  0.6426  0.3072
50720SOL    HW162474   0.584  11.959  12.469 -1.2300  0.2444  2.5350
50720SOL    HW262475   0.578  12.087  12.389  2.1935 -0.7756  0.3921
50721SOL     OW62476   8.733   2.429   9.157 -0.3469  0.3640  0.1428
50721SOL    HW162477   8.637   2.430   9.152 -0.3535 -0.2028  0.0808
50721SOL    HW262478   8.762   2.463   9.072 -0.4985 -1.3861 -0.6573
50722SOL     OW62479   1.814  12.514   8.142 -0.3019  0.0425 -0.1033
50722SOL    HW162480   1.907  12.527   8.124  0.9768 -2.3537  3.7241
50722SOL    HW262481   1.785  12.597   8.181  0.4441  0.4452 -0.3868
50723SOL     OW62482   2.840   6.811   0.466  0.2447  0.1952  0.0718
50723SOL    HW162483   2.768   6.753   0.442  0.8652  0.0329 -1.5718
50723SOL    HW262484   2.826   6.831   0.558 -3.0520  1.8154 -0.6247
50724SOL     OW62485   1.492   5.453  10.840 -0.0752  0.0252 -0.0685
50724SOL    HW162486   1.437   5.527  10.814  2.4137  0.8330 -3.8464
50724SOL    HW262487   1.432   5.379  10.845 -1.7500  0.8600 -3.8719
50725SOL     OW62488   3.117   9.425  10.357  0.2017 -0.1153  0.0484
50725SOL    HW162489   3.094   9.350  10.302 -0.7118 -0.2714  0.6211
50725SOL    HW262490   3.188   9.394  10.413  1.6764  0.2601 -1.4987
50726SOL     OW62491   5.435   5.018   6.419 -0.2428  0.1265  0.1960
50726SOL    HW162492   5.374   5.092   6.426  1.1446  1.2860  0.6994
50726SOL    HW262493   5.449   4.992   6.510  0.7673  0.5510  0.1755
50727SOL     OW62494  10.337  12.598   3.446  0.2350  0.4974  0.5052
50727SOL    HW162495  10.251  12.628   3.476 -0.2275  0.6964 -0.9263
50727SOL    HW262496  10.356  12.653   3.371  1.1852 -0.1803  0.2350
50728SOL     OW62497   8.130   4.505   0.412  0.2065 -0.0114  0.0814
50728SOL    HW162498   8.163   4.425   0.371 -0.6215 -0.1701 -0.3005
50728SOL    HW262499   8.034   4.497   0.405  0.0420  0.0288  1.9176
50729SOL     OW62500  12.208   1.103   4.876 -0.0447 -0.0136 -0.1577
50729SOL    HW162501  12.121   1.135   4.901  1.0913  1.0162  2.9225
50729SOL    HW262502  12.247   1.177   4.830 -0.0786  0.2832  0.2832
50730SOL     OW62503  12.726   1.833   1.410  0.0751 -0.1569 -0.3678
50730SOL    HW162504  12.662   1.860   1.476  0.3739  0.5131 -0.3384
50730SOL    HW262505  12.703   1.743   1.389 -0.6688 -0.0310 -0.1146
50731SOL     OW62506   5.342  11.301   3.357 -0.0155  0.0833 -0.0891
50731SOL    HW162507   5.267  11.343   3.398  1.1257  0.5945  1.5786
50731SOL    HW262508   5.365  11.228   3.415  1.5390  0.7177  0.1503
50732SOL     OW62509   5.593   5.025   8.936  0.3747 -0.1809 -0.1137
50732SOL    HW162510   5.662   5.089   8.920  0.5309 -0.4779 -0.6894
50732SOL    HW262511   5.538   5.031   8.858  1.0037 -1.5036 -0.6892
50733SOL     OW62512   2.548   1.501   3.929  0.2630 -0.3707  0.1479
50733SOL    HW162513   2.610   1.435   3.897  0.7618  0.3805 -0.4671
50733SOL    HW262514   2.595   1.546   3.999  0.9681  1.1163 -1.2291
50734SOL     OW62515   9.181   6.375   8.742 -0.2352  0.6363  0.2205
50734SOL    HW162516   9.118   6.394   8.812 -0.0495  1.3070  0.2139
50734SOL    HW262517   9.214   6.288   8.762 -1.9154 -0.1641 -0.3395
50735SOL     OW62518  11.597   0.079   1.414  0.6744 -0.2836  0.0553
50735SOL    HW162519  11.610   0.155   1.472 -1.1363 -0.9301  1.3726
50735SOL    HW262520  11.629   0.005   1.465 -0.3601 -0.7812 -0.0126
50736SOL     OW62521   2.858  10.712   2.991  0.2842  0.3356 -0.0775
50736SOL    HW162522   2.882  10.735   3.081 -3.4949  1.1592  0.8876
50736SOL    HW262523   2.860  10.617   2.990 -0.6058  0.2809  1.2203
50737SOL     OW62524   5.625   3.508   1.476  0.4373  0.5722  0.1955
50737SOL    HW162525   5.590   3.522   1.388 -2.3755  0.8721  1.2753
50737SOL    HW262526   5.710   3.467   1.462 -0.7095 -1.0578 -2.6257
50738SOL     OW62527  11.417   8.880   8.671  0.0635 -0.9141  0.0576
50738SOL    HW162528  11.491   8.820   8.664 -0.1199 -0.9469 -2.0472
50738SOL    HW262529  11.398   8.883   8.765  2.2220 -1.4969  0.5695
50739SOL     OW62530  11.935  12.746   8.781  0.3814  0.4454  0.0343
50739SOL    HW162531  11.912  12.719   8.870  0.1688 -2.6249 -0.8318
50739SOL    HW262532  12.029  12.727   8.775  0.4043  0.6939 -0.3870
50740SOL     OW62533  11.100  10.686   2.740  0.5940 -0.0553  0.5618
50740SOL    HW162534  11.109  10.711   2.832 -1.4814  1.3031  0.4721
50740SOL    HW262535  11.006  10.672   2.728  0.5828  1.3591 -1.6822
50741SOL     OW62536   1.021   9.343   7.803 -0.5775  0.1398 -0.0043
50741SOL    HW162537   1.052   9.393   7.878 -0.5394 -1.4827  1.1196
50741SOL    HW262538   1.099   9.299   7.769 -1.0626 -1.6344  1.0228
50742SOL     OW62539   0.236   3.849   6.040 -0.7120  0.2704 -0.0345
50742SOL    HW162540   0.296   3.788   6.083 -0.8303  0.5804  0.5750
50742SOL    HW262541   0.165   3.793   6.007 -0.6127  0.0301  0.1561
50743SOL     OW62542   7.414   8.337   1.933  0.0226 -0.2468  0.7600
50743SOL    HW162543   7.356   8.269   1.898 -2.1214  1.3714  0.9570
50743SOL    HW262544   7.484   8.344   1.868  0.3565 -2.6537  0.7887
50744SOL     OW62545   4.510   9.280  10.866  0.4118  0.2924  0.4125
50744SOL    HW162546   4.551   9.201  10.901  1.9206  1.2912  0.9867
50744SOL    HW262547   4.579   9.346  10.867 -1.1340  2.0004  1.2049
50745SOL     OW62548  12.518   6.018   1.177  0.2856  0.0724  0.0381
50745SOL    HW162549  12.504   5.925   1.198  1.6858 -0.1755  0.0041
50745SOL    HW262550  12.515   6.062   1.262  1.5503 -0.3089  0.3110
50746SOL     OW62551  10.140   1.334  10.347 -0.2376  0.4992 -0.0138
50746SOL    HW162552  10.121   1.242  10.366  1.3285 -0.3626 -2.2307
50746SOL    HW262553  10.081   1.382  10.405  0.4702 -1.8173  2.9396
50747SOL     OW62554   2.108   6.116   9.530 -0.3249  0.3976  0.3506
50747SOL    HW162555   2.080   6.185   9.470  0.5155  0.9911  0.6237
50747SOL    HW262556   2.202   6.130   9.541 -0.4766  0.3964  1.9258
50748SOL     OW62557   1.315   8.323   2.027  0.0224  0.0067  0.0775
50748SOL    HW162558   1.255   8.330   1.953 -1.8602  1.6799  1.6427
50748SOL    HW262559   1.337   8.230   2.032 -1.0524 -0.3670 -1.6101
50749SOL     OW62560  11.752   8.316   9.712 -0.2102  0.2723 -0.6374
50749SOL    HW162561  11.743   8.371   9.635 -1.2444  0.6764 -0.2309
50749SOL    HW262562  11.669   8.269   9.719 -0.9432  1.7081  1.3431
50750SOL     OW62563  12.499   4.897   1.352  0.2342 -0.4238 -0.2734
50750SOL    HW162564  12.571   4.959   1.338  0.3552 -0.4798  0.0727
50750SOL    HW262565  12.542   4.819   1.388 -0.1794  0.1769  1.6313
50751SOL     OW62566  12.398   4.837   9.532  0.1349 -0.3570 -0.2044
50751SOL    HW162567  12.396   4.916   9.587  1.4238 -1.0208  0.8452
50751SOL    HW262568  12.330   4.852   9.467 -0.6184  1.0049  0.8367
50752SOL     OW62569   0.321   2.527   1.953  0.3856  0.1376  0.3667
50752SOL    HW162570   0.279   2.453   1.909 -1.8258  1.2566  0.5052
50752SOL    HW262571   0.309   2.509   2.046  0.0438  0.5683  0.4039
50753SOL     OW62572   0.914   2.416   0.763 -0.1617  0.3963 -0.2483
50753SOL    HW162573   0.945   2.457   0.682  0.4428  0.8202  0.1853
50753SOL    HW262574   0.982   2.437   0.828 -0.8391  0.4221  0.4679
50754SOL     OW62575   6.504   4.363   2.389 -0.5917  0.3102  0.0455
50754SOL    HW162576   6.591   4.336   2.361  0.1907  2.5624  0.0964
50754SOL    HW262577   6.444   4.308   2.339  0.8412 -1.1193 -0.1607
50755SOL     OW62578   3.002   7.807   7.392  0.4996 -0.5580  0.3579
50755SOL    HW162579   3.078   7.831   7.339 -0.1120  0.7117  0.0138
50755SOL    HW262580   2.949   7.887   7.395 -0.4871 -1.2217  1.1612
50756SOL     OW62581  12.460  11.414   7.360 -0.2297 -0.0367  0.0071
50756SOL    HW162582  12.497  11.389   7.275 -1.6934 -0.3071 -0.5779
50756SOL    HW262583  12.522  11.379   7.424  1.0837  0.4729 -0.9341
50757SOL     OW62584   5.382  12.170  11.972 -0.3644  0.7779  0.0335
50757SOL    HW162585   5.382  12.261  11.942 -1.4654  0.7493 -0.0834
50757SOL    HW262586   5.291  12.141  11.962  0.3116 -0.9532 -1.8608
50758SOL     OW62587  10.339   2.003  10.455 -0.3335 -0.4127  0.2112
50758SOL    HW162588  10.433   1.993  10.442 -0.1988  0.5320  0.4136
50758SOL    HW262589  10.315   1.930  10.512 -0.2892 -2.4733 -2.2490
50759SOL     OW62590   5.027   1.971   2.411  0.2496  0.1011 -0.0867
50759SOL    HW162591   5.003   1.969   2.504  2.1182 -0.9093  0.4339
50759SOL    HW262592   5.121   1.951   2.410  0.4848  1.0357 -2.1441
50760SOL     OW62593   3.927   0.340   3.015 -0.4100 -0.6693  1.3267
50760SOL    HW162594   4.006   0.339   2.961 -0.3011  1.0478  1.3858
50760SOL    HW262595   3.946   0.282   3.088  0.1092 -1.6586  0.4261
50761SOL     OW62596   1.170   8.898   4.075 -0.4725  0.5726 -0.0996
50761SOL    HW162597   1.140   8.878   3.987 -0.4726 -0.5830  0.1462
50761SOL    HW262598   1.255   8.941   4.063 -0.4560  0.3824 -0.6674
50762SOL     OW62599   1.941  10.089   6.652 -0.3676  0.4708 -0.4739
50762SOL    HW162600   2.026  10.109   6.692 -0.5976 -0.0608  0.3010
50762SOL    HW262601   1.958  10.092   6.558  0.6936 -0.3851 -0.3336
50763SOL     OW62602   5.673  12.825   9.385 -0.4788 -0.0295  0.5011
50763SOL    HW162603   5.674  12.733   9.412 -0.8256 -0.8152 -1.9504
50763SOL    HW262604   5.586  12.857   9.412 -0.9855 -0.9012 -0.0469
50764SOL     OW62605   5.224   2.201  10.652  0.1137 -0.3963  0.0972
50764SOL    HW162606   5.137   2.238  10.634  0.0235  1.2024  3.1590
50764SOL    HW262607   5.239   2.220  10.744  3.6584 -0.8225 -0.2738
50765SOL     OW62608  11.458  11.584  11.027  0.4657  0.1570  0.4020
50765SOL    HW162609  11.451  11.680  11.035 -0.0283 -0.0103  2.3011
50765SOL    HW262610  11.492  11.555  11.111  1.2676 -1.3076 -0.3881
50766SOL     OW62611  12.230   5.013  11.062  0.0993  0.2068 -0.1859
50766SOL    HW162612  12.291   4.961  11.114  0.2078  1.1589  0.6536
50766SOL    HW262613  12.255   5.104  11.077 -1.8947  0.6734  0.7102
50767SOL     OW62614   1.489  11.906   2.867  0.2381 -0.4621 -0.2403
50767SOL    HW162615   1.572  11.930   2.826  0.9948 -2.7311 -0.1815
50767SOL    HW262616   1.470  11.978   2.927  1.0092  1.1405 -1.8217
50768SOL     OW62617   3.477   6.643   6.184  0.0792  0.0796 -0.2243
50768SOL    HW162618   3.494   6.736   6.171 -0.3869  0.1789 -0.1363
50768SOL    HW262619   3.405   6.640   6.247 -0.9543 -0.2942 -1.3758
50769SOL     OW62620   4.276   3.268   5.255  0.2387  0.5881  0.2173
50769SOL    HW162621   4.249   3.351   5.216  0.6790  0.1065 -1.1945
50769SOL    HW262622   4.218   3.256   5.330 -2.7379  0.1446 -1.9771
50770SOL     OW62623   9.972   9.564  11.150 -0.5987  0.0608  0.2066
50770SOL    HW162624   9.986   9.520  11.066  1.2528 -0.9224  0.9624
50770SOL    HW262625   9.979   9.657  11.130 -1.8986 -0.0776 -0.9934
50771SOL     OW62626   8.704   5.408   7.032  0.7225 -0.0296  0.3015
50771SOL    HW162627   8.768   5.466   7.074  0.7982  0.9704 -1.1219
50771SOL    HW262628   8.652   5.466   6.976  0.5386 -1.2765 -0.8787
50772SOL     OW62629   1.847   4.864   9.033  0.1895 -0.7209 -0.0225
50772SOL    HW162630   1.789   4.802   8.988 -0.6040 -0.4398  0.5769
50772SOL    HW262631   1.789   4.911   9.093  1.2570 -1.3370  1.5698
50773SOL     OW62632   6.997   1.678   2.481  0.1320 -0.0595  0.4323
50773SOL    HW162633   6.948   1.631   2.548  1.6834  0.7285  2.2128
50773SOL    HW262634   6.974   1.770   2.494  0.3540  0.0990 -0.2220
50774SOL     OW62635   7.343   0.131   4.406  0.2717  0.0421 -0.4015
50774SOL    HW162636   7.297   0.075   4.470 -0.2861  1.8129  0.8192
50774SOL    HW262637   7.432   0.097   4.406  0.1415 -0.3851  0.9032
50775SOL     OW62638   7.173   5.012   8.181  0.5460 -0.4054 -0.1375
50775SOL    HW162639   7.203   5.078   8.119  0.3952 -0.1505  0.0616
50775SOL    HW262640   7.080   4.999   8.160  0.6889 -0.9102 -0.4949
50776SOL     OW62641   8.063   2.315   7.941  0.4694 -0.0740  0.0470
50776SOL    HW162642   8.039   2.394   7.991 -1.6707 -0.1076 -0.8335
50776SOL    HW262643   7.994   2.252   7.962  1.1417 -1.0728 -0.7037
50777SOL     OW62644   3.764   8.433   9.374 -0.2869 -0.4979 -0.2534
50777SOL    HW162645   3.726   8.518   9.353  0.7715  0.4144  1.2956
50777SOL    HW262646   3.750   8.380   9.296  2.7348  2.3498 -3.0519
50778SOL     OW62647   2.682   0.430  10.473 -0.7186  0.0848 -0.3039
50778SOL    HW162648   2.592   0.437  10.504 -0.2245 -0.4277  1.3571
50778SOL    HW262649   2.733   0.411  10.552  0.9028  0.7337 -1.1508
50779SOL     OW62650   9.577   5.048   3.732 -0.1440 -0.1865  0.3513
50779SOL    HW162651   9.661   5.004   3.742 -0.4090 -1.2550 -1.5318
50779SOL    HW262652   9.516   4.995   3.783  0.0132 -0.4543  0.2641
50780SOL     OW62653   1.472  11.915   4.664  0.2103 -0.1739 -0.1053
50780SOL    HW162654   1.424  11.833   4.651 -0.1703 -0.0380  0.4016
50780SOL    HW262655   1.529  11.922   4.588  2.3524 -2.3333  1.1486
50781SOL     OW62656   7.346   4.862   3.718 -0.0352 -0.2498  0.0013
50781SOL    HW162657   7.425   4.915   3.723  0.2344 -0.7070  0.8904
50781SOL    HW262658   7.351   4.819   3.632 -0.3607  1.2665 -0.8130
50782SOL     OW62659   5.427   3.696   8.917 -0.2686 -0.0805 -0.0375
50782SOL    HW162660   5.361   3.638   8.878  0.2494 -0.7261  0.0209
50782SOL    HW262661   5.504   3.640   8.927  0.7372  1.0220 -1.3681
50783SOL     OW62662  10.955   7.003   1.645  0.3369  0.4701 -0.1962
50783SOL    HW162663  11.030   7.062   1.654  0.9394 -0.5432  2.4596
50783SOL    HW262664  10.881   7.052   1.682  0.7005 -0.1224  1.3997
50784SOL     OW62665   9.396   2.794  10.011 -0.3849  0.2079  0.0288
50784SOL    HW162666   9.395   2.702   9.984  1.5920  0.0417  0.3508
50784SOL    HW262667   9.489   2.817  10.013 -0.8436  2.2214 -0.0136
50785SOL     OW62668  11.002   4.144   7.864 -0.1299  0.4071 -0.1283
50785SOL    HW162669  10.975   4.053   7.855  0.7858  0.2497 -1.7327
50785SOL    HW262670  10.969   4.171   7.949  0.8737 -1.8770  1.0769
50786SOL     OW62671   3.960  10.426   8.747 -0.5863  0.1173  0.2084
50786SOL    HW162672   3.913  10.375   8.812 -0.2240 -0.0245  0.3605
50786SOL    HW262673   4.046  10.441   8.786  0.5615 -2.1334 -1.2400
50787SOL     OW62674   9.609  12.379   3.042  0.6166  0.6513  0.1611
50787SOL    HW162675   9.550  12.455   3.048 -0.6373 -0.2647 -0.0220
50787SOL    HW262676   9.689  12.407   3.086 -0.3261  1.6173  1.3419
50788SOL     OW62677   1.386  10.740   7.680 -0.3391  0.4639 -0.2194
50788SOL    HW162678   1.328  10.724   7.605 -0.5326 -0.9096  0.1948
50788SOL    HW262679   1.465  10.778   7.641 -0.8644  0.7925 -0.9894
50789SOL     OW62680   6.124   3.216   8.598 -0.3139  0.5822 -0.0644
50789SOL    HW162681   6.205   3.250   8.560  0.5258 -1.0210  0.2117
50789SOL    HW262682   6.061   3.221   8.527  0.1660  1.3101 -0.4573
50790SOL     OW62683   0.600  12.829  10.885 -0.4289  0.2915 -0.2205
50790SOL    HW162684   0.564  12.909  10.924 -1.1254 -0.5623  0.9355
50790SOL    HW262685   0.694  12.844  10.883 -0.4520  0.7206  1.0119
50791SOL     OW62686   6.684  10.004   3.530  0.3878 -0.1085  0.0202
50791SOL    HW162687   6.666  10.097   3.520 -2.4278 -0.6975 -1.4744
50791SOL    HW262688   6.737   9.982   3.453 -0.3063  0.0088 -0.5088
50792SOL     OW62689   3.344  10.453   4.602  0.1275  0.4155  0.3862
50792SOL    HW162690   3.370  10.447   4.694 -1.4164 -1.1083  0.7842
50792SOL    HW262691   3.287  10.377   4.588 -2.2917  2.3013 -0.9218
50793SOL     OW62692   5.326   4.244   2.688  0.7030  0.4965 -0.1160
50793SOL    HW162693   5.237   4.214   2.708  0.6380 -0.1215 -1.2957
50793SOL    HW262694   5.318   4.292   2.606  1.2608  1.5389  0.4183
50794SOL     OW62695  11.562   9.107   9.779  0.4515  0.0247  0.3294
50794SOL    HW162696  11.586   9.054   9.855 -1.6757 -1.0937  0.2976
50794SOL    HW262697  11.629   9.088   9.714  0.9287 -0.9323  1.0773
50795SOL     OW62698   8.520   7.598   2.870  0.6511  0.0786 -0.0618
50795SOL    HW162699   8.550   7.654   2.799 -0.4874  1.1919  0.3043
50795SOL    HW262700   8.433   7.631   2.891  1.9943  1.7065  3.7774
50796SOL     OW62701   7.538   0.283  10.264 -0.0610 -0.2595  0.0894
50796SOL    HW162702   7.453   0.248  10.236 -1.0769  0.5230  2.0054
50796SOL    HW262703   7.549   0.363  10.212 -1.6600  0.8953  1.4230
50797SOL     OW62704   3.565   9.117   0.314  0.1372 -0.1858  0.1024
50797SOL    HW162705   3.476   9.085   0.302  0.3769 -0.3033 -1.6173
50797SOL    HW262706   3.620   9.051   0.271  0.9996  0.2112  0.5709
50798SOL     OW62707   5.995   0.827   9.652 -0.1667 -0.1167 -0.1464
50798SOL    HW162708   6.054   0.903   9.660  0.1413 -0.0373 -2.3991
50798SOL    HW262709   5.909   0.866   9.634 -0.6430 -0.2711  1.6526
50799SOL     OW62710  12.177   4.936  11.971  0.1845 -0.3158 -0.7349
50799SOL    HW162711  12.187   5.004  11.904  0.0772 -1.3332 -1.8254
50799SOL    HW262712  12.245   4.955  12.035 -0.5754  1.4955 -0.3939
50800SOL     OW62713   1.245  11.647   3.684 -0.0331  0.0158  0.0666
50800SOL    HW162714   1.208  11.727   3.646  1.6526  0.0767 -1.6280
50800SOL    HW262715   1.230  11.655   3.778 -1.2446  1.6006 -0.2269
50801SOL     OW62716   9.303  12.064   6.073 -0.7300 -0.1556  0.0872
50801SOL    HW162717   9.357  12.084   6.149 -2.9091  0.8640  1.4644
50801SOL    HW262718   9.315  12.139   6.015  0.8415 -0.8789 -0.5827
50802SOL     OW62719   9.303   7.590   6.560 -0.7746 -0.3643 -0.3931
50802SOL    HW162720   9.342   7.552   6.482 -0.8088 -1.0148 -0.0970
50802SOL    HW262721   9.336   7.536   6.632 -1.6487 -0.4771 -0.0712
50803SOL     OW62722   5.227   7.839   5.054  0.0069  0.1043  0.1155
50803SOL    HW162723   5.217   7.905   5.123 -0.9077 -0.4296  0.5205
50803SOL    HW262724   5.190   7.759   5.092  0.2842 -0.4166 -0.6856
50804SOL     OW62725   7.571  10.680   8.950  0.3268  0.3173 -0.0171
50804SOL    HW162726   7.576  10.692   8.855 -1.4060  2.0167  0.0442
50804SOL    HW262727   7.538  10.591   8.961  0.8216 -0.0049 -0.9739
50805SOL     OW62728   2.346  11.298   2.924 -0.3934  0.5457 -0.4997
50805SOL    HW162729   2.394  11.379   2.908  2.9611 -0.8722  1.1497
50805SOL    HW262730   2.336  11.258   2.837  1.1984  1.1147 -0.9870
50806SOL     OW62731   6.713   2.154   0.297  0.0237 -0.1639  0.9084
50806SOL    HW162732   6.651   2.170   0.369 -1.5116 -3.3468  0.4743
50806SOL    HW262733   6.795   2.130   0.341 -0.2758 -0.0190  1.5614
50807SOL     OW62734   3.052   9.089   3.408 -0.4908  0.3043  0.4113
50807SOL    HW162735   3.115   9.144   3.360  0.8269 -0.2140  1.4821
50807SOL    HW262736   3.033   9.017   3.348  2.2391 -1.1042  1.0951
50808SOL     OW62737  11.008   3.762  11.271  0.4899 -0.7786  0.4353
50808SOL    HW162738  10.941   3.694  11.280  0.6259 -0.9131  0.4312
50808SOL    HW262739  11.075   3.722  11.215 -0.0036 -0.2120 -0.5915
50809SOL     OW62740   0.961   0.400   0.980  0.0010 -0.0136  0.1875
50809SOL    HW162741   0.956   0.365   0.891 -1.0635  1.0340 -0.1918
50809SOL    HW262742   1.039   0.456   0.980 -0.1082  0.1427 -0.1535
50810SOL     OW62743  10.506   6.852   4.749 -0.0564 -0.1962 -0.1811
50810SOL    HW162744  10.477   6.793   4.820  1.3047 -0.5220  0.1315
50810SOL    HW262745  10.581   6.807   4.710  1.7222  1.7761  0.7527
50811SOL     OW62746   6.447  12.148   2.634 -0.0954  0.0134 -0.1723
50811SOL    HW162747   6.519  12.208   2.613 -1.7124  2.7995  1.5283
50811SOL    HW262748   6.379  12.170   2.570 -0.9959  0.5972  0.9625
50812SOL     OW62749   3.245   7.921   7.354  0.0132 -0.6867 -0.5418
50812SOL    HW162750   3.324   7.912   7.301  1.4824 -1.0145  1.5931
50812SOL    HW262751   3.275   7.955   7.438 -2.3291  0.6028 -0.1244
50813SOL     OW62752   8.900  11.403   0.962  0.3557  0.6933  0.2067
50813SOL    HW162753   8.830  11.426   1.023  0.7708  3.7501 -0.3246
50813SOL    HW262754   8.857  11.399   0.876  0.4167 -0.0367  0.1974
50814SOL     OW62755   9.618   7.653  10.661 -0.1184  0.3212 -0.4142
50814SOL    HW162756   9.601   7.720  10.727  0.5104  3.2960 -3.0017
50814SOL    HW262757   9.712   7.637  10.667  0.1385  1.4305 -1.2582
50815SOL     OW62758   9.879   5.288   6.433 -0.3994  0.1131 -0.1424
50815SOL    HW162759   9.853   5.237   6.356  1.3204 -0.0949 -0.6351
50815SOL    HW262760   9.917   5.224   6.493  1.2484  0.6731 -0.5192
50816SOL     OW62761   2.156   7.075   8.909  0.4782 -0.1920  0.2953
50816SOL    HW162762   2.250   7.078   8.891  0.6728  1.3388  1.3624
50816SOL    HW262763   2.123   7.158   8.876  0.2010  0.9772  3.2311
50817SOL     OW62764   3.260  12.203   3.086 -0.6994 -0.1262 -0.5474
50817SOL    HW162765   3.228  12.114   3.095 -1.4250  0.0622 -1.2131
50817SOL    HW262766   3.201  12.255   3.141  0.2842 -0.1624  0.5883
50818SOL     OW62767   1.114   1.633   3.255  0.0271 -0.6508  0.6487
50818SOL    HW162768   1.114   1.706   3.193  0.9771 -1.1646  0.0189
50818SOL    HW262769   1.021   1.610   3.265 -0.3015  0.7460  1.0015
50819SOL     OW62770  12.571  11.762  10.580  0.3793  0.0098 -0.1399
50819SOL    HW162771  12.535  11.719  10.657  0.3290 -0.5558 -0.4766
50819SOL    HW262772  12.628  11.696  10.540  2.2601  1.0549  0.6898
50820SOL     OW62773   3.630   9.924  11.174 -0.5480  0.1528 -0.2081
50820SOL    HW162774   3.608   9.994  11.236  2.4191  0.5584  0.5319
50820SOL    HW262775   3.700   9.961  11.120 -0.7967 -1.3473 -1.6147
50821SOL     OW62776   8.505  10.619   2.031  0.4580 -0.6499 -0.2782
50821SOL    HW162777   8.594  10.595   2.007  0.3177 -1.0628 -0.4080
50821SOL    HW262778   8.455  10.610   1.949  0.1923 -0.9582 -0.0846
50822SOL     OW62779   3.062   9.921   3.576  0.2117 -0.1751 -0.0394
50822SOL    HW162780   3.044  10.008   3.540 -1.4097  0.0889  1.2818
50822SOL    HW262781   2.997   9.864   3.535  0.6434 -0.5831 -0.1688
50823SOL     OW62782   7.782   2.274   5.919  0.6483  0.5772  0.9019
50823SOL    HW162783   7.738   2.192   5.940 -0.5722  0.2892 -2.2200
50823SOL    HW262784   7.722   2.342   5.949 -0.5382  0.2085 -0.5013
50824SOL     OW62785   8.866   9.148   3.989 -0.2236  0.6370  0.0388
50824SOL    HW162786   8.854   9.230   4.036 -0.5904  0.8218 -0.3646
50824SOL    HW262787   8.954   9.118   4.013 -0.3494  0.8047  0.7079
50825SOL     OW62788   2.674   5.212   9.790 -0.3904 -0.6563 -0.3374
50825SOL    HW162789   2.610   5.263   9.840 -1.2691  0.1368 -2.1783
50825SOL    HW262790   2.673   5.125   9.831 -1.7684 -0.3079  0.4209
50826SOL     OW62791   0.227   7.435   1.039  0.4013 -0.1479 -0.8004
50826SOL    HW162792   0.209   7.349   1.003 -2.2247 -0.0284  0.0436
50826SOL    HW262793   0.141   7.475   1.052  1.5016  2.4851 -0.8355
50827SOL     OW62794   6.706   2.213   1.883  0.1587 -0.2829  0.2029
50827SOL    HW162795   6.626   2.266   1.876  0.6046  0.9245  2.9893
50827SOL    HW262796   6.775   2.269   1.846  0.2073 -0.0252  0.6835
50828SOL     OW62797   1.074   7.152   0.606  0.0075  0.1041 -0.2945
50828SOL    HW162798   1.035   7.172   0.520  0.1736  1.2878 -0.1221
50828SOL    HW262799   1.138   7.083   0.588  0.7990  1.0670 -1.3439
50829SOL     OW62800   6.412   1.085   3.831  0.3012  0.8120 -0.2878
50829SOL    HW162801   6.501   1.068   3.862  1.0478  2.3083 -1.4413
50829SOL    HW262802   6.409   1.046   3.744 -1.4169 -2.3984  1.0804
50830SOL     OW62803   2.504   0.772  10.124 -0.0393  0.4010  0.5860
50830SOL    HW162804   2.574   0.713  10.152  0.9363  1.8495  1.3090
50830SOL    HW262805   2.457   0.723  10.057  0.2995 -1.4528  1.6514
50831SOL     OW62806   2.313   0.175   2.745 -0.5511  0.4168 -0.1763
50831SOL    HW162807   2.332   0.090   2.706  2.0438  0.8812 -0.1170
50831SOL    HW262808   2.286   0.230   2.672  1.9576  0.6328 -1.0314
50832SOL     OW62809   9.668  10.780  10.705 -0.1768 -0.0301  0.5782
50832SOL    HW162810   9.629  10.761  10.619 -0.5092  0.8835  0.5132
50832SOL    HW262811   9.681  10.694  10.745 -0.6903 -0.4335 -0.0921
50833SOL     OW62812   5.610   9.593   2.193 -0.1321 -0.2310 -0.2781
50833SOL    HW162813   5.533   9.646   2.214 -0.2812  0.3233 -2.0845
50833SOL    HW262814   5.574   9.506   2.176 -0.7959  0.5783 -3.6462
50834SOL     OW62815   9.530   5.136   6.827  0.6342 -0.0850  0.7712
50834SOL    HW162816   9.475   5.073   6.873 -0.6591  0.4652  0.0271
50834SOL    HW262817   9.560   5.196   6.896 -2.5679  1.6844  0.8216
50835SOL     OW62818   8.830   1.886   5.454 -0.1935 -0.3515  0.6810
50835SOL    HW162819   8.750   1.878   5.402 -0.8877  1.2105  1.4501
50835SOL    HW262820   8.892   1.931   5.397  0.4247 -2.1345 -0.1537
50836SOL     OW62821  10.477  12.462   6.163  0.3880  0.8845 -0.3516
50836SOL    HW162822  10.573  12.458   6.165  0.3486 -0.7597  0.6623
50836SOL    HW262823  10.454  12.438   6.073  0.9245 -0.1899 -0.2235
50837SOL     OW62824   4.705   3.399   4.133 -0.5861 -0.0182  0.2403
50837SOL    HW162825   4.756   3.351   4.198  2.4379  3.1384  0.4861
50837SOL    HW262826   4.653   3.462   4.184  0.1275  1.0011 -0.2583
50838SOL     OW62827   0.634   6.694  12.367 -0.2396 -0.2072 -0.5149
50838SOL    HW162828   0.627   6.628  12.298 -0.2928  1.1047 -1.8117
50838SOL    HW262829   0.596   6.652  12.444 -1.9106 -1.0627 -1.7437
50839SOL     OW62830   7.154   1.210   5.904 -0.3204  0.3099  0.2734
50839SOL    HW162831   7.209   1.287   5.894 -0.9383  0.5224 -1.7353
50839SOL    HW262832   7.066   1.239   5.884 -0.8419 -0.5612  1.1605
50840SOL     OW62833   7.215   0.947   5.503  0.4093 -0.3153 -0.5306
50840SOL    HW162834   7.288   0.968   5.561  0.1647 -2.2353  0.5462
50840SOL    HW262835   7.137   0.958   5.557 -0.0901  0.8968 -1.4306
50841SOL     OW62836   9.193   9.356   0.308 -0.1114  0.0632  0.1029
50841SOL    HW162837   9.247   9.416   0.358  3.0046  0.7811 -3.6721
50841SOL    HW262838   9.125   9.411   0.269 -0.7844  0.0068  1.1583
50842SOL     OW62839   5.186  11.154   0.649  0.1545  0.2892 -0.7651
50842SOL    HW162840   5.257  11.094   0.668  0.7950  1.3018  0.1468
50842SOL    HW262841   5.184  11.214   0.724 -1.0400  0.8607 -1.2207
50843SOL     OW62842   0.803   5.074   1.501  1.0375  0.2654  0.3898
50843SOL    HW162843   0.862   5.031   1.564  1.6570  1.1622  0.4444
50843SOL    HW262844   0.722   5.088   1.550 -0.0536 -2.8844 -0.2992
50844SOL     OW62845  10.187   8.766   3.687  0.0796 -0.3850 -0.0039
50844SOL    HW162846  10.178   8.833   3.619  1.4588 -2.0758 -2.0042
50844SOL    HW262847  10.263   8.794   3.738 -0.8134  0.7686  0.7366
50845SOL     OW62848   7.821   4.420   0.778  0.1927 -0.3092 -0.6077
50845SOL    HW162849   7.880   4.405   0.852  1.3262 -0.1230 -1.4431
50845SOL    HW262850   7.820   4.515   0.767 -0.0234 -0.3321 -0.7938
50846SOL     OW62851  12.109   5.428   1.869 -0.1611 -0.1714  0.0221
50846SOL    HW162852  12.162   5.369   1.923  1.5157 -0.3354 -1.7131
50846SOL    HW262853  12.031   5.376   1.848 -0.1108 -0.6635  0.9690
50847SOL     OW62854  11.514   2.247   7.412  0.0405  0.3355 -0.2594
50847SOL    HW162855  11.606   2.234   7.393 -0.2595 -0.0886 -1.5349
50847SOL    HW262856  11.512   2.279   7.502  1.5374  2.0384 -0.7665
50848SOL     OW62857   0.932  10.013  10.368  0.3371  0.1347 -0.3237
50848SOL    HW162858   0.904  10.013  10.277  0.4665 -2.8922 -0.4728
50848SOL    HW262859   1.021   9.978  10.366 -0.0389 -1.0127  0.9927
50849SOL     OW62860   0.527   9.187   6.935  0.2632  0.2406 -0.3989
50849SOL    HW162861   0.612   9.145   6.946  0.3731  0.9006  1.5740
50849SOL    HW262862   0.538   9.245   6.859  1.6589  0.5586  0.0240
50850SOL     OW62863  12.492   5.162   6.040  0.4942 -0.1755 -0.4894
50850SOL    HW162864  12.446   5.132   5.961 -0.0736 -0.3448 -0.1065
50850SOL    HW262865  12.554   5.092   6.059  0.0137 -0.5567 -0.2879
50851SOL     OW62866   2.316   7.097  11.486  0.3391 -0.2687  0.6225
50851SOL    HW162867   2.222   7.086  11.493  0.4411 -0.4251  2.0087
50851SOL    HW262868   2.345   7.117  11.575  1.4179  1.4278 -0.0499
50852SOL     OW62869   9.286  12.611  11.399  0.3260  0.0173 -0.0377
50852SOL    HW162870   9.248  12.690  11.437 -1.3571 -0.4184 -0.7473
50852SOL    HW262871   9.304  12.635  11.308  0.9131 -0.0735  0.0503
50853SOL     OW62872   3.990   9.769   9.642  0.0742  0.2095 -0.0419
50853SOL    HW162873   4.019   9.817   9.720  2.6513 -1.1528 -0.0682
50853SOL    HW262874   4.064   9.772   9.582 -0.6624 -1.4879 -1.1317
50854SOL     OW62875   3.584   6.794   2.360  0.1714  0.2048 -0.1246
50854SOL    HW162876   3.577   6.738   2.283 -1.3577  0.9698 -0.5914
50854SOL    HW262877   3.669   6.837   2.352  1.9932 -2.8706  0.8932
50855SOL     OW62878   2.437   4.605  10.839 -0.0828  0.7054  0.3026
50855SOL    HW162879   2.423   4.682  10.895 -1.1464  1.3038 -0.7231
50855SOL    HW262880   2.459   4.535  10.900  1.6282  1.9621  1.2136
50856SOL     OW62881   0.577   8.663   1.933  0.3888 -0.3325  0.1064
50856SOL    HW162882   0.497   8.681   1.983  0.0750  2.6941 -1.2317
50856SOL    HW262883   0.642   8.642   2.000 -0.6011  1.1031  1.6188
50857SOL     OW62884   8.722  12.837   5.506 -0.0088 -0.6760  0.3736
50857SOL    HW162885   8.796  12.864   5.560  0.4667 -1.1195 -0.0507
50857SOL    HW262886   8.659  12.908   5.515  1.2035  0.5864 -0.7026
50858SOL     OW62887   6.774  10.657  11.323  0.3275 -0.4015 -0.0603
50858SOL    HW162888   6.842  10.591  11.309  0.5436 -0.1867 -0.0155
50858SOL    HW262889   6.821  10.737  11.345  0.0496 -0.3319  0.2925
50859SOL     OW62890   6.387   7.814  10.426 -1.1064 -0.3636  0.6511
50859SOL    HW162891   6.474   7.854  10.421 -0.2040 -2.2593 -0.2585
50859SOL    HW262892   6.359   7.826  10.516 -0.3926  1.2534  0.6758
50860SOL     OW62893   1.563  12.425   0.857 -0.6391  0.4841 -0.4426
50860SOL    HW162894   1.556  12.485   0.782  0.8169  0.4238 -0.6671
50860SOL    HW262895   1.511  12.349   0.831 -1.2297  1.0039 -0.8248
50861SOL     OW62896   3.983  10.704   1.447  0.0094 -0.3016  0.0219
50861SOL    HW162897   3.964  10.658   1.529  3.3167 -2.1090 -0.0490
50861SOL    HW262898   4.050  10.768   1.471  0.3427 -0.2151 -1.1051
50862SOL     OW62899   4.564   0.591   0.428  0.5663  0.1201  0.0606
50862SOL    HW162900   4.486   0.566   0.477  0.9414  1.1434  1.2067
50862SOL    HW262901   4.530   0.634   0.350 -0.0608  2.1901  1.4068
50863SOL     OW62902   8.988   8.939   6.848  0.1049  0.1598 -0.6466
50863SOL    HW162903   9.034   8.932   6.764  1.0086  0.7252 -0.2153
50863SOL    HW262904   9.009   9.027   6.879 -2.1377  0.8547 -0.9253
50864SOL     OW62905   6.265  12.272   8.341 -0.4985  1.2019 -0.1065
50864SOL    HW162906   6.237  12.267   8.250  0.8050  0.2831 -0.4897
50864SOL    HW262907   6.243  12.361   8.369  1.4267  2.3902 -2.1357
50865SOL     OW62908   2.103   9.179  12.648  0.2742 -0.1180 -0.0447
50865SOL    HW162909   2.122   9.207  12.558 -0.9348 -0.1468 -0.3198
50865SOL    HW262910   2.049   9.250  12.684  2.0202  0.6635  1.2053
50866SOL     OW62911   5.239   8.409   0.188  0.2316 -0.3060 -0.6694
50866SOL    HW162912   5.317   8.353   0.190  0.5346  0.1192 -0.3648
50866SOL    HW262913   5.236   8.443   0.099 -0.9243 -2.1374 -1.3781
50867SOL     OW62914   6.917   1.114   2.890 -0.0393 -0.4419  0.0376
50867SOL    HW162915   6.925   1.020   2.902 -1.1641 -0.9727 -2.7232
50867SOL    HW262916   6.993   1.138   2.836 -0.3562  0.0243 -0.2089
50868SOL     OW62917   7.980  11.116   0.739  0.0305  0.0379 -0.7269
50868SOL    HW162918   8.049  11.064   0.699  1.4763  0.2317  1.3801
50868SOL    HW262919   8.009  11.207   0.728 -0.2129  0.1571 -0.4080
50869SOL     OW62920  11.983  11.589   7.869  0.4755  0.1659 -0.4523
50869SOL    HW162921  11.957  11.550   7.953 -0.1617 -0.2261 -0.8246
50869SOL    HW262922  12.031  11.668   7.894 -0.3341  0.4519  0.2762
50870SOL     OW62923   4.780   5.695   3.236  0.0976  0.2250  0.4070
50870SOL    HW162924   4.808   5.734   3.319  1.8666 -1.7395  0.8091
50870SOL    HW262925   4.807   5.758   3.169 -1.5503  1.9364  1.2715
50871SOL     OW62926   0.265   1.859   7.235 -0.7242  0.2924 -1.1394
50871SOL    HW162927   0.242   1.866   7.328 -0.6983 -1.0887 -1.0067
50871SOL    HW262928   0.225   1.935   7.195 -0.5208  1.0536  0.0446
50872SOL     OW62929  10.341   9.843   7.868 -0.0991  0.1898 -0.2180
50872SOL    HW162930  10.309   9.877   7.784  0.0350  0.2919 -0.2269
50872SOL    HW262931  10.373   9.921   7.915  1.1981 -0.0542 -0.6641
50873SOL     OW62932   9.176   9.791   7.147  0.0038 -0.2897 -0.1003
50873SOL    HW162933   9.235   9.859   7.180  1.4433 -1.6832  0.3295
50873SOL    HW262934   9.231   9.712   7.142 -1.6961 -1.5189 -0.1994
50874SOL     OW62935   0.123   6.305   3.511  0.5360  0.0424 -0.1425
50874SOL    HW162936   0.121   6.291   3.606 -1.1869  1.0194  0.0106
50874SOL    HW262937   0.138   6.399   3.501  2.4773 -0.3134 -0.9164
50875SOL     OW62938   4.518   8.985  11.282  0.1288  0.1972  0.1166
50875SOL    HW162939   4.461   9.015  11.212  1.5450 -1.3059 -1.7794
50875SOL    HW262940   4.536   9.064  11.334 -0.5730  1.4569 -1.4697
50876SOL     OW62941   9.229   8.784   3.843 -0.4586  0.0433  0.4273
50876SOL    HW162942   9.315   8.814   3.814 -0.4610 -0.1340  0.2342
50876SOL    HW262943   9.167   8.845   3.804 -0.5773 -1.0659 -1.2250
50877SOL     OW62944   4.322   9.505   3.219  0.1053 -0.0662 -0.8690
50877SOL    HW162945   4.292   9.565   3.288  2.3484 -1.3645  1.4197
50877SOL    HW262946   4.391   9.554   3.173  1.3908 -0.4994  0.4943
50878SOL     OW62947   8.095   4.435   2.470 -0.0374  0.5695 -0.2804
50878SOL    HW162948   8.128   4.354   2.433 -0.0541 -0.0490  0.9861
50878SOL    HW262949   8.031   4.406   2.536  0.5782  1.5649  0.7873
50879SOL     OW62950  12.405   5.232   7.436  0.3849 -0.1618 -0.1663
50879SOL    HW162951  12.350   5.310   7.429  0.3300 -0.2008 -0.1704
50879SOL    HW262952  12.482   5.252   7.384  0.3490 -0.1283 -0.2067
50880SOL     OW62953   6.735   4.755   3.773 -0.4595 -0.3697 -0.0391
50880SOL    HW162954   6.822   4.760   3.735 -0.2423 -0.2066  0.4607
50880SOL    HW262955   6.695   4.841   3.755 -0.9738 -0.8620 -1.3160
50881SOL     OW62956  10.355  11.926   9.469  0.2632 -0.4660 -0.2753
50881SOL    HW162957  10.423  11.860   9.451 -0.6544 -1.2039 -1.1180
50881SOL    HW262958  10.328  11.907   9.559  0.3803 -0.9046 -0.3292
50882SOL     OW62959   7.083   5.985   8.113  0.3072 -0.0400  0.0557
50882SOL    HW162960   7.086   5.894   8.084  1.6939  0.8150 -2.9971
50882SOL    HW262961   7.148   6.029   8.058 -0.4214  2.8372  1.3106
50883SOL     OW62962   2.427   4.564   5.252 -0.5684 -0.0248  0.3629
50883SOL    HW162963   2.457   4.619   5.179  0.2211  2.6128  2.5179
50883SOL    HW262964   2.482   4.486   5.247  1.1167  1.1409 -0.5327
50884SOL     OW62965  11.845  10.013  10.927 -0.5750  0.2491  0.3022
50884SOL    HW162966  11.837  10.054  10.841  0.3534 -1.0370 -0.4414
50884SOL    HW262967  11.887  10.079  10.981  0.0373  0.6300 -0.6027
50885SOL     OW62968  12.732   8.880   3.354  0.2645 -0.3735 -0.5932
50885SOL    HW162969  12.638   8.873   3.371  0.4205  0.0163  0.5101
50885SOL    HW262970  12.746   8.972   3.334  0.1825 -0.7134 -2.3746
50886SOL     OW62971  12.913   3.153  10.599 -0.0233 -0.1149 -0.1541
50886SOL    HW162972  13.003   3.184  10.610  0.0857 -0.9662  1.9923
50886SOL    HW262973  12.885   3.188  10.514  2.2435  0.3419 -0.7805
50887SOL     OW62974   1.097   0.042   2.389  0.3289  0.5177 -0.8086
50887SOL    HW162975   1.022   0.079   2.342  0.3929  0.4194 -0.9865
50887SOL    HW262976   1.143   0.119   2.423  0.5696  0.6132 -1.3461
50888SOL     OW62977   6.306   1.255   0.433  0.4345  0.2257  0.4738
50888SOL    HW162978   6.388   1.218   0.465  1.1171  0.7550 -0.6146
50888SOL    HW262979   6.319   1.266   0.339 -0.2555  1.9306  0.5405
50889SOL     OW62980   8.471   2.729   4.188 -0.2673 -0.2215 -0.0824
50889SOL    HW162981   8.459   2.689   4.275  0.2000  0.2083  0.1829
50889SOL    HW262982   8.553   2.776   4.195 -0.2973 -0.0731 -0.7257
50890SOL     OW62983  12.650   7.006   9.466 -0.3075  0.0814 -0.0416
50890SOL    HW162984  12.627   6.954   9.543 -1.0911 -1.3561 -1.1915
50890SOL    HW262985  12.574   7.064   9.453 -0.0994  0.4494  0.3465
50891SOL     OW62986   8.002  10.201   5.079 -0.2957  0.2500  0.3314
50891SOL    HW162987   8.020  10.124   5.132 -0.4522  0.9467  1.4300
50891SOL    HW262988   7.908  10.196   5.060 -0.4715  0.5505  1.0627
50892SOL     OW62989   6.419   5.663   4.129 -0.6301 -0.4296  0.5217
50892SOL    HW162990   6.382   5.598   4.069 -0.0071 -0.5627  0.2705
50892SOL    HW262991   6.464   5.611   4.196  0.3817 -0.2718 -0.0060
50893SOL     OW62992  10.502   9.241   5.439 -0.2081 -0.4942  0.1347
50893SOL    HW162993  10.484   9.325   5.482  2.5362 -0.0423  0.6524
50893SOL    HW262994  10.521   9.264   5.348  1.1594 -0.4068  0.4161
50894SOL     OW62995  10.967  10.236   0.490  0.2105  0.2966 -0.1153
50894SOL    HW162996  10.962  10.150   0.449  2.3454  0.9415 -1.8819
50894SOL    HW262997  10.877  10.267   0.491 -0.6248 -1.8940  0.5686
50895SOL     OW62998  11.968  10.388   6.077  0.1271  0.3517  0.2347
50895SOL    HW162999  11.885  10.431   6.057  0.9899  1.5917 -0.8820
50895SOL    HW263000  11.991  10.421   6.164 -0.2071  0.5607  0.2468
50896SOL     OW63001   7.738   6.540   7.647 -0.0166  0.1875  0.2210
50896SOL    HW163002   7.642   6.538   7.648 -0.1011 -2.7742 -1.6860
50896SOL    HW263003   7.763   6.536   7.739 -1.6955  1.1110  0.7595
50897SOL     OW63004   2.271   5.327  12.940  0.3295  0.2017 -0.4102
50897SOL    HW163005   2.232   5.411  12.964 -0.1287  0.2516 -1.2753
50897SOL    HW263006   2.352   5.350  12.895 -0.1961  0.2285 -1.3715
50898SOL     OW63007   1.309   7.345  12.252  1.1413 -0.2103  0.3368
50898SOL    HW163008   1.235   7.349  12.313  0.7204  0.2687 -0.1860
50898SOL    HW263009   1.383   7.379  12.301  0.8459 -0.0006  0.6411
50899SOL     OW63010   2.179   4.561  11.085 -0.0101 -0.2339  0.3963
50899SOL    HW163011   2.253   4.515  11.046 -0.1572 -0.4023  0.3108
50899SOL    HW263012   2.108   4.497  11.084 -0.9535  0.7477 -2.0156
50900SOL     OW63013   6.154   5.415   8.607 -0.0069  0.2504 -0.1218
50900SOL    HW163014   6.183   5.369   8.528  3.6824  2.1193 -0.0920
50900SOL    HW263015   6.209   5.493   8.610 -1.6101  1.4165  3.1318
50901SOL     OW63016   3.774   6.620  12.249 -0.0215 -0.0278 -0.0166
50901SOL    HW163017   3.821   6.651  12.327  0.8973 -2.7850  0.6544
50901SOL    HW263018   3.838   6.627  12.178 -0.3025  0.9167 -0.1866
50902SOL     OW63019   5.768   3.665   0.864  0.1941  0.4507 -0.9205
50902SOL    HW163020   5.742   3.574   0.878 -0.5474  0.9325  1.2153
50902SOL    HW263021   5.861   3.667   0.889 -0.3021  0.6292  1.1493
50903SOL     OW63022  10.424   3.178  12.392  0.0683 -0.3855  0.1204
50903SOL    HW163023  10.387   3.201  12.306 -0.8070 -2.0459  0.0242
50903SOL    HW263024  10.348   3.159  12.447  0.6183  0.7111  1.3231
50904SOL     OW63025   5.435  10.883   5.607  0.2088  0.1325 -0.5141
50904SOL    HW163026   5.413  10.790   5.611  1.5532 -0.3085 -2.1205
50904SOL    HW263027   5.421  10.907   5.516  0.9329  1.2152 -0.3515
50905SOL     OW63028   3.938   8.836   0.559 -0.0548 -0.3202 -0.1783
50905SOL    HW163029   3.844   8.826   0.546 -0.1348  0.2544 -0.0619
50905SOL    HW263030   3.977   8.770   0.502 -0.5508 -1.2518  0.5479
50906SOL     OW63031   7.905   3.214   6.842 -0.1841  0.1121  0.3259
50906SOL    HW163032   7.892   3.120   6.854 -1.2260  0.2579  0.4405
50906SOL    HW263033   7.970   3.221   6.772 -1.9181 -0.6966 -1.4630
50907SOL     OW63034  12.092   1.555   2.457  0.3775 -0.1199 -0.6040
50907SOL    HW163035  12.169   1.611   2.457 -0.0836  0.5285 -1.4581
50907SOL    HW263036  12.033   1.595   2.520  0.5558 -0.3747 -0.2696
50908SOL     OW63037   6.754   1.873  10.430 -0.7042 -0.3316 -0.0084
50908SOL    HW163038   6.739   1.965  10.409 -0.7066 -0.3249  0.0224
50908SOL    HW263039   6.708   1.859  10.512  0.9105  0.1463  1.0338
50909SOL     OW63040   6.571  11.939  11.261 -0.2620 -0.6624  0.4044
50909SOL    HW163041   6.549  12.031  11.245  0.4589 -0.5352  0.1297
50909SOL    HW263042   6.642  11.942  11.324  0.3802 -0.9963 -0.2952
50910SOL     OW63043   2.029   7.655   7.456 -0.2958  0.4941 -0.5246
50910SOL    HW163044   1.944   7.635   7.495  0.3029 -2.7820 -0.6230
50910SOL    HW263045   2.075   7.706   7.523 -0.5498 -2.0647  1.7624
50911SOL     OW63046  10.517   7.821  12.688 -0.1557 -0.0364 -0.3617
50911SOL    HW163047  10.601   7.839  12.644  0.8118 -1.3946  0.8352
50911SOL    HW263048  10.465   7.899  12.673  2.2011  1.9187  0.8783
50912SOL     OW63049   0.314  12.342   7.949  0.8848 -0.3120  0.1092
50912SOL    HW163050   0.238  12.389   7.983 -0.1890 -0.7377 -1.5635
50912SOL    HW263051   0.312  12.358   7.854  1.7220 -1.9789 -0.2366
50913SOL     OW63052   6.296  10.281   6.776  0.0187  0.1594 -0.3738
50913SOL    HW163053   6.362  10.275   6.845  0.2921  1.1691 -0.5350
50913SOL    HW263054   6.345  10.271   6.695 -0.1303  0.2054 -0.4702
50914SOL     OW63055  10.143   3.667   1.578  0.6147  0.1179  0.5322
50914SOL    HW163056  10.237   3.653   1.587  0.5386  0.6175  2.4488
50914SOL    HW263057  10.114   3.694   1.665 -1.2743  0.1843 -0.0729
50915SOL     OW63058   3.313   7.770  11.402 -0.1531 -0.0057 -0.1298
50915SOL    HW163059   3.371   7.786  11.327  0.3452 -0.4795  0.1420
50915SOL    HW263060   3.265   7.851  11.413  0.3149  0.3292 -0.4974
50916SOL     OW63061   3.224  10.712   7.743 -0.1279  0.0045 -0.1607
50916SOL    HW163062   3.158  10.762   7.790  0.2077  1.8909 -1.5764
50916SOL    HW263063   3.237  10.761   7.662  1.7325 -1.2973 -0.6996
50917SOL     OW63064   0.484   0.117   6.557  0.3396  0.0723  0.3586
50917SOL    HW163065   0.523   0.037   6.520  0.8814 -0.0273  1.1227
50917SOL    HW263066   0.398   0.090   6.589  0.9246 -0.4492  1.5293
50918SOL     OW63067   4.097   1.131   4.542 -0.0585  0.1307 -0.4608
50918SOL    HW163068   4.033   1.076   4.587 -0.9080  0.1396 -1.5997
50918SOL    HW263069   4.178   1.079   4.543 -0.1612 -0.0145  0.7298
50919SOL     OW63070   0.426   2.517  12.902 -0.0906  0.8132 -0.2716
50919SOL    HW163071   0.457   2.556  12.821 -0.4896  1.2436 -0.2207
50919SOL    HW263072   0.463   2.571  12.971  1.4586 -0.4089 -0.0937
50920SOL     OW63073   0.160   6.688   3.744  0.1036  0.1148 -0.1248
50920SOL    HW163074   0.141   6.644   3.661  1.4386 -3.2923  1.1815
50920SOL    HW263075   0.075   6.699   3.786 -0.4301  0.3598 -1.2473
50921SOL     OW63076   8.236   2.037   3.343  0.0595  0.2969  0.2383
50921SOL    HW163077   8.147   2.046   3.307 -0.6178  1.8787  2.1433
50921SOL    HW263078   8.239   2.100   3.415  2.7325  0.2386  0.2669
50922SOL     OW63079  12.685   2.767   8.367  0.2960 -0.5736  0.2874
50922SOL    HW163080  12.736   2.813   8.434  0.4569 -2.4743  1.5470
50922SOL    HW263081  12.600   2.811   8.368  0.7146  0.2653  0.8003
50923SOL     OW63082   8.932  11.470   7.918 -0.1701 -0.0464  0.1539
50923SOL    HW163083   9.001  11.421   7.962  0.4593  2.0722  1.6870
50923SOL    HW263084   8.886  11.516   7.988 -2.1933 -0.1924 -0.9931
50924SOL     OW63085   0.731  10.348  10.324 -0.1413  0.0975  0.4300
50924SOL    HW163086   0.669  10.419  10.343  0.5493  0.3809  1.7652
50924SOL    HW263087   0.724  10.289  10.399 -0.8871 -1.4302 -0.7766
50925SOL     OW63088  10.284   6.958   2.761 -0.1079 -0.0833  0.2459
50925SOL    HW163089  10.256   7.045   2.792 -0.3539  0.0511 -0.3428
50925SOL    HW263090  10.308   6.911   2.841  1.7480  1.1186  0.4562
50926SOL     OW63091  12.073   5.892   2.592 -0.8647  0.1825  0.2359
50926SOL    HW163092  12.117   5.809   2.574 -0.7344  0.0015  1.3287
50926SOL    HW263093  12.008   5.900   2.522  0.5913  0.2502 -1.1523
50927SOL     OW63094   5.004   9.463   4.059 -0.3228  0.2261 -0.3103
50927SOL    HW163095   5.070   9.516   4.103  1.8349  0.1433 -3.1335
50927SOL    HW263096   4.952   9.526   4.008 -1.0394  0.0805  0.2303
50928SOL     OW63097  11.585   2.851  11.632  0.1608 -0.0618 -0.0372
50928SOL    HW163098  11.673   2.875  11.603 -0.4149  1.2989 -0.7231
50928SOL    HW263099  11.600   2.782  11.697  1.6104 -1.6573 -1.9230
50929SOL     OW63100   8.887   5.535   7.173 -0.5646  0.3015  0.5172
50929SOL    HW163101   8.929   5.474   7.234  0.1637  0.4834  0.2039
50929SOL    HW263102   8.957   5.562   7.114 -1.0894  0.7390  0.0873
50930SOL     OW63103   2.537  11.025   4.145  0.1032 -0.4103 -0.2984
50930SOL    HW163104   2.457  10.986   4.179  1.1750 -1.1002  1.5823
50930SOL    HW263105   2.597  10.951   4.135  0.7197  0.1760 -1.0393
50931SOL     OW63106   0.095   2.065   9.608 -0.4267  0.2461  0.1315
50931SOL    HW163107   0.039   2.103   9.540  1.6304  0.7509 -1.3832
50931SOL    HW263108   0.078   1.971   9.603 -0.5966  0.3135 -0.8430
50932SOL     OW63109   4.677   7.847   7.834 -0.2238  0.2570 -0.1895
50932SOL    HW163110   4.618   7.790   7.884  0.9138 -1.5003 -0.7457
50932SOL    HW263111   4.733   7.886   7.901 -0.0157 -0.4957  0.0902
50933SOL     OW63112   8.904   0.372   3.104  0.1293 -0.1939 -0.4762
50933SOL    HW163113   8.913   0.319   3.024 -0.6324  2.2809 -2.3107
50933SOL    HW263114   8.858   0.451   3.076  0.7249  1.2417  2.2305
50934SOL     OW63115   7.474   6.988   1.403  0.0116  0.3143 -0.0032
50934SOL    HW163116   7.553   7.005   1.351 -0.2160 -0.6040 -0.6616
50934SOL    HW263117   7.499   7.012   1.493  0.5087  1.6036 -0.4639
50935SOL     OW63118   5.866   1.048   8.017 -0.6906  0.1330  0.0189
50935SOL    HW163119   5.956   1.032   8.046 -0.7612  0.2067  0.2824
50935SOL    HW263120   5.837   1.124   8.068 -0.8703  0.1657 -0.1315
50936SOL     OW63121   0.324   2.566   5.521 -0.1251  0.1228  0.3492
50936SOL    HW163122   0.376   2.521   5.454  0.0212  0.8599 -0.0420
50936SOL    HW263123   0.271   2.497   5.560  1.0554 -0.6420  0.6789
50937SOL     OW63124   1.632   1.468   8.127 -0.3261 -0.3984  0.2995
50937SOL    HW163125   1.706   1.529   8.121 -1.1065  0.7299  1.5137
50937SOL    HW263126   1.666   1.395   8.178  0.1095 -0.1353  0.3997
50938SOL     OW63127   0.762   9.068   2.413  0.4678  0.9149 -0.2109
50938SOL    HW163128   0.819   9.052   2.488  0.6746  1.0619 -0.3379
50938SOL    HW263129   0.733   9.158   2.424 -0.4792  0.5580  0.3558
50939SOL     OW63130   2.766   1.139   7.493  0.3352 -0.2285 -0.3421
50939SOL    HW163131   2.701   1.128   7.424  1.8301  0.3789 -1.9299
50939SOL    HW263132   2.796   1.229   7.484  0.5434 -0.1191  1.1564
50940SOL     OW63133   7.646   0.140   5.332  0.6992 -0.1112 -0.0205
50940SOL    HW163134   7.589   0.197   5.280 -0.5254 -1.1228  0.1609
50940SOL    HW263135   7.722   0.124   5.275  0.4447  0.6311 -0.5844
50941SOL     OW63136  10.900   8.549   6.574 -0.2253  0.9429 -0.2163
50941SOL    HW163137  10.903   8.537   6.669 -2.3373 -0.2988 -0.2310
50941SOL    HW263138  10.839   8.622   6.561 -1.0088  0.2375 -0.6208
50942SOL     OW63139   0.142  11.172   4.096 -0.4693 -0.4303 -0.0763
50942SOL    HW163140   0.153  11.261   4.064  2.5387 -1.1627 -1.3762
50942SOL    HW263141   0.195  11.167   4.175 -1.8751 -0.6884  0.8829
50943SOL     OW63142  12.654   4.729   3.225  0.2696  0.0722 -0.4463
50943SOL    HW163143  12.638   4.715   3.318 -0.3763  0.5543 -0.4789
50943SOL    HW263144  12.576   4.695   3.181  0.2165  0.5730 -0.7518
50944SOL     OW63145   3.401   3.566   0.388 -0.0601  0.0601  0.9183
50944SOL    HW163146   3.374   3.503   0.455  2.1373 -0.8330  1.0474
50944SOL    HW263147   3.421   3.645   0.438  2.4984 -0.8899  1.5513
50945SOL     OW63148   6.981   3.752   8.089 -0.0156  0.5777  0.6185
50945SOL    HW163149   6.906   3.798   8.052 -0.1760  1.5117  2.0027
50945SOL    HW263150   6.944   3.698   8.159  0.2817 -1.0545 -0.4392
50946SOL     OW63151   1.826  11.194   4.816 -0.0841  0.1432  0.7629
50946SOL    HW163152   1.862  11.140   4.887  1.1515 -0.5657 -0.3493
50946SOL    HW263153   1.745  11.230   4.852  0.3935 -0.3590  2.4538
50947SOL     OW63154   8.868   1.827  12.225  0.0817  0.3804  0.6336
50947SOL    HW163155   8.937   1.813  12.290  0.4757 -0.2755  0.0915
50947SOL    HW263156   8.908   1.803  12.142 -0.5759  0.7169  0.2105
50948SOL     OW63157   0.167   4.046  11.400  0.0274  0.1498 -0.5415
50948SOL    HW163158   0.252   4.002  11.393  0.2534  0.6420 -0.9501
50948SOL    HW263159   0.159   4.096  11.319  0.5208  2.1982  0.6075
50949SOL     OW63160   0.757   0.171   3.087  0.4409  0.0495 -0.5266
50949SOL    HW163161   0.820   0.168   3.159  1.5034 -1.3725 -1.4584
50949SOL    HW263162   0.676   0.135   3.125  0.6566  0.3614  0.2504
50950SOL     OW63163  12.981   1.960  12.334  0.0696 -0.0290  0.4330
50950SOL    HW163164  13.027   1.913  12.404  0.1794  0.8248  0.9430
50950SOL    HW263165  13.051   1.997  12.281  0.0002 -1.0741 -0.4385
50951SOL     OW63166  12.756   6.808   9.152 -0.4645  0.4458 -0.5169
50951SOL    HW163167  12.690   6.877   9.153  0.0183  0.9141 -0.3307
50951SOL    HW263168  12.761   6.778   9.243  0.3401  1.1608 -0.3122
50952SOL     OW63169   4.861  10.836   1.910 -0.2245  0.0170  0.2716
50952SOL    HW163170   4.870  10.894   1.834 -2.1103  2.1963  1.5800
50952SOL    HW263171   4.789  10.777   1.886 -1.6639  1.4998  0.7337
50953SOL     OW63172   0.758   4.933  11.840 -0.1790  0.3302  0.1266
50953SOL    HW163173   0.680   4.948  11.893 -0.0907  0.3069  0.2651
50953SOL    HW263174   0.829   4.927  11.904 -0.1040  0.0783  0.0214
50954SOL     OW63175   0.843   5.785   3.854 -0.0209  0.7573 -0.2762
50954SOL    HW163176   0.876   5.726   3.923  0.7543  1.1820 -0.2693
50954SOL    HW263177   0.750   5.794   3.873 -0.0408 -0.0203  0.0529
50955SOL     OW63178  11.905  11.159   4.385  0.1420 -0.0045 -0.4465
50955SOL    HW163179  11.816  11.191   4.399  0.1249 -0.0824 -0.3738
50955SOL    HW263180  11.958  11.238   4.380  0.3340  0.0215  1.2565
50956SOL     OW63181   6.437   2.078   4.628 -0.6347 -0.0808  0.6768
50956SOL    HW163182   6.452   2.145   4.561 -1.7705 -0.5937 -0.1069
50956SOL    HW263183   6.396   2.125   4.700 -1.4795  0.0642  0.1057
50957SOL     OW63184   2.883  10.364  11.085  0.0103  0.1769  0.4404
50957SOL    HW163185   2.796  10.344  11.120  0.1546  3.0360  2.8091
50957SOL    HW263186   2.942  10.351  11.159  1.3131  0.4716 -0.5074
50958SOL     OW63187   6.059   0.425  12.164  0.0288 -0.0829  0.1432
50958SOL    HW163188   6.104   0.393  12.086 -0.7552 -0.9907  0.0333
50958SOL    HW263189   6.125   0.475  12.211  0.2105  1.5517 -1.6915
50959SOL     OW63190   7.171  12.391   8.350  0.1578 -0.3439 -0.0488
50959SOL    HW163191   7.205  12.383   8.439 -0.5326  2.8738  0.6300
50959SOL    HW263192   7.218  12.325   8.300  1.9126 -1.0119  2.3226
50960SOL     OW63193  10.982   0.752   3.600  0.3480  0.2397  0.1194
50960SOL    HW163194  11.008   0.841   3.622  0.5878  0.0771  0.5019
50960SOL    HW263195  10.891   0.745   3.630 -0.4868  1.0853 -2.0021
50961SOL     OW63196   2.775   7.479   3.447  0.2839 -0.2568 -0.3535
50961SOL    HW163197   2.762   7.562   3.401  0.6620  0.8267  1.4406
50961SOL    HW263198   2.832   7.429   3.388  1.1151  1.2578 -0.9137
50962SOL     OW63199   8.868  12.122   1.889  0.0388  0.0629 -0.3432
50962SOL    HW163200   8.901  12.203   1.848  0.0535 -0.0384 -0.5302
50962SOL    HW263201   8.930  12.104   1.959  0.3869 -0.1333 -0.7030
50963SOL     OW63202   8.519   0.817   3.860 -0.0838 -0.0193  0.3869
50963SOL    HW163203   8.455   0.865   3.807 -0.0185 -0.3917 -0.0402
50963SOL    HW263204   8.586   0.881   3.882  0.5599 -0.1554 -1.0872
50964SOL     OW63205  10.558   5.942  10.460 -0.0073  0.1896  0.5489
50964SOL    HW163206  10.637   5.913  10.415 -1.3757 -3.4061  0.1391
50964SOL    HW263207  10.487   5.919  10.400 -1.5030  1.3105  1.8156
50965SOL     OW63208   4.499   7.469   7.980  0.4187 -0.0305  0.0819
50965SOL    HW163209   4.564   7.455   8.049  0.2718  0.2065  0.2677
50965SOL    HW263210   4.485   7.563   7.978  0.7771  0.0138 -0.5984
50966SOL     OW63211   3.889   1.657   7.811  0.4915 -0.5369 -0.2000
50966SOL    HW163212   3.835   1.660   7.890  0.5033 -1.3924 -0.1521
50966SOL    HW263213   3.979   1.667   7.843  0.4405 -0.1417 -0.1796
50967SOL     OW63214   8.712   0.939   4.716  0.5209  0.2959  0.9939
50967SOL    HW163215   8.640   0.878   4.699  0.8701  0.0399  0.3999
50967SOL    HW263216   8.731   0.928   4.809  0.2773 -0.1701  0.9931
50968SOL     OW63217   8.221   4.104   0.516 -0.2829 -0.6394 -0.1914
50968SOL    HW163218   8.229   4.182   0.571  1.4642 -0.3462 -0.7888
50968SOL    HW263219   8.167   4.132   0.442  1.1908  0.3588 -0.9340
50969SOL     OW63220   7.519   1.468  11.602  0.7753  0.0870 -0.1142
50969SOL    HW163221   7.560   1.510  11.527  2.1094 -1.1189 -0.1162
50969SOL    HW263222   7.581   1.399  11.627 -0.7621 -1.1161  0.5756
50970SOL     OW63223  10.264   6.697  12.298  0.2505 -0.5477  0.5601
50970SOL    HW163224  10.240   6.728  12.385  1.9676  0.0667  0.8573
50970SOL    HW263225  10.180   6.675  12.256 -0.6290 -0.4479  2.1973
50971SOL     OW63226  10.472   4.242   3.432  0.3459  0.1393  0.2999
50971SOL    HW163227  10.501   4.320   3.480 -0.6166  0.0091  1.1213
50971SOL    HW263228  10.550   4.212   3.386  0.9959  0.9839  0.8231
50972SOL     OW63229   6.944   3.025   4.944  0.1559  0.5670  0.3371
50972SOL    HW163230   6.996   3.021   5.024  0.1308 -2.7361  0.3359
50972SOL    HW263231   6.853   3.023   4.974  0.1348  0.0689  0.2434
50973SOL     OW63232   2.818   5.407   4.165 -0.1637 -0.0855  0.6998
50973SOL    HW163233   2.793   5.345   4.233  0.5015  0.0282  1.0551
50973SOL    HW263234   2.795   5.363   4.083 -0.8019 -0.2949  0.9843
50974SOL     OW63235   9.564   8.510   9.787 -0.2027  0.8884 -0.6461
50974SOL    HW163236   9.522   8.567   9.723  0.1106  0.7608 -0.9666
50974SOL    HW263237   9.499   8.442   9.805  0.2190  0.1151 -1.8975
50975SOL     OW63238   3.006   1.660   4.987 -0.2866 -0.6328 -0.3343
50975SOL    HW163239   3.072   1.630   5.049 -0.6958  0.2236  0.5308
50975SOL    HW263240   2.925   1.617   5.015 -0.1560 -1.5905 -1.3239
50976SOL     OW63241   7.557   7.965   2.025  0.5253 -0.4548 -0.1379
50976SOL    HW163242   7.583   7.899   1.961  2.0546  0.9860 -1.0924
50976SOL    HW263243   7.639   8.003   2.055 -0.2497  3.0849 -1.9255
50977SOL     OW63244   2.658   3.667   1.399  0.7783  0.1540 -0.4309
50977SOL    HW163245   2.705   3.584   1.406  0.1595 -0.2146 -0.6199
50977SOL    HW263246   2.706   3.715   1.331 -0.0040 -0.8413 -1.7412
50978SOL     OW63247   0.369   0.717   9.668  0.6382 -0.0619 -0.0160
50978SOL    HW163248   0.407   0.791   9.716  1.7811 -2.2381  2.7196
50978SOL    HW263249   0.390   0.735   9.576  6.3134  0.2625  0.9453
50979SOL     OW63250   4.621   4.534   2.329 -0.0029 -0.0254  0.0774
50979SOL    HW163251   4.674   4.454   2.326 -2.5838 -1.9743  1.7711
50979SOL    HW263252   4.546   4.514   2.273 -0.7140  1.2202  0.5668
50980SOL     OW63253  11.351   9.639  11.843 -0.1594  0.0809 -0.9265
50980SOL    HW163254  11.376   9.590  11.765 -0.1820 -2.5412  0.6269
50980SOL    HW263255  11.355   9.576  11.915 -0.9937  2.1636  1.0964
50981SOL     OW63256   4.965  12.822   7.297 -0.2437  0.3240  0.2229
50981SOL    HW163257   4.894  12.808   7.234  0.3200  0.4402 -0.4563
50981SOL    HW263258   4.927  12.880   7.363 -0.9164  0.0175  0.1119
50982SOL     OW63259   8.720   2.760  10.190 -0.1210  0.3216  0.2578
50982SOL    HW163260   8.692   2.706  10.116  0.4190  0.9524 -0.4244
50982SOL    HW263261   8.800   2.803  10.159  0.6465 -0.1228  1.5422
50983SOL     OW63262   9.953  11.964  12.640 -0.7615  0.0955 -0.1890
50983SOL    HW163263   9.857  11.969  12.634 -0.7810  0.9066  0.5684
50983SOL    HW263264   9.980  12.054  12.658  0.1569 -0.1102 -0.5057
50984SOL     OW63265   9.881   7.577   4.790 -0.2960  0.7609 -0.0212
50984SOL    HW163266   9.882   7.672   4.774 -0.2967  0.4840 -1.9095
50984SOL    HW263267   9.895   7.538   4.704  0.6431 -0.9686  0.8658
50985SOL     OW63268  11.137   1.060  10.951  0.1071  0.1908  0.4546
50985SOL    HW163269  11.221   1.087  10.989  0.3845 -0.8777  0.6511
50985SOL    HW263270  11.156   1.044  10.859  0.8202 -2.5709  0.9647
50986SOL     OW63271   7.933   2.311   6.910  0.0066 -0.1550  0.5083
50986SOL    HW163272   7.861   2.357   6.868  0.0309  0.1580  0.8028
50986SOL    HW263273   7.920   2.326   7.004  0.8909  0.5685  0.5286
50987SOL     OW63274  12.682   5.847   7.911 -0.7791  0.3870  0.5786
50987SOL    HW163275  12.691   5.883   8.000 -1.3706  1.0356  0.3832
50987SOL    HW263276  12.674   5.924   7.855 -0.3714 -0.0227 -0.0445
50988SOL     OW63277   5.033   2.976   8.697  0.5257  0.2087  0.1650
50988SOL    HW163278   4.999   2.904   8.751  1.3369 -1.1310 -1.0645
50988SOL    HW263279   5.124   2.985   8.724  0.4699  0.6797  0.2027
50989SOL     OW63280  10.140   8.413   9.151  0.3640 -0.2016  0.1668
50989SOL    HW163281  10.133   8.331   9.200 -0.8815 -0.3450 -0.2370
50989SOL    HW263282  10.070   8.468   9.185  0.8460  0.4992  0.0495
50990SOL     OW63283   7.163   6.976   6.224 -0.0493 -0.4335  0.3625
50990SOL    HW163284   7.207   6.912   6.281 -0.1923 -0.4126  0.4962
50990SOL    HW263285   7.157   6.932   6.140  0.8562 -0.1746  0.1555
50991SOL     OW63286   1.943   8.377  10.358  0.1404 -0.6310 -0.1722
50991SOL    HW163287   1.937   8.340  10.446  2.7784 -2.5419 -0.6872
50991SOL    HW263288   1.991   8.459  10.369  2.0201 -1.7116  0.0400
50992SOL     OW63289   8.486  11.890   3.631  0.5528  0.7264 -0.0256
50992SOL    HW163290   8.479  11.849   3.545  1.1395 -1.9138  1.0830
50992SOL    HW263291   8.580  11.900   3.645  0.4488  1.4684  0.1995
50993SOL     OW63292   1.073  12.822   4.431 -0.0862 -0.7355  0.2587
50993SOL    HW163293   1.088  12.914   4.413 -0.0241 -0.5339  1.2697
50993SOL    HW263294   1.132  12.775   4.371  0.8175 -0.0886  0.6242
50994SOL     OW63295   1.904  10.849   1.317  0.4389 -0.3120  0.0512
50994SOL    HW163296   1.877  10.849   1.409 -1.0662 -1.4559 -0.3475
50994SOL    HW263297   1.901  10.941   1.291 -0.5632 -0.1216  0.7762
50995SOL     OW63298   0.357   8.519  12.650 -0.2036  0.5966  0.5382
50995SOL    HW163299   0.339   8.612  12.663  0.9644  0.7667  1.0179
50995SOL    HW263300   0.383   8.513  12.558  1.6464  1.0815  1.0041
50996SOL     OW63301   1.332  12.305   7.647  0.7938 -0.2039  0.2858
50996SOL    HW163302   1.268  12.284   7.579 -0.7241 -1.3292  1.9338
50996SOL    HW263303   1.356  12.220   7.684 -0.7734  0.4213  3.0902
50997SOL     OW63304   4.431  11.694   4.045 -0.2681 -0.0288  0.2514
50997SOL    HW163305   4.513  11.743   4.055 -0.9303  1.1693  0.0633
50997SOL    HW263306   4.453  11.620   3.989  0.8339 -0.1257  0.7858
50998SOL     OW63307   9.803   0.167   5.742  0.1045 -0.2384  0.0637
50998SOL    HW163308   9.760   0.185   5.659 -0.5402 -0.3862  0.3560
50998SOL    HW263309   9.816   0.072   5.742 -0.7963 -0.3759  0.5443
50999SOL     OW63310   4.266   9.142   6.987  0.2903  1.0993 -0.5099
50999SOL    HW163311   4.200   9.172   6.926  0.0673  0.1132 -0.7642
50999SOL    HW263312   4.279   9.216   7.047  0.2977  1.9662 -1.5490
51000SOL     OW63313   3.682   7.729   9.291  0.7870  0.5817  0.1547
51000SOL    HW163314   3.688   7.822   9.312  0.2713  0.4862  0.7447
51000SOL    HW263315   3.592   7.704   9.313  0.5363  0.2201 -1.1724
51001SOL     OW63316   0.332  11.410   6.320  0.1015  0.1488 -0.0618
51001SOL    HW163317   0.297  11.473   6.256 -0.2066  0.6616  0.6005
51001SOL    HW263318   0.352  11.333   6.268  0.6695  0.8535 -0.9304
51002SOL     OW63319   3.640   5.816   2.506  0.1456  0.1096 -0.3532
51002SOL    HW163320   3.681   5.897   2.476 -0.9721  0.9649  0.3560
51002SOL    HW263321   3.580   5.843   2.576  0.9519 -1.5276  1.0657
51003SOL     OW63322   7.706   0.417   6.264 -0.1013  0.0247  0.4900
51003SOL    HW163323   7.698   0.326   6.235 -1.4455  0.0703  0.6443
51003SOL    HW263324   7.640   0.426   6.333 -0.4669  1.2873 -0.0011
51004SOL     OW63325   4.378   2.635   6.401 -0.0385  0.3748 -0.5675
51004SOL    HW163326   4.325   2.629   6.480  1.8247  1.2686  0.8370
51004SOL    HW263327   4.458   2.586   6.421  0.5521  0.7523 -1.8358
51005SOL     OW63328   3.018  12.065   5.245  0.4891  0.2853 -0.0878
51005SOL    HW163329   2.993  11.982   5.285 -1.7200  0.8613 -0.1284
51005SOL    HW263330   3.058  12.114   5.317 -0.4523  0.0791  0.6156
51006SOL     OW63331   2.581   0.575   8.548  0.1721 -0.3540  0.1528
51006SOL    HW163332   2.566   0.668   8.530 -1.7364 -0.5221  0.6622
51006SOL    HW263333   2.637   0.546   8.476 -1.0539  0.6842 -1.2860
51007SOL     OW63334   7.447   5.714   6.254  0.4344 -0.0856 -0.3877
51007SOL    HW163335   7.420   5.755   6.172  1.8799 -0.7934 -1.2541
51007SOL    HW263336   7.496   5.636   6.227 -0.7050 -1.4115  1.1910
51008SOL     OW63337   1.599  10.945   1.328  0.5833 -0.3350  0.0273
51008SOL    HW163338   1.511  10.912   1.344  0.4652 -0.9442 -1.6759
51008SOL    HW263339   1.596  10.980   1.239  2.0010 -0.1494  0.0225
51009SOL     OW63340   4.371   4.745  12.740  0.0030 -0.2583 -0.4565
51009SOL    HW163341   4.340   4.835  12.733  0.4578 -0.1911 -2.2437
51009SOL    HW263342   4.309   4.695  12.686 -1.9925 -1.5713  2.7505
51010SOL     OW63343   5.620   0.505   0.814  0.4386  0.6938 -0.3257
51010SOL    HW163344   5.694   0.459   0.776  0.2883  0.7034 -0.6306
51010SOL    HW263345   5.543   0.463   0.775  0.2111 -0.6059  1.4178
51011SOL     OW63346   8.957   6.619   4.522 -0.2838 -0.1831 -0.0210
51011SOL    HW163347   9.004   6.559   4.579  1.4504  0.6784 -0.4680
51011SOL    HW263348   8.982   6.593   4.433 -1.0422 -0.0035 -0.2944
51012SOL     OW63349   2.204   0.143   7.263  0.5219  0.3191  0.0619
51012SOL    HW163350   2.260   0.074   7.227  0.8145  0.1162  0.8937
51012SOL    HW263351   2.253   0.178   7.337  0.4446  1.5336 -0.4404
51013SOL     OW63352   4.921   0.679  12.759 -0.1089  0.1274 -0.4040
51013SOL    HW163353   5.002   0.641  12.727 -0.8423  0.1859 -2.4236
51013SOL    HW263354   4.945   0.768  12.785  0.4949  0.1232 -0.9345
51014SOL     OW63355  11.853   1.887  11.138 -0.0027 -0.3455 -0.3716
51014SOL    HW163356  11.822   1.797  11.148  0.3585 -0.4596 -0.2645
51014SOL    HW263357  11.775   1.937  11.113 -0.0227 -0.8463 -1.3176
51015SOL     OW63358   5.542   7.974   8.864  0.4564 -0.3879 -0.4659
51015SOL    HW163359   5.491   8.052   8.840  1.8042  0.6350 -0.0947
51015SOL    HW263360   5.499   7.902   8.816 -0.1581  0.7458 -1.6880
51016SOL     OW63361   7.253  12.596   7.696  0.0100  0.3334  0.4065
51016SOL    HW163362   7.247  12.528   7.629 -0.2502 -0.0075  0.7714
51016SOL    HW263363   7.347  12.604   7.713 -0.0178 -0.8980  1.3232
51017SOL     OW63364  12.139   5.747   8.281  0.3009 -0.1503  0.9272
51017SOL    HW163365  12.224   5.750   8.323  0.4365  1.5341  0.6067
51017SOL    HW263366  12.151   5.689   8.206  2.0487  2.3936 -0.8870
51018SOL     OW63367   5.644   5.550   3.029 -0.2490 -0.3379  0.2045
51018SOL    HW163368   5.633   5.617   2.962 -1.2179  1.1640  1.7655
51018SOL    HW263369   5.555   5.524   3.052  0.0785 -1.1960  0.5401
51019SOL     OW63370   4.843  11.232   8.831  0.4170 -0.4056 -0.9268
51019SOL    HW163371   4.935  11.251   8.813  0.2270  1.0320 -0.5303
51019SOL    HW263372   4.841  11.139   8.854  2.1285  0.0235  1.2083
51020SOL     OW63373   4.743   1.604   3.142  0.4095 -0.0382 -0.0543
51020SOL    HW163374   4.775   1.575   3.056 -2.5585  1.1664 -1.7173
51020SOL    HW263375   4.792   1.684   3.161  1.2516 -0.4379 -0.4800
51021SOL     OW63376  10.130   5.280   0.921 -0.0587  0.2844 -0.8386
51021SOL    HW163377  10.069   5.207   0.931 -0.4034  0.6271 -0.4294
51021SOL    HW263378  10.213   5.246   0.956 -0.4618  0.4050  0.2692
51022SOL     OW63379   5.683   0.169   3.331  0.3946  0.0558 -0.0395
51022SOL    HW163380   5.755   0.230   3.315  0.2458  0.5325  1.0514
51022SOL    HW263381   5.712   0.117   3.407 -0.1573 -0.1508  0.0375
51023SOL     OW63382   7.620   2.204   5.324  0.0874 -0.1195 -0.3358
51023SOL    HW163383   7.624   2.182   5.417 -0.4291  0.3934 -0.1913
51023SOL    HW263384   7.690   2.268   5.312  0.2233 -0.2646 -0.3261
51024SOL     OW63385  10.530   8.944   0.287  0.2326 -0.1528  0.5695
51024SOL    HW163386  10.604   8.960   0.229  1.6723  1.0851  2.5999
51024SOL    HW263387  10.557   8.867   0.339 -1.4575 -1.8743 -0.9712
51025SOL     OW63388  10.837  11.563   8.594  0.1390 -0.4351 -0.2498
51025SOL    HW163389  10.829  11.573   8.688  1.1450  0.5193 -0.2525
51025SOL    HW263390  10.925  11.528   8.580  0.7014  1.1543 -0.9131
51026SOL     OW63391   2.785   2.511   3.442 -0.0578 -0.3034 -0.0743
51026SOL    HW163392   2.697   2.525   3.477  0.5057 -2.9126  2.9037
51026SOL    HW263393   2.778   2.431   3.390  0.6561 -1.0710  0.9657
51027SOL     OW63394  10.070   0.532   3.562  0.0521  0.1260 -0.5167
51027SOL    HW163395  10.085   0.621   3.530  0.2721  0.6304  0.8996
51027SOL    HW263396  10.151   0.509   3.608  0.0983 -0.9275 -1.0846
51028SOL     OW63397   4.218   6.255   1.184 -0.0464  0.5446  0.2523
51028SOL    HW163398   4.272   6.238   1.261 -0.2686  0.6332  0.4290
51028SOL    HW263399   4.144   6.307   1.217  1.5330  3.5497 -0.5846
51029SOL     OW63400   3.791  10.820   2.400 -0.5008 -0.0313 -0.7717
51029SOL    HW163401   3.748  10.905   2.388  0.5719  0.5710 -0.4898
51029SOL    HW263402   3.876  10.830   2.357 -0.1824 -0.8144 -0.3395
51030SOL     OW63403   8.397  12.223   2.416 -0.3000  0.5398 -0.7688
51030SOL    HW163404   8.485  12.215   2.380 -0.3350  0.5454 -0.8559
51030SOL    HW263405   8.354  12.141   2.393  0.3207 -0.3407  1.0722
51031SOL     OW63406  12.037   1.991  10.976  0.2704 -0.2272 -0.2150
51031SOL    HW163407  11.972   1.936  11.019 -0.0989 -0.6658 -1.2838
51031SOL    HW263408  12.095   2.019  11.046 -1.7160  1.1407  0.9924
51032SOL     OW63409   3.550  12.188   6.622  0.4207 -0.0449  0.0124
51032SOL    HW163410   3.602  12.177   6.702 -0.8084 -0.0305  0.8262
51032SOL    HW263411   3.501  12.106   6.613 -0.0938  0.2881 -0.2546
51033SOL     OW63412   2.404  12.444   0.625 -0.4317  0.2395  0.5182
51033SOL    HW163413   2.435  12.355   0.640  1.0743  0.5009 -0.7329
51033SOL    HW263414   2.352  12.438   0.544  1.7855  0.8539 -1.0488
51034SOL     OW63415  10.216   8.961  10.336  0.2918 -0.0793 -0.1468
51034SOL    HW163416  10.265   9.011  10.401 -0.7362  0.8239 -0.0426
51034SOL    HW263417  10.151   9.022  10.302 -2.4498 -1.8584  1.5033
51035SOL     OW63418   9.245   6.837   6.478 -0.1398  0.8870 -0.4080
51035SOL    HW163419   9.150   6.843   6.488  0.0265  0.5277  2.1630
51035SOL    HW263420   9.265   6.890   6.401 -2.7495 -1.9308 -3.3188
51036SOL     OW63421   0.784  10.277  12.158  0.2633 -0.0531 -0.1468
51036SOL    HW163422   0.727  10.222  12.103 -0.5178  1.4877 -0.9349
51036SOL    HW263423   0.726  10.344  12.193  1.1293  0.0726  1.1132
51037SOL     OW63424   1.151   2.935   2.229  0.2337 -0.1255  0.0625
51037SOL    HW163425   1.101   3.004   2.273  1.1729  2.0340 -2.0135
51037SOL    HW263426   1.110   2.853   2.257 -3.7268  1.4119 -0.6216
51038SOL     OW63427   1.768   1.756   7.176  0.0556  0.4874 -0.1117
51038SOL    HW163428   1.843   1.809   7.147 -1.2659  2.0245 -0.8678
51038SOL    HW263429   1.773   1.677   7.123  1.6184  0.1630  0.4650
51039SOL     OW63430   6.425   8.422   5.281 -0.0178  0.4910 -0.2271
51039SOL    HW163431   6.472   8.456   5.205  0.8032 -0.3447 -0.1103
51039SOL    HW263432   6.407   8.331   5.259  1.8800 -0.3321  1.2858
51040SOL     OW63433   8.300   8.430   9.889 -0.4721 -0.6002 -0.5502
51040SOL    HW163434   8.382   8.405   9.845  0.3622  0.0199  0.5896
51040SOL    HW263435   8.291   8.368   9.960  0.6460  1.0731  1.1665
51041SOL     OW63436  11.384   3.358  10.602  0.0645 -0.0816  0.0785
51041SOL    HW163437  11.443   3.320  10.536  0.8232  1.8263 -0.4016
51041SOL    HW263438  11.297   3.326  10.577  0.6070 -1.2030 -0.4869
51042SOL     OW63439  12.810  12.065   8.091  0.3851  0.0570  0.0822
51042SOL    HW163440  12.835  12.098   8.178 -0.4046 -1.5007  0.9516
51042SOL    HW263441  12.821  11.970   8.098 -0.5825 -0.1736 -1.2371
51043SOL     OW63442   2.578   6.771  12.851 -0.1865  0.2806 -1.4215
51043SOL    HW163443   2.483   6.780  12.846 -0.0613  1.2240 -2.7350
51043SOL    HW263444   2.612   6.857  12.825  1.0308 -0.3149 -1.9057
51044SOL     OW63445  10.192   9.091   4.415  0.1201 -0.3047 -0.1051
51044SOL    HW163446  10.156   9.007   4.442 -2.5937  0.6148 -0.5056
51044SOL    HW263447  10.118   9.136   4.373  1.7387  1.8907 -0.7815
51045SOL     OW63448  12.671   3.476   3.981  0.5390 -0.6639  0.7050
51045SOL    HW163449  12.619   3.461   3.902  0.3571 -0.1219  0.7160
51045SOL    HW263450  12.762   3.474   3.950  0.4376  1.1687  0.1669
51046SOL     OW63451   6.740   7.505   6.876 -0.3546 -0.5640  0.0013
51046SOL    HW163452   6.812   7.450   6.846  1.9014  3.2788 -2.5833
51046SOL    HW263453   6.777   7.555   6.950 -1.1548 -0.2036  0.1699
51047SOL     OW63454   2.014   0.555  12.412  0.9673  0.2382 -0.2670
51047SOL    HW163455   2.076   0.521  12.477  2.1916 -1.1212 -2.0563
51047SOL    HW263456   2.030   0.649  12.411  2.0986  0.0723  0.2359
51048SOL     OW63457   1.862   3.076  10.189  0.0751  0.0244 -0.3902
51048SOL    HW163458   1.870   3.013  10.117  0.9266 -0.8833  0.4709
51048SOL    HW263459   1.891   3.028  10.266  2.9129  2.1144 -0.0201
51049SOL     OW63460   4.363   7.031  10.173 -0.2645  0.3636  0.0981
51049SOL    HW163461   4.337   7.110  10.125 -1.0422 -0.9998 -1.8755
51049SOL    HW263462   4.287   7.009  10.227 -0.4102  0.4497 -0.0702
51050SOL     OW63463   1.667   9.944   1.211  0.3191  0.0686  0.1780
51050SOL    HW163464   1.646  10.033   1.184 -0.0964  0.6085  2.1349
51050SOL    HW263465   1.604   9.888   1.165  0.8811  0.7052 -1.4232
51051SOL     OW63466   9.947  11.043  11.219 -0.4767 -0.2640 -0.2455
51051SOL    HW163467   9.870  10.989  11.200 -0.3428  0.1592 -2.2289
51051SOL    HW263468  10.017  10.979  11.237 -1.1224 -0.6571  0.9662
51052SOL     OW63469   8.733  12.408   8.906 -0.1002 -0.2875  0.2141
51052SOL    HW163470   8.694  12.416   8.993  1.3890  0.9796  0.8182
51052SOL    HW263471   8.670  12.452   8.848 -2.1047 -2.8717  0.2176
51053SOL     OW63472   2.390  12.205   0.359 -0.1691  0.1048 -0.0967
51053SOL    HW163473   2.352  12.272   0.301 -1.1588 -0.4106 -0.0599
51053SOL    HW263474   2.381  12.123   0.310 -0.6873 -0.2835  0.6397
51054SOL     OW63475  12.771   8.173   4.965 -0.4699  0.1422 -0.5809
51054SOL    HW163476  12.797   8.124   4.886 -0.5630 -0.9888  0.0631
51054SOL    HW263477  12.839   8.240   4.974  0.7394 -1.0417 -0.4677
51055SOL     OW63478   6.620  10.337   8.995  0.4776 -0.5625 -0.6904
51055SOL    HW163479   6.603  10.431   8.983 -2.4758 -0.7736  0.9701
51055SOL    HW263480   6.625  10.302   8.906 -0.4916  0.8650 -1.3446
51056SOL     OW63481   9.611   1.576   9.722 -0.1591  0.2666 -0.0707
51056SOL    HW163482   9.526   1.582   9.765  0.9807  3.4796  2.0968
51056SOL    HW263483   9.601   1.628   9.642  0.0349  1.5391  0.7237
51057SOL     OW63484   6.720   3.209   7.511 -0.0130 -0.8296  0.0545
51057SOL    HW163485   6.759   3.128   7.476 -0.0481 -0.5204 -0.7083
51057SOL    HW263486   6.655   3.178   7.574  0.3959 -1.3873  0.2161
51058SOL     OW63487  12.453   1.496   1.886  0.0154 -0.9834 -0.5346
51058SOL    HW163488  12.487   1.568   1.939  1.7179 -2.7043  0.8496
51058SOL    HW263489  12.358   1.509   1.886  0.2677  1.2434 -0.3797
51059SOL     OW63490   5.640   9.013   1.217 -0.2019 -0.1793 -0.1407
51059SOL    HW163491   5.617   9.022   1.309 -1.9371 -1.9575 -0.3471
51059SOL    HW263492   5.610   8.926   1.192  0.7792  0.0041 -2.2555
51060SOL     OW63493  12.189   4.155   8.263  0.4445  0.3754  0.4884
51060SOL    HW163494  12.110   4.114   8.228 -0.4093  0.4847  2.1725
51060SOL    HW263495  12.257   4.089   8.254 -0.4847 -0.7530  1.5062
51061SOL     OW63496   7.608   9.755   3.012  0.4532 -0.0596 -0.5240
51061SOL    HW163497   7.653   9.712   2.940  0.0396  0.1575 -0.9146
51061SOL    HW263498   7.545   9.689   3.043 -1.5747  0.8726 -2.3908
51062SOL     OW63499   9.278   2.499   4.353  0.4734  0.7675 -0.6394
51062SOL    HW163500   9.369   2.483   4.325  0.4799 -0.2552 -0.0924
51062SOL    HW263501   9.265   2.438   4.425 -0.8538  0.4526 -1.1225
51063SOL     OW63502   1.216   2.172  12.719  0.2003  0.1667  0.3162
51063SOL    HW163503   1.253   2.258  12.742 -0.2760  0.5848 -0.4619
51063SOL    HW263504   1.257   2.112  12.781  0.7698  0.9092  0.6809
51064SOL     OW63505   6.401   2.564  12.012 -0.0350 -0.1871  0.0859
51064SOL    HW163506   6.348   2.557  12.091 -0.6273 -0.4758 -0.3312
51064SOL    HW263507   6.350   2.621  11.954 -0.6749 -1.7207 -0.9262
51065SOL     OW63508  12.871  10.961  12.927 -0.2776  0.4762 -0.6359
51065SOL    HW163509  12.908  11.029  12.872  0.5437 -1.2647 -2.3646
51065SOL    HW263510  12.778  10.983  12.933 -0.2933  1.0243 -2.3002
51066SOL     OW63511   4.543   6.761  12.134  0.4782 -0.2313  0.3110
51066SOL    HW163512   4.477   6.692  12.124  0.1901  0.3240 -2.8252
51066SOL    HW263513   4.494   6.835  12.168 -0.4311 -0.0862 -1.1730
51067SOL     OW63514   3.528   5.887   0.981 -0.2578  0.3121 -0.0022
51067SOL    HW163515   3.550   5.804   1.022  2.1199 -0.6824 -2.9201
51067SOL    HW263516   3.592   5.949   1.015 -0.7015  0.4557  0.5884
51068SOL     OW63517   3.234   6.755   3.671 -0.1368 -0.0698  0.1177
51068SOL    HW163518   3.275   6.669   3.660 -2.0138 -1.1245  0.8730
51068SOL    HW263519   3.184   6.747   3.752 -1.0873  1.4333 -0.2916
51069SOL     OW63520  10.763   8.922   8.787 -0.1217  0.4915  0.8064
51069SOL    HW163521  10.725   8.868   8.718  1.4307  0.8356 -0.3624
51069SOL    HW263522  10.707   8.906   8.863 -1.1481 -0.8432 -0.1776
51070SOL     OW63523  12.799   3.086   5.132 -0.8689  0.0517 -0.3243
51070SOL    HW163524  12.778   3.049   5.046 -0.3373 -1.5549  0.1989
51070SOL    HW263525  12.771   3.178   5.126 -1.0273 -0.0702 -2.1347
51071SOL     OW63526   1.381   5.766   1.550 -0.1533 -0.3621 -0.0285
51071SOL    HW163527   1.304   5.799   1.503 -0.4816 -0.1106  0.6675
51071SOL    HW263528   1.405   5.838   1.608  1.1413 -0.1000 -0.8446
51072SOL     OW63529   5.454   7.743   3.572  0.6567  0.0027  0.1075
51072SOL    HW163530   5.475   7.666   3.519 -2.9169 -1.4260  0.4763
51072SOL    HW263531   5.449   7.815   3.509  1.1424 -0.6780 -0.7278
51073SOL     OW63532   4.751   1.686   4.272  0.2323  0.5394 -0.3279
51073SOL    HW163533   4.828   1.675   4.216  1.1749 -0.2285  1.0590
51073SOL    HW263534   4.678   1.696   4.210  0.8089 -2.9003 -1.7946
51074SOL     OW63535  11.678  11.362   7.931 -0.4753  0.1975 -0.0737
51074SOL    HW163536  11.723  11.347   7.848  0.3853 -1.9955  0.6997
51074SOL    HW263537  11.729  11.312   7.995 -2.2998  0.0916  1.3866
51075SOL     OW63538   2.476  12.453   4.444  0.2635  0.0612  0.3059
51075SOL    HW163539   2.539  12.524   4.432 -0.6408  0.7769 -0.3978
51075SOL    HW263540   2.494  12.392   4.373 -0.0879  0.4733 -0.1480
51076SOL     OW63541   1.093   1.505   6.166  0.3617 -0.2466  0.2068
51076SOL    HW163542   1.075   1.588   6.123  1.5116  0.0752  0.3118
51076SOL    HW263543   1.119   1.446   6.094 -1.1451 -0.7504  0.0359
51077SOL     OW63544   6.677   4.106   3.268  0.2448 -0.2596  0.3079
51077SOL    HW163545   6.722   4.096   3.185  0.1135 -0.5874  0.2750
51077SOL    HW263546   6.597   4.154   3.247  0.2814 -0.2155  0.2706
51078SOL     OW63547  10.960   2.083   9.947 -0.1597  0.4214  0.1882
51078SOL    HW163548  10.966   2.178   9.957  2.6886  0.5969 -1.8919
51078SOL    HW263549  11.041   2.058   9.902 -0.8186 -3.0151  0.5924
51079SOL     OW63550   0.510   1.539   7.840  0.2503  0.3612  0.3616
51079SOL    HW163551   0.594   1.497   7.859  0.4445  0.8392  0.5912
51079SOL    HW263552   0.455   1.469   7.805  0.0944 -0.4354  2.0909
51080SOL     OW63553   4.034   4.986   4.862 -0.1022 -0.3179  0.3006
51080SOL    HW163554   4.067   4.906   4.902  0.8282 -0.5649 -0.8923
51080SOL    HW263555   3.945   4.964   4.833 -0.3031 -0.5257  1.0525
51081SOL     OW63556  10.180  11.275   8.753 -0.4911 -0.7513 -0.3314
51081SOL    HW163557  10.247  11.297   8.689  0.1515  0.4038  0.6880
51081SOL    HW263558  10.168  11.181   8.744  3.1490 -1.5280  1.1413
51082SOL     OW63559  11.004  12.598   7.574 -0.0400 -0.6334  0.3107
51082SOL    HW163560  10.948  12.540   7.625 -1.2280 -0.8520 -1.1694
51082SOL    HW263561  10.943  12.650   7.521  1.0726  0.7681  0.3577
51083SOL     OW63562   6.449  10.095   3.220 -0.0784  0.4005  0.5102
51083SOL    HW163563   6.510  10.147   3.273  0.3127  0.4072  0.0658
51083SOL    HW263564   6.369  10.147   3.218 -0.1229  0.3687  1.1436
51084SOL     OW63565   4.082   3.386   9.146 -0.4108  0.2943 -0.3504
51084SOL    HW163566   4.160   3.441   9.140 -0.3333  0.1779 -0.4160
51084SOL    HW263567   4.062   3.363   9.055 -1.5023  1.7035 -0.5062
51085SOL     OW63568   8.089   6.238   7.276  0.3860 -0.0496 -0.3403
51085SOL    HW163569   8.183   6.230   7.258  0.4971  0.9425 -0.2590
51085SOL    HW263570   8.063   6.317   7.229 -0.9939 -1.7106 -2.5918
51086SOL     OW63571  12.336   4.030   5.160  0.2212 -0.2205 -0.4469
51086SOL    HW163572  12.425   4.047   5.129 -0.0021 -0.8912 -1.5008
51086SOL    HW263573  12.334   3.935   5.174  0.0090 -0.0628  0.6998
51087SOL     OW63574   0.950   7.750   0.615  0.2344 -0.0974  0.1752
51087SOL    HW163575   0.989   7.768   0.701 -1.1802 -1.0228  1.0555
51087SOL    HW263576   0.911   7.833   0.589  0.8132  0.2353  0.3446
51088SOL     OW63577  12.777   0.470   9.595 -0.1158 -0.1174  0.0463
51088SOL    HW163578  12.868   0.470   9.566 -0.0936  0.3160  0.1051
51088SOL    HW263579  12.739   0.548   9.555  0.1488  1.0185  1.8949
51089SOL     OW63580  10.807  10.874  12.446  0.1191  0.4185 -0.2636
51089SOL    HW163581  10.834  10.800  12.500  3.5690  1.1400 -0.7681
51089SOL    HW263582  10.729  10.843  12.400  0.7058 -2.4417  0.4553
51090SOL     OW63583   5.297   0.290   4.608 -0.3980  0.0582 -0.2803
51090SOL    HW163584   5.335   0.207   4.638  0.1962 -0.0815 -1.3416
51090SOL    HW263585   5.327   0.297   4.517 -1.2669  0.9531 -0.5034
51091SOL     OW63586   1.202   8.635   1.005 -0.1837 -0.2573 -0.2089
51091SOL    HW163587   1.274   8.573   1.012 -0.4627 -0.3986  2.5503
51091SOL    HW263588   1.228   8.694   0.934  2.8515 -0.0511  0.9303
51092SOL     OW63589   9.942   8.238   6.923  0.5919  0.1423  0.2110
51092SOL    HW163590   9.884   8.168   6.952  0.3663  0.9756  1.8896
51092SOL    HW263591   9.973   8.279   7.003 -1.6106  3.8562 -0.5769
51093SOL     OW63592   2.313   7.917   5.932 -0.2385 -0.2615 -0.5679
51093SOL    HW163593   2.225   7.952   5.921 -0.1658 -0.2845 -1.2502
51093SOL    HW263594   2.315   7.884   6.022 -0.5480  0.8023 -0.1522
51094SOL     OW63595   4.092   9.214   3.911 -0.7133 -0.5595 -0.0516
51094SOL    HW163596   4.164   9.221   3.847 -0.1587 -2.1235  0.3471
51094SOL    HW263597   4.092   9.122   3.936 -3.4865 -0.8105 -0.7178
51095SOL     OW63598  10.988   0.378  12.790 -0.0013  0.3199  0.2111
51095SOL    HW163599  11.063   0.364  12.848  0.8321  0.6187 -0.7675
51095SOL    HW263600  10.950   0.461  12.820 -0.1128  0.0317  0.8868
51096SOL     OW63601   9.321   1.566   3.073 -0.0853  0.7375 -0.1504
51096SOL    HW163602   9.243   1.596   3.120 -1.5326  1.2234 -2.6655
51096SOL    HW263603   9.287   1.516   2.999  2.0089  0.6511 -1.1278
51097SOL     OW63604  12.170   5.755  11.624 -0.2827 -0.2725 -0.0659
51097SOL    HW163605  12.181   5.842  11.664  0.7919  1.4003 -3.5624
51097SOL    HW263606  12.180   5.694  11.696 -1.8458  2.4715  2.7331
51098SOL     OW63607   1.087   0.071  12.208  0.1253  0.1451 -0.2287
51098SOL    HW163608   1.181   0.062  12.223 -0.0932  0.7992  1.7947
51098SOL    HW263609   1.080   0.106  12.119  1.6598 -1.8786 -1.2341
51099SOL     OW63610  10.786   6.839   5.045  0.0067  0.3878 -0.0678
51099SOL    HW163611  10.816   6.748   5.041 -1.0344 -0.0518  1.3425
51099SOL    HW263612  10.691   6.832   5.051  0.0291  1.4411  2.6873
51100SOL     OW63613   8.688   5.259  11.299 -0.2859  0.1173  0.2570
51100SOL    HW163614   8.689   5.343  11.253 -1.8128 -0.3003 -0.6062
51100SOL    HW263615   8.609   5.262  11.354 -1.1085 -1.2180 -0.7686
51101SOL     OW63616   1.436   7.714   1.605 -0.2068 -0.1088 -0.0568
51101SOL    HW163617   1.467   7.803   1.591  1.4871 -0.6022  0.3071
51101SOL    HW263618   1.501   7.658   1.561 -0.4599 -1.2047  0.8976
51102SOL     OW63619  12.852   7.189  10.517  0.3208 -0.0884  0.6098
51102SOL    HW163620  12.882   7.206  10.607 -0.8932  0.4366  0.9357
51102SOL    HW263621  12.827   7.275  10.484  0.8846 -0.2653 -0.2882
51103SOL     OW63622   9.650   5.128   5.252 -0.0557 -0.3052  0.0859
51103SOL    HW163623   9.580   5.193   5.262 -0.5806 -0.9438  0.6317
51103SOL    HW263624   9.720   5.176   5.209  0.2417  1.1262  2.0122
51104SOL     OW63625  12.093   6.055   5.433 -0.2805 -0.1538 -0.2275
51104SOL    HW163626  12.063   6.146   5.424 -1.2420 -0.4772 -0.3803
51104SOL    HW263627  12.189   6.061   5.429 -0.2789  0.9801  0.9133
51105SOL     OW63628   1.499   9.138   0.744 -0.1932  0.3472 -0.2687
51105SOL    HW163629   1.540   9.055   0.767  0.8244  1.9260  4.8973
51105SOL    HW263630   1.410   9.133   0.779 -0.4251  1.1393 -0.7027
51106SOL     OW63631   0.865   8.553   4.580  0.4167  0.1436 -0.4930
51106SOL    HW163632   0.782   8.538   4.626 -0.2892  0.3311 -1.6664
51106SOL    HW263633   0.926   8.579   4.649 -0.3616 -0.4923  0.4640
51107SOL     OW63634   8.286  10.273   5.165  0.2719  0.2866 -0.1494
51107SOL    HW163635   8.237  10.197   5.132 -0.0553 -0.1803  1.3418
51107SOL    HW263636   8.220  10.342   5.175  0.3251  0.3468 -0.2210
51108SOL     OW63637   6.373   6.702   9.183 -0.4718 -0.2339 -0.1675
51108SOL    HW163638   6.334   6.744   9.259  0.9889  0.3830  0.2614
51108SOL    HW263639   6.375   6.769   9.115 -1.4295 -0.6750 -0.6547
51109SOL     OW63640  12.729   3.329   6.383 -0.4749 -0.1253  0.5612
51109SOL    HW163641  12.676   3.276   6.443 -0.4653  0.1681  0.8310
51109SOL    HW263642  12.672   3.343   6.307 -0.6815 -0.0538  0.7274
51110SOL     OW63643  12.053   8.651   9.571 -0.3827 -0.3359  0.3029
51110SOL    HW163644  11.998   8.596   9.516 -1.5022  0.6667  0.3674
51110SOL    HW263645  12.038   8.618   9.660  0.9527 -1.5563  0.1132
51111SOL     OW63646   6.782   5.280   3.971  0.2265 -0.6272  0.1958
51111SOL    HW163647   6.716   5.213   3.953 -0.4875  0.2116 -0.4097
51111SOL    HW263648   6.814   5.306   3.885 -0.2092  0.4896  0.3501
51112SOL     OW63649   7.697   7.115   3.664  0.5526 -0.4254 -0.2602
51112SOL    HW163650   7.664   7.147   3.748 -1.9045  0.4256 -1.4586
51112SOL    HW263651   7.768   7.175   3.642  0.4526  0.0552  0.6558
51113SOL     OW63652   6.933   4.493   2.803  0.6582  0.0845  0.3299
51113SOL    HW163653   6.921   4.530   2.716 -3.0092  0.4879  0.8342
51113SOL    HW263654   6.913   4.564   2.863 -2.7139 -1.4863  1.3361
51114SOL     OW63655  10.696   1.161   8.504 -0.6781  0.1657 -0.0179
51114SOL    HW163656  10.698   1.105   8.426 -0.0851  0.3430 -0.1333
51114SOL    HW263657  10.743   1.240   8.478  1.1045 -0.4852  1.0420
51115SOL     OW63658   2.365  11.289   7.918  0.0439 -0.1322  0.1180
51115SOL    HW163659   2.448  11.336   7.931 -0.3722  0.3093  1.3238
51115SOL    HW263660   2.308  11.354   7.877 -0.1512  0.0377  0.6495
51116SOL     OW63661   0.390   5.949  12.296  0.1945 -0.3335 -0.5297
51116SOL    HW163662   0.306   5.995  12.287  0.1017 -0.3873  0.0457
51116SOL    HW263663   0.417   5.932  12.206 -0.1505  0.1603 -0.7325
51117SOL     OW63664   6.768  10.772   9.938  0.0755 -0.0850  0.3530
51117SOL    HW163665   6.828  10.703   9.966  0.0666 -0.2267  0.0363
51117SOL    HW263666   6.826  10.839   9.900 -0.0135 -0.6203 -0.7838
51118SOL     OW63667  10.880   3.506   2.480 -0.4329  0.1074 -0.2748
51118SOL    HW163668  10.938   3.431   2.488 -0.1322  0.4850  1.6864
51118SOL    HW263669  10.839   3.496   2.394 -0.2670 -2.1910 -0.1574
51119SOL     OW63670   2.676  12.486   3.471  0.1466  0.1274  0.3047
51119SOL    HW163671   2.740  12.538   3.423  0.4406 -0.3547  0.1662
51119SOL    HW263672   2.604  12.474   3.410 -0.2154  0.9152  0.5581
51120SOL     OW63673   4.215   0.606  12.580  0.1764 -0.7908  0.3133
51120SOL    HW163674   4.133   0.635  12.619  0.1945  2.7075 -1.7566
51120SOL    HW263675   4.200   0.516  12.554 -1.9215 -1.1927  2.5995
51121SOL     OW63676  10.954   4.948  12.007  0.4801  0.1873  0.0943
51121SOL    HW163677  10.885   4.995  11.960  0.9594  0.6507 -0.1466
51121SOL    HW263678  11.020   5.014  12.027  0.7821 -0.2206  0.4762
51122SOL     OW63679   3.542   2.922  11.012 -0.1271  0.3273  0.5343
51122SOL    HW163680   3.573   2.993  10.955  1.3175  0.9890  2.0569
51122SOL    HW263681   3.594   2.846  10.986 -1.3117 -0.0648 -0.7528
51123SOL     OW63682  10.761   3.736   7.278 -0.1815  0.0920  0.1395
51123SOL    HW163683  10.802   3.732   7.192  0.9436  1.5568  0.5406
51123SOL    HW263684  10.802   3.665   7.328 -0.2354 -0.2511 -0.3089
51124SOL     OW63685  10.832   1.853   4.186  0.3192 -0.0858 -0.0102
51124SOL    HW163686  10.881   1.889   4.112  0.2200 -1.6345 -0.8817
51124SOL    HW263687  10.760   1.915   4.199  1.5910  1.3896  0.2718
51125SOL     OW63688   2.107   6.808   2.593  0.3285 -0.2735 -0.2998
51125SOL    HW163689   2.030   6.790   2.539 -0.2368  0.2151  0.3271
51125SOL    HW263690   2.178   6.759   2.551 -0.3300 -0.7653 -0.8568
51126SOL     OW63691   2.292   7.049  10.843 -0.4088  0.1639 -0.2942
51126SOL    HW163692   2.365   7.053  10.781 -1.1486  0.2733 -1.1805
51126SOL    HW263693   2.214   7.043  10.787 -1.1490  1.1037  0.6134
51127SOL     OW63694  12.313  12.006   0.790 -0.0076  0.2821  0.0744
51127SOL    HW163695  12.329  12.090   0.832 -2.0668  0.9491 -0.4009
51127SOL    HW263696  12.219  12.002   0.778  0.0023 -2.2095  0.2956
51128SOL     OW63697   7.378   3.094   4.360  0.2741 -0.3416 -0.4381
51128SOL    HW163698   7.431   3.014   4.351 -0.4308 -1.1252  1.6895
51128SOL    HW263699   7.427   3.148   4.422  0.0331  0.2708 -0.7720
51129SOL     OW63700   8.728   0.585   0.529  0.0566  0.1060 -0.6723
51129SOL    HW163701   8.801   0.526   0.549 -1.4376 -3.1322 -3.7648
51129SOL    HW263702   8.705   0.624   0.613  3.1171 -1.3379  1.0024
51130SOL     OW63703   7.695   2.385   3.562  0.4133 -0.4173 -0.1579
51130SOL    HW163704   7.606   2.394   3.596  0.0830 -2.6636 -0.2777
51130SOL    HW263705   7.749   2.437   3.622 -0.7217 -0.7685  1.2328
51131SOL     OW63706   9.942   5.625  10.745 -0.1583 -0.1360 -0.2799
51131SOL    HW163707   9.923   5.553  10.685 -2.6476  0.7288 -0.6900
51131SOL    HW263708   9.999   5.684  10.695 -1.0788 -0.0941 -1.3322
51132SOL     OW63709   9.514  10.930   3.157  0.2102  0.1512 -0.3797
51132SOL    HW163710   9.423  10.904   3.173 -0.6232  3.2162  0.5399
51132SOL    HW263711   9.510  10.981   3.076  1.4420 -0.9093 -1.1540
51133SOL     OW63712   6.354   1.712   5.441  0.6481  0.2789 -0.2509
51133SOL    HW163713   6.393   1.642   5.389  1.7674  1.1327 -0.5954
51133SOL    HW263714   6.409   1.788   5.425  0.5073  0.7994  1.4953
51134SOL     OW63715  11.846   1.363   1.344 -0.2470 -0.1314 -0.6501
51134SOL    HW163716  11.802   1.402   1.269  0.2144  0.0366 -0.8371
51134SOL    HW263717  11.837   1.269   1.330  1.2163 -0.1363 -1.7650
51135SOL     OW63718   8.895   9.290   3.376  0.5846 -0.4229 -0.2032
51135SOL    HW163719   8.802   9.301   3.357  0.2640 -0.7215  1.1497
51135SOL    HW263720   8.937   9.364   3.332 -0.3032 -0.1581 -0.6330
51136SOL     OW63721   2.480  10.983   3.316 -0.2117 -0.3008 -0.2649
51136SOL    HW163722   2.416  11.006   3.384  0.2716 -0.5816  0.2913
51136SOL    HW263723   2.553  11.043   3.330 -0.3400  0.0174 -0.8970
51137SOL     OW63724   2.480  12.293   7.710  0.4189 -0.6736 -0.0340
51137SOL    HW163725   2.531  12.362   7.669 -0.3054 -0.9387 -1.4300
51137SOL    HW263726   2.504  12.213   7.664 -1.6822 -0.7048 -1.1829
51138SOL     OW63727   6.072   0.210   4.733  0.0523 -0.1967  0.2923
51138SOL    HW163728   6.148   0.157   4.706 -0.6086 -0.8771 -0.2760
51138SOL    HW263729   6.109   0.295   4.754  1.3753 -1.2425  2.6469
51139SOL     OW63730   9.443   1.066   4.267  0.4537  0.2329  0.6392
51139SOL    HW163731   9.352   1.062   4.297  0.7485  1.4801  1.7956
51139SOL    HW263732   9.495   1.069   4.347  1.5080 -0.1614 -0.0071
51140SOL     OW63733   5.518   6.195   7.056 -0.3204  0.7629 -0.4111
51140SOL    HW163734   5.533   6.248   7.135  2.3072  0.4791 -0.6193
51140SOL    HW263735   5.521   6.258   6.984  0.0364  0.7039 -0.4534
51141SOL     OW63736   7.664   7.431   6.367 -0.5335  0.3013 -0.4334
51141SOL    HW163737   7.723   7.506   6.382  0.1912 -0.7580  2.6697
51141SOL    HW263738   7.720   7.364   6.329  0.0746 -0.3133  1.4555
51142SOL     OW63739   6.122   5.541   1.382  0.1476  0.5080  0.2450
51142SOL    HW163740   6.083   5.599   1.317  0.0116 -0.0401 -0.1652
51142SOL    HW263741   6.215   5.541   1.361  0.1165  0.4013  0.1128
51143SOL     OW63742   9.756  10.252   2.425  0.3549 -0.2663 -0.2408
51143SOL    HW163743   9.803  10.184   2.377  0.1608 -0.9447  0.4962
51143SOL    HW263744   9.794  10.249   2.513 -0.4276 -0.1937  0.1088
51144SOL     OW63745   2.698  11.104   8.550 -0.3767 -0.5701 -0.3095
51144SOL    HW163746   2.613  11.077   8.515  0.4158 -1.0781 -1.9789
51144SOL    HW263747   2.688  11.198   8.566 -1.2231 -0.5953 -0.6164
51145SOL     OW63748   2.712   3.409   1.538  0.0537  0.2473  0.0456
51145SOL    HW163749   2.789   3.352   1.538 -1.1995 -1.4957 -0.4358
51145SOL    HW263750   2.737   3.482   1.595  2.1683 -0.0997 -0.3584
51146SOL     OW63751  12.463   4.069   1.457  0.3928 -0.0183 -0.3125
51146SOL    HW163752  12.449   3.980   1.488 -1.9529  0.4652  0.2754
51146SOL    HW263753  12.552   4.069   1.422  0.9973 -2.1840  0.9876
51147SOL     OW63754   9.369  10.945   2.332 -0.7368  0.2185  0.2437
51147SOL    HW163755   9.283  10.951   2.290 -0.6329 -1.5405 -0.3033
51147SOL    HW263756   9.356  10.885   2.406 -0.0060 -0.0576  0.1650
51148SOL     OW63757   8.425   9.637   0.974  0.0338 -0.4080 -0.1084
51148SOL    HW163758   8.395   9.564   0.919  1.4319 -1.2212  0.1645
51148SOL    HW263759   8.418   9.603   1.064 -0.8365  0.3923  0.1476
51149SOL     OW63760   7.026   5.407   5.912  0.1699  0.2064 -0.7543
51149SOL    HW163761   6.953   5.346   5.897  0.0199  0.0858  0.3970
51149SOL    HW263762   6.988   5.494   5.898 -1.3577  0.4714  3.6399
51150SOL     OW63763   2.879   0.233   5.232 -0.1394  0.5986  0.7801
51150SOL    HW163764   2.957   0.267   5.189  0.9803 -1.4528  1.0522
51150SOL    HW263765   2.887   0.138   5.224  0.0198  0.0478  5.2559
51151SOL     OW63766  10.870   1.074   1.069  0.2719  0.5546  0.5813
51151SOL    HW163767  10.789   1.113   1.036 -0.3761 -0.8030  0.5364
51151SOL    HW263768  10.875   0.989   1.028  2.1635  0.9229 -0.0323
51152SOL     OW63769   6.807   6.870  10.037 -0.3707 -0.2594  0.1793
51152SOL    HW163770   6.785   6.959  10.010 -0.6857 -0.1389  0.8162
51152SOL    HW263771   6.808   6.874  10.133  1.8315 -0.3872  0.2149
51153SOL     OW63772   9.466   0.406   2.664  0.6251 -0.3680 -0.1992
51153SOL    HW163773   9.383   0.384   2.707  1.2109 -2.2961  0.0577
51153SOL    HW263774   9.466   0.501   2.659 -1.6252 -0.3233 -0.2609
51154SOL     OW63775   7.974  12.234   9.903 -0.2531 -0.3293  0.1367
51154SOL    HW163776   8.031  12.158   9.895  1.3704  0.6805  1.4688
51154SOL    HW263777   7.986  12.281   9.820  0.8480 -0.1641  0.3724
51155SOL     OW63778  11.830  10.706  11.259  0.2076 -0.1632  0.1074
51155SOL    HW163779  11.842  10.725  11.165  0.7551  1.9370  0.5459
51155SOL    HW263780  11.831  10.611  11.264  1.4791 -0.3343 -1.8830
51156SOL     OW63781   2.576  12.513  12.618 -0.1631 -0.3986 -0.7309
51156SOL    HW163782   2.541  12.424  12.606  1.8590 -1.3174 -0.3897
51156SOL    HW263783   2.671  12.501  12.613  0.1324  1.9353 -1.6943
51157SOL     OW63784   1.836   6.778   1.273 -0.3823  0.4622 -0.2523
51157SOL    HW163785   1.864   6.866   1.249 -0.8731  0.4974 -0.7110
51157SOL    HW263786   1.897   6.751   1.342 -1.6235  2.0020  1.5103
51158SOL     OW63787   2.747  10.986   2.229  0.3611 -0.0768  0.0894
51158SOL    HW163788   2.724  11.019   2.142 -0.3504 -0.3948  0.1455
51158SOL    HW263789   2.839  10.961   2.222  0.1702 -0.6013 -0.7360
51159SOL     OW63790  12.478   8.505  12.040 -0.2542  0.4317  0.3251
51159SOL    HW163791  12.536   8.512  12.116  0.1311  0.7349  0.0109
51159SOL    HW263792  12.503   8.422  11.999  1.0102  1.2497 -0.6412
51160SOL     OW63793   2.139  10.504  11.383 -0.0677 -0.0538 -0.5225
51160SOL    HW163794   2.166  10.595  11.387  0.0219 -0.1292  0.9152
51160SOL    HW263795   2.172  10.473  11.299  2.1454  0.5324  0.0831
51161SOL     OW63796   8.853  10.250  12.094  0.4897  0.0018 -0.1319
51161SOL    HW163797   8.758  10.244  12.103  0.3109  1.2154 -0.9789
51161SOL    HW263798   8.881  10.294  12.175  0.5710 -1.8788  0.9324
51162SOL     OW63799  11.264   3.644  11.857 -0.4162 -0.1452  0.2026
51162SOL    HW163800  11.319   3.638  11.935 -0.4020  2.8437  0.5571
51162SOL    HW263801  11.326   3.647  11.784 -0.2961 -0.3690  0.2934
51163SOL     OW63802   6.903   3.452   7.836  1.0756 -0.5730  0.7168
51163SOL    HW163803   6.910   3.529   7.780  0.0196 -1.1312 -0.2201
51163SOL    HW263804   6.915   3.377   7.777 -0.9638 -1.2059  1.0114
51164SOL     OW63805   2.667  12.268   0.866 -0.3301  0.3204 -0.1803
51164SOL    HW163806   2.701  12.358   0.873  0.5677 -0.0174 -0.0639
51164SOL    HW263807   2.718  12.229   0.796 -0.8270 -0.0603 -0.3313
51165SOL     OW63808   0.612   4.850   4.571 -0.0932  0.6926  0.0199
51165SOL    HW163809   0.657   4.934   4.566 -0.6296  1.0194  0.5468
51165SOL    HW263810   0.674   4.787   4.533  0.1010  1.3998 -0.8553
51166SOL     OW63811   4.878   0.094   2.829 -0.5682 -0.4268 -0.2711
51166SOL    HW163812   4.954   0.129   2.874 -0.3043 -0.6379 -0.5465
51166SOL    HW263813   4.850   0.019   2.882 -0.4682 -0.4650 -0.2729
51167SOL     OW63814   1.838   5.592   7.326 -0.3340 -0.2305  0.6388
51167SOL    HW163815   1.918   5.632   7.294 -0.1763 -0.2020  1.0615
51167SOL    HW263816   1.867   5.514   7.372 -0.7279 -1.6030 -1.3197
51168SOL     OW63817  10.290   7.420   9.447 -0.6868 -0.2396 -0.2024
51168SOL    HW163818  10.283   7.362   9.523  2.2529  2.0320  2.0888
51168SOL    HW263819  10.331   7.367   9.379 -0.0609 -1.4308  1.0609
51169SOL     OW63820   3.795   9.269  12.358 -0.0786  0.3386 -0.4940
51169SOL    HW163821   3.793   9.193  12.300  0.0366 -1.3437  1.5616
51169SOL    HW263822   3.884   9.302  12.352 -0.1029  0.2717 -1.3436
51170SOL     OW63823  11.584   8.659   0.982  0.3548  0.3072  0.7106
51170SOL    HW163824  11.620   8.677   1.069  2.5212  2.1752 -0.4556
51170SOL    HW263825  11.656   8.678   0.922 -1.5609  0.7764 -1.6037
51171SOL     OW63826   9.906   4.331   7.019  0.0947 -0.2981 -0.3238
51171SOL    HW163827   9.838   4.268   7.045  1.5347 -1.8742 -0.1575
51171SOL    HW263828   9.965   4.333   7.094  1.3334 -0.5813 -1.2669
51172SOL     OW63829   7.186   0.886   9.425 -0.4655  0.6578  0.6007
51172SOL    HW163830   7.194   0.835   9.344 -0.3575 -0.1432  1.1077
51172SOL    HW263831   7.275   0.889   9.460 -0.0612  2.9553 -0.4505
51173SOL     OW63832  12.631   4.530   2.150 -0.8103  0.1005 -0.2760
51173SOL    HW163833  12.558   4.591   2.158 -1.0382 -0.2475  0.3965
51173SOL    HW263834  12.670   4.528   2.237  1.2059  1.7317 -1.0707
51174SOL     OW63835  10.651  10.989   6.276  0.2213 -0.1470  0.2193
51174SOL    HW163836  10.692  11.006   6.192 -0.6888 -0.0465 -0.2251
51174SOL    HW263837  10.659  11.072   6.324 -0.7882  0.3637 -0.4521
51175SOL     OW63838   6.245  11.709  11.614 -0.3175 -0.1645 -0.3008
51175SOL    HW163839   6.304  11.666  11.676  1.6630  0.1586 -1.8548
51175SOL    HW263840   6.164  11.658  11.619  0.4535 -1.3434  1.0893
51176SOL     OW63841   6.295   4.142   7.821  0.2997  0.2055  0.2707
51176SOL    HW163842   6.209   4.110   7.794  0.7591 -0.6395 -0.2409
51176SOL    HW263843   6.315   4.213   7.760 -0.4969  1.1421  1.0758
51177SOL     OW63844   5.868   8.662   2.738 -0.4024  0.0906  0.4581
51177SOL    HW163845   5.908   8.620   2.663 -0.2557  0.0865  0.5388
51177SOL    HW263846   5.852   8.591   2.800  2.9694  0.5132  2.0569
51178SOL     OW63847   4.856  12.079   3.025 -0.6447 -0.7367 -0.2271
51178SOL    HW163848   4.918  12.121   2.966 -0.7040 -1.0263 -0.5017
51178SOL    HW263849   4.906  12.008   3.065 -0.3593 -0.0092  0.7234
51179SOL     OW63850   1.209  11.171  11.093 -0.8450  0.2254 -0.6313
51179SOL    HW163851   1.204  11.198  11.001 -3.0159  0.0679 -0.6129
51179SOL    HW263852   1.250  11.084  11.090  2.3198  1.6103 -1.0680
51180SOL     OW63853   6.430   9.673   2.165  0.3831 -0.0314  0.4492
51180SOL    HW163854   6.347   9.638   2.198 -0.2646  0.9702 -0.0692
51180SOL    HW263855   6.409   9.704   2.077  1.3233  0.2110  0.3098
51181SOL     OW63856   0.307   6.840   6.825  0.1173 -0.4261 -0.4623
51181SOL    HW163857   0.278   6.867   6.738  1.7558 -0.5549 -1.0737
51181SOL    HW263858   0.382   6.783   6.809  0.4384 -0.4644  1.0371
51182SOL     OW63859   6.967   8.988   4.760 -0.1759  0.7317  0.3006
51182SOL    HW163860   6.913   8.960   4.686  1.3714  0.8086 -0.8897
51182SOL    HW263861   7.004   9.072   4.732 -1.1693  1.8053  2.0116
51183SOL     OW63862   1.594   1.456   1.125  0.5092  0.7699 -0.0611
51183SOL    HW163863   1.544   1.421   1.051 -1.6217  1.3057  1.0473
51183SOL    HW263864   1.580   1.392   1.195  0.9669  1.1993  0.4297
51184SOL     OW63865   0.733  10.707   9.228  0.2667 -0.1042 -0.1705
51184SOL    HW163866   0.740  10.769   9.301 -0.7225  0.3129 -0.4097
51184SOL    HW263867   0.802  10.734   9.167  0.4418  0.1853  0.1511
51185SOL     OW63868  11.602   5.945  10.341  0.0741 -0.0274  0.1192
51185SOL    HW163869  11.601   5.912  10.431  0.2033  1.6733  0.7806
51185SOL    HW263870  11.529   5.901  10.299 -1.5578  0.9406  1.7697
51186SOL     OW63871   0.565   3.215  10.139 -0.2073 -0.3751 -0.1283
51186SOL    HW163872   0.631   3.277  10.169 -1.9689  0.6140  1.9765
51186SOL    HW263873   0.567   3.145  10.204 -0.8028 -0.6356 -0.3857
51187SOL     OW63874   0.818   8.351  10.197 -0.0697 -0.1981 -0.6809
51187SOL    HW163875   0.727   8.381  10.201  0.3359  0.9413  0.6006
51187SOL    HW263876   0.827   8.291  10.271  0.0409 -0.8817 -1.2369
51188SOL     OW63877  12.509   2.461   8.572  0.6266 -0.9538  0.2352
51188SOL    HW163878  12.480   2.373   8.551  0.2270 -0.7248 -0.1769
51188SOL    HW263879  12.583   2.448   8.632 -1.1730 -1.5318  2.4744
51189SOL     OW63880   3.087   8.037   6.820 -0.1272 -0.0601 -0.2195
51189SOL    HW163881   3.167   8.018   6.772  1.3544  0.1378  2.0155
51189SOL    HW263882   3.117   8.075   6.903 -2.4982 -0.4886  0.9277
51190SOL     OW63883  10.528   2.531   2.219 -0.2732  0.0949  0.6052
51190SOL    HW163884  10.520   2.626   2.221 -2.5190 -0.0345  0.4938
51190SOL    HW263885  10.438   2.499   2.231  0.1884 -1.9751 -0.8701
51191SOL     OW63886   6.087   3.651   1.961 -0.2515 -0.3016  0.1094
51191SOL    HW163887   6.033   3.708   1.906  0.9929  1.4009  0.5801
51191SOL    HW263888   6.032   3.630   2.036 -1.2757 -1.0675 -0.8158
51192SOL     OW63889   7.562  10.530   7.185 -0.3064 -0.6029  0.0911
51192SOL    HW163890   7.519  10.571   7.110 -1.3162 -1.1976  0.3300
51192SOL    HW263891   7.644  10.496   7.150  0.1177  0.7770 -0.3208
51193SOL     OW63892   3.580   9.197  12.755  0.1478 -0.2754  0.2831
51193SOL    HW163893   3.618   9.267  12.701 -0.9198  0.9235  1.0221
51193SOL    HW263894   3.619   9.209  12.841  0.8189 -1.3309  0.1410
51194SOL     OW63895   3.002  10.685  11.847 -0.4190 -0.1297 -0.1200
51194SOL    HW163896   2.908  10.674  11.839 -0.8186  1.5026  1.6581
51194SOL    HW263897   3.029  10.616  11.909 -0.5297 -0.2178 -0.1700
51195SOL     OW63898   9.049   4.461   1.799  0.2462  0.0918  0.1966
51195SOL    HW163899   9.124   4.452   1.741  0.4134  0.8367  0.2946
51195SOL    HW263900   9.077   4.420   1.881  0.1216 -0.6758 -0.1339
51196SOL     OW63901   3.329  12.817   8.133 -0.2325  0.5801 -0.2985
51196SOL    HW163902   3.249  12.813   8.185  0.7996 -0.9004  1.2565
51196SOL    HW263903   3.355  12.909   8.137 -1.6931  1.0424 -0.6428
51197SOL     OW63904   3.970   0.169  12.719  0.1061  0.2567 -0.8176
51197SOL    HW163905   3.935   0.128  12.640  0.4284 -1.7854  0.0270
51197SOL    HW263906   4.016   0.247  12.687 -1.2068  0.4322 -2.4226
51198SOL     OW63907   4.887   5.915   6.593 -0.2864 -0.3456  0.3922
51198SOL    HW163908   4.806   5.896   6.641 -0.6242 -0.0820 -0.0765
51198SOL    HW263909   4.917   5.999   6.628 -1.0558  0.3335 -0.5404
51199SOL     OW63910   3.382  10.451   1.130  0.3700 -0.1560 -0.1124
51199SOL    HW163911   3.372  10.365   1.171 -0.8990 -0.1009 -0.2611
51199SOL    HW263912   3.342  10.511   1.193  2.2300  0.4946  0.5016
51200SOL     OW63913   1.434   3.632   5.654 -0.1335 -0.0448  0.1459
51200SOL    HW163914   1.483   3.703   5.613  0.1887  0.6225  1.6357
51200SOL    HW263915   1.477   3.618   5.738 -0.7749 -1.3712  0.2840
51201SOL     OW63916   3.140   0.854   2.561  0.2036  0.3858  0.3842
51201SOL    HW163917   3.212   0.903   2.599 -1.6381  1.8593  2.2461
51201SOL    HW263918   3.123   0.784   2.624  0.2465 -0.2200 -0.2569
51202SOL     OW63919   7.217   5.661   5.026  0.4454 -0.0807 -0.1723
51202SOL    HW163920   7.303   5.622   5.042  0.5113  0.4091  0.7025
51202SOL    HW263921   7.158   5.615   5.086  0.0603 -0.4998 -0.8537
51203SOL     OW63922   5.982   4.656   7.936  0.6282  0.3477  0.7137
51203SOL    HW163923   6.060   4.679   7.986  1.1226 -1.2831  0.7409
51203SOL    HW263924   5.966   4.564   7.957 -0.3267  0.1903 -0.5737
51204SOL     OW63925   9.830   3.679   2.994 -0.1252  0.1835 -0.4563
51204SOL    HW163926   9.763   3.614   3.013 -1.3345  1.5516  0.1970
51204SOL    HW263927   9.872   3.695   3.078 -0.6339  1.0694 -0.3564
51205SOL     OW63928   3.862   4.446   8.827 -0.7445 -0.1361 -0.2970
51205SOL    HW163929   3.875   4.371   8.884 -2.8486 -0.6593 -0.4226
51205SOL    HW263930   3.941   4.449   8.773  0.5021 -0.6807  1.4162
51206SOL     OW63931   4.895   6.337   7.672 -0.5737  0.0106 -0.3246
51206SOL    HW163932   4.916   6.310   7.761 -2.0063 -0.0724  0.0100
51206SOL    HW263933   4.940   6.420   7.660 -0.5828  0.1479  0.5752
51207SOL     OW63934   2.775   0.251   4.958 -0.4634 -0.3583  0.1601
51207SOL    HW163935   2.720   0.179   4.926  0.2957 -0.8724 -0.0008
51207SOL    HW263936   2.841   0.209   5.013 -1.4408  0.4719  2.0553
51208SOL     OW63937   2.839  10.529   7.359 -0.0507  0.9388 -0.2101
51208SOL    HW163938   2.807  10.453   7.409  2.1667  1.7713  2.8380
51208SOL    HW263939   2.762  10.583   7.346 -0.8253  0.7417  2.6911
51209SOL     OW63940   3.127  11.111   2.094  0.2653 -0.2898 -0.5784
51209SOL    HW163941   3.110  11.195   2.052 -1.1509 -0.7854 -1.0237
51209SOL    HW263942   3.218  11.118   2.125  0.3187  1.2168 -1.0154
51210SOL     OW63943   1.464   7.982   0.500 -0.0847  0.5144 -0.1943
51210SOL    HW163944   1.466   8.063   0.551 -1.3353  1.2653 -1.2891
51210SOL    HW263945   1.523   7.999   0.425  0.3947  0.0474  0.0653
51211SOL     OW63946   3.360   6.216   3.226 -0.5697  0.1834  0.1910
51211SOL    HW163947   3.358   6.136   3.279  0.0248  1.7344  2.6935
51211SOL    HW263948   3.329   6.188   3.140 -2.4531 -2.3173  1.5556
51212SOL     OW63949   3.967  11.038   8.985  0.4884 -0.1428  0.5130
51212SOL    HW163950   4.011  10.986   9.052  0.4096  1.3900  1.7942
51212SOL    HW263951   4.038  11.074   8.932  0.6125 -0.2896  0.5798
51213SOL     OW63952   5.975   8.636   9.166  0.3733 -0.1769  0.3027
51213SOL    HW163953   5.901   8.622   9.226  0.6547  0.7037  0.8722
51213SOL    HW263954   6.023   8.554   9.169 -0.3649 -0.6277  0.2194
51214SOL     OW63955   3.740   5.702   9.845 -0.7476  0.0393  0.2565
51214SOL    HW163956   3.717   5.609   9.848  0.8386 -0.3493  2.5076
51214SOL    HW263957   3.657   5.746   9.827 -1.3933 -1.8102 -1.7495
51215SOL     OW63958   7.939   1.644   0.397 -0.8011  0.0725 -0.1876
51215SOL    HW163959   7.921   1.619   0.307 -3.4446 -0.9189  0.5130
51215SOL    HW263960   7.911   1.736   0.403 -1.9204 -0.2488 -0.1182
51216SOL     OW63961   4.789   4.171   0.040 -0.4861 -0.0699 -0.1320
51216SOL    HW163962   4.756   4.261   0.041 -0.3412 -0.0205  0.2247
51216SOL    HW263963   4.775   4.140   0.129 -0.3579 -0.3367 -0.2063
51217SOL     OW63964  12.425   8.848   2.140  0.1411  0.2645 -0.2948
51217SOL    HW163965  12.508   8.802   2.153 -1.2294 -2.1349  0.5773
51217SOL    HW263966  12.364   8.779   2.113 -1.4498  2.0696 -1.5226
51218SOL     OW63967  12.214   7.391  12.529  0.2643 -0.3507 -0.1221
51218SOL    HW163968  12.177   7.464  12.578  1.8668  0.1252  0.4328
51218SOL    HW263969  12.240   7.327  12.595 -0.1517 -0.9623 -0.5347
51219SOL     OW63970   3.636   9.722   2.215 -0.6744  0.3185  0.6000
51219SOL    HW163971   3.731   9.728   2.231 -0.7379 -0.3172  1.2581
51219SOL    HW263972   3.617   9.629   2.220 -1.1557  0.3322 -0.6750
51220SOL     OW63973   8.357   0.955   5.178 -0.3152  0.0503 -0.6267
51220SOL    HW163974   8.376   1.005   5.099 -1.4783 -0.4772 -1.2794
51220SOL    HW263975   8.277   0.996   5.213 -1.5781 -1.5731 -1.4457
51221SOL     OW63976   6.041   2.491   1.022  0.3549 -0.0197 -0.3534
51221SOL    HW163977   6.134   2.489   1.000  0.4186  1.5356 -0.3429
51221SOL    HW263978   6.014   2.582   1.004 -0.5868  0.2107  1.9219
51222SOL     OW63979   9.316   3.824   7.394 -0.4565  0.2047  0.4680
51222SOL    HW163980   9.246   3.774   7.435 -0.3837  0.5850  1.0662
51222SOL    HW263981   9.340   3.890   7.459 -0.9074  1.3644 -0.5013
51223SOL     OW63982  10.444   4.985   8.565 -0.3401  0.0277 -0.5707
51223SOL    HW163983  10.417   4.901   8.529 -0.2930 -0.6048  0.8239
51223SOL    HW263984  10.444   4.972   8.660 -2.3914  2.1810 -0.1654
51224SOL     OW63985   1.385   9.301   5.522  0.2406 -0.0901  0.6885
51224SOL    HW163986   1.323   9.317   5.451  0.7528  2.1940  0.6879
51224SOL    HW263987   1.357   9.217   5.560 -1.3097 -0.3274 -0.8650
51225SOL     OW63988   6.181   2.357   6.177 -0.3002  0.4233 -0.4192
51225SOL    HW163989   6.191   2.354   6.272  0.2926 -1.2333 -0.5109
51225SOL    HW263990   6.109   2.298   6.157  1.0598 -1.0612 -1.1490
51226SOL     OW63991   4.174   5.179  10.154  0.7019  0.1056 -0.1775
51226SOL    HW163992   4.235   5.105  10.163  0.8534  0.3018  0.4423
51226SOL    HW263993   4.228   5.251  10.121  0.3482 -0.3310 -1.8272
51227SOL     OW63994  11.633   4.400   0.950 -0.3094 -0.5894  0.0292
51227SOL    HW163995  11.673   4.331   0.897 -0.6956 -0.9026  0.1393
51227SOL    HW263996  11.694   4.414   1.023  0.4496  0.1670 -0.7354
51228SOL     OW63997   7.349   3.901   7.383  0.0249  0.7034 -0.2883
51228SOL    HW163998   7.425   3.932   7.431  0.5428 -0.7170 -0.1273
51228SOL    HW263999   7.297   3.854   7.448 -1.2931  2.1232 -0.2707
51229SOL     OW64000   6.569   8.221   2.671 -0.1547 -0.1501  0.3637
51229SOL    HW164001   6.616   8.169   2.736  1.0407  2.3797  1.6959
51229SOL    HW264002   6.478   8.221   2.701 -0.1784 -1.4038  0.3288
51230SOL     OW64003   6.503   5.833   5.435  0.1460 -0.3483 -0.1761
51230SOL    HW164004   6.426   5.778   5.443  0.0029 -0.1158  0.0501
51230SOL    HW264005   6.554   5.815   5.514 -0.4266  0.6464  0.4380
51231SOL     OW64006   9.960   3.807   2.199 -0.2554 -0.2219 -0.1310
51231SOL    HW164007  10.011   3.863   2.140 -0.1281  1.4421  1.4698
51231SOL    HW264008  10.025   3.748   2.238  0.4334  1.4272  1.3737
51232SOL     OW64009   4.171  11.063   3.134  1.0200 -0.0187 -0.0496
51232SOL    HW164010   4.179  10.997   3.203 -1.6187 -0.6208 -0.2120
51232SOL    HW264011   4.222  11.137   3.167  0.7815 -0.6886  2.0345
51233SOL     OW64012   1.083   3.556   1.045  0.1278 -0.0095 -0.3279
51233SOL    HW164013   1.142   3.521   0.979 -0.3372  0.1091 -0.8046
51233SOL    HW264014   1.002   3.574   0.999 -0.3471 -0.3296  0.3624
51234SOL     OW64015   0.791   1.872  12.839  0.0338 -0.1130 -0.0137
51234SOL    HW164016   0.731   1.880  12.765  0.6569  1.0814 -0.4160
51234SOL    HW264017   0.735   1.859  12.915 -0.8191  1.8945 -0.2354
51235SOL     OW64018   5.142   3.187   3.289  0.1300 -0.1235 -1.2389
51235SOL    HW164019   5.078   3.224   3.350  0.8879  0.8850 -1.0388
51235SOL    HW264020   5.226   3.193   3.334  1.0201  2.3099 -2.9930
51236SOL     OW64021   1.505   1.388  12.062 -0.0777 -0.0721 -0.3550
51236SOL    HW164022   1.535   1.304  12.097 -0.3028 -0.3152 -0.7372
51236SOL    HW264023   1.454   1.364  11.984 -1.0758  0.3415  0.1580
51237SOL     OW64024   8.367  12.020   1.436  0.0462  0.5204  0.4885
51237SOL    HW164025   8.388  12.056   1.522  0.6594  0.2700  0.4480
51237SOL    HW264026   8.387  12.091   1.375 -0.2107  0.6338  0.5353
51238SOL     OW64027   9.071  12.423   2.888 -0.0585  0.5725  0.0630
51238SOL    HW164028   9.051  12.330   2.898 -2.2429  1.1187  1.5797
51238SOL    HW264029   9.064  12.439   2.794  0.1511 -0.7337 -0.2000
51239SOL     OW64030   2.377   1.653  12.023  0.2269 -0.2352 -0.2149
51239SOL    HW164031   2.427   1.707  12.084  0.7340  0.0694 -0.8931
51239SOL    HW264032   2.308   1.711  11.990  0.3979 -0.1818 -0.4810
51240SOL     OW64033  10.267   9.815   0.326  0.8915 -0.0199 -0.5148
51240SOL    HW164034  10.269   9.887   0.263  1.5855  0.0935 -0.3711
51240SOL    HW264035  10.350   9.822   0.373  0.0303  0.4300  1.0069
51241SOL     OW64036   3.318   2.586   6.185 -0.1802  0.2767  0.0633
51241SOL    HW164037   3.257   2.551   6.249  1.5426 -0.7554  1.2419
51241SOL    HW264038   3.333   2.676   6.213  0.1159  0.0087  0.8116
51242SOL     OW64039   0.810   1.885   0.319  0.2813 -0.0807 -0.4184
51242SOL    HW164040   0.827   1.795   0.290 -1.5108 -0.2865 -0.9639
51242SOL    HW264041   0.879   1.937   0.277  1.0816 -1.1251 -0.4539
51243SOL     OW64042   7.422  11.092  10.616 -0.0204  0.0667 -0.3442
51243SOL    HW164043   7.357  11.154  10.583 -1.2552 -1.2114 -0.4538
51243SOL    HW264044   7.381  11.006  10.602  1.8769 -0.8091 -0.7693
51244SOL     OW64045   2.621   8.928   1.319  0.3807  0.4404 -0.3573
51244SOL    HW164046   2.619   8.888   1.233 -0.1781 -1.1736  0.3627
51244SOL    HW264047   2.697   8.889   1.362 -0.2731 -0.0132  0.4212
51245SOL     OW64048   1.897   4.031  10.481  0.2659  0.0195 -0.0577
51245SOL    HW164049   1.836   4.048  10.409  0.0026 -1.1651 -0.1408
51245SOL    HW264050   1.951   3.958  10.450  0.9803  0.3185  0.4586
51246SOL     OW64051   3.515   3.535   3.230 -0.6700 -0.3742 -0.0590
51246SOL    HW164052   3.552   3.488   3.305 -2.1837 -1.8270 -0.1734
51246SOL    HW264053   3.489   3.467   3.168 -0.3761  0.7580 -1.4903
51247SOL     OW64054   4.980  12.145   1.559  0.3708  0.0918 -0.7598
51247SOL    HW164055   4.989  12.051   1.572  0.4811  0.5112  3.7866
51247SOL    HW264056   4.905  12.170   1.613  1.3084  2.7805 -0.5285
51248SOL     OW64057   7.782  12.667   0.924 -0.1357  0.0586 -0.5572
51248SOL    HW164058   7.691  12.695   0.927 -0.2418  0.0302 -2.3332
51248SOL    HW264059   7.830  12.735   0.971 -0.7797  1.4691 -1.8704
51249SOL     OW64060   4.408   9.037   5.740 -0.6818  0.0782  0.2234
51249SOL    HW164061   4.411   9.084   5.823 -1.7578  1.3122 -0.3838
51249SOL    HW264062   4.496   9.001   5.729 -0.4487  0.1026  1.7577
51250SOL     OW64063  10.537   7.609  12.868 -0.1917  0.2589  0.0013
51250SOL    HW164064  10.626   7.609  12.904  0.5967  1.1494 -1.8402
51250SOL    HW264065  10.531   7.691  12.819 -2.2810  0.5193  0.6270
51251SOL     OW64066   7.635   1.342   1.776 -0.4627 -0.4251  0.6263
51251SOL    HW164067   7.686   1.399   1.834  0.3099  0.7884 -1.1339
51251SOL    HW264068   7.602   1.401   1.708 -2.4366 -1.5616  0.5182
51252SOL     OW64069   7.313   7.602  11.003  0.0116 -0.0729 -0.1802
51252SOL    HW164070   7.378   7.640  10.944  0.8285 -0.0380  0.7120
51252SOL    HW264071   7.293   7.517  10.964  1.2042 -0.4311 -0.0686
51253SOL     OW64072   0.395   8.281   8.366 -0.1576  0.3611 -0.0543
51253SOL    HW164073   0.429   8.279   8.455 -1.2284 -1.2034  0.3648
51253SOL    HW264074   0.471   8.271   8.310  0.3963  0.1462  0.7264
51254SOL     OW64075  10.001  10.169  11.194  0.1419 -0.1738 -0.5422
51254SOL    HW164076  10.061  10.242  11.208  0.1814 -0.4216  0.6604
51254SOL    HW264077   9.941  10.200  11.126 -0.3310  1.2915  0.5046
51255SOL     OW64078  10.918   9.624  12.555 -0.0166  0.0379 -0.1205
51255SOL    HW164079  10.915   9.556  12.623  0.9625 -0.9777 -1.0411
51255SOL    HW264080  10.992   9.680  12.581  0.6875 -0.6541 -0.6127
51256SOL     OW64081  10.566   6.000   2.609  0.4392  0.0985 -0.2088
51256SOL    HW164082  10.512   5.922   2.592 -0.4461  0.6213  0.0937
51256SOL    HW264083  10.636   5.996   2.544 -0.7451  0.1025 -1.5296
51257SOL     OW64084   0.849   9.009   7.791 -0.1239 -0.3428  0.0511
51257SOL    HW164085   0.845   8.990   7.698 -0.3512  1.9319 -0.4713
51257SOL    HW264086   0.809   9.095   7.800  0.3051 -0.2952  2.1938
51258SOL     OW64087   8.245   8.688   7.953  0.2942  0.2979  0.0383
51258SOL    HW164088   8.292   8.693   8.037  0.6759  0.6734 -0.1917
51258SOL    HW264089   8.168   8.634   7.972  0.7916 -0.2943  0.4368
51259SOL     OW64090  11.814   1.317   0.040  0.2398  0.5374  0.0894
51259SOL    HW164091  11.816   1.392  -0.019  1.5181 -0.3825 -1.1076
51259SOL    HW264092  11.755   1.255  -0.003  0.4257  0.2395  0.2602
51260SOL     OW64093   6.804   0.631   6.620 -0.6238 -0.3205 -0.3193
51260SOL    HW164094   6.858   0.562   6.582 -0.3091 -0.3761  0.2127
51260SOL    HW264095   6.795   0.606   6.712 -3.3383 -1.4799 -0.7840
51261SOL     OW64096   1.590  11.471   5.821 -0.0297 -0.3351  0.0560
51261SOL    HW164097   1.675  11.452   5.781 -0.0445  0.3245 -0.3013
51261SOL    HW264098   1.562  11.553   5.780 -1.3474 -1.1058 -0.6615
51262SOL     OW64099   2.259  11.707   8.373 -0.2053  0.1621  0.6752
51262SOL    HW164100   2.281  11.719   8.465  1.8104  1.0807  0.1259
51262SOL    HW264101   2.293  11.786   8.330 -1.6823  0.0591 -0.7768
51263SOL     OW64102  12.486   4.335  12.599 -0.1770  0.8342 -0.2294
51263SOL    HW164103  12.405   4.286  12.583  0.3895 -0.0935 -0.3163
51263SOL    HW264104  12.457   4.413  12.646 -1.2293  0.9820 -1.0807
51264SOL     OW64105  11.390  11.707   4.794  0.0244  0.2094  0.0806
51264SOL    HW164106  11.397  11.617   4.825  0.6979  0.4278  0.5854
51264SOL    HW264107  11.459  11.716   4.729  0.5856  0.6242  0.7150
51265SOL     OW64108   1.186   7.642   1.720 -0.4305 -0.0438  0.3204
51265SOL    HW164109   1.124   7.714   1.707 -1.2479 -0.6429  0.7694
51265SOL    HW264110   1.257   7.660   1.660 -1.0507  0.6672 -0.2166
51266SOL     OW64111   1.148   3.248   5.706 -0.4199  0.0287 -0.5441
51266SOL    HW164112   1.109   3.268   5.791  2.0648 -0.6486  0.8655
51266SOL    HW264113   1.207   3.175   5.723  0.4662  0.1366 -2.7648
51267SOL     OW64114   7.334  11.300   0.826  0.0474  0.2231  0.0278
51267SOL    HW164115   7.338  11.388   0.864  1.6181 -0.1545  0.8212
51267SOL    HW264116   7.358  11.312   0.734  0.1056  0.6383  0.0961
51268SOL     OW64117  11.322   8.719   2.341 -0.2678 -0.5066  0.3802
51268SOL    HW164118  11.416   8.715   2.360 -0.0565 -0.3974 -0.5848
51268SOL    HW264119  11.310   8.804   2.299 -0.6885 -0.7700 -0.0460
51269SOL     OW64120  10.473   9.799  12.703 -0.3126  0.1965  1.5032
51269SOL    HW164121  10.498   9.842  12.784 -0.4400  2.9040  0.2073
51269SOL    HW264122  10.553   9.797  12.650 -0.9097  1.3761  0.5103
51270SOL     OW64123  10.568   4.294   5.097 -0.5073 -0.0416 -0.4851
51270SOL    HW164124  10.591   4.307   5.005 -2.0016 -1.8362 -1.2010
51270SOL    HW264125  10.473   4.305   5.099 -0.7826 -2.0454  0.3719
51271SOL     OW64126   0.670   3.241   1.512  0.3653  0.6151 -0.3198
51271SOL    HW164127   0.587   3.193   1.521  1.3148 -1.0888 -0.3321
51271SOL    HW264128   0.661   3.288   1.429 -0.2004 -0.3452 -0.8186
51272SOL     OW64129   4.168  12.150   3.763 -0.9726  0.1454  0.0533
51272SOL    HW164130   4.078  12.162   3.793 -0.5151  0.1787  1.5363
51272SOL    HW264131   4.221  12.185   3.835  0.2335 -0.8541 -0.3160
51273SOL     OW64132  11.163   4.426   4.778  0.0526 -0.2120 -0.3659
51273SOL    HW164133  11.211   4.372   4.841 -1.4152  0.6436  1.6006
51273SOL    HW264134  11.072   4.423   4.809 -1.3717 -2.0077 -4.0803
51274SOL     OW64135  10.201   5.565   9.632  0.1680  0.3976  0.2990
51274SOL    HW164136  10.272   5.500   9.629  0.1134  0.3417  0.2082
51274SOL    HW264137  10.124   5.516   9.661 -0.4688 -0.1402 -2.0324
51275SOL     OW64138  12.067   3.595  11.022 -0.1725  0.2632  0.1905
51275SOL    HW164139  12.089   3.504  10.999 -1.9269 -0.6305  1.8263
51275SOL    HW264140  12.045   3.592  11.114  1.6038  2.7795  0.8117
51276SOL     OW64141   4.838   1.526   9.180 -0.7331 -0.1802 -0.3616
51276SOL    HW164142   4.867   1.604   9.228  0.2395 -1.6259  1.5233
51276SOL    HW264143   4.888   1.454   9.218 -1.4243 -1.7213 -2.2076
51277SOL     OW64144   2.707  11.131  10.173 -0.5182  0.4988 -0.3298
51277SOL    HW164145   2.630  11.118  10.117 -0.3124 -0.9099 -0.3398
51277SOL    HW264146   2.723  11.044  10.212  1.0317  0.7679 -0.2986
51278SOL     OW64147  10.907  12.732  12.509  0.4954  0.9752  0.2783
51278SOL    HW164148  10.943  12.694  12.589  0.3792 -1.7043 -0.8605
51278SOL    HW264149  10.812  12.721  12.517  0.4657  0.9081 -0.1325
51279SOL     OW64150  11.533   6.375   6.175 -0.1559  0.0028 -0.5012
51279SOL    HW164151  11.517   6.343   6.086 -0.6841 -1.0309 -0.0639
51279SOL    HW264152  11.616   6.335   6.200  1.0278  1.9047 -1.2225
51280SOL     OW64153  12.372   9.737  11.495  0.0632  0.2055  0.1298
51280SOL    HW164154  12.407   9.665  11.442  1.6818  1.1976 -0.2285
51280SOL    HW264155  12.284   9.709  11.518  0.0724 -1.1844 -1.3294
51281SOL     OW64156  12.934   6.343   8.143  0.1357 -0.5359  0.1934
51281SOL    HW164157  12.948   6.251   8.165 -0.8091 -0.4735  1.1012
51281SOL    HW264158  13.016   6.386   8.168  0.3699 -1.0315  0.2948
51282SOL     OW64159   4.480   4.320   0.324  0.2517 -0.1446 -0.0530
51282SOL    HW164160   4.521   4.247   0.277 -0.5356 -0.3915 -0.3899
51282SOL    HW264161   4.517   4.316   0.412  0.2165 -0.9743 -0.0630
51283SOL     OW64162   7.337   8.007  10.310 -0.3595 -0.0917 -0.0025
51283SOL    HW164163   7.314   7.980  10.399 -0.6115 -0.3178 -0.1353
51283SOL    HW264164   7.275   8.076  10.288  1.7190  2.3474  1.2200
51284SOL     OW64165   8.160   8.553   0.392 -0.7310  0.1071 -0.4507
51284SOL    HW164166   8.144   8.499   0.470 -2.6249  1.1904 -0.0343
51284SOL    HW264167   8.123   8.501   0.320  0.4449 -0.6073 -0.5586
51285SOL     OW64168  11.235   8.686  11.997  0.6029 -0.3703 -0.2023
51285SOL    HW164169  11.215   8.731  11.915  1.9542 -1.8785 -1.4294
51285SOL    HW264170  11.217   8.594  11.978  0.6646 -0.7195  1.3143
51286SOL     OW64171   8.902  12.163   9.017  0.3603  0.2527  0.4736
51286SOL    HW164172   8.990  12.178   9.053  0.4513  0.3031  0.2323
51286SOL    HW264173   8.894  12.226   8.946 -0.3944  1.1899  1.3630
51287SOL     OW64174  11.181  10.000   7.184 -0.1143  0.8283  0.5720
51287SOL    HW164175  11.236  10.079   7.182 -1.0593  1.5153  1.0794
51287SOL    HW264176  11.092  10.032   7.171 -0.5957 -0.0738  1.5302
51288SOL     OW64177   2.824   6.010   2.626  0.3838  0.1769 -0.2829
51288SOL    HW164178   2.794   5.969   2.707  3.1029 -0.9667  0.2839
51288SOL    HW264179   2.875   5.942   2.582  0.8267  1.4563 -1.8791
51289SOL     OW64180   5.318   8.697   2.849  0.5195  0.3197 -0.8468
51289SOL    HW164181   5.391   8.759   2.850  1.3899 -0.6451 -1.9607
51289SOL    HW264182   5.245   8.745   2.890  2.0026  0.9782  1.1975
51290SOL     OW64183   2.654   8.311   9.389 -0.6717 -0.6482  0.7274
51290SOL    HW164184   2.742   8.276   9.381 -0.2839  0.3970  0.1914
51290SOL    HW264185   2.667   8.405   9.402 -1.7055 -0.4020  0.1200
51291SOL     OW64186   9.434   4.680   5.484 -0.3171 -0.2097  0.3239
51291SOL    HW164187   9.487   4.750   5.446 -1.0278  0.2056  0.0792
51291SOL    HW264188   9.387   4.643   5.410  2.3015 -3.0303 -0.1196
51292SOL     OW64189   4.679   1.705   9.881  0.0217  0.0198  0.3309
51292SOL    HW164190   4.687   1.616   9.847  2.6968  0.7577 -1.2339
51292SOL    HW264191   4.627   1.752   9.816 -0.0211 -0.0234  0.3342
51293SOL     OW64192   5.021   3.291  10.363 -0.4005  0.1761  0.1563
51293SOL    HW164193   5.109   3.274  10.330  0.5987  0.1091  2.6050
51293SOL    HW264194   5.015   3.239  10.444 -1.8933  1.8109  1.1778
51294SOL     OW64195  12.981   6.393  11.779 -0.0548  0.8839 -0.1662
51294SOL    HW164196  12.974   6.459  11.710 -1.9792  0.0767 -0.8114
51294SOL    HW264197  12.919   6.423  11.846  0.4511  0.6910  0.3975
51295SOL     OW64198  12.308  12.613   6.827 -0.1334  0.0960  0.6055
51295SOL    HW164199  12.362  12.535   6.822 -0.3696  0.0097 -1.2891
51295SOL    HW264200  12.221  12.584   6.798 -0.2349  1.0153 -0.0711
51296SOL     OW64201   9.052   1.102  11.067  0.1075 -0.3580  0.2182
51296SOL    HW164202   9.000   1.044  11.122  1.0879 -0.6134  0.8958
51296SOL    HW264203   9.020   1.086  10.978 -0.4209 -1.0848  0.5280
51297SOL     OW64204   3.621   6.902   3.529 -0.2157  0.9514  0.1919
51297SOL    HW164205   3.541   6.856   3.504  0.9619 -0.1275 -1.7606
51297SOL    HW264206   3.682   6.833   3.554  0.4384  1.6933  0.6819
51298SOL     OW64207  10.126   3.664  11.320  0.2182 -0.0853  0.0009
51298SOL    HW164208  10.178   3.738  11.352 -2.2038  2.5287 -1.6095
51298SOL    HW264209  10.170   3.637  11.239  2.0662 -1.6481  1.4528
51299SOL     OW64210   0.043   7.255   0.863 -0.1356  0.5309 -0.4069
51299SOL    HW164211  -0.025   7.256   0.931  1.0750  0.7324  0.8362
51299SOL    HW264212   0.032   7.339   0.818 -0.2408  0.8958  0.2768
51300SOL     OW64213   3.943   1.116   3.679 -0.1859  0.3058  0.2899
51300SOL    HW164214   4.004   1.048   3.650 -0.3526  0.6714 -0.9545
51300SOL    HW264215   3.985   1.198   3.652  0.1453  0.7399  2.0208
51301SOL     OW64216   7.957   0.919   5.592  0.0392 -0.2725  0.6810
51301SOL    HW164217   7.936   0.922   5.499 -0.5476  0.1183  0.8167
51301SOL    HW264218   8.044   0.880   5.596 -0.1847 -0.8754  0.0095
51302SOL     OW64219   1.097   8.155   1.302 -0.2961  0.5498 -0.5219
51302SOL    HW164220   1.140   8.072   1.322 -0.5110  0.6948  0.5995
51302SOL    HW264221   1.159   8.201   1.245  0.9363  0.6316  0.8283
51303SOL     OW64222   7.069  11.882   8.006 -0.2092  0.4177  0.0122
51303SOL    HW164223   7.023  11.925   8.078 -0.0501  0.4105  0.1181
51303SOL    HW264224   7.019  11.802   7.991 -0.7663  0.8433 -0.4757
51304SOL     OW64225   2.618   7.350   2.239  0.5615  0.2193  0.7659
51304SOL    HW164226   2.606   7.320   2.149  1.0966  1.7313  0.1456
51304SOL    HW264227   2.632   7.445   2.231 -0.9713  0.6881  2.5697
51305SOL     OW64228  10.205   0.729   9.862 -0.6204  0.3340  0.6015
51305SOL    HW164229  10.130   0.672   9.877 -1.1565  0.3709 -1.6400
51305SOL    HW264230  10.227   0.716   9.770  1.7505  0.8030  1.0352
51306SOL     OW64231   2.923   7.903   4.374 -0.2068  0.1621  0.4246
51306SOL    HW164232   2.835   7.920   4.407 -0.8480 -0.1689 -1.0159
51306SOL    HW264233   2.981   7.926   4.446 -1.4618  0.6047  1.3247
51307SOL     OW64234   1.952  11.777   5.279  0.2378  0.1970 -0.1737
51307SOL    HW164235   2.004  11.717   5.332 -1.1043  0.1678  1.1794
51307SOL    HW264236   1.864  11.738   5.278 -0.0960  0.9161 -1.2765
51308SOL     OW64237   3.210   7.991   3.042  0.1840  0.8235  0.1082
51308SOL    HW164238   3.292   7.994   3.091  0.0767  1.4291  0.2670
51308SOL    HW264239   3.225   8.048   2.967 -0.8238  2.8684  1.3404
51309SOL     OW64240   9.981   5.157   4.220  0.6050  0.0243 -0.4099
51309SOL    HW164241   9.947   5.073   4.250  0.6048  0.4359  0.8002
51309SOL    HW264242  10.071   5.139   4.193  0.8666 -0.2290  0.5979
51310SOL     OW64243   8.657   9.778   9.135 -0.4542 -0.0679  0.1496
51310SOL    HW164244   8.629   9.698   9.180  1.0019 -1.1615 -0.8187
51310SOL    HW264245   8.716   9.748   9.067  2.7903  2.0378  1.7958
51311SOL     OW64246  11.509  10.037   5.487  0.3190 -0.6636  0.9791
51311SOL    HW164247  11.478  10.109   5.542 -0.9609 -0.7205  0.3658
51311SOL    HW264248  11.448  10.035   5.413  1.4088 -1.2315  0.0694
51312SOL     OW64249  12.704   5.911   9.641 -0.0890  0.2850 -0.3221
51312SOL    HW164250  12.622   5.863   9.637 -0.5997  1.0836  0.3584
51312SOL    HW264251  12.680   5.998   9.670  0.7798  1.0662 -1.8041
51313SOL     OW64252   4.583  11.173   1.529 -0.5919  0.7283 -0.6901
51313SOL    HW164253   4.601  11.124   1.449  2.4661 -1.4810  1.1507
51313SOL    HW264254   4.570  11.106   1.596  0.1129  2.4658  1.2955
51314SOL     OW64255  12.132   6.936  10.636 -0.5522 -0.5451 -0.4064
51314SOL    HW164256  12.227   6.947  10.636 -0.2339 -1.9588  3.0046
51314SOL    HW264257  12.097   7.025  10.624  1.1648  0.0992 -0.9167
51315SOL     OW64258   3.381   0.340  12.603  0.1384  0.0091  0.4306
51315SOL    HW164259   3.347   0.421  12.566 -0.5172 -0.5177 -0.1286
51315SOL    HW264260   3.476   0.346  12.592 -0.0508 -0.2600 -1.6000
51316SOL     OW64261   4.041   1.589   0.943  0.0783 -0.3725  0.1376
51316SOL    HW164262   3.994   1.659   0.987  0.0514  1.1382 -2.1413
51316SOL    HW264263   3.994   1.509   0.968 -3.4172  0.9830 -1.5435
51317SOL     OW64264   6.249   4.027   2.812 -0.2423  0.9796 -0.1804
51317SOL    HW164265   6.319   4.000   2.752 -0.3342 -0.2884  0.2740
51317SOL    HW264266   6.273   3.990   2.896 -1.5571  0.3680 -0.0567
51318SOL     OW64267   7.098   0.348  11.240 -0.5774  0.1078 -0.2387
51318SOL    HW164268   7.110   0.402  11.161  0.2703  0.5917  0.2093
51318SOL    HW264269   7.119   0.406  11.313  1.3861 -1.0631  0.2157
51319SOL     OW64270   0.798   6.650  11.381 -0.3754 -0.0027  0.2465
51319SOL    HW164271   0.712   6.621  11.351 -0.5104 -1.2113  1.6616
51319SOL    HW264272   0.859   6.586  11.345 -0.4458 -0.9607  1.7492
51320SOL     OW64273   4.563  12.459   0.826 -0.8449  0.9420 -0.1568
51320SOL    HW164274   4.577  12.552   0.809 -1.6800  1.1798  0.4017
51320SOL    HW264275   4.510  12.429   0.751 -0.0275  0.7567 -0.6713
51321SOL     OW64276   6.030   6.769  10.792 -0.5389  0.0915  0.1232
51321SOL    HW164277   6.116   6.739  10.764 -1.6154 -1.2935 -2.0121
51321SOL    HW264278   5.986   6.690  10.823 -0.3410  1.1392  3.5566
51322SOL     OW64279   2.033   3.650   7.794 -0.0495  0.6459  0.0673
51322SOL    HW164280   2.105   3.621   7.851 -1.0504 -2.8200 -0.2262
51322SOL    HW264281   2.060   3.623   7.707 -1.0333  0.7548 -0.2787
51323SOL     OW64282  12.133   7.379   0.661 -0.3944  0.0367  0.0705
51323SOL    HW164283  12.083   7.322   0.602 -0.6984 -0.9331  1.2162
51323SOL    HW264284  12.143   7.327   0.742  2.4105  0.1860 -0.0601
51324SOL     OW64285   4.603   5.758   2.486  0.1347  0.7366  0.3323
51324SOL    HW164286   4.575   5.716   2.405 -0.5037  0.9610  0.4357
51324SOL    HW264287   4.632   5.686   2.542 -0.4663  0.4778  0.3178
51325SOL     OW64288   1.822   5.716   1.556 -0.7036  0.2665  0.0318
51325SOL    HW164289   1.732   5.690   1.576 -0.9437  0.0459 -1.2470
51325SOL    HW264290   1.876   5.643   1.586 -1.2029 -0.8515 -1.6738
51326SOL     OW64291   9.914   2.883   6.083  0.2578 -0.1729  0.5472
51326SOL    HW164292  10.003   2.871   6.117  0.4643 -0.0282  0.0709
51326SOL    HW264293   9.869   2.801   6.104  1.2431 -1.3020 -1.4265
51327SOL     OW64294   9.641   9.297   8.843  0.3701 -0.0796  0.5049
51327SOL    HW164295   9.634   9.201   8.842  2.0775 -0.2629  1.6815
51327SOL    HW264296   9.730   9.314   8.810  0.3592  1.0567  1.0393
51328SOL     OW64297  10.584  12.593   7.687  0.2128  0.2471 -0.0539
51328SOL    HW164298  10.625  12.546   7.615 -0.3455  0.0695 -0.2603
51328SOL    HW264299  10.493  12.603   7.661 -0.2080 -0.5948  1.0226
51329SOL     OW64300  11.044   8.692   9.065 -0.5995 -0.6386 -0.2020
51329SOL    HW164301  10.972   8.658   9.013 -1.0213 -0.6950  0.4147
51329SOL    HW264302  11.059   8.780   9.030 -0.3792 -0.9501 -0.9121
51330SOL     OW64303   2.177   2.324   5.654 -0.1465 -0.0765 -0.3114
51330SOL    HW164304   2.110   2.274   5.606  0.5815 -1.5869  0.1927
51330SOL    HW264305   2.133   2.406   5.676 -1.3326 -0.3909 -1.3267
51331SOL     OW64306   9.729  11.991   5.822  0.3708 -0.6406  0.6343
51331SOL    HW164307   9.733  11.905   5.864 -2.0319 -1.7125 -1.0895
51331SOL    HW264308   9.636  12.015   5.823  0.8231  1.3755 -0.0289
51332SOL     OW64309   7.167   6.416   1.890 -0.0531  0.2631 -0.0335
51332SOL    HW164310   7.137   6.361   1.817 -0.2669  0.4435 -0.0823
51332SOL    HW264311   7.199   6.354   1.955 -2.8650 -0.1235  1.1196
51333SOL     OW64312   8.867   2.375   8.013  0.0530 -0.4648 -0.0683
51333SOL    HW164313   8.864   2.309   7.944 -0.6094 -0.9062  0.3705
51333SOL    HW264314   8.801   2.347   8.076 -0.8375  1.0592 -0.2650
51334SOL     OW64315   5.151   1.001   2.928  0.4670  0.1189  0.3382
51334SOL    HW164316   5.216   0.931   2.920  0.5547  0.2607 -0.2858
51334SOL    HW264317   5.146   1.019   3.022  0.3702 -0.7868  0.5190
51335SOL     OW64318   7.752  11.066   7.245 -0.9139 -0.6361 -0.2499
51335SOL    HW164319   7.657  11.058   7.258 -0.9614 -0.1462 -0.2899
51335SOL    HW264320   7.778  10.982   7.207 -1.6757 -0.0051 -2.2575
51336SOL     OW64321  12.169   3.170   2.406  0.6043  0.3243  0.0980
51336SOL    HW164322  12.167   3.166   2.501  1.8894  1.9419  0.2427
51336SOL    HW264323  12.174   3.078   2.378  0.4081 -0.1605  1.5756
51337SOL     OW64324   6.203   6.002   8.191 -0.5471  0.2657 -0.3965
51337SOL    HW164325   6.298   6.015   8.193 -0.3624 -0.4245 -2.2571
51337SOL    HW264326   6.187   5.958   8.107 -2.6888  1.8073 -0.8792
51338SOL     OW64327   5.115   9.737  12.413  0.6516  0.6556  0.0863
51338SOL    HW164328   5.040   9.773  12.459  0.6729  0.1574  0.5242
51338SOL    HW264329   5.117   9.782  12.329  0.3250  1.2275  0.3849
51339SOL     OW64330   8.565  10.586  12.935  0.7052 -0.0039 -0.1937
51339SOL    HW164331   8.629  10.519  12.908  1.1874 -0.3080  1.6121
51339SOL    HW264332   8.490  10.571  12.877  0.4692 -2.6757  0.6474
51340SOL     OW64333  10.943   3.703   0.355 -0.1020 -0.2393  0.4518
51340SOL    HW164334  10.990   3.749   0.425  0.7762 -0.0355 -0.2637
51340SOL    HW264335  11.006   3.640   0.320 -1.0816 -1.5636  0.9745
51341SOL     OW64336  10.396  11.028   4.779 -0.4379 -0.1130 -0.1563
51341SOL    HW164337  10.372  11.120   4.767 -1.8528 -0.1682  1.6526
51341SOL    HW264338  10.346  10.981   4.712 -2.3045  0.1867  0.9549
51342SOL     OW64339   2.346   6.177  10.980  0.4835 -0.3401 -0.1573
51342SOL    HW164340   2.303   6.263  10.984 -0.0162 -0.5490 -0.8980
51342SOL    HW264341   2.439   6.196  10.990  0.2599  0.1262  1.4516
51343SOL     OW64342  12.220   4.361   7.018  0.6524 -0.5796  0.4801
51343SOL    HW164343  12.163   4.298   7.062 -0.9465  1.1296  0.9971
51343SOL    HW264344  12.184   4.366   6.929  0.0952  0.3195  0.7370
51344SOL     OW64345   4.091   6.852   7.822 -0.1795 -0.1280 -0.2768
51344SOL    HW164346   4.072   6.798   7.899 -1.0835  1.4651  0.6644
51344SOL    HW264347   4.164   6.908   7.849 -1.4483  1.4612 -0.0254
51345SOL     OW64348   0.367  11.506  12.671 -0.1248 -0.2026 -0.8757
51345SOL    HW164349   0.309  11.434  12.648 -0.9239 -0.2844  1.1660
51345SOL    HW264350   0.337  11.579  12.618 -2.1890 -0.2408  0.1354
51346SOL     OW64351   4.130   7.032   8.133  0.2173  0.1169  0.2273
51346SOL    HW164352   4.095   7.072   8.212  0.5383  2.0297 -0.5461
51346SOL    HW264353   4.128   7.102   8.067  0.0773 -1.3803 -1.4276
51347SOL     OW64354   0.177   3.588   2.535  0.2616 -0.2072  0.2101
51347SOL    HW164355   0.246   3.531   2.571  1.6045  1.1132 -0.1703
51347SOL    HW264356   0.145   3.638   2.610 -0.6009 -1.1114  0.4623
51348SOL     OW64357   8.906  12.584   3.440  0.1191  0.2725  0.1584
51348SOL    HW164358   8.974  12.650   3.453  1.2490 -0.8629  0.2473
51348SOL    HW264359   8.922  12.519   3.508 -0.8845 -0.1704 -0.0074
51349SOL     OW64360   3.416   1.216   4.426 -0.0915 -0.0472 -0.3544
51349SOL    HW164361   3.392   1.285   4.364  0.9271 -0.7164 -1.5551
51349SOL    HW264362   3.466   1.261   4.494  1.1716  0.3489 -1.4826
51350SOL     OW64363   3.482   2.717  12.738 -0.1573 -0.2040 -0.3160
51350SOL    HW164364   3.521   2.631  12.755 -0.8605 -0.3803  0.4556
51350SOL    HW264365   3.387   2.702  12.743 -0.3110  0.4461 -1.0423
51351SOL     OW64366   9.871   9.889   0.357  0.3438 -0.0124  0.2068
51351SOL    HW164367   9.799   9.947   0.329  1.1990  1.0167  0.0829
51351SOL    HW264368   9.879   9.825   0.286  0.8936  1.1195 -0.7976
51352SOL     OW64369   7.456   1.992   0.936 -0.0017 -0.1979 -0.1222
51352SOL    HW164370   7.449   1.907   0.892 -2.8732  0.7335 -1.7389
51352SOL    HW264371   7.436   1.973   1.028 -0.4417 -1.3028 -0.4264
51353SOL     OW64372   5.521   3.154   2.303  0.0970 -0.3272 -0.2208
51353SOL    HW164373   5.511   3.087   2.235 -0.2012 -1.4869  0.9357
51353SOL    HW264374   5.528   3.105   2.385 -0.4979  1.0664  0.7061
51354SOL     OW64375   9.934   1.615   9.675  0.7275 -0.6458  0.0690
51354SOL    HW164376   9.846   1.593   9.644  1.1034  0.3179 -1.8158
51354SOL    HW264377   9.928   1.705   9.706  0.7717 -1.0231  1.2386
51355SOL     OW64378  12.321   5.117   6.894  0.1695 -0.0500 -0.2953
51355SOL    HW164379  12.228   5.132   6.872 -0.0949  2.8098  2.1237
51355SOL    HW264380  12.319   5.084   6.984  1.5000 -0.0327 -0.2465
51356SOL     OW64381   5.485  11.080   4.691 -0.0395  0.3556  0.1012
51356SOL    HW164382   5.390  11.077   4.705 -0.0724 -1.7817 -0.2668
51356SOL    HW264383   5.495  11.123   4.606 -0.6365  0.9570  0.3237
51357SOL     OW64384   7.569   0.701   2.769  0.3559  0.1212 -0.0753
51357SOL    HW164385   7.533   0.676   2.684  1.4727 -0.0409 -0.5270
51357SOL    HW264386   7.493   0.710   2.826 -0.3247 -0.8759 -0.7983
51358SOL     OW64387   7.533   1.895  10.010 -0.0013  0.3325  0.9017
51358SOL    HW164388   7.581   1.812  10.004  0.7378  0.7763  0.3797
51358SOL    HW264389   7.566   1.946   9.936 -1.6612  0.4794  0.2322
51359SOL     OW64390  11.971   3.575   1.182 -0.5775 -0.3174 -0.2508
51359SOL    HW164391  12.042   3.630   1.216 -0.3426  0.0574 -1.3187
51359SOL    HW264392  11.902   3.582   1.249 -0.2507  0.6491  0.0046
51360SOL     OW64393   8.085   2.076  10.185  0.5003 -0.3207  0.5991
51360SOL    HW164394   8.164   2.046  10.141  1.1562  1.0433  0.7983
51360SOL    HW264395   8.079   2.169  10.163 -0.1757 -0.0378  1.8682
51361SOL     OW64396   3.755   0.394   7.390 -0.3905 -0.2918  0.2618
51361SOL    HW164397   3.709   0.442   7.321 -0.8931  0.0812  0.8471
51361SOL    HW264398   3.826   0.349   7.344 -0.1686  0.6628 -0.3682
51362SOL     OW64399   0.364   6.463   9.703  0.6148 -0.2128  0.0295
51362SOL    HW164400   0.414   6.440   9.781  1.1485  0.7010 -0.0221
51362SOL    HW264401   0.272   6.458   9.731  0.7353 -1.6295  0.1976
51363SOL     OW64402  10.701  10.458   9.890 -0.8870 -0.6520 -0.0106
51363SOL    HW164403  10.711  10.395   9.961 -0.7661 -1.6241 -0.8744
51363SOL    HW264404  10.614  10.495   9.904  0.0998  1.0778  2.1225
51364SOL     OW64405   9.264   5.029   5.492 -0.0709 -0.1283  0.0881
51364SOL    HW164406   9.251   5.103   5.434  0.0241  0.1060  0.3644
51364SOL    HW264407   9.184   4.977   5.484 -0.2899  0.1956  0.1759
51365SOL     OW64408   5.157   6.407   4.433 -0.0693 -0.0873  0.2571
51365SOL    HW164409   5.183   6.351   4.506  1.6643 -1.4986 -1.3545
51365SOL    HW264410   5.225   6.394   4.367 -0.2966  2.9428 -0.7390
51366SOL     OW64411   2.068   8.256   8.599  0.1508 -0.1945 -0.2312
51366SOL    HW164412   2.084   8.349   8.581  1.3442 -0.3302  0.0295
51366SOL    HW264413   2.101   8.211   8.521  0.6742 -0.4589  0.1337
51367SOL     OW64414  11.503   7.946   5.202 -0.0193  0.5182  0.2659
51367SOL    HW164415  11.576   7.976   5.256  0.7146 -1.7729  0.6151
51367SOL    HW264416  11.428   7.997   5.233  0.7398  0.4774  2.2794
51368SOL     OW64417   4.715   9.026   7.701  0.0099  0.5901  0.3412
51368SOL    HW164418   4.650   9.095   7.689 -1.0685 -0.4446  0.1007
51368SOL    HW264419   4.703   8.968   7.626 -0.9099 -1.2712  1.8358
51369SOL     OW64420   1.513   0.561   8.078  0.7386  0.8796 -0.0104
51369SOL    HW164421   1.583   0.519   8.127  2.6152  3.2978 -0.4004
51369SOL    HW264422   1.500   0.645   8.123 -1.8428  0.5849 -0.0702
51370SOL     OW64423   7.534  12.141   2.613  0.0119 -0.1511 -0.4217
51370SOL    HW164424   7.546  12.087   2.691  0.1664 -1.0698 -1.0709
51370SOL    HW264425   7.620  12.142   2.571  0.6985  2.6451  0.8317
51371SOL     OW64426   8.052  12.906   6.895  0.2392 -0.9397 -0.0512
51371SOL    HW164427   8.018  12.984   6.851 -0.2956 -0.0231  1.8789
51371SOL    HW264428   8.137  12.890   6.852  0.4006  0.7613 -0.4312
51372SOL     OW64429   9.695   0.902  12.528  0.0337 -0.1575  0.8463
51372SOL    HW164430   9.723   0.822  12.572  0.6138  0.5925  1.8964
51372SOL    HW264431   9.725   0.973  12.586  0.2439  0.8502 -0.4544
51373SOL     OW64432   2.255   7.855  11.671 -0.3018 -0.3519  0.5271
51373SOL    HW164433   2.337   7.840  11.624 -0.4672 -1.4289  0.5783
51373SOL    HW264434   2.278   7.847  11.764 -0.5912 -1.3669  0.5227
51374SOL     OW64435   0.798   3.177   0.770  0.3476  0.5853 -0.0419
51374SOL    HW164436   0.855   3.194   0.696 -0.2830 -0.2270 -0.7377
51374SOL    HW264437   0.710   3.178   0.734  0.0333  0.0965  0.6738
51375SOL     OW64438   7.651   7.908   8.184 -0.6754 -0.6360 -0.1599
51375SOL    HW164439   7.731   7.924   8.135  0.4568 -1.0109  1.4820
51375SOL    HW264440   7.638   7.986   8.238 -2.4161  0.1738 -1.6297
51376SOL     OW64441   7.416   1.387   8.610 -0.0135 -0.5014  0.1551
51376SOL    HW164442   7.500   1.346   8.590  0.1733 -0.3394  0.6028
51376SOL    HW264443   7.367   1.321   8.658 -1.0579 -1.4615 -2.0818
51377SOL     OW64444  10.516   2.285  11.555 -0.1292  0.7308  0.5203
51377SOL    HW164445  10.595   2.235  11.534 -0.2068 -0.2493  2.3334
51377SOL    HW264446  10.451   2.253  11.492  0.6805  0.9576 -0.4578
51378SOL     OW64447   1.971   1.514   0.382  0.4199  0.1346 -0.5394
51378SOL    HW164448   2.060   1.482   0.366  0.8986  1.3762 -0.4175
51378SOL    HW264449   1.930   1.514   0.295  0.9170  0.6794 -0.7747
51379SOL     OW64450   4.294   1.826   3.130 -0.1642 -0.1454 -0.2837
51379SOL    HW164451   4.295   1.893   3.198  1.6233 -0.0934 -0.3054
51379SOL    HW264452   4.202   1.819   3.104 -0.5165  1.6596  0.3330
51380SOL     OW64453   1.919   3.506   8.685 -0.2247 -0.0685  0.3490
51380SOL    HW164454   2.006   3.484   8.718 -0.0155  2.2330  1.4776
51380SOL    HW264455   1.866   3.523   8.763 -1.5356 -0.7673 -0.3434
51381SOL     OW64456  11.961   5.024   6.706 -0.4631  0.0567 -0.0834
51381SOL    HW164457  12.046   4.981   6.696 -0.1987  0.5588 -0.0417
51381SOL    HW264458  11.973   5.110   6.667 -0.1545  1.1210  2.2007
51382SOL     OW64459   9.431   9.923   1.018 -0.3838  0.1244 -0.0266
51382SOL    HW164460   9.364   9.874   1.065 -0.2128  0.6672  0.7905
51382SOL    HW264461   9.382   9.971   0.951 -1.0343  1.6455  1.4709
51383SOL     OW64462   7.746   2.742   3.359 -0.6876 -0.1029 -0.6754
51383SOL    HW164463   7.708   2.777   3.279 -3.1828 -4.1243 -1.5500
51383SOL    HW264464   7.813   2.681   3.329 -0.6243 -0.5695  0.3629
51384SOL     OW64465   4.366   3.378  11.856 -0.4685  0.5622 -0.0814
51384SOL    HW164466   4.365   3.438  11.931 -0.4169 -1.8436  1.9885
51384SOL    HW264467   4.276   3.347  11.849 -0.0627 -0.8149  0.4066
51385SOL     OW64468   0.232   6.042   3.587 -0.3146 -0.0289 -0.1937
51385SOL    HW164469   0.163   6.049   3.522  0.2403  1.0436 -0.6878
51385SOL    HW264470   0.235   6.128   3.628 -0.3962 -0.5714  1.0029
51386SOL     OW64471   1.840   7.873   6.016 -0.7771  0.4941 -0.1360
51386SOL    HW164472   1.916   7.930   6.026 -0.3959 -0.0203 -0.0450
51386SOL    HW264473   1.851   7.806   6.083 -1.8602  1.0011  0.5676
51387SOL     OW64474   3.120   5.869   3.948 -0.3888 -0.1382 -0.1060
51387SOL    HW164475   3.134   5.787   3.901  2.5698  1.1856 -1.7636
51387SOL    HW264476   3.124   5.844   4.040  1.3911 -1.7637 -0.5623
51388SOL     OW64477  10.693   6.429   5.221  0.0239 -0.1802  0.0382
51388SOL    HW164478  10.733   6.362   5.277  1.0056 -0.0772 -0.5112
51388SOL    HW264479  10.687   6.389   5.135  1.5615  0.7445 -0.5415
51389SOL     OW64480   8.800   8.713  12.715  0.0058  0.0996  0.6504
51389SOL    HW164481   8.835   8.677  12.634  0.7671 -0.8702  1.3794
51389SOL    HW264482   8.808   8.641  12.778 -1.2085  0.6056  1.4149
51390SOL     OW64483   0.661   6.335   1.865  0.3995  0.4926 -0.2777
51390SOL    HW164484   0.724   6.319   1.936 -0.2391  1.4468  0.5207
51390SOL    HW264485   0.657   6.430   1.858 -0.7943  0.4329 -0.4639
51391SOL     OW64486   2.605   0.247   2.981 -0.2289 -0.0846  0.6936
51391SOL    HW164487   2.524   0.205   3.009 -0.1564 -0.7642 -0.0722
51391SOL    HW264488   2.625   0.208   2.896 -0.0774  1.4118  0.0034
51392SOL     OW64489   2.846  10.000  11.506 -0.1336  0.0500 -0.4328
51392SOL    HW164490   2.906   9.934  11.472  0.6113 -0.3437  1.5453
51392SOL    HW264491   2.903  10.066  11.545 -0.9510  0.5575 -0.0810
51393SOL     OW64492   0.276  11.384   4.532 -0.0667  0.5432 -0.6012
51393SOL    HW164493   0.216  11.325   4.578 -0.3900  0.0601 -1.6091
51393SOL    HW264494   0.218  11.452   4.495 -0.0972 -0.2347 -2.0597
51394SOL     OW64495   1.788  10.048   2.497  0.2855  1.2098 -0.1123
51394SOL    HW164496   1.708  10.101   2.497 -1.6659 -1.4873  0.1879
51394SOL    HW264497   1.801  10.026   2.590  0.4734  0.4340 -0.3139
51395SOL     OW64498   1.354   1.771   2.797  0.2793  0.0091  0.4205
51395SOL    HW164499   1.288   1.707   2.769 -0.6118  0.6094  1.0827
51395SOL    HW264500   1.352   1.767   2.893  0.0140  1.2172  0.4797
51396SOL     OW64501   5.514   7.825   7.041  0.0587  0.1669  0.3248
51396SOL    HW164502   5.537   7.826   7.134  0.3390 -0.4919  0.2659
51396SOL    HW264503   5.580   7.881   7.000  1.2288 -1.2271  0.2436
51397SOL     OW64504   9.587   8.818   5.858 -0.0235 -0.2162  0.1743
51397SOL    HW164505   9.546   8.744   5.903 -1.5072  1.0867  1.0695
51397SOL    HW264506   9.681   8.804   5.869 -0.2860 -1.7833  0.6027
51398SOL     OW64507   1.780  10.378   1.568  0.0516 -0.2217  0.2705
51398SOL    HW164508   1.763  10.467   1.537  0.8330  0.0561  0.6028
51398SOL    HW264509   1.819  10.390   1.654  0.7932 -0.8520  0.0317
51399SOL     OW64510   5.996  11.051  12.626 -0.2260 -0.3248  0.1813
51399SOL    HW164511   6.011  10.958  12.606 -0.2021 -0.2972  0.0751
51399SOL    HW264512   5.935  11.081  12.559 -0.9291 -0.4860  0.7279
51400SOL     OW64513   6.283   6.970   4.124  0.0331  0.2534 -0.5146
51400SOL    HW164514   6.350   6.917   4.167  1.3055  1.1345 -1.3228
51400SOL    HW264515   6.238   6.909   4.066 -0.8776 -0.6709  1.0882
51401SOL     OW64516   0.579   9.182   6.562 -0.6230  0.8147 -0.2416
51401SOL    HW164517   0.606   9.101   6.519  0.4288  0.8569  0.3012
51401SOL    HW264518   0.483   9.177   6.564 -0.6403 -2.3912  3.3060
51402SOL     OW64519   3.913   3.963   0.163 -0.2954  0.0123 -0.6477
51402SOL    HW164520   3.945   3.974   0.253  0.9435  2.0596 -1.2586
51402SOL    HW264521   3.836   3.907   0.171 -0.2490  0.1969  1.6945
51403SOL     OW64522   2.151   9.201   9.149 -0.4330  0.4075 -0.0233
51403SOL    HW164523   2.097   9.213   9.227 -0.9112  1.7022 -0.5274
51403SOL    HW264524   2.187   9.112   9.158 -4.3049 -1.4488 -0.6656
51404SOL     OW64525   3.070   5.493   7.449 -0.3273  0.1302 -0.2357
51404SOL    HW164526   3.004   5.423   7.447 -0.2214  0.0250 -0.0841
51404SOL    HW264527   3.154   5.446   7.440 -0.1025  0.0391  1.8461
51405SOL     OW64528   1.426   2.178   3.379 -0.3531 -0.0069  0.5749
51405SOL    HW164529   1.522   2.180   3.388 -0.4849  0.1276  2.1403
51405SOL    HW264530   1.412   2.149   3.289  1.1647  0.8414  0.0132
51406SOL     OW64531   9.709   9.287   7.459  0.6187 -0.4802  0.7209
51406SOL    HW164532   9.728   9.225   7.530  0.8679  0.6570  1.6752
51406SOL    HW264533   9.614   9.288   7.453  0.5205  0.4766  2.0393
51407SOL     OW64534  11.520   4.505  11.347 -0.2112 -0.0987 -0.1874
51407SOL    HW164535  11.586   4.522  11.413  0.2329 -0.6173 -0.4944
51407SOL    HW264536  11.507   4.410  11.349 -1.1487  0.0171  0.0606
51408SOL     OW64537  11.151   4.246   3.887 -0.2739 -0.5320  0.3097
51408SOL    HW164538  11.132   4.165   3.934  0.5798 -0.2355  1.2068
51408SOL    HW264539  11.115   4.315   3.941 -0.4537 -0.2638 -0.1446
51409SOL     OW64540  12.552   0.259   1.988 -0.1338 -0.4698 -0.0337
51409SOL    HW164541  12.584   0.275   1.899  1.9267  1.1134  0.8973
51409SOL    HW264542  12.554   0.345   2.030 -2.0799 -0.9971  1.2608
51410SOL     OW64543   9.506   5.319   2.034 -0.4233 -0.0383 -0.0855
51410SOL    HW164544   9.521   5.273   2.116  0.4181 -0.4286 -0.4448
51410SOL    HW264545   9.412   5.337   2.033 -0.5977 -0.8640  0.5258
51411SOL     OW64546   1.428  11.429   1.249 -0.0936  0.5075  0.0911
51411SOL    HW164547   1.446  11.520   1.272 -0.0172  0.3830  0.5295
51411SOL    HW264548   1.422  11.430   1.154 -0.1990  0.9906  0.0968
51412SOL     OW64549  12.302   1.473   0.604  0.0111 -0.0532 -0.2550
51412SOL    HW164550  12.381   1.488   0.553  0.1500  1.8294  0.4598
51412SOL    HW264551  12.279   1.558   0.640 -2.1738 -0.6081 -0.1737
51413SOL     OW64552   7.971   8.499   5.118 -0.6629 -0.4471  0.0801
51413SOL    HW164553   7.982   8.577   5.064 -0.9701 -0.2018  0.3662
51413SOL    HW264554   7.983   8.530   5.207 -0.3313 -0.8178  0.1683
51414SOL     OW64555  11.970   1.838   1.896 -0.3279  0.1151  0.0295
51414SOL    HW164556  11.984   1.749   1.864  2.2957  0.2761  0.4692
51414SOL    HW264557  11.879   1.840   1.925 -0.8279 -2.0009 -1.1969
51415SOL     OW64558   7.140   2.454   2.579  0.7897  0.0274 -0.5083
51415SOL    HW164559   7.167   2.402   2.655  0.9014  0.1428 -0.4687
51415SOL    HW264560   7.059   2.412   2.549 -0.2787  1.0888  0.7999
51416SOL     OW64561  11.824  12.984   0.731 -0.6954  0.0569 -0.0513
51416SOL    HW164562  11.840  12.891   0.747 -0.4682 -0.0539 -0.8644
51416SOL    HW264563  11.906  13.015   0.691 -0.5386  0.7529  0.7723
51417SOL     OW64564   3.255   5.745   0.997 -0.3237 -0.0570 -0.3504
51417SOL    HW164565   3.339   5.766   0.957  0.7199 -0.5663  1.4548
51417SOL    HW264566   3.231   5.823   1.047 -1.7004  0.6414 -1.9794
51418SOL     OW64567   4.757  10.058   6.218  0.5365 -0.0114 -0.4298
51418SOL    HW164568   4.681  10.092   6.170  0.3679 -0.8831 -0.8017
51418SOL    HW264569   4.832  10.102   6.179  0.3277 -0.1305 -0.9711
51419SOL     OW64570   2.211   2.597   6.591  0.3018 -0.1817  0.0138
51419SOL    HW164571   2.172   2.512   6.571  2.3873 -0.8333 -1.7296
51419SOL    HW264572   2.262   2.582   6.671 -0.6423 -0.0867  0.6527
51420SOL     OW64573   4.485   5.381   2.087  0.1111 -0.0777 -0.0522
51420SOL    HW164574   4.466   5.393   2.180  1.4445  1.5755  0.0616
51420SOL    HW264575   4.572   5.419   2.076 -0.4585  0.7178 -2.1983
51421SOL     OW64576  11.752   8.034  12.093  0.4437 -0.0275 -0.2875
51421SOL    HW164577  11.695   8.033  12.170  0.4382  0.1983 -0.2873
51421SOL    HW264578  11.707   8.091  12.031  1.9237  2.4300  0.7002
51422SOL     OW64579   4.420  11.925   3.238  0.4971  0.7334 -0.2757
51422SOL    HW164580   4.460  11.991   3.294  1.7367 -2.0466  2.4134
51422SOL    HW264581   4.482  11.912   3.167  0.6831  1.7512 -0.3120
51423SOL     OW64582  10.985   0.877   0.734 -0.5119  0.5697 -0.3748
51423SOL    HW164583  10.931   0.846   0.807 -0.0437  0.8640  0.1043
51423SOL    HW264584  11.071   0.838   0.750 -0.3733  0.7416 -0.6983
51424SOL     OW64585  12.567  10.882   6.092 -0.6356  0.1742  1.1353
51424SOL    HW164586  12.622  10.837   6.157 -0.6440  0.9878  1.7250
51424SOL    HW264587  12.478  10.873   6.126 -0.6393  0.6129  1.2518
51425SOL     OW64588   3.553  10.573  11.513  0.2970  0.4342 -0.1862
51425SOL    HW164589   3.494  10.648  11.522 -0.4780 -0.2407  0.6211
51425SOL    HW264590   3.544  10.545  11.422 -0.8135  0.2156 -0.0251
51426SOL     OW64591  10.974  10.509  11.998 -0.3654  0.6693  0.3514
51426SOL    HW164592  10.965  10.450  11.923  1.0191 -0.4314  0.9976
51426SOL    HW264593  11.036  10.576  11.968 -2.4764  2.3046 -0.6267
51427SOL     OW64594   3.097   8.076   1.497  0.3523 -0.6373  0.0750
51427SOL    HW164595   3.012   8.121   1.505 -0.4034 -2.2518  1.8889
51427SOL    HW264596   3.141   8.122   1.426 -1.0927  1.7682  0.6057
51428SOL     OW64597   0.816   6.612   4.608 -0.1923 -0.0434 -0.2977
51428SOL    HW164598   0.801   6.518   4.620  0.2706  0.0344  1.0841
51428SOL    HW264599   0.729   6.647   4.586 -1.3204 -0.2549  3.1192
51429SOL     OW64600   4.936   0.407   5.295  0.5371  0.3252  0.2306
51429SOL    HW164601   4.978   0.329   5.260  1.8848  0.6708  1.0209
51429SOL    HW264602   4.882   0.376   5.367  3.5725  0.3743  2.7297
51430SOL     OW64603   4.624  12.696  11.956  0.3545 -0.0286 -0.6079
51430SOL    HW164604   4.658  12.628  12.014  0.8504  1.5826  1.0952
51430SOL    HW264605   4.693  12.707  11.890  1.4316  0.4998  0.5508
51431SOL     OW64606  12.005   7.075   1.950 -0.3622  0.0165  0.3368
51431SOL    HW164607  11.924   7.035   1.919 -0.6154  0.2227  0.7174
51431SOL    HW264608  12.020   7.035   2.036  0.1032 -0.2421  0.1387
51432SOL     OW64609  11.238  12.341  10.007  0.1390 -0.5873  0.2818
51432SOL    HW164610  11.328  12.310  10.016  0.0086 -0.7942  0.9798
51432SOL    HW264611  11.189  12.291  10.073  0.0447  1.5751  1.9682
51433SOL     OW64612  11.802   2.235   2.967 -0.2388  0.2986 -0.8876
51433SOL    HW164613  11.715   2.272   2.971 -0.0380  0.6674  2.0658
51433SOL    HW264614  11.795   2.152   3.014  0.6801 -0.4455 -2.0051
51434SOL     OW64615   3.800   2.103   3.321  0.2476 -0.1973  0.2317
51434SOL    HW164616   3.772   2.176   3.265  1.5194  0.4223  0.3620
51434SOL    HW264617   3.741   2.107   3.396  0.2472  0.6579  0.1985
51435SOL     OW64618  12.434  11.277   2.755 -0.2499 -0.0403  0.3541
51435SOL    HW164619  12.481  11.239   2.681 -0.6668 -0.2037  0.1694
51435SOL    HW264620  12.353  11.311   2.717 -0.7455 -0.6618  0.8237
51436SOL     OW64621  12.190   8.573   8.097  0.1253 -0.4795 -0.1499
51436SOL    HW164622  12.109   8.527   8.118 -0.0897 -0.0549 -0.0418
51436SOL    HW264623  12.255   8.536   8.157  0.3187 -1.7316 -1.0846
51437SOL     OW64624  10.380  11.333   3.162  0.7399 -0.6686 -0.2136
51437SOL    HW164625  10.301  11.361   3.115  0.3486  0.7514  1.1984
51437SOL    HW264626  10.368  11.239   3.175  0.0232 -0.7540 -1.3494
51438SOL     OW64627   4.846  10.322  10.393  0.4872 -0.1774  0.2350
51438SOL    HW164628   4.797  10.404  10.392  2.2260  0.9306 -1.2097
51438SOL    HW264629   4.780  10.254  10.407 -1.2973  1.3009 -0.5997
51439SOL     OW64630   4.135   2.217   5.393 -0.0740 -0.4958 -0.1943
51439SOL    HW164631   4.193   2.161   5.445  1.4261  1.4960  0.4316
51439SOL    HW264632   4.108   2.286   5.454 -3.3904 -1.4421 -0.4044
51440SOL     OW64633   0.934   4.056   1.200 -0.0099  0.2586 -0.8555
51440SOL    HW164634   0.922   4.147   1.172 -1.0898 -0.0326 -1.4458
51440SOL    HW264635   0.853   4.034   1.246  0.7528 -0.0363  0.3923
51441SOL     OW64636  12.391   6.865   0.448  0.8230 -0.5240 -0.5682
51441SOL    HW164637  12.377   6.784   0.497 -0.6441  0.4858  0.7488
51441SOL    HW264638  12.317   6.871   0.388  0.2835  0.4168  0.1714
51442SOL     OW64639   8.667   0.623   2.102 -0.6398  0.1809 -0.0692
51442SOL    HW164640   8.656   0.715   2.127 -0.9110  0.1491 -0.0666
51442SOL    HW264641   8.626   0.575   2.174 -1.5613  0.0892 -0.6473
51443SOL     OW64642  10.849   8.609   3.095  1.1531  0.6609  0.4086
51443SOL    HW164643  10.797   8.621   3.015  0.1959 -0.7260  0.7750
51443SOL    HW264644  10.802   8.657   3.162  2.0259  1.9321  0.1462
51444SOL     OW64645   3.313   6.425   3.413 -0.2323 -0.1790 -0.0186
51444SOL    HW164646   3.223   6.455   3.395  0.4748  1.4128 -1.1406
51444SOL    HW264647   3.334   6.368   3.339 -0.2792 -0.4716  0.1931
51445SOL     OW64648   7.372   1.562   2.467  0.6504  0.7644 -0.0466
51445SOL    HW164649   7.371   1.525   2.556 -3.3677 -0.9283 -0.5616
51445SOL    HW264650   7.342   1.652   2.478  0.8101  0.7706  0.3530
51446SOL     OW64651   6.032   7.304   3.940  0.0149  0.1033 -0.7157
51446SOL    HW164652   6.017   7.306   3.846 -2.2177 -1.4099 -0.4503
51446SOL    HW264653   5.980   7.377   3.974  0.5326  0.4251 -0.5936
51447SOL     OW64654  10.167  10.328   3.762  0.2154 -0.1659  0.1803
51447SOL    HW164655  10.225  10.275   3.707 -0.7886  1.3316 -2.5150
51447SOL    HW264656  10.090  10.273   3.776  0.9513 -0.9933  1.1534
51448SOL     OW64657  10.710  11.484   1.486 -0.6455 -0.2692 -0.0499
51448SOL    HW164658  10.674  11.573   1.492  2.0114  1.1384 -2.6496
51448SOL    HW264659  10.783  11.483   1.547  1.0114  0.3373 -1.9357
51449SOL     OW64660  11.383   9.250   0.315  0.1670  0.1752  0.7056
51449SOL    HW164661  11.386   9.317   0.384  2.2353  1.9562 -0.9844
51449SOL    HW264662  11.315   9.189   0.345 -1.8776  2.9932  2.3621
51450SOL     OW64663   9.469  11.700   6.292 -0.9245 -0.1618 -0.1612
51450SOL    HW164664   9.447  11.621   6.340  0.6965 -0.6888 -0.2265
51450SOL    HW264665   9.436  11.772   6.346 -0.6040 -0.8072  0.9218
51451SOL     OW64666   1.171   2.212   6.201 -0.1869 -0.3195 -0.3449
51451SOL    HW164667   1.188   2.157   6.277 -1.2688  0.6056  0.6032
51451SOL    HW264668   1.255   2.254   6.183 -0.4083  1.3137  1.9070
51452SOL     OW64669   7.423   8.573   9.158 -0.3149 -0.5528  0.1125
51452SOL    HW164670   7.495   8.557   9.098 -0.3152 -1.4500  0.3436
51452SOL    HW264671   7.349   8.595   9.102  0.4707  1.8907 -0.0851
51453SOL     OW64672   4.733   5.539   8.140  0.2303 -0.2393  0.1954
51453SOL    HW164673   4.784   5.459   8.151  0.1865 -0.2775  0.1168
51453SOL    HW264674   4.754   5.570   8.052  0.4569 -0.0163  0.3267
51454SOL     OW64675   0.493  12.400  10.009 -0.2341  0.2456 -0.0888
51454SOL    HW164676   0.454  12.318  10.039 -0.1715 -0.0185 -0.7099
51454SOL    HW264677   0.581  12.400  10.047  0.0356 -0.3416 -0.6951
51455SOL     OW64678  12.403   9.927   7.189 -0.1257 -0.7017 -0.3831
51455SOL    HW164679  12.443   9.940   7.275  0.8384 -1.6135 -0.6693
51455SOL    HW264680  12.376  10.014   7.162 -2.2087 -0.5956  1.6467
51456SOL     OW64681   8.372  11.614   8.916  0.3576  0.0510 -0.2767
51456SOL    HW164682   8.454  11.579   8.881  1.3548  1.0759  0.9582
51456SOL    HW264683   8.381  11.709   8.908  0.3471  0.3034  2.0513
51457SOL     OW64684  11.491  12.720   3.043  0.4103 -0.0972  0.6436
51457SOL    HW164685  11.580  12.738   3.071 -0.2945  1.1434  2.2011
51457SOL    HW264686  11.489  12.625   3.030  2.2430 -0.0137 -0.6136
51458SOL     OW64687  10.666   3.698   5.414  0.4362  0.1443 -0.1851
51458SOL    HW164688  10.697   3.667   5.329  0.5770  0.3063 -0.1932
51458SOL    HW264689  10.614   3.776   5.393 -0.2180 -0.2878 -0.1986
51459SOL     OW64690   0.680   7.618   8.562  0.2750 -0.4427  0.0040
51459SOL    HW164691   0.681   7.566   8.481  0.0664  1.1231 -1.0426
51459SOL    HW264692   0.600   7.591   8.607  0.3253 -1.2376 -0.3699
51460SOL     OW64693   7.392   8.624  10.317  0.1153  0.2105 -0.0706
51460SOL    HW164694   7.386   8.673  10.399 -0.4353  0.4821 -0.2691
51460SOL    HW264695   7.387   8.532  10.344 -1.4125  0.3242  0.1040
51461SOL     OW64696  10.527   7.931   5.865  0.0611  0.4003  0.1013
51461SOL    HW164697  10.458   7.905   5.925  0.8200  0.1376  0.8818
51461SOL    HW264698  10.598   7.961   5.922  2.2619 -3.2605 -0.4134
51462SOL     OW64699   4.790   5.351   0.423  0.3097 -0.5379  0.1318
51462SOL    HW164700   4.702   5.350   0.385 -0.3937 -0.9062  1.7160
51462SOL    HW264701   4.812   5.259   0.434 -0.0198 -0.4521  1.7294
51463SOL     OW64702   3.768   1.405   8.490 -0.2925  0.7253  0.3723
51463SOL    HW164703   3.791   1.316   8.518  2.4809  1.5192  0.9625
51463SOL    HW264704   3.843   1.458   8.517 -1.4228  3.0949 -0.8673
51464SOL     OW64705   6.412  11.999  10.880 -0.8922 -0.4498  0.2557
51464SOL    HW164706   6.317  11.996  10.892 -0.9852 -1.6898 -0.6823
51464SOL    HW264707   6.446  11.928  10.935 -0.3863  0.6294  1.3995
51465SOL     OW64708   4.890  12.926   6.644 -0.4139  0.1039 -0.0674
51465SOL    HW164709   4.807  12.970   6.662  0.2046  1.2979 -0.0409
51465SOL    HW264710   4.867  12.857   6.582 -1.3953  0.5655 -0.2416
51466SOL     OW64711   8.289  10.161  12.329  0.1019  0.1832  0.0908
51466SOL    HW164712   8.320  10.250  12.315  0.5826  0.4350  2.4902
51466SOL    HW264713   8.193  10.169  12.327  0.1410  0.6226 -0.3108
51467SOL     OW64714  10.516   1.558   0.526 -0.1484 -0.1776  0.2165
51467SOL    HW164715  10.609   1.558   0.501  0.0592 -1.6087  0.8853
51467SOL    HW264716  10.501   1.645   0.563  1.0359 -0.0646  0.4701
51468SOL     OW64717   9.761   6.456   8.986 -0.4134  0.3268 -0.1394
51468SOL    HW164718   9.760   6.391   8.915  2.1280 -0.6936  0.6238
51468SOL    HW264719   9.836   6.512   8.966 -0.8884  1.2899  0.6930
51469SOL     OW64720   0.699   7.129  12.489  0.0938  0.3720 -0.2891
51469SOL    HW164721   0.656   7.050  12.456  1.5352 -1.2980  1.5668
51469SOL    HW264722   0.660   7.201  12.439 -1.2934 -1.4954 -2.0304
51470SOL     OW64723  11.342   9.913   4.231  0.2785 -0.4704 -0.3591
51470SOL    HW164724  11.289   9.836   4.254  1.5817 -0.9944  1.0587
51470SOL    HW264725  11.393   9.931   4.310 -0.9797  2.7419 -0.1427
51471SOL     OW64726   3.672  11.252  11.495  0.1254 -0.0123  0.0763
51471SOL    HW164727   3.584  11.234  11.464  0.4240  0.2062 -0.9215
51471SOL    HW264728   3.701  11.328  11.445  0.9047 -0.1214  0.3434
51472SOL     OW64729   4.868   5.391   1.805 -0.5389  0.3329 -0.5570
51472SOL    HW164730   4.886   5.309   1.852 -1.5248 -0.7530 -1.9671
51472SOL    HW264731   4.949   5.411   1.759 -0.1075  0.4884  0.2446
51473SOL     OW64732   4.419   3.793   9.879 -0.1894 -0.2503  0.2765
51473SOL    HW164733   4.365   3.855   9.927  0.9748 -0.1130  1.4536
51473SOL    HW264734   4.506   3.799   9.919  0.4409 -1.2512 -0.8418
51474SOL     OW64735   7.133  11.916   4.059  0.1245 -0.1525  0.1697
51474SOL    HW164736   7.059  11.858   4.074  0.9322 -1.3655 -0.3973
51474SOL    HW264737   7.093  12.001   4.037 -1.0865 -0.7616 -0.0478
51475SOL     OW64738   7.399   1.066   1.482 -0.1506  0.0159 -0.2270
51475SOL    HW164739   7.465   1.026   1.538 -1.4429  0.2106  1.5308
51475SOL    HW264740   7.361   0.993   1.433  0.4380 -0.2845 -0.2390
51476SOL     OW64741   0.716   5.573   3.460  0.1054  0.0231  0.2456
51476SOL    HW164742   0.751   5.486   3.482  0.6714 -0.1409 -1.1719
51476SOL    HW264743   0.668   5.600   3.538 -0.6875 -1.8670  0.4746
51477SOL     OW64744  10.345   2.427   9.980 -0.4545  0.1543 -0.2915
51477SOL    HW164745  10.340   2.331   9.988 -2.0934  0.3316  1.3494
51477SOL    HW264746  10.275   2.459  10.037  2.9022  2.5036  2.9189
51478SOL     OW64747   7.453   0.214   1.360  0.2278 -0.3389 -0.0280
51478SOL    HW164748   7.373   0.182   1.402 -0.6541 -0.1151 -1.4522
51478SOL    HW264749   7.478   0.144   1.300  2.2986 -1.2855  1.8126
51479SOL     OW64750   1.642   5.924   8.028 -0.5862  0.1317  0.2130
51479SOL    HW164751   1.569   5.863   8.020  0.9794 -1.7662 -0.5803
51479SOL    HW264752   1.712   5.872   8.068  1.6402  0.5456 -2.7964
51480SOL     OW64753   6.639  12.737  11.257  0.2365 -0.2042  0.0129
51480SOL    HW164754   6.558  12.728  11.207 -0.5242  1.3309  0.8891
51480SOL    HW264755   6.662  12.830  11.248 -0.3832  0.3525  3.0857
51481SOL     OW64756   1.360   4.507   9.057 -0.1372 -0.3349  0.1087
51481SOL    HW164757   1.374   4.552   9.140  0.0204  0.3819 -0.3071
51481SOL    HW264758   1.358   4.414   9.081  1.4631 -0.2456  0.6996
51482SOL     OW64759  10.288   5.727  10.400 -0.1482  0.0326  0.2804
51482SOL    HW164760  10.227   5.798  10.378 -0.8576 -0.2824  1.1492
51482SOL    HW264761  10.288   5.725  10.496  1.0784 -0.1251  0.2964
51483SOL     OW64762   8.190  10.316   2.872  0.3640  0.2446 -0.5279
51483SOL    HW164763   8.133  10.295   2.798 -0.7213  2.1441 -0.3096
51483SOL    HW264764   8.130  10.327   2.946  1.3136 -0.4579  0.3708
51484SOL     OW64765   4.897   7.044   1.690 -0.6294 -0.4497  0.2516
51484SOL    HW164766   4.819   7.027   1.638  0.3984 -0.9447 -1.1979
51484SOL    HW264767   4.908   7.139   1.687 -1.4872 -0.3057  0.9948
51485SOL     OW64768  12.274   5.568   6.204  0.0140  0.1807 -0.4835
51485SOL    HW164769  12.236   5.555   6.291  0.8567  1.0024  0.0218
51485SOL    HW264770  12.202   5.603   6.151 -0.2842  0.4491  0.0958
51486SOL     OW64771   0.476   4.212  12.526 -0.0203  0.1752 -0.0720
51486SOL    HW164772   0.433   4.212  12.441 -2.1065  1.8023  0.8776
51486SOL    HW264773   0.421   4.156  12.581  1.1849 -0.7012  0.2754
51487SOL     OW64774   0.905   4.557  11.452 -0.5103  0.3664 -0.1545
51487SOL    HW164775   0.890   4.500  11.527 -0.8012 -0.9402 -1.1643
51487SOL    HW264776   0.958   4.629  11.486 -1.5256  0.3819  1.5231
51488SOL     OW64777   2.953   8.357  11.378 -0.1957  0.2177  0.6344
51488SOL    HW164778   2.971   8.434  11.325 -1.3898  0.5017  0.6179
51488SOL    HW264779   2.913   8.294  11.317 -1.3209  0.4437  1.1159
51489SOL     OW64780   6.806   0.333  11.648  0.6632  0.3313  0.1352
51489SOL    HW164781   6.805   0.343  11.553 -1.1732  0.9863  0.1895
51489SOL    HW264782   6.755   0.406  11.681  0.8662 -0.1544  1.6137
51490SOL     OW64783   0.163   7.162  11.592 -0.2245  0.5778 -0.0919
51490SOL    HW164784   0.111   7.083  11.574 -0.3836  0.3909  1.1088
51490SOL    HW264785   0.106   7.234  11.567 -1.0704  0.3725  1.1513
51491SOL     OW64786   4.039   8.935   4.745 -0.8682 -0.0207  0.3041
51491SOL    HW164787   3.978   8.920   4.673  1.9450 -1.9966 -1.9255
51491SOL    HW264788   4.073   9.024   4.730 -1.7453  0.3298  0.3807
51492SOL     OW64789  12.384   9.880   3.986 -0.0366 -0.2717 -0.0267
51492SOL    HW164790  12.321   9.878   3.914 -0.7065  0.5326  0.5258
51492SOL    HW264791  12.367   9.800   4.036 -1.9483  0.8607  1.2193
51493SOL     OW64792   2.119   8.696   2.187 -0.0831 -0.2609 -0.4851
51493SOL    HW164793   2.074   8.700   2.103 -2.1617  0.1174  0.5718
51493SOL    HW264794   2.117   8.603   2.210 -0.7919 -0.2013 -0.2523
51494SOL     OW64795   2.549   0.946   3.325  0.6503  0.5708 -0.5067
51494SOL    HW164796   2.540   0.870   3.267 -1.5618  1.2393 -1.0989
51494SOL    HW264797   2.590   1.013   3.270 -0.5050  0.8702 -1.0354
51495SOL     OW64798   5.499  10.660   9.631  0.2372 -0.1769  0.1478
51495SOL    HW164799   5.452  10.636   9.710 -1.9367 -0.5694 -1.1960
51495SOL    HW264800   5.513  10.755   9.639 -1.0794  0.0032  0.4458
51496SOL     OW64801   2.322  11.730   8.649  0.6778 -0.0391  0.7773
51496SOL    HW164802   2.339  11.777   8.730 -2.3039 -0.3852  1.7428
51496SOL    HW264803   2.286  11.646   8.677 -1.8934  0.4137 -0.7548
51497SOL     OW64804   6.884   1.146   4.467 -0.6671  0.2342  0.2415
51497SOL    HW164805   6.961   1.092   4.449 -1.0631 -0.1089 -0.4368
51497SOL    HW264806   6.920   1.233   4.485  0.0743 -0.4524  2.5212
51498SOL     OW64807   8.591  11.896   6.773  0.8534  0.1941  0.1829
51498SOL    HW164808   8.553  11.814   6.804 -1.4835  1.7383  1.7808
51498SOL    HW264809   8.539  11.920   6.696  0.4163  0.9254  0.6872
51499SOL     OW64810  12.803   3.041   9.895 -0.3066  0.6142  0.1972
51499SOL    HW164811  12.807   3.073   9.805 -0.5138  3.9269  1.2075
51499SOL    HW264812  12.722   2.990   9.899  0.9167 -1.7294 -1.9795
51500SOL     OW64813   6.502  11.601  11.430  0.5949 -0.7796 -0.4076
51500SOL    HW164814   6.485  11.594  11.336 -0.3573  0.3383 -0.3456
51500SOL    HW264815   6.421  11.636  11.467  1.2296 -0.4337  0.7167
51501SOL     OW64816   0.595   4.367   1.349 -0.3606 -0.2828  0.4459
51501SOL    HW164817   0.689   4.383   1.347 -0.3617 -0.2066  1.0650
51501SOL    HW264818   0.563   4.416   1.424 -1.2363  1.4705 -0.9955
51502SOL     OW64819  11.659   6.651   3.918 -0.7633  0.1554 -0.4430
51502SOL    HW164820  11.667   6.576   3.976 -1.4136 -0.9363 -1.7004
51502SOL    HW264821  11.571   6.644   3.882 -0.4288  0.8751 -1.4473
51503SOL     OW64822   3.079  12.125   0.222  0.2675  0.3619 -0.6020
51503SOL    HW164823   3.084  12.030   0.216 -1.2788  0.3313 -2.2585
51503SOL    HW264824   2.990  12.142   0.254  1.2095  1.2492  1.7707
51504SOL     OW64825   7.396  11.162   7.866  0.4737 -0.0327 -0.7100
51504SOL    HW164826   7.445  11.106   7.927 -0.1811  0.9118  0.7615
51504SOL    HW264827   7.374  11.104   7.793 -0.6263 -1.8992  0.9699
51505SOL     OW64828  10.955   5.646   9.734  0.2839 -0.5747  0.0408
51505SOL    HW164829  10.995   5.731   9.716 -0.6073  0.0221  0.7750
51505SOL    HW264830  10.882   5.640   9.673  0.1085 -0.6339  0.2542
51506SOL     OW64831   4.094  12.393   2.416 -0.0451 -0.0683  0.3239
51506SOL    HW164832   4.063  12.385   2.506  0.4858  0.3483  0.5497
51506SOL    HW264833   4.059  12.316   2.372  0.0730 -0.5153  1.0004
51507SOL     OW64834   3.794  12.746   2.396 -0.3092 -0.7131  0.2040
51507SOL    HW164835   3.769  12.809   2.328  0.0003 -2.0131 -1.1681
51507SOL    HW264836   3.881  12.773   2.424 -0.7820  0.3257  0.7081
51508SOL     OW64837  11.549  10.641   9.723  0.6368  0.7430  0.0300
51508SOL    HW164838  11.500  10.565   9.695 -0.5811  0.9051  1.5949
51508SOL    HW264839  11.634  10.632   9.680 -1.1585  1.2722 -4.0721
51509SOL     OW64840   2.850   9.628   2.173 -0.1385 -0.3443  0.2184
51509SOL    HW164841   2.899   9.553   2.206 -2.4563 -2.4586 -0.8843
51509SOL    HW264842   2.902   9.659   2.098  2.1997  0.9532  2.2192
51510SOL     OW64843   9.551   0.093  12.078 -0.3616 -0.1606  0.1902
51510SOL    HW164844   9.503   0.019  12.041 -0.8001  0.4945 -0.6120
51510SOL    HW264845   9.482   0.155  12.104  0.0102  0.9122 -1.2306
51511SOL     OW64846   9.814   3.396  11.531 -0.3279 -0.3332 -0.3476
51511SOL    HW164847   9.864   3.336  11.475 -0.9068 -0.2993 -0.9123
51511SOL    HW264848   9.860   3.394  11.615  0.4295 -0.5508 -0.7584
51512SOL     OW64849   4.847   5.734   9.090 -0.3852 -0.1744 -0.2172
51512SOL    HW164850   4.755   5.718   9.067 -0.6410 -2.5058  1.9555
51512SOL    HW264851   4.848   5.825   9.120 -1.8648  0.0651 -0.7819
51513SOL     OW64852  12.910  11.803   7.717 -0.5066 -0.3051 -0.6965
51513SOL    HW164853  12.821  11.819   7.687 -0.0323  0.4360 -1.7648
51513SOL    HW264854  12.920  11.860   7.794 -0.8791 -0.2303 -0.7024
51514SOL     OW64855  12.515   0.324   8.502 -0.1099  0.0670 -0.0103
51514SOL    HW164856  12.548   0.259   8.563  0.1531  1.3764  1.3116
51514SOL    HW264857  12.433   0.355   8.540 -0.7214 -0.1491 -1.1046
51515SOL     OW64858  10.773   4.419   1.649 -0.3558  0.6314 -0.3602
51515SOL    HW164859  10.713   4.389   1.582 -0.1341  1.0655 -0.7624
51515SOL    HW264860  10.845   4.356   1.648 -1.3200 -0.5565  0.9178
51516SOL     OW64861  12.847  12.826   8.763 -0.1687  0.2021  0.1300
51516SOL    HW164862  12.939  12.845   8.745  0.0493 -1.3399 -0.5728
51516SOL    HW264863  12.834  12.851   8.854  0.9985  0.2705  0.2929
51517SOL     OW64864   6.829   9.595  12.937 -0.2505 -0.1904 -0.0558
51517SOL    HW164865   6.818   9.520  12.879 -1.7737  0.5944 -0.8784
51517SOL    HW264866   6.919   9.589  12.968 -0.6728 -3.0170  0.9011
51518SOL     OW64867   1.286   1.586   8.431 -0.0116 -0.6458  0.0487
51518SOL    HW164868   1.354   1.567   8.366  0.4165 -2.6264  0.9977
51518SOL    HW264869   1.322   1.553   8.513 -1.9226 -1.3448  0.6630
51519SOL     OW64870   1.255   6.473   5.955  0.3046 -0.2613 -0.0347
51519SOL    HW164871   1.249   6.415   5.879 -0.1492 -0.1308 -0.1036
51519SOL    HW264872   1.234   6.417   6.030 -1.7035  0.1369 -0.2511
51520SOL     OW64873  12.460   4.690  12.873  0.1510  0.4383 -0.0490
51520SOL    HW164874  12.410   4.763  12.910 -0.7888 -0.4389  0.4826
51520SOL    HW264875  12.520   4.664  12.943 -0.9462 -0.5891  0.5558
51521SOL     OW64876  10.273   6.707   4.312  0.4626  0.1614  0.3749
51521SOL    HW164877  10.299   6.799   4.312 -3.0310  1.2995 -1.0839
51521SOL    HW264878  10.227   6.695   4.396  0.4567 -0.1047  0.3347
51522SOL     OW64879   2.168   2.164   8.609  0.0150 -0.2442  0.9636
51522SOL    HW164880   2.263   2.152   8.610  0.0465 -0.6376 -1.1169
51522SOL    HW264881   2.153   2.242   8.661  1.4126 -0.5287  1.8432
51523SOL     OW64882  11.747   7.484   0.359  0.0566  0.1987 -0.3900
51523SOL    HW164883  11.755   7.406   0.414  0.7724 -0.0366 -0.8254
51523SOL    HW264884  11.697   7.546   0.414 -1.1287 -0.7857 -0.2992
51524SOL     OW64885   5.481   6.536  12.152 -0.4532  0.4914 -0.2190
51524SOL    HW164886   5.505   6.581  12.233 -0.5372  1.5447 -0.7673
51524SOL    HW264887   5.450   6.450  12.181 -0.2157  0.7470  0.8399
51525SOL     OW64888  11.303  10.119   0.708 -0.1408 -0.3650  0.0583
51525SOL    HW164889  11.279  10.207   0.679  1.7548 -0.1725 -1.1435
51525SOL    HW264890  11.395  10.110   0.683  0.9451 -1.2345  3.7151
51526SOL     OW64891   8.118   6.820   6.491 -0.2355  1.0034  0.2629
51526SOL    HW164892   8.036   6.780   6.519 -0.3260  1.8715  1.2390
51526SOL    HW264893   8.162   6.846   6.571  0.6428  1.2696 -0.2841
51527SOL     OW64894   8.735   8.007  10.363 -0.3551  0.0055 -0.7339
51527SOL    HW164895   8.729   7.977  10.273 -0.4029 -0.9254 -0.4253
51527SOL    HW264896   8.811   7.961  10.399 -0.8708 -0.3210 -0.0366
51528SOL     OW64897  11.860   4.947   1.785 -0.2374  0.5284 -0.2079
51528SOL    HW164898  11.766   4.963   1.788 -0.4152 -0.4989  0.6386
51528SOL    HW264899  11.888   4.951   1.877  0.4222  0.2092 -0.3846
51529SOL     OW64900   0.937  10.759   2.554 -0.3932 -0.0946  0.4458
51529SOL    HW164901   0.877  10.806   2.611  1.1791  0.3279  1.8275
51529SOL    HW264902   0.995  10.711   2.613  1.0312  0.0164 -0.7763
51530SOL     OW64903   1.932  10.771   0.421 -0.9415  0.0670 -0.0908
51530SOL    HW164904   1.860  10.788   0.482 -1.3211  0.1132 -0.5518
51530SOL    HW264905   1.892  10.721   0.350 -0.6436  0.6016 -0.6402
51531SOL     OW64906   4.362   8.022   7.111  0.8497  0.2516  0.7518
51531SOL    HW164907   4.377   8.095   7.171 -0.6142  1.3370 -0.1392
51531SOL    HW264908   4.280   8.043   7.067  0.9251 -1.4336 -0.2998
51532SOL     OW64909   4.829   5.225   4.111 -0.2366 -0.6506  0.2450
51532SOL    HW164910   4.734   5.231   4.118 -0.2508 -0.0026 -0.4118
51532SOL    HW264911   4.853   5.292   4.047  0.5764 -1.4095 -0.2668
51533SOL     OW64912   1.743   2.460   3.797 -0.3330 -0.2767 -0.1848
51533SOL    HW164913   1.779   2.497   3.877  1.9029 -0.4544 -1.0447
51533SOL    HW264914   1.648   2.457   3.812 -0.3410  2.9917  1.0455
51534SOL     OW64915   1.662   1.421   3.534 -0.4911  0.2540 -0.1454
51534SOL    HW164916   1.715   1.501   3.534  1.2392 -0.8260  0.0379
51534SOL    HW264917   1.580   1.446   3.492  0.6660  1.7100 -1.6854
51535SOL     OW64918   3.728  11.792   2.856  0.0155 -0.5175 -0.3670
51535SOL    HW164919   3.820  11.772   2.843  0.4178  1.4033 -0.7918
51535SOL    HW264920   3.722  11.887   2.843 -1.6172 -0.2265  1.9724
51536SOL     OW64921   5.865   6.680   2.977 -0.7283 -0.0840 -0.0614
51536SOL    HW164922   5.853   6.606   2.917  1.8996  0.7496 -1.7694
51536SOL    HW264923   5.778   6.719   2.982 -1.4640 -1.3018 -1.8516
51537SOL     OW64924   0.295  11.032   3.862 -0.0464 -0.2816  0.2819
51537SOL    HW164925   0.253  11.104   3.815  1.5580 -0.4810 -1.5784
51537SOL    HW264926   0.245  10.955   3.837 -0.5892 -0.0774  0.7312
51538SOL     OW64927   1.420  11.744  12.635 -0.2970 -0.0934 -0.8010
51538SOL    HW164928   1.368  11.769  12.559 -0.2658 -0.3445 -0.9072
51538SOL    HW264929   1.362  11.689  12.687 -1.2346  2.1568  0.6973
51539SOL     OW64930  11.378   3.718   9.586  0.0432  0.3163  0.0244
51539SOL    HW164931  11.299   3.699   9.535  0.4615  1.1323 -0.9711
51539SOL    HW264932  11.392   3.641   9.640 -1.0693 -0.0990 -0.2707
51540SOL     OW64933   7.168   5.115   4.846  0.9189  0.7733  0.0458
51540SOL    HW164934   7.217   5.034   4.829 -1.0625 -0.7326  1.0306
51540SOL    HW264935   7.152   5.151   4.759  1.9995  0.2312 -0.4076
51541SOL     OW64936  10.223  11.867   4.937  0.1846  0.0570  0.7674
51541SOL    HW164937  10.287  11.880   5.006 -0.2979 -0.2402  1.2810
51541SOL    HW264938  10.219  11.772   4.925 -1.1575 -0.0405  1.7293
51542SOL     OW64939   1.746   4.365   4.928 -0.4476  0.0376 -0.1374
51542SOL    HW164940   1.770   4.340   5.017  0.9445  1.0277 -0.1901
51542SOL    HW264941   1.731   4.282   4.882 -1.4709 -0.4719  1.0706
51543SOL     OW64942   3.670   6.099  10.162 -0.2170  0.7521  0.3986
51543SOL    HW164943   3.735   6.124  10.227  0.4257 -1.1793  0.5725
51543SOL    HW264944   3.688   6.006  10.144 -1.4239  0.7891 -1.3108
51544SOL     OW64945   3.332   2.855   2.771 -0.0089  0.1213 -0.1880
51544SOL    HW164946   3.250   2.806   2.763 -1.0044  1.2821  2.1597
51544SOL    HW264947   3.337   2.907   2.691 -1.6792  0.1865 -0.2787
51545SOL     OW64948  12.244   0.171  10.574  0.3186  0.0415 -0.1144
51545SOL    HW164949  12.160   0.199  10.537 -0.9507 -0.3251  2.2452
51545SOL    HW264950  12.244   0.076  10.562  0.6868  0.1086 -0.6524
51546SOL     OW64951   1.402  11.053   4.090 -0.6742  0.3366 -0.3008
51546SOL    HW164952   1.367  10.981   4.143 -1.4146  0.6772 -0.3093
51546SOL    HW264953   1.432  11.117   4.154 -1.1155  0.5327 -0.2831
51547SOL     OW64954   0.196  11.412   0.749  0.6349 -0.2101 -0.5314
51547SOL    HW164955   0.192  11.415   0.653 -0.4604 -0.2354 -0.5002
51547SOL    HW264956   0.266  11.349   0.768  1.3786  0.3524 -1.3003
51548SOL     OW64957   8.447   2.164   3.943  0.4659 -0.7211  0.0947
51548SOL    HW164958   8.390   2.193   4.014  0.9566  0.7857 -0.0975
51548SOL    HW264959   8.492   2.087   3.978 -2.3794 -2.6336 -0.0988
51549SOL     OW64960   0.802  11.815   4.080  0.3771 -0.2407  0.2214
51549SOL    HW164961   0.747  11.792   4.155 -1.3108  0.8327 -0.6144
51549SOL    HW264962   0.797  11.910   4.076  1.4503 -0.2057 -0.5331
51550SOL     OW64963  11.021   0.261   9.409  0.2226  0.0348  0.6304
51550SOL    HW164964  11.067   0.251   9.326  1.1809 -1.4965  1.2807
51550SOL    HW264965  10.955   0.191   9.409 -0.0091  0.2489  0.9988
51551SOL     OW64966   9.175   6.116   9.156 -0.4230 -0.2032  0.1442
51551SOL    HW164967   9.111   6.184   9.178 -1.8711 -0.4377 -2.7926
51551SOL    HW264968   9.121   6.039   9.137  0.9336 -1.1315 -0.0255
51552SOL     OW64969  10.964   6.757   5.963  0.7456 -0.3806 -0.4000
51552SOL    HW164970  11.046   6.709   5.966  0.8495 -0.2906 -1.3411
51552SOL    HW264971  10.955   6.783   5.871 -1.1076 -1.7498 -0.6650
51553SOL     OW64972   9.044   1.485   3.920 -0.4873 -0.0778 -0.0500
51553SOL    HW164973   9.128   1.521   3.892  0.1125 -0.7916  0.7868
51553SOL    HW264974   8.979   1.549   3.889  0.3881  0.6997 -0.3206
51554SOL     OW64975   5.365  10.193   8.570  0.4436  0.1539  0.3165
51554SOL    HW164976   5.272  10.172   8.576  0.2229  0.9420 -0.2660
51554SOL    HW264977   5.402  10.164   8.654 -0.2820 -0.3527  0.4653
51555SOL     OW64978   4.316   4.316   7.040 -0.2068  0.5687 -0.2472
51555SOL    HW164979   4.411   4.321   7.030 -0.1178 -1.8135 -1.3439
51555SOL    HW264980   4.282   4.317   6.950 -1.0119 -0.7812  0.0049
51556SOL     OW64981   6.092  10.097  10.507  0.5238 -0.4625 -0.7961
51556SOL    HW164982   6.083  10.020  10.564 -0.2813 -0.8280 -1.4011
51556SOL    HW264983   6.032  10.161  10.545 -0.8604 -1.0957 -1.8526
51557SOL     OW64984   8.315  11.648  12.321 -0.8390  0.1368  0.6506
51557SOL    HW164985   8.296  11.639  12.415  0.0622 -1.1212  0.7342
51557SOL    HW264986   8.406  11.623  12.313 -0.8194  0.5417 -0.5390
51558SOL     OW64987   2.736   6.916   0.235  0.2782  0.1836  0.0221
51558SOL    HW164988   2.756   6.896   0.327  0.5976  0.2369 -0.0325
51558SOL    HW264989   2.749   6.833   0.189 -1.5777 -0.2742  0.2785
51559SOL     OW64990   2.454   8.737  12.638 -0.0255  0.1251  0.3685
51559SOL    HW164991   2.496   8.655  12.667  1.2481  0.7306  0.3025
51559SOL    HW264992   2.362   8.713  12.625  0.2937 -1.2701  0.4733
51560SOL     OW64993   4.207  12.282   0.132 -0.2096 -0.0776  0.4829
51560SOL    HW164994   4.216  12.195   0.172  0.3943  0.6299  1.9827
51560SOL    HW264995   4.115  12.305   0.146 -0.9099 -1.2818 -1.7551
51561SOL     OW64996  10.849  10.427   2.461 -0.1250  0.4391  0.0810
51561SOL    HW164997  10.912  10.457   2.395 -1.7209  0.1355 -1.6959
51561SOL    HW264998  10.842  10.333   2.445  0.3827  0.1332  1.5655
51562SOL     OW64999   7.378  11.929   0.668  0.4665  0.2654 -0.5878
51562SOL    HW165000   7.305  11.934   0.606  0.3064  0.6972 -0.3642
51562SOL    HW265001   7.452  11.967   0.620  0.5591 -0.2018 -0.8261
51563SOL     OW65002   0.865   2.460   8.264  0.1190 -0.2099 -0.1771
51563SOL    HW165003   0.845   2.528   8.329  0.5655  1.4440 -1.6938
51563SOL    HW265004   0.939   2.412   8.302  0.2104  0.5492  0.6496
51564SOL     OW65005   2.068  11.402   4.428  0.2847  0.4605  0.2683
51564SOL    HW165006   2.068  11.396   4.524  1.2251 -2.2768  0.1932
51564SOL    HW265007   2.160  11.408   4.404  0.1124  0.2488 -0.4789
51565SOL     OW65008   7.894   9.560   6.576 -0.1362 -0.2236 -0.0654
51565SOL    HW165009   7.936   9.506   6.643  1.3613 -0.0534 -0.8376
51565SOL    HW265010   7.909   9.514   6.494 -0.6296  0.3470 -0.4895
51566SOL     OW65011   4.460  10.535  11.881 -0.4737  0.2603  0.1319
51566SOL    HW165012   4.399  10.484  11.934 -1.1601  0.5578 -0.3489
51566SOL    HW265013   4.435  10.626  11.897  2.0313  0.6417  2.5618
51567SOL     OW65014  12.567   9.732  10.675 -0.5819  0.3748  0.5263
51567SOL    HW165015  12.612   9.653  10.644  0.2785  0.9720  0.2245
51567SOL    HW265016  12.627   9.771  10.739 -0.7584  1.0740  0.2774
51568SOL     OW65017   2.656   5.833   0.457 -0.9137 -0.2723 -0.1206
51568SOL    HW165018   2.580   5.801   0.409 -1.5488  0.3736  0.4264
51568SOL    HW265019   2.716   5.758   0.461 -0.9480 -0.4133 -1.6764
51569SOL     OW65020  11.858   8.238  10.050 -0.1375 -0.2896 -0.0230
51569SOL    HW165021  11.795   8.274   9.987 -0.4781  0.0544  0.5025
51569SOL    HW265022  11.804   8.209  10.123  0.3108 -0.0584  0.4047
51570SOL     OW65023   3.199   8.661   5.683  0.0131 -0.1064  0.1518
51570SOL    HW165024   3.184   8.678   5.776 -0.8323 -1.4175  0.2787
51570SOL    HW265025   3.193   8.566   5.674  0.8247 -0.0631 -1.1235
51571SOL     OW65026   8.925  10.408  11.647 -0.2467  0.0222 -0.6070
51571SOL    HW165027   8.986  10.424  11.575 -0.8761 -0.0487 -1.1612
51571SOL    HW265028   8.944  10.479  11.709  1.9629 -1.2722  0.3233
51572SOL     OW65029  10.897   2.567   8.518 -0.0524  0.4802  0.0940
51572SOL    HW165030  10.880   2.658   8.492 -0.9269  0.8740  1.9067
51572SOL    HW265031  10.957   2.573   8.591  1.1850 -0.5219 -0.7988
51573SOL     OW65032  12.442   8.135   3.934 -0.2277  0.3308 -0.8005
51573SOL    HW165033  12.501   8.186   3.877 -1.3754  1.6701 -0.8437
51573SOL    HW265034  12.490   8.127   4.016 -0.1009  1.7534 -0.7012
51574SOL     OW65035  11.243   4.739   2.576 -0.3069  0.2842  0.1318
51574SOL    HW165036  11.248   4.686   2.655 -1.1738  0.1016  0.0732
51574SOL    HW265037  11.220   4.677   2.507  0.3061  0.4654 -0.2467
51575SOL     OW65038   7.161  12.019  12.414  0.4274  0.2736  0.7239
51575SOL    HW165039   7.070  12.046  12.423 -0.0667 -1.1447  0.3254
51575SOL    HW265040   7.204  12.091  12.369 -0.7509  0.5290 -0.0270
51576SOL     OW65041   6.440   3.317   6.458  0.3092 -0.2631  0.0135
51576SOL    HW165042   6.490   3.290   6.381 -0.6878  0.1096 -0.7876
51576SOL    HW265043   6.355   3.344   6.423  0.0692  0.5578  1.1793
51577SOL     OW65044   5.010   0.957  12.815  0.1276  0.0928 -0.1854
51577SOL    HW165045   4.969   1.015  12.752 -0.8999 -0.6773 -0.2604
51577SOL    HW265046   5.093   0.999  12.838  0.6925  0.2083 -2.3072
51578SOL     OW65047  11.793   3.089  10.169  0.2909 -0.0548 -0.5325
51578SOL    HW165048  11.732   3.157  10.139  0.0782 -0.6627 -1.5116
51578SOL    HW265049  11.760   3.009  10.130  1.1424 -0.5637 -0.2251
51579SOL     OW65050   3.859  10.401   2.368  0.3600 -0.4058 -0.0041
51579SOL    HW165051   3.910  10.401   2.287  0.5037 -2.4704  0.0225
51579SOL    HW265052   3.924  10.397   2.438  0.2897  2.7194  0.3507
51580SOL     OW65053   0.775   2.022   4.730  0.5878 -0.0709  0.2144
51580SOL    HW165054   0.868   2.044   4.740  0.3598  0.8138  0.5160
51580SOL    HW265055   0.733   2.105   4.707 -0.2768 -0.2342  1.1348
51581SOL     OW65056   8.666  10.879   0.050 -0.1272 -0.2869  0.7889
51581SOL    HW165057   8.581  10.919   0.068 -0.9924 -1.2992 -0.8294
51581SOL    HW265058   8.645  10.792   0.017  1.5501 -0.5524  0.3373
51582SOL     OW65059   9.153  11.899   2.599  0.2310 -0.3257 -0.3566
51582SOL    HW165060   9.158  11.930   2.689 -0.1168 -0.6867 -0.2105
51582SOL    HW265061   9.218  11.951   2.552  0.7829 -0.5063  0.2007
51583SOL     OW65062  11.318   1.802  11.910  0.4371  0.4991 -0.1013
51583SOL    HW165063  11.344   1.883  11.955  1.7087 -0.8161  1.6941
51583SOL    HW265064  11.226   1.791  11.932  0.2251  1.5023 -0.4470
51584SOL     OW65065   9.171   9.160  11.876  0.1353 -0.0275  0.1531
51584SOL    HW165066   9.237   9.109  11.829 -1.6533 -2.0881 -0.2281
51584SOL    HW265067   9.117   9.199  11.807  1.0524  1.9164  0.4561
51585SOL     OW65068  12.884   2.585   7.444  0.2741  0.4057  0.2821
51585SOL    HW165069  12.883   2.501   7.399 -1.0442  0.0965  0.8379
51585SOL    HW265070  12.967   2.625   7.419  0.8767 -1.0183 -0.0594
51586SOL     OW65071  11.935   4.187   7.062 -0.7098  0.3330 -0.1084
51586SOL    HW165072  11.891   4.196   6.978  0.7704  1.0452 -0.8440
51586SOL    HW265073  11.957   4.094   7.068 -0.0664  0.4156 -0.9375
51587SOL     OW65074   0.028  10.265  12.378 -0.2973 -0.4725  0.0650
51587SOL    HW165075  -0.045  10.314  12.339  0.4181  1.1951  0.7324
51587SOL    HW265076   0.017  10.176  12.345 -1.7249  0.0899 -1.1067
51588SOL     OW65077   9.493   4.136   2.361 -0.0357 -0.0074 -0.4434
51588SOL    HW165078   9.495   4.224   2.324  1.8836 -0.0284 -0.4928
51588SOL    HW265079   9.531   4.080   2.293  1.4307 -0.3940  0.6458
51589SOL     OW65080   5.796   7.199  11.247 -0.2117  0.3763 -0.5122
51589SOL    HW165081   5.827   7.260  11.180  0.1976 -0.2872 -0.9372
51589SOL    HW265082   5.722   7.245  11.288  0.2814  1.2857 -0.6033
51590SOL     OW65083   8.219   0.160   6.172  0.7026 -0.0375 -0.3446
51590SOL    HW165084   8.288   0.095   6.185  0.1316 -0.7202 -0.6832
51590SOL    HW265085   8.234   0.224   6.241  1.3943 -0.4264 -0.1249
51591SOL     OW65086   4.724   7.110   1.017 -0.0950  0.1772 -0.0721
51591SOL    HW165087   4.669   7.086   1.092 -0.1727  0.0799 -0.1610
51591SOL    HW265088   4.687   7.062   0.943  0.7829 -0.7795  0.0835
51592SOL     OW65089   5.868  12.394   4.454 -0.0839  0.3832 -0.1032
51592SOL    HW165090   5.904  12.311   4.423  2.2987  0.3478  2.4368
51592SOL    HW265091   5.790  12.408   4.400  2.3244 -0.7672 -4.3361
51593SOL     OW65092   7.337   3.917   1.974  0.5436  0.2987 -0.4229
51593SOL    HW165093   7.427   3.930   2.003  0.1825  2.5837 -0.1514
51593SOL    HW265094   7.324   3.983   1.905 -0.1468 -1.7241 -2.3717
51594SOL     OW65095   7.715   2.074   2.047  0.2595  0.2212 -0.1682
51594SOL    HW165096   7.703   2.164   2.018 -0.4226  0.0613 -0.3902
51594SOL    HW265097   7.654   2.063   2.120  0.7055  0.0880  0.1923
51595SOL     OW65098  11.736  10.413  10.308 -0.2685 -0.0769 -0.2854
51595SOL    HW165099  11.658  10.440  10.260 -0.7729 -2.3854 -0.9145
51595SOL    HW265100  11.766  10.334  10.263  1.4027 -0.2526  1.0094
51596SOL     OW65101   0.189  11.220   3.696  0.6439 -0.2836  0.1044
51596SOL    HW165102   0.134  11.189   3.624  0.4343 -0.4868  0.3513
51596SOL    HW265103   0.196  11.315   3.681 -0.1352 -0.1905  0.3158
51597SOL     OW65104   5.528  10.880   3.369  0.3027  0.0357  0.1189
51597SOL    HW165105   5.532  10.948   3.437  1.2331 -0.5015  0.6254
51597SOL    HW265106   5.483  10.922   3.296  0.3905  1.0232  0.6086
51598SOL     OW65107   3.785  12.674   8.638 -0.1767 -0.1316 -0.2808
51598SOL    HW165108   3.791  12.651   8.731 -1.5326  0.2103 -0.0916
51598SOL    HW265109   3.816  12.596   8.592  1.7517  0.1480  0.4494
51599SOL     OW65110   2.381   7.850  10.102  1.2859  0.1782  0.0684
51599SOL    HW165111   2.365   7.943  10.087 -1.0743 -0.0497  0.8255
51599SOL    HW265112   2.375   7.810  10.015  0.3719  0.4939 -0.0174
51600SOL     OW65113   3.465   7.824   3.409 -0.1018  0.0072 -0.6005
51600SOL    HW165114   3.556   7.820   3.437 -0.2731 -1.6448 -0.2104
51600SOL    HW265115   3.454   7.749   3.351 -0.9994  0.6950 -1.3631
51601SOL     OW65116   1.214   5.842  11.024 -0.0168  0.4906  0.5464
51601SOL    HW165117   1.161   5.920  11.040 -0.2274 -0.0702  3.0442
51601SOL    HW265118   1.299   5.863  11.062  0.7366  0.3861 -1.0173
51602SOL     OW65119   0.090   5.130  12.959  0.4190 -0.1903 -0.5658
51602SOL    HW165120   0.117   5.188  13.031  0.5050  0.5959 -1.2175
51602SOL    HW265121   0.169   5.080  12.938  0.0479 -1.3930  0.7591
51603SOL     OW65122  10.742  12.348   3.600  0.4709 -0.1455 -0.1591
51603SOL    HW165123  10.711  12.438   3.591 -0.3729 -0.3882  0.2092
51603SOL    HW265124  10.744  12.314   3.511 -0.5268 -0.1801 -0.1797
51604SOL     OW65125  11.462   2.995   2.713 -0.4214 -0.2171  0.0204
51604SOL    HW165126  11.512   2.941   2.775  0.7112  0.1258 -0.5667
51604SOL    HW265127  11.516   2.996   2.634 -1.3686  0.1843 -0.6398
51605SOL     OW65128   7.658   5.624  10.387  0.0981  0.7996 -0.4499
51605SOL    HW165129   7.594   5.692  10.363  1.1868  1.2263 -2.4235
51605SOL    HW265130   7.674   5.638  10.480 -1.4445  1.7365 -0.2853
51606SOL     OW65131  11.668   9.338   8.623 -0.1322  0.5271  0.3346
51606SOL    HW165132  11.734   9.270   8.635 -0.8549 -0.5927 -1.6189
51606SOL    HW265133  11.594   9.293   8.582 -0.9787  2.3271 -0.2266
51607SOL     OW65134   9.713   9.679   6.034 -0.2268 -0.2688  0.0861
51607SOL    HW165135   9.666   9.759   6.057  0.3724  0.5498 -1.3336
51607SOL    HW265136   9.799   9.710   6.004  0.3022 -1.5186  0.2223
51608SOL     OW65137   2.540   3.490   2.152  0.1270  0.1246  0.1609
51608SOL    HW165138   2.633   3.470   2.144 -0.0265  0.0117 -1.7263
51608SOL    HW265139   2.498   3.405   2.164  0.2115  0.1248  0.4669
51609SOL     OW65140   3.309  10.606  11.108 -0.3758  0.0258  0.3520
51609SOL    HW165141   3.281  10.603  11.200 -0.3279 -1.0043  0.3481
51609SOL    HW265142   3.233  10.575  11.059 -0.7955  1.6548 -0.0765
51610SOL     OW65143   4.502   4.746   0.196  0.0431  0.1640 -0.3950
51610SOL    HW165144   4.499   4.682   0.125  1.4427 -0.8495  0.4046
51610SOL    HW265145   4.481   4.695   0.275 -0.4907  1.0508  0.0479
51611SOL     OW65146   3.456   8.653   5.958 -0.3180 -0.5123  0.5657
51611SOL    HW165147   3.392   8.720   5.982  0.6937  0.4006  0.8369
51611SOL    HW265148   3.539   8.686   5.994  0.5657 -0.9628 -0.9474
51612SOL     OW65149   6.951  10.868  11.340 -0.2337  0.0895 -0.0942
51612SOL    HW165150   6.943  10.912  11.255 -0.1015 -0.2242 -0.2736
51612SOL    HW265151   7.045  10.863  11.356 -0.2836  1.1651  0.6209
51613SOL     OW65152  11.389   8.899  12.610 -0.2735  0.8773  0.1720
51613SOL    HW165153  11.400   8.982  12.564 -1.4332  0.9287 -0.0418
51613SOL    HW265154  11.437   8.835  12.557 -0.4505  1.1761 -0.3545
51614SOL     OW65155  12.147  10.318   4.918  0.2253 -0.2430  0.7902
51614SOL    HW165156  12.168  10.407   4.890  0.8175  0.4086  3.0846
51614SOL    HW265157  12.054  10.321   4.940 -0.0957 -0.5940 -0.4723
51615SOL     OW65158   7.204   2.111   0.080  0.2532 -0.7002 -0.2994
51615SOL    HW165159   7.178   2.045   0.143  1.5930 -0.9774 -0.0063
51615SOL    HW265160   7.135   2.110   0.014 -1.9751  0.6566  1.8665
51616SOL     OW65161   7.645   3.947   3.528  0.2105 -0.2028 -0.2813
51616SOL    HW165162   7.739   3.928   3.526  0.3287  0.2409 -3.2085
51616SOL    HW265163   7.641   4.043   3.530 -0.1554 -0.1966 -1.1223
51617SOL     OW65164   6.339   4.188   2.274  0.1231  0.9745 -0.0565
51617SOL    HW165165   6.317   4.276   2.241 -0.1302  0.2504 -1.9310
51617SOL    HW265166   6.259   4.137   2.260  0.4711  0.2791  0.4575
51618SOL     OW65167  11.592   2.582   3.368 -0.3529  0.1620  0.1824
51618SOL    HW165168  11.509   2.590   3.321 -0.6071  0.8916  0.7382
51618SOL    HW265169  11.598   2.662   3.420  1.1640  0.6016 -0.5905
51619SOL     OW65170   7.986   2.986   1.822 -0.0545 -0.5372  0.0491
51619SOL    HW165171   7.990   3.009   1.915  5.4104  1.5813 -0.3586
51619SOL    HW265172   8.058   2.924   1.809 -2.2896 -2.8792 -2.4884
51620SOL     OW65173   8.111   2.609   2.685 -0.6455  0.0294 -0.2906
51620SOL    HW165174   8.070   2.526   2.711  0.3497 -0.5690 -0.5873
51620SOL    HW265175   8.072   2.674   2.743  0.4784 -1.0483  1.7745
51621SOL     OW65176   7.522   8.063  12.364 -0.2753  0.1645 -0.0741
51621SOL    HW165177   7.519   8.089  12.456  1.6068  2.2277 -0.5100
51621SOL    HW265178   7.438   8.094  12.329  0.2762  2.2667  0.3169
51622SOL     OW65179   6.447  10.308  11.524 -0.0019  0.3066  0.4981
51622SOL    HW165180   6.397  10.373  11.475  0.1149  1.5073  1.8679
51622SOL    HW265181   6.532  10.350  11.538  1.1641 -1.3841 -1.1380
51623SOL     OW65182   5.458   9.072   5.005 -0.0864  0.1431 -0.5986
51623SOL    HW165183   5.407   9.019   5.066  0.9646 -1.0164 -0.6846
51623SOL    HW265184   5.437   9.162   5.028 -0.1785 -0.2745  1.0876
51624SOL     OW65185   0.389   0.912   8.681 -0.3280  0.0926 -0.3391
51624SOL    HW165186   0.448   0.981   8.652 -0.2565 -0.2216 -0.9434
51624SOL    HW265187   0.372   0.860   8.603 -0.4252 -0.5434  0.1009
51625SOL     OW65188   4.289   4.444   6.767  0.1901 -0.2999 -0.2472
51625SOL    HW165189   4.300   4.519   6.824  1.0288 -0.5632 -0.0533
51625SOL    HW265190   4.194   4.431   6.763  0.0250  0.9164 -0.5004
51626SOL     OW65191   0.400   1.973   3.434 -0.1065  0.2054 -0.5784
51626SOL    HW165192   0.340   1.924   3.377  0.7714  0.0894 -1.4247
51626SOL    HW265193   0.439   2.039   3.377  0.8148  0.0679 -0.1266
51627SOL     OW65194  10.976  10.006  11.086  0.1818  0.0707 -0.2480
51627SOL    HW165195  11.009  10.082  11.134  0.5178  0.9381 -1.7488
51627SOL    HW265196  10.958   9.940  11.152 -1.6779  1.9994  1.3250
51628SOL     OW65197   9.807   0.838  11.533 -0.2137 -0.3243  0.0679
51628SOL    HW165198   9.841   0.753  11.560  1.1175 -0.5928 -2.1965
51628SOL    HW265199   9.813   0.893  11.611  1.2734 -1.6295  0.9094
51629SOL     OW65200   6.330   3.055   5.809 -0.1825  0.7316 -0.2497
51629SOL    HW165201   6.405   2.997   5.800 -0.0182  0.9420 -0.2391
51629SOL    HW265202   6.358   3.138   5.770 -0.2590  0.9438  0.1388
51630SOL     OW65203   2.580   7.989   0.736 -0.2118  0.2314  0.4408
51630SOL    HW165204   2.529   8.041   0.674  1.2016  0.6097 -0.4653
51630SOL    HW265205   2.529   7.989   0.816 -1.3401  1.0750 -0.2554
51631SOL     OW65206   9.187   0.250   0.104  0.1899 -0.2036  0.1818
51631SOL    HW165207   9.235   0.317   0.056  1.7321 -2.9958 -2.5378
51631SOL    HW265208   9.097   0.256   0.069 -0.1594  1.4958  1.2736
51632SOL     OW65209   0.411   4.484   2.034  0.1327  0.0089 -0.0549
51632SOL    HW165210   0.334   4.427   2.038  0.0942  0.0223 -0.5021
51632SOL    HW265211   0.477   4.438   2.085  0.0448 -0.3544 -0.2596
51633SOL     OW65212   2.981   1.129  12.012 -0.3239  0.2076  0.2218
51633SOL    HW165213   2.979   1.218  11.977  1.5857  0.8083  1.5167
51633SOL    HW265214   2.944   1.137  12.100  0.1514 -0.2026  0.4651
51634SOL     OW65215   4.500   4.080   3.802  0.4053  0.3792  0.1172
51634SOL    HW165216   4.408   4.057   3.786  0.1503  0.0941  1.8264
51634SOL    HW265217   4.503   4.175   3.786 -0.3716  0.5241  0.7434
51635SOL     OW65218   3.041  12.332   4.074  0.5805  0.5728  0.0670
51635SOL    HW165219   2.970  12.377   4.028 -0.0642 -0.4236  0.0640
51635SOL    HW265220   3.025  12.351   4.167 -0.1165 -0.2228  0.1227
51636SOL     OW65221  12.136   6.269   6.251  0.2159 -0.7038  0.3823
51636SOL    HW165222  12.042   6.252   6.244  0.4447 -1.5373 -1.0804
51636SOL    HW265223  12.154   6.332   6.181  0.4368  1.0061  1.9138
51637SOL     OW65224   3.446  11.327  10.480 -0.1004 -0.1821  0.1034
51637SOL    HW165225   3.504  11.359  10.549  0.3829  0.7408 -0.7005
51637SOL    HW265226   3.488  11.248  10.447  0.1984 -0.0508  0.1738
51638SOL     OW65227   9.610   9.146   5.351  0.1489 -0.0122 -0.6314
51638SOL    HW165228   9.526   9.148   5.306  0.3102  0.6092 -0.9161
51638SOL    HW265229   9.642   9.056   5.339 -0.8444 -0.4930  0.1923
51639SOL     OW65230  11.042  10.227   8.054  0.0287 -0.6869  0.2251
51639SOL    HW165231  11.122  10.178   8.033  0.5272 -0.0881  0.6673
51639SOL    HW265232  11.045  10.239   8.149 -0.9015 -1.1731  0.3267
51640SOL     OW65233   0.060   8.399   2.746 -0.6223 -0.6107 -0.2109
51640SOL    HW165234  -0.018   8.356   2.780 -1.2415  0.3844 -0.3465
51640SOL    HW265235   0.027   8.477   2.701  0.4991  0.1625  0.2723
51641SOL     OW65236   4.216   4.963   8.469 -0.1101 -0.0076 -0.4777
51641SOL    HW165237   4.122   4.956   8.454 -0.8336  0.4287  2.9922
51641SOL    HW265238   4.231   5.055   8.487  0.2444 -0.5271  2.3785
51642SOL     OW65239   9.738   5.701  10.109 -0.0420  0.3949 -0.8705
51642SOL    HW165240   9.806   5.746  10.059  0.5394 -1.2010 -1.5961
51642SOL    HW265241   9.674   5.674  10.043 -0.1242 -0.2651 -0.5275
51643SOL     OW65242   9.415   8.779   1.753  0.0679 -0.2052 -0.5534
51643SOL    HW165243   9.393   8.846   1.689  0.1330 -0.2953 -0.6712
51643SOL    HW265244   9.440   8.828   1.831 -1.6997 -0.1018 -0.0124
51644SOL     OW65245   0.330  10.819   7.081  0.2122  0.1026  0.6199
51644SOL    HW165246   0.255  10.770   7.115 -0.8275  2.3332  1.7066
51644SOL    HW265247   0.325  10.806   6.986  0.0593 -1.9417  0.8545
51645SOL     OW65248   4.035   1.523   3.011  0.4165 -0.6804  0.1837
51645SOL    HW165249   3.957   1.489   3.056  0.5883 -0.5522  0.5816
51645SOL    HW265250   4.042   1.469   2.932 -0.7286  0.0342 -0.4454
51646SOL     OW65251   3.033   4.278   8.592 -0.0896  0.1705  0.1613
51646SOL    HW165252   3.066   4.361   8.558 -2.3126  1.5453  1.1926
51646SOL    HW265253   3.015   4.226   8.514  0.9023  0.7952 -0.5121
51647SOL     OW65254   8.244  12.737   6.678 -0.4534  0.2869  0.1931
51647SOL    HW165255   8.235  12.829   6.655  0.0801 -0.2887 -2.7114
51647SOL    HW265256   8.173  12.693   6.631 -1.1626 -0.7711  2.1163
51648SOL     OW65257   6.755   8.806   1.220  0.2307 -0.6597 -0.4159
51648SOL    HW165258   6.700   8.884   1.219 -2.2571 -2.2938  1.0627
51648SOL    HW265259   6.703   8.739   1.175  2.3652 -1.5079 -1.7875
51649SOL     OW65260   5.300   1.327   6.810  0.1903 -0.9692 -0.5369
51649SOL    HW165261   5.302   1.298   6.718  0.5825 -4.0992  0.3522
51649SOL    HW265262   5.232   1.394   6.812 -0.7952 -1.7942 -2.8793
51650SOL     OW65263   2.366  10.853   3.812 -0.2997  0.1932  0.7915
51650SOL    HW165264   2.349  10.918   3.880 -0.0005  2.0310 -0.7773
51650SOL    HW265265   2.311  10.881   3.738  0.1286 -1.1270 -0.0608
51651SOL     OW65266   4.822   2.540   3.591 -0.4333 -0.0370  0.7710
51651SOL    HW165267   4.780   2.564   3.674  0.7810 -1.1363  1.7444
51651SOL    HW265268   4.915   2.532   3.613 -0.0308  0.0313 -0.7958
51652SOL     OW65269   0.012  11.275   0.899  0.2066  0.2238 -0.2214
51652SOL    HW165270   0.013  11.199   0.841  0.7681 -0.7366  0.9927
51652SOL    HW265271   0.059  11.342   0.850 -0.8884  0.0303 -1.5997
51653SOL     OW65272  11.140   0.522  11.478  0.4844 -0.1191 -0.4049
51653SOL    HW165273  11.233   0.514  11.458  0.5794  0.0216 -0.0228
51653SOL    HW265274  11.122   0.450  11.539  0.3414 -0.1467 -0.4783
51654SOL     OW65275   2.183  11.615  10.461 -0.2594 -0.0570 -0.3181
51654SOL    HW165276   2.198  11.709  10.461  1.9798 -0.3596 -0.5632
51654SOL    HW265277   2.169  11.593  10.369 -0.8227  0.0130 -0.2565
51655SOL     OW65278   5.687   1.658   9.950 -0.7200  0.0901  0.1942
51655SOL    HW165279   5.682   1.749   9.921  1.3479  0.4359  0.7691
51655SOL    HW265280   5.762   1.622   9.902 -1.3532 -1.2451  0.1723
51656SOL     OW65281   3.081  11.835  12.830 -0.5025  0.1901  0.2119
51656SOL    HW165282   3.050  11.759  12.779  0.6031 -0.3386  0.2963
51656SOL    HW265283   3.158  11.802  12.876 -1.2148  0.7886  1.8945
51657SOL     OW65284   7.006   1.488   0.584 -0.2360 -0.4078 -0.5461
51657SOL    HW165285   6.953   1.491   0.663 -1.5483 -1.1201 -1.3605
51657SOL    HW265286   6.947   1.453   0.517  0.9616 -0.2154 -1.7407
51658SOL     OW65287   6.767  12.822   0.877  0.2332  0.3314  0.0964
51658SOL    HW165288   6.716  12.898   0.849  2.1219  1.8713  0.5600
51658SOL    HW265289   6.783  12.773   0.797  0.2119  1.2548 -0.4913
51659SOL     OW65290  11.995  12.783  11.785  0.1696 -0.0812  0.2269
51659SOL    HW165291  11.961  12.728  11.714 -0.9007 -1.4393  1.7381
51659SOL    HW265292  11.948  12.866  11.775  0.5877  0.0353 -1.0723
51660SOL     OW65293   5.774  10.949  11.142  0.0551  0.4253  0.1446
51660SOL    HW165294   5.852  10.965  11.196  1.5708  0.0627 -1.8382
51660SOL    HW265295   5.745  11.037  11.116 -0.7781  0.6118  1.6019
51661SOL     OW65296  12.782  11.130  12.125  0.0698  0.5005  0.5321
51661SOL    HW165297  12.743  11.045  12.106  1.1007 -0.4930  2.5722
51661SOL    HW265298  12.708  11.186  12.148 -0.3964 -0.8254  2.4808
51662SOL     OW65299  10.046   9.862   7.461  0.8638 -0.0227 -0.4706
51662SOL    HW165300  10.047   9.957   7.445  2.4453  0.0990  0.2255
51662SOL    HW265301  10.084   9.824   7.382 -1.0139 -0.2138 -1.3321
51663SOL     OW65302  11.907   9.118   3.050 -0.2343 -0.1654  0.0642
51663SOL    HW165303  11.963   9.045   3.023 -0.5211  0.0389 -1.1234
51663SOL    HW265304  11.897   9.106   3.145 -0.4932 -1.8065 -0.1375
51664SOL     OW65305   0.696   3.262   3.495 -0.1163  0.6310 -0.2519
51664SOL    HW165306   0.666   3.198   3.431  0.7863 -1.0795  0.9436
51664SOL    HW265307   0.791   3.251   3.497 -0.0019  1.6455  0.3392
51665SOL     OW65308  12.182   1.980   2.668  0.3756  0.2195 -0.5948
51665SOL    HW165309  12.122   2.055   2.660 -0.0738  0.0306  0.7308
51665SOL    HW265310  12.166   1.928   2.589 -1.2307  0.1671 -0.2695
51666SOL     OW65311   9.871   8.224   1.399  0.3121 -0.1203 -0.5390
51666SOL    HW165312   9.905   8.313   1.403 -1.5794  0.6184  0.0913
51666SOL    HW265313   9.858   8.199   1.491  2.5724 -1.8055 -0.5959
51667SOL     OW65314  12.213   2.701   0.456 -0.5051  0.2462  0.4028
51667SOL    HW165315  12.263   2.724   0.534 -3.6323 -2.3075  3.4520
51667SOL    HW265316  12.231   2.608   0.442 -2.2908 -0.0537 -0.0606
51668SOL     OW65317   1.940  12.342   5.218  0.0634 -0.1468  0.0144
51668SOL    HW165318   1.860  12.295   5.195 -0.1587  0.6520 -0.9331
51668SOL    HW265319   1.980  12.364   5.134 -0.0359  1.6321  0.3883
51669SOL     OW65320  12.822   3.937  12.710  0.4786  0.3735 -0.1389
51669SOL    HW165321  12.823   3.882  12.788 -0.5548 -1.8676 -1.6237
51669SOL    HW265322  12.761   4.008  12.732 -4.1189 -3.0248 -0.5505
51670SOL     OW65323   8.208   4.054   0.910  0.3422  0.2922 -0.3035
51670SOL    HW165324   8.174   4.072   0.997  3.0360  1.6175  0.5905
51670SOL    HW265325   8.170   4.121   0.854 -1.1717 -0.3885 -0.1453
51671SOL     OW65326   4.602   2.560   0.599 -0.4035  0.1956 -0.2128
51671SOL    HW165327   4.629   2.469   0.611 -2.1962 -0.4227 -0.5451
51671SOL    HW265328   4.565   2.585   0.684  0.9607  0.9613  0.1816
51672SOL     OW65329   0.526   7.171  11.835 -0.2392 -0.6291 -0.4440
51672SOL    HW165330   0.584   7.122  11.894  0.5187 -2.1911 -2.3851
51672SOL    HW265331   0.440   7.131  11.848 -0.2075 -0.5529  0.0343
51673SOL     OW65332   0.819   0.316   5.955  0.6930 -0.2634 -0.5713
51673SOL    HW165333   0.730   0.285   5.935  2.0248 -2.4943 -4.0223
51673SOL    HW265334   0.864   0.238   5.989  1.8161  0.2939 -0.7475
51674SOL     OW65335  12.224   4.497  12.241 -0.4700 -0.6379  0.0904
51674SOL    HW165336  12.294   4.528  12.183  0.6132  0.9616  2.1345
51674SOL    HW265337  12.240   4.403  12.250 -0.3556 -0.8336 -1.7117
51675SOL     OW65338   8.402   9.559   3.658 -0.2289 -0.4416 -0.3981
51675SOL    HW165339   8.356   9.633   3.698 -0.4298  0.1481 -1.6816
51675SOL    HW265340   8.334   9.494   3.643  0.1393 -1.4372  1.8506
51676SOL     OW65341   6.116  10.293   8.446 -0.0289  0.7159  0.1906
51676SOL    HW165342   6.034  10.270   8.490 -0.6202 -0.7925 -1.5795
51676SOL    HW265343   6.135  10.382   8.477 -1.3714  0.4396  1.9915
51677SOL     OW65344  12.010   6.365   2.987  0.7667  0.3591  0.6567
51677SOL    HW165345  12.021   6.447   2.940  0.9142 -0.1764 -0.2729
51677SOL    HW265346  12.050   6.299   2.929 -1.5940 -0.7433  0.1892
51678SOL     OW65347   9.035   3.337   4.849 -0.5149  0.5131 -0.4022
51678SOL    HW165348   9.033   3.409   4.913  0.5434  0.9584 -0.8386
51678SOL    HW265349   9.014   3.380   4.766  0.3789  0.3726 -0.7061
51679SOL     OW65350  11.645   1.192   5.661  0.1207 -0.5533 -0.2957
51679SOL    HW165351  11.652   1.104   5.700  0.9237 -0.5409 -0.3923
51679SOL    HW265352  11.595   1.179   5.581  0.6226 -1.0096 -0.5452
51680SOL     OW65353   1.271  11.395   3.608  0.3383 -0.0327 -0.5042
51680SOL    HW165354   1.335  11.404   3.537  1.2557 -1.1411  0.1618
51680SOL    HW265355   1.247  11.485   3.630 -0.5562  0.3459 -2.7094
51681SOL     OW65356   5.064   8.388   9.673  0.7631  0.2831  0.3129
51681SOL    HW165357   5.034   8.303   9.705 -0.3572  0.3923 -0.3713
51681SOL    HW265358   5.135   8.366   9.612  1.2047 -0.0813  0.9451
51682SOL     OW65359   1.507   2.111  10.582  0.6449 -0.1910  0.1353
51682SOL    HW165360   1.480   2.029  10.541  2.3796 -0.4463 -0.5920
51682SOL    HW265361   1.536   2.086  10.670 -0.0759 -0.1241  0.4048
51683SOL     OW65362   8.978   9.661   1.256 -0.3394  0.9698  0.1187
51683SOL    HW165363   9.064   9.681   1.292  0.3339  3.5262 -2.5992
51683SOL    HW265364   8.922   9.732   1.287 -0.4580  1.5307 -1.3124
51684SOL     OW65365  12.371   8.396   4.113  0.3132  0.4612 -0.4591
51684SOL    HW165366  12.340   8.379   4.202 -1.7890 -0.1984 -1.2436
51684SOL    HW265367  12.448   8.451   4.125  0.7823 -0.5350  1.7965
51685SOL     OW65368   0.963   0.423   9.050 -0.5339  0.3589 -0.1551
51685SOL    HW165369   0.977   0.432   8.956  2.2882 -2.1594 -0.1136
51685SOL    HW265370   1.021   0.352   9.076 -1.4821  0.7347  3.4645
51686SOL     OW65371  10.773   9.157   1.104 -0.1319 -0.2181 -0.1191
51686SOL    HW165372  10.756   9.070   1.070 -0.4250  0.5812 -2.1514
51686SOL    HW265373  10.714   9.214   1.055 -1.0303  0.9837  2.2012
51687SOL     OW65374   1.332   3.758  10.909  0.2049 -0.0535  0.1051
51687SOL    HW165375   1.331   3.845  10.950 -2.6542 -0.5374  1.3137
51687SOL    HW265376   1.296   3.772  10.822  1.5849  0.2336 -0.4356
51688SOL     OW65377   4.487   2.653   8.750  0.1126 -0.1576 -0.0447
51688SOL    HW165378   4.524   2.663   8.662  1.4992  0.3606  0.5633
51688SOL    HW265379   4.561   2.670   8.809 -1.2399  1.5737  1.2646
51689SOL     OW65380   9.487   2.838   2.007  0.3041 -0.0244 -0.0733
51689SOL    HW165381   9.564   2.793   1.973  1.2268  1.2414  0.2514
51689SOL    HW265382   9.438   2.770   2.054  1.7571 -0.6514  0.5969
51690SOL     OW65383   6.584   8.496   0.776 -0.0929 -0.7303 -0.1731
51690SOL    HW165384   6.642   8.420   0.771 -0.6338 -1.0627 -2.9023
51690SOL    HW265385   6.501   8.466   0.738 -0.7257  0.8859 -0.1630
51691SOL     OW65386  10.738   3.727   4.152  0.2948  0.0458  0.3153
51691SOL    HW165387  10.677   3.698   4.083 -1.5407  3.0695  0.4642
51691SOL    HW265388  10.764   3.646   4.196 -0.7864 -1.7301 -2.0248
51692SOL     OW65389   8.856   3.346   5.562 -0.5082 -0.1775  0.2123
51692SOL    HW165390   8.900   3.350   5.647 -1.2228 -0.4965  0.5995
51692SOL    HW265391   8.928   3.351   5.498  0.2348 -2.0743  0.8354
51693SOL     OW65392   9.110  11.310   3.550  0.0373  0.3569  0.7190
51693SOL    HW165393   9.073  11.263   3.475 -0.1507 -0.6092  1.3931
51693SOL    HW265394   9.142  11.392   3.514  1.8727 -0.9560 -0.8268
51694SOL     OW65395   0.467   4.638   7.475 -0.0505  0.2956 -0.3611
51694SOL    HW165396   0.514   4.696   7.414 -0.6401  1.9293  0.6668
51694SOL    HW265397   0.419   4.578   7.418  3.2913 -1.5827 -1.4604
51695SOL     OW65398   5.382   8.127   3.891 -0.4226  0.0341  0.0200
51695SOL    HW165399   5.318   8.142   3.822  0.4502 -1.5396 -1.2147
51695SOL    HW265400   5.400   8.033   3.886  0.7411  0.1545  1.4382
51696SOL     OW65401   5.491   7.572   5.311 -0.0421 -0.1281  0.1031
51696SOL    HW165402   5.426   7.619   5.364 -0.4725  1.3348 -1.6501
51696SOL    HW265403   5.456   7.483   5.304 -0.4522 -0.0980  1.4469
51697SOL     OW65404   9.956   0.183   7.267  0.0694  0.0448  0.5797
51697SOL    HW165405   9.873   0.224   7.291 -0.1804 -0.4959  0.6570
51697SOL    HW265406  10.022   0.241   7.304 -0.2375  1.0881 -0.4659
51698SOL     OW65407   9.140   8.523   6.322  0.4314 -0.0187  0.1645
51698SOL    HW165408   9.133   8.584   6.395  0.7355  0.4367 -0.1832
51698SOL    HW265409   9.135   8.577   6.244  0.1796 -0.4964 -0.1582
51699SOL     OW65410   5.186   2.762  12.543  0.1172  0.3238 -0.1224
51699SOL    HW165411   5.261   2.703  12.551 -0.4870 -0.3910  0.4407
51699SOL    HW265412   5.188   2.792  12.453  0.1668 -0.9252 -0.5501
51700SOL     OW65413   2.261   3.028  11.643  0.4997  0.3469 -0.0853
51700SOL    HW165414   2.316   3.101  11.614  1.6817 -0.2486  0.5875
51700SOL    HW265415   2.311   2.987  11.714  0.4360 -1.8333 -1.2181
51701SOL     OW65416   5.377  11.563  12.060  0.3558 -0.2131  0.1536
51701SOL    HW165417   5.466  11.574  12.092  0.5538  0.9254 -0.7081
51701SOL    HW265418   5.342  11.488  12.109  1.3098  0.1926  1.5081
51702SOL     OW65419  11.585   5.008   1.718 -0.1201  0.1701  0.1076
51702SOL    HW165420  11.614   5.033   1.630  2.2589 -0.9305  0.5114
51702SOL    HW265421  11.528   5.080   1.745  0.7152  1.5269 -1.5286
51703SOL     OW65422   0.805   7.544   9.946  0.0069 -0.2687 -0.5761
51703SOL    HW165423   0.802   7.595   9.865  0.6719  0.4027 -0.1923
51703SOL    HW265424   0.713   7.529   9.969 -0.1893  0.2347 -1.0196
51704SOL     OW65425   5.984  10.746   9.062 -0.2050 -0.1404  0.5176
51704SOL    HW165426   6.019  10.685   9.127 -1.8975  0.8976  2.5347
51704SOL    HW265427   5.928  10.805   9.113 -0.5524  1.5718 -1.7241
51705SOL     OW65428  10.853   6.609   2.944  0.8087 -0.1947  0.0856
51705SOL    HW165429  10.927   6.574   2.894  0.7167 -0.7565  0.3425
51705SOL    HW265430  10.792   6.640   2.877  0.4424 -1.4416 -0.1853
51706SOL     OW65431   4.955  12.633   9.899  0.2749  0.4422  0.2419
51706SOL    HW165432   4.973  12.569   9.968 -0.6909 -0.7433 -0.5558
51706SOL    HW265433   4.964  12.583   9.818  0.3286  1.5409 -0.4456
51707SOL     OW65434  10.569   2.499   1.379  0.6539 -0.0301 -1.0236
51707SOL    HW165435  10.493   2.513   1.436  1.5929 -1.0583  0.5468
51707SOL    HW265436  10.530   2.484   1.292 -0.8822  0.3755 -0.4496
51708SOL     OW65437   2.372   2.046   5.638  0.0097  0.3463  0.2893
51708SOL    HW165438   2.374   2.055   5.543  1.9203 -0.6518  0.1902
51708SOL    HW265439   2.279   2.050   5.661 -0.4802  0.6285 -1.6008
51709SOL     OW65440   6.869   5.651   7.386 -0.3151 -0.0978  0.2726
51709SOL    HW165441   6.835   5.641   7.475  1.0685 -0.0465  0.8283
51709SOL    HW265442   6.928   5.725   7.390  0.1021 -0.3643 -0.5891
51710SOL     OW65443   4.869   9.459   4.965 -0.9129  0.2285 -0.4676
51710SOL    HW165444   4.776   9.472   4.950 -1.5059 -1.2378  1.5986
51710SOL    HW265445   4.879   9.365   4.982  1.0686  0.2233 -1.2956
51711SOL     OW65446   9.037   5.149   2.292 -0.3938 -0.1293 -0.2942
51711SOL    HW165447   9.087   5.148   2.211  0.6131 -0.3277  0.3094
51711SOL    HW265448   9.056   5.235   2.330 -2.3450  0.7330 -1.1389
51712SOL     OW65449   7.773   4.891   7.007 -0.2978 -0.4308  0.1323
51712SOL    HW165450   7.764   4.884   7.102  0.3850  0.4824  0.2824
51712SOL    HW265451   7.771   4.985   6.990  0.2958 -0.5543 -0.6813
51713SOL     OW65452   5.729   6.905   0.275  0.4848 -0.1451 -0.3657
51713SOL    HW165453   5.745   6.862   0.358  0.0700  1.3159  0.5139
51713SOL    HW265454   5.813   6.900   0.229  0.9831 -0.1828  0.5194
51714SOL     OW65455   4.114  11.487  12.321 -0.1938  0.3555  0.3729
51714SOL    HW165456   4.145  11.574  12.347  1.5667  0.3519 -1.4330
51714SOL    HW265457   4.040  11.505  12.263 -0.3434  0.6219  0.6474
51715SOL     OW65458   1.979   2.693   6.541  0.0517 -0.4078  0.2053
51715SOL    HW165459   1.947   2.756   6.606  0.1218  0.8456 -0.9434
51715SOL    HW265460   2.072   2.682   6.563  0.1189  0.1437  0.2199
51716SOL     OW65461   0.244   1.148   6.111 -0.4476  0.2063 -0.4268
51716SOL    HW165462   0.328   1.123   6.072 -0.7620 -1.3169 -0.2212
51716SOL    HW265463   0.191   1.069   6.103 -1.1986  0.5203  1.2432
51717SOL     OW65464  12.080   2.847   6.355  0.0303  0.1616  0.6215
51717SOL    HW165465  12.073   2.825   6.448 -0.3140 -1.5330  0.2278
51717SOL    HW265466  11.989   2.856   6.325  0.1360  2.8015  0.8561
51718SOL     OW65467   4.167  10.299  11.542 -0.0492 -0.0606  0.2079
51718SOL    HW165468   4.144  10.347  11.622 -0.2533 -0.7115  0.5446
51718SOL    HW265469   4.109  10.336  11.475 -0.0041  0.3596  0.3970
51719SOL     OW65470   9.985   4.599   0.608  0.1412 -0.1158  0.2140
51719SOL    HW165471  10.068   4.550   0.612  0.3326  0.2609  0.8207
51719SOL    HW265472  10.001   4.678   0.658 -0.3849  0.2709 -0.2218
51720SOL     OW65473   0.595   0.865  12.530 -0.1429 -0.1119  0.2126
51720SOL    HW165474   0.685   0.891  12.549  0.7785 -1.7434 -1.5509
51720SOL    HW265475   0.577   0.902  12.443 -0.2244 -1.8509 -0.5598
51721SOL     OW65476   2.992   4.765  11.203  0.2077  0.4471 -0.8195
51721SOL    HW165477   2.949   4.686  11.170 -1.2845  0.2469  1.3942
51721SOL    HW265478   2.941   4.837  11.167  0.7465  0.3839 -1.7422
51722SOL     OW65479   4.576   9.449   9.300  0.5199 -0.2594  0.3932
51722SOL    HW165480   4.623   9.475   9.221 -0.3407  0.7868  0.2007
51722SOL    HW265481   4.488   9.427   9.269 -0.3271  1.7545  1.2404
51723SOL     OW65482   6.077   2.111   8.604  0.4917  0.3674 -0.3705
51723SOL    HW165483   5.991   2.093   8.567  0.5701 -0.3444 -0.2248
51723SOL    HW265484   6.065   2.191   8.655 -0.2131 -0.0050  0.0641
51724SOL     OW65485   3.545   1.381  11.408  0.4502  0.4923  0.3725
51724SOL    HW165486   3.552   1.290  11.379 -0.6121  0.8137 -1.0267
51724SOL    HW265487   3.634   1.405  11.432  0.8565 -0.7283  0.1813
51725SOL     OW65488   9.824   7.779   5.751 -0.2965 -0.1582 -0.4294
51725SOL    HW165489   9.895   7.811   5.807 -0.2076 -0.4434 -0.3782
51725SOL    HW265490   9.747   7.826   5.781 -0.2359 -0.2646 -0.1118
51726SOL     OW65491   7.288  10.069   9.977 -0.2830 -0.0781  0.6881
51726SOL    HW165492   7.264  10.061  10.070  0.2169 -0.9097  0.7554
51726SOL    HW265493   7.205  10.074   9.931 -0.5509 -0.4588  1.1206
51727SOL     OW65494  10.243   7.240  10.628  0.2783  0.2371  0.5179
51727SOL    HW165495  10.151   7.216  10.634  0.6479 -0.9521  1.9868
51727SOL    HW265496  10.242   7.329  10.593 -1.3946  0.1210  0.1689
51728SOL     OW65497   7.013  12.807  10.428 -0.4060 -0.0645 -0.0364
51728SOL    HW165498   7.099  12.843  10.404  0.4261 -0.8965  1.5307
51728SOL    HW265499   7.031  12.751  10.504 -1.6623 -3.3583 -1.9433
51729SOL     OW65500   4.850  10.167   5.203 -0.1029  0.2329 -0.2816
51729SOL    HW165501   4.803  10.094   5.244  0.3524 -1.0099 -1.8797
51729SOL    HW265502   4.942  10.143   5.209  0.0934  0.9676 -0.2972
51730SOL     OW65503   5.823   9.723   2.369 -0.3697 -0.2577 -0.0333
51730SOL    HW165504   5.749   9.672   2.335 -0.2715 -0.3643 -0.0865
51730SOL    HW265505   5.839   9.790   2.302 -1.2467  0.5860  0.5593
51731SOL     OW65506   0.047   0.403   2.730  0.0822  0.2296  0.4252
51731SOL    HW165507   0.074   0.326   2.778 -0.7456  0.2898  1.0083
51731SOL    HW265508   0.123   0.462   2.733  0.6402 -0.4703  0.1494
51732SOL     OW65509   1.891   2.650   4.282 -0.1055 -0.1246  0.6435
51732SOL    HW165510   1.944   2.577   4.312  0.9098 -0.4960 -1.8227
51732SOL    HW265511   1.947   2.727   4.292  0.2477 -0.2542 -0.2891
51733SOL     OW65512   4.276   8.952   3.879  0.0740 -0.6989  0.3777
51733SOL    HW165513   4.300   8.864   3.850  0.9584 -0.9743  1.8707
51733SOL    HW265514   4.193   8.941   3.923  0.2591 -0.8106  0.6978
51734SOL     OW65515   1.216   5.409   0.722  0.0675 -0.4002  0.1169
51734SOL    HW165516   1.177   5.325   0.747 -3.4277  0.7607 -0.7678
51734SOL    HW265517   1.232   5.401   0.628  2.1200 -0.8488  0.4660
51735SOL     OW65518   1.082   8.572   8.056  0.5629 -0.0844 -0.2167
51735SOL    HW165519   1.127   8.491   8.032  0.8746  0.5544 -1.9232
51735SOL    HW265520   0.994   8.544   8.081  0.9882 -1.0387  0.2995
51736SOL     OW65521   6.291   1.048  10.607  0.3507 -0.0021  0.0408
51736SOL    HW165522   6.349   0.984  10.567  1.6608  1.5565 -0.6559
51736SOL    HW265523   6.326   1.060  10.695  0.4004  0.1244  0.0036
51737SOL     OW65524   1.831   5.151   5.827 -0.1664  0.2766  0.0365
51737SOL    HW165525   1.760   5.117   5.882 -0.1193  0.0285 -0.0563
51737SOL    HW265526   1.794   5.151   5.739  1.1197 -3.3598 -0.6571
51738SOL     OW65527   7.363   2.713   0.492 -0.5985  0.4943 -0.3812
51738SOL    HW165528   7.290   2.657   0.464 -0.8658  0.5404  0.1937
51738SOL    HW265529   7.401   2.746   0.410  0.4310 -1.5826 -0.8015
51739SOL     OW65530  12.234   1.948   5.912  0.0168  0.5533 -0.3676
51739SOL    HW165531  12.162   2.010   5.924 -0.3285  0.2638 -0.8937
51739SOL    HW265532  12.271   1.970   5.827 -0.7126 -0.5592 -0.9987
51740SOL     OW65533   3.517  10.311   2.868 -0.6863  0.3247  0.1920
51740SOL    HW165534   3.506  10.368   2.792  2.6512  1.8766  0.7249
51740SOL    HW265535   3.436  10.323   2.918 -0.9724  3.0104 -0.7545
51741SOL     OW65536   8.653   6.480   4.100 -0.2345 -0.5394 -0.3283
51741SOL    HW165537   8.698   6.555   4.138  1.8196 -2.5637  1.5569
51741SOL    HW265538   8.640   6.504   4.008  1.4699  1.5938 -0.1086
51742SOL     OW65539   4.232   0.637   3.033 -0.5522 -0.2037  0.7977
51742SOL    HW165540   4.300   0.705   3.041  1.8439 -2.3858  0.2103
51742SOL    HW265541   4.222   0.625   2.939  0.0450 -1.5605  0.8890
51743SOL     OW65542   0.294   1.866  10.184  0.5140  0.1851 -0.9016
51743SOL    HW165543   0.368   1.889  10.239  1.4681 -0.2194 -1.9729
51743SOL    HW265544   0.306   1.773  10.166 -0.6210 -0.0440 -0.5730
51744SOL     OW65545   6.747   6.071   3.449  0.1470 -0.3168 -0.4077
51744SOL    HW165546   6.830   6.027   3.463  0.1876 -0.9611 -2.3435
51744SOL    HW265547   6.681   6.001   3.456 -0.0306 -0.2021 -0.8678
51745SOL     OW65548   1.746   3.603   2.027 -0.8211 -0.0212  0.3653
51745SOL    HW165549   1.710   3.515   2.016 -3.3005  0.8871  0.4927
51745SOL    HW265550   1.753   3.614   2.122 -1.2679  0.1691  0.3808
51746SOL     OW65551  11.027   2.292  10.287 -0.0929  0.5189 -0.2760
51746SOL    HW165552  11.065   2.305  10.200  0.5504 -0.2061 -0.1128
51746SOL    HW265553  10.951   2.236  10.273 -0.4458  1.0348 -0.4605
51747SOL     OW65554  10.798   0.220   0.703  0.0090  0.2434 -0.6024
51747SOL    HW165555  10.798   0.296   0.645 -0.2422  0.4925 -0.2800
51747SOL    HW265556  10.705   0.198   0.714  0.0658  0.0654 -0.4670
51748SOL     OW65557   1.274   9.417   8.445 -0.1371 -0.2342 -0.1754
51748SOL    HW165558   1.332   9.426   8.521  0.0863  0.3763 -0.4094
51748SOL    HW265559   1.268   9.322   8.431 -0.4984 -0.3712  0.8400
51749SOL     OW65560   4.804   6.151   6.920 -0.0726 -0.8487  0.3307
51749SOL    HW165561   4.815   6.208   6.996  0.2574 -2.6580  1.7044
51749SOL    HW265562   4.712   6.160   6.896 -0.0180  0.2612  0.5022
51750SOL     OW65563   6.690   7.314   1.739  0.4368 -0.1146 -0.5581
51750SOL    HW165564   6.755   7.341   1.674  0.8741 -0.3052 -0.2083
51750SOL    HW265565   6.645   7.395   1.763  0.2582 -0.0463 -1.1078
51751SOL     OW65566   2.962   6.598  12.031  0.0415  0.2854 -0.3988
51751SOL    HW165567   2.989   6.634  11.946  1.0705 -1.6178 -0.9350
51751SOL    HW265568   3.044   6.580  12.076 -0.4651 -0.4900  0.2215
51752SOL     OW65569  12.312   2.565   1.664 -0.3345 -0.2489 -0.3804
51752SOL    HW165570  12.262   2.641   1.694 -0.3167 -0.2151 -0.4353
51752SOL    HW265571  12.306   2.503   1.737  0.0709  0.0002 -0.1291
51753SOL     OW65572  12.672   8.106   0.895 -0.2553 -0.3280  0.5149
51753SOL    HW165573  12.691   8.048   0.820 -1.5584  0.8512 -0.7792
51753SOL    HW265574  12.747   8.166   0.898 -0.1152 -0.4862  0.2718
51754SOL     OW65575  12.293   5.023   3.611  0.1259  0.0318  0.1804
51754SOL    HW165576  12.353   5.004   3.539 -0.4927 -1.4964  0.0108
51754SOL    HW265577  12.344   5.008   3.690  0.3977  0.2476  0.0458
51755SOL     OW65578   5.591   0.166  11.806  0.0445 -0.1382 -0.1477
51755SOL    HW165579   5.499   0.184  11.787 -0.4466 -2.1272  0.0730
51755SOL    HW265580   5.636   0.178  11.722 -0.4173  0.7794 -0.2680
51756SOL     OW65581   3.704   2.096   0.427  0.2470  0.3505  0.7214
51756SOL    HW165582   3.628   2.054   0.386  0.9171  0.8504 -1.0892
51756SOL    HW265583   3.742   2.027   0.482 -0.4744 -0.4492  0.2494
51757SOL     OW65584  10.129   9.663   4.590 -0.0739 -0.2947 -0.4411
51757SOL    HW165585  10.189   9.617   4.531  0.5998  0.2672 -0.2054
51757SOL    HW265586  10.153   9.633   4.677  0.1807  0.2809 -0.3085
51758SOL     OW65587   3.871   3.055   2.627 -0.0762  0.2235 -0.2689
51758SOL    HW165588   3.783   3.035   2.597  0.2587  0.0184 -1.1714
51758SOL    HW265589   3.895   2.982   2.683 -0.5450  0.3692  0.1191
51759SOL     OW65590   0.122   1.858   3.167 -0.4500 -0.1148  0.3816
51759SOL    HW165591   0.115   1.951   3.189 -0.4613 -0.0471  0.0906
51759SOL    HW265592   0.156   1.856   3.078 -0.6823 -0.3861  0.2962
51760SOL     OW65593   1.738   4.094   7.087 -0.3030  0.5725 -0.2135
51760SOL    HW165594   1.806   4.155   7.115  1.4788 -1.3878 -0.0807
51760SOL    HW265595   1.665   4.110   7.148  0.9335  1.0546  1.1826
51761SOL     OW65596   0.957   9.602   3.430  0.1198 -0.3671 -0.2251
51761SOL    HW165597   0.990   9.682   3.471 -0.6730 -0.3027  0.3178
51761SOL    HW265598   1.035   9.557   3.398  0.5543  0.7331 -0.7515
51762SOL     OW65599   8.153   4.924   5.491  0.0869  0.4623  0.2136
51762SOL    HW165600   8.086   4.993   5.490  0.6077  0.9786  0.1983
51762SOL    HW265601   8.178   4.914   5.399  1.3201  1.5742  0.3895
51763SOL     OW65602   8.615   6.619   4.858 -0.0920 -0.1133  0.3088
51763SOL    HW165603   8.649   6.686   4.799 -0.3459 -0.7681 -0.6015
51763SOL    HW265604   8.693   6.583   4.900  0.1013  0.2824  0.2938
51764SOL     OW65605   0.366   0.248  10.389 -0.4912 -0.0844 -0.2983
51764SOL    HW165606   0.411   0.221  10.309  0.8482 -0.1745  0.4550
51764SOL    HW265607   0.432   0.241  10.457 -1.2701  1.1726  0.6239
51765SOL     OW65608   6.053   9.578  12.658  0.6999  0.2624  0.3683
51765SOL    HW165609   6.131   9.540  12.617  0.0923  1.3543 -2.0295
51765SOL    HW265610   6.084   9.660  12.696  1.3165 -0.8600  2.3893
51766SOL     OW65611  12.021  10.972   7.915 -0.0963 -0.4367  0.3221
51766SOL    HW165612  11.977  10.957   7.831 -0.1527 -2.7654  0.7050
51766SOL    HW265613  11.954  10.955   7.981  0.5974 -1.1924  0.8583
51767SOL     OW65614   6.187   1.494   4.591  0.1593 -0.2354  0.2138
51767SOL    HW165615   6.236   1.517   4.512 -0.4011 -0.4676 -0.2084
51767SOL    HW265616   6.169   1.578   4.634  1.5690 -0.1941  0.7816
51768SOL     OW65617   1.823  11.522   9.816 -0.1334 -0.5438 -0.1100
51768SOL    HW165618   1.729  11.534   9.803  0.0502 -0.1097 -1.1519
51768SOL    HW265619   1.838  11.429   9.800 -0.5416 -0.8529  1.1969
51769SOL     OW65620  11.493   8.444   5.458 -0.3484 -0.1686  0.1205
51769SOL    HW165621  11.421   8.485   5.410 -0.7331 -0.3438  0.5378
51769SOL    HW265622  11.556   8.514   5.472  0.2007 -0.3134 -1.4257
51770SOL     OW65623   8.053   6.641   7.262  0.1640  0.3723 -0.8346
51770SOL    HW165624   8.110   6.587   7.207  1.5834  0.3529  0.5693
51770SOL    HW265625   8.096   6.726   7.266 -0.8151  0.8993 -1.0998
51771SOL     OW65626  12.628   7.372   2.430  0.5344 -0.4397 -0.0873
51771SOL    HW165627  12.554   7.433   2.433 -0.1359 -1.1945 -0.6028
51771SOL    HW265628  12.659   7.368   2.520 -1.1837 -1.4172  0.5223
51772SOL     OW65629   0.745  11.098  12.015 -0.0910 -0.1141 -0.2128
51772SOL    HW165630   0.690  11.021  12.026  1.0377 -0.9237 -0.0745
51772SOL    HW265631   0.718  11.158  12.085 -2.2148  0.4193 -1.3871
51773SOL     OW65632  11.636   6.792   7.223 -0.0580  0.6216  0.1144
51773SOL    HW165633  11.710   6.795   7.283  0.5639 -0.6385 -0.5477
51773SOL    HW265634  11.652   6.864   7.161  2.0821 -1.2005 -1.6133
51774SOL     OW65635   3.645   8.201  10.286 -0.1290  0.5509 -0.4680
51774SOL    HW165636   3.621   8.193  10.379  1.2907 -1.0435 -0.1967
51774SOL    HW265637   3.677   8.291  10.278  0.9755  0.3220  0.9357
51775SOL     OW65638  10.871  11.890   5.405 -1.0566  0.0832 -0.1794
51775SOL    HW165639  10.829  11.877   5.490 -1.3189 -0.3574 -0.3684
51775SOL    HW265640  10.798  11.903   5.344 -0.9813 -1.4506 -0.6428
51776SOL     OW65641  11.499   7.763   0.212  0.1964 -0.0383 -0.1489
51776SOL    HW165642  11.585   7.722   0.200 -0.0812 -0.8172  0.4536
51776SOL    HW265643  11.511   7.853   0.181  0.9357 -0.4420 -1.0635
51777SOL     OW65644   9.085  11.023  10.050  0.5687 -0.8791  0.1877
51777SOL    HW165645   9.142  11.027  10.127 -0.4342 -3.2853  1.1686
51777SOL    HW265646   9.021  11.093  10.064  0.8899 -0.7501  1.1432
51778SOL     OW65647   5.524   5.241   2.058  0.0462  0.3657  0.4350
51778SOL    HW165648   5.522   5.329   2.095 -1.1794  0.0987  1.0691
51778SOL    HW265649   5.441   5.202   2.086  0.3088 -0.7869 -0.3332
51779SOL     OW65650   7.633  11.678   1.785  0.3509 -0.1424 -0.2384
51779SOL    HW165651   7.604  11.623   1.713  1.5558  0.0135 -0.8667
51779SOL    HW265652   7.583  11.760   1.775  0.8909  0.0837 -1.2281
51780SOL     OW65653   4.383   3.112   9.946  0.2286 -0.4387  0.6189
51780SOL    HW165654   4.429   3.181   9.899 -0.9747  1.6828  2.3645
51780SOL    HW265655   4.290   3.135   9.936 -0.1688 -1.4221  1.8219
51781SOL     OW65656   6.304   6.540   2.563  0.0805  0.7488 -0.2104
51781SOL    HW165657   6.225   6.573   2.605 -0.6003 -0.5079 -0.4298
51781SOL    HW265658   6.324   6.459   2.611  0.8853  0.7323 -0.5556
51782SOL     OW65659   9.461   0.408   6.278  0.4591 -0.5762 -0.1047
51782SOL    HW165660   9.444   0.399   6.184 -0.6549 -0.8257  0.1059
51782SOL    HW265661   9.549   0.445   6.283  0.5583 -0.6201 -1.2437
51783SOL     OW65662   4.700   0.449   1.768 -0.1921  0.1908 -0.0273
51783SOL    HW165663   4.723   0.526   1.821  0.0895 -0.4720  0.8397
51783SOL    HW265664   4.605   0.452   1.762 -0.2646  0.0760  0.8561
51784SOL     OW65665   2.404   2.807   6.206  0.2572  0.5808  0.2425
51784SOL    HW165666   2.390   2.819   6.300  0.5002  2.7624  0.0537
51784SOL    HW265667   2.325   2.762   6.176 -0.4495  1.0626  1.2876
51785SOL     OW65668  11.004   3.492  12.359 -0.1789 -0.3090  0.2443
51785SOL    HW165669  11.027   3.571  12.311 -3.2389 -0.3180 -1.4659
51785SOL    HW265670  11.020   3.514  12.451  0.3415  1.7714 -0.2904
51786SOL     OW65671   8.770   5.780   1.351 -0.2246  0.1456 -0.1942
51786SOL    HW165672   8.789   5.844   1.420 -0.5481  0.0367 -0.0029
51786SOL    HW265673   8.733   5.705   1.397 -1.3072  0.4246 -0.5656
51787SOL     OW65674   8.421   2.069   8.830  0.1953 -0.1632  0.1193
51787SOL    HW165675   8.362   2.128   8.783  0.0680  0.2472  0.7728
51787SOL    HW265676   8.373   1.986   8.836 -1.1740  0.6811  2.2711
51788SOL     OW65677  10.470   1.613  11.256 -0.8485  0.1129 -0.2164
51788SOL    HW165678  10.498   1.683  11.316 -0.1993  0.9234 -1.4268
51788SOL    HW265679  10.530   1.620  11.182 -1.1204 -1.4036 -0.6035
51789SOL     OW65680  12.072   3.348   1.692  0.2605 -0.1145  0.1492
51789SOL    HW165681  12.100   3.266   1.650  1.7061 -0.6776  2.0510
51789SOL    HW265682  12.126   3.415   1.651 -0.0398 -0.2930 -0.5494
51790SOL     OW65683   6.619  11.125   6.268  0.5982 -0.3406 -0.1809
51790SOL    HW165684   6.548  11.088   6.215  1.0620 -0.3210 -0.8178
51790SOL    HW265685   6.615  11.074   6.350  0.0484 -0.5496 -0.3285
51791SOL     OW65686   9.016  10.631  11.267  0.1513  0.4118 -0.4309
51791SOL    HW165687   9.039  10.633  11.174  1.8370  0.1739 -0.0652
51791SOL    HW265688   9.081  10.687  11.309 -0.1067 -0.0901  0.6912
51792SOL     OW65689   4.945  12.162   1.282  0.2225  0.3162  0.0916
51792SOL    HW165690   4.955  12.128   1.371 -0.4889  1.6050  0.6938
51792SOL    HW265691   4.855  12.194   1.278 -1.4040 -3.7123 -2.5712
51793SOL     OW65692   9.424   6.466   2.348 -1.0939  0.4577 -0.1631
51793SOL    HW165693   9.497   6.409   2.373  0.7080  2.0261 -1.5089
51793SOL    HW265694   9.347   6.409   2.350  0.5658 -2.0133 -1.3607
51794SOL     OW65695   7.379   9.595   0.011 -0.0821  0.3282 -0.0632
51794SOL    HW165696   7.429   9.675  -0.008 -0.1758  1.1673  2.7850
51794SOL    HW265697   7.391   9.581   0.104  0.5823 -3.5346 -0.5981
51795SOL     OW65698   2.439   1.032   5.620 -0.1909 -0.4931  0.0019
51795SOL    HW165699   2.524   0.997   5.594 -1.0951 -1.3005 -2.0409
51795SOL    HW265700   2.442   1.124   5.594  0.1224 -0.4657  0.1255
51796SOL     OW65701  10.086   9.599   4.185  0.2447  0.2354  0.1033
51796SOL    HW165702   9.996   9.567   4.182 -0.0909  1.0950 -2.8656
51796SOL    HW265703  10.140   9.524   4.159  0.0962  0.3586 -0.5878
51797SOL     OW65704   5.451  12.610   5.500 -0.6593  0.3328 -0.1929
51797SOL    HW165705   5.413  12.698   5.500 -1.3948  0.0349 -0.7914
51797SOL    HW265706   5.541  12.622   5.470 -0.3200  1.0287  1.0152
51798SOL     OW65707   1.478   0.935   1.545  1.1245 -0.6332 -0.0454
51798SOL    HW165708   1.491   0.934   1.450 -0.8798  1.2902 -0.4328
51798SOL    HW265709   1.559   0.972   1.579  1.9696 -1.5685 -0.9625
51799SOL     OW65710   9.614   1.302  12.426 -0.7741 -0.4101  0.3263
51799SOL    HW165711   9.671   1.359  12.375 -0.6392 -1.3589 -0.6096
51799SOL    HW265712   9.625   1.331  12.517  0.9434 -0.3636  0.1239
51800SOL     OW65713   6.772  10.878  12.655 -0.8151  0.2396 -0.7828
51800SOL    HW165714   6.748  10.950  12.712  0.0013  0.0226 -0.1334
51800SOL    HW265715   6.844  10.913  12.601  2.1470 -1.0168  1.9826
51801SOL     OW65716  11.546   8.885   6.442  0.5324  0.1932 -0.8846
51801SOL    HW165717  11.534   8.821   6.512  2.5277  0.5739 -0.1148
51801SOL    HW265718  11.496   8.962   6.471 -1.3204 -0.7260 -1.4958
51802SOL     OW65719  12.513   9.974  11.606 -0.3086  0.3556 -0.2420
51802SOL    HW165720  12.474   9.893  11.572 -0.9837  0.7127 -0.3327
51802SOL    HW265721  12.583   9.944  11.665  0.1510 -0.2819 -1.0891
51803SOL     OW65722  11.951   7.428   8.975 -0.1791  0.3480 -0.1428
51803SOL    HW165723  12.037   7.442   8.937 -0.5545  2.2618 -0.4288
51803SOL    HW265724  11.954   7.477   9.058 -0.3997 -1.1285  0.7671
51804SOL     OW65725   7.827   9.064   3.145 -0.3315 -0.1277  0.7935
51804SOL    HW165726   7.757   9.000   3.137  0.2587 -0.5709 -1.7807
51804SOL    HW265727   7.847   9.089   3.055  1.3804  1.5740  1.5739
51805SOL     OW65728  12.548   1.103   2.689 -0.3966  0.1655 -0.2861
51805SOL    HW165729  12.496   1.180   2.708 -0.4082  0.0920 -0.0202
51805SOL    HW265730  12.486   1.041   2.651 -0.4703  0.1417 -0.1297
51806SOL     OW65731   4.202   4.399   7.436  0.0784  0.4437 -0.0109
51806SOL    HW165732   4.159   4.395   7.522 -1.3801 -0.4717 -0.7402
51806SOL    HW265733   4.147   4.345   7.380  0.7972  1.3510 -1.6336
51807SOL     OW65734  11.413   5.297  11.381  0.0314 -0.3335  0.7533
51807SOL    HW165735  11.478   5.295  11.311 -0.8959  1.3598 -0.2266
51807SOL    HW265736  11.364   5.215  11.371 -0.5741  0.2037 -1.1351
51808SOL     OW65737   0.568   2.866   9.011 -0.6918 -0.4143  0.6838
51808SOL    HW165738   0.626   2.803   9.052  0.8171  0.7072  0.3723
51808SOL    HW265739   0.530   2.819   8.937  0.2291 -1.0337  0.5866
51809SOL     OW65740  12.502  12.522   0.677  0.1158  0.0088  0.1890
51809SOL    HW165741  12.431  12.468   0.643 -0.4490  1.0567 -0.3333
51809SOL    HW265742  12.581  12.486   0.637 -0.4218  0.5530 -1.4326
51810SOL     OW65743   7.194   5.625   5.605 -0.4474 -1.0365 -0.1865
51810SOL    HW165744   7.114   5.620   5.553  0.0480  0.1640 -1.1085
51810SOL    HW265745   7.210   5.718   5.615  1.0419 -1.2493 -0.3652
51811SOL     OW65746   0.192  11.704   6.413 -0.2722 -0.3502 -0.0847
51811SOL    HW165747   0.202  11.795   6.442 -0.3121  0.2493 -1.8253
51811SOL    HW265748   0.144  11.661   6.484  0.6666  0.6936  1.2551
51812SOL     OW65749  10.890   7.327  11.946  0.2572 -0.0248 -0.3299
51812SOL    HW165750  10.842   7.376  11.879 -0.1104 -1.8451 -1.4534
51812SOL    HW265751  10.933   7.256  11.898 -0.0071 -1.3776  1.3560
51813SOL     OW65752   0.900   2.863   1.324 -0.7877  0.4161  0.5826
51813SOL    HW165753   0.825   2.898   1.372 -1.5818 -0.7983  0.2587
51813SOL    HW265754   0.890   2.768   1.329  0.5939  0.2361  0.3096
51814SOL     OW65755   3.385   4.246   5.833  0.0882  0.2257  0.3223
51814SOL    HW165756   3.350   4.236   5.745 -0.7030  0.3436  0.6089
51814SOL    HW265757   3.352   4.170   5.881 -0.0388  0.5001  0.6784
51815SOL     OW65758   8.095  10.097   3.811 -0.0586 -0.0010 -0.3976
51815SOL    HW165759   8.072  10.065   3.898 -0.8798 -4.0993 -1.8880
51815SOL    HW265760   8.011  10.117   3.770  0.2508  0.9233 -0.6016
51816SOL     OW65761   2.682   7.675  11.743 -0.0699 -0.6804 -0.5258
51816SOL    HW165762   2.609   7.691  11.803  0.4454 -2.1651  0.5484
51816SOL    HW265763   2.640   7.655  11.660 -0.8037  3.8043 -1.5396
51817SOL     OW65764   8.823   1.344   9.524  0.0207  0.4282  0.9897
51817SOL    HW165765   8.858   1.432   9.535 -0.5983  0.5232  2.4223
51817SOL    HW265766   8.863   1.293   9.594 -0.7013 -0.0769  1.0497
51818SOL     OW65767   2.627  11.053  11.316  0.2183 -0.0002  0.2907
51818SOL    HW165768   2.688  10.989  11.352 -0.3686 -1.5267 -1.2933
51818SOL    HW265769   2.566  11.071  11.388  1.6526  0.4589  1.4264
51819SOL     OW65770   9.819   2.753  10.476  0.4109 -0.0479  0.1079
51819SOL    HW165771   9.736   2.777  10.435  0.6513  2.0278  0.7100
51819SOL    HW265772   9.838   2.826  10.535  1.5602 -1.5200  1.6635
51820SOL     OW65773   3.428   9.271   8.921  0.3393  0.0177 -0.5301
51820SOL    HW165774   3.421   9.336   8.990  0.1431  1.2126 -1.6433
51820SOL    HW265775   3.518   9.278   8.889 -0.1305  0.9187 -1.7390
51821SOL     OW65776   8.283   0.429   9.235  0.0248  0.3471 -0.1646
51821SOL    HW165777   8.261   0.356   9.177 -0.6155  0.1585  0.3068
51821SOL    HW265778   8.378   0.423   9.245  0.2546  0.8242 -1.7562
51822SOL     OW65779   8.466   9.111   0.633  0.2493 -0.0025 -0.7406
51822SOL    HW165780   8.526   9.184   0.618 -0.2542  0.5510 -0.1127
51822SOL    HW265781   8.461   9.103   0.728 -0.0162 -0.5954 -0.8015
51823SOL     OW65782   1.682  12.888  10.695 -0.0625  0.1693 -0.0947
51823SOL    HW165783   1.761  12.936  10.669 -0.0306  0.2578  0.1603
51823SOL    HW265784   1.679  12.813  10.636 -0.1911  0.5598 -0.5936
51824SOL     OW65785  12.374  12.220   4.118  0.2111 -0.3371 -0.4166
51824SOL    HW165786  12.395  12.143   4.066  1.3843 -1.4507  1.5853
51824SOL    HW265787  12.450  12.278   4.106 -0.1452  0.0333 -0.9839
51825SOL     OW65788   8.855   8.510   0.916  0.2633  0.2819  0.0310
51825SOL    HW165789   8.932   8.454   0.925  1.0363  1.3464  0.2611
51825SOL    HW265790   8.791   8.455   0.871  0.6866 -1.0618  0.9753
51826SOL     OW65791   8.779   1.097   0.655 -0.0699 -0.2571 -0.2278
51826SOL    HW165792   8.860   1.145   0.672 -1.2196  1.2100  1.4979
51826SOL    HW265793   8.791   1.014   0.702  0.1161  0.2977  0.7377
51827SOL     OW65794   2.209   2.492  12.156  0.0928  0.2164 -0.2106
51827SOL    HW165795   2.128   2.490  12.105  1.0076 -1.6617 -1.7148
51827SOL    HW265796   2.196   2.425  12.224  1.3992 -2.3194 -2.2915
51828SOL     OW65797   9.032   6.908   6.917  0.2508  0.5692  0.8581
51828SOL    HW165798   9.046   6.857   6.836  0.0279 -0.9781  1.7484
51828SOL    HW265799   9.115   6.902   6.964  0.7182  2.3306  0.3218
51829SOL     OW65800   1.341  12.826   4.252  0.0364  0.1653 -0.0004
51829SOL    HW165801   1.333  12.862   4.164  0.7716  1.1184  0.3054
51829SOL    HW265802   1.393  12.891   4.300  0.2059 -0.6492  0.9531
51830SOL     OW65803   8.464   7.015   4.956  0.3659  0.2533 -0.4239
51830SOL    HW165804   8.473   6.990   5.048  0.8420  0.8024 -0.3099
51830SOL    HW265805   8.441   7.108   4.959 -0.1380  0.1436 -0.8535
51831SOL     OW65806  10.897   7.467   2.595 -0.2127  0.0199 -0.1696
51831SOL    HW165807  10.858   7.528   2.532  1.4945 -0.9784 -2.3475
51831SOL    HW265808  10.912   7.387   2.544 -1.6555 -2.0224  2.3728
51832SOL     OW65809   4.083   3.991   2.486 -0.4423  0.1193  0.4926
51832SOL    HW165810   3.992   3.968   2.467 -1.4769  0.8157  3.8563
51832SOL    HW265811   4.114   3.921   2.544  0.2572  1.1850  1.4474
51833SOL     OW65812   1.935   0.128  10.368  0.4040 -0.1226  0.4102
51833SOL    HW165813   1.894   0.175  10.295 -0.8530 -1.2430  0.3552
51833SOL    HW265814   2.002   0.074  10.326  0.7329  0.3849  0.2761
51834SOL     OW65815  12.546   9.351   1.086 -0.1308  0.4791 -0.4827
51834SOL    HW165816  12.607   9.396   1.146  0.1791  0.0316 -0.4580
51834SOL    HW265817  12.572   9.259   1.091 -0.3704  0.3834 -0.9973
51835SOL     OW65818   3.547   2.708   5.337  0.3138 -0.2011 -0.1727
51835SOL    HW165819   3.546   2.639   5.404 -0.4371 -0.3575 -0.3349
51835SOL    HW265820   3.462   2.700   5.293  1.4399 -1.2364 -2.3004
51836SOL     OW65821   8.880   3.214   2.020  0.6433 -1.1112  0.0835
51836SOL    HW165822   8.813   3.151   1.993  1.0052 -1.9506  1.0741
51836SOL    HW265823   8.963   3.167   2.009  0.9191 -0.8146  0.8474
51837SOL     OW65824   9.792   5.226   0.219 -0.0682  0.5674  0.9535
51837SOL    HW165825   9.736   5.278   0.276 -0.2869  0.4004  0.8915
51837SOL    HW265826   9.877   5.225   0.263  0.1363  1.5602  0.6050
51838SOL     OW65827   7.743   6.225   5.221 -0.5296 -0.2792  0.2431
51838SOL    HW165828   7.667   6.276   5.251 -2.9320 -2.2407 -2.0664
51838SOL    HW265829   7.801   6.290   5.182 -1.1250  1.2453  1.7425
51839SOL     OW65830   5.212  11.853   9.502  0.3531  0.6063  0.0531
51839SOL    HW165831   5.181  11.789   9.437 -0.6058  1.0818  0.0223
51839SOL    HW265832   5.173  11.824   9.584 -0.3762  1.3405 -0.0246
51840SOL     OW65833   0.353   1.907   2.172  0.1647  0.2085  0.0309
51840SOL    HW165834   0.308   1.949   2.245  1.5557 -1.6757  2.1129
51840SOL    HW265835   0.368   1.977   2.109 -1.4147  1.8371  1.3768
51841SOL     OW65836   1.881   6.648   6.645  0.5152 -0.2752 -0.1893
51841SOL    HW165837   1.973   6.641   6.673  0.2789  1.0522  1.0125
51841SOL    HW265838   1.883   6.709   6.572  0.5631 -0.0184  0.0237
51842SOL     OW65839   2.039  11.130   0.358  0.2462  0.2941  0.1183
51842SOL    HW165840   2.068  11.063   0.421 -3.2432 -1.1729  0.3869
51842SOL    HW265841   1.949  11.149   0.383 -0.2948  1.8864 -2.6708
51843SOL     OW65842   2.412   3.378   5.371  0.3607 -0.3820  0.0754
51843SOL    HW165843   2.334   3.430   5.352  0.2126 -0.6806 -0.1363
51843SOL    HW265844   2.425   3.388   5.466 -0.3472 -0.9007  0.2317
51844SOL     OW65845   5.507   7.614  10.816  0.0271  0.8428  0.1732
51844SOL    HW165846   5.567   7.687  10.802  1.2038  0.1570  1.4510
51844SOL    HW265847   5.526   7.553  10.745  1.4796  0.2494  1.0311
51845SOL     OW65848   6.777   9.292  12.298 -0.1686  0.0325 -0.5981
51845SOL    HW165849   6.702   9.248  12.259 -0.8963 -1.1406  1.9475
51845SOL    HW265850   6.747   9.382  12.313 -0.5090 -0.0063 -1.0358
51846SOL     OW65851   0.038   2.269   7.065 -0.3066  0.1001 -0.4198
51846SOL    HW165852  -0.016   2.275   6.986  0.9541 -0.5161 -1.3660
51846SOL    HW265853  -0.010   2.209   7.123 -1.4255  0.8476 -0.5338
51847SOL     OW65854  10.425   5.728   6.645 -0.3269  0.7352 -0.1169
51847SOL    HW165855  10.433   5.761   6.734 -1.0747 -2.1506  1.1436
51847SOL    HW265856  10.331   5.733   6.627 -0.2343  0.8686 -0.5706
51848SOL     OW65857  10.590   2.423   7.676  0.8531  0.2356 -0.0544
51848SOL    HW165858  10.617   2.331   7.679 -0.5003 -0.2197 -1.0852
51848SOL    HW265859  10.650   2.464   7.614 -0.6286 -0.7443 -2.2432
51849SOL     OW65860   1.231  10.306   8.486 -0.1659  0.6562 -0.5712
51849SOL    HW165861   1.140  10.298   8.513 -0.4428  3.2694 -0.5020
51849SOL    HW265862   1.281  10.278   8.563 -0.7435 -3.0049 -1.3128
51850SOL     OW65863  11.708   6.662   6.023  0.0289 -0.3240  0.3635
51850SOL    HW165864  11.763   6.741   6.022 -1.0263  0.4311  0.3959
51850SOL    HW265865  11.723   6.624   6.109 -1.0775  1.0373  1.1954
51851SOL     OW65866  12.198  11.659   4.195 -0.1348  0.2767 -0.1562
51851SOL    HW165867  12.209  11.619   4.281 -1.6501 -0.8400 -0.4411
51851SOL    HW265868  12.212  11.588   4.132  2.1119  1.3228 -0.9478
51852SOL     OW65869   5.976   0.031   1.950 -0.3468  0.7156  0.7792
51852SOL    HW165870   5.917  -0.044   1.941  1.6589 -1.0219  1.2237
51852SOL    HW265871   6.053   0.008   1.897 -0.4399  3.3880 -0.7040
51853SOL     OW65872   0.075  10.877  12.099  0.1711 -0.2071  0.0799
51853SOL    HW165873   0.141  10.818  12.136 -0.7485 -0.6574  1.0627
51853SOL    HW265874   0.086  10.959  12.147  0.4627 -0.0488 -0.2483
51854SOL     OW65875  10.335  11.969   0.558 -0.1752  0.2414 -0.3076
51854SOL    HW165876  10.322  11.951   0.465  1.4524 -0.9077 -0.3479
51854SOL    HW265877  10.393  12.045   0.560  0.9049 -0.5664 -0.2714
51855SOL     OW65878  10.415   7.808  11.613  0.7317 -0.0260 -0.3185
51855SOL    HW165879  10.424   7.760  11.531 -1.1897 -0.1654 -0.4940
51855SOL    HW265880  10.356   7.880  11.592 -0.9171 -0.8470  1.1958
51856SOL     OW65881  11.739   8.753  12.200  0.0134 -0.0350  0.1333
51856SOL    HW165882  11.758   8.808  12.124  0.0492 -0.0001  0.1672
51856SOL    HW265883  11.648   8.725  12.188 -0.0665  0.1922  0.2159
51857SOL     OW65884   9.242   5.409   2.065 -0.1535 -0.0324 -0.2405
51857SOL    HW165885   9.189   5.458   2.002  1.7338  1.6970 -0.5784
51857SOL    HW265886   9.190   5.410   2.146 -1.7552 -0.6638 -1.2210
51858SOL     OW65887   1.282   3.955   7.996  0.3154 -0.0356 -0.3587
51858SOL    HW165888   1.378   3.956   8.003  0.3677  0.0985 -1.0277
51858SOL    HW265889   1.257   4.047   7.990  0.1336 -0.0660 -0.0955
51859SOL     OW65890  10.486   7.139  10.108  0.2010 -0.1182  0.5410
51859SOL    HW165891  10.487   7.047  10.131 -2.8102 -0.1435  0.9981
51859SOL    HW265892  10.450   7.183  10.185  0.2685  1.2515 -0.1758
51860SOL     OW65893   3.316   5.105   8.313 -0.4054  0.1521 -0.0491
51860SOL    HW165894   3.235   5.073   8.275 -1.3612  1.0759  1.1360
51860SOL    HW265895   3.364   5.142   8.238 -0.3996 -1.6714 -1.0022
51861SOL     OW65896   0.517  12.477   8.103 -0.2751  0.0300  0.0841
51861SOL    HW165897   0.566  12.513   8.029  0.4237 -1.3769 -0.1628
51861SOL    HW265898   0.551  12.524   8.179  0.7560 -0.2273 -0.2032
51862SOL     OW65899   5.763   3.714   8.307 -0.4675  0.3834  0.2717
51862SOL    HW165900   5.804   3.722   8.393 -0.4901 -1.2921  0.4622
51862SOL    HW265901   5.762   3.804   8.273 -1.1543  1.1958  2.3086
51863SOL     OW65902  11.285   8.804   5.841 -0.0468 -0.4781 -0.1914
51863SOL    HW165903  11.275   8.716   5.806 -1.6367  0.3802 -2.0266
51863SOL    HW265904  11.305   8.858   5.765 -0.2781  0.9419  0.7248
51864SOL     OW65905   2.088   1.066  10.038 -0.0475 -0.0035  0.0278
51864SOL    HW165906   2.171   1.030  10.067 -0.6543 -1.1644  0.3953
51864SOL    HW265907   2.050   1.105  10.117 -0.1518 -0.0842  0.0180
51865SOL     OW65908   1.908   9.463   3.708  0.3857 -0.6345  0.1563
51865SOL    HW165909   1.879   9.472   3.799  1.6187 -0.3808  0.5342
51865SOL    HW265910   1.851   9.394   3.672  0.7378 -1.6597  1.4924
51866SOL     OW65911   3.235   8.592   7.803 -0.8929  1.0081  0.2674
51866SOL    HW165912   3.193   8.672   7.773 -0.4946  0.6913 -1.2368
51866SOL    HW265913   3.314   8.621   7.848 -0.7540  1.4569 -0.2599
51867SOL     OW65914   6.961   9.027  11.839 -0.3274  0.3595 -0.1690
51867SOL    HW165915   6.885   8.981  11.874 -0.0958 -0.8382 -1.1626
51867SOL    HW265916   7.017   9.041  11.915 -0.8747 -0.0840  0.3295
51868SOL     OW65917  11.136   0.793  10.537  0.3806 -0.5564 -0.0669
51868SOL    HW165918  11.082   0.737  10.593 -0.7235 -0.2182 -0.7728
51868SOL    HW265919  11.125   0.758  10.449  1.7265 -0.7865 -0.1717
51869SOL     OW65920  12.244  11.388  12.393  0.0518  0.6140 -0.4882
51869SOL    HW165921  12.170  11.448  12.385  0.3797  1.1420  0.3918
51869SOL    HW265922  12.310  11.437  12.442 -0.1842 -0.9142  1.4657
51870SOL     OW65923   3.668   4.305   3.908  0.4456  0.2360  0.1349
51870SOL    HW165924   3.719   4.361   3.967  2.0478 -0.1047 -0.8558
51870SOL    HW265925   3.656   4.359   3.829 -2.1330  0.8880  0.8855
51871SOL     OW65926   4.070   3.118   9.009 -0.1376 -0.3508  0.9572
51871SOL    HW165927   4.095   3.190   8.951  1.8550 -1.5140  0.2813
51871SOL    HW265928   4.022   3.057   8.953 -0.2149 -0.4248  1.1006
51872SOL     OW65929   0.782   7.597   6.116 -0.1390 -0.0337  0.0920
51872SOL    HW165930   0.816   7.642   6.039 -0.6490  0.3853  0.1068
51872SOL    HW265931   0.853   7.603   6.180 -0.6010  1.7634  0.4952
51873SOL     OW65932  12.069  10.041   5.245 -0.0158  0.7248 -0.5200
51873SOL    HW165933  12.159  10.048   5.212  0.3530 -0.8631  0.0617
51873SOL    HW265934  12.054  10.124   5.290  1.1181  1.0485 -0.6967
51874SOL     OW65935  10.716   1.029   1.634  0.3890  0.1572  0.0625
51874SOL    HW165936  10.657   1.056   1.563 -0.3752  1.2383  1.0614
51874SOL    HW265937  10.795   1.080   1.620  1.6920 -2.2320 -2.0342
51875SOL     OW65938  12.298   1.660  11.363 -0.0266  0.3258 -0.3134
51875SOL    HW165939  12.247   1.721  11.310 -0.7765 -1.4810 -1.7879
51875SOL    HW265940  12.232   1.605  11.406  0.6196 -1.3029 -1.3347
51876SOL     OW65941   9.073   8.692   6.112 -0.0140  0.4063 -0.0410
51876SOL    HW165942   8.996   8.635   6.107  0.9839 -0.9941 -0.0392
51876SOL    HW265943   9.043   8.775   6.076 -1.8811  0.3015  1.1379
51877SOL     OW65944   1.053   8.964   5.718  0.7918  0.2708 -0.4854
51877SOL    HW165945   1.008   9.035   5.670  0.9972  1.5448  1.1210
51877SOL    HW265946   0.983   8.920   5.766  0.9067  0.6239  0.0141
51878SOL     OW65947   0.505  12.457   6.333  0.0286 -0.1942 -0.6803
51878SOL    HW165948   0.475  12.375   6.295  1.1072 -1.0674  0.2559
51878SOL    HW265949   0.453  12.466   6.413 -0.8232  0.5988 -1.3026
51879SOL     OW65950   2.887   5.597   6.421  0.3919  0.3591 -0.0579
51879SOL    HW165951   2.959   5.549   6.380  1.8370 -0.0511  2.6728
51879SOL    HW265952   2.928   5.677   6.455 -0.8634  1.0353 -0.0877
51880SOL     OW65953   0.462  11.177  12.639 -0.0401 -0.2609 -0.5483
51880SOL    HW165954   0.514  11.215  12.569 -0.2016  1.1838  0.0877
51880SOL    HW265955   0.372  11.205  12.621 -0.0559  0.3040  0.3319
51881SOL     OW65956  10.252  12.240   2.420 -0.4254 -0.3336 -0.4310
51881SOL    HW165957  10.317  12.170   2.433  0.6758  0.7580  0.1551
51881SOL    HW265958  10.256  12.259   2.326  1.1625  0.6714 -0.1981
51882SOL     OW65959   9.550   0.838   9.178 -0.0659  0.4490  0.2401
51882SOL    HW165960   9.609   0.905   9.144  1.6714  0.4634  2.9840
51882SOL    HW265961   9.537   0.777   9.105  1.1992  1.8635 -1.2300
51883SOL     OW65962   2.582   5.132   9.525 -0.5287  0.5307  0.0217
51883SOL    HW165963   2.614   5.153   9.612  0.5225  0.8936 -0.4371
51883SOL    HW265964   2.658   5.095   9.479 -0.5355  2.0744 -1.3203
51884SOL     OW65965   9.546  10.108   1.769  0.2354 -0.4420 -0.1004
51884SOL    HW165966   9.633  10.145   1.786 -0.0047  0.5387 -0.8820
51884SOL    HW265967   9.520  10.146   1.685 -0.6861 -1.2211 -0.1811
51885SOL     OW65968  10.480   1.983   6.982  0.1959  0.2531 -0.2442
51885SOL    HW165969  10.394   1.943   6.975 -0.0239  0.9140 -1.6332
51885SOL    HW265970  10.466   2.075   6.962  1.0600  0.5831  0.5955
51886SOL     OW65971  11.371   8.442   1.968 -0.4116 -0.4533 -0.2463
51886SOL    HW165972  11.338   8.452   2.058 -0.4767  0.7168 -0.3838
51886SOL    HW265973  11.343   8.355   1.942  0.9608 -1.4703  1.4237
51887SOL     OW65974  12.891   4.463  10.732 -0.6890 -0.1817 -0.0302
51887SOL    HW165975  12.884   4.369  10.718 -0.5100 -0.3160  0.7327
51887SOL    HW265976  12.851   4.502  10.654  0.9242 -0.8620 -1.2488
51888SOL     OW65977   1.835  12.759  12.057 -0.2450  0.2876 -0.0452
51888SOL    HW165978   1.877  12.690  12.005 -1.1725  0.9413 -1.7491
51888SOL    HW265979   1.904  12.790  12.115  0.2365 -1.9454  0.6734
51889SOL     OW65980  10.557   3.934   6.070  0.1384 -0.1202 -0.5443
51889SOL    HW165981  10.483   3.955   6.012 -1.1279 -2.6479  0.0216
51889SOL    HW265982  10.593   3.853   6.035  1.2229 -0.1256  0.5146
51890SOL     OW65983  10.191   2.304   1.424 -0.3761 -0.5002  0.2245
51890SOL    HW165984  10.160   2.362   1.494  1.3440  1.0039 -0.1692
51890SOL    HW265985  10.266   2.259   1.463 -1.0900 -1.7257  0.1992
51891SOL     OW65986   2.201   5.578   1.854 -0.1697 -0.1142  0.0331
51891SOL    HW165987   2.122   5.632   1.852 -0.3542 -0.3539 -2.2585
51891SOL    HW265988   2.271   5.638   1.880 -0.6705  0.7825 -0.6531
51892SOL     OW65989   7.984   8.120   7.695 -0.0419  0.4905 -0.4182
51892SOL    HW165990   7.931   8.045   7.720  0.8064  0.2862  0.8690
51892SOL    HW265991   7.936   8.161   7.624 -1.3158 -0.3521 -0.0702
51893SOL     OW65992   8.230   7.079   4.211 -0.3473  0.0691 -0.0651
51893SOL    HW165993   8.269   7.023   4.145 -0.3254  0.8033 -0.6836
51893SOL    HW265994   8.240   7.168   4.177  2.6835  0.8357  2.4003
51894SOL     OW65995   7.550   8.518   7.009  0.0594 -0.2811  0.3238
51894SOL    HW165996   7.603   8.439   7.022  1.7023  0.5277 -1.1294
51894SOL    HW265997   7.585   8.581   7.072 -2.2098 -1.0533  2.5294
51895SOL     OW65998  10.805  11.631  12.912  1.0729 -0.6123  0.1990
51895SOL    HW165999  10.777  11.626  13.003 -0.1126 -0.1113 -0.1178
51895SOL    HW266000  10.784  11.544  12.876  0.2591 -0.3797  0.0755
51896SOL     OW66001   5.989   1.097   5.408  0.6765  0.7570  0.5066
51896SOL    HW166002   5.968   1.122   5.318  0.2332 -0.9113  0.1222
51896SOL    HW266003   5.904   1.079   5.448  0.9662 -0.1222  0.7498
51897SOL     OW66004  12.525   7.975   6.347  0.0522 -0.1255  0.4137
51897SOL    HW166005  12.552   8.067   6.346 -3.0006  0.8879  1.5337
51897SOL    HW266006  12.534   7.947   6.256 -0.1876  1.6661 -0.2080
51898SOL     OW66007  12.182   7.023   8.483  0.9279  0.0587  0.5328
51898SOL    HW166008  12.250   7.053   8.423 -0.1731  1.3414 -0.1288
51898SOL    HW266009  12.196   6.929   8.489  2.1596  0.1532 -0.3415
51899SOL     OW66010   2.388  11.441  12.214 -0.3218  0.0467 -0.4445
51899SOL    HW166011   2.294  11.442  12.234 -1.0567  2.2383 -3.3387
51899SOL    HW266012   2.403  11.354  12.176 -1.7091  0.3439 -1.7828
51900SOL     OW66013   7.222   6.488   5.465  0.4733 -0.1565 -0.1367
51900SOL    HW166014   7.166   6.412   5.448 -0.2867  0.5879 -1.1213
51900SOL    HW266015   7.242   6.522   5.378 -0.8194  1.8982  0.3156
51901SOL     OW66016   2.278   8.802   2.723  0.2945  0.4644  0.2224
51901SOL    HW166017   2.373   8.796   2.731  0.1649  0.3209  2.0608
51901SOL    HW266018   2.255   8.739   2.655  1.6005  1.4390 -1.1837
51902SOL     OW66019  10.158   5.080   6.414 -0.4492 -0.0043 -0.0557
51902SOL    HW166020  10.089   5.068   6.479 -2.7091  3.5663 -1.5029
51902SOL    HW266021  10.138   5.014   6.347 -2.4795  0.8210 -0.3559
51903SOL     OW66022   6.885  12.983   8.190 -0.1425 -0.0189 -0.3274
51903SOL    HW166023   6.901  13.008   8.099  0.4359  0.0432 -0.2113
51903SOL    HW266024   6.972  12.983   8.231 -0.2370 -1.2916 -0.0843
51904SOL     OW66025   0.788   3.016  11.286 -0.0129 -0.1940  0.0036
51904SOL    HW166026   0.837   3.069  11.223 -1.0252 -0.0124 -0.6672
51904SOL    HW266027   0.803   3.059  11.370 -0.6865  1.0976 -0.5071
51905SOL     OW66028   1.940   3.963   4.442  0.1700 -0.1099  0.1003
51905SOL    HW166029   1.860   3.929   4.482 -0.1548  0.0275 -0.4178
51905SOL    HW266030   1.917   4.051   4.414  1.0118  0.5589  1.4433
51906SOL     OW66031   9.864   2.868   3.479  0.4989  0.2422 -0.0810
51906SOL    HW166032   9.931   2.809   3.445  0.7219  0.2772  0.2920
51906SOL    HW266033   9.781   2.823   3.465  0.6004  0.2042 -0.5588
51907SOL     OW66034   9.516   8.750   6.548 -0.4492  0.5740  0.4771
51907SOL    HW166035   9.572   8.672   6.544 -2.1735 -0.6931 -1.2380
51907SOL    HW266036   9.495   8.761   6.641 -0.9154 -1.6310  0.6907
51908SOL     OW66037   8.793   2.912   8.565 -0.1964  0.2280 -0.1184
51908SOL    HW166038   8.817   2.911   8.658 -0.9133  0.0152  0.0692
51908SOL    HW266039   8.872   2.883   8.520  0.7709  2.0764  0.2761
51909SOL     OW66040   5.361   7.494   8.273 -0.3192  0.3545 -0.2819
51909SOL    HW166041   5.421   7.465   8.342  0.0146 -0.9042 -1.0665
51909SOL    HW266042   5.377   7.434   8.200 -2.7162 -0.2071 -0.4379
51910SOL     OW66043  10.369   9.656   8.697 -0.5048  0.2877 -0.1559
51910SOL    HW166044  10.368   9.574   8.745 -0.9423 -0.7888 -1.9107
51910SOL    HW266045  10.428   9.640   8.623  0.1254  1.8619 -0.0386
51911SOL     OW66046   7.341  10.105   9.097 -0.7604  0.1301 -0.3699
51911SOL    HW166047   7.370  10.049   9.169  0.5195  1.6250  0.3150
51911SOL    HW266048   7.249  10.124   9.117 -0.5828  0.0504  0.5668
51912SOL     OW66049   6.332   8.734   2.693 -0.3220 -0.1213 -0.3534
51912SOL    HW166050   6.319   8.739   2.599 -1.7908  2.6194 -0.1147
51912SOL    HW266051   6.427   8.727   2.704 -0.2254 -2.7136 -1.9730
51913SOL     OW66052  10.834   7.771   5.976  0.2189  0.4454  0.1944
51913SOL    HW166053  10.782   7.798   5.900 -0.1297 -0.6137  0.0455
51913SOL    HW266054  10.830   7.846   6.035  1.8815  1.9807 -1.5122
51914SOL     OW66055  12.959   1.780   3.395 -0.2069 -0.3723  0.1151
51914SOL    HW166056  13.018   1.785   3.320 -1.7746 -0.7340 -1.2088
51914SOL    HW266057  12.992   1.706   3.446 -0.2768 -1.4592 -1.3310
51915SOL     OW66058   6.114  12.549  10.515  0.1422 -0.1543 -0.0257
51915SOL    HW166059   6.059  12.625  10.533  0.1518  0.0421 -0.8009
51915SOL    HW266060   6.138  12.557  10.423 -1.7926 -2.3305 -0.8137
51916SOL     OW66061  10.789   9.752   3.138  0.2108 -0.0121  0.6256
51916SOL    HW166062  10.726   9.738   3.068  0.2291  0.8349  0.4358
51916SOL    HW266063  10.819   9.664   3.161  0.3381 -0.2884 -0.5469
51917SOL     OW66064   3.263  12.295   6.346  0.2711 -0.0732  0.4540
51917SOL    HW166065   3.183  12.284   6.294 -0.5549  3.8110  0.5767
51917SOL    HW266066   3.332  12.255   6.292 -0.6110  3.2169 -3.6342
51918SOL     OW66067   3.671   6.784  12.571  0.1201 -0.5388  0.1858
51918SOL    HW166068   3.644   6.702  12.613 -0.6236  0.1343  1.0747
51918SOL    HW266069   3.761   6.768  12.543  0.0824 -1.5697  0.5882
51919SOL     OW66070   4.824   8.182   5.292 -0.0763  0.3713  0.1949
51919SOL    HW166071   4.784   8.100   5.262 -0.5234  0.4251  0.6379
51919SOL    HW266072   4.757   8.223   5.346  0.5951  0.4450  0.9852
51920SOL     OW66073   3.784   6.772   1.473  0.2560 -0.8855  0.1986
51920SOL    HW166074   3.856   6.764   1.411 -0.2255  1.5980 -0.7656
51920SOL    HW266075   3.705   6.753   1.421 -0.1041  0.6672  0.1415
51921SOL     OW66076   7.923   8.788  12.089 -0.0429 -0.2815 -0.0730
51921SOL    HW166077   7.919   8.753  12.000 -1.4559 -0.8744  0.1946
51921SOL    HW266078   7.981   8.727  12.136  1.3512  0.4802 -0.7426
51922SOL     OW66079  10.685   9.759   2.872 -0.1591 -0.9389 -0.6323
51922SOL    HW166080  10.590   9.765   2.861 -0.0231 -0.7917 -1.8830
51922SOL    HW266081  10.702   9.668   2.894 -0.7758 -0.5055  1.9562
51923SOL     OW66082   5.028  12.824   5.247 -0.1600  0.1556  0.5908
51923SOL    HW166083   5.101  12.820   5.185  1.0751  0.8770  1.9377
51923SOL    HW266084   4.968  12.756   5.218  0.3809  0.4596 -1.3703
51924SOL     OW66085   8.758   1.318   1.564 -0.4772  0.0848 -0.2309
51924SOL    HW166086   8.789   1.266   1.638 -2.0892 -1.3033 -0.4843
51924SOL    HW266087   8.816   1.395   1.563  2.1878 -1.7907 -0.0385
51925SOL     OW66088   2.525   5.648   1.683 -0.5461 -0.2988 -0.2156
51925SOL    HW166089   2.455   5.639   1.619 -0.9624 -2.6301  0.4776
51925SOL    HW266090   2.482   5.683   1.762 -0.7542 -0.8782 -0.0714
51926SOL     OW66091   3.963   8.641   4.060 -0.0947 -0.1015  0.1573
51926SOL    HW166092   3.988   8.606   3.974  1.9995 -0.0917  0.6991
51926SOL    HW266093   3.965   8.565   4.118 -0.4899  0.0755  0.4089
51927SOL     OW66094   5.650   2.506   5.164 -0.1299 -0.2694  0.3902
51927SOL    HW166095   5.588   2.487   5.234 -0.5831 -1.9247 -0.3967
51927SOL    HW266096   5.665   2.421   5.122  2.6399  0.0658  0.4978
51928SOL     OW66097  10.972  12.206   6.621 -0.0992 -0.6777 -0.1009
51928SOL    HW166098  11.050  12.164   6.659 -0.2099 -1.4600 -0.7071
51928SOL    HW266099  10.970  12.174   6.531 -0.2488  0.5716 -0.5570
51929SOL     OW66100   7.826   7.087   4.111 -0.0879  0.3820  0.0546
51929SOL    HW166101   7.862   7.080   4.200 -1.0447  1.1220  0.5115
51929SOL    HW266102   7.820   6.996   4.081 -0.1623  0.0947  0.9030
51930SOL     OW66103   5.665   2.540   4.286  0.4647  0.2904  0.4579
51930SOL    HW166104   5.739   2.482   4.272 -0.1069 -0.1130 -1.1264
51930SOL    HW266105   5.596   2.505   4.229 -0.7184  1.0495  1.3792
51931SOL     OW66106   0.163   4.954  12.537  0.1754 -0.7268 -0.0742
51931SOL    HW166107   0.112   4.914  12.467  0.0787 -1.1973  0.2623
51931SOL    HW266108   0.114   5.033  12.562 -0.0433 -0.8263 -0.1967
51932SOL     OW66109   9.664   4.394   1.747 -0.1759 -0.4716 -0.1640
51932SOL    HW166110   9.748   4.429   1.717  0.1319 -0.3035  0.8524
51932SOL    HW266111   9.672   4.299   1.738 -0.0152 -0.4329 -0.4269
51933SOL     OW66112   3.570   5.717   0.759  0.1922 -0.2555  0.4250
51933SOL    HW166113   3.541   5.808   0.759 -0.5204 -0.4194  3.0430
51933SOL    HW266114   3.654   5.718   0.805  0.5234 -0.8442 -0.1547
51934SOL     OW66115   8.672   0.743   8.435 -0.0924  0.4234  0.5190
51934SOL    HW166116   8.717   0.825   8.412  0.7950 -0.9528 -3.4586
51934SOL    HW266117   8.589   0.748   8.388 -0.0598 -0.8879  0.2904
51935SOL     OW66118   1.758  12.734   4.095  0.6972 -0.2491  0.4634
51935SOL    HW166119   1.741  12.670   4.025 -0.0002  1.9075 -1.4596
51935SOL    HW266120   1.695  12.804   4.079  0.4533  0.2930  3.3878
51936SOL     OW66121   0.403  11.837  10.480  0.2150 -0.0470 -0.0376
51936SOL    HW166122   0.362  11.858  10.564  2.1243 -1.7321  1.4112
51936SOL    HW266123   0.486  11.886  10.481  0.4144 -0.3623 -0.7881
51937SOL     OW66124   7.530   5.260   4.302  0.3912  0.3333  0.1884
51937SOL    HW166125   7.496   5.350   4.299 -3.0646 -0.7061  2.2533
51937SOL    HW266126   7.600   5.264   4.367 -2.0501  1.0446  2.9814
51938SOL     OW66127   3.793   0.535   4.935 -0.1080  0.1400 -0.2641
51938SOL    HW166128   3.712   0.559   4.891 -0.0253 -0.8657 -0.9955
51938SOL    HW266129   3.806   0.443   4.913  0.6463 -0.0189  0.7717
51939SOL     OW66130   7.603   3.830   4.118  0.1944 -0.2126  0.4175
51939SOL    HW166131   7.551   3.756   4.086  0.1477 -0.2298  0.5330
51939SOL    HW266132   7.693   3.797   4.121  0.8009  0.7313 -2.8446
51940SOL     OW66133   3.516   2.442   0.115  0.0020 -0.2658  0.9489
51940SOL    HW166134   3.434   2.392   0.111 -0.3801  0.4272 -0.4957
51940SOL    HW266135   3.578   2.381   0.156 -0.3197 -2.1440 -1.1549
51941SOL     OW66136   5.210   1.558   7.523 -0.3184 -0.3813 -0.1244
51941SOL    HW166137   5.206   1.545   7.618  1.6305  1.5348  0.3057
51941SOL    HW266138   5.121   1.584   7.498 -0.7123 -0.3207  1.2636
51942SOL     OW66139   0.845  12.026   9.269  1.0060  0.3614 -0.3931
51942SOL    HW166140   0.923  12.081   9.273  2.3185 -1.4617  0.8371
51942SOL    HW266141   0.877  11.937   9.287 -1.5366 -0.2595  1.7865
51943SOL     OW66142   4.259  10.809   6.694 -0.1674  0.0391 -0.0633
51943SOL    HW166143   4.307  10.727   6.687 -0.5060 -0.2923  1.2451
51943SOL    HW266144   4.231  10.813   6.785 -3.2185 -0.1035 -0.8860
51944SOL     OW66145  12.463   5.396   0.138  0.9012  0.3237 -0.2065
51944SOL    HW166146  12.433   5.425   0.225  1.2985  1.2159 -0.3510
51944SOL    HW266147  12.424   5.310   0.127 -0.7669  0.9990  0.0468
51945SOL     OW66148   4.394   6.926  11.816 -0.6234 -0.3817  0.1070
51945SOL    HW166149   4.454   6.852  11.829 -0.4418 -0.6163 -1.8141
51945SOL    HW266150   4.443   7.002  11.847  0.1971 -0.7415 -0.2773
51946SOL     OW66151   0.565  10.303   6.722  0.1828 -0.4074 -0.4135
51946SOL    HW166152   0.472  10.315   6.740 -0.0719 -1.4568 -0.9733
51946SOL    HW266153   0.571  10.298   6.626  0.8477 -0.1694 -0.3939
51947SOL     OW66154   9.067  12.028   8.248 -0.1066 -0.0769  0.3869
51947SOL    HW166155   9.047  11.978   8.170 -0.8852  0.1221  0.4536
51947SOL    HW266156   9.008  11.993   8.315 -1.9693  2.0770 -0.0025
51948SOL     OW66157   9.594   6.903   1.020  0.2499  0.2610 -0.2144
51948SOL    HW166158   9.503   6.927   1.039 -0.4299  0.0012 -2.7504
51948SOL    HW266159   9.623   6.968   0.955  2.0399  0.5669  0.8123
51949SOL     OW66160  11.350   8.463   8.515  0.0340  0.1983  0.1914
51949SOL    HW166161  11.413   8.435   8.581 -1.9583 -3.5102  0.7986
51949SOL    HW266162  11.382   8.425   8.433 -0.2918  0.1772  0.0715
51950SOL     OW66163   9.466   8.230   3.184  0.3640  0.3767 -0.0775
51950SOL    HW166164   9.560   8.235   3.168  0.0651  0.5694 -1.9467
51950SOL    HW266165   9.425   8.255   3.101 -1.3199 -2.0849 -0.1104
51951SOL     OW66166   1.391   0.340   7.505 -0.3375  0.0513  0.7939
51951SOL    HW166167   1.430   0.266   7.552  0.0470 -0.7691 -0.7255
51951SOL    HW266168   1.449   0.414   7.523 -1.4662  0.3913  3.4398
51952SOL     OW66169   3.505   1.648  11.349  0.0755  0.1972  0.3120
51952SOL    HW166170   3.427   1.622  11.299  0.3247  0.5261 -0.2535
51952SOL    HW266171   3.548   1.565  11.370 -0.7526 -0.0298  1.1687
51953SOL     OW66172   3.165  10.683   2.915  0.5349  0.2623 -0.2587
51953SOL    HW166173   3.108  10.749   2.955 -0.0172  0.5363 -1.4298
51953SOL    HW266174   3.119  10.658   2.835  1.5005 -0.4012 -0.6252
51954SOL     OW66175   4.115   8.996   2.992 -0.1594 -0.5558 -0.4134
51954SOL    HW166176   4.069   9.077   3.013  1.1433  0.3513 -0.9040
51954SOL    HW266177   4.069   8.929   3.041 -1.4352  0.4386 -0.1997
51955SOL     OW66178   2.243   3.902  11.486  0.3926 -0.3630 -0.0150
51955SOL    HW166179   2.164   3.929  11.532  0.8343 -0.0489  0.5620
51955SOL    HW266180   2.240   3.806  11.488  0.0247 -0.3531 -0.0037
51956SOL     OW66181   6.148   7.260   3.285 -0.0731 -0.1298  0.0654
51956SOL    HW166182   6.105   7.330   3.335 -2.0784 -0.1041 -1.5729
51956SOL    HW266183   6.221   7.233   3.341 -0.2521  2.0828  1.5185
51957SOL     OW66184   5.710   3.893   1.952 -0.1930 -0.1142  0.0731
51957SOL    HW166185   5.700   3.986   1.930  2.3015  0.2463  0.1557
51957SOL    HW266186   5.770   3.860   1.885 -1.6741 -1.9225 -0.4429
51958SOL     OW66187   8.994   1.602  12.058  0.4253  0.3028 -0.0801
51958SOL    HW166188   8.977   1.531  12.120  0.4673  1.5759  1.4205
51958SOL    HW266189   9.078   1.579  12.018 -0.4477 -1.4612 -1.0714
51959SOL     OW66190   9.945   5.554   1.836 -0.3284  0.2839 -0.0410
51959SOL    HW166191   9.914   5.500   1.909  0.3556  0.2755  0.2509
51959SOL    HW266192   9.933   5.644   1.867 -2.8599  0.3881 -1.0946
51960SOL     OW66193   2.421   7.209   5.817 -0.0440 -0.1998 -0.7105
51960SOL    HW166194   2.504   7.184   5.856  0.1087 -2.3654 -2.2650
51960SOL    HW266195   2.355   7.165   5.869  0.0598 -1.6872 -1.7834
51961SOL     OW66196   7.685  12.910  10.595  0.1149 -0.4527 -0.5541
51961SOL    HW166197   7.774  12.891  10.624  0.5341 -0.3795 -1.7077
51961SOL    HW266198   7.629  12.853  10.648  0.8704 -0.6776  0.0144
51962SOL     OW66199   2.047  12.207   8.104 -0.4854 -0.8532 -0.2959
51962SOL    HW166200   2.009  12.225   8.190  0.2479  2.7074 -0.5440
51962SOL    HW266201   1.973  12.212   8.044 -0.7412 -1.6405 -0.0555
51963SOL     OW66202   9.816  10.277   1.635 -0.0793 -0.1943 -0.6661
51963SOL    HW166203   9.904  10.314   1.639 -0.2392  0.2041 -0.7754
51963SOL    HW266204   9.773  10.324   1.564 -0.3214 -0.5147 -0.7327
51964SOL     OW66205   8.079   6.100   2.625  0.1650  0.7446  0.3517
51964SOL    HW166206   8.135   6.113   2.548 -0.9697  0.5913 -0.5339
51964SOL    HW266207   8.014   6.035   2.597 -1.6973  2.3704  0.6162
51965SOL     OW66208  12.681   3.905   3.393  0.4953  0.5039 -0.5191
51965SOL    HW166209  12.645   3.829   3.348 -0.1536  1.1845 -1.1884
51965SOL    HW266210  12.646   3.899   3.482 -0.6732  0.7389 -0.9461
51966SOL     OW66211   7.656   1.226   6.808  0.1223 -0.1030  0.0614
51966SOL    HW166212   7.656   1.200   6.900  1.3233  0.0060  0.1134
51966SOL    HW266213   7.734   1.281   6.799  0.7951 -1.1919 -1.2961
51967SOL     OW66214   1.548   5.120  10.951  0.3329 -0.2878 -0.2469
51967SOL    HW166215   1.546   5.025  10.951 -1.6614 -0.4136 -3.4291
51967SOL    HW266216   1.462   5.145  10.915  1.4455  2.6025 -1.1758
51968SOL     OW66217   6.999   7.775  10.901  0.1265  0.1589  0.5509
51968SOL    HW166218   7.013   7.716  10.975  0.0637  0.3974  0.7523
51968SOL    HW266219   7.058   7.848  10.917 -0.3541  0.5166  0.6972
51969SOL     OW66220   9.875  10.406   4.086  0.1856  0.2602  0.3555
51969SOL    HW166221   9.952  10.436   4.038  0.8735 -2.1363 -0.1587
51969SOL    HW266222   9.898  10.318   4.116 -2.1477 -0.3121  0.6824
51970SOL     OW66223   2.365   6.073   4.407 -0.4848 -0.0292 -0.4275
51970SOL    HW166224   2.460   6.080   4.402  0.0543 -0.2611  4.5610
51970SOL    HW266225   2.346   5.984   4.378  0.9014 -0.2249 -0.8124
51971SOL     OW66226  12.698  11.135   2.657  0.5399 -0.4219  0.5869
51971SOL    HW166227  12.782  11.120   2.613  0.5913 -0.8551  0.8322
51971SOL    HW266228  12.668  11.048   2.683 -0.1698 -0.3127  0.1677
51972SOL     OW66229   3.107   4.425  11.036 -0.5459 -0.0356 -0.5838
51972SOL    HW166230   3.186   4.479  11.027  0.3697 -1.4046 -1.3099
51972SOL    HW266231   3.047   4.459  10.970  0.4991 -0.6431 -1.9200
51973SOL     OW66232   0.852   5.868  10.211  0.3248 -0.1155 -0.1808
51973SOL    HW166233   0.851   5.964  10.212  1.7689 -0.0791  0.4719
51973SOL    HW266234   0.945   5.845  10.209  0.0409 -1.5075  0.9329
51974SOL     OW66235   5.293  11.013   1.674  0.3679  0.1750  0.2621
51974SOL    HW166236   5.236  10.958   1.620  1.4914 -2.1994  1.3224
51974SOL    HW266237   5.379  11.006   1.633  0.7737  0.1704  1.0913
51975SOL     OW66238   2.836   7.115   3.534  0.5431  0.1807 -0.6640
51975SOL    HW166239   2.806   7.089   3.447 -0.5030  2.0081 -0.9084
51975SOL    HW266240   2.763   7.094   3.592  0.3132  1.0569 -0.6213
51976SOL     OW66241  11.509   8.008   2.606 -0.0933  0.4512  0.0305
51976SOL    HW166242  11.416   8.031   2.614 -0.1769  0.1661 -0.0981
51976SOL    HW266243  11.509   7.929   2.552  0.0188 -1.0203  2.0927
51977SOL     OW66244  11.693   7.054   7.134  0.4885 -0.3177 -0.0265
51977SOL    HW166245  11.631   7.127   7.126  0.5551 -0.4047 -1.6371
51977SOL    HW266246  11.770   7.084   7.087  1.1597 -0.7780  0.7566
51978SOL     OW66247   0.693   7.837   3.178  0.0412  0.0558 -0.4932
51978SOL    HW166248   0.773   7.818   3.226 -0.3687  0.7825  0.5186
51978SOL    HW266249   0.666   7.753   3.141 -0.0707 -0.7062  1.2419
51979SOL     OW66250  10.856   2.481   2.505 -0.0695  0.3059 -0.1742
51979SOL    HW166251  10.894   2.507   2.589  2.4372 -0.5756 -0.9484
51979SOL    HW266252  10.905   2.529   2.439 -1.4455  0.3667 -1.2111
51980SOL     OW66253   0.288   8.596   3.975 -0.3187 -0.3310 -0.0710
51980SOL    HW166254   0.334   8.528   4.024 -1.1795 -1.6044 -0.9514
51980SOL    HW266255   0.357   8.640   3.925  0.1193 -1.3430 -0.3811
51981SOL     OW66256   7.269   4.736   4.524  0.3657  0.0981 -0.1669
51981SOL    HW166257   7.263   4.827   4.552 -0.0536 -0.1914  0.7086
51981SOL    HW266258   7.361   4.724   4.501  0.6382  0.4503  0.7288
51982SOL     OW66259  11.039  11.074   2.793  0.1685 -0.0223  0.1416
51982SOL    HW166260  10.950  11.101   2.773  0.1697 -1.0780 -1.3823
51982SOL    HW266261  11.045  11.081   2.889 -1.0988  1.3604  0.1530
51983SOL     OW66262   6.401  11.215   7.553 -0.1739  0.4377  0.2595
51983SOL    HW166263   6.357  11.137   7.518  1.2007  0.2910 -1.3064
51983SOL    HW266264   6.333  11.282   7.557 -1.0526 -0.4370  0.2298
51984SOL     OW66265  10.159  10.488   0.775 -0.2515  0.1383 -0.4068
51984SOL    HW166266  10.146  10.533   0.858 -0.4911 -0.1804 -0.2728
51984SOL    HW266267  10.085  10.514   0.721  0.4626  1.2148 -0.9124
51985SOL     OW66268  12.419  10.456  12.270  0.5938  0.5828  0.0878
51985SOL    HW166269  12.461  10.533  12.232  1.6412  0.0989  0.2269
51985SOL    HW266270  12.435  10.386  12.206 -3.0591  1.0759 -1.6386
51986SOL     OW66271   9.804  11.543   2.888  0.3216 -0.5106 -0.3547
51986SOL    HW166272   9.786  11.533   2.981  1.2943 -2.6847 -0.3359
51986SOL    HW266273   9.838  11.632   2.879 -1.3668  0.3229  1.0591
51987SOL     OW66274  12.935  11.454  12.527  0.0611 -0.5119 -0.7528
51987SOL    HW166275  12.883  11.468  12.447 -2.0456  0.4555  0.6729
51987SOL    HW266276  13.008  11.400  12.499 -0.4671 -0.0117 -3.3819
51988SOL     OW66277   9.823  12.363  10.942 -0.1366  0.3205  0.3086
51988SOL    HW166278   9.812  12.300  11.013 -1.2022  1.1075  0.8727
51988SOL    HW266279   9.872  12.315  10.875  0.6934 -0.4948  1.4752
51989SOL     OW66280  12.413   6.539   1.239  0.4836 -0.9657 -0.0005
51989SOL    HW166281  12.377   6.466   1.188 -0.4326  0.4842 -1.4899
51989SOL    HW266282  12.348   6.608   1.232  1.9544  0.5120  0.2155
51990SOL     OW66283   9.531   8.659  11.525  0.1159  0.4558  0.0587
51990SOL    HW166284   9.576   8.593  11.578 -1.0316 -2.1230 -1.9070
51990SOL    HW266285   9.438   8.639  11.538 -0.2021  0.3866 -2.0692
51991SOL     OW66286   5.214   9.228   5.612  0.5619 -0.4923  0.2014
51991SOL    HW166287   5.173   9.143   5.597 -2.5848  1.0888 -1.0721
51991SOL    HW266288   5.191   9.281   5.536  3.7173  1.1426  0.2010
51992SOL     OW66289  12.357   4.003   9.655  0.1803 -0.0655 -0.3127
51992SOL    HW166290  12.269   3.993   9.620  0.2391  0.4915 -0.6317
51992SOL    HW266291  12.390   3.914   9.663 -1.2372 -0.4773  2.0152
51993SOL     OW66292  12.251   8.780  11.734 -0.4042 -0.2220 -0.0873
51993SOL    HW166293  12.175   8.723  11.728  0.5801 -1.6489  0.3084
51993SOL    HW266294  12.221   8.857  11.783 -1.8912 -0.1518 -1.0521
51994SOL     OW66295   4.794   6.455   0.923 -0.4765 -0.1770 -0.3485
51994SOL    HW166296   4.783   6.524   0.989 -0.5322 -0.2593 -0.2717
51994SOL    HW266297   4.721   6.395   0.939 -0.2160 -0.4510 -0.1753
51995SOL     OW66298   8.596   4.016   5.175 -0.3330 -0.5965  0.2332
51995SOL    HW166299   8.550   4.065   5.244 -0.6747  2.0732 -1.7324
51995SOL    HW266300   8.689   4.028   5.194 -0.3510 -2.4493  1.8347
51996SOL     OW66301   3.189   7.619   7.561 -0.1708 -0.4832 -0.1189
51996SOL    HW166302   3.154   7.661   7.483  0.5335 -0.3823 -0.3778
51996SOL    HW266303   3.151   7.668   7.634  0.8485  0.7633 -0.4149
51997SOL     OW66304   5.790   0.360  12.847  0.0537  0.0005 -0.2509
51997SOL    HW166305   5.717   0.405  12.804 -0.6744 -1.8392 -1.0166
51997SOL    HW266306   5.757   0.337  12.933 -0.0734 -0.3334 -0.3884
51998SOL     OW66307   1.112   4.780  12.864  0.2110 -0.1531  0.3485
51998SOL    HW166308   1.058   4.793  12.786 -0.2306  3.5943  1.0902
51998SOL    HW266309   1.197   4.752  12.829 -0.1409  0.8636 -1.4709
51999SOL     OW66310   1.831   5.977  10.034  0.8184  0.5453  0.3726
51999SOL    HW166311   1.840   5.881  10.038  1.2385  0.6182  1.2408
51999SOL    HW266312   1.896   6.004   9.970  0.4746  0.2268 -0.1255
52000SOL     OW66313  12.355   8.227  11.109  0.7247  0.0851  0.4943
52000SOL    HW166314  12.291   8.296  11.126  1.8658  0.8475  1.9737
52000SOL    HW266315  12.352   8.172  11.188  0.9188 -0.6817 -0.0216
52001SOL     OW66316  10.529   2.905   1.538 -0.0721  0.9137  0.2588
52001SOL    HW166317  10.560   2.862   1.458  1.9929  0.6418  1.1357
52001SOL    HW266318  10.608   2.941   1.578 -0.9213  0.3794  2.5844
52002SOL     OW66319  10.771   8.044   2.170 -0.5729  0.2918  0.0384
52002SOL    HW166320  10.841   8.109   2.162  2.0410 -2.4981 -1.6329
52002SOL    HW266321  10.775   8.016   2.262 -0.0754  0.7637  0.1662
52003SOL     OW66322   5.104   5.948   2.689 -0.2325  0.5322  0.0464
52003SOL    HW166323   5.163   5.943   2.764 -1.7498 -0.4669  1.2414
52003SOL    HW266324   5.137   5.882   2.627  0.1134  0.2323  0.5450
52004SOL     OW66325   2.490   4.486   3.484 -0.1359 -0.1139 -0.1494
52004SOL    HW166326   2.556   4.478   3.552 -1.0991 -0.4238  0.7775
52004SOL    HW266327   2.498   4.406   3.433  0.3632 -0.0351 -0.2015
52005SOL     OW66328  10.826   4.852   7.068  0.5954  0.0041  0.5826
52005SOL    HW166329  10.752   4.792   7.074 -0.3449  1.1353  0.7944
52005SOL    HW266330  10.903   4.796   7.071 -0.2272 -1.1200  1.5455
52006SOL     OW66331  12.510   8.347   1.048 -0.3445 -0.3321  0.1495
52006SOL    HW166332  12.580   8.325   1.109 -1.1846 -0.0619  1.2632
52006SOL    HW266333  12.453   8.270   1.049 -0.7122 -0.0621  0.2357
52007SOL     OW66334  10.364  11.099   4.311 -0.2263  0.2008  0.1769
52007SOL    HW166335  10.321  11.151   4.243 -1.1007  0.8633  1.1993
52007SOL    HW266336  10.414  11.164   4.361  0.9869 -0.3827 -0.2365
52008SOL     OW66337   6.383   8.575   1.439 -0.0045  0.2796 -0.3055
52008SOL    HW166338   6.399   8.567   1.533 -0.4872 -2.0211 -0.3629
52008SOL    HW266339   6.323   8.504   1.419  0.6856  0.2531 -2.4983
52009SOL     OW66340  10.297   6.906   0.517  0.3486 -0.0250  0.6246
52009SOL    HW166341  10.355   6.965   0.565  0.6944  0.4028 -0.2951
52009SOL    HW266342  10.209   6.933   0.543  0.5293 -1.0581  2.4845
52010SOL     OW66343   2.641   2.820   8.226  0.3335 -0.1219 -0.3952
52010SOL    HW166344   2.577   2.867   8.172 -1.2495 -0.0041  1.4655
52010SOL    HW266345   2.681   2.889   8.280 -0.6739 -0.6435  1.0543
52011SOL     OW66346  10.319  12.539   2.449 -0.1943 -0.8137  0.0480
52011SOL    HW166347  10.352  12.457   2.484  0.8098 -1.0133 -1.2614
52011SOL    HW266348  10.322  12.600   2.523 -0.8143 -1.9040  0.9890
52012SOL     OW66349   3.269   6.518  11.001  0.1249  0.3212 -0.7865
52012SOL    HW166350   3.334   6.513  10.931  0.0878  0.6823 -0.8522
52012SOL    HW266351   3.308   6.575  11.067  0.0640  0.1709 -0.6191
52013SOL     OW66352   5.088   4.794  11.909  0.3283 -0.6385  0.3721
52013SOL    HW166353   5.011   4.815  11.960  0.6880 -0.1884  0.7385
52013SOL    HW266354   5.074   4.704  11.880 -0.6067 -0.3605 -0.0743
52014SOL     OW66355   3.478   8.923   4.542  0.4149 -0.3189 -0.6570
52014SOL    HW166356   3.520   8.838   4.528  0.6170 -0.5550  1.0925
52014SOL    HW266357   3.471   8.930   4.638 -0.9839  0.9562 -0.8198
52015SOL     OW66358   0.039   2.382   3.393  0.2344  0.1642 -0.5378
52015SOL    HW166359   0.107   2.443   3.418  0.7720 -0.9224  0.7734
52015SOL    HW266360   0.007   2.346   3.476  0.1681 -1.5581 -1.2748
52016SOL     OW66361  12.768   4.240   9.871 -0.0202 -0.1977 -0.6113
52016SOL    HW166362  12.733   4.159   9.909 -2.4179  0.6293 -0.9131
52016SOL    HW266363  12.715   4.254   9.792  1.1507  1.0644 -1.2136
52017SOL     OW66364   7.627   3.060   6.939 -0.1370  0.2894  0.5491
52017SOL    HW166365   7.685   3.043   6.865 -0.5915  0.5950  0.1119
52017SOL    HW266366   7.656   3.143   6.975  0.9366 -0.4971  1.5602
52018SOL     OW66367   6.478   9.500   5.067 -0.7274  0.8704 -0.1320
52018SOL    HW166368   6.453   9.456   5.148  1.4653  1.6613  1.0444
52018SOL    HW266369   6.396   9.508   5.018 -1.9712 -0.3215  1.6407
52019SOL     OW66370   7.873   2.561   3.675  0.1223 -0.4987  0.0832
52019SOL    HW166371   7.865   2.655   3.659  1.4733 -0.5519 -1.0566
52019SOL    HW266372   7.902   2.554   3.766 -1.0414  0.1233  0.5205
52020SOL     OW66373   4.527   0.502   5.574  0.2718  0.0690  0.3723
52020SOL    HW166374   4.585   0.549   5.633  1.8773  0.1325 -1.1713
52020SOL    HW266375   4.484   0.570   5.523  0.9355 -0.0316 -0.3485
52021SOL     OW66376   9.192  10.956   6.226  0.4219  0.5866 -0.1769
52021SOL    HW166377   9.164  10.952   6.317  1.1474 -2.2546  0.0027
52021SOL    HW266378   9.113  10.939   6.176  0.0994  1.7638 -0.0990
52022SOL     OW66379   9.666   0.544  12.123 -0.2500 -0.4457  0.1567
52022SOL    HW166380   9.587   0.563  12.174 -1.0572 -1.6302 -0.6105
52022SOL    HW266381   9.641   0.562  12.032  1.2262  1.8494  0.1197
52023SOL     OW66382  10.224   3.124  11.716 -0.9210  0.2104  0.1578
52023SOL    HW166383  10.262   3.212  11.723  2.3290 -1.0055 -0.6630
52023SOL    HW266384  10.216   3.094  11.807  1.3312  0.1029  0.3768
52024SOL     OW66385   2.553   8.823   2.759  0.7476  0.4786 -0.3135
52024SOL    HW166386   2.600   8.775   2.691 -0.2619 -0.0137 -0.6891
52024SOL    HW266387   2.562   8.768   2.837 -0.7385 -0.5834 -0.8371
52025SOL     OW66388   1.526   1.812   7.446  0.3510 -0.2893 -0.6231
52025SOL    HW166389   1.548   1.722   7.419  1.0160  0.0244 -1.1572
52025SOL    HW266390   1.445   1.803   7.496 -0.5721 -0.9843 -2.1726
52026SOL     OW66391  12.987   1.620   6.656  0.6474  0.1186 -0.1722
52026SOL    HW166392  13.072   1.578   6.649  0.8592  0.5828 -0.4624
52026SOL    HW266393  12.988   1.663   6.741  1.4983  1.7866 -0.9642
52027SOL     OW66394   4.605   5.932   8.908 -0.2042  0.3873 -0.1979
52027SOL    HW166395   4.567   6.001   8.854 -0.0356  0.1999 -0.5616
52027SOL    HW266396   4.669   5.890   8.851 -2.8084 -2.4381 -1.3349
52028SOL     OW66397   1.633   8.969  12.167  0.2478  0.3091 -0.1061
52028SOL    HW166398   1.690   9.035  12.206  0.1353  1.0617 -1.1817
52028SOL    HW266399   1.556   8.967  12.224  1.0179 -0.2240  0.9626
52029SOL     OW66400  11.898  10.149   9.861  0.0959  0.2433 -0.3916
52029SOL    HW166401  11.982  10.190   9.839 -0.0474  0.2630 -0.9204
52029SOL    HW266402  11.842  10.167   9.785 -0.7504  1.2100  0.4187
52030SOL     OW66403   5.234  11.371  10.670 -0.2918  0.1143  0.5108
52030SOL    HW166404   5.280  11.332  10.745 -3.2306 -1.0690  1.8460
52030SOL    HW266405   5.144  11.380  10.699 -1.4062  0.4080 -2.6299
52031SOL     OW66406   5.049   0.215   3.605  0.3785 -0.0453  0.0179
52031SOL    HW166407   4.999   0.198   3.685  1.3038 -0.0085  0.6146
52031SOL    HW266408   4.990   0.268   3.551 -1.1671 -1.9821 -0.3244
52032SOL     OW66409   3.656  10.872  11.665 -0.0138 -0.4603  0.0023
52032SOL    HW166410   3.702  10.803  11.617  0.1231 -1.1540  1.0995
52032SOL    HW266411   3.565  10.842  11.668  0.4016 -1.7889  2.3973
52033SOL     OW66412   1.606  11.842   9.854  0.2878 -0.5750  0.0563
52033SOL    HW166413   1.567  11.765   9.896 -1.3469 -1.7037 -3.1777
52033SOL    HW266414   1.697  11.817   9.840  0.5323 -0.6815  1.6294
52034SOL     OW66415   2.977   9.413   5.916  0.4182 -0.0898  0.0885
52034SOL    HW166416   3.010   9.392   6.003  0.4157 -1.2140 -0.1746
52034SOL    HW266417   3.042   9.377   5.856 -0.3180 -0.6360 -0.3991
52035SOL     OW66418   3.133   6.997  11.528  0.4071  0.2777  0.0884
52035SOL    HW166419   3.214   7.018  11.482 -0.3549  0.8260 -1.0299
52035SOL    HW266420   3.094   6.925  11.477 -0.2730  0.6540  0.0668
52036SOL     OW66421   6.450   9.309   0.739  0.5683  0.0758 -0.1415
52036SOL    HW166422   6.487   9.397   0.734  1.3001 -0.2541 -0.7843
52036SOL    HW266423   6.356   9.322   0.724  0.8053  0.6550 -1.2997
52037SOL     OW66424  10.486   8.626   9.273 -0.2376  0.1970 -0.6595
52037SOL    HW166425  10.399   8.661   9.292 -1.2082 -1.8575 -1.0159
52037SOL    HW266426  10.473   8.569   9.197  1.8366  1.3676 -1.9854
52038SOL     OW66427  10.634   6.147   3.158 -0.5400 -0.0550 -0.0098
52038SOL    HW166428  10.610   6.054   3.155  0.3439 -0.4000  2.1854
52038SOL    HW266429  10.710   6.151   3.216  0.9247  1.7800 -1.8672
52039SOL     OW66430   1.577   8.005   8.302  0.1134 -0.0344  0.2544
52039SOL    HW166431   1.531   8.007   8.219  0.7008  1.1831 -0.0763
52039SOL    HW266432   1.524   7.950   8.359 -1.1993  0.5049 -0.4155
52040SOL     OW66433   9.144   2.393   0.707  0.7787 -0.2895  0.1963
52040SOL    HW166434   9.111   2.469   0.755  0.9846  0.0038 -0.1226
52040SOL    HW266435   9.199   2.430   0.638  2.4049 -0.8012  1.1732
52041SOL     OW66436   6.748  11.391   2.205  0.5797  0.5920 -0.4756
52041SOL    HW166437   6.791  11.464   2.161 -0.8342  0.1902 -2.7358
52041SOL    HW266438   6.788  11.313   2.166 -0.0639  0.2031 -0.3814
52042SOL     OW66439   1.921  11.732   6.190 -0.4716 -0.0697  0.2929
52042SOL    HW166440   1.960  11.739   6.277  1.0215 -2.3628 -0.0893
52042SOL    HW266441   1.911  11.822   6.161 -0.0300  0.7258  2.4114
52043SOL     OW66442   5.567   6.946  10.207 -0.6348 -0.1071 -0.0825
52043SOL    HW166443   5.648   6.994  10.225  0.4580 -1.5611 -0.8583
52043SOL    HW266444   5.516   7.005  10.152  1.3369 -0.3329 -2.3306
52044SOL     OW66445   7.625   9.477   0.633 -0.0517  0.1792  0.2691
52044SOL    HW166446   7.563   9.406   0.649 -1.6537  0.8887 -2.2306
52044SOL    HW266447   7.578   9.556   0.659  0.2781  0.6219 -0.4442
52045SOL     OW66448   9.207   2.219   1.092  0.4402  0.2587  0.1864
52045SOL    HW166449   9.227   2.191   1.003  0.2878 -2.0681  0.8107
52045SOL    HW266450   9.146   2.292   1.082 -0.8852 -1.0250 -1.6326
52046SOL     OW66451   3.909   5.095   7.166 -0.0970  0.1398  0.2649
52046SOL    HW166452   3.985   5.058   7.212  0.5001 -0.3273 -1.0600
52046SOL    HW266453   3.903   5.184   7.199  1.1953  0.2721  0.2211
52047SOL     OW66454   7.761   9.592   5.672 -0.0289 -0.2498  0.4564
52047SOL    HW166455   7.761   9.496   5.672  0.6514 -0.2927 -1.2039
52047SOL    HW266456   7.676   9.616   5.708 -1.7599 -1.5828 -2.3521
52048SOL     OW66457   0.455  10.649   5.662  0.1958 -0.1321  0.3128
52048SOL    HW166458   0.375  10.642   5.714 -0.1173 -0.6446 -0.2277
52048SOL    HW266459   0.518  10.592   5.705 -0.4169 -1.4716 -0.5051
52049SOL     OW66460   0.955  11.312  10.939 -0.4302  0.2200  0.3189
52049SOL    HW166461   0.893  11.364  10.991 -1.0251  0.5348 -0.6771
52049SOL    HW266462   0.907  11.232  10.920  0.5310 -0.8100  1.9616
52050SOL     OW66463   9.982   6.510   9.179  0.1215 -0.9115 -0.0558
52050SOL    HW166464  10.015   6.569   9.111  0.3848  0.5727  1.3222
52050SOL    HW266465   9.897   6.480   9.145  0.0422  0.1581 -0.8473
52051SOL     OW66466  10.878   0.289   5.273  0.1333 -0.6772  0.2438
52051SOL    HW166467  10.891   0.232   5.197  1.7094  1.3073 -1.0828
52051SOL    HW266468  10.801   0.342   5.250  0.3900 -0.3284  0.1811
52052SOL     OW66469   8.230   9.265   7.730  0.0782 -0.0280  0.2106
52052SOL    HW166470   8.185   9.323   7.792  2.0367  0.4544  1.2656
52052SOL    HW266471   8.311   9.241   7.774  0.8548 -0.8995 -1.5869
52053SOL     OW66472   0.783  12.075  10.705  0.1763  0.0839 -0.5187
52053SOL    HW166473   0.735  12.144  10.660  0.5035  0.4873 -0.2584
52053SOL    HW266474   0.874  12.105  10.706  0.2232 -0.0495  0.1460
52054SOL     OW66475   8.769  11.770   1.318 -0.0759 -0.0347 -0.2156
52054SOL    HW166476   8.734  11.718   1.246 -0.2660  0.4764 -0.4981
52054SOL    HW266477   8.832  11.712   1.362 -0.1531 -0.4358 -0.6314
52055SOL     OW66478   3.317   2.164   2.448 -0.3142  0.1257  0.6253
52055SOL    HW166479   3.265   2.245   2.445 -2.1537 -1.0241  0.1317
52055SOL    HW266480   3.261   2.098   2.407  1.2315 -1.3716  0.8295
52056SOL     OW66481   5.648   6.972   4.430  0.3094 -0.4871  0.1605
52056SOL    HW166482   5.582   7.018   4.378  0.0403 -0.3588  0.6090
52056SOL    HW266483   5.692   7.042   4.480  0.5137 -0.6157  0.1601
52057SOL     OW66484  10.172   9.419   5.991  0.3692  0.0592 -0.9118
52057SOL    HW166485  10.199   9.510   5.977  2.7656 -0.3985  0.1856
52057SOL    HW266486  10.126   9.420   6.075  0.4691  0.2353 -0.8592
52058SOL     OW66487   8.712  11.663  10.177 -0.1166 -0.2921 -0.1529
52058SOL    HW166488   8.652  11.589  10.174 -1.6401  0.8177  1.2347
52058SOL    HW266489   8.715  11.687  10.269  1.0837  0.8050 -0.4565
52059SOL     OW66490  10.570   1.311   2.647  0.5283 -0.2977  0.1982
52059SOL    HW166491  10.644   1.351   2.601  2.1237 -2.3492  0.8649
52059SOL    HW266492  10.571   1.219   2.620 -0.4505 -0.8465  1.8618
52060SOL     OW66493   9.587   0.972   8.435  0.0665 -0.2258 -0.0710
52060SOL    HW166494   9.644   1.040   8.472 -0.7147 -0.4051  1.5605
52060SOL    HW266495   9.588   0.989   8.341  3.1191 -0.4764 -0.1985
52061SOL     OW66496   9.574  10.798   4.006  0.1532 -0.0689 -0.3645
52061SOL    HW166497   9.539  10.844   4.083  0.2448  0.6494 -0.7367
52061SOL    HW266498   9.648  10.852   3.979 -0.4776  0.2475 -1.5388
52062SOL     OW66499  10.821   7.438   6.625 -0.2423 -0.3876  0.1467
52062SOL    HW166500  10.845   7.398   6.708  2.1681  0.7335  0.0812
52062SOL    HW266501  10.846   7.530   6.634 -0.9647  0.0108 -1.4431
52063SOL     OW66502   7.596  10.567   6.733 -0.1216 -0.5568 -0.4013
52063SOL    HW166503   7.603  10.629   6.661 -1.8626 -0.0579 -0.1973
52063SOL    HW266504   7.552  10.491   6.695 -0.8436 -0.3843  0.0653
52064SOL     OW66505   2.503   2.120   9.301  0.3993  0.1776  0.1371
52064SOL    HW166506   2.521   2.090   9.212  0.4813 -0.3970  0.3432
52064SOL    HW266507   2.491   2.215   9.293 -2.4972 -0.1733 -0.9489
52065SOL     OW66508   8.594   9.755  11.990 -0.0043  0.2834  0.2315
52065SOL    HW166509   8.668   9.815  11.989  0.7711 -0.6413 -1.0811
52065SOL    HW266510   8.597   9.712  11.904  0.9588 -3.3927  1.8898
52066SOL     OW66511   9.050  12.335   7.292 -0.1022  0.1514  0.5888
52066SOL    HW166512   9.083  12.245   7.294  0.1540  0.2323  0.0860
52066SOL    HW266513   8.970  12.331   7.344 -1.0755 -0.7825 -0.8916
52067SOL     OW66514   4.832   2.267   9.020  0.3401 -0.1729 -0.4445
52067SOL    HW166515   4.750   2.310   9.044  0.6926  0.7600 -0.8552
52067SOL    HW266516   4.805   2.189   8.971 -0.2959 -0.0385 -0.3154
52068SOL     OW66517   8.301   4.885  10.328  0.4994 -0.1303  0.2301
52068SOL    HW166518   8.391   4.854  10.314  0.7304  1.8110 -4.3763
52068SOL    HW266519   8.247   4.829  10.273 -0.4735  1.2043 -0.2326
52069SOL     OW66520   0.111   4.930  12.038  0.2747  0.4369 -0.3598
52069SOL    HW166521   0.046   4.967  11.979 -1.0830  0.6518  1.1856
52069SOL    HW266522   0.156   5.006  12.075  0.9996  0.3108 -0.9583
52070SOL     OW66523   6.479   4.172   6.923  0.3569  0.2375  0.0209
52070SOL    HW166524   6.408   4.165   6.858  0.4915 -2.8791  0.0419
52070SOL    HW266525   6.522   4.086   6.920  2.6625  1.2405  1.7067
52071SOL     OW66526  12.213   6.783  12.987  0.2263  0.0442 -0.5517
52071SOL    HW166527  12.119   6.785  13.008  0.2242  1.5500 -0.5897
52071SOL    HW266528  12.238   6.875  12.984  1.4179 -0.3010 -1.8447
52072SOL     OW66529   9.988   3.877  11.531  0.3227 -0.6142  0.3403
52072SOL    HW166530   9.930   3.952  11.515  2.6905  0.7412 -3.2405
52072SOL    HW266531   9.961   3.811  11.467  1.7347 -0.4793 -0.4617
52073SOL     OW66532   4.254  11.298  11.930  0.5582 -0.0610  0.2980
52073SOL    HW166533   4.262  11.289  11.835  0.0767 -3.4869  0.4569
52073SOL    HW266534   4.197  11.375  11.942  0.9383  0.6848 -2.1141
52074SOL     OW66535   4.589   7.871  12.884  0.1372  0.7614 -0.1641
52074SOL    HW166536   4.655   7.887  12.953  1.2570  1.6411 -1.3871
52074SOL    HW266537   4.633   7.897  12.803 -1.1497 -0.2707 -1.2291
52075SOL     OW66538   5.930   8.300   4.294  0.5876  0.4348  0.6453
52075SOL    HW166539   5.904   8.213   4.264 -0.3748  0.1245  2.2676
52075SOL    HW266540   5.850   8.338   4.331  0.2021  3.1981 -2.5074
52076SOL     OW66541   9.877   3.580   7.000  0.3866 -0.5542 -0.4154
52076SOL    HW166542   9.922   3.647   6.948  0.5255 -1.1158 -1.0236
52076SOL    HW266543   9.822   3.533   6.938  2.2841 -2.7454 -0.5789
52077SOL     OW66544   2.950  11.475   3.118  0.1069 -0.6004  0.5598
52077SOL    HW166545   2.979  11.447   3.031 -1.0148  1.1613 -0.4594
52077SOL    HW266546   2.958  11.571   3.115 -1.3617 -0.4145  1.8674
52078SOL     OW66547   0.992   1.866   5.687  0.0417 -0.4333 -0.4616
52078SOL    HW166548   0.935   1.790   5.681 -0.2509 -0.4424  1.7250
52078SOL    HW266549   1.061   1.849   5.623 -1.4946 -1.1790 -2.0155
52079SOL     OW66550   9.744   5.381   5.138  0.0343  0.6802  0.5170
52079SOL    HW166551   9.815   5.422   5.187 -0.7215 -0.0477  2.3214
52079SOL    HW266552   9.776   5.377   5.048  1.2049  2.7095  0.7860
52080SOL     OW66553   5.655   8.298   6.566 -0.1013 -0.1832 -0.5583
52080SOL    HW166554   5.637   8.383   6.605 -0.7346 -0.1159 -0.9844
52080SOL    HW266555   5.601   8.236   6.616 -0.5705 -0.1596 -1.0297
52081SOL     OW66556   9.761   4.171   5.107 -0.4528 -0.4666  0.7892
52081SOL    HW166557   9.734   4.079   5.114 -2.3360 -0.1770 -1.4311
52081SOL    HW266558   9.703   4.217   5.168 -1.9564 -0.4029 -0.6157
52082SOL     OW66559   2.533   6.942   2.970  0.0616  0.2011  0.3426
52082SOL    HW166560   2.458   6.889   2.995  0.6189 -1.1979 -0.7590
52082SOL    HW266561   2.497   7.010   2.913 -0.3770 -0.4816 -0.2122
52083SOL     OW66562   3.431   9.469  12.522  0.4148  0.0474 -0.2234
52083SOL    HW166563   3.385   9.444  12.603  0.7055 -1.3830 -0.4726
52083SOL    HW266564   3.369   9.526  12.476  0.3809  1.1721  1.1478
52084SOL     OW66565   5.387  11.074   9.107  0.2756  0.3445  0.4448
52084SOL    HW166566   5.356  10.986   9.126 -0.7136  0.5330 -0.2325
52084SOL    HW266567   5.481  11.071   9.126  0.5474 -1.2506 -0.9256
52085SOL     OW66568   3.706   8.134   8.689  0.2760 -0.0192  0.6359
52085SOL    HW166569   3.746   8.113   8.605  2.0641 -0.1327  1.4629
52085SOL    HW266570   3.743   8.219   8.712  2.0499 -1.1947  2.5345
52086SOL     OW66571   3.891   8.192   4.460  0.1662 -0.4597 -0.0454
52086SOL    HW166572   3.966   8.136   4.478  0.4474  0.0100  0.2901
52086SOL    HW266573   3.820   8.155   4.513  0.5983  0.0350  0.9109
52087SOL     OW66574   4.973   0.761   5.065 -0.9134 -0.3073  0.1000
52087SOL    HW166575   4.989   0.719   5.150  0.4700  0.4035  0.2135
52087SOL    HW266576   4.966   0.854   5.085  3.2682  0.4155 -0.8879
52088SOL     OW66577  11.089   2.144  12.006  0.2701  0.6186 -0.6678
52088SOL    HW166578  11.018   2.179  12.060 -0.5107 -0.7253 -0.7681
52088SOL    HW266579  11.153   2.110  12.069  0.2381  0.7202 -0.5808
52089SOL     OW66580   3.836   5.507   1.031  0.1767  0.0840 -0.3717
52089SOL    HW166581   3.860   5.495   0.939 -1.7511 -2.6615 -0.6250
52089SOL    HW266582   3.920   5.522   1.075  1.4505 -1.0444 -2.2333
52090SOL     OW66583   4.029   7.972  12.817 -0.0806 -0.1168 -0.3758
52090SOL    HW166584   4.060   7.922  12.892 -0.0303 -0.1958 -0.4481
52090SOL    HW266585   4.082   8.052  12.818 -0.9700  0.4860  0.4292
52091SOL     OW66586   2.103   5.055  10.086 -0.1549  0.5849  0.8136
52091SOL    HW166587   2.146   5.041  10.170  1.0648 -1.0532 -0.0286
52091SOL    HW266588   2.095   4.967  10.048 -0.2671  1.3306 -0.9803
52092SOL     OW66589   7.743   5.642   5.875 -0.4600 -0.1250 -0.1931
52092SOL    HW166590   7.657   5.664   5.841  0.0173 -0.0129 -1.3602
52092SOL    HW266591   7.802   5.652   5.801  0.5374 -0.3827  0.5394
52093SOL     OW66592  10.529  11.519   8.831 -0.1323  0.3619  0.2331
52093SOL    HW166593  10.582  11.595   8.851  0.0787  0.2086  0.2626
52093SOL    HW266594  10.507  11.528   8.739  0.0721  0.3501  0.1835
52094SOL     OW66595  12.923   9.454   4.440  0.1431  0.1181 -0.4703
52094SOL    HW166596  12.868   9.490   4.509 -0.9007 -0.9526 -0.7175
52094SOL    HW266597  13.007   9.438   4.482 -0.1353  0.5288  0.2526
52095SOL     OW66598   8.120  11.163   7.771  0.4722  0.5417 -0.2814
52095SOL    HW166599   8.040  11.140   7.724  0.3918 -1.0398  0.5721
52095SOL    HW266600   8.090  11.188   7.859  0.9761 -2.0216  0.7168
52096SOL     OW66601   5.333   0.855  12.865  0.3271  0.6659  0.0616
52096SOL    HW166602   5.292   0.848  12.779  0.8774 -0.7035 -0.1168
52096SOL    HW266603   5.269   0.817  12.925  0.2758  0.8826  0.1429
52097SOL     OW66604   4.422   5.300   9.164  0.2675 -0.7155 -0.1165
52097SOL    HW166605   4.380   5.225   9.121 -2.4458 -0.2493  1.4918
52097SOL    HW266606   4.471   5.261   9.236 -1.8706 -1.0003  1.2787
52098SOL     OW66607   6.986   9.862   0.688  0.2902  0.3682 -0.7149
52098SOL    HW166608   7.041   9.863   0.609 -0.2941  1.5419 -1.1202
52098SOL    HW266609   6.932   9.941   0.682  1.5205  1.5016  1.8037
52099SOL     OW66610   1.589   0.801  12.561  0.3398  0.5692 -0.1620
52099SOL    HW166611   1.677   0.816  12.596 -0.0872  2.0790  0.3487
52099SOL    HW266612   1.538   0.877  12.589 -1.5062 -0.8915  0.6809
52100SOL     OW66613  12.706   8.535   9.441 -0.1604 -0.2513  0.0171
52100SOL    HW166614  12.729   8.579   9.523 -0.4352 -1.6160  0.8462
52100SOL    HW266615  12.657   8.601   9.392  1.1680  1.0360  0.3483
52101SOL     OW66616   4.404   3.327   6.458  0.0911  0.0233 -0.1333
52101SOL    HW166617   4.484   3.293   6.418  0.0299 -0.6391  0.2977
52101SOL    HW266618   4.344   3.339   6.385  0.6567  0.7499 -0.4918
52102SOL     OW66619  11.830   3.966  12.054  0.5311  0.1803  0.4218
52102SOL    HW166620  11.897   3.899  12.067  1.0736  0.8437  1.1135
52102SOL    HW266621  11.786   3.972  12.139  0.8437  1.0776  0.5232
52103SOL     OW66622   6.010   5.287   5.014  0.5061  0.0500 -0.3578
52103SOL    HW166623   6.003   5.251   5.102  0.1557 -0.9275 -0.7615
52103SOL    HW266624   6.009   5.382   5.026 -3.0796  0.0498  0.4845
52104SOL     OW66625   1.690   1.220   5.605 -0.0674 -0.4019  0.6010
52104SOL    HW166626   1.744   1.242   5.529 -0.3341 -1.4757  0.0799
52104SOL    HW266627   1.602   1.248   5.581 -0.1092 -0.5212  0.6167
52105SOL     OW66628   1.906   5.372   7.460  0.5694 -0.0374 -0.1313
52105SOL    HW166629   1.926   5.284   7.492  3.1197  1.1657  1.9459
52105SOL    HW266630   1.832   5.401   7.513  0.3399 -0.5570 -0.1604
52106SOL     OW66631  12.629   9.476  12.457 -0.0636  0.9931 -0.1159
52106SOL    HW166632  12.703   9.461  12.399  0.9135  3.2905  0.4331
52106SOL    HW266633  12.662   9.457  12.545 -0.4489  1.0128  0.0394
52107SOL     OW66634   7.179  11.319   9.696 -0.0545 -0.1227 -0.1147
52107SOL    HW166635   7.208  11.268   9.621 -0.0421 -0.5882  0.2054
52107SOL    HW266636   7.206  11.409   9.675 -1.0937 -0.0383 -1.2085
52108SOL     OW66637  12.656   9.314   2.185 -0.0541  0.4994 -0.3629
52108SOL    HW166638  12.695   9.227   2.177  0.7547  0.5711  2.0269
52108SOL    HW266639  12.678   9.342   2.273 -1.0209  2.8070 -0.7851
52109SOL     OW66640  11.497   4.243   8.901 -0.7481  0.0779 -0.4749
52109SOL    HW166641  11.580   4.196   8.909 -0.6176  0.4671  0.4927
52109SOL    HW266642  11.441   4.183   8.851  0.4425  0.2605 -2.1062
52110SOL     OW66643   0.969   7.657  10.883 -0.1618 -0.3772 -0.3444
52110SOL    HW166644   0.955   7.563  10.869 -0.0678 -0.4531  0.0713
52110SOL    HW266645   0.970   7.667  10.978 -0.8511  0.1516 -0.3861
52111SOL     OW66646  10.797   7.269   8.388  0.2169 -0.5021  0.3687
52111SOL    HW166647  10.767   7.351   8.427 -0.9527 -1.6577  2.0508
52111SOL    HW266648  10.725   7.241   8.331  0.5463 -0.4495 -0.0807
52112SOL     OW66649   2.908   4.281   1.579 -0.1073  0.3059 -0.1193
52112SOL    HW166650   2.951   4.196   1.574 -0.1906  0.2653 -0.1598
52112SOL    HW266651   2.862   4.289   1.495  1.5277  1.2818 -0.9593
52113SOL     OW66652   5.536   6.458   3.341 -0.1774  0.0861 -0.3625
52113SOL    HW166653   5.560   6.365   3.338 -1.7970 -0.3695 -0.3722
52113SOL    HW266654   5.465   6.466   3.277 -1.7470  0.7871  1.3685
52114SOL     OW66655   3.572   8.590   8.410  0.0365 -0.3957  0.3285
52114SOL    HW166656   3.600   8.526   8.475 -1.8268  1.1624  2.8648
52114SOL    HW266657   3.645   8.652   8.405 -0.6206  0.7280  2.8227
52115SOL     OW66658   6.415   0.563  12.034  0.0942 -0.1976  0.3861
52115SOL    HW166659   6.393   0.600  11.949  0.0340 -0.3691  0.3257
52115SOL    HW266660   6.346   0.594  12.093 -0.3349 -0.7578  0.1901
52116SOL     OW66661   6.776   2.401   5.135  0.1544 -0.0135 -0.5721
52116SOL    HW166662   6.739   2.476   5.183 -2.2782 -1.1185 -0.5570
52116SOL    HW266663   6.870   2.409   5.147 -0.1933  1.4049  1.9030
52117SOL     OW66664  11.699   0.580   1.646 -0.0701 -0.0178 -0.0628
52117SOL    HW166665  11.648   0.654   1.613  0.3582 -0.4758 -1.8478
52117SOL    HW266666  11.779   0.620   1.680  0.2631  0.3621 -1.2264
52118SOL     OW66667   9.501  12.094   4.660 -0.1955  0.2552  0.5053
52118SOL    HW166668   9.422  12.042   4.646  0.7341 -1.4042  1.0138
52118SOL    HW266669   9.569  12.046   4.612  0.7262  0.9455  1.0899
52119SOL     OW66670   3.052   3.582   2.805  0.1652  0.2920 -0.4577
52119SOL    HW166671   3.084   3.492   2.803  0.4408  0.3940 -0.6822
52119SOL    HW266672   3.130   3.635   2.788 -0.1618  0.5369 -1.2112
52120SOL     OW66673   3.760   0.987   4.178  0.0657  0.3188  0.0555
52120SOL    HW166674   3.764   1.083   4.175 -1.1416  0.3737 -0.3090
52120SOL    HW266675   3.758   0.960   4.086 -2.5104  0.1266  0.1090
52121SOL     OW66676   7.003   0.409   0.347 -0.0021  0.6704 -0.0449
52121SOL    HW166677   7.058   0.380   0.274  1.3555 -1.1128  1.6061
52121SOL    HW266678   7.063   0.422   0.419 -1.3657  2.0110  0.9167
52122SOL     OW66679  10.134   9.737   6.172  0.5341 -1.1328 -0.4610
52122SOL    HW166680  10.163   9.777   6.254 -4.1625  2.0685 -0.0016
52122SOL    HW266681  10.185   9.781   6.105  0.9748 -0.1174  0.5031
52123SOL     OW66682   0.070   8.094   4.124  0.1164  0.4488 -0.3648
52123SOL    HW166683   0.102   8.030   4.188 -0.9946  0.6545  0.4343
52123SOL    HW266684   0.147   8.118   4.073  0.6668 -1.1141 -0.3261
52124SOL     OW66685   9.676  11.983  12.582  0.6397  0.1258  0.0149
52124SOL    HW166686   9.594  11.939  12.602 -0.9027  3.1783  1.0993
52124SOL    HW266687   9.660  12.030  12.500  2.6296 -2.0278 -1.7728
52125SOL     OW66688   6.165   4.926   4.746 -0.2747  0.2994 -0.3557
52125SOL    HW166689   6.180   4.865   4.674  0.9932 -0.0568  0.1771
52125SOL    HW266690   6.241   4.914   4.803  0.5839  3.1652 -0.7729
52126SOL     OW66691  12.867   8.230   2.278  0.0540 -0.4047 -0.3086
52126SOL    HW166692  12.816   8.150   2.266  2.3167 -2.2272  1.3662
52126SOL    HW266693  12.853   8.254   2.370  0.8037  0.0977 -0.3203
52127SOL     OW66694  12.640   0.446   6.733 -0.2905  0.2770  0.0092
52127SOL    HW166695  12.558   0.440   6.684  0.3057 -2.0350 -0.8445
52127SOL    HW266696  12.690   0.514   6.688 -1.2299  0.8637 -0.1930
52128SOL     OW66697   7.884   2.095  12.556  0.0662  0.3173  0.0288
52128SOL    HW166698   7.895   2.176  12.606  2.0575 -0.7797  1.5391
52128SOL    HW266699   7.904   2.120  12.466 -1.5416  1.9198  0.0537
52129SOL     OW66700   1.891  11.032   7.663  0.7881  0.1265 -0.1652
52129SOL    HW166701   1.852  11.107   7.618 -0.4581 -0.6218 -0.3829
52129SOL    HW266702   1.977  11.063   7.691  0.5014  1.4712 -0.6860
52130SOL     OW66703   5.570   7.162   0.573  0.4252 -0.5008  0.8011
52130SOL    HW166704   5.662   7.178   0.553  0.9355 -0.2965  3.1343
52130SOL    HW266705   5.526   7.244   0.551  1.1581  0.1565  1.7397
52131SOL     OW66706  12.292   7.560   2.145 -0.0909 -0.4271 -0.2166
52131SOL    HW166707  12.214   7.505   2.144 -2.9763  3.2339  0.3603
52131SOL    HW266708  12.314   7.570   2.238  0.0793 -0.2373 -0.2758
52132SOL     OW66709   0.820   8.881   7.537  0.0288  0.1311  0.2858
52132SOL    HW166710   0.766   8.877   7.458  0.0952 -2.0154  0.3117
52132SOL    HW266711   0.880   8.807   7.529  1.6496  1.2788  1.2385
52133SOL     OW66712   1.638  11.897   4.023  0.5708  0.1928 -0.0197
52133SOL    HW166713   1.690  11.848   4.087  1.8568  2.3609  0.7280
52133SOL    HW266714   1.699  11.964   3.989 -0.9740  1.0853 -1.1902
52134SOL     OW66715  10.108  12.541   8.122 -0.3571  0.1372 -0.1997
52134SOL    HW166716  10.175  12.494   8.171 -1.1967  0.6156  1.4738
52134SOL    HW266717  10.117  12.632   8.150 -1.5941  0.2385 -0.0639
52135SOL     OW66718   1.872   0.533   0.945 -0.0009 -0.2956  0.5698
52135SOL    HW166719   1.891   0.566   0.857 -0.7657 -0.8003  0.2025
52135SOL    HW266720   1.823   0.603   0.987 -0.7498 -0.5478  0.1395
52136SOL     OW66721   9.768  12.074   3.673 -0.1720  0.1704 -0.0436
52136SOL    HW166722   9.739  12.050   3.761  2.6116  0.9090  1.1938
52136SOL    HW266723   9.745  12.166   3.664  0.2507  0.3082  0.2536
52137SOL     OW66724   1.206   0.021   6.799  0.9551 -0.0265  0.1328
52137SOL    HW166725   1.232   0.029   6.891  1.4990  0.3501 -0.0495
52137SOL    HW266726   1.198  -0.073   6.784 -0.0786 -0.0616  0.8220
52138SOL     OW66727   1.063   3.586   0.435 -0.1474  0.3525 -0.2183
52138SOL    HW166728   1.057   3.491   0.446 -1.2466  0.4668  0.2376
52138SOL    HW266729   1.150   3.609   0.469  0.9174 -0.7131 -2.0647
52139SOL     OW66730   1.327   3.691   8.947  0.2702  0.5390  0.1017
52139SOL    HW166731   1.237   3.665   8.926  0.3377  1.2180 -1.1109
52139SOL    HW266732   1.375   3.609   8.955 -0.4384  0.1729  0.6762
52140SOL     OW66733   2.534   0.530   8.849  0.8412  0.3810  0.3014
52140SOL    HW166734   2.594   0.461   8.878  1.9935  0.4754 -1.6934
52140SOL    HW266735   2.519   0.513   8.757 -0.3519  1.7391  0.2037
52141SOL     OW66736   9.603  10.642   3.076  0.3700 -0.2253 -0.4154
52141SOL    HW166737   9.610  10.734   3.051  0.2655 -0.1368 -0.1133
52141SOL    HW266738   9.510  10.626   3.087  0.4390 -0.1778  0.2541
52142SOL     OW66739   7.549   8.868   5.352  0.8575 -0.2054 -0.5500
52142SOL    HW166740   7.615   8.817   5.400  0.3329 -1.5080 -1.1795
52142SOL    HW266741   7.578   8.866   5.261  1.5033  1.7234 -0.4279
52143SOL     OW66742   4.963   2.292  10.620  0.4695 -0.4716 -0.6989
52143SOL    HW166743   4.881   2.291  10.671 -0.2631 -1.9813 -1.8198
52143SOL    HW266744   4.972   2.382  10.591 -0.2851 -0.0728  0.2488
52144SOL     OW66745  11.498  12.351   3.365  0.1616 -0.2131  0.1298
52144SOL    HW166746  11.567  12.297   3.404  0.5819  0.2787  0.0669
52144SOL    HW266747  11.544  12.422   3.321 -0.3932  0.1985  0.2021
52145SOL     OW66748   9.051   1.967   0.499 -0.1879 -0.2731 -0.7080
52145SOL    HW166749   9.030   2.046   0.549 -0.1000 -0.8657  0.3079
52145SOL    HW266750   9.135   1.938   0.534  0.5071 -0.0166 -2.0994
52146SOL     OW66751  11.774   0.479  12.122  0.1385 -0.6417  0.2904
52146SOL    HW166752  11.836   0.464  12.051  0.8596 -0.1061  0.7934
52146SOL    HW266753  11.755   0.391  12.155  0.8573 -0.7919  0.3165
52147SOL     OW66754   2.858   8.045   0.754  0.5688 -0.2977 -0.3901
52147SOL    HW166755   2.764   8.026   0.756  0.5528 -0.5264 -2.1131
52147SOL    HW266756   2.899   7.962   0.778  0.3449 -0.3135 -0.0513
52148SOL     OW66757   8.704   4.135   7.608 -0.2841 -0.0359 -0.2356
52148SOL    HW166758   8.693   4.061   7.549 -0.0759 -0.0515 -0.2536
52148SOL    HW266759   8.615   4.157   7.635 -0.3924  0.0500 -0.6534
52149SOL     OW66760   4.526   1.882   0.312  0.1321 -0.2772  0.7147
52149SOL    HW166761   4.531   1.883   0.216 -1.5009 -0.5540  0.5927
52149SOL    HW266762   4.569   1.964   0.339 -0.2810  0.3033 -0.3172
52150SOL     OW66763   2.084  12.735   6.798  0.2799  0.5545  0.9084
52150SOL    HW166764   2.024  12.671   6.836  0.3536  0.6048  1.1091
52150SOL    HW266765   2.168  12.689   6.794  0.0448  0.1914 -0.1514
52151SOL     OW66766  11.380   3.467  11.626 -0.1746  0.4526 -0.0177
52151SOL    HW166767  11.449   3.533  11.636 -0.5806  1.4947 -3.1280
52151SOL    HW266768  11.422   3.395  11.578 -0.5276 -0.2562  0.7004
52152SOL     OW66769   9.552  10.541   3.392 -0.3576 -1.0240 -0.2159
52152SOL    HW166770   9.482  10.582   3.342 -0.3580 -0.3560  0.3219
52152SOL    HW266771   9.525  10.550   3.483  0.9794  0.3262  0.0877
52153SOL     OW66772   2.917   0.397  11.593  0.4576  0.0152  0.1874
52153SOL    HW166773   2.992   0.409  11.651 -1.4686 -2.2632  3.4901
52153SOL    HW266774   2.885   0.309  11.613 -2.2736  0.3475 -2.0913
52154SOL     OW66775   1.925   1.029  11.963  0.1608 -0.1831  0.3381
52154SOL    HW166776   1.960   0.959  12.019  0.4927 -0.7201 -0.5168
52154SOL    HW266777   1.836   1.043  11.994 -0.1063 -1.3985  0.1586
52155SOL     OW66778   6.149   6.882   8.618  0.2056  0.0141  0.2601
52155SOL    HW166779   6.171   6.868   8.525 -0.9314 -2.3390  0.2494
52155SOL    HW266780   6.132   6.976   8.625  2.5774  0.6640 -1.3610
52156SOL     OW66781   3.727   6.606   4.830 -0.0944 -0.5017  0.5623
52156SOL    HW166782   3.716   6.659   4.909 -0.9110  1.5941 -0.8563
52156SOL    HW266783   3.641   6.609   4.788  0.5353 -0.8997 -0.8013
52157SOL     OW66784   0.190  11.957   2.628  0.2642  0.0161  0.0507
52157SOL    HW166785   0.174  11.973   2.720  0.9576 -0.1193  0.2032
52157SOL    HW266786   0.285  11.962   2.619  0.6776 -3.9573  0.1640
52158SOL     OW66787   4.433  11.311   8.987 -0.4202 -0.3706  0.3045
52158SOL    HW166788   4.347  11.344   9.012 -0.5353 -1.4986  1.5663
52158SOL    HW266789   4.494  11.359   9.043 -0.4147 -0.8319  0.7093
52159SOL     OW66790  12.895   2.993   2.024 -0.9574 -0.5620  0.0359
52159SOL    HW166791  12.863   3.079   1.995 -0.6475 -0.1515  0.8749
52159SOL    HW266792  12.977   3.012   2.069 -0.1060 -1.4745 -1.0854
52160SOL     OW66793   5.410   4.568   3.857  0.5638  0.2865  0.2852
52160SOL    HW166794   5.451   4.573   3.771  2.2209  0.2529  1.0358
52160SOL    HW266795   5.382   4.477   3.865  2.9052 -0.4538  0.8258
52161SOL     OW66796   6.250   8.477   2.082  0.1743  0.1891 -0.2754
52161SOL    HW166797   6.330   8.524   2.107  0.0231 -0.4049  1.4604
52161SOL    HW266798   6.246   8.403   2.142 -2.3144  0.8530  0.4784
52162SOL     OW66799  10.264   5.607   4.647 -0.3088 -0.3255 -0.5492
52162SOL    HW166800  10.273   5.690   4.600 -2.0188  0.7189  0.8460
52162SOL    HW266801  10.327   5.549   4.604  1.8417  2.0009 -0.8370
52163SOL     OW66802   7.626  12.600   5.762 -0.0347 -0.3997  0.0446
52163SOL    HW166803   7.593  12.617   5.673 -0.4324  1.9728  0.5666
52163SOL    HW266804   7.595  12.512   5.782 -0.2880 -0.8413 -2.0127
52164SOL     OW66805  10.607   4.858   4.064 -0.1048 -0.0885  0.2989
52164SOL    HW166806  10.620   4.820   4.150  0.0327  0.3093  0.4560
52164SOL    HW266807  10.695   4.876   4.032 -0.0044 -2.3210 -0.8881
52165SOL     OW66808   6.247   8.263  11.532 -0.0254 -0.1624 -0.4588
52165SOL    HW166809   6.153   8.279  11.525 -0.1468 -0.3751  0.6145
52165SOL    HW266810   6.266   8.268  11.625  0.5027 -2.8806 -0.3270
52166SOL     OW66811  12.247   3.787   0.663 -0.1678  0.3816 -0.1784
52166SOL    HW166812  12.208   3.729   0.728  0.1235 -0.8799 -1.1055
52166SOL    HW266813  12.183   3.859   0.655 -0.2477  0.5263  1.4084
52167SOL     OW66814  11.661   5.168   8.606 -0.2876  0.2385  0.3279
52167SOL    HW166815  11.593   5.188   8.670 -1.2050 -2.1169  0.2098
52167SOL    HW266816  11.616   5.169   8.522 -0.5481 -2.4415  0.3516
52168SOL     OW66817  10.080  10.037   9.490  0.3732 -0.3608 -0.2581
52168SOL    HW166818  10.126  10.121   9.496  0.2249 -0.1552 -1.6131
52168SOL    HW266819  10.146   9.972   9.515  0.5213  0.1343  0.7040
52169SOL     OW66820   2.166   7.644   4.877 -0.4230 -0.0429 -0.1367
52169SOL    HW166821   2.096   7.658   4.812  0.7960 -0.1811 -1.5444
52169SOL    HW266822   2.124   7.597   4.948 -1.2946 -2.2920 -2.0080
52170SOL     OW66823   2.066   6.105   5.141 -0.6223  0.1403 -0.3230
52170SOL    HW166824   1.999   6.140   5.200 -1.3922 -0.0281 -1.0749
52170SOL    HW266825   2.018   6.046   5.082  0.5346 -1.7693  0.5409
52171SOL     OW66826  11.401   8.483  12.338 -0.2787  0.1289  0.6760
52171SOL    HW166827  11.343   8.437  12.399 -0.8565 -0.0735 -0.0061
52171SOL    HW266828  11.463   8.416  12.308 -0.6765 -0.0429  0.2224
52172SOL     OW66829  11.401  11.018   4.359  0.2499 -0.2978 -0.1063
52172SOL    HW166830  11.358  11.079   4.299 -0.4165 -2.0758 -1.5198
52172SOL    HW266831  11.330  10.981   4.411  0.8955  1.8696  2.5453
52173SOL     OW66832   8.010   1.355   8.580  0.5905 -0.1430  0.0034
52173SOL    HW166833   7.962   1.281   8.617  0.0964  0.5452  0.7634
52173SOL    HW266834   8.037   1.325   8.493 -0.4008 -0.8821 -0.0623
52174SOL     OW66835   2.245  12.143   9.630  0.5961  0.2245 -0.1261
52174SOL    HW166836   2.173  12.159   9.568 -0.1747  0.5406  0.8313
52174SOL    HW266837   2.306  12.215   9.614  1.1908 -0.5662 -1.6060
52175SOL     OW66838   5.687  11.496   4.878 -0.4409  0.1961  0.6637
52175SOL    HW166839   5.694  11.401   4.867 -1.3220  0.2947 -1.2170
52175SOL    HW266840   5.625  11.507   4.950 -2.5905 -0.7388 -0.9211
52176SOL     OW66841   1.331  10.122   0.011 -0.4498  0.0598 -0.4633
52176SOL    HW166842   1.339  10.201  -0.043 -1.4460  1.3560  1.1853
52176SOL    HW266843   1.365  10.052  -0.044  0.8741  1.6955 -1.8457
52177SOL     OW66844   6.813  11.699   7.321 -0.3582 -0.1527  0.5018
52177SOL    HW166845   6.895  11.687   7.369 -1.5795  0.7897  2.9975
52177SOL    HW266846   6.834  11.762   7.252  0.7518  1.1511  1.9691
52178SOL     OW66847  11.144  12.947  12.682  0.0651  0.2621 -0.4414
52178SOL    HW166848  11.065  13.001  12.673  0.1481  0.6184  0.8062
52178SOL    HW266849  11.149  12.927  12.775  0.1102 -1.8516 -0.8456
52179SOL     OW66850   0.790   3.848   9.105 -0.8973 -0.0812 -0.0574
52179SOL    HW166851   0.827   3.780   9.049 -0.5384  0.1315 -0.0828
52179SOL    HW266852   0.808   3.929   9.059 -0.7244  0.0838  0.2964
52180SOL     OW66853   2.061   5.708   7.228 -0.4378 -0.1916  0.2157
52180SOL    HW166854   2.115   5.775   7.186 -2.1214 -0.1590 -2.1019
52180SOL    HW266855   2.120   5.663   7.288  1.7153  0.9134 -0.9730
52181SOL     OW66856   3.066   0.976   9.856  0.2199  0.0382 -0.1611
52181SOL    HW166857   3.084   0.924   9.778 -2.0436  1.0623 -1.4743
52181SOL    HW266858   3.094   1.065   9.833 -0.4928  0.3586  0.1724
52182SOL     OW66859  10.456   3.175   2.920 -0.0217  0.2225 -0.5300
52182SOL    HW166860  10.385   3.224   2.880 -0.6554 -0.0910  0.1795
52182SOL    HW266861  10.500   3.132   2.847 -0.3118  0.7411 -1.0137
52183SOL     OW66862   3.358  11.139   0.755 -0.2085  0.2339  0.1843
52183SOL    HW166863   3.299  11.078   0.799 -0.3719 -0.0000 -0.3459
52183SOL    HW266864   3.300  11.192   0.700 -0.1665  1.4175  1.2453
52184SOL     OW66865  12.664   8.710   1.706  0.0854 -0.1717  0.4487
52184SOL    HW166866  12.632   8.669   1.786 -0.4170 -0.9020 -0.1109
52184SOL    HW266867  12.759   8.698   1.709  0.1965  0.8931  1.5167
52185SOL     OW66868  11.788   5.934   2.744  0.1403  0.0879 -0.1379
52185SOL    HW166869  11.851   5.871   2.711  0.0083 -0.7230  1.0948
52185SOL    HW266870  11.709   5.920   2.692  0.6961  0.5439 -1.1302
52186SOL     OW66871   7.757   4.626  12.724  0.2827  0.5276  0.0453
52186SOL    HW166872   7.826   4.676  12.680  1.1272  0.5759  1.3755
52186SOL    HW266873   7.685   4.689  12.736  0.6552  0.9399  0.1388
52187SOL     OW66874   0.894   2.553   3.097 -0.0717  0.0109  0.3439
52187SOL    HW166875   0.848   2.622   3.049  0.5016  0.0572 -0.1506
52187SOL    HW266876   0.908   2.484   3.033  3.2529  1.2228 -0.4389
52188SOL     OW66877   8.287   5.194   2.313  0.6036 -0.1053  0.0488
52188SOL    HW166878   8.217   5.260   2.317 -0.1423 -0.7681 -1.2492
52188SOL    HW266879   8.262   5.128   2.377  1.7779  1.1863  1.9655
52189SOL     OW66880  11.695  11.045  12.801 -0.1347 -0.0747  0.0394
52189SOL    HW166881  11.788  11.025  12.786  0.1501  0.7224  0.6700
52189SOL    HW266882  11.689  11.059  12.896 -1.2079 -1.5944  0.2373
52190SOL     OW66883   6.342  11.840   6.131 -0.0759 -0.3438  0.6400
52190SOL    HW166884   6.276  11.869   6.194 -0.9532  0.1428 -0.4511
52190SOL    HW266885   6.345  11.910   6.065  0.9622 -0.7323  0.2497
52191SOL     OW66886   7.139   1.626   2.024  0.5365 -0.0767  0.2180
52191SOL    HW166887   7.045   1.640   2.023  0.5049 -0.1660  1.0844
52191SOL    HW266888   7.176   1.713   2.039  0.6983  0.2773 -1.8942
52192SOL     OW66889   5.216   1.634  12.816 -0.0574  0.3623 -0.3125
52192SOL    HW166890   5.203   1.560  12.875 -2.6133  0.3413 -0.7892
52192SOL    HW266891   5.264   1.698  12.867  0.6523 -0.9207  0.6843
52193SOL     OW66892  12.389  11.957   5.453 -0.0995  0.0376 -0.8495
52193SOL    HW166893  12.342  12.040   5.459 -1.3811 -0.7127  0.0653
52193SOL    HW266894  12.464  11.967   5.512 -0.1504  0.5938 -0.8795
52194SOL     OW66895   9.367  11.303   4.904 -0.0144  0.3251 -0.6404
52194SOL    HW166896   9.349  11.389   4.941  0.5064  0.2619 -0.2458
52194SOL    HW266897   9.396  11.250   4.978 -0.3071 -0.1846 -0.8863
52195SOL     OW66898   4.730   4.745   8.568 -0.0656 -0.6446  0.5218
52195SOL    HW166899   4.717   4.716   8.658  0.4051 -0.0402  0.7904
52195SOL    HW266900   4.801   4.689   8.535  0.3119 -0.3262  0.7882
52196SOL     OW66901   7.394   1.275   3.701 -0.0672  0.6085  0.1707
52196SOL    HW166902   7.400   1.262   3.607 -0.1386  0.9865  0.1108
52196SOL    HW266903   7.300   1.269   3.720 -0.1011  1.0222  0.1417
52197SOL     OW66904  12.316   5.267  12.698  0.0383 -0.0141  0.4380
52197SOL    HW166905  12.254   5.317  12.645 -0.4807 -0.3267  0.7416
52197SOL    HW266906  12.394   5.321  12.700 -0.7250  1.1086  1.3073
52198SOL     OW66907   6.609   9.607   5.690  0.5068 -0.4316  0.3513
52198SOL    HW166908   6.693   9.628   5.729  0.6382 -0.1748 -0.0640
52198SOL    HW266909   6.630   9.576   5.602  0.1430  0.1267  0.0550
52199SOL     OW66910  11.185   0.911   4.538 -0.4147 -0.2791  0.2054
52199SOL    HW166911  11.183   0.917   4.442 -1.1657  2.1317  0.3172
52199SOL    HW266912  11.095   0.894   4.563 -0.2453 -0.7477  0.5007
52200SOL     OW66913   3.179   6.857   7.739 -0.3978  0.2420 -0.2728
52200SOL    HW166914   3.098   6.818   7.772  0.7131 -2.1110 -0.1641
52200SOL    HW266915   3.187   6.822   7.650  0.8432 -0.1143 -0.0326
52201SOL     OW66916   9.786   1.875   1.042 -0.1814  0.2633  0.0061
52201SOL    HW166917   9.753   1.915   1.122  0.3749 -0.4584  0.6062
52201SOL    HW266918   9.760   1.783   1.048  0.3720  0.0766 -0.3594
52202SOL     OW66919  10.561   1.995   5.047  0.1981  0.4067  0.4306
52202SOL    HW166920  10.648   2.036   5.051  0.3693  0.0169  0.7482
52202SOL    HW266921  10.577   1.903   5.067 -0.1478  0.1161 -0.5650
52203SOL     OW66922   4.557   1.384   7.506  0.5940 -0.2621 -0.4608
52203SOL    HW166923   4.647   1.416   7.516  1.0601 -1.9710  1.3508
52203SOL    HW266924   4.507   1.462   7.480  2.1426  1.2945  0.9896
52204SOL     OW66925   4.550   5.006   8.186  0.1520  0.0758 -0.4997
52204SOL    HW166926   4.491   5.064   8.137  0.9624  1.2418 -0.1553
52204SOL    HW266927   4.579   4.941   8.122 -1.0685 -0.1874 -0.8022
52205SOL     OW66928   0.229  11.442   7.794 -0.1877 -0.1256 -0.4796
52205SOL    HW166929   0.290  11.373   7.772 -0.2659 -0.4609  0.3240
52205SOL    HW266930   0.281  11.522   7.793  0.1248 -0.3281 -0.4031
52206SOL     OW66931   3.080   6.315   8.545 -0.6329 -0.2086  0.2412
52206SOL    HW166932   3.167   6.308   8.584 -0.4073  0.4166 -0.1389
52206SOL    HW266933   3.085   6.260   8.466 -0.5355 -0.0614  0.1442
52207SOL     OW66934   3.911   4.454   2.559  0.5731  0.5369  0.3182
52207SOL    HW166935   3.976   4.388   2.583  0.2985  0.9668  2.4101
52207SOL    HW266936   3.829   4.421   2.596 -0.2410  0.5109 -1.3949
52208SOL     OW66937   0.869   5.714   8.935 -0.0227 -0.7592  0.2372
52208SOL    HW166938   0.905   5.801   8.953  2.4635 -1.5459 -0.5536
52208SOL    HW266939   0.828   5.722   8.849 -2.3497  0.2717  1.3545
52209SOL     OW66940   2.179  10.359   5.279 -0.0345  0.2752 -0.2291
52209SOL    HW166941   2.238  10.288   5.302 -0.7062  0.1262  1.1465
52209SOL    HW266942   2.193  10.373   5.186 -0.2602 -2.0060 -0.6468
52210SOL     OW66943   3.100  10.814  11.284 -0.0057 -0.3199  0.2878
52210SOL    HW166944   3.137  10.843  11.201 -0.3082 -1.6199 -0.3371
52210SOL    HW266945   3.007  10.836  11.277  0.3066  1.3877  1.1408
52211SOL     OW66946   9.689   7.989  12.316  0.5352 -0.0759  0.4696
52211SOL    HW166947   9.616   7.946  12.361 -0.6041  0.3415 -0.9137
52211SOL    HW266948   9.701   8.071  12.362  0.7207 -0.5273  1.2436
52212SOL     OW66949   9.673  12.392  11.792 -0.3233  0.2731 -0.0262
52212SOL    HW166950   9.732  12.328  11.832  0.1969  1.1395  0.6254
52212SOL    HW266951   9.730  12.466  11.772 -0.9275  0.5472 -0.7474
52213SOL     OW66952   2.271   9.005   3.215 -0.0028  0.3685 -0.4928
52213SOL    HW166953   2.230   9.054   3.143 -1.9367 -0.8131 -0.2760
52213SOL    HW266954   2.197   8.971   3.265  1.3082  0.1839  1.4035
52214SOL     OW66955  10.061   7.102  10.382 -0.4640 -0.1868 -0.0430
52214SOL    HW166956  10.008   7.180  10.367  0.3422 -0.0069 -2.2132
52214SOL    HW266957  10.047   7.047  10.305  0.7887 -1.1204  0.3529
52215SOL     OW66958   6.677   8.794   6.524  0.5401 -0.5322  0.0151
52215SOL    HW166959   6.698   8.872   6.576 -2.2958  1.3659 -1.3966
52215SOL    HW266960   6.587   8.809   6.495  0.0938 -4.0908 -0.8961
52216SOL     OW66961   5.755   0.067  12.832 -0.0650  0.1181 -0.6880
52216SOL    HW166962   5.677   0.035  12.877 -0.4860 -0.6117 -1.9079
52216SOL    HW266963   5.757   0.161  12.851 -0.5936 -0.0588  0.2964
52217SOL     OW66964   7.773  12.134   5.987  0.4534 -0.7970 -0.6096
52217SOL    HW166965   7.766  12.114   5.893 -1.1470  0.5744 -0.8269
52217SOL    HW266966   7.691  12.103   6.024  0.4513 -0.0117  0.0697
52218SOL     OW66967   1.180   1.144   2.438  0.5421  0.1642 -1.0413
52218SOL    HW166968   1.264   1.130   2.394  0.7738 -1.5573 -0.1212
52218SOL    HW266969   1.132   1.062   2.426 -0.6027  0.7425 -0.6325
52219SOL     OW66970   0.324   2.489  10.083 -0.2533  0.1272  0.5746
52219SOL    HW166971   0.256   2.421  10.073 -0.0733  0.2830 -2.5891
52219SOL    HW266972   0.279   2.571  10.062  0.1988  0.6737  1.6569
52220SOL     OW66973   3.759  12.391   4.328  0.1750  0.1542 -0.4106
52220SOL    HW166974   3.722  12.414   4.243 -1.5592  1.0875  0.5232
52220SOL    HW266975   3.802  12.471   4.358 -1.4744  0.7167  0.6517
52221SOL     OW66976   2.818   6.638  12.803  0.2019  0.6070 -0.3488
52221SOL    HW166977   2.794   6.560  12.752  0.3066  0.5237 -0.2696
52221SOL    HW266978   2.734   6.680  12.823  0.1337  0.4086 -0.2205
52222SOL     OW66979   0.453  11.629   7.402 -0.2751 -0.4031 -0.6762
52222SOL    HW166980   0.357  11.634   7.398 -0.4488  0.4863  2.1891
52222SOL    HW266981   0.472  11.536   7.410 -1.0088 -0.4925  0.0968
52223SOL     OW66982   8.687   5.194   1.432  0.3833 -0.1162  0.3268
52223SOL    HW166983   8.740   5.166   1.358 -1.7433  0.5036 -1.5268
52223SOL    HW266984   8.613   5.134   1.434  0.8378 -0.6948  2.5824
52224SOL     OW66985  12.941   1.902   9.202 -0.1044 -0.0249 -0.1213
52224SOL    HW166986  12.886   1.835   9.162 -0.1588 -1.5700  2.3095
52224SOL    HW266987  13.028   1.861   9.206  0.1501  0.5567  0.2627
52225SOL     OW66988   3.792   5.411  10.870 -0.0066 -0.1936 -0.6407
52225SOL    HW166989   3.705   5.395  10.908 -0.0797  1.0195 -0.2448
52225SOL    HW266990   3.801   5.344  10.803 -0.9818 -0.7450 -0.2480
52226SOL     OW66991   7.552   4.364   2.342  0.1488  0.1442  0.0668
52226SOL    HW166992   7.468   4.382   2.384  1.1522 -0.3363  2.3941
52226SOL    HW266993   7.618   4.400   2.402  1.6546 -0.1187 -1.3408
52227SOL     OW66994   2.406   0.338   1.539  0.2663  0.3445 -1.0468
52227SOL    HW166995   2.346   0.288   1.484  1.8595  0.2579 -2.8051
52227SOL    HW266996   2.489   0.337   1.491  1.3270  1.5735  0.6528
52228SOL     OW66997  11.552  10.717   7.910 -0.3086 -0.5839  0.3662
52228SOL    HW166998  11.597  10.633   7.912 -0.5300 -0.7070  0.2507
52228SOL    HW266999  11.516  10.724   7.822 -1.2920 -0.9112  0.7293
52229SOL     OW67000  12.022   4.154  11.321  0.0358 -0.2914  0.1943
52229SOL    HW167001  12.034   4.070  11.277  1.7483  0.1508 -0.2388
52229SOL    HW267002  12.090   4.156  11.388  1.4571  1.5938 -1.1728
52230SOL     OW67003  12.470  12.549   8.750 -0.7015  0.1065 -0.1513
52230SOL    HW167004  12.534  12.594   8.696 -1.6423  1.2361 -0.3843
52230SOL    HW267005  12.504  12.557   8.840 -0.6309  0.9099 -0.2427
52231SOL     OW67006   0.292   5.582  11.406  0.3246 -0.4301  0.4049
52231SOL    HW167007   0.317   5.673  11.391  1.1096 -0.7567 -0.3237
52231SOL    HW267008   0.235   5.560  11.332  0.3448 -0.6065  0.4403
52232SOL     OW67009   5.183   3.170  12.505  0.7753  0.0961 -0.3075
52232SOL    HW167010   5.091   3.191  12.521  0.0379 -3.3489  0.8127
52232SOL    HW267011   5.230   3.215  12.575 -0.0598  1.6099 -0.6702
52233SOL     OW67012   6.570   2.863   8.774 -0.2575  0.1751  0.0283
52233SOL    HW167013   6.492   2.893   8.728 -0.4382 -1.2468 -0.6629
52233SOL    HW267014   6.596   2.937   8.829 -1.1197  1.2562 -0.9672
52234SOL     OW67015   4.785   6.665   4.188 -0.7825 -0.3452  0.4583
52234SOL    HW167016   4.778   6.692   4.096 -2.1572 -1.5557  0.1753
52234SOL    HW267017   4.879   6.664   4.206 -0.5426  1.1054 -0.5508
52235SOL     OW67018   2.996   7.543   9.415  0.0166  0.0034  0.0580
52235SOL    HW167019   3.060   7.472   9.414  0.1161 -0.0028  2.2693
52235SOL    HW267020   3.049   7.623   9.417 -0.0052  0.0073  1.4874
52236SOL     OW67021   9.425  12.837  12.009 -0.4335 -0.2398 -0.4610
52236SOL    HW167022   9.399  12.805  12.096 -0.8007  0.7961 -0.1755
52236SOL    HW267023   9.343  12.862  11.967 -0.4407 -2.1462 -1.7370
52237SOL     OW67024   8.961   5.405   6.008  0.3632 -0.3031 -0.2758
52237SOL    HW167025   8.993   5.487   5.970  1.4351 -1.0306 -0.9938
52237SOL    HW267026   8.892   5.376   5.948 -1.4212  1.0230  1.0198
52238SOL     OW67027   1.526  11.297   9.585 -0.3182 -0.4220  0.6601
52238SOL    HW167028   1.545  11.238   9.513 -1.8021 -0.7061  0.4558
52238SOL    HW267029   1.538  11.385   9.548 -1.1701 -0.5646  0.0222
52239SOL     OW67030   8.688   4.284   5.844  0.3053  0.4812  0.2014
52239SOL    HW167031   8.669   4.235   5.765  1.0894 -0.9733  0.8709
52239SOL    HW267032   8.784   4.291   5.846  0.2460  1.2471  0.5728
52240SOL     OW67033   7.843   9.186   4.757  0.4837  0.7531 -0.0746
52240SOL    HW167034   7.783   9.119   4.789  0.7110  0.6095  0.0575
52240SOL    HW267035   7.911   9.193   4.825  0.8193  0.6422 -0.3936
52241SOL     OW67036   6.417   4.286   1.589 -0.1814 -0.0208  0.2621
52241SOL    HW167037   6.355   4.356   1.608  1.1619  0.6433  2.6154
52241SOL    HW267038   6.392   4.214   1.647  0.8778  0.0707  0.8728
52242SOL     OW67039   5.155   1.423   0.019 -0.4598 -0.1365  0.2168
52242SOL    HW167040   5.233   1.373  -0.006 -1.2672 -2.0138  1.2836
52242SOL    HW267041   5.188   1.488   0.082  0.5950  0.7396 -1.1694
52243SOL     OW67042   1.749   6.963   5.845 -0.5204  0.2455  0.1508
52243SOL    HW167043   1.745   6.868   5.857 -1.0454  0.4090  1.4427
52243SOL    HW267044   1.802   6.995   5.918  1.7295  0.7694 -1.5969
52244SOL     OW67045   9.495   7.915   8.912 -0.0571  0.0115  0.4471
52244SOL    HW167046   9.442   7.878   8.841  1.6590  0.2864 -1.0471
52244SOL    HW267047   9.517   7.840   8.967 -0.8431 -0.3276  0.3029
52245SOL     OW67048   3.259  10.302   0.146 -0.5981  0.5877  0.3588
52245SOL    HW167049   3.228  10.258   0.225 -1.9831  0.2472 -0.3494
52245SOL    HW267050   3.316  10.237   0.104 -0.9241  0.2766  0.3979
52246SOL     OW67051   4.390   8.132   8.492 -0.2890 -0.2920  0.3596
52246SOL    HW167052   4.409   8.161   8.581 -0.7076 -0.4832  0.5146
52246SOL    HW267053   4.422   8.202   8.436 -4.6209  2.4177  0.8174
52247SOL     OW67054   0.629   4.113  11.819 -0.0494  0.4770  0.0501
52247SOL    HW167055   0.635   4.143  11.728  1.3775  0.5229  0.1453
52247SOL    HW267056   0.645   4.191  11.871  2.1835 -0.0857  0.3043
52248SOL     OW67057   7.400  10.512   5.522 -0.1811 -0.0852 -0.1003
52248SOL    HW167058   7.362  10.475   5.602  0.4275 -1.1959 -0.3088
52248SOL    HW267059   7.446  10.591   5.552  0.4683 -0.7668  0.7368
52249SOL     OW67060   4.316   0.981   4.613  0.5526  0.0976  0.0497
52249SOL    HW167061   4.318   0.972   4.708  0.6595  1.3674  0.1938
52249SOL    HW267062   4.406   1.003   4.590  0.1397  1.7781 -0.0866
52250SOL     OW67063   8.924   2.564   4.222  0.1672 -0.3174  0.5241
52250SOL    HW167064   8.889   2.565   4.311 -1.7736  1.1297 -0.2065
52250SOL    HW267065   8.930   2.471   4.200 -2.7299 -0.6909  0.9292
52251SOL     OW67066   7.202   2.190  11.987  0.2652  0.2772  0.3017
52251SOL    HW167067   7.290   2.159  12.010 -0.0353  0.0188  1.1371
52251SOL    HW267068   7.191   2.270  12.037  1.0551  1.8589 -1.8936
52252SOL     OW67069   6.913   5.939   7.273  0.4228 -0.3571 -0.4394
52252SOL    HW167070   6.854   5.963   7.344  0.0034  0.8935 -1.1714
52252SOL    HW267071   6.860   5.948   7.193  1.1809 -0.6603 -0.9904
52253SOL     OW67072   2.789  10.655   6.801 -0.1949 -0.1877 -0.4009
52253SOL    HW167073   2.768  10.735   6.754  0.5059 -1.2204 -2.6235
52253SOL    HW267074   2.778  10.677   6.893 -1.7024  1.9403 -1.0221
52254SOL     OW67075  10.166   6.374  12.933 -0.0659 -0.5883  0.0372
52254SOL    HW167076  10.186   6.385  13.026 -3.2672  1.4203  0.6544
52254SOL    HW267077  10.116   6.293  12.928 -0.4193 -0.3854  0.2066
52255SOL     OW67078   7.001   0.499  12.212 -0.0596  0.6164  0.6857
52255SOL    HW167079   6.931   0.542  12.262 -0.0764  1.3820  0.0228
52255SOL    HW267080   7.032   0.566  12.151  0.7661  0.0623  0.4740
52256SOL     OW67081   1.543   2.525   8.254  0.1020 -0.4731  0.0774
52256SOL    HW167082   1.570   2.598   8.311  2.0109 -1.0151 -0.0645
52256SOL    HW267083   1.551   2.560   8.165  0.3428 -0.6223  0.0377
52257SOL     OW67084   5.610   1.940   2.644  0.0766 -0.3158 -0.1421
52257SOL    HW167085   5.635   1.865   2.697  0.0061 -1.0622 -1.1453
52257SOL    HW267086   5.518   1.957   2.667  0.1024 -0.5072  0.1028
52258SOL     OW67087   9.147   2.161  12.927 -0.3866 -0.4783  0.0312
52258SOL    HW167088   9.228   2.195  12.890 -0.7016 -1.7823 -2.0018
52258SOL    HW267089   9.079   2.191  12.867 -0.7571 -3.8928 -1.4989
52259SOL     OW67090   6.311   1.091   6.600 -0.0872  0.4200 -0.3112
52259SOL    HW167091   6.228   1.136   6.615 -0.0938  0.1175  0.6375
52259SOL    HW267092   6.363   1.152   6.548 -0.3290  1.2558  0.4160
52260SOL     OW67093   4.936   8.229   7.380 -0.3105 -0.6508 -0.1682
52260SOL    HW167094   5.018   8.214   7.429 -0.9014 -0.5078  0.8979
52260SOL    HW267095   4.965   8.265   7.296  0.8798 -2.9976 -0.8637
52261SOL     OW67096  12.014   9.486   8.885  0.1669 -0.1819  0.2510
52261SOL    HW167097  11.950   9.421   8.912 -0.5313 -0.2011 -1.3256
52261SOL    HW267098  11.975   9.570   8.913 -1.1547 -0.0893 -1.6479
52262SOL     OW67099   4.129  12.904   7.891  0.0229 -0.0954  0.6019
52262SOL    HW167100   4.061  12.925   7.827  0.2498  1.2320  0.7820
52262SOL    HW267101   4.212  12.912   7.843  0.0899 -1.5461  0.4242
52263SOL     OW67102  11.993   3.969   7.714  0.0806 -0.4900 -0.7826
52263SOL    HW167103  11.954   4.031   7.653 -1.3800 -0.7376 -0.1249
52263SOL    HW267104  11.931   3.896   7.719 -0.9172  0.4166  2.5430
52264SOL     OW67105   0.183  11.460   5.117 -0.0859  0.0237 -0.9620
52264SOL    HW167106   0.226  11.471   5.202  0.0160 -0.5015 -0.9400
52264SOL    HW267107   0.107  11.405   5.136 -0.3714  0.3645 -1.1198
52265SOL     OW67108   2.122   7.472   1.143 -0.2199 -0.5860 -0.2400
52265SOL    HW167109   2.129   7.507   1.054 -0.4796  0.9919  0.3318
52265SOL    HW267110   2.045   7.517   1.180  0.7852 -0.0357  1.2811
52266SOL     OW67111   0.629   6.528   8.831 -0.0809 -0.3450  0.2755
52266SOL    HW167112   0.620   6.582   8.909  1.7153  1.2218 -0.5027
52266SOL    HW267113   0.723   6.512   8.824 -0.1151  0.0358 -1.8256
52267SOL     OW67114   6.469   5.443   5.585 -0.2286 -0.2363 -0.4000
52267SOL    HW167115   6.396   5.387   5.611 -0.9205 -0.1096 -1.9306
52267SOL    HW267116   6.545   5.384   5.581 -0.6791 -0.8050 -0.7338
52268SOL     OW67117   4.569   6.135   3.965  0.6789 -0.0373  0.3469
52268SOL    HW167118   4.622   6.214   3.961  1.9766 -0.9188 -0.3516
52268SOL    HW267119   4.506   6.144   3.894 -0.5149  1.2512  1.5008
52269SOL     OW67120   3.527   6.603   0.291 -0.6731 -0.0540  0.0708
52269SOL    HW167121   3.483   6.688   0.300  0.5519  0.4744  1.4726
52269SOL    HW267122   3.600   6.620   0.232 -0.7689 -0.2749 -0.1119
52270SOL     OW67123   4.463   1.469  10.571 -0.6382  0.3541  0.2023
52270SOL    HW167124   4.391   1.491  10.630 -0.5052  1.4075 -0.0132
52270SOL    HW267125   4.496   1.553  10.540 -0.3172 -0.1668 -0.9215
52271SOL     OW67126   9.672  10.989   5.948  0.3765 -0.4130  0.2919
52271SOL    HW167127   9.580  11.013   5.952  0.3158  0.1520 -2.5793
52271SOL    HW267128   9.683  10.924   6.017 -2.1214 -0.4166  0.7656
52272SOL     OW67129   8.745   1.329   9.200  0.0131  0.0602 -0.0777
52272SOL    HW167130   8.782   1.416   9.189  1.1945 -0.6107 -1.8554
52272SOL    HW267131   8.759   1.308   9.292 -1.7072  2.3152  0.7729
52273SOL     OW67132   0.855   0.842   2.940  0.4663 -0.0463  0.2667
52273SOL    HW167133   0.908   0.878   2.869  1.8945 -1.5196  0.5067
52273SOL    HW267134   0.843   0.750   2.916 -0.1014 -0.2648  1.3225
52274SOL     OW67135   0.966   3.318   6.256 -0.5482  0.8203 -0.3590
52274SOL    HW167136   0.930   3.407   6.256  1.5583  1.7616  1.2906
52274SOL    HW267137   0.979   3.297   6.348  0.8123 -0.4228 -0.7981
52275SOL     OW67138   3.836   7.873  10.585  0.3414  0.0139 -0.5147
52275SOL    HW167139   3.892   7.871  10.663 -1.2458  0.4300  0.6847
52275SOL    HW267140   3.870   7.946  10.533  2.7090 -1.5022 -1.2984
52276SOL     OW67141   4.151   6.668   9.620  0.7724 -0.2177  0.2605
52276SOL    HW167142   4.213   6.687   9.550  1.4021 -0.8712  0.6254
52276SOL    HW267143   4.121   6.754   9.649 -0.1613  0.0534 -1.3605
52277SOL     OW67144  10.523  12.092   3.247  0.0316 -0.0645 -0.2827
52277SOL    HW167145  10.599  12.115   3.301 -0.7702 -1.1576  1.4038
52277SOL    HW267146  10.556  12.027   3.186  1.1813  1.8883 -1.8403
52278SOL     OW67147   3.063   3.441   3.597  0.6217 -0.0923 -0.5241
52278SOL    HW167148   2.986   3.410   3.645  1.0179 -1.1279 -0.5202
52278SOL    HW267149   3.030   3.513   3.542 -0.4682 -0.8669 -0.9264
52279SOL     OW67150   0.509   3.093   7.240  0.1418 -0.0337 -0.1717
52279SOL    HW167151   0.481   3.107   7.331  1.6945  2.6139  0.0235
52279SOL    HW267152   0.459   3.017   7.211  1.1713 -2.4200  3.5590
52280SOL     OW67153  11.975   0.679  11.809  0.1387  0.4498  0.5611
52280SOL    HW167154  12.056   0.653  11.764 -0.4571 -0.5803  0.0507
52280SOL    HW267155  11.957   0.607  11.869 -2.1932 -1.0573 -1.7269
52281SOL     OW67156   6.169   7.244   1.555  0.6297  0.2660  0.6593
52281SOL    HW167157   6.252   7.291   1.556  0.2226  1.0267 -0.0920
52281SOL    HW267158   6.160   7.212   1.465  1.2577 -1.9324  1.3320
52282SOL     OW67159   3.558   7.164   1.652  0.0236 -0.2195 -0.7732
52282SOL    HW167160   3.491   7.229   1.675  0.6888 -0.0532  0.7421
52282SOL    HW267161   3.520   7.118   1.576 -1.1513  0.8539 -0.8804
52283SOL     OW67162  11.772   6.792  11.866  0.2490 -0.2985  0.0437
52283SOL    HW167163  11.717   6.740  11.807  0.3943 -0.1608 -0.2134
52283SOL    HW267164  11.727   6.876  11.873  0.4311 -0.1800 -0.1791
52284SOL     OW67165   2.764  12.051   1.659  0.0363  0.5260  0.3284
52284SOL    HW167166   2.850  12.009   1.650 -0.4745 -0.5207  0.2101
52284SOL    HW267167   2.759  12.112   1.586  0.0294 -0.5813 -0.6240
52285SOL     OW67168   0.253   8.035  12.267 -0.0974  0.4823 -0.0831
52285SOL    HW167169   0.261   7.957  12.211 -0.9218 -0.2019  0.7195
52285SOL    HW267170   0.179   8.083  12.231  0.3055  0.8174 -0.4756
52286SOL     OW67171   0.356   1.177   1.114  0.5827  0.0045 -0.4491
52286SOL    HW167172   0.328   1.154   1.203  0.1869 -0.3712 -0.6716
52286SOL    HW267173   0.275   1.186   1.065  0.7996  0.3089 -0.7503
52287SOL     OW67174   6.065   1.179   0.654  0.0031 -0.3118  0.0625
52287SOL    HW167175   6.104   1.257   0.693  1.5327 -1.3731  0.7764
52287SOL    HW267176   6.001   1.149   0.719  0.2784 -0.3103  0.3374
52288SOL     OW67177  12.300   4.860   1.895  0.2452  0.1952 -0.2660
52288SOL    HW167178  12.226   4.918   1.876 -0.6201 -1.2052 -1.4830
52288SOL    HW267179  12.265   4.798   1.959  0.0128 -1.0358 -1.5275
52289SOL     OW67180   4.120   0.108  10.392  0.0246  0.0732 -0.1618
52289SOL    HW167181   4.062   0.085  10.320 -0.7265 -1.8624  0.9836
52289SOL    HW267182   4.173   0.029  10.406  0.7378  0.7081  0.8489
52290SOL     OW67183  10.237   5.023   5.476 -0.3103  0.1854 -0.5718
52290SOL    HW167184  10.235   4.931   5.504  0.4390 -0.4816 -2.5456
52290SOL    HW267185  10.146   5.043   5.453 -0.1593 -0.7175 -2.0314
52291SOL     OW67186   4.599   4.294   5.485 -0.6856  0.2817  0.1225
52291SOL    HW167187   4.574   4.204   5.466 -0.9237  0.1482  1.0423
52291SOL    HW267188   4.531   4.326   5.545 -1.4166  1.5389 -1.2976
52292SOL     OW67189   3.875   9.168   2.709 -0.0549 -0.1257  0.4962
52292SOL    HW167190   3.877   9.210   2.795 -0.5278  1.4188 -0.1967
52292SOL    HW267191   3.966   9.147   2.690 -0.0811 -1.8041  1.9405
52293SOL     OW67192   3.199   9.816   4.714 -0.1724 -0.1808 -0.1737
52293SOL    HW167193   3.219   9.724   4.697 -1.0545 -0.5723  0.8270
52293SOL    HW267194   3.280   9.863   4.691  0.0486 -1.1111 -1.3855
52294SOL     OW67195   9.892   8.272   3.658 -0.1334  0.0232  0.5880
52294SOL    HW167196   9.953   8.338   3.692  1.1318 -0.1840 -1.1459
52294SOL    HW267197   9.854   8.312   3.580 -0.6643 -0.6437  0.4994
52295SOL     OW67198   4.131   8.425   5.791 -0.2441 -0.6673 -0.1389
52295SOL    HW167199   4.189   8.430   5.867 -1.4906 -0.2305  0.8318
52295SOL    HW267200   4.125   8.516   5.760  0.6119 -0.9073 -1.0650
52296SOL     OW67201   8.291   1.081   0.074  0.2377  0.0115 -0.7065
52296SOL    HW167202   8.262   1.074   0.165 -0.8909  1.6891 -0.8886
52296SOL    HW267203   8.386   1.081   0.078  0.2094 -1.2480  0.3351
52297SOL     OW67204   6.787   6.467   9.842  0.1875 -0.4078 -0.1200
52297SOL    HW167205   6.762   6.431   9.927  1.2351 -0.5754  0.1332
52297SOL    HW267206   6.831   6.395   9.797  1.5344  0.2662  0.0513
52298SOL     OW67207  11.917   1.809   7.081 -0.0538  0.7939  0.0078
52298SOL    HW167208  11.942   1.785   7.170  1.8619  2.0452 -0.1320
52298SOL    HW267209  11.870   1.891   7.090 -0.7215  0.4290 -0.0739
52299SOL     OW67210   1.039   2.528  12.685  0.0129  0.3628 -0.4394
52299SOL    HW167211   0.996   2.568  12.761  0.7384 -0.7289  0.5980
52299SOL    HW267212   0.979   2.458  12.658 -0.8112  1.5032 -1.6569
52300SOL     OW67213   2.619   5.693   8.526  0.0585  0.3187  0.1790
52300SOL    HW167214   2.641   5.694   8.619 -0.7657  1.3181  0.3806
52300SOL    HW267215   2.578   5.607   8.512  1.0544 -0.2256  0.5101
52301SOL     OW67216   7.506  12.467   9.421  0.4229 -0.3017  0.1256
52301SOL    HW167217   7.478  12.558   9.434 -0.1106 -0.3823 -0.4146
52301SOL    HW267218   7.537  12.439   9.508 -1.9711 -0.4632  1.0097
52302SOL     OW67219   4.554   0.553   3.032  0.2040 -0.2574 -0.6217
52302SOL    HW167220   4.508   0.588   2.955 -0.8992 -0.7162 -0.1953
52302SOL    HW267221   4.580   0.465   3.006  1.5851  0.2796 -1.1419
52303SOL     OW67222   4.075  10.444   6.682  0.0138 -0.0866 -0.0447
52303SOL    HW167223   4.092  10.481   6.769 -0.1678 -2.6770  1.1901
52303SOL    HW267224   3.984  10.414   6.686 -0.1478  0.2016 -1.3153
52304SOL     OW67225   7.744   7.113   3.216  0.3143 -0.3677 -0.3162
52304SOL    HW167226   7.739   7.156   3.301  0.2448 -0.0873 -0.4633
52304SOL    HW267227   7.748   7.184   3.152 -1.4573 -0.5481 -0.6817
52305SOL     OW67228   9.533   1.327   0.265  0.2114 -0.6168  0.7461
52305SOL    HW167229   9.626   1.311   0.250  0.8116  0.1989  3.1666
52305SOL    HW267230   9.495   1.241   0.281  0.1973 -1.1197 -1.5949
52306SOL     OW67231   7.984   8.413   0.223  0.3096  0.0223  0.0498
52306SOL    HW167232   7.994   8.373   0.137  3.0865  0.1001  0.2510
52306SOL    HW267233   7.967   8.340   0.282  0.2986 -0.2465 -0.2839
52307SOL     OW67234   9.084  10.591   5.623  0.0085 -0.5486 -0.4613
52307SOL    HW167235   9.123  10.506   5.599 -0.4807 -1.1251  0.7311
52307SOL    HW267236   8.989  10.575   5.619 -0.2542 -1.4864  4.1507
52308SOL     OW67237   7.855   9.852   9.333  0.0695  0.3685 -0.3688
52308SOL    HW167238   7.877   9.836   9.242 -0.8730  0.4176 -0.6222
52308SOL    HW267239   7.939   9.865   9.377  0.6247 -1.1073 -0.9401
52309SOL     OW67240   5.802   9.244  11.606  0.1642 -0.6066 -0.3232
52309SOL    HW167241   5.754   9.317  11.644 -2.6946 -0.8875 -2.9809
52309SOL    HW267242   5.852   9.283  11.534  1.5992 -0.7783  0.5473
52310SOL     OW67243   6.682   4.557   8.235  0.1126  0.0414  0.0816
52310SOL    HW167244   6.773   4.585   8.247 -0.0586  1.3811 -1.4174
52310SOL    HW267245   6.674   4.540   8.141 -0.9930 -0.8472  0.3100
52311SOL     OW67246  10.598   2.721   4.950 -0.1309 -0.5465  0.4706
52311SOL    HW167247  10.691   2.702   4.942 -0.2261 -0.2644 -2.1849
52311SOL    HW267248  10.593   2.816   4.956 -0.2353 -0.5574  0.5532
52312SOL     OW67249  10.499  11.992  10.433  0.1413 -0.1161  0.3602
52312SOL    HW167250  10.431  12.028  10.377 -0.4051 -0.1295  0.9924
52312SOL    HW267251  10.455  11.920  10.479  0.3892  0.2994  1.2646
52313SOL     OW67252   1.018  12.807  12.949 -0.0191 -0.2330 -0.0128
52313SOL    HW167253   0.996  12.760  12.868  0.7206  1.0092 -0.9609
52313SOL    HW267254   1.023  12.738  13.015  1.1503 -1.5294 -1.3725
52314SOL     OW67255   3.739  12.597   5.918  0.1969  0.4589  0.5502
52314SOL    HW167256   3.746  12.690   5.941 -0.1031  0.3412  1.1485
52314SOL    HW267257   3.795  12.587   5.842 -3.3022  2.1683 -2.6097
52315SOL     OW67258  11.943   1.739   7.349  0.1789  0.0840 -0.3239
52315SOL    HW167259  11.877   1.672   7.371  0.1177 -0.5400 -2.2134
52315SOL    HW267260  12.024   1.707   7.389 -0.3043 -0.0045  0.6074
52316SOL     OW67261   4.952  11.479   4.972  0.5392 -0.3055 -0.0526
52316SOL    HW167262   4.978  11.418   4.903  0.5828  0.0216 -0.3264
52316SOL    HW267263   4.956  11.565   4.931  1.1885 -0.0451  0.5412
52317SOL     OW67264   8.136   6.510   6.954 -0.1754 -0.2370  0.1738
52317SOL    HW167265   8.187   6.437   6.918 -1.4893 -0.6928 -0.8062
52317SOL    HW267266   8.202   6.567   6.993  1.1234 -0.7296 -1.1932
52318SOL     OW67267   3.508   3.390   8.250  0.0531  0.0932 -0.1308
52318SOL    HW167268   3.513   3.431   8.336 -0.8029 -1.2940  0.6136
52318SOL    HW267269   3.553   3.307   8.260 -1.0368 -0.5884 -0.7027
52319SOL     OW67270   1.002  12.521   3.012 -0.2052  0.1329 -0.0712
52319SOL    HW167271   0.979  12.526   3.105  0.5238 -0.0676  0.1250
52319SOL    HW267272   0.971  12.604   2.975  1.8995  1.4346  0.9064
52320SOL     OW67273   3.063   9.075  10.638 -0.1684 -0.1814 -0.1987
52320SOL    HW167274   3.081   9.033  10.554 -0.8848  2.4589 -1.7950
52320SOL    HW267275   2.982   9.034  10.669  0.0687 -1.1263 -0.7776
52321SOL     OW67276   6.366   9.341   5.317  0.2978  0.0070  1.0108
52321SOL    HW167277   6.349   9.250   5.343 -0.7875  0.3038  1.4251
52321SOL    HW267278   6.279   9.379   5.308  0.7131  0.6681 -0.4299
52322SOL     OW67279   5.967  10.471  12.680 -0.3260 -0.1388 -0.3625
52322SOL    HW167280   5.950  10.448  12.589  0.9496 -0.5416 -0.5189
52322SOL    HW267281   5.917  10.551  12.695  0.4661  0.6619 -1.8087
52323SOL     OW67282   5.664   3.368   2.630  0.7780  0.3883  0.0158
52323SOL    HW167283   5.707   3.428   2.570 -1.0882 -0.5210 -2.3926
52323SOL    HW267284   5.617   3.424   2.691  0.7908  1.3950 -0.8751
52324SOL     OW67285   1.821   3.833   7.211  0.0179  0.2121  0.1760
52324SOL    HW167286   1.848   3.884   7.134 -0.4877 -0.0353 -0.1770
52324SOL    HW267287   1.790   3.899   7.273  1.2326  0.4790  0.5107
52325SOL     OW67288   9.311   9.646   2.918  0.1184  0.0423 -0.4126
52325SOL    HW167289   9.264   9.564   2.903  0.1406  0.0582 -0.5620
52325SOL    HW267290   9.268   9.685   2.994  0.0143 -0.0363 -0.4325
52326SOL     OW67291   1.784   0.941  10.448 -0.4839 -0.6569 -0.3154
52326SOL    HW167292   1.858   0.927  10.388 -0.5462 -0.5869 -0.4073
52326SOL    HW267293   1.772   0.855  10.489  0.8455 -0.2146  1.0788
52327SOL     OW67294   5.038  12.612  12.177 -0.5877 -0.4967  0.3527
52327SOL    HW167295   5.061  12.705  12.173 -2.2060 -0.1139 -0.5838
52327SOL    HW267296   4.943  12.610  12.187 -0.5066 -2.0611  1.2900
52328SOL     OW67297   5.327   9.459   1.367  0.0549 -0.0090  0.1339
52328SOL    HW167298   5.253   9.399   1.370  1.2823 -1.6268 -0.3236
52328SOL    HW267299   5.292   9.543   1.398 -2.3204 -0.2987 -1.4686
52329SOL     OW67300   6.278   6.881   1.636  0.1141 -0.2686 -0.0715
52329SOL    HW167301   6.279   6.959   1.691  0.4242 -0.8362  0.7436
52329SOL    HW267302   6.249   6.811   1.693  2.3398 -1.2622 -0.0477
52330SOL     OW67303   1.342   2.176   8.747 -0.1993 -0.1443 -0.7334
52330SOL    HW167304   1.421   2.219   8.779 -0.5400  1.0206 -1.3857
52330SOL    HW267305   1.288   2.165   8.825  1.3905 -2.8170  0.0806
52331SOL     OW67306   3.692   3.674   2.298  0.2221  0.2990  0.1215
52331SOL    HW167307   3.710   3.662   2.204  0.8488 -0.4713  0.3287
52331SOL    HW267308   3.742   3.753   2.322  1.1893 -0.2944  0.1021
52332SOL     OW67309   5.068   3.037   7.646 -0.3216 -0.3421 -0.0728
52332SOL    HW167310   5.103   2.948   7.652  0.5400 -0.0323 -0.4376
52332SOL    HW267311   5.106   3.084   7.720 -0.7164 -0.2466  0.0762
52333SOL     OW67312   0.189   6.463   2.376 -0.0885 -0.2366  0.5053
52333SOL    HW167313   0.101   6.443   2.347 -0.2945 -0.0886  1.0156
52333SOL    HW267314   0.179   6.491   2.467  0.6280 -1.5806  1.0386
52334SOL     OW67315   7.537   8.849   9.295 -0.0952  0.3552  0.2552
52334SOL    HW167316   7.510   8.932   9.256 -0.9399 -0.9196 -2.0413
52334SOL    HW267317   7.496   8.782   9.240  0.3506 -1.6091  2.1786
52335SOL     OW67318   5.322   2.663   8.651 -0.3032  0.0124  0.3551
52335SOL    HW167319   5.242   2.623   8.618  0.5259 -0.0099 -1.8324
52335SOL    HW267320   5.305   2.757   8.646  0.6554  0.1350 -2.8000
52336SOL     OW67321   9.933   2.904   4.158 -0.4165 -0.3571  0.2903
52336SOL    HW167322   9.975   2.818   4.157  0.2199 -0.0914  1.4320
52336SOL    HW267323   9.895   2.913   4.071  0.3766 -1.3627 -0.1943
52337SOL     OW67324   0.395   9.936   3.882  0.2878 -0.2232  0.2588
52337SOL    HW167325   0.323   9.974   3.932 -0.8532 -1.1276 -0.6444
52337SOL    HW267326   0.368   9.944   3.790  0.1145 -2.8754 -0.0021
52338SOL     OW67327   0.886   0.229   6.701  0.3139  0.0505 -0.0698
52338SOL    HW167328   0.795   0.241   6.728  0.5219  0.7357  0.3571
52338SOL    HW267329   0.937   0.260   6.776  0.9060  0.9534 -0.8163
52339SOL     OW67330   8.161   9.965   8.211  0.5991  0.6215  0.0207
52339SOL    HW167331   8.247   9.926   8.194  0.8738  1.5792 -0.8984
52339SOL    HW267332   8.100   9.891   8.207  1.4645 -0.2571  1.7709
52340SOL     OW67333  10.495   8.842   3.002  0.2534 -0.3316 -0.0766
52340SOL    HW167334  10.486   8.880   3.089 -2.3339  1.7719 -1.1329
52340SOL    HW267335  10.589   8.843   2.985  0.6556  1.0257  1.9155
52341SOL     OW67336   3.686   6.630   6.632  0.1209  0.1031 -0.2518
52341SOL    HW167337   3.678   6.658   6.723  1.2464 -0.1973 -0.0382
52341SOL    HW267338   3.760   6.680   6.598 -0.1077 -0.0011 -0.9114
52342SOL     OW67339   8.049   7.102   1.761  0.0027  0.0641 -0.5704
52342SOL    HW167340   8.079   7.188   1.729  2.3661  0.4580  2.1830
52342SOL    HW267341   7.982   7.123   1.826 -1.3881 -0.4034 -1.8191
52343SOL     OW67342  10.387   3.099   1.375  0.3280 -0.4021  1.1418
52343SOL    HW167343  10.371   3.024   1.432  0.4433 -1.7987 -0.5708
52343SOL    HW267344  10.474   3.084   1.339 -0.2694 -0.3245 -0.4498
52344SOL     OW67345   5.622   0.300  11.546 -0.2011  0.3585  0.5561
52344SOL    HW167346   5.549   0.311  11.486  0.2789 -2.0710 -0.6148
52344SOL    HW267347   5.612   0.370  11.610 -2.2814  1.4017 -0.8077
52345SOL     OW67348   1.122   7.836   2.255 -0.3596 -0.2944  0.4356
52345SOL    HW167349   1.160   7.748   2.247 -1.4908 -0.6741 -1.2138
52345SOL    HW267350   1.146   7.864   2.343  1.0930 -1.7413  0.5540
52346SOL     OW67351  12.984   7.563   3.874  0.2190 -0.1908 -0.3150
52346SOL    HW167352  13.013   7.491   3.819  0.8714 -0.4323  0.3262
52346SOL    HW267353  12.889   7.549   3.884  0.3252 -0.9046 -0.2723
52347SOL     OW67354   5.214  11.954   8.814  0.2072 -0.3090 -0.1533
52347SOL    HW167355   5.279  11.975   8.881  1.1897  1.5351 -1.5988
52347SOL    HW267356   5.144  11.909   8.862  0.1871  2.1305  2.3984
52348SOL     OW67357   3.460   1.677   7.840  0.0895 -0.2368 -0.4293
52348SOL    HW167358   3.493   1.597   7.880  1.4240 -0.7995 -2.5295
52348SOL    HW267359   3.435   1.732   7.915  1.7260 -1.5122  1.1474
52349SOL     OW67360   3.739   6.386   2.362 -0.0388 -0.0844 -0.7775
52349SOL    HW167361   3.810   6.358   2.304  1.0838 -2.3282  1.4804
52349SOL    HW267362   3.692   6.306   2.383  0.4152  0.3267  2.3464
52350SOL     OW67363   6.947   1.769   0.048 -0.1069 -0.0909  0.2542
52350SOL    HW167364   6.861   1.804   0.026 -0.9180 -2.2401 -0.2546
52350SOL    HW267365   6.953   1.778   0.143 -1.4261 -0.9587  0.4508
52351SOL     OW67366   4.524   9.058   4.963 -0.1532  0.1681  0.0061
52351SOL    HW167367   4.556   8.968   4.976  2.4601  1.1171  0.7327
52351SOL    HW267368   4.470   9.076   5.039  0.2234 -0.4180  0.4181
52352SOL     OW67369  11.925   9.741   2.710  0.2819 -0.9421  0.0580
52352SOL    HW167370  12.009   9.754   2.667 -0.5370  0.1956 -1.2666
52352SOL    HW267371  11.892   9.659   2.675  1.5793 -2.3385  1.9140
52353SOL     OW67372   3.653   2.748   7.123  0.1071  0.1637 -0.5571
52353SOL    HW167373   3.634   2.657   7.146 -1.6084  0.7348  0.4928
52353SOL    HW267374   3.747   2.758   7.139 -0.2140 -0.6399  2.4326
52354SOL     OW67375  12.650   3.444   6.728  0.5101  0.0665  0.4027
52354SOL    HW167376  12.574   3.386   6.734 -0.3950  1.2207  0.3600
52354SOL    HW267377  12.615   3.526   6.692  1.6638  0.8193  0.9589
52355SOL     OW67378   2.086  10.886   6.239  0.6105  0.2606 -0.1647
52355SOL    HW167379   2.101  10.833   6.160  0.0092  0.9618 -0.7629
52355SOL    HW267380   2.034  10.960   6.208 -1.1102 -0.3148  1.1867
52356SOL     OW67381  12.619   3.212   5.788 -0.6227  0.0294 -0.2834
52356SOL    HW167382  12.669   3.173   5.860  1.2828 -0.0334 -1.5830
52356SOL    HW267383  12.553   3.146   5.766  1.0509 -1.5173 -0.8967
52357SOL     OW67384   0.239   0.745   2.590 -0.1603 -0.4159  0.1648
52357SOL    HW167385   0.275   0.816   2.537 -0.5764 -2.1044 -2.5896
52357SOL    HW267386   0.174   0.703   2.534 -1.8356 -1.4031  2.6513
52358SOL     OW67387   1.506   3.221   1.306  0.0172 -0.6139  0.1304
52358SOL    HW167388   1.484   3.233   1.398  0.5250 -0.6225  0.2572
52358SOL    HW267389   1.490   3.306   1.266  1.2289 -0.1759  0.5296
52359SOL     OW67390   3.756   8.760   1.227 -0.1084 -0.4794 -0.2465
52359SOL    HW167391   3.810   8.687   1.257  1.2648  1.3768  2.0887
52359SOL    HW267392   3.718   8.798   1.306 -2.9345 -0.1666 -1.5985
52360SOL     OW67393   7.798   9.865   0.526  0.2670 -0.2616  0.3368
52360SOL    HW167394   7.717   9.870   0.577 -0.6234 -3.3471 -0.5647
52360SOL    HW267395   7.855   9.807   0.576  0.3596 -1.2638 -0.8726
52361SOL     OW67396   2.533  12.213   3.961 -0.5807  0.0160 -0.1353
52361SOL    HW167397   2.499  12.124   3.974  0.0305 -0.1546  0.3512
52361SOL    HW267398   2.572  12.210   3.874  1.1291 -0.7675  0.6169
52362SOL     OW67399  10.442   5.758   2.584 -0.2395 -0.1769 -0.4808
52362SOL    HW167400  10.378   5.737   2.516 -1.0338  0.7155 -0.0421
52362SOL    HW267401  10.505   5.686   2.582 -0.8829 -0.7289 -1.3886
52363SOL     OW67402   0.194   7.378   6.961 -0.5465  0.2363 -0.4987
52363SOL    HW167403   0.222   7.381   6.870 -0.8732  0.5343 -0.5951
52363SOL    HW267404   0.105   7.415   6.959  0.1047  1.9242  0.1945
52364SOL     OW67405  11.931  10.959   6.771 -0.1678  0.1354 -0.2377
52364SOL    HW167406  11.898  10.920   6.690 -1.1737  0.9492 -0.2344
52364SOL    HW267407  11.857  10.956   6.831  0.6905 -0.8824  0.8384
52365SOL     OW67408  11.102   7.748   5.711 -0.0470 -0.5728 -0.4443
52365SOL    HW167409  11.189   7.788   5.711  0.4630 -1.6142 -1.7406
52365SOL    HW267410  11.073   7.755   5.802  0.5217  1.5843 -0.3687
52366SOL     OW67411  11.254   3.335  12.335  0.6483  0.5459 -0.1063
52366SOL    HW167412  11.163   3.365  12.340  0.4554  0.0918 -0.7214
52366SOL    HW267413  11.252   3.245  12.370  1.2836  1.3196  2.0801
52367SOL     OW67414   2.047   3.384  10.722  0.0531 -0.0076  0.2351
52367SOL    HW167415   2.060   3.292  10.699  0.3757  0.1201 -0.1025
52367SOL    HW267416   2.108   3.400  10.794  0.2742  0.0442  0.0361
52368SOL     OW67417   9.825  11.193   7.119  0.1153  0.3299  0.2906
52368SOL    HW167418   9.755  11.155   7.066  0.6720 -0.5298  0.1354
52368SOL    HW267419   9.795  11.183   7.210 -0.2952  0.6645  0.1915
52369SOL     OW67420  12.852  12.029   2.555  0.0301 -0.1454 -0.0130
52369SOL    HW167421  12.940  12.065   2.561 -0.6581  1.3788  2.0765
52369SOL    HW267422  12.797  12.091   2.604 -2.0914 -1.4135 -0.6428
52370SOL     OW67423  12.653  11.838   0.068  0.3351  0.3125 -0.5193
52370SOL    HW167424  12.631  11.874  -0.018 -0.2302  0.4222 -0.3295
52370SOL    HW267425  12.711  11.904   0.108 -1.7850  1.7305  0.3909
52371SOL     OW67426   0.962  11.238   8.671 -0.0448 -0.1899  0.0227
52371SOL    HW167427   0.918  11.247   8.586  1.2526 -0.6616 -0.7336
52371SOL    HW267428   0.906  11.180   8.721 -0.7045 -0.1177 -0.6190
52372SOL     OW67429   0.547  11.774   5.148  0.6873 -1.5676 -0.3846
52372SOL    HW167430   0.461  11.744   5.178  0.3466 -0.3991 -0.1227
52372SOL    HW267431   0.527  11.844   5.086  1.4486 -1.2160 -0.2399
52373SOL     OW67432   2.949   9.964   5.372  0.2243 -0.1080 -0.0877
52373SOL    HW167433   2.953  10.038   5.310 -1.0403 -0.0894 -0.1721
52373SOL    HW267434   2.926   9.889   5.317  2.4510 -0.8094 -0.1667
52374SOL     OW67435   7.781   1.058   6.350  0.1327  0.7474 -0.5017
52374SOL    HW167436   7.693   1.094   6.341 -0.2795  0.2464  1.1804
52374SOL    HW267437   7.775   0.969   6.315 -0.5476  0.0529  1.2607
52375SOL     OW67438  11.072   8.795   5.580  0.3863 -0.3662 -0.5745
52375SOL    HW167439  11.103   8.721   5.528  1.6214 -1.1521  1.1800
52375SOL    HW267440  11.030   8.754   5.657  0.4485  0.7370  0.0665
52376SOL     OW67441  11.280  12.903  12.446 -0.1866 -0.6262 -0.5371
52376SOL    HW167442  11.227  12.909  12.526 -0.3271 -0.3915 -0.6465
52376SOL    HW267443  11.216  12.896  12.375 -0.1107 -4.0750 -0.4512
52377SOL     OW67444   8.076   8.140  12.566  0.4013 -0.6311 -0.1819
52377SOL    HW167445   8.133   8.121  12.493 -0.5932 -1.4791 -0.7674
52377SOL    HW267446   8.043   8.228  12.549  1.8956  0.0920  0.4420
52378SOL     OW67447   6.346   7.683   4.349 -0.2716  0.3562  0.1752
52378SOL    HW167448   6.255   7.668   4.375 -0.6441 -0.0045 -1.2897
52378SOL    HW267449   6.391   7.603   4.377 -0.5265  0.2597  0.3193
52379SOL     OW67450   7.074   8.390   0.445  0.1667  0.8081  0.4179
52379SOL    HW167451   7.134   8.460   0.420 -1.1814  1.8295 -0.1229
52379SOL    HW267452   7.116   8.347   0.520  1.9565  0.8885 -0.4960
52380SOL     OW67453   5.353   7.897   5.514 -0.5315  0.2102  0.2005
52380SOL    HW167454   5.291   7.905   5.587 -0.8602  0.8332 -0.1450
52380SOL    HW267455   5.338   7.808   5.481 -0.7520  0.1090  0.5558
52381SOL     OW67456   1.348  12.121   5.174  0.1585 -0.4418 -0.0968
52381SOL    HW167457   1.366  12.157   5.086  0.8495 -1.1987 -0.2756
52381SOL    HW267458   1.366  12.028   5.166 -0.5782 -0.6565  0.6488
52382SOL     OW67459  11.578   3.393  10.883 -0.2034  0.1971  0.0788
52382SOL    HW167460  11.550   3.413  10.972 -0.5023 -0.2775  0.0964
52382SOL    HW267461  11.530   3.313  10.861 -0.4920  0.5774 -0.6816
52383SOL     OW67462  12.519   3.123   0.633  0.2942  0.6047 -0.4422
52383SOL    HW167463  12.543   3.120   0.540 -1.2934 -1.8752 -0.8745
52383SOL    HW267464  12.427   3.150   0.633 -0.1275 -0.7337  0.2641
52384SOL     OW67465  12.139   4.665   6.996  0.0898 -0.0491  0.1082
52384SOL    HW167466  12.196   4.596   7.030 -0.0028  0.1717  0.7339
52384SOL    HW267467  12.180   4.692   6.914  0.8183  0.0107  0.4825
52385SOL     OW67468   7.769   6.117   2.096 -0.0222 -1.3925 -0.4100
52385SOL    HW167469   7.838   6.109   2.030  1.0342 -0.4757  0.5501
52385SOL    HW267470   7.791   6.196   2.145 -2.4315 -0.3737 -0.8274
52386SOL     OW67471   4.966   6.610  11.673 -0.3824  0.2740  0.1977
52386SOL    HW167472   4.973   6.675  11.603  0.0641  1.4628  1.2990
52386SOL    HW267473   4.872   6.595  11.683 -0.4240 -0.3097 -0.9962
52387SOL     OW67474  11.961  11.261   5.206 -0.3704  0.6629  0.1631
52387SOL    HW167475  11.992  11.188   5.260 -2.2580 -0.1106  0.2863
52387SOL    HW267476  11.986  11.339   5.256 -1.9104 -0.0226  2.1782
52388SOL     OW67477  12.971   0.386   0.168  0.1651 -0.2272 -0.1837
52388SOL    HW167478  13.031   0.325   0.210  1.3889  1.3141  0.4122
52388SOL    HW267479  13.023   0.430   0.102 -0.7927 -0.0817 -0.8571
52389SOL     OW67480   3.951  11.925   0.086  0.0605 -0.3479 -0.3386
52389SOL    HW167481   3.957  12.016   0.115  1.8661 -0.9036  1.2639
52389SOL    HW267482   3.869  11.893   0.124 -0.3077  0.4395 -0.4489
52390SOL     OW67483   8.559   1.054   0.116  0.0807  0.3520 -0.2949
52390SOL    HW167484   8.626   1.033   0.050  0.9453  1.3104  0.2537
52390SOL    HW267485   8.552   0.975   0.169  1.7653  0.6713  0.4617
52391SOL     OW67486   0.633   5.250   7.549 -0.1829  0.1721  0.3587
52391SOL    HW167487   0.571   5.315   7.515 -0.7642  0.5830  2.0460
52391SOL    HW267488   0.598   5.166   7.521  0.0420  0.5235 -1.0440
52392SOL     OW67489   0.150   1.256   7.412 -0.1096 -0.0630 -0.3071
52392SOL    HW167490   0.169   1.176   7.460 -0.4434  0.5644  0.9155
52392SOL    HW267491   0.057   1.272   7.427  0.2897  1.4243  0.8873
52393SOL     OW67492   5.231   9.587   0.434  0.5034 -0.0112  0.2932
52393SOL    HW167493   5.160   9.592   0.498 -0.4665  0.1543 -0.7720
52393SOL    HW267494   5.267   9.499   0.444  1.3548  0.4819  2.0672
52394SOL     OW67495   9.179  12.241   1.074 -0.2627 -0.5023  0.4064
52394SOL    HW167496   9.129  12.280   1.146 -0.7174 -1.0572  0.4004
52394SOL    HW267497   9.257  12.206   1.115 -0.8843 -1.5032  0.7704
52395SOL     OW67498   7.570   0.054  11.475 -0.3642 -0.0033  0.1224
52395SOL    HW167499   7.626  -0.009  11.429 -1.1938  0.7250 -2.0017
52395SOL    HW267500   7.534   0.109  11.406  1.3462  3.7750  1.9207
52396SOL     OW67501   0.602  11.616  10.485 -0.1313  0.8508 -0.6473
52396SOL    HW167502   0.512  11.643  10.468 -0.7075 -1.1798 -1.1101
52396SOL    HW267503   0.644  11.615  10.399 -0.4604 -0.7097 -0.8313
52397SOL     OW67504   2.834   7.515   1.637  0.0174 -0.4207  0.6108
52397SOL    HW167505   2.779   7.459   1.583 -1.1382  0.5222  0.7734
52397SOL    HW267506   2.831   7.474   1.724 -0.4992 -0.3356  0.6372
52398SOL     OW67507  12.398   4.689   3.375  0.0902 -0.2758  0.3752
52398SOL    HW167508  12.312   4.683   3.416 -0.8917  1.6428 -1.2451
52398SOL    HW267509  12.432   4.774   3.401  1.3870 -0.8775  0.7389
52399SOL     OW67510   9.446   9.407  11.952 -0.1763 -0.3853 -0.0318
52399SOL    HW167511   9.413   9.420  12.041 -0.9192 -2.6921  0.0937
52399SOL    HW267512   9.372   9.432  11.895 -0.5521 -1.1841  0.0963
52400SOL     OW67513   9.778   4.096  10.048 -0.1788  0.4838  0.5182
52400SOL    HW167514   9.832   4.125  10.121 -2.1046  0.3276  2.1061
52400SOL    HW267515   9.694   4.141  10.061 -1.0329 -0.6461 -0.7907
52401SOL     OW67516  12.089   5.744   3.463 -0.6004 -0.5007 -0.2563
52401SOL    HW167517  12.182   5.724   3.449 -0.9662 -0.4862 -3.2234
52401SOL    HW267518  12.090   5.824   3.515  1.0828 -0.1024 -0.8223
52402SOL     OW67519  12.135   8.945   1.400 -0.0972 -1.0025 -0.1240
52402SOL    HW167520  12.123   8.884   1.327 -3.0766 -0.1621 -0.4381
52402SOL    HW267521  12.092   8.903   1.474  0.3302 -0.5256  0.4055
52403SOL     OW67522   8.529   2.536   3.983  0.2132 -0.1372 -0.1318
52403SOL    HW167523   8.554   2.626   4.003 -0.3912  0.1416 -0.6262
52403SOL    HW267524   8.459   2.516   4.045  2.3624 -1.3402  2.1130
52404SOL     OW67525  12.689   3.964  11.761  0.2002  0.1800 -0.0438
52404SOL    HW167526  12.756   4.020  11.801 -0.5990  1.2334 -0.1114
52404SOL    HW267527  12.694   3.882  11.810 -0.5886  1.3503  2.1227
52405SOL     OW67528   1.840   3.324  12.476 -0.2145  0.4198  0.6521
52405SOL    HW167529   1.773   3.387  12.450  1.0011  0.9842 -1.3312
52405SOL    HW267530   1.817   3.244  12.429  0.5941  0.6970 -0.2610
52406SOL     OW67531  11.992   4.257   0.577 -0.1658 -0.4780  0.0171
52406SOL    HW167532  12.010   4.322   0.645 -0.3633  0.2743 -0.6434
52406SOL    HW267533  11.976   4.308   0.498  1.1845 -1.3720 -0.8866
52407SOL     OW67534   4.616   9.052   8.937 -0.0278 -0.1452 -0.3099
52407SOL    HW167535   4.662   9.029   9.018  1.2968 -0.1558 -1.0452
52407SOL    HW267536   4.608   8.970   8.889  1.6197  0.2821 -1.3845
52408SOL     OW67537   2.120  10.665   6.680  0.3880  0.0607  0.0789
52408SOL    HW167538   2.099  10.752   6.713 -2.2919 -0.6524  0.5259
52408SOL    HW267539   2.146  10.679   6.589 -0.4960  1.3042 -0.0091
52409SOL     OW67540   6.499   4.107   1.352 -0.4434 -0.1417  0.0563
52409SOL    HW167541   6.463   4.153   1.428 -0.4038 -0.7314  0.4385
52409SOL    HW267542   6.435   4.122   1.282  0.5077  2.1710 -0.4281
52410SOL     OW67543   1.017  11.800   7.871  0.4015  0.2787 -0.3725
52410SOL    HW167544   1.055  11.888   7.873  0.3592  0.3178 -0.9180
52410SOL    HW267545   0.997  11.780   7.962  0.3750  0.8532 -0.2444
52411SOL     OW67546   9.973   8.862  10.654 -0.2674  0.4873 -0.0533
52411SOL    HW167547  10.022   8.823  10.727 -0.2941 -0.5207 -0.5451
52411SOL    HW267548   9.881   8.844  10.674 -0.2631  0.0463 -0.4178
52412SOL     OW67549  12.640  12.812   4.611  0.2664 -0.1061 -0.0332
52412SOL    HW167550  12.681  12.811   4.525  0.2382 -0.9485 -0.0397
52412SOL    HW267551  12.558  12.860   4.599 -0.6930 -1.8785 -0.9257
52413SOL     OW67552   7.163   4.700   3.847 -0.1602 -0.2677  0.2243
52413SOL    HW167553   7.229   4.762   3.815  1.8652 -1.6713  1.4552
52413SOL    HW267554   7.141   4.731   3.935 -1.6160  0.4839 -0.3605
52414SOL     OW67555   0.661  10.824   5.823 -0.0283  0.4171 -0.0078
52414SOL    HW167556   0.732  10.772   5.862  0.4974  0.2280 -1.1600
52414SOL    HW267557   0.612  10.761   5.770  0.0481  0.8991 -0.6606
52415SOL     OW67558   2.517   7.905   3.904 -0.0303  0.1724 -0.7051
52415SOL    HW167559   2.486   7.815   3.891 -0.3007 -0.0695  1.2764
52415SOL    HW267560   2.600   7.895   3.951 -0.1978  0.9544 -0.2362
52416SOL     OW67561   0.891   8.917   0.452  0.5804 -0.1318 -0.3062
52416SOL    HW167562   0.804   8.944   0.482 -0.1273  0.0863 -2.3939
52416SOL    HW267563   0.874   8.853   0.382  2.1536 -1.5921  0.5648
52417SOL     OW67564   5.332   8.711  12.511  0.0320  0.1365  0.1078
52417SOL    HW167565   5.386   8.777  12.554 -0.3730 -0.8942  2.3159
52417SOL    HW267566   5.333   8.737  12.419  1.3936  2.1391  0.6041
52418SOL     OW67567  10.915  11.523   5.554 -0.3269 -0.2821  0.1176
52418SOL    HW167568  10.989  11.540   5.496 -2.4884  0.1543 -2.7908
52418SOL    HW267569  10.880  11.439   5.523 -1.5395 -0.0518  0.8074
52419SOL     OW67570   7.511   7.771  10.360 -0.7834  0.0748  0.2143
52419SOL    HW167571   7.607   7.764  10.358 -0.8814 -1.7377 -0.6321
52419SOL    HW267572   7.488   7.762  10.452 -0.1195  1.5092  0.5547
52420SOL     OW67573   1.304   0.231   2.440 -0.3976  0.1465  0.1866
52420SOL    HW167574   1.383   0.177   2.442 -0.7443 -0.4020 -0.5575
52420SOL    HW267575   1.315   0.289   2.365 -0.6465  0.1507  0.1512
52421SOL     OW67576   3.967   9.908  12.063 -0.4675 -0.4471  0.0785
52421SOL    HW167577   3.942   9.844  11.997 -1.8521  1.5033 -1.4039
52421SOL    HW267578   3.944   9.867  12.147  0.3355 -2.5383 -0.6741
52422SOL     OW67579   2.996   2.479   0.038 -0.0703  0.1717 -0.5479
52422SOL    HW167580   3.005   2.573   0.026  0.3610  0.1034 -0.7785
52422SOL    HW267581   3.000   2.466   0.132  0.5338  0.3198 -0.5523
52423SOL     OW67582   6.973   0.327  12.469 -0.1095 -0.3041 -0.0152
52423SOL    HW167583   6.910   0.282  12.412  0.1563  0.9980 -1.4068
52423SOL    HW267584   7.011   0.258  12.522 -1.7645 -1.3092 -0.0649
52424SOL     OW67585  11.169   6.582  10.793 -0.2907  0.4240  0.0089
52424SOL    HW167586  11.261   6.593  10.814 -0.4104  0.7947  0.3631
52424SOL    HW267587  11.167   6.514  10.726  0.4582  1.9696 -1.6727
52425SOL     OW67588  10.976   5.296  10.301 -0.4240  0.1298  0.3173
52425SOL    HW167589  10.929   5.225  10.256  0.8958 -1.2451  1.0443
52425SOL    HW267590  10.965   5.277  10.394  1.1647  0.0362  0.5081
52426SOL     OW67591   2.366   8.205   9.794  0.5539 -0.0043 -0.6371
52426SOL    HW167592   2.281   8.202   9.749 -0.0637  0.2670  0.4814
52426SOL    HW267593   2.430   8.194   9.724 -0.4011 -0.2079 -1.5067
52427SOL     OW67594   7.931   5.707   6.363 -0.3977 -0.1330  0.6454
52427SOL    HW167595   7.893   5.778   6.310 -0.7269 -1.5429 -1.1221
52427SOL    HW267596   7.856   5.656   6.392 -0.0814 -0.8258  0.2748
52428SOL     OW67597   4.106   5.575   5.726 -0.2364 -0.2873 -0.3726
52428SOL    HW167598   4.140   5.535   5.805 -0.0064  0.2445 -0.1998
52428SOL    HW267599   4.146   5.662   5.723 -0.5870 -0.1339 -0.8358
52429SOL     OW67600   3.992   7.741   2.632  0.4421 -0.4883  0.5462
52429SOL    HW167601   4.086   7.725   2.621  0.1312 -1.0400 -1.5983
52429SOL    HW267602   3.962   7.668   2.686  1.0946 -0.7474  0.5756
52430SOL     OW67603   4.894   8.373   8.459 -0.2057  0.2453  0.0791
52430SOL    HW167604   4.981   8.372   8.419 -0.0777  1.0985  0.3231
52430SOL    HW267605   4.883   8.463   8.490 -1.3076  0.2362 -0.2417
52431SOL     OW67606   9.448   3.158  12.788 -0.4586  0.3448  0.1949
52431SOL    HW167607   9.372   3.114  12.826 -1.1648  0.3312 -1.1886
52431SOL    HW267608   9.511   3.087  12.773 -1.5454 -0.2712 -1.9158
52432SOL     OW67609  11.519   6.602  11.367 -0.7747 -0.3682  0.1676
52432SOL    HW167610  11.459   6.620  11.294 -0.0451 -1.9694 -0.8704
52432SOL    HW267611  11.604   6.630  11.335 -0.2725 -2.0507 -0.0244
52433SOL     OW67612   4.890   1.155   4.822  0.3314  0.0764  0.3236
52433SOL    HW167613   4.891   1.073   4.773 -0.3451 -0.1275  0.6298
52433SOL    HW267614   4.973   1.196   4.803  0.4394 -0.4192 -0.2868
52434SOL     OW67615   9.236   0.624   5.679  0.0103  0.1061 -0.0323
52434SOL    HW167616   9.308   0.561   5.683 -0.1037  0.0168  0.6591
52434SOL    HW267617   9.184   0.595   5.603  0.9954  0.5148 -0.8888
52435SOL     OW67618   5.806  10.273   6.675 -0.3789 -0.2428  0.4794
52435SOL    HW167619   5.895  10.246   6.654  0.4475  2.4423  0.0674
52435SOL    HW267620   5.796  10.252   6.768  0.1961 -1.6956  0.2372
52436SOL     OW67621   5.146  10.870   2.822  0.1152 -0.9361 -0.5219
52436SOL    HW167622   5.118  10.845   2.910 -1.0910 -1.7584 -1.1202
52436SOL    HW267623   5.123  10.963   2.815  1.3080 -0.5387  0.4222
52437SOL     OW67624   8.692   9.995   8.284 -0.4000 -0.0150 -0.2665
52437SOL    HW167625   8.701  10.050   8.362 -1.6857  1.0494 -0.8216
52437SOL    HW267626   8.689   9.905   8.318  1.6187  0.2140  0.6665
52438SOL     OW67627   2.654   0.409   1.407 -0.2586 -0.2445  0.2480
52438SOL    HW167628   2.666   0.473   1.477  0.1547  0.7875 -0.7277
52438SOL    HW267629   2.641   0.462   1.328 -0.3202 -1.3695 -0.5280
52439SOL     OW67630  12.535   9.363   8.478 -0.3630 -0.1156 -0.0722
52439SOL    HW167631  12.545   9.277   8.438  0.4425  0.9278 -2.2860
52439SOL    HW267632  12.440   9.371   8.494 -0.4581 -1.3469  0.1057
52440SOL     OW67633   1.558   5.778   3.626 -0.0165  0.6338 -0.4812
52440SOL    HW167634   1.593   5.830   3.554 -1.8679  1.1255 -1.0961
52440SOL    HW267635   1.549   5.690   3.591 -0.5026  0.7765 -0.7244
52441SOL     OW67636   7.003   8.539   7.472 -0.4014 -0.1545 -0.3474
52441SOL    HW167637   6.942   8.466   7.485 -0.6107 -0.1423 -1.2006
52441SOL    HW267638   6.946   8.615   7.455 -0.1594 -0.1282 -1.0682
52442SOL     OW67639   0.671   1.322   6.152 -0.4395  0.2582 -0.0745
52442SOL    HW167640   0.680   1.398   6.209  0.2304 -0.5146  0.8733
52442SOL    HW267641   0.751   1.272   6.166 -0.6629 -0.3890 -1.0414
52443SOL     OW67642   9.429   3.775   8.705  0.5817 -0.4868  0.3596
52443SOL    HW167643   9.344   3.734   8.686 -0.1061  0.3823  1.4146
52443SOL    HW267644   9.407   3.866   8.727  1.7658 -0.3181  0.9299
52444SOL     OW67645  10.479  12.879  11.309  0.1025 -0.5805 -0.1576
52444SOL    HW167646  10.513  12.925  11.386  0.2966 -0.5894 -0.2375
52444SOL    HW267647  10.510  12.789  11.319  1.2489 -0.2886 -0.9088
52445SOL     OW67648  11.083   8.835   5.247 -0.0132 -0.3585  0.4606
52445SOL    HW167649  11.048   8.905   5.302 -2.1433 -0.7198 -0.3545
52445SOL    HW267650  11.009   8.777   5.232  0.7936 -0.8844 -1.8277
52446SOL     OW67651   0.234  12.901  10.341 -0.6501 -0.0976  0.1520
52446SOL    HW167652   0.182  12.836  10.294 -1.1503  1.1028 -1.0075
52446SOL    HW267653   0.257  12.966  10.275 -1.5020  1.7338  1.5782
52447SOL     OW67654   9.581   4.173   8.249 -0.3468 -0.2311  0.0213
52447SOL    HW167655   9.507   4.114   8.237  0.3103 -1.1398  0.2779
52447SOL    HW267656   9.644   4.146   8.181 -0.0872  0.2682  0.0569
52448SOL     OW67657  10.959   8.407   5.644 -0.0732  0.3197  0.0010
52448SOL    HW167658  10.943   8.341   5.576 -3.3598  0.2296  0.7430
52448SOL    HW267659  10.933   8.365   5.725  0.2374  1.6916  0.8456
52449SOL     OW67660   3.354   5.056   9.096 -0.4134  0.9786  0.3730
52449SOL    HW167661   3.350   5.137   9.044  0.0211 -0.0409 -1.3143
52449SOL    HW267662   3.442   5.058   9.135 -1.0861  2.2279  1.9765
52450SOL     OW67663   2.404   1.665   6.279  0.1065 -0.3967 -0.5626
52450SOL    HW167664   2.309   1.671   6.287 -0.0376 -1.8823 -0.8520
52450SOL    HW267665   2.427   1.729   6.212 -0.5867  0.5374  0.0786
52451SOL     OW67666   4.301  10.295   3.356  0.3541  0.0559 -0.6622
52451SOL    HW167667   4.206  10.303   3.366  0.5195 -0.1895  2.1153
52451SOL    HW267668   4.334  10.383   3.376  0.6991  0.3549 -2.4564
52452SOL     OW67669  11.780   2.818   2.610  0.0286 -0.1221 -0.1504
52452SOL    HW167670  11.868   2.853   2.623  0.9659 -2.2912 -0.2322
52452SOL    HW267671  11.785   2.727   2.642 -2.3824 -0.0905  0.5103
52453SOL     OW67672   4.077  11.618   0.311 -0.3154 -0.4074 -0.1180
52453SOL    HW167673   4.023  11.546   0.278  1.7383 -0.8440 -2.9043
52453SOL    HW267674   4.044  11.695   0.264  0.6886 -0.4763 -0.9618
52454SOL     OW67675   7.815   9.304   1.300 -0.7182  0.1087  0.2747
52454SOL    HW167676   7.817   9.243   1.373  1.8372 -2.7954 -1.9928
52454SOL    HW267677   7.898   9.351   1.306 -0.1510 -0.6789 -1.1089
52455SOL     OW67678   7.120   2.995   3.407 -0.5682  0.2334 -0.1177
52455SOL    HW167679   7.100   2.902   3.394  1.0175  0.0149 -1.3064
52455SOL    HW267680   7.146   3.001   3.499 -0.5203 -0.5361 -0.0755
52456SOL     OW67681   5.670  11.025   4.444 -0.2064 -0.7696  0.1964
52456SOL    HW167682   5.592  11.079   4.428 -0.0840 -0.8355 -0.6816
52456SOL    HW267683   5.635  10.941   4.473 -0.4142 -0.3741  1.1066
52457SOL     OW67684   2.255   5.894   7.634 -0.8360 -0.7463  0.1849
52457SOL    HW167685   2.216   5.981   7.631 -0.5473 -0.6169  0.2141
52457SOL    HW267686   2.349   5.909   7.631 -0.7807 -1.0503  0.3304
52458SOL     OW67687   8.156   7.773   7.996 -0.2504 -0.1185  0.3067
52458SOL    HW167688   8.191   7.843   7.941  1.2533 -0.6998  0.4696
52458SOL    HW267689   8.154   7.696   7.939  0.2848 -0.4631  0.7283
52459SOL     OW67690   2.554   4.859  11.768  0.6220 -0.4931 -0.5593
52459SOL    HW167691   2.556   4.936  11.713 -0.5351 -0.3604 -0.4331
52459SOL    HW267692   2.482   4.874  11.830  1.9743 -0.5508  1.1185
52460SOL     OW67693   6.822   9.360   4.239 -0.1805 -0.1144  0.0246
52460SOL    HW167694   6.786   9.430   4.185  0.1633  0.8590  1.0362
52460SOL    HW267695   6.802   9.386   4.329  1.0243 -0.7019  0.4757
52461SOL     OW67696   0.578   5.772   6.220 -0.3832  0.4043 -0.0214
52461SOL    HW167697   0.525   5.821   6.282 -1.4895 -0.6489 -0.0970
52461SOL    HW267698   0.666   5.772   6.258 -0.6043  1.4561  0.5301
52462SOL     OW67699   9.102  12.044   7.325 -0.1420 -0.3436 -0.5337
52462SOL    HW167700   9.171  11.998   7.373 -0.6584  0.3675  0.9362
52462SOL    HW267701   9.031  12.052   7.388 -0.1631  2.2456 -0.7932
52463SOL     OW67702   8.067  10.326   3.125 -0.4624  0.4034  0.1200
52463SOL    HW167703   8.124  10.270   3.177  1.4256  0.0904 -2.1125
52463SOL    HW267704   8.068  10.411   3.169  1.3586  0.2463  0.4166
52464SOL     OW67705   6.815   3.464   3.521  0.0275  0.4189 -0.5724
52464SOL    HW167706   6.811   3.504   3.435 -1.3888 -1.2058 -1.3167
52464SOL    HW267707   6.845   3.375   3.505  1.7055  0.6818  0.8641
52465SOL     OW67708   4.336   3.542   8.895 -0.4220 -0.1768 -0.4428
52465SOL    HW167709   4.384   3.463   8.920 -0.3170 -0.3124 -1.0608
52465SOL    HW267710   4.378   3.571   8.814 -0.2373  0.7047 -0.0458
52466SOL     OW67711  11.597   8.091  11.209 -0.1664  0.1839 -0.2451
52466SOL    HW167712  11.674   8.052  11.167  0.7461  0.1104  1.4184
52466SOL    HW267713  11.615   8.185  11.210 -0.4177  0.2363 -0.4614
52467SOL     OW67714   9.908   4.854  11.212  0.2867 -0.1084 -0.7375
52467SOL    HW167715   9.917   4.813  11.125 -0.0094  0.5204 -1.0705
52467SOL    HW267716   9.868   4.939  11.194  0.6871  0.2347 -0.0313
52468SOL     OW67717  12.443   0.897  11.070 -0.1648  0.4167 -0.0738
52468SOL    HW167718  12.527   0.872  11.108 -0.5156 -0.2359  0.2929
52468SOL    HW267719  12.462   0.915  10.978  0.2634 -0.3430 -0.1428
52469SOL     OW67720   3.301   9.697   3.697  0.1884 -0.7013  0.1368
52469SOL    HW167721   3.366   9.751   3.742  1.4961 -2.1240  0.0254
52469SOL    HW267722   3.217   9.724   3.735  0.5067  2.6395 -1.1467
52470SOL     OW67723  11.963   6.514   4.296  0.0940  0.0728 -0.4503
52470SOL    HW167724  12.001   6.428   4.278  1.0990  0.4343 -0.1423
52470SOL    HW267725  11.868   6.500   4.292  0.2447 -0.9851 -0.6610
52471SOL     OW67726   8.993   9.555   0.992 -0.2787  0.5933 -0.2235
52471SOL    HW167727   9.051   9.615   0.944 -1.1640  1.7051  0.0555
52471SOL    HW267728   8.997   9.586   1.083  0.1778 -0.5375  0.1617
52472SOL     OW67729   6.761  11.452  11.280 -0.0352 -0.2888  0.0478
52472SOL    HW167730   6.762  11.421  11.370 -0.6210  0.3293  0.2807
52472SOL    HW267731   6.747  11.547  11.288 -0.3970 -0.2690 -0.6938
52473SOL     OW67732   4.141   2.504   7.453 -0.0243 -0.0108 -0.0582
52473SOL    HW167733   4.151   2.598   7.467  1.6850 -0.0114 -1.0113
52473SOL    HW267734   4.217   2.465   7.496 -0.3964 -0.9098 -0.1924
52474SOL     OW67735   3.805  10.106   0.164  0.0972 -0.2489 -0.1134
52474SOL    HW167736   3.805  10.192   0.206 -0.1421 -0.6331  0.6980
52474SOL    HW267737   3.870  10.056   0.212 -1.7998 -1.4185  1.3796
52475SOL     OW67738   3.840   4.480  10.118 -0.2200 -0.1893  0.1764
52475SOL    HW167739   3.760   4.517  10.155 -0.3764 -0.9531  0.6380
52475SOL    HW267740   3.813   4.448  10.031 -0.7232 -1.4913  0.7901
52476SOL     OW67741   4.049   5.866   7.434 -0.1656 -0.6942 -0.3039
52476SOL    HW167742   4.112   5.850   7.504  0.4645 -0.8739 -0.8966
52476SOL    HW267743   3.978   5.804   7.451 -0.8249  0.3997  1.1118
52477SOL     OW67744   9.042   1.394   8.651 -0.1134 -0.5171 -0.0072
52477SOL    HW167745   9.125   1.442   8.658 -0.6776  0.6811 -0.9877
52477SOL    HW267746   8.979   1.452   8.693 -0.5323 -1.1984  0.3014
52478SOL     OW67747  12.713   7.790   4.239  0.4526  0.0981  0.0532
52478SOL    HW167748  12.698   7.872   4.287  1.2960  1.2563 -1.5458
52478SOL    HW267749  12.780   7.745   4.290 -0.4998  0.0471  1.3245
52479SOL     OW67750  12.656  11.661   9.263 -0.0845  0.0556 -0.1867
52479SOL    HW167751  12.649  11.697   9.352  3.3010 -1.6240  0.9627
52479SOL    HW267752  12.608  11.578   9.267  0.3018 -0.1543  0.1966
52480SOL     OW67753   8.192   9.403  10.674 -0.1410  0.6615  0.2963
52480SOL    HW167754   8.124   9.337  10.688 -0.2489  0.3938 -1.2343
52480SOL    HW267755   8.231   9.416  10.760 -1.7310  0.3912  1.0960
52481SOL     OW67756  11.739   7.244   6.631 -0.4450  0.0455  0.2294
52481SOL    HW167757  11.830   7.257   6.658 -0.6057 -1.9529  2.0703
52481SOL    HW267758  11.698   7.330   6.640  0.9349  0.6752  0.7929
52482SOL     OW67759  12.154  10.616  10.701  0.0450  0.3123  0.1110
52482SOL    HW167760  12.128  10.577  10.617 -0.4166 -0.5845  0.6588
52482SOL    HW267761  12.129  10.551  10.767 -1.2985  1.7635  1.1019
52483SOL     OW67762   5.824   6.371   5.873  0.2664 -0.1459  0.1012
52483SOL    HW167763   5.860   6.332   5.794 -1.5439 -1.0118 -0.3361
52483SOL    HW267764   5.882   6.340   5.943  0.4668 -1.3989 -0.5854
52484SOL     OW67765   7.238  10.474   3.851 -0.2742 -0.2073 -0.0499
52484SOL    HW167766   7.226  10.560   3.891  0.9364  0.0663 -0.2594
52484SOL    HW267767   7.326  10.476   3.813 -0.1084 -1.6328  0.1915
52485SOL     OW67768   6.988   2.898   2.101  0.1264 -0.0046  0.7934
52485SOL    HW167769   6.986   2.816   2.052 -0.5686  1.1932 -1.3465
52485SOL    HW267770   6.986   2.966   2.033  0.2620  1.7874  2.4926
52486SOL     OW67771   4.275   4.047   1.997  0.0195  0.1563  0.3458
52486SOL    HW167772   4.221   3.992   1.940 -1.1564  3.3060 -1.8433
52486SOL    HW267773   4.365   4.031   1.967 -0.2697 -0.7563 -0.0589
52487SOL     OW67774   5.175   1.983   4.263 -0.1533  0.0829 -0.1217
52487SOL    HW167775   5.217   1.994   4.348 -0.5668 -3.0935  0.6277
52487SOL    HW267776   5.094   2.033   4.269  0.1357  0.4378  1.0942
52488SOL     OW67777  10.995   1.804  12.600  0.3813  0.4173 -0.1165
52488SOL    HW167778  11.040   1.725  12.631 -1.0079 -0.3377  0.0318
52488SOL    HW267779  11.027   1.817  12.511 -0.3528 -1.0947 -0.6318
52489SOL     OW67780   0.549   7.530   7.937  0.4043  0.1170  0.2968
52489SOL    HW167781   0.627   7.499   7.891  0.0305 -0.6796  0.1797
52489SOL    HW267782   0.496   7.451   7.952 -1.4383  0.8913 -1.6145
52490SOL     OW67783   0.846   2.365   5.280 -0.0531 -0.1761 -0.5739
52490SOL    HW167784   0.900   2.442   5.262 -1.4899  0.6664 -1.5530
52490SOL    HW267785   0.901   2.290   5.259  0.9174  0.6302 -0.9573
52491SOL     OW67786  10.806   1.099  10.728  0.2433  0.2118 -0.2517
52491SOL    HW167787  10.817   1.029  10.663  2.3648 -1.4270  1.6993
52491SOL    HW267788  10.827   1.057  10.812 -0.4592  2.7115  1.2605
52492SOL     OW67789   4.631   6.236   2.823 -0.0225 -0.1184  0.1389
52492SOL    HW167790   4.539   6.220   2.843 -0.2336  1.1147  0.1764
52492SOL    HW267791   4.665   6.149   2.799 -1.1710 -0.5942  0.1658
52493SOL     OW67792   7.414  12.407  11.725  0.1103  0.0381  0.6047
52493SOL    HW167793   7.479  12.401  11.655  1.6537 -0.5717  2.0242
52493SOL    HW267794   7.380  12.496  11.718 -0.4644 -0.2927 -1.4789
52494SOL     OW67795   4.265   7.893   2.788  0.2407 -0.6730 -0.0433
52494SOL    HW167796   4.214   7.974   2.789 -1.7828 -1.8594 -0.7432
52494SOL    HW267797   4.266   7.866   2.696  0.5223 -1.6347  0.2279
52495SOL     OW67798   6.399   1.751   8.766  0.1574 -0.0409 -0.0294
52495SOL    HW167799   6.347   1.831   8.765 -0.1054 -0.1999  0.6701
52495SOL    HW267800   6.342   1.686   8.724  0.4302  0.1650 -0.7371
52496SOL     OW67801   5.755  12.217   3.755  0.0228  0.0278  0.0817
52496SOL    HW167802   5.733  12.266   3.834  0.2192 -0.7619  0.6333
52496SOL    HW267803   5.846  12.243   3.736 -0.2577  0.7610 -0.3054
52497SOL     OW67804   0.606   9.843   2.462 -0.5623 -0.0565 -0.6129
52497SOL    HW167805   0.682   9.815   2.513 -0.1467  3.4189  0.9965
52497SOL    HW267806   0.639   9.853   2.373  1.0567  1.6440  0.1051
52498SOL     OW67807   6.985   1.013  11.277 -0.2275 -0.0738  0.2873
52498SOL    HW167808   6.965   1.100  11.310  0.9165  0.0473  0.6950
52498SOL    HW267809   7.073   1.021  11.239 -0.6036 -0.7515 -0.7733
52499SOL     OW67810   3.532   8.274  11.407 -0.0984  0.4574  0.3868
52499SOL    HW167811   3.470   8.292  11.477 -1.9041 -1.1643 -0.6921
52499SOL    HW267812   3.600   8.220  11.448 -1.9585 -1.8297  0.6409
52500SOL     OW67813  12.804   4.509   5.516 -0.1324  0.1821  0.3738
52500SOL    HW167814  12.824   4.603   5.525 -1.0224  0.4049  0.1494
52500SOL    HW267815  12.887   4.469   5.491  0.2348  0.9286  0.3719
52501SOL     OW67816   9.093   0.576   5.455  0.6965 -0.1734  0.1916
52501SOL    HW167817   9.124   0.544   5.370 -0.0932  2.3744 -1.1568
52501SOL    HW267818   8.998   0.568   5.450  0.1858  4.2245 -1.2397
52502SOL     OW67819   6.181   7.994   6.836  0.1264  0.0944 -0.2804
52502SOL    HW167820   6.222   8.025   6.917 -1.5939 -0.3151  0.8066
52502SOL    HW267821   6.100   8.044   6.829 -0.8746 -1.4689 -0.4992
52503SOL     OW67822   6.689  11.656   5.998 -0.2179  0.2198  0.3474
52503SOL    HW167823   6.771  11.706   6.000  0.9513 -1.5835 -0.2455
52503SOL    HW267824   6.683  11.624   5.908 -0.3862 -1.5280  0.9572
52504SOL     OW67825   8.228   2.695   3.984 -0.9108  0.0464  0.3702
52504SOL    HW167826   8.312   2.712   4.027 -0.9791 -0.5106  0.7284
52504SOL    HW267827   8.228   2.753   3.907  0.2519 -0.7218 -0.2324
52505SOL     OW67828  11.717  12.151   4.384  0.1583  0.2087  0.3406
52505SOL    HW167829  11.807  12.177   4.400  0.7272 -0.9236 -0.8840
52505SOL    HW267830  11.670  12.234   4.370  1.5709  0.7388 -1.7954
52506SOL     OW67831  10.812   1.479   6.868 -0.2224  0.3144  0.3115
52506SOL    HW167832  10.813   1.385   6.856  0.4903  0.3350  0.1804
52506SOL    HW267833  10.719   1.502   6.871 -0.4415 -0.6094  2.0644
52507SOL     OW67834  12.747   5.075   3.902 -0.1103  0.1746 -0.4760
52507SOL    HW167835  12.804   5.047   3.830  0.9134  2.7646 -0.7753
52507SOL    HW267836  12.763   5.010   3.971  1.8843 -0.1772 -1.1987
52508SOL     OW67837   3.900   2.947  12.207  0.6867 -0.3300 -0.1480
52508SOL    HW167838   3.912   2.987  12.293  2.5458 -2.3932  0.6514
52508SOL    HW267839   3.813   2.907  12.212  0.2498  0.6371  0.2727
52509SOL     OW67840   6.827   3.069   6.576 -0.0870 -0.5681 -1.1168
52509SOL    HW167841   6.906   3.034   6.534 -0.4694 -2.9113 -0.0290
52509SOL    HW267842   6.755   3.029   6.527 -0.5451 -1.1166 -0.0282
52510SOL     OW67843   7.123   2.493   3.424 -0.3688 -0.2268  0.2487
52510SOL    HW167844   7.071   2.505   3.344 -2.6547  1.1169  1.8303
52510SOL    HW267845   7.126   2.398   3.436 -0.3951 -0.4365 -1.1316
52511SOL     OW67846   2.220   9.419   1.903 -0.1252 -0.3923 -0.0561
52511SOL    HW167847   2.284   9.359   1.941  0.9446  1.7638  1.7338
52511SOL    HW267848   2.254   9.439   1.816  1.2323  0.0813  0.5665
52512SOL     OW67849   6.988  12.679   6.239  0.1667 -0.2988  0.5879
52512SOL    HW167850   6.941  12.742   6.293  0.3865 -1.7494  2.5868
52512SOL    HW267851   6.919  12.620   6.206  0.1341  0.0313  0.0679
52513SOL     OW67852   3.817   6.980   8.732  0.2439 -0.0241 -0.1423
52513SOL    HW167853   3.851   6.896   8.763  1.0988  0.3070 -0.1530
52513SOL    HW267854   3.879   7.045   8.766  0.0422  0.5248 -0.8014
52514SOL     OW67855   1.203   1.659   0.663  0.2418 -0.0690 -0.0879
52514SOL    HW167856   1.252   1.611   0.597 -1.2897 -2.1555  0.2085
52514SOL    HW267857   1.248   1.744   0.669  2.5718 -1.1393 -1.1950
52515SOL     OW67858   0.791  11.498   4.924  0.7837 -0.1983 -0.0224
52515SOL    HW167859   0.732  11.497   4.999  1.1592  0.1694  0.2831
52515SOL    HW267860   0.865  11.551   4.953  1.7687 -1.5304 -0.0130
52516SOL     OW67861   0.586   7.743   3.461  0.2095 -0.4694 -0.0445
52516SOL    HW167862   0.564   7.816   3.403  0.7450  0.7663  1.2428
52516SOL    HW267863   0.624   7.785   3.539  1.4343 -2.1768  0.3317
52517SOL     OW67864   7.145  12.795   9.167  0.3779  0.2825  0.4875
52517SOL    HW167865   7.090  12.731   9.123  0.6239  0.6441 -0.3673
52517SOL    HW267866   7.233  12.777   9.135  1.1273 -1.4860  3.2176
52518SOL     OW67867  10.013  12.747   6.384  0.5433 -0.6596  0.1444
52518SOL    HW167868   9.989  12.658   6.360 -1.2919 -0.4499  1.0589
52518SOL    HW267869  10.004  12.797   6.303  0.8745 -1.1544 -0.2051
52519SOL     OW67870   8.179   6.691   8.476 -0.3642 -0.1659 -0.3082
52519SOL    HW167871   8.133   6.749   8.537 -1.7968 -1.2529 -0.2890
52519SOL    HW267872   8.217   6.750   8.411  0.7904  0.9877  1.3388
52520SOL     OW67873   2.149   9.981   5.513 -0.3347  0.0872  0.6323
52520SOL    HW167874   2.136   9.906   5.455  1.0135 -0.4340  0.9629
52520SOL    HW267875   2.244   9.991   5.518 -0.4866  1.5114  1.0006
52521SOL     OW67876   6.915  11.264   9.710  0.0738  0.3827 -0.6293
52521SOL    HW167877   6.887  11.342   9.662  1.1080  1.7684  0.9164
52521SOL    HW267878   7.010  11.273   9.718  0.1601 -0.8308 -0.0654
52522SOL     OW67879   5.973   8.638   0.408 -0.2578  0.0306  0.4464
52522SOL    HW167880   6.038   8.683   0.461 -0.1698  1.4934 -0.8330
52522SOL    HW267881   6.022   8.570   0.362  0.2866  0.8052 -0.1353
52523SOL     OW67882   9.231   6.316   5.124  0.2717 -0.3719  0.4971
52523SOL    HW167883   9.195   6.333   5.211 -1.3608 -2.8339  0.3867
52523SOL    HW267884   9.273   6.230   5.130  1.4956  0.0713 -0.7988
52524SOL     OW67885   5.526   0.061   9.958 -0.0079 -0.1769  0.0002
52524SOL    HW167886   5.565   0.037   9.874 -3.3477 -0.7956 -1.5439
52524SOL    HW267887   5.519  -0.022  10.005 -1.0552 -0.4055 -0.5200
52525SOL     OW67888  12.525   0.159   4.508  0.6011 -0.2264 -0.3026
52525SOL    HW167889  12.538   0.147   4.602  1.4347  1.1793 -0.2146
52525SOL    HW267890  12.431   0.143   4.495  0.8097 -2.4375  0.4058
52526SOL     OW67891   9.133  11.157   8.603  0.3190  0.0388  0.4123
52526SOL    HW167892   9.102  11.168   8.693 -0.6865  1.0108 -0.0235
52526SOL    HW267893   9.226  11.140   8.612 -0.0065 -1.3232  1.7030
52527SOL     OW67894   9.002   9.920   3.199  0.0744 -0.9503  0.8607
52527SOL    HW167895   8.922   9.869   3.186  0.2966 -1.4204  1.3026
52527SOL    HW267896   9.002   9.983   3.127  0.8798 -2.9397 -0.9850
52528SOL     OW67897   7.150   1.422   5.389  0.0164  0.0470 -0.2611
52528SOL    HW167898   7.160   1.479   5.313 -0.5059 -0.4426 -0.7038
52528SOL    HW267899   7.169   1.334   5.356 -1.7654 -0.3868 -0.2092
52529SOL     OW67900   0.756   1.740   9.803 -0.1501  0.5264 -0.1326
52529SOL    HW167901   0.798   1.826   9.804  0.1823  0.4198 -1.8429
52529SOL    HW267902   0.828   1.678   9.797 -0.4605  0.2847 -1.8032
52530SOL     OW67903   2.907   8.923   0.684 -0.8679 -0.3032  0.1200
52530SOL    HW167904   2.871   8.836   0.698 -1.0965 -0.1820  0.2991
52530SOL    HW267905   2.931   8.954   0.772  1.1305 -0.9939 -0.1335
52531SOL     OW67906   5.330   9.248   7.767  0.1500 -0.3838  0.3513
52531SOL    HW167907   5.400   9.214   7.823  0.6241 -0.6339 -0.3773
52531SOL    HW267908   5.351   9.215   7.679  0.8575  2.0809 -0.4824
52532SOL     OW67909   3.577   0.051   7.681 -0.4299  0.0149 -0.1844
52532SOL    HW167910   3.591   0.144   7.664  1.1724 -0.3230 -0.8440
52532SOL    HW267911   3.487   0.046   7.714 -0.4639  1.8124  0.0764
52533SOL     OW67912  11.267   0.862   7.503  0.4480 -0.0105  1.0391
52533SOL    HW167913  11.196   0.912   7.463  0.5602  0.3890  1.3311
52533SOL    HW267914  11.338   0.866   7.439  0.8155  1.0821  1.4894
52534SOL     OW67915   5.136   0.282   2.434 -0.0033  0.2104  0.1602
52534SOL    HW167916   5.053   0.328   2.439 -0.4884 -0.6556  0.3337
52534SOL    HW267917   5.123   0.215   2.367  1.5612  2.0005 -2.1135
52535SOL     OW67918  12.440   1.213   1.938 -1.4151 -0.3050 -0.0993
52535SOL    HW167919  12.480   1.299   1.949 -0.1235 -1.1198  2.5094
52535SOL    HW267920  12.360   1.216   1.990 -1.1071 -0.7849  0.4240
52536SOL     OW67921  12.056   2.865   8.189 -0.2895 -0.1330 -0.2286
52536SOL    HW167922  12.035   2.801   8.121 -1.0181 -1.7688  1.4423
52536SOL    HW267923  12.005   2.942   8.166 -2.0902 -1.3372 -0.5174
52537SOL     OW67924   8.139   3.232   1.747  0.5420 -0.2019  0.2865
52537SOL    HW167925   8.069   3.167   1.744  1.6186 -1.3853 -1.5211
52537SOL    HW267926   8.111   3.300   1.685  1.1277 -0.8826 -0.7602
52538SOL     OW67927   0.258   9.977   7.641  0.1560 -0.0664  0.2746
52538SOL    HW167928   0.220   9.895   7.611 -0.1118  0.0747  0.2277
52538SOL    HW267929   0.289  10.020   7.562 -3.0551  1.6088 -0.2257
52539SOL     OW67930  12.302   7.910  11.980 -0.3047  0.2337  0.6797
52539SOL    HW167931  12.385   7.951  12.004 -0.5100 -0.1404  2.1216
52539SOL    HW267932  12.262   7.886  12.064 -1.7407  0.1476 -0.0019
52540SOL     OW67933   1.392   8.149   8.884  0.1495 -0.1780 -0.1084
52540SOL    HW167934   1.330   8.203   8.934 -1.7600 -0.9173 -1.5625
52540SOL    HW267935   1.425   8.208   8.816 -0.1547 -0.1944 -0.2728
52541SOL     OW67936   5.516   8.819   6.472  1.0469  0.0599  0.5156
52541SOL    HW167937   5.569   8.740   6.487  0.5528 -0.3154  0.2880
52541SOL    HW267938   5.531   8.840   6.380  0.1105 -0.5609  0.2116
52542SOL     OW67939  11.362   2.810   4.003 -0.0942  0.1023 -0.3523
52542SOL    HW167940  11.299   2.875   4.032 -0.4008 -0.7832  1.1064
52542SOL    HW267941  11.311   2.730   3.993  0.7516 -0.6159  0.7792
52543SOL     OW67942   8.125   0.897   3.325  0.2590  0.1943  0.5231
52543SOL    HW167943   8.035   0.919   3.298  0.1419  1.0219  1.5018
52543SOL    HW267944   8.147   0.819   3.275 -0.5344  0.7173 -0.7026
52544SOL     OW67945   5.417   0.867   8.777 -0.5480 -0.2858  0.0390
52544SOL    HW167946   5.421   0.818   8.694 -0.2251 -2.6008  1.3268
52544SOL    HW267947   5.475   0.942   8.763  0.7358 -1.4598 -1.3480
52545SOL     OW67948   1.145   8.628  12.185  0.1541  0.6040  0.1086
52545SOL    HW167949   1.142   8.721  12.207  0.7893  0.6720 -0.0750
52545SOL    HW267950   1.054   8.600  12.189 -0.1477  1.4285 -0.6750
52546SOL     OW67951  12.981   2.489   5.791 -0.2340 -0.1086 -0.1477
52546SOL    HW167952  13.045   2.453   5.729 -0.3901  2.2415 -1.8050
52546SOL    HW267953  13.034   2.532   5.858 -0.0336  0.3031 -0.5589
52547SOL     OW67954   9.608  10.489   5.364  0.1524  0.2520  0.1240
52547SOL    HW167955   9.605  10.524   5.275 -3.5035  0.5024  0.2004
52547SOL    HW267956   9.676  10.541   5.408  1.8501  0.2970 -2.3793
52548SOL     OW67957   7.480   6.154   6.205  0.1535 -0.2256 -0.1142
52548SOL    HW167958   7.522   6.080   6.248  0.6229 -0.3454 -0.7695
52548SOL    HW267959   7.458   6.214   6.276 -1.3450 -1.5141  0.5903
52549SOL     OW67960   7.071  12.557  11.173 -0.6650  0.8714  0.3765
52549SOL    HW167961   6.977  12.552  11.189 -0.6356  1.4260  0.7743
52549SOL    HW267962   7.105  12.606  11.248  0.2034 -0.9114  1.2202
52550SOL     OW67963   3.160  10.147   0.399 -0.1033  0.7325 -0.2688
52550SOL    HW167964   3.120  10.210   0.459  0.9053  0.5731  0.6200
52550SOL    HW267965   3.126  10.062   0.428 -2.8418  0.9165 -2.5657
52551SOL     OW67966   9.825  11.445   0.896  0.7680  0.1909 -0.3537
52551SOL    HW167967   9.811  11.362   0.851  0.6685  0.0207 -0.0108
52551SOL    HW267968   9.917  11.466   0.882  0.9980 -0.3885  0.2494
52552SOL     OW67969   1.745   9.497   2.859  0.4550  0.3474  0.2059
52552SOL    HW167970   1.840   9.487   2.861  0.3649 -0.6603  1.6776
52552SOL    HW267971   1.730   9.582   2.819  1.9716  0.5015 -0.0960
52553SOL     OW67972   7.344  11.271   4.054 -0.4982  0.3520  0.3974
52553SOL    HW167973   7.316  11.303   4.140  0.1526 -0.5034  0.9533
52553SOL    HW267974   7.284  11.200   4.034  0.4263 -0.6384  1.0021
52554SOL     OW67975   3.482  12.351   5.973  0.0194  0.1773  0.4290
52554SOL    HW167976   3.453  12.420   6.033 -0.0146  2.1516 -1.7280
52554SOL    HW267977   3.403  12.328   5.924  0.6133  0.6996 -0.8110
52555SOL     OW67978   4.570   7.695   4.412 -0.3004  0.4725 -0.1713
52555SOL    HW167979   4.517   7.768   4.380 -2.0984  0.0712  1.7456
52555SOL    HW267980   4.537   7.619   4.364 -2.6439 -0.0404  2.0528
52556SOL     OW67981   2.817   4.952   4.842 -0.7141 -0.0812 -0.3695
52556SOL    HW167982   2.783   5.018   4.783 -0.4130 -0.2415 -0.7251
52556SOL    HW267983   2.908   4.940   4.815 -0.8405 -0.8262 -0.4766
52557SOL     OW67984   4.734   1.236   7.704 -0.1954 -0.2195  0.5117
52557SOL    HW167985   4.698   1.325   7.703  0.2147 -0.0502 -0.2072
52557SOL    HW267986   4.716   1.202   7.616 -0.1461 -0.7646  0.7094
52558SOL     OW67987   6.886  11.838  10.745  0.2283 -0.0590 -0.4937
52558SOL    HW167988   6.852  11.755  10.712 -0.7634  0.5975 -1.1846
52558SOL    HW267989   6.981  11.828  10.742  0.2199 -2.2053  2.1009
52559SOL     OW67990  12.848   4.240   2.798  0.4601  0.1345  0.0637
52559SOL    HW167991  12.876   4.178   2.866 -3.7504  2.2151  4.2842
52559SOL    HW267992  12.873   4.326   2.832 -3.8153  1.4452  0.4753
52560SOL     OW67993   9.771   9.973   7.300  0.0975 -0.2102  0.5384
52560SOL    HW167994   9.741   9.883   7.288  0.4402 -0.4329  1.3176
52560SOL    HW267995   9.741   9.998   7.387  3.5542 -1.0581  2.1441
52561SOL     OW67996  12.723   5.304   0.045 -0.3995 -0.9373  0.2655
52561SOL    HW167997  12.706   5.274  -0.044  0.7906  0.9459 -0.6703
52561SOL    HW267998  12.653   5.366   0.063  1.5080  1.8177 -1.0538
52562SOL     OW67999  12.894  10.980   7.956  0.0470  0.0096 -0.1250
52562SOL    HW168000  12.870  10.967   8.048 -0.4644 -0.8344 -0.3704
52562SOL    HW268001  12.949  10.905   7.935  1.1871  0.8377 -0.1769
52563SOL     OW68002   8.753   8.906   2.468  0.5582  0.2979  0.2154
52563SOL    HW168003   8.787   8.920   2.557  1.3491  1.3480 -0.2444
52563SOL    HW268004   8.658   8.897   2.481  0.6653  0.3673  1.1711
52564SOL     OW68005  11.693   3.204   6.997  0.3197 -0.0952 -0.0593
52564SOL    HW168006  11.681   3.221   6.904  1.9643 -0.4198 -0.3581
52564SOL    HW268007  11.691   3.290   7.038 -0.9806  0.0110 -0.2837
52565SOL     OW68008  10.259   3.902   9.969  0.0527  0.5131  0.1091
52565SOL    HW168009  10.234   3.956   9.894  0.4446  0.1324 -0.3002
52565SOL    HW268010  10.179   3.895  10.021 -0.2978  0.5476 -0.4205
52566SOL     OW68011   9.804  11.575  10.431 -0.0424  0.0804 -0.1619
52566SOL    HW168012   9.728  11.622  10.463 -0.3779  0.0632 -0.9325
52566SOL    HW268013   9.815  11.502  10.493 -0.1165  0.5875  0.4520
52567SOL     OW68014   8.425  11.292   0.336 -0.1216  0.2641 -0.1557
52567SOL    HW168015   8.473  11.348   0.396 -0.1320 -1.7549  1.8883
52567SOL    HW268016   8.478  11.212   0.330 -0.6130  0.0260 -2.1334
52568SOL     OW68017  11.870  10.394   4.366 -0.3779 -0.1030 -0.2108
52568SOL    HW168018  11.876  10.429   4.455  0.0326  1.3280 -0.7607
52568SOL    HW268019  11.795  10.335   4.368  0.6262 -1.4255  1.4895
52569SOL     OW68020   3.565   3.951  12.102 -0.2008 -0.3233  0.4945
52569SOL    HW168021   3.605   3.869  12.131 -1.0931  0.0950  3.2785
52569SOL    HW268022   3.474   3.927  12.082 -0.6611  0.0155  1.9939
52570SOL     OW68023   6.251   8.580   5.479 -0.0919  0.2731  0.0733
52570SOL    HW168024   6.339   8.588   5.515  0.2247  3.5759 -1.1268
52570SOL    HW268025   6.264   8.553   5.388 -0.5869 -2.2291  0.6597
52571SOL     OW68026  11.208   1.011  10.683 -0.6762 -0.2795 -0.3709
52571SOL    HW168027  11.215   1.102  10.653 -0.4574 -0.1802 -0.0143
52571SOL    HW268028  11.175   0.964  10.607 -3.3422  0.5514  0.1552
52572SOL     OW68029   9.956   8.219  11.234  0.1508 -0.3152  0.4031
52572SOL    HW168030  10.004   8.172  11.166 -1.3197 -0.1580 -0.8271
52572SOL    HW268031   9.993   8.307  11.233  0.5869 -0.5005  0.2636
52573SOL     OW68032   4.094   4.568   9.279 -0.2866  0.1883 -0.2703
52573SOL    HW168033   4.035   4.586   9.351 -0.0371  0.5106 -0.1391
52573SOL    HW268034   4.161   4.510   9.315 -0.5600 -0.2336 -0.4370
52574SOL     OW68035  10.975   6.069   6.983 -0.0241 -0.3840 -0.3611
52574SOL    HW168036  10.920   5.995   6.955  0.2423 -0.3148 -1.1004
52574SOL    HW268037  10.915   6.129   7.027 -0.6999  0.0278 -1.7908
52575SOL     OW68038   6.298  11.113   5.575  0.1461  0.1841 -0.8408
52575SOL    HW168039   6.310  11.120   5.670 -0.1671  0.6255 -0.8303
52575SOL    HW268040   6.258  11.027   5.563  1.2292 -0.3558 -0.6805
52576SOL     OW68041   5.630   6.583   5.326  0.0514  0.0992 -0.1818
52576SOL    HW168042   5.619   6.488   5.331 -0.5994  0.1952  0.5801
52576SOL    HW268043   5.544   6.618   5.349  0.6583  0.8804  1.0530
52577SOL     OW68044  11.051   8.300  12.782  0.0266  0.2628  0.4928
52577SOL    HW168045  11.038   8.356  12.859  1.3186  2.9367 -1.1173
52577SOL    HW268046  10.963   8.285  12.748 -0.3693  1.0904  1.1262
52578SOL     OW68047   3.383   4.550   8.633  0.6527 -0.0412  0.1274
52578SOL    HW168048   3.339   4.634   8.621  1.2706  0.1683 -0.7888
52578SOL    HW268049   3.323   4.486   8.595  1.0763  0.2367 -1.0644
52579SOL     OW68050   5.392  12.671   9.599  0.1268  0.0115 -0.3689
52579SOL    HW168051   5.357  12.627   9.676 -1.7915  1.7058 -0.1959
52579SOL    HW268052   5.335  12.642   9.527 -1.2224  2.1620 -0.2401
52580SOL     OW68053   2.770  10.096   3.698 -0.5543  0.2396 -0.1389
52580SOL    HW168054   2.697  10.157   3.704 -0.7976  0.0079 -0.6318
52580SOL    HW268055   2.844  10.149   3.667 -0.8161  0.2475 -0.7610
52581SOL     OW68056   2.210   5.484   8.133 -0.0299 -0.1542 -0.3343
52581SOL    HW168057   2.292   5.435   8.132  0.1065  0.0330  0.5944
52581SOL    HW268058   2.212   5.533   8.215 -0.2622  1.2504 -1.1253
52582SOL     OW68059   2.778   0.374   8.945  0.1238 -0.6094 -0.5854
52582SOL    HW168060   2.796   0.396   8.854  1.9016 -1.7229 -0.5464
52582SOL    HW268061   2.742   0.285   8.942  3.4536 -2.1245 -0.0685
52583SOL     OW68062  11.343   2.847   1.439 -0.2043  0.2831  0.3030
52583SOL    HW168063  11.250   2.871   1.431 -0.3819  0.1803  1.8452
52583SOL    HW268064  11.350   2.805   1.524  1.0800 -0.6612 -0.2354
52584SOL     OW68065  11.850   7.532   8.602  0.5837  0.5738 -0.3815
52584SOL    HW168066  11.906   7.605   8.573  2.0637 -0.6635 -0.7826
52584SOL    HW268067  11.899   7.453   8.576  0.1799 -0.5971  2.1468
52585SOL     OW68068   7.238  10.451   2.587 -0.3239  0.0099  0.1169
52585SOL    HW168069   7.319  10.435   2.539 -0.2021  0.3610  0.1996
52585SOL    HW268070   7.177  10.485   2.521 -0.4157 -0.2825  0.0488
52586SOL     OW68071   9.739   9.534   4.671 -0.6438  0.1899  0.1118
52586SOL    HW168072   9.765   9.454   4.624 -1.6401  1.4976 -2.9424
52586SOL    HW268073   9.660   9.510   4.718  0.3795 -1.1910  1.2220
52587SOL     OW68074   6.758  11.937   1.542 -0.3408 -0.2471 -0.2714
52587SOL    HW168075   6.801  11.980   1.617  1.0490  0.6681 -1.5116
52587SOL    HW268076   6.681  11.991   1.525 -1.2544 -1.0683  1.1083
52588SOL     OW68077   4.406   0.698   6.883  0.2964 -0.4204 -0.4231
52588SOL    HW168078   4.317   0.670   6.860  0.2580  0.7490 -1.7891
52588SOL    HW268079   4.396   0.735   6.971 -0.7758  0.5304 -0.9076
52589SOL     OW68080   7.087   9.773   2.278 -0.0695 -0.1716  0.2244
52589SOL    HW168081   7.039   9.764   2.360 -1.0947  0.9874 -0.2288
52589SOL    HW268082   7.088   9.867   2.261  3.6424  0.0880  0.9519
52590SOL     OW68083  12.069   7.849   7.669 -0.0762 -0.2438  0.2578
52590SOL    HW168084  12.064   7.943   7.650 -0.6067 -0.5651 -1.2912
52590SOL    HW268085  11.989   7.813   7.632  0.7422 -1.4974 -0.3616
52591SOL     OW68086   8.148   1.098   7.473 -0.1683  0.5578 -0.1774
52591SOL    HW168087   8.238   1.131   7.471  0.1126 -0.0212  1.3137
52591SOL    HW268088   8.152   1.013   7.430  0.3117 -0.0942  1.1063
52592SOL     OW68089   3.163  12.066   8.626  0.2466  0.6708 -0.7326
52592SOL    HW168090   3.227  12.105   8.566 -0.4044  0.2396 -1.7337
52592SOL    HW268091   3.133  12.140   8.680 -0.2605  1.3849 -1.9504
52593SOL     OW68092   7.521   8.798   8.423  0.4782  0.0273 -0.0609
52593SOL    HW168093   7.498   8.721   8.475  1.5099  0.2456  0.7691
52593SOL    HW268094   7.459   8.865   8.452  0.0445 -0.2814 -0.2582
52594SOL     OW68095   4.734   0.510   8.861 -0.4777 -0.0945 -0.4204
52594SOL    HW168096   4.715   0.437   8.920 -0.0970 -0.5577 -0.8669
52594SOL    HW268097   4.825   0.532   8.879 -1.1346  1.5911  1.1329
52595SOL     OW68098   4.326  10.634   3.101 -0.2201  0.0673 -0.3003
52595SOL    HW168099   4.314  10.622   3.195  0.9395 -0.0594 -0.1494
52595SOL    HW268100   4.343  10.545   3.068  0.7254  0.2753 -0.4015
52596SOL     OW68101  12.913   5.187  10.670  0.1303 -0.2911 -0.2162
52596SOL    HW168102  12.879   5.201  10.581 -1.6592  0.6831  0.5526
52596SOL    HW268103  12.997   5.231  10.670 -0.3925  0.7838 -1.1033
52597SOL     OW68104  11.795   9.850   3.333  0.4302  0.7470  0.7025
52597SOL    HW168105  11.869   9.897   3.370  1.0446 -0.7783  1.4942
52597SOL    HW268106  11.735   9.837   3.407  0.0053  0.7794  0.3695
52598SOL     OW68107  12.029   2.830   7.181  0.1285 -0.0468 -0.1765
52598SOL    HW168108  12.049   2.910   7.230  0.9404 -0.3120 -0.0590
52598SOL    HW268109  12.092   2.766   7.213 -1.0067 -0.9725  0.2837
52599SOL     OW68110   0.702   9.426  12.575 -0.1741  0.2831 -0.0207
52599SOL    HW168111   0.610   9.398  12.571  0.2726 -1.1360 -1.6238
52599SOL    HW268112   0.701   9.515  12.541 -1.2885  1.3904  2.6713
52600SOL     OW68113   3.011  10.848   7.925  0.6341 -0.2786  0.5906
52600SOL    HW168114   2.941  10.913   7.938  1.7364  1.0900 -0.0726
52600SOL    HW268115   3.088  10.887   7.965  1.1687 -1.5094  0.7968
52601SOL     OW68116  11.069  11.038   1.291 -0.4427  0.1793  0.7321
52601SOL    HW168117  11.082  11.132   1.280  2.8808 -0.2612 -0.4931
52601SOL    HW268118  11.069  11.025   1.386 -1.2663  1.4125  0.9272
52602SOL     OW68119   8.052   8.084   2.729 -0.4610 -0.2323  0.5943
52602SOL    HW168120   7.996   8.007   2.736 -0.3183 -0.4223 -0.2402
52602SOL    HW268121   8.021   8.130   2.652  0.0411  0.0642  0.5637
52603SOL     OW68122   8.205  10.792  10.057 -0.0181 -0.3849 -0.1659
52603SOL    HW168123   8.268  10.730  10.021  1.2950  0.4514  0.6189
52603SOL    HW268124   8.176  10.753  10.139  0.5531 -0.1215  0.1629
52604SOL     OW68125  11.462   6.199  10.706 -0.1687  0.9248 -0.5837
52604SOL    HW168126  11.504   6.155  10.779  1.3851 -0.2358 -2.0784
52604SOL    HW268127  11.533   6.213  10.643 -1.5734  1.1362 -2.1910
52605SOL     OW68128   1.681   2.928   1.304  0.0401  0.3925 -0.4975
52605SOL    HW168129   1.736   2.996   1.342  0.2327 -0.9108  1.7669
52605SOL    HW268130   1.731   2.847   1.317 -1.2854 -0.5006 -0.7586
52606SOL     OW68131  11.867   0.813   0.762  0.0437  0.1007 -0.3615
52606SOL    HW168132  11.845   0.852   0.677 -0.3672  1.3270  0.2815
52606SOL    HW268133  11.959   0.790   0.755  0.3959  1.5016 -0.6702
52607SOL     OW68134   3.863   1.398   9.410 -0.4775 -0.2724  0.7509
52607SOL    HW168135   3.792   1.383   9.472 -0.3060  0.6054  1.1741
52607SOL    HW268136   3.932   1.337   9.437 -1.1325 -1.2656  0.2186
52608SOL     OW68137  10.133   4.312  11.921 -0.0950 -0.0083  0.1199
52608SOL    HW168138  10.181   4.334  12.000  0.7593 -1.3423 -0.0004
52608SOL    HW268139  10.152   4.383  11.860 -0.9269  1.1397  1.1436
52609SOL     OW68140   2.825   2.191   0.173  0.2840  0.4671 -0.0362
52609SOL    HW168141   2.775   2.148   0.243  0.6763 -0.1514 -0.1262
52609SOL    HW268142   2.765   2.257   0.138 -0.2167  0.2130  0.3276
52610SOL     OW68143   1.332   1.061   8.758 -0.2510 -0.4154 -0.2391
52610SOL    HW168144   1.401   1.092   8.699 -1.7666  1.3095 -1.1850
52610SOL    HW268145   1.369   1.071   8.846  1.0793 -0.5402 -0.7654
52611SOL     OW68146   6.119   5.028   2.573  0.1086 -0.2045  0.6503
52611SOL    HW168147   6.114   4.973   2.651 -1.1262 -0.0960  0.6610
52611SOL    HW268148   6.189   4.990   2.521  0.8595 -0.3568  1.7464
52612SOL     OW68149   7.294  10.307   2.817  0.5229  0.7756  0.2672
52612SOL    HW168150   7.386  10.331   2.817  1.0314 -1.0394  0.1716
52612SOL    HW268151   7.255  10.358   2.746  1.7097  0.6022 -0.5154
52613SOL     OW68152   9.946   8.824   2.142  0.0476 -0.1650  0.2519
52613SOL    HW168153   9.875   8.768   2.112 -1.1668  0.9320  0.9970
52613SOL    HW268154   9.945   8.816   2.237 -1.0753  2.1635  0.4818
52614SOL     OW68155   0.243  10.204   4.078 -0.4267  0.2243  0.0841
52614SOL    HW168156   0.224  10.165   4.164 -0.8687  0.7268  0.2192
52614SOL    HW268157   0.209  10.293   4.084  1.3180  0.9164  0.0454
52615SOL     OW68158   0.611   9.837   4.303 -0.0354  0.4670  0.2223
52615SOL    HW168159   0.668   9.814   4.377  0.8933 -3.2131 -1.3966
52615SOL    HW268160   0.526   9.802   4.325 -0.1779  0.7911  0.1990
52616SOL     OW68161  10.527  10.999   7.695  0.1904  0.1022 -0.3038
52616SOL    HW168162  10.453  10.950   7.732 -3.0749  2.4534 -3.0525
52616SOL    HW268163  10.530  10.971   7.603  1.0031  1.9065 -0.8593
52617SOL     OW68164  10.853   3.019   1.980 -0.3276 -0.1169  0.2468
52617SOL    HW168165  10.822   2.935   1.948  1.1539 -0.2303 -1.0544
52617SOL    HW268166  10.900   3.057   1.905 -0.4493  1.5932  0.9889
52618SOL     OW68167   7.629  12.213   9.640 -0.2589 -0.4266  0.5036
52618SOL    HW168168   7.643  12.208   9.545 -0.8747 -2.2939  0.4691
52618SOL    HW268169   7.708  12.175   9.679  0.1476  0.6579  0.7797
52619SOL     OW68170   1.445   0.734   3.164  0.8439 -0.4055 -0.2790
52619SOL    HW168171   1.469   0.685   3.086 -0.1224  0.3128 -1.0418
52619SOL    HW268172   1.370   0.688   3.201  1.1752 -0.6307  0.1277
52620SOL     OW68173   5.918   5.562   7.850 -0.1357 -0.4494  0.0763
52620SOL    HW168174   5.877   5.595   7.770 -0.7084 -1.2081  0.0431
52620SOL    HW268175   5.856   5.498   7.884 -0.3121  0.5332  1.6431
52621SOL     OW68176   9.018   8.191   0.660  0.1328 -0.0718 -0.0594
52621SOL    HW168177   9.083   8.245   0.617  0.6175 -0.4678  0.1645
52621SOL    HW268178   8.972   8.147   0.589  0.1391  0.1753 -0.2156
52622SOL     OW68179  12.510  10.107   6.545 -0.3881  0.0624 -0.4667
52622SOL    HW168180  12.570  10.085   6.617  0.3233  1.6970 -0.5210
52622SOL    HW268181  12.559  10.087   6.466 -1.2127 -1.8444 -0.5514
52623SOL     OW68182   6.888  11.105   6.308  0.4542  0.4419 -0.0763
52623SOL    HW168183   6.798  11.121   6.279  0.3392 -0.6447 -0.3485
52623SOL    HW268184   6.920  11.036   6.250  1.2697  0.4151  0.3951
52624SOL     OW68185  10.695   8.778   3.272 -0.3885  0.3086  0.2227
52624SOL    HW168186  10.649   8.721   3.333 -0.8158 -0.1546 -0.5243
52624SOL    HW268187  10.655   8.864   3.285 -1.2474 -0.0203 -0.1795
52625SOL     OW68188  12.904  11.017   4.570 -0.1117  0.3750 -0.5242
52625SOL    HW168189  12.875  10.999   4.660  0.7418  0.7603 -0.1660
52625SOL    HW268190  12.881  10.937   4.522 -0.6419  0.1912  0.0144
52626SOL     OW68191   1.848   0.628   0.697  0.2791 -0.0091  0.3815
52626SOL    HW168192   1.883   0.610   0.610  0.4424 -0.2867  0.5048
52626SOL    HW268193   1.756   0.650   0.682  0.3176 -0.0171  0.1348
52627SOL     OW68194   0.124   3.546   9.558 -0.0364  0.3906  0.1688
52627SOL    HW168195   0.184   3.527   9.486  0.6246 -0.0088  0.8098
52627SOL    HW268196   0.124   3.465   9.610  0.7803  1.2207  1.5097
52628SOL     OW68197   2.635   2.566   6.466 -0.0177  0.1376 -0.1795
52628SOL    HW168198   2.726   2.539   6.477  0.0143  0.1080 -0.4891
52628SOL    HW268199   2.603   2.510   6.395 -0.3328  0.0175  0.0539
52629SOL     OW68200   9.545   3.577   1.917 -0.1725  0.2886 -0.2517
52629SOL    HW168201   9.631   3.554   1.883  0.1750 -0.6457  1.1491
52629SOL    HW268202   9.487   3.574   1.841  0.6673 -1.0852 -0.8848
52630SOL     OW68203   1.085  11.739   9.974  0.0867  0.0759 -0.3408
52630SOL    HW168204   1.014  11.768  10.031  0.3995  0.4419 -0.1307
52630SOL    HW268205   1.103  11.815   9.919 -0.0962 -0.2166 -0.8115
52631SOL     OW68206   0.370   2.440   5.285  0.0850  0.5844  0.1870
52631SOL    HW168207   0.277   2.430   5.305  0.2557  2.5792  2.5144
52631SOL    HW268208   0.372   2.486   5.202 -1.1673  2.6202  1.2088
52632SOL     OW68209   9.523   3.887   8.435  0.1865  0.2851 -0.4270
52632SOL    HW168210   9.488   3.891   8.524  1.4846 -0.4411  0.1324
52632SOL    HW268211   9.450   3.917   8.380 -1.3576 -1.2308  0.6728
52633SOL     OW68212   4.826   4.815   3.519  0.2880  0.0569 -0.0101
52633SOL    HW168213   4.774   4.778   3.590 -1.1747  0.0637 -1.0433
52633SOL    HW268214   4.764   4.866   3.467  1.4516  0.5787 -0.9397
52634SOL     OW68215  12.690   1.146   1.154  0.0145 -0.0217  0.7044
52634SOL    HW168216  12.767   1.200   1.172 -0.4830  0.4773  1.3850
52634SOL    HW268217  12.620   1.210   1.140 -0.4327 -0.4815  0.8349
52635SOL     OW68218   7.717  11.729   7.503  0.1348  0.3266 -0.1912
52635SOL    HW168219   7.783  11.724   7.571 -1.9935 -1.4801  1.9037
52635SOL    HW268220   7.682  11.818   7.510 -0.1913  0.1001  1.2455
52636SOL     OW68221  10.850   8.771   7.893 -0.5476  0.8779  0.5428
52636SOL    HW168222  10.858   8.860   7.927  1.3422  0.7294  0.5455
52636SOL    HW268223  10.898   8.716   7.954 -1.6065 -0.1676  0.4890
52637SOL     OW68224   6.795   4.330   6.302  0.6396 -0.7470 -0.0291
52637SOL    HW168225   6.883   4.365   6.290  0.5539 -0.6109 -0.2787
52637SOL    HW268226   6.744   4.405   6.335  0.6488 -0.8617  0.2490
52638SOL     OW68227   2.066  11.212   6.085  0.2591 -0.2132  0.3069
52638SOL    HW168228   1.984  11.188   6.128  0.6884 -0.9953  0.7069
52638SOL    HW268229   2.088  11.137   6.030  0.6948 -0.0025  0.1820
52639SOL     OW68230   2.372   7.647   6.439  0.5280 -0.0188 -0.0931
52639SOL    HW168231   2.344   7.729   6.397  1.6299  1.0274  1.1098
52639SOL    HW268232   2.290   7.605   6.464 -0.0739  1.6802  0.9801
52640SOL     OW68233  11.240   2.063   7.951  0.0057  0.4664  0.1379
52640SOL    HW168234  11.169   2.032   7.895  0.5933  1.5902 -1.2964
52640SOL    HW268235  11.267   2.146   7.912  0.2801  1.4402  2.2638
52641SOL     OW68236  11.688   9.076   8.209  0.2251  0.4483  0.5078
52641SOL    HW168237  11.660   9.126   8.133  0.9749  2.4006  1.4466
52641SOL    HW268238  11.717   8.992   8.174 -2.1740  0.1637 -1.0025
52642SOL     OW68239   1.693   1.455   0.112 -0.2941 -0.3620  0.0556
52642SOL    HW168240   1.691   1.363   0.087  1.4194 -0.6552  0.8779
52642SOL    HW268241   1.610   1.490   0.081 -1.3753 -2.3850  0.5276
52643SOL     OW68242  12.721  12.956   3.540 -0.2998 -0.3601 -0.5501
52643SOL    HW168243  12.792  13.020   3.546 -2.3511  1.9280  1.6270
52643SOL    HW268244  12.751  12.881   3.591  0.7289  0.3797 -0.0315
52644SOL     OW68245   6.152   9.340   7.598  0.0333 -0.5804 -0.3805
52644SOL    HW168246   6.140   9.419   7.650 -1.0519  0.7116 -2.4677
52644SOL    HW268247   6.070   9.291   7.608 -1.0997  0.7399 -2.4749
52645SOL     OW68248  10.615   3.350  12.517 -0.2805 -0.1164 -0.0675
52645SOL    HW168249  10.616   3.441  12.488  0.2464 -0.7031 -1.9984
52645SOL    HW268250  10.537   3.312  12.476  0.2394 -0.8686 -0.3758
52646SOL     OW68251  11.263   8.142  10.562 -0.2012 -0.6309 -0.4617
52646SOL    HW168252  11.242   8.199  10.636  1.1742  1.0820 -1.3337
52646SOL    HW268253  11.359   8.142  10.558 -0.2298 -1.3169 -1.7738
52647SOL     OW68254   3.253  12.940   5.264  0.3418 -0.1838  0.1600
52647SOL    HW168255   3.255  12.892   5.182  1.4307 -0.4262  0.3102
52647SOL    HW268256   3.340  12.982   5.270 -1.3829  4.1890 -1.3299
52648SOL     OW68257   4.779   6.119   8.314  0.3342  0.2330 -0.0213
52648SOL    HW168258   4.787   6.153   8.403  3.6161  0.6782 -0.3651
52648SOL    HW268259   4.744   6.192   8.263  1.5100  1.0923  0.3625
52649SOL     OW68260   8.619   5.997   7.883  0.2668  0.6048 -0.4873
52649SOL    HW168261   8.578   6.066   7.936 -1.4071  1.1008 -2.2900
52649SOL    HW268262   8.713   6.016   7.887 -0.0273  2.0623  0.3161
52650SOL     OW68263  12.172   1.045   0.752 -0.0776 -0.1153 -0.2027
52650SOL    HW168264  12.165   0.954   0.721 -0.5205 -0.5046  0.9754
52650SOL    HW268265  12.088   1.085   0.727  0.2631  0.0900 -1.0525
52651SOL     OW68266   4.554   1.151  10.385 -0.5145  0.4786  0.4267
52651SOL    HW168267   4.569   1.083  10.450 -1.1722  0.2753  0.3725
52651SOL    HW268268   4.641   1.186  10.366 -0.0286 -1.0457 -0.3113
52652SOL     OW68269  11.605   4.198   7.080 -0.0348  0.1600 -0.4887
52652SOL    HW168270  11.620   4.120   7.026  1.5521 -0.1334  0.3247
52652SOL    HW268271  11.655   4.267   7.037  0.2575  0.2215 -0.0445
52653SOL     OW68272   5.784   9.333   3.226 -0.8747 -0.4639 -0.2482
52653SOL    HW168273   5.797   9.243   3.196  0.7648 -0.7342  1.0731
52653SOL    HW268274   5.749   9.324   3.315 -0.9784  0.2002 -0.2180
52654SOL     OW68275   2.229   8.953   6.763 -0.0045  0.0159 -0.0704
52654SOL    HW168276   2.170   8.910   6.824 -0.6713 -0.3565 -0.9563
52654SOL    HW268277   2.287   9.005   6.818 -0.4996 -0.4207  0.8802
52655SOL     OW68278   6.263   1.525   1.831 -0.0596  0.1133 -0.6754
52655SOL    HW168279   6.193   1.460   1.825  0.3342 -0.4830  0.8205
52655SOL    HW268280   6.226   1.597   1.881  0.1194  0.2061 -0.6726
52656SOL     OW68281   8.131  11.502   6.571 -0.0991 -0.1156  0.8009
52656SOL    HW168282   8.131  11.407   6.584  1.5079 -0.0546  1.5329
52656SOL    HW268283   8.039  11.525   6.566 -0.5238 -1.8121 -0.1837
52657SOL     OW68284   3.118   8.705   1.274  0.1705 -0.2125 -0.2662
52657SOL    HW168285   3.210   8.683   1.261  0.5311  0.9846  0.0251
52657SOL    HW268286   3.072   8.621   1.276  1.4598 -0.9298  1.0697
52658SOL     OW68287   2.870  10.962   0.966  0.4552 -0.2932 -0.1457
52658SOL    HW168288   2.833  10.902   1.030 -0.4012 -0.7920 -1.0691
52658SOL    HW268289   2.895  10.906   0.892  2.7753  0.0658  0.2743
52659SOL     OW68290   4.122  11.201   7.087 -0.2897 -0.5500  0.0276
52659SOL    HW168291   4.081  11.136   7.144 -0.5876  0.3244  0.8323
52659SOL    HW268292   4.189  11.152   7.039  0.0881 -1.2810  1.2575
52660SOL     OW68293   1.274   3.686   1.245 -0.0661  0.4997 -0.2154
52660SOL    HW168294   1.199   3.649   1.199 -0.6222  1.4417 -0.0820
52660SOL    HW268295   1.246   3.773   1.272  0.7739  0.5460  0.5875
52661SOL     OW68296  12.713   0.568   8.458  0.2502 -0.0542  0.3167
52661SOL    HW168297  12.722   0.474   8.467 -1.0801 -0.3369 -0.8965
52661SOL    HW268298  12.783   0.593   8.397  2.7422  0.3360  3.0842
52662SOL     OW68299  12.663  12.956   1.614 -0.2318 -0.2960 -0.5747
52662SOL    HW168300  12.713  13.009   1.676 -0.1811 -0.2285 -0.6739
52662SOL    HW268301  12.605  12.903   1.669  2.6237 -3.2794 -0.1338
52663SOL     OW68302   4.151   3.068  11.300 -0.2130  0.5727  0.2876
52663SOL    HW168303   4.170   2.975  11.313  0.0900  0.8484  2.1611
52663SOL    HW268304   4.081   3.069  11.235 -2.0596 -1.1546  2.1012
52664SOL     OW68305   7.723   7.161   1.477 -0.0039  0.1528  0.0350
52664SOL    HW168306   7.740   7.255   1.471  0.2632  0.1569  0.7752
52664SOL    HW268307   7.774   7.123   1.406 -1.2445  0.6927 -1.1876
52665SOL     OW68308   8.520   7.719   6.774 -0.2130  0.4656  0.4261
52665SOL    HW168309   8.445   7.671   6.809  0.1834 -1.4027 -1.1205
52665SOL    HW268310   8.596   7.671   6.806  0.1899 -0.1128 -1.3183
52666SOL     OW68311   7.553  12.284   7.387  0.8088 -0.0414 -0.1283
52666SOL    HW168312   7.625  12.347   7.385 -0.2268  1.1575 -1.7297
52666SOL    HW268313   7.583  12.213   7.329  1.4817 -0.5181  0.7626
52667SOL     OW68314  11.329  10.188  12.685 -0.0434  0.4385 -0.6514
52667SOL    HW168315  11.254  10.193  12.746  0.8428 -0.7075  0.6116
52667SOL    HW268316  11.381  10.266  12.705 -0.7413  1.1108 -1.3641
52668SOL     OW68317   5.282   8.916   5.168  0.5122 -0.2987  0.0418
52668SOL    HW168318   5.288   8.822   5.189 -0.5231 -0.7358 -1.4804
52668SOL    HW268319   5.202   8.945   5.212  0.7589 -0.1430  0.3969
52669SOL     OW68320   2.007   3.982  10.963 -0.6137  0.6756  0.4379
52669SOL    HW168321   1.974   3.947  10.880 -0.0651  0.4386  0.3138
52669SOL    HW268322   1.929   4.011  11.010 -0.9909  0.1589  0.1384
52670SOL     OW68323  11.172   3.856  10.649  0.8675 -0.1457  0.5703
52670SOL    HW168324  11.197   3.855  10.557  1.3483 -0.2583  0.6993
52670SOL    HW268325  11.135   3.769  10.665 -1.1021  0.5412 -0.0139
52671SOL     OW68326  11.365   9.801   5.647  0.2460 -0.4827  0.6363
52671SOL    HW168327  11.327   9.880   5.611  1.6026 -0.4480 -0.8344
52671SOL    HW268328  11.420   9.831   5.719 -0.0834 -0.2140  0.7759
52672SOL     OW68329   9.310   5.057   7.006  0.1904 -0.1796  0.0420
52672SOL    HW168330   9.331   4.998   7.079 -0.3513 -0.6855 -0.1928
52672SOL    HW268331   9.255   5.125   7.045  0.7741  0.1464  0.3051
52673SOL     OW68332  12.312   3.221   8.811 -0.0928  0.4940  0.1782
52673SOL    HW168333  12.254   3.295   8.833  1.9654  2.5173 -0.7205
52673SOL    HW268334  12.397   3.262   8.795  1.8404 -2.3975  2.1379
52674SOL     OW68335   4.792   3.508   7.440 -0.0142 -0.3503 -1.0178
52674SOL    HW168336   4.746   3.453   7.502 -0.1719  0.4978 -0.3650
52674SOL    HW268337   4.860   3.451   7.403  0.8806 -0.5668  0.8230
52675SOL     OW68338   2.339   9.355   8.717  0.1348 -0.2630  0.4614
52675SOL    HW168339   2.248   9.380   8.736 -0.2203 -0.6977 -0.5650
52675SOL    HW268340   2.347   9.265   8.748 -0.6597 -1.2275 -1.9230
52676SOL     OW68341   1.317   9.074   8.550 -0.1000  0.2339 -0.6484
52676SOL    HW168342   1.253   9.027   8.497 -0.3238 -0.1895 -0.0097
52676SOL    HW268343   1.393   9.084   8.493 -0.3999 -0.0573 -1.1045
52677SOL     OW68344   2.207  11.671   9.909  0.9156 -0.0209  0.0908
52677SOL    HW168345   2.281  11.630   9.864  0.4272  0.2186 -0.9595
52677SOL    HW268346   2.130  11.643   9.859  0.4193  0.7655  0.3939
52678SOL     OW68347   5.621   7.952  12.676  0.6601  0.0037  0.0241
52678SOL    HW168348   5.597   7.876  12.729  3.3161 -1.0019 -0.1031
52678SOL    HW268349   5.620   7.919  12.586  1.7293  0.1385 -0.0407
52679SOL     OW68350   9.576   9.235   4.030 -0.4832 -0.0051  0.1993
52679SOL    HW168351   9.617   9.177   4.094 -1.8736 -0.6140  0.5643
52679SOL    HW268352   9.624   9.219   3.949  0.1499 -0.5226  0.6654
52680SOL     OW68353   5.128   7.671  10.928  0.4556  0.4215  0.2159
52680SOL    HW168354   5.037   7.652  10.949  0.9321 -1.0764  1.1237
52680SOL    HW268355   5.139   7.764  10.949 -0.4782  0.2545  1.5439
52681SOL     OW68356   9.523   9.300   2.210  0.5375 -0.4618 -0.0466
52681SOL    HW168357   9.587   9.353   2.163  2.0846 -2.6164 -0.4999
52681SOL    HW268358   9.502   9.352   2.287 -0.2705  2.1049 -1.8216
52682SOL     OW68359   4.486   0.372   4.914  0.7386 -0.5410  0.4868
52682SOL    HW168360   4.501   0.373   5.009  0.0599  1.6765  0.6379
52682SOL    HW268361   4.498   0.463   4.887  0.9526 -1.1352 -1.5834
52683SOL     OW68362  10.284   3.217  10.992  0.1924  0.4869  0.5717
52683SOL    HW168363  10.199   3.215  11.035 -0.9182 -0.6255 -1.5238
52683SOL    HW268364  10.290   3.303  10.952  0.6469  1.0367  1.7923
52684SOL     OW68365   2.400  12.967   2.173  0.1645 -1.0198 -0.2790
52684SOL    HW168366   2.324  12.952   2.117 -0.6974 -1.5499  0.9899
52684SOL    HW268367   2.414  13.061   2.169 -0.5551 -0.9167 -0.5343
52685SOL     OW68368   9.389   9.512   0.440 -0.0945 -0.1360  0.1507
52685SOL    HW168369   9.405   9.560   0.521 -0.8540 -0.4652  0.5048
52685SOL    HW268370   9.451   9.439   0.443 -2.3979 -2.1948  2.1757
52686SOL     OW68371  12.414   6.627   7.776  0.0758  0.0680  0.2390
52686SOL    HW168372  12.505   6.610   7.749 -0.0911 -1.3797  0.5008
52686SOL    HW268373  12.364   6.555   7.738 -0.9378  0.7201  0.3030
52687SOL     OW68374  11.421  10.999   0.469  0.8428  0.1803  0.1009
52687SOL    HW168375  11.371  10.983   0.550  1.1370  0.6457  0.3781
52687SOL    HW268376  11.355  11.022   0.404  0.6378  0.1583  0.2995
52688SOL     OW68377   6.142   1.226   2.353 -0.5445  0.1073  0.7477
52688SOL    HW168378   6.127   1.162   2.283 -2.7095 -1.6777  2.6778
52688SOL    HW268379   6.056   1.265   2.368  0.1566  1.3740  1.6019
52689SOL     OW68380   6.826   7.243   4.320  0.7246 -0.3467  0.1952
52689SOL    HW168381   6.910   7.230   4.275  0.5066  1.5702 -0.8995
52689SOL    HW268382   6.801   7.333   4.297 -1.4973 -0.7812  0.7289
52690SOL     OW68383   8.240   5.544   4.541 -0.0452 -0.2886 -0.4303
52690SOL    HW168384   8.209   5.620   4.491  0.5787 -1.3032 -2.4709
52690SOL    HW268385   8.208   5.559   4.630 -4.0196  0.0979 -1.7242
52691SOL     OW68386   1.293  10.792  12.816  0.3584 -0.0363 -0.3887
52691SOL    HW168387   1.326  10.718  12.867 -0.5092 -0.5090 -0.4996
52691SOL    HW268388   1.371  10.844  12.797  0.5223  1.1992  2.9757
52692SOL     OW68389   4.165   1.390   8.854 -0.2303  0.1484  0.5731
52692SOL    HW168390   4.180   1.484   8.857 -0.1242  0.1174  1.5782
52692SOL    HW268391   4.134   1.373   8.765  2.3640  0.7384 -0.5639
52693SOL     OW68392   4.596   0.138  12.818  0.1798  0.1099  0.2755
52693SOL    HW168393   4.649   0.194  12.875  0.4026  0.2234 -0.0382
52693SOL    HW268394   4.508   0.146  12.853  0.4440 -0.4605  1.1007
52694SOL     OW68395   1.775   1.853  12.876 -1.0108  0.3841  0.3389
52694SOL    HW168396   1.749   1.945  12.872 -0.8079  0.4569  0.6775
52694SOL    HW268397   1.747   1.816  12.792 -1.2405  0.7157  0.2715
52695SOL     OW68398   7.235   1.334   9.533  0.3146  0.1096  0.2451
52695SOL    HW168399   7.178   1.269   9.492  0.2701  1.2835 -1.6949
52695SOL    HW268400   7.180   1.411   9.542  0.7407  0.3016  1.2796
52696SOL     OW68401   6.552   4.271   3.760 -0.7689  0.4129  0.2264
52696SOL    HW168402   6.613   4.233   3.696 -3.4516 -1.9583 -1.1213
52696SOL    HW268403   6.534   4.359   3.726  0.6774  0.6000 -0.1529
52697SOL     OW68404  11.463   8.835   3.295 -0.1177 -0.7372  0.6578
52697SOL    HW168405  11.388   8.776   3.300 -2.2927  1.8892  1.7385
52697SOL    HW268406  11.452   8.883   3.213 -0.7365  0.9378  1.6691
52698SOL     OW68407   0.794   9.892   6.169  0.0557 -0.0475 -0.4389
52698SOL    HW168408   0.827   9.817   6.217 -1.4037 -0.8405 -0.6260
52698SOL    HW268409   0.711   9.914   6.212 -0.6538  0.0103 -1.7865
52699SOL     OW68410  10.966   8.336   8.424 -0.4643  0.0708 -0.7084
52699SOL    HW168411  10.881   8.372   8.399 -0.9845 -0.2486  0.5624
52699SOL    HW268412  10.960   8.243   8.402 -0.2872  0.1240 -0.9929
52700SOL     OW68413   7.811   7.949   2.745  0.4417  0.2400 -0.1556
52700SOL    HW168414   7.821   7.864   2.703 -0.3238 -0.6115  1.3306
52700SOL    HW268415   7.836   7.934   2.836 -2.3028  0.9086  0.7954
52701SOL     OW68416   7.105   7.001   2.794 -1.1258  0.0992  0.3356
52701SOL    HW168417   7.010   7.014   2.798 -0.9948  0.9650  0.7541
52701SOL    HW268418   7.127   6.960   2.877 -0.9408  1.2442  0.8665
52702SOL     OW68419   0.991   4.186   8.185  0.1354  0.4040 -0.0849
52702SOL    HW168420   0.935   4.109   8.191  0.2799  0.3848  1.5071
52702SOL    HW268421   0.940   4.250   8.134 -1.4636  0.4822  1.5269
52703SOL     OW68422  10.364  12.953   8.503 -0.4274  0.8969  0.2962
52703SOL    HW168423  10.330  13.016   8.440 -1.2669  0.1535 -0.0245
52703SOL    HW268424  10.459  12.964   8.499 -0.3608  0.1337 -1.9562
52704SOL     OW68425   3.208  11.329   9.601  0.2350 -0.2249  0.4652
52704SOL    HW168426   3.218  11.360   9.691 -0.9551  0.3338  0.4186
52704SOL    HW268427   3.115  11.311   9.592  0.4946 -1.2561 -0.3562
52705SOL     OW68428  12.073   9.971   8.889  0.1040  0.2351  0.2537
52705SOL    HW168429  12.151   9.997   8.938 -0.0582  1.4130 -0.0754
52705SOL    HW268430  12.065   9.877   8.904  0.5987  0.4052  1.7069
52706SOL     OW68431   6.032   5.656   6.462 -0.6510 -0.1327 -0.3171
52706SOL    HW168432   6.004   5.742   6.431  0.4328  0.2652 -0.2446
52706SOL    HW268433   6.034   5.664   6.557 -1.8526 -0.6766 -0.2222
52707SOL     OW68434   6.547   2.325   5.409 -0.1430 -0.0381 -0.1419
52707SOL    HW168435   6.540   2.232   5.389 -0.3361 -0.1586  0.4370
52707SOL    HW268436   6.541   2.329   5.505 -1.9671  0.7035 -0.2313
52708SOL     OW68437   2.712   3.175   6.671 -0.6231  0.1505  0.4531
52708SOL    HW168438   2.757   3.095   6.643  0.5851  0.9872 -0.1055
52708SOL    HW268439   2.709   3.229   6.592 -0.1622  1.2039  1.1299
52709SOL     OW68440  10.661   3.966   3.094  0.1278  0.0427 -0.1602
52709SOL    HW168441  10.595   3.926   3.151  0.6549  0.6389  0.8925
52709SOL    HW268442  10.745   3.936   3.129  0.4527 -0.2126 -1.1145
52710SOL     OW68443   9.913   0.486   1.564 -0.2771  0.8449 -0.1074
52710SOL    HW168444   9.998   0.529   1.553  0.3705 -0.1704  0.7373
52710SOL    HW268445   9.893   0.494   1.657 -0.7950  0.5166 -0.1847
52711SOL     OW68446   4.848   7.801  11.670 -0.1798 -0.2038  0.2063
52711SOL    HW168447   4.848   7.871  11.736  0.6131 -1.0422  1.1456
52711SOL    HW268448   4.922   7.746  11.695  0.3903 -0.3485 -1.6420
52712SOL     OW68449   2.613   4.822   5.642 -0.5042 -1.0918 -0.2291
52712SOL    HW168450   2.588   4.864   5.560  0.4729 -1.4561 -0.7370
52712SOL    HW268451   2.635   4.732   5.617  0.6645 -0.9639  0.2757
52713SOL     OW68452   2.110   7.323   6.335 -0.0190 -0.1257 -0.5356
52713SOL    HW168453   2.181   7.309   6.398 -0.6825 -0.1110  0.2368
52713SOL    HW268454   2.041   7.262   6.363 -0.8655  0.8746 -0.3952
52714SOL     OW68455   5.567   8.579   0.547  0.4854  0.0758  0.3637
52714SOL    HW168456   5.522   8.537   0.620 -0.7016 -0.2189 -0.5065
52714SOL    HW268457   5.581   8.669   0.577  0.1701 -0.0854  1.0164
52715SOL     OW68458   3.914  10.740   5.253 -0.0784  0.0911 -0.3065
52715SOL    HW168459   3.990  10.779   5.209  0.4476 -0.9630 -0.3470
52715SOL    HW268460   3.924  10.765   5.345 -0.0379  0.4912 -0.4160
52716SOL     OW68461   3.873   1.610   1.943 -0.1907 -0.0285  0.0813
52716SOL    HW168462   3.898   1.620   1.851  0.9339  1.5173  0.5262
52716SOL    HW268463   3.917   1.681   1.988  2.1613 -2.7126  2.3851
52717SOL     OW68464   2.045  10.245   4.642 -0.0587  0.3677 -0.2484
52717SOL    HW168465   2.034  10.150   4.648  0.8324  0.2326 -0.5956
52717SOL    HW268466   2.087  10.269   4.725  1.8497  0.1133 -1.1062
52718SOL     OW68467   7.581   5.567   3.000 -0.5579  0.1968 -0.1517
52718SOL    HW168468   7.568   5.476   3.029 -1.2036  0.3910  0.1876
52718SOL    HW268469   7.496   5.609   3.014 -0.8432  0.3741 -2.1295
52719SOL     OW68470  12.951   6.197   7.718 -0.2331  0.1672 -0.2820
52719SOL    HW168471  12.921   6.182   7.628 -1.2595 -1.6601  0.3133
52719SOL    HW268472  12.989   6.113   7.745 -1.3376  0.1978  1.4934
52720SOL     OW68473   5.390   3.799   5.053  0.2617  0.0147 -0.0491
52720SOL    HW168474   5.303   3.768   5.077 -0.3346  0.5958 -1.3401
52720SOL    HW268475   5.437   3.720   5.026 -0.4058 -0.1250 -0.8626
52721SOL     OW68476   4.990   1.997  10.733  0.4320  0.3681 -0.1745
52721SOL    HW168477   4.932   2.044  10.793  0.5918  0.3678 -0.0226
52721SOL    HW268478   5.043   2.066  10.693  1.4459  0.2143  0.8710
52722SOL     OW68479   8.934   5.477   3.021  0.1438  0.5313 -0.0367
52722SOL    HW168480   8.998   5.415   2.985 -1.8705 -0.9508 -1.3068
52722SOL    HW268481   8.926   5.452   3.114  0.9390  0.3262 -0.0210
52723SOL     OW68482   4.594  12.715   0.785 -0.0798  0.1898 -0.7472
52723SOL    HW168483   4.690  12.715   0.778 -0.1527  0.8801 -1.9186
52723SOL    HW268484   4.564  12.757   0.704 -1.3061  2.1035  0.6218
52724SOL     OW68485   5.264   1.331   3.366 -0.5638  0.1614 -0.6983
52724SOL    HW168486   5.207   1.267   3.408 -1.3305  1.8384  0.9489
52724SOL    HW268487   5.205   1.397   3.330  0.2517  1.4649  0.2448
52725SOL     OW68488   6.276   0.832   8.545 -0.9603  0.6143  0.1103
52725SOL    HW168489   6.318   0.907   8.587 -1.8005  0.9442  0.3700
52725SOL    HW268490   6.244   0.867   8.462  0.1428  0.1165 -0.5486
52726SOL     OW68491   6.129   1.606   5.229 -0.4861  0.0630  0.3130
52726SOL    HW168492   6.216   1.579   5.258  0.0086 -1.0878 -1.9942
52726SOL    HW268493   6.071   1.535   5.255 -0.6738  0.5862  1.3791
52727SOL     OW68494   0.486  12.670   9.963 -0.0690 -0.3961  0.2321
52727SOL    HW168495   0.570  12.679  10.008  0.5083 -0.7511 -0.7537
52727SOL    HW268496   0.472  12.575   9.957 -0.7742 -0.3365  0.8028
52728SOL     OW68497   0.892   7.084   1.106  0.0827  0.0938 -0.2442
52728SOL    HW168498   0.815   7.119   1.060  0.7323  0.5567 -1.0014
52728SOL    HW268499   0.941   7.162   1.133  0.6923 -0.1964 -0.4813
52729SOL     OW68500   9.503   4.682   1.727 -0.1395 -0.0889 -0.2643
52729SOL    HW168501   9.487   4.744   1.656 -1.0571 -1.4198 -1.2897
52729SOL    HW268502   9.545   4.607   1.684  0.8015 -0.2568  0.9064
52730SOL     OW68503   7.129   2.984   2.299  0.1485 -0.2884  0.4588
52730SOL    HW168504   7.166   2.905   2.338  1.1639 -0.7295 -1.2967
52730SOL    HW268505   7.081   2.953   2.222  1.3097  0.8257 -0.7835
52731SOL     OW68506  12.430   1.078   1.367  0.3575 -0.7355  0.3900
52731SOL    HW168507  12.335   1.068   1.362  0.2988  0.0382 -0.1489
52731SOL    HW268508  12.463   1.027   1.293  0.3166 -0.5038  0.2088
52732SOL     OW68509  12.391  12.380   5.276  0.2465 -0.6231 -0.3604
52732SOL    HW168510  12.306  12.335   5.276  0.3785 -0.9297  0.8878
52732SOL    HW268511  12.425  12.367   5.188 -0.5144 -1.4491 -0.5510
52733SOL     OW68512   0.315  11.892   1.539 -0.0834 -0.3859 -0.5121
52733SOL    HW168513   0.402  11.854   1.530 -0.2205 -1.0901  0.8486
52733SOL    HW268514   0.257  11.816   1.553 -1.1044 -0.0307 -2.4327
52734SOL     OW68515   3.620   1.869   1.402  0.3670  0.1590  0.5090
52734SOL    HW168516   3.696   1.816   1.426  0.2291 -1.2518 -1.8210
52734SOL    HW268517   3.581   1.895   1.485  1.7764 -1.5000  1.7488
52735SOL     OW68518   8.716   9.416   7.538 -0.0032  0.5916 -0.2043
52735SOL    HW168519   8.622   9.422   7.521  0.0075 -0.7327 -0.8452
52735SOL    HW268520   8.743   9.507   7.552 -1.4040  0.9793  0.2012
52736SOL     OW68521  11.821   9.232   5.339 -0.0829  0.4776  0.1560
52736SOL    HW168522  11.911   9.209   5.317 -0.0505  1.4503 -0.8382
52736SOL    HW268523  11.793   9.165   5.401  0.4369 -1.4236 -1.5506
52737SOL     OW68524   1.250   4.488  10.222 -0.0492 -0.0630 -0.2016
52737SOL    HW168525   1.163   4.494  10.185 -0.1437 -0.1827 -0.0027
52737SOL    HW268526   1.253   4.557  10.289 -0.2698 -0.5678  0.3425
52738SOL     OW68527  11.749   2.697   7.819  0.1460 -0.0429  0.0062
52738SOL    HW168528  11.791   2.611   7.819 -0.9619 -0.6005 -0.1922
52738SOL    HW268529  11.675   2.688   7.759 -1.5400  0.2517  1.9054
52739SOL     OW68530   4.429   0.102   1.473 -0.0301  0.4508 -0.2950
52739SOL    HW168531   4.385   0.175   1.517 -0.4816  0.2433 -0.3933
52739SOL    HW268532   4.368   0.076   1.404  0.5489  0.5906 -0.8672
52740SOL     OW68533  11.025   2.089   6.732  0.1090 -0.0431 -0.3698
52740SOL    HW168534  11.013   2.042   6.650  1.5992 -0.1354 -0.5630
52740SOL    HW268535  10.997   2.179   6.713  0.5289 -0.0438 -1.0096
52741SOL     OW68536   8.174   1.439   3.940  0.2330  0.5993  0.5195
52741SOL    HW168537   8.089   1.395   3.945  0.1678  0.7972  1.2984
52741SOL    HW268538   8.231   1.390   3.999  0.0767  1.7077  1.6348
52742SOL     OW68539   5.953   2.760   0.996 -0.1632  0.4147 -0.0737
52742SOL    HW168540   5.859   2.776   0.994 -0.2301 -0.0170 -1.2286
52742SOL    HW268541   5.990   2.831   0.943  0.0643 -0.0193 -0.4936
52743SOL     OW68542   1.335   6.280   2.741  0.2113 -0.3170 -0.6885
52743SOL    HW168543   1.345   6.375   2.736 -0.5207 -0.1688  0.4482
52743SOL    HW268544   1.424   6.247   2.730  0.4820  0.4963 -1.0710
52744SOL     OW68545   9.788  10.079   3.348  0.7685 -0.2200  0.2276
52744SOL    HW168546   9.707  10.078   3.399  1.4108 -0.0805  1.2737
52744SOL    HW268547   9.779  10.155   3.291 -0.4834 -1.0744 -0.7743
52745SOL     OW68548   8.378   6.118   5.545  0.4766 -0.0052 -0.0389
52745SOL    HW168549   8.350   6.087   5.631 -0.7035 -1.3972 -0.8677
52745SOL    HW268550   8.420   6.202   5.562 -0.7862  0.3227  1.7620
52746SOL     OW68551   1.589   6.266   7.671 -0.1580  0.0715 -0.0131
52746SOL    HW168552   1.495   6.285   7.672  0.1253  1.5911  1.0080
52746SOL    HW268553   1.607   6.229   7.758  0.6877  2.7956  1.0836
52747SOL     OW68554   7.543   0.888  10.280 -0.4837  0.2779 -0.0794
52747SOL    HW168555   7.571   0.813  10.227 -1.1058  0.0262 -0.0588
52747SOL    HW268556   7.460   0.916  10.241 -0.0582  1.2212 -0.3426
52748SOL     OW68557  10.394   5.056   9.381  0.3567 -0.0527  0.5260
52748SOL    HW168558  10.451   5.077   9.308  0.7410 -1.0723  0.5102
52748SOL    HW268559  10.378   5.139   9.425  0.2847  0.5375 -0.5931
52749SOL     OW68560  12.601   9.672  10.248 -0.1077  0.0569  0.3568
52749SOL    HW168561  12.673   9.709  10.199  0.8012 -0.7931  1.0064
52749SOL    HW268562  12.584   9.735  10.318 -0.7406  0.7835 -0.4363
52750SOL     OW68563   6.280  10.930   9.789 -0.0415 -0.0055 -0.2348
52750SOL    HW168564   6.329  10.876   9.851 -0.0298 -0.9627 -1.0464
52750SOL    HW268565   6.301  11.020   9.813  2.1592 -0.3776 -0.5776
52751SOL     OW68566   0.977  10.462   5.252 -0.0678 -0.2206 -0.0068
52751SOL    HW168567   1.073  10.453   5.252 -0.0943 -0.5765 -0.6361
52751SOL    HW268568   0.960  10.537   5.309  0.4517 -1.3469  1.6712
52752SOL     OW68569   4.468   6.345   1.646 -0.1044  0.0079 -0.2044
52752SOL    HW168570   4.411   6.419   1.665 -1.0021 -0.5123 -0.8436
52752SOL    HW268571   4.557   6.380   1.658 -0.4981  0.1901  3.2196
52753SOL     OW68572   0.715   6.370   7.595 -0.1880 -0.0050 -0.1384
52753SOL    HW168573   0.773   6.445   7.591  1.0915 -0.9083  0.7260
52753SOL    HW268574   0.729   6.333   7.682 -1.9501 -0.3433  0.0406
52754SOL     OW68575   0.032   7.386  11.510 -0.3909 -0.0655 -0.3872
52754SOL    HW168576   0.054   7.464  11.459  1.5893  0.0333  0.5259
52754SOL    HW268577  -0.008   7.420  11.590 -0.1770 -0.0206 -0.2989
52755SOL     OW68578   8.440  12.166  12.380  0.1394  0.5173 -0.0519
52755SOL    HW168579   8.401  12.079  12.371  0.8341 -0.0205  1.7886
52755SOL    HW268580   8.496  12.176  12.303  0.5879 -0.9504  0.0609
52756SOL     OW68581  10.091   6.372  10.175  0.5418 -0.7885  0.4539
52756SOL    HW168582  10.107   6.455  10.130  2.8011 -1.7215 -0.6454
52756SOL    HW268583  10.026   6.393  10.242  0.6879  1.7453 -0.0857
52757SOL     OW68584   1.968   9.118  11.398 -0.5690  0.1638  0.2508
52757SOL    HW168585   1.982   9.047  11.335 -1.0377  0.2195  0.0745
52757SOL    HW268586   1.930   9.075  11.475 -1.4819  0.3006 -0.1055
52758SOL     OW68587   8.716   4.331   1.353  0.0069  0.4159 -0.2462
52758SOL    HW168588   8.728   4.355   1.261 -2.0768  3.4697  0.1443
52758SOL    HW268589   8.704   4.414   1.399 -2.0698 -1.1101  2.2900
52759SOL     OW68590   8.930   3.976   3.429 -0.2635  0.1660  0.1098
52759SOL    HW168591   8.883   3.931   3.359 -0.2905  0.4502 -0.0583
52759SOL    HW268592   8.934   3.913   3.500  2.8415 -1.5341 -1.3473
52760SOL     OW68593   6.212   9.643   5.547 -0.0722  0.3240  0.1551
52760SOL    HW168594   6.271   9.576   5.582  0.6387 -0.4036 -2.2354
52760SOL    HW268595   6.139   9.594   5.508  0.2327  0.9014 -1.2313
52761SOL     OW68596   9.034   2.626   0.255  0.2409 -0.6433 -0.8951
52761SOL    HW168597   9.122   2.661   0.266  0.1292 -0.4381 -0.6579
52761SOL    HW268598   9.037   2.541   0.299  0.6468 -1.1632 -1.8757
52762SOL     OW68599   5.176   4.734   0.572  0.3748  0.4557  0.8243
52762SOL    HW168600   5.247   4.769   0.627  0.7603  0.4941  0.3116
52762SOL    HW268601   5.200   4.761   0.483 -0.3522  0.5697  0.6628
52763SOL     OW68602   7.418   3.439   5.765 -0.2544  0.5768  0.0827
52763SOL    HW168603   7.400   3.346   5.755 -1.4803  0.7831  0.1859
52763SOL    HW268604   7.352   3.469   5.828  0.2846  1.4620  0.2392
52764SOL     OW68605   5.126  10.300  11.917  0.0981  0.6480  0.4779
52764SOL    HW168606   5.074  10.246  11.976  2.2262 -0.3962  1.5106
52764SOL    HW268607   5.087  10.286  11.831 -1.0100 -0.4806  1.1255
52765SOL     OW68608   4.617   8.297   5.493 -0.7297  0.5335 -0.1972
52765SOL    HW168609   4.607   8.208   5.529  0.4078 -0.1751 -1.5633
52765SOL    HW268610   4.622   8.353   5.571 -0.1897 -0.7367  0.7209
52766SOL     OW68611  12.777   1.474   5.678 -0.4018 -0.3734 -0.0115
52766SOL    HW168612  12.799   1.561   5.714  1.0903 -0.9606  0.5951
52766SOL    HW268613  12.768   1.419   5.756 -1.1298 -0.8099 -0.4048
52767SOL     OW68614  11.955   7.630   6.528  0.0023  0.2018 -0.0547
52767SOL    HW168615  11.906   7.582   6.461  0.7719  0.1509 -0.6018
52767SOL    HW268616  11.899   7.705   6.549 -0.8704 -0.5182  0.2642
52768SOL     OW68617   5.255   8.462   2.274  0.8043  0.2960  0.3624
52768SOL    HW168618   5.247   8.458   2.369 -1.9779 -0.0937  0.1896
52768SOL    HW268619   5.247   8.555   2.253  1.0597  0.3473  0.4939
52769SOL     OW68620   4.371   3.528   3.973 -0.3625 -0.4817  0.5523
52769SOL    HW168621   4.294   3.566   4.016  0.4927 -0.0154  1.7335
52769SOL    HW268622   4.435   3.517   4.044  1.2983  0.7539 -0.6791
52770SOL     OW68623   8.776   7.182   4.480 -0.4867  0.5856 -0.0611
52770SOL    HW168624   8.811   7.103   4.523  0.2017  0.3560 -1.0118
52770SOL    HW268625   8.826   7.254   4.519 -0.1387  0.4158 -0.1886
52771SOL     OW68626   7.894   5.520   3.896  0.0483 -0.0750  0.4522
52771SOL    HW168627   7.905   5.429   3.868 -0.0455  0.4115 -1.2896
52771SOL    HW268628   7.803   5.525   3.925 -0.2350 -0.3372 -0.3438
52772SOL     OW68629   8.974   8.128   9.163  0.1776  0.0971  0.5079
52772SOL    HW168630   9.016   8.210   9.191  1.8075 -1.1538  2.0051
52772SOL    HW268631   9.026   8.099   9.088  0.1110  0.0429  0.4835
52773SOL     OW68632   1.529   0.903   1.257  0.1012 -0.1529  0.1240
52773SOL    HW168633   1.559   0.822   1.299 -0.5774  0.2844  1.4938
52773SOL    HW268634   1.453   0.876   1.205  0.1110 -0.4723  0.2693
52774SOL     OW68635   1.626   3.191   4.399  0.6803  0.3209  0.2982
52774SOL    HW168636   1.568   3.165   4.470  1.0257 -1.0334  0.0996
52774SOL    HW268637   1.570   3.245   4.342 -0.0143  0.1216  0.7775
52775SOL     OW68638   0.290   2.655   8.501 -0.0416  0.1587 -0.1893
52775SOL    HW168639   0.199   2.653   8.530  0.1252  1.3915  0.5059
52775SOL    HW268640   0.286   2.692   8.413 -0.3353 -1.3260 -0.8292
52776SOL     OW68641  12.639   2.675   7.323  0.1022 -0.0187  0.3504
52776SOL    HW168642  12.730   2.661   7.348  0.3639 -0.1950 -0.6636
52776SOL    HW268643  12.633   2.768   7.302 -0.3995  0.3865  2.1320
52777SOL     OW68644   6.174  10.939  11.467 -1.0292  0.1878 -0.3162
52777SOL    HW168645   6.201  10.854  11.432 -1.7654  0.0317 -0.5228
52777SOL    HW268646   6.254  10.977  11.503 -0.5710 -0.3292 -0.7759
52778SOL     OW68647   7.027  12.591  11.753  0.1997  0.3490  0.5744
52778SOL    HW168648   6.954  12.550  11.800 -0.6276  2.1580  0.9345
52778SOL    HW268649   7.082  12.517  11.726 -0.9427 -0.9520  1.6454
52779SOL     OW68650   9.779   6.914   9.553 -0.3126 -0.3716 -0.1854
52779SOL    HW168651   9.707   6.948   9.500 -1.1098  1.0328  1.6677
52779SOL    HW268652   9.835   6.868   9.490 -1.7849  0.1751 -2.0148
52780SOL     OW68653  10.250  10.387   2.930 -0.6657 -0.2512  0.5821
52780SOL    HW168654  10.224  10.334   3.005  1.3847  0.2006  1.6736
52780SOL    HW268655  10.305  10.329   2.877  0.3847  0.3052  1.0299
52781SOL     OW68656   6.225   7.263   5.530 -0.1968  0.2439  0.0284
52781SOL    HW168657   6.212   7.251   5.436  1.0678  1.1778 -0.2982
52781SOL    HW268658   6.207   7.355   5.545 -1.6144 -0.1542  0.9622
52782SOL     OW68659   4.105   9.937   4.184  0.3331 -0.4139 -0.1680
52782SOL    HW168660   4.161   9.867   4.151 -0.4940 -1.0702 -0.2326
52782SOL    HW268661   4.155   9.979   4.254  0.9331 -0.9140 -0.2946
52783SOL     OW68662   9.513   1.016   5.677  0.5968  0.7985 -0.0056
52783SOL    HW168663   9.577   0.992   5.744  1.3456  2.6762 -0.0006
52783SOL    HW268664   9.564   1.053   5.606 -0.4386  1.8826 -0.2107
52784SOL     OW68665   0.041   6.437   1.060  0.1066 -0.2234  0.3496
52784SOL    HW168666   0.065   6.382   1.135  0.2923 -1.9140 -0.8863
52784SOL    HW268667   0.079   6.522   1.079 -0.6721 -0.3061  2.6238
52785SOL     OW68668   3.009   9.196  11.493  0.4732  0.2539 -0.6702
52785SOL    HW168669   3.074   9.132  11.522  0.6982  0.4458 -0.7452
52785SOL    HW268670   3.009   9.188  11.397  1.9748  1.7684 -0.8335
52786SOL     OW68671   5.756   4.059   0.481  0.0430  0.1270  0.3494
52786SOL    HW168672   5.758   4.023   0.393 -0.5065 -0.2682  0.4913
52786SOL    HW268673   5.705   4.140   0.473 -3.0665 -1.6275  0.8728
52787SOL     OW68674   1.541   6.571   4.228 -0.1776 -0.1518 -0.3524
52787SOL    HW168675   1.617   6.523   4.259  0.6710  1.0705 -0.4811
52787SOL    HW268676   1.477   6.565   4.299 -1.1074 -3.5158 -1.2812
52788SOL     OW68677  12.274   3.550   8.088 -0.1240  0.8684 -0.3697
52788SOL    HW168678  12.344   3.601   8.130  1.5443 -1.1830 -0.4846
52788SOL    HW268679  12.320   3.491   8.029 -1.9913 -0.4414 -0.5909
52789SOL     OW68680   1.474   9.727   1.139 -0.0811 -0.2219  0.0421
52789SOL    HW168681   1.463   9.644   1.092 -4.8331  0.1249  0.0508
52789SOL    HW268682   1.442   9.708   1.228  0.9125  1.1179  0.7158
52790SOL     OW68683   9.781   5.318   9.641 -0.3771 -0.0603  0.2033
52790SOL    HW168684   9.775   5.345   9.549 -1.0578  0.2886  0.3435
52790SOL    HW268685   9.875   5.316   9.659 -0.2530  0.3852 -0.3568
52791SOL     OW68686   8.766   6.456   8.750 -0.8376  0.0403  0.2877
52791SOL    HW168687   8.796   6.537   8.709 -0.8578  0.8521  1.8016
52791SOL    HW268688   8.712   6.414   8.683 -0.9270  1.3352 -0.4933
52792SOL     OW68689   2.702   1.155   3.259 -0.1509  0.7326 -0.2177
52792SOL    HW168690   2.726   1.219   3.325 -1.5688  0.4483  0.6239
52792SOL    HW268691   2.661   1.206   3.189 -1.9543  0.7345  0.7813
52793SOL     OW68692   2.025   9.575   4.264  0.0816 -0.3529  0.2841
52793SOL    HW168693   1.937   9.612   4.259  1.0206  2.5748  2.4540
52793SOL    HW268694   2.076   9.624   4.199  0.8007  0.5192  1.4586
52794SOL     OW68695   8.317   0.393  12.812  0.1698  0.2881  0.5162
52794SOL    HW168696   8.370   0.406  12.734 -1.0166  0.0645 -0.3541
52794SOL    HW268697   8.328   0.301  12.834  2.0613  0.7525  1.8279
52795SOL     OW68698  12.218   4.717  10.866  0.4959 -0.1035  0.4787
52795SOL    HW168699  12.299   4.765  10.885 -0.4646  1.8550 -0.1311
52795SOL    HW268700  12.248   4.633  10.830  2.2497  0.3741  0.7429
52796SOL     OW68701   5.069   0.159   0.151  0.4160 -0.2287  0.4487
52796SOL    HW168702   5.038   0.246   0.180 -1.4072 -0.4731 -0.6369
52796SOL    HW268703   5.011   0.136   0.079  1.0232 -2.2727  0.5667
52797SOL     OW68704   5.871   1.976   7.639  0.4496  0.0477  0.1654
52797SOL    HW168705   5.875   1.987   7.734  3.0616 -0.7708  0.2116
52797SOL    HW268706   5.856   2.065   7.606  2.9097  0.9410  1.2530
52798SOL     OW68707  10.173   0.927   7.273 -0.2414 -0.3482 -0.4567
52798SOL    HW168708  10.242   0.953   7.333  0.1130  1.2301 -1.4817
52798SOL    HW268709  10.206   0.849   7.230 -0.4008 -1.3657  1.1631
52799SOL     OW68710  12.580  12.004   4.802  0.2460  0.0716  0.2161
52799SOL    HW168711  12.561  12.063   4.729 -0.5723 -0.4649 -0.0235
52799SOL    HW268712  12.646  12.050   4.854 -0.9349  1.5603  0.4727
52800SOL     OW68713   3.387   0.309   1.281 -0.2628  0.0529 -0.5562
52800SOL    HW168714   3.364   0.333   1.191  0.4869 -1.2904 -1.1442
52800SOL    HW268715   3.479   0.331   1.289  0.0188 -1.0247 -0.5878
52801SOL     OW68716   7.256  11.364  10.849  0.3893 -0.0309 -0.1168
52801SOL    HW168717   7.246  11.406  10.763 -0.9920  0.0426  0.0715
52801SOL    HW268718   7.282  11.274  10.828  0.1413  0.0079 -0.6080
52802SOL     OW68719   9.666  12.822   6.925  0.0075 -0.0840  0.7108
52802SOL    HW168720   9.673  12.740   6.875 -1.5186  0.2132 -0.0355
52802SOL    HW268721   9.747  12.869   6.904  0.4199 -0.9476  0.3065
52803SOL     OW68722   5.964   3.015   6.650 -0.4767  0.4550  0.2141
52803SOL    HW168723   5.927   2.998   6.563 -2.9389  3.0402  0.6103
52803SOL    HW268724   6.047   3.061   6.632 -0.0551 -0.6309 -0.7242
52804SOL     OW68725   2.695   9.239   4.469  0.7714  0.1368  0.0081
52804SOL    HW168726   2.674   9.332   4.461 -0.1544 -0.2385 -2.5241
52804SOL    HW268727   2.778   9.238   4.516  0.2993  2.1699  1.0018
52805SOL     OW68728   1.057   7.324   8.755  0.4182  0.2173 -0.4563
52805SOL    HW168729   1.040   7.292   8.666  1.2408  0.7880 -0.8402
52805SOL    HW268730   1.019   7.412   8.756 -1.4655 -0.5606  0.4562
52806SOL     OW68731   0.172   1.633   7.493  0.2413 -0.2704  0.4826
52806SOL    HW168732   0.184   1.698   7.562 -3.3394 -0.2134  1.2010
52806SOL    HW268733   0.216   1.554   7.527  0.6521  0.4481  1.6781
52807SOL     OW68734   2.053  12.001   3.492 -0.7488 -0.0992 -1.1240
52807SOL    HW168735   1.999  12.069   3.532 -0.4842  0.5547 -1.8414
52807SOL    HW268736   2.143  12.030   3.507 -0.6291 -0.3900 -1.2713
52808SOL     OW68737   0.701   6.092   5.096 -0.1698  0.2086  0.0918
52808SOL    HW168738   0.733   6.182   5.091  1.7889 -0.3473  1.5335
52808SOL    HW268739   0.633   6.095   5.164  0.4278  0.4728  0.6924
52809SOL     OW68740   1.141   6.805   4.236  0.1607  0.1773 -0.8839
52809SOL    HW168741   1.069   6.769   4.184 -0.6134  2.5164 -1.5800
52809SOL    HW268742   1.101   6.826   4.320  0.4457 -0.0340 -0.6955
52810SOL     OW68743   2.418   4.239   9.760 -0.3708 -0.2804 -0.0653
52810SOL    HW168744   2.469   4.159   9.745 -1.0661 -0.4613 -1.5702
52810SOL    HW268745   2.458   4.305   9.703 -0.8539 -0.0143 -0.1073
52811SOL     OW68746   9.402  12.103   7.572  0.2572  0.2468 -0.1045
52811SOL    HW168747   9.459  12.123   7.646 -0.8383  0.6622  0.6605
52811SOL    HW268748   9.324  12.157   7.587 -0.6943 -0.9362 -0.6564
52812SOL     OW68749   6.874   6.807   3.413 -0.2228 -1.0297 -0.5724
52812SOL    HW168750   6.821   6.733   3.381 -0.4939 -1.0753 -0.0388
52812SOL    HW268751   6.852   6.813   3.506 -0.7278  0.1575 -0.7437
52813SOL     OW68752   6.365   7.690   6.625  0.2826 -0.3175  0.1494
52813SOL    HW168753   6.288   7.664   6.675  0.5360 -2.0792 -0.3105
52813SOL    HW268754   6.414   7.609   6.614  1.7962  0.6273 -0.2738
52814SOL     OW68755   1.807  10.029   2.769 -0.1213 -0.2838  0.8173
52814SOL    HW168756   1.897  10.058   2.781 -0.3504  1.3262 -0.8794
52814SOL    HW268757   1.771  10.025   2.857  0.9640  1.2784  1.3765
52815SOL     OW68758  10.620  12.759   4.193 -0.2344 -0.7066  0.1625
52815SOL    HW168759  10.567  12.683   4.173 -0.8114 -0.1031 -0.6606
52815SOL    HW268760  10.558  12.831   4.203  0.2509 -0.4389  1.5104
52816SOL     OW68761   8.629  10.823  10.099  0.1211 -0.5245  0.7030
52816SOL    HW168762   8.675  10.836  10.016  0.6187  0.7630  1.1600
52816SOL    HW268763   8.566  10.896  10.103  0.3768 -0.3397  1.6265
52817SOL     OW68764  10.897  11.112   9.995  0.3542  0.1179 -0.3214
52817SOL    HW168765  10.939  11.186  10.039  0.4325 -0.3724  0.4370
52817SOL    HW268766  10.804  11.121  10.016  0.1837  0.7007 -1.2681
52818SOL     OW68767   1.515   8.036  11.238  0.4380 -0.2526  0.0060
52818SOL    HW168768   1.479   7.971  11.299 -0.4864  0.7787  0.5984
52818SOL    HW268769   1.538   7.985  11.159  1.4632 -1.5800  1.0965
52819SOL     OW68770   9.620  11.704   2.778 -0.5846 -0.7329 -0.0314
52819SOL    HW168771   9.544  11.665   2.735  0.5145 -1.2554 -1.5806
52819SOL    HW268772   9.681  11.632   2.789  0.7882  0.1657 -1.3755
52820SOL     OW68773   0.374   9.052   8.982 -0.6051 -0.3389 -0.4591
52820SOL    HW168774   0.328   9.131   8.953 -0.9632  0.0011  0.9380
52820SOL    HW268775   0.369   8.993   8.907 -0.3277  0.9504 -1.5410
52821SOL     OW68776   2.180   9.633   5.056  0.1134  0.0173 -0.0852
52821SOL    HW168777   2.162   9.609   4.965  1.3801 -1.1416 -0.0689
52821SOL    HW268778   2.109   9.593   5.106 -0.4006  0.3705 -0.5229
52822SOL     OW68779   2.927   6.515   4.967 -0.5352  0.4250 -0.5248
52822SOL    HW168780   2.987   6.452   5.008 -0.3665  0.6569 -0.4159
52822SOL    HW268781   2.846   6.465   4.954 -1.4426  0.9717  2.3155
52823SOL     OW68782   1.593   8.366   9.356 -0.6231  0.2183 -0.3447
52823SOL    HW168783   1.628   8.422   9.426  0.0663 -1.7481  0.9600
52823SOL    HW268784   1.502   8.395   9.347 -0.8100  0.3876  1.5690
52824SOL     OW68785   0.965  12.029  12.044  0.1013 -0.0110  0.0363
52824SOL    HW168786   0.871  12.016  12.034  0.3486 -0.9227 -1.4471
52824SOL    HW268787   0.973  12.108  12.097 -1.4889 -2.0044  3.5497
52825SOL     OW68788   1.859   5.973   1.819 -0.0792 -0.1027  0.1507
52825SOL    HW168789   1.922   6.026   1.868  0.1003 -1.6880  1.7073
52825SOL    HW268790   1.774   5.994   1.857  0.0375 -1.1850  1.0584
52826SOL     OW68791   1.559   1.957   5.275 -0.2206 -0.3208 -0.6527
52826SOL    HW168792   1.505   1.976   5.199 -2.2819 -2.0050  0.2851
52826SOL    HW268793   1.555   2.036   5.329  0.7840  0.6618 -1.9686
52827SOL     OW68794   6.824  12.608   2.241 -0.5474 -0.1244 -0.7820
52827SOL    HW168795   6.887  12.668   2.201 -3.6101  1.9484 -3.0835
52827SOL    HW268796   6.849  12.522   2.208  1.1240  0.5841 -1.5037
52828SOL     OW68797   8.624  12.056   5.577 -0.0721 -0.1174 -0.3228
52828SOL    HW168798   8.608  12.107   5.656 -0.2299 -1.2714  0.4121
52828SOL    HW268799   8.718  12.037   5.579  0.2433  1.2337 -1.2863
52829SOL     OW68800   2.787   7.746   7.541 -0.7051  0.5993 -0.6376
52829SOL    HW168801   2.878   7.759   7.516  0.3611 -2.6870  0.8938
52829SOL    HW268802   2.751   7.689   7.473 -0.6079 -0.6994  0.3626
52830SOL     OW68803  10.812   2.736   2.159  0.7158  0.2614 -0.5661
52830SOL    HW168804  10.804   2.719   2.065  0.2622 -2.0338 -0.1617
52830SOL    HW268805  10.868   2.665   2.191  2.7634  2.2668  0.5943
52831SOL     OW68806   1.254   4.241   6.035 -0.1592 -0.2983  0.0042
52831SOL    HW168807   1.225   4.307   6.098  0.7090 -0.2598  0.3754
52831SOL    HW268808   1.304   4.179   6.087 -1.5690 -1.6585 -0.2159
52832SOL     OW68809   8.760   2.725   5.894  0.0299  0.6843  0.3729
52832SOL    HW168810   8.774   2.817   5.918  0.0167  0.6992  0.3228
52832SOL    HW268811   8.846   2.695   5.865  0.0070  0.7141  0.2761
52833SOL     OW68812   0.898   1.673  11.905 -0.4904 -0.1388 -0.4522
52833SOL    HW168813   0.908   1.682  12.000 -1.0261 -0.4061 -0.3652
52833SOL    HW268814   0.921   1.759  11.870 -1.4964  0.3365  0.0193
52834SOL     OW68815   8.734   2.687   7.706  0.8265 -0.1864  0.0500
52834SOL    HW168816   8.668   2.629   7.742 -0.0830  1.6983  1.6260
52834SOL    HW268817   8.805   2.686   7.770  0.7135  0.5534  0.2004
52835SOL     OW68818   5.823   7.219   0.785  0.7077 -0.1324 -0.9280
52835SOL    HW168819   5.828   7.311   0.759  1.2422 -0.1295 -0.8220
52835SOL    HW268820   5.739   7.211   0.831  0.4445  0.1950 -1.3456
52836SOL     OW68821   6.291  11.374  10.263  0.4094 -0.6480 -0.0750
52836SOL    HW168822   6.246  11.432  10.324  0.1697 -1.7277  0.8057
52836SOL    HW268823   6.253  11.396  10.178  0.8746  1.0003  0.1044
52837SOL     OW68824  10.031  11.647   1.408  0.0459 -0.0384  0.0662
52837SOL    HW168825   9.963  11.590   1.443  0.5951  0.0674  1.3675
52837SOL    HW268826  10.098  11.650   1.476  0.1716  1.9208 -0.0699
52838SOL     OW68827   8.035  10.972   3.820  0.5235 -0.4900 -0.4652
52838SOL    HW168828   7.982  11.048   3.797 -0.7135 -0.7807  1.2423
52838SOL    HW268829   8.115  11.008   3.858  1.7271 -0.0431 -3.1574
52839SOL     OW68830   6.875  11.205   5.779  0.0161  0.1996 -0.1720
52839SOL    HW168831   6.788  11.225   5.812  0.5592  0.3538  1.2060
52839SOL    HW268832   6.865  11.204   5.683 -1.3559  0.7988 -0.0460
52840SOL     OW68833   9.272   1.539   5.202  0.0086  0.1972 -0.8837
52840SOL    HW168834   9.304   1.484   5.130  0.1831  2.1543 -2.3822
52840SOL    HW268835   9.177   1.537   5.194 -0.1526 -1.7500  0.5972
52841SOL     OW68836   6.825   9.765   5.843  0.2549  0.3162  0.0490
52841SOL    HW168837   6.804   9.690   5.899 -1.0468  0.0421 -0.7669
52841SOL    HW268838   6.905   9.740   5.797  0.5128 -0.0551  0.6942
52842SOL     OW68839   1.255   7.015   8.954  0.0079  0.2110  0.5054
52842SOL    HW168840   1.226   6.947   9.015 -0.2068  0.4092  0.6264
52842SOL    HW268841   1.191   7.011   8.882 -0.2657  0.5779  0.7236
52843SOL     OW68842   5.974  11.852   1.468 -0.3525  0.1764 -0.0221
52843SOL    HW168843   5.886  11.836   1.503 -0.4465 -0.1226 -0.3826
52843SOL    HW268844   5.989  11.779   1.409  0.5871 -0.3634  0.8630
52844SOL     OW68845   7.831   6.209   3.720 -0.5123 -0.2049  0.5626
52844SOL    HW168846   7.791   6.123   3.734  0.0059 -0.5169  0.1817
52844SOL    HW268847   7.923   6.189   3.698 -0.2791  0.4691  0.9093
52845SOL     OW68848   6.081   7.844   9.651  0.5236 -0.7810 -0.1865
52845SOL    HW168849   6.038   7.913   9.703  0.3674 -1.4890  0.6477
52845SOL    HW268850   6.088   7.770   9.711  1.1804 -1.3175 -0.9101
52846SOL     OW68851   9.247   8.132   9.660  0.0370 -0.0993  0.7039
52846SOL    HW168852   9.252   8.041   9.689 -0.4404 -0.5225 -0.4972
52846SOL    HW268853   9.157   8.158   9.678 -0.0098 -0.0720  0.4307
52847SOL     OW68854   2.915   6.416   2.630  0.3952 -0.2156 -0.3252
52847SOL    HW168855   2.846   6.403   2.695 -0.5837 -0.3896 -1.3643
52847SOL    HW268856   2.947   6.504   2.647 -1.2318  0.5187 -0.8530
52848SOL     OW68857   7.065   8.702   2.144 -0.3395 -0.1713  0.1131
52848SOL    HW168858   7.074   8.608   2.158 -1.2860 -0.1922  0.7003
52848SOL    HW268859   6.979   8.712   2.103  0.2934  0.3389 -1.1353
52849SOL     OW68860   9.424   6.750   1.769 -0.0907  0.2867 -0.1054
52849SOL    HW168861   9.398   6.664   1.803  1.2273 -0.1126 -0.0659
52849SOL    HW268862   9.458   6.732   1.682  0.8621  0.6693  0.1809
52850SOL     OW68863   2.575   0.493   7.384  0.5215 -0.2667  0.2067
52850SOL    HW168864   2.530   0.576   7.399  1.1163  0.1585 -0.2642
52850SOL    HW268865   2.644   0.515   7.322  0.1232 -1.3028 -0.6294
52851SOL     OW68866   4.912   8.409   4.845 -0.0516  0.1994  0.0506
52851SOL    HW168867   4.934   8.318   4.828  1.5981  0.0588  2.5749
52851SOL    HW268868   4.823   8.419   4.809 -0.3906 -2.4500 -0.0316
52852SOL     OW68869   6.931  11.982   3.505  0.6040 -0.4999  0.4419
52852SOL    HW168870   6.911  12.074   3.518  0.8283 -0.5006  0.8059
52852SOL    HW268871   6.986  11.980   3.427  0.3365 -0.3579  0.2514
52853SOL     OW68872  10.114   2.767   7.060  0.0245 -0.6953 -0.0887
52853SOL    HW168873  10.070   2.821   7.126 -1.0304 -1.8087  0.1585
52853SOL    HW268874  10.084   2.678   7.078  0.3068 -1.1306 -1.6223
52854SOL     OW68875   9.287  12.034   8.632  0.3339 -0.0223 -0.5082
52854SOL    HW168876   9.353  11.965   8.642  1.4167  1.2574  1.9213
52854SOL    HW268877   9.302  12.068   8.543  0.7686 -1.8622 -1.1860
52855SOL     OW68878   3.857   4.102   6.595 -0.0829  0.7408 -0.4132
52855SOL    HW168879   3.833   4.194   6.592 -2.6510  0.1328 -1.6437
52855SOL    HW268880   3.916   4.090   6.521  0.8612  1.4984  0.1901
52856SOL     OW68881   4.887   1.666   7.134  0.2967  0.1142 -0.6426
52856SOL    HW168882   4.969   1.635   7.173  0.6507  0.3794 -1.1547
52856SOL    HW268883   4.888   1.629   7.045  0.3395  0.9258 -0.9885
52857SOL     OW68884   3.528   1.993   2.943  0.4080 -0.1289  0.5860
52857SOL    HW168885   3.547   2.076   2.985 -1.7090 -0.7157  2.9985
52857SOL    HW268886   3.490   2.017   2.859 -0.0523  1.3578  1.1867
52858SOL     OW68887   3.279  12.967  12.211  0.1111 -0.1806 -0.3150
52858SOL    HW168888   3.313  12.884  12.245  1.6609  0.4906 -0.1289
52858SOL    HW268889   3.306  13.032  12.276  0.2295  0.6650 -1.1855
52859SOL     OW68890  10.980   4.411   5.474 -0.6357 -0.3007 -0.3730
52859SOL    HW168891  10.950   4.327   5.509  1.4690 -1.2497 -0.7221
52859SOL    HW268892  11.045   4.388   5.408 -0.3961  1.6017 -0.8521
52860SOL     OW68893   3.351   9.288   4.774  0.0415 -0.2126 -0.3192
52860SOL    HW168894   3.353   9.351   4.846  0.7310 -1.6933  1.0285
52860SOL    HW268895   3.327   9.205   4.815 -1.7709 -0.6916 -2.1873
52861SOL     OW68896  11.955   1.251  12.338 -0.6524  0.0697  0.0216
52861SOL    HW168897  11.888   1.188  12.364  0.4771 -1.0100  0.4103
52861SOL    HW268898  11.929   1.332  12.381 -1.8143 -0.2737 -0.0003
52862SOL     OW68899   0.543   0.893  11.532  0.0272  0.2212  0.4276
52862SOL    HW168900   0.560   0.801  11.553  0.3291 -0.0358 -0.8492
52862SOL    HW268901   0.460   0.891  11.485 -0.3694  0.7110  1.0919
52863SOL     OW68902   4.980   7.153   9.383  0.4367 -0.2552  0.1866
52863SOL    HW168903   5.008   7.093   9.314 -0.7825 -0.6219 -0.0177
52863SOL    HW268904   5.039   7.228   9.376  2.4761 -1.7076  0.9187
52864SOL     OW68905   1.500   5.945   3.359 -0.0537 -0.5849  0.1658
52864SOL    HW168906   1.581   5.954   3.410  0.1871  0.6926 -0.3987
52864SOL    HW268907   1.503   5.856   3.326  0.2129 -1.1632  1.6526
52865SOL     OW68908   1.444  11.333   2.514  0.2325 -0.6954  0.9708
52865SOL    HW168909   1.393  11.412   2.500  0.1907 -0.9139 -0.2462
52865SOL    HW268910   1.464  11.333   2.607  0.4756  0.8861  0.9455
52866SOL     OW68911   3.279   2.275   0.359 -0.2860  0.6154  0.2203
52866SOL    HW168912   3.253   2.284   0.267  1.5764  1.7259 -0.2521
52866SOL    HW268913   3.243   2.352   0.402 -0.2031  0.6781  0.1776
52867SOL     OW68914   9.111   4.087   1.680  0.0786 -0.5990  0.1577
52867SOL    HW168915   9.074   4.053   1.762 -0.5127  0.5136  0.3743
52867SOL    HW268916   9.035   4.112   1.628  0.4885  0.4483  0.0394
52868SOL     OW68917  12.292  11.714   7.294  0.3409 -0.2005  0.0928
52868SOL    HW168918  12.292  11.806   7.317 -0.3227 -0.3245  0.6406
52868SOL    HW268919  12.280  11.712   7.199  0.7061  0.2768  0.0370
52869SOL     OW68920   8.105   8.767   5.522  0.3210 -0.2679  0.4879
52869SOL    HW168921   8.149   8.852   5.526 -1.1145  0.4922  1.1440
52869SOL    HW268922   8.011   8.788   5.526 -0.1281 -1.8203 -0.7116
52870SOL     OW68923   3.032   9.265   3.645 -0.0785  0.3278 -0.4536
52870SOL    HW168924   2.968   9.335   3.636 -1.8272 -0.9386  1.4221
52870SOL    HW268925   3.030   9.219   3.561 -0.4124  1.2744 -0.9717
52871SOL     OW68926   5.548   3.658   9.615 -0.2502 -0.0607  0.1748
52871SOL    HW168927   5.493   3.714   9.560  1.8074 -0.5026 -2.5718
52871SOL    HW268928   5.492   3.584   9.638 -1.7009  0.9815  0.1334
52872SOL     OW68929   4.334  11.448   5.412 -0.1146 -0.0014 -0.5851
52872SOL    HW168930   4.349  11.471   5.504 -1.0547  0.5948 -0.5625
52872SOL    HW268931   4.245  11.480   5.394  0.2657  0.4037 -1.8564
52873SOL     OW68932   4.281  12.887   8.927 -0.3055 -0.6410  0.2375
52873SOL    HW168933   4.371  12.871   8.958  0.3043  0.8496 -0.6690
52873SOL    HW268934   4.286  12.878   8.832 -1.2097 -0.8777  0.2032
52874SOL     OW68935   7.794   1.400   6.538  0.6133 -0.6880 -0.3241
52874SOL    HW168936   7.830   1.312   6.544 -0.2025 -1.1030 -1.0836
52874SOL    HW268937   7.859   1.450   6.490  0.0898 -1.5136 -1.9923
52875SOL     OW68938  10.141   8.328   8.525 -0.0542 -0.1011 -0.1302
52875SOL    HW168939  10.073   8.395   8.513  0.4020  0.0465 -2.1660
52875SOL    HW268940  10.213   8.356   8.468  1.0243 -1.1850  0.6542
52876SOL     OW68941   5.068   4.537   5.864 -0.4961 -0.5180  0.0631
52876SOL    HW168942   5.131   4.490   5.919 -1.7511 -0.5461  1.5336
52876SOL    HW268943   5.049   4.477   5.792  0.9228 -0.6137 -0.2754
52877SOL     OW68944   9.508   0.194   3.203  0.2924 -0.0501  0.3347
52877SOL    HW168945   9.480   0.135   3.133 -1.3762  1.8654 -0.7460
52877SOL    HW268946   9.552   0.265   3.157 -0.6409  1.1346  1.2142
52878SOL     OW68947   5.565  12.525   0.892 -0.0441 -0.0703 -0.8523
52878SOL    HW168948   5.609  12.599   0.934 -1.0464 -0.0376  0.1917
52878SOL    HW268949   5.627  12.453   0.899  0.3555  0.2990 -0.5348
52879SOL     OW68950   1.807   5.352   8.559 -0.3587 -0.0056 -0.2473
52879SOL    HW168951   1.796   5.419   8.626 -1.3147 -0.2784 -0.1017
52879SOL    HW268952   1.901   5.351   8.540 -0.2897  1.1462 -0.0375
52880SOL     OW68953  12.252  11.673   3.723 -0.3422  0.1318 -0.1592
52880SOL    HW168954  12.273  11.625   3.644  2.7874  1.7902 -0.4968
52880SOL    HW268955  12.160  11.654   3.740 -0.6128 -1.6919 -3.1458
52881SOL     OW68956  10.004   4.907   1.468  0.1038 -0.7591  0.0008
52881SOL    HW168957   9.973   4.974   1.407 -1.0552 -1.1281  0.1604
52881SOL    HW268958   9.999   4.825   1.418  0.4517 -0.8771  0.1587
52882SOL     OW68959   6.503  11.094   5.023 -0.0613 -0.0875  0.2400
52882SOL    HW168960   6.420  11.108   5.069 -1.2268  1.3954 -2.0887
52882SOL    HW268961   6.494  11.009   4.981  0.7154 -1.1100  2.0132
52883SOL     OW68962  12.171   7.582   1.055 -0.5573  0.4731  0.1721
52883SOL    HW168963  12.081   7.588   1.023 -0.5446  0.5737  0.1564
52883SOL    HW268964  12.166   7.519   1.127 -0.9558  1.7170  1.2783
52884SOL     OW68965   5.616   9.147   4.571  0.0582  0.0920  0.2609
52884SOL    HW168966   5.705   9.159   4.538  0.2289  0.4132  0.8395
52884SOL    HW268967   5.628   9.112   4.659 -0.3535  1.8953  1.0730
52885SOL     OW68968   1.548   3.373  11.617  0.1098 -0.1054  0.2471
52885SOL    HW168969   1.636   3.339  11.633 -0.6107 -2.3377 -0.1644
52885SOL    HW268970   1.528   3.347  11.527 -2.1282 -2.5436  1.3223
52886SOL     OW68971   6.902   4.946   7.227  0.8938 -0.3777 -0.1410
52886SOL    HW168972   6.949   4.864   7.217 -0.9780 -1.2887 -2.3887
52886SOL    HW268973   6.810   4.922   7.220  0.2699  1.8636 -0.4002
52887SOL     OW68974   1.468   5.831   6.324 -0.3153  0.4213 -0.1469
52887SOL    HW168975   1.465   5.851   6.231  1.0641  0.5833 -0.1700
52887SOL    HW268976   1.559   5.807   6.341 -0.8099 -0.8915  0.8995
52888SOL     OW68977  11.531   2.502   7.940  0.0152  0.6385  0.2268
52888SOL    HW168978  11.494   2.562   7.875 -0.6262 -0.7816 -0.7625
52888SOL    HW268979  11.456   2.473   7.992  0.2124  0.1767  0.2599
52889SOL     OW68980   3.200  10.439   1.893  0.7720 -0.2548 -0.0210
52889SOL    HW168981   3.157  10.358   1.869  2.5303 -0.7967 -1.5383
52889SOL    HW268982   3.214  10.432   1.988  0.3538 -1.4325 -0.0391
52890SOL     OW68983  12.030   2.552  11.549  0.4613  1.1398  0.2894
52890SOL    HW168984  12.012   2.518  11.636 -0.2145 -0.4389 -0.4320
52890SOL    HW268985  12.061   2.476  11.499  3.1270  2.4385 -0.2557
52891SOL     OW68986   0.818   1.974   0.649 -0.0088  0.4427  0.8334
52891SOL    HW168987   0.814   2.040   0.718 -4.1648  0.7175  0.5549
52891SOL    HW268988   0.766   2.012   0.577  1.4079 -1.2311 -1.2077
52892SOL     OW68989   3.883  12.311  10.276 -0.6303  0.5488  0.5168
52892SOL    HW168990   3.858  12.220  10.263  1.4157 -0.0368  0.2506
52892SOL    HW268991   3.819  12.346  10.338 -1.7347 -0.9155  0.2378
52893SOL     OW68992  10.765   6.499  11.012 -0.0948 -0.4112  0.1162
52893SOL    HW168993  10.739   6.452  11.092 -0.7626  1.6372  1.1677
52893SOL    HW268994  10.857   6.521  11.026 -0.1277 -0.3152  0.1787
52894SOL     OW68995   1.589   3.169   0.867 -0.1065 -0.7870 -0.1406
52894SOL    HW168996   1.626   3.170   0.955  0.6494 -0.0381 -0.4454
52894SOL    HW268997   1.518   3.105   0.871 -0.7587 -0.0250  1.2891
52895SOL     OW68998   2.784   9.407   8.374  0.7109 -0.2047  0.3210
52895SOL    HW168999   2.727   9.333   8.397  0.3156 -0.1066 -0.3298
52895SOL    HW269000   2.810   9.390   8.284  1.3839 -0.0314  0.4829
52896SOL     OW69001   4.538  10.786   8.505  0.3213  0.4687 -0.5663
52896SOL    HW169002   4.535  10.691   8.514 -0.8702  0.6228  1.1178
52896SOL    HW269003   4.612  10.813   8.558 -1.5324  0.6894  2.1410
52897SOL     OW69004   2.721  12.459   9.354  0.0227  0.2599  0.2534
52897SOL    HW169005   2.746  12.425   9.440  0.9335  0.4485  0.0714
52897SOL    HW269006   2.646  12.517   9.371 -2.0695 -2.3069  0.5056
52898SOL     OW69007   4.143   4.888   1.645 -0.0073 -0.1895  0.6942
52898SOL    HW169008   4.176   4.972   1.614 -0.1754  0.2642  1.7146
52898SOL    HW269009   4.214   4.852   1.698 -0.3779 -0.1337  1.2412
52899SOL     OW69010   4.619   9.336   2.388 -0.3269  0.3488 -0.0149
52899SOL    HW169011   4.702   9.375   2.361  0.8395 -1.0733  1.3606
52899SOL    HW269012   4.553   9.386   2.340  1.2234  2.3091 -0.2561
52900SOL     OW69013   6.804  10.890   2.949 -0.0636  0.2470 -0.5143
52900SOL    HW169014   6.844  10.819   2.900 -0.2667 -0.0955 -0.1852
52900SOL    HW269015   6.732  10.920   2.893 -0.0654  0.1036 -0.5879
52901SOL     OW69016   8.593   7.947   6.221  0.3480  0.1598 -0.3995
52901SOL    HW169017   8.594   8.039   6.248  0.3840 -0.0243  0.2388
52901SOL    HW269018   8.552   7.948   6.134 -0.9285  0.6178  0.1905
52902SOL     OW69019  11.934   6.406   3.840  0.6012  0.1271 -0.1287
52902SOL    HW169020  12.000   6.338   3.830 -2.2016 -2.6048 -1.4460
52902SOL    HW269021  11.875   6.395   3.765 -1.1489  2.6921  0.7169
52903SOL     OW69022   2.609  11.423   8.317 -0.3002 -0.5127 -0.4510
52903SOL    HW169023   2.656  11.380   8.245 -0.2381 -0.7811 -0.2513
52903SOL    HW269024   2.626  11.516   8.305 -1.3635 -0.4344 -1.5637
52904SOL     OW69025  11.082   3.606   5.801 -0.6359  0.3326  0.1180
52904SOL    HW169026  11.055   3.629   5.712  0.0779 -0.1038 -0.2240
52904SOL    HW269027  11.083   3.690   5.847  0.3282  0.7832 -0.6670
52905SOL     OW69028   2.135   8.810   1.564  0.3814 -0.2133  0.4379
52905SOL    HW169029   2.158   8.801   1.657  0.2292  1.8919  0.7259
52905SOL    HW269030   2.219   8.804   1.518  0.9533  2.2733  1.0482
52906SOL     OW69031   9.405   1.047   7.902  0.2160  0.0907  0.2229
52906SOL    HW169032   9.444   1.128   7.868  0.0260  0.2196  0.3086
52906SOL    HW269033   9.475   0.983   7.898  0.1280  0.0401 -0.6523
52907SOL     OW69034   2.608   9.746   4.440 -0.2465 -0.3713 -0.3065
52907SOL    HW169035   2.680   9.809   4.444 -0.6389  0.1060 -0.7470
52907SOL    HW269036   2.535   9.789   4.485 -0.6136 -0.3756 -0.8905
52908SOL     OW69037   4.585   7.473   2.383 -0.3777  0.3750  0.4550
52908SOL    HW169038   4.550   7.515   2.462 -0.4827 -0.1952  0.7234
52908SOL    HW269039   4.638   7.540   2.341 -0.1320  0.6186  1.1340
52909SOL     OW69040   4.192  12.675  11.831 -0.0785  0.1812  0.2688
52909SOL    HW169041   4.165  12.608  11.894  1.1910  1.0128  1.7802
52909SOL    HW269042   4.264  12.720  11.875  0.7902  0.8623 -1.7781
52910SOL     OW69043   6.766   6.666  10.559 -0.4166  0.3068  0.5605
52910SOL    HW169044   6.737   6.613  10.484 -0.9405 -0.0322  0.9931
52910SOL    HW269045   6.819   6.607  10.611 -0.7089  0.3095  0.8639
52911SOL     OW69046  10.852   8.656   1.447  0.7976 -0.3178  0.2136
52911SOL    HW169047  10.936   8.674   1.488  1.5897 -1.6065 -0.7471
52911SOL    HW269048  10.793   8.723   1.480  1.9146 -0.0814  1.7997
52912SOL     OW69049   6.803  10.861  12.317 -0.4098 -0.2228 -0.8220
52912SOL    HW169050   6.709  10.879  12.312 -0.2185  2.2132  1.9082
52912SOL    HW269051   6.809  10.781  12.369 -0.9746  0.1233 -0.2094
52913SOL     OW69052  12.911   5.323   8.746  0.1615  0.4797  0.5130
52913SOL    HW169053  12.957   5.309   8.664  1.8162  1.1925  1.2846
52913SOL    HW269054  12.872   5.238   8.766  0.1807  0.1615 -0.7278
52914SOL     OW69055   2.858   7.145   4.944  0.2160  0.0736 -0.2403
52914SOL    HW169056   2.890   7.057   4.920  1.1321  0.4195 -0.3555
52914SOL    HW269057   2.783   7.159   4.886 -0.5303 -1.0028  0.4336
52915SOL     OW69058   1.195   0.351   4.562  0.0350  0.5865  0.0975
52915SOL    HW169059   1.277   0.301   4.563 -0.5953 -0.4943 -0.4622
52915SOL    HW269060   1.132   0.293   4.605 -0.9030  0.5356 -1.2923
52916SOL     OW69061   1.671   7.104   6.418 -0.1454  0.3323 -0.3524
52916SOL    HW169062   1.663   7.085   6.511 -0.6187  1.1635 -0.2170
52916SOL    HW269063   1.592   7.067   6.379  0.8594 -1.5566 -0.6995
52917SOL     OW69064   9.310   1.100   6.463  0.8036 -0.3890 -0.3028
52917SOL    HW169065   9.287   1.184   6.422 -0.4727 -0.5504  0.0209
52917SOL    HW269066   9.383   1.120   6.520  1.7744  0.1094 -1.6605
52918SOL     OW69067   7.262  11.664   3.239 -0.6956 -0.2451  0.4513
52918SOL    HW169068   7.340  11.665   3.295 -1.1339  0.3849  1.0763
52918SOL    HW269069   7.292  11.702   3.156 -0.1506 -0.7486  0.4132
52919SOL     OW69070  11.761   7.367   0.106 -1.0380  0.7685 -0.0961
52919SOL    HW169071  11.838   7.425   0.107 -1.0903  0.8900  1.8961
52919SOL    HW269072  11.727   7.372   0.196 -2.9613  0.1561 -0.7403
52920SOL     OW69073  10.796   0.807   6.160 -0.3416 -0.3576 -0.7080
52920SOL    HW169074  10.886   0.803   6.190 -0.2608 -1.1794 -1.0550
52920SOL    HW269075  10.796   0.876   6.093 -0.1401  0.1680 -0.1775
52921SOL     OW69076   9.039   0.847   8.409 -0.1209  0.5644  0.2394
52921SOL    HW169077   9.131   0.867   8.427 -0.2661  2.2851 -0.6606
52921SOL    HW269078   8.990   0.909   8.463 -0.7011  0.6775 -0.3965
52922SOL     OW69079   9.784   5.416   1.657  0.3835  0.0206 -0.3652
52922SOL    HW169080   9.833   5.470   1.719 -0.4543 -0.1458  0.4643
52922SOL    HW269081   9.765   5.335   1.706 -4.6005  1.7115  1.0988
52923SOL     OW69082   7.513   6.496   2.005 -0.7932  0.2854 -0.4622
52923SOL    HW169083   7.429   6.514   1.965 -1.0358 -0.5779 -0.3597
52923SOL    HW269084   7.529   6.402   1.989 -1.5733 -0.4978  2.5969
52924SOL     OW69085  10.781  10.385  12.756  0.1315  0.0294  0.1109
52924SOL    HW169086  10.726  10.461  12.735 -0.4147  0.1993  1.9849
52924SOL    HW269087  10.856  10.422  12.802  0.5020 -0.4584 -0.0907
52925SOL     OW69088   9.824   7.871   4.714 -0.4144  0.1701 -0.1781
52925SOL    HW169089   9.809   7.951   4.764 -1.4709  0.6951 -1.2770
52925SOL    HW269090   9.842   7.902   4.625 -0.9593 -0.8041 -0.6434
52926SOL     OW69091   1.650   7.689   1.368  0.1771  0.1203  0.7746
52926SOL    HW169092   1.640   7.784   1.358  0.0511  0.0206 -0.1363
52926SOL    HW269093   1.633   7.654   1.280  2.5205 -0.5441  0.5195
52927SOL     OW69094  11.967  12.374  10.622  0.0203 -0.1758 -0.6655
52927SOL    HW169095  12.037  12.428  10.585 -0.1871 -0.4275 -1.4377
52927SOL    HW269096  12.003  12.285  10.624  0.4426 -0.0006  0.8079
52928SOL     OW69097   5.171   8.838   1.491 -0.2544 -0.1307 -0.1416
52928SOL    HW169098   5.085   8.841   1.449 -0.1461 -2.9388 -0.7591
52928SOL    HW269099   5.233   8.850   1.419 -0.1257 -1.2842 -0.2458
52929SOL     OW69100   4.080   2.090  11.638 -0.0088  0.1260 -0.4780
52929SOL    HW169101   4.084   2.001  11.603  0.5114  0.0828 -0.3220
52929SOL    HW269102   4.169   2.108  11.667 -0.4598  0.0593  1.0538
52930SOL     OW69103  10.010  12.629   9.601 -0.2181 -0.8536  0.2725
52930SOL    HW169104  10.101  12.629   9.633 -0.3288 -3.5508  0.8777
52930SOL    HW269105   9.998  12.541   9.566 -2.5795 -0.5216  0.1328
52931SOL     OW69106   0.585  12.057   1.911  0.0145 -0.0218 -0.7976
52931SOL    HW169107   0.616  11.985   1.857  1.3660  0.7077 -1.0295
52931SOL    HW269108   0.505  12.024   1.952 -0.3426 -1.0353 -2.2459
52932SOL     OW69109  10.685  12.331  11.863 -0.2389 -0.0810 -0.1085
52932SOL    HW169110  10.600  12.287  11.860  0.0454 -0.5720 -1.5391
52932SOL    HW269111  10.748  12.263  11.840  0.3070  0.7952 -1.3342
52933SOL     OW69112   5.539   4.882   3.245 -0.6763  0.4446 -0.2207
52933SOL    HW169113   5.460   4.850   3.290  0.2271 -1.3910  0.1829
52933SOL    HW269114   5.513   4.964   3.204 -2.3838  0.6277  1.1414
52934SOL     OW69115   1.278  11.441   8.360 -0.6119  0.1166 -0.1507
52934SOL    HW169116   1.347  11.482   8.307 -0.7291 -0.0352 -0.4268
52934SOL    HW269117   1.298  11.466   8.450 -0.6701  0.7636 -0.3129
52935SOL     OW69118  11.565   4.297   2.915 -0.2625  0.6589  0.1128
52935SOL    HW169119  11.491   4.268   2.861 -0.3431  0.6465  0.2291
52935SOL    HW269120  11.532   4.376   2.958 -0.8223 -0.3124  1.5224
52936SOL     OW69121  12.646   5.801   5.613  0.4345  0.2716  0.2366
52936SOL    HW169122  12.729   5.761   5.588  1.5814  0.3560  3.4980
52936SOL    HW269123  12.668   5.892   5.631 -0.4858  0.4333  0.5776
52937SOL     OW69124   9.383  12.148  12.696  0.9675 -0.0778 -0.0433
52937SOL    HW169125   9.396  12.122  12.787 -0.2007  0.7315  0.3818
52937SOL    HW269126   9.311  12.212  12.700  1.9888  1.2099 -1.3340
52938SOL     OW69127   5.119   2.943   5.695 -0.2934 -1.0740 -0.3872
52938SOL    HW169128   5.188   2.986   5.745  0.0874 -0.2663 -1.5651
52938SOL    HW269129   5.054   2.917   5.760 -0.4436  1.1352  0.4076
52939SOL     OW69130   6.807   8.401   8.762 -0.5605  0.2470  0.1273
52939SOL    HW169131   6.741   8.330   8.761  0.6698 -0.9359 -0.8871
52939SOL    HW269132   6.886   8.359   8.796  0.3910  0.9280 -1.1650
52940SOL     OW69133   6.275  11.043   1.984 -0.0688 -0.2532 -0.2027
52940SOL    HW169134   6.192  11.025   1.940 -0.6672  0.5390  0.5558
52940SOL    HW269135   6.276  10.985   2.060  0.2225 -0.4929 -0.3890
52941SOL     OW69136  12.929   8.504   5.896  0.3894  0.4367 -0.0436
52941SOL    HW169137  12.946   8.426   5.843  0.8020 -0.5955  1.5367
52941SOL    HW269138  12.838   8.526   5.879  0.2842 -0.3650 -0.5395
52942SOL     OW69139  10.919   8.822   9.296 -0.1319 -0.2288 -0.1018
52942SOL    HW169140  10.941   8.786   9.210 -0.4704  0.0606 -0.3159
52942SOL    HW269141  10.858   8.758   9.334 -0.7074  0.0875 -0.4683
52943SOL     OW69142   1.918   2.008   4.148  0.1560 -0.7596  0.1517
52943SOL    HW169143   1.885   1.936   4.095  4.7865 -2.6203 -0.7029
52943SOL    HW269144   1.966   2.063   4.086  0.5176  0.5508  1.5254
52944SOL     OW69145  11.108  12.872   9.814 -0.1055 -0.5687 -0.8676
52944SOL    HW169146  11.081  12.845   9.902 -1.5542 -0.9547 -1.4079
52944SOL    HW269147  11.040  12.838   9.756  0.4936  0.2307 -2.0862
52945SOL     OW69148   3.283  10.513   2.465  0.6995  0.5805 -0.1720
52945SOL    HW169149   3.350  10.510   2.397 -0.2584 -0.9367 -1.1302
52945SOL    HW269150   3.313  10.451   2.531  0.7525  0.6990 -0.0848
52946SOL     OW69151   2.404  11.661   6.075 -0.2114  0.5208  0.7290
52946SOL    HW169152   2.476  11.641   6.016 -1.4787 -0.5928 -0.5202
52946SOL    HW269153   2.390  11.580   6.125 -2.0853 -0.1459 -0.7419
52947SOL     OW69154   3.906  11.449   0.184  0.3687  0.3933  0.1206
52947SOL    HW169155   3.873  11.367   0.147 -0.5860 -1.0812  3.7610
52947SOL    HW269156   3.827  11.498   0.209  0.9369  2.3167 -1.5778
52948SOL     OW69157   5.043   9.697   3.602  0.4480  0.2743  0.0953
52948SOL    HW169158   5.024   9.731   3.689  1.4961  1.7772 -0.2329
52948SOL    HW269159   5.001   9.759   3.543 -0.9527 -1.1708 -0.4948
52949SOL     OW69160   3.389   5.430  11.359  0.2754 -0.8143  0.2720
52949SOL    HW169161   3.330   5.358  11.380 -0.5880 -1.0480 -2.5355
52949SOL    HW269162   3.447   5.394  11.292  0.5177  0.7954 -0.4169
52950SOL     OW69163   2.308   1.953   1.837 -0.2171  0.0631 -0.2771
52950SOL    HW169164   2.321   2.018   1.906 -0.9513 -1.5092  1.4158
52950SOL    HW269165   2.385   1.896   1.843 -1.3744 -1.4558  0.8681
52951SOL     OW69166   7.775   0.852  12.528 -0.0104  0.1056  0.4503
52951SOL    HW169167   7.698   0.797  12.509 -0.8124  1.1913  0.4481
52951SOL    HW269168   7.798   0.890  12.443 -0.4101  0.9430  0.7038
52952SOL     OW69169   3.156   0.428   5.605 -0.0312  0.4888 -0.3588
52952SOL    HW169170   3.182   0.517   5.627 -1.3139  0.6054  0.8943
52952SOL    HW269171   3.096   0.437   5.532 -0.4942  0.7058  0.0449
52953SOL     OW69172   3.368   5.931   9.361 -0.2425 -0.2138  0.3744
52953SOL    HW169173   3.291   5.903   9.312  0.1234  0.8098 -0.8727
52953SOL    HW269174   3.436   5.869   9.335 -0.2706 -0.2017  0.2704
52954SOL     OW69175   7.321   1.416  12.404  0.3814  0.1021 -0.2404
52954SOL    HW169176   7.410   1.442  12.427  0.1339  0.7719 -0.0177
52954SOL    HW269177   7.267   1.447  12.476 -0.1947  0.8350 -0.9649
52955SOL     OW69178  10.917   7.549  10.699 -0.0608 -0.6366  0.3929
52955SOL    HW169179  10.898   7.553  10.793 -0.8052 -1.4553  0.2983
52955SOL    HW269180  11.005   7.512  10.694  1.5076  2.6807  0.8268
52956SOL     OW69181   6.966  12.505   5.936 -0.4227  0.1147 -0.0300
52956SOL    HW169182   6.985  12.598   5.924 -0.5609  0.0472 -0.8355
52956SOL    HW269183   6.872  12.498   5.922 -0.6898  0.0848  1.6055
52957SOL     OW69184   3.516  11.100   1.772  0.0257  0.3041 -0.2273
52957SOL    HW169185   3.450  11.164   1.801  1.6205  2.5984 -1.4090
52957SOL    HW269186   3.582  11.102   1.841  0.0330 -0.2047 -0.2146
52958SOL     OW69187   4.779   9.063   6.066  0.3298  0.6518 -0.1901
52958SOL    HW169188   4.767   9.059   6.161  0.8109  1.1735 -0.0969
52958SOL    HW269189   4.873   9.048   6.053  0.6829  2.6891 -0.3994
52959SOL     OW69190   2.108   5.799   6.620 -0.0514 -0.4617 -0.3121
52959SOL    HW169191   2.050   5.804   6.544  0.6841 -0.2265 -0.8723
52959SOL    HW269192   2.110   5.888   6.655 -0.3688 -0.5640 -0.0304
52960SOL     OW69193   5.322  10.103   7.713  0.4081  0.3922 -0.0806
52960SOL    HW169194   5.269  10.072   7.787 -1.0164 -0.1817 -1.3010
52960SOL    HW269195   5.290  10.053   7.638  2.1381  0.6451 -1.0168
52961SOL     OW69196   1.696   5.321  10.376  0.3906 -0.0986  0.7155
52961SOL    HW169197   1.658   5.401  10.414  2.0129  0.9725  0.2154
52961SOL    HW269198   1.719   5.346  10.286  1.8192 -0.8000  0.8453
52962SOL     OW69199   2.008   1.953  12.610  0.5375 -0.0468 -0.6626
52962SOL    HW169200   2.012   1.894  12.535  1.4418  0.0836 -0.7206
52962SOL    HW269201   1.922   1.937  12.649  0.5399 -0.9665 -1.0312
52963SOL     OW69202  10.382   0.484   6.084 -0.6628 -0.1746 -0.0752
52963SOL    HW169203  10.448   0.553   6.086 -0.5931 -0.1868 -1.2632
52963SOL    HW269204  10.303   0.528   6.050 -0.4397 -0.7974 -1.4536
52964SOL     OW69205   1.820   9.666   1.038  0.2261  0.2282  0.1825
52964SOL    HW169206   1.763   9.595   1.065  0.0839 -0.1669 -1.0999
52964SOL    HW269207   1.764   9.723   0.985  0.3122  1.3602  1.2453
52965SOL     OW69208  10.527   6.214   8.754  0.0077 -0.6653 -0.9870
52965SOL    HW169209  10.498   6.244   8.667  1.1317 -1.2286 -1.5851
52965SOL    HW269210  10.553   6.295   8.799 -2.9291 -0.0523 -0.1796
52966SOL     OW69211   5.291   8.068   3.184 -0.2610  0.2605 -0.0050
52966SOL    HW169212   5.207   8.083   3.227 -0.2406  2.7757 -0.6883
52966SOL    HW269213   5.283   8.112   3.100  1.5367  0.0187 -0.3427
52967SOL     OW69214   9.690  10.000   6.999  0.8262  0.2262  0.4297
52967SOL    HW169215   9.678  10.092   6.978 -1.0885 -0.4169 -1.5957
52967SOL    HW269216   9.710   9.999   7.093  0.8260  2.6622  0.5034
52968SOL     OW69217  11.239   4.299  11.637 -0.8584 -0.1382  0.3050
52968SOL    HW169218  11.303   4.362  11.603 -1.1339 -0.3931 -0.7218
52968SOL    HW269219  11.255   4.297  11.731  1.8105 -1.4429 -0.0761
52969SOL     OW69220   4.845   7.779   1.988 -0.1035  0.3940 -0.2800
52969SOL    HW169221   4.847   7.846   1.920  0.5736  1.4786  0.7636
52969SOL    HW269222   4.839   7.828   2.070  1.2622 -0.7573  0.5731
52970SOL     OW69223   5.067  12.457   2.802 -0.0090 -0.4374 -0.5200
52970SOL    HW169224   5.158  12.474   2.824  0.9275 -1.9027 -2.9054
52970SOL    HW269225   5.057  12.485   2.711 -1.8554 -0.6028 -0.4184
52971SOL     OW69226   1.430   0.779  11.691  0.1152  0.0665  0.1444
52971SOL    HW169227   1.442   0.866  11.652  1.2587  0.1076  0.5299
52971SOL    HW269228   1.350   0.786  11.743 -0.7947  0.3462 -1.2473
52972SOL     OW69229   5.951   3.584   5.364  0.2223  0.3352 -0.0008
52972SOL    HW169230   5.932   3.531   5.287 -1.0435 -0.6481  0.9426
52972SOL    HW269231   6.046   3.590   5.366  0.3333 -0.7545 -0.8915
52973SOL     OW69232   3.234   8.802   3.861 -0.0364 -0.4094 -0.2634
52973SOL    HW169233   3.206   8.866   3.926  2.8254 -0.3229  1.0390
52973SOL    HW269234   3.253   8.853   3.782 -1.0288 -0.1785 -0.3701
52974SOL     OW69235   6.429   8.116   1.788  0.8636  0.1981  0.0249
52974SOL    HW169236   6.516   8.129   1.827  0.5797  0.1370  0.6879
52974SOL    HW269237   6.442   8.136   1.695  1.2351  1.7215  0.3739
52975SOL     OW69238   3.843   3.835  11.061 -0.0276  0.1520  0.0058
52975SOL    HW169239   3.847   3.925  11.029  1.4047 -0.0949 -0.5879
52975SOL    HW269240   3.841   3.844  11.157  2.3390  0.8348  0.0635
52976SOL     OW69241   7.368   4.680   0.996 -0.0312  0.0060  0.5486
52976SOL    HW169242   7.304   4.750   1.008  0.6697  0.4148  2.2263
52976SOL    HW269243   7.328   4.621   0.932 -0.6431  1.8935 -0.8820
52977SOL     OW69244   9.149   0.225  11.468  0.4925 -0.4380 -0.0219
52977SOL    HW169245   9.229   0.200  11.514  1.0135 -1.1179 -1.2427
52977SOL    HW269246   9.179   0.251  11.381 -0.5593 -0.1356 -0.3070
52978SOL     OW69247   5.278   6.837   5.914  0.2394  0.0495 -0.2259
52978SOL    HW169248   5.371   6.845   5.891 -0.0657 -1.9574 -2.5249
52978SOL    HW269249   5.232   6.895   5.854 -0.0355  1.3031  1.1354
52979SOL     OW69250  12.822   3.589   9.545 -0.6465 -0.1579  0.2657
52979SOL    HW169251  12.891   3.523   9.532 -0.1900  0.2608  0.5362
52979SOL    HW269252  12.803   3.585   9.639  0.5736  1.2506  0.6042
52980SOL     OW69253  12.865  12.716   0.867 -0.0811  0.4849  0.0151
52980SOL    HW169254  12.916  12.795   0.888  1.8934  0.3010 -3.2696
52980SOL    HW269255  12.790  12.748   0.817 -0.4720  0.4175  0.5553
52981SOL     OW69256   9.816   6.194   2.946  0.0083 -0.0539  0.5651
52981SOL    HW169257   9.909   6.211   2.931 -0.0339 -0.1226  0.2219
52981SOL    HW269258   9.773   6.277   2.923 -0.0067  0.0025  0.8002
52982SOL     OW69259  11.382   4.035   8.025  0.4717 -0.2748 -0.1120
52982SOL    HW169260  11.327   3.959   8.043 -0.7942  0.5378 -0.4054
52982SOL    HW269261  11.359   4.061   7.937 -0.8980  1.8480  0.7963
52983SOL     OW69262   2.984   1.224   6.560  0.3967  0.1989 -0.0923
52983SOL    HW169263   2.892   1.232   6.534  0.0805  1.8234  1.4005
52983SOL    HW269264   3.030   1.284   6.501  0.0039  1.9812  1.3270
52984SOL     OW69265  10.801   6.980   7.300 -0.3844  0.2883 -0.6216
52984SOL    HW169266  10.863   7.034   7.350  0.9368 -0.9214 -0.8768
52984SOL    HW269267  10.727   6.967   7.359  0.6786 -0.2372  0.6483
52985SOL     OW69268   5.403  10.335  12.126  0.0023  0.4033 -0.0242
52985SOL    HW169269   5.365  10.265  12.180 -0.1042  1.4517  1.3211
52985SOL    HW269270   5.328  10.386  12.096  0.0207 -0.4936 -1.6785
52986SOL     OW69271   1.216   9.838  11.966  0.7040  0.0407  0.1612
52986SOL    HW169272   1.301   9.811  12.000  0.9404  0.9258  0.3020
52986SOL    HW269273   1.171   9.756  11.945  1.1857 -0.4697  1.0627
52987SOL     OW69274  12.381  12.371   5.694  0.4497 -0.2588 -0.0260
52987SOL    HW169275  12.415  12.457   5.720 -0.7396  0.0851  0.4424
52987SOL    HW269276  12.397  12.315   5.771  1.5315 -0.5704 -0.4526
52988SOL     OW69277   2.310   0.843   1.646 -0.4835  0.5243 -0.6937
52988SOL    HW169278   2.362   0.885   1.715 -0.5914  1.8392 -1.3689
52988SOL    HW269279   2.366   0.846   1.569 -0.4711 -0.6818 -0.7488
52989SOL     OW69280  10.322   9.869   8.331  0.2274  0.5736 -0.2656
52989SOL    HW169281  10.277   9.900   8.410 -0.4039 -0.7386 -0.0828
52989SOL    HW269282  10.259   9.812   8.288  0.8712  0.6061 -1.2992
52990SOL     OW69283  12.921   7.874  12.194 -0.2582 -0.4669 -0.2775
52990SOL    HW169284  12.945   7.956  12.150  1.3498 -0.8626 -0.2012
52990SOL    HW269285  12.845   7.897  12.248 -0.4399  0.7265 -1.0101
52991SOL     OW69286   0.408   3.775   7.662  0.0607  0.5577 -1.0246
52991SOL    HW169287   0.458   3.853   7.686  1.5254 -0.4736 -0.5210
52991SOL    HW269288   0.320   3.806   7.644  0.0866  2.0574  1.1201
52992SOL     OW69289   8.008   0.874   0.720 -0.2981  0.3933 -0.4056
52992SOL    HW169290   8.067   0.836   0.785  0.3161  1.0215 -0.5753
52992SOL    HW269291   7.991   0.802   0.658 -0.5421 -0.0816  0.2052
52993SOL     OW69292   2.459   1.135  11.142 -0.4192 -0.5425 -0.2046
52993SOL    HW169293   2.472   1.199  11.212  0.1754  0.5016 -1.2307
52993SOL    HW269294   2.460   1.187  11.061  2.1868 -2.0331 -1.2569
52994SOL     OW69295  12.157   4.206   9.368  0.1836  0.6907 -0.1334
52994SOL    HW169296  12.167   4.219   9.462 -1.1279  2.5616 -0.1811
52994SOL    HW269297  12.246   4.208   9.333  0.5864  2.2625  0.8647
52995SOL     OW69298   0.231   7.632   6.412  0.2266  0.1748 -0.4219
52995SOL    HW169299   0.152   7.592   6.376  0.1535  0.6394 -0.7984
52995SOL    HW269300   0.283   7.656   6.335  0.4819  0.3706 -0.1919
52996SOL     OW69301   1.534   6.238   3.961  0.2029 -0.7386  0.5310
52996SOL    HW169302   1.611   6.225   4.017  0.1282  2.0905  1.4183
52996SOL    HW269303   1.568   6.232   3.872  0.9486 -1.9443  0.8652
52997SOL     OW69304  10.190   5.265   1.251  0.1436 -0.3793  0.2438
52997SOL    HW169305  10.229   5.226   1.329 -0.4666  0.8368  1.1855
52997SOL    HW269306  10.151   5.190   1.205  0.1119 -1.0610  1.3314
52998SOL     OW69307   4.930   4.161   1.675 -0.4408 -0.0279 -1.3933
52998SOL    HW169308   4.983   4.108   1.615  1.0397 -1.9642  1.3833
52998SOL    HW269309   4.847   4.114   1.681  0.3334 -1.3275 -0.0851
52999SOL     OW69310  12.481   2.047  10.903 -0.3915  0.0133  0.2472
52999SOL    HW169311  12.478   2.114  10.835 -0.9372 -0.8118 -0.5806
52999SOL    HW269312  12.540   2.082  10.969 -1.2153  1.6066  0.1838
53000SOL     OW69313   8.617   9.923   0.051  0.4777 -0.2413 -0.3832
53000SOL    HW169314   8.669   9.931   0.131  1.1900  1.0684 -0.9459
53000SOL    HW269315   8.605  10.013   0.021 -0.7445 -0.6314 -1.1626
53001SOL     OW69316   3.912   3.735   2.644 -0.6930  0.8160  0.5149
53001SOL    HW169317   3.913   3.657   2.699  0.9673  0.3653 -0.1019
53001SOL    HW269318   3.952   3.803   2.697  0.1257  0.5981  0.1936
53002SOL     OW69319   0.541  12.778   5.458 -0.0621  0.4715  0.5531
53002SOL    HW169320   0.506  12.733   5.381 -0.2658  1.2768  0.1523
53002SOL    HW269321   0.559  12.867   5.426 -0.8327  1.0263  1.6138
53003SOL     OW69322   3.888   6.727  11.742 -0.0561  0.6416 -0.3577
53003SOL    HW169323   3.827   6.789  11.702 -0.7921  0.6782  0.7897
53003SOL    HW269324   3.973   6.770  11.735 -0.1653  0.6711 -1.8114
53004SOL     OW69325   3.680   6.571   8.454  0.0561  0.6154  0.4082
53004SOL    HW169326   3.598   6.597   8.410 -0.0342  0.9390  0.7602
53004SOL    HW269327   3.729   6.524   8.387 -0.3443  0.5725  0.1388
53005SOL     OW69328   5.222   3.580   3.148  0.2507  0.2920 -0.8355
53005SOL    HW169329   5.306   3.625   3.146  0.0571  0.8011  0.8570
53005SOL    HW269330   5.214   3.539   3.062  3.1489 -1.5074 -0.3583
53006SOL     OW69331   4.929  12.894   8.952 -0.2319 -0.1276  0.1070
53006SOL    HW169332   4.890  12.889   8.865 -0.1986 -1.4361  0.1395
53006SOL    HW269333   4.856  12.915   9.010 -1.1040 -3.0911  0.2420
53007SOL     OW69334   1.817   8.682   7.984  0.0286 -0.0918  0.8111
53007SOL    HW169335   1.888   8.710   7.927 -0.3815 -0.1259  0.2774
53007SOL    HW269336   1.746   8.743   7.965  0.3257  0.7478  2.2664
53008SOL     OW69337   5.783   0.562   2.961 -0.1526 -0.3885 -0.0467
53008SOL    HW169338   5.813   0.611   2.885 -2.8037 -0.5405 -1.3246
53008SOL    HW269339   5.762   0.629   3.026  2.2572 -0.2653  0.6871
53009SOL     OW69340   6.800   1.303   2.526  0.4748 -0.0005 -0.0326
53009SOL    HW169341   6.780   1.225   2.474  0.9701  0.6761 -1.2715
53009SOL    HW269342   6.751   1.373   2.484 -1.0260  0.1648  1.8586
53010SOL     OW69343  12.546   4.032   0.431  0.5057  0.0853  0.8311
53010SOL    HW169344  12.518   4.019   0.522 -0.2756  0.0543  0.5937
53010SOL    HW269345  12.474   3.997   0.379  0.2322  1.5291  0.1846
53011SOL     OW69346   7.690  10.037   7.239 -0.0596  0.1308  0.0546
53011SOL    HW169347   7.657   9.992   7.162  2.6744 -1.5577 -0.2573
53011SOL    HW269348   7.698   9.969   7.306  0.2588  0.9913  0.9248
53012SOL     OW69349   4.656   2.914   0.221 -0.6302  0.0050 -0.7933
53012SOL    HW169350   4.566   2.891   0.197 -0.7260 -1.8866  1.0384
53012SOL    HW269351   4.646   2.972   0.297 -0.3379 -0.9558  0.0012
53013SOL     OW69352   0.535   4.013   5.879  0.5193 -0.5040 -0.1117
53013SOL    HW169353   0.527   3.923   5.849 -1.1945 -0.2609 -0.4760
53013SOL    HW269354   0.620   4.042   5.845  0.9096 -1.8370 -0.3332
53014SOL     OW69355   5.031   9.304   2.485  0.4959  0.0170 -0.5090
53014SOL    HW169356   5.081   9.279   2.563  1.6927 -0.8906 -1.5075
53014SOL    HW269357   4.964   9.236   2.476 -0.2354  0.6272  0.2171
53015SOL     OW69358   7.648  12.610  12.652  0.5651  0.1722 -0.1401
53015SOL    HW169359   7.707  12.543  12.686  0.8676  0.9321  0.8752
53015SOL    HW269360   7.705  12.674  12.611  0.2610 -0.2652 -1.3050
53016SOL     OW69361   8.425  10.596  12.701 -0.2359  0.0391 -0.5090
53016SOL    HW169362   8.426  10.664  12.634 -0.5296  0.3133 -0.2419
53016SOL    HW269363   8.335  10.561  12.699 -0.1681 -0.1406 -0.4483
53017SOL     OW69364   0.707   0.074   5.434 -0.1553 -0.0732  0.0281
53017SOL    HW169365   0.774   0.074   5.367 -0.2484  0.0697 -0.0657
53017SOL    HW269366   0.736   0.008   5.497 -0.4431 -0.7327 -0.5226
53018SOL     OW69367   5.227   9.563   8.334  0.5430 -0.3930  0.0340
53018SOL    HW169368   5.221   9.580   8.240  1.2450  1.3710  0.2534
53018SOL    HW269369   5.321   9.561   8.352  0.4124 -0.4798  0.7339
53019SOL     OW69370   2.928  11.141   7.907  0.0726  0.8236  0.1036
53019SOL    HW169371   2.962  11.173   7.824  0.7513  0.2523  0.1459
53019SOL    HW269372   2.845  11.099   7.885  0.7244 -0.2161 -0.4593
53020SOL     OW69373   3.099   3.280   0.279  0.1609 -0.4052 -0.2138
53020SOL    HW169374   3.087   3.196   0.235 -1.4889 -0.6193  0.5758
53020SOL    HW269375   3.011   3.305   0.306  0.7898  1.0259  0.5810
53021SOL     OW69376   6.285   9.786   1.513  0.3787  0.5886  0.5860
53021SOL    HW169377   6.345   9.717   1.482  0.8986  0.6568  1.4006
53021SOL    HW269378   6.316   9.806   1.601 -0.5941  0.9358  0.8566
53022SOL     OW69379   4.395  11.420   2.185  0.2616  0.5583  0.2733
53022SOL    HW169380   4.408  11.377   2.101  0.6547 -1.0522  1.1125
53022SOL    HW269381   4.300  11.428   2.194  0.2313  1.3403 -0.5851
53023SOL     OW69382   1.362   0.560   9.717  0.3728 -0.6445 -0.2550
53023SOL    HW169383   1.306   0.513   9.779 -0.7430  2.0769  0.9907
53023SOL    HW269384   1.451   0.534   9.741 -0.1748 -1.9437  0.4835
53024SOL     OW69385  11.424   5.371  12.125  0.0467 -0.1550  0.2791
53024SOL    HW169386  11.431   5.428  12.202 -0.0003  0.9537 -0.5175
53024SOL    HW269387  11.505   5.320  12.126  1.5671  2.0545 -0.6175
53025SOL     OW69388  10.727   9.232  12.514  0.1594 -0.3098  0.8320
53025SOL    HW169389  10.802   9.207  12.460  0.4028 -3.0653  2.2604
53025SOL    HW269390  10.652   9.222  12.456  0.7292  0.9600 -0.1663
53026SOL     OW69391   1.107  11.851   3.603  0.7711 -0.2043 -0.0183
53026SOL    HW169392   1.031  11.897   3.639 -0.3716 -0.8612 -1.4683
53026SOL    HW269393   1.107  11.873   3.510  1.7155 -1.0957 -0.2533
53027SOL     OW69394   2.386   9.751   8.496 -0.3963 -0.2284 -0.6319
53027SOL    HW169395   2.370   9.748   8.591 -0.4326  1.5689 -0.5358
53027SOL    HW269396   2.307   9.790   8.460 -0.5057 -1.1871 -1.4573
53028SOL     OW69397   4.751  12.001   4.828  0.1719 -0.5102 -0.0271
53028SOL    HW169398   4.834  11.999   4.779 -0.0870 -0.4377 -0.4769
53028SOL    HW269399   4.743  11.914   4.866 -0.6591 -1.3047 -1.8889
53029SOL     OW69400  10.374   5.404   5.171 -0.2738 -0.7326  0.8185
53029SOL    HW169401  10.367   5.450   5.087  0.6120  1.0434  1.6700
53029SOL    HW269402  10.309   5.333   5.165 -0.6002 -0.3306 -1.1406
53030SOL     OW69403   9.405   6.956   2.589 -0.3799 -0.3754 -0.0717
53030SOL    HW169404   9.355   6.877   2.571  0.7130 -0.9982 -0.4771
53030SOL    HW269405   9.348   7.008   2.645 -0.3889 -2.3174  1.8758
53031SOL     OW69406   7.597   7.703   4.581  0.2206  0.1772 -0.1729
53031SOL    HW169407   7.591   7.608   4.575 -1.3228  0.3052 -1.2455
53031SOL    HW269408   7.511   7.731   4.611  1.0981  1.1723  1.5256
53032SOL     OW69409   1.161   4.171  12.513 -0.0426 -0.0509  0.0907
53032SOL    HW169410   1.175   4.264  12.526  0.2139 -0.1022  0.1906
53032SOL    HW269411   1.195   4.130  12.593  1.8358 -0.4034 -0.8332
53033SOL     OW69412   7.425   8.077   6.699  0.1618  0.2312 -0.0444
53033SOL    HW169413   7.446   8.139   6.629  0.9024 -0.3865 -0.3725
53033SOL    HW269414   7.478   8.106   6.773  0.3333  0.1285 -0.1267
53034SOL     OW69415   7.791   8.300  10.745  0.0756 -0.6704  0.3477
53034SOL    HW169416   7.812   8.379  10.696 -0.8654  0.5481  1.8021
53034SOL    HW269417   7.839   8.309  10.827 -1.1707 -0.8651  1.1302
53035SOL     OW69418   6.840   0.184  10.260 -0.1391  0.0164 -0.1726
53035SOL    HW169419   6.820   0.126  10.334 -1.2638  0.5006 -0.0803
53035SOL    HW269420   6.895   0.131  10.203  1.0602 -0.2530  1.1738
53036SOL     OW69421  10.825   7.596   7.611  0.0797  0.1896 -0.6890
53036SOL    HW169422  10.797   7.541   7.538 -1.8140  0.5239 -0.2475
53036SOL    HW269423  10.757   7.587   7.677  1.5200  0.2621  0.8936
53037SOL     OW69424   4.535   8.384  11.011 -0.1213  0.0375  0.0169
53037SOL    HW169425   4.475   8.310  11.012 -2.4031  1.5837  4.3349
53037SOL    HW269426   4.496   8.446  10.949 -2.2543  0.3746  1.6037
53038SOL     OW69427   2.582  10.908  11.764  0.2098 -0.0955 -0.2193
53038SOL    HW169428   2.595  10.956  11.846  0.9729 -1.1317  0.2887
53038SOL    HW269429   2.489  10.887  11.762  0.5076 -1.8584  1.4444
53039SOL     OW69430   9.561   9.913  11.756  0.1189  0.0690  0.4848
53039SOL    HW169431   9.509   9.838  11.786 -0.5874  0.0680 -0.6742
53039SOL    HW269432   9.597   9.885  11.672 -0.6240  1.2000 -0.2542
53040SOL     OW69433   7.202   1.366  10.580 -0.0315  0.0415  0.4974
53040SOL    HW169434   7.296   1.384  10.593  0.2311 -0.5440 -0.4829
53040SOL    HW269435   7.158   1.433  10.632  0.9219 -0.7572  2.4558
53041SOL     OW69436   1.196   0.537  11.819  0.3051 -0.0362  0.3863
53041SOL    HW169437   1.182   0.629  11.841  0.1814 -0.3678  1.8062
53041SOL    HW269438   1.109   0.503  11.801  0.1310 -0.2757  1.6057
53042SOL     OW69439   8.170   9.957   3.136  0.1251  0.3056  0.1037
53042SOL    HW169440   8.089   9.997   3.106  0.4098 -0.4125 -1.8021
53042SOL    HW269441   8.234  10.028   3.134 -0.3029  0.7314  1.0212
53043SOL     OW69442   2.563   0.394  11.088 -0.2452 -0.1615 -1.0105
53043SOL    HW169443   2.625   0.322  11.093  0.4422  0.4409 -0.6636
53043SOL    HW269444   2.584   0.439  11.006  0.4473  0.6241 -0.4184
53044SOL     OW69445   5.420   2.288   0.568 -0.0246 -0.4384 -0.2922
53044SOL    HW169446   5.330   2.277   0.598 -0.6710 -0.5202 -2.1082
53044SOL    HW269447   5.411   2.334   0.484  1.5589 -1.2992 -0.9656
53045SOL     OW69448   1.422   8.720  11.620  0.3192  0.1758 -0.9111
53045SOL    HW169449   1.485   8.786  11.589  2.2367 -0.6275  1.0409
53045SOL    HW269450   1.387   8.757  11.701 -0.5941 -0.0869 -1.1733
53046SOL     OW69451   1.813  11.156   8.275 -0.3119  0.0198 -0.0995
53046SOL    HW169452   1.852  11.193   8.196 -1.0255 -0.0641 -0.4968
53046SOL    HW269453   1.799  11.231   8.332  2.3531 -0.1522  0.9457
53047SOL     OW69454  11.247   1.302   2.793  0.0039 -0.5279 -0.1347
53047SOL    HW169455  11.152   1.309   2.778  0.0057 -1.6004 -0.7624
53047SOL    HW269456  11.276   1.392   2.807 -1.2023 -0.2461  0.6678
53048SOL     OW69457  11.115  11.573   5.363  0.2445 -0.1747 -0.1569
53048SOL    HW169458  11.135  11.665   5.347  1.1046 -0.0749  1.2988
53048SOL    HW269459  11.142  11.528   5.283  2.0668  0.5525  0.0080
53049SOL     OW69460   0.005   9.048   1.395 -0.0967 -0.4808 -0.1972
53049SOL    HW169461  -0.084   9.079   1.414 -0.8777 -3.1728  0.9943
53049SOL    HW269462  -0.008   8.964   1.351  1.8389 -1.3876  0.8653
53050SOL     OW69463   6.316   9.810  11.128 -0.2279 -0.3999 -0.2808
53050SOL    HW169464   6.221   9.793  11.133  0.0411 -1.6836  1.8210
53050SOL    HW269465   6.338   9.844  11.215  0.8285  2.6267 -1.6301
53051SOL     OW69466  11.651  12.208  10.642 -0.2955  0.3996 -0.3259
53051SOL    HW169467  11.737  12.196  10.602  0.9004  0.0112  2.2045
53051SOL    HW269468  11.640  12.133  10.699 -1.1951  1.6755  1.2709
53052SOL     OW69469   0.865  12.069   5.521  0.3258 -0.2142  0.0494
53052SOL    HW169470   0.785  12.020   5.502  0.9670 -1.1252 -0.3457
53052SOL    HW269471   0.891  12.106   5.437 -0.8865  1.9906  0.5682
53053SOL     OW69472  10.506   3.663   3.060 -0.0978 -0.1402  0.5539
53053SOL    HW169473  10.473   3.752   3.072 -4.6213 -1.4683 -0.2015
53053SOL    HW269474  10.547   3.641   3.144  0.6524  2.4005  0.9336
53054SOL     OW69475   0.836   8.244  12.972 -0.6365 -0.2323  0.3611
53054SOL    HW169476   0.791   8.318  13.013 -0.8593 -1.2411  2.0599
53054SOL    HW269477   0.909   8.283  12.925 -0.9798  1.1068  0.8876
53055SOL     OW69478   6.655  12.238  10.103 -0.5319 -0.0427 -0.1749
53055SOL    HW169479   6.613  12.219  10.187  0.7002 -0.5562  0.3569
53055SOL    HW269480   6.717  12.166  10.090  0.9115  1.1810 -0.4037
53056SOL     OW69481   3.459   8.883   1.250  0.4218  0.1473  0.0475
53056SOL    HW169482   3.462   8.913   1.159  0.3874  1.1460  0.3619
53056SOL    HW269483   3.551   8.882   1.278  0.3604  0.8839  0.3138
53057SOL     OW69484  11.919   0.863   2.768  0.1032  0.2342 -0.1623
53057SOL    HW169485  11.986   0.794   2.762 -0.8053 -0.7438  0.4983
53057SOL    HW269486  11.859   0.843   2.696 -0.6754 -0.2492  0.6070
53058SOL     OW69487   7.625  10.345  10.820  0.1488 -0.6810 -0.0708
53058SOL    HW169488   7.713  10.314  10.798  0.6014  0.7551 -0.3574
53058SOL    HW269489   7.583  10.269  10.861  1.3282 -1.5531 -0.4214
53059SOL     OW69490   3.000   0.122   6.144 -0.1809 -0.0469  0.1636
53059SOL    HW169491   2.946   0.079   6.077  0.4112 -1.9731  0.8505
53059SOL    HW269492   3.089   0.096   6.123  0.3312  1.6231  0.1134
53060SOL     OW69493   8.312   0.314   3.550  0.0404  0.1648  0.6530
53060SOL    HW169494   8.314   0.410   3.555 -0.6815  0.2122  0.2158
53060SOL    HW269495   8.394   0.286   3.591  1.6186  1.0830 -1.6442
53061SOL     OW69496  12.005   2.198   6.564  0.5190 -0.0431  0.4645
53061SOL    HW169497  11.919   2.190   6.522  0.0846  3.4105  0.4120
53061SOL    HW269498  11.989   2.176   6.656 -0.6038  1.1272  0.5781
53062SOL     OW69499   6.871   6.587   2.031 -0.2279 -0.1399 -0.5819
53062SOL    HW169500   6.963   6.592   2.059  0.4178 -0.4374 -2.4845
53062SOL    HW269501   6.860   6.662   1.972 -1.2068 -0.1383 -0.4148
53063SOL     OW69502   4.370   6.859   7.303  0.7427  0.7929 -0.0151
53063SOL    HW169503   4.379   6.825   7.392  1.3128  1.7322  0.2950
53063SOL    HW269504   4.460   6.874   7.273  0.6861 -1.3067 -1.4902
53064SOL     OW69505   7.032  11.114   5.251 -0.4093 -0.0522 -0.0943
53064SOL    HW169506   7.064  11.202   5.233 -1.1345  0.3211  0.3828
53064SOL    HW269507   7.096  11.056   5.210 -0.3563  0.7070 -1.1158
53065SOL     OW69508   5.096   2.134   6.304  0.1126  0.5208 -0.4405
53065SOL    HW169509   5.156   2.069   6.266 -2.3332 -1.9890 -0.3358
53065SOL    HW269510   5.012   2.089   6.308 -1.4449  3.3083  0.9594
53066SOL     OW69511   0.189   2.692  10.445 -0.2057 -0.6061  0.0058
53066SOL    HW169512   0.275   2.709  10.406 -1.1142  1.4617 -1.2874
53066SOL    HW269513   0.201   2.613  10.498  2.7367  0.2240  0.7310
53067SOL     OW69514   1.399   8.315   3.432  0.4025  0.5579 -0.0109
53067SOL    HW169515   1.333   8.378   3.403  0.1913 -0.3726 -1.6496
53067SOL    HW269516   1.358   8.229   3.420  2.0431 -0.0741 -1.5891
53068SOL     OW69517  11.518   8.862  10.224 -0.2305 -0.1389  0.4038
53068SOL    HW169518  11.514   8.955  10.199  0.0197 -0.4899 -1.0158
53068SOL    HW269519  11.432   8.827  10.199  0.4747 -0.7868 -1.2819
53069SOL     OW69520   1.710  11.280   3.163 -0.3062 -0.0423 -0.0922
53069SOL    HW169521   1.631  11.320   3.201  0.8503  0.7550  1.6235
53069SOL    HW269522   1.764  11.354   3.135  1.0556 -0.3943  1.4245
53070SOL     OW69523   9.866  11.708   7.177  0.0670 -0.0454 -0.7990
53070SOL    HW169524   9.929  11.637   7.162 -1.3621 -1.4809 -0.4087
53070SOL    HW269525   9.886  11.773   7.110  1.7023 -0.6114 -0.9156
53071SOL     OW69526   1.980   7.114   4.798 -0.4946 -0.0435  0.4947
53071SOL    HW169527   1.940   7.098   4.884 -0.9177  0.6880  0.4509
53071SOL    HW269528   1.956   7.038   4.745  0.1533 -0.7200  1.1477
53072SOL     OW69529   1.828   7.360   4.207  0.4450  0.4239 -0.2233
53072SOL    HW169530   1.790   7.417   4.274 -0.8247 -0.7892  0.1351
53072SOL    HW269531   1.835   7.416   4.130  0.2383  1.3506  0.4106
53073SOL     OW69532   0.902   3.149   0.436 -0.2712 -0.0019  0.1761
53073SOL    HW169533   0.965   3.093   0.481 -0.5456 -0.1417  0.3912
53073SOL    HW269534   0.822   3.096   0.430 -0.7704  0.6078  1.0475
53074SOL     OW69535  12.128   1.797  11.212  0.4403  0.4824 -0.3151
53074SOL    HW169536  12.162   1.886  11.223 -1.6459  1.1251  1.7262
53074SOL    HW269537  12.033   1.808  11.206  0.2389 -1.5103 -1.7258
53075SOL     OW69538   8.191   7.989   8.314 -0.0216 -0.5832 -0.0226
53075SOL    HW169539   8.104   7.989   8.355 -0.1550 -0.9212 -0.2981
53075SOL    HW269540   8.183   8.053   8.242 -0.1199 -0.8036 -0.2079
53076SOL     OW69541   8.200  11.254   1.953 -0.6075  0.2116 -0.6724
53076SOL    HW169542   8.184  11.331   1.900  1.1128  1.1625  0.1069
53076SOL    HW269543   8.197  11.285   2.043  3.6169  0.3110 -0.3284
53077SOL     OW69544  11.985   2.495   9.493  0.1179 -0.8016 -0.1602
53077SOL    HW169545  11.948   2.582   9.505 -0.3822 -1.0544  0.1744
53077SOL    HW269546  12.080   2.509   9.488 -0.0386 -0.0434 -1.8811
53078SOL     OW69547   2.354   3.971   3.570 -0.6058 -0.1978  0.1167
53078SOL    HW169548   2.402   3.968   3.487  1.8635 -3.1835  1.4565
53078SOL    HW269549   2.399   4.039   3.620 -0.0752 -0.5124  0.0779
53079SOL     OW69550   1.688   6.437  12.061  0.1412  0.8306  0.3064
53079SOL    HW169551   1.762   6.378  12.049  0.5290  0.3250  3.9700
53079SOL    HW269552   1.726   6.525  12.051  1.2750  0.5752  1.9852
53080SOL     OW69553   9.339   9.356   3.987  0.6180 -0.4440  0.1000
53080SOL    HW169554   9.423   9.318   4.013  1.3510  1.1723  0.2193
53080SOL    HW269555   9.342   9.358   3.891  1.8730  1.9833  0.1391
53081SOL     OW69556   9.658   9.739   6.893 -0.5100  0.1245  0.2365
53081SOL    HW169557   9.648   9.818   6.946  2.0126 -0.5687  1.9148
53081SOL    HW269558   9.749   9.740   6.864 -1.2609 -0.5929 -2.4826
53082SOL     OW69559   3.727   2.702   4.819 -0.1420  0.1881  0.1715
53082SOL    HW169560   3.818   2.708   4.790 -0.2911 -1.5975 -0.8416
53082SOL    HW269561   3.709   2.787   4.858  1.2341  1.4659 -1.7536
53083SOL     OW69562   4.647   2.838   4.687 -0.1352  0.1849 -0.0483
53083SOL    HW169563   4.639   2.762   4.746 -0.6653  1.8644  2.1960
53083SOL    HW269564   4.569   2.890   4.705  0.8969  1.9477 -0.4452
53084SOL     OW69565   2.689   0.366   5.570 -0.6772 -0.1928  0.4263
53084SOL    HW169566   2.646   0.345   5.487  0.1694  1.7076 -0.5599
53084SOL    HW269567   2.773   0.320   5.566 -0.5926 -0.0173  0.1835
53085SOL     OW69568   3.169   9.029   1.574  0.2650 -0.6698  0.4274
53085SOL    HW169569   3.169   9.087   1.650  1.5204 -0.3981  0.2561
53085SOL    HW269570   3.079   8.997   1.567 -0.9760  2.5535 -0.4583
53086SOL     OW69571  12.357   2.357   2.419 -0.7517 -0.0535 -0.0798
53086SOL    HW169572  12.311   2.275   2.402 -0.5731 -0.4241  1.1654
53086SOL    HW269573  12.396   2.345   2.505 -0.7736  1.3748  0.1434
53087SOL     OW69574   5.185   7.866   0.904  0.3281 -0.1819  0.3860
53087SOL    HW169575   5.266   7.906   0.938  0.8313  0.2902 -1.2834
53087SOL    HW269576   5.178   7.898   0.814 -2.4923  0.9494  0.8847
53088SOL     OW69577   8.877   2.427   2.996 -0.0257  0.1429  0.8886
53088SOL    HW169578   8.841   2.497   3.051 -1.6942 -0.0071  0.0654
53088SOL    HW269579   8.803   2.399   2.943  1.3985 -0.0421 -1.0986
53089SOL     OW69580   0.661  10.933   5.346 -0.0608 -0.1038 -0.0592
53089SOL    HW169581   0.621  11.001   5.292  0.4539  1.1349  1.0662
53089SOL    HW269582   0.701  10.981   5.419  1.1815 -1.5345  0.2335
53090SOL     OW69583   9.742   3.628   2.513 -0.2548  0.2068 -0.5023
53090SOL    HW169584   9.821   3.575   2.501  1.6363  2.2697  1.7985
53090SOL    HW269585   9.703   3.595   2.595  1.5412  2.8025  1.5685
53091SOL     OW69586  12.704  11.327  10.647  0.0384  0.4891 -0.3688
53091SOL    HW169587  12.649  11.287  10.714  3.1055 -1.3675  1.2528
53091SOL    HW269588  12.777  11.366  10.695  1.6266  0.3747 -2.4940
53092SOL     OW69589   2.330   0.716  12.448 -0.3333 -0.7979  0.1041
53092SOL    HW169590   2.317   0.671  12.531 -0.4939 -0.0579  0.4844
53092SOL    HW269591   2.370   0.650  12.391 -1.3199 -1.6688  0.3860
53093SOL     OW69592   7.702  10.670  12.761 -0.4437 -0.0265 -0.2565
53093SOL    HW169593   7.675  10.718  12.839 -2.9020  0.9254 -1.5910
53093SOL    HW269594   7.742  10.736  12.704  1.9310 -0.8315  0.3709
53094SOL     OW69595   8.579   8.556   8.297  0.2169 -0.6469 -0.4485
53094SOL    HW169596   8.543   8.504   8.369 -0.6325  2.0056  1.1813
53094SOL    HW269597   8.636   8.620   8.340 -1.0127  1.5966 -1.9962
53095SOL     OW69598   6.851   9.224   6.411  0.2599  0.4767  0.2597
53095SOL    HW169599   6.871   9.138   6.373 -1.1473 -0.0046  0.5321
53095SOL    HW269600   6.928   9.245   6.463  0.2761 -1.0705  0.9223
53096SOL     OW69601   6.956   6.855   8.057 -0.6494 -0.1294  0.3745
53096SOL    HW169602   6.956   6.786   7.991 -2.2198 -1.1248  1.3505
53096SOL    HW269603   6.969   6.936   8.008  2.0044 -1.1152 -0.7393
53097SOL     OW69604   6.500   9.329   2.787 -0.2116  0.1297  0.1090
53097SOL    HW169605   6.591   9.306   2.808 -0.4282 -0.1093  0.8047
53097SOL    HW269606   6.452   9.314   2.868 -1.2426 -1.7158 -0.7617
53098SOL     OW69607   0.968   2.343   8.589  0.0006  0.6191  0.0125
53098SOL    HW169608   0.944   2.433   8.569  3.0301  1.2643 -1.3199
53098SOL    HW269609   1.009   2.311   8.509  0.6555 -1.3214  1.0563
53099SOL     OW69610   0.726   2.732   0.025  0.1073 -0.0681  0.7456
53099SOL    HW169611   0.797   2.709  -0.035  0.2156  1.5308  0.2161
53099SOL    HW269612   0.750   2.689   0.108  2.4523  1.4886  0.9950
53100SOL     OW69613   8.945   0.909   6.967  0.0424  0.2618  0.0953
53100SOL    HW169614   8.928   0.882   7.057 -3.0681  0.5126 -0.3288
53100SOL    HW269615   9.010   0.979   6.974  0.4780 -0.2922  2.0362
53101SOL     OW69616   1.622   6.949   2.295 -0.1437 -0.1806  0.2899
53101SOL    HW169617   1.703   6.907   2.268  0.0961  0.0114  0.7069
53101SOL    HW269618   1.641   6.987   2.380 -1.6856 -3.3185  2.2481
53102SOL     OW69619   2.666   6.770   5.182 -0.1992 -0.0605  0.2114
53102SOL    HW169620   2.692   6.680   5.166 -1.0129 -0.2784  0.0576
53102SOL    HW269621   2.744   6.822   5.164 -0.0417 -0.6344 -0.7857
53103SOL     OW69622   7.226   0.291   5.877 -0.1066 -0.4291 -0.2270
53103SOL    HW169623   7.133   0.306   5.861  0.3996  0.9945 -2.1898
53103SOL    HW269624   7.259   0.373   5.912  0.4879 -0.8193  0.1529
53104SOL     OW69625   3.662   6.447   6.207 -0.1891  0.3320  0.0762
53104SOL    HW169626   3.691   6.466   6.296 -1.8386 -1.1844  0.9990
53104SOL    HW269627   3.602   6.519   6.186 -2.4060 -0.9493  1.5619
53105SOL     OW69628   7.951   8.139   3.526  0.3535  0.1776 -0.4776
53105SOL    HW169629   7.887   8.176   3.587  2.9635 -0.0197  2.6879
53105SOL    HW269630   7.913   8.056   3.498 -1.9854  1.3795 -1.1193
53106SOL     OW69631  11.423  10.839   2.348  0.1607 -0.4867  0.2658
53106SOL    HW169632  11.332  10.820   2.325  0.3828 -0.5362 -0.5878
53106SOL    HW269633  11.462  10.752   2.364  0.1806 -0.4929  0.1833
53107SOL     OW69634  10.900  12.490   8.654 -0.2577 -0.0415  0.1780
53107SOL    HW169635  10.924  12.415   8.601  1.5585 -1.6209  3.0098
53107SOL    HW269636  10.804  12.490   8.653 -0.2751 -1.2464 -1.3629
53108SOL     OW69637  12.276  10.072   5.831 -0.1650  0.2945  0.0271
53108SOL    HW169638  12.206  10.126   5.867  0.1868  0.4359  0.5246
53108SOL    HW269639  12.264  10.075   5.737 -0.6531  0.5546  0.0982
53109SOL     OW69640  11.184  12.206   3.091 -0.3344 -0.5057  0.1772
53109SOL    HW169641  11.246  12.150   3.043  0.3466 -0.4185  0.9386
53109SOL    HW269642  11.191  12.291   3.048 -0.1290 -0.5673  0.0861
53110SOL     OW69643   5.064   9.836  10.438 -0.0182 -0.4792 -0.4590
53110SOL    HW169644   4.989   9.824  10.495 -1.1928 -1.3499 -2.0989
53110SOL    HW269645   5.078   9.751  10.396  1.8556 -0.3245 -0.2652
53111SOL     OW69646  11.421   5.450   6.029 -0.2863 -0.6096 -0.0122
53111SOL    HW169647  11.441   5.479   5.940 -1.0981 -2.2160 -0.7657
53111SOL    HW269648  11.499   5.403   6.057 -0.0987 -0.2584  0.0540
53112SOL     OW69649   4.959   6.936   4.384  0.1153 -0.1676  0.3387
53112SOL    HW169650   4.989   6.851   4.415 -0.6073 -0.6106 -0.1581
53112SOL    HW269651   4.869   6.942   4.416  0.1393  0.3893  0.3143
53113SOL     OW69652  11.149   6.683   3.180 -0.2855 -0.4569  0.2626
53113SOL    HW169653  11.097   6.668   3.259  0.4618 -0.9990  0.6660
53113SOL    HW269654  11.216   6.746   3.208  0.6438 -1.4631  0.3762
53114SOL     OW69655   2.589   6.473   0.017 -0.1576 -0.1514 -0.5128
53114SOL    HW169656   2.532   6.428  -0.046  0.0043 -1.8454  0.4919
53114SOL    HW269657   2.678   6.454  -0.012 -0.0841 -0.1369 -0.3006
53115SOL     OW69658   7.036   9.919  11.652  0.0754  0.0892  0.0174
53115SOL    HW169659   7.126   9.895  11.675  0.1097  0.4831  0.2947
53115SOL    HW269660   7.033  10.014  11.660 -0.4721  0.0441  0.3870
53116SOL     OW69661   8.213   3.402   9.120  0.0630 -0.3581  0.8226
53116SOL    HW169662   8.240   3.458   9.048 -1.1213  0.0767  0.6996
53116SOL    HW269663   8.229   3.454   9.199 -1.2022  0.2379  0.6982
53117SOL     OW69664   4.339   5.684   5.388 -0.3637  0.4442  0.1419
53117SOL    HW169665   4.375   5.675   5.476 -1.2831 -0.5848  0.4423
53117SOL    HW269666   4.320   5.594   5.360  0.0407  0.7357 -1.1762
53118SOL     OW69667   3.075   3.462   6.854  0.2782 -0.2092  0.1010
53118SOL    HW169668   3.063   3.370   6.878 -2.2518  0.1488  0.5098
53118SOL    HW269669   3.085   3.507   6.937  0.5838  0.0013 -0.0478
53119SOL     OW69670  12.674   0.813   2.955 -0.1933 -0.3604  0.0775
53119SOL    HW169671  12.726   0.799   3.035  0.1174  2.0052  0.3720
53119SOL    HW269672  12.587   0.836   2.987 -0.3440 -0.4051 -0.2977
53120SOL     OW69673   9.576   1.839   1.772 -0.1959  0.4827 -0.2546
53120SOL    HW169674   9.535   1.873   1.693 -0.7978  0.3430 -0.0124
53120SOL    HW269675   9.627   1.764   1.742 -1.6856 -0.5595 -0.3208
53121SOL     OW69676   6.239   5.258   5.899  0.0537  0.4583  0.1567
53121SOL    HW169677   6.241   5.162   5.905  1.0866  0.2466 -2.3063
53121SOL    HW269678   6.321   5.286   5.939  2.4388 -0.1989 -3.7592
53122SOL     OW69679   5.965   5.585   5.531  0.2493  0.3404  0.1900
53122SOL    HW169680   5.889   5.550   5.577  0.1291 -1.6508 -1.3834
53122SOL    HW269681   6.018   5.626   5.600 -2.8702  3.1940  1.1444
53123SOL     OW69682   4.849   1.643   7.878 -0.1254  0.1318  0.4065
53123SOL    HW169683   4.934   1.646   7.922 -0.6005 -2.8310  1.7754
53123SOL    HW269684   4.795   1.586   7.933 -2.7919  1.2807 -0.8242
53124SOL     OW69685   6.679   5.069   1.112 -0.1105  0.3043  0.1344
53124SOL    HW169686   6.637   5.155   1.098 -2.5625 -1.1405 -2.3557
53124SOL    HW269687   6.699   5.037   1.025  2.2460 -1.0527  1.0922
53125SOL     OW69688  12.739  12.288  11.741 -0.0149 -0.4146 -0.1819
53125SOL    HW169689  12.706  12.338  11.815 -1.8210 -1.2630 -0.3527
53125SOL    HW269690  12.724  12.344  11.665  0.7231 -0.0330 -0.0523
53126SOL     OW69691  10.873   6.219   1.745 -0.0539 -0.1639 -0.0268
53126SOL    HW169692  10.865   6.222   1.840 -0.5784 -1.0575 -0.0345
53126SOL    HW269693  10.912   6.134   1.726  0.4064  0.1625 -0.5984
53127SOL     OW69694   8.660   2.658   0.529  0.0187  0.1501 -0.1399
53127SOL    HW169695   8.591   2.694   0.585  0.6175  0.7985  0.1959
53127SOL    HW269696   8.730   2.633   0.590  1.0648  1.7288 -0.6260
53128SOL     OW69697  11.397   7.597   0.005 -0.3143 -0.0926 -0.1230
53128SOL    HW169698  11.375   7.519   0.056 -0.2483  0.1691  0.3066
53128SOL    HW269699  11.431   7.659   0.069  0.0266  0.1400 -0.5255
53129SOL     OW69700   6.050   6.189   1.704 -0.1203  0.1964  0.4716
53129SOL    HW169701   6.016   6.251   1.639  0.0497 -0.1057  0.0893
53129SOL    HW269702   5.976   6.132   1.724  0.4581 -1.3255 -1.3763
53130SOL     OW69703   4.284  10.498   1.022 -0.0764 -0.1536 -0.6622
53130SOL    HW169704   4.342  10.430   1.055 -0.0539  0.3928  0.4455
53130SOL    HW269705   4.237  10.530   1.099 -0.4437  0.7416 -1.2418
53131SOL     OW69706   5.935   3.004   7.284  0.2341 -0.5931  0.2140
53131SOL    HW169707   5.891   3.006   7.199 -0.1927  1.1332  0.4502
53131SOL    HW269708   5.996   2.930   7.277 -0.7926 -1.3665 -1.0708
53132SOL     OW69709   4.230   1.974   7.472  0.1249 -0.2375 -0.0920
53132SOL    HW169710   4.161   2.039   7.470 -0.4241 -0.8119 -0.0738
53132SOL    HW269711   4.188   1.895   7.505  0.9874 -0.3667  0.7434
53133SOL     OW69712   3.964   2.807   6.648  0.2120  0.3333 -0.0880
53133SOL    HW169713   3.875   2.824   6.678  0.0542 -0.0350 -0.3348
53133SOL    HW269714   4.000   2.893   6.627 -1.0772  0.2926 -2.8057
53134SOL     OW69715   2.840  11.309  10.790 -0.1980  0.4613  0.4477
53134SOL    HW169716   2.934  11.320  10.799  0.3513 -2.5820 -0.6978
53134SOL    HW269717   2.816  11.245  10.857 -1.0477 -0.4106 -0.6454
53135SOL     OW69718   7.089  12.980  10.774  0.1075 -0.7349  0.3465
53135SOL    HW169719   7.062  12.905  10.721 -1.2266 -0.3168  0.3873
53135SOL    HW269720   7.175  13.004  10.740 -0.5802 -0.6657 -1.4670
53136SOL     OW69721   3.200   8.420   8.744 -0.2459 -0.0133 -0.2541
53136SOL    HW169722   3.111   8.398   8.716  0.5971 -2.1321 -1.5195
53136SOL    HW269723   3.249   8.427   8.662  1.2081 -1.1222  0.4776
53137SOL     OW69724   3.292   1.270   5.555  0.2948 -0.2723  0.0061
53137SOL    HW169725   3.223   1.204   5.561  0.1869 -0.1315  0.3518
53137SOL    HW269726   3.324   1.279   5.645 -1.3261  1.8815  0.4501
53138SOL     OW69727   0.371   2.236   3.597  0.2764  0.0633  0.3418
53138SOL    HW169728   0.346   2.154   3.555 -0.3012  0.1495  0.5072
53138SOL    HW269729   0.402   2.291   3.524 -0.0952 -0.0194  0.1169
53139SOL     OW69730   4.719   1.703   5.092 -0.0639 -0.1312 -0.4449
53139SOL    HW169731   4.742   1.724   5.002 -1.8110 -0.3903 -0.9866
53139SOL    HW269732   4.647   1.640   5.085 -0.0587 -0.3556  1.1241
53140SOL     OW69733  10.869   4.795   0.991 -0.2121  0.1734  0.1700
53140SOL    HW169734  10.856   4.853   0.916 -1.9320 -0.1662  0.1630
53140SOL    HW269735  10.960   4.766   0.983  0.3869  2.0902 -0.3534
53141SOL     OW69736   5.437   0.373   3.549  0.1822 -0.1274  0.0607
53141SOL    HW169737   5.446   0.345   3.640 -1.1872 -0.4473  0.1183
53141SOL    HW269738   5.527   0.386   3.519  0.7333 -1.4441  1.0227
53142SOL     OW69739  11.608   6.591  12.616 -0.5953  0.3781 -0.3445
53142SOL    HW169740  11.650   6.644  12.684 -0.9905 -0.3684  0.4939
53142SOL    HW269741  11.679   6.570  12.555  0.2032 -0.5335  0.8433
53143SOL     OW69742   8.883   3.741   6.798  0.0563 -0.2731  0.0336
53143SOL    HW169743   8.837   3.764   6.717  2.0937 -0.2477 -1.1747
53143SOL    HW269744   8.880   3.646   6.800 -0.3474 -0.2598  0.1488
53144SOL     OW69745   8.578   0.510   1.495 -0.0182 -0.2738 -0.0302
53144SOL    HW169746   8.487   0.505   1.524  0.7104 -0.6624  2.3837
53144SOL    HW269747   8.600   0.603   1.504 -0.1837 -0.1731 -0.6545
53145SOL     OW69748   7.683   0.509   2.021 -0.3037  0.9368  0.4296
53145SOL    HW169749   7.736   0.580   2.058  3.5303 -1.8125  0.8265
53145SOL    HW269750   7.711   0.431   2.069 -1.1345 -1.5179 -2.7426
53146SOL     OW69751   3.742   7.735  10.931 -0.0777  0.1034 -0.5406
53146SOL    HW169752   3.813   7.727  10.994 -0.7736 -0.0291  0.2383
53146SOL    HW269753   3.769   7.680  10.857  0.8273  0.4050 -0.4535
53147SOL     OW69754   7.892  10.447   0.707  0.2439  0.1527  0.3470
53147SOL    HW169755   7.865  10.537   0.691 -0.1387 -0.0481 -0.1681
53147SOL    HW269756   7.810  10.397   0.704  0.3418 -0.1042  1.4661
53148SOL     OW69757  12.879  12.859  10.550 -0.1583 -0.2490 -0.3418
53148SOL    HW169758  12.848  12.941  10.511  2.8854  1.8515  1.1978
53148SOL    HW269759  12.937  12.822  10.483 -2.4428 -1.9190 -1.5205
53149SOL     OW69760   5.108   9.902   5.418 -0.3362  0.0816  0.0875
53149SOL    HW169761   5.144   9.867   5.337  0.3172 -2.0037  1.1904
53149SOL    HW269762   5.179   9.953   5.456 -0.4818  0.6578 -0.3982
53150SOL     OW69763   1.981   3.486  12.885  0.2974 -0.0076  0.2486
53150SOL    HW169764   2.073   3.476  12.907 -0.3156 -1.2730  2.7014
53150SOL    HW269765   1.955   3.401  12.849 -0.1368 -0.0429  0.6331
53151SOL     OW69766   7.567  10.439   3.077  0.1048  0.0699  0.3013
53151SOL    HW169767   7.598  10.352   3.054  0.3089  0.2939 -0.2981
53151SOL    HW269768   7.568  10.441   3.172 -1.6062 -1.2006  0.4032
53152SOL     OW69769   4.395   8.986   5.330  0.1358  0.4241  0.2743
53152SOL    HW169770   4.391   8.918   5.397  0.4284  0.4575  0.3277
53152SOL    HW269771   4.443   8.944   5.258  2.0258  1.1754  1.0321
53153SOL     OW69772   9.762  10.418   7.661  0.4468 -0.4846 -0.5697
53153SOL    HW169773   9.727  10.457   7.741  0.2823  0.3054 -1.0218
53153SOL    HW269774   9.782  10.328   7.686  0.3811 -0.2558  0.3583
53154SOL     OW69775   8.589   0.560   0.289 -0.4118 -0.0103  0.3570
53154SOL    HW169776   8.625   0.578   0.376  0.7804 -2.1909  0.3934
53154SOL    HW269777   8.615   0.469   0.271 -0.7148  0.3493 -2.2352
53155SOL     OW69778   5.192   0.626   4.922  0.3054 -0.5150  0.5837
53155SOL    HW169779   5.222   0.601   4.835 -0.2003 -0.3621  0.3635
53155SOL    HW269780   5.097   0.627   4.916  0.1680 -2.3546  1.6503
53156SOL     OW69781   2.109   9.602   1.613 -0.4511  0.3303  0.1727
53156SOL    HW169782   2.035   9.541   1.613  0.0658 -0.3649 -2.0004
53156SOL    HW269783   2.186   9.546   1.627 -0.1695  0.8197  0.6141
53157SOL     OW69784   5.362   2.697   2.604  0.1727 -0.2544  0.2835
53157SOL    HW169785   5.393   2.735   2.686 -0.2090  1.6070 -0.3989
53157SOL    HW269786   5.426   2.726   2.538 -1.0772  0.6944 -0.5445
53158SOL     OW69787   1.596  10.268  12.418 -0.7762 -0.0310  0.2818
53158SOL    HW169788   1.504  10.244  12.410 -0.9327  0.6238 -0.0162
53158SOL    HW269789   1.619  10.303  12.332  0.1078 -1.3377 -0.0483
53159SOL     OW69790  10.310   6.503   5.057  0.1520  0.6054  0.4986
53159SOL    HW169791  10.302   6.575   4.994 -0.6837  0.0949 -0.0112
53159SOL    HW269792  10.391   6.458   5.032 -0.8216 -0.3674 -1.0905
53160SOL     OW69793   6.809  10.649   6.926 -0.1869  0.0334  0.0606
53160SOL    HW169794   6.802  10.716   6.859 -1.7838 -0.7830 -0.6265
53160SOL    HW269795   6.904  10.635   6.936  0.0940  0.5907 -1.5816
53161SOL     OW69796   4.764  10.656   5.982 -0.1506 -0.0833  0.2845
53161SOL    HW169797   4.817  10.610   5.917 -0.2833  0.4284 -0.1947
53161SOL    HW269798   4.762  10.597   6.058 -2.1889 -1.9419 -1.0969
53162SOL     OW69799   3.008   9.665   7.323  0.1759 -0.4997 -0.4193
53162SOL    HW169800   3.025   9.733   7.258  2.2334 -1.1885 -0.6793
53162SOL    HW269801   2.972   9.712   7.398 -2.2343  0.3250 -1.9522
53163SOL     OW69802   4.724   2.959  10.779  0.4572  0.2865 -0.3514
53163SOL    HW169803   4.749   2.899  10.709 -2.7943  0.9861 -2.3277
53163SOL    HW269804   4.719   3.045  10.736 -2.6162  0.5787  0.3372
53164SOL     OW69805  11.275  10.480   3.659 -0.2969 -0.4880 -0.3034
53164SOL    HW169806  11.273  10.426   3.739  0.2483  0.9574  0.7271
53164SOL    HW269807  11.185  10.479   3.627 -1.1000  0.8185  1.6924
53165SOL     OW69808  11.670   6.887  10.612  0.0932  0.5063  0.3056
53165SOL    HW169809  11.642   6.798  10.591 -3.6749  1.0865  1.9656
53165SOL    HW269810  11.737   6.876  10.680 -0.0587 -1.0607  0.2377
53166SOL     OW69811  10.170   2.296   0.872  0.2242 -0.4882  0.4997
53166SOL    HW169812  10.130   2.216   0.905 -2.6227 -0.2593 -2.0212
53166SOL    HW269813  10.256   2.269   0.841 -0.7963 -2.6852 -0.6109
53167SOL     OW69814   7.620   7.438   4.215  0.3422  0.2367  0.1897
53167SOL    HW169815   7.714   7.423   4.225  0.2256 -0.0149  0.9660
53167SOL    HW269816   7.608   7.530   4.237 -0.0245 -0.4815  3.5437
53168SOL     OW69817   8.426   1.419   2.183 -0.7438 -0.1202 -0.4238
53168SOL    HW169818   8.368   1.344   2.197 -1.6517  0.6675  0.2434
53168SOL    HW269819   8.465   1.434   2.269 -0.5874  0.1896 -0.5493
53169SOL     OW69820  11.772   4.228   4.355  0.5706 -0.1790 -0.2005
53169SOL    HW169821  11.777   4.281   4.435  0.2935  0.5509 -0.6503
53169SOL    HW269822  11.810   4.284   4.287  3.5611 -1.8746 -0.0972
53170SOL     OW69823   4.046   6.580  12.138 -1.0001  0.0054 -0.3886
53170SOL    HW169824   4.015   6.669  12.123 -0.3116  0.1008 -1.2932
53170SOL    HW269825   4.074   6.549  12.052 -0.3049 -0.7342  0.0899
53171SOL     OW69826   3.915   7.752   5.545  0.2823  0.2733  0.3363
53171SOL    HW169827   3.848   7.797   5.597  0.3711  0.6338  0.1381
53171SOL    HW269828   3.995   7.800   5.561  0.6608 -0.5898  1.1390
53172SOL     OW69829   6.821   1.905   5.145  0.0901  0.8252  0.2435
53172SOL    HW169830   6.755   1.907   5.076  0.1594  0.1532  0.1551
53172SOL    HW269831   6.902   1.882   5.100  0.2106  0.7764  0.4869
53173SOL     OW69832   1.544   7.604   5.081 -0.1637 -0.0691 -0.1837
53173SOL    HW169833   1.613   7.592   5.016 -0.7504 -1.3422 -0.5927
53173SOL    HW269834   1.576   7.557   5.158  0.3614  1.1263  0.3670
53174SOL     OW69835   1.953   4.630   2.853  0.0936 -0.1887  0.2220
53174SOL    HW169836   1.941   4.671   2.939  0.6473 -0.9012  0.6553
53174SOL    HW269837   1.899   4.682   2.794  1.4701  1.7363  0.5680
53175SOL     OW69838   8.676   2.283   1.202 -0.2597 -0.2742 -0.1695
53175SOL    HW169839   8.699   2.360   1.256  0.3197 -1.6262  1.6328
53175SOL    HW269840   8.590   2.256   1.234 -1.0441  0.3414 -1.6873
53176SOL     OW69841   8.590   3.928   4.734  0.2785  0.0660 -0.0593
53176SOL    HW169842   8.535   4.003   4.760 -0.2633 -0.1257 -0.6273
53176SOL    HW269843   8.531   3.853   4.741  0.7396 -0.2716  0.2248
53177SOL     OW69844   4.815  11.396   9.058 -0.2008 -0.1997 -0.1392
53177SOL    HW169845   4.909  11.407   9.073  0.0590 -1.4130 -0.7634
53177SOL    HW269846   4.809  11.354   8.972 -1.3601  0.7184 -0.5296
53178SOL     OW69847   4.336  12.738   5.413  0.5862 -0.1902 -0.4856
53178SOL    HW169848   4.365  12.804   5.475 -0.9141 -0.9045  1.0619
53178SOL    HW269849   4.395  12.664   5.428  1.7662  0.4576 -1.6741
53179SOL     OW69850   3.718   3.017   1.304  0.2973 -0.3756 -0.3563
53179SOL    HW169851   3.727   3.059   1.219  1.7920  0.5037  0.1951
53179SOL    HW269852   3.704   3.089   1.366  0.1495 -0.9222  0.2658
53180SOL     OW69853  11.553   1.715   7.768 -0.1312 -0.0161 -0.3217
53180SOL    HW169854  11.582   1.624   7.775  1.0396  0.4604  1.6454
53180SOL    HW269855  11.589   1.758   7.845 -1.3126  1.9628 -0.8029
53181SOL     OW69856   1.571   8.254   2.923  0.0635 -0.1229 -0.2656
53181SOL    HW169857   1.639   8.188   2.910  1.4385  1.0241  0.6804
53181SOL    HW269858   1.569   8.303   2.841  3.0883  2.1400  0.8258
53182SOL     OW69859   5.390   9.791   0.588 -0.6077  0.2185  0.0551
53182SOL    HW169860   5.328   9.752   0.527 -0.0427 -1.4611  0.4909
53182SOL    HW269861   5.470   9.803   0.537 -0.8663  1.1040 -0.1527
53183SOL     OW69862   1.168   9.437   8.881 -0.4153 -0.0465  0.1746
53183SOL    HW169863   1.221   9.496   8.934 -0.6932  0.8099 -0.4734
53183SOL    HW269864   1.083   9.434   8.926 -0.0374 -0.9167  0.8622
53184SOL     OW69865  10.571   0.324   4.062 -0.0219 -0.0618  0.1246
53184SOL    HW169866  10.629   0.256   4.028 -0.6607 -0.0383 -1.0736
53184SOL    HW269867  10.510   0.342   3.990 -1.0876  0.3900  1.1018
53185SOL     OW69868   2.457   3.952  10.314 -0.2901  0.4409  0.1271
53185SOL    HW169869   2.377   3.994  10.281  0.0769  1.4538  0.4794
53185SOL    HW269870   2.480   4.003  10.392 -0.7673 -1.5073  1.6114
53186SOL     OW69871  12.570  10.888   0.967  0.3449 -0.5602  0.5147
53186SOL    HW169872  12.593  10.981   0.965 -1.1480 -0.1690 -0.7459
53186SOL    HW269873  12.641  10.845   0.921 -0.7455  0.4925 -2.4121
53187SOL     OW69874   2.868   6.146   1.166  0.2879  0.5386 -0.2278
53187SOL    HW169875   2.852   6.120   1.257 -2.5484 -1.3733 -1.1209
53187SOL    HW269876   2.949   6.101   1.142 -0.3715 -1.2152  0.6244
53188SOL     OW69877  11.166   9.648   8.495 -0.1212  0.6751  0.4656
53188SOL    HW169878  11.121   9.614   8.573 -0.0309  1.4908  0.8878
53188SOL    HW269879  11.114   9.616   8.421 -0.4255  0.2081  0.8758
53189SOL     OW69880   0.445   1.981   1.389  0.0614 -0.2758 -0.6262
53189SOL    HW169881   0.438   1.886   1.399 -1.3412 -0.2647 -1.3323
53189SOL    HW269882   0.529   1.994   1.344 -0.0639 -1.2247 -1.1553
53190SOL     OW69883   9.849   4.812   9.667  0.0052  0.8142 -0.5904
53190SOL    HW169884   9.912   4.883   9.681 -1.4720  1.9867  0.4587
53190SOL    HW269885   9.850   4.762   9.749  0.3166  0.1959 -0.9629
53191SOL     OW69886   6.820   9.653   4.972  0.0161  0.7373 -0.3044
53191SOL    HW169887   6.852   9.641   5.062 -0.7629  1.0008  0.0212
53191SOL    HW269888   6.807   9.564   4.939 -2.3914  0.5617  0.8684
53192SOL     OW69889  11.313   1.058   5.992 -0.3781 -0.3284  0.0242
53192SOL    HW169890  11.270   1.141   6.014  0.6248  0.0614  0.6026
53192SOL    HW269891  11.348   1.071   5.904  0.5541  0.2186  0.4529
53193SOL     OW69892  12.430   6.141   9.888 -0.0318 -0.1409  0.3825
53193SOL    HW169893  12.353   6.085   9.892 -1.6688  2.0081  1.0174
53193SOL    HW269894  12.500   6.089   9.927 -1.2876 -1.9483  0.3303
53194SOL     OW69895   0.034   1.455   7.940 -0.4794  0.4161 -0.3974
53194SOL    HW169896   0.006   1.412   8.022  0.3991 -0.2070 -0.4125
53194SOL    HW269897  -0.045   1.458   7.887 -1.2694  1.5812  0.7898
53195SOL     OW69898  11.272   2.851   2.996 -0.0577 -0.1443 -0.6616
53195SOL    HW169899  11.358   2.843   2.956  0.6003 -0.4909  0.7541
53195SOL    HW269900  11.279   2.927   3.054 -0.0196 -1.3974  1.0423
53196SOL     OW69901   7.892   0.610   6.300  0.3215  0.5145 -0.7664
53196SOL    HW169902   7.839   0.688   6.284 -1.2581  0.4673  3.1216
53196SOL    HW269903   7.828   0.538   6.304  1.1914 -0.2301  0.0950
53197SOL     OW69904   3.151   7.734   8.151 -0.7787 -0.1372 -0.2498
53197SOL    HW169905   3.118   7.645   8.164 -1.6888  0.1251 -0.7008
53197SOL    HW269906   3.089   7.790   8.197 -0.9147  0.3573 -1.0163
53198SOL     OW69907   3.167  11.131   2.926 -0.1415  0.2780 -0.6711
53198SOL    HW169908   3.226  11.163   2.994  0.3036 -1.6285 -0.1133
53198SOL    HW269909   3.081  11.162   2.953  0.0891 -0.0734  0.5230
53199SOL     OW69910   6.470   3.130   0.275 -0.0539  0.1958  0.2565
53199SOL    HW169911   6.441   3.044   0.245  1.1301 -0.6860  1.4882
53199SOL    HW269912   6.514   3.168   0.199 -1.7027  0.2862 -0.6934
53200SOL     OW69913   0.221   4.912   2.862 -0.1235  0.0233  0.1503
53200SOL    HW169914   0.223   5.007   2.865 -0.3147  0.0282  0.1282
53200SOL    HW269915   0.133   4.891   2.829 -0.0837 -0.1593  0.1610
53201SOL     OW69916   3.789   6.464   5.118 -0.2302 -0.3187 -0.2050
53201SOL    HW169917   3.781   6.385   5.171 -0.9488  0.2902  0.6330
53201SOL    HW269918   3.721   6.454   5.051 -1.3980  0.2773  0.8495
53202SOL     OW69919   9.823   8.868   8.600  0.4330 -0.3078 -0.0908
53202SOL    HW169920   9.782   8.869   8.514  1.0811  2.5866 -0.4678
53202SOL    HW269921   9.913   8.896   8.584  0.6990 -0.2018  1.4619
53203SOL     OW69922   4.632   8.785   8.606  0.0798  0.3799 -0.3401
53203SOL    HW169923   4.688   8.849   8.562 -1.3011  1.5289 -0.4716
53203SOL    HW269924   4.686   8.752   8.678  0.8783  1.5447 -0.3869
53204SOL     OW69925   0.937  10.289   2.397  0.9269 -0.5354  0.4194
53204SOL    HW169926   0.875  10.343   2.446 -0.8813 -2.1142  0.0271
53204SOL    HW269927   0.894  10.272   2.314  1.7857 -1.8498  0.2036
53205SOL     OW69928   8.586   0.932   1.868  0.0229 -0.1497 -0.1789
53205SOL    HW169929   8.544   1.017   1.880 -0.2517 -0.3991  0.7435
53205SOL    HW269930   8.516   0.868   1.884  0.5850 -0.5587  0.7704
53206SOL     OW69931   1.043   6.709   3.046  0.4832  0.6620 -0.4428
53206SOL    HW169932   1.035   6.673   2.958 -0.0342  0.3235 -0.2649
53206SOL    HW269933   0.963   6.681   3.090  1.1843 -0.0147  0.4392
53207SOL     OW69934   1.093  10.169   4.956  0.2541  0.4934 -0.2940
53207SOL    HW169935   1.151  10.244   4.944 -0.6412  1.4676  1.1076
53207SOL    HW269936   1.088  10.128   4.870  1.0833  1.8122 -0.9986
53208SOL     OW69937   0.315   3.586   5.763  0.3426 -0.6597  0.2515
53208SOL    HW169938   0.291   3.574   5.855 -0.5510 -1.7299 -0.1006
53208SOL    HW269939   0.385   3.523   5.748 -0.1830 -1.1762 -0.0481
53209SOL     OW69940   0.920   9.541   8.500 -0.1785 -0.4102  0.6579
53209SOL    HW169941   0.991   9.495   8.455  0.1094  0.5749  0.0657
53209SOL    HW269942   0.884   9.601   8.433 -0.2012  0.5850  1.5285
53210SOL     OW69943   4.209   9.830   0.700  0.1551  0.1239  0.8720
53210SOL    HW169944   4.140   9.796   0.643  0.5815 -0.6871  0.8259
53210SOL    HW269945   4.175   9.817   0.788  0.2280 -0.2411  0.8484
53211SOL     OW69946   0.634  10.366   7.377 -0.1339  0.3341 -0.4872
53211SOL    HW169947   0.696  10.370   7.305 -1.3571 -0.5379 -1.6338
53211SOL    HW269948   0.631  10.455   7.411 -0.2685  0.9977 -2.1522
53212SOL     OW69949  10.346  10.164   4.482 -0.7881 -1.2990  0.4944
53212SOL    HW169950  10.404  10.227   4.438 -1.5474 -0.5301  0.5716
53212SOL    HW269951  10.342  10.195   4.572  0.4080 -2.6166  1.0353
53213SOL     OW69952  10.976   2.711   1.679  0.0406  0.0550 -0.1823
53213SOL    HW169953  11.070   2.725   1.673  0.1833 -0.9110 -0.3395
53213SOL    HW269954  10.967   2.618   1.702 -0.8716  0.0675 -0.4500
53214SOL     OW69955   4.508   3.249   6.002 -0.2951  0.3376 -0.0489
53214SOL    HW169956   4.533   3.301   5.925  1.7655 -1.2006 -0.5008
53214SOL    HW269957   4.471   3.169   5.966  0.9300 -0.5112  0.5294
53215SOL     OW69958   0.390   7.132   2.214 -1.1038  0.6969  0.2541
53215SOL    HW169959   0.297   7.130   2.234 -0.9957 -0.9464  0.7160
53215SOL    HW269960   0.423   7.047   2.242  1.2632  2.4805  3.5891
53216SOL     OW69961  11.287   1.871   1.970 -0.6984 -0.2547  0.1914
53216SOL    HW169962  11.223   1.879   1.900  0.2396  1.2849 -0.5458
53216SOL    HW269963  11.369   1.850   1.925  0.1575  1.8440  0.6622
53217SOL     OW69964   5.797  12.250   5.343 -0.0514 -0.6119  0.5287
53217SOL    HW169965   5.734  12.178   5.338 -0.7184  0.0112 -0.3777
53217SOL    HW269966   5.742  12.329   5.351  0.5813 -0.0229 -0.7009
53218SOL     OW69967   6.790   6.415   4.886 -0.7681  0.0474  0.0010
53218SOL    HW169968   6.846   6.340   4.867 -0.0816  0.8129 -1.1002
53218SOL    HW269969   6.823   6.449   4.970  0.9070  0.9016 -0.9692
53219SOL     OW69970   1.881  10.567   5.649 -0.2615  0.1071 -0.0733
53219SOL    HW169971   1.899  10.478   5.618 -0.7754 -0.4011  1.0378
53219SOL    HW269972   1.955  10.618   5.617  0.6108 -0.9452  0.1774
53220SOL     OW69973   6.899   4.021   7.817  0.0349 -0.1013  0.4028
53220SOL    HW169974   6.895   3.963   7.892  0.6990 -0.0582  0.4753
53220SOL    HW269975   6.808   4.044   7.799 -0.3585 -2.0202 -0.3000
53221SOL     OW69976   9.917   1.181   9.662  0.3421  0.2719 -0.0294
53221SOL    HW169977   9.845   1.226   9.617  0.3372 -0.0584 -0.3561
53221SOL    HW269978   9.972   1.252   9.695  0.1378  0.5238 -0.2173
53222SOL     OW69979   2.334   2.026   2.151 -0.2321 -0.2168  0.2039
53222SOL    HW169980   2.369   2.056   2.234  0.3198 -2.1487  0.7277
53222SOL    HW269981   2.250   1.985   2.173 -0.2410 -0.4528 -0.2452
53223SOL     OW69982  11.785   9.581   6.211 -0.1281  0.4366  0.1596
53223SOL    HW169983  11.871   9.552   6.240 -0.4981 -0.4152  0.4411
53223SOL    HW269984  11.795   9.675   6.195  1.2486  0.0581 -1.3198
53224SOL     OW69985   9.851   3.302   2.693  0.1703 -0.5043 -0.1379
53224SOL    HW169986   9.826   3.214   2.721  0.7374 -0.6248  0.0021
53224SOL    HW269987   9.938   3.290   2.653  1.0407  0.2494  1.4287
53225SOL     OW69988   9.946   1.406   2.327 -0.1987  0.6540 -0.1631
53225SOL    HW169989   9.892   1.455   2.390 -1.2017  0.3954 -0.8075
53225SOL    HW269990   9.886   1.383   2.256  0.8724  0.7601 -1.1311
53226SOL     OW69991  11.373   7.600   9.453 -0.1332  0.0397 -0.4842
53226SOL    HW169992  11.426   7.677   9.472  0.4034 -0.3514 -0.3825
53226SOL    HW269993  11.406   7.532   9.512  0.3971 -0.7045 -1.5912
53227SOL     OW69994   7.394  11.058  12.255  0.0389 -0.5997  0.5630
53227SOL    HW169995   7.434  11.125  12.199 -1.2090 -1.6845 -1.7710
53227SOL    HW269996   7.306  11.090  12.273  0.5631 -0.0638  2.3582
53228SOL     OW69997   3.888   1.229  12.774 -0.2660  0.4074 -0.1882
53228SOL    HW169998   3.941   1.190  12.843  0.3448 -1.2779 -1.5623
53228SOL    HW269999   3.860   1.156  12.719 -0.0686  1.7416 -2.1923
53229SOL     OW70000  12.003   0.972   9.331  0.0986 -0.4708  0.2937
53229SOL    HW170001  12.086   1.013   9.354  0.2578 -0.4841 -0.2401
53229SOL    HW270002  11.963   0.949   9.415  0.3293  0.1379  0.5741
53230SOL     OW70003   2.777   2.980   1.783 -0.6927 -0.2587  0.1790
53230SOL    HW170004   2.727   3.062   1.785 -1.0955 -0.3759 -2.2013
53230SOL    HW270005   2.710   2.912   1.771 -0.1580 -0.6698 -0.5225
53231SOL     OW70006  11.145   5.336  11.571 -0.0736  1.0175 -0.2131
53231SOL    HW170007  11.109   5.403  11.629  1.3076  2.5342 -1.0346
53231SOL    HW270008  11.239   5.335  11.591 -0.1635 -1.2999  0.3635
53232SOL     OW70009   3.686   0.345  11.895  0.3924  0.1057  0.2990
53232SOL    HW170010   3.611   0.363  11.951  1.5515  0.7847  1.6909
53232SOL    HW270011   3.659   0.269  11.843 -1.9335  1.4480 -0.6006
53233SOL     OW70012   9.856  10.839   5.735  0.6174 -0.1027  0.1126
53233SOL    HW170013   9.817  10.878   5.813 -0.0370 -0.4307 -0.0475
53233SOL    HW270014   9.930  10.897   5.713  3.7505 -2.3219  3.5818
53234SOL     OW70015   5.017  12.303   5.811  0.0238  0.5247  0.4267
53234SOL    HW170016   5.093  12.345   5.852  1.0272 -0.8860  0.0925
53234SOL    HW270017   5.015  12.215   5.849  0.7153 -0.6895 -2.1121
53235SOL     OW70018   6.069   0.035   7.615 -0.3965 -0.4757  0.3007
53235SOL    HW170019   6.131   0.102   7.642 -0.6914  0.6090 -1.5222
53235SOL    HW270020   6.094  -0.043   7.664  1.0697  0.4900  1.1576
53236SOL     OW70021   9.941   2.054   5.343  0.6470 -0.2728 -0.2087
53236SOL    HW170022  10.023   2.102   5.355  0.2685 -0.0945  1.9927
53236SOL    HW270023   9.874   2.113   5.376 -0.5238 -0.1353 -2.6046
53237SOL     OW70024   6.754   5.341   4.914 -0.0994  0.1842 -0.1025
53237SOL    HW170025   6.696   5.361   4.987 -0.3133 -0.9716  0.0550
53237SOL    HW270026   6.838   5.322   4.954 -0.3430 -0.9581 -0.0903
53238SOL     OW70027   8.995  10.082   7.715 -0.0426  0.3144  0.1851
53238SOL    HW170028   9.031  10.083   7.627  1.2704  0.4946  0.6976
53238SOL    HW270029   9.039  10.156   7.759  0.5092 -0.7231  1.4269
53239SOL     OW70030  10.235   3.434  11.695  1.2126 -0.2912 -0.4033
53239SOL    HW170031  10.219   3.442  11.601  0.8936  0.6926 -0.2752
53239SOL    HW270032  10.148   3.429  11.734  1.3026  0.4813 -0.0777
53240SOL     OW70033   1.054  12.726   5.686  0.3373  0.7259 -0.0689
53240SOL    HW170034   0.979  12.671   5.709 -0.8155  2.2779 -0.0127
53240SOL    HW270035   1.111  12.723   5.763  0.0003  0.1152  0.1607
53241SOL     OW70036   2.357   4.366  11.291 -0.3982 -0.0793  0.2642
53241SOL    HW170037   2.409   4.297  11.250 -1.6383 -1.2981  0.6881
53241SOL    HW270038   2.383   4.446  11.245  1.0296 -0.8157 -0.2719
53242SOL     OW70039   0.646   7.113   9.950  0.4389  0.0298  0.0638
53242SOL    HW170040   0.673   7.163  10.027  0.1171 -0.0217  0.2095
53242SOL    HW270041   0.574   7.059   9.981  0.3563 -0.0446 -0.2586
53243SOL     OW70042   8.075   4.552   7.437  0.0793  0.2637  0.2731
53243SOL    HW170043   8.120   4.636   7.443 -1.4675  1.0785  0.9877
53243SOL    HW270044   8.125   4.503   7.371  0.4990  2.0575 -0.8185
53244SOL     OW70045   8.511   2.465  12.361 -0.1719  0.1599 -0.5321
53244SOL    HW170046   8.508   2.558  12.339 -1.6978  0.0057 -1.0620
53244SOL    HW270047   8.504   2.463  12.457 -0.5178  0.5783 -0.5448
53245SOL     OW70048  11.348   8.574  12.684  0.4650  0.1605 -0.1890
53245SOL    HW170049  11.332   8.648  12.743  1.6933  0.6865 -0.4866
53245SOL    HW270050  11.418   8.604  12.626  1.2346 -1.3495 -0.1023
53246SOL     OW70051   6.612  11.560   5.728 -0.1376 -0.3669 -0.5741
53246SOL    HW170052   6.674  11.507   5.679  1.2478  0.9199 -0.3051
53246SOL    HW270053   6.537  11.503   5.742  0.7397 -1.7893 -1.4210
53247SOL     OW70054  12.264   9.688   8.601 -0.2549 -0.6106  0.4052
53247SOL    HW170055  12.328   9.753   8.574 -1.0888 -0.1648 -0.5790
53247SOL    HW270056  12.311   9.631   8.662  1.5579 -1.2556 -1.4732
53248SOL     OW70057   6.050  10.903  10.157  0.0270 -0.1214  0.0749
53248SOL    HW170058   6.076  10.837  10.093 -2.0559  0.3053 -1.3167
53248SOL    HW270059   6.122  10.906  10.220  0.6686 -2.9396 -0.4031
53249SOL     OW70060  10.097  10.827   3.458  0.7867  0.1701  0.1432
53249SOL    HW170061  10.114  10.766   3.529 -1.1213  0.1741  0.6547
53249SOL    HW270062  10.141  10.908   3.485 -0.7466  0.4831  1.8439
53250SOL     OW70063   9.086   9.878  11.744 -0.2765  0.0851 -0.3892
53250SOL    HW170064   9.176   9.883  11.712 -0.5863  3.3535 -1.0499
53250SOL    HW270065   9.036   9.935  11.686 -2.0202  1.3967  2.2021
53251SOL     OW70066  11.353  12.737  10.021  0.5038 -0.0960 -0.2800
53251SOL    HW170067  11.327  12.657   9.975  0.1210 -0.5009  0.6264
53251SOL    HW270068  11.299  12.739  10.100  1.4181  0.3829  0.3524
53252SOL     OW70069  11.929   8.262   6.680  0.1395  0.0717 -0.5949
53252SOL    HW170070  11.993   8.305   6.737  0.1830 -0.0767 -0.5344
53252SOL    HW270071  11.918   8.324   6.607 -0.6872  0.7426  0.0752
53253SOL     OW70072  12.467  12.524   9.350 -0.3151 -0.6232 -0.4923
53253SOL    HW170073  12.496  12.537   9.440  0.6710  1.0394 -0.9987
53253SOL    HW270074  12.372  12.515   9.357 -0.4807  1.3195  0.6006
53254SOL     OW70075   5.555  12.362  10.783  0.1566  0.0059 -0.2072
53254SOL    HW170076   5.465  12.384  10.810  0.1157 -0.4413  0.0211
53254SOL    HW270077   5.607  12.373  10.862  0.8021  2.9443 -0.9196
53255SOL     OW70078   9.689  12.649   7.653  0.0544  0.0445 -0.2760
53255SOL    HW170079   9.616  12.691   7.698  1.0750 -0.9055  2.4556
53255SOL    HW270080   9.647  12.583   7.597 -1.2352  0.7061 -0.1311
53256SOL     OW70081  11.580  10.926   2.827  0.2692  0.2265  0.4530
53256SOL    HW170082  11.674  10.940   2.841  1.2159 -3.9745 -0.2202
53256SOL    HW270083  11.567  10.945   2.734  0.8505 -0.5149  0.2024
53257SOL     OW70084   4.697   9.079   1.124 -0.3875 -0.5639 -0.2216
53257SOL    HW170085   4.677   9.137   1.198 -1.2100 -0.5878 -0.4256
53257SOL    HW270086   4.745   9.135   1.063 -0.6121 -0.2684 -0.1309
53258SOL     OW70087   8.144   2.584   3.089 -0.0997 -0.4928  0.4331
53258SOL    HW170088   8.230   2.603   3.052  0.5442 -2.8373  0.5439
53258SOL    HW270089   8.163   2.544   3.174 -1.3555  0.1217  1.0254
53259SOL     OW70090   5.226   7.559   0.447  0.0761  0.0471 -0.2950
53259SOL    HW170091   5.187   7.558   0.535  0.2572  0.2761 -0.2088
53259SOL    HW270092   5.157   7.595   0.391  0.2702  0.7718 -0.0834
53260SOL     OW70093  11.880   5.339   8.497  0.0982  0.4801 -0.1537
53260SOL    HW170094  11.812   5.281   8.531 -0.3345  0.7771 -0.4982
53260SOL    HW270095  11.854   5.356   8.407  1.8822 -1.2913 -1.0861
53261SOL     OW70096   1.366   7.038   8.536  0.0963 -0.4360 -0.7345
53261SOL    HW170097   1.407   7.019   8.452  0.8676  0.7164 -0.6406
53261SOL    HW270098   1.432   7.016   8.601  0.0752  0.1568 -0.5084
53262SOL     OW70099  11.012   9.317   3.005  0.0366 -0.1372  0.5390
53262SOL    HW170100  11.026   9.284   3.094  0.9530 -0.1164  0.4167
53262SOL    HW270101  11.097   9.305   2.962 -0.2234  0.4273 -0.1437
53263SOL     OW70102   2.369   2.511   5.898 -0.8675 -0.0385 -0.1306
53263SOL    HW170103   2.413   2.427   5.912 -0.4363  0.4565  1.7989
53263SOL    HW270104   2.394   2.537   5.809  0.9027 -0.8587  0.0798
53264SOL     OW70105  12.177   9.291  11.251  0.2233  0.2015 -0.6163
53264SOL    HW170106  12.118   9.237  11.303  2.5646 -3.1359 -1.1576
53264SOL    HW270107  12.170   9.257  11.162  1.2248  1.2958 -1.1478
53265SOL     OW70108  12.776   5.474   2.135 -0.4096  1.0240  0.2841
53265SOL    HW170109  12.739   5.550   2.091 -2.1035 -0.1686 -0.4569
53265SOL    HW270110  12.701   5.435   2.181  0.3970 -0.2518  0.5514
53266SOL     OW70111   4.312   3.044   2.867 -0.1079 -0.2489  0.5555
53266SOL    HW170112   4.225   3.006   2.862 -0.0133 -0.9868  2.9863
53266SOL    HW270113   4.370   2.978   2.830 -0.3730 -0.7157  0.9601
53267SOL     OW70114  11.266   3.144   9.846  0.3442  0.2250  0.8361
53267SOL    HW170115  11.214   3.178   9.918 -1.0355  1.1036 -0.5120
53267SOL    HW270116  11.236   3.053   9.836  0.9799 -0.1020  1.7121
53268SOL     OW70117   2.237   3.264  11.193 -0.1350  0.1975  0.6167
53268SOL    HW170118   2.148   3.266  11.228 -0.2883 -2.3140  0.5476
53268SOL    HW270119   2.291   3.230  11.264  0.5412  0.4309  0.2284
53269SOL     OW70120   1.786  10.037   3.957  0.0340  0.4587 -0.1447
53269SOL    HW170121   1.775  10.031   3.862 -0.4068 -0.5751 -0.0377
53269SOL    HW270122   1.881  10.035   3.970  0.0869  0.2406 -0.5425
53270SOL     OW70123   4.157   1.489   9.992  0.3014  0.6359  0.2384
53270SOL    HW170124   4.206   1.570   9.976 -0.0188  0.9690  0.9276
53270SOL    HW270125   4.162   1.476  10.087 -0.6319  0.4772  0.2758
53271SOL     OW70126   9.291   0.936  12.322 -0.1533  0.4316 -0.6471
53271SOL    HW170127   9.327   1.024  12.329  1.8969 -0.4522  0.7559
53271SOL    HW270128   9.344   0.893  12.254 -1.2406  0.2832 -1.4369
53272SOL     OW70129   4.529   7.875   3.912  0.0572 -0.2759  0.6373
53272SOL    HW170130   4.559   7.950   3.859  0.1635 -0.4719  0.4199
53272SOL    HW270131   4.608   7.823   3.926 -0.1174 -0.6330  0.3230
53273SOL     OW70132   2.946   8.770  11.564 -0.0849  0.1781 -0.0801
53273SOL    HW170133   2.863   8.776  11.611 -0.9829  0.2033 -1.6140
53273SOL    HW270134   2.926   8.801  11.476  1.3181 -0.7655 -0.7649
53274SOL     OW70135   2.811  11.260   6.558 -0.2425 -0.3628  0.3203
53274SOL    HW170136   2.857  11.208   6.492 -0.4772 -0.2125  0.0360
53274SOL    HW270137   2.734  11.207   6.582  0.2193 -0.7475  1.0049
53275SOL     OW70138   3.483   2.927   3.629 -0.2120 -0.1634 -0.4424
53275SOL    HW170139   3.459   2.868   3.701  1.0367 -0.5069 -0.2788
53275SOL    HW270140   3.517   3.005   3.672 -0.5864  0.1229 -0.6625
53276SOL     OW70141  12.124   1.243   0.451  0.0359  0.1356  0.5369
53276SOL    HW170142  12.097   1.295   0.376  1.7086 -1.1909 -1.0676
53276SOL    HW270143  12.213   1.273   0.470  0.3652 -0.9057  0.6974
53277SOL     OW70144  10.709   5.655  11.493 -0.1215  0.0105  0.3754
53277SOL    HW170145  10.781   5.706  11.529  0.7224 -1.4902  0.9120
53277SOL    HW270146  10.637   5.667  11.555  0.4738 -0.4351  1.1744
53278SOL     OW70147   5.330   2.881   5.944  0.3885  0.1117  0.3120
53278SOL    HW170148   5.338   2.862   6.038  0.1380 -0.1105  0.2896
53278SOL    HW270149   5.418   2.865   5.909  0.6106  0.7000  0.5981
53279SOL     OW70150   1.650   0.050   3.708  0.5515  0.1157 -0.1611
53279SOL    HW170151   1.608   0.073   3.625 -0.0162 -0.2453  0.0218
53279SOL    HW270152   1.733   0.009   3.682  0.6333  0.5092 -0.5298
53280SOL     OW70153   2.412  10.322   0.379 -0.1098 -0.3100  0.3368
53280SOL    HW170154   2.353  10.250   0.359  1.3140 -1.4092 -0.0959
53280SOL    HW270155   2.460  10.293   0.457  0.6275  0.0622  0.0365
53281SOL     OW70156   7.886   0.740   0.245  0.4922  0.5909 -0.2043
53281SOL    HW170157   7.792   0.727   0.262  0.9104  0.8486  3.0904
53281SOL    HW270158   7.915   0.658   0.207 -0.8025 -0.1270  0.2693
53282SOL     OW70159   4.945   5.157   3.462  0.0256  0.0806 -0.4411
53282SOL    HW170160   4.996   5.209   3.525 -0.0936 -1.0680  0.6580
53282SOL    HW270161   4.930   5.216   3.389  1.0723  1.1412  0.1584
53283SOL     OW70162   9.650  10.053   6.423  0.1999  0.1522 -0.3214
53283SOL    HW170163   9.621   9.990   6.489 -0.5083  0.0823 -0.6844
53283SOL    HW270164   9.576  10.058   6.362  0.2686  1.3006 -0.3182
53284SOL     OW70165   6.526   6.153   2.823 -0.1273 -0.0439  0.6513
53284SOL    HW170166   6.484   6.147   2.909 -1.5827  2.7480  0.2678
53284SOL    HW270167   6.574   6.236   2.827  2.4364 -1.3843 -0.2245
53285SOL     OW70168   4.583   8.259   4.497  1.1488  0.1492  0.2318
53285SOL    HW170169   4.628   8.306   4.427 -1.1465 -0.9986 -2.2198
53285SOL    HW270170   4.650   8.201   4.534  2.7908  1.8367  0.0327
53286SOL     OW70171  10.346   1.773   2.226 -0.0693 -0.0173 -0.1219
53286SOL    HW170172  10.288   1.715   2.277  0.5888  0.5916  1.3708
53286SOL    HW270173  10.309   1.771   2.138 -1.4253 -0.8911  0.4211
53287SOL     OW70174   9.379   2.360   3.494  0.4496 -0.0909  0.0806
53287SOL    HW170175   9.328   2.423   3.545  1.7099  1.4566 -0.4754
53287SOL    HW270176   9.329   2.349   3.413  0.7239  1.0712 -0.2767
53288SOL     OW70177  11.737   0.909   7.469 -0.4156 -0.2760  0.1274
53288SOL    HW170178  11.655   0.904   7.518  0.8710 -0.7367  2.3954
53288SOL    HW270179  11.792   0.967   7.521  0.6969  0.0516 -1.3614
53289SOL     OW70180   2.733   8.684   0.722  0.6314  0.2487 -0.1904
53289SOL    HW170181   2.740   8.640   0.637 -1.4838 -0.6931  0.0746
53289SOL    HW270182   2.725   8.614   0.786  1.1852  0.9758  0.7101
53290SOL     OW70183  12.401  11.582   6.543 -0.1986 -0.1910 -0.5803
53290SOL    HW170184  12.347  11.636   6.486 -0.5668  1.0270  0.8443
53290SOL    HW270185  12.477  11.559   6.490  0.0407  1.8694 -1.2261
53291SOL     OW70186   1.006   7.941  12.429  0.3083 -0.1457  0.2477
53291SOL    HW170187   0.918   7.959  12.394  0.3254  0.8173  0.6940
53291SOL    HW270188   1.059   8.015  12.400  0.6644 -0.0660  1.0894
53292SOL     OW70189   2.293  12.642  12.182  0.0527 -0.2507  0.4456
53292SOL    HW170190   2.388  12.653  12.183  0.3949 -2.0542 -1.7591
53292SOL    HW270191   2.272  12.606  12.268  1.7145 -1.7933  0.2714
53293SOL     OW70192   9.573   4.098   2.606 -0.0358 -0.1038  0.5855
53293SOL    HW170193   9.560   4.007   2.632  0.5848 -0.4456 -0.2510
53293SOL    HW270194   9.540   4.102   2.516 -1.4158  0.8562  1.0886
53294SOL     OW70195  11.296   7.233   8.888  0.3993  0.3634  0.1880
53294SOL    HW170196  11.390   7.250   8.882  0.5902 -0.5068  0.6399
53294SOL    HW270197  11.270   7.271   8.972 -0.0290  2.2127 -0.7175
53295SOL     OW70198   4.611   1.155   2.890  0.1385  0.3755 -0.1464
53295SOL    HW170199   4.623   1.213   2.965  0.8893  0.2636 -0.1778
53295SOL    HW270200   4.698   1.119   2.873  0.0661  0.7388 -1.3455
53296SOL     OW70201  11.278   2.633   1.626 -0.1383  0.6633 -0.2242
53296SOL    HW170202  11.341   2.593   1.687 -1.0919  0.9818  1.0223
53296SOL    HW270203  11.297   2.592   1.542  1.6989  0.7258  0.1201
53297SOL     OW70204  12.613   6.513  10.016 -0.1020 -0.7322  0.2619
53297SOL    HW170205  12.702   6.528  10.050 -0.6885  0.7410  1.2942
53297SOL    HW270206  12.579   6.441  10.069 -0.1694 -0.0261  1.2150
53298SOL     OW70207   5.993   6.807  11.580 -0.3131 -0.8088  0.1667
53298SOL    HW170208   6.051   6.848  11.644 -0.3081 -0.8871  0.2131
53298SOL    HW270209   5.958   6.879  11.529 -0.8875 -0.6819  0.7363
53299SOL     OW70210   7.510   2.052   7.046 -0.3951 -0.1305 -0.7831
53299SOL    HW170211   7.509   2.129   7.103 -1.4221  0.9198 -2.1378
53299SOL    HW270212   7.521   2.088   6.958  1.1815 -1.6948 -1.2979
53300SOL     OW70213   6.901   8.896   8.974  0.1446 -0.1212 -0.2823
53300SOL    HW170214   6.875   8.808   8.945  0.1089  0.0621 -0.8146
53300SOL    HW270215   6.826   8.927   9.025  0.9650 -1.1959  1.6840
53301SOL     OW70216   5.795   6.162   9.519  0.2865  0.2054 -0.2450
53301SOL    HW170217   5.888   6.178   9.508  0.5005 -0.2710  0.7392
53301SOL    HW270218   5.788   6.067   9.527  0.1450  0.3612  2.8694
53302SOL     OW70219   7.577  10.004   0.103 -0.0422 -0.0944 -0.3111
53302SOL    HW170220   7.657   9.959   0.130 -0.8153 -1.5648 -0.3087
53302SOL    HW270221   7.569  10.078   0.163  1.0341 -0.2276  0.0217
53303SOL     OW70222   8.058   4.289   4.604  0.4776  0.8253 -0.4831
53303SOL    HW170223   7.963   4.282   4.605  0.2595  3.1300  0.1150
53303SOL    HW270224   8.089   4.199   4.615 -1.5436 -0.5129 -4.2419
53304SOL     OW70225   8.355  10.108  11.392  0.5123 -0.0256  0.5269
53304SOL    HW170226   8.425  10.043  11.394 -1.3947 -2.2227  0.6034
53304SOL    HW270227   8.327  10.111  11.300  2.1323  2.5899  0.0178
53305SOL     OW70228   9.123   4.166   7.747 -0.4740  0.1051  0.4140
53305SOL    HW170229   9.064   4.221   7.696 -0.3032 -1.9992 -2.2835
53305SOL    HW270230   9.201   4.219   7.759 -0.6366  0.7936 -1.3400
53306SOL     OW70231   0.322  11.689   7.716 -0.0482 -0.1700 -0.2309
53306SOL    HW170232   0.286  11.722   7.633  1.2269 -1.3118 -1.2975
53306SOL    HW270233   0.302  11.758   7.780 -0.6579  0.9680 -1.5782
53307SOL     OW70234  12.109   8.228   9.894  0.2409  0.1478  0.3141
53307SOL    HW170235  12.081   8.266   9.977  0.3619  0.5290  0.1827
53307SOL    HW270236  12.029   8.190   9.856  0.5108 -1.7479  1.4811
53308SOL     OW70237   0.025   6.494   8.626 -0.3723  0.4192 -0.0059
53308SOL    HW170238   0.083   6.555   8.580  0.1261  0.0417  0.1049
53308SOL    HW270239   0.030   6.523   8.718  0.1172  0.0247  0.0976
53309SOL     OW70240   0.116  10.852   0.289  0.1323 -0.1597  1.0869
53309SOL    HW170241   0.104  10.801   0.209  0.2032 -1.1451  1.7023
53309SOL    HW270242   0.041  10.913   0.289 -0.1230 -0.4635  0.5075
53310SOL     OW70243   4.257   7.175   7.391 -0.1226  0.0882 -0.3537
53310SOL    HW170244   4.309   7.168   7.312 -0.5973  0.2532 -0.6863
53310SOL    HW270245   4.187   7.111   7.380 -0.9003  0.9608 -0.6336
53311SOL     OW70246   1.312   1.321   7.892  0.4050  0.2236 -0.4730
53311SOL    HW170247   1.348   1.232   7.896  0.0884  0.1294  0.5402
53311SOL    HW270248   1.278   1.337   7.980  1.2621  1.6871 -0.3702
53312SOL     OW70249  12.018   4.687  12.330  0.1967 -0.0434  0.5911
53312SOL    HW170250  12.084   4.645  12.275 -0.6846 -0.4105 -0.2091
53312SOL    HW270251  11.959   4.616  12.355 -0.5722  0.4837  0.2988
53313SOL     OW70252   4.671   8.705  12.004 -0.5504  0.1331 -0.3810
53313SOL    HW170253   4.602   8.763  12.037 -0.2674 -0.7929  1.9607
53313SOL    HW270254   4.707   8.752  11.928 -0.5295  2.9048  1.2175
53314SOL     OW70255   5.187   3.900   5.452 -0.5754  0.6258  0.3326
53314SOL    HW170256   5.184   3.848   5.372 -2.7038  1.7073 -0.3561
53314SOL    HW270257   5.102   3.942   5.457  0.1967  2.1231  2.1637
53315SOL     OW70258   0.361   1.133   9.973 -0.1192  0.4054 -0.2152
53315SOL    HW170259   0.400   1.071   9.911 -0.0841  0.7737 -0.5696
53315SOL    HW270260   0.332   1.079  10.046  0.8095  0.0846 -0.0641
53316SOL     OW70261   6.960   9.011   6.237 -0.6609  0.1143 -0.1382
53316SOL    HW170262   7.044   9.041   6.202 -0.4569 -1.2784 -0.9239
53316SOL    HW270263   6.925   8.955   6.168 -1.2067 -1.0973  1.0869
53317SOL     OW70264  10.575   0.376  11.853 -0.3733  0.2338  0.0934
53317SOL    HW170265  10.570   0.434  11.929  1.0528  2.8483 -1.6112
53317SOL    HW270266  10.656   0.327  11.866  0.2769  1.2336 -0.0328
53318SOL     OW70267   2.852  11.228  12.379  0.0506  0.3732 -0.1476
53318SOL    HW170268   2.947  11.235  12.370  0.0617 -0.5209 -0.9389
53318SOL    HW270269   2.819  11.246  12.291 -0.6118  1.8224  0.3631
53319SOL     OW70270   1.209   3.074   1.883  1.0500  0.0998 -0.4638
53319SOL    HW170271   1.162   3.034   1.956  1.7371  1.2157  0.6258
53319SOL    HW270272   1.179   3.165   1.883  2.2770  0.5158 -0.5284
53320SOL     OW70273  12.880   9.163   8.060 -0.3827  0.0626  0.5132
53320SOL    HW170274  12.876   9.250   8.098  1.2824  0.2968  0.2368
53320SOL    HW270275  12.952   9.119   8.106  0.4542 -0.2784 -1.0212
53321SOL     OW70276   9.680   6.042   4.756  0.6932 -0.2532 -0.9441
53321SOL    HW170277   9.599   6.038   4.808  0.9523  0.7825 -0.4222
53321SOL    HW270278   9.702   5.951   4.739  0.0581 -0.5910 -0.0629
53322SOL     OW70279   3.671   8.031   7.567 -0.2986  0.0160  0.1580
53322SOL    HW170280   3.691   8.062   7.655 -1.8491  1.2227  0.1240
53322SOL    HW270281   3.593   7.977   7.578  0.7319 -1.6489 -0.2072
53323SOL     OW70282   2.204   8.927   9.493  0.2594 -0.2176 -0.0000
53323SOL    HW170283   2.120   8.886   9.516 -0.0052  0.8018  0.9381
53323SOL    HW270284   2.218   8.992   9.562  0.0272  2.1828 -2.0807
53324SOL     OW70285   8.604  10.233   6.684  0.1964  0.1506  0.3592
53324SOL    HW170286   8.552  10.174   6.738  0.9866 -1.2703 -0.3654
53324SOL    HW270287   8.540  10.275   6.626 -0.2991 -0.5898  0.3518
53325SOL     OW70288  10.573   8.083  10.393  0.4748 -0.5120 -0.3961
53325SOL    HW170289  10.572   8.133  10.311 -1.9259 -0.3958 -0.3431
53325SOL    HW270290  10.645   8.122  10.444  1.2683  0.1534 -1.9685
53326SOL     OW70291  10.987   9.821   5.421 -0.7311 -0.2489  0.5873
53326SOL    HW170292  10.959   9.756   5.485 -0.9201 -1.1609 -0.3972
53326SOL    HW270293  11.035   9.771   5.355 -0.0591  0.7552  0.2928
53327SOL     OW70294   4.399  12.219  11.354  0.2105 -0.1146  0.5469
53327SOL    HW170295   4.434  12.180  11.433 -0.3131  0.0330  0.8560
53327SOL    HW270296   4.452  12.181  11.283  0.3424 -0.6371  0.9173
53328SOL     OW70297  10.010  10.858   2.449 -0.0666 -0.1199  0.5448
53328SOL    HW170298  10.061  10.846   2.529  1.9279 -0.0004 -0.6215
53328SOL    HW270299   9.976  10.770   2.430 -1.7489  0.1227  2.2150
53329SOL     OW70300  11.865   0.257  10.163 -0.6861 -0.3529  0.2059
53329SOL    HW170301  11.784   0.227  10.205 -0.4004  0.1617  1.1442
53329SOL    HW270302  11.845   0.345  10.133  0.1115  0.5504  2.2004
53330SOL     OW70303   4.622   3.486   9.949  0.0677  0.2862 -0.0379
53330SOL    HW170304   4.532   3.492   9.918  0.2469 -0.1807 -0.6675
53330SOL    HW270305   4.635   3.565  10.001 -0.9976 -0.0939  0.8449
53331SOL     OW70306   4.803   9.544   7.056  0.1547 -0.2297  0.1760
53331SOL    HW170307   4.729   9.589   7.096 -0.5379  0.2255 -1.5397
53331SOL    HW270308   4.877   9.604   7.070 -0.1609  0.1075  0.4274
53332SOL     OW70309   9.583  11.656   3.735 -0.2476  0.3932  0.1139
53332SOL    HW170310   9.646  11.630   3.802  0.8202  0.2785 -0.8962
53332SOL    HW270311   9.536  11.730   3.773 -0.0901 -0.0581  1.2149
53333SOL     OW70312   3.834   8.132   3.000 -0.0085  0.8375  0.8076
53333SOL    HW170313   3.903   8.179   3.047  0.7695 -0.8609  1.4456
53333SOL    HW270314   3.791   8.080   3.067 -1.4664  1.3164  0.2766
53334SOL     OW70315   7.108   1.831   6.610  0.3236 -0.4955  0.7311
53334SOL    HW170316   7.204   1.826   6.616  0.4070 -0.2679 -0.1910
53334SOL    HW270317   7.091   1.838   6.516 -0.6321 -1.0447  0.8598
53335SOL     OW70318   6.777   2.015   6.120  0.1791  0.2694  0.1924
53335SOL    HW170319   6.789   1.972   6.205 -0.2170 -1.0307 -0.3866
53335SOL    HW270320   6.802   1.949   6.056  0.1782  1.1313 -0.7178
53336SOL     OW70321   8.473   2.815   3.224 -0.5237 -0.3828 -0.6511
53336SOL    HW170322   8.549   2.872   3.237 -0.4240 -0.8845  1.2665
53336SOL    HW270323   8.507   2.738   3.179  0.2358 -0.8391  0.6692
53337SOL     OW70324   7.966   3.265  12.359 -0.0783  0.3364 -0.7454
53337SOL    HW170325   7.911   3.308  12.294 -2.1590  0.5885  1.0242
53337SOL    HW270326   7.986   3.333  12.423  0.6545 -0.2331 -0.3504
53338SOL     OW70327  11.042   5.723   5.179  0.2738  0.1149  0.5541
53338SOL    HW170328  11.028   5.792   5.114  2.6759 -0.5744 -0.8184
53338SOL    HW270329  11.134   5.731   5.203 -0.2074 -0.5126  2.9440
53339SOL     OW70330   4.290  12.671   7.480  0.4357 -0.6163 -0.0435
53339SOL    HW170331   4.337  12.588   7.485  1.1675 -0.1967  0.1565
53339SOL    HW270332   4.346  12.728   7.427  0.5841  0.1636  0.9054
53340SOL     OW70333   8.267   8.782   2.845  0.1745  0.2836  0.1318
53340SOL    HW170334   8.266   8.835   2.925  0.5417 -0.2063  0.4693
53340SOL    HW270335   8.360   8.773   2.823  0.1399 -0.4071  0.2202
53341SOL     OW70336   1.546   6.641  10.554 -0.0948  0.0819  0.1106
53341SOL    HW170337   1.596   6.641  10.636  0.1635 -0.9201 -0.0262
53341SOL    HW270338   1.522   6.733  10.540  1.3203  0.5174  0.4137
53342SOL     OW70339   8.061  10.176  10.180  0.4698  0.1011 -0.1364
53342SOL    HW170340   8.059  10.171  10.276  0.9259 -0.5219 -0.1489
53342SOL    HW270341   8.151  10.150  10.157 -0.2127 -1.8096 -0.8347
53343SOL     OW70342   0.307   6.480  11.198 -0.1950 -0.0055  0.1394
53343SOL    HW170343   0.250   6.452  11.126  0.7969  0.5203 -0.8726
53343SOL    HW270344   0.382   6.421  11.195 -0.7083 -0.8003  1.5746
53344SOL     OW70345   0.248   9.432   7.190 -0.1424 -0.2315 -0.2122
53344SOL    HW170346   0.325   9.487   7.177 -0.4000 -0.0759 -1.1463
53344SOL    HW270347   0.282   9.343   7.195  0.0567 -0.2074 -1.1011
53345SOL     OW70348   0.782   9.334   6.375 -0.4098  0.3791  0.2848
53345SOL    HW170349   0.759   9.412   6.326 -2.4608  0.3840  1.1263
53345SOL    HW270350   0.708   9.321   6.434 -0.4438 -2.5340 -0.2498
53346SOL     OW70351  11.878   9.106   8.402  0.2045  0.2522  0.2920
53346SOL    HW170352  11.928   9.027   8.381  2.3857  1.6998 -0.2473
53346SOL    HW270353  11.816   9.115   8.330  2.3621  0.9126 -1.6110
53347SOL     OW70354   1.873  11.135   3.315  0.3034 -0.9148  0.1707
53347SOL    HW170355   1.823  11.116   3.395 -1.8225  0.7096 -0.6572
53347SOL    HW270356   1.810  11.181   3.258  1.8183 -1.7378 -2.3284
53348SOL     OW70357   3.053  10.512   0.146  0.0651 -0.2199  0.1161
53348SOL    HW170358   2.986  10.528   0.212  1.1594 -0.1463  1.2432
53348SOL    HW270359   3.095  10.431   0.174  0.6825 -0.0799 -0.3872
53349SOL     OW70360  10.784   4.192   3.956  0.2355  0.3871 -0.1287
53349SOL    HW170361  10.750   4.130   4.021 -0.2294  1.0750  0.3032
53349SOL    HW270362  10.879   4.190   3.969  0.2973 -0.8325 -0.6821
53350SOL     OW70363   1.848   2.588   0.409  0.3294  0.2942  0.5358
53350SOL    HW170364   1.837   2.663   0.467 -0.9689  0.3029  0.2922
53350SOL    HW270365   1.828   2.623   0.322  1.6144  0.1199  0.1385
53351SOL     OW70366   5.949   9.779  10.482  0.0920 -0.3951  0.1109
53351SOL    HW170367   5.860   9.803  10.505  0.0055  0.5694 -1.1568
53351SOL    HW270368   5.941   9.731  10.400  0.6935 -0.8139  0.2848
53352SOL     OW70369   8.464   3.857   1.647 -0.3851  0.0791 -0.4207
53352SOL    HW170370   8.400   3.861   1.577  0.3712  2.0871 -1.0704
53352SOL    HW270371   8.533   3.918   1.621  1.1085 -0.9186  0.9336
53353SOL     OW70372   1.348   1.999   9.106 -0.5129 -0.1026  0.0431
53353SOL    HW170373   1.322   1.964   9.191  0.1380 -1.2582 -0.2135
53353SOL    HW270374   1.441   1.981   9.099 -0.2108  1.4185 -0.2586
53354SOL     OW70375   7.322   8.955  12.214  0.1910  0.2197  0.2752
53354SOL    HW170376   7.359   8.874  12.250  0.0197  0.4128  0.8973
53354SOL    HW270377   7.358   9.024  12.270  0.7921  0.6316 -0.6043
53355SOL     OW70378   5.974  12.527   7.827  0.0924  0.3151 -0.1446
53355SOL    HW170379   6.062  12.531   7.865  0.7785  1.3862 -1.7124
53355SOL    HW270380   5.963  12.612   7.784 -1.7922  0.2617  0.1287
53356SOL     OW70381   6.200  12.365  12.868 -0.2912 -0.7355  0.1539
53356SOL    HW170382   6.117  12.406  12.843 -0.5330  0.8055  3.0697
53356SOL    HW270383   6.263  12.398  12.805 -1.2386  1.0453  0.0718
53357SOL     OW70384   3.855   5.874   9.193 -0.2621  0.0616  0.7159
53357SOL    HW170385   3.779   5.829   9.230  0.4916 -1.9343 -0.0679
53357SOL    HW270386   3.835   5.885   9.100  0.8245 -1.5132  0.2552
53358SOL     OW70387  12.843   6.446   7.182 -1.0507 -0.1591  0.1707
53358SOL    HW170388  12.748   6.440   7.190 -1.2219  2.0005  0.5188
53358SOL    HW270389  12.873   6.473   7.270  0.0984 -2.3879  0.5316
53359SOL     OW70390   8.736  10.351   9.634 -0.3106 -0.7021 -0.8585
53359SOL    HW170391   8.750  10.258   9.622  2.5439 -0.2711 -1.6384
53359SOL    HW270392   8.699  10.381   9.551 -1.7149 -1.1705 -0.4273
53360SOL     OW70393  12.812   4.433   3.073 -0.4256  0.1594 -0.2330
53360SOL    HW170394  12.735   4.456   3.020  0.2170  3.3834  0.0065
53360SOL    HW270395  12.776   4.388   3.150 -1.7007 -1.3491 -1.6391
53361SOL     OW70396   5.490   3.602   8.069  0.6435 -0.2062 -0.0443
53361SOL    HW170397   5.517   3.690   8.096  0.8531 -0.3345  0.1666
53361SOL    HW270398   5.397   3.598   8.091  0.2380  0.5174 -1.4896
53362SOL     OW70399   1.649  12.066  12.119 -0.1973 -0.0495 -0.0985
53362SOL    HW170400   1.632  12.159  12.133 -0.0277 -0.2804  1.8254
53362SOL    HW270401   1.731  12.049  12.165  0.1481 -1.0150 -1.0337
53363SOL     OW70402  12.390   2.590  12.346  0.0267  0.6803  0.6812
53363SOL    HW170403  12.462   2.558  12.292 -0.0259  2.7144 -0.6933
53363SOL    HW270404  12.430   2.612  12.429  0.4675 -0.6636  0.8566
53364SOL     OW70405   1.674   8.734   8.439 -0.4073  0.1361 -0.1606
53364SOL    HW170406   1.612   8.719   8.368 -0.9668  1.2473  0.0656
53364SOL    HW270407   1.624   8.785   8.504  1.3542  3.3089 -1.0576
53365SOL     OW70408  10.297  12.538   5.157 -0.1874  0.0869  0.2402
53365SOL    HW170409  10.245  12.607   5.198  0.3997  0.5074  0.3070
53365SOL    HW270410  10.236  12.466   5.142 -0.8056  0.6194  0.1854
53366SOL     OW70411   1.628   4.333   2.088  0.1509  0.1888 -0.4189
53366SOL    HW170412   1.554   4.347   2.147  0.9491  0.1195  0.6411
53366SOL    HW270413   1.617   4.399   2.019 -0.6413  0.4741 -0.0351
53367SOL     OW70414   7.278   3.928   3.717  0.3371 -0.0584  0.1166
53367SOL    HW170415   7.350   3.928   3.780  0.1228 -0.3806  0.3650
53367SOL    HW270416   7.317   3.959   3.635  1.1599 -1.8162 -0.2091
53368SOL     OW70417  10.565   1.903   2.824  0.1954 -0.5299  0.1672
53368SOL    HW170418  10.509   1.885   2.748  1.5293 -2.5244 -0.4143
53368SOL    HW270419  10.587   1.816   2.858  0.9726  0.2928  1.8562
53369SOL     OW70420   7.514   5.071   3.985  0.6908 -0.0476  0.5600
53369SOL    HW170421   7.439   5.111   4.029 -0.4405 -0.8952 -0.4949
53369SOL    HW270422   7.552   5.012   4.050  0.3973  0.3348  1.0848
53370SOL     OW70423  11.545   7.564   4.948 -0.2147 -0.1661  0.2128
53370SOL    HW170424  11.479   7.514   4.995  0.0540 -0.0833  0.6864
53370SOL    HW270425  11.593   7.611   5.016  1.2096 -1.2702  0.0246
53371SOL     OW70426   2.023   2.492   9.371  0.3061  0.3143  0.4028
53371SOL    HW170427   1.986   2.511   9.458 -1.9169 -1.4396 -0.0578
53371SOL    HW270428   2.083   2.419   9.386  1.8876  1.6352  0.7880
53372SOL     OW70429   3.782  12.138   9.762 -0.3993  0.0992 -0.4103
53372SOL    HW170430   3.768  12.114   9.671  1.0800  0.5270 -0.7736
53372SOL    HW270431   3.825  12.062   9.801 -0.1170  0.2931 -0.3344
53373SOL     OW70432   1.025   8.507   6.888 -0.8673  0.2672  0.4774
53373SOL    HW170433   0.961   8.452   6.842  0.5373 -1.7679  0.7960
53373SOL    HW270434   0.972   8.563   6.945 -2.4513  0.3716 -1.0134
53374SOL     OW70435   0.046   0.102   6.027 -0.3222 -0.0627 -0.2089
53374SOL    HW170436   0.121   0.086   6.084 -1.1318 -1.2423  0.5819
53374SOL    HW270437   0.048   0.196   6.009  2.6581 -0.3709 -2.1208
53375SOL     OW70438   3.020   3.873  11.387 -0.1279 -0.5333 -0.0490
53375SOL    HW170439   3.049   3.860  11.478 -1.2283 -1.9684  0.1363
53375SOL    HW270440   3.077   3.816  11.335  1.8447  1.7543 -0.5890
53376SOL     OW70441  10.511   5.281   6.130 -0.1875 -0.7546 -0.0068
53376SOL    HW170442  10.429   5.256   6.088 -0.6395  0.1604  0.3172
53376SOL    HW270443  10.509   5.234   6.214  0.0251 -1.3986 -0.3522
53377SOL     OW70444   1.935   4.248   6.736 -0.7465 -0.3209 -0.0451
53377SOL    HW170445   2.009   4.270   6.792  0.4336  1.2889 -2.0968
53377SOL    HW270446   1.897   4.170   6.776  1.6422 -0.8111  1.4585
53378SOL     OW70447  12.165  11.642  11.315  0.0508 -0.5607 -0.0048
53378SOL    HW170448  12.105  11.645  11.240  0.7569 -1.2046 -0.6170
53378SOL    HW270449  12.240  11.592  11.283  1.0437  0.4618  0.6380
53379SOL     OW70450   3.355   8.428  10.656  0.3073 -0.9036 -0.0224
53379SOL    HW170451   3.364   8.343  10.613  1.5437 -1.6569  1.5868
53379SOL    HW270452   3.371   8.492  10.587  1.7385 -2.0394 -0.8040
53380SOL     OW70453  12.535   6.177   4.798  0.2656 -0.3991  0.0184
53380SOL    HW170454  12.447   6.146   4.776  0.4741  0.3237 -2.1011
53380SOL    HW270455  12.540   6.264   4.758  1.2634  0.4436  1.8686
53381SOL     OW70456  10.254   3.459  10.864 -0.6489 -0.0387  0.0561
53381SOL    HW170457  10.173   3.506  10.849  0.6290  2.5569  0.7593
53381SOL    HW270458  10.292   3.448  10.776 -0.7732  0.6678 -0.0939
53382SOL     OW70459   4.873   0.872   5.405 -0.5419 -0.0755  0.8011
53382SOL    HW170460   4.902   0.847   5.493  3.0731  0.2677 -0.1439
53382SOL    HW270461   4.910   0.804   5.348 -0.7983  0.9886 -0.6656
53383SOL     OW70462   4.350  12.924   4.347 -0.1625 -0.2692  0.2381
53383SOL    HW170463   4.443  12.925   4.371 -0.3082 -1.0339  0.8760
53383SOL    HW270464   4.304  12.924   4.431 -0.8443  3.1130  0.0229
53384SOL     OW70465   0.969   2.223   3.070 -0.3099 -0.1110 -0.3675
53384SOL    HW170466   0.950   2.136   3.107 -1.9812 -0.2725 -1.5051
53384SOL    HW270467   1.044   2.254   3.120  0.2029 -2.1286  0.2105
53385SOL     OW70468   9.578   3.152  10.164  0.1055  0.1044  0.1895
53385SOL    HW170469   9.563   3.136  10.257  2.1839  0.5825  0.6579
53385SOL    HW270470   9.601   3.066  10.128 -0.4012 -0.0245  0.1576
53386SOL     OW70471   7.445   7.263   5.589  0.5460  0.2010 -0.4079
53386SOL    HW170472   7.393   7.201   5.640  1.7939 -1.5315 -1.1414
53386SOL    HW270473   7.477   7.326   5.653 -0.8288  0.1659  0.3503
53387SOL     OW70474   1.097   2.385  10.353 -0.0700  0.3009 -0.3696
53387SOL    HW170475   1.051   2.446  10.295 -0.3804  0.6529  0.2365
53387SOL    HW270476   1.145   2.442  10.413  0.3518 -0.0638 -0.3596
53388SOL     OW70477  12.043   6.320   0.861  0.7771 -0.0608  0.4115
53388SOL    HW170478  12.095   6.320   0.781 -1.0251 -0.9160 -0.8415
53388SOL    HW270479  12.030   6.412   0.882  2.2777  0.1672  0.4528
53389SOL     OW70480   5.081   0.153  10.711 -0.5332 -0.3599  0.3492
53389SOL    HW170481   5.037   0.229  10.750 -2.3068 -0.8687 -0.5329
53389SOL    HW270482   5.063   0.081  10.772  0.8795 -0.1748  1.0247
53390SOL     OW70483   4.105  11.866  10.907 -0.5064  0.3147 -0.6121
53390SOL    HW170484   4.040  11.927  10.941 -0.4307 -1.1497  2.4772
53390SOL    HW270485   4.069  11.779  10.926  1.9491 -0.5560  0.5599
53391SOL     OW70486   7.566   8.696   1.690 -0.0327 -0.1490 -0.2357
53391SOL    HW170487   7.550   8.624   1.629 -3.1859  0.6540 -0.5558
53391SOL    HW270488   7.615   8.760   1.639  0.6199 -1.0219 -0.7341
53392SOL     OW70489   6.023  12.136   5.713  0.1773  0.4431 -0.4817
53392SOL    HW170490   5.933  12.109   5.696 -0.1711  1.9517 -1.2960
53392SOL    HW270491   6.075  12.056   5.704 -1.1896 -0.6864  1.1919
53393SOL     OW70492   1.953   9.534   6.383 -0.7403 -0.4738 -0.2623
53393SOL    HW170493   1.978   9.622   6.356 -0.4976 -0.4834 -0.0778
53393SOL    HW270494   2.033   9.497   6.421 -0.5824 -1.1125 -1.1776
53394SOL     OW70495  11.634   4.156  10.403 -0.1689  0.1581 -0.1257
53394SOL    HW170496  11.593   4.240  10.426 -0.0756  0.6788 -1.6887
53394SOL    HW270497  11.728   4.174  10.407 -0.1491  0.1635 -0.5060
53395SOL     OW70498   4.411  12.847   8.135 -0.2628  0.5009 -0.0477
53395SOL    HW170499   4.451  12.933   8.122  0.7690  0.0974  0.3080
53395SOL    HW270500   4.387  12.846   8.228 -0.9513  0.6722 -0.2183
53396SOL     OW70501   1.360   7.267  11.371  0.0626  0.0867  0.0302
53396SOL    HW170502   1.412   7.308  11.441  0.7866 -0.5290 -0.1290
53396SOL    HW270503   1.328   7.185  11.410 -0.3749  0.2193 -0.0407
53397SOL     OW70504  11.173   5.730  10.401 -0.4529 -0.3463  0.5694
53397SOL    HW170505  11.169   5.765  10.490  1.7921 -2.7095  1.7379
53397SOL    HW270506  11.090   5.685  10.389 -0.5668 -0.4919  1.7403
53398SOL     OW70507   5.805  11.274   2.331  0.2182 -0.7814  0.1835
53398SOL    HW170508   5.767  11.258   2.418 -0.8826 -0.2342 -0.1784
53398SOL    HW270509   5.860  11.352   2.343 -0.7634 -0.0660  0.1809
53399SOL     OW70510   0.186   5.245  10.989  0.5622  0.0464  0.2654
53399SOL    HW170511   0.108   5.279  11.033  1.0445 -0.0735  1.2475
53399SOL    HW270512   0.171   5.262  10.896 -0.2584  0.7767  0.5191
53400SOL     OW70513   5.234   8.947   4.039  0.0638 -0.3451  0.0627
53400SOL    HW170514   5.215   9.038   4.014  0.0263  0.1900  1.8443
53400SOL    HW270515   5.257   8.903   3.957 -0.2216  1.1967 -0.8825
53401SOL     OW70516   6.165   7.920   4.596  0.0906  0.0802  0.6863
53401SOL    HW170517   6.193   7.892   4.509 -0.7061  0.3045  0.3448
53401SOL    HW270518   6.159   7.839   4.646  1.9277  0.0873  0.9619
53402SOL     OW70519   2.328   2.945  10.471  0.2545  0.0766 -0.4577
53402SOL    HW170520   2.271   2.944  10.548 -0.4646  0.9994 -0.9518
53402SOL    HW270521   2.377   3.027  10.479  0.0373  0.2703 -1.0734
53403SOL     OW70522   7.864   7.997   1.737 -0.5776  0.0918  0.3920
53403SOL    HW170523   7.920   8.066   1.702 -2.9397  1.9324 -0.0314
53403SOL    HW270524   7.878   7.923   1.678 -0.1290  1.1864 -0.9321
53404SOL     OW70525   1.852   9.895   0.525 -0.2681  0.0150  0.1955
53404SOL    HW170526   1.807   9.905   0.441 -0.7003  1.6769  0.5720
53404SOL    HW270527   1.909   9.972   0.531  1.0892 -1.0005  0.6492
53405SOL     OW70528   2.069  10.641   7.839 -0.2192  0.1108  0.5608
53405SOL    HW170529   2.050  10.548   7.846 -1.6063  0.4187  1.2703
53405SOL    HW270530   2.026  10.681   7.915 -1.9107  1.6372 -1.0748
53406SOL     OW70531   0.643   3.884  11.482  0.4153 -0.2202 -0.5892
53406SOL    HW170532   0.626   3.966  11.528 -2.0420 -1.1309  0.3025
53406SOL    HW270533   0.725   3.899  11.434  0.8605  2.1769  0.7911
53407SOL     OW70534  10.311   4.223   1.564  0.3956  0.2275  0.7822
53407SOL    HW170535  10.391   4.172   1.551  0.0481 -0.4194  1.1157
53407SOL    HW270536  10.246   4.158   1.589 -0.0955  0.8263  1.0689
53408SOL     OW70537   1.183   0.271   9.087  0.6073  1.0375 -0.1379
53408SOL    HW170538   1.264   0.244   9.044 -0.7966 -1.8623 -1.1985
53408SOL    HW270539   1.181   0.222   9.169 -1.9469 -2.4670 -2.0551
53409SOL     OW70540  12.731   9.200   1.665 -0.1081 -0.2063 -0.8545
53409SOL    HW170541  12.783   9.187   1.744 -0.2868  0.4201 -0.6273
53409SOL    HW270542  12.737   9.117   1.618 -0.0880 -0.6232 -0.1285
53410SOL     OW70543   6.541  12.507  12.465 -0.5643  0.0320 -0.2537
53410SOL    HW170544   6.633  12.534  12.467 -0.7542  0.6179  0.5830
53410SOL    HW270545   6.515  12.517  12.373 -0.0838  0.8308 -0.3040
53411SOL     OW70546   2.205   4.145   0.388 -0.2452  0.1382 -0.3301
53411SOL    HW170547   2.290   4.146   0.432 -0.2914  2.1561 -0.1944
53411SOL    HW270548   2.202   4.226   0.339 -1.8507 -0.1829 -0.8445
53412SOL     OW70549   5.870   8.139   4.038 -0.1900  0.0345  0.7752
53412SOL    HW170550   5.778   8.162   4.023 -0.4149 -0.5835  1.1903
53412SOL    HW270551   5.908   8.135   3.950 -0.8596 -0.9278  0.5168
53413SOL     OW70552   5.201   1.619   7.209 -0.3977  0.0317  0.1479
53413SOL    HW170553   5.215   1.713   7.206 -0.6692  0.0550 -1.8823
53413SOL    HW270554   5.239   1.591   7.292  0.6002  1.7784  0.3117
53414SOL     OW70555   0.126   9.313   1.392 -0.2281 -0.5128  0.1258
53414SOL    HW170556   0.086   9.228   1.410 -1.5955  0.0507 -0.1408
53414SOL    HW270557   0.197   9.293   1.331  0.1026 -1.5808  0.8328
53415SOL     OW70558   8.527   9.673   5.176  0.1235 -0.2788 -0.8544
53415SOL    HW170559   8.545   9.636   5.089  0.7654  0.0849 -0.8829
53415SOL    HW270560   8.514   9.766   5.160 -2.6551 -0.6052 -0.9433
53416SOL     OW70561  11.351   4.149   2.795  0.2902 -0.8805  0.0556
53416SOL    HW170562  11.351   4.057   2.819 -3.3014 -0.5011  2.2611
53416SOL    HW270563  11.275   4.186   2.841  1.5887  3.2094 -0.6739
53417SOL     OW70564   2.481   0.004   6.563 -0.3665  0.4103  0.0359
53417SOL    HW170565   2.555  -0.057   6.561 -1.4354 -0.9382 -1.3468
53417SOL    HW270566   2.488   0.052   6.481 -1.4504 -0.3434 -0.5360
53418SOL     OW70567   8.313   9.938  10.517  0.0521 -0.2317 -0.6071
53418SOL    HW170568   8.272   9.917  10.433 -1.4848 -0.5380  0.1821
53418SOL    HW270569   8.279   9.872  10.577  0.8338  0.2191  0.3511
53419SOL     OW70570   2.831   3.198   7.103  0.3272 -0.0927  0.0847
53419SOL    HW170571   2.894   3.156   7.162  0.4962  0.8770  0.6292
53419SOL    HW270572   2.873   3.195   7.017  0.6912 -0.3252  0.2666
53420SOL     OW70573   9.172   5.619   7.020  0.0461  0.0727  0.5723
53420SOL    HW170574   9.163   5.568   6.940  0.1849  0.1271  0.5218
53420SOL    HW270575   9.213   5.701   6.992  1.2190 -0.3922  0.8796
53421SOL     OW70576   7.204   5.256   5.394 -0.1730 -0.3426  0.0536
53421SOL    HW170577   7.247   5.330   5.438 -1.0323  0.3020 -0.1589
53421SOL    HW270578   7.235   5.260   5.304 -2.4138  1.5833 -0.7277
53422SOL     OW70579  10.012   1.390  12.283  0.3869 -0.3009  0.3677
53422SOL    HW170580   9.972   1.304  12.290  2.6824 -1.4531  0.2178
53422SOL    HW270581  10.064   1.387  12.203  1.1590  0.9303  0.7890
53423SOL     OW70582   7.859   0.274   1.217 -0.7874 -0.2055 -0.1192
53423SOL    HW170583   7.852   0.270   1.312  1.0957  0.3129  0.0795
53423SOL    HW270584   7.920   0.204   1.193 -0.2015  0.5108 -0.7887
53424SOL     OW70585   9.805  12.229   6.905 -0.2630 -0.3000  0.1376
53424SOL    HW170586   9.745  12.303   6.904  1.3250  1.1196 -2.2619
53424SOL    HW270587   9.875  12.255   6.965  0.7584  0.6567 -1.3902
53425SOL     OW70588   5.354   3.085  11.550 -0.3823  0.3651 -0.4557
53425SOL    HW170589   5.390   3.131  11.473  0.2005 -1.0804 -1.0773
53425SOL    HW270590   5.281   3.141  11.578  0.5712  1.9011 -0.8927
53426SOL     OW70591  11.025   5.547  10.724  0.7161  0.2893 -0.5880
53426SOL    HW170592  11.068   5.631  10.704  1.1450  0.3281  0.4500
53426SOL    HW270593  11.021   5.544  10.819  0.2867 -0.6782 -0.6242
53427SOL     OW70594  10.708   4.222   7.431  0.2201  0.2731 -0.1657
53427SOL    HW170595  10.765   4.235   7.506  0.0822 -0.7826  0.1372
53427SOL    HW270596  10.619   4.227   7.467  0.1348  0.5351 -0.4006
53428SOL     OW70597   9.031   3.462   1.856  0.3765  0.1833  0.3567
53428SOL    HW170598   8.988   3.423   1.932  0.0512 -0.7078 -0.2594
53428SOL    HW270599   8.963   3.516   1.815 -0.0398 -0.8264 -0.3341
53429SOL     OW70600  12.020  12.473  12.622  0.5031  0.4634  0.0064
53429SOL    HW170601  12.046  12.544  12.563  1.1878 -2.0798 -2.9761
53429SOL    HW270602  11.924  12.476  12.621  0.4480 -0.1396 -2.2048
53430SOL     OW70603   4.188   8.478   4.954  0.0574  0.2023 -0.6087
53430SOL    HW170604   4.099   8.461   4.923  0.0701  1.8037 -1.6391
53430SOL    HW270605   4.237   8.501   4.875  1.4297 -0.7223 -0.0708
53431SOL     OW70606   3.841  10.163   7.824 -0.8507  0.4047 -0.9618
53431SOL    HW170607   3.908  10.174   7.757 -0.3877  0.4780 -0.4909
53431SOL    HW270608   3.855  10.235   7.885 -0.2011 -0.5760  0.1010
53432SOL     OW70609  10.856   2.287   0.681 -1.0313  0.1945 -0.2395
53432SOL    HW170610  10.857   2.376   0.644 -0.2804 -0.7585 -2.6476
53432SOL    HW270611  10.948   2.263   0.688 -1.1497  0.0832  1.8444
53433SOL     OW70612   6.565   5.262   8.525  0.1755  0.6251 -0.3096
53433SOL    HW170613   6.550   5.208   8.603  1.6058  0.4022 -0.1642
53433SOL    HW270614   6.612   5.339   8.558  0.3480  0.7700 -0.8783
53434SOL     OW70615   2.556  10.504   3.671  0.2132  0.5519 -0.0276
53434SOL    HW170616   2.582  10.561   3.744 -0.0730  1.2647 -0.4686
53434SOL    HW270617   2.533  10.565   3.601  2.7776 -0.0755 -1.5817
53435SOL     OW70618   0.956  12.165   0.724  0.3568  0.3124 -0.2867
53435SOL    HW170619   0.902  12.098   0.767  1.5866 -0.1757  0.5631
53435SOL    HW270620   1.013  12.197   0.794  0.4122  1.6055 -0.9091
53436SOL     OW70621   5.406   2.698   2.146 -0.2689  0.2564 -0.0495
53436SOL    HW170622   5.339   2.629   2.140 -0.6609  0.6301  0.0178
53436SOL    HW270623   5.403   2.741   2.061 -0.7420  0.8530  0.2660
53437SOL     OW70624  12.045   5.619   1.348  0.4898  0.2191  0.0431
53437SOL    HW170625  11.990   5.577   1.415  1.8199  0.2484  1.1989
53437SOL    HW270626  12.001   5.599   1.265 -1.3799  0.4429  0.9167
53438SOL     OW70627   3.141   3.482   2.104 -0.2463  0.0916 -0.0250
53438SOL    HW170628   3.119   3.556   2.161 -0.2558 -0.1493  0.2880
53438SOL    HW270629   3.237   3.484   2.098 -0.3068  0.8755 -1.0317
53439SOL     OW70630   7.971   3.179   4.776  0.3130 -0.2297  0.2904
53439SOL    HW170631   7.887   3.226   4.779  0.0664 -0.7179  1.4505
53439SOL    HW270632   7.998   3.184   4.684 -0.2949  1.1378  0.1622
53440SOL     OW70633  12.609   0.615   4.923 -0.1020  0.5882  0.2035
53440SOL    HW170634  12.545   0.683   4.944 -1.5158 -0.8960  0.9232
53440SOL    HW270635  12.576   0.577   4.841  0.9467  1.0348 -0.4580
53441SOL     OW70636   6.481   4.680   1.448 -0.5172 -0.1358 -0.1814
53441SOL    HW170637   6.542   4.710   1.380  0.3567 -2.0695 -0.3083
53441SOL    HW270638   6.515   4.717   1.529 -0.0403  0.0371 -0.4584
53442SOL     OW70639   4.058   2.509   6.461 -0.0383 -0.4677 -0.6927
53442SOL    HW170640   3.990   2.512   6.528 -1.0363  1.8542 -1.6965
53442SOL    HW270641   4.059   2.417   6.433  0.3743 -1.5099  2.3422
53443SOL     OW70642   5.369   0.211   0.052  0.3551  0.4265 -0.0095
53443SOL    HW170643   5.390   0.288  -0.001 -0.4241  0.8298  0.2604
53443SOL    HW270644   5.275   0.218   0.069  0.8104  1.1872  2.7463
53444SOL     OW70645   5.601   0.077   5.107 -0.1684 -0.3241  0.4283
53444SOL    HW170646   5.573   0.115   5.024 -0.4126 -0.7153  0.3274
53444SOL    HW270647   5.558  -0.008   5.109 -0.0701 -0.3608  0.9055
53445SOL     OW70648   2.594   1.721   1.463 -0.1663 -0.0626  0.8963
53445SOL    HW170649   2.674   1.738   1.413  0.5014 -0.3550  1.8202
53445SOL    HW270650   2.540   1.799   1.451  0.2391  0.1170  0.2161
53446SOL     OW70651   2.432   1.034   6.939  0.3894  0.6004  0.7730
53446SOL    HW170652   2.368   1.047   7.009 -1.5128 -0.1040 -0.7666
53446SOL    HW270653   2.501   0.980   6.980  0.0777  1.4228  2.4761
53447SOL     OW70654   2.887  10.167   5.613  0.6099 -0.2461  0.3480
53447SOL    HW170655   2.877  10.142   5.521 -0.8693 -2.8412  1.1079
53447SOL    HW270656   2.944  10.099   5.650  1.1497  0.7447  1.3900
53448SOL     OW70657  10.799  11.130   9.313 -0.5272 -0.4554  0.3843
53448SOL    HW170658  10.756  11.144   9.398 -0.4759  0.0425  0.3333
53448SOL    HW270659  10.820  11.218   9.282 -2.1029 -0.4817 -0.9429
53449SOL     OW70660  10.583  11.617   4.905  0.4018 -0.5623  0.0454
53449SOL    HW170661  10.560  11.691   4.962  1.5238 -0.5486  0.5143
53449SOL    HW270662  10.582  11.541   4.963 -1.4862 -1.0838 -0.5852
53450SOL     OW70663   5.589  10.185  12.618  0.4402 -0.4462  0.6842
53450SOL    HW170664   5.510  10.205  12.568  1.0323 -3.5294 -1.7948
53450SOL    HW270665   5.660  10.193  12.554  1.6042 -1.7461  1.7543
53451SOL     OW70666   0.783   1.928   7.123  0.5028 -0.2646  0.2156
53451SOL    HW170667   0.784   2.023   7.124 -0.6471 -0.2312 -0.5015
53451SOL    HW270668   0.726   1.905   7.050  2.8534 -1.5322 -1.3846
53452SOL     OW70669   6.576   0.597  12.481  0.2553 -0.0757 -0.2800
53452SOL    HW170670   6.537   0.558  12.559  0.3919 -2.1488 -1.1968
53452SOL    HW270671   6.623   0.526  12.438  2.3528  1.5917 -0.9503
53453SOL     OW70672   6.309  12.613   8.188  0.4867 -0.2779  0.2334
53453SOL    HW170673   6.404  12.613   8.204  0.4554 -0.6868  0.4448
53453SOL    HW270674   6.271  12.587   8.272  0.2298 -0.8523 -0.0552
53454SOL     OW70675  10.416   5.306  10.770  0.2195  0.4397  0.1492
53454SOL    HW170676  10.359   5.269  10.703  1.0968  0.4676 -0.6371
53454SOL    HW270677  10.464   5.231  10.805 -2.4281 -0.1185  3.0489
53455SOL     OW70678   4.590   3.056   3.247 -0.0527  0.0714 -0.3338
53455SOL    HW170679   4.673   3.010   3.234 -0.9793 -1.4655 -1.1202
53455SOL    HW270680   4.574   3.102   3.164 -0.2523 -0.0954 -0.3898
53456SOL     OW70681  10.155  11.523   1.123  0.0607  0.1205 -0.0678
53456SOL    HW170682  10.195  11.603   1.088  0.5298 -0.7443 -1.5657
53456SOL    HW270683  10.193  11.514   1.210 -0.7896  2.0838  0.5712
53457SOL     OW70684   3.886   7.800  12.266  0.3137 -0.0074 -0.0025
53457SOL    HW170685   3.863   7.712  12.235 -1.5701  0.7575 -0.9008
53457SOL    HW270686   3.978   7.792  12.291  0.7813 -1.7353 -1.9655
53458SOL     OW70687  10.829   7.314   5.455 -0.0313  0.1993  1.0141
53458SOL    HW170688  10.863   7.241   5.404  0.0342 -0.7501  2.3778
53458SOL    HW270689  10.883   7.316   5.534  1.3210  3.0157  0.1493
53459SOL     OW70690   1.124   1.808   4.414 -0.2166 -0.2122  0.0092
53459SOL    HW170691   1.179   1.882   4.439 -0.9966  0.4216 -0.1437
53459SOL    HW270692   1.052   1.809   4.477 -1.2184  0.2793 -1.1182
53460SOL     OW70693   1.721   3.902   3.246 -0.3686 -0.4223  0.3570
53460SOL    HW170694   1.702   3.960   3.320  0.6520  0.4538 -0.0507
53460SOL    HW270695   1.801   3.857   3.271  1.7248  2.0734 -1.3917
53461SOL     OW70696   0.364  11.357   2.835 -0.0491 -0.3620 -0.2965
53461SOL    HW170697   0.358  11.306   2.915 -1.2092 -0.7200 -0.5944
53461SOL    HW270698   0.274  11.361   2.802  0.2269  0.7598 -0.9719
53462SOL     OW70699  11.162   2.056   3.442 -0.2197  0.4190  0.4969
53462SOL    HW170700  11.243   2.068   3.391 -0.3155  0.2071  0.2917
53462SOL    HW270701  11.179   2.101   3.524  0.9493 -1.4896  1.3661
53463SOL     OW70702   5.029  11.100  10.730 -0.1141  0.2725  0.0260
53463SOL    HW170703   5.030  11.109  10.635 -0.5864 -0.5735 -0.0703
53463SOL    HW270704   4.936  11.090  10.753 -0.0634  1.1061  0.6461
53464SOL     OW70705  10.404   8.091   0.297  0.4725 -0.0142  0.1545
53464SOL    HW170706  10.413   8.069   0.204 -0.6172 -1.3792  0.3526
53464SOL    HW270707  10.449   8.175   0.306  0.4905  0.1965 -1.6271
53465SOL     OW70708   4.047   9.641   4.801 -0.2760  0.2282  0.0513
53465SOL    HW170709   4.024   9.566   4.855 -0.8337  0.2360 -0.1696
53465SOL    HW270710   4.092   9.701   4.861 -2.5410  1.0679  1.0168
53466SOL     OW70711  11.134   1.441   0.769  0.4768  0.7078  0.3856
53466SOL    HW170712  11.075   1.488   0.710  0.4087 -1.0548 -1.0501
53466SOL    HW270713  11.075   1.388   0.824  0.6446 -1.1184 -1.1069
53467SOL     OW70714  12.723  12.245  12.259  0.8714  0.2352 -0.6074
53467SOL    HW170715  12.762  12.217  12.342  0.6654 -1.0056 -0.8949
53467SOL    HW270716  12.749  12.336  12.248  2.2071 -0.0541  0.0517
53468SOL     OW70717   3.710   3.475   8.635 -0.6430  0.1829 -0.0366
53468SOL    HW170718   3.671   3.562   8.628  0.9365  1.0433  1.0743
53468SOL    HW270719   3.700   3.451   8.727  0.5793  0.0227  0.0696
53469SOL     OW70720   0.390   0.878   6.478 -0.0424 -0.0589 -0.1576
53469SOL    HW170721   0.437   0.811   6.428  0.5061  0.6555 -0.6180
53469SOL    HW270722   0.302   0.879   6.440  0.2345  0.1569 -0.8169
53470SOL     OW70723   4.463   6.119  10.317  0.3116 -0.1680 -0.0213
53470SOL    HW170724   4.452   6.073  10.233  1.0212 -1.3468  0.4978
53470SOL    HW270725   4.399   6.078  10.375  0.0556  0.4140  0.1125
53471SOL     OW70726   6.642   8.617   6.153  0.4298 -0.9903 -0.4293
53471SOL    HW170727   6.719   8.655   6.197  1.1470 -2.4762 -0.3218
53471SOL    HW270728   6.605   8.689   6.103  0.0204  0.6127  1.9929
53472SOL     OW70729  10.057  10.287  10.347  0.5758 -0.0202  0.1232
53472SOL    HW170730  10.012  10.368  10.324  2.9844  0.5378 -3.3989
53472SOL    HW270731  10.122  10.313  10.412 -0.3127  0.3297  0.8845
53473SOL     OW70732  12.301   8.288   0.228  0.0050  0.0802  0.2792
53473SOL    HW170733  12.208   8.299   0.246 -0.2088 -0.2802 -0.5427
53473SOL    HW270734  12.343   8.361   0.274 -0.8599  1.3578 -0.8570
53474SOL     OW70735  11.582   8.790   2.093  0.4355  0.0120 -0.8499
53474SOL    HW170736  11.677   8.785   2.084  0.5538  0.2118  0.1764
53474SOL    HW270737  11.568   8.827   2.180 -0.5853 -0.9986 -0.5555
53475SOL     OW70738  12.229   5.961   9.937  0.0360 -0.0633  0.5913
53475SOL    HW170739  12.224   5.880   9.987 -0.9465 -0.8316 -0.6787
53475SOL    HW270740  12.150   6.009   9.960  0.8614  0.8091  1.7303
53476SOL     OW70741   3.255  11.548   1.306  0.0024 -0.1026 -0.6459
53476SOL    HW170742   3.340  11.511   1.283  0.6706  1.0420 -0.1215
53476SOL    HW270743   3.236  11.610   1.236 -0.4469 -0.4149 -0.8046
53477SOL     OW70744  11.368   3.621   6.350  0.2241 -0.8600  0.1503
53477SOL    HW170745  11.281   3.605   6.314  0.3364 -0.4997 -0.2933
53477SOL    HW270746  11.416   3.540   6.334  0.8035 -0.1507 -2.1013
53478SOL     OW70747  11.415   8.143   0.454 -0.2330  0.2184  0.2444
53478SOL    HW170748  11.450   8.090   0.382 -0.0331  1.9463 -0.9895
53478SOL    HW270749  11.474   8.127   0.527 -0.1344 -1.1801 -0.1115
53479SOL     OW70750   3.950   2.755   9.126  0.1161 -0.8436  0.3851
53479SOL    HW170751   3.991   2.829   9.171  0.8862 -0.7306 -0.4842
53479SOL    HW270752   3.932   2.788   9.038 -2.0159 -0.8304  0.7657
53480SOL     OW70753  11.924  12.459   7.659  0.5024  0.1718  0.1413
53480SOL    HW170754  11.966  12.380   7.626 -1.2055 -0.7135 -0.0265
53480SOL    HW270755  11.891  12.435   7.745 -0.0930  0.6698  0.0625
53481SOL     OW70756   0.220   0.338   7.005 -0.8123 -0.3474  0.7831
53481SOL    HW170757   0.251   0.247   7.000  0.9500  0.2863 -1.1729
53481SOL    HW270758   0.279   0.380   7.068  1.0335  0.3159 -1.2646
53482SOL     OW70759   2.424  12.063   6.301  0.4801  0.3983  0.1137
53482SOL    HW170760   2.339  12.057   6.258  0.4035  0.9839  0.1741
53482SOL    HW270761   2.483  12.013   6.245 -0.2810 -1.7973  1.1064
53483SOL     OW70762   4.906   2.440   1.489  0.2749 -0.0911 -0.7052
53483SOL    HW170763   4.909   2.502   1.562 -3.0924  0.9535 -1.2448
53483SOL    HW270764   4.965   2.476   1.424  0.8061  0.7797  0.2235
53484SOL     OW70765   5.159   6.550   2.368 -0.2237 -0.4016  0.1705
53484SOL    HW170766   5.145   6.477   2.428 -1.1543 -0.7827 -0.4935
53484SOL    HW270767   5.211   6.612   2.419  1.2785 -1.8381  0.5062
53485SOL     OW70768   2.366   6.706   2.593  0.2592 -0.5669 -0.3704
53485SOL    HW170769   2.425   6.770   2.633  0.2036  0.2100 -1.4954
53485SOL    HW270770   2.422   6.630   2.574  0.7008 -0.2008 -0.5519
53486SOL     OW70771   5.346   8.321   4.787 -0.0675 -0.4330 -0.3679
53486SOL    HW170772   5.376   8.252   4.846 -1.7627 -1.1802 -0.3499
53486SOL    HW270773   5.407   8.393   4.803  2.2699 -2.1425 -0.9786
53487SOL     OW70774   9.716  10.307  11.806 -0.3645  0.3148 -0.3849
53487SOL    HW170775   9.663  10.272  11.735 -1.4683 -0.3505  0.7385
53487SOL    HW270776   9.653  10.348  11.865  0.7422  3.1397 -0.9806
53488SOL     OW70777   3.206  10.513   7.383 -0.1053 -0.4481 -0.4150
53488SOL    HW170778   3.283  10.513   7.440  0.8507  0.2456 -1.6627
53488SOL    HW270779   3.133  10.532   7.443  1.0771  2.1543  0.3598
53489SOL     OW70780   4.705  11.633   4.298  0.3693  0.6591  0.1981
53489SOL    HW170781   4.643  11.666   4.363 -0.0250  0.4579 -0.0750
53489SOL    HW270782   4.701  11.697   4.227  1.0148  1.0352  0.4905
53490SOL     OW70783   8.934   3.214   4.482  0.0454 -0.5275  0.2751
53490SOL    HW170784   8.929   3.235   4.575  1.6538 -0.9066  0.4661
53490SOL    HW270785   8.856   3.255   4.444  0.5948  1.6841  1.3943
53491SOL     OW70786   0.057   9.006   1.731 -0.3996  0.2225  0.0879
53491SOL    HW170787   0.104   9.058   1.665 -0.9133 -0.0481 -0.4968
53491SOL    HW270788   0.110   8.927   1.742 -0.1064  0.4443  0.2952
53492SOL     OW70789   6.655   2.443   2.814  0.2968 -0.1846 -0.3775
53492SOL    HW170790   6.631   2.535   2.810  0.7352 -0.0502  0.0262
53492SOL    HW270791   6.607   2.408   2.889 -0.2519 -0.4060 -0.8220
53493SOL     OW70792   2.281   1.259   2.418 -0.0384 -0.0256  0.5480
53493SOL    HW170793   2.233   1.177   2.400  0.8333 -0.6918  1.1944
53493SOL    HW270794   2.258   1.316   2.344 -1.1131 -0.6398  0.3770
53494SOL     OW70795  12.122   8.778   4.280 -0.2784  0.0604  0.0732
53494SOL    HW170796  12.068   8.765   4.358  0.8571  1.2329  1.0940
53494SOL    HW270797  12.211   8.758   4.308  0.2526  1.1964 -0.7003
53495SOL     OW70798   7.839   0.328   3.407  0.3655 -0.1494 -0.3420
53495SOL    HW170799   7.919   0.298   3.450  0.9123  0.5811 -0.8231
53495SOL    HW270800   7.771   0.268   3.438  0.9858 -0.4162  0.5309
53496SOL     OW70801  11.703  12.708  12.454  0.4043  0.3647 -0.2781
53496SOL    HW170802  11.755  12.640  12.411 -0.1628 -0.5595  0.4527
53496SOL    HW270803  11.762  12.746  12.519  0.9739  1.1438 -1.2155
53497SOL     OW70804  12.816   9.462  11.322 -0.4895  0.0480  0.0209
53497SOL    HW170805  12.867   9.392  11.363 -0.3522  0.7054  0.9955
53497SOL    HW270806  12.777   9.420  11.244 -2.2509 -1.7922  1.7460
53498SOL     OW70807   2.090   6.519  11.175  0.0465  0.5829  0.0308
53498SOL    HW170808   2.168   6.519  11.230  1.1087  1.8217 -1.3883
53498SOL    HW270809   2.090   6.606  11.135 -1.3543  0.1364 -1.0040
53499SOL     OW70810   3.651   3.075   5.597  0.4952 -0.6147 -0.2827
53499SOL    HW170811   3.713   3.004   5.580  1.7185  0.1904  0.6465
53499SOL    HW270812   3.565   3.034   5.590  1.0977 -1.6806 -1.9908
53500SOL     OW70813   9.173   3.784   8.634 -0.2342  0.0347 -0.0664
53500SOL    HW170814   9.160   3.709   8.692  0.4670 -0.5785 -0.6752
53500SOL    HW270815   9.114   3.768   8.561 -0.6604  0.4835  0.1801
53501SOL     OW70816   1.035   5.340   8.935  0.3116  0.3215  0.4003
53501SOL    HW170817   1.062   5.431   8.942 -0.1326  0.5791 -0.9019
53501SOL    HW270818   1.072   5.310   8.852 -0.1679 -0.4537  0.4486
53502SOL     OW70819   3.101   3.823   3.485  0.0604  0.0055 -0.0441
53502SOL    HW170820   3.075   3.883   3.415 -1.5599 -1.8173 -1.1040
53502SOL    HW270821   3.196   3.812   3.474  0.3938  2.2400  0.1481
53503SOL     OW70822   9.510   6.300   6.222 -0.2446 -0.4128  0.6179
53503SOL    HW170823   9.497   6.245   6.144  1.7360  1.9941 -1.6208
53503SOL    HW270824   9.584   6.261   6.268 -1.5580 -1.9732  1.4744
53504SOL     OW70825   2.104  10.760   9.998 -0.4424 -0.2426  0.4539
53504SOL    HW170826   2.098  10.812  10.078  1.3014 -0.2760  0.6401
53504SOL    HW270827   2.058  10.679  10.019 -0.2683 -0.1311  1.3194
53505SOL     OW70828   2.693   1.388   3.392  0.2290 -0.5854 -0.1452
53505SOL    HW170829   2.664   1.465   3.343 -0.6298  0.1003  1.3536
53505SOL    HW270830   2.627   1.378   3.461  0.6324 -2.3511  0.0093
53506SOL     OW70831   3.117   2.093  10.330  0.2002 -0.4387 -0.1546
53506SOL    HW170832   3.152   2.020  10.278  0.6300  0.7754 -1.6502
53506SOL    HW270833   3.066   2.051  10.399 -1.2896 -2.1418 -2.1687
53507SOL     OW70834   2.756   7.225   8.750  0.6912 -0.0097  0.2761
53507SOL    HW170835   2.721   7.226   8.660  0.6980  1.8919  0.2509
53507SOL    HW270836   2.678   7.226   8.805  0.6638  1.4576  0.2433
53508SOL     OW70837  11.960   1.411   0.276  0.1246 -0.0459  0.4261
53508SOL    HW170838  11.915   1.389   0.195 -0.0364  0.5734  0.3424
53508SOL    HW270839  11.893   1.450   0.332  0.2688 -0.3206  0.7987
53509SOL     OW70840   7.720   3.287   4.859 -0.3551  0.0848  0.5326
53509SOL    HW170841   7.630   3.271   4.889 -0.4699  2.1842  1.4963
53509SOL    HW270842   7.714   3.283   4.763 -1.1105 -1.3957  0.6114
53510SOL     OW70843   8.629  10.163   6.979 -0.1274  0.1085 -0.7333
53510SOL    HW170844   8.645  10.235   6.918 -1.1818  0.0023 -1.1513
53510SOL    HW270845   8.539  10.136   6.962  0.5631 -2.0195 -1.3191
53511SOL     OW70846   0.172   1.069   2.235 -0.4500 -0.3489  0.5722
53511SOL    HW170847   0.178   1.154   2.277 -0.7450 -0.7826  1.5059
53511SOL    HW270848   0.084   1.066   2.198  0.1595  0.4582 -1.0556
53512SOL     OW70849   4.677   3.868   3.646  0.3169 -0.5534 -0.8583
53512SOL    HW170850   4.606   3.909   3.695  1.3289  0.9216 -0.5893
53512SOL    HW270851   4.722   3.813   3.711 -0.6120 -1.5945 -1.0580
53513SOL     OW70852   2.971   2.588   2.352 -0.1858  0.0914 -0.1029
53513SOL    HW170853   3.033   2.660   2.367 -0.9620  0.8808 -0.6512
53513SOL    HW270854   3.019   2.528   2.295  0.6369 -0.0770  0.7250
53514SOL     OW70855   9.609   9.859  10.349  0.4156 -0.1300 -0.7499
53514SOL    HW170856   9.642   9.928  10.407 -0.1638 -1.0174  0.7039
53514SOL    HW270857   9.627   9.778  10.397 -2.9804 -0.7367 -0.2797
53515SOL     OW70858   5.002   4.960   7.211  0.3144 -0.4643  0.2789
53515SOL    HW170859   4.948   4.919   7.142  0.3228  0.9716 -0.6115
53515SOL    HW270860   4.955   5.040   7.233  1.6394  0.3776  0.1080
53516SOL     OW70861   9.352   2.123   5.613  0.6049 -0.3041  0.7407
53516SOL    HW170862   9.278   2.137   5.672  0.3219 -0.6468  0.4636
53516SOL    HW270863   9.404   2.204   5.620  2.0207 -1.3178  3.5297
53517SOL     OW70864   0.875  10.274   2.777  0.1653 -0.6943  0.1163
53517SOL    HW170865   0.855  10.199   2.833  1.0318 -2.1900 -1.4666
53517SOL    HW270866   0.800  10.278   2.717  0.5660 -0.8899 -0.3957
53518SOL     OW70867   2.014   9.859   4.447 -0.1560  0.0561 -0.7961
53518SOL    HW170868   1.957   9.831   4.518  1.4092  0.8362  0.8512
53518SOL    HW270869   2.008   9.789   4.382 -0.3053 -1.5779  0.8960
53519SOL     OW70870  12.683   7.347   2.682  0.3030  0.5230  0.2955
53519SOL    HW170871  12.607   7.338   2.739 -0.6267  0.7565 -0.8467
53519SOL    HW270872  12.741   7.407   2.728  0.4365 -0.6930  1.8055
53520SOL     OW70873   1.790   4.124  11.950 -0.2145  0.4327  0.2619
53520SOL    HW170874   1.737   4.128  12.030 -0.4854 -0.2624  0.1256
53520SOL    HW270875   1.876   4.096  11.980  0.4181  2.5844  0.6270
53521SOL     OW70876   0.163   8.403   3.314 -1.0353 -0.1467  0.1976
53521SOL    HW170877   0.079   8.413   3.270 -0.2721 -1.6065 -1.7040
53521SOL    HW270878   0.196   8.317   3.286  0.8501  0.1324  1.3236
53522SOL     OW70879   3.742   0.721   1.990 -0.0963  0.1495 -0.8162
53522SOL    HW170880   3.696   0.763   1.917  0.1399  1.8848 -0.0324
53522SOL    HW270881   3.835   0.734   1.970 -0.0317  2.0054  0.4814
53523SOL     OW70882  12.487   0.923   9.087 -0.3754  0.7918  0.4092
53523SOL    HW170883  12.459   0.837   9.056 -1.7139  1.3669 -0.0526
53523SOL    HW270884  12.547   0.954   9.019 -2.5125  1.6149 -1.2233
53524SOL     OW70885   9.532   9.263   0.548 -0.2952 -0.4983  0.1390
53524SOL    HW170886   9.576   9.313   0.617  2.9962  0.0988 -2.1687
53524SOL    HW270887   9.585   9.184   0.538 -0.0854 -0.1202 -2.3026
53525SOL     OW70888   1.007   9.499   6.500 -0.1182  0.0820 -0.1559
53525SOL    HW170889   0.985   9.417   6.543 -1.7648  1.6019  2.1152
53525SOL    HW270890   1.063   9.473   6.426 -1.0833 -3.0827  0.0813
53526SOL     OW70891   1.146   2.535   1.392 -0.4427 -0.3557 -0.0426
53526SOL    HW170892   1.182   2.623   1.408  0.9773 -0.3300 -2.8322
53526SOL    HW270893   1.211   2.492   1.338 -1.0515 -3.2531  1.3601
53527SOL     OW70894   9.176   1.814   2.230 -0.1461  0.1708 -0.0147
53527SOL    HW170895   9.256   1.778   2.191  1.6229  0.5674  3.0006
53527SOL    HW270896   9.192   1.812   2.324 -3.6659  0.4387  0.7042
53528SOL     OW70897  10.196   9.645   4.889 -0.3430 -0.0199  0.5593
53528SOL    HW170898  10.277   9.630   4.841 -0.3513  1.5725 -0.0147
53528SOL    HW270899  10.217   9.714   4.952 -0.9312 -0.4714  1.2688
53529SOL     OW70900  10.197   9.503   7.489 -0.1815 -0.0652 -0.1962
53529SOL    HW170901  10.112   9.464   7.468  0.4091 -1.4374 -0.1475
53529SOL    HW270902  10.193   9.520   7.583 -0.6071  0.4002 -0.2981
53530SOL     OW70903   7.374   0.562   4.957  0.0338 -0.1634  0.4651
53530SOL    HW170904   7.336   0.507   5.026 -2.8168 -1.5252 -1.9829
53530SOL    HW270905   7.303   0.618   4.928  0.6352 -0.6811 -2.3248
53531SOL     OW70906   4.951  11.212   7.153 -0.2794 -0.5263  0.5664
53531SOL    HW170907   5.030  11.247   7.197 -0.7162  1.1165  0.1296
53531SOL    HW270908   4.881  11.226   7.217 -0.4309 -0.7836  0.4545
53532SOL     OW70909   1.448   7.599   7.696  0.9495 -0.2995 -0.1817
53532SOL    HW170910   1.438   7.665   7.627 -0.8604 -2.2091 -1.8873
53532SOL    HW270911   1.366   7.603   7.745  1.3968 -0.3587  0.5852
53533SOL     OW70912   8.190   5.375   7.878 -0.3039  0.3243  0.2454
53533SOL    HW170913   8.180   5.309   7.810 -0.4923 -0.0316  0.6142
53533SOL    HW270914   8.174   5.459   7.833 -0.6512  0.0781 -0.0991
53534SOL     OW70915  11.692  11.458   2.464 -0.1288  0.1343  0.4266
53534SOL    HW170916  11.671  11.436   2.373 -0.2527 -0.4967  0.6061
53534SOL    HW270917  11.670  11.380   2.514 -0.4737  0.6237  1.0637
53535SOL     OW70918   7.421  10.530   9.403  0.3793  0.1848 -0.0952
53535SOL    HW170919   7.491  10.467   9.389  1.5622  1.3750  0.2432
53535SOL    HW270920   7.388  10.548   9.315  0.5311 -0.3479 -0.2658
53536SOL     OW70921   1.006  10.059  11.289  0.4324  0.4172  0.1497
53536SOL    HW170922   1.097  10.057  11.318  0.2819  0.2012  0.6101
53536SOL    HW270923   1.011  10.080  11.195  0.9771 -0.0704  0.0666
53537SOL     OW70924  10.081   9.027  12.972 -0.0223 -0.1834  0.5648
53537SOL    HW170925  10.023   8.955  12.945 -1.9531  1.4900 -0.0232
53537SOL    HW270926  10.115   9.062  12.889 -0.2022  0.4442  0.7562
53538SOL     OW70927   5.276  12.367   5.098 -0.6095  0.8162 -0.4110
53538SOL    HW170928   5.251  12.275   5.098 -0.8626  0.8797  0.5653
53538SOL    HW270929   5.223  12.406   5.028 -0.7834  0.2948 -0.5731
53539SOL     OW70930   0.600   3.421   3.676  0.3502 -0.5896 -0.3378
53539SOL    HW170931   0.626   3.341   3.629 -0.4146 -1.5073  0.7317
53539SOL    HW270932   0.628   3.492   3.619  3.7145 -1.4899 -0.0246
53540SOL     OW70933   9.241   4.075   2.856 -0.0548 -0.0556 -0.0988
53540SOL    HW170934   9.274   3.993   2.820 -3.0406 -1.1303 -0.7141
53540SOL    HW270935   9.315   4.135   2.852  1.9669 -2.4313 -0.5202
53541SOL     OW70936  12.545  12.074   7.814 -0.2909  0.7108  0.2951
53541SOL    HW170937  12.487  12.083   7.739 -1.1120  1.2878  0.9822
53541SOL    HW270938  12.494  12.025   7.879  1.6304 -3.1262 -0.7599
53542SOL     OW70939   0.969   2.693   0.526  0.4056  0.0564 -0.8461
53542SOL    HW170940   0.873   2.693   0.516  0.0589 -1.9300  1.4824
53542SOL    HW270941   0.991   2.601   0.539  2.2953  0.7149  1.2380
53543SOL     OW70942   9.493   4.643   7.781  0.3234  0.3208  0.5562
53543SOL    HW170943   9.443   4.676   7.707  1.2143 -1.8555 -1.1102
53543SOL    HW270944   9.571   4.698   7.784  0.1277  0.6261  0.0968
53544SOL     OW70945  12.784   8.187   8.719 -0.9451 -0.4015  0.5837
53544SOL    HW170946  12.869   8.150   8.694 -0.9930 -0.4132  0.4424
53544SOL    HW270947  12.760   8.138   8.798 -0.4112  0.1979  1.1296
53545SOL     OW70948  12.846   8.653   3.499 -0.2013 -0.7675 -0.0977
53545SOL    HW170949  12.823   8.745   3.492  2.4271 -0.0033  0.2628
53545SOL    HW270950  12.768   8.606   3.469 -2.0564  1.5070  0.8815
53546SOL     OW70951  10.931   0.882   7.083  0.5594 -0.0748  0.0144
53546SOL    HW170952  10.872   0.955   7.104 -0.8105 -1.4630  1.2106
53546SOL    HW270953  10.962   0.902   6.995 -0.7579  1.3299 -0.1908
53547SOL     OW70954   1.214  12.828   7.208 -0.6469 -0.1310  0.1951
53547SOL    HW170955   1.130  12.855   7.171 -0.4730 -0.0387 -0.1397
53547SOL    HW270956   1.222  12.735   7.186 -0.1061  0.1503 -0.8560
53548SOL     OW70957   3.104   2.595   1.254 -0.3859  0.4012 -0.2958
53548SOL    HW170958   3.183   2.579   1.204 -0.5133 -0.8382 -0.1153
53548SOL    HW270959   3.102   2.526   1.320  0.4782  2.6927  2.3594
53549SOL     OW70960   3.065   1.017   1.660  0.3943  0.3408  0.1792
53549SOL    HW170961   3.012   0.949   1.702  0.6992 -0.2134 -0.3129
53549SOL    HW270962   3.129   1.042   1.728 -0.5307  1.0777  0.8029
53550SOL     OW70963   1.061   8.609   4.201  0.5497  0.3082  0.3755
53550SOL    HW170964   1.104   8.557   4.269  0.2573  0.2854  0.5470
53550SOL    HW270965   1.106   8.693   4.202  0.4059  0.3826  0.7471
53551SOL     OW70966   4.988   0.249   4.466 -0.0652  0.0371 -0.4393
53551SOL    HW170967   5.004   0.155   4.467  0.2417  0.0750 -1.0063
53551SOL    HW270968   4.923   0.264   4.534 -1.0578 -0.7609 -1.1809
53552SOL     OW70969  10.728   9.485  11.898  0.4426 -0.5281  0.3441
53552SOL    HW170970  10.762   9.497  11.809 -0.6209 -0.1857 -0.0335
53552SOL    HW270971  10.694   9.572  11.922  0.6798 -0.6341  1.0602
53553SOL     OW70972   0.901   8.367   0.912 -0.0934  1.0471  0.1706
53553SOL    HW170973   0.868   8.306   0.846 -1.5168  1.1569  0.7614
53553SOL    HW270974   0.861   8.339   0.994 -0.7356  2.7134  0.4752
53554SOL     OW70975   3.124   2.094  11.674 -0.1791  0.0915  0.1862
53554SOL    HW170976   3.166   2.024  11.724  0.7187 -0.8420 -1.7439
53554SOL    HW270977   3.197   2.150  11.647 -0.5320  0.1412 -0.6917
53555SOL     OW70978   2.749   8.826   6.986 -0.0613  0.2294 -0.1737
53555SOL    HW170979   2.731   8.815   7.079  0.2204  0.3682 -0.1019
53555SOL    HW270980   2.663   8.824   6.944 -0.0850 -3.3374 -0.3151
53556SOL     OW70981   1.322   4.032   3.815 -0.1485  0.2421 -0.0933
53556SOL    HW170982   1.338   4.007   3.906 -1.8255 -0.0875  0.1534
53556SOL    HW270983   1.392   3.991   3.765 -0.1003 -0.8989  0.8769
53557SOL     OW70984   6.225   7.166   2.046  0.2858  0.4424 -0.3311
53557SOL    HW170985   6.227   7.245   2.099  0.3087 -0.6596  1.3868
53557SOL    HW270986   6.252   7.096   2.106 -1.5815 -1.1636 -1.2480
53558SOL     OW70987   4.024   2.403  12.899 -0.0671 -0.1600 -0.1420
53558SOL    HW170988   3.957   2.465  12.928  0.5322  0.8778 -0.9095
53558SOL    HW270989   4.085   2.455  12.848  1.3376 -1.0776  0.5182
53559SOL     OW70990   1.037   0.230  10.642  0.1556 -0.4146  0.0626
53559SOL    HW170991   1.105   0.298  10.643 -0.1666 -0.0320  2.5765
53559SOL    HW270992   1.076   0.156  10.688 -1.4809  0.3102  2.8730
53560SOL     OW70993   8.194   0.984   4.127  0.2978 -0.6666  0.0866
53560SOL    HW170994   8.139   1.055   4.093 -1.0168 -0.2748  2.7691
53560SOL    HW270995   8.255   1.027   4.186  4.1150 -1.0215 -3.1534
53561SOL     OW70996   7.491   1.322   2.774 -0.4121  0.1462  1.0835
53561SOL    HW170997   7.548   1.256   2.813  0.7802  0.2392 -0.4041
53561SOL    HW270998   7.406   1.278   2.766 -0.0036 -0.7230  1.4253
53562SOL     OW70999  10.536   6.350   2.170  0.0126 -0.2039  0.3707
53562SOL    HW171000  10.565   6.314   2.086 -0.6081 -0.4638  0.2594
53562SOL    HW271001  10.610   6.400   2.202 -0.1852  1.0220 -0.9742
53563SOL     OW71002   9.210   9.908   2.147  0.1980 -0.3845  1.0927
53563SOL    HW171003   9.240   9.952   2.068  0.5335 -0.0405  1.4129
53563SOL    HW271004   9.290   9.881   2.192  0.0047 -0.9682  1.0989
53564SOL     OW71005   4.600   2.220   5.286 -0.2052 -0.6814 -0.3892
53564SOL    HW171006   4.653   2.237   5.364  0.2108  0.3863 -0.8906
53564SOL    HW271007   4.652   2.158   5.235  0.5326  0.2847 -0.8316
53565SOL     OW71008  12.483   0.613   0.662  0.1072  0.8116  0.1240
53565SOL    HW171009  12.549   0.545   0.654  0.1733  0.7791  0.8499
53565SOL    HW271010  12.439   0.615   0.577  0.4749  0.2516 -0.0813
53566SOL     OW71011  11.227  10.328   4.432  0.0616 -0.0164  0.7026
53566SOL    HW171012  11.202  10.407   4.481  0.2310  0.3488  0.2096
53566SOL    HW271013  11.238  10.359   4.342  2.6669 -0.0483  0.9265
53567SOL     OW71014  12.568   3.653  11.772  0.2506  0.4455 -0.3688
53567SOL    HW171015  12.525   3.702  11.842 -2.8226  1.3539 -2.6584
53567SOL    HW271016  12.617   3.584  11.817  0.4390  2.4056  2.7166
53568SOL     OW71017  11.485   7.605   8.640 -0.4837 -0.2996 -0.3976
53568SOL    HW171018  11.398   7.593   8.680 -0.0777  1.3908  1.1246
53568SOL    HW271019  11.513   7.516   8.618 -2.2078 -0.9700 -0.0936
53569SOL     OW71020   6.315   5.302   7.466  0.0594  0.3954 -0.3498
53569SOL    HW171021   6.230   5.333   7.498 -0.9146 -1.3427 -1.1457
53569SOL    HW271022   6.331   5.356   7.388  0.7164  2.1279  0.9040
53570SOL     OW71023  12.949   9.760  10.387  0.4524  0.0384  0.0416
53570SOL    HW171024  12.908   9.840  10.419  0.6488  0.2784 -0.2988
53570SOL    HW271025  12.934   9.761  10.293  0.9478 -0.0343 -0.0436
53571SOL     OW71026   2.016   9.522   8.257 -0.9551  0.3634 -0.0206
53571SOL    HW171027   2.042   9.607   8.292  0.0849  0.6027 -1.3042
53571SOL    HW271028   2.067   9.459   8.307 -0.6295  0.5974 -0.0543
53572SOL     OW71029   5.654   8.701  10.746  0.1935  0.1193  0.0936
53572SOL    HW171030   5.636   8.773  10.685  0.6374 -0.3233 -0.5766
53572SOL    HW271031   5.578   8.701  10.805 -0.6651  0.0457 -0.9655
53573SOL     OW71032   2.805  11.066   6.161  0.4883 -0.5355 -0.2106
53573SOL    HW171033   2.789  11.153   6.197 -0.2069  0.0210 -1.8045
53573SOL    HW271034   2.901  11.059   6.156  0.5482  0.6727 -1.2803
53574SOL     OW71035   4.848   2.302   7.003  0.4253 -0.4194 -0.0389
53574SOL    HW171036   4.884   2.365   7.066  0.8464 -0.7138  0.0170
53574SOL    HW271037   4.882   2.330   6.919  0.8952 -0.7748  0.0310
53575SOL     OW71038   7.395   0.529   0.437 -0.2486 -0.5499  0.0019
53575SOL    HW171039   7.317   0.475   0.449 -1.0784  0.9684  1.9473
53575SOL    HW271040   7.447   0.514   0.517  0.7759 -0.4560 -0.6283
53576SOL     OW71041   8.980  10.537   0.607  0.3451 -0.2861  0.6008
53576SOL    HW171042   8.961  10.603   0.540  2.0322 -0.5123 -0.1423
53576SOL    HW271043   8.895  10.521   0.649 -0.9776 -0.7502 -2.0360
53577SOL     OW71044   2.405   9.228   2.387  0.1976 -0.4480 -0.4493
53577SOL    HW171045   2.422   9.234   2.481 -0.4240 -0.0059 -0.3585
53577SOL    HW271046   2.333   9.289   2.371  0.0362 -0.8022 -1.1493
53578SOL     OW71047   0.973   0.836   1.520  0.0100  0.1413  0.1110
53578SOL    HW171048   0.961   0.741   1.527  0.5406  0.1525  1.4508
53578SOL    HW271049   0.938   0.870   1.601 -1.4962  1.2637 -0.9610
53579SOL     OW71050   3.986   0.836   1.101  0.3042  0.2426  0.1429
53579SOL    HW171051   3.901   0.836   1.145  0.8272 -0.1635  1.1850
53579SOL    HW271052   4.049   0.824   1.172  1.1371 -0.9258 -0.7714
53580SOL     OW71053   0.629  11.104  11.405 -0.0957 -0.0923  0.2983
53580SOL    HW171054   0.612  11.183  11.354  0.7014  0.4504  0.8394
53580SOL    HW271055   0.723  11.108  11.423 -0.0789 -1.0923  0.4580
53581SOL     OW71056   2.540   8.278   5.326 -0.3117 -0.5444 -0.5374
53581SOL    HW171057   2.454   8.314   5.305  0.6427  0.5250 -3.0962
53581SOL    HW271058   2.592   8.354   5.349  0.3610 -0.9564 -0.6674
53582SOL     OW71059   0.234  12.592   3.313  0.1575  0.0401  0.1637
53582SOL    HW171060   0.241  12.555   3.401  1.5055  0.3325  0.2087
53582SOL    HW271061   0.143  12.577   3.287 -0.4439  0.5070  1.8527
53583SOL     OW71062  10.027   1.289  12.556  0.5395  0.4737 -0.4162
53583SOL    HW171063  10.045   1.311  12.465 -0.1054  0.5049 -0.5379
53583SOL    HW271064   9.965   1.217  12.551 -1.9473  2.4677 -0.0132
53584SOL     OW71065  12.677   8.244   5.663 -0.6932  0.2699 -0.7701
53584SOL    HW171066  12.710   8.154   5.664 -2.2003 -0.3196 -1.0100
53584SOL    HW271067  12.698   8.275   5.574  0.6888  0.5274 -0.3848
53585SOL     OW71068  12.684   0.921  11.881  0.4941  0.2417 -0.1705
53585SOL    HW171069  12.700   1.015  11.890 -0.5157  0.3741  0.4675
53585SOL    HW271070  12.680   0.906  11.787 -2.0433  1.3758 -0.3213
53586SOL     OW71071  12.587  11.364   4.361 -0.3559  0.0567  0.3108
53586SOL    HW171072  12.652  11.333   4.298 -1.0382 -1.8397  0.4930
53586SOL    HW271073  12.503  11.356   4.315 -0.7582 -0.3888  1.1051
53587SOL     OW71074   6.068   7.309   9.753  0.8727 -0.2622 -0.2866
53587SOL    HW171075   6.161   7.288   9.763  1.1475  0.6505 -0.7337
53587SOL    HW271076   6.061   7.339   9.662 -0.0345 -1.1438 -0.5203
53588SOL     OW71077   4.332  11.546   0.828 -0.1888 -0.5809  0.6292
53588SOL    HW171078   4.378  11.628   0.842  0.9568 -0.6427 -2.1102
53588SOL    HW271079   4.239  11.570   0.835  0.0834  1.1822 -0.8098
53589SOL     OW71080   0.765   2.204   7.100  0.3222 -0.5133  0.0416
53589SOL    HW171081   0.788   2.251   7.020  2.0185  1.8421  1.7372
53589SOL    HW271082   0.735   2.273   7.160 -1.2449 -2.2321  1.3405
53590SOL     OW71083   4.186   0.018   9.466  0.2216 -0.0770 -0.5464
53590SOL    HW171084   4.123  -0.005   9.397 -0.1421 -0.5121 -0.0789
53590SOL    HW271085   4.132   0.044   9.540  0.6118  0.4229 -0.4314
53591SOL     OW71086  10.402   5.255   3.071 -0.7096 -0.4288 -0.1868
53591SOL    HW171087  10.362   5.289   3.151 -0.3744 -0.8445  0.1608
53591SOL    HW271088  10.426   5.165   3.092  0.3344 -0.2172 -0.4061
53592SOL     OW71089   2.177   8.061   5.226  0.1381  0.1705 -0.7243
53592SOL    HW171090   2.272   8.053   5.216  0.3779 -2.5990  2.1032
53592SOL    HW271091   2.166   8.093   5.316 -1.6039 -0.4203 -0.7010
53593SOL     OW71092  12.582   5.500   1.247 -0.6258 -0.6082 -0.0700
53593SOL    HW171093  12.585   5.438   1.320 -1.8187  2.1717  2.5677
53593SOL    HW271094  12.517   5.464   1.187 -0.4353 -2.4476  0.7678
53594SOL     OW71095   1.524   0.484   3.674 -0.0473  0.0562 -0.3636
53594SOL    HW171096   1.471   0.525   3.743 -0.5260 -1.1183  0.0109
53594SOL    HW271097   1.549   0.555   3.616 -1.8803  0.7032 -0.4238
53595SOL     OW71098   4.995   4.749   8.959  0.0261 -0.0017 -0.0825
53595SOL    HW171099   4.949   4.781   8.882  1.7085  0.6131 -0.8891
53595SOL    HW271100   5.085   4.781   8.949  0.5387 -0.7336  1.6479
53596SOL     OW71101   0.573   2.842   8.602  0.3093 -0.3690  0.1588
53596SOL    HW171102   0.551   2.760   8.558 -1.6105 -0.1280  0.5783
53596SOL    HW271103   0.645   2.819   8.661 -0.5885 -1.9030  0.7011
53597SOL     OW71104  12.129  10.898  11.177  0.2153  0.5714 -0.9204
53597SOL    HW171105  12.094  10.811  11.157 -0.4250  1.0917 -2.2028
53597SOL    HW271106  12.169  10.926  11.095 -0.3392  1.8309 -0.7801
53598SOL     OW71107   5.130  12.920   6.530  0.1199 -0.4903  0.2216
53598SOL    HW171108   5.057  12.949   6.583 -1.1884 -2.1221 -0.5973
53598SOL    HW271109   5.113  12.955   6.443  1.1779  0.4369  0.3532
53599SOL     OW71110   0.834   7.068   0.740  0.1453  0.1431  0.0025
53599SOL    HW171111   0.827   6.974   0.753 -0.2924  0.1632 -0.0800
53599SOL    HW271112   0.922   7.081   0.705 -0.1898 -0.3554 -1.0762
53600SOL     OW71113   1.160  10.542   0.134 -0.7724 -0.0345  0.7029
53600SOL    HW171114   1.130  10.453   0.115 -0.4501  0.1336 -0.6446
53600SOL    HW271115   1.251  10.543   0.106 -0.8540  0.8122  0.4533
53601SOL     OW71116   6.391   1.683   4.893 -0.0946 -0.1499  0.3103
53601SOL    HW171117   6.431   1.597   4.880  0.5423 -0.5430  3.8455
53601SOL    HW271118   6.301   1.663   4.920  0.4503  0.0984  2.5272
53602SOL     OW71119   8.297   9.930   6.189  0.1430  0.3938  0.1263
53602SOL    HW171120   8.358   9.860   6.211  0.3653 -0.3138 -2.4178
53602SOL    HW271121   8.352  10.008   6.180  0.3970  0.1740 -0.2467
53603SOL     OW71122   7.200  10.523   4.820  0.3256 -0.5675  0.3467
53603SOL    HW171123   7.131  10.572   4.775  1.5725 -0.1567 -1.2325
53603SOL    HW271124   7.185  10.432   4.795  0.5939 -0.4238 -0.3794
53604SOL     OW71125   2.339  10.526   6.154 -0.0251  0.0360 -0.1732
53604SOL    HW171126   2.352  10.502   6.246  2.1918  0.5368 -0.3042
53604SOL    HW271127   2.312  10.445   6.111  1.5643 -0.8510  0.4471
53605SOL     OW71128   1.579   9.049   9.675  0.2542 -0.1186  0.3023
53605SOL    HW171129   1.672   9.068   9.666  0.7006 -2.1708  0.0251
53605SOL    HW271130   1.535   9.121   9.630  1.7487  0.3352 -0.4819
53606SOL     OW71131   1.068   4.741   3.088 -0.7008  0.2021 -0.4493
53606SOL    HW171132   1.075   4.776   3.177  0.0989  0.3584 -0.5697
53606SOL    HW271133   1.153   4.758   3.048 -1.5405  1.5145 -1.7612
53607SOL     OW71134  11.456  10.254   4.932 -0.5979 -0.4283 -0.4697
53607SOL    HW171135  11.382  10.312   4.915 -0.1718 -0.2604 -1.9261
53607SOL    HW271136  11.533  10.306   4.909  0.0240 -0.5352  1.2068
53608SOL     OW71137   2.222   5.191   3.959 -0.1495  0.1546 -0.1428
53608SOL    HW171138   2.245   5.216   4.049  1.4541  0.1276 -0.5143
53608SOL    HW271139   2.146   5.245   3.938 -0.9282 -0.2701  1.4208
53609SOL     OW71140  12.716  11.464   8.000 -0.4780 -0.4585  0.1736
53609SOL    HW171141  12.806  11.434   7.995 -1.0318 -2.3705  0.9326
53609SOL    HW271142  12.687  11.469   7.909  0.4129  0.3128 -0.0840
53610SOL     OW71143   2.420  12.707   9.720  0.2373 -0.2812 -0.1939
53610SOL    HW171144   2.506  12.738   9.745  0.0752  1.3406 -1.5102
53610SOL    HW271145   2.410  12.623   9.766  1.5488  0.5983  1.7921
53611SOL     OW71146   4.709   2.055   9.344 -0.5449  0.3270 -0.4611
53611SOL    HW171147   4.633   2.017   9.300 -1.7410  0.7203  1.2064
53611SOL    HW271148   4.732   1.993   9.413 -1.1890  1.5586  0.9142
53612SOL     OW71149   8.722  11.363   3.775  0.0381  0.4510 -0.0638
53612SOL    HW171150   8.675  11.446   3.785 -1.9009 -0.6878  0.8695
53612SOL    HW271151   8.814  11.386   3.784 -0.3974  2.5834 -0.5335
53613SOL     OW71152   8.088   4.929   1.019  0.2279 -0.0454  0.6403
53613SOL    HW171153   8.098   4.851   0.965  0.2190 -0.9655  1.9140
53613SOL    HW271154   7.995   4.951   1.013 -0.2007 -1.3714  1.8563
53614SOL     OW71155   4.194  12.012   6.161  0.1248 -0.2324 -0.6900
53614SOL    HW171156   4.108  12.054   6.153  1.1709  1.8715 -1.7279
53614SOL    HW271157   4.180  11.923   6.127 -2.1840 -0.8828  1.5973
53615SOL     OW71158   8.502   9.609   2.447 -0.1322 -0.0516  0.2989
53615SOL    HW171159   8.538   9.591   2.535 -0.3059  2.1139  0.8580
53615SOL    HW271160   8.543   9.691   2.421 -0.9658 -0.0799 -1.1808
53616SOL     OW71161   1.266   4.097  12.759  0.1992  0.5106 -0.6511
53616SOL    HW171162   1.357   4.099  12.789  0.3917  0.5607 -1.2299
53616SOL    HW271163   1.216   4.080  12.839  0.8664 -1.6992 -0.6254
53617SOL     OW71164  10.199   3.153  12.559  0.0774 -0.4126 -0.0952
53617SOL    HW171165  10.137   3.147  12.631 -0.3593 -0.9842 -0.5147
53617SOL    HW271166  10.209   3.247  12.543  0.1939 -0.2786  0.7128
53618SOL     OW71167   2.616   9.661   0.265 -0.2731  0.0528 -0.0831
53618SOL    HW171168   2.532   9.631   0.299  0.5529  0.1306  2.1922
53618SOL    HW271169   2.620   9.753   0.288  0.4460  0.0357 -0.1130
53619SOL     OW71170   7.798  10.643   6.879  0.0765  0.2545 -0.4098
53619SOL    HW171171   7.724  10.610   6.828  0.0451 -0.2669 -0.0390
53619SOL    HW271172   7.819  10.571   6.939  0.5325  0.6091 -0.1423
53620SOL     OW71173   3.695  12.833  12.724  0.1992  0.2018  0.4761
53620SOL    HW171174   3.719  12.834  12.816  2.3797 -2.1958  0.0434
53620SOL    HW271175   3.764  12.881  12.680 -1.5333  2.5463  0.1055
53621SOL     OW71176   5.346   2.599   7.510 -0.8037 -0.1572 -0.2996
53621SOL    HW171177   5.394   2.542   7.569 -1.2271 -1.3556 -1.0718
53621SOL    HW271178   5.317   2.542   7.439  0.0105  1.3035 -1.8765
53622SOL     OW71179  12.365   7.488  12.308 -0.1501  0.0784 -0.1217
53622SOL    HW171180  12.409   7.496  12.393 -1.2050 -0.4246  0.4824
53622SOL    HW271181  12.275   7.465  12.329 -1.0513  2.2763 -1.3023
53623SOL     OW71182   4.513   2.203   7.692 -0.3257 -0.4031  0.5327
53623SOL    HW171183   4.577   2.268   7.666 -0.8909 -0.5656 -1.3916
53623SOL    HW271184   4.428   2.244   7.674 -0.7530 -0.6693  1.8375
53624SOL     OW71185   3.136   8.857   0.305 -0.2611 -0.1762  0.1482
53624SOL    HW171186   3.195   8.830   0.375  1.5573  2.3175 -0.2750
53624SOL    HW271187   3.059   8.892   0.350 -0.0918 -0.6298  0.8002
53625SOL     OW71188  12.719  11.045   3.140  0.1053  0.9190  0.3241
53625SOL    HW171189  12.792  10.990   3.112  1.9592  1.4579  3.5423
53625SOL    HW271190  12.660  11.047   3.065  2.4160 -1.1898 -1.7422
53626SOL     OW71191   7.174   4.944   4.148 -0.0547  0.6063 -0.4160
53626SOL    HW171192   7.222   5.018   4.111  0.9856 -0.3486 -1.0403
53626SOL    HW271193   7.081   4.966   4.136  0.2280  2.0443 -0.0690
53627SOL     OW71194   4.608   5.939   5.490  0.4950 -0.3321 -0.1384
53627SOL    HW171195   4.586   5.845   5.487 -2.3752  0.2679 -1.4403
53627SOL    HW271196   4.526   5.983   5.469  2.1188  2.4623 -1.1224
53628SOL     OW71197   3.086   0.175   7.194  0.1724 -0.5162  0.1823
53628SOL    HW171198   3.066   0.154   7.285  0.8696 -1.3503  0.1530
53628SOL    HW271199   3.181   0.170   7.188  0.4278  2.4880  0.1199
53629SOL     OW71200   0.594   5.778   5.254 -0.1675 -1.0574  0.0159
53629SOL    HW171201   0.607   5.798   5.161 -0.0317  2.7320  0.6852
53629SOL    HW271202   0.680   5.789   5.294 -0.7490  0.5920  0.9646
53630SOL     OW71203   8.733   2.512   3.803  0.1164 -0.1835 -1.0193
53630SOL    HW171204   8.649   2.503   3.849 -0.0796  0.1848 -1.3004
53630SOL    HW271205   8.768   2.595   3.835  1.2216 -1.1502  0.4494
53631SOL     OW71206  11.079   8.259   4.895 -0.7385 -0.7649 -0.0380
53631SOL    HW171207  11.046   8.203   4.965 -0.9280 -0.7981 -0.1524
53631SOL    HW271208  11.040   8.345   4.911  0.7445 -0.2604  1.0074
53632SOL     OW71209   7.199   0.342   3.443  0.2071  0.0661  0.1694
53632SOL    HW171210   7.150   0.360   3.363  2.9270 -0.0391 -1.6463
53632SOL    HW271211   7.219   0.428   3.480  0.7448  0.2168 -0.4563
53633SOL     OW71212   4.045   4.105   1.608  0.3980  0.1514 -0.0191
53633SOL    HW171213   3.956   4.121   1.639 -0.4106  0.3415 -2.2648
53633SOL    HW271214   4.097   4.099   1.688 -1.3565  1.5882  1.3262
53634SOL     OW71215  10.559   6.746   0.935 -0.0503  0.0354  0.1807
53634SOL    HW171216  10.615   6.795   0.875  0.0370  0.3030  0.4764
53634SOL    HW271217  10.470   6.771   0.911  0.0289  1.8698  1.5749
53635SOL     OW71218   4.338  10.382  10.218 -0.1119  0.2872  0.2669
53635SOL    HW171219   4.371  10.351  10.302 -0.0923  1.7280  0.8273
53635SOL    HW271220   4.416  10.399  10.166  0.0711  2.5930  1.1836
53636SOL     OW71221  10.214   9.075   9.495 -0.1114  0.4605 -0.1901
53636SOL    HW171222  10.229   9.023   9.573 -0.4313  1.3575  0.4879
53636SOL    HW271223  10.169   9.153   9.526 -0.9468  0.4847 -1.3746
53637SOL     OW71224   4.015   8.241  12.519  0.7818 -1.3666 -0.0879
53637SOL    HW171225   4.103   8.258  12.485  0.1131 -0.0526 -1.2728
53637SOL    HW271226   3.994   8.154  12.485  0.5982 -0.5755 -2.1861
53638SOL     OW71227   2.409   8.385   1.229  0.1726  0.4690 -0.6582
53638SOL    HW171228   2.342   8.388   1.298  0.1322  1.1914 -0.7219
53638SOL    HW271229   2.382   8.312   1.173 -0.5056  0.6857 -0.6262
53639SOL     OW71230   5.367   4.847   5.531  0.0582 -0.6227 -0.4617
53639SOL    HW171231   5.383   4.936   5.563  0.8598 -0.0226 -2.4176
53639SOL    HW271232   5.330   4.858   5.444 -0.6407 -2.2205 -0.4077
53640SOL     OW71233  11.329   7.795   6.086  0.0985  0.0436 -0.4920
53640SOL    HW171234  11.249   7.847   6.080  0.0597 -0.0156 -0.4805
53640SOL    HW271235  11.396   7.851   6.047  0.3427  0.6951  0.7894
53641SOL     OW71236   1.821   4.164   9.492 -0.2060  0.2529 -0.4030
53641SOL    HW171237   1.873   4.091   9.525 -0.0039 -0.4808 -2.2304
53641SOL    HW271238   1.744   4.165   9.548  0.0074 -1.0763 -0.0439
53642SOL     OW71239   6.534   9.608   7.228  0.0324 -0.2411  0.1896
53642SOL    HW171240   6.455   9.662   7.220 -0.1936 -0.6305 -0.2362
53642SOL    HW271241   6.516   9.549   7.301 -1.3386 -2.4151 -1.7917
53643SOL     OW71242   2.639   0.161   9.229 -0.3292 -0.1635 -0.2571
53643SOL    HW171243   2.690   0.120   9.160 -2.9699 -2.1992 -1.1823
53643SOL    HW271244   2.661   0.111   9.308  1.3187  0.9882  0.0675
53644SOL     OW71245   3.410   9.166   3.717  0.0170 -0.4046 -0.2472
53644SOL    HW171246   3.397   9.107   3.642 -0.0346 -0.3748 -0.2618
53644SOL    HW271247   3.503   9.160   3.736  0.0444 -0.3559 -0.3622
53645SOL     OW71248   5.061   6.493   3.685  0.3981  0.1676  0.2394
53645SOL    HW171249   5.084   6.509   3.777  1.2994 -0.3969  0.1135
53645SOL    HW271250   5.071   6.579   3.643  0.7790  0.2526  0.4995
53646SOL     OW71251   7.281   9.262   4.477  0.0886 -0.2266  0.2870
53646SOL    HW171252   7.331   9.333   4.517 -0.6343 -0.1272  1.0600
53646SOL    HW271253   7.335   9.231   4.405  1.6450 -0.6938  1.6049
53647SOL     OW71254   3.186   1.407   6.470  0.4869  0.1941  0.1041
53647SOL    HW171255   3.237   1.386   6.548  1.5633  4.2039  0.7382
53647SOL    HW271256   3.222   1.352   6.401 -0.2156 -3.1783  2.2262
53648SOL     OW71257   1.716  11.873   3.404 -0.6278  0.1206  0.0240
53648SOL    HW171258   1.645  11.921   3.363 -0.3107  0.7853  0.2324
53648SOL    HW271259   1.789  11.882   3.343 -0.7300 -0.6004 -0.2141
53649SOL     OW71260   2.894  10.166   2.317 -0.1019  0.1287  0.1830
53649SOL    HW171261   2.975  10.187   2.363 -0.7396  0.2706  1.2798
53649SOL    HW271262   2.923  10.131   2.233  1.1005 -0.0858  0.6606
53650SOL     OW71263   4.015   8.681  10.239 -1.3385  0.3335  0.1927
53650SOL    HW171264   4.012   8.665  10.333  3.2475 -0.6568  0.4040
53650SOL    HW271265   4.047   8.770  10.230  0.4393 -0.3029 -0.2625
53651SOL     OW71266   4.486  11.707  10.629 -0.0317  0.1659 -0.4605
53651SOL    HW171267   4.454  11.794  10.603  0.3781  0.0392 -1.4446
53651SOL    HW271268   4.581  11.719  10.639 -0.3560  0.8460  3.6469
53652SOL     OW71269  10.642  10.256   7.804  0.1307 -0.1164 -0.1288
53652SOL    HW171270  10.676  10.345   7.802 -0.5758  0.1497 -0.6142
53652SOL    HW271271  10.582  10.251   7.730  0.0574 -0.9577 -0.0265
53653SOL     OW71272  10.677  11.800   7.845  0.1855 -0.0543 -0.0748
53653SOL    HW171273  10.638  11.713   7.840 -0.2740  0.1890 -1.1400
53653SOL    HW271274  10.603  11.860   7.855  0.4409  0.2627 -0.0324
53654SOL     OW71275   1.556   7.684   3.729  0.5213 -0.1083  0.2063
53654SOL    HW171276   1.465   7.691   3.699  1.0124 -0.7496 -1.5488
53654SOL    HW271277   1.598   7.763   3.698  0.7592 -0.1963  0.3042
53655SOL     OW71278   7.855   4.093   7.118 -0.4995 -0.3066 -0.0441
53655SOL    HW171279   7.763   4.083   7.141 -1.1653 -0.5445 -2.5659
53655SOL    HW271280   7.871   4.188   7.123 -0.4867 -0.3758  1.6552
53656SOL     OW71281   1.203   6.616   7.099 -0.6731  0.3824 -0.1779
53656SOL    HW171282   1.273   6.553   7.084 -0.7750 -0.0234  0.9900
53656SOL    HW271283   1.246   6.691   7.140 -0.7066  0.6871 -0.6961
53657SOL     OW71284   5.312   9.140   1.479 -0.3019  0.1329 -0.3010
53657SOL    HW171285   5.406   9.136   1.461 -0.1564 -0.3818  0.5215
53657SOL    HW271286   5.285   9.049   1.492 -0.1783  0.4189  2.9007
53658SOL     OW71287   2.225   1.991   8.401  0.6674  0.5329 -0.4452
53658SOL    HW171288   2.170   1.982   8.479  0.3675 -0.8068 -0.7896
53658SOL    HW271289   2.207   2.079   8.369  0.2369  0.8329  0.5767
53659SOL     OW71290   9.951  11.394  10.908 -0.0154  0.3539 -0.1764
53659SOL    HW171291   9.951  11.337  10.985  3.3153  0.1402 -0.1861
53659SOL    HW271292   9.928  11.480  10.942  0.8352  0.1476  0.9811
53660SOL     OW71293   6.146   2.708   3.029 -0.0796  0.0113 -0.0435
53660SOL    HW171294   6.115   2.796   3.004 -0.1125  0.0476  0.1215
53660SOL    HW271295   6.219   2.691   2.970 -1.1377 -0.5647 -1.2406
53661SOL     OW71296   5.952  12.493   2.111 -0.0968 -0.4036 -0.2112
53661SOL    HW171297   5.876  12.435   2.115 -0.5838  0.2361 -0.0764
53661SOL    HW271298   5.916  12.581   2.121  0.4440  0.0641 -1.9618
53662SOL     OW71299   9.646  12.053   9.335  0.4979 -0.3272 -0.1751
53662SOL    HW171300   9.600  12.005   9.404  0.3735 -0.2048 -0.1697
53662SOL    HW271301   9.606  12.022   9.254  0.3597 -0.1731 -0.1667
53663SOL     OW71302   4.959  12.559   8.924  0.2295  0.0564  0.2434
53663SOL    HW171303   4.902  12.559   8.848 -0.0238 -0.9809  0.4190
53663SOL    HW271304   4.985  12.650   8.935  1.1542  0.0624 -1.7318
53664SOL     OW71305   4.965   6.050   1.351 -0.2577 -0.0802  0.1495
53664SOL    HW171306   4.923   5.979   1.302  0.5933  0.2589 -1.1228
53664SOL    HW271307   4.955   6.127   1.294  0.4576  0.4087  0.6764
53665SOL     OW71308   6.994   0.443   1.652 -0.2042  0.2591 -0.0286
53665SOL    HW171309   7.000   0.355   1.617 -1.0540  0.2965 -0.2932
53665SOL    HW271310   6.915   0.480   1.612  0.4374  1.3379 -0.3601
53666SOL     OW71311   2.338  12.722  10.555 -0.3855  0.3138 -0.1579
53666SOL    HW171312   2.397  12.760  10.489  0.6696 -0.2174  0.4474
53666SOL    HW271313   2.329  12.630  10.528  0.0942  0.0797  0.4521
53667SOL     OW71314   2.762  11.298   3.200  0.0192  0.0313 -0.4364
53667SOL    HW171315   2.680  11.345   3.189 -1.1724 -1.5138  1.3881
53667SOL    HW271316   2.829  11.366   3.192 -1.3547  1.3112 -2.1231
53668SOL     OW71317   6.799   6.745   2.958 -0.3992  0.0990  0.1585
53668SOL    HW171318   6.726   6.748   3.019  0.2165  0.2362  0.8961
53668SOL    HW271319   6.803   6.833   2.921 -0.1714  0.2913  0.6374
53669SOL     OW71320   6.953   3.412  10.763 -0.2374  0.1174 -0.1673
53669SOL    HW171321   6.983   3.351  10.695 -0.4286  0.4555 -0.5652
53669SOL    HW271322   6.941   3.495  10.716 -1.3951  0.0932  0.0626
53670SOL     OW71323   7.577  10.923   8.350  0.1139 -0.3140 -0.0140
53670SOL    HW171324   7.622  10.848   8.312 -1.9574 -0.9525 -1.3331
53670SOL    HW271325   7.523  10.887   8.420 -0.5261  0.0057 -0.3349
53671SOL     OW71326  12.460   7.940  12.305  0.4074  0.4880 -0.0782
53671SOL    HW171327  12.504   7.965  12.386  1.1574  3.4084 -1.2472
53671SOL    HW271328  12.530   7.911  12.247  0.0248 -0.4607 -0.0784
53672SOL     OW71329   0.154  11.461   8.414 -0.0674 -0.0119  0.3286
53672SOL    HW171330   0.157  11.556   8.424  2.2240 -0.0697  0.8247
53672SOL    HW271331   0.095  11.447   8.340  0.2160  1.8543 -0.3258
53673SOL     OW71332   9.225   0.679   1.731 -0.2819  0.3232  0.6249
53673SOL    HW171333   9.135   0.673   1.698  0.5889  0.1807 -2.0245
53673SOL    HW271334   9.236   0.601   1.786 -1.9028  0.6047  1.3735
53674SOL     OW71335   8.821  11.819  12.811 -0.1251  0.2270  0.4392
53674SOL    HW171336   8.873  11.842  12.889  0.7233  2.2312 -0.6377
53674SOL    HW271337   8.875  11.848  12.738 -1.8831  0.4395 -0.8109
53675SOL     OW71338   4.928   9.658  10.021 -0.2381 -0.3913  0.1312
53675SOL    HW171339   4.998   9.624  10.076 -0.7749 -0.7521  0.5996
53675SOL    HW271340   4.924   9.596   9.948 -1.5063 -1.6343  1.2058
53676SOL     OW71341   3.435   6.920  10.036  0.2999 -0.2242  0.3924
53676SOL    HW171342   3.468   6.852   9.977  3.0748  0.4513  1.0331
53676SOL    HW271343   3.363   6.961   9.987  0.5043 -1.6589 -1.2226
53677SOL     OW71344   6.599   0.372   4.615 -0.1946 -0.0898  0.6128
53677SOL    HW171345   6.593   0.453   4.565  2.5492  0.8998  1.6561
53677SOL    HW271346   6.578   0.303   4.553 -1.6903  1.3499 -0.5527
53678SOL     OW71347   6.926  12.393  10.102  0.3076  0.3624  0.3810
53678SOL    HW171348   6.839  12.352  10.106 -0.4843  1.8419 -0.7510
53678SOL    HW271349   6.980  12.329  10.054 -0.8555  0.5304 -1.2213
53679SOL     OW71350   3.424   1.379  10.401  0.2876  0.8269 -0.5023
53679SOL    HW171351   3.382   1.362  10.485  0.4897  1.4625 -0.2684
53679SOL    HW271352   3.381   1.458  10.368  1.3048  1.5010 -0.2504
53680SOL     OW71353   3.787   5.613   2.400 -0.0258  0.1491 -0.8809
53680SOL    HW171354   3.722   5.670   2.443 -2.4152 -0.8273 -2.9585
53680SOL    HW271355   3.808   5.547   2.466 -0.4169  1.0363  0.1638
53681SOL     OW71356  12.261  11.390  12.965 -0.4781 -0.1540 -0.6505
53681SOL    HW171357  12.171  11.422  12.968 -0.5276 -0.3617  0.0897
53681SOL    HW271358  12.254  11.296  12.984  0.2178  0.4509  3.3488
53682SOL     OW71359   9.010  10.624   6.420 -0.0621  0.2152 -0.8555
53682SOL    HW171360   9.032  10.589   6.334  0.5488  2.4898 -1.7217
53682SOL    HW271361   8.946  10.693   6.402  0.0679  0.7298  0.5040
53683SOL     OW71362  11.059   5.243   2.164  0.2749 -0.3830 -0.3905
53683SOL    HW171363  11.015   5.205   2.240  0.3065  1.3930  0.5634
53683SOL    HW271364  10.991   5.250   2.097 -0.0806 -0.7249 -0.0685
53684SOL     OW71365   7.178   8.978   5.165 -0.3952 -0.3611 -0.0947
53684SOL    HW171366   7.237   8.997   5.238  0.8903 -1.6224 -0.7685
53684SOL    HW271367   7.111   9.047   5.170  2.0809  2.2463 -0.3956
53685SOL     OW71368  12.709   2.956   2.203  0.4224  0.6849  0.5995
53685SOL    HW171369  12.763   2.974   2.126  0.3216  1.3140  0.6729
53685SOL    HW271370  12.722   2.862   2.219  1.2937  0.7672  0.4661
53686SOL     OW71371   8.959   5.234   4.086  0.1351 -0.3717  0.3105
53686SOL    HW171372   8.902   5.157   4.079  0.6461 -0.6799 -0.6924
53686SOL    HW271373   9.005   5.222   4.169 -1.2162 -0.1347  1.1150
53687SOL     OW71374   2.881  12.369   5.406 -0.7698  0.0005  0.1064
53687SOL    HW171375   2.976  12.354   5.406 -0.7367  0.1973  0.5120
53687SOL    HW271376   2.844  12.284   5.381 -0.4340  0.3790 -1.8256
53688SOL     OW71377  11.589   9.652   5.896 -0.4727 -0.5843 -0.4437
53688SOL    HW171378  11.612   9.739   5.929  0.7926 -0.9432 -0.3646
53688SOL    HW271379  11.535   9.614   5.965  0.7491 -0.6778  0.4795
53689SOL     OW71380   0.238   4.025   1.953  0.4113 -0.1081  0.1030
53689SOL    HW171381   0.190   3.954   1.995  1.7062 -0.7919  0.4818
53689SOL    HW271382   0.205   4.027   1.863 -1.8318  0.8627  0.8609
53690SOL     OW71383   2.908   5.078   6.916 -0.1893  0.4806  0.1621
53690SOL    HW171384   2.831   5.135   6.923  1.4186  2.7962  0.1533
53690SOL    HW271385   2.909   5.051   6.824 -1.6786 -0.6842  0.4490
53691SOL     OW71386   3.218  11.278  10.609 -0.0709 -0.0908  0.3931
53691SOL    HW171387   3.248  11.333  10.682 -0.6497  2.7061 -1.3205
53691SOL    HW271388   3.283  11.293  10.540  0.0682 -2.1176  0.0144
53692SOL     OW71389  11.434  12.118  12.534 -0.1596 -0.1686  0.4932
53692SOL    HW171390  11.481  12.137  12.616  1.0832  0.4119 -0.3190
53692SOL    HW271391  11.484  12.048  12.494 -0.9330 -0.6454  0.3559
53693SOL     OW71392  11.016   9.919   7.829  0.1413 -0.1993 -0.0853
53693SOL    HW171393  11.110   9.933   7.837  0.3204 -1.7818  0.9403
53693SOL    HW271394  10.988   9.893   7.916 -0.9000 -1.5449 -0.7871
53694SOL     OW71395   1.056   7.742  11.475 -0.5542  0.0325 -0.0824
53694SOL    HW171396   1.125   7.804  11.449 -1.9863  0.7897 -2.4556
53694SOL    HW271397   0.978   7.796  11.481 -1.5271 -1.2799 -0.5485
53695SOL     OW71398   5.582  11.977   2.211 -0.5257  0.1931 -0.0328
53695SOL    HW171399   5.552  12.034   2.281  1.2217 -0.2772  1.1478
53695SOL    HW271400   5.670  12.007   2.191 -0.6257 -0.3195 -1.3643
53696SOL     OW71401   9.201   2.681   4.177  0.4168  0.3253  0.0613
53696SOL    HW171402   9.112   2.646   4.182  1.0598 -1.5321 -0.7838
53696SOL    HW271403   9.253   2.621   4.231  0.9829  2.1850  1.7064
53697SOL     OW71404  10.985  12.184   1.177 -0.3571  0.0034  0.4654
53697SOL    HW171405  10.949  12.160   1.262  1.9748 -3.6216  0.6558
53697SOL    HW271406  11.069  12.224   1.197  0.1668 -0.7894 -0.0828
53698SOL     OW71407   2.723   6.306   3.668 -0.3699 -0.5466 -0.4328
53698SOL    HW171408   2.761   6.314   3.581  1.9136 -1.8014  0.3662
53698SOL    HW271409   2.630   6.291   3.652 -0.1064 -0.1930 -2.6085
53699SOL     OW71410   0.099   5.926   4.475  0.9592 -0.1858  0.0627
53699SOL    HW171411   0.070   5.873   4.549 -1.8429 -0.3361 -1.0016
53699SOL    HW271412   0.058   6.012   4.489 -0.5282 -0.5246 -1.7431
53700SOL     OW71413   5.806  11.427   0.444 -0.6980  0.0075  0.1366
53700SOL    HW171414   5.714  11.441   0.463 -0.8439 -0.1452 -0.4365
53700SOL    HW271415   5.825  11.341   0.481 -0.7608  0.0750  0.3296
53701SOL     OW71416   3.088  11.513  12.379 -0.1868 -0.2396 -0.3868
53701SOL    HW171417   3.138  11.441  12.417 -2.2639 -1.1272  0.8356
53701SOL    HW271418   3.069  11.485  12.290  1.1692 -0.0156 -0.7771
53702SOL     OW71419  11.173  11.893   9.615  0.2717 -0.2901  0.2256
53702SOL    HW171420  11.200  11.813   9.660  0.6291  0.8162  2.0905
53702SOL    HW271421  11.255  11.934   9.588  0.0575 -1.5922 -2.8377
53703SOL     OW71422   7.000  12.861   1.731 -0.4296  0.5628  0.2827
53703SOL    HW171423   7.079  12.816   1.701 -0.9318  0.4018 -0.8473
53703SOL    HW271424   6.958  12.799   1.790  0.1811  0.5783  0.7549
53704SOL     OW71425   0.867   2.678   6.764 -0.4017 -0.4547  0.3666
53704SOL    HW171426   0.883   2.723   6.681  0.3091  0.5744  1.0401
53704SOL    HW271427   0.772   2.687   6.779 -0.6754 -1.3562 -0.7112
53705SOL     OW71428   3.147   5.943  11.650 -0.0474  0.6915 -0.5867
53705SOL    HW171429   3.204   5.885  11.701  1.5477  1.9032 -0.8928
53705SOL    HW271430   3.061   5.901  11.652  0.7811 -1.0572  0.1661
53706SOL     OW71431   5.502  12.905   9.669  0.1903 -0.2447  0.5220
53706SOL    HW171432   5.462  12.820   9.651  0.1386  0.2164 -1.8749
53706SOL    HW271433   5.434  12.969   9.646  1.0658  0.4624 -0.2081
53707SOL     OW71434   3.048  12.121   7.662  0.3120 -0.3558  0.0000
53707SOL    HW171435   3.093  12.048   7.705 -0.9457 -0.4545  1.2436
53707SOL    HW271436   3.018  12.086   7.578  2.3115 -0.3423 -0.7627
53708SOL     OW71437  11.394   7.553  10.545 -0.1651  0.4143  0.3821
53708SOL    HW171438  11.476   7.576  10.587  0.0351  0.1811  0.1182
53708SOL    HW271439  11.410   7.468  10.503 -0.6637  0.1602  0.6924
53709SOL     OW71440   0.194   2.672   0.000  0.1329  0.3721 -0.0829
53709SOL    HW171441   0.120   2.697  -0.056 -0.5151 -1.3811 -0.0785
53709SOL    HW271442   0.239   2.754   0.019 -1.1973  1.3445 -0.9720
53710SOL     OW71443   7.109   1.735   4.328  0.0776  0.2470  0.1600
53710SOL    HW171444   7.031   1.742   4.382  0.6153  1.2578  0.8389
53710SOL    HW271445   7.143   1.647   4.345  0.2345  0.5402  1.4788
53711SOL     OW71446  11.044   8.224   7.988 -0.3095  0.1371  0.1378
53711SOL    HW171447  10.962   8.242   7.942 -1.3382  0.0739  1.8566
53711SOL    HW271448  11.112   8.266   7.934 -1.6960  2.0008 -0.2356
53712SOL     OW71449   4.010   1.448   0.234  0.2798  0.6133 -0.1027
53712SOL    HW171450   4.040   1.470   0.146  1.3824 -1.5575 -0.3649
53712SOL    HW271451   4.089   1.415   0.278 -0.5561  0.2724  1.1979
53713SOL     OW71452   6.887  12.856   7.523 -0.2552 -0.3519  0.3128
53713SOL    HW171453   6.969  12.817   7.493 -1.7363 -2.4683 -1.3288
53713SOL    HW271454   6.862  12.805   7.600 -0.3717 -0.1748  0.3936
53714SOL     OW71455   3.684   7.788   8.531  0.3188 -0.1030  0.1563
53714SOL    HW171456   3.719   7.716   8.583  0.5026 -0.9123 -1.0406
53714SOL    HW271457   3.600   7.809   8.571  0.4461 -0.7193  0.7540
53715SOL     OW71458   1.192   3.965   3.240  0.6964 -0.2385 -0.0731
53715SOL    HW171459   1.104   3.935   3.263  0.0840  0.9478 -0.7306
53715SOL    HW271460   1.184   4.061   3.239  1.5646 -0.1514 -1.7765
53716SOL     OW71461  11.301   0.136   6.262 -0.1259  0.1888 -0.2936
53716SOL    HW171462  11.288   0.206   6.327 -0.8623  0.6781 -0.9507
53716SOL    HW271463  11.396   0.129   6.253 -0.0409  0.9920 -0.0961
53717SOL     OW71464   6.985  11.614   5.651  0.2992 -0.4631  0.2542
53717SOL    HW171465   6.917  11.570   5.600  0.3488 -1.6880  1.2049
53717SOL    HW271466   7.038  11.543   5.687  0.5386  0.3752  1.6234
53718SOL     OW71467   2.133  12.762   7.358  0.0543 -0.0489  0.2934
53718SOL    HW171468   2.052  12.747   7.309 -0.0124  1.1282  0.0171
53718SOL    HW271469   2.110  12.740   7.449 -0.9483  1.3511  0.4226
53719SOL     OW71470   1.106   2.624   9.043  0.1521  0.0108  0.2896
53719SOL    HW171471   1.178   2.585   9.093  2.0830  1.2400 -1.4094
53719SOL    HW271472   1.029   2.611   9.099  2.1092  1.1304  3.5269
53720SOL     OW71473   9.848   0.795   1.509 -0.3636  0.1539  0.3705
53720SOL    HW171474   9.939   0.794   1.480  0.0154  0.3185  1.4783
53720SOL    HW271475   9.819   0.704   1.504  0.1283 -0.0289  0.7789
53721SOL     OW71476  11.533   0.527   2.604  0.2714  0.2583 -0.2618
53721SOL    HW171477  11.538   0.441   2.645  0.1125  0.3276 -0.0976
53721SOL    HW271478  11.545   0.510   2.511 -1.3846 -0.1190 -0.4345
53722SOL     OW71479   9.691   2.428   5.255  1.1365  0.4393  0.3657
53722SOL    HW171480   9.772   2.393   5.219  0.7978  1.5409 -1.6142
53722SOL    HW271481   9.639   2.350   5.276  0.9957 -0.3594 -2.4849
53723SOL     OW71482   6.639   1.676   5.828 -0.0472  0.2063 -0.1809
53723SOL    HW171483   6.697   1.747   5.855  1.4896 -0.7294 -0.8669
53723SOL    HW271484   6.638   1.616   5.902 -0.0186  0.1591 -0.2182
53724SOL     OW71485   8.724   0.816   1.337  0.2426  0.2499  0.0747
53724SOL    HW171486   8.801   0.862   1.371 -0.4872  0.2294  1.8448
53724SOL    HW271487   8.649   0.861   1.377 -0.5458 -1.4815  0.6493
53725SOL     OW71488  12.463   6.567   6.186  0.6221  0.5368 -0.0780
53725SOL    HW171489  12.536   6.626   6.205 -1.0838  2.4411  0.9091
53725SOL    HW271490  12.400   6.583   6.256 -0.8231 -0.9254 -0.9854
53726SOL     OW71491  12.120   5.051   2.710  0.3631  0.1500 -0.7856
53726SOL    HW171492  12.037   5.051   2.661  0.0308  4.4306 -0.6429
53726SOL    HW271493  12.094   5.068   2.800  1.3469  0.6222 -0.5829
53727SOL     OW71494   8.863   8.815   4.717  0.5204 -0.5240 -1.1214
53727SOL    HW171495   8.795   8.848   4.776  0.1009 -0.6391 -1.5380
53727SOL    HW271496   8.878   8.886   4.654  1.6603 -0.0150 -0.3160
53728SOL     OW71497  11.642   8.788   9.964 -0.1169 -0.2500 -0.0156
53728SOL    HW171498  11.554   8.789   9.926 -0.6391  1.0546  1.1649
53728SOL    HW271499  11.628   8.794  10.058  1.2378  0.1687  0.1792
53729SOL     OW71500   9.663  11.940   2.084  0.2125 -0.4975 -0.2436
53729SOL    HW171501   9.745  11.958   2.038 -0.6918  1.2055 -1.2602
53729SOL    HW271502   9.603  11.908   2.017 -0.2754 -0.7648  0.3027
53730SOL     OW71503   6.521   6.491   3.812 -0.2277 -0.4471 -0.3193
53730SOL    HW171504   6.480   6.473   3.727 -0.4032  0.6102 -0.4688
53730SOL    HW271505   6.448   6.514   3.870 -0.1854 -1.7962  0.3168
53731SOL     OW71506   3.624   2.400  11.136  0.1301  0.2503 -0.0767
53731SOL    HW171507   3.661   2.326  11.089 -0.2926  0.8438 -1.4113
53731SOL    HW271508   3.557   2.362  11.192  0.6192 -0.4773  0.0256
53732SOL     OW71509   7.440   0.765   3.976 -0.3616 -0.0771  0.5081
53732SOL    HW171510   7.431   0.671   3.988 -0.9283 -0.3987 -1.9012
53732SOL    HW271511   7.530   0.784   4.000  0.1940 -1.4969 -0.3689
53733SOL     OW71512  10.125   9.113  12.717  0.5142  0.1209  0.8020
53733SOL    HW171513  10.175   9.051  12.664  1.9835  0.7851  1.3566
53733SOL    HW271514  10.141   9.198  12.676  0.1859  0.4018  1.2468
53734SOL     OW71515   5.922   4.970   3.233 -0.0529 -0.3506 -0.2616
53734SOL    HW171516   6.002   5.020   3.216 -0.8704  1.2826  0.4630
53734SOL    HW271517   5.943   4.917   3.311  0.2829  0.1832  0.0168
53735SOL     OW71518   7.880  11.606   7.940 -0.1279 -0.2022  0.0826
53735SOL    HW171519   7.946  11.574   8.001  2.3080 -0.0303 -2.2947
53735SOL    HW271520   7.900  11.699   7.930  0.2720 -0.4420 -1.7496
53736SOL     OW71521   1.085   8.251   9.831 -0.5398  0.2400  0.2280
53736SOL    HW171522   1.050   8.164   9.850 -0.1421  0.3596  1.6234
53736SOL    HW271523   1.100   8.290   9.917  1.7243  0.7025 -0.3206
53737SOL     OW71524   8.003   3.824   3.317 -0.2723  0.3140 -0.6071
53737SOL    HW171525   7.989   3.904   3.367 -1.5470  0.7656 -1.6122
53737SOL    HW271526   8.089   3.835   3.278  0.2908  0.4147  0.6161
53738SOL     OW71527   4.481   2.456   4.944 -0.4859 -0.0570  0.1135
53738SOL    HW171528   4.423   2.476   5.018  2.3198  0.5750  2.2904
53738SOL    HW271529   4.531   2.380   4.973 -1.0108 -1.4163 -2.2519
53739SOL     OW71530   4.027  12.328   9.132 -0.1102 -0.9530  0.2510
53739SOL    HW171531   4.111  12.320   9.176 -0.1555  0.3599  0.5944
53739SOL    HW271532   3.965  12.351   9.201 -0.6467 -1.3157 -0.0993
53740SOL     OW71533   2.244  11.091   1.153 -0.1330 -0.7383  0.2838
53740SOL    HW171534   2.212  11.002   1.140 -1.2843 -0.2631 -0.3354
53740SOL    HW271535   2.230  11.108   1.246 -0.6133 -0.9567  0.2547
53741SOL     OW71536  11.402   0.938   2.935 -0.0958  0.0739  0.7548
53741SOL    HW171537  11.497   0.928   2.928  0.5437  4.0011  1.5771
53741SOL    HW271538  11.376   0.975   2.851 -1.0544 -1.3155  0.3953
53742SOL     OW71539   4.394   2.415   5.889  0.3067 -0.7528 -0.0902
53742SOL    HW171540   4.421   2.342   5.945 -0.6052  0.3534  1.9002
53742SOL    HW271541   4.476   2.455   5.861  0.7825 -1.4708  0.2540
53743SOL     OW71542   5.188   3.521   8.542  0.4308  0.2513 -0.3672
53743SOL    HW171543   5.213   3.447   8.486  1.0456  0.6038 -0.5754
53743SOL    HW271544   5.236   3.595   8.505  2.2157  0.1777  1.6096
53744SOL     OW71545   5.618  10.669   9.059  0.5417  0.6006  0.7040
53744SOL    HW171546   5.588  10.669   9.150 -1.0333 -1.7770  0.2717
53744SOL    HW271547   5.587  10.752   9.024 -2.9477 -0.3354  1.1866
53745SOL     OW71548  10.475   3.007  11.927  0.1335  0.3010 -0.1732
53745SOL    HW171549  10.515   2.973  12.008 -0.1269  1.3915  0.4337
53745SOL    HW271550  10.540   3.068  11.892  0.2875 -0.2438 -0.8604
53746SOL     OW71551   4.748   4.455   3.756  0.0961  0.4865 -0.3679
53746SOL    HW171552   4.828   4.423   3.798 -0.3206  0.2462  0.2463
53746SOL    HW271553   4.777   4.482   3.668  1.2222  2.0978  0.4373
53747SOL     OW71554  11.290   1.995   6.988 -0.0299 -0.2565  0.4546
53747SOL    HW171555  11.346   2.033   7.055 -0.1219  1.0449 -0.1561
53747SOL    HW271556  11.211   2.049   6.989 -1.3274 -2.0740  1.3238
53748SOL     OW71557   8.343   8.788   8.505  0.2045  0.0949  0.9919
53748SOL    HW171558   8.405   8.830   8.564 -0.5487  0.0634  1.8229
53748SOL    HW271559   8.259   8.795   8.549 -0.2959 -0.3613  0.1399
53749SOL     OW71560   6.794   3.799   6.774  0.6455  0.2021  0.5770
53749SOL    HW171561   6.822   3.867   6.713  0.0448 -0.0877 -0.0411
53749SOL    HW271562   6.728   3.750   6.726  0.4225 -0.2632  1.3412
53750SOL     OW71563  11.160  11.733   8.599 -0.3567 -0.2431 -0.0790
53750SOL    HW171564  11.094  11.792   8.636 -0.5601 -0.3768 -0.2196
53750SOL    HW271565  11.211  11.704   8.674  1.0619  1.6876 -0.2475
53751SOL     OW71566   0.772   7.938   9.968  0.4901 -0.1370 -0.2513
53751SOL    HW171567   0.715   7.868   9.936 -0.8078  0.4508  0.6973
53751SOL    HW271568   0.825   7.896  10.036  0.6401 -0.4940 -0.5808
53752SOL     OW71569   9.994   0.562   9.349 -0.3471 -0.6057  0.2621
53752SOL    HW171570   9.912   0.589   9.389  0.6329  2.9550  0.1808
53752SOL    HW271571   9.977   0.564   9.254 -0.2624 -0.1196  0.2538
53753SOL     OW71572   1.149   4.979  11.635  0.1259  0.9218  0.1210
53753SOL    HW171573   1.242   4.985  11.614  0.6186 -0.1495  1.7972
53753SOL    HW271574   1.136   5.044  11.704  0.1625 -0.4792  1.4784
53754SOL     OW71575   9.488   7.454   6.049 -0.0699  0.0799  0.0472
53754SOL    HW171576   9.574   7.472   6.011 -0.2867  1.0877 -0.0141
53754SOL    HW271577   9.429   7.511   6.000 -0.6293  0.0744  0.7014
53755SOL     OW71578   3.532   8.558   2.885 -0.0313  0.6318  0.3609
53755SOL    HW171579   3.566   8.625   2.825 -0.9844 -0.7170 -1.7956
53755SOL    HW271580   3.467   8.511   2.834 -0.1490 -1.2762  2.1549
53756SOL     OW71581  11.552   9.376  10.122  0.1817  0.1553  0.0975
53756SOL    HW171582  11.523   9.446  10.181  1.5927  1.0373 -0.2252
53756SOL    HW271583  11.646   9.390  10.113 -0.0641  0.4190 -2.8432
53757SOL     OW71584   3.845   1.938   7.961 -0.2714  0.5697 -0.0398
53757SOL    HW171585   3.892   1.956   7.880 -1.3824  2.6591 -0.3003
53757SOL    HW271586   3.912   1.934   8.029  0.4986  0.8294 -0.7838
53758SOL     OW71587   5.161   8.119   4.712 -0.0060 -0.2045 -0.3289
53758SOL    HW171588   5.072   8.140   4.741  0.4901 -1.1466  2.0689
53758SOL    HW271589   5.213   8.193   4.742  0.2534 -0.3675 -0.3772
53759SOL     OW71590   2.089  11.446  12.262  0.4043 -0.6508 -0.5149
53759SOL    HW171591   2.065  11.385  12.192 -1.0001 -0.8051  0.0573
53759SOL    HW271592   2.083  11.395  12.342  0.4526 -0.0763 -0.1390
53760SOL     OW71593   3.183   1.263   8.162 -0.2160 -0.1698  0.1430
53760SOL    HW171594   3.233   1.325   8.108  0.2540 -1.1067 -0.5251
53760SOL    HW271595   3.136   1.209   8.099  1.5459 -2.3008  0.5322
53761SOL     OW71596   7.869  10.847   8.285  0.0782 -0.3366  0.2312
53761SOL    HW171597   7.864  10.942   8.288  1.0172 -0.3078  1.3758
53761SOL    HW271598   7.962  10.827   8.288 -0.1387 -1.3042  1.5712
53762SOL     OW71599   0.211   2.098   2.352  0.2787 -0.3925 -0.2152
53762SOL    HW171600   0.155   2.125   2.279 -1.6470 -0.4211  1.1710
53762SOL    HW271601   0.241   2.179   2.391  1.1286 -0.3763 -0.8735
53763SOL     OW71602   0.396   7.756   7.068 -0.2003 -0.3652 -0.7867
53763SOL    HW171603   0.466   7.704   7.030 -0.3414 -1.6666  0.6694
53763SOL    HW271604   0.339   7.777   6.993  1.4041  0.2390 -1.8858
53764SOL     OW71605   7.212   8.991   4.504 -0.5372 -0.2257  0.0932
53764SOL    HW171606   7.216   9.080   4.468  1.0762 -0.8728 -1.4987
53764SOL    HW271607   7.141   8.949   4.456 -2.2716  0.5551  1.8568
53765SOL     OW71608   2.155   4.065   7.317  0.5381  0.2633  0.0420
53765SOL    HW171609   2.216   4.135   7.336 -0.5818  0.8996  1.4972
53765SOL    HW271610   2.197   3.986   7.351  0.4967  0.7268  1.2227
53766SOL     OW71611  10.936  10.899  10.985 -0.3433 -0.4836 -0.2005
53766SOL    HW171612  10.973  10.831  10.928 -0.0458 -0.3831 -0.1296
53766SOL    HW271613  10.871  10.854  11.037 -1.8724 -0.2528 -1.8104
53767SOL     OW71614   8.379  12.046   7.195  0.7213  0.2658  0.1402
53767SOL    HW171615   8.380  11.954   7.168  1.3018  0.1629  0.4912
53767SOL    HW271616   8.430  12.091   7.128 -0.4954  0.5175 -0.6380
53768SOL     OW71617  12.263   2.943   5.463  0.6591 -0.5913  0.4922
53768SOL    HW171618  12.257   2.969   5.371 -0.0846 -1.6557  0.2170
53768SOL    HW271619  12.314   2.862   5.462 -0.1014 -1.0895  0.9035
53769SOL     OW71620   2.850  12.444  12.017 -0.3520  0.1107  0.6896
53769SOL    HW171621   2.827  12.527  12.059 -0.7430  0.5976 -0.4442
53769SOL    HW271622   2.767  12.411  11.983 -0.0719 -0.3633  0.4564
53770SOL     OW71623  11.912   4.872   5.381 -0.1065  0.7397  0.4600
53770SOL    HW171624  11.970   4.909   5.314  0.7377  0.4930  1.0238
53770SOL    HW271625  11.966   4.804   5.423 -1.1308 -0.1493  0.3832
53771SOL     OW71626  10.429   4.846   3.060 -0.0423 -0.6466  0.1402
53771SOL    HW171627  10.517   4.884   3.059  0.7034 -2.2255  1.2837
53771SOL    HW271628  10.443   4.754   3.084 -1.9342 -1.1544 -0.5418
53772SOL     OW71629   1.809   1.814   1.225  0.1201  0.6037  0.3018
53772SOL    HW171630   1.902   1.793   1.239  0.2150  0.2278 -0.7914
53772SOL    HW271631   1.803   1.909   1.238  0.8735  0.7973 -0.6797
53773SOL     OW71632  11.218   4.944   5.320 -0.6041 -0.3085 -0.4714
53773SOL    HW171633  11.275   5.007   5.363 -2.1171 -0.3872  1.8352
53773SOL    HW271634  11.244   4.947   5.228  1.8178  0.9688  0.1588
53774SOL     OW71635   5.029   3.374   6.069  0.0710 -0.0078  0.0698
53774SOL    HW171636   5.078   3.303   6.028  0.9419  0.3769  0.4077
53774SOL    HW271637   4.985   3.334   6.143  0.5401 -0.2066  0.2454
53775SOL     OW71638   5.303   3.531   4.549 -0.2002 -0.4623 -0.0424
53775SOL    HW171639   5.328   3.605   4.604 -0.5070 -0.7682  0.5058
53775SOL    HW271640   5.234   3.566   4.492 -0.6652 -0.4471  0.5244
53776SOL     OW71641   5.480   4.983   4.073 -0.4445  1.0307 -0.7877
53776SOL    HW171642   5.488   5.013   3.982 -0.6224  2.2535 -0.4167
53776SOL    HW271643   5.555   4.925   4.086 -0.2273  1.1185 -1.6130
53777SOL     OW71644  11.376   7.074   5.091  0.4942 -0.3807  0.2845
53777SOL    HW171645  11.382   7.088   5.185  0.0727 -0.1220  0.2770
53777SOL    HW271646  11.412   6.986   5.077  1.0230 -0.2203  0.6207
53778SOL     OW71647   7.163   7.759   7.265  0.1232 -0.3105 -0.6565
53778SOL    HW171648   7.125   7.807   7.191  0.4825 -1.2650 -1.4937
53778SOL    HW271649   7.237   7.812   7.293 -0.3044  0.2992 -0.6616
53779SOL     OW71650  12.732   0.070   2.924  0.1418  0.3557  0.1717
53779SOL    HW171651  12.824   0.082   2.947  0.4572 -3.0995  1.2627
53779SOL    HW271652  12.689   0.051   3.007 -1.8095  2.6414 -0.2077
53780SOL     OW71653   3.128   4.652  12.352 -0.3378 -0.4771  0.1175
53780SOL    HW171654   3.041   4.612  12.360  0.1312 -1.4511  0.5871
53780SOL    HW271655   3.151   4.677  12.441 -0.6853  1.0326 -0.1894
53781SOL     OW71656  10.051   4.226   6.379 -0.0606  0.3097  0.9866
53781SOL    HW171657  10.111   4.254   6.448  0.6227  0.1651  0.4575
53781SOL    HW271658  10.085   4.265   6.299 -1.3360  1.1874  0.8346
53782SOL     OW71659   0.092   5.322  11.813 -0.4889 -0.1999  0.4481
53782SOL    HW171660   0.013   5.367  11.841 -1.0867 -1.3354  0.6494
53782SOL    HW271661   0.132   5.380  11.748 -1.2487  0.5780  0.6665
53783SOL     OW71662   3.915   0.732  11.633 -0.1858 -0.7449 -0.2220
53783SOL    HW171663   4.003   0.767  11.652 -0.6788  0.4373 -0.0397
53783SOL    HW271664   3.916   0.717  11.538 -0.5981  1.7066 -0.6750
53784SOL     OW71665   3.558   5.699   4.708  0.4414  0.7387  0.2952
53784SOL    HW171666   3.653   5.701   4.722  0.6500 -0.1237 -0.8256
53784SOL    HW271667   3.528   5.627   4.763  0.6627  0.0753 -0.4258
53785SOL     OW71668   4.254  11.260   1.018 -0.2436 -0.2701  0.0087
53785SOL    HW171669   4.301  11.333   0.978 -0.8324 -0.3785 -0.9218
53785SOL    HW271670   4.272  11.268   1.112  0.3405  0.5994 -0.1646
53786SOL     OW71671   8.657   7.914   1.105  0.0683  0.5317 -0.2898
53786SOL    HW171672   8.691   7.860   1.034  0.0853  0.3730 -0.1602
53786SOL    HW271673   8.735   7.951   1.147  0.1229 -0.4391  0.4898
53787SOL     OW71674  10.001   3.710   0.812  0.5044 -0.1034  0.2564
53787SOL    HW171675   9.932   3.643   0.800  1.5356 -1.0854 -0.3847
53787SOL    HW271676  10.019   3.709   0.906 -1.6244  1.5043  0.7613
53788SOL     OW71677   4.092  11.923   1.771 -0.6082 -0.3489  0.6269
53788SOL    HW171678   4.185  11.912   1.752 -0.6296 -0.8495  0.8133
53788SOL    HW271679   4.047  11.895   1.690 -0.5221  2.5485 -0.5498
53789SOL     OW71680   7.077   4.352   5.046  0.1494  0.1955  0.1337
53789SOL    HW171681   7.066   4.447   5.040  0.7548  0.1882 -2.9031
53789SOL    HW271682   7.157   4.340   5.097  0.4594  1.3671 -0.0483
53790SOL     OW71683  11.813   7.556  10.852  0.5453 -0.2355  0.0565
53790SOL    HW171684  11.733   7.605  10.870  0.0083 -0.0019 -2.5421
53790SOL    HW271685  11.838   7.518  10.936 -1.8112  0.3777  1.1073
53791SOL     OW71686   2.793   1.822   1.205 -0.0492  0.0960  0.1249
53791SOL    HW171687   2.720   1.877   1.233 -0.2073 -0.9444  1.9436
53791SOL    HW271688   2.864   1.883   1.186 -0.4012  0.9657  1.5141
53792SOL     OW71689   0.950  11.019   9.283  0.3043  0.2618  0.7914
53792SOL    HW171690   0.855  11.022   9.272  0.2809 -1.1650  0.3733
53792SOL    HW271691   0.973  11.105   9.319 -1.1564  0.5733  1.0495
53793SOL     OW71692   7.129   7.042   2.525  0.2414 -0.6445  0.1204
53793SOL    HW171693   7.039   7.021   2.500  0.1710 -1.6469  1.1092
53793SOL    HW271694   7.132   7.026   2.620  0.5207  2.8512  0.8171
53794SOL     OW71695   4.439  10.064  12.483  0.2148 -0.4087 -0.0276
53794SOL    HW171696   4.355  10.103  12.507 -0.1129 -1.6479  0.9104
53794SOL    HW271697   4.422  10.021  12.399  0.0100 -0.3840  0.0004
53795SOL     OW71698   5.660   2.603   7.457  0.1722 -0.1440 -0.2615
53795SOL    HW171699   5.598   2.580   7.388  0.1484  2.3522 -1.1553
53795SOL    HW271700   5.618   2.575   7.537 -0.5576 -1.5832 -1.1060
53796SOL     OW71701   9.763   5.095   2.172 -0.1772 -0.3205 -0.2883
53796SOL    HW171702   9.841   5.147   2.151 -1.4037  1.5598 -0.3918
53796SOL    HW271703   9.767   5.021   2.112  0.9396  0.3424 -1.0846
53797SOL     OW71704   5.189   8.794   3.173 -0.0111 -0.0636  0.3044
53797SOL    HW171705   5.165   8.882   3.142 -0.2072  0.5770  2.1201
53797SOL    HW271706   5.284   8.798   3.184 -0.0811  0.0923  0.8640
53798SOL     OW71707  11.343   3.952  11.691  0.3321 -0.0719 -0.2800
53798SOL    HW171708  11.293   3.870  11.691 -0.8780  0.6373 -0.6387
53798SOL    HW271709  11.345   3.979  11.783  0.2124 -0.2024 -0.2381
53799SOL     OW71710   6.572   7.402   4.139  0.0394  0.1788 -0.5635
53799SOL    HW171711   6.515   7.460   4.089 -1.3866 -0.4927  0.2223
53799SOL    HW271712   6.631   7.364   4.074  1.7563  3.2302 -0.9810
53800SOL     OW71713  12.243  11.357  11.889  0.1477  0.0307  0.1773
53800SOL    HW171714  12.250  11.423  11.957 -1.4355 -1.2107  1.6294
53800SOL    HW271715  12.328  11.314  11.888  0.9806  1.6077 -0.3452
53801SOL     OW71716   0.789   7.164   9.208  0.2956  0.2350  0.1738
53801SOL    HW171717   0.878   7.149   9.241  1.3556  0.4466 -2.3526
53801SOL    HW271718   0.799   7.165   9.113 -2.5707 -0.4877 -0.2107
53802SOL     OW71719   8.911  12.696   9.719  0.2643  0.2864  0.1095
53802SOL    HW171720   8.921  12.601   9.724 -0.6475  0.2481  4.1275
53802SOL    HW271721   8.818  12.712   9.731  0.3653  1.7446 -0.7341
53803SOL     OW71722   1.476   6.755   7.487  0.1262 -0.1539 -0.6152
53803SOL    HW171723   1.419   6.713   7.422  0.2303  0.3217 -1.0192
53803SOL    HW271724   1.465   6.849   7.472 -2.3221  0.1438  2.1652
53804SOL     OW71725   6.883   8.574   1.484 -0.1558 -0.0914 -0.0821
53804SOL    HW171726   6.869   8.664   1.515 -0.0188 -0.1955  0.2966
53804SOL    HW271727   6.806   8.555   1.431 -0.0022  0.3845 -0.4866
53805SOL     OW71728   7.049   1.512   8.701  0.2616 -0.8475  0.1787
53805SOL    HW171729   7.022   1.443   8.640 -0.0441  1.0017 -1.8704
53805SOL    HW271730   7.139   1.533   8.675  0.4735 -0.6833  1.0122
53806SOL     OW71731   3.288  12.861   6.870  0.1203  0.5564  0.0087
53806SOL    HW171732   3.330  12.775   6.870 -0.0636  0.4538  1.4907
53806SOL    HW271733   3.212  12.851   6.927  0.1371  1.7299  0.2530
53807SOL     OW71734   4.855   6.868   1.292 -0.3331 -0.9600  0.1605
53807SOL    HW171735   4.803   6.892   1.368  2.2798  3.1506  0.9841
53807SOL    HW271736   4.910   6.796   1.322 -0.7420 -0.7194  1.5590
53808SOL     OW71737   5.130  12.342   3.324  0.0348 -0.7770 -0.1117
53808SOL    HW171738   5.151  12.308   3.236 -1.8846 -0.7350 -0.6405
53808SOL    HW271739   5.037  12.322   3.335  0.0241  0.0564  1.5501
53809SOL     OW71740   2.177  11.534  12.920  0.1699  0.5825 -0.2726
53809SOL    HW171741   2.145  11.561  13.006 -1.6089  0.5748 -0.8828
53809SOL    HW271742   2.098  11.528  12.866  1.0901 -0.6979 -1.5642
53810SOL     OW71743   8.280   8.206  12.372  0.3391  0.0683  0.0809
53810SOL    HW171744   8.352   8.225  12.432 -1.2247  2.5158  1.3685
53810SOL    HW271745   8.286   8.273  12.304 -0.3396 -0.0684 -0.1287
53811SOL     OW71746   9.686   8.277   3.976  0.3383  0.1486 -0.5962
53811SOL    HW171747   9.741   8.340   3.929  0.9562  0.7981  0.9449
53811SOL    HW271748   9.610   8.329   4.004  1.2170  0.4622  1.3537
53812SOL     OW71749  11.673   2.636   5.366 -0.3918  0.4138 -0.3830
53812SOL    HW171750  11.690   2.578   5.292 -1.8889 -0.7890  0.1479
53812SOL    HW271751  11.654   2.721   5.326  0.7509  0.2885 -1.2400
53813SOL     OW71752  10.512   6.962   7.425 -0.8709 -0.2430 -0.0473
53813SOL    HW171753  10.512   6.900   7.497  1.4013 -0.3248 -0.0382
53813SOL    HW271754  10.543   7.044   7.464 -1.0011  0.0942 -0.6407
53814SOL     OW71755   4.080   9.742  12.789  0.0928  0.1170  0.3735
53814SOL    HW171756   4.088   9.665  12.846  0.0621 -0.7895 -0.8270
53814SOL    HW271757   4.088   9.707  12.700  1.6549  1.6936 -0.1620
53815SOL     OW71758  12.647   3.840   0.707  0.3143  1.0049  0.2721
53815SOL    HW171759  12.580   3.901   0.677 -1.2855 -0.4734  0.6436
53815SOL    HW271760  12.598   3.771   0.752  2.1925  0.3706  1.4695
53816SOL     OW71761   1.394   4.338   0.420 -0.3998 -0.2427 -0.1654
53816SOL    HW171762   1.325   4.296   0.471 -1.6283 -0.2214 -1.7541
53816SOL    HW271763   1.351   4.411   0.376  0.1326 -1.3401 -2.6649
53817SOL     OW71764   1.212   4.630   2.550 -0.1910  0.0164 -0.1497
53817SOL    HW171765   1.270   4.706   2.540 -0.2714  0.0447 -0.4094
53817SOL    HW271766   1.271   4.557   2.568  0.1345 -0.3634 -2.4306
53818SOL     OW71767   8.499   7.353   8.800  0.3748 -0.2172 -0.6025
53818SOL    HW171768   8.490   7.361   8.705  0.8071  0.0227 -0.6235
53818SOL    HW271769   8.592   7.335   8.814  0.3816  0.1318 -0.1952
53819SOL     OW71770   9.502  10.596  12.190  0.6082  0.1550 -0.0532
53819SOL    HW171771   9.520  10.506  12.163 -0.7525  0.1476 -1.0532
53819SOL    HW271772   9.417  10.616  12.151  0.7377  1.7699  0.4210
53820SOL     OW71773   0.571   9.248  12.164 -0.5039 -0.1520  0.0713
53820SOL    HW171774   0.477   9.249  12.145 -0.0700  0.0397 -2.4135
53820SOL    HW271775   0.612   9.268  12.081  1.8290 -1.9929  0.6785
53821SOL     OW71776   0.091   3.039   6.313 -0.1207  0.2697  0.2272
53821SOL    HW171777   0.083   3.004   6.224 -0.4277  1.8249 -0.3951
53821SOL    HW271778   0.184   3.054   6.325 -0.1916  1.3838 -0.4127
53822SOL     OW71779   2.408   1.794   8.310  0.3484 -0.0244  0.0883
53822SOL    HW171780   2.330   1.839   8.340  0.0381 -0.0922 -0.5963
53822SOL    HW271781   2.470   1.803   8.382  0.0524  0.8906  0.2482
53823SOL     OW71782   0.908  11.457   9.482  0.5294  0.1582  0.1000
53823SOL    HW171783   0.931  11.496   9.397 -0.0511  0.5779  0.1346
53823SOL    HW271784   0.901  11.532   9.542 -1.3709  0.1114 -0.0058
53824SOL     OW71785   9.096   0.145   7.704  0.0839  0.3008  0.2172
53824SOL    HW171786   9.086   0.050   7.706  0.4098  0.2457 -0.4652
53824SOL    HW271787   9.179   0.162   7.748  0.8329  0.1301 -1.0837
53825SOL     OW71788   6.457   8.006   7.341  0.0635 -0.1829  0.6523
53825SOL    HW171789   6.551   8.004   7.358  0.2339 -0.4289 -0.2656
53825SOL    HW271790   6.418   8.031   7.425  0.9630  0.2133  0.9647
53826SOL     OW71791  11.283   2.830   4.443 -0.1598  0.1727  0.1790
53826SOL    HW171792  11.278   2.740   4.412 -0.9424 -0.3367  1.6733
53826SOL    HW271793  11.256   2.883   4.368  0.2130 -0.8244 -0.6838
53827SOL     OW71794  10.163  11.355   0.416 -0.4895  0.1361 -0.3747
53827SOL    HW171795  10.112  11.275   0.421 -0.0733 -0.1830 -1.0046
53827SOL    HW271796  10.125  11.403   0.342 -1.5224  1.1010  0.7436
53828SOL     OW71797   5.449   6.637   1.932 -0.1648  0.2132  0.1328
53828SOL    HW171798   5.422   6.593   2.013  0.4004 -2.7653 -1.1675
53828SOL    HW271799   5.539   6.665   1.949  0.3132 -1.2924  0.2838
53829SOL     OW71800   0.559   2.533   7.757  0.5927  0.4893 -0.5565
53829SOL    HW171801   0.493   2.598   7.780  1.3190  0.7934  0.8004
53829SOL    HW271802   0.596   2.506   7.841  1.7448 -0.1429 -1.2357
53830SOL     OW71803   3.693   6.102   1.841 -0.6668 -0.1723 -0.2159
53830SOL    HW171804   3.745   6.171   1.883 -0.8917 -1.1594  1.7706
53830SOL    HW271805   3.707   6.116   1.747 -0.9283  2.7305  0.0850
53831SOL     OW71806  11.941  10.298   1.635  0.0893 -0.0941  0.3836
53831SOL    HW171807  11.871  10.323   1.575 -0.9455 -0.2758  1.4888
53831SOL    HW271808  11.898  10.249   1.704  1.1277  0.8063  1.7234
53832SOL     OW71809   2.635   3.420   7.457  0.0899  0.2145 -0.0742
53832SOL    HW171810   2.590   3.344   7.495  1.5159 -0.0856  1.1219
53832SOL    HW271811   2.649   3.395   7.365 -1.1978 -0.1231 -0.1974
53833SOL     OW71812   5.987  10.561   3.407 -0.0744 -0.2784 -0.1713
53833SOL    HW171813   5.980  10.487   3.469  0.8183  1.3537  1.9951
53833SOL    HW271814   5.906  10.556   3.356  0.1573 -2.9957 -0.4191
53834SOL     OW71815   2.492   5.235   5.498 -0.3189  0.2441 -0.3218
53834SOL    HW171816   2.465   5.324   5.472 -0.0517  0.6190  0.6369
53834SOL    HW271817   2.422   5.206   5.556 -0.0153  0.1375 -0.0100
53835SOL     OW71818   8.047   7.374   2.805  0.1356 -0.1214  1.1393
53835SOL    HW171819   8.067   7.457   2.848  0.4029  0.2053  0.4037
53835SOL    HW271820   7.963   7.388   2.763  0.6535  0.1224  0.1650
53836SOL     OW71821   3.491   5.429   0.341  0.0084 -0.3495  0.0375
53836SOL    HW171822   3.582   5.403   0.327  0.5823  1.1952  0.7309
53836SOL    HW271823   3.441   5.370   0.286  1.3764 -1.6579  0.1230
53837SOL     OW71824   1.472  11.479   9.084 -0.3392  0.7677 -0.0117
53837SOL    HW171825   1.494  11.557   9.033 -0.6551  0.6465 -0.3384
53837SOL    HW271826   1.529  11.411   9.049  1.2767  1.2550  1.5103
53838SOL     OW71827  11.113   8.980   7.164 -0.4839  0.0455  0.5098
53838SOL    HW171828  11.120   9.022   7.250 -1.2999  0.1418  0.5321
53838SOL    HW271829  11.182   8.913   7.165 -0.9678 -0.4543  1.5274
53839SOL     OW71830   9.877  12.596   2.635 -0.1692 -0.8727 -0.1668
53839SOL    HW171831   9.951  12.536   2.625  1.3130  0.9542 -0.6453
53839SOL    HW271832   9.880  12.651   2.557 -2.9716 -1.6581 -0.9405
53840SOL     OW71833   9.671   7.272   7.587 -0.0614 -0.9127  0.2408
53840SOL    HW171834   9.612   7.226   7.527 -0.2612  0.7769 -0.9060
53840SOL    HW271835   9.746   7.295   7.533 -0.5286  1.2019  0.4137
53841SOL     OW71836   9.843   5.489   7.479 -0.2721 -0.1491 -0.4779
53841SOL    HW171837   9.835   5.529   7.566 -2.7024 -1.0511 -0.1951
53841SOL    HW271838   9.907   5.543   7.434  1.0385  0.3745  1.8383
53842SOL     OW71839   3.450   0.034  10.325 -0.5401  0.1464 -0.0764
53842SOL    HW171840   3.424   0.080  10.405 -0.7648 -2.0954  1.2225
53842SOL    HW271841   3.457  -0.058  10.351  3.1076 -0.2280 -1.6897
53843SOL     OW71842   7.875   8.490   6.087  0.4582 -0.2207 -0.1491
53843SOL    HW171843   7.859   8.451   6.173  1.0250  2.0829  1.0808
53843SOL    HW271844   7.800   8.463   6.034 -0.3754 -0.9308  1.3297
53844SOL     OW71845  11.340   0.874   6.591  0.3400  0.4198 -0.1289
53844SOL    HW171846  11.290   0.850   6.670 -2.8075  0.1289 -2.0368
53844SOL    HW271847  11.357   0.968   6.601  1.0078  0.1771  1.3528
53845SOL     OW71848   8.952   3.847   7.520  0.7531 -0.5385 -0.0555
53845SOL    HW171849   9.021   3.781   7.524 -0.2636 -1.6298  0.1766
53845SOL    HW271850   8.872   3.798   7.539 -0.0607  0.7273 -0.1386
53846SOL     OW71851   9.234  11.165  12.091  0.1164  0.3305 -0.5061
53846SOL    HW171852   9.296  11.100  12.125 -0.1487 -0.0760 -0.7892
53846SOL    HW271853   9.228  11.147  11.998  1.6966  2.1659 -1.0185
53847SOL     OW71854   7.817   6.627   3.529  0.0998  0.3768 -0.3970
53847SOL    HW171855   7.756   6.699   3.541 -0.1983  0.0895 -0.1597
53847SOL    HW271856   7.852   6.610   3.617  0.0262  0.1108 -0.4180
53848SOL     OW71857  12.787   6.607   1.017 -0.0528 -0.1607  0.0939
53848SOL    HW171858  12.852   6.546   1.053 -0.8424 -1.1707 -0.1592
53848SOL    HW271859  12.836   6.660   0.954  0.1605 -2.3196 -1.6970
53849SOL     OW71860   1.671   0.062   5.188  0.2503  0.3868  0.7343
53849SOL    HW171861   1.668   0.024   5.276 -0.3322 -1.5282 -0.0603
53849SOL    HW271862   1.754   0.031   5.151 -0.1536  0.0171  0.1274
53850SOL     OW71863   8.435  12.124  10.984  0.7060 -0.7575 -0.1766
53850SOL    HW171864   8.431  12.033  11.012  1.1516 -1.3021 -1.7530
53850SOL    HW271865   8.364  12.167  11.031  1.3680 -1.5744  1.6872
53851SOL     OW71866  10.256   8.979  11.574 -0.3233  0.4630 -0.1327
53851SOL    HW171867  10.246   8.950  11.484 -0.8055 -1.5308  0.5175
53851SOL    HW271868  10.174   9.025  11.593 -0.1188  1.1082 -0.7722
53852SOL     OW71869   9.195   2.542  10.364 -0.0550  0.3518  0.2440
53852SOL    HW171870   9.134   2.616  10.359 -0.0207  0.5546  2.1358
53852SOL    HW271871   9.150   2.471  10.317 -0.5209  1.2714 -0.7467
53853SOL     OW71872  10.639   9.341   1.452  0.1399  0.0655 -0.3271
53853SOL    HW171873  10.593   9.380   1.526  0.7932 -2.5286  1.5831
53853SOL    HW271874  10.705   9.405   1.428  0.1469  0.8364  1.6057
53854SOL     OW71875   1.728   0.282   5.627 -0.0707 -0.5044 -0.1541
53854SOL    HW171876   1.678   0.216   5.676 -0.6503 -0.9240 -1.2571
53854SOL    HW271877   1.785   0.230   5.570  0.2754 -0.0393 -0.2338
53855SOL     OW71878   0.061   3.904  10.960 -0.1918  0.0952 -0.1159
53855SOL    HW171879   0.121   3.944  11.024  0.5254 -1.2919  0.1223
53855SOL    HW271880   0.086   3.812  10.958 -0.4864  0.0134 -2.1043
53856SOL     OW71881   8.399   0.670   4.047  0.7649  0.0752  0.5208
53856SOL    HW171882   8.435   0.724   3.977 -1.8047 -1.0629 -1.8832
53856SOL    HW271883   8.308   0.654   4.020  0.5009 -2.8196  2.6717
53857SOL     OW71884   4.524  10.203   5.804 -0.5524  0.2703  0.0566
53857SOL    HW171885   4.559  10.253   5.731 -0.2499  2.5595  1.6803
53857SOL    HW271886   4.436  10.177   5.776 -0.0888  0.2643 -1.4558
53858SOL     OW71887   9.531   7.529   5.398 -0.1541  0.2279 -0.0190
53858SOL    HW171888   9.570   7.571   5.321  0.4861  0.1944  0.2800
53858SOL    HW271889   9.481   7.598   5.441  1.7603  1.0150  1.0659
53859SOL     OW71890  10.852  11.324   9.619  0.6177  0.2790  0.2087
53859SOL    HW171891  10.947  11.322   9.610  0.5837  2.7045 -2.0668
53859SOL    HW271892  10.835  11.393   9.682  0.3848  1.3564 -0.9935
53860SOL     OW71893   8.033   1.081  10.473  0.0191 -0.1991  0.2967
53860SOL    HW171894   8.111   1.136  10.474  0.7168 -1.1259  2.1449
53860SOL    HW271895   8.066   0.995  10.446 -1.0225  0.1604 -2.3848
53861SOL     OW71896   5.361   2.413   1.835 -0.2040  0.3654 -0.3150
53861SOL    HW171897   5.331   2.447   1.919 -0.8205  1.7038 -1.0439
53861SOL    HW271898   5.325   2.473   1.770  0.3513 -0.5693 -1.5409
53862SOL     OW71899   1.894   5.581   0.841 -0.1786  0.3259  0.0415
53862SOL    HW171900   1.884   5.616   0.929 -0.8760  0.7728 -0.2122
53862SOL    HW271901   1.839   5.636   0.786  0.1748 -0.0050 -0.6661
53863SOL     OW71902   6.134   2.235   4.794  0.4083 -0.0660  0.0893
53863SOL    HW171903   6.188   2.209   4.719 -0.2147  0.6706 -0.6409
53863SOL    HW271904   6.164   2.179   4.866 -0.2058 -2.1076 -1.1477
53864SOL     OW71905   9.062   1.140   8.027 -0.0786 -0.0209 -0.2182
53864SOL    HW171906   8.993   1.201   7.996  0.1776  0.8704  0.9124
53864SOL    HW271907   9.115   1.123   7.949  1.4296  3.3458 -0.0991
53865SOL     OW71908   5.654   1.431   1.391 -0.0276  0.1357  0.4091
53865SOL    HW171909   5.687   1.519   1.373 -0.5224  0.3097  0.3393
53865SOL    HW271910   5.589   1.443   1.460 -0.6495 -0.0678 -0.1297
53866SOL     OW71911   7.331   9.134   7.093 -0.3017 -0.2396  0.4248
53866SOL    HW171912   7.398   9.197   7.067 -0.0549  0.3611  2.3727
53866SOL    HW271913   7.309   9.158   7.183 -2.0850 -1.3439  0.3259
53867SOL     OW71914   7.364   8.501  12.096  0.2869  0.0069  0.0024
53867SOL    HW171915   7.322   8.559  12.160  0.2079 -1.0403  0.9296
53867SOL    HW271916   7.436   8.553  12.061  1.8046 -0.1132  2.6384
53868SOL     OW71917   4.726   3.160   3.754  0.2764  0.6250  0.0886
53868SOL    HW171918   4.675   3.237   3.729  0.7798  0.0541 -3.1901
53868SOL    HW271919   4.809   3.196   3.787  0.5314  1.5240 -1.4595
53869SOL     OW71920   8.307   7.835   1.006  0.3490  0.2657 -0.5333
53869SOL    HW171921   8.273   7.879   1.084  1.6148  0.6592 -0.1822
53869SOL    HW271922   8.297   7.741   1.025 -1.3681  0.3482 -0.8414
53870SOL     OW71923  10.098  10.810   8.528 -0.5085  0.4545 -0.3851
53870SOL    HW171924  10.174  10.805   8.470 -0.3681  0.4571 -0.2032
53870SOL    HW271925  10.030  10.758   8.484 -0.4450  0.5653 -0.6143
53871SOL     OW71926  12.164   8.117   1.411 -0.3260 -0.0490 -0.3322
53871SOL    HW171927  12.206   8.190   1.365  2.0273 -1.8112 -1.1641
53871SOL    HW271928  12.168   8.141   1.503  1.1758  0.5429 -0.5276
53872SOL     OW71929   6.741   9.371   1.095 -0.5404  0.0699  0.2797
53872SOL    HW171930   6.824   9.417   1.080 -0.8667  0.0897 -1.6684
53872SOL    HW271931   6.759   9.315   1.171  0.8057  1.1164  0.7844
53873SOL     OW71932   2.769   0.149   2.003  0.1997  0.2690 -0.0307
53873SOL    HW171933   2.780   0.059   1.973 -2.0084 -0.2515  0.5428
53873SOL    HW271934   2.814   0.153   2.087 -0.7800 -0.7092  0.5700
53874SOL     OW71935   9.989   5.731   4.526  0.2890 -0.2090  0.0312
53874SOL    HW171936  10.082   5.756   4.522  0.8447 -2.1604  0.0360
53874SOL    HW271937   9.979   5.667   4.456 -0.9091 -0.5161  0.4731
53875SOL     OW71938  10.806  10.292   4.339  0.5986 -0.5250 -0.3216
53875SOL    HW171939  10.861  10.262   4.267 -0.3332 -1.1106 -0.8106
53875SOL    HW271940  10.821  10.387   4.343  1.4040 -0.6356 -0.6328
53876SOL     OW71941   1.135   6.345   8.887 -0.3701 -0.2108  0.1494
53876SOL    HW171942   1.203   6.412   8.898 -0.9473  0.2011  1.3793
53876SOL    HW271943   1.162   6.275   8.947 -0.4298 -0.5405 -0.2107
53877SOL     OW71944   4.535  12.303   9.173  0.4706 -0.2097 -0.5952
53877SOL    HW171945   4.601  12.372   9.164  1.4803 -1.1732 -0.8710
53877SOL    HW271946   4.458  12.347   9.209  0.7341  1.2565 -1.7178
53878SOL     OW71947   1.960   1.152  10.518  0.7724  0.2733  0.1475
53878SOL    HW171948   1.955   1.140  10.612  1.2224 -2.8825 -0.1228
53878SOL    HW271949   1.883   1.106  10.484  1.4806 -0.0204 -1.1106
53879SOL     OW71950   1.410   6.160   9.793  0.0954  0.5420  0.1875
53879SOL    HW171951   1.505   6.170   9.796  0.0875  0.9067 -0.5109
53879SOL    HW271952   1.387   6.174   9.701 -0.7053  1.2103  0.4708
53880SOL     OW71953   8.132   1.862   6.769  0.5382  0.1640  0.1047
53880SOL    HW171954   8.181   1.930   6.722 -0.9017  1.6497  0.6879
53880SOL    HW271955   8.054   1.847   6.715  0.4220 -0.4159  0.4264
53881SOL     OW71956   2.769   9.826  12.525 -0.6244  0.1472 -0.3899
53881SOL    HW171957   2.694   9.884  12.533 -1.0578 -0.2784 -1.1912
53881SOL    HW271958   2.839   9.880  12.488 -0.3772  0.6612  0.7848
53882SOL     OW71959   9.057   6.504   6.494 -0.0742 -0.6457 -0.0170
53882SOL    HW171960   8.975   6.545   6.523 -0.3621 -0.7319 -0.6790
53882SOL    HW271961   9.031   6.416   6.466  0.2858 -0.7591 -0.0005
53883SOL     OW71962   0.768   0.516   5.103  0.1800 -0.4138 -0.2377
53883SOL    HW171963   0.707   0.533   5.032  0.5370  2.0067 -0.0323
53883SOL    HW271964   0.851   0.498   5.060  0.7078  2.3302 -0.4961
53884SOL     OW71965   5.519   0.332   1.588 -0.3933 -0.0311 -0.2575
53884SOL    HW171966   5.468   0.403   1.551  0.8066  1.7646  1.3376
53884SOL    HW271967   5.594   0.323   1.529  0.3919  1.3209  0.5026
53885SOL     OW71968   0.578   2.169  12.609  0.0793 -0.5842 -0.1247
53885SOL    HW171969   0.516   2.242  12.602 -1.5892 -1.9640 -0.1890
53885SOL    HW271970   0.658   2.210  12.643 -0.3614  1.4958 -1.3861
53886SOL     OW71971   9.125  11.524   9.757  0.3042 -0.2969 -0.1973
53886SOL    HW171972   9.166  11.524   9.844 -0.5949  1.0350  0.2531
53886SOL    HW271973   9.123  11.616   9.731  0.2900 -0.6530 -1.5068
53887SOL     OW71974   5.746  12.339   0.895 -0.1083  0.2962  0.1474
53887SOL    HW171975   5.768  12.386   0.975 -1.3053  1.2442 -0.0455
53887SOL    HW271976   5.820  12.282   0.879  1.0494  1.5508  0.8429
53888SOL     OW71977  10.031   8.945  12.365 -0.2347 -0.1182 -0.5093
53888SOL    HW171978  10.060   9.035  12.374  0.4637 -0.3420 -0.4608
53888SOL    HW271979  10.045   8.923  12.273  1.5608 -0.8190 -0.1099
53889SOL     OW71980  10.877   3.927   0.122  0.0813 -0.3776 -0.6536
53889SOL    HW171981  10.833   3.884   0.048  0.5260  0.9662 -1.7380
53889SOL    HW271982  10.968   3.899   0.116  0.2229  0.1259 -0.9341
53890SOL     OW71983  10.286   0.253  12.501 -0.5116  0.0126 -0.0489
53890SOL    HW171984  10.271   0.159  12.490 -1.5262  0.1126  0.4003
53890SOL    HW271985  10.233   0.278  12.577 -0.6871  1.0457 -0.4818
53891SOL     OW71986  11.985   5.835  12.211 -0.5192 -0.2952 -0.1867
53891SOL    HW171987  11.954   5.911  12.163 -1.7900 -0.7325 -0.0808
53891SOL    HW271988  11.990   5.865  12.302  0.5336  0.1175 -0.3682
53892SOL     OW71989   4.791  12.632   6.755 -0.5177  0.5049 -0.1232
53892SOL    HW171990   4.819  12.710   6.802 -0.5285  0.0674  0.6228
53892SOL    HW271991   4.780  12.661   6.664 -1.1110  1.5066  0.2518
53893SOL     OW71992   2.767  12.405   4.992 -0.3880  0.2447 -0.5516
53893SOL    HW171993   2.692  12.361   5.032 -0.7262  0.8939 -0.4651
53893SOL    HW271994   2.836  12.338   4.991 -0.8664 -0.2609 -0.3446
53894SOL     OW71995   8.727  11.017   4.562 -0.0182 -0.2759  0.6267
53894SOL    HW171996   8.790  11.074   4.604  1.6561 -1.9034  0.4369
53894SOL    HW271997   8.668  11.077   4.515  0.8936  1.3192  1.4458
53895SOL     OW71998   8.655   1.261   1.952 -0.1395 -0.4749  0.3130
53895SOL    HW171999   8.567   1.227   1.937 -0.9413  0.9940  1.4946
53895SOL    HW272000   8.656   1.286   2.045  1.8014 -1.2254  0.5444
53896SOL     OW72001   5.958   7.826   5.881 -0.3429  0.8158  0.0251
53896SOL    HW172002   6.052   7.812   5.889 -0.5502  0.4006  2.0940
53896SOL    HW272003   5.937   7.889   5.950 -1.6677  0.4977 -0.0633
53897SOL     OW72004  11.244   5.261   7.566 -0.8787 -0.2880 -0.2575
53897SOL    HW172005  11.285   5.233   7.485 -2.2685  0.2018 -1.1684
53897SOL    HW272006  11.300   5.331   7.599  0.0714 -0.9589 -0.4155
53898SOL     OW72007  11.637   9.533   8.149 -0.6076  0.2315  0.1081
53898SOL    HW172008  11.603   9.619   8.174  0.2528  0.5005  0.3842
53898SOL    HW272009  11.613   9.475   8.221 -0.3974  0.4361  0.3409
53899SOL     OW72010   8.019  10.264   3.517  0.2243  0.3900  0.0224
53899SOL    HW172011   8.076  10.335   3.549  0.3064  0.5574 -0.4977
53899SOL    HW272012   7.936  10.279   3.562 -0.3214  1.8541 -1.3627
53900SOL     OW72013   7.587   9.594   8.322  0.2785 -0.1812 -0.4875
53900SOL    HW172014   7.519   9.613   8.257  0.2214 -3.0147 -1.4018
53900SOL    HW272015   7.540   9.560   8.398  0.5437 -0.1770 -0.3196
53901SOL     OW72016  12.107  11.782   2.484  0.6952 -0.2299  0.0434
53901SOL    HW172017  12.120  11.700   2.436  1.4522  0.1354 -0.4032
53901SOL    HW272018  12.012  11.794   2.487  0.5747 -1.1851  0.2267
53902SOL     OW72019   7.317  10.682   0.176  0.3401 -0.1213  0.6626
53902SOL    HW172020   7.251  10.745   0.146  0.6127  0.1995  0.7189
53902SOL    HW272021   7.271  10.626   0.237  0.2513  0.4805  1.1655
53903SOL     OW72022   8.787   2.966   0.466  0.4047  0.6203  0.0804
53903SOL    HW172023   8.774   2.960   0.372 -0.0983 -0.0811  0.1880
53903SOL    HW272024   8.779   2.876   0.498 -2.7831  1.1668  1.1882
53904SOL     OW72025   6.746   9.570   7.720  0.4306 -0.4469  0.0539
53904SOL    HW172026   6.839   9.564   7.742  0.0618  2.0733  3.0736
53904SOL    HW272027   6.702   9.518   7.787 -0.3996 -2.0131 -1.6206
53905SOL     OW72028   6.112   9.887  11.720 -0.3665  0.3311 -0.1433
53905SOL    HW172029   6.147   9.970  11.687  1.6052 -0.6460 -0.6728
53905SOL    HW272030   6.032   9.872  11.669  2.2005 -0.8179 -4.3618
53906SOL     OW72031   8.416   3.729   1.873  0.0850  0.1053 -0.6235
53906SOL    HW172032   8.439   3.768   1.789  0.9365  1.2309  0.1043
53906SOL    HW272033   8.327   3.696   1.861  0.0249  0.6692 -1.8191
53907SOL     OW72034  12.790  10.249   7.062  0.0127  0.1334  0.3995
53907SOL    HW172035  12.726  10.223   7.129 -0.2410  0.5957  0.3368
53907SOL    HW272036  12.837  10.322   7.102 -0.0789  0.3520  0.1063
53908SOL     OW72037   5.772   4.284   6.725  0.2896  0.1468  0.6478
53908SOL    HW172038   5.766   4.341   6.648  0.8348  0.6961  0.9970
53908SOL    HW272039   5.784   4.196   6.689 -2.1654 -0.0203  0.0656
53909SOL     OW72040   2.341   1.754   7.681  0.3208  0.2387 -0.2105
53909SOL    HW172041   2.399   1.699   7.627  0.7487  1.4788 -1.0631
53909SOL    HW272042   2.259   1.757   7.633 -1.2985 -3.1561  1.9528
53910SOL     OW72043   0.926   9.080  12.855 -0.3259 -0.4629 -0.2278
53910SOL    HW172044   0.910   9.065  12.949  0.3440 -1.8828 -0.3085
53910SOL    HW272045   0.969   8.999  12.826  2.1359  1.0755 -1.1345
53911SOL     OW72046  12.287   5.133   3.257 -0.0447  0.1316 -0.7073
53911SOL    HW172047  12.236   5.053   3.254 -0.5028  0.4248 -0.7630
53911SOL    HW272048  12.360   5.117   3.197  0.5048 -0.6663  0.1323
53912SOL     OW72049   5.103   4.031   3.196 -0.3036  0.2796  0.1556
53912SOL    HW172050   5.019   3.986   3.201  1.1281 -2.9647 -1.2219
53912SOL    HW272051   5.125   4.029   3.102  1.2275  1.2100  0.4573
53913SOL     OW72052   7.107   1.504   3.514  0.0982  0.9829 -0.2529
53913SOL    HW172053   7.143   1.463   3.593  0.0645  1.3896 -0.0248
53913SOL    HW272054   7.017   1.525   3.538 -0.1809  0.3111 -0.6945
53914SOL     OW72055   0.038  12.859   8.450  0.1853  0.0700 -0.1179
53914SOL    HW172056   0.118  12.844   8.399 -0.6045 -0.2221 -1.3073
53914SOL    HW272057   0.068  12.863   8.541  1.4404 -0.9280 -0.4569
53915SOL     OW72058   0.117   0.207   5.477 -0.2573 -0.0075 -0.0477
53915SOL    HW172059   0.116   0.278   5.413  1.1630 -0.4998 -0.6470
53915SOL    HW272060   0.073   0.244   5.554  0.3300  1.4770 -0.3931
53916SOL     OW72061   3.234   9.098   6.822  0.2271  0.5555  0.4731
53916SOL    HW172062   3.269   9.141   6.900 -2.5308  1.4222  1.3197
53916SOL    HW272063   3.175   9.031   6.855  0.6193 -0.5361 -0.9027
53917SOL     OW72064   9.157   4.694   6.623 -0.0729 -0.2578 -0.4711
53917SOL    HW172065   9.190   4.763   6.679 -0.3394  1.0302 -1.8463
53917SOL    HW272066   9.235   4.654   6.584  0.1036 -1.0512  0.6352
53918SOL     OW72067   6.344   6.950   3.816  0.0250  0.7278  0.1540
53918SOL    HW172068   6.406   6.995   3.757  1.1295  0.0681  0.7805
53918SOL    HW272069   6.400   6.903   3.877 -1.1023 -0.9936 -0.0855
53919SOL     OW72070   4.575   0.033  11.793 -0.4915 -0.1320  0.1037
53919SOL    HW172071   4.551   0.045  11.885 -0.3637  0.0711  0.1117
53919SOL    HW272072   4.505  -0.020  11.756 -0.2969 -0.6246  0.4362
53920SOL     OW72073   9.937   9.912   6.513 -1.1466  0.3237  0.2838
53920SOL    HW172074  10.029   9.935   6.510 -0.6034 -1.7082 -0.0411
53920SOL    HW272075   9.900   9.970   6.580  0.8938 -0.5292  2.2947
53921SOL     OW72076   1.150  12.730  11.167 -0.1535  0.4682  0.0627
53921SOL    HW172077   1.086  12.764  11.230 -1.1824  0.4635 -0.9608
53921SOL    HW272078   1.228  12.784  11.181 -0.7378  1.1970  0.5886
53922SOL     OW72079   6.755   9.119  11.426  0.1437 -0.6421 -0.5399
53922SOL    HW172080   6.737   9.079  11.511  0.6416 -1.5536 -0.8528
53922SOL    HW272081   6.762   9.213  11.444 -0.2813 -0.7700  0.3300
53923SOL     OW72082   1.467   4.282  10.459  0.2520  0.1819  0.3161
53923SOL    HW172083   1.523   4.359  10.458  0.4570  0.0493  1.0900
53923SOL    HW272084   1.418   4.287  10.377  2.8264 -0.7656 -1.4022
53924SOL     OW72085   9.185   0.059   4.106  0.3896 -0.0703 -0.0267
53924SOL    HW172086   9.217  -0.027   4.082  2.1890  0.2281  1.1509
53924SOL    HW272087   9.225   0.077   4.191  0.4938  2.1492 -0.4877
53925SOL     OW72088   0.586   3.147   5.755 -0.4388 -0.3243 -0.0231
53925SOL    HW172089   0.499   3.159   5.716 -0.2611  1.2435  0.0014
53925SOL    HW272090   0.568   3.112   5.842 -0.9720 -1.1773 -0.4535
53926SOL     OW72091   8.966   1.266   9.742 -0.4357 -0.2746  0.6147
53926SOL    HW172092   8.969   1.175   9.774 -0.2677 -0.2270  0.7330
53926SOL    HW272093   9.057   1.289   9.727 -0.4112  0.1835  1.4495
53927SOL     OW72094  11.478   3.168   7.342  0.1959  0.3275  0.4094
53927SOL    HW172095  11.459   3.237   7.405  0.8212  0.9402 -0.0539
53927SOL    HW272096  11.549   3.203   7.288  2.2915 -1.6036  1.7096
53928SOL     OW72097   6.252  12.738   7.205 -0.5319  0.0619  0.3877
53928SOL    HW172098   6.238  12.689   7.286 -0.0038 -1.6125 -0.4870
53928SOL    HW272099   6.241  12.674   7.135 -0.2597  1.2970 -0.8558
53929SOL     OW72100  12.840   6.477   3.464 -0.1719 -0.3332 -0.4163
53929SOL    HW172101  12.852   6.477   3.369  0.6690  0.6431 -0.3166
53929SOL    HW272102  12.885   6.398   3.494 -1.3798 -1.2519 -0.9200
53930SOL     OW72103   7.333   9.459   1.666  0.2356 -0.4363  0.1980
53930SOL    HW172104   7.344   9.543   1.710 -0.0781  0.4005 -1.2427
53930SOL    HW272105   7.238   9.451   1.652  0.2365 -1.1567  0.5427
53931SOL     OW72106  10.043   3.560  12.659 -0.0860 -0.2076  0.7780
53931SOL    HW172107  10.010   3.622  12.594  1.2529 -0.7281 -0.4490
53931SOL    HW272108   9.964   3.522  12.698 -1.0171 -1.3742 -1.9904
53932SOL     OW72109   8.810  12.821   7.262  0.3115  0.5867  0.3997
53932SOL    HW172110   8.724  12.805   7.224  1.5184  0.1329 -2.3985
53932SOL    HW272111   8.801  12.906   7.307 -1.5721  0.5142  0.2406
53933SOL     OW72112   2.379   3.860   4.361  0.0167 -0.4379  0.5645
53933SOL    HW172113   2.297   3.871   4.313  0.0576 -0.9753  0.3626
53933SOL    HW272114   2.395   3.946   4.400 -0.2298 -0.1028 -0.0419
53934SOL     OW72115   9.640  11.353   1.186  0.2041  0.5237 -0.8290
53934SOL    HW172116   9.575  11.403   1.235 -1.3081 -1.2721 -0.8832
53934SOL    HW272117   9.608  11.354   1.096  0.5986  0.1648 -0.9764
53935SOL     OW72118   9.417   1.300   8.297  0.5402 -0.2093 -0.3909
53935SOL    HW172119   9.413   1.347   8.214 -0.7964  0.6376  0.1113
53935SOL    HW272120   9.443   1.211   8.273  0.3779  0.0705 -1.6884
53936SOL     OW72121  10.929   8.100   0.925  0.1825  0.1690  0.5143
53936SOL    HW172122  10.901   8.015   0.893  0.9375 -0.0796  0.4857
53936SOL    HW272123  10.940   8.153   0.846 -3.5292  1.4069  0.6270
53937SOL     OW72124   3.137   2.387  10.002  0.3078 -0.4090  0.4058
53937SOL    HW172125   3.054   2.355  10.037  0.1077 -2.4852 -1.6816
53937SOL    HW272126   3.113   2.464   9.950 -0.5715 -1.6294 -1.0946
53938SOL     OW72127   8.114   2.688   5.873  0.0018  1.2385 -0.2381
53938SOL    HW172128   8.137   2.595   5.881 -1.5116  0.8744  0.2802
53938SOL    HW272129   8.065   2.694   5.791  0.3392  1.6445 -0.4144
53939SOL     OW72130   7.884   0.366   8.527  0.4750 -0.0136  0.1089
53939SOL    HW172131   7.951   0.299   8.540  1.2226  0.6528 -0.1899
53939SOL    HW272132   7.887   0.418   8.607  0.2014 -0.0720  0.1581
53940SOL     OW72133   3.530   4.874   0.820  0.3477 -0.4420 -0.1377
53940SOL    HW172134   3.561   4.891   0.731  0.8220 -0.0951  0.0845
53940SOL    HW272135   3.609   4.852   0.869  0.4775  1.6428  0.7250
53941SOL     OW72136   1.546   1.264   5.300 -0.0642 -0.1803 -0.1418
53941SOL    HW172137   1.463   1.238   5.260  0.0176  0.3946 -0.6956
53941SOL    HW272138   1.522   1.299   5.386 -0.2585 -1.2381  0.2545
53942SOL     OW72139   2.391   8.255   9.114  0.2333 -0.1517  0.7054
53942SOL    HW172140   2.407   8.337   9.159  0.2520 -0.5613  1.4517
53942SOL    HW272141   2.478   8.220   9.095  0.2674  0.7526 -1.0542
53943SOL     OW72142   8.380   4.815   8.186 -0.0778 -0.8764 -0.1583
53943SOL    HW172143   8.452   4.877   8.200 -0.1800 -0.5272 -1.0799
53943SOL    HW272144   8.338   4.808   8.271  0.3277 -0.1605  0.1138
53944SOL     OW72145   5.888   3.736   7.874 -0.2690 -0.0513 -0.4433
53944SOL    HW172146   5.897   3.707   7.783 -0.0816  1.1728 -0.8299
53944SOL    HW272147   5.816   3.799   7.872  1.0708  1.5359 -0.1471
53945SOL     OW72148   3.013   2.973   8.060 -0.3959  0.0919  0.4320
53945SOL    HW172149   3.075   3.015   8.119  1.6111 -0.6503 -1.0277
53945SOL    HW272150   2.951   2.929   8.118  1.3793 -0.4740  1.9930
53946SOL     OW72151   9.692   8.400  12.336  0.3112  0.0382  0.1782
53946SOL    HW172152   9.751   8.467  12.304 -0.7568  0.8224 -0.1912
53946SOL    HW272153   9.732   8.317  12.309  1.7679  0.5014  0.8615
53947SOL     OW72154   7.832  11.537   6.844  0.2770 -0.5291 -0.5061
53947SOL    HW172155   7.865  11.526   6.754  0.3934  1.7864 -0.8041
53947SOL    HW272156   7.814  11.630   6.851 -1.8006 -1.0051  1.2148
53948SOL     OW72157   8.946   9.599  11.781  0.2936 -0.9567  0.2639
53948SOL    HW172158   8.851   9.602  11.767 -0.0522 -0.1790  2.4351
53948SOL    HW272159   8.973   9.691  11.785  0.7391 -1.1236  1.8477
53949SOL     OW72160   1.150   7.799   9.379 -0.6629 -0.0664  0.0754
53949SOL    HW172161   1.059   7.812   9.354 -1.3050 -0.4126  2.0548
53949SOL    HW272162   1.157   7.705   9.396  0.3200 -0.1947 -0.8821
53950SOL     OW72163  10.478   2.459  10.552 -0.1574  0.3343 -0.2342
53950SOL    HW172164  10.466   2.469  10.457  0.5407  3.2590 -0.1116
53950SOL    HW272165  10.392   2.479  10.589 -0.5534 -1.2737 -0.2227
53951SOL     OW72166   6.678   3.015   5.009  0.1287 -0.3476  0.1339
53951SOL    HW172167   6.597   3.050   4.971  0.2959 -0.4350 -0.3090
53951SOL    HW272168   6.657   2.924   5.029 -0.3416  0.0212  1.3918
53952SOL     OW72169   3.435  11.644   5.909 -0.0774  0.2740 -0.0439
53952SOL    HW172170   3.356  11.656   5.961  0.7114 -0.8336  1.4922
53952SOL    HW272171   3.415  11.685   5.824 -1.7468  1.2896  0.7937
53953SOL     OW72172   3.112   8.379   7.458 -0.3322  0.5659 -0.1011
53953SOL    HW172173   3.190   8.432   7.475  0.2987  0.0478 -1.2764
53953SOL    HW272174   3.043   8.422   7.508  0.1349  2.5421 -1.0656
53954SOL     OW72175   5.493   3.569   4.955  0.4752 -0.1816  0.4321
53954SOL    HW172176   5.584   3.541   4.967  0.2634 -0.7526  0.7214
53954SOL    HW272177   5.487   3.593   4.863  0.8913 -0.2417  0.3856
53955SOL     OW72178  10.326   4.493  11.251  0.0939 -0.1383 -0.3390
53955SOL    HW172179  10.232   4.483  11.238  0.3096 -0.0105 -2.1225
53955SOL    HW272180  10.336   4.579  11.291 -0.5988 -0.6369  0.9942
53956SOL     OW72181   3.075  10.190   1.845 -0.0316  0.0396 -0.0460
53956SOL    HW172182   3.144  10.177   1.910 -0.4580 -1.6441  0.1097
53956SOL    HW272183   3.088  10.118   1.782 -1.1208  0.2104 -0.4735
53957SOL     OW72184  11.276   1.767   9.371  0.3078 -0.0288 -0.0306
53957SOL    HW172185  11.298   1.854   9.405 -0.2773  0.1180 -0.0185
53957SOL    HW272186  11.273   1.711   9.448 -2.1833  0.5392  0.3830
53958SOL     OW72187   2.950   2.719   1.886  0.2899 -0.2345  0.1272
53958SOL    HW172188   3.035   2.763   1.891  0.1043  0.0219  1.2157
53958SOL    HW272189   2.901   2.769   1.819  0.2253  0.9911  1.0586
53959SOL     OW72190   4.031   6.237   6.534 -0.5598  0.1834 -0.1711
53959SOL    HW172191   3.975   6.305   6.572 -0.1614  0.2967  0.2152
53959SOL    HW272192   4.120   6.264   6.555 -0.4336 -1.5451  1.8940
53960SOL     OW72193   9.591   0.510   0.972  0.1894 -0.3333  0.1681
53960SOL    HW172194   9.563   0.464   1.051  0.5652  0.1847  0.6102
53960SOL    HW272195   9.512   0.556   0.943  0.3531  0.4799  0.9570
53961SOL     OW72196   2.388   7.277   1.564  0.4218  0.5310  0.4027
53961SOL    HW172197   2.396   7.354   1.620 -4.9744  1.8154 -0.0576
53961SOL    HW272198   2.406   7.308   1.476 -0.3304  0.9308  0.3853
53962SOL     OW72199  11.014   8.590   1.014 -0.3194 -0.5665 -0.4827
53962SOL    HW172200  10.948   8.546   1.066 -1.6392  1.0232 -0.7235
53962SOL    HW272201  11.096   8.576   1.062 -1.0614 -1.3390  0.5978
53963SOL     OW72202   3.134   0.105  12.036  0.1248 -0.2912  0.4189
53963SOL    HW172203   3.141   0.198  12.058 -1.3090 -0.1100  0.2505
53963SOL    HW272204   3.184   0.060  12.103  1.9721  0.6573 -0.2598
53964SOL     OW72205   2.546   7.555   7.095  0.4203  0.7298  0.7485
53964SOL    HW172206   2.502   7.596   7.021  0.8998  1.5985  0.9367
53964SOL    HW272207   2.630   7.527   7.060  1.2742  2.4734  1.2922
53965SOL     OW72208   2.687   2.278   4.311  0.3468  0.0356 -0.3070
53965SOL    HW172209   2.751   2.337   4.272  0.4478 -0.6354 -1.2014
53965SOL    HW272210   2.687   2.202   4.253  0.9648 -1.2867  1.3571
53966SOL     OW72211   0.478   6.790   4.017  0.3231  0.2696  0.6148
53966SOL    HW172212   0.435   6.816   3.936  1.9822  0.9435 -0.0944
53966SOL    HW272213   0.514   6.871   4.052 -0.5032  0.0133  2.1384
53967SOL     OW72214   0.935   3.681   5.585 -0.5178 -0.0817 -0.6036
53967SOL    HW172215   1.023   3.651   5.561  1.0121  2.7121  1.0314
53967SOL    HW272216   0.916   3.750   5.521 -0.5183  0.8742  0.4133
53968SOL     OW72217  11.245  11.505  10.706  0.7179  0.4353  0.1694
53968SOL    HW172218  11.269  11.455  10.628  0.8639  1.4139 -0.4293
53968SOL    HW272219  11.260  11.597  10.681  1.0312  0.7472  1.4350
53969SOL     OW72220   8.950   0.977   3.293  0.6546 -0.1724 -0.0193
53969SOL    HW172221   8.904   0.965   3.376 -0.7318  0.4801 -0.6563
53969SOL    HW272222   8.887   0.949   3.226  1.7073 -0.5938 -0.8616
53970SOL     OW72223   4.959   1.968   3.514 -0.0220  0.2737  0.1771
53970SOL    HW172224   4.873   1.935   3.487  0.0319  0.6167 -0.4321
53970SOL    HW272225   4.954   2.062   3.499  0.1057  0.4394  1.1317
53971SOL     OW72226   3.981   1.609  11.733  0.2222 -0.5210  0.4880
53971SOL    HW172227   4.069   1.638  11.710  0.0762 -1.2810 -1.1073
53971SOL    HW272228   3.994   1.526  11.779  0.2953 -1.4639 -1.1614
53972SOL     OW72229  10.900   8.906   4.037  0.2891  0.2998  0.8622
53972SOL    HW172230  10.902   9.001   4.050  0.1661  0.5548 -0.7615
53972SOL    HW272231  10.990   8.878   4.051  0.0790  0.4310  2.7006
53973SOL     OW72232   9.325   9.759   3.387 -0.3749 -0.0254 -0.1830
53973SOL    HW172233   9.324   9.739   3.293  0.1513  0.2285 -0.2468
53973SOL    HW272234   9.341   9.854   3.391 -0.1341 -0.0799  0.1656
53974SOL     OW72235  11.934  10.388   0.737  0.2704  0.0492 -0.2615
53974SOL    HW172236  11.948  10.307   0.784  1.2611  1.1248  1.3672
53974SOL    HW272237  11.903  10.450   0.803  2.1888  1.7496 -0.8447
53975SOL     OW72238  10.326   2.379   3.483  0.4025  0.1173  0.0477
53975SOL    HW172239  10.342   2.377   3.388 -0.4095 -1.9960 -0.0972
53975SOL    HW272240  10.384   2.448   3.515  1.2828  0.3520 -1.8802
53976SOL     OW72241   2.611   1.520   8.692  0.1827 -0.3642 -0.4430
53976SOL    HW172242   2.637   1.466   8.767 -0.1710 -0.3667 -0.3182
53976SOL    HW272243   2.537   1.572   8.725  1.3438  1.1620 -0.1519
53977SOL     OW72244   6.521   1.784  11.581  0.2267  0.1516  0.3538
53977SOL    HW172245   6.616   1.781  11.589  0.3772 -0.4966 -1.2364
53977SOL    HW272246   6.491   1.828  11.661  1.7095 -1.1581  1.6959
53978SOL     OW72247   9.810   7.938  12.081 -0.3109 -0.0183 -0.3294
53978SOL    HW172248   9.760   7.948  12.162  0.5609 -0.7440  0.3153
53978SOL    HW272249   9.880   8.002  12.088 -0.0581 -0.2885 -0.3657
53979SOL     OW72250   1.220  12.607   2.746 -0.1488  0.8659 -0.6483
53979SOL    HW172251   1.303  12.646   2.772  0.7823 -0.8938 -0.8719
53979SOL    HW272252   1.154  12.656   2.797  0.9732  2.3815 -0.5898
53980SOL     OW72253  11.537   0.038   0.543 -0.4291  0.4567  0.5134
53980SOL    HW172254  11.619  -0.011   0.542 -0.6473  0.0438 -1.4722
53980SOL    HW272255  11.469  -0.030   0.547 -0.7027  0.6311 -0.7910
53981SOL     OW72256  11.906   5.761   4.696 -0.5011 -0.2120 -0.1531
53981SOL    HW172257  11.940   5.831   4.642  1.1594  0.1075  1.2030
53981SOL    HW272258  11.837   5.802   4.749  0.3985  0.4207  0.5690
53982SOL     OW72259   6.945   1.205   4.764 -0.3480 -0.7063  0.4241
53982SOL    HW172260   7.022   1.248   4.726  0.0295 -0.5213  1.3605
53982SOL    HW272261   6.873   1.265   4.750 -0.7742 -1.7325 -2.2393
53983SOL     OW72262   1.624   1.731   4.343  0.0537  0.2561  0.0283
53983SOL    HW172263   1.541   1.684   4.345  0.2122 -0.0444 -0.5554
53983SOL    HW272264   1.691   1.663   4.350  0.2500  0.5891  2.0579
53984SOL     OW72265  10.379   5.227   1.560  0.4305  0.5995 -0.5514
53984SOL    HW172266  10.367   5.138   1.525  0.7913  0.3791 -0.1232
53984SOL    HW272267  10.463   5.255   1.525 -0.7050  1.6896 -2.5881
53985SOL     OW72268   4.154   8.072   6.939  0.6242  0.2710  0.3566
53985SOL    HW172269   4.148   8.113   6.853  2.0408  2.4569  1.2139
53985SOL    HW272270   4.062   8.059   6.965  0.1727 -0.3004 -1.3648
53986SOL     OW72271  12.271   4.139   3.391 -0.1215 -0.0427 -0.6771
53986SOL    HW172272  12.282   4.200   3.319  0.5781  0.2508 -0.3229
53986SOL    HW272273  12.181   4.153   3.421  0.0286  0.7924 -0.6149
53987SOL     OW72274   3.160   5.053   7.310 -0.1014 -0.2424 -0.1684
53987SOL    HW172275   3.154   5.118   7.240 -0.5053 -1.4456 -1.2986
53987SOL    HW272276   3.089   4.992   7.292 -1.0080  0.0703  2.0352
53988SOL     OW72277  12.101  10.494   8.173 -0.4086 -0.4513  0.2497
53988SOL    HW172278  12.037  10.476   8.242  1.2914  1.4330  2.4822
53988SOL    HW272279  12.077  10.582   8.141 -0.5813 -0.9042 -0.9297
53989SOL     OW72280   7.686  12.054   5.465  0.5037  0.1311  0.1009
53989SOL    HW172281   7.662  12.087   5.378  1.3411  0.8920  0.1296
53989SOL    HW272282   7.758  11.994   5.448  0.5724  0.1702  0.2515
53990SOL     OW72283   2.784   6.260   5.478  0.3815  0.0682  0.6674
53990SOL    HW172284   2.850   6.215   5.427  1.2116  1.0766  0.8189
53990SOL    HW272285   2.768   6.342   5.431 -0.5617 -0.0314  0.7822
53991SOL     OW72286   5.739   1.787   5.031  0.1645 -0.7560  0.4713
53991SOL    HW172287   5.792   1.852   5.078 -1.5442  1.8727 -1.0148
53991SOL    HW272288   5.797   1.753   4.964 -0.2113  3.5396 -2.4689
53992SOL     OW72289   0.892   8.717  10.760 -0.9767  0.0149  0.6349
53992SOL    HW172290   0.931   8.674  10.837 -0.7219 -0.4950  0.2333
53992SOL    HW272291   0.941   8.680  10.686  2.6081  4.3371  0.4238
53993SOL     OW72292  11.341   9.420   3.987  0.5303  0.3527 -0.0256
53993SOL    HW172293  11.433   9.421   4.013  0.6445 -1.4528 -0.2335
53993SOL    HW272294  11.339   9.467   3.903  1.2215  0.6066  0.0946
53994SOL     OW72295   5.451   3.072   4.145 -0.2500  0.4500 -0.1957
53994SOL    HW172296   5.481   2.988   4.110  0.2072  0.6365 -0.2682
53994SOL    HW272297   5.358   3.076   4.123 -0.5097 -0.4587  0.6571
53995SOL     OW72298  12.833   3.100   8.274  0.5393  0.2241  0.4724
53995SOL    HW172299  12.782   3.053   8.339  1.5498 -1.3100  0.2275
53995SOL    HW272300  12.846   3.036   8.203  3.0451  0.3811  0.6798
53996SOL     OW72301  10.231   2.627   9.230 -0.1245  0.2840 -0.2802
53996SOL    HW172302  10.204   2.716   9.206  0.4869  0.4637 -0.3305
53996SOL    HW272303  10.218   2.576   9.150 -0.4355  0.3386 -0.2648
53997SOL     OW72304   5.475   9.332   8.549 -0.3284 -0.1975 -0.0108
53997SOL    HW172305   5.417   9.257   8.535  1.6370 -1.5422 -1.4808
53997SOL    HW272306   5.560   9.294   8.567  0.4360  1.7184  0.7073
53998SOL     OW72307   6.881   7.439   5.902 -0.2553  0.2783  0.0977
53998SOL    HW172308   6.820   7.373   5.868 -1.1900  0.5461  1.1820
53998SOL    HW272309   6.873   7.513   5.842  0.6077 -0.4715 -0.9801
53999SOL     OW72310   0.984   6.950   3.167 -0.1900 -0.2295 -0.5094
53999SOL    HW172311   1.047   7.011   3.206  0.8573 -0.5477 -1.6316
53999SOL    HW272312   1.037   6.892   3.113 -1.3554 -1.1218 -0.7449
54000SOL     OW72313   1.604   6.029  12.236 -0.2073  0.4044  0.6449
54000SOL    HW172314   1.680   6.077  12.270 -0.6342  0.6680  1.2400
54000SOL    HW272315   1.639   5.943  12.211  0.3070  0.5598  0.8198
54001SOL     OW72316   8.227   1.748  11.430  0.5641  0.0163 -0.3297
54001SOL    HW172317   8.180   1.707  11.502  1.0177 -1.4131 -0.8154
54001SOL    HW272318   8.295   1.800  11.473  0.3765 -0.2435  0.2948
54002SOL     OW72319   1.284  10.044   9.783 -0.4157  0.3507 -0.4115
54002SOL    HW172320   1.247  10.127   9.813 -0.9844 -0.5790  1.5639
54002SOL    HW272321   1.210   9.984   9.780  0.2745 -0.5451 -0.1019
54003SOL     OW72322   5.821  11.142  10.255  0.5927  0.0706  0.1995
54003SOL    HW172323   5.816  11.237  10.241 -0.5124  0.3676  2.2216
54003SOL    HW272324   5.907  11.128  10.294 -0.0969  0.6238  2.0365
54004SOL     OW72325  12.047   7.753   0.304  0.6108 -0.0926 -0.1075
54004SOL    HW172326  12.017   7.837   0.269  0.9794  0.4111  0.7354
54004SOL    HW272327  12.048   7.766   0.399  1.6979 -0.7095 -0.0231
54005SOL     OW72328  11.295   5.060  11.382  0.2190 -0.5498  0.6940
54005SOL    HW172329  11.215   5.037  11.431 -1.5122  2.5850 -0.3425
54005SOL    HW272330  11.277   5.032  11.292  0.4015 -0.0663  0.5059
54006SOL     OW72331  10.146   0.234  11.640  0.2881  0.4671  0.1928
54006SOL    HW172332  10.080   0.284  11.592  0.4472 -0.6238 -1.2185
54006SOL    HW272333  10.201   0.195  11.571 -0.2601 -2.2428  1.1838
54007SOL     OW72334  12.554  10.926   2.065  0.0025  0.3484  0.2927
54007SOL    HW172335  12.467  10.890   2.047 -0.1630  0.6276  0.5220
54007SOL    HW272336  12.582  10.962   1.981 -1.0139  2.1595  0.6609
54008SOL     OW72337   9.858   0.660   2.671  0.0572 -0.0595 -0.1278
54008SOL    HW172338   9.784   0.715   2.646  1.3709  0.8048 -2.4509
54008SOL    HW272339   9.863   0.595   2.601  2.4167  0.8800 -0.9115
54009SOL     OW72340   6.853   6.173   3.725  0.4965 -0.2535 -0.5151
54009SOL    HW172341   6.829   6.160   3.633 -0.3572 -0.4047 -0.2757
54009SOL    HW272342   6.889   6.089   3.753  2.3430  0.2723 -1.1652
54010SOL     OW72343   0.319   4.752   9.859  0.5017  0.0236 -0.4660
54010SOL    HW172344   0.399   4.799   9.835 -0.2625  1.0994 -0.9314
54010SOL    HW272345   0.271   4.813   9.914  0.1820 -0.7790  0.1581
54011SOL     OW72346   8.798  10.671  11.529 -0.4545  0.3918 -0.1212
54011SOL    HW172347   8.774  10.604  11.594 -0.4186  0.8928  0.4084
54011SOL    HW272348   8.893  10.679  11.537 -0.6842  2.0811  1.3731
54012SOL     OW72349  10.109   0.424  10.853 -0.0150 -0.4274  0.2595
54012SOL    HW172350  10.081   0.333  10.857 -0.9830 -0.1247  0.7100
54012SOL    HW272351  10.178   0.426  10.787  0.8426 -1.6934  1.0800
54013SOL     OW72352   0.424  11.659  12.060 -0.2731 -0.2034 -0.0711
54013SOL    HW172353   0.427  11.629  12.151  0.0559  2.1276  0.7385
54013SOL    HW272354   0.400  11.751  12.065  2.3105  0.7261 -2.1407
54014SOL     OW72355   3.802  11.816   7.567 -0.3535 -0.2653  0.3858
54014SOL    HW172356   3.808  11.800   7.662 -1.5292  1.4684  0.7880
54014SOL    HW272357   3.728  11.763   7.539  0.4192 -1.3259  0.2685
54015SOL     OW72358   2.826   8.961  12.531 -0.0252  0.1247 -0.5238
54015SOL    HW172359   2.772   9.014  12.474  0.6750 -1.6141 -2.9846
54015SOL    HW272360   2.830   8.875  12.488  1.8848 -0.8164  1.3165
54016SOL     OW72361   1.261  11.802   6.533 -0.1032 -0.1037  0.3411
54016SOL    HW172362   1.180  11.847   6.558 -0.0946  0.4303 -0.5451
54016SOL    HW272363   1.331  11.861   6.562 -0.0720  0.0833 -0.1044
54017SOL     OW72364   8.687   1.979   1.398  0.1887  0.0280 -0.3696
54017SOL    HW172365   8.665   1.974   1.491 -0.0181  0.3014 -0.4008
54017SOL    HW272366   8.704   1.889   1.372 -0.0267 -0.0825 -0.1309
54018SOL     OW72367  10.988   9.498   2.043  0.4088 -0.4699  0.3294
54018SOL    HW172368  11.047   9.423   2.031 -0.2170 -1.2120  1.7121
54018SOL    HW272369  10.909   9.474   1.993 -0.0240 -1.0202  1.2598
54019SOL     OW72370  11.621   0.485   7.917 -0.2404 -0.0090 -0.0867
54019SOL    HW172371  11.713   0.511   7.925 -0.3299  0.5051 -0.6873
54019SOL    HW272372  11.573   0.567   7.911 -0.6868 -0.2862 -0.3629
54020SOL     OW72373   0.899   8.721   3.649  0.3722  0.1047 -0.2799
54020SOL    HW172374   0.844   8.735   3.571  1.1711 -1.0585 -1.0767
54020SOL    HW272375   0.948   8.642   3.630  3.5476  1.9075 -0.3291
54021SOL     OW72376   1.636   8.346   6.353 -0.4028  0.1779 -0.4237
54021SOL    HW172377   1.696   8.397   6.407  0.8633 -1.1359 -0.5419
54021SOL    HW272378   1.549   8.364   6.390  0.2476  0.7412  0.8789
54022SOL     OW72379   7.040   4.358   6.164 -0.6886 -0.4899  0.2407
54022SOL    HW172380   7.123   4.322   6.195 -0.8744 -1.1196  0.0141
54022SOL    HW272381   7.058   4.451   6.150 -0.0879 -0.5779  0.4159
54023SOL     OW72382   0.418   0.908   3.043 -0.0896  0.1284  0.3832
54023SOL    HW172383   0.470   0.977   3.003 -0.4429 -0.2133 -0.7035
54023SOL    HW272384   0.453   0.900   3.132 -0.6296  2.3011  0.8448
54024SOL     OW72385   1.350   6.645   3.152  0.5734  0.1392  0.2522
54024SOL    HW172386   1.357   6.562   3.105 -1.7889  0.3451 -0.6367
54024SOL    HW272387   1.258   6.669   3.142  1.0460  2.5146  1.1018
54025SOL     OW72388   6.116   7.923   4.952 -0.0158  0.3412 -0.1302
54025SOL    HW172389   6.111   7.969   5.036  0.2556 -0.0409  0.1003
54025SOL    HW272390   6.164   7.983   4.895 -0.6088  0.8058 -0.1575
54026SOL     OW72391   1.952  12.545  11.836  0.3160 -0.4864 -0.3204
54026SOL    HW172392   1.993  12.487  11.772  0.9824 -1.0387  0.5984
54026SOL    HW272393   2.021  12.605  11.863  0.1502 -0.5135  0.1779
54027SOL     OW72394   8.931   6.401   4.134 -0.3589 -0.4078 -0.1746
54027SOL    HW172395   8.838   6.382   4.137 -0.6455  0.1233 -2.8384
54027SOL    HW272396   8.956   6.383   4.043  1.9365  0.3235  0.2429
54028SOL     OW72397   3.401   1.405   6.247 -0.2228 -0.1453 -0.4561
54028SOL    HW172398   3.456   1.327   6.245  0.8858  0.6128 -0.6261
54028SOL    HW272399   3.462   1.478   6.236 -0.9785  0.8762  1.4732
54029SOL     OW72400   7.295  10.189  12.931  0.1061 -0.2034 -0.4733
54029SOL    HW172401   7.204  10.217  12.942  0.4816  0.2664  2.0369
54029SOL    HW272402   7.346  10.267  12.949  1.0587 -1.2460  1.6491
54030SOL     OW72403   5.042   3.580   0.952 -0.2821 -0.1838 -0.0484
54030SOL    HW172404   4.974   3.640   0.921  0.4890  0.1567 -1.0942
54030SOL    HW272405   5.118   3.598   0.897  0.0347 -1.9780 -0.2410
54031SOL     OW72406  12.697   9.914   0.180 -0.4128  0.3514  1.2080
54031SOL    HW172407  12.789   9.904   0.205 -0.6370 -0.4804  1.7367
54031SOL    HW272408  12.652   9.843   0.225 -0.9487 -0.7881 -0.9699
54032SOL     OW72409   1.529  12.249   7.251  1.0006 -0.0578  0.1285
54032SOL    HW172410   1.526  12.197   7.171 -0.6960 -2.0522  1.3800
54032SOL    HW272411   1.502  12.337   7.224  3.2066  0.1019 -1.9168
54033SOL     OW72412  12.464   6.656   5.904  0.2796  0.5552  0.3168
54033SOL    HW172413  12.437   6.649   5.995 -0.6020 -0.0065  0.0206
54033SOL    HW272414  12.560   6.656   5.907  0.2692  1.6874  1.3224
54034SOL     OW72415   3.808  12.537   1.373 -0.1715 -0.2820  0.2836
54034SOL    HW172416   3.856  12.480   1.433 -0.0794  0.7718  1.2392
54034SOL    HW272417   3.866  12.613   1.360 -0.2077 -0.4584 -1.1113
54035SOL     OW72418   0.966   4.927   8.837 -0.1484 -0.0779  0.1138
54035SOL    HW172419   1.005   4.965   8.758 -2.2225  1.2350 -0.3540
54035SOL    HW272420   1.029   4.861   8.865  1.8500  1.1676 -1.1789
54036SOL     OW72421   7.858   0.197   9.583  0.1960 -0.2089  0.5320
54036SOL    HW172422   7.861   0.279   9.633 -0.7907 -0.4156  0.9448
54036SOL    HW272423   7.929   0.206   9.519 -1.3217  2.0185 -1.0309
54037SOL     OW72424   6.731  10.204   4.508  0.2370 -0.0300  0.6285
54037SOL    HW172425   6.796  10.221   4.576  0.1252  0.4330  0.6268
54037SOL    HW272426   6.757  10.121   4.469  0.8460  0.1636  0.6087
54038SOL     OW72427  12.894   1.271   0.560 -0.1500 -0.2964  0.1753
54038SOL    HW172428  12.907   1.324   0.481  1.9983 -1.2641 -0.1632
54038SOL    HW272429  12.905   1.333   0.632 -0.3084  0.2248 -0.2413
54039SOL     OW72430   4.915   3.222   8.241 -0.0392  0.5686 -0.1777
54039SOL    HW172431   4.891   3.270   8.162  0.8008  0.3242 -0.5891
54039SOL    HW272432   4.902   3.130   8.217 -1.0063  0.5419  0.3932
54040SOL     OW72433   2.919   8.870   3.654 -0.0721  0.3022 -0.0648
54040SOL    HW172434   3.013   8.873   3.666 -0.0518  0.2438 -0.2043
54040SOL    HW272435   2.902   8.933   3.583 -0.3865  1.9530  1.4071
54041SOL     OW72436   2.656   9.938  11.798 -0.1415  0.5320 -0.6832
54041SOL    HW172437   2.709   9.862  11.820 -1.2809  0.1420  0.9338
54041SOL    HW272438   2.568   9.903  11.783 -0.4380  1.4035 -1.0349
54042SOL     OW72439   0.317   1.045   2.743  0.3749 -0.2414  0.5440
54042SOL    HW172440   0.369   1.077   2.817  1.9924 -0.0101 -0.6172
54042SOL    HW272441   0.376   0.985   2.697 -0.0761  0.6384 -1.2955
54043SOL     OW72442   6.749   1.662  11.138 -0.3215  0.2044 -0.1785
54043SOL    HW172443   6.665   1.634  11.173 -0.1961  0.6890  0.5291
54043SOL    HW272444   6.798   1.581  11.124 -0.5318 -0.0242  0.3816
54044SOL     OW72445   5.109  10.420   8.543  0.3413 -0.1528  0.5251
54044SOL    HW172446   5.165  10.394   8.616  1.5542  0.1854 -0.2500
54044SOL    HW272447   5.061  10.497   8.575  0.3298 -0.4347  1.1979
54045SOL     OW72448   4.839   8.866   9.025 -1.1996  0.1523  0.5120
54045SOL    HW172449   4.839   8.856   9.120 -2.0503 -1.0027  0.4130
54045SOL    HW272450   4.794   8.788   8.993  1.2852 -0.7945 -0.9867
54046SOL     OW72451   3.021  10.970   2.527  0.0557  0.3219 -0.0720
54046SOL    HW172452   2.987  11.059   2.527  0.0597  0.3333  0.9023
54046SOL    HW272453   3.088  10.970   2.596  1.0939 -0.0507 -1.0417
54047SOL     OW72454   0.840   6.303   0.536 -0.0761 -0.1317 -0.3418
54047SOL    HW172455   0.768   6.278   0.593 -0.1674  0.6050 -0.1252
54047SOL    HW272456   0.899   6.353   0.592  0.4179 -0.3988 -0.6125
54048SOL     OW72457   6.877  10.517  10.712  0.2563 -0.2856 -0.5799
54048SOL    HW172458   6.839  10.451  10.770  1.3584 -1.8347 -1.5415
54048SOL    HW272459   6.970  10.495  10.708  0.3931  0.4043 -2.0937
54049SOL     OW72460   2.669   9.328   2.174 -0.0333  0.2933  0.0512
54049SOL    HW172461   2.622   9.262   2.226 -0.5816 -2.1246 -3.1476
54049SOL    HW272462   2.604   9.397   2.159 -0.3894  0.2138  1.0769
54050SOL     OW72463   0.558  10.061   1.441  0.0821 -0.4159  0.1786
54050SOL    HW172464   0.601   9.979   1.468  1.8933  0.1944 -0.6681
54050SOL    HW272465   0.570  10.064   1.346  0.3429  0.9853  0.2410
54051SOL     OW72466   0.334   6.222   2.435 -0.1579 -0.4617  0.5167
54051SOL    HW172467   0.294   6.149   2.389 -0.1162 -0.1053 -0.1110
54051SOL    HW272468   0.271   6.294   2.425  1.4801  0.7597 -2.3950
54052SOL     OW72469   9.849   2.119   9.956 -0.2250  0.0152 -0.4006
54052SOL    HW172470   9.929   2.127   9.903 -0.7850 -3.0404 -1.8935
54052SOL    HW272471   9.880   2.121  10.047  1.5677 -0.9444 -0.9477
54053SOL     OW72472   5.641   9.876   9.419 -0.1528  0.2402 -0.2500
54053SOL    HW172473   5.546   9.884   9.422 -0.3082 -1.5226  0.8963
54053SOL    HW272474   5.666   9.915   9.335 -1.8719  0.7208 -0.5742
54054SOL     OW72475   3.806  10.391   3.652  0.0349 -0.3650 -0.0038
54054SOL    HW172476   3.860  10.312   3.647  1.5147  0.5654  0.5926
54054SOL    HW272477   3.716  10.360   3.640  0.4032 -2.3524  1.8083
54055SOL     OW72478   2.967   7.054   8.504  0.1712  0.2238  0.1858
54055SOL    HW172479   3.006   7.101   8.578 -0.4083  2.0414 -0.6087
54055SOL    HW272480   2.874   7.079   8.506 -0.3286 -1.5322  0.1769
54056SOL     OW72481  12.508   5.756   0.465 -0.1210  0.5108 -0.7391
54056SOL    HW172482  12.478   5.682   0.517  1.1129 -0.4072 -1.2719
54056SOL    HW272483  12.603   5.757   0.478  0.0923  0.8807 -2.1487
54057SOL     OW72484  11.903   7.624   2.648 -0.3408  0.1043 -0.1634
54057SOL    HW172485  11.809   7.617   2.631 -0.2709 -0.8075 -0.2242
54057SOL    HW272486  11.911   7.695   2.712 -1.2159 -0.7624  0.9484
54058SOL     OW72487   9.880  12.700   7.336  0.2972  0.4467 -0.1091
54058SOL    HW172488   9.901  12.778   7.284  1.9462 -0.1745 -0.4316
54058SOL    HW272489   9.784  12.697   7.337  0.1796  2.6783  0.2185
54059SOL     OW72490   3.454   8.660   1.706  0.0187  0.1139 -0.4631
54059SOL    HW172491   3.430   8.723   1.638 -1.0547  0.6550  0.3666
54059SOL    HW272492   3.549   8.660   1.707  0.1226  3.0058  0.5796
54060SOL     OW72493   5.771   1.259   9.378  0.1909  0.0940  0.0420
54060SOL    HW172494   5.692   1.218   9.343 -0.0541  1.1695 -0.7346
54060SOL    HW272495   5.740   1.306   9.456  0.3172 -0.4968  0.4585
54061SOL     OW72496   0.653   9.861   9.802  0.6023  0.1508  0.3224
54061SOL    HW172497   0.578   9.895   9.754  0.3084  0.8237  1.2423
54061SOL    HW272498   0.678   9.782   9.754 -1.8730 -1.1827  1.0316
54062SOL     OW72499  12.546   8.947  11.223 -0.3638  0.2747  0.4207
54062SOL    HW172500  12.592   9.030  11.238  0.5338 -0.3695  1.3548
54062SOL    HW272501  12.484   8.967  11.153  0.2318  1.5857  0.2282
54063SOL     OW72502  12.325   9.037   7.402 -0.4413 -0.3532  0.3023
54063SOL    HW172503  12.293   9.122   7.371  0.4532 -0.5179 -1.1513
54063SOL    HW272504  12.419   9.050   7.414 -0.4932 -0.7956  1.3458
54064SOL     OW72505  11.720   5.158   6.415  0.0645 -0.1255 -0.6447
54064SOL    HW172506  11.673   5.240   6.432  0.7812  0.2056 -0.2182
54064SOL    HW272507  11.781   5.181   6.345  1.2840  0.1049  0.4694
54065SOL     OW72508   6.442  10.025  10.802  0.3317 -0.4160 -0.7060
54065SOL    HW172509   6.453   9.931  10.817  1.6379 -0.0928  0.5936
54065SOL    HW272510   6.496  10.043  10.724  0.8754 -0.5979 -0.3798
54066SOL     OW72511   6.113   2.354   8.813 -0.5547 -0.1685 -0.8586
54066SOL    HW172512   6.100   2.301   8.892 -1.9047  2.6099  0.9557
54066SOL    HW272513   6.026   2.390   8.795  0.1685  0.8831 -2.4030
54067SOL     OW72514   7.894   3.467   8.827 -0.2934 -0.2518  0.1963
54067SOL    HW172515   7.901   3.421   8.911 -0.1829  2.1072  1.5655
54067SOL    HW272516   7.802   3.455   8.801 -0.7834  0.4063  1.5445
54068SOL     OW72517   5.827   7.752  10.507 -0.4743 -0.5546  0.3713
54068SOL    HW172518   5.779   7.774  10.427  0.9653  0.7175 -0.2034
54068SOL    HW272519   5.870   7.669  10.487  0.0336 -0.1466 -0.2698
54069SOL     OW72520  12.343  10.036   9.015 -0.8570  0.2473 -0.1222
54069SOL    HW172521  12.346  10.124   8.976 -0.4431 -0.9393 -3.0506
54069SOL    HW272522  12.434  10.017   9.037 -1.0632  0.8353  1.3803
54070SOL     OW72523   1.739   6.009   3.458 -0.0775  0.2838 -0.2404
54070SOL    HW172524   1.809   5.943   3.458 -0.0156  0.2596 -2.3774
54070SOL    HW272525   1.784   6.092   3.477  0.1563 -0.0190  0.5545
54071SOL     OW72526   1.624  10.199   2.050 -0.0103  0.4972  0.1585
54071SOL    HW172527   1.709  10.159   2.031 -0.4996 -0.5672  0.1490
54071SOL    HW272528   1.563  10.126   2.051 -0.9100  1.2356  0.3090
54072SOL     OW72529   9.682  10.378   5.624  0.2407  0.2026  0.0772
54072SOL    HW172530   9.663  10.357   5.533 -2.9236 -3.7142  1.3434
54072SOL    HW272531   9.734  10.303   5.655 -3.4105 -1.5910  2.5954
54073SOL     OW72532  12.374  12.220   9.595  0.2261 -0.2881 -0.1490
54073SOL    HW172533  12.348  12.302   9.639  1.1821 -0.2570  0.3795
54073SOL    HW272534  12.332  12.152   9.647  1.6229 -0.2693  1.0427
54074SOL     OW72535   8.111   0.027   2.010 -0.3449  0.1736  0.1240
54074SOL    HW172536   8.204   0.019   2.034 -0.5553 -0.7603  0.6769
54074SOL    HW272537   8.112   0.079   1.929  0.6906 -0.1330 -0.0812
54075SOL     OW72538   3.913   4.376   0.233 -0.0547 -0.2118 -0.1400
54075SOL    HW172539   3.942   4.407   0.319 -0.2369 -1.3683  0.3515
54075SOL    HW272540   3.988   4.328   0.198 -0.3519 -0.6806 -0.1440
54076SOL     OW72541  11.627   5.453   7.095 -0.6639  0.0218 -0.2248
54076SOL    HW172542  11.654   5.389   7.029  0.0413 -0.5036  0.5527
54076SOL    HW272543  11.656   5.537   7.061  1.2187 -0.4260  0.1828
54077SOL     OW72544   5.348  10.449   3.209 -0.4625  0.1155 -0.2127
54077SOL    HW172545   5.435  10.469   3.176 -1.1729  2.5252 -0.8087
54077SOL    HW272546   5.314  10.383   3.149  0.6423 -0.2581 -0.4469
54078SOL     OW72547   8.335  11.147   8.769 -0.6040  0.1513  0.1822
54078SOL    HW172548   8.325  11.180   8.858 -0.0609 -0.0967  0.3399
54078SOL    HW272549   8.286  11.065   8.768 -1.6757  0.7823 -0.1140
54079SOL     OW72550  10.255   8.068   5.942  0.9404 -0.1945 -0.3189
54079SOL    HW172551  10.219   8.101   6.024  1.2342 -1.3876  0.3167
54079SOL    HW272552  10.342   8.107   5.936  0.7868  0.1613 -0.2373
54080SOL     OW72553   8.537   5.114   3.733 -0.1833  0.0375 -0.3402
54080SOL    HW172554   8.526   5.200   3.774 -0.2364  0.6930 -1.6836
54080SOL    HW272555   8.572   5.133   3.646 -1.3733 -1.1963 -1.1357
54081SOL     OW72556  11.832   1.051   1.355  0.4308 -0.6246 -0.4033
54081SOL    HW172557  11.923   1.043   1.324  0.0190 -1.7206 -1.3949
54081SOL    HW272558  11.784   0.984   1.307 -1.0133  0.2549 -0.2449
54082SOL     OW72559   9.976   9.112  10.864  0.3724  0.3000 -0.0228
54082SOL    HW172560   9.932   9.148  10.941 -0.9250  1.8512 -1.4073
54082SOL    HW272561   9.988   9.019  10.885 -1.3977  0.3372  1.4232
54083SOL     OW72562   2.434   8.742   2.363 -0.0080 -0.4410  0.6401
54083SOL    HW172563   2.435   8.701   2.277 -1.2534  0.9415 -0.0952
54083SOL    HW272564   2.497   8.693   2.415  1.0537 -1.0592 -1.1702
54084SOL     OW72565   6.535  11.500   7.750  0.1539  0.0559 -0.5077
54084SOL    HW172566   6.510  11.554   7.675  3.5584  1.3639 -0.8527
54084SOL    HW272567   6.568  11.419   7.712 -0.3271 -0.2725 -0.2449
54085SOL     OW72568   1.983  12.230   5.712 -0.2573 -0.0523 -0.3265
54085SOL    HW172569   1.941  12.161   5.764 -0.0331 -0.7773 -1.0823
54085SOL    HW272570   2.048  12.268   5.770  0.1070 -0.9677 -0.1184
54086SOL     OW72571  10.745   4.623  12.722 -0.0917  0.2443 -0.1646
54086SOL    HW172572  10.805   4.576  12.664  0.5872  2.2751 -1.1856
54086SOL    HW272573  10.781   4.711  12.728 -1.4371  0.7425  1.5170
54087SOL     OW72574  12.140   5.021   8.984  0.1579  0.3553 -0.4965
54087SOL    HW172575  12.142   5.032   9.079 -0.5465  0.2620 -0.4608
54087SOL    HW272576  12.203   4.951   8.966 -0.1693 -0.0703 -0.0234
54088SOL     OW72577   2.667   6.324  11.318 -0.2777 -0.3788 -0.4891
54088SOL    HW172578   2.737   6.387  11.330 -1.1740  0.2357  2.2861
54088SOL    HW272579   2.708   6.251  11.271  1.6582  0.7787 -0.7067
54089SOL     OW72580   5.809   5.721   8.672 -0.4525  0.2286 -0.2070
54089SOL    HW172581   5.827   5.725   8.578  0.2810 -1.0447 -0.1501
54089SOL    HW272582   5.728   5.670   8.679 -1.2407  1.4540 -0.1990
54090SOL     OW72583   4.667   1.833   9.515 -0.0776  0.2167 -0.0251
54090SOL    HW172584   4.756   1.810   9.487 -0.6944 -0.1647 -1.8059
54090SOL    HW272585   4.620   1.750   9.517 -0.7849  0.5827 -0.6465
54091SOL     OW72586   3.239  12.388   5.152 -0.1466  0.0274  0.5172
54091SOL    HW172587   3.295  12.448   5.103  1.4981 -1.0094  1.0645
54091SOL    HW272588   3.257  12.302   5.114  0.2293 -0.6154  2.0818
54092SOL     OW72589   7.781   5.706   3.352  0.1096  0.1662  0.4450
54092SOL    HW172590   7.856   5.721   3.410  1.4643 -2.4638 -0.4156
54092SOL    HW272591   7.812   5.733   3.266 -0.0606 -0.5012  0.1634
54093SOL     OW72592   4.342  12.457  10.349 -0.6129 -0.3692  0.3441
54093SOL    HW172593   4.382  12.510  10.280  0.0151 -0.1996  0.8241
54093SOL    HW272594   4.283  12.517  10.394  0.4977  0.1049  1.2282
54094SOL     OW72595   1.128   6.052   2.311  0.4443  0.0408 -0.3264
54094SOL    HW172596   1.140   6.008   2.227  0.2497  1.4739 -1.1369
54094SOL    HW272597   1.199   6.117   2.313  2.1510 -1.7260  1.8564
54095SOL     OW72598   1.804   7.983  11.098  0.5164 -0.2419  0.6957
54095SOL    HW172599   1.850   8.035  11.163 -1.7431  1.8019  0.8178
54095SOL    HW272600   1.834   8.017  11.014 -0.4639  0.9077  0.7748
54096SOL     OW72601   6.794   9.957   4.354 -0.0074  0.4773  0.0806
54096SOL    HW172602   6.834   9.983   4.271 -0.0065  1.2191  0.3093
54096SOL    HW272603   6.847   9.884   4.385  1.1568  1.4211  0.3687
54097SOL     OW72604   0.201   9.905   5.650  0.0425  0.2910 -0.5873
54097SOL    HW172605   0.280   9.900   5.705 -0.6966 -0.8299  0.4302
54097SOL    HW272606   0.226   9.864   5.568  0.6267  0.2691 -0.4031
54098SOL     OW72607   1.603  11.026   6.780 -0.1612  0.2684  0.5572
54098SOL    HW172608   1.640  10.970   6.712 -2.7549  2.9336 -3.4952
54098SOL    HW272609   1.535  10.972   6.821 -0.1747 -0.7376 -0.7173
54099SOL     OW72610   4.001   8.677  10.516 -0.5427  0.0143  0.0347
54099SOL    HW172611   4.085   8.715  10.542  0.8663 -2.7394 -0.2027
54099SOL    HW272612   3.938   8.713  10.580  0.9845  1.2732  0.8929
54100SOL     OW72613   3.436   4.272   1.298 -0.2108  0.4822 -0.3830
54100SOL    HW172614   3.346   4.304   1.296 -1.4014 -2.1444  2.8895
54100SOL    HW272615   3.432   4.191   1.349  4.3102  1.3410  1.8589
54101SOL     OW72616   3.499   5.825   9.824  0.0423  0.4404  0.3089
54101SOL    HW172617   3.533   5.912   9.843  0.5798  0.1793  0.5760
54101SOL    HW272618   3.444   5.836   9.747  1.1758  0.7834 -0.4775
54102SOL     OW72619   0.814   1.015  12.073 -0.1276  0.1490 -0.2543
54102SOL    HW172620   0.835   1.106  12.054  1.0516 -0.4353 -1.9757
54102SOL    HW272621   0.755   0.989  12.003  0.7373 -0.8172 -0.6507
54103SOL     OW72622   7.573  11.983  11.833 -0.1530 -0.0324 -0.1083
54103SOL    HW172623   7.663  12.006  11.811  0.0179 -0.4200  0.1674
54103SOL    HW272624   7.563  12.011  11.924  0.2833 -1.6385  0.4684
54104SOL     OW72625   4.573  11.897   0.934  0.4747  0.3101  0.6448
54104SOL    HW172626   4.641  11.889   0.868  0.1522 -2.7997  0.5088
54104SOL    HW272627   4.599  11.836   1.003 -1.3174  0.2520  1.3473
54105SOL     OW72628   5.584   7.157   0.892  0.2823  0.3983 -0.4265
54105SOL    HW172629   5.508   7.143   0.836 -0.3499 -1.3740  0.7786
54105SOL    HW272630   5.549   7.162   0.981  1.3729  1.9519 -0.0213
54106SOL     OW72631   1.428   5.097   6.654 -0.5268  0.3326 -0.0056
54106SOL    HW172632   1.357   5.036   6.635 -1.9991  1.2563  2.1940
54106SOL    HW272633   1.389   5.163   6.711  1.6764  1.8882 -0.1701
54107SOL     OW72634  10.992   4.448   8.007  0.3412  0.2647  0.1995
54107SOL    HW172635  11.051   4.444   8.083  0.4024 -2.2436  0.0894
54107SOL    HW272636  11.049   4.428   7.932 -0.2033  0.1363 -0.1817
54108SOL     OW72637  10.535   1.242   2.911 -0.4705  0.0686 -0.1264
54108SOL    HW172638  10.456   1.200   2.878 -0.1770 -0.0924 -0.6340
54108SOL    HW272639  10.584   1.268   2.833 -0.7415  1.5708  0.1624
54109SOL     OW72640  11.497   3.270   3.213  0.1611 -0.5469  0.0494
54109SOL    HW172641  11.429   3.204   3.201  0.8524 -1.2477 -0.0324
54109SOL    HW272642  11.449   3.353   3.215 -0.5398 -0.8814 -1.6465
54110SOL     OW72643   0.370   0.666  11.465  0.7302  0.6041 -0.1668
54110SOL    HW172644   0.318   0.595  11.428 -0.0293  0.3580  1.3211
54110SOL    HW272645   0.457   0.628  11.477  1.0813  0.7736 -1.8916
54111SOL     OW72646   8.247  11.377  11.470  0.9365  0.2043  0.5689
54111SOL    HW172647   8.280  11.308  11.412  1.1199  3.2429 -3.3701
54111SOL    HW272648   8.154  11.356  11.482  0.9600 -0.6717 -0.6368
54112SOL     OW72649  11.480  11.223   9.808  0.2996  0.6560  0.0252
54112SOL    HW172650  11.562  11.270   9.788  1.0189  0.3302  1.9992
54112SOL    HW272651  11.499  11.132   9.786  0.0188  0.7746 -0.7233
54113SOL     OW72652   9.236   0.710  11.885  0.2571  0.4505 -0.0636
54113SOL    HW172653   9.255   0.742  11.797  2.2907  0.3235  0.2760
54113SOL    HW272654   9.197   0.623  11.871 -0.7440  1.0060 -0.8450
54114SOL     OW72655   9.661   9.708   0.411 -0.3155  0.5871  0.1609
54114SOL    HW172656   9.674   9.632   0.467 -0.4367 -0.8029 -1.5963
54114SOL    HW272657   9.735   9.766   0.430  0.6002 -0.6652  0.4874
54115SOL     OW72658   2.295   3.672  11.686  0.3419  0.1507  0.5270
54115SOL    HW172659   2.201   3.679  11.705  0.3154 -0.0552  0.4725
54115SOL    HW272660   2.306   3.583  11.652  0.1903  0.8296 -1.4922
54116SOL     OW72661   7.375  12.813  12.392 -0.3334 -0.1434  0.2730
54116SOL    HW172662   7.322  12.785  12.317  0.1949  0.2196 -0.2560
54116SOL    HW272663   7.386  12.907  12.379  1.0423 -0.3144 -0.0600
54117SOL     OW72664  12.581  10.248   9.466  0.2205  0.2649  0.5091
54117SOL    HW172665  12.583  10.163   9.422 -2.4069  0.7169 -0.6339
54117SOL    HW272666  12.597  10.312   9.396 -0.2415  0.8197  0.8982
54118SOL     OW72667   0.602   5.864  11.659 -0.5510  0.8858 -0.2355
54118SOL    HW172668   0.627   5.783  11.704 -2.7371  0.0617 -0.3764
54118SOL    HW272669   0.674   5.881  11.598 -0.4001 -1.4301 -0.7831
54119SOL     OW72670  11.414   9.999   0.162  0.0395 -0.3302  0.3623
54119SOL    HW172671  11.430  10.084   0.121 -1.9157  0.7154  1.6093
54119SOL    HW272672  11.320   9.983   0.148  0.2656 -2.0686  0.5731
54120SOL     OW72673   5.784   7.491   1.481 -0.5126  0.2295  0.5489
54120SOL    HW172674   5.866   7.490   1.531  0.2052 -0.0621 -0.6013
54120SOL    HW272675   5.740   7.410   1.508 -0.4865  0.4496  1.2721
54121SOL     OW72676  11.581   6.008   1.523  0.3574 -0.3114 -0.0199
54121SOL    HW172677  11.541   5.942   1.466  1.0875 -0.9021  0.1414
54121SOL    HW272678  11.640   6.056   1.465 -1.5662  1.5234 -0.6165
54122SOL     OW72679   0.154   9.924   9.200 -0.6559 -0.7090 -0.6119
54122SOL    HW172680   0.085   9.990   9.194 -1.1106 -1.2439 -1.3752
54122SOL    HW272681   0.111   9.847   9.236 -0.6588 -1.2900 -1.8050
54123SOL     OW72682   5.766  10.943  11.953 -0.9508  0.1804  0.3973
54123SOL    HW172683   5.783  10.855  11.919  0.6046  0.2166  1.0139
54123SOL    HW272684   5.763  10.999  11.876  0.0320 -0.1208  0.1235
54124SOL     OW72685   8.691   1.016   9.109 -0.2786  0.8015 -0.3318
54124SOL    HW172686   8.786   1.019   9.113 -0.1737 -1.1510 -0.4144
54124SOL    HW272687   8.664   0.987   9.196 -0.7377  0.6519 -0.5174
54125SOL     OW72688   0.171   2.530   5.058 -0.0420  0.0339 -0.1575
54125SOL    HW172689   0.079   2.506   5.060 -0.3546  1.0530 -1.4735
54125SOL    HW272690   0.212   2.461   5.006 -0.0232 -0.4689  0.5050
54126SOL     OW72691  10.957   1.303   7.284 -0.1881 -0.4631  0.0075
54126SOL    HW172692  10.921   1.315   7.372  0.2054  1.4658 -0.0380
54126SOL    HW272693  10.890   1.341   7.226 -0.1078 -1.0311 -0.4624
54127SOL     OW72694   5.194   1.400   0.387  0.3647 -0.3369 -0.0561
54127SOL    HW172695   5.098   1.410   0.384  0.3762  0.1445  0.8095
54127SOL    HW272696   5.214   1.343   0.313 -0.5316  0.0398 -0.6093
54128SOL     OW72697   0.809   3.658   4.892 -0.1961  0.1936 -0.5727
54128SOL    HW172698   0.781   3.701   4.811 -0.1715 -2.5392 -2.1422
54128SOL    HW272699   0.727   3.631   4.934 -0.1743  0.2418 -0.5000
54129SOL     OW72700  10.986   2.363   1.473  0.0505 -0.2683 -0.2927
54129SOL    HW172701  10.912   2.409   1.512  1.0053  0.6565  0.4936
54129SOL    HW272702  10.988   2.393   1.382  0.5563  1.1564  0.1665
54130SOL     OW72703   2.396   5.757   5.575  0.4402 -0.3434 -0.1153
54130SOL    HW172704   2.475   5.739   5.523 -0.3326 -1.4689 -0.9716
54130SOL    HW272705   2.324   5.747   5.512 -0.4493 -0.4773  0.8994
54131SOL     OW72706   5.254   6.003   5.347  0.0282 -0.0274  0.1735
54131SOL    HW172707   5.212   5.982   5.431 -0.1185  1.7314  0.5777
54131SOL    HW272708   5.181   6.009   5.285 -0.0250  0.2605  0.2655
54132SOL     OW72709   7.226   2.558  10.261  0.4408 -0.6240 -0.3411
54132SOL    HW172710   7.213   2.612  10.183 -0.6175 -1.2856 -0.6467
54132SOL    HW272711   7.275   2.482  10.230 -1.5013 -1.7497 -0.7622
54133SOL     OW72712   3.906   8.203   9.559 -0.0351  0.4017 -0.1049
54133SOL    HW172713   3.950   8.165   9.482  0.0783  1.0465 -0.3664
54133SOL    HW272714   3.898   8.130   9.620 -0.8963 -0.3376 -1.0595
54134SOL     OW72715   1.986   5.803   9.673 -0.1613  0.3908 -0.5242
54134SOL    HW172716   2.036   5.782   9.594  1.3071 -0.6466  0.6184
54134SOL    HW272717   1.980   5.720   9.720 -2.4376  0.6236 -0.2800
54135SOL     OW72718   7.745   2.876   5.168  0.1646 -0.0325  0.5145
54135SOL    HW172719   7.833   2.878   5.206  1.4531  0.3257 -2.2505
54135SOL    HW272720   7.728   2.966   5.141  0.1238 -0.5408 -1.3102
54136SOL     OW72721   1.164   9.339   5.352 -0.7025 -0.3719  0.0579
54136SOL    HW172722   1.178   9.424   5.311 -1.2343 -0.3493 -0.0912
54136SOL    HW272723   1.079   9.348   5.397 -0.7546 -0.8160  0.0535
54137SOL     OW72724   8.355   0.527   4.644 -0.5166 -0.0373 -0.0423
54137SOL    HW172725   8.262   0.516   4.625 -0.2755 -0.8612 -0.8507
54137SOL    HW272726   8.400   0.476   4.576  0.5366  0.6333  0.1166
54138SOL     OW72727   8.007   1.280   5.333 -0.7183  0.1771  0.1133
54138SOL    HW172728   7.970   1.279   5.421  0.2753  0.7242  0.5571
54138SOL    HW272729   7.953   1.342   5.285 -1.0290  0.1730  0.4518
54139SOL     OW72730  10.853  11.839   8.426 -0.1462  0.1398 -0.2895
54139SOL    HW172731  10.878  11.884   8.507  0.9066  1.0605 -1.1073
54139SOL    HW272732  10.829  11.751   8.455 -0.7128  0.7311  1.1402
54140SOL     OW72733  12.771   3.859  12.034 -0.3642  0.2391  0.0433
54140SOL    HW172734  12.773   3.948  12.069 -0.3880  0.0416  0.5419
54140SOL    HW272735  12.714   3.810  12.093 -1.3531  0.1907 -0.9323
54141SOL     OW72736   3.878  10.979  12.969  0.6885 -0.1030  0.2721
54141SOL    HW172737   3.941  10.960  12.899 -0.2049 -3.5241  0.1990
54141SOL    HW272738   3.801  11.012  12.923  0.6417 -0.8670 -0.2167
54142SOL     OW72739   6.251   0.649  12.264  0.2249 -0.5112  0.3360
54142SOL    HW172740   6.299   0.731  12.283 -1.5802  1.3299 -2.3272
54142SOL    HW272741   6.196   0.636  12.341  0.1911  1.0804  0.6316
54143SOL     OW72742   7.509  11.406   5.797  0.5232 -0.1343 -0.3462
54143SOL    HW172743   7.575  11.344   5.766 -1.8938 -2.4059 -1.3435
54143SOL    HW272744   7.486  11.457   5.719  0.6769  0.2241 -0.1562
54144SOL     OW72745  12.702   3.397  11.374  0.5515  0.2381 -0.2670
54144SOL    HW172746  12.626   3.420  11.428 -0.5514  1.6984 -2.2681
54144SOL    HW272747  12.675   3.318  11.327 -0.0953  1.1754 -1.5351
54145SOL     OW72748   7.730  12.361   1.416  1.1002 -0.6449  0.2662
54145SOL    HW172749   7.767  12.319   1.338  0.8800 -0.6146  0.1458
54145SOL    HW272750   7.699  12.289   1.470  0.5696 -0.6293 -0.0167
54146SOL     OW72751   3.243   3.112   3.648 -0.2137 -0.2124 -0.1149
54146SOL    HW172752   3.165   3.056   3.641 -0.6441  0.3178  0.3379
54146SOL    HW272753   3.314   3.051   3.668 -0.3461 -0.8032 -1.3657
54147SOL     OW72754   3.702   3.723   8.148 -1.0312  0.2325  0.3010
54147SOL    HW172755   3.728   3.637   8.114  0.5138  0.6850  0.2532
54147SOL    HW272756   3.717   3.783   8.075 -1.1132  0.6910  0.6548
54148SOL     OW72757   5.791   1.248   2.823  0.0707  0.0700  0.2305
54148SOL    HW172758   5.762   1.224   2.911 -0.3998 -0.2160 -0.0002
54148SOL    HW272759   5.831   1.168   2.789 -0.3597 -0.0206 -0.0682
54149SOL     OW72760  12.910   6.212  11.382 -0.6476 -0.2562  0.0580
54149SOL    HW172761  12.887   6.305  11.368 -0.5499  0.2868  2.9130
54149SOL    HW272762  12.989   6.215  11.435 -0.5455 -2.0106  0.0368
54150SOL     OW72763   6.752   0.577   8.298  0.0228  0.2136 -0.7170
54150SOL    HW172764   6.841   0.566   8.265  0.3543  0.1364  0.2009
54150SOL    HW272765   6.710   0.492   8.283  0.3766 -0.0309 -0.3078
54151SOL     OW72766   1.435   9.290   3.725  0.4588 -0.0025 -0.4965
54151SOL    HW172767   1.349   9.294   3.767  0.9450 -1.0567  0.6453
54151SOL    HW272768   1.440   9.371   3.674 -1.0038  0.3143 -0.1813
54152SOL     OW72769  10.762  10.265   6.679  0.5126 -0.2041 -0.2009
54152SOL    HW172770  10.812  10.208   6.736  1.9938 -2.2209 -3.2649
54152SOL    HW272771  10.811  10.347   6.677  1.6285 -0.8510 -0.1759
54153SOL     OW72772   9.973   5.796   6.400  0.3553 -0.3352 -0.1495
54153SOL    HW172773   9.924   5.797   6.318  0.4963  2.9088 -0.3303
54153SOL    HW272774  10.020   5.712   6.399  0.2480 -0.4852 -3.3249
54154SOL     OW72775  11.443   8.193  10.073  0.1551 -0.6462  0.7057
54154SOL    HW172776  11.443   8.282  10.107  0.8197 -0.5787  0.5325
54154SOL    HW272777  11.530   8.159  10.094  0.3765 -0.8003 -0.4154
54155SOL     OW72778   1.742   6.675   5.843  0.9440 -0.4830 -0.2615
54155SOL    HW172779   1.706   6.639   5.925 -0.0595  2.9671  0.9717
54155SOL    HW272780   1.670   6.669   5.781  1.3758 -2.1535 -0.6517
54156SOL     OW72781   1.595   9.396   0.818  0.6517  0.4749 -0.2626
54156SOL    HW172782   1.586   9.311   0.774 -0.9630  0.4982 -0.0240
54156SOL    HW272783   1.526   9.450   0.780 -0.5532  0.6312  1.9633
54157SOL     OW72784   6.921   0.028   0.336 -0.2038  0.1610 -0.2410
54157SOL    HW172785   6.829   0.055   0.336 -0.6752 -1.2754  1.3422
54157SOL    HW272786   6.920  -0.058   0.295  0.6147  0.5674 -1.1531
54158SOL     OW72787   0.296  11.576  11.401 -0.7162  0.2277  0.0281
54158SOL    HW172788   0.304  11.664  11.364  1.2191  0.3748  0.6893
54158SOL    HW272789   0.251  11.590  11.485  0.1028  0.6999  0.4092
54159SOL     OW72790   1.796  10.067   8.003 -0.0249 -0.4806 -0.7992
54159SOL    HW172791   1.862  10.044   7.938 -0.6004  1.2627 -2.0668
54159SOL    HW272792   1.805  10.162   8.013 -0.1079 -0.6454  1.5397
54160SOL     OW72793   4.756   1.685   0.471 -0.4842  0.3096  0.1613
54160SOL    HW172794   4.676   1.732   0.496 -0.5083  0.6973 -0.6274
54160SOL    HW272795   4.822   1.715   0.534 -0.3502  1.8611 -0.6549
54161SOL     OW72796   1.566   8.150   2.509  0.1053 -0.8084  0.0891
54161SOL    HW172797   1.473   8.173   2.508  0.8798  3.3398  1.4716
54161SOL    HW272798   1.583   8.114   2.422 -2.5137 -0.3106 -0.7137
54162SOL     OW72799  10.652   7.327   6.244  0.5350  0.0324 -0.3916
54162SOL    HW172800  10.578   7.360   6.296  0.1854 -0.7039 -0.4068
54162SOL    HW272801  10.684   7.404   6.197 -0.6812  0.2311 -0.9335
54163SOL     OW72802   3.877   2.150   6.137  0.5022 -0.1079  0.9596
54163SOL    HW172803   3.825   2.070   6.144 -1.1206  0.9812  2.3210
54163SOL    HW272804   3.902   2.171   6.227  3.1617 -0.4367  0.3682
54164SOL     OW72805   3.029   1.122  11.192 -0.1358 -0.1794  0.2211
54164SOL    HW172806   3.083   1.046  11.172  0.9398  0.3446  1.0337
54164SOL    HW272807   2.974   1.094  11.265 -1.4277 -0.9077 -0.9946
54165SOL     OW72808  11.436  11.904  12.827  0.0472  0.2014 -0.1551
54165SOL    HW172809  11.368  11.917  12.894  0.4144  0.4109  0.1817
54165SOL    HW272810  11.389  11.870  12.752 -0.5667  1.1228 -0.2014
54166SOL     OW72811   1.318   5.905   5.851  0.4710  0.0887  0.1458
54166SOL    HW172812   1.258   5.944   5.788 -0.1264 -0.0244  0.6306
54166SOL    HW272813   1.335   5.817   5.817 -2.5867 -1.3024  1.8245
54167SOL     OW72814   7.303   5.430   6.348 -0.3125  0.4697 -0.0180
54167SOL    HW172815   7.364   5.487   6.301  0.2965 -0.3038 -0.1891
54167SOL    HW272816   7.257   5.382   6.279 -1.1366  1.0468  0.1092
54168SOL     OW72817   1.621   5.006   5.178 -0.7808 -0.1771 -0.9689
54168SOL    HW172818   1.716   5.017   5.167 -0.3756 -2.2813 -0.0755
54168SOL    HW272819   1.589   5.094   5.198  1.4986  0.1303  2.0330
54169SOL     OW72820  10.990   0.051   8.353 -0.1945 -0.5300  0.0530
54169SOL    HW172821  10.982  -0.034   8.397 -1.9929 -0.6400 -0.4329
54169SOL    HW272822  11.075   0.083   8.381  0.5192 -2.4596  0.3002
54170SOL     OW72823   5.891   1.773  11.492  0.3583  0.0568 -0.1562
54170SOL    HW172824   5.820   1.713  11.468  1.4907 -0.5121 -2.4618
54170SOL    HW272825   5.849   1.858  11.501 -0.8504 -0.5530  0.1603
54171SOL     OW72826   0.927   0.893  10.277  0.8228  0.7044 -0.4820
54171SOL    HW172827   1.019   0.869  10.267  1.0659  1.5552 -0.4223
54171SOL    HW272828   0.918   0.975  10.228 -0.0141  0.3910 -0.8684
54172SOL     OW72829   5.614  11.507   9.017  0.0586  0.2625 -0.0256
54172SOL    HW172830   5.705  11.496   9.044  0.7120  0.7073 -1.8660
54172SOL    HW272831   5.575  11.419   9.025  0.4216  0.2178  1.4553
54173SOL     OW72832   7.373   3.295   6.284 -0.0788  0.7459  0.2899
54173SOL    HW172833   7.434   3.264   6.217  0.5043 -0.7965  1.4864
54173SOL    HW272834   7.322   3.218   6.308  0.2401  1.0808  2.1550
54174SOL     OW72835   3.774  12.482  10.511 -0.0084  0.5636 -0.2542
54174SOL    HW172836   3.772  12.547  10.582 -0.0743  0.7040 -0.3844
54174SOL    HW272837   3.682  12.456  10.500  0.3149 -1.9878  2.0344
54175SOL     OW72838  11.516   9.702   0.885 -0.5634  0.0073  0.2114
54175SOL    HW172839  11.508   9.606   0.883 -0.3736 -0.0495 -3.2180
54175SOL    HW272840  11.426   9.733   0.897 -0.9879 -0.6305 -1.1731
54176SOL     OW72841  10.371   1.412   8.712  0.3724 -0.1086 -0.6085
54176SOL    HW172842  10.420   1.494   8.709  0.1741  0.1336  1.5370
54176SOL    HW272843  10.279   1.439   8.714  0.3300 -0.2839  1.3737
54177SOL     OW72844   7.696  10.717   6.258 -0.0060  0.0353  0.0244
54177SOL    HW172845   7.781  10.751   6.286 -0.7359  1.9501  0.0511
54177SOL    HW272846   7.671  10.771   6.184 -1.5214 -0.0271  0.4629
54178SOL     OW72847  12.910   2.874   6.627  0.6096  0.1769 -0.2431
54178SOL    HW172848  12.943   2.788   6.652 -2.4943 -0.7708  1.0722
54178SOL    HW272849  12.904   2.871   6.531 -0.0933 -1.3798 -0.1811
54179SOL     OW72850   7.434  10.103   5.224 -0.2989  0.6590  0.3740
54179SOL    HW172851   7.450  10.032   5.285  3.2436 -0.6314 -1.7501
54179SOL    HW272852   7.381  10.064   5.155  1.8945 -0.1898 -0.9434
54180SOL     OW72853   9.759  12.413   2.201 -0.4441 -0.4443 -0.0420
54180SOL    HW172854   9.739  12.434   2.292 -0.1576  1.5181 -0.3847
54180SOL    HW272855   9.821  12.481   2.174  1.5316 -2.4840 -0.9531
54181SOL     OW72856  10.132  12.497   0.490 -0.0367 -0.2645 -0.1546
54181SOL    HW172857  10.093  12.584   0.479 -0.6796 -0.5970 -0.6157
54181SOL    HW272858  10.057  12.437   0.486  0.2322 -0.7570  1.5024
54182SOL     OW72859  11.536   7.076   6.556 -0.4601  0.3520 -0.5904
54182SOL    HW172860  11.595   7.144   6.589 -0.6837  1.2162 -1.8726
54182SOL    HW272861  11.451   7.120   6.547 -1.6890 -1.1809  2.3536
54183SOL     OW72862   3.900  10.595   3.514  0.3064  0.0875  0.2912
54183SOL    HW172863   3.863  10.529   3.573  0.8485  0.5609  1.1957
54183SOL    HW272864   3.901  10.675   3.566  1.3696  0.3860 -0.1502
54184SOL     OW72865   6.716  11.537   2.720 -0.3978 -0.3723 -0.0078
54184SOL    HW172866   6.665  11.538   2.802  0.1183 -0.6394  0.3215
54184SOL    HW272867   6.792  11.592   2.739 -1.8123  2.2673 -1.3451
54185SOL     OW72868   4.697   5.702   4.023  0.4054 -0.3583 -0.3756
54185SOL    HW172869   4.739   5.766   3.967  1.8640 -1.3212 -0.4303
54185SOL    HW272870   4.747   5.705   4.105 -0.5708 -0.2464  0.2433
54186SOL     OW72871   8.822   7.281   7.863  0.1287 -0.6842  0.4462
54186SOL    HW172872   8.884   7.302   7.793 -0.4495 -0.0275  0.1167
54186SOL    HW272873   8.871   7.296   7.944  0.9930 -2.0256  0.1989
54187SOL     OW72874   7.077  10.406   6.728  0.1131 -0.4609  0.4291
54187SOL    HW172875   7.171  10.391   6.736  0.0433 -1.4173 -0.3618
54187SOL    HW272876   7.068  10.464   6.651  0.1074  0.4223  1.0794
54188SOL     OW72877  11.399   4.156   0.402  0.4966 -0.0548  0.3145
54188SOL    HW172878  11.415   4.207   0.482 -2.2137  4.4340 -1.6484
54188SOL    HW272879  11.317   4.111   0.418 -0.3843  1.3542 -0.0180
54189SOL     OW72880   0.208  10.247  11.563 -0.7531 -0.4850  0.3491
54189SOL    HW172881   0.247  10.173  11.610  0.2925  0.3579  0.8517
54189SOL    HW272882   0.191  10.313  11.630 -0.1949  0.3354 -0.2910
54190SOL     OW72883  10.053  11.537  11.749 -0.0175  0.5025  0.1369
54190SOL    HW172884  10.044  11.549  11.655 -0.7016  0.3798  0.1829
54190SOL    HW272885   9.974  11.576  11.787  0.1046  0.2785  0.6377
54191SOL     OW72886   6.263   7.835   3.580 -0.3203  0.0543 -0.2404
54191SOL    HW172887   6.222   7.750   3.595  0.0086  0.1074  1.0187
54191SOL    HW272888   6.264   7.877   3.666  2.0930  0.1796 -0.2735
54192SOL     OW72889  10.393  12.269   5.936  0.0239 -0.0137  0.2386
54192SOL    HW172890  10.397  12.283   5.842  2.5853  1.4757  0.4706
54192SOL    HW272891  10.423  12.180   5.949  1.5741  0.4030 -0.2894
54193SOL     OW72892   7.311  11.474   1.340 -0.2272  0.6708  0.0595
54193SOL    HW172893   7.297  11.565   1.364 -1.1843  0.4170  0.5050
54193SOL    HW272894   7.267  11.465   1.255 -2.0082  0.1273  0.9867
54194SOL     OW72895  12.139  10.882  11.801  0.0143  0.2621  0.6989
54194SOL    HW172896  12.054  10.838  11.803 -0.2785  0.8080  0.5510
54194SOL    HW272897  12.126  10.955  11.740  0.7556  0.0065  0.2196
54195SOL     OW72898   5.708   2.026   5.849 -0.5493  0.1097  0.4558
54195SOL    HW172899   5.717   1.946   5.901 -1.3119 -0.5971 -0.4524
54195SOL    HW272900   5.662   1.998   5.770  1.3931  0.9581 -1.0514
54196SOL     OW72901   7.917   5.761   4.704  0.4643 -0.3472 -0.1702
54196SOL    HW172902   7.845   5.701   4.720 -1.9100  1.7973 -1.9292
54196SOL    HW272903   7.945   5.790   4.792 -0.2054 -1.8494  0.5683
54197SOL     OW72904   2.349   9.620   8.160  0.1126  0.0473 -0.8847
54197SOL    HW172905   2.294   9.656   8.230  0.3994 -0.0475 -0.6105
54197SOL    HW272906   2.379   9.697   8.112  0.0062  0.1199 -0.8365
54198SOL     OW72907   3.719   9.449   3.244 -0.0926 -0.3186 -0.8745
54198SOL    HW172908   3.807   9.474   3.217 -0.1008  0.4829 -0.1899
54198SOL    HW272909   3.668   9.449   3.162 -0.0486  1.7889 -0.9424
54199SOL     OW72910  12.039   2.463   0.608  0.0800 -0.6661 -0.5579
54199SOL    HW172911  11.956   2.443   0.652 -1.2837  0.4503 -2.5114
54199SOL    HW272912  12.091   2.507   0.675 -1.0692 -0.9536  0.5698
54200SOL     OW72913   7.854   9.834   2.682 -0.1766  0.2336  0.6051
54200SOL    HW172914   7.785   9.783   2.640  0.6503 -1.7607  1.5316
54200SOL    HW272915   7.823   9.847   2.772  0.4290 -0.2645  0.8909
54201SOL     OW72916   4.516   2.000   5.508  0.3979 -0.2595 -0.4355
54201SOL    HW172917   4.577   1.933   5.476 -0.1572 -0.7419 -0.5002
54201SOL    HW272918   4.500   2.055   5.432 -0.1994 -0.8614 -0.7593
54202SOL     OW72919   4.580   3.688   2.964 -0.0355  0.5189 -0.1300
54202SOL    HW172920   4.619   3.661   3.047  1.4486 -0.9937 -1.2530
54202SOL    HW272921   4.487   3.668   2.974  0.4186 -1.5560  0.4921
54203SOL     OW72922   5.825   9.328   3.715 -0.4252 -0.4312  0.0287
54203SOL    HW172923   5.790   9.348   3.629  0.1557 -2.7148 -0.8008
54203SOL    HW272924   5.868   9.243   3.705  0.1991 -0.4784  2.4177
54204SOL     OW72925  12.968   6.848   6.804  0.3001  0.1736 -0.2244
54204SOL    HW172926  13.057   6.814   6.817  0.0938 -1.4995 -2.4729
54204SOL    HW272927  12.981   6.932   6.759  0.7251  1.0695  1.4708
54205SOL     OW72928   6.033   5.469   6.785  0.1209  0.3948 -0.3411
54205SOL    HW172929   6.124   5.450   6.764  0.9136  1.0336  2.1348
54205SOL    HW272930   6.018   5.556   6.749  0.9848  0.9056  0.4820
54206SOL     OW72931   9.652   9.573   2.524  0.1514  0.3055  0.0113
54206SOL    HW172932   9.695   9.636   2.465 -4.7984  1.4729 -2.9782
54206SOL    HW272933   9.613   9.627   2.592 -0.3070 -0.0620  0.0484
54207SOL     OW72934   2.454  10.598   1.144 -0.5046  0.1220  0.6562
54207SOL    HW172935   2.494  10.675   1.184 -0.8954  1.0749 -0.6936
54207SOL    HW272936   2.525  10.557   1.094 -0.8131  0.9825 -0.5449
54208SOL     OW72937   4.327   2.477   7.847  0.3064 -0.2501 -0.1962
54208SOL    HW172938   4.324   2.390   7.806  3.0225  0.0094 -1.1636
54208SOL    HW272939   4.349   2.536   7.776  0.6275  0.9124  0.8370
54209SOL     OW72940   0.112   0.834   0.605  0.1621 -0.2385 -0.6670
54209SOL    HW172941   0.193   0.839   0.555  0.0720 -2.6259 -1.1843
54209SOL    HW272942   0.054   0.898   0.563  0.4983 -1.3067 -2.9265
54210SOL     OW72943  10.952   5.475   9.178 -0.2010  0.1947 -0.3239
54210SOL    HW172944  10.918   5.513   9.097  0.6503 -0.9716 -1.2702
54210SOL    HW272945  10.941   5.544   9.243 -0.2786  1.4223 -1.5733
54211SOL     OW72946   3.448   9.645  12.082 -0.1569  0.5581  0.6216
54211SOL    HW172947   3.359   9.612  12.083 -0.1019  0.3822  0.0679
54211SOL    HW272948   3.502   9.570  12.106 -0.1535  0.6509  0.9034
54212SOL     OW72949   4.650   9.223   5.590  0.0603 -0.1655 -0.1664
54212SOL    HW172950   4.644   9.311   5.627 -0.3267 -0.9002  1.6326
54212SOL    HW272951   4.671   9.168   5.665 -1.3436 -1.8355 -0.9506
54213SOL     OW72952  12.652  12.407   2.589 -0.0722 -0.0074  0.1559
54213SOL    HW172953  12.684  12.347   2.656 -1.0358 -3.5531 -2.3042
54213SOL    HW272954  12.567  12.371   2.563  0.3295  1.0372 -3.0783
54214SOL     OW72955  10.474   3.526   8.455  0.4951  0.1360 -0.0810
54214SOL    HW172956  10.412   3.547   8.385 -0.3653  1.3585  0.9998
54214SOL    HW272957  10.505   3.611   8.486  1.7762 -0.4289  0.2311
54215SOL     OW72958   9.182   4.453   4.793 -0.2621 -0.0685  0.0296
54215SOL    HW172959   9.107   4.512   4.780  0.7766  1.2317 -0.3553
54215SOL    HW272960   9.153   4.392   4.861 -1.1351  1.3760  1.0328
54216SOL     OW72961  12.202   7.658   7.402 -0.4407  0.2621 -0.4801
54216SOL    HW172962  12.114   7.694   7.390 -0.4657  0.4476  0.1917
54216SOL    HW272963  12.229   7.632   7.314 -1.1154  0.3204 -0.7168
54217SOL     OW72964  10.848   3.378   4.117  0.0201  0.9675  0.0409
54217SOL    HW172965  10.874   3.414   4.032  0.8818  2.3355  0.8429
54217SOL    HW272966  10.931   3.359   4.161 -0.4012 -1.6757 -0.1661
54218SOL     OW72967   0.667   9.947   9.317 -0.2336  0.1591  0.7294
54218SOL    HW172968   0.572   9.950   9.305 -0.0501  1.2737 -0.6823
54218SOL    HW272969   0.688   9.855   9.328 -1.3028 -0.2673 -0.5928
54219SOL     OW72970  10.388  11.016   2.179 -0.3208  0.1084 -0.4896
54219SOL    HW172971  10.304  11.026   2.222 -0.8674 -2.5430 -0.7468
54219SOL    HW272972  10.452  11.043   2.244 -1.2864 -0.3170  0.6726
54220SOL     OW72973   1.634   2.997   6.933 -0.4788  0.4639  0.0152
54220SOL    HW172974   1.603   2.908   6.913  0.7802 -0.0020  0.0342
54220SOL    HW272975   1.599   3.015   7.020 -1.2715  0.2472 -0.2475
54221SOL     OW72976  11.163  12.894   6.760 -0.0072 -0.1978  0.4403
54221SOL    HW172977  11.105  12.969   6.740  0.3039  0.2189  1.0803
54221SOL    HW272978  11.103  12.821   6.774 -0.3031 -0.1467 -0.4915
54222SOL     OW72979   1.393  12.714   0.449 -0.2973  0.1090  0.0641
54222SOL    HW172980   1.337  12.774   0.499 -0.5869  0.7649 -1.0156
54222SOL    HW272981   1.366  12.725   0.358  1.1310 -0.0455 -0.4167
54223SOL     OW72982   4.810  12.496   8.696 -0.2036  0.0263  0.4683
54223SOL    HW172983   4.764  12.412   8.691  2.5123 -1.5426 -0.4572
54223SOL    HW272984   4.800  12.534   8.609  0.3849 -0.4303  0.1910
54224SOL     OW72985   0.038   4.509   4.683  0.1901  0.1144  0.3308
54224SOL    HW172986   0.061   4.445   4.614 -1.0958 -1.6306  1.4376
54224SOL    HW272987  -0.057   4.507   4.686  0.1575  1.5970  0.8994
54225SOL     OW72988   2.461  12.119   1.528  0.0215  0.2935 -0.4633
54225SOL    HW172989   2.550  12.154   1.528  0.3530 -0.4423  1.3059
54225SOL    HW272990   2.419  12.161   1.603 -1.5244  1.5004 -1.9299
54226SOL     OW72991   9.033   4.116   4.695  0.5221 -0.0819 -0.1705
54226SOL    HW172992   9.125   4.142   4.689  0.5277 -0.1009 -0.1708
54226SOL    HW272993   9.019   4.061   4.618 -0.1691  2.0101 -1.6296
54227SOL     OW72994   4.085   7.415   6.200 -0.0628  0.1276 -0.4296
54227SOL    HW172995   4.062   7.503   6.228 -0.9581  0.0317 -0.8096
54227SOL    HW272996   4.165   7.394   6.248 -0.7309  0.5263  0.8927
54228SOL     OW72997  11.475   9.880   7.832  0.0655 -0.2308 -0.0488
54228SOL    HW172998  11.443   9.868   7.922 -1.3556  2.4436 -0.0832
54228SOL    HW272999  11.570   9.876   7.840  0.0270  1.1027  1.8454
54229SOL     OW73000  10.970  10.401  10.309 -0.0174 -0.1002 -0.1911
54229SOL    HW173001  11.061  10.402  10.340 -0.0771 -1.7275  0.1434
54229SOL    HW273002  10.954  10.309  10.286 -0.8584  0.5513 -2.4640
54230SOL     OW73003   3.436   5.262   2.715 -0.1550 -0.2240 -0.0409
54230SOL    HW173004   3.354   5.214   2.722 -1.1148  1.4136  0.5338
54230SOL    HW273005   3.493   5.206   2.662 -2.3425 -0.5139 -2.2610
54231SOL     OW73006   8.041   3.466   5.143 -0.4341  0.9782 -0.1978
54231SOL    HW173007   7.952   3.493   5.119 -0.5202  0.8340 -0.0398
54231SOL    HW273008   8.043   3.372   5.124 -0.0366  1.1456 -1.0504
54232SOL     OW73009  11.972   9.762   0.708  0.3558  0.1176 -0.2409
54232SOL    HW173010  11.913   9.806   0.647 -2.0583 -0.6728  1.3292
54232SOL    HW273011  11.913   9.719   0.770  2.5879 -2.3579  0.3682
54233SOL     OW73012   2.356   3.220  10.468 -0.3342 -0.4835 -0.0769
54233SOL    HW173013   2.352   3.259  10.380 -3.1597  1.0703  0.5993
54233SOL    HW273014   2.431   3.262  10.509 -0.8644  1.2214 -0.7487
54234SOL     OW73015   7.874   9.370   8.749 -0.1161 -0.4152 -0.7433
54234SOL    HW173016   7.788   9.349   8.711 -0.0275 -0.3118 -1.0002
54234SOL    HW273017   7.916   9.426   8.684 -0.2773  0.4180 -0.1383
54235SOL     OW73018   2.673   3.337   4.437  0.2788  0.6215 -0.7132
54235SOL    HW173019   2.683   3.432   4.448 -2.1416  0.9849 -1.0541
54235SOL    HW273020   2.581   3.325   4.413  0.9738 -1.6647 -2.6021
54236SOL     OW73021  12.175   6.948   2.638 -0.0670 -0.2503 -0.2781
54236SOL    HW173022  12.266   6.966   2.664 -0.5950 -0.2513  1.7309
54236SOL    HW273023  12.174   6.855   2.617  0.5593 -0.0828 -1.0920
54237SOL     OW73024   4.570   1.826   6.482  0.3015 -0.7862  0.1736
54237SOL    HW173025   4.637   1.767   6.447  1.4728  0.3219  0.4598
54237SOL    HW273026   4.515   1.770   6.537 -0.2938 -2.1316 -1.7074
54238SOL     OW73027   4.543   3.219   9.693 -0.5329 -0.1112 -0.2562
54238SOL    HW173028   4.520   3.271   9.616 -1.4876 -0.9525 -0.5592
54238SOL    HW273029   4.635   3.241   9.710 -0.5697  0.7553 -1.0865
54239SOL     OW73030  12.216   8.036   0.415 -0.4959 -0.3550  0.2833
54239SOL    HW173031  12.130   8.063   0.381 -1.6297 -1.7376  1.9059
54239SOL    HW273032  12.254   7.985   0.344 -0.9858  0.2965 -0.4701
54240SOL     OW73033  12.851  12.497   6.595  0.1151 -0.8062  0.1211
54240SOL    HW173034  12.829  12.440   6.521 -0.3083 -0.8698  0.2955
54240SOL    HW273035  12.887  12.438   6.661 -0.9316 -0.9808  0.5578
54241SOL     OW73036   0.088   5.526   6.793 -0.2475 -0.1857  0.4547
54241SOL    HW173037   0.046   5.586   6.854 -0.3100  2.5608 -2.0665
54241SOL    HW273038   0.033   5.448   6.794 -1.6551  0.7641  1.9961
54242SOL     OW73039   7.696  12.857   6.278  0.8789 -0.2238 -0.1904
54242SOL    HW173040   7.757  12.805   6.330  1.1806  1.4809  1.2218
54242SOL    HW273041   7.630  12.794   6.249  0.5634 -1.2332  2.4434
54243SOL     OW73042   7.821  11.366  10.246  0.1958 -0.0476  0.5089
54243SOL    HW173043   7.885  11.301  10.217  0.7523  0.2176  1.1141
54243SOL    HW273044   7.846  11.446  10.202 -0.5396 -0.2405 -0.2987
54244SOL     OW73045  10.691   0.274   6.255  0.4733 -0.4622 -0.2972
54244SOL    HW173046  10.765   0.245   6.308 -0.4186 -2.4143 -0.0269
54244SOL    HW273047  10.728   0.339   6.195  2.3493 -1.1811  0.0194
54245SOL     OW73048   5.306   6.832  12.684  0.4122  0.0987 -0.2745
54245SOL    HW173049   5.250   6.768  12.727 -1.3042  2.1370  0.7254
54245SOL    HW273050   5.348   6.880  12.756  1.9036 -0.0401 -0.9969
54246SOL     OW73051   4.215   0.307  10.212  0.0617 -0.1133  0.1165
54246SOL    HW173052   4.206   0.248  10.287 -0.5555 -0.0545  0.0931
54246SOL    HW273053   4.137   0.362  10.215  0.1207  0.0102 -0.4624
54247SOL     OW73054   9.737   1.007   6.429 -0.5666  0.0703 -0.2746
54247SOL    HW173055   9.705   1.055   6.353 -0.5002  1.9492  0.8027
54247SOL    HW273056   9.673   0.937   6.443 -1.8609  1.1298 -0.6984
54248SOL     OW73057   0.789  10.994  10.160 -0.0115  0.1484  0.2845
54248SOL    HW173058   0.721  10.927  10.169  0.9652 -1.1302 -1.3389
54248SOL    HW273059   0.847  10.979  10.234  0.0515 -0.6493  0.0849
54249SOL     OW73060   2.887   0.119   6.390  0.0185 -0.2381 -0.1306
54249SOL    HW173061   2.801   0.107   6.349  0.1316 -0.8491 -0.2071
54249SOL    HW273062   2.949   0.110   6.317  0.3108 -2.7674  0.3372
54250SOL     OW73063  10.195   1.811   7.171  0.3902  0.2233  0.2182
54250SOL    HW173064  10.177   1.859   7.252  2.2432  0.3078  0.6207
54250SOL    HW273065  10.113   1.764   7.152 -1.1073  2.5705  0.4432
54251SOL     OW73066   1.973   2.607   5.464  0.1614 -0.4597  0.3312
54251SOL    HW173067   2.017   2.618   5.549  1.1516  1.2256 -0.3549
54251SOL    HW273068   1.923   2.687   5.453  0.2777 -0.5314 -0.8068
54252SOL     OW73069  12.114   6.342   0.477  0.0468 -0.3588  0.5390
54252SOL    HW173070  12.180   6.304   0.535  1.4976 -1.8292 -1.8986
54252SOL    HW273071  12.148   6.428   0.454  0.2932 -0.4490  0.5673
54253SOL     OW73072   7.082   3.911   1.702 -0.4944 -0.0823 -0.1579
54253SOL    HW173073   7.045   3.931   1.788 -2.9625 -3.3357 -0.2373
54253SOL    HW273074   7.052   3.982   1.645 -2.3095  0.0634  0.9008
54254SOL     OW73075   6.484   9.347   7.042  0.3207  0.4719 -0.0793
54254SOL    HW173076   6.445   9.264   7.013  0.6369  0.7095 -1.2508
54254SOL    HW273077   6.475   9.346   7.137 -0.2207 -0.6358 -0.1251
54255SOL     OW73078   9.847  10.004   1.520  0.1121 -0.3072 -0.0819
54255SOL    HW173079   9.789  10.069   1.558 -0.4376 -0.5027 -0.5791
54255SOL    HW273080   9.796   9.923   1.520  0.1128 -0.3243 -1.1915
54256SOL     OW73081   3.225   3.555  12.010 -0.1127 -0.5605 -0.0852
54256SOL    HW173082   3.273   3.541  11.929 -0.1211  0.8248 -0.3518
54256SOL    HW273083   3.276   3.620  12.058 -2.3940  2.2419 -1.0998
54257SOL     OW73084   3.081   4.733   5.959  0.3751  0.1230  0.6224
54257SOL    HW173085   3.121   4.651   5.986 -0.6924 -0.8996 -0.7580
54257SOL    HW273086   3.153   4.784   5.921  0.6220 -1.2195 -0.7947
54258SOL     OW73087   4.494  12.609   1.804  0.1997 -0.9993  0.5033
54258SOL    HW173088   4.438  12.638   1.876  1.3383  0.2591  0.9304
54258SOL    HW273089   4.552  12.683   1.788  2.8091 -2.7684  1.1576
54259SOL     OW73090   2.672   4.683  12.498 -0.2222 -0.1185  0.1575
54259SOL    HW173091   2.675   4.597  12.541 -2.8261 -0.7197 -0.7203
54259SOL    HW273092   2.657   4.745  12.569 -0.6733 -0.6636  0.5417
54260SOL     OW73093   1.760   9.856   8.932  0.1031  0.1517 -0.4392
54260SOL    HW173094   1.753   9.773   8.979  0.6054  1.3303  1.8486
54260SOL    HW273095   1.684   9.856   8.873 -0.9243 -1.1480  0.8058
54261SOL     OW73096   5.658  10.852   1.982  0.2195 -0.3656  0.1195
54261SOL    HW173097   5.614  10.837   1.898 -0.0667  0.8606  0.0328
54261SOL    HW273098   5.616  10.930   2.018 -2.1507 -2.7537  3.1288
54262SOL     OW73099   3.489  11.859   8.564 -0.2845 -0.2522 -0.6001
54262SOL    HW173100   3.485  11.916   8.640 -1.5800  0.4799 -1.1832
54262SOL    HW273101   3.454  11.775   8.594 -0.2520 -0.1434 -0.2555
54263SOL     OW73102   8.192   2.409   6.874 -1.0133 -0.5051 -0.2773
54263SOL    HW173103   8.190   2.483   6.935 -0.3014 -0.0645 -0.7795
54263SOL    HW273104   8.100   2.385   6.863 -1.3378  0.9022 -0.8177
54264SOL     OW73105   4.030   7.169   8.364  0.0290  0.2633  0.4132
54264SOL    HW173106   4.001   7.248   8.318 -0.3750  0.5613  1.1578
54264SOL    HW273107   3.952   7.113   8.366  0.3180 -0.1698 -0.1257
54265SOL     OW73108   1.637   8.694   0.648  0.0258  0.2018  0.4303
54265SOL    HW173109   1.616   8.705   0.555  0.3876  2.0051  0.5293
54265SOL    HW273110   1.693   8.769   0.669  1.0993 -0.9348  1.7816
54266SOL     OW73111   2.131  10.394   3.062 -0.1005  0.2948 -0.1879
54266SOL    HW173112   2.098  10.468   3.010  0.6210  0.1539 -0.8661
54266SOL    HW273113   2.069  10.323   3.043 -0.0493  0.3505 -0.5706
54267SOL     OW73114   3.307   6.256   6.430  0.1393  0.4155  0.1393
54267SOL    HW173115   3.284   6.163   6.429  0.5907  0.2832  0.9697
54267SOL    HW273116   3.403   6.257   6.431  0.1551  0.9149 -0.9058
54268SOL     OW73117   1.112   1.102   3.082 -0.2904 -0.3471 -0.4880
54268SOL    HW173118   1.076   1.147   3.005 -1.8513 -0.4543  0.1430
54268SOL    HW273119   1.202   1.081   3.058 -1.3014 -2.1854 -3.0944
54269SOL     OW73120   6.943   5.972   3.210 -0.2389 -0.2281  0.1187
54269SOL    HW173121   6.970   5.978   3.301 -0.0434  1.0620 -0.0123
54269SOL    HW273122   6.847   5.974   3.213 -0.6358 -5.4293  0.6315
54270SOL     OW73123  11.498   6.119   9.891 -0.2687 -0.1968  0.0414
54270SOL    HW173124  11.481   6.112   9.797 -0.1080 -0.7116  0.0421
54270SOL    HW273125  11.572   6.059   9.905 -0.7676 -0.6865  0.6179
54271SOL     OW73126   3.903   9.199   1.726  0.4975  0.3293  0.6264
54271SOL    HW173127   3.882   9.291   1.744  0.8455  0.5196  0.1134
54271SOL    HW273128   3.979   9.181   1.782 -0.5041 -0.1149  1.8725
54272SOL     OW73129   8.511   9.946   7.582 -0.2461 -0.1128 -0.2652
54272SOL    HW173130   8.432   9.921   7.630 -0.9904  1.1917 -0.7431
54272SOL    HW273131   8.489   9.933   7.490  0.5480 -0.9075 -0.3616
54273SOL     OW73132  11.922   5.174  10.624 -0.0867 -0.3806 -0.3478
54273SOL    HW173133  12.008   5.144  10.594  0.6670  1.3286 -0.0028
54273SOL    HW273134  11.935   5.199  10.715 -0.1757  2.5689 -1.0452
54274SOL     OW73135   4.646   8.938   5.705 -0.3313 -0.1454  0.7870
54274SOL    HW173136   4.649   8.900   5.617 -1.4843  1.7069 -0.0945
54274SOL    HW273137   4.700   8.879   5.757  0.6523 -1.1294 -1.2109
54275SOL     OW73138   9.872  12.803  10.970 -0.5230 -0.4105 -0.9429
54275SOL    HW173139   9.925  12.809  10.890  1.0598  0.1275  0.0913
54275SOL    HW273140   9.824  12.721  10.960 -0.6000 -0.2116 -2.5792
54276SOL     OW73141   5.511  10.538   7.805 -0.4569 -0.2689  0.5973
54276SOL    HW173142   5.565  10.547   7.726  0.5505  0.0409  1.3034
54276SOL    HW273143   5.494  10.628   7.833  2.7615 -0.2701  3.0703
54277SOL     OW73144   3.097   4.487  11.315 -0.3411 -0.5377 -0.1325
54277SOL    HW173145   3.138   4.572  11.299 -0.3960 -0.4264  0.3082
54277SOL    HW273146   3.083   4.451  11.228  0.3337 -0.4050 -0.3028
54278SOL     OW73147   1.823   4.168   4.742 -0.0849 -0.0762  0.6778
54278SOL    HW173148   1.796   4.077   4.760 -2.4172  0.4065 -0.0148
54278SOL    HW273149   1.911   4.160   4.706 -0.8171 -2.2301 -0.8115
54279SOL     OW73150   7.461   1.239   7.185 -0.3828 -0.0986  0.0568
54279SOL    HW173151   7.465   1.333   7.169  0.4896 -0.1978 -0.3747
54279SOL    HW273152   7.472   1.230   7.279 -0.7063  0.2369  0.1307
54280SOL     OW73153   5.842   2.308   4.196  0.0496  0.8428  0.0826
54280SOL    HW173154   5.850   2.253   4.274  1.2837  2.5600  1.2446
54280SOL    HW273155   5.898   2.265   4.131  0.2179  0.2016  0.6351
54281SOL     OW73156   6.551   1.168   1.678 -0.2908 -0.1292 -0.3156
54281SOL    HW173157   6.588   1.125   1.601  1.2632  0.3648  0.1058
54281SOL    HW273158   6.627   1.183   1.735 -1.0302  1.6812  0.2596
54282SOL     OW73159  10.010   7.749   0.127  0.3018  0.4421  0.0129
54282SOL    HW173160  10.085   7.715   0.175 -0.2919 -0.9593  0.0024
54282SOL    HW273161   9.934   7.711   0.171 -0.2775 -0.6237 -1.8105
54283SOL     OW73162  12.912   0.830  11.555 -0.2215  0.2062 -0.1877
54283SOL    HW173163  12.847   0.791  11.498 -2.0316  1.9202  0.5765
54283SOL    HW273164  12.899   0.925  11.547  2.8256  0.7108 -0.6858
54284SOL     OW73165   5.040  12.894  12.222 -0.0492  0.5172  1.0718
54284SOL    HW173166   5.009  12.964  12.166  1.4531 -0.8264 -1.6528
54284SOL    HW273167   5.134  12.909  12.230 -0.3336  1.3779  4.4769
54285SOL     OW73168  12.337   9.399   1.894 -0.0764 -0.6031 -0.1312
54285SOL    HW173169  12.375   9.382   1.808 -0.5214  2.2855 -1.0057
54285SOL    HW273170  12.410   9.431   1.947 -0.1887 -0.4786 -0.0502
54286SOL     OW73171   8.482   4.743   0.047  0.0373  0.2551  0.0352
54286SOL    HW173172   8.402   4.691   0.034 -0.6709  0.9462  1.4248
54286SOL    HW273173   8.514   4.717   0.133  1.8865 -0.6899 -0.8668
54287SOL     OW73174   5.850   5.261   5.259 -0.0227 -0.1168  0.1206
54287SOL    HW173175   5.791   5.240   5.187 -0.6066  0.0536  0.5431
54287SOL    HW273176   5.794   5.298   5.327  0.5865  0.1629  0.4852
54288SOL     OW73177   3.967  10.622   4.500 -0.1975 -0.0648 -0.6040
54288SOL    HW173178   4.021  10.619   4.580  0.1015 -3.4407 -0.8081
54288SOL    HW273179   3.911  10.699   4.513  0.8533  0.3716  2.1876
54289SOL     OW73180   3.508  10.890   6.554 -0.2964  0.0120  0.2315
54289SOL    HW173181   3.510  10.894   6.458  0.6316 -0.2045  0.2264
54289SOL    HW273182   3.515  10.981   6.582  2.4520 -0.0440  0.0687
54290SOL     OW73183   6.864   4.655   4.618 -0.0343 -0.0185 -0.1003
54290SOL    HW173184   6.797   4.662   4.686 -1.4931 -0.0885 -1.4863
54290SOL    HW273185   6.926   4.590   4.652  1.1857  2.3312  2.6733
54291SOL     OW73186   0.742  12.951   1.625  0.5941 -0.1100  0.1794
54291SOL    HW173187   0.794  13.003   1.564 -0.5237  1.2589  0.3599
54291SOL    HW273188   0.803  12.929   1.696  1.2375  0.4451 -0.1959
54292SOL     OW73189   3.246  11.428  10.819 -0.1670  0.1935 -0.3326
54292SOL    HW173190   3.180  11.412  10.885  1.1130 -0.5982  0.8209
54292SOL    HW273191   3.323  11.459  10.868  1.1027 -1.2628 -1.2851
54293SOL     OW73192  11.629   6.906  12.681  0.0729 -0.1737  0.2587
54293SOL    HW173193  11.686   6.906  12.759  0.2803  1.3727  0.1494
54293SOL    HW273194  11.545   6.938  12.714 -0.4407 -1.4165  0.2052
54294SOL     OW73195   4.620  11.743   8.409 -0.2530 -0.3981 -0.2003
54294SOL    HW173196   4.636  11.785   8.493  0.3883  0.9239 -0.9612
54294SOL    HW273197   4.582  11.658   8.432  1.9517 -1.0226  1.4915
54295SOL     OW73198  10.219   1.114   2.757  0.1744 -0.0483  0.4131
54295SOL    HW173199  10.207   1.131   2.850  1.1315  0.9052  0.3798
54295SOL    HW273200  10.270   1.033   2.754  1.4516  0.7073  0.7906
54296SOL     OW73201   4.873   5.884   4.204  0.2506 -0.1177 -0.0567
54296SOL    HW173202   4.900   5.797   4.234  0.1713 -0.0922  0.0919
54296SOL    HW273203   4.891   5.941   4.278 -0.9024 -0.2262  0.3262
54297SOL     OW73204   3.827   7.459   1.200 -0.0974 -0.6448 -0.8154
54297SOL    HW173205   3.922   7.451   1.211 -0.2604 -1.5798  0.0700
54297SOL    HW273206   3.790   7.394   1.261 -1.3228  0.1938 -0.6302
54298SOL     OW73207   3.262  10.871  11.053 -0.0056 -0.0983  0.0910
54298SOL    HW173208   3.227  10.861  10.964 -0.2538  0.3034  0.1414
54298SOL    HW273209   3.279  10.781  11.083  2.1320 -0.1947 -1.1660
54299SOL     OW73210   3.588   2.576   4.638 -0.6628 -0.1877  0.1412
54299SOL    HW173211   3.627   2.607   4.719  1.6304  0.0258 -0.9714
54299SOL    HW273212   3.614   2.484   4.631 -2.7220 -0.8679  0.6759
54300SOL     OW73213  10.337   8.079  10.969 -0.0979  0.0604 -0.5106
54300SOL    HW173214  10.271   8.127  10.918 -0.7638  1.0515  1.2162
54300SOL    HW273215  10.323   8.108  11.059  2.3461 -0.1374 -0.0203
54301SOL     OW73216   0.939  10.792   0.009 -0.0560  0.1521  0.0367
54301SOL    HW173217   0.933  10.774   0.103 -0.1425  2.1795  0.4656
54301SOL    HW273218   0.944  10.705  -0.032 -1.1007 -0.8092  1.8223
54302SOL     OW73219   3.305   3.703   2.771  0.5434  0.2193  0.1422
54302SOL    HW173220   3.374   3.674   2.712  0.9567 -0.2362  0.8314
54302SOL    HW273221   3.344   3.696   2.859 -0.5813 -0.7059  0.5963
54303SOL     OW73222   0.672  11.369   9.260  0.1118  0.1765  0.1041
54303SOL    HW173223   0.586  11.411   9.262  0.4391  0.8993 -0.6349
54303SOL    HW273224   0.653  11.278   9.237 -0.4347  0.4236 -0.4572
54304SOL     OW73225  11.738   9.840   8.130  0.0103  0.0412 -0.3297
54304SOL    HW173226  11.784   9.921   8.107 -0.4484  0.3771 -0.0699
54304SOL    HW273227  11.646   9.866   8.136 -0.2938 -0.7326 -1.3648
54305SOL     OW73228   4.086   6.511   3.331 -0.0466 -0.1623  0.7502
54305SOL    HW173229   4.107   6.542   3.419  0.7294 -1.6587  1.1151
54305SOL    HW273230   4.021   6.574   3.299 -0.7687  0.0984  2.5908
54306SOL     OW73231   5.090   7.752   7.475  0.1350 -0.3762 -0.3855
54306SOL    HW173232   5.072   7.714   7.560 -0.6037 -0.8901 -0.7610
54306SOL    HW273233   5.143   7.686   7.430 -0.6784 -0.7361 -0.8344
54307SOL     OW73234   3.360  11.916   0.394 -0.0955 -0.3134  0.5205
54307SOL    HW173235   3.332  11.845   0.336 -1.4245  1.8046 -1.5719
54307SOL    HW273236   3.446  11.942   0.361 -0.3368  0.1339  0.2477
54308SOL     OW73237  11.862   9.773  12.721 -0.3716 -0.0016 -1.0387
54308SOL    HW173238  11.787   9.804  12.669  0.1839 -0.8213 -2.3950
54308SOL    HW273239  11.931   9.759  12.656  0.7682  0.1519  0.1145
54309SOL     OW73240   8.302  12.350   0.675  0.0247  0.2063 -0.6779
54309SOL    HW173241   8.390  12.386   0.666  0.9751 -2.2854 -2.3961
54309SOL    HW273242   8.257  12.374   0.593 -0.2690 -0.0889 -0.6069
54310SOL     OW73243  12.964   7.284  10.749 -0.0913  0.4348 -0.2501
54310SOL    HW173244  12.996   7.353  10.807  1.5378  0.2693 -0.9044
54310SOL    HW273245  12.915   7.226  10.807  0.8149  0.6913  0.8290
54311SOL     OW73246   2.164   0.876   4.091 -0.4313 -0.9576  0.2195
54311SOL    HW173247   2.167   0.828   4.173  0.4336  0.4697  1.0577
54311SOL    HW273248   2.103   0.947   4.106  1.4212  0.6781  0.4701
54312SOL     OW73249   6.632  10.318   3.196 -0.1744  0.1918  0.3344
54312SOL    HW173250   6.634  10.310   3.100  0.2707  0.3282  0.3301
54312SOL    HW273251   6.549  10.363   3.214 -0.5304 -0.3484  0.0523
54313SOL     OW73252  10.751  12.577  10.611  0.2742  0.1865 -0.1704
54313SOL    HW173253  10.832  12.611  10.650  0.4982 -0.6137  0.0999
54313SOL    HW273254  10.781  12.506  10.553 -0.0932  1.0558 -1.4589
54314SOL     OW73255   1.073  11.239   5.561 -0.7360 -0.4303  0.0401
54314SOL    HW173256   1.095  11.174   5.494 -0.3739  0.4572 -0.7293
54314SOL    HW273257   1.117  11.319   5.532  0.3454 -0.2972  1.9231
54315SOL     OW73258   8.950   9.949   6.196 -0.2823  0.4798  0.5952
54315SOL    HW173259   8.897   9.870   6.199  0.6303 -0.1186  1.9964
54315SOL    HW273260   8.888  10.021   6.206 -0.8840 -0.1811  1.7289
54316SOL     OW73261   3.509  11.728   5.297  0.1954 -0.6618  0.3154
54316SOL    HW173262   3.529  11.771   5.215  1.9021 -1.1170  0.4608
54316SOL    HW273263   3.422  11.688   5.283  0.2394 -0.3152 -1.0672
54317SOL     OW73264  10.013  12.345   8.770  0.4504  0.0082  0.1808
54317SOL    HW173265  10.051  12.322   8.854  0.5358  1.7371  0.6623
54317SOL    HW273266   9.922  12.318   8.775  0.0495  1.4572  1.4594
54318SOL     OW73267   0.392   2.950  10.299  0.5759 -0.1315 -0.1693
54318SOL    HW173268   0.421   2.921  10.212  2.4296 -1.0400  0.6900
54318SOL    HW273269   0.454   2.909  10.360 -0.1707  1.1446  1.5366
54319SOL     OW73270   5.098   3.152  10.071 -0.5012  0.3739 -0.5485
54319SOL    HW173271   5.016   3.182  10.109 -0.0022 -0.9197  1.7526
54319SOL    HW273272   5.160   3.153  10.144  1.5067  1.1044 -2.1707
54320SOL     OW73273   8.771  12.931   3.103 -0.4793  0.3622 -0.0142
54320SOL    HW173274   8.706  12.867   3.075 -0.0604 -0.2113  0.2966
54320SOL    HW273275   8.747  12.952   3.193 -0.0782 -0.0733  0.2024
54321SOL     OW73276  12.854  11.422   0.466  0.2340  0.3653 -0.4905
54321SOL    HW173277  12.856  11.517   0.455  0.8136  0.1724 -2.6076
54321SOL    HW273278  12.938  11.393   0.430  0.2996 -0.9251  0.6355
54322SOL     OW73279   0.020   6.106  10.590 -0.5832 -0.4132 -0.2621
54322SOL    HW173280  -0.017   6.194  10.591 -0.5654 -0.3708  1.9957
54322SOL    HW273281  -0.047   6.053  10.548 -1.9668  0.1861  1.0647
54323SOL     OW73282   3.314   6.999  12.156  0.4097 -0.2832 -0.3761
54323SOL    HW173283   3.253   6.950  12.212  0.1688 -0.0814 -0.4554
54323SOL    HW273284   3.349   6.934  12.096  1.6527 -0.7637  0.8201
54324SOL     OW73285   7.272  12.279   5.818 -0.0603 -0.0029 -0.6231
54324SOL    HW173286   7.339  12.295   5.751 -2.2737  1.7841 -2.6184
54324SOL    HW273287   7.247  12.366   5.848 -0.9268 -0.6731  0.6925
54325SOL     OW73288   3.257   8.250   4.084  0.3235 -0.3544 -0.2693
54325SOL    HW173289   3.246   8.278   3.993 -2.8622 -1.2681 -0.2708
54325SOL    HW273290   3.335   8.195   4.082 -0.9615 -2.3407 -3.0205
54326SOL     OW73291   3.761   8.918   2.550  0.2794  0.0182 -0.3446
54326SOL    HW173292   3.789   8.835   2.511  1.7161 -0.5751  1.8090
54326SOL    HW273293   3.821   8.932   2.623 -0.5711  2.4675 -0.0274
54327SOL     OW73294   2.303   6.813  12.894  0.0214 -0.1263  0.3143
54327SOL    HW173295   2.250   6.773  12.963 -0.4223 -0.4336 -0.1927
54327SOL    HW273296   2.238   6.845  12.831  0.4575 -1.1660 -0.6779
54328SOL     OW73297   9.393   7.857   4.014  0.1932 -0.0131 -0.3177
54328SOL    HW173298   9.309   7.886   3.981 -0.8422 -2.7056 -0.2980
54328SOL    HW273299   9.424   7.793   3.949  0.4194 -1.7787  1.4132
54329SOL     OW73300   9.073   9.543  10.568 -0.8577  0.0504 -0.2804
54329SOL    HW173301   9.069   9.638  10.574  0.3926  0.1314 -0.4779
54329SOL    HW273302   9.113   9.515  10.650 -1.3386 -0.3237 -0.1655
54330SOL     OW73303   5.379   0.565   1.544 -0.5847  0.1224  0.1909
54330SOL    HW173304   5.289   0.598   1.534  0.0672  2.0444  0.2715
54330SOL    HW273305   5.429   0.613   1.479  0.4658 -0.6694  0.3928
54331SOL     OW73306  10.568   9.207  11.135 -0.1847 -0.0608 -0.6363
54331SOL    HW173307  10.576   9.149  11.059 -1.0911  0.9689 -1.5650
54331SOL    HW273308  10.474   9.226  11.140 -0.0452  0.4312  0.3312
54332SOL     OW73309  11.124   5.185   6.374 -0.0786  0.7797 -0.3085
54332SOL    HW173310  11.049   5.163   6.319  0.3176 -2.3303  0.2076
54332SOL    HW273311  11.102   5.151   6.461  1.3424  1.0579  0.2016
54333SOL     OW73312   6.200   9.746   4.404 -0.0448 -0.2870  0.1129
54333SOL    HW173313   6.275   9.706   4.360  0.2060 -0.2852  0.5339
54333SOL    HW273314   6.239   9.803   4.470 -0.4189 -0.7749  0.7693
54334SOL     OW73315  10.010   1.249  10.070  0.3552  0.5318 -0.5668
54334SOL    HW173316  10.001   1.315  10.139 -1.8293  0.9860 -1.1836
54334SOL    HW273317  10.007   1.300   9.989  1.5230 -0.1085 -1.0335
54335SOL     OW73318   5.635  12.180  10.143  0.4632 -0.0545  0.3534
54335SOL    HW173319   5.674  12.171  10.230  0.7030  0.9501  0.3598
54335SOL    HW273320   5.634  12.275  10.127  0.3453 -0.2268 -0.7031
54336SOL     OW73321   7.788  11.991   9.742 -0.0887  0.5197 -0.1455
54336SOL    HW173322   7.831  11.964   9.660  0.6240  0.0876  0.3612
54336SOL    HW273323   7.859  11.993   9.806 -0.5820  1.1938  0.3902
54337SOL     OW73324   5.967  12.080  11.940 -0.0887  0.2384  0.0826
54337SOL    HW173325   6.001  12.111  12.024 -1.8954 -0.7373  1.2239
54337SOL    HW273326   5.873  12.095  11.944 -0.1085  1.2191 -2.2703
54338SOL     OW73327   1.146   4.046   6.299 -0.2050  0.1978 -0.4849
54338SOL    HW173328   1.141   4.142   6.309  0.5783 -0.0035  3.1147
54338SOL    HW273329   1.240   4.028   6.296 -0.3324 -0.5059 -0.2403
54339SOL     OW73330  12.227   1.787   4.424  0.1928  0.1080  0.0039
54339SOL    HW173331  12.259   1.743   4.345  1.0131 -1.5234  1.1765
54339SOL    HW273332  12.304   1.796   4.480 -0.1990  2.0422  0.3024
54340SOL     OW73333   6.781  10.307  10.923 -0.5402  0.1503 -0.5306
54340SOL    HW173334   6.760  10.283  10.833 -0.6836  1.0685 -0.7500
54340SOL    HW273335   6.846  10.242  10.951 -1.5257 -0.9982 -0.8010
54341SOL     OW73336   6.234   3.035  12.955  0.3204  0.4914 -0.0405
54341SOL    HW173337   6.234   3.119  12.910  0.5329  0.7185  0.3775
54341SOL    HW273338   6.143   3.023  12.983 -0.3523 -0.7192 -2.4626
54342SOL     OW73339   8.029  10.219   8.262 -0.4338  0.0341  0.1967
54342SOL    HW173340   8.120  10.250   8.261 -0.4135 -0.0165  0.3914
54342SOL    HW273341   8.035  10.129   8.295 -0.3751 -0.5564 -1.3186
54343SOL     OW73342  10.371   3.893  12.916 -0.3958 -0.0766  0.2359
54343SOL    HW173343  10.403   3.884  13.006  0.0500 -1.3002 -0.0217
54343SOL    HW273344  10.378   3.805  12.879 -2.1124  0.0608 -0.5103
54344SOL     OW73345   9.345   7.882   1.484 -0.0315 -0.0083 -0.1063
54344SOL    HW173346   9.396   7.866   1.563 -2.2765 -1.3534  1.1979
54344SOL    HW273347   9.289   7.956   1.506 -2.1919 -1.7026  0.4687
54345SOL     OW73348   1.253   6.868  10.266 -0.8974  0.5181 -0.7284
54345SOL    HW173349   1.259   6.773  10.275  0.2849  0.6457  0.0177
54345SOL    HW273350   1.183   6.894  10.326  0.7313  0.3849  1.3334
54346SOL     OW73351   1.278   1.610   4.355 -0.0392 -0.1719 -0.3386
54346SOL    HW173352   1.329   1.599   4.435  1.0718 -0.3553 -1.0411
54346SOL    HW273353   1.214   1.678   4.376  0.2293 -0.2250  0.6950
54347SOL     OW73354   6.338   1.108  10.902  0.8326 -0.3246 -0.2463
54347SOL    HW173355   6.374   1.197  10.895  1.1172 -0.3293  0.9889
54347SOL    HW273356   6.414   1.052  10.916  0.4442 -0.3703  2.0788
54348SOL     OW73357  12.546   2.361   4.775  0.2741 -0.2752 -0.4376
54348SOL    HW173358  12.553   2.421   4.849 -2.1940 -0.6988  0.2173
54348SOL    HW273359  12.579   2.411   4.700  1.2758  0.7240  0.6303
54349SOL     OW73360  10.861   1.165   2.222  0.5371 -0.5691  0.6965
54349SOL    HW173361  10.767   1.153   2.207  0.5060 -0.0717  0.4949
54349SOL    HW273362  10.875   1.132   2.311 -0.2854  1.5911  1.7024
54350SOL     OW73363   2.154   7.971   3.092 -0.1184  0.2770  0.5360
54350SOL    HW173364   2.168   7.995   3.001 -2.8297  0.1563 -0.0046
54350SOL    HW273365   2.234   7.998   3.137  0.4376  2.3200 -1.4929
54351SOL     OW73366  11.515   0.701   6.465  0.4294  0.5080  0.0543
54351SOL    HW173367  11.467   0.756   6.528 -0.9714  0.4752 -0.9264
54351SOL    HW273368  11.583   0.758   6.431  0.5203  0.8674  0.8028
54352SOL     OW73369   0.588   6.393   0.871  0.6926 -0.4272 -0.4637
54352SOL    HW173370   0.510   6.425   0.918 -0.0628 -1.8862 -0.6819
54352SOL    HW273371   0.553   6.335   0.803  1.9373 -0.4295 -1.1266
54353SOL     OW73372   6.224   6.289  10.828  0.2516  0.0075 -0.3956
54353SOL    HW173373   6.280   6.215  10.852  0.4203  0.2974  0.1140
54353SOL    HW273374   6.285   6.355  10.795  0.2138  0.2960  0.0911
54354SOL     OW73375  12.745   9.178   2.495 -0.2737  0.0032 -0.0223
54354SOL    HW173376  12.720   9.109   2.434  0.1726 -1.0168  0.9068
54354SOL    HW273377  12.662   9.205   2.536 -0.3984 -0.3155 -0.0580
54355SOL     OW73378  11.892   5.257   3.239 -0.4628 -0.2213 -0.0183
54355SOL    HW173379  11.865   5.180   3.189 -1.6075  0.2663 -0.1802
54355SOL    HW273380  11.816   5.315   3.236  0.1972  0.6922  0.5455
54356SOL     OW73381   5.862   7.745   8.438  0.1381 -0.4322  0.2714
54356SOL    HW173382   5.835   7.784   8.521 -2.0849  0.8552 -0.9832
54356SOL    HW273383   5.934   7.800   8.408 -1.0149  0.9443 -0.0487
54357SOL     OW73384   8.321   2.659   2.234  0.6772 -0.8867 -0.2354
54357SOL    HW173385   8.229   2.633   2.230  0.2371  0.7093 -1.4904
54357SOL    HW273386   8.367   2.592   2.184  0.1406 -1.4274 -0.0194
54358SOL     OW73387  12.483   1.167   7.908  0.4616  0.3508 -0.3844
54358SOL    HW173388  12.520   1.080   7.925  0.0907  0.2317 -0.1816
54358SOL    HW273389  12.393   1.150   7.881  0.2854  0.6906 -0.0208
54359SOL     OW73390   1.321   5.195  10.880  0.1090  0.5049  0.2605
54359SOL    HW173391   1.276   5.129  10.826  0.4300 -0.0869  0.7101
54359SOL    HW273392   1.259   5.268  10.883 -1.7239 -0.9980  2.4356
54360SOL     OW73393   5.860   1.482   2.377 -0.1935 -0.5820 -0.1346
54360SOL    HW173394   5.929   1.480   2.443  0.9980  1.4889 -1.2163
54360SOL    HW273395   5.780   1.464   2.426  0.7632 -0.0281  1.7196
54361SOL     OW73396   0.889   0.572   3.879 -0.2083  0.0758 -0.2943
54361SOL    HW173397   0.887   0.623   3.798 -2.9476 -0.0514 -0.4128
54361SOL    HW273398   0.966   0.604   3.926  0.3315  1.5616 -2.0584
54362SOL     OW73399   1.250  10.948   9.297  0.1609 -0.1090  0.1906
54362SOL    HW173400   1.244  10.856   9.271  0.0793 -0.5888  1.8122
54362SOL    HW273401   1.159  10.977   9.305  0.1866  0.0673 -0.1216
54363SOL     OW73402   0.524   1.845   3.033  0.4000  0.6141  0.9723
54363SOL    HW173403   0.536   1.879   2.944  1.0477  0.8142  1.1298
54363SOL    HW273404   0.442   1.884   3.063  0.1373  0.4778  0.4271
54364SOL     OW73405   5.608   8.739   8.843 -0.0470 -0.4097 -0.1086
54364SOL    HW173406   5.563   8.767   8.922 -1.4317  0.5335 -1.1714
54364SOL    HW273407   5.675   8.806   8.829  0.0207 -0.4301  0.1220
54365SOL     OW73408   5.531   7.160   4.249  0.1957 -0.6904  0.0629
54365SOL    HW173409   5.568   7.246   4.232 -1.3613 -0.2055 -1.1628
54365SOL    HW273410   5.503   7.128   4.163 -2.0470 -1.0531  0.8600
54366SOL     OW73411   3.748   6.701   3.672  0.2939 -0.4356 -0.2164
54366SOL    HW173412   3.837   6.667   3.677  0.3005 -0.7663 -1.9369
54366SOL    HW273413   3.694   6.625   3.650 -0.0699  0.1615 -1.4848
54367SOL     OW73414  11.381   8.215   6.116 -0.0005 -0.1162  0.0242
54367SOL    HW173415  11.322   8.242   6.187 -1.6467  0.2329 -1.3902
54367SOL    HW273416  11.328   8.225   6.036  1.6582 -0.8295 -1.2279
54368SOL     OW73417  12.979   2.386  10.254  0.1583  0.3552 -0.3739
54368SOL    HW173418  12.916   2.314  10.258 -1.0350  1.3456 -0.7150
54368SOL    HW273419  13.065   2.343  10.257 -0.5133 -1.0930 -0.9490
54369SOL     OW73420   9.364   2.555  12.976  0.0787  0.1573 -0.0963
54369SOL    HW173421   9.270   2.549  12.963  0.1388 -0.9611 -0.1312
54369SOL    HW273422   9.384   2.649  12.970 -1.3570  0.7037  2.3852
54370SOL     OW73423   7.825   9.377   3.573 -0.5821 -0.5029 -0.1778
54370SOL    HW173424   7.875   9.349   3.496 -0.7263  1.9138 -1.2374
54370SOL    HW273425   7.759   9.309   3.585  1.1973 -2.3822 -0.3913
54371SOL     OW73426   9.510  10.560  12.846 -0.0583  0.4316  0.6856
54371SOL    HW173427   9.570  10.506  12.897  0.0881  1.4463  1.6199
54371SOL    HW273428   9.564  10.632  12.813 -0.5103  0.7128  0.5449
54372SOL     OW73429  10.002  12.271  10.204  0.7221  0.1707  0.0223
54372SOL    HW173430   9.998  12.364  10.183  1.6046  0.1712 -0.1805
54372SOL    HW273431  10.070  12.236  10.146  0.1384 -0.6759 -0.1750
54373SOL     OW73432   5.716   1.830  11.888 -0.5680 -0.0402  0.2875
54373SOL    HW173433   5.757   1.911  11.918  1.3659 -0.9706  0.3066
54373SOL    HW273434   5.622   1.846  11.896 -0.2078  1.5714  1.9567
54374SOL     OW73435   0.770  12.836   8.648  0.1984 -0.3719 -0.5401
54374SOL    HW173436   0.778  12.846   8.553  0.7097  0.3125 -0.4263
54374SOL    HW273437   0.725  12.752   8.659 -0.7959  0.0184 -1.4152
54375SOL     OW73438   6.625   3.114  12.735  0.3612 -0.6311 -0.2373
54375SOL    HW173439   6.700   3.108  12.793  0.6191 -1.1578 -0.6136
54375SOL    HW273440   6.580   3.030  12.746  0.9269 -1.1266 -1.4650
54376SOL     OW73441   1.874   4.514   1.926 -1.0452  0.5107 -0.9156
54376SOL    HW173442   1.854   4.433   1.879 -0.2067  0.0784 -0.5473
54376SOL    HW273443   1.794   4.567   1.918 -1.5543 -0.2974 -1.2700
54377SOL     OW73444   9.965   9.852   0.698  0.0845 -0.9944  0.0655
54377SOL    HW173445  10.014   9.925   0.735  0.1692 -0.4966 -0.9954
54377SOL    HW273446  10.019   9.822   0.624  0.1763 -2.2947  0.6227
54378SOL     OW73447   3.184  10.204   8.251  0.1943  0.0650  0.4692
54378SOL    HW173448   3.248  10.158   8.305 -0.3381  0.8471  1.8133
54378SOL    HW273449   3.102  10.159   8.267 -0.0328  0.5115  0.5861
54379SOL     OW73450   4.708   1.160   0.761 -0.1693  0.0726 -0.2580
54379SOL    HW173451   4.768   1.147   0.687  1.9613  3.2576  0.6678
54379SOL    HW273452   4.755   1.126   0.837 -0.6173  0.3452  0.1503
54380SOL     OW73453   0.097  10.008   2.951 -0.0724 -0.0586 -0.5391
54380SOL    HW173454   0.099   9.990   2.857  0.0197 -1.5793 -0.2701
54380SOL    HW273455   0.183  10.045   2.970 -0.1900  0.5251 -1.0905
54381SOL     OW73456   7.628   4.720   1.002 -0.1035 -0.4928  0.6525
54381SOL    HW173457   7.534   4.707   0.992  0.1273 -1.7870 -0.0300
54381SOL    HW273458   7.637   4.812   1.027 -1.5514 -0.3882  0.8515
54382SOL     OW73459   9.434   8.236   8.863  0.6051 -0.1527  0.1105
54382SOL    HW173460   9.432   8.147   8.896 -0.4205  0.2104  1.0660
54382SOL    HW273461   9.376   8.285   8.920  0.8727  1.0650 -0.6148
54383SOL     OW73462   9.200   8.882   0.458  0.3018 -0.2118 -0.0121
54383SOL    HW173463   9.127   8.841   0.413 -0.2950  0.6603  0.1319
54383SOL    HW273464   9.165   8.906   0.544  0.5690  0.7269 -0.1474
54384SOL     OW73465   9.153   8.562   1.112  0.3591 -0.1833  0.1418
54384SOL    HW173466   9.151   8.501   1.038 -1.8448  0.5054 -0.4123
54384SOL    HW273467   9.227   8.531   1.165  1.4560 -1.2299 -1.8538
54385SOL     OW73468   2.506   1.836   9.555  0.2503 -0.4950 -0.3896
54385SOL    HW173469   2.515   1.877   9.641 -0.5097 -2.3141  0.6022
54385SOL    HW273470   2.423   1.788   9.559  0.5572 -1.2260 -1.8782
54386SOL     OW73471   7.265   6.886   9.420  0.0330  0.3164 -0.6707
54386SOL    HW173472   7.349   6.872   9.465 -0.3177 -1.8431 -0.5966
54386SOL    HW273473   7.207   6.819   9.456 -1.7155  1.6601 -0.8401
54387SOL     OW73474  10.246   5.862   7.223 -0.1394 -0.3984  0.0546
54387SOL    HW173475  10.258   5.776   7.264  1.5619 -1.4205 -2.3857
54387SOL    HW273476  10.280   5.923   7.288 -1.3094 -1.5033  1.8189
54388SOL     OW73477  12.042   6.603   2.868  0.4358  0.0709 -0.1108
54388SOL    HW173478  12.081   6.625   2.784  3.4364  0.4736  1.2851
54388SOL    HW273479  11.951   6.631   2.860  0.8472  0.8721 -2.8925
54389SOL     OW73480  10.306   7.615   1.641 -0.4240  0.1279  0.9091
54389SOL    HW173481  10.246   7.545   1.617 -0.1093  0.0341  0.3731
54389SOL    HW273482  10.378   7.572   1.686 -0.6401  0.2099  1.3316
54390SOL     OW73483   0.849   7.263   3.515  0.6392 -0.1048 -0.4911
54390SOL    HW173484   0.798   7.211   3.576  0.0036 -1.0300 -1.7551
54390SOL    HW273485   0.796   7.341   3.500  0.0802 -0.5617 -0.9685
54391SOL     OW73486   3.640  11.070  12.837 -0.9985 -0.2379 -0.3382
54391SOL    HW173487   3.609  11.065  12.746 -1.1820  1.0110 -0.3672
54391SOL    HW273488   3.560  11.068  12.890 -1.1884  2.3402 -0.3853
54392SOL     OW73489   1.337   2.384   2.976 -0.0837  0.4810 -0.5834
54392SOL    HW173490   1.363   2.440   2.903 -0.2612  1.4156  0.0617
54392SOL    HW273491   1.410   2.390   3.038  0.9292 -1.7574 -1.4314
54393SOL     OW73492   4.658   2.832   1.931 -0.2735  0.4686  1.0242
54393SOL    HW173493   4.645   2.763   1.995 -1.2709 -0.2924  0.0305
54393SOL    HW273494   4.575   2.879   1.928 -1.1003 -0.9895 -1.3858
54394SOL     OW73495  10.499   9.041   0.584 -0.1067 -0.3312 -0.2257
54394SOL    HW173496  10.427   9.030   0.522 -0.2869 -1.5359  0.1658
54394SOL    HW273497  10.552   8.962   0.574 -0.4031 -0.7842  1.4739
54395SOL     OW73498   5.874  12.920   5.807 -0.0585  0.5837 -0.1317
54395SOL    HW173499   5.806  12.880   5.752  0.1240  0.3777 -0.2082
54395SOL    HW273500   5.955  12.904   5.759  0.4291 -1.7242  1.3320
54396SOL     OW73501   8.183   2.920   9.015 -0.2796 -0.5229  0.2617
54396SOL    HW173502   8.198   3.000   8.964 -1.1254 -0.0701  0.6944
54396SOL    HW273503   8.259   2.913   9.071  0.4556 -0.7816 -0.7392
54397SOL     OW73504  11.020   0.389   0.092 -0.0229  0.0611 -0.7378
54397SOL    HW173505  11.112   0.387   0.067 -0.0108  0.4391 -0.7309
54397SOL    HW273506  11.015   0.336   0.171  0.4025  1.0243 -0.0458
54398SOL     OW73507  11.280   9.675   9.079 -0.2707  0.2913  0.5762
54398SOL    HW173508  11.265   9.766   9.052 -0.7935  0.0452  0.0390
54398SOL    HW273509  11.342   9.683   9.152 -1.4444  1.1846  1.5143
54399SOL     OW73510   4.256   3.723   0.133 -0.0321 -0.0446 -0.5921
54399SOL    HW173511   4.212   3.762   0.057  1.2338 -0.0744 -1.3688
54399SOL    HW273512   4.185   3.704   0.194 -1.1237 -0.3075 -1.8886
54400SOL     OW73513  11.909   3.529   3.490  0.1377  0.2684  0.1400
54400SOL    HW173514  11.885   3.602   3.548  0.3646  2.0440 -1.8843
54400SOL    HW273515  12.003   3.517   3.505  0.0816  0.3023  0.5462
54401SOL     OW73516   9.490   6.915   5.054  0.3763  0.1763  0.4682
54401SOL    HW173517   9.510   6.946   5.142  0.2733  2.2481 -0.1832
54401SOL    HW273518   9.536   6.832   5.047  1.2482  0.4721  2.1120
54402SOL     OW73519   7.945   9.286   4.995  0.0294  0.9721  0.4933
54402SOL    HW173520   7.862   9.317   5.031  1.1324  2.0244  2.3210
54402SOL    HW273521   7.987   9.240   5.067  1.8513  2.1684  0.2801
54403SOL     OW73522  10.440   1.135   4.189  0.0208 -0.3148  0.0359
54403SOL    HW173523  10.509   1.200   4.188 -2.0888  2.0899 -0.2939
54403SOL    HW273524  10.482   1.055   4.219  2.7304  1.2111  0.6016
54404SOL     OW73525   9.416  12.517   2.594 -0.7530  0.1713  0.0266
54404SOL    HW173526   9.439  12.605   2.564  1.5811 -0.2377  0.4438
54404SOL    HW273527   9.443  12.460   2.522 -0.3562 -0.3451  0.5802
54405SOL     OW73528   8.154   6.054   6.546  0.3276 -1.0633  0.3289
54405SOL    HW173529   8.186   6.037   6.635  1.7827 -0.8753 -0.1276
54405SOL    HW273530   8.181   6.145   6.528  0.6962 -1.3400 -0.5584
54406SOL     OW73531  12.987   3.143   3.379 -0.0135  0.2662  0.0143
54406SOL    HW173532  12.999   3.116   3.288  0.4495  0.5370 -0.0045
54406SOL    HW273533  12.983   3.238   3.376  1.2620  0.3536  0.4162
54407SOL     OW73534  12.325  10.308   8.972 -0.3531 -0.0532  0.0937
54407SOL    HW173535  12.369  10.392   8.985  0.9660 -0.7185  0.0523
54407SOL    HW273536  12.236  10.332   8.943  0.5112  1.3334 -1.6243
54408SOL     OW73537   6.205  12.777   5.822 -0.0724  0.5745 -0.1825
54408SOL    HW173538   6.231  12.845   5.884 -4.4063  0.7953  1.7678
54408SOL    HW273539   6.215  12.817   5.736  1.4207  2.1069  0.6401
54409SOL     OW73540  10.344   7.470   0.073 -0.1898  0.0493 -0.5649
54409SOL    HW173541  10.310   7.382   0.063 -0.6305  0.0003  1.1548
54409SOL    HW273542  10.432   7.465   0.036  0.1911 -1.4033  0.4345
54410SOL     OW73543   8.625   3.565   4.277 -0.2385  0.0904  0.0267
54410SOL    HW173544   8.537   3.543   4.248 -0.2541 -1.5400  1.1647
54410SOL    HW273545   8.665   3.609   4.203 -1.5606 -0.3504 -0.9827
54411SOL     OW73546   9.561  12.888   9.831  1.0451 -0.1490  0.5475
54411SOL    HW173547   9.620  12.951   9.872  1.4980  0.4045 -0.8695
54411SOL    HW273548   9.619  12.816   9.804  1.3348  0.8465 -1.7580
54412SOL     OW73549   3.004   8.958   4.692  0.6522 -0.0076  0.4352
54412SOL    HW173550   3.018   8.913   4.775  0.7724 -1.0105 -0.1160
54412SOL    HW273551   3.072   8.924   4.634 -0.0254 -0.0628 -0.3583
54413SOL     OW73552   3.732   0.206   4.269  0.1311 -0.2403  0.3028
54413SOL    HW173553   3.672   0.241   4.203  1.2015 -0.2678 -0.7267
54413SOL    HW273554   3.675   0.166   4.335 -0.9886  0.3207 -0.2937
54414SOL     OW73555   4.246   6.396   0.820 -0.4131  0.7797 -0.2713
54414SOL    HW173556   4.170   6.448   0.793 -0.7282  1.1859  1.3244
54414SOL    HW273557   4.237   6.387   0.915 -0.9237 -3.0335 -0.5047
54415SOL     OW73558   7.114   6.560   2.351  0.3284  0.3833  0.6919
54415SOL    HW173559   7.087   6.469   2.341 -1.8405  0.9417  0.9736
54415SOL    HW273560   7.168   6.578   2.274  1.8206 -1.4341  1.2372
54416SOL     OW73561   6.655   6.015   5.291 -0.0752  0.0320 -0.0715
54416SOL    HW173562   6.614   5.980   5.212  1.6230 -1.9492 -0.1727
54416SOL    HW273563   6.617   5.964   5.362  0.4772 -0.2107  0.0598
54417SOL     OW73564   3.546   7.919  10.915  0.1823 -0.3313 -0.3420
54417SOL    HW173565   3.613   7.850  10.914 -0.1666 -0.7298  1.5540
54417SOL    HW273566   3.573   7.978  10.845  2.2867 -0.7173  0.0714
54418SOL     OW73567   4.571   0.189  11.270  0.5084 -0.1003  0.4079
54418SOL    HW173568   4.489   0.211  11.314 -0.1662  2.5046 -1.8799
54418SOL    HW273569   4.545   0.130  11.199  0.3069  1.6569 -1.0615
54419SOL     OW73570  10.371   9.256   0.714 -0.1780 -0.4310 -0.7256
54419SOL    HW173571  10.430   9.182   0.705  0.5923  0.1096 -0.1999
54419SOL    HW273572  10.297   9.222   0.765  0.2557 -0.7914 -0.3349
54420SOL     OW73573   3.989  12.762   9.753  0.3353  0.6263 -0.1553
54420SOL    HW173574   3.967  12.670   9.738 -0.7304  1.1234 -1.9330
54420SOL    HW273575   3.983  12.773   9.847  0.2784 -1.0742  0.0682
54421SOL     OW73576   3.053   0.719   1.879 -0.0162  0.5284 -0.3244
54421SOL    HW173577   3.074   0.682   1.794 -0.8349 -1.2355  0.1902
54421SOL    HW273578   3.025   0.644   1.932  2.3006  1.2352  2.1194
54422SOL     OW73579   5.223   1.065  12.120 -0.0497 -0.8781  0.5991
54422SOL    HW173580   5.128   1.052  12.116 -0.0821 -0.3462 -1.3702
54422SOL    HW273581   5.259   0.993  12.068  0.3723  0.6899 -1.4300
54423SOL     OW73582   1.763   0.761   1.050  0.3345  0.0931 -0.0188
54423SOL    HW173583   1.688   0.816   1.073  1.3564  0.8132  1.7923
54423SOL    HW273584   1.834   0.791   1.107  1.8612 -0.9471 -1.2629
54424SOL     OW73585   6.779  10.473   4.386  0.2838  0.5475 -0.0137
54424SOL    HW173586   6.734  10.512   4.311  0.7808  0.6776 -0.2509
54424SOL    HW273587   6.717  10.410   4.421  0.0794  0.4166 -0.5945
54425SOL     OW73588   1.811   4.300   1.763  0.8372  0.2196  0.0769
54425SOL    HW173589   1.736   4.243   1.780  0.3354  1.2144  1.3547
54425SOL    HW273590   1.789   4.346   1.682 -0.0703  0.6973  0.5797
54426SOL     OW73591   7.806   1.665  11.222  0.3794 -0.5933  0.4916
54426SOL    HW173592   7.876   1.731  11.218 -0.5744  0.4856  1.1174
54426SOL    HW273593   7.774   1.659  11.132  0.4200 -0.1362  0.4423
54427SOL     OW73594   5.943   1.600   6.663  0.5610 -0.0476  0.0405
54427SOL    HW173595   5.867   1.587   6.607 -0.0683  0.2804  0.7982
54427SOL    HW273596   6.004   1.652   6.610 -0.8430  1.9931  0.3123
54428SOL     OW73597   3.632   9.185  11.267 -0.4383  0.5607  0.1455
54428SOL    HW173598   3.704   9.196  11.328  0.5445 -0.0045 -0.8622
54428SOL    HW273599   3.663   9.226  11.186 -0.8680 -0.4742 -0.5622
54429SOL     OW73600   0.976   7.129   7.911  0.0396 -0.2353 -0.4983
54429SOL    HW173601   1.052   7.187   7.901 -0.3512  0.0477 -2.1004
54429SOL    HW273602   1.007   7.043   7.886 -0.2245 -0.0542 -1.5112
54430SOL     OW73603   7.912   0.692   9.522  0.1020  0.1537 -0.1497
54430SOL    HW173604   7.899   0.619   9.462 -1.6616 -0.7307  1.2152
54430SOL    HW273605   7.879   0.768   9.474  1.7076  0.0763 -1.4803
54431SOL     OW73606   9.214   1.071   9.239 -0.1406 -0.1127 -0.2734
54431SOL    HW173607   9.159   1.147   9.218  1.3156  1.0118 -0.2035
54431SOL    HW273608   9.226   1.026   9.156  0.1431  0.5623 -0.6102
54432SOL     OW73609   0.925   3.989  12.716 -0.1002 -0.7279 -0.1537
54432SOL    HW173610   0.979   3.921  12.676 -0.7637 -1.5136  0.2674
54432SOL    HW273611   0.835   3.964  12.695 -0.4573 -0.9955  1.5441
54433SOL     OW73612   3.636   7.931  12.425  0.3723  0.3538 -0.3013
54433SOL    HW173613   3.706   7.996  12.429  1.1253 -0.4556  0.0260
54433SOL    HW273614   3.681   7.847  12.417 -0.5867 -0.1124 -1.1112
54434SOL     OW73615   9.464  12.780   8.511  0.2956 -0.0249  0.4169
54434SOL    HW173616   9.514  12.762   8.591  1.7711 -0.1887 -0.4982
54434SOL    HW273617   9.519  12.841   8.462 -1.2956  1.3052  0.1932
54435SOL     OW73618   7.017  12.924   8.600 -0.0203 -0.0062 -0.4474
54435SOL    HW173619   7.101  12.967   8.616 -0.5016  1.7343 -2.1225
54435SOL    HW273620   7.033  12.866   8.526 -0.3096  0.4212 -0.8489
54436SOL     OW73621   6.490  12.247  12.200  0.1241  0.0134 -0.4567
54436SOL    HW173622   6.419  12.199  12.157  0.0758 -1.4188  1.1105
54436SOL    HW273623   6.449  12.295  12.271  0.6545 -0.6044  0.2885
54437SOL     OW73624   5.270   1.051   0.496  0.0548  0.1855  0.7366
54437SOL    HW173625   5.175   1.041   0.493  0.1620 -0.7180 -0.1475
54437SOL    HW273626   5.297   0.998   0.571  0.1050 -2.0629 -0.7705
54438SOL     OW73627   2.024   1.812   0.226 -0.6930 -0.2965 -0.1050
54438SOL    HW173628   1.933   1.780   0.227 -0.2604 -1.6902 -1.3895
54438SOL    HW273629   2.045   1.826   0.318 -2.1499 -0.1129  0.2328
54439SOL     OW73630   6.019   2.900  11.983 -0.1314 -0.3074 -0.3381
54439SOL    HW173631   5.933   2.932  12.011 -0.8580 -0.8729 -1.8479
54439SOL    HW273632   6.004   2.859  11.898  1.8095  0.4119 -1.0891
54440SOL     OW73633   5.696   6.344   1.339 -0.2010 -0.4711 -0.2353
54440SOL    HW173634   5.616   6.375   1.382 -0.5101 -1.4380 -0.0731
54440SOL    HW273635   5.675   6.344   1.246  0.2345  0.9737 -0.3507
54441SOL     OW73636  12.386   8.644   2.836 -0.2656  0.0713  0.0238
54441SOL    HW173637  12.469   8.677   2.801 -0.7594  0.4715 -0.8095
54441SOL    HW273638  12.411   8.569   2.890  0.7952  1.2359  1.2020
54442SOL     OW73639   3.750   2.122   1.801 -0.1763 -0.4571  0.1881
54442SOL    HW173640   3.831   2.130   1.750 -1.4060  0.1527 -1.7521
54442SOL    HW273641   3.777   2.075   1.880  2.7594  2.4474  1.1716
54443SOL     OW73642   3.950   1.667   3.671 -0.6774 -0.2011  0.0867
54443SOL    HW173643   3.910   1.611   3.604 -1.8755  0.7577 -0.0116
54443SOL    HW273644   4.019   1.612   3.709 -1.9732 -1.8417  0.1590
54444SOL     OW73645   3.815   0.329   2.524  0.3829 -0.1603 -0.0144
54444SOL    HW173646   3.774   0.262   2.579 -1.1151 -0.6436 -1.6359
54444SOL    HW273647   3.900   0.292   2.501  0.1483 -0.8921  0.2576
54445SOL     OW73648   0.909   7.216   7.503  0.1862  0.0238  0.3317
54445SOL    HW173649   0.918   7.192   7.595 -0.6246 -1.1161  0.1363
54445SOL    HW273650   0.825   7.262   7.498  0.7969  1.1650  0.3576
54446SOL     OW73651   6.922   9.642   1.317  0.0878  0.7969 -0.2571
54446SOL    HW173652   6.967   9.570   1.273 -1.7830 -0.3523 -0.4340
54446SOL    HW273653   6.850   9.665   1.258  0.5028  2.6648 -0.0796
54447SOL     OW73654   1.230   8.751   3.653  0.0670 -0.4790 -0.3308
54447SOL    HW173655   1.318   8.789   3.644 -0.2362 -0.1776 -2.7094
54447SOL    HW273656   1.185   8.776   3.572 -1.8520 -1.5942  0.3311
54448SOL     OW73657  11.564   7.793   1.812 -0.0605 -0.2685 -0.2352
54448SOL    HW173658  11.573   7.775   1.719 -3.3021 -0.4183 -0.6334
54448SOL    HW273659  11.544   7.709   1.851 -1.1671  0.1799  0.1889
54449SOL     OW73660   8.193   6.624   6.129 -0.0079  0.7324 -0.1008
54449SOL    HW173661   8.268   6.670   6.167 -0.4287  0.6363  0.8521
54449SOL    HW273662   8.144   6.692   6.082  0.3629  0.8984 -0.2528
54450SOL     OW73663  10.458   6.995   9.449 -0.2973 -0.2889  0.3037
54450SOL    HW173664  10.468   6.980   9.543  0.9172 -0.7670  0.1184
54450SOL    HW273665  10.531   7.053   9.427 -0.1782 -0.7172 -0.4559
54451SOL     OW73666  12.541   5.219  10.065 -0.4360  0.0048 -0.0727
54451SOL    HW173667  12.602   5.273  10.017 -1.0073 -0.8001 -1.7923
54451SOL    HW273668  12.592   5.182  10.137  1.0067 -0.3830 -1.2613
54452SOL     OW73669   2.752   0.972   5.483 -0.0469  0.0782 -0.4846
54452SOL    HW173670   2.821   0.996   5.544 -1.2504  0.4871  0.7546
54452SOL    HW273671   2.709   0.896   5.523 -1.4177  0.9024 -0.3394
54453SOL     OW73672   5.150  10.979   8.730 -0.3829 -0.3115 -0.1057
54453SOL    HW173673   5.129  10.942   8.644  0.2591 -1.0310  0.0390
54453SOL    HW273674   5.239  10.949   8.748  0.8506  2.6147 -0.7066
54454SOL     OW73675  11.952  10.528   5.606 -0.5561 -0.0494  0.5209
54454SOL    HW173676  11.978  10.591   5.672 -1.1202 -0.5729  1.2632
54454SOL    HW273677  12.005  10.450   5.625 -2.1045 -0.8960  1.6368
54455SOL     OW73678   4.057   6.536   4.127 -0.9371  0.1729  0.3099
54455SOL    HW173679   4.106   6.574   4.053  0.0214  0.0803  0.8800
54455SOL    HW273680   3.994   6.604   4.152 -0.9383  0.3944 -0.2825
54456SOL     OW73681   1.415   9.224  12.536 -0.1385  0.5354 -0.3109
54456SOL    HW173682   1.436   9.299  12.480  0.5657  0.1520 -0.5713
54456SOL    HW273683   1.476   9.156  12.508  0.8728  0.6173  1.5518
54457SOL     OW73684   3.320   7.982   3.570 -0.0639  0.0987  0.4219
54457SOL    HW173685   3.370   7.930   3.506  0.1318  0.8637 -0.0576
54457SOL    HW273686   3.340   7.941   3.654  2.0502  0.8659  0.3551
54458SOL     OW73687  12.530   1.384   6.409  0.2756 -0.2386  0.1789
54458SOL    HW173688  12.558   1.467   6.448 -1.5082  1.1008 -1.2063
54458SOL    HW273689  12.523   1.324   6.483  0.4981  1.1650  1.3864
54459SOL     OW73690   4.233  10.050   4.414  0.1725 -0.2162 -0.2250
54459SOL    HW173691   4.320  10.052   4.455  0.6725 -2.0443 -1.0872
54459SOL    HW273692   4.209  10.142   4.403  1.9567  0.3218  0.1187
54460SOL     OW73693   0.513  11.716   5.757  0.5700  0.2620  0.1203
54460SOL    HW173694   0.607  11.712   5.771  0.7439  1.1779 -0.6645
54460SOL    HW273695   0.475  11.710   5.844  1.4077  0.8976  0.5405
54461SOL     OW73696   5.617   0.699   4.056  0.0750  0.5996  0.0126
54461SOL    HW173697   5.524   0.693   4.079 -0.3302  1.1831 -1.3836
54461SOL    HW273698   5.651   0.768   4.113 -0.1453 -0.1793  1.1093
54462SOL     OW73699   4.695   5.646   5.978 -0.1154 -0.8241 -0.2684
54462SOL    HW173700   4.657   5.569   6.020  2.1161 -1.7063  0.2800
54462SOL    HW273701   4.672   5.719   6.036 -0.0216 -1.4958  0.6364
54463SOL     OW73702   6.268  11.030  10.781 -0.6788  0.3622 -0.6634
54463SOL    HW173703   6.228  10.943  10.792  1.0498 -0.3182  0.7711
54463SOL    HW273704   6.223  11.084  10.846  1.0004 -0.5593  1.3990
54464SOL     OW73705   7.270  10.997   2.633  0.1506 -0.6914 -0.7954
54464SOL    HW173706   7.192  10.943   2.641 -0.7020  0.6511  0.4056
54464SOL    HW273707   7.246  11.066   2.572  0.7631 -0.8249 -1.2071
54465SOL     OW73708   9.541   1.099   6.632 -0.1430  0.3202  0.8355
54465SOL    HW173709   9.633   1.108   6.608 -0.5178  0.0096 -0.8117
54465SOL    HW273710   9.536   1.138   6.720  1.5038  0.5201  0.8800
54466SOL     OW73711   6.570   8.627  12.070 -0.6064 -0.1900  0.4919
54466SOL    HW173712   6.477   8.619  12.091 -0.9442 -2.1291 -1.3684
54466SOL    HW273713   6.615   8.581  12.141 -1.0987  0.2292  1.0834
54467SOL     OW73714   9.181  11.082   5.629 -0.4369  0.1437 -0.2034
54467SOL    HW173715   9.216  11.098   5.541  1.1462 -1.9590 -0.0423
54467SOL    HW273716   9.206  10.992   5.648 -0.9011  0.4871  2.3527
54468SOL     OW73717   9.057   6.223  12.500 -0.2324 -0.3898 -0.1744
54468SOL    HW173718   8.964   6.201  12.506 -0.1565 -0.3225  1.9285
54468SOL    HW273719   9.063   6.312  12.533  0.6744 -0.7126  0.5872
54469SOL     OW73720  12.028   5.223  11.977  0.3347 -0.5273 -0.3092
54469SOL    HW173721  12.087   5.202  11.905  0.0402 -0.3299 -0.6192
54469SOL    HW273722  11.945   5.245  11.933  0.7539  1.7725 -0.0740
54470SOL     OW73723   2.468   8.585   3.971 -0.0595 -0.2206 -0.4184
54470SOL    HW173724   2.491   8.678   3.974  2.0206 -0.6851 -0.4103
54470SOL    HW273725   2.379   8.583   3.934 -2.0140  1.9891  3.5282
54471SOL     OW73726  10.366  10.238  10.039 -0.0884 -0.0891 -0.4214
54471SOL    HW173727  10.407  10.324  10.035  1.8490 -0.9622 -0.3782
54471SOL    HW273728  10.363  10.208   9.949 -0.9131  0.0771 -0.4555
54472SOL     OW73729   3.978  10.207   9.333  0.5431 -0.1635 -0.2544
54472SOL    HW173730   3.988  10.128   9.279  2.4869  0.4910 -0.9336
54472SOL    HW273731   3.973  10.279   9.270 -0.0622  0.3788  0.3865
54473SOL     OW73732   6.903   4.646   6.357 -0.3591  0.3940  0.5475
54473SOL    HW173733   6.940   4.623   6.271 -0.6095 -1.1601  0.8193
54473SOL    HW273734   6.913   4.741   6.363 -1.9298  0.8201 -1.9597
54474SOL     OW73735   4.427   9.255  11.988  0.7009 -0.4532 -0.0350
54474SOL    HW173736   4.424   9.171  11.941  1.0650 -0.5275  0.0718
54474SOL    HW273737   4.408   9.320  11.921 -1.2808 -0.7327  0.2026
54475SOL     OW73738   6.865   2.960   7.498  1.4419  0.0348  0.2981
54475SOL    HW173739   6.936   2.941   7.436  0.1530 -0.9003 -0.9698
54475SOL    HW273740   6.853   2.879   7.546 -0.4955 -0.7593 -1.3766
54476SOL     OW73741   1.552  11.778   9.514 -0.4093  0.0316  0.6424
54476SOL    HW173742   1.522  11.868   9.504 -1.2939 -0.2524  0.6704
54476SOL    HW273743   1.510  11.747   9.594 -0.6414 -0.6149  0.2818
54477SOL     OW73744   1.986   6.113   0.499 -0.1869 -0.0649 -0.1138
54477SOL    HW173745   1.996   6.149   0.588 -1.8642  0.7034 -0.1992
54477SOL    HW273746   2.075   6.112   0.464  0.4639 -0.0101  1.4290
54478SOL     OW73747   9.607   7.009   9.375  0.0710  0.4683  0.4128
54478SOL    HW173748   9.547   7.080   9.397 -1.4739 -0.9752  1.0379
54478SOL    HW273749   9.615   7.013   9.279  0.5093  1.8424  0.4863
54479SOL     OW73750  10.313   7.221   4.397 -0.4507 -0.1897  0.1424
54479SOL    HW173751  10.292   7.202   4.489 -2.1874  2.7927  0.5073
54479SOL    HW273752  10.295   7.314   4.388  2.5542  0.2719 -2.5408
54480SOL     OW73753   4.551   8.419   3.812  0.2266  0.7890  0.1584
54480SOL    HW173754   4.591   8.497   3.852  0.8144  0.9000 -0.6150
54480SOL    HW273755   4.526   8.364   3.887  0.3122  1.4710  0.7005
54481SOL     OW73756   4.186   0.513  11.466  0.4695 -0.1538 -0.3787
54481SOL    HW173757   4.168   0.454  11.538 -1.3133 -0.3097 -0.8970
54481SOL    HW273758   4.246   0.578  11.502 -1.9327  0.9815  1.9290
54482SOL     OW73759   6.655   3.739   8.726 -0.7173 -0.2770  0.2202
54482SOL    HW173760   6.665   3.681   8.801  1.0340  0.1468  0.3577
54482SOL    HW273761   6.625   3.681   8.655  0.6560 -1.3097  0.4382
54483SOL     OW73762   1.305   9.554   2.464  0.7323  0.1225 -0.0230
54483SOL    HW173763   1.330   9.467   2.432 -0.5259 -0.1911 -0.1732
54483SOL    HW273764   1.315   9.611   2.387  1.2493  0.0591 -0.0073
54484SOL     OW73765  11.826  10.291   1.230  0.3283  0.1840 -0.3967
54484SOL    HW173766  11.815  10.311   1.323 -0.2745 -1.3131 -0.1174
54484SOL    HW273767  11.773  10.212   1.216  0.0442  0.6355 -2.1163
54485SOL     OW73768  11.250  12.197   0.334 -0.3992  0.0887 -0.0645
54485SOL    HW173769  11.250  12.277   0.282 -1.2639 -1.1852 -2.1501
54485SOL    HW273770  11.335  12.156   0.317 -0.8452 -0.5349 -0.8566
54486SOL     OW73771   1.764   5.280   8.969 -0.0959 -0.1581  0.1862
54486SOL    HW173772   1.687   5.223   8.978  0.1212 -0.3961  0.5682
54486SOL    HW273773   1.800   5.285   9.057 -0.3855  0.9678  0.2631
54487SOL     OW73774  10.941   6.554   4.064 -0.2266  0.4331  0.0623
54487SOL    HW173775  10.929   6.482   4.125 -1.7313 -0.3253 -1.0549
54487SOL    HW273776  11.028   6.541   4.027  0.3824  0.4659  1.4506
54488SOL     OW73777   4.137   2.113   9.358  0.5747  0.6110 -0.0801
54488SOL    HW173778   4.054   2.083   9.322  1.5552  1.1779 -3.1372
54488SOL    HW273779   4.131   2.208   9.358  1.1493  0.6552 -0.1679
54489SOL     OW73780  10.437   9.059   9.891 -0.6413  0.1952 -0.1792
54489SOL    HW173781  10.447   9.076   9.984 -2.5749  1.5273 -0.1612
54489SOL    HW273782  10.450   9.145   9.849  0.7502 -0.4758 -1.2242
54490SOL     OW73783   6.498   5.567   2.036 -0.8243  0.3584 -0.3886
54490SOL    HW173784   6.443   5.578   2.114  0.3321  3.3547  0.1439
54490SOL    HW273785   6.531   5.477   2.042 -3.8797 -0.8407  0.3946
54491SOL     OW73786  10.048   4.387   8.618  0.2850  0.4229 -0.4226
54491SOL    HW173787   9.988   4.324   8.658 -0.0810 -0.3086 -2.0643
54491SOL    HW273788  10.098   4.421   8.692 -0.4773 -0.7455  0.6878
54492SOL     OW73789  12.235   0.061  10.092  0.1712 -0.4486 -0.5869
54492SOL    HW173790  12.296   0.065  10.165 -0.6650  1.9691  0.0891
54492SOL    HW273791  12.149   0.053  10.133 -0.3886  1.7821 -1.1649
54493SOL     OW73792   9.629   2.698   7.479  0.2280 -0.3100 -0.7405
54493SOL    HW173793   9.705   2.717   7.424 -0.9439  2.8546 -1.5224
54493SOL    HW273794   9.587   2.623   7.436  2.7869 -2.1129 -0.2952
54494SOL     OW73795   3.454   7.495   9.148 -0.3680  0.3420  0.3146
54494SOL    HW173796   3.365   7.528   9.156 -0.7195  0.0791 -1.9607
54494SOL    HW273797   3.459   7.423   9.212 -1.2243  1.3793  1.6037
54495SOL     OW73798  11.318  11.801   7.023 -0.4922  0.3429  0.0559
54495SOL    HW173799  11.382  11.731   7.012  0.8512  1.6480 -0.7102
54495SOL    HW273800  11.247  11.761   7.074  0.3289 -1.4939 -0.1843
54496SOL     OW73801  10.010   8.700  10.881 -0.1560 -0.2649 -0.2849
54496SOL    HW173802   9.987   8.754  10.956  1.3262 -1.8584  1.4492
54496SOL    HW273803   9.952   8.624  10.887  0.6830 -0.9078 -0.0893
54497SOL     OW73804   0.123   3.404   2.795  0.8749  0.1445  0.0070
54497SOL    HW173805   0.157   3.425   2.882 -1.4000  0.0201  0.9921
54497SOL    HW273806   0.071   3.480   2.770  0.4661 -0.3478 -0.6889
54498SOL     OW73807   5.174  10.286  11.469 -0.0895 -0.3189 -0.2804
54498SOL    HW173808   5.179  10.243  11.384  0.8577 -0.2813 -0.2503
54498SOL    HW273809   5.249  10.345  11.470  0.7898 -1.4032  1.1725
54499SOL     OW73810   1.398  11.199   6.646  0.5038 -0.3533 -0.3584
54499SOL    HW173811   1.439  11.116   6.670  1.2821  0.0458 -0.2790
54499SOL    HW273812   1.343  11.178   6.571  0.6147 -0.9578 -0.2746
54500SOL     OW73813  10.548   5.844   0.925  0.1749  0.0672 -0.7182
54500SOL    HW173814  10.484   5.888   0.980 -0.5303 -1.2640 -0.4292
54500SOL    HW273815  10.533   5.751   0.940  1.4560 -0.2920 -1.4818
54501SOL     OW73816   6.715   9.535   0.279 -0.0622 -0.4033 -0.3468
54501SOL    HW173817   6.783   9.470   0.267 -0.5262 -0.6109 -2.1639
54501SOL    HW273818   6.636   9.484   0.299  0.3028 -0.1528  1.9914
54502SOL     OW73819   1.841  10.625   9.258  0.6362  0.1291 -0.2635
54502SOL    HW173820   1.756  10.606   9.219  0.4404  0.2718  0.0786
54502SOL    HW273821   1.873  10.540   9.288  0.9526 -0.0295 -1.0577
54503SOL     OW73822  12.628  10.699   4.212  0.2644 -0.7214  0.0742
54503SOL    HW173823  12.556  10.709   4.149  0.8489 -0.7505 -0.6139
54503SOL    HW273824  12.707  10.718   4.161  0.6165  1.5863  1.3562
54504SOL     OW73825   1.411  12.902  12.111 -0.5231  0.3235 -0.3685
54504SOL    HW173826   1.466  12.971  12.150 -0.7743  1.4119 -1.8600
54504SOL    HW273827   1.439  12.897  12.020 -2.1874  0.2079 -0.9143
54505SOL     OW73828  11.049   6.605   9.439 -0.3830 -0.3298  0.4645
54505SOL    HW173829  11.046   6.541   9.368 -0.5499 -0.8542  0.9288
54505SOL    HW273830  11.070   6.688   9.397 -1.1488 -0.5036 -0.2786
54506SOL     OW73831  10.525   7.152   6.037  0.5692 -0.2155  0.2088
54506SOL    HW173832  10.498   7.094   6.108 -0.7130  1.4200  1.1474
54506SOL    HW273833  10.594   7.206   6.075  0.2619  0.2930  0.0599
54507SOL     OW73834  10.507   9.485   2.834  0.6383 -0.0208  0.1091
54507SOL    HW173835  10.435   9.424   2.817  2.0696 -1.3171 -1.7063
54507SOL    HW273836  10.476   9.539   2.907 -1.9351 -0.8534 -0.2734
54508SOL     OW73837   6.196   8.911   3.271 -0.2032 -0.2940  0.0506
54508SOL    HW173838   6.180   9.003   3.288  0.5995  0.0048 -0.7186
54508SOL    HW273839   6.133   8.864   3.325 -3.0062  0.7632 -2.0751
54509SOL     OW73840  11.161  10.293  12.158 -0.0578  0.4757  0.0510
54509SOL    HW173841  11.082  10.323  12.113  0.8427  1.5013 -0.9036
54509SOL    HW273842  11.227  10.358  12.136  1.2224 -0.6880  0.3144
54510SOL     OW73843   6.477   7.379   9.150  0.0634 -0.3771 -0.1608
54510SOL    HW173844   6.405   7.320   9.173  0.6064 -0.8785  0.2802
54510SOL    HW273845   6.435   7.465   9.141 -0.4063 -0.4206  1.3075
54511SOL     OW73846   7.036  12.312   6.132  0.3580 -0.1592 -0.0398
54511SOL    HW173847   7.095  12.285   6.062 -0.8554  0.6909 -1.4481
54511SOL    HW273848   6.962  12.352   6.087 -1.5588 -1.6022  1.6114
54512SOL     OW73849   3.071   7.962  12.881 -0.5891  0.2531 -0.5031
54512SOL    HW173850   3.147   7.964  12.823  0.0369  2.3293  0.3035
54512SOL    HW273851   3.103   7.923  12.962 -1.1280 -1.4233 -1.0626
54513SOL     OW73852   1.504   2.090  11.525  0.2338  0.2146  0.6594
54513SOL    HW173853   1.502   2.167  11.468  2.3103  0.3428  0.6774
54513SOL    HW273854   1.434   2.034  11.492 -0.5297  1.5725 -0.1150
54514SOL     OW73855  11.794   0.435   4.903 -0.6696  1.0304  0.4486
54514SOL    HW173856  11.758   0.524   4.903 -0.6086  1.0843  1.9791
54514SOL    HW273857  11.722   0.381   4.937 -0.6286  0.5230 -0.2534
54515SOL     OW73858   7.769   6.288   6.325  0.2907  0.1331  0.0547
54515SOL    HW173859   7.697   6.291   6.389  0.5890 -2.4441  0.6192
54515SOL    HW273860   7.834   6.230   6.366  2.6764  2.2651 -0.5005
54516SOL     OW73861   9.986  12.506  10.623 -0.0324  0.2768 -0.9705
54516SOL    HW173862  10.012  12.469  10.707  0.3792  0.2184 -1.1243
54516SOL    HW273863  10.065  12.502  10.569  0.0123  1.3359 -0.9991
54517SOL     OW73864   2.053   0.909   0.580  0.3453  0.1740  0.5590
54517SOL    HW173865   2.049   0.857   0.500 -0.5462  1.0710 -0.0102
54517SOL    HW273866   2.021   0.996   0.553  1.4653  0.9210  1.5460
54518SOL     OW73867  10.907   3.691  12.147 -0.0196 -0.0499  0.0860
54518SOL    HW173868  10.849   3.718  12.218 -0.9328 -0.6665 -0.4029
54518SOL    HW273869  10.859   3.622  12.101  0.3001  0.6885 -1.4483
54519SOL     OW73870  12.860   1.880   1.858  0.0419 -0.3193 -0.1200
54519SOL    HW173871  12.770   1.896   1.830  0.1175  0.2495 -0.0490
54519SOL    HW273872  12.855   1.799   1.910 -0.2690 -0.8123 -0.9042
54520SOL     OW73873   3.345   0.327   0.021 -0.3872 -0.3394 -0.5652
54520SOL    HW173874   3.290   0.288   0.089  1.1375 -0.3444  0.7345
54520SOL    HW273875   3.332   0.270  -0.055 -2.5198 -0.0440 -0.4909
54521SOL     OW73876   4.667   2.415   7.910  0.8454 -0.5394 -0.2729
54521SOL    HW173877   4.701   2.348   7.969 -1.1632 -1.0160  0.4098
54521SOL    HW273878   4.624   2.366   7.840  0.2874  0.0242 -0.3327
54522SOL     OW73879  11.540   6.261   2.137 -0.7908 -0.2254 -0.5696
54522SOL    HW173880  11.480   6.325   2.098  0.2469 -0.7166 -3.2003
54522SOL    HW273881  11.583   6.221   2.062  2.2521 -0.4851  1.1710
54523SOL     OW73882  10.713  12.327   7.945 -0.1448  0.2049  0.1115
54523SOL    HW173883  10.696  12.323   8.039 -0.5933 -1.2454 -0.0018
54523SOL    HW273884  10.627  12.345   7.906 -0.1692 -0.2899 -0.0735
54524SOL     OW73885   7.137   3.365   6.038  0.4029 -0.3691 -0.7882
54524SOL    HW173886   7.191   3.410   6.102  1.9173  0.9440 -2.8713
54524SOL    HW273887   7.121   3.278   6.076  4.2482 -0.9395 -0.1444
54525SOL     OW73888   8.307   4.877   4.769 -0.1496 -0.0192  0.6518
54525SOL    HW173889   8.258   4.803   4.804  0.4298 -0.3834  0.6993
54525SOL    HW273890   8.247   4.918   4.706 -0.4038 -0.6372  0.4834
54526SOL     OW73891  12.397   8.522   9.377 -0.5162 -0.1294  0.4591
54526SOL    HW173892  12.427   8.485   9.460  0.7316 -1.1202 -0.4093
54526SOL    HW273893  12.403   8.617   9.390 -1.0133 -0.2508  1.7278
54527SOL     OW73894   8.585   0.363   5.096  0.0885  0.0232  0.3681
54527SOL    HW173895   8.524   0.421   5.050 -0.1233 -1.3875 -1.2172
54527SOL    HW273896   8.571   0.277   5.056  2.1003 -0.6438  0.9767
54528SOL     OW73897   3.144   8.381   0.646 -0.0776  0.2481 -0.3976
54528SOL    HW173898   3.093   8.460   0.663 -0.5910  0.1029 -1.2357
54528SOL    HW273899   3.233   8.405   0.672 -0.6777  0.1932  2.0040
54529SOL     OW73900   2.051   2.261   2.949  0.3558  0.5166  0.2784
54529SOL    HW173901   2.020   2.198   2.884  1.9746 -0.4830  0.4175
54529SOL    HW273902   2.024   2.347   2.915  0.5024 -0.0390 -1.3251
54530SOL     OW73903   6.543   3.557   2.741 -0.2167 -0.8130 -0.7008
54530SOL    HW173904   6.562   3.612   2.665 -2.5841  0.2904 -0.5880
54530SOL    HW273905   6.496   3.482   2.705  1.8398 -2.1946 -0.6877
54531SOL     OW73906  10.576   1.765   0.313  0.4777  0.0984 -0.2310
54531SOL    HW173907  10.485   1.762   0.342 -0.8181  0.5879 -3.7893
54531SOL    HW273908  10.596   1.859   0.308  1.9868  0.0114  2.4937
54532SOL     OW73909   0.508   3.096   9.912  0.0571  0.7265 -0.7122
54532SOL    HW173910   0.537   3.158   9.978  2.0967  0.0487 -0.8851
54532SOL    HW273911   0.502   3.012   9.958 -0.7993  0.6855 -0.8896
54533SOL     OW73912   6.277   7.210   7.644 -0.1541  0.3611 -0.2543
54533SOL    HW173913   6.202   7.182   7.592 -0.0868 -1.3810  0.5197
54533SOL    HW273914   6.304   7.294   7.605 -2.0928  0.7136 -0.9289
54534SOL     OW73915   8.881  10.961   7.934 -0.0246 -0.1675 -0.4964
54534SOL    HW173916   8.861  10.969   7.841 -1.7857 -0.0174 -0.1422
54534SOL    HW273917   8.930  10.879   7.940  0.6237  0.1144 -1.6186
54535SOL     OW73918  11.409   4.598  11.068 -0.1090 -0.2915  0.0387
54535SOL    HW173919  11.454   4.529  11.116 -1.4001  0.4382  2.4274
54535SOL    HW273920  11.477   4.664  11.051  1.1826 -2.0995 -2.4378
54536SOL     OW73921   0.980  12.641   8.950 -0.5217 -0.2929 -0.1554
54536SOL    HW173922   0.936  12.661   9.032 -0.7499 -0.2670 -0.2845
54536SOL    HW273923   0.991  12.726   8.907  1.2327 -0.0633  0.6593
54537SOL     OW73924  12.638   3.725   0.243  0.6839 -0.0966 -0.0292
54537SOL    HW173925  12.553   3.766   0.261  0.0479 -1.8552  1.2703
54537SOL    HW273926  12.650   3.736   0.149 -0.5388  0.9876 -0.0911
54538SOL     OW73927   1.257   2.553   2.169  0.4578  0.3776  0.1886
54538SOL    HW173928   1.187   2.561   2.104  0.9246  0.5947 -0.2997
54538SOL    HW273929   1.338   2.567   2.119  0.8701 -0.1555  0.6847
54539SOL     OW73930   2.269  10.581   9.562 -0.4679 -0.0468 -0.4176
54539SOL    HW173931   2.267  10.564   9.468  1.1298 -2.7220 -0.0692
54539SOL    HW273932   2.346  10.636   9.575  0.4489 -1.2744 -0.5140
54540SOL     OW73933   3.576   7.877   1.639 -0.0511  0.0336 -0.1666
54540SOL    HW173934   3.655   7.867   1.692 -0.4142  1.4361  0.7097
54540SOL    HW273935   3.602   7.937   1.569  0.0500 -0.7080 -0.7774
54541SOL     OW73936   6.160   2.646   8.981  0.5157 -0.4575 -0.4560
54541SOL    HW173937   6.179   2.635   8.888  3.1071  1.5286 -0.2628
54541SOL    HW273938   6.098   2.719   8.984 -1.1582 -1.8180 -0.6703
54542SOL     OW73939   2.216   0.732   3.341 -0.3728 -0.0847 -0.0144
54542SOL    HW173940   2.268   0.661   3.303 -1.2704 -0.2285 -1.0135
54542SOL    HW273941   2.152   0.688   3.397  0.8347  0.1181  1.5974
54543SOL     OW73942   3.604   4.549   7.702  0.0098 -0.0158  0.4334
54543SOL    HW173943   3.643   4.467   7.669 -1.3046 -0.7788  0.6985
54543SOL    HW273944   3.639   4.558   7.790  1.1962  0.4364 -0.0566
54544SOL     OW73945  11.147   7.545   3.279 -0.1763 -0.5069 -0.3596
54544SOL    HW173946  11.057   7.524   3.303  0.0570 -0.0078  1.0625
54544SOL    HW273947  11.156   7.639   3.299  0.8765 -0.7303  0.2822
54545SOL     OW73948  12.944   5.843   5.868  0.3035 -0.2327  0.0371
54545SOL    HW173949  12.883   5.896   5.920  0.3301 -0.1924  0.0270
54545SOL    HW273950  12.954   5.762   5.918 -0.0735 -0.4023 -0.1571
54546SOL     OW73951   6.267   4.250   4.848  0.3077  0.5715 -0.4335
54546SOL    HW173952   6.308   4.264   4.933 -0.3288  0.0772 -0.0395
54546SOL    HW273953   6.193   4.191   4.865 -0.9234  1.8736 -1.0402
54547SOL     OW73954   1.195   7.841   6.652 -0.0452 -0.4766 -0.2422
54547SOL    HW173955   1.109   7.833   6.609 -0.1741  0.2500 -0.1335
54547SOL    HW273956   1.244   7.901   6.595 -0.1172  0.2664  0.4621
54548SOL     OW73957   5.930   2.512   5.036  0.1225 -0.0325  0.3598
54548SOL    HW173958   5.844   2.528   5.075  0.8677  0.0637  2.0286
54548SOL    HW273959   5.910   2.474   4.951 -1.6687 -3.9409  2.2574
54549SOL     OW73960   3.663   0.296   7.645  0.8334  0.3057  0.1200
54549SOL    HW173961   3.684   0.323   7.555  0.4709  0.0021 -0.0612
54549SOL    HW273962   3.613   0.369   7.681 -0.3046 -0.1786 -0.4303
54550SOL     OW73963   1.991   9.565   9.481  0.1934 -0.2626 -0.2962
54550SOL    HW173964   1.927   9.568   9.409  0.6514 -1.6963 -0.7895
54550SOL    HW273965   2.075   9.586   9.440  0.3803 -0.5927 -0.0863
54551SOL     OW73966   4.326   7.197   0.319 -0.0610 -0.1608 -0.6946
54551SOL    HW173967   4.289   7.109   0.304 -0.8329  0.1618 -0.7517
54551SOL    HW273968   4.357   7.195   0.409  0.6352 -0.7374 -0.9370
54552SOL     OW73969   8.275   7.839   7.013  0.1356 -0.4682  0.1163
54552SOL    HW173970   8.260   7.876   7.100 -0.4542 -0.1281 -0.1268
54552SOL    HW273971   8.342   7.896   6.974 -0.4149  0.0644 -0.0719
54553SOL     OW73972  11.262   1.116  11.827  0.4275  0.7117 -0.2868
54553SOL    HW173973  11.256   1.168  11.747 -0.0184 -0.1482 -0.8142
54553SOL    HW273974  11.356   1.096  11.835  0.3374 -0.0887 -1.1630
54554SOL     OW73975   9.701   6.281   4.614 -0.4784 -0.9515  0.3325
54554SOL    HW173976   9.683   6.196   4.653 -2.1798 -0.2551  1.2051
54554SOL    HW273977   9.650   6.343   4.668 -0.2351  0.4599 -0.9850
54555SOL     OW73978   1.218   7.669   7.842  0.4971  0.1778  0.7997
54555SOL    HW173979   1.156   7.742   7.832 -0.3530 -0.6281 -0.1031
54555SOL    HW273980   1.229   7.659   7.936 -0.4538  0.6002  0.9700
54556SOL     OW73981   2.692  10.891  12.459 -0.0954  0.0665 -0.0923
54556SOL    HW173982   2.631  10.924  12.525 -0.9472 -0.4456 -0.5899
54556SOL    HW273983   2.657  10.923  12.376 -1.0339 -2.0814 -0.6123
54557SOL     OW73984   8.536  10.960   3.713  0.7803 -0.2378  0.1442
54557SOL    HW173985   8.579  11.031   3.666  0.9092 -0.5819 -0.2648
54557SOL    HW273986   8.607  10.900   3.736  1.1362  1.0793  2.9677
54558SOL     OW73987   8.571  12.752  12.942 -0.0412  0.3278 -0.2285
54558SOL    HW173988   8.618  12.675  12.973  0.9233  0.7922 -0.4695
54558SOL    HW273989   8.563  12.739  12.847 -3.9401 -1.6085  0.1837
54559SOL     OW73990   5.519   3.095   4.425 -0.4315  0.3873 -0.4162
54559SOL    HW173991   5.457   3.083   4.353 -1.1559  0.8310  0.1234
54559SOL    HW273992   5.466   3.125   4.498  0.3674  0.3969  0.1756
54560SOL     OW73993   8.666   5.681   3.746  0.4378 -0.2113 -0.1472
54560SOL    HW173994   8.619   5.694   3.828 -0.9161 -0.0235 -0.9225
54560SOL    HW273995   8.731   5.752   3.745  0.0763  0.1407  0.4993
54561SOL     OW73996   3.204   3.772   9.334 -0.2111 -0.2944 -0.2278
54561SOL    HW173997   3.247   3.687   9.328  0.8866  0.1968  0.4200
54561SOL    HW273998   3.258   3.822   9.394 -2.0952  0.1183  1.2428
54562SOL     OW73999   0.526  12.479   0.260 -0.0891 -0.0694  0.0979
54562SOL    HW174000   0.434  12.473   0.283  0.1480  0.1398  1.1537
54562SOL    HW274001   0.539  12.410   0.194 -0.7016 -1.0076  0.9249
54563SOL     OW74002  10.018   6.950   4.129 -0.1993 -0.0295  0.1149
54563SOL    HW174003  10.058   6.868   4.099  1.8756  0.5974  1.0126
54563SOL    HW274004  10.033   6.950   4.224 -1.4485  0.7441  0.3247
54564SOL     OW74005  12.161   3.170   4.730 -0.3868 -0.0282 -0.2741
54564SOL    HW174006  12.163   3.122   4.647  2.0357  1.3471 -1.1238
54564SOL    HW274007  12.075   3.211   4.732 -0.1351  0.8047 -2.7061
54565SOL     OW74008   6.879  12.147   4.361  0.6656  0.5040  0.1479
54565SOL    HW174009   6.830  12.154   4.279 -0.8250 -1.5667  0.7770
54565SOL    HW274010   6.836  12.209   4.420  0.9321  1.0658 -0.2345
54566SOL     OW74011   8.681  12.159  10.007 -0.0574  0.3293  0.7023
54566SOL    HW174012   8.775  12.173   9.996 -0.2673  1.6562  0.3377
54566SOL    HW274013   8.644  12.248  10.007 -1.0677 -0.0025  3.1433
54567SOL     OW74014   0.293   8.205   3.997 -0.2080  0.4670  0.3772
54567SOL    HW174015   0.327   8.162   3.919 -1.3806 -0.6725  0.4465
54567SOL    HW274016   0.332   8.292   3.996  1.0637 -0.0834 -0.5948
54568SOL     OW74017   6.468   9.312   7.320  0.0126 -0.3141  0.3443
54568SOL    HW174018   6.502   9.381   7.377  1.1179  0.3944 -1.1205
54568SOL    HW274019   6.501   9.230   7.359 -0.0802  0.0740  1.2597
54569SOL     OW74020   9.714  11.566   5.254  0.1546 -0.5796  0.1301
54569SOL    HW174021   9.633  11.519   5.274  0.2741 -0.3877  1.1025
54569SOL    HW274022   9.734  11.615   5.333 -0.4525  1.8764 -1.1109
54570SOL     OW74023   8.633  12.355   1.299  0.1812  0.7056  0.1494
54570SOL    HW174024   8.637  12.451   1.304  1.9982  0.6621  0.3137
54570SOL    HW274025   8.682  12.326   1.376  1.0826 -0.3294 -0.7802
54571SOL     OW74026   9.851   6.748   3.507  0.1752  0.0163 -0.0827
54571SOL    HW174027   9.782   6.692   3.541  0.7317 -0.6225  0.0201
54571SOL    HW274028   9.889   6.698   3.435  1.2833 -0.1542  0.5949
54572SOL     OW74029   7.520   5.997   4.715  0.1692 -0.7372 -0.2436
54572SOL    HW174030   7.548   5.922   4.766 -0.2388 -1.5217 -1.1415
54572SOL    HW274031   7.425   5.985   4.705  0.0984 -0.0955 -0.3829
54573SOL     OW74032   7.292   3.770   5.559  0.1845 -0.0431  0.8019
54573SOL    HW174033   7.234   3.807   5.625 -0.8188  1.5861 -0.8921
54573SOL    HW274034   7.251   3.687   5.535 -0.4763  0.2497  0.8884
54574SOL     OW74035  11.546   3.230   7.953 -0.1468 -0.0575  0.0939
54574SOL    HW174036  11.549   3.197   7.863  0.5243 -0.8351  0.3921
54574SOL    HW274037  11.553   3.152   8.008 -1.9543  0.2508  0.8552
54575SOL     OW74038   7.164   2.823   5.720 -0.1684  0.0274  0.5168
54575SOL    HW174039   7.207   2.863   5.644 -1.6919  0.8380  0.0416
54575SOL    HW274040   7.210   2.860   5.795  1.2075 -0.6044  0.0184
54576SOL     OW74041   3.813   1.593   6.431  0.8138  0.0972 -0.1709
54576SOL    HW174042   3.747   1.524   6.430  1.0244 -0.1632  1.7109
54576SOL    HW274043   3.801   1.638   6.347 -0.6550 -0.9613 -0.5695
54577SOL     OW74044   4.062  11.206   9.348 -0.1315  0.5638  0.0411
54577SOL    HW174045   3.970  11.208   9.374  0.3483  0.8099  1.8361
54577SOL    HW274046   4.104  11.147   9.411  0.8237 -0.1230 -1.1909
54578SOL     OW74047   7.396   1.968   5.316 -0.0449 -0.6812  0.2824
54578SOL    HW174048   7.414   1.902   5.248 -0.7104 -0.0685 -0.5205
54578SOL    HW274049   7.468   2.031   5.308  3.1448 -3.3669  3.9383
54579SOL     OW74050   8.037   3.629   1.360 -0.0430 -0.3125  0.2089
54579SOL    HW174051   7.993   3.714   1.347  2.7463  1.5317  1.8693
54579SOL    HW274052   8.084   3.614   1.278 -0.0231  0.0964  0.1417
54580SOL     OW74053   2.728   7.098   6.189 -0.3143  0.1325  0.2173
54580SOL    HW174054   2.806   7.065   6.234 -0.6140 -2.2026 -0.8301
54580SOL    HW274055   2.656   7.079   6.249 -0.3473 -0.0252  0.1291
54581SOL     OW74056   6.757  11.814   0.543 -0.4566  0.0664  0.1634
54581SOL    HW174057   6.688  11.819   0.610  0.8505 -2.6387  1.9206
54581SOL    HW274058   6.831  11.859   0.583  0.3650 -1.6515  0.6452
54582SOL     OW74059   2.211  10.454  11.136 -0.2812 -0.5875  0.7422
54582SOL    HW174060   2.191  10.541  11.103 -0.9837 -1.3307 -0.8847
54582SOL    HW274061   2.301  10.438  11.108 -0.3670 -0.6323  0.4929
54583SOL     OW74062   5.181   7.985  10.215  0.0229 -0.3682 -0.2804
54583SOL    HW174063   5.156   7.909  10.162 -0.6100 -1.1303  1.0612
54583SOL    HW274064   5.244   7.951  10.279 -1.8492 -0.2837  1.7104
54584SOL     OW74065   4.697   6.212   4.639 -0.0629 -0.2414  0.7348
54584SOL    HW174066   4.614   6.202   4.594 -0.3715 -0.4458  1.3457
54584SOL    HW274067   4.724   6.302   4.621 -0.3059 -0.2404  0.3662
54585SOL     OW74068   5.515   0.451  11.030 -0.2066  0.1093  0.6440
54585SOL    HW174069   5.446   0.462  11.096 -0.6723 -0.1072  0.1989
54585SOL    HW274070   5.550   0.540  11.017 -0.9474  0.3590  0.2925
54586SOL     OW74071  12.050  12.198  12.718 -0.0009 -0.0074 -0.0720
54586SOL    HW174072  11.996  12.275  12.704 -0.2797 -0.2679 -0.4369
54586SOL    HW274073  12.058  12.158  12.632  1.1254  0.2562 -0.1015
54587SOL     OW74074  10.413  11.768   7.463 -0.0555 -0.5158 -0.0434
54587SOL    HW174075  10.479  11.833   7.442 -0.4380 -0.0751  0.1036
54587SOL    HW274076  10.331  11.805   7.430 -0.4429 -0.4347  0.9703
54588SOL     OW74077   8.449  11.167   1.141 -0.6731 -0.3615 -0.1999
54588SOL    HW174078   8.423  11.212   1.062 -0.7376  0.1915  0.1327
54588SOL    HW274079   8.367  11.133   1.178 -0.7092 -0.1448 -0.0805
54589SOL     OW74080   5.388  10.415   9.267  0.7078  0.1130 -0.9441
54589SOL    HW174081   5.359  10.336   9.221  0.4364 -1.1871  1.3249
54589SOL    HW274082   5.309  10.448   9.310  1.4267 -0.2570  0.7324
54590SOL     OW74083   1.937   2.269   5.255  0.1108  0.1074 -0.3151
54590SOL    HW174084   1.859   2.305   5.212 -0.0997 -1.5699 -1.4388
54590SOL    HW274085   1.999   2.341   5.256 -1.0985  1.1899 -0.3134
54591SOL     OW74086   7.999   4.872   6.166  0.0480 -0.1344  0.3340
54591SOL    HW174087   8.060   4.901   6.234  0.4375  0.8879 -0.4298
54591SOL    HW274088   8.043   4.893   6.084 -0.6190 -0.9308 -0.2452
54592SOL     OW74089   5.792  11.147   0.581  0.1671 -0.1562 -0.4029
54592SOL    HW174090   5.861  11.145   0.648  0.3737  0.2968 -0.6007
54592SOL    HW274091   5.833  11.105   0.504  1.0565  2.1928 -1.2937
54593SOL     OW74092  10.651  10.981   2.934 -0.2094  0.1628 -0.0676
54593SOL    HW174093  10.660  10.886   2.944  0.3851  0.1632 -0.5263
54593SOL    HW274094  10.659  11.015   3.024 -0.1266 -0.1949  0.0631
54594SOL     OW74095   4.690   5.619   8.606 -0.6239 -0.0724 -0.1498
54594SOL    HW174096   4.750   5.681   8.647 -0.3487 -1.2298  1.2762
54594SOL    HW274097   4.672   5.657   8.519  1.1829  0.9138 -0.1484
54595SOL     OW74098   0.023  12.525   1.035 -0.2477  0.0590 -0.4110
54595SOL    HW174099   0.112  12.555   1.052  0.6737 -1.4476 -2.1490
54595SOL    HW274100  -0.014  12.593   0.978 -0.5405  1.1044  0.9835
54596SOL     OW74101  12.638   6.946   9.997 -0.6799 -0.6546 -0.5379
54596SOL    HW174102  12.609   7.032  10.025 -0.2988 -0.7753  0.2420
54596SOL    HW274103  12.570   6.886  10.029  0.9057 -1.0783  2.3242
54597SOL     OW74104   0.075  11.560  10.072 -0.4583 -0.1493  0.7482
54597SOL    HW174105   0.139  11.550  10.001 -1.1895 -1.3194  0.2299
54597SOL    HW274106  -0.005  11.589  10.028 -0.4609  0.7612  1.3266
54598SOL     OW74107   5.496   8.992   7.315  0.2773  0.0496  0.2175
54598SOL    HW174108   5.559   9.046   7.267  1.9466 -0.8051  1.3593
54598SOL    HW274109   5.549   8.933   7.367 -1.4824 -2.2086 -0.3625
54599SOL     OW74110  11.511   4.662  12.954 -0.5172 -0.3201  0.0810
54599SOL    HW174111  11.536   4.753  12.971  2.3053 -1.3361  2.0585
54599SOL    HW274112  11.451   4.640  13.026 -1.7357  0.0970 -0.7688
54600SOL     OW74113   3.408   7.562   3.604 -0.0798 -0.2908  0.3891
54600SOL    HW174114   3.357   7.641   3.621 -0.5690 -0.1138 -1.7046
54600SOL    HW274115   3.344   7.500   3.568  1.2403  0.2623 -3.2452
54601SOL     OW74116   4.962   3.232  12.150 -0.4524 -0.1520 -0.2173
54601SOL    HW174117   4.961   3.162  12.086 -0.5612 -1.5524  1.2442
54601SOL    HW274118   4.879   3.225  12.196  0.5636 -0.7472  1.6377
54602SOL     OW74119   4.109   3.256   6.241  0.1685  0.4976  0.4288
54602SOL    HW174120   4.069   3.207   6.312  2.6036  1.1313  2.3811
54602SOL    HW274121   4.036   3.299   6.197 -1.5801 -1.2672  1.4468
54603SOL     OW74122   2.147   5.733   0.711 -0.2741  0.5255 -0.2195
54603SOL    HW174123   2.110   5.647   0.728  1.5953 -0.3420 -0.2996
54603SOL    HW274124   2.081   5.795   0.744 -0.9472 -0.9323  1.2923
54604SOL     OW74125  10.865   7.104   5.995  0.0790 -1.0746 -0.0564
54604SOL    HW174126  10.851   7.060   6.079  0.7269 -1.3728 -0.0976
54604SOL    HW274127  10.847   7.037   5.929  2.1324 -1.6476 -0.1062
54605SOL     OW74128   4.747  11.597   5.139 -0.1156 -0.5957  0.0310
54605SOL    HW174129   4.773  11.609   5.230 -0.0921  1.3033 -0.1812
54605SOL    HW274130   4.810  11.534   5.104  0.5355 -0.5269  1.0424
54606SOL     OW74131   8.906  10.980   8.744 -0.2545  0.3162 -0.5956
54606SOL    HW174132   8.848  10.967   8.819  0.1795  0.4998 -0.2217
54606SOL    HW274133   8.948  11.065   8.761 -0.7533  0.7504 -1.4474
54607SOL     OW74134  10.522  11.659  10.355 -0.0623  0.1748  0.7070
54607SOL    HW174135  10.450  11.696  10.305  0.3957 -0.2599 -0.2981
54607SOL    HW274136  10.572  11.734  10.385 -0.6028  0.4558  0.9223
54608SOL     OW74137   3.095   4.025   0.535 -0.0802  0.0107 -0.6643
54608SOL    HW174138   3.003   3.998   0.526  0.2289 -1.0608 -0.7754
54608SOL    HW274139   3.137   3.994   0.454  0.3365  0.7229 -0.7301
54609SOL     OW74140   0.938   0.146   5.205  0.6549 -0.6314 -0.0489
54609SOL    HW174141   1.019   0.178   5.246  0.3941  0.8371 -0.6267
54609SOL    HW274142   0.957   0.146   5.111 -0.4121  1.0276 -0.3120
54610SOL     OW74143   1.224   1.390   3.672  0.7724  0.5854  0.0445
54610SOL    HW174144   1.155   1.369   3.735  1.1584  1.3088  0.7279
54610SOL    HW274145   1.232   1.486   3.675 -0.4199  0.8509 -2.4086
54611SOL     OW74146   1.688   8.747   6.361  0.8518 -0.4704 -0.4487
54611SOL    HW174147   1.783   8.757   6.357  0.9892 -0.4989  1.4883
54611SOL    HW274148   1.657   8.762   6.272  2.6094  0.2392 -0.9625
54612SOL     OW74149  12.432   7.315   3.561  0.5194 -0.3870 -0.4732
54612SOL    HW174150  12.407   7.226   3.586  2.9141 -0.0221  4.6463
54612SOL    HW274151  12.519   7.306   3.522  1.2716 -0.3568  1.1008
54613SOL     OW74152   2.885   1.548   8.518 -0.3988  0.1390  0.1423
54613SOL    HW174153   2.831   1.562   8.441  0.8365 -1.6907 -1.1459
54613SOL    HW274154   2.830   1.495   8.576 -1.6276  2.1926  0.9438
54614SOL     OW74155   8.068  11.735   9.265 -0.2739  0.4180  0.9028
54614SOL    HW174156   8.100  11.821   9.293 -1.7046  0.7302  1.6517
54614SOL    HW274157   8.079  11.680   9.342  0.0798  0.0614  0.6052
54615SOL     OW74158   7.342   7.723   8.728 -0.5225  0.2762 -0.2051
54615SOL    HW174159   7.319   7.699   8.639  0.5444 -0.2797 -0.3343
54615SOL    HW274160   7.436   7.706   8.735 -0.1114  2.4231  0.3367
54616SOL     OW74161   8.414   9.297   0.275 -0.1980  0.0591  0.4168
54616SOL    HW174162   8.386   9.348   0.351  3.0584 -0.0616  1.8237
54616SOL    HW274163   8.380   9.209   0.292 -2.7235  0.8021 -0.2535
54617SOL     OW74164   4.577   9.486   4.900  0.1795 -0.3521 -0.2634
54617SOL    HW174165   4.519   9.555   4.869 -0.6880 -0.4659  1.0473
54617SOL    HW274166   4.541   9.460   4.985  1.6074 -1.0719  0.1571
54618SOL     OW74167  12.676   3.603   8.406  0.3523 -0.2565  0.2132
54618SOL    HW174168  12.702   3.666   8.339  0.8375 -0.8036 -0.1231
54618SOL    HW274169  12.738   3.530   8.396  0.1254 -0.5578  0.9355
54619SOL     OW74170   6.391   6.141   3.747 -0.1439 -0.2327 -0.3046
54619SOL    HW174171   6.382   6.237   3.751  1.1396 -0.1603  2.2633
54619SOL    HW274172   6.370   6.111   3.835  0.5323 -2.2565 -0.7850
54620SOL     OW74173   7.407   8.621   2.699  0.2354  0.1519 -0.0403
54620SOL    HW174174   7.458   8.549   2.736 -0.7080 -0.3494  0.3047
54620SOL    HW274175   7.396   8.598   2.607  1.0707  0.5296 -0.2483
54621SOL     OW74176   8.420   2.756   2.479 -0.7452  0.4748 -0.1267
54621SOL    HW174177   8.487   2.688   2.487 -0.7449  0.3591 -0.9927
54621SOL    HW274178   8.387   2.747   2.389  0.3251  2.5682 -0.8178
54622SOL     OW74179   2.008  11.964   0.408  0.9130 -0.6625  0.3758
54622SOL    HW174180   1.991  11.887   0.462 -0.9437 -1.0386 -0.6577
54622SOL    HW274181   2.039  11.928   0.325 -0.0761 -0.3271 -0.1534
54623SOL     OW74182   8.526   6.206   4.894 -0.9884 -0.4560 -0.0665
54623SOL    HW174183   8.607   6.246   4.861 -1.8684 -0.0712 -1.8696
54623SOL    HW274184   8.535   6.113   4.873  0.2267 -0.9904  2.4246
54624SOL     OW74185  12.822   6.159   0.545 -0.5064 -0.3676 -0.4556
54624SOL    HW174186  12.846   6.149   0.637 -0.2695 -0.1654 -0.4964
54624SOL    HW274187  12.904   6.178   0.500 -0.5566 -0.8681 -0.7704
54625SOL     OW74188   2.868   1.712   9.693 -0.0598  0.0786 -0.0398
54625SOL    HW174189   2.830   1.688   9.778  0.9011 -0.8523  0.1351
54625SOL    HW274190   2.927   1.640   9.671  2.0985  1.7359 -0.0106
54626SOL     OW74191  12.905   3.545  12.207  0.0819 -0.3981  0.6488
54626SOL    HW174192  12.921   3.459  12.169  0.3761  0.1216 -0.4448
54626SOL    HW274193  12.810   3.550  12.215  0.0138 -0.5684  0.0428
54627SOL     OW74194   3.986   9.248   3.000  0.0220  0.0700 -0.5422
54627SOL    HW174195   3.936   9.196   3.063  1.2371  0.1923  0.5482
54627SOL    HW274196   3.959   9.338   3.017 -1.9376 -0.0870 -2.3025
54628SOL     OW74197   9.965  12.783   8.813  0.1271  0.1155 -0.2511
54628SOL    HW174198   9.973  12.818   8.725 -0.4984  2.6526  0.6257
54628SOL    HW274199  10.055  12.775   8.845  0.4423 -2.0420 -1.4864
54629SOL     OW74200  12.780  12.599   1.742  0.4268 -0.0905 -0.1813
54629SOL    HW174201  12.813  12.684   1.772  0.5620 -0.5861  1.1472
54629SOL    HW274202  12.729  12.566   1.815 -0.8908 -0.4991 -1.2580
54630SOL     OW74203   9.426   8.268   2.291  0.2332  0.2434  0.0798
54630SOL    HW174204   9.367   8.327   2.243  0.3305  0.6405  0.4422
54630SOL    HW274205   9.461   8.322   2.362 -0.2431 -0.4605  0.8602
54631SOL     OW74206  12.774   0.173   5.560  0.0659 -0.1188  1.2733
54631SOL    HW174207  12.749   0.233   5.630 -0.0443 -1.2881  2.2561
54631SOL    HW274208  12.740   0.215   5.480 -0.1314  1.0454  1.9437
54632SOL     OW74209  12.300   5.198   8.078 -0.1747 -0.3515  0.4712
54632SOL    HW174210  12.375   5.193   8.137 -0.2522  1.2180  0.7245
54632SOL    HW274211  12.327   5.148   8.001  1.4140  0.7347  0.2817
54633SOL     OW74212  12.453   8.747  11.914  0.0428 -0.3265  0.0617
54633SOL    HW174213  12.392   8.734  11.842  0.2976 -0.8233 -0.0711
54633SOL    HW274214  12.480   8.659  11.939 -0.5791 -0.1910  1.2382
54634SOL     OW74215  10.755   3.675   1.266 -0.1480  0.6655  0.5738
54634SOL    HW174216  10.695   3.712   1.201  0.8769  2.7342  0.7177
54634SOL    HW274217  10.708   3.681   1.349  0.4290  3.0057  0.8177
54635SOL     OW74218   6.173   9.234   6.332 -0.1063 -0.2069 -0.2900
54635SOL    HW174219   6.138   9.162   6.384 -0.0255  0.8185  1.2574
54635SOL    HW274220   6.265   9.241   6.359 -0.4925  1.4150  0.7389
54636SOL     OW74221   2.341   7.585   2.256  0.5220  0.3644  0.6475
54636SOL    HW174222   2.392   7.581   2.176  1.5158  1.3614  1.2071
54636SOL    HW274223   2.397   7.632   2.318 -0.0291 -0.7568  2.0688
54637SOL     OW74224   9.022   9.464  12.625 -0.3616  1.0292  0.4451
54637SOL    HW174225   8.989   9.437  12.711 -0.3851  1.5648  0.6079
54637SOL    HW274226   9.039   9.558  12.634  0.8826  0.8434  0.2583
54638SOL     OW74227   4.905   6.516   8.034 -0.1748  0.4581  0.0964
54638SOL    HW174228   4.961   6.586   8.067 -0.1514  0.3388  0.3118
54638SOL    HW274229   4.959   6.437   8.038  0.1554  0.6056 -1.1482
54639SOL     OW74230   2.475   8.667  10.713 -0.6697  0.2942 -0.2832
54639SOL    HW174231   2.429   8.751  10.713 -2.0960 -0.4287  1.1338
54639SOL    HW274232   2.429   8.614  10.648  0.7726  0.8364 -1.8094
54640SOL     OW74233  10.825   3.095   7.583  0.3343  0.2271 -0.1694
54640SOL    HW174234  10.833   3.103   7.678  2.1207  2.1791 -0.4160
54640SOL    HW274235  10.739   3.133   7.563  0.6411  1.3570  0.5531
54641SOL     OW74236   5.855  10.433  12.123  0.3129 -0.3894 -0.3809
54641SOL    HW174237   5.770  10.430  12.080  0.6026 -0.0112 -0.9931
54641SOL    HW274238   5.879  10.341  12.134  1.0873 -0.5720 -2.8054
54642SOL     OW74239   2.075   7.969   5.787  0.1247  0.1226 -0.0911
54642SOL    HW174240   1.983   7.977   5.763 -0.1355  0.7224  1.0132
54642SOL    HW274241   2.118   7.936   5.709 -0.4780  2.8725 -1.7210
54643SOL     OW74242   2.822  10.831   9.897  0.0654 -1.0116  1.1922
54643SOL    HW174243   2.890  10.814   9.832  1.3332  1.3694  1.7529
54643SOL    HW274244   2.866  10.822   9.981 -0.7622 -1.0681  1.6340
54644SOL     OW74245   5.533  10.105   1.922 -0.1544  0.4438  0.3874
54644SOL    HW174246   5.472  10.155   1.868  0.3477  0.7309  0.0698
54644SOL    HW274247   5.606  10.086   1.863 -0.4731 -0.9368  0.4125
54645SOL     OW74248   6.509   5.289  12.869 -0.1821 -0.5754 -0.5969
54645SOL    HW174249   6.422   5.303  12.830 -0.0488 -1.3683 -1.2072
54645SOL    HW274250   6.491   5.254  12.956 -0.4903  1.4095  0.1754
54646SOL     OW74251   5.269   0.155   9.626 -0.3008 -0.1672 -0.2928
54646SOL    HW174252   5.258   0.095   9.701  0.8541 -0.0888 -0.0466
54646SOL    HW274253   5.209   0.226   9.645  1.5564  0.9910  1.7817
54647SOL     OW74254   1.694   7.267   6.172  0.7301 -0.3322  0.1205
54647SOL    HW174255   1.693   7.216   6.253 -1.3145  0.0552  0.4058
54647SOL    HW274256   1.662   7.353   6.198 -0.1135 -0.2489 -1.0938
54648SOL     OW74257   4.443   0.614   1.490 -0.3326 -0.6063 -0.2665
54648SOL    HW174258   4.394   0.556   1.431 -1.6985 -1.0753  1.2630
54648SOL    HW274259   4.381   0.637   1.558  0.5842  1.6639 -0.1297
54649SOL     OW74260   2.275   3.921   2.838 -0.2426  0.3352  0.1565
54649SOL    HW174261   2.322   3.846   2.801  0.0938  0.2339  0.7715
54649SOL    HW274262   2.275   3.905   2.932 -0.4271  0.9644  0.2675
54650SOL     OW74263   0.473   6.001  12.963 -0.5299  0.1466  0.1102
54650SOL    HW174264   0.422   5.980  13.041 -0.0425 -0.1390  0.3566
54650SOL    HW274265   0.411   6.045  12.905 -0.7166  0.9867  0.9335
54651SOL     OW74266   5.486   3.202   7.828 -0.3009 -0.2708 -0.1116
54651SOL    HW174267   5.458   3.237   7.744  0.0004 -1.4514 -0.7224
54651SOL    HW274268   5.557   3.259   7.856  0.6206 -0.7603 -1.3908
54652SOL     OW74269   8.254   4.984   2.944 -0.0099  0.7237  0.1683
54652SOL    HW174270   8.204   5.061   2.919 -1.3764 -0.4353 -0.7961
54652SOL    HW274271   8.231   4.917   2.880  2.4549 -0.0257 -0.0633
54653SOL     OW74272   8.332   2.139   3.088  0.4278 -0.6845  0.0090
54653SOL    HW174273   8.306   2.118   3.177  1.6594 -0.3254  0.4758
54653SOL    HW274274   8.266   2.201   3.057  0.3253 -0.3442  0.8947
54654SOL     OW74275   2.911  10.915   5.275 -0.3783  0.7796 -0.2615
54654SOL    HW174276   2.873  10.911   5.187 -0.1677  0.5842 -0.3436
54654SOL    HW274277   2.978  10.983   5.269  0.6991 -0.2933 -0.6668
54655SOL     OW74278  11.496  10.971   9.719  0.1127 -0.4756  0.1349
54655SOL    HW174279  11.412  10.926   9.724 -0.2945  0.0465 -1.3248
54655SOL    HW274280  11.560  10.901   9.706 -0.4788 -0.7411 -1.7560
54656SOL     OW74281   0.430  12.461  12.425 -0.6526  0.0477  0.0459
54656SOL    HW174282   0.499  12.466  12.359 -0.1368 -1.0445  0.4859
54656SOL    HW274283   0.358  12.512  12.388  1.0909  3.0760  0.4844
54657SOL     OW74284   5.505   7.578   2.485 -0.2722 -0.6568  0.6714
54657SOL    HW174285   5.529   7.670   2.469  0.0632 -0.9815 -0.8271
54657SOL    HW274286   5.438   7.583   2.552  0.3867  0.6292  1.2750
54658SOL     OW74287   3.641   0.466   1.732 -0.0334 -0.2190  0.1390
54658SOL    HW174288   3.677   0.487   1.646 -0.3818 -0.0924  0.0245
54658SOL    HW274289   3.571   0.529   1.745 -0.9416 -1.1484 -0.1098
54659SOL     OW74290   6.859   2.779   7.919  0.3565 -0.1433  0.1682
54659SOL    HW174291   6.805   2.718   7.968  0.1826 -1.8826 -2.0469
54659SOL    HW274292   6.934   2.796   7.976  0.2060 -2.1164  1.0140
54660SOL     OW74293  12.264   2.497  12.603 -0.1674  0.2136 -0.2988
54660SOL    HW174294  12.240   2.556  12.674 -1.2160  1.0916 -1.3535
54660SOL    HW274295  12.196   2.430  12.603  1.3483 -1.4486  1.2995
54661SOL     OW74296  12.685  12.449   7.574  0.3638 -0.4829 -0.1169
54661SOL    HW174297  12.623  12.431   7.645 -1.0947 -1.5400 -1.5736
54661SOL    HW274298  12.764  12.402   7.599 -0.4296 -1.5860  0.4142
54662SOL     OW74299   5.056   2.437   0.429  0.2188  0.6053  0.2400
54662SOL    HW174300   5.128   2.383   0.396 -1.0300  0.3641 -2.3568
54662SOL    HW274301   5.061   2.517   0.377 -1.2667  0.6395  0.1090
54663SOL     OW74302   0.644   1.351  12.415 -0.6797 -0.0245 -0.2127
54663SOL    HW174303   0.609   1.292  12.348 -0.9329 -0.6396  0.4441
54663SOL    HW274304   0.713   1.399  12.370 -0.5262 -0.7593 -0.7981
54664SOL     OW74305  10.241   2.048   2.254 -0.0337  0.0566  0.1481
54664SOL    HW174306  10.298   1.974   2.271  0.3908  0.3343 -0.0377
54664SOL    HW274307  10.155   2.021   2.287 -0.3895 -1.3223 -1.7731
54665SOL     OW74308   6.462  11.306   7.930  0.1797  0.4224 -0.1153
54665SOL    HW174309   6.371  11.278   7.935  0.1704  0.2308 -1.0871
54665SOL    HW274310   6.460  11.381   7.871  0.5384  0.9575  0.5466
54666SOL     OW74311   9.985   3.883  10.034 -0.0621  0.2384  0.2645
54666SOL    HW174312   9.904   3.933  10.040 -0.1534  0.1394 -0.1619
54666SOL    HW274313   9.975   3.828   9.957  1.0328  1.3484 -0.7132
54667SOL     OW74314  11.657  12.666   4.941  0.3646 -0.5027 -0.1789
54667SOL    HW174315  11.655  12.747   4.992 -0.2864  0.1806 -1.2654
54667SOL    HW274316  11.746  12.664   4.904  0.5553 -0.5681  0.2673
54668SOL     OW74317   9.717   8.150   2.685 -0.5052  0.5076 -0.3979
54668SOL    HW174318   9.662   8.205   2.740  0.7002  0.4389  0.9490
54668SOL    HW274319   9.802   8.194   2.685  0.6300 -1.5011  1.0774
54669SOL     OW74320   0.667   3.656   1.751  0.0737  0.5030  0.1256
54669SOL    HW174321   0.593   3.631   1.806  1.3671 -1.3447  1.1440
54669SOL    HW274322   0.681   3.580   1.694  0.4823  1.2945 -0.8636
54670SOL     OW74323  12.440   5.844   4.806  0.1465 -0.1720 -0.5459
54670SOL    HW174324  12.347   5.863   4.791  0.3520  2.3271  0.7385
54670SOL    HW274325  12.440   5.766   4.863 -1.1533 -0.2301 -0.5970
54671SOL     OW74326   5.033   1.442   6.658  0.1786 -0.4171  0.2170
54671SOL    HW174327   5.023   1.348   6.671 -2.5051 -0.2683 -0.1564
54671SOL    HW274328   5.032   1.454   6.563 -1.0214  0.0638  0.2691
54672SOL     OW74329   4.803   9.224   0.926 -0.2414 -0.1911 -0.3469
54672SOL    HW174330   4.843   9.140   0.903 -1.1565 -0.6429 -0.3385
54672SOL    HW274331   4.736   9.238   0.859  0.1155  0.6932 -0.5317
54673SOL     OW74332  12.017  10.010   4.094 -0.4111 -0.1326 -0.5181
54673SOL    HW174333  12.048  10.023   4.005 -2.0387 -0.8448 -1.2253
54673SOL    HW274334  12.032   9.918   4.112 -0.2907 -0.0413 -0.1325
54674SOL     OW74335   6.838  11.287   3.567 -0.4238 -0.4068  0.2578
54674SOL    HW174336   6.908  11.285   3.632  1.1241 -2.0768 -1.3273
54674SOL    HW274337   6.835  11.378   3.538  0.3537 -0.0812  1.1363
54675SOL     OW74338  11.799  10.459  11.808  0.0845  0.1143  0.1611
54675SOL    HW174339  11.788  10.396  11.879  1.5434  0.5809  0.8255
54675SOL    HW274340  11.867  10.421  11.753  2.4250  1.9401  1.6148
54676SOL     OW74341   9.016   7.408   4.836  0.2272 -0.6768 -0.2790
54676SOL    HW174342   8.952   7.401   4.907 -0.6068 -0.8912 -1.0183
54676SOL    HW274343   8.969   7.456   4.767  1.2027  0.0150 -0.4797
54677SOL     OW74344   5.270   1.601   0.842 -0.2063 -0.3212 -0.1389
54677SOL    HW174345   5.325   1.671   0.877  1.1626 -1.7142  0.6721
54677SOL    HW274346   5.182   1.638   0.838  0.2127  0.9963  1.5750
54678SOL     OW74347   3.826   1.858   4.380 -0.5443 -0.4099  0.3523
54678SOL    HW174348   3.861   1.941   4.346  1.3849 -0.2573  2.4898
54678SOL    HW274349   3.871   1.790   4.331  0.1648 -0.1887  0.6899
54679SOL     OW74350  12.286  12.493  11.908  0.4808  0.4386  0.2484
54679SOL    HW174351  12.295  12.586  11.927 -0.9458  0.6500 -0.0083
54679SOL    HW274352  12.192  12.476  11.912  0.4627 -0.4445 -2.2489
54680SOL     OW74353   4.890   4.667   6.376  0.2193  0.0170 -0.2610
54680SOL    HW174354   4.920   4.686   6.287  0.9139 -0.1333 -0.0688
54680SOL    HW274355   4.795   4.661   6.369  0.2102  0.7518 -0.8480
54681SOL     OW74356   6.565   0.059   5.326  0.1694  0.2091  0.1941
54681SOL    HW174357   6.619  -0.014   5.356  0.6722  1.1668  1.7091
54681SOL    HW274358   6.505   0.076   5.398  0.2694  1.4894 -0.0101
54682SOL     OW74359   6.778   8.889   0.574  0.1613 -0.0798  0.1656
54682SOL    HW174360   6.754   8.835   0.649  0.6927 -0.3400  0.1540
54682SOL    HW274361   6.751   8.978   0.599  1.1748  0.0001  1.0663
54683SOL     OW74362   4.930  12.132   4.046 -0.1033 -0.4372 -0.7475
54683SOL    HW174363   4.843  12.151   4.010 -0.3698 -1.7256 -0.8177
54683SOL    HW274364   4.947  12.041   4.021  1.0690 -0.3486 -0.3242
54684SOL     OW74365   5.052   9.541   1.334  0.0922 -0.2442 -0.2839
54684SOL    HW174366   5.051   9.503   1.246 -3.4366  1.3532 -1.0780
54684SOL    HW274367   5.084   9.630   1.321  1.3126 -0.5465  0.4304
54685SOL     OW74368   2.824   0.598   5.282 -0.3356 -0.3980 -0.2323
54685SOL    HW174369   2.752   0.659   5.292  1.6750  2.3663 -1.2965
54685SOL    HW274370   2.804   0.550   5.201 -0.1179  1.7473 -1.6304
54686SOL     OW74371   6.580  11.160   0.564  0.0599  0.0822  0.3620
54686SOL    HW174372   6.494  11.202   0.561  0.7712  1.8184  1.7203
54686SOL    HW274373   6.566  11.073   0.529 -2.0628  0.6175 -0.2788
54687SOL     OW74374  10.804   9.492   2.904 -0.3921 -0.5915  0.0048
54687SOL    HW174375  10.738   9.423   2.902 -0.8629 -0.2973  2.4315
54687SOL    HW274376  10.878   9.454   2.952  0.5886 -0.3782 -1.2716
54688SOL     OW74377   0.525   3.643   2.404 -0.1316 -0.6425 -0.5493
54688SOL    HW174378   0.463   3.680   2.342  0.0968 -1.4533 -1.2950
54688SOL    HW274379   0.605   3.694   2.391 -0.9101  1.1300  1.1892
54689SOL     OW74380   6.027   8.795   3.458 -0.1789  0.0910 -0.0428
54689SOL    HW174381   5.967   8.867   3.442 -0.1289  0.9406  2.9359
54689SOL    HW274382   5.971   8.717   3.457 -0.4195  0.2433 -2.1587
54690SOL     OW74383   5.375   2.971  12.407 -0.0731 -0.2612 -0.0898
54690SOL    HW174384   5.371   3.065  12.427 -0.4024 -0.1657 -0.5826
54690SOL    HW274385   5.284   2.946  12.393 -0.0559 -0.8178  0.7609
54691SOL     OW74386  11.938   0.387   2.735  0.6382  0.0258  0.2766
54691SOL    HW174387  11.880   0.336   2.791  0.7916  0.0679  0.4741
54691SOL    HW274388  11.947   0.335   2.655  0.0152  0.2004  0.0869
54692SOL     OW74389   5.578   0.178   0.745  0.3993  0.3095 -0.5254
54692SOL    HW174390   5.666   0.166   0.782  0.5758 -0.0620 -1.0614
54692SOL    HW274391   5.589   0.246   0.679 -0.2242  2.1421  1.1546
54693SOL     OW74392   4.479  10.051   3.044  0.6868  0.4217 -0.2480
54693SOL    HW174393   4.461  10.015   2.958  0.6851  0.4453 -0.2576
54693SOL    HW274394   4.468  10.146   3.034  1.7736  0.5407 -0.4956
54694SOL     OW74395  10.766   5.386   3.259  0.3241 -0.1851  0.1960
54694SOL    HW174396  10.729   5.304   3.291 -0.8168  0.1406 -0.2448
54694SOL    HW274397  10.698   5.424   3.203  0.8348  1.0397  0.3568
54695SOL     OW74398  10.871   7.737   2.421  0.1469  0.2991 -0.1230
54695SOL    HW174399  10.860   7.827   2.452 -0.3508 -0.1581  1.1101
54695SOL    HW274400  10.944   7.741   2.360 -0.1092  1.6045 -0.3608
54696SOL     OW74401   3.045   0.818   4.555  0.0216  0.7043 -0.4197
54696SOL    HW174402   3.009   0.817   4.644  1.7433 -0.1862  0.3185
54696SOL    HW274403   2.970   0.800   4.498 -1.1152  1.3109  0.8342
54697SOL     OW74404  11.638   1.216  11.658 -0.5729  0.1091 -0.6137
54697SOL    HW174405  11.733   1.224  11.644 -0.7939  2.0867 -1.3154
54697SOL    HW274406  11.630   1.190  11.750  0.6494  2.1434  0.1533
54698SOL     OW74407  10.334   0.168   6.875  0.2819 -0.1578 -0.0709
54698SOL    HW174408  10.347   0.257   6.907  0.9690 -0.0106 -0.7273
54698SOL    HW274409  10.410   0.120   6.908  0.5602 -0.2012 -0.7676
54699SOL     OW74410   4.578   2.068   8.352  0.5718 -0.8268 -0.0156
54699SOL    HW174411   4.640   2.116   8.407  0.2934 -0.1776 -0.2643
54699SOL    HW274412   4.495   2.115   8.361  0.3282 -1.1773 -0.3700
54700SOL     OW74413   5.988   2.250   7.637  0.2350  0.5938 -0.5108
54700SOL    HW174414   6.069   2.242   7.688  0.8168 -1.6137 -1.6755
54700SOL    HW274415   5.927   2.293   7.697  1.5456  0.1005  1.2774
54701SOL     OW74416  12.221   4.700   0.782  0.4959  0.2345 -0.1795
54701SOL    HW174417  12.170   4.774   0.813 -0.9183  0.1547 -2.1020
54701SOL    HW274418  12.266   4.667   0.860 -0.4416  1.8411  1.1064
54702SOL     OW74419  11.157   9.484   7.219  0.8167 -0.5549  0.5231
54702SOL    HW174420  11.237   9.520   7.181  0.9300 -0.3800  0.9138
54702SOL    HW274421  11.097   9.558   7.222  0.3757 -0.8635 -0.4617
54703SOL     OW74422  11.539   8.305   1.131 -1.1204  0.2073  0.3639
54703SOL    HW174423  11.545   8.361   1.209  0.4913 -2.1844  2.0993
54703SOL    HW274424  11.459   8.255   1.144 -1.2123  0.2855  0.1058
54704SOL     OW74425   9.694  10.803   6.798  0.1925 -0.9437  0.1984
54704SOL    HW174426   9.777  10.847   6.817 -0.1715  0.3087 -0.9661
54704SOL    HW274427   9.673  10.829   6.709 -1.7712 -0.7090  0.6856
54705SOL     OW74428   4.522   9.361   9.630  0.1672  0.1329 -0.1906
54705SOL    HW174429   4.513   9.376   9.536  0.3114 -3.0200 -0.8093
54705SOL    HW274430   4.561   9.442   9.664 -1.9573  2.2715 -2.3982
54706SOL     OW74431   4.951   2.137   4.355  0.0697  0.4451 -0.4019
54706SOL    HW174432   4.954   2.226   4.321 -2.6099  0.6220 -0.3493
54706SOL    HW274433   4.963   2.147   4.450 -1.3111  0.8998 -0.2572
54707SOL     OW74434   8.234   9.110   1.835 -0.0277 -0.4404  0.3950
54707SOL    HW174435   8.250   9.017   1.846 -0.7486 -0.6886 -0.5178
54707SOL    HW274436   8.167   9.131   1.900  0.3597 -0.4851  0.8110
54708SOL     OW74437  10.298   1.554   8.997  0.2674 -0.1900 -0.4010
54708SOL    HW174438  10.359   1.559   8.922  1.5186 -3.2943  0.2554
54708SOL    HW274439  10.238   1.483   8.974 -0.3815 -0.0604  0.8439
54709SOL     OW74440   3.276  11.407   0.340  0.1256  0.0990  0.1212
54709SOL    HW174441   3.279  11.455   0.258  1.2079  0.3053  0.2634
54709SOL    HW274442   3.320  11.324   0.322 -2.0763 -1.0829 -0.2342
54710SOL     OW74443   7.258   7.017   7.286  0.8165  0.4487  0.1099
54710SOL    HW174444   7.323   7.080   7.319  1.2900  0.8147 -1.3958
54710SOL    HW274445   7.197   7.071   7.235  1.7734 -0.3583 -2.0236
54711SOL     OW74446  10.820   7.221   7.463  0.3635 -0.5550  0.5013
54711SOL    HW174447  10.787   7.155   7.523  0.4691 -0.5156  0.6022
54711SOL    HW274448  10.741   7.258   7.423  0.2719 -0.3356  0.8743
54712SOL     OW74449  12.154  12.392   4.483  0.3456 -0.2939 -0.2791
54712SOL    HW174450  12.139  12.394   4.388  0.3380  0.1735 -0.2701
54712SOL    HW274451  12.101  12.320   4.514  1.0286 -1.0226 -0.7499
54713SOL     OW74452  10.003   2.504  10.825 -0.3600 -0.1163 -0.1714
54713SOL    HW174453   9.942   2.553  10.770 -0.4168  0.0785  0.0628
54713SOL    HW274454  10.023   2.564  10.897  0.0381 -0.2109 -0.2001
54714SOL     OW74455   7.624   5.084   2.352 -0.2633 -0.1379 -0.1641
54714SOL    HW174456   7.572   5.004   2.343 -0.9509  0.2388  0.3854
54714SOL    HW274457   7.715   5.054   2.341 -0.4721 -1.0733  0.4730
54715SOL     OW74458   0.113  11.146   7.806 -0.3577 -0.2096 -0.4997
54715SOL    HW174459   0.039  11.085   7.798 -1.0802  0.6274 -0.3449
54715SOL    HW274460   0.073  11.233   7.801  0.6499  0.2590 -0.6510
54716SOL     OW74461  11.029   1.804   3.448 -0.3326 -0.0230  0.2229
54716SOL    HW174462  11.043   1.897   3.466 -0.2615  0.1825 -0.8469
54716SOL    HW274463  11.068   1.759   3.523  1.4683  0.7366 -0.2182
54717SOL     OW74464   7.329   0.308  11.762 -0.2046  0.0031 -0.1612
54717SOL    HW174465   7.420   0.302  11.731 -0.2073 -1.8049  0.0908
54717SOL    HW274466   7.281   0.248  11.705 -1.0658  0.1648  0.3854
54718SOL     OW74467  10.546   4.169   6.827  0.0972 -0.0167  0.2155
54718SOL    HW174468  10.633   4.136   6.807 -0.4931 -1.9999  0.7451
54718SOL    HW274469  10.521   4.124   6.908 -1.6567  0.0637 -0.2424
54719SOL     OW74470   1.757   4.684   6.473 -1.0227  0.2877 -0.6041
54719SOL    HW174471   1.742   4.707   6.565 -0.9348 -0.7784 -0.3138
54719SOL    HW274472   1.721   4.596   6.464 -0.4637  0.1309 -1.4390
54720SOL     OW74473  11.282   5.298  11.888 -0.3541  0.0506 -0.8363
54720SOL    HW174474  11.279   5.377  11.834  1.8378 -1.2821 -3.1151
54720SOL    HW274475  11.352   5.315  11.951 -0.1135  0.0521 -1.1026
54721SOL     OW74476   2.213   0.148   0.800  0.5193 -0.1716  0.2465
54721SOL    HW174477   2.255   0.103   0.873  0.8427 -0.1964  0.0512
54721SOL    HW274478   2.141   0.198   0.839 -1.9580 -3.3462  0.1075
54722SOL     OW74479   5.164   2.207   7.173  0.3546  0.0072 -0.1511
54722SOL    HW174480   5.127   2.130   7.129 -1.2701  0.7796 -0.2190
54722SOL    HW274481   5.208   2.255   7.102  2.4534 -1.4009  0.1022
54723SOL     OW74482   0.972   2.534  10.182 -0.3913  0.1869  0.2501
54723SOL    HW174483   1.007   2.583  10.108 -0.3912  1.0320  0.7992
54723SOL    HW274484   0.877   2.539  10.171 -0.4216  1.0932  0.7797
54724SOL     OW74485   3.440  12.955  12.789 -0.5804 -0.2925  0.1035
54724SOL    HW174486   3.461  12.896  12.717  0.3262 -0.1100  0.1982
54724SOL    HW274487   3.523  12.965  12.836 -0.9949  0.1416  0.7633
54725SOL     OW74488  10.840  12.644   6.513 -1.0371  0.3756  0.1043
54725SOL    HW174489  10.751  12.651   6.480 -0.7065  0.8492 -0.7254
54725SOL    HW274490  10.875  12.733   6.508 -0.5111  0.1950  0.4091
54726SOL     OW74491   1.763   6.165  10.986 -0.1720  0.1398 -0.7465
54726SOL    HW174492   1.806   6.105  11.047 -2.2979 -0.5221  0.1960
54726SOL    HW274493   1.779   6.252  11.022  0.3830 -0.0925 -0.4267
54727SOL     OW74494   2.264   3.997   9.377 -0.6709 -0.1580 -0.0654
54727SOL    HW174495   2.345   3.950   9.398 -0.8785 -0.0538  0.9829
54727SOL    HW274496   2.201   3.968   9.443 -1.5312 -0.3133 -0.9289
54728SOL     OW74497  11.589   6.975   8.021  0.1633 -0.3027  0.0078
54728SOL    HW174498  11.579   6.948   8.112 -1.3951 -1.0773 -0.3656
54728SOL    HW274499  11.500   6.982   7.988  0.7120 -0.7017 -1.6480
54729SOL     OW74500   5.434   2.296   2.844 -0.3771  0.1497  0.2402
54729SOL    HW174501   5.529   2.309   2.852  0.1433 -3.4621  1.6673
54729SOL    HW274502   5.400   2.325   2.929 -0.0192 -1.7358  1.0752
54730SOL     OW74503   7.156   2.479   6.724 -0.2008  0.7366  0.4007
54730SOL    HW174504   7.159   2.555   6.783 -1.0138  0.3195  0.9872
54730SOL    HW274505   7.142   2.517   6.637  1.7536  1.4144  0.3254
54731SOL     OW74506  10.966  10.368   4.131 -0.4240 -0.0518 -0.1034
54731SOL    HW174507  11.011  10.370   4.046  0.1761 -0.5256  0.1995
54731SOL    HW274508  11.013  10.433   4.184  0.1025 -0.7407  0.3009
54732SOL     OW74509  10.368   6.281   7.122 -0.0420  0.6407  0.1967
54732SOL    HW174510  10.318   6.358   7.096 -0.7175  1.1247  2.7128
54732SOL    HW274511  10.327   6.209   7.073 -0.9744  1.5213 -0.3623
54733SOL     OW74512   7.380   7.525   6.653  0.2050  0.6210 -0.2366
54733SOL    HW174513   7.293   7.493   6.627  1.0300 -0.8233 -1.4170
54733SOL    HW274514   7.438   7.452   6.635  1.9802  2.2249 -1.4612
54734SOL     OW74515   2.608  12.360   1.653  0.3756  0.6289  0.0117
54734SOL    HW174516   2.551  12.397   1.586  1.2699  0.8467 -0.6394
54734SOL    HW274517   2.596  12.418   1.729 -1.2301 -0.0664  0.3427
54735SOL     OW74518   4.329   2.920   9.099  0.0457 -0.0548 -0.5497
54735SOL    HW174519   4.415   2.925   9.056  0.3996  1.7769  0.2875
54735SOL    HW274520   4.267   2.951   9.033  0.0260 -1.1615 -1.0785
54736SOL     OW74521   6.853   3.996   4.381  0.4728 -0.3626  0.5791
54736SOL    HW174522   6.774   4.007   4.329  1.8263  0.6075 -1.3854
54736SOL    HW274523   6.829   4.029   4.468 -1.4463 -0.7436  0.2395
54737SOL     OW74524   3.891   7.435  11.427 -0.0826  0.9657  0.7734
54737SOL    HW174525   3.823   7.370  11.444  0.1565  0.9984  1.8971
54737SOL    HW274526   3.925   7.412  11.341  0.6054 -0.9410  1.5040
54738SOL     OW74527   2.820   0.090   4.000 -0.3615 -0.5453 -0.1619
54738SOL    HW174528   2.758   0.126   3.937  0.0069 -0.1139 -0.2794
54738SOL    HW274529   2.788   0.120   4.085  0.4317  0.8210 -0.3216
54739SOL     OW74530   3.294   2.753   8.037  0.0179 -0.6233  0.5337
54739SOL    HW174531   3.321   2.776   7.948 -0.6505  1.1091  0.7446
54739SOL    HW274532   3.352   2.804   8.094  1.0055 -2.3552  1.1469
54740SOL     OW74533   5.407   9.219   1.189 -0.2758 -0.7989  0.1195
54740SOL    HW174534   5.492   9.178   1.205  0.3632 -0.1319 -1.4084
54740SOL    HW274535   5.409   9.298   1.244 -0.1992 -1.1282  0.5998
54741SOL     OW74536  12.321   4.488  12.752 -0.2437 -0.2745  0.7717
54741SOL    HW174537  12.271   4.540  12.691 -0.8446  0.6053  1.9772
54741SOL    HW274538  12.369   4.551  12.805  2.0273 -1.0696 -0.1916
54742SOL     OW74539   4.047   2.086   2.603  0.0049 -0.1997 -0.3173
54742SOL    HW174540   4.089   2.040   2.676 -0.5217 -0.7468 -0.3626
54742SOL    HW274541   3.967   2.037   2.586 -0.4230  0.5672 -0.5466
54743SOL     OW74542   3.708   9.263   4.319  0.0363 -0.0807 -0.2367
54743SOL    HW174543   3.662   9.338   4.282  0.0190  1.2048  2.1616
54743SOL    HW274544   3.649   9.189   4.303 -1.6411  1.0472  0.3634
54744SOL     OW74545   2.433   6.744   3.402  0.2202 -0.2333  0.1404
54744SOL    HW174546   2.493   6.678   3.369  0.1427 -1.0899  1.6538
54744SOL    HW274547   2.455   6.754   3.495 -2.3479 -1.0563  0.9291
54745SOL     OW74548   3.091  10.072   7.845 -0.3178 -0.3294 -0.6248
54745SOL    HW174549   3.174  10.119   7.853 -1.0977  1.1984 -0.9707
54745SOL    HW274550   3.105   9.990   7.892  2.1027 -1.1646 -2.5894
54746SOL     OW74551  10.366   3.678   4.600  0.5925  1.0042 -0.2986
54746SOL    HW174552  10.284   3.722   4.578  1.3012  1.8911 -1.2672
54746SOL    HW274553  10.398   3.642   4.516  0.4350 -0.7023  0.3262
54747SOL     OW74554   3.953   5.229   1.147  0.5663  0.2964 -0.2234
54747SOL    HW174555   4.040   5.251   1.183  0.3685 -1.5953  1.5924
54747SOL    HW274556   3.969   5.215   1.053  2.1891  0.2357  0.0261
54748SOL     OW74557   2.009   7.486   3.757  0.1444 -0.7820  0.3132
54748SOL    HW174558   1.967   7.510   3.840  0.1939  2.0256 -0.3790
54748SOL    HW274559   2.099   7.518   3.766  0.2615 -0.8173 -0.6702
54749SOL     OW74560   1.893   9.884   2.297  0.2280  0.8385  0.8764
54749SOL    HW174561   1.976   9.848   2.328  0.6309  0.5243 -0.4878
54749SOL    HW274562   1.858   9.931   2.372  2.1399  1.8559  1.1990
54750SOL     OW74563   8.783   4.965   2.904 -0.3035 -0.4555 -0.0820
54750SOL    HW174564   8.764   4.958   2.811 -0.8311 -1.4720  0.0893
54750SOL    HW274565   8.760   4.880   2.940 -1.7556  0.4507  1.2756
54751SOL     OW74566   6.609   9.970   0.519  0.0067  0.1603 -0.2031
54751SOL    HW174567   6.532  10.007   0.562  0.3634  0.2005  0.4023
54751SOL    HW274568   6.595   9.988   0.426 -1.7421 -1.6391 -0.3672
54752SOL     OW74569   2.149   2.958   9.373  0.0037 -0.2855 -0.2973
54752SOL    HW174570   2.090   2.955   9.449  1.0930  0.1210  0.5878
54752SOL    HW274571   2.136   2.873   9.330  0.5472 -1.2088  1.2807
54753SOL     OW74572  12.494   6.851   7.620  0.2230 -0.1589 -0.1441
54753SOL    HW174573  12.410   6.894   7.636 -1.0659 -2.0818 -1.3349
54753SOL    HW274574  12.499   6.781   7.685  0.1929 -0.9649 -0.9807
54754SOL     OW74575  12.970  11.009   8.424 -0.2472  0.3701  0.1609
54754SOL    HW174576  13.014  11.094   8.423 -0.3077  0.4013  0.2234
54754SOL    HW274577  12.937  10.999   8.513 -0.6480  0.4915  0.0323
54755SOL     OW74578   3.221  12.949  10.883  0.1581 -0.1267  0.0498
54755SOL    HW174579   3.217  12.982  10.794 -1.4884  0.2042  0.2210
54755SOL    HW274580   3.225  12.854  10.874 -1.6396 -0.1960 -0.3940
54756SOL     OW74581  10.930   1.385   5.112 -0.2579 -0.7122  0.4168
54756SOL    HW174582  10.841   1.419   5.117 -0.5860 -0.9449 -2.1484
54756SOL    HW274583  10.920   1.295   5.082  0.8384 -0.5009 -0.6772
54757SOL     OW74584  10.257  10.592   4.771 -0.1367  0.2564  0.0202
54757SOL    HW174585  10.306  10.584   4.853 -0.3992 -1.5584  0.0416
54757SOL    HW274586  10.322  10.623   4.708  0.6249 -0.4436  0.4328
54758SOL     OW74587   5.436   0.156   5.606  0.4907 -0.1522  0.0235
54758SOL    HW174588   5.519   0.169   5.653  0.0877  1.0648  0.4470
54758SOL    HW274589   5.461   0.151   5.514  1.0064  0.8145  0.0927
54759SOL     OW74590   3.363  10.442   6.950  0.1554 -0.3177  0.5333
54759SOL    HW174591   3.353  10.497   6.872  0.0707  1.8087  1.9719
54759SOL    HW274592   3.288  10.383   6.948 -0.4889  0.5018 -0.3650
54760SOL     OW74593  12.037   4.478  11.748  0.5755 -0.1312 -1.0124
54760SOL    HW174594  12.089   4.411  11.793  1.8834  1.3806 -0.1545
54760SOL    HW274595  11.976   4.510  11.815  0.7156  0.2912 -1.0841
54761SOL     OW74596   9.788  12.831   6.041 -0.3845 -0.4392  0.5775
54761SOL    HW174597   9.818  12.752   5.995  0.3419 -0.6346  1.3742
54761SOL    HW274598   9.724  12.799   6.104 -2.6148  0.0007 -1.2993
54762SOL     OW74599   2.219   5.297  12.627  0.6108 -0.1480  0.1571
54762SOL    HW174600   2.230   5.228  12.692 -3.3415 -0.0683  1.1465
54762SOL    HW274601   2.126   5.295  12.605  0.7886  3.3218 -1.5458
54763SOL     OW74602   8.790   4.370   7.013  0.2106 -0.1870 -0.5254
54763SOL    HW174603   8.747   4.291   7.045  0.7307 -1.0381 -1.8676
54763SOL    HW274604   8.805   4.353   6.920  4.1280 -0.2437 -0.0152
54764SOL     OW74605  10.133   7.378  10.211 -0.3088 -0.7779 -0.1729
54764SOL    HW174606  10.078   7.430  10.270  0.3294 -1.6906  1.2919
54764SOL    HW274607  10.217   7.424  10.211 -0.2825 -0.8267 -0.2878
54765SOL     OW74608   7.519  10.789   0.709  0.0287 -0.3771  0.6825
54765SOL    HW174609   7.484  10.813   0.623  2.0306 -0.0835 -0.1033
54765SOL    HW274610   7.507  10.868   0.763  1.7834  0.6492 -0.3442
54766SOL     OW74611   3.080   7.817   8.645 -0.2868 -0.2060 -0.3254
54766SOL    HW174612   3.055   7.825   8.552  0.5416  1.6279 -0.4429
54766SOL    HW274613   3.088   7.908   8.675 -0.0030 -0.7723  1.4129
54767SOL     OW74614   4.512   1.687   8.523 -0.0209 -0.4859 -0.1657
54767SOL    HW174615   4.512   1.763   8.581 -1.4239  0.4810 -1.3760
54767SOL    HW274616   4.458   1.713   8.448 -0.1250 -2.4952 -0.8550
54768SOL     OW74617   0.791   9.317  10.114 -0.2072  0.1223  0.1797
54768SOL    HW174618   0.815   9.327  10.207  1.4348 -1.8172  0.0327
54768SOL    HW274619   0.721   9.252  10.114  1.3069 -1.5937 -0.0179
54769SOL     OW74620   7.521   2.228   9.773  0.1840  0.3167  0.1798
54769SOL    HW174621   7.522   2.319   9.741 -0.4949 -0.0455 -0.9329
54769SOL    HW274622   7.448   2.188   9.727  0.9966 -1.0252  0.0194
54770SOL     OW74623   3.625  10.243   6.018  0.5209 -0.1623  0.3776
54770SOL    HW174624   3.626  10.210   5.929  0.3376  1.3764 -0.2240
54770SOL    HW274625   3.707  10.211   6.056  2.3233  1.8789 -1.4386
54771SOL     OW74626   9.339   5.589   8.583  0.7097  0.6485 -0.1083
54771SOL    HW174627   9.323   5.508   8.534 -0.9275  0.5613  0.5205
54771SOL    HW274628   9.306   5.658   8.525  2.6840  0.9793 -0.9211
54772SOL     OW74629   7.473   4.039   1.175 -0.0730 -0.0698 -0.5990
54772SOL    HW174630   7.471   3.995   1.260  0.7716 -1.3687 -1.2188
54772SOL    HW274631   7.493   3.970   1.113 -1.9700  0.5912 -2.0552
54773SOL     OW74632   6.221  12.881   9.537 -0.0327  0.0795 -0.3457
54773SOL    HW174633   6.219  12.963   9.488  0.1917  0.2588 -0.0594
54773SOL    HW274634   6.139  12.879   9.586 -1.1059 -0.9570 -2.0949
54774SOL     OW74635  10.164   7.439   6.972 -0.1599  0.1169 -0.3030
54774SOL    HW174636  10.165   7.514   6.912 -1.2650  0.1678 -0.2790
54774SOL    HW274637  10.237   7.456   7.033  1.2035 -0.1109 -1.8025
54775SOL     OW74638   5.630   8.424   7.065 -0.2172  0.2860 -0.1390
54775SOL    HW174639   5.612   8.516   7.042  1.1051  0.7658  0.6370
54775SOL    HW274640   5.578   8.408   7.143 -0.2359  0.4643 -0.1135
54776SOL     OW74641   5.261   2.056   8.558 -0.4689 -0.4252  1.0665
54776SOL    HW174642   5.320   2.091   8.624  2.0199 -0.4819 -0.9733
54776SOL    HW274643   5.268   2.116   8.484  1.7584 -3.4209 -1.4770
54777SOL     OW74644   6.187   8.050   0.374 -0.3446  0.5798  0.0373
54777SOL    HW174645   6.094   8.044   0.397 -0.8511 -0.8355 -2.1184
54777SOL    HW274646   6.192   8.013   0.286  2.2426  0.8720  0.0057
54778SOL     OW74647  11.938   9.124   6.726 -0.5500 -0.5594  0.5821
54778SOL    HW174648  11.940   9.122   6.630 -0.9106 -0.5721  0.5745
54778SOL    HW274649  11.959   9.034   6.752  3.4163  0.1729  0.6022
54779SOL     OW74650  12.952   7.221   7.792  1.1014 -0.1624  0.0310
54779SOL    HW174651  12.867   7.186   7.816  0.9767 -0.2157 -0.4681
54779SOL    HW274652  13.000   7.145   7.759  1.2165 -0.0660 -0.0235
54780SOL     OW74653  10.944  10.230  12.579 -0.0591  0.0780  0.0663
54780SOL    HW174654  10.893  10.301  12.615  0.4379  1.3206 -1.5579
54780SOL    HW274655  10.885  10.155  12.580 -1.0988  0.8829  0.4194
54781SOL     OW74656  11.639   8.060   6.262 -0.2393  0.0593  0.2328
54781SOL    HW174657  11.548   8.082   6.242 -0.1453 -0.4259 -0.7721
54781SOL    HW274658  11.690   8.104   6.194  0.3469  0.8420  1.1434
54782SOL     OW74659   1.197   5.942   9.218 -0.4066 -0.3519  0.6154
54782SOL    HW174660   1.252   5.940   9.297 -2.9855  2.4527  2.7526
54782SOL    HW274661   1.107   5.931   9.251 -1.5577  0.2797 -2.0116
54783SOL     OW74662   2.097   2.499   9.692  0.3545  0.4116  0.0917
54783SOL    HW174663   2.047   2.578   9.712 -1.2635 -0.8364  1.2434
54783SOL    HW274664   2.183   2.513   9.732  0.1561  1.6416  0.1123
54784SOL     OW74665  10.735   9.619   0.070  0.6978 -0.4891  0.4405
54784SOL    HW174666  10.711   9.711   0.057 -2.7365 -1.2158  0.6759
54784SOL    HW274667  10.726   9.579  -0.016  1.6872 -0.7161  0.4355
54785SOL     OW74668  12.505  12.224   4.503  0.2195 -0.1067 -0.6041
54785SOL    HW174669  12.586  12.174   4.491 -0.5648 -1.6002  0.0755
54785SOL    HW274670  12.436  12.158   4.503 -0.7975  0.8973  0.9812
54786SOL     OW74671   9.406   9.061   7.643 -0.3029 -0.6526 -0.2205
54786SOL    HW174672   9.452   9.079   7.725 -0.6578  0.5709 -0.2761
54786SOL    HW274673   9.315   9.045   7.669 -0.3097 -0.7992 -0.3310
54787SOL     OW74674  12.602   6.198   9.654 -0.0415  0.1256  0.0563
54787SOL    HW174675  12.578   6.184   9.746  0.2381  0.4956  0.1889
54787SOL    HW274676  12.521   6.185   9.605  0.0350 -1.2326  0.2340
54788SOL     OW74677   4.206   6.326   5.819  0.0998  0.6644 -0.1166
54788SOL    HW174678   4.254   6.339   5.738  0.4024 -1.3186 -0.3043
54788SOL    HW274679   4.136   6.392   5.816  1.4142  2.0822 -0.9052
54789SOL     OW74680   0.597   4.229  11.124 -0.1989 -0.5094 -0.1436
54789SOL    HW174681   0.550   4.310  11.104 -1.3852 -0.5789  2.0283
54789SOL    HW274682   0.565   4.166  11.060 -0.2371  0.3974 -1.0407
54790SOL     OW74683   5.798  10.256   8.251  0.3765 -0.1618 -0.2347
54790SOL    HW174684   5.708  10.279   8.231  0.0562 -1.1990 -0.0316
54790SOL    HW274685   5.832  10.332   8.299 -0.8408 -0.3493  0.9696
54791SOL     OW74686   2.988  12.715   9.985  0.4373 -0.1557 -0.1355
54791SOL    HW174687   3.056  12.702  10.051  0.0552  1.0480  0.5219
54791SOL    HW274688   3.005  12.803   9.951 -0.0260 -0.3498 -0.8796
54792SOL     OW74689   1.050   4.653   4.093  0.2180 -0.1922 -0.4458
54792SOL    HW174690   1.144   4.650   4.114  0.2626 -1.0333 -0.7489
54792SOL    HW274691   1.010   4.694   4.170  0.7692 -0.2948 -0.0955
54793SOL     OW74692   7.861   3.911   8.501  0.0735  0.4617 -0.1917
54793SOL    HW174693   7.871   3.823   8.537  0.5684 -0.3156 -2.0901
54793SOL    HW274694   7.948   3.950   8.507 -0.5812  1.7551  2.7023
54794SOL     OW74695  10.751   9.731  11.006 -0.4816  0.0440 -0.2416
54794SOL    HW174696  10.677   9.787  10.982 -1.3967 -1.4631 -1.1029
54794SOL    HW274697  10.794   9.711  10.922  0.2003 -0.0480  0.1186
54795SOL     OW74698   9.278  11.448  11.897 -0.5809  0.7655  0.0412
54795SOL    HW174699   9.307  11.458  11.988 -2.3051  0.0189  0.7093
54795SOL    HW274700   9.285  11.535  11.859  0.2884  1.0551  0.8447
54796SOL     OW74701   5.099   1.238  11.687 -0.9952  0.6233 -0.8631
54796SOL    HW174702   5.110   1.333  11.697 -0.3133  0.5599 -0.9980
54796SOL    HW274703   5.177   1.209  11.641  0.3324 -0.4408  1.8100
54797SOL     OW74704   0.229   4.881   3.756  0.0390  0.6508  0.0564
54797SOL    HW174705   0.225   4.786   3.748  0.7609  0.6200  0.0246
54797SOL    HW274706   0.205   4.899   3.847 -3.8773  0.7148 -0.7934
54798SOL     OW74707   1.343   6.577  10.982  0.3304 -0.0946 -0.9189
54798SOL    HW174708   1.329   6.546  10.892  0.4577 -0.9252 -0.6507
54798SOL    HW274709   1.340   6.499  11.036  3.6000 -0.0713 -0.5475
54799SOL     OW74710   7.494  11.445   6.062 -0.3827 -0.8160 -0.1350
54799SOL    HW174711   7.487  11.435   5.967 -0.6172  1.7940 -0.4436
54799SOL    HW274712   7.404  11.458   6.092 -0.1681 -0.2222  0.2613
54800SOL     OW74713   4.938   7.687   7.215  0.4464 -0.3797 -0.2922
54800SOL    HW174714   4.926   7.775   7.251 -0.6297 -1.1729  1.3991
54800SOL    HW274715   5.022   7.658   7.250  1.0351  0.1050 -1.2344
54801SOL     OW74716   0.393  10.069   9.255  0.0689  0.7271  0.0435
54801SOL    HW174717   0.319  10.040   9.203  1.5465 -1.2443 -1.1495
54801SOL    HW274718   0.403  10.162   9.235 -0.9227  0.5775 -1.2403
54802SOL     OW74719   3.837   5.943   0.606 -0.7235 -0.5724  0.1004
54802SOL    HW174720   3.911   5.889   0.632  0.2053  0.0826 -1.0332
54802SOL    HW274721   3.829   6.009   0.675 -0.6550 -1.0240  0.5401
54803SOL     OW74722   5.318   7.185  12.792 -0.0247 -0.0768  0.0855
54803SOL    HW174723   5.289   7.137  12.869  1.2692 -0.3114  0.4428
54803SOL    HW274724   5.242   7.184  12.733 -1.4602  1.1793  1.8126
54804SOL     OW74725  10.678  12.474   5.294 -0.0793 -0.4133  0.0330
54804SOL    HW174726  10.685  12.382   5.269  0.2963 -0.3380 -0.1514
54804SOL    HW274727  10.760  12.492   5.340 -0.2640 -0.2391  0.2974
54805SOL     OW74728   5.540   2.237   2.385 -0.4878 -0.1868 -0.1439
54805SOL    HW174729   5.621   2.268   2.344 -0.3958 -0.3402 -0.0813
54805SOL    HW274730   5.529   2.293   2.462  0.0262 -0.7244  0.3304
54806SOL     OW74731   6.699  11.617   1.814  0.1992 -0.0898  0.5600
54806SOL    HW174732   6.687  11.608   1.719 -1.2686 -0.3884  0.7577
54806SOL    HW274733   6.757  11.544   1.837 -0.7460 -1.0167  0.1147
54807SOL     OW74734  11.220   8.689   3.324 -0.4692 -0.0273  0.4131
54807SOL    HW174735  11.186   8.697   3.414 -1.4220 -1.2776  0.1980
54807SOL    HW274736  11.227   8.595   3.310  0.2163  0.1701 -0.6419
54808SOL     OW74737   7.989  12.561   7.102  0.1153  0.2226 -0.2251
54808SOL    HW174738   8.064  12.562   7.042 -0.8912  2.3653 -1.5680
54808SOL    HW274739   7.953  12.472   7.094  0.2279  0.3145 -2.6024
54809SOL     OW74740   2.426  12.455   2.347 -0.1763 -0.0646  0.7243
54809SOL    HW174741   2.503  12.510   2.336 -0.8898  0.7488 -0.5066
54809SOL    HW274742   2.435  12.417   2.434  2.0258 -0.6642  0.3100
54810SOL     OW74743   1.189   7.762  10.613 -0.4161  1.0587  0.3650
54810SOL    HW174744   1.175   7.807  10.696 -0.6097 -0.6887  1.3225
54810SOL    HW274745   1.242   7.686  10.636  0.7270  1.2622 -1.3515
54811SOL     OW74746   2.505   2.650   8.647 -0.3165 -0.5355 -0.8142
54811SOL    HW174747   2.592   2.609   8.653 -0.1471 -0.1729 -0.8011
54811SOL    HW274748   2.523   2.743   8.639 -0.7173 -0.4156 -0.3389
54812SOL     OW74749   0.988   5.615   1.629  0.2083  0.3507  0.1324
54812SOL    HW174750   1.002   5.540   1.572  0.3994  1.3329 -1.1557
54812SOL    HW274751   0.895   5.609   1.653  0.4827 -0.9012  0.9719
54813SOL     OW74752   9.778   1.318   2.142 -1.0392  0.1746  0.7089
54813SOL    HW174753   9.753   1.232   2.108 -0.6632  1.0349 -2.0083
54813SOL    HW274754   9.697   1.370   2.137 -1.3686 -0.0766  2.7246
54814SOL     OW74755   1.888   8.318   5.683 -0.1821 -0.4047 -0.0047
54814SOL    HW174756   1.910   8.384   5.750 -0.8861  1.1637 -1.2454
54814SOL    HW274757   1.793   8.309   5.688 -0.2834 -0.0347 -0.9634
54815SOL     OW74758   8.761  10.495   8.612  0.4293  0.2974 -0.2682
54815SOL    HW174759   8.793  10.420   8.662  0.8867 -0.2198 -1.3087
54815SOL    HW274760   8.753  10.566   8.676 -1.6427 -1.0625  1.1198
54816SOL     OW74761   9.961   7.438   7.157  0.0614 -0.5856 -0.5113
54816SOL    HW174762   9.999   7.363   7.203  0.7063  0.0382 -0.0011
54816SOL    HW274763  10.022   7.456   7.086  0.3266 -0.0604 -0.1559
54817SOL     OW74764   1.881  10.908   6.461  0.1541  0.4035 -0.0142
54817SOL    HW174765   1.961  10.894   6.410  0.2766  1.0417 -0.0088
54817SOL    HW274766   1.832  10.826   6.453  1.0251 -0.1628  0.3814
54818SOL     OW74767   0.626   5.437  12.710  0.4313 -0.1119  0.0868
54818SOL    HW174768   0.640   5.460  12.619  0.0844  0.2461  0.1225
54818SOL    HW274769   0.530   5.431  12.719  0.4522  0.1432  0.4951
54819SOL     OW74770   4.673   0.111   1.628 -0.3348  0.5083 -0.0976
54819SOL    HW174771   4.747   0.080   1.576 -0.4101  1.5820 -0.8861
54819SOL    HW274772   4.596   0.097   1.572 -0.7435 -0.5700  0.7019
54820SOL     OW74773   0.521  12.085  11.221 -0.0913  0.3663  0.0257
54820SOL    HW174774   0.537  12.176  11.248  1.5715 -0.0819  0.6859
54820SOL    HW274775   0.555  12.032  11.293 -2.0930 -0.8176  0.1857
54821SOL     OW74776   9.594  11.260  11.221 -0.6466  0.8066  0.2547
54821SOL    HW174777   9.626  11.305  11.142  0.7988 -1.2659 -0.4393
54821SOL    HW274778   9.538  11.190  11.187  0.1741 -0.2474  1.0268
54822SOL     OW74779   8.036   6.475   8.159  0.0770 -0.3595 -0.3792
54822SOL    HW174780   7.969   6.518   8.213  1.0266  0.5464  0.1169
54822SOL    HW274781   8.018   6.382   8.168 -1.2420 -0.1397 -0.4289
54823SOL     OW74782  11.987   3.523   2.509  0.5332  0.1516 -0.3122
54823SOL    HW174783  11.939   3.481   2.581 -1.7324  1.1197 -1.1745
54823SOL    HW274784  11.998   3.454   2.443  1.4890 -0.3959  0.3812
54824SOL     OW74785   1.660   2.696   1.822  0.0090 -0.4754 -0.1395
54824SOL    HW174786   1.716   2.662   1.753  2.2609  2.0389  0.2781
54824SOL    HW274787   1.611   2.767   1.781 -0.0585 -0.2030  0.4053
54825SOL     OW74788   0.631   1.435   8.887 -0.0861  0.1844  0.0399
54825SOL    HW174789   0.688   1.508   8.914  0.4495  0.0599 -0.7356
54825SOL    HW274790   0.577   1.418   8.964 -1.6820  2.7700 -0.3823
54826SOL     OW74791   3.061   6.041   3.741 -0.0944  0.3293 -0.5557
54826SOL    HW174792   2.988   6.031   3.680 -1.1987  0.8837  0.6315
54826SOL    HW274793   3.060   5.962   3.794  0.7630 -0.0812 -1.1378
54827SOL     OW74794   0.256   2.879   5.263  0.4384  0.3895 -0.0771
54827SOL    HW174795   0.220   2.966   5.244  1.8008  0.7325 -1.3003
54827SOL    HW274796   0.201   2.844   5.333 -2.0932  0.9535 -1.6781
54828SOL     OW74797   9.356   9.975   7.260  0.2166  0.0956 -0.1143
54828SOL    HW174798   9.395   9.954   7.345 -0.6369 -2.2201 -0.2288
54828SOL    HW274799   9.394  10.060   7.237  1.7198  0.0225  1.8105
54829SOL     OW74800   2.702   8.673   8.607  0.2076  0.2530 -0.3530
54829SOL    HW174801   2.634   8.605   8.604  1.5388 -1.1015 -1.2505
54829SOL    HW274802   2.750   8.662   8.525 -0.0619  2.9081 -0.9529
54830SOL     OW74803   9.039  12.066   3.072  0.0150  0.1351  0.5406
54830SOL    HW174804   9.099  12.008   3.118 -0.3405 -1.2938 -0.7475
54830SOL    HW274805   9.011  12.129   3.139  2.1229  0.2209  1.4095
54831SOL     OW74806  10.256   8.053  11.611 -0.2864 -0.0375  0.2538
54831SOL    HW174807  10.217   8.118  11.553  0.1427 -0.0580 -0.0632
54831SOL    HW274808  10.317   8.104  11.666  0.4144 -0.2371 -0.3253
54832SOL     OW74809   5.703   4.836   4.181  0.0620 -0.6670  0.5635
54832SOL    HW174810   5.655   4.834   4.264  0.9688 -0.3798  1.1213
54832SOL    HW274811   5.778   4.778   4.195  1.0517  0.5284  0.5002
54833SOL     OW74812   6.687   3.835   9.562 -0.1367 -0.3344 -0.3760
54833SOL    HW174813   6.739   3.770   9.514  0.6090  0.5309 -0.7502
54833SOL    HW274814   6.737   3.916   9.556 -0.3077 -0.0578  1.3899
54834SOL     OW74815   0.106   9.852   0.142 -0.3652 -0.4651  0.2863
54834SOL    HW174816   0.184   9.887   0.099  0.2630  1.6392  2.8692
54834SOL    HW274817   0.057   9.930   0.170 -2.2750 -1.7253  0.6939
54835SOL     OW74818  12.359  10.038   0.849 -0.1271  0.3967  0.7123
54835SOL    HW174819  12.408  10.000   0.776 -1.0114  1.0225 -0.2378
54835SOL    HW274820  12.301   9.967   0.878 -0.8102  0.5682 -0.1730
54836SOL     OW74821   4.601   1.830   4.482  0.0458 -0.6383  0.1737
54836SOL    HW174822   4.618   1.915   4.524 -0.9238  0.9105 -2.3484
54836SOL    HW274823   4.644   1.836   4.397 -1.8377 -1.8222 -0.9292
54837SOL     OW74824   4.855   7.101   7.415 -0.7857 -0.4905 -0.5010
54837SOL    HW174825   4.779   7.069   7.465 -0.1109 -1.2522  0.0547
54837SOL    HW274826   4.930   7.083   7.471 -0.2070  0.5115 -0.9328
54838SOL     OW74827   7.609   5.970   6.337 -0.4986 -0.0510  0.1165
54838SOL    HW174828   7.624   5.895   6.279 -2.0033 -0.0214 -0.3608
54838SOL    HW274829   7.663   5.952   6.414  0.9071 -0.4982 -0.9316
54839SOL     OW74830  11.605  12.455  10.780 -0.2484 -0.1907 -0.0385
54839SOL    HW174831  11.695  12.464  10.812 -0.6230  1.1764  0.7136
54839SOL    HW274832  11.596  12.362  10.762  1.1558 -0.4404  0.3763
54840SOL     OW74833   1.059  10.821   5.658  0.1225 -0.3956  0.3010
54840SOL    HW174834   1.141  10.868   5.671  0.6140 -1.0021 -0.5833
54840SOL    HW274835   1.000  10.857   5.725  0.7963  0.7491  0.2973
54841SOL     OW74836  10.329   6.599   2.316  0.0495 -0.2340 -0.1000
54841SOL    HW174837  10.371   6.654   2.250 -3.0322  1.3510 -0.9729
54841SOL    HW274838  10.263   6.549   2.267  0.9103 -2.7341  1.1274
54842SOL     OW74839   5.189  12.841   2.394  0.4995 -0.0701 -0.4233
54842SOL    HW174840   5.237  12.895   2.457  0.9618 -1.0702  0.1010
54842SOL    HW274841   5.102  12.832   2.433  0.9554 -1.1826  0.4150
54843SOL     OW74842   4.123   9.915   7.633 -0.8067 -0.3151 -0.2374
54843SOL    HW174843   4.057   9.932   7.565 -1.6463 -0.2505  0.5778
54843SOL    HW274844   4.082   9.851   7.690 -0.3827  0.1500  0.6008
54844SOL     OW74845   2.369   0.101   5.004  0.0267  0.2611  0.4003
54844SOL    HW174846   2.303   0.169   4.990  0.3050  0.5997  0.7202
54844SOL    HW274847   2.427   0.109   4.928 -0.0144  0.2984  0.3725
54845SOL     OW74848  10.363   8.799  11.375  0.3765  0.5284  0.1846
54845SOL    HW174849  10.454   8.815  11.402  1.2491 -0.2727 -2.0068
54845SOL    HW274850  10.366   8.806  11.279 -1.3517 -1.9211 -0.1409
54846SOL     OW74851   8.855   0.098   5.078  0.3535  0.3220 -0.3887
54846SOL    HW174852   8.875   0.102   5.172 -1.2267  1.8272 -0.0852
54846SOL    HW274853   8.921   0.038   5.043  1.0763 -0.1615  1.6479
54847SOL     OW74854  10.975   2.754  10.464  0.4953 -0.0742  0.2506
54847SOL    HW174855  10.999   2.663  10.446 -0.3423 -0.1055 -0.8609
54847SOL    HW274856  10.959   2.757  10.558  1.2555 -0.8941  0.4215
54848SOL     OW74857   6.382  10.762   9.967  0.4518 -0.7972 -0.4645
54848SOL    HW174858   6.385  10.773  10.062 -0.2351  1.6207 -0.6602
54848SOL    HW274859   6.444  10.692   9.950  1.0806 -0.8627  1.7092
54849SOL     OW74860   7.791  10.704  10.130  0.1320  0.1712 -0.2617
54849SOL    HW174861   7.738  10.774  10.092  1.2942  1.0216 -0.3508
54849SOL    HW274862   7.833  10.744  10.206 -1.3998 -1.2263  1.4359
54850SOL     OW74863  10.868   8.645  10.691  0.4452 -0.9796  0.3449
54850SOL    HW174864  10.912   8.564  10.716  0.9094 -0.2913  1.8237
54850SOL    HW274865  10.939   8.709  10.681  0.0170 -0.5613 -0.1030
54851SOL     OW74866   3.211   1.101   4.781  0.1557 -0.6415  0.5574
54851SOL    HW174867   3.218   1.196   4.783  0.3542 -0.5941 -0.9138
54851SOL    HW274868   3.117   1.083   4.782  0.1254 -0.4835  1.7068
54852SOL     OW74869   2.318   9.452  11.323 -0.1688 -0.1710 -0.0508
54852SOL    HW174870   2.358   9.461  11.410  1.1310 -0.4675 -0.6000
54852SOL    HW274871   2.265   9.372  11.330  1.5918 -1.4037 -0.1132
54853SOL     OW74872   9.564  11.357   6.346  0.0543  0.3810 -0.5904
54853SOL    HW174873   9.631  11.381   6.282  0.1250 -0.2340 -0.7502
54853SOL    HW274874   9.490  11.327   6.294 -0.0469  0.2941 -0.3971
54854SOL     OW74875  10.213   6.489   7.089  0.1180 -0.0315  0.0862
54854SOL    HW174876  10.264   6.571   7.091 -0.0581  0.1235 -0.9334
54854SOL    HW274877  10.122   6.517   7.102  0.0130 -0.0093 -0.6420
54855SOL     OW74878  10.098  11.223   9.211  0.1225  0.0078 -0.1116
54855SOL    HW174879  10.171  11.169   9.243  0.2899  1.0828  1.4122
54855SOL    HW274880  10.135  11.270   9.136  0.3037 -1.1267 -0.7549
54856SOL     OW74881   1.711   2.528  12.810 -0.6715  0.2862  0.0423
54856SOL    HW174882   1.794   2.561  12.775 -0.3069 -0.1394  0.4754
54856SOL    HW274883   1.650   2.602  12.803 -0.4061  0.4373 -0.7798
54857SOL     OW74884   8.023   8.193   4.848 -0.1418 -0.5760  0.4971
54857SOL    HW174885   8.008   8.282   4.816 -1.2855 -0.2807  1.7611
54857SOL    HW274886   8.004   8.137   4.773  0.8830  0.2469 -0.4022
54858SOL     OW74887   1.080   7.690  10.232  0.0825  0.0475 -0.0075
54858SOL    HW174888   1.096   7.779  10.202 -1.6479  0.8445  1.2739
54858SOL    HW274889   1.043   7.700  10.320 -2.9654 -1.7370 -0.9425
54859SOL     OW74890   0.835  12.428   1.594  0.3861 -0.1363  0.7476
54859SOL    HW174891   0.828  12.360   1.661  0.4015  1.0089  1.9352
54859SOL    HW274892   0.756  12.417   1.541 -0.0732 -0.4927  1.4887
54860SOL     OW74893   9.109  12.083  10.198 -0.1085  0.2061  0.2884
54860SOL    HW174894   9.178  12.024  10.168  1.5911  0.5683  3.1551
54860SOL    HW274895   9.028  12.034  10.181  0.9653 -1.2777 -0.9251
54861SOL     OW74896   5.040   0.689  10.591 -0.0337  0.3959  0.0591
54861SOL    HW174897   4.984   0.764  10.571  2.1962  2.4128  0.8946
54861SOL    HW274898   5.106   0.691  10.521 -0.5386 -1.5166 -0.5255
54862SOL     OW74899  12.900   3.883  10.125 -0.1477 -0.1781  0.1267
54862SOL    HW174900  12.959   3.917  10.058 -0.2795 -0.4530 -0.1321
54862SOL    HW274901  12.890   3.956  10.187 -0.0298  0.0815 -0.1547
54863SOL     OW74902  12.692  11.939   7.405 -0.2615  0.2598 -0.0873
54863SOL    HW174903  12.669  11.904   7.491 -0.2524 -1.7709 -0.8564
54863SOL    HW274904  12.608  11.952   7.361 -0.3766  2.8263  0.7043
54864SOL     OW74905   3.037  10.577   9.524  0.3890 -0.6722 -0.1705
54864SOL    HW174906   2.974  10.551   9.457  0.2372 -2.2256  0.5224
54864SOL    HW274907   3.111  10.611   9.476  0.0806 -1.2994 -1.1208
54865SOL     OW74908  12.980   5.296   8.467  0.1486  0.0171 -0.0483
54865SOL    HW174909  13.017   5.371   8.421  0.5160 -0.1700 -0.0612
54865SOL    HW274910  12.886   5.299   8.447  0.3722 -0.3148 -1.1726
54866SOL     OW74911   9.261   7.434   4.568 -0.1595 -0.0554  0.1737
54866SOL    HW174912   9.331   7.443   4.633 -0.1001 -1.6848  0.3804
54866SOL    HW274913   9.273   7.346   4.533  0.7073  1.2283 -3.1177
54867SOL     OW74914   3.725   4.056   0.911  0.4048  0.1360  0.3799
54867SOL    HW174915   3.702   4.135   0.960 -0.5031 -1.9689  3.6748
54867SOL    HW274916   3.641   4.021   0.881  0.2482 -1.7073  2.6967
54868SOL     OW74917   6.645   5.316   2.149 -0.0298 -0.1159  0.0987
54868SOL    HW174918   6.740   5.320   2.144 -0.0453  0.3371  0.0731
54868SOL    HW274919   6.621   5.384   2.212 -0.3399 -0.1684  0.0418
54869SOL     OW74920   8.143   0.922   0.339 -0.8839  0.3931  0.2326
54869SOL    HW174921   8.216   0.894   0.393  1.3962  2.6370 -1.4545
54869SOL    HW274922   8.118   0.843   0.290 -0.5030 -0.7186  1.7625
54870SOL     OW74923   8.690   8.697   1.448  0.2037  0.0124  0.2023
54870SOL    HW174924   8.754   8.765   1.427 -1.0246  1.2565  0.4190
54870SOL    HW274925   8.712   8.625   1.388 -0.2110  1.6524 -2.0184
54871SOL     OW74926  12.525  11.017   7.069  0.4457 -0.9179  0.3365
54871SOL    HW174927  12.438  11.022   7.031 -0.0102 -0.2165  1.3970
54871SOL    HW274928  12.572  11.091   7.030  0.2307 -0.6871  0.5014
54872SOL     OW74929   4.481   2.596  11.729  0.2256 -0.4451  0.3724
54872SOL    HW174930   4.433   2.520  11.763  1.8708 -1.3487  0.7701
54872SOL    HW274931   4.567   2.561  11.704  0.3976  0.9493 -1.1632
54873SOL     OW74932   1.069   4.918   2.510 -0.1670 -0.0537  0.3802
54873SOL    HW174933   0.976   4.940   2.499  0.0570  0.7752  0.1270
54873SOL    HW274934   1.082   4.918   2.605 -0.6531 -1.1629  0.4621
54874SOL     OW74935   5.065   6.027   9.517  0.4118 -0.6717  0.1111
54874SOL    HW174936   5.047   6.014   9.611  0.4153  0.4441  0.2806
54874SOL    HW274937   5.041   6.118   9.501  0.8027 -0.7370 -0.8910
54875SOL     OW74938  10.249   1.216   8.379  0.0393 -0.6886  0.5939
54875SOL    HW174939  10.278   1.226   8.470 -1.4251 -1.5687  1.1998
54875SOL    HW274940  10.326   1.183   8.333  0.9296  0.1518  1.4127
54876SOL     OW74941   3.066   9.540   5.162  0.3189  0.3011 -0.0097
54876SOL    HW174942   3.149   9.505   5.196 -0.4473 -0.5011  1.1045
54876SOL    HW274943   3.002   9.472   5.181 -0.8331  1.4349  0.2811
54877SOL     OW74944  10.960   5.024   9.579  0.4560 -0.2530 -0.2323
54877SOL    HW174945  11.030   5.089   9.588  0.7200 -0.5232 -0.3044
54877SOL    HW274946  10.879   5.074   9.587  0.6060  0.4138 -2.3147
54878SOL     OW74947  11.183   6.393  12.289  0.2822 -0.2806  0.8790
54878SOL    HW174948  11.090   6.409  12.305 -0.3699 -2.7928  0.1169
54878SOL    HW274949  11.220   6.479  12.270 -2.2122  0.6159 -0.3273
54879SOL     OW74950   3.313   2.279   4.992  0.2138  0.4306 -0.1241
54879SOL    HW174951   3.247   2.299   4.926 -0.5951  0.1442  0.5827
54879SOL    HW274952   3.386   2.337   4.972 -0.1110  0.4961 -1.1334
54880SOL     OW74953   2.978   4.681   9.964  0.2984 -0.5386  0.1839
54880SOL    HW174954   3.035   4.640   9.899  0.4802  0.3676 -0.2420
54880SOL    HW274955   3.023   4.761   9.989  0.1466 -0.7938  1.3207
54881SOL     OW74956   7.432   1.454   6.743  0.1102 -0.4718  0.6894
54881SOL    HW174957   7.453   1.435   6.652 -0.8236 -1.8674  0.7359
54881SOL    HW274958   7.503   1.510   6.773  0.1153  0.5052 -1.0544
54882SOL     OW74959   4.989  12.035   3.602  0.2574 -0.3121 -0.1618
54882SOL    HW174960   5.062  12.014   3.544  0.4374  0.3256 -0.1743
54882SOL    HW274961   5.019  12.111   3.652  0.3574 -1.2511  1.2346
54883SOL     OW74962   9.423   6.298   6.627 -0.8220 -0.0887  0.3308
54883SOL    HW174963   9.388   6.360   6.563 -1.3336 -1.1563 -0.4606
54883SOL    HW274964   9.347   6.273   6.680 -1.3609 -2.4547 -1.4255
54884SOL     OW74965   4.385   0.905  10.776 -0.5409  0.2444  0.2715
54884SOL    HW174966   4.429   0.880  10.857 -2.1452 -2.1053  0.5236
54884SOL    HW274967   4.322   0.972  10.802 -0.0628  0.5381  0.6846
54885SOL     OW74968   2.048   4.378   6.361 -0.0761 -0.3109 -0.8267
54885SOL    HW174969   2.066   4.443   6.429  0.6966 -0.0046 -1.3042
54885SOL    HW274970   2.112   4.308   6.376 -0.6587 -0.7934 -0.5438
54886SOL     OW74971   2.638   8.664   1.750 -0.1566 -0.4294  0.4145
54886SOL    HW174972   2.693   8.617   1.812 -2.2812 -2.3145  1.0208
54886SOL    HW274973   2.621   8.749   1.791  0.6211 -0.6222  1.1419
54887SOL     OW74974   6.519   6.863   9.401  1.0657  0.0673 -0.5202
54887SOL    HW174975   6.466   6.840   9.478 -1.4024 -0.9807 -2.3859
54887SOL    HW274976   6.588   6.797   9.398  1.0524 -0.0113  0.6713
54888SOL     OW74977   5.043   9.490  12.699 -0.7341  0.6171 -0.2753
54888SOL    HW174978   4.961   9.444  12.682  0.1076 -1.3372  0.6945
54888SOL    HW274979   5.102   9.461  12.630  0.2336 -0.9880  1.1389
54889SOL     OW74980   7.739  11.304   9.890  0.1606  0.2841 -0.1230
54889SOL    HW174981   7.689  11.247   9.948 -1.2772 -0.0752 -1.6335
54889SOL    HW274982   7.723  11.392   9.924 -0.5665  0.0786  0.0806
54890SOL     OW74983   5.891   1.258   7.583 -0.2363  0.4741  0.1149
54890SOL    HW174984   5.952   1.319   7.543 -0.5921  1.1228  0.5503
54890SOL    HW274985   5.826   1.313   7.625  0.1451 -0.1685  1.6250
54891SOL     OW74986   0.405   9.055   4.490  0.1594 -0.4059 -0.0015
54891SOL    HW174987   0.394   9.083   4.581  0.5133 -0.4080  0.0403
54891SOL    HW274988   0.329   8.998   4.474 -0.3766  0.2859  0.0216
54892SOL     OW74989   0.066  12.708   5.846  0.2903  0.4214  0.2081
54892SOL    HW174990   0.093  12.620   5.823  0.3195  0.9288 -1.8683
54892SOL    HW274991  -0.017  12.696   5.893  0.3792 -0.7129  0.0993
54893SOL     OW74992   9.627   7.500  10.400  0.7898 -0.1340  0.3423
54893SOL    HW174993   9.659   7.541  10.480 -0.0270  0.9954  0.1135
54893SOL    HW274994   9.584   7.420  10.430 -2.0167  1.6284  1.4291
54894SOL     OW74995   7.608   8.920   3.955  1.0029 -0.0002 -0.6338
54894SOL    HW174996   7.647   9.007   3.965 -1.6673  1.0521  2.9117
54894SOL    HW274997   7.517   8.938   3.929 -0.1458 -1.4607  1.9850
54895SOL     OW74998   6.848  10.273   9.110  0.2884  0.6125 -0.4572
54895SOL    HW174999   6.886  10.361   9.116  0.8320  0.4071 -0.7543
54895SOL    HW275000   6.765  10.286   9.064 -1.2768  1.4226  2.3170
54896SOL     OW75001   4.571   7.843   9.440 -0.2291 -0.2126  0.0060
54896SOL    HW175002   4.522   7.858   9.521  1.0933  0.0694  0.7824
54896SOL    HW275003   4.542   7.757   9.410 -0.9153 -0.2125  0.6425
54897SOL     OW75004   0.791   3.080   6.416 -0.9000  1.2752  0.6028
54897SOL    HW175005   0.768   3.014   6.481  0.7914 -0.8709 -0.8284
54897SOL    HW275006   0.879   3.110   6.442  0.7739 -1.1893 -1.6760
54898SOL     OW75007   9.038   7.919   9.537  0.1105  0.2373  0.4171
54898SOL    HW175008   9.035   7.890   9.446  0.5970 -0.7718  0.7067
54898SOL    HW275009   9.126   7.894   9.566  0.0393  0.7665  1.1002
54899SOL     OW75010   9.525   1.935   9.671  0.0105 -0.0936 -0.3043
54899SOL    HW175011   9.566   2.012   9.711 -0.4008 -1.0080  2.0450
54899SOL    HW275012   9.433   1.941   9.698 -0.5251 -0.2640 -1.9864
54900SOL     OW75013  11.997   3.697   3.155 -0.2557  0.0093 -0.0515
54900SOL    HW175014  12.025   3.748   3.232 -0.9790 -0.6567  0.6592
54900SOL    HW275015  12.029   3.609   3.172  0.3900  0.0450 -0.9687
54901SOL     OW75016  12.503   4.875   7.409 -0.3589  0.9996 -0.4803
54901SOL    HW175017  12.590   4.905   7.438  0.3931 -0.1009 -1.4911
54901SOL    HW275018  12.519   4.835   7.324 -2.2001  2.5184 -1.6165
54902SOL     OW75019  10.295   6.275   3.881 -0.3109  0.3020 -0.1088
54902SOL    HW175020  10.373   6.220   3.886 -1.3229 -1.0589  1.3793
54902SOL    HW275021  10.267   6.268   3.790  0.2289 -0.7151 -0.2059
54903SOL     OW75022   9.922   3.281   6.378 -0.1215 -0.5217  0.2489
54903SOL    HW175023   9.948   3.191   6.355  2.3265  0.4916 -1.3056
54903SOL    HW275024   9.829   3.284   6.360  0.3449 -1.8336 -3.0702
54904SOL     OW75025   2.191  12.510   4.034 -0.5221  0.2300  0.5814
54904SOL    HW175026   2.193  12.416   4.052 -1.5306  0.1358  0.2437
54904SOL    HW275027   2.229  12.550   4.112  0.8452 -0.4927  0.3241
54905SOL     OW75028  11.565  10.048   0.590  0.2257 -0.5534  0.2118
54905SOL    HW175029  11.511   9.970   0.575 -0.9178  0.4675 -1.2734
54905SOL    HW275030  11.609  10.064   0.506  1.3345 -0.2287  0.8297
54906SOL     OW75031   8.473   8.071   8.235 -0.1213  0.3955 -0.0712
54906SOL    HW175032   8.454   8.162   8.210 -0.5174  0.2399 -0.3419
54906SOL    HW275033   8.394   8.041   8.279  0.3694  0.4874  0.8872
54907SOL     OW75034   2.017   5.762  12.099  0.5532 -0.3163 -0.4836
54907SOL    HW175035   2.071   5.746  12.022  1.3807  1.5007 -0.3334
54907SOL    HW275036   1.972   5.679  12.114  2.2899 -1.4914 -1.3904
54908SOL     OW75037   8.734   9.762   6.166  0.3915  0.1548  0.0308
54908SOL    HW175038   8.710   9.712   6.088 -0.6930 -0.5542  0.7937
54908SOL    HW275039   8.650   9.786   6.206  0.9326  0.4721  1.0061
54909SOL     OW75040   8.681   1.793  11.287 -0.5613 -0.0415  0.7880
54909SOL    HW175041   8.689   1.838  11.371 -0.0445  0.4820  0.4646
54909SOL    HW275042   8.596   1.822  11.253 -0.2468  0.6597  0.5984
54910SOL     OW75043  10.339   5.204  11.293  0.4041 -0.2515  0.4068
54910SOL    HW175044  10.266   5.210  11.354  0.7786 -2.5399  1.1807
54910SOL    HW275045  10.325   5.275  11.231 -1.7984  0.1035  1.2363
54911SOL     OW75046   9.985   1.938   7.714 -0.0824  0.0789  0.0655
54911SOL    HW175047   9.971   1.844   7.704 -1.5407  0.4214 -1.6842
54911SOL    HW275048   9.985   1.952   7.809  0.3125 -1.6770  0.3635
54912SOL     OW75049   0.542   1.586   7.205 -0.0610 -0.1608 -0.0490
54912SOL    HW175050   0.594   1.515   7.167  0.8431 -0.5390  1.7588
54912SOL    HW275051   0.540   1.654   7.138  1.2782 -0.8597 -0.8381
54913SOL     OW75052   8.412   8.891  10.045  0.5942 -0.0584 -0.0176
54913SOL    HW175053   8.353   8.929   9.979  0.8630  1.6138  0.6374
54913SOL    HW275054   8.377   8.923  10.129  0.8060 -1.3788  0.5927
54914SOL     OW75055   5.760   1.157   1.341 -0.4586  0.1601  0.1307
54914SOL    HW175056   5.714   1.241   1.348 -3.2289 -1.1312 -0.9172
54914SOL    HW275057   5.843   1.171   1.386 -0.4034  3.7017 -0.8070
54915SOL     OW75058   9.557   9.168  11.665  0.1351 -0.9411 -0.1981
54915SOL    HW175059   9.636   9.115  11.679  0.4198 -0.5044 -0.1091
54915SOL    HW275060   9.517   9.131  11.586  0.7124 -0.8387 -0.5490
54916SOL     OW75061   1.996   9.526  12.845  0.2938 -0.4497  0.1524
54916SOL    HW175062   2.056   9.497  12.914 -2.1366 -2.3839  1.6422
54916SOL    HW275063   2.004   9.460  12.777  1.0735  0.2460 -0.4461
54917SOL     OW75064  12.644   3.025   4.545 -0.3838 -0.2057  0.5790
54917SOL    HW175065  12.558   2.984   4.533 -0.4312 -0.3961  1.4782
54917SOL    HW275066  12.701   2.983   4.481 -0.7523 -0.7133  0.5806
54918SOL     OW75067   6.291   7.717  12.411  0.2358  0.5064 -0.2595
54918SOL    HW175068   6.363   7.713  12.348 -0.7998  0.1011 -1.4489
54918SOL    HW275069   6.334   7.734  12.495  1.7873 -0.5977 -0.7859
54919SOL     OW75070   1.451   5.107   6.997  0.9743 -0.0667 -0.0049
54919SOL    HW175071   1.401   5.159   6.934 -1.5305 -0.6547  1.3667
54919SOL    HW275072   1.474   5.170   7.066 -0.1502 -0.2687  0.5860
54920SOL     OW75073  11.754   8.929   0.640  0.1256  0.1973  1.0722
54920SOL    HW175074  11.682   8.967   0.589 -1.7184 -2.1104  1.7878
54920SOL    HW275075  11.816   8.898   0.574 -1.6849 -1.7314  0.1580
54921SOL     OW75076  10.310   4.353   5.107 -0.0256 -0.3125  0.1403
54921SOL    HW175077  10.270   4.320   5.027 -2.9521  3.5798 -0.2705
54921SOL    HW275078  10.269   4.303   5.177 -2.3522  0.5254 -0.5519
54922SOL     OW75079   2.613   0.285   7.909 -0.0991  0.3313  0.0667
54922SOL    HW175080   2.579   0.255   7.993 -1.5225  0.9184 -0.2691
54922SOL    HW275081   2.548   0.348   7.878 -0.0340 -0.4889 -1.8566
54923SOL     OW75082  11.044   7.276   7.756 -0.6528  0.0243  0.2641
54923SOL    HW175083  11.067   7.263   7.664  0.8944 -1.5585  0.8142
54923SOL    HW275084  11.035   7.371   7.766  1.3145  0.4100 -1.0713
54924SOL     OW75085   8.399   1.340   5.013 -0.4965  0.3388  0.0495
54924SOL    HW175086   8.397   1.412   4.950  0.2315 -0.5045 -0.9752
54924SOL    HW275087   8.309   1.305   5.013 -0.6731  0.7892  0.0227
54925SOL     OW75088  11.224  10.713  11.631  0.0567  0.4009 -0.3429
54925SOL    HW175089  11.308  10.739  11.669 -0.6376 -0.6071  2.0183
54925SOL    HW275090  11.246  10.686  11.542  2.3206 -0.3163  0.3652
54926SOL     OW75091   0.552   8.585   0.221 -0.2109  0.7020 -0.2875
54926SOL    HW175092   0.596   8.524   0.281 -1.1237  0.8061  0.5171
54926SOL    HW275093   0.542   8.536   0.140 -1.4898 -0.4937  0.5307
54927SOL     OW75094   7.384  12.696   9.351  0.0483  0.9227 -0.2239
54927SOL    HW175095   7.326  12.761   9.391  0.3140  1.3165 -0.4714
54927SOL    HW275096   7.451  12.748   9.306  0.6744  0.4783  0.1792
54928SOL     OW75097   7.078   6.614   5.736 -0.3182  0.0596 -0.0949
54928SOL    HW175098   7.021   6.576   5.669 -0.5280  0.8782 -0.3863
54928SOL    HW275099   7.068   6.708   5.726 -0.2374  0.1925  1.0061
54929SOL     OW75100   1.450   0.746   2.263 -0.1652 -0.2957 -0.2248
54929SOL    HW175101   1.539   0.724   2.233 -0.1657 -0.9016  0.1867
54929SOL    HW275102   1.394   0.728   2.187 -0.1896 -2.0077  0.1407
54930SOL     OW75103   8.608  12.055   6.980  0.8963 -0.4636 -0.1230
54930SOL    HW175104   8.674  12.023   7.042 -0.7968 -0.6653  1.7083
54930SOL    HW275105   8.616  11.997   6.904  1.3623 -1.9024  0.9664
54931SOL     OW75106   4.354   0.839   7.154 -0.0006 -0.2117 -0.2409
54931SOL    HW175107   4.446   0.863   7.168  0.0478 -1.3366  1.7760
54931SOL    HW275108   4.306   0.889   7.220 -0.6499 -0.8122 -0.2470
54932SOL     OW75109   0.330   2.969   5.884  0.1869  0.7234  0.2828
54932SOL    HW175110   0.375   2.927   5.957  0.8990  0.4749 -0.2865
54932SOL    HW275111   0.341   2.908   5.811 -2.7947 -0.3152  0.5875
54933SOL     OW75112   1.800   6.989   9.320  0.3888  0.6209  0.0837
54933SOL    HW175113   1.785   7.075   9.281  2.6544  1.7490  1.4970
54933SOL    HW275114   1.876   6.954   9.273  0.3029 -0.0160  0.4041
54934SOL     OW75115   0.555   1.476   9.164 -0.0333  0.3506  0.2873
54934SOL    HW175116   0.497   1.436   9.230  1.1412 -1.1901  0.4193
54934SOL    HW275117   0.528   1.568   9.163 -2.4499 -0.2799  0.3709
54935SOL     OW75118  10.262  10.858   8.306 -0.1397  0.0729 -0.1041
54935SOL    HW175119  10.346  10.896   8.332 -0.1762  0.6457 -0.7875
54935SOL    HW275120  10.261  10.864   8.211 -0.5786 -0.7525 -0.1702
54936SOL     OW75121   0.499   3.536   4.042 -0.0159  0.0551 -0.1440
54936SOL    HW175122   0.461   3.622   4.022 -1.8504 -0.3239  1.3576
54936SOL    HW275123   0.593   3.549   4.035 -0.1722  2.5225  1.1126
54937SOL     OW75124   5.791   9.064  12.307  0.1890  0.1528 -0.1519
54937SOL    HW175125   5.777   8.978  12.346 -2.7503  0.1312 -0.9974
54937SOL    HW275126   5.821   9.119  12.380  0.8229 -1.2628  0.6859
54938SOL     OW75127   8.008   4.334  11.788  0.1531  0.1120  0.0418
54938SOL    HW175128   7.933   4.331  11.846  1.7951 -1.9604  2.2670
54938SOL    HW275129   8.023   4.427  11.772 -1.5343  0.6480  1.3599
54939SOL     OW75130   6.532   4.954   8.175  0.1058  0.0950 -0.5606
54939SOL    HW175131   6.464   4.890   8.196  1.1685 -0.7428  0.5307
54939SOL    HW275132   6.511   4.985   8.087 -1.3095 -0.6049 -0.4865
54940SOL     OW75133  11.073  10.419   1.755 -0.6773 -0.5854 -0.0530
54940SOL    HW175134  11.001  10.360   1.779  0.2001 -1.0972  1.4895
54940SOL    HW275135  11.152  10.374   1.786  0.1982  0.5342 -0.5788
54941SOL     OW75136   2.923  12.774   8.022 -0.3929 -0.2552  0.0088
54941SOL    HW175137   2.984  12.741   8.088  0.4649  1.1585 -0.0337
54941SOL    HW275138   2.962  12.855   7.992 -1.1502 -0.4941 -1.7285
54942SOL     OW75139   4.557  11.543  12.143 -0.5413 -0.0557  0.2091
54942SOL    HW175140   4.647  11.563  12.170 -0.1853 -0.0931 -0.8626
54942SOL    HW275141   4.542  11.454  12.175 -0.7132  0.4627  1.6069
54943SOL     OW75142  12.075   8.508  10.896 -0.3846 -0.1184  0.3056
54943SOL    HW175143  12.138   8.444  10.865 -1.2146 -2.0794  2.3793
54943SOL    HW275144  11.990   8.463  10.890 -1.1751  1.2788  0.5589
54944SOL     OW75145   8.127  11.804   1.673 -0.0349 -0.2291  0.1305
54944SOL    HW175146   8.093  11.727   1.626 -2.0767  1.5511 -1.5890
54944SOL    HW275147   8.050  11.839   1.718  0.7667  0.9856  0.5889
54945SOL     OW75148   9.922   9.446   2.497 -0.2564 -0.5042 -0.4772
54945SOL    HW175149   9.839   9.455   2.544  0.0813 -0.5945  0.1360
54945SOL    HW275150   9.978   9.397   2.556  0.4914  0.2162 -0.5752
54946SOL     OW75151   3.254   6.198  11.596 -0.1885  0.1294  0.2708
54946SOL    HW175152   3.198   6.121  11.589 -1.2643  0.8150  1.0497
54946SOL    HW275153   3.318   6.175  11.664  2.9016 -2.0402 -3.0011
54947SOL     OW75154   2.516   5.118   7.753 -0.2695 -0.1459 -0.0420
54947SOL    HW175155   2.521   5.214   7.746  0.2779 -0.1777 -0.1522
54947SOL    HW275156   2.555   5.099   7.838  0.3314 -0.3255 -0.3552
54948SOL     OW75157   8.418   8.298   2.734  0.4375 -0.0622 -0.0055
54948SOL    HW175158   8.410   8.354   2.811  0.0269  0.0747 -0.1438
54948SOL    HW275159   8.419   8.209   2.770  2.0689  0.0416  0.2871
54949SOL     OW75160   3.703   7.766  11.839 -0.0612  0.3406 -0.7482
54949SOL    HW175161   3.630   7.768  11.900 -0.1498  0.4623 -0.8570
54949SOL    HW275162   3.734   7.675  11.841  1.9859  0.9949  1.8623
54950SOL     OW75163  10.046  12.362   6.065  0.5686 -0.0773  0.0416
54950SOL    HW175164  10.097  12.282   6.051  0.4481  0.0095 -0.9350
54950SOL    HW275165   9.973  12.355   6.003  0.6102  0.8424 -0.1164
54951SOL     OW75166   7.083   9.937   7.272 -0.4494 -0.7944  0.1329
54951SOL    HW175167   7.003   9.897   7.239 -0.9947 -0.0845  0.5528
54951SOL    HW275168   7.106  10.003   7.206 -0.6617 -0.4588  0.3885
54952SOL     OW75169   5.410  11.593  10.630 -0.7637 -0.2091  0.2142
54952SOL    HW175170   5.388  11.504  10.659  0.6642  0.3636  3.5436
54952SOL    HW275171   5.506  11.594  10.628 -0.7751  0.9222 -1.0952
54953SOL     OW75172   9.362  11.922   6.401  0.7149  0.3890 -0.0599
54953SOL    HW175173   9.292  11.923   6.466 -0.5598  1.2869 -1.3695
54953SOL    HW275174   9.364  12.012   6.367  0.2824 -0.4121 -2.3286
54954SOL     OW75175   3.605   0.286   5.435 -0.0357 -0.5243 -0.2092
54954SOL    HW175176   3.530   0.296   5.493 -1.2043  0.7542 -1.8326
54954SOL    HW275177   3.593   0.200   5.395 -0.6774 -0.3026 -0.5013
54955SOL     OW75178   0.152   8.668   4.206  0.4934  0.5660 -0.3279
54955SOL    HW175179   0.203   8.654   4.126  0.7982 -0.1143 -0.0172
54955SOL    HW275180   0.076   8.719   4.177  0.6892  0.4710 -1.0211
54956SOL     OW75181   6.185  11.246   2.150 -0.3669 -0.3245  0.2482
54956SOL    HW175182   6.093  11.230   2.126 -0.3174 -0.5061  0.1734
54956SOL    HW275183   6.231  11.168   2.118  0.3212  1.1371 -2.6565
54957SOL     OW75184   8.161   7.460   3.599  0.2570 -0.6211 -0.0477
54957SOL    HW175185   8.247   7.504   3.594  0.3619 -0.2469  2.8391
54957SOL    HW275186   8.175   7.375   3.558  1.2812  0.3607 -1.8640
54958SOL     OW75187  10.949  10.020   7.451  0.1262  0.1533  0.3034
54958SOL    HW175188  10.910   9.992   7.533  0.2157  1.4326  0.8122
54958SOL    HW275189  10.880  10.006   7.386 -0.3782  0.2428  0.8090
54959SOL     OW75190   5.820   5.596   2.082 -0.2717  0.2537 -0.5331
54959SOL    HW175191   5.862   5.665   2.031  1.1658 -0.8751 -0.9225
54959SOL    HW275192   5.726   5.610   2.069 -0.0617  2.5282 -0.0501
54960SOL     OW75193   0.296   5.844  11.293 -0.2960 -0.0710  0.1495
54960SOL    HW175194   0.321   5.892  11.372  0.9945 -1.6809  0.7737
54960SOL    HW275195   0.204   5.866  11.280  0.1046  2.1880  0.6434
54961SOL     OW75196   8.586   2.521   4.957 -0.3622  0.9198 -0.8525
54961SOL    HW175197   8.562   2.458   4.890  1.7845 -0.2004 -0.6542
54961SOL    HW275198   8.655   2.574   4.917  0.7965  0.3752  0.3375
54962SOL     OW75199   2.896   7.307   3.277  0.2503  0.4428 -0.2914
54962SOL    HW175200   2.986   7.282   3.299  0.0268  0.0452  0.1890
54962SOL    HW275201   2.843   7.231   3.302 -0.5622  1.6743  2.0709
54963SOL     OW75202   9.356   9.582   7.140  0.0525  0.8929 -0.0881
54963SOL    HW175203   9.407   9.548   7.213 -1.3194  0.4735  0.7086
54963SOL    HW275204   9.369   9.518   7.069  0.1683  0.4800  0.3021
54964SOL     OW75205   2.090   5.322   6.416 -0.2469 -0.1044  0.4901
54964SOL    HW175206   2.029   5.360   6.479  2.4348  1.4053  2.3918
54964SOL    HW275207   2.086   5.228   6.434 -1.5351  0.0152  0.9675
54965SOL     OW75208   3.330   5.723  12.665 -0.1887  0.1783  0.8807
54965SOL    HW175209   3.324   5.643  12.718 -1.7679  0.0586  0.5725
54965SOL    HW275210   3.242   5.761  12.670 -0.6618 -0.2623 -2.2829
54966SOL     OW75211   3.358   5.858   0.010  0.0222 -0.4612 -0.2578
54966SOL    HW175212   3.292   5.793  -0.015 -0.1200 -1.5189  2.5281
54966SOL    HW275213   3.309   5.938   0.027 -0.5024 -1.0731  1.1982
54967SOL     OW75214   8.456  11.193   9.587 -0.0504 -0.6167  0.1428
54967SOL    HW175215   8.442  11.243   9.507 -1.3524 -0.2555  0.5690
54967SOL    HW275216   8.375  11.143   9.599  0.9580 -2.3341  0.0874
54968SOL     OW75217   9.231   0.126   4.368 -0.4662 -0.3737  0.5323
54968SOL    HW175218   9.136   0.136   4.364 -0.2473  2.8741  0.8671
54968SOL    HW275219   9.264   0.213   4.387  2.6944 -1.1419 -0.7082
54969SOL     OW75220   9.514   9.956   1.454 -0.4125 -0.5202 -0.1565
54969SOL    HW175221   9.468  10.037   1.431 -1.8044 -1.5088 -0.9956
54969SOL    HW275222   9.446   9.890   1.459  0.8872 -2.0420 -1.3785
54970SOL     OW75223  10.634  10.193   7.008 -0.3157  0.0889 -0.3625
54970SOL    HW175224  10.647  10.152   7.094  1.3001  1.0278 -0.1119
54970SOL    HW275225  10.708  10.163   6.956 -0.7704  0.2862 -1.1368
54971SOL     OW75226   5.844   8.617   4.820 -0.3162  0.2066  0.3825
54971SOL    HW175227   5.809   8.696   4.779 -2.1906  0.1924  1.8088
54971SOL    HW275228   5.819   8.546   4.761 -2.7454  0.2124  1.3062
54972SOL     OW75229   9.097   4.679   8.230 -0.0265 -0.2298 -0.3778
54972SOL    HW175230   9.044   4.611   8.272 -1.0122  1.1827  0.7277
54972SOL    HW275231   9.177   4.681   8.281 -0.2186 -0.1793 -0.0802
54973SOL     OW75232  11.505   2.235   6.475  0.3013 -0.3945 -0.1650
54973SOL    HW175233  11.464   2.277   6.551  0.8612 -0.2786  0.0848
54973SOL    HW275234  11.451   2.158   6.458  0.2985 -0.5541  0.5075
54974SOL     OW75235   0.613   8.532   6.939 -0.5376  0.0770 -0.2554
54974SOL    HW175236   0.524   8.564   6.923 -0.8582 -0.2284  0.8564
54974SOL    HW275237   0.612   8.500   7.029  0.9175  0.8119  0.0575
54975SOL     OW75238   2.676   5.281   6.512  0.4438 -0.7179 -0.2166
54975SOL    HW175239   2.629   5.353   6.471  0.9473  0.1114  0.6063
54975SOL    HW275240   2.622   5.204   6.496 -1.3225  0.2188  0.8572
54976SOL     OW75241  10.342   3.841   8.860 -0.5009 -0.1681 -0.3875
54976SOL    HW175242  10.375   3.931   8.861 -1.1776  0.1242 -1.7727
54976SOL    HW275243  10.420   3.787   8.877 -0.5906  0.7009  3.9782
54977SOL     OW75244  10.203   0.008   9.372 -0.1238 -0.2906 -0.0855
54977SOL    HW175245  10.290   0.019   9.409 -0.1104  0.4169 -0.3137
54977SOL    HW275246  10.156   0.089   9.394 -0.6928 -0.6222 -0.0462
54978SOL     OW75247   0.153  11.149   5.754  0.1389 -0.5043 -0.5608
54978SOL    HW175248   0.078  11.178   5.702  0.2422  0.9231  0.0341
54978SOL    HW275249   0.225  11.205   5.726  0.8643 -1.5146 -0.7566
54979SOL     OW75250  11.274   7.891   6.917 -0.0817  0.3884 -0.2196
54979SOL    HW175251  11.241   7.926   6.835 -0.3917  0.2629 -0.1476
54979SOL    HW275252  11.240   7.802   6.921  1.7406 -0.4125 -1.0242
54980SOL     OW75253   3.202  10.540   5.472  0.2972  0.0988  0.0459
54980SOL    HW175254   3.275  10.497   5.427 -0.0471  1.2405 -1.7008
54980SOL    HW275255   3.170  10.605   5.410 -2.5662 -0.6953  0.5339
54981SOL     OW75256   7.917  11.145   1.891 -0.4292  0.4818  0.3335
54981SOL    HW175257   7.890  11.057   1.914 -1.2545  0.3558 -1.0155
54981SOL    HW275258   7.992  11.163   1.948 -0.5774 -0.8740  0.9906
54982SOL     OW75259   8.905   1.060   0.386 -0.1727  0.2165 -0.5931
54982SOL    HW175260   8.811   1.068   0.400 -0.1738 -0.2650 -0.2977
54982SOL    HW275261   8.922   0.966   0.391  0.1476  0.1875 -1.7615
54983SOL     OW75262   9.771   2.325  10.240  0.0876 -0.1929 -0.2634
54983SOL    HW175263   9.773   2.344  10.334  0.5730 -0.6098 -0.1823
54983SOL    HW275264   9.799   2.234  10.234  1.1473  0.1643 -0.8975
54984SOL     OW75265   0.745   6.212   0.285  0.3547  0.4402  0.1730
54984SOL    HW175266   0.813   6.147   0.263  0.0819 -0.2267  1.1921
54984SOL    HW275267   0.773   6.246   0.370 -0.9297 -0.3640  0.9567
54985SOL     OW75268   7.416   9.521   0.261 -0.0608  0.4690 -0.7339
54985SOL    HW175269   7.442   9.611   0.279  0.9345  0.2272 -0.9040
54985SOL    HW275270   7.366   9.495   0.338 -0.4336  1.1936 -0.7254
54986SOL     OW75271   6.342   1.771   5.783 -0.2122  0.0620 -0.2081
54986SOL    HW175272   6.431   1.754   5.814 -0.4616 -2.2032 -0.5456
54986SOL    HW275273   6.300   1.685   5.783 -1.8656  0.7984 -1.7456
54987SOL     OW75274  10.098   0.855   8.020 -0.4291 -0.3071 -0.4391
54987SOL    HW175275  10.090   0.950   8.025 -0.9071 -0.4039  0.8856
54987SOL    HW275276  10.032   0.829   7.956 -0.6183  0.2132 -0.4635
54988SOL     OW75277   8.912   4.575   2.179 -0.0483 -0.1395  0.2067
54988SOL    HW175278   8.919   4.510   2.248  1.6176 -0.0322  0.1758
54988SOL    HW275279   8.998   4.616   2.175 -1.1094  2.3369  0.4718
54989SOL     OW75280   2.337   6.251   6.493 -0.2362  0.0573  0.1205
54989SOL    HW175281   2.382   6.278   6.573 -1.2007 -0.0406  0.7112
54989SOL    HW275282   2.244   6.264   6.512 -0.4785  0.0097 -0.9794
54990SOL     OW75283   9.645   8.347   4.522 -0.0452  0.2818 -0.1436
54990SOL    HW175284   9.694   8.406   4.580  0.5644  0.0376 -0.3974
54990SOL    HW275285   9.593   8.293   4.582  0.2159  0.3507  0.1530
54991SOL     OW75286  11.513   2.314   0.862  0.8454 -0.4763  0.2674
54991SOL    HW175287  11.418   2.305   0.873  0.7064 -0.0252 -0.5495
54991SOL    HW275288  11.528   2.408   0.853  1.0239 -0.7150 -2.5927
54992SOL     OW75289   3.028   1.564   4.098 -0.6215 -0.2007 -0.1089
54992SOL    HW175290   3.097   1.547   4.033 -0.0958 -2.1550  0.8743
54992SOL    HW275291   2.991   1.478   4.116 -1.9469  0.5541  0.8904
54993SOL     OW75292   5.225   1.612   9.873 -0.6003 -0.1504 -0.9982
54993SOL    HW175293   5.232   1.640   9.964  1.8130 -0.3091 -1.0585
54993SOL    HW275294   5.140   1.644   9.844 -0.4520  1.9327  0.6400
54994SOL     OW75295   7.873   2.287   9.570  0.2589  0.3277  0.6535
54994SOL    HW175296   7.821   2.211   9.544 -1.0298  1.3659  0.0487
54994SOL    HW275297   7.904   2.267   9.658  0.5662 -1.1903  0.2252
54995SOL     OW75298   0.838  11.238   5.736 -0.4509 -0.3747  0.1053
54995SOL    HW175299   0.783  11.307   5.700 -0.2019 -0.5589 -0.6357
54995SOL    HW275300   0.919  11.241   5.685 -0.9145 -2.0262 -0.8157
54996SOL     OW75301   7.066   8.338   8.870 -0.0134 -0.4100  0.0589
54996SOL    HW175302   7.096   8.422   8.903 -2.1862  0.0268  1.1058
54996SOL    HW275303   7.098   8.274   8.933 -0.1018 -0.1294  0.3914
54997SOL     OW75304  11.157  10.724   9.414  0.3773  0.5379 -0.0296
54997SOL    HW175305  11.245  10.750   9.386 -0.0419  1.7238 -0.3187
54997SOL    HW275306  11.099  10.788   9.372 -0.5189  0.5677  1.1911
54998SOL     OW75307   4.773   9.392   9.476  0.2801 -0.1509 -0.3197
54998SOL    HW175308   4.700   9.423   9.423 -0.1947 -0.7346 -0.0166
54998SOL    HW275309   4.770   9.297   9.469  1.6050 -0.1552 -1.0813
54999SOL     OW75310   8.747  10.641   1.452 -0.1552 -0.0081  0.3344
54999SOL    HW175311   8.800  10.621   1.530  1.0377 -0.6099 -0.5961
54999SOL    HW275312   8.673  10.691   1.486  1.0191  0.9105  1.7098
55000SOL     OW75313   9.984   0.056   4.735  0.6083 -0.0483  0.2587
55000SOL    HW175314  10.003  -0.037   4.718 -0.1189 -0.0925 -0.4129
55000SOL    HW275315   9.894   0.067   4.704  0.8931  1.0282 -0.2194
55001SOL     OW75316   8.040   0.500  12.838 -0.6522  0.4043 -0.0489
55001SOL    HW175317   8.040   0.544  12.923  0.1911  0.9206 -0.3145
55001SOL    HW275318   8.126   0.459  12.832 -0.9984 -0.2985 -0.3156
55002SOL     OW75319   2.237  12.428   9.898 -0.3695 -0.0964 -0.4189
55002SOL    HW175320   2.308  12.454   9.957 -0.8462 -0.7387  0.4543
55002SOL    HW275321   2.271  12.448   9.811  0.6656  0.1360  0.0161
55003SOL     OW75322  12.315   1.836   0.378  0.2936  0.4483  0.1321
55003SOL    HW175323  12.263   1.763   0.344  1.8759 -0.8525  0.3907
55003SOL    HW275324  12.303   1.905   0.313  0.3989 -0.7572 -1.2307
55004SOL     OW75325  12.171   4.813  11.425  0.5780  0.5213  0.2212
55004SOL    HW175326  12.204   4.844  11.509 -0.4594  1.4141  0.3116
55004SOL    HW275327  12.112   4.741  11.448  1.8465 -0.6139  0.0992
55005SOL     OW75328  11.088   0.140   5.492  0.0644 -0.0418 -0.1272
55005SOL    HW175329  11.182   0.156   5.479  0.1252 -0.9895 -0.9741
55005SOL    HW275330  11.045   0.192   5.425  0.0177 -0.0529 -0.1060
55006SOL     OW75331   6.881   1.396   9.081 -0.5937  0.1648  0.6402
55006SOL    HW175332   6.963   1.347   9.072 -0.0784  1.2665 -1.0657
55006SOL    HW275333   6.814   1.335   9.049 -0.0703  0.2323 -0.6395
55007SOL     OW75334   7.630   6.451   8.539 -0.3173  0.2041 -0.5521
55007SOL    HW175335   7.640   6.412   8.626  0.3437 -0.7377 -1.0281
55007SOL    HW275336   7.591   6.537   8.555  0.4509  0.3381  0.7276
55008SOL     OW75337   4.729   4.183   8.526 -0.4770 -0.3196 -0.0085
55008SOL    HW175338   4.785   4.261   8.532  1.0672 -1.3547 -0.5847
55008SOL    HW275339   4.790   4.109   8.524 -1.8680 -1.4997 -0.5832
55009SOL     OW75340  11.888   9.044   2.263 -0.1596  0.6973  0.2684
55009SOL    HW175341  11.974   9.085   2.275  0.2834  0.9414 -2.8707
55009SOL    HW275342  11.837   9.073   2.338  1.9006  2.2361  1.1763
55010SOL     OW75343   2.397   1.122  11.450 -0.1539 -0.8663  0.4682
55010SOL    HW175344   2.367   1.195  11.504 -0.0147  0.8663 -1.6572
55010SOL    HW275345   2.486   1.146  11.424 -0.9283 -0.5469 -2.1838
55011SOL     OW75346  10.515  10.612  10.332  0.2829 -0.2817  0.5932
55011SOL    HW175347  10.602  10.597  10.369  0.8463 -0.4632 -0.7646
55011SOL    HW275348  10.490  10.699  10.364  1.1461 -0.0432  0.6364
55012SOL     OW75349   2.302  11.249   9.788 -0.1752 -0.3978 -0.3137
55012SOL    HW175350   2.267  11.313   9.726 -0.7866 -2.4126 -2.2137
55012SOL    HW275351   2.227  11.224   9.841  0.3670  1.3908  1.3960
55013SOL     OW75352   0.077  10.162   6.083 -0.4151  0.1763  0.2906
55013SOL    HW175353   0.007  10.113   6.041 -0.9487  0.2001  1.1350
55013SOL    HW275354   0.148  10.163   6.019 -2.1471  2.5637 -1.7963
55014SOL     OW75355   1.673  11.453   0.784  0.1538 -0.1010 -0.3254
55014SOL    HW175356   1.635  11.509   0.717  0.5887 -0.1817 -0.6421
55014SOL    HW275357   1.767  11.457   0.768  0.1922 -0.9215 -0.3559
55015SOL     OW75358  12.885   5.226   5.086  0.2525  0.2932 -0.3769
55015SOL    HW175359  12.899   5.136   5.116  0.8784  0.3225 -0.5814
55015SOL    HW275360  12.791   5.241   5.100  0.3226 -0.0697  0.5345
55016SOL     OW75361   0.284   2.268   7.292 -0.0690  0.3668 -0.5141
55016SOL    HW175362   0.232   2.200   7.335  0.9581 -0.5439 -0.6757
55016SOL    HW275363   0.328   2.223   7.221  0.4014  1.2774 -0.8114
55017SOL     OW75364   5.202   7.886   0.631  0.8585  0.1090  0.2790
55017SOL    HW175365   5.158   7.856   0.552 -1.0877  2.6682  0.2698
55017SOL    HW275366   5.291   7.908   0.602  0.4250  0.2629 -0.9889
55018SOL     OW75367   2.098   6.400   1.925 -0.1612 -0.3066 -0.0153
55018SOL    HW175368   2.154   6.414   2.001  0.0592 -0.6904 -0.1038
55018SOL    HW275369   2.142   6.445   1.853 -0.3953  0.0994  0.0926
55019SOL     OW75370  12.186   0.186   3.816 -0.3262  0.0091  0.1492
55019SOL    HW175371  12.167   0.258   3.756 -1.3428 -0.5304 -0.2023
55019SOL    HW275372  12.123   0.197   3.887  1.1739  0.9133  1.3865
55020SOL     OW75373   8.349   9.813   8.470 -0.6138  0.2041 -0.4929
55020SOL    HW175374   8.313   9.883   8.416  0.0035  0.3497 -0.7339
55020SOL    HW275375   8.316   9.830   8.558 -1.2935  0.2039 -0.7431
55021SOL     OW75376   8.010   7.276   7.266  0.1125 -0.2445  0.0725
55021SOL    HW175377   8.019   7.298   7.358  0.1473 -1.2386  0.3152
55021SOL    HW275378   8.025   7.358   7.220  0.9313  0.0929  0.9154
55022SOL     OW75379  10.622   7.049   2.505 -0.0379  0.0580 -1.0515
55022SOL    HW175380  10.704   7.025   2.462  0.6074  1.8384 -0.8921
55022SOL    HW275381  10.576   7.102   2.441  0.7918  2.4739  0.2423
55023SOL     OW75382   8.152   8.294   7.809  0.1420 -0.1837  0.3981
55023SOL    HW175383   8.085   8.230   7.785 -0.5748 -0.3764  2.7374
55023SOL    HW275384   8.109   8.351   7.873  2.0679 -0.0792  1.6677
55024SOL     OW75385   9.857   9.158   6.337  0.0477 -0.4712 -0.3430
55024SOL    HW175386   9.934   9.151   6.280  1.0157  0.5461  0.7896
55024SOL    HW275387   9.791   9.201   6.284  1.3661  1.6787 -0.3489
55025SOL     OW75388   0.994   3.422  12.007 -0.2904 -0.2713 -0.2471
55025SOL    HW175389   1.051   3.406  12.082  0.0176 -0.5625 -0.5361
55025SOL    HW275390   0.945   3.340  11.996 -2.0651  0.5479  1.0725
55026SOL     OW75391   2.339   6.924   4.464  0.0437  0.3770 -0.1050
55026SOL    HW175392   2.302   6.854   4.409  0.8152 -0.3672  0.3010
55026SOL    HW275393   2.426   6.940   4.426 -0.1476  1.1471 -0.2201
55027SOL     OW75394   1.989   9.359   7.339 -0.0961 -0.3188 -0.4657
55027SOL    HW175395   1.987   9.388   7.248 -0.6066  0.3453 -0.2461
55027SOL    HW275396   2.009   9.265   7.333 -2.3621 -0.8043 -1.3793
55028SOL     OW75397   5.850   7.027   4.817  0.3766 -0.2288 -0.3667
55028SOL    HW175398   5.800   7.027   4.898  0.6156  1.7239 -0.1837
55028SOL    HW275399   5.941   7.036   4.845  0.6231 -1.1224 -0.8130
55029SOL     OW75400   2.001   5.017   9.458  0.6813 -0.1317 -0.0334
55029SOL    HW175401   2.064   5.086   9.434  0.9659 -0.2735  0.3029
55029SOL    HW275402   2.054   4.937   9.459  0.8717 -0.0097  1.9424
55030SOL     OW75403   2.976   4.867   2.730  0.0943 -0.5357 -0.0970
55030SOL    HW175404   3.012   4.922   2.798 -2.7912 -0.4027  1.5032
55030SOL    HW275405   2.974   4.779   2.769 -1.6605 -0.4412  0.1342
55031SOL     OW75406   9.370   1.673   2.105  0.0973  0.0834 -0.3704
55031SOL    HW175407   9.462   1.683   2.131 -0.0533  0.2849  0.0960
55031SOL    HW275408   9.367   1.706   2.015  0.3565  0.6871 -0.1631
55032SOL     OW75409  12.157   5.739  10.106  0.0596 -0.0423  0.6225
55032SOL    HW175410  12.093   5.674  10.079 -0.0180  0.9766 -1.8455
55032SOL    HW275411  12.125   5.771  10.191 -1.7122 -0.8227  0.2852
55033SOL     OW75412   6.674   9.958   9.371  0.3780  0.3236 -0.0838
55033SOL    HW175413   6.622  10.039   9.364  0.6857  0.4678 -0.7275
55033SOL    HW275414   6.759   9.981   9.336 -0.2075 -0.9004 -2.5104
55034SOL     OW75415  12.885   1.229   6.768  1.0786 -0.2380  0.5261
55034SOL    HW175416  12.890   1.233   6.673  1.8048 -0.5308  0.5466
55034SOL    HW275417  12.960   1.280   6.799 -0.4755  1.9101  0.9925
55035SOL     OW75418   7.855  10.133  11.944  0.2238  0.2550 -0.0639
55035SOL    HW175419   7.785  10.195  11.964  0.1316  0.5240 -1.1713
55035SOL    HW275420   7.839  10.107  11.853  3.0212  2.3287 -1.2877
55036SOL     OW75421   7.894   2.153   1.686  0.2766 -0.0282  0.2076
55036SOL    HW175422   7.839   2.164   1.608  0.6585 -0.1314 -0.0780
55036SOL    HW275423   7.933   2.240   1.700 -0.1891  0.1281  0.5932
55037SOL     OW75424   0.971   6.314   3.447 -0.3751 -0.3096 -0.3860
55037SOL    HW175425   0.900   6.305   3.383 -0.5401  1.8673 -0.5952
55037SOL    HW275426   0.938   6.270   3.525 -1.3376 -0.6111 -0.9449
55038SOL     OW75427   2.204   7.675  11.419 -0.2124  0.5031 -0.2144
55038SOL    HW175428   2.286   7.717  11.445  1.0946 -1.1940 -1.4105
55038SOL    HW275429   2.200   7.595  11.472  0.2213 -0.6973 -1.9287
55039SOL     OW75430   1.756  12.985  11.876 -0.5089 -0.0557  0.2491
55039SOL    HW175431   1.784  12.912  11.931 -1.4591 -0.3615  0.3417
55039SOL    HW275432   1.828  13.048  11.882  0.5599 -1.1790 -0.2307
55040SOL     OW75433   9.560   0.654  12.688 -0.1128  0.0371 -0.2386
55040SOL    HW175434   9.645   0.631  12.652  0.3626 -1.1954  1.5239
55040SOL    HW275435   9.574   0.736  12.735  0.0077  0.0416 -0.2844
55041SOL     OW75436   1.641  12.981   8.836 -0.1628 -0.3595 -0.0535
55041SOL    HW175437   1.664  12.949   8.749 -0.2673 -1.4253  0.2965
55041SOL    HW275438   1.677  12.916   8.896  0.3087  0.6014  0.7316
55042SOL     OW75439   0.787   4.161   0.119  0.2298  0.4472 -0.2922
55042SOL    HW175440   0.775   4.215   0.197  1.2372 -0.0338  0.2204
55042SOL    HW275441   0.751   4.214   0.048 -0.6718  0.9094  0.4838
55043SOL     OW75442   5.561  11.169   8.139  0.2089 -1.1310  0.1512
55043SOL    HW175443   5.513  11.237   8.092 -0.9525 -1.8529  0.2735
55043SOL    HW275444   5.519  11.165   8.225  1.6038 -0.5921  0.9053
55044SOL     OW75445   8.814   8.612   2.360 -0.1268  0.4071  0.3510
55044SOL    HW175446   8.887   8.648   2.411 -0.1355  0.0393  0.6289
55044SOL    HW275447   8.840   8.625   2.269  1.7126 -2.3579  0.3325
55045SOL     OW75448   6.251   1.948  11.410  0.2419  0.0384 -0.7798
55045SOL    HW175449   6.344   1.938  11.391  0.7022  0.0633  1.2079
55045SOL    HW275450   6.246   2.027  11.464 -0.2643 -2.1533  2.7535
55046SOL     OW75451   4.908   4.043   4.292 -0.0564  0.1100 -0.6126
55046SOL    HW175452   4.820   4.049   4.330 -0.6987 -1.9475 -1.5835
55046SOL    HW275453   4.922   4.128   4.249 -1.6389  0.4363 -0.5501
55047SOL     OW75454   1.140   6.052   5.994  0.0723  0.5602 -0.1424
55047SOL    HW175455   1.208   6.004   5.946 -0.1340 -0.3791  0.4693
55047SOL    HW275456   1.102   5.986   6.052 -1.4618  1.0260 -0.5807
55048SOL     OW75457   9.879   0.920   7.219  0.2225 -0.3165  0.5186
55048SOL    HW175458   9.898   0.854   7.153 -0.2232 -0.6264  0.6967
55048SOL    HW275459   9.965   0.947   7.252  0.5222  0.6027 -0.9138
55049SOL     OW75460   2.106  12.468  10.802  0.1017  0.0798  0.9114
55049SOL    HW175461   2.156  12.388  10.816  1.2036  0.4166 -0.7509
55049SOL    HW275462   2.171  12.538  10.800  0.2737  0.1942 -4.5309
55050SOL     OW75463  10.100   8.724   9.901  0.0163  0.4100 -0.3775
55050SOL    HW175464  10.035   8.784   9.864 -1.5120 -0.5237  0.7009
55050SOL    HW275465  10.141   8.774   9.971  0.8404  1.1624 -1.3550
55051SOL     OW75466   3.979   4.150  11.291 -0.2278 -0.1726  0.0536
55051SOL    HW175467   3.892   4.141  11.252 -0.8356 -0.2130  1.3778
55051SOL    HW275468   4.032   4.193  11.223 -1.4489  0.4558 -0.5218
55052SOL     OW75469   9.274   2.231   9.595  0.0617 -0.3788  0.0905
55052SOL    HW175470   9.193   2.202   9.636 -0.3084  1.8407  1.0475
55052SOL    HW275471   9.245   2.274   9.514 -0.0638  2.6906  1.6466
55053SOL     OW75472   5.917   7.799   6.426 -0.2290 -0.3144  0.0694
55053SOL    HW175473   5.999   7.840   6.398  0.1590 -1.1574 -0.0564
55053SOL    HW275474   5.867   7.871   6.464  1.4042 -0.1447  2.0758
55054SOL     OW75475  11.261   4.492   3.038  0.1819  0.2537 -0.1449
55054SOL    HW175476  11.256   4.579   3.077  1.0530  0.6797 -0.9565
55054SOL    HW275477  11.352   4.466   3.047 -0.1819 -0.8580  0.6375
55055SOL     OW75478   5.744  10.911   8.359 -0.0815 -0.2593 -0.0842
55055SOL    HW175479   5.678  10.883   8.423 -0.4207  0.5029 -0.0858
55055SOL    HW275480   5.827  10.883   8.396 -0.1974  0.8423  1.0833
55056SOL     OW75481   1.764   0.735   8.896 -0.7495 -0.1975 -0.5986
55056SOL    HW175482   1.685   0.773   8.858 -0.5918 -0.9229 -1.6918
55056SOL    HW275483   1.738   0.647   8.924 -0.6951  0.0926  0.3912
55057SOL     OW75484   4.776   9.673   5.955 -0.0265  1.1054  0.2615
55057SOL    HW175485   4.698   9.617   5.958  0.4001  0.5124  0.7330
55057SOL    HW275486   4.849   9.612   5.943  0.2776  1.7522 -1.4905
55058SOL     OW75487  12.126   9.161  10.977  0.1305 -0.0102  0.2717
55058SOL    HW175488  12.195   9.145  10.913  0.0218 -3.4900  0.8405
55058SOL    HW275489  12.053   9.196  10.925  1.0169  0.0187 -0.9981
55059SOL     OW75490  12.665  10.314   5.833  0.0723  0.3022  0.3154
55059SOL    HW175491  12.624  10.293   5.750  2.0347  0.7350 -0.8330
55059SOL    HW275492  12.623  10.395   5.861 -0.6371  0.1284 -0.2153
55060SOL     OW75493   0.935   9.793   8.919  0.1811 -0.7533  0.0532
55060SOL    HW175494   1.014   9.739   8.918 -0.9844 -2.6018  1.3348
55060SOL    HW275495   0.933   9.833   8.832  2.7647 -0.2053  0.1441
55061SOL     OW75496   6.405  12.200   9.027  0.4236  0.1951  0.1833
55061SOL    HW175497   6.388  12.118   8.982 -0.1875  0.0045  0.7278
55061SOL    HW275498   6.350  12.265   8.983  0.6245  0.2324 -0.0109
55062SOL     OW75499   7.210   8.341   2.566 -0.3287  0.0648 -0.7353
55062SOL    HW175500   7.254   8.262   2.535 -0.5750 -0.0482 -0.7993
55062SOL    HW275501   7.280   8.404   2.581 -0.1118 -0.2560 -0.4208
55063SOL     OW75502   6.236  11.711   7.216 -0.0201 -0.4121  0.0218
55063SOL    HW175503   6.332  11.704   7.221 -0.1229 -2.8484 -0.3098
55063SOL    HW275504   6.221  11.788   7.163  1.7861 -0.3573 -0.4918
55064SOL     OW75505  11.438   3.636  12.847  0.0584 -0.1515  0.3490
55064SOL    HW175506  11.461   3.549  12.815  0.0116  0.1075 -0.3869
55064SOL    HW275507  11.344   3.632  12.862 -0.1438  0.1162 -0.7819
55065SOL     OW75508   3.593   8.750   6.611 -0.4405  0.4805 -0.0821
55065SOL    HW175509   3.680   8.708   6.613 -0.5879  0.1868  0.3072
55065SOL    HW275510   3.564   8.741   6.521  0.0027  0.7194 -0.2524
55066SOL     OW75511   4.001   3.417  12.897 -0.5004 -0.1826  0.6440
55066SOL    HW175512   4.089   3.436  12.929 -0.1713  1.3896 -1.0739
55066SOL    HW275513   3.977   3.493  12.844 -0.2788 -3.0824 -4.2596
55067SOL     OW75514   2.385  10.272  11.393 -0.0091 -0.4888 -0.0152
55067SOL    HW175515   2.472  10.232  11.394 -0.2709 -1.1532 -1.5239
55067SOL    HW275516   2.391  10.343  11.457  1.3321 -1.1350  0.6296
55068SOL     OW75517   1.324   1.569   9.642 -0.5947 -0.0419 -0.3196
55068SOL    HW175518   1.371   1.561   9.559 -1.5698  0.3190 -0.9164
55068SOL    HW275519   1.288   1.658   9.640 -0.3222  0.1007  0.6583
55069SOL     OW75520  12.871   1.422   9.194  0.4267 -0.0131 -0.1382
55069SOL    HW175521  12.918   1.454   9.272 -0.4044  0.0352  0.3548
55069SOL    HW275522  12.781   1.453   9.206  0.2216 -0.2697 -0.9741
55070SOL     OW75523   9.656   2.003   8.259 -0.1436 -0.6548 -0.0984
55070SOL    HW175524   9.582   2.012   8.318 -1.0697  0.8522 -1.3886
55070SOL    HW275525   9.617   1.969   8.178  1.0086 -2.2010 -0.0456
55071SOL     OW75526   5.350   8.777   8.031 -0.4191 -0.3685  0.4516
55071SOL    HW175527   5.260   8.770   7.998 -1.2062  0.3001  2.3164
55071SOL    HW275528   5.350   8.855   8.086  1.1456 -0.7118  1.0027
55072SOL     OW75529   4.696   6.900   8.424 -0.2503  0.0003 -0.2651
55072SOL    HW175530   4.691   6.811   8.459  0.7266  0.6549  1.6327
55072SOL    HW275531   4.752   6.947   8.484  0.3369  1.5999 -1.9658
55073SOL     OW75532  10.340   2.981   6.230  0.3726 -0.0353 -0.2630
55073SOL    HW175533  10.266   3.035   6.202 -0.9242 -1.1111  0.8914
55073SOL    HW275534  10.414   3.040   6.233 -0.9309  1.6300  0.6860
55074SOL     OW75535   4.284   3.115  11.664  0.1966  0.2798  0.2944
55074SOL    HW175536   4.359   3.175  11.670 -0.3175  1.0997 -1.0099
55074SOL    HW275537   4.322   3.028  11.673  1.0144  0.7697  1.8587
55075SOL     OW75538   8.556   4.460   2.525  0.4267  0.1643 -0.2482
55075SOL    HW175539   8.485   4.400   2.547 -0.3389  0.1950 -2.3690
55075SOL    HW275540   8.544   4.534   2.584  0.8362 -1.2768  1.7870
55076SOL     OW75541   9.449   8.171  11.831 -0.2450 -0.1069  0.4627
55076SOL    HW175542   9.500   8.090  11.826  0.5350  0.4616 -1.5649
55076SOL    HW275543   9.480   8.214  11.911  1.4342 -0.4647  0.0331
55077SOL     OW75544  11.139   7.378  12.034  0.0810 -0.2308 -0.3286
55077SOL    HW175545  11.112   7.447  12.095 -0.2794 -0.4584 -0.2327
55077SOL    HW275546  11.068   7.373  11.971  1.3434  1.4325 -1.9878
55078SOL     OW75547   1.367  12.366  11.646  0.2237  0.6395  0.5161
55078SOL    HW175548   1.310  12.312  11.592  2.4318  0.2562 -1.6145
55078SOL    HW275549   1.365  12.452  11.603 -0.5653  1.3162  1.8483
55079SOL     OW75550  12.053   8.402   1.734 -0.4109  0.2247 -0.0335
55079SOL    HW175551  12.017   8.464   1.798  0.6731  1.1420 -0.2850
55079SOL    HW275552  12.139   8.438   1.712 -0.3770 -0.5848 -1.3048
55080SOL     OW75553   3.773   9.114   9.971  0.3511  0.1032 -0.0314
55080SOL    HW175554   3.757   9.022   9.952  2.0067 -0.1681 -0.2529
55080SOL    HW275555   3.717   9.162   9.910  0.6801 -0.7520 -1.0154
55081SOL     OW75556   3.624  10.192   6.578  0.0179 -0.6919 -0.0152
55081SOL    HW175557   3.539  10.214   6.615 -0.3224  0.2866 -1.3259
55081SOL    HW275558   3.611  10.193   6.483  1.5908 -0.0151 -0.2579
55082SOL     OW75559   8.626   2.411   6.667 -0.0714  0.1459  0.0578
55082SOL    HW175560   8.531   2.405   6.679 -0.2171  2.1412  0.1951
55082SOL    HW275561   8.637   2.470   6.593  1.0699  0.0573  0.1423
55083SOL     OW75562   3.989   9.918   1.972  0.3468  0.0931  0.2317
55083SOL    HW175563   4.070   9.876   2.000 -0.3907 -1.5565 -0.0117
55083SOL    HW275564   3.967   9.978   2.043  1.0584 -0.4379  0.9101
55084SOL     OW75565   8.145   0.741   0.938 -0.0461  0.3769 -0.7368
55084SOL    HW175566   8.142   0.734   1.033  1.4357  3.0390 -0.3983
55084SOL    HW275567   8.172   0.653   0.909  0.4898 -0.2307  1.3670
55085SOL     OW75568  11.524  12.105  11.625 -0.2690  0.1242  0.1707
55085SOL    HW175569  11.531  12.014  11.654 -3.0461 -0.0709  0.4513
55085SOL    HW275570  11.564  12.156  11.696  0.1178 -0.7817  0.6181
55086SOL     OW75571   3.029   2.188   6.845 -0.0929  0.4614  0.2005
55086SOL    HW175572   2.973   2.202   6.768 -0.5110 -0.3055  0.3482
55086SOL    HW275573   2.992   2.109   6.886  0.7376  0.2950  0.6351
55087SOL     OW75574   7.053   7.543   8.231 -0.1050 -0.4355  0.6381
55087SOL    HW175575   7.005   7.624   8.212  1.0924 -0.0658 -1.1229
55087SOL    HW275576   6.985   7.477   8.240 -1.0118  0.2341 -0.8682
55088SOL     OW75577   4.960  10.934   4.843 -0.0805  0.1712 -0.2802
55088SOL    HW175578   4.925  11.018   4.873  0.6093  1.0150 -1.7261
55088SOL    HW275579   4.980  10.948   4.751  0.5144 -1.4486 -0.4315
55089SOL     OW75580   0.484   1.182   2.919  0.4621 -0.4340  0.1263
55089SOL    HW175581   0.439   1.243   2.978  0.0790 -0.8684  0.2953
55089SOL    HW275582   0.577   1.198   2.934  0.4581 -2.1268  2.6234
55090SOL     OW75583   5.722   7.277   3.429 -0.1476 -0.1324  0.5127
55090SOL    HW175584   5.718   7.253   3.521 -0.7536  1.7829  1.0526
55090SOL    HW275585   5.634   7.260   3.396  0.2083 -1.2997  0.1314
55091SOL     OW75586   6.242  11.510   2.206 -0.3886  0.5674  0.2018
55091SOL    HW175587   6.325  11.513   2.253 -0.7618 -0.2852  0.9576
55091SOL    HW275588   6.227  11.417   2.189  0.3747  0.8942 -2.8448
55092SOL     OW75589   1.161   1.041   0.964 -0.0800 -0.4756  0.4237
55092SOL    HW175590   1.184   1.101   0.893  0.9596 -0.1413  1.0162
55092SOL    HW275591   1.080   1.000   0.935 -0.7489  1.0937 -0.0842
55093SOL     OW75592   1.217   2.813   1.723 -0.1714 -0.0351  0.4550
55093SOL    HW175593   1.305   2.785   1.698  0.7539  0.4465  2.9252
55093SOL    HW275594   1.196   2.882   1.661  1.6145  0.5057  0.3847
55094SOL     OW75595   5.707   1.654   0.141  0.3962  0.0809 -0.5499
55094SOL    HW175596   5.651   1.591   0.187  0.2527 -0.1517 -1.0419
55094SOL    HW275597   5.785   1.605   0.117  0.6358  0.3006 -0.2290
55095SOL     OW75598   3.191   3.159   0.693 -0.0985 -0.4380 -0.0663
55095SOL    HW175599   3.207   3.166   0.788  0.3820 -1.1959 -0.0821
55095SOL    HW275600   3.104   3.121   0.686 -0.2926 -0.0233  0.0665
55096SOL     OW75601  12.288   7.117   8.828 -0.4526 -0.4364  0.3215
55096SOL    HW175602  12.303   7.132   8.921 -1.2846  0.6098  0.3027
55096SOL    HW275603  12.366   7.153   8.786 -1.2979  1.6724  0.4550
55097SOL     OW75604   1.980   9.778   8.546  0.1098  0.4157  0.0798
55097SOL    HW175605   1.905   9.804   8.492 -0.7972 -1.0871  0.5483
55097SOL    HW275606   1.940   9.741   8.625  1.3445 -1.0864  0.0272
55098SOL     OW75607   0.836   0.914   9.422 -0.1864 -0.4891  0.2710
55098SOL    HW175608   0.789   0.884   9.345  0.7751  2.2151 -1.5300
55098SOL    HW275609   0.929   0.912   9.397  0.0349  2.4521  0.4133
55099SOL     OW75610  10.070   9.551   0.723 -0.1853 -0.4872  0.5477
55099SOL    HW175611  10.107   9.581   0.806 -1.0149  0.7758  0.4854
55099SOL    HW275612  10.087   9.624   0.662  0.8377 -1.5797 -0.5377
55100SOL     OW75613   7.606  11.847   8.361 -0.0800  0.2201  0.4175
55100SOL    HW175614   7.573  11.936   8.378 -1.3117 -0.5379  2.3326
55100SOL    HW275615   7.621  11.811   8.448  3.4228 -0.4388 -0.3257
55101SOL     OW75616   2.635   2.753   9.633  0.1629 -0.5350  0.2302
55101SOL    HW175617   2.566   2.741   9.698 -0.4716 -0.4398 -0.4157
55101SOL    HW275618   2.594   2.729   9.550  1.2118 -1.4617 -0.0345
55102SOL     OW75619  12.828  10.918   8.196  0.6480 -0.1424 -0.2247
55102SOL    HW175620  12.843  10.962   8.280  0.5802 -0.3519 -0.1022
55102SOL    HW275621  12.744  10.874   8.207  0.0071  0.8699 -0.8366
55103SOL     OW75622   1.938  12.780  11.579  0.0312  0.1414  0.8097
55103SOL    HW175623   1.915  12.750  11.667 -0.0180  0.9651  1.0878
55103SOL    HW275624   1.871  12.845  11.558 -0.5514 -0.7698 -0.2588
55104SOL     OW75625  12.937   4.460   1.284  1.0841 -0.2757  0.1742
55104SOL    HW175626  12.974   4.456   1.372  1.0054  0.7264  0.2716
55104SOL    HW275627  12.959   4.376   1.245  0.5806 -0.9845  1.3566
55105SOL     OW75628   6.939   6.093   8.306  0.0825  0.2507 -0.1643
55105SOL    HW175629   6.978   6.055   8.228 -5.4094 -2.4204 -2.0782
55105SOL    HW275630   6.915   6.182   8.280  1.5422  0.6642 -0.1590
55106SOL     OW75631   2.859   8.986   8.151 -0.2369 -0.1693  0.2149
55106SOL    HW175632   2.899   9.070   8.176  1.5576 -1.0707  0.5925
55106SOL    HW275633   2.852   8.938   8.234 -0.9521 -0.5169 -0.0405
55107SOL     OW75634   0.594   4.235  12.936 -0.0118  0.0134 -0.6588
55107SOL    HW175635   0.586   4.142  12.915 -0.1757 -0.0980 -0.1163
55107SOL    HW275636   0.518   4.275  12.896  0.6943  0.1196 -1.9731
55108SOL     OW75637   0.050   0.617  10.147  0.4281  0.2867 -0.1925
55108SOL    HW175638   0.000   0.542  10.116 -0.3528 -0.5426  2.7707
55108SOL    HW275639   0.141   0.587  10.147  0.0201 -1.2106  2.0949
55109SOL     OW75640  12.715   4.460   2.423 -0.6297  0.4442 -0.6751
55109SOL    HW175641  12.767   4.460   2.503 -0.2031 -0.3575 -0.9358
55109SOL    HW275642  12.626   4.478   2.452 -0.8936 -2.0389  0.2977
55110SOL     OW75643   9.378   1.603   1.403 -0.1569 -0.6668 -0.4533
55110SOL    HW175644   9.444   1.655   1.448  0.7584 -2.8348  0.8609
55110SOL    HW275645   9.295   1.635   1.438  0.2468  0.9926 -0.9205
55111SOL     OW75646  11.738   0.621   8.328 -0.5745  0.1098  0.1972
55111SOL    HW175647  11.696   0.701   8.296 -1.1433  0.1765  1.0830
55111SOL    HW275648  11.704   0.552   8.271  0.6466  0.6096 -1.1861
55112SOL     OW75649  12.210   6.157   0.046  0.2573  0.0510  0.1967
55112SOL    HW175650  12.175   6.123  -0.036  0.7223  1.7271 -0.7455
55112SOL    HW275651  12.179   6.096   0.113 -2.1741 -0.0171 -0.9065
55113SOL     OW75652  10.020   9.940   9.238 -0.3684  0.1791  0.5888
55113SOL    HW175653   9.925   9.932   9.233 -0.2218 -1.7501  0.0391
55113SOL    HW275654  10.038   9.965   9.329 -1.4490  2.6030  0.2261
55114SOL     OW75655   8.329   0.432   8.561  0.3323  0.8427 -0.0835
55114SOL    HW175656   8.366   0.368   8.499  0.3151  0.7745 -0.0219
55114SOL    HW275657   8.406   0.466   8.607  0.3129  0.6682  0.0756
55115SOL     OW75658   2.434   9.327   5.853  0.0308  0.0219 -0.0948
55115SOL    HW175659   2.393   9.404   5.814  0.4396 -1.1523 -3.1200
55115SOL    HW275660   2.517   9.359   5.888 -0.1242  1.0578 -0.6399
55116SOL     OW75661   2.878   5.122   1.627  0.3215  0.9046 -0.0202
55116SOL    HW175662   2.919   5.189   1.573  1.2652  0.9636  0.7402
55116SOL    HW275663   2.941   5.107   1.698  1.0360 -2.0671 -1.1012
55117SOL     OW75664   0.442  10.204   9.491 -0.4825 -0.1091  0.0314
55117SOL    HW175665   0.489  10.203   9.407 -2.5538 -1.4545 -1.1965
55117SOL    HW275666   0.359  10.246   9.471 -0.4130  0.9447  1.8180
55118SOL     OW75667   9.211   5.029   6.086 -0.7287 -0.5408 -0.3585
55118SOL    HW175668   9.248   4.991   6.166 -1.6401 -0.7840 -0.0430
55118SOL    HW275669   9.276   5.010   6.018  0.8321  1.1000  0.6109
55119SOL     OW75670   9.963  12.067   2.651  0.8162  0.3883 -0.2559
55119SOL    HW175671   9.877  12.030   2.634  0.9659 -0.3233  0.5018
55119SOL    HW275672  10.024  11.999   2.624  1.1481  0.8550 -0.7068
55120SOL     OW75673   0.342   9.465   1.002  0.2736 -0.2782 -0.1927
55120SOL    HW175674   0.290   9.459   0.922 -0.7924  1.6183  0.3031
55120SOL    HW275675   0.287   9.514   1.063  2.1175  0.6470  0.8089
55121SOL     OW75676   3.198   7.573   0.917 -0.1944  0.3134 -0.4994
55121SOL    HW175677   3.289   7.552   0.896  0.3561  1.5517  0.5533
55121SOL    HW275678   3.154   7.576   0.831  1.1838  1.5635 -1.2170
55122SOL     OW75679   9.528  10.138   7.534  0.0759 -0.4823 -0.3634
55122SOL    HW175680   9.519  10.203   7.603 -0.2894  1.9566 -2.5617
55122SOL    HW275681   9.618  10.106   7.543 -0.5926 -1.9237  2.5040
55123SOL     OW75682   5.636  10.599   2.982 -0.3897  0.2915  0.0617
55123SOL    HW175683   5.557  10.622   2.933 -0.3156  0.7982  0.1744
55123SOL    HW275684   5.648  10.506   2.965 -0.3715  0.4500 -0.8879
55124SOL     OW75685   6.093  10.769   3.046  0.1683  0.2349  0.2777
55124SOL    HW175686   6.019  10.778   2.986 -0.5271  1.2608  1.2563
55124SOL    HW275687   6.166  10.810   2.999 -0.3994  1.1489  0.1536
55125SOL     OW75688   1.833   5.092   2.705 -0.3196  0.5016 -0.3676
55125SOL    HW175689   1.769   5.087   2.634 -0.2143  0.2365 -0.4468
55125SOL    HW275690   1.803   5.165   2.759 -0.7512  0.3103 -0.3440
55126SOL     OW75691   4.977   8.964   2.298  0.4039  0.5326 -0.1041
55126SOL    HW175692   4.900   8.972   2.242  0.4419 -0.4170 -0.2981
55126SOL    HW275693   5.048   9.004   2.247  0.0948  1.1956 -0.0213
55127SOL     OW75694  10.396   9.922   9.921  0.2685 -0.0647 -0.2667
55127SOL    HW175695  10.338   9.846   9.916  0.5767 -0.3636  0.5775
55127SOL    HW275696  10.364   9.981   9.852 -1.4902  0.1087  0.6375
55128SOL     OW75697   0.363   1.259   5.783  0.3104  0.0135  0.4328
55128SOL    HW175698   0.321   1.293   5.704 -1.1990 -0.6800  0.9003
55128SOL    HW275699   0.430   1.199   5.750 -0.1985 -0.1573 -0.3346
55129SOL     OW75700   0.651   7.225   3.721 -0.4048 -0.3244  0.3274
55129SOL    HW175701   0.649   7.138   3.761  4.6422 -0.5906  0.6581
55129SOL    HW275702   0.684   7.282   3.791 -0.4607  1.1492 -0.8016
55130SOL     OW75703   9.723   6.856   2.342 -0.4925 -0.0125 -0.5945
55130SOL    HW175704   9.674   6.797   2.285 -0.7518  0.3857 -0.7882
55130SOL    HW275705   9.808   6.813   2.354 -1.5191 -1.6861  1.2997
55131SOL     OW75706   3.035   0.499  11.359 -0.4702 -0.1822 -0.2028
55131SOL    HW175707   3.006   0.589  11.349 -0.4207 -0.0348  0.8867
55131SOL    HW275708   2.964   0.456  11.408 -0.3420 -0.6474 -0.4159
55132SOL     OW75709   7.877   7.309   3.432 -0.2071  0.1697  0.8063
55132SOL    HW175710   7.819   7.363   3.378  0.2408  0.2976  0.4467
55132SOL    HW275711   7.960   7.309   3.385  0.2066  0.3244  1.5282
55133SOL     OW75712   8.700  10.209  10.237 -0.0262  0.4952 -0.0146
55133SOL    HW175713   8.661  10.295  10.254 -0.0459  0.5710 -0.4302
55133SOL    HW275714   8.661  10.151  10.303 -0.6904  0.6162 -0.2962
55134SOL     OW75715   5.576   1.538   5.093  0.1289  0.6876 -0.0920
55134SOL    HW175716   5.522   1.529   5.015 -0.1372  0.0837  0.1552
55134SOL    HW275717   5.622   1.621   5.081  0.2215  0.5207 -0.9732
55135SOL     OW75718  12.963   2.664   0.288 -0.1077  0.2905  0.2126
55135SOL    HW175719  13.041   2.679   0.341  1.1602 -0.7680 -1.2386
55135SOL    HW275720  12.903   2.616   0.345  2.3306 -3.3709 -0.0280
55136SOL     OW75721  10.730   0.685   3.412 -0.7483  0.5310  0.2589
55136SOL    HW175722  10.790   0.745   3.368 -1.7641  0.3671 -1.4306
55136SOL    HW275723  10.759   0.598   3.384  0.4445  0.1805  2.3464
55137SOL     OW75724   3.372   0.311   8.407 -0.1394  0.0127  0.5906
55137SOL    HW175725   3.429   0.239   8.380 -0.4531  0.0582 -0.2159
55137SOL    HW275726   3.406   0.388   8.361 -0.0675  0.3003  1.1152
55138SOL     OW75727  11.515   7.899   4.927  0.1303 -0.3781 -0.2908
55138SOL    HW175728  11.501   7.874   5.019  0.7714 -1.5310 -0.4852
55138SOL    HW275729  11.499   7.819   4.878  1.1759 -0.1448 -1.0476
55139SOL     OW75730  10.291   6.900   5.114 -0.2649  0.0268  0.2158
55139SOL    HW175731  10.232   6.974   5.126 -1.1158 -0.6592  0.3407
55139SOL    HW275732  10.358   6.911   5.181 -1.0632  0.0287  1.0293
55140SOL     OW75733   2.698  11.029   0.717 -0.1300  0.4370  0.7410
55140SOL    HW175734   2.749  11.068   0.646 -0.7874 -0.8345 -0.4979
55140SOL    HW275735   2.619  11.084   0.722 -0.2411  0.3378  0.2161
55141SOL     OW75736   1.471   7.827   2.702 -0.5102 -0.3015 -0.1891
55141SOL    HW175737   1.523   7.801   2.626  0.7878  2.4769 -0.3816
55141SOL    HW275738   1.411   7.754   2.716  0.3472 -1.6462 -2.8106
55142SOL     OW75739  11.036   9.431   8.638 -0.3055  0.4120 -0.6425
55142SOL    HW175740  11.023   9.345   8.676 -1.9195  0.5181 -0.9170
55142SOL    HW275741  11.048   9.489   8.713 -1.6125  0.3165 -0.3414
55143SOL     OW75742   4.624   3.252   3.451  0.4047  0.5510  0.3790
55143SOL    HW175743   4.602   3.194   3.379  0.3595 -0.1245  0.9287
55143SOL    HW275744   4.541   3.266   3.497  0.6223  0.1312  0.9099
55144SOL     OW75745  11.301   9.497  11.293  0.5093  0.0375  0.7096
55144SOL    HW175746  11.388   9.510  11.254  0.1078 -2.0881 -1.1131
55144SOL    HW275747  11.316   9.435  11.364  0.3725 -1.3312 -0.4119
55145SOL     OW75748   5.356   4.687   4.762 -0.0910 -0.6717  0.4475
55145SOL    HW175749   5.316   4.607   4.796  0.0980 -0.8122  0.3436
55145SOL    HW275750   5.433   4.657   4.714  0.7709 -0.3292  1.5723
55146SOL     OW75751  10.749  10.786   0.733 -0.0654  0.3690  0.1497
55146SOL    HW175752  10.766  10.691   0.729  0.2030  0.4418 -0.4727
55146SOL    HW275753  10.726  10.810   0.644 -0.5857  0.8166  0.4002
55147SOL     OW75754   0.418  10.802   1.951 -0.0959 -0.4454 -0.5025
55147SOL    HW175755   0.457  10.849   2.026 -1.3200  0.1929 -0.2427
55147SOL    HW275756   0.492  10.789   1.891  0.3915  1.4758 -0.4035
55148SOL     OW75757  12.244  11.056   6.913 -0.1073 -0.3172  0.4594
55148SOL    HW175758  12.316  11.074   6.853  0.5259 -0.1336  1.2547
55148SOL    HW275759  12.169  11.102   6.875  0.3334 -0.0145 -0.0600
55149SOL     OW75760   1.499   2.302   3.981 -0.9326 -0.3268 -0.1334
55149SOL    HW175761   1.481   2.295   3.887  0.4008 -1.8007 -0.3212
55149SOL    HW275762   1.467   2.220   4.018 -3.0415  0.9193  1.0530
55150SOL     OW75763  12.735  10.838  12.082 -0.0519 -0.2510  0.6887
55150SOL    HW175764  12.795  10.768  12.056 -1.0334 -1.4208  1.5166
55150SOL    HW275765  12.774  10.874  12.162  0.1370 -0.2380  0.5914
55151SOL     OW75766   8.178   2.441   9.679  0.0188  0.7032 -0.0910
55151SOL    HW175767   8.199   2.379   9.748  0.6810  1.0009 -0.0144
55151SOL    HW275768   8.171   2.387   9.600 -1.3252  0.2833  0.2931
55152SOL     OW75769  10.184   5.433   6.709 -0.1817  0.1524  0.2760
55152SOL    HW175770  10.206   5.341   6.722 -0.6282  0.2664  2.1051
55152SOL    HW275771  10.207   5.475   6.792  0.0971  1.7129 -0.5593
55153SOL     OW75772   7.424   8.014  10.996  0.2630  0.2811  0.2132
55153SOL    HW175773   7.438   7.920  11.004 -1.6761 -0.1913 -1.1722
55153SOL    HW275774   7.506   8.053  11.026  1.1026 -1.8258  0.8731
55154SOL     OW75775   5.027   1.218   1.034  0.2291 -0.5783 -0.0530
55154SOL    HW175776   4.968   1.185   1.102 -0.6013 -1.5921 -1.2348
55154SOL    HW275777   5.058   1.302   1.069 -2.4258  0.3451  0.3239
55155SOL     OW75778   1.345  10.028   5.061  0.2518 -0.3975  0.1807
55155SOL    HW175779   1.411  10.061   5.121  0.0446  1.2840 -0.4723
55155SOL    HW275780   1.265  10.075   5.084 -0.5597 -1.8444  0.4551
55156SOL     OW75781   2.130   8.320   0.589  0.2838 -0.1542 -0.6929
55156SOL    HW175782   2.149   8.399   0.641  0.3446 -0.3699 -0.3862
55156SOL    HW275783   2.210   8.305   0.539  0.1793  0.1286 -0.9468
55157SOL     OW75784   7.052  12.581   4.866 -0.3040 -0.2657 -0.4233
55157SOL    HW175785   6.996  12.610   4.794 -0.4055  1.6672  0.3772
55157SOL    HW275786   7.114  12.652   4.879  0.4112 -1.0549  0.7060
55158SOL     OW75787   3.018  12.071  12.161  0.1512  0.0288  0.5414
55158SOL    HW175788   3.020  12.084  12.066 -1.7791 -2.3296  0.0830
55158SOL    HW275789   3.102  12.031  12.182  0.6090  0.6073 -0.1329
55159SOL     OW75790   4.694   7.454   5.632  0.3285  0.1475  0.4442
55159SOL    HW175791   4.637   7.530   5.626  2.4146  1.8731  1.2476
55159SOL    HW275792   4.653   7.398   5.699 -1.5729  0.1980 -0.6367
55160SOL     OW75793   0.317   8.177   1.540  0.0799 -0.6891 -0.4658
55160SOL    HW175794   0.366   8.115   1.594 -0.0113  0.1005  0.5538
55160SOL    HW275795   0.227   8.144   1.541  0.1756 -0.9504 -0.5417
55161SOL     OW75796   5.313   9.988   0.058 -0.1178 -0.1059  0.0709
55161SOL    HW175797   5.300   9.930   0.133  2.4702  0.1290  0.7846
55161SOL    HW275798   5.406   9.982   0.039 -0.3717  1.3656 -1.9041
55162SOL     OW75799   0.317  12.710   7.923 -0.1540 -0.3459  0.2575
55162SOL    HW175800   0.311  12.795   7.880 -2.2411 -0.1242  0.8832
55162SOL    HW275801   0.288  12.727   8.013  0.3088 -1.5401  0.6478
55163SOL     OW75802   8.902   0.422   5.931  0.2492 -0.1609 -0.1726
55163SOL    HW175803   8.855   0.345   5.897 -0.0251  0.1489 -0.4964
55163SOL    HW275804   8.864   0.438   6.017  0.6896 -0.7228  0.1354
55164SOL     OW75805   0.107   1.818   7.684  0.1845 -0.1648 -0.6490
55164SOL    HW175806   0.164   1.870   7.742  0.6141 -0.5567 -0.7178
55164SOL    HW275807   0.022   1.819   7.728  0.8292 -1.6151  0.7411
55165SOL     OW75808   7.545  11.953   2.805 -0.2033 -0.1064  0.0647
55165SOL    HW175809   7.474  11.996   2.853  1.3148  1.8501  0.7125
55165SOL    HW275810   7.605  11.924   2.873  0.6954  0.3049 -0.5347
55166SOL     OW75811   5.965   3.040   8.153  0.1958 -0.1174  0.2431
55166SOL    HW175812   5.873   3.028   8.126  0.5756 -0.9298 -0.7853
55166SOL    HW275813   6.014   2.983   8.093  1.4630  1.0554  0.1280
55167SOL     OW75814  12.795  10.792   2.701  0.0410  0.3968  0.1723
55167SOL    HW175815  12.731  10.741   2.751  0.1479 -0.2805 -0.3670
55167SOL    HW275816  12.874  10.790   2.755  0.1974 -0.4485 -0.0630
55168SOL     OW75817   2.850  12.355   5.914 -0.3665  0.2312  0.2143
55168SOL    HW175818   2.903  12.390   5.986  2.0608  0.6181 -1.6488
55168SOL    HW275819   2.839  12.262   5.935  1.0757  0.1408  0.6801
55169SOL     OW75820   0.165   4.473  10.549  0.1468  0.5027 -0.2375
55169SOL    HW175821   0.086   4.438  10.507 -0.6603 -2.3415  3.1861
55169SOL    HW275822   0.152   4.568  10.548 -1.7829  0.3110 -2.4318
55170SOL     OW75823   9.026   1.588   9.576 -0.3604  1.1033  0.3839
55170SOL    HW175824   8.997   1.560   9.662 -0.0169 -0.1408  0.1145
55170SOL    HW275825   9.120   1.606   9.586  0.2359 -1.3583 -0.2271
55171SOL     OW75826   7.868   0.643   5.586 -0.0860 -0.2896  0.3682
55171SOL    HW175827   7.884   0.730   5.623 -1.3224  0.1421 -0.0790
55171SOL    HW275828   7.777   0.624   5.607 -1.1676  0.3422 -3.1050
55172SOL     OW75829   2.582  11.016   7.014 -0.3435 -0.3325  0.5847
55172SOL    HW175830   2.624  10.931   6.998 -1.5678 -0.6749 -1.2363
55172SOL    HW275831   2.541  11.038   6.930 -2.1628  0.8644  1.7037
55173SOL     OW75832  12.773   0.169   4.735  0.1009 -0.1070 -0.1052
55173SOL    HW175833  12.790   0.124   4.818  0.5984 -0.3873 -0.3572
55173SOL    HW275834  12.702   0.229   4.755  1.2739  0.9834  0.9302
55174SOL     OW75835  12.789   6.095   2.025  0.1507  0.0137 -0.1921
55174SOL    HW175836  12.818   6.005   2.036 -1.7657 -0.7370 -0.7829
55174SOL    HW275837  12.816   6.117   1.935  0.4944 -0.0189 -0.0987
55175SOL     OW75838   9.880   7.858   1.232  0.4213  0.1986 -0.0908
55175SOL    HW175839   9.818   7.799   1.275 -0.1869 -0.8487 -2.2364
55175SOL    HW275840   9.962   7.809   1.230  0.3397  0.0672 -0.4300
55176SOL     OW75841   3.818  12.531   1.066 -0.0331 -0.1350 -0.2665
55176SOL    HW175842   3.826  12.494   1.154  0.0827 -0.6655 -0.4947
55176SOL    HW275843   3.849  12.461   1.008  4.6657  1.7842 -0.4835
55177SOL     OW75844  12.380  12.665  10.676  0.1717 -0.1974 -0.3103
55177SOL    HW175845  12.328  12.642  10.752  0.2213  0.1904 -0.1526
55177SOL    HW275846  12.436  12.737  10.706  1.2771 -1.0346 -0.2833
55178SOL     OW75847   5.228   2.517   5.454 -0.1199  0.0614  0.7474
55178SOL    HW175848   5.257   2.573   5.526  1.6507 -1.6201  1.4161
55178SOL    HW275849   5.139   2.490   5.478 -0.7719  2.0198  0.7013
55179SOL     OW75850  11.537  10.496   8.902 -0.0534  0.6899 -0.2325
55179SOL    HW175851  11.451  10.454   8.902 -0.1887  0.9513 -0.6671
55179SOL    HW275852  11.593  10.439   8.954 -0.6038  0.7564  0.4310
55180SOL     OW75853  10.995   8.878   2.966 -0.4471 -0.2282  0.2462
55180SOL    HW175854  11.000   8.850   3.057  0.3992 -0.5651  0.1057
55180SOL    HW275855  10.911   8.923   2.959 -0.5997 -0.3618  1.1442
55181SOL     OW75856  12.927   7.917   2.708  0.0986 -0.4284 -1.1243
55181SOL    HW175857  13.006   7.934   2.760 -0.8626  2.0789 -0.3501
55181SOL    HW275858  12.955   7.852   2.643  2.4668 -0.4890 -0.1580
55182SOL     OW75859   7.571   9.001   0.406  0.0199 -0.2358  0.8398
55182SOL    HW175860   7.571   9.088   0.366 -3.1052  0.5702  2.2529
55182SOL    HW275861   7.499   8.956   0.362  1.7051 -2.2753  0.0038
55183SOL     OW75862   9.089  12.507   7.659 -0.3422  0.4928  0.0373
55183SOL    HW175863   9.101  12.573   7.727  2.2426  1.2689 -1.0505
55183SOL    HW275864   9.046  12.554   7.587  1.9951  1.2261 -0.9495
55184SOL     OW75865   9.634  11.088   8.416  0.2547 -0.0011  0.1488
55184SOL    HW175866   9.701  11.157   8.412 -0.2052  0.4971  0.6828
55184SOL    HW275867   9.603  11.091   8.507  0.7943 -1.4776  0.4078
55185SOL     OW75868   9.311  10.187   0.188 -0.2330 -0.4138 -0.2926
55185SOL    HW175869   9.258  10.238   0.127  0.5919 -0.8476 -1.3894
55185SOL    HW275870   9.269  10.101   0.190  0.0777 -0.5790 -0.7131
55186SOL     OW75871   0.769  11.624   9.806 -0.1232  0.3779  0.2086
55186SOL    HW175872   0.829  11.678   9.755 -0.3230  1.6781  1.2880
55186SOL    HW275873   0.826  11.562   9.852  0.1908  0.2134 -0.4000
55187SOL     OW75874   6.921   0.915   0.302 -0.5775  0.3492 -0.2758
55187SOL    HW175875   6.830   0.934   0.324 -0.3351 -0.0319  1.1657
55187SOL    HW275876   6.919   0.828   0.263 -0.7219 -0.0811  0.6740
55188SOL     OW75877  10.624   2.770  11.081  1.0579 -0.5775 -0.1440
55188SOL    HW175878  10.563   2.842  11.067  0.1890 -0.1411  4.2836
55188SOL    HW275879  10.710   2.807  11.060  0.2244  0.0726 -2.6677
55189SOL     OW75880   4.048   6.555   7.399 -0.4033  0.0993 -0.3843
55189SOL    HW175881   3.994   6.571   7.323  0.6656 -0.6765 -1.3499
55189SOL    HW275882   4.033   6.462   7.420  1.3763 -0.4755 -1.4072
55190SOL     OW75883   3.707   3.139   6.568  0.2414  0.5170  0.4653
55190SOL    HW175884   3.664   3.108   6.647 -1.0459  0.4121 -0.2523
55190SOL    HW275885   3.641   3.195   6.525  1.0272  0.8307 -0.3663
55191SOL     OW75886   1.766   8.812   4.051  0.3673 -0.9816  0.6029
55191SOL    HW175887   1.783   8.894   4.005  1.8966 -1.6213 -0.0303
55191SOL    HW275888   1.679   8.823   4.088 -1.5050 -0.7668 -3.2924
55192SOL     OW75889   7.925   0.523   8.755  0.1322 -0.0549 -0.0847
55192SOL    HW175890   7.845   0.481   8.787  0.2885 -0.2054  0.1162
55192SOL    HW275891   7.987   0.515   8.828  1.1240 -2.1158 -1.0468
55193SOL     OW75892   6.875   2.660   5.336  0.6665  0.4284  0.3838
55193SOL    HW175893   6.935   2.637   5.264 -0.3454  1.1573 -0.7249
55193SOL    HW275894   6.866   2.578   5.385  1.0316 -0.2202 -0.5764
55194SOL     OW75895   0.305   1.398   9.854 -0.5712  0.2651 -0.0785
55194SOL    HW175896   0.337   1.400   9.764 -0.9913 -0.2657 -0.2462
55194SOL    HW275897   0.338   1.316   9.891 -0.5883  0.3702  0.1785
55195SOL     OW75898   0.903   5.559   4.050 -0.3924  0.2649 -0.4548
55195SOL    HW175899   0.817   5.537   4.014 -0.3749  1.2038 -1.1344
55195SOL    HW275900   0.885   5.589   4.139 -0.7053 -0.0535 -0.4097
55196SOL     OW75901   4.488   1.115   5.758 -0.4454 -0.1607  0.5008
55196SOL    HW175902   4.427   1.184   5.732 -0.2689 -0.7959 -1.8923
55196SOL    HW275903   4.572   1.159   5.770 -0.1715  0.0338 -1.7049
55197SOL     OW75904   6.769  12.668   4.193  0.0649  0.4551  0.6531
55197SOL    HW175905   6.730  12.721   4.124  0.6168 -1.4818 -1.2455
55197SOL    HW275906   6.762  12.722   4.272 -1.3829  2.3889 -0.7163
55198SOL     OW75907  11.123   0.923   2.370  0.5184 -0.3761 -0.0131
55198SOL    HW175908  11.213   0.893   2.385  0.2914 -1.7146 -1.1862
55198SOL    HW275909  11.123   0.954   2.280 -0.5106 -1.6509 -0.4790
55199SOL     OW75910  11.124  12.702   5.550  0.0658 -0.2163 -0.6541
55199SOL    HW175911  11.073  12.637   5.599 -1.5023  1.1053 -0.4380
55199SOL    HW275912  11.061  12.743   5.491  0.5471  2.2342  0.3749
55200SOL     OW75913   7.072   7.073  12.104  0.3491 -0.3148  0.5216
55200SOL    HW175914   7.022   6.994  12.084  1.6279 -1.4278  1.5461
55200SOL    HW275915   7.151   7.066  12.050 -0.4585  1.4063 -1.0555
55201SOL     OW75916  11.349  12.357   4.498  0.3500  0.4091  0.2214
55201SOL    HW175917  11.308  12.438   4.530  2.5320  1.1065  1.4651
55201SOL    HW275918  11.309  12.342   4.412 -0.4463  2.5567  0.1574
55202SOL     OW75919  10.813   0.552   2.590 -0.5549  0.0992  0.0708
55202SOL    HW175920  10.718   0.561   2.597 -0.3992  1.8384  0.6037
55202SOL    HW275921  10.834   0.472   2.638 -1.6499  0.2498  0.8293
55203SOL     OW75922  10.190   8.340  10.441 -0.2779  0.3048  0.3546
55203SOL    HW175923  10.236   8.385  10.371 -0.2682 -0.4135 -0.1125
55203SOL    HW275924  10.144   8.409  10.489 -0.7761  0.7417 -0.7301
55204SOL     OW75925   8.130  12.619   3.261 -0.1459  0.6293  0.3856
55204SOL    HW175926   8.036  12.614   3.281 -0.1611  1.4379  0.5551
55204SOL    HW275927   8.173  12.596   3.343 -0.1969  0.7022  0.4326
55205SOL     OW75928   8.912   1.534   1.657 -0.2936 -0.1139  0.0633
55205SOL    HW175929   8.863   1.615   1.668 -0.6145 -0.3345  0.2756
55205SOL    HW275930   8.948   1.516   1.744 -1.1941 -0.8163  0.3015
55206SOL     OW75931   3.532  10.125  11.381 -0.0744  0.2621  0.3909
55206SOL    HW175932   3.441  10.127  11.411 -0.5487 -1.0492 -0.8910
55206SOL    HW275933   3.582  10.159  11.455 -1.6947  2.1258  0.7083
55207SOL     OW75934   7.263   5.214   2.396  0.1279  0.0771 -0.6184
55207SOL    HW175935   7.212   5.150   2.446 -0.6216  0.6858 -0.5950
55207SOL    HW275936   7.228   5.209   2.307 -0.1839  0.7023 -0.5378
55208SOL     OW75937   2.244   3.135   0.158  0.0441 -0.1668 -0.0803
55208SOL    HW175938   2.240   3.050   0.115 -1.3738  0.6668 -1.7231
55208SOL    HW275939   2.319   3.178   0.118  0.5700 -0.5091  0.5221
55209SOL     OW75940   5.253  12.404   7.514 -0.2829 -0.3149 -0.4201
55209SOL    HW175941   5.233  12.418   7.606 -2.2800 -2.4698 -0.4604
55209SOL    HW275942   5.196  12.465   7.467  1.2912  1.3492 -0.2944
55210SOL     OW75943   4.592   6.342   7.756  0.0552  0.7316 -0.4230
55210SOL    HW175944   4.642   6.286   7.697 -0.1274  0.4487 -0.3074
55210SOL    HW275945   4.647   6.420   7.767  2.0459 -0.8954  2.2984
55211SOL     OW75946   0.643  12.439   2.622 -0.1705 -0.2508  0.1958
55211SOL    HW175947   0.678  12.521   2.587 -2.0024  0.4381 -0.1504
55211SOL    HW275948   0.702  12.371   2.589  1.7444  0.9494  0.9854
55212SOL     OW75949   4.714   1.778   1.086 -0.0968  0.0371 -0.3487
55212SOL    HW175950   4.651   1.832   1.134 -0.1077  0.3780 -0.7445
55212SOL    HW275951   4.720   1.698   1.137 -0.1025  0.4005  0.2248
55213SOL     OW75952   1.020  12.887   7.887 -0.0650 -0.5566  0.1366
55213SOL    HW175953   1.003  12.961   7.829  2.3042 -0.7212 -0.8905
55213SOL    HW275954   1.081  12.921   7.953  1.2425 -1.5943 -0.4863
55214SOL     OW75955   4.311   0.445   1.264  0.2101 -0.2623 -0.6570
55214SOL    HW175956   4.233   0.492   1.234  1.0646  1.5851 -0.1917
55214SOL    HW275957   4.291   0.420   1.354  0.3394  0.7368 -0.3356
55215SOL     OW75958   5.255   5.268   7.382  0.2528  0.2028 -0.1450
55215SOL    HW175959   5.199   5.340   7.352 -1.2640 -0.6916  0.4601
55215SOL    HW275960   5.234   5.259   7.475  0.3056 -1.1238 -0.2485
55216SOL     OW75961   7.405  11.660   2.059 -0.1120  0.3390  0.2104
55216SOL    HW175962   7.442  11.579   2.024 -1.2867 -0.2647  0.3311
55216SOL    HW275963   7.404  11.720   1.985  1.1037  0.3847  0.2068
55217SOL     OW75964   3.752   0.563   6.219  0.0263  0.3553 -0.3241
55217SOL    HW175965   3.720   0.479   6.187  0.4121  0.1452 -0.1640
55217SOL    HW275966   3.683   0.625   6.197  0.0410  0.1192 -1.0638
55218SOL     OW75967   9.967   5.165   9.284 -0.8048 -0.1192  0.2094
55218SOL    HW175968  10.023   5.096   9.318 -0.3519 -0.8003 -1.7818
55218SOL    HW275969   9.897   5.120   9.237  1.3134  0.5412 -4.0935
55219SOL     OW75970   4.981   3.307   0.189 -0.1159 -0.2649  0.2633
55219SOL    HW175971   5.021   3.393   0.179  1.1058 -0.7481  0.7105
55219SOL    HW275972   4.961   3.279   0.100  0.8622 -0.1249 -0.0184
55220SOL     OW75973   2.953  10.841  12.450  0.1156 -0.2555 -0.3818
55220SOL    HW175974   2.951  10.745  12.452 -0.7317 -0.2443  1.4324
55220SOL    HW275975   2.860  10.866  12.448  0.2167  0.5955 -4.9349
55221SOL     OW75976   6.386   2.862  11.479  0.4419  0.7095 -0.5306
55221SOL    HW175977   6.382   2.815  11.396 -2.2449  1.0871 -0.6891
55221SOL    HW275978   6.314   2.925  11.474  0.1374  0.6577  2.1246
55222SOL     OW75979   0.040   1.052   4.611 -1.0298 -0.0583  0.0421
55222SOL    HW175980   0.042   0.959   4.633  0.1912 -0.7023 -2.4270
55222SOL    HW275981   0.019   1.096   4.693  0.3774 -2.3734  1.7633
55223SOL     OW75982   4.601   9.420   0.511  0.0049  0.3617  0.0013
55223SOL    HW175983   4.519   9.378   0.486 -0.1262  0.8840 -0.4887
55223SOL    HW275984   4.604   9.499   0.457  0.3352  0.8768  0.7683
55224SOL     OW75985   2.169   8.622  10.785 -0.1817  0.0434  0.0810
55224SOL    HW175986   2.219   8.704  10.784 -0.0064 -0.0661 -0.2608
55224SOL    HW275987   2.094   8.641  10.729 -0.2869  0.0587  0.2256
55225SOL     OW75988   8.205   9.674   7.531 -0.3590 -0.0648  0.3261
55225SOL    HW175989   8.153   9.662   7.452 -0.3372  1.1107  0.1223
55225SOL    HW275990   8.201   9.768   7.549  0.7252 -0.1238  0.9633
55226SOL     OW75991   6.413  10.080   9.899 -0.2968  0.2367  0.0653
55226SOL    HW175992   6.459  10.002   9.867 -0.4889 -0.1014  0.6022
55226SOL    HW275993   6.377  10.121   9.820  0.3733  0.1495 -0.2913
55227SOL     OW75994  10.976   9.181  12.408  0.1063 -0.1687 -0.3090
55227SOL    HW175995  10.963   9.145  12.321  4.1420 -1.2755 -0.6499
55227SOL    HW275996  10.991   9.105  12.464  0.6042  0.6279  0.6872
55228SOL     OW75997  10.310   2.304   2.965  0.2237  0.4461  0.3573
55228SOL    HW175998  10.266   2.380   2.927  0.9292  0.5992 -0.1773
55228SOL    HW275999  10.360   2.267   2.892 -1.9033 -1.9297 -0.0275
55229SOL     OW76000   4.600   3.238   2.747  0.1823  0.6346  0.3520
55229SOL    HW176001   4.662   3.310   2.756  0.0136  0.6340  1.7521
55229SOL    HW276002   4.516   3.280   2.733  0.5105  0.6324 -2.2062
55230SOL     OW76003  10.581   2.536   0.246  0.2109 -0.5141  0.7152
55230SOL    HW176004  10.520   2.463   0.249  0.2371 -0.6020 -0.3332
55230SOL    HW276005  10.550   2.589   0.172  0.5560  0.2085  1.0800
55231SOL     OW76006  12.845   4.491   0.255 -0.1296  0.0178  0.3059
55231SOL    HW176007  12.904   4.558   0.289 -0.6270  0.7082 -0.1748
55231SOL    HW276008  12.817   4.442   0.333 -0.0296  0.5855  0.7043
55232SOL     OW76009   4.743   9.261   1.980 -0.4298 -0.2397  0.3056
55232SOL    HW176010   4.652   9.231   1.979 -0.4597 -0.3808  2.3310
55232SOL    HW276011   4.744   9.331   2.046  0.8963 -0.0907  0.1557
55233SOL     OW76012   9.133   1.024   9.774  0.2196  0.0205 -0.7724
55233SOL    HW176013   9.142   0.930   9.785  1.9173  0.3099  0.7725
55233SOL    HW276014   9.197   1.046   9.706  0.4610  0.1457 -0.5095
55234SOL     OW76015   3.825   5.684   7.420 -0.4859  0.5092 -0.1726
55234SOL    HW176016   3.814   5.730   7.337  0.6387  2.1161  0.5328
55234SOL    HW276017   3.754   5.620   7.421 -1.7129  1.7747 -1.4916
55235SOL     OW76018  11.577   2.118   0.445  0.7920 -0.6769  0.8281
55235SOL    HW176019  11.491   2.115   0.487  0.5788  1.0438  0.6045
55235SOL    HW276020  11.635   2.157   0.510  1.5220 -2.2026  1.1251
55236SOL     OW76021  12.599   1.922   3.273 -0.4108 -0.0091 -0.3025
55236SOL    HW176022  12.663   1.902   3.205 -0.7603 -1.3975 -0.2550
55236SOL    HW276023  12.517   1.882   3.241 -1.0002  0.7987  0.1469
55237SOL     OW76024   3.790   3.477   1.314  0.0005  0.5601 -0.0973
55237SOL    HW176025   3.757   3.438   1.395 -0.0750 -0.5158 -0.6168
55237SOL    HW276026   3.751   3.564   1.311 -0.5492  0.3553  0.6733
55238SOL     OW76027   3.586  10.608   7.778  0.5484  0.2715 -0.0265
55238SOL    HW176028   3.574  10.515   7.796 -0.1630  0.3091 -0.2924
55238SOL    HW276029   3.538  10.653   7.848  1.0148  0.4433  0.1888
55239SOL     OW76030  12.237   4.160  11.515  0.2826 -0.3621 -0.0184
55239SOL    HW176031  12.234   4.255  11.528  3.6798 -0.1530  0.1759
55239SOL    HW276032  12.289   4.127  11.588 -0.2981 -2.3130 -0.4176
55240SOL     OW76033   8.798   9.632   8.024  0.0357  0.5538 -0.2697
55240SOL    HW176034   8.759   9.638   7.937  0.4602  0.7696 -0.4484
55240SOL    HW276035   8.850   9.712   8.032  2.0951 -0.6393 -0.8579
55241SOL     OW76036   5.731  10.002   7.148 -0.1904 -0.1354 -0.0649
55241SOL    HW176037   5.776  10.058   7.211  0.0744 -0.9406  0.4864
55241SOL    HW276038   5.677   9.944   7.202  1.1816 -1.8526 -0.4353
55242SOL     OW76039   9.438   6.149   4.895 -0.9078  0.0881  0.3321
55242SOL    HW176040   9.379   6.121   4.824 -0.7333  0.0337  0.2078
55242SOL    HW276041   9.409   6.098   4.971  0.5112 -1.7488 -0.3027
55243SOL     OW76042   0.656   8.805   3.537 -0.0115 -0.2970  0.1087
55243SOL    HW176043   0.677   8.863   3.464  1.7743  0.2596  0.9905
55243SOL    HW276044   0.625   8.864   3.606  1.3609 -0.3753  0.8456
55244SOL     OW76045   4.520   9.541   6.599  0.3205  0.4465 -0.0590
55244SOL    HW176046   4.589   9.474   6.597 -0.0754 -0.0367  1.2935
55244SOL    HW276047   4.441   9.495   6.573  0.3871  0.8794 -1.0837
55245SOL     OW76048  11.756   9.308   6.840 -0.0866  0.1428  0.3360
55245SOL    HW176049  11.704   9.265   6.907 -1.1505 -0.1225 -0.6192
55245SOL    HW276050  11.812   9.240   6.805 -0.9904 -0.2460 -0.4198
55246SOL     OW76051   5.428   8.573   8.716 -0.3440 -0.3400  0.3182
55246SOL    HW176052   5.438   8.480   8.734  1.5527 -0.2330 -0.0060
55246SOL    HW276053   5.490   8.616   8.774 -1.7916  0.8223  1.0854
55247SOL     OW76054  12.644  10.107   6.798  0.0084  0.4859  0.2789
55247SOL    HW176055  12.664  10.199   6.813  0.7085  0.5202 -0.7106
55247SOL    HW276056  12.659  10.065   6.882  0.6544  1.1293  0.4942
55248SOL     OW76057   4.115   6.076   6.809 -0.3414  0.4704 -0.4523
55248SOL    HW176058   4.074   6.129   6.877 -2.0407 -0.6519 -0.5328
55248SOL    HW276059   4.044   6.055   6.748  0.0410 -2.4080 -0.0885
55249SOL     OW76060   9.018   9.817  11.290 -0.3375  0.2464 -0.3951
55249SOL    HW176061   9.054   9.735  11.321  0.8246  1.0872  0.5386
55249SOL    HW276062   8.925   9.798  11.273 -0.9190 -0.4570  2.9402
55250SOL     OW76063   8.530   6.561   5.184  0.0136  0.5161 -0.7743
55250SOL    HW176064   8.488   6.525   5.106  1.6879 -1.4561 -0.8230
55250SOL    HW276065   8.551   6.485   5.238  2.2718  1.5059 -0.1390
55251SOL     OW76066   5.074  11.849   6.420 -0.0785  0.0610 -0.1991
55251SOL    HW176067   5.017  11.793   6.367 -0.3966 -0.7262  0.9356
55251SOL    HW276068   5.046  11.833   6.510  2.1600 -0.6270  0.4435
55252SOL     OW76069   1.320   7.819  12.878 -0.8748 -0.1578 -0.3855
55252SOL    HW176070   1.413   7.824  12.898 -0.9277 -0.3486 -0.0775
55252SOL    HW276071   1.280   7.788  12.959 -1.4201  1.5811  0.0473
55253SOL     OW76072   1.302   3.098   0.221 -0.2589  0.1654 -0.3453
55253SOL    HW176073   1.220   3.143   0.204 -0.8155 -0.8908 -0.5288
55253SOL    HW276074   1.294   3.014   0.174  1.0504  0.1833 -0.6441
55254SOL     OW76075   9.879   4.137   4.630  0.0524 -0.1155  0.2975
55254SOL    HW176076   9.824   4.215   4.629 -0.2861 -0.3461 -0.6928
55254SOL    HW276077   9.945   4.153   4.563 -0.3133 -0.8672 -0.2635
55255SOL     OW76078  10.106  12.176   4.342  0.5190  0.0372  0.5022
55255SOL    HW176079  10.174  12.166   4.276  0.2551  1.8614 -0.0980
55255SOL    HW276080  10.076  12.266   4.332 -2.1416 -0.7623  0.6118
55256SOL     OW76081  12.225   8.777  10.435 -0.3369  0.1852  0.3813
55256SOL    HW176082  12.207   8.871  10.428  0.9436  0.4314  0.1774
55256SOL    HW276083  12.316   8.768  10.406 -0.3243 -1.0699  0.7773
55257SOL     OW76084   4.615   1.330   4.434  0.4019  1.1358 -0.0459
55257SOL    HW176085   4.613   1.340   4.530 -0.8010 -2.1268  0.3787
55257SOL    HW276086   4.704   1.300   4.415 -0.4778 -2.4990  0.7615
55258SOL     OW76087  10.787   6.243   7.884  0.5008 -0.4171  0.3384
55258SOL    HW176088  10.865   6.197   7.913  1.4438  1.1309  0.3737
55258SOL    HW276089  10.816   6.292   7.806  0.1117  1.6275  1.4076
55259SOL     OW76090  11.128   3.271   4.043 -0.4983 -0.2987 -0.7745
55259SOL    HW176091  11.144   3.355   3.999  1.0702  0.5974  1.3871
55259SOL    HW276092  11.137   3.290   4.136 -0.7608 -2.7652 -0.1845
55260SOL     OW76093   1.602   6.786   4.990 -0.1435 -0.0078  0.2866
55260SOL    HW176094   1.639   6.821   4.909 -0.1149  0.3801  0.4670
55260SOL    HW276095   1.652   6.829   5.060 -1.3809  1.0549  0.5503
55261SOL     OW76096   8.789   1.013   9.814 -0.7781 -0.4871  0.2885
55261SOL    HW176097   8.825   0.931   9.782 -0.3969  0.1982 -1.0966
55261SOL    HW276098   8.712   1.029   9.759  0.2388  1.0147 -0.7991
55262SOL     OW76099   3.488  10.094   4.342 -0.3725  0.1230  0.2660
55262SOL    HW176100   3.509  10.105   4.249 -0.0059  0.5965  0.4008
55262SOL    HW276101   3.481   9.999   4.354 -0.9529  0.0808 -0.3588
55263SOL     OW76102   1.019   7.186   4.496 -0.9360  0.6935 -0.1451
55263SOL    HW176103   0.986   7.266   4.455 -0.8613  1.1700  0.6939
55263SOL    HW276104   1.114   7.192   4.489 -0.7021  2.2774  2.6651
55264SOL     OW76105   6.653   4.960   4.750 -0.2470  0.0143 -0.4544
55264SOL    HW176106   6.661   4.990   4.660 -2.0776 -1.0187 -1.0247
55264SOL    HW276107   6.716   5.012   4.799  3.3410 -1.6979 -2.8071
55265SOL     OW76108  10.396   3.068  10.593 -0.1070 -0.3469  0.4129
55265SOL    HW176109  10.485   3.072  10.629  1.1866 -0.5174 -2.4815
55265SOL    HW276110  10.408   3.079  10.499 -3.4080  1.8939  0.0970
55266SOL     OW76111  12.049  12.458   8.832  0.2044 -0.3828 -0.1998
55266SOL    HW176112  12.047  12.482   8.924 -2.1593 -1.4492  0.1033
55266SOL    HW276113  12.084  12.535   8.787 -1.4756  1.3562  1.2898
55267SOL     OW76114  12.006   8.721   4.516 -0.1277  0.3875 -0.2043
55267SOL    HW176115  12.045   8.639   4.547  0.4488 -0.2597 -2.4725
55267SOL    HW276116  11.953   8.751   4.590 -2.2265 -3.1994 -0.0044
55268SOL     OW76117   3.285   5.984   2.073 -0.0172  0.0912 -0.1387
55268SOL    HW176118   3.331   5.936   2.004  1.4893  0.4368  0.5978
55268SOL    HW276119   3.313   5.943   2.154 -1.5100 -0.0808  0.3094
55269SOL     OW76120   7.837   8.034  10.019 -0.6264 -0.1883 -0.4135
55269SOL    HW176121   7.838   8.070  10.108 -1.6931  0.3705 -0.6006
55269SOL    HW276122   7.895   7.959  10.023 -0.4969 -0.0552  0.7123
55270SOL     OW76123  10.209  11.364  12.296 -0.0153  0.1286 -0.6169
55270SOL    HW176124  10.150  11.431  12.262 -1.7121 -2.0907 -2.3285
55270SOL    HW276125  10.254  11.331  12.218 -0.5426 -1.9018 -0.1093
55271SOL     OW76126   6.266   5.239   8.004 -0.0145 -0.3127 -0.2872
55271SOL    HW176127   6.191   5.192   7.970  0.0980 -0.3537 -0.4774
55271SOL    HW276128   6.258   5.327   7.968 -0.0461 -0.2785 -0.1969
55272SOL     OW76129   8.219   1.063  12.560 -0.1746 -0.4747 -0.0582
55272SOL    HW176130   8.140   1.083  12.609  0.3402  1.6532 -0.0126
55272SOL    HW276131   8.188   1.018  12.481 -1.2165 -1.5935  0.9557
55273SOL     OW76132   8.090   4.946   4.619  0.6640  0.0114 -0.1798
55273SOL    HW176133   8.029   4.872   4.628  2.1002 -1.1861  0.1737
55273SOL    HW276134   8.035   5.024   4.627 -0.7173 -1.0166  0.8444
55274SOL     OW76135   1.602   6.924  12.633 -0.2056 -0.2101  0.0493
55274SOL    HW176136   1.519   6.898  12.674  1.2274 -1.4654  2.3369
55274SOL    HW276137   1.614   7.015  12.659 -0.3011 -0.3892  0.7441
55275SOL     OW76138  10.046   7.928  12.588 -0.6818 -0.3185  0.3446
55275SOL    HW176139  10.097   7.909  12.667 -1.2808  1.8234  1.3521
55275SOL    HW276140   9.959   7.894  12.608 -0.5597 -0.7481  0.1485
55276SOL     OW76141   1.570   0.167   6.271  0.4513  0.0423  0.1646
55276SOL    HW176142   1.558   0.259   6.249  2.1451 -0.0740 -1.4921
55276SOL    HW276143   1.596   0.168   6.363  0.0457  1.1707  0.2867
55277SOL     OW76144   7.044   0.587   6.080 -0.0886 -0.0076 -0.9291
55277SOL    HW176145   7.140   0.586   6.077 -0.0939 -0.5446 -0.9348
55277SOL    HW276146   7.019   0.498   6.103 -0.6280 -0.2537 -2.3589
55278SOL     OW76147   9.166   0.664  10.172  0.1599 -0.4536 -0.3944
55278SOL    HW176148   9.167   0.610  10.251 -0.6332  0.5080  0.3105
55278SOL    HW276149   9.138   0.605  10.103 -0.4965 -1.0084  0.3245
55279SOL     OW76150  10.686  10.006   8.230  0.3137 -0.1152 -0.3237
55279SOL    HW176151  10.756   9.941   8.237  0.3310 -0.0438  0.1428
55279SOL    HW276152  10.707  10.054   8.149 -0.1031 -1.1549 -1.0730
55280SOL     OW76153  12.427   6.362   6.003 -0.1044 -0.0026 -0.9091
55280SOL    HW176154  12.429   6.421   6.079  1.8006  0.5681 -1.3481
55280SOL    HW276155  12.342   6.378   5.962 -1.0746 -0.1473  0.9473
55281SOL     OW76156   2.060   0.539  10.669 -0.3873 -0.1441 -0.1998
55281SOL    HW176157   2.139   0.543  10.615 -0.1457 -0.8430  0.0980
55281SOL    HW276158   2.091   0.549  10.759 -0.5239 -1.3241 -0.0054
55282SOL     OW76159   2.374  11.251   8.355 -0.2065 -0.0219  0.4201
55282SOL    HW176160   2.305  11.291   8.409  0.5047  0.7466  0.7657
55282SOL    HW276161   2.448  11.311   8.362 -0.1863  0.2449 -1.6768
55283SOL     OW76162   4.764   4.082   0.291 -0.3159 -0.4540  0.1772
55283SOL    HW176163   4.747   4.008   0.349 -0.9746  0.1782  0.8057
55283SOL    HW276164   4.783   4.155   0.349  2.1793 -0.5094 -0.4446
55284SOL     OW76165   1.224   5.501   6.967  0.2122  0.2699 -0.2470
55284SOL    HW176166   1.202   5.582   7.012  0.9025 -0.7410  2.0304
55284SOL    HW276167   1.287   5.527   6.900 -0.0138  1.6767  0.0615
55285SOL     OW76168   2.473   7.324   3.724  0.0275  0.1482  0.2724
55285SOL    HW176169   2.406   7.295   3.663 -0.7683  0.5064  0.9609
55285SOL    HW276170   2.541   7.256   3.720  0.6314  0.8103 -1.9824
55286SOL     OW76171   2.070   9.785   3.636 -0.1221  0.4673 -0.3433
55286SOL    HW176172   2.112   9.847   3.576 -1.2294  1.9750  0.3693
55286SOL    HW276173   1.981   9.776   3.602 -0.0676 -0.5229 -0.2556
55287SOL     OW76174   5.788   7.172   1.589  0.2111 -0.3942 -0.2389
55287SOL    HW176175   5.858   7.122   1.548 -0.1311  0.3447 -1.7804
55287SOL    HW276176   5.744   7.109   1.646  0.8754 -1.3753 -0.7773
55288SOL     OW76177   1.819   3.481   8.426 -0.1886 -0.1621  0.5264
55288SOL    HW176178   1.793   3.388   8.426  2.1727 -0.9184 -1.2940
55288SOL    HW276179   1.864   3.493   8.509 -1.0230 -0.4684  1.0340
55289SOL     OW76180   9.834  12.308   2.646 -0.5979 -0.3085  0.2443
55289SOL    HW176181   9.906  12.371   2.649  0.2980 -1.2619 -0.4983
55289SOL    HW276182   9.877  12.223   2.634 -1.8269 -0.9650  0.3038
55290SOL     OW76183   2.619  10.503  11.251 -0.2035  0.2078  0.5259
55290SOL    HW176184   2.690  10.439  11.247  1.1208  1.5166  2.0057
55290SOL    HW276185   2.560  10.477  11.180  2.8640  0.3837 -2.3899
55291SOL     OW76186   2.586   0.841   8.484  0.1389 -0.8019 -0.2873
55291SOL    HW176187   2.635   0.919   8.457 -0.4293  0.2256  1.4676
55291SOL    HW276188   2.495   0.862   8.463 -0.1167 -0.6176  0.9096
55292SOL     OW76189   5.412   3.593   5.542  0.1093  0.1549  0.2535
55292SOL    HW176190   5.436   3.677   5.502  1.1203  1.6497  3.6796
55292SOL    HW276191   5.489   3.537   5.529  1.7695  1.7073  2.7634
55293SOL     OW76192   0.127   2.902   8.485 -0.4650 -0.1159 -0.3487
55293SOL    HW176193   0.181   2.852   8.546 -0.1115 -0.7740 -1.1691
55293SOL    HW276194   0.083   2.968   8.539 -1.0794 -1.4189  0.7980
55294SOL     OW76195  10.085  12.497   1.531 -0.0388  0.4468  0.3497
55294SOL    HW176196  10.033  12.574   1.553  0.3495  1.0475 -0.7817
55294SOL    HW276197  10.034  12.423   1.566 -0.8714  1.1340  0.6293
55295SOL     OW76198   4.773  12.546  12.110  0.0700 -0.1546 -0.2235
55295SOL    HW176199   4.812  12.473  12.061 -0.2433  0.1462 -0.9416
55295SOL    HW276200   4.722  12.505  12.179 -0.2396 -0.6212 -0.7247
55296SOL     OW76201   0.676   9.626   9.660  0.5723 -0.2055 -0.3923
55296SOL    HW176202   0.585   9.598   9.651 -0.0593  1.6914 -0.4499
55296SOL    HW276203   0.707   9.635   9.569 -0.2172  2.1273 -0.4855
55297SOL     OW76204  12.590   4.712   9.682 -0.6987  0.0364 -0.2749
55297SOL    HW176205  12.651   4.676   9.617 -0.7190  0.6242 -0.6308
55297SOL    HW276206  12.516   4.742   9.629 -0.9410  0.0532  0.0779
55298SOL     OW76207   6.727   7.538  10.046  0.0720  0.2534 -0.0188
55298SOL    HW176208   6.653   7.550   9.987  0.1565 -0.1317 -0.2064
55298SOL    HW276209   6.688   7.500  10.125  0.1988 -0.9281 -0.4995
55299SOL     OW76210   3.116   0.810   3.808 -0.0205 -0.5251 -0.1528
55299SOL    HW176211   3.136   0.827   3.900  1.8400 -1.3854 -0.3600
55299SOL    HW276212   3.185   0.751   3.778 -0.4318 -0.0568 -2.1923
55300SOL     OW76213   8.828   6.014   4.759  0.8330 -0.4570  0.5159
55300SOL    HW176214   8.855   6.078   4.692 -2.5016 -0.1675 -0.7503
55300SOL    HW276215   8.784   5.945   4.710 -1.2522 -0.5093  2.3001
55301SOL     OW76216   2.733  11.736   7.218  0.1896 -0.0014 -0.1000
55301SOL    HW176217   2.695  11.650   7.199 -0.9315  0.4612 -0.0325
55301SOL    HW276218   2.701  11.793   7.149  0.7154  0.4294 -0.0004
55302SOL     OW76219  12.536   9.143   3.180  0.3958  0.7162 -0.1839
55302SOL    HW176220  12.489   9.170   3.100  0.1403 -0.4173 -0.4355
55302SOL    HW276221  12.472   9.090   3.227  1.3059 -0.5926 -0.3750
55303SOL     OW76222   3.201   1.514   4.412 -0.5758  0.4260 -0.1719
55303SOL    HW176223   3.263   1.475   4.350  0.0690 -0.0589  0.7560
55303SOL    HW276224   3.256   1.556   4.478 -1.2502  0.6800  0.2353
55304SOL     OW76225   5.678   0.511   1.730  0.3432 -0.3622  0.5575
55304SOL    HW176226   5.717   0.444   1.786  0.1085 -1.3588 -0.4365
55304SOL    HW276227   5.634   0.461   1.661  0.6966  0.8334 -0.5580
55305SOL     OW76228  10.675   6.398  11.235  0.7464  0.5136  0.1190
55305SOL    HW176229  10.659   6.491  11.252 -1.3714  0.1286  0.5206
55305SOL    HW276230  10.701   6.363  11.320  0.7980  0.5907  0.1357
55306SOL     OW76231  11.932   3.690   4.715 -0.0769  0.0842  0.5620
55306SOL    HW176232  12.011   3.733   4.683  0.1426 -0.8672 -0.2511
55306SOL    HW276233  11.862   3.723   4.659  0.1529 -0.8542 -0.3216
55307SOL     OW76234   1.935  12.417   7.626 -0.0146 -0.0835  0.6583
55307SOL    HW176235   1.910  12.505   7.598  2.5622  0.7709  0.7880
55307SOL    HW276236   2.007  12.393   7.568  0.8017 -1.1453  2.0511
55308SOL     OW76237   1.086  10.750   4.516  0.7477 -0.1768 -0.0584
55308SOL    HW176238   1.084  10.673   4.573  1.6827  0.0395  0.2813
55308SOL    HW276239   1.042  10.819   4.566 -0.7228 -0.6530 -0.6435
55309SOL     OW76240   7.919  12.500  10.842 -0.1648 -0.3304  0.5449
55309SOL    HW176241   8.011  12.498  10.866  0.4647  0.0314 -1.6481
55309SOL    HW276242   7.873  12.465  10.919  1.5661  1.5176  2.5374
55310SOL     OW76243   5.589   1.089   3.988 -0.1139 -0.2641  0.0715
55310SOL    HW176244   5.579   1.142   3.909  0.3981 -0.2498  0.0114
55310SOL    HW276245   5.516   1.116   4.045 -1.8178 -1.8251 -1.2506
55311SOL     OW76246   7.619   2.538   9.066 -1.1078 -0.0820  0.0760
55311SOL    HW176247   7.563   2.536   8.989 -0.8160  3.0426 -0.3853
55311SOL    HW276248   7.681   2.609   9.048 -0.8401  0.5768  3.0440
55312SOL     OW76249  10.440   6.020   3.686  0.4403  0.0282 -0.4572
55312SOL    HW176250  10.388   5.941   3.704  0.2533  0.2915  0.2012
55312SOL    HW276251  10.465   6.052   3.773  0.4874  0.7163 -0.7219
55313SOL     OW76252   4.583  12.609   8.914  0.2007  0.7857 -0.5236
55313SOL    HW176253   4.603  12.650   8.830 -1.0503  1.1613 -0.6703
55313SOL    HW276254   4.512  12.548   8.894  1.1676 -0.5332 -0.0684
55314SOL     OW76255   0.044   8.657   5.457  0.1747  0.3189  0.2749
55314SOL    HW176256   0.057   8.563   5.471  1.0060  0.2880 -0.5626
55314SOL    HW276257   0.060   8.697   5.543 -0.5753 -0.3284  0.7262
55315SOL     OW76258  11.908   7.581   5.809  0.0981 -0.8003  0.3173
55315SOL    HW176259  11.837   7.521   5.787  0.6431 -0.9853 -0.9850
55315SOL    HW276260  11.875   7.668   5.784  0.7834 -1.0279 -1.5313
55316SOL     OW76261   9.208  10.464   9.742 -0.2909 -0.1080  0.3793
55316SOL    HW176262   9.268  10.537   9.722  0.1292 -0.1153  1.5566
55316SOL    HW276263   9.123  10.506   9.754  0.0445  0.2701  1.5524
55317SOL     OW76264   7.484   9.979   2.918 -0.3944 -0.5310 -0.5834
55317SOL    HW176265   7.537  10.037   2.972  0.2161 -0.9769 -0.6959
55317SOL    HW276266   7.514   9.891   2.940 -1.0382 -0.7876 -0.7016
55318SOL     OW76267   9.611  12.003   1.077 -0.0500  0.1157  0.5891
55318SOL    HW176268   9.534  12.049   1.045  0.3400 -0.0346 -0.6194
55318SOL    HW276269   9.644  11.955   1.001  0.8459 -0.3569  1.2529
55319SOL     OW76270   5.550   8.144   4.624 -0.0896  0.1558  0.0640
55319SOL    HW176271   5.498   8.071   4.659 -2.0585  0.9213 -1.0683
55319SOL    HW276272   5.600   8.105   4.552 -1.6037 -0.0181 -0.9483
55320SOL     OW76273  11.092   6.336   6.877  0.3059  0.4721  0.4446
55320SOL    HW176274  11.116   6.244   6.865  1.0836  0.6820  0.3293
55320SOL    HW276275  11.158   6.385   6.828 -2.0471  1.0050 -2.5139
55321SOL     OW76276   2.240  11.211   5.777  0.4476  0.6155 -0.3107
55321SOL    HW176277   2.226  11.179   5.867 -2.2453 -0.7653 -1.1077
55321SOL    HW276278   2.299  11.146   5.738  0.8615  0.6899  0.1789
55322SOL     OW76279   1.906  10.348   7.402 -0.4607  0.3356 -0.6976
55322SOL    HW176280   1.927  10.255   7.410 -1.2500  0.0962 -1.3058
55322SOL    HW276281   1.942  10.388   7.481  2.9814  0.1098 -1.9678
55323SOL     OW76282  11.300   2.332  10.323  0.7577 -0.7627 -0.5914
55323SOL    HW176283  11.210   2.315  10.349  1.1167 -0.4462  0.9373
55323SOL    HW276284  11.293   2.377  10.239 -0.4900 -0.8982 -0.5723
55324SOL     OW76285  12.567   4.192   7.200 -0.9086 -0.0071  0.0538
55324SOL    HW176286  12.604   4.236   7.124  0.3579 -0.7220  0.2356
55324SOL    HW276287  12.502   4.254   7.234  0.3818  1.4617 -0.0511
55325SOL     OW76288   8.789   3.547   6.467  0.3748  0.1726 -0.1330
55325SOL    HW176289   8.713   3.492   6.450  0.2221 -0.0278  1.1270
55325SOL    HW276290   8.756   3.637   6.460  0.4359  0.1145 -1.3395
55326SOL     OW76291  12.945   7.566   8.115  0.1794  0.6158  0.0252
55326SOL    HW176292  12.927   7.476   8.142  1.2534  0.6380  0.8968
55326SOL    HW276293  12.867   7.615   8.143  0.3013  0.2373  1.0643
55327SOL     OW76294   2.897   5.871  10.231 -0.1252 -0.4909 -0.2912
55327SOL    HW176295   2.808   5.839  10.216 -0.9520  0.2624  2.4634
55327SOL    HW276296   2.916   5.847  10.321  2.6700 -0.9557 -0.9084
55328SOL     OW76297   1.980  12.271   2.910 -0.0347  0.6522 -0.3226
55328SOL    HW176298   1.934  12.295   2.831 -1.4769 -2.9025 -0.7604
55328SOL    HW276299   1.918  12.288   2.981 -0.3810 -0.1257 -0.4367
55329SOL     OW76300   1.333   5.147   9.739  0.1357 -0.3210  0.1724
55329SOL    HW176301   1.321   5.144   9.644  2.9611 -1.9367 -0.2597
55329SOL    HW276302   1.392   5.221   9.754  0.3893 -0.5933  0.5472
55330SOL     OW76303   9.512   2.156   4.952 -0.4846 -0.4826  0.1158
55330SOL    HW176304   9.520   2.110   4.869  0.0079 -0.6294  0.2432
55330SOL    HW276305   9.543   2.094   5.018  1.4848  0.4567  0.1491
55331SOL     OW76306   5.206  12.947   6.078  0.3637  0.1563  0.4672
55331SOL    HW176307   5.274  12.921   6.140  0.5516 -1.3629 -0.3188
55331SOL    HW276308   5.245  12.934   5.992 -0.5176  0.4204  0.0128
55332SOL     OW76309  10.774  12.173   2.119 -0.5637 -0.2019 -0.8015
55332SOL    HW176310  10.690  12.133   2.095 -2.0071  1.9699  0.2434
55332SOL    HW276311  10.779  12.252   2.065  0.2261  0.3006 -0.0269
55333SOL     OW76312   7.536   0.264   3.203 -0.2934 -0.5503 -0.0231
55333SOL    HW176313   7.539   0.353   3.238 -1.1590 -0.4740 -0.1206
55333SOL    HW276314   7.603   0.216   3.253 -1.6980 -0.5393  2.0186
55334SOL     OW76315   0.568  12.492  12.182  0.3461 -0.5498  0.1365
55334SOL    HW176316   0.621  12.524  12.109 -1.2994  0.9438 -0.5064
55334SOL    HW276317   0.479  12.487  12.146 -0.7505  1.4158  2.2888
55335SOL     OW76318  10.029   9.672   1.686 -0.5514  0.3852 -0.4148
55335SOL    HW176319  10.011   9.707   1.599  0.5075 -1.0920 -1.2879
55335SOL    HW276320  10.116   9.705   1.707 -0.7533  0.6332  0.0287
55336SOL     OW76321   5.854  11.341   2.910  0.8723  0.8173 -0.8102
55336SOL    HW176322   5.863  11.254   2.947  1.3499  1.3805  0.4541
55336SOL    HW276323   5.943  11.376   2.909  0.7016  1.2443 -1.4179
55337SOL     OW76324  12.925   2.469   2.098 -0.3457  0.1801  0.4575
55337SOL    HW176325  12.894   2.423   2.020 -1.9016  1.1158  0.4750
55337SOL    HW276326  12.919   2.562   2.075  3.3512  0.4883  0.1807
55338SOL     OW76327   0.421   8.184  11.043  0.7902  0.0983  0.1399
55338SOL    HW176328   0.332   8.158  11.024  1.0298  1.3098 -3.2428
55338SOL    HW276329   0.412   8.257  11.105 -0.4113 -0.7998  1.0675
55339SOL     OW76330   1.636   6.504   0.291 -0.7369  0.0911  0.1302
55339SOL    HW176331   1.581   6.545   0.358 -1.7745 -0.8706 -0.1088
55339SOL    HW276332   1.614   6.411   0.296  0.4403 -0.2329 -0.3857
55340SOL     OW76333  12.869   3.645  10.037  0.1913  0.8451 -0.0100
55340SOL    HW176334  12.858   3.732  10.076 -1.4987  0.0307  1.4601
55340SOL    HW276335  12.960   3.622  10.057  0.0395  1.4171  1.4712
55341SOL     OW76336   9.123   1.812   9.976  0.4188  0.6127  0.0635
55341SOL    HW176337   9.133   1.729  10.022  1.6126 -0.0728 -1.3352
55341SOL    HW276338   9.039   1.846  10.006 -1.3648 -2.3072 -1.1775
55342SOL     OW76339  10.921   4.603  10.949 -0.1050  0.0586  0.0513
55342SOL    HW176340  10.918   4.514  10.916 -1.5875  0.6816 -1.6678
55342SOL    HW276341  10.925   4.593  11.044  1.6300 -1.8083 -0.1628
55343SOL     OW76342   5.269   2.011  11.692  0.0795 -0.3340  0.3014
55343SOL    HW176343   5.339   2.012  11.758  0.9978  1.8470 -0.5958
55343SOL    HW276344   5.251   1.919  11.677  2.7612 -0.9776  0.6145
55344SOL     OW76345  10.101   0.848   2.252  0.5743 -0.0742 -0.1587
55344SOL    HW176346  10.164   0.784   2.286 -0.8434 -2.2752 -1.4852
55344SOL    HW276347  10.040   0.863   2.323  2.1176  1.5871  0.9163
55345SOL     OW76348   1.720   6.317   5.947  0.2798 -0.8291  0.4101
55345SOL    HW176349   1.698   6.396   5.996 -0.1001  0.0431 -1.1175
55345SOL    HW276350   1.806   6.336   5.909 -0.1801 -0.8135 -0.6316
55346SOL     OW76351   0.121   6.311   1.560 -0.5070  0.7973 -0.1711
55346SOL    HW176352   0.069   6.370   1.614 -1.7696 -1.0667  0.7699
55346SOL    HW276353   0.125   6.230   1.611  2.7368  0.5914 -0.5466
55347SOL     OW76354   1.793   5.920  11.857 -0.0841  0.2601 -0.0550
55347SOL    HW176355   1.864   5.880  11.806  0.8141  2.6716 -0.8298
55347SOL    HW276356   1.715   5.874  11.828  1.0557 -2.2748  0.5952
55348SOL     OW76357  12.934   7.118   9.064 -0.4086  0.0976 -0.4112
55348SOL    HW176358  12.910   7.118   9.157  0.5982 -0.1129 -0.1312
55348SOL    HW276359  12.945   7.026   9.042  0.7772  0.1968 -0.3268
55349SOL     OW76360   7.851  10.825  10.385  0.1613 -1.0665  0.3846
55349SOL    HW176361   7.848  10.882  10.462  0.0178 -0.7021  0.1187
55349SOL    HW276362   7.778  10.765  10.396 -0.3029 -0.5531  0.1953
55350SOL     OW76363   5.426   0.929  12.538  0.1050  0.5687 -0.9660
55350SOL    HW176364   5.347   0.908  12.588  1.5320 -0.4341  1.0455
55350SOL    HW276365   5.431   1.024  12.538 -1.5704  0.6869 -1.9732
55351SOL     OW76366   4.304   6.338   7.816  0.5981 -0.9003 -0.0219
55351SOL    HW176367   4.293   6.415   7.759  1.6567 -0.4865  0.3238
55351SOL    HW276368   4.397   6.336   7.836  0.1843 -0.7118  2.1456
55352SOL     OW76369  12.100   7.048   5.431  0.2725  0.4875  0.1527
55352SOL    HW176370  12.041   7.012   5.365  1.1461 -0.2364 -0.2615
55352SOL    HW276371  12.083   7.142   5.430 -0.4707  0.3537 -0.3502
55353SOL     OW76372  10.502   3.058   7.224  0.1875 -0.6501  0.1137
55353SOL    HW176373  10.433   3.057   7.158  0.4300  1.3345 -0.2413
55353SOL    HW276374  10.461   3.026   7.304 -0.3361 -2.2759 -0.7714
55354SOL     OW76375   8.456   4.072   1.813  0.0686 -0.5540  0.0563
55354SOL    HW176376   8.495   3.993   1.775  0.1008 -1.1397  1.2652
55354SOL    HW276377   8.472   4.063   1.907  1.4880  1.6487  0.1046
55355SOL     OW76378   2.333   0.231   6.963  0.2734  0.4491 -0.8514
55355SOL    HW176379   2.409   0.217   6.905  0.4642  1.1912 -0.8010
55355SOL    HW276380   2.372   0.256   7.047  0.1028 -3.0298  0.4231
55356SOL     OW76381   7.099  11.328   2.510  0.4497 -0.1792  0.0154
55356SOL    HW176382   7.055  11.282   2.438  1.1777 -0.7532 -0.0707
55356SOL    HW276383   7.056  11.413   2.513 -1.6722 -1.2171  0.8834
55357SOL     OW76384   8.436   2.298   2.562 -0.2152  0.8373 -0.0096
55357SOL    HW176385   8.476   2.385   2.569  0.2218  0.7385 -1.0605
55357SOL    HW276386   8.373   2.306   2.490 -2.2702  1.0270  1.6909
55358SOL     OW76387   9.639   6.259   1.084 -0.1764 -0.2996  0.2945
55358SOL    HW176388   9.600   6.302   1.008 -0.6375  0.0259  0.7091
55358SOL    HW276389   9.715   6.212   1.049 -0.6067 -0.4647 -0.4237
55359SOL     OW76390   6.343   0.374   3.190 -0.1012  0.0730 -0.0919
55359SOL    HW176391   6.262   0.413   3.221 -0.5578 -0.0603 -1.0959
55359SOL    HW276392   6.336   0.281   3.214 -0.0740  0.1350  0.1584
55360SOL     OW76393  12.518  10.275   6.184 -0.2902 -0.2959  0.2786
55360SOL    HW176394  12.486  10.263   6.095 -2.3207 -0.3708  0.9493
55360SOL    HW276395  12.552  10.189   6.209 -0.0774 -0.3761 -0.2815
55361SOL     OW76396  10.726   0.735  12.613  0.7843 -0.7083  0.2418
55361SOL    HW176397  10.811   0.750  12.572  1.7371 -2.2805  1.5179
55361SOL    HW276398  10.669   0.803  12.577  2.5411  0.3032 -0.7294
55362SOL     OW76399   5.767   9.067   0.964  0.4329 -0.2594 -0.1490
55362SOL    HW176400   5.799   9.153   0.988 -2.3419  1.4703 -2.0190
55362SOL    HW276401   5.733   9.030   1.046 -1.3739  1.9134  0.1675
55363SOL     OW76402   7.940  10.807   2.534 -0.7455  0.0720 -1.0157
55363SOL    HW176403   7.943  10.882   2.474 -1.1177 -0.9297 -2.3334
55363SOL    HW276404   8.002  10.745   2.497 -2.3510 -1.3316 -1.4655
55364SOL     OW76405   8.176   5.049   2.061 -0.2865 -0.2842  0.0510
55364SOL    HW176406   8.081   5.057   2.073 -0.6611  0.7500 -2.7586
55364SOL    HW276407   8.211   5.130   2.099 -0.8364  0.4588 -0.9478
55365SOL     OW76408   3.699  12.793   2.025  0.2231 -0.7317  0.4456
55365SOL    HW176409   3.721  12.700   2.019  1.2275 -0.4627 -0.4323
55365SOL    HW276410   3.728  12.830   1.941 -1.9927  0.0071 -0.0607
55366SOL     OW76411   8.760  12.845   0.208  0.0473 -0.3636  0.5591
55366SOL    HW176412   8.679  12.812   0.170  0.1619 -0.2624  0.2181
55366SOL    HW276413   8.737  12.866   0.299 -0.5388  0.4769  0.2331
55367SOL     OW76414  11.854   6.527   6.359 -0.5738 -0.1420  0.3545
55367SOL    HW176415  11.844   6.438   6.323  1.7735 -0.3103 -0.0630
55367SOL    HW276416  11.884   6.513   6.449  1.9958  0.1223 -0.3903
55368SOL     OW76417  10.915   5.061   5.400  0.4485 -0.6211  0.0482
55368SOL    HW176418  10.977   5.121   5.442  0.0509  1.1428 -1.7288
55368SOL    HW276419  10.955   5.041   5.315 -0.9079 -0.2286 -0.7257
55369SOL     OW76420   3.916   1.889  12.876  0.0351 -0.4468 -0.3072
55369SOL    HW176421   3.876   1.871  12.961 -0.8170 -1.9014 -0.9775
55369SOL    HW276422   4.010   1.882  12.891 -0.0503  0.3307  0.7159
55370SOL     OW76423  10.958  11.542  12.539  0.4324  0.2942  0.5752
55370SOL    HW176424  10.898  11.610  12.508  1.7312  1.1191 -0.2181
55370SOL    HW276425  10.912  11.460  12.522 -1.4227  0.9469  2.0966
55371SOL     OW76426   7.516   1.680   3.837 -0.1549 -0.4647  0.4476
55371SOL    HW176427   7.421   1.667   3.838 -0.5083  1.7273  1.4362
55371SOL    HW276428   7.552   1.593   3.854 -2.0377 -1.0936  1.5408
55372SOL     OW76429  10.931  11.688   7.959 -0.1032  0.1705 -0.3276
55372SOL    HW176430  10.922  11.683   8.054  1.1780  1.8663 -0.0767
55372SOL    HW276431  10.858  11.742   7.931  0.6052  1.2899 -0.0620
55373SOL     OW76432   0.498  12.863   9.767 -0.0789 -0.3283 -0.4096
55373SOL    HW176433   0.576  12.897   9.812  1.3221 -2.9094 -0.6615
55373SOL    HW276434   0.464  12.795   9.825 -1.1672 -0.3634 -1.0557
55374SOL     OW76435   3.345  11.201   8.663  0.0777  0.1830  0.6397
55374SOL    HW176436   3.343  11.200   8.759 -0.2236 -0.3392  0.6301
55374SOL    HW276437   3.312  11.115   8.638 -1.4587  0.9086  0.0408
55375SOL     OW76438   3.643   1.565   3.485 -0.0373  0.4046 -0.3082
55375SOL    HW176439   3.558   1.568   3.440 -0.6725 -3.6283  0.2669
55375SOL    HW276440   3.691   1.640   3.449 -2.5557  0.8119 -3.3349
55376SOL     OW76441  11.306  12.152   3.778 -0.2417  0.4635 -0.1660
55376SOL    HW176442  11.342  12.238   3.799  0.6728 -0.2346  1.3057
55376SOL    HW276443  11.250  12.167   3.702  0.6905  2.1629 -0.5635
55377SOL     OW76444   1.518   4.771   5.304  0.1374  0.5718  0.0479
55377SOL    HW176445   1.545   4.860   5.282  1.6353  0.5268  1.5156
55377SOL    HW276446   1.597   4.718   5.293  0.1337  0.0068  2.1880
55378SOL     OW76447   4.958   5.485   4.634  0.5065 -0.0652  0.0325
55378SOL    HW176448   5.007   5.433   4.698 -0.5510  0.9960  1.7969
55378SOL    HW276449   4.941   5.568   4.679 -0.4210  0.6703 -1.5903
55379SOL     OW76450   8.921   1.656   6.623  0.1871 -0.0641  0.2927
55379SOL    HW176451   8.843   1.702   6.591 -0.1698 -1.0211 -0.2335
55379SOL    HW276452   8.976   1.644   6.546  0.9020  0.6592  0.6715
55380SOL     OW76453   8.801   4.015   6.898  0.6146  0.5331 -0.0276
55380SOL    HW176454   8.795   3.920   6.906  0.5555  0.6547  1.7120
55380SOL    HW276455   8.745   4.048   6.969  1.4796  1.8511  0.0580
55381SOL     OW76456   8.901  11.177   6.360  0.3269  0.0883 -0.1480
55381SOL    HW176457   8.940  11.107   6.413  1.0321  1.0938  0.6832
55381SOL    HW276458   8.873  11.133   6.279  0.6164 -1.1776  0.4214
55382SOL     OW76459   9.519  11.131   9.539 -0.0587  0.2076 -0.5141
55382SOL    HW176460   9.551  11.072   9.471  0.8295 -1.3294  1.1387
55382SOL    HW276461   9.569  11.107   9.617 -4.4587 -1.8316  2.0973
55383SOL     OW76462  11.582   3.649  11.698  0.0561  0.1328  0.1194
55383SOL    HW176463  11.625   3.714  11.753  1.8139  0.8793 -2.0010
55383SOL    HW276464  11.609   3.671  11.609 -3.8139 -0.1219 -1.2935
55384SOL     OW76465   8.214   8.608   5.728  0.0931  0.0450 -0.1740
55384SOL    HW176466   8.139   8.618   5.787 -1.6893  0.1346 -2.3268
55384SOL    HW276467   8.184   8.647   5.645  2.8157  0.7792 -0.9049
55385SOL     OW76468   1.243   7.545   7.192  0.5743  0.3556 -0.5218
55385SOL    HW176469   1.225   7.468   7.246  1.8840  0.5394  0.2151
55385SOL    HW276470   1.228   7.620   7.249 -1.1498  0.6935 -1.3746
55386SOL     OW76471   0.987   8.589  10.974 -0.0370 -0.6614  0.4611
55386SOL    HW176472   0.928   8.603  11.048  0.0524 -1.4352  0.6865
55386SOL    HW276473   1.040   8.514  10.999  0.6427 -0.3405  0.0029
55387SOL     OW76474   9.255  12.634   1.958  0.3083  0.4802 -0.1498
55387SOL    HW176475   9.299  12.719   1.961  1.2197  0.1129 -1.7705
55387SOL    HW276476   9.187  12.639   2.025 -0.9915  3.2128 -1.5180
55388SOL     OW76477   6.816   6.944   3.659 -0.1614  0.2469  0.7101
55388SOL    HW176478   6.839   7.027   3.701 -0.3748  1.1631 -0.9051
55388SOL    HW276479   6.777   6.891   3.729  0.7500  1.1702  1.9571
55389SOL     OW76480   3.331   2.607   9.742  0.4088  0.1331  0.3072
55389SOL    HW176481   3.296   2.665   9.810  0.7197 -0.5429  1.0567
55389SOL    HW276482   3.257   2.554   9.715  0.4991 -0.2704  0.8298
55390SOL     OW76483   3.145   7.705   1.144 -0.3944 -0.5228 -0.0607
55390SOL    HW176484   3.156   7.665   1.057 -2.3036  0.1378 -0.6459
55390SOL    HW276485   3.072   7.657   1.184 -1.3707  0.9727  0.0377
55391SOL     OW76486   5.811  10.196   9.002  0.0169 -0.1018 -0.4659
55391SOL    HW176487   5.823  10.276   8.951 -0.5128  0.5157  0.3599
55391SOL    HW276488   5.900  10.169   9.026  0.1480  1.0803  0.4950
55392SOL     OW76489   1.500   7.932   8.687  0.1691 -0.0463  0.0887
55392SOL    HW176490   1.469   8.022   8.689  1.0933  0.2909 -0.3501
55392SOL    HW276491   1.594   7.938   8.705  0.5818 -0.7445 -1.6428
55393SOL     OW76492  11.743  12.391   1.146 -0.1245 -0.6681 -0.0746
55393SOL    HW176493  11.756  12.339   1.067  0.2020 -0.8805  0.1203
55393SOL    HW276494  11.826  12.385   1.193  0.2545  0.8505 -0.5259
55394SOL     OW76495   7.274  12.191   6.757  0.2674  0.2407 -0.4380
55394SOL    HW176496   7.230  12.118   6.715 -0.0454  0.2851 -0.1887
55394SOL    HW276497   7.216  12.266   6.743  0.1814  0.2624  0.0423
55395SOL     OW76498  12.285   0.607  11.398 -0.1436  0.5073 -0.2452
55395SOL    HW176499  12.315   0.696  11.419  3.0905 -0.6213  0.4606
55395SOL    HW276500  12.346   0.576  11.332  0.3802 -2.0431  1.3051
55396SOL     OW76501   0.249   4.396   0.379  0.4073  0.1810  0.2388
55396SOL    HW176502   0.188   4.402   0.305  1.9797 -0.0450 -1.1253
55396SOL    HW276503   0.306   4.472   0.369  1.7046 -0.7695  0.1985
55397SOL     OW76504  10.542   5.928   6.469  0.5178 -0.3118  0.1668
55397SOL    HW176505  10.623   5.899   6.428  1.9531 -1.0982  3.2561
55397SOL    HW276506  10.496   5.848   6.492  0.6484  0.0233  1.6702
55398SOL     OW76507   0.372   9.744   2.621 -0.4139  0.0766  0.0686
55398SOL    HW176508   0.351   9.651   2.612  2.1276 -0.5552 -0.1320
55398SOL    HW276509   0.453   9.746   2.672 -1.2998  2.3162  1.5888
55399SOL     OW76510  12.374   7.057  10.543 -0.9132  0.4540 -0.1683
55399SOL    HW176511  12.333   7.044  10.457 -2.5591 -0.9810  0.7652
55399SOL    HW276512  12.402   7.148  10.543  0.2035  0.1873 -2.6522
55400SOL     OW76513  10.696   3.021   4.186  0.3688  0.2099  0.5319
55400SOL    HW176514  10.772   3.056   4.138 -0.0212  1.0497  0.5181
55400SOL    HW276515  10.629   3.088   4.177 -0.1885 -0.2689  1.0476
55401SOL     OW76516   4.867   6.494   5.480 -0.0059 -0.0371  0.1107
55401SOL    HW176517   4.807   6.453   5.543  0.4229  1.1112  1.2997
55401SOL    HW276518   4.809   6.532   5.414 -0.4458 -1.6413 -0.4941
55402SOL     OW76519  10.319   2.625   0.972  0.3177  0.2761  0.1576
55402SOL    HW176520  10.244   2.637   0.914  1.0165  0.1729 -0.7962
55402SOL    HW276521  10.384   2.580   0.918  0.7182 -0.4945  1.2509
55403SOL     OW76522   0.803   1.666   8.980 -0.0507 -0.4347 -0.2606
55403SOL    HW176523   0.757   1.712   8.910 -0.7071  2.2849  1.7700
55403SOL    HW276524   0.817   1.733   9.047  1.0319 -2.7406  1.9928
55404SOL     OW76525   6.243   0.246  10.637 -0.6034  0.0228 -0.1520
55404SOL    HW176526   6.258   0.207  10.723 -0.0007  0.6666  0.0485
55404SOL    HW276527   6.322   0.298  10.620 -1.6043  1.6388 -0.1242
55405SOL     OW76528   7.244   0.503  11.044 -0.5227 -0.1425 -0.3412
55405SOL    HW176529   7.212   0.592  11.060 -0.1355  0.0717 -0.7467
55405SOL    HW276530   7.248   0.495  10.949  0.1263 -0.3394 -0.3056
55406SOL     OW76531   9.439   7.727   5.019  0.2894  0.2736 -0.2364
55406SOL    HW176532   9.485   7.651   5.056 -0.1816  0.6471  1.1438
55406SOL    HW276533   9.349   7.697   5.006 -0.0742  0.7921  0.9842
55407SOL     OW76534   1.496   5.575  11.295  0.1191 -0.3071 -0.1355
55407SOL    HW176535   1.546   5.494  11.301  2.5291  1.1125 -0.1345
55407SOL    HW276536   1.410   5.547  11.262  1.2198 -2.7109 -1.2158
55408SOL     OW76537   0.366   8.507   5.356  0.5086 -0.5428  0.3505
55408SOL    HW176538   0.430   8.436   5.346 -2.4586 -3.3337 -0.6230
55408SOL    HW276539   0.362   8.522   5.451  0.7424 -2.1941  0.6502
55409SOL     OW76540  10.769  11.291   5.416 -0.1298 -0.5625  0.2897
55409SOL    HW176541  10.804  11.218   5.467  0.5775 -1.4428 -1.3532
55409SOL    HW276542  10.723  11.249   5.343 -1.3691  0.6331  0.3530
55410SOL     OW76543   9.753   4.557   2.631 -0.0842 -0.4246  0.2831
55410SOL    HW176544   9.693   4.580   2.702 -1.8041 -1.2840 -0.8499
55410SOL    HW276545   9.780   4.467   2.651 -0.9900 -0.8641 -0.3923
55411SOL     OW76546   6.216   3.482   1.536  0.2836 -0.2200  0.3496
55411SOL    HW176547   6.271   3.407   1.513  1.1235 -0.2028  2.0887
55411SOL    HW276548   6.260   3.557   1.496  0.1758 -0.4885 -0.2830
55412SOL     OW76549   8.762  11.394  11.459  0.1095 -0.0773  0.6558
55412SOL    HW176550   8.780  11.321  11.400 -1.0246 -0.7557  1.1162
55412SOL    HW276551   8.779  11.358  11.547 -1.1155 -0.0206  0.9331
55413SOL     OW76552   4.280  12.029   9.027 -0.2953 -0.6021 -0.3199
55413SOL    HW176553   4.356  12.086   9.022  0.2654 -1.2823  0.2182
55413SOL    HW276554   4.258  12.009   8.936 -1.1436  1.2704 -0.5773
55414SOL     OW76555  10.918   4.368   4.840  0.4636  0.0153 -0.1131
55414SOL    HW176556  10.874   4.336   4.761  0.2793  1.0716 -0.4457
55414SOL    HW276557  10.909   4.296   4.903 -2.2832  0.3705  0.0346
55415SOL     OW76558   4.269   2.074   5.579 -0.5233  0.2525 -0.1173
55415SOL    HW176559   4.359   2.046   5.567 -0.1285  2.0198 -1.6981
55415SOL    HW276560   4.266   2.109   5.669  0.4906  0.5827 -0.2013
55416SOL     OW76561   8.960   4.339   5.832 -0.4290 -0.2839  0.2700
55416SOL    HW176562   8.953   4.406   5.764 -0.1398  0.3463  0.8580
55416SOL    HW276563   9.034   4.285   5.805 -0.3371 -0.0584  0.0707
55417SOL     OW76564  12.279   1.360   7.072 -0.3746 -0.0851 -0.0159
55417SOL    HW176565  12.187   1.382   7.060 -0.6485 -1.5445 -0.8016
55417SOL    HW276566  12.288   1.273   7.034  1.2742 -0.0885  0.3119
55418SOL     OW76567   7.802   1.734   7.712  0.3038  0.5968 -0.2279
55418SOL    HW176568   7.728   1.734   7.651 -0.1840  0.1533  0.3493
55418SOL    HW276569   7.774   1.675   7.783  1.1859  0.4797  0.0261
55419SOL     OW76570   7.901   3.101   3.038 -0.8761 -0.0440 -0.3883
55419SOL    HW176571   7.928   3.164   3.105 -0.3548  0.3909 -1.0048
55419SOL    HW276572   7.809   3.124   3.020 -0.5390  0.8723 -0.9752
55420SOL     OW76573   5.473   7.260   4.551 -0.3898  0.0524 -0.1152
55420SOL    HW176574   5.510   7.348   4.543 -2.0162  0.7938  0.0859
55420SOL    HW276575   5.439   7.241   4.463  0.8599 -0.8288 -0.4334
55421SOL     OW76576   3.260   5.805   8.116  0.1802  0.1472 -0.4204
55421SOL    HW176577   3.290   5.784   8.028 -0.3329  1.7935 -1.0246
55421SOL    HW276578   3.165   5.811   8.108  0.0934 -0.0995  0.3427
55422SOL     OW76579   2.699   6.649   9.100 -0.9755  0.7827  0.1318
55422SOL    HW176580   2.612   6.676   9.070 -0.6002 -0.0834 -1.9941
55422SOL    HW276581   2.754   6.725   9.084 -1.0408  0.7689 -0.1861
55423SOL     OW76582   0.137   3.901   7.069  0.0450  0.2593  0.4405
55423SOL    HW176583   0.161   3.869   7.156  1.0304  0.2148  0.1655
55423SOL    HW276584   0.041   3.907   7.071 -0.0993 -1.5323  0.9165
55424SOL     OW76585   7.431   4.235   0.304 -0.1876 -0.3836 -0.1888
55424SOL    HW176586   7.389   4.321   0.294  0.8117  0.2864  0.9591
55424SOL    HW276587   7.523   4.256   0.323 -0.0291 -1.6836  0.6333
55425SOL     OW76588   2.191   6.758  11.122  0.3432  0.0087  0.4008
55425SOL    HW176589   2.258   6.727  11.061  0.2113 -0.9193  0.7152
55425SOL    HW276590   2.198   6.853  11.120 -0.1720  0.0517 -1.6636
55426SOL     OW76591   2.795   4.608   4.489  0.6468  0.5283  0.0164
55426SOL    HW176592   2.798   4.701   4.509 -2.1175  0.7312 -0.2102
55426SOL    HW276593   2.858   4.597   4.417  0.6276  2.2961 -0.3096
55427SOL     OW76594   1.704   4.486   9.611  0.1941  0.0053 -0.2973
55427SOL    HW176595   1.618   4.445   9.613 -1.4230  3.0835  1.0041
55427SOL    HW276596   1.689   4.569   9.565  2.3193  0.8569  0.4479
55428SOL     OW76597   8.739  12.659  11.218 -0.4997  0.4309  0.1537
55428SOL    HW176598   8.684  12.602  11.164 -1.5254  0.5124  1.0801
55428SOL    HW276599   8.787  12.712  11.155  0.3598 -1.3216 -0.7357
55429SOL     OW76600  10.892  10.800  10.288 -0.3939  0.2540  0.3275
55429SOL    HW176601  10.835  10.877  10.287 -0.2418  0.3828  1.2448
55429SOL    HW276602  10.978  10.833  10.315  0.0722  0.0136 -0.7758
55430SOL     OW76603   7.021   2.182   5.464 -0.2592  0.6131 -0.3441
55430SOL    HW176604   6.988   2.268   5.439  0.3458  0.8878 -0.2007
55430SOL    HW276605   7.116   2.190   5.461 -0.1953 -0.1930 -0.8005
55431SOL     OW76606  12.872   4.257   6.194  0.3132 -0.0048  0.1533
55431SOL    HW176607  12.936   4.259   6.266  1.2801  2.9230 -0.6530
55431SOL    HW276608  12.926   4.255   6.115 -0.6986 -0.1899 -0.5423
55432SOL     OW76609   2.155  11.256   3.843  0.2644  0.0308 -0.6737
55432SOL    HW176610   2.105  11.337   3.855  2.0410  1.1568 -0.5038
55432SOL    HW276611   2.089  11.186   3.849 -1.2701  1.4272 -0.4976
55433SOL     OW76612   2.877   6.532  11.348  0.4112 -0.8534 -0.2871
55433SOL    HW176613   2.946   6.467  11.362  0.1800 -1.0358 -0.0114
55433SOL    HW276614   2.882   6.552  11.255  2.8970  1.3802  0.1819
55434SOL     OW76615   1.831  12.355  11.585  0.3711  0.3146 -0.3654
55434SOL    HW176616   1.753  12.357  11.640  1.1315  0.1216  0.7441
55434SOL    HW276617   1.904  12.353  11.646  1.2205 -1.1649 -1.3717
55435SOL     OW76618   1.284   1.687  10.285 -0.4133 -0.5021 -0.1966
55435SOL    HW176619   1.254   1.620  10.224  0.1188 -0.7800 -0.1540
55435SOL    HW276620   1.235   1.669  10.366 -0.0823 -1.0046 -0.1032
55436SOL     OW76621   6.611   3.650   4.235 -0.1478 -0.3637  0.1771
55436SOL    HW176622   6.687   3.709   4.239  0.4113 -1.0035 -0.7371
55436SOL    HW276623   6.537   3.708   4.252  0.2522  0.9391 -2.0311
55437SOL     OW76624  11.740  12.419   1.566  0.5321  0.2783  0.8838
55437SOL    HW176625  11.802  12.347   1.580  0.5257 -0.3383 -1.7118
55437SOL    HW276626  11.795  12.497   1.555  0.7030  0.1921  1.1439
55438SOL     OW76627   5.100  12.375  11.185  0.9042 -0.4624  0.7544
55438SOL    HW176628   5.006  12.393  11.188  0.9799 -0.0790  3.6893
55438SOL    HW276629   5.106  12.287  11.148 -0.6445 -0.5966  0.7616
55439SOL     OW76630  12.472   1.748  12.039 -0.3479  0.2323 -0.4062
55439SOL    HW176631  12.534   1.680  12.063  1.1780  1.5318 -0.4870
55439SOL    HW276632  12.388   1.703  12.033  0.9608 -2.2345 -3.0834
55440SOL     OW76633  12.201   8.224   6.503 -0.0118  0.1606  0.4527
55440SOL    HW176634  12.114   8.193   6.525  1.0202 -0.8750  3.5373
55440SOL    HW276635  12.241   8.153   6.453 -0.9437  0.7534 -1.2190
55441SOL     OW76636   3.217   0.388   8.607 -0.7144 -0.2056 -0.5423
55441SOL    HW176637   3.257   0.365   8.523  0.0193  2.9150 -1.1720
55441SOL    HW276638   3.290   0.392   8.669 -1.0834 -1.2783 -0.0089
55442SOL     OW76639   3.878   0.979  10.925  0.3031  0.0698  0.2407
55442SOL    HW176640   3.825   0.899  10.934  0.9644 -0.5166 -0.8373
55442SOL    HW276641   3.827   1.035  10.866 -0.0653  0.3753  0.8360
55443SOL     OW76642   3.886   2.514   9.281 -0.4084 -0.3511 -0.2669
55443SOL    HW176643   3.939   2.575   9.229 -0.9840 -0.2653 -0.7638
55443SOL    HW276644   3.796   2.536   9.258 -0.6905 -0.0889  1.0239
55444SOL     OW76645   4.023   8.187   5.911  0.0624  0.0428  0.1917
55444SOL    HW176646   3.938   8.184   5.866 -0.4318  2.0131  0.9052
55444SOL    HW276647   4.060   8.272   5.889  2.0327 -0.8772 -0.3265
55445SOL     OW76648   7.341   0.758   6.149  0.7953 -0.2328  0.3412
55445SOL    HW176649   7.385   0.827   6.100 -0.3364  0.9755  0.9567
55445SOL    HW276650   7.285   0.805   6.212 -0.8216 -1.6800  0.0765
55446SOL     OW76651  12.307   2.881   6.182 -0.2150 -0.5557 -0.3253
55446SOL    HW176652  12.360   2.909   6.257 -0.3581 -0.8480 -0.1139
55446SOL    HW276653  12.220   2.866   6.218 -1.0671  2.0772 -1.0508
55447SOL     OW76654   6.985   6.248   4.825 -0.0507 -0.2435  0.1954
55447SOL    HW176655   6.946   6.165   4.851 -1.3584  0.2215 -0.1783
55447SOL    HW276656   6.988   6.244   4.729 -0.0956  0.1259  0.1769
55448SOL     OW76657  12.960   5.581   9.302  0.5781  0.1632 -0.2800
55448SOL    HW176658  12.936   5.639   9.374  1.2176  1.5458 -1.1241
55448SOL    HW276659  12.919   5.621   9.225 -1.4112 -2.1324 -0.5027
55449SOL     OW76660   4.002   3.740   0.779 -0.7670  0.2216 -0.0160
55449SOL    HW176661   4.055   3.812   0.814 -1.1820  0.3555  0.3516
55449SOL    HW276662   3.924   3.739   0.834  0.0079 -1.6674  1.1781
55450SOL     OW76663   3.659   8.058  10.715 -1.1723  0.5811  0.1426
55450SOL    HW176664   3.723   8.007  10.665  0.0815 -0.0294  2.2375
55450SOL    HW276665   3.597   8.090  10.649 -0.8902 -1.9830 -1.5128
55451SOL     OW76666   6.278  10.954   9.087 -0.0435  0.1081 -0.8427
55451SOL    HW176667   6.232  10.937   9.005 -0.7502 -1.4204 -0.1710
55451SOL    HW276668   6.233  10.900   9.152  0.3595  1.4512  0.6104
55452SOL     OW76669   8.370  11.715   6.133  0.7351  0.4810 -0.0527
55452SOL    HW176670   8.367  11.708   6.228  1.7789  1.8068  0.1070
55452SOL    HW276671   8.463  11.719   6.112  0.5065  1.0734 -1.0487
55453SOL     OW76672  11.805   1.473   2.198  0.1184  0.1397  0.1413
55453SOL    HW176673  11.785   1.386   2.234 -0.3261  0.0944 -0.2073
55453SOL    HW276674  11.725   1.523   2.211 -0.2287 -0.0260 -1.2184
55454SOL     OW76675   2.605   6.182  11.019 -0.7287  0.0028  0.2156
55454SOL    HW176676   2.652   6.257  10.983 -1.6293  0.2791 -0.4219
55454SOL    HW276677   2.652   6.160  11.099 -1.2559  2.1037  1.1554
55455SOL     OW76678   3.946   8.000  11.600 -0.1897 -0.3073  0.4839
55455SOL    HW176679   3.883   7.930  11.588 -1.1369  0.6287 -0.1578
55455SOL    HW276680   4.013   7.963  11.658 -2.5346 -0.5823  3.2293
55456SOL     OW76681   4.743  11.300   5.856  0.6512 -0.0678 -0.5274
55456SOL    HW176682   4.662  11.253   5.838 -0.8961  0.8736  3.0374
55456SOL    HW276683   4.784  11.250   5.927  1.4787  1.2493 -0.0461
55457SOL     OW76684  10.578   7.277   1.174  0.2996  0.1308  0.2876
55457SOL    HW176685  10.558   7.188   1.202  1.0037 -1.2712 -3.1919
55457SOL    HW276686  10.621   7.317   1.251  1.1995 -2.9578  1.5433
55458SOL     OW76687   1.419   1.025   2.317  0.1000 -0.3567  0.1112
55458SOL    HW176688   1.388   0.937   2.296 -1.6255 -0.4648  2.6822
55458SOL    HW276689   1.509   1.013   2.348  0.4609 -0.9592 -1.1177
55459SOL     OW76690   3.919   7.999   7.447 -0.0057  0.8432  0.5505
55459SOL    HW176691   3.837   7.990   7.496 -0.0892 -1.4976  0.0884
55459SOL    HW276692   3.988   7.993   7.513 -0.1609 -0.7133  0.6106
55460SOL     OW76693  11.462   5.823   2.602  0.4847  0.1824 -0.3323
55460SOL    HW176694  11.500   5.745   2.642  0.2958 -0.3845 -1.2116
55460SOL    HW276695  11.367   5.813   2.615  0.4996  0.5717  0.0857
55461SOL     OW76696   3.668   3.753   1.536 -1.3068 -0.2208  0.1647
55461SOL    HW176697   3.662   3.800   1.453 -2.0940  0.9834  0.8655
55461SOL    HW276698   3.658   3.660   1.512  0.2568 -0.0782 -1.2432
55462SOL     OW76699   5.490   9.061   4.287 -0.4963 -0.1309 -0.0721
55462SOL    HW176700   5.584   9.072   4.272 -0.2536  1.7827  2.1776
55462SOL    HW276701   5.449   9.129   4.233 -0.6195 -0.8760 -0.9449
55463SOL     OW76702  11.476  11.810   1.829  0.5461 -0.3978 -0.2951
55463SOL    HW176703  11.479  11.745   1.759  0.8957  0.2525 -0.8968
55463SOL    HW276704  11.389  11.848   1.822  0.6424 -0.2130 -0.4860
55464SOL     OW76705  12.098   8.950   8.685  0.0418 -0.2130  0.1679
55464SOL    HW176706  12.068   9.040   8.698 -1.5727 -0.7018  0.1181
55464SOL    HW276707  12.193   8.957   8.679  0.0742  1.3212  1.5639
55465SOL     OW76708   7.327   6.555   3.119 -0.4299  0.1607  0.0102
55465SOL    HW176709   7.369   6.473   3.143 -1.0516 -0.2510 -0.2905
55465SOL    HW276710   7.399   6.617   3.111  0.3135 -0.8578 -1.8922
55466SOL     OW76711   5.064   1.632   0.209  0.0091 -0.8764  0.2453
55466SOL    HW176712   5.048   1.722   0.182 -1.2635 -1.7961 -2.3839
55466SOL    HW276713   4.999   1.615   0.277 -0.1666 -0.0276  0.2978
55467SOL     OW76714   3.264   7.517   7.867  0.5439 -0.7274  0.1021
55467SOL    HW176715   3.202   7.468   7.921 -0.2403 -1.0240 -1.0410
55467SOL    HW276716   3.253   7.608   7.894 -0.5613 -0.7514 -0.2643
55468SOL     OW76717   9.964  10.142   7.202 -0.0311  0.6262  0.3428
55468SOL    HW176718   9.932  10.157   7.113  0.3070 -0.9771 -0.0793
55468SOL    HW276719   9.894  10.091   7.244 -0.4395  1.8542  1.1985
55469SOL     OW76720   9.263  12.399   0.587 -0.0782 -0.7594 -0.2213
55469SOL    HW176721   9.253  12.404   0.682  0.5453 -0.2659 -0.1729
55469SOL    HW276722   9.269  12.306   0.568  1.3732 -0.8210  0.4143
55470SOL     OW76723   4.718   0.764   5.815  0.3536 -0.3458  0.4080
55470SOL    HW176724   4.791   0.802   5.765 -0.7449 -1.1294 -1.9409
55470SOL    HW276725   4.738   0.671   5.819 -0.2862 -0.4919  0.1740
55471SOL     OW76726   9.496   2.333   6.947 -0.3014  0.1364  0.5947
55471SOL    HW176727   9.502   2.424   6.916 -0.3774  0.1935  0.7430
55471SOL    HW276728   9.572   2.323   7.004 -0.8654  0.4437  1.4223
55472SOL     OW76729   0.548  10.062  11.620 -0.3991  0.0245 -0.5261
55472SOL    HW176730   0.546  10.157  11.633  2.3496 -0.0401  1.2909
55472SOL    HW276731   0.482  10.028  11.681 -0.2163  0.7095  0.0661
55473SOL     OW76732  12.036   0.529  12.281 -0.4410  0.3313  0.7353
55473SOL    HW176733  11.987   0.488  12.209  0.1651 -0.3104  0.6701
55473SOL    HW276734  11.975   0.528  12.355 -0.3144 -1.0945  0.8467
55474SOL     OW76735   5.333  11.422   9.304 -0.4215 -0.7030  0.3889
55474SOL    HW176736   5.264  11.470   9.351 -0.7408  1.4895 -2.0647
55474SOL    HW276737   5.414  11.448   9.348 -0.9582 -2.3107  2.4985
55475SOL     OW76738   1.920   5.810   2.107 -0.1183 -0.0722 -0.2936
55475SOL    HW176739   1.984   5.866   2.152 -0.1634 -0.2179 -0.0516
55475SOL    HW276740   1.838   5.859   2.111 -0.1860 -0.2084  0.0260
55476SOL     OW76741   5.418   6.389   8.271  1.1287  0.6200 -0.1947
55476SOL    HW176742   5.380   6.316   8.321 -1.1194  0.2797 -2.2366
55476SOL    HW276743   5.513   6.374   8.276  0.8598 -0.8736  1.6791
55477SOL     OW76744   6.431   6.347   0.779 -0.3009 -0.2077 -0.0360
55477SOL    HW176745   6.508   6.304   0.816 -0.4656  1.2220  2.1971
55477SOL    HW276746   6.460   6.436   0.758 -0.8503 -0.2678 -1.1253
55478SOL     OW76747  12.646   2.590   6.565  0.1672 -0.0527  0.3430
55478SOL    HW176748  12.649   2.628   6.477  1.1135  0.1582  0.4579
55478SOL    HW276749  12.737   2.594   6.596 -0.6347  3.1503  2.7208
55479SOL     OW76750   7.899   1.888  10.067  0.4294  0.0628 -0.0828
55479SOL    HW176751   7.808   1.904  10.091 -0.5070  1.4875 -3.8267
55479SOL    HW276752   7.949   1.955  10.115 -0.5712 -0.1194  1.2626
55480SOL     OW76753   8.843   3.483   6.132  0.3630 -0.1299  0.7355
55480SOL    HW176754   8.905   3.485   6.204  0.4562 -1.0528  0.6976
55480SOL    HW276755   8.839   3.573   6.100  2.4435 -0.2204  0.0896
55481SOL     OW76756  10.392   8.708   7.589  0.2669 -0.3926 -0.4449
55481SOL    HW176757  10.432   8.794   7.603  1.3463 -1.0605  0.8030
55481SOL    HW276758  10.409   8.660   7.670 -0.0955 -1.8770 -1.2095
55482SOL     OW76759   0.128  12.442   8.327  0.4952 -0.4616  0.4033
55482SOL    HW176760   0.164  12.510   8.270 -0.5935  1.3195  1.7096
55482SOL    HW276761   0.186  12.367   8.315  0.9269  0.1698 -2.1873
55483SOL     OW76762   1.450  11.346   0.417  0.6420  0.1931  0.0083
55483SOL    HW176763   1.469  11.417   0.356 -0.4232  2.1904  1.8274
55483SOL    HW276764   1.373  11.376   0.464 -0.3041 -2.5692  0.3735
55484SOL     OW76765   7.629   9.973   0.704 -0.4608  0.0558  0.1106
55484SOL    HW176766   7.649  10.061   0.737 -0.1511 -0.4781  1.4448
55484SOL    HW276767   7.597   9.926   0.781  0.1997 -1.2512 -0.3846
55485SOL     OW76768   1.843   2.734   2.030 -0.1979 -0.3872  0.1320
55485SOL    HW176769   1.916   2.678   2.006  0.6490  1.2100 -1.2683
55485SOL    HW276770   1.767   2.694   1.987  0.0007 -1.5354  0.8165
55486SOL     OW76771   9.723   9.341   8.371 -0.5088 -0.2849  0.1972
55486SOL    HW176772   9.629   9.322   8.378 -0.9297  1.7228  0.8661
55486SOL    HW276773   9.735   9.419   8.426  1.2010  0.5575 -1.2774
55487SOL     OW76774  12.573   1.416   3.997 -0.2955  0.1524 -0.0706
55487SOL    HW176775  12.639   1.360   4.038 -0.1929 -0.2038 -0.7163
55487SOL    HW276776  12.599   1.422   3.905  0.1886  1.9720  0.1324
55488SOL     OW76777   9.112   4.314   0.907 -0.1661 -0.0726  0.1246
55488SOL    HW176778   9.029   4.273   0.931 -0.0905 -0.5804 -0.4282
55488SOL    HW276779   9.093   4.408   0.905 -0.9583 -0.2342 -0.8257
55489SOL     OW76780   2.568   6.719   4.157  0.1200 -0.5961 -0.2552
55489SOL    HW176781   2.527   6.674   4.230  1.5417  0.6948  1.4079
55489SOL    HW276782   2.551   6.812   4.173  0.8786 -0.2581 -1.2924
55490SOL     OW76783   0.045   5.162   3.489  0.3892  0.1203 -0.2988
55490SOL    HW176784  -0.021   5.182   3.423 -1.0254  0.2760  1.1106
55490SOL    HW276785   0.082   5.247   3.513  0.5428  0.1116 -0.4941
55491SOL     OW76786   0.522  11.227   5.254  0.0893  0.3115  0.1391
55491SOL    HW176787   0.582  11.255   5.185 -1.3650  0.5403 -1.0879
55491SOL    HW276788   0.435  11.232   5.213 -0.4947 -4.6781  0.1703
55492SOL     OW76789   6.499   2.164  12.333 -0.5845 -0.4116 -0.0753
55492SOL    HW176790   6.419   2.187  12.286 -0.8954 -2.0017 -0.4065
55492SOL    HW276791   6.570   2.197  12.278 -0.9961 -0.0452 -0.3890
55493SOL     OW76792   9.584   1.597   2.973  0.0384 -0.3398 -1.1004
55493SOL    HW176793   9.503   1.576   3.020 -0.6787  2.5259 -0.8632
55493SOL    HW276794   9.647   1.618   3.042  0.8396 -1.8249 -1.3166
55494SOL     OW76795   7.846   7.974  11.658 -0.1828 -0.5695 -0.4700
55494SOL    HW176796   7.781   8.031  11.699 -0.9514  0.6270 -3.1095
55494SOL    HW276797   7.805   7.888  11.657 -0.5419 -0.4176  0.3568
55495SOL     OW76798   3.106   5.353  11.671 -0.0801  0.2350  0.1037
55495SOL    HW176799   3.092   5.352  11.577 -0.9235 -0.9808  0.2081
55495SOL    HW276800   3.076   5.439  11.700 -0.3688  0.3972 -0.6697
55496SOL     OW76801   6.388   3.446   4.739  0.2091 -0.0507  0.0413
55496SOL    HW176802   6.393   3.455   4.835  1.7947  0.3566 -0.0623
55496SOL    HW276803   6.367   3.533   4.708 -2.2526 -0.5472  0.0812
55497SOL     OW76804   6.514   3.023   7.867  0.2737  0.1147  0.5854
55497SOL    HW176805   6.502   2.973   7.948 -2.6138  0.2670  0.3476
55497SOL    HW276806   6.441   2.996   7.812  1.7157  0.6214 -1.6980
55498SOL     OW76807   0.846   7.328   8.281  0.3200  0.0635  0.2678
55498SOL    HW176808   0.896   7.405   8.307 -0.7981  1.5843 -1.7359
55498SOL    HW276809   0.755   7.358   8.277 -0.0713 -1.1394 -1.1942
55499SOL     OW76810   7.071   6.701   3.002 -0.2219  0.6007 -0.7060
55499SOL    HW176811   6.976   6.692   3.012 -0.1955 -0.8943 -1.4909
55499SOL    HW276812   7.092   6.786   3.041 -1.7752  0.6198  0.1541
55500SOL     OW76813   8.875   3.720   2.164  0.1019 -0.1001  0.3861
55500SOL    HW176814   8.935   3.706   2.090 -1.5998  0.1979 -1.1453
55500SOL    HW276815   8.905   3.659   2.231  2.1248  0.0868 -0.2675
55501SOL     OW76816   5.531   7.137   8.344 -0.7778 -0.4622  0.3465
55501SOL    HW176817   5.438   7.143   8.322 -0.2898 -0.4254 -1.8632
55501SOL    HW276818   5.535   7.065   8.408 -2.1808 -1.2439 -0.3820
55502SOL     OW76819   7.807   3.832   6.942  0.0652  0.6480 -0.1133
55502SOL    HW176820   7.829   3.902   6.880  0.0566 -1.8667 -3.1976
55502SOL    HW276821   7.720   3.802   6.914  0.3519 -1.0321  0.6913
55503SOL     OW76822   9.516   7.991   5.133 -0.1847 -0.1037 -0.2765
55503SOL    HW176823   9.547   7.997   5.043  0.5164 -0.4196 -0.0627
55503SOL    HW276824   9.561   8.062   5.179 -0.4985  0.0240 -0.1651
55504SOL     OW76825   6.057   8.976  11.474  0.0835 -0.6511  0.0659
55504SOL    HW176826   6.098   9.063  11.479  0.6973 -0.9019 -0.5111
55504SOL    HW276827   6.041   8.962  11.381 -3.0335  0.2004  0.3619
55505SOL     OW76828   1.350   2.645   8.883  0.4591  0.4454 -0.0533
55505SOL    HW176829   1.265   2.615   8.914  0.6951 -0.1434  0.0315
55505SOL    HW276830   1.412   2.613   8.948  0.7277  1.0537 -0.0029
55506SOL     OW76831   4.848  10.553   5.730  0.6873  0.3036 -0.1758
55506SOL    HW176832   4.792  10.599   5.668 -0.4719 -1.7267 -0.7123
55506SOL    HW276833   4.912  10.507   5.675 -0.2852 -1.4328  0.0724
55507SOL     OW76834   2.446  10.662   8.782 -0.7061  0.4347 -0.0541
55507SOL    HW176835   2.389  10.586   8.773  1.0854 -0.9990  0.0106
55507SOL    HW276836   2.389  10.731   8.816 -2.2197 -1.1292  0.7443
55508SOL     OW76837   4.897   8.026  10.532  0.2248 -0.0063  0.1762
55508SOL    HW176838   4.989   8.029  10.556  0.4828 -2.6377 -0.2032
55508SOL    HW276839   4.895   8.058  10.442  0.8310 -0.3276  0.0445
55509SOL     OW76840   1.768   2.307   0.821 -0.3581  0.3325 -0.0644
55509SOL    HW176841   1.806   2.372   0.763 -1.4832  0.7732 -0.3308
55509SOL    HW276842   1.691   2.275   0.775 -0.7596  0.0305  0.7849
55510SOL     OW76843   1.720   2.131   4.966  0.3185  0.6569 -0.1242
55510SOL    HW176844   1.735   2.133   5.061 -0.0797 -0.6456 -0.0148
55510SOL    HW276845   1.679   2.215   4.946 -1.1611  0.2846  1.1443
55511SOL     OW76846  10.603   0.299   1.305  0.4750 -0.1128 -0.4273
55511SOL    HW176847  10.612   0.261   1.393 -0.6141 -0.9865 -0.6571
55511SOL    HW276848  10.685   0.277   1.261  1.2239  0.7329  0.4999
55512SOL     OW76849   2.454   9.066   7.532  0.6015  0.0550 -0.5919
55512SOL    HW176850   2.361   9.062   7.552  0.0718  1.7446 -2.4916
55512SOL    HW276851   2.486   9.141   7.583  0.4034  0.9214 -1.7098
55513SOL     OW76852   0.652   8.742  12.872  0.2399 -0.6804 -0.6780
55513SOL    HW176853   0.603   8.662  12.886  0.2786 -0.3656  1.5245
55513SOL    HW276854   0.633   8.796  12.948  0.9852  1.0211 -1.6365
55514SOL     OW76855  11.728  12.799   2.272  0.4153  0.6060 -0.1930
55514SOL    HW176856  11.758  12.803   2.363  2.3837  1.0968 -0.8189
55514SOL    HW276857  11.751  12.710   2.244 -2.2194 -0.3468  0.3828
55515SOL     OW76858   5.780   7.863   3.814 -0.6562 -0.2629 -1.1035
55515SOL    HW176859   5.860   7.912   3.832 -0.4253 -0.9913 -0.0267
55515SOL    HW276860   5.787   7.838   3.722 -0.7652  1.6523 -1.6918
55516SOL     OW76861  10.422  10.442   9.533 -0.2704  0.0364  0.6992
55516SOL    HW176862  10.498  10.487   9.497 -0.3118  0.2810  0.9174
55516SOL    HW276863  10.361  10.512   9.555 -1.5870 -0.2322 -1.7756
55517SOL     OW76864   7.672   9.366   6.135 -0.4291 -0.0548 -0.8389
55517SOL    HW176865   7.609   9.296   6.152 -0.1036  0.0014  0.6930
55517SOL    HW276866   7.746   9.322   6.094  0.1614 -0.7856  0.9544
55518SOL     OW76867   1.309   6.664   9.836  0.1875 -0.1656 -0.1582
55518SOL    HW176868   1.233   6.718   9.815 -1.0735 -1.7269  0.2444
55518SOL    HW276869   1.281   6.575   9.818  1.4585 -0.9128  1.3433
55519SOL     OW76870   5.192   2.580   1.166  0.6838 -0.2222 -0.6359
55519SOL    HW176871   5.202   2.510   1.101 -4.4345 -0.9562 -1.0345
55519SOL    HW276872   5.118   2.631   1.134 -0.9723  0.4286  3.7078
55520SOL     OW76873   7.521   8.134   7.135  0.9563 -0.1930 -0.5100
55520SOL    HW176874   7.580   8.201   7.169 -2.4045  1.5760  2.5600
55520SOL    HW276875   7.537   8.057   7.190  1.6620 -0.3396 -0.9236
55521SOL     OW76876   7.736   9.573  11.876  0.3140  0.2474  0.0925
55521SOL    HW176877   7.796   9.499  11.887 -0.1202 -0.0931  0.1762
55521SOL    HW276878   7.781   9.632  11.816  1.3411  0.6469  1.2030
55522SOL     OW76879   1.737  11.767   2.469  0.3180  0.1821 -0.1922
55522SOL    HW176880   1.809  11.704   2.465 -0.5616 -0.8663  0.1395
55522SOL    HW276881   1.717  11.788   2.378  0.3992 -0.2617 -0.3098
55523SOL     OW76882  10.780   4.848  11.763 -0.5650 -0.4775 -0.5700
55523SOL    HW176883  10.752   4.762  11.794 -2.0548  0.0268 -0.4354
55523SOL    HW276884  10.737   4.910  11.822  0.2251  0.3836 -0.8701
55524SOL     OW76885   5.727  11.192   8.358 -0.8311  0.1006 -0.4814
55524SOL    HW176886   5.746  11.215   8.267  0.2412  0.8452 -0.0892
55524SOL    HW276887   5.723  11.096   8.358 -0.8301  0.0920 -1.3069
55525SOL     OW76888  12.673   5.531   6.136 -0.0169 -0.1699  0.3703
55525SOL    HW176889  12.595   5.575   6.103 -0.5563 -0.6117  1.0267
55525SOL    HW276890  12.699   5.471   6.066 -0.4686 -0.2639  0.2783
55526SOL     OW76891  11.492  10.865   3.387 -0.6496 -0.5569 -0.0551
55526SOL    HW176892  11.415  10.827   3.428 -0.4863 -1.4570 -0.5548
55526SOL    HW276893  11.470  10.957   3.375 -0.6836 -0.2683  2.0214
55527SOL     OW76894   4.044   2.675   0.897 -0.0472  0.1045  0.4585
55527SOL    HW176895   3.973   2.729   0.932 -0.5269  1.2794 -2.1060
55527SOL    HW276896   4.068   2.717   0.814  0.1138 -3.1795 -1.3224
55528SOL     OW76897   0.792   4.631   1.289  0.3007  0.2719 -0.7293
55528SOL    HW176898   0.864   4.695   1.286  1.2396 -0.6972  0.3164
55528SOL    HW276899   0.824   4.558   1.236 -0.1014 -0.0020 -0.5928
55529SOL     OW76900   5.603   7.758   4.258  0.2493  0.0104 -0.2751
55529SOL    HW176901   5.621   7.751   4.352 -1.1822 -2.0741 -0.0860
55529SOL    HW276902   5.667   7.822   4.226  1.6328 -0.1868  1.8785
55530SOL     OW76903   8.342   0.271   5.910  0.1414 -0.1949  0.1732
55530SOL    HW176904   8.261   0.220   5.912 -0.2565  0.4340  0.6228
55530SOL    HW276905   8.350   0.306   5.999  0.4134  0.4930 -0.1136
55531SOL     OW76906   4.081   6.568  12.868  0.7950 -0.3882 -0.3844
55531SOL    HW176907   4.174   6.566  12.846  0.6667 -1.9722 -0.8555
55531SOL    HW276908   4.055   6.659  12.851  2.1077 -0.0688 -0.8324
55532SOL     OW76909  10.734   7.479  11.756  0.4772  0.1727 -0.1273
55532SOL    HW176910  10.664   7.533  11.794  1.6154  1.7643 -0.1852
55532SOL    HW276911  10.699   7.452  11.671 -0.3755  0.2783  0.1771
55533SOL     OW76912   0.042   0.743   3.428  0.0939 -0.1392  0.2745
55533SOL    HW176913  -0.022   0.806   3.462 -1.6628 -0.8962 -1.4055
55533SOL    HW276914   0.013   0.659   3.463  2.4194 -0.1293  2.4988
55534SOL     OW76915   7.568   4.946  11.494 -0.6830 -0.3735  0.3460
55534SOL    HW176916   7.663   4.949  11.488 -0.6362 -1.1431  0.5748
55534SOL    HW276917   7.538   5.023  11.446 -0.0045 -1.1671 -1.4441
55535SOL     OW76918   1.429  12.598  10.909 -0.2525  0.0095 -0.0382
55535SOL    HW176919   1.420  12.677  10.854  1.1469 -0.7381 -1.4148
55535SOL    HW276920   1.474  12.628  10.987  0.1545  0.6059 -0.4960
55536SOL     OW76921   7.500   2.096   9.400  0.3042 -0.0784  0.8502
55536SOL    HW176922   7.513   2.020   9.343  3.7517  1.1991 -0.3028
55536SOL    HW276923   7.453   2.159   9.345 -1.3986 -0.8111  1.3879
55537SOL     OW76924  12.645   7.989  11.374  0.3465 -0.5628  0.1773
55537SOL    HW176925  12.678   8.051  11.310 -0.1176 -1.6015 -1.1199
55537SOL    HW276926  12.612   8.043  11.446  1.5613  0.5997 -0.1117
55538SOL     OW76927   7.335   8.463   0.899  0.0608 -0.0943 -0.1284
55538SOL    HW176928   7.334   8.557   0.917  3.2880  0.0950 -0.4712
55538SOL    HW276929   7.325   8.457   0.804  1.4908  0.0445 -0.3058
55539SOL     OW76930   9.684   4.156   5.428 -0.0576  0.4689 -0.2196
55539SOL    HW176931   9.599   4.178   5.388  0.0184  0.1309 -0.5676
55539SOL    HW276932   9.692   4.218   5.501 -1.1920 -0.3037  0.6023
55540SOL     OW76933  11.078   8.399  10.758 -0.3494 -0.0817 -0.4317
55540SOL    HW176934  11.074   8.378  10.851  1.5055 -1.0334 -0.5121
55540SOL    HW276935  11.052   8.318  10.714 -0.1635  0.0229 -0.7410
55541SOL     OW76936  10.924  11.179   3.554 -0.1517  0.8985  0.6743
55541SOL    HW176937  10.838  11.165   3.514  0.2748  1.0476 -0.3263
55541SOL    HW276938  10.966  11.093   3.549  0.8147  1.4112 -1.4795
55542SOL     OW76939   3.548   7.645   4.460 -0.6687  0.8977  0.5389
55542SOL    HW176940   3.539   7.735   4.492  0.3379  0.6646  1.5562
55542SOL    HW276941   3.570   7.594   4.538  2.9040  0.4601 -0.5745
55543SOL     OW76942   8.860   1.948   8.962  0.1647  0.1834 -0.1731
55543SOL    HW176943   8.815   1.895   9.028  1.1790 -0.3676  0.0857
55543SOL    HW276944   8.791   2.004   8.926 -0.4519  0.3192  1.1659
55544SOL     OW76945   7.852   3.098   7.446 -0.4590  0.4032 -0.5532
55544SOL    HW176946   7.904   3.178   7.435  0.6816 -0.0767  1.1200
55544SOL    HW276947   7.766   3.121   7.409 -0.2090  2.4588  0.0155
55545SOL     OW76948   2.766   3.892   2.775 -0.3574  0.1038  0.2569
55545SOL    HW176949   2.679   3.929   2.784 -0.6116 -0.5439  0.4769
55545SOL    HW276950   2.761   3.807   2.817  0.6334  0.4338  1.0865
55546SOL     OW76951  12.820  12.258   5.278 -0.2153 -0.3368  0.0098
55546SOL    HW176952  12.811  12.164   5.293  1.7873 -0.5172  0.4423
55546SOL    HW276953  12.883  12.264   5.206 -1.6105  0.6781 -1.1834
55547SOL     OW76954   1.494   4.679   7.457  0.4053 -0.0171  0.5044
55547SOL    HW176955   1.585   4.709   7.462  0.6148 -0.5259 -0.0874
55547SOL    HW276956   1.481   4.629   7.538  0.7173 -0.1092  0.4985
55548SOL     OW76957  10.558   2.194   5.674  0.4881 -0.2691 -0.1037
55548SOL    HW176958  10.582   2.271   5.724  1.1231  0.8405 -2.0030
55548SOL    HW276959  10.592   2.120   5.725 -0.7288  0.5979  2.0903
55549SOL     OW76960   8.024   1.169   4.002  0.3694  0.4907  0.4166
55549SOL    HW176961   7.935   1.133   3.999  0.7848 -0.5386 -0.0287
55549SOL    HW276962   8.058   1.157   3.913  1.0911  0.4989  0.6831
55550SOL     OW76963  10.759   7.951   4.845  0.4622  0.1962  0.1654
55550SOL    HW176964  10.831   7.901   4.883 -0.0154  0.0517  0.8986
55550SOL    HW276965  10.737   7.905   4.764  2.0219  0.9608 -0.7386
55551SOL     OW76966   2.392  10.645   3.508  0.6767 -0.0942 -0.4837
55551SOL    HW176967   2.337  10.722   3.522 -0.1890 -0.8085  0.1399
55551SOL    HW276968   2.334  10.581   3.467  0.7953 -1.1610  0.9358
55552SOL     OW76969  11.257   8.551   6.894  0.0311  0.7866 -0.2607
55552SOL    HW176970  11.203   8.566   6.972 -0.9786 -2.0875 -0.2951
55552SOL    HW276971  11.231   8.465   6.863  2.1959  0.7906 -2.3684
55553SOL     OW76972   7.814   3.317   6.256 -0.4107  0.7395  0.0642
55553SOL    HW176973   7.827   3.297   6.163 -1.9465 -0.0884 -0.0231
55553SOL    HW276974   7.812   3.231   6.299 -1.9903  0.9519  0.4928
55554SOL     OW76975   4.912   0.497   0.082 -0.7377  0.2067 -0.2658
55554SOL    HW176976   4.960   0.473   0.161  0.0065 -1.0683 -1.0663
55554SOL    HW276977   4.861   0.574   0.107  0.9595  1.0146  0.9103
55555SOL     OW76978   8.216  11.498   9.118 -0.0958 -0.2662 -0.4970
55555SOL    HW176979   8.176  11.571   9.166 -0.1878 -0.4317 -0.3214
55555SOL    HW276980   8.276  11.540   9.057  1.1959 -0.1134  0.8228
55556SOL     OW76981  12.071  10.260   8.414 -0.1465 -0.1600 -0.7950
55556SOL    HW176982  12.118  10.177   8.422 -1.3444 -0.8973 -1.2580
55556SOL    HW276983  12.093  10.292   8.327  0.1011 -0.1092 -0.7163
55557SOL     OW76984   1.632   2.171   9.576  0.6963  0.0862  0.5153
55557SOL    HW176985   1.705   2.136   9.524  0.0945 -0.1038 -0.2244
55557SOL    HW276986   1.669   2.185   9.663  0.7838 -3.2831  1.1692
55558SOL     OW76987   7.440   0.205   8.864 -0.1539  0.7126  0.1890
55558SOL    HW176988   7.476   0.119   8.886 -1.7061 -0.1835 -0.5683
55558SOL    HW276989   7.401   0.237   8.945 -0.7966  0.0574  0.1424
55559SOL     OW76990   0.887   7.453   4.433  0.4149 -0.1200 -0.3545
55559SOL    HW176991   0.942   7.508   4.489 -0.3010  0.1949  0.0471
55559SOL    HW276992   0.943   7.431   4.359  1.5285 -0.8988  0.6852
55560SOL     OW76993  12.700  11.503  10.922  0.2176  0.1360 -0.3208
55560SOL    HW176994  12.643  11.564  10.876 -0.7223  0.1505  0.8264
55560SOL    HW276995  12.668  11.416  10.898 -1.0512  0.1485  1.1960
55561SOL     OW76996  12.829   8.776   1.038 -0.3797 -0.4840  0.0288
55561SOL    HW176997  12.763   8.808   0.977 -1.1670 -1.0232  0.5783
55561SOL    HW276998  12.833   8.681   1.023 -2.0363 -0.9666  2.1191
55562SOL     OW76999   8.051   2.836   3.285  0.0476 -0.4395  0.1334
55562SOL    HW177000   8.132   2.853   3.236 -0.1539  0.7548  0.1797
55562SOL    HW277001   7.989   2.807   3.218  0.7806 -2.3776  0.2488
55563SOL     OW77002   1.133   0.758   4.867 -0.3242 -0.3306 -0.9475
55563SOL    HW177003   1.057   0.701   4.876  1.5079 -2.9889 -1.0886
55563SOL    HW277004   1.171   0.761   4.955 -0.2817  0.5767 -0.9829
55564SOL     OW77005   8.375   2.596   1.067 -0.3041 -0.2147 -0.0743
55564SOL    HW177006   8.395   2.592   1.161  0.7300  0.0079 -0.2683
55564SOL    HW277007   8.289   2.556   1.059 -0.0301 -1.0359  0.8693
55565SOL     OW77008   0.179   0.013   1.709  0.2028 -0.3480 -0.4744
55565SOL    HW177009   0.253  -0.019   1.760 -0.1466 -2.0582 -0.9866
55565SOL    HW277010   0.196  -0.017   1.619 -1.1094 -0.7945 -0.5962
55566SOL     OW77011   6.165   7.817   5.270  0.2868  0.1874 -0.5150
55566SOL    HW177012   6.158   7.908   5.242  0.0932 -0.0782 -1.3532
55566SOL    HW277013   6.182   7.822   5.364  0.9759  1.1025 -0.6773
55567SOL     OW77014   1.273   5.235   6.858 -0.4273  0.0249 -0.0214
55567SOL    HW177015   1.253   5.326   6.882 -0.0396 -0.3176  1.8032
55567SOL    HW277016   1.194   5.186   6.882  0.2824 -0.4566  1.4800
55568SOL     OW77017   1.583   7.369   4.861 -0.5903  0.1025 -0.3535
55568SOL    HW177018   1.496   7.397   4.888 -0.7954 -0.0574 -0.8350
55568SOL    HW277019   1.567   7.292   4.806 -0.0446 -0.9662  0.9299
55569SOL     OW77020   7.995   1.646  11.593  0.1109 -0.5119 -0.2767
55569SOL    HW177021   7.945   1.726  11.579  1.1456  0.1987  0.0067
55569SOL    HW277022   7.959   1.610  11.675  1.9121  1.5112  1.5283
55570SOL     OW77023   2.272   1.225   1.890 -0.6490  0.8963 -0.2746
55570SOL    HW177024   2.245   1.209   1.980  0.2701  0.6907 -0.0285
55570SOL    HW277025   2.310   1.142   1.861 -1.5906  0.7298 -1.1015
55571SOL     OW77026  12.781   8.686   6.265 -0.4077 -0.4863  0.1633
55571SOL    HW177027  12.717   8.642   6.209 -0.1286 -0.9586  0.2096
55571SOL    HW277028  12.866   8.662   6.228 -0.2456 -0.1527  0.3148
55572SOL     OW77029   9.235  11.671   0.485  0.3302 -0.4028 -0.3310
55572SOL    HW177030   9.163  11.733   0.472  0.8026  0.6423  1.5488
55572SOL    HW277031   9.193  11.587   0.500 -0.6217  0.3569  1.6575
55573SOL     OW77032   3.409  12.620   6.966 -0.1216  0.0167  0.6574
55573SOL    HW177033   3.457  12.657   7.040 -0.7484  1.1486  0.5246
55573SOL    HW277034   3.470  12.557   6.927  0.8437  0.6332  1.1312
55574SOL     OW77035   1.083   0.247   7.963 -0.4443 -0.6381 -0.3751
55574SOL    HW177036   1.047   0.237   8.051 -0.3072  1.1746 -0.0733
55574SOL    HW277037   1.018   0.207   7.906  0.4039 -3.7686  0.6136
55575SOL     OW77038  10.849   4.161   8.112 -0.0122  0.2495  0.3290
55575SOL    HW177039  10.833   4.253   8.135 -2.5153 -0.4652  1.8216
55575SOL    HW277040  10.785   4.112   8.164  2.1173 -2.4786  0.5880
55576SOL     OW77041  11.281   7.928   2.248 -0.1365 -0.2565 -0.6727
55576SOL    HW177042  11.372   7.922   2.221  0.2174 -0.8921  0.5588
55576SOL    HW277043  11.240   7.850   2.210  0.6249 -1.7926  1.4426
55577SOL     OW77044   2.484   2.270   5.954 -0.0895 -0.3157  0.2951
55577SOL    HW177045   2.522   2.249   6.040  1.2494 -1.5937 -0.5570
55577SOL    HW277046   2.482   2.186   5.908 -0.4086  0.4135 -1.0771
55578SOL     OW77047  10.036   6.271   9.339  0.2897  0.3324 -0.9494
55578SOL    HW177048  10.100   6.298   9.405  0.6518 -0.2019 -1.0742
55578SOL    HW277049  10.003   6.353   9.303 -0.6953  0.6579  0.6185
55579SOL     OW77050  10.196   3.096   2.020 -0.1681 -0.2092 -0.0708
55579SOL    HW177051  10.153   3.021   2.061 -0.2800 -1.5024 -2.4152
55579SOL    HW277052  10.151   3.172   2.057  0.2566 -1.1908  2.7346
55580SOL     OW77053   6.053   4.937   7.424 -0.1523 -0.3955 -0.2967
55580SOL    HW177054   6.022   4.847   7.416 -1.1923  0.0222 -1.1509
55580SOL    HW277055   6.000   4.975   7.494 -0.0703 -0.2901 -0.2908
55581SOL     OW77056   6.984   0.945   7.709  0.4390 -0.1525  0.5348
55581SOL    HW177057   7.069   0.988   7.717  0.1267  0.5842  0.0246
55581SOL    HW277058   6.921   1.010   7.740 -0.4535  1.4417 -3.8202
55582SOL     OW77059   0.331   6.111   8.818  0.9211 -0.1140  0.2576
55582SOL    HW177060   0.416   6.118   8.775  0.3760  1.3419 -0.6572
55582SOL    HW277061   0.313   6.199   8.851 -0.0298 -0.5042  0.8435
55583SOL     OW77062   3.978  11.551   8.614  0.3208 -0.3415  0.1900
55583SOL    HW177063   3.963  11.641   8.584 -0.6176 -0.4838  0.1957
55583SOL    HW277064   3.910  11.500   8.570  1.7437 -1.3073 -0.9861
55584SOL     OW77065   8.743  11.960   2.115 -0.6974  0.2050  0.2382
55584SOL    HW177066   8.716  11.917   2.196 -1.0478  1.2537  0.6977
55584SOL    HW277067   8.691  11.918   2.046 -1.0533 -0.0810  0.6829
55585SOL     OW77068   5.538  12.774   2.920 -0.4348 -0.4283  0.4790
55585SOL    HW177069   5.479  12.830   2.870  0.3211  0.3427  0.4236
55585SOL    HW277070   5.616  12.766   2.866 -0.6607 -1.8632  0.3222
55586SOL     OW77071   0.776   5.588   8.127  0.0597 -0.3874  0.4566
55586SOL    HW177072   0.830   5.523   8.082  0.1319  0.8430 -1.3695
55586SOL    HW277073   0.771   5.558   8.218 -0.2250 -3.1018 -0.3797
55587SOL     OW77074   7.222   7.369  10.917  0.4923 -0.3625 -0.2174
55587SOL    HW177075   7.147   7.344  10.863  1.6717 -2.5910 -0.9620
55587SOL    HW277076   7.233   7.297  10.979  0.9576  0.7765  1.0887
55588SOL     OW77077  11.466   0.783   2.271  0.3944  0.2330 -0.1948
55588SOL    HW177078  11.559   0.760   2.269  0.6485  1.1568  0.3578
55588SOL    HW277079  11.453   0.840   2.196  0.4377  0.6789  0.1331
55589SOL     OW77080  12.649   1.919   4.149  0.1898  0.4401  0.5887
55589SOL    HW177081  12.629   2.012   4.145 -2.0352  0.0635  1.1593
55589SOL    HW277082  12.563   1.876   4.148  1.0680 -1.5274  1.9448
55590SOL     OW77083   5.656  12.614  12.111  0.3552 -0.5310 -0.0170
55590SOL    HW177084   5.681  12.641  12.022 -2.4892 -0.6413 -0.9656
55590SOL    HW277085   5.661  12.694  12.162 -1.3398  0.3922 -1.1801
55591SOL     OW77086  10.536   9.135  11.812  0.2933 -0.9460  0.2379
55591SOL    HW177087  10.484   9.198  11.861  1.6146  0.9414 -0.6562
55591SOL    HW277088  10.617   9.125  11.862  0.9779 -0.2460 -0.6907
55592SOL     OW77089   0.606   7.824   7.637 -0.1972  0.7739 -0.6385
55592SOL    HW177090   0.548   7.880   7.689 -2.0139  0.2340 -1.9566
55592SOL    HW277091   0.582   7.844   7.546  1.2122 -0.0045 -1.2054
55593SOL     OW77092   3.958  11.195  12.039  0.1488 -0.5190 -0.2609
55593SOL    HW177093   3.905  11.144  11.978  0.8208  0.8482 -2.0785
55593SOL    HW277094   3.988  11.131  12.103 -1.7096 -1.7575 -0.5544
55594SOL     OW77095   2.068   0.445   9.230 -0.0546 -0.1759 -0.7704
55594SOL    HW177096   2.108   0.411   9.310 -0.5203 -1.3529 -1.0108
55594SOL    HW277097   2.141   0.481   9.180  0.2751  0.3614  0.0698
55595SOL     OW77098  12.917   9.976   5.377 -0.3977  0.4943  0.3943
55595SOL    HW177099  12.952  10.023   5.302 -0.1571 -1.4644 -0.8006
55595SOL    HW277100  12.962  10.013   5.453  0.1133  1.8139 -0.5320
55596SOL     OW77101   7.358  10.588   9.808 -0.7552 -0.2676 -0.1148
55596SOL    HW177102   7.443  10.546   9.801 -1.9748 -2.6697 -1.7218
55596SOL    HW277103   7.361  10.634   9.892  1.6437 -1.3355  0.4716
55597SOL     OW77104  12.931  12.262   8.702 -0.0734  0.3839 -0.4514
55597SOL    HW177105  12.982  12.332   8.661 -0.4154  0.3008 -1.0195
55597SOL    HW277106  12.888  12.305   8.776  1.1118  0.3688  0.2785
55598SOL     OW77107  12.289   9.188   8.058 -0.2432  0.4633 -0.2329
55598SOL    HW177108  12.246   9.225   8.135 -0.8901 -2.2526  0.8117
55598SOL    HW277109  12.236   9.112   8.034  2.1052 -1.0910 -0.9259
55599SOL     OW77110   1.307   9.041   6.971  0.1597  0.0421 -0.3139
55599SOL    HW177111   1.268   9.128   6.959 -0.9742 -0.2477  0.9393
55599SOL    HW277112   1.401   9.055   6.961  0.0089  1.4295 -0.0508
55600SOL     OW77113   9.483   3.195   5.859 -0.4343 -0.1800 -0.0276
55600SOL    HW177114   9.574   3.188   5.832 -1.0571 -2.0018 -1.9590
55600SOL    HW277115   9.482   3.162   5.949  0.8048 -0.0845  0.0345
55601SOL     OW77116   1.386   9.532  10.799  0.2548 -0.6257  0.1397
55601SOL    HW177117   1.384   9.560  10.707  0.5353  0.0335  0.3270
55601SOL    HW277118   1.397   9.437  10.795  3.6024 -0.3432 -0.5460
55602SOL     OW77119   9.896   1.757   7.493  0.4735  0.1825  0.0292
55602SOL    HW177120   9.898   1.666   7.464  3.2775 -0.2771  1.3318
55602SOL    HW277121   9.894   1.751   7.589  2.2120  1.3903  0.1946
55603SOL     OW77122   8.489   6.072   6.525 -0.9997  0.4757 -0.1390
55603SOL    HW177123   8.481   5.985   6.487 -2.2120  0.5422 -0.0933
55603SOL    HW277124   8.487   6.131   6.450  1.5598  0.4340 -0.3147
55604SOL     OW77125   7.136   2.532   1.484 -0.4689  0.3513  0.4480
55604SOL    HW177126   7.086   2.515   1.405  0.2784  2.1132 -0.4627
55604SOL    HW277127   7.218   2.572   1.453 -0.5612  1.9902  2.1266
55605SOL     OW77128   7.173   5.093   7.245 -0.0016 -0.3407 -0.4560
55605SOL    HW177129   7.193   5.123   7.334 -0.9810 -1.6013  0.2052
55605SOL    HW277130   7.078   5.084   7.243 -0.2289  1.5558 -2.2731
55606SOL     OW77131   7.032   1.912   7.951  0.8073  0.2673 -0.0534
55606SOL    HW177132   7.077   1.859   8.017  1.5516  0.0543 -0.7082
55606SOL    HW277133   6.941   1.917   7.981  0.5875 -1.8410 -0.2210
55607SOL     OW77134   7.513   0.804  12.834  0.0747  0.2199  0.1507
55607SOL    HW177135   7.555   0.849  12.908  0.5418  0.8481 -0.4863
55607SOL    HW277136   7.420   0.803  12.857  0.1884  0.5884  0.6531
55608SOL     OW77137   0.068   5.704  11.004 -0.4998 -0.3627 -0.0435
55608SOL    HW177138   0.153   5.660  11.012  0.0246  0.5259 -0.5779
55608SOL    HW277139   0.086   5.795  11.027 -1.1877 -0.0407 -0.7300
55609SOL     OW77140  11.204   0.976   7.993  0.2290 -0.3603  0.1796
55609SOL    HW177141  11.299   0.985   7.981  0.2178 -0.7326 -0.1997
55609SOL    HW277142  11.187   0.883   7.982 -0.0509 -0.4388  1.2514
55610SOL     OW77143   6.628   1.538  10.017  0.4352 -0.4375 -0.3815
55610SOL    HW177144   6.691   1.552  10.087 -0.1530 -1.9838  0.5046
55610SOL    HW277145   6.674   1.483   9.953  0.0540 -1.4703  0.2112
55611SOL     OW77146   1.178  10.403   8.860  0.1960  0.3559  0.0401
55611SOL    HW177147   1.123  10.396   8.938  0.6040  1.6902  0.4589
55611SOL    HW277148   1.152  10.486   8.819  1.2096  0.5306 -0.2832
55612SOL     OW77149   7.311   1.165   4.977  0.2521 -0.1151  0.0291
55612SOL    HW177150   7.254   1.097   4.942  1.0238 -0.8180  0.0954
55612SOL    HW277151   7.339   1.131   5.062  1.1310 -0.0123 -0.2042
55613SOL     OW77152   2.704   8.478  12.125  0.4418 -0.1442 -0.0060
55613SOL    HW177153   2.760   8.473  12.202  1.1285 -0.4737 -0.5130
55613SOL    HW277154   2.757   8.440  12.054  0.3697  1.4296 -0.9432
55614SOL     OW77155   6.336   4.825   7.933  0.3389  0.1650 -0.1949
55614SOL    HW177156   6.292   4.797   8.013  2.3090  0.1413  0.9433
55614SOL    HW277157   6.378   4.745   7.900  1.3878  0.6251  0.0009
55615SOL     OW77158   7.559   1.607  10.043  0.7798 -0.0477 -0.6039
55615SOL    HW177159   7.497   1.575   9.977 -0.6647 -1.0313  1.1528
55615SOL    HW277160   7.518   1.587  10.127  2.2129  1.8522  0.6355
55616SOL     OW77161  11.585   3.425   0.779 -0.0523 -0.2562  0.1172
55616SOL    HW177162  11.508   3.483   0.785  0.0537  0.0413 -1.1530
55616SOL    HW277163  11.650   3.466   0.836  0.0330  0.9069 -0.7959
55617SOL     OW77164  12.908   2.798  10.462 -0.3352 -0.5472  0.6257
55617SOL    HW177165  12.932   2.884  10.494 -2.2684  1.3468 -2.4375
55617SOL    HW277166  12.989   2.762  10.425  0.3882  0.1465  1.5027
55618SOL     OW77167   1.836   7.283   5.427 -0.4383 -0.4073  0.1959
55618SOL    HW177168   1.829   7.228   5.505  1.3248 -1.6430 -0.4301
55618SOL    HW277169   1.925   7.319   5.432  0.3431 -1.8466 -2.0160
55619SOL     OW77170   4.093   7.274   9.553  0.0518  0.6008 -0.3782
55619SOL    HW177171   4.143   7.206   9.599 -2.3132  0.5314  2.3541
55619SOL    HW277172   4.055   7.228   9.479  0.5665 -0.4088 -0.0475
55620SOL     OW77173   4.147   0.289  11.623 -1.0088  0.5871  0.2704
55620SOL    HW177174   4.182   0.265  11.537 -0.4131  1.3688  0.2893
55620SOL    HW277175   4.078   0.224  11.639 -1.8570  1.0528 -1.2764
55621SOL     OW77176   3.069  10.297   9.672 -0.0196 -0.1165  0.1552
55621SOL    HW177177   3.030  10.383   9.655  0.8625 -0.1143 -2.1580
55621SOL    HW277178   3.088  10.297   9.766 -3.0293  0.9060  0.8587
55622SOL     OW77179  12.687   7.190   5.643  0.5794  0.1527  0.4580
55622SOL    HW177180  12.613   7.131   5.654  1.0814 -0.4101  0.8143
55622SOL    HW277181  12.743   7.174   5.718  1.3541  0.1657 -0.1036
55623SOL     OW77182   4.787   2.872   5.074  0.7653 -0.4178  0.1609
55623SOL    HW177183   4.868   2.853   5.027  0.6388  0.2146 -0.3351
55623SOL    HW277184   4.796   2.964   5.100 -0.4795  0.2008 -1.3698
55624SOL     OW77185   3.992   1.512   3.430 -0.2769  0.1644 -0.1485
55624SOL    HW177186   3.961   1.498   3.341  0.1659  1.1878 -0.4810
55624SOL    HW277187   4.063   1.576   3.421  0.9014 -0.9376  0.7574
55625SOL     OW77188  11.317  12.859   1.419 -0.1711  0.0874 -0.0592
55625SOL    HW177189  11.292  12.773   1.453 -0.0460  0.6270  1.4686
55625SOL    HW277190  11.375  12.839   1.345  0.6803 -1.1662  0.8830
55626SOL     OW77191   2.332   3.544   8.548 -0.4368 -0.1673 -0.6306
55626SOL    HW177192   2.318   3.499   8.464 -0.8756  0.1209 -0.7159
55626SOL    HW277193   2.426   3.559   8.552 -0.4813  0.3466 -1.3530
55627SOL     OW77194   2.137  11.381   7.058 -0.1004  0.1256  0.6592
55627SOL    HW177195   2.175  11.393   7.145 -0.6388 -2.6384  1.3751
55627SOL    HW277196   2.141  11.468   7.018  1.0520  1.2818  3.0573
55628SOL     OW77197   7.941   8.235   7.102 -0.0080  0.2527  0.4626
55628SOL    HW177198   7.880   8.291   7.149 -0.5652 -0.4561  0.6127
55628SOL    HW277199   7.960   8.164   7.163  0.5284  0.1705  0.2059
55629SOL     OW77200  11.474  12.173  12.084  0.5374 -0.1009  0.1240
55629SOL    HW177201  11.395  12.178  12.029  0.3699 -1.8328  0.1519
55629SOL    HW277202  11.490  12.263  12.111  0.1038  0.6762 -2.0295
55630SOL     OW77203   2.327   9.524   7.016 -0.5175 -0.4979 -0.2657
55630SOL    HW177204   2.238   9.488   7.011 -0.5258 -0.5918  0.4921
55630SOL    HW277205   2.374   9.462   7.072  0.1002 -0.5879 -0.8794
55631SOL     OW77206   6.152   6.808   1.926 -0.1577  0.1236 -0.6164
55631SOL    HW177207   6.106   6.849   1.852 -0.2931 -0.1074 -0.6606
55631SOL    HW277208   6.199   6.734   1.888  0.6693  0.6642 -0.6543
55632SOL     OW77209   4.163   8.811   6.956 -0.1577 -0.3970  0.3400
55632SOL    HW177210   4.252   8.846   6.955 -0.0848 -0.5373 -1.3732
55632SOL    HW277211   4.108   8.885   6.929 -0.5876 -0.2730  1.5187
55633SOL     OW77212   3.044   5.999   6.866 -0.6218 -0.3232  0.1491
55633SOL    HW177213   3.087   5.935   6.923 -0.3156  0.7276  1.1291
55633SOL    HW277214   3.094   5.996   6.784 -0.3607 -1.0238  0.3285
55634SOL     OW77215  10.527   4.750  12.917 -0.1675  0.6144 -0.4902
55634SOL    HW177216  10.615   4.749  12.880 -0.0897  0.7501 -0.3096
55634SOL    HW277217  10.469   4.763  12.841 -0.1001 -0.4184 -0.7379
55635SOL     OW77218   2.714  11.879   9.552  0.1471  0.0550  0.7059
55635SOL    HW177219   2.624  11.911   9.561 -0.2635 -0.9106  0.2363
55635SOL    HW277220   2.755  11.898   9.636 -1.0628 -1.1634  1.6340
55636SOL     OW77221   6.826   6.727   6.643 -0.1270 -0.2572  0.2611
55636SOL    HW177222   6.888   6.785   6.597 -0.8993 -1.0326 -1.8643
55636SOL    HW277223   6.881   6.657   6.678  0.5692  0.7198  1.2260
55637SOL     OW77224   1.362   8.577  10.344 -0.8442 -0.4178  0.4148
55637SOL    HW177225   1.330   8.586  10.255  1.0273 -0.1903 -0.2855
55637SOL    HW277226   1.439   8.635  10.348 -0.1904 -1.3164  1.8116
55638SOL     OW77227   4.535   1.272   8.446 -0.6829  0.0865  0.0034
55638SOL    HW177228   4.582   1.346   8.408  1.6906  0.0497  2.6330
55638SOL    HW277229   4.581   1.195   8.412  0.1044  0.0048  1.2005
55639SOL     OW77230   6.226  12.285  10.557 -0.0090 -0.2000 -0.4510
55639SOL    HW177231   6.169  12.345  10.510 -0.8961 -1.1959 -0.6726
55639SOL    HW277232   6.168  12.234  10.613  0.8242 -0.2807  0.3702
55640SOL     OW77233   8.285  11.917  12.843  0.1080 -0.1691  0.1320
55640SOL    HW177234   8.243  11.959  12.768  0.0828  1.0078  0.7733
55640SOL    HW277235   8.379  11.930  12.827  0.0639  1.5571  1.0839
55641SOL     OW77236   3.733   9.217   0.010  0.3635  0.2341 -0.2844
55641SOL    HW177237   3.786   9.272   0.068 -0.5147 -0.3446  1.1142
55641SOL    HW277238   3.715   9.139   0.061 -0.1000 -0.4889 -1.5121
55642SOL     OW77239   1.153   3.396   4.782  0.1376 -0.0465 -0.2734
55642SOL    HW177240   1.115   3.377   4.696 -1.8975 -0.5897  0.6889
55642SOL    HW277241   1.231   3.449   4.762 -0.7816  0.6329 -2.4024
55643SOL     OW77242   8.115   9.742  11.859 -0.0093  0.0493  0.7029
55643SOL    HW177243   8.190   9.799  11.876 -0.5442  0.8671  0.3720
55643SOL    HW277244   8.094   9.705  11.945  2.6568 -2.6577  0.3576
55644SOL     OW77245  12.470   4.857  10.842 -0.1478  0.3019 -0.2069
55644SOL    HW177246  12.514   4.886  10.922  0.2797  0.4972 -0.5056
55644SOL    HW277247  12.531   4.794  10.804  0.2121  1.1210 -1.0042
55645SOL     OW77248   0.282  11.079   4.883  0.3088 -0.5122  0.1439
55645SOL    HW177249   0.332  11.150   4.922 -0.2138  1.1029 -1.9620
55645SOL    HW277250   0.223  11.050   4.952 -0.8911  2.4931  0.5154
55646SOL     OW77251   8.586   0.056   5.598 -0.1479  0.3621 -0.7162
55646SOL    HW177252   8.588   0.117   5.524 -1.0481  0.2081 -0.8869
55646SOL    HW277253   8.614   0.108   5.673  0.0474  0.7236 -1.0365
55647SOL     OW77254  11.930   6.301   9.642  0.1436 -0.3886  1.0365
55647SOL    HW177255  11.918   6.236   9.573 -2.1745 -0.0030  0.9855
55647SOL    HW277256  11.853   6.358   9.634  2.4172  2.8993  0.5576
55648SOL     OW77257  12.202  12.700  11.327  0.5392 -0.6515  0.1399
55648SOL    HW177258  12.289  12.669  11.302 -0.2875 -2.2602 -0.9170
55648SOL    HW277259  12.142  12.633  11.295 -1.0764  0.1710  1.2761
55649SOL     OW77260  12.493   7.210   8.687  0.3291 -0.2904 -0.4877
55649SOL    HW177261  12.554   7.265   8.736  1.5979 -2.5542  0.6462
55649SOL    HW277262  12.532   7.203   8.600  0.3597  0.2850 -0.5208
55650SOL     OW77263   0.683   6.669   6.149 -0.1836 -0.0946  0.0486
55650SOL    HW177264   0.776   6.650   6.154  0.0037  0.7869  0.1336
55650SOL    HW277265   0.643   6.616   6.217  0.3924  0.3041  0.7077
55651SOL     OW77266   1.875  11.952  12.777 -0.2567 -0.0986 -0.1930
55651SOL    HW177267   1.791  11.995  12.764 -0.7944 -0.7603  0.8919
55651SOL    HW277268   1.884  11.893  12.702 -1.0077 -0.3821 -0.0691
55652SOL     OW77269   4.248   2.822   4.689  0.2059 -0.7802  0.2737
55652SOL    HW177270   4.286   2.734   4.683 -1.7928 -1.6184 -1.7326
55652SOL    HW277271   4.291   2.872   4.620 -1.9243 -1.6730 -1.8634
55653SOL     OW77272  10.779   7.519   6.096  0.5671  0.2420 -0.3440
55653SOL    HW177273  10.830   7.459   6.042  0.4117  0.0536 -0.2834
55653SOL    HW277274  10.795   7.606   6.057  1.5918  0.3008  0.1896
55654SOL     OW77275  12.259   0.078  11.703 -0.3304 -0.1316 -0.1099
55654SOL    HW177276  12.294  -0.003  11.666 -1.1447 -0.2999 -0.5339
55654SOL    HW277277  12.335   0.135  11.712  0.3184 -1.0716  0.5516
55655SOL     OW77278   5.073   0.922   6.281 -0.2581  0.0134  0.3617
55655SOL    HW177279   4.987   0.884   6.296 -0.2784  1.2176  4.6428
55655SOL    HW277280   5.056   1.012   6.254 -0.3189 -0.0252  0.2703
55656SOL     OW77281  12.076  10.896  12.086 -0.0176 -0.2751 -0.0329
55656SOL    HW177282  12.137  10.921  12.016 -2.3844 -2.9274 -3.3901
55656SOL    HW277283  11.991  10.927  12.055 -1.3782 -2.8059  0.8884
55657SOL     OW77284   7.184   2.653   3.821  0.1542  0.2165  0.2198
55657SOL    HW177285   7.183   2.736   3.869  0.6865  0.5272 -0.3062
55657SOL    HW277286   7.255   2.603   3.862  2.7254  1.6532 -2.1673
55658SOL     OW77287   9.933   0.897  12.307  0.1176  0.3331 -0.0558
55658SOL    HW177288   9.872   0.933  12.372 -0.1136  0.6630 -0.4458
55658SOL    HW277289   9.998   0.850  12.358 -0.7951 -0.5401  0.3405
55659SOL     OW77290  11.281   6.284   3.621  0.4522 -0.2642 -0.5880
55659SOL    HW177291  11.350   6.246   3.675 -1.2569  0.0048  1.9744
55659SOL    HW277292  11.321   6.362   3.583  1.3696  0.4416  1.6136
55660SOL     OW77293   1.966   2.221   5.521  0.0426  0.4967  0.7921
55660SOL    HW177294   1.911   2.287   5.564 -0.8050 -0.1296  0.6724
55660SOL    HW277295   1.950   2.234   5.428 -0.4435 -0.1419  0.7820
55661SOL     OW77296   2.629   4.668   2.578 -0.6434 -0.2562 -0.2094
55661SOL    HW177297   2.590   4.740   2.627 -0.6371 -1.2302  1.2987
55661SOL    HW277298   2.567   4.650   2.507 -0.3925  1.5358 -0.9378
55662SOL     OW77299   3.112   7.361   0.398  0.3551 -0.0749 -0.3401
55662SOL    HW177300   3.086   7.443   0.440 -2.3211 -1.1836  0.4067
55662SOL    HW277301   3.127   7.300   0.470  1.1913 -0.5591 -0.9058
55663SOL     OW77302   1.559   5.384   1.700 -0.3121  0.1298 -0.2377
55663SOL    HW177303   1.638   5.410   1.747  1.6062 -2.9314 -1.4671
55663SOL    HW277304   1.549   5.449   1.631  2.8792 -0.8767 -1.8020
55664SOL     OW77305   0.799   7.686   1.824  0.0123  0.2537  0.6291
55664SOL    HW177306   0.840   7.707   1.908  0.3907 -2.3820  1.1819
55664SOL    HW277307   0.736   7.616   1.844 -2.0621  1.5771 -0.8372
55665SOL     OW77308   5.675  12.719   4.133 -0.8373 -0.2971 -0.5310
55665SOL    HW177309   5.636  12.715   4.045 -0.5341 -1.1338 -0.6366
55665SOL    HW277310   5.654  12.635   4.172 -0.4120 -0.1749 -0.0328
55666SOL     OW77311   8.821   8.446  12.869 -0.1289  0.3297  0.2290
55666SOL    HW177312   8.760   8.449  12.943 -0.3195  2.2504  0.0364
55666SOL    HW277313   8.779   8.388  12.805  0.9555 -3.0609  2.3155
55667SOL     OW77314   1.451  10.606   2.019  0.0874 -0.1719 -0.0867
55667SOL    HW177315   1.504  10.683   2.040  0.0367  0.0177 -0.6403
55667SOL    HW277316   1.361  10.633   2.041  0.1357 -0.2566  0.2136
55668SOL     OW77317   1.424   9.050   7.254 -0.6526 -0.2523 -0.4729
55668SOL    HW177318   1.412   8.965   7.212 -0.1728 -0.1836 -0.7514
55668SOL    HW277319   1.466   9.105   7.188  0.2094 -0.1732  0.1214
55669SOL     OW77320   0.682   4.181   8.282 -0.3000  0.6511 -0.0839
55669SOL    HW177321   0.683   4.091   8.315 -1.8149 -0.2631 -2.3252
55669SOL    HW277322   0.601   4.219   8.316 -1.0591  0.2253 -1.3591
55670SOL     OW77323   3.477   0.655  12.861 -0.0974  0.4480  0.3568
55670SOL    HW177324   3.499   0.733  12.911 -1.6698  1.5959 -0.6719
55670SOL    HW277325   3.502   0.676  12.771 -0.4519 -0.2663  0.0805
55671SOL     OW77326   3.850  10.352   0.242  0.4627 -0.0290  0.0405
55671SOL    HW177327   3.755  10.358   0.239  0.4780  0.4041  0.3093
55671SOL    HW277328   3.872  10.359   0.335  0.7067 -1.0605  0.0802
55672SOL     OW77329   6.038  11.847   8.268 -0.0770 -0.0510  0.0085
55672SOL    HW177330   6.074  11.919   8.320  0.3139  0.4937 -0.9944
55672SOL    HW277331   6.013  11.781   8.333  0.2134  0.6891  0.8965
55673SOL     OW77332   6.843   2.462   0.407 -0.3519 -0.0676  0.0148
55673SOL    HW177333   6.851   2.526   0.337 -0.4758 -0.0638  0.0028
55673SOL    HW277334   6.753   2.428   0.398 -0.0716 -0.7159 -0.3910
55674SOL     OW77335   9.164  10.319   7.733 -0.0234  0.3187  0.3271
55674SOL    HW177336   9.075  10.351   7.743 -0.3264 -0.4118  0.0239
55674SOL    HW277337   9.194  10.356   7.650 -0.5470 -0.5525 -0.2681
55675SOL     OW77338  11.526   0.770   1.549 -0.5727  0.0272 -0.0011
55675SOL    HW177339  11.540   0.775   1.455  0.7401 -1.4627  0.0652
55675SOL    HW277340  11.452   0.710   1.559 -0.4254 -0.1700 -0.0828
55676SOL     OW77341   0.045  10.867   6.333 -0.1117  0.3271  0.1770
55676SOL    HW177342   0.114  10.805   6.355 -1.7547 -1.5423  0.2666
55676SOL    HW277343   0.092  10.948   6.313  2.1548 -1.0874 -0.5905
55677SOL     OW77344   4.253  11.532   1.167  0.2187  0.5831  0.2700
55677SOL    HW177345   4.247  11.459   1.229  0.4454  0.3930  0.0740
55677SOL    HW277346   4.243  11.610   1.220  2.9853  0.5602  0.9957
55678SOL     OW77347   1.080  12.662   4.111  0.4759 -0.0278 -0.1634
55678SOL    HW177348   1.051  12.586   4.061  0.4839 -0.1296 -0.0136
55678SOL    HW277349   1.143  12.627   4.174  1.6689  0.3346 -1.1291
55679SOL     OW77350   3.340   1.431   0.598 -0.1185  0.5313  0.6852
55679SOL    HW177351   3.327   1.337   0.612 -1.0942  0.8880  2.6532
55679SOL    HW277352   3.434   1.444   0.610  0.4406 -0.4618 -1.9411
55680SOL     OW77353   2.345  11.396  11.215  0.0760  0.0558  0.7153
55680SOL    HW177354   2.300  11.436  11.140  0.6922 -1.9124 -0.7947
55680SOL    HW277355   2.274  11.356  11.266 -0.1977 -0.2552  0.1073
55681SOL     OW77356  12.597   3.792  10.275  0.4046  0.8513 -0.4888
55681SOL    HW177357  12.680   3.744  10.278  0.8874  1.6325 -1.0180
55681SOL    HW277358  12.594   3.829  10.187  0.4572  2.4929  0.1626
55682SOL     OW77359   1.037  12.583   2.352  0.2041  0.3562 -0.2160
55682SOL    HW177360   1.103  12.644   2.386 -0.1967  0.8200 -0.2542
55682SOL    HW277361   0.981  12.637   2.297 -1.7744  0.5674  1.8476
55683SOL     OW77362   8.868   2.417   2.412 -0.5772 -0.2084  0.0644
55683SOL    HW177363   8.925   2.483   2.372 -0.3375 -0.0743  0.6092
55683SOL    HW277364   8.923   2.376   2.479 -1.6291  1.1437  1.8376
55684SOL     OW77365  11.693   3.720   1.159  0.3769  0.1442 -0.2327
55684SOL    HW177366  11.714   3.800   1.207  0.9750 -0.7950  1.1310
55684SOL    HW277367  11.603   3.701   1.184  0.1020  0.5926 -0.8665
55685SOL     OW77368   2.392  12.505   3.014  0.0927  0.4675 -0.0325
55685SOL    HW177369   2.482  12.501   2.981  0.3256  0.3599  0.5974
55685SOL    HW277370   2.343  12.450   2.954 -0.1127  2.6923 -2.0509
55686SOL     OW77371  11.374   4.852   7.907  0.4186 -0.0602 -0.7278
55686SOL    HW177372  11.350   4.873   7.816  1.2553  0.7349 -0.7774
55686SOL    HW277373  11.319   4.777   7.929 -0.3556  0.2195 -1.6338
55687SOL     OW77374   5.607   6.801   7.505  0.2854  0.1275  0.1863
55687SOL    HW177375   5.694   6.837   7.489 -0.2764  1.4660  0.0011
55687SOL    HW277376   5.583   6.835   7.591  0.3217 -1.0244  0.6644
55688SOL     OW77377   1.479   3.015   3.730 -0.6650 -0.1075 -1.0409
55688SOL    HW177378   1.428   3.093   3.712  0.1827  0.8059  0.3284
55688SOL    HW277379   1.530   3.001   3.651 -0.6166  0.9086 -1.2040
55689SOL     OW77380   9.716  11.598  10.783 -0.3188 -0.1576  0.6121
55689SOL    HW177381   9.633  11.576  10.740 -0.0178  0.2182 -0.1849
55689SOL    HW277382   9.692  11.658  10.853 -0.8145 -0.7415  0.9565
55690SOL     OW77383   6.622   2.612   9.541  0.1470  0.3517  0.1602
55690SOL    HW177384   6.621   2.706   9.560 -0.2980  0.2619  0.6186
55690SOL    HW277385   6.606   2.606   9.447  0.1348  0.7369  0.1367
55691SOL     OW77386   2.375  10.789  12.910 -0.2313 -0.4132  0.1982
55691SOL    HW177387   2.438  10.732  12.866 -1.3066 -0.9402 -0.6977
55691SOL    HW277388   2.428  10.863  12.941  1.1748 -1.8365  1.3343
55692SOL     OW77389   3.280  11.232   6.001  0.0884 -0.3076  0.0750
55692SOL    HW177390   3.354  11.287   6.027 -0.1190 -0.8507  1.9897
55692SOL    HW277391   3.218  11.293   5.962  1.2101  0.2787 -0.8582
55693SOL     OW77392   0.217   0.256   7.938 -0.0764 -0.0314 -0.2582
55693SOL    HW177393   0.277   0.314   7.892  0.7962 -1.3740 -0.8751
55693SOL    HW277394   0.274   0.208   7.999 -0.3947 -1.7345 -1.2573
55694SOL     OW77395   8.167   5.090   1.483  0.1130 -0.8842  0.4219
55694SOL    HW177396   8.214   5.009   1.460  0.2092 -1.2450  1.7805
55694SOL    HW277397   8.177   5.096   1.578  0.6695  1.0945  0.2646
55695SOL     OW77398  12.964   9.203   0.530 -0.0423 -0.0066 -0.3537
55695SOL    HW177399  12.898   9.251   0.480 -0.2305  0.0485 -0.0507
55695SOL    HW277400  12.933   9.206   0.620 -1.0915 -2.3872 -0.5597
55696SOL     OW77401   9.629  12.167   4.226 -0.1239 -0.0435 -0.1338
55696SOL    HW177402   9.583  12.246   4.254  1.2897  0.3564  1.2044
55696SOL    HW277403   9.684  12.144   4.300  0.3931 -1.5994 -0.9667
55697SOL     OW77404   7.355   5.490   5.436 -0.0433 -0.3168  0.5325
55697SOL    HW177405   7.319   5.553   5.498  1.4627  0.6938  0.4520
55697SOL    HW277406   7.425   5.446   5.484  1.4650  0.8106 -0.5110
55698SOL     OW77407   7.843   3.955   7.888 -0.0644  0.0236  0.4467
55698SOL    HW177408   7.893   3.970   7.968 -1.3274 -0.9774  1.4501
55698SOL    HW277409   7.776   3.892   7.912 -1.5383  0.9613 -0.9730
55699SOL     OW77410  11.194  10.969   9.990  0.3134 -0.5112  0.4646
55699SOL    HW177411  11.266  11.004  10.042 -0.4843  0.8982  0.6627
55699SOL    HW277412  11.120  11.027  10.008 -0.3610 -0.7869 -1.1952
55700SOL     OW77413  10.188   8.307   9.906  0.0832 -0.4688 -0.5074
55700SOL    HW177414  10.181   8.247   9.832  2.2694 -0.7433 -0.5485
55700SOL    HW277415  10.117   8.281   9.965  0.8981 -3.0750 -0.5611
55701SOL     OW77416   2.780   1.621  10.908 -0.1825 -0.4855  0.4228
55701SOL    HW177417   2.804   1.691  10.968 -1.5727 -1.1426  1.8122
55701SOL    HW277418   2.715   1.570  10.955  1.2610 -3.1333 -0.2502
55702SOL     OW77419   8.528   4.245   7.801 -0.2254  0.5846  1.0064
55702SOL    HW177420   8.587   4.316   7.826 -0.2198  2.3111 -3.0914
55702SOL    HW277421   8.445   4.289   7.782 -0.9471 -0.8752  0.6657
55703SOL     OW77422   8.154   2.056   2.846 -0.7814 -0.2934 -0.5318
55703SOL    HW177423   8.200   2.139   2.835 -2.0273  0.5277  0.2554
55703SOL    HW277424   8.063   2.076   2.828 -1.2586 -1.2599  0.6607
55704SOL     OW77425   2.367   9.816  11.838  0.6206 -0.0219 -0.4862
55704SOL    HW177426   2.271   9.814  11.831  0.4789  2.2325  0.0217
55704SOL    HW277427   2.385   9.777  11.924 -0.0811  1.5901  0.4631
55705SOL     OW77428   2.849   2.625   6.157  0.3163  0.0648 -0.4488
55705SOL    HW177429   2.868   2.633   6.251  1.4282 -0.6299 -0.5975
55705SOL    HW277430   2.917   2.676   6.114 -0.6139  0.9788 -0.8740
55706SOL     OW77431   2.250   4.431   0.333 -0.3711 -0.2233  0.2744
55706SOL    HW177432   2.190   4.481   0.387  0.4497 -0.0689  1.0679
55706SOL    HW277433   2.336   4.442   0.375  0.0024 -1.4593 -0.1108
55707SOL     OW77434   8.810   9.496   3.064  0.2395  0.6774  0.1765
55707SOL    HW177435   8.718   9.499   3.091  0.2637  0.7963  0.2456
55707SOL    HW277436   8.860   9.497   3.146  0.3098  0.9162  0.1319
55708SOL     OW77437   6.148   1.279   3.123  0.4034 -0.7596 -0.3634
55708SOL    HW177438   6.108   1.333   3.055  1.4643  0.9200  0.2809
55708SOL    HW277439   6.159   1.193   3.082 -0.2272 -0.1645 -1.8471
55709SOL     OW77440   5.502   8.559   4.850 -0.8187  0.0868 -0.2497
55709SOL    HW177441   5.569   8.606   4.901  0.4021  0.1546 -1.8432
55709SOL    HW277442   5.424   8.614   4.856  0.0269  1.3612 -0.4979
55710SOL     OW77443  12.044   8.988   0.181 -0.2377 -0.4294  0.4708
55710SOL    HW177444  12.128   9.018   0.215 -0.1041 -1.1067  0.7559
55710SOL    HW277445  12.052   8.995   0.086 -0.3862  0.8749  0.5365
55711SOL     OW77446   0.080   7.455  10.560  0.4233 -0.4709 -0.0009
55711SOL    HW177447   0.031   7.393  10.614 -0.9022  0.1049 -0.4925
55711SOL    HW277448   0.069   7.423  10.470 -2.7214  1.8850 -0.6514
55712SOL     OW77449   9.974  11.283   4.666 -0.1605 -0.0223 -0.2339
55712SOL    HW177450   9.911  11.302   4.736 -0.6701 -0.8094 -0.4645
55712SOL    HW277451   9.936  11.209   4.620  0.2360  0.3997 -1.2694
55713SOL     OW77452  12.881   9.189   5.827  0.0456 -0.3208 -0.2348
55713SOL    HW177453  12.882   9.220   5.737  0.6452 -0.2557 -0.2060
55713SOL    HW277454  12.813   9.242   5.870 -2.9074 -2.7736 -1.4812
55714SOL     OW77455   3.007  11.262   1.083  0.0022  0.2300  0.3968
55714SOL    HW177456   3.019  11.253   1.178 -0.2192  0.5308  0.4546
55714SOL    HW277457   3.084  11.312   1.054  0.7382 -0.9636  0.2182
55715SOL     OW77458   6.585   6.221   3.291 -0.5843  0.4159 -0.2552
55715SOL    HW177459   6.510   6.228   3.349 -0.0289  0.0578  0.5297
55715SOL    HW277460   6.641   6.155   3.331  0.0303  0.4850 -0.9585
55716SOL     OW77461   2.486  12.843  10.367  0.1377 -0.0120 -0.2055
55716SOL    HW177462   2.509  12.835  10.274  1.7307  1.0128  0.0679
55716SOL    HW277463   2.433  12.922  10.372  0.9317  0.5272 -0.1138
55717SOL     OW77464  12.614   1.143   5.098  0.4674  0.0385  0.7091
55717SOL    HW177465  12.520   1.144   5.115  0.3281 -0.3116 -0.0052
55717SOL    HW277466  12.622   1.102   5.012  1.0054  2.9657 -0.7659
55718SOL     OW77467   9.698   2.587   4.010 -0.3020  0.2354 -0.0213
55718SOL    HW177468   9.625   2.648   4.020  1.0203  1.9001 -0.0719
55718SOL    HW277469   9.734   2.606   3.923  0.7298  0.0880  0.3548
55719SOL     OW77470  11.091   6.548   2.696 -0.1593  0.1360  0.4570
55719SOL    HW177471  11.143   6.475   2.661  0.0169  0.4400  0.0797
55719SOL    HW277472  11.119   6.556   2.787  0.4500  0.2881  0.2610
55720SOL     OW77473  10.457  11.612   7.885  0.0683 -0.1118 -0.2253
55720SOL    HW177474  10.376  11.640   7.841  0.7373  0.8036 -0.8990
55720SOL    HW277475  10.426  11.563   7.962 -1.1290 -1.2005 -1.3446
55721SOL     OW77476   8.117   9.433   7.163  0.2236 -0.1941  0.0835
55721SOL    HW177477   8.048   9.448   7.099  0.8798 -0.5203 -0.7097
55721SOL    HW277478   8.177   9.372   7.121 -0.7522 -2.6766  2.0307
55722SOL     OW77479   9.566   4.710   2.019 -0.0208 -0.3818 -0.1838
55722SOL    HW177480   9.508   4.712   1.943 -0.5283 -0.3074  0.1975
55722SOL    HW277481   9.626   4.783   2.006 -0.6747  0.1849 -0.0779
55723SOL     OW77482   8.314  11.986   2.286  0.0316 -0.1492  0.0426
55723SOL    HW177483   8.277  11.985   2.198 -0.9054  0.1661  0.4161
55723SOL    HW277484   8.238  11.982   2.344  0.5691  0.6568  0.8433
55724SOL     OW77485   6.967   3.425   2.657 -0.1771  0.1963 -0.2623
55724SOL    HW177486   6.952   3.503   2.604  0.0728  0.5382  0.1617
55724SOL    HW277487   7.055   3.395   2.633  0.8419  1.5971  1.4780
55725SOL     OW77488  10.486   7.606   2.874 -0.2483 -0.4201 -0.1303
55725SOL    HW177489  10.465   7.513   2.866 -1.0982 -0.2640  0.1318
55725SOL    HW277490  10.401   7.649   2.873  0.1966  0.4856 -1.7284
55726SOL     OW77491   9.727  10.527  10.805  0.0903  0.1588 -0.1591
55726SOL    HW177492   9.701  10.482  10.886  1.2389 -0.7632 -0.2824
55726SOL    HW277493   9.735  10.458  10.740  0.4773  0.7331 -0.7329
55727SOL     OW77494   0.712   5.658   1.271  0.1344 -0.5500  0.0682
55727SOL    HW177495   0.689   5.750   1.285 -0.4957 -0.6463 -0.2894
55727SOL    HW277496   0.807   5.656   1.275  0.0946 -0.3017  2.6452
55728SOL     OW77497   7.219  10.984   9.012 -0.1507 -0.7108  0.1545
55728SOL    HW177498   7.170  11.052   9.057 -0.7989 -0.6655 -0.5952
55728SOL    HW277499   7.292  10.964   9.070 -0.8608 -0.5363  1.1308
55729SOL     OW77500   6.556  11.360   3.412 -0.0410  0.2364 -0.9352
55729SOL    HW177501   6.620  11.349   3.483  0.2312 -0.1474 -1.2389
55729SOL    HW277502   6.551  11.274   3.371  0.8606  0.8006 -2.2849
55730SOL     OW77503   6.251   6.927  10.187 -0.7632  0.5985  0.0325
55730SOL    HW177504   6.177   6.935  10.127  0.2501 -0.4012 -1.4335
55730SOL    HW277505   6.263   6.833  10.197  0.9365  0.7227 -0.6017
55731SOL     OW77506   6.324   7.573   9.993  0.1919 -0.3584  0.3136
55731SOL    HW177507   6.341   7.640  10.059 -1.1835  0.1008  0.2470
55731SOL    HW277508   6.409   7.558   9.951  0.5870  1.1645  0.5120
55732SOL     OW77509  11.562   3.290   5.931  0.5087 -0.4287 -0.1193
55732SOL    HW177510  11.657   3.283   5.940  0.4740  0.1236  0.8423
55732SOL    HW277511  11.545   3.384   5.928 -0.1138 -0.4870  1.1452
55733SOL     OW77512   0.002   8.046   1.957  0.8428 -0.3711  0.1431
55733SOL    HW177513  -0.072   8.023   1.900  0.2709  2.7662 -0.5593
55733SOL    HW277514  -0.002   7.983   2.029 -3.1801  0.2413  0.6738
55734SOL     OW77515   8.759   3.894   7.807 -0.5341  0.1853 -0.4272
55734SOL    HW177516   8.804   3.957   7.751 -1.1091  0.4925 -0.5573
55734SOL    HW277517   8.710   3.948   7.869 -0.5631 -0.1417 -0.1631
55735SOL     OW77518   5.784   0.311  11.175  0.2356 -0.1285  0.3315
55735SOL    HW177519   5.825   0.267  11.101 -0.6519 -0.1705 -0.1429
55735SOL    HW277520   5.706   0.258  11.194  0.3786 -0.0371  1.2032
55736SOL     OW77521   7.244   0.790   4.773 -0.0315  0.1698 -0.5792
55736SOL    HW177522   7.331   0.801   4.735  0.1227 -0.0917 -0.3030
55736SOL    HW277523   7.189   0.853   4.726  0.3939  0.6402 -0.4565
55737SOL     OW77524   4.973   7.719   2.878  0.6636  0.6103 -0.3001
55737SOL    HW177525   4.948   7.787   2.815 -0.3189 -1.1656 -1.9233
55737SOL    HW277526   5.026   7.658   2.828  0.4962 -0.4746  0.8018
55738SOL     OW77527   4.755   1.633  10.897 -0.3681 -0.1064  0.2845
55738SOL    HW177528   4.702   1.640  10.818 -0.4804 -1.2023  0.2472
55738SOL    HW277529   4.841   1.668  10.872 -0.4038 -0.4488 -0.3190
55739SOL     OW77530   1.024   0.530   0.431 -0.1224  0.0292  0.2389
55739SOL    HW177531   0.985   0.563   0.512 -0.1512 -0.2591  0.3428
55739SOL    HW277532   1.108   0.575   0.425 -0.4015  0.5475  0.0856
55740SOL     OW77533   3.925  10.795   0.259  0.7213  0.3715 -0.8718
55740SOL    HW177534   3.923  10.709   0.302 -0.2480  0.2766 -1.0867
55740SOL    HW277535   3.856  10.790   0.193 -1.7810  2.4292  1.3225
55741SOL     OW77536   7.845   0.854   9.734 -0.2184 -0.9196  0.0365
55741SOL    HW177537   7.854   0.786   9.667 -3.0539 -0.6936 -0.7149
55741SOL    HW277538   7.812   0.808   9.811 -1.4215 -0.5427 -0.2346
55742SOL     OW77539   9.389  12.632   9.366 -0.3746 -0.2380 -0.5582
55742SOL    HW177540   9.371  12.549   9.321 -1.8616 -0.3063  0.1000
55742SOL    HW277541   9.480  12.625   9.394 -0.2616 -1.3503 -1.1528
55743SOL     OW77542  10.409  12.146   7.995  0.2059 -0.2366 -0.5387
55743SOL    HW177543  10.431  12.238   7.981 -0.1074 -0.3910 -2.2013
55743SOL    HW277544  10.438  12.102   7.915 -1.9871 -1.1631 -0.8817
55744SOL     OW77545  12.130   7.821   7.925 -0.3153  0.1550  0.4022
55744SOL    HW177546  12.099   7.808   7.835 -0.5654  0.8030  0.3935
55744SOL    HW277547  12.140   7.732   7.959 -2.3617 -0.0988  0.4573
55745SOL     OW77548   6.755   1.667  12.586  0.0514 -0.0332 -0.0452
55745SOL    HW177549   6.805   1.748  12.575  0.0925  0.3179  2.2615
55745SOL    HW277550   6.664   1.695  12.589  0.0390 -0.1014  0.3307
55746SOL     OW77551   3.729   1.814   3.407  0.1239  0.1317 -0.2356
55746SOL    HW177552   3.760   1.863   3.483 -1.0745  1.1515 -0.3571
55746SOL    HW277553   3.666   1.874   3.365 -3.3553 -2.3699  0.9600
55747SOL     OW77554   0.957   5.263   0.744  0.1735 -0.1859  0.2662
55747SOL    HW177555   0.918   5.231   0.662  1.4082 -2.5400  0.4996
55747SOL    HW277556   0.890   5.245   0.810  0.2092 -0.8072  0.1453
55748SOL     OW77557   4.784   3.983   5.887  0.3239 -0.3582 -0.3455
55748SOL    HW177558   4.714   3.972   5.952  1.0278 -2.4967  0.1303
55748SOL    HW277559   4.803   4.077   5.887 -1.2629 -0.0000  0.8620
55749SOL     OW77560   3.258   1.285  12.182 -0.4341 -0.2531 -0.5691
55749SOL    HW177561   3.333   1.225  12.186 -1.1606 -1.2822 -1.7982
55749SOL    HW277562   3.256   1.326  12.268 -0.2207 -2.3683  0.5018
55750SOL     OW77563   5.285  12.411   6.871  0.4711  0.0388  0.4271
55750SOL    HW177564   5.200  12.433   6.909  0.6282 -1.5462  1.8685
55750SOL    HW277565   5.265  12.374   6.785  0.0835  3.5004 -1.1013
55751SOL     OW77566   1.515  12.143   1.743  0.8153  0.2467 -0.3054
55751SOL    HW177567   1.538  12.051   1.727  0.8089  0.2893 -0.5574
55751SOL    HW277568   1.582  12.193   1.699  0.0395  0.3741 -1.3698
55752SOL     OW77569  12.218   6.038   5.091 -0.1333  0.3489  0.2004
55752SOL    HW177570  12.243   6.104   5.026  1.6238  0.5107  1.0052
55752SOL    HW277571  12.202   6.088   5.171 -0.8403 -0.0109  0.2971
55753SOL     OW77572   2.743   0.471  12.213  0.1954 -0.3095  0.4676
55753SOL    HW177573   2.799   0.546  12.193 -0.7482  0.9058  2.1378
55753SOL    HW277574   2.791   0.421  12.279  1.2762 -1.8310 -1.3366
55754SOL     OW77575   1.755  11.892   1.271 -0.1510 -0.0963  0.0521
55754SOL    HW177576   1.824  11.921   1.331 -0.7489  1.3214  0.0750
55754SOL    HW277577   1.794  11.901   1.184  0.5094 -1.5919  0.1661
55755SOL     OW77578  10.995   8.638   2.119  0.4285 -0.3739 -0.9197
55755SOL    HW177579  10.912   8.682   2.136  0.3005 -1.1106  0.4800
55755SOL    HW277580  11.061   8.702   2.146  0.2930 -0.1971 -1.0072
55756SOL     OW77581   6.666   1.503  10.368 -0.0585 -0.2574  0.6834
55756SOL    HW177582   6.579   1.480  10.337  0.0651  0.4978 -0.2572
55756SOL    HW277583   6.681   1.445  10.443 -0.8665 -1.2407  0.0975
55757SOL     OW77584   2.793  11.048   1.919 -0.3069 -0.5761  0.3803
55757SOL    HW177585   2.707  11.007   1.909 -0.5656 -0.3536  1.5551
55757SOL    HW277586   2.854  10.974   1.927 -0.3009 -0.7432 -0.8731
55758SOL     OW77587   4.155   7.448   1.153 -0.3461  0.0521 -0.3811
55758SOL    HW177588   4.170   7.465   1.246 -2.1429 -1.6786  0.2733
55758SOL    HW277589   4.221   7.382   1.130  0.4309  0.8444 -0.5152
55759SOL     OW77590  11.743   9.790   4.696  0.4318 -0.3068  0.4249
55759SOL    HW177591  11.764   9.848   4.623  0.3745 -2.4407 -1.3833
55759SOL    HW277592  11.648   9.778   4.691  0.2351  0.5687  1.6999
55760SOL     OW77593  12.403   6.231   2.176  0.3403 -0.4988 -0.1129
55760SOL    HW177594  12.357   6.216   2.259  0.5476  1.2409  0.3481
55760SOL    HW277595  12.494   6.247   2.203  0.6024 -0.8724 -0.7662
55761SOL     OW77596   4.587   9.469   6.887 -0.1129 -0.3884 -0.8084
55761SOL    HW177597   4.588   9.535   6.818 -1.0724  0.8281  0.2979
55761SOL    HW277598   4.663   9.489   6.941 -0.4472 -0.1474 -0.4282
55762SOL     OW77599   6.642   4.543   3.415  0.6357  0.0084  0.2307
55762SOL    HW177600   6.717   4.594   3.384  0.3170 -0.5627 -1.6624
55762SOL    HW277601   6.602   4.508   3.334 -2.6288  1.5922  0.9796
55763SOL     OW77602  11.910   4.687   1.236 -0.6464  0.2798  0.9757
55763SOL    HW177603  11.849   4.753   1.269 -0.3815  1.4143 -0.6586
55763SOL    HW277604  11.996   4.729   1.245 -0.5830  0.7537 -1.2675
55764SOL     OW77605   1.372  10.734  12.070  0.6148 -0.3463  0.2033
55764SOL    HW177606   1.300  10.797  12.061  0.3168 -0.8066 -0.7748
55764SOL    HW277607   1.328  10.652  12.092  1.0552 -0.0908  2.1994
55765SOL     OW77608   3.371   1.312   7.569  0.0184  0.1633 -0.1463
55765SOL    HW177609   3.434   1.247   7.538  1.4763  1.0945  0.7234
55765SOL    HW277610   3.373   1.381   7.503  0.8468  0.7457  0.4638
55766SOL     OW77611   1.853   9.041   0.353 -0.0274  0.2050  0.2362
55766SOL    HW177612   1.888   9.116   0.401  1.2379 -0.5954  0.6082
55766SOL    HW277613   1.776   9.014   0.403  0.3349  0.3912  0.9070
55767SOL     OW77614   3.014   2.616   6.694 -0.2012 -0.4423  0.2891
55767SOL    HW177615   3.093   2.670   6.687 -0.1843 -0.4656  0.3002
55767SOL    HW277616   3.017   2.580   6.783  1.0208 -2.3691 -0.4780
55768SOL     OW77617   2.809   7.186   5.233 -0.2689 -0.0484  0.0247
55768SOL    HW177618   2.777   7.275   5.217  0.2802 -0.0959 -1.4541
55768SOL    HW277619   2.864   7.166   5.158  0.6813 -1.1636  0.9763
55769SOL     OW77620   7.268   4.533   3.085  0.4692  0.1157 -0.1525
55769SOL    HW177621   7.327   4.607   3.100 -0.5608  1.5661 -2.6460
55769SOL    HW277622   7.210   4.563   3.015  0.4146 -3.2735 -1.7407
55770SOL     OW77623   3.132   3.014   6.226 -0.2762 -0.7223 -0.1665
55770SOL    HW177624   3.199   3.000   6.159 -0.0648 -1.7306  0.2367
55770SOL    HW277625   3.167   2.970   6.304 -0.2070  0.9858  0.8213
55771SOL     OW77626   6.833   4.133   1.363  0.3358 -0.0986  0.0482
55771SOL    HW177627   6.762   4.075   1.391 -0.8404  0.7227 -1.0869
55771SOL    HW277628   6.810   4.218   1.400 -0.0415  0.4816 -1.4420
55772SOL     OW77629  11.737   4.844   7.727 -0.1351 -0.2621 -0.4977
55772SOL    HW177630  11.793   4.907   7.772  1.7451 -1.9995 -0.2763
55772SOL    HW277631  11.670   4.822   7.791  0.3617  0.0280  0.1294
55773SOL     OW77632   1.085   6.533  12.253  0.3281 -0.2697  0.3263
55773SOL    HW177633   1.033   6.550  12.175  0.4823 -0.3275  0.2112
55773SOL    HW277634   1.041   6.582  12.323  1.3208  1.3879 -0.1847
55774SOL     OW77635   4.943  11.997   9.984  0.4135 -0.4026 -0.3744
55774SOL    HW177636   4.901  11.920  10.023 -1.9612  1.3262  0.7636
55774SOL    HW277637   4.910  12.000   9.895 -0.2411 -0.2203 -0.1332
55775SOL     OW77638   4.529   3.929   2.580  0.0489  0.0600 -0.6930
55775SOL    HW177639   4.614   3.884   2.575  0.6717  0.9975  0.7069
55775SOL    HW277640   4.512   3.958   2.490  1.3025  0.0089 -0.9658
55776SOL     OW77641   7.638  10.366   2.025  0.2552  0.2071  0.3296
55776SOL    HW177642   7.648  10.350   2.119 -1.5746  0.3999  0.6085
55776SOL    HW277643   7.708  10.316   1.984  0.8329 -0.2216  1.7733
55777SOL     OW77644   2.598  10.369  12.489  0.6926 -0.0062 -0.4837
55777SOL    HW177645   2.594  10.463  12.475 -1.2545 -0.0309 -0.4170
55777SOL    HW277646   2.678  10.355  12.540 -0.3578  1.9339  1.8905
55778SOL     OW77647  12.082   4.212   2.677  0.4938  0.6374 -0.4980
55778SOL    HW177648  12.097   4.147   2.608  0.9795  1.4819 -1.2216
55778SOL    HW277649  12.054   4.161   2.753  1.5433 -0.4865 -0.8314
55779SOL     OW77650   5.353   2.548  12.558  0.5485  0.1883 -0.4521
55779SOL    HW177651   5.383   2.505  12.638  0.7113  1.8830  0.4618
55779SOL    HW277652   5.432   2.585  12.519  0.5226 -0.9492 -1.6372
55780SOL     OW77653   3.090   1.897   5.148 -0.1244 -0.7147  0.1968
55780SOL    HW177654   3.066   1.895   5.056 -1.6418  0.7869  0.5028
55780SOL    HW277655   3.159   1.832   5.157  2.0651  1.0358 -2.5465
55781SOL     OW77656   5.656   4.804   8.211 -0.1033  0.3666 -0.1882
55781SOL    HW177657   5.749   4.816   8.231 -0.7234  0.3506  3.3393
55781SOL    HW277658   5.611   4.865   8.270 -2.3976 -0.7585 -0.6707
55782SOL     OW77659   7.491  12.254   2.059  0.1172  0.3136 -0.5593
55782SOL    HW177660   7.473  12.340   2.097  0.4323 -0.5816  1.7918
55782SOL    HW277661   7.409  12.227   2.018 -0.2298  1.3631 -0.5783
55783SOL     OW77662   2.441  12.134   0.853 -0.4831  0.0091  0.6751
55783SOL    HW177663   2.405  12.143   0.764  0.4637 -1.4660  0.1120
55783SOL    HW277664   2.511  12.199   0.857 -2.7275  2.5389  1.6006
55784SOL     OW77665   7.373  11.522   0.269  0.1327  0.1823  0.2008
55784SOL    HW177666   7.312  11.581   0.225  0.6505  0.2867 -0.4007
55784SOL    HW277667   7.460  11.553   0.241  0.3991 -1.9293 -1.5666
55785SOL     OW77668   9.050   4.652   5.218 -0.1209  0.5783  0.5046
55785SOL    HW177669   9.042   4.743   5.189 -1.2464  0.3616  0.0908
55785SOL    HW277670   9.143   4.631   5.206  0.1454  1.6472  0.5612
55786SOL     OW77671   1.367   8.763   2.253  0.0508 -0.3988 -0.3723
55786SOL    HW177672   1.301   8.832   2.246  2.1904  2.0889  2.0680
55786SOL    HW277673   1.428   8.781   2.181  1.0964  0.9059  0.7999
55787SOL     OW77674   8.277  11.421   5.711 -0.2750 -0.2829  0.5647
55787SOL    HW177675   8.217  11.352   5.683  0.5040 -0.8438  0.2504
55787SOL    HW277676   8.285  11.478   5.634 -0.2723 -0.3040  0.5494
55788SOL     OW77677   1.493  10.897   8.334 -0.2943 -0.0833 -0.4502
55788SOL    HW177678   1.520  10.911   8.243 -0.8802  0.3356 -0.5627
55788SOL    HW277679   1.416  10.841   8.328 -1.3207  1.2819 -0.3160
55789SOL     OW77680  11.201   7.022   3.804 -0.4754  0.0952 -0.2640
55789SOL    HW177681  11.164   6.989   3.722 -1.0540  1.2729 -0.5055
55789SOL    HW277682  11.241   6.946   3.845 -2.4193 -1.0799 -0.4184
55790SOL     OW77683   0.876   2.274   1.380  0.3950  0.0734 -0.0312
55790SOL    HW177684   0.804   2.328   1.346 -1.5006 -1.7917  0.7816
55790SOL    HW277685   0.913   2.326   1.452  0.8356  1.6696 -1.3594
55791SOL     OW77686  10.138   7.385   1.989  0.7038 -0.6083 -0.1620
55791SOL    HW177687  10.071   7.322   2.016  1.3948 -1.5834 -0.6527
55791SOL    HW277688  10.201   7.333   1.939  0.3028  0.8105 -2.2674
55792SOL     OW77689   9.499   6.200   8.694  0.4376  0.1836 -0.4000
55792SOL    HW177690   9.450   6.185   8.613  0.6339  1.9449 -0.8820
55792SOL    HW277691   9.445   6.159   8.762 -0.6409  0.2433 -1.1887
55793SOL     OW77692   6.952   7.973   7.320 -0.1526  0.0185  0.1529
55793SOL    HW177693   6.974   7.880   7.318 -1.0852 -0.1983 -0.5631
55793SOL    HW277694   6.992   8.009   7.241 -1.0191 -0.0751 -0.3411
55794SOL     OW77695   7.104   4.622   5.024 -0.4027  0.4183  0.6349
55794SOL    HW177696   7.194   4.638   4.996 -1.3032  2.1662 -1.5165
55794SOL    HW277697   7.095   4.673   5.105  0.1123  1.5117  0.0231
55795SOL     OW77698   8.167   6.530   5.350 -0.5694 -0.2183 -0.3593
55795SOL    HW177699   8.179   6.507   5.258  0.2115  0.2063 -0.3684
55795SOL    HW277700   8.094   6.592   5.350 -2.0924 -1.9247 -0.4349
55796SOL     OW77701   0.873   1.217   3.198  0.6179 -0.6591  0.0241
55796SOL    HW177702   0.864   1.201   3.292  1.9137  3.1370  0.9838
55796SOL    HW277703   0.952   1.171   3.173 -0.3073 -2.5987  0.4532
55797SOL     OW77704   6.123   5.543   5.002  0.5147 -0.1951 -0.0429
55797SOL    HW177705   6.079   5.561   5.085 -0.5093  1.7509 -0.9486
55797SOL    HW277706   6.213   5.573   5.016 -0.4100  3.1935 -0.5331
55798SOL     OW77707   8.213   1.056   0.953 -0.6588 -0.1142  0.0158
55798SOL    HW177708   8.159   0.979   0.936 -1.5172 -0.6286  4.0650
55798SOL    HW277709   8.151   1.128   0.959 -0.5522 -0.1232  1.4837
55799SOL     OW77710   9.736   1.727   2.448 -0.1111 -0.2933  0.1389
55799SOL    HW177711   9.732   1.644   2.495 -0.1986 -0.9991 -1.0617
55799SOL    HW277712   9.796   1.781   2.499 -1.7768 -0.2570  2.1731
55800SOL     OW77713  11.098  12.555   8.430  0.7213  0.1062  0.2053
55800SOL    HW177714  11.049  12.476   8.452 -0.6534  0.6044 -0.9482
55800SOL    HW277715  11.190  12.526   8.426  0.4337 -1.0656  1.3663
55801SOL     OW77716  11.235   2.789  10.784 -0.3182 -0.0641 -0.0643
55801SOL    HW177717  11.218   2.741  10.703 -0.8803  1.2382 -0.7661
55801SOL    HW277718  11.179   2.747  10.849 -2.9654  1.2673 -1.2884
55802SOL     OW77719   4.323   5.446   0.584 -0.1558 -0.2797  0.0464
55802SOL    HW177720   4.414   5.457   0.615 -0.5959 -1.3301  1.8842
55802SOL    HW277721   4.323   5.483   0.496  1.7956  0.7589  0.4211
55803SOL     OW77722   3.881  12.134   3.907  0.2105 -0.1597  0.2065
55803SOL    HW177723   3.817  12.109   3.840  1.1704 -0.5527 -0.5902
55803SOL    HW277724   3.889  12.057   3.962  3.5251 -2.0682 -2.5273
55804SOL     OW77725   3.125   6.335   4.797 -0.0148 -0.2339  0.0906
55804SOL    HW177726   3.176   6.286   4.732 -1.3005 -0.7701 -0.5539
55804SOL    HW277727   3.079   6.267   4.847 -1.7310  0.2802 -0.7342
55805SOL     OW77728  10.370   9.226  10.089  0.0615  0.1590 -0.5381
55805SOL    HW177729  10.286   9.184  10.110 -0.0566  0.6016 -0.1001
55805SOL    HW277730  10.347   9.301  10.035  0.2544 -0.2008 -1.1284
55806SOL     OW77731   3.965   6.751  12.411  0.5977  0.3363 -0.2426
55806SOL    HW177732   4.050   6.707  12.420  0.7593  0.8139  0.7661
55806SOL    HW277733   3.987   6.840  12.384  0.3561  0.1995 -0.8971
55807SOL     OW77734   5.275   2.749   3.235 -0.0623  0.3796 -0.1043
55807SOL    HW177735   5.259   2.657   3.255  1.8506 -0.4316 -1.9115
55807SOL    HW277736   5.312   2.785   3.315 -1.3171 -0.2618  0.7902
55808SOL     OW77737   5.557   0.089   2.724 -0.0667  0.3201  0.2470
55808SOL    HW177738   5.590   0.072   2.636  0.2186 -0.6252  0.5256
55808SOL    HW277739   5.632   0.123   2.772 -0.5397  2.1146 -0.2027
55809SOL     OW77740   7.166   9.334  12.807 -0.0696 -0.1168  0.0803
55809SOL    HW177741   7.157   9.421  12.768  0.3068 -0.3008 -0.4346
55809SOL    HW277742   7.106   9.279  12.755 -1.9096  0.2307  1.7302
55810SOL     OW77743  11.233   1.752  12.930 -0.1209 -0.0802 -0.0868
55810SOL    HW177744  11.219   1.658  12.916 -1.3261  0.2836 -1.7219
55810SOL    HW277745  11.165   1.794  12.876  0.3645  1.7297  0.6437
55811SOL     OW77746   4.502  11.694   4.765  0.2157 -0.3870 -0.3631
55811SOL    HW177747   4.448  11.651   4.831  1.0144 -1.4943 -0.3944
55811SOL    HW277748   4.485  11.646   4.685 -0.1198  0.4240 -0.7870
55812SOL     OW77749  12.279  12.223   5.499  0.2266  0.7602  0.6041
55812SOL    HW177750  12.301  12.285   5.569 -0.9620  0.7288  1.0344
55812SOL    HW277751  12.208  12.266   5.451 -0.7126 -0.2995  0.9917
55813SOL     OW77752   7.706   2.474   3.120  0.6814  0.2347 -0.2081
55813SOL    HW177753   7.638   2.508   3.178 -0.1928 -1.2102 -0.3377
55813SOL    HW277754   7.747   2.403   3.170 -0.1743 -1.1178 -1.3703
55814SOL     OW77755  12.323   6.148  10.994  0.3578  0.0329 -0.2243
55814SOL    HW177756  12.256   6.120  11.056  0.0884 -0.8726 -0.9081
55814SOL    HW277757  12.299   6.105  10.912  0.7791  1.1057 -0.9328
55815SOL     OW77758   4.788   1.868  12.665  0.5518 -0.1636 -0.2097
55815SOL    HW177759   4.723   1.832  12.726  1.3676 -1.5910 -0.1520
55815SOL    HW277760   4.853   1.799  12.655  1.8547  1.0798 -0.6087
55816SOL     OW77761   1.579   3.023   8.745  0.7607 -0.0405  0.1323
55816SOL    HW177762   1.568   3.090   8.678  2.9145 -0.5992 -0.8855
55816SOL    HW277763   1.506   2.963   8.733  1.0781 -0.1043 -1.7348
55817SOL     OW77764   5.091   7.160   7.534 -0.1940 -0.4689 -0.1919
55817SOL    HW177765   5.118   7.189   7.621  0.0906 -1.8061  0.1901
55817SOL    HW277766   5.172   7.152   7.484 -0.3376  0.0913 -0.5250
55818SOL     OW77767   0.540   9.847   5.187 -0.1623  0.1594 -0.2258
55818SOL    HW177768   0.616   9.809   5.142 -2.7369 -0.7096 -4.3471
55818SOL    HW277769   0.523   9.787   5.260  1.7241 -0.8701 -0.5622
55819SOL     OW77770   8.714   0.543  11.768  0.3750  0.2980 -0.6129
55819SOL    HW177771   8.765   0.465  11.790 -0.6918  0.1350  1.5693
55819SOL    HW277772   8.658   0.558  11.845 -2.1648  1.0370 -2.4538
55820SOL     OW77773   5.457   6.484   5.617 -0.7508  0.0620 -0.2849
55820SOL    HW177774   5.452   6.396   5.654  0.1681  0.1256  0.0244
55820SOL    HW277775   5.384   6.489   5.555 -1.7489 -0.3805  0.8129
55821SOL     OW77776   0.253  10.263   9.869 -0.2270 -0.0443 -0.1316
55821SOL    HW177777   0.231  10.245   9.778  1.5587 -1.0100 -0.4183
55821SOL    HW277778   0.242  10.178   9.913 -2.5238  0.7091  0.9382
55822SOL     OW77779   3.822   3.381   0.163  0.5536  0.0092  0.0980
55822SOL    HW177780   3.785   3.306   0.117  2.1372 -0.3990 -0.5911
55822SOL    HW277781   3.858   3.436   0.093 -0.2176  1.2225  0.6265
55823SOL     OW77782   4.910   0.720  11.225 -0.3125 -0.3596 -0.0488
55823SOL    HW177783   4.881   0.809  11.242  0.8287 -0.0361  0.2738
55823SOL    HW277784   4.940   0.688  11.310  0.5238 -0.5771 -0.4171
55824SOL     OW77785   7.423  10.282   8.869 -0.4611  0.4464 -0.3885
55824SOL    HW177786   7.405  10.194   8.904 -1.5650  0.0946 -1.7503
55824SOL    HW277787   7.369  10.340   8.923 -1.8313 -0.0399 -1.1959
55825SOL     OW77788   2.396   7.600   7.783 -0.3349  0.7283  0.1427
55825SOL    HW177789   2.336   7.526   7.775 -0.0858  0.5614 -0.2320
55825SOL    HW277790   2.390   7.644   7.698 -0.5121  1.1654  0.3757
55826SOL     OW77791  12.977   2.404   9.023  0.1398  0.3744 -0.5047
55826SOL    HW177792  12.895   2.431   8.980  1.2868  0.7860 -2.5714
55826SOL    HW277793  12.985   2.311   9.002 -1.8533 -0.8733  3.3401
55827SOL     OW77794   4.442   2.292   3.240 -0.0811  0.5703 -0.2523
55827SOL    HW177795   4.411   2.363   3.296 -2.1155 -0.0558 -0.5156
55827SOL    HW277796   4.512   2.332   3.188  1.1168  1.4387  1.9139
55828SOL     OW77797   6.978   5.166   2.721 -0.7095 -0.1052  0.1373
55828SOL    HW177798   7.041   5.099   2.750  0.5427  0.9208 -0.1234
55828SOL    HW277799   6.927   5.123   2.653  1.3824 -0.2510 -1.4467
55829SOL     OW77800  10.059   9.699   5.209 -0.3215 -0.2609 -0.0768
55829SOL    HW177801  10.088   9.688   5.300 -0.4376 -4.4660 -0.3453
55829SOL    HW277802  10.134   9.737   5.164  0.5761 -0.2398  1.3723
55830SOL     OW77803   3.493   9.683  12.968 -0.0667  0.2508 -0.2239
55830SOL    HW177804   3.470   9.775  12.983 -3.0510 -0.2631 -0.9791
55830SOL    HW277805   3.479   9.641  13.053  2.5044  0.6140  0.4569
55831SOL     OW77806  10.026   4.526   0.961 -0.4156  0.1449 -0.1931
55831SOL    HW177807  10.002   4.607   1.007 -1.3434  0.2584 -0.8436
55831SOL    HW277808   9.958   4.464   0.986  0.4917 -0.5589  0.5852
55832SOL     OW77809   4.992   2.963   5.376 -0.1609 -0.5477 -0.0734
55832SOL    HW177810   4.993   2.955   5.471 -0.6899 -0.4370 -0.0574
55832SOL    HW277811   5.079   2.995   5.353  0.2905 -1.4744  0.2955
55833SOL     OW77812   5.306   0.763   8.306 -0.0612  0.0647  0.6042
55833SOL    HW177813   5.376   0.727   8.252 -0.2970 -0.3176  0.5407
55833SOL    HW277814   5.350   0.820   8.369  0.6735 -2.3376  2.4253
55834SOL     OW77815   6.925  11.071  12.499  0.1352  0.2724 -0.0311
55834SOL    HW177816   6.868  11.045  12.427  0.8751 -0.2738 -0.4280
55834SOL    HW277817   6.889  11.155  12.529 -0.1287  0.5488 -1.0921
55835SOL     OW77818  10.110   5.842   0.548 -0.0467  0.2551 -0.2532
55835SOL    HW177819  10.023   5.828   0.512 -1.6002 -0.8249  3.5250
55835SOL    HW277820  10.115   5.936   0.564  0.2408  0.5803 -2.0312
55836SOL     OW77821   4.760  12.414   2.298 -0.1556 -0.6142  0.2019
55836SOL    HW177822   4.814  12.391   2.222  1.7980 -1.5863  1.8010
55836SOL    HW277823   4.711  12.334   2.317  0.4270 -0.8473  0.7786
55837SOL     OW77824  11.149   5.239   9.063  0.5711 -0.3045 -0.3929
55837SOL    HW177825  11.242   5.234   9.085  0.5096 -0.8670 -0.2518
55837SOL    HW277826  11.110   5.283   9.139  0.4129 -1.9533  0.5340
55838SOL     OW77827   4.916  12.701   1.842  0.5501  0.3926 -0.0817
55838SOL    HW177828   4.903  12.794   1.825 -0.3924  0.5579  1.3589
55838SOL    HW277829   4.876  12.657   1.767 -0.7599  1.1222  0.1636
55839SOL     OW77830   7.890   0.241   7.939  0.1059  0.1889  0.5661
55839SOL    HW177831   7.918   0.182   8.009 -0.0472  0.3276  0.7458
55839SOL    HW277832   7.954   0.228   7.869 -1.2833 -2.0358 -0.4084
55840SOL     OW77833   5.943  10.831   8.554 -0.7541  0.3018 -0.0200
55840SOL    HW177834   5.917  10.835   8.647 -0.8832  1.9133 -0.0973
55840SOL    HW277835   6.005  10.759   8.550 -1.8002 -0.7031  1.0549
55841SOL     OW77836   2.012  12.629  10.552 -0.2067 -0.1343  0.0894
55841SOL    HW177837   1.965  12.546  10.547 -0.4454  0.0438 -0.8701
55841SOL    HW277838   2.052  12.629  10.639 -1.2391 -0.6830  0.5757
55842SOL     OW77839   1.611   0.465   5.821  0.1769  0.2253  0.7258
55842SOL    HW177840   1.636   0.439   5.732 -0.5811  0.2112  0.5090
55842SOL    HW277841   1.659   0.547   5.837 -0.3012  0.6641 -0.0138
55843SOL     OW77842   3.853  11.381   5.902  0.0983  0.1056  0.4933
55843SOL    HW177843   3.948  11.379   5.899  0.1080 -1.2678  1.1534
55843SOL    HW277844   3.829  11.461   5.854  1.4294 -1.2522 -2.7606
55844SOL     OW77845   0.244   2.351   2.460 -0.1574  0.0058  0.4369
55844SOL    HW177846   0.329   2.357   2.505 -0.1153  0.7698  0.2603
55844SOL    HW277847   0.203   2.436   2.474 -0.0895  0.3082 -1.0782
55845SOL     OW77848   3.466   3.593   5.166  0.4815  0.1361  0.7033
55845SOL    HW177849   3.441   3.665   5.108  0.0808 -0.9700 -0.5327
55845SOL    HW277850   3.392   3.533   5.164  0.3290  0.2182  2.6385
55846SOL     OW77851   3.351   3.189   3.317  0.6506  0.5802 -0.1643
55846SOL    HW177852   3.342   3.216   3.409 -0.7126  1.9279 -0.6627
55846SOL    HW277853   3.340   3.094   3.319  0.3145  0.6263  1.0271
55847SOL     OW77854   3.817  12.226   7.260 -0.6151 -0.2314  0.0061
55847SOL    HW177855   3.723  12.229   7.277 -0.3413  0.2379  1.6188
55847SOL    HW277856   3.856  12.266   7.338  0.8738  0.5209 -1.0866
55848SOL     OW77857   7.561   1.693   2.735  0.1698  0.2328  0.2404
55848SOL    HW177858   7.493   1.661   2.794  0.6745  0.1854  0.8072
55848SOL    HW277859   7.629   1.626   2.737  1.9334  1.9153  2.6166
55849SOL     OW77860   9.618   2.688   5.878  0.7108 -0.3941  0.0872
55849SOL    HW177861   9.639   2.726   5.963 -0.3918 -0.1374  0.2582
55849SOL    HW277862   9.611   2.594   5.896  0.2409 -0.3136  0.3286
55850SOL     OW77863   3.990  12.294  11.300  0.0737  0.2333 -0.3359
55850SOL    HW177864   4.031  12.258  11.222 -0.0980  0.6426 -0.6179
55850SOL    HW277865   4.059  12.295  11.366 -0.4583 -2.8152  0.4248
55851SOL     OW77866   9.206   6.614   1.241  0.0283  0.2845 -0.1316
55851SOL    HW177867   9.185   6.706   1.225  1.1703  0.5600 -0.1242
55851SOL    HW277868   9.293   6.603   1.204 -0.5028 -1.0562 -1.0371
55852SOL     OW77869   2.028   8.629   9.988  0.0272 -0.0831  0.1222
55852SOL    HW177870   1.973   8.570   9.935 -0.9310  0.9794 -0.0906
55852SOL    HW277871   2.087   8.669   9.924 -0.2039  0.1626  0.0591
55853SOL     OW77872   6.681   4.512   7.601 -0.7201  0.3210  1.0119
55853SOL    HW177873   6.751   4.576   7.603 -0.7885  0.4150  0.4054
55853SOL    HW277874   6.656   4.505   7.509 -1.3947  0.1696  1.1996
55854SOL     OW77875   6.583   1.036  11.304 -1.0654 -0.0723  0.1670
55854SOL    HW177876   6.655   1.008  11.361  0.4005 -0.5543 -1.7955
55854SOL    HW277877   6.528   0.959  11.296 -0.3305 -0.5539 -0.4146
55855SOL     OW77878   8.496  12.434   2.038 -0.9666  0.2694  0.0312
55855SOL    HW177879   8.504  12.339   2.048  0.4506  0.2888 -0.7036
55855SOL    HW277880   8.435  12.460   2.107 -0.0677 -0.9534  1.3289
55856SOL     OW77881   5.104   0.936   3.276 -0.1514 -0.4970 -0.8725
55856SOL    HW177882   5.065   0.899   3.356  0.3623 -1.3741 -1.0118
55856SOL    HW277883   5.038   0.996   3.243  0.9100  2.5849  2.0238
55857SOL     OW77884   4.286   7.098   6.674  0.0044 -0.1832 -0.3238
55857SOL    HW177885   4.335   7.167   6.718  0.7993 -0.9195 -0.0183
55857SOL    HW277886   4.197   7.105   6.711  0.9168 -1.5573  2.4434
55858SOL     OW77887   9.493   5.338   3.676  0.2961 -0.4142  0.0387
55858SOL    HW177888   9.492   5.362   3.584  0.4650 -2.7769 -0.6477
55858SOL    HW277889   9.541   5.255   3.679  0.8214 -0.0832  2.3393
55859SOL     OW77890  11.088  11.536   9.391  0.1582  0.3453 -0.5988
55859SOL    HW177891  11.050  11.616   9.427  0.1277  0.1671 -0.2361
55859SOL    HW277892  11.099  11.478   9.466  2.0286  0.7380 -0.5348
55860SOL     OW77893   4.654   4.327   6.343 -0.2479 -0.3285 -0.3650
55860SOL    HW177894   4.560   4.342   6.349 -0.1432  0.2381 -0.0243
55860SOL    HW277895   4.693   4.414   6.355  0.3359 -0.6369  0.0301
55861SOL     OW77896   7.359   8.941   3.842  0.5187 -0.1163 -0.0472
55861SOL    HW177897   7.269   8.966   3.865  0.6124  1.0499 -0.8881
55861SOL    HW277898   7.364   8.953   3.748  1.2139 -1.3578 -0.1929
55862SOL     OW77899   5.416   6.902   2.079 -0.6640 -0.7134  0.0479
55862SOL    HW177900   5.416   6.822   2.026 -0.8688 -0.8337  0.2288
55862SOL    HW277901   5.324   6.931   2.079 -0.4660 -0.0179 -0.7081
55863SOL     OW77902   2.234   1.432   0.309  0.2090 -0.7729 -0.5827
55863SOL    HW177903   2.272   1.520   0.312 -1.0750 -0.2169  2.5751
55863SOL    HW277904   2.184   1.431   0.227 -0.3605  1.7625 -0.3642
55864SOL     OW77905   8.470   3.694   6.159 -0.0973 -0.5057  0.5192
55864SOL    HW177906   8.410   3.749   6.109  0.1642 -0.4075  0.3058
55864SOL    HW277907   8.543   3.677   6.099 -0.5634 -1.7924  0.2919
55865SOL     OW77908   8.809   8.784   3.162  0.2151  0.2217  0.1651
55865SOL    HW177909   8.889   8.794   3.110  0.1933  0.5989  0.2008
55865SOL    HW277910   8.841   8.763   3.250  0.2309 -2.6852 -0.4222
55866SOL     OW77911   4.977   6.538   0.743 -0.2084  0.3783  0.4967
55866SOL    HW177912   5.021   6.599   0.802 -1.0392 -0.1340  1.7029
55866SOL    HW277913   4.909   6.498   0.797 -1.8754  0.8183 -1.1539
55867SOL     OW77914   5.612  10.445   3.378  0.3962 -0.1166 -0.1905
55867SOL    HW177915   5.552  10.371   3.381  0.0387  0.1842  0.3358
55867SOL    HW277916   5.600  10.488   3.463 -0.2203  1.1691 -0.8996
55868SOL     OW77917   9.703  12.954   3.300  0.2579  0.0526 -0.4768
55868SOL    HW177918   9.633  13.016   3.318  1.1356  0.9467  0.0102
55868SOL    HW277919   9.784  13.003   3.319  0.9568 -1.5470  0.9888
55869SOL     OW77920   6.775   5.073   4.520  0.5553 -0.2357  0.7388
55869SOL    HW177921   6.810   4.986   4.497 -1.1745 -1.0371  0.9423
55869SOL    HW277922   6.852   5.130   4.522  1.5691 -1.4351 -0.9079
55870SOL     OW77923  11.817   5.897   7.513  0.2571 -0.2394 -0.2034
55870SOL    HW177924  11.783   5.812   7.485  1.8350 -0.6934 -0.8198
55870SOL    HW277925  11.742   5.939   7.557 -1.1105 -1.1328 -1.5766
55871SOL     OW77926   4.229   6.689   3.510 -0.9632  0.1167  0.0916
55871SOL    HW177927   4.253   6.707   3.419 -0.5023  0.4842  0.2804
55871SOL    HW277928   4.294   6.737   3.562 -0.5677 -0.9620  0.6152
55872SOL     OW77929   3.263   2.264   0.085  0.5362 -0.1211  0.1592
55872SOL    HW177930   3.304   2.180   0.105  2.4542  0.6560 -0.3724
55872SOL    HW277931   3.217   2.249   0.003  0.8377 -0.6603  0.0840
55873SOL     OW77932   4.530   8.323   2.399  0.3016  0.5144  0.1447
55873SOL    HW177933   4.553   8.304   2.490 -0.6840 -1.3535  0.0462
55873SOL    HW277934   4.598   8.280   2.348 -0.0685  0.1090 -0.0165
55874SOL     OW77935   1.299   7.691   3.589  0.4927 -0.2454 -0.3632
55874SOL    HW177936   1.332   7.620   3.533  0.5509  0.1358 -0.8228
55874SOL    HW277937   1.249   7.747   3.529 -1.0480 -0.8316  0.3219
55875SOL     OW77938   9.084   6.117   1.092 -0.0882  0.3850 -0.1514
55875SOL    HW177939   9.173   6.086   1.075  0.3734  1.0106  1.0688
55875SOL    HW277940   9.054   6.066   1.168 -0.4079  0.8738  0.0532
55876SOL     OW77941   7.371   9.163  12.689  0.1733 -0.1118 -0.0253
55876SOL    HW177942   7.280   9.185  12.709 -0.0564 -0.3991 -0.7158
55876SOL    HW277943   7.412   9.245  12.664  0.3920  0.2067  1.3103
55877SOL     OW77944   5.113   4.475   4.910  0.1544 -0.4464 -1.0275
55877SOL    HW177945   5.073   4.535   4.848 -0.0112  0.4005 -0.1310
55877SOL    HW277946   5.094   4.388   4.875 -0.4422 -0.0033 -1.8410
55878SOL     OW77947   3.184   7.695   4.016 -0.0648  0.1180 -0.4044
55878SOL    HW177948   3.140   7.694   4.101 -0.8561 -0.9484 -0.8013
55878SOL    HW277949   3.228   7.610   4.010 -0.2825  0.0480 -1.1846
55879SOL     OW77950  11.965   6.289  12.554  0.5687  0.1993  0.3975
55879SOL    HW177951  11.904   6.362  12.543  0.4909  0.0351 -0.2484
55879SOL    HW277952  12.027   6.299  12.482  1.1397  0.1986  0.8851
55880SOL     OW77953  12.867  11.251   5.710 -0.0984  0.6058 -0.1825
55880SOL    HW177954  12.780  11.213   5.696  0.9415 -2.4402  0.8166
55880SOL    HW277955  12.853  11.346   5.700 -2.9841  0.1065 -2.6222
55881SOL     OW77956   7.098  10.015  10.639  0.4261  0.1753  0.3294
55881SOL    HW177957   7.180  10.049  10.675  0.9200 -1.7298  1.0883
55881SOL    HW277958   7.083   9.933  10.685 -1.8343  0.3752  0.0714
55882SOL     OW77959   7.173   4.376   1.159  0.0791  0.0028 -0.1105
55882SOL    HW177960   7.120   4.447   1.196  0.8473  0.6910 -0.2908
55882SOL    HW277961   7.163   4.303   1.220 -0.9498  0.1655 -0.0681
55883SOL     OW77962   2.865   5.211   0.207 -0.4085  0.2896  0.4190
55883SOL    HW177963   2.797   5.259   0.159 -0.6732 -0.3342  0.1557
55883SOL    HW277964   2.820   5.132   0.239  0.2043 -0.1618  0.1857
55884SOL     OW77965   0.691   4.531  10.680  0.3740 -0.4205 -0.0985
55884SOL    HW177966   0.714   4.438  10.679  4.2149  0.3360 -0.0053
55884SOL    HW277967   0.714   4.560  10.769 -0.8452  0.6390 -0.1017
55885SOL     OW77968   1.345   5.461  12.286 -0.5551 -0.3087  0.0742
55885SOL    HW177969   1.280   5.470  12.357 -0.6638 -0.2109 -0.0380
55885SOL    HW277970   1.331   5.538  12.231 -0.0516 -0.0671  0.2834
55886SOL     OW77971   7.034   1.156   0.353  0.0686 -0.0994  0.5405
55886SOL    HW177972   6.962   1.215   0.373  0.2772  0.1112  0.6803
55886SOL    HW277973   6.992   1.073   0.328 -0.3050  0.6198 -1.4275
55887SOL     OW77974   7.205  11.774   5.690 -0.2932 -0.3361 -0.1757
55887SOL    HW177975   7.263  11.720   5.638  0.8468  1.6850 -1.1347
55887SOL    HW277976   7.118  11.737   5.677  0.1877 -0.8246 -2.2899
55888SOL     OW77977  11.527   8.750  12.885 -0.0367  0.0119 -0.2662
55888SOL    HW177978  11.505   8.814  12.818 -3.2597 -2.9260 -2.3458
55888SOL    HW277979  11.580   8.684  12.841 -1.4139 -1.4962  0.2081
55889SOL     OW77980   0.234   2.772   1.322 -0.0911 -0.3950 -0.0479
55889SOL    HW177981   0.151   2.805   1.357 -2.2779 -2.2016 -3.0038
55889SOL    HW277982   0.236   2.680   1.349 -0.3539 -1.0042 -1.9303
55890SOL     OW77983  10.867   4.409   8.505  0.5210 -0.2245  0.0667
55890SOL    HW177984  10.818   4.327   8.513 -0.4088  0.0465 -2.1278
55890SOL    HW277985  10.959   4.382   8.511  0.2010 -1.0460  1.9094
55891SOL     OW77986   0.389  12.196  10.151  0.3334 -0.1242 -1.0587
55891SOL    HW177987   0.366  12.183  10.243 -2.2361  2.1829 -1.2548
55891SOL    HW277988   0.356  12.118  10.107  1.4791 -1.1964 -0.1259
55892SOL     OW77989  10.509   9.342   6.732 -0.4674  0.2245 -0.0227
55892SOL    HW177990  10.417   9.363   6.749 -0.7170 -1.5861  1.1752
55892SOL    HW277991  10.547   9.327   6.819  0.8933  0.6482 -0.5153
55893SOL     OW77992   1.404  12.584  12.879  0.3077 -0.0073 -0.6774
55893SOL    HW177993   1.324  12.554  12.923  2.2572 -2.5533  1.4306
55893SOL    HW277994   1.412  12.527  12.802  0.1795  0.1895 -0.8399
55894SOL     OW77995   3.612   6.397   8.182  0.2173  0.1530 -0.0739
55894SOL    HW177996   3.613   6.426   8.091  0.3561  0.3613 -0.0070
55894SOL    HW277997   3.524   6.420   8.213  0.4252  0.7925  0.0671
55895SOL     OW77998   2.729   2.715   1.050 -0.5106  0.2031  0.4386
55895SOL    HW177999   2.662   2.772   1.088 -2.0265  0.2620 -2.1245
55895SOL    HW278000   2.799   2.774   1.022 -0.7326  0.4756  0.4627
55896SOL     OW78001   0.400   7.535  11.490 -0.0804 -0.3022  0.0533
55896SOL    HW178002   0.348   7.496  11.419  0.9536 -0.2747 -0.7429
55896SOL    HW278003   0.383   7.479  11.566 -2.2041  0.4026  0.1576
55897SOL     OW78004   3.134   1.023   8.810  0.2302 -0.1925 -0.0197
55897SOL    HW178005   3.228   1.006   8.799  0.4458  0.9253 -0.0937
55897SOL    HW278006   3.126   1.118   8.796 -0.7302 -0.0710  1.2064
55898SOL     OW78007   5.680  10.573   1.994  0.2482 -0.5959  0.3063
55898SOL    HW178008   5.742  10.617   2.052 -0.3524 -0.0315  0.5274
55898SOL    HW278009   5.645  10.643   1.939 -1.0942 -0.7000  0.9996
55899SOL     OW78010   2.852   3.639   8.541  0.0866  0.1490 -0.1810
55899SOL    HW178011   2.906   3.563   8.559  1.5988  1.5144  1.3730
55899SOL    HW278012   2.913   3.713   8.541 -1.1210  1.2794 -2.8989
55900SOL     OW78013   6.315   0.242  12.678 -0.0376 -0.4190 -0.3326
55900SOL    HW178014   6.296   0.289  12.759  0.0179  0.2799 -0.7187
55900SOL    HW278015   6.228   0.222  12.641 -0.1031 -1.9964  0.5911
55901SOL     OW78016   6.762   8.268   9.124 -0.0624 -0.2609 -0.5836
55901SOL    HW178017   6.767   8.188   9.071  0.5638 -0.5729 -0.0669
55901SOL    HW278018   6.719   8.240   9.205 -0.9148  0.1904 -0.8731
55902SOL     OW78019  10.150   7.043  12.103 -0.1988  0.1723  0.0497
55902SOL    HW178020  10.062   7.027  12.137  0.2196 -0.5123  0.8709
55902SOL    HW278021  10.193   6.957  12.108  0.5709  0.5370 -0.1457
55903SOL     OW78022   8.084   0.536   1.246  0.2173 -0.1325  0.9104
55903SOL    HW178023   8.044   0.529   1.333  1.7750 -1.2914  1.5895
55903SOL    HW278024   8.067   0.450   1.206  0.4236  0.0259  0.4867
55904SOL     OW78025   7.033  10.263   4.526 -0.2315  0.1574  0.5305
55904SOL    HW178026   7.064  10.353   4.531  1.2685 -0.3422  0.8541
55904SOL    HW278027   7.037  10.231   4.616  1.2696 -0.8429  0.1487
55905SOL     OW78028   4.112   6.153   2.999 -0.6937  0.2283 -0.1815
55905SOL    HW178029   4.083   6.223   2.941 -1.7217 -0.6113 -0.7127
55905SOL    HW278030   4.096   6.187   3.087 -0.8033  0.8129 -0.4223
55906SOL     OW78031   0.110   5.579   0.523  0.6746 -0.4704  0.1536
55906SOL    HW178032   0.203   5.554   0.530  0.3757 -1.1223  3.3311
55906SOL    HW278033   0.065   5.496   0.510  0.4245 -0.2733 -0.2606
55907SOL     OW78034   8.574  11.478   4.743  0.3414 -0.1519 -0.0166
55907SOL    HW178035   8.634  11.543   4.706 -0.3632  0.6265  0.1703
55907SOL    HW278036   8.553  11.512   4.830 -1.5349  0.3973 -0.6383
55908SOL     OW78037  11.449   0.892   1.264  0.4637  0.9592  0.0123
55908SOL    HW178038  11.387   0.829   1.226  2.1015  0.0343 -1.2321
55908SOL    HW278039  11.438   0.970   1.210 -0.3638  1.1893  0.4887
55909SOL     OW78040   8.487   7.434   3.953 -0.1075  0.2958  0.3086
55909SOL    HW178041   8.417   7.499   3.944  0.5415  1.2633  1.8378
55909SOL    HW278042   8.566   7.486   3.969  0.8917 -0.7972 -0.8449
55910SOL     OW78043   2.053   3.392   2.891  0.0722 -0.3329 -0.6678
55910SOL    HW178044   2.136   3.345   2.886  0.0283 -1.1727  3.1794
55910SOL    HW278045   1.991   3.338   2.842  0.8992 -2.1735  0.2171
55911SOL     OW78046   1.616  12.301   3.415 -0.0502  0.1712 -0.3287
55911SOL    HW178047   1.579  12.218   3.384 -0.1252 -0.0646  0.3863
55911SOL    HW278048   1.557  12.367   3.378 -1.1679 -0.1946  0.7134
55912SOL     OW78049   8.432  10.398   3.688 -0.3308  0.5350 -0.0290
55912SOL    HW178050   8.496  10.348   3.637 -0.9236  0.2106 -0.4607
55912SOL    HW278051   8.389  10.333   3.743 -0.6366  0.6781 -0.1007
55913SOL     OW78052   5.795   0.500  10.697  0.5916 -0.2829 -0.8738
55913SOL    HW178053   5.868   0.445  10.668 -0.0263 -0.1917 -2.7541
55913SOL    HW278054   5.836   0.582  10.724  1.3115 -0.7989 -0.3683
55914SOL     OW78055   1.747  10.696   0.872 -0.2172  0.3853 -0.1276
55914SOL    HW178056   1.812  10.764   0.851 -0.0768  0.4430  0.4889
55914SOL    HW278057   1.698  10.731   0.946 -0.1002 -0.2140  0.2421
55915SOL     OW78058   2.368   5.563  10.600  0.3309  0.2025  0.3319
55915SOL    HW178059   2.426   5.486  10.603  0.0733 -0.0721 -1.0662
55915SOL    HW278060   2.415   5.626  10.546 -0.9244 -0.2949 -1.4381
55916SOL     OW78061   6.583   6.679   9.987 -0.1974 -0.5108  0.3769
55916SOL    HW178062   6.674   6.709   9.993 -0.0661 -0.4552 -1.2498
55916SOL    HW278063   6.544   6.735   9.920 -1.0469 -1.4278  0.0755
55917SOL     OW78064   5.231   9.332   1.670  0.2445 -0.3236  0.8577
55917SOL    HW178065   5.280   9.276   1.610 -1.1399 -1.2095  0.5025
55917SOL    HW278066   5.267   9.311   1.756  2.4343  1.1558  0.3770
55918SOL     OW78067   1.773   8.320   4.635 -0.4099 -0.0825 -0.4924
55918SOL    HW178068   1.839   8.328   4.567  0.1762 -0.0300  0.0683
55918SOL    HW278069   1.703   8.269   4.595  0.2177 -0.6230 -0.9235
55919SOL     OW78070   6.420   1.354   1.104 -0.1532  0.0603  0.0023
55919SOL    HW178071   6.427   1.260   1.090  1.6613  0.1905 -0.1669
55919SOL    HW278072   6.488   1.374   1.168 -0.8264  1.1943  0.3916
55920SOL     OW78073   9.781   3.656  11.364 -0.0891  0.1624 -0.2534
55920SOL    HW178074   9.847   3.640  11.297  0.8672 -0.1602  0.7405
55920SOL    HW278075   9.795   3.587  11.429 -1.6531 -0.1485 -0.1854
55921SOL     OW78076  10.493   9.817   5.409  0.7013 -0.4162 -0.4551
55921SOL    HW178077  10.568   9.826   5.349  2.0165 -2.3659  0.7783
55921SOL    HW278078  10.524   9.856   5.491 -0.7985  1.4925 -0.7170
55922SOL     OW78079   1.442   4.469  11.806  0.0695  0.1746  0.5696
55922SOL    HW178080   1.374   4.535  11.794 -0.1843 -0.2077 -0.2003
55922SOL    HW278081   1.485   4.465  11.720  0.1996 -0.5189  0.6666
55923SOL     OW78082   9.859   9.896  12.614  0.0622 -0.0187 -0.4881
55923SOL    HW178083   9.829   9.862  12.530  0.5094 -1.5618 -0.0599
55923SOL    HW278084   9.935   9.950  12.593  0.4840 -0.8108 -1.0357
55924SOL     OW78085   6.423   7.544   6.233 -0.3336 -0.2096 -0.1725
55924SOL    HW178086   6.461   7.470   6.281 -1.1487 -0.5947 -0.0925
55924SOL    HW278087   6.482   7.617   6.250 -1.0421 -0.1024  2.1575
55925SOL     OW78088  12.809   7.060   8.152 -0.4278  0.2634  0.1807
55925SOL    HW178089  12.747   7.131   8.167 -1.3826 -0.6603  0.7146
55925SOL    HW278090  12.756   6.980   8.155  0.5183 -0.4486 -1.0258
55926SOL     OW78091   9.417   0.339   5.787  0.0115  0.7131 -0.3664
55926SOL    HW178092   9.420   0.314   5.694  0.0841 -0.5498 -0.0476
55926SOL    HW278093   9.324   0.339   5.809  0.0180  0.6015 -0.3377
55927SOL     OW78094   0.874   7.071  12.202  0.4212 -0.7054  0.4925
55927SOL    HW178095   0.880   7.009  12.129  0.0980 -2.2489  1.7221
55927SOL    HW278096   0.852   7.017  12.277 -0.8850  1.0622  1.4431
55928SOL     OW78097   2.524   5.601   6.902  0.4722 -0.2136  0.0915
55928SOL    HW178098   2.511   5.548   6.981  1.0116  0.0815  0.3836
55928SOL    HW278099   2.551   5.686   6.934  0.3055  0.0320 -0.4057
55929SOL     OW78100  10.644  10.081   4.320  0.4574  0.4542  0.2318
55929SOL    HW178101  10.577  10.110   4.382 -1.7845  0.7994 -2.1946
55929SOL    HW278102  10.702  10.157   4.311  1.1360  0.2334  2.1774
55930SOL     OW78103   0.018  12.200   5.500 -0.2196 -0.1524  0.3268
55930SOL    HW178104  -0.059  12.236   5.456 -0.9707 -1.6442  0.3492
55930SOL    HW278105   0.069  12.160   5.430  0.9039  1.3851  0.2179
55931SOL     OW78106   7.485   1.573   8.153 -0.2772  0.3571 -0.4337
55931SOL    HW178107   7.430   1.609   8.223 -1.2523 -1.4487 -0.1974
55931SOL    HW278108   7.422   1.533   8.092  0.6735 -0.0134 -1.1929
55932SOL     OW78109   0.451  10.135  12.328  0.2796  0.2962 -0.0856
55932SOL    HW178110   0.391  10.063  12.343  0.9582 -0.3064 -0.1826
55932SOL    HW278111   0.538  10.096  12.336  0.6800  1.3561  1.0884
55933SOL     OW78112  11.322   9.445   7.635 -0.2001  0.1257  0.6678
55933SOL    HW178113  11.333   9.536   7.663  0.4257  0.3094 -0.1388
55933SOL    HW278114  11.252   9.448   7.571  0.7367  0.2706 -0.3770
55934SOL     OW78115   2.972   7.178   5.469  0.1908 -0.0995 -0.1070
55934SOL    HW178116   2.914   7.116   5.513 -0.0646 -0.1189 -0.4682
55934SOL    HW278117   2.933   7.191   5.383  0.8221 -0.2470 -0.4214
55935SOL     OW78118   0.439  11.118   3.555 -0.5532  0.1815 -0.1645
55935SOL    HW178119   0.514  11.177   3.565  0.0384 -0.6965  0.8052
55935SOL    HW278120   0.376  11.147   3.621 -1.6739  1.7308 -1.8105
55936SOL     OW78121   7.499  10.579  12.174  0.0147  0.3089  0.3061
55936SOL    HW178122   7.540  10.664  12.157 -0.8447  0.6022 -0.3549
55936SOL    HW278123   7.425  10.599  12.231 -0.4766  0.0895 -0.2355
55937SOL     OW78124   4.035   2.990   2.892 -0.4052  0.0882 -0.0235
55937SOL    HW178125   3.972   2.939   2.842 -0.6525 -0.2558  0.6299
55937SOL    HW278126   4.013   2.973   2.984  1.6057 -1.2675  0.2643
55938SOL     OW78127  12.586   9.068   3.618  1.2908 -0.1807  0.6993
55938SOL    HW178128  12.649   9.094   3.551  1.1101  0.4456  0.7710
55938SOL    HW278129  12.635   9.007   3.674  1.4622 -0.6504  0.0554
55939SOL     OW78130   0.908   2.765   7.467 -0.0004 -0.4297  0.0283
55939SOL    HW178131   0.877   2.680   7.499  0.4795 -1.0533 -1.1016
55939SOL    HW278132   0.885   2.766   7.375  0.8200  0.2828 -0.1834
55940SOL     OW78133  11.239   5.388   4.413  0.7468  0.2046 -0.7935
55940SOL    HW178134  11.191   5.412   4.333 -1.5629  2.2742  1.0296
55940SOL    HW278135  11.319   5.440   4.409  0.6668  0.2784 -1.7424
55941SOL     OW78136   4.267   4.452   2.871  0.4578  0.3426 -0.5988
55941SOL    HW178137   4.193   4.399   2.901  0.0686 -0.8057 -3.3124
55941SOL    HW278138   4.330   4.388   2.838  1.6826  1.4228 -0.4072
55942SOL     OW78139   1.807   1.962   6.359 -0.0189  0.3278 -0.0035
55942SOL    HW178140   1.798   1.872   6.328  2.9330 -0.4090  0.9255
55942SOL    HW278141   1.814   2.014   6.278  0.0113 -0.5226 -0.5598
55943SOL     OW78142   6.664   1.865  10.957  0.0807  0.2633  0.3737
55943SOL    HW178143   6.717   1.827  11.027 -1.2498  0.1103  1.3329
55943SOL    HW278144   6.573   1.856  10.988 -0.4796  0.9650 -0.9920
55944SOL     OW78145   8.386   7.417   0.955  0.0593 -0.1345 -0.2129
55944SOL    HW178146   8.394   7.341   1.013 -0.5784 -0.5685 -0.6742
55944SOL    HW278147   8.310   7.465   0.990  0.2792  0.1354 -0.1019
55945SOL     OW78148   3.502   5.525   7.019  0.2631  0.3504 -0.0605
55945SOL    HW178149   3.407   5.520   7.021  0.3131 -0.7462  0.3567
55945SOL    HW278150   3.522   5.575   6.940 -0.6923  2.4318  0.9568
55946SOL     OW78151   1.483  11.111   2.742 -0.0062 -0.0294  0.4185
55946SOL    HW178152   1.486  11.081   2.651 -3.4347  0.2798  0.0787
55946SOL    HW278153   1.444  11.038   2.790 -1.1403  0.9382  1.0254
55947SOL     OW78154   3.330  11.083   9.106  0.7897  0.0696 -0.4223
55947SOL    HW178155   3.298  11.169   9.078 -0.9123  0.3759  2.1241
55947SOL    HW278156   3.384  11.101   9.183  0.2555 -1.1121  0.2719
55948SOL     OW78157   9.808  10.567   6.827  0.0025  0.4042  0.1030
55948SOL    HW178158   9.755  10.643   6.804 -0.3250  0.0411 -0.3468
55948SOL    HW278159   9.804  10.510   6.750 -2.5947 -1.6713  1.5985
55949SOL     OW78160   9.613   8.489   6.179 -0.5179  0.3624 -0.2314
55949SOL    HW178161   9.572   8.403   6.174 -2.2214  1.1517 -0.7568
55949SOL    HW278162   9.701   8.476   6.145 -0.7978 -1.1313 -0.4411
55950SOL     OW78163  10.180   2.653  12.874 -0.1838  0.3736  0.0628
55950SOL    HW178164  10.157   2.598  12.948  1.6275  1.1452  1.2457
55950SOL    HW278165  10.143   2.608  12.798  0.2766 -1.8714  1.1084
55951SOL     OW78166   8.837   9.537   6.821  0.1167  0.4490  0.5498
55951SOL    HW178167   8.814   9.534   6.728  2.2510 -0.4809 -0.0135
55951SOL    HW278168   8.914   9.594   6.824  0.9984 -0.7361  1.4954
55952SOL     OW78169   3.039  12.646   5.771  0.1777 -0.5728 -0.1168
55952SOL    HW178170   2.965  12.634   5.831  1.4541 -0.0949  1.6595
55952SOL    HW278171   3.061  12.557   5.743  2.3546 -1.5149  3.8045
55953SOL     OW78172   2.696   3.939   6.170 -0.0035 -0.0158  0.3399
55953SOL    HW178173   2.683   4.016   6.114 -0.9370 -0.1507  0.3600
55953SOL    HW278174   2.789   3.943   6.195  0.4000  0.1190 -1.0988
55954SOL     OW78175   4.278   0.171   0.726  0.4084  0.2169  0.1621
55954SOL    HW178176   4.219   0.109   0.768 -0.2941  0.9926  0.3609
55954SOL    HW278177   4.259   0.254   0.770  2.3813  0.3022  0.9772
55955SOL     OW78178   6.366   2.469  11.625  0.1196 -0.1648 -0.1592
55955SOL    HW178179   6.398   2.409  11.692  0.3108  0.5355  0.3873
55955SOL    HW278180   6.412   2.442  11.545 -1.4866 -2.2109 -0.4810
55956SOL     OW78181   8.405  10.845   8.166 -0.1026 -0.5894  0.2859
55956SOL    HW178182   8.500  10.836   8.172 -0.0495 -0.2066  0.0367
55956SOL    HW278183   8.373  10.755   8.160  0.2153 -0.7376  0.7723
55957SOL     OW78184   0.007   8.716   2.082  0.2288  0.0891  0.5530
55957SOL    HW178185  -0.084   8.740   2.065 -0.6336 -3.0078  0.2150
55957SOL    HW278186   0.013   8.712   2.178 -0.2890 -0.5778  0.5673
55958SOL     OW78187   2.105   6.676   9.303 -0.0379 -0.7296  0.0976
55958SOL    HW178188   2.068   6.631   9.379  0.5079 -0.3670  0.5846
55958SOL    HW278189   2.120   6.766   9.333  1.7828 -1.0046  0.1138
55959SOL     OW78190  10.340   1.895  12.913 -0.4394  0.0214 -0.0483
55959SOL    HW178191  10.333   1.814  12.964  0.1653 -0.9422 -1.4322
55959SOL    HW278192  10.384   1.868  12.832  0.0179  1.8031 -0.4203
55960SOL     OW78193   2.074  10.454  10.148  0.0882 -0.6306  0.3627
55960SOL    HW178194   2.137  10.430  10.080  0.2514  1.4343 -0.2901
55960SOL    HW278195   2.115  10.527  10.194 -1.5671  0.3869  0.2953
55961SOL     OW78196  11.829   6.104   1.369 -0.3126  0.2524 -0.6208
55961SOL    HW178197  11.853   6.036   1.432 -0.9728 -0.0187 -0.6519
55961SOL    HW278198  11.837   6.061   1.283 -0.0070  0.4373 -0.6852
55962SOL     OW78199  11.490   2.888   8.935 -0.6229  0.5316  0.0267
55962SOL    HW178200  11.403   2.897   8.895 -0.9670 -0.2459  0.5684
55962SOL    HW278201  11.523   2.978   8.940 -0.8855  0.7213 -1.2760
55963SOL     OW78202   8.781  11.979  11.132  0.5407  0.2954  1.0688
55963SOL    HW178203   8.866  11.958  11.171  0.3325  0.5457  1.6681
55963SOL    HW278204   8.744  11.894  11.108  0.7756  0.1558  1.1939
55964SOL     OW78205  11.456   1.639   3.377 -0.0871 -0.0478 -0.0588
55964SOL    HW178206  11.376   1.589   3.394 -0.1353 -0.5892 -1.6847
55964SOL    HW278207  11.520   1.604   3.439 -1.8440  2.5898  3.5920
55965SOL     OW78208  12.385   0.132  10.325  0.1158 -0.0912  0.3420
55965SOL    HW178209  12.354   0.154  10.413  0.7300 -0.1766  0.5820
55965SOL    HW278210  12.452   0.066  10.339 -0.3831 -0.7470 -0.2460
55966SOL     OW78211   9.013  12.601   0.563  0.0245  0.4767  0.2026
55966SOL    HW178212   9.053  12.530   0.513 -0.0161  0.2063  0.5445
55966SOL    HW278213   9.072  12.612   0.638  0.4483  1.3304 -0.2454
55967SOL     OW78214  11.230   2.549   5.881  0.2734  0.3501  0.7196
55967SOL    HW178215  11.229   2.618   5.815 -1.1215  0.6892  1.0597
55967SOL    HW278216  11.304   2.492   5.856 -0.4307  0.2629 -1.3244
55968SOL     OW78217   5.222   3.522   2.057 -0.5350  0.1663 -0.6641
55968SOL    HW178218   5.179   3.478   2.131 -0.9474  0.6934 -0.5834
55968SOL    HW278219   5.247   3.607   2.092  1.0644 -0.3200 -0.5521
55969SOL     OW78220   4.093   7.492  10.942 -0.0266 -0.1151  0.1479
55969SOL    HW178221   4.160   7.559  10.944  0.5603 -0.6014 -1.3436
55969SOL    HW278222   4.030   7.524  10.877 -1.0151  0.1207  1.1976
55970SOL     OW78223   6.069  11.535   5.052  0.3389  0.4364  0.2070
55970SOL    HW178224   6.164  11.527   5.061  0.3353 -1.5434 -0.9616
55970SOL    HW278225   6.034  11.473   5.116 -0.1231 -0.0353 -0.4991
55971SOL     OW78226  11.621   0.874  12.726  0.5791  0.4481 -0.2933
55971SOL    HW178227  11.621   0.951  12.782 -2.7224  0.0879  0.3975
55971SOL    HW278228  11.575   0.807  12.776  2.4047 -1.7250 -1.2948
55972SOL     OW78229   7.249   8.127   7.312  0.1927  0.3945 -0.6582
55972SOL    HW178230   7.176   8.160   7.259 -0.3459  1.1106  0.4680
55972SOL    HW278231   7.309   8.201   7.318 -0.1209  0.5935  0.3278
55973SOL     OW78232  11.173   3.933   0.795 -0.3624 -0.0649 -0.5914
55973SOL    HW178233  11.265   3.943   0.821 -0.8152  0.4399  0.9337
55973SOL    HW278234  11.126   3.926   0.878 -1.8771  1.2625 -1.2872
55974SOL     OW78235   9.956   7.306   8.388 -0.2859 -0.0134 -0.5819
55974SOL    HW178236   9.894   7.330   8.457  0.1142 -1.5361  0.3696
55974SOL    HW278237   9.915   7.231   8.344  0.4379 -0.4387 -0.5509
55975SOL     OW78238   5.203   3.063   8.175 -0.2448  0.0489 -0.0653
55975SOL    HW178239   5.140   3.090   8.242  1.0935  1.0708  0.8144
55975SOL    HW278240   5.261   3.002   8.221 -0.3138 -0.5480 -0.7596
55976SOL     OW78241  12.819   3.638  11.249 -0.7212 -0.0564 -0.1202
55976SOL    HW178242  12.792   3.573  11.314  0.2308 -1.4009 -1.0173
55976SOL    HW278243  12.855   3.710  11.301 -4.4570  1.2031  1.0706
55977SOL     OW78244  10.495   2.935   5.788  0.6250 -0.1478  0.1011
55977SOL    HW178245  10.419   2.909   5.840  0.9904 -0.3121  0.5668
55977SOL    HW278246  10.461   2.951   5.700 -0.1339  0.8123  0.5475
55978SOL     OW78247  12.681   9.814   6.062 -0.0012 -0.2747 -0.2645
55978SOL    HW178248  12.716   9.886   6.115  1.7027 -0.7408 -0.7092
55978SOL    HW278249  12.634   9.858   5.991  2.8505  0.5571 -1.8034
55979SOL     OW78250   2.392   3.904   2.279  0.2611  0.2679 -0.1736
55979SOL    HW178251   2.485   3.924   2.292  0.7274 -1.5852 -0.3546
55979SOL    HW278252   2.348   3.942   2.355  1.1351  1.2610 -0.1410
55980SOL     OW78253   8.512   4.909   2.046 -0.1520 -0.2860  0.1387
55980SOL    HW178254   8.514   4.866   1.961 -0.9317  0.0034 -0.0343
55980SOL    HW278255   8.479   4.997   2.028 -1.0027 -0.4504  0.8249
55981SOL     OW78256   3.074  10.622   8.747 -0.3705  0.0028  0.2844
55981SOL    HW178257   2.980  10.617   8.761 -0.8209  1.3328 -1.7427
55981SOL    HW278258   3.085  10.596   8.655  1.2081  0.1787  0.4037
55982SOL     OW78259   0.090   9.016   5.870  0.1158  0.2247 -0.3958
55982SOL    HW178260   0.137   9.039   5.790 -0.3110  2.3209 -0.0901
55982SOL    HW278261   0.022   9.082   5.879 -0.2891 -0.3656  1.3395
55983SOL     OW78262   1.646   3.666   8.371 -0.5520  0.2692 -0.4396
55983SOL    HW178263   1.676   3.739   8.317  0.4053 -0.0687 -0.3718
55983SOL    HW278264   1.721   3.608   8.378 -0.8209  0.0465  0.8339
55984SOL     OW78265   0.654   5.830   8.295  0.8384  0.4025  0.1929
55984SOL    HW178266   0.632   5.743   8.330 -3.2214  2.2076  2.8674
55984SOL    HW278267   0.716   5.866   8.358  0.9723  0.1985  0.1799
55985SOL     OW78268   6.939  11.730   4.519 -0.5045 -0.4909  0.2114
55985SOL    HW178269   6.918  11.767   4.605 -0.5033 -2.2524  1.0199
55985SOL    HW278270   6.919  11.800   4.457  1.1994  1.5031  1.7350
55986SOL     OW78271   6.349   3.764   1.953  0.1988  0.7971 -0.0110
55986SOL    HW178272   6.258   3.738   1.959  0.1272  0.7539 -1.0018
55986SOL    HW278273   6.352   3.823   1.877  1.1016  0.2582 -0.4188
55987SOL     OW78274   2.409   2.013   1.445 -0.5083  0.0498  0.2358
55987SOL    HW178275   2.359   2.095   1.448  0.0266  0.4191 -0.5509
55987SOL    HW278276   2.344   1.944   1.458 -1.3023  0.5020 -1.1207
55988SOL     OW78277  10.330  10.442  12.226  0.2923  0.7455  0.1049
55988SOL    HW178278  10.281  10.486  12.157  0.2508  1.8421  0.8006
55988SOL    HW278279  10.407  10.497  12.239  0.7411  0.0675  0.3228
55989SOL     OW78280  10.637   6.849  12.105 -0.8599 -0.0736  0.2448
55989SOL    HW178281  10.556   6.846  12.055 -0.0295  1.3136 -1.2836
55989SOL    HW278282  10.629   6.928  12.159 -1.3311 -1.0251  1.6188
55990SOL     OW78283  12.740  11.155   5.170 -0.5865  0.0516 -0.1584
55990SOL    HW178284  12.781  11.211   5.236 -0.2038  0.8307 -1.0319
55990SOL    HW278285  12.677  11.213   5.126 -0.9940 -0.5203 -0.3449
55991SOL     OW78286   5.304   0.209   5.050  0.3625 -0.6965 -0.2867
55991SOL    HW178287   5.335   0.297   5.071 -1.2449 -0.2530  0.4022
55991SOL    HW278288   5.360   0.180   4.978  2.2763  0.0495  0.8265
55992SOL     OW78289   9.353   1.148   4.863 -0.2832  0.0004 -0.8189
55992SOL    HW178290   9.415   1.176   4.795  0.2290 -0.7388 -0.6694
55992SOL    HW278291   9.286   1.099   4.816  0.5645 -1.3058 -0.6939
55993SOL     OW78292  10.742   9.701   5.005  0.0518 -0.3619  0.1980
55993SOL    HW178293  10.811   9.636   5.016  0.0447 -0.2436  0.9920
55993SOL    HW278294  10.735   9.713   4.910  0.9418 -0.5615  0.0974
55994SOL     OW78295  10.444  11.562   1.270 -0.1353 -0.0039 -0.1184
55994SOL    HW178296  10.415  11.651   1.252  1.5508  0.5896 -0.0734
55994SOL    HW278297  10.532  11.557   1.231  0.6781 -0.9446  1.7002
55995SOL     OW78298   4.937   4.884   4.458 -0.0545  0.5632  0.1155
55995SOL    HW178299   5.008   4.936   4.497  1.0987 -0.7264 -0.1685
55995SOL    HW278300   4.945   4.900   4.364  0.3100 -0.1118  0.0263
55996SOL     OW78301   3.217   5.649   4.193 -0.2394 -0.3287 -0.2536
55996SOL    HW178302   3.207   5.569   4.245  1.1272 -0.3002  0.1154
55996SOL    HW278303   3.298   5.634   4.143  0.6451  1.2318  0.6424
55997SOL     OW78304   9.786   7.988   2.053  0.4077 -0.1018 -0.0657
55997SOL    HW178305   9.703   8.036   2.060  0.4394  0.2553 -1.6596
55997SOL    HW278306   9.846   8.035   2.111 -0.0929  0.5943 -0.0923
55998SOL     OW78307   5.509  11.354  11.264 -0.0069 -0.0474 -0.0091
55998SOL    HW178308   5.585  11.401  11.299 -1.0216  1.8002 -0.1756
55998SOL    HW278309   5.501  11.276  11.319  1.2027  0.4129  0.8603
55999SOL     OW78310  12.955   0.755   6.515 -0.2155 -0.1170  0.6711
55999SOL    HW178311  12.874   0.717   6.550  0.5897 -0.6008  2.0631
55999SOL    HW278312  13.018   0.683   6.518  0.3581  0.3387 -0.1369
56000SOL     OW78313   8.166   3.625   1.806 -0.9077 -0.1320 -0.0822
56000SOL    HW178314   8.106   3.688   1.766  0.1691 -0.0138 -1.6009
56000SOL    HW278315   8.167   3.552   1.744  1.6522  0.5110 -0.9065
56001SOL     OW78316   2.971   7.077   0.250 -0.5035  0.8207 -0.5465
56001SOL    HW178317   2.906   7.010   0.228 -1.2360  0.8873  1.2317
56001SOL    HW278318   2.919   7.154   0.273  0.2939  1.6315 -1.3775
56002SOL     OW78319   7.571   9.417   5.439  0.4756 -0.1973 -0.1185
56002SOL    HW178320   7.621   9.491   5.403  0.1924 -1.0140 -2.3106
56002SOL    HW278321   7.616   9.397   5.521  1.2564  1.6660 -0.0203
56003SOL     OW78322   9.288   6.500   1.787 -0.0092 -0.4477 -0.5820
56003SOL    HW178323   9.351   6.439   1.749  0.2243 -0.6074  0.0391
56003SOL    HW278324   9.220   6.509   1.721  1.6680  1.3546 -2.1732
56004SOL     OW78325   3.619   6.388  10.486  0.0381  0.4916  0.1440
56004SOL    HW178326   3.714   6.393  10.496  0.0333 -0.3676  0.7391
56004SOL    HW278327   3.588   6.477  10.505  0.6486  0.5698  0.8180
56005SOL     OW78328   0.084  11.331   7.081  0.6364 -0.0493 -0.2864
56005SOL    HW178329   0.135  11.270   7.027 -1.8716 -2.0320 -0.5594
56005SOL    HW278330   0.096  11.416   7.037  0.8227 -1.1121 -2.4360
56006SOL     OW78331   1.389   5.489  10.325 -0.4634  0.5103 -0.5417
56006SOL    HW178332   1.409   5.571  10.370 -0.5233  0.5907 -0.6609
56006SOL    HW278333   1.441   5.493  10.245 -0.6978  0.5690 -0.6927
56007SOL     OW78334   8.672   8.000   8.427 -0.8502  0.8264  0.3912
56007SOL    HW178335   8.610   7.953   8.483 -0.7956 -3.2219 -2.5369
56007SOL    HW278336   8.620   8.025   8.351  0.6597 -1.7148 -1.6271
56008SOL     OW78337   9.970  12.376   9.502  0.7871  0.2018 -0.3922
56008SOL    HW178338  10.002  12.333   9.581  1.5021  0.7013 -0.3935
56008SOL    HW278339   9.983  12.311   9.433 -0.7183 -0.5857  0.0307
56009SOL     OW78340  12.800  11.026   6.623  0.1561  0.5086 -0.0084
56009SOL    HW178341  12.835  11.100   6.672  0.1803 -0.6571  1.8519
56009SOL    HW278342  12.805  11.052   6.531  0.9458  2.4444  0.5501
56010SOL     OW78343   2.573  10.781  11.205 -0.0340 -0.6534  0.0258
56010SOL    HW178344   2.514  10.809  11.275  2.6047  0.9396  1.8378
56010SOL    HW278345   2.560  10.687  11.198 -4.2473 -0.1811 -1.2725
56011SOL     OW78346  10.444   2.122  10.730  0.3972 -0.3471 -0.0172
56011SOL    HW178347  10.389   2.142  10.806  1.0282 -0.3760  0.4530
56011SOL    HW278348  10.382   2.114  10.657 -0.1702  0.1461  0.3993
56012SOL     OW78349   1.842  12.232  11.330 -0.1981 -0.0006 -0.1223
56012SOL    HW178350   1.900  12.290  11.282 -1.8801  1.2855 -0.6817
56012SOL    HW278351   1.867  12.244  11.422  1.4556 -0.7051 -0.4437
56013SOL     OW78352   1.588   7.819   7.926  0.4154 -0.1293  0.2779
56013SOL    HW178353   1.586   7.737   7.974  1.2196 -0.2154  0.1894
56013SOL    HW278354   1.527   7.876   7.973  1.3950 -0.1116  1.5986
56014SOL     OW78355   8.018   0.677   0.520  0.1808  0.6760 -0.0397
56014SOL    HW178356   8.109   0.657   0.499  0.4844  0.9875  0.9197
56014SOL    HW278357   7.994   0.746   0.457  0.7362  0.8798 -0.0375
56015SOL     OW78358   3.291   3.883  10.328 -0.1279 -0.3115  0.2670
56015SOL    HW178359   3.224   3.824  10.293  0.5817 -0.9604 -0.0091
56015SOL    HW278360   3.318   3.936  10.253  0.2487 -0.6121  0.1869
56016SOL     OW78361   7.566  10.847  12.187  0.1269 -0.3231  0.2522
56016SOL    HW178362   7.514  10.926  12.198  1.4506  0.4482  1.3285
56016SOL    HW278363   7.595  10.824  12.275  1.6248 -0.6791 -0.2893
56017SOL     OW78364   0.069   2.010   3.507 -0.5911 -0.7013  0.0327
56017SOL    HW178365   0.017   2.041   3.433 -0.3259  1.1506  0.5611
56017SOL    HW278366   0.082   1.917   3.490 -1.2641 -0.5069 -1.7996
56018SOL     OW78367   1.947   3.693  11.571 -0.2897 -0.3616  0.3893
56018SOL    HW178368   1.953   3.746  11.651 -0.7074  0.4901 -0.1328
56018SOL    HW278369   1.870   3.727  11.526  0.1807 -0.5514 -0.5792
56019SOL     OW78370   0.114  12.854  12.956  0.3752  0.4938 -0.1198
56019SOL    HW178371   0.207  12.863  12.936  0.7466 -2.2204  0.0823
56019SOL    HW278372   0.072  12.850  12.870  0.4079  1.6419 -0.2109
56020SOL     OW78373   8.737   3.207   7.413  0.0461 -0.3418 -0.0201
56020SOL    HW178374   8.645   3.212   7.389  0.1687  0.7875 -0.3215
56020SOL    HW278375   8.779   3.164   7.338 -0.0920  0.0426 -0.3204
56021SOL     OW78376   4.053   5.728   4.240 -0.3088 -0.3441 -0.1181
56021SOL    HW178377   4.006   5.781   4.305 -1.4153  0.1374 -1.2749
56021SOL    HW278378   4.142   5.761   4.242 -0.9881  1.6475 -0.8609
56022SOL     OW78379  11.125  10.091   5.020 -0.3483  0.1989 -0.1977
56022SOL    HW178380  11.195  10.028   5.037  1.8724  2.5584  0.0332
56022SOL    HW278381  11.045  10.039   5.020  1.4238 -2.7603 -1.0831
56023SOL     OW78382   4.582  12.491   3.954 -0.2299 -0.2632  0.3663
56023SOL    HW178383   4.596  12.429   3.882  0.9277 -1.1533  1.3121
56023SOL    HW278384   4.492  12.474   3.982 -0.3966 -0.5243 -0.2995
56024SOL     OW78385  10.822  10.130  12.842 -0.7064 -0.6361 -0.0347
56024SOL    HW178386  10.818  10.083  12.759  3.1156  1.4786 -1.6905
56024SOL    HW278387  10.786  10.217  12.822 -1.6198 -0.7320  1.1134
56025SOL     OW78388   8.633  10.036   2.652 -0.2099  0.1461 -0.1652
56025SOL    HW178389   8.580  10.048   2.731 -1.8230 -2.4962 -0.6951
56025SOL    HW278390   8.570  10.008   2.585  1.4081  0.2366 -1.8101
56026SOL     OW78391   9.848   9.712   3.748  0.4681 -0.1119 -0.3175
56026SOL    HW178392   9.833   9.790   3.801  0.5707 -0.1752 -0.1946
56026SOL    HW278393   9.918   9.665   3.794 -0.7081 -1.1118  0.5179
56027SOL     OW78394  11.279   8.033   1.495 -0.3769 -0.6098 -0.2209
56027SOL    HW178395  11.326   8.085   1.560  1.7390  1.0953 -2.9617
56027SOL    HW278396  11.205   8.087   1.469 -1.2581 -1.3175  0.6964
56028SOL     OW78397   3.892   3.172  10.142 -0.3084 -0.5616  0.2738
56028SOL    HW178398   3.974   3.158  10.095 -1.5669 -1.4114 -1.8135
56028SOL    HW278399   3.885   3.096  10.200  0.6650 -0.1535  0.9530
56029SOL     OW78400  10.732   7.051  11.355  0.2454 -0.0761  0.4590
56029SOL    HW178401  10.646   7.040  11.395  0.4306 -1.7034  0.4989
56029SOL    HW278402  10.780   7.106  11.416 -1.1748  2.0593 -0.2514
56030SOL     OW78403   1.965   4.873  12.733 -0.4822 -0.0092 -0.1089
56030SOL    HW178404   2.040   4.845  12.681 -0.6677  0.7739 -0.8098
56030SOL    HW278405   1.967   4.816  12.810 -0.1229 -1.0899 -0.8944
56031SOL     OW78406   1.986   5.475   3.085 -0.1180 -0.1595 -0.1737
56031SOL    HW178407   2.078   5.502   3.081  0.1884 -0.7867  1.6177
56031SOL    HW278408   1.942   5.530   3.020  0.8836  2.8629  1.5329
56032SOL     OW78409   8.874  12.443  10.917 -0.2648 -0.2314  0.4769
56032SOL    HW178410   8.903  12.476  11.002  2.3443 -0.1692 -0.3362
56032SOL    HW278411   8.838  12.357  10.935 -0.7252  0.2130  1.7591
56033SOL     OW78412   3.390   1.067   5.005  0.2255  0.1440  0.1558
56033SOL    HW178413   3.323   1.071   4.936  1.8495  0.9457 -1.4637
56033SOL    HW278414   3.364   1.134   5.067 -0.6743  0.1816 -0.2396
56034SOL     OW78415   9.772   3.324   1.240  0.2348  0.2664  0.1273
56034SOL    HW178416   9.732   3.388   1.181  1.2319  0.3464 -0.4827
56034SOL    HW278417   9.825   3.268   1.183 -0.4546 -0.9909  0.6774
56035SOL     OW78418   2.128  10.492   5.036 -0.2196  0.2860  0.0702
56035SOL    HW178419   2.204  10.550   5.031 -1.2753  1.6705 -0.7149
56035SOL    HW278420   2.071  10.523   4.965 -0.2425 -2.6084 -1.2968
56036SOL     OW78421  11.421   9.090   4.419 -0.0614  0.5513  0.8316
56036SOL    HW178422  11.341   9.134   4.447 -0.3336 -0.4774  1.7652
56036SOL    HW278423  11.393   9.002   4.395  0.6888  0.3965  0.4923
56037SOL     OW78424   2.758   5.134  10.466 -0.6744  0.4070  0.7400
56037SOL    HW178425   2.800   5.088  10.394  1.0914 -0.9492  2.5477
56037SOL    HW278426   2.811   5.213  10.478 -1.9889  1.5359 -0.4795
56038SOL     OW78427   1.816   8.935   8.870  0.2244 -0.8840  0.5328
56038SOL    HW178428   1.791   8.847   8.839  1.2610 -1.0470  0.1060
56038SOL    HW278429   1.896   8.955   8.822  0.8168 -0.3179  1.7122
56039SOL     OW78430   9.076   5.529   5.599 -0.4655  0.5774  0.2641
56039SOL    HW178431   9.092   5.503   5.509  1.0188 -0.8824  0.8977
56039SOL    HW278432   9.084   5.625   5.599 -1.1955  0.6573 -1.2536
56040SOL     OW78433  12.845  11.787  11.525  0.1475 -0.1575 -0.1754
56040SOL    HW178434  12.793  11.785  11.605 -1.2799  3.2652 -0.8683
56040SOL    HW278435  12.929  11.826  11.551  0.7298 -1.5180  0.0842
56041SOL     OW78436  11.979   1.148   7.349 -0.1791  0.2794  0.6032
56041SOL    HW178437  12.028   1.231   7.348 -1.0966  0.8426 -0.9159
56041SOL    HW278438  11.994   1.110   7.263 -0.1802 -0.9168  1.1081
56042SOL     OW78439   1.738   6.600  10.767  0.1551  0.4156  0.1495
56042SOL    HW178440   1.781   6.517  10.745 -0.8901 -0.2121  0.3836
56042SOL    HW278441   1.810   6.661  10.785  0.9469 -0.8200  1.3591
56043SOL     OW78442   1.200   9.919  10.327  0.0792 -0.1794  0.2425
56043SOL    HW178443   1.227   9.841  10.278 -0.1856  0.1494 -0.4440
56043SOL    HW278444   1.254   9.919  10.405  0.0158 -1.1065  0.2934
56044SOL     OW78445   1.478  10.785   8.034 -0.0475 -0.0119  0.3848
56044SOL    HW178446   1.528  10.707   8.058 -0.7213 -0.6116 -0.1370
56044SOL    HW278447   1.520  10.817   7.955 -0.8195 -0.8517 -0.3890
56045SOL     OW78448  12.512  11.616   2.355  0.4998  0.8231  0.4170
56045SOL    HW178449  12.467  11.640   2.437  0.1477  0.3903  0.3530
56045SOL    HW278450  12.441  11.601   2.293  0.7316  0.1120  0.3215
56046SOL     OW78451  11.108   1.264   8.511 -0.2376  0.3597 -0.4706
56046SOL    HW178452  11.068   1.182   8.483  0.7132 -0.0438 -0.6885
56046SOL    HW278453  11.202   1.245   8.514 -0.1922  0.4726  2.6298
56047SOL     OW78454   6.882   1.305   7.002 -0.4058  0.0281 -0.0497
56047SOL    HW178455   6.970   1.302   6.965  0.0682  0.6703  0.9788
56047SOL    HW278456   6.855   1.213   7.006 -0.1698 -0.1097 -1.2330
56048SOL     OW78457   0.913   6.795   0.204  0.0005 -0.1837 -0.0517
56048SOL    HW178458   0.905   6.701   0.189 -0.0731 -0.3912  1.2381
56048SOL    HW278459   0.867   6.835   0.130  2.9182 -1.0566 -2.5316
56049SOL     OW78460  12.440   4.428   5.132 -0.2799 -0.0822 -0.0723
56049SOL    HW178461  12.350   4.420   5.161 -0.6050  2.7026  0.0056
56049SOL    HW278462  12.435   4.422   5.037 -0.7053  0.9917 -0.1273
56050SOL     OW78463  12.829   6.117   0.830 -0.3197  0.3473 -0.6264
56050SOL    HW178464  12.813   6.122   0.925 -0.0323  0.0577 -0.5613
56050SOL    HW278465  12.797   6.030   0.806 -0.0723  0.2874 -0.7345
56051SOL     OW78466  11.509   4.215   4.693  0.1984  0.1749 -0.2443
56051SOL    HW178467  11.478   4.139   4.643  1.3110 -0.4955  0.0491
56051SOL    HW278468  11.489   4.290   4.637 -1.2472 -0.2919 -0.3809
56052SOL     OW78469   6.284  12.596   2.520  0.3144 -0.0548  0.2108
56052SOL    HW178470   6.286  12.582   2.426 -0.0202 -1.8333  0.4275
56052SOL    HW278471   6.375  12.617   2.543  0.5740 -0.4517 -0.4167
56053SOL     OW78472   3.378   4.741  10.077 -0.4302  0.0721  0.1832
56053SOL    HW178473   3.373   4.693   9.995 -0.1257  0.0358  0.1860
56053SOL    HW278474   3.315   4.813  10.066 -0.5176 -0.0335 -0.0137
56054SOL     OW78475   0.754  10.566  11.107  0.1752 -0.4201 -0.6647
56054SOL    HW178476   0.793  10.493  11.058 -2.5010 -2.4427  0.0177
56054SOL    HW278477   0.660  10.548  11.107 -0.5514  2.7880  0.0262
56055SOL     OW78478   2.776   0.253   7.506  0.4560  0.0018  0.2418
56055SOL    HW178479   2.749   0.344   7.495 -1.1200 -0.3937  0.5788
56055SOL    HW278480   2.872   0.256   7.510  0.3962  1.9114  2.5025
56056SOL     OW78481   7.955   8.373  12.523 -0.2835 -0.4608 -0.3380
56056SOL    HW178482   7.965   8.450  12.467 -0.8253  1.4140  2.0255
56056SOL    HW278483   8.000   8.395  12.604  1.2027 -3.4323 -0.2244
56057SOL     OW78484   6.058   0.350   7.162 -0.5085 -0.5324 -0.5965
56057SOL    HW178485   6.131   0.289   7.146 -0.0918 -0.0840 -0.4280
56057SOL    HW278486   6.041   0.389   7.076  0.2970  0.2914 -0.3935
56058SOL     OW78487   8.658   9.640  12.774  0.1781  0.7649  0.0802
56058SOL    HW178488   8.685   9.549  12.782  0.4187  0.7169 -1.1703
56058SOL    HW278489   8.582   9.637  12.716 -0.2778  1.2852  0.6411
56059SOL     OW78490   1.744   5.907   1.331  0.1476 -0.8480  0.3510
56059SOL    HW178491   1.776   5.830   1.377  1.4332 -0.3563  0.3183
56059SOL    HW278492   1.802   5.978   1.358 -0.0331 -0.2230 -0.8036
56060SOL     OW78493   3.904  10.953   4.785 -0.0070 -0.8670  0.0156
56060SOL    HW178494   3.990  10.927   4.817 -1.2451 -3.6990  1.2914
56060SOL    HW278495   3.870  11.011   4.853  0.1712 -1.1916  0.3829
56061SOL     OW78496   3.531   0.733   6.295  0.1274  0.1235 -0.2944
56061SOL    HW178497   3.477   0.730   6.216 -0.0114 -2.4650 -0.1952
56061SOL    HW278498   3.470   0.718   6.367  0.8856 -3.1961 -0.2080
56062SOL     OW78499   6.620  12.376   8.567  0.3443  0.0573  0.5778
56062SOL    HW178500   6.649  12.322   8.494 -0.7619 -1.6135  1.3149
56062SOL    HW278501   6.659  12.462   8.551  1.5126 -0.7405 -1.0504
56063SOL     OW78502   7.139   8.086   9.875  0.2989 -1.1575  0.0019
56063SOL    HW178503   7.198   8.160   9.888 -1.5880  0.1745  1.6797
56063SOL    HW278504   7.112   8.092   9.783  0.3336  0.1357  0.0594
56064SOL     OW78505  11.755   3.293   1.435  0.4618 -0.2654 -0.5773
56064SOL    HW178506  11.838   3.262   1.400  1.1591  1.1131 -0.1715
56064SOL    HW278507  11.775   3.327   1.522 -0.5797 -0.1905 -0.3450
56065SOL     OW78508   8.404   1.926   0.343 -0.4801  0.0778  0.1191
56065SOL    HW178509   8.492   1.963   0.336 -0.6537  0.4306 -0.2418
56065SOL    HW278510   8.400   1.889   0.431  0.0380  0.0347  0.1256
56066SOL     OW78511  10.471   2.215   4.033 -0.4853 -0.1365 -0.2634
56066SOL    HW178512  10.545   2.272   4.009 -0.6525 -0.6005 -2.0621
56066SOL    HW278513  10.512   2.138   4.072 -0.0196 -0.2512 -0.9590
56067SOL     OW78514   6.017   0.470   3.635  0.6514 -0.0719 -0.3700
56067SOL    HW178515   6.038   0.514   3.717  0.6610 -1.2528  0.2854
56067SOL    HW278516   6.083   0.400   3.627  0.4709 -0.1594 -1.2266
56068SOL     OW78517   8.093  10.143   4.354  0.2599  0.3560 -0.0752
56068SOL    HW178518   8.133  10.142   4.441 -0.4170  2.6556  0.3345
56068SOL    HW278519   7.999  10.138   4.371  0.1321  0.6248 -0.6768
56069SOL     OW78520  10.820   2.960   9.826  0.8183  0.2908 -0.5793
56069SOL    HW178521  10.838   2.954   9.920 -2.0798  0.8655  0.1123
56069SOL    HW278522  10.872   2.890   9.787  2.7980  0.6007  1.2905
56070SOL     OW78523   9.240   4.332   1.655 -0.1246  0.2631 -0.5047
56070SOL    HW178524   9.308   4.355   1.592 -0.5871  1.8241 -0.4944
56070SOL    HW278525   9.218   4.241   1.635  2.0189 -0.3286 -0.4202
56071SOL     OW78526   2.127   4.578   7.526  0.1126  0.6285 -0.0750
56071SOL    HW178527   2.151   4.641   7.594 -0.7253  0.9207 -0.0315
56071SOL    HW278528   2.057   4.621   7.477 -1.8719 -0.9915  1.1651
56072SOL     OW78529   2.807   4.849  11.604 -0.2361 -0.0950  0.4727
56072SOL    HW178530   2.875   4.789  11.573 -0.3968 -1.8677  3.2062
56072SOL    HW278531   2.852   4.933  11.616  1.0727 -0.8016  0.6798
56073SOL     OW78532  12.566   9.965   2.354  0.0381 -1.1585 -0.1815
56073SOL    HW178533  12.631  10.001   2.294 -1.2566 -0.6813 -1.3309
56073SOL    HW278534  12.607   9.973   2.440  0.7897  0.7791 -0.6687
56074SOL     OW78535   4.864  11.492   2.062 -0.2178 -0.0874 -0.1989
56074SOL    HW178536   4.831  11.402   2.072  1.2768 -0.4981  1.7809
56074SOL    HW278537   4.804  11.546   2.113 -0.8725 -0.0004 -1.0409
56075SOL     OW78538   6.697   6.305   3.925 -0.3846 -0.1556 -0.6307
56075SOL    HW178539   6.750   6.257   3.862  0.5419 -0.1204  0.1050
56075SOL    HW278540   6.662   6.378   3.875 -1.4018 -1.2897 -1.6321
56076SOL     OW78541   8.356   9.472   2.265 -0.1406  0.3894 -0.0824
56076SOL    HW178542   8.273   9.447   2.304  0.2078 -2.6637 -1.0435
56076SOL    HW278543   8.398   9.529   2.330 -1.8875 -0.0702  1.5058
56077SOL     OW78544  12.930   3.557   3.903  0.6061  0.1305 -0.0143
56077SOL    HW178545  13.022   3.535   3.914  1.0716  1.6838 -0.6119
56077SOL    HW278546  12.919   3.640   3.951 -0.9698 -1.0087  1.7892
56078SOL     OW78547   3.132  11.590   6.029 -0.1545 -0.1357 -0.1728
56078SOL    HW178548   3.138  11.510   5.978 -0.2254 -0.5998  0.5296
56078SOL    HW278549   3.052  11.580   6.080 -0.8495  0.9492 -1.0109
56079SOL     OW78550  10.343   9.577  12.083  0.3391  0.4930  0.1850
56079SOL    HW178551  10.334   9.574  11.988  2.2253  0.9234 -0.0372
56079SOL    HW278552  10.386   9.495  12.106 -1.4802 -0.3213  0.8864
56080SOL     OW78553   6.431   7.155   1.290  0.3633 -0.2076  0.0229
56080SOL    HW178554   6.343   7.126   1.314  0.0639 -0.1851 -1.0242
56080SOL    HW278555   6.479   7.155   1.373 -0.2543 -1.4822  0.4004
56081SOL     OW78556   7.670   1.166   2.892  0.2183  0.3002  0.7103
56081SOL    HW178557   7.736   1.193   2.955  0.0515  0.8879  0.6356
56081SOL    HW278558   7.639   1.081   2.924  1.1729 -0.0952  0.6192
56082SOL     OW78559  10.902   4.017   0.568  0.4869 -0.3151  0.0504
56082SOL    HW178560  10.809   3.998   0.580 -0.7629  3.0713 -2.7229
56082SOL    HW278561  10.921   4.085   0.633  0.7593 -0.3148 -0.0294
56083SOL     OW78562   3.567   0.557   8.536  0.1716  0.3587 -0.1867
56083SOL    HW178563   3.530   0.493   8.597 -1.1402 -0.5177 -1.8363
56083SOL    HW278564   3.661   0.537   8.534 -0.0094 -0.6029  0.3724
56084SOL     OW78565  11.193   8.441   9.503  0.4128 -0.7117 -0.3880
56084SOL    HW178566  11.143   8.500   9.447  1.4407  0.1408 -0.4274
56084SOL    HW278567  11.250   8.393   9.443  0.5821 -0.7291 -0.2154
56085SOL     OW78568  12.336   1.140   5.119  0.1380 -0.6175  0.4511
56085SOL    HW178569  12.258   1.163   5.171 -1.5285 -0.2746 -2.0040
56085SOL    HW278570  12.301   1.118   5.033  2.8383  0.0161 -0.9093
56086SOL     OW78571  11.491  10.092   6.190  0.1471  0.3477 -0.0187
56086SOL    HW178572  11.449  10.085   6.275 -0.2530  0.9109 -0.1657
56086SOL    HW278573  11.555  10.162   6.200 -0.5306  1.0431 -0.4283
56087SOL     OW78574   7.206   2.090   3.239  0.4522  0.7466 -0.0151
56087SOL    HW178575   7.167   2.051   3.161  0.1046 -1.6438  1.2781
56087SOL    HW278576   7.298   2.062   3.237  0.1930 -0.2606  0.9401
56088SOL     OW78577   9.678   5.057   8.022 -0.0039  0.2903 -0.2852
56088SOL    HW178578   9.717   5.081   8.106 -0.3239 -3.3950  1.1267
56088SOL    HW278579   9.738   4.991   7.986 -1.1376  0.0023 -1.7460
56089SOL     OW78580  12.118   4.834   7.630  0.1244 -0.3629 -0.3030
56089SOL    HW178581  12.141   4.838   7.723 -0.7077  0.1790 -0.1112
56089SOL    HW278582  12.187   4.884   7.586  0.9727 -1.3100 -0.0765
56090SOL     OW78583   3.516   1.524  12.265 -0.3010 -0.1197 -0.0048
56090SOL    HW178584   3.492   1.494  12.352  0.8821 -0.0927  0.3353
56090SOL    HW278585   3.610   1.512  12.259  0.0475  2.2594 -0.3536
56091SOL     OW78586   8.883   9.610   4.459 -0.2912 -0.5429 -0.3112
56091SOL    HW178587   8.947   9.669   4.419 -0.9619 -1.2471 -2.5729
56091SOL    HW278588   8.864   9.545   4.391 -0.5298 -2.6611  1.6425
56092SOL     OW78589   0.621   1.702   2.466  0.2294  0.1077  1.0130
56092SOL    HW178590   0.687   1.761   2.504  0.5082 -0.5754  1.6161
56092SOL    HW278591   0.625   1.624   2.521 -0.5173 -0.2611  0.5491
56093SOL     OW78592   5.359   2.101  12.271  0.1947 -0.3020 -0.7700
56093SOL    HW178593   5.365   2.172  12.335  0.4810 -1.1520  0.1673
56093SOL    HW278594   5.397   2.025  12.316 -0.6436 -1.1925 -1.5314
56094SOL     OW78595   8.503  11.258   8.135  0.3657 -0.6669 -0.1069
56094SOL    HW178596   8.588  11.274   8.175  1.0085  1.9419 -2.2646
56094SOL    HW278597   8.520  11.196   8.065  0.8208  0.8462 -1.3868
56095SOL     OW78598   5.417  10.830   2.883  0.6232  0.0592  0.0015
56095SOL    HW178599   5.331  10.819   2.843  1.0713 -1.4094 -0.6285
56095SOL    HW278600   5.473  10.859   2.811  1.0332 -0.7828 -0.0298
56096SOL     OW78601   9.262  11.172   1.752  0.7294  0.2522 -0.2659
56096SOL    HW178602   9.312  11.108   1.803 -0.7827 -0.6977  0.1018
56096SOL    HW278603   9.256  11.133   1.665 -0.3077 -0.2021 -0.0063
56097SOL     OW78604   1.742   5.772   4.376 -0.1566  0.1125  0.1475
56097SOL    HW178605   1.705   5.731   4.297 -0.6027 -1.5136  1.1366
56097SOL    HW278606   1.692   5.852   4.387 -0.5695  0.0054 -0.8357
56098SOL     OW78607  11.132   6.305   3.059 -0.9405 -1.1398  0.3420
56098SOL    HW178608  11.037   6.291   3.061 -1.3792  1.2306 -0.5953
56098SOL    HW278609  11.163   6.245   2.991 -1.7160 -2.0701  0.7799
56099SOL     OW78610   4.412   9.931   5.015 -0.0445 -0.0599 -0.1605
56099SOL    HW178611   4.415  10.024   4.992  0.7595 -0.1774 -0.6024
56099SOL    HW278612   4.489   9.918   5.071  0.1177 -0.5422 -0.4837
56100SOL     OW78613   0.768   2.583   0.278  0.3365 -0.0836  0.5768
56100SOL    HW178614   0.693   2.594   0.337  0.1180 -0.3189  0.3454
56100SOL    HW278615   0.803   2.497   0.298 -0.0764 -0.4001 -0.0089
56101SOL     OW78616   0.709   6.728   9.016 -0.4441 -0.1835  0.2857
56101SOL    HW178617   0.752   6.780   9.085  0.2467 -0.1602 -0.1482
56101SOL    HW278618   0.781   6.698   8.961 -0.9838 -0.2747 -0.3803
56102SOL     OW78619  12.278   4.363  11.852 -0.1481  0.2137  0.5186
56102SOL    HW178620  12.322   4.336  11.933 -1.2538 -0.4853  0.9037
56102SOL    HW278621  12.338   4.338  11.782 -0.6217 -2.2817  0.9323
56103SOL     OW78622   0.462   6.778   9.801 -0.1913  0.2545 -0.1011
56103SOL    HW178623   0.463   6.726   9.881 -1.0923 -2.7927 -1.9284
56103SOL    HW278624   0.370   6.800   9.788 -0.0788  0.5559 -0.4198
56104SOL     OW78625   3.002  10.275   5.352  0.4627  0.6292  0.0605
56104SOL    HW178626   3.097  10.279   5.364  0.4763  0.7940 -0.0849
56104SOL    HW278627   2.991  10.250   5.260  0.3639 -0.2417  0.3070
56105SOL     OW78628   5.592   0.343   9.298 -0.0232 -0.1813  0.1307
56105SOL    HW178629   5.542   0.372   9.375  2.2128  0.6267  1.3858
56105SOL    HW278630   5.591   0.248   9.303 -0.9295 -0.1669  0.4423
56106SOL     OW78631  11.267  11.058   6.129 -0.1175 -0.3230  0.4202
56106SOL    HW178632  11.186  11.110   6.129 -0.5754 -0.9956  1.5623
56106SOL    HW278633  11.265  11.011   6.213 -0.4343 -3.2415 -1.0762
56107SOL     OW78634   9.352   9.288  10.979 -0.3705 -0.1093 -0.0787
56107SOL    HW178635   9.314   9.242  11.054 -1.6445  1.9305  0.6285
56107SOL    HW278636   9.445   9.297  11.000 -0.2180 -1.7230  0.0458
56108SOL     OW78637   3.674   3.298   0.812  0.1204 -0.7795  0.0816
56108SOL    HW178638   3.635   3.306   0.726  1.6080 -1.2958 -0.6861
56108SOL    HW278639   3.716   3.382   0.828 -1.9726  0.0935  1.2951
56109SOL     OW78640   1.746   3.646  12.122  0.6236  0.3521 -0.7213
56109SOL    HW178641   1.737   3.606  12.209 -0.7029  0.7055 -0.6765
56109SOL    HW278642   1.808   3.590  12.076  0.3154 -0.6166  0.0133
56110SOL     OW78643   6.045  12.823   0.400  0.0285 -0.0190  0.6680
56110SOL    HW178644   5.967  12.771   0.382  1.1978 -2.1169  1.3503
56110SOL    HW278645   6.073  12.855   0.314 -1.2364  0.2844  0.3508
56111SOL     OW78646  11.527   4.060   3.178  0.6158 -0.1298  0.1987
56111SOL    HW178647  11.561   3.998   3.114  3.0900  1.3851 -0.0942
56111SOL    HW278648  11.605   4.103   3.214 -0.9027  2.6413  0.5065
56112SOL     OW78649   0.307   4.940   4.248  0.5507 -0.8885  0.0006
56112SOL    HW178650   0.312   4.900   4.335 -1.4814  1.1807  1.2117
56112SOL    HW278651   0.324   5.033   4.265  2.7543 -0.7696 -2.2994
56113SOL     OW78652   1.100   8.891  12.227 -0.3656  0.4218  0.0831
56113SOL    HW178653   1.017   8.937  12.210 -0.5205  0.6317  1.3566
56113SOL    HW278654   1.167   8.949  12.191 -0.6386  1.1521  0.7410
56114SOL     OW78655   6.170   3.707   9.110 -0.0195 -0.0327  0.2772
56114SOL    HW178656   6.076   3.717   9.093 -0.0280 -0.6259 -0.0504
56114SOL    HW278657   6.191   3.776   9.173 -0.7356 -0.0716  0.5645
56115SOL     OW78658  11.291   6.524   6.833  0.4434 -0.2785 -0.6662
56115SOL    HW178659  11.269   6.615   6.857  0.9641 -0.6634  1.4921
56115SOL    HW278660  11.382   6.529   6.802  1.3354 -0.3373  1.7417
56116SOL     OW78661   3.827  11.731   5.020  1.1230 -0.3311 -0.1844
56116SOL    HW178662   3.874  11.751   4.938  1.5731  0.6041  0.2843
56116SOL    HW278663   3.781  11.649   5.002  1.5909 -0.3819 -1.2221
56117SOL     OW78664  10.569   3.582  12.385  0.2673 -0.4230 -0.3156
56117SOL    HW178665  10.487   3.630  12.393  0.0881 -0.9966  2.0304
56117SOL    HW278666  10.626   3.641  12.335 -0.2850  1.8194  1.5309
56118SOL     OW78667  11.333   5.691   9.451  0.0986 -0.1492  0.7610
56118SOL    HW178668  11.407   5.714   9.395 -1.0864  2.0919 -0.0070
56118SOL    HW278669  11.258   5.690   9.392 -0.7000 -1.1374  1.7443
56119SOL     OW78670   8.033  10.093   9.909 -0.5725  0.0971 -0.2229
56119SOL    HW178671   7.944  10.059   9.913 -1.3095  2.0506  1.2002
56119SOL    HW278672   8.060  10.102  10.000  1.4102 -1.1308 -0.6050
56120SOL     OW78673   5.799   5.393   2.251  0.4678 -0.2408 -0.7578
56120SOL    HW178674   5.810   5.477   2.208 -0.5835  0.7436  0.8051
56120SOL    HW278675   5.726   5.406   2.312  1.7806 -1.5724  1.2295
56121SOL     OW78676   6.706   5.033   3.785  0.3474 -0.1949  0.0810
56121SOL    HW178677   6.719   5.085   3.705  0.7347 -0.0638  0.2296
56121SOL    HW278678   6.623   5.064   3.820  0.9632  0.9075  0.6068
56122SOL     OW78679  10.192   4.567   3.300  0.2703 -0.0694 -0.2100
56122SOL    HW178680  10.275   4.573   3.252  0.0061  1.2007 -0.5560
56122SOL    HW278681  10.170   4.474   3.300  1.7087 -0.4297 -0.0864
56123SOL     OW78682   3.043   8.310  12.833  0.3932  0.2140  0.0149
56123SOL    HW178683   3.129   8.275  12.857  0.0695 -0.6167  0.0247
56123SOL    HW278684   3.019   8.368  12.905  0.5549 -0.2578  0.4553
56124SOL     OW78685  12.232   5.754   8.846 -0.2988  0.4932  0.2418
56124SOL    HW178686  12.189   5.830   8.807 -1.1072 -0.2249 -0.2782
56124SOL    HW278687  12.265   5.787   8.930 -0.0038  1.6038 -0.2843
56125SOL     OW78688   5.974   4.718   4.289 -0.7274  0.1390 -0.2045
56125SOL    HW178689   6.030   4.790   4.261 -0.6425 -0.5093 -1.7498
56125SOL    HW278690   6.034   4.656   4.330 -0.3324 -0.3959 -1.5461
56126SOL     OW78691   2.689   0.781   9.605  0.2979  0.3235 -0.1884
56126SOL    HW178692   2.707   0.738   9.689 -0.5066  0.1057 -0.1236
56126SOL    HW278693   2.773   0.778   9.559 -0.1289 -3.2982 -1.0753
56127SOL     OW78694   6.959   1.064   5.564 -0.2469  0.2684  0.0817
56127SOL    HW178695   6.984   1.151   5.595 -2.4657  1.0865 -0.2034
56127SOL    HW278696   6.928   1.078   5.475  1.3635 -1.2205 -0.7766
56128SOL     OW78697  11.874   8.101   5.704 -0.0458 -0.1798  0.0591
56128SOL    HW178698  11.839   8.104   5.794  0.4878  0.1345  0.2602
56128SOL    HW278699  11.969   8.090   5.716 -0.1001 -1.4452 -0.4843
56129SOL     OW78700   3.154   5.872   0.721 -0.7528  0.4402 -0.1561
56129SOL    HW178701   3.087   5.939   0.734 -0.1576  1.1822 -0.7776
56129SOL    HW278702   3.107   5.789   0.727 -1.7908  0.9512 -0.9268
56130SOL     OW78703   1.683   8.485   3.068 -0.5088  0.4061  0.4614
56130SOL    HW178704   1.646   8.436   3.142  0.1757 -1.3631 -0.3106
56130SOL    HW278705   1.659   8.434   2.991  0.0173  1.4455 -0.4226
56131SOL     OW78706   3.085  10.759   6.739 -0.0147  0.2101 -0.3023
56131SOL    HW178707   3.052  10.748   6.828 -1.4200  1.7346 -0.5911
56131SOL    HW278708   3.176  10.730   6.743 -0.4156 -0.9334  1.3188
56132SOL     OW78709   4.126   4.220  12.986  0.2541  0.0029 -0.5345
56132SOL    HW178710   4.129   4.278  12.910 -0.6337  0.7342 -0.0365
56132SOL    HW278711   4.045   4.169  12.973 -1.5538  2.1853  1.3119
56133SOL     OW78712   8.318  12.508   9.161 -0.0812 -0.4670  0.2992
56133SOL    HW178713   8.273  12.557   9.230  1.2166 -0.0143  0.8619
56133SOL    HW278714   8.342  12.425   9.202  2.4223  0.5555  1.0976
56134SOL     OW78715   7.837   7.386   5.128  0.4274  0.1395  0.1653
56134SOL    HW178716   7.760   7.334   5.107  0.0997 -0.0207  1.6517
56134SOL    HW278717   7.910   7.324   5.122  0.1439 -0.2983  1.0511
56135SOL     OW78718  10.722   3.557   0.403  0.2412 -0.2973  0.4918
56135SOL    HW178719  10.791   3.615   0.373 -0.1769  1.0880  2.0472
56135SOL    HW278720  10.707   3.583   0.494  0.0123 -2.8318  1.2510
56136SOL     OW78721   1.226  10.670   0.364  0.3758 -0.1466  0.0162
56136SOL    HW178722   1.212  10.607   0.294 -0.5038 -2.0187  1.7796
56136SOL    HW278723   1.314  10.705   0.348  1.3025 -2.5396 -0.5202
56137SOL     OW78724   5.551   6.924   9.688 -0.1721  0.4657 -0.9138
56137SOL    HW178725   5.519   6.883   9.607  1.2260  0.7581 -1.6342
56137SOL    HW278726   5.558   6.852   9.750 -2.2801  0.3963 -0.6735
56138SOL     OW78727   5.295   3.390   6.195  0.1139  0.1079 -0.3586
56138SOL    HW178728   5.204   3.394   6.166  0.2950  0.0398 -0.9524
56138SOL    HW278729   5.302   3.306   6.241  0.0729 -0.2739 -1.0303
56139SOL     OW78730   2.862  12.880   2.227 -0.1777 -0.0316 -0.0721
56139SOL    HW178731   2.922  12.805   2.232 -2.0454 -1.5944 -0.1203
56139SOL    HW278732   2.805  12.861   2.153 -2.1113  0.3161  1.2432
56140SOL     OW78733   5.786   7.267   7.330 -0.2462  0.7031  0.1840
56140SOL    HW178734   5.864   7.298   7.375 -0.9538  1.0504  1.1994
56140SOL    HW278735   5.785   7.316   7.248 -0.0770  1.6433  0.7273
56141SOL     OW78736   2.339   6.737   2.185  0.3247  0.6295 -0.0150
56141SOL    HW178737   2.365   6.747   2.094  0.6770  2.0714  0.2209
56141SOL    HW278738   2.366   6.819   2.227 -0.1559  0.1399  1.3066
56142SOL     OW78739   3.130   1.754   0.355 -0.0222 -0.0997  0.3925
56142SOL    HW178740   3.146   1.704   0.435 -0.3472 -1.0886 -0.1442
56142SOL    HW278741   3.215   1.794   0.335  0.1096  0.0064  1.1210
56143SOL     OW78742  12.635   9.433   2.643 -0.0979  0.1038 -0.1596
56143SOL    HW178743  12.585   9.432   2.724 -0.9730  1.2100 -0.6439
56143SOL    HW278744  12.721   9.467   2.667  0.4036 -1.6342  0.6512
56144SOL     OW78745   0.424   6.914   9.270  0.8994  0.0719 -0.0737
56144SOL    HW178746   0.353   6.851   9.284  1.0333 -0.0486  0.0678
56144SOL    HW278747   0.403   6.955   9.186  1.0965 -0.5434 -0.4359
56145SOL     OW78748  11.764  11.678  12.318 -0.5885 -0.2086  0.0755
56145SOL    HW178749  11.676  11.644  12.306 -0.5073  0.2101 -2.0546
56145SOL    HW278750  11.819  11.600  12.325 -1.0636 -0.4682  1.0955
56146SOL     OW78751  10.408   7.856  10.709 -0.2323  0.0451  0.5262
56146SOL    HW178752  10.395   7.831  10.801  2.6675 -1.3092  0.6484
56146SOL    HW278753  10.322   7.844  10.669 -1.2358 -0.6864  2.7390
56147SOL     OW78754   0.767   1.120   7.903 -0.2601 -0.2758 -0.0652
56147SOL    HW178755   0.812   1.077   7.830 -4.2597 -4.0936 -0.6776
56147SOL    HW278756   0.797   1.072   7.981 -0.7080 -0.5320 -0.0471
56148SOL     OW78757   6.221   0.747  11.564  0.9959  0.1115 -0.1930
56148SOL    HW178758   6.263   0.723  11.647  0.9321  0.0955 -0.1655
56148SOL    HW278759   6.186   0.664  11.530 -2.2827  0.6093  1.5582
56149SOL     OW78760   6.092   7.081   5.014  0.0202  0.2040  0.2350
56149SOL    HW178761   6.169   7.046   4.969  0.1466  0.3395  0.3425
56149SOL    HW278762   6.107   7.176   5.017 -1.0504  0.4587 -1.4376
56150SOL     OW78763  12.834  11.795   3.768  0.3895 -0.0630  0.3462
56150SOL    HW178764  12.806  11.834   3.685  1.8293  1.5863  0.5860
56150SOL    HW278765  12.774  11.721   3.781  0.6300 -0.8946 -2.5577
56151SOL     OW78766   3.054   9.126   8.601 -0.2039  0.3965 -0.2262
56151SOL    HW178767   3.006   9.087   8.674  0.5358  0.6788  0.4314
56151SOL    HW278768   3.142   9.142   8.637 -1.1579  5.4351  0.5726
56152SOL     OW78769   0.288   0.208  12.967 -0.1802  0.1271 -0.0885
56152SOL    HW178770   0.245   0.161  13.039  1.3271 -1.4708 -0.1571
56152SOL    HW278771   0.349   0.267  13.011  1.0345 -1.1358  0.0298
56153SOL     OW78772   8.456   7.265   3.722  0.6656  1.2062  0.0109
56153SOL    HW178773   8.396   7.198   3.753 -0.9448  1.3531 -2.4955
56153SOL    HW278774   8.468   7.324   3.797 -1.9532  0.8893  0.7639
56154SOL     OW78775   3.342  11.606   8.543  0.0386  0.4292  0.3530
56154SOL    HW178776   3.263  11.568   8.581  0.8001 -2.4419 -0.6844
56154SOL    HW278777   3.414  11.554   8.578  1.1210  0.5284 -1.5608
56155SOL     OW78778   4.818   8.054   6.357  0.5120 -0.4475 -0.1960
56155SOL    HW178779   4.789   8.028   6.444  0.0026 -2.3509 -0.8873
56155SOL    HW278780   4.892   8.112   6.373 -0.3862  0.3118  1.5111
56156SOL     OW78781   9.156   8.496   7.801 -0.0067 -0.0418 -0.7592
56156SOL    HW178782   9.240   8.456   7.823  1.1902  2.1139 -1.0591
56156SOL    HW278783   9.120   8.440   7.732  1.5376 -0.6152 -1.1354
56157SOL     OW78784   0.183   0.337   0.375 -0.3568  0.4879  0.2937
56157SOL    HW178785   0.146   0.298   0.453  1.0951  1.3587  1.4724
56157SOL    HW278786   0.236   0.410   0.407  0.5794  0.6481 -1.4749
56158SOL     OW78787  11.068   4.370   6.432 -0.3307 -0.9339  0.4432
56158SOL    HW178788  11.057   4.459   6.401  1.8589 -0.8759 -0.3304
56158SOL    HW278789  11.089   4.319   6.354 -0.0914 -1.8521  1.0768
56159SOL     OW78790   2.568  10.888   1.214 -0.1021 -0.1930  0.0925
56159SOL    HW178791   2.510  10.890   1.138  0.6812  2.2615 -0.5238
56159SOL    HW278792   2.511  10.864   1.287 -1.4502  0.1378 -0.8161
56160SOL     OW78793   3.444   4.563  12.773 -0.4164  0.4226 -0.0312
56160SOL    HW178794   3.458   4.556  12.679  0.8784  0.6825  0.1152
56160SOL    HW278795   3.458   4.656  12.792 -1.3582  0.5021  0.3286
56161SOL     OW78796  11.276   6.715   9.667  0.0451 -0.0998  0.3155
56161SOL    HW178797  11.300   6.637   9.616 -0.3421  0.8136 -1.3206
56161SOL    HW278798  11.199   6.750   9.622 -0.8387  0.2785  2.0595
56162SOL     OW78799   5.475   9.289   0.716  0.6728  0.0493 -0.6682
56162SOL    HW178800   5.383   9.261   0.724  0.0693  1.9746 -0.5015
56162SOL    HW278801   5.483   9.362   0.776  1.7629  1.2399 -2.1977
56163SOL     OW78802   2.043   0.900   8.540  0.1398  0.1052  0.2005
56163SOL    HW178803   2.066   0.934   8.627 -0.6725 -0.1505  0.5290
56163SOL    HW278804   1.982   0.828   8.558  1.1648 -0.9958 -0.5151
56164SOL     OW78805   5.009   2.785   3.774 -0.2156 -0.2712 -0.0540
56164SOL    HW178806   5.005   2.867   3.725  0.9441 -0.3210 -0.2565
56164SOL    HW278807   4.922   2.747   3.763  0.2465 -0.7388 -2.8753
56165SOL     OW78808   1.606   4.568   2.819  0.0901  0.0720 -0.4739
56165SOL    HW178809   1.684   4.603   2.860 -0.4010  3.1886 -1.9140
56165SOL    HW278810   1.639   4.511   2.749  0.9994 -0.3389  0.2775
56166SOL     OW78811   7.927   5.266   1.726  0.0867 -0.4205 -0.9311
56166SOL    HW178812   7.884   5.313   1.654 -0.1177  2.0083  0.6428
56166SOL    HW278813   7.879   5.294   1.804  1.0846 -1.9985  0.2940
56167SOL     OW78814  11.187   3.908   5.883  1.2334 -0.0101  0.5445
56167SOL    HW178815  11.235   3.941   5.807  0.8645  0.9253  0.6980
56167SOL    HW278816  11.243   3.839   5.919  1.4089 -0.4796 -0.5756
56168SOL     OW78817  12.729   2.577   0.111  0.1886  0.1423 -0.7185
56168SOL    HW178818  12.794   2.621   0.166  0.5925  0.6628 -1.5875
56168SOL    HW278819  12.647   2.622   0.132  0.6696  1.6859 -1.9206
56169SOL     OW78820   6.801   2.350  10.687  0.3121 -0.2333  0.2800
56169SOL    HW178821   6.825   2.383  10.600  0.3797 -3.0022 -0.8358
56169SOL    HW278822   6.729   2.407  10.715  1.5507  1.9436 -0.6703
56170SOL     OW78823   5.880   2.438   8.743 -0.5068 -0.6803  0.0797
56170SOL    HW178824   5.792   2.404   8.761 -2.5953  1.9151 -3.8971
56170SOL    HW278825   5.883   2.523   8.787 -0.1897 -0.5017 -0.2852
56171SOL     OW78826   7.989   2.403   4.825  0.1962  0.1881  0.0476
56171SOL    HW178827   8.049   2.368   4.891  0.0160  1.4420  0.9201
56171SOL    HW278828   7.903   2.370   4.851  0.1627  0.4587  0.2821
56172SOL     OW78829  11.371  10.059   2.292 -0.7527 -0.0576  0.7685
56172SOL    HW178830  11.398   9.994   2.357  0.0472  0.2136  0.7198
56172SOL    HW278831  11.419  10.138   2.317  0.3542 -0.2227 -0.7629
56173SOL     OW78832   2.483   0.904   3.768  0.2203  0.4712  0.5415
56173SOL    HW178833   2.393   0.926   3.743  0.4221  0.6393 -0.0538
56173SOL    HW278834   2.535   0.978   3.737  0.7047 -0.1170 -0.0749
56174SOL     OW78835   5.104  10.506   9.088 -1.5474 -1.0843 -0.0407
56174SOL    HW178836   5.136  10.515   9.178 -0.5795 -2.9201 -0.1566
56174SOL    HW278837   5.176  10.538   9.034 -2.2349  0.2770 -0.1851
56175SOL     OW78838  10.664   3.710   5.946 -0.4839 -0.2473 -0.4589
56175SOL    HW178839  10.681   3.632   5.894  0.9808 -0.2723  0.0034
56175SOL    HW278840  10.745   3.725   5.995 -1.2595  0.6909  0.6105
56176SOL     OW78841   3.940   0.721   5.230 -0.0356  0.0437 -0.3633
56176SOL    HW178842   3.845   0.713   5.230 -0.0502  0.2190 -0.6076
56176SOL    HW278843   3.969   0.669   5.305 -0.2170 -1.2830 -1.1805
56177SOL     OW78844   2.987   8.430   9.144  0.0971 -0.3164 -0.2052
56177SOL    HW178845   2.913   8.413   9.086 -0.1624  1.1795 -0.3514
56177SOL    HW278846   2.987   8.356   9.205 -1.2070 -0.5871 -0.5101
56178SOL     OW78847   7.849   4.175   1.626  0.6719  0.6414 -0.1452
56178SOL    HW178848   7.845   4.089   1.667  0.2213  0.6598 -0.1413
56178SOL    HW278849   7.921   4.220   1.671  0.3820  0.5547  0.4249
56179SOL     OW78850  10.967   5.207   2.438 -0.0936  0.2877  0.2285
56179SOL    HW178851  11.043   5.173   2.485  0.3880  0.1891 -0.5917
56179SOL    HW278852  10.898   5.212   2.503  0.7080  0.6757  1.0729
56180SOL     OW78853   4.034   2.167   4.901  0.1699  0.6540 -0.3796
56180SOL    HW178854   4.039   2.143   4.994  0.0523 -0.1462 -0.5660
56180SOL    HW278855   3.995   2.254   4.900  1.9245  1.4888  0.4098
56181SOL     OW78856   4.110   9.017   5.204 -1.1007 -0.5381  0.3340
56181SOL    HW178857   4.064   8.947   5.251 -1.2091 -0.9386 -0.3509
56181SOL    HW278858   4.103   9.093   5.262 -1.0522 -1.0619  1.0569
56182SOL     OW78859   1.785   8.393   0.776  0.2082 -0.1961 -0.2568
56182SOL    HW178860   1.753   8.327   0.715  0.9873 -0.0360 -0.8548
56182SOL    HW278861   1.842   8.345   0.836  0.7967 -0.0771 -0.7085
56183SOL     OW78862  11.326   9.129   2.653 -0.1567 -0.4583  0.0774
56183SOL    HW178863  11.417   9.122   2.678  0.1172 -0.6736 -0.9106
56183SOL    HW278864  11.284   9.051   2.689  0.0201 -0.2897  0.6430
56184SOL     OW78865   9.489  12.639   3.049  0.5789 -0.5780 -0.5543
56184SOL    HW178866   9.513  12.728   3.022  0.2423 -0.2727  0.1048
56184SOL    HW278867   9.423  12.611   2.985  0.5454 -0.2707 -0.6569
56185SOL     OW78868  10.991   0.937   2.917  0.1278 -0.7070 -0.1833
56185SOL    HW178869  11.031   0.967   2.998  1.3464 -0.9279 -0.6771
56185SOL    HW278870  11.033   0.988   2.848 -0.9415 -0.4697 -0.6823
56186SOL     OW78871   5.304  12.032   9.249 -0.1323 -0.1645 -0.5776
56186SOL    HW178872   5.305  12.052   9.342 -1.6468 -1.1747 -0.3191
56186SOL    HW278873   5.396  12.013   9.228  0.7348  2.8446  0.0214
56187SOL     OW78874  10.526   4.073   8.554 -0.0367  0.2884 -0.3742
56187SOL    HW178875  10.604   4.128   8.561  0.5633 -0.7072  1.0983
56187SOL    HW278876  10.456   4.134   8.529  0.2078  2.1623  2.9824
56188SOL     OW78877  11.320   2.935   7.721 -0.0994  0.6755  0.0445
56188SOL    HW178878  11.343   3.014   7.672 -1.0367  1.2357  0.4666
56188SOL    HW278879  11.234   2.909   7.686 -0.4229  0.6356  0.8413
56189SOL     OW78880   9.882   3.769   0.233  0.5861 -0.0280  0.5785
56189SOL    HW178881   9.969   3.809   0.226 -0.5748  2.5560 -0.4289
56189SOL    HW278882   9.831   3.812   0.164 -1.4784 -1.5605  1.0748
56190SOL     OW78883   8.126   1.732  12.942 -0.1696  0.6055 -0.7000
56190SOL    HW178884   8.213   1.755  12.975 -1.2340  1.1886  1.9635
56190SOL    HW278885   8.088   1.676  13.010 -1.7661  0.0648 -1.9665
56191SOL     OW78886  12.308   1.432  12.536 -0.4036 -0.0433 -0.4286
56191SOL    HW178887  12.377   1.497  12.525 -0.6785  0.4128  0.4632
56191SOL    HW278888  12.266   1.455  12.619 -1.4198 -0.5034 -0.7935
56192SOL     OW78889   4.779  10.557  11.419  0.4211  0.0578  0.6950
56192SOL    HW178890   4.871  10.579  11.408  0.1630  0.6367 -0.5170
56192SOL    HW278891   4.744  10.625  11.477  0.1704  1.5338 -1.0866
56193SOL     OW78892   9.562   5.017   5.521  0.1784  0.5945 -0.3482
56193SOL    HW178893   9.470   4.994   5.509  0.6415 -0.9909 -1.1478
56193SOL    HW278894   9.598   5.018   5.433  1.0251  0.7777 -0.0067
56194SOL     OW78895   7.502   1.017  11.385 -0.6024  0.0054 -0.0773
56194SOL    HW178896   7.429   1.067  11.423 -1.8651 -1.9298  0.1763
56194SOL    HW278897   7.572   1.082  11.375 -1.8530  1.6300  1.0146
56195SOL     OW78898   9.239   5.251   5.267  0.4368 -0.2015 -0.9634
56195SOL    HW178899   9.186   5.327   5.291  2.4954  0.9208  0.3627
56195SOL    HW278900   9.253   5.259   5.173 -0.0922  0.5789 -0.9835
56196SOL     OW78901   0.481   8.051   4.150 -0.2889  0.1379  0.3668
56196SOL    HW178902   0.420   8.103   4.098  0.4062  0.8215  0.1971
56196SOL    HW278903   0.534   8.117   4.195  0.2147 -0.4379  0.6199
56197SOL     OW78904   1.349   4.003  10.988 -0.8709  0.2928  0.4918
56197SOL    HW178905   1.437   3.983  11.022 -1.2517  0.1197  1.4142
56197SOL    HW278906   1.363   4.077  10.930  0.4160 -1.8174 -2.1459
56198SOL     OW78907   5.939   4.303   9.248 -0.1650 -0.8648 -0.6863
56198SOL    HW178908   6.010   4.354   9.209 -0.4802 -1.4571 -2.1253
56198SOL    HW278909   5.982   4.244   9.309  0.2759  0.5796  0.4469
56199SOL     OW78910   3.421   0.878   5.274  1.0568 -0.0736  0.1330
56199SOL    HW178911   3.354   0.816   5.244 -0.6704  2.1970 -0.9453
56199SOL    HW278912   3.464   0.907   5.193 -0.5632  2.6969  0.1627
56200SOL     OW78913  11.254   0.913   4.826  0.2162 -1.0450 -0.1616
56200SOL    HW178914  11.255   0.899   4.731 -2.2967 -1.0102 -0.2621
56200SOL    HW278915  11.227   1.004   4.837  2.2598 -0.4714  0.6332
56201SOL     OW78916   5.852   3.217   7.903 -0.4204  0.4195 -0.5260
56201SOL    HW178917   5.885   3.169   7.827 -1.8199 -0.4421 -0.6214
56201SOL    HW278918   5.795   3.155   7.948 -2.2540  1.9480 -0.6236
56202SOL     OW78919  12.677  12.659   2.733  0.3766  0.3517  0.0520
56202SOL    HW178920  12.654  12.569   2.711 -1.5244  0.5845  0.8660
56202SOL    HW278921  12.759  12.652   2.782  0.4551 -0.8867 -0.2227
56203SOL     OW78922   6.802   1.587   1.245  0.4142 -0.5376 -0.3345
56203SOL    HW178923   6.757   1.670   1.230  1.4136 -0.1376 -1.2877
56203SOL    HW278924   6.790   1.570   1.339  0.9809  1.1820  0.0908
56204SOL     OW78925   4.415   7.505   8.365  0.2715  0.1560 -0.0958
56204SOL    HW178926   4.366   7.561   8.305  0.4978  1.2749  0.7373
56204SOL    HW278927   4.496   7.485   8.317 -1.0598 -2.0004 -1.6221
56205SOL     OW78928   2.646   3.299  11.711  0.0543 -0.9020 -0.0610
56205SOL    HW178929   2.584   3.269  11.645  2.4997 -1.6737 -2.1717
56205SOL    HW278930   2.653   3.393  11.696 -1.7374 -0.4941  1.3046
56206SOL     OW78931   1.226  10.805   6.580  0.4828  0.0130 -0.0956
56206SOL    HW178932   1.188  10.740   6.521  0.1628  1.1755 -1.2143
56206SOL    HW278933   1.312  10.824   6.543  2.4862 -2.8259  2.5826
56207SOL     OW78934  10.983   3.436   3.003 -0.2777 -0.0288 -0.0967
56207SOL    HW178935  10.890   3.438   2.983 -0.5279  0.8016  1.0265
56207SOL    HW278936  10.989   3.384   3.083  0.1151  0.5635  0.2690
56208SOL     OW78937   8.722   3.299   0.677  0.0785  0.2141 -0.3404
56208SOL    HW178938   8.721   3.388   0.712 -0.3507  0.7708 -1.7045
56208SOL    HW278939   8.802   3.294   0.625  1.0110 -0.7906  1.1061
56209SOL     OW78940   6.077   1.850  12.380 -0.8468 -0.1581  0.2792
56209SOL    HW178941   6.061   1.930  12.430  2.1652  0.7412  0.0136
56209SOL    HW278942   6.084   1.879  12.289 -0.2344 -0.8115  0.1095
56210SOL     OW78943   4.787  12.362   0.239  0.0938 -0.4615 -0.3616
56210SOL    HW178944   4.830  12.279   0.260  1.1254  0.2988  0.6446
56210SOL    HW278945   4.793  12.413   0.320 -0.3504  0.6685 -1.0241
56211SOL     OW78946  10.575  12.892   8.211 -0.1896  0.2847 -0.3379
56211SOL    HW178947  10.492  12.932   8.237 -1.0162 -2.1487  1.0760
56211SOL    HW278948  10.558  12.856   8.124 -0.0060  1.3555 -0.8329
56212SOL     OW78949   5.049  11.337  11.533 -0.2965  0.2511 -0.5192
56212SOL    HW178950   5.116  11.272  11.512 -2.2928 -1.7375 -1.1931
56212SOL    HW278951   5.086  11.387  11.606  1.0298 -2.2240  0.6481
56213SOL     OW78952   0.643   1.119   9.498 -0.2343  0.5137  0.3168
56213SOL    HW178953   0.701   1.043   9.495 -2.1003 -0.9814  0.1183
56213SOL    HW278954   0.639   1.149   9.407 -0.7543 -0.1955  0.0905
56214SOL     OW78955  11.009   8.432   5.252 -0.0375 -0.2837  0.1574
56214SOL    HW178956  11.043   8.349   5.219  0.0027  0.1694 -1.0163
56214SOL    HW278957  10.914   8.422   5.251 -0.0706 -0.0274 -0.8606
56215SOL     OW78958  12.612   5.929   2.367 -0.2372 -0.1982  0.0796
56215SOL    HW178959  12.521   5.946   2.391 -0.1917  0.5145 -0.2396
56215SOL    HW278960  12.646   5.874   2.438 -0.4752  0.7762  0.9670
56216SOL     OW78961  12.598   6.082   0.413 -0.3696 -0.1236  0.7396
56216SOL    HW178962  12.675   6.108   0.463 -0.1348 -1.2407  0.9854
56216SOL    HW278963  12.630   6.074   0.323 -0.0106 -1.3115  0.9627
56217SOL     OW78964   9.181   8.091   3.992  0.0446  0.0271  0.2449
56217SOL    HW178965   9.138   8.174   3.973 -1.8634 -0.0215  3.4894
56217SOL    HW278966   9.126   8.025   3.951 -0.6244  0.1997  0.8450
56218SOL     OW78967  11.368   5.744   8.652 -0.7579  0.2283  0.1361
56218SOL    HW178968  11.349   5.761   8.560  2.5796  3.2486 -0.2151
56218SOL    HW278969  11.451   5.696   8.651 -1.3364 -0.8834  1.6163
56219SOL     OW78970   1.770  10.627   1.262  0.0583 -0.0304  0.1603
56219SOL    HW178971   1.829  10.702   1.260  0.7190 -0.5516 -0.6932
56219SOL    HW278972   1.708  10.646   1.333  0.8639  0.8211  0.6477
56220SOL     OW78973  11.529  10.780   1.899 -0.3810  0.1505  0.0541
56220SOL    HW178974  11.584  10.858   1.901 -0.3165  0.1090 -0.0756
56220SOL    HW278975  11.476  10.791   1.820 -2.5388  1.5530  1.5731
56221SOL     OW78976  11.197   1.583   1.274 -0.5926 -0.0786 -0.0083
56221SOL    HW178977  11.234   1.634   1.347 -1.3372  1.1458 -0.4457
56221SOL    HW278978  11.178   1.497   1.312  0.5315  0.0172  0.8057
56222SOL     OW78979   1.988  11.743   2.849 -0.3162 -0.3665  0.3420
56222SOL    HW178980   2.067  11.707   2.808 -0.8323 -0.7211 -0.3562
56222SOL    HW278981   2.010  11.748   2.942  0.6918 -0.0341  0.1027
56223SOL     OW78982   6.299  10.598   5.286 -0.1123 -0.3316  0.4719
56223SOL    HW178983   6.204  10.600   5.277 -0.1694 -1.1181  0.8288
56223SOL    HW278984   6.330  10.660   5.220 -0.9344  1.3733  1.6030
56224SOL     OW78985   8.174   6.010   2.372  0.6869  0.1666 -0.0175
56224SOL    HW178986   8.222   5.940   2.416 -1.2444 -0.5741  1.0146
56224SOL    HW278987   8.092   5.970   2.346  0.3964  1.5227 -1.2875
56225SOL     OW78988   9.627   7.469  11.528  0.4802 -0.2230 -0.0470
56225SOL    HW178989   9.580   7.420  11.596  0.3066 -2.1091 -1.4547
56225SOL    HW278990   9.694   7.518  11.576 -0.2850 -0.6952  1.5760
56226SOL     OW78991   1.456   7.312  11.133 -0.2541 -0.5194 -0.4365
56226SOL    HW178992   1.429   7.293  11.223  1.1593  1.3693  0.4632
56226SOL    HW278993   1.539   7.266  11.123 -0.4940 -0.8640 -0.8244
56227SOL     OW78994  10.818   2.246  12.487 -0.0681 -0.3318  0.6611
56227SOL    HW178995  10.795   2.275  12.575 -0.2435 -0.9996  0.8379
56227SOL    HW278996  10.838   2.327  12.440 -0.4218  0.0662  1.1841
56228SOL     OW78997   7.767  10.828   7.087  0.0315  1.1112 -0.2296
56228SOL    HW178998   7.707  10.869   7.024  0.4396  1.1490 -0.6019
56228SOL    HW278999   7.808  10.757   7.038  3.0039  3.3008 -1.2056
56229SOL     OW79000   2.435   9.880   8.065  0.3812  0.4997  0.6467
56229SOL    HW179001   2.462   9.956   8.118 -1.8447  1.7086  0.1475
56229SOL    HW279002   2.477   9.894   7.980  0.6882  0.7060  0.8297
56230SOL     OW79003   0.307   1.294   8.644 -0.0021  0.0275  0.3707
56230SOL    HW179004   0.399   1.303   8.621 -0.0420  2.3927  0.8717
56230SOL    HW279005   0.308   1.259   8.733  0.3866 -0.4523  0.1829
56231SOL     OW79006  12.505   4.388   0.974 -0.5877  0.5796 -0.8281
56231SOL    HW179007  12.433   4.343   0.931 -1.2893  0.2045  0.6698
56231SOL    HW279008  12.463   4.459   1.023  0.1739  0.9913 -0.7515
56232SOL     OW79009  11.477   1.142   2.745 -0.1905 -0.1940 -0.7165
56232SOL    HW179010  11.388   1.175   2.755  0.6267  1.9198  0.1726
56232SOL    HW279011  11.511   1.137   2.834  0.4823 -1.3612 -1.0176
56233SOL     OW79012   1.879   9.596  11.615 -0.1899  0.0562  0.5524
56233SOL    HW179013   1.973   9.604  11.600 -0.3380  0.5198 -0.2022
56233SOL    HW279014   1.863   9.642  11.697  0.5031 -1.6486  1.6960
56234SOL     OW79015   1.585  10.585   1.494  0.1360 -0.0540 -0.3333
56234SOL    HW179016   1.548  10.532   1.565  1.2603  1.4344  1.4521
56234SOL    HW279017   1.548  10.672   1.507  1.7847  0.7016 -0.4019
56235SOL     OW79018   9.792  12.651   8.968 -0.2122  0.1596  0.4112
56235SOL    HW179019   9.848  12.641   9.045 -0.9325 -0.7209  0.8466
56235SOL    HW279020   9.843  12.706   8.908  1.9819 -2.1674 -0.0444
56236SOL     OW79021   1.787  11.936   5.576  0.4228 -0.2263  0.0299
56236SOL    HW179022   1.795  11.851   5.532 -2.5807 -0.8308  0.3817
56236SOL    HW279023   1.756  11.995   5.508 -3.3458 -0.9532  0.8699
56237SOL     OW79024   3.611   3.950   6.980 -0.1335 -0.0776  0.3459
56237SOL    HW179025   3.516   3.948   6.984 -0.1690 -0.7276 -0.5150
56237SOL    HW279026   3.631   3.982   6.892  0.4784  2.7935  1.4243
56238SOL     OW79027   9.761   8.715   8.119 -0.2744 -0.3783  0.4657
56238SOL    HW179028   9.855   8.729   8.109 -0.2023 -1.0083  0.2330
56238SOL    HW279029   9.753   8.623   8.145 -0.8860 -0.6342 -0.5792
56239SOL     OW79030   7.402   8.719   6.797  0.3134  0.3312  0.1332
56239SOL    HW179031   7.497   8.715   6.798  0.4019  0.8666 -1.7369
56239SOL    HW279032   7.381   8.805   6.833  0.6307  0.8350 -0.8569
56240SOL     OW79033   0.720   2.821   5.770 -0.5083  0.0476  0.1179
56240SOL    HW179034   0.642   2.854   5.724 -0.4726  1.3786  0.9578
56240SOL    HW279035   0.686   2.753   5.829 -1.1617  1.0601  0.9491
56241SOL     OW79036   8.970   0.925   7.248  0.4312 -0.2040  0.3379
56241SOL    HW179037   8.927   0.850   7.290  1.2925 -0.6888  0.3540
56241SOL    HW279038   8.916   1.000   7.275  1.0503 -0.4657  2.5163
56242SOL     OW79039   5.869   0.352   6.888  0.6610 -0.1894 -0.0598
56242SOL    HW179040   5.793   0.411   6.893  0.6535 -0.2091  0.0790
56242SOL    HW279041   5.891   0.349   6.795  0.6948  0.0730 -0.0626
56243SOL     OW79042  10.836   5.027   3.955 -0.2071 -0.3629  0.2298
56243SOL    HW179043  10.884   5.103   3.988 -1.9737 -0.0353  2.3655
56243SOL    HW279044  10.899   4.979   3.902  1.5314  1.5742  0.4090
56244SOL     OW79045  11.215  11.122   8.664 -0.5382 -0.1282  0.0879
56244SOL    HW179046  11.183  11.121   8.574 -1.7916  1.3712  0.4716
56244SOL    HW279047  11.308  11.103   8.657 -0.8370 -1.1851 -1.4068
56245SOL     OW79048   1.880  12.599   2.842  0.5191 -1.0696  0.0044
56245SOL    HW179049   1.808  12.538   2.825 -1.5248  0.9084  0.9742
56245SOL    HW279050   1.882  12.607   2.937 -1.1570  2.3003 -0.1023
56246SOL     OW79051   1.987  10.031   9.456  0.0208  0.3523  0.4177
56246SOL    HW179052   2.079  10.007   9.440 -0.4585 -1.1390 -0.2332
56246SOL    HW279053   1.989  10.079   9.539  1.4048  0.4940  0.3263
56247SOL     OW79054  12.174   0.675   8.038  0.0487  0.1187 -0.1066
56247SOL    HW179055  12.133   0.604   7.988 -0.0375  1.1548 -1.5764
56247SOL    HW279056  12.232   0.631   8.100 -0.9421 -1.2673 -0.1344
56248SOL     OW79057   1.736   7.063   0.688 -0.5055  0.3646 -0.5465
56248SOL    HW179058   1.767   7.083   0.600  1.0798  0.1964 -0.0703
56248SOL    HW279059   1.743   6.967   0.694  0.2997  0.4503  0.0527
56249SOL     OW79060   9.339  11.041   7.292  0.2069 -0.0175  0.4561
56249SOL    HW179061   9.393  10.962   7.291  0.1715 -0.0516 -1.4820
56249SOL    HW279062   9.379  11.099   7.227 -0.5204  1.0512  0.9299
56250SOL     OW79063  11.090   1.501   6.809  0.0338 -0.3007  0.1238
56250SOL    HW179064  11.139   1.419   6.815  1.7572  0.7659  1.4332
56250SOL    HW279065  11.156   1.567   6.786 -1.4424  0.6437 -1.6703
56251SOL     OW79066   3.551  12.972   3.173 -0.1186  0.1428 -0.6088
56251SOL    HW179067   3.532  13.048   3.118 -0.7565 -0.1271 -0.7715
56251SOL    HW279068   3.598  13.008   3.249  0.4357  0.5618 -1.1486
56252SOL     OW79069   6.645  11.866   9.529  0.0232 -0.3419  0.2507
56252SOL    HW179070   6.604  11.873   9.443  1.0783  0.3056 -0.2230
56252SOL    HW279071   6.734  11.835   9.511  0.8029  1.3264  0.9328
56253SOL     OW79072   5.172   5.214   7.629  0.2248 -0.4046  0.0230
56253SOL    HW179073   5.207   5.195   7.716 -3.5793 -1.3852  1.5145
56253SOL    HW279074   5.110   5.286   7.643  2.0514  1.9125 -2.6230
56254SOL     OW79075   2.759   1.367   5.228 -0.7077  0.2284 -0.8648
56254SOL    HW179076   2.764   1.417   5.310 -2.2273  0.6781 -1.0073
56254SOL    HW279077   2.708   1.289   5.250  1.8744 -1.4927 -0.5791
56255SOL     OW79078   0.010  10.543   9.452 -0.2855 -0.2666  0.1003
56255SOL    HW179079   0.025  10.560   9.545  0.4344 -1.1470  0.1569
56255SOL    HW279080   0.024  10.449   9.442  1.7462  0.1044 -1.2610
56256SOL     OW79081   0.060   7.741  11.585 -0.5620  0.0138  0.0660
56256SOL    HW179082   0.027   7.685  11.515  0.3273 -2.4080  1.4633
56256SOL    HW279083   0.153   7.754  11.564 -0.3425 -0.5480  0.6255
56257SOL     OW79084   5.660   9.110   1.478 -0.3736 -0.5865  0.3544
56257SOL    HW179085   5.632   9.154   1.559  0.7318 -1.8703  1.4867
56257SOL    HW279086   5.727   9.047   1.507  2.2855  0.9606 -1.8951
56258SOL     OW79087   2.865   8.948  12.056  0.0150  0.3355  0.3181
56258SOL    HW179088   2.938   8.997  12.093  0.0718  0.6588 -0.2023
56258SOL    HW279089   2.892   8.930  11.965 -0.9185  1.2455 -0.1557
56259SOL     OW79090   3.372  12.491   4.381  0.5558 -0.0141  0.3034
56259SOL    HW179091   3.423  12.446   4.449  0.9424 -0.7649 -0.4657
56259SOL    HW279092   3.409  12.459   4.299 -0.7091 -0.0546 -0.2740
56260SOL     OW79093  10.045  10.969   2.003 -0.0216 -0.0834 -0.0670
56260SOL    HW179094  10.015  10.967   1.912 -0.4861 -2.1558  0.0816
56260SOL    HW279095  10.130  10.925   2.001 -0.5258 -1.1059  0.6456
56261SOL     OW79096   2.204   0.739  10.246 -0.3263  0.3986 -0.2493
56261SOL    HW179097   2.276   0.743  10.182 -0.6375  1.1091 -0.5566
56261SOL    HW279098   2.248   0.745  10.331  0.2358 -2.0349 -0.2946
56262SOL     OW79099   9.122  10.730  11.619  0.0750 -0.2928 -0.9358
56262SOL    HW179100   9.210  10.692  11.614  0.6260  0.5892  1.0647
56262SOL    HW279101   9.132  10.819  11.588 -0.3752 -0.5121 -1.7527
56263SOL     OW79102   2.042  11.691   5.024  0.6780 -0.7902 -0.0515
56263SOL    HW179103   2.090  11.609   5.027 -0.1979 -1.3499 -0.9350
56263SOL    HW279104   1.988  11.691   5.103  1.2821 -0.6724  0.3685
56264SOL     OW79105  12.809   3.968   9.193  0.1451  0.0448 -0.5915
56264SOL    HW179106  12.770   3.967   9.280  1.9886 -1.0750  0.2983
56264SOL    HW279107  12.856   4.051   9.189 -0.6913  0.5091 -0.8921
56265SOL     OW79108  11.806  10.231   8.868 -0.4840  0.7810  0.0549
56265SOL    HW179109  11.797  10.141   8.838  0.7333  0.9636 -0.9323
56265SOL    HW279110  11.808  10.283   8.788 -3.7819  2.0216  0.6276
56266SOL     OW79111   0.585  10.444   4.010 -0.4012 -0.4195  0.1139
56266SOL    HW179112   0.635  10.526   4.008 -0.9685 -0.0885 -1.0248
56266SOL    HW279113   0.533  10.450   4.090  0.3989 -0.1922  0.6401
56267SOL     OW79114   5.361   4.168   3.046  0.7365 -0.2515  0.0443
56267SOL    HW179115   5.290   4.198   2.989  0.0816 -3.5414 -1.1061
56267SOL    HW279116   5.390   4.246   3.092 -0.6954  2.0337 -2.6625
56268SOL     OW79117   4.643   7.336   7.601  0.0191 -0.9994 -0.2475
56268SOL    HW179118   4.637   7.250   7.559  0.3108 -1.2048  0.1159
56268SOL    HW279119   4.710   7.382   7.552 -0.0958 -0.9985 -0.4063
56269SOL     OW79120   8.498   1.627   3.147  0.1079 -0.6050 -0.1905
56269SOL    HW179121   8.476   1.558   3.210 -0.3740 -2.1837 -1.9674
56269SOL    HW279122   8.586   1.604   3.117  0.8050  0.7930  0.6986
56270SOL     OW79123   6.275   6.534   6.798  0.2759 -0.4906  0.1620
56270SOL    HW179124   6.368   6.555   6.800  0.6156 -1.4318 -2.3176
56270SOL    HW279125   6.270   6.445   6.833 -0.0962  0.4219  2.6648
56271SOL     OW79126   3.413   5.849   3.050 -0.5658  0.3941 -0.1705
56271SOL    HW179127   3.505   5.872   3.038 -0.3932 -0.5165 -0.6503
56271SOL    HW279128   3.415   5.782   3.119 -0.8081  0.0237 -0.5163
56272SOL     OW79129   9.657   6.169   6.463  0.1681  0.1164  0.7407
56272SOL    HW179130   9.636   6.224   6.539  1.8021 -1.2971  2.3117
56272SOL    HW279131   9.646   6.079   6.495 -0.9433 -0.5431 -1.3017
56273SOL     OW79132   5.222   6.164   2.366  0.0579 -0.2539  0.0783
56273SOL    HW179133   5.216   6.236   2.428 -0.7482 -0.2623  0.0169
56273SOL    HW279134   5.268   6.095   2.414 -1.4185 -0.6217  1.0139
56274SOL     OW79135  12.846   1.183   1.501  0.5882  0.1632  1.1304
56274SOL    HW179136  12.911   1.238   1.458 -0.6090  0.3783 -0.5125
56274SOL    HW279137  12.768   1.192   1.447 -0.4500 -1.0406  2.3547
56275SOL     OW79138   3.970  11.028   5.090  0.0828  0.3353  0.0110
56275SOL    HW179139   4.042  10.965   5.085  1.1380  1.5476 -0.7058
56275SOL    HW279140   3.979  11.069   5.176 -0.9353 -0.8128  0.7078
56276SOL     OW79141   9.943  10.554   9.077  0.1470  0.2082 -0.2521
56276SOL    HW179142   9.883  10.514   9.013 -0.4990 -0.4001  0.6985
56276SOL    HW279143  10.030  10.528   9.047 -0.2276 -1.7003  0.1295
56277SOL     OW79144   0.272   7.699   3.648 -0.3417  0.5122 -0.0081
56277SOL    HW179145   0.316   7.705   3.564  0.7592  1.2923  0.5962
56277SOL    HW279146   0.190   7.653   3.629  0.6421 -0.8657 -1.1960
56278SOL     OW79147   5.329  12.469   7.230 -0.2408 -0.4726  0.0163
56278SOL    HW179148   5.412  12.422   7.242 -0.5357 -1.0447 -0.1077
56278SOL    HW279149   5.286  12.462   7.315 -1.0906 -2.0555 -0.5020
56279SOL     OW79150   6.886  12.242  10.577  0.2544 -0.3061 -0.2124
56279SOL    HW179151   6.847  12.300  10.513  1.0900  0.0534 -0.4153
56279SOL    HW279152   6.839  12.159  10.567 -1.2678  0.4380  0.3973
56280SOL     OW79153   9.942   1.157  11.426 -0.1394 -0.0410 -0.0209
56280SOL    HW179154   9.849   1.138  11.412 -0.4780 -0.8715  2.8146
56280SOL    HW279155   9.944   1.250  11.449 -0.4362 -0.2587  0.9330
56281SOL     OW79156   0.528   4.027   8.612  0.0015  0.0816 -0.1286
56281SOL    HW179157   0.556   4.056   8.699  1.8235  2.0163 -1.2688
56281SOL    HW279158   0.466   4.092   8.582 -0.2691 -0.3204 -0.4599
56282SOL     OW79159   0.696   7.723   8.818  0.3243 -0.1495  0.0399
56282SOL    HW179160   0.693   7.703   8.724 -1.4845  0.7318 -0.1263
56282SOL    HW279161   0.661   7.644   8.860 -1.2782  0.3819 -0.2277
56283SOL     OW79162  10.437   5.018   4.783  0.0028  0.1891  0.0561
56283SOL    HW179163  10.469   5.104   4.756  0.7175 -0.1272 -0.1264
56283SOL    HW279164  10.516   4.966   4.795 -0.4720 -0.9888 -1.6341
56284SOL     OW79165   9.887   9.988   3.829  0.5485 -0.8743  0.3847
56284SOL    HW179166   9.833   9.977   3.907  0.5247 -0.6138  0.4050
56284SOL    HW279167   9.974   9.959   3.855  0.0735 -2.9616 -0.1224
56285SOL     OW79168  10.736   7.748   7.322 -0.1118 -0.0548  0.2817
56285SOL    HW179169  10.714   7.739   7.229  0.3069 -1.5117  0.2927
56285SOL    HW279170  10.825   7.782   7.323 -0.2067  0.2026  0.1630
56286SOL     OW79171   1.971  10.077  12.891  0.0158  0.8531  0.5409
56286SOL    HW179172   1.920   9.997  12.875 -0.3789  1.2228 -0.0821
56286SOL    HW279173   1.911  10.134  12.939  0.1601  0.9292  0.6289
56287SOL     OW79174   1.970   8.973   8.647  0.4964 -0.1239  0.5561
56287SOL    HW179175   1.919   9.029   8.587 -0.2364 -0.9598  0.3833
56287SOL    HW279176   2.035   8.930   8.590 -0.1283 -0.8339  0.3681
56288SOL     OW79177   1.567  12.320  12.134 -0.2068 -0.5640 -0.8399
56288SOL    HW179178   1.523  12.360  12.058 -1.7498 -1.8568 -0.6923
56288SOL    HW279179   1.512  12.345  12.209  1.6642  1.2536  0.0160
56289SOL     OW79180  12.336   2.063   5.669 -0.2693 -0.4154  0.0972
56289SOL    HW179181  12.291   2.130   5.618 -1.1929 -1.1437 -0.0843
56289SOL    HW279182  12.429   2.082   5.657 -0.4853  2.1235  1.8263
56290SOL     OW79183   7.376   9.011  10.601 -0.2576 -0.5048  0.4429
56290SOL    HW179184   7.312   9.080  10.587  0.2451 -0.0102  0.5792
56290SOL    HW279185   7.439   9.020  10.530  0.6629  0.1573  1.3177
56291SOL     OW79186   2.816   9.665   2.600  0.0554  0.4152 -0.0526
56291SOL    HW179187   2.729   9.626   2.591  0.2207  0.3865 -1.8182
56291SOL    HW279188   2.822   9.728   2.529  1.6343  0.1023 -0.2337
56292SOL     OW79189   3.035  12.174   9.771 -0.3105  0.2015 -0.5145
56292SOL    HW179190   2.979  12.252   9.773  0.4251  0.7545 -1.0309
56292SOL    HW279191   3.117  12.203   9.810 -0.7079 -0.8989  1.2473
56293SOL     OW79192  10.585   7.851   3.077  0.7290 -0.0872  0.0030
56293SOL    HW179193  10.604   7.925   3.019 -1.5285  0.3872 -0.2444
56293SOL    HW279194  10.621   7.775   3.032  1.4256  0.6116 -0.6655
56294SOL     OW79195   3.372   0.726   8.623 -0.3885 -0.1976 -0.5461
56294SOL    HW179196   3.344   0.785   8.553 -0.0140  0.7859  0.1019
56294SOL    HW279197   3.436   0.668   8.582 -0.4342  0.1419 -1.1030
56295SOL     OW79198   5.202   3.174   9.509 -0.1402  0.0491  0.1427
56295SOL    HW179199   5.164   3.107   9.453  0.3791 -1.1219  1.1608
56295SOL    HW279200   5.284   3.136   9.541  0.5732  1.4847  0.1087
56296SOL     OW79201   0.624   3.591   7.534  0.2993 -0.6817  0.4259
56296SOL    HW179202   0.696   3.543   7.576 -0.1298 -0.6975  1.1402
56296SOL    HW279203   0.612   3.546   7.450  1.0031 -0.7900  0.3804
56297SOL     OW79204   7.298   6.103   3.155 -0.2271  0.0685  0.5289
56297SOL    HW179205   7.231   6.036   3.141 -0.3677 -0.0644  1.7929
56297SOL    HW279206   7.326   6.126   3.066 -1.3066 -0.5080  0.0118
56298SOL     OW79207   0.678   5.605  11.767  0.2047  0.2684  0.2467
56298SOL    HW179208   0.621   5.562  11.703  0.2643 -0.3814  0.6178
56298SOL    HW279209   0.765   5.598  11.729  0.0892  0.9309 -0.1466
56299SOL     OW79210   5.835   0.988   3.272 -0.2290 -0.3829 -0.4909
56299SOL    HW179211   5.867   1.073   3.304 -2.0257  1.1509 -2.4922
56299SOL    HW279212   5.836   0.932   3.350  1.5645  1.2732  0.7848
56300SOL     OW79213   9.033   4.579   2.704 -0.0115 -0.2353 -0.3278
56300SOL    HW179214   9.082   4.503   2.673  0.6928 -0.1131  0.4415
56300SOL    HW279215   8.959   4.541   2.753  0.6913 -0.4531  0.6020
56301SOL     OW79216   2.169  10.892  10.450  0.1150 -0.4264 -0.4468
56301SOL    HW179217   2.153  10.912  10.542  0.3369  1.7236 -0.8199
56301SOL    HW279218   2.244  10.947  10.426 -0.8514  0.2038 -2.2487
56302SOL     OW79219  10.766  11.839   5.644  0.0013  0.0841 -0.0403
56302SOL    HW179220  10.748  11.888   5.724  0.1848 -0.8832  0.6041
56302SOL    HW279221  10.681  11.801   5.620  0.3855 -1.5196  1.0000
56303SOL     OW79222   2.118   4.708  12.540 -0.5297  0.2891 -0.3936
56303SOL    HW179223   2.192   4.685  12.596 -0.4640  0.9898 -0.1779
56303SOL    HW279224   2.158   4.747  12.462 -0.6566  0.3144 -0.4465
56304SOL     OW79225   4.968  11.121   1.330  0.5313 -0.2187 -0.4371
56304SOL    HW179226   4.934  11.105   1.242 -1.1988 -0.5816  0.2557
56304SOL    HW279227   4.996  11.035   1.361  1.8009  0.0176 -0.8580
56305SOL     OW79228   7.786  11.715   4.278 -0.0216  0.1528  0.1916
56305SOL    HW179229   7.849  11.699   4.207 -0.2663  0.2743 -0.0524
56305SOL    HW279230   7.735  11.790   4.249 -1.4885 -1.0347 -0.4406
56306SOL     OW79231  11.162  12.902  12.947  0.2708  0.4461  0.3556
56306SOL    HW179232  11.190  12.847  13.020 -1.1484 -0.7887  0.0207
56306SOL    HW279233  11.092  12.957  12.983  0.6524  0.9751  0.3064
56307SOL     OW79234   5.608   3.260   8.216 -0.6026  0.0356 -0.2154
56307SOL    HW179235   5.620   3.168   8.239 -0.9012 -0.0814 -0.5148
56307SOL    HW279236   5.531   3.260   8.159  0.6181  0.2098 -1.9310
56308SOL     OW79237   7.750   1.887   2.798 -0.3353 -0.2733 -0.0799
56308SOL    HW179238   7.662   1.864   2.769 -0.3023 -0.3777 -0.0990
56308SOL    HW279239   7.806   1.818   2.762  0.1934  1.3414 -2.6210
56309SOL     OW79240   9.556   5.197   4.409  0.2106 -0.2306  0.4824
56309SOL    HW179241   9.466   5.178   4.383 -0.0999  0.7637  0.7826
56309SOL    HW279242   9.595   5.240   4.332  0.5155 -0.8924  0.2604
56310SOL     OW79243   5.901  10.812   3.659 -0.1351  0.1363  0.1756
56310SOL    HW179244   5.918  10.893   3.611  0.7477  0.2880  0.7169
56310SOL    HW279245   5.830  10.770   3.611  0.2623  0.6091 -0.8526
56311SOL     OW79246  11.437  10.856   5.332  0.2935  0.0401 -0.2137
56311SOL    HW179247  11.475  10.828   5.249 -0.6446 -0.0767 -0.6120
56311SOL    HW279248  11.471  10.944   5.345  0.3509  0.1042 -0.7823
56312SOL     OW79249   5.934   7.876  10.162  0.7529 -0.1795  0.0965
56312SOL    HW179250   5.927   7.850  10.070 -1.1042 -0.5945  0.3238
56312SOL    HW279251   5.990   7.810  10.201  2.1608  0.3970 -0.8502
56313SOL     OW79252   9.031   7.788   3.152 -0.5298  0.5764  0.1938
56313SOL    HW179253   9.036   7.694   3.134  0.4207  0.1315  2.3983
56313SOL    HW279254   8.942   7.813   3.127 -0.8128 -0.9088 -0.4040
56314SOL     OW79255   8.451   8.799   9.610  0.3614  0.0698  0.2072
56314SOL    HW179256   8.529   8.852   9.625 -0.5025  2.3995 -2.7450
56314SOL    HW279257   8.470   8.716   9.654  3.3111  1.4890  1.8941
56315SOL     OW79258   1.119   0.575   4.042  0.0562  0.0216 -0.3087
56315SOL    HW179259   1.194   0.632   4.059 -1.3689  1.7060  0.5802
56315SOL    HW279260   1.105   0.528   4.124  0.9049 -1.2978 -0.8798
56316SOL     OW79261   5.891   2.173   3.475 -0.0174 -0.3280 -0.0239
56316SOL    HW179262   5.862   2.241   3.413 -2.4373  0.0754  1.4135
56316SOL    HW279263   5.815   2.117   3.486  0.8603 -1.2906  1.3995
56317SOL     OW79264   7.172   9.697  10.132  0.0981 -0.0785 -0.2295
56317SOL    HW179265   7.145   9.705  10.041  1.0115 -0.0465 -0.5122
56317SOL    HW279266   7.266   9.717  10.131 -0.1175  1.1272  0.9056
56318SOL     OW79267   3.258   8.769   8.403 -0.6596  0.2693  0.6080
56318SOL    HW179268   3.280   8.677   8.414 -0.2695  0.2820 -0.0487
56318SOL    HW279269   3.285   8.810   8.485  1.6456  0.2552 -0.0841
56319SOL     OW79270   6.582   1.487  12.891 -0.3671 -0.0534  0.4796
56319SOL    HW179271   6.609   1.423  12.957  1.7570 -0.6459 -0.8919
56319SOL    HW279272   6.540   1.557  12.942 -1.6476 -1.9076  2.1317
56320SOL     OW79273   8.374  11.832   0.763  0.2054  0.8108 -0.4654
56320SOL    HW179274   8.374  11.824   0.667  0.5070  2.0464 -0.5843
56320SOL    HW279275   8.315  11.905   0.781  0.4958  0.8668  0.2657
56321SOL     OW79276   1.657   8.461   7.918 -0.5001 -0.3920 -0.4068
56321SOL    HW179277   1.593   8.530   7.900 -1.0963 -1.4552 -2.7114
56321SOL    HW279278   1.741   8.506   7.925 -1.4340  1.1000  3.1698
56322SOL     OW79279  12.180   1.024   3.981 -0.3142  0.0792  0.5259
56322SOL    HW179280  12.223   0.940   3.964  2.1550  0.8156  2.5398
56322SOL    HW279281  12.179   1.032   4.076 -1.8406  1.7119  0.4145
56323SOL     OW79282   2.160   6.257  12.806 -0.5166  0.5265 -0.5130
56323SOL    HW179283   2.204   6.195  12.748 -1.3877  0.3878 -1.0425
56323SOL    HW279284   2.141   6.207  12.885 -0.0976  0.4800 -0.4373
56324SOL     OW79285  12.678   0.885  10.080  0.2379  0.4315 -0.8615
56324SOL    HW179286  12.710   0.796  10.062  1.4522  0.4141  1.1012
56324SOL    HW279287  12.736   0.942  10.030  0.1911  0.1693 -1.2195
56325SOL     OW79288   1.920   8.399  11.824  0.0234 -0.1764  0.4015
56325SOL    HW179289   1.973   8.416  11.746 -0.9324 -0.4784 -0.3376
56325SOL    HW279290   1.981   8.360  11.887  1.4727  2.5683  0.8744
56326SOL     OW79291   4.138   0.208   7.947  0.5421  0.1381 -0.0067
56326SOL    HW179292   4.129   0.134   7.887  0.5818 -0.0133  0.1740
56326SOL    HW279293   4.063   0.264   7.928 -0.1021 -0.4995  0.6238
56327SOL     OW79294   8.588   3.687   8.654 -0.6194  0.0257  1.1284
56327SOL    HW179295   8.516   3.698   8.592  0.5473 -0.3978 -0.3646
56327SOL    HW279296   8.657   3.743   8.620  0.8780 -1.9993  0.6419
56328SOL     OW79297   5.041   7.346   7.263 -0.1678  0.2573 -0.6324
56328SOL    HW179298   4.964   7.307   7.221 -0.5427  1.2379 -0.8906
56328SOL    HW279299   5.041   7.310   7.351 -0.3831 -0.4708 -0.9226
56329SOL     OW79300   9.546   1.434   2.062 -0.1881  0.1843  0.1510
56329SOL    HW179301   9.515   1.368   1.999 -1.3937 -2.6356  3.3754
56329SOL    HW279302   9.468   1.483   2.086 -0.0252  0.2962  0.4558
56330SOL     OW79303   7.177   0.535   5.304  0.0438 -0.5790 -0.7413
56330SOL    HW179304   7.144   0.514   5.391 -0.4675 -0.2832 -0.8640
56330SOL    HW279305   7.191   0.629   5.305  2.9830 -0.9361  0.0328
56331SOL     OW79306   4.485   8.656   7.478 -0.2972 -0.3543 -0.0956
56331SOL    HW179307   4.492   8.565   7.450  1.2084 -0.0341 -0.8521
56331SOL    HW279308   4.461   8.704   7.399  1.3374  0.2014 -0.2947
56332SOL     OW79309   2.711   7.299  12.904  0.6687 -0.0370 -0.0736
56332SOL    HW179310   2.691   7.284  12.811 -0.3218  0.6636  0.0025
56332SOL    HW279311   2.688   7.217  12.947 -1.4119  0.4770 -0.1102
56333SOL     OW79312  11.136   0.835   0.490  0.0603 -0.4221 -0.1234
56333SOL    HW179313  11.193   0.893   0.439 -0.3176  0.7726  0.7652
56333SOL    HW279314  11.190   0.758   0.507  1.1695  0.3673  0.0653
56334SOL     OW79315   6.798   7.438   8.009 -0.7222  0.1870 -0.2975
56334SOL    HW179316   6.746   7.480   7.941 -1.2336 -2.2244 -1.4777
56334SOL    HW279317   6.885   7.427   7.970 -0.9171 -0.8864 -0.4424
56335SOL     OW79318   8.523  12.912   7.498 -0.2602 -0.1664  0.2233
56335SOL    HW179319   8.535  12.892   7.591  0.0294 -1.1759 -0.0160
56335SOL    HW279320   8.431  12.936   7.490  0.1137  1.6487  1.0562
56336SOL     OW79321   2.690  12.956   7.898 -0.4497 -0.1406  0.4407
56336SOL    HW179322   2.650  13.017   7.960 -2.7736 -0.8214 -0.2650
56336SOL    HW279323   2.772  12.929   7.940 -0.4864  1.6687  1.8047
56337SOL     OW79324   6.927  11.702   3.064 -0.2087  0.5552  0.4049
56337SOL    HW179325   6.954  11.652   3.141 -0.4414  0.7167  0.5936
56337SOL    HW279326   6.832  11.706   3.069 -0.2879 -0.1672 -0.3638
56338SOL     OW79327   9.693   3.513   7.733 -0.7357  0.3018 -0.0658
56338SOL    HW179328   9.598   3.511   7.722 -0.8261 -1.1292  0.7206
56338SOL    HW279329   9.720   3.421   7.723  0.7017  0.8273 -1.3210
56339SOL     OW79330   1.429   6.838   3.604  0.1460 -0.0050  0.3509
56339SOL    HW179331   1.463   6.810   3.689 -0.7118 -1.7459  0.1431
56339SOL    HW279332   1.385   6.761   3.568 -1.7601  1.4162 -0.5411
56340SOL     OW79333  11.092   7.892  10.632 -0.0858  0.0954 -0.2375
56340SOL    HW179334  11.172   7.868  10.679 -0.3509  1.4271  0.9769
56340SOL    HW279335  11.122   7.927  10.548  0.4613 -1.4029 -0.6905
56341SOL     OW79336   0.005   5.588   9.750  0.1752  0.0041 -0.4728
56341SOL    HW179337   0.039   5.550   9.831  0.4789 -1.0664 -1.0848
56341SOL    HW279338   0.083   5.624   9.707  0.2366 -0.6313 -0.9119
56342SOL     OW79339   2.387   9.859   1.923  0.0113 -0.6314 -0.3889
56342SOL    HW179340   2.462   9.810   1.890  1.7235  1.5125  0.0883
56342SOL    HW279341   2.403   9.949   1.896 -0.4526  0.5632  2.8533
56343SOL     OW79342   1.115   6.905   4.493 -0.5139  0.1119  0.9708
56343SOL    HW179343   1.070   6.989   4.492 -1.5369 -0.3553  2.7791
56343SOL    HW279344   1.163   6.904   4.576 -0.7250 -1.1744  1.1050
56344SOL     OW79345  12.854   9.167   7.788  0.1023  0.7833 -0.3730
56344SOL    HW179346  12.782   9.109   7.761 -1.8715  2.6182  0.6812
56344SOL    HW279347  12.847   9.171   7.883  0.9888  1.8038 -0.3360
56345SOL     OW79348  10.147   5.759   7.648  0.4173  0.3022  0.4111
56345SOL    HW179349  10.197   5.705   7.587 -0.4441  1.4158 -1.3450
56345SOL    HW279350  10.188   5.845   7.644  1.6111 -0.0377  2.9981
56346SOL     OW79351   3.392   3.398  12.873 -0.2562 -0.8146 -0.1338
56346SOL    HW179352   3.374   3.393  12.779 -0.9561  1.4088 -0.1873
56346SOL    HW279353   3.306   3.404  12.914  0.0217  2.1489  0.2596
56347SOL     OW79354   3.600   0.668   0.529 -0.1208 -0.4864  0.0594
56347SOL    HW179355   3.535   0.722   0.484  0.0988  0.1747  0.5255
56347SOL    HW279356   3.680   0.678   0.477 -0.3333 -1.1921 -0.4359
56348SOL     OW79357  10.425  11.804  10.623  0.2309  0.2923 -0.2824
56348SOL    HW179358  10.447  11.814  10.715 -1.0549  0.9303 -0.0271
56348SOL    HW279359  10.331  11.787  10.622  0.4531 -1.0868 -1.4038
56349SOL     OW79360   1.781   4.050   7.644 -0.3506  0.3379 -0.4324
56349SOL    HW179361   1.843   4.085   7.579  0.1936  1.1100  0.4709
56349SOL    HW279362   1.794   3.956   7.642  0.4700  0.4488 -0.6532
56350SOL     OW79363   8.206   5.676   2.231 -0.5373  0.3555 -0.3955
56350SOL    HW179364   8.147   5.720   2.292 -1.0131  2.2923 -2.1678
56350SOL    HW279365   8.151   5.650   2.157 -0.1782 -2.8734  0.3037
56351SOL     OW79366   2.602  12.510  12.314 -0.0108 -0.9273 -0.1784
56351SOL    HW179367   2.540  12.573  12.278  1.2855 -0.6612 -2.1388
56351SOL    HW279368   2.601  12.526  12.408 -1.4686  0.3694 -0.3719
56352SOL     OW79369   4.748   4.753   1.319  0.4885 -0.4509  0.2162
56352SOL    HW179370   4.796   4.682   1.277  1.3292  0.5871 -0.6185
56352SOL    HW279371   4.774   4.832   1.272 -1.0910  0.3259  0.5530
56353SOL     OW79372  11.614  10.636   3.971  0.4699  0.4002 -0.1763
56353SOL    HW179373  11.570  10.687   4.039  0.6557  1.0571 -0.5320
56353SOL    HW279374  11.673  10.578   4.019 -0.4680 -0.1872  0.2803
56354SOL     OW79375   1.132   7.331  11.148 -0.4968  0.4735 -0.6445
56354SOL    HW179376   1.084   7.352  11.228  0.3144 -1.4951  0.4181
56354SOL    HW279377   1.151   7.238  11.154 -1.4623 -0.0671 -3.7564
56355SOL     OW79378   5.515   4.831   1.599  0.1994 -0.2518 -0.0553
56355SOL    HW179379   5.515   4.768   1.526  0.2499  0.3711 -0.5959
56355SOL    HW279380   5.428   4.822   1.638 -0.3553  0.4285 -1.0878
56356SOL     OW79381   6.932  12.170  11.148 -0.0923  0.2374 -0.5020
56356SOL    HW179382   6.878  12.143  11.074 -1.6201 -0.0374  0.6815
56356SOL    HW279383   6.880  12.235  11.195  0.1640 -0.7352  1.2071
56357SOL     OW79384   7.537   5.992   9.201 -0.4238  0.5558  0.0609
56357SOL    HW179385   7.629   5.986   9.227 -0.7318 -1.1239  0.8809
56357SOL    HW279386   7.488   5.958   9.277 -1.6988  1.0041 -0.5307
56358SOL     OW79387  12.429   1.042   1.702  0.3457  0.3468  0.2222
56358SOL    HW179388  12.428   1.083   1.615 -0.3085 -0.1894 -0.0345
56358SOL    HW279389  12.441   1.115   1.762 -2.2497  1.1714 -0.1212
56359SOL     OW79390   4.176   9.065   6.700 -0.6831 -0.1898  0.3945
56359SOL    HW179391   4.157   9.154   6.728  0.0705 -0.3065  1.3274
56359SOL    HW279392   4.095   9.017   6.715 -1.0922  0.3277 -0.1195
56360SOL     OW79393   0.271   3.607   0.867  0.4559 -0.7300  0.4109
56360SOL    HW179394   0.231   3.658   0.937  2.2423  0.2231  0.8150
56360SOL    HW279395   0.221   3.629   0.789 -0.2059 -0.0902  1.0034
56361SOL     OW79396   5.908   6.887   7.804  0.3178  0.2911  0.0244
56361SOL    HW179397   5.855   6.965   7.816 -0.2592  0.0341 -0.7620
56361SOL    HW279398   5.926   6.856   7.892 -1.7755 -0.2309  0.3247
56362SOL     OW79399   2.976   3.126   7.827 -0.4162  0.5461 -0.5360
56362SOL    HW179400   3.038   3.116   7.754 -0.4602  0.3788 -0.5508
56362SOL    HW279401   3.007   3.064   7.893 -2.4430 -1.9940 -1.8075
56363SOL     OW79402   8.043   4.114   6.774  0.3728  0.0483 -0.0717
56363SOL    HW179403   8.070   4.072   6.856  1.2018  0.7844  0.0536
56363SOL    HW279404   7.982   4.183   6.802  1.6637  1.1727  0.0938
56364SOL     OW79405  10.647   7.829  10.241 -0.0002 -0.2614 -0.7423
56364SOL    HW179406  10.644   7.857  10.332 -0.4911  0.5961 -1.0088
56364SOL    HW279407  10.721   7.769  10.237 -0.3620 -0.8068  0.3504
56365SOL     OW79408   6.405   3.813   4.375  0.3526 -0.3212 -0.2376
56365SOL    HW179409   6.371   3.742   4.429  0.9091  0.0284  0.5925
56365SOL    HW279410   6.331   3.841   4.322 -0.0850 -0.9732  0.0213
56366SOL     OW79411  11.923   8.535   2.221  0.6100 -0.4762 -0.3405
56366SOL    HW179412  11.944   8.618   2.178  2.3516 -1.6387 -1.8981
56366SOL    HW279413  11.952   8.547   2.312  0.4653  0.7279 -0.4296
56367SOL     OW79414   1.319   8.364   0.059 -0.4197  0.4837 -0.0898
56367SOL    HW179415   1.379   8.417   0.006  0.1385 -0.3134 -0.2716
56367SOL    HW279416   1.291   8.423   0.129  0.7476  0.8228  0.1194
56368SOL     OW79417  11.089   7.085   5.039 -0.1446  0.6839  0.0920
56368SOL    HW179418  11.184   7.094   5.036  0.0524 -0.5641  1.7616
56368SOL    HW279419  11.057   7.175   5.037  1.0311  1.1096 -0.9065
56369SOL     OW79420  10.059  12.751   8.344 -0.4400  0.2031 -0.6129
56369SOL    HW179421  10.032  12.729   8.433 -0.4135  0.3951 -0.5568
56369SOL    HW279422   9.982  12.734   8.290 -0.2681 -0.5138 -0.6465
56370SOL     OW79423  12.701   7.658   4.563 -0.3449 -0.0545  0.2453
56370SOL    HW179424  12.636   7.697   4.622 -0.3201  0.3385  0.0174
56370SOL    HW279425  12.776   7.639   4.619 -0.7689 -0.8136  0.5772
56371SOL     OW79426   2.323   8.697   1.316  0.0943  0.3128  0.0821
56371SOL    HW179427   2.413   8.693   1.283 -0.4310 -2.7252 -1.3147
56371SOL    HW279428   2.326   8.652   1.400 -0.2358 -0.6821 -0.4181
56372SOL     OW79429   3.843   9.559   6.401  0.1708 -0.4264  0.3592
56372SOL    HW179430   3.777   9.628   6.394 -0.7752 -1.4590 -1.6868
56372SOL    HW279431   3.796   9.484   6.438  1.2120 -0.0341  2.6598
56373SOL     OW79432   2.517   1.278   1.279 -0.0899  0.2438 -0.3474
56373SOL    HW179433   2.475   1.362   1.299  0.0721  0.3624 -0.5042
56373SOL    HW279434   2.445   1.216   1.275 -0.2473  0.4389 -0.5630
56374SOL     OW79435   0.036   8.603  11.452 -0.2492  0.0218  0.1349
56374SOL    HW179436   0.027   8.682  11.504  2.5564  1.6362 -1.5657
56374SOL    HW279437  -0.006   8.534  11.504 -2.4765  2.4995  1.8450
56375SOL     OW79438   1.554   4.368   0.642  0.2688  0.0631  0.2165
56375SOL    HW179439   1.629   4.334   0.593  0.0611  1.6597 -1.3059
56375SOL    HW279440   1.483   4.373   0.578 -0.0540  2.0856  0.6588
56376SOL     OW79441   4.595   5.680   5.535 -0.1453 -0.0485 -0.5538
56376SOL    HW179442   4.637   5.648   5.615  3.2046  1.4314 -1.5498
56376SOL    HW279443   4.650   5.647   5.464 -0.4907  2.2276 -1.9711
56377SOL     OW79444   9.414  10.711   1.488 -0.3462  0.3109  0.5468
56377SOL    HW179445   9.377  10.699   1.575 -1.6471  1.2792  0.1600
56377SOL    HW279446   9.492  10.765   1.502 -0.1983 -0.0575  1.1630
56378SOL     OW79447   2.616   8.355   3.619  0.0924  0.2294 -0.3209
56378SOL    HW179448   2.632   8.310   3.702 -0.7783  0.7259  0.1282
56378SOL    HW279449   2.539   8.409   3.635  0.2872  0.8155 -1.2693
56379SOL     OW79450   8.266  12.373  11.832  0.2147  0.2629  0.0421
56379SOL    HW179451   8.299  12.451  11.877  1.0201  0.2250 -0.4699
56379SOL    HW279452   8.337  12.348  11.773 -0.2874 -0.4962 -0.2442
56380SOL     OW79453  10.428   5.599   3.247 -0.1829 -0.0131 -0.2666
56380SOL    HW179454  10.448   5.644   3.165  0.3593 -1.3897 -0.9252
56380SOL    HW279455  10.335   5.579   3.242 -0.1929  0.0776 -0.4542
56381SOL     OW79456   5.470  10.199  10.345  0.5832 -0.2220  0.0530
56381SOL    HW179457   5.554  10.233  10.375 -0.3684  2.0192  0.4364
56381SOL    HW279458   5.458  10.239  10.258  0.3199 -1.2906 -0.4223
56382SOL     OW79459   8.795   6.873   3.505 -0.0833  0.4463 -0.2257
56382SOL    HW179460   8.793   6.960   3.544  1.7149  0.6922 -0.6127
56382SOL    HW279461   8.843   6.819   3.568  0.6143  0.2509 -0.9078
56383SOL     OW79462   3.085   5.353  11.386  0.7016 -0.2473  0.5468
56383SOL    HW179463   3.119   5.428  11.339 -1.3971  0.3341 -0.1411
56383SOL    HW279464   3.092   5.280  11.324 -1.2130  0.3235 -0.3868
56384SOL     OW79465   1.546   2.751  12.758 -0.2440  0.5375 -0.0199
56384SOL    HW179466   1.462   2.788  12.733  0.5362  1.2262 -1.7853
56384SOL    HW279467   1.574   2.802  12.834 -0.8863  1.0537 -0.1260
56385SOL     OW79468   3.740  11.405  11.754 -0.4994  0.4424  0.4227
56385SOL    HW179469   3.735  11.356  11.672  1.8404 -1.3567  1.2295
56385SOL    HW279470   3.654  11.394  11.794 -0.9721 -0.5495 -0.8034
56386SOL     OW79471   0.902   7.080  11.381  0.1094  0.1187  0.7998
56386SOL    HW179472   0.859   7.159  11.348 -0.0453 -0.8015 -1.3444
56386SOL    HW279473   0.869   7.009  11.326  2.9521 -0.9093  0.2248
56387SOL     OW79474   9.750  12.502   7.118  0.6998 -0.3205 -0.0925
56387SOL    HW179475   9.836  12.509   7.077  0.6999 -2.0562 -0.4364
56387SOL    HW279476   9.714  12.591   7.112  3.0204  0.8296  1.3975
56388SOL     OW79477   8.643   3.167   7.685 -0.1148 -0.2960  0.2555
56388SOL    HW179478   8.711   3.213   7.735  0.0919 -0.1157 -0.1936
56388SOL    HW279479   8.683   3.149   7.600 -0.7442  0.1145 -0.1289
56389SOL     OW79480   3.475   1.633   1.785 -0.0151  0.0613  0.1330
56389SOL    HW179481   3.428   1.648   1.867  0.2192  0.9177  0.1162
56389SOL    HW279482   3.530   1.711   1.774 -0.9536  0.5391 -1.4460
56390SOL     OW79483   8.745   7.641   2.028 -0.1106 -0.4918 -0.2158
56390SOL    HW179484   8.731   7.714   2.089  1.7958 -0.7727  0.6190
56390SOL    HW279485   8.794   7.577   2.078  3.6076  0.1918 -2.5734
56391SOL     OW79486   5.768   7.780   6.185  0.4373  0.2818  0.0517
56391SOL    HW179487   5.848   7.815   6.146  1.3182 -1.7906 -0.1180
56391SOL    HW279488   5.790   7.766   6.277  0.6530 -1.1937 -0.1882
56392SOL     OW79489   1.288   9.306   1.047 -0.0707  0.4087 -0.0133
56392SOL    HW179490   1.250   9.247   0.981 -1.9698  0.1983  1.1923
56392SOL    HW279491   1.303   9.387   0.999 -1.3795  0.2543 -0.7586
56393SOL     OW79492   4.879   5.646   8.380 -0.0571 -0.9202  0.4367
56393SOL    HW179493   4.883   5.584   8.453  1.0009 -0.2899  0.9297
56393SOL    HW279494   4.830   5.599   8.313  3.1495 -3.5725 -0.3596
56394SOL     OW79495   7.639  10.099   9.679 -0.2185  0.0751  0.0794
56394SOL    HW179496   7.657  10.037   9.609 -4.0909  0.3937 -1.4332
56394SOL    HW279497   7.705  10.168   9.668  2.9386 -2.5968  0.5950
56395SOL     OW79498  12.733   8.434   0.569 -0.2559 -0.2564  0.0905
56395SOL    HW179499  12.824   8.456   0.551 -0.6498  1.8421  0.3291
56395SOL    HW279500  12.723   8.447   0.663 -0.6690 -1.0224  0.1573
56396SOL     OW79501   9.977  12.795   2.312  0.3797  0.4788 -0.0264
56396SOL    HW179502  10.063  12.837   2.309  0.9372 -0.6557 -0.3151
56396SOL    HW279503   9.936  12.830   2.391  1.4991  0.2966  0.6612
56397SOL     OW79504   1.170  10.605   3.176  0.0478  0.3075  0.4773
56397SOL    HW179505   1.200  10.589   3.265 -2.3671  0.0036  1.3212
56397SOL    HW279506   1.113  10.682   3.183  0.6142  0.9023 -1.0041
56398SOL     OW79507   7.091   8.663   4.676  0.1273 -0.3623  0.5686
56398SOL    HW179508   7.180   8.695   4.661 -0.5554  1.0717 -0.6263
56398SOL    HW279509   7.072   8.609   4.600 -0.6286  0.7434 -0.0429
56399SOL     OW79510   9.010  12.353  10.332 -0.5590  0.3723  0.2792
56399SOL    HW179511   9.029  12.264  10.305  0.1462  0.1849  1.3545
56399SOL    HW279512   9.070  12.408  10.281  1.9133 -0.0923  2.4895
56400SOL     OW79513   5.102   3.120   8.446 -0.4689  0.1300  0.6253
56400SOL    HW179514   5.050   3.152   8.373  1.1204 -2.3275 -1.8278
56400SOL    HW279515   5.046   3.055   8.490 -0.4276 -0.6070 -0.3746
56401SOL     OW79516   9.077   8.252   6.588 -0.0043 -0.1663 -0.3218
56401SOL    HW179517   9.083   8.265   6.494 -1.6376  1.0698 -0.3049
56401SOL    HW279518   9.125   8.326   6.626 -2.1119  1.2530 -0.2371
56402SOL     OW79519  11.059   6.039   0.224  0.0906 -0.4111 -0.2549
56402SOL    HW179520  10.989   5.974   0.216  3.4041 -4.2272 -1.4504
56402SOL    HW279521  11.081   6.062   0.134  0.6209  0.5029  0.0916
56403SOL     OW79522  12.960   9.532   7.460  0.1767  0.6069 -0.4004
56403SOL    HW179523  12.921   9.470   7.397  0.9663  0.9192 -1.2132
56403SOL    HW279524  12.894   9.539   7.530  0.9565 -2.8472  0.8657
56404SOL     OW79525  10.431   6.643   0.481  0.0361 -0.2007  0.2450
56404SOL    HW179526  10.387   6.621   0.398 -0.4815 -1.1590  0.7536
56404SOL    HW279527  10.372   6.706   0.523 -0.2967 -0.6194  0.4137
56405SOL     OW79528  10.619   2.915   9.197 -0.9999 -0.3627 -0.4580
56405SOL    HW179529  10.691   2.871   9.153  0.2299 -0.2966  1.3768
56405SOL    HW279530  10.584   2.850   9.257 -3.3276 -0.7947 -2.1507
56406SOL     OW79531   5.673  11.673   8.012 -0.2161 -0.3904 -0.2445
56406SOL    HW179532   5.583  11.660   7.982 -1.2254 -0.9693  2.6980
56406SOL    HW279533   5.718  11.592   7.988 -0.6848 -0.4139 -1.0696
56407SOL     OW79534   1.125   0.449   9.814  0.3800  0.2354  0.1555
56407SOL    HW179535   1.033   0.431   9.797  0.0365  1.8085  0.2389
56407SOL    HW279536   1.159   0.367   9.850 -0.4043 -1.1151 -2.0251
56408SOL     OW79537  12.838   2.563  12.118  0.3234  0.1579 -0.0600
56408SOL    HW179538  12.863   2.518  12.038 -0.2120  1.1349 -0.7994
56408SOL    HW279539  12.817   2.652  12.090 -1.5433  0.0606  0.8688
56409SOL     OW79540   9.809   1.487   2.560 -0.3030 -0.1459  0.7621
56409SOL    HW179541   9.758   1.429   2.616 -0.1118 -0.0008  1.0926
56409SOL    HW279542   9.870   1.530   2.620 -0.8713  0.8730  0.6270
56410SOL     OW79543  10.103   9.996   9.777 -0.6115  0.6005 -0.2427
56410SOL    HW179544  10.030  10.017   9.836 -0.2618  2.6356 -0.4396
56410SOL    HW279545  10.161  10.072   9.783  0.4128 -0.0078 -1.7442
56411SOL     OW79546   1.340   2.643   3.665  0.3488  0.3992  0.1658
56411SOL    HW179547   1.276   2.573   3.681 -0.2320  0.7696 -0.4580
56411SOL    HW279548   1.410   2.626   3.727 -0.8497  0.6047  1.6440
56412SOL     OW79549   0.990   1.488  10.745  0.1183  0.2091  0.4317
56412SOL    HW179550   0.915   1.429  10.748 -2.2509  3.0131  1.5996
56412SOL    HW279551   1.059   1.441  10.792 -2.3742 -0.7896  3.4378
56413SOL     OW79552  11.983   1.012   7.830 -0.6478 -0.2155  0.2000
56413SOL    HW179553  11.943   0.955   7.896 -0.9140  0.7102  0.8687
56413SOL    HW279554  11.911   1.037   7.773 -1.2442  1.9423  1.7617
56414SOL     OW79555   1.396   4.351   8.716  0.0445 -0.0480 -0.0237
56414SOL    HW179556   1.454   4.406   8.769  0.9305 -1.4528  0.5445
56414SOL    HW279557   1.443   4.338   8.634 -0.3252  0.3216 -0.2994
56415SOL     OW79558   7.248  11.907   4.895 -0.2788  0.1313  0.4777
56415SOL    HW179559   7.280  11.856   4.821 -0.3750  0.5458  0.1474
56415SOL    HW279560   7.210  11.843   4.954  0.7657 -0.3251  0.6702
56416SOL     OW79561   2.036  12.753   7.649  0.0463 -0.1220 -0.1214
56416SOL    HW179562   1.945  12.726   7.641  0.2304 -1.0643  0.8049
56416SOL    HW279563   2.037  12.817   7.720  0.1691 -0.4392  0.1651
56417SOL     OW79564   0.471   8.187   9.302 -0.0813 -0.2379 -0.0507
56417SOL    HW179565   0.391   8.137   9.289  0.0063 -0.2766 -0.4414
56417SOL    HW279566   0.501   8.209   9.214 -0.9900  1.9161  0.1253
56418SOL     OW79567   4.100  10.596   6.079 -0.0341  0.5073  0.6442
56418SOL    HW179568   4.092  10.500   6.078  0.2279  0.4427 -1.6771
56418SOL    HW279569   4.115  10.618   6.171 -2.4077 -1.4436  1.6118
56419SOL     OW79570   2.385   8.575   1.585  0.1025 -0.1164 -0.0573
56419SOL    HW179571   2.447   8.594   1.656 -0.4605 -1.8582  0.9887
56419SOL    HW279572   2.314   8.526   1.628 -0.3564 -1.0640 -1.7911
56420SOL     OW79573   0.968   1.302   2.333  0.6083  0.2432  0.1833
56420SOL    HW179574   1.041   1.251   2.368  0.0290  0.2014  1.3643
56420SOL    HW279575   0.987   1.309   2.239  2.9966  1.6419  0.6884
56421SOL     OW79576   2.285   1.344   5.208  0.2778  0.1307  0.0793
56421SOL    HW179577   2.240   1.382   5.283  0.2600 -0.0084  0.1402
56421SOL    HW279578   2.269   1.250   5.216 -1.8325  0.2892 -1.4413
56422SOL     OW79579   6.207  10.168  11.627  0.1804  0.1174 -0.0068
56422SOL    HW179580   6.294  10.195  11.600  0.2269 -1.5821 -1.7735
56422SOL    HW279581   6.148  10.216  11.569  0.1038 -0.9334 -0.8174
56423SOL     OW79582   5.525   1.206   2.573 -0.2492 -0.2216  0.3475
56423SOL    HW179583   5.580   1.128   2.581  0.8265  0.5052  0.2912
56423SOL    HW279584   5.473   1.207   2.654  1.3883  0.2188  1.4624
56424SOL     OW79585   8.418  12.885   5.340 -0.0704 -0.3476  0.1191
56424SOL    HW179586   8.385  12.968   5.376  1.3803  0.1647  0.3451
56424SOL    HW279587   8.402  12.821   5.409  1.3452  0.3339  1.1247
56425SOL     OW79588  11.544   7.011  12.135  0.3655  0.5160 -0.5417
56425SOL    HW179589  11.461   7.058  12.129  0.0087  0.0886  0.7446
56425SOL    HW279590  11.608   7.071  12.097 -0.2428  1.6194  0.1196
56426SOL     OW79591   2.683   2.018  11.875  0.4283 -0.2816 -0.2389
56426SOL    HW179592   2.700   1.925  11.892  0.1879 -0.2041  0.4542
56426SOL    HW279593   2.709   2.062  11.955 -1.0958  0.0619  0.0952
56427SOL     OW79594   1.320   9.198   8.836 -0.3959 -0.4422  0.3283
56427SOL    HW179595   1.272   9.280   8.819 -0.1090 -0.3511 -0.0506
56427SOL    HW279596   1.338   9.163   8.749 -0.2111 -0.7337  0.4840
56428SOL     OW79597  12.982   6.131   5.534 -0.1509  0.0110 -0.0433
56428SOL    HW179598  12.987   6.203   5.471 -0.0274  1.2227  1.2993
56428SOL    HW279599  13.071   6.099   5.542 -0.3771 -1.1135 -1.5029
56429SOL     OW79600   6.372   5.804   6.911  0.1567  0.5571 -0.0701
56429SOL    HW179601   6.467   5.817   6.904  0.2307  0.5588  0.8291
56429SOL    HW279602   6.337   5.839   6.829  0.7729  2.1758  0.3208
56430SOL     OW79603   3.683   2.817   4.214 -0.8702  1.0384  0.2836
56430SOL    HW179604   3.612   2.786   4.270  0.1976 -1.8377  0.2007
56430SOL    HW279605   3.755   2.838   4.275 -0.2012 -0.7106  0.1490
56431SOL     OW79606  10.464   1.935   1.173  0.0908  0.1199  0.0396
56431SOL    HW179607  10.459   2.029   1.188 -2.0995 -0.0391  0.6005
56431SOL    HW279608  10.482   1.898   1.259  1.7383  0.0111 -0.3029
56432SOL     OW79609  11.502   0.307   8.065  0.2372 -0.1475 -0.2911
56432SOL    HW179610  11.542   0.354   7.991 -0.2841 -1.0905 -1.2084
56432SOL    HW279611  11.419   0.276   8.030 -0.0374 -0.5805  0.7260
56433SOL     OW79612   5.726  11.769   1.133  0.1909 -0.4269 -0.0733
56433SOL    HW179613   5.805  11.819   1.155  0.0575 -0.0016 -0.5458
56433SOL    HW279614   5.711  11.713   1.210  0.3590  0.2354  0.4488
56434SOL     OW79615   6.508  12.985   3.640  0.4472 -0.0023  0.0748
56434SOL    HW179616   6.498  13.075   3.610  2.8494  0.3452  0.1010
56434SOL    HW279617   6.494  12.990   3.735 -1.0427  0.0076 -0.1214
56435SOL     OW79618  12.548   7.182   7.681  0.3019  0.0812 -0.6318
56435SOL    HW179619  12.607   7.246   7.722 -1.2854  0.1661  1.7586
56435SOL    HW279620  12.502   7.231   7.614  0.2851  1.0442  0.0591
56436SOL     OW79621   7.369  12.037   5.233 -0.3726  0.0142 -0.0604
56436SOL    HW179622   7.325  11.984   5.166 -0.6174 -0.0689  0.1663
56436SOL    HW279623   7.345  11.996   5.316 -0.3819  0.3489  0.1047
56437SOL     OW79624   3.412   1.960   0.794  0.5701  0.0334  0.5486
56437SOL    HW179625   3.490   1.913   0.764  1.2194  1.9656 -1.0220
56437SOL    HW279626   3.355   1.963   0.718 -0.8176 -0.8025  1.5050
56438SOL     OW79627  11.014  11.329   9.199  0.3018  0.2990  0.2140
56438SOL    HW179628  11.027  11.379   9.119  3.4874  0.3913  0.6609
56438SOL    HW279629  11.023  11.394   9.269  3.5661 -0.5797  0.7635
56439SOL     OW79630  11.766   2.051   9.343  0.1369  0.5152 -0.2092
56439SOL    HW179631  11.776   2.072   9.436  0.7000  3.4422 -0.8339
56439SOL    HW279632  11.855   2.052   9.308  0.0424 -1.5682 -0.6827
56440SOL     OW79633  10.035  10.551   9.507  0.2456  0.0317 -0.7276
56440SOL    HW179634   9.982  10.475   9.484  0.2735 -0.2444  0.0681
56440SOL    HW279635  10.002  10.622   9.452 -2.0094  0.2630  0.8158
56441SOL     OW79636   0.253  10.590   3.411 -0.4105 -0.7112  0.5309
56441SOL    HW179637   0.269  10.675   3.451  1.2558 -0.2175 -1.0061
56441SOL    HW279638   0.266  10.527   3.482 -1.1713  0.2678  1.5736
56442SOL     OW79639   5.319   7.326   6.384  0.2094 -0.0408  0.1618
56442SOL    HW179640   5.282   7.257   6.438  0.5876 -0.1042  0.3417
56442SOL    HW279641   5.357   7.388   6.446 -0.5878  0.6025  0.0281
56443SOL     OW79642  11.622   7.078   2.696  0.0698  0.1103 -0.3297
56443SOL    HW179643  11.576   6.994   2.687 -0.0385  0.3197 -1.9553
56443SOL    HW279644  11.715   7.055   2.692  0.0469  0.0380 -0.4211
56444SOL     OW79645   2.028   6.427   4.836 -0.1796 -0.6009  0.8401
56444SOL    HW179646   2.104   6.370   4.850 -0.6239 -1.0693  1.4049
56444SOL    HW279647   2.064   6.516   4.837  0.8895 -0.8614 -2.2567
56445SOL     OW79648  12.040   8.663  12.958 -0.3717 -0.0013 -0.8301
56445SOL    HW179649  12.099   8.603  13.004  0.4292  0.0198 -1.7875
56445SOL    HW279650  12.093   8.741  12.942 -1.4949  1.1370  0.6916
56446SOL     OW79651   3.523   7.814   7.682  0.4882 -0.1785  0.1149
56446SOL    HW179652   3.555   7.824   7.771  1.9140  1.1329 -0.5151
56446SOL    HW279653   3.444   7.868   7.678  2.6648  3.2301 -0.4793
56447SOL     OW79654  11.348   5.394   4.002 -0.0046  0.4414  0.0252
56447SOL    HW179655  11.318   5.333   3.934 -0.3870  1.8348 -1.0883
56447SOL    HW279656  11.428   5.432   3.966  0.0809  0.8100  0.6000
56448SOL     OW79657   0.943   4.982   7.213  0.3329 -0.4280  0.3742
56448SOL    HW179658   1.026   4.942   7.239  0.9586  0.4737 -0.1731
56448SOL    HW279659   0.894   4.912   7.171  0.9554 -0.8888  0.4151
56449SOL     OW79660   9.723  11.200   8.888 -0.2260 -0.0354  0.1391
56449SOL    HW179661   9.761  11.112   8.880  2.1689  0.9714 -0.4084
56449SOL    HW279662   9.797  11.259   8.879 -1.6597  2.0653  1.2740
56450SOL     OW79663  11.389   8.505   4.898  0.1758  0.7407  0.3711
56450SOL    HW179664  11.444   8.490   4.820  2.0351  2.0378  1.3520
56450SOL    HW279665  11.372   8.417   4.932 -1.8916  0.0189 -2.2185
56451SOL     OW79666  11.474   7.628   5.773  0.9502 -0.2537 -0.1221
56451SOL    HW179667  11.525   7.659   5.847  2.6816 -0.6911 -1.0854
56451SOL    HW279668  11.425   7.705   5.743  0.2188 -0.0748  1.4245
56452SOL     OW79669   4.579   4.734   6.401  0.1816  0.1849 -0.1118
56452SOL    HW179670   4.592   4.825   6.425  1.9361 -0.2539  0.7649
56452SOL    HW279671   4.599   4.731   6.307  0.6971  0.6109 -0.0222
56453SOL     OW79672  10.192  11.830   0.746 -0.2696  0.5369  0.1991
56453SOL    HW179673  10.195  11.757   0.684 -2.3548  1.0007 -0.5377
56453SOL    HW279674  10.234  11.903   0.699  0.5543  0.1989  0.3941
56454SOL     OW79675  11.701   0.819  10.640 -0.5432  0.1701 -0.3892
56454SOL    HW179676  11.771   0.787  10.582  1.1077  1.9714  0.4788
56454SOL    HW279677  11.716   0.772  10.722 -0.4904  0.3884 -0.2736
56455SOL     OW79678   4.245   1.653   8.817 -0.3589  0.0112 -0.0183
56455SOL    HW179679   4.259   1.715   8.745 -0.0976  0.2741  0.2576
56455SOL    HW279680   4.181   1.695   8.874  0.5993  0.5035  0.7193
56456SOL     OW79681   3.107   0.642  10.493  0.1082 -0.5946 -0.2287
56456SOL    HW179682   3.106   0.550  10.518  2.2661 -0.2507  1.4414
56456SOL    HW279683   3.111   0.690  10.576 -0.4614  0.9917 -1.0661
56457SOL     OW79684   4.558   6.450   8.491 -0.5188  0.1561 -0.6147
56457SOL    HW179685   4.584   6.432   8.401 -0.5666 -1.2801 -0.3561
56457SOL    HW279686   4.477   6.501   8.483 -0.5047  0.0637 -1.3790
56458SOL     OW79687  10.249   3.335   1.079 -0.3535 -0.0293  0.3323
56458SOL    HW179688  10.211   3.247   1.082 -0.7308  0.1199 -0.0176
56458SOL    HW279689  10.205   3.378   1.006  0.2593  0.2544  0.1227
56459SOL     OW79690   5.626   3.432   7.897 -0.4452  0.3412 -0.3606
56459SOL    HW179691   5.700   3.397   7.947 -0.0949  0.3977 -0.8356
56459SOL    HW279692   5.587   3.496   7.956 -0.2999  0.0980  0.0111
56460SOL     OW79693   7.329  11.780   6.077  0.1642  0.4502 -0.3757
56460SOL    HW179694   7.285  11.846   6.023  1.2703  1.1484 -0.4576
56460SOL    HW279695   7.419  11.812   6.085  0.4022 -0.4186  0.6297
56461SOL     OW79696   2.491   1.462   6.483  0.3547  0.5778 -0.5214
56461SOL    HW179697   2.406   1.429   6.511  0.6436  1.7411  1.9817
56461SOL    HW279698   2.472   1.519   6.409 -0.7914 -0.6057 -1.1774
56462SOL     OW79699   8.094  10.345   1.762 -0.0130 -0.2682  0.4111
56462SOL    HW179700   8.096  10.414   1.695 -1.5163  0.3248  0.9427
56462SOL    HW279701   8.103  10.391   1.845  0.4084 -0.8704  0.7101
56463SOL     OW79702   3.422   1.619   2.821 -0.1821  0.8585  0.2626
56463SOL    HW179703   3.493   1.634   2.758 -0.6244  0.0169 -0.4705
56463SOL    HW279704   3.465   1.622   2.906  1.3166 -2.2409 -0.2207
56464SOL     OW79705   3.881  11.730   6.967 -0.2621 -0.3221  0.0958
56464SOL    HW179706   3.880  11.635   6.979  1.8476 -0.3602  0.1934
56464SOL    HW279707   3.928  11.764   7.043  1.0124  0.5836 -1.0460
56465SOL     OW79708   8.452   9.998   0.350 -0.2002 -0.3675 -0.0436
56465SOL    HW179709   8.489   9.910   0.354 -0.1879 -0.4090 -0.8756
56465SOL    HW279710   8.358   9.985   0.356 -0.2615 -0.5304 -1.2416
56466SOL     OW79711   3.671  10.770   9.992  0.2602  0.0708  0.6552
56466SOL    HW179712   3.721  10.798   9.915  0.8370  1.7430  1.5919
56466SOL    HW279713   3.738  10.745  10.056 -0.1280  0.8285  1.3774
56467SOL     OW79714   3.944   7.979   9.253  0.0904 -1.1015 -0.2797
56467SOL    HW179715   3.958   7.979   9.159 -2.8338  0.5877 -0.8426
56467SOL    HW279716   3.958   7.888   9.280  0.6083 -1.6893 -2.3801
56468SOL     OW79717   7.584  12.736   7.991  0.0219 -0.2631  0.1505
56468SOL    HW179718   7.678  12.721   7.996  0.5515  2.3246 -0.1984
56468SOL    HW279719   7.560  12.769   8.078 -0.8169 -1.9136  0.5769
56469SOL     OW79720  10.924   3.138   6.373 -0.2507  0.4274  0.5490
56469SOL    HW179721  10.858   3.071   6.393  0.2647 -0.8693 -1.7451
56469SOL    HW279722  10.930   3.190   6.453 -2.3970 -0.8039  1.6097
56470SOL     OW79723  11.662   8.141   1.433  0.0122 -0.2342 -0.0346
56470SOL    HW179724  11.613   8.094   1.365 -0.2697  0.7896 -0.5595
56470SOL    HW279725  11.733   8.081   1.457 -0.9447 -1.3581  0.0821
56471SOL     OW79726   8.489  11.768   1.166 -0.1387  0.4229  0.3589
56471SOL    HW179727   8.452  11.690   1.124  4.4276 -1.9570  0.1181
56471SOL    HW279728   8.455  11.766   1.256 -2.1399 -0.2291 -0.3523
56472SOL     OW79729   8.607   6.493   6.158  0.3442 -0.9420  0.0282
56472SOL    HW179730   8.602   6.502   6.253 -0.1262 -1.8926  0.1065
56472SOL    HW279731   8.607   6.583   6.126 -0.0362 -0.6139  0.9027
56473SOL     OW79732  12.871  10.004   3.914  0.2495  0.3999  0.5148
56473SOL    HW179733  12.793  10.036   3.869 -0.3674  0.9456  1.9336
56473SOL    HW279734  12.838   9.961   3.993  1.3311 -0.1381  0.6925
56474SOL     OW79735   5.328   2.327  10.410 -0.2693  0.2396  0.2921
56474SOL    HW179736   5.372   2.256  10.363  1.0836  1.1527  0.0960
56474SOL    HW279737   5.297   2.287  10.491 -1.6709 -1.1075 -0.8500
56475SOL     OW79738  10.976   6.973   1.986  0.3779 -0.2668  0.0930
56475SOL    HW179739  11.005   7.057   2.022 -0.4683  0.5733 -1.0743
56475SOL    HW279740  11.005   6.975   1.894 -1.1347 -0.4687 -0.4260
56476SOL     OW79741   1.272   5.335   8.160 -0.4794  0.5422 -0.1478
56476SOL    HW179742   1.360   5.373   8.161 -0.3472  0.2254  0.7158
56476SOL    HW279743   1.214   5.410   8.176 -0.2503  0.4798  1.0428
56477SOL     OW79744   1.264   1.215   9.079 -0.3552 -0.2162  0.0603
56477SOL    HW179745   1.199   1.285   9.076 -0.0700  0.0143 -0.7766
56477SOL    HW279746   1.339   1.253   9.126 -0.7154 -0.4080  0.8152
56478SOL     OW79747   1.424  12.883  11.007 -0.1735 -0.2722 -0.2138
56478SOL    HW179748   1.450  12.975  10.998 -0.8162 -0.1537 -0.8992
56478SOL    HW279749   1.507  12.835  11.002  0.4130  0.3610  2.0340
56479SOL     OW79750   4.066   9.256   6.854  0.4517  0.0691  0.2298
56479SOL    HW179751   4.039   9.319   6.787  0.3519 -1.1087 -0.8798
56479SOL    HW279752   4.036   9.293   6.936 -2.6264 -0.1023 -0.7109
56480SOL     OW79753   7.184  11.397   3.616 -0.1307  0.1781 -0.1963
56480SOL    HW179754   7.121  11.351   3.671  0.1180 -0.1738 -0.2011
56480SOL    HW279755   7.134  11.467   3.574 -0.4715  0.0224 -0.0484
56481SOL     OW79756   2.772   5.208  12.391 -0.0126 -0.3089 -0.0966
56481SOL    HW179757   2.820   5.172  12.465  0.8638 -1.9974 -1.4455
56481SOL    HW279758   2.839   5.234  12.328 -0.7783  0.3311 -0.6775
56482SOL     OW79759   2.288   0.567   9.046 -0.1711  0.5439 -0.1083
56482SOL    HW179760   2.359   0.503   9.056  1.2533  1.7737 -1.6686
56482SOL    HW279761   2.270   0.569   8.952  0.1154  2.6789 -0.1726
56483SOL     OW79762   8.998  10.026   4.607 -0.5109 -0.3677 -0.6173
56483SOL    HW179763   9.024  10.114   4.633  2.4880 -1.3734  0.2374
56483SOL    HW279764   8.979  10.033   4.514  1.6253  0.8733 -1.0287
56484SOL     OW79765   3.465   7.496   0.853  0.0788 -0.4249 -0.1335
56484SOL    HW179766   3.513   7.520   0.932 -0.3881  0.9281 -0.2372
56484SOL    HW279767   3.500   7.410   0.829  1.5436 -0.0388  0.4959
56485SOL     OW79768   8.003   1.006   4.837 -0.3523 -0.0343  0.0466
56485SOL    HW179769   7.919   0.984   4.877  0.7187 -2.1894  1.3373
56485SOL    HW279770   8.027   0.928   4.787  0.6674  0.7215 -0.6860
56486SOL     OW79771  12.818  12.982   5.753  0.2706 -0.1067 -0.1803
56486SOL    HW179772  12.826  13.027   5.669  1.7523  0.9079  0.4533
56486SOL    HW279773  12.879  13.029   5.811 -2.1744  0.5822  2.0509
56487SOL     OW79774   9.272  11.916   8.948 -0.8584  0.0665  0.1123
56487SOL    HW179775   9.251  11.950   9.035 -0.1449  1.7258 -0.3248
56487SOL    HW279776   9.208  11.957   8.890 -0.2758  0.3045 -0.3713
56488SOL     OW79777  11.408   1.275   7.260  0.0279  0.5740  0.5628
56488SOL    HW179778  11.455   1.359   7.260 -1.0339  1.1897  0.0994
56488SOL    HW279779  11.345   1.283   7.331 -0.2201  0.2582  0.3809
56489SOL     OW79780   5.228   3.114   5.349  0.8233  0.4406 -0.6935
56489SOL    HW179781   5.208   3.193   5.299  2.1445  1.8639  0.8752
56489SOL    HW279782   5.189   3.130   5.436  0.6120 -0.9145 -0.5084
56490SOL     OW79783   9.401   0.596  10.839 -0.6579  0.2893  0.0239
56490SOL    HW179784   9.435   0.520  10.886  0.0689  0.8562  0.4247
56490SOL    HW279785   9.388   0.565  10.750  2.2333  0.3889 -0.5142
56491SOL     OW79786  11.646  10.525   4.665 -0.4717 -0.3007 -0.3227
56491SOL    HW179787  11.568  10.472   4.652 -1.3028  0.9161 -0.3940
56491SOL    HW279788  11.621  10.591   4.729  0.8880 -0.6579  0.6145
56492SOL     OW79789   3.408   6.921  11.312 -0.2741 -0.2063  0.1156
56492SOL    HW179790   3.378   6.935  11.223  2.3888  0.3513 -0.8038
56492SOL    HW279791   3.449   6.834  11.310  0.2835  0.0338  0.6079
56493SOL     OW79792  12.224   6.632   4.255  0.3875  0.5990  0.0173
56493SOL    HW179793  12.129   6.626   4.245  0.3454  1.5945 -0.3200
56493SOL    HW279794  12.248   6.714   4.210  1.2090  1.1584  1.3975
56494SOL     OW79795   3.000   0.040   8.019 -0.5965 -0.2335  0.9725
56494SOL    HW179796   3.029   0.091   8.094  2.0913 -0.7126  0.3751
56494SOL    HW279797   2.957   0.103   7.962 -0.9749  0.5034  2.0521
56495SOL     OW79798   1.610   2.539   7.327  0.1453 -0.4898  0.7419
56495SOL    HW179799   1.522   2.529   7.291  0.5549  0.0608 -0.4898
56495SOL    HW279800   1.611   2.629   7.361  0.2537 -0.4504  0.6385
56496SOL     OW79801  12.861   9.971  10.555 -0.0595  0.1796 -0.2602
56496SOL    HW179802  12.898  10.056  10.530 -0.3763  0.3580 -0.1281
56496SOL    HW279803  12.785   9.993  10.610  0.3460 -0.1980  0.4614
56497SOL     OW79804   4.541   1.968   0.037  0.3110  0.6261  0.1858
56497SOL    HW179805   4.628   1.970  -0.003 -0.4079  1.1220 -1.4689
56497SOL    HW279806   4.549   2.021   0.116  1.5834  0.4109  0.2134
56498SOL     OW79807  12.411   1.781   4.606  0.2118  0.4942 -0.4864
56498SOL    HW179808  12.444   1.865   4.574  0.3597  0.1615 -1.2347
56498SOL    HW279809  12.489   1.734   4.635 -0.0771  1.4558  2.0643
56499SOL     OW79810  12.526  12.883  10.345 -0.3079 -0.2527  0.2922
56499SOL    HW179811  12.555  12.795  10.366 -0.2755 -0.3772 -0.2496
56499SOL    HW279812  12.569  12.904  10.262  0.0755  0.4667  0.6637
56500SOL     OW79813   1.959   7.353  12.961  0.7794  0.8345  0.1748
56500SOL    HW179814   1.990   7.411  12.891  1.4577 -0.4726 -0.6485
56500SOL    HW279815   1.963   7.265  12.923 -0.0984  0.2199  1.4332
56501SOL     OW79816  12.793   1.083  11.558  0.3232 -0.0966 -0.0118
56501SOL    HW179817  12.807   1.147  11.489  0.4485 -0.5574 -0.4226
56501SOL    HW279818  12.768   1.134  11.635  0.7764  0.4644 -0.2386
56502SOL     OW79819  10.692  11.533   3.544  0.6593  0.1822  0.3902
56502SOL    HW179820  10.689  11.439   3.559 -0.3733  0.6612  4.2955
56502SOL    HW279821  10.638  11.547   3.466  0.8400 -2.3848 -0.2999
56503SOL     OW79822  10.430   3.087  12.778  0.0985  0.1766  0.2060
56503SOL    HW179823  10.426   3.128  12.865 -0.2123 -1.5663  1.0623
56503SOL    HW279824  10.363   3.133  12.728  1.6311  2.5784  0.2123
56504SOL     OW79825   9.174   0.884   5.453  0.2022  0.1091  0.5687
56504SOL    HW179826   9.247   0.822   5.449  0.2885  0.0851  2.0272
56504SOL    HW279827   9.108   0.841   5.506 -0.6756  0.3521 -0.3050
56505SOL     OW79828   4.916   1.855   6.786  0.4398 -0.8045  0.0535
56505SOL    HW179829   4.837   1.808   6.813  0.4842  0.2144  2.0919
56505SOL    HW279830   4.940   1.814   6.703 -2.1493 -1.2214 -0.5783
56506SOL     OW79831  11.404   7.946  11.352  0.0133  0.1639 -0.1232
56506SOL    HW179832  11.480   7.974  11.302 -0.0083  1.6227  0.6278
56506SOL    HW279833  11.332   7.949  11.290  0.0004  1.8792 -0.0604
56507SOL     OW79834  10.571   6.821   8.204 -0.1544 -0.3640  0.0926
56507SOL    HW179835  10.503   6.887   8.220 -1.6389 -1.9471  0.6522
56507SOL    HW279836  10.632   6.832   8.277 -1.7722 -1.2236  1.6831
56508SOL     OW79837   4.877  11.789   0.160  0.2067  0.1234 -0.2829
56508SOL    HW179838   4.852  11.796   0.252  0.7618  1.7126 -0.2271
56508SOL    HW279839   4.851  11.873   0.122  0.2056 -0.4220 -1.5229
56509SOL     OW79840   1.657   4.870   6.998 -0.4782  0.2336 -0.6280
56509SOL    HW179841   1.587   4.935   7.005  0.3447  1.0938 -0.1385
56509SOL    HW279842   1.699   4.888   6.914 -0.0048  0.6047 -0.3195
56510SOL     OW79843   2.607  10.256   8.704  0.0459 -0.3853  0.2313
56510SOL    HW179844   2.556  10.240   8.625  0.1158  0.0701  0.0865
56510SOL    HW279845   2.666  10.328   8.680 -1.2034  1.0536  1.2381
56511SOL     OW79846   9.607   9.748   3.872 -0.1650 -0.2356 -0.2708
56511SOL    HW179847   9.643   9.694   3.802 -0.8566  1.0578 -1.6856
56511SOL    HW279848   9.516   9.762   3.848 -0.4773  0.0825  1.0006
56512SOL     OW79849   8.906   9.433  11.169 -0.4101 -0.5091 -0.2888
56512SOL    HW179850   8.884   9.340  11.170  1.0925 -0.8894 -0.1623
56512SOL    HW279851   8.926   9.452  11.077  3.6071 -1.4729  0.2000
56513SOL     OW79852   0.931  10.088   4.326 -0.8300  0.0759 -0.2007
56513SOL    HW179853   0.893  10.018   4.275 -0.7049  0.7561 -1.2574
56513SOL    HW279854   0.859  10.150   4.340 -1.0582 -0.4450  1.1129
56514SOL     OW79855  10.569   3.530   8.786  0.1792  0.3468 -0.0880
56514SOL    HW179856  10.514   3.516   8.709 -1.4060  0.4440  0.9687
56514SOL    HW279857  10.606   3.444   8.805  0.1525  0.2093 -0.6336
56515SOL     OW79858   4.614   7.761   6.645 -0.0470  0.0473 -0.6094
56515SOL    HW179859   4.601   7.730   6.735 -1.6313  0.7455 -0.5688
56515SOL    HW279860   4.651   7.849   6.656 -0.6814  0.3212 -0.6153
56516SOL     OW79861   1.832   9.094   9.630 -0.0163  0.3448  0.1274
56516SOL    HW179862   1.881   9.160   9.679  1.8895 -0.6288 -0.3669
56516SOL    HW279863   1.887   9.015   9.635 -0.7655 -0.3499 -1.8229
56517SOL     OW79864   2.120   6.018   6.808 -0.4351 -0.6426  0.0142
56517SOL    HW179865   2.048   6.080   6.819  2.1133  2.5525  0.1342
56517SOL    HW279866   2.191   6.053   6.863  2.3634 -1.5915 -2.6741
56518SOL     OW79867   8.732   1.835   9.158 -0.5195  0.1764  0.6141
56518SOL    HW179868   8.640   1.853   9.173 -0.4757  0.2825  0.7542
56518SOL    HW279869   8.778   1.879   9.229 -0.3352  0.4295  0.3451
56519SOL     OW79870  10.850   5.297   2.750 -0.5113 -0.3223 -0.4038
56519SOL    HW179871  10.777   5.342   2.707 -0.8384 -0.6718 -0.2164
56519SOL    HW279872  10.824   5.293   2.842 -0.5988 -1.1255 -0.4609
56520SOL     OW79873   0.121   4.633   2.548 -0.3898 -0.3407 -0.0509
56520SOL    HW179874   0.164   4.716   2.530  0.6534 -0.3325  2.1508
56520SOL    HW279875   0.178   4.590   2.612 -2.4056 -1.4127  1.1246
56521SOL     OW79876  11.233  11.046   7.371  0.6542 -0.6050  0.0278
56521SOL    HW179877  11.189  10.971   7.411 -1.0034  0.6489  0.6930
56521SOL    HW279878  11.274  11.092   7.444 -1.1244  0.8768  0.1819
56522SOL     OW79879  10.739   0.174   4.530 -0.1521  0.2499 -0.4194
56522SOL    HW179880  10.775   0.249   4.483  0.8532 -0.3102 -0.5614
56522SOL    HW279881  10.711   0.210   4.614 -0.3292  0.9164 -0.7546
56523SOL     OW79882   9.669   7.297   3.978 -0.1089  0.2949 -0.2417
56523SOL    HW179883   9.619   7.378   3.987  1.1854  1.0338  0.6482
56523SOL    HW279884   9.612   7.228   4.012 -1.4708  0.7077 -1.5811
56524SOL     OW79885   8.393   1.709   2.067  0.1298 -0.3869  0.4233
56524SOL    HW179886   8.411   1.765   2.142  3.7014  0.1542 -0.6354
56524SOL    HW279887   8.422   1.622   2.094  0.9352 -0.2955 -0.1106
56525SOL     OW79888   7.181   9.188   1.236  0.3856 -0.1024 -0.3999
56525SOL    HW179889   7.138   9.232   1.309 -1.2907  0.4662 -1.6659
56525SOL    HW279890   7.226   9.259   1.189  2.1362 -0.5729  0.4455
56526SOL     OW79891   2.462  11.761   9.148 -0.2096 -0.3448 -0.1052
56526SOL    HW179892   2.384  11.801   9.187 -1.2109 -0.3474 -1.9810
56526SOL    HW279893   2.511  11.835   9.112  0.1159 -0.4323  0.1621
56527SOL     OW79894   2.346  12.332   5.029 -0.1723 -0.3519 -0.1796
56527SOL    HW179895   2.400  12.406   5.056 -1.4786  0.3046  0.7457
56527SOL    HW279896   2.256  12.366   5.029 -0.6491 -1.4980 -1.3354
56528SOL     OW79897  10.894   2.799   3.683 -0.1787 -0.2139  0.2724
56528SOL    HW179898  10.887   2.846   3.600  1.0522 -0.3136  0.0866
56528SOL    HW279899  10.847   2.854   3.746 -3.3090 -1.3365 -0.8906
56529SOL     OW79900   2.569  10.426  10.526  0.2210  0.0849 -0.0841
56529SOL    HW179901   2.637  10.381  10.476 -0.2185  0.5434 -1.1189
56529SOL    HW279902   2.508  10.357  10.551  1.9887 -0.6744  2.5222
56530SOL     OW79903   5.489   1.764   0.967 -0.4303 -0.0856 -0.5702
56530SOL    HW179904   5.574   1.722   0.964 -0.3827 -0.0683  0.3649
56530SOL    HW279905   5.489   1.815   1.048 -0.7819  1.0956 -1.2759
56531SOL     OW79906   2.975   8.199   0.146 -0.1947  0.1008 -0.2796
56531SOL    HW179907   2.913   8.228   0.213  1.5785  0.8539  1.1309
56531SOL    HW279908   2.959   8.256   0.071 -1.5449 -0.0824 -0.1453
56532SOL     OW79909  10.337  11.366   4.241 -0.1043  0.5590 -0.0009
56532SOL    HW179910  10.399  11.334   4.307 -0.5862 -0.4016 -0.0056
56532SOL    HW279911  10.374  11.450   4.212  2.0065 -0.6440 -1.0576
56533SOL     OW79912   1.768   2.410   5.086  0.3691  0.6544 -0.3749
56533SOL    HW179913   1.850   2.445   5.052  1.2396 -0.2761  0.6943
56533SOL    HW279914   1.710   2.408   5.010  2.1234 -0.9980 -1.7901
56534SOL     OW79915  11.841   1.147   1.068  0.3791 -0.1032  0.5300
56534SOL    HW179916  11.769   1.162   1.129  0.5848 -0.5450  0.8833
56534SOL    HW279917  11.824   1.060   1.031  0.2173  0.1906 -0.0965
56535SOL     OW79918   3.899  11.609   8.959 -0.0238 -0.2657  0.5224
56535SOL    HW179919   3.902  11.698   8.923 -1.9050  0.4141  1.8937
56535SOL    HW279920   3.978  11.602   9.013  1.2513 -0.2458 -1.2223
56536SOL     OW79921   1.490   3.400   0.730 -0.4103 -0.8399 -0.2462
56536SOL    HW179922   1.517   3.317   0.770  1.2381  0.1028  0.7455
56536SOL    HW279923   1.480   3.460   0.804 -1.9800 -0.2314 -0.9101
56537SOL     OW79924   6.634   5.182   5.578  0.0125 -0.2411 -0.2234
56537SOL    HW179925   6.627   5.204   5.671  0.0032 -3.1748  0.5732
56537SOL    HW279926   6.728   5.178   5.561  0.0591 -1.5134  0.2083
56538SOL     OW79927   4.860   9.244   8.445 -0.4364 -0.2071  0.1869
56538SOL    HW179928   4.917   9.253   8.368 -0.0152 -2.8241  0.0752
56538SOL    HW279929   4.920   9.218   8.516 -1.1629 -0.5292  0.6899
56539SOL     OW79930   5.810  12.810   6.125 -0.0939 -0.8342 -0.2340
56539SOL    HW179931   5.729  12.818   6.176 -1.1551 -1.8390 -1.6787
56539SOL    HW279932   5.849  12.728   6.156  0.3146 -0.4141  0.3744
56540SOL     OW79933  12.881   1.216   9.005  0.3162  0.3427 -0.0331
56540SOL    HW179934  12.963   1.251   9.040  1.6313 -0.0983 -2.4711
56540SOL    HW279935  12.820   1.290   9.006  1.5457  1.3812 -0.5755
56541SOL     OW79936  11.815   7.916   3.065 -0.6253  0.6024 -0.4669
56541SOL    HW179937  11.745   7.967   3.026 -0.9589  2.7089  2.5514
56541SOL    HW279938  11.777   7.829   3.079 -1.7878  0.9863 -1.1339
56542SOL     OW79939   5.170   6.807   6.588 -0.1012 -0.3473  0.6969
56542SOL    HW179940   5.263   6.817   6.567  0.3681  0.0082  2.8137
56542SOL    HW279941   5.167   6.729   6.644 -1.3233 -1.2960 -0.6063
56543SOL     OW79942   0.119   7.838   9.993  0.0636 -0.2201 -0.1432
56543SOL    HW179943   0.164   7.846  10.077 -0.3662  0.5270  0.0259
56543SOL    HW279944   0.056   7.767  10.006  0.1200 -0.2239  0.1125
56544SOL     OW79945  11.417   1.956   4.640  0.0230  0.3556  0.3117
56544SOL    HW179946  11.329   1.946   4.602 -0.5605 -0.8103  1.9005
56544SOL    HW279947  11.476   1.929   4.569 -1.1046 -4.0964  0.7425
56545SOL     OW79948   1.396   8.741   7.113  0.1735 -0.0521 -0.2872
56545SOL    HW179949   1.407   8.660   7.163  0.3071 -0.5731 -1.1469
56545SOL    HW279950   1.356   8.714   7.030 -1.6348  1.0134  0.1804
56546SOL     OW79951   1.902   5.456  11.752 -0.7117 -0.0564  0.0224
56546SOL    HW179952   1.943   5.369  11.743 -0.6017  0.0769 -0.8045
56546SOL    HW279953   1.965   5.507  11.803  0.2575  0.1980 -1.3832
56547SOL     OW79954   6.866   2.265   2.912  0.2297 -0.3125  0.1753
56547SOL    HW179955   6.838   2.299   2.997 -0.6198 -0.2087 -0.1309
56547SOL    HW279956   6.832   2.328   2.848  1.5013  0.0095 -0.2095
56548SOL     OW79957   8.968   3.085   0.119  0.1472  0.1192  0.4656
56548SOL    HW179958   9.027   3.094   0.194 -0.1047  0.0836  0.6671
56548SOL    HW279959   8.979   2.994   0.091  0.0224  0.0483  0.6430
56549SOL     OW79960   6.953  10.200  11.592  0.2075  0.3519 -0.0390
56549SOL    HW179961   6.971  10.277  11.538 -0.3714  1.6894  1.5914
56549SOL    HW279962   6.878  10.158  11.549  0.6596  0.5549 -1.0600
56550SOL     OW79963   0.374   8.851  12.392  0.1752 -0.6311  0.2400
56550SOL    HW179964   0.405   8.794  12.322 -1.2814 -0.8255 -0.2785
56550SOL    HW279965   0.437   8.837  12.463  1.4987 -0.6602 -0.8958
56551SOL     OW79966  11.808  11.864   6.728 -0.8040  0.0811  0.0131
56551SOL    HW179967  11.857  11.935   6.687 -0.0705 -0.5845 -0.2903
56551SOL    HW279968  11.844  11.784   6.690 -2.5240 -0.4243 -0.6490
56552SOL     OW79969   4.462   4.731   0.738  0.4513 -0.4746 -0.6447
56552SOL    HW179970   4.446   4.825   0.736  2.1873 -0.1204  0.1601
56552SOL    HW279971   4.385   4.694   0.781 -0.1056  0.5934 -0.6804
56553SOL     OW79972   5.083   5.065   2.536  0.1056 -0.0593  0.4937
56553SOL    HW179973   5.036   5.052   2.453  1.0360  1.2152 -0.2616
56553SOL    HW279974   5.115   5.155   2.532 -1.1416  0.5879  2.9410
56554SOL     OW79975   9.564   8.374   2.510 -0.2044 -0.3439 -0.7330
56554SOL    HW179976   9.643   8.327   2.483 -0.3132 -0.3357 -1.0726
56554SOL    HW279977   9.554   8.353   2.603  0.9524  0.7315 -0.3342
56555SOL     OW79978  12.083   7.266   4.936 -0.2302  0.0665 -0.4117
56555SOL    HW179979  12.056   7.186   4.981 -1.8130  0.9062  0.1898
56555SOL    HW279980  12.088   7.332   5.005 -1.0239  0.9823 -1.2000
56556SOL     OW79981   8.677  11.843   3.294 -0.2465 -0.5605 -0.4950
56556SOL    HW179982   8.635  11.842   3.207 -0.6445  0.2912 -0.3240
56556SOL    HW279983   8.755  11.788   3.283 -1.0503 -1.6486 -1.0010
56557SOL     OW79984   4.313  12.536  12.627  0.7336 -0.2387  0.3082
56557SOL    HW179985   4.322  12.452  12.673 -0.3676 -0.2743  0.4874
56557SOL    HW279986   4.379  12.533  12.558  2.1284 -0.3642  1.6102
56558SOL     OW79987   3.796   7.289  12.963 -0.4566  0.3462 -0.3804
56558SOL    HW179988   3.851   7.278  12.885  0.0865 -1.9360  0.2696
56558SOL    HW279989   3.854   7.276  13.037 -1.5495 -0.5533  0.3554
56559SOL     OW79990   0.224   2.223   0.856  0.1509 -0.0841  0.5340
56559SOL    HW179991   0.221   2.231   0.951  0.2836  0.6082  0.4845
56559SOL    HW279992   0.241   2.130   0.840 -1.0750 -0.4335  1.1542
56560SOL     OW79993   2.711   4.192   2.390  1.0508 -0.2749  0.4614
56560SOL    HW179994   2.698   4.107   2.348  1.2519  0.5524 -1.4021
56560SOL    HW279995   2.631   4.240   2.372  0.4657 -0.3929  2.4807
56561SOL     OW79996  11.312   1.934  11.363  0.2036 -0.0728  0.0381
56561SOL    HW179997  11.301   1.906  11.454  0.3116  0.8386  0.3366
56561SOL    HW279998  11.391   1.889  11.333 -0.2914 -1.0264  0.1268
56562SOL     OW79999   2.345   3.870   4.809 -0.2638 -0.0254  0.8012
56562SOL    HW180000   2.319   3.898   4.721 -1.3201 -0.7256  0.8643
56562SOL    HW280001   2.373   3.950   4.853  2.4193  0.0522 -0.8455
56563SOL     OW80002   8.456   9.083   9.170 -0.3906  0.2972 -0.4104
56563SOL    HW180003   8.463   9.089   9.265  1.6795  0.0494 -0.5107
56563SOL    HW280004   8.365   9.059   9.154 -0.4278 -1.0958  1.5869
56564SOL     OW80005   9.743   1.183   5.960 -0.0786  0.0680 -0.8322
56564SOL    HW180006   9.739   1.109   5.899 -0.4438 -0.5740 -0.0512
56564SOL    HW280007   9.834   1.185   5.989 -0.5599 -1.5722  0.9191
56565SOL     OW80008   8.690   8.342   3.311  0.5806  0.0203  0.1637
56565SOL    HW180009   8.725   8.371   3.395  2.9388 -1.4611 -0.2300
56565SOL    HW280010   8.598   8.321   3.329  0.6004  1.2945  1.9465
56566SOL     OW80011   5.245   9.193   6.184  0.1554  0.1227  0.1618
56566SOL    HW180012   5.249   9.238   6.100  3.4646 -0.1530  0.0135
56566SOL    HW280013   5.179   9.126   6.173 -0.3812  0.9129 -1.7686
56567SOL     OW80014   0.100   8.938   5.397  0.0372 -0.5870 -0.2609
56567SOL    HW180015   0.019   8.904   5.435  1.1483 -1.6743  1.2242
56567SOL    HW280016   0.166   8.872   5.417  1.1706 -0.1028 -2.1374
56568SOL     OW80017   4.904   3.121   6.551 -0.3589 -0.0559  0.1617
56568SOL    HW180018   4.809   3.114   6.535 -0.4829  0.6487  0.5495
56568SOL    HW280019   4.913   3.111   6.646 -0.2435  1.6870  0.3688
56569SOL     OW80020   1.049   1.363   6.842 -0.0184  0.4848 -0.4266
56569SOL    HW180021   1.120   1.348   6.780 -0.2714  0.1595 -0.6423
56569SOL    HW280022   1.085   1.337   6.927  0.2859  0.8102 -0.4531
56570SOL     OW80023   1.669  12.558  11.442  0.5145 -0.5709 -0.1364
56570SOL    HW180024   1.701  12.594  11.525 -1.1889 -0.6756  0.6193
56570SOL    HW280025   1.746  12.518  11.402  1.9328  1.6772  0.1736
56571SOL     OW80026  12.834   0.627   8.788 -0.3606  0.2177  0.1028
56571SOL    HW180027  12.863   0.697   8.846  2.3927 -0.7680  0.0552
56571SOL    HW280028  12.828   0.668   8.702  1.9231  0.3630 -0.0638
56572SOL     OW80029   4.446  10.938  11.462  0.0043  0.8548 -0.3373
56572SOL    HW180030   4.423  11.001  11.530 -1.1890 -0.2291  0.3079
56572SOL    HW280031   4.514  10.884  11.502 -0.5846  0.3185 -0.0389
56573SOL     OW80032   7.481   6.613   6.604  0.0192  0.3737  0.2760
56573SOL    HW180033   7.485   6.649   6.692 -0.1310  0.7724  0.1222
56573SOL    HW280034   7.565   6.639   6.564 -0.1085  0.6008  0.1501
56574SOL     OW80035  11.811   9.664  10.437 -0.4848  0.2280  0.9274
56574SOL    HW180036  11.893   9.628  10.404  0.3828  1.3404  1.7888
56574SOL    HW280037  11.766   9.697  10.360  0.5703  0.9262  0.5841
56575SOL     OW80038   5.773   1.980   9.383  0.6428  0.2407 -0.4020
56575SOL    HW180039   5.685   1.978   9.346  0.8680 -0.3782 -0.9128
56575SOL    HW280040   5.813   2.058   9.345  0.1049  0.9020  0.3467
56576SOL     OW80041   6.974   2.953   8.385 -0.5102 -0.6027  0.2379
56576SOL    HW180042   6.888   2.969   8.422  0.0519 -1.3567  1.9627
56576SOL    HW280043   7.035   2.982   8.452  0.6027 -0.0697 -0.9564
56577SOL     OW80044   0.433   5.158   3.502  0.1422 -0.0790 -0.4811
56577SOL    HW180045   0.425   5.211   3.422  3.1162 -1.5328 -1.9018
56577SOL    HW280046   0.376   5.083   3.487 -1.6875  1.1120  0.1914
56578SOL     OW80047   6.592  10.352   9.268 -0.4530  0.2783  0.2558
56578SOL    HW180048   6.664  10.383   9.323 -2.0133  1.3336  1.7963
56578SOL    HW280049   6.620  10.371   9.179  0.9338  1.1719  0.8510
56579SOL     OW80050   4.509  10.091   6.720 -0.2261  0.3777  0.3041
56579SOL    HW180051   4.579  10.146   6.755  1.2507 -0.6559 -0.8842
56579SOL    HW280052   4.433  10.149   6.715  1.2591  2.3585 -0.8864
56580SOL     OW80053   6.474  10.995   6.082 -0.0904 -0.1037  0.6310
56580SOL    HW180054   6.404  10.929   6.084 -1.1037  0.7549 -2.3078
56580SOL    HW280055   6.445  11.059   6.018  2.0851  1.8825  1.4921
56581SOL     OW80056   6.934  11.637   2.809  0.1574  0.0604 -0.3621
56581SOL    HW180057   7.027  11.611   2.807  0.5977  1.5104 -0.1727
56581SOL    HW280058   6.923  11.677   2.895 -0.8804 -0.8103 -0.0695
56582SOL     OW80059  12.601   2.421   0.419 -0.1057 -1.0233 -0.0177
56582SOL    HW180060  12.677   2.364   0.408  0.3965 -0.2939 -0.4119
56582SOL    HW280061  12.638   2.504   0.450 -0.7603 -0.7010 -0.0852
56583SOL     OW80062   5.061   0.858   9.998 -0.4228 -0.2658  0.2350
56583SOL    HW180063   5.013   0.780   9.971 -3.2367  1.1468  0.7361
56583SOL    HW280064   5.053   0.917   9.923  2.6096 -0.7250 -0.5748
56584SOL     OW80065   4.849   2.359   2.882 -0.4459  0.2766 -0.4981
56584SOL    HW180066   4.903   2.427   2.842 -0.7457  1.2638  0.6930
56584SOL    HW280067   4.891   2.277   2.857 -0.1123  0.8756 -2.0232
56585SOL     OW80068   6.498   9.975   5.461  0.0713 -0.3659 -0.2625
56585SOL    HW180069   6.449   9.921   5.399  0.7082  0.4133 -1.4820
56585SOL    HW280070   6.496   9.926   5.543 -1.0470 -1.2829 -0.8129
56586SOL     OW80071  12.417   5.481   8.311 -0.1680 -0.4872  0.0364
56586SOL    HW180072  12.441   5.389   8.301  0.4534 -0.0793 -4.5151
56586SOL    HW280073  12.328   5.480   8.345 -0.0627 -2.7387  0.3469
56587SOL     OW80074   8.867   0.205   9.540 -0.4297 -0.4962  0.0860
56587SOL    HW180075   8.945   0.165   9.501 -0.5866  0.6101 -1.4556
56587SOL    HW280076   8.882   0.299   9.531 -1.3539 -0.2555  0.9775
56588SOL     OW80077   5.801   1.810   4.293 -0.0872  0.0423  0.0719
56588SOL    HW180078   5.732   1.872   4.269  0.8314  0.5948 -1.2167
56588SOL    HW280079   5.808   1.751   4.218  1.5861  0.6831 -0.3184
56589SOL     OW80080   1.931   2.176   4.617 -0.0763  0.2507  0.1914
56589SOL    HW180081   2.025   2.160   4.612 -0.2516 -0.9191  0.4861
56589SOL    HW280082   1.897   2.106   4.673 -1.2249  0.2454 -0.4859
56590SOL     OW80083  11.381   8.753   9.850  0.2087  0.1422  0.5557
56590SOL    HW180084  11.395   8.725   9.760  0.3730 -0.9568  0.9075
56590SOL    HW280085  11.292   8.788   9.851 -1.0702 -2.8598  0.6408
56591SOL     OW80086   4.999   2.005  11.163 -0.0355 -0.0951 -0.0699
56591SOL    HW180087   4.939   1.980  11.093  0.1730  2.9337 -1.5234
56591SOL    HW280088   5.077   1.952  11.147 -0.2948 -0.0477 -1.6761
56592SOL     OW80089   6.783   6.094   6.678  0.3675 -0.2530 -0.0336
56592SOL    HW180090   6.835   6.016   6.659 -0.5159 -0.7514 -0.4563
56592SOL    HW280091   6.839   6.146   6.736  0.3983 -1.9108  1.5157
56593SOL     OW80092   3.583   4.356   6.195  0.1012 -0.6477  0.1070
56593SOL    HW180093   3.526   4.379   6.268 -1.3732 -2.7514 -0.2720
56593SOL    HW280094   3.545   4.401   6.120  0.1415 -0.4398  0.2118
56594SOL     OW80095   7.837  10.827   3.933  0.0529 -0.2764 -0.6084
56594SOL    HW180096   7.760  10.884   3.928  0.0538 -0.3625 -1.7015
56594SOL    HW280097   7.909  10.879   3.899  0.2055 -0.6767 -0.9084
56595SOL     OW80098   3.196   1.049   6.300  0.3599 -0.1427 -0.3357
56595SOL    HW180099   3.213   0.959   6.272  0.5624  0.1258 -1.1090
56595SOL    HW280100   3.103   1.062   6.281  0.4242 -0.0599 -0.5906
56596SOL     OW80101   6.655   4.064   2.525 -0.0565 -0.1289  0.2551
56596SOL    HW180102   6.748   4.077   2.504  0.2623 -3.6445 -1.1666
56596SOL    HW280103   6.610   4.074   2.441 -0.5776 -1.1111  0.4003
56597SOL     OW80104   0.406   2.056   6.851  0.0614 -0.3380 -0.0700
56597SOL    HW180105   0.434   2.082   6.763  0.3440 -0.0372  0.1042
56597SOL    HW280106   0.398   2.139   6.899  0.4805 -0.5343  0.3500
56598SOL     OW80107   0.259   5.164   2.789 -0.1077  0.0475 -0.4217
56598SOL    HW180108   0.226   5.115   2.714  2.4413 -1.6228 -0.5719
56598SOL    HW280109   0.318   5.230   2.752 -2.7385  2.7770 -0.1404
56599SOL     OW80110   9.712   9.751   3.517 -0.3492  0.2602  0.0863
56599SOL    HW180111   9.653   9.678   3.537  0.4245 -0.2083  0.7106
56599SOL    HW280112   9.768   9.758   3.594  0.7585  0.3496 -0.7037
56600SOL     OW80113   8.275  10.683   0.809  0.1828 -0.2055 -0.1922
56600SOL    HW180114   8.296  10.759   0.864  2.1808 -0.5532 -0.3804
56600SOL    HW280115   8.288  10.607   0.866 -0.2341 -0.4741 -0.4476
56601SOL     OW80116  11.560   6.705   1.893  0.0082  0.1669  0.4114
56601SOL    HW180117  11.477   6.673   1.930  1.1793 -1.2944  1.9067
56601SOL    HW280118  11.581   6.643   1.824  0.2137  0.1038  0.5287
56602SOL     OW80119   3.349   4.023  10.061  0.4041 -0.2530 -0.9873
56602SOL    HW180120   3.408   3.953  10.033 -0.7556 -2.1913  1.1295
56602SOL    HW280121   3.276   4.019   9.999 -0.2520 -1.8171 -0.1592
56603SOL     OW80122  12.748  10.032   0.495  0.0946 -0.0570  0.1039
56603SOL    HW180123  12.803   9.954   0.504 -2.1155 -2.3318 -3.5516
56603SOL    HW280124  12.671  10.013   0.548  0.9775  1.3663  2.0277
56604SOL     OW80125   9.433   0.276   4.614  0.0850  0.3246  0.0939
56604SOL    HW180126   9.395   0.318   4.537 -2.0948  0.3774  1.1217
56604SOL    HW280127   9.357   0.252   4.667  1.4283 -1.6976  1.2064
56605SOL     OW80128   1.546   3.872   3.056  0.3650  0.1621 -0.3243
56605SOL    HW180129   1.622   3.871   3.114 -1.1636 -0.4233  1.8021
56605SOL    HW280130   1.521   3.964   3.050  1.6634  0.4631 -1.7108
56606SOL     OW80131   9.967  10.038   3.573  0.4192  0.2794 -0.7131
56606SOL    HW180132   9.922  10.022   3.655 -0.2034  1.6644 -0.7583
56606SOL    HW280133   9.906  10.007   3.505  0.6511 -0.2470 -0.6861
56607SOL     OW80134   0.811  11.832   7.012 -0.5743  0.1511 -0.4050
56607SOL    HW180135   0.822  11.746   6.972 -1.1063  0.1187 -0.4974
56607SOL    HW280136   0.752  11.879   6.953 -0.4386  0.5105 -0.2590
56608SOL     OW80137  11.782   1.550   0.413  0.2358 -0.0531 -0.3623
56608SOL    HW180138  11.697   1.569   0.373  0.1472 -1.6978 -1.0558
56608SOL    HW280139  11.762   1.487   0.482  0.7491  0.5449  0.3440
56609SOL     OW80140   6.601   8.895   2.971  0.0500  0.0705  0.3911
56609SOL    HW180141   6.596   8.987   2.997 -0.9582 -0.3607  1.8212
56609SOL    HW280142   6.511   8.871   2.950  0.3267 -0.5651 -0.0923
56610SOL     OW80143   6.867  10.682   8.886 -0.2120  0.6735 -0.0889
56610SOL    HW180144   6.809  10.608   8.904  0.7170 -0.5365 -1.7855
56610SOL    HW280145   6.820  10.736   8.823 -0.2088  0.6303 -0.1289
56611SOL     OW80146   8.509   4.868   2.433 -0.4053  0.7403 -0.2108
56611SOL    HW180147   8.543   4.937   2.376 -0.5197 -0.2588 -1.5247
56611SOL    HW280148   8.567   4.794   2.416 -1.8985 -0.3142 -0.8444
56612SOL     OW80149   8.929  12.118   6.008 -0.4992 -0.1240 -0.0614
56612SOL    HW180150   8.920  12.036   5.959  0.1010 -0.7716  0.8741
56612SOL    HW280151   8.997  12.099   6.073  0.5772  1.5216 -0.6520
56613SOL     OW80152   1.684  11.184  10.420  0.3797 -0.2581 -0.0362
56613SOL    HW180153   1.633  11.124  10.366  0.2600  1.0534 -1.4505
56613SOL    HW280154   1.759  11.131  10.449 -0.2087 -1.3572 -0.4322
56614SOL     OW80155  11.187   1.850  11.122 -0.3604  0.2778 -0.3950
56614SOL    HW180156  11.212   1.872  11.212 -1.1104 -0.4059  0.0016
56614SOL    HW280157  11.231   1.916  11.068  0.2390  0.5995  0.4553
56615SOL     OW80158   3.894   7.296  11.031  0.7333 -0.6708 -0.0952
56615SOL    HW180159   3.965   7.360  11.029  1.0952 -0.9862  1.4640
56615SOL    HW280160   3.818   7.343  10.999  1.0484  0.4951  0.8084
56616SOL     OW80161   0.907   4.684   8.288 -0.0938  0.3865 -0.0571
56616SOL    HW180162   0.961   4.696   8.366  0.1257  1.5218 -0.3753
56616SOL    HW280163   0.860   4.766   8.277 -1.2712 -0.2893 -0.2762
56617SOL     OW80164  11.726   9.151   2.007 -0.1340  0.0934  0.2518
56617SOL    HW180165  11.728   9.094   2.084  0.2220 -1.5113 -0.8954
56617SOL    HW280166  11.794   9.216   2.024  0.8765 -1.0427  0.7236
56618SOL     OW80167   6.638   1.446   1.622 -0.8239 -0.0631 -0.2085
56618SOL    HW180168   6.731   1.466   1.607 -1.2212  1.3221 -1.0185
56618SOL    HW280169   6.639   1.374   1.686  0.7986  0.9231  0.9722
56619SOL     OW80170   2.480   1.351   3.629  0.7804 -0.0495 -0.0925
56619SOL    HW180171   2.402   1.295   3.631 -0.2815  1.3543 -0.2931
56619SOL    HW280172   2.523   1.336   3.713 -1.5147  1.5546  1.4862
56620SOL     OW80173   6.123   9.188  11.179  0.2702 -0.1074 -0.7873
56620SOL    HW180174   6.212   9.160  11.155  0.1777  0.0411 -1.3104
56620SOL    HW280175   6.106   9.264  11.124 -0.6187 -0.8278 -1.5549
56621SOL     OW80176   3.985   7.081  11.336 -0.1188 -0.3031 -0.2067
56621SOL    HW180177   3.891   7.089  11.316 -0.2392  0.9828  0.7079
56621SOL    HW280178   4.026   7.151  11.286  0.2549 -0.4262 -0.0730
56622SOL     OW80179  11.865   0.032  11.799  0.0363  0.0910 -0.3269
56622SOL    HW180180  11.839   0.067  11.884 -2.2630  0.0797 -0.9507
56622SOL    HW280181  11.851   0.104  11.738  0.5488 -0.2482 -0.8573
56623SOL     OW80182   0.316   6.470   5.043  0.0146  0.1582 -0.1188
56623SOL    HW180183   0.341   6.512   4.960 -0.3475 -0.3578 -0.4993
56623SOL    HW280184   0.388   6.489   5.102 -0.2631  1.5612 -0.1862
56624SOL     OW80185   4.380  11.905   6.385 -0.3114  0.0851  0.0129
56624SOL    HW180186   4.306  11.963   6.370 -0.6355  0.3722  2.3632
56624SOL    HW280187   4.341  11.818   6.397 -0.1672  0.0264  0.0717
56625SOL     OW80188   5.762   3.902   8.729  0.7177  0.2524 -0.3287
56625SOL    HW180189   5.810   3.984   8.744  0.7328 -0.1702  2.3733
56625SOL    HW280190   5.796   3.842   8.795 -0.8547 -1.2633 -0.8281
56626SOL     OW80191   1.564   6.339   1.025 -0.4324 -0.0082 -0.0001
56626SOL    HW180192   1.595   6.422   1.061 -2.5434  0.4062  1.0131
56626SOL    HW280193   1.470   6.352   1.013 -0.5799 -1.8148 -1.1255
56627SOL     OW80194   4.868   1.380  10.961  0.3584  0.8643 -0.2980
56627SOL    HW180195   4.807   1.446  10.929  0.9076 -0.1164 -3.8364
56627SOL    HW280196   4.955   1.414  10.937  0.6781 -0.8227 -1.6945
56628SOL     OW80197   5.379   6.835   7.357  0.0920  0.0184 -0.5616
56628SOL    HW180198   5.424   6.852   7.275  0.9041  2.8247  0.3659
56628SOL    HW280199   5.448   6.805   7.417 -0.3672 -1.2798 -0.6379
56629SOL     OW80200   1.911   5.369   1.157  0.0635  0.9902 -0.0476
56629SOL    HW180201   1.945   5.349   1.070 -0.4347 -2.5984  0.4099
56629SOL    HW280202   1.972   5.326   1.217 -1.3544  0.5580  1.1550
56630SOL     OW80203  11.627   7.353  10.061 -0.3454 -0.3206  0.5893
56630SOL    HW180204  11.593   7.283  10.117  1.8174 -1.2406  0.8423
56630SOL    HW280205  11.703   7.315  10.018 -0.8326  0.9725 -1.5846
56631SOL     OW80206  11.544   4.940  11.922  0.4053  1.1850  0.4047
56631SOL    HW180207  11.476   4.972  11.862  0.2086 -0.6759 -0.4095
56631SOL    HW280208  11.495   4.901  11.994  0.6124  0.6478  0.2565
56632SOL     OW80209  11.529   1.942   1.867 -0.0352  0.2413 -0.3685
56632SOL    HW180210  11.613   1.964   1.909  0.2590 -1.8864  0.3126
56632SOL    HW280211  11.551   1.871   1.806 -1.2471  0.0162 -0.5638
56633SOL     OW80212  10.758  11.878  10.702 -0.7783 -0.5968  0.1162
56633SOL    HW180213  10.742  11.941  10.772  0.5241 -1.0221  0.8428
56633SOL    HW280214  10.738  11.793  10.742  0.6436 -0.9026  0.2313
56634SOL     OW80215   5.078  11.086   2.153 -0.3251 -0.6855 -0.0752
56634SOL    HW180216   5.105  11.078   2.245 -2.0583 -1.4257  0.4110
56634SOL    HW280217   5.000  11.032   2.147 -0.8855  0.2627 -1.7307
56635SOL     OW80218  12.685  12.439   5.881 -0.3824 -0.2839  0.0521
56635SOL    HW180219  12.761  12.493   5.905 -0.0041 -1.1646  0.9202
56635SOL    HW280220  12.611  12.499   5.885  0.0584  0.2400  0.7481
56636SOL     OW80221   2.700   1.087   2.462  0.5876  0.1669 -0.4354
56636SOL    HW180222   2.735   1.033   2.533 -0.7628 -0.5475 -0.2699
56636SOL    HW280223   2.777   1.117   2.414  1.4567 -0.4489  0.5301
56637SOL     OW80224  11.840   2.563   2.613  0.5266  1.2791 -0.2319
56637SOL    HW180225  11.789   2.518   2.545 -1.0714  0.5373  1.3963
56637SOL    HW280226  11.901   2.497   2.644  0.7369  1.3875 -0.4132
56638SOL     OW80227   5.575   7.336   1.579 -0.0782  0.2757 -0.0017
56638SOL    HW180228   5.616   7.255   1.607 -1.6230  0.1400  2.0908
56638SOL    HW280229   5.485   7.312   1.560 -0.4725  1.4268  0.3437
56639SOL     OW80230   5.028  12.356   0.733  0.0744 -0.0743  0.3313
56639SOL    HW180231   5.074  12.433   0.699  0.8195 -0.3771  0.6356
56639SOL    HW280232   5.069  12.282   0.688 -0.4157 -0.3204  0.2862
56640SOL     OW80233   3.334  12.839  11.268  0.3089 -0.5279  0.2765
56640SOL    HW180234   3.285  12.921  11.275 -0.1077 -0.5966 -1.4470
56640SOL    HW280235   3.403  12.847  11.334  0.1728  1.1311  0.2648
56641SOL     OW80236   0.407   2.789   5.661  0.1991  0.4806  0.2447
56641SOL    HW180237   0.376   2.708   5.622  0.3616  0.2941  0.4992
56641SOL    HW280238   0.465   2.827   5.595  1.0215 -0.1795  0.5633
56642SOL     OW80239  10.467   2.820  12.746 -0.0352 -0.6176  0.1732
56642SOL    HW180240  10.468   2.911  12.775  0.6579 -1.3229  2.5618
56642SOL    HW280241  10.439   2.824  12.655  0.5166  2.0147  0.0643
56643SOL     OW80242  12.029   9.823   3.598  0.4802  0.1751 -0.4742
56643SOL    HW180243  12.068   9.751   3.548 -0.1647  0.8827 -2.0454
56643SOL    HW280244  12.017   9.894   3.535 -1.5691  0.6577  0.3457
56644SOL     OW80245   1.534  10.097   9.743 -0.4445 -0.0122  0.0275
56644SOL    HW180246   1.445  10.063   9.749  0.1590 -1.6347  0.1505
56644SOL    HW280247   1.543  10.127   9.653 -0.7536 -0.8757 -0.2941
56645SOL     OW80248   7.816   8.840   6.978  0.2753  0.2073 -0.0465
56645SOL    HW180249   7.875   8.907   7.013  2.3093 -1.0625 -0.8507
56645SOL    HW280250   7.795   8.784   7.053 -1.0265  1.3785  0.5178
56646SOL     OW80251   4.646   0.204   1.228 -0.0504  0.3562  0.1499
56646SOL    HW180252   4.606   0.250   1.302 -0.4540  1.3574 -0.6618
56646SOL    HW280253   4.740   0.210   1.244 -0.1403  0.1631  0.8040
56647SOL     OW80254   6.043   5.418   7.108  0.2829 -0.4840 -0.4110
56647SOL    HW180255   6.127   5.382   7.080 -0.2906 -3.3217  1.1672
56647SOL    HW280256   5.994   5.343   7.140 -2.3313  1.3000  0.1072
56648SOL     OW80257   4.215   6.655   6.643  0.1687  0.3589 -0.1283
56648SOL    HW180258   4.234   6.579   6.699  0.7614 -0.5332 -1.4978
56648SOL    HW280259   4.301   6.695   6.629 -0.0166  0.7386 -0.1707
56649SOL     OW80260   3.194   8.830   7.714 -0.3032 -0.0876 -0.0856
56649SOL    HW180261   3.124   8.894   7.698  1.2399  1.3106 -1.7703
56649SOL    HW280262   3.267   8.883   7.744  0.9104 -1.0962 -1.1558
56650SOL     OW80263   6.661   4.219   2.984 -0.0591  0.4448  0.0693
56650SOL    HW180264   6.697   4.262   2.906  0.0995  0.7456  0.3060
56650SOL    HW280265   6.618   4.140   2.950 -0.2193  0.7099 -0.3503
56651SOL     OW80266   9.073   7.526   5.369  0.3101 -0.0386  0.1642
56651SOL    HW180267   9.003   7.578   5.408 -0.1449 -0.0811 -0.5754
56651SOL    HW280268   9.137   7.591   5.339 -0.8590  0.2288 -1.9359
56652SOL     OW80269   0.921   6.653   2.791  0.7613  0.6867  0.5031
56652SOL    HW180270   0.847   6.593   2.798  1.4167 -0.3008 -0.4969
56652SOL    HW280271   0.979   6.611   2.727  0.7242  2.9592 -1.1212
56653SOL     OW80272   1.284   7.534   2.291 -0.1719 -0.0644  0.4452
56653SOL    HW180273   1.257   7.550   2.200 -0.9310  1.1904  0.8513
56653SOL    HW280274   1.239   7.453   2.316  1.3837 -1.3643 -0.7916
56654SOL     OW80275  12.719   9.532   9.769 -0.0946  0.3907  0.1585
56654SOL    HW180276  12.639   9.540   9.717  0.8538  0.0367 -1.4079
56654SOL    HW280277  12.723   9.440   9.794  1.4228 -0.3632 -2.5290
56655SOL     OW80278   2.352   6.830   1.241 -0.2495  0.3460  0.2514
56655SOL    HW180279   2.370   6.903   1.181 -0.7607  1.4962  1.4541
56655SOL    HW280280   2.435   6.783   1.247 -0.0806  0.4536 -1.0204
56656SOL     OW80281  10.445   1.181   8.625  0.2731 -0.0368 -0.0563
56656SOL    HW180282  10.537   1.201   8.612 -0.0919  1.2524 -0.8958
56656SOL    HW280283  10.413   1.251   8.683 -0.2011 -0.4176  0.1580
56657SOL     OW80284   8.663  10.664   7.449 -0.0564  0.2729  0.0090
56657SOL    HW180285   8.580  10.710   7.434  0.4794  0.5735 -2.4062
56657SOL    HW280286   8.657  10.586   7.394 -0.1085 -1.6050  2.4960
56658SOL     OW80287   3.437   7.567   1.500 -0.2294 -0.1679  0.5941
56658SOL    HW180288   3.381   7.643   1.515  1.0310  0.5255  2.1438
56658SOL    HW280289   3.431   7.550   1.406 -3.1277 -0.2396  0.7120
56659SOL     OW80290   4.355   0.921   9.214 -0.1107 -0.4935 -0.8595
56659SOL    HW180291   4.401   0.840   9.193 -0.9063 -0.8012 -1.4459
56659SOL    HW280292   4.300   0.939   9.138 -1.5403 -0.5420  0.1173
56660SOL     OW80293   4.997  11.655   7.308  0.2349 -0.0894  0.2421
56660SOL    HW180294   4.982  11.699   7.392  2.4099  1.9046 -0.2971
56660SOL    HW280295   4.910  11.631   7.278 -0.8457  1.5845  1.8181
56661SOL     OW80296   7.561   4.677   6.100 -0.3216  0.4267 -0.2058
56661SOL    HW180297   7.623   4.617   6.142  0.3755  0.6259 -0.9350
56661SOL    HW280298   7.612   4.755   6.079 -1.1130  1.1025  0.3003
56662SOL     OW80299   8.949   2.200   0.704  0.2328  0.0687  0.4310
56662SOL    HW180300   8.951   2.145   0.783  1.4538 -0.0295  0.3613
56662SOL    HW280301   9.012   2.270   0.723 -0.2976  0.6766 -0.0242
56663SOL     OW80302   1.231   1.497   2.887 -0.0365  0.0816 -0.0957
56663SOL    HW180303   1.268   1.492   2.799  0.7367  1.9370  0.0635
56663SOL    HW280304   1.293   1.450   2.942  1.6079  2.1439 -0.0202
56664SOL     OW80305   4.508   9.297   4.389 -0.1488  0.5233 -0.7318
56664SOL    HW180306   4.531   9.366   4.450 -2.2308  0.2025  0.5233
56664SOL    HW280307   4.436   9.333   4.337 -0.2628 -0.1776 -1.0796
56665SOL     OW80308   5.576  11.737  10.119 -0.4896 -0.7555 -0.2633
56665SOL    HW180309   5.546  11.823  10.089 -0.0709 -0.2837  0.6113
56665SOL    HW280310   5.671  11.747  10.127 -0.5392 -0.9627  0.8235
56666SOL     OW80311   4.018  11.744   4.132  0.7137  0.0361 -0.4168
56666SOL    HW180312   4.063  11.737   4.047 -1.6389  2.1413 -1.9839
56666SOL    HW280313   3.974  11.660   4.143  0.5212 -0.0322 -1.6131
56667SOL     OW80314   4.895   1.628   4.856  0.6044  0.1219 -0.3547
56667SOL    HW180315   4.961   1.600   4.919  1.1650  0.8970 -0.5885
56667SOL    HW280316   4.939   1.692   4.801 -0.3767  0.7554 -0.4362
56668SOL     OW80317  11.326  10.540   2.674 -0.0091 -0.0890  0.0457
56668SOL    HW180318  11.253  10.602   2.672  1.8599  2.2803 -0.1433
56668SOL    HW280319  11.340  10.523   2.767  0.6386  1.3755  0.2534
56669SOL     OW80320  11.847   5.374   5.808 -0.3248 -0.5170 -0.2400
56669SOL    HW180321  11.917   5.430   5.774 -1.2123  1.2140  0.6308
56669SOL    HW280322  11.893   5.304   5.855  0.8229  0.2029 -0.2542
56670SOL     OW80323  12.076   0.048   6.766 -0.2387 -0.4318 -0.3832
56670SOL    HW180324  11.988   0.024   6.737  0.5261 -2.6045 -1.0895
56670SOL    HW280325  12.064   0.132   6.811 -2.5573 -0.3729 -0.9654
56671SOL     OW80326   3.805   2.030  11.345 -0.2066 -0.8095  0.3867
56671SOL    HW180327   3.826   2.054  11.254  1.3503  0.2913  0.9816
56671SOL    HW280328   3.883   1.985  11.377 -0.0946  0.1951  1.6272
56672SOL     OW80329   4.799   2.299   6.485  0.3049  0.4111  0.4852
56672SOL    HW180330   4.794   2.221   6.540  0.4334 -0.5580 -0.8560
56672SOL    HW280331   4.876   2.285   6.430  0.7475  1.8158  0.6948
56673SOL     OW80332   0.168   7.994   0.663  0.3999 -0.0354 -0.0501
56673SOL    HW180333   0.154   8.043   0.582  0.4766 -0.3892 -0.2752
56673SOL    HW280334   0.256   7.957   0.654 -0.0490 -1.0672 -0.3214
56674SOL     OW80335   0.803   8.974   1.324  0.4482  0.3202 -0.0421
56674SOL    HW180336   0.876   8.926   1.285  1.3104  1.3218  0.3112
56674SOL    HW280337   0.772   8.916   1.394  0.9165 -0.0952 -0.1689
56675SOL     OW80338   3.140   0.083   5.484  0.3549  0.0910  0.0035
56675SOL    HW180339   3.194   0.049   5.413  1.0443  1.5779 -0.2147
56675SOL    HW280340   3.114   0.005   5.534  3.0171 -0.6854  0.3390
56676SOL     OW80341  10.894  11.073   5.507  0.1219 -0.7306  0.0021
56676SOL    HW180342  10.953  11.101   5.576  0.7815 -1.8207 -0.0945
56676SOL    HW280343  10.889  10.978   5.516  0.5587 -0.9546 -1.6797
56677SOL     OW80344   9.687   0.426   6.657  0.2078 -0.6429  0.2314
56677SOL    HW180345   9.779   0.411   6.633  0.0758  1.0744 -1.6009
56677SOL    HW280346   9.637   0.378   6.590 -0.1613  1.8674 -1.4407
56678SOL     OW80347   1.129   4.248   9.338  0.0428  0.3500  0.1669
56678SOL    HW180348   1.084   4.304   9.401 -0.0099  1.1043 -0.5184
56678SOL    HW280349   1.062   4.189   9.305 -1.2127  3.0871 -2.7238
56679SOL     OW80350   3.840   5.783   3.301 -0.3071 -0.0065 -0.0574
56679SOL    HW180351   3.869   5.871   3.276 -0.4595 -0.0226 -0.2898
56679SOL    HW280352   3.841   5.734   3.219  2.5238 -1.0123  0.4442
56680SOL     OW80353   0.535  12.277   6.619  0.0464  0.2723  0.0865
56680SOL    HW180354   0.475  12.347   6.594 -1.0524 -0.7079 -0.0974
56680SOL    HW280355   0.613  12.322   6.651 -1.3326  1.5926  1.7020
56681SOL     OW80356   2.906   8.176  10.318  0.1635  0.6921  0.2510
56681SOL    HW180357   2.869   8.257  10.285 -1.5930  0.2796  1.1114
56681SOL    HW280358   2.944   8.199  10.403  0.7392  0.8452 -0.0430
56682SOL     OW80359   3.137   3.068  10.285  0.3306 -0.1768  0.2862
56682SOL    HW180360   3.150   2.989  10.233  1.3239 -0.3334  0.7423
56682SOL    HW280361   3.088   3.039  10.361 -0.2699 -0.1348 -0.0798
56683SOL     OW80362   9.125  12.280   1.510 -0.0842 -0.1764 -0.4412
56683SOL    HW180363   9.109  12.309   1.600 -1.2768 -1.0331 -0.3531
56683SOL    HW280364   9.097  12.188   1.510  1.4323 -0.6716 -1.2796
56684SOL     OW80365   9.543   5.550   4.999 -0.0900 -0.3419  0.0221
56684SOL    HW180366   9.563   5.466   4.959  1.3919 -0.0637  0.1301
56684SOL    HW280367   9.624   5.600   4.992 -1.2543  1.5143 -1.0599
56685SOL     OW80368   6.336   6.927   7.037  0.3303 -0.3537 -0.1060
56685SOL    HW180369   6.389   6.866   7.089 -2.4423 -0.7606  2.5677
56685SOL    HW280370   6.260   6.875   7.011 -0.4347  1.0800 -0.8222
56686SOL     OW80371  11.819   1.521  11.695 -0.1328  0.1409 -0.2518
56686SOL    HW180372  11.856   1.441  11.657 -0.8875 -0.7894  0.8796
56686SOL    HW280373  11.724   1.511  11.683 -0.2453  0.7611  0.0919
56687SOL     OW80374   2.704   8.208   7.272  0.0914 -0.4638  0.0991
56687SOL    HW180375   2.627   8.207   7.214  1.1454 -0.6765 -1.3495
56687SOL    HW280376   2.759   8.278   7.236  0.3025  0.1246  1.5161
56688SOL     OW80377  12.148   9.869   3.060 -0.6266  0.1342 -0.3608
56688SOL    HW180378  12.072   9.811   3.045 -0.8140  0.8191 -2.3416
56688SOL    HW280379  12.115   9.936   3.119 -0.7521 -1.0556  0.9931
56689SOL     OW80380  12.576  10.874   8.768 -0.3279 -0.2291 -0.1350
56689SOL    HW180381  12.586  10.923   8.686  1.6145  0.2923  0.3490
56689SOL    HW280382  12.492  10.902   8.803 -1.1438 -0.3678 -1.8634
56690SOL     OW80383   4.781   3.302   9.819  0.0621  0.1988 -0.4762
56690SOL    HW180384   4.720   3.364   9.859 -0.3184  0.4595 -1.4390
56690SOL    HW280385   4.860   3.309   9.873  0.0416  1.5481 -0.5883
56691SOL     OW80386   4.463   5.422   9.575  0.4655 -0.5731 -0.7218
56691SOL    HW180387   4.558   5.429   9.579  0.4724 -1.0368  0.0994
56691SOL    HW280388   4.432   5.469   9.652 -0.0224  0.3432 -1.4604
56692SOL     OW80389   3.387   9.180  11.743 -0.4364 -0.0089  0.2275
56692SOL    HW180390   3.308   9.130  11.725 -0.3328 -0.4780  1.0381
56692SOL    HW280391   3.443   9.120  11.793 -0.1340  0.7742  0.8536
56693SOL     OW80392   3.546   3.289   4.045  0.4944  0.7554 -0.5891
56693SOL    HW180393   3.603   3.358   4.010  1.9379  0.3032  0.7165
56693SOL    HW280394   3.605   3.235   4.098 -0.8096 -0.8657 -0.7164
56694SOL     OW80395   3.408   2.448   6.538 -0.2692 -0.6573 -0.0358
56694SOL    HW180396   3.353   2.417   6.610  1.7435 -1.5203  1.2221
56694SOL    HW280397   3.402   2.380   6.471  1.0971 -2.0023  1.1213
56695SOL     OW80398   3.804   0.853  11.297  0.2720 -0.3941 -0.5983
56695SOL    HW180399   3.741   0.860  11.369  0.9728 -1.3773  0.1357
56695SOL    HW280400   3.842   0.766  11.307  4.7728  1.4748  1.5659
56696SOL     OW80401   4.859   0.359   8.043  0.6072  0.4715  0.3211
56696SOL    HW180402   4.911   0.435   8.016  0.7565 -0.3425 -1.8544
56696SOL    HW280403   4.773   0.396   8.066  0.9483  1.3815  0.1821
56697SOL     OW80404  11.371   4.175   4.286  0.0217 -0.4084 -0.5393
56697SOL    HW180405  11.445   4.235   4.299 -0.2230 -0.3427  0.6648
56697SOL    HW280406  11.308   4.200   4.353 -0.4520 -1.4624 -0.5749
56698SOL     OW80407   5.082   8.642  12.572 -0.1703  0.0446 -0.2933
56698SOL    HW180408   5.173   8.659  12.549 -0.5471  1.4596 -0.8663
56698SOL    HW280409   5.046   8.597  12.496  0.3858 -1.8334  0.5132
56699SOL     OW80410   2.623   2.188  12.806 -0.3089  0.0546  0.2744
56699SOL    HW180411   2.673   2.255  12.853  0.4441 -2.0390  2.7207
56699SOL    HW280412   2.533   2.220  12.809  0.2800  1.9250 -0.5229
56700SOL     OW80413   3.731   0.157   4.656  0.3201 -0.3151 -0.3032
56700SOL    HW180414   3.812   0.109   4.639  0.4044 -0.6662  0.9815
56700SOL    HW280415   3.679   0.145   4.576  0.5341 -2.1697 -0.2198
56701SOL     OW80416   0.803  12.096   3.184  0.1285  0.1515 -0.1560
56701SOL    HW180417   0.771  12.153   3.114 -0.0211  0.3398  0.0648
56701SOL    HW280418   0.724  12.055   3.219  0.1914  0.1516 -0.0157
56702SOL     OW80419   8.850   0.387  10.602 -0.4749  0.1223 -0.1796
56702SOL    HW180420   8.763   0.357  10.626  0.0238 -1.2417 -0.0022
56702SOL    HW280421   8.908   0.351  10.669  0.2782  0.7252 -0.4839
56703SOL     OW80422   0.166  10.041   7.326  0.2413 -0.2799 -0.0164
56703SOL    HW180423   0.118  10.007   7.251  1.0192 -0.5091 -0.4251
56703SOL    HW280424   0.253  10.062   7.292 -0.0629  1.7203  0.3228
56704SOL     OW80425   0.665  11.809   5.416 -0.3760 -0.1639  0.0664
56704SOL    HW180426   0.741  11.767   5.457  0.4929  0.1816 -1.1330
56704SOL    HW280427   0.673  11.787   5.323 -2.2504 -0.8518  0.0220
56705SOL     OW80428   0.547   7.747   5.990  0.6515  0.1256  0.1931
56705SOL    HW180429   0.537   7.729   5.896  1.5725 -1.7529  0.4013
56705SOL    HW280430   0.619   7.690   6.017 -0.2182 -0.0824  2.2459
56706SOL     OW80431   4.269   0.602  10.502 -0.4400  0.2710 -0.5491
56706SOL    HW180432   4.269   0.587  10.597 -2.1935  0.6127 -0.4752
56706SOL    HW280433   4.203   0.543  10.468 -0.4563  0.7958 -1.4547
56707SOL     OW80434   0.011  12.568  11.579  0.4042  0.0963 -0.2262
56707SOL    HW180435  -0.053  12.584  11.648 -0.0135  1.7524 -0.9229
56707SOL    HW280436   0.045  12.481  11.596  0.0439  0.3146  1.8346
56708SOL     OW80437   2.892   6.806   8.835 -0.0446  0.0284  0.1278
56708SOL    HW180438   2.814   6.842   8.791 -0.6644 -0.9010  0.4407
56708SOL    HW280439   2.892   6.713   8.812  1.9385  0.3081 -1.2608
56709SOL     OW80440   3.430   7.175   2.787  0.3084 -0.2884 -0.1128
56709SOL    HW180441   3.437   7.158   2.693 -0.4298 -1.6513  0.0559
56709SOL    HW280442   3.465   7.096   2.828  1.3697  0.5996  0.7953
56710SOL     OW80443  11.955  10.184  12.797  0.1891 -0.5236  0.5530
56710SOL    HW180444  12.013  10.131  12.851  0.5184 -1.3844 -0.5926
56710SOL    HW280445  11.893  10.120  12.760 -1.1007  0.2775  1.2284
56711SOL     OW80446   2.031   7.307  12.046 -0.4235 -0.1839 -0.1462
56711SOL    HW180447   2.017   7.318  12.140 -0.8816 -0.6045 -0.1598
56711SOL    HW280448   1.957   7.353  12.006 -0.4007 -0.2751 -0.2926
56712SOL     OW80449   9.599   9.618   7.596 -0.6598 -0.3015  0.5780
56712SOL    HW180450   9.690   9.646   7.599 -0.6424 -0.2338 -0.3861
56712SOL    HW280451   9.578   9.595   7.687  0.1386  0.2240  0.9044
56713SOL     OW80452   6.410   7.667   5.615 -0.1235 -0.1708 -0.5193
56713SOL    HW180453   6.458   7.702   5.691 -1.9400 -1.6470  1.4283
56713SOL    HW280454   6.365   7.743   5.579  1.0423  0.6264 -0.3739
56714SOL     OW80455  10.266   8.061   9.338 -0.0977  0.1788  0.1647
56714SOL    HW180456  10.174   8.087   9.330 -0.3532 -0.7561 -0.0200
56714SOL    HW280457  10.314   8.132   9.296 -0.5703  1.6864  2.0410
56715SOL     OW80458   0.523   6.785  10.262  0.1290  0.2425 -0.0577
56715SOL    HW180459   0.613   6.775  10.293 -0.2404  1.1206  1.3861
56715SOL    HW280460   0.470   6.733  10.323 -0.3150 -0.6734 -1.1824
56716SOL     OW80461  10.271   0.749   1.976 -0.0645  0.0619 -0.4159
56716SOL    HW180462  10.241   0.821   1.920  0.8984  1.0036  0.2462
56716SOL    HW280463  10.318   0.691   1.917  2.3004  1.8256 -0.4134
56717SOL     OW80464   0.438   1.823   7.027 -0.1465  0.5954 -0.1300
56717SOL    HW180465   0.413   1.888   6.961 -0.4629  0.8637  0.2467
56717SOL    HW280466   0.392   1.851   7.107 -0.2486 -0.0641  0.0472
56718SOL     OW80467   2.770   1.186   5.842 -0.0982  0.3776 -0.4851
56718SOL    HW180468   2.792   1.099   5.875 -1.7195  0.0606 -0.1921
56718SOL    HW280469   2.823   1.195   5.763  1.2134 -0.2490  0.2813
56719SOL     OW80470   8.681   4.949   7.922  0.0248  0.0713 -0.1775
56719SOL    HW180471   8.663   4.937   8.016 -0.2770  1.4314 -0.0357
56719SOL    HW280472   8.732   5.030   7.917  1.3252 -0.7613 -1.0872
56720SOL     OW80473  10.186   8.311   3.583  0.7337 -0.3881  0.0511
56720SOL    HW180474  10.199   8.276   3.671 -0.9599 -1.6925 -0.1809
56720SOL    HW280475  10.212   8.403   3.591 -0.2198 -0.2301  2.1587
56721SOL     OW80476   7.247   8.559   9.405 -0.9334  0.6298 -0.5420
56721SOL    HW180477   7.330   8.563   9.357 -0.6927  1.3335 -0.0746
56721SOL    HW280478   7.273   8.556   9.497 -1.4229  3.0684 -0.2546
56722SOL     OW80479  12.818   7.759   6.772  0.0506  0.1515  0.3800
56722SOL    HW180480  12.875   7.682   6.768  0.2911  0.3120  0.7197
56722SOL    HW280481  12.747   7.738   6.712  0.8160  0.2430 -0.5786
56723SOL     OW80482   9.740  12.331   3.627  0.1496 -0.2263 -0.7233
56723SOL    HW180483   9.816  12.385   3.608  1.5011 -1.0192  1.8710
56723SOL    HW280484   9.670  12.393   3.646  0.3247  0.5205 -2.3831
56724SOL     OW80485   1.595  11.643   3.777 -0.3929  0.5290 -0.4331
56724SOL    HW180486   1.645  11.718   3.746 -1.8845  1.6123 -0.3230
56724SOL    HW280487   1.504  11.667   3.762 -0.9693 -0.7144  0.8514
56725SOL     OW80488   2.144   5.242   5.333 -0.4249 -0.3573  0.0298
56725SOL    HW180489   2.165   5.163   5.284  0.5725 -0.6803  0.9384
56725SOL    HW280490   2.188   5.313   5.286  0.4271 -0.6471  0.3733
56726SOL     OW80491  12.253  11.911   8.966  0.2546  0.2666 -0.2610
56726SOL    HW180492  12.260  11.873   9.054  0.4378 -0.7053 -0.6849
56726SOL    HW280493  12.160  11.909   8.946  0.4568 -2.3857 -1.2917
56727SOL     OW80494   3.551  11.285   0.557 -0.2262  0.3146  0.1582
56727SOL    HW180495   3.460  11.301   0.583 -0.8997  0.7215 -2.2369
56727SOL    HW280496   3.550  11.198   0.518  0.6824 -0.1387  1.0794
56728SOL     OW80497   1.277   3.172  11.486 -0.2676 -0.2005  0.0712
56728SOL    HW180498   1.228   3.136  11.561 -1.0330 -0.5296 -0.5736
56728SOL    HW280499   1.356   3.118  11.482 -1.3608 -1.8340 -0.8332
56729SOL     OW80500   4.211   2.591   1.529 -0.1236 -0.9645 -0.0190
56729SOL    HW180501   4.272   2.530   1.487 -0.3065  0.8289 -3.2381
56729SOL    HW280502   4.125   2.551   1.515 -0.1319 -0.6563 -0.9521
56730SOL     OW80503  11.640   1.037   4.752  0.1303  0.0894 -0.5129
56730SOL    HW180504  11.619   1.044   4.845 -0.5536  1.4884 -0.7475
56730SOL    HW280505  11.612   0.949   4.727  0.2798 -0.2743  0.5973
56731SOL     OW80506   1.103   1.544  12.738  0.0471 -0.1931  0.1036
56731SOL    HW180507   1.078   1.611  12.801  2.1568 -0.4207  1.2494
56731SOL    HW280508   1.096   1.587  12.653 -0.8222  0.7574  0.6304
56732SOL     OW80509   6.207   6.723   2.211  0.5609 -0.5807  0.5814
56732SOL    HW180510   6.218   6.814   2.239 -3.0893  0.0729  0.3095
56732SOL    HW280511   6.244   6.720   2.123 -1.0429  1.2416 -0.2131
56733SOL     OW80512   7.144   0.388   6.845 -0.3817 -0.7953  0.2851
56733SOL    HW180513   7.101   0.313   6.886 -1.7414 -1.1210 -1.6361
56733SOL    HW280514   7.177   0.355   6.762  0.2276  0.4237  0.0057
56734SOL     OW80515   5.377   4.671   8.183  0.8725 -0.3760 -0.1910
56734SOL    HW180516   5.317   4.744   8.198 -0.4477 -1.7453  1.6406
56734SOL    HW280517   5.458   4.698   8.226  0.2544 -0.1278  0.8763
56735SOL     OW80518   0.584   0.366   4.652 -0.1836  0.9526  0.0066
56735SOL    HW180519   0.495   0.373   4.617 -0.4529  0.3090  0.5332
56735SOL    HW280520   0.593   0.274   4.677  0.4274  1.1382  0.5021
56736SOL     OW80521   5.214   1.163   9.375  0.2949  0.2305  0.1974
56736SOL    HW180522   5.268   1.171   9.453  0.0345  2.2021  0.2236
56736SOL    HW280523   5.137   1.113   9.403  1.8963 -2.4275  0.2132
56737SOL     OW80524   0.174   7.195   6.344 -0.1051  0.3847  0.1717
56737SOL    HW180525   0.118   7.134   6.393  0.3626 -0.4562 -0.3254
56737SOL    HW280526   0.153   7.281   6.381  0.5843 -0.2635  2.1908
56738SOL     OW80527   5.434   0.901   3.325  0.2461 -0.2680  0.5946
56738SOL    HW180528   5.345   0.931   3.341 -0.6009 -2.5540  0.6043
56738SOL    HW280529   5.454   0.843   3.399  0.5780 -2.0658 -0.8245
56739SOL     OW80530  10.741   3.199   7.254 -0.6703 -0.4921 -0.0284
56739SOL    HW180531  10.826   3.155   7.252 -1.0045 -1.1426 -0.9314
56739SOL    HW280532  10.689   3.148   7.315 -0.5698 -0.4013  0.1329
56740SOL     OW80533  10.356   3.769  12.378  1.0721 -0.1830 -0.7264
56740SOL    HW180534  10.264   3.766  12.352  0.9081  1.6044 -0.5070
56740SOL    HW280535  10.394   3.837  12.323  1.2509  2.0906  1.9909
56741SOL     OW80536   1.131   8.774   5.379 -0.5373  0.2478  0.0350
56741SOL    HW180537   1.133   8.864   5.346 -1.0283  0.3875  0.3845
56741SOL    HW280538   1.219   8.740   5.360 -1.1762 -0.1210 -2.6268
56742SOL     OW80539   1.669   6.479   6.696 -0.0933  0.5121 -0.4793
56742SOL    HW180540   1.727   6.545   6.659 -0.0202  0.2717 -0.7932
56742SOL    HW280541   1.699   6.396   6.658  0.2172  0.2154  0.3896
56743SOL     OW80542   6.100  11.452   4.770  0.3075 -0.4421 -0.0372
56743SOL    HW180543   6.088  11.451   4.865  0.1580  0.6284 -0.0405
56743SOL    HW280544   6.011  11.448   4.734  0.1973  1.6905 -0.0982
56744SOL     OW80545   0.945   1.383   9.537 -0.4753  0.1902  1.0879
56744SOL    HW180546   0.994   1.408   9.616  0.5761  1.9476 -0.0414
56744SOL    HW280547   1.013   1.372   9.470 -1.1613 -2.9638  0.7227
56745SOL     OW80548   0.108  10.479   0.209  0.6342  0.1601  0.4539
56745SOL    HW180549   0.060  10.547   0.160 -0.9638 -0.0495  1.6269
56745SOL    HW280550   0.200  10.494   0.188  0.2062  1.8124 -0.4103
56746SOL     OW80551  11.669   1.066   8.493 -0.9079 -0.6098  0.1442
56746SOL    HW180552  11.764   1.074   8.503 -0.8593 -1.4004  0.3757
56746SOL    HW280553  11.641   1.016   8.569 -2.0493  2.7892  2.1853
56747SOL     OW80554   7.191   0.924   2.131  0.2280 -0.3352  0.0647
56747SOL    HW180555   7.112   0.902   2.082 -0.0546 -1.8015  1.1265
56747SOL    HW280556   7.261   0.921   2.065 -0.3640 -0.6226 -0.5662
56748SOL     OW80557  10.208   4.269  10.560  0.3634 -0.0286 -0.1037
56748SOL    HW180558  10.294   4.258  10.520  1.1548 -0.2811  1.5787
56748SOL    HW280559  10.201   4.198  10.624 -1.8205 -1.0325 -1.3330
56749SOL     OW80560   9.669   3.728   8.141 -0.2618 -0.0160 -0.9682
56749SOL    HW180561   9.737   3.685   8.089 -0.8421 -1.3853 -0.6423
56749SOL    HW280562   9.587   3.703   8.099 -0.6875 -0.3443  0.0110
56750SOL     OW80563   8.584  12.212   1.760 -0.5193  0.2572 -0.0885
56750SOL    HW180564   8.564  12.201   1.853  1.8739 -0.7639  0.3714
56750SOL    HW280565   8.500  12.234   1.720 -1.3687  2.2760  2.5133
56751SOL     OW80566  10.645   5.072   0.354  0.3949 -0.2717 -0.3796
56751SOL    HW180567  10.614   5.086   0.444  0.1441  0.7443 -0.6147
56751SOL    HW280568  10.659   5.160   0.320 -2.0189 -0.5171 -2.2182
56752SOL     OW80569   8.120  10.509   0.551  0.7643  0.3205 -0.1701
56752SOL    HW180570   8.199  10.473   0.590  1.6974  0.3926 -1.8740
56752SOL    HW280571   8.048  10.471   0.601  1.8523 -0.4584  0.8350
56753SOL     OW80572   6.670  11.129   9.807 -0.0502  0.2164  0.1179
56753SOL    HW180573   6.753  11.136   9.760  0.0825  0.8505  0.4453
56753SOL    HW280574   6.646  11.036   9.799  0.8723 -0.0520  0.3400
56754SOL     OW80575   2.376   4.335   6.466 -0.0361  0.4875 -0.0473
56754SOL    HW180576   2.371   4.380   6.551  1.2807 -1.0629  0.9120
56754SOL    HW280577   2.309   4.267   6.471  0.0161  0.4210 -0.2561
56755SOL     OW80578   0.403  11.698   7.141  0.5105 -0.4140 -0.0725
56755SOL    HW180579   0.437  11.693   7.230 -0.6312 -0.4358  0.3749
56755SOL    HW280580   0.408  11.791   7.118  1.1446 -0.4583 -0.1320
56756SOL     OW80581  11.947   9.839  11.185 -0.2234  0.6317 -0.2554
56756SOL    HW180582  11.931   9.745  11.191  1.0255  0.3452 -1.0305
56756SOL    HW280583  11.889   9.869  11.115  2.2631 -0.3629 -2.9406
56757SOL     OW80584   8.140   1.242   6.533  0.3057 -0.2091 -0.1325
56757SOL    HW180585   8.158   1.156   6.495 -1.2919 -0.0393 -1.3625
56757SOL    HW280586   8.049   1.237   6.562  0.8123  0.4040  1.7428
56758SOL     OW80587   5.023   4.223   7.553  0.1819  0.4716 -0.3379
56758SOL    HW180588   4.951   4.231   7.490  0.9944 -0.6579 -1.4394
56758SOL    HW280589   5.006   4.294   7.616 -0.0748  2.3473 -2.3724
56759SOL     OW80590   0.160   2.710   0.571  0.2150 -0.8649  0.4353
56759SOL    HW180591   0.104   2.665   0.633  1.3219 -0.8615  1.4732
56759SOL    HW280592   0.140   2.803   0.582 -3.2614 -0.9717 -2.8467
56760SOL     OW80593   9.116   9.792   2.533  0.0294  0.2550 -0.2085
56760SOL    HW180594   9.037   9.843   2.554 -1.5480 -1.7420 -0.9859
56760SOL    HW280595   9.132   9.811   2.440  0.7185  0.9455  0.0410
56761SOL     OW80596   9.549   0.316  11.276 -0.0868  0.4837  0.1279
56761SOL    HW180597   9.635   0.359  11.276  0.1386  0.0823  1.7390
56761SOL    HW280598   9.545   0.269  11.359 -1.8958  0.5162  0.1023
56762SOL     OW80599  11.949   2.061   2.207  0.0881  0.3977  0.2444
56762SOL    HW180600  11.887   2.133   2.197  1.6746  2.0694  1.6297
56762SOL    HW280601  11.919   2.013   2.285  0.2775  0.9568  0.6683
56763SOL     OW80602   7.094   6.709   7.858  0.3672 -0.2887 -0.3507
56763SOL    HW180603   7.075   6.615   7.867  1.9821 -0.6021  0.3679
56763SOL    HW280604   7.113   6.721   7.765  0.6099 -0.7994 -0.3727
56764SOL     OW80605   4.616   0.056   7.858  0.9407 -0.3468 -0.8549
56764SOL    HW180606   4.669   0.126   7.820  2.2221 -1.4769 -1.2183
56764SOL    HW280607   4.630   0.065   7.953  0.3723  0.4332 -0.8360
56765SOL     OW80608   0.856  10.550  11.404  0.0497  0.9322  0.0799
56765SOL    HW180609   0.819  10.500  11.331  0.6702 -0.4992  0.7066
56765SOL    HW280610   0.783  10.601  11.439 -0.3728  1.2364 -1.1933
56766SOL     OW80611   8.342   2.038  12.863 -0.2430 -0.3017 -0.0767
56766SOL    HW180612   8.312   2.021  12.774  0.2767 -0.8766 -0.1487
56766SOL    HW280613   8.373   2.129  12.861 -3.1357  0.7947  0.3294
56767SOL     OW80614   3.620   3.464   6.133 -0.2802 -0.4953  0.3551
56767SOL    HW180615   3.615   3.465   6.037 -0.4859 -1.4174  0.3426
56767SOL    HW280616   3.529   3.457   6.161 -0.1565 -1.4573  0.5699
56768SOL     OW80617   3.732   5.017   9.871  0.2701 -0.1884  0.1992
56768SOL    HW180618   3.760   4.953   9.936 -0.1924 -0.3198  0.2688
56768SOL    HW280619   3.693   5.088   9.922 -1.8524 -1.1462 -0.0078
56769SOL     OW80620  12.861   7.066   3.070  0.2775 -0.3149 -0.1557
56769SOL    HW180621  12.874   7.016   2.990  2.1251  0.8140 -0.6252
56769SOL    HW280622  12.830   7.152   3.040 -0.5398 -0.3782  0.4647
56770SOL     OW80623   8.601   2.592   9.709  0.0714 -0.7814  0.2308
56770SOL    HW180624   8.626   2.572   9.619  0.7438  1.9069 -0.2714
56770SOL    HW280625   8.512   2.627   9.701 -0.7162 -2.4752  0.9552
56771SOL     OW80626   6.780   2.832   1.735 -0.3328  0.5058  0.3676
56771SOL    HW180627   6.778   2.909   1.792  2.6094  0.1131  1.1255
56771SOL    HW280628   6.804   2.866   1.649 -3.1184  0.8761 -0.3555
56772SOL     OW80629   7.096  10.532   8.830 -0.4269  0.6277  0.6575
56772SOL    HW180630   7.013  10.580   8.828 -0.9844 -0.3226 -0.2698
56772SOL    HW280631   7.128  10.536   8.740 -0.6690 -1.0095  0.4701
56773SOL     OW80632   5.769   7.432   5.359 -0.2356 -0.7255  0.2923
56773SOL    HW180633   5.681   7.469   5.366  0.3598  0.9958 -0.9006
56773SOL    HW280634   5.827   7.498   5.396  0.6734 -1.3708  0.0803
56774SOL     OW80635   4.722   8.528   0.772 -0.0148  0.4614 -0.2608
56774SOL    HW180636   4.791   8.555   0.711  1.4428 -0.4225  0.9117
56774SOL    HW280637   4.671   8.464   0.723 -0.1717  1.2975 -1.2305
56775SOL     OW80638  11.509   2.822   1.737 -0.0480  0.5382 -0.3357
56775SOL    HW180639  11.587   2.864   1.774  0.1917 -0.4928  0.3403
56775SOL    HW280640  11.533   2.730   1.727 -1.3137  0.1152  0.2735
56776SOL     OW80641   2.097   4.796   3.336 -0.2169  0.1801 -0.0721
56776SOL    HW180642   2.109   4.713   3.383  0.1612 -0.2432 -0.8922
56776SOL    HW280643   2.057   4.854   3.401 -0.3108 -0.5797  0.5771
56777SOL     OW80644  12.307   3.329  11.665 -0.3809  0.1250  0.3757
56777SOL    HW180645  12.212   3.319  11.674 -0.1977 -1.0078  1.3895
56777SOL    HW280646  12.323   3.422  11.679 -1.5160  0.7367 -1.8496
56778SOL     OW80647   1.935   6.545   1.093 -0.3448  0.7386  0.5420
56778SOL    HW180648   1.859   6.602   1.093  0.6942  2.1954  1.5669
56778SOL    HW280649   2.009   6.603   1.113  0.7860 -0.9418  1.5134
56779SOL     OW80650   9.137  12.459   2.631 -0.6020  0.2977 -0.2264
56779SOL    HW180651   9.169  12.420   2.550 -0.4822 -0.7271  0.2920
56779SOL    HW280652   9.122  12.551   2.610 -0.5709  0.0458 -1.4016
56780SOL     OW80653   0.373  10.205   8.124  0.3986 -0.1357 -0.3066
56780SOL    HW180654   0.365  10.263   8.048  0.3914  0.0077 -0.1962
56780SOL    HW280655   0.293  10.153   8.123  0.2220  0.1328 -0.1745
56781SOL     OW80656   3.433   3.305   3.071  0.9543 -0.3075 -0.0311
56781SOL    HW180657   3.432   3.221   3.026 -1.7459  0.1200 -0.9867
56781SOL    HW280658   3.392   3.286   3.156  0.3707  0.0001 -0.2357
56782SOL     OW80659   7.262   4.169   8.247 -0.0688 -0.3015 -0.4335
56782SOL    HW180660   7.257   4.199   8.156  1.0752 -1.1339 -0.8042
56782SOL    HW280661   7.219   4.084   8.247  0.9283 -0.8211 -0.4662
56783SOL     OW80662   0.735   0.673   5.676 -0.4363 -0.0787 -0.3372
56783SOL    HW180663   0.734   0.616   5.752 -1.5622 -1.7636 -1.5278
56783SOL    HW280664   0.827   0.689   5.658 -0.1523  0.9038  1.7121
56784SOL     OW80665   5.220   9.006  12.523  0.3982 -0.9455 -0.2112
56784SOL    HW180666   5.148   8.987  12.463  0.7055  0.4160 -1.0589
56784SOL    HW280667   5.187   8.978  12.609 -0.5360 -1.7593 -0.8084
56785SOL     OW80668  11.436  12.452   6.927  0.6377  0.2529 -0.0195
56785SOL    HW180669  11.458  12.494   7.010  0.4115  2.5808 -1.0588
56785SOL    HW280670  11.364  12.392   6.949  0.0647  1.3763  1.3498
56786SOL     OW80671   2.572   0.175  12.358  0.4521 -0.3322 -0.4139
56786SOL    HW180672   2.618   0.205  12.436 -1.0245 -1.9507  1.1889
56786SOL    HW280673   2.613   0.091  12.337  1.3330  0.4175 -1.9073
56787SOL     OW80674   9.446  11.682  12.291  0.5441 -0.0576 -0.4494
56787SOL    HW180675   9.448  11.619  12.364  2.8063  2.3567  1.7865
56787SOL    HW280676   9.373  11.740  12.311  0.0876 -0.3964 -1.0948
56788SOL     OW80677   9.667   5.212   7.425 -0.0490 -0.4023  0.0856
56788SOL    HW180678   9.702   5.173   7.505  1.2202  0.0243 -0.2477
56788SOL    HW280679   9.682   5.146   7.358  0.5159 -0.0580 -0.1367
56789SOL     OW80680   9.248  10.694   4.091 -0.5613  0.2959  0.4501
56789SOL    HW180681   9.326  10.674   4.038  0.4939  0.5463  1.8596
56789SOL    HW280682   9.230  10.613   4.138  0.1196  0.8357  1.6824
56790SOL     OW80683  10.127   3.805  10.869 -0.5230  0.0536 -0.2326
56790SOL    HW180684  10.160   3.842  10.950 -1.3576  1.2626 -0.4134
56790SOL    HW280685  10.205   3.774  10.823  0.0183 -0.0622  0.7358
56791SOL     OW80686   6.929  11.889   4.745  0.5841 -0.2810 -0.2548
56791SOL    HW180687   6.840  11.923   4.734  0.2716 -1.5329 -1.8764
56791SOL    HW280688   6.985  11.957   4.707  0.1901 -0.2187 -0.7335
56792SOL     OW80689   6.507   7.549  10.589 -0.2632 -0.2844 -0.6054
56792SOL    HW180690   6.581   7.571  10.532 -0.1614  2.9258  0.5646
56792SOL    HW280691   6.541   7.561  10.678 -1.3776 -1.8595  0.0887
56793SOL     OW80692   2.067   0.232  12.573 -0.2125  0.5986  0.3093
56793SOL    HW180693   2.110   0.198  12.495  0.9178  1.4694  0.5232
56793SOL    HW280694   2.114   0.313  12.592 -0.6688  0.5456  1.7304
56794SOL     OW80695   5.750   1.232   6.170 -0.1274  0.2657  0.1166
56794SOL    HW180696   5.840   1.212   6.195 -0.2216 -2.5167 -1.4019
56794SOL    HW280697   5.757   1.306   6.110  1.0017  0.7195  0.7771
56795SOL     OW80698   4.522   0.095   8.109  0.1997  0.6146  0.0129
56795SOL    HW180699   4.483   0.167   8.060 -2.1542  0.5225  1.5973
56795SOL    HW280700   4.544   0.133   8.194  1.4065  0.0727 -0.0437
56796SOL     OW80701  12.377   1.163  12.088 -0.0395  0.5065  0.2246
56796SOL    HW180702  12.395   1.072  12.067 -0.8623 -0.1555  2.0830
56796SOL    HW280703  12.283   1.164  12.109 -0.0971  1.8332 -0.0208
56797SOL     OW80704   5.517   8.333   8.806 -0.6461 -0.1502  0.1482
56797SOL    HW180705   5.605   8.304   8.781 -0.7077  1.5031 -2.2769
56797SOL    HW280706   5.478   8.256   8.847  1.2492 -1.5360 -0.4782
56798SOL     OW80707   3.064   5.721   7.625 -0.3197  0.2634 -0.1114
56798SOL    HW180708   3.024   5.702   7.710 -2.1206  1.5726 -0.5974
56798SOL    HW280709   3.065   5.636   7.580  1.1565 -0.5598  1.3501
56799SOL     OW80710   7.427   2.203  12.788 -0.0478 -0.4392 -0.4172
56799SOL    HW180711   7.419   2.284  12.838  0.0369 -0.8446  0.2673
56799SOL    HW280712   7.414   2.229  12.697  1.3080  0.5664 -0.3617
56800SOL     OW80713  11.507   2.078  12.828 -0.1368  0.1122 -0.3113
56800SOL    HW180714  11.518   2.050  12.919 -0.4565  0.2974 -0.2152
56800SOL    HW280715  11.498   2.174  12.833  1.5453  0.3236 -0.6820
56801SOL     OW80716  12.958   2.316   5.359 -0.2586  0.8056  0.1581
56801SOL    HW180717  13.050   2.296   5.345 -0.1968  1.8395 -1.2210
56801SOL    HW280718  12.935   2.372   5.284 -1.5938  1.8263  1.2789
56802SOL     OW80719   1.565   2.206   6.954 -0.2489 -0.6465 -0.0450
56802SOL    HW180720   1.613   2.189   7.036 -1.3207  1.2942  1.0517
56802SOL    HW280721   1.485   2.250   6.982 -0.9607 -0.5163 -2.1253
56803SOL     OW80722   9.784  11.232   4.885  0.2524  0.1514 -0.2222
56803SOL    HW180723   9.811  11.140   4.885  1.3300  0.4591 -0.0313
56803SOL    HW280724   9.751  11.247   4.974 -2.1795 -0.6583 -0.9048
56804SOL     OW80725   5.043  12.920  11.333 -0.2300 -0.2089  0.7286
56804SOL    HW180726   4.951  12.898  11.316  0.1257 -1.4077  0.2746
56804SOL    HW280727   5.051  12.916  11.428 -0.7019  0.1717  0.7924
56805SOL     OW80728   3.615   2.800   2.939  0.9191  0.0986  0.1526
56805SOL    HW180729   3.681   2.747   2.896 -0.3871 -0.1908 -1.5794
56805SOL    HW280730   3.539   2.797   2.881 -0.9699 -0.3218  2.4649
56806SOL     OW80731   9.342   3.097   7.670 -0.2546 -0.2967  0.0850
56806SOL    HW180732   9.335   3.008   7.636 -0.4765 -1.5321  3.0657
56806SOL    HW280733   9.436   3.117   7.666 -0.4430  0.4443 -2.9451
56807SOL     OW80734  10.889   4.621   5.636 -0.1683 -0.4147  0.0409
56807SOL    HW180735  10.871   4.695   5.578  1.0248 -0.3863 -0.3395
56807SOL    HW280736  10.927   4.555   5.579  0.6199 -0.5531  0.6927
56808SOL     OW80737   0.231   8.877   3.621 -0.4713 -0.2971 -0.3137
56808SOL    HW180738   0.174   8.924   3.682 -0.1389  0.3694 -0.5064
56808SOL    HW280739   0.189   8.889   3.536 -0.4981 -0.5272 -0.3328
56809SOL     OW80740  12.306   9.911   0.396 -0.2720 -0.4191 -0.1244
56809SOL    HW180741  12.282  10.003   0.402  0.6991 -0.1235 -0.6260
56809SOL    HW280742  12.278   9.885   0.308 -0.9877 -0.7489  0.1883
56810SOL     OW80743   1.423   6.252  12.876  0.0851 -0.5069 -0.2442
56810SOL    HW180744   1.381   6.298  12.803  4.0809  1.5883 -1.4971
56810SOL    HW280745   1.380   6.288  12.954 -1.2797  0.5444 -1.4099
56811SOL     OW80746   6.976   6.277   2.594 -0.3644  0.4457  0.2979
56811SOL    HW180747   6.960   6.183   2.587 -0.7091  0.4262  1.3067
56811SOL    HW280748   6.927   6.315   2.521 -0.3272 -0.1371 -0.0364
56812SOL     OW80749   1.710   4.440   1.572  0.2258 -0.4824  0.2917
56812SOL    HW180750   1.714   4.408   1.481 -0.2161  2.7737 -1.0022
56812SOL    HW280751   1.618   4.429   1.597  0.2659 -1.0162  0.2263
56813SOL     OW80752   3.953   1.685  10.181 -0.6605 -0.6011 -0.9788
56813SOL    HW180753   4.009   1.762  10.172 -0.8972 -0.1603  0.8655
56813SOL    HW280754   4.008   1.620  10.226 -1.5887 -0.1207  0.9583
56814SOL     OW80755   9.365  11.696  11.371  0.3311 -0.1427 -0.1330
56814SOL    HW180756   9.301  11.668  11.306  0.7400 -0.0348 -0.5924
56814SOL    HW280757   9.417  11.618  11.389 -0.1379 -0.3157  0.4908
56815SOL     OW80758   5.787   7.390   9.801  0.4498  0.5729  0.1686
56815SOL    HW180759   5.725   7.323   9.771 -0.1737  0.0595  2.4085
56815SOL    HW280760   5.872   7.347   9.794  0.4681  0.8206 -1.6908
56816SOL     OW80761   6.651   7.468   8.465 -0.1535  0.5742 -0.0411
56816SOL    HW180762   6.713   7.396   8.481 -0.3319  0.4480  0.0880
56816SOL    HW280763   6.665   7.492   8.373 -0.1372  0.3327 -0.1022
56817SOL     OW80764  12.241   3.071   3.706 -0.8087 -0.4913  0.0881
56817SOL    HW180765  12.333   3.049   3.717 -1.3234 -2.2025  1.4382
56817SOL    HW280766  12.233   3.159   3.744  0.1222 -0.6470  0.6864
56818SOL     OW80767   2.401   9.385   9.371 -0.0341 -0.5596  0.1388
56818SOL    HW180768   2.312   9.419   9.371  1.0821  2.6522 -0.3311
56818SOL    HW280769   2.436   9.409   9.285  1.1700 -2.2211  0.1196
56819SOL     OW80770   7.071   7.221   4.894  0.8120 -0.1808 -0.2815
56819SOL    HW180771   7.153   7.271   4.896  1.5800 -1.3974  2.2248
56819SOL    HW280772   7.046   7.211   4.985 -2.6511  0.8084 -0.9688
56820SOL     OW80773   4.334  10.859   2.974 -0.0480  0.3097  0.1839
56820SOL    HW180774   4.249  10.903   2.973  0.0220  0.4348 -0.8219
56820SOL    HW280775   4.322  10.785   3.035 -1.5899 -1.0527 -1.6692
56821SOL     OW80776  12.389  12.073   6.356 -0.0747 -0.4563  0.1489
56821SOL    HW180777  12.423  11.997   6.310  1.3698 -0.2918  0.8910
56821SOL    HW280778  12.326  12.036   6.418 -1.6814 -0.7182 -1.5478
56822SOL     OW80779   0.940   6.697  12.403 -0.2853  0.2247  0.3800
56822SOL    HW180780   0.853   6.700  12.442  0.4490  1.1272  2.0637
56822SOL    HW280781   0.985   6.773  12.440  1.6244 -0.9443  0.5860
56823SOL     OW80782  12.641   3.955  10.584  0.2977  0.1422 -0.1964
56823SOL    HW180783  12.692   3.924  10.658  1.9065 -0.5169 -1.5181
56823SOL    HW280784  12.597   3.876  10.551 -0.2780  0.3994 -0.0614
56824SOL     OW80785   4.430   6.794   7.580 -0.4898  0.5313 -0.0679
56824SOL    HW180786   4.520   6.794   7.614  0.1411  2.3636 -1.5497
56824SOL    HW280787   4.393   6.710   7.609  2.3069 -1.1518 -0.9747
56825SOL     OW80788   5.823   1.385  11.211 -0.3551  0.0538  0.1787
56825SOL    HW180789   5.835   1.439  11.134 -0.8287 -1.4616 -1.0060
56825SOL    HW280790   5.875   1.306  11.194 -0.4438 -0.3089  1.4319
56826SOL     OW80791   6.356  10.115  12.390  0.1132  0.0974  0.1813
56826SOL    HW180792   6.381  10.065  12.468  2.1469  0.0859 -0.4266
56826SOL    HW280793   6.328  10.200  12.424  1.4526  0.2660  0.9281
56827SOL     OW80794   3.293   4.987   9.716 -0.0042 -0.0704 -0.2325
56827SOL    HW180795   3.304   4.895   9.741  0.7691 -0.0159 -0.3345
56827SOL    HW280796   3.270   5.031   9.798 -0.7183 -0.4037 -0.2484
56828SOL     OW80797   1.372   6.407   7.021  0.0763 -0.2816  0.3124
56828SOL    HW180798   1.468   6.405   7.023  0.0910 -3.1143  2.0922
56828SOL    HW280799   1.346   6.315   7.020 -2.6898  0.3669 -1.5074
56829SOL     OW80800   3.613   3.671  12.549 -0.5759  0.0714  0.0820
56829SOL    HW180801   3.572   3.630  12.625 -0.2324  1.6648  1.1826
56829SOL    HW280802   3.553   3.742  12.526  1.7037  2.9153  2.1553
56830SOL     OW80803   6.687  10.893   3.492  0.5749  0.5385 -0.4726
56830SOL    HW180804   6.729  10.808   3.478  0.0530  0.4631 -1.6955
56830SOL    HW280805   6.754  10.947   3.534  1.0014 -0.3905  0.0672
56831SOL     OW80806   3.651   1.966  11.867  0.6084 -0.5407 -0.2753
56831SOL    HW180807   3.695   1.907  11.806  1.1999 -1.0916  0.6447
56831SOL    HW280808   3.723   2.009  11.914  0.1824  0.6684 -0.6930
56832SOL     OW80809   7.581   3.346   5.175  0.2839 -0.2667  0.3042
56832SOL    HW180810   7.522   3.415   5.143  2.1664  0.8510 -0.9264
56832SOL    HW280811   7.537   3.312   5.253 -0.4465  2.8023  1.3933
56833SOL     OW80812   1.308   0.218   3.234  0.2698 -0.0521  0.0987
56833SOL    HW180813   1.314   0.133   3.277 -0.1560 -0.2814 -0.2779
56833SOL    HW280814   1.381   0.219   3.172  0.7671  0.2000  0.6770
56834SOL     OW80815  12.198   2.201   9.571 -0.1286  0.7181 -0.0768
56834SOL    HW180816  12.243   2.148   9.506 -1.1821  0.6547 -0.7827
56834SOL    HW280817  12.227   2.290   9.554  1.2113  0.4607  0.7473
56835SOL     OW80818   3.455   5.450   8.275 -0.0251  0.0674  0.0375
56835SOL    HW180819   3.549   5.441   8.257 -0.3179 -0.2816 -1.3752
56835SOL    HW280820   3.429   5.364   8.309  0.3204  0.4225  1.2570
56836SOL     OW80821  11.440   4.801   2.874  0.3176 -0.4844 -0.0694
56836SOL    HW180822  11.450   4.782   2.780 -0.6555 -1.2175 -0.0380
56836SOL    HW280823  11.353   4.768   2.896  1.0897 -1.5969  1.4238
56837SOL     OW80824   6.924   0.106   8.892  0.1454  0.3387 -0.1936
56837SOL    HW180825   6.861   0.178   8.887  0.1336  0.4215  0.9839
56837SOL    HW280826   6.938   0.092   8.985  0.6716 -0.7394 -0.4173
56838SOL     OW80827   1.974   5.800   6.118  0.0869  0.1523 -0.1028
56838SOL    HW180828   1.909   5.864   6.088  0.8288  0.3186 -1.4428
56838SOL    HW280829   2.035   5.792   6.044 -0.1917 -2.3744 -0.1395
56839SOL     OW80830   6.493   9.253   3.475  0.1248 -0.9130 -0.5037
56839SOL    HW180831   6.565   9.302   3.515 -0.5398  0.0541 -0.4797
56839SOL    HW280832   6.535   9.173   3.442  1.4508  0.1853 -1.6090
56840SOL     OW80833  10.617   1.478   5.992 -0.1913  0.1150 -0.0136
56840SOL    HW180834  10.616   1.520   6.078 -0.5948 -0.1042  0.0930
56840SOL    HW280835  10.613   1.384   6.011  0.8959  0.0111 -0.2437
56841SOL     OW80836  11.475   6.033   9.206 -0.1499 -0.2315 -0.1465
56841SOL    HW180837  11.393   6.082   9.213  0.1551  0.1211  1.7331
56841SOL    HW280838  11.465   5.980   9.127 -2.0634  0.0309 -0.1393
56842SOL     OW80839   9.796   8.190   1.690  0.0709 -0.2598 -0.0753
56842SOL    HW180840   9.796   8.095   1.699  0.4845 -0.2014  0.6329
56842SOL    HW280841   9.851   8.221   1.762  0.0776  0.5070 -0.3990
56843SOL     OW80842   3.451  12.708   2.135  0.1637 -0.0162 -0.5435
56843SOL    HW180843   3.436  12.728   2.043  2.1938 -0.1421 -0.9698
56843SOL    HW280844   3.545  12.686   2.139 -0.2356 -1.6511  1.2600
56844SOL     OW80845   0.828  11.139   5.443 -0.3646 -0.5183  0.2660
56844SOL    HW180846   0.827  11.170   5.353 -1.4681 -1.6790 -0.1574
56844SOL    HW280847   0.860  11.213   5.494  0.1112  0.2158 -1.0491
56845SOL     OW80848   2.126   6.080  12.533 -0.1541 -0.5550  0.4090
56845SOL    HW180849   2.057   6.016  12.514 -0.6587  0.3885 -1.1966
56845SOL    HW280850   2.194   6.030  12.577 -1.8672 -1.5093  2.1135
56846SOL     OW80851  11.712  12.341   5.466 -0.4163  0.1794 -0.1253
56846SOL    HW180852  11.786  12.327   5.526 -0.5619 -1.3956 -0.2605
56846SOL    HW280853  11.733  12.422   5.421  1.1941 -0.1680 -0.0692
56847SOL     OW80854   3.945   0.564  11.107  0.0676  0.6246  0.6572
56847SOL    HW180855   4.041   0.573  11.107  0.1996 -0.5339  0.8074
56847SOL    HW280856   3.920   0.575  11.016  0.5276 -0.5252  0.3692
56848SOL     OW80857   4.775   5.967   9.710 -0.7587 -0.0866 -0.1802
56848SOL    HW180858   4.769   5.875   9.736 -0.8884  0.0206  0.1829
56848SOL    HW280859   4.840   6.004   9.769 -2.9224  0.7739  1.8303
56849SOL     OW80860  12.663   3.405   8.094 -0.0669 -0.7431  0.8100
56849SOL    HW180861  12.735   3.342   8.094  1.8454  1.3006  1.4908
56849SOL    HW280862  12.704   3.487   8.065 -2.4911  0.1647 -0.2989
56850SOL     OW80863   0.456   2.080   8.826  0.1808 -0.5273  0.0486
56850SOL    HW180864   0.545   2.085   8.861  1.2338  2.7643 -2.5689
56850SOL    HW280865   0.402   2.119   8.894  1.3727  0.9439  0.2130
56851SOL     OW80866   3.225   6.485  12.162 -0.7747  0.4287 -0.3564
56851SOL    HW180867   3.247   6.471  12.070 -2.5168  1.6013 -1.0146
56851SOL    HW280868   3.308   6.478  12.209  0.3587  1.1050 -2.1763
56852SOL     OW80869   7.533   8.541   8.562 -0.0932  0.0324 -0.3187
56852SOL    HW180870   7.470   8.484   8.607 -0.3204  0.4230 -0.1317
56852SOL    HW280871   7.538   8.618   8.618 -2.0202  1.4892 -2.0098
56853SOL     OW80872   4.231   3.378   1.953  0.4933 -0.4208 -0.1463
56853SOL    HW180873   4.168   3.443   1.922 -0.8775 -1.2667  0.7491
56853SOL    HW280874   4.211   3.368   2.046  2.0133 -0.6854  0.1788
56854SOL     OW80875   6.487  12.886   7.809  0.5084  0.2484 -0.0829
56854SOL    HW180876   6.487  12.923   7.897  1.7542 -2.5603  1.2286
56854SOL    HW280877   6.535  12.949   7.756  1.9117  0.8971  1.8417
56855SOL     OW80878   0.448   4.936  12.299  0.0426 -0.1539 -0.1579
56855SOL    HW180879   0.380   5.003  12.294  0.4689  0.2030 -2.3038
56855SOL    HW280880   0.518   4.975  12.350 -2.0787 -1.3229  4.1386
56856SOL     OW80881   2.096   7.619   0.542 -0.2936  0.0263  0.3778
56856SOL    HW180882   2.012   7.593   0.581  0.5154 -1.4002  1.2538
56856SOL    HW280883   2.160   7.558   0.580  1.0353  0.6449 -0.7871
56857SOL     OW80884   2.211   0.138  12.963 -0.2422 -0.1184  0.2336
56857SOL    HW180885   2.237   0.143  13.055  0.5222  3.8428 -0.0232
56857SOL    HW280886   2.294   0.136  12.915 -0.6179 -0.8823 -0.3984
56858SOL     OW80887  11.291   3.797   4.402  0.0141 -0.6677  0.5188
56858SOL    HW180888  11.351   3.777   4.330 -0.0923 -1.9119  0.7591
56858SOL    HW280889  11.300   3.723   4.462 -0.7281 -0.1878  1.2361
56859SOL     OW80890   9.845  12.263   5.099  0.1304 -0.3043 -0.3543
56859SOL    HW180891   9.824  12.226   5.014  0.5069 -3.2473  0.7113
56859SOL    HW280892   9.904  12.199   5.139 -0.3280  0.7819  2.2577
56860SOL     OW80893   2.817   3.677   5.371  0.4368  0.3162 -0.5013
56860SOL    HW180894   2.748   3.619   5.339 -0.6205  0.3475  1.5692
56860SOL    HW280895   2.772   3.759   5.393  1.2915  0.6592  0.0265
56861SOL     OW80896   4.153   2.944   5.904  0.3595 -0.0137 -0.3070
56861SOL    HW180897   4.080   2.882   5.908  0.8464 -0.5755 -0.1264
56861SOL    HW280898   4.154   2.985   5.990  0.3407 -0.0935 -0.2688
56862SOL     OW80899   5.088   6.926   4.664  0.2660 -0.1949  0.3804
56862SOL    HW180900   5.111   6.845   4.618  0.7984  0.8661 -1.3413
56862SOL    HW280901   5.168   6.978   4.662 -0.4604  0.9405  0.1751
56863SOL     OW80902   7.904  10.933  12.284 -0.0634  0.0941 -0.4716
56863SOL    HW180903   7.861  10.945  12.368 -1.8755  1.2791 -1.5010
56863SOL    HW280904   7.922  10.839  12.279  0.0163  0.0014  1.1793
56864SOL     OW80905   0.469  11.819   0.397 -0.1165 -0.1792  0.6139
56864SOL    HW180906   0.481  11.766   0.318 -0.1785  2.0538 -0.9910
56864SOL    HW280907   0.493  11.908   0.370 -0.8439  0.7955  2.9304
56865SOL     OW80908   5.795   4.073   7.672  0.0070  0.3146  0.1378
56865SOL    HW180909   5.778   4.164   7.651  1.4614  1.2588  2.6030
56865SOL    HW280910   5.773   4.025   7.592 -0.6959  2.8013 -1.2599
56866SOL     OW80911   0.056   2.474   7.236  0.2993 -0.2971 -0.2223
56866SOL    HW180912  -0.005   2.538   7.200  1.1410  1.8087  1.8511
56866SOL    HW280913   0.062   2.406   7.168 -4.8950 -1.1422 -0.2248
56867SOL     OW80914   0.048   3.860   1.651 -0.0961  0.2585  0.0356
56867SOL    HW180915  -0.021   3.926   1.645 -0.5863 -0.0811  1.6271
56867SOL    HW280916   0.011   3.782   1.608 -0.6576  0.1166  0.7725
56868SOL     OW80917   6.051   9.496   2.862  0.3314 -0.3007 -0.2000
56868SOL    HW180918   6.139   9.515   2.830  0.5003 -0.0331  0.3989
56868SOL    HW280919   6.004   9.462   2.786  1.1357 -1.0549 -0.3825
56869SOL     OW80920   8.695   1.276   3.604 -0.1204 -0.1778  0.0304
56869SOL    HW180921   8.634   1.210   3.570  1.2188 -1.1087 -0.6572
56869SOL    HW280922   8.642   1.355   3.615 -0.8478 -0.0567 -3.4071
56870SOL     OW80923   5.609   8.969  10.651  0.4519 -0.4360  0.7132
56870SOL    HW180924   5.656   9.022  10.716  2.8127 -1.4372 -0.0568
56870SOL    HW280925   5.668   8.967  10.575 -0.9584 -1.6251 -0.4059
56871SOL     OW80926   9.348  11.953   5.112  0.2747  0.1011  0.3100
56871SOL    HW180927   9.331  11.941   5.018 -0.1933 -3.6931  0.7325
56871SOL    HW280928   9.292  11.889   5.155  2.2931  0.0057  3.0623
56872SOL     OW80929  10.787   5.036   7.859 -0.1361  0.6779  0.2526
56872SOL    HW180930  10.752   5.124   7.875  0.8820  0.9930  0.8156
56872SOL    HW280931  10.787   5.028   7.763 -1.4355  0.7763  0.2170
56873SOL     OW80932   6.173   5.982   6.127  0.8191  0.0839 -0.1690
56873SOL    HW180933   6.171   6.023   6.041 -1.1676  0.0447 -0.1758
56873SOL    HW280934   6.158   5.889   6.109  2.9115 -0.3495  0.0520
56874SOL     OW80935   7.062   3.589   6.471 -0.7814 -0.2884 -0.1449
56874SOL    HW180936   7.104   3.648   6.533  1.8001 -2.5059  0.4050
56874SOL    HW280937   6.990   3.549   6.519 -0.4448 -0.0567  0.5581
56875SOL     OW80938   8.092  12.907   4.907  0.1461 -0.4955 -0.3652
56875SOL    HW180939   8.008  12.870   4.936 -0.4428  0.2564 -1.0393
56875SOL    HW280940   8.099  12.990   4.953  0.7971 -0.7957  0.0945
56876SOL     OW80941   3.345   2.484   2.302  0.2872  0.8359  0.0795
56876SOL    HW180942   3.352   2.572   2.264  1.7752  1.3618  1.4572
56876SOL    HW280943   3.347   2.499   2.396  0.3305 -0.6798  0.3409
56877SOL     OW80944   8.052   9.733  10.907 -0.2116  0.0735  0.1468
56877SOL    HW180945   7.983   9.798  10.921  0.2665  0.7147 -0.3877
56877SOL    HW280946   8.007   9.658  10.869 -0.3711  1.1674 -1.9302
56878SOL     OW80947   3.561  12.474   8.853 -0.5751  0.3001  0.2378
56878SOL    HW180948   3.466  12.478   8.853 -0.6015 -0.1653 -0.5525
56878SOL    HW280949   3.589  12.564   8.872 -1.1636  0.7377 -0.8652
56879SOL     OW80950   5.327   0.196  11.792 -0.3200  0.2182  0.7424
56879SOL    HW180951   5.290   0.113  11.762 -0.2673  0.2365  0.6235
56879SOL    HW280952   5.256   0.260  11.779 -0.4774  0.1283  1.1633
56880SOL     OW80953  11.874  12.035   8.399  0.3042 -0.1123  0.3470
56880SOL    HW180954  11.905  12.026   8.489 -0.7767 -0.8050  0.6719
56880SOL    HW280955  11.782  12.063   8.408 -0.2269 -1.5134 -0.4995
56881SOL     OW80956   6.759   8.009   2.491  0.1154  0.0539  0.2518
56881SOL    HW180957   6.821   8.082   2.498 -0.7379  0.7055  1.3353
56881SOL    HW280958   6.734   7.990   2.581  0.2769 -1.5638 -0.0228
56882SOL     OW80959   3.373   0.335   2.186  0.3329  0.3280  0.4195
56882SOL    HW180960   3.397   0.394   2.258  0.1009  0.3409  0.4868
56882SOL    HW280961   3.457   0.309   2.148  0.4396  0.6568  0.4270
56883SOL     OW80962   4.902  10.239   6.001  0.2807 -0.2113 -0.1186
56883SOL    HW180963   4.973  10.180   6.024  0.1919 -0.2358  0.0962
56883SOL    HW280964   4.855  10.195   5.930 -2.2006 -2.3418  2.6045
56884SOL     OW80965   1.246   8.803   6.646 -0.0384  1.0138  0.4091
56884SOL    HW180966   1.186   8.873   6.623  0.5932  1.4454  0.0332
56884SOL    HW280967   1.333   8.842   6.637  0.3339  0.0954 -0.1099
56885SOL     OW80968   9.433   7.417   8.066 -0.4368 -0.4076 -0.3986
56885SOL    HW180969   9.362   7.417   8.130 -1.1482 -0.5086 -1.1623
56885SOL    HW280970   9.389   7.422   7.981  0.2905 -3.7352 -1.0915
56886SOL     OW80971  11.278   5.641   7.669  0.6848 -0.2300  0.1025
56886SOL    HW180972  11.350   5.589   7.704 -0.0206 -0.3017  1.4916
56886SOL    HW280973  11.303   5.658   7.578  2.1933 -0.7002  0.4048
56887SOL     OW80974   6.625   0.174   3.862  0.0568  0.2216 -0.4210
56887SOL    HW180975   6.709   0.209   3.891  0.5118  1.1554 -2.6607
56887SOL    HW280976   6.602   0.108   3.928  2.4299  0.0948  0.3596
56888SOL     OW80977   0.936   7.202   8.960 -0.7183 -0.1348  0.1690
56888SOL    HW180978   0.980   7.257   8.895 -1.4668  1.0173  0.6101
56888SOL    HW280979   0.929   7.116   8.918  0.0696  0.2163 -0.7128
56889SOL     OW80980   3.555   2.462   6.068  0.4786 -0.3366 -0.0026
56889SOL    HW180981   3.496   2.529   6.102  0.6828 -0.4396  0.5693
56889SOL    HW280982   3.603   2.506   5.997  1.8061  0.6564  1.4442
56890SOL     OW80983   6.711   9.846  11.232  0.4215  0.1329  0.1692
56890SOL    HW180984   6.657   9.827  11.155 -0.5155 -0.4752  0.9452
56890SOL    HW280985   6.801   9.835  11.202  0.2550  2.4902 -1.5521
56891SOL     OW80986  10.190  10.198   4.017 -0.1683  0.6219 -0.3424
56891SOL    HW180987  10.181  10.277   4.071  1.5908 -0.8065  2.2786
56891SOL    HW280988  10.275  10.206   3.975 -0.3030  0.4504 -0.6538
56892SOL     OW80989  11.037   8.752   8.580 -0.3418  0.2776  0.2683
56892SOL    HW180990  11.047   8.657   8.580  1.4535  0.3540 -2.3202
56892SOL    HW280991  10.955   8.768   8.534 -0.5929 -0.0070  0.6141
56893SOL     OW80992   2.974  11.203   3.887  0.0759  0.3953  0.0610
56893SOL    HW180993   3.037  11.204   3.814  1.0657  0.0594  0.8813
56893SOL    HW280994   2.897  11.159   3.852  1.2319 -1.4790 -0.2493
56894SOL     OW80995   6.394   8.327   7.570  0.1350  0.0823 -0.2720
56894SOL    HW180996   6.327   8.274   7.614  0.0192  0.1389 -0.3813
56894SOL    HW280997   6.446   8.364   7.642 -0.0093  0.1153 -0.1849
56895SOL     OW80998   1.459   4.389   9.624  0.5369  0.3679 -0.6341
56895SOL    HW180999   1.424   4.404   9.712  0.6663  0.0935 -0.5351
56895SOL    HW281000   1.406   4.318   9.589  0.4984  0.4636 -0.7732
56896SOL     OW81001   6.731  12.404   4.004 -0.3810 -0.2773  0.5084
56896SOL    HW181002   6.739  12.458   4.082  0.0645 -0.1685  0.3894
56896SOL    HW281003   6.682  12.458   3.942  2.0223  0.9325 -0.4442
56897SOL     OW81004   7.429   1.598  10.797 -0.3173 -0.0860  0.4201
56897SOL    HW181005   7.412   1.621  10.706  0.8256  0.0036  0.2214
56897SOL    HW281006   7.488   1.522  10.792  1.1765  0.9958  1.0677
56898SOL     OW81007   4.376  10.238   0.708  0.0722 -0.1512  0.0932
56898SOL    HW181008   4.424  10.312   0.746 -1.5892  0.6985  0.6228
56898SOL    HW281009   4.436  10.164   0.717  0.9582  0.6789  1.4822
56899SOL     OW81010   8.364   1.414   3.634  0.0775  0.8706 -0.1385
56899SOL    HW181011   8.411   1.385   3.711  0.0353 -0.8533 -0.7205
56899SOL    HW281012   8.380   1.509   3.629  1.0296  0.7967  1.2993
56900SOL     OW81013  10.336   6.946   3.650  0.1572 -0.2436  0.4411
56900SOL    HW181014  10.314   6.899   3.730 -1.1190  0.1061  0.3169
56900SOL    HW281015  10.286   7.028   3.656  0.2286 -0.1117 -0.6102
56901SOL     OW81016   5.848   5.813  12.478 -0.2460 -0.2092 -0.0468
56901SOL    HW181017   5.787   5.883  12.502  1.2526  0.6648  1.4753
56901SOL    HW281018   5.893   5.846  12.400 -1.3212 -0.6362 -0.8710
56902SOL     OW81019   0.728  12.405   8.890 -0.1478  0.0959  0.4255
56902SOL    HW181020   0.730  12.318   8.848  1.5399  0.4314 -0.2908
56902SOL    HW281021   0.820  12.426   8.904 -0.6034  0.7908  2.7587
56903SOL     OW81022   4.766  12.691   7.131 -0.0240 -0.0670  0.9192
56903SOL    HW181023   4.784  12.600   7.106 -0.7314 -0.0551  0.3371
56903SOL    HW281024   4.797  12.742   7.056  0.5384  0.1913  1.3222
56904SOL     OW81025   4.058   1.902  12.136  0.5840 -0.4821  0.1389
56904SOL    HW181026   4.086   1.830  12.080  1.5423  0.9587 -1.3146
56904SOL    HW281027   4.072   1.869  12.225  1.2112 -1.9945 -0.4859
56905SOL     OW81028   4.140   9.887   9.410  0.1750 -0.1748 -0.3404
56905SOL    HW181029   4.066   9.892   9.348  0.5044  1.3785 -0.6378
56905SOL    HW281030   4.215   9.863   9.355  0.3406  0.5679 -0.4471
56906SOL     OW81031   2.065   1.110   3.711  0.0713 -0.0930  0.1807
56906SOL    HW181032   2.001   1.179   3.692  0.7391  0.4318 -0.2170
56906SOL    HW281033   2.024   1.030   3.680 -0.8549  0.0613  0.9367
56907SOL     OW81034  10.007   0.422   0.642 -0.1196 -0.6018  0.1481
56907SOL    HW181035   9.957   0.466   0.711 -0.2320  0.1630 -0.3992
56907SOL    HW281036  10.046   0.346   0.685 -0.5256 -0.3707  0.9497
56908SOL     OW81037  12.259  11.422   1.785  0.3337  0.7383  0.7137
56908SOL    HW181038  12.167  11.404   1.765  0.5272 -0.5774  0.8697
56908SOL    HW281039  12.297  11.446   1.701  0.1721 -0.3291  0.3083
56909SOL     OW81040   0.457   4.979   2.391  0.2463 -0.0967 -0.3634
56909SOL    HW181041   0.499   4.915   2.449  1.4956  0.6059 -0.4625
56909SOL    HW281042   0.528   5.038   2.365 -0.3542 -0.1677 -2.2959
56910SOL     OW81043   1.719   5.722   2.663 -0.1850  0.5023 -0.3030
56910SOL    HW181044   1.759   5.715   2.576  0.5823  1.4427 -0.0439
56910SOL    HW281045   1.653   5.791   2.653 -0.7399 -0.0295 -0.3599
56911SOL     OW81046   6.269  10.638  11.890  0.6338 -0.2238 -0.1513
56911SOL    HW181047   6.246  10.589  11.969  0.0387 -1.3709 -1.0055
56911SOL    HW281048   6.361  10.618  11.876  0.6777 -0.2148  0.1067
56912SOL     OW81049   8.906  10.460  12.306 -0.1499  0.2987 -0.2135
56912SOL    HW181050   8.875  10.544  12.341 -1.7143 -0.7868  1.1605
56912SOL    HW281051   8.859  10.394  12.356  0.6190 -1.4286 -1.6382
56913SOL     OW81052  12.643   8.163   4.118 -0.2291  0.1510  0.2105
56913SOL    HW181053  12.706   8.226   4.081 -0.5808  0.0100 -0.6454
56913SOL    HW281054  12.683   8.136   4.200  0.6031  0.4352 -0.0845
56914SOL     OW81055  11.601   0.523  12.545  0.1589 -0.2379  0.0928
56914SOL    HW181056  11.510   0.513  12.515  0.4694 -0.4285 -0.8086
56914SOL    HW281057  11.602   0.482  12.631 -0.8567  0.6886  0.5839
56915SOL     OW81058   6.270  12.118   3.862 -0.1485 -0.1715 -0.0042
56915SOL    HW181059   6.224  12.058   3.804  0.7119 -1.5127  0.6449
56915SOL    HW281060   6.215  12.122   3.941  0.9033 -1.9996  0.8868
56916SOL     OW81061  12.764   2.966  10.728 -0.3452  0.1984 -0.6041
56916SOL    HW181062  12.789   3.011  10.809 -2.8502  0.9051 -0.1122
56916SOL    HW281063  12.801   3.020  10.658 -1.0393  1.5929  0.0406
56917SOL     OW81064  10.786  11.484   0.722  0.2300 -0.4210 -0.3740
56917SOL    HW181065  10.754  11.430   0.794 -0.4448  0.6572  0.1587
56917SOL    HW281066  10.838  11.552   0.764  0.6574 -0.3522 -0.9925
56918SOL     OW81067   4.746   8.793  11.758  0.2361  0.1955  0.2495
56918SOL    HW181068   4.841   8.775  11.757  0.1844 -0.0885 -0.1420
56918SOL    HW281069   4.709   8.725  11.701 -0.0890  0.9113 -0.4071
56919SOL     OW81070   9.345   7.754   2.853  0.4295 -0.3353  0.0248
56919SOL    HW181071   9.410   7.775   2.787  0.6283 -1.0097 -0.0072
56919SOL    HW281072   9.297   7.835   2.867 -0.0841 -0.3557 -1.4733
56920SOL     OW81073  10.316   1.848   8.518  0.2136  0.0765 -0.3356
56920SOL    HW181074  10.243   1.910   8.519 -0.7262 -0.9330  2.1159
56920SOL    HW281075  10.387   1.894   8.474 -0.9420  2.2686 -0.0326
56921SOL     OW81076  10.694  12.230   4.598 -0.3613  1.5288 -0.2356
56921SOL    HW181077  10.621  12.277   4.558 -1.3935  0.9703  0.9117
56921SOL    HW281078  10.657  12.192   4.678  1.0120  0.6424  0.0168
56922SOL     OW81079   4.658  10.023  12.718  0.2349 -0.1059  0.0185
56922SOL    HW181080   4.710  10.072  12.782  0.0399 -0.4499  0.4473
56922SOL    HW281081   4.645  10.084  12.645  1.2390 -0.0183 -0.0959
56923SOL     OW81082   7.120  10.864   3.414  0.0728  0.0106 -0.2812
56923SOL    HW181083   7.108  10.875   3.320 -1.8638 -0.6004 -0.1497
56923SOL    HW281084   7.152  10.774   3.423  0.0534 -0.0013 -0.3314
56924SOL     OW81085   1.431   8.826  10.206 -0.2792  0.0213  0.0161
56924SOL    HW181086   1.359   8.884  10.232  1.2105  2.1499 -0.3775
56924SOL    HW281087   1.492   8.883  10.159  2.1861 -1.4873  1.2084
56925SOL     OW81088   7.541   3.382   2.223  0.4665 -0.0165 -0.1558
56925SOL    HW181089   7.534   3.345   2.135  2.2504  0.6428 -0.6208
56925SOL    HW281090   7.507   3.471   2.214 -0.1963 -0.2378  0.0598
56926SOL     OW81091   0.135   7.017   5.850  0.3468  0.2700 -0.8782
56926SOL    HW181092   0.179   6.957   5.910 -0.7554  2.3465  2.2188
56926SOL    HW281093   0.059   6.967   5.818  1.2468 -1.0626 -1.0124
56927SOL     OW81094   5.752   1.770   4.572  0.1633 -0.8898 -0.1693
56927SOL    HW181095   5.794   1.845   4.616  0.3008 -0.6393 -0.7241
56927SOL    HW281096   5.794   1.766   4.486 -2.3644  0.6404 -1.5843
56928SOL     OW81097  10.407   1.495   2.272  0.2389 -0.2409 -0.3930
56928SOL    HW181098  10.401   1.514   2.365  0.3876  0.3263 -0.4920
56928SOL    HW281099  10.323   1.455   2.249  0.1298 -0.2044 -0.0531
56929SOL     OW81100   3.987  12.745  10.804  0.4291  0.6091  0.2747
56929SOL    HW181101   3.953  12.814  10.861  0.4165 -0.1195  1.1725
56929SOL    HW281102   4.082  12.760  10.803  0.2828  1.5573 -0.7809
56930SOL     OW81103   4.672   4.411   5.244 -0.3973  0.5909  0.4097
56930SOL    HW181104   4.760   4.379   5.224 -1.4945 -1.0975 -2.2081
56930SOL    HW281105   4.660   4.391   5.337  2.2000  1.5480  1.0270
56931SOL     OW81106   6.857   7.683   0.727 -0.2542  0.0076 -0.6828
56931SOL    HW181107   6.865   7.629   0.805 -1.0255  0.9176  0.0609
56931SOL    HW281108   6.898   7.766   0.751 -0.5805  0.3280 -1.2041
56932SOL     OW81109  10.030   7.913  11.693  0.0233  0.2980  0.3607
56932SOL    HW181110  10.090   7.987  11.684 -0.2298  0.4170 -0.4095
56932SOL    HW281111  10.004   7.892  11.603  0.4906 -1.0684  0.5329
56933SOL     OW81112   2.303   1.235  12.034  0.2902  0.4599  0.0396
56933SOL    HW181113   2.292   1.144  12.061 -0.4314  0.5588  0.0824
56933SOL    HW281114   2.226   1.255  11.981  0.2213  1.1732  0.3914
56934SOL     OW81115   9.981   5.551   5.110  0.5231  0.0286 -0.2663
56934SOL    HW181116  10.029   5.604   5.173  2.3527 -2.7772  0.9140
56934SOL    HW281117  10.034   5.552   5.031 -0.2121  1.0951 -0.7667
56935SOL     OW81118   8.418   2.633   1.784 -0.0835  0.0006  0.0779
56935SOL    HW181119   8.458   2.560   1.735 -0.8115 -1.6768  1.8648
56935SOL    HW281120   8.384   2.592   1.863 -0.8519  2.2699  0.9735
56936SOL     OW81121   6.191   8.766   0.571 -0.1757 -0.0910  0.5846
56936SOL    HW181122   6.267   8.731   0.618 -0.3029  1.0324  1.6792
56936SOL    HW281123   6.190   8.859   0.592 -1.5933  0.0063  0.2047
56937SOL     OW81124   8.229   3.238   4.015  0.6270 -0.4345 -0.4746
56937SOL    HW181125   8.303   3.198   3.969  1.6549  0.6311  0.1925
56937SOL    HW281126   8.160   3.244   3.949  1.3909 -0.7377 -1.3250
56938SOL     OW81127   0.263   7.218   0.477  0.3210 -0.0817 -0.3750
56938SOL    HW181128   0.323   7.148   0.448  0.5621 -0.2518  0.4963
56938SOL    HW281129   0.291   7.295   0.427  2.0074  0.1204  0.7943
56939SOL     OW81130   1.979   9.303   9.724 -0.3258 -0.1574  0.1346
56939SOL    HW181131   1.996   9.392   9.693  0.3760 -0.4302 -0.3160
56939SOL    HW281132   2.007   9.304   9.816 -1.1408  0.3076  0.3847
56940SOL     OW81133  11.170   0.448   8.998  0.2028  0.5366 -0.0534
56940SOL    HW181134  11.254   0.402   9.006  1.0826  1.8744 -1.2493
56940SOL    HW281135  11.124   0.401   8.928  0.9882  1.2565 -1.0871
56941SOL     OW81136   2.073  12.563   4.756 -0.5482 -0.0887 -0.0554
56941SOL    HW181137   2.158  12.521   4.743 -0.9078 -1.1573  0.8926
56941SOL    HW281138   2.071  12.633   4.690  0.9800 -0.1497 -0.2141
56942SOL     OW81139   2.112   6.084  10.825 -0.2526  0.4810  0.2301
56942SOL    HW181140   2.183   6.123  10.877 -0.8199  0.0451  1.3730
56942SOL    HW281141   2.063   6.031  10.888  0.1895 -1.7023 -1.1554
56943SOL     OW81142   0.995  10.297  11.863 -0.5114  0.3097 -0.1935
56943SOL    HW181143   0.927  10.235  11.838 -0.1939  0.0709 -0.4701
56943SOL    HW281144   1.073  10.243  11.876 -0.4152  0.5575  0.3073
56944SOL     OW81145   2.270  12.453   9.641  0.0476 -0.0844 -0.1482
56944SOL    HW181146   2.181  12.480   9.617 -0.8204 -1.5110  1.3289
56944SOL    HW281147   2.323  12.481   9.567 -1.4807  1.5421 -0.7130
56945SOL     OW81148   9.375  12.789   6.454 -0.1359  0.3883  0.4040
56945SOL    HW181149   9.313  12.717   6.464  0.5667 -0.0722  1.5384
56945SOL    HW281150   9.413  12.776   6.367 -0.3228 -0.3632  0.4259
56946SOL     OW81151  11.213   2.278   7.784  0.8548 -0.1668  0.0502
56946SOL    HW181152  11.248   2.261   7.697 -1.2197  0.3304 -0.9372
56946SOL    HW281153  11.164   2.360   7.775 -0.3970 -0.7159  1.3555
56947SOL     OW81154   3.143   2.397  10.903  0.1655  0.3171  0.2683
56947SOL    HW181155   3.217   2.437  10.856  0.4989  1.9183  2.0471
56947SOL    HW281156   3.067   2.446  10.874  0.0584 -0.0822 -0.1411
56948SOL     OW81157  10.348   3.785   5.093  0.3989  1.0124 -0.5397
56948SOL    HW181158  10.282   3.845   5.061 -0.4366  0.1264 -0.5169
56948SOL    HW281159  10.425   3.840   5.108 -1.2392  2.7341  2.5595
56949SOL     OW81160   6.808   0.532   3.487  0.1391 -0.5177  0.2835
56949SOL    HW181161   6.826   0.510   3.578  1.4372 -0.5768  0.0303
56949SOL    HW281162   6.881   0.588   3.460  0.0587 -0.9272 -0.8666
56950SOL     OW81163  11.650   0.908   9.812 -0.0507  0.1542 -0.1136
56950SOL    HW181164  11.698   0.890   9.731 -1.4421 -0.0418 -0.9220
56950SOL    HW281165  11.606   0.826   9.833 -0.9145  0.6282 -0.0144
56951SOL     OW81166   5.620  10.553   7.531  0.3452  0.2193 -1.1986
56951SOL    HW181167   5.675  10.493   7.581  0.6240  1.1509 -0.3533
56951SOL    HW281168   5.660  10.554   7.444  0.3740 -0.7483 -1.2103
56952SOL     OW81169  11.661   2.220   5.741  0.0140 -0.1091 -0.2460
56952SOL    HW181170  11.677   2.308   5.775  1.4800 -0.9301  1.3063
56952SOL    HW281171  11.659   2.231   5.646 -1.1028  1.7684 -0.0570
56953SOL     OW81172  11.950   4.738   1.617  0.3355 -0.8366  0.5087
56953SOL    HW181173  11.916   4.808   1.672 -2.3111 -1.6934  0.1426
56953SOL    HW281174  11.922   4.657   1.662 -0.1601 -1.5678 -1.0288
56954SOL     OW81175  12.193   3.104   2.684 -0.2741 -0.2541 -0.2154
56954SOL    HW181176  12.174   3.014   2.658 -2.6878  0.5391 -1.5607
56954SOL    HW281177  12.169   3.109   2.776 -0.7708 -0.8518 -0.3048
56955SOL     OW81178   9.082   8.482  12.782  0.0689  0.3675 -0.3277
56955SOL    HW181179   9.079   8.500  12.688 -0.2012  0.6427 -0.2675
56955SOL    HW281180   8.992   8.495  12.812  0.0208 -0.3475 -0.1482
56956SOL     OW81181   1.008   6.988  12.772 -0.0654  0.0333 -0.5456
56956SOL    HW181182   1.022   7.083  12.781  0.3613  0.1386 -2.1281
56956SOL    HW281183   1.086   6.949  12.812 -1.0199  0.2587  1.6725
56957SOL     OW81184  12.303   7.913   3.808 -0.0602  0.3542 -0.3150
56957SOL    HW181185  12.317   7.979   3.876  0.6500 -0.4773  0.3637
56957SOL    HW281186  12.300   7.963   3.726  0.5986  1.2180  0.1732
56958SOL     OW81187   3.666   6.354   1.619 -0.0900  0.1536  0.4583
56958SOL    HW181188   3.605   6.318   1.684  0.6901 -0.4224  0.8874
56958SOL    HW281189   3.626   6.333   1.535  0.4223 -1.9680  0.6817
56959SOL     OW81190   5.968  12.572   7.017  0.0262 -0.3853 -0.0131
56959SOL    HW181191   5.885  12.619   7.015 -0.1298 -0.4875  2.0517
56959SOL    HW281192   6.031  12.634   7.053 -0.4576 -1.9046  4.0798
56960SOL     OW81193  11.631   1.602   7.099 -0.0147  0.1161  0.1637
56960SOL    HW181194  11.702   1.659   7.128 -0.0215  1.1515 -1.6811
56960SOL    HW281195  11.656   1.514   7.129  0.8643  0.7995  1.5352
56961SOL     OW81196   9.409  10.410   0.308  0.3443  0.2578  0.3764
56961SOL    HW181197   9.401  10.487   0.252 -1.5558  0.5630  0.9952
56961SOL    HW281198   9.390  10.336   0.250 -1.6777  0.5757  0.5374
56962SOL     OW81199   4.976   2.507   0.970 -0.5260 -0.4661  0.4684
56962SOL    HW181200   4.972   2.486   0.877  2.1049 -0.0210  0.1565
56962SOL    HW281201   4.950   2.599   0.975 -6.4092 -1.8025  1.0925
56963SOL     OW81202   0.836   4.601   3.037 -0.5786 -0.4098  0.2719
56963SOL    HW181203   0.805   4.543   3.107 -0.0033  0.8049  1.5717
56963SOL    HW281204   0.922   4.631   3.067  0.6848 -1.5085 -1.9609
56964SOL     OW81205   0.842   6.319   1.165  0.3363 -1.4350 -0.0028
56964SOL    HW181206   0.758   6.276   1.152 -0.5101  0.3512 -0.7108
56964SOL    HW281207   0.841   6.347   1.257 -0.7930  0.3838 -0.5086
56965SOL     OW81208   3.784   9.194   9.370 -0.6253  0.1819  0.1942
56965SOL    HW181209   3.734   9.144   9.305 -0.3791  0.4269 -0.1839
56965SOL    HW281210   3.822   9.267   9.321 -0.1141  0.1497  0.5333
56966SOL     OW81211  11.431  10.460   0.752 -0.0269  0.6022 -0.0862
56966SOL    HW181212  11.505  10.407   0.780  0.8221  2.5821  1.6535
56966SOL    HW281213  11.447  10.476   0.659 -1.0030 -3.1079 -1.0510
56967SOL     OW81214   2.282   3.474   0.049  0.6628 -0.2667 -0.1789
56967SOL    HW181215   2.286   3.423  -0.031  2.3101  0.2848 -0.4839
56967SOL    HW281216   2.371   3.472   0.084  0.4447  1.1721  0.5584
56968SOL     OW81217  11.941   4.766  11.811 -0.0836 -0.3958 -0.0054
56968SOL    HW181218  12.030   4.748  11.842  0.0227  0.3105  0.1082
56968SOL    HW281219  11.951   4.839  11.750 -0.7213  0.3901  0.8146
56969SOL     OW81220   0.089   5.026   4.502 -0.8380  0.7251 -0.6003
56969SOL    HW181221   0.088   4.934   4.526  0.1005  0.7141 -0.5697
56969SOL    HW281222   0.130   5.070   4.577 -1.9362  1.2711 -0.2952
56970SOL     OW81223   3.796   9.141   7.800 -0.4548 -0.4991 -0.4301
56970SOL    HW181224   3.873   9.141   7.743 -0.3134  0.1098 -0.2433
56970SOL    HW281225   3.801   9.057   7.847  0.8181  0.0941  0.5396
56971SOL     OW81226   3.033   7.469   8.251 -0.3317  0.2647  0.1521
56971SOL    HW181227   3.044   7.461   8.345  0.5511  0.0979  0.0426
56971SOL    HW281228   3.107   7.422   8.214 -0.8062  0.1081 -0.6335
56972SOL     OW81229   2.605   1.907   2.045  0.0761 -0.3627 -0.4771
56972SOL    HW181230   2.587   1.873   1.957 -1.5407  2.3032 -1.2716
56972SOL    HW281231   2.521   1.938   2.077  0.8743 -0.0922  1.5133
56973SOL     OW81232   0.127   7.835  12.504 -0.4688 -0.3066 -0.0236
56973SOL    HW181233   0.152   7.749  12.472 -0.6505 -0.4610  0.2470
56973SOL    HW281234   0.190   7.895  12.465  0.3959 -0.7004  0.7394
56974SOL     OW81235   5.657   8.523   7.803 -0.2357  0.4811  0.1540
56974SOL    HW181236   5.735   8.496   7.754 -0.0062  0.7297  0.3753
56974SOL    HW281237   5.599   8.448   7.799  0.2207  0.1108  0.4005
56975SOL     OW81238  12.681   8.088  10.819 -0.1925  0.0568 -0.2828
56975SOL    HW181239  12.739   8.147  10.771 -0.8797 -0.1278 -1.3771
56975SOL    HW281240  12.671   8.012  10.761  0.3111 -0.9565  0.8945
56976SOL     OW81241   2.641   1.160   6.722 -0.3455 -0.0270  0.0936
56976SOL    HW181242   2.552   1.131   6.702 -0.0807 -0.7069 -0.1606
56976SOL    HW281243   2.687   1.079   6.745  0.2540  0.2930  0.0339
56977SOL     OW81244   1.993   9.990   5.736  0.2837 -0.1419 -0.3325
56977SOL    HW181245   2.073  10.031   5.771  0.0932 -0.4101  0.4122
56977SOL    HW281246   2.024   9.942   5.659  0.8538 -0.2837 -0.0242
56978SOL     OW81247   0.512   4.190   9.777  0.1875  0.1075  0.0765
56978SOL    HW181248   0.470   4.149   9.701 -1.1258 -0.7823  1.2307
56978SOL    HW281249   0.514   4.283   9.756 -0.8609 -0.0292 -0.7128
56979SOL     OW81250   0.007   8.495  10.150 -0.0821  0.5763 -0.1179
56979SOL    HW181251  -0.084   8.483  10.123 -0.5042 -0.9993  1.7898
56979SOL    HW281252   0.013   8.452  10.235  2.3174  1.1682  0.0872
56980SOL     OW81253   9.417  10.727   3.793  0.1110 -0.4254  0.1233
56980SOL    HW181254   9.462  10.742   3.876 -1.2884 -0.3584  0.8914
56980SOL    HW281255   9.372  10.809   3.775  0.0724 -0.5773 -0.5043
56981SOL     OW81256   9.890   5.775   0.388  0.1438 -0.8134 -0.1962
56981SOL    HW181257   9.816   5.802   0.442  0.0000 -0.4893 -0.5498
56981SOL    HW281258   9.873   5.683   0.369  0.2158 -0.9389  0.3392
56982SOL     OW81259   9.112   2.358   5.329  0.2650 -0.0997  0.3610
56982SOL    HW181260   9.149   2.442   5.302 -1.1860  0.2317 -0.6912
56982SOL    HW281261   9.017   2.370   5.326  0.0198 -1.7393  0.3063
56983SOL     OW81262   9.852   3.689   5.957 -0.5312  0.5391  0.4884
56983SOL    HW181263   9.860   3.594   5.971 -0.5500  0.7562  2.1299
56983SOL    HW281264   9.766   3.700   5.917 -0.4409 -0.1459  0.0857
56984SOL     OW81265   2.217   3.075   4.070  0.1851  0.2337 -0.5369
56984SOL    HW181266   2.137   3.110   4.109  0.9321  0.2277  1.1036
56984SOL    HW281267   2.219   2.984   4.099  1.0399  0.3818 -0.0955
56985SOL     OW81268  11.578   2.383   3.110  0.4037  0.2429 -0.0972
56985SOL    HW181269  11.569   2.387   3.206 -0.1548 -2.0555 -0.0084
56985SOL    HW281270  11.577   2.475   3.083 -1.0852  0.9229  1.9644
56986SOL     OW81271  12.052   9.208   5.938 -0.6701  0.1814  0.3035
56986SOL    HW181272  12.061   9.127   5.888 -1.1017  1.1538 -1.4504
56986SOL    HW281273  12.110   9.196   6.013  3.8097  0.3260 -2.6856
56987SOL     OW81274   2.554   8.006   6.195  0.5491 -1.0394  0.2522
56987SOL    HW181275   2.571   8.081   6.252  0.4292 -0.1566 -0.8380
56987SOL    HW281276   2.458   7.998   6.196  0.3599  0.3045 -1.3985
56988SOL     OW81277   1.507  10.939  11.902 -0.5214  0.0708  0.0166
56988SOL    HW181278   1.421  10.946  11.945 -0.7825  0.0971 -0.4999
56988SOL    HW281279   1.530  10.846  11.911  0.2258  0.3941  1.7149
56989SOL     OW81280   9.926   2.535   2.488  0.0513  0.1085 -0.0635
56989SOL    HW181281   9.999   2.544   2.550  0.2749 -3.4964  0.3856
56989SOL    HW281282   9.889   2.449   2.507 -2.2518  0.4490 -2.5040
56990SOL     OW81283  10.681   2.470   7.394  0.2201  0.2451 -0.0300
56990SOL    HW181284  10.694   2.513   7.309 -0.1943 -2.7834 -1.8042
56990SOL    HW281285  10.587   2.455   7.399  0.1836  0.7842  1.2315
56991SOL     OW81286   6.467   8.608  11.346  0.4511  0.8297  0.3756
56991SOL    HW181287   6.443   8.518  11.328  2.0834  0.7547 -1.8637
56991SOL    HW281288   6.456   8.618  11.441  3.5456 -2.8177  1.3522
56992SOL     OW81289   0.101   5.451   6.178 -0.6858  0.1278  0.2433
56992SOL    HW181290   0.180   5.409   6.141 -2.1018 -1.0586 -1.6348
56992SOL    HW281291   0.097   5.419   6.268  1.2004  0.5908  0.5397
56993SOL     OW81292   5.817   6.625   2.358  0.6593  0.1684 -0.4570
56993SOL    HW181293   5.846   6.608   2.268 -1.1969 -1.5423 -0.8119
56993SOL    HW281294   5.842   6.715   2.375 -1.3086  1.5142 -3.7142
56994SOL     OW81295   9.546  12.147   0.853 -0.0147  0.6959  0.3815
56994SOL    HW181296   9.547  12.157   0.757  1.3908  1.0774  0.4178
56994SOL    HW281297   9.471  12.090   0.870 -0.7878  1.2978 -0.8728
56995SOL     OW81298  11.289  11.011   1.896  0.0585  0.4337 -0.5450
56995SOL    HW181299  11.218  10.980   1.839 -0.9240  0.7810  0.4424
56995SOL    HW281300  11.246  11.027   1.980  1.5647 -0.6059  0.4681
56996SOL     OW81301   8.362  11.123  12.307 -0.5362  0.1270  0.7814
56996SOL    HW181302   8.430  11.187  12.330 -1.6282  1.2096  1.1147
56996SOL    HW281303   8.337  11.084  12.390 -0.3361 -0.2761  0.6568
56997SOL     OW81304   1.346   0.118  10.212  0.0137 -0.2158  0.1535
56997SOL    HW181305   1.412   0.116  10.281 -0.4594  2.1552  0.7899
56997SOL    HW281306   1.326   0.211  10.202 -2.1187 -0.7408 -1.0798
56998SOL     OW81307   9.734   7.314   7.002  0.4010  1.2705  0.0067
56998SOL    HW181308   9.794   7.281   6.935 -0.2361  1.6058 -0.7499
56998SOL    HW281309   9.783   7.308   7.084  0.3535 -1.4995 -0.0669
56999SOL     OW81310   9.248  11.048   4.540  0.1868 -0.3570  0.4842
56999SOL    HW181311   9.332  11.092   4.531 -0.2419  0.3310 -0.2726
56999SOL    HW281312   9.241  10.994   4.461 -0.4552  0.2448  0.1238
57000SOL     OW81313   3.061   3.454   5.114  0.1546 -0.1759 -0.0863
57000SOL    HW181314   3.081   3.362   5.131 -0.0157  0.0048  1.1851
57000SOL    HW281315   2.968   3.455   5.091 -0.1157 -0.2089  0.9642
57001SOL     OW81316   2.161  10.769   3.298 -0.3884  0.1974  0.1742
57001SOL    HW181317   2.229  10.743   3.235 -0.5202 -0.6935  0.3802
57001SOL    HW281318   2.092  10.704   3.286 -0.5730  0.2334  0.9897
57002SOL     OW81319  12.659   7.326   3.359  0.0419 -0.3909  0.1695
57002SOL    HW181320  12.713   7.396   3.396 -1.6189  0.4491  1.1376
57002SOL    HW281321  12.695   7.311   3.272  1.4640  0.5065  0.5589
57003SOL     OW81322   4.127  10.889  11.901  0.0713 -0.8475  0.0719
57003SOL    HW181323   4.079  10.806  11.895  1.4382 -1.5877 -2.7321
57003SOL    HW281324   4.087  10.944  11.833 -0.6159  0.7342  1.6980
57004SOL     OW81325   8.907   0.876   3.900 -0.2497 -0.1283  0.3517
57004SOL    HW181326   8.961   0.851   3.826 -1.4300 -1.2025 -0.1810
57004SOL    HW281327   8.967   0.875   3.975  1.0376  1.3271 -0.5984
57005SOL     OW81328   5.919  12.154   0.416 -0.1402 -0.9716  0.5113
57005SOL    HW181329   5.872  12.160   0.332  0.4670 -1.1544  0.1508
57005SOL    HW281330   5.883  12.076   0.458 -0.8191 -0.5920  0.6672
57006SOL     OW81331   3.933   7.917   8.499  0.0073  0.5450 -1.0181
57006SOL    HW181332   3.982   7.895   8.578  0.4707  1.4221 -1.0422
57006SOL    HW281333   3.845   7.883   8.514  0.1734  0.4534 -0.2444
57007SOL     OW81334   4.766   5.579   5.329  0.1376 -0.0578  0.3963
57007SOL    HW181335   4.856   5.599   5.306  0.6858 -0.0531  2.3761
57007SOL    HW281336   4.714   5.640   5.277  1.1918 -0.5555 -1.3316
57008SOL     OW81337   5.561   7.471   4.239  0.0752  0.0504 -0.0564
57008SOL    HW181338   5.509   7.468   4.158 -0.1500  1.1220  0.0308
57008SOL    HW281339   5.556   7.562   4.267  0.6800 -0.1766  0.8316
57009SOL     OW81340  11.883  10.222   5.024  0.0808  0.2634  0.1451
57009SOL    HW181341  11.823  10.297   5.033 -1.5105 -0.7763 -1.1789
57009SOL    HW281342  11.863  10.166   5.099 -0.1462  0.2077  0.0418
57010SOL     OW81343  12.850   6.034   3.090  0.0334  0.8400  0.2781
57010SOL    HW181344  12.877   5.984   3.166 -1.1230  0.9184  0.7506
57010SOL    HW281345  12.862   5.974   3.016 -1.5128 -0.2420  0.8519
57011SOL     OW81346   3.105   3.198   1.847 -0.2568 -0.4058  0.1211
57011SOL    HW181347   3.189   3.186   1.802 -0.7844 -0.0283 -0.9940
57011SOL    HW281348   3.124   3.177   1.938 -0.0785 -5.4265 -0.8066
57012SOL     OW81349   7.862  11.523   6.563 -0.2404  0.1893 -0.0499
57012SOL    HW181350   7.835  11.613   6.582 -0.7046 -0.1300  0.8399
57012SOL    HW281351   7.788  11.485   6.516  0.4401  0.6209 -1.5546
57013SOL     OW81352   0.501   0.189  12.003 -0.3949  0.7754 -0.3593
57013SOL    HW181353   0.524   0.149  12.087 -1.5829 -1.0494 -0.8549
57013SOL    HW281354   0.578   0.241  11.980  1.0013 -0.7593  0.6269
57014SOL     OW81355   5.780   7.206  12.649 -0.2910 -0.2951 -0.0636
57014SOL    HW181356   5.866   7.176  12.681 -0.6255 -2.4447 -0.9941
57014SOL    HW281357   5.744   7.256  12.722  0.9419 -1.0276  1.1055
57015SOL     OW81358   3.721   0.506  11.500  0.3840 -0.5345 -0.0166
57015SOL    HW181359   3.739   0.412  11.492  0.6021 -0.5100  0.1817
57015SOL    HW281360   3.805   0.548  11.482 -0.4076 -0.2011 -3.5957
57016SOL     OW81361   2.877  12.940   8.813 -0.1669  0.5941  0.2455
57016SOL    HW181362   2.951  12.998   8.792  0.2611  0.3396  1.0004
57016SOL    HW281363   2.912  12.852   8.800 -0.7016  0.4835 -0.5236
57017SOL     OW81364  12.244   8.140   6.817  0.2352  0.2078 -0.4991
57017SOL    HW181365  12.236   8.213   6.756  0.9963 -0.7339 -1.7748
57017SOL    HW281366  12.282   8.069   6.765 -0.1190 -0.9812  0.8012
57018SOL     OW81367   5.613   3.065   9.403  0.6446 -0.5626 -0.2093
57018SOL    HW181368   5.583   3.011   9.330  2.2889 -1.5097 -0.2539
57018SOL    HW281369   5.592   3.155   9.378  1.4497 -0.8295 -2.0047
57019SOL     OW81370   3.245  11.901  10.314 -0.5499  0.1660  0.5476
57019SOL    HW181371   3.253  11.995  10.333  0.4271 -0.0925  1.5378
57019SOL    HW281372   3.335  11.871  10.301 -0.6993 -0.9208  1.7780
57020SOL     OW81373  10.012   3.955   1.265 -0.0666 -0.1512  0.0138
57020SOL    HW181374  10.059   3.873   1.285  0.6390  0.0870 -0.6265
57020SOL    HW281375  10.079   4.013   1.229 -0.2863  1.1765  1.6231
57021SOL     OW81376   9.109   2.222   2.897 -0.1853 -0.1700  0.0017
57021SOL    HW181377   9.189   2.189   2.936  0.3566  2.4804  1.3296
57021SOL    HW281378   9.098   2.310   2.933 -2.2603  0.6020 -2.2038
57022SOL     OW81379   8.030   4.128   5.292 -0.2102 -0.3261  0.0721
57022SOL    HW181380   8.067   4.090   5.372 -0.5541  0.0232  0.4007
57022SOL    HW281381   7.999   4.215   5.319  3.4012  1.6216 -1.3043
57023SOL     OW81382   1.125  11.916   2.075  0.1704  0.2270 -0.0262
57023SOL    HW181383   1.111  11.840   2.130 -0.2195  1.1114  1.1237
57023SOL    HW281384   1.155  11.880   1.991 -1.3967 -1.2722  0.0008
57024SOL     OW81385  10.547   7.046   3.522 -0.0795  0.4548 -0.2364
57024SOL    HW181386  10.559   7.124   3.576  0.7615 -0.5534  1.1123
57024SOL    HW281387  10.477   6.997   3.566  1.1539 -0.7617  0.4743
57025SOL     OW81388  11.636   0.557   8.585  0.3597  0.3311 -0.3651
57025SOL    HW181389  11.698   0.588   8.519  1.1106  0.8410  0.5374
57025SOL    HW281390  11.635   0.462   8.575  1.9812  0.2295  0.1544
57026SOL     OW81391  11.945   8.497   9.377  0.0812 -0.2430  0.0466
57026SOL    HW181392  11.983   8.409   9.377  1.7781  0.4401 -0.3262
57026SOL    HW281393  11.978   8.537   9.296 -2.0625  0.1900 -0.6713
57027SOL     OW81394   5.583  11.234   4.116 -0.2186 -0.5141  0.2793
57027SOL    HW181395   5.543  11.171   4.057 -0.3242  0.6491 -0.9446
57027SOL    HW281396   5.525  11.236   4.193 -1.2323 -0.5388 -0.4721
57028SOL     OW81397   8.785  11.375   4.098 -0.6460  0.6068  0.3947
57028SOL    HW181398   8.844  11.406   4.029  1.1612 -0.8038  1.2103
57028SOL    HW281399   8.807  11.429   4.174  1.4846 -1.4938  1.4051
57029SOL     OW81400   8.509   3.780   3.914  0.3577 -0.3579  0.3588
57029SOL    HW181401   8.511   3.693   3.874  0.2683 -0.1474 -0.1036
57029SOL    HW281402   8.421   3.788   3.951 -0.4674  0.4325 -1.6199
57030SOL     OW81403   9.468  11.769   8.650  0.1164  0.3649  0.3088
57030SOL    HW181404   9.440  11.679   8.665 -0.9557  0.7382  0.6418
57030SOL    HW281405   9.537  11.762   8.584 -0.6195 -0.6180 -0.3864
57031SOL     OW81406  11.854   9.109   3.337  0.4056 -0.6022  0.1139
57031SOL    HW181407  11.901   9.119   3.420 -0.5523 -0.7939  0.6936
57031SOL    HW281408  11.784   9.047   3.357 -2.3154  2.2849  0.2786
57032SOL     OW81409   0.230   1.058  10.884 -0.3737 -0.0205  0.2961
57032SOL    HW181410   0.172   1.066  10.959 -0.3042  0.2155  0.3238
57032SOL    HW281411   0.224   1.143  10.840 -2.5174 -0.9729 -1.4905
57033SOL     OW81412   0.317  10.932   9.839 -0.4300 -0.3559  0.2489
57033SOL    HW181413   0.379  11.004   9.849  0.0427 -0.7804  0.4257
57033SOL    HW281414   0.279  10.944   9.752  1.3966 -1.2511 -0.7210
57034SOL     OW81415   7.350   1.640   8.634 -0.2330 -0.0859 -0.5202
57034SOL    HW181416   7.391   1.672   8.715 -1.0164  1.9579 -0.8701
57034SOL    HW281417   7.362   1.545   8.637  0.5101  0.0203  1.5653
57035SOL     OW81418   3.326   8.594   3.983 -0.1457 -0.3623 -0.4422
57035SOL    HW181419   3.298   8.511   3.945 -1.2401  0.5799 -1.8144
57035SOL    HW281420   3.270   8.660   3.941  0.6928  1.0738  0.5893
57036SOL     OW81421   3.792   7.805   5.298  0.1009 -0.4352 -0.7120
57036SOL    HW181422   3.838   7.822   5.380 -0.9598  0.4969 -0.2805
57036SOL    HW281423   3.742   7.725   5.313  0.2551 -0.5122 -0.6084
57037SOL     OW81424   0.673   2.418   3.844  0.1716 -0.0223 -0.6337
57037SOL    HW181425   0.693   2.456   3.758 -1.1514  3.5725  0.4568
57037SOL    HW281426   0.751   2.437   3.897  0.4602 -1.0848 -0.6462
57038SOL     OW81427   4.366   4.125   6.000  0.3135  0.2446  0.5512
57038SOL    HW181428   4.274   4.107   5.981  0.7311 -0.8926 -0.5461
57038SOL    HW281429   4.374   4.220   5.992 -0.6743  0.3100  0.2025
57039SOL     OW81430  12.071   3.374   2.258  0.4388  0.0248 -0.0954
57039SOL    HW181431  12.116   3.307   2.309 -1.8923 -1.1380  0.5610
57039SOL    HW281432  12.080   3.346   2.167  0.9293 -0.2293  0.0289
57040SOL     OW81433   8.982   8.845   9.451  0.0049 -0.0157  0.1725
57040SOL    HW181434   8.945   8.932   9.463  0.4608  0.1829  0.1913
57040SOL    HW281435   9.006   8.817   9.539 -0.1754 -0.1722  0.1705
57041SOL     OW81436   8.314   4.829   6.093  0.2437  0.0901 -0.1426
57041SOL    HW181437   8.240   4.797   6.041  1.0632 -2.3451  0.0580
57041SOL    HW281438   8.326   4.920   6.066 -0.0194 -0.7508 -3.4256
57042SOL     OW81439   1.874  12.665   3.105  0.1838  0.2340 -0.4513
57042SOL    HW181440   1.959  12.703   3.126 -0.2519  1.0023 -0.0451
57042SOL    HW281441   1.849  12.617   3.184  1.3251 -2.0936 -1.3895
57043SOL     OW81442   4.817   0.917   6.921 -0.3014 -0.0405  0.0980
57043SOL    HW181443   4.908   0.949   6.920 -0.7990  1.5060  1.3692
57043SOL    HW281444   4.781   0.949   6.838 -0.3248  1.3973  0.6303
57044SOL     OW81445   4.854  12.850   6.918  0.5474 -0.3546 -0.3931
57044SOL    HW181446   4.868  12.886   6.830  3.2582 -1.1122 -0.3689
57044SOL    HW281447   4.829  12.925   6.971  1.2420  0.5748 -1.3390
57045SOL     OW81448   3.831   5.840   4.663  0.0321 -0.1172  0.4816
57045SOL    HW181449   3.884   5.878   4.733  0.9772  0.9518 -0.7703
57045SOL    HW281450   3.866   5.878   4.583 -0.5928 -1.8029 -0.6473
57046SOL     OW81451   9.662   5.534   6.589  0.3935 -0.1512  0.6584
57046SOL    HW181452   9.665   5.598   6.518  2.2137 -1.9064 -0.9696
57046SOL    HW281453   9.738   5.554   6.643  1.4195 -1.3083 -0.2871
57047SOL     OW81454   9.217   1.630  12.289 -0.7023 -0.1232 -0.1921
57047SOL    HW181455   9.217   1.538  12.262 -0.8569  0.4841 -2.5232
57047SOL    HW281456   9.306   1.659  12.273 -0.0307 -0.3643  2.6921
57048SOL     OW81457   9.486   1.138   1.274 -0.4036  0.2798  0.4696
57048SOL    HW181458   9.439   1.197   1.332 -1.0421 -0.0682  0.3057
57048SOL    HW281459   9.499   1.189   1.193 -1.1437  0.1236  0.2503
57049SOL     OW81460  12.133   3.334  12.882  0.5295  0.2633 -0.5564
57049SOL    HW181461  12.085   3.402  12.835  0.0334  0.3983  0.1296
57049SOL    HW281462  12.095   3.252  12.851  0.4435  0.3351 -0.6415
57050SOL     OW81463   3.165   7.983   6.351 -0.2064  0.4735  0.3474
57050SOL    HW181464   3.132   8.064   6.390 -0.0481  1.9547 -2.3172
57050SOL    HW281465   3.094   7.954   6.293  0.0958 -0.8102  0.6024
57051SOL     OW81466   3.044   5.373   0.910 -0.1357  0.1647 -0.0305
57051SOL    HW181467   3.129   5.366   0.953 -0.3623  1.9683  0.7962
57051SOL    HW281468   3.009   5.284   0.909  0.5564 -0.1687  2.1164
57052SOL     OW81469   4.935   2.865  10.129  0.0806 -0.3781 -0.1331
57052SOL    HW181470   4.951   2.959  10.136 -1.8338  0.0579 -0.7762
57052SOL    HW281471   5.000   2.824  10.185  1.1272  1.3186 -0.0635
57053SOL     OW81472   6.631   7.373   6.312  0.3148 -0.5930  0.3157
57053SOL    HW181473   6.697   7.416   6.259  1.0592 -0.6118  1.1989
57053SOL    HW281474   6.644   7.280   6.296  2.7403 -0.8297  2.9347
57054SOL     OW81475   5.724   9.706   1.600  0.3450 -0.7608 -0.2356
57054SOL    HW181476   5.759   9.662   1.677 -0.5684 -0.3565  0.4441
57054SOL    HW281477   5.668   9.641   1.558  0.9976 -1.0453 -0.6824
57055SOL     OW81478   2.074  12.287   5.964  0.0451 -0.3099  0.5229
57055SOL    HW181479   2.062  12.298   6.058  0.1450 -0.2038  0.5248
57055SOL    HW281480   2.165  12.259   5.955 -0.8535 -3.6955  0.7073
57056SOL     OW81481   5.281  11.427   9.899  0.4332 -0.0110  0.3103
57056SOL    HW181482   5.330  11.447   9.979 -0.9671 -0.1025  1.2451
57056SOL    HW281483   5.194  11.401   9.931 -0.8980  2.1135 -1.3234
57057SOL     OW81484   8.084   6.782   4.507 -0.2539  0.0896  0.0006
57057SOL    HW181485   8.173   6.815   4.494  0.0093 -0.8013 -0.5646
57057SOL    HW281486   8.060   6.810   4.596  0.7326  0.0257  0.2971
57058SOL     OW81487   0.378   6.017  10.153 -0.1960 -0.0061 -0.1768
57058SOL    HW181488   0.401   6.086  10.090  0.7435 -0.1972 -0.0539
57058SOL    HW281489   0.443   5.948  10.138  0.6481  0.3450  1.6367
57059SOL     OW81490   1.962   0.152  12.060  0.0350 -0.0691 -0.0245
57059SOL    HW181491   1.970   0.200  11.977 -1.8876  2.3510  1.0735
57059SOL    HW281492   2.032   0.188  12.115 -0.2473  0.1289  0.2039
57060SOL     OW81493   5.582   3.690   3.498 -0.0624  0.3438  0.5861
57060SOL    HW181494   5.486   3.683   3.504 -0.0783 -0.3848 -0.1934
57060SOL    HW281495   5.614   3.610   3.539  0.1172 -0.3989 -0.9213
57061SOL     OW81496   8.355   0.464  12.323  0.5175 -0.5804  0.1657
57061SOL    HW181497   8.284   0.440  12.263  0.9638 -1.1077 -0.1624
57061SOL    HW281498   8.425   0.497  12.266 -0.3672  2.3802  0.6366
57062SOL     OW81499   3.625   2.652  11.264  0.1250 -0.0170 -0.4055
57062SOL    HW181500   3.627   2.557  11.256 -1.8146 -0.1818  0.4558
57062SOL    HW281501   3.704   2.674  11.312  1.2897 -1.0370 -1.7750
57063SOL     OW81502   7.362   1.383  12.749  0.1811  0.1502  0.0961
57063SOL    HW181503   7.393   1.466  12.712 -0.4537  0.0659 -0.6505
57063SOL    HW281504   7.269   1.397  12.763  0.3478  0.0556  1.3747
57064SOL     OW81505  11.087  10.662   6.131  0.0706 -0.0357 -0.1870
57064SOL    HW181506  11.067  10.595   6.066 -1.5904  0.7682 -0.5443
57064SOL    HW281507  11.148  10.721   6.087  0.7653 -0.7354 -0.1997
57065SOL     OW81508  10.149   1.814  11.454  0.1245  0.1031  0.1578
57065SOL    HW181509  10.104   1.898  11.461 -2.5341 -1.3051  1.5151
57065SOL    HW281510  10.206   1.823  11.378 -0.2896  3.0091  0.0941
57066SOL     OW81511   0.630   2.008  11.224  0.6789  0.1813 -0.2914
57066SOL    HW181512   0.560   2.027  11.162  0.8504 -1.4435 -1.0183
57066SOL    HW281513   0.624   2.079  11.289 -0.8640  0.7228 -0.9765
57067SOL     OW81514   8.700   8.741  11.501 -0.2895 -0.0077  0.1758
57067SOL    HW181515   8.635   8.677  11.471  0.8922 -0.9120 -0.5296
57067SOL    HW281516   8.717   8.796  11.424  2.1443 -1.8213 -0.7019
57068SOL     OW81517   2.824   9.991   0.535  0.0620  0.4493  0.3523
57068SOL    HW181518   2.764  10.020   0.603 -0.1641  2.0251 -0.4609
57068SOL    HW281519   2.838  10.069   0.481  1.7194 -0.2522 -0.3041
57069SOL     OW81520   7.265   5.865   3.826  0.4171 -0.5098  0.1497
57069SOL    HW181521   7.309   5.941   3.866  2.5174 -1.2477 -0.5819
57069SOL    HW281522   7.318   5.790   3.853 -1.7369 -1.7954  1.0335
57070SOL     OW81523  10.526   7.709   2.248  0.7140 -0.4907  0.1060
57070SOL    HW181524  10.600   7.705   2.187 -0.1631 -0.8622 -0.9622
57070SOL    HW281525  10.477   7.787   2.222  0.1391 -0.8490  0.0916
57071SOL     OW81526  10.503  11.150   6.885  0.2640  0.7903  0.5737
57071SOL    HW181527  10.584  11.171   6.931  1.1836  1.8077 -1.3894
57071SOL    HW281528  10.526  11.079   6.826 -0.9500 -0.6412  1.7199
57072SOL     OW81529  11.318  10.497   8.132 -0.3076  0.0443  0.1196
57072SOL    HW181530  11.279  10.553   8.066  1.0939  0.1417 -0.6540
57072SOL    HW281531  11.378  10.553   8.180 -1.7106  0.1193  1.8996
57073SOL     OW81532   3.864   1.914   2.476 -0.1388  0.3507 -0.3571
57073SOL    HW181533   3.788   1.865   2.443 -0.3331  1.5043 -1.6803
57073SOL    HW281534   3.926   1.846   2.504 -0.8395 -0.6310 -1.1344
57074SOL     OW81535   4.372   0.734  12.413  0.1328 -0.5045 -0.1729
57074SOL    HW181536   4.325   0.696  12.488 -1.6261 -0.2818 -1.1060
57074SOL    HW281537   4.303   0.774  12.360  1.3840 -0.3252 -1.7202
57075SOL     OW81538   0.262   0.548  11.685 -0.1196  0.5299  0.1628
57075SOL    HW181539   0.190   0.501  11.644 -0.9413  1.5814  0.3531
57075SOL    HW281540   0.257   0.525  11.778  1.2968 -1.2821 -0.1625
57076SOL     OW81541  12.053  11.766  12.639  0.0276 -0.1955 -0.5001
57076SOL    HW181542  12.048  11.769  12.734  0.2859  0.5303 -0.5014
57076SOL    HW281543  12.048  11.858  12.612 -0.0543 -0.3940 -1.1857
57077SOL     OW81544   0.228   1.408   5.440 -0.7954  0.1339  0.0118
57077SOL    HW181545   0.267   1.333   5.395 -0.8692  0.0571  0.0739
57077SOL    HW281546   0.138   1.413   5.407 -0.9780 -0.1750  0.4493
57078SOL     OW81547   0.211   1.237   3.465 -0.1884 -0.1472  0.4257
57078SOL    HW181548   0.272   1.217   3.536  1.0277  1.0310 -0.2512
57078SOL    HW281549   0.128   1.253   3.510 -0.3090 -2.7013  1.2809
57079SOL     OW81550  10.974   5.976   8.777 -0.1388  0.9545  0.8558
57079SOL    HW181551  11.048   6.028   8.746 -0.1346  0.6014  0.2644
57079SOL    HW281552  10.942   6.024   8.854 -0.8953  2.5278 -0.3708
57080SOL     OW81553   2.469  11.247   7.188 -0.1102 -0.1248  0.0095
57080SOL    HW181554   2.450  11.155   7.170 -0.3234  0.0347 -0.5912
57080SOL    HW281555   2.539  11.269   7.126  0.8978 -0.2432  1.0592
57081SOL     OW81556  12.858   6.788   0.799  0.6575  0.3284  0.4406
57081SOL    HW181557  12.930   6.811   0.741  0.3247  0.4053  0.0480
57081SOL    HW281558  12.786   6.845   0.770  0.0042 -0.7606 -0.1429
57082SOL     OW81559   2.137  12.356   0.857  0.1981  0.1974  0.0187
57082SOL    HW181560   2.161  12.271   0.893 -0.2043 -0.1526 -0.5353
57082SOL    HW281561   2.209  12.378   0.799 -0.5493 -0.6215 -1.2543
57083SOL     OW81562  12.664   6.981  10.606  0.1485 -0.5610 -0.0744
57083SOL    HW181563  12.574   6.987  10.575  0.1296  0.9753  0.2306
57083SOL    HW281564  12.697   7.070  10.603  1.6687 -1.0983 -0.1693
57084SOL     OW81565  10.950   6.793   5.698  0.4714  0.1626  0.3773
57084SOL    HW181566  10.972   6.704   5.671 -0.0303  0.1924 -0.1310
57084SOL    HW281567  10.887   6.824   5.633  2.2875  1.7053 -0.7642
57085SOL     OW81568   6.163   0.773  10.833  0.7172  0.0911  0.1095
57085SOL    HW181569   6.172   0.767  10.928  1.2546  0.4800  0.0903
57085SOL    HW281570   6.245   0.813  10.804  0.4477  0.2198 -0.4919
57086SOL     OW81571   7.388   9.155   4.807  0.3651 -0.2608 -0.2798
57086SOL    HW181572   7.411   9.143   4.715  0.6147  0.8143 -0.3736
57086SOL    HW281573   7.320   9.089   4.823 -2.5109  1.9516 -2.3122
57087SOL     OW81574   6.363  12.789  12.643  0.6013  0.1982  0.6189
57087SOL    HW181575   6.335  12.772  12.733 -0.9332  0.3370  0.1951
57087SOL    HW281576   6.373  12.701  12.605 -0.5985  0.1565  0.3905
57088SOL     OW81577   2.286   1.624   1.758  0.3511 -0.0296 -0.1050
57088SOL    HW181578   2.319   1.571   1.831  0.5660  0.6606  0.3092
57088SOL    HW281579   2.203   1.659   1.791  0.4820  0.3394 -0.1682
57089SOL     OW81580   4.968   6.508   6.112  0.8812  0.0349  0.2960
57089SOL    HW181581   4.962   6.545   6.024 -1.1080 -0.8700 -0.0007
57089SOL    HW281582   4.893   6.449   6.118  0.6333  0.5140  2.8065
57090SOL     OW81583   1.484   3.860   1.055  0.6372 -0.3239 -0.6194
57090SOL    HW181584   1.526   3.939   1.021  1.1920 -0.2063  0.2933
57090SOL    HW281585   1.445   3.888   1.138  1.6974 -1.2078  0.2187
57091SOL     OW81586   4.938   5.327   7.721  0.6370 -0.1309  0.3934
57091SOL    HW181587   4.865   5.310   7.782  0.2415 -1.6197 -0.4476
57091SOL    HW281588   4.905   5.397   7.664 -0.6595 -1.5741 -0.7281
57092SOL     OW81589   1.730   9.091   5.145 -0.0561 -0.9095  0.1965
57092SOL    HW181590   1.677   9.021   5.107 -0.7553  0.4748 -1.5631
57092SOL    HW281591   1.758   9.142   5.069  2.4742 -0.6545  1.2312
57093SOL     OW81592   1.839   8.927  10.365  0.1482 -0.2681 -0.5028
57093SOL    HW181593   1.907   8.884  10.313 -0.6130 -1.1673 -0.7700
57093SOL    HW281594   1.794   8.985  10.303 -1.3775 -2.0352 -1.1562
57094SOL     OW81595   3.148   4.713   0.450  0.0933  0.1901 -0.2534
57094SOL    HW181596   3.219   4.701   0.386  0.9685 -0.9290  0.8712
57094SOL    HW281597   3.186   4.684   0.533 -1.8268 -0.9325  0.2953
57095SOL     OW81598   5.916   8.303   2.419  0.2434  0.4990 -0.0376
57095SOL    HW181599   5.868   8.272   2.342 -0.1410 -0.3077  0.5137
57095SOL    HW281600   5.988   8.241   2.428 -0.6656 -0.4446  1.2118
57096SOL     OW81601  12.099   9.540   5.994  0.4184 -0.1979 -0.2456
57096SOL    HW181602  12.103   9.633   5.972 -0.2224 -0.7382 -3.0298
57096SOL    HW281603  12.148   9.497   5.924 -0.3441 -2.0416  0.2951
57097SOL     OW81604   7.131   1.714   0.544  0.4603  0.0340  0.1271
57097SOL    HW181605   7.157   1.761   0.623  1.1716 -1.1727  0.6488
57097SOL    HW281606   7.098   1.630   0.576 -0.5918  0.0827 -0.7856
57098SOL     OW81607   8.422   9.791   9.570  0.0525  0.5552 -0.1463
57098SOL    HW181608   8.430   9.863   9.633  1.2981 -0.5539  1.0389
57098SOL    HW281609   8.501   9.739   9.583  0.4427  0.3508 -2.7992
57099SOL     OW81610   5.970  11.406  12.255  0.4107 -0.1377  0.1223
57099SOL    HW181611   6.062  11.383  12.263  0.5806  0.3549 -0.3484
57099SOL    HW281612   5.929  11.329  12.215  0.1940 -1.2353  2.2951
57100SOL     OW81613   6.495   4.666   5.031  0.0750  0.0275  0.2134
57100SOL    HW181614   6.540   4.584   5.051 -0.8251 -1.0457 -1.8168
57100SOL    HW281615   6.443   4.685   5.109 -0.2501 -1.7361  0.4675
57101SOL     OW81616   6.518   4.848   6.183 -0.1142 -0.0485 -0.0237
57101SOL    HW181617   6.452   4.902   6.227  0.7646  1.5613 -0.6197
57101SOL    HW281618   6.497   4.759   6.209 -2.1429  0.4825  0.3050
57102SOL     OW81619   7.904   4.646   7.055  0.0189  0.1930  0.2415
57102SOL    HW181620   7.862   4.606   7.131  2.4449 -0.0833  1.5556
57102SOL    HW281621   7.865   4.733   7.049  0.8325  0.8532  2.8668
57103SOL     OW81622   6.912   0.511   9.644 -0.0271 -0.3604 -0.3105
57103SOL    HW181623   6.913   0.446   9.574 -0.4490  0.5135 -1.1627
57103SOL    HW281624   6.970   0.581   9.612 -1.6398  0.8769 -0.6501
57104SOL     OW81625   3.599   0.407  10.493 -0.1224  0.1596  0.3684
57104SOL    HW181626   3.580   0.402  10.587  0.8255  1.3103  0.6511
57104SOL    HW281627   3.514   0.424  10.452 -0.5039 -0.0848  1.0424
57105SOL     OW81628   3.735   7.976  11.331 -0.1770  0.1277  0.2697
57105SOL    HW181629   3.702   7.973  11.421  2.5366  1.3075  1.4014
57105SOL    HW281630   3.812   7.919  11.332  0.5526  1.0463 -1.0006
57106SOL     OW81631  12.684  12.398   5.460 -0.0019  0.5977 -0.3195
57106SOL    HW181632  12.607  12.427   5.412  1.4002  1.5473 -2.1458
57106SOL    HW281633  12.728  12.337   5.400  1.1298  0.7617  0.3076
57107SOL     OW81634   4.695   1.247   0.381 -0.2224  0.2723 -0.0686
57107SOL    HW181635   4.638   1.201   0.441 -1.0695  0.7235 -0.5139
57107SOL    HW281636   4.776   1.196   0.380 -0.1347  0.3486  1.5487
57108SOL     OW81637  11.738   1.111   7.985  0.4332 -0.2442  0.0114
57108SOL    HW181638  11.724   1.032   7.932 -0.4679 -0.5691  0.7083
57108SOL    HW281639  11.751   1.078   8.074  1.5984  0.3157  0.0581
57109SOL     OW81640   2.289   2.732   3.126 -0.3496 -0.0223 -0.5766
57109SOL    HW181641   2.225   2.799   3.102 -1.4485 -0.5437  0.7627
57109SOL    HW281642   2.254   2.693   3.206  0.7935 -1.4956 -0.7556
57110SOL     OW81643   4.273   7.805   4.496 -0.2807  0.5154  0.7104
57110SOL    HW181644   4.336   7.876   4.489  0.7431 -0.3162  1.1869
57110SOL    HW281645   4.264   7.790   4.590  1.3424 -1.5212  0.6054
57111SOL     OW81646   8.765   7.315   3.821 -0.3215  0.2646  0.0091
57111SOL    HW181647   8.714   7.372   3.763  0.7735  0.7132 -0.5384
57111SOL    HW281648   8.843   7.366   3.842  1.4687 -1.5385 -1.7388
57112SOL     OW81649  11.792  10.180   1.831 -0.0361 -0.2962 -0.1210
57112SOL    HW181650  11.829  10.227   1.906  0.0590  0.5944 -0.7187
57112SOL    HW281651  11.744  10.107   1.870 -1.6915  1.3005  0.9282
57113SOL     OW81652  11.130   7.654   6.865  0.6267  0.6180 -0.4612
57113SOL    HW181653  11.090   7.653   6.952 -0.8279  0.1816 -1.1046
57113SOL    HW281654  11.062   7.689   6.808  1.5070  0.7397 -1.4584
57114SOL     OW81655  10.294   1.883  11.194  0.9972 -0.2911 -0.2430
57114SOL    HW181656  10.289   1.947  11.122 -0.5445 -1.2628 -1.0552
57114SOL    HW281657  10.368   1.827  11.171  0.7212 -0.3910 -0.9179
57115SOL     OW81658   9.020   0.105  11.960 -0.0162 -0.1596 -0.4997
57115SOL    HW181659   8.999   0.190  11.999  0.0202 -1.7458  3.3939
57115SOL    HW281660   8.935   0.069  11.934 -0.1913  0.4552 -0.7994
57116SOL     OW81661  10.637   0.332   3.150  0.3373 -0.4635 -0.6519
57116SOL    HW181662  10.617   0.304   3.240  0.7682 -0.3361 -0.5142
57116SOL    HW281663  10.565   0.391   3.127  0.8270  0.4256  0.0423
57117SOL     OW81664  12.502   8.161   0.106 -0.5064 -0.4524 -0.0119
57117SOL    HW181665  12.487   8.067   0.112 -0.2207 -0.4190  1.5947
57117SOL    HW281666  12.439   8.200   0.168  0.5878  0.2670  0.6840
57118SOL     OW81667   0.232   6.379   8.250  0.2431  0.2140  0.6912
57118SOL    HW181668   0.271   6.357   8.165 -1.3886 -0.4916  0.0736
57118SOL    HW281669   0.294   6.345   8.314 -0.1352 -2.5876 -0.2493
57119SOL     OW81670  12.756   6.171   2.444 -0.1628  0.1465  0.4696
57119SOL    HW181671  12.709   6.089   2.458 -0.5610  0.2346 -0.3231
57119SOL    HW281672  12.718   6.208   2.365  0.1985  0.9716  0.6679
57120SOL     OW81673   1.442   7.945   7.665 -0.1853  0.3119  0.1591
57120SOL    HW181674   1.500   8.021   7.670 -1.0729  0.9834  0.5164
57120SOL    HW281675   1.407   7.936   7.753 -0.3560 -0.2954  0.0317
57121SOL     OW81676   7.866   9.122   9.599  0.2739  0.4464  0.1675
57121SOL    HW181677   7.856   9.192   9.663 -0.3406 -0.6867  1.3653
57121SOL    HW281678   7.787   9.126   9.546  0.9726  1.6536 -0.8276
57122SOL     OW81679   0.629   1.797   5.508 -0.4455 -0.1913 -0.1408
57122SOL    HW181680   0.652   1.862   5.575  1.5184 -1.3787  0.4487
57122SOL    HW281681   0.569   1.738   5.552 -2.0522  1.0386 -0.6067
57123SOL     OW81682   7.730   9.585  12.866 -0.3161 -0.1519  0.3043
57123SOL    HW181683   7.711   9.667  12.820 -0.0346 -0.3912 -0.2433
57123SOL    HW281684   7.736   9.610  12.958 -0.7637  0.3517  0.2000
57124SOL     OW81685  10.706  12.002   2.438  0.1907  0.1707 -0.2595
57124SOL    HW181686  10.695  11.907   2.442  0.7860  0.1411  2.2145
57124SOL    HW281687  10.784  12.014   2.384  0.7561 -0.8404  0.2987
57125SOL     OW81688   8.024   5.345   6.099  0.5601  0.6690 -0.5091
57125SOL    HW181689   8.086   5.348   6.171 -0.7602  0.8964  0.6477
57125SOL    HW281690   8.045   5.264   6.052  1.7980  0.8151 -0.2161
57126SOL     OW81691   5.010   2.908   4.901  0.2908  0.0216 -0.9866
57126SOL    HW181692   4.956   2.953   4.836 -1.0937  0.4566  0.4074
57126SOL    HW281693   5.063   2.846   4.850 -1.9456 -0.8520 -2.3805
57127SOL     OW81694   2.208   5.955   4.100 -0.3605 -0.4311  0.1338
57127SOL    HW181695   2.153   5.935   4.177 -0.7740  0.2877  0.0329
57127SOL    HW281696   2.165   6.030   4.059 -0.1383 -0.8164 -0.8077
57128SOL     OW81697   8.193   3.783   6.223  0.3180  0.1706 -0.5456
57128SOL    HW181698   8.263   3.812   6.282  0.9912 -0.9760 -0.7501
57128SOL    HW281699   8.212   3.827   6.141  0.4924  0.2926 -0.4415
57129SOL     OW81700  11.108   2.436   5.617 -0.3426 -0.2491 -0.1399
57129SOL    HW181701  11.043   2.484   5.667  2.2672  1.0738  2.2539
57129SOL    HW281702  11.104   2.346   5.651 -2.6351 -0.9202 -1.9453
57130SOL     OW81703  11.410   8.726   0.160 -0.5916 -0.5327 -0.2320
57130SOL    HW181704  11.449   8.802   0.205 -2.7813 -0.2195  1.2725
57130SOL    HW281705  11.451   8.726   0.073  0.7371  1.3215  0.3299
57131SOL     OW81706  11.462   9.109   6.599  0.1895  0.3376 -0.0008
57131SOL    HW181707  11.514   9.089   6.677 -0.2445  0.8881  0.4403
57131SOL    HW281708  11.383   9.151   6.633  0.2575  1.1130 -0.7756
57132SOL     OW81709   4.434  11.737   9.045  0.4610  0.3085 -1.0423
57132SOL    HW181710   4.392  11.785   8.974  0.5021 -0.0944 -1.3407
57132SOL    HW281711   4.506  11.690   9.002 -0.8570 -1.7184 -1.1425
57133SOL     OW81712   6.610   5.912   2.690 -0.3153  0.1986 -0.7205
57133SOL    HW181713   6.551   5.904   2.615  1.6329 -0.7778 -2.2297
57133SOL    HW281714   6.606   6.005   2.713 -2.0284  0.2454 -1.0930
57134SOL     OW81715   5.510   1.349   6.232 -0.1629 -0.7129  0.6570
57134SOL    HW181716   5.526   1.408   6.306  1.3185  0.2105 -0.3507
57134SOL    HW281717   5.592   1.299   6.223 -0.4974 -1.1446 -0.0762
57135SOL     OW81718   0.066   6.302  10.359 -0.0067 -0.4958  0.5057
57135SOL    HW181719   0.011   6.332  10.431 -2.1514  1.7562 -1.8582
57135SOL    HW281720   0.137   6.365  10.355 -2.2319  2.1181 -1.8356
57136SOL     OW81721   4.087   9.495   3.823 -0.0955 -0.1070 -0.7144
57136SOL    HW181722   4.120   9.457   3.742  0.4844 -1.0274 -0.0756
57136SOL    HW281723   4.063   9.420   3.877 -0.3454  0.4779  0.0144
57137SOL     OW81724   4.148   0.673   6.356  0.0186  0.9009  0.5983
57137SOL    HW181725   4.164   0.668   6.262  0.3331  1.9604  0.5824
57137SOL    HW281726   4.202   0.603   6.393 -0.5344  0.1136 -0.0460
57138SOL     OW81727   8.010   0.019   0.750 -0.5326 -0.2391 -0.8562
57138SOL    HW181728   8.023  -0.040   0.676 -0.4477 -0.1082 -0.9463
57138SOL    HW281729   7.917   0.011   0.772 -0.2057 -1.6004  0.1452
57139SOL     OW81730   2.642   9.111   3.068 -0.0280  0.1377 -0.5782
57139SOL    HW181731   2.603   9.027   3.093  0.6391  0.1284  0.5145
57139SOL    HW281732   2.654   9.104   2.974  1.7567 -1.7882 -0.2862
57140SOL     OW81733   5.693  10.237  10.007 -0.3350  0.2131  0.5034
57140SOL    HW181734   5.755  10.288  10.059  1.0790  1.6755 -2.3824
57140SOL    HW281735   5.607  10.262  10.040  0.4003  2.9991  0.5355
57141SOL     OW81736   1.297   2.996   5.725 -0.0612 -0.0301 -0.3369
57141SOL    HW181737   1.321   2.951   5.645 -0.1518  0.8636 -0.8815
57141SOL    HW281738   1.240   2.934   5.771  2.7739 -2.0136  0.7754
57142SOL     OW81739  12.474   7.712   7.176  0.0627  0.1922  0.1377
57142SOL    HW181740  12.547   7.686   7.119 -0.2223  0.9444 -0.5863
57142SOL    HW281741  12.413   7.639   7.170  0.3754 -0.0684  0.0762
57143SOL     OW81742   2.097   3.617  10.207  0.1135 -0.4328 -0.5323
57143SOL    HW181743   2.031   3.554  10.236 -0.1329 -0.1436 -0.4505
57143SOL    HW281744   2.178   3.588  10.247 -0.2653  0.0947  0.6593
57144SOL     OW81745   7.558   7.006   9.032 -0.2827  0.3004  0.2547
57144SOL    HW181746   7.651   7.030   9.037 -0.1988  0.3586 -1.1561
57144SOL    HW281747   7.513   7.087   9.008 -0.6714  0.2172  0.6951
57145SOL     OW81748   3.348  11.127  10.048 -0.3093  0.3069  0.0566
57145SOL    HW181749   3.389  11.059   9.995 -0.0947  1.1632 -0.9124
57145SOL    HW281750   3.412  11.148  10.116 -0.3426 -0.3844  0.3041
57146SOL     OW81751  11.654   0.273   8.545 -0.6799 -0.1522  0.2451
57146SOL    HW181752  11.736   0.236   8.579 -0.0616 -0.1697 -1.2104
57146SOL    HW281753  11.650   0.243   8.455 -1.2875  1.5034 -0.3072
57147SOL     OW81754   2.858  11.554   6.136 -0.1397  0.7400 -0.4872
57147SOL    HW181755   2.831  11.540   6.227 -2.3439  0.9605 -1.0587
57147SOL    HW281756   2.861  11.649   6.126  0.9346  0.7253 -0.4445
57148SOL     OW81757   9.060   9.047   0.671  0.1429  0.2822  0.4040
57148SOL    HW181758   9.142   9.096   0.671  0.4587 -0.1672 -1.4887
57148SOL    HW281759   8.992   9.114   0.681  0.6666  0.8051  0.5122
57149SOL     OW81760   5.243  10.650   0.321  0.2831 -0.1579  0.2570
57149SOL    HW181761   5.154  10.683   0.324  0.2373 -0.2302 -0.2403
57149SOL    HW281762   5.261  10.638   0.228  0.1797 -1.8545  0.4329
57150SOL     OW81763   0.032  10.040   2.120  0.1037  0.6024 -0.3235
57150SOL    HW181764   0.069  10.116   2.165  0.9530  1.2341 -2.0134
57150SOL    HW281765   0.107   9.983   2.103 -0.5703 -0.8098  1.2117
57151SOL     OW81766   7.037   6.478   3.154  0.1431 -0.2741 -0.4067
57151SOL    HW181767   7.071   6.418   3.220 -1.4366  0.5315  1.2586
57151SOL    HW281768   6.945   6.452   3.144 -0.3841  1.3844 -0.1572
57152SOL     OW81769  11.445   7.211   1.145 -0.2144 -0.4945 -0.4191
57152SOL    HW181770  11.476   7.128   1.182  0.7426 -0.2187 -0.5901
57152SOL    HW281771  11.429   7.267   1.222 -0.4501 -0.6880 -0.3250
57153SOL     OW81772   0.077  11.703  12.289  0.2571  0.2246  0.2214
57153SOL    HW181773   0.087  11.708  12.194  0.3624 -0.2309  0.2098
57153SOL    HW281774   0.009  11.637  12.303 -0.0590  0.5859  0.4496
57154SOL     OW81775   7.332   7.929  10.021 -0.2606 -0.1247  0.3404
57154SOL    HW181776   7.402   7.981   9.982 -1.4541  0.9736 -0.4088
57154SOL    HW281777   7.251   7.971   9.991 -1.2521 -1.5554  0.9002
57155SOL     OW81778  11.735   4.619   6.697 -0.2272  0.3953  0.3692
57155SOL    HW181779  11.799   4.685   6.671  0.3794  0.0365  0.9280
57155SOL    HW281780  11.686   4.659   6.769  0.1193  0.2498  0.6865
57156SOL     OW81781   6.620  10.978   5.542 -0.1909  0.4432  0.0924
57156SOL    HW181782   6.545  10.928   5.510 -1.8573  1.2673  2.4449
57156SOL    HW281783   6.630  11.049   5.478 -1.1911  0.1115 -0.4593
57157SOL     OW81784   8.246  10.469   7.517  0.0721 -0.4741  0.1585
57157SOL    HW181785   8.172  10.486   7.575 -0.6243 -0.7587 -0.6270
57157SOL    HW281786   8.323  10.493   7.569 -0.5704 -0.0566  0.9438
57158SOL     OW81787   3.796   1.552   4.031 -0.2464 -0.6626 -0.2069
57158SOL    HW181788   3.794   1.552   3.936 -0.4752  1.0812 -0.2233
57158SOL    HW281789   3.715   1.595   4.057  0.5400  0.3013  0.7302
57159SOL     OW81790  12.761   7.551   2.293 -0.1197  0.6541 -0.1486
57159SOL    HW181791  12.852   7.551   2.321  0.3493  1.8442 -1.5692
57159SOL    HW281792  12.725   7.469   2.328  1.3686  0.3666  0.7794
57160SOL     OW81793   9.383   1.598   4.891 -0.0832 -0.3656 -0.0161
57160SOL    HW181794   9.418   1.684   4.912  0.0243 -0.8980  2.1881
57160SOL    HW281795   9.454   1.537   4.913 -0.2727 -1.0598 -1.2252
57161SOL     OW81796   8.405   3.355   1.520  0.0729  0.0315 -0.1520
57161SOL    HW181797   8.435   3.271   1.554  1.1014 -0.3027 -1.7427
57161SOL    HW281798   8.485   3.407   1.512 -0.2434  0.3853 -1.1764
57162SOL     OW81799   2.865   5.462  10.722 -0.0449 -0.5288  0.0830
57162SOL    HW181800   2.818   5.393  10.770 -1.5381  0.2891 -0.1535
57162SOL    HW281801   2.885   5.423  10.637  0.8436 -1.3067  0.6281
57163SOL     OW81802   9.689   9.126   3.803  0.0537  0.4687  0.0243
57163SOL    HW181803   9.773   9.144   3.760  0.3485 -2.7615 -1.0120
57163SOL    HW281804   9.626   9.126   3.731  0.1976 -2.8311 -0.2241
57164SOL     OW81805   6.778   0.681   4.130  0.6209 -0.3059  0.3744
57164SOL    HW181806   6.866   0.697   4.164  1.1898  1.4330 -1.6950
57164SOL    HW281807   6.792   0.648   4.041 -0.8351 -2.0005  0.7071
57165SOL     OW81808   7.804  12.782  11.210  0.3699  0.2426 -0.2018
57165SOL    HW181809   7.782  12.707  11.155 -0.1215  1.3769 -1.6435
57165SOL    HW281810   7.727  12.795  11.265 -1.1929  1.9035 -2.5876
57166SOL     OW81811   8.268  10.474  12.402  0.1818 -0.3618 -0.0424
57166SOL    HW181812   8.194  10.510  12.451 -0.5005  2.4226 -2.7823
57166SOL    HW281813   8.231  10.452  12.317  2.1238 -0.7253 -0.8357
57167SOL     OW81814   4.007  10.202   7.612 -0.0949 -0.2891 -0.6260
57167SOL    HW181815   3.957  10.243   7.541  0.9334 -0.2085 -1.3194
57167SOL    HW281816   4.031  10.116   7.578 -0.3980 -0.6219 -0.0060
57168SOL     OW81817   2.773   1.207  11.583 -0.2524 -0.5448 -0.2873
57168SOL    HW181818   2.780   1.152  11.660 -0.3431  1.7036  1.4360
57168SOL    HW281819   2.779   1.297  11.616 -1.0204  0.5509 -2.8083
57169SOL     OW81820   1.079   4.406   9.577  0.0648 -0.3092  0.4758
57169SOL    HW181821   1.112   4.398   9.666 -0.1885  0.6062  0.6599
57169SOL    HW281822   1.012   4.474   9.582  1.1838  0.9440 -0.7008
57170SOL     OW81823  10.098   9.471   1.930  0.1006 -0.3300 -0.2139
57170SOL    HW181824  10.033   9.444   1.866 -0.6080 -1.3879  0.8965
57170SOL    HW281825  10.060   9.446   2.014  2.0202 -1.1535  0.4637
57171SOL     OW81826   8.221   0.941  10.856  0.1619 -0.1596 -0.4984
57171SOL    HW181827   8.252   0.892  10.932 -1.0387 -0.6428 -0.2868
57171SOL    HW281828   8.195   0.873  10.794 -1.5505  0.1746 -0.1973
57172SOL     OW81829   4.627  10.591   4.668 -0.1264  0.3990  0.4007
57172SOL    HW181830   4.680  10.582   4.747 -0.1213 -0.9830  0.2647
57172SOL    HW281831   4.607  10.501   4.642  1.5964  0.6963 -2.3515
57173SOL     OW81832   4.058   8.341   0.592  0.9717  0.4370  0.1141
57173SOL    HW181833   4.101   8.377   0.514  0.7678  0.6561  0.1001
57173SOL    HW281834   4.088   8.396   0.664  2.0972 -0.4994  0.3859
57174SOL     OW81835   3.892   0.837   6.166 -0.8264 -0.1794  0.0266
57174SOL    HW181836   3.958   0.790   6.217 -0.7299  0.2360  0.2878
57174SOL    HW281837   3.878   0.782   6.089 -1.8230 -1.4068  1.0437
57175SOL     OW81838   5.474   1.920   7.399  0.2871  0.5289 -0.5314
57175SOL    HW181839   5.507   1.897   7.487  0.4564  2.5525 -0.0196
57175SOL    HW281840   5.470   1.836   7.353  0.9338 -0.4946  1.1591
57176SOL     OW81841  10.067   2.224  10.876 -0.0906  0.1629  0.0856
57176SOL    HW181842  10.117   2.243  10.955 -0.7367 -1.3554  0.9070
57176SOL    HW281843  10.022   2.305  10.855  0.3335  0.6677  1.0863
57177SOL     OW81844  11.572   5.780   2.944 -0.6153 -0.1428 -0.2746
57177SOL    HW181845  11.655   5.829   2.938 -0.3482 -0.3568  1.3085
57177SOL    HW281846  11.567   5.732   2.861  0.8831 -0.1722 -0.3808
57178SOL     OW81847   6.417   0.935   7.102 -0.2756  0.3123  0.3995
57178SOL    HW181848   6.375   0.864   7.150  1.4282 -1.3559 -0.4355
57178SOL    HW281849   6.489   0.893   7.055  0.8661  2.6321 -0.0737
57179SOL     OW81850   2.400   8.669   4.783 -0.1738 -0.4898 -0.4437
57179SOL    HW181851   2.490   8.662   4.752 -0.0590 -0.0067 -0.2210
57179SOL    HW281852   2.350   8.614   4.723  0.6648 -3.0777  1.0655
57180SOL     OW81853   9.878   3.577   6.218 -0.2742 -0.3087  0.3535
57180SOL    HW181854   9.841   3.516   6.154 -1.1208 -0.4744  0.9734
57180SOL    HW281855   9.804   3.633   6.243 -0.1126 -0.6090  1.5897
57181SOL     OW81856   4.534  12.569   4.930  0.5223  0.5347  0.3439
57181SOL    HW181857   4.553  12.632   4.860  0.6093 -0.4247 -0.5235
57181SOL    HW281858   4.557  12.484   4.893  0.5899 -0.0027  1.5611
57182SOL     OW81859   5.088  11.702  11.086 -0.3339  0.1405  1.1053
57182SOL    HW181860   5.113  11.663  11.002 -0.5361  0.4158  0.9132
57182SOL    HW281861   5.118  11.640  11.152 -1.8367 -1.0268  0.7615
57183SOL     OW81862  10.876   9.676   3.744 -0.0302 -0.0661 -0.1024
57183SOL    HW181863  10.851   9.690   3.835 -0.6150 -0.5587 -0.1832
57183SOL    HW281864  10.850   9.757   3.699 -1.3257 -0.4832 -0.1467
57184SOL     OW81865   8.765   2.471   7.393  0.3934 -0.7612  0.6312
57184SOL    HW181866   8.811   2.525   7.456  0.2381 -0.1847  0.2555
57184SOL    HW281867   8.804   2.493   7.308 -1.0627  0.3050  0.1941
57185SOL     OW81868   2.352  10.772   1.382 -0.2927  0.3096 -0.2555
57185SOL    HW181869   2.293  10.810   1.447  0.0991  0.3281  0.0988
57185SOL    HW281870   2.331  10.679   1.381 -0.9530  0.4621 -0.8020
57186SOL     OW81871  10.422   7.010   4.272 -0.2417 -0.4073  0.3625
57186SOL    HW181872  10.508   6.994   4.310 -0.8018 -1.9943  1.0346
57186SOL    HW281873  10.396   7.096   4.305  1.1470  0.1731  0.0034
57187SOL     OW81874  10.663   6.209   0.090  0.2307  0.5123 -0.4427
57187SOL    HW181875  10.711   6.291   0.079 -1.2033  1.1310 -2.6124
57187SOL    HW281876  10.702   6.149   0.026 -0.7778  0.4923 -1.0455
57188SOL     OW81877   5.951  12.708   4.141  0.6470 -0.0453  0.9131
57188SOL    HW181878   5.999  12.784   4.108  0.5427  0.7167  2.4113
57188SOL    HW281879   5.859  12.728   4.122  0.8106 -2.2795 -3.5418
57189SOL     OW81880   3.149   1.571   9.139  0.3656  0.1283  0.3312
57189SOL    HW181881   3.219   1.524   9.185 -0.5636 -0.4835  1.1606
57189SOL    HW281882   3.117   1.508   9.074 -0.3686 -0.1489  0.9349
57190SOL     OW81883   8.803   7.110   2.761 -0.2632 -0.2575  0.1257
57190SOL    HW181884   8.785   7.201   2.784  0.6476 -0.2094  0.7269
57190SOL    HW281885   8.833   7.070   2.842 -0.8637 -1.1623 -0.0821
57191SOL     OW81886   5.716   0.885  10.533 -0.0540 -0.3501 -0.1772
57191SOL    HW181887   5.696   0.971  10.570 -0.6742  0.0615 -1.4149
57191SOL    HW281888   5.768   0.841  10.601 -3.0653 -0.5368  2.1965
57192SOL     OW81889   9.119   1.768   0.836 -0.8131 -0.1842 -0.5255
57192SOL    HW181890   9.183   1.705   0.803 -1.1372 -1.2104  0.7208
57192SOL    HW281891   9.035   1.737   0.803 -0.8379  0.3860 -1.0241
57193SOL     OW81892  12.622  11.607  12.476 -0.0500 -0.2888 -0.6556
57193SOL    HW181893  12.563  11.540  12.510  2.3077 -2.1371  0.1049
57193SOL    HW281894  12.641  11.579  12.387  0.4855 -0.3150 -0.5363
57194SOL     OW81895   7.464   8.006   8.762 -0.1560 -0.2900 -0.3512
57194SOL    HW181896   7.469   8.037   8.853 -3.8558  2.0058 -0.7140
57194SOL    HW281897   7.486   7.913   8.768  0.7844  0.0029  2.7123
57195SOL     OW81898  11.889   0.364   3.338  0.1625 -0.3222 -0.5169
57195SOL    HW181899  11.926   0.412   3.263 -1.4796 -0.8003 -1.6850
57195SOL    HW281900  11.822   0.422   3.373 -1.9174 -1.6675 -2.0082
57196SOL     OW81901   1.300   4.296   3.087 -0.2352  0.0114 -0.0986
57196SOL    HW181902   1.337   4.385   3.083 -0.2032 -0.0132 -0.3504
57196SOL    HW281903   1.370   4.240   3.052 -0.1951 -0.1325  0.2066
57197SOL     OW81904   7.716   7.971   6.922 -0.2987  0.2639 -0.0773
57197SOL    HW181905   7.795   7.931   6.958 -1.6137 -0.2311  2.5359
57197SOL    HW281906   7.657   7.897   6.907 -1.1338  0.8271  0.3698
57198SOL     OW81907   0.711  10.938   9.703  0.6531  0.1143 -0.2820
57198SOL    HW181908   0.651  10.965   9.772  0.4697  0.6398 -0.6452
57198SOL    HW281909   0.795  10.926   9.748  0.7114  1.1704 -0.0795
57199SOL     OW81910   9.159   6.651   7.801 -0.4860  0.4276 -0.6239
57199SOL    HW181911   9.172   6.643   7.706  0.5856  0.5020 -0.4885
57199SOL    HW281912   9.168   6.744   7.819  1.3632  0.1870 -0.1716
57200SOL     OW81913   5.538   3.079  10.637 -0.4042 -0.3340  0.1451
57200SOL    HW181914   5.464   3.036  10.593 -0.8219 -3.1528  3.1850
57200SOL    HW281915   5.616   3.042  10.595 -0.7368 -0.2437 -0.5584
57201SOL     OW81916   5.740   5.264   8.862 -0.9590  0.2284 -0.2210
57201SOL    HW181917   5.834   5.266   8.878 -0.9509 -0.9766 -0.0250
57201SOL    HW281918   5.728   5.305   8.777 -0.2566  0.4380 -0.2166
57202SOL     OW81919   6.324  12.476   9.719 -0.3874 -0.6046  0.1904
57202SOL    HW181920   6.280  12.537   9.660  1.1332  0.2010 -0.1482
57202SOL    HW281921   6.264  12.401   9.725 -1.9035  0.5431 -0.0433
57203SOL     OW81922   7.597   7.317   8.203 -0.5424 -0.2979 -0.6762
57203SOL    HW181923   7.548   7.268   8.269  0.7176 -1.0792 -0.2662
57203SOL    HW281924   7.631   7.393   8.249 -1.0320  0.0390 -0.8623
57204SOL     OW81925   6.943   9.203   8.024  0.3070  0.2918  0.4330
57204SOL    HW181926   6.977   9.278   8.073  0.4939 -0.2808  1.2039
57204SOL    HW281927   6.888   9.157   8.087 -0.1226 -0.0169 -0.1515
57205SOL     OW81928   7.766  12.099  10.808 -0.1963 -0.3773  0.6210
57205SOL    HW181929   7.750  12.169  10.871 -0.7727 -0.3509  0.4490
57205SOL    HW281930   7.771  12.143  10.723 -2.1439 -0.6797  0.2941
57206SOL     OW81931   6.381   9.026  12.545 -0.0226  0.2142 -0.2412
57206SOL    HW181932   6.359   8.964  12.615 -1.7819  1.5738  0.4825
57206SOL    HW281933   6.370   9.112  12.585  0.5887  1.0196 -1.7379
57207SOL     OW81934  10.869   6.996   8.778  0.4968 -0.5607 -0.0273
57207SOL    HW181935  10.835   6.988   8.689 -2.4453  3.0239  0.5202
57207SOL    HW281936  10.792   7.016   8.831  2.7020  2.3658  2.4059
57208SOL     OW81937   5.405   8.067   4.942 -0.3042  0.4076  0.0778
57208SOL    HW181938   5.334   8.004   4.931 -1.7175  2.0620 -0.7775
57208SOL    HW281939   5.439   8.051   5.030 -1.4324 -0.6997  0.3366
57209SOL     OW81940   7.257   2.463  12.844 -0.1551  0.6890 -0.4905
57209SOL    HW181941   7.344   2.465  12.885  0.0713 -0.9967 -0.8110
57209SOL    HW281942   7.196   2.467  12.918  0.2416 -1.6853  0.0426
57210SOL     OW81943   8.838   3.243   6.034  1.0719  0.3351  0.1382
57210SOL    HW181944   8.781   3.190   6.090  0.8549 -0.1066 -0.4896
57210SOL    HW281945   8.843   3.328   6.078  0.5204  0.1443  0.5788
57211SOL     OW81946   7.621   8.785   2.371  0.0820  0.4510  0.5170
57211SOL    HW181947   7.713   8.798   2.390  0.3358 -0.3957 -0.0755
57211SOL    HW281948   7.618   8.704   2.320 -0.8043  1.3396 -0.9399
57212SOL     OW81949   1.543   6.781   4.487 -0.4405 -0.5287  0.2149
57212SOL    HW181950   1.628   6.772   4.444  0.8402 -0.1006  2.5010
57212SOL    HW281951   1.490   6.831   4.425  1.3799  0.2941 -0.7540
57213SOL     OW81952   7.786   1.552   9.891 -0.2270  0.0411  0.0477
57213SOL    HW181953   7.725   1.552   9.965 -0.6999 -0.8281 -0.3295
57213SOL    HW281954   7.836   1.471   9.902 -0.7306 -0.4165 -0.9264
57214SOL     OW81955  12.077   1.894  12.122  0.2560  0.4172  0.1033
57214SOL    HW181956  12.168   1.912  12.146  0.5622 -0.1990 -0.5582
57214SOL    HW281957  12.031   1.887  12.206  0.8080  0.7400  0.4418
57215SOL     OW81958   5.751   8.271   6.305 -0.4290 -0.3466 -0.4681
57215SOL    HW181959   5.838   8.311   6.299 -0.9812  0.7427 -1.8890
57215SOL    HW281960   5.708   8.316   6.378 -0.9738  1.6159 -1.9267
57216SOL     OW81961   8.635  10.210  11.778  0.3508  0.4191 -0.4017
57216SOL    HW181962   8.562  10.147  11.777 -0.5944  1.4809 -0.5605
57216SOL    HW281963   8.646  10.235  11.686 -0.3408  1.6413 -0.1770
57217SOL     OW81964   5.713   0.425   3.585 -0.0608 -0.3929  0.9393
57217SOL    HW181965   5.807   0.427   3.606  0.1552 -0.6192  0.0254
57217SOL    HW281966   5.678   0.503   3.628  0.5043 -0.4275  1.4815
57218SOL     OW81967   5.940   4.590   6.439  0.6361 -0.0863  0.1831
57218SOL    HW181968   5.937   4.531   6.363 -0.0829  0.2307 -0.0508
57218SOL    HW281969   5.855   4.578   6.481  0.9127 -0.0251  0.7637
57219SOL     OW81970   4.009   5.939   4.855 -0.0498  0.3578  0.1851
57219SOL    HW181971   4.041   5.928   4.944  1.1102 -1.3171 -0.3871
57219SOL    HW281972   4.088   5.955   4.803 -0.6904  1.1850 -0.5788
57220SOL     OW81973   0.006   7.238   1.202  0.1696 -0.2522  0.7979
57220SOL    HW181974  -0.083   7.237   1.238  0.1038  1.0308  0.6845
57220SOL    HW281975   0.008   7.163   1.142 -0.7805 -0.3905  0.9258
57221SOL     OW81976   4.397   1.648   4.927  0.4247  0.4773  0.3080
57221SOL    HW181977   4.483   1.668   4.889  0.3867 -0.8839 -0.5677
57221SOL    HW281978   4.343   1.626   4.851 -0.5209  0.6892  0.9139
57222SOL     OW81979   7.368   3.759   6.214  0.4381 -0.3029  0.1926
57222SOL    HW181980   7.339   3.670   6.232  0.3109 -0.2552  0.2248
57222SOL    HW281981   7.402   3.790   6.298  0.8104 -0.4434  0.0950
57223SOL     OW81982   8.171   8.425   7.568  0.8740  0.3868 -0.5466
57223SOL    HW181983   8.081   8.427   7.535  0.8618  0.9021 -0.4929
57223SOL    HW281984   8.163   8.391   7.657  0.6816  0.7970 -0.4018
57224SOL     OW81985   6.537  12.921   2.507 -0.0091 -0.0907  0.2234
57224SOL    HW181986   6.494  12.866   2.573  0.2300  0.5150  0.8955
57224SOL    HW281987   6.609  12.867   2.474  0.4591 -0.0520  1.1512
57225SOL     OW81988   2.021   5.998   1.105  0.4555 -0.1399 -0.0719
57225SOL    HW181989   1.997   6.089   1.087 -3.0416 -0.8460  0.3302
57225SOL    HW281990   2.053   5.999   1.195  2.0120  0.8631 -0.5903
57226SOL     OW81991   4.110   6.432  12.546  0.4616 -0.4008 -0.1914
57226SOL    HW181992   4.123   6.497  12.615  2.0527  0.6846 -1.4474
57226SOL    HW281993   4.017   6.438  12.526  0.4117  0.9278  0.2871
57227SOL     OW81994   6.539   6.614   1.763 -0.0483 -0.6641 -0.2782
57227SOL    HW181995   6.558   6.659   1.680  0.0344 -0.1269  0.0310
57227SOL    HW281996   6.542   6.521   1.740  0.2737 -0.5277 -0.8159
57228SOL     OW81997   4.819   3.507  10.333 -0.3181 -0.2258  0.1746
57228SOL    HW181998   4.856   3.422  10.358 -0.5400 -0.3665  0.0296
57228SOL    HW281999   4.789   3.545  10.415 -1.1171 -0.7209  0.1226
57229SOL     OW82000   7.144  11.589   9.333  0.3006  0.3296  0.0024
57229SOL    HW182001   7.171  11.628   9.250  0.9985  0.0440  0.0979
57229SOL    HW282002   7.087  11.516   9.308  3.0265 -1.8010 -0.3793
57230SOL     OW82003   3.791   2.895   6.428 -0.2457 -0.0196  0.5681
57230SOL    HW182004   3.839   2.978   6.434 -0.5523  0.0946  1.6025
57230SOL    HW282005   3.747   2.900   6.343 -0.1830  0.8291  0.5691
57231SOL     OW82006   1.311   7.700   8.187  0.3937 -0.6881  0.0087
57231SOL    HW182007   1.233   7.650   8.165 -0.6675  0.2266  1.5522
57231SOL    HW282008   1.278   7.786   8.215  2.0198  0.0821 -0.3157
57232SOL     OW82009   3.115   7.259  10.060  0.7660  0.0955 -0.2216
57232SOL    HW182010   3.090   7.174  10.096  1.0138  0.5538  1.0731
57232SOL    HW282011   3.069   7.264   9.976 -1.6139 -0.1039  0.9705
57233SOL     OW82012   7.262  10.702   9.570 -0.0883  0.0071  0.2267
57233SOL    HW182013   7.314  10.659   9.503  2.9037  2.8117  0.4963
57233SOL    HW282014   7.298  10.669   9.653  1.1970  1.6655  0.4049
57234SOL     OW82015   2.137   9.341   2.299 -0.6094 -0.1634 -0.4342
57234SOL    HW182016   2.116   9.248   2.295 -1.1278 -0.1113  0.7989
57234SOL    HW282017   2.052   9.385   2.302 -0.4937  0.1051  3.4237
57235SOL     OW82018   0.372   9.072   4.985 -0.0573 -0.6828  0.5545
57235SOL    HW182019   0.373   9.085   5.079 -0.0019 -1.4917  0.6696
57235SOL    HW282020   0.463   9.086   4.958  0.5293 -3.1802  1.0241
57236SOL     OW82021   4.408  12.427   0.011 -0.4955 -0.3603  0.2480
57236SOL    HW182022   4.348  12.368   0.056  1.0466 -0.3263  2.5381
57236SOL    HW282023   4.385  12.514   0.043 -0.1480 -0.1886  0.0327
57237SOL     OW82024   7.774   5.058   6.197  0.2354  0.0343  0.3272
57237SOL    HW182025   7.784   5.063   6.292  0.5124 -2.2923  0.4867
57237SOL    HW282026   7.855   5.016   6.167 -0.8341 -1.4379 -0.6231
57238SOL     OW82027  10.688   5.819   7.425 -0.2318 -0.9777 -0.6632
57238SOL    HW182028  10.672   5.912   7.442 -0.8909 -1.2093  0.0416
57238SOL    HW282029  10.701   5.780   7.511 -0.7356 -1.6720 -0.8897
57239SOL     OW82030   9.730  12.321   1.929 -0.2451  0.0845  0.1485
57239SOL    HW182031   9.721  12.357   2.017  0.0447 -1.1145  0.6943
57239SOL    HW282032   9.791  12.380   1.885  1.0832 -0.3024  1.3642
57240SOL     OW82033   2.911   5.797  11.666  0.1362 -0.1864  0.4447
57240SOL    HW182034   2.908   5.736  11.593  1.9009 -0.0368  0.1888
57240SOL    HW282035   2.827   5.844  11.663  0.0071 -0.4757 -1.2225
57241SOL     OW82036  10.560  12.231   1.112  0.2654  0.8754  0.0261
57241SOL    HW182037  10.631  12.192   1.061 -0.7375 -0.3269 -0.4950
57241SOL    HW282038  10.602  12.258   1.193  0.6741 -3.5728  1.5571
57242SOL     OW82039   1.950  11.315  12.636 -0.3353  0.6994  0.1932
57242SOL    HW182040   1.904  11.259  12.574 -1.2302  1.0204  0.5505
57242SOL    HW282041   2.043  11.303  12.616 -0.4125 -1.8414  1.0385
57243SOL     OW82042   2.832  12.831   8.450  0.1878  0.4052 -0.2485
57243SOL    HW182043   2.927  12.838   8.451  0.1852  1.6476 -2.4254
57243SOL    HW282044   2.813  12.776   8.375 -0.8413  1.7030 -0.9809
57244SOL     OW82045   8.626   2.397  12.112  0.3749 -0.1867  0.4311
57244SOL    HW182046   8.596   2.413  12.201 -0.2979 -1.6256  0.4940
57244SOL    HW282047   8.594   2.472  12.062 -1.1772 -0.4406  0.9903
57245SOL     OW82048   3.120   9.267  11.202  0.2506 -0.1135 -0.8111
57245SOL    HW182049   3.183   9.294  11.135  0.8319  0.7871  0.0602
57245SOL    HW282050   3.095   9.178  11.177 -0.0315  0.4104 -2.5538
57246SOL     OW82051   9.330   1.245  12.410  0.2862 -0.0068  0.2812
57246SOL    HW182052   9.297   1.258  12.499  1.2413  1.4594  0.4511
57246SOL    HW282053   9.425   1.259  12.417  0.3685  0.1979 -0.9751
57247SOL     OW82054   0.912   4.904   0.328 -0.1900 -0.2219 -0.2678
57247SOL    HW182055   0.917   4.841   0.255 -0.4793  0.4855 -0.9127
57247SOL    HW282056   0.832   4.953   0.311 -1.5516 -1.5647  1.8086
57248SOL     OW82057   7.599   1.255   8.947 -0.6482 -0.2628  0.2225
57248SOL    HW182058   7.567   1.297   9.027 -0.0995  0.2869  0.1616
57248SOL    HW282059   7.666   1.315   8.913 -0.1187 -1.0022 -0.0785
57249SOL     OW82060   0.664   7.285   9.436 -0.6059  0.7510  0.4170
57249SOL    HW182061   0.683   7.222   9.505 -1.2742  1.2115  1.0272
57249SOL    HW282062   0.720   7.258   9.363  0.3539  0.4554  1.2398
57250SOL     OW82063   1.413   8.002  11.536  0.1872  0.2651  0.1474
57250SOL    HW182064   1.416   8.097  11.533  2.3231  0.2620  0.1323
57250SOL    HW282065   1.443   7.979  11.624  0.7244 -0.3743 -0.1849
57251SOL     OW82066   9.430   0.228   1.464  0.1702  0.1570  0.1782
57251SOL    HW182067   9.423   0.138   1.431 -0.8232  0.3269 -0.1327
57251SOL    HW282068   9.522   0.238   1.488  0.3967 -0.7848 -0.2353
57252SOL     OW82069   1.304   9.037  11.179  0.0046  0.3934  0.2590
57252SOL    HW182070   1.364   9.102  11.216  1.9719 -0.6653 -0.9162
57252SOL    HW282071   1.356   8.989  11.115 -2.6516  0.7857 -2.4361
57253SOL     OW82072   1.182  11.917   3.969 -0.3739 -0.3571  0.2731
57253SOL    HW182073   1.141  11.982   3.912  1.8975 -0.0398 -1.0819
57253SOL    HW282074   1.108  11.868   4.005 -1.9637  0.3008 -1.8957
57254SOL     OW82075   4.372   6.043   9.851  0.7297 -0.1529  0.8698
57254SOL    HW182076   4.304   5.979   9.830  0.4033  0.8806 -1.6244
57254SOL    HW282077   4.324   6.119   9.884  0.7793  0.0803  0.4133
57255SOL     OW82078   2.919   9.827   8.160 -0.0210 -0.6946  0.1750
57255SOL    HW182079   2.877   9.860   8.080  0.4516 -0.5389 -0.0088
57255SOL    HW282080   2.892   9.736   8.165  0.5954 -0.9250 -0.5976
57256SOL     OW82081   9.484   4.814   1.222  0.1604  0.6526  0.9377
57256SOL    HW182082   9.412   4.762   1.258 -1.1601 -0.0763 -2.4267
57256SOL    HW282083   9.446   4.860   1.148  2.7887  1.6488  0.0965
57257SOL     OW82084   8.485  12.038   1.092  0.1998 -0.4582  0.1225
57257SOL    HW182085   8.475  11.944   1.106 -0.5115 -0.2396  1.1460
57257SOL    HW282086   8.580  12.052   1.090  0.3226 -0.9939  1.4066
57258SOL     OW82087   4.813   0.678   4.672 -0.1240 -0.1373  0.0959
57258SOL    HW182088   4.733   0.652   4.625 -0.3263  0.7747 -0.0867
57258SOL    HW282089   4.825   0.610   4.738 -0.5222 -0.7925 -0.4872
57259SOL     OW82090   3.342   4.354   9.884  0.0896 -0.4747  0.8584
57259SOL    HW182091   3.359   4.349   9.978 -0.4597  2.1092  1.1788
57259SOL    HW282092   3.399   4.288   9.845  4.0041  1.5417  2.6115
57260SOL     OW82093   2.990   9.648   9.520  0.5228 -0.0395  0.2214
57260SOL    HW182094   3.013   9.729   9.474  0.2445  0.9430  1.7370
57260SOL    HW282095   3.029   9.578   9.467  0.0216  1.0090 -1.5945
57261SOL     OW82096   9.762   7.256  11.180  0.6864  0.0403  0.3799
57261SOL    HW182097   9.753   7.350  11.198  1.1555  0.0857  0.3831
57261SOL    HW282098   9.788   7.251  11.088  0.8993 -0.0734  0.4456
57262SOL     OW82099  11.809   9.876   7.132 -0.3092  0.2243  0.0962
57262SOL    HW182100  11.714   9.884   7.134 -0.3103  0.0336  0.9494
57262SOL    HW282101  11.841   9.951   7.182 -0.0559 -0.4022  0.8881
57263SOL     OW82102  11.462   0.938  11.580 -0.6930  0.2283  0.4651
57263SOL    HW182103  11.448   0.864  11.640  2.3125 -1.9283 -1.1939
57263SOL    HW282104  11.556   0.954  11.584 -0.1185 -0.6859 -4.1959
57264SOL     OW82105  12.680   9.283   6.176 -0.4117 -0.1794  0.0066
57264SOL    HW182106  12.712   9.313   6.260 -3.2931  0.0218  1.1540
57264SOL    HW282107  12.683   9.187   6.181  0.8412 -0.1673 -0.2978
57265SOL     OW82108   7.490   5.982   7.722 -0.5750 -0.2852 -0.1471
57265SOL    HW182109   7.518   6.043   7.654 -0.4021 -1.8284 -1.4964
57265SOL    HW282110   7.567   5.973   7.779  0.0993 -0.8343 -1.1266
57266SOL     OW82111  11.143   9.765   4.925  0.4867  0.0238  0.7759
57266SOL    HW182112  11.100   9.812   4.853  0.2099  0.0750  0.9712
57266SOL    HW282113  11.171   9.683   4.886 -3.8616 -2.1423  1.6150
57267SOL     OW82114   7.857   6.631   4.866 -0.0736  0.1689 -0.0713
57267SOL    HW182115   7.908   6.550   4.866  0.8685  0.7170 -1.7439
57267SOL    HW282116   7.813   6.632   4.780 -0.4852  1.1728  0.1362
57268SOL     OW82117   5.044   3.463   6.542 -0.3665 -0.7634  0.3521
57268SOL    HW182118   5.008   3.551   6.531 -1.2465 -1.3001 -1.5742
57268SOL    HW282119   5.005   3.431   6.624  0.0616  0.6551  1.1397
57269SOL     OW82120   3.327   9.237   8.202 -0.2283 -0.8247  0.6456
57269SOL    HW182121   3.385   9.309   8.176 -3.1196  1.0401 -1.2632
57269SOL    HW282122   3.269   9.275   8.268 -0.9177 -1.8363  0.6467
57270SOL     OW82123  11.457  12.976   7.310  0.6250  0.6488 -0.2974
57270SOL    HW182124  11.480  12.889   7.340  0.6315  0.3915 -1.0180
57270SOL    HW282125  11.493  12.981   7.221 -0.1808  1.0378 -0.6134
57271SOL     OW82126   4.648   3.121   2.512  0.1855  0.1828  0.1862
57271SOL    HW182127   4.641   3.144   2.604 -1.9156  0.7630 -0.0674
57271SOL    HW282128   4.661   3.026   2.512 -0.3419  0.1004  1.0719
57272SOL     OW82129   1.061  12.132  10.651 -0.0242  0.7816 -0.2127
57272SOL    HW182130   1.101  12.061  10.601  0.0542  0.4626  0.2906
57272SOL    HW282131   1.106  12.211  10.622  0.2286  0.5615 -0.4207
57273SOL     OW82132   0.542   5.631   9.626  0.4497  0.0080  0.3363
57273SOL    HW182133   0.523   5.706   9.683 -3.2814 -1.0034  0.7250
57273SOL    HW282134   0.576   5.564   9.686  1.5134  0.5900  0.4040
57274SOL     OW82135   6.701   0.990   6.156  0.5959 -0.3333  0.2113
57274SOL    HW182136   6.639   0.945   6.099 -0.1268  0.0918  0.6535
57274SOL    HW282137   6.769   0.924   6.173 -0.2898 -1.1635  0.6138
57275SOL     OW82138  11.925   0.788  12.584 -0.4318 -0.5095  0.8844
57275SOL    HW182139  11.870   0.866  12.593  0.6320  0.4493 -0.4281
57275SOL    HW282140  11.884   0.739  12.513  0.0240 -0.0963  0.3193
57276SOL     OW82141  12.309  12.339   8.772  0.5774  0.4193  0.1623
57276SOL    HW182142  12.232  12.383   8.808 -0.5723 -0.7250 -0.8198
57276SOL    HW282143  12.373  12.409   8.759 -1.2329  1.8930 -1.4607
57277SOL     OW82144   1.106  12.909  12.476  0.1861  0.1463 -0.9767
57277SOL    HW182145   1.085  12.975  12.409  1.6848  0.0274 -1.6127
57277SOL    HW282146   1.151  12.840  12.428 -0.6474 -0.9770 -0.1736
57278SOL     OW82147   1.296   2.859   3.835 -0.6069 -0.0230 -0.2436
57278SOL    HW182148   1.374   2.909   3.811 -1.3869  1.0479 -0.6318
57278SOL    HW282149   1.280   2.802   3.760  0.2014 -0.7664  0.1369
57279SOL     OW82150  11.014   1.024   8.416 -0.2060  0.2222  0.3154
57279SOL    HW182151  11.054   0.969   8.349  0.0075 -1.3201  1.6455
57279SOL    HW282152  11.011   0.969   8.494  0.3561  2.2090  1.8431
57280SOL     OW82153   3.218   3.246   7.054 -0.2406  1.0008 -0.3207
57280SOL    HW182154   3.188   3.328   7.092 -0.1524  1.0751 -0.4106
57280SOL    HW282155   3.288   3.216   7.113  0.3630  1.4600 -0.7883
57281SOL     OW82156   2.480   5.158   3.819  0.4571 -0.0764 -0.6469
57281SOL    HW182157   2.393   5.153   3.859  0.5029 -2.5589 -0.6913
57281SOL    HW282158   2.465   5.196   3.733 -0.4780  0.1534 -0.3916
57282SOL     OW82159   3.522   7.947   2.923 -0.3435  0.2268 -0.7056
57282SOL    HW182160   3.473   7.938   2.841  0.8532  0.5219 -1.4626
57282SOL    HW282161   3.595   8.004   2.902  0.5663 -0.5216  0.3132
57283SOL     OW82162   1.274  11.512  12.651 -0.4115 -0.1514  0.2720
57283SOL    HW182163   1.218  11.458  12.595 -1.4474  1.0628  0.1022
57283SOL    HW282164   1.287  11.459  12.729 -0.9470 -0.8751 -0.1162
57284SOL     OW82165   3.091   2.278  12.854  0.0726  0.1024  0.3135
57284SOL    HW182166   3.043   2.298  12.774  1.2683  0.8651 -0.2224
57284SOL    HW282167   3.062   2.345  12.916  0.9982  1.0608 -0.2511
57285SOL     OW82168  11.197  11.353   6.492 -0.1868  0.4182  0.4945
57285SOL    HW182169  11.108  11.333   6.460  0.5206 -1.2660 -0.5492
57285SOL    HW282170  11.239  11.397   6.418  0.3294 -0.2101  0.4079
57286SOL     OW82171  12.785   5.983   8.417  0.0376 -0.2023  0.1657
57286SOL    HW182172  12.738   6.064   8.433  0.3285  0.0324 -0.1515
57286SOL    HW282173  12.854   5.981   8.483  1.7074  1.1311 -1.4538
57287SOL     OW82174   3.122  11.498   2.345 -0.3597 -0.5773  0.0029
57287SOL    HW182175   3.030  11.474   2.334  0.0431 -1.6372 -1.5134
57287SOL    HW282176   3.169  11.414   2.342  0.7029 -0.0005  0.0103
57288SOL     OW82177   4.483   6.339   5.695 -0.6736  0.4534  0.1170
57288SOL    HW182178   4.574   6.313   5.681 -1.4319 -0.9953 -2.9969
57288SOL    HW282179   4.469   6.414   5.637 -1.3174  1.1106  1.0815
57289SOL     OW82180  12.127  10.385   0.078 -0.2278 -0.3978 -0.4415
57289SOL    HW182181  12.047  10.334   0.091  1.2567 -2.4985  1.0738
57289SOL    HW282182  12.125  10.409  -0.015 -3.0513  0.4724 -0.2351
57290SOL     OW82183   3.556   4.923  11.244 -0.0996  0.6190 -0.7957
57290SOL    HW182184   3.498   4.950  11.315 -0.8437 -4.1202  0.7519
57290SOL    HW282185   3.638   4.900  11.286 -0.3950 -1.8255 -1.3874
57291SOL     OW82186   6.082   3.592   8.654 -0.3694 -0.1784  0.4671
57291SOL    HW182187   6.032   3.673   8.645  0.1677  0.5448  3.1259
57291SOL    HW282188   6.110   3.590   8.746  2.8081 -1.5283 -0.3628
57292SOL     OW82189   7.851   1.913   1.851  0.1199 -0.3182  0.0530
57292SOL    HW182190   7.862   1.989   1.795  1.1382 -0.0020  0.6586
57292SOL    HW282191   7.808   1.946   1.929  0.4214 -0.3872  0.2514
57293SOL     OW82192  10.432   9.339   7.757  0.6570 -0.7401 -0.2581
57293SOL    HW182193  10.444   9.428   7.788 -0.7920 -0.7687  0.4758
57293SOL    HW282194  10.454   9.343   7.664  0.9523  0.2936 -0.1533
57294SOL     OW82195   9.102  11.356  10.751 -0.2702 -0.2445  0.6895
57294SOL    HW182196   9.018  11.312  10.763 -0.0650 -1.0442 -0.6288
57294SOL    HW282197   9.079  11.440  10.710 -0.5832  0.5604  2.4037
57295SOL     OW82198  11.709   2.429  12.358 -0.0328  0.5444  0.3237
57295SOL    HW182199  11.701   2.440  12.452  0.0132  1.6238  0.2146
57295SOL    HW282200  11.804   2.433  12.342 -0.1130  1.9500  0.0754
57296SOL     OW82201   4.457   6.430   3.159  0.5695  0.0887 -0.4807
57296SOL    HW182202   4.482   6.432   3.066  2.4629  0.4200  0.0133
57296SOL    HW282203   4.462   6.337   3.183  1.2029  0.1357 -0.4238
57297SOL     OW82204  11.812   9.474   4.328 -1.0112 -0.2461  0.0714
57297SOL    HW182205  11.818   9.560   4.286 -0.4214 -0.5710 -0.5275
57297SOL    HW282206  11.903   9.446   4.338 -1.2122 -1.3021 -0.7914
57298SOL     OW82207   9.453   7.211   0.627  0.1616 -0.1313  0.0561
57298SOL    HW182208   9.506   7.192   0.550 -0.6893  1.7231 -1.0644
57298SOL    HW282209   9.371   7.163   0.612  0.4092 -0.6653  0.3750
57299SOL     OW82210   7.965  11.726  11.313 -0.7933 -0.1271 -0.0304
57299SOL    HW182211   7.990  11.712  11.404 -0.0917  0.2417 -0.1568
57299SOL    HW282212   8.012  11.658  11.264 -1.3025 -0.4316 -0.0982
57300SOL     OW82213   5.252   8.225   7.927 -0.2952 -0.3536 -0.2254
57300SOL    HW182214   5.208   8.204   8.009 -2.0378 -0.0618 -1.0289
57300SOL    HW282215   5.262   8.320   7.927  0.1516 -0.3963 -0.1518
57301SOL     OW82216   7.925   8.852   3.530  0.1932 -0.1229 -0.1808
57301SOL    HW182217   7.859   8.848   3.598 -0.5590  1.8221 -0.7259
57301SOL    HW282218   7.905   8.778   3.472 -0.2121 -0.7517  0.7340
57302SOL     OW82219   5.332  10.442   5.822 -0.0314  0.0317 -0.2419
57302SOL    HW182220   5.357  10.369   5.766  0.6917  0.0120  0.1037
57302SOL    HW282221   5.277  10.403   5.890 -0.4285 -0.0332 -0.5909
57303SOL     OW82222   8.132   4.721   8.080 -0.0197  0.4365  0.1438
57303SOL    HW182223   8.065   4.753   8.140 -0.6357 -1.3165  0.4512
57303SOL    HW282224   8.214   4.757   8.114 -0.2377 -1.1796  2.6165
57304SOL     OW82225   3.165  12.665   4.866 -0.1133 -0.1990  0.1601
57304SOL    HW182226   3.163  12.630   4.777 -0.5497 -0.8793  0.4323
57304SOL    HW282227   3.090  12.626   4.909  0.1734  0.0198  0.8715
57305SOL     OW82228   2.899  12.764   0.507  0.5491  0.1328 -0.5753
57305SOL    HW182229   2.896  12.773   0.603  1.4074 -0.5121 -0.4772
57305SOL    HW282230   2.809  12.782   0.479  0.2204  0.0518  0.3799
57306SOL     OW82231   3.585   7.241   0.860 -0.6272 -0.7384 -0.0609
57306SOL    HW182232   3.605   7.164   0.807 -1.7038 -1.4343  0.5135
57306SOL    HW282233   3.661   7.250   0.918 -0.2150 -0.9778 -0.5464
57307SOL     OW82234   4.478   0.834   9.825 -0.0937  1.4551  0.1992
57307SOL    HW182235   4.425   0.878   9.759  0.5453  1.2532 -0.4638
57307SOL    HW282236   4.539   0.901   9.855  0.4534  1.2133 -0.3445
57308SOL     OW82237   7.680  10.087   9.380  0.1329  0.0793 -1.0131
57308SOL    HW182238   7.683  10.182   9.392  0.1834 -0.1192  0.7862
57308SOL    HW282239   7.771  10.059   9.378  0.2491 -0.2927  2.4324
57309SOL     OW82240   5.358   9.143   7.083  0.2241 -0.2893  0.4496
57309SOL    HW182241   5.290   9.197   7.121 -1.2523 -1.4541 -0.4311
57309SOL    HW282242   5.389   9.088   7.155 -0.5253 -0.4808  0.6309
57310SOL     OW82243   7.552  11.805   2.320 -0.1711 -0.8467 -0.4165
57310SOL    HW182244   7.606  11.859   2.263 -0.1867 -0.2204  0.1523
57310SOL    HW282245   7.468  11.797   2.274 -0.0415 -0.7014 -0.6744
57311SOL     OW82246  10.394   9.679   6.812 -0.1295 -0.3904  0.6085
57311SOL    HW182247  10.472   9.631   6.841 -0.1727 -1.2007 -0.5619
57311SOL    HW282248  10.384   9.655   6.720  0.1134  2.2054 -0.1892
57312SOL     OW82249   8.591  10.165   9.924 -0.4707  0.3321  0.1946
57312SOL    HW182250   8.612  10.255   9.947 -4.7714  1.9341 -1.1340
57312SOL    HW282251   8.545  10.131  10.001  0.7754 -0.6485  0.5349
57313SOL     OW82252  10.363   9.586  12.381  0.1228 -0.8719  0.0510
57313SOL    HW182253  10.331   9.508  12.336  0.1009 -0.6566 -0.3185
57313SOL    HW282254  10.444   9.608  12.335 -0.4511 -0.0235 -0.5970
57314SOL     OW82255   1.144   6.752   6.630  0.1150  0.1838 -0.1050
57314SOL    HW182256   1.120   6.686   6.565 -0.5671 -0.6325  0.9300
57314SOL    HW282257   1.220   6.713   6.675 -0.8273 -0.3318  1.0933
57315SOL     OW82258  10.770   1.029   6.523  0.0400 -0.6407 -0.3108
57315SOL    HW182259  10.861   1.057   6.527 -0.4576  1.1216 -0.5072
57315SOL    HW282260  10.726   1.078   6.592 -1.1433  0.1506 -1.5682
57316SOL     OW82261   8.149  12.056   7.913 -0.5367 -0.3421 -0.2139
57316SOL    HW182262   8.233  12.046   7.959  0.1372  0.0044 -1.3374
57316SOL    HW282263   8.118  12.143   7.940  0.7296  0.6353 -1.7409
57317SOL     OW82264   2.475   4.514   0.692 -0.2989  0.0864  0.5737
57317SOL    HW182265   2.501   4.606   0.683  0.1053 -0.2055 -2.3092
57317SOL    HW282266   2.557   4.465   0.681 -1.0379 -0.6650 -2.8902
57318SOL     OW82267   4.214   7.371   8.479  0.0574  0.1795 -0.0100
57318SOL    HW182268   4.289   7.412   8.435 -0.6081  1.3617 -0.0923
57318SOL    HW282269   4.207   7.284   8.440  1.1923  0.1653 -0.2138
57319SOL     OW82270   1.259   5.702   0.700  0.4127  0.7660  0.1814
57319SOL    HW182271   1.337   5.702   0.757  0.8793 -2.7861 -0.2479
57319SOL    HW282272   1.228   5.612   0.702 -2.6654  1.6703 -1.1679
57320SOL     OW82273   7.689   9.152   8.992 -0.0440  0.4789  0.1809
57320SOL    HW182274   7.721   9.062   8.996  0.7949  0.7433 -0.2836
57320SOL    HW282275   7.761   9.204   9.028 -0.7945  0.9030  1.0767
57321SOL     OW82276   9.707   5.653   2.816 -0.0500  0.6550 -0.3268
57321SOL    HW182277   9.614   5.673   2.824 -0.5651 -1.6205  0.2638
57321SOL    HW282278   9.735   5.631   2.905  0.0515 -2.2605 -0.9523
57322SOL     OW82279   9.192  11.492   1.695  0.6737  0.5457  0.8144
57322SOL    HW182280   9.283  11.482   1.665  0.2035  0.3678 -0.6284
57322SOL    HW282281   9.165  11.403   1.720 -0.0111 -0.0064 -1.5975
57323SOL     OW82282  11.590   9.510   8.435  0.1963 -0.1266  0.2091
57323SOL    HW182283  11.533   9.583   8.460 -1.6054 -0.9626 -1.1517
57323SOL    HW282284  11.603   9.461   8.516 -0.9802  0.1374  0.5797
57324SOL     OW82285   3.175  12.571  12.816  0.1583  0.0175  0.6147
57324SOL    HW182286   3.140  12.658  12.796 -0.2431 -0.3488 -0.3342
57324SOL    HW282287   3.126  12.542  12.892  1.1668  1.1242  1.7329
57325SOL     OW82288   6.044   8.852   9.963 -0.1497  0.0244  0.0818
57325SOL    HW182289   6.051   8.756   9.969  0.5099  0.0470 -0.2134
57325SOL    HW282290   5.973   8.874  10.022  0.5803 -0.5204  1.2165
57326SOL     OW82291   2.789  10.482   2.832 -0.1042  0.3011  0.6733
57326SOL    HW182292   2.867  10.484   2.777  0.6645 -0.7647  1.6773
57326SOL    HW282293   2.735  10.554   2.799  0.8301  0.4140 -0.7049
57327SOL     OW82294   1.196   6.966   2.329  0.5909  0.0810 -0.4050
57327SOL    HW182295   1.273   6.936   2.281  1.8219  0.4588  1.2732
57327SOL    HW282296   1.178   6.897   2.393 -0.0282  0.3387 -0.2857
57328SOL     OW82297   8.966   7.593   7.182  0.2115  0.0229 -0.1066
57328SOL    HW182298   8.890   7.607   7.238 -0.0260 -0.5554 -0.2764
57328SOL    HW282299   9.008   7.679   7.176 -0.0256  0.1902  0.5704
57329SOL     OW82300   7.250   4.111   4.828  0.2332  0.4873  0.2186
57329SOL    HW182301   7.274   4.195   4.868  2.2864  0.5912 -1.0811
57329SOL    HW282302   7.174   4.132   4.773 -1.7055  0.6261  2.7632
57330SOL     OW82303   7.561   7.044   1.656  0.1223 -0.3117 -0.1851
57330SOL    HW182304   7.614   6.998   1.720  2.3325  0.6109 -1.2282
57330SOL    HW282305   7.625   7.091   1.602 -1.8539  4.0949  0.8574
57331SOL     OW82306  10.649   7.546   8.377  0.3103 -0.1195 -0.0479
57331SOL    HW182307  10.646   7.502   8.293  1.7231  0.0501 -0.1995
57331SOL    HW282308  10.717   7.613   8.367 -1.1164  1.4934  0.4723
57332SOL     OW82309   5.590   4.808   4.922 -0.1158 -0.4898  0.1981
57332SOL    HW182310   5.649   4.837   4.853 -1.3368 -0.2194 -0.7706
57332SOL    HW282311   5.507   4.791   4.877 -0.3560 -2.3951  1.2498
57333SOL     OW82312   2.147   9.358   4.377  0.2233  0.1314  0.8012
57333SOL    HW182313   2.096   9.323   4.450  0.0763 -1.1974  0.0972
57333SOL    HW282314   2.101   9.438   4.352 -1.2649 -0.7745  0.4996
57334SOL     OW82315   8.200   0.664  12.429  0.0859  0.1121  0.0850
57334SOL    HW182316   8.272   0.611  12.396  0.8003 -0.1566  1.9766
57334SOL    HW282317   8.221   0.680  12.521 -1.7082  0.9861  0.3964
57335SOL     OW82318   8.247  10.244   4.178  0.0150 -0.8752  0.4354
57335SOL    HW182319   8.203  10.328   4.177  1.0153 -0.2988 -2.2525
57335SOL    HW282320   8.198  10.192   4.242 -1.7276  1.1283  0.8264
57336SOL     OW82321   1.294  11.334   9.310 -0.8707 -0.2951  0.1710
57336SOL    HW182322   1.368  11.274   9.314 -1.9697 -1.7209  0.2886
57336SOL    HW282323   1.288  11.359   9.218  1.1046  1.7038  0.4999
57337SOL     OW82324  12.552   6.150  11.812  0.4354  0.3911  0.1673
57337SOL    HW182325  12.581   6.204  11.885  0.0254  1.0186 -0.1287
57337SOL    HW282326  12.573   6.201  11.734 -1.2603  0.7964 -0.0720
57338SOL     OW82327   7.877   2.636   7.772 -0.1662  0.3321  0.0598
57338SOL    HW182328   7.846   2.712   7.821 -2.0683  0.2029 -0.8356
57338SOL    HW282329   7.837   2.646   7.685 -1.1850 -2.0934  0.1589
57339SOL     OW82330  12.902   5.105   9.621  0.1176 -0.0298 -0.2749
57339SOL    HW182331  12.825   5.099   9.565  0.8196  1.1769 -1.4351
57339SOL    HW282332  12.893   5.191   9.663  0.7261  0.0373 -0.2769
57340SOL     OW82333   6.982   3.327   6.867  0.0778 -0.7902 -0.6076
57340SOL    HW182334   6.967   3.240   6.902 -0.3018 -0.3427  0.3659
57340SOL    HW282335   7.072   3.348   6.892  0.3559 -1.1182 -1.3209
57341SOL     OW82336  12.761   7.611  12.812  0.1276 -0.4942  0.1461
57341SOL    HW182337  12.832   7.665  12.777 -0.1508  0.4845  1.0573
57341SOL    HW282338  12.686   7.669  12.816 -0.0546 -0.7979  1.6034
57342SOL     OW82339   7.192   3.821   4.053 -0.0808 -0.2033 -0.2738
57342SOL    HW182340   7.114   3.852   4.007 -0.5802  0.3146  0.8859
57342SOL    HW282341   7.195   3.873   4.133  0.7496 -1.0861  0.2911
57343SOL     OW82342   6.324   8.710   4.809 -0.4630  0.5372 -0.0060
57343SOL    HW182343   6.351   8.730   4.720  1.3563  0.1400  0.4057
57343SOL    HW282344   6.292   8.620   4.805  1.6895 -0.2945  0.0819
57344SOL     OW82345   9.862   7.465  12.566  0.6077 -0.7990 -0.4664
57344SOL    HW182346   9.884   7.514  12.646 -3.1676 -0.3095  0.4961
57344SOL    HW282347   9.868   7.373  12.592 -1.2848 -0.6502  0.7480
57345SOL     OW82348   6.230   0.331   2.960  0.1506 -0.1485 -0.1473
57345SOL    HW182349   6.275   0.336   3.044  2.2534  0.5322 -1.2471
57345SOL    HW282350   6.300   0.327   2.895 -1.3288  2.0920 -2.0450
57346SOL     OW82351  11.986   1.215   6.237 -0.0466  0.0313 -0.3431
57346SOL    HW182352  12.055   1.246   6.296  0.2809  0.1922 -0.8047
57346SOL    HW282353  11.913   1.275   6.253 -0.9261 -1.5106  1.8097
57347SOL     OW82354   2.290   1.530   8.668 -0.0858 -0.4010  0.0625
57347SOL    HW182355   2.314   1.449   8.623 -0.4151 -1.1353  1.1459
57347SOL    HW282356   2.243   1.500   8.747 -1.3238  0.8813 -0.1468
57348SOL     OW82357   1.348   6.212   2.365 -0.4219 -0.1565  0.6570
57348SOL    HW182358   1.377   6.264   2.290  0.7748  1.5518  2.2227
57348SOL    HW282359   1.413   6.141   2.372  0.3507  0.5648  0.9599
57349SOL     OW82360  12.055   4.285   4.955 -0.3332  0.2425 -0.0006
57349SOL    HW182361  12.018   4.253   5.037  0.6376  0.2588  0.4627
57349SOL    HW282362  12.102   4.210   4.919 -2.4166 -0.3906 -1.6059
57350SOL     OW82363  12.495  12.502   0.349 -0.6225  0.3967 -0.5134
57350SOL    HW182364  12.529  12.496   0.260 -0.3929  1.3986 -0.5098
57350SOL    HW282365  12.558  12.453   0.402 -0.8011 -0.2681 -0.9035
57351SOL     OW82366   3.296   7.959   0.934  0.0338  0.5716  0.1392
57351SOL    HW182367   3.232   7.893   0.905 -0.9060  0.9910  1.1736
57351SOL    HW282368   3.255   8.043   0.910 -0.5163  0.9124  2.0546
57352SOL     OW82369   6.595   5.087   5.173  1.3527  0.2342  0.5316
57352SOL    HW182370   6.563   5.071   5.262  0.9859 -0.8356  0.2211
57352SOL    HW282371   6.681   5.045   5.171  2.1001  1.6761  0.8597
57353SOL     OW82372   1.470   5.945   6.081  0.1416 -0.0633  0.3469
57353SOL    HW182373   1.494   6.035   6.058  1.3919 -0.7381 -1.1330
57353SOL    HW282374   1.390   5.928   6.031  1.1994 -0.5138 -1.2799
57354SOL     OW82375   9.888   5.605   7.729 -0.1843  0.5023  0.3170
57354SOL    HW182376   9.971   5.629   7.770 -0.8970  1.1101  1.4345
57354SOL    HW282377   9.857   5.531   7.780 -0.6472  0.6854  0.3027
57355SOL     OW82378   1.356   4.657   9.563 -0.3627 -0.4278 -0.0032
57355SOL    HW182379   1.379   4.689   9.651 -0.8738 -0.2708  0.0732
57355SOL    HW282380   1.367   4.562   9.570  1.5875 -0.2675 -0.3574
57356SOL     OW82381   8.664   3.644   5.538 -0.0847 -0.2130  1.1731
57356SOL    HW182382   8.683   3.602   5.622  0.8289 -0.4786  0.8517
57356SOL    HW282383   8.642   3.571   5.479 -0.7784 -0.0233  1.1946
57357SOL     OW82384   1.451  12.119   5.814  0.0359 -0.4791 -0.0984
57357SOL    HW182385   1.368  12.164   5.796  0.8638  0.7754 -0.9787
57357SOL    HW282386   1.512  12.189   5.837  1.0894 -1.2666 -0.4008
57358SOL     OW82387  12.645   7.797   6.536 -0.1853 -0.8350  0.1785
57358SOL    HW182388  12.584   7.725   6.518  0.7506 -1.3878 -0.9212
57358SOL    HW282389  12.614   7.868   6.479  1.8575 -2.0826 -2.7549
57359SOL     OW82390  10.830   0.333   5.568  0.3695 -0.0139 -0.0132
57359SOL    HW182391  10.857   0.347   5.478 -0.5258 -0.7051 -0.4073
57359SOL    HW282392  10.747   0.286   5.561  0.3494 -0.1870  1.1747
57360SOL     OW82393   0.586   7.817  12.770  0.9322  0.1446  0.0311
57360SOL    HW182394   0.664   7.872  12.757  0.6340  0.4609 -0.4504
57360SOL    HW282395   0.513   7.874  12.746  0.6161 -0.4572 -0.4426
57361SOL     OW82396   9.258   7.089   7.883  0.2869 -0.2887  0.0184
57361SOL    HW182397   9.184   7.031   7.860 -0.9290  0.9874  0.5700
57361SOL    HW282398   9.224   7.177   7.868  1.2599  0.3787  1.5515
57362SOL     OW82399   1.868   6.102   1.545 -0.2969 -0.2248  0.1320
57362SOL    HW182400   1.847   6.090   1.638  1.5798  1.0279  0.7669
57362SOL    HW282401   1.882   6.196   1.535 -2.4485 -0.0066 -1.9272
57363SOL     OW82402   8.464   5.917   8.614 -0.2128  0.3654 -0.1731
57363SOL    HW182403   8.482   5.848   8.550  0.6694  1.1492 -0.7988
57363SOL    HW282404   8.550   5.940   8.649 -0.6373  0.2572  0.9911
57364SOL     OW82405   1.790   4.064   1.535  0.1228 -0.2784 -0.1017
57364SOL    HW182406   1.734   4.105   1.600  0.3225  0.2309 -0.2428
57364SOL    HW282407   1.859   4.128   1.519  0.9945 -1.0627  0.3885
57365SOL     OW82408  10.474   8.158   8.545 -0.2959 -0.1579  0.5541
57365SOL    HW182409  10.546   8.119   8.496 -1.2151 -0.7275 -0.3862
57365SOL    HW282410  10.433   8.219   8.483  0.4266  1.5177  1.6306
57366SOL     OW82411   9.755   6.548   3.280  0.5192 -0.4471  0.1501
57366SOL    HW182412   9.743   6.500   3.362  0.1354 -0.7575 -0.0835
57366SOL    HW282413   9.667   6.577   3.256  0.8250  0.9497  0.6202
57367SOL     OW82414   9.433   4.258   4.504 -0.2517 -0.6457  0.0096
57367SOL    HW182415   9.387   4.340   4.523  1.9983  0.5934  0.5297
57367SOL    HW282416   9.427   4.249   4.409 -0.1819  0.3643 -0.0996
57368SOL     OW82417   2.618   6.284   5.698 -0.1877  0.2712 -0.4216
57368SOL    HW182418   2.684   6.291   5.629 -0.6546 -0.0430 -0.9106
57368SOL    HW282419   2.563   6.211   5.671 -0.7873  0.5850 -0.0656
57369SOL     OW82420  12.802   9.075   8.358 -0.2255  0.7372  0.0792
57369SOL    HW182421  12.895   9.076   8.336  0.4307 -1.8627  2.1344
57369SOL    HW282422  12.760   9.034   8.283  0.6576 -0.0943  0.0083
57370SOL     OW82423   4.145   3.182   1.198 -0.2931  0.1744  0.1676
57370SOL    HW182424   4.222   3.201   1.144  0.1409 -0.9077  0.3763
57370SOL    HW282425   4.098   3.265   1.204  1.5461  1.2142  1.1265
57371SOL     OW82426   1.084   1.101   3.912 -0.7837  0.4198 -0.4375
57371SOL    HW182427   1.056   1.104   4.003  0.6433  2.4937  0.0058
57371SOL    HW282428   1.128   1.016   3.903 -0.4798  0.4083  0.9548
57372SOL     OW82429   5.991   2.765   5.551  0.3451 -0.0781  0.1926
57372SOL    HW182430   6.053   2.830   5.585  1.1798 -1.3421  1.1598
57372SOL    HW282431   5.953   2.807   5.474  2.0707  0.9161 -0.1739
57373SOL     OW82432   5.727  11.603   2.282 -0.4254  0.0697 -0.1845
57373SOL    HW182433   5.655  11.664   2.300  0.6292  1.4218 -0.4012
57373SOL    HW282434   5.745  11.613   2.189 -0.7919 -1.2497 -0.4274
57374SOL     OW82435   8.656   8.380   1.527 -0.2318  0.2675  0.6813
57374SOL    HW182436   8.612   8.426   1.456  0.0765  0.5460  0.6719
57374SOL    HW282437   8.741   8.355   1.491 -0.3122 -0.1234  0.7552
57375SOL     OW82438   4.019   7.623   4.035 -0.0713  0.0291  0.2671
57375SOL    HW182439   4.026   7.537   3.995 -0.5291 -0.5735  1.4292
57375SOL    HW282440   4.109   7.646   4.059 -0.2790 -1.9811  3.5982
57376SOL     OW82441  11.768   2.204   6.428  0.4113  0.5339  0.5321
57376SOL    HW182442  11.676   2.222   6.445  0.6268  2.0699  0.2642
57376SOL    HW282443  11.799   2.283   6.383  1.0300 -1.2845 -2.5223
57377SOL     OW82444   5.561   4.804   4.425  0.4187 -0.5873  0.3843
57377SOL    HW182445   5.575   4.723   4.474 -0.0585 -2.2967 -2.1065
57377SOL    HW282446   5.468   4.823   4.437  0.3924 -0.7706  0.4704
57378SOL     OW82447   0.427  12.198   2.512  0.7963 -0.1459  0.1319
57378SOL    HW182448   0.519  12.223   2.523  1.3176 -0.8220 -2.1531
57378SOL    HW282449   0.385  12.277   2.479  0.6699 -0.0000  0.6337
57379SOL     OW82450   7.406  12.629   0.958  0.1616 -0.1103 -0.7176
57379SOL    HW182451   7.321  12.643   1.000  0.1260  2.4608 -1.4478
57379SOL    HW282452   7.389  12.561   0.893 -1.4647  0.5377 -1.0452
57380SOL     OW82453   0.871   9.888  10.909  0.6887 -0.1259  0.4675
57380SOL    HW182454   0.811   9.954  10.875  1.3895 -0.5693 -1.7558
57380SOL    HW282455   0.924   9.935  10.974  0.0495  1.0461  0.1654
57381SOL     OW82456   8.901   9.231   7.436 -0.1674 -0.1957 -0.4155
57381SOL    HW182457   8.829   9.294   7.448 -1.2487 -0.8662 -2.8347
57381SOL    HW282458   8.978   9.285   7.419 -0.8261  0.5017 -1.2576
57382SOL     OW82459   1.721   8.527   6.987 -0.3965  0.2448 -0.0660
57382SOL    HW182460   1.779   8.450   6.988 -0.7224 -0.0037 -0.1162
57382SOL    HW282461   1.657   8.507   6.919  1.4114  1.9613 -2.4854
57383SOL     OW82462  10.151   2.920   1.819  0.2731  0.3435 -0.5006
57383SOL    HW182463  10.055   2.928   1.817 -0.2674 -3.2423  1.5740
57383SOL    HW282464  10.180   2.989   1.879 -1.3297  0.0533  0.6800
57384SOL     OW82465   3.233  12.139  10.139  0.0835 -0.3833 -0.1850
57384SOL    HW182466   3.227  12.078  10.065  0.3549 -1.3209  0.5516
57384SOL    HW282467   3.324  12.169  10.138  0.0286 -0.2146 -0.3567
57385SOL     OW82468  11.636   0.426   2.385  0.3148 -0.4827  0.0469
57385SOL    HW182469  11.615   0.344   2.429 -1.3453  0.1642  0.5497
57385SOL    HW282470  11.593   0.420   2.300  0.8531 -0.4441 -0.2322
57386SOL     OW82471   1.209  11.326   0.212  0.3902 -0.1733  0.0174
57386SOL    HW182472   1.136  11.265   0.217  1.0448 -1.1533 -1.6080
57386SOL    HW282473   1.198  11.370   0.128  0.9417  0.6481  0.3583
57387SOL     OW82474   8.921   7.350   7.613  0.0096 -0.2762  0.0992
57387SOL    HW182475   8.826   7.343   7.610 -0.3120  2.7190 -0.3807
57387SOL    HW282476   8.951   7.322   7.527 -0.4470 -1.1552  0.2238
57388SOL     OW82477   1.897  12.917  12.560 -0.3625  0.0504  0.0269
57388SOL    HW182478   1.927  12.971  12.633 -1.9311  1.1547 -0.0780
57388SOL    HW282479   1.815  12.958  12.532 -0.9623 -1.6685 -0.9062
57389SOL     OW82480   6.098   7.893   2.763  0.4372 -0.1772  0.4997
57389SOL    HW182481   6.136   7.805   2.764 -1.5178 -1.0949  0.3315
57389SOL    HW282482   6.045   7.895   2.683 -0.1543  0.8732  0.8906
57390SOL     OW82483   1.548   6.188  12.612  0.0167  0.1902  0.0725
57390SOL    HW182484   1.516   6.178  12.702  0.4860  0.4576  0.2728
57390SOL    HW282485   1.472   6.168  12.557  0.1999 -1.8119  0.4891
57391SOL     OW82486   3.301   0.180   2.468 -0.2647  0.0244 -0.2396
57391SOL    HW182487   3.263   0.156   2.384 -0.1198  1.3090 -0.6955
57391SOL    HW282488   3.380   0.230   2.445  0.3312 -0.4594  0.6737
57392SOL     OW82489   7.915   9.651   1.781  0.1799  0.4622  0.7488
57392SOL    HW182490   7.851   9.585   1.757 -0.9086  1.8192 -0.2486
57392SOL    HW282491   7.936   9.632   1.873 -0.3010 -1.0640  0.5666
57393SOL     OW82492   3.094   6.588  12.403  0.0223 -0.1797  0.4036
57393SOL    HW182493   3.007   6.554  12.426 -0.1499 -0.1519 -0.1846
57393SOL    HW282494   3.128   6.526  12.339 -0.0738  0.4547 -0.2798
57394SOL     OW82495   2.022   8.647  12.320  0.4074  0.2557  0.4266
57394SOL    HW182496   1.927   8.658  12.309  0.2555 -0.0103  1.3979
57394SOL    HW282497   2.044   8.576  12.261  0.0637  0.5510 -0.0673
57395SOL     OW82498   3.569   7.925  10.282 -1.0955 -0.2593  0.0516
57395SOL    HW182499   3.580   8.020  10.287  1.7650 -0.5627  0.8226
57395SOL    HW282500   3.514   7.904  10.358  0.8691  0.5209  1.7892
57396SOL     OW82501   1.920  11.298   6.586 -0.6149 -0.4399  0.5758
57396SOL    HW182502   1.906  11.254   6.502 -0.1463 -0.5827  0.5693
57396SOL    HW282503   2.008  11.271   6.613 -1.0178 -0.9357  1.4415
57397SOL     OW82504  12.920   1.598   1.309 -0.0749 -0.0412  0.7362
57397SOL    HW182505  12.831   1.575   1.282  0.3596 -0.4415 -0.3941
57397SOL    HW282506  12.946   1.667   1.249  0.1207  0.5912  1.5363
57398SOL     OW82507   6.175   7.272   0.384  0.2609  0.3242  0.1138
57398SOL    HW182508   6.117   7.242   0.453  0.1055  1.4550  0.4932
57398SOL    HW282509   6.121   7.329   0.329  0.6342  0.2282 -0.3628
57399SOL     OW82510   3.570  12.728   9.218  0.4355 -0.2624 -0.3885
57399SOL    HW182511   3.547  12.797   9.280  0.0237 -0.4124 -0.3667
57399SOL    HW282512   3.611  12.774   9.145  0.9550 -0.0897  0.0058
57400SOL     OW82513   4.389   1.016  10.186 -0.3189  0.5386  0.6577
57400SOL    HW182514   4.458   0.989  10.247 -0.0773  0.9761  0.5831
57400SOL    HW282515   4.357   0.934  10.148  0.4556  0.3632  0.3784
57401SOL     OW82516   2.583   3.393  10.047 -0.0257  0.4958  0.0171
57401SOL    HW182517   2.545   3.478  10.028  0.2238  0.9183  1.2919
57401SOL    HW282518   2.676   3.401  10.024 -0.2427  0.1469 -1.0523
57402SOL     OW82519   7.163   9.109   2.455  0.1415 -0.3739 -0.2780
57402SOL    HW182520   7.141   9.066   2.537 -0.5784 -1.5026 -1.0299
57402SOL    HW282521   7.246   9.069   2.428  0.2058 -0.2484 -0.2684
57403SOL     OW82522  10.711   7.885  12.008  0.3705 -0.0128  0.3808
57403SOL    HW182523  10.680   7.824  12.075 -0.6779  0.9911  0.8417
57403SOL    HW282524  10.631   7.927  11.976  0.6286 -1.5475 -2.6373
57404SOL     OW82525   8.874   0.190  10.078 -0.1544  0.3536 -0.8702
57404SOL    HW182526   8.852   0.274  10.119  2.9380  1.4383 -1.1258
57404SOL    HW282527   8.790   0.152  10.054 -1.8073  2.2615  1.4089
57405SOL     OW82528   2.313   2.093   7.329  0.6788 -0.1017 -0.0314
57405SOL    HW182529   2.308   2.173   7.277  1.3769  1.6315  2.3635
57405SOL    HW282530   2.380   2.040   7.285 -1.3843 -0.4824 -2.9499
57406SOL     OW82531   1.084   6.142  10.722 -0.2495 -0.6300  0.0759
57406SOL    HW182532   1.001   6.096  10.709  0.0321 -1.0329 -0.3788
57406SOL    HW282533   1.084   6.169  10.814 -1.2614  0.1427 -0.1414
57407SOL     OW82534   8.318  12.259   9.328 -0.0129  0.1618 -0.3828
57407SOL    HW182535   8.339  12.167   9.342  0.5598 -0.1481 -2.7566
57407SOL    HW282536   8.223  12.264   9.337  0.0248 -0.4773  0.5249
57408SOL     OW82537   0.287  12.755   6.351 -0.8426  0.4300  0.0295
57408SOL    HW182538   0.273  12.689   6.282  2.3616 -0.1318 -0.2472
57408SOL    HW282539   0.232  12.726   6.424 -0.7313 -1.6802 -0.6543
57409SOL     OW82540  11.953  12.374   6.883  0.0349  0.3570  0.2079
57409SOL    HW182541  11.870  12.387   6.929 -0.0645 -0.6401  0.3221
57409SOL    HW282542  11.954  12.442   6.816 -0.7568  0.5291  0.3653
57410SOL     OW82543   1.002   2.495   4.245  0.6612  0.0357  0.3478
57410SOL    HW182544   1.088   2.458   4.226 -0.2083 -1.1758 -1.4502
57410SOL    HW282545   1.004   2.512   4.340  3.0980  0.7225  0.2331
57411SOL     OW82546   1.449   8.887   3.550  0.1430 -0.1178  0.6147
57411SOL    HW182547   1.384   8.952   3.525 -0.8525 -1.3160 -0.0845
57411SOL    HW282548   1.492   8.863   3.467 -0.1792 -1.0159  0.6884
57412SOL     OW82549   8.274   3.933  11.672  0.4079  0.4706  0.3262
57412SOL    HW182550   8.259   4.027  11.676  0.2095  0.4655 -0.1614
57412SOL    HW282551   8.362   3.920  11.708  0.6328  0.8965 -0.0666
57413SOL     OW82552   2.059   2.472   6.855 -0.2228  0.0145  0.2038
57413SOL    HW182553   2.141   2.516   6.834 -0.3936  1.0768  1.5506
57413SOL    HW282554   2.029   2.516   6.935 -1.8293 -0.7091  0.0338
57414SOL     OW82555   4.775   7.736   3.887  0.4798 -0.8568  0.2357
57414SOL    HW182556   4.815   7.720   3.802 -2.5587 -0.4610 -1.3839
57414SOL    HW282557   4.781   7.652   3.933  2.2602 -1.0320 -0.2291
57415SOL     OW82558  10.681   2.958   6.549 -0.2480 -0.3896  0.1148
57415SOL    HW182559  10.730   2.884   6.515  0.2224  0.1562 -0.4136
57415SOL    HW282560  10.691   2.952   6.644  0.9898 -0.1958  0.0119
57416SOL     OW82561  12.012   5.164   5.846 -0.1336  0.6538 -0.0832
57416SOL    HW182562  12.006   5.085   5.792 -0.9117  0.4516  0.2930
57416SOL    HW282563  12.068   5.223   5.795  0.6267 -0.2031 -0.2767
57417SOL     OW82564  12.043   7.569   3.129 -0.9847 -0.4005 -0.5739
57417SOL    HW182565  11.960   7.587   3.085 -1.7479  0.8608  1.2664
57417SOL    HW282566  12.018   7.524   3.210  0.0105  0.9408  0.5193
57418SOL     OW82567   1.701   7.496   8.328 -0.1695  0.0804 -0.0695
57418SOL    HW182568   1.643   7.422   8.351 -0.7349  0.2996 -0.7563
57418SOL    HW282569   1.725   7.534   8.413  0.9449 -1.4834  0.3717
57419SOL     OW82570   3.140   3.191   0.994  0.1735 -0.1331 -0.3018
57419SOL    HW182571   3.057   3.228   1.024 -0.5886 -0.4708 -1.8783
57419SOL    HW282572   3.157   3.119   1.055 -0.8944 -0.2955 -0.1733
57420SOL     OW82573   6.229   1.955  12.116  0.2028  0.4907 -0.0694
57420SOL    HW182574   6.141   1.944  12.081  0.2239  0.7828 -0.2127
57420SOL    HW282575   6.286   1.953  12.038  0.5476 -1.9283  0.1576
57421SOL     OW82576   5.671   9.529  11.339 -0.0360  0.6371 -0.6543
57421SOL    HW182577   5.697   9.553  11.428 -0.6464 -0.3242 -0.2063
57421SOL    HW282578   5.742   9.472  11.309  0.1362  0.9073 -0.7727
57422SOL     OW82579   0.590   2.103   0.935 -0.2999 -0.6248 -0.1637
57422SOL    HW182580   0.543   2.142   0.862 -1.2805 -2.0573 -0.3465
57422SOL    HW282581   0.675   2.080   0.899 -0.9655 -1.8129 -1.0440
57423SOL     OW82582   9.326   2.025   2.647  0.0198 -0.0727 -0.2438
57423SOL    HW182583   9.303   1.932   2.647  0.8900 -0.3034  0.4532
57423SOL    HW282584   9.253   2.067   2.694  0.8610 -0.7667  1.7910
57424SOL     OW82585   6.793   1.293   5.387  0.3176  0.1469  0.1421
57424SOL    HW182586   6.827   1.234   5.320 -1.8408  0.2575 -1.1350
57424SOL    HW282587   6.807   1.380   5.351 -0.2615  0.2326  0.1195
57425SOL     OW82588   8.800   1.807   8.264 -0.3051  0.3829 -0.4035
57425SOL    HW182589   8.714   1.804   8.221 -0.0466 -0.4418 -0.8837
57425SOL    HW282590   8.803   1.727   8.316  0.0601  0.5546 -0.1604
57426SOL     OW82591   0.924   7.972  12.018 -0.0680  0.3844  0.1079
57426SOL    HW182592   0.897   7.919  11.942 -1.2284  0.8262  0.1818
57426SOL    HW282593   1.019   7.970  12.016 -0.0648 -1.7335  0.1292
57427SOL     OW82594   7.003   6.911   6.519 -0.3128  0.1926  0.0991
57427SOL    HW182595   7.089   6.909   6.561 -0.1488  0.4976 -0.2220
57427SOL    HW282596   6.956   6.982   6.561 -0.3323  0.1645  0.1256
57428SOL     OW82597  12.234   3.675   6.470 -0.5124 -0.2766  0.1299
57428SOL    HW182598  12.235   3.691   6.376  2.4396 -0.8356 -0.0500
57428SOL    HW282599  12.224   3.580   6.479 -1.9597 -0.1140  0.4738
57429SOL     OW82600  11.788  12.398  12.979 -0.1374 -0.4132 -0.3101
57429SOL    HW182601  11.821  12.311  12.954 -0.4992 -0.4413 -0.7072
57429SOL    HW282602  11.741  12.384  13.061  1.9420 -0.1421  0.9843
57430SOL     OW82603  12.282  12.539   5.996  0.0517 -0.1114  0.1227
57430SOL    HW182604  12.362  12.578   6.033 -0.7528  1.3885  0.3804
57430SOL    HW282605  12.248  12.607   5.937 -0.9304 -0.7994 -0.1265
57431SOL     OW82606   1.656  11.198   4.522 -0.4322  0.3122 -0.3154
57431SOL    HW182607   1.644  11.105   4.541 -0.8653  0.2147 -1.0287
57431SOL    HW282608   1.720  11.200   4.451 -0.1905  0.5767 -0.0913
57432SOL     OW82609   2.526  11.373  11.427 -0.5224 -0.0530  0.3582
57432SOL    HW182610   2.588  11.440  11.454  0.4503 -1.0057  0.5841
57432SOL    HW282611   2.469  11.416  11.363 -1.0405  1.4450  1.7569
57433SOL     OW82612   9.065   5.755   8.462  0.3885 -0.0379 -0.1876
57433SOL    HW182613   8.996   5.719   8.407  1.3684 -0.2348 -1.3243
57433SOL    HW282614   9.145   5.714   8.431  1.0734  0.4051  0.9096
57434SOL     OW82615   8.069  12.935   2.279 -0.2923 -0.5137  0.1616
57434SOL    HW182616   8.070  12.945   2.184  1.7871  1.4810  0.2981
57434SOL    HW282617   7.978  12.951   2.304 -0.4240  1.3750 -1.3201
57435SOL     OW82618   6.530  10.391   0.665  0.1281 -0.8340 -0.3029
57435SOL    HW182619   6.524  10.350   0.752  0.7678  0.9204  0.6255
57435SOL    HW282620   6.442  10.385   0.629 -0.3565 -0.8515  0.8372
57436SOL     OW82621   9.978  11.622   6.710 -0.2858 -0.0222 -0.3764
57436SOL    HW182622  10.044  11.618   6.780 -1.7864  0.4336  1.1341
57436SOL    HW282623  10.000  11.701   6.662  0.1981  0.1972  0.1822
57437SOL     OW82624  12.970   3.973   5.049  0.2240  0.5541 -0.1619
57437SOL    HW182625  13.060   3.952   5.075  0.2532  2.1666  1.1451
57437SOL    HW282626  12.915   3.917   5.104  0.3797  1.0884  0.5353
57438SOL     OW82627   3.645   8.067   0.717 -0.1623  0.5451 -0.6894
57438SOL    HW182628   3.688   8.144   0.754 -0.9733  1.5846 -1.8297
57438SOL    HW282629   3.608   8.022   0.793  1.1933  0.7026  0.0985
57439SOL     OW82630   8.002   1.187   6.932  0.6522  0.2609 -0.2652
57439SOL    HW182631   7.954   1.207   6.851 -0.1473 -1.4979 -0.2696
57439SOL    HW282632   7.989   1.264   6.987 -0.2841  0.7613 -1.1487
57440SOL     OW82633   3.972   4.118   7.973  0.5599 -0.3683  0.1385
57440SOL    HW182634   3.939   4.183   8.035  1.8759 -0.3847  0.8848
57440SOL    HW282635   4.008   4.048   8.027  2.6361  0.0715 -0.5874
57441SOL     OW82636   6.950   5.526   2.390  0.2118  0.0375 -0.4485
57441SOL    HW182637   6.951   5.621   2.380  0.0690  0.0176 -0.6666
57441SOL    HW282638   6.933   5.512   2.483  1.3351  0.2264 -0.2030
57442SOL     OW82639   1.619   7.984  11.908  0.4152  0.2913  0.2699
57442SOL    HW182640   1.595   8.063  11.956 -2.4734  0.5532 -1.3667
57442SOL    HW282641   1.635   8.015  11.818  1.2745 -0.7418  0.0456
57443SOL     OW82642   8.590   8.748  10.289  0.4892  0.2257  0.2876
57443SOL    HW182643   8.634   8.664  10.276 -0.2109 -0.4080  1.8189
57443SOL    HW282644   8.594   8.790  10.203  2.8302 -0.3894  0.0185
57444SOL     OW82645   4.639   7.603  11.683 -0.3389 -0.5454 -0.0285
57444SOL    HW182646   4.711   7.665  11.691  0.0058 -0.7712 -1.1747
57444SOL    HW282647   4.569   7.639  11.738  0.0678  0.5389 -0.2174
57445SOL     OW82648  11.063   0.373  11.222  0.4186 -0.3066  0.3716
57445SOL    HW182649  11.047   0.380  11.128 -1.1283  0.0368  0.6262
57445SOL    HW282650  11.148   0.415  11.235 -1.0569  3.3526 -0.4068
57446SOL     OW82651   1.786  11.126  12.535  0.0692  0.0251  0.1592
57446SOL    HW182652   1.703  11.158  12.501  0.5204  0.7102 -0.3397
57446SOL    HW282653   1.779  11.031  12.532 -1.3123  0.0344  1.6643
57447SOL     OW82654   8.817   7.477   5.053 -0.8065 -0.1311  0.2289
57447SOL    HW182655   8.792   7.428   5.131  0.6401 -0.9289  0.2248
57447SOL    HW282656   8.823   7.568   5.082 -1.1338 -0.2968  0.8339
57448SOL     OW82657   0.295   5.467   7.397 -0.5607 -0.1657 -0.0429
57448SOL    HW182658   0.203   5.442   7.411 -0.0282 -2.3876 -0.0493
57448SOL    HW282659   0.311   5.449   7.304 -0.0916  0.0420 -0.0054
57449SOL     OW82660   3.105   8.574   9.496 -0.0639 -0.3131  0.0718
57449SOL    HW182661   3.196   8.586   9.527  0.4058 -0.8864 -1.0502
57449SOL    HW282662   3.070   8.505   9.552  0.2080 -0.1405  0.4636
57450SOL     OW82663   4.002   4.319   5.824  0.0125  0.5147 -0.2986
57450SOL    HW182664   4.017   4.224   5.819  0.8910  0.6702 -0.9787
57450SOL    HW282665   4.064   4.349   5.891 -0.0456  0.6480 -0.3045
57451SOL     OW82666   8.700   0.399   4.679  0.5256  0.3810  0.0868
57451SOL    HW182667   8.637   0.454   4.725 -1.1414  0.3278 -1.9819
57451SOL    HW282668   8.676   0.406   4.587  1.1060 -2.7100 -0.4141
57452SOL     OW82669   0.279   3.029  10.620 -0.0338  0.4768  0.3378
57452SOL    HW182670   0.192   2.995  10.642  0.1939 -2.0023 -2.0094
57452SOL    HW282671   0.282   3.030  10.525  2.2044  1.4292  0.3375
57453SOL     OW82672   5.012   6.902   7.127  0.7357  0.6804 -0.7443
57453SOL    HW182673   5.036   6.851   7.204  1.2271  1.9137 -0.0579
57453SOL    HW282674   4.935   6.857   7.091  1.8953 -1.2860 -0.9266
57454SOL     OW82675   4.047  12.791   4.415  0.0325 -0.2674 -0.0242
57454SOL    HW182676   3.964  12.748   4.437  1.2134 -2.2011  0.9275
57454SOL    HW282677   4.091  12.729   4.356  0.9964  0.5185 -0.1506
57455SOL     OW82678   4.592   2.855   2.864 -0.0216  0.3916  0.6207
57455SOL    HW182679   4.652   2.929   2.876 -0.7231  1.0559  0.1451
57455SOL    HW282680   4.563   2.832   2.952 -0.4908  1.2782  0.7071
57456SOL     OW82681  12.614   9.603   0.092 -0.8843  0.3294 -0.0640
57456SOL    HW182682  12.546   9.545   0.058 -1.3642  0.0313  1.3118
57456SOL    HW282683  12.568   9.658   0.155  0.1828 -0.0002  1.0393
57457SOL     OW82684   5.194  12.977   9.813 -0.0990 -0.1313  0.0651
57457SOL    HW182685   5.104  12.946   9.819 -0.4156  0.6325 -0.5156
57457SOL    HW282686   5.241  12.928   9.881 -0.5490 -1.8967 -0.8195
57458SOL     OW82687   7.973   0.443   6.934  0.3284 -0.4340 -0.1412
57458SOL    HW182688   8.027   0.486   6.868 -0.6624  2.0306  0.5616
57458SOL    HW282689   7.893   0.495   6.939 -0.2152 -1.3404  2.0098
57459SOL     OW82690   5.534   2.205   9.793  0.0356 -0.4209  0.4778
57459SOL    HW182691   5.588   2.140   9.748 -1.5057  0.0069 -2.1309
57459SOL    HW282692   5.489   2.155   9.861 -0.0635 -1.7975 -0.5588
57460SOL     OW82693   8.014   8.181   0.361 -0.3151 -0.3866  0.3748
57460SOL    HW182694   7.926   8.170   0.396 -1.4018  0.9174 -1.7262
57460SOL    HW282695   8.017   8.124   0.284 -0.3315  1.5026 -1.1205
57461SOL     OW82696   2.650  10.832   1.876  0.2793  0.4071  0.6153
57461SOL    HW182697   2.743  10.811   1.885  0.8960  0.9356 -2.9679
57461SOL    HW282698   2.623  10.788   1.796 -1.8472  2.3972  0.1353
57462SOL     OW82699   9.839   1.795  12.949  0.0957  0.3305 -0.1073
57462SOL    HW182700   9.919   1.743  12.944  0.3740  0.7510 -0.0475
57462SOL    HW282701   9.812   1.789  13.040  0.3347  0.5884 -0.0151
57463SOL     OW82702   0.465   8.983   7.339 -0.2455 -0.4531  0.3858
57463SOL    HW182703   0.535   9.047   7.321  0.4830 -1.5260 -0.7415
57463SOL    HW282704   0.507   8.919   7.396 -0.5013 -0.7558  0.2348
57464SOL     OW82705   8.025   4.127   2.889 -0.2215  0.3466  0.4230
57464SOL    HW182706   8.109   4.157   2.855  0.3459 -0.9749  0.6000
57464SOL    HW282707   8.044   4.043   2.930 -1.3597  0.7262  1.8018
57465SOL     OW82708   0.452  11.368   7.412 -0.1100  0.5771 -0.8712
57465SOL    HW182709   0.368  11.327   7.392  0.2916 -0.2048 -0.9765
57465SOL    HW282710   0.511  11.295   7.431  0.0643  1.1697  1.1847
57466SOL     OW82711   9.384  12.760   4.689  0.3700  0.1369  0.2933
57466SOL    HW182712   9.310  12.763   4.750  0.1840 -1.0165  0.1379
57466SOL    HW282713   9.455  12.805   4.736 -0.3310  1.0079  0.5537
57467SOL     OW82714   1.076  11.950   6.679  0.6455  0.0692 -0.0789
57467SOL    HW182715   1.127  12.031   6.688  0.1485  0.3936 -0.1375
57467SOL    HW282716   0.987  11.980   6.660  0.4873 -0.4969 -0.2402
57468SOL     OW82717   9.269   8.434   5.865  0.1885 -0.3606  0.2136
57468SOL    HW182718   9.328   8.429   5.790 -1.1660 -1.5403 -0.8119
57468SOL    HW282719   9.233   8.346   5.874 -0.5353  0.0393  1.5603
57469SOL     OW82720   5.762   0.660   9.124 -0.1320 -0.2154 -0.7177
57469SOL    HW182721   5.842   0.659   9.071 -0.1228 -0.5125 -0.7022
57469SOL    HW282722   5.691   0.658   9.060 -0.1222 -1.3956 -0.7260
57470SOL     OW82723   0.174   9.123   5.590  0.2055 -0.3362  0.1833
57470SOL    HW182724   0.146   9.058   5.526  0.2998  0.2796 -0.4974
57470SOL    HW282725   0.269   9.111   5.596  0.5626  1.0983 -1.5444
57471SOL     OW82726   9.205   7.454   8.261  0.5573 -0.1877  0.1231
57471SOL    HW182727   9.220   7.495   8.347  0.3083  0.9958 -0.3773
57471SOL    HW282728   9.134   7.505   8.223  0.1871 -1.1543 -0.5076
57472SOL     OW82729   9.735   4.220  12.926 -0.1228  0.3151 -0.6062
57472SOL    HW182730   9.676   4.228  13.001  1.3846  0.3133  0.6212
57472SOL    HW282731   9.694   4.153  12.870 -1.7513  0.9971 -0.2856
57473SOL     OW82732  11.043   9.018   2.028  0.2810 -0.1083  0.2481
57473SOL    HW182733  11.008   8.944   1.978  0.3169 -1.6302  2.3552
57473SOL    HW282734  10.966   9.068   2.054  0.0791 -0.5552  0.5251
57474SOL     OW82735   2.896  10.183   9.078 -0.2423 -0.0053 -0.1037
57474SOL    HW182736   2.897  10.219   9.167  1.4408 -0.6305  0.1902
57474SOL    HW282737   2.987  10.192   9.048 -0.3639 -1.4945 -1.0321
57475SOL     OW82738   7.668  12.404   5.102  0.3740  0.5048 -0.3866
57475SOL    HW182739   7.645  12.414   5.195  0.8123  1.7477 -0.3834
57475SOL    HW282740   7.595  12.445   5.055  0.6316  0.7995 -0.5378
57476SOL     OW82741   5.366   7.883  10.412  0.1139  0.6253  0.4866
57476SOL    HW182742   5.447   7.927  10.439  0.6954 -0.7640  1.1052
57476SOL    HW282743   5.372   7.795  10.450 -0.8024 -0.1541 -1.0406
57477SOL     OW82744   6.808  11.928   3.779 -0.0642 -0.2455  0.4010
57477SOL    HW182745   6.837  11.928   3.688  1.9781  0.2197  1.0060
57477SOL    HW282746   6.827  12.016   3.811  0.0071 -0.6427  1.5017
57478SOL     OW82747   3.214  11.916   3.098 -0.0934 -0.2463  0.2478
57478SOL    HW182748   3.295  11.905   3.048  0.5527  1.9398  0.6785
57478SOL    HW282749   3.237  11.887   3.187 -0.0674 -0.5258  0.1488
57479SOL     OW82750   9.615  12.488   9.107 -0.1272 -0.3231 -0.1268
57479SOL    HW182751   9.685  12.535   9.061 -1.1710  0.8294 -0.5835
57479SOL    HW282752   9.567  12.442   9.038 -0.4438 -0.2677  0.0534
57480SOL     OW82753   7.295  10.727   3.946 -0.1189 -0.0265 -0.8766
57480SOL    HW182754   7.344  10.759   3.871 -1.4941  0.5839 -1.5623
57480SOL    HW282755   7.320  10.784   4.019 -0.5167  0.9039 -1.4494
57481SOL     OW82756  11.525   7.764  12.785 -0.2070  0.1088 -0.0901
57481SOL    HW182757  11.510   7.684  12.836  1.5185  0.7840  1.6080
57481SOL    HW282758  11.492   7.834  12.842 -2.2838  0.6246 -1.8187
57482SOL     OW82759   7.774   3.592   4.319 -0.3518  0.3269 -0.0160
57482SOL    HW182760   7.717   3.520   4.291  1.1644 -0.9974  0.1438
57482SOL    HW282761   7.808   3.629   4.238  0.5924 -0.6197 -0.0725
57483SOL     OW82762  10.757  10.196   9.674  0.1386  0.7786  0.1982
57483SOL    HW182763  10.758  10.260   9.746 -0.2532 -0.6096  1.4797
57483SOL    HW282764  10.666  10.194   9.645  0.0469  0.4434  0.5011
57484SOL     OW82765   5.296   2.986  11.121 -0.2956 -0.4491 -0.1933
57484SOL    HW182766   5.337   3.073  11.122  0.0218 -0.5985  0.4764
57484SOL    HW282767   5.322   2.947  11.204 -1.3337 -0.7756 -0.0167
57485SOL     OW82768   2.922   7.780   9.029 -0.1067 -0.3776 -0.0468
57485SOL    HW182769   2.966   7.737   8.956 -0.9195 -2.1481  0.4415
57485SOL    HW282770   2.972   7.860   9.044  1.2187 -0.9294 -1.2953
57486SOL     OW82771   9.770   6.684   0.031  0.2366 -0.2105 -0.0094
57486SOL    HW182772   9.843   6.722  -0.018 -1.5249 -0.8384 -3.4029
57486SOL    HW282773   9.792   6.592   0.041  1.2338  0.1796  1.7749
57487SOL     OW82774   1.398   7.763   5.815  0.1149 -0.7415  0.0675
57487SOL    HW182775   1.314   7.764   5.860 -0.9498  0.5976 -1.8341
57487SOL    HW282776   1.408   7.672   5.784 -1.5746 -0.5099 -1.2977
57488SOL     OW82777   3.597  10.199  11.991  0.3682 -0.2512  0.0313
57488SOL    HW182778   3.507  10.221  12.012  0.7651  0.7414  0.7653
57488SOL    HW282779   3.633  10.163  12.072 -0.1686 -3.4966 -1.0425
57489SOL     OW82780   3.985  12.392   0.806  0.8806 -0.3767  0.1647
57489SOL    HW182781   3.971  12.451   0.732  0.7007  1.1488  1.3692
57489SOL    HW282782   3.904  12.341   0.811 -0.4911  1.7392  1.2072
57490SOL     OW82783   2.616  11.185  11.830 -0.7976 -0.4208  0.0013
57490SOL    HW182784   2.550  11.137  11.880 -1.0666 -0.6964 -0.6138
57490SOL    HW282785   2.571  11.265  11.802 -2.0435 -2.0925 -3.3142
57491SOL     OW82786   1.598   0.111   3.427 -0.5582  0.0850  0.0460
57491SOL    HW182787   1.658   0.179   3.396  1.0785 -0.3413  2.0738
57491SOL    HW282788   1.641   0.029   3.403 -0.9509 -0.2267  0.4093
57492SOL     OW82789   6.832   1.049   1.019 -0.6120 -0.3004 -0.5480
57492SOL    HW182790   6.915   1.020   1.057 -0.3715 -1.6026 -1.9687
57492SOL    HW282791   6.853   1.069   0.928 -1.5830  0.7076 -0.5628
57493SOL     OW82792   7.782   7.385   1.156 -0.3648 -0.2945 -0.3466
57493SOL    HW182793   7.820   7.299   1.172  0.1668  0.0470  0.2944
57493SOL    HW282794   7.769   7.422   1.244  2.2422  1.4814 -0.5706
57494SOL     OW82795  12.806   2.205  12.174  0.4433  0.3826 -0.4657
57494SOL    HW182796  12.854   2.188  12.254  1.6974  1.0985 -1.0410
57494SOL    HW282797  12.738   2.268  12.200  3.5279  4.1611 -0.6776
57495SOL     OW82798   2.834   6.669   6.700  0.1789 -0.0303  0.5264
57495SOL    HW182799   2.815   6.642   6.790  2.8858 -0.7036  0.9769
57495SOL    HW282800   2.815   6.591   6.648 -0.8057  0.1666  0.5672
57496SOL     OW82801   4.223   4.596   0.552  0.0306 -0.1996 -0.1187
57496SOL    HW182802   4.317   4.600   0.534 -0.0462 -0.7743 -0.6562
57496SOL    HW282803   4.211   4.654   0.627  0.8561 -0.3316  0.1223
57497SOL     OW82804   9.204   1.027   8.806  0.0880  0.3103  0.0475
57497SOL    HW182805   9.188   0.943   8.849 -1.5347 -0.1547 -1.3542
57497SOL    HW282806   9.291   1.019   8.767 -1.4572 -2.3199 -3.3836
57498SOL     OW82807  11.617   8.535   1.796 -0.1124 -0.2373  0.4553
57498SOL    HW182808  11.589   8.451   1.831 -2.5700  0.5134  0.4495
57498SOL    HW282809  11.610   8.525   1.701  0.2243 -0.2204  0.4268
57499SOL     OW82810   1.217   9.864  12.472 -0.2874 -0.0588  0.2351
57499SOL    HW182811   1.246   9.930  12.536  1.0387  0.5740 -0.9640
57499SOL    HW282812   1.272   9.788  12.490 -0.5555 -0.2089  0.4316
57500SOL     OW82813   8.883   4.930   4.048 -0.2576 -0.2784  0.0394
57500SOL    HW182814   8.925   4.871   3.985 -1.3764 -0.8887 -0.1660
57500SOL    HW282815   8.789   4.923   4.028 -0.6298 -0.3865  1.6728
57501SOL     OW82816   9.666   6.712   5.053 -0.2691 -0.1165  0.2735
57501SOL    HW182817   9.652   6.621   5.079  0.7816 -0.2906  0.2739
57501SOL    HW282818   9.749   6.736   5.095 -0.3594  0.7296 -0.0163
57502SOL     OW82819   8.701   2.963   3.256 -0.5564 -0.3667 -0.2604
57502SOL    HW182820   8.701   2.894   3.323 -0.5675 -0.4512 -0.3473
57502SOL    HW282821   8.754   3.033   3.295 -0.0372 -0.6649 -0.4111
57503SOL     OW82822   5.903   2.298  10.826  1.0519  0.0177 -0.5623
57503SOL    HW182823   5.996   2.320  10.840  1.0408  0.4159 -1.0862
57503SOL    HW282824   5.897   2.280  10.733  0.3844  1.0754 -0.7381
57504SOL     OW82825   7.178   8.471   4.942 -0.1620 -0.1022  0.4895
57504SOL    HW182826   7.211   8.533   5.007  0.4245 -0.0653  0.1611
57504SOL    HW282827   7.173   8.521   4.861  0.3156 -0.4763  0.2238
57505SOL     OW82828   7.968   5.294   3.209  0.2415 -0.1588  0.1255
57505SOL    HW182829   7.944   5.291   3.117  0.7962  0.1965 -0.0379
57505SOL    HW282830   7.911   5.361   3.247  0.4428  0.1422 -0.0963
57506SOL     OW82831  11.768   8.721   2.730 -0.1769  0.3679  0.3681
57506SOL    HW182832  11.847   8.670   2.712  0.5347  1.2142  0.9793
57506SOL    HW282833  11.736   8.687   2.814  0.4027  1.0215  0.8687
57507SOL     OW82834  10.505   7.226   7.615 -0.4700  0.1512 -0.5781
57507SOL    HW182835  10.583   7.237   7.670  0.4593  0.5373 -1.9196
57507SOL    HW282836  10.534   7.251   7.527 -2.1101  0.2887 -1.1178
57508SOL     OW82837   7.638   8.217   0.070 -0.1977 -0.4533  0.0027
57508SOL    HW182838   7.697   8.146   0.094  0.4193  0.0404 -0.0307
57508SOL    HW282839   7.607   8.252   0.153 -0.1502 -0.4746  0.0290
57509SOL     OW82840   6.651  12.885   8.074 -0.4592 -0.3398  0.3336
57509SOL    HW182841   6.687  12.829   8.005 -1.4462 -1.7016  0.8781
57509SOL    HW282842   6.724  12.898   8.134  0.3492  0.6678 -0.8112
57510SOL     OW82843   9.672   2.850   4.226 -0.4013 -0.5545 -0.3213
57510SOL    HW182844   9.673   2.945   4.212 -0.0941 -0.3614  0.9217
57510SOL    HW282845   9.762   2.822   4.210 -0.1283 -0.3851  0.8679
57511SOL     OW82846   3.079  11.366  11.058 -0.0788 -0.3861  0.0719
57511SOL    HW182847   2.998  11.349  11.105 -0.4532  1.5770  0.2163
57511SOL    HW282848   3.125  11.282  11.058 -0.7815 -0.8572  2.5684
57512SOL     OW82849  12.637   5.818  12.682 -0.1484  0.2012 -0.0813
57512SOL    HW182850  12.732   5.811  12.672 -0.2479 -1.5137 -0.0105
57512SOL    HW282851  12.622   5.813  12.777 -0.4110 -1.5586 -0.1807
57513SOL     OW82852  12.610   9.750   1.641  0.4050 -0.1024  0.2221
57513SOL    HW182853  12.542   9.757   1.574  0.0305  0.0926  0.6152
57513SOL    HW282854  12.631   9.657   1.644 -1.4215 -0.5329  1.6135
57514SOL     OW82855  12.835   3.645  11.622  0.9495  0.2281  0.2536
57514SOL    HW182856  12.849   3.678  11.533  0.5875  2.1226  0.8550
57514SOL    HW282857  12.739   3.642  11.631  0.9854  0.0216  0.5700
57515SOL     OW82858   3.423  12.673   1.355 -0.1958 -0.0148  0.4335
57515SOL    HW182859   3.477  12.623   1.416 -1.3749  0.9235  2.3350
57515SOL    HW282860   3.413  12.615   1.280 -0.5094 -2.1583  2.0334
57516SOL     OW82861  10.535   4.957   8.850 -0.0209 -0.6633  0.2420
57516SOL    HW182862  10.620   4.944   8.892  0.5456  0.7130 -0.4037
57516SOL    HW282863  10.497   4.870   8.845 -0.1863 -0.9402  3.6905
57517SOL     OW82864   1.175   5.726  11.363  0.2624 -0.0482 -0.1117
57517SOL    HW182865   1.178   5.643  11.315  0.3135  0.0433 -0.2652
57517SOL    HW282866   1.083   5.753  11.358  0.3294  0.1263 -0.4392
57518SOL     OW82867   6.485   6.761   4.027 -0.0669 -0.4113  0.2393
57518SOL    HW182868   6.471   6.768   4.122 -1.9739  0.3629 -0.0506
57518SOL    HW282869   6.430   6.687   4.001 -0.3628  0.0292 -0.4010
57519SOL     OW82870  11.147   7.285   5.282  0.0988 -1.0504 -0.1356
57519SOL    HW182871  11.126   7.193   5.298  1.2246 -1.1252  1.0251
57519SOL    HW282872  11.234   7.297   5.318  0.7235  0.0577 -1.8676
57520SOL     OW82873   9.558   6.070   3.664 -0.7741 -0.4692 -0.0370
57520SOL    HW182874   9.527   6.029   3.745 -1.4502  0.0538 -0.0186
57520SOL    HW282875   9.553   6.164   3.682 -0.0024 -0.3648 -0.3513
57521SOL     OW82876   4.461   5.824   7.402 -0.6566 -0.1619  0.0845
57521SOL    HW182877   4.476   5.915   7.376  1.8853 -0.2605  0.9011
57521SOL    HW282878   4.378   5.827   7.450  0.8315  2.4211  2.8549
57522SOL     OW82879   0.014   8.636  10.659 -0.2136 -0.5612 -0.2953
57522SOL    HW182880   0.031   8.731  10.654  0.1437 -0.5598  0.8081
57522SOL    HW282881   0.073   8.605  10.728  1.1145 -1.9331 -1.9407
57523SOL     OW82882   1.337   5.084   2.865 -0.1809 -0.1000  0.2245
57523SOL    HW182883   1.340   5.079   2.961 -0.7051 -0.4424  0.2299
57523SOL    HW282884   1.381   5.165   2.844 -0.5794  0.2749  0.7973
57524SOL     OW82885   8.400   8.929   5.968 -0.9479  0.3954 -0.2447
57524SOL    HW182886   8.459   9.002   5.983 -1.1929  0.7759 -1.1178
57524SOL    HW282887   8.317   8.957   6.007  0.2366 -1.5892  4.5074
57525SOL     OW82888   1.094   2.393  11.387  0.1354 -0.1020 -0.1840
57525SOL    HW182889   1.074   2.391  11.294 -2.0532 -0.3024  0.2412
57525SOL    HW282890   1.107   2.486  11.407 -1.4780  0.1803 -0.3259
57526SOL     OW82891   7.006   4.303   4.048  0.0378  0.1089 -0.0715
57526SOL    HW182892   6.918   4.325   4.019  0.2760  0.9470 -0.2027
57526SOL    HW282893   7.062   4.324   3.974  0.3113 -0.8668 -0.1565
57527SOL     OW82894   5.087   2.714   2.553  0.6945 -0.2683 -0.3920
57527SOL    HW182895   5.053   2.802   2.541 -1.0235 -0.8445  0.0332
57527SOL    HW282896   5.168   2.726   2.603 -1.1250  0.8868  2.4726
57528SOL     OW82897   1.447   1.299  11.537 -0.0923  0.1102  0.5238
57528SOL    HW182898   1.380   1.334  11.597  0.7375 -0.1589  1.6377
57528SOL    HW282899   1.453   1.206  11.560  0.3292  0.0266  0.0916
57529SOL     OW82900  10.906  12.915   4.169  0.3073  0.9058 -0.6351
57529SOL    HW182901  10.817  12.915   4.135  0.7781  0.0718 -1.9689
57529SOL    HW282902  10.942  12.999   4.140  0.4362  0.5606 -1.5222
57530SOL     OW82903   8.283  10.184  10.783  0.3691  0.0760  0.4357
57530SOL    HW182904   8.229  10.228  10.848  1.5703  0.2552  1.3349
57530SOL    HW282905   8.240  10.099  10.770 -1.3575  1.0324 -0.5279
57531SOL     OW82906  10.287   6.721   4.884  0.0403 -0.1455  0.2439
57531SOL    HW182907  10.223   6.694   4.819  0.3293  0.3683 -0.2654
57531SOL    HW282908  10.237   6.773   4.947 -0.2341 -0.6164  0.4183
57532SOL     OW82909  10.374   4.143  11.274 -0.1333 -0.2107 -0.6779
57532SOL    HW182910  10.305   4.210  11.266 -0.9818 -1.2385 -2.5029
57532SOL    HW282911  10.431   4.159  11.199  1.3152  0.2257  0.4688
57533SOL     OW82912   7.350   0.712   7.600  0.8807 -0.3640 -0.0183
57533SOL    HW182913   7.306   0.794   7.619  2.6052  0.8861 -1.1333
57533SOL    HW282914   7.299   0.673   7.529 -0.6791 -0.9477  1.3425
57534SOL     OW82915   6.574  11.844   0.172 -0.5477 -0.3467 -0.0066
57534SOL    HW182916   6.604  11.923   0.126 -0.0625 -0.5168  0.0147
57534SOL    HW282917   6.520  11.798   0.108  1.0713 -1.1773 -0.8327
57535SOL     OW82918  12.675   6.529   9.283 -0.7190 -0.3757  0.9497
57535SOL    HW182919  12.683   6.533   9.187  0.6921  0.0281  1.0680
57535SOL    HW282920  12.591   6.571   9.301  0.3527  2.3934  0.0786
57536SOL     OW82921   7.807   0.451   8.290 -0.0956 -0.1346  0.2590
57536SOL    HW182922   7.760   0.375   8.255 -1.7004  1.0214 -0.2253
57536SOL    HW282923   7.819   0.432   8.383 -0.7463 -0.8351  0.2066
57537SOL     OW82924   4.683  11.883   6.675  0.1927  0.0032  0.3531
57537SOL    HW182925   4.637  11.824   6.616  1.9887  0.6046 -1.8335
57537SOL    HW282926   4.664  11.970   6.642  2.1652  0.3038 -0.1571
57538SOL     OW82927   2.908  10.757   1.945  0.0007 -0.0772  0.1769
57538SOL    HW182928   2.911  10.665   1.971  0.8195  0.2299  1.2532
57538SOL    HW282929   2.962  10.802   2.010  1.8000  0.8279 -1.8266
57539SOL     OW82930   9.290  11.962   4.846 -0.8311  0.1108  0.1228
57539SOL    HW182931   9.234  12.033   4.877 -0.7744  0.4552 -0.5355
57539SOL    HW282932   9.266  11.951   4.754 -0.2656 -0.1727  0.0024
57540SOL     OW82933   8.989   5.523   1.890 -0.5436  0.1013 -0.0060
57540SOL    HW182934   8.953   5.608   1.915 -1.5232 -0.1951 -0.3777
57540SOL    HW282935   8.946   5.502   1.807  0.7066 -0.1372 -0.6181
57541SOL     OW82936   8.758   7.121   8.341  0.0792  0.8462 -0.1424
57541SOL    HW182937   8.749   7.086   8.252  2.6252  1.0587 -0.5484
57541SOL    HW282938   8.708   7.203   8.340 -0.6725  0.3973 -1.0795
57542SOL     OW82939   6.809   8.099  10.931 -0.6209 -0.2988 -0.3158
57542SOL    HW182940   6.768   8.050  11.002 -1.0051 -1.2204 -1.1436
57542SOL    HW282941   6.747   8.091  10.858 -0.6143  1.3055 -0.5244
57543SOL     OW82942  11.919   3.461   8.999 -0.7352  0.1329 -0.3285
57543SOL    HW182943  11.953   3.491   9.084 -1.6965 -2.3040  0.9903
57543SOL    HW282944  11.831   3.428   9.018 -0.6801 -1.1906 -2.1189
57544SOL     OW82945   5.247   9.047   4.788  0.3877  0.0812  0.7048
57544SOL    HW182946   5.194   8.981   4.834 -0.3079  1.0058  1.2657
57544SOL    HW282947   5.329   9.050   4.836  0.6237 -0.7252  0.3701
57545SOL     OW82948   5.094   9.553   0.811  0.4827 -0.1228 -0.4428
57545SOL    HW182949   5.163   9.507   0.859  0.6879  1.0505  0.4154
57545SOL    HW282950   5.070   9.627   0.867 -0.9907 -0.1029 -1.0467
57546SOL     OW82951  11.325   2.228   6.025  0.8418  0.0047  0.2375
57546SOL    HW182952  11.325   2.149   6.078  2.1498  0.7834  1.4532
57546SOL    HW282953  11.283   2.294   6.079 -0.7356  0.0578 -0.9766
57547SOL     OW82954   0.943   1.685  12.956 -0.7248 -0.3101 -0.5592
57547SOL    HW182955   0.900   1.747  12.898  2.6285  0.8719 -2.0129
57547SOL    HW282956   0.900   1.601  12.938 -3.7938  1.0565 -0.2288
57548SOL     OW82957   7.661  12.481   4.436 -0.4251  0.7625  0.7125
57548SOL    HW182958   7.694  12.571   4.440  2.2789 -0.1370  0.8440
57548SOL    HW282959   7.670  12.448   4.525  0.3051 -0.1578  0.3133
57549SOL     OW82960   1.874   1.363   5.956 -0.0437 -0.2137 -0.3119
57549SOL    HW182961   1.926   1.306   5.900  1.5025  0.8366 -0.0032
57549SOL    HW282962   1.783   1.338   5.937  0.4813 -0.9150 -2.1616
57550SOL     OW82963   6.649  10.335   2.340 -0.0552  0.5616  0.7964
57550SOL    HW182964   6.717  10.301   2.281  0.1519  0.2473  1.2086
57550SOL    HW282965   6.652  10.276   2.415 -1.5292 -0.1242  0.3600
57551SOL     OW82966   6.702   0.621   5.996  0.6144 -0.1553 -0.3236
57551SOL    HW182967   6.639   0.692   5.987  0.7918 -0.0610 -0.8546
57551SOL    HW282968   6.773   0.657   6.049  0.0684 -0.3664  0.5637
57552SOL     OW82969   4.483   0.923   8.445  0.0804  0.2614 -0.6230
57552SOL    HW182970   4.490   0.828   8.437  0.2209  0.1617  0.4848
57552SOL    HW282971   4.444   0.937   8.532  0.6264  1.2235 -0.5163
57553SOL     OW82972  10.332  12.004   4.723  0.1668  0.1296 -0.4768
57553SOL    HW182973  10.271  11.995   4.796 -0.1690  1.3107 -0.5903
57553SOL    HW282974  10.414  12.031   4.764  0.6052 -1.3265 -0.3379
57554SOL     OW82975  11.483   2.687  10.986  0.2261  0.0760  0.1884
57554SOL    HW182976  11.444   2.622  10.928  2.2408 -1.1319  0.0571
57554SOL    HW282977  11.409   2.732  11.027 -1.2380 -1.5499 -0.5669
57555SOL     OW82978   4.257   1.010   9.747 -0.2570  0.4490  0.0537
57555SOL    HW182979   4.230   1.029   9.836  0.8760  1.6144  0.1700
57555SOL    HW282980   4.246   1.093   9.700 -1.0950 -0.2132 -0.9643
57556SOL     OW82981   2.220   3.302  11.852 -0.1013  0.3869 -0.5638
57556SOL    HW182982   2.189   3.288  11.941 -0.7102 -1.5898 -1.0226
57556SOL    HW282983   2.315   3.313  11.860  0.6170 -4.2631  0.1001
57557SOL     OW82984   8.649   5.408   3.860  0.4696 -0.1776 -0.0758
57557SOL    HW182985   8.711   5.476   3.834  0.2414 -0.1960 -0.7012
57557SOL    HW282986   8.588   5.452   3.919 -0.5289  0.5566 -1.5896
57558SOL     OW82987   7.190   8.608   9.024  0.1935 -0.2709 -0.2479
57558SOL    HW182988   7.206   8.702   9.031  2.6810 -0.4901 -1.8357
57558SOL    HW282989   7.096   8.598   9.036 -0.2534  2.5108 -0.9628
57559SOL     OW82990   2.754   6.481   4.105  0.8186  0.1643 -0.3526
57559SOL    HW182991   2.749   6.494   4.011  1.3784 -1.9904 -0.7145
57559SOL    HW282992   2.739   6.569   4.142  0.7029  1.0608 -2.4148
57560SOL     OW82993   0.457   5.332   8.746 -0.1132  0.0851 -0.0496
57560SOL    HW182994   0.502   5.294   8.821 -1.0873 -1.5881 -0.2560
57560SOL    HW282995   0.370   5.355   8.780  0.1761  1.3758 -0.1458
57561SOL     OW82996   6.171   7.585   1.787  0.3152 -0.0200  0.1760
57561SOL    HW182997   6.159   7.577   1.882  0.3726 -1.9963  0.0711
57561SOL    HW282998   6.102   7.531   1.750  0.1115  0.9884 -0.9263
57562SOL     OW82999  10.114   8.065   1.995  0.1890  0.0889 -0.1900
57562SOL    HW183000  10.210   8.068   1.991  0.2492  2.4913  1.2321
57562SOL    HW283001  10.094   7.979   2.031  1.6482 -1.2639 -2.3276
57563SOL     OW83002   7.786   9.908   0.245  0.0690 -0.5913  0.3822
57563SOL    HW183003   7.875   9.887   0.218 -0.0358 -0.3114 -0.2064
57563SOL    HW283004   7.781   9.882   0.337  0.6054 -1.0623  0.2796
57564SOL     OW83005   2.965   1.763   9.068 -0.6974  0.4116  0.4571
57564SOL    HW183006   2.951   1.829   9.136  1.7103  1.4040  0.0830
57564SOL    HW283007   3.019   1.697   9.110  1.9693  1.6975 -0.7436
57565SOL     OW83008   4.142   8.970   2.411 -0.5624  0.1943 -0.2626
57565SOL    HW183009   4.107   8.883   2.391 -2.0869  1.0639 -1.6131
57565SOL    HW283010   4.075   9.030   2.379  0.3839  1.8770  0.8149
57566SOL     OW83011  10.877   8.791   5.983  0.1359 -0.2227  0.2452
57566SOL    HW183012  10.833   8.859   5.932 -0.2472 -1.1520 -0.7183
57566SOL    HW283013  10.881   8.716   5.923  1.2473 -0.7983  1.0074
57567SOL     OW83014  12.149  12.509  10.075 -0.0998 -0.1518  0.2777
57567SOL    HW183015  12.075  12.531  10.019  0.4588  0.3935 -0.2679
57567SOL    HW283016  12.184  12.594  10.103 -0.4255 -0.4142  1.5466
57568SOL     OW83017  11.538  10.754   7.630 -0.0225 -0.5245 -0.7844
57568SOL    HW183018  11.559  10.829   7.576  0.8066 -0.5062 -0.4451
57568SOL    HW283019  11.450  10.729   7.603 -0.5403  0.9124 -0.5018
57569SOL     OW83020  12.782  10.464   9.316 -0.0410 -0.1694  0.2279
57569SOL    HW183021  12.743  10.549   9.295  0.8270  0.0801 -0.4989
57569SOL    HW283022  12.858  10.486   9.371 -0.5074 -0.5805  1.0457
57570SOL     OW83023   4.006   5.859  10.366 -0.2434 -0.0994  0.4814
57570SOL    HW183024   3.990   5.917  10.440  1.4179  0.5534  0.3778
57570SOL    HW283025   4.063   5.791  10.401  1.2079  0.6480 -0.3442
57571SOL     OW83026   1.895  11.738  12.600  0.4296  0.2305  0.1237
57571SOL    HW183027   1.904  11.673  12.670 -0.3523 -0.7200 -0.6320
57571SOL    HW283028   1.979  11.735  12.554  1.8200  2.4086  2.2225
57572SOL     OW83029   5.259  11.546   2.666 -0.3577 -0.3411  0.3297
57572SOL    HW183030   5.165  11.528   2.674 -0.1330 -0.6315  3.3899
57572SOL    HW283031   5.296  11.466   2.630 -1.1692 -0.5640 -0.0342
57573SOL     OW83032   6.162   0.289   6.315 -0.3252 -0.5435 -0.4147
57573SOL    HW183033   6.151   0.253   6.403 -1.1487  0.1157 -0.2317
57573SOL    HW283034   6.126   0.378   6.321 -0.2101 -0.4232 -1.3681
57574SOL     OW83035   6.006   8.934   4.764 -0.1793  0.7470  0.4909
57574SOL    HW183036   6.081   8.905   4.712  0.4429 -1.2961  2.3434
57574SOL    HW283037   5.930   8.896   4.721 -0.0043  1.4436 -0.4695
57575SOL     OW83038   3.267  10.321   2.683 -0.3179  0.1608  0.2436
57575SOL    HW183039   3.318  10.239   2.682 -1.3784 -0.5498  1.1036
57575SOL    HW283040   3.283  10.357   2.770 -0.8390  0.2128  0.3207
57576SOL     OW83041   9.698   0.989   7.474  0.0890  0.6502  0.6004
57576SOL    HW183042   9.688   0.978   7.379  0.9526  0.0031  0.5675
57576SOL    HW283043   9.726   0.903   7.505  0.5572  1.0598  1.3395
57577SOL     OW83044   7.974   7.621   6.577  0.0432  0.0261  0.2001
57577SOL    HW183045   7.956   7.671   6.498 -2.5970 -0.0399  0.6734
57577SOL    HW283046   8.048   7.667   6.618  0.4372  0.9707 -1.4735
57578SOL     OW83047   3.504   2.476   4.961  0.2935  0.0550  0.4668
57578SOL    HW183048   3.587   2.522   4.971  0.3091 -0.1515  1.3969
57578SOL    HW283049   3.438   2.545   4.969  0.3705  0.2985 -0.7871
57579SOL     OW83050  11.683  11.222   5.085  0.4430 -0.2583 -0.1153
57579SOL    HW183051  11.702  11.198   4.994 -0.4814 -0.7796 -0.1789
57579SOL    HW283052  11.768  11.216   5.129  0.5345 -2.0469 -0.4887
57580SOL     OW83053  11.114  10.496   9.219  0.0878 -0.0771  0.2864
57580SOL    HW183054  11.033  10.547   9.218  0.4788  0.6336 -2.0201
57580SOL    HW283055  11.153  10.515   9.304 -2.1247 -0.4383  1.4529
57581SOL     OW83056   5.029   2.974   3.597  0.4078 -0.2955  0.0198
57581SOL    HW183057   4.963   3.038   3.570 -0.7187 -1.4900 -0.1402
57581SOL    HW283058   5.030   2.909   3.527  0.0782 -1.5117  1.1095
57582SOL     OW83059   2.545   0.675   5.213  0.2947 -0.3540 -0.1001
57582SOL    HW183060   2.461   0.654   5.173  0.3359 -1.7676  0.5191
57582SOL    HW283061   2.543   0.770   5.224 -1.0069 -0.3088 -0.5500
57583SOL     OW83062   5.630   2.969   8.246 -0.5870 -0.5992 -0.2966
57583SOL    HW183063   5.558   2.915   8.213 -0.6774  1.1274 -3.1915
57583SOL    HW283064   5.684   2.908   8.296 -3.2972 -2.2401  0.9117
57584SOL     OW83065   2.190   3.985  10.621  0.5951  0.0421 -0.5080
57584SOL    HW183066   2.158   4.051  10.683  1.9218  1.0092 -0.7949
57584SOL    HW283067   2.116   3.925  10.609 -0.3064  0.8896  0.5588
57585SOL     OW83068   5.572   9.289  10.418 -0.5030  0.4838 -0.4265
57585SOL    HW183069   5.539   9.199  10.417 -0.1617  0.3596 -0.4375
57585SOL    HW283070   5.594   9.305  10.509 -0.6725  0.5958 -0.4050
57586SOL     OW83071   4.108   5.711   8.035  0.1671  0.3903  0.2399
57586SOL    HW183072   4.060   5.778   8.084  0.9606  0.9551  0.2502
57586SOL    HW283073   4.075   5.719   7.945 -1.5969 -0.9220  0.7094
57587SOL     OW83074  10.426  11.067   9.826  0.0786  0.1609 -0.1782
57587SOL    HW183075  10.381  11.107   9.900 -1.3883  0.4126 -1.1658
57587SOL    HW283076  10.493  11.131   9.802  0.7876 -0.0647  1.0995
57588SOL     OW83077   7.306   0.718   9.197 -0.9995  0.3388  0.2863
57588SOL    HW183078   7.319   0.625   9.218 -1.0448  0.0951 -0.7171
57588SOL    HW283079   7.395   0.754   9.195 -1.0542  0.6500  2.0520
57589SOL     OW83080  12.479  11.766  11.898  0.1996 -0.1783 -0.0672
57589SOL    HW183081  12.464  11.859  11.914  0.0169  0.0543 -1.4666
57589SOL    HW283082  12.416  11.743  11.830  1.6551 -0.7973 -1.2695
57590SOL     OW83083  11.956  11.629   3.723  0.3254  0.4320 -0.2536
57590SOL    HW183084  11.976  11.559   3.785 -1.5148 -0.9007 -1.0571
57590SOL    HW283085  11.886  11.680   3.765 -0.0562  0.2772 -0.6891
57591SOL     OW83086   7.019  11.848   0.740  0.0103 -0.0483 -0.0950
57591SOL    HW183087   6.930  11.862   0.771 -0.4184  0.9148 -1.6883
57591SOL    HW283088   7.054  11.935   0.724 -0.0565 -0.4715 -2.9502
57592SOL     OW83089   9.438   8.910   0.127 -0.0498 -0.2924 -0.2782
57592SOL    HW183090   9.414   8.952   0.044 -0.1557  0.0722 -0.0690
57592SOL    HW283091   9.387   8.958   0.193 -1.3410 -1.7292 -0.1769
57593SOL     OW83092   6.373   0.958   5.394  0.0904  0.0958 -0.3524
57593SOL    HW183093   6.453   0.978   5.346  0.0022 -0.6335 -0.8083
57593SOL    HW283094   6.379   1.011   5.474  1.3382 -0.4363 -0.0749
57594SOL     OW83095   6.002   7.431   9.125 -0.1765  0.4667 -0.3173
57594SOL    HW183096   6.016   7.382   9.044  0.0926 -0.5803  0.3298
57594SOL    HW283097   5.947   7.504   9.101  0.5242  0.5941 -1.5862
57595SOL     OW83098   7.110  12.315   0.513  0.3110 -0.1488 -0.2870
57595SOL    HW183099   7.164  12.280   0.442 -0.0660  1.4400 -1.3978
57595SOL    HW283100   7.166  12.307   0.591  1.2399 -0.7006 -0.9926
57596SOL     OW83101   0.691   4.933   5.990  0.5174 -0.7249 -0.0099
57596SOL    HW183102   0.743   5.003   5.952 -0.1559 -0.8595 -1.2117
57596SOL    HW283103   0.628   4.910   5.922  0.5595 -2.3325  0.4568
57597SOL     OW83104   1.860   8.087  12.496  0.0961  0.2460 -0.1422
57597SOL    HW183105   1.951   8.105  12.518 -0.1062  0.4933  0.5271
57597SOL    HW283106   1.851   7.992  12.507  0.4693  0.0999 -1.0067
57598SOL     OW83107   2.769   1.868   9.497 -0.0266  0.0723 -0.3050
57598SOL    HW183108   2.675   1.856   9.509 -0.2314  1.2403 -0.5645
57598SOL    HW283109   2.809   1.801   9.552 -1.0078 -0.1272  0.1943
57599SOL     OW83110  12.651   2.739   2.790  0.8225 -0.3599 -0.4919
57599SOL    HW183111  12.668   2.774   2.878 -3.0793 -2.8317  1.5322
57599SOL    HW283112  12.661   2.815   2.732 -0.1594  2.3734  2.5837
57600SOL     OW83113   5.625   1.129  10.122 -0.6953  0.0745 -0.2944
57600SOL    HW183114   5.559   1.065  10.149  0.5409 -2.3582 -2.5314
57600SOL    HW283115   5.687   1.078  10.069  1.2977  2.8528 -0.8509
57601SOL     OW83116   6.600   4.048   6.612 -0.4617  0.1551  0.2389
57601SOL    HW183117   6.624   4.140   6.599 -0.1849  0.1556  0.7169
57601SOL    HW283118   6.505   4.048   6.621 -0.7356  0.1118 -2.0726
57602SOL     OW83119  11.068   4.867  11.384  0.0104  0.0882  0.2094
57602SOL    HW183120  11.116   4.812  11.322  1.9165  0.3231  1.4096
57602SOL    HW283121  11.004   4.807  11.424 -0.8960 -0.1831 -1.5267
57603SOL     OW83122   7.991   2.284   3.017 -0.1947  0.1577 -0.1904
57603SOL    HW183123   7.999   2.379   3.011  0.9317  0.0587 -0.3960
57603SOL    HW283124   7.936   2.260   2.942 -0.0858  0.6002 -0.4174
57604SOL     OW83125   5.868  10.767  11.404  0.0437 -0.2620  0.0026
57604SOL    HW183126   5.913  10.849  11.382 -0.7247 -0.4187 -2.4403
57604SOL    HW283127   5.831  10.782  11.490 -0.0271  1.9646 -0.3686
57605SOL     OW83128  10.508   5.700   4.043  0.2408  0.2269 -0.5256
57605SOL    HW183129  10.587   5.671   4.088  0.1699  0.3112 -0.3484
57605SOL    HW283130  10.540   5.736   3.959  0.2718 -0.9986 -1.0559
57606SOL     OW83131  12.688   1.606   3.387 -0.0464 -0.3032  0.0420
57606SOL    HW183132  12.662   1.623   3.297 -0.5857 -2.1171 -0.1783
57606SOL    HW283133  12.723   1.690   3.418 -0.4155  0.5131 -1.6391
57607SOL     OW83134  11.945   8.035   3.324  0.1448 -0.3729 -0.0870
57607SOL    HW183135  12.013   8.043   3.391  1.5343 -1.7756 -1.2617
57607SOL    HW283136  11.923   7.942   3.323  0.1584 -0.3805 -1.5543
57608SOL     OW83137   2.838   1.766   0.555 -0.4018  0.0452  0.4396
57608SOL    HW183138   2.872   1.809   0.633  1.4987  0.0991 -0.3494
57608SOL    HW283139   2.896   1.690   0.543 -1.4008 -0.6318 -0.2528
57609SOL     OW83140   3.935   6.135   4.088 -0.3245  0.3204 -0.0956
57609SOL    HW183141   3.977   6.200   4.032  2.4166 -1.5486 -0.3950
57609SOL    HW283142   3.864   6.183   4.132  1.3331  3.3915 -0.5120
57610SOL     OW83143   3.258   1.855   7.062 -0.2709  0.9704 -0.9713
57610SOL    HW183144   3.204   1.836   7.139 -0.8119  1.4747 -1.2182
57610SOL    HW283145   3.345   1.821   7.085 -1.2289 -2.1129 -1.5289
57611SOL     OW83146   4.297  11.361   8.550  0.5167  0.1622 -0.1168
57611SOL    HW183147   4.342  11.434   8.506  0.0848  0.8444  0.5463
57611SOL    HW283148   4.228  11.403   8.602  1.6551 -0.4967  2.0361
57612SOL     OW83149   2.744   1.307   0.001 -0.2904  0.4076 -1.0069
57612SOL    HW183150   2.660   1.261   0.009 -0.1916  0.2050 -1.1252
57612SOL    HW283151   2.749   1.361   0.080  0.0099 -0.4737 -0.4102
57613SOL     OW83152   7.016  11.204   4.545  0.4422 -0.1856 -0.0484
57613SOL    HW183153   7.012  11.182   4.639  2.4494  2.4860  0.7933
57613SOL    HW283154   7.029  11.298   4.544 -1.5419  0.1770 -3.1540
57614SOL     OW83155  10.780  12.340   1.587  0.2382  0.0910  0.0292
57614SOL    HW183156  10.840  12.313   1.657 -0.7432  0.1553  0.9174
57614SOL    HW283157  10.808  12.429   1.565 -2.1879  1.9943  3.6000
57615SOL     OW83158   2.930  12.137   4.991 -0.0358 -0.1700 -0.3975
57615SOL    HW183159   2.959  12.129   5.081  1.1179 -0.2908 -0.7678
57615SOL    HW283160   2.870  12.063   4.978  0.4172 -0.6111  0.0243
57616SOL     OW83161   2.325   0.269   0.574 -0.1277 -0.1037  0.2759
57616SOL    HW183162   2.270   0.220   0.636  0.9203  0.3253  1.5974
57616SOL    HW283163   2.280   0.353   0.564 -1.0857 -0.7197 -0.7382
57617SOL     OW83164  10.349  11.447   8.070 -0.0713 -0.0553 -0.0200
57617SOL    HW183165  10.262  11.408   8.077 -0.3412  0.6917  1.1649
57617SOL    HW283166  10.407  11.374   8.049 -0.9954 -0.5332 -0.9606
57618SOL     OW83167   2.969   1.723   4.304  0.2804  0.0016  0.5955
57618SOL    HW183168   2.964   1.678   4.220 -0.5293  0.7520  0.2288
57618SOL    HW283169   3.045   1.684   4.348  0.7142 -0.3955 -0.4802
57619SOL     OW83170  10.146   0.797   3.148 -0.3817 -0.2429 -0.0972
57619SOL    HW183171  10.153   0.892   3.156  1.2863 -0.1292 -2.1180
57619SOL    HW283172  10.056   0.783   3.118 -1.1201  0.5362  1.6326
57620SOL     OW83173  12.769   8.592   0.120 -0.1962 -0.2110 -0.1276
57620SOL    HW183174  12.751   8.521   0.059 -0.1575 -0.4664  0.1599
57620SOL    HW283175  12.755   8.672   0.068 -0.3492 -0.4236 -0.4160
57621SOL     OW83176   0.254  10.536   5.184  0.4612 -0.3342  0.0161
57621SOL    HW183177   0.339  10.498   5.163  0.9774  0.4424  0.6611
57621SOL    HW283178   0.270  10.592   5.260 -0.4658  0.4559 -0.3495
57622SOL     OW83179   6.012   2.614   7.245  0.3992 -0.2355 -0.4323
57622SOL    HW183180   5.971   2.621   7.158  0.1121  0.2162 -0.2636
57622SOL    HW283181   6.068   2.691   7.251  0.4636 -0.2978 -0.2375
57623SOL     OW83182  11.153   8.746  12.895  0.2356  0.0855  0.0254
57623SOL    HW183183  11.221   8.728  12.960 -0.9421 -0.8771  1.0489
57623SOL    HW283184  11.094   8.670  12.901 -1.6361  1.4748  0.1090
57624SOL     OW83185  10.878   4.014   4.739 -0.7878 -0.0035 -0.2076
57624SOL    HW183186  10.847   3.996   4.651 -0.2190  2.0443 -0.8837
57624SOL    HW283187  10.804   3.992   4.796 -1.8292  0.4452 -1.3674
57625SOL     OW83188  12.849   1.330   2.907  0.1422 -0.4139  0.3132
57625SOL    HW183189  12.763   1.372   2.915  0.4308  0.0476  1.1144
57625SOL    HW283190  12.893   1.380   2.838 -0.4194 -1.0027 -0.4935
57626SOL     OW83191   0.986   5.411   3.811  0.2928 -0.6521  0.3996
57626SOL    HW183192   0.979   5.500   3.776 -1.0627 -0.8646  0.1050
57626SOL    HW283193   0.995   5.423   3.906  1.2374 -0.1782  0.2629
57627SOL     OW83194   4.066  10.100   8.382  0.0129  0.0585  0.0998
57627SOL    HW183195   4.126  10.169   8.357  1.2023 -0.6200  0.9520
57627SOL    HW283196   4.024  10.072   8.300  0.6248  0.7560 -0.4542
57628SOL     OW83197  12.925   2.810  12.871 -0.1829  0.5999 -0.0782
57628SOL    HW183198  12.884   2.734  12.829  0.7488  0.2449 -0.3763
57628SOL    HW283199  12.984   2.845  12.804 -0.1609  1.2301  0.2650
57629SOL     OW83200   3.378   2.587   7.760  0.0564  0.4309  0.2016
57629SOL    HW183201   3.451   2.546   7.714 -0.2597  1.1731 -1.0378
57629SOL    HW283202   3.348   2.521   7.822  1.0150 -0.3313 -0.1242
57630SOL     OW83203   6.200  11.293   8.834  0.1332  0.1520 -0.5432
57630SOL    HW183204   6.126  11.349   8.808  0.4228 -0.1106 -2.0359
57630SOL    HW283205   6.169  11.204   8.816  0.3845 -0.0446 -0.0187
57631SOL     OW83206   8.614   2.198  12.972 -0.5346 -0.3326 -0.0783
57631SOL    HW183207   8.544   2.157  13.024 -0.4281 -1.1422 -0.5571
57631SOL    HW283208   8.568   2.255  12.911 -0.9417 -2.2276 -1.6290
57632SOL     OW83209   1.958   2.013   8.698  0.1800 -0.1375  0.3267
57632SOL    HW183210   2.004   1.978   8.774 -0.6322 -1.2816  0.3231
57632SOL    HW283211   2.022   2.071   8.656  0.5343  0.8357  2.0620
57633SOL     OW83212   0.995   1.653   1.633 -0.0827 -0.7786  0.0828
57633SOL    HW183213   1.032   1.707   1.563 -2.2426 -0.4354 -0.8914
57633SOL    HW283214   1.014   1.563   1.607 -1.2190 -0.6783 -1.2341
57634SOL     OW83215   1.789  11.720   7.980 -0.2351 -0.4531  0.0448
57634SOL    HW183216   1.751  11.640   7.944  0.2975  0.4342 -2.7466
57634SOL    HW283217   1.883  11.704   7.983 -0.3233 -1.0165  2.6426
57635SOL     OW83218   0.043   3.397   3.275  0.4243 -0.5255 -0.1515
57635SOL    HW183219  -0.004   3.460   3.221  0.4788  0.4030  0.8370
57635SOL    HW283220   0.041   3.435   3.363  2.6759 -0.6424  0.0089
57636SOL     OW83221   5.754   2.752   9.365 -0.0397 -0.1519  0.0452
57636SOL    HW183222   5.837   2.772   9.410 -0.2994 -0.9978  0.9304
57636SOL    HW283223   5.756   2.657   9.354 -0.9880 -0.1984  0.2505
57637SOL     OW83224  12.089  10.530   2.638 -0.2404  0.0067 -0.4964
57637SOL    HW183225  12.016  10.590   2.618 -0.2442 -0.0505 -0.6550
57637SOL    HW283226  12.047  10.453   2.676 -0.0692  1.1713  2.3097
57638SOL     OW83227  10.593   6.357   6.909 -0.6895  0.4411 -0.7254
57638SOL    HW183228  10.675   6.345   6.862  0.6776 -0.3634  1.6991
57638SOL    HW283229  10.530   6.303   6.861  1.0925 -1.9273 -0.6026
57639SOL     OW83230   1.319   9.652  12.954 -0.5995  0.4187  0.7731
57639SOL    HW183231   1.326   9.560  12.977  1.5283  0.1081 -0.8410
57639SOL    HW283232   1.231   9.662  12.917 -0.8294 -0.9467  0.9244
57640SOL     OW83233   1.727   9.905   0.249  0.1546  0.9250  0.4119
57640SOL    HW183234   1.771   9.824   0.224  0.7693  1.2473  0.4135
57640SOL    HW283235   1.669   9.925   0.176 -0.1271  0.3991  0.4860
57641SOL     OW83236   1.669   9.302   9.790  0.2341 -0.1604  0.6601
57641SOL    HW183237   1.754   9.333   9.820  0.1827 -1.5195  2.3342
57641SOL    HW283238   1.614   9.303   9.868 -0.7930 -0.9496 -0.0259
57642SOL     OW83239   6.023   7.127   0.624  0.0832  0.5962 -0.4463
57642SOL    HW183240   6.080   7.160   0.694  0.6906  0.1151 -0.7042
57642SOL    HW283241   5.935   7.134   0.660  0.4087  0.0832  0.4846
57643SOL     OW83242  12.314   4.820   0.537  0.2267 -0.1889  0.6125
57643SOL    HW183243  12.291   4.746   0.480  0.2909  0.7087 -0.6287
57643SOL    HW283244  12.279   4.797   0.623 -1.6742 -0.7130 -0.2528
57644SOL     OW83245   6.928   8.481   9.169 -0.8149  0.2030  0.0577
57644SOL    HW183246   6.897   8.543   9.103  0.2015  0.8051  0.1345
57644SOL    HW283247   6.865   8.409   9.164 -1.0206  0.4398 -1.2527
57645SOL     OW83248   8.745  11.255   8.673 -0.4061  0.0901  0.4444
57645SOL    HW183249   8.710  11.202   8.602  0.6689 -1.3799  0.9679
57645SOL    HW283250   8.718  11.209   8.753 -1.3755  1.5731  1.0212
57646SOL     OW83251  12.211   8.627   2.109 -0.5599 -0.0158  0.2915
57646SOL    HW183252  12.229   8.641   2.202 -0.3444 -1.1371  0.4351
57646SOL    HW283253  12.208   8.531   2.099 -1.3347  0.0942 -0.7116
57647SOL     OW83254   2.494   2.705   2.937  0.6962 -0.0592 -0.3504
57647SOL    HW183255   2.431   2.700   3.010  0.8825  0.2433 -0.1635
57647SOL    HW283256   2.538   2.621   2.937  0.5906 -0.1153 -0.2065
57648SOL     OW83257   5.519   4.172   8.222  0.3862  1.1565  0.1293
57648SOL    HW183258   5.591   4.115   8.197 -1.4830 -1.1562 -0.3731
57648SOL    HW283259   5.531   4.187   8.316  0.6889 -0.5075  0.3919
57649SOL     OW83260  10.822   7.095  11.086  0.1258  0.5287 -0.3942
57649SOL    HW183261  10.741   7.107  11.036 -0.4817 -0.5432  0.2926
57649SOL    HW283262  10.793   7.090  11.177  0.7277 -1.5810 -0.2566
57650SOL     OW83263   0.701   1.338   0.916  0.0548  0.1155  0.0078
57650SOL    HW183264   0.702   1.349   1.011 -1.5400  1.9409 -0.1168
57650SOL    HW283265   0.632   1.273   0.900 -2.2581  2.4106  0.0119
57651SOL     OW83266  10.083   0.820   3.887  0.4298  0.1951  0.0438
57651SOL    HW183267  10.094   0.726   3.874 -0.2697  0.0839  0.2194
57651SOL    HW283268  10.143   0.860   3.824 -1.0040 -0.3506 -1.7579
57652SOL     OW83269   9.049   2.131  10.538 -0.3068 -0.3820 -0.3770
57652SOL    HW183270   9.062   2.114  10.445 -1.8778  3.2783 -1.4677
57652SOL    HW283271   8.980   2.071  10.564  0.3105 -1.6130 -1.4915
57653SOL     OW83272   4.647  11.387   3.716  0.5805 -0.5394 -0.1423
57653SOL    HW183273   4.722  11.444   3.695  0.9822  0.4446  3.3374
57653SOL    HW283274   4.687  11.307   3.750  0.0241 -0.9382 -0.4152
57654SOL     OW83275  10.042   5.423   0.403  0.3589  0.6334 -0.3087
57654SOL    HW183276  10.120   5.478   0.413  1.2594 -0.7217  0.5689
57654SOL    HW283277  10.010   5.412   0.493 -0.9934  1.3459 -0.6842
57655SOL     OW83278   1.403  12.136   2.006  0.5069 -0.1515 -0.7981
57655SOL    HW183279   1.315  12.172   2.012  0.4817 -0.4772  1.5714
57655SOL    HW283280   1.408  12.102   1.916 -1.1749  1.2823 -1.5052
57656SOL     OW83281   7.962   4.837   7.834 -0.3031  0.2694  0.4163
57656SOL    HW183282   8.028   4.891   7.876 -0.6357 -0.4426  1.8950
57656SOL    HW283283   7.994   4.747   7.843 -1.4005 -0.0778  1.0782
57657SOL     OW83284   5.739   8.775   3.078 -0.0191 -0.2093 -0.2146
57657SOL    HW183285   5.751   8.680   3.076  0.6204 -0.1302 -0.2880
57657SOL    HW283286   5.820   8.810   3.042  0.2281  0.3982  0.9004
57658SOL     OW83287  10.585  11.404  11.893 -0.6392  0.0076 -0.3592
57658SOL    HW183288  10.592  11.339  11.823  1.1891 -0.4830  0.2203
57658SOL    HW283289  10.592  11.488  11.848  0.5438 -0.2990 -0.8069
57659SOL     OW83290  12.472   2.506  11.950  0.0833  0.3336 -0.9668
57659SOL    HW183291  12.538   2.528  11.884  0.8682  1.1965  0.0626
57659SOL    HW283292  12.520   2.507  12.033 -0.9506 -0.3748 -0.3380
57660SOL     OW83293   1.957  11.416  10.999  0.6959  0.3437 -0.7976
57660SOL    HW183294   2.037  11.464  11.022  1.2645 -0.5976 -0.7522
57660SOL    HW283295   1.948  11.430  10.904  1.9123 -0.9662 -1.1401
57661SOL     OW83296  10.645   7.074   5.624  0.0333 -0.2453 -0.0832
57661SOL    HW183297  10.560   7.039   5.599  0.1905 -0.2265 -0.6417
57661SOL    HW283298  10.705   7.001   5.613  0.0708 -0.3016  0.4539
57662SOL     OW83299   6.116   8.155   6.243 -0.0480 -0.4651 -0.1895
57662SOL    HW183300   6.085   8.208   6.170 -0.0586 -1.1563 -0.6927
57662SOL    HW283301   6.174   8.213   6.293  0.4516 -0.1759 -1.0914
57663SOL     OW83302   0.130   3.232   2.420  0.4865  0.0779 -0.4782
57663SOL    HW183303   0.155   3.139   2.419 -0.2516 -0.1546  0.7209
57663SOL    HW283304   0.072   3.240   2.496 -0.6467  1.2228 -1.4436
57664SOL     OW83305  11.121   9.955   9.991 -0.1868 -0.2649  0.1776
57664SOL    HW183306  11.061   9.895  10.036 -0.9184  0.1928 -0.1604
57664SOL    HW283307  11.098   9.946   9.898  0.4179 -0.2442  0.0235
57665SOL     OW83308   3.412   6.782   4.894  0.8290  0.0785 -0.3397
57665SOL    HW183309   3.375   6.863   4.930 -0.3009  0.2007 -1.7039
57665SOL    HW283310   3.364   6.712   4.939 -0.4983  0.2282 -1.4722
57666SOL     OW83311  10.917   4.833   6.017 -0.7071  0.3055  0.4357
57666SOL    HW183312  10.898   4.753   5.968 -0.7837  0.7704 -0.3003
57666SOL    HW283313  10.843   4.891   5.999 -0.3276  0.7947  0.4201
57667SOL     OW83314   2.209   6.276   5.734  0.1607 -0.1243  0.2714
57667SOL    HW183315   2.232   6.218   5.662  1.7606 -0.0122  0.6537
57667SOL    HW283316   2.214   6.221   5.812  0.2643  0.1936  0.4898
57668SOL     OW83317   5.354   1.576  11.470  0.0801  0.5609  0.0353
57668SOL    HW183318   5.336   1.482  11.468 -0.9980  0.7056 -2.8554
57668SOL    HW283319   5.446   1.583  11.444  0.0700  0.2972 -0.0822
57669SOL     OW83320   2.792  12.296  10.347 -0.7404  0.7079  0.0738
57669SOL    HW183321   2.768  12.252  10.266 -0.7253  1.6861 -0.4791
57669SOL    HW283322   2.847  12.369  10.319  0.2103  0.3881  1.0613
57670SOL     OW83323   7.266  10.624   7.315  0.0373  0.0568 -0.5496
57670SOL    HW183324   7.238  10.537   7.344  0.9748 -0.8410 -2.1975
57670SOL    HW283325   7.324  10.655   7.385  0.6839 -1.1938 -0.5065
57671SOL     OW83326   8.971  11.672   4.855 -0.7545  0.0195  0.3775
57671SOL    HW183327   8.884  11.679   4.815 -0.7901  1.1976  0.6184
57671SOL    HW283328   9.029  11.649   4.783 -1.1674 -0.1165  0.0853
57672SOL     OW83329   4.384   0.502   4.090  0.2293  0.1416 -0.4568
57672SOL    HW183330   4.328   0.443   4.040  0.4352  0.9726 -1.7194
57672SOL    HW283331   4.326   0.541   4.155  0.0572 -1.2970  0.2946
57673SOL     OW83332  11.120   9.607  12.737 -0.1491  0.2824  0.0287
57673SOL    HW183333  11.083   9.577  12.820  0.3140 -2.2081 -0.5766
57673SOL    HW283334  11.157   9.693  12.757 -1.6673  0.5670  1.9081
57674SOL     OW83335   3.021   7.903   8.372  0.0918  0.1238 -0.3531
57674SOL    HW183336   2.960   7.829   8.365 -1.6764  1.2649  1.6230
57674SOL    HW283337   3.018   7.945   8.287 -1.6554 -0.0678 -0.4165
57675SOL     OW83338   4.516  10.005   4.452 -0.2660  0.1077  0.0801
57675SOL    HW183339   4.563   9.947   4.512  1.7389 -0.0999 -1.5806
57675SOL    HW283340   4.561  10.089   4.461 -0.3914  0.2516 -0.6023
57676SOL     OW83341   1.125   6.127  10.425  0.8181  0.1796 -0.4161
57676SOL    HW183342   1.067   6.135  10.501  1.6037 -0.5508  0.2989
57676SOL    HW283343   1.105   6.203  10.371  0.9601  1.2996  1.0320
57677SOL     OW83344  11.944   7.967  10.797  0.4515 -0.5919 -0.4783
57677SOL    HW183345  12.034   7.967  10.764  0.6361 -1.3532  0.0025
57677SOL    HW283346  11.896   7.909  10.738  0.1238  0.2858 -1.0988
57678SOL     OW83347  11.147   7.538  12.641 -0.1919 -0.2414 -0.5536
57678SOL    HW183348  11.236   7.568  12.622  0.4658 -0.4576  1.8381
57678SOL    HW283349  11.105   7.612  12.684 -0.9125 -0.4340 -0.9046
57679SOL     OW83350   2.892  12.892   4.909 -0.2408  0.7938  0.2671
57679SOL    HW183351   2.906  12.821   4.846  0.4825  1.8424 -0.8065
57679SOL    HW283352   2.809  12.871   4.951 -0.4143 -0.2871 -0.5651
57680SOL     OW83353  10.424   3.551   4.367 -0.5256 -0.0688  0.1089
57680SOL    HW183354  10.487   3.549   4.294  1.1308 -1.6069  1.4817
57680SOL    HW283355  10.364   3.479   4.348 -0.3336 -0.2163  0.0457
57681SOL     OW83356   8.156   8.511  12.133 -0.1626  0.1074 -0.4389
57681SOL    HW183357   8.246   8.481  12.150 -0.0467  0.1468 -0.9794
57681SOL    HW283358   8.141   8.491  12.041 -0.3894  0.9029 -0.5812
57682SOL     OW83359   5.443   1.790   8.335  0.4748  0.1936 -0.2422
57682SOL    HW183360   5.536   1.773   8.348  0.5499  1.5083  1.1457
57682SOL    HW283361   5.402   1.764   8.417 -0.3422 -0.0294 -0.7090
57683SOL     OW83362   4.014  10.990  12.673  0.3407 -0.0565  0.1937
57683SOL    HW183363   3.931  10.944  12.659  0.5230 -0.1385 -0.6654
57683SOL    HW283364   4.031  11.034  12.590 -0.0328  1.9187  1.1140
57684SOL     OW83365   1.938   1.292  11.056 -0.6463 -0.3695  0.2649
57684SOL    HW183366   1.985   1.341  11.123 -1.4040 -0.8684  1.1897
57684SOL    HW283367   1.889   1.359  11.008 -0.9169 -0.1086  0.8892
57685SOL     OW83368  12.224   6.378   1.146 -0.4414  0.0821  0.1724
57685SOL    HW183369  12.134   6.352   1.165 -0.9906  1.2222 -0.7772
57685SOL    HW283370  12.242   6.340   1.060 -0.6941  1.4418 -0.4997
57686SOL     OW83371  10.276   9.413  11.530  0.0215  0.6098 -0.1661
57686SOL    HW183372  10.209   9.462  11.482  2.0395  2.9456 -0.7642
57686SOL    HW283373  10.267   9.323  11.498 -0.9651  1.4128 -2.3186
57687SOL     OW83374   7.171  11.296  11.626 -0.0913 -0.1867 -0.2232
57687SOL    HW183375   7.107  11.362  11.652  0.1651 -1.1259  3.4222
57687SOL    HW283376   7.195  11.319  11.536 -2.9359  2.2236 -0.5135
57688SOL     OW83377   9.590   1.162  11.678  0.3997  0.6410 -0.3954
57688SOL    HW183378   9.620   1.244  11.638 -0.0028  0.4529 -1.1099
57688SOL    HW283379   9.495   1.165  11.670  0.2440  0.9648  1.3115
57689SOL     OW83380   5.579  11.189   9.478 -0.0799 -0.2265  0.1297
57689SOL    HW183381   5.611  11.269   9.437 -0.7954  0.1687  0.3439
57689SOL    HW283382   5.658  11.135   9.490  0.6638  1.0779  1.4297
57690SOL     OW83383   1.919  10.914   9.843 -0.2380 -0.1091  0.6014
57690SOL    HW183384   1.989  10.880   9.899  0.1025 -0.4320 -0.0111
57690SOL    HW283385   1.956  10.912   9.754 -1.0860 -0.4741  0.2407
57691SOL     OW83386   7.155   0.742  11.172 -0.1826  0.3408  0.5198
57691SOL    HW183387   7.066   0.763  11.200 -0.4242  0.6320 -0.4325
57691SOL    HW283388   7.210   0.765  11.247 -0.6668  2.3536  0.3070
57692SOL     OW83389   9.096   4.964   2.669  0.3678  0.0226 -0.1694
57692SOL    HW183390   9.051   5.048   2.679 -0.8350 -0.7287  1.0714
57692SOL    HW283391   9.094   4.947   2.575 -0.0248  1.0330 -0.3546
57693SOL     OW83392  12.507  11.387  12.673  0.4442  0.2754  0.7886
57693SOL    HW183393  12.467  11.310  12.714  0.4663 -0.4548 -0.5251
57693SOL    HW283394  12.449  11.459  12.696 -1.3901 -0.6687 -0.6150
57694SOL     OW83395   0.960   4.492   5.246 -0.0399  0.6329  0.3370
57694SOL    HW183396   0.996   4.493   5.335  0.0330 -1.8863  0.4255
57694SOL    HW283397   1.003   4.565   5.202  0.0320  1.8578  2.2918
57695SOL     OW83398   4.846   0.867   7.915  0.0453 -0.2576  0.0454
57695SOL    HW183399   4.914   0.886   7.980  0.6663  0.0088 -0.6629
57695SOL    HW283400   4.890   0.879   7.831 -0.9084  0.0173 -0.4285
57696SOL     OW83401   2.904   4.298   5.025 -0.6093  0.6908 -0.5959
57696SOL    HW183402   2.952   4.348   4.959 -0.9056  1.3255 -0.3413
57696SOL    HW283403   2.948   4.214   5.028 -0.0425  0.9683 -0.9714
57697SOL     OW83404   1.104   8.226   7.322 -0.0471  0.2575 -0.2918
57697SOL    HW183405   1.187   8.191   7.290 -0.9615 -0.0137 -2.5672
57697SOL    HW283406   1.052   8.242   7.242 -2.4672 -0.3109  1.0590
57698SOL     OW83407   4.524   4.328   0.941  0.6452  0.3142  0.3252
57698SOL    HW183408   4.451   4.334   0.880  1.3109  0.2278 -0.4919
57698SOL    HW283409   4.530   4.415   0.980  1.0199  0.7644 -0.6912
57699SOL     OW83410   1.627   9.475   1.314  0.4752 -0.2484 -0.2858
57699SOL    HW183411   1.647   9.439   1.227  0.1932  1.2351 -0.9978
57699SOL    HW283412   1.685   9.551   1.322  1.4525 -1.1117  1.4074
57700SOL     OW83413   9.696   0.973   1.298  0.8822  0.0141 -0.0140
57700SOL    HW183414   9.651   0.927   1.369  3.2169  0.6632  2.0225
57700SOL    HW283415   9.637   1.045   1.275 -0.3297 -0.7496  0.5843
57701SOL     OW83416   9.423  12.765  12.258  0.1521 -0.7362  0.0010
57701SOL    HW183417   9.360  12.748  12.328 -0.6480 -0.3680 -0.6168
57701SOL    HW283418   9.505  12.726  12.290 -0.3144 -0.9974  0.9249
57702SOL     OW83419   6.832  11.987  10.073 -0.1382  0.1619  0.3692
57702SOL    HW183420   6.816  11.941   9.991  1.8145 -2.1437  1.1731
57702SOL    HW283421   6.917  12.028  10.062  0.8905 -1.4662  1.6719
57703SOL     OW83422   4.305   7.347   6.827  0.0410  0.0495 -0.3127
57703SOL    HW183423   4.314   7.421   6.887 -1.5254  0.1880 -0.2127
57703SOL    HW283424   4.232   7.296   6.863 -0.2962 -0.3889 -1.5644
57704SOL     OW83425   1.893  12.189   3.597 -0.7168 -0.2477  0.0960
57704SOL    HW183426   1.901  12.279   3.629 -1.4651  0.3249 -1.2603
57704SOL    HW283427   1.824  12.193   3.531  1.1709 -1.2063 -2.0659
57705SOL     OW83428  11.735   6.509   4.626 -0.3097  0.5134  0.1358
57705SOL    HW183429  11.716   6.532   4.535  0.1192  0.9256  0.1455
57705SOL    HW283430  11.800   6.439   4.620 -0.1677  0.6449  0.1242
57706SOL     OW83431   6.614   8.776   1.723 -0.2543  0.2563  0.2011
57706SOL    HW183432   6.543   8.793   1.661  0.9586  0.5932 -1.1642
57706SOL    HW283433   6.674   8.849   1.711  1.3295 -1.0565 -0.1995
57707SOL     OW83434  10.703  12.079   7.555  0.4848  0.0782  0.8305
57707SOL    HW183435  10.680  12.145   7.489 -0.1115  0.0284  0.9829
57707SOL    HW283436  10.787  12.109   7.590  0.9476 -0.0549 -0.1500
57708SOL     OW83437   8.295  11.128   3.040 -0.5801 -0.4539 -0.5997
57708SOL    HW183438   8.280  11.062   3.108 -0.2376  0.7008  0.6404
57708SOL    HW283439   8.243  11.203   3.068  0.6355  0.5249 -0.8826
57709SOL     OW83440  12.606  10.807   8.417 -0.6937 -0.3675  0.6096
57709SOL    HW183441  12.576  10.726   8.459  3.1535 -2.2807  0.0915
57709SOL    HW283442  12.594  10.792   8.323  1.5315 -1.1386  0.3988
57710SOL     OW83443   5.418  12.942   0.449 -0.0111  0.5123 -0.3864
57710SOL    HW183444   5.423  12.876   0.379 -2.0440  0.6153 -0.6764
57710SOL    HW283445   5.435  12.893   0.529  2.7239  0.4517 -0.8885
57711SOL     OW83446   8.609   2.366  10.660 -0.8470 -0.0987 -0.0127
57711SOL    HW183447   8.553   2.314  10.602 -0.9822 -1.0367  0.9221
57711SOL    HW283448   8.683   2.309  10.679  0.1863  0.9345 -0.8012
57712SOL     OW83449  11.702  11.157   6.466 -0.1429  0.2471 -0.5538
57712SOL    HW183450  11.616  11.124   6.439 -0.1507 -0.4697  0.3081
57712SOL    HW283451  11.683  11.231   6.523 -0.2554 -0.8442  0.8748
57713SOL     OW83452   1.265  11.906   9.786 -1.1538 -0.1570  0.1811
57713SOL    HW183453   1.308  11.938   9.864  3.7233  1.1646 -2.6397
57713SOL    HW283454   1.245  11.985   9.735 -1.1018 -1.0675 -1.3200
57714SOL     OW83455   9.911   0.069   0.529  0.1108  0.1018  0.3540
57714SOL    HW183456   9.958   0.112   0.601 -0.0337  1.5064 -0.3603
57714SOL    HW283457   9.977   0.055   0.462  0.1686 -0.8894  0.5992
57715SOL     OW83458  10.090   4.223   2.571 -0.0669  0.1688  0.3762
57715SOL    HW183459  10.026   4.204   2.503  1.3320 -0.8594 -0.7077
57715SOL    HW283460  10.061   4.172   2.646 -0.4402 -0.3898 -0.1439
57716SOL     OW83461   2.874  10.690   4.966  0.0902  0.1377  0.1186
57716SOL    HW183462   2.836  10.777   4.955  0.9355  0.3999 -0.9321
57716SOL    HW283463   2.809  10.631   4.929  1.2788  0.7194 -3.2364
57717SOL     OW83464   2.591   9.159  11.769  0.1429  0.1812 -0.0022
57717SOL    HW183465   2.673   9.127  11.805  0.0535 -1.2595 -0.9946
57717SOL    HW283466   2.599   9.254  11.771  1.8449  0.0615 -0.1128
57718SOL     OW83467   2.415   4.209   0.075 -0.2261 -0.3922 -0.5012
57718SOL    HW183468   2.340   4.150   0.066 -0.4332  0.1048 -2.5327
57718SOL    HW283469   2.478   4.160   0.127 -1.9445 -0.8047  1.3136
57719SOL     OW83470   6.023  11.769   5.261 -0.4303 -0.0097  0.1363
57719SOL    HW183471   5.955  11.836   5.266 -0.8418 -0.5075  2.2012
57719SOL    HW283472   5.991  11.706   5.197 -0.8116  0.9031 -0.5897
57720SOL     OW83473  11.497  12.591   0.373  0.5938  0.2273  0.4100
57720SOL    HW183474  11.455  12.622   0.453 -1.8441  0.4377 -0.8535
57720SOL    HW283475  11.465  12.650   0.305  0.0990 -1.8050 -1.2173
57721SOL     OW83476  10.047   3.367   8.505  0.3215  0.1682 -0.1786
57721SOL    HW183477  10.042   3.427   8.578  0.6586  1.5082 -1.2226
57721SOL    HW283478  10.002   3.412   8.433 -0.9265 -1.5270 -0.5555
57722SOL     OW83479   7.031  10.592   4.628 -0.5730  0.4705  0.1660
57722SOL    HW183480   7.038  10.659   4.560 -0.6941  1.4998  1.1522
57722SOL    HW283481   6.939  10.594   4.655 -0.6812 -0.4069 -0.0839
57723SOL     OW83482   5.035   3.795   1.738 -0.1986  0.4641 -0.5409
57723SOL    HW183483   5.118   3.776   1.782 -0.8530 -0.0545  0.5282
57723SOL    HW283484   4.993   3.709   1.728 -1.1508  0.8387  0.0853
57724SOL     OW83485   8.524   1.634   9.526  0.3498 -0.5677  0.6586
57724SOL    HW183486   8.456   1.585   9.480  0.2914 -0.0399  0.1869
57724SOL    HW283487   8.492   1.640   9.616  1.0760 -2.7537  1.1319
57725SOL     OW83488  12.778   7.394   1.022 -0.4158  0.1347 -0.0918
57725SOL    HW183489  12.723   7.388   1.100  0.1732 -0.3120  0.2962
57725SOL    HW283490  12.848   7.455   1.046  0.2010 -0.5896  0.0124
57726SOL     OW83491   3.831  12.296  12.095  0.2420  0.1268 -0.0606
57726SOL    HW183492   3.799  12.370  12.043 -1.0093 -1.2487 -1.3469
57726SOL    HW283493   3.849  12.333  12.181  1.3311  2.2694 -1.1351
57727SOL     OW83494   2.928   0.256   7.854 -0.2116  0.0377  0.2489
57727SOL    HW183495   2.938   0.335   7.906  1.0299  0.7387 -0.9759
57727SOL    HW283496   2.837   0.257   7.824  0.4436  2.5846 -2.0817
57728SOL     OW83497   2.817   8.610   5.914  0.1704 -0.2771 -0.4647
57728SOL    HW183498   2.891   8.579   5.966 -0.7780 -1.6900  0.1175
57728SOL    HW283499   2.825   8.565   5.830  0.5461  0.4033 -0.8063
57729SOL     OW83500   2.977  10.929   3.683 -0.0484 -0.5369 -0.5839
57729SOL    HW183501   2.934  10.853   3.723  0.3855 -0.3244  0.3210
57729SOL    HW283502   3.068  10.924   3.713  0.0899  0.0984 -0.8720
57730SOL     OW83503   6.679   8.927   3.777  0.2499  0.4286 -0.1488
57730SOL    HW183504   6.662   9.015   3.743 -0.4676  0.9524  1.4716
57730SOL    HW283505   6.667   8.870   3.701 -2.2393  1.4415 -0.6266
57731SOL     OW83506   0.912  10.849   4.250 -0.1883  0.2769 -0.4939
57731SOL    HW183507   0.859  10.918   4.291  0.6039  0.3603  0.4318
57731SOL    HW283508   0.999  10.861   4.287  0.2887 -0.3769 -1.3668
57732SOL     OW83509   3.461   1.608   4.493 -0.3278 -0.2507  0.0961
57732SOL    HW183510   3.493   1.533   4.443  0.8369  0.7358 -0.7033
57732SOL    HW283511   3.494   1.684   4.446 -0.9249  0.7655  1.2513
57733SOL     OW83512  11.079   4.431   8.875 -0.2007  0.5863  0.5035
57733SOL    HW183513  10.993   4.446   8.915  0.2208  0.2776  1.5632
57733SOL    HW283514  11.104   4.516   8.839 -1.4026  0.4424 -0.7661
57734SOL     OW83515   1.651   8.333   3.318  0.1865  0.2979 -0.2112
57734SOL    HW183516   1.691   8.350   3.403 -1.0729 -0.9381  0.6687
57734SOL    HW283517   1.557   8.341   3.333 -0.1385 -1.2885 -1.1421
57735SOL     OW83518  11.355  11.205  12.452  0.4057 -0.1540  0.5670
57735SOL    HW183519  11.394  11.130  12.406  2.1191  1.9565 -1.7314
57735SOL    HW283520  11.412  11.219  12.527  0.3899 -0.8131  0.7112
57736SOL     OW83521   9.517   6.890   6.217  0.4925  1.3278  0.2614
57736SOL    HW183522   9.551   6.940   6.291 -0.6327  0.4276  1.4191
57736SOL    HW283523   9.550   6.801   6.231 -1.6411  0.5987  1.0205
57737SOL     OW83524   7.560   9.936   5.676 -0.2362 -0.0335 -0.0353
57737SOL    HW183525   7.527   9.865   5.731 -0.4569 -0.6735 -0.9825
57737SOL    HW283526   7.655   9.930   5.684 -0.2709  0.4972  1.0325
57738SOL     OW83527  10.236   4.268  11.614 -0.3810 -0.2614  0.1777
57738SOL    HW183528  10.209   4.330  11.546 -1.4055 -0.2133  0.6077
57738SOL    HW283529  10.268   4.323  11.685 -1.1156 -0.2210  0.4853
57739SOL     OW83530  10.283   1.999   3.372  0.4715  0.3340  0.1249
57739SOL    HW183531  10.232   2.060   3.319  1.1003 -1.3394 -2.6380
57739SOL    HW283532  10.362   1.983   3.321  0.9913 -1.6477  1.4096
57740SOL     OW83533   1.598   1.809   2.639  0.5017  0.1864 -0.4243
57740SOL    HW183534   1.542   1.767   2.705  0.4118  1.6387  0.4678
57740SOL    HW283535   1.660   1.860   2.690  0.1139  1.7586 -1.4644
57741SOL     OW83536  10.938   8.557   8.072 -0.2370  0.1636 -0.0729
57741SOL    HW183537  10.896   8.473   8.050 -0.3955  0.0188  0.7791
57741SOL    HW283538  11.031   8.539   8.063 -0.2621 -0.1546  0.2706
57742SOL     OW83539   5.757   3.131  10.039  0.4526 -0.3037  0.1388
57742SOL    HW183540   5.727   3.220  10.021  0.9882  0.4109  2.4448
57742SOL    HW283541   5.853   3.138  10.040  0.5043 -0.9585  0.1593
57743SOL     OW83542  10.648   4.103   2.842  0.1343 -0.1659  0.3770
57743SOL    HW183543  10.676   4.049   2.915  1.3524  1.0443  0.8492
57743SOL    HW283544  10.683   4.060   2.764  1.9445  0.4117  0.8252
57744SOL     OW83545   6.461  12.426   1.343  0.7034  0.6621  0.2487
57744SOL    HW183546   6.552  12.397   1.339  0.7961  0.6590  1.7195
57744SOL    HW283547   6.418  12.361   1.399 -0.0891  0.9708  0.0143
57745SOL     OW83548   5.322   1.216   9.650  0.3446  0.0569 -0.1922
57745SOL    HW183549   5.322   1.311   9.635  0.1005  0.2950  1.2068
57745SOL    HW283550   5.277   1.205   9.734  4.4655 -0.8671  2.1567
57746SOL     OW83551   6.047   2.828   3.406 -0.0125 -0.1681 -0.8384
57746SOL    HW183552   5.986   2.760   3.435 -1.4839  1.0028 -1.0430
57746SOL    HW283553   6.027   2.904   3.461  1.2646  0.2704 -0.9316
57747SOL     OW83554   7.356   5.997   6.791 -0.0332 -0.3396 -0.1109
57747SOL    HW183555   7.433   6.052   6.810 -0.6437 -0.1825  2.0828
57747SOL    HW283556   7.332   6.022   6.701  1.2938  1.0500 -0.1338
57748SOL     OW83557   1.899   3.858   1.327 -0.2698 -0.3926  0.0567
57748SOL    HW183558   1.968   3.923   1.336 -0.6554 -0.1197  1.2202
57748SOL    HW283559   1.891   3.844   1.233 -1.2898  2.4950 -0.4035
57749SOL     OW83560   9.085  12.636   8.461 -0.6881 -0.2827  0.2331
57749SOL    HW183561   9.063  12.597   8.377  1.8054 -0.2490 -0.5056
57749SOL    HW283562   9.133  12.716   8.440  1.8722 -1.3471  1.5845
57750SOL     OW83563   2.992   6.967  11.920  0.2320  0.2327  0.1966
57750SOL    HW183564   2.975   6.874  11.903 -0.8236  0.4484 -0.0226
57750SOL    HW283565   2.939   6.987  11.997  0.7392  0.5679  0.4600
57751SOL     OW83566   9.573   7.206   7.838 -0.0135 -0.1443  0.5774
57751SOL    HW183567   9.508   7.139   7.819  0.4022 -0.2287 -0.6314
57751SOL    HW283568   9.627   7.211   7.758  1.4410 -0.0550  1.5271
57752SOL     OW83569   0.321  10.665   6.811 -0.2624  0.0390 -0.2070
57752SOL    HW183570   0.352  10.657   6.721 -1.1709  0.3670 -0.5700
57752SOL    HW283571   0.312  10.575   6.842  3.4980 -0.1157  0.8515
57753SOL     OW83572   2.514   4.555   2.848 -0.1580 -0.2988  0.0497
57753SOL    HW183573   2.574   4.599   2.908  0.7848 -0.6914 -0.5877
57753SOL    HW283574   2.501   4.617   2.777 -0.1315 -0.4032 -0.0469
57754SOL     OW83575   6.247  11.362   6.081 -0.5166  0.0518  0.0593
57754SOL    HW183576   6.290  11.284   6.047  1.4478  0.2441  1.8793
57754SOL    HW283577   6.305  11.434   6.057 -1.1199  0.6667  0.3899
57755SOL     OW83578  11.783   6.733   4.842 -0.1756  0.4678  0.1609
57755SOL    HW183579  11.730   6.665   4.801  2.3646 -0.4273 -1.8562
57755SOL    HW283580  11.720   6.802   4.864 -2.1975 -0.5674 -1.9584
57756SOL     OW83581  11.227   9.978   8.164 -0.0549  0.3791  0.6736
57756SOL    HW183582  11.283  10.056   8.161 -1.0064  1.0775  0.4603
57756SOL    HW283583  11.200   9.971   8.255  1.3629 -0.7061  1.0465
57757SOL     OW83584   3.731   7.562   1.536 -0.5895  0.2318 -0.5412
57757SOL    HW183585   3.680   7.499   1.485 -2.4763  1.3289 -0.1286
57757SOL    HW283586   3.682   7.644   1.528  2.1689  1.8888 -1.6799
57758SOL     OW83587   1.324   3.706   3.621  0.3921  0.0254  0.1198
57758SOL    HW183588   1.382   3.782   3.615  1.2798 -0.5643  1.0596
57758SOL    HW283589   1.302   3.686   3.530 -1.6232  2.7149 -0.1125
57759SOL     OW83590   9.322  11.883   8.355 -0.1432 -0.1005  0.3157
57759SOL    HW183591   9.278  11.936   8.288 -1.4980 -1.4590  0.0898
57759SOL    HW283592   9.407  11.926   8.367  0.1776  0.1340 -2.3082
57760SOL     OW83593   2.160   5.779   6.916  0.1504  0.2406  0.3265
57760SOL    HW183594   2.190   5.813   7.001 -1.0847  0.7897  0.5699
57760SOL    HW283595   2.143   5.857   6.864  0.8024 -0.0978 -0.4019
57761SOL     OW83596   7.360  12.913   7.342  0.2128 -0.1491 -0.3027
57761SOL    HW183597   7.415  12.909   7.263  0.8676 -0.4784  0.1667
57761SOL    HW283598   7.313  12.830   7.342 -1.7478  0.8783 -1.7258
57762SOL     OW83599   2.226   4.686  11.406 -0.5711  0.5005  0.0110
57762SOL    HW183600   2.250   4.768  11.364  1.0691  0.3288  0.5366
57762SOL    HW283601   2.223   4.622  11.335 -3.0659  1.1867 -0.5971
57763SOL     OW83602   8.269  10.926  12.473 -0.1296 -0.1308 -0.0883
57763SOL    HW183603   8.356  10.887  12.467  0.3339  0.4304  1.9698
57763SOL    HW283604   8.232  10.889  12.553 -2.1078 -0.8912 -1.2946
57764SOL     OW83605   7.450   2.241  12.504 -0.0014  0.4926 -0.1090
57764SOL    HW183606   7.355   2.229  12.512 -0.0039  0.1000 -0.6184
57764SOL    HW283607   7.472   2.198  12.421  0.6660  0.3245  0.1484
57765SOL     OW83608  10.067   8.449   7.096  0.2152  0.1921 -0.0040
57765SOL    HW183609  10.090   8.474   7.185 -1.3243 -0.8877  0.7311
57765SOL    HW283610  10.145   8.406   7.062  0.8570  0.7283  0.7660
57766SOL     OW83611  11.442   4.095   1.289  0.6389 -0.0892  0.4418
57766SOL    HW183612  11.528   4.134   1.276  1.0122 -0.9115  0.4236
57766SOL    HW283613  11.421   4.054   1.206 -0.1187  0.7581  0.1991
57767SOL     OW83614   8.587  11.526   4.335  0.5200  0.1431 -0.0553
57767SOL    HW183615   8.558  11.615   4.353 -1.5298 -0.1797 -1.4378
57767SOL    HW283616   8.667  11.515   4.388  1.0403  2.8885 -0.1615
57768SOL     OW83617   0.373   6.009   3.275  0.1469 -0.0274 -0.1850
57768SOL    HW183618   0.325   5.929   3.298 -1.7172  1.1307  0.1243
57768SOL    HW283619   0.306   6.070   3.245  1.6333  1.1630 -1.2349
57769SOL     OW83620   4.218   5.216  12.978  0.1989 -0.8237 -0.2277
57769SOL    HW183621   4.228   5.121  12.968  0.2748 -0.7566 -0.7738
57769SOL    HW283622   4.235   5.252  12.891  0.2416 -0.2999 -0.0059
57770SOL     OW83623   2.548   4.423  11.029 -0.2670 -0.1010 -0.2160
57770SOL    HW183624   2.591   4.505  11.055  0.0618  0.5722 -2.6139
57770SOL    HW283625   2.609   4.355  11.057  1.0849  0.6892 -1.1170
57771SOL     OW83626   0.704  12.230  12.931 -0.0898  0.2271  0.1712
57771SOL    HW183627   0.711  12.149  12.880  0.9008  0.8810 -0.8048
57771SOL    HW283628   0.795  12.260  12.940 -0.3526  0.7320  1.3601
57772SOL     OW83629   3.163   2.575   4.314  0.1464  0.9079 -0.3353
57772SOL    HW183630   3.134   2.500   4.365  0.1906  1.6599  0.8287
57772SOL    HW283631   3.208   2.537   4.239 -1.1255 -0.2398 -0.5606
57773SOL     OW83632   7.617   6.077   6.837  0.3604  0.5182  0.6253
57773SOL    HW183633   7.639   6.020   6.911 -0.2849 -0.8936 -0.2120
57773SOL    HW283634   7.689   6.139   6.831  1.1937 -0.3396  1.4635
57774SOL     OW83635   9.222   9.943   0.534 -0.6121 -0.1253 -0.4641
57774SOL    HW183636   9.298   9.890   0.511 -0.1272  0.0484  0.7013
57774SOL    HW283637   9.154   9.879   0.554 -0.1615 -0.3134  0.4945
57775SOL     OW83638   4.315   4.170   4.553 -0.2110 -0.0450 -0.0236
57775SOL    HW183639   4.356   4.215   4.628  0.2614 -0.0691 -0.2628
57775SOL    HW283640   4.287   4.241   4.495  1.5558 -0.0333 -0.9474
57776SOL     OW83641  10.637   7.548   4.537  0.1900  0.1633 -0.3297
57776SOL    HW183642  10.684   7.484   4.591 -0.9605 -0.1757  0.3145
57776SOL    HW283643  10.662   7.528   4.447  1.7227  0.3825  0.0201
57777SOL     OW83644   0.470   1.744   9.182  0.1049 -0.3773  0.0443
57777SOL    HW183645   0.536   1.805   9.214  1.6255 -1.3072 -1.2105
57777SOL    HW283646   0.450   1.776   9.093 -3.0521  1.3749  1.1885
57778SOL     OW83647   1.806   4.493   6.950 -0.2727 -0.5720  0.1616
57778SOL    HW183648   1.901   4.488   6.966 -0.3755 -0.8417  0.7247
57778SOL    HW283649   1.775   4.404   6.966 -0.6920 -0.3720  0.4657
57779SOL     OW83650   7.133   5.747   4.340  0.2323  0.4726  0.2725
57779SOL    HW183651   7.170   5.739   4.428 -3.0395  1.5782  1.9439
57779SOL    HW283652   7.094   5.661   4.322  1.2577  0.1198 -0.3094
57780SOL     OW83653   4.798   0.995  10.922  0.1929  0.3556  0.0066
57780SOL    HW183654   4.821   1.061  10.987 -0.4113 -1.0032  1.6614
57780SOL    HW283655   4.713   0.962  10.949  0.6153 -1.3367 -0.5812
57781SOL     OW83656   0.193   5.962  11.748 -0.7655  0.5147  0.1004
57781SOL    HW183657   0.098   5.973  11.737 -1.1207 -0.5988  1.7270
57781SOL    HW283658   0.208   5.975  11.841  0.0745 -3.0238  0.5917
57782SOL     OW83659   9.255   6.612   0.825  0.2953 -0.0903  0.2038
57782SOL    HW183660   9.241   6.576   0.738 -1.0485  0.8522 -0.0155
57782SOL    HW283661   9.276   6.704   0.809  2.0928 -0.3464  0.8149
57783SOL     OW83662   5.561  12.187  12.335 -0.3144 -0.2240  0.0825
57783SOL    HW183663   5.489  12.125  12.322 -0.6206  0.2136 -0.3481
57783SOL    HW283664   5.614  12.148  12.405 -0.9292 -0.5837  0.3547
57784SOL     OW83665   0.895   6.590   1.041  0.2794 -0.0378 -0.0824
57784SOL    HW183666   0.817   6.537   1.024  0.3149 -0.5411  1.2546
57784SOL    HW283667   0.863   6.681   1.037  0.1062 -0.1462 -1.8074
57785SOL     OW83668   7.159   8.615  11.059  0.6051 -0.2103  0.2835
57785SOL    HW183669   7.158   8.696  11.008  1.6219 -0.0588  0.4954
57785SOL    HW283670   7.107   8.636  11.136  0.4140  0.0724  0.0825
57786SOL     OW83671   0.854   1.703   7.857  0.1715 -0.4589  0.1926
57786SOL    HW183672   0.831   1.624   7.808  1.9604 -0.9964  0.1593
57786SOL    HW283673   0.902   1.671   7.933 -0.5738  0.5187  1.1185
57787SOL     OW83674  11.305   1.248   3.187 -0.1610 -0.2698 -0.1080
57787SOL    HW183675  11.249   1.325   3.175 -0.5139 -0.6526 -1.0137
57787SOL    HW283676  11.346   1.261   3.273 -1.3829  0.1889  0.4298
57788SOL     OW83677   5.026   8.993   3.692 -0.7841 -0.2474 -0.5819
57788SOL    HW183678   4.961   9.045   3.645 -0.4365  0.4671 -0.2924
57788SOL    HW283679   5.087   8.963   3.624 -0.0907  1.0685 -0.5689
57789SOL     OW83680   2.910   9.689   4.697 -0.7893 -0.1421 -0.6870
57789SOL    HW183681   2.989   9.736   4.669 -0.3264  0.0649  0.9072
57789SOL    HW283682   2.863   9.751   4.752 -0.7383 -1.1375  0.5153
57790SOL     OW83683   0.424   0.354   7.818  0.2324  0.2095 -0.3406
57790SOL    HW183684   0.395   0.331   7.730 -0.6615  0.3118 -0.0787
57790SOL    HW283685   0.519   0.337   7.818  0.2975  0.5314 -1.4215
57791SOL     OW83686   1.361   6.071  10.773 -0.2712  0.0325  0.2563
57791SOL    HW183687   1.269   6.094  10.767 -0.0967  0.9134  0.6938
57791SOL    HW283688   1.389   6.107  10.857  0.8459  1.2259 -0.5870
57792SOL     OW83689   4.878   5.757   3.762  0.3354  0.5753  0.1590
57792SOL    HW183690   4.949   5.713   3.809  0.6033  0.2053 -0.5862
57792SOL    HW283691   4.879   5.846   3.796  0.2987  0.2281  1.1108
57793SOL     OW83692   9.955   3.514   2.370 -0.2968  0.0433 -0.1159
57793SOL    HW183693  10.029   3.456   2.382  1.4055  1.8724 -1.1881
57793SOL    HW283694   9.911   3.480   2.292  0.3836 -0.1181 -0.4371
57794SOL     OW83695  10.952  10.379   9.823  1.0876  0.3183 -0.0578
57794SOL    HW183696  11.006  10.397   9.900 -1.2177  0.0542  1.7673
57794SOL    HW283697  10.872  10.430   9.839  0.3627 -0.1072 -2.0921
57795SOL     OW83698   7.811   6.481   5.636 -0.4451  0.3528  0.0035
57795SOL    HW183699   7.794   6.424   5.711 -0.3746  0.0390 -0.2141
57795SOL    HW283700   7.881   6.436   5.588  1.2065  1.7462  1.0077
57796SOL     OW83701   3.882   8.918  10.885 -0.1232 -0.2456 -0.7197
57796SOL    HW183702   3.850   8.855  10.950 -0.8318  1.1179  0.3096
57796SOL    HW283703   3.942   8.868  10.830 -0.7367 -1.8275  0.0055
57797SOL     OW83704   9.106   3.311   4.281  0.2008  0.2984 -0.3935
57797SOL    HW183705   9.189   3.302   4.329 -0.2735 -0.2707  0.3559
57797SOL    HW283706   9.040   3.279   4.343 -0.9904  3.5532  0.2274
57798SOL     OW83707   6.838   7.550   3.930  0.3415 -0.6901 -0.0729
57798SOL    HW183708   6.869   7.549   4.021 -0.8894  0.5604  0.3846
57798SOL    HW283709   6.909   7.592   3.881  0.1729  0.4911  0.6631
57799SOL     OW83710   3.303   3.897   1.028 -0.4070  0.5953  0.2261
57799SOL    HW183711   3.260   3.821   1.067 -0.2608  1.4568  2.1492
57799SOL    HW283712   3.232   3.959   1.011 -0.0291  2.4536  4.3879
57800SOL     OW83713   2.164   2.307   6.416 -0.3941  0.0125  0.3097
57800SOL    HW183714   2.189   2.216   6.408 -2.8403 -0.5435 -3.1168
57800SOL    HW283715   2.101   2.308   6.489 -0.1938 -0.9586  0.5120
57801SOL     OW83716  11.551   4.946   4.759  0.0140 -0.4206 -0.0714
57801SOL    HW183717  11.636   4.909   4.781 -0.5374 -2.8681 -1.5939
57801SOL    HW283718  11.559   4.974   4.667 -0.5130  0.3333  0.1003
57802SOL     OW83719   4.500   4.887   9.781  0.1041  0.1894 -0.4652
57802SOL    HW183720   4.498   4.960   9.843 -1.5160  0.7439 -1.1132
57802SOL    HW283721   4.519   4.810   9.835  0.3392  0.8770  0.4534
57803SOL     OW83722   0.358   4.073   3.217 -0.3217  0.5240 -0.6137
57803SOL    HW183723   0.362   4.161   3.180 -0.9501  0.6135 -0.4807
57803SOL    HW283724   0.290   4.078   3.284 -0.1932 -0.0019 -0.4371
57804SOL     OW83725  12.644   3.879   2.419 -0.2528 -0.1204  0.5209
57804SOL    HW183726  12.691   3.865   2.502  0.2892 -0.8001  0.1054
57804SOL    HW283727  12.623   3.791   2.389 -1.4472  0.1614  0.4921
57805SOL     OW83728  12.322  10.782   0.325 -0.0427 -0.0964  0.1963
57805SOL    HW183729  12.242  10.747   0.286 -0.7375  0.0224  1.4624
57805SOL    HW283730  12.339  10.724   0.400  0.0589  0.9084  0.9660
57806SOL     OW83731   2.594  12.501  10.690  0.1435  0.4588  0.1846
57806SOL    HW183732   2.668  12.538  10.642 -0.2785  2.1234  0.7438
57806SOL    HW283733   2.529  12.480  10.623  0.8879 -0.5044 -0.2552
57807SOL     OW83734   2.284   1.794  10.452 -0.1223 -1.5829  0.4387
57807SOL    HW183735   2.335   1.720  10.484 -0.2886 -1.0884  1.9531
57807SOL    HW283736   2.284   1.856  10.525  0.4311  0.1321 -0.9551
57808SOL     OW83737   8.476   0.805   4.662 -0.7383  0.2065  0.3700
57808SOL    HW183738   8.427   0.782   4.741 -2.7418 -1.2162 -1.1784
57808SOL    HW283739   8.466   0.728   4.605  1.3490  0.8445 -0.9573
57809SOL     OW83740   4.198  12.955   3.417 -0.0023  0.1809  0.5398
57809SOL    HW183741   4.164  12.952   3.507 -0.7428 -0.3873  0.2553
57809SOL    HW283742   4.225  12.865   3.399  0.1594  0.2966  0.1961
57810SOL     OW83743   3.395   2.819   8.367 -0.0264  0.1309  0.2514
57810SOL    HW183744   3.363   2.833   8.456  0.2303  1.2390  0.1932
57810SOL    HW283745   3.483   2.784   8.378 -0.0536  0.1219  0.4407
57811SOL     OW83746   3.123   0.356   2.582 -0.6060 -0.1720  0.5645
57811SOL    HW183747   3.192   0.299   2.548 -0.6787 -0.1996  0.4616
57811SOL    HW283748   3.135   0.355   2.677  0.2429  0.7212  0.4810
57812SOL     OW83749   1.843   5.688   8.115  0.4171 -0.4348 -0.1108
57812SOL    HW183750   1.832   5.618   8.178  0.2836  0.1512  0.5327
57812SOL    HW283751   1.923   5.665   8.067  0.3101 -1.0763  0.0170
57813SOL     OW83752   2.180   4.785  10.672 -0.0048  0.4021 -0.3832
57813SOL    HW183753   2.188   4.858  10.612 -0.8240 -0.8154 -2.0698
57813SOL    HW283754   2.252   4.727  10.650  1.2621  1.0934  1.6304
57814SOL     OW83755   8.187   6.249   2.206 -0.4514 -0.0462  0.3505
57814SOL    HW183756   8.206   6.156   2.222  0.4274 -0.2637 -1.6032
57814SOL    HW283757   8.256   6.277   2.146  0.6859  2.5288  2.6369
57815SOL     OW83758   6.924  10.296   1.048 -0.4593 -0.3280  0.2021
57815SOL    HW183759   6.845  10.339   1.080 -0.8841 -1.5432  0.8524
57815SOL    HW283760   6.892  10.219   1.001  0.2957 -0.1767 -0.6020
57816SOL     OW83761  11.778   3.588  11.460  0.3002  0.3345 -0.1353
57816SOL    HW183762  11.731   3.659  11.417  0.1527  0.3362  0.0318
57816SOL    HW283763  11.868   3.597  11.427  0.2117  0.3986 -0.3652
57817SOL     OW83764   5.335  10.640   9.830  0.2146  0.1582 -0.5131
57817SOL    HW183765   5.310  10.729   9.808  1.9508  1.0007  0.6806
57817SOL    HW283766   5.328  10.636   9.925 -1.6132 -1.5934 -0.6504
57818SOL     OW83767   0.693   1.814   8.747  0.9168 -0.2108 -0.7870
57818SOL    HW183768   0.702   1.900   8.788  0.0162 -0.3128 -0.3493
57818SOL    HW283769   0.760   1.813   8.679  1.2360  0.6643 -0.5021
57819SOL     OW83770   1.490   9.809  10.386  0.1021  0.4883 -0.3679
57819SOL    HW183771   1.551   9.865  10.435  1.1094 -0.3922 -0.5909
57819SOL    HW283772   1.531   9.798  10.301 -0.8275  0.6172 -0.8456
57820SOL     OW83773  11.076   7.914   5.303 -0.5070  0.3336  0.2996
57820SOL    HW183774  11.128   7.945   5.376 -3.7441 -0.1566  3.0511
57820SOL    HW283775  11.119   7.832   5.276  1.0674  0.8082  1.2405
57821SOL     OW83776   2.321   9.720  10.093 -0.1899  0.4405  0.2683
57821SOL    HW183777   2.336   9.670  10.173 -0.4961 -2.5933 -1.4338
57821SOL    HW283778   2.409   9.738  10.059 -0.0585 -1.4940 -0.5204
57822SOL     OW83779   8.950   9.049  12.702 -0.1529 -0.1201  0.2681
57822SOL    HW183780   8.892   8.983  12.664  0.6081 -0.9982  0.5770
57822SOL    HW283781   8.895   9.098  12.763 -1.4075  1.3382 -1.9242
57823SOL     OW83782   1.306  11.824  12.407  0.3711 -0.0104  0.4362
57823SOL    HW183783   1.246  11.855  12.339  1.8160  0.8090 -0.5282
57823SOL    HW283784   1.369  11.895  12.417  2.3214 -1.5885 -0.0197
57824SOL     OW83785   4.211   6.936   6.462  0.1526 -0.4338  0.6217
57824SOL    HW183786   4.272   6.978   6.523  0.3901 -2.3789  1.8071
57824SOL    HW283787   4.267   6.880   6.408 -0.2943 -0.2661 -0.0152
57825SOL     OW83788   9.209   9.389   8.201  0.1397  0.3311 -0.5415
57825SOL    HW183789   9.191   9.304   8.162 -1.3773  0.9638 -1.3033
57825SOL    HW283790   9.125   9.434   8.201  0.7981  1.6359  0.3473
57826SOL     OW83791   5.731   4.474   2.745  0.4766 -0.0539  0.6525
57826SOL    HW183792   5.795   4.463   2.675  1.6475 -0.0233  1.6809
57826SOL    HW283793   5.731   4.569   2.763 -0.3499  0.0386  0.2270
57827SOL     OW83794   0.323   7.425   1.681  0.0548 -0.0850  0.2576
57827SOL    HW183795   0.315   7.371   1.760  2.4612 -1.1077 -0.0971
57827SOL    HW283796   0.413   7.411   1.652 -0.0336  2.1602 -1.3348
57828SOL     OW83797   9.703  11.405   4.412  0.1382  0.1880 -0.2833
57828SOL    HW183798   9.781  11.350   4.421  0.2525  0.0832 -1.6914
57828SOL    HW283799   9.736  11.495   4.417 -0.0719  0.1877  2.2067
57829SOL     OW83800   5.686   8.109   6.107  0.0937 -0.2043  0.1510
57829SOL    HW183801   5.626   8.049   6.152 -0.0325  0.2801  0.6355
57829SOL    HW283802   5.712   8.171   6.174  0.7728 -0.1286 -0.1788
57830SOL     OW83803   6.596  11.517   0.116 -0.3087 -0.1042  0.5517
57830SOL    HW183804   6.618  11.584   0.180 -0.2701  0.3846  0.0315
57830SOL    HW283805   6.661  11.527   0.047 -0.8182 -0.1140  0.0640
57831SOL     OW83806   9.851   0.678  12.608  1.0251  0.4792 -0.3415
57831SOL    HW183807   9.879   0.606  12.666  0.6311  0.6533  0.0686
57831SOL    HW283808   9.849   0.638  12.521 -0.4241 -0.3790  0.0439
57832SOL     OW83809   7.676   9.742   6.131  0.2818  0.1325  0.5958
57832SOL    HW183810   7.586   9.749   6.100  0.4270  1.6906  0.4206
57832SOL    HW283811   7.726   9.797   6.071  1.5216 -1.4138  0.1516
57833SOL     OW83812   8.375   4.269   2.238 -0.0093  0.3525  0.0661
57833SOL    HW183813   8.322   4.274   2.317  1.3241  1.8262  0.9345
57833SOL    HW283814   8.352   4.347   2.188 -0.2358 -0.1398 -0.6084
57834SOL     OW83815  11.099   8.242  11.989  0.0130  0.2829 -0.0906
57834SOL    HW183816  11.060   8.155  11.995 -0.1442 -0.0666 -3.7811
57834SOL    HW283817  11.033   8.300  12.028 -1.0414 -0.9796  0.1058
57835SOL     OW83818   8.932  10.848   5.591  0.0790  0.0605 -0.1386
57835SOL    HW183819   9.014  10.806   5.616 -0.5638 -0.9085  0.4454
57835SOL    HW283820   8.924  10.830   5.497 -0.1165 -1.0552  0.0747
57836SOL     OW83821   0.373   3.418   2.173 -0.3600 -0.7192 -0.3763
57836SOL    HW183822   0.296   3.471   2.191 -0.2374 -0.5382 -0.3806
57836SOL    HW283823   0.408   3.396   2.259 -0.6862 -1.2018 -0.3639
57837SOL     OW83824   6.010  10.881  10.770 -0.7365 -0.0924 -0.0760
57837SOL    HW183825   5.977  10.902  10.683 -1.0249  0.3105  0.1268
57837SOL    HW283826   5.931  10.869  10.823 -0.6196 -2.0313 -0.2470
57838SOL     OW83827   1.972   8.039   2.665  0.4246 -0.1908 -0.9638
57838SOL    HW183828   1.928   8.083   2.738 -3.3148 -3.5344 -0.8878
57838SOL    HW283829   1.995   8.110   2.605  0.1130  2.3044  1.6347
57839SOL     OW83830  10.438   4.725   6.934  0.3740 -0.4490 -0.0646
57839SOL    HW183831  10.395   4.693   6.855  0.8157 -1.7848  0.2109
57839SOL    HW283832  10.382   4.797   6.964  0.1742  0.0555 -1.5494
57840SOL     OW83833  10.026   2.259   4.904 -0.2675  0.0365  0.2971
57840SOL    HW183834  10.007   2.259   4.810 -0.6830  1.5623  0.3427
57840SOL    HW283835   9.997   2.173   4.935 -0.7977 -0.2165 -0.8490
57841SOL     OW83836   4.113   6.636   6.380 -0.0343  0.2981 -0.3369
57841SOL    HW183837   4.133   6.637   6.473 -0.6844  0.1117 -0.1930
57841SOL    HW283838   4.196   6.611   6.338  0.3212  0.6313  0.1681
57842SOL     OW83839   6.315  12.382   4.561  0.5299 -0.0718  0.5326
57842SOL    HW183840   6.311  12.302   4.614  0.5350 -0.2311  0.2913
57842SOL    HW283841   6.364  12.444   4.616  1.3947 -0.5496  0.3148
57843SOL     OW83842   9.192  10.764   5.351 -0.1186 -0.0212 -0.4773
57843SOL    HW183843   9.243  10.686   5.327 -0.3091 -0.3985  0.3295
57843SOL    HW283844   9.115  10.760   5.294  0.6251  0.4352 -1.5536
57844SOL     OW83845   4.242  11.271  11.402  1.0738  0.0551 -0.3508
57844SOL    HW183846   4.276  11.228  11.480 -0.8914 -1.4437 -0.2391
57844SOL    HW283847   4.197  11.201  11.354  0.0582  1.4549 -1.5304
57845SOL     OW83848   1.902   9.643  10.310 -0.0195 -0.0400 -0.3091
57845SOL    HW183849   1.886   9.579  10.241 -0.7427  0.1695 -0.3347
57845SOL    HW283850   1.850   9.720  10.286  0.8220  0.5672 -0.2731
57846SOL     OW83851   5.101   5.377   8.466  0.0445 -0.5928  0.0212
57846SOL    HW183852   5.038   5.349   8.399 -1.0225 -0.3545  0.9091
57846SOL    HW283853   5.180   5.399   8.416 -1.0137  0.4440 -1.2619
57847SOL     OW83854   7.634   5.339   5.335 -0.5122 -1.2732 -0.0464
57847SOL    HW183855   7.678   5.416   5.300  0.6142 -2.3869 -1.1207
57847SOL    HW283856   7.671   5.265   5.288 -0.8046 -2.6011  1.7012
57848SOL     OW83857   9.583  10.586  10.486 -0.6024  0.0148  0.3307
57848SOL    HW183858   9.637  10.653  10.445 -0.9093  0.4379  0.6120
57848SOL    HW283859   9.545  10.538  10.413 -0.1097 -0.0732  0.1297
57849SOL     OW83860   4.019   9.065  12.102  0.4650  0.7586 -0.0793
57849SOL    HW183861   4.059   8.983  12.074 -2.9098 -1.2573  0.3916
57849SOL    HW283862   4.031   9.067  12.197  0.5692  0.8372 -0.0939
57850SOL     OW83863   7.956   8.266   2.128  0.1594 -0.4533  0.4722
57850SOL    HW183864   7.863   8.270   2.105  0.1078  1.0022  0.8224
57850SOL    HW283865   7.961   8.314   2.211  1.2316 -0.4675  0.4201
57851SOL     OW83866   6.709   3.048   0.796 -0.7536 -0.2823 -0.1323
57851SOL    HW183867   6.620   3.060   0.829 -0.6027 -0.0316  0.1871
57851SOL    HW283868   6.714   2.955   0.774 -1.1752 -0.2472 -0.3915
57852SOL     OW83869   2.965  11.161   7.350  0.1448 -0.2302  0.7264
57852SOL    HW183870   2.917  11.081   7.373 -3.1495  0.9212 -1.4142
57852SOL    HW283871   3.031  11.131   7.288 -0.3895 -1.4368  0.6908
57853SOL     OW83872  10.174   7.195   2.925  0.2412  0.1499 -0.3258
57853SOL    HW183873  10.153   7.130   2.992  1.7485 -0.6825 -0.6312
57853SOL    HW283874  10.089   7.233   2.901 -0.3445  0.4499  1.9942
57854SOL     OW83875  10.433   3.523   9.649  0.2525  0.0679 -0.3722
57854SOL    HW183876  10.483   3.473   9.585 -0.2709 -0.2118 -0.5701
57854SOL    HW283877  10.497   3.548   9.715  0.9795  1.1332 -1.4428
57855SOL     OW83878  10.134  10.817   3.821 -0.2110 -0.2055 -0.0032
57855SOL    HW183879  10.136  10.722   3.831  1.7183 -0.3584 -1.3105
57855SOL    HW283880  10.063  10.834   3.760 -0.8996 -0.7476  0.6349
57856SOL     OW83881   9.375   2.700   2.278 -0.1957  0.1054  0.7009
57856SOL    HW183882   9.337   2.769   2.224  0.0435  0.2455  0.7111
57856SOL    HW283883   9.327   2.621   2.254  0.0982  0.1123  0.0732
57857SOL     OW83884   6.551   4.616   4.260 -0.1707 -0.5588  0.1106
57857SOL    HW183885   6.637   4.603   4.300 -0.0411 -2.0584 -0.5890
57857SOL    HW283886   6.566   4.605   4.166 -1.1277 -0.9722 -0.0133
57858SOL     OW83887   8.176   7.870   1.249  0.1197 -0.4022 -0.4065
57858SOL    HW183888   8.191   7.938   1.315 -0.7490 -0.0755 -0.5426
57858SOL    HW283889   8.147   7.794   1.299  0.2200 -0.3972 -0.3401
57859SOL     OW83890   4.461   3.404   4.485  0.0312  0.6614  0.1495
57859SOL    HW183891   4.479   3.320   4.443  0.1092  1.0604 -0.6512
57859SOL    HW283892   4.366   3.412   4.484  0.0656  1.3335 -1.3739
57860SOL     OW83893   5.647  10.035   0.890  0.0075  0.3009 -0.7395
57860SOL    HW183894   5.562  10.033   0.934  0.6729  0.5055  0.5919
57860SOL    HW283895   5.633  10.095   0.816 -0.7543  1.1280  0.0365
57861SOL     OW83896   4.940   3.305   6.333  0.6901 -0.1541  0.3131
57861SOL    HW183897   4.913   3.233   6.391 -2.1099  1.6301  1.4393
57861SOL    HW283898   4.985   3.366   6.392 -2.5651  1.8821  0.8921
57862SOL     OW83899   4.881   7.106   5.534  0.1481 -0.4235  0.1045
57862SOL    HW183900   4.801   7.141   5.493  0.6621  0.9763  0.2582
57862SOL    HW283901   4.948   7.114   5.467  0.3940 -0.6507  0.3214
57863SOL     OW83902   5.820   3.180   5.380 -0.0370 -0.1773  0.6934
57863SOL    HW183903   5.795   3.245   5.314 -0.2903 -1.6628 -0.7504
57863SOL    HW283904   5.873   3.228   5.443 -1.5377  1.7682  0.5673
57864SOL     OW83905  11.658   5.559  11.318 -0.1531 -0.2082 -0.1388
57864SOL    HW183906  11.725   5.529  11.256  0.9996  2.0316 -0.0902
57864SOL    HW283907  11.600   5.614  11.265 -0.6437 -0.3152  0.2819
57865SOL     OW83908   0.281  10.799   6.422  0.1984  0.1452  0.3230
57865SOL    HW183909   0.283  10.749   6.504  0.2532  0.8665  0.7710
57865SOL    HW283910   0.345  10.756   6.366 -1.9601 -2.2839 -0.5113
57866SOL     OW83911  11.593   9.625   1.600  0.2518  0.1744 -0.3466
57866SOL    HW183912  11.676   9.579   1.609 -0.9524 -1.8868  1.3825
57866SOL    HW283913  11.575   9.658   1.688  0.8179  3.7099 -1.4077
57867SOL     OW83914   6.530   5.274   7.640 -0.2656 -0.0566  0.6412
57867SOL    HW183915   6.459   5.295   7.579  0.1816 -0.3927 -0.0070
57867SOL    HW283916   6.508   5.187   7.673 -0.0578 -0.2383  0.2994
57868SOL     OW83917   6.588   9.768   0.921 -0.9601  0.2478 -0.6945
57868SOL    HW183918   6.607   9.790   0.830 -0.6931  1.7141 -0.3138
57868SOL    HW283919   6.496   9.793   0.933 -1.0845 -0.2276 -0.6325
57869SOL     OW83920   7.136  11.856   2.154 -0.2039 -0.6339  0.1610
57869SOL    HW183921   7.127  11.770   2.113 -0.3073 -0.0628 -1.0666
57869SOL    HW283922   7.220  11.889   2.123 -1.7354  1.2191 -2.4472
57870SOL     OW83923   5.625  11.422  12.841 -0.2170 -0.5364 -0.6342
57870SOL    HW183924   5.556  11.360  12.862 -0.2541 -0.0404  0.8724
57870SOL    HW283925   5.701  11.392  12.892  0.2393 -0.2564 -1.1376
57871SOL     OW83926   6.534  10.557   9.934  0.2225 -0.0963 -0.6321
57871SOL    HW183927   6.572  10.542   9.848  1.8924  1.1234 -0.1608
57871SOL    HW283928   6.601  10.526   9.996 -0.4064  0.2225  0.2322
57872SOL     OW83929   6.529   2.765  11.652 -0.7865  0.0869  0.0824
57872SOL    HW183930   6.482   2.830  11.600 -2.9484 -1.2777  0.2072
57872SOL    HW283931   6.558   2.699  11.588 -2.7005 -1.1537  0.4124
57873SOL     OW83932   5.410   4.043   6.173  0.1320  0.1344  0.1084
57873SOL    HW183933   5.502   4.061   6.158  0.4162 -2.1999 -1.5648
57873SOL    HW283934   5.406   4.007   6.262  0.4067  2.3484  1.0882
57874SOL     OW83935   9.275   7.152   3.139 -0.0610 -0.5300  0.5361
57874SOL    HW183936   9.294   7.243   3.117 -1.2301 -0.5163 -0.5539
57874SOL    HW283937   9.356   7.105   3.120  0.0113  0.0207 -0.5752
57875SOL     OW83938   1.106  10.224   7.781 -0.5615  0.2311 -0.2653
57875SOL    HW183939   1.181  10.269   7.741 -0.6274  0.4510 -0.1425
57875SOL    HW283940   1.041  10.293   7.794  0.0079  0.4517  1.5952
57876SOL     OW83941   1.490  11.815   0.741  0.3799  0.5563 -0.2196
57876SOL    HW183942   1.482  11.774   0.827 -1.4032 -0.5382 -0.8603
57876SOL    HW283943   1.547  11.891   0.756  1.3564 -0.4705  1.5892
57877SOL     OW83944  11.386   6.769   0.347 -0.0391 -0.2064 -0.2949
57877SOL    HW183945  11.291   6.774   0.345 -0.0041  1.4900  0.5576
57877SOL    HW283946  11.413   6.791   0.258 -0.4291 -1.4833 -0.7581
57878SOL     OW83947   3.140   9.175   7.429  0.2300 -0.0556  0.0712
57878SOL    HW183948   3.225   9.178   7.385 -0.0826 -1.2373 -0.6792
57878SOL    HW283949   3.076   9.167   7.358 -0.3465 -1.2369  0.6784
57879SOL     OW83950   6.182  10.852  10.384 -0.2367  0.0906 -0.4952
57879SOL    HW183951   6.225  10.921  10.434 -0.1773 -0.3592  0.0878
57879SOL    HW283952   6.098  10.838  10.428 -0.4140  0.0633 -0.8411
57880SOL     OW83953   9.776   5.699   4.991 -0.3160 -0.4373  0.3775
57880SOL    HW183954   9.856   5.656   5.022  1.0052  1.7284  0.1793
57880SOL    HW283955   9.805   5.750   4.915 -2.0098  0.0113  0.0080
57881SOL     OW83956   0.312  11.307   9.097 -0.2060 -0.0357 -0.2871
57881SOL    HW183957   0.223  11.313   9.062  0.4320 -0.4426 -2.0937
57881SOL    HW283958   0.334  11.397   9.122 -0.9817  0.1271 -0.1546
57882SOL     OW83959   6.976  12.587   9.084 -0.4688 -0.3495 -0.2703
57882SOL    HW183960   6.903  12.528   9.064 -0.1637 -1.5870  1.9423
57882SOL    HW283961   6.980  12.589   9.179  0.6997  1.8795 -0.2959
57883SOL     OW83962   9.782   1.059   4.263  0.1718 -0.3770  0.5986
57883SOL    HW183963   9.834   1.001   4.207  0.8373  0.7675 -0.0075
57883SOL    HW283964   9.732   1.113   4.202 -2.0624 -1.6727  1.1690
57884SOL     OW83965  11.751   6.051   6.432  0.2614  0.7588  0.1762
57884SOL    HW183966  11.807   6.113   6.386  0.5579 -0.6913 -1.5082
57884SOL    HW283967  11.808   5.976   6.451 -0.7040 -0.1156 -0.2279
57885SOL     OW83968   4.724   0.746   0.811  0.7323  0.0215  0.1957
57885SOL    HW183969   4.713   0.765   0.718  0.8919  0.4571  0.2590
57885SOL    HW283970   4.797   0.685   0.815  0.3760 -0.4177 -0.0009
57886SOL     OW83971   5.871   7.824  11.052  0.5583  0.4377 -0.7140
57886SOL    HW183972   5.866   7.738  11.012  1.8617  0.1957 -0.3945
57886SOL    HW283973   5.793   7.829  11.109  1.3727 -1.2471  0.6282
57887SOL     OW83974   9.527  11.332   5.364  0.0016 -0.6251  0.2680
57887SOL    HW183975   9.471  11.353   5.439 -0.0403  1.3130 -0.2368
57887SOL    HW283976   9.572  11.252   5.389 -1.5700 -1.1829  1.4809
57888SOL     OW83977   9.016  11.923   4.990  0.3226  0.0269 -0.2791
57888SOL    HW183978   8.981  11.849   4.941  1.9161 -0.1149 -1.2979
57888SOL    HW283979   8.965  11.925   5.071  0.2460 -2.2200 -0.1958
57889SOL     OW83980   3.831   2.548   6.615  0.0597  0.3393  0.7039
57889SOL    HW183981   3.756   2.488   6.611  0.9017 -0.6998 -0.2941
57889SOL    HW283982   3.829   2.584   6.704 -1.5108  0.2104  0.7468
57890SOL     OW83983   6.811   6.170  11.606 -0.0200  0.2333 -0.5885
57890SOL    HW183984   6.786   6.260  11.584 -0.3269  0.4679  0.6384
57890SOL    HW283985   6.890   6.180  11.659  1.6752 -0.4060 -2.8342
57891SOL     OW83986   3.119   8.666   9.101 -0.0317 -0.1658  0.0254
57891SOL    HW183987   3.090   8.577   9.122 -0.7343  0.1547  0.4393
57891SOL    HW283988   3.191   8.653   9.039 -1.6100 -0.9800 -1.7588
57892SOL     OW83989  10.528   1.432   7.322  0.3050 -0.2813 -0.2695
57892SOL    HW183990  10.464   1.364   7.343 -0.1019  0.0932 -0.3001
57892SOL    HW283991  10.476   1.504   7.288  0.7215  0.1090 -0.0824
57893SOL     OW83992   7.497  10.375   3.806  0.2732 -0.1682  0.6098
57893SOL    HW183993   7.494  10.282   3.829  0.1509 -0.3982 -0.2855
57893SOL    HW283994   7.476  10.377   3.713  2.8506  0.4979 -0.0332
57894SOL     OW83995   0.878   5.982  10.652 -0.1586 -0.5161  0.4484
57894SOL    HW183996   0.833   6.018  10.575  0.1517  0.5802  0.7567
57894SOL    HW283997   0.931   5.910  10.618  1.9611  1.5312 -0.8643
57895SOL     OW83998   0.335   2.715   2.571  0.6281  0.2973  0.8442
57895SOL    HW183999   0.375   2.801   2.584  0.0184  0.7351 -0.0909
57895SOL    HW284000   0.355   2.692   2.481 -2.0020  0.9894  0.0020
57896SOL     OW84001   5.273   7.948   8.585 -0.8605 -0.2430  0.4189
57896SOL    HW184002   5.224   8.031   8.583  1.2352  1.0659  0.1188
57896SOL    HW284003   5.315   7.943   8.500 -2.6045 -2.7808 -0.4124
57897SOL     OW84004  10.889  10.576   3.356 -0.4832  0.1533  0.2861
57897SOL    HW184005  10.880  10.532   3.441 -1.2164 -1.0108 -0.3542
57897SOL    HW284006  10.966  10.535   3.316 -1.5102 -1.0538 -0.5581
57898SOL     OW84007   5.786   2.869   0.646 -0.4000 -0.3344  0.2703
57898SOL    HW184008   5.860   2.810   0.633 -0.8527 -0.7612 -0.4083
57898SOL    HW284009   5.803   2.911   0.731  0.8517 -0.0692 -0.1005
57899SOL     OW84010   6.334   9.319   8.684 -0.5640  0.0934  0.4197
57899SOL    HW184011   6.366   9.361   8.765 -1.9873  0.9310  0.5904
57899SOL    HW284012   6.296   9.237   8.713 -3.5354  1.5679  1.1074
57900SOL     OW84013   7.093  11.299  12.037  0.1003 -0.0131  0.0716
57900SOL    HW184014   7.158  11.274  11.972  0.1977  0.9844 -0.2381
57900SOL    HW284015   7.138  11.362  12.094 -0.2451 -0.2059  0.5667
57901SOL     OW84016   2.505   1.428  10.440 -0.5521 -0.2717 -0.0481
57901SOL    HW184017   2.570   1.363  10.466 -0.0139 -0.3019 -1.3637
57901SOL    HW284018   2.440   1.427  10.510  1.8475  1.2434  2.4217
57902SOL     OW84019   2.622   0.045   1.599  0.0469  0.0738 -0.2196
57902SOL    HW184020   2.560  -0.010   1.551  1.5476  0.3860 -2.6934
57902SOL    HW284021   2.697  -0.012   1.617  0.4463  0.5591 -0.3068
57903SOL     OW84022   2.312   6.284   7.114 -1.0182 -0.1519  0.9516
57903SOL    HW184023   2.347   6.321   7.195 -0.0629  0.9145  0.0781
57903SOL    HW284024   2.382   6.228   7.081 -0.8074  0.5792  0.1140
57904SOL     OW84025   9.601  12.355   4.694 -0.0819 -0.3367 -0.1279
57904SOL    HW184026   9.552  12.424   4.738  1.1939  0.0440  0.7385
57904SOL    HW284027   9.547  12.277   4.705 -1.5995  0.5133 -1.2236
57905SOL     OW84028   9.569   3.537   9.613 -0.3912  0.2443 -0.0775
57905SOL    HW184029   9.585   3.623   9.653 -2.0299 -0.1649  1.5924
57905SOL    HW284030   9.519   3.489   9.679  0.6093 -2.0714 -0.9179
57906SOL     OW84031   8.398  12.003   8.009  0.0224  0.2436  0.1162
57906SOL    HW184032   8.461  12.042   8.069  1.2995 -0.3285 -0.8004
57906SOL    HW284033   8.391  11.912   8.036  1.0156 -0.1571 -0.8730
57907SOL     OW84034  12.494   7.319   4.653 -0.3751 -0.2950 -0.8298
57907SOL    HW184035  12.480   7.227   4.677 -1.0985 -0.3317 -1.3599
57907SOL    HW284036  12.410   7.347   4.615 -1.9649  2.0276  3.6870
57908SOL     OW84037   7.150  11.557   6.499  0.1356 -0.1757 -0.5871
57908SOL    HW184038   7.145  11.591   6.589  1.1870 -1.1961 -0.1054
57908SOL    HW284039   7.079  11.493   6.494 -1.6946  1.8012 -1.4192
57909SOL     OW84040  10.286   9.150  11.173  0.4078  0.3288  0.5121
57909SOL    HW184041  10.281   9.055  11.184  0.0900  0.1659 -0.9141
57909SOL    HW284042  10.224   9.185  11.236  0.3192 -0.4169  0.8485
57910SOL     OW84043   3.085   1.725   8.288 -0.0660 -0.9135 -0.4125
57910SOL    HW184044   3.047   1.768   8.365  0.4531  0.8995 -1.1126
57910SOL    HW284045   3.109   1.797   8.230  2.1558 -2.0899 -1.0785
57911SOL     OW84046   1.113  10.550   7.606 -0.1978  0.6016 -0.2596
57911SOL    HW184047   1.025  10.560   7.643  0.1293  3.7641 -0.0583
57911SOL    HW284048   1.111  10.603   7.527  1.7240  1.2908  0.1175
57912SOL     OW84049   0.909   8.793   7.263 -0.1389  0.1834 -0.1265
57912SOL    HW184050   1.005   8.799   7.263 -0.1431  1.0796 -2.2036
57912SOL    HW284051   0.884   8.801   7.171 -2.1756 -1.2122  0.2172
57913SOL     OW84052   7.493   4.721   7.428  0.1607 -0.5631 -0.6588
57913SOL    HW184053   7.407   4.686   7.446  0.0980 -0.5777 -0.9727
57913SOL    HW284054   7.540   4.650   7.385  0.6621 -0.8862  0.3953
57914SOL     OW84055   1.013  11.238  11.251 -0.0135  0.0416  0.1645
57914SOL    HW184056   0.953  11.214  11.180 -0.8492 -1.4649  1.3201
57914SOL    HW284057   1.096  11.198  11.225 -0.1130  0.1286 -0.3078
57915SOL     OW84058   0.346  12.923   3.678 -0.2110  0.5053 -0.0108
57915SOL    HW184059   0.316  12.947   3.766 -2.7885  0.0783 -0.7046
57915SOL    HW284060   0.436  12.956   3.674  0.1471  0.1833  2.9117
57916SOL     OW84061  10.269  11.555   0.095  0.2036 -0.2206 -0.3839
57916SOL    HW184062  10.179  11.521   0.097  0.0675  0.1326 -0.4540
57916SOL    HW284063  10.259  11.648   0.075  0.5304  0.0466  0.6536
57917SOL     OW84064   5.208   9.302   5.866 -0.8375 -0.0997  0.5806
57917SOL    HW184065   5.302   9.308   5.855 -0.8183 -0.6302  0.4079
57917SOL    HW284066   5.176   9.273   5.780 -1.0636 -0.7305  0.8652
57918SOL     OW84067   1.098   4.689   5.120  0.4090 -0.5182  0.4749
57918SOL    HW184068   1.047   4.769   5.132  1.9452  0.7041 -0.6989
57918SOL    HW284069   1.090   4.669   5.027  2.8008  0.3140  0.0030
57919SOL     OW84070   5.307   8.242   8.584  0.1420 -0.1366  0.7651
57919SOL    HW184071   5.400   8.221   8.586 -0.1055 -1.7221 -1.2589
57919SOL    HW284072   5.294   8.287   8.501 -1.1644 -1.5936  0.1198
57920SOL     OW84073   2.147   2.849   7.125  0.1099  0.0459 -0.2747
57920SOL    HW184074   2.201   2.829   7.202 -0.4819  2.2036  0.7715
57920SOL    HW284075   2.211   2.868   7.056  0.6480 -1.6604 -0.2950
57921SOL     OW84076  10.501   6.581  12.909 -0.3058  0.2045 -0.0983
57921SOL    HW184077  10.486   6.674  12.923 -2.0132  0.2343 -1.6851
57921SOL    HW284078  10.542   6.576  12.823 -2.1907 -0.5682 -1.0113
57922SOL     OW84079   8.026   6.425   2.645 -0.0217  0.1663  0.3142
57922SOL    HW184080   8.075   6.485   2.700 -0.0798  2.2764 -1.8099
57922SOL    HW284081   8.080   6.346   2.641  1.3900  1.0618  0.9962
57923SOL     OW84082  12.134  12.577   7.131 -0.0831 -0.3202  0.2457
57923SOL    HW184083  12.171  12.548   7.048  0.0096 -0.1194  0.2153
57923SOL    HW284084  12.136  12.673   7.126 -0.2360 -0.3067  0.4082
57924SOL     OW84085   7.021   1.475   6.433  0.2414  0.0369  0.5480
57924SOL    HW184086   6.934   1.434   6.433 -0.1756  0.6541 -2.9265
57924SOL    HW284087   7.050   1.468   6.524 -3.2929 -0.4521  1.8088
57925SOL     OW84088   1.471  12.342   1.094 -0.0309 -0.7302 -0.4238
57925SOL    HW184089   1.436  12.406   1.156  1.0193 -1.5079  1.0280
57925SOL    HW284090   1.487  12.392   1.014 -0.9102  0.4156  0.0938
57926SOL     OW84091   7.769   4.258   5.413 -0.3795 -1.0680 -0.2798
57926SOL    HW184092   7.754   4.290   5.502 -2.4245 -0.6965 -0.6923
57926SOL    HW284093   7.763   4.337   5.359  1.1198 -1.2473 -0.7442
57927SOL     OW84094   6.771   5.640   2.692  0.6183 -0.0726  0.0255
57927SOL    HW184095   6.686   5.627   2.651  0.3465  0.7963  0.2994
57927SOL    HW284096   6.816   5.557   2.680 -0.5512 -0.8056  0.5591
57928SOL     OW84097   7.371   8.169   2.840 -0.6934  0.2253 -0.4184
57928SOL    HW184098   7.432   8.141   2.909  0.7835 -0.5064 -1.9609
57928SOL    HW284099   7.411   8.138   2.759 -2.1833  1.4320 -1.6620
57929SOL     OW84100   7.348   2.053   4.595 -0.7913 -0.2434  0.0123
57929SOL    HW184101   7.353   2.149   4.595  0.9101 -0.3047  0.1558
57929SOL    HW284102   7.295   2.031   4.519 -1.4164  0.8171  0.1273
57930SOL     OW84103   8.386   1.285  12.434 -0.0780  0.8844 -0.4311
57930SOL    HW184104   8.314   1.236  12.474 -0.8248  1.5939 -0.8774
57930SOL    HW284105   8.461   1.227  12.440 -0.1714  0.9125  1.9403
57931SOL     OW84106   1.815  12.151   9.071  0.7720  0.2217 -0.5698
57931SOL    HW184107   1.767  12.071   9.095  2.3272 -1.1928 -1.9328
57931SOL    HW284108   1.781  12.173   8.985  0.8273  0.6493 -0.4820
57932SOL     OW84109  12.205   3.222   9.598 -0.2027 -0.1807 -0.0857
57932SOL    HW184110  12.162   3.287   9.653 -0.9734 -1.0263  0.3251
57932SOL    HW284111  12.252   3.166   9.660 -0.9247 -1.0260 -0.2978
57933SOL     OW84112   1.199   7.933   3.052  0.6267 -0.3567 -0.1259
57933SOL    HW184113   1.290   7.954   3.075  0.7266 -1.1770  0.2811
57933SOL    HW284114   1.199   7.926   2.957  0.9849 -0.3089 -0.1299
57934SOL     OW84115   2.161  12.461   0.466 -0.0620  0.4682 -0.1568
57934SOL    HW184116   2.115  12.512   0.399  0.1134  0.6077 -0.1708
57934SOL    HW284117   2.152  12.370   0.437 -0.4134  0.4851 -0.1076
57935SOL     OW84118   2.240  10.688   6.388  0.1959  0.0694  0.5308
57935SOL    HW184119   2.183  10.765   6.379  0.5322  0.4060  1.1435
57935SOL    HW284120   2.182  10.613   6.372 -0.5598  0.3742  1.6856
57936SOL     OW84121   0.386   7.051   9.530 -0.2424 -0.5009 -0.3150
57936SOL    HW184122   0.429   7.046   9.445 -0.0368 -1.9727 -0.1436
57936SOL    HW284123   0.456   7.071   9.592 -0.4007  0.6259 -0.4724
57937SOL     OW84124   6.446   7.480   2.711 -0.3220 -0.0476  0.0217
57937SOL    HW184125   6.496   7.511   2.636 -0.2581  0.7461  0.3844
57937SOL    HW284126   6.461   7.385   2.713  0.8668  0.1282 -0.0903
57938SOL     OW84127   5.625   7.451  10.613 -0.0859 -0.2253  0.0592
57938SOL    HW184128   5.703   7.430  10.562  0.0889 -2.0861  0.9960
57938SOL    HW284129   5.571   7.372  10.608 -0.8890  0.2212  1.2394
57939SOL     OW84130  12.612  10.175   7.282  0.2493  0.2412 -0.6643
57939SOL    HW184131  12.546  10.231   7.324 -0.4205  0.2809 -1.7291
57939SOL    HW284132  12.643  10.118   7.353  0.2314  1.2889  0.2158
57940SOL     OW84133  12.745   6.178   6.676 -0.1774  0.5113  0.2689
57940SOL    HW184134  12.800   6.155   6.601  0.2764 -0.3916  0.8610
57940SOL    HW284135  12.655   6.169   6.644  0.0151  0.0746 -0.1504
57941SOL     OW84136  11.722  11.243   2.259  0.4010  0.2199  0.3840
57941SOL    HW184137  11.674  11.161   2.248 -0.7925  0.8196  0.9571
57941SOL    HW284138  11.777  11.249   2.181  3.1616 -2.7824  1.8633
57942SOL     OW84139   5.371   5.747   5.938 -0.1283 -0.5997 -0.7110
57942SOL    HW184140   5.276   5.747   5.941 -0.2370  2.7929  0.4592
57942SOL    HW284141   5.397   5.694   6.014 -1.0814 -1.4576 -0.9761
57943SOL     OW84142   5.975   9.024  12.962  0.0276  0.4203  0.5636
57943SOL    HW184143   5.968   9.061  13.050 -2.4586 -0.1969  0.7152
57943SOL    HW284144   6.023   8.943  12.973 -0.3148  0.3229  1.3791
57944SOL     OW84145   2.231   2.500  10.353  0.3156  0.0026  0.2087
57944SOL    HW184146   2.199   2.500  10.262  0.6495 -0.8820  0.0769
57944SOL    HW284147   2.158   2.535  10.404 -0.2274 -0.3632 -0.2953
57945SOL     OW84148   0.274   4.388   5.644  0.5894  0.1873  0.4324
57945SOL    HW184149   0.253   4.336   5.722  2.8376 -1.1143  0.2424
57945SOL    HW284150   0.336   4.454   5.675  1.1198 -0.0285 -0.1614
57946SOL     OW84151  12.364   7.198   1.400 -0.2112 -0.2550  0.0959
57946SOL    HW184152  12.372   7.111   1.361  0.5732  0.7046 -2.0578
57946SOL    HW284153  12.428   7.199   1.471  3.3387 -0.0040 -2.8208
57947SOL     OW84154  12.445  10.768   3.998 -0.1553  0.1240 -0.4452
57947SOL    HW184155  12.467  10.859   3.979  0.6989  0.0142 -0.0429
57947SOL    HW284156  12.353  10.760   3.976 -0.0664  0.9044 -1.1500
57948SOL     OW84157  10.170  10.010  11.514  0.0298  0.1670  0.1513
57948SOL    HW184158  10.078  10.027  11.494 -0.0514 -1.0607 -0.6487
57948SOL    HW284159  10.170   9.977  11.604 -0.2944  0.2179  0.1698
57949SOL     OW84160   2.053   8.742   3.684  0.0527 -0.0733 -0.0345
57949SOL    HW184161   2.109   8.719   3.609  0.4786  2.3800 -0.5512
57949SOL    HW284162   1.997   8.812   3.651 -0.6659  0.1515  1.5935
57950SOL     OW84163   5.538   1.558   3.666  0.3060  0.4888  0.1207
57950SOL    HW184164   5.470   1.615   3.630  0.9983  0.4762 -1.2631
57950SOL    HW284165   5.525   1.474   3.622  1.3512  0.5503 -0.3207
57951SOL     OW84166  11.844   5.034   2.265  0.1124  0.2658  0.4457
57951SOL    HW184167  11.899   5.019   2.188  0.4192  0.9608  0.5190
57951SOL    HW284168  11.840   4.949   2.309  0.9151  0.1395  0.2924
57952SOL     OW84169   8.608  11.191  10.241  0.5939 -0.4429 -0.3919
57952SOL    HW184170   8.571  11.277  10.260  0.3767 -0.4821 -0.6373
57952SOL    HW284171   8.643  11.161  10.325  1.6684  0.3600 -0.5390
57953SOL     OW84172  11.281   0.232   7.927 -0.5068  0.4233  0.2467
57953SOL    HW184173  11.300   0.269   7.841  0.9927  0.8549  0.7323
57953SOL    HW284174  11.313   0.142   7.922  0.3596  0.7019  0.6008
57954SOL     OW84175   2.448   1.966   6.924  0.1960 -0.6480  0.0302
57954SOL    HW184176   2.363   2.002   6.952  0.6868  0.0933  0.6128
57954SOL    HW284177   2.433   1.936   6.835 -0.4294  0.3901 -0.2378
57955SOL     OW84178   9.401  10.964   1.845 -0.2078 -0.1660  0.3015
57955SOL    HW184179   9.476  10.908   1.864 -0.0531 -0.4235 -0.9836
57955SOL    HW284180   9.324  10.910   1.864 -0.0591 -0.7966 -0.7781
57956SOL     OW84181  10.865  10.987   7.254  0.3095 -0.0553 -0.0670
57956SOL    HW184182  10.904  10.954   7.334 -1.3818 -1.7394  0.1439
57956SOL    HW284183  10.811  11.061   7.281 -1.1124 -1.2850  0.5709
57957SOL     OW84184  11.086   2.638   9.000  0.0033 -0.2754  0.0508
57957SOL    HW184185  11.114   2.559   9.047 -0.8808  0.1113  1.2706
57957SOL    HW284186  11.079   2.705   9.068 -0.8170  0.4374 -0.7149
57958SOL     OW84187  10.955   5.605   7.677  0.0790 -0.1011  0.5997
57958SOL    HW184188  10.933   5.697   7.692 -0.6231  0.7939 -4.3395
57958SOL    HW284189  11.048   5.606   7.652 -0.5776 -0.1858 -2.1221
57959SOL     OW84190   9.290  11.854   7.474  0.7037 -0.1682  0.1636
57959SOL    HW184191   9.312  11.936   7.518  1.2129  0.0253 -0.4349
57959SOL    HW284192   9.342  11.855   7.394 -0.3147 -0.4430 -0.5272
57960SOL     OW84193  11.944   2.082   6.816 -0.2253  0.0618 -0.3161
57960SOL    HW184194  11.946   1.986   6.807 -0.0699 -0.0104  0.4397
57960SOL    HW284195  12.003   2.100   6.889 -1.1876  0.6344  0.3472
57961SOL     OW84196   1.277  10.174   1.120  0.7058 -1.1947  0.2825
57961SOL    HW184197   1.315  10.262   1.118  0.4573 -1.0996 -0.2985
57961SOL    HW284198   1.197  10.183   1.172 -0.0387 -0.7834 -0.9052
57962SOL     OW84199  10.865   7.348   0.001  0.2966  0.0670 -0.1764
57962SOL    HW184200  10.942   7.397   0.028 -0.3886  0.7407  0.6064
57962SOL    HW284201  10.900   7.265  -0.032  1.4926  1.1666 -1.8322
57963SOL     OW84202   5.611   8.479   3.889  0.3952 -0.1124  0.6534
57963SOL    HW184203   5.630   8.398   3.936 -0.5392 -0.3644  0.6142
57963SOL    HW284204   5.554   8.453   3.817  1.8471  0.2656 -0.6805
57964SOL     OW84205   4.362   5.301   4.808 -0.1389  0.2709  0.4411
57964SOL    HW184206   4.422   5.357   4.858  0.6106  0.8701 -1.0657
57964SOL    HW284207   4.379   5.323   4.717 -3.0600  0.8610 -0.0695
57965SOL     OW84208   5.958   6.728   9.155  0.3564 -0.1463  0.3233
57965SOL    HW184209   5.913   6.790   9.212 -3.1472 -0.8906 -1.3516
57965SOL    HW284210   5.969   6.649   9.209  1.3027  0.6057  1.2761
57966SOL     OW84211   7.470   2.292   5.012 -0.1730  0.4102 -0.0636
57966SOL    HW184212   7.484   2.236   4.936 -1.3715 -1.3807  0.9688
57966SOL    HW284213   7.556   2.295   5.055  0.7815  2.2166 -1.8685
57967SOL     OW84214   1.730   5.580   9.420 -0.1730  0.4656 -0.3621
57967SOL    HW184215   1.700   5.668   9.444  1.4099  0.3643  2.3580
57967SOL    HW284216   1.800   5.595   9.357  1.2372  1.3177  1.3406
57968SOL     OW84217   2.104  12.727   9.758  0.0535  0.5433  0.1259
57968SOL    HW184218   2.198  12.716   9.773  0.2709  1.4748 -0.4910
57968SOL    HW284219   2.088  12.820   9.771 -1.1586  0.1152  2.1304
57969SOL     OW84220   7.888   3.840   1.309  0.7868  0.1948  0.0254
57969SOL    HW184221   7.847   3.924   1.333 -0.3386 -1.0629  3.0552
57969SOL    HW284222   7.839   3.811   1.233  1.8712  2.6629 -1.7698
57970SOL     OW84223   3.262  10.551  11.978 -0.3168 -0.6494 -0.3606
57970SOL    HW184224   3.180  10.501  11.969 -0.3870 -0.7457  0.6593
57970SOL    HW284225   3.296  10.525  12.063  0.3861 -0.0229 -0.4437
57971SOL     OW84226   0.803   9.749   1.292 -0.5341 -0.1184 -0.0517
57971SOL    HW184227   0.807   9.768   1.198  0.7149 -1.0530 -0.2094
57971SOL    HW284228   0.801   9.654   1.298  0.5533 -0.0969  0.8963
57972SOL     OW84229   2.349   9.663   9.744 -0.3008  0.3856  0.5422
57972SOL    HW184230   2.422   9.690   9.800  0.2533  0.9784 -0.4369
57972SOL    HW284231   2.293   9.741   9.738  0.3039  0.7458 -0.7389
57973SOL     OW84232   6.194   9.159   4.050  0.8128 -0.0193 -0.0218
57973SOL    HW184233   6.276   9.206   4.036  0.3918  0.4848 -0.8601
57973SOL    HW284234   6.126   9.223   4.030  0.2267 -0.7987 -0.5899
57974SOL     OW84235   3.110   3.863   5.697 -0.1133 -0.4565  0.6348
57974SOL    HW184236   3.070   3.914   5.768  0.3318  0.3098  0.3343
57974SOL    HW284237   3.196   3.839   5.730  0.2718  0.2864  0.1795
57975SOL     OW84238   8.347   9.009   8.205  0.0734 -0.4162  0.0038
57975SOL    HW184239   8.323   9.097   8.232 -0.5166 -0.6022  0.0915
57975SOL    HW284240   8.426   9.020   8.152  0.3030  0.1105  0.4474
57976SOL     OW84241   6.369  10.071   0.618  0.0052 -0.0318  0.3235
57976SOL    HW184242   6.359  10.105   0.707  0.0708 -2.1741  1.1975
57976SOL    HW284243   6.283  10.034   0.597  0.4587 -1.0134  0.1577
57977SOL     OW84244   6.364   3.241   1.433  0.0294 -0.1686 -0.6138
57977SOL    HW184245   6.309   3.164   1.424 -1.2420  0.8212 -1.5799
57977SOL    HW284246   6.447   3.216   1.393 -0.5520 -0.8479 -1.4197
57978SOL     OW84247  12.194  12.875   4.793  0.1684  0.0506  0.4053
57978SOL    HW184248  12.107  12.911   4.809  0.1602  1.5620 -2.4413
57978SOL    HW284249  12.223  12.844   4.879 -3.1688 -0.6001  1.4246
57979SOL     OW84250   1.978   3.260   5.857 -0.6567  0.6645 -0.2084
57979SOL    HW184251   1.888   3.266   5.826 -0.9937 -0.9750  0.3518
57979SOL    HW284252   2.031   3.256   5.777 -1.1920  0.2680 -0.5461
57980SOL     OW84253   0.818   7.579   2.751 -0.5578  0.0386  0.6261
57980SOL    HW184254   0.743   7.520   2.753 -0.4542 -0.1678 -0.6039
57980SOL    HW284255   0.835   7.600   2.843 -1.3590 -0.8715  0.9985
57981SOL     OW84256  10.365   3.386  10.603  0.2043 -0.0620 -0.1980
57981SOL    HW184257  10.334   3.300  10.575 -1.8340  0.6344 -0.2158
57981SOL    HW284258  10.455   3.370  10.633 -0.5698 -2.4509  1.0897
57982SOL     OW84259   0.178   8.918  10.822 -0.9242  0.5487 -0.0137
57982SOL    HW184260   0.273   8.920  10.824 -0.9085  0.6602  2.7360
57982SOL    HW284261   0.151   8.985  10.885 -2.8048  0.0791 -0.2490
57983SOL     OW84262  10.632   3.207  11.825 -0.4224  0.6963  0.4961
57983SOL    HW184263  10.649   3.234  11.735  0.7881 -1.0707  0.1389
57983SOL    HW284264  10.576   3.276  11.860 -4.7266 -0.6168 -2.9115
57984SOL     OW84265   1.877   8.896   3.522 -1.1890 -0.5087 -0.2403
57984SOL    HW184266   1.797   8.868   3.567 -1.2536 -1.6557 -1.0304
57984SOL    HW284267   1.879   8.844   3.442 -0.7900  1.0994 -1.3198
57985SOL     OW84268   9.144   1.705  10.636 -0.2485  0.0549  0.2723
57985SOL    HW184269   9.132   1.671  10.724 -0.6630 -0.2597  0.0950
57985SOL    HW284270   9.155   1.800  10.648  0.3885 -0.0698  0.7182
57986SOL     OW84271   9.605   0.924  12.862  0.1188 -0.0855 -0.1121
57986SOL    HW184272   9.633   0.942  12.952  0.1031  0.1798 -0.1597
57986SOL    HW284273   9.587   1.011  12.825 -0.1743 -0.2162 -0.2731
57987SOL     OW84274   0.118   8.478   9.574  0.1295 -0.0199  0.6058
57987SOL    HW184275   0.082   8.395   9.607  1.1060 -0.3465  0.8924
57987SOL    HW284276   0.194   8.452   9.523 -0.3548  0.6177 -0.4690
57988SOL     OW84277   4.366   6.984   7.870 -0.1496 -0.0750 -0.2051
57988SOL    HW184278   4.451   7.014   7.904 -0.4271  1.2217 -0.6072
57988SOL    HW284279   4.358   7.026   7.784 -2.1495  1.5767  0.7190
57989SOL     OW84280   6.731   6.866   7.722  0.0298 -0.1395 -0.2758
57989SOL    HW184281   6.791   6.937   7.746 -0.1355 -0.1378  0.1480
57989SOL    HW284282   6.662   6.909   7.672 -0.5111  0.1509  0.6854
57990SOL     OW84283   7.516  12.767  10.745 -0.1789  0.7286 -0.4316
57990SOL    HW184284   7.517  12.674  10.769 -0.1302  0.2471 -2.1619
57990SOL    HW284285   7.438  12.802  10.788  1.5601  0.7564  3.0397
57991SOL     OW84286  11.002   4.865   1.766 -0.0574  0.0461  0.2173
57991SOL    HW184287  10.993   4.859   1.861  0.8050  4.3064  0.7940
57991SOL    HW284288  11.095   4.854   1.749 -0.0182  0.5889  0.0542
57992SOL     OW84289  12.120   1.936   9.012 -0.4376 -0.0839  0.3443
57992SOL    HW184290  12.057   1.998   8.975 -0.0119 -0.2106 -0.6236
57992SOL    HW284291  12.102   1.854   8.967  0.8876  0.0607 -0.5248
57993SOL     OW84292   5.147  12.306  12.962  0.5812  0.1976  0.4424
57993SOL    HW184293   5.077  12.354  13.006  0.2195 -0.1302  0.2260
57993SOL    HW284294   5.145  12.219  13.002  1.4274  0.4361  1.0478
57994SOL     OW84295   0.634   6.676   8.561 -0.1753  1.0572 -0.6784
57994SOL    HW184296   0.651   6.632   8.644 -0.2634  0.9712 -0.7055
57994SOL    HW284297   0.715   6.724   8.541 -0.0377  0.8137 -0.7062
57995SOL     OW84298   8.959   4.990   5.127  0.4859  0.2049 -0.2694
57995SOL    HW184299   8.896   4.932   5.086 -0.0850  0.4803  0.2041
57995SOL    HW284300   9.012   5.023   5.055  0.2962 -0.2759 -0.6328
57996SOL     OW84301   0.759   0.457   1.399 -0.5062  0.0244 -0.1884
57996SOL    HW184302   0.751   0.364   1.379 -0.9415  0.5032 -2.6763
57996SOL    HW284303   0.737   0.464   1.492  2.5681 -2.6783  0.9369
57997SOL     OW84304  12.207  11.907   6.065  0.0687 -0.7676 -0.0564
57997SOL    HW184305  12.239  11.834   6.118  0.7563 -1.4863 -1.4003
57997SOL    HW284306  12.283  11.934   6.013 -1.0677 -1.5096 -2.2229
57998SOL     OW84307   5.105   1.545   3.265  0.1239  0.0692 -0.0453
57998SOL    HW184308   5.093   1.602   3.341 -1.2799 -1.1252  0.6867
57998SOL    HW284309   5.162   1.595   3.206  0.5402  1.3837  1.4035
57999SOL     OW84310  11.187   5.508   2.134 -0.1885 -0.2964  0.1396
57999SOL    HW184311  11.180   5.498   2.039  0.6422  0.3765 -0.0073
57999SOL    HW284312  11.137   5.435   2.170 -0.7062 -0.4245 -0.8148
58000SOL     OW84313   5.908  11.258   2.081  0.1329 -0.0397 -0.4512
58000SOL    HW184314   5.863  11.274   2.164  0.2191 -1.0073 -0.2107
58000SOL    HW284315   5.919  11.345   2.043 -0.1217  0.3933  0.4371
58001SOL     OW84316   6.957   8.563   4.467 -0.1572  0.5287 -0.3175
58001SOL    HW184317   6.873   8.608   4.479 -0.0919  0.4819  0.3771
58001SOL    HW284318   6.934   8.471   4.461 -0.0983  0.4271  0.7683
58002SOL     OW84319   1.227   2.238  11.655  0.1925 -0.2287 -0.6849
58002SOL    HW184320   1.138   2.254  11.623  0.4782 -0.3695 -1.5761
58002SOL    HW284321   1.277   2.215  11.576  0.8253 -0.9886 -0.0691
58003SOL     OW84322   8.241   5.874   4.800  0.3264 -0.0596 -0.1025
58003SOL    HW184323   8.254   5.781   4.783 -1.4640 -0.3416 -0.1524
58003SOL    HW284324   8.197   5.877   4.886 -2.5657  0.4695 -1.4836
58004SOL     OW84325  11.943   5.797   8.692  0.5022  0.0186 -0.0172
58004SOL    HW184326  11.946   5.892   8.697 -1.7238  0.2336 -1.3393
58004SOL    HW284327  11.869   5.772   8.747  1.3090 -0.9931  0.6356
58005SOL     OW84328   0.657   0.877   2.750 -0.3616 -0.0136 -0.5134
58005SOL    HW184329   0.688   0.910   2.834  0.7837  1.5882 -1.5103
58005SOL    HW284330   0.664   0.782   2.757  1.5411  0.1667  0.5227
58006SOL     OW84331   2.689   2.370   5.764  0.2569 -0.3516  0.1680
58006SOL    HW184332   2.676   2.463   5.781 -0.5860 -0.3368 -0.4594
58006SOL    HW284333   2.642   2.326   5.835 -0.5148 -0.2878 -0.2878
58007SOL     OW84334   1.323   1.183   2.650  0.3618  0.4785 -0.5921
58007SOL    HW184335   1.344   1.093   2.676  0.7435  0.6494 -0.2910
58007SOL    HW284336   1.273   1.173   2.569  1.6588  0.0306 -1.3783
58008SOL     OW84337   3.579   1.601   5.323  0.4058  0.0367 -0.4542
58008SOL    HW184338   3.546   1.516   5.351  0.1244  0.3501  0.2090
58008SOL    HW284339   3.529   1.664   5.375  0.0867  0.6457 -1.4699
58009SOL     OW84340  10.021   1.774   3.272  0.5027 -0.0742 -0.7554
58009SOL    HW184341   9.986   1.808   3.189  0.3703  0.6672 -0.4013
58009SOL    HW284342  10.032   1.851   3.327 -0.6422 -0.6974  0.4011
58010SOL     OW84343   7.684   9.294   5.682  0.0351 -0.1977  0.2579
58010SOL    HW184344   7.628   9.252   5.747 -1.2652 -1.6355 -1.6727
58010SOL    HW284345   7.750   9.228   5.660  2.6522  1.4627  2.4918
58011SOL     OW84346   1.259   2.781  10.345 -0.0309 -1.2428  0.1115
58011SOL    HW184347   1.294   2.794  10.433 -0.6831  0.8946  0.0969
58011SOL    HW284348   1.164   2.771  10.358 -0.0360 -1.7698 -0.2851
58012SOL     OW84349   8.202  10.405  12.691 -0.0906  0.6672 -0.3830
58012SOL    HW184350   8.164  10.445  12.770 -0.5990 -0.3873 -0.0732
58012SOL    HW284351   8.127  10.379  12.638  0.2123  0.0717 -0.5386
58013SOL     OW84352   9.030   1.919   3.034 -0.0531 -0.2819 -0.5739
58013SOL    HW184353   8.972   1.943   2.962  2.3033  0.1508 -2.4414
58013SOL    HW284354   9.006   1.829   3.055 -3.1382  0.6695  0.6205
58014SOL     OW84355   8.896   0.412   2.184 -0.3074 -0.1740  0.0593
58014SOL    HW184356   8.842   0.485   2.154  0.8607  0.2965 -0.9419
58014SOL    HW284357   8.985   0.436   2.161 -0.0276 -2.6196 -1.8217
58015SOL     OW84358   2.536   9.894   6.787 -0.2565 -0.0367 -0.4398
58015SOL    HW184359   2.598   9.840   6.738 -0.2173  0.4398 -0.9166
58015SOL    HW284360   2.534   9.977   6.741 -0.8487  0.1386 -0.1133
58016SOL     OW84361   0.354   8.463   7.309 -0.1840 -0.5025  0.4106
58016SOL    HW184362   0.437   8.465   7.356  0.0635 -0.3041 -0.0258
58016SOL    HW284363   0.315   8.378   7.331 -0.3412 -0.1794  1.4122
58017SOL     OW84364   0.649   6.066   6.341  0.5255 -0.1082  0.7877
58017SOL    HW184365   0.707   5.993   6.318  0.8342  0.5603 -0.6554
58017SOL    HW284366   0.565   6.025   6.360  0.1775 -0.7513 -1.8070
58018SOL     OW84367   7.403   9.998   4.737 -0.3244 -0.9235 -0.2488
58018SOL    HW184368   7.386   9.964   4.650  1.1519 -0.0806 -0.9145
58018SOL    HW284369   7.417  10.092   4.723  1.6929 -1.0494  0.5936
58019SOL     OW84370   1.909   6.877  11.865  0.0435 -0.0224 -0.2959
58019SOL    HW184371   1.902   6.972  11.859  1.1862  0.1001  0.0363
58019SOL    HW284372   2.003   6.860  11.862 -0.1383 -1.1278 -0.0873
58020SOL     OW84373  10.733   3.511  10.474 -0.2891 -0.1857 -0.5679
58020SOL    HW184374  10.757   3.517  10.567 -1.3975  0.0097 -0.2863
58020SOL    HW284375  10.797   3.450  10.437  0.4303  0.0588  0.2258
58021SOL     OW84376   3.111  12.526   8.622 -0.1157 -0.0048  0.3881
58021SOL    HW184377   3.187  12.525   8.564  0.4305 -0.3421  1.0978
58021SOL    HW284378   3.037  12.508   8.564  0.5434 -1.5036 -0.0338
58022SOL     OW84379   0.031   7.597  11.347  0.0096 -0.1447 -0.2351
58022SOL    HW184380   0.074   7.640  11.273 -1.3902 -0.1132 -1.0766
58022SOL    HW284381  -0.058   7.580  11.316 -1.4706  2.1458  2.3089
58023SOL     OW84382   5.270  12.133   4.184  0.0847  0.0514 -0.0199
58023SOL    HW184383   5.215  12.115   4.260 -0.0355 -1.5168 -0.4391
58023SOL    HW284384   5.220  12.099   4.110  0.3930  1.1596 -0.7651
58024SOL     OW84385   2.613   9.490   7.893 -0.1299  0.4672 -0.6117
58024SOL    HW184386   2.552   9.446   7.952 -0.8257  1.7886 -0.3097
58024SOL    HW284387   2.558   9.521   7.821  0.7489 -1.4402 -2.2216
58025SOL     OW84388   4.127  10.959  12.267  0.2385 -0.3862 -0.1626
58025SOL    HW184389   4.187  10.905  12.319  0.7337  0.1465 -0.1712
58025SOL    HW284390   4.180  10.991  12.194  1.2751  3.5406  1.9941
58026SOL     OW84391   7.917  10.092  10.521 -0.1137 -0.0596  0.1875
58026SOL    HW184392   7.966  10.162  10.479 -0.3022 -0.3974 -0.6131
58026SOL    HW284393   7.984  10.033  10.557  0.1330 -1.1672 -1.9615
58027SOL     OW84394   0.486   2.378   2.577  0.0896 -0.6436  0.3937
58027SOL    HW184395   0.538   2.412   2.650 -0.3372 -0.8598  0.8033
58027SOL    HW284396   0.526   2.416   2.499 -0.2629  0.6567  0.8200
58028SOL     OW84397   4.300  10.017   2.592 -0.1229  0.0761  0.2933
58028SOL    HW184398   4.276  10.014   2.684 -0.6703 -0.8613  0.1357
58028SOL    HW284399   4.258  10.095   2.558 -0.2991  0.1744  0.7351
58029SOL     OW84400   4.556   8.934  12.091  0.5681 -0.2679 -0.7954
58029SOL    HW184401   4.521   8.907  12.176 -0.0465 -1.0746 -1.2926
58029SOL    HW284402   4.647   8.958  12.109 -0.1934  1.8859  0.5335
58030SOL     OW84403   4.651   3.377   7.635  0.2521 -0.2019 -0.1722
58030SOL    HW184404   4.564   3.410   7.659  0.0901  1.5664 -2.8362
58030SOL    HW284405   4.670   3.312   7.702 -2.4502  0.4399  1.3956
58031SOL     OW84406   0.470   4.092  12.243  0.3128 -0.4086  0.2614
58031SOL    HW184407   0.526   4.039  12.187  1.3043 -0.0569  0.8852
58031SOL    HW284408   0.502   4.182  12.230 -1.6655  0.1555 -1.1759
58032SOL     OW84409  10.751   4.754   6.334 -0.0023  0.1548 -0.2374
58032SOL    HW184410  10.689   4.736   6.263 -0.2284  0.5558 -0.1430
58032SOL    HW284411  10.716   4.707   6.410  0.2894 -0.3508 -0.4094
58033SOL     OW84412  10.629  12.650   8.399  0.3791  0.2884 -0.5367
58033SOL    HW184413  10.638  12.574   8.341 -0.8449  0.0445 -0.4410
58033SOL    HW284414  10.656  12.724   8.345  0.7642 -0.1179 -0.9111
58034SOL     OW84415   1.907   7.059   1.223  0.9692  0.4657  0.5405
58034SOL    HW184416   1.901   7.070   1.128 -1.4790 -0.7005  0.4757
58034SOL    HW284417   1.889   7.146   1.258 -0.6338  0.4326 -0.0898
58035SOL     OW84418   5.789  10.673  12.597 -0.3221  0.1209 -0.2637
58035SOL    HW184419   5.717  10.613  12.618  0.0174 -0.3365 -0.4077
58035SOL    HW284420   5.745  10.750  12.561 -0.9137  0.7709  1.7162
58036SOL     OW84421   9.665   7.896   4.410  0.0503 -0.0764  0.4053
58036SOL    HW184422   9.709   7.981   4.414  0.4577 -0.1618 -1.2409
58036SOL    HW284423   9.575   7.916   4.383  0.6496 -0.2266 -1.9378
58037SOL     OW84424   9.930   0.485   3.829 -0.3906  0.1424  0.8257
58037SOL    HW184425  10.017   0.467   3.792 -0.8489 -1.5220  0.5086
58037SOL    HW284426   9.878   0.408   3.808 -1.9437  1.0745  1.0903
58038SOL     OW84427   4.872   5.344   6.328 -0.3302 -0.0726  0.1362
58038SOL    HW184428   4.841   5.298   6.407 -2.1614  0.4310 -0.2516
58038SOL    HW284429   4.841   5.290   6.255 -1.0604  0.8895 -0.2852
58039SOL     OW84430   6.334   9.129   8.203  0.2717  0.7624  0.3800
58039SOL    HW184431   6.283   9.099   8.278 -0.8850  0.3190 -0.5617
58039SOL    HW284432   6.270   9.142   8.134  1.2682  1.5743 -0.4212
58040SOL     OW84433   7.769   8.056   6.091 -0.4544  0.2167 -0.0516
58040SOL    HW184434   7.737   7.997   6.159 -2.6438  0.7216 -0.5840
58040SOL    HW284435   7.730   8.141   6.112  1.2444  1.1031 -0.2876
58041SOL     OW84436   1.462   8.490  12.636 -0.2610  0.1043  0.1954
58041SOL    HW184437   1.462   8.496  12.731 -0.8368  2.2989  0.0964
58041SOL    HW284438   1.546   8.528  12.609 -1.0982  1.7311 -0.2309
58042SOL     OW84439   2.766   6.442   1.447 -0.2426  0.1899  0.1339
58042SOL    HW184440   2.806   6.355   1.456  1.4704  0.9871  0.6841
58042SOL    HW284441   2.840   6.502   1.443 -1.3999  1.6838  0.2194
58043SOL     OW84442  11.357  12.343  11.760  0.1906  0.1078  0.0174
58043SOL    HW184443  11.411  12.266  11.779 -0.6770 -0.3491  0.6971
58043SOL    HW284444  11.316  12.324  11.676  0.2497 -0.0245  0.0192
58044SOL     OW84445   0.367  10.532  10.881 -0.0236 -0.3184 -0.1998
58044SOL    HW184446   0.278  10.523  10.915 -0.3174 -2.1270 -1.2950
58044SOL    HW284447   0.421  10.482  10.941  0.3679  1.1231  0.7022
58045SOL     OW84448   5.054  12.492   3.564 -0.2758 -0.7468  0.1113
58045SOL    HW184449   5.081  12.576   3.527 -2.6317 -0.4616 -1.1414
58045SOL    HW284450   5.070  12.428   3.494  0.5409 -1.2080  0.6926
58046SOL     OW84451   0.129   2.552   3.150  0.3028 -0.4256  0.3949
58046SOL    HW184452   0.099   2.501   3.074  0.7988 -0.0019 -0.0861
58046SOL    HW284453   0.082   2.512   3.224  0.1992 -1.1735 -0.0549
58047SOL     OW84454   5.556   4.016   1.129  0.5639  0.0546 -0.4566
58047SOL    HW184455   5.545   3.934   1.080  1.3734  0.2906 -1.0450
58047SOL    HW284456   5.647   4.040   1.115  0.8730  0.0357  1.3330
58048SOL     OW84457   3.973  10.069   2.191 -0.3263  0.2229 -0.6549
58048SOL    HW184458   3.936  10.157   2.183 -1.6210 -0.3858 -1.9374
58048SOL    HW284459   4.035  10.075   2.264 -1.8602  1.6908  0.6107
58049SOL     OW84460   5.587   5.726   2.419  0.2377  0.4017  1.2032
58049SOL    HW184461   5.677   5.751   2.397 -0.7506  2.1925 -1.2139
58049SOL    HW284462   5.550   5.805   2.459 -1.2178  0.9538 -1.0594
58050SOL     OW84463   2.183   8.674  12.552 -0.4626  0.7783 -0.4594
58050SOL    HW184464   2.129   8.670  12.474 -0.3265  1.0046 -0.5664
58050SOL    HW284465   2.136   8.733  12.611 -1.3093 -0.5420  0.2123
58051SOL     OW84466  10.571   3.184   7.502  0.3802 -0.0068 -0.5927
58051SOL    HW184467  10.513   3.108   7.496 -1.6151  1.4358 -0.6195
58051SOL    HW284468  10.533   3.238   7.572  0.0809  2.2627 -2.3888
58052SOL     OW84469  11.001   5.848  11.889 -0.0057  0.1521 -0.2840
58052SOL    HW184470  11.095   5.840  11.907 -0.0115  0.8799  0.0779
58052SOL    HW284471  10.983   5.942  11.895 -0.8820 -0.0438  0.2900
58053SOL     OW84472   0.983   9.553   1.976  0.3098  0.9591  0.0180
58053SOL    HW184473   0.997   9.459   1.966 -1.0164  0.8108 -0.7075
58053SOL    HW284474   0.889   9.562   1.989  0.4030  2.2008 -0.0458
58054SOL     OW84475   3.447   1.012   3.494  0.2496 -0.1599  0.5011
58054SOL    HW184476   3.516   0.977   3.437 -1.3158 -0.6888 -1.1398
58054SOL    HW284477   3.382   0.943   3.498 -0.9404  0.9405  0.6897
58055SOL     OW84478   1.379  11.976   4.358  0.0380  1.2165  0.2139
58055SOL    HW184479   1.359  11.999   4.267 -1.4050  0.1829  0.2435
58055SOL    HW284480   1.465  12.017   4.374 -0.4747  2.9165 -1.0286
58056SOL     OW84481   5.241  11.173   0.065  0.1498 -0.9358 -0.2517
58056SOL    HW184482   5.150  11.143   0.055 -0.8225  1.8649 -0.6963
58056SOL    HW284483   5.257  11.168   0.159 -0.8075 -0.5969 -0.0572
58057SOL     OW84484  12.131   8.141   1.685 -0.5205  0.6236  0.2282
58057SOL    HW184485  12.213   8.128   1.732 -1.1199 -2.4217  0.6156
58057SOL    HW284486  12.093   8.220   1.725  0.5907  0.0915  2.4936
58058SOL     OW84487   8.448   2.314   4.828  0.2177  0.4317 -0.4109
58058SOL    HW184488   8.378   2.264   4.785 -0.2337 -0.9603  1.7475
58058SOL    HW284489   8.482   2.254   4.895  0.3932  2.6259  1.6038
58059SOL     OW84490   7.157   4.256   0.145  0.3048 -0.0018 -0.0986
58059SOL    HW184491   7.198   4.209   0.072 -0.7148  1.4274 -1.6700
58059SOL    HW284492   7.152   4.191   0.215  1.7462 -1.3021 -1.1195
58060SOL     OW84493   7.768  11.563   8.633  0.8142 -0.4429  0.1202
58060SOL    HW184494   7.775  11.523   8.547  0.0801  1.1887 -0.7350
58060SOL    HW284495   7.698  11.628   8.624  1.3226  0.3765  1.6963
58061SOL     OW84496   0.061   8.248   9.921  0.2436  0.1763  0.2280
58061SOL    HW184497   0.126   8.288   9.979  1.6042 -2.2273  0.4985
58061SOL    HW284498   0.023   8.177   9.974 -0.9616  0.0908 -0.7099
58062SOL     OW84499   8.324   9.376   4.968  0.4093 -0.0356  0.4538
58062SOL    HW184500   8.356   9.313   5.032  1.9114 -0.1421 -0.3567
58062SOL    HW284501   8.285   9.322   4.898  0.8064 -0.0245  0.2227
58063SOL     OW84502  10.374  11.167  11.480 -0.2362 -0.5631 -0.6199
58063SOL    HW184503  10.286  11.196  11.504  0.4014 -0.4288  1.7870
58063SOL    HW284504  10.386  11.198  11.391 -1.4990  2.1003  0.0498
58064SOL     OW84505  12.633  12.850   9.540 -0.1533 -0.0851  0.3356
58064SOL    HW184506  12.698  12.916   9.562 -0.3525  0.1584  0.1917
58064SOL    HW284507  12.665  12.770   9.581 -0.2164  0.2313  1.0155
58065SOL     OW84508  12.384   1.278   9.779 -0.0399 -0.2573  0.0036
58065SOL    HW184509  12.428   1.362   9.793 -0.8002  0.0042  0.8934
58065SOL    HW284510  12.400   1.258   9.686 -1.9435  2.1181 -0.9591
58066SOL     OW84511   3.923   2.443   9.624  0.3094  0.5962 -0.6192
58066SOL    HW184512   3.908   2.349   9.628  0.7328  0.5537  2.8768
58066SOL    HW284513   4.012   2.452   9.591  0.7825 -0.3450  0.3505
58067SOL     OW84514   7.781   6.514   2.571 -0.0364 -0.3352  0.1279
58067SOL    HW184515   7.804   6.607   2.561 -0.8248 -0.1153  0.3005
58067SOL    HW284516   7.862   6.472   2.600 -0.3443  0.7971  2.9374
58068SOL     OW84517  11.890   5.335   6.260  0.2165 -0.3917  0.7286
58068SOL    HW184518  11.932   5.398   6.318  0.4136 -1.9390  2.3721
58068SOL    HW284519  11.822   5.385   6.214  1.3040  1.2905  0.8906
58069SOL     OW84520  12.426   0.808   6.940  0.3716 -0.2733  0.1124
58069SOL    HW184521  12.440   0.717   6.965  0.4520 -0.3395 -0.1674
58069SOL    HW284522  12.423   0.856   7.023  2.7432 -0.1968  0.2217
58070SOL     OW84523  12.976  11.429   8.150 -0.1587  0.4232  0.4419
58070SOL    HW184524  12.962  11.471   8.065  0.2794  0.0500  0.1820
58070SOL    HW284525  13.063  11.390   8.144  0.0258  0.6898  1.1913
58071SOL     OW84526   7.207   5.030   6.031 -0.2490 -1.0341 -0.1643
58071SOL    HW184527   7.214   4.951   6.085  0.9937  1.2284  3.2495
58071SOL    HW284528   7.113   5.048   6.029 -0.2627 -0.3799  2.6723
58072SOL     OW84529  11.505  11.112   5.410 -0.2610 -0.2034 -0.4701
58072SOL    HW184530  11.486  11.188   5.355  0.8807 -0.3045 -1.0288
58072SOL    HW284531  11.548  11.149   5.487 -0.3805 -0.2202 -0.3943
58073SOL     OW84532  11.377   4.900  12.575 -0.4596 -0.6283 -0.4146
58073SOL    HW184533  11.339   4.973  12.624  0.6398 -0.8662  0.8501
58073SOL    HW284534  11.454   4.938  12.531 -1.3373 -0.4566 -1.8650
58074SOL     OW84535   3.739   7.229   5.297 -0.2137  0.5978  0.0449
58074SOL    HW184536   3.714   7.166   5.365 -1.1378  1.2939  0.3700
58074SOL    HW284537   3.694   7.198   5.218  0.7147 -0.1080 -0.2249
58075SOL     OW84538  10.669  11.988   2.708 -0.2920  0.1265 -0.6105
58075SOL    HW184539  10.625  11.904   2.715  0.2561 -0.1116  0.0836
58075SOL    HW284540  10.673  12.005   2.614 -2.0648  0.2805 -0.7061
58076SOL     OW84541  10.094   4.657  10.556 -0.4046 -0.5071 -0.2038
58076SOL    HW184542  10.187   4.660  10.579 -0.7187 -2.2672  1.4997
58076SOL    HW284543  10.088   4.586  10.492 -0.3902  0.6720 -1.5724
58077SOL     OW84544   9.874  12.494   3.127  0.3571 -0.5759  0.1982
58077SOL    HW184545   9.959  12.474   3.166  0.9540  0.8453 -0.2981
58077SOL    HW284546   9.895  12.538   3.044 -0.8679 -0.5188 -0.1050
58078SOL     OW84547  12.902   9.726   9.866 -0.1530 -0.6772  0.2763
58078SOL    HW184548  12.833   9.662   9.848  0.8809 -1.7501  0.0238
58078SOL    HW284549  12.878   9.802   9.813 -1.9267 -0.4356  1.3147
58079SOL     OW84550   7.993  11.544   1.648  0.5936 -0.3148  0.1209
58079SOL    HW184551   7.943  11.466   1.673  1.1946 -1.2299 -1.3787
58079SOL    HW284552   7.931  11.599   1.601  0.7187 -0.9787 -0.8436
58080SOL     OW84553  12.936   0.140  12.931  0.1222 -0.2045 -0.0548
58080SOL    HW184554  13.006   0.162  12.870  0.6479 -0.6311  0.3924
58080SOL    HW284555  12.883   0.074  12.885 -0.0638  0.2062 -0.4387
58081SOL     OW84556   9.499   5.470   7.859 -0.0747 -0.3651  0.0634
58081SOL    HW184557   9.526   5.464   7.951  0.3176  0.7104  0.0310
58081SOL    HW284558   9.407   5.497   7.862  0.5906  2.1626  0.1741
58082SOL     OW84559  11.368   2.656   5.434 -0.4591  0.3623 -0.1296
58082SOL    HW184560  11.318   2.687   5.358 -1.6070 -0.6532  0.1890
58082SOL    HW284561  11.458   2.649   5.402 -0.8552  0.3725 -1.2781
58083SOL     OW84562  12.889   7.034  12.917  0.5562 -0.4352 -0.1554
58083SOL    HW184563  12.972   7.066  12.954  0.2574  0.4389 -0.2158
58083SOL    HW284564  12.912   7.003  12.830  0.6990  0.5675 -0.4959
58084SOL     OW84565  12.080   8.991  10.670 -0.0495  0.0285  0.5544
58084SOL    HW184566  12.010   9.056  10.658  0.0287 -0.0829 -0.6915
58084SOL    HW284567  12.041   8.923  10.724  0.6548  2.2882  4.3012
58085SOL     OW84568   3.394   3.431  11.815  0.6117 -0.6266  0.1809
58085SOL    HW184569   3.473   3.398  11.857  0.5397 -2.4213 -0.9875
58085SOL    HW284570   3.347   3.352  11.787 -0.4740  0.4431 -1.1616
58086SOL     OW84571   6.633   9.160   3.029  0.0462 -0.1800 -0.2850
58086SOL    HW184572   6.678   9.161   3.113 -0.4169 -0.5847 -0.0314
58086SOL    HW284573   6.558   9.219   3.041  0.2748  0.1804 -0.5828
58087SOL     OW84574   8.981   3.150   3.660  0.1526  0.0042 -0.3743
58087SOL    HW184575   8.964   3.089   3.731 -1.0457 -0.6757 -1.2083
58087SOL    HW284576   9.041   3.215   3.698  0.3008 -0.8631  0.9509
58088SOL     OW84577   7.513  10.296   0.217  0.3541  0.2766 -0.0114
58088SOL    HW184578   7.593  10.348   0.230 -0.7728  1.6515  1.8995
58088SOL    HW284579   7.487  10.270   0.305 -1.1042 -0.4926 -0.6488
58089SOL     OW84580   0.522   1.193   7.342  0.1455  0.1291  0.0839
58089SOL    HW184581   0.591   1.161   7.284  0.6496 -0.3039  0.9012
58089SOL    HW284582   0.479   1.263   7.293 -0.5831 -1.3663 -1.5083
58090SOL     OW84583   2.934   4.553   9.255 -0.1834 -0.4489 -0.6729
58090SOL    HW184584   2.839   4.551   9.246 -0.1465 -1.8821 -0.9684
58090SOL    HW284585   2.964   4.474   9.210  0.7975 -2.4900  3.0908
58091SOL     OW84586   2.347   4.462   6.707 -0.0580 -0.5861 -0.0716
58091SOL    HW184587   2.372   4.542   6.753 -3.8960  0.1370  1.1268
58091SOL    HW284588   2.341   4.396   6.776 -0.6447 -0.9069 -0.4232
58092SOL     OW84589   7.374  11.953  10.394 -0.3123  0.2022  0.1055
58092SOL    HW184590   7.389  11.933  10.486  2.1558 -1.2899 -0.5289
58092SOL    HW284591   7.334  11.873  10.359 -0.6082  0.5059 -0.2508
58093SOL     OW84592   2.544  12.670  11.631  0.2721  0.0244  0.4213
58093SOL    HW184593   2.525  12.705  11.544 -1.8063 -0.5934  0.5928
58093SOL    HW284594   2.623  12.617  11.619  0.8032  1.0304 -0.7771
58094SOL     OW84595   3.863   5.407   2.560  0.1500  0.2838 -0.6520
58094SOL    HW184596   3.771   5.387   2.577  0.2508 -0.1141 -0.5367
58094SOL    HW284597   3.893   5.450   2.639 -0.0473  0.8066 -0.8618
58095SOL     OW84598   4.062   6.282   2.632 -0.6796 -0.3998  0.3975
58095SOL    HW184599   4.069   6.378   2.629  0.4613 -0.4705  0.3437
58095SOL    HW284600   3.971   6.265   2.653 -0.9454  0.7031  0.1744
58096SOL     OW84601   9.624   8.525  11.165  0.6290  0.2498 -0.0854
58096SOL    HW184602   9.618   8.434  11.193  1.6312  0.1818 -0.0322
58096SOL    HW284603   9.559   8.571  11.218 -1.1388 -0.6931 -1.3635
58097SOL     OW84604   7.271   9.781   3.392 -0.1716 -0.3122  0.3458
58097SOL    HW184605   7.209   9.783   3.319 -0.1747  1.1367  0.3730
58097SOL    HW284606   7.216   9.788   3.470 -0.1073 -1.0825  0.4717
58098SOL     OW84607   2.259   1.431  11.461 -0.6560  0.5182  0.5515
58098SOL    HW184608   2.331   1.493  11.454  0.0708 -0.4261 -0.9681
58098SOL    HW284609   2.263   1.400  11.552  1.3314 -0.0223  0.3379
58099SOL     OW84610   6.162   7.298   3.686 -0.2755 -0.5444  0.6128
58099SOL    HW184611   6.156   7.203   3.677  0.3830 -0.7619  2.2873
58099SOL    HW284612   6.248   7.314   3.724  0.7217  0.9503 -2.0182
58100SOL     OW84613   8.206   5.019   1.777 -0.1334 -0.3098 -0.1617
58100SOL    HW184614   8.243   4.933   1.757  0.1885 -0.4773  1.0963
58100SOL    HW284615   8.200   5.022   1.872 -0.7331  0.8212 -0.2123
58101SOL     OW84616  11.525  12.356   9.917 -0.3481 -0.2265 -0.4387
58101SOL    HW184617  11.583  12.346   9.992 -2.3072 -3.0245  0.9028
58101SOL    HW284618  11.565  12.304   9.847 -0.7461 -1.4734  0.2253
58102SOL     OW84619   5.726  12.743  11.887 -0.5820  0.1441  0.0437
58102SOL    HW184620   5.784  12.806  11.844 -2.7797  0.6270 -2.5212
58102SOL    HW284621   5.646  12.792  11.904 -1.5424 -1.3856  0.1342
58103SOL     OW84622   0.655   9.590   7.549 -0.7872  0.0140  0.0601
58103SOL    HW184623   0.701   9.509   7.530 -0.0210 -0.3655  3.0504
58103SOL    HW284624   0.580   9.564   7.602 -0.3416  1.2505  1.3600
58104SOL     OW84625   5.481   3.656   3.917 -0.3188  0.4842 -0.3346
58104SOL    HW184626   5.400   3.622   3.956  0.0316 -0.9624 -0.8200
58104SOL    HW284627   5.551   3.624   3.974  0.0764 -0.2565 -1.2226
58105SOL     OW84628   8.673  12.297   5.353  0.2616  0.1148 -0.2425
58105SOL    HW184629   8.670  12.254   5.438 -0.9104  0.7922  0.0842
58105SOL    HW284630   8.673  12.225   5.289 -0.2088 -0.3833  0.3106
58106SOL     OW84631   6.469   1.640   0.569  0.8529  0.3388 -0.1126
58106SOL    HW184632   6.563   1.651   0.579  0.7266  0.2839  1.4506
58106SOL    HW284633   6.452   1.550   0.599  0.4090  0.0299 -1.2533
58107SOL     OW84634   6.848   2.664   6.355 -0.4070 -0.0562  0.4312
58107SOL    HW184635   6.778   2.710   6.309 -1.1778 -0.7233  0.9098
58107SOL    HW284636   6.806   2.585   6.389  0.2966  0.0938  1.7008
58108SOL     OW84637   7.561   8.024   7.523  0.2984  0.0385  0.1429
58108SOL    HW184638   7.570   8.097   7.583 -2.3658  0.7858 -0.2358
58108SOL    HW284639   7.556   7.946   7.579 -0.0678  0.4927  0.7420
58109SOL     OW84640   6.891   1.244   9.586 -0.0817 -0.0834 -0.3881
58109SOL    HW184641   6.945   1.197   9.523  1.5038  0.8289  0.2296
58109SOL    HW284642   6.861   1.322   9.540  1.8378  1.0614  0.1810
58110SOL     OW84643  12.749   1.842   3.582  0.0265 -0.3079  0.9035
58110SOL    HW184644  12.818   1.840   3.516 -0.7557 -2.0713  0.0644
58110SOL    HW284645  12.745   1.933   3.611  1.2490  0.2403 -0.5619
58111SOL     OW84646   8.239   6.447   8.354 -0.0483  0.4050  0.0144
58111SOL    HW184647   8.238   6.532   8.398  1.3317  0.1004  0.6924
58111SOL    HW284648   8.174   6.455   8.284  0.9504  2.4879 -0.7731
58112SOL     OW84649   7.865   0.033   8.598 -0.1878 -0.1033 -0.3056
58112SOL    HW184650   7.936   0.097   8.601 -1.4494  1.3494  1.3630
58112SOL    HW284651   7.876  -0.019   8.677 -1.0308  0.2597  0.0720
58113SOL     OW84652  11.737   3.155   9.124 -0.1564 -0.1491  0.4689
58113SOL    HW184653  11.704   3.120   9.041 -0.5803 -0.0868  0.6112
58113SOL    HW284654  11.689   3.237   9.136  0.2545  0.0845  0.5377
58114SOL     OW84655   3.661   1.664  12.866  0.3684 -0.0382  0.2250
58114SOL    HW184656   3.713   1.693  12.941  0.6054 -0.1345  0.0999
58114SOL    HW284657   3.571   1.688  12.888  0.5467  0.6873  0.1735
58115SOL     OW84658   6.982   3.918   7.061  0.0035 -0.0618 -0.0834
58115SOL    HW184659   6.946   3.995   7.103  0.3074  0.4171 -0.6919
58115SOL    HW284660   7.048   3.952   7.000  0.4049 -0.8176 -0.0861
58116SOL     OW84661   3.384   8.675   2.554 -0.5966 -0.4846 -0.3466
58116SOL    HW184662   3.335   8.673   2.471 -0.1081  1.8184 -0.7503
58116SOL    HW284663   3.388   8.768   2.577  0.3661 -0.9737  1.6328
58117SOL     OW84664   4.849  11.608   5.738  0.4206 -0.1345 -0.5555
58117SOL    HW184665   4.858  11.698   5.708 -0.7593  0.1107 -0.2181
58117SOL    HW284666   4.767  11.578   5.700  0.3304 -0.7534  0.1114
58118SOL     OW84667   9.318   9.614   8.922 -0.3888  0.3455 -0.2256
58118SOL    HW184668   9.298   9.521   8.923 -0.9534  0.4116  2.3609
58118SOL    HW284669   9.262   9.651   8.854  0.0873 -1.2033 -1.5166
58119SOL     OW84670   5.423  11.679   0.546  0.2885 -0.0248 -0.0387
58119SOL    HW184671   5.382  11.728   0.618 -0.5445 -0.3586 -0.2724
58119SOL    HW284672   5.378  11.710   0.468  1.2810  0.4301 -0.4458
58120SOL     OW84673   4.280   9.426   4.305 -0.5458  0.2675  0.8192
58120SOL    HW184674   4.231   9.397   4.228  0.0898  1.4778 -0.0915
58120SOL    HW284675   4.215   9.468   4.361 -0.7756  0.8200  0.1623
58121SOL     OW84676   9.070  12.800   0.341  0.1714  0.0762 -0.1710
58121SOL    HW184677   9.002  12.765   0.282  0.3667  0.0868 -0.4059
58121SOL    HW284678   9.136  12.731   0.344  0.3662  0.2563 -0.3100
58122SOL     OW84679   5.551   3.755   2.119 -0.1320  1.0592 -0.5951
58122SOL    HW184680   5.586   3.676   2.160 -0.4951  1.1843 -0.0372
58122SOL    HW284681   5.607   3.769   2.043 -0.5685 -0.2235 -1.1945
58123SOL     OW84682  12.187   5.432  10.655 -0.2958  0.1625  0.4857
58123SOL    HW184683  12.209   5.360  10.715 -0.8032 -0.0670  0.3994
58123SOL    HW284684  12.156   5.388  10.576 -0.6390  0.4803  0.4463
58124SOL     OW84685   0.527   9.142  10.919  0.2606  0.1515 -0.0380
58124SOL    HW184686   0.491   9.062  10.881 -0.4070  0.0938  0.6950
58124SOL    HW284687   0.604   9.161  10.865  0.3678 -0.9201 -0.2891
58125SOL     OW84688  11.563   5.781   0.379  0.0285 -0.4785  0.4003
58125SOL    HW184689  11.591   5.863   0.339 -1.2008  0.1976  0.8542
58125SOL    HW284690  11.530   5.806   0.466  0.2837 -1.5493  0.8313
58126SOL     OW84691   1.345   1.229   8.233  0.0411  0.2500  0.4455
58126SOL    HW184692   1.360   1.324   8.239 -0.3561  0.3073  0.5330
58126SOL    HW284693   1.384   1.193   8.312  0.5331  0.2958  0.2289
58127SOL     OW84694  12.141   0.762   0.704 -0.3884  0.4654 -0.0668
58127SOL    HW184695  12.137   0.712   0.622 -0.7213 -1.4947  1.0725
58127SOL    HW284696  12.216   0.726   0.751 -2.0227 -0.7076  1.8055
58128SOL     OW84697  11.311  11.399   9.130  0.2652 -0.3191 -0.0179
58128SOL    HW184698  11.287  11.490   9.145  0.2993 -0.4419  0.8176
58128SOL    HW284699  11.255  11.349   9.190 -0.5351 -0.9439 -1.2303
58129SOL     OW84700  12.144   7.687   4.059  0.5838 -0.0500  0.2771
58129SOL    HW184701  12.151   7.751   3.988  2.4332  0.5417  0.9350
58129SOL    HW284702  12.067   7.634   4.036 -0.3123  1.6502 -0.8867
58130SOL     OW84703  10.388   8.557   0.583 -0.1342  0.0863  0.5252
58130SOL    HW184704  10.399   8.593   0.495 -1.6075  1.0054  0.6771
58130SOL    HW284705  10.316   8.495   0.574 -2.3761  2.3225  1.5584
58131SOL     OW84706   8.943   8.070   9.761  0.2855  0.8571  0.2295
58131SOL    HW184707   8.935   8.040   9.670 -1.6050 -0.1553  0.6671
58131SOL    HW284708   8.852   8.087   9.787  0.6372 -0.3269  2.3899
58132SOL     OW84709   4.217   8.010   6.554 -0.1865 -0.5261  0.2129
58132SOL    HW184710   4.300   7.987   6.595  0.3086 -1.7645 -1.3656
58132SOL    HW284711   4.161   7.935   6.569 -0.6039 -0.2200  0.1986
58133SOL     OW84712   1.947   7.757   4.126  0.6913 -0.2805  0.5348
58133SOL    HW184713   1.963   7.806   4.206  0.1783  1.4384 -0.3611
58133SOL    HW284714   1.953   7.822   4.056 -1.2830 -1.2179 -0.6094
58134SOL     OW84715   6.370   3.274   5.630  0.4072 -0.3148 -0.3270
58134SOL    HW184716   6.466   3.280   5.631  0.4438 -0.6921 -0.8264
58134SOL    HW284717   6.341   3.341   5.692  0.9881 -0.0464 -0.3344
58135SOL     OW84718   3.832  10.783   4.205 -0.6545  0.3560 -0.2723
58135SOL    HW184719   3.745  10.810   4.176 -0.8952  0.6074  0.6443
58135SOL    HW284720   3.822  10.691   4.229 -0.5495  0.2538 -0.6208
58136SOL     OW84721   1.665   7.072   4.573  0.1341  0.1523  0.2912
58136SOL    HW184722   1.737   7.114   4.525  0.3888 -0.9399 -0.3098
58136SOL    HW284723   1.608   7.038   4.504 -0.4551  0.1465  0.7743
58137SOL     OW84724   7.312   9.674   9.725  0.6107 -0.2866  0.0420
58137SOL    HW184725   7.383   9.727   9.761 -0.3277  0.6020  0.6403
58137SOL    HW284726   7.292   9.715   9.640 -0.2297  0.4839  0.5794
58138SOL     OW84727   1.507   9.412   8.022  0.5681  0.2003 -0.6590
58138SOL    HW184728   1.456   9.492   8.018 -0.4960  0.0253  3.6501
58138SOL    HW284729   1.595   9.440   8.049  0.5815  0.0329 -0.5204
58139SOL     OW84730   8.121   0.091  12.672 -0.4359 -0.1819 -0.2293
58139SOL    HW184731   8.076   0.147  12.610  0.0545 -1.4995 -1.8507
58139SOL    HW284732   8.053   0.032  12.706 -0.3603 -0.7403 -1.0255
58140SOL     OW84733   3.338   9.497   9.078 -0.1462  0.4257  0.1601
58140SOL    HW184734   3.300   9.487   9.166  1.4076  2.3389  1.1346
58140SOL    HW284735   3.395   9.573   9.086  2.9845 -1.5496 -1.5058
58141SOL     OW84736   6.032   8.158   8.225  0.5936 -0.4478 -0.2427
58141SOL    HW184737   6.032   8.083   8.285 -2.1215  0.7057  1.3652
58141SOL    HW284738   6.016   8.119   8.139  1.5595 -1.8761  0.1838
58142SOL     OW84739   0.507   8.413   6.622  0.4243 -0.3187 -0.0037
58142SOL    HW184740   0.454   8.468   6.681  0.8193  0.5601 -0.4450
58142SOL    HW284741   0.597   8.442   6.636  0.5256 -0.0920 -1.0283
58143SOL     OW84742   5.828   9.346   4.492  0.5298  0.5084  0.1987
58143SOL    HW184743   5.775   9.350   4.413  0.5318  3.4021  0.2119
58143SOL    HW284744   5.769   9.376   4.562  0.9250 -0.6449  1.0644
58144SOL     OW84745   4.715   8.428   0.470  0.2156 -0.2891 -0.2780
58144SOL    HW184746   4.691   8.492   0.403  2.3007  0.4477 -0.4056
58144SOL    HW284747   4.633   8.406   0.513 -0.9307  0.5060 -1.9503
58145SOL     OW84748   7.798   4.166   7.738 -1.0300 -0.1099  0.6169
58145SOL    HW184749   7.885   4.185   7.703 -1.1941  0.8082  0.6770
58145SOL    HW284750   7.811   4.089   7.794 -0.3581 -0.2862  0.2255
58146SOL     OW84751  10.259   3.479  12.021  0.3157  0.3505 -0.6153
58146SOL    HW184752  10.213   3.412  12.072  0.0646 -0.0485 -1.3446
58146SOL    HW284753  10.231   3.562  12.059 -0.8525  0.1046 -0.9122
58147SOL     OW84754   7.661  12.859   9.566 -0.0087  0.3263 -0.3249
58147SOL    HW184755   7.690  12.890   9.652 -0.8501  0.3500 -0.0342
58147SOL    HW284756   7.569  12.886   9.561 -0.9224 -2.4354  0.1173
58148SOL     OW84757   3.441   9.765   1.081 -0.1288  0.0057  0.3995
58148SOL    HW184758   3.363   9.717   1.053  0.1299 -0.3017  0.1959
58148SOL    HW284759   3.408   9.830   1.143 -0.5091 -0.3181  0.5432
58149SOL     OW84760   0.746   3.572   3.901 -0.3194 -0.3396  0.1898
58149SOL    HW184761   0.710   3.501   3.847 -0.1049 -0.5152  0.2735
58149SOL    HW284762   0.759   3.644   3.839 -0.1760 -0.5048  0.0255
58150SOL     OW84763   9.283   1.782  11.848  0.2176 -0.0406  0.3899
58150SOL    HW184764   9.225   1.808  11.777 -0.4067  0.0065  0.9111
58150SOL    HW284765   9.276   1.852  11.913 -0.5038 -0.8598  1.2335
58151SOL     OW84766   5.288   9.955   5.692 -0.0386 -0.4130  0.6785
58151SOL    HW184767   5.299  10.004   5.773 -1.9517 -0.4269  0.9906
58151SOL    HW284768   5.236   9.879   5.717  0.8407 -1.3616 -0.2536
58152SOL     OW84769   1.281   1.060   1.701 -0.3976 -0.0984 -0.3364
58152SOL    HW184770   1.347   1.102   1.757  0.0329 -1.2571  0.0533
58152SOL    HW284771   1.329   0.993   1.653 -1.2637 -0.8666 -0.1548
58153SOL     OW84772   9.923   0.410  11.522  0.6417  0.0876 -0.2344
58153SOL    HW184773   9.954   0.413  11.432 -0.1387  0.4882 -0.4991
58153SOL    HW284774   9.956   0.490  11.562  2.1768 -0.7527  0.2534
58154SOL     OW84775   8.373   6.276   4.506 -0.4952 -0.4897  0.7582
58154SOL    HW184776   8.396   6.354   4.556 -0.5690 -1.2815  2.0551
58154SOL    HW284777   8.325   6.221   4.567 -0.7037 -1.4251 -0.2251
58155SOL     OW84778   4.064   9.813   5.187 -0.3569  0.3274 -0.6080
58155SOL    HW184779   4.073   9.906   5.208 -1.1086  0.2888 -0.0752
58155SOL    HW284780   3.975   9.791   5.214  0.5188 -1.0791  1.3126
58156SOL     OW84781  10.606   1.537  12.161 -0.1714 -0.4796  0.6934
58156SOL    HW184782  10.571   1.609  12.110 -0.3308 -1.1582 -0.1761
58156SOL    HW284783  10.575   1.553  12.251 -2.4399 -0.8576  0.0425
58157SOL     OW84784   5.623   1.157   8.281  0.2870  0.3979  0.1068
58157SOL    HW184785   5.553   1.165   8.346  0.4873  3.7331  0.1037
58157SOL    HW284786   5.693   1.214   8.314  1.0057  0.9811 -2.2243
58158SOL     OW84787   1.597  12.279   6.027 -0.0032  0.5206  0.4886
58158SOL    HW184788   1.627  12.361   5.987  2.0374  0.0807  1.0027
58158SOL    HW284789   1.555  12.306   6.109  0.3397  1.0698  0.4901
58159SOL     OW84790   4.561   7.776   1.598 -0.1952  0.6525 -0.1211
58159SOL    HW184791   4.603   7.714   1.538  0.8434 -0.2428  1.4876
58159SOL    HW284792   4.486   7.729   1.632 -0.3980  0.9214 -0.1899
58160SOL     OW84793   0.457   3.878   3.656  0.2085 -0.1542 -0.2326
58160SOL    HW184794   0.447   3.812   3.588  1.2144 -0.8501  0.2574
58160SOL    HW284795   0.406   3.845   3.730  0.0479  0.0245 -0.2637
58161SOL     OW84796   2.532  12.315  10.409  0.3056 -0.2363  0.4004
58161SOL    HW184797   2.624  12.309  10.383  0.0999  0.1244 -0.4224
58161SOL    HW284798   2.513  12.231  10.451  1.3350  0.1252  1.6491
58162SOL     OW84799   4.519  12.214  12.070 -0.0311 -0.4557 -0.4861
58162SOL    HW184800   4.525  12.130  12.024 -2.7027  0.2335 -2.2878
58162SOL    HW284801   4.425  12.227  12.085  0.3802  1.8278  0.5373
58163SOL     OW84802  12.511   8.860   0.372  0.1874  0.4869  0.2677
58163SOL    HW184803  12.547   8.773   0.391  0.3778  0.8262  1.5065
58163SOL    HW284804  12.583   8.907   0.330 -0.3071 -0.3351 -1.6075
58164SOL     OW84805   5.734   4.213   2.506  0.5611  0.3829 -0.1475
58164SOL    HW184806   5.684   4.169   2.437  0.3612  0.8984 -0.3379
58164SOL    HW284807   5.792   4.145   2.542  1.3715  0.3450 -1.4779
58165SOL     OW84808   0.410   4.851  10.202 -0.1389 -0.0875 -0.3718
58165SOL    HW184809   0.371   4.766  10.225  1.6622 -0.5961  1.0481
58165SOL    HW284810   0.493   4.828  10.160  1.8570  0.8623  2.7278
58166SOL     OW84811   2.644   5.727   4.188 -0.4107  0.2589 -0.4636
58166SOL    HW184812   2.733   5.691   4.190 -0.6914 -0.4340 -0.3352
58166SOL    HW284813   2.656   5.821   4.202  0.2381  0.0486  0.5034
58167SOL     OW84814   3.980   2.734   7.193  0.0127  0.6341 -0.2210
58167SOL    HW184815   4.060   2.786   7.185  0.3528  0.6147  2.1556
58167SOL    HW284816   3.994   2.658   7.137  2.0640  0.1927  0.8031
58168SOL     OW84817   7.912   6.529   3.103 -0.0382 -0.4048  0.0698
58168SOL    HW184818   7.884   6.481   3.182 -0.3430  0.0513  0.2445
58168SOL    HW284819   7.994   6.572   3.129 -1.0123  1.1551  0.7172
58169SOL     OW84820  12.135   8.065   5.838  0.6637  0.0082  0.2548
58169SOL    HW184821  12.223   8.094   5.813  0.8309  0.3831  1.2319
58169SOL    HW284822  12.149   8.016   5.919 -0.2843  2.0965  1.7557
58170SOL     OW84823   2.244   1.458  12.146 -0.4656 -0.2310  0.6060
58170SOL    HW184824   2.296   1.525  12.102 -2.1462 -0.4789 -1.9724
58170SOL    HW284825   2.285   1.375  12.122 -0.8798 -0.3228  0.1998
58171SOL     OW84826   0.089   4.897   4.833 -0.9679  0.1337 -0.0181
58171SOL    HW184827   0.098   4.989   4.858  0.5421 -0.3178  1.2386
58171SOL    HW284828   0.159   4.884   4.768 -0.5090 -0.3558  0.5638
58172SOL     OW84829   5.804  10.895   0.128 -0.1279 -0.1091  0.6359
58172SOL    HW184830   5.768  10.806   0.125 -0.7544  0.1495  0.2007
58172SOL    HW284831   5.840  10.909   0.041  1.6252 -0.5906  1.2557
58173SOL     OW84832   9.149   7.172   4.776 -0.4265 -0.0521  0.8346
58173SOL    HW184833   9.106   7.254   4.800 -0.2756  0.6929 -1.2474
58173SOL    HW284834   9.232   7.173   4.823 -1.5307 -0.3005  2.8870
58174SOL     OW84835   3.735  10.102  12.230  0.0445  0.3729 -0.4825
58174SOL    HW184836   3.706  10.012  12.217  0.7513  0.1605 -0.6120
58174SOL    HW284837   3.819  10.095  12.275 -1.9087  1.0547  3.7010
58175SOL     OW84838   0.781   6.371   5.049 -0.5288 -0.5651 -0.0038
58175SOL    HW184839   0.727   6.340   4.976  0.1994 -0.8194 -0.4433
58175SOL    HW284840   0.772   6.466   5.047 -0.6686 -0.5838 -0.3039
58176SOL     OW84841   3.222   8.988   9.206 -0.1150 -0.2013 -0.0672
58176SOL    HW184842   3.296   9.009   9.264  0.7575  2.5960 -1.9807
58176SOL    HW284843   3.149   9.037   9.242 -0.9147 -2.2032  1.2555
58177SOL     OW84844   6.346   8.556   1.721 -0.1019 -0.4011  0.1147
58177SOL    HW184845   6.290   8.497   1.771 -0.7566  0.7027  0.7272
58177SOL    HW284846   6.333   8.642   1.762  1.8571 -0.0639  0.1181
58178SOL     OW84847   7.048   4.414   7.193 -0.0548  0.1976 -0.5964
58178SOL    HW184848   6.971   4.446   7.145 -0.1557  3.4615  1.4034
58178SOL    HW284849   7.013   4.384   7.277  0.7155  0.6062 -0.1215
58179SOL     OW84850   4.143  10.463   1.541 -0.6152 -0.0718 -0.4650
58179SOL    HW184851   4.167  10.510   1.621  1.5758 -1.1131 -0.4429
58179SOL    HW284852   4.069  10.408   1.566 -0.0275 -0.2928  0.8257
58180SOL     OW84853   6.283   9.429  12.616  0.4959  0.3889  0.1733
58180SOL    HW184854   6.352   9.380  12.660  1.8236  1.1885 -0.9081
58180SOL    HW284855   6.243   9.366  12.556 -0.1239 -0.2255  1.1957
58181SOL     OW84856   1.051  10.559   7.039  0.3489  0.3693 -0.6780
58181SOL    HW184857   1.111  10.580   7.110  1.0413 -1.7976 -0.5575
58181SOL    HW284858   1.107  10.523   6.970 -0.7249 -1.4409 -0.6669
58182SOL     OW84859   9.980  11.124   1.455  0.5181  0.2706  0.1452
58182SOL    HW184860  10.053  11.125   1.517  0.4784  0.3513  0.1900
58182SOL    HW284861   9.904  11.151   1.507  0.7954  2.1352 -0.3545
58183SOL     OW84862  11.245   0.702   3.558 -0.3569 -0.0968  0.4649
58183SOL    HW184863  11.249   0.749   3.475  2.4394 -0.7741  0.1334
58183SOL    HW284864  11.164   0.733   3.599 -0.8186  1.7041 -1.6420
58184SOL     OW84865   4.348   6.560  12.840  0.1504 -0.2334  0.2117
58184SOL    HW184866   4.366   6.510  12.920  1.9809 -0.0054  0.0013
58184SOL    HW284867   4.434   6.591  12.812 -0.5807  0.5398 -1.3046
58185SOL     OW84868   4.341   7.775   7.302  0.1432  0.1365 -0.1391
58185SOL    HW184869   4.345   7.865   7.271  1.4921  0.2624  0.3781
58185SOL    HW284870   4.432   7.746   7.306 -0.1107 -0.5530  1.7178
58186SOL     OW84871   2.592   8.809   7.529  0.6352  0.5053 -0.5577
58186SOL    HW184872   2.540   8.889   7.520  1.2316  0.8362 -1.2052
58186SOL    HW284873   2.586   8.786   7.622 -1.3454  0.0518 -0.7329
58187SOL     OW84874  12.293  10.537   4.458 -0.3473 -0.2589  0.1329
58187SOL    HW184875  12.332  10.589   4.528 -2.6197  1.8598 -0.0484
58187SOL    HW284876  12.251  10.464   4.503 -1.0046  0.5809  0.8926
58188SOL     OW84877  12.309   2.674   6.928 -0.2392 -0.3362 -0.3330
58188SOL    HW184878  12.387   2.619   6.936  1.2869  1.8242  0.6471
58188SOL    HW284879  12.251   2.645   6.998  2.6519  2.3010  3.6411
58189SOL     OW84880   7.528   4.446   2.806 -0.0876 -0.2978  0.0982
58189SOL    HW184881   7.509   4.375   2.745  0.6225 -1.5237  1.2557
58189SOL    HW284882   7.453   4.448   2.865  0.1066 -0.3885  0.3484
58190SOL     OW84883  11.892   8.162   2.659 -0.6497 -0.5421 -0.3658
58190SOL    HW184884  11.829   8.158   2.588 -0.9364  2.7568 -0.4827
58190SOL    HW284885  11.858   8.231   2.717  1.6472 -0.2686  0.7757
58191SOL     OW84886   1.023  12.603   0.129 -0.0686  0.2640 -0.5540
58191SOL    HW184887   0.930  12.584   0.137 -0.1075  1.3782  2.8259
58191SOL    HW284888   1.057  12.530   0.077 -2.5388 -1.0078 -0.5469
58192SOL     OW84889   6.158   6.208   8.857 -0.4718  0.2726  0.5576
58192SOL    HW184890   6.241   6.237   8.817 -0.5521  1.2370  1.0621
58192SOL    HW284891   6.101   6.284   8.850 -0.6350  0.3227  2.0879
58193SOL     OW84892   7.900   2.145   4.414  0.2371  0.3587 -0.5882
58193SOL    HW184893   7.962   2.155   4.343  1.3815 -2.6392 -0.1757
58193SOL    HW284894   7.848   2.068   4.390  1.7027 -1.7716  2.3381
58194SOL     OW84895   6.368  10.611   0.817 -0.4474  0.5565  0.1341
58194SOL    HW184896   6.310  10.639   0.746 -0.8204 -0.5960 -0.0336
58194SOL    HW284897   6.425  10.545   0.776  0.3990  1.0332  0.5185
58195SOL     OW84898   3.330   0.619  10.300 -0.2146 -0.1351 -0.1275
58195SOL    HW184899   3.280   0.585  10.375 -0.4002  0.6866  0.1409
58195SOL    HW284900   3.319   0.714  10.306 -1.2555 -0.0917 -1.9003
58196SOL     OW84901  11.908   2.704   4.649 -0.9306  0.4321 -0.1646
58196SOL    HW184902  11.888   2.788   4.690  1.8345  1.7486 -1.2380
58196SOL    HW284903  11.921   2.644   4.723  0.3011  1.7971  0.7794
58197SOL     OW84904  11.476   0.561   1.840 -0.0945  0.1730 -0.6866
58197SOL    HW184905  11.513   0.594   1.758  0.6692  0.3787 -0.2643
58197SOL    HW284906  11.549   0.520   1.886 -0.2763  0.9574  0.3470
58198SOL     OW84907   1.009   5.384   9.448  0.0794  0.2736  0.2568
58198SOL    HW184908   1.012   5.357   9.356  0.7349  1.1186  0.0077
58198SOL    HW284909   1.094   5.427   9.463  0.2960 -0.5364  1.4842
58199SOL     OW84910   9.794   0.241   5.424  0.1110  0.1938 -0.7736
58199SOL    HW184911   9.760   0.169   5.371  1.9949 -0.1371 -1.6076
58199SOL    HW284912   9.888   0.242   5.406  0.3235  2.0752  0.1822
58200SOL     OW84913   7.411   2.852   8.148 -0.0154 -0.0431  0.0464
58200SOL    HW184914   7.435   2.840   8.056 -0.0444  0.4251 -0.0233
58200SOL    HW284915   7.494   2.849   8.195 -0.0572 -0.9772  0.0886
58201SOL     OW84916   9.164   0.752   6.629  0.1005  0.5869  0.0057
58201SOL    HW184917   9.142   0.843   6.607  0.8012  0.7438 -0.0851
58201SOL    HW284918   9.258   0.746   6.612  0.1080 -0.0845  0.2662
58202SOL     OW84919   8.322   2.778  10.260 -0.0073  0.2989 -0.0148
58202SOL    HW184920   8.226   2.772  10.257  0.0777 -2.1024  0.3180
58202SOL    HW284921   8.347   2.732  10.341  1.4665  0.1275 -0.5319
58203SOL     OW84922   0.141  12.375   3.480  0.3385  0.2793  0.7860
58203SOL    HW184923   0.094  12.302   3.519  0.2810  0.2157  0.5985
58203SOL    HW284924   0.232  12.364   3.508  0.2584  0.3535  1.0776
58204SOL     OW84925   5.701   9.963   3.044  0.5126 -0.0398 -0.4374
58204SOL    HW184926   5.741  10.031   2.989  1.7409  0.2647  0.7778
58204SOL    HW284927   5.607   9.977   3.034  0.7132  2.2911  0.2766
58205SOL     OW84928  12.255   9.237  10.671 -0.2608  0.1207 -0.3364
58205SOL    HW184929  12.229   9.145  10.662  1.7477 -0.6058  0.7661
58205SOL    HW284930  12.282   9.262  10.583  0.4814 -0.8008 -0.3920
58206SOL     OW84931   3.407   3.116   9.021 -0.4279 -0.1939 -0.4696
58206SOL    HW184932   3.444   3.165   9.094  0.9813 -0.7922 -0.7541
58206SOL    HW284933   3.420   3.173   8.945 -0.4443 -0.2503 -0.5146
58207SOL     OW84934   0.397   0.268   1.671 -0.5578 -0.2214  0.4112
58207SOL    HW184935   0.367   0.344   1.621 -0.1103 -0.3114 -0.0032
58207SOL    HW284936   0.393   0.196   1.609  1.5958 -0.0214 -0.0216
58208SOL     OW84937  11.508  11.368   2.798 -0.1040 -0.1951  0.1383
58208SOL    HW184938  11.441  11.411   2.746  0.1088 -0.2565 -0.1870
58208SOL    HW284939  11.570  11.333   2.734  0.6494  0.5339  0.4550
58209SOL     OW84940   0.683  10.265   5.581 -0.2411 -0.1256  0.3737
58209SOL    HW184941   0.712  10.221   5.501 -0.6372  0.5824 -0.1637
58209SOL    HW284942   0.759  10.264   5.638  0.1414 -0.3481 -0.1376
58210SOL     OW84943   2.382   4.694   8.072 -0.4811  0.2093  0.0722
58210SOL    HW184944   2.439   4.631   8.116  1.1390  1.6131  0.0851
58210SOL    HW284945   2.316   4.640   8.029  0.7188 -1.4854  0.2274
58211SOL     OW84946  11.479   3.065  11.244  0.3359 -0.1454 -0.1313
58211SOL    HW184947  11.528   3.024  11.173  0.0678 -0.0568 -0.3645
58211SOL    HW284948  11.456   2.991  11.301  0.3112 -0.2509 -0.2768
58212SOL     OW84949   1.955   4.965   8.266 -0.4151 -0.2701 -0.0470
58212SOL    HW184950   2.015   4.962   8.191  0.5469  0.7814  0.6474
58212SOL    HW284951   1.890   5.031   8.242 -0.6506 -0.5925 -0.3192
58213SOL     OW84952   3.717  11.709   6.319 -0.8846 -0.3225 -0.3236
58213SOL    HW184953   3.710  11.709   6.223 -0.4147  0.8951 -0.3733
58213SOL    HW284954   3.691  11.797   6.345 -1.2066 -0.7080  0.6974
58214SOL     OW84955   2.080   4.072   4.630 -0.4359  0.1637 -0.1498
58214SOL    HW184956   2.167   4.073   4.589  0.2740 -0.9440  1.2400
58214SOL    HW284957   2.031   4.008   4.580 -0.3663  0.5669 -0.7493
58215SOL     OW84958  12.791   8.374   5.472 -0.5225 -0.1523  0.2774
58215SOL    HW184959  12.828   8.348   5.388  0.3846  4.0201 -0.8199
58215SOL    HW284960  12.866   8.371   5.532  0.9866  4.3085 -1.0192
58216SOL     OW84961   4.168   0.773  12.242  0.2940 -0.0300 -0.5446
58216SOL    HW184962   4.161   0.845  12.179 -1.1463 -0.5805 -1.0494
58216SOL    HW284963   4.182   0.695  12.188  1.7672 -0.1809 -0.0052
58217SOL     OW84964   1.056   3.346   4.528 -0.2254 -0.5165 -0.3546
58217SOL    HW184965   1.081   3.402   4.454 -0.8086 -1.7832 -1.5428
58217SOL    HW284966   0.963   3.328   4.514 -0.7851  0.5718  1.6219
58218SOL     OW84967   0.718  11.975  12.810  0.3607 -0.3644  0.4793
58218SOL    HW184968   0.622  11.969  12.807  0.2640  1.0485 -1.2401
58218SOL    HW284969   0.747  11.944  12.724  1.4702 -0.8697  1.0156
58219SOL     OW84970   8.932   5.206   5.352  0.3801 -0.5850 -0.1199
58219SOL    HW184971   8.892   5.274   5.298 -0.2206 -1.4878 -0.8457
58219SOL    HW284972   8.989   5.158   5.291 -0.2519 -1.5745  0.0424
58220SOL     OW84973  10.446   6.911   5.566  0.0613  0.1555  0.3713
58220SOL    HW184974  10.404   6.938   5.648 -0.8242 -0.1544  0.0328
58220SOL    HW284975  10.398   6.833   5.538 -1.6100  1.8469 -1.9154
58221SOL     OW84976  12.406   2.155   6.937  0.3439 -0.4328 -0.1664
58221SOL    HW184977  12.483   2.101   6.953 -1.1148 -2.4499  0.3242
58221SOL    HW284978  12.389   2.145   6.843  0.4401 -0.3271 -0.1949
58222SOL     OW84979   7.264   7.196   3.736  0.1518  0.7775 -0.0594
58222SOL    HW184980   7.228   7.196   3.647 -0.6953  0.7737  0.2830
58222SOL    HW284981   7.358   7.184   3.723 -0.2195 -2.2084 -0.8626
58223SOL     OW84982   4.239   0.572   9.647 -0.1590 -0.1320 -0.8908
58223SOL    HW184983   4.331   0.553   9.668  0.1647 -1.2405 -3.0158
58223SOL    HW284984   4.243   0.647   9.589 -0.6923  0.3923 -0.2581
58224SOL     OW84985   9.485  12.292  12.500  0.1715 -0.4153  0.0203
58224SOL    HW184986   9.559  12.244  12.464 -0.7969 -2.3186  0.4617
58224SOL    HW284987   9.458  12.241  12.576  0.9355  2.4406  2.3757
58225SOL     OW84988   7.522   1.948   1.597 -0.5286 -0.0235  0.5675
58225SOL    HW184989   7.496   1.996   1.518  2.0071  0.4330 -0.0910
58225SOL    HW284990   7.486   1.999   1.669  1.9419  2.9414 -0.0927
58226SOL     OW84991   9.048   1.143   5.463  0.4878 -0.0013 -0.4194
58226SOL    HW184992   9.092   1.059   5.456  1.6264  0.5929 -0.5897
58226SOL    HW284993   9.063   1.171   5.553  2.0744  1.0420 -0.9653
58227SOL     OW84994  10.711  12.451   2.886 -0.0434  0.2037  0.0414
58227SOL    HW184995  10.793  12.445   2.838 -0.4002 -0.0991 -0.5508
58227SOL    HW284996  10.678  12.361   2.889 -0.2454  0.2911  0.4512
58228SOL     OW84997   5.463   7.401   5.734 -0.0076 -0.2212 -0.3646
58228SOL    HW184998   5.442   7.472   5.795 -2.7600 -0.9470 -0.3533
58228SOL    HW284999   5.469   7.323   5.788 -2.2231 -0.8269 -0.8796
58229SOL     OW85000   5.702   3.646   4.704 -0.9198 -0.3336  0.6960
58229SOL    HW185001   5.732   3.679   4.789 -1.0556 -1.5756  1.2395
58229SOL    HW285002   5.766   3.680   4.642  0.3197 -1.0102  1.5533
58230SOL     OW85003   0.599   2.628   1.349  0.3383 -0.1406 -0.4711
58230SOL    HW185004   0.559   2.654   1.432  0.6473 -1.4536  0.1187
58230SOL    HW285005   0.692   2.617   1.369  0.9788  2.3531 -1.7010
58231SOL     OW85006   4.142   0.314   4.995  0.0799 -0.2499  0.0692
58231SOL    HW185007   4.111   0.386   5.050  1.5856 -0.6160  1.5032
58231SOL    HW285008   4.077   0.306   4.926  0.4162  3.1840 -0.8069
58232SOL     OW85009   2.809  11.561  10.916  0.8367 -0.1191  0.1782
58232SOL    HW185010   2.772  11.634  10.866  3.7185  0.7816 -0.8255
58232SOL    HW285011   2.825  11.493  10.850  1.5889 -0.2099  0.4436
58233SOL     OW85012  12.245   3.875   9.918 -0.2142  0.0038 -0.3170
58233SOL    HW185013  12.181   3.825   9.970 -0.5794 -0.9506 -1.6457
58233SOL    HW285014  12.248   3.960   9.962 -0.3516 -0.8170  1.3895
58234SOL     OW85015   1.763   3.723   0.861  0.3494  0.4362  0.5920
58234SOL    HW185016   1.785   3.799   0.807  2.1049 -0.5171 -0.1319
58234SOL    HW285017   1.822   3.728   0.935 -0.1180  0.2276  0.9817
58235SOL     OW85018   9.591  10.383  12.406  0.0512  0.5217 -0.1942
58235SOL    HW185019   9.673  10.377  12.454  0.4833  0.4845 -0.9259
58235SOL    HW285020   9.613  10.356  12.317 -0.7370  0.5827 -0.4167
58236SOL     OW85021  10.756  10.468  11.234 -0.5023  0.3666  0.5018
58236SOL    HW185022  10.759  10.391  11.291  1.1094  1.2669  1.7119
58236SOL    HW285023  10.847  10.488  11.215 -0.9027  1.6981 -0.1770
58237SOL     OW85024   2.059   3.757   9.969 -0.0233 -0.1418  0.7779
58237SOL    HW185025   1.977   3.717   9.940 -0.2410  0.6662  0.2339
58237SOL    HW285026   2.073   3.723  10.057 -0.9783 -0.2207  0.9056
58238SOL     OW85027   9.961  10.948   6.732  0.1787 -0.4060 -0.3494
58238SOL    HW185028  10.007  11.022   6.692 -0.9825  0.1329 -0.7268
58238SOL    HW285029  10.030  10.896   6.773  1.1116  0.3954 -0.8727
58239SOL     OW85030  10.413   4.547   0.967 -0.2061 -0.7535  0.4000
58239SOL    HW185031  10.379   4.468   1.010  0.5145 -2.0677 -1.3598
58239SOL    HW285032  10.506   4.529   0.953 -0.6308 -1.0050 -2.8649
58240SOL     OW85033  12.736  12.098  11.973 -0.7070 -0.1818 -0.0672
58240SOL    HW185034  12.764  12.156  12.044 -1.0701  0.0218 -0.0906
58240SOL    HW285035  12.736  12.153  11.896  2.8075 -1.0927 -0.9047
58241SOL     OW85036  12.820   5.382   4.268  0.7284 -0.1438 -0.0711
58241SOL    HW185037  12.862   5.338   4.342  1.4313  0.7871  0.1011
58241SOL    HW285038  12.771   5.313   4.223  0.4514 -0.7554  1.1427
58242SOL     OW85039  10.911   6.653   6.199 -0.1730  0.8739 -0.3409
58242SOL    HW185040  10.973   6.580   6.205 -0.6695  0.5337  0.9180
58242SOL    HW285041  10.924   6.688   6.111  0.4577 -0.3948 -0.7773
58243SOL     OW85042  12.120   5.776   7.034  0.5776  0.1692  0.5775
58243SOL    HW185043  12.055   5.710   7.008 -1.6140  2.0353  1.0317
58243SOL    HW285044  12.146   5.750   7.123 -0.8702  0.3109  1.0696
58244SOL     OW85045   0.283   0.992  10.187 -0.2927  0.0074 -0.6245
58244SOL    HW185046   0.332   0.911  10.204  1.3978  1.1078 -0.0464
58244SOL    HW285047   0.202   0.981  10.236  0.0265 -1.2376 -0.3340
58245SOL     OW85048   8.842   4.713   4.537 -0.4880  0.9038  0.5273
58245SOL    HW185049   8.859   4.693   4.445  1.2861 -0.8673  1.1680
58245SOL    HW285050   8.746   4.720   4.542 -0.7606 -0.5598 -1.1699
58246SOL     OW85051   6.606  12.391  12.943  0.7276  0.1113 -0.1832
58246SOL    HW185052   6.691  12.417  12.979  0.7929 -0.2594 -0.0735
58246SOL    HW285053   6.543  12.442  12.994  0.7229 -1.4080  1.4323
58247SOL     OW85054  12.067   8.608  11.775 -0.5384 -0.2192  0.1119
58247SOL    HW185055  12.104   8.520  11.783  0.0865  0.0084 -0.1859
58247SOL    HW285056  11.975   8.598  11.798 -1.1879 -1.5253 -2.5723
58248SOL     OW85057   5.291   7.829   2.629 -0.3681  0.0314 -0.2603
58248SOL    HW185058   5.305   7.742   2.666  0.3056  1.2241  2.4953
58248SOL    HW285059   5.203   7.825   2.592  0.0579 -2.1116 -1.2098
58249SOL     OW85060   1.424   7.622   6.980 -0.2906 -0.2858  0.2691
58249SOL    HW185061   1.373   7.703   6.972 -0.0442 -0.1327  0.2355
58249SOL    HW285062   1.399   7.586   7.065 -0.5122 -0.2488  0.2191
58250SOL     OW85063  12.412  10.087  12.505 -0.1812  0.1077  0.0676
58250SOL    HW185064  12.321  10.108  12.483 -0.3028 -0.0810  0.3856
58250SOL    HW285065  12.463  10.128  12.435 -0.5777 -0.8431 -0.8000
58251SOL     OW85066  12.369   2.187   1.358  0.3108 -0.9707  0.0742
58251SOL    HW185067  12.327   2.217   1.439 -1.6690 -1.6890 -0.6337
58251SOL    HW285068  12.392   2.268   1.313  0.1599 -0.5515  0.7240
58252SOL     OW85069   8.146   0.699   4.441 -0.5846  0.2489  0.1529
58252SOL    HW185070   8.231   0.654   4.431 -0.1219  1.0137  0.6150
58252SOL    HW285071   8.150   0.771   4.378 -2.0309 -1.3265 -1.8881
58253SOL     OW85072   4.021   8.041   0.897 -0.2206 -0.5935 -0.4361
58253SOL    HW185073   4.006   7.962   0.845 -0.2907 -1.4098  0.7925
58253SOL    HW285074   4.078   8.095   0.842 -0.6365 -1.2391 -1.5328
58254SOL     OW85075  11.588  11.444  11.879  0.5954  0.3426  0.8011
58254SOL    HW185076  11.661  11.447  11.817  0.2350 -1.9925  0.1728
58254SOL    HW285077  11.515  11.410  11.828 -0.6739  1.5910  1.7002
58255SOL     OW85078  11.391   5.981   4.544 -0.3906 -0.2077  0.3106
58255SOL    HW185079  11.448   5.910   4.572  1.9050  0.7448 -1.6396
58255SOL    HW285080  11.344   5.946   4.469 -0.5402 -0.2056  0.4023
58256SOL     OW85081   9.070   3.968   5.724  0.0584 -0.2095 -0.2154
58256SOL    HW185082   9.041   4.027   5.654 -0.0793  2.8863  2.2106
58256SOL    HW285083   9.156   4.002   5.750  0.1259 -1.2893  1.1015
58257SOL     OW85084   4.963   6.830   2.147 -0.4574 -0.9591  0.5097
58257SOL    HW185085   4.888   6.836   2.206 -0.6616  2.5703  0.1271
58257SOL    HW285086   4.925   6.823   2.060 -0.2861 -1.0385  0.4412
58258SOL     OW85087   7.047   6.375   3.934 -0.5896  0.2893  0.0326
58258SOL    HW185088   7.069   6.318   3.860 -1.5414 -0.2093  0.1098
58258SOL    HW285089   7.032   6.314   4.007  0.3030  0.7715  0.6371
58259SOL     OW85090  12.054   4.751   6.442 -0.2491 -0.2498  0.2685
58259SOL    HW185091  12.094   4.789   6.364 -1.6556 -0.1901 -0.4630
58259SOL    HW285092  12.049   4.657   6.422  2.4031 -0.7878  1.7020
58260SOL     OW85093  11.142  12.495  10.410 -0.0653 -0.2416 -0.1482
58260SOL    HW185094  11.160  12.422  10.350 -1.0518 -0.4176 -0.2481
58260SOL    HW285095  11.128  12.570  10.353  0.2873 -0.1236 -0.0777
58261SOL     OW85096  10.667   0.283  10.956  0.2175  0.1091 -0.3349
58261SOL    HW185097  10.610   0.294  10.880 -0.8678  0.0128  0.4479
58261SOL    HW285098  10.651   0.193  10.986  1.4015 -0.2047 -0.5864
58262SOL     OW85099  12.395   0.793   5.069 -0.0225  0.4155  0.0456
58262SOL    HW185100  12.345   0.868   5.101 -1.4032 -0.1009 -0.7868
58262SOL    HW285101  12.487   0.819   5.078 -0.3910  1.2082  2.1061
58263SOL     OW85102   2.472   3.654   7.892  0.3768  0.2331  0.1297
58263SOL    HW185103   2.510   3.695   7.969  1.0462  2.6162 -1.3453
58263SOL    HW285104   2.537   3.667   7.823  0.4115 -3.0157 -0.6387
58264SOL     OW85105  12.393   8.584   1.013  0.2287  0.3146 -0.0119
58264SOL    HW185106  12.427   8.501   1.044 -0.6907 -0.2237 -0.3935
58264SOL    HW285107  12.310   8.562   0.971 -1.6657  1.7415  2.6066
58265SOL     OW85108   1.374   1.480   6.014  0.4896 -0.7966  0.0405
58265SOL    HW185109   1.442   1.436   5.963  2.2355 -0.1977  1.7200
58265SOL    HW285110   1.340   1.548   5.956  2.0712 -0.4328 -0.4978
58266SOL     OW85111   5.508  11.496   1.775  1.1516  0.2819  0.2084
58266SOL    HW185112   5.487  11.415   1.821  2.4085  0.5296  1.2747
58266SOL    HW285113   5.427  11.520   1.730  0.6855 -1.4215  0.0721
58267SOL     OW85114   3.241   6.972  11.785 -0.6693 -0.4481 -0.2561
58267SOL    HW185115   3.204   6.972  11.696 -1.4811  2.3628 -0.0067
58267SOL    HW285116   3.169   6.939  11.840 -1.1441  0.3892 -0.3541
58268SOL     OW85117   6.745   0.664   4.749  0.0078  0.0134 -0.0359
58268SOL    HW185118   6.665   0.643   4.702 -1.1787  1.1700  1.3700
58268SOL    HW285119   6.773   0.748   4.712  0.0327  0.0749  0.1190
58269SOL     OW85120   6.312   4.117   1.773  0.3650 -0.1159  0.1336
58269SOL    HW185121   6.233   4.083   1.731  0.7651 -0.6053 -0.2413
58269SOL    HW285122   6.281   4.187   1.830 -0.6732 -2.0234  2.0452
58270SOL     OW85123   4.818   3.015  12.471  0.1252 -0.4062 -0.5319
58270SOL    HW185124   4.811   2.987  12.380  1.1038 -0.7240 -0.5176
58270SOL    HW285125   4.808   2.934  12.522 -2.1631 -0.0279 -0.2391
58271SOL     OW85126  12.751  10.415   4.569  0.2613 -0.1203 -0.1626
58271SOL    HW185127  12.692  10.431   4.495  0.6539 -2.4063 -1.0398
58271SOL    HW285128  12.767  10.321   4.567  3.0309  0.2420  0.7411
58272SOL     OW85129   1.800   6.492   5.616  0.1055  0.0738  0.2220
58272SOL    HW185130   1.706   6.500   5.605  0.0541  0.1462  0.7329
58272SOL    HW285131   1.815   6.500   5.710  0.6646  0.5357  0.1029
58273SOL     OW85132   0.984   2.254  12.614 -0.2990 -0.1576  0.1049
58273SOL    HW185133   0.924   2.196  12.662  1.1779 -1.4237  0.4774
58273SOL    HW285134   1.069   2.241  12.656  0.0510  2.5456  0.4198
58274SOL     OW85135   7.119  12.941   3.113  0.3702 -0.1209  0.3902
58274SOL    HW185136   7.198  12.993   3.101 -0.6063  1.6460  1.2461
58274SOL    HW285137   7.136  12.859   3.066  2.6836  0.2167  0.5601
58275SOL     OW85138  11.756   1.824   6.181 -0.1441  0.5360  0.0409
58275SOL    HW185139  11.819   1.816   6.253  1.3116 -1.0260 -1.3124
58275SOL    HW285140  11.770   1.746   6.128 -3.6379 -0.1668 -0.0889
58276SOL     OW85141   1.630  11.592   7.580 -0.5917  0.3351 -0.1678
58276SOL    HW185142   1.612  11.616   7.490  0.6679  0.9895 -0.2641
58276SOL    HW285143   1.544  11.593   7.623 -1.2141 -0.1063 -1.3731
58277SOL     OW85144   2.081  10.322   8.604 -0.5523  0.6449 -0.3353
58277SOL    HW185145   2.021  10.250   8.586  0.4723  0.0092 -1.2881
58277SOL    HW285146   2.123  10.298   8.687  0.2862 -0.2144 -0.9930
58278SOL     OW85147   2.578   4.027   1.418 -0.4042  0.0251  0.3280
58278SOL    HW185148   2.638   3.968   1.372 -3.4201 -2.3043 -0.9152
58278SOL    HW285149   2.610   4.115   1.397  0.6151 -1.0155 -3.1224
58279SOL     OW85150  10.584  10.208  10.846  0.1010 -0.1271 -0.4026
58279SOL    HW185151  10.512  10.245  10.896  1.2295  0.4845  0.8195
58279SOL    HW285152  10.633  10.284  10.814 -0.4002 -0.5014 -2.2111
58280SOL     OW85153   0.175   4.711   3.191  0.2617 -0.3805  0.1588
58280SOL    HW185154   0.099   4.678   3.240  0.3888  0.4472  0.9513
58280SOL    HW285155   0.175   4.661   3.110 -0.6697 -0.9493  0.4905
58281SOL     OW85156   0.850   0.388   5.325 -0.2409  0.2445  0.5287
58281SOL    HW185157   0.803   0.445   5.263 -0.0294  0.1764  0.3062
58281SOL    HW285158   0.894   0.324   5.270  0.7642  0.7875  0.6917
58282SOL     OW85159  11.700   3.769   6.411 -0.5808 -0.1555  0.3091
58282SOL    HW185160  11.789   3.777   6.377 -1.0808  0.2491 -0.9571
58282SOL    HW285161  11.682   3.854   6.451  0.0474 -0.6683  1.7858
58283SOL     OW85162   5.805   9.446   8.305 -0.5934  0.2390 -0.2690
58283SOL    HW185163   5.860   9.438   8.227 -0.4697 -0.8964 -0.0801
58283SOL    HW285164   5.842   9.521   8.352  1.2286 -0.8730  0.1767
58284SOL     OW85165   1.783   7.835   3.276 -0.4824 -0.1245  0.4189
58284SOL    HW185166   1.698   7.806   3.311 -1.3127 -0.3914 -1.6840
58284SOL    HW285167   1.761   7.891   3.202  1.2009  1.3878  0.9799
58285SOL     OW85168   9.667   6.503   6.687  0.2608 -0.1228  0.1569
58285SOL    HW185169   9.743   6.458   6.725  0.2726  0.3099  0.6635
58285SOL    HW285170   9.625   6.437   6.633 -0.5535 -1.2123  2.0239
58286SOL     OW85171   0.378   3.454   7.594  0.3642  0.1513 -0.3433
58286SOL    HW185172   0.425   3.394   7.536 -0.7725 -0.9279 -0.2073
58286SOL    HW285173   0.296   3.408   7.614 -0.2298  1.4536  0.3541
58287SOL     OW85174  10.752   7.415   1.644 -0.2793  0.1800  0.6832
58287SOL    HW185175  10.770   7.509   1.642  1.1928 -0.0459  1.5455
58287SOL    HW285176  10.775   7.384   1.556  0.5292  0.4427  0.7897
58288SOL     OW85177   8.169   1.205   4.962  0.2796  0.4349 -0.4900
58288SOL    HW185178   8.137   1.178   5.048  0.3180  0.3142 -0.5133
58288SOL    HW285179   8.132   1.141   4.901  0.0733  0.6491 -0.5910
58289SOL     OW85180  12.305   1.488   4.054  0.0829 -0.1888 -0.2121
58289SOL    HW185181  12.393   1.459   4.029  0.1529  0.8843 -1.2985
58289SOL    HW285182  12.250   1.465   3.979 -0.6949 -1.3041  0.6610
58290SOL     OW85183  12.516   2.782  12.553  0.0498 -0.2008  0.6610
58290SOL    HW185184  12.460   2.848  12.593 -1.1334  0.4396 -1.8825
58290SOL    HW285185  12.564   2.829  12.485  0.2853 -1.6576 -0.2278
58291SOL     OW85186  12.639   3.538  12.240  0.2654 -0.2653  0.7057
58291SOL    HW185187  12.601   3.610  12.290  1.0461  0.1925  0.6603
58291SOL    HW285188  12.604   3.548  12.152 -1.6021 -1.4329  1.2674
58292SOL     OW85189   1.697   8.687  11.765  0.1464 -0.4472  0.5356
58292SOL    HW185190   1.777   8.730  11.795  0.0993 -1.4273  2.1690
58292SOL    HW285191   1.654   8.657  11.845 -2.5429  1.1664 -0.1722
58293SOL     OW85192   0.992   8.105   7.665  0.2121 -0.2055 -0.2240
58293SOL    HW185193   1.049   8.159   7.720 -1.3122 -0.6293  1.9156
58293SOL    HW285194   0.944   8.168   7.612  1.3255  0.2573 -0.7213
58294SOL     OW85195   4.109  10.791   0.043  0.0082 -0.4732  0.2636
58294SOL    HW185196   4.121  10.772  -0.050  0.6829 -0.8614  0.4185
58294SOL    HW285197   4.043  10.728   0.072 -0.2828 -0.2800  0.0245
58295SOL     OW85198   7.667  11.701   9.599 -0.1502 -0.2318 -0.1900
58295SOL    HW185199   7.596  11.664   9.651  0.3752 -0.7961  0.1535
58295SOL    HW285200   7.626  11.768   9.545 -0.8000  0.0145  0.5884
58296SOL     OW85201   4.915   9.282  12.239  0.3297 -0.2365 -0.1890
58296SOL    HW185202   4.884   9.221  12.306 -0.1290  1.2993  1.0679
58296SOL    HW285203   4.848   9.279  12.171  0.2440 -1.0094 -0.0831
58297SOL     OW85204   7.505   8.700  10.926  0.3944  0.2025  0.3740
58297SOL    HW185205   7.426   8.675  10.878  0.7452  1.6061 -1.0377
58297SOL    HW285206   7.575   8.649  10.884  0.3744 -0.3739  1.0271
58298SOL     OW85207   0.981   9.894   3.811 -0.0346 -0.3971 -0.7478
58298SOL    HW185208   0.895   9.898   3.768  0.0498  2.0902 -0.8301
58298SOL    HW285209   0.988   9.977   3.858  2.9580  0.1966 -2.0188
58299SOL     OW85210  11.786   4.271   5.445 -0.0716  0.8103  0.3998
58299SOL    HW185211  11.722   4.342   5.450 -0.7122  0.3420 -0.6059
58299SOL    HW285212  11.739   4.194   5.475 -0.3223  0.2709 -1.2799
58300SOL     OW85213  10.560   1.628   5.628  0.0192 -0.3263  0.0442
58300SOL    HW185214  10.655   1.631   5.639  0.2142 -0.1616 -1.4414
58300SOL    HW285215  10.534   1.719   5.617 -0.0651 -0.4886 -1.2365
58301SOL     OW85216   4.195   3.117   1.925  0.1106  0.4044  0.0231
58301SOL    HW185217   4.206   3.211   1.908 -1.5499  0.5661 -0.2635
58301SOL    HW285218   4.284   3.081   1.916  0.7261  1.8861 -0.1643
58302SOL     OW85219   1.569   3.834   0.446 -0.1987 -0.1684 -0.6338
58302SOL    HW185220   1.491   3.804   0.398 -1.3971 -0.4789  1.3684
58302SOL    HW285221   1.609   3.754   0.479 -0.1541  0.0870 -0.0473
58303SOL     OW85222   7.616   1.395  10.881 -0.2358 -0.2102 -0.2403
58303SOL    HW185223   7.664   1.408  10.799  2.3002  0.5236  1.2313
58303SOL    HW285224   7.620   1.480  10.924  0.6475 -1.1459  1.6490
58304SOL     OW85225   8.115  11.751   6.036  0.2914 -0.1095  0.4535
58304SOL    HW185226   8.207  11.733   6.051  0.7083  1.0959 -0.5440
58304SOL    HW285227   8.085  11.680   5.979  0.3947 -0.8981  1.3502
58305SOL     OW85228  12.296   5.829   6.405 -0.0876 -0.2072  0.5944
58305SOL    HW185229  12.244   5.749   6.414  1.9150 -1.6139  0.2805
58305SOL    HW285230  12.311   5.838   6.311  2.4692 -1.4229  0.8025
58306SOL     OW85231   3.041   0.074   4.468  0.0913  0.0726 -0.1987
58306SOL    HW185232   3.108   0.126   4.424 -0.5890  1.6221  0.5341
58306SOL    HW285233   3.069   0.072   4.560 -0.9941  0.9710  0.1640
58307SOL     OW85234   3.586  12.710   7.160  0.1943 -0.1886 -0.4916
58307SOL    HW185235   3.630  12.672   7.236  0.3318 -1.6064 -1.2411
58307SOL    HW285236   3.627  12.795   7.148  0.6752 -0.2568  0.5716
58308SOL     OW85237   2.884   0.694   3.142  0.7045 -0.5398 -0.9797
58308SOL    HW185238   2.901   0.783   3.172  1.5139 -0.5269 -1.4439
58308SOL    HW285239   2.939   0.639   3.197 -1.6626 -1.0441  1.0431
58309SOL     OW85240   9.556  10.807  10.979 -0.2941  0.1570 -0.0364
58309SOL    HW185241   9.577  10.794  10.887  0.1928 -2.4672  0.3678
58309SOL    HW285242   9.641  10.812  11.023 -0.5051  2.2360  0.2245
58310SOL     OW85243   6.503  12.807   6.033 -0.1663 -0.1615 -0.1200
58310SOL    HW185244   6.497  12.721   6.074  0.0468 -0.5770 -0.9445
58310SOL    HW285245   6.531  12.790   5.944  0.7664  0.8200 -0.0491
58311SOL     OW85246   5.429  12.181   0.275  0.6528 -0.1145 -0.2903
58311SOL    HW185247   5.469  12.128   0.205  1.8314  0.8904 -0.4259
58311SOL    HW285248   5.502  12.200   0.334  0.5823  2.3221 -0.8713
58312SOL     OW85249   3.105   7.619   8.840  0.2293  0.0814 -0.2208
58312SOL    HW185250   3.071   7.536   8.807  2.6347 -0.7948 -0.6877
58312SOL    HW285251   3.080   7.684   8.774  0.3208 -0.6920 -1.0263
58313SOL     OW85252  11.080  12.003   4.266  0.6259 -0.1279 -0.0627
58313SOL    HW185253  11.007  12.038   4.316 -0.3831  0.1722 -1.6570
58313SOL    HW285254  11.065  12.035   4.177  2.2388 -0.7825 -0.6085
58314SOL     OW85255   5.945   0.547   9.611 -0.0367 -0.4645  0.0269
58314SOL    HW185256   5.909   0.536   9.523 -0.4360 -0.8113  0.2323
58314SOL    HW285257   5.963   0.641   9.618 -1.9616 -0.0890  0.3218
58315SOL     OW85258   5.204   9.047   0.181 -0.5423  0.6963 -0.0715
58315SOL    HW185259   5.167   8.959   0.178  1.1925 -0.0627 -0.1186
58315SOL    HW285260   5.283   9.042   0.127  0.0885  2.0407  0.6821
58316SOL     OW85261  10.191   0.950   1.792  0.1780 -0.2280 -0.0824
58316SOL    HW185262  10.263   0.976   1.734  0.3909 -0.7292 -0.0501
58316SOL    HW285263  10.196   1.012   1.865  2.4772 -2.0164  1.4265
58317SOL     OW85264  10.168  11.421   2.754 -0.4198 -0.4864  0.5745
58317SOL    HW185265  10.106  11.455   2.819 -1.0096 -0.3199 -0.0652
58317SOL    HW285266  10.192  11.335   2.787 -0.7857 -0.4376  0.9752
58318SOL     OW85267  12.848  12.035   6.466 -0.0872  0.1319  0.2648
58318SOL    HW185268  12.810  12.020   6.379  1.7138  1.2871 -0.7719
58318SOL    HW285269  12.845  11.949   6.508  0.4682 -0.8221 -1.5402
58319SOL     OW85270  11.074   6.128  11.414  0.3326 -0.1026 -0.3614
58319SOL    HW185271  11.098   6.063  11.480 -1.1726  0.1041  0.4251
58319SOL    HW285272  11.108   6.211  11.449  0.0991 -0.0957 -0.1428
58320SOL     OW85273   8.107   0.154   7.809 -0.6694 -0.9284 -0.1808
58320SOL    HW185274   8.190   0.108   7.823  0.2225  0.2960 -1.2514
58320SOL    HW285275   8.070   0.114   7.730 -0.1005 -0.1205 -0.8668
58321SOL     OW85276   3.378   6.725   5.726  0.4127 -0.4134  0.0154
58321SOL    HW185277   3.297   6.690   5.690 -0.2256 -0.8623  1.8096
58321SOL    HW285278   3.376   6.701   5.818  1.5657  1.4597  0.5729
58322SOL     OW85279   0.784  10.417   9.329  0.1557  0.2793 -0.5855
58322SOL    HW185280   0.761  10.400   9.421  0.4370 -1.6802 -0.8367
58322SOL    HW285281   0.742  10.501   9.310 -1.8532 -0.3420  0.6822
58323SOL     OW85282   8.712   4.118   6.549 -0.3468  0.5892  0.1465
58323SOL    HW185283   8.772   4.056   6.591  0.0123  0.8671  0.0461
58323SOL    HW285284   8.636   4.066   6.526 -1.0960  0.6496  2.2687
58324SOL     OW85285  12.200   6.490  11.496 -0.2264  0.0193 -0.0109
58324SOL    HW185286  12.181   6.481  11.589  0.2294 -1.0331 -0.0040
58324SOL    HW285287  12.114   6.499  11.454 -0.6336 -2.1853  0.2579
58325SOL     OW85288   3.681   6.295  12.918 -0.2974  0.5534 -0.5394
58325SOL    HW185289   3.617   6.230  12.889  0.5450 -0.1144 -0.9370
58325SOL    HW285290   3.668   6.301  13.013 -0.4842 -0.0825 -0.5232
58326SOL     OW85291   7.103   2.710   4.203  0.3953  0.2150  0.2238
58326SOL    HW185292   7.068   2.701   4.114 -1.7154 -1.6638  1.1527
58326SOL    HW285293   7.161   2.634   4.214  1.2337  0.8352  0.2628
58327SOL     OW85294  12.818   2.665   4.839  0.4929  0.4372  0.2734
58327SOL    HW185295  12.830   2.593   4.902 -0.3729  1.5125  1.7376
58327SOL    HW285296  12.857   2.741   4.882 -0.1526  1.2079 -0.4704
58328SOL     OW85297   3.412   5.919  10.915 -0.3214 -0.5371 -0.2879
58328SOL    HW185298   3.350   5.846  10.911 -0.8211 -0.1533  0.3615
58328SOL    HW285299   3.479   5.889  10.978 -0.8599 -0.1888  0.4594
58329SOL     OW85300  11.414   5.029  10.708 -0.3921  0.0416  0.2385
58329SOL    HW185301  11.358   4.976  10.652  2.2843  0.2776 -2.9989
58329SOL    HW285302  11.483   4.968  10.737  0.9003  0.9344 -0.8236
58330SOL     OW85303   6.622   2.580  11.820 -0.0769 -0.2867  0.4425
58330SOL    HW185304   6.563   2.575  11.896 -1.0746 -1.2819 -0.3481
58330SOL    HW285305   6.593   2.658  11.773 -1.9323 -1.6426 -0.8016
58331SOL     OW85306   3.970   7.404   6.683  0.4367 -0.1111  0.0617
58331SOL    HW185307   3.997   7.343   6.615  0.3886  0.1750 -0.2193
58331SOL    HW285308   4.037   7.473   6.682 -0.7586  1.1119 -1.2978
58332SOL     OW85309  10.764   3.037   3.797 -0.0558  0.4965  0.0072
58332SOL    HW185310  10.684   3.089   3.804  0.5338  1.5304 -0.6660
58332SOL    HW285311  10.817   3.064   3.872  0.2921  0.9580 -0.3977
58333SOL     OW85312   5.715  10.267  11.239 -0.4502 -0.2025  0.1059
58333SOL    HW185313   5.807  10.250  11.218 -0.8856 -1.4306 -0.9218
58333SOL    HW285314   5.717  10.304  11.328  0.9983 -0.5991  0.2628
58334SOL     OW85315  10.415   5.576   0.852 -0.8061 -0.5154 -0.1600
58334SOL    HW185316  10.382   5.593   0.941 -0.7333  0.6264 -0.3381
58334SOL    HW285317  10.338   5.589   0.796 -0.4453  0.6241 -0.4264
58335SOL     OW85318   6.206   9.649   0.043 -0.7257  0.1301  0.1069
58335SOL    HW185319   6.297   9.652   0.072 -0.9413  1.7837  0.7065
58335SOL    HW285320   6.172   9.567   0.078  0.1775  0.1089  0.9601
58336SOL     OW85321  11.162   0.317   3.058 -0.1919  0.5119  0.9018
58336SOL    HW185322  11.163   0.266   3.139 -1.0285 -0.5633  0.2504
58336SOL    HW285323  11.114   0.263   2.996  1.3121  0.8559 -0.6266
58337SOL     OW85324   9.873  10.165   6.042  0.2563 -0.4743  0.5102
58337SOL    HW185325   9.929  10.183   5.966  0.7673 -1.9848  0.4894
58337SOL    HW285326   9.784  10.169   6.007  0.4168  0.3453  0.1733
58338SOL     OW85327   5.596   2.207  11.430 -0.2212  0.0945 -0.3885
58338SOL    HW185328   5.536   2.134  11.435  0.6109 -0.5457  0.7268
58338SOL    HW285329   5.541   2.283  11.410 -1.0083 -0.9173 -2.3140
58339SOL     OW85330  10.597   7.625   7.749 -0.1794  1.1362 -0.4573
58339SOL    HW185331  10.521   7.575   7.778 -0.4812  2.4768  1.2883
58339SOL    HW285332  10.563   7.712   7.731  0.5027  1.0410 -2.4056
58340SOL     OW85333   6.844   9.165   7.565 -0.2924 -0.7103  0.2464
58340SOL    HW185334   6.804   9.138   7.647  0.3735  0.2101  0.8982
58340SOL    HW285335   6.844   9.086   7.511 -2.0885 -0.9585  0.5606
58341SOL     OW85336   9.510   7.013   3.261 -0.0396  0.2186 -0.0642
58341SOL    HW185337   9.475   7.088   3.309  0.5973  0.1900  0.4641
58341SOL    HW285338   9.583   7.050   3.211  0.4550 -0.0954  0.4175
58342SOL     OW85339   2.311   0.214   8.155 -0.7952  0.2318 -0.0365
58342SOL    HW185340   2.388   0.270   8.163 -1.5588  1.4054 -0.5434
58342SOL    HW285341   2.345   0.127   8.134  0.3109  1.3193 -3.2457
58343SOL     OW85342   6.848   9.852   9.808  0.0999 -0.4572  0.0586
58343SOL    HW185343   6.782   9.843   9.876  1.5387  0.9139  1.7344
58343SOL    HW285344   6.799   9.879   9.730 -1.6949 -2.8648  0.2321
58344SOL     OW85345   6.912   3.664   4.407 -0.5134  0.8522 -0.1967
58344SOL    HW185346   6.907   3.760   4.408  1.4270  0.9966 -0.4928
58344SOL    HW285347   6.950   3.643   4.322  1.9227  0.0411  1.0249
58345SOL     OW85348   0.365  12.353   3.793  0.1494  0.6559 -0.2097
58345SOL    HW185349   0.453  12.372   3.760  0.1295  3.2532  1.0009
58345SOL    HW285350   0.344  12.427   3.851 -2.0770 -0.8389  1.0525
58346SOL     OW85351   3.757   5.208   9.371  0.1367  0.1077 -0.3549
58346SOL    HW185352   3.824   5.203   9.440  0.7337 -0.0443 -0.9368
58346SOL    HW285353   3.744   5.302   9.358 -0.1451  0.1392  0.1183
58347SOL     OW85354   4.285  11.143   7.608  0.2888 -0.3868 -0.0784
58347SOL    HW185355   4.304  11.053   7.634 -1.3529 -0.7590 -0.1164
58347SOL    HW285356   4.212  11.136   7.548  1.8035  0.7646 -2.1973
58348SOL     OW85357   2.609   7.075   3.721  0.0113 -0.3333 -0.0871
58348SOL    HW185358   2.565   6.998   3.685  1.2354 -1.1688  0.1233
58348SOL    HW285359   2.621   7.054   3.814 -1.5015  1.0246  0.4550
58349SOL     OW85360  11.989  10.154   5.642  0.2153 -0.3146  0.1834
58349SOL    HW185361  12.018  10.064   5.631 -1.8938 -0.9628 -0.4498
58349SOL    HW285362  11.990  10.169   5.737  1.8488 -0.5191  0.2249
58350SOL     OW85363   8.874   0.987   1.468 -0.1165  0.2210  0.4339
58350SOL    HW185364   8.785   1.022   1.466  0.5301  1.9177  0.1854
58350SOL    HW285365   8.930   1.064   1.473  1.4349 -0.6837 -1.5698
58351SOL     OW85366   5.480   8.295   0.480 -0.1877 -0.0458 -0.3289
58351SOL    HW185367   5.470   8.273   0.388 -0.3887 -2.3313  0.1801
58351SOL    HW285368   5.507   8.387   0.480 -1.9321  0.5617 -2.5668
58352SOL     OW85369   2.336   8.061  12.093 -0.1370  0.1029  0.2504
58352SOL    HW185370   2.375   7.974  12.081  1.3392  0.6924  0.5507
58352SOL    HW285371   2.245   8.043  12.119 -0.8012 -1.3056 -2.6416
58353SOL     OW85372   2.694  10.882   8.154  0.2846  0.1926  0.2197
58353SOL    HW185373   2.661  10.949   8.094  0.0909 -1.0759 -1.1545
58353SOL    HW285374   2.736  10.931   8.224 -1.1257  1.7772  0.0214
58354SOL     OW85375   6.516   5.742   4.607  0.0655  0.1680  0.3191
58354SOL    HW185376   6.463   5.817   4.634 -1.0023 -0.3888 -0.1662
58354SOL    HW285377   6.467   5.666   4.637  0.1185 -0.3942 -0.9533
58355SOL     OW85378   4.090   9.761  11.051  0.0757 -0.1829 -1.2127
58355SOL    HW185379   3.998   9.735  11.044 -0.7618  1.8196  0.9808
58355SOL    HW285380   4.133   9.687  11.095 -1.2213  0.0641  0.6020
58356SOL     OW85381  12.443   9.568   4.283 -0.0190 -0.3859 -0.0117
58356SOL    HW185382  12.528   9.587   4.244 -0.1814  1.0087  0.2535
58356SOL    HW285383  12.461   9.561   4.377 -0.2028 -0.0685  0.0468
58357SOL     OW85384   3.901   5.240   1.541  0.1767  0.5820  0.1190
58357SOL    HW185385   3.912   5.314   1.482 -1.2901 -0.3589 -1.4328
58357SOL    HW285386   3.913   5.163   1.486 -1.7268 -0.3375  0.8982
58358SOL     OW85387   7.956   0.131  10.720 -0.5234  0.0386 -0.3009
58358SOL    HW185388   7.905   0.081  10.783 -0.3889 -0.0171 -0.2363
58358SOL    HW285389   7.940   0.223  10.744 -0.2876  0.0128 -0.0383
58359SOL     OW85390   5.631  10.948   8.947  0.1030 -0.7973  0.4386
58359SOL    HW185391   5.625  10.945   9.043  1.2112 -3.0646  0.4805
58359SOL    HW285392   5.724  10.946   8.929 -0.0004  1.4857 -0.7330
58360SOL     OW85393   7.245   9.248   3.118 -0.4867 -0.5500  0.4224
58360SOL    HW185394   7.275   9.217   3.033  1.2981  1.6065  0.1570
58360SOL    HW285395   7.307   9.208   3.180  1.0591  1.3315  0.1939
58361SOL     OW85396   9.310   8.130   0.978 -0.1784 -0.1805  0.0074
58361SOL    HW185397   9.261   8.135   1.060 -1.2850 -1.0253 -0.5841
58361SOL    HW285398   9.401   8.146   1.004 -0.5889  0.1332  1.3124
58362SOL     OW85399   3.260   0.507   6.963 -0.0603 -0.3883 -0.1089
58362SOL    HW185400   3.224   0.418   6.962 -0.2065 -0.3616  1.0556
58362SOL    HW285401   3.351   0.495   6.990  0.4889 -0.3341 -1.7924
58363SOL     OW85402   5.597   7.298   2.769  0.2580 -0.1500 -0.5368
58363SOL    HW185403   5.505   7.322   2.784  0.6201  0.0940  1.5910
58363SOL    HW285404   5.638   7.379   2.739 -0.5932 -0.7755 -3.8463
58364SOL     OW85405   4.025  11.742   8.123  0.1415 -0.3194 -0.1765
58364SOL    HW185406   4.001  11.769   8.212  1.0504  0.1603 -0.0608
58364SOL    HW285407   4.042  11.648   8.131  0.2557 -0.2734  0.1713
58365SOL     OW85408   7.757  11.657   9.869  0.1610  0.0901  0.0838
58365SOL    HW185409   7.759  11.694   9.780 -0.7799 -0.4687 -0.1785
58365SOL    HW285410   7.715  11.724   9.922  2.2168  1.1551  0.4901
58366SOL     OW85411   3.906  12.169   6.214 -0.2112  0.1690  0.4482
58366SOL    HW185412   3.858  12.207   6.141  0.2484 -2.6699 -1.4702
58366SOL    HW285413   3.839  12.135   6.272 -0.6371 -1.8171 -1.1187
58367SOL     OW85414  11.096   1.693   1.041  0.1577  0.0415  0.1374
58367SOL    HW185415  11.003   1.709   1.055  0.3744  0.8354  0.7633
58367SOL    HW285416  11.125   1.643   1.117  0.4917  0.8957  0.5969
58368SOL     OW85417   4.454  10.667   1.525 -0.2286  0.2634 -0.4242
58368SOL    HW185418   4.479  10.616   1.603  1.3999 -0.4606 -1.3718
58368SOL    HW285419   4.495  10.620   1.452 -1.5076  1.0766 -1.7090
58369SOL     OW85420  10.998  11.377  10.693  0.2658 -0.0718 -0.0274
58369SOL    HW185421  11.045  11.299  10.721  1.2588  0.3005 -0.6004
58369SOL    HW285422  11.064  11.446  10.688  0.1179  0.0133 -2.7066
58370SOL     OW85423  11.525   7.296   2.554  0.8149 -0.0835 -0.0553
58370SOL    HW185424  11.469   7.345   2.614  2.0570  0.3412  0.7910
58370SOL    HW285425  11.546   7.215   2.601  1.2672 -0.0386 -0.1712
58371SOL     OW85426   3.662   5.202   4.137  0.8234 -0.4508 -0.2079
58371SOL    HW185427   3.631   5.116   4.164 -0.3705  0.4350  1.4464
58371SOL    HW285428   3.592   5.237   4.082  0.2372  0.3266  0.9868
58372SOL     OW85429   5.003   6.174   1.920 -1.4789 -0.1832 -0.0384
58372SOL    HW185430   4.989   6.080   1.912  2.1215 -0.9105  0.6995
58372SOL    HW285431   5.045   6.200   1.838 -0.2544  0.2463  0.6991
58373SOL     OW85432   8.382  12.863   0.641  0.1863 -0.2536 -0.4345
58373SOL    HW185433   8.364  12.948   0.681 -0.4837  0.0227 -1.3064
58373SOL    HW285434   8.462  12.876   0.591 -0.8387  0.3767 -1.9898
58374SOL     OW85435   9.814   0.100   8.447  0.2279  0.2086 -0.0597
58374SOL    HW185436   9.880   0.042   8.410  1.5916  1.0466  0.9898
58374SOL    HW285437   9.844   0.188   8.427 -1.4520  0.6245 -1.0011
58375SOL     OW85438   3.826   5.597   4.804 -0.4722 -0.2951 -0.1830
58375SOL    HW185439   3.880   5.532   4.761  0.3651 -0.1398  0.5892
58375SOL    HW285440   3.830   5.674   4.748  2.3768  0.6479  1.1263
58376SOL     OW85441  12.809   3.059   9.595  1.1179 -0.3219  0.2581
58376SOL    HW185442  12.755   3.063   9.517  0.8625 -2.4936  0.2735
58376SOL    HW285443  12.858   3.141   9.594  0.9674 -0.1942 -2.0630
58377SOL     OW85444  12.451   0.622  11.976  0.6917 -0.0126  0.0501
58377SOL    HW185445  12.469   0.536  11.938  0.0767  0.4217 -1.3075
58377SOL    HW285446  12.360   0.617  12.004  0.1790  0.6209 -1.3817
58378SOL     OW85447   4.309   7.141  10.559 -0.4452  0.5769  0.2018
58378SOL    HW185448   4.391   7.156  10.512  0.9649 -0.9794  1.9771
58378SOL    HW285449   4.243   7.131  10.491  1.6168 -2.4756 -1.5987
58379SOL     OW85450  12.843   8.031   3.253 -0.1950  0.6054 -0.1475
58379SOL    HW185451  12.933   8.041   3.283  0.3452  0.0222 -1.4448
58379SOL    HW285452  12.825   8.111   3.205 -0.4741  0.8457  0.3576
58380SOL     OW85453   5.702   5.632   5.019  0.1272  0.7475 -0.0281
58380SOL    HW185454   5.669   5.620   5.108  2.3874 -0.0338  0.7773
58380SOL    HW285455   5.782   5.580   5.016 -0.0119  0.5678 -2.6184
58381SOL     OW85456   2.224   5.019   4.268 -0.1195 -0.6305 -0.6874
58381SOL    HW185457   2.198   5.110   4.258  1.0277 -0.0575  1.0446
58381SOL    HW285458   2.277   5.018   4.349  0.3167 -2.7252 -0.9439
58382SOL     OW85459  12.088   8.609   5.562  0.0607  0.0465  0.1124
58382SOL    HW185460  12.139   8.531   5.583 -0.7268 -0.0991  1.5761
58382SOL    HW285461  12.098   8.667   5.637 -0.9622  0.5152 -0.0875
58383SOL     OW85462   9.407   9.665   2.188  0.2927  0.3654  0.0122
58383SOL    HW185463   9.405   9.684   2.094  2.5488 -0.5730 -0.3186
58383SOL    HW285464   9.500   9.670   2.210 -0.1870  0.4117  2.1829
58384SOL     OW85465   9.318   2.203  10.118  0.5259  0.0142  0.2894
58384SOL    HW185466   9.257   2.272  10.144 -0.8772 -0.4043 -1.6055
58384SOL    HW285467   9.331   2.217  10.024  1.3520 -1.4256  0.1579
58385SOL     OW85468   8.503   0.854   7.337  0.1217  0.4638  0.0792
58385SOL    HW185469   8.440   0.806   7.284  0.2570 -1.6479  1.6753
58385SOL    HW285470   8.588   0.817   7.313  0.4943  1.4713 -0.2082
58386SOL     OW85471   2.883   3.922  12.018  0.4390  0.1479 -0.0821
58386SOL    HW185472   2.898   3.849  11.958 -0.3959  0.2596 -0.4490
58386SOL    HW285473   2.824   3.887  12.085 -0.1500  0.5371 -0.3873
58387SOL     OW85474   9.111   7.346   6.399 -0.2490  0.5796  1.0042
58387SOL    HW185475   9.178   7.308   6.455  0.4066  1.7029  1.0074
58387SOL    HW285476   9.041   7.280   6.398  0.9322 -0.7129  0.7945
58388SOL     OW85477   3.767  10.407   5.128 -0.3002  0.3044 -0.6225
58388SOL    HW185478   3.734  10.496   5.141 -0.0592  0.2368  0.6205
58388SOL    HW285479   3.703  10.351   5.174  0.7127  0.0507  0.5490
58389SOL     OW85480   9.770   3.438   0.888 -0.4109 -0.2378 -0.0403
58389SOL    HW185481   9.733   3.470   0.971  1.2454 -0.5591  0.8502
58389SOL    HW285482   9.740   3.348   0.882 -2.1506  0.3458 -0.7991
58390SOL     OW85483   0.632  10.885  12.983  0.1693  0.3519 -0.4218
58390SOL    HW185484   0.694  10.896  13.056  0.0619 -0.3857 -0.2159
58390SOL    HW285485   0.569  10.956  12.995 -0.9181 -0.8180  1.2942
58391SOL     OW85486  10.256   3.140   4.819  0.1388  0.3302 -0.0355
58391SOL    HW185487  10.245   3.179   4.906  0.1359  0.8034 -0.2502
58391SOL    HW285488  10.189   3.181   4.765 -0.6288 -0.7954  0.0088
58392SOL     OW85489   4.139  12.971  10.072  0.3794 -0.1136  0.0020
58392SOL    HW185490   4.159  12.896  10.016  1.5201  1.0318 -1.2032
58392SOL    HW285491   4.044  12.967  10.084  0.4921 -2.1551  0.6155
58393SOL     OW85492   7.907   1.772   6.329  0.1143 -0.5538  0.1936
58393SOL    HW185493   7.918   1.866   6.347  0.3415 -0.9023  2.1840
58393SOL    HW285494   7.986   1.748   6.281 -0.1148  0.3294 -0.6662
58394SOL     OW85495   2.386  12.288   8.160 -0.0133  0.1432 -0.4525
58394SOL    HW185496   2.301  12.244   8.166  0.2483 -0.3163  0.0215
58394SOL    HW285497   2.448  12.223   8.193  0.3886  0.8525  0.2207
58395SOL     OW85498   0.067   9.050   8.222  0.0982 -0.0343 -0.6788
58395SOL    HW185499   0.154   9.089   8.218  0.3866 -0.1365  2.2486
58395SOL    HW285500   0.082   8.959   8.249 -0.8991  0.1276  0.5446
58396SOL     OW85501   8.611   7.588   4.707  0.2181 -0.2166  0.7936
58396SOL    HW185502   8.543   7.647   4.739 -0.6476 -0.6114 -0.2669
58396SOL    HW285503   8.613   7.516   4.769 -1.0967 -0.7328  0.2563
58397SOL     OW85504  10.738   6.429   6.118  0.5080  0.8878 -0.4178
58397SOL    HW185505  10.769   6.498   6.176 -0.2029  1.8423 -1.1389
58397SOL    HW285506  10.673   6.472   6.062 -0.9304 -0.6643 -0.0196
58398SOL     OW85507   6.912   4.292   8.212  0.8443 -0.3488 -0.6746
58398SOL    HW185508   6.925   4.386   8.225  0.0956 -0.2502 -0.5929
58398SOL    HW285509   6.999   4.253   8.227  1.1392  0.3181 -0.6354
58399SOL     OW85510  12.036  12.119   6.805  0.3285 -0.2220  0.1545
58399SOL    HW185511  11.958  12.125   6.750 -0.3976  0.2318  1.2087
58399SOL    HW285512  12.031  12.194   6.864  1.5078 -0.2510  0.3335
58400SOL     OW85513  10.017   9.623   2.937 -0.3373 -1.2178  0.0250
58400SOL    HW185514   9.969   9.664   3.010  0.6780 -0.6438  0.3829
58400SOL    HW285515   9.948   9.583   2.883 -1.3838  0.9339 -0.3400
58401SOL     OW85516  10.585   7.811   5.066 -0.0679  0.0560 -0.6952
58401SOL    HW185517  10.652   7.879   5.077  0.0827  0.3162 -2.7373
58401SOL    HW285518  10.635   7.732   5.046 -0.3354 -0.0500 -0.9391
58402SOL     OW85519   6.236   9.018  10.099 -0.0044  0.6764 -0.3581
58402SOL    HW185520   6.149   8.981  10.082  0.6102 -0.5531 -0.9568
58402SOL    HW285521   6.218   9.097  10.150 -1.6040  1.5928 -2.1770
58403SOL     OW85522   5.235   2.105   6.853  0.6230 -0.6227 -0.5101
58403SOL    HW185523   5.221   2.082   6.761 -0.4117 -2.4573  0.0543
58403SOL    HW285524   5.154   2.080   6.896  1.4722 -0.7728  1.0742
58404SOL     OW85525   0.777  12.433   7.013 -0.2739 -0.0765 -0.0675
58404SOL    HW185526   0.798  12.519   7.049  0.6224 -0.7710  1.1425
58404SOL    HW285527   0.861  12.386   7.011 -0.9313 -1.3241  0.4121
58405SOL     OW85528  11.717   3.268   9.806  0.1127  0.0597  0.1065
58405SOL    HW185529  11.624   3.283   9.790 -0.0140 -0.9620 -0.2380
58405SOL    HW285530  11.724   3.173   9.820  1.0109  0.2013  0.7655
58406SOL     OW85531   4.606  12.937   4.446 -0.3812  0.1875 -0.1218
58406SOL    HW185532   4.695  12.906   4.429 -0.7849 -0.4067 -1.3246
58406SOL    HW285533   4.605  12.958   4.539  0.3346 -2.0662  0.4547
58407SOL     OW85534   6.885   3.648   7.626  0.1188  0.1730  0.0361
58407SOL    HW185535   6.897   3.742   7.613  1.3053  0.0142 -0.1972
58407SOL    HW285536   6.823   3.622   7.557 -0.5981  0.8509  0.4093
58408SOL     OW85537   0.243   4.791   5.754  1.1232  0.5350  0.1135
58408SOL    HW185538   0.222   4.786   5.660 -1.6565 -1.5861  0.7164
58408SOL    HW285539   0.316   4.731   5.765  0.2311 -0.7104 -0.4699
58409SOL     OW85540  10.607   8.403   9.882 -0.4774 -0.5641 -0.4820
58409SOL    HW185541  10.665   8.420   9.956 -0.0266 -1.2921 -0.6572
58409SOL    HW285542  10.579   8.490   9.854  0.7892 -0.1605 -0.5915
58410SOL     OW85543  10.603   7.748   8.085  0.1577 -0.2114 -0.2975
58410SOL    HW185544  10.591   7.653   8.083  1.7565 -0.5136  1.1732
58410SOL    HW285545  10.515   7.784   8.082 -0.5563 -1.8089  0.3957
58411SOL     OW85546  11.930   0.179   9.839  0.7602  0.2842  0.4836
58411SOL    HW185547  12.002   0.219   9.887  0.5481  0.5064  0.6218
58411SOL    HW285548  11.881   0.254   9.804  2.0846  0.1528 -1.8698
58412SOL     OW85549   2.781   2.478  10.480  0.2491  0.4280  0.1194
58412SOL    HW185550   2.726   2.526  10.542 -0.3636  0.9240 -0.7884
58412SOL    HW285551   2.870   2.488  10.514 -0.1504  0.0680  1.3149
58413SOL     OW85552   8.759  10.014   0.286 -0.1346  0.3148  0.0093
58413SOL    HW185553   8.696  10.032   0.355  1.8244 -0.3054  2.0766
58413SOL    HW285554   8.820  10.088   0.288  1.0790 -0.6495  0.3676
58414SOL     OW85555   7.671   1.602   9.005  0.3165  0.3706 -0.0271
58414SOL    HW185556   7.746   1.640   9.052  0.9937 -2.4638  1.3658
58414SOL    HW285557   7.709   1.566   8.925  0.6453 -1.5284  0.9203
58415SOL     OW85558   8.497  12.984   1.838 -0.0759  0.4369 -0.5444
58415SOL    HW185559   8.448  12.952   1.913 -1.1743 -0.6749 -1.6788
58415SOL    HW285560   8.589  12.979   1.865 -0.4849  1.2450  1.1278
58416SOL     OW85561   8.017   9.353   1.776  0.0557  0.0942  0.4102
58416SOL    HW185562   8.043   9.385   1.863  1.0971  0.3114  0.0285
58416SOL    HW285563   8.099   9.332   1.732 -0.5416 -1.8081  0.1327
58417SOL     OW85564  11.970  11.807   7.489  0.1534  0.4375 -0.2217
58417SOL    HW185565  11.913  11.735   7.516 -0.6273  0.6398 -1.2413
58417SOL    HW285566  12.027  11.822   7.564 -0.5799 -0.3388  0.5213
58418SOL     OW85567  12.262   2.756  10.606 -0.4015 -0.0880 -0.5060
58418SOL    HW185568  12.184   2.780  10.656  0.4690 -1.7726  1.8573
58418SOL    HW285569  12.249   2.664  10.583  0.0084  0.1795 -1.9387
58419SOL     OW85570   5.972  11.750   9.382 -0.0790 -0.4246 -0.2885
58419SOL    HW185571   6.062  11.753   9.348  0.5412 -0.9169  1.2115
58419SOL    HW285572   5.974  11.679   9.446 -0.5838  1.7556  2.3341
58420SOL     OW85573   1.815   6.761  12.688  0.5655  0.6180 -0.0913
58420SOL    HW185574   1.737   6.811  12.667  0.0088 -0.4635 -0.7073
58420SOL    HW285575   1.811   6.749  12.783 -0.5664 -0.2740 -0.2303
58421SOL     OW85576   9.084   5.608   4.881  0.7121  0.2636 -0.5415
58421SOL    HW185577   9.158   5.553   4.857  2.6346  3.0360 -1.3770
58421SOL    HW285578   9.045   5.635   4.798 -0.4904 -0.1438 -0.1416
58422SOL     OW85579  12.258   2.937  12.942 -0.1713  0.3278 -0.0821
58422SOL    HW185580  12.298   2.975  13.020  1.0375  0.8882 -0.9334
58422SOL    HW285581  12.309   2.858  12.926  1.0397  1.3313 -1.4929
58423SOL     OW85582   5.484  11.832   3.910 -0.5737  0.1279  0.3083
58423SOL    HW185583   5.496  11.910   3.964  0.1907  1.3364 -1.4892
58423SOL    HW285584   5.479  11.866   3.820  0.3626 -1.9380 -0.5920
58424SOL     OW85585   9.326  11.039   4.837  0.3576  0.0239  0.3549
58424SOL    HW185586   9.407  11.053   4.788 -1.3136  0.2851 -2.5863
58424SOL    HW285587   9.302  11.126   4.869 -0.9636  0.9605 -2.7339
58425SOL     OW85588   6.479   1.279  11.267  0.2349  0.2014 -0.0171
58425SOL    HW185589   6.506   1.192  11.297  1.7918  0.4712 -0.5032
58425SOL    HW285590   6.391   1.291  11.302  0.0607 -1.4909  0.2095
58426SOL     OW85591   9.351   2.712   0.947 -0.3638 -0.6772 -0.1785
58426SOL    HW185592   9.285   2.698   0.879  0.5486  1.3055 -1.5583
58426SOL    HW285593   9.410   2.637   0.939  0.5868  0.2474 -2.6871
58427SOL     OW85594   5.037   0.336   0.769 -0.4252 -0.4934 -0.5957
58427SOL    HW185595   4.952   0.298   0.747 -0.4465 -0.1910 -1.0422
58427SOL    HW285596   5.098   0.294   0.709 -0.1862 -1.0121 -0.0058
58428SOL     OW85597   6.410   2.962   3.417  0.4184 -0.1647 -0.0252
58428SOL    HW185598   6.337   3.000   3.466  0.3708 -0.1067 -0.1409
58428SOL    HW285599   6.425   3.023   3.345 -1.4407 -1.6847 -1.8339
58429SOL     OW85600   1.515   3.910   4.896 -0.1668 -0.0047  0.0598
58429SOL    HW185601   1.507   3.936   4.988 -1.1805  1.0532 -0.3043
58429SOL    HW285602   1.610   3.910   4.880  0.0253 -0.1909  1.0962
58430SOL     OW85603  12.328   0.890   2.159  0.2020  0.4562 -0.1707
58430SOL    HW185604  12.408   0.940   2.144  0.1986  0.2754 -0.8007
58430SOL    HW285605  12.351   0.830   2.230  1.0343 -0.4810 -1.1935
58431SOL     OW85606  11.773   0.266   2.934 -0.1999 -0.0931  0.4453
58431SOL    HW185607  11.710   0.318   2.983 -0.5110  0.0749 -0.1253
58431SOL    HW285608  11.795   0.194   2.993 -1.6369 -0.6807  0.3105
58432SOL     OW85609   7.680   7.231   3.905 -0.1914 -0.1372  0.5953
58432SOL    HW185610   7.761   7.215   3.954  0.5988  1.6632 -0.0408
58432SOL    HW285611   7.660   7.323   3.920 -1.0857 -0.0689 -0.7793
58433SOL     OW85612   0.310   0.940   2.442 -0.1553 -0.0329 -0.7537
58433SOL    HW185613   0.389   0.957   2.391  0.5517 -2.9916 -0.8325
58433SOL    HW285614   0.238   0.964   2.384  0.6222  1.8266 -1.0275
58434SOL     OW85615   9.191   2.755   7.713 -0.3230 -0.2679 -0.1530
58434SOL    HW185616   9.245   2.771   7.635 -2.7216 -0.7313 -2.0534
58434SOL    HW285617   9.107   2.796   7.692 -1.7211 -2.2111  1.3141
58435SOL     OW85618   1.909   7.808  10.617  0.2165 -0.1855 -0.2767
58435SOL    HW185619   1.971   7.855  10.673  1.4732 -0.7064 -1.1855
58435SOL    HW285620   1.917   7.717  10.644  0.4071 -0.3590 -0.9055
58436SOL     OW85621   7.275  11.255   3.134  0.3459 -0.3209 -0.1504
58436SOL    HW185622   7.298  11.200   3.209 -0.6656  0.1951  0.5699
58436SOL    HW285623   7.179  11.256   3.134  0.3342  1.1876 -0.3120
58437SOL     OW85624   7.478   3.092   1.367 -0.2408  0.6359  0.4656
58437SOL    HW185625   7.506   3.163   1.309  0.3789  0.8300  0.9966
58437SOL    HW285626   7.383   3.088   1.354  0.0114 -0.1346 -1.4557
58438SOL     OW85627   5.500   2.531   7.217 -0.2436  0.3807 -0.0503
58438SOL    HW185628   5.418   2.575   7.194  0.4388  0.9212 -1.6557
58438SOL    HW285629   5.473   2.452   7.262 -1.5699  1.5352  1.2901
58439SOL     OW85630   3.269   1.299   3.995 -0.3943  0.4359 -0.2029
58439SOL    HW185631   3.299   1.229   3.938 -0.7589  0.6149 -0.6129
58439SOL    HW285632   3.269   1.377   3.940  0.9356  0.9744  0.4844
58440SOL     OW85633   1.959  10.051   7.409 -0.1901 -0.5372 -0.3232
58440SOL    HW185634   2.051  10.063   7.383 -0.0261 -1.4801 -0.2310
58440SOL    HW285635   1.960   9.969   7.459 -0.7888  0.3175  1.1542
58441SOL     OW85636   6.511  12.148  12.572  0.5428  0.0220 -0.1472
58441SOL    HW185637   6.529  12.087  12.501 -0.1751  0.6544 -0.8817
58441SOL    HW285638   6.586  12.208  12.572  1.0302 -0.5801  0.2870
58442SOL     OW85639  11.436   1.335  12.218 -0.1212 -0.4105  0.8719
58442SOL    HW185640  11.525   1.316  12.190 -0.0595  0.7959  0.1810
58442SOL    HW285641  11.398   1.249  12.239  0.7417 -1.0752 -0.2040
58443SOL     OW85642   2.767   4.362   3.910 -0.0231 -0.1202  0.1189
58443SOL    HW185643   2.833   4.299   3.882 -2.4587 -2.0570 -1.7949
58443SOL    HW285644   2.732   4.326   3.991  1.2044  0.9514  1.1807
58444SOL     OW85645  12.099  12.787   0.659  0.2558 -0.0984  0.4715
58444SOL    HW185646  12.184  12.831   0.666  1.5470 -2.4087  0.5447
58444SOL    HW285647  12.078  12.791   0.566  1.1482 -0.6330  0.2261
58445SOL     OW85648   0.439  11.692   1.140 -0.3598 -0.0406  0.3534
58445SOL    HW185649   0.391  11.723   1.063  1.5400 -0.3384 -1.0377
58445SOL    HW285650   0.443  11.597   1.128  0.0848 -0.0694  0.7279
58446SOL     OW85651   3.970   5.265  12.092  0.1934  0.2864  0.5134
58446SOL    HW185652   3.889   5.311  12.112 -0.2685  0.5407 -1.7060
58446SOL    HW285653   3.953   5.219  12.010  2.8259  1.9017 -1.1076
58447SOL     OW85654   3.266   6.492  11.879  0.2079  0.1248  0.5720
58447SOL    HW185655   3.187   6.515  11.830 -0.8963 -3.7144  0.2563
58447SOL    HW285656   3.338   6.526  11.825 -1.1327  0.8626 -0.8163
58448SOL     OW85657   9.053  11.802   5.393 -0.1427 -0.1079  0.3616
58448SOL    HW185658   9.051  11.883   5.342  2.0557  0.3805  0.9374
58448SOL    HW285659   9.018  11.827   5.479 -0.7357 -0.1033  0.1187
58449SOL     OW85660   5.381   9.667  10.504  0.1858  0.1948 -0.8152
58449SOL    HW185661   5.295   9.652  10.465 -0.1123 -2.3480  0.6333
58449SOL    HW285662   5.362   9.700  10.592  0.6914 -0.3016 -0.5146
58450SOL     OW85663   8.460   0.953   1.023 -0.0895 -0.3302 -0.6856
58450SOL    HW185664   8.464   0.885   0.956 -0.4299 -0.7869 -0.2575
58450SOL    HW285665   8.376   0.997   1.008  0.2548  0.1703 -1.1294
58451SOL     OW85666   9.156   9.121   9.396  0.2891 -0.1890  0.0308
58451SOL    HW185667   9.242   9.081   9.384  1.0315  1.6314 -1.2912
58451SOL    HW285668   9.109   9.101   9.315 -0.6482 -1.3673  0.8412
58452SOL     OW85669   6.257   6.768   7.993 -0.1328  0.4792  0.2751
58452SOL    HW185670   6.219   6.854   8.010  1.1205  0.8410  1.4156
58452SOL    HW285671   6.345   6.786   7.961  0.1077 -0.3850  0.4090
58453SOL     OW85672   9.196  11.739   2.956 -0.0319 -0.0404  0.0423
58453SOL    HW185673   9.245  11.753   2.875 -0.3386  2.3132  0.1929
58453SOL    HW285674   9.263  11.718   3.021  0.6058  1.3072 -0.1486
58454SOL     OW85675   8.454   0.168  12.167  0.0181 -0.0706 -0.3913
58454SOL    HW185676   8.485   0.081  12.141  0.4045 -0.2210  0.5253
58454SOL    HW285677   8.369   0.152  12.207  0.0566 -0.0178 -0.2883
58455SOL     OW85678   3.017   4.194  12.326 -0.1800  0.0987  0.2096
58455SOL    HW185679   2.944   4.249  12.354 -0.5387 -0.3645  0.2102
58455SOL    HW285680   3.089   4.254  12.313 -0.0894  0.3848  1.8397
58456SOL     OW85681   5.910   2.380  12.601  0.4657  0.1687 -0.1052
58456SOL    HW185682   5.853   2.443  12.557 -2.3111 -2.0195  0.0752
58456SOL    HW285683   5.857   2.346  12.673  2.1985 -1.6693  0.3886
58457SOL     OW85684   6.020   6.636   7.392  0.1556 -0.0434  0.0228
58457SOL    HW185685   6.051   6.556   7.350  0.3219  0.4457 -0.8150
58457SOL    HW285686   6.034   6.622   7.485  1.3295 -0.4987 -0.2104
58458SOL     OW85687  11.598   4.715   1.791  0.6114  0.0393 -0.3188
58458SOL    HW185688  11.611   4.683   1.880  0.0932 -0.8603 -0.5540
58458SOL    HW285689  11.564   4.804   1.802 -0.6341 -0.5121  0.4106
58459SOL     OW85690   9.549   1.193  10.196  0.1968 -0.1402 -0.1023
58459SOL    HW185691   9.471   1.137  10.198 -0.5242  0.6678 -2.1075
58459SOL    HW285692   9.615   1.141  10.150 -0.0875  0.2007 -0.9062
58460SOL     OW85693   3.334  10.350   9.573 -0.0184  0.4648  0.0513
58460SOL    HW185694   3.258  10.294   9.589  0.6660 -0.9612 -1.4858
58460SOL    HW285695   3.376  10.358   9.659 -0.2885 -1.1722  0.3664
58461SOL     OW85696   1.825  12.299   7.979  0.0439  0.5062  0.3822
58461SOL    HW185697   1.804  12.345   8.060 -1.3835  1.6225 -0.5761
58461SOL    HW285698   1.750  12.243   7.963  1.1125 -1.1009  0.7361
58462SOL     OW85699   3.056   7.573  12.917  0.4267  0.1442  0.0245
58462SOL    HW185700   3.071   7.622  12.998  1.5846 -0.1071 -0.0151
58462SOL    HW285701   3.124   7.604  12.858  1.4867 -1.8120  0.1463
58463SOL     OW85702   3.246   6.961   4.080 -0.0489 -0.4197 -0.1166
58463SOL    HW185703   3.152   6.974   4.080  0.1621  1.2853 -0.5557
58463SOL    HW285704   3.280   7.023   4.143  0.7254 -1.7366  0.8151
58464SOL     OW85705   6.782   9.406  11.492  0.1572  0.5873 -0.2246
58464SOL    HW185706   6.695   9.441  11.511  0.1272 -0.0749  0.8983
58464SOL    HW285707   6.842   9.464  11.539  0.2740  0.5316 -0.3036
58465SOL     OW85708   0.122  11.202   4.658 -0.4773 -0.4967 -0.6216
58465SOL    HW185709   0.062  11.132   4.629 -2.3589  0.8970 -0.3031
58465SOL    HW285710   0.167  11.165   4.734 -1.0665 -1.5442 -0.7546
58466SOL     OW85711   3.836   5.582   1.649  0.1467 -0.0657  0.7210
58466SOL    HW185712   3.906   5.636   1.685  0.2163 -0.4070  1.1012
58466SOL    HW285713   3.875   5.542   1.571  0.4301 -0.3800  1.0211
58467SOL     OW85714   6.040   5.430   3.842  0.2285 -0.0256  0.0355
58467SOL    HW185715   6.022   5.513   3.886 -1.1179 -1.3886  2.2308
58467SOL    HW285716   5.987   5.434   3.762 -0.6266  0.8098  0.6199
58468SOL     OW85717  10.675   4.760   5.808 -0.0035  0.0059  0.1666
58468SOL    HW185718  10.758   4.729   5.771  0.5407 -0.5970  1.7911
58468SOL    HW285719  10.613   4.754   5.735  0.9012 -1.5636 -0.5342
58469SOL     OW85720   8.135   0.911   1.778  0.2568  0.5816 -0.1402
58469SOL    HW185721   8.148   0.993   1.825  0.3839 -0.0401  0.9423
58469SOL    HW285722   8.201   0.852   1.813 -0.8646 -0.4659  0.2847
58470SOL     OW85723   4.443   2.742   0.796 -0.0015 -0.2713 -0.3884
58470SOL    HW185724   4.360   2.696   0.779 -0.2211 -0.6636  1.4980
58470SOL    HW285725   4.429   2.785   0.881  1.2408  0.8399 -0.7209
58471SOL     OW85726  12.348   2.862   4.227  0.1079 -0.3631 -0.2682
58471SOL    HW185727  12.263   2.905   4.222  0.3919  0.0470 -2.0456
58471SOL    HW285728  12.373   2.871   4.319 -1.7690 -0.5540  0.3177
58472SOL     OW85729   1.788   0.067   4.689 -0.1361  0.0593 -0.5022
58472SOL    HW185730   1.698   0.049   4.715  0.3762 -0.7127  0.8225
58472SOL    HW285731   1.841   0.042   4.765  1.4557 -2.1784 -2.2189
58473SOL     OW85732  10.505  10.863   6.451 -0.2537 -0.7967 -0.4961
58473SOL    HW185733  10.420  10.872   6.408 -0.4876  0.0869  0.1381
58473SOL    HW285734  10.566  10.910   6.394 -0.6874  1.0110  0.4631
58474SOL     OW85735   0.902   8.036   1.909 -0.2678  0.0016 -0.1920
58474SOL    HW185736   0.840   8.044   1.981  0.4502  0.3066  0.4077
58474SOL    HW285737   0.852   8.061   1.831 -1.3170 -1.2106  0.0509
58475SOL     OW85738   5.928  12.274   7.298  0.2997  0.2245  0.5859
58475SOL    HW185739   5.911  12.328   7.375 -1.7920 -0.4097  0.6352
58475SOL    HW285740   5.879  12.193   7.314 -0.6838  0.3149 -1.6305
58476SOL     OW85741   7.766  11.797   6.886 -0.8572 -0.0006  0.1580
58476SOL    HW185742   7.759  11.783   6.981 -1.7931 -0.5362  0.0199
58476SOL    HW285743   7.755  11.891   6.875 -3.0939 -0.1879  0.4050
58477SOL     OW85744   2.045   2.506  11.934  0.2938  0.1522  0.4030
58477SOL    HW185745   1.963   2.467  11.962  0.4431 -0.1399  0.4315
58477SOL    HW285746   2.025   2.547  11.850  0.8147 -2.4913 -1.1236
58478SOL     OW85747   9.699   1.115  10.924 -0.0707 -0.4009  0.2005
58478SOL    HW185748   9.625   1.164  10.887  0.6841  0.3847 -0.2837
58478SOL    HW285749   9.687   1.122  11.019  0.0086  0.7019  0.1376
58479SOL     OW85750   5.977   3.157   1.549  0.2676  0.3600  0.0498
58479SOL    HW185751   6.002   3.167   1.640  0.1204  0.3297  0.0930
58479SOL    HW285752   6.056   3.124   1.506  1.0683  2.4612 -0.2578
58480SOL     OW85753   1.943   2.089  10.861  0.1666  0.0506 -0.0796
58480SOL    HW185754   2.025   2.062  10.902 -0.4377  0.5030  1.5370
58480SOL    HW285755   1.913   2.013  10.812  1.6458 -0.0414 -0.8721
58481SOL     OW85756   5.496   2.782   0.218  0.5477  0.2575 -0.6115
58481SOL    HW185757   5.496   2.856   0.278 -1.2859 -1.0787  1.1723
58481SOL    HW285758   5.551   2.716   0.261  0.7374 -0.0560 -1.3178
58482SOL     OW85759  11.527  10.289   1.689 -0.2708  0.2793  0.4221
58482SOL    HW185760  11.607  10.268   1.737 -2.7161 -1.4767  4.1822
58482SOL    HW285761  11.511  10.211   1.635 -0.4620 -0.3161  1.3020
58483SOL     OW85762   3.946   5.497   8.411 -0.0700  0.2521 -0.4100
58483SOL    HW185763   4.015   5.473   8.349  1.7157  1.0259  1.1799
58483SOL    HW285764   3.904   5.574   8.372  0.3818  0.1463 -1.1213
58484SOL     OW85765   0.212   9.718   8.257 -0.4280 -0.0271 -0.9062
58484SOL    HW185766   0.232   9.684   8.170  0.1587  0.0267 -0.7935
58484SOL    HW285767   0.118   9.736   8.254 -0.5464 -0.6853 -1.2986
58485SOL     OW85768  10.248   5.183  10.581  0.3807 -0.3087  0.3202
58485SOL    HW185769  10.183   5.164  10.514 -0.6354  0.3609  1.0887
58485SOL    HW285770  10.266   5.098  10.621 -2.7100 -0.1473  2.4559
58486SOL     OW85771   8.184   1.568   3.184 -0.3067  0.0865  0.5112
58486SOL    HW185772   8.179   1.647   3.131  0.8730  0.3433  0.7386
58486SOL    HW285773   8.136   1.502   3.134 -1.4795  0.9862  0.4200
58487SOL     OW85774  11.843   2.660  10.339  0.5870  0.3493  0.1463
58487SOL    HW185775  11.834   2.604  10.416  0.6623  0.4052  0.1956
58487SOL    HW285776  11.922   2.629  10.295  0.5684  0.3457  0.1159
58488SOL     OW85777   2.399  10.634   4.415 -0.0254  0.4186 -0.1716
58488SOL    HW185778   2.308  10.637   4.444 -0.0076 -0.2325 -0.0527
58488SOL    HW285779   2.400  10.686   4.334 -0.5733  0.1112 -0.3792
58489SOL     OW85780   0.760   7.321   6.050  0.3795  0.4422 -0.0666
58489SOL    HW185781   0.768   7.416   6.065  0.1894  0.4776 -0.1915
58489SOL    HW285782   0.830   7.301   5.988  0.9190  0.3638  0.5603
58490SOL     OW85783   8.114   7.510   7.166  0.5967  0.1830 -0.3099
58490SOL    HW185784   8.209   7.505   7.165  0.5677 -0.4607 -0.1264
58490SOL    HW285785   8.094   7.578   7.231  0.8899 -1.1951  1.2819
58491SOL     OW85786  10.396   7.848  10.352  0.3475 -0.0135 -0.2672
58491SOL    HW185787  10.410   7.943  10.356 -0.3972  0.1226 -0.7689
58491SOL    HW285788  10.473   7.811  10.395  0.5384  0.8241  0.1358
58492SOL     OW85789   8.986   2.880   0.965  0.2009 -0.4170  0.6190
58492SOL    HW185790   8.913   2.886   1.026  0.6346  0.5463  1.0740
58492SOL    HW285791   9.061   2.859   1.020  0.6596  0.7955  0.4935
58493SOL     OW85792   6.202   2.881   5.327  0.1858  0.1782 -0.2370
58493SOL    HW185793   6.262   2.870   5.254 -0.0592 -2.8726 -0.0836
58493SOL    HW285794   6.118   2.850   5.295 -0.4877  0.9913  0.6600
58494SOL     OW85795   8.090   4.593   7.827 -0.4347 -0.6438  0.2982
58494SOL    HW185796   8.141   4.624   7.901  0.7805  0.3316 -0.9025
58494SOL    HW285797   8.154   4.552   7.768 -1.2676 -0.7969 -0.5350
58495SOL     OW85798   6.129   2.713   6.704  0.0540 -0.5750 -0.0142
58495SOL    HW185799   6.089   2.752   6.627  0.9159  0.8613  0.2380
58495SOL    HW285800   6.199   2.657   6.669  0.3593 -0.0266 -0.2974
58496SOL     OW85801   6.081   5.287   7.734 -0.7784 -0.4906 -0.3530
58496SOL    HW185802   6.095   5.211   7.791  1.6739  0.6612  0.7136
58496SOL    HW285803   6.113   5.361   7.785  0.2645  0.7872 -2.7233
58497SOL     OW85804  10.123  10.612   3.283 -0.3786  0.4165 -0.2535
58497SOL    HW185805  10.109  10.679   3.349 -0.3086  0.1358  0.0508
58497SOL    HW285806  10.043  10.613   3.229 -0.3747  0.7409 -0.2520
58498SOL     OW85807   4.811  10.393   1.218 -0.4282 -0.3530 -0.5807
58498SOL    HW185808   4.803  10.298   1.207 -2.2953 -0.4131  0.7903
58498SOL    HW285809   4.798  10.408   1.312  2.0342  1.1118 -0.4037
58499SOL     OW85810  11.078   1.091   8.830 -0.7619 -0.1897  0.1407
58499SOL    HW185811  11.159   1.141   8.826 -0.8526 -0.0953 -0.6090
58499SOL    HW285812  11.008   1.157   8.825 -0.8922 -0.4230 -1.9565
58500SOL     OW85813  10.883   0.088   4.831 -0.0369 -0.1612  0.1016
58500SOL    HW185814  10.802   0.129   4.803 -1.5627 -2.6060  0.6263
58500SOL    HW285815  10.928   0.066   4.749  1.3086  3.1776 -0.2089
58501SOL     OW85816   1.530   8.182  11.017  0.2064  0.3872  0.0450
58501SOL    HW185817   1.622   8.166  10.993  0.2832 -1.2476  1.2305
58501SOL    HW285818   1.532   8.190  11.112 -0.7299  1.7041 -0.0190
58502SOL     OW85819   8.088   3.134  10.846 -0.0945 -0.0981  0.3551
58502SOL    HW185820   8.058   3.091  10.766  0.0406  0.9434 -0.2687
58502SOL    HW285821   8.183   3.134  10.839 -0.0875  0.1272  0.4467
58503SOL     OW85822  10.209   2.991  10.823  0.1500  0.0470 -0.5478
58503SOL    HW185823  10.261   2.983  10.743  1.9521 -3.2523  0.7733
58503SOL    HW285824  10.248   3.066  10.869  1.4303 -0.1897 -1.1971
58504SOL     OW85825   3.081   1.732   1.737 -0.5314  0.1559  0.1359
58504SOL    HW185826   3.097   1.638   1.748  0.1977  0.3066  0.4177
58504SOL    HW285827   3.081   1.746   1.643  0.9328  0.1243  0.1107
58505SOL     OW85828   8.740  10.225   8.950  0.2779  0.6681  0.1307
58505SOL    HW185829   8.705  10.314   8.957  0.3966  0.7457 -0.1981
58505SOL    HW285830   8.818  10.225   9.006  0.2927  0.7805  0.1098
58506SOL     OW85831   5.978   7.553  10.397 -0.2063 -0.0247 -0.1736
58506SOL    HW185832   5.994   7.566  10.304  0.4998 -1.2592 -0.2438
58506SOL    HW285833   6.061   7.573  10.439 -0.6864  1.0995  0.2603
58507SOL     OW85834  12.947   9.015   3.036  0.1986 -0.1877  0.7437
58507SOL    HW185835  12.898   9.089   2.999 -1.1352 -0.2642  2.2363
58507SOL    HW285836  12.999   9.053   3.107  0.2570 -0.5281  0.8858
58508SOL     OW85837  11.559   6.783   3.588  0.2261  0.4033 -0.7098
58508SOL    HW185838  11.473   6.799   3.549  1.0635  1.1088 -2.3573
58508SOL    HW285839  11.619   6.780   3.514  1.8938  1.6957  0.4881
58509SOL     OW85840   5.241  11.875  12.876  0.0260 -0.0009 -0.4496
58509SOL    HW185841   5.242  11.930  12.797  0.9863  0.9013  0.1735
58509SOL    HW285842   5.158  11.827  12.870  0.8163 -1.2547 -2.8836
58510SOL     OW85843  11.430   2.080  10.250 -0.5712 -0.1144 -0.3056
58510SOL    HW185844  11.504   2.081  10.310 -0.3747  0.2335 -0.5527
58510SOL    HW285845  11.375   2.153  10.280 -0.6251 -0.1319 -0.3631
58511SOL     OW85846   6.624   4.532   3.680 -0.5337  0.7116 -0.0058
58511SOL    HW185847   6.654   4.605   3.735 -0.3271  1.5893 -1.2301
58511SOL    HW285848   6.625   4.568   3.591 -3.4340  0.2098 -0.3379
58512SOL     OW85849   9.719   3.783   0.889  0.6034 -0.2642  0.3656
58512SOL    HW185850   9.794   3.745   0.934  1.0008  2.6249  2.4250
58512SOL    HW285851   9.645   3.765   0.948  0.2579 -0.3532 -0.0890
58513SOL     OW85852  12.701   9.420  10.301  0.3716  0.0254 -0.6220
58513SOL    HW185853  12.686   9.515  10.304 -1.2523 -0.2262  0.1845
58513SOL    HW285854  12.661   9.393  10.218  1.4388  0.1175 -1.1840
58514SOL     OW85855   4.893   7.166   1.266  0.5521  0.7987  0.3645
58514SOL    HW185856   4.904   7.072   1.274  0.9953  0.8007 -0.1830
58514SOL    HW285857   4.844   7.178   1.185  1.0389  1.0694  0.1071
58515SOL     OW85858   6.734  10.561   0.340  0.5312 -0.1393  0.7882
58515SOL    HW185859   6.819  10.596   0.317  0.1167  1.5166  1.6153
58515SOL    HW285860   6.691  10.544   0.256  1.2398  0.0930  0.3712
58516SOL     OW85861   2.028   2.534   5.727 -0.5266  0.4946 -0.0196
58516SOL    HW185862   2.019   2.622   5.763  0.6791  0.0190  1.5427
58516SOL    HW285863   1.943   2.492   5.744 -1.6905  1.7826 -2.2035
58517SOL     OW85864   0.959   8.810   8.644 -0.3173 -0.1116 -0.4027
58517SOL    HW185865   1.034   8.785   8.590  0.7060 -1.4652  1.5234
58517SOL    HW285866   0.921   8.726   8.671  0.4420  0.3890  2.5502
58518SOL     OW85867   9.835   6.876   2.010 -0.3504  0.4020 -0.1535
58518SOL    HW185868   9.889   6.811   1.965 -1.1746  0.0473 -0.6580
58518SOL    HW285869   9.772   6.905   1.944 -0.4427  1.2082  0.2655
58519SOL     OW85870  10.222   1.225   4.446  0.3835  0.0900  0.0948
58519SOL    HW185871  10.132   1.199   4.424  0.6264 -0.1425 -0.6875
58519SOL    HW285872  10.274   1.193   4.372  1.2106 -0.3759  0.8557
58520SOL     OW85873   9.236   0.326   2.843  0.5859 -0.0342 -0.1613
58520SOL    HW185874   9.258   0.352   2.932 -0.0698 -1.2528  0.3796
58520SOL    HW285875   9.154   0.276   2.851  1.1449 -1.2123 -1.2628
58521SOL     OW85876  12.959   9.318  10.340 -0.2160 -0.2061  0.2717
58521SOL    HW185877  12.864   9.311  10.347 -0.3108  0.5148 -0.2440
58521SOL    HW285878  12.974   9.387  10.275  0.6608  0.3357  1.0231
58522SOL     OW85879   9.909  10.333   0.523 -0.6045  0.0485  0.1509
58522SOL    HW185880   9.912  10.425   0.549 -2.1052 -0.0949  0.9585
58522SOL    HW285881   9.864  10.289   0.596 -0.8546 -1.1370 -0.6916
58523SOL     OW85882   7.061  10.007   0.457  0.1815 -0.3481  0.1109
58523SOL    HW185883   7.038   9.922   0.420  0.2437 -0.0092 -0.7325
58523SOL    HW285884   6.981  10.038   0.499 -0.9235  0.6674 -2.4961
58524SOL     OW85885   1.853   1.820   7.682  0.3485  0.7876 -0.1173
58524SOL    HW185886   1.931   1.807   7.629  1.1601 -0.0929  1.2330
58524SOL    HW285887   1.789   1.857   7.621  1.6339  1.0373 -1.3775
58525SOL     OW85888   5.905   3.035   3.552  0.3114 -0.1931  0.2100
58525SOL    HW185889   5.909   3.114   3.498  0.3380 -0.3292  0.0109
58525SOL    HW285890   5.870   3.064   3.636  1.3039  0.2219  0.4912
58526SOL     OW85891   6.334  12.514   5.525  0.6204  0.2575 -0.0091
58526SOL    HW185892   6.286  12.588   5.489  0.9081 -0.4998 -2.0848
58526SOL    HW285893   6.269  12.465   5.576  0.2603  1.4896  0.7641
58527SOL     OW85894   0.539   1.741  11.695  0.4176  0.1124  0.2157
58527SOL    HW185895   0.548   1.752  11.600 -1.6854 -0.3650 -0.0918
58527SOL    HW285896   0.506   1.825  11.726 -0.4332 -0.2366  0.2702
58528SOL     OW85897   1.372   6.799   2.876  0.0173  0.1841  0.6352
58528SOL    HW185898   1.295   6.856   2.872 -0.7544 -0.5084  3.2425
58528SOL    HW285899   1.439   6.852   2.919  0.4429  0.2127 -0.0489
58529SOL     OW85900   7.877  12.488   3.069  0.1101 -0.0208 -0.2274
58529SOL    HW185901   7.903  12.493   3.161  0.0673 -1.7093 -0.0819
58529SOL    HW285902   7.858  12.578   3.044 -1.1786  0.3218  1.7950
58530SOL     OW85903   2.889  11.171   7.639 -0.4486  0.0369 -0.4073
58530SOL    HW185904   2.875  11.083   7.674 -3.0850  0.6208  0.2766
58530SOL    HW285905   2.924  11.158   7.551  1.3675 -1.5955  0.5014
58531SOL     OW85906   5.010   9.555  11.600 -0.1680 -0.5413 -0.1588
58531SOL    HW185907   5.015   9.646  11.631  0.2117 -0.6170  0.0171
58531SOL    HW285908   5.081   9.548  11.536  0.0771 -0.8249  0.1369
58532SOL     OW85909  10.043   1.575  11.398 -0.3821  0.5548 -0.1924
58532SOL    HW185910  10.093   1.654  11.417  1.2951 -0.7545  1.1602
58532SOL    HW285911  10.106   1.514  11.360 -1.5784 -0.2190 -0.9967
58533SOL     OW85912   5.939  11.365   8.825  0.3803  0.2575 -0.2195
58533SOL    HW185913   5.944  11.447   8.775  0.0484  0.5606  0.2319
58533SOL    HW285914   5.900  11.302   8.764 -0.8100  0.8437 -0.0907
58534SOL     OW85915   1.965   2.938  10.405  0.3326  0.4458  0.6218
58534SOL    HW185916   1.881   2.940  10.450 -1.2247  1.0207 -2.0997
58534SOL    HW285917   1.985   2.844  10.397 -0.5596  0.2688  0.3989
58535SOL     OW85918   4.220   8.957   2.082  0.4595 -0.2571  0.1436
58535SOL    HW185919   4.156   9.015   2.123  0.7192 -0.2983  0.6156
58535SOL    HW285920   4.266   8.917   2.156  0.1659 -1.1967 -0.1674
58536SOL     OW85921   4.733  10.783   6.678  0.0587  0.5348 -0.0337
58536SOL    HW185922   4.816  10.752   6.642  0.1795  0.1347  0.5757
58536SOL    HW285923   4.691  10.705   6.713 -1.2237  0.5010 -1.5673
58537SOL     OW85924  12.093   3.719   7.888  0.4651  0.1427 -0.1615
58537SOL    HW185925  12.057   3.670   7.963  0.7164 -0.5719 -0.4968
58537SOL    HW285926  12.019   3.725   7.827  0.3094  0.5744  0.0661
58538SOL     OW85927   4.733  10.381  11.621  0.3803  0.3148  0.4445
58538SOL    HW185928   4.739  10.447  11.552  0.8037  0.1030  0.2725
58538SOL    HW285929   4.657  10.328  11.597  1.4654 -0.7811 -0.8009
58539SOL     OW85930   1.612   6.609   1.083  0.4860 -0.4987 -0.6434
58539SOL    HW185931   1.562   6.679   1.042 -2.7814 -1.1519  1.8276
58539SOL    HW285932   1.651   6.649   1.161  2.5072 -0.4435 -1.6068
58540SOL     OW85933  12.559  10.403   5.005 -0.3894  0.0172  0.5364
58540SOL    HW185934  12.498  10.388   4.932  0.4323 -0.6705 -0.0344
58540SOL    HW285935  12.646  10.391   4.966  0.1100  0.8397  1.3649
58541SOL     OW85936   8.586   8.967   8.618 -0.9371  0.2678  0.0719
58541SOL    HW185937   8.567   8.894   8.676  1.7556 -0.0455  0.6980
58541SOL    HW285938   8.533   9.039   8.652 -1.6024 -0.6743  1.1065
58542SOL     OW85939   1.566  11.889   5.939  0.0860 -0.0416  0.1100
58542SOL    HW185940   1.520  11.964   5.903 -0.7918 -1.0306 -0.9339
58542SOL    HW285941   1.499  11.820   5.943  1.0500 -0.9967  0.2709
58543SOL     OW85942  11.197   0.226   0.564  0.4727  0.0422 -0.0075
58543SOL    HW185943  11.251   0.196   0.637  0.6441  0.5640  0.0867
58543SOL    HW285944  11.241   0.305   0.532 -0.4169  0.6799  0.2962
58544SOL     OW85945   2.653   3.949   2.305  0.3181 -0.2553  0.3370
58544SOL    HW185946   2.683   3.916   2.220 -1.2891 -0.1792 -0.2830
58544SOL    HW285947   2.696   3.892   2.369 -0.4035 -1.9434 -0.6263
58545SOL     OW85948   4.920   2.652   3.347  0.0391 -0.2056  0.1932
58545SOL    HW185949   4.858   2.678   3.415 -1.2073 -1.3157 -0.4826
58545SOL    HW285950   4.934   2.732   3.296 -1.2671 -0.0624  0.0238
58546SOL     OW85951   4.385   6.153   0.999 -0.2392 -0.0737  0.0515
58546SOL    HW185952   4.407   6.207   0.923  1.3340  0.7983  1.0612
58546SOL    HW285953   4.310   6.198   1.039 -0.5207 -0.0454 -0.5101
58547SOL     OW85954   7.132   1.277   3.814  0.1869 -0.1533  0.2499
58547SOL    HW185955   7.155   1.207   3.875 -0.0028 -0.9426 -0.5793
58547SOL    HW285956   7.105   1.349   3.871  0.1226 -0.8353  1.1100
58548SOL     OW85957   5.302  11.298   4.015  0.0722  0.5969  0.3547
58548SOL    HW185958   5.351  11.380   4.007 -0.3955  0.8780  0.3362
58548SOL    HW285959   5.278  11.293   4.107  1.5320 -0.3649  0.7224
58549SOL     OW85960   0.584   6.242   0.646  0.2439 -0.5865  0.4379
58549SOL    HW185961   0.508   6.246   0.589  1.9732 -0.9758 -2.0667
58549SOL    HW285962   0.591   6.150   0.670 -0.0571 -0.5525  0.6608
58550SOL     OW85963   2.731   9.444   9.456 -0.2351 -0.3084 -0.1680
58550SOL    HW185964   2.816   9.480   9.480 -0.6970  0.3022  0.5823
58550SOL    HW285965   2.712   9.481   9.370 -0.8868  1.6185  0.7582
58551SOL     OW85966  10.552   9.729   8.482 -0.9080 -0.3967 -0.1973
58551SOL    HW185967  10.496   9.760   8.411  0.8018 -0.5664 -1.6871
58551SOL    HW285968  10.599   9.807   8.511 -1.0409 -0.4791  0.2509
58552SOL     OW85969   4.919   7.563   5.480 -0.5608  0.1026 -0.0687
58552SOL    HW185970   4.831   7.541   5.512  0.4858 -1.1922  2.1566
58552SOL    HW285971   4.960   7.610   5.553  0.5034  1.0051 -1.2106
58553SOL     OW85972   5.538   7.555   3.177  0.2281 -0.2892  0.2477
58553SOL    HW185973   5.624   7.579   3.144  1.1269 -1.2730  1.7779
58553SOL    HW285974   5.480   7.625   3.146  1.7382  0.9058 -0.0026
58554SOL     OW85975   9.590  11.858   0.381  0.6572  0.2546 -0.0276
58554SOL    HW185976   9.597  11.929   0.444 -1.9958  1.1695 -0.6663
58554SOL    HW285977   9.496  11.845   0.369  1.0808 -1.5881 -1.9278
58555SOL     OW85978   4.844   5.679   4.976  0.5836 -0.2564  0.3970
58555SOL    HW185979   4.804   5.761   5.004 -0.9334 -0.3750 -1.2429
58555SOL    HW285980   4.874   5.696   4.886 -1.9723 -2.0910 -0.9431
58556SOL     OW85981   4.105   8.216   6.693 -0.2603 -0.3316  0.0151
58556SOL    HW185982   4.130   8.172   6.612 -1.5029 -0.1217 -0.4986
58556SOL    HW285983   4.011   8.233   6.683 -0.7077 -1.3374  1.9656
58557SOL     OW85984   0.861  10.857   1.008  0.4839 -0.2052 -0.3521
58557SOL    HW185985   0.906  10.812   0.936  3.0066  0.6810  0.5489
58557SOL    HW285986   0.884  10.949   0.997  1.9728 -0.1854  2.1826
58558SOL     OW85987   4.020   8.300   4.770 -0.0884  0.4807  0.1716
58558SOL    HW185988   3.958   8.344   4.712 -2.2315 -2.6352 -0.1204
58558SOL    HW285989   3.976   8.298   4.855  1.0026  0.9072  0.7663
58559SOL     OW85990   7.939   3.229   8.157 -0.2949 -0.5823 -0.2871
58559SOL    HW185991   7.846   3.207   8.160 -0.1519 -1.3026 -0.8257
58559SOL    HW285992   7.974   3.192   8.239 -0.6135  0.4021  0.3154
58560SOL     OW85993  11.387  10.555   1.267 -0.3448  0.8512 -0.4778
58560SOL    HW185994  11.295  10.579   1.279 -0.7104 -0.6123 -0.0381
58560SOL    HW285995  11.384  10.478   1.210  0.5972  0.6742 -0.3056
58561SOL     OW85996   6.619   3.835   3.035 -0.2803 -0.5894 -0.5197
58561SOL    HW185997   6.686   3.897   3.006 -2.3732  0.7945 -2.8102
58561SOL    HW285998   6.644   3.752   2.995  0.7084 -0.4345 -0.2600
58562SOL     OW85999  11.869   0.586   0.308  0.3027  0.4064 -0.0671
58562SOL    HW186000  11.885   0.679   0.291  0.6951  0.6887  1.6679
58562SOL    HW286001  11.807   0.560   0.240 -0.5860  2.1962 -0.0070
58563SOL     OW86002   6.593   4.603   3.986  0.7522 -0.0251  0.1135
58563SOL    HW186003   6.650   4.532   4.015  0.9055 -0.3243 -0.9041
58563SOL    HW286004   6.642   4.647   3.917 -1.9615 -3.1798 -4.3102
58564SOL     OW86005   7.785   0.919   4.981 -0.5046 -0.0212  0.0203
58564SOL    HW186006   7.804   0.839   4.932  1.1959 -0.1518  0.7969
58564SOL    HW286007   7.793   0.893   5.072  1.1283  1.2061  0.2806
58565SOL     OW86008   5.624  11.466   9.379 -0.0405 -0.3684 -0.3791
58565SOL    HW186009   5.616  11.487   9.286 -1.0850 -0.7099 -0.3783
58565SOL    HW286010   5.716  11.480   9.399  0.1199  0.0651 -1.3803
58566SOL     OW86011   0.710   2.636  12.511  0.4083 -0.1686  0.2921
58566SOL    HW186012   0.684   2.611  12.422  0.3555  1.2221 -0.1212
58566SOL    HW286013   0.801   2.665  12.501  0.2733  0.3715  0.6004
58567SOL     OW86014   2.292   3.462   0.939  0.4136 -0.0107  0.2672
58567SOL    HW186015   2.298   3.418   1.023 -1.3776 -0.8461  0.0253
58567SOL    HW286016   2.344   3.408   0.879 -0.5099 -0.9784  0.3044
58568SOL     OW86017  11.510   3.891  12.576  0.3673 -0.4302  0.6244
58568SOL    HW186018  11.564   3.824  12.617 -0.4351 -2.9349 -2.0482
58568SOL    HW286019  11.421   3.855  12.579 -0.0361  0.2886 -1.1955
58569SOL     OW86020   8.130  10.861   0.225  0.3739  0.4554  0.1170
58569SOL    HW186021   8.081  10.804   0.284 -2.4710  0.5445 -1.9914
58569SOL    HW286022   8.132  10.946   0.270  3.0551 -0.6786  2.4364
58570SOL     OW86023   2.930   6.468  10.229 -0.0521  0.2255  0.4673
58570SOL    HW186024   3.023   6.454  10.247  0.4226  0.5886 -1.4515
58570SOL    HW286025   2.929   6.517  10.146 -1.9613 -0.8738 -0.2164
58571SOL     OW86026  10.623   2.521   2.813  0.5904  0.0906  0.0762
58571SOL    HW186027  10.686   2.586   2.844 -0.9117  0.5269  2.5683
58571SOL    HW286028  10.665   2.436   2.831  1.4745  0.3674 -0.6685
58572SOL     OW86029   0.659   8.868  12.139 -0.2354 -0.1512 -0.1380
58572SOL    HW186030   0.579   8.816  12.143 -0.1758 -0.2606 -0.3253
58572SOL    HW286031   0.690   8.872  12.230 -0.0202 -0.7997 -0.1721
58573SOL     OW86032   6.547   0.931   5.171 -0.0101  0.0761 -0.4664
58573SOL    HW186033   6.547   0.981   5.089  0.4911 -0.0451 -0.5451
58573SOL    HW286034   6.481   0.863   5.157  0.1533 -0.0154 -0.8184
58574SOL     OW86035   4.849   9.021  12.126  0.1113  0.0662 -0.2775
58574SOL    HW186036   4.943   9.033  12.124 -0.0222  1.1463 -0.3762
58574SOL    HW286037   4.820   9.041  12.037 -0.2810  0.3712 -0.0834
58575SOL     OW86038   3.058   6.837   4.571  0.1890  0.2360  0.4427
58575SOL    HW186039   3.036   6.744   4.564  0.8128  0.0514  0.8635
58575SOL    HW286040   3.143   6.838   4.614 -0.5516  1.0622  1.9568
58576SOL     OW86041  12.838   5.647   6.922  0.1277  0.1400 -0.1151
58576SOL    HW186042  12.833   5.704   6.998 -0.0343  1.4664 -1.0869
58576SOL    HW286043  12.761   5.591   6.928 -0.9202  1.5118 -0.2760
58577SOL     OW86044   5.509  12.682   7.814  0.2901  0.0957 -0.3451
58577SOL    HW186045   5.525  12.623   7.741  1.2263  1.3829 -1.2332
58577SOL    HW286046   5.576  12.660   7.879  1.4150  0.9285 -1.1795
58578SOL     OW86047   0.749   5.499   8.382  0.0174 -0.2391  0.9507
58578SOL    HW186048   0.765   5.411   8.348 -0.4214  0.1995 -0.4281
58578SOL    HW286049   0.750   5.488   8.477 -2.5372 -2.2267  0.8666
58579SOL     OW86050  12.008   7.929   2.227 -0.1478 -1.1856 -0.2296
58579SOL    HW186051  11.931   7.883   2.196 -0.8477 -0.2692  0.1046
58579SOL    HW286052  12.050   7.963   2.148  0.5395 -2.5895 -0.5084
58580SOL     OW86053  11.086   5.719   1.364 -0.0871 -0.2125 -0.6080
58580SOL    HW186054  11.096   5.811   1.390 -0.3392 -0.6057  0.9451
58580SOL    HW286055  11.046   5.677   1.439  0.7436 -1.7710 -0.9993
58581SOL     OW86056   8.446  10.331   2.573  0.2888 -0.1923  0.3574
58581SOL    HW186057   8.396  10.407   2.603  1.1867  0.4710  0.1954
58581SOL    HW286058   8.438  10.268   2.645 -1.5766 -0.4979 -0.0528
58582SOL     OW86059   1.006   3.224   8.070  0.5498 -0.2398 -0.1422
58582SOL    HW186060   1.101   3.217   8.076  0.3921 -1.8653  1.2696
58582SOL    HW286061   0.978   3.243   8.160 -0.5780 -1.9626 -0.0838
58583SOL     OW86062   7.192   4.470   0.912  0.5008 -0.5522  0.3809
58583SOL    HW186063   7.220   4.448   1.000  0.1126 -0.5446  0.5094
58583SOL    HW286064   7.113   4.417   0.898  1.4683 -1.8073 -0.5705
58584SOL     OW86065   6.196   7.160   8.208 -0.4831  0.2039 -1.0938
58584SOL    HW186066   6.226   7.195   8.292 -1.1605  0.5263 -0.9822
58584SOL    HW286067   6.275   7.120   8.170 -0.3430 -0.6949  0.0587
58585SOL     OW86068  11.272  10.107   9.626 -0.0632  0.0428 -0.1137
58585SOL    HW186069  11.216  10.119   9.703  0.8606 -0.9496  0.7510
58585SOL    HW286070  11.322  10.028   9.645  3.5027  2.1724  0.3846
58586SOL     OW86071   4.623   5.500   2.621  0.6192  0.4536  0.0829
58586SOL    HW186072   4.698   5.445   2.595  0.4597 -0.2604  1.0836
58586SOL    HW286073   4.578   5.449   2.689 -0.1068  1.3957  0.3278
58587SOL     OW86074   1.732   9.111   5.440 -0.5086  0.3568 -0.0640
58587SOL    HW186075   1.726   9.126   5.346  1.1294 -0.1522 -0.2816
58587SOL    HW286076   1.824   9.093   5.456 -0.9352 -0.6921  1.4851
58588SOL     OW86077   3.851   0.872  10.103  0.4692  0.0870  0.1717
58588SOL    HW186078   3.937   0.905  10.127  0.5558  0.7547 -1.0043
58588SOL    HW286079   3.867   0.804  10.038  0.1692 -0.8621  1.0512
58589SOL     OW86080   6.258   3.405   5.926  0.6607 -0.3798 -0.0479
58589SOL    HW186081   6.342   3.437   5.959 -0.4874  2.0768  0.7167
58589SOL    HW286082   6.233   3.337   5.988  0.0251  2.0071  2.5078
58590SOL     OW86083  11.832   7.731   7.538 -0.3461  0.7175 -0.1598
58590SOL    HW186084  11.739   7.755   7.536 -0.0168  2.1386  0.5232
58590SOL    HW286085  11.865   7.754   7.451 -0.4788  0.8989 -0.1634
58591SOL     OW86086   3.699   2.655  10.994 -0.8570  0.3941  0.3521
58591SOL    HW186087   3.743   2.660  11.079 -1.4330 -0.6350  0.7193
58591SOL    HW286088   3.654   2.571  10.994  0.0309 -0.1275 -1.4269
58592SOL     OW86089   4.433   6.333  12.965  0.3287  0.2599 -0.3855
58592SOL    HW186090   4.388   6.253  12.937  1.5986 -0.9341  0.8409
58592SOL    HW286091   4.514   6.302  13.004  0.1202  2.0525  1.6127
58593SOL     OW86092  11.187  10.036  10.370  0.1568 -0.1104 -0.1009
58593SOL    HW186093  11.257  10.092  10.404 -1.2873  1.0157  1.1295
58593SOL    HW286094  11.226   9.949  10.365  1.6352  0.4880  0.5783
58594SOL     OW86095  10.606   4.322   4.842  0.6697 -0.0440  0.3694
58594SOL    HW186096  10.523   4.282   4.815  1.2885 -0.5588 -0.8391
58594SOL    HW286097  10.668   4.297   4.773  1.6200  1.0777  0.7908
58595SOL     OW86098   4.304   0.901   3.392 -0.8013  0.0786  0.6655
58595SOL    HW186099   4.208   0.900   3.385 -0.7016 -1.8254 -1.3355
58595SOL    HW286100   4.323   0.833   3.456 -0.7429 -1.9003 -1.3402
58596SOL     OW86101  12.828   8.895   2.476  0.6126 -0.6604  0.2594
58596SOL    HW186102  12.916   8.893   2.513  0.8811 -0.9995 -0.3730
58596SOL    HW286103  12.839   8.936   2.390  0.0841 -0.3258  0.3449
58597SOL     OW86104  10.580   3.194   5.939  0.2745  0.4314 -0.1525
58597SOL    HW186105  10.566   3.109   5.897 -2.5899  0.3180  0.8061
58597SOL    HW286106  10.621   3.248   5.871 -1.3832 -0.6249 -2.0947
58598SOL     OW86107   4.627   7.535   1.800 -0.2807  0.2461 -0.1092
58598SOL    HW186108   4.545   7.491   1.775  0.6868 -1.9778  0.3455
58598SOL    HW286109   4.635   7.518   1.894  1.8751 -1.8250 -0.5626
58599SOL     OW86110   6.601   9.212   1.499 -0.4930 -0.2939  0.5408
58599SOL    HW186111   6.607   9.307   1.503  1.3902 -0.3114 -0.4406
58599SOL    HW286112   6.648   9.181   1.576  2.6652 -0.3622 -1.2123
58600SOL     OW86113   2.445   2.222   0.075 -0.2765  0.0906 -0.5142
58600SOL    HW186114   2.523   2.276   0.086  0.5669 -0.5472 -2.8830
58600SOL    HW286115   2.429   2.185   0.162  1.4745  0.9616  0.2271
58601SOL     OW86116  12.352   4.064   7.735  0.4851 -0.0847  0.1046
58601SOL    HW186117  12.334   4.056   7.642 -1.9203  1.0295  0.3938
58601SOL    HW286118  12.335   4.157   7.755 -0.1550 -0.5241  1.8279
58602SOL     OW86119   7.985   3.307   8.571  0.2292 -0.3441 -0.6590
58602SOL    HW186120   7.926   3.361   8.624 -2.2852 -1.4232 -2.1240
58602SOL    HW286121   8.010   3.235   8.629 -1.1990 -0.6763 -0.4084
58603SOL     OW86122   3.075   9.926   9.692  0.2980  0.6867 -0.5716
58603SOL    HW186123   3.082   9.933   9.597 -1.4649 -2.0913 -0.9927
58603SOL    HW286124   3.004   9.987   9.715  1.7036  2.4891 -0.7564
58604SOL     OW86125   2.119   8.054   1.199 -0.9766 -0.2311 -0.4288
58604SOL    HW186126   2.213   8.060   1.180 -0.9885 -0.1874 -0.4717
58604SOL    HW286127   2.091   8.145   1.210 -1.7947  0.0733 -4.0462
58605SOL     OW86128  11.374   7.580   2.233 -0.2040  0.2574  0.1668
58605SOL    HW186129  11.427   7.592   2.155  0.5145  1.0708  0.7673
58605SOL    HW286130  11.376   7.486   2.249  2.6023  0.4079  1.2138
58606SOL     OW86131   9.406   1.138  11.326  0.3288 -0.4630 -0.5517
58606SOL    HW186132   9.377   1.166  11.413  0.2355  0.6235 -0.9103
58606SOL    HW286133   9.408   1.043  11.330 -1.9627 -0.5252 -0.0846
58607SOL     OW86134   6.123  10.898  12.084 -0.1640 -0.6834 -0.4080
58607SOL    HW186135   6.052  10.835  12.089 -0.3844 -0.3652  0.8150
58607SOL    HW286136   6.133  10.916  11.990 -2.1113 -0.2581 -0.5630
58608SOL     OW86137   5.226   5.077  12.538  0.4905 -0.4201 -0.1476
58608SOL    HW186138   5.306   5.025  12.535  0.9519  0.2771 -2.6503
58608SOL    HW286139   5.256   5.168  12.547 -0.0163 -0.1764 -0.8102
58609SOL     OW86140   8.661   0.314   0.246  0.4352  0.1831  0.3639
58609SOL    HW186141   8.589   0.268   0.202 -0.4102 -0.2826  2.1318
58609SOL    HW286142   8.740   0.270   0.217 -0.1941 -0.8676  0.2158
58610SOL     OW86143   7.623  12.320   6.335  0.4343 -0.2581  0.1895
58610SOL    HW186144   7.692  12.254   6.334 -0.2912 -1.0598  0.7398
58610SOL    HW286145   7.617  12.350   6.245  0.6465 -1.1031 -0.1197
58611SOL     OW86146   8.387   0.411   6.591 -0.7995 -0.1674  0.3471
58611SOL    HW186147   8.359   0.501   6.611 -0.3880 -0.0835  0.5747
58611SOL    HW286148   8.482   0.418   6.581 -0.6447 -0.7542  1.3295
58612SOL     OW86149  12.420   8.555   5.901  0.3928  0.0661 -0.4834
58612SOL    HW186150  12.346   8.494   5.908  1.1759 -0.7637  1.2416
58612SOL    HW286151  12.393   8.618   5.834 -1.8040 -0.3275 -0.0486
58613SOL     OW86152   9.647   7.086  12.169 -0.3717 -0.0749 -0.8831
58613SOL    HW186153   9.559   7.101  12.203 -0.6105 -0.6427 -1.2341
58613SOL    HW286154   9.687   7.173  12.168  0.0062 -0.1443  1.7239
58614SOL     OW86155   3.159  12.280   6.584 -0.2456 -0.0691  0.2514
58614SOL    HW186156   3.198  12.276   6.497  1.0652 -0.2568  0.8270
58614SOL    HW286157   3.204  12.352   6.627 -1.5071  0.5891  0.4967
58615SOL     OW86158   4.999   4.162   8.837 -0.1336  0.2855  0.5427
58615SOL    HW186159   4.948   4.240   8.815  0.5379  0.7552  0.6302
58615SOL    HW286160   4.979   4.145   8.929 -1.5412 -0.6149  0.0942
58616SOL     OW86161   3.421   0.094   0.848 -0.5743 -0.3165 -0.1102
58616SOL    HW186162   3.499   0.130   0.807  0.1683 -0.2737  1.2967
58616SOL    HW286163   3.406   0.011   0.802 -0.8551  0.5595 -1.6826
58617SOL     OW86164   5.406   1.733   1.623 -0.3499  0.6852  0.3760
58617SOL    HW186165   5.365   1.709   1.540 -0.2921 -0.6231  0.7062
58617SOL    HW286166   5.337   1.778   1.672 -0.6336  0.7305 -0.0595
58618SOL     OW86167  10.634  12.744  12.482  0.4565 -0.2079  0.5829
58618SOL    HW186168  10.553  12.696  12.497  0.2300  0.7952  2.8709
58618SOL    HW286169  10.607  12.834  12.467  1.1303  0.2054  1.7045
58619SOL     OW86170  11.408   7.392  12.681  0.0922 -0.5154  0.2546
58619SOL    HW186171  11.496   7.404  12.643  0.6299 -2.3584  0.8139
58619SOL    HW286172  11.402   7.459  12.749  1.4860 -1.0330  0.9127
58620SOL     OW86173   5.514   2.992   2.105  0.3479  0.5135 -0.0010
58620SOL    HW186174   5.434   2.967   2.060  0.5366  0.8696 -0.5558
58620SOL    HW286175   5.580   2.996   2.035  0.6689  0.9816  0.3222
58621SOL     OW86176   9.662   1.741   6.684 -0.6405  0.4371  0.0273
58621SOL    HW186177   9.625   1.751   6.596 -0.8893  0.4150  0.1318
58621SOL    HW286178   9.686   1.830   6.710 -0.4385  0.4268 -0.1187
58622SOL     OW86179   3.753  11.218   8.630 -0.2781 -0.3548  0.7693
58622SOL    HW186180   3.757  11.282   8.701 -1.1909 -0.3253  0.8047
58622SOL    HW286181   3.779  11.135   8.671  0.0447 -0.1813  0.9260
58623SOL     OW86182   4.981   2.430   4.446  0.3616 -0.8402 -0.5354
58623SOL    HW186183   5.029   2.511   4.428  0.7417 -0.7055  0.9736
58623SOL    HW286184   4.955   2.438   4.538 -2.5437 -0.9242 -1.2575
58624SOL     OW86185   2.936   5.712   6.099  0.2761  0.0681 -0.2456
58624SOL    HW186186   2.919   5.801   6.067 -3.3110  0.0597  1.1655
58624SOL    HW286187   2.903   5.655   6.031  1.3640 -0.1829 -0.5745
58625SOL     OW86188   5.800   3.535   8.762 -0.5032 -0.1165  0.3003
58625SOL    HW186189   5.826   3.530   8.670 -0.6853 -0.7399  0.2785
58625SOL    HW286190   5.870   3.584   8.804 -0.6813  0.6479 -0.2640
58626SOL     OW86191  12.662  12.831   0.444  0.4384  0.5302 -0.2974
58626SOL    HW186192  12.659  12.737   0.430  1.4250  0.5377 -0.6739
58626SOL    HW286193  12.574  12.862   0.423  0.0743 -0.3105 -0.0581
58627SOL     OW86194  11.019  12.069   6.339  0.6607  0.6767 -0.5225
58627SOL    HW186195  10.925  12.056   6.334  0.5037  1.6579 -0.3527
58627SOL    HW286196  11.039  12.131   6.269  1.2902 -0.0470 -1.0040
58628SOL     OW86197   0.057   3.744  12.959  0.5292 -0.2674 -0.6528
58628SOL    HW186198   0.101   3.663  12.935  0.3407 -0.3149 -0.8439
58628SOL    HW286199   0.101   3.773  13.039  1.3555  0.0555 -1.2192
58629SOL     OW86200  11.236   9.278   2.852  0.2584 -0.2334  0.0096
58629SOL    HW186201  11.318   9.322   2.878  0.5698 -0.1849 -1.0105
58629SOL    HW286202  11.261   9.225   2.776 -0.7502  0.1090 -0.5713
58630SOL     OW86203   5.330   5.096   7.826 -0.4873 -0.0516 -0.0270
58630SOL    HW186204   5.354   5.160   7.893  0.1648 -0.4085  0.0931
58630SOL    HW286205   5.289   5.025   7.875 -1.7432  0.5140 -0.2223
58631SOL     OW86206   4.763   4.910   8.832  0.5509  0.3042 -1.1402
58631SOL    HW186207   4.752   5.005   8.829  1.9773  0.4535 -2.5338
58631SOL    HW286208   4.681   4.875   8.799 -0.1863  1.0255 -0.1207
58632SOL     OW86209   6.029   1.422   1.935  0.4077 -0.3605 -0.2933
58632SOL    HW186210   6.028   1.460   2.023  0.8315 -0.7638 -0.1074
58632SOL    HW286211   5.937   1.417   1.910  0.2371 -0.8045  0.3798
58633SOL     OW86212   6.869   4.286   5.448 -0.1083 -0.2690  0.0929
58633SOL    HW186213   6.894   4.249   5.532  1.7221  1.3954  0.3496
58633SOL    HW286214   6.796   4.345   5.468  1.4566  1.4943  0.8896
58634SOL     OW86215   9.808   1.996  11.301  0.5698 -0.4570 -0.3898
58634SOL    HW186216   9.814   1.900  11.306  0.4888 -0.4436  0.0253
58634SOL    HW286217   9.855   2.027  11.378  1.0421 -0.1404 -0.7959
58635SOL     OW86218   7.051   1.525   7.145 -0.2331 -0.1648 -0.1338
58635SOL    HW186219   7.123   1.484   7.097 -0.1412 -0.6621  0.4309
58635SOL    HW286220   6.977   1.464   7.133 -0.4732  0.1764 -0.4255
58636SOL     OW86221   4.383   1.580  12.176 -0.4770 -0.3391 -0.1795
58636SOL    HW186222   4.305   1.563  12.123 -0.4174 -1.9876  0.2175
58636SOL    HW286223   4.356   1.649  12.237 -0.8705  0.8172 -1.5981
58637SOL     OW86224   1.253   3.890   1.872 -0.3070  0.6115 -0.4526
58637SOL    HW186225   1.289   3.916   1.788 -0.8920 -1.3599 -1.3846
58637SOL    HW286226   1.187   3.956   1.892 -0.4118  0.9164 -1.7277
58638SOL     OW86227  11.001   6.380   2.243 -0.3645  0.0139 -1.1087
58638SOL    HW186228  11.079   6.332   2.271  0.1676  0.7682 -1.2634
58638SOL    HW286229  11.032   6.436   2.171 -0.3216  2.5831  0.7882
58639SOL     OW86230  12.358   6.864  11.103 -0.0069 -0.0310  0.7512
58639SOL    HW186231  12.301   6.787  11.106  0.2512 -0.2044  2.0429
58639SOL    HW286232  12.323   6.918  11.032 -1.4054 -0.4240  1.1134
58640SOL     OW86233  11.041   8.450   3.917 -0.1562  0.5103  0.6457
58640SOL    HW186234  10.977   8.520   3.908 -0.7888  0.4020  3.3836
58640SOL    HW286235  11.097   8.478   3.990 -0.2518 -1.6501  1.6346
58641SOL     OW86236   8.268  12.284  10.239  0.1241 -0.2256  0.3127
58641SOL    HW186237   8.289  12.333  10.160  3.3791 -2.0921 -0.1444
58641SOL    HW286238   8.172  12.283  10.242 -0.1010  2.5340 -1.8302
58642SOL     OW86239  12.089   5.549   5.599  0.5972 -0.1608  0.0099
58642SOL    HW186240  12.120   5.463   5.568 -0.1845 -0.0335 -1.1891
58642SOL    HW286241  12.081   5.602   5.520 -0.7281  0.4330  0.5073
58643SOL     OW86242  10.291   3.374  12.880  0.2721  0.0971  0.3498
58643SOL    HW186243  10.321   3.302  12.935 -0.5542  0.3255  1.1301
58643SOL    HW286244  10.197   3.359  12.869  0.5248 -0.2570 -1.5121
58644SOL     OW86245   2.625   7.070   0.043  0.6046 -0.3239  0.4193
58644SOL    HW186246   2.675   7.004   0.090 -0.2718 -0.7799  0.7250
58644SOL    HW286247   2.626   7.040  -0.048 -0.2965 -1.1055  0.6474
58645SOL     OW86248   9.095   2.117   9.747 -0.0485  0.2987 -0.1802
58645SOL    HW186249   9.066   2.134   9.837  0.4385  0.4941 -0.0575
58645SOL    HW286250   9.157   2.044   9.756  2.1323  2.0550  0.0318
58646SOL     OW86251   2.848   0.538  12.582 -0.5199 -0.2273 -0.0480
58646SOL    HW186252   2.926   0.503  12.626 -0.6495  0.0137  0.3753
58646SOL    HW286253   2.883   0.582  12.504 -0.1867  0.2490  0.3625
58647SOL     OW86254  10.527   1.327   3.192  0.0900  0.1615 -0.6888
58647SOL    HW186255  10.535   1.322   3.097  1.5359  0.3485 -0.6099
58647SOL    HW286256  10.615   1.353   3.221 -0.7319  1.7381  0.5704
58648SOL     OW86257   7.631  12.020   8.810  0.0844  0.1591 -0.1983
58648SOL    HW186258   7.662  12.099   8.766 -0.6207  0.6593  0.1925
58648SOL    HW286259   7.561  12.050   8.868 -0.4351 -0.7967 -0.3046
58649SOL     OW86260   6.705   3.985   8.876  0.3966  0.2489  0.3822
58649SOL    HW186261   6.756   4.033   8.811 -0.3591  1.3046  0.5540
58649SOL    HW286262   6.686   3.901   8.835  2.7391 -0.4197  0.5210
58650SOL     OW86263  12.455   9.286   0.548 -0.1398 -0.2652 -0.0137
58650SOL    HW186264  12.389   9.351   0.576 -0.1194 -0.1579 -0.2104
58650SOL    HW286265  12.504   9.266   0.627  0.1780  0.3373 -0.0554
58651SOL     OW86266   4.228   8.858   0.648 -0.0419  0.2531 -0.9387
58651SOL    HW186267   4.207   8.769   0.618  0.2404  0.1413 -0.8041
58651SOL    HW286268   4.200   8.914   0.576  0.5553 -0.0107 -1.3884
58652SOL     OW86269   5.395   5.767   3.976  0.2715  0.4026  0.0664
58652SOL    HW186270   5.361   5.678   3.979 -0.8735  0.6532 -2.7314
58652SOL    HW286271   5.416   5.782   3.883  0.5764  2.9921  0.4736
58653SOL     OW86272   8.791  12.637   3.907  0.0137 -0.1937  0.0223
58653SOL    HW186273   8.745  12.706   3.955  0.3998 -0.5073  0.8526
58653SOL    HW286274   8.730  12.564   3.905 -1.4064  0.8742 -2.9419
58654SOL     OW86275   1.544   2.729  11.091  0.5043 -0.3653  0.4937
58654SOL    HW186276   1.575   2.809  11.133  2.6489 -1.1893  0.6346
58654SOL    HW286277   1.623   2.676  11.080  0.0175 -0.5874 -3.7857
58655SOL     OW86278   1.552   9.153   3.172 -0.0308  0.4806  0.4928
58655SOL    HW186279   1.601   9.138   3.092 -1.4278  1.4492 -0.5898
58655SOL    HW286280   1.519   9.067   3.197  2.0191 -0.1579  1.1622
58656SOL     OW86281   1.684   7.486  11.650 -0.6760  0.7276  0.9083
58656SOL    HW186282   1.742   7.427  11.603  0.5052  2.6566 -0.1829
58656SOL    HW286283   1.728   7.502  11.734 -0.1726  1.2788  0.5506
58657SOL     OW86284  11.339   5.997   5.929  0.6118  0.0741 -0.1126
58657SOL    HW186285  11.330   6.033   6.017  1.5564 -0.3611  0.1752
58657SOL    HW286286  11.310   5.906   5.937  1.2300 -0.1261 -0.1211
58658SOL     OW86287   8.129   9.274   7.982  0.1310  0.0798  0.1333
58658SOL    HW186288   8.132   9.179   7.983  0.4238  0.0885 -0.0282
58658SOL    HW286289   8.169   9.300   8.065 -0.3074  0.0528  0.3552
58659SOL     OW86290   0.817   2.561   5.704  0.0249  0.1203 -0.5502
58659SOL    HW186291   0.765   2.549   5.624 -1.3975 -0.6086  0.4431
58659SOL    HW286292   0.798   2.650   5.732  1.8725  1.0164 -1.8907
58660SOL     OW86293  12.388   2.139  12.844 -0.3925 -0.3709  0.1195
58660SOL    HW186294  12.323   2.204  12.868  0.4339  0.7504 -0.5657
58660SOL    HW286295  12.442   2.129  12.922 -3.4680 -4.1145  2.0770
58661SOL     OW86296   1.908   7.634  11.266 -0.5115  0.3561 -0.0652
58661SOL    HW186297   1.948   7.715  11.298 -2.3324  1.3699 -0.2454
58661SOL    HW286298   1.887   7.653  11.174 -3.6096  0.8418  0.6168
58662SOL     OW86299  10.707   1.252  10.440 -0.2873 -0.0952  0.0648
58662SOL    HW186300  10.787   1.199  10.447 -0.7749 -0.8372  0.2075
58662SOL    HW286301  10.737   1.338  10.411  0.5336 -0.4488 -0.1649
58663SOL     OW86302  11.682  10.683   1.400  0.0240  0.3363 -0.1337
58663SOL    HW186303  11.609  10.650   1.452  0.7491  0.5676  1.0594
58663SOL    HW286304  11.644  10.699   1.313 -0.8415 -1.5744 -0.1693
58664SOL     OW86305   2.051   1.656   3.339 -0.4359  0.0941 -0.1505
58664SOL    HW186306   2.069   1.700   3.256 -1.3604 -1.4473 -1.2113
58664SOL    HW286307   2.117   1.691   3.399 -0.7936  2.4774 -1.0611
58665SOL     OW86308   4.878   3.357   7.102 -0.2154 -0.2353 -0.0854
58665SOL    HW186309   4.789   3.389   7.117 -1.1762 -0.6285 -3.8989
58665SOL    HW286310   4.875   3.265   7.127 -0.1939  0.2602  1.8604
58666SOL     OW86311   3.772   3.568  11.083  0.0939  0.4674  0.3308
58666SOL    HW186312   3.797   3.655  11.053  1.5047 -0.0344 -0.0115
58666SOL    HW286313   3.680   3.577  11.111 -0.8454  1.2962 -2.7014
58667SOL     OW86314  11.288   0.218   7.424 -0.5111 -0.2579 -0.2461
58667SOL    HW186315  11.370   0.182   7.389  1.6773  0.9262  3.1644
58667SOL    HW286316  11.276   0.301   7.377 -0.2735 -0.8507 -1.3857
58668SOL     OW86317   7.393  10.055   2.603  0.1340  0.0269 -0.1288
58668SOL    HW186318   7.480  10.078   2.568  0.4445 -0.7628  0.1024
58668SOL    HW286319   7.412  10.004   2.682 -0.5353 -0.8280 -0.5127
58669SOL     OW86320   7.604   8.668  11.994  0.1779 -0.6633 -0.4946
58669SOL    HW186321   7.667   8.609  11.954  0.3840 -0.0748 -1.0668
58669SOL    HW286322   7.638   8.756  11.976 -0.1278 -0.3655  0.3241
58670SOL     OW86323  10.093   7.860   2.161  0.0461 -0.3731 -0.3462
58670SOL    HW186324  10.090   7.785   2.101 -1.7062 -0.6042 -0.0304
58670SOL    HW286325  10.090   7.821   2.248  1.9738 -0.0108 -0.0783
58671SOL     OW86326  11.493   8.622  11.835  0.1636 -0.1123  0.2343
58671SOL    HW186327  11.524   8.544  11.881 -0.7410  0.0215  1.0850
58671SOL    HW286328  11.499   8.599  11.742  0.4612 -0.9748  0.4597
58672SOL     OW86329   9.296  11.001   9.244 -0.3450  0.4677 -0.3236
58672SOL    HW186330   9.272  10.924   9.296 -0.3495  1.5693  1.3943
58672SOL    HW286331   9.252  11.074   9.288  0.5829  1.6017 -1.2233
58673SOL     OW86332   0.336   7.628   8.931  0.1032  0.0905 -0.2289
58673SOL    HW186333   0.401   7.605   8.998  0.4190  0.9191 -0.2395
58673SOL    HW286334   0.260   7.574   8.952  0.5246 -0.3366  0.2402
58674SOL     OW86335  11.829   6.031   0.481  0.3942 -0.3215 -0.2427
58674SOL    HW186336  11.771   6.033   0.405 -0.3220  3.5823  0.1930
58674SOL    HW286337  11.776   5.992   0.551 -0.4865  0.0655 -0.6837
58675SOL     OW86338   6.568   6.589   8.589 -0.3898 -0.3035 -0.0732
58675SOL    HW186339   6.563   6.620   8.499 -0.3051 -2.0292 -0.6950
58675SOL    HW286340   6.620   6.509   8.584 -0.6438 -0.5913  1.4681
58676SOL     OW86341  10.517   0.309   3.583 -0.3469  0.4060  0.2356
58676SOL    HW186342  10.585   0.369   3.612 -0.0356  0.4869 -0.6284
58676SOL    HW286343  10.551   0.271   3.502 -0.2571 -1.4276  1.0834
58677SOL     OW86344   5.636   8.006  10.205  0.4019 -0.4860 -0.5115
58677SOL    HW186345   5.727   7.983  10.182 -0.4533 -1.1722 -3.6484
58677SOL    HW286346   5.617   8.083  10.151 -0.6151  0.2213  0.8275
58678SOL     OW86347   1.695   0.198  11.139  0.3051 -0.4122  0.7221
58678SOL    HW186348   1.721   0.155  11.058  0.9331  1.8242 -0.3259
58678SOL    HW286349   1.602   0.178  11.147  0.6243 -2.1949  0.4838
58679SOL     OW86350  12.851  10.486   4.153 -0.2313  0.1679  0.0528
58679SOL    HW186351  12.838  10.564   4.098 -0.8792  0.3106  0.3964
58679SOL    HW286352  12.762  10.456   4.173  0.0060 -1.2622 -0.9024
58680SOL     OW86353   3.629   3.524   5.396  0.4473  0.0100 -0.1207
58680SOL    HW186354   3.570   3.552   5.326  1.9589 -1.1599 -1.9794
58680SOL    HW286355   3.623   3.428   5.396 -1.0649 -0.0045  2.8413
58681SOL     OW86356   7.558   6.490   1.637 -0.0882 -0.6626  0.3248
58681SOL    HW186357   7.536   6.519   1.548  1.6153 -0.9556 -0.2265
58681SOL    HW286358   7.479   6.508   1.688 -0.9406 -0.0491 -1.1425
58682SOL     OW86359  10.748   3.201   2.130  0.0325 -0.0449 -0.0966
58682SOL    HW186360  10.789   3.140   2.069 -0.4433  0.4346 -0.9247
58682SOL    HW286361  10.821   3.251   2.167  0.2016  1.4348 -2.2383
58683SOL     OW86362   4.862  12.889   4.081  0.2375  0.0901 -0.5680
58683SOL    HW186363   4.822  12.818   4.031 -0.1190 -0.9268  1.0864
58683SOL    HW286364   4.812  12.893   4.162  2.2210  0.0951  0.7447
58684SOL     OW86365   1.303   4.168   9.559 -0.2198 -0.1168  0.0274
58684SOL    HW186366   1.268   4.112   9.628  0.7035 -2.4564 -1.2888
58684SOL    HW286367   1.226   4.206   9.517 -0.7926  1.5351  2.3779
58685SOL     OW86368   3.040   4.588   1.131  0.4106  0.9543 -0.5795
58685SOL    HW186369   3.028   4.669   1.181  1.4492  1.3791 -0.9934
58685SOL    HW286370   3.053   4.617   1.041  2.1570  0.4382 -0.5298
58686SOL     OW86371   5.319  12.084   5.763  0.5016 -0.0973 -0.5293
58686SOL    HW186372   5.371  12.164   5.768  0.6677 -0.1695 -1.0113
58686SOL    HW286373   5.308  12.056   5.854 -1.3816  1.6319 -0.1618
58687SOL     OW86374   1.951   5.044  12.390 -0.6875 -0.3757  0.1309
58687SOL    HW186375   2.013   4.997  12.334  1.0572  2.3909 -0.4792
58687SOL    HW286376   1.961   5.003  12.476  0.7930 -1.0602 -0.3281
58688SOL     OW86377   2.309  11.164   7.446 -0.5386 -0.1840  0.1799
58688SOL    HW186378   2.259  11.199   7.520 -1.3004 -0.2237 -0.3059
58688SOL    HW286379   2.391  11.134   7.485 -0.7060  0.2904  0.9242
58689SOL     OW86380  10.594   3.964   6.342 -0.3351 -0.3133  0.1533
58689SOL    HW186381  10.598   3.873   6.372  1.5956 -0.1070  0.6305
58689SOL    HW286382  10.577   3.957   6.248  0.5961 -1.2011  0.0317
58690SOL     OW86383  11.149   2.960  12.274 -0.1898 -0.0356 -0.1697
58690SOL    HW186384  11.068   2.971  12.325 -0.4233 -0.8027 -0.3531
58690SOL    HW286385  11.213   3.016  12.318 -0.6344  0.0318  0.4079
58691SOL     OW86386   5.273   4.717   7.333 -0.1256 -0.0520  0.6842
58691SOL    HW186387   5.182   4.701   7.359 -0.6339  1.0414 -0.3343
58691SOL    HW286388   5.319   4.735   7.415 -1.1643  0.9252  1.0783
58692SOL     OW86389   1.718   9.647  10.556  0.5030  0.0355  0.1436
58692SOL    HW186390   1.679   9.725  10.518  1.4002  1.5315  2.1499
58692SOL    HW286391   1.810   9.652  10.531  0.3739 -1.0236 -0.6461
58693SOL     OW86392   2.913   3.629   4.487  0.1694 -0.3812 -0.6377
58693SOL    HW186393   2.991   3.677   4.514 -0.2422  1.9456 -3.0880
58693SOL    HW286394   2.945   3.555   4.437  0.8000 -1.2302  0.9715
58694SOL     OW86395  10.884  11.455   2.497  0.3128  0.3501 -0.1680
58694SOL    HW186396  10.940  11.525   2.463 -0.6752  1.2346 -0.0186
58694SOL    HW286397  10.831  11.428   2.422  1.4146 -1.0177 -0.5099
58695SOL     OW86398   8.798   9.945   4.768  0.2029  0.2497 -0.0198
58695SOL    HW186399   8.871   9.975   4.715  0.6910 -0.3667  0.2881
58695SOL    HW286400   8.737  10.019   4.770  0.8364  0.7833 -0.2460
58696SOL     OW86401  12.612   5.199   4.145  0.1078  0.1634  0.4319
58696SOL    HW186402  12.640   5.195   4.053  1.3014 -2.4554  0.8304
58696SOL    HW286403  12.516   5.195   4.140  0.1713 -2.1992 -0.7378
58697SOL     OW86404   4.309   7.014  10.983  0.0276  0.6753 -0.2694
58697SOL    HW186405   4.394   7.011  10.939 -0.3201 -1.0041 -0.8872
58697SOL    HW286406   4.261   7.083  10.938  0.3189  0.2019 -1.3459
58698SOL     OW86407   5.095  10.084   8.682  0.0441  0.1370  0.0842
58698SOL    HW186408   5.011  10.093   8.728 -0.1356 -0.5272 -0.1050
58698SOL    HW286409   5.155  10.140   8.731 -0.4171  0.3200  0.4528
58699SOL     OW86410  10.994  12.405   0.563 -0.0991 -0.3283  0.1047
58699SOL    HW186411  10.984  12.358   0.646  0.3060  0.6014  0.7056
58699SOL    HW286412  10.911  12.450   0.551  0.6985  1.6302  1.3892
58700SOL     OW86413   3.324  10.767  10.073 -0.1563 -0.4603  0.2712
58700SOL    HW186414   3.353  10.819  10.148  1.2127 -0.4605 -0.2205
58700SOL    HW286415   3.364  10.811   9.998 -1.1448 -0.7180 -0.4238
58701SOL     OW86416   4.935   3.906   9.560  0.2756 -0.3064  0.4815
58701SOL    HW186417   4.874   3.913   9.633  0.6739  0.2793  0.7618
58701SOL    HW286418   5.016   3.872   9.598  0.3588 -0.3753  0.2452
58702SOL     OW86419   8.310   8.482   2.488 -0.0283  0.3208  0.6651
58702SOL    HW186420   8.300   8.387   2.497 -2.0155  0.4220 -0.0141
58702SOL    HW286421   8.392   8.493   2.441 -0.5590 -1.1577 -0.7014
58703SOL     OW86422   2.720   5.794   6.291  0.2139  0.1108 -0.1545
58703SOL    HW186423   2.763   5.774   6.208 -0.1866 -0.0509 -0.3257
58703SOL    HW286424   2.768   5.742   6.356 -0.0069 -0.4231 -0.4113
58704SOL     OW86425   3.267   5.675   6.666  0.3205  0.1525 -1.0866
58704SOL    HW186426   3.302   5.714   6.746  2.5564 -1.8602 -0.9584
58704SOL    HW286427   3.199   5.736   6.638  1.1722  2.2280  0.9444
58705SOL     OW86428   2.706   6.923   8.116  0.0458 -0.2886  0.0965
58705SOL    HW186429   2.772   6.896   8.180  0.3492 -0.0877 -0.1278
58705SOL    HW286430   2.668   7.003   8.154 -1.1208 -1.2114  0.9438
58706SOL     OW86431  11.500   8.659   0.545 -0.1372 -0.1136  0.2025
58706SOL    HW186432  11.447   8.602   0.490  0.3708  0.7062 -1.1729
58706SOL    HW286433  11.579   8.675   0.495 -0.7948  2.8101 -0.0874
58707SOL     OW86434  12.336   6.250   7.020 -0.0507 -0.5456  0.1826
58707SOL    HW186435  12.273   6.235   7.091 -0.2948  0.7725  0.2561
58707SOL    HW286436  12.300   6.202   6.946 -0.7494 -0.4224  0.4354
58708SOL     OW86437  11.279   7.077   0.245 -0.6654  0.2517 -0.3857
58708SOL    HW186438  11.253   7.141   0.178 -3.0928 -0.4224 -0.2035
58708SOL    HW286439  11.324   7.128   0.312  1.2024  1.0528 -2.1685
58709SOL     OW86440   8.552   9.433  12.107 -0.2649  0.2065 -0.4364
58709SOL    HW186441   8.538   9.480  12.190 -2.0894 -0.0069 -0.5876
58709SOL    HW286442   8.608   9.492  12.056 -1.5854  1.7555 -0.1870
58710SOL     OW86443  10.219  11.368  12.709  0.3224 -0.5727  0.3253
58710SOL    HW186444  10.164  11.318  12.770 -0.5120  1.5256  1.3803
58710SOL    HW286445  10.157  11.423  12.661  1.1643 -0.8662 -1.1725
58711SOL     OW86446   8.645   7.596   5.292  0.1893 -0.3005  0.6764
58711SOL    HW186447   8.568   7.614   5.238  0.6573  0.8660  0.3694
58711SOL    HW286448   8.700   7.673   5.282  0.4020 -0.1397  2.6590
58712SOL     OW86449   5.754   6.746   0.489  0.1536 -0.2801  0.2370
58712SOL    HW186450   5.724   6.774   0.576  0.5328 -0.1798  0.3384
58712SOL    HW286451   5.691   6.679   0.462 -1.0314  0.9502 -0.1920
58713SOL     OW86452   5.132   8.802   0.096 -0.4756 -0.5095 -0.1037
58713SOL    HW186453   5.111   8.836   0.009 -2.3744 -6.2685 -2.3640
58713SOL    HW286454   5.215   8.756   0.083  0.2195  0.1131  1.7961
58714SOL     OW86455   7.794  11.861   4.886 -0.1504  0.3597 -0.0605
58714SOL    HW186456   7.757  11.792   4.943  2.1877 -0.7787  0.1979
58714SOL    HW286457   7.738  11.937   4.901 -1.5214 -0.8529  1.3223
58715SOL     OW86458   0.904   6.676   7.140 -0.0473  0.6316 -0.4114
58715SOL    HW186459   1.000   6.667   7.141 -0.1003 -0.0078  0.6518
58715SOL    HW286460   0.873   6.607   7.199 -1.1009  1.5572  0.1557
58716SOL     OW86461  10.585   2.474  11.939  0.3290 -0.9144  0.1633
58716SOL    HW186462  10.621   2.422  12.011 -0.7909 -0.6976  0.9052
58716SOL    HW286463  10.523   2.533  11.981 -0.2900 -0.7339 -0.9744
58717SOL     OW86464   7.773   3.312   3.667  0.0750  0.1260  0.2044
58717SOL    HW186465   7.683   3.332   3.690 -0.0856 -1.3072  0.9480
58717SOL    HW286466   7.796   3.236   3.722  1.0215 -0.8616 -1.4687
58718SOL     OW86467  12.213   3.265   8.544  0.3849 -0.3922 -0.0134
58718SOL    HW186468  12.174   3.353   8.539 -0.3742 -0.4697  2.6039
58718SOL    HW286469  12.261   3.266   8.627  0.5054 -2.3811 -0.0113
58719SOL     OW86470   8.826   4.056   2.488 -0.2785  0.2374  0.0496
58719SOL    HW186471   8.914   4.094   2.482 -0.0894 -0.2892 -0.5308
58719SOL    HW286472   8.784   4.105   2.560  0.7507 -0.0362  0.8624
58720SOL     OW86473   0.651   5.016   0.253 -0.4722 -0.9203  0.4810
58720SOL    HW186474   0.637   4.923   0.269  2.5234 -1.6197 -0.2878
58720SOL    HW286475   0.664   5.022   0.158 -0.2849  0.2204  0.5660
58721SOL     OW86476  11.433   3.079   0.140  0.2646 -0.3115 -0.3522
58721SOL    HW186477  11.412   3.149   0.202 -0.1260  0.1008 -0.9340
58721SOL    HW286478  11.405   2.999   0.184 -1.0569  0.0695 -0.4306
58722SOL     OW86479  10.889   1.915  11.948 -0.2080  0.1816 -0.1861
58722SOL    HW186480  10.964   1.879  11.996  0.0733  1.9889  0.8302
58722SOL    HW286481  10.928   1.968  11.879 -0.6045 -1.0758 -1.4022
58723SOL     OW86482  10.250   6.057   7.020  0.3290  0.0664 -0.4264
58723SOL    HW186483  10.263   6.020   6.933 -1.1127 -0.3677 -0.4761
58723SOL    HW286484  10.249   5.982   7.079 -1.8025  0.0353 -0.4317
58724SOL     OW86485   3.599   5.495   7.389 -0.2020 -0.0903 -0.5813
58724SOL    HW186486   3.512   5.519   7.421  0.5914  1.5378  0.4981
58724SOL    HW286487   3.585   5.469   7.298 -1.9903 -1.2114 -0.0415
58725SOL     OW86488   2.337   9.789   7.291 -0.4176  0.4874  0.2286
58725SOL    HW186489   2.246   9.761   7.293 -0.1194 -0.4543  1.4241
58725SOL    HW286490   2.353   9.810   7.199 -2.0496  1.4267  0.1210
58726SOL     OW86491   1.329   3.620   1.924 -0.3848  0.0647 -0.0598
58726SOL    HW186492   1.423   3.635   1.912 -0.2391 -1.1703 -0.6053
58726SOL    HW286493   1.290   3.708   1.920  0.6565  0.5174 -0.6777
58727SOL     OW86494   6.965   5.618   3.403  0.0915 -0.0868 -0.4980
58727SOL    HW186495   6.983   5.619   3.309  1.0973 -0.3783 -0.3211
58727SOL    HW286496   7.051   5.603   3.444  0.0163  2.0368  0.5729
58728SOL     OW86497   4.975   7.508   6.100  0.3568 -0.5990 -0.0354
58728SOL    HW186498   4.933   7.550   6.175  1.1050 -0.1778  0.1527
58728SOL    HW286499   5.058   7.476   6.134  1.4133  0.9593 -1.0288
58729SOL     OW86500   6.853   1.212  12.398 -0.2370  0.0756 -0.0791
58729SOL    HW186501   6.804   1.294  12.407  0.8980  0.9691 -1.4923
58729SOL    HW286502   6.787   1.146  12.382 -1.1196  0.8987  0.0560
58730SOL     OW86503  10.353   7.557   9.758  0.2621 -0.5308  0.0337
58730SOL    HW186504  10.396   7.471   9.753  1.2472 -0.0548  0.0186
58730SOL    HW286505  10.380   7.592   9.844  2.1709  0.9029 -1.0638
58731SOL     OW86506   2.714   8.531   9.907  0.3567 -0.1191  0.0028
58731SOL    HW186507   2.651   8.593   9.942 -1.7955 -2.2710  0.2160
58731SOL    HW286508   2.711   8.545   9.812 -0.9447 -0.6086 -0.0425
58732SOL     OW86509  10.017   1.730   4.226 -0.3963 -0.0953 -0.4289
58732SOL    HW186510   9.924   1.746   4.241 -0.9063 -0.1140 -3.0845
58732SOL    HW286511  10.061   1.767   4.303 -2.5078  1.1498  0.2517
58733SOL     OW86512  10.228   8.338   4.046 -0.0750  0.4258 -0.8624
58733SOL    HW186513  10.145   8.309   4.010  1.0115 -0.5591 -2.7172
58733SOL    HW286514  10.293   8.315   3.980  1.6629  1.3990  0.4020
58734SOL     OW86515   2.548   3.269   8.726  0.1951  0.2255  0.3641
58734SOL    HW186516   2.593   3.211   8.787 -0.9109 -1.1177 -0.0427
58734SOL    HW286517   2.481   3.214   8.685 -0.2465  1.5414 -0.7756
58735SOL     OW86518  10.448  12.459   2.090  0.3847  0.1256 -0.3995
58735SOL    HW186519  10.457  12.496   2.002  0.3047 -0.9979 -0.9046
58735SOL    HW286520  10.496  12.519   2.147  0.7353  0.6822 -1.2621
58736SOL     OW86521   9.135   1.199   4.543  0.0859  0.3430 -0.4076
58736SOL    HW186522   9.126   1.183   4.637  0.7561  0.4428 -0.3167
58736SOL    HW286523   9.136   1.112   4.504 -0.2516  0.3027 -0.3266
58737SOL     OW86524  11.828   1.786  10.305  0.6749  0.0191  0.2761
58737SOL    HW186525  11.876   1.718  10.353  2.8205  1.0492 -0.2734
58737SOL    HW286526  11.893   1.855  10.292 -0.8354  1.2387 -1.0950
58738SOL     OW86527   3.895   8.139  10.480 -0.0794 -0.3218  0.3209
58738SOL    HW186528   3.850   8.223  10.476  2.3184  1.0141 -0.3214
58738SOL    HW286529   3.981   8.159  10.518  0.6165 -2.4497  0.0286
58739SOL     OW86530   9.120   9.786   1.807 -0.5569  0.1182 -0.3666
58739SOL    HW186531   9.074   9.725   1.749 -1.2377  0.6584 -0.4051
58739SOL    HW286532   9.190   9.822   1.753 -2.1559  1.8504 -1.4456
58740SOL     OW86533   4.697   9.136   9.473  0.0010 -0.0919 -0.4148
58740SOL    HW186534   4.638   9.108   9.403  0.3191  1.2363 -1.2337
58740SOL    HW286535   4.733   9.054   9.507 -1.0301 -0.8222 -1.0204
58741SOL     OW86536   4.069  10.871   4.347  0.4676  0.2185  0.4349
58741SOL    HW186537   4.001  10.934   4.367 -0.0263 -0.3786  0.6747
58741SOL    HW286538   4.024  10.802   4.297  1.0212  0.1237  0.0563
58742SOL     OW86539   4.949   3.577   3.550  0.1738  0.3318  0.1714
58742SOL    HW186540   4.978   3.599   3.461 -1.3128  1.4897 -0.0586
58742SOL    HW286541   4.855   3.564   3.543  0.2862 -1.4351  1.2606
58743SOL     OW86542  10.361   4.721   7.576 -0.3341 -0.3824  0.5638
58743SOL    HW186543  10.374   4.806   7.619  1.0232 -0.2850  0.0207
58743SOL    HW286544  10.418   4.725   7.499 -2.4455 -0.6541 -1.1052
58744SOL     OW86545   2.153  11.532   6.711  0.1108  0.4697 -0.2728
58744SOL    HW186546   2.138  11.588   6.634 -0.7820  0.5863 -0.0258
58744SOL    HW286547   2.166  11.445   6.674 -0.6499  0.4645 -0.5439
58745SOL     OW86548   6.731   0.404  10.512 -0.1028 -0.2303  0.3742
58745SOL    HW186549   6.764   0.470  10.451 -0.3990 -0.1376  0.3138
58745SOL    HW286550   6.798   0.400  10.581 -1.4699  2.4016  2.0516
58746SOL     OW86551  12.942   1.441   5.421  0.3198 -0.6881  0.8912
58746SOL    HW186552  12.913   1.425   5.511  0.1923 -1.0230  0.7921
58746SOL    HW286553  12.889   1.381   5.368 -0.8445  0.7249  0.4032
58747SOL     OW86554   5.485  10.245   5.141 -0.8682  0.1479  0.5676
58747SOL    HW186555   5.470  10.175   5.078  0.0471  0.5618 -0.1439
58747SOL    HW286556   5.544  10.206   5.206 -1.4812 -0.1524  0.9566
58748SOL     OW86557   8.901   2.094  12.139 -0.4977  0.2186 -0.5579
58748SOL    HW186558   8.847   2.023  12.172 -0.8350  0.4742 -0.5494
58748SOL    HW286559   8.940   2.061  12.058  2.3869 -1.3771  1.3062
58749SOL     OW86560  10.319   2.788   4.895  0.0834 -0.1859 -0.3365
58749SOL    HW186561  10.244   2.824   4.849 -1.1383 -0.9141  0.9915
58749SOL    HW286562  10.287   2.705   4.931  1.1511  0.0248  1.2220
58750SOL     OW86563   8.780   1.528   4.954  0.5652  0.4457 -0.0579
58750SOL    HW186564   8.713   1.462   4.974  0.3714  0.4392 -0.6934
58750SOL    HW286565   8.857   1.478   4.929  0.3232  0.4556 -0.8422
58751SOL     OW86566   9.507   5.867   7.424 -0.4861  0.2298  0.2959
58751SOL    HW186567   9.514   5.834   7.334 -0.1708  0.9636  0.0406
58751SOL    HW286568   9.585   5.922   7.435 -0.6397  0.3229  0.9456
58752SOL     OW86569   2.080  10.407  11.662  0.1064  0.1464 -0.4473
58752SOL    HW186570   2.149  10.466  11.633  0.2502  0.2015 -0.0007
58752SOL    HW286571   2.000  10.459  11.654  0.1585  0.2033 -0.6119
58753SOL     OW86572   1.030   9.729   9.613  1.0022  0.1993 -0.1104
58753SOL    HW186573   1.124   9.713   9.606  0.9997 -0.3354  0.8663
58753SOL    HW286574   0.996   9.649   9.653 -0.0449 -0.1015 -1.5387
58754SOL     OW86575  11.419   7.019   3.464 -0.2458 -0.0120  0.8600
58754SOL    HW186576  11.514   7.034   3.464  0.0588 -1.1900 -2.3785
58754SOL    HW286577  11.381   7.106   3.475  1.2780  0.9320 -0.8228
58755SOL     OW86578   5.568  12.015   8.217 -0.4368 -0.5352 -0.5429
58755SOL    HW186579   5.626  11.947   8.249  1.6481  0.8980 -1.0919
58755SOL    HW286580   5.622  12.095   8.215 -1.9562  0.5608 -2.5272
58756SOL     OW86581   5.554   9.748  11.233 -0.4393 -0.3179 -0.1020
58756SOL    HW186582   5.482   9.772  11.291 -0.3376 -1.1252  0.3865
58756SOL    HW286583   5.602   9.681  11.282 -1.2208 -2.1502 -1.7168
58757SOL     OW86584  12.336   4.618   8.348  0.0175  0.2182 -0.0891
58757SOL    HW186585  12.353   4.706   8.381  0.1217  0.0223  0.3806
58757SOL    HW286586  12.248   4.623   8.310 -0.1005  0.4494  0.2086
58758SOL     OW86587   8.915   4.034   2.160 -0.1162  0.1779  0.3256
58758SOL    HW186588   8.828   4.048   2.197 -0.7393  1.3360 -1.4122
58758SOL    HW286589   8.975   4.039   2.235 -1.4994 -0.2486  1.5002
58759SOL     OW86590  11.839   6.936  10.190  0.6127  0.3053 -0.4328
58759SOL    HW186591  11.921   6.960  10.146  0.7307  1.6639  0.4797
58759SOL    HW286592  11.773   6.991  10.148  0.2243 -0.4389 -0.8257
58760SOL     OW86593   8.264   9.593   5.165 -0.1791 -0.0820  0.3084
58760SOL    HW186594   8.267   9.525   5.098  0.0784  0.1112  0.1235
58760SOL    HW286595   8.356   9.615   5.181 -0.1904 -0.6722  1.2859
58761SOL     OW86596   3.322   5.422   7.370 -0.1537  0.3981 -0.8806
58761SOL    HW186597   3.321   5.435   7.275  0.3129  2.1966 -0.6813
58761SOL    HW286598   3.358   5.334   7.382 -0.4575  0.0394 -2.3688
58762SOL     OW86599   2.127   9.553   4.760 -0.0457 -0.7450  0.5329
58762SOL    HW186600   2.183   9.563   4.683 -2.0981 -1.2618 -1.0859
58762SOL    HW286601   2.050   9.606   4.741 -0.8008 -1.2526  2.0474
58763SOL     OW86602   7.343   2.896   2.762  0.6877 -0.0500 -0.0371
58763SOL    HW186603   7.278   2.962   2.784  0.4452 -0.5216  0.7008
58763SOL    HW286604   7.421   2.946   2.738  0.2644  0.5086 -0.2702
58764SOL     OW86605   7.099   7.333   9.158 -0.1964  0.1457  0.2453
58764SOL    HW186606   7.092   7.314   9.065  3.7566 -0.8540 -0.0239
58764SOL    HW286607   7.069   7.423   9.167 -2.1457 -0.2378 -1.6600
58765SOL     OW86608   4.816   9.390  12.575 -0.3428 -0.1746  0.0375
58765SOL    HW186609   4.737   9.366  12.625 -1.1167 -0.6074 -1.3493
58765SOL    HW286610   4.804   9.482  12.554  0.0112  0.0228  0.6771
58766SOL     OW86611   7.714   5.846   6.984  0.4535  0.3853 -0.6788
58766SOL    HW186612   7.679   5.853   7.073  0.1896 -0.0729 -0.7418
58766SOL    HW286613   7.654   5.786   6.939  0.6633  0.5045 -1.1259
58767SOL     OW86614   4.719   8.312   7.529  0.2931 -0.1778 -0.2540
58767SOL    HW186615   4.664   8.354   7.464 -0.8046 -0.7186  0.2932
58767SOL    HW286616   4.795   8.281   7.480  0.4926  1.2266 -0.8962
58768SOL     OW86617   2.295   1.005   9.394 -0.1004  0.2880  0.3905
58768SOL    HW186618   2.342   1.058   9.459 -1.7018  0.1389  1.7290
58768SOL    HW286619   2.205   1.036   9.398 -0.7439 -1.4148  0.0128
58769SOL     OW86620   1.702   4.197   0.012 -0.0855 -0.3111 -0.3596
58769SOL    HW186621   1.675   4.169   0.100  0.3713  1.5706  0.4327
58769SOL    HW286622   1.797   4.192   0.013 -0.0148  0.7663 -0.3442
58770SOL     OW86623   3.531  10.170   4.716  0.1645 -0.2106  0.5437
58770SOL    HW186624   3.620  10.142   4.739 -0.2015 -2.3241 -0.3573
58770SOL    HW286625   3.495  10.097   4.666 -2.4710  0.1496  1.7611
58771SOL     OW86626   6.047   9.654   3.098 -0.2589  0.0879  0.0175
58771SOL    HW186627   6.013   9.601   3.170  2.3974 -1.0855  0.5422
58771SOL    HW286628   6.074   9.590   3.032 -1.8661  1.1045 -1.7290
58772SOL     OW86629   5.603   6.805   4.642  0.5213  0.1284  0.2737
58772SOL    HW186630   5.540   6.869   4.675  0.1775 -0.6171  1.1121
58772SOL    HW286631   5.631   6.840   4.558 -1.0410  0.4701 -0.1360
58773SOL     OW86632   3.049   2.917   3.655 -0.0962  0.1786 -0.0291
58773SOL    HW186633   2.972   2.861   3.671 -1.3399  1.8931  0.2322
58773SOL    HW286634   3.066   2.907   3.562 -0.0360 -0.9382  0.0844
58774SOL     OW86635   0.302   4.776  10.821  0.3016  0.2216 -0.4072
58774SOL    HW186636   0.334   4.687  10.803 -1.6325 -0.4492 -0.7379
58774SOL    HW286637   0.303   4.820  10.736 -2.5696 -0.8375 -1.0939
58775SOL     OW86638   4.703   4.666   9.305  0.0329  0.4319 -0.0431
58775SOL    HW186639   4.659   4.695   9.384  0.9177  0.0696  0.6007
58775SOL    HW286640   4.661   4.582   9.284 -0.1240  0.4720  0.1050
58776SOL     OW86641  12.317  10.341   1.124 -0.4668  0.8698  0.0631
58776SOL    HW186642  12.227  10.310   1.117 -0.6141  1.2027  0.4760
58776SOL    HW286643  12.346  10.312   1.210 -0.1689  0.7505 -0.0731
58777SOL     OW86644   4.347   4.814   1.027  0.4959  0.1692  0.1283
58777SOL    HW186645   4.422   4.842   1.079 -0.0021  0.6976  0.5796
58777SOL    HW286646   4.351   4.867   0.948  2.1793 -1.7516 -1.1876
58778SOL     OW86647  11.147   0.659   0.143 -0.1011 -0.3272  0.2994
58778SOL    HW186648  11.136   0.663   0.048  1.7513 -1.4042 -0.0097
58778SOL    HW286649  11.209   0.730   0.163 -0.7431  0.1159  0.7737
58779SOL     OW86650   3.683   3.871   6.402 -0.3932 -0.2995  0.2430
58779SOL    HW186651   3.711   3.853   6.491 -0.6273  0.0777  0.3926
58779SOL    HW286652   3.611   3.932   6.411  0.0649  0.3254 -0.2328
58780SOL     OW86653   0.860   7.514   3.040 -0.5021  0.6872  0.2763
58780SOL    HW186654   0.768   7.515   3.066 -0.8419  0.6496 -0.9076
58780SOL    HW286655   0.901   7.449   3.097 -1.3959  0.0172  0.1538
58781SOL     OW86656   3.709   4.992  12.830 -0.4844 -0.4130 -0.4218
58781SOL    HW186657   3.741   5.044  12.904 -1.0275 -0.1212 -0.3847
58781SOL    HW286658   3.782   4.934  12.808  0.6128  1.2105 -1.2686
58782SOL     OW86659  10.675   9.760   7.359  0.7652 -0.2686  0.8202
58782SOL    HW186660  10.594   9.756   7.309  0.5836 -0.8694  1.1505
58782SOL    HW286661  10.648   9.750   7.451  1.2249 -0.7614  0.9146
58783SOL     OW86662  12.870   2.193  12.760 -0.1405  0.7341  0.0375
58783SOL    HW186663  12.873   2.210  12.854 -1.1850  1.0274  0.0301
58783SOL    HW286664  12.783   2.223  12.733  0.6485  1.9647 -1.2769
58784SOL     OW86665   7.693   8.526   5.897 -0.4061  0.5069 -0.4024
58784SOL    HW186666   7.603   8.546   5.919 -0.2781  0.8327 -0.1681
58784SOL    HW286667   7.694   8.523   5.801 -1.0789 -1.4747 -0.3892
58785SOL     OW86668   2.117   2.726   9.267  0.3254  0.0604 -0.8397
58785SOL    HW186669   2.095   2.633   9.266 -2.3906  0.6121 -1.6138
58785SOL    HW286670   2.208   2.730   9.237  0.0901 -2.2628 -2.0931
58786SOL     OW86671   9.172  11.103   3.713 -0.2760 -0.1395  0.6629
58786SOL    HW186672   9.120  11.030   3.680  1.3432 -1.9550  1.8824
58786SOL    HW286673   9.164  11.170   3.646 -3.2482 -0.7180  0.3033
58787SOL     OW86674   4.947   0.615  10.840  0.2084 -0.1082 -0.3741
58787SOL    HW186675   5.017   0.560  10.876 -0.3569 -1.0059 -0.6180
58787SOL    HW286676   4.984   0.650  10.758  1.1690  1.2227  0.5858
58788SOL     OW86677  10.690   2.412   0.024  0.4538  0.6042 -0.3050
58788SOL    HW186678  10.631   2.438  -0.047 -0.1797 -2.0684 -0.8715
58788SOL    HW286679  10.649   2.448   0.102 -0.7927  0.6158 -0.9255
58789SOL     OW86680   9.183   4.764   5.770 -0.1055  0.7366 -0.0052
58789SOL    HW186681   9.225   4.847   5.793 -0.9613  0.8880  1.1317
58789SOL    HW286682   9.090   4.787   5.760 -0.2942 -0.0172 -0.0511
58790SOL     OW86683   2.510   5.531   0.234 -0.1760 -0.0530  0.1167
58790SOL    HW186684   2.531   5.500   0.322  0.2990 -0.2836 -0.0707
58790SOL    HW286685   2.439   5.593   0.246 -0.4183 -0.4218  0.6159
58791SOL     OW86686  12.221   1.669   3.791 -0.4776 -0.2994 -0.2996
58791SOL    HW186687  12.260   1.582   3.779  0.0718 -0.0949 -0.0435
58791SOL    HW286688  12.295   1.729   3.780  0.0378 -0.0328  3.2948
58792SOL     OW86689   8.524  12.415   9.927  0.1817  0.2762  0.2719
58792SOL    HW186690   8.449  12.356   9.933 -0.0160  0.5231  0.2506
58792SOL    HW286691   8.505  12.485   9.991  2.3185 -1.7479  3.3874
58793SOL     OW86692   0.688   0.507   6.483  0.1452  0.2667 -0.0534
58793SOL    HW186693   0.667   0.478   6.394 -0.8647 -1.1027  0.5890
58793SOL    HW286694   0.605   0.541   6.517  0.3445  0.1037  0.6009
58794SOL     OW86695   1.803   3.451   9.536 -0.3909 -0.8844 -0.0825
58794SOL    HW186696   1.876   3.502   9.570  0.7980  0.1293 -3.6943
58794SOL    HW286697   1.843   3.370   9.504 -1.1687 -1.1618 -0.3867
58795SOL     OW86698  11.432   3.671   3.601 -0.4872 -0.0729  0.0727
58795SOL    HW186699  11.459   3.734   3.669 -2.0584  0.2167  0.4898
58795SOL    HW286700  11.438   3.586   3.643  1.9842 -0.2862 -0.6031
58796SOL     OW86701   4.803   7.372   2.632  0.2573 -0.0810 -0.0858
58796SOL    HW186702   4.831   7.314   2.703 -2.0978  0.2725  1.2236
58796SOL    HW286703   4.711   7.392   2.651  0.0181  1.4024 -2.3324
58797SOL     OW86704   2.460   8.218  11.661 -0.4357 -0.7305 -0.4442
58797SOL    HW186705   2.420   8.269  11.732  0.1226 -0.1993 -0.4997
58797SOL    HW286706   2.533   8.272  11.631  0.9500 -2.1149  0.3035
58798SOL     OW86707  10.695  10.974   8.872 -0.5948 -0.6746  0.0145
58798SOL    HW186708  10.674  11.021   8.953 -1.7292 -1.6184  0.2918
58798SOL    HW286709  10.693  11.042   8.804 -0.1054  0.0432  0.6940
58799SOL     OW86710   0.663   5.733  12.596 -0.5539  0.1306 -0.3377
58799SOL    HW186711   0.590   5.791  12.577 -0.2817  0.4357 -0.4597
58799SOL    HW286712   0.740   5.790  12.599 -0.0616 -0.4104 -1.8610
58800SOL     OW86713  11.444   6.474  10.757  0.1747 -0.1435 -0.2881
58800SOL    HW186714  11.444   6.390  10.711  2.6811 -0.0852 -0.5427
58800SOL    HW286715  11.503   6.460  10.832  1.8925  1.7402 -1.1821
58801SOL     OW86716   9.183   7.252   5.860 -0.2486 -0.1765  0.0343
58801SOL    HW186717   9.141   7.166   5.856 -1.2418  0.2726  0.4029
58801SOL    HW286718   9.267   7.240   5.816 -1.0740 -0.9178 -1.3991
58802SOL     OW86719   0.356  12.898   3.364 -0.3256 -0.0468 -0.4897
58802SOL    HW186720   0.296  12.827   3.340 -0.9715  0.4878 -0.4941
58802SOL    HW286721   0.329  12.923   3.452 -1.2147  1.3084 -1.1158
58803SOL     OW86722   1.090   7.116   3.382 -0.1989  0.0746 -0.1861
58803SOL    HW186723   1.027   7.104   3.452  0.2878  0.4664  0.3255
58803SOL    HW286724   1.173   7.134   3.426 -0.2114  1.9768 -0.8553
58804SOL     OW86725   3.226   2.277   7.706  0.2838  0.1788 -0.2588
58804SOL    HW186726   3.135   2.292   7.682  0.2197 -0.4528 -0.4021
58804SOL    HW286727   3.228   2.294   7.801 -0.4797 -1.9976  0.2083
58805SOL     OW86728  10.003   8.074   0.712 -0.0888 -0.0320 -0.3206
58805SOL    HW186729  10.040   8.063   0.799 -1.4338  1.4019  0.4642
58805SOL    HW286730   9.962   7.990   0.693 -2.6253  0.5928  1.8560
58806SOL     OW86731   1.077   9.420   5.773  0.2377  0.2053  0.3983
58806SOL    HW186732   1.144   9.391   5.835 -1.2705  0.0832  2.0245
58806SOL    HW286733   1.064   9.513   5.793  0.1878  0.3340 -0.1894
58807SOL     OW86734   7.188   7.937   7.884  0.4063  0.0754 -0.4604
58807SOL    HW186735   7.258   7.977   7.935 -0.9251  2.9794 -0.7293
58807SOL    HW286736   7.219   7.941   7.793 -0.0307  1.2845 -0.5707
58808SOL     OW86737  10.477   2.704   6.300 -0.4251  0.3244  0.0590
58808SOL    HW186738  10.503   2.626   6.349  1.0958  0.6561 -0.1661
58808SOL    HW286739  10.455   2.768   6.367 -0.6640  0.0386  0.2576
58809SOL     OW86740   0.093  11.320   2.755 -0.3632  0.3713  0.6521
58809SOL    HW186741   0.044  11.254   2.805  0.4595 -0.1735  0.7555
58809SOL    HW286742   0.060  11.312   2.666  0.7925 -1.2791  0.3159
58810SOL     OW86743   8.856  10.816   8.510  0.4469  0.6317 -0.0544
58810SOL    HW186744   8.927  10.877   8.527  1.0091 -0.4599  1.8706
58810SOL    HW286745   8.789  10.839   8.576  0.2462 -0.1736  0.0294
58811SOL     OW86746   2.128   5.200   2.182  0.1766  0.1287  0.2498
58811SOL    HW186747   2.208   5.233   2.223  0.0209 -0.5321  1.1102
58811SOL    HW286748   2.092   5.138   2.245 -0.2713 -0.6411 -0.7245
58812SOL     OW86749   9.739   6.298   8.770 -0.3625 -0.2839  0.0692
58812SOL    HW186750   9.800   6.229   8.794 -0.2183  0.2988  1.4441
58812SOL    HW286751   9.659   6.252   8.744  0.0266 -0.9824  0.0957
58813SOL     OW86752   0.747   1.784   8.264  0.0710 -0.7622  0.2094
58813SOL    HW186753   0.673   1.824   8.309  1.1862  0.9274  0.6359
58813SOL    HW286754   0.708   1.737   8.191 -1.3152  1.6806 -0.7368
58814SOL     OW86755   4.369  12.943   7.762  0.3633 -0.2115  0.2336
58814SOL    HW186756   4.397  12.978   7.677  0.6672 -1.9656 -0.4310
58814SOL    HW286757   4.422  12.991   7.826  1.5762 -0.2504 -0.6988
58815SOL     OW86758   5.800   7.712   1.862  0.2489  0.7997  0.3329
58815SOL    HW186759   5.894   7.714   1.842  0.2142 -0.8296 -0.0871
58815SOL    HW286760   5.768   7.632   1.821 -1.2555  1.1116  0.8397
58816SOL     OW86761   0.829   5.645   4.299 -0.1802  0.1222  0.3210
58816SOL    HW186762   0.760   5.700   4.262  0.5918  0.4605 -0.6262
58816SOL    HW286763   0.843   5.680   4.387 -1.2008  0.0594  0.5195
58817SOL     OW86764   6.362   3.345   4.121  0.3143 -0.6657  0.4087
58817SOL    HW186765   6.438   3.361   4.065  0.1438  1.0529  0.6205
58817SOL    HW286766   6.286   3.351   4.063  0.2947 -2.3697  0.1988
58818SOL     OW86767   4.423   9.851   6.370 -0.5450  0.2103 -0.0319
58818SOL    HW186768   4.353   9.895   6.320 -0.9875  1.0921  1.3031
58818SOL    HW286769   4.457   9.785   6.310 -0.9098  1.3567 -1.5694
58819SOL     OW86770   7.224   5.960   4.223 -0.9599  0.3304 -0.4775
58819SOL    HW186771   7.173   5.889   4.263 -2.9504  1.3470 -1.0934
58819SOL    HW286772   7.272   5.999   4.296 -1.6258 -0.2078  0.2644
58820SOL     OW86773   1.301   3.700   0.556 -0.5252  0.0590 -0.2262
58820SOL    HW186774   1.282   3.717   0.649  0.6063  0.1118  0.0129
58820SOL    HW286775   1.298   3.786   0.515 -2.1431 -0.0960 -0.4706
58821SOL     OW86776   0.019  12.263  11.590 -0.7058 -0.3289  0.1990
58821SOL    HW186777   0.035  12.196  11.524 -0.3625 -1.0721  1.0288
58821SOL    HW286778  -0.075  12.255  11.609 -0.8569  0.0450 -0.3543
58822SOL     OW86779   6.800   4.472   1.014 -0.0624 -0.1480 -0.0464
58822SOL    HW186780   6.763   4.515   0.937  0.1778 -0.2401 -0.2149
58822SOL    HW286781   6.833   4.388   0.981 -1.7133 -1.0572  0.5210
58823SOL     OW86782   9.504   2.005   4.737 -0.1337 -0.6012  0.0143
58823SOL    HW186783   9.594   1.974   4.740  0.0447 -0.0829  0.2368
58823SOL    HW286784   9.491   2.031   4.645  0.7920  1.6905  0.4519
58824SOL     OW86785  10.906   3.123   7.865 -0.5724 -0.1162  0.4937
58824SOL    HW186786  10.992   3.081   7.860  0.1256  1.3229 -2.7182
58824SOL    HW286787  10.924   3.215   7.844 -2.7563  0.5186  1.1575
58825SOL     OW86788  11.220  10.634   8.635 -0.8743 -0.5930  0.2138
58825SOL    HW186789  11.226  10.540   8.619  1.2786 -0.4585  0.0269
58825SOL    HW286790  11.303  10.669   8.605 -1.4840  1.3339  0.6573
58826SOL     OW86791   0.353   1.316   9.323  0.1813 -0.2241  0.0257
58826SOL    HW186792   0.260   1.308   9.345 -0.4235  2.2312 -1.3541
58826SOL    HW286793   0.364   1.260   9.246 -0.4735  0.4253 -0.5603
58827SOL     OW86794   6.050   7.835   1.723 -0.2857  0.2783  0.4029
58827SOL    HW186795   6.100   7.760   1.756 -1.5585 -0.8418 -0.0906
58827SOL    HW286796   6.046   7.821   1.628 -0.7040  0.8727  0.3289
58828SOL     OW86797  12.011  10.059  10.323  0.4482  0.0565  0.4175
58828SOL    HW186798  12.015  10.109  10.242  1.3088  0.5696  0.7591
58828SOL    HW286799  11.932  10.006  10.315  0.3074  0.3959 -0.5784
58829SOL     OW86800  12.034   7.846   6.249  0.0704  0.2398 -0.2367
58829SOL    HW186801  12.082   7.926   6.269  2.2837 -0.2579 -2.9747
58829SOL    HW286802  11.999   7.860   6.161 -0.4360 -1.4172 -0.3334
58830SOL     OW86803   3.949   2.993   4.111  0.0376  0.0537 -0.2770
58830SOL    HW186804   4.020   3.041   4.068  0.6693 -1.4923 -1.0467
58830SOL    HW286805   3.892   2.965   4.040  0.3496 -1.3755  0.0098
58831SOL     OW86806   4.340  10.968   0.136  0.5327  0.2139  0.0176
58831SOL    HW186807   4.327  10.956   0.042  0.1520 -0.3043  0.1302
58831SOL    HW286808   4.429  10.938   0.152  1.5715  2.7008 -0.5766
58832SOL     OW86809   2.182  11.894   4.240  0.5054 -0.0879  0.2204
58832SOL    HW186810   2.263  11.850   4.214  0.7042  1.3129 -1.7607
58832SOL    HW286811   2.119  11.871   4.171 -0.1547  0.5827  0.5876
58833SOL     OW86812   0.131   6.577   3.488 -0.1724  0.0665 -0.5603
58833SOL    HW186813   0.133   6.532   3.404 -2.8526  0.0881 -0.7202
58833SOL    HW286814   0.055   6.636   3.482  0.6360  1.3929  1.2314
58834SOL     OW86815   4.720  11.079  12.970 -0.4627 -0.4016 -0.2495
58834SOL    HW186816   4.631  11.062  12.938 -1.1076  0.0400  1.1711
58834SOL    HW286817   4.748  11.157  12.923 -0.4641 -1.0466 -1.3469
58835SOL     OW86818   9.992   1.525   5.043  0.5212 -0.1775  0.3907
58835SOL    HW186819  10.045   1.493   5.117 -1.0548 -1.6135  0.9842
58835SOL    HW286820   9.998   1.454   4.978 -1.7521 -1.0806  1.0673
58836SOL     OW86821   2.876  12.636  11.694 -0.9782  0.4599 -0.4776
58836SOL    HW186822   2.855  12.686  11.772 -0.4130 -0.2290  0.1389
58836SOL    HW286823   2.952  12.583  11.720 -0.5382  0.5123 -1.6134
58837SOL     OW86824   7.966  11.219  10.779 -0.1764 -0.3439  0.3508
58837SOL    HW186825   8.023  11.267  10.718 -0.6667 -0.2018  0.0031
58837SOL    HW286826   7.925  11.152  10.725  0.0134 -0.7450  0.7040
58838SOL     OW86827   5.106   3.542   9.277  0.3662 -0.4406  0.2834
58838SOL    HW186828   5.042   3.602   9.315  0.0920 -1.7852  2.0656
58838SOL    HW286829   5.170   3.599   9.234 -2.2947  0.9428 -2.1860
58839SOL     OW86830  10.424   4.258   9.442  0.7160  0.0961  0.6164
58839SOL    HW186831  10.437   4.247   9.536  0.5083 -0.2141  0.6109
58839SOL    HW286832  10.510   4.241   9.403  0.4709 -1.2825  0.6314
58840SOL     OW86833   2.480   2.167  12.482 -0.2117 -0.0693 -0.2103
58840SOL    HW186834   2.523   2.089  12.517  0.9919 -0.1536 -1.7802
58840SOL    HW286835   2.400   2.175  12.534  0.3496 -1.4916  0.9628
58841SOL     OW86836   1.426   0.168   8.954 -0.0693  0.0094  0.1350
58841SOL    HW186837   1.456   0.097   9.010 -0.6170  0.8289  1.4974
58841SOL    HW286838   1.506   0.211   8.925  0.3033 -1.4073 -1.1134
58842SOL     OW86839   9.953   7.980   4.486  0.2088 -0.3788  0.2056
58842SOL    HW186840   9.881   8.042   4.481 -0.4661 -1.1927 -0.4831
58842SOL    HW286841  10.010   8.002   4.412 -1.0591 -1.7836 -1.2714
58843SOL     OW86842   6.252   3.160   6.690  0.5074  0.5157  0.1322
58843SOL    HW186843   6.293   3.073   6.693  2.1595  1.0481 -2.8582
58843SOL    HW286844   6.326   3.220   6.681 -0.7305  1.9598 -0.7472
58844SOL     OW86845   6.478   1.411   0.236  0.4026 -0.2809  0.0620
58844SOL    HW186846   6.475   1.490   0.181  0.9902 -0.3905 -0.1375
58844SOL    HW286847   6.527   1.348   0.183  1.5868 -0.1690  0.9900
58845SOL     OW86848   8.059   2.735  10.238  0.1205  0.7557  0.1184
58845SOL    HW186849   8.004   2.772  10.169  0.9998  0.6106 -0.6706
58845SOL    HW286850   7.998   2.685  10.292 -0.8836  2.2576  0.4676
58846SOL     OW86851  11.681   8.207   2.494  0.0179 -0.1713 -0.5693
58846SOL    HW186852  11.612   8.147   2.521  0.3603  0.8887  3.2577
58846SOL    HW286853  11.648   8.294   2.517  2.2077  0.4377  0.5076
58847SOL     OW86854   3.304  11.003   0.498 -0.8778 -0.2647 -0.4731
58847SOL    HW186855   3.299  10.980   0.590 -2.1423 -0.6418 -0.6174
58847SOL    HW286856   3.274  10.924   0.452 -0.7181  0.0801 -1.1897
58848SOL     OW86857   0.087   2.347   7.517 -0.0093  0.3332 -0.4910
58848SOL    HW186858   0.003   2.332   7.474  0.8333 -0.1824 -2.0264
58848SOL    HW286859   0.065   2.401   7.593 -1.8551 -0.6738 -0.2401
58849SOL     OW86860   6.614   6.030   8.921  0.1736  0.2356 -0.1126
58849SOL    HW186861   6.553   6.085   8.969 -1.3799 -0.2089 -1.4857
58849SOL    HW286862   6.635   5.959   8.981 -0.3061  0.6187  0.5238
58850SOL     OW86863  12.287   5.583   1.484  0.5230  0.0277  0.0046
58850SOL    HW186864  12.206   5.600   1.435  0.5297 -1.5891 -0.6582
58850SOL    HW286865  12.292   5.487   1.488  2.8700  0.0450 -0.8123
58851SOL     OW86866   1.213   7.323   2.906 -0.1422  0.1651  0.2695
58851SOL    HW186867   1.130   7.331   2.859  0.6288 -0.4528 -1.2872
58851SOL    HW286868   1.246   7.237   2.882  1.5883  0.9270 -0.2903
58852SOL     OW86869   3.857   4.939   4.545 -0.0744 -0.4819 -0.8573
58852SOL    HW186870   3.817   4.938   4.632 -1.2329  0.0188 -1.3636
58852SOL    HW286871   3.877   5.031   4.528 -0.1491 -0.5366 -1.2591
58853SOL     OW86872   4.103   5.335   2.204 -0.5703 -0.3924  0.2637
58853SOL    HW186873   4.011   5.310   2.214 -0.2128 -1.4897  0.9813
58853SOL    HW286874   4.136   5.341   2.293 -0.2140  1.1600  0.0592
58854SOL     OW86875  12.289   3.220   7.360 -0.5199  0.2730  0.1428
58854SOL    HW186876  12.233   3.237   7.436  0.3544 -1.2857  1.1938
58854SOL    HW286877  12.327   3.134   7.377  0.5254  0.3462 -1.5799
58855SOL     OW86878  12.818   1.677   9.894 -0.0567  0.0593 -0.3699
58855SOL    HW186879  12.861   1.596   9.869  0.0278  0.0437 -0.1742
58855SOL    HW286880  12.887   1.730   9.933  0.2861  0.9239 -2.0628
58856SOL     OW86881   2.511  12.594   3.656 -0.6631  0.4959 -0.0569
58856SOL    HW186882   2.565  12.670   3.679 -2.2833  2.2989 -1.7497
58856SOL    HW286883   2.566  12.543   3.597  0.7648 -0.1836  1.7683
58857SOL     OW86884   4.217  11.581   3.213  0.4879  0.0839 -0.4692
58857SOL    HW186885   4.180  11.501   3.251 -1.5769  0.7987 -0.8573
58857SOL    HW286886   4.228  11.640   3.287 -2.3968  1.0418 -0.6764
58858SOL     OW86887   1.849   2.048   2.224  0.4225 -0.0838  0.3720
58858SOL    HW186888   1.865   2.012   2.137 -1.9322 -0.3769 -0.0243
58858SOL    HW286889   1.763   2.089   2.218 -0.0207 -0.4964  2.6527
58859SOL     OW86890  11.081  12.671   8.176 -0.0766  0.6242  0.0381
58859SOL    HW186891  11.081  12.657   8.271  0.8202 -0.8450 -0.1425
58859SOL    HW286892  11.121  12.592   8.141 -1.2205  0.7438 -1.6385
58860SOL     OW86893   8.168  11.751   8.313 -0.6549 -0.0944  0.2480
58860SOL    HW186894   8.214  11.703   8.382 -0.9733 -0.0350  0.5014
58860SOL    HW286895   8.092  11.790   8.357  1.1672  3.2436  0.7893
58861SOL     OW86896   7.308   6.821   6.499  0.7684  0.1850 -0.3527
58861SOL    HW186897   7.387   6.847   6.452  0.9061 -0.8050 -0.6881
58861SOL    HW286898   7.331   6.739   6.543 -0.2615 -0.4655 -0.9895
58862SOL     OW86899  12.764  11.927   9.883  0.1687  0.3456  0.0363
58862SOL    HW186900  12.771  11.980   9.962  0.3793  0.6470 -0.1809
58862SOL    HW286901  12.812  11.976   9.816  0.6901 -0.3057 -0.0785
58863SOL     OW86902   1.566   8.391   2.327 -0.3339 -0.0772  0.7548
58863SOL    HW186903   1.655   8.390   2.291  1.2122 -1.6542  4.1630
58863SOL    HW286904   1.531   8.304   2.308  0.1440 -0.5987  2.2037
58864SOL     OW86905  11.090   5.077   0.173  0.1933  0.1230  0.4934
58864SOL    HW186906  11.139   5.158   0.185 -0.4909  0.7946 -1.0141
58864SOL    HW286907  11.001   5.099   0.202 -0.1353  0.1173 -0.4671
58865SOL     OW86908   3.456  10.029   6.051  0.4301  0.1717  0.1910
58865SOL    HW186909   3.528  10.087   6.026  1.2659 -1.5371 -1.5454
58865SOL    HW286910   3.397  10.030   5.976  0.7159 -1.6011 -0.0827
58866SOL     OW86911   9.113  11.705   1.521  0.1528 -0.1770 -0.0693
58866SOL    HW186912   9.145  11.658   1.598  1.5033 -0.8965 -1.0304
58866SOL    HW286913   9.024  11.672   1.508 -0.6055  0.8971  1.8874
58867SOL     OW86914   5.099   1.137   4.392 -0.1473  0.4648  0.2821
58867SOL    HW186915   5.022   1.194   4.400 -0.5292  0.0437 -0.3612
58867SOL    HW286916   5.167   1.194   4.356 -0.1411  0.8432  0.8712
58868SOL     OW86917  10.296   5.847   5.543 -0.4452  0.6429 -0.0506
58868SOL    HW186918  10.391   5.846   5.559 -0.3374 -1.2956 -0.5570
58868SOL    HW286919  10.272   5.755   5.540 -2.4726  1.1117  0.6304
58869SOL     OW86920  10.938  10.730  12.639 -0.2316 -0.0364  0.1325
58869SOL    HW186921  10.999  10.665  12.605 -0.7185 -1.0024  1.0144
58869SOL    HW286922  10.991  10.787  12.695  0.4790  1.2686 -1.7786
58870SOL     OW86923   1.619   2.085  12.918 -0.4784 -0.0832 -0.1322
58870SOL    HW186924   1.594   2.150  12.851 -0.9456 -0.8930 -0.7677
58870SOL    HW286925   1.595   2.126  13.001  0.5441  1.1330 -0.4150
58871SOL     OW86926  11.007   5.399   3.685  0.0695  0.6381 -0.5264
58871SOL    HW186927  10.933   5.345   3.657 -0.8804  0.7884  1.5498
58871SOL    HW286928  10.968   5.466   3.741  1.3500  2.9619 -2.2461
58872SOL     OW86929   0.985   0.577  11.234  0.0978 -0.1809 -0.0329
58872SOL    HW186930   0.961   0.513  11.167 -1.2306 -0.3813  0.5929
58872SOL    HW286931   0.986   0.527  11.315  1.0594  0.1885  0.1926
58873SOL     OW86932   5.831   6.764   5.304  0.3473  0.1346 -0.1944
58873SOL    HW186933   5.755   6.708   5.322 -0.2773  1.0056 -0.0651
58873SOL    HW286934   5.900   6.729   5.361  0.4269 -1.4176 -1.1803
58874SOL     OW86935   0.968  10.715   9.050 -0.4879 -0.5019 -0.1149
58874SOL    HW186936   1.048  10.727   9.101  0.2272  1.2471 -1.5535
58874SOL    HW286937   0.965  10.620   9.033  1.5896 -0.5529 -0.4712
58875SOL     OW86938  11.134   4.414   8.563  0.4820  0.1896 -0.8218
58875SOL    HW186939  11.128   4.417   8.658 -0.7007 -2.1707 -0.7552
58875SOL    HW286940  11.228   4.412   8.544  0.7218  0.5884  0.2723
58876SOL     OW86941   3.197  11.394   4.558  0.4756  0.6807  0.0657
58876SOL    HW186942   3.231  11.420   4.473  0.8194  1.3633  0.4081
58876SOL    HW286943   3.114  11.349   4.538  0.8476  0.3064 -0.6605
58877SOL     OW86944  10.849  10.033   0.087 -0.2143  0.0559 -0.1682
58877SOL    HW186945  10.826  10.071   0.003  0.2426  0.5971 -0.0532
58877SOL    HW286946  10.771  10.045   0.141 -0.5440 -0.3854 -0.5365
58878SOL     OW86947   5.986  12.901  12.134  0.2878  0.1899 -0.2703
58878SOL    HW186948   5.958  12.946  12.055  0.5761  2.7162  0.9802
58878SOL    HW286949   6.009  12.971  12.195 -0.2667 -1.6250  2.1878
58879SOL     OW86950  10.982   5.299   9.404 -0.0302  0.5760 -0.5058
58879SOL    HW186951  10.958   5.347   9.325 -1.2364 -2.8458 -2.4546
58879SOL    HW286952  11.076   5.281   9.393 -0.6791 -2.2923 -2.8675
58880SOL     OW86953  12.176   1.258  11.045  0.0883  0.2533  0.2581
58880SOL    HW186954  12.245   1.205  11.085 -0.8468  0.1616  1.8527
58880SOL    HW286955  12.104   1.197  11.032  0.7107  0.0228 -2.7158
58881SOL     OW86956  12.337   1.769  10.279  0.1296 -0.6956  0.5168
58881SOL    HW186957  12.331   1.731  10.366 -1.7178 -1.1388  0.2331
58881SOL    HW286958  12.254   1.814  10.266  1.1672  1.1372 -0.2498
58882SOL     OW86959   2.111   9.511   2.924  0.0405 -0.2644 -0.2424
58882SOL    HW186960   2.087   9.600   2.898  1.1098  0.0787 -0.1126
58882SOL    HW286961   2.100   9.510   3.019  1.7532  0.3232  0.0054
58883SOL     OW86962  11.397   4.258  11.334  0.0144  0.1773  0.4221
58883SOL    HW186963  11.327   4.228  11.391  0.3327  0.5542  1.0114
58883SOL    HW286964  11.352   4.284  11.253 -0.3179 -1.4271  0.0590
58884SOL     OW86965   0.168   4.492   9.782 -0.2598  0.2030 -0.3994
58884SOL    HW186966   0.235   4.560   9.790 -0.2274  0.2053 -0.6820
58884SOL    HW286967   0.158   4.459   9.871 -1.3050  1.5330  0.0055
58885SOL     OW86968   5.616   8.453   9.610  0.2825  0.2663 -0.0767
58885SOL    HW186969   5.634   8.518   9.543 -1.3907  1.1184  0.2488
58885SOL    HW286970   5.521   8.458   9.624  0.3011 -1.3167  0.9051
58886SOL     OW86971   6.865  12.906   7.025  0.5960  0.0321  0.0922
58886SOL    HW186972   6.887  12.992   6.990 -1.3314  1.0898  1.2668
58886SOL    HW286973   6.815  12.864   6.956  2.5940 -0.7201 -0.9739
58887SOL     OW86974   1.215   8.537   6.538 -0.6670 -0.4908 -0.5775
58887SOL    HW186975   1.155   8.551   6.464 -0.9474  0.1152 -0.2414
58887SOL    HW286976   1.235   8.625   6.570 -0.1957 -0.7284 -0.2071
58888SOL     OW86977  10.589   8.793   7.783 -0.0787 -0.4116  0.0748
58888SOL    HW186978  10.602   8.885   7.757  0.2398 -0.9581 -1.8929
58888SOL    HW286979  10.675   8.765   7.813 -0.3370  0.1030  1.3535
58889SOL     OW86980   3.193   4.188  12.656  0.0924 -0.3159 -0.2774
58889SOL    HW186981   3.202   4.215  12.748 -0.3074 -1.0186 -0.0249
58889SOL    HW286982   3.118   4.238  12.623 -1.4100 -1.9289  0.5285
58890SOL     OW86983   5.166   2.875  11.892 -0.0033  0.1636  0.0475
58890SOL    HW186984   5.101   2.856  11.824 -0.6806  2.3240  0.0053
58890SOL    HW286985   5.165   2.798  11.949 -1.0081 -0.7734 -1.1836
58891SOL     OW86986  12.860  11.789   9.454 -0.3473 -0.0121 -0.2152
58891SOL    HW186987  12.774  11.826   9.474  0.1896  1.5633 -0.7263
58891SOL    HW286988  12.916  11.864   9.438  1.0653 -1.0239 -0.2333
58892SOL     OW86989  12.351   9.565  11.255 -0.7434  0.1248 -0.4444
58892SOL    HW186990  12.271   9.522  11.225 -0.2263  0.0824 -1.8648
58892SOL    HW286991  12.419   9.535  11.195  0.1022  1.0883 -0.0152
58893SOL     OW86992   9.839   3.693  11.725 -0.5063 -0.4631  0.0934
58893SOL    HW186993   9.877   3.706  11.639  0.1173 -1.1639  0.2576
58893SOL    HW286994   9.766   3.755  11.729 -0.2507 -0.1052 -0.7550
58894SOL     OW86995   9.669   9.704  10.937  0.0867  0.0821 -0.2922
58894SOL    HW186996   9.734   9.764  10.900  0.3591 -2.0035 -3.6765
58894SOL    HW286997   9.595   9.709  10.875 -0.9213 -1.1766  0.7587
58895SOL     OW86998   7.467   0.595   1.024  0.5720  0.8721 -0.0686
58895SOL    HW186999   7.418   0.581   1.105  0.2720  1.7142 -0.0916
58895SOL    HW287000   7.551   0.551   1.039  0.0651 -0.0114  0.2210
58896SOL     OW87001   5.074  10.770   3.048  0.2514 -0.2123  0.3824
58896SOL    HW187002   5.003  10.706   3.047 -2.1318  2.2354  1.2341
58896SOL    HW287003   5.107  10.768   3.138 -0.7986  0.7208  0.8006
58897SOL     OW87004  11.975   6.263   4.129 -0.3203 -0.4650 -0.1422
58897SOL    HW187005  11.915   6.335   4.111  0.8707  0.6087  0.0044
58897SOL    HW287006  12.034   6.262   4.054  0.5487 -0.3461  0.5191
58898SOL     OW87007  10.426   5.580   8.337  0.9894 -0.6706 -0.0511
58898SOL    HW187008  10.367   5.644   8.297  1.1329  1.2752  2.5715
58898SOL    HW287009  10.514   5.611   8.316  1.0600 -0.5946  0.3452
58899SOL     OW87010   5.221   6.185   4.606  0.2319  0.3163 -0.2846
58899SOL    HW187011   5.235   6.147   4.519  0.8904 -1.1249  0.4211
58899SOL    HW287012   5.309   6.203   4.639  0.1526 -1.5970  1.1106
58900SOL     OW87013  12.814   1.620   1.719  0.8134  0.1386  0.1904
58900SOL    HW187014  12.887   1.682   1.718  0.8655  0.1010 -1.7046
58900SOL    HW287015  12.736   1.674   1.706  0.8517 -0.1360 -1.3709
58901SOL     OW87016   6.692   5.210   3.565 -0.0952  0.2950  0.2486
58901SOL    HW187017   6.761   5.216   3.499 -0.5139 -0.0674 -0.2374
58901SOL    HW287018   6.614   5.243   3.521  0.0432  2.0445  1.2393
58902SOL     OW87019   5.643   2.938   6.203 -0.3171 -0.4754 -0.0490
58902SOL    HW187020   5.571   2.875   6.206  0.8695 -1.8420  1.0404
58902SOL    HW287021   5.649   2.973   6.292  1.2241 -1.4326  0.2543
58903SOL     OW87022  12.190  11.076   4.024 -0.3502  0.9012 -0.5641
58903SOL    HW187023  12.213  11.169   4.029  0.7156  0.6893 -1.1716
58903SOL    HW287024  12.094  11.075   4.023 -0.5411  1.7515  3.2726
58904SOL     OW87025   9.437   8.779   1.001  0.3981 -0.0727 -0.1500
58904SOL    HW187026   9.487   8.722   1.060 -0.1861 -0.4514 -0.0082
58904SOL    HW287027   9.396   8.720   0.939  0.3684  0.2583 -0.4484
58905SOL     OW87028   8.325   9.416   6.483 -0.1905  0.0642 -0.3480
58905SOL    HW187029   8.368   9.486   6.533  1.3403  0.4893 -2.1213
58905SOL    HW287030   8.232   9.437   6.487 -0.1250  0.1366  2.1451
58906SOL     OW87031   3.345   7.541   5.748 -0.2746  0.3861  0.1817
58906SOL    HW187032   3.411   7.609   5.740  0.5127 -0.2847  0.7710
58906SOL    HW287033   3.269   7.584   5.788  0.0979  0.9820  0.2445
58907SOL     OW87034   2.794  11.924   3.995 -0.1366  0.4520 -0.8035
58907SOL    HW187035   2.779  11.855   3.931  0.4092 -1.1275  0.6866
58907SOL    HW287036   2.889  11.934   3.998 -0.1224  0.0932  0.1641
58908SOL     OW87037   2.401   8.655  11.898 -0.4864 -0.3568  0.7011
58908SOL    HW187038   2.474   8.672  11.958  0.6500 -2.6034  0.0581
58908SOL    HW287039   2.411   8.722  11.829 -0.7414  1.1013  2.0309
58909SOL     OW87040   7.822   4.818   3.049  0.2176  0.4398 -0.1060
58909SOL    HW187041   7.841   4.839   2.957 -1.2403 -0.4294 -0.6442
58909SOL    HW287042   7.798   4.725   3.048 -1.1595  0.7511  0.9234
58910SOL     OW87043   1.066   6.037   7.504 -0.0556 -0.2708  0.0161
58910SOL    HW187044   1.160   6.022   7.490  0.1493  0.0957  0.9337
58910SOL    HW287045   1.025   6.010   7.421  0.8336 -0.6302 -0.3232
58911SOL     OW87046   0.901   2.673  10.410 -0.5524  0.5412  0.0011
58911SOL    HW187047   0.933   2.613  10.342 -0.6573  0.3319  0.1380
58911SOL    HW287048   0.841   2.621  10.463 -1.0793  0.9149 -0.2129
58912SOL     OW87049  12.239   4.035  11.959 -1.0071  0.0534 -0.2535
58912SOL    HW187050  12.157   4.082  11.950 -1.1265 -0.3615 -1.4696
58912SOL    HW287051  12.228   3.983  12.039 -0.5475  2.6493  1.6292
58913SOL     OW87052   2.350   3.083   1.374  0.2829 -0.3655 -0.4929
58913SOL    HW187053   2.422   3.136   1.341 -0.1216 -0.0424 -0.8763
58913SOL    HW287054   2.274   3.110   1.322 -0.0589 -0.8920 -0.2857
58914SOL     OW87055   5.954   2.494   3.737 -0.3655  0.4858  0.2441
58914SOL    HW187056   5.999   2.412   3.720 -1.8629 -0.2949 -0.1768
58914SOL    HW287057   5.892   2.474   3.807  0.5434  1.7642  1.4551
58915SOL     OW87058   7.814   2.346   8.615 -0.1205  0.0064 -0.3441
58915SOL    HW187059   7.809   2.360   8.520  3.2910 -1.2540 -0.8701
58915SOL    HW287060   7.885   2.403   8.643 -0.6287 -0.1563  1.3513
58916SOL     OW87061   2.441  11.916  11.646 -0.0768  0.3594  0.2873
58916SOL    HW187062   2.509  11.911  11.713  1.0732 -0.0726 -0.8681
58916SOL    HW287063   2.486  11.949  11.569 -1.0028 -0.6823 -0.7349
58917SOL     OW87064   2.007   0.391  12.958 -0.4645  0.0786  0.0454
58917SOL    HW187065   2.009   0.403  13.053 -2.0943 -0.9808  0.2524
58917SOL    HW287066   2.025   0.298  12.945  1.6138  0.5496 -0.8418
58918SOL     OW87067   2.809   2.786   3.688 -0.1417 -0.4850 -0.1437
58918SOL    HW187068   2.770   2.870   3.714 -1.1566 -0.7250 -0.8152
58918SOL    HW287069   2.755   2.720   3.732 -1.2712 -0.8627 -1.9843
58919SOL     OW87070  11.965   7.759   2.876  0.5838  0.0344 -0.2595
58919SOL    HW187071  12.021   7.820   2.828 -0.4767  0.3648 -1.1200
58919SOL    HW287072  11.935   7.809   2.952  0.7645  0.1393 -0.2559
58920SOL     OW87073   2.627   2.225   7.909 -0.0773  0.2819 -0.4420
58920SOL    HW187074   2.659   2.313   7.891  0.4617  0.5640  1.6057
58920SOL    HW287075   2.562   2.237   7.979 -1.0623 -0.8179 -1.1247
58921SOL     OW87076   1.093   5.955   8.251  0.8922 -0.0410 -0.1803
58921SOL    HW187077   1.178   5.924   8.220  0.3658 -1.6243 -0.1382
58921SOL    HW287078   1.058   5.883   8.302 -0.5529  0.5076 -0.3402
58922SOL     OW87079  11.165  12.246  10.284 -0.0580  0.3980  0.2260
58922SOL    HW187080  11.071  12.234  10.271  0.0855 -0.5704 -0.0236
58922SOL    HW287081  11.204  12.161  10.262  0.6120 -0.1114  2.9746
58923SOL     OW87082   3.630   8.015   1.423  0.4116  0.1837  0.5108
58923SOL    HW187083   3.714   8.059   1.411 -0.2148  1.2200 -0.1643
58923SOL    HW287084   3.621   7.960   1.345  0.7312 -0.3810  0.8695
58924SOL     OW87085  11.837   3.749   3.683 -0.4125 -0.0398 -0.0269
58924SOL    HW187086  11.892   3.827   3.676  1.1454 -1.0387  0.7208
58924SOL    HW287087  11.825   3.736   3.777  0.2890 -1.3354 -0.0951
58925SOL     OW87088   8.791  11.880   0.373 -0.4310  0.8464  0.3105
58925SOL    HW187089   8.710  11.834   0.349 -0.6792  0.3414  1.9712
58925SOL    HW287090   8.774  11.971   0.352  0.0535  0.2777 -3.0375
58926SOL     OW87091   7.086   2.493   7.829  0.6781  0.0575 -0.3180
58926SOL    HW187092   7.006   2.469   7.876  1.4272 -2.0407 -0.0187
58926SOL    HW287093   7.087   2.589   7.831 -1.6727  0.1298 -0.1052
58927SOL     OW87094  11.172   9.853  12.797  0.0861  0.3326 -0.1135
58927SOL    HW187095  11.139   9.882  12.882  0.0587  1.2596 -0.4347
58927SOL    HW287096  11.265   9.873  12.799  0.3585 -0.8767  0.1987
58928SOL     OW87097   2.936  12.611   2.440 -0.1587 -0.2847  0.2705
58928SOL    HW187098   2.928  12.698   2.480  1.2841 -0.6668  1.4840
58928SOL    HW287099   2.874  12.557   2.488  0.5361 -0.4130  1.0444
58929SOL     OW87100   3.104   2.823   7.305  0.7137  0.2345 -0.1127
58929SOL    HW187101   3.068   2.761   7.242 -0.5383  1.3235 -0.5162
58929SOL    HW287102   3.138   2.768   7.376 -0.5627 -0.9085 -0.3364
58930SOL     OW87103   7.021   0.818  10.835 -0.3037  0.3583  0.8120
58930SOL    HW187104   6.957   0.773  10.781 -0.6530  0.9845  0.6893
58930SOL    HW287105   6.972   0.842  10.914 -0.0293  0.2178  1.0266
58931SOL     OW87106   9.965   5.484  10.505  0.2596 -0.0154  0.3335
58931SOL    HW187107   9.934   5.517  10.421 -2.0267 -0.1062  1.0601
58931SOL    HW287108   9.964   5.389  10.496 -1.4908 -0.0922  0.8738
58932SOL     OW87109  11.542   2.845   9.383 -0.4890 -0.6154  0.3064
58932SOL    HW187110  11.610   2.873   9.321 -1.4630  0.7425 -0.1987
58932SOL    HW287111  11.494   2.776   9.337  0.3582 -1.4081  0.5707
58933SOL     OW87112  11.011   6.519   3.389 -0.0248 -0.1693 -0.6935
58933SOL    HW187113  11.079   6.454   3.374 -1.2196 -1.6988  0.1808
58933SOL    HW287114  10.936   6.488   3.337 -0.8678  0.0398  0.3511
58934SOL     OW87115   6.063   4.312   6.519 -0.9873 -0.3721 -0.1336
58934SOL    HW187116   6.016   4.390   6.549 -1.7499 -1.0773  0.5594
58934SOL    HW287117   6.100   4.274   6.599 -0.3653 -0.5563 -0.5027
58935SOL     OW87118  12.055  11.873   5.625  0.4212 -0.4535  0.4205
58935SOL    HW187119  12.051  11.823   5.706  1.2975 -0.8604  0.2238
58935SOL    HW287120  12.102  11.953   5.649  1.9898 -1.2157  0.0222
58936SOL     OW87121   1.849   6.084   4.429  0.3971  0.4520 -0.2168
58936SOL    HW187122   1.903   6.109   4.504  0.7405  0.1555 -0.3621
58936SOL    HW287123   1.815   6.167   4.396  0.8147  0.6495 -0.1631
58937SOL     OW87124   1.970   3.833  11.808  0.0664 -0.5550 -0.0774
58937SOL    HW187125   2.027   3.910  11.808  0.5899 -0.9395  0.0750
58937SOL    HW287126   1.994   3.785  11.887 -0.8658 -0.4321  0.2884
58938SOL     OW87127  10.568   8.888   7.468  0.3929 -0.3826  0.1739
58938SOL    HW187128  10.517   8.862   7.392  1.2567  0.6370 -0.7832
58938SOL    HW287129  10.625   8.958   7.437  1.6514 -0.7715  1.4591
58939SOL     OW87130   7.588   6.139   2.620  0.0587 -0.4018 -0.2927
58939SOL    HW187131   7.671   6.161   2.578  0.9253 -2.8856 -0.0985
58939SOL    HW287132   7.522   6.150   2.552  1.0029 -1.2901 -1.3992
58940SOL     OW87133   5.312  12.173   7.136  0.5139  0.1415 -0.0502
58940SOL    HW187134   5.314  12.235   7.209  1.0531 -0.3102  0.3265
58940SOL    HW287135   5.341  12.224   7.061 -0.9966  0.8778 -0.1774
58941SOL     OW87136  11.925  10.231   6.908  0.7493 -0.1815  0.2317
58941SOL    HW187137  11.953  10.206   6.996  0.3507  1.3846  0.8421
58941SOL    HW287138  12.006  10.234   6.857  0.8410 -2.3477  0.1803
58942SOL     OW87139   8.038   7.545   6.916  0.0164 -0.1859  1.0413
58942SOL    HW187140   8.057   7.537   7.009 -0.8741 -1.0860  1.1596
58942SOL    HW287141   7.944   7.560   6.912  0.1429  0.4967  0.3054
58943SOL     OW87142  12.901   8.812  11.616 -0.1395 -0.0030  0.1871
58943SOL    HW187143  12.852   8.800  11.535 -0.6503 -1.4480  0.6812
58943SOL    HW287144  12.838   8.794  11.686  0.5140  0.3570  0.8959
58944SOL     OW87145   6.724   1.025  12.668  0.5756  0.2093  0.2075
58944SOL    HW187146   6.696   0.992  12.582 -0.5497  2.6498 -0.4562
58944SOL    HW287147   6.786   0.959  12.700 -1.4783 -2.4476 -0.9505
58945SOL     OW87148  12.028   3.917  10.336  0.0493 -0.4484  0.1736
58945SOL    HW187149  12.006   4.009  10.318  1.8976  0.1751  0.7750
58945SOL    HW287150  11.956   3.885  10.390 -1.7516 -0.0720 -1.8842
58946SOL     OW87151   0.885  12.395   1.284 -0.1139 -0.8748 -0.0301
58946SOL    HW187152   0.804  12.442   1.304  0.6723  0.2025  0.7234
58946SOL    HW287153   0.954  12.460   1.297  1.0323 -2.2697  1.1993
58947SOL     OW87154  10.010   2.109   0.001 -0.3029 -0.3693  0.1954
58947SOL    HW187155  10.106   2.116   0.003 -0.4116  1.4108  1.1555
58947SOL    HW287156   9.984   2.119   0.092 -1.4662  0.5013 -0.2090
58948SOL     OW87157   1.443   4.175  11.556 -0.6537  0.2234 -0.0158
58948SOL    HW187158   1.492   4.093  11.546 -0.6222  0.2156  0.2007
58948SOL    HW287159   1.398   4.166  11.640 -0.4669  0.5276  0.1162
58949SOL     OW87160   1.898   2.910  12.984  0.6834 -0.0244 -0.3295
58949SOL    HW187161   1.854   2.856  13.050  0.4881 -0.7750 -1.0595
58949SOL    HW287162   1.966   2.956  13.034 -0.1726  0.2881  0.5973
58950SOL     OW87163   0.865   9.783   4.585 -0.1165  0.2471 -0.0302
58950SOL    HW187164   0.835   9.693   4.573 -1.3876  0.8976 -2.1645
58950SOL    HW287165   0.924   9.798   4.511 -0.1309  1.2711  0.1619
58951SOL     OW87166  12.676  12.237   6.042 -0.0267 -0.7809  0.5346
58951SOL    HW187167  12.586  12.246   6.074  0.2681  0.7342  1.0538
58951SOL    HW287168  12.688  12.312   5.983  1.5988  0.4716  2.3079
58952SOL     OW87169   0.105  10.444  11.393  0.7629  0.8789  0.4034
58952SOL    HW187170   0.200  10.445  11.386  0.8574  0.0593  1.4651
58952SOL    HW287171   0.083  10.357  11.425 -0.7746 -1.1223 -4.9954
58953SOL     OW87172   7.436   8.592   5.414  0.1055  0.1836  0.5678
58953SOL    HW187173   7.346   8.571   5.392 -0.2403  0.3091  1.7536
58953SOL    HW287174   7.434   8.686   5.436  0.7551  0.4562 -0.4761
58954SOL     OW87175  11.487   5.344   0.287  1.0345  0.1889  0.5922
58954SOL    HW187176  11.428   5.359   0.213 -0.0235  0.6033  1.4958
58954SOL    HW287177  11.430   5.311   0.356  2.2573 -1.7067  0.7604
58955SOL     OW87178   9.374   2.139   2.979  0.3023  0.0220 -0.1312
58955SOL    HW187179   9.425   2.140   3.060  1.1126  0.1640 -0.6368
58955SOL    HW287180   9.349   2.048   2.967 -0.4342  0.1064  0.6478
58956SOL     OW87181  12.910   0.925   5.808 -0.6112  0.3187  0.0339
58956SOL    HW187182  12.851   0.874   5.753 -1.6930  1.9477 -0.3976
58956SOL    HW287183  12.875   1.014   5.804  2.0595  1.4355 -0.4754
58957SOL     OW87184   3.896   9.699  11.441  0.1841  0.7005 -0.2674
58957SOL    HW187185   3.897   9.632  11.509 -1.0150  1.1788  0.2487
58957SOL    HW287186   3.826   9.671  11.382  1.3325  0.1936 -1.4338
58958SOL     OW87187   0.852   4.617  11.201 -0.3565  0.2368 -0.6482
58958SOL    HW187188   0.870   4.711  11.209 -1.7085  0.7046 -2.4957
58958SOL    HW287189   0.875   4.581  11.287  0.5450  2.1804 -0.0166
58959SOL     OW87190   0.173  12.842   8.991 -0.1000  0.1794 -0.7591
58959SOL    HW187191   0.135  12.760   9.023  0.1585  0.1243 -0.5915
58959SOL    HW287192   0.249  12.857   9.047  0.4808 -0.0213 -1.4619
58960SOL     OW87193   8.846  11.212  10.071  0.4019  0.2186  0.4170
58960SOL    HW187194   8.765  11.205  10.122  1.0368 -2.4610  1.2162
58960SOL    HW287195   8.817  11.231   9.982 -1.1246 -0.6797  0.6936
58961SOL     OW87196   6.215   6.520   5.783  0.4698  0.0385  0.3368
58961SOL    HW187197   6.137   6.464   5.784  0.2725  0.1482 -2.0087
58961SOL    HW287198   6.280   6.470   5.735  0.8529  1.1109 -0.3067
58962SOL     OW87199   9.591   5.900   3.884 -0.4749  0.1027 -0.1062
58962SOL    HW187200   9.548   5.815   3.884 -1.1561  0.4350 -0.2478
58962SOL    HW287201   9.679   5.883   3.849  0.3848 -0.9945  2.4094
58963SOL     OW87202   5.457  11.140   7.444  0.0281 -0.6704  0.3465
58963SOL    HW187203   5.453  11.145   7.348  0.4798 -1.7827  0.2561
58963SOL    HW287204   5.482  11.229   7.471 -0.9747 -0.1041 -0.4996
58964SOL     OW87205  11.476   0.760   3.941 -0.4531  1.0423 -0.4785
58964SOL    HW187206  11.467   0.667   3.920  1.3198  0.0489  2.5275
58964SOL    HW287207  11.396   0.782   3.988 -0.9022  1.0938 -1.2453
58965SOL     OW87208   0.043  12.148   9.890 -0.4823 -1.0108  0.2718
58965SOL    HW187209  -0.023  12.153   9.821 -0.5732  0.6090  0.4420
58965SOL    HW287210  -0.005  12.120   9.968 -0.9006 -0.2346  0.2998
58966SOL     OW87211   1.980   2.398  11.502  0.0137  0.4567  0.1275
58966SOL    HW187212   1.950   2.466  11.441  1.6688  0.9428 -0.2066
58966SOL    HW287213   2.073   2.418  11.515  0.4526 -1.5392  0.3153
58967SOL     OW87214   8.556   8.895  11.281  0.0325 -0.1830  0.1786
58967SOL    HW187215   8.509   8.913  11.200 -0.5748  0.1764  0.6032
58967SOL    HW287216   8.529   8.964  11.340  1.9710  0.7085  0.0961
58968SOL     OW87217  12.680   5.895   9.169  0.3242  0.2902 -0.2370
58968SOL    HW187218  12.606   5.933   9.121 -0.0087 -1.1405 -0.9056
58968SOL    HW287219  12.744   5.966   9.173 -0.0672  0.7876 -1.8772
58969SOL     OW87220   5.515   1.624   4.118 -0.1392  0.1031 -0.6162
58969SOL    HW187221   5.584   1.659   4.062  0.1979 -1.0473 -0.9588
58969SOL    HW287222   5.507   1.688   4.189 -0.1283  1.2522 -1.6168
58970SOL     OW87223   2.107   4.089   3.297 -0.1149  0.3349 -0.2810
58970SOL    HW187224   2.190   4.132   3.275 -0.8237  1.3304 -1.1420
58970SOL    HW287225   2.042   4.135   3.243 -1.1156 -0.9359 -0.1893
58971SOL     OW87226   9.827   7.243  11.610  0.3194  0.0309  0.9701
58971SOL    HW187227   9.839   7.193  11.691 -0.2062 -1.7216  0.0156
58971SOL    HW287228   9.740   7.282  11.620 -1.6567 -3.5425 -0.3215
58972SOL     OW87229   7.939   8.528   1.074  0.3141 -0.1137 -0.1409
58972SOL    HW187230   7.980   8.606   1.113 -0.3253 -0.9794  2.4992
58972SOL    HW287231   8.010   8.465   1.066  0.9185  0.7727 -2.6593
58973SOL     OW87232   5.528   1.680   9.394 -0.8402 -0.2822  0.0712
58973SOL    HW187233   5.597   1.656   9.456  0.0148  1.3507 -0.1959
58973SOL    HW287234   5.526   1.608   9.331 -0.1102 -0.8374  0.6638
58974SOL     OW87235  10.929   5.721   8.682  0.3661  0.8940  1.1825
58974SOL    HW187236  10.938   5.816   8.688 -1.3087  1.0771  1.3022
58974SOL    HW287237  10.836   5.706   8.668  0.7904 -0.6761 -0.4528
58975SOL     OW87238  10.351   3.170   0.063  0.1028  0.1670  0.3409
58975SOL    HW187239  10.368   3.077   0.081 -0.5375  0.0151  0.1730
58975SOL    HW287240  10.378   3.216   0.142 -0.9800 -0.3116  1.0043
58976SOL     OW87241   5.803  11.461  12.498 -0.0394 -0.0274 -0.1701
58976SOL    HW187242   5.872  11.430  12.439  1.1812  0.2437  1.0563
58976SOL    HW287243   5.742  11.388  12.505  0.7100 -0.6831 -0.4182
58977SOL     OW87244   0.524   7.371  10.619 -0.0709  0.5278 -0.3275
58977SOL    HW187245   0.537   7.303  10.685 -0.2681  0.5037 -0.3130
58977SOL    HW287246   0.436   7.405  10.636 -0.1904  0.4009 -0.6877
58978SOL     OW87247   4.873   7.039   2.681 -0.3495  0.2986 -0.1386
58978SOL    HW187248   4.931   7.086   2.742  2.4406 -1.8055 -0.9531
58978SOL    HW287249   4.843   7.106   2.620  2.1967  1.3498 -0.3405
58979SOL     OW87250  12.698   1.532  12.030 -0.1461 -0.2201  0.0577
58979SOL    HW187251  12.751   1.528  12.109 -1.1156 -1.1434  0.6936
58979SOL    HW287252  12.761   1.532  11.958  0.8082  1.7335  0.8086
58980SOL     OW87253   6.878  11.364   3.000 -0.1028 -0.2982  0.5125
58980SOL    HW187254   6.935  11.381   2.925 -0.1486 -1.5475  0.1872
58980SOL    HW287255   6.792  11.395   2.972  0.3110  1.2815  0.8804
58981SOL     OW87256  11.826  10.787   1.594  0.6787 -0.3175  0.7105
58981SOL    HW187257  11.778  10.739   1.527  1.2203 -0.0337  0.1122
58981SOL    HW287258  11.837  10.723   1.665 -0.0778 -0.5544  0.6253
58982SOL     OW87259   5.954   2.164   2.333 -0.4746  0.0017  0.1488
58982SOL    HW187260   5.925   2.073   2.329 -0.8458  0.1631 -2.0679
58982SOL    HW287261   5.884   2.214   2.291  0.8489  0.9633 -1.0151
58983SOL     OW87262   3.083  10.147  11.646  0.4248  0.2182  0.2534
58983SOL    HW187263   3.141  10.120  11.717 -0.8390 -0.4110  1.1010
58983SOL    HW287264   3.061  10.238  11.666  1.6276  0.6851 -0.4542
58984SOL     OW87265   3.694   9.404  12.608 -0.2824  0.3919 -0.2125
58984SOL    HW187266   3.738   9.375  12.528 -0.0121 -1.3777  0.5307
58984SOL    HW287267   3.614   9.447  12.577 -0.6248 -1.0275 -1.4215
58985SOL     OW87268  11.622   3.737  11.300  0.4951  0.4382  0.2017
58985SOL    HW187269  11.564   3.794  11.351 -2.6957 -2.7875  0.6214
58985SOL    HW287270  11.610   3.766  11.209 -0.4652  0.9437  0.4785
58986SOL     OW87271   9.879   2.295   2.663  0.2031  0.4006  0.1796
58986SOL    HW187272   9.941   2.322   2.731  0.3655  0.0053  0.1916
58986SOL    HW287273   9.794   2.324   2.696  0.3600  0.7789  0.2492
58987SOL     OW87274  12.334   3.738   0.019 -0.4009  0.7716 -0.2947
58987SOL    HW187275  12.329   3.770   0.109 -2.1450 -1.0446  0.3518
58987SOL    HW287276  12.259   3.680   0.011  1.0648 -1.0232 -2.1496
58988SOL     OW87277  10.786   5.622  10.605 -0.7880 -0.2233  0.0555
58988SOL    HW187278  10.870   5.596  10.644 -0.7661  0.1528  0.2617
58988SOL    HW287279  10.772   5.711  10.635 -2.5072 -1.1126  2.1288
58989SOL     OW87280   4.919   9.094   0.132 -0.2454  0.4476 -0.0693
58989SOL    HW187281   5.014   9.090   0.131 -0.1332 -0.7820  3.1614
58989SOL    HW287282   4.897   9.141   0.212 -2.2919 -1.1543  0.4192
58990SOL     OW87283   5.580   9.961   6.905 -0.0118 -0.3257 -0.0720
58990SOL    HW187284   5.668   9.991   6.880  0.0972 -0.6982 -0.1588
58990SOL    HW287285   5.597   9.890   6.967 -0.2731  0.2345  0.6497
58991SOL     OW87286  12.737   7.899   2.242 -0.5893 -0.1497  0.5165
58991SOL    HW187287  12.751   7.959   2.315 -1.6119  1.7507 -0.7785
58991SOL    HW287288  12.693   7.824   2.280  1.6502 -0.6414  2.3739
58992SOL     OW87289   7.785   4.494   6.125 -0.6503  0.0167 -0.2526
58992SOL    HW187290   7.744   4.510   6.040  0.0374  0.0391 -0.5877
58992SOL    HW287291   7.848   4.424   6.108 -0.9870 -0.4507  0.3908
58993SOL     OW87292  11.883   3.509  12.179 -0.2325 -0.1868  0.1095
58993SOL    HW187293  11.927   3.495  12.263  0.9908  0.8907 -0.3177
58993SOL    HW287294  11.869   3.421  12.144 -1.2988 -0.6857  1.6893
58994SOL     OW87295   4.043  12.802   5.179 -0.1777 -0.0280 -0.6860
58994SOL    HW187296   4.096  12.728   5.149 -0.0216  0.4342 -1.5802
58994SOL    HW287297   4.107  12.861   5.220 -0.3102 -0.4035  0.0804
58995SOL     OW87298   5.488   1.939   8.939 -0.0864  0.1090  0.0468
58995SOL    HW187299   5.575   1.908   8.914  1.4205  3.7567  0.2588
58995SOL    HW287300   5.481   1.916   9.032 -0.1254 -1.6566 -0.3476
58996SOL     OW87301  11.038   0.475   7.731  0.1067  0.1287 -0.2762
58996SOL    HW187302  11.062   0.519   7.649  0.5006 -1.9303 -1.3375
58996SOL    HW287303  10.944   0.461   7.725  0.0102  0.6590 -0.0181
58997SOL     OW87304  10.969   1.307  10.592  0.1013  0.2029 -0.9535
58997SOL    HW187305  11.030   1.368  10.634 -1.0999  0.2241  0.8508
58997SOL    HW287306  11.024   1.233  10.566  1.1179  0.8281 -0.6623
58998SOL     OW87307   3.158   7.416   2.445 -0.1828 -0.0842 -0.0811
58998SOL    HW187308   3.077   7.365   2.449 -0.3432 -0.0629 -1.9937
58998SOL    HW287309   3.225   7.357   2.480 -0.7914 -0.6125  0.2279
58999SOL     OW87310  12.573   0.056   3.811 -0.4614  0.1248  0.0551
58999SOL    HW187311  12.664   0.081   3.828 -0.0743 -1.2122  0.0530
58999SOL    HW287312  12.566  -0.033   3.845 -1.7156  0.1281 -0.1523
59000SOL     OW87313   5.356   5.079   3.819  0.1571 -0.0032  0.1268
59000SOL    HW187314   5.321   5.015   3.758 -0.4076  0.1331  0.3048
59000SOL    HW287315   5.449   5.087   3.795  0.4324 -1.4642  0.5923
59001SOL     OW87316   3.388   6.531  12.753 -0.3168  0.1661  0.1479
59001SOL    HW187317   3.295   6.545  12.772  0.0160  0.8685  1.3737
59001SOL    HW287318   3.423   6.490  12.831  0.1065 -1.6247 -0.9300
59002SOL     OW87319   3.727   0.926   7.650 -0.3448 -0.2592 -0.2180
59002SOL    HW187320   3.746   0.855   7.711 -0.6316 -0.6257 -0.5457
59002SOL    HW287321   3.766   0.897   7.567  0.4218  0.4316 -0.1089
59003SOL     OW87322  11.402   5.723  12.494  0.2137  0.4405 -0.1377
59003SOL    HW187323  11.441   5.807  12.471 -3.2981  2.6237  1.1000
59003SOL    HW287324  11.307   5.738  12.488 -0.5868 -3.6034 -0.2898
59004SOL     OW87325  10.079   2.423   9.326 -0.2561  0.7491 -0.0372
59004SOL    HW187326  10.160   2.473   9.315  0.5068 -0.1518  1.2192
59004SOL    HW287327  10.107   2.339   9.363 -1.6500 -0.0798 -0.7661
59005SOL     OW87328   1.500  12.381   3.774 -0.5623  0.7932 -0.5276
59005SOL    HW187329   1.519  12.431   3.694  3.3163 -0.2638 -0.4991
59005SOL    HW287330   1.454  12.303   3.742 -0.3891  1.0826 -1.5326
59006SOL     OW87331   4.223   0.553  11.114 -0.4377  0.7106  0.7486
59006SOL    HW187332   4.315   0.539  11.091 -1.1901  0.4889 -2.5300
59006SOL    HW287333   4.223   0.639  11.157  1.1991  1.1738 -0.0721
59007SOL     OW87334   2.793   7.514   7.028 -0.5576  0.5627 -0.4876
59007SOL    HW187335   2.843   7.522   7.109 -0.0162  0.3837 -0.7976
59007SOL    HW287336   2.859   7.511   6.959 -1.0250  3.8774 -1.2619
59008SOL     OW87337   7.177   0.774   8.148  0.3785  0.2647  0.3220
59008SOL    HW187338   7.232   0.777   8.227 -0.5508 -0.4636  1.0069
59008SOL    HW287339   7.217   0.707   8.093  0.7857  0.4845  0.3414
59009SOL     OW87340   3.461   7.012   2.548  0.1007 -0.4002  0.0990
59009SOL    HW187341   3.514   6.957   2.604  1.8635  1.6609  0.5988
59009SOL    HW287342   3.496   6.999   2.460 -0.0845 -0.7366  0.0752
59010SOL     OW87343   6.713   6.811   4.767 -0.1885  0.3000 -0.3275
59010SOL    HW187344   6.760   6.782   4.688  0.3994  0.0863  0.0929
59010SOL    HW287345   6.748   6.756   4.837 -0.1008  1.0439  0.2330
59011SOL     OW87346  11.002   7.849  12.207  0.5547  0.2247 -0.0348
59011SOL    HW187347  11.016   7.931  12.160  1.1552 -0.3942 -0.9947
59011SOL    HW287348  11.024   7.869  12.298  0.5802  1.1536 -0.2362
59012SOL     OW87349   4.254   0.192   2.240 -0.7699  0.0874 -0.0931
59012SOL    HW187350   4.249   0.210   2.146  2.8724  0.3070 -0.3767
59012SOL    HW287351   4.212   0.268   2.281 -0.7718  0.8973 -1.5262
59013SOL     OW87352   1.485  11.966   5.509 -0.1787 -0.1061  0.5836
59013SOL    HW187353   1.532  11.883   5.497  0.0165  0.1866 -0.8879
59013SOL    HW287354   1.553  12.029   5.532  0.2017  0.2737 -1.3533
59014SOL     OW87355  11.259   8.359   0.672 -0.5206 -0.5293 -0.2708
59014SOL    HW187356  11.309   8.395   0.599 -1.2584  1.7726  0.2972
59014SOL    HW287357  11.319   8.297   0.714  0.3498 -0.9440 -2.0232
59015SOL     OW87358  11.523  11.672  10.024 -0.7497 -0.5421  0.5468
59015SOL    HW187359  11.521  11.767  10.012 -0.2782 -0.6069 -0.1006
59015SOL    HW287360  11.541  11.637   9.937 -0.7237 -1.2203  0.8150
59016SOL     OW87361   4.650   6.509   6.040 -0.3089 -0.0112 -0.1004
59016SOL    HW187362   4.566   6.470   6.015  0.0997  0.1611 -1.8907
59016SOL    HW287363   4.715   6.442   6.016  0.1586  0.4072 -0.0153
59017SOL     OW87364   1.468  12.867  12.476  0.4308  0.0902 -0.1079
59017SOL    HW187365   1.523  12.791  12.493  1.6738  0.8391 -0.6094
59017SOL    HW287366   1.389  12.832  12.436  1.2928 -0.8835 -1.0209
59018SOL     OW87367   2.031   0.618   6.524  0.5355  0.3534 -0.1139
59018SOL    HW187368   1.946   0.574   6.532  0.4014  0.8835  1.7659
59018SOL    HW287369   2.009   0.709   6.505  0.6688  0.5263  0.5472
59019SOL     OW87370   1.670   1.721   5.346 -0.0030  0.1046  0.5252
59019SOL    HW187371   1.697   1.733   5.437  0.0332 -0.2202  0.5589
59019SOL    HW287372   1.621   1.800   5.325  0.7951  0.5986  0.5273
59020SOL     OW87373  10.678  12.478   8.201 -0.3728  0.1792  0.4421
59020SOL    HW187374  10.600  12.508   8.153 -0.8445 -0.2917  0.9032
59020SOL    HW287375  10.751  12.507   8.147 -0.8970 -1.5996 -1.3316
59021SOL     OW87376  12.615   4.933   8.023 -0.3512  0.2476  0.0103
59021SOL    HW187377  12.618   4.868   7.953  0.6761  1.1300 -0.8063
59021SOL    HW287378  12.626   5.017   7.978  0.9063  0.7953  1.2562
59022SOL     OW87379   1.559   2.293   8.876 -0.1681  0.0203  0.0442
59022SOL    HW187380   1.563   2.389   8.875 -0.9453  0.0705 -1.3452
59022SOL    HW287381   1.647   2.266   8.902  1.5027  1.1256 -3.7377
59023SOL     OW87382  11.497   2.454  10.479 -0.3383 -0.7154 -0.5194
59023SOL    HW187383  11.528   2.363  10.480  0.1467 -0.5500  0.3664
59023SOL    HW287384  11.437   2.458  10.404  1.1425 -1.2570 -1.7950
59024SOL     OW87385   6.115   8.461  12.421 -0.0755 -0.1586  0.1250
59024SOL    HW187386   6.185   8.524  12.405 -1.0012  0.9039  0.1261
59024SOL    HW287387   6.141   8.416  12.501  0.5144  0.3559  0.2352
59025SOL     OW87388  12.079   4.422   7.641  0.0566 -0.0446 -0.7597
59025SOL    HW187389  12.025   4.496   7.613 -0.9230 -1.1172 -1.7528
59025SOL    HW287390  12.075   4.360   7.569 -0.7547 -1.9437  0.8463
59026SOL     OW87391   7.591   9.696   6.382 -1.0386 -0.0670 -0.9511
59026SOL    HW187392   7.612   9.777   6.429 -0.8264 -1.2769  1.1732
59026SOL    HW287393   7.637   9.704   6.298  0.5360  1.2103 -0.0176
59027SOL     OW87394   5.434   8.042   7.768  0.1709 -0.2988 -0.2788
59027SOL    HW187395   5.374   8.073   7.835  0.1928  0.0325 -0.4077
59027SOL    HW287396   5.483   7.971   7.809  0.4085  0.1126  0.1581
59028SOL     OW87397   8.516   7.892   2.946 -0.2659 -0.1161  0.0780
59028SOL    HW187398   8.462   7.962   2.909  1.7773  1.2625 -0.4484
59028SOL    HW287399   8.542   7.840   2.870  1.0539  0.6304  0.0031
59029SOL     OW87400   8.100   4.977   7.175 -0.2262  0.4541 -0.6080
59029SOL    HW187401   8.110   4.897   7.123  0.2426  0.1066 -0.0021
59029SOL    HW287402   8.182   5.024   7.163  0.2547 -0.0579  0.5058
59030SOL     OW87403   2.606  11.193   3.942 -0.6749 -0.0899 -0.0883
59030SOL    HW187404   2.584  11.115   3.993  1.3547  0.6382  2.0378
59030SOL    HW287405   2.614  11.160   3.852 -0.6057 -2.1890  0.6315
59031SOL     OW87406  12.663   6.667   8.195 -0.2204 -0.3307  0.5707
59031SOL    HW187407  12.710   6.626   8.123 -0.7217 -1.7485  1.0181
59031SOL    HW287408  12.572   6.668   8.167 -0.2081  0.5599  0.5389
59032SOL     OW87409   9.519  12.780  10.242  0.4023  0.1178  0.3202
59032SOL    HW187410   9.607  12.802  10.209 -0.0996 -0.4975 -1.5819
59032SOL    HW287411   9.485  12.864  10.274  1.4810  0.4700  0.6105
59033SOL     OW87412  12.015  12.694   6.302 -0.0922  0.0067 -0.2950
59033SOL    HW187413  12.052  12.749   6.232 -1.0132  1.1235  0.0852
59033SOL    HW287414  12.042  12.737   6.383  0.8085 -1.1833  0.0575
59034SOL     OW87415   0.933   5.505   7.343  0.0464 -0.3051  0.0958
59034SOL    HW187416   0.966   5.465   7.262  1.5943 -1.4238  1.2093
59034SOL    HW287417   1.009   5.551   7.379 -1.0988  1.6858  0.0544
59035SOL     OW87418   0.328   4.635   0.221  0.0030  0.4089 -0.5340
59035SOL    HW187419   0.291   4.586   0.147 -0.3908  0.1069 -0.1429
59035SOL    HW287420   0.311   4.727   0.199 -0.3672  0.3059 -0.6885
59036SOL     OW87421   4.851   6.294  10.765  0.0529 -0.3378 -0.2921
59036SOL    HW187422   4.882   6.249  10.686 -0.7032 -0.6682 -0.4101
59036SOL    HW287423   4.929   6.339  10.799  0.3311  0.0408 -1.3798
59037SOL     OW87424   2.080   2.737  11.160  0.9122 -0.3972 -0.0157
59037SOL    HW187425   2.174   2.746  11.176  0.8889 -0.4867  0.1729
59037SOL    HW287426   2.048   2.827  11.153  0.8949 -0.3459  0.6105
59038SOL     OW87427   9.542   1.805   0.774 -0.7721  0.3512 -0.0976
59038SOL    HW187428   9.469   1.834   0.828 -0.1733  0.1644  0.8372
59038SOL    HW287429   9.569   1.722   0.814 -0.0232  0.4429 -0.3989
59039SOL     OW87430  10.653  11.713   5.916 -0.3998 -0.2736  0.5855
59039SOL    HW187431  10.583  11.697   5.979 -0.3608 -0.2950  0.6246
59039SOL    HW287432  10.724  11.750   5.969 -0.4319 -0.1264  0.5233
59040SOL     OW87433   5.194   5.670   7.217  0.4221 -0.3085  0.5841
59040SOL    HW187434   5.160   5.663   7.306 -1.3974 -0.2766 -0.0437
59040SOL    HW287435   5.267   5.608   7.214  1.0818  0.3258  2.3064
59041SOL     OW87436   2.400  11.326  10.448  0.0996 -0.4365  0.0890
59041SOL    HW187437   2.462  11.255  10.465  1.9160  0.4932 -2.0901
59041SOL    HW287438   2.326  11.307  10.505  0.5202 -4.0094 -0.2848
59042SOL     OW87439   3.852   9.796   0.858  0.3679  0.4222  0.4261
59042SOL    HW187440   3.811   9.758   0.781  0.6122  1.2786 -0.1426
59042SOL    HW287441   3.901   9.724   0.898  0.0863 -0.0709 -0.1042
59043SOL     OW87442  12.308   9.596   2.857 -0.4269  0.2042  0.6269
59043SOL    HW187443  12.233   9.598   2.917 -0.2562  2.6129  0.8737
59043SOL    HW287444  12.276   9.639   2.778  0.5265  0.7645  0.5317
59044SOL     OW87445   9.595   9.948  12.076  0.4493 -0.2840 -0.2023
59044SOL    HW187446   9.520   9.964  12.134  0.5648  0.5988 -0.2817
59044SOL    HW287447   9.559   9.950  11.988  0.7499  1.5426 -0.3298
59045SOL     OW87448   2.186   2.099   6.967  0.2367 -0.3183  0.4415
59045SOL    HW187449   2.180   2.181   7.016 -0.7368  0.5528 -1.0744
59045SOL    HW287450   2.146   2.118   6.882  0.3929 -2.2423 -0.1140
59046SOL     OW87451  12.494   2.292   3.725 -0.1907  0.0476 -0.4103
59046SOL    HW187452  12.434   2.290   3.800 -1.4044 -1.3269 -1.3505
59046SOL    HW287453  12.490   2.383   3.694 -1.9379 -0.0277 -0.5145
59047SOL     OW87454  12.160   8.217  12.099 -0.0063  0.2764  0.6638
59047SOL    HW187455  12.135   8.129  12.071  1.3341  0.5658 -1.8069
59047SOL    HW287456  12.255   8.213  12.110  0.7671  2.1467 -3.3586
59048SOL     OW87457   6.216   1.893  10.224  0.8091 -0.3443  0.0826
59048SOL    HW187458   6.305   1.925  10.211  0.3184  0.9114 -0.2781
59048SOL    HW287459   6.172   1.962  10.273 -1.0235  0.8781 -2.9716
59049SOL     OW87460   9.825   1.724  11.282  0.6373  0.0935  0.5726
59049SOL    HW187461   9.888   1.652  11.287  1.4389  0.8548  1.9106
59049SOL    HW287462   9.758   1.702  11.346  0.2750 -0.0162  0.1616
59050SOL     OW87463  11.460  12.341   1.459  0.0220 -0.2225  0.1028
59050SOL    HW187464  11.550  12.363   1.483 -0.1066 -1.0245  1.4474
59050SOL    HW287465  11.450  12.249   1.484 -1.0882 -0.2189 -0.2631
59051SOL     OW87466   2.562   8.752   7.811 -0.0569 -0.6153  0.5517
59051SOL    HW187467   2.632   8.813   7.834  0.4151 -1.4858  1.4858
59051SOL    HW287468   2.554   8.694   7.887  0.9184 -2.9874 -1.0186
59052SOL     OW87469   9.190   0.876   7.810 -0.3037  0.1509 -0.0274
59052SOL    HW187470   9.133   0.885   7.734  0.0056  0.0958 -0.2692
59052SOL    HW287471   9.254   0.946   7.800 -1.7515  1.8260  1.5279
59053SOL     OW87472   0.976  12.471   3.980 -0.1073 -0.4695  0.3137
59053SOL    HW187473   0.903  12.464   4.041 -2.0617 -1.6345 -1.9797
59053SOL    HW287474   1.016  12.384   3.980  0.2386 -0.3092  0.3785
59054SOL     OW87475   6.859   4.367   3.121 -0.1943 -0.0353 -0.3980
59054SOL    HW187476   6.913   4.300   3.164 -1.3670 -1.1487 -0.5961
59054SOL    HW287477   6.785   4.318   3.084 -1.0910  1.3821 -0.5469
59055SOL     OW87478  12.899   3.524   1.166 -0.3503  0.3190 -0.1209
59055SOL    HW187479  12.853   3.532   1.250  0.3775  2.1440  0.1405
59055SOL    HW287480  12.941   3.439   1.170 -1.4820 -0.2323  0.7657
59056SOL     OW87481   4.147  10.807   5.106 -0.2602 -0.3128  0.7726
59056SOL    HW187482   4.180  10.805   5.016 -1.7103 -1.4345  0.2218
59056SOL    HW287483   4.219  10.842   5.158  0.4595  0.7539 -0.8811
59057SOL     OW87484  12.571   7.865   0.436 -0.6682 -0.4614  0.0004
59057SOL    HW187485  12.565   7.948   0.484 -0.0298 -0.6930  0.4966
59057SOL    HW287486  12.569   7.798   0.504 -2.1585 -0.9162 -0.4483
59058SOL     OW87487   0.573   7.791   9.850 -0.1717 -0.1290  0.2688
59058SOL    HW187488   0.529   7.792   9.765  0.9084  0.0658 -0.3040
59058SOL    HW287489   0.526   7.724   9.901 -1.1438  0.1077 -0.3007
59059SOL     OW87490  11.874   2.839   2.330 -0.2314 -0.4568 -0.0415
59059SOL    HW187491  11.901   2.747   2.319 -2.3605 -1.0273 -1.1542
59059SOL    HW287492  11.819   2.838   2.408 -0.1074 -0.0698  0.0503
59060SOL     OW87493  12.786   0.531   3.310 -0.5859 -0.0257 -0.3046
59060SOL    HW187494  12.869   0.486   3.330  0.3494  0.4658 -2.7627
59060SOL    HW287495  12.735   0.467   3.262 -1.4233 -0.1136  0.6634
59061SOL     OW87496  12.632   4.139  12.733  0.4222 -0.1202 -0.7337
59061SOL    HW187497  12.627   4.206  12.665  0.8196  0.7900  0.1213
59061SOL    HW287498  12.554   4.154  12.787  1.1768  0.4777  0.1997
59062SOL     OW87499   2.093   9.158   3.048  0.4351  0.0201  0.3084
59062SOL    HW187500   2.050   9.203   2.975  0.1157 -1.9448 -0.7919
59062SOL    HW287501   2.035   9.172   3.123 -0.1986  0.5306 -0.2704
59063SOL     OW87502   6.163   9.030   5.600 -0.1419  0.1425 -0.0645
59063SOL    HW187503   6.143   9.089   5.673  2.8685  0.2074  0.8772
59063SOL    HW287504   6.122   8.947   5.625 -0.9689  0.7361  0.6282
59064SOL     OW87505  12.829   9.432   7.689 -0.5224 -0.5331 -0.3177
59064SOL    HW187506  12.848   9.343   7.720 -2.9526 -0.9638  0.1626
59064SOL    HW287507  12.736   9.444   7.706  0.0525  2.8674  1.5262
59065SOL     OW87508   4.260  12.200   7.624 -0.3574 -0.1228 -0.1422
59065SOL    HW187509   4.268  12.265   7.554 -1.0820 -0.5659 -0.6610
59065SOL    HW287510   4.285  12.246   7.704  0.3995  0.4172 -0.6854
59066SOL     OW87511   0.455   6.796   5.643  0.0471 -0.7794  0.6801
59066SOL    HW187512   0.437   6.884   5.676 -0.5017 -0.7819  0.4031
59066SOL    HW287513   0.543   6.775   5.676  0.5113  0.1860  0.0815
59067SOL     OW87514   6.628   5.875   6.812 -0.7648 -0.0681 -0.4679
59067SOL    HW187515   6.722   5.866   6.795 -0.2195  1.2466  1.4689
59067SOL    HW287516   6.594   5.921   6.735  0.4287  0.5787 -0.6305
59068SOL     OW87517   2.366   1.153   0.373 -0.2074 -0.2017 -0.2810
59068SOL    HW187518   2.328   1.240   0.381 -1.0438 -0.6365  0.6857
59068SOL    HW287519   2.438   1.152   0.437 -0.3484 -0.2937 -0.1226
59069SOL     OW87520   3.017   6.837   5.520 -0.4404 -0.7206  0.6520
59069SOL    HW187521   3.031   6.872   5.432  1.4022 -0.3611  1.0418
59069SOL    HW287522   2.960   6.901   5.562  0.2922  0.1824  0.3195
59070SOL     OW87523   1.294   0.486   3.272  0.3084  0.0417 -0.5058
59070SOL    HW187524   1.366   0.504   3.332 -1.0063  0.5689  0.9963
59070SOL    HW287525   1.308   0.396   3.243  0.7071 -0.4253  1.0424
59071SOL     OW87526  12.058   2.000  12.916 -0.3672 -0.2491 -0.0081
59071SOL    HW187527  12.128   1.974  12.856 -1.1650  0.2445 -1.1978
59071SOL    HW287528  11.978   1.986  12.867 -0.9960  1.2181  0.5329
59072SOL     OW87529  12.520   5.543   3.889 -0.1472  0.3069 -0.3798
59072SOL    HW187530  12.589   5.480   3.868  0.8733  1.3867 -0.4197
59072SOL    HW287531  12.566   5.627   3.894 -1.0681  0.7527  1.8292
59073SOL     OW87532   4.923  10.707   3.767 -0.1498  0.3505 -0.6267
59073SOL    HW187533   4.860  10.723   3.697 -0.9532 -1.5992 -0.4061
59073SOL    HW287534   4.890  10.631   3.813  0.1833  1.7062  2.1062
59074SOL     OW87535   9.426   0.606   9.451 -0.3015 -0.2867  0.2729
59074SOL    HW187536   9.453   0.516   9.469 -0.9278 -0.6573 -0.5828
59074SOL    HW287537   9.488   0.660   9.499 -0.2975 -1.1845  1.3042
59075SOL     OW87538   5.058   7.463  10.538 -0.3736 -0.3066  0.0763
59075SOL    HW187539   4.983   7.521  10.553  2.3448  3.9018 -0.9324
59075SOL    HW287540   5.079   7.475  10.446  0.9543 -2.2268  0.0728
59076SOL     OW87541  11.126   7.441   6.285  0.4604  0.1033 -0.2630
59076SOL    HW187542  11.098   7.378   6.218  0.2706 -1.3891  1.1478
59076SOL    HW287543  11.203   7.483   6.248  1.5387 -2.0889 -0.6693
59077SOL     OW87544  11.401   3.601  12.089  0.8023 -0.2469  0.3922
59077SOL    HW187545  11.400   3.607  12.184  1.2319 -0.8185  0.4412
59077SOL    HW287546  11.439   3.515  12.071  3.6938  1.0446 -0.3133
59078SOL     OW87547   6.789   8.266   0.082 -0.1516 -0.1863  0.0032
59078SOL    HW187548   6.735   8.275   0.160  1.0094  1.6973  0.6675
59078SOL    HW287549   6.837   8.184   0.094 -0.0286  0.0579  1.2641
59079SOL     OW87550  12.308   7.603  10.955  0.4905 -0.5228 -0.1900
59079SOL    HW187551  12.301   7.546  10.879 -1.6646 -0.5944  0.0092
59079SOL    HW287552  12.322   7.543  11.028  1.0803 -0.5661 -0.3351
59080SOL     OW87553   8.463   0.093   6.727 -0.1889 -0.3234  0.0722
59080SOL    HW187554   8.458   0.050   6.641  0.4289 -0.5470  0.1424
59080SOL    HW287555   8.487   0.022   6.787  0.8542  0.1152  0.1870
59081SOL     OW87556  11.761   7.392   3.550  0.2578  0.0675  0.5713
59081SOL    HW187557  11.679   7.434   3.574  0.0966  0.0996 -0.0246
59081SOL    HW287558  11.819   7.407   3.625  0.7358  2.7485 -0.2356
59082SOL     OW87559   6.836   0.004   4.069 -0.8588  0.2094  0.1559
59082SOL    HW187560   6.896   0.026   3.997  1.1930 -1.2635  1.2841
59082SOL    HW287561   6.782  -0.066   4.034  1.5921 -2.0557  0.5522
59083SOL     OW87562   0.429   6.716  11.588 -0.5487 -0.1903 -0.5998
59083SOL    HW187563   0.463   6.659  11.519 -0.7046  0.7712 -1.5082
59083SOL    HW287564   0.346   6.676  11.613  0.1646 -1.3228  0.0512
59084SOL     OW87565   8.020  10.975   9.985  0.1062  0.4371  0.4086
59084SOL    HW187566   7.962  10.992  10.059  0.2524  1.1455  0.3583
59084SOL    HW287567   8.082  10.910  10.018  0.6604  1.3310  1.1527
59085SOL     OW87568  12.912  11.467   9.132 -0.1960  0.1555  0.3945
59085SOL    HW187569  12.871  11.420   9.204 -0.6120 -0.3935 -0.1874
59085SOL    HW287570  12.851  11.539   9.112 -1.5700 -1.3665 -1.2714
59086SOL     OW87571   6.486   7.295   4.717  0.3493 -0.0428 -0.5304
59086SOL    HW187572   6.509   7.213   4.672  1.1701 -0.2495  0.2229
59086SOL    HW287573   6.570   7.328   4.749  0.0676  1.3004 -1.1573
59087SOL     OW87574   4.094  11.076  11.270 -0.0596 -0.0763 -0.0267
59087SOL    HW187575   4.160  11.051  11.205 -0.5766 -1.5473 -0.0035
59087SOL    HW287576   4.018  11.023  11.250 -1.2570  1.5509 -0.0012
59088SOL     OW87577   6.729   8.949  11.217 -0.0075  0.4641  0.7319
59088SOL    HW187578   6.726   9.009  11.291 -1.2010  0.8898  0.3613
59088SOL    HW287579   6.740   9.005  11.140  0.4984  0.0788  0.5119
59089SOL     OW87580   4.136   4.281   4.823  0.2022  0.2575 -0.0771
59089SOL    HW187581   4.125   4.188   4.807 -0.8131  0.6091 -1.6090
59089SOL    HW287582   4.048   4.313   4.844 -0.0233  1.3386 -2.3904
59090SOL     OW87583   7.046  11.224   0.816  0.2251 -0.1402  0.4745
59090SOL    HW187584   7.012  11.297   0.867  0.7990 -0.6580  1.6539
59090SOL    HW287585   7.136  11.250   0.795 -0.5361  0.8700 -1.9251
59091SOL     OW87586   6.605  10.350   1.799 -0.0494 -0.0386 -0.2597
59091SOL    HW187587   6.610  10.255   1.810 -0.1003 -0.0504 -0.3435
59091SOL    HW287588   6.516  10.366   1.768 -0.8080  0.2294  1.8777
59092SOL     OW87589   6.777  11.411   8.196  0.6935  0.8920 -0.3792
59092SOL    HW187590   6.701  11.458   8.163 -0.1700  1.3415  2.0360
59092SOL    HW287591   6.822  11.474   8.252  0.4833 -0.5449  1.5414
59093SOL     OW87592   9.401   5.358   8.448  0.4489 -0.0292 -0.6464
59093SOL    HW187593   9.494   5.367   8.466 -0.0035 -1.2584  3.3489
59093SOL    HW287594   9.393   5.274   8.402  1.2385 -0.7604  0.5017
59094SOL     OW87595   9.232   1.628   0.123  1.1193 -0.3356  0.2284
59094SOL    HW187596   9.146   1.651   0.158  0.0244 -2.0784 -1.1677
59094SOL    HW287597   9.294   1.658   0.190 -0.6995 -1.0681  2.3510
59095SOL     OW87598   5.864   4.747   3.908  0.1243  0.2858 -0.2687
59095SOL    HW187599   5.878   4.702   3.824  2.1023  0.6754 -0.1982
59095SOL    HW287600   5.853   4.839   3.885  0.3580  0.3506 -0.1246
59096SOL     OW87601   7.822  10.797   9.051  0.0961  0.1092  0.5148
59096SOL    HW187602   7.788  10.886   9.065  0.9418  0.4201  0.6399
59096SOL    HW287603   7.751  10.752   9.005 -0.3345  0.8602  0.4151
59097SOL     OW87604  11.669   4.194  12.031  0.0945 -0.6186 -0.3850
59097SOL    HW187605  11.721   4.114  12.030 -0.1412 -0.7765 -0.0113
59097SOL    HW287606  11.630   4.198  11.944  0.9324 -0.3613 -0.7654
59098SOL     OW87607  10.948  11.882   3.811  0.4652 -0.3898 -0.0274
59098SOL    HW187608  10.943  11.972   3.779  0.6855  0.2479  1.6172
59098SOL    HW287609  10.860  11.847   3.800  0.4097 -0.0234 -0.8082
59099SOL     OW87610   6.810   7.937   9.443 -0.4577  0.3523 -0.9332
59099SOL    HW187611   6.820   7.898   9.356 -1.9252 -0.8522 -0.6166
59099SOL    HW287612   6.820   7.864   9.504 -1.1409  0.8456 -0.1975
59100SOL     OW87613   2.058   1.971   7.324 -0.0390 -0.0645  0.0787
59100SOL    HW187614   2.143   2.014   7.316 -0.7862  1.8314  1.6520
59100SOL    HW287615   1.995   2.038   7.298 -1.1104 -1.3351 -0.7512
59101SOL     OW87616   5.398   2.084  12.763 -0.3004 -0.3798  0.7859
59101SOL    HW187617   5.372   2.149  12.828 -0.0033  0.6077 -0.0562
59101SOL    HW287618   5.494   2.080  12.770  0.0317  1.6949 -1.3265
59102SOL     OW87619   7.901   1.397   0.701 -0.0982  0.1121  0.4875
59102SOL    HW187620   7.985   1.382   0.744  1.1176 -1.4513 -2.1836
59102SOL    HW287621   7.847   1.322   0.728 -0.0800  0.2296  0.8660
59103SOL     OW87622   5.966   8.688   8.448 -0.1525 -0.0745  0.0759
59103SOL    HW187623   5.979   8.598   8.418  0.8816  0.0258  0.1950
59103SOL    HW287624   6.005   8.690   8.535 -1.7402  0.0469  0.8127
59104SOL     OW87625   8.935   2.896   2.382 -0.3914 -0.1507  0.2464
59104SOL    HW187626   8.945   2.951   2.304  0.5269 -0.5464  0.0686
59104SOL    HW287627   9.017   2.908   2.430 -1.8801  2.0193  2.4491
59105SOL     OW87628   8.680   4.731   6.843 -0.3237 -0.4860  0.0036
59105SOL    HW187629   8.750   4.698   6.786  0.3416 -0.7928  0.9663
59105SOL    HW287630   8.599   4.708   6.798  0.1114 -3.0397  0.3888
59106SOL     OW87631   9.587  12.315   2.784 -0.7194 -0.3027 -0.2935
59106SOL    HW187632   9.597  12.344   2.875 -2.4346 -0.2635 -0.0868
59106SOL    HW287633   9.677  12.300   2.754 -0.0640  0.5588  1.1117
59107SOL     OW87634  11.645  11.696   5.027 -0.1183  0.0096 -0.3148
59107SOL    HW187635  11.690  11.619   5.065  1.6951  1.0132 -0.3045
59107SOL    HW287636  11.666  11.692   4.934 -0.1453  0.4161 -0.3375
59108SOL     OW87637  10.966   3.255  12.296 -0.1651 -0.3518 -0.0662
59108SOL    HW187638  10.969   3.349  12.313  3.7265 -0.7615  2.7996
59108SOL    HW287639  10.984   3.247  12.202 -1.9554  1.6836 -0.6598
59109SOL     OW87640   0.537   3.806  10.079  0.3673  0.0895 -0.7207
59109SOL    HW187641   0.506   3.795   9.990 -0.5899 -1.1195 -0.2658
59109SOL    HW287642   0.553   3.900  10.088 -1.1177  0.4515 -1.6482
59110SOL     OW87643  10.744   8.371   3.261 -0.3185  0.0812  0.3627
59110SOL    HW187644  10.671   8.424   3.230 -0.1578  0.7060  1.0101
59110SOL    HW287645  10.738   8.289   3.211  1.1235  1.7441 -2.9109
59111SOL     OW87646   8.651   9.465   8.638 -0.2809 -0.3517  0.4750
59111SOL    HW187647   8.660   9.548   8.684  0.2597  0.5631 -1.2000
59111SOL    HW287648   8.561   9.466   8.605 -0.0910 -0.1672 -0.0368
59112SOL     OW87649   2.077   1.343   5.549 -0.1247  0.5849 -0.1691
59112SOL    HW187650   1.995   1.384   5.519  1.0335  0.8275 -3.2664
59112SOL    HW287651   2.064   1.250   5.534 -0.2617  0.4765  0.5624
59113SOL     OW87652   3.160   9.288   5.729  0.1742  0.5014 -0.5230
59113SOL    HW187653   3.099   9.238   5.674  0.8673 -2.6715  1.3114
59113SOL    HW287654   3.246   9.269   5.692  0.5392 -0.7050  0.8133
59114SOL     OW87655   0.685   2.668   0.563 -0.4658  0.3012  0.2562
59114SOL    HW187656   0.705   2.722   0.640  1.3741 -0.2293  0.2039
59114SOL    HW287657   0.605   2.706   0.527 -0.4478  1.5888  1.4820
59115SOL     OW87658   9.657   3.083   8.692  0.6023  0.0077  0.2420
59115SOL    HW187659   9.695   3.029   8.622 -1.0446 -1.0682  0.1265
59115SOL    HW287660   9.563   3.066   8.687  0.2577  1.3438  1.5481
59116SOL     OW87661   7.241   1.202  11.765 -0.0066 -0.2617 -0.3492
59116SOL    HW187662   7.275   1.142  11.832  0.0390  0.4990  0.3190
59116SOL    HW287663   7.201   1.274  11.815 -2.1096 -0.8273 -1.1124
59117SOL     OW87664   1.598   8.688   3.367 -0.1353  0.5207  0.1962
59117SOL    HW187665   1.552   8.650   3.442 -0.2363 -0.2082 -0.2235
59117SOL    HW287666   1.690   8.685   3.390 -0.0219 -1.1688 -0.3236
59118SOL     OW87667   4.020   1.269  10.836 -0.1609 -0.2663  0.2234
59118SOL    HW187668   3.942   1.262  10.781 -2.1336 -1.4052  2.9323
59118SOL    HW287669   3.987   1.301  10.920  2.9037  2.9040  0.4751
59119SOL     OW87670   7.838   0.795   7.579 -0.1569 -0.1739 -0.6333
59119SOL    HW187671   7.842   0.711   7.626  1.5400  1.3039  2.0813
59119SOL    HW287672   7.746   0.820   7.585 -0.3994 -1.1111 -0.1143
59120SOL     OW87673   4.932  11.725   3.454 -0.0952 -0.4153 -0.1952
59120SOL    HW187674   4.903  11.811   3.483 -1.4327 -0.8256 -0.2193
59120SOL    HW287675   5.023  11.720   3.481 -0.0321  0.9506 -0.0793
59121SOL     OW87676   5.553   4.097   2.683  0.0709 -0.1268 -0.7014
59121SOL    HW187677   5.629   4.145   2.650 -0.4586  0.8074 -0.5861
59121SOL    HW287678   5.486   4.164   2.696 -1.0292 -1.0328 -1.5290
59122SOL     OW87679  12.435   5.754  12.471 -0.6937 -0.1180  0.0313
59122SOL    HW187680  12.500   5.771  12.539 -2.0991  0.0230  1.4000
59122SOL    HW287681  12.459   5.814  12.400  0.5538  0.0581  0.5716
59123SOL     OW87682  10.375   4.496   9.312 -0.2472 -0.0233  0.5348
59123SOL    HW187683  10.358   4.429   9.378  0.5074 -0.4490  0.3101
59123SOL    HW287684  10.405   4.573   9.362  0.4690 -0.3927  0.6856
59124SOL     OW87685   2.938   2.391   0.314  0.2848  0.6920  0.3415
59124SOL    HW187686   2.869   2.423   0.373 -0.3352  0.3605 -0.1924
59124SOL    HW287687   2.893   2.327   0.258  1.5093 -1.3038  1.5201
59125SOL     OW87688  10.739  11.771  11.210 -0.2314  0.1237 -0.5858
59125SOL    HW187689  10.650  11.801  11.190 -1.0364 -2.0001 -0.5771
59125SOL    HW287690  10.784  11.847  11.245 -1.4212  1.7846 -2.4688
59126SOL     OW87691   8.798   9.855  10.630  0.7506 -0.3147 -0.0570
59126SOL    HW187692   8.740   9.865  10.706  1.8956 -1.1367  0.9475
59126SOL    HW287693   8.861   9.927  10.638  1.0894 -0.6125 -0.0354
59127SOL     OW87694   5.658  12.984   6.981 -0.6054 -0.6496  0.6617
59127SOL    HW187695   5.615  13.069   6.971 -1.5255 -1.2323 -0.5725
59127SOL    HW287696   5.587  12.921   6.991  0.0343 -1.3643  0.8287
59128SOL     OW87697  10.156  10.387  12.425 -0.0122  0.5497  0.7221
59128SOL    HW187698  10.219  10.417  12.359  1.3040  1.2700  2.2293
59128SOL    HW287699  10.184  10.431  12.506 -0.6564 -1.4308  2.0833
59129SOL     OW87700   5.606   6.180   7.809  0.2801 -0.1848 -0.1241
59129SOL    HW187701   5.590   6.273   7.795 -1.1336 -0.4942 -0.7843
59129SOL    HW287702   5.653   6.151   7.731  1.2833  0.0941  0.3693
59130SOL     OW87703   2.011   0.372   4.055 -0.2292 -0.6925  0.4848
59130SOL    HW187704   1.983   0.441   4.116 -0.2304 -1.0551  0.8916
59130SOL    HW287705   2.038   0.420   3.977 -2.0159 -0.3004  0.0476
59131SOL     OW87706  10.580   5.986   9.299 -0.5384  0.1765 -0.7346
59131SOL    HW187707  10.508   5.961   9.242 -0.1242  0.2158 -1.2834
59131SOL    HW287708  10.559   5.947   9.384 -1.8993  1.3457 -0.5055
59132SOL     OW87709   5.262   5.680   8.890  0.1458 -0.4379 -0.2318
59132SOL    HW187710   5.296   5.708   8.805  0.7378 -0.6716 -0.0804
59132SOL    HW287711   5.338   5.682   8.948 -0.3620  0.2466  0.4309
59133SOL     OW87712   2.829   0.931   7.041  0.2376 -0.2002  0.6456
59133SOL    HW187713   2.856   0.842   7.017  1.5447  0.0898  0.9612
59133SOL    HW287714   2.761   0.953   6.978  1.0414 -0.8249 -0.4737
59134SOL     OW87715   1.829  10.211   0.108  0.0460  0.4368  0.0208
59134SOL    HW187716   1.901  10.262   0.145  0.6220 -0.8883  0.8313
59134SOL    HW287717   1.771  10.194   0.183  2.0442 -3.6735  0.9125
59135SOL     OW87718   0.847   0.845   6.473  0.1840  0.4066 -0.0040
59135SOL    HW187719   0.810   0.918   6.522 -1.5147  0.1910 -0.8897
59135SOL    HW287720   0.815   0.767   6.518  0.8732  0.1994  0.1403
59136SOL     OW87721  12.630   8.611   1.954  0.0700  0.0184  0.1863
59136SOL    HW187722  12.639   8.651   2.040  0.4260 -1.7035  0.9866
59136SOL    HW287723  12.667   8.523   1.964  2.2342  0.5236 -2.3345
59137SOL     OW87724  10.095   8.762   6.566  0.2847 -0.1355 -0.3310
59137SOL    HW187725  10.178   8.756   6.519  1.0142  2.7071  0.4065
59137SOL    HW287726  10.035   8.805   6.504 -0.6934 -2.1007 -0.8328
59138SOL     OW87727   4.983   8.054   2.939  0.4517  0.0255  0.9738
59138SOL    HW187728   5.064   8.105   2.943  2.3817 -2.8478  3.6776
59138SOL    HW287729   4.981   8.020   2.850  1.4401  1.2825  0.4310
59139SOL     OW87730   4.375   0.758   1.891  0.2166 -0.2866 -0.0762
59139SOL    HW187731   4.369   0.663   1.891 -1.5866 -0.2542 -2.2793
59139SOL    HW287732   4.460   0.776   1.851  0.1317 -0.9781 -0.5878
59140SOL     OW87733   6.776  10.236   7.778  1.0289 -0.0052 -0.3809
59140SOL    HW187734   6.819  10.224   7.863 -1.2583  0.2802  0.9125
59140SOL    HW287735   6.773  10.148   7.740  0.2051 -0.5607  0.8683
59141SOL     OW87736  12.811   5.150   2.170  0.5686  0.2832  0.1267
59141SOL    HW187737  12.824   5.203   2.248 -2.2172  0.9810  0.2143
59141SOL    HW287738  12.721   5.119   2.176 -0.1174  1.1545 -3.2351
59142SOL     OW87739   3.191  12.262   0.429 -0.4395  0.1770 -0.4936
59142SOL    HW187740   3.280  12.242   0.460 -0.4782  0.3070 -0.2992
59142SOL    HW287741   3.177  12.201   0.357 -0.0745  0.3598 -0.7234
59143SOL     OW87742   9.592   1.331   2.666 -0.5146 -0.3628  0.4416
59143SOL    HW187743   9.517   1.283   2.704 -0.5267 -1.1278 -0.5209
59143SOL    HW287744   9.668   1.276   2.686 -0.4012 -0.3130  0.1493
59144SOL     OW87745   7.873  12.210   0.248 -0.2823  0.0479 -0.7695
59144SOL    HW187746   7.946  12.171   0.202  0.5492 -0.0678  0.5812
59144SOL    HW287747   7.885  12.184   0.340 -1.8356  0.2901 -0.4568
59145SOL     OW87748  11.943   8.560   9.802 -0.0853 -0.3907  0.0421
59145SOL    HW187749  11.921   8.467   9.799 -1.0573 -0.1536 -0.8318
59145SOL    HW287750  11.941   8.583   9.895 -0.0375 -1.1888  0.2475
59146SOL     OW87751  10.107   3.239   2.611 -0.3261 -0.5313 -0.2309
59146SOL    HW187752  10.177   3.281   2.661 -0.3428 -2.6616  1.7049
59146SOL    HW287753  10.135   3.248   2.519  0.6439  1.8070  0.2180
59147SOL     OW87754   6.739   8.564   5.481 -0.2332  0.0624 -0.2748
59147SOL    HW187755   6.649   8.598   5.477 -1.0689 -2.0818 -1.1744
59147SOL    HW287756   6.781   8.598   5.403  0.0443  1.7460  0.5577
59148SOL     OW87757   9.580   6.165   7.047  0.1440 -0.0110 -0.1945
59148SOL    HW187758   9.568   6.138   6.956 -0.9056 -0.0391 -0.0567
59148SOL    HW287759   9.672   6.190   7.052  0.5619 -1.2711 -0.9299
59149SOL     OW87760  12.835   5.122   0.252 -0.2423 -0.4019  0.1128
59149SOL    HW187761  12.909   5.181   0.256 -0.0028 -0.7641  1.6670
59149SOL    HW287762  12.787   5.148   0.173  1.4876 -0.1342 -0.8822
59150SOL     OW87763   3.024  12.544   9.243 -0.0264  0.0374  0.1981
59150SOL    HW187764   2.990  12.509   9.325  1.0035 -2.0537 -0.1981
59150SOL    HW287765   3.110  12.578   9.265 -0.7185  1.7607  0.4233
59151SOL     OW87766   6.880   4.443   6.981 -0.0148  0.6355  0.3115
59151SOL    HW187767   6.949   4.428   6.916  0.7875  2.4140  0.7009
59151SOL    HW287768   6.798   4.438   6.931  0.5323  0.9352 -0.6341
59152SOL     OW87769   3.445   8.632   6.828 -0.1389  0.1602 -0.1720
59152SOL    HW187770   3.496   8.660   6.752  1.5812 -0.1071  0.8301
59152SOL    HW287771   3.477   8.686   6.900 -0.1619 -1.0860  0.8112
59153SOL     OW87772   3.429   9.635   2.650  0.0738 -0.0512  0.0874
59153SOL    HW187773   3.466   9.654   2.736  1.9889  3.4468 -1.2855
59153SOL    HW287774   3.362   9.703   2.637  0.5684  0.1670 -1.5669
59154SOL     OW87775   0.513   8.570   8.404  0.0964  0.0604  0.2318
59154SOL    HW187776   0.598   8.553   8.444  0.1504  0.3997  0.2659
59154SOL    HW287777   0.499   8.664   8.417  0.2147  0.2265 -0.7272
59155SOL     OW87778   3.932   3.305  11.920  0.1876  0.2659  1.0871
59155SOL    HW187779   3.939   3.210  11.915  1.6735  0.3936  0.2128
59155SOL    HW287780   3.908   3.333  11.832 -0.1128  0.7258  1.3038
59156SOL     OW87781   5.919   7.973   6.107 -0.4227  0.8636 -0.0786
59156SOL    HW187782   5.842   8.026   6.091 -0.0540  1.2803 -0.4927
59156SOL    HW287783   5.963   8.015   6.180  0.0066  1.2923 -0.5730
59157SOL     OW87784   2.718  10.290   7.549 -0.3522  0.2426  0.1644
59157SOL    HW187785   2.793  10.288   7.609 -1.4907 -2.6569  1.7055
59157SOL    HW287786   2.652  10.342   7.595 -0.7641 -0.8755  0.8695
59158SOL     OW87787   1.392  10.951   3.425 -0.6069 -0.0892 -0.2675
59158SOL    HW187788   1.316  10.930   3.479 -0.1829  1.5293  1.0295
59158SOL    HW287789   1.373  10.910   3.340 -1.9467 -1.4738  0.6580
59159SOL     OW87790  11.103   4.033   2.940 -0.2498  0.4076  0.5798
59159SOL    HW187791  11.070   4.056   3.027 -1.6569 -0.6746  0.3664
59159SOL    HW287792  11.047   3.960   2.911  0.6456  0.2740 -0.9364
59160SOL     OW87793   1.242   8.652  12.682 -0.1459  0.3576 -0.0324
59160SOL    HW187794   1.323   8.610  12.652 -0.8423 -0.8416 -0.3071
59160SOL    HW287795   1.217   8.709  12.610 -1.1225 -1.5418 -1.2701
59161SOL     OW87796   7.356   3.517  12.950 -0.3155  0.1142 -0.3194
59161SOL    HW187797   7.410   3.501  13.027 -2.0705  1.1557  1.1986
59161SOL    HW287798   7.346   3.431  12.909 -1.4812 -1.0210  2.1170
59162SOL     OW87799  11.138  12.056   7.179  0.4624  0.1365  0.3231
59162SOL    HW187800  11.067  11.996   7.202  0.7882  0.0374  1.1346
59162SOL    HW287801  11.114  12.139   7.219  0.6315  0.1947  0.3078
59163SOL     OW87802   3.371   0.795   8.935  0.3516  0.2329 -0.0889
59163SOL    HW187803   3.382   0.708   8.975  0.8060  0.7317  0.9325
59163SOL    HW287804   3.300   0.785   8.873  0.1765 -0.7947  0.2646
59164SOL     OW87805  10.596   7.370   0.321 -0.4258  0.4361  0.5468
59164SOL    HW187806  10.666   7.369   0.386 -0.0927 -1.5972  0.2028
59164SOL    HW287807  10.515   7.366   0.372 -0.2822  1.6898  0.9027
59165SOL     OW87808   3.229   5.435   4.402 -0.4402 -0.1117  0.7013
59165SOL    HW187809   3.261   5.380   4.475 -1.5266 -0.1247  1.1880
59165SOL    HW287810   3.203   5.372   4.335  1.1056 -0.0873  0.0320
59166SOL     OW87811   5.418  11.332   9.044 -0.0006 -0.5190 -0.3508
59166SOL    HW187812   5.404  11.238   9.053 -0.0500 -0.4784  0.0320
59166SOL    HW287813   5.374  11.370   9.120 -3.3690  0.1433 -2.4425
59167SOL     OW87814   9.906   6.773   5.198  0.2180  0.1860  0.0960
59167SOL    HW187815   9.979   6.737   5.248  0.5176  0.0159 -0.4654
59167SOL    HW287816   9.881   6.852   5.246  0.0308 -0.3586  0.9267
59168SOL     OW87817   2.984   7.356   8.845  0.2400 -0.3860  0.4803
59168SOL    HW187818   3.040   7.279   8.839 -0.2048 -0.8016  1.4262
59168SOL    HW287819   2.895   7.323   8.833  0.1032  0.1094  0.0756
59169SOL     OW87820   2.581   1.118   0.543 -0.2238  0.6470 -0.4377
59169SOL    HW187821   2.588   1.153   0.631  0.6451 -1.5384  0.4466
59169SOL    HW287822   2.666   1.136   0.503 -0.1739  0.5389 -0.3808
59170SOL     OW87823   4.768   4.610  11.693 -0.0424 -0.2200 -0.0895
59170SOL    HW187824   4.780   4.651  11.608  0.4305  0.7883  0.4399
59170SOL    HW287825   4.856   4.589  11.723 -0.0950  0.5621  0.6670
59171SOL     OW87826   6.144   3.129   2.251  0.5673  0.6581  0.2744
59171SOL    HW187827   6.070   3.098   2.304  0.3331 -1.7079 -1.2940
59171SOL    HW287828   6.204   3.055   2.247  1.7542  1.6304 -0.7134
59172SOL     OW87829   8.940   6.706   9.216  0.2896 -0.5699  0.0062
59172SOL    HW187830   9.022   6.725   9.261 -0.4921  2.0830  0.4726
59172SOL    HW287831   8.911   6.791   9.182 -2.2184 -1.4409 -0.2187
59173SOL     OW87832   1.515  10.389   1.292 -0.1297 -0.3800 -0.1415
59173SOL    HW187833   1.579  10.439   1.343 -0.6462  0.1129  0.0319
59173SOL    HW287834   1.451  10.454   1.263 -0.2489 -0.7775 -0.7888
59174SOL     OW87835   0.278  10.711  11.541 -0.4722 -0.2784 -0.0864
59174SOL    HW187836   0.191  10.691  11.575 -0.6583  1.6053  0.6700
59174SOL    HW287837   0.318  10.767  11.608 -0.0708  1.9087 -2.0085
59175SOL     OW87838   3.572   9.854   0.810 -0.4344  0.1334 -0.3062
59175SOL    HW187839   3.509   9.818   0.872 -0.6129  1.3448  0.2432
59175SOL    HW287840   3.577   9.947   0.832 -0.4553  0.5913 -2.0627
59176SOL     OW87841   5.702  10.549   8.130  0.5835  0.2190 -0.6186
59176SOL    HW187842   5.626  10.597   8.163 -0.1335 -2.4347  1.9602
59176SOL    HW287843   5.769  10.561   8.198  0.8963 -1.1350 -0.6640
59177SOL     OW87844   8.938   5.207   2.724 -0.4152  0.5587 -0.5654
59177SOL    HW187845   8.874   5.204   2.795  0.5990  1.7076  0.4311
59177SOL    HW287846   8.911   5.283   2.671 -0.4968  0.3962 -0.7590
59178SOL     OW87847   7.695   2.297   2.919  0.8587  0.2080  0.3041
59178SOL    HW187848   7.688   2.351   2.997  1.1844 -0.4485  0.8039
59178SOL    HW287849   7.614   2.313   2.870  1.5155  2.1701 -0.2554
59179SOL     OW87850  12.478   7.576   3.348 -0.0548 -0.0142  0.4651
59179SOL    HW187851  12.531   7.502   3.377  1.0552  0.8143  0.6170
59179SOL    HW287852  12.447   7.616   3.429  0.5883  0.5521  0.4416
59180SOL     OW87853  12.063   5.278  10.171  0.3577 -0.0756  0.0601
59180SOL    HW187854  12.130   5.271  10.103 -0.5431 -4.0848 -0.7069
59180SOL    HW287855  12.108   5.318  10.245  3.0113 -0.6902 -1.0917
59181SOL     OW87856   5.222   9.081   2.224  0.1490  0.7446 -0.2160
59181SOL    HW187857   5.215   9.103   2.131 -1.5276  0.4877 -0.1858
59181SOL    HW287858   5.237   9.164   2.268  3.9723  0.5821 -0.8929
59182SOL     OW87859   2.735   9.203   6.987 -0.2813  0.3256 -0.5570
59182SOL    HW187860   2.676   9.174   6.917 -2.2938  0.3133  1.0376
59182SOL    HW287861   2.730   9.299   6.983 -1.2392  0.3231  0.1884
59183SOL     OW87862   2.898   2.756  10.177 -0.6189  0.1822  0.4529
59183SOL    HW187863   2.850   2.691  10.126 -1.5885  1.3778 -0.2045
59183SOL    HW287864   2.841   2.776  10.251 -0.3233  0.2687  0.6586
59184SOL     OW87865  12.884   0.772  10.869 -0.0226  0.4621  0.5406
59184SOL    HW187866  12.861   0.749  10.779  0.5911  0.1251  0.4653
59184SOL    HW287867  12.873   0.690  10.918 -0.5311  0.6870  0.8114
59185SOL     OW87868  12.328   1.440   3.764 -0.5018  0.8729 -0.8386
59185SOL    HW187869  12.421   1.422   3.750 -0.3983 -0.6539  1.2869
59185SOL    HW287870  12.286   1.355   3.752 -1.3121  1.0744  0.4113
59186SOL     OW87871   9.850  10.215   5.420  0.3610  0.4137 -0.1471
59186SOL    HW187872   9.765  10.182   5.389 -0.7899  1.5181  1.6452
59186SOL    HW287873   9.907  10.139   5.418 -0.0376  0.0862 -3.3724
59187SOL     OW87874   8.900  11.513   8.638  0.3628 -0.1337  0.1743
59187SOL    HW187875   8.851  11.437   8.669  1.1576 -0.5420  0.4637
59187SOL    HW287876   8.989  11.481   8.627  0.3964  0.3754 -1.1953
59188SOL     OW87877   9.943   4.364   2.967 -0.0878  0.7620 -0.2931
59188SOL    HW187878   9.917   4.273   2.984  1.2523  0.0937 -1.5943
59188SOL    HW287879   9.876   4.417   3.011 -1.6770 -0.8484 -0.6607
59189SOL     OW87880   3.731   6.271   3.725 -0.1073 -0.0887  0.0182
59189SOL    HW187881   3.793   6.314   3.667 -0.5071  1.0359  0.3993
59189SOL    HW287882   3.683   6.210   3.669  0.7020 -0.2964 -0.4637
59190SOL     OW87883   3.486  11.129  11.105  0.4014  0.1142  0.6202
59190SOL    HW187884   3.464  11.147  11.196 -1.1037  1.5890  0.0359
59190SOL    HW287885   3.575  11.096  11.107  0.6719  0.8415  2.5536
59191SOL     OW87886   5.737   8.794   5.712  0.5109 -0.4858  0.2315
59191SOL    HW187887   5.803   8.847   5.666  1.3471  0.7683  2.6950
59191SOL    HW287888   5.782   8.713   5.734  1.9550  0.9737  3.2990
59192SOL     OW87889   9.760   8.350   4.972 -0.7212  0.1718  0.1239
59192SOL    HW187890   9.830   8.414   4.960 -0.1896 -0.6351 -1.3285
59192SOL    HW287891   9.680   8.403   4.979 -0.2915  1.0181 -1.0704
59193SOL     OW87892  10.454   4.501   5.760 -0.3587  0.1886 -0.5141
59193SOL    HW187893  10.377   4.449   5.782 -1.1825  1.5025 -0.2246
59193SOL    HW287894  10.481   4.540   5.842 -0.9651  1.8127 -1.0603
59194SOL     OW87895   0.869  10.227  12.881 -0.1205 -0.4320  0.2878
59194SOL    HW187896   0.867  10.157  12.816 -0.6564 -1.0115  0.9207
59194SOL    HW287897   0.779  10.235  12.911 -0.0117  0.3389  0.4265
59195SOL     OW87898   2.781   4.120   3.246  0.4624  0.0494 -0.2741
59195SOL    HW187899   2.748   4.066   3.175  1.4155 -0.3505 -0.4245
59195SOL    HW287900   2.868   4.084   3.266  0.7822  1.0200  0.1562
59196SOL     OW87901  11.110   6.544   4.570 -0.4843 -0.0060  0.1246
59196SOL    HW187902  11.125   6.634   4.599 -0.4836 -0.0859  0.3775
59196SOL    HW287903  11.030   6.549   4.519 -0.7404  0.0623  0.5243
59197SOL     OW87904  12.227   0.357   4.834  0.8280  0.1575  0.0707
59197SOL    HW187905  12.151   0.326   4.784  1.2661  1.2141 -1.2969
59197SOL    HW287906  12.233   0.450   4.814  1.5103  0.4488  1.4885
59198SOL     OW87907  12.219   0.471   5.425 -0.1637 -0.2151 -0.3494
59198SOL    HW187908  12.196   0.483   5.517 -2.0390 -0.2663 -0.7691
59198SOL    HW287909  12.216   0.376   5.412  0.8227 -0.2609 -0.3090
59199SOL     OW87910   3.515  12.645   6.515  0.1218  0.3600 -0.1781
59199SOL    HW187911   3.525  12.608   6.603  1.5965 -1.2494 -0.9601
59199SOL    HW287912   3.584  12.603   6.463 -2.2376 -0.7232 -2.7145
59200SOL     OW87913   3.855   2.228   6.405  0.2011  0.9508  0.4691
59200SOL    HW187914   3.814   2.185   6.480 -0.8065  0.1294 -0.5105
59200SOL    HW287915   3.787   2.285   6.370  0.2671  0.4830 -0.4624
59201SOL     OW87916   3.441   4.890   1.758  0.1841  0.3847 -0.0896
59201SOL    HW187917   3.353   4.873   1.791  0.6478 -1.1190  0.4819
59201SOL    HW287918   3.428   4.934   1.674 -1.0728  1.4975  0.6561
59202SOL     OW87919   5.200   9.930   9.098 -0.2779  0.0797  0.6247
59202SOL    HW187920   5.130   9.983   9.059  0.5963  0.2583 -0.7994
59202SOL    HW287921   5.161   9.844   9.111 -0.8086  0.2170 -0.0123
59203SOL     OW87922   6.705   3.453   2.110  0.6468 -0.1463  0.6501
59203SOL    HW187923   6.613   3.436   2.094  0.8875 -1.8536  0.8574
59203SOL    HW287924   6.707   3.531   2.164 -0.6816 -0.1682  0.7457
59204SOL     OW87925   0.226  11.265   7.319 -0.2209  0.0341 -0.1636
59204SOL    HW187926   0.206  11.173   7.332 -0.0954 -0.0215 -0.3616
59204SOL    HW287927   0.184  11.288   7.236 -0.6108  0.2654  0.0890
59205SOL     OW87928   2.297  10.368   1.578  0.2448  0.0225  0.2823
59205SOL    HW187929   2.353  10.292   1.589  2.0772  1.2839  0.0299
59205SOL    HW287930   2.245  10.348   1.500  0.8965 -0.8428  0.0503
59206SOL     OW87931   6.372   8.899   7.238  0.4218  0.2480 -0.2162
59206SOL    HW187932   6.361   8.933   7.149 -0.5438 -1.3470 -0.7279
59206SOL    HW287933   6.285   8.869   7.264  0.5235  1.3408  1.5741
59207SOL     OW87934   2.846   4.202  10.563  0.3851 -0.0187  0.1041
59207SOL    HW187935   2.782   4.225  10.630  0.0929  0.2586 -0.2642
59207SOL    HW287936   2.930   4.207  10.608  0.1838  0.0574  0.4780
59208SOL     OW87937   4.077   4.766   2.138  1.0993 -0.0775  0.0013
59208SOL    HW187938   4.042   4.848   2.173 -0.1628 -0.7695  0.4337
59208SOL    HW287939   4.031   4.752   2.055  0.3883 -0.9355  0.5137
59209SOL     OW87940   0.364   3.419  10.911  0.2336 -0.0960 -0.1951
59209SOL    HW187941   0.326   3.437  10.826 -0.5768 -0.6063  0.0451
59209SOL    HW287942   0.373   3.324  10.914 -1.7376 -0.3126  1.0766
59210SOL     OW87943  12.677   8.826   8.745 -0.3442  0.1451  0.2626
59210SOL    HW187944  12.696   8.886   8.817 -0.5276 -0.2419  0.6369
59210SOL    HW287945  12.661   8.742   8.788  3.2383 -1.0692 -0.3846
59211SOL     OW87946   5.475   1.496   5.432  0.0768  0.4281 -0.2460
59211SOL    HW187947   5.557   1.533   5.466  0.2757  0.3629 -0.6425
59211SOL    HW287948   5.461   1.543   5.349  1.1196 -1.3874 -1.5235
59212SOL     OW87949   2.239  10.111   0.284  0.1245  0.6755 -0.0216
59212SOL    HW187950   2.251  10.072   0.198 -0.4846  1.8010 -0.6458
59212SOL    HW287951   2.202  10.042   0.338 -0.6708  0.3044 -1.0135
59213SOL     OW87952  11.633   6.069   5.327  0.0704 -0.4755  0.2143
59213SOL    HW187953  11.590   6.111   5.253  0.7708  1.2590  0.7457
59213SOL    HW287954  11.578   5.994   5.347 -0.0305 -1.0983 -2.1564
59214SOL     OW87955   1.861  10.561   7.100 -0.3623 -0.0752 -0.0809
59214SOL    HW187956   1.782  10.585   7.051 -2.1244 -1.8502  1.7144
59214SOL    HW287957   1.850  10.604   7.184  0.9006  0.1181 -0.0044
59215SOL     OW87958   3.734   2.578  12.457 -0.1518  0.2541  0.2892
59215SOL    HW187959   3.781   2.601  12.377  0.3405 -0.8646  0.2447
59215SOL    HW287960   3.642   2.582  12.432 -0.2234  3.3858  0.6118
59216SOL     OW87961   3.233  12.438   8.033  0.7279  0.1118  0.2402
59216SOL    HW187962   3.198  12.479   7.954  0.8612 -1.4189 -0.6307
59216SOL    HW287963   3.321  12.410   8.009 -0.0951 -2.5666  0.1116
59217SOL     OW87964   2.349   3.158   4.708  0.3302 -0.3505  0.9232
59217SOL    HW187965   2.363   3.122   4.620 -0.3954 -2.1247  1.4799
59217SOL    HW287966   2.418   3.118   4.761  0.0409 -0.2247  1.3965
59218SOL     OW87967   7.292   8.333   9.075  0.5085  0.6859  0.1332
59218SOL    HW187968   7.318   8.414   9.120  0.3227  1.7517 -1.5832
59218SOL    HW287969   7.230   8.291   9.135  1.2228  1.3813  1.4136
59219SOL     OW87970   9.024   2.678   9.110  0.0674 -0.1277 -0.5489
59219SOL    HW187971   9.108   2.658   9.151 -0.1137 -1.0101 -0.5869
59219SOL    HW287972   8.993   2.594   9.076 -1.7869 -0.2397  1.2317
59220SOL     OW87973   1.692   4.106  10.306 -0.1679  0.3880  0.3672
59220SOL    HW187974   1.749   4.183  10.308 -0.4599  0.6147  0.1925
59220SOL    HW287975   1.604   4.141  10.319 -0.3249  0.1043  0.1007
59221SOL     OW87976   8.238   2.063  11.093 -0.3518 -0.4384 -0.2598
59221SOL    HW187977   8.255   2.115  11.172 -3.7141 -0.4608  0.6096
59221SOL    HW287978   8.233   2.127  11.023  1.0524 -0.2543 -0.2312
59222SOL     OW87979  10.209   6.560   1.368  0.9047 -0.5605 -0.1653
59222SOL    HW187980  10.260   6.622   1.317 -1.3438  1.9851  0.4816
59222SOL    HW287981  10.240   6.572   1.458  1.6665 -1.7374 -0.2364
59223SOL     OW87982   1.644  11.643   1.190 -0.5513 -0.1850  0.0915
59223SOL    HW187983   1.653  11.709   1.258  0.6800  0.2215 -0.4284
59223SOL    HW287984   1.734  11.621   1.166 -0.9493 -1.2783 -0.4918
59224SOL     OW87985   7.688   8.296   4.203  0.2268 -0.3467 -0.1271
59224SOL    HW187986   7.665   8.375   4.154 -0.6031 -0.4565  0.0765
59224SOL    HW287987   7.642   8.226   4.158 -0.3789 -0.4805  0.6807
59225SOL     OW87988   3.384   5.609   7.736 -0.2961 -0.0933  0.1755
59225SOL    HW187989   3.363   5.697   7.767 -0.4090 -0.2269  0.4769
59225SOL    HW287990   3.303   5.559   7.750 -0.2460 -0.2340 -0.0350
59226SOL     OW87991   9.431   7.940   7.592 -0.1264 -0.2693  0.0838
59226SOL    HW187992   9.461   8.030   7.592 -0.4653 -0.1265  1.7627
59226SOL    HW287993   9.335   7.947   7.590 -0.1458 -0.6116 -0.3897
59227SOL     OW87994   4.719  12.639   7.598  0.0186 -0.7150 -0.1910
59227SOL    HW187995   4.677  12.615   7.515 -2.8986  1.0000  0.6235
59227SOL    HW287996   4.737  12.555   7.641 -1.4291 -1.6183 -1.2238
59228SOL     OW87997   6.902   7.966   3.924 -0.6812  0.1854  0.4237
59228SOL    HW187998   6.869   7.984   4.012 -0.9525 -0.4617  0.4615
59228SOL    HW287999   6.926   8.052   3.889 -0.7065  0.4611  1.0742
59229SOL     OW88000   5.893   1.175   0.117  0.5065 -0.4133  0.1517
59229SOL    HW188001   5.880   1.086   0.152  1.0024 -0.2904  0.6623
59229SOL    HW288002   5.818   1.224   0.149 -0.6435 -1.0230 -1.4782
59230SOL     OW88003   9.359  11.331   6.188 -0.1982 -0.6885 -0.4037
59230SOL    HW188004   9.269  11.362   6.198  0.1962  0.4771 -0.1933
59230SOL    HW288005   9.383  11.357   6.099  0.3556  0.2503  0.0000
59231SOL     OW88006  11.638  10.721  12.916 -0.8831 -0.4351  0.5761
59231SOL    HW188007  11.634  10.752  12.825  0.2705 -0.1647  0.6011
59231SOL    HW288008  11.711  10.770  12.954 -1.7677 -0.0605  1.8474
59232SOL     OW88009   0.941  10.812   1.848 -0.1826  0.0118  0.0171
59232SOL    HW188010   1.004  10.883   1.838  2.4397 -1.9903  1.1222
59232SOL    HW288011   0.956  10.756   1.772  0.9677 -1.5226  1.2767
59233SOL     OW88012   8.266   2.815   1.684  0.2191  0.0851 -0.3939
59233SOL    HW188013   8.286   2.885   1.746  2.0771 -0.4793 -0.3153
59233SOL    HW288014   8.334   2.750   1.698  0.5034 -0.2108 -2.7991
59234SOL     OW88015   7.679   9.638   3.589 -0.1918  0.1450  0.5026
59234SOL    HW188016   7.722   9.557   3.616  0.3444  0.8800  1.9327
59234SOL    HW288017   7.673   9.690   3.669 -0.6304  1.4745 -0.3627
59235SOL     OW88018   3.594   5.063   8.821 -0.0806  0.5730 -0.0345
59235SOL    HW188019   3.503   5.045   8.797  0.6490 -1.7597 -1.3798
59235SOL    HW288020   3.610   5.151   8.787 -1.6701  0.8364 -0.2004
59236SOL     OW88021   7.620  10.192   6.383 -0.0488  0.2807  0.1649
59236SOL    HW188022   7.677  10.115   6.376  1.4139  1.2104  1.2038
59236SOL    HW288023   7.531  10.156   6.382  0.5980 -1.5404  1.5809
59237SOL     OW88024   8.852   3.404   9.032  0.4770 -0.0606  0.7385
59237SOL    HW188025   8.781   3.368   9.086  0.3920  1.0890  1.4429
59237SOL    HW288026   8.818   3.402   8.943  0.2167 -1.0537  0.8480
59238SOL     OW88027  12.713   8.990  10.553  0.1382  0.3211 -0.0598
59238SOL    HW188028  12.806   9.007  10.569  0.4629  1.6182 -2.7599
59238SOL    HW288029  12.678   9.075  10.527 -0.9458 -0.8074 -2.6312
59239SOL     OW88030  10.115   7.482   7.579 -0.4209  0.3183  0.6518
59239SOL    HW188031  10.037   7.521   7.618 -0.8140  0.0907  0.1213
59239SOL    HW288032  10.087   7.394   7.552  0.2276 -0.0362  1.1198
59240SOL     OW88033   4.046   0.167   3.865 -0.4583  0.1087 -0.8194
59240SOL    HW188034   4.002   0.144   3.947  0.2903 -2.0515 -0.9643
59240SOL    HW288035   4.117   0.225   3.892 -1.2814  0.8619 -0.1846
59241SOL     OW88036   3.735  12.518   7.846  0.2467  0.6261  0.4890
59241SOL    HW188037   3.820  12.554   7.871  0.6328  0.3446 -0.3742
59241SOL    HW288038   3.678  12.594   7.837 -0.0391  0.7173  2.6010
59242SOL     OW88039   7.914   6.302   2.251  0.1257 -0.8246  0.1072
59242SOL    HW188040   7.888   6.394   2.251 -1.6055 -1.2599  0.9662
59242SOL    HW288041   8.005   6.302   2.223 -0.8437  0.8246 -3.5431
59243SOL     OW88042   2.140   6.352   3.820  0.3530 -0.1070  0.4915
59243SOL    HW188043   2.165   6.389   3.735 -0.9793 -1.4713 -0.5527
59243SOL    HW288044   2.172   6.416   3.884  0.9700  1.2046 -1.0444
59244SOL     OW88045  12.225   2.446  11.232  0.3116 -0.4588  0.9091
59244SOL    HW188046  12.272   2.364  11.221  0.0150 -0.6210  0.8487
59244SOL    HW288047  12.137   2.429  11.199  0.7602  0.4084 -0.8535
59245SOL     OW88048   9.581   0.713   4.305 -0.2869 -0.0936 -0.0914
59245SOL    HW188049   9.597   0.693   4.397 -0.3030 -1.1529 -0.2990
59245SOL    HW288050   9.669   0.719   4.266 -0.2911 -0.2085 -0.1177
59246SOL     OW88051   5.604  12.454   3.656 -0.0686 -0.1121 -0.0463
59246SOL    HW188052   5.514  12.471   3.685 -0.5341 -0.2061 -1.3652
59246SOL    HW288053   5.608  12.359   3.644  0.3331 -0.1525  0.3554
59247SOL     OW88054   6.380   5.330   6.326  0.4992  0.0203  0.2571
59247SOL    HW188055   6.439   5.254   6.334 -1.7457 -1.6570  2.1963
59247SOL    HW288056   6.416   5.379   6.252  2.3578 -2.6846 -0.8365
59248SOL     OW88057  11.776   6.091  12.414 -0.7172  0.3572  0.0251
59248SOL    HW188058  11.699   6.144  12.435 -1.2856 -0.4640  0.0720
59248SOL    HW288059  11.847   6.129  12.466 -1.9693 -1.3531  3.2755
59249SOL     OW88060   4.997  10.688  10.134  0.1137 -0.1160  0.0858
59249SOL    HW188061   4.921  10.630  10.140  0.4395 -0.5356  0.2278
59249SOL    HW288062   5.035  10.669  10.049 -0.2057  0.4299 -0.1808
59250SOL     OW88063   1.999   4.753  12.981  0.4903 -0.1342 -0.4720
59250SOL    HW188064   1.912   4.716  12.993  0.1401  0.1711 -1.8375
59250SOL    HW288065   1.998   4.833  13.033 -0.0412 -0.1520 -0.4472
59251SOL     OW88066  11.760   0.515   0.081 -0.4035 -0.7267  0.3673
59251SOL    HW188067  11.793   0.528  -0.008 -0.2128  1.6147  0.6974
59251SOL    HW288068  11.668   0.491   0.070  0.0723 -2.2949 -0.4586
59252SOL     OW88069   0.167   3.153   9.140 -0.3119 -0.0000 -0.4053
59252SOL    HW188070   0.205   3.236   9.112 -1.3368 -0.1682 -2.5397
59252SOL    HW288071   0.243   3.095   9.151  0.3761  1.0675  0.6515
59253SOL     OW88072   1.929   0.327   6.311  0.1774 -0.3817  0.4362
59253SOL    HW188073   2.012   0.375   6.306  0.4068 -0.8487 -0.5729
59253SOL    HW288074   1.879   0.373   6.378  1.1589  0.0550  0.8922
59254SOL     OW88075   6.604  10.154   6.166  0.4176 -0.1703  0.5058
59254SOL    HW188076   6.594  10.090   6.237  1.6123  0.7080  1.4928
59254SOL    HW288077   6.545  10.226   6.190  1.4802  0.5222  1.0882
59255SOL     OW88078  10.660   7.049   2.133 -0.1858 -0.2817 -0.8216
59255SOL    HW188079  10.630   7.109   2.201  0.2666  0.8694 -1.6215
59255SOL    HW288080  10.753   7.037   2.151  0.0977  0.6050 -1.6570
59256SOL     OW88081  12.015   9.930   6.084  0.0774  0.0237  0.1700
59256SOL    HW188082  12.013   9.863   6.016 -0.2287 -1.3127  1.4567
59256SOL    HW288083  12.077   9.897   6.149 -0.3764  0.7940  1.0169
59257SOL     OW88084   2.470   6.457   5.876 -0.4030  0.7090  0.0549
59257SOL    HW188085   2.526   6.410   5.814 -2.2909 -0.5976 -0.7605
59257SOL    HW288086   2.524   6.468   5.954  0.8982 -0.7741 -0.5826
59258SOL     OW88087   4.773   2.511   9.694 -0.2416 -0.1137 -0.1943
59258SOL    HW188088   4.748   2.604   9.700  0.9717  0.1527  1.9839
59258SOL    HW288089   4.736   2.472   9.773  0.4403 -1.1617 -0.3779
59259SOL     OW88090  10.581   4.584   4.214 -0.0482  0.2491  0.3116
59259SOL    HW188091  10.576   4.655   4.277 -0.4535  0.7844 -0.3176
59259SOL    HW288092  10.496   4.584   4.171 -0.3115 -1.0696  0.7858
59260SOL     OW88093   3.433   1.584   6.514  0.0970 -0.4603 -0.5923
59260SOL    HW188094   3.442   1.523   6.441 -0.1646 -0.4299 -0.6483
59260SOL    HW288095   3.392   1.532   6.583  2.0810 -1.0552  0.2118
59261SOL     OW88096   8.703  12.389   8.037  0.5829 -0.3483 -0.5854
59261SOL    HW188097   8.701  12.337   7.957 -0.6793 -1.9690  0.4273
59261SOL    HW288098   8.732  12.476   8.009 -0.3498 -0.7077 -2.8708
59262SOL     OW88099   2.004  11.971   6.750 -0.5574 -0.1887  0.5430
59262SOL    HW188100   1.964  11.899   6.800 -0.5392  0.0250  0.8652
59262SOL    HW288101   2.029  12.035   6.816  0.3242 -0.3181  0.3454
59263SOL     OW88102  10.919   8.031  10.993 -0.0537 -0.6602 -0.5954
59263SOL    HW188103  10.919   7.974  11.070  1.7835  0.5749  0.3834
59263SOL    HW288104  10.828   8.061  10.985 -0.0192  0.4456  2.1044
59264SOL     OW88105   5.449   9.826   9.137  0.4185  0.3466  0.3078
59264SOL    HW188106   5.367   9.855   9.096 -0.7955 -2.7321  0.2946
59264SOL    HW288107   5.422   9.788   9.220  2.3389  2.4062  1.9844
59265SOL     OW88108   3.869   7.601   8.629 -0.1073  0.1490  0.2196
59265SOL    HW188109   3.900   7.511   8.623  3.2867  1.2559 -1.2111
59265SOL    HW288110   3.889   7.629   8.718 -0.0123 -0.1279  0.2825
59266SOL     OW88111   1.555   5.268   7.210  0.0933 -0.2664 -0.4643
59266SOL    HW188112   1.539   5.362   7.206  1.5639  0.0948  1.0623
59266SOL    HW288113   1.646   5.258   7.182  0.7882 -0.9029  1.8587
59267SOL     OW88114   7.363  11.091   6.646  0.3388 -0.1710  0.1947
59267SOL    HW188115   7.314  11.027   6.594  0.3743  0.2711 -0.3826
59267SOL    HW288116   7.393  11.156   6.583  3.1285 -1.2925  0.2189
59268SOL     OW88117   3.160   3.219  12.881  0.0969 -0.0725 -0.5875
59268SOL    HW188118   3.165   3.211  12.786  0.0680 -2.1524 -0.4603
59268SOL    HW288119   3.067   3.223  12.900 -0.0338 -2.4480 -0.5177
59269SOL     OW88120   2.125   3.609   2.591  0.0310  0.1509 -0.1768
59269SOL    HW188121   2.194   3.647   2.646 -1.0371 -1.4664  2.4865
59269SOL    HW288122   2.044   3.646   2.627 -0.6692 -0.2817 -1.2682
59270SOL     OW88123  12.689   8.960   4.707 -0.0440  0.2451  0.7002
59270SOL    HW188124  12.723   9.042   4.671  0.4293  0.0648  0.7316
59270SOL    HW288125  12.626   8.930   4.642  1.0447 -0.2516 -0.1587
59271SOL     OW88126   3.049  11.994  10.911  0.0581 -0.2507 -0.1786
59271SOL    HW188127   3.071  12.085  10.891 -0.0731 -0.3152 -0.6271
59271SOL    HW288128   3.028  11.955  10.826  1.7674 -1.1557 -0.2448
59272SOL     OW88129  12.599   3.019   1.025  0.4107 -0.2757  0.2527
59272SOL    HW188130  12.674   2.962   1.037  2.0955  1.1671 -2.4407
59272SOL    HW288131  12.558   3.023   1.112  0.8777 -4.4318  0.8646
59273SOL     OW88132   0.556   7.319   1.514  0.4593  0.1814  0.6120
59273SOL    HW188133   0.578   7.403   1.475  1.0646  0.5654  1.7506
59273SOL    HW288134   0.579   7.255   1.447  2.8593  0.7261  0.8553
59274SOL     OW88135  12.362  12.328   1.910 -0.2423  0.4454 -0.0606
59274SOL    HW188136  12.312  12.355   1.833 -1.0089  0.5138  0.4385
59274SOL    HW288137  12.296  12.290   1.968  0.0442  1.6970  1.1524
59275SOL     OW88138  11.087  12.546   9.927  0.2025  0.8133  0.2919
59275SOL    HW188139  11.038  12.572  10.005 -1.1721  0.4270 -0.4231
59275SOL    HW288140  11.143  12.475   9.956 -2.1788 -1.1367  0.4188
59276SOL     OW88141   3.558   1.359   3.879  0.2726  0.2024 -0.2077
59276SOL    HW188142   3.569   1.308   3.799 -0.7920 -1.2536  0.5100
59276SOL    HW288143   3.523   1.443   3.850 -0.3340 -0.3939 -1.2710
59277SOL     OW88144  10.743   5.641   4.181 -0.2496  0.0413 -0.0314
59277SOL    HW188145  10.827   5.606   4.152 -0.8695 -0.0352 -1.8937
59277SOL    HW288146  10.766   5.715   4.238  1.0667 -0.1096 -0.3344
59278SOL     OW88147   8.801   2.414  10.165 -0.0313  0.5286 -0.2424
59278SOL    HW188148   8.720   2.461  10.187 -0.6982 -0.5625 -0.2989
59278SOL    HW288149   8.827   2.451  10.081 -1.2161 -0.0217 -0.8778
59279SOL     OW88150   6.224   4.790   1.768 -0.4856 -0.1930  0.2079
59279SOL    HW188151   6.185   4.843   1.698 -0.1542  0.3267  0.4137
59279SOL    HW288152   6.277   4.851   1.818 -1.3911 -0.3700  1.4505
59280SOL     OW88153  12.644   6.804   2.578 -0.1132 -0.2033 -0.5370
59280SOL    HW188154  12.659   6.893   2.547  0.7407 -1.0483 -2.7240
59280SOL    HW288155  12.565   6.811   2.633 -0.6875  1.7095 -1.5249
59281SOL     OW88156   2.401   6.630  11.271  0.2309 -0.3453  0.0254
59281SOL    HW188157   2.468   6.685  11.229  0.4539 -0.0191  0.7816
59281SOL    HW288158   2.373   6.681  11.347 -0.1387 -0.9330  0.2892
59282SOL     OW88159   0.792  12.190   1.741  0.2304 -0.6360 -0.1662
59282SOL    HW188160   0.736  12.165   1.668 -0.5418 -0.8569  0.4799
59282SOL    HW288161   0.743  12.163   1.819 -1.2439  3.7840  0.7402
59283SOL     OW88162   6.716   8.524   2.204  0.2736  0.1971 -0.2247
59283SOL    HW188163   6.776   8.464   2.249  0.8090 -1.2126 -2.6404
59283SOL    HW288164   6.645   8.468   2.173  0.3498  0.9313 -1.8114
59284SOL     OW88165   1.285   8.393   8.970 -0.0089 -0.0676  1.2858
59284SOL    HW188166   1.192   8.383   8.989 -0.5946 -1.6070 -1.8029
59284SOL    HW288167   1.288   8.436   8.885  2.0148 -1.4882  0.5432
59285SOL     OW88168   2.258   9.932  10.646  0.0876 -0.2538  0.3429
59285SOL    HW188169   2.246  10.004  10.584 -1.4304 -0.0415  0.8478
59285SOL    HW288170   2.349   9.939  10.674  0.7163 -0.1087 -1.5367
59286SOL     OW88171   2.859  10.029   7.694 -0.3565 -0.3390  0.1663
59286SOL    HW188172   2.791  10.096   7.698 -0.0596  0.0170 -0.5713
59286SOL    HW288173   2.928  10.061   7.752 -0.6927 -0.5830  0.7225
59287SOL     OW88174   4.569   9.375   6.213 -0.3031 -0.0933 -0.0655
59287SOL    HW188175   4.663   9.377   6.233 -0.1420 -0.5140 -0.7291
59287SOL    HW288176   4.527   9.353   6.295  0.1988 -0.1247  0.1880
59288SOL     OW88177  11.988   7.064   7.366  0.4602 -0.8020 -0.5682
59288SOL    HW188178  12.017   6.993   7.309 -2.3436 -1.2135 -1.6443
59288SOL    HW288179  12.035   7.142   7.335 -0.0588 -1.2657 -2.6239
59289SOL     OW88180   8.302   2.856   6.921 -0.8514  0.0893 -0.0030
59289SOL    HW188181   8.283   2.944   6.889 -2.1366 -0.6399 -1.3430
59289SOL    HW288182   8.384   2.866   6.970 -1.0909  2.0598  0.0863
59290SOL     OW88183   2.761   7.459   0.506  0.5158  0.4682  0.0392
59290SOL    HW188184   2.776   7.382   0.452  1.7089  0.5224  0.2549
59290SOL    HW288185   2.780   7.533   0.448  1.4339  0.5354  0.4098
59291SOL     OW88186   0.590  11.501   0.778  0.4393 -0.5028 -0.0160
59291SOL    HW188187   0.533  11.425   0.767  1.8815 -1.4162 -1.7903
59291SOL    HW288188   0.551  11.568   0.723  0.0659 -0.5003  0.2487
59292SOL     OW88189   1.603   2.456   9.980  0.4826  0.2636  0.1400
59292SOL    HW188190   1.568   2.378  10.024  0.2149 -0.2357 -0.9356
59292SOL    HW288191   1.542   2.526  10.003 -1.1386 -0.5276 -1.4690
59293SOL     OW88192  11.338  12.634   2.196  0.7742  0.6765 -0.2976
59293SOL    HW188193  11.367  12.704   2.253  2.5107  1.5560 -2.1273
59293SOL    HW288194  11.382  12.556   2.230 -0.4122  0.6150  1.1748
59294SOL     OW88195   9.277  10.685  12.848  0.0211  0.0912 -0.0086
59294SOL    HW188196   9.203  10.649  12.898 -0.0807  0.6505  0.2488
59294SOL    HW288197   9.347  10.621  12.859 -0.1979 -0.0889  0.3476
59295SOL     OW88198   9.411   8.995   9.294 -0.2568 -0.4408 -0.4377
59295SOL    HW188199   9.479   8.930   9.276  0.5003  0.4668 -0.9457
59295SOL    HW288200   9.459   9.077   9.306 -1.0822 -0.2074  1.5735
59296SOL     OW88201  10.579   8.577   6.047 -0.4934  0.0578 -0.1729
59296SOL    HW188202  10.603   8.637   5.976  1.8112  0.0476  0.5155
59296SOL    HW288203  10.639   8.502   6.036 -0.0385  0.0919  1.7812
59297SOL     OW88204   2.033  12.968   8.593  0.7013 -0.4313 -0.9249
59297SOL    HW188205   2.088  12.897   8.624  0.2529 -0.1088  0.7239
59297SOL    HW288206   2.087  13.047   8.605  0.2938 -0.2350 -0.3313
59298SOL     OW88207   1.159   1.216   5.510 -0.3537  0.0352 -0.8439
59298SOL    HW188208   1.092   1.284   5.510 -1.1346 -0.7030 -2.1716
59298SOL    HW288209   1.124   1.148   5.568  0.5084  0.7847  0.6289
59299SOL     OW88210   7.613  11.624   3.739 -0.1681 -0.7029  0.6482
59299SOL    HW188211   7.521  11.646   3.728 -0.3319 -1.7460 -0.3229
59299SOL    HW288212   7.618  11.531   3.715  1.4113 -0.2556 -0.9849
59300SOL     OW88213   4.377  11.024   7.087  0.0402  0.2418  0.0152
59300SOL    HW188214   4.413  10.959   7.147  1.3933  0.0496 -0.9594
59300SOL    HW288215   4.404  11.108   7.123 -1.3252  0.2903  1.0279
59301SOL     OW88216  10.846  10.697   9.323  0.6312 -1.0018 -0.4737
59301SOL    HW188217  10.818  10.721   9.234 -0.7647 -1.3804 -0.1644
59301SOL    HW288218  10.902  10.770   9.350 -1.0020  0.4381 -0.7241
59302SOL     OW88219   4.385   9.192  11.112 -0.1065  0.0358  0.4743
59302SOL    HW188220   4.318   9.143  11.065  0.2878  0.0452 -0.1171
59302SOL    HW288221   4.436   9.235  11.043 -0.8789  1.8624  0.9850
59303SOL     OW88222   4.320   5.939   6.665 -0.0751  0.1613 -0.1907
59303SOL    HW188223   4.263   5.967   6.736 -0.9564  2.1544 -1.5741
59303SOL    HW288224   4.336   5.847   6.682 -1.1647  0.2982  1.9468
59304SOL     OW88225   3.459   9.042   8.537 -0.2005  0.7942  0.5357
59304SOL    HW188226   3.425   8.989   8.608 -0.5099  0.0801 -0.1323
59304SOL    HW288227   3.420   9.129   8.551 -1.9973  0.1203  0.0334
59305SOL     OW88228  11.418   2.479   1.104  0.3133 -0.1912  0.3101
59305SOL    HW188229  11.386   2.451   1.190 -0.1862 -2.6540 -0.6038
59305SOL    HW288230  11.338   2.503   1.057  0.5639  0.8842  0.4135
59306SOL     OW88231   8.659   9.346   0.674 -0.0176  0.1929 -0.3118
59306SOL    HW188232   8.597   9.418   0.661  0.0129  0.1601 -0.6372
59306SOL    HW288233   8.694   9.361   0.762  1.4196  1.6838 -1.0661
59307SOL     OW88234   7.618   7.754  11.507 -0.1323  0.0106  0.2146
59307SOL    HW188235   7.694   7.714  11.464  0.5839  1.3187  0.2074
59307SOL    HW288236   7.579   7.683  11.558  1.5132 -0.5392  0.7829
59308SOL     OW88237   5.289   3.259  10.223  0.2419  0.2540  0.4106
59308SOL    HW188238   5.333   3.239  10.141 -1.1460  0.7042 -0.4978
59308SOL    HW288239   5.347   3.321  10.267  0.4801  0.9127 -0.7866
59309SOL     OW88240   5.832   9.541   0.196 -0.2317  0.4427 -0.0668
59309SOL    HW188241   5.815   9.457   0.240 -3.9037  0.9599 -0.1177
59309SOL    HW288242   5.854   9.601   0.268 -0.9749  0.1292  0.4432
59310SOL     OW88243  11.555  11.626   9.751 -0.7531  0.0710  0.4559
59310SOL    HW188244  11.491  11.569   9.707  0.4807  0.4619 -2.0406
59310SOL    HW288245  11.639  11.583   9.736 -0.1406  0.9428  1.3098
59311SOL     OW88246   7.576   4.487   3.863 -0.3265 -0.4626  0.0895
59311SOL    HW188247   7.620   4.471   3.947 -1.5513 -0.9234  0.6711
59311SOL    HW288248   7.523   4.565   3.880  0.7515  0.4875 -0.8044
59312SOL     OW88249   4.004  11.010   2.572  0.3224 -0.0470 -0.4237
59312SOL    HW188250   4.097  11.027   2.588  0.5198 -0.2102 -1.3517
59312SOL    HW288251   3.962  11.094   2.585  0.4945 -0.1155  0.6915
59313SOL     OW88252  12.459   3.223   3.944  0.2669 -0.5930 -0.0266
59313SOL    HW188253  12.511   3.204   3.866  2.4119 -0.7448  1.3598
59313SOL    HW288254  12.470   3.147   4.000 -0.0906  0.0781  0.9928
59314SOL     OW88255   3.833   6.111   7.552 -0.5128  0.0677 -0.2796
59314SOL    HW188256   3.832   6.207   7.552 -1.4296  0.0960 -2.0081
59314SOL    HW288257   3.924   6.089   7.530 -0.7549  0.6102 -1.9869
59315SOL     OW88258  10.832   0.584   8.822 -0.0768 -0.4095  0.3119
59315SOL    HW188259  10.778   0.621   8.752 -0.4512 -2.0699 -0.2988
59315SOL    HW288260  10.771   0.535   8.876  0.1182  1.2355  2.1494
59316SOL     OW88261   8.599   6.294   8.572  0.6925 -0.3355 -0.0522
59316SOL    HW188262   8.517   6.272   8.528  1.7304 -3.0813 -0.8719
59316SOL    HW288263   8.647   6.347   8.509 -0.5407  1.6219  0.5859
59317SOL     OW88264   5.243  11.016   7.581 -1.0758 -0.1812 -0.3829
59317SOL    HW188265   5.310  11.067   7.535 -1.1974 -0.2032 -0.5845
59317SOL    HW288266   5.167  11.019   7.524 -1.4948  0.4813  0.1985
59318SOL     OW88267   3.891  10.494   5.406 -0.4335  0.1328 -0.0036
59318SOL    HW188268   3.960  10.513   5.342  0.7637  1.5421  1.6084
59318SOL    HW288269   3.822  10.556   5.384 -1.1506 -1.1031 -1.4578
59319SOL     OW88270   8.964   8.810   4.332 -0.0757 -1.0427 -0.3397
59319SOL    HW188271   8.927   8.803   4.244 -0.6521 -1.3497 -0.0788
59319SOL    HW288272   9.042   8.755   4.329  0.1052 -0.7690 -0.7584
59320SOL     OW88273   8.518   5.454  12.328  0.6094  0.3904  0.3638
59320SOL    HW188274   8.486   5.423  12.413  0.8170  1.6120  0.9076
59320SOL    HW288275   8.604   5.413  12.318 -0.2918 -1.4689 -0.2738
59321SOL     OW88276  11.233  10.637   8.911  0.0061  0.2092  0.3433
59321SOL    HW188277  11.257  10.546   8.929 -2.7204 -0.4919  0.7753
59321SOL    HW288278  11.243  10.645   8.816  1.3118 -0.1622  0.4167
59322SOL     OW88279   1.461   2.974  11.504  0.3354  0.1424  0.3914
59322SOL    HW188280   1.519   2.978  11.580  2.0315 -0.7467 -0.7699
59322SOL    HW288281   1.446   2.881  11.490 -1.2272  0.3483  0.5037
59323SOL     OW88282  12.912  10.200   1.606  0.2015  0.5300 -0.0392
59323SOL    HW188283  12.839  10.141   1.627 -0.1364  1.1020  0.4203
59323SOL    HW288284  12.959  10.211   1.689 -0.1681  1.4859  0.0544
59324SOL     OW88285  11.296   2.725  11.203 -0.0888  0.0729 -0.4927
59324SOL    HW188286  11.257   2.638  11.214  0.1844  0.1188  1.1238
59324SOL    HW288287  11.221   2.785  11.199 -0.2893  0.1069  2.0992
59325SOL     OW88288   6.022  10.012   1.947 -0.0503 -0.2705 -0.1816
59325SOL    HW188289   5.951  10.076   1.959 -0.7310 -0.8839 -0.8504
59325SOL    HW288290   5.991   9.956   1.876  0.7530 -1.0531  0.0828
59326SOL     OW88291   9.921   7.111   1.128  0.0579 -0.0191  0.2851
59326SOL    HW188292   9.932   7.195   1.084 -0.8157 -0.3336 -0.5683
59326SOL    HW288293   9.909   7.047   1.057 -2.2831 -0.4010  0.9277
59327SOL     OW88294   6.226   1.167   6.125 -0.0476 -0.3434 -0.2723
59327SOL    HW188295   6.167   1.130   6.192 -0.4478 -2.0994 -1.5170
59327SOL    HW288296   6.175   1.162   6.044  0.5903  1.3483 -0.8146
59328SOL     OW88297   8.664   8.610   2.610 -0.0082  0.0200  0.4069
59328SOL    HW188298   8.705   8.633   2.527  1.8162 -1.2697  0.8893
59328SOL    HW288299   8.737   8.590   2.668 -1.2798 -0.1192  2.0139
59329SOL     OW88300   6.324  10.020  11.890 -0.2878 -0.0946  0.4111
59329SOL    HW188301   6.391  10.046  11.827 -0.8544  1.5321  0.4188
59329SOL    HW288302   6.248   9.996  11.836  0.2512 -1.9095  0.4030
59330SOL     OW88303   0.485   2.115   6.601  0.2477  0.3232  0.2668
59330SOL    HW188304   0.511   2.207   6.603 -1.0604  0.8545 -2.3789
59330SOL    HW288305   0.561   2.069   6.565  0.4002  0.6023  0.2307
59331SOL     OW88306   3.471   7.956   8.156  0.1695 -0.1567 -0.0921
59331SOL    HW188307   3.560   7.985   8.138  0.1272  0.1251  0.1431
59331SOL    HW288308   3.419   7.990   8.083  0.0267  0.8424  0.4571
59332SOL     OW88309  11.538   0.813   3.317 -0.0853  0.2670  0.1752
59332SOL    HW188310  11.552   0.901   3.281  0.3280 -0.0427 -0.4494
59332SOL    HW288311  11.580   0.815   3.402 -0.3517  0.7714  0.3005
59333SOL     OW88312   3.100  12.815   0.270  0.0088  0.1204 -0.0892
59333SOL    HW188313   3.053  12.857   0.342 -0.3224 -1.5355  0.7061
59333SOL    HW288314   3.192  12.826   0.292 -0.0114  1.5460 -0.5830
59334SOL     OW88315   8.967   1.017  10.030 -0.0615 -0.0538  0.3765
59334SOL    HW188316   8.888   1.012   9.976  0.5746  1.4297 -0.7859
59334SOL    HW288317   9.039   1.000   9.969  0.5529 -1.0274  1.3438
59335SOL     OW88318   3.917  10.748  12.257 -0.6482  0.0467  0.0439
59335SOL    HW188319   3.957  10.800  12.326 -1.2001 -0.1393  0.5088
59335SOL    HW288320   3.886  10.813  12.193  0.6976  0.1793 -0.5084
59336SOL     OW88321   7.082   2.932   5.180  0.0717  0.7633  0.2127
59336SOL    HW188322   7.085   2.985   5.259 -0.0632 -0.1152  0.8256
59336SOL    HW288323   7.165   2.884   5.181 -1.2220 -1.6418  1.5645
59337SOL     OW88324   0.231   1.112   5.349 -0.4089 -0.4863 -0.2262
59337SOL    HW188325   0.224   1.136   5.441  0.2038 -0.5508 -0.1549
59337SOL    HW288326   0.164   1.045   5.337 -0.9767  0.0312 -0.0092
59338SOL     OW88327   1.357   3.999   8.645 -0.5069 -0.2640  0.4966
59338SOL    HW188328   1.263   3.980   8.639 -0.4690 -0.6392  0.9734
59338SOL    HW288329   1.367   4.084   8.604 -1.2584  0.3704  1.5655
59339SOL     OW88330   0.903   9.511   9.721  0.4313 -0.2906 -0.0513
59339SOL    HW188331   0.810   9.515   9.695  0.1314 -2.5016  0.4736
59339SOL    HW288332   0.905   9.552   9.808 -0.5397 -2.0910  0.9079
59340SOL     OW88333   9.774   7.552   5.965  0.0067 -0.6875  0.4316
59340SOL    HW188334   9.753   7.619   5.900  1.7400  0.9719  1.4631
59340SOL    HW288335   9.862   7.523   5.941  0.4187 -0.5019  1.6358
59341SOL     OW88336   1.374   6.251  10.562  1.1052  0.0181  0.1567
59341SOL    HW188337   1.409   6.180  10.616  1.8677 -0.7486 -1.2843
59341SOL    HW288338   1.450   6.306  10.542  0.7700  0.4890  0.1652
59342SOL     OW88339   2.001   2.981  12.627 -0.0504  0.6231 -0.4672
59342SOL    HW188340   1.915   2.966  12.666  0.6960  1.4588  1.6768
59342SOL    HW288341   2.007   2.918  12.556 -2.1334  0.0564 -0.2065
59343SOL     OW88342   2.629  10.670  10.033  0.0212  0.6862  0.3297
59343SOL    HW188343   2.686  10.613  10.085 -1.4134 -1.0359  0.1028
59343SOL    HW288344   2.686  10.740  10.002  1.6951 -0.2482  1.2013
59344SOL     OW88345   6.635   4.457   5.086  0.1933 -0.1865 -0.4203
59344SOL    HW188346   6.723   4.438   5.117  0.6464  1.1926 -0.7894
59344SOL    HW288347   6.594   4.371   5.075  1.3343 -0.8238  0.1888
59345SOL     OW88348  11.205   4.840  10.042  0.4718 -0.2591  0.1036
59345SOL    HW188349  11.173   4.831   9.952 -1.9721 -0.8230  0.9672
59345SOL    HW288350  11.190   4.932  10.064  1.7729  0.0718 -0.2506
59346SOL     OW88351   4.097   9.149   1.203  0.1955  0.2501  0.2360
59346SOL    HW188352   4.125   9.138   1.294  0.1708 -1.2696  0.0988
59346SOL    HW288353   4.125   9.237   1.180  0.0500  0.7370  1.7630
59347SOL     OW88354   2.931   6.265   4.428 -0.4243  0.3367  0.1385
59347SOL    HW188355   2.908   6.239   4.339 -0.6482  1.1116 -0.0328
59347SOL    HW288356   2.873   6.338   4.448 -0.3902  0.1553  0.9329
59348SOL     OW88357  12.006   8.238   3.761 -0.1462  0.2814  0.2964
59348SOL    HW188358  12.088   8.225   3.810  0.2959  1.1277 -0.1962
59348SOL    HW288359  12.034   8.275   3.677 -1.0013  0.0728 -0.0917
59349SOL     OW88360   5.583  12.583  11.300 -0.6979 -0.5189 -0.0584
59349SOL    HW188361   5.548  12.514  11.244 -0.9525  0.2072 -0.8159
59349SOL    HW288362   5.618  12.648  11.239 -0.6929  0.1428  0.6285
59350SOL     OW88363   7.826   3.068   6.388 -0.1846 -0.4043  0.4623
59350SOL    HW188364   7.846   2.975   6.385 -2.2953 -0.9082  0.7043
59350SOL    HW288365   7.737   3.073   6.423 -0.7906  1.6108 -1.1483
59351SOL     OW88366   3.666   5.477   4.997 -0.3309 -0.3400 -0.4546
59351SOL    HW188367   3.725   5.520   4.935  0.5434  0.0257  0.5748
59351SOL    HW288368   3.709   5.489   5.082 -0.8180 -1.9678  0.0652
59352SOL     OW88369   8.161   3.072   1.401  0.2575 -0.4837 -0.1947
59352SOL    HW188370   8.142   3.165   1.390  0.4327 -0.3629  0.5106
59352SOL    HW288371   8.081   3.028   1.372 -0.2409 -0.0660  0.5181
59353SOL     OW88372   8.597  10.483   5.061  0.3814 -0.0546 -0.3253
59353SOL    HW188373   8.646  10.498   4.979  0.8463  0.9797  0.1140
59353SOL    HW288374   8.518  10.536   5.051  1.1081  1.2485  0.4421
59354SOL     OW88375   0.473   5.198  11.829 -0.4630  0.3058  0.3018
59354SOL    HW188376   0.468   5.213  11.734  1.2473  1.6288  0.3674
59354SOL    HW288377   0.531   5.123  11.838  0.9568  1.3721  0.3238
59355SOL     OW88378   6.981   0.044   3.855  0.6027 -0.6710 -0.0212
59355SOL    HW188379   6.937   0.089   3.783  1.1262 -1.5605 -0.9383
59355SOL    HW288380   7.072   0.074   3.851  0.1974  1.0041  1.7355
59356SOL     OW88381   3.699   8.301   5.869  0.6772 -0.0047 -0.4360
59356SOL    HW188382   3.745   8.384   5.875  2.4743 -1.0376  1.5655
59356SOL    HW288383   3.615   8.317   5.913  1.8846  0.2690  1.9277
59357SOL     OW88384   9.646   5.413   0.373  0.6294  0.0073 -0.8161
59357SOL    HW188385   9.604   5.483   0.423  1.9752  0.1766  0.1249
59357SOL    HW288386   9.637   5.336   0.429  2.9686  0.3936  0.2000
59358SOL     OW88387   1.930   8.764   6.652  0.7084 -0.0353 -0.1790
59358SOL    HW188388   1.962   8.758   6.562  3.0132 -1.8952  0.6615
59358SOL    HW288389   2.001   8.729   6.705 -1.6328 -1.6557  2.1417
59359SOL     OW88390  10.484  12.668   5.462  0.0649  0.2045  0.1017
59359SOL    HW188391  10.440  12.709   5.536 -0.8566  1.0737 -0.8866
59359SOL    HW288392  10.570  12.643   5.495 -0.4536  0.2697  1.5382
59360SOL     OW88393   4.202  11.449   1.932 -0.0440  0.1861 -0.3843
59360SOL    HW188394   4.272  11.505   1.898 -0.4755  0.4778 -0.7971
59360SOL    HW288395   4.186  11.385   1.863 -0.6116  0.5049 -0.5557
59361SOL     OW88396   3.505   7.342   4.172 -0.4929  0.3614  0.7722
59361SOL    HW188397   3.505   7.341   4.076 -0.7719 -1.2043  0.7700
59361SOL    HW288398   3.507   7.435   4.195 -0.9206  0.7686 -0.7527
59362SOL     OW88399  11.860   9.584  11.243  0.1731 -0.1020  0.3870
59362SOL    HW188400  11.834   9.595  11.334 -0.6105 -1.3196  0.3362
59362SOL    HW288401  11.796   9.523  11.207  1.7268 -1.3609 -0.3877
59363SOL     OW88402   4.254   6.007   1.479 -0.4413  0.6145  0.0004
59363SOL    HW188403   4.323   6.066   1.448 -0.3129  0.8923  0.7994
59363SOL    HW288404   4.193   6.064   1.525  1.2076 -0.1611  3.4758
59364SOL     OW88405   7.612   6.947   3.941 -0.2193 -0.2314 -0.1204
59364SOL    HW188406   7.583   6.907   3.859  2.0728 -1.5023 -0.4003
59364SOL    HW288407   7.598   7.040   3.928  0.0929 -0.3987 -1.9765
59365SOL     OW88408  11.911   5.415   7.187 -0.4300  0.0897  0.4458
59365SOL    HW188409  11.907   5.506   7.160  0.0028  0.8468  2.7441
59365SOL    HW288410  11.881   5.366   7.110 -1.2796  2.1799 -0.6313
59366SOL     OW88411   4.241  10.799   0.582 -0.1433 -0.0945  0.2387
59366SOL    HW188412   4.219  10.884   0.620 -1.0390 -0.2735  0.1447
59366SOL    HW288413   4.244  10.816   0.487  0.8160  0.0739  0.2911
59367SOL     OW88414   7.424   9.333   9.556 -0.0865 -0.1623 -0.2489
59367SOL    HW188415   7.378   9.352   9.638  1.9664  1.3252  0.6356
59367SOL    HW288416   7.389   9.396   9.493 -0.9489 -0.6458 -0.2659
59368SOL     OW88417   0.029   9.841  11.428  0.0735 -0.4453  0.0680
59368SOL    HW188418   0.020   9.770  11.365 -3.1929  0.6696 -0.9725
59368SOL    HW288419   0.079   9.908  11.381 -1.2256 -0.1372 -0.9560
59369SOL     OW88420  11.125   3.064  10.077  0.2828 -0.1848 -0.2576
59369SOL    HW188421  11.162   2.990  10.125  0.3636  0.2785  0.4046
59369SOL    HW288422  11.038   3.033  10.050 -0.3319  0.0144  1.3827
59370SOL     OW88423   4.081  11.490   1.598  0.3373 -0.4054 -0.3865
59370SOL    HW188424   4.036  11.477   1.515  1.3237 -0.6150 -0.9006
59370SOL    HW288425   4.010  11.505   1.661 -0.5122 -1.8097 -0.9563
59371SOL     OW88426   4.856   3.075   5.811 -0.4082  0.0316  0.4266
59371SOL    HW188427   4.799   3.055   5.736  1.9304  0.7175 -1.6736
59371SOL    HW288428   4.853   2.996   5.865 -3.5180  0.1488  0.6055
59372SOL     OW88429   8.874   4.634   1.008  0.6634  0.1155  0.0684
59372SOL    HW188430   8.871   4.617   0.914  1.1078 -1.0151  0.2427
59372SOL    HW288431   8.830   4.718   1.019 -1.0095 -0.5960 -0.9304
59373SOL     OW88432  12.236   8.863  12.537  0.4661  0.0026  0.0486
59373SOL    HW188433  12.150   8.821  12.541  0.9890 -1.1595 -0.3475
59373SOL    HW288434  12.217   8.955  12.518 -0.7147 -0.0724  0.7798
59374SOL     OW88435  12.213  10.178   0.457  0.0858 -0.0865 -0.3529
59374SOL    HW188436  12.214  10.267   0.492 -2.5285  0.3717 -1.2172
59374SOL    HW288437  12.134  10.138   0.495  0.2412 -1.4458 -1.3747
59375SOL     OW88438   9.646   0.633   5.190 -0.2414 -0.2505 -0.1881
59375SOL    HW188439   9.638   0.728   5.181  0.2577 -0.2677 -0.8470
59375SOL    HW288440   9.683   0.621   5.277  1.0157  0.2349 -0.6395
59376SOL     OW88441   1.232  11.303   4.120 -0.2495 -0.3374  0.7253
59376SOL    HW188442   1.320  11.303   4.158 -0.7106  2.3238  2.0137
59376SOL    HW288443   1.179  11.252   4.182  0.3659 -2.1930 -0.1997
59377SOL     OW88444   8.231   0.559  11.917  0.0968  0.4041 -0.1336
59377SOL    HW188445   8.218   0.483  11.861  1.3733  0.3849 -0.4331
59377SOL    HW288446   8.267   0.524  11.998 -0.9917  0.5227  0.4297
59378SOL     OW88447   7.847   4.376   6.404 -0.1493 -0.2188  0.0225
59378SOL    HW188448   7.806   4.408   6.324 -0.7346  1.4963  0.9720
59378SOL    HW288449   7.799   4.419   6.475  3.4161  2.2076  1.2319
59379SOL     OW88450  11.824   1.574   9.725 -0.0052 -0.4420 -0.6532
59379SOL    HW188451  11.780   1.618   9.653 -0.1821  0.8754  0.2296
59379SOL    HW288452  11.873   1.503   9.684 -1.5915 -0.8938 -1.8430
59380SOL     OW88453  11.915  11.491   7.350  0.0634  0.0046 -0.0285
59380SOL    HW188454  11.921  11.506   7.445 -0.0035  1.0560 -0.1695
59380SOL    HW288455  12.005  11.477   7.322  0.0492 -0.6351  0.2310
59381SOL     OW88456   8.387   1.072  10.674  0.0289  0.0676 -0.0965
59381SOL    HW188457   8.399   1.167  10.676  2.4763 -0.1840  1.1352
59381SOL    HW288458   8.349   1.051  10.759  2.3412 -0.2724  0.9317
59382SOL     OW88459   7.951  10.947   8.566  0.6107  0.0514 -0.8459
59382SOL    HW188460   8.025  10.921   8.510  1.2944 -3.8728  1.5158
59382SOL    HW288461   7.874  10.910   8.523  0.7868 -0.7141 -0.5086
59383SOL     OW88462   6.381   9.800   2.825  0.1319  0.3178 -0.5148
59383SOL    HW188463   6.417   9.846   2.749 -2.1642  0.3625 -1.6602
59383SOL    HW288464   6.336   9.869   2.875  0.0226 -0.0359 -0.1227
59384SOL     OW88465   4.304   9.168   8.867  0.1457  0.7536  0.5709
59384SOL    HW188466   4.233   9.227   8.893  0.2342  0.6918  0.9610
59384SOL    HW288467   4.316   9.111   8.943 -0.4498 -0.2560 -0.0561
59385SOL     OW88468  10.401   2.344   3.223 -0.3698  0.7820 -0.0034
59385SOL    HW188469  10.484   2.302   3.244 -1.5261 -0.6334  2.1004
59385SOL    HW288470  10.376   2.307   3.138  1.2842  1.5053 -0.8344
59386SOL     OW88471   7.657  12.930   2.756 -0.4113  0.2580  0.1341
59386SOL    HW188472   7.697  12.947   2.671  2.6489  0.4982  1.5132
59386SOL    HW288473   7.654  12.835   2.763  1.4253  0.1911  0.5821
59387SOL     OW88474   4.897   3.373   5.246  0.0290 -0.2372  0.1111
59387SOL    HW188475   4.890   3.411   5.158  0.1077  2.8504  1.3400
59387SOL    HW288476   4.815   3.395   5.289  0.0549 -1.5890  0.9245
59388SOL     OW88477   7.274  12.199   7.635  0.1084  0.6197 -0.4172
59388SOL    HW188478   7.361  12.191   7.675 -0.6804  0.0626  1.3005
59388SOL    HW288479   7.216  12.218   7.709 -1.0192  2.7058 -1.7337
59389SOL     OW88480   0.117   8.083   0.415 -0.0119  0.4824  0.9020
59389SOL    HW188481   0.060   8.011   0.387 -0.7128  1.6275 -0.8154
59389SOL    HW288482   0.147   8.122   0.333 -0.0092  2.3972  1.7716
59390SOL     OW88483  12.166  11.197  12.179 -0.3734 -0.0410 -0.1776
59390SOL    HW188484  12.186  11.277  12.228 -0.0691 -0.3176  0.1591
59390SOL    HW288485  12.105  11.225  12.111 -1.3313  0.2299  0.7667
59391SOL     OW88486   2.395   8.551   2.936 -0.1543 -0.3380 -0.0558
59391SOL    HW188487   2.464   8.586   2.991  1.5713 -2.5681 -0.6355
59391SOL    HW288488   2.317   8.602   2.958  1.0591  0.5209  2.5576
59392SOL     OW88489   7.536   9.787  11.000 -0.0130 -0.2458 -0.1523
59392SOL    HW188490   7.486   9.708  10.980  0.7048 -0.8132  0.2554
59392SOL    HW288491   7.588   9.763  11.076 -0.0254  0.7292  0.1742
59393SOL     OW88492   5.933   0.490   6.361 -0.2532 -0.1042  0.0157
59393SOL    HW188493   5.844   0.512   6.335 -0.4964 -1.1283 -0.0562
59393SOL    HW288494   5.977   0.575   6.371 -1.1461  0.3981 -0.2355
59394SOL     OW88495   0.581  10.403   3.023  0.0652  0.1318  0.4284
59394SOL    HW188496   0.525  10.436   3.094  1.0603  0.1020  1.2540
59394SOL    HW288497   0.630  10.331   3.063  0.4319 -0.0781 -0.3826
59395SOL     OW88498   1.656   9.254   7.320  0.0613 -0.0022 -0.4182
59395SOL    HW188499   1.592   9.305   7.270 -0.3377 -1.2563 -1.2539
59395SOL    HW288500   1.664   9.300   7.404 -1.5432  0.4745 -0.4965
59396SOL     OW88501   0.666   6.082   4.746  0.1505  0.8028 -0.3354
59396SOL    HW188502   0.602   6.058   4.813  1.1484 -0.9447  0.0451
59396SOL    HW288503   0.627   6.053   4.664  0.2851  0.1061 -0.1533
59397SOL     OW88504  11.656   7.980   3.734 -0.4351  0.0285  0.2916
59397SOL    HW188505  11.664   7.959   3.827 -2.3966 -1.8262  0.1108
59397SOL    HW288506  11.595   8.053   3.730 -1.0014 -0.4326  0.4338
59398SOL     OW88507   6.185  11.024   5.289 -0.3814  0.1781  0.1596
59398SOL    HW188508   6.117  10.958   5.272 -1.7609  1.8643 -1.3565
59398SOL    HW288509   6.238  10.986   5.358 -1.1305 -2.4803 -0.5868
59399SOL     OW88510  10.210  10.640   1.920  0.0056 -0.3104  0.2891
59399SOL    HW188511  10.153  10.568   1.946  2.3455 -1.9282  1.3442
59399SOL    HW288512  10.240  10.679   2.002  0.3355  0.5896 -0.2351
59400SOL     OW88513   9.038   8.811  11.846  0.3227  0.6043  0.2825
59400SOL    HW188514   9.115   8.838  11.796 -0.1964 -2.1182 -2.3199
59400SOL    HW288515   8.984   8.763  11.783 -2.8749  1.1499  2.3301
59401SOL     OW88516   4.245   0.113  12.043  0.1970 -0.5455 -0.4488
59401SOL    HW188517   4.328   0.160  12.045  0.2007 -0.5780  0.3845
59401SOL    HW288518   4.270   0.022  12.026  0.3412 -0.5658 -0.1359
59402SOL     OW88519   4.024   1.240   7.625  0.3184  0.2908  0.4945
59402SOL    HW188520   4.027   1.227   7.530  1.1145  0.0280  0.5499
59402SOL    HW288521   3.952   1.302   7.638 -0.5198 -0.5014 -0.1786
59403SOL     OW88522  11.622  10.185   7.301  0.1385 -0.2305  0.4214
59403SOL    HW188523  11.716  10.196   7.311 -0.1013  2.3183  0.5184
59403SOL    HW288524  11.601  10.231   7.220 -1.1434  0.0995  0.9153
59404SOL     OW88525   9.756   8.505   7.130  0.1496 -0.0057 -0.5779
59404SOL    HW188526   9.743   8.510   7.225  0.5705 -0.0114 -0.5174
59404SOL    HW288527   9.850   8.517   7.119  0.0271  0.5482 -1.0358
59405SOL     OW88528   6.628  11.240   1.239  0.3301  0.1951  0.0826
59405SOL    HW188529   6.664  11.205   1.320 -0.4365  0.7318  0.6748
59405SOL    HW288530   6.698  11.231   1.175  0.4761 -1.5080  0.4494
59406SOL     OW88531   2.156  12.903   3.458  0.1248  0.5326 -0.1888
59406SOL    HW188532   2.102  12.973   3.496 -0.4493  1.0819 -1.9223
59406SOL    HW288533   2.228  12.892   3.520 -0.5698  1.6444  0.8545
59407SOL     OW88534   9.041  12.804   2.077 -0.2987  0.1644  0.0601
59407SOL    HW188535   8.994  12.769   2.001 -1.3936  1.6620  0.0031
59407SOL    HW288536   9.023  12.898   2.074  1.1408  0.4976  1.1595
59408SOL     OW88537   6.517   8.390   6.131 -0.4548 -0.2714  0.6619
59408SOL    HW188538   6.443   8.366   6.187 -0.0758 -0.4438  1.1007
59408SOL    HW288539   6.547   8.474   6.166 -1.4530  0.6394 -0.5474
59409SOL     OW88540   2.484   8.319   0.346 -0.0470  0.2450  0.5642
59409SOL    HW188541   2.455   8.249   0.287 -2.4505 -0.2659  2.1887
59409SOL    HW288542   2.435   8.396   0.316 -1.0334  0.0565  1.6122
59410SOL     OW88543   9.750   3.119   0.148  0.0227 -0.0892 -0.3786
59410SOL    HW188544   9.745   3.047   0.210 -0.2732  0.4414  0.2291
59410SOL    HW288545   9.670   3.170   0.164 -0.1253 -0.0140 -1.2877
59411SOL     OW88546   0.153   8.398  11.016 -0.4920  0.1714 -1.0162
59411SOL    HW188547   0.066   8.437  11.024 -0.2847  0.3449  1.0412
59411SOL    HW288548   0.197   8.421  11.098  1.3083 -0.3814 -1.7772
59412SOL     OW88549  10.602   5.335   4.022  0.6203  0.9968 -0.0806
59412SOL    HW188550  10.696   5.349   4.013  0.3709  2.2331 -0.8787
59412SOL    HW288551  10.561   5.406   3.973 -0.7486  1.1326  1.1658
59413SOL     OW88552   8.948   6.255   9.244 -0.0905 -0.1828  0.0148
59413SOL    HW188553   8.881   6.310   9.205  0.9479  1.4643  0.4273
59413SOL    HW288554   8.948   6.279   9.337  0.5526 -0.6817  0.1552
59414SOL     OW88555  11.556   3.526   4.042 -0.4121  0.1718 -0.1681
59414SOL    HW188556  11.511   3.459   4.094 -0.6830  1.2194  1.0205
59414SOL    HW288557  11.533   3.505   3.951 -0.8230 -1.0867  0.1973
59415SOL     OW88558  11.628   2.678  11.836  0.4038 -0.5804  0.1485
59415SOL    HW188559  11.599   2.660  11.925 -1.5662 -2.7845 -0.8351
59415SOL    HW288560  11.654   2.592  11.802  1.2273  0.2417 -1.3767
59416SOL     OW88561   5.749   5.285   4.882  0.5722 -0.2339 -0.2757
59416SOL    HW188562   5.844   5.285   4.897  0.3541 -0.3594  1.3056
59416SOL    HW288563   5.739   5.317   4.792  2.1211 -0.5251 -0.5850
59417SOL     OW88564   2.913   1.571   1.316  0.0137 -0.7052 -0.5275
59417SOL    HW188565   2.869   1.653   1.293  0.0214 -0.6548 -0.3649
59417SOL    HW288566   2.902   1.516   1.239 -1.7631 -1.2877  0.1090
59418SOL     OW88567   0.078   4.040   0.597 -0.1185 -0.3011  0.1045
59418SOL    HW188568   0.007   4.101   0.617  0.5422  0.3060  0.6635
59418SOL    HW288569   0.047   3.991   0.521 -0.6762  0.7145 -0.3487
59419SOL     OW88570   2.622   2.123   3.748 -0.0908  0.4917 -0.1961
59419SOL    HW188571   2.603   2.033   3.776 -0.1029  0.4767 -0.2524
59419SOL    HW288572   2.620   2.119   3.652  1.0697  0.2981 -0.2257
59420SOL     OW88573  12.796   6.586   4.665 -0.0525  0.4316 -0.0183
59420SOL    HW188574  12.742   6.660   4.691  0.4575  0.5944  0.5919
59420SOL    HW288575  12.840   6.558   4.745  1.9821  1.3063 -0.7604
59421SOL     OW88576   3.124   7.176  10.547  0.5074 -0.5707 -0.3351
59421SOL    HW188577   3.100   7.257  10.592 -0.4527  0.1531 -2.0440
59421SOL    HW288578   3.141   7.203  10.456 -2.3348 -2.5465 -1.6155
59422SOL     OW88579   8.303   1.669   7.691 -0.1068 -0.2273  1.1607
59422SOL    HW188580   8.211   1.677   7.716 -0.5755 -1.9336  0.1422
59422SOL    HW288581   8.351   1.696   7.769 -1.4445  1.2102  1.5444
59423SOL     OW88582   7.351   8.084   5.365 -0.1949 -0.2963 -0.3835
59423SOL    HW188583   7.289   8.047   5.429 -0.1436 -0.4771 -0.4356
59423SOL    HW288584   7.369   8.011   5.306  2.3918 -1.2029  1.3561
59424SOL     OW88585   7.735   1.692   7.306  0.4168 -0.4648  0.5541
59424SOL    HW188586   7.712   1.773   7.262 -1.8455 -0.0855  2.2292
59424SOL    HW288587   7.745   1.628   7.235 -1.4467  0.4706 -0.6467
59425SOL     OW88588   6.305   3.982   3.471 -0.0714 -0.3262 -0.3968
59425SOL    HW188589   6.267   4.026   3.548 -0.3434 -2.0210  0.4788
59425SOL    HW288590   6.263   4.025   3.396 -0.6419  0.6068  0.4269
59426SOL     OW88591  12.903   9.104  12.339 -0.4163  0.6181  0.4106
59426SOL    HW188592  12.976   9.143  12.291  1.2022  1.1751  3.1301
59426SOL    HW288593  12.833   9.169  12.333 -0.4498  0.4675 -1.4878
59427SOL     OW88594   7.148   0.555   4.302  0.4129  0.5749  0.0464
59427SOL    HW188595   7.056   0.570   4.323  0.2118 -1.1373  0.5005
59427SOL    HW288596   7.181   0.641   4.277 -1.4842  1.1017 -0.8069
59428SOL     OW88597  10.924   0.097  12.388 -0.3858  0.2168  0.2308
59428SOL    HW188598  10.928   0.102  12.483  1.4745 -0.0634  0.2179
59428SOL    HW288599  10.878   0.177  12.362  1.4364  1.7188  1.2960
59429SOL     OW88600   4.977   1.411   9.957 -0.0831  0.0256 -0.9012
59429SOL    HW188601   4.954   1.491   9.909  0.3807  0.3559 -0.5740
59429SOL    HW288602   5.070   1.421   9.977 -0.7139  1.0072  2.1292
59430SOL     OW88603  12.583   1.319   1.393  0.1851  0.5579  0.9993
59430SOL    HW188604  12.593   1.313   1.488 -1.5769  0.5430  1.2237
59430SOL    HW288605  12.561   1.229   1.366 -0.7926  0.8552  0.7891
59431SOL     OW88606  10.006   9.138   1.256  0.4566  0.6873 -0.3367
59431SOL    HW188607   9.971   9.058   1.294 -0.3536  1.2960  0.2079
59431SOL    HW288608  10.040   9.111   1.170  2.5295 -0.7387  0.8537
59432SOL     OW88609   1.026  12.186   5.288 -0.3968 -0.6563  0.2185
59432SOL    HW188610   1.033  12.281   5.283 -1.5801 -0.6104 -2.0440
59432SOL    HW288611   1.107  12.157   5.331  0.0110  1.3391  0.8715
59433SOL     OW88612  10.676   8.721   9.073  0.0225 -0.5952 -0.4151
59433SOL    HW188613  10.744   8.677   9.022 -0.4751 -1.5847 -0.2574
59433SOL    HW288614  10.661   8.663   9.147  1.6785  1.4462  1.6653
59434SOL     OW88615   9.110  10.407   0.424 -0.6883  0.9193 -0.0902
59434SOL    HW188616   9.099  10.459   0.504 -0.7126  0.1312  0.4310
59434SOL    HW288617   9.204  10.413   0.405 -0.1772 -0.9676  1.4833
59435SOL     OW88618   9.414   5.089   7.294  0.0397  0.1597  0.2662
59435SOL    HW188619   9.414   5.001   7.256 -0.6933  0.4987 -0.5632
59435SOL    HW288620   9.504   5.104   7.320  0.0408 -1.1160  1.0861
59436SOL     OW88621  12.641   8.983   5.972 -0.0331  0.6104 -0.0578
59436SOL    HW188622  12.659   9.004   5.880  2.2242 -1.4488 -0.2055
59436SOL    HW288623  12.726   8.993   6.016 -0.9354  0.9516  1.6970
59437SOL     OW88624   2.635   5.906   9.698  0.2646  0.3878  0.5079
59437SOL    HW188625   2.604   5.977   9.642 -0.0824  0.7973  1.2131
59437SOL    HW288626   2.724   5.888   9.668 -0.5042 -0.6106 -1.3736
59438SOL     OW88627   4.220   7.076   4.364  0.1692 -0.0025 -0.4594
59438SOL    HW188628   4.161   7.025   4.419  0.5946  0.7211  0.7173
59438SOL    HW288629   4.172   7.089   4.282 -0.4003 -1.2672 -0.3482
59439SOL     OW88630   5.440  10.154   4.855 -0.0129 -0.1669 -0.1997
59439SOL    HW188631   5.447  10.129   4.762  0.2048 -2.7920  0.4505
59439SOL    HW288632   5.351  10.131   4.879 -0.7339  2.3388 -0.1583
59440SOL     OW88633   3.011   8.959   0.995  0.2577 -0.3193  0.5157
59440SOL    HW188634   3.081   9.011   0.957 -0.1690 -1.1858 -1.6021
59440SOL    HW288635   2.968   9.017   1.056 -0.5367  2.0562 -2.1098
59441SOL     OW88636   0.123  12.897   5.621 -0.4380 -0.1011  0.0110
59441SOL    HW188637   0.070  12.820   5.645 -0.5233 -0.1949 -0.4483
59441SOL    HW288638   0.180  12.912   5.696  0.0980 -1.0741 -0.1787
59442SOL     OW88639   0.442   5.984  10.736 -0.2262  0.5444 -0.0542
59442SOL    HW188640   0.455   5.974  10.642 -0.7539  1.2058 -0.2039
59442SOL    HW288641   0.354   5.948  10.752  0.6631 -1.5316  0.5363
59443SOL     OW88642   0.320   1.311   7.190  0.0265  0.3214 -0.0916
59443SOL    HW188643   0.242   1.288   7.240 -0.3351  1.2878 -0.1777
59443SOL    HW288644   0.304   1.401   7.162  0.8520  0.2773 -0.7381
59444SOL     OW88645  10.178   4.312  12.465 -0.0950  0.3553 -0.2295
59444SOL    HW188646  10.185   4.403  12.493  0.6060  0.2737 -0.1015
59444SOL    HW288647  10.086   4.291  12.474 -0.0700  0.6640  1.0085
59445SOL     OW88648   5.546   0.559   4.987  0.2619  0.0052 -0.3258
59445SOL    HW188649   5.554   0.642   4.940  0.1216 -0.9558 -2.1414
59445SOL    HW288650   5.608   0.501   4.942 -0.4007 -1.1546  0.2339
59446SOL     OW88651   6.562  11.128   1.950  0.0060  0.7026 -0.3693
59446SOL    HW188652   6.491  11.069   1.975 -0.5009  0.0779 -3.0381
59446SOL    HW288653   6.526  11.181   1.879  1.3796  2.2750  0.0376
59447SOL     OW88654   8.691   1.580   3.970 -0.3646  0.1348  1.0076
59447SOL    HW188655   8.628   1.651   3.962 -1.4852 -0.8984  0.2612
59447SOL    HW288656   8.759   1.601   3.907 -1.0674  0.1909  0.2444
59448SOL     OW88657   6.264   0.031   5.009 -0.2907 -0.1549  0.0119
59448SOL    HW188658   6.320   0.085   4.952  0.6402 -0.6804  0.4137
59448SOL    HW288659   6.228   0.093   5.072 -2.7089  0.7791 -2.0803
59449SOL     OW88660   5.186  10.791  10.694  0.0110 -0.7039 -0.0432
59449SOL    HW188661   5.256  10.842  10.735  1.2535 -1.3663 -1.2592
59449SOL    HW288662   5.109  10.848  10.698  0.8965  0.5005  0.3076
59450SOL     OW88663   2.467   0.381   4.825  0.1057 -0.0256  1.0618
59450SOL    HW188664   2.532   0.311   4.833 -1.7322 -1.6738  2.7546
59450SOL    HW288665   2.387   0.343   4.861 -1.7243  2.0490 -0.5378
59451SOL     OW88666   3.371   5.778  10.309 -0.7172  0.0258 -0.4277
59451SOL    HW188667   3.375   5.773  10.214  1.3579  1.3217 -0.4862
59451SOL    HW288668   3.462   5.768  10.337 -0.7995  2.6815  1.1616
59452SOL     OW88669  10.541   7.106   1.883 -0.0693 -0.4714 -0.3258
59452SOL    HW188670  10.525   7.023   1.838  0.9797  0.1185 -1.8648
59452SOL    HW288671  10.601   7.083   1.955  1.3956 -0.8522 -1.6248
59453SOL     OW88672   9.972   4.431   7.485  0.1374  0.1407  0.3563
59453SOL    HW188673   9.903   4.478   7.531  0.4099 -0.1070  1.0357
59453SOL    HW288674  10.032   4.499   7.454 -2.0890  0.7594 -3.3139
59454SOL     OW88675  11.956  10.108   3.815 -0.5795 -0.1894  0.2083
59454SOL    HW188676  12.047  10.134   3.827 -0.6774  0.5443 -0.5790
59454SOL    HW288677  11.914  10.183   3.772 -1.7543 -0.1833  1.2843
59455SOL     OW88678   8.920   1.997  12.745  0.6725 -0.2002  0.2806
59455SOL    HW188679   9.009   2.000  12.711 -0.1629 -1.7006 -2.2713
59455SOL    HW288680   8.899   2.088  12.766  1.4785  0.8205 -2.8731
59456SOL     OW88681   5.311   9.363   0.159 -0.2760 -0.5123 -0.4326
59456SOL    HW188682   5.343   9.384   0.246  0.1272  0.3983 -0.7844
59456SOL    HW288683   5.217   9.350   0.171 -0.7307  2.2626 -0.2451
59457SOL     OW88684   1.275   2.056  12.229 -0.7285  0.5234  0.0465
59457SOL    HW188685   1.262   2.014  12.314  0.9260 -0.9663 -0.3764
59457SOL    HW288686   1.363   2.092  12.234 -0.3657 -0.1396 -1.2418
59458SOL     OW88687   8.826   9.980   6.852  0.0420 -0.0432 -0.0349
59458SOL    HW188688   8.762   9.958   6.785 -1.4478 -2.1201  1.9062
59458SOL    HW288689   8.799  10.067   6.883  0.1304  0.4803 -1.3462
59459SOL     OW88690   9.339   4.052   0.833 -0.0237 -0.0817 -0.6431
59459SOL    HW188691   9.370   3.965   0.859 -0.7658  0.1385  1.1821
59459SOL    HW288692   9.293   4.038   0.750  0.8941 -1.2040 -0.9797
59460SOL     OW88693   8.737   3.237   6.672  0.1323 -0.1516  0.2791
59460SOL    HW188694   8.813   3.282   6.637 -1.9713  1.7118 -2.2884
59460SOL    HW288695   8.694   3.302   6.728 -0.7407 -0.3730 -0.1072
59461SOL     OW88696   0.888   1.919   1.041  0.0936 -0.3230  0.1246
59461SOL    HW188697   0.908   1.861   0.967 -1.3334 -2.1018  1.0305
59461SOL    HW288698   0.961   1.981   1.044  0.4029 -0.4343 -2.4980
59462SOL     OW88699  12.530   3.395   3.133  0.4759  0.1535 -0.2729
59462SOL    HW188700  12.524   3.422   3.041  3.5826 -0.5781 -0.7986
59462SOL    HW288701  12.488   3.466   3.182 -1.0262  0.6847 -2.1883
59463SOL     OW88702   0.237   7.046  12.942  0.2350 -0.1869 -0.6552
59463SOL    HW188703   0.273   7.132  12.922  0.8360 -0.1633  0.4623
59463SOL    HW288704   0.270   6.990  12.871  1.0044  0.2091 -0.6199
59464SOL     OW88705   5.060   3.941   9.207  0.0635 -0.6427 -0.7531
59464SOL    HW188706   4.998   3.892   9.261  0.8321 -0.3081  0.4802
59464SOL    HW288707   5.060   3.896   9.123 -3.0103  0.2648 -1.3591
59465SOL     OW88708   4.952   5.053   7.527 -0.1372  0.1453 -0.2058
59465SOL    HW188709   4.995   4.993   7.467 -1.8097  0.2791 -1.6172
59465SOL    HW288710   5.023   5.095   7.575  1.1170 -2.7321  0.6833
59466SOL     OW88711   0.758   6.093  10.444  0.4291 -0.3069  0.0200
59466SOL    HW188712   0.727   6.182  10.458  0.1032 -0.5512  0.8859
59466SOL    HW288713   0.784   6.091  10.352 -0.9037  0.2720 -0.3823
59467SOL     OW88714   5.471  11.397   7.993 -0.3884 -0.4541  0.4924
59467SOL    HW188715   5.382  11.409   7.959 -0.7045 -0.3595  1.3398
59467SOL    HW288716   5.516  11.348   7.924 -0.8302  0.2954 -0.3430
59468SOL     OW88717   7.665   2.078   6.582  0.0947  0.3112  0.7795
59468SOL    HW188718   7.701   2.151   6.532  2.0683 -1.4662 -0.5937
59468SOL    HW288719   7.721   2.072   6.660  0.9404 -0.6441  0.1176
59469SOL     OW88720  12.657   3.271  10.473  0.4054  0.0693  0.6728
59469SOL    HW188721  12.738   3.311  10.441  0.4574 -0.3928  0.2163
59469SOL    HW288722  12.623   3.222  10.398  0.7719 -1.4152  1.4471
59470SOL     OW88723   5.178   7.838   6.518  0.4323 -0.1051  0.1472
59470SOL    HW188724   5.143   7.908   6.574  0.4075  0.1980 -0.2441
59470SOL    HW288725   5.107   7.773   6.514  0.0024  0.3910 -0.4435
59471SOL     OW88726   2.669   4.741   6.357 -0.1711 -0.3011 -0.7160
59471SOL    HW188727   2.699   4.812   6.300  0.8791 -1.6811 -1.9705
59471SOL    HW288728   2.720   4.665   6.329 -0.7822 -1.4119  1.0304
59472SOL     OW88729   9.703   4.159   9.471  0.1171  0.1695  0.2927
59472SOL    HW188730   9.704   4.254   9.471 -1.0690  0.2050  0.4731
59472SOL    HW288731   9.618   4.136   9.509  0.7635 -0.9681  1.1318
59473SOL     OW88732   0.060   3.600  10.708 -0.7492 -0.5512  0.1872
59473SOL    HW188733   0.099   3.604  10.795 -0.4674 -1.6311  0.1239
59473SOL    HW288734  -0.026   3.561  10.722 -0.1673 -2.0544 -0.1516
59474SOL     OW88735   8.655   4.475   4.198  0.1622  0.6287  0.2911
59474SOL    HW188736   8.597   4.409   4.159  0.1444  0.5860  0.3903
59474SOL    HW288737   8.619   4.489   4.286  0.9246 -0.1775  0.7561
59475SOL     OW88738   3.134  10.638  12.600  0.2579 -0.3141  0.0571
59475SOL    HW188739   3.186  10.691  12.660  0.0333  0.1468 -0.1565
59475SOL    HW288740   3.076  10.587  12.657 -0.7032  0.9030  0.1997
59476SOL     OW88741  10.586   2.821  11.726  0.3457  0.1148 -0.0025
59476SOL    HW188742  10.500   2.785  11.708  0.9000 -1.1834 -0.1110
59476SOL    HW288743  10.569   2.895  11.785 -0.9350  0.7184 -1.0808
59477SOL     OW88744   3.469  11.278   7.394  0.1200  0.4594  0.6047
59477SOL    HW188745   3.495  11.297   7.304  0.2803  3.1197  1.1398
59477SOL    HW288746   3.379  11.244   7.386  0.2704  0.2994 -0.5591
59478SOL     OW88747   2.465   5.114   2.610  0.0335  0.0171  0.1335
59478SOL    HW188748   2.446   5.113   2.516  0.9571  0.9081 -0.0765
59478SOL    HW288749   2.522   5.038   2.623 -1.0437 -0.8020  0.2038
59479SOL     OW88750   5.658   1.885  10.561 -0.1911  0.1398  0.9059
59479SOL    HW188751   5.579   1.933  10.536 -0.5645 -0.1573  1.4847
59479SOL    HW288752   5.642   1.861  10.652 -0.2812 -1.6207  0.4569
59480SOL     OW88753   4.812   5.169   6.537  0.4897  0.1505  0.0664
59480SOL    HW188754   4.865   5.189   6.614  0.1522 -0.4933  0.4808
59480SOL    HW288755   4.859   5.098   6.493  0.6999  0.5399 -0.3507
59481SOL     OW88756   9.233   9.813   3.120  0.1335  0.2035  0.4438
59481SOL    HW188757   9.158   9.870   3.136  1.6663  2.4231  0.3176
59481SOL    HW288758   9.300   9.872   3.085  1.6891 -1.8212 -0.1997
59482SOL     OW88759   3.566   6.492   0.582  0.0331  0.0517 -0.2503
59482SOL    HW188760   3.630   6.421   0.576  0.2164  0.3144 -2.1174
59482SOL    HW288761   3.563   6.529   0.494  0.2315  2.6224  0.7257
59483SOL     OW88762  10.061   4.743   7.003 -0.3561 -0.4989  0.5004
59483SOL    HW188763  10.014   4.795   7.067  0.2650 -0.7079  1.1441
59483SOL    HW288764  10.117   4.805   6.958 -3.0661  0.2606 -2.1169
59484SOL     OW88765  11.203   3.591   6.738 -0.8971 -0.8813  0.3279
59484SOL    HW188766  11.246   3.506   6.723 -0.7886 -0.8853  0.6514
59484SOL    HW288767  11.131   3.593   6.675  0.0610 -0.5340 -0.7788
59485SOL     OW88768   3.918   6.817  12.070  0.3279  0.1083  0.7936
59485SOL    HW188769   3.837   6.860  12.096 -0.8741 -1.0703 -0.7055
59485SOL    HW288770   3.944   6.861  11.989 -0.0704 -0.9330  0.0763
59486SOL     OW88771   0.660   2.517   4.421  0.1117  0.0136  0.0617
59486SOL    HW188772   0.572   2.490   4.447  0.1265  0.2214  0.3312
59486SOL    HW288773   0.652   2.537   4.328 -0.5426  1.6814  0.4409
59487SOL     OW88774  11.359   7.076   5.831 -0.2507 -0.6909  0.2143
59487SOL    HW188775  11.360   7.024   5.911 -1.0997  0.5391  1.0573
59487SOL    HW288776  11.277   7.053   5.788 -0.3090 -0.5586  0.2533
59488SOL     OW88777  10.353  11.553   8.356 -0.1753  0.1866 -0.2909
59488SOL    HW188778  10.290  11.619   8.330 -0.9790 -0.4048  0.0815
59488SOL    HW288779  10.402  11.532   8.277 -0.1036  1.0176 -0.4662
59489SOL     OW88780   7.709   0.396   8.846 -0.1284  0.2986  0.3966
59489SOL    HW188781   7.680   0.486   8.860  1.2092  0.8001  0.0619
59489SOL    HW288782   7.705   0.356   8.932 -0.0665  0.8838  0.6765
59490SOL     OW88783   6.069   0.499   9.238  0.0898 -0.3844  0.3648
59490SOL    HW188784   6.076   0.590   9.267 -2.6644  0.1123 -0.2827
59490SOL    HW288785   5.982   0.471   9.266 -0.6969 -1.5172 -2.8509
59491SOL     OW88786  11.590   1.520   8.739  0.0651 -0.0200  0.1750
59491SOL    HW188787  11.530   1.535   8.812 -0.9693 -0.9379 -0.4496
59491SOL    HW288788  11.677   1.530   8.777 -0.4669  1.3109  1.1224
59492SOL     OW88789  12.672  11.750   1.663  0.0327 -0.4780 -0.0539
59492SOL    HW188790  12.654  11.725   1.753  0.9267  0.4017  0.3969
59492SOL    HW288791  12.617  11.692   1.610 -1.4616 -0.1666  1.0890
59493SOL     OW88792   7.640  12.541   8.353  0.1984  0.4409 -0.0912
59493SOL    HW188793   7.663  12.455   8.317 -1.4071  0.5737 -1.5612
59493SOL    HW288794   7.678  12.542   8.441  0.9568 -1.4353 -0.3648
59494SOL     OW88795   1.815   9.600   9.740  0.1568  0.6776  0.3396
59494SOL    HW188796   1.832   9.559   9.655 -1.8019  1.6773 -0.6028
59494SOL    HW288797   1.897   9.589   9.789 -0.3502 -4.9749  0.5367
59495SOL     OW88798   7.721  12.007   7.641 -0.0260 -0.1032  0.5771
59495SOL    HW188799   7.678  11.979   7.721  0.6175 -0.2060  0.8931
59495SOL    HW288800   7.789  12.068   7.670 -0.6715  0.9161 -0.0080
59496SOL     OW88801   2.759   8.324   0.266  0.3594 -0.1028 -0.3065
59496SOL    HW188802   2.723   8.379   0.197 -0.3126 -0.9027 -0.6114
59496SOL    HW288803   2.682   8.289   0.312  0.7743 -0.5128  0.0950
59497SOL     OW88804   0.389   9.554   6.055 -0.4034  0.2876  0.4131
59497SOL    HW188805   0.347   9.483   6.007  3.2086 -2.6406  1.1943
59497SOL    HW288806   0.391   9.627   5.992 -2.8040 -0.7126 -0.9777
59498SOL     OW88807   2.498   5.336  10.663  0.1871 -0.4423 -1.0846
59498SOL    HW188808   2.522   5.250  10.628 -0.8438 -1.0645 -0.3058
59498SOL    HW288809   2.482   5.321  10.756 -2.0697  0.1548 -1.3169
59499SOL     OW88810   1.019  10.181   3.855  0.0042 -0.3596 -0.4430
59499SOL    HW188811   0.929  10.185   3.888 -0.5447 -0.0860 -1.9218
59499SOL    HW288812   1.045  10.273   3.844 -0.2556 -0.4396 -1.8739
59500SOL     OW88813  11.590   1.597   6.816  0.6832 -0.4304  0.3542
59500SOL    HW188814  11.599   1.580   6.910  1.5070 -1.0479  0.1750
59500SOL    HW288815  11.620   1.687   6.805  1.3561 -0.6210  0.5722
59501SOL     OW88816   1.625   7.126   0.389  0.0979 -0.2795  0.2249
59501SOL    HW188817   1.559   7.188   0.419 -1.3221 -0.5378 -2.0717
59501SOL    HW288818   1.602   7.043   0.431 -0.1802 -0.0432  0.5375
59502SOL     OW88819   3.640   6.123   7.262  0.1626 -0.4548  0.5435
59502SOL    HW188820   3.546   6.135   7.245  0.3584 -0.8773 -0.9521
59502SOL    HW288821   3.653   6.160   7.349 -0.9343  1.8854 -0.2006
59503SOL     OW88822   4.490   9.277   2.917 -0.2967 -0.5191  0.1881
59503SOL    HW188823   4.410   9.257   2.964 -0.9404  1.8325  0.2198
59503SOL    HW288824   4.460   9.307   2.831  0.4182  1.4374  0.5709
59504SOL     OW88825   1.218   8.537  10.032  0.1682 -0.2131 -0.0916
59504SOL    HW188826   1.242   8.616   9.984  1.0537 -1.0592 -1.1143
59504SOL    HW288827   1.127   8.521  10.007  0.6700 -0.7451 -1.7201
59505SOL     OW88828   8.139   0.081   5.854  0.3316  0.1872 -0.0360
59505SOL    HW188829   8.073   0.071   5.922  0.1211  0.2035 -0.2386
59505SOL    HW288830   8.100   0.140   5.790 -0.0136 -0.9177 -0.8608
59506SOL     OW88831   9.091   4.621   7.262 -0.2877  0.6277 -0.5514
59506SOL    HW188832   8.996   4.612   7.274 -0.4446  0.8714 -1.5328
59506SOL    HW288833   9.122   4.532   7.250 -0.5194  0.6123 -1.0723
59507SOL     OW88834   4.107  11.573  11.211  0.2411  0.2077 -0.4509
59507SOL    HW188835   4.063  11.624  11.279  1.8833 -1.4105  2.0172
59507SOL    HW288836   4.200  11.591  11.224  0.6421 -0.7550 -1.7666
59508SOL     OW88837   1.671   7.925   3.692 -0.2800  0.5420  0.1002
59508SOL    HW188838   1.766   7.924   3.703 -0.1124  1.3225 -1.0105
59508SOL    HW288839   1.656   7.991   3.623 -1.6008  0.2483  0.0792
59509SOL     OW88840   6.378   3.824   9.839  0.1788 -0.2502  0.2323
59509SOL    HW188841   6.404   3.739   9.805  0.6110 -0.6150  1.4113
59509SOL    HW288842   6.285   3.814   9.860 -0.2486  0.1633 -1.3291
59510SOL     OW88843  11.015   0.373   8.523  0.2417  0.1985 -0.3766
59510SOL    HW188844  11.008   0.468   8.528 -1.0316  0.0610  1.0474
59510SOL    HW288845  11.079   0.358   8.453  0.4858  2.0827 -0.6214
59511SOL     OW88846   9.418   8.675  10.520  0.0478  0.2197 -0.0182
59511SOL    HW188847   9.483   8.667  10.450 -2.6637 -0.3185 -2.6799
59511SOL    HW288848   9.396   8.769  10.521  0.6326  0.3626  0.7244
59512SOL     OW88849   0.853   6.182   4.059 -0.1214  0.2697 -0.3633
59512SOL    HW188850   0.893   6.109   4.011 -1.0296  0.4235 -1.4048
59512SOL    HW288851   0.763   6.184   4.027 -0.0757  1.9224 -0.4274
59513SOL     OW88852   1.387  12.824  10.329 -0.1057 -0.1566  0.1566
59513SOL    HW188853   1.352  12.911  10.314  0.2836  0.0230  0.2867
59513SOL    HW288854   1.393  12.785  10.242 -2.3853 -0.8951  0.2392
59514SOL     OW88855  12.171   4.372   0.365  0.1288  0.4910  0.5436
59514SOL    HW188856  12.076   4.376   0.360  0.0918 -0.5143  0.2345
59514SOL    HW288857  12.190   4.281   0.387  0.9997  0.8304  1.2442
59515SOL     OW88858  11.624  12.694   4.653 -0.9834  0.0842  0.2297
59515SOL    HW188859  11.608  12.640   4.731 -0.1639  0.3566  0.5990
59515SOL    HW288860  11.601  12.783   4.682  2.2583  0.7166  1.2029
59516SOL     OW88861   0.616   3.155   8.903  0.5417 -0.4047  0.6220
59516SOL    HW188862   0.542   3.156   8.842  0.0625  1.1127  1.1934
59516SOL    HW288863   0.607   3.071   8.949 -0.5559 -0.4500  0.3493
59517SOL     OW88864   9.525  11.552   1.378  0.2748 -0.6757  0.8381
59517SOL    HW188865   9.587  11.586   1.442 -0.5398 -1.1502  1.9281
59517SOL    HW288866   9.537  11.606   1.300  0.4959  0.6914  1.7909
59518SOL     OW88867   6.728  10.244   0.143 -0.4710 -0.0578  0.2904
59518SOL    HW188868   6.742  10.314   0.207 -0.3200  1.4292 -1.2865
59518SOL    HW288869   6.689  10.173   0.193 -2.3458  1.7987  1.6668
59519SOL     OW88870   7.381  11.006   0.730  0.0303  0.2980 -0.3738
59519SOL    HW188871   7.307  10.966   0.776 -0.2627  1.6729  0.4028
59519SOL    HW288872   7.374  11.099   0.750  1.3808  0.5910 -1.1531
59520SOL     OW88873   2.380   7.798   3.659 -0.5292 -0.1766  0.2250
59520SOL    HW188874   2.463   7.844   3.671 -0.0687 -0.8401 -0.3433
59520SOL    HW288875   2.328   7.855   3.602 -0.3348  0.0807  0.3058
59521SOL     OW88876  11.879   8.901  12.378  0.1306  0.0714  0.1062
59521SOL    HW188877  11.827   8.864  12.307  0.9192  0.7137 -0.8229
59521SOL    HW288878  11.885   8.831  12.443 -1.4177 -0.1969 -0.0064
59522SOL     OW88879  11.342   1.766   3.935 -0.2750  0.5005  0.3488
59522SOL    HW188880  11.296   1.683   3.930  2.2897 -0.9609 -1.2245
59522SOL    HW288881  11.400   1.757   4.011  1.4292  0.0012 -0.9641
59523SOL     OW88882   7.000   9.156  12.688  0.6387  0.1458 -0.3829
59523SOL    HW188883   6.906   9.140  12.678  0.7659 -2.3076  1.3817
59523SOL    HW288884   7.041   9.075  12.660  1.9981  0.0726  1.6118
59524SOL     OW88885   0.682   2.279   0.022 -0.1221 -1.5538  0.3965
59524SOL    HW188886   0.638   2.272   0.107  0.3359 -0.6763  0.7135
59524SOL    HW288887   0.757   2.335   0.038  0.3596 -1.9363 -0.4476
59525SOL     OW88888   1.715   8.323  12.583  0.4075  0.2691 -0.3910
59525SOL    HW188889   1.764   8.241  12.581  0.1383  0.1106 -0.8577
59525SOL    HW288890   1.626   8.297  12.606  0.2973  0.4126 -0.6475
59526SOL     OW88891   6.205  11.928   2.237 -0.0606  0.5453  0.3007
59526SOL    HW188892   6.182  11.916   2.145  0.5181 -1.5524  0.3707
59526SOL    HW288893   6.283  11.983   2.235  0.1904  0.1801 -0.5062
59527SOL     OW88894  11.686   0.116   2.527 -0.0321  0.6488 -0.3483
59527SOL    HW188895  11.666   0.171   2.603 -1.2012  1.0882 -0.9445
59527SOL    HW288896  11.688   0.027   2.561 -0.9731  0.8028  0.1480
59528SOL     OW88897  10.678  10.595  11.603  0.1083  0.0230 -0.1311
59528SOL    HW188898  10.655  10.550  11.685  0.4150 -1.9671 -1.0661
59528SOL    HW288899  10.742  10.661  11.629  1.5465 -1.7315  1.0801
59529SOL     OW88900   6.407   7.893   1.941  0.5616 -0.5064  0.5645
59529SOL    HW188901   6.414   7.973   1.889  1.5187  0.3899  2.0248
59529SOL    HW288902   6.313   7.881   1.955  0.4425  0.7751  0.9462
59530SOL     OW88903  10.562   4.330  10.742 -0.4600 -0.0563  0.4315
59530SOL    HW188904  10.569   4.261  10.808  2.3698 -0.2738  0.0065
59530SOL    HW288905  10.535   4.284  10.662  0.9186 -0.6132  0.2715
59531SOL     OW88906  11.946   1.118   3.054  0.0642 -0.5197  0.0744
59531SOL    HW188907  12.000   1.106   3.132 -1.0612 -1.0596  0.8084
59531SOL    HW288908  11.917   1.209   3.059 -1.1699 -0.9256  1.1178
59532SOL     OW88909  12.755  12.658  10.015  0.1145  0.6300  0.2336
59532SOL    HW188910  12.671  12.616   9.997  0.8588 -0.4350 -0.8886
59532SOL    HW288911  12.733  12.750  10.030 -1.2467  0.3613 -0.0117
59533SOL     OW88912   4.466   1.982  11.985  0.4323 -0.6988  0.5146
59533SOL    HW188913   4.399   1.996  12.052 -0.2771 -2.1830  0.1659
59533SOL    HW288914   4.468   1.887  11.973  2.1758 -0.6364  0.0578
59534SOL     OW88915  10.547   9.705   0.387 -0.2644  0.3142 -0.2546
59534SOL    HW188916  10.555   9.644   0.314 -0.4385 -0.2275  0.1660
59534SOL    HW288917  10.610   9.674   0.452  0.7633  1.5180 -0.6535
59535SOL     OW88918   6.454   3.605   8.482 -0.4002 -0.0039  0.3990
59535SOL    HW188919   6.486   3.653   8.406  0.5994 -1.1140  0.0914
59535SOL    HW288920   6.375   3.653   8.509  0.8840  2.1742  0.5104
59536SOL     OW88921   0.767   2.787  11.135  0.3713  0.3127  0.5060
59536SOL    HW188922   0.765   2.871  11.181  0.4216  0.2882  0.5534
59536SOL    HW288923   0.858   2.756  11.144  0.3853  0.3144  0.3774
59537SOL     OW88924   2.017   4.497   1.034  0.5622  0.2437 -0.3341
59537SOL    HW188925   2.065   4.561   0.981  2.3972 -1.1007 -0.3675
59537SOL    HW288926   2.045   4.514   1.124  0.8543 -0.3488 -0.3134
59538SOL     OW88927   2.413   6.763   6.580 -0.3487 -0.0746 -0.3780
59538SOL    HW188928   2.481   6.698   6.562 -1.1727 -0.5974 -1.7070
59538SOL    HW288929   2.424   6.784   6.673  0.3559 -1.6271 -0.0849
59539SOL     OW88930   4.531   2.049  10.222 -0.5516 -0.5384  0.0076
59539SOL    HW188931   4.608   1.995  10.239 -0.5377 -0.3924  0.4035
59539SOL    HW288932   4.509   2.030  10.131  0.1724 -0.3095 -0.2269
59540SOL     OW88933   9.220  11.767  11.103 -0.4541 -0.1765  0.1037
59540SOL    HW188934   9.207  11.675  11.084 -1.0960 -0.0321 -0.1792
59540SOL    HW288935   9.190  11.813  11.025 -0.6423  0.2925  0.4422
59541SOL     OW88936  11.371  12.123   1.011 -0.5565 -0.0498  0.2029
59541SOL    HW188937  11.350  12.172   1.091 -1.3540  0.1437 -0.1133
59541SOL    HW288938  11.345  12.181   0.940  0.1378 -0.2263 -0.2024
59542SOL     OW88939   3.077   2.955   3.385 -0.5740 -0.0194 -0.3429
59542SOL    HW188940   3.017   3.029   3.399  0.4998  0.6290  1.1214
59542SOL    HW288941   3.116   2.971   3.300  0.4591  1.7406  0.4164
59543SOL     OW88942   7.119  11.893  10.587 -0.1807  0.2596  0.0039
59543SOL    HW188943   7.059  11.864  10.518  0.0796  0.8340 -0.4729
59543SOL    HW288944   7.192  11.831  10.582 -0.3722  0.0252  0.0706
59544SOL     OW88945   2.594  11.749   8.599  0.3052  0.2521  0.2084
59544SOL    HW188946   2.611  11.749   8.505  0.1925  1.4832  0.1722
59544SOL    HW288947   2.504  11.781   8.607  0.9106  1.9203  0.8034
59545SOL     OW88948  10.745   9.363   8.751  0.0805  0.2814 -0.5117
59545SOL    HW188949  10.692   9.338   8.676  1.0137 -1.6258 -0.6103
59545SOL    HW288950  10.833   9.328   8.731  0.7033  1.0127  0.8092
59546SOL     OW88951  11.663  11.978  12.039 -0.5596 -0.2995  0.0119
59546SOL    HW188952  11.685  11.994  12.130 -0.3273 -0.3676 -0.0318
59546SOL    HW288953  11.593  12.040  12.020 -1.3586 -1.0289  0.5422
59547SOL     OW88954   9.742   3.737   3.805 -0.3459  0.4515  0.0062
59547SOL    HW188955   9.682   3.677   3.761 -0.6070  0.3255  0.5217
59547SOL    HW288956   9.685   3.804   3.842  0.0739  2.1718 -2.2487
59548SOL     OW88957   8.518  10.099   8.679 -0.0999  0.1136  0.0387
59548SOL    HW188958   8.431  10.072   8.650  0.6079 -0.7258 -1.4164
59548SOL    HW288959   8.506  10.188   8.711 -1.6164 -0.2327  0.5327
59549SOL     OW88960  10.346   3.129   6.542  0.6112  0.3339 -0.0939
59549SOL    HW188961  10.312   3.216   6.518 -0.6534  0.3295  1.5817
59549SOL    HW288962  10.418   3.148   6.603  0.3963  0.2092  0.1981
59550SOL     OW88963   8.694   4.218   2.696 -0.2335  0.7088 -0.1782
59550SOL    HW188964   8.620   4.158   2.697  1.1191 -1.0400 -0.0529
59550SOL    HW288965   8.672   4.285   2.760 -1.8557  0.4380 -0.4195
59551SOL     OW88966  12.240   3.810   3.755 -0.2817  0.2792  0.1334
59551SOL    HW188967  12.206   3.748   3.820  1.3380 -1.7231 -0.8246
59551SOL    HW288968  12.321   3.843   3.794  0.9845 -1.3383 -0.9889
59552SOL     OW88969   2.033   9.145   5.467  0.1067 -0.3159  0.2534
59552SOL    HW188970   2.091   9.212   5.429 -0.3888  0.3134  0.5836
59552SOL    HW288971   2.092   9.080   5.504  0.6711 -1.7759 -2.9055
59553SOL     OW88972   9.528   2.208   1.043  0.0642 -0.9174  1.0286
59553SOL    HW188973   9.439   2.195   1.076 -0.7411 -0.4630 -0.7922
59553SOL    HW288974   9.585   2.191   1.118 -1.5107 -2.0731  2.0191
59554SOL     OW88975  10.148  10.871   0.632  0.2699 -0.0457 -0.1748
59554SOL    HW188976  10.222  10.928   0.610  0.1296  1.1860  2.3181
59554SOL    HW288977  10.173  10.830   0.714 -0.5109 -2.1162 -0.9063
59555SOL     OW88978   4.485   5.850   7.030 -0.2043 -0.6762 -0.5949
59555SOL    HW188979   4.442   5.935   7.036  1.6017  0.3452 -1.2769
59555SOL    HW288980   4.529   5.839   7.115 -0.4588 -0.9595 -0.4965
59556SOL     OW88981   4.148   2.194   4.208  0.0041 -0.5991 -0.1003
59556SOL    HW188982   4.174   2.281   4.238  0.1423 -0.2995 -1.0455
59556SOL    HW288983   4.197   2.133   4.263 -0.3007 -0.0907  0.7490
59557SOL     OW88984   2.684   1.749   9.275 -0.8511  0.1746  0.2235
59557SOL    HW188985   2.621   1.794   9.331  0.6303  0.6413  1.5719
59557SOL    HW288986   2.769   1.785   9.299 -0.0220 -0.4765 -1.5042
59558SOL     OW88987  12.113  10.587  12.078 -0.1193  0.0812  0.1977
59558SOL    HW188988  12.166  10.598  12.157 -0.5271  0.7489  0.3950
59558SOL    HW288989  12.121  10.671  12.032 -1.6787  0.5411  0.6764
59559SOL     OW88990  11.534   3.005   1.345 -0.8124 -0.6940  0.3966
59559SOL    HW188991  11.508   2.916   1.369 -1.2189 -0.0483  2.5730
59559SOL    HW288992  11.524   3.055   1.426  2.9900  0.5861  0.2464
59560SOL     OW88993  12.113  10.922   5.177 -0.0396  0.3039  0.6631
59560SOL    HW188994  12.185  10.870   5.141  0.5955  1.6828 -0.1233
59560SOL    HW288995  12.155  10.984   5.236 -0.1047  3.0388 -1.9050
59561SOL     OW88996   5.160   3.903   1.044 -0.2593 -0.4699 -0.4189
59561SOL    HW188997   5.205   3.987   1.038 -0.8090  0.1088  2.1775
59561SOL    HW288998   5.185   3.857   0.964  1.2550  1.5702 -1.2237
59562SOL     OW88999   8.257  10.335   1.396  0.5826 -0.3910  0.0484
59562SOL    HW189000   8.181  10.295   1.439  1.2490 -1.4932  0.2535
59562SOL    HW289001   8.274  10.279   1.321  0.5633  0.4559 -0.5951
59563SOL     OW89002  12.385  12.162   6.716 -0.3450  0.0559  0.2335
59563SOL    HW189003  12.313  12.224   6.711 -0.2403  0.1797  0.2296
59563SOL    HW289004  12.442  12.186   6.642  0.0201  0.3696  0.6116
59564SOL     OW89005   9.844  11.952   0.654 -0.2889  0.5191  0.2913
59564SOL    HW189006   9.814  11.862   0.667  0.0241  0.5075  0.9451
59564SOL    HW289007   9.934  11.943   0.622  0.1068  0.6023  1.3234
59565SOL     OW89008   7.895   1.295   5.582  0.4690  0.1540  0.3978
59565SOL    HW189009   7.831   1.360   5.610  1.5193  1.1886  0.4736
59565SOL    HW289010   7.864   1.213   5.620 -0.0312  0.8854  1.6216
59566SOL     OW89011   2.862   8.889  10.287 -0.7687  0.1887 -0.3996
59566SOL    HW189012   2.808   8.820  10.325 -1.6579  0.4308 -1.2020
59566SOL    HW289013   2.945   8.846  10.266 -1.8720 -1.0869 -2.4329
59567SOL     OW89014   3.531   9.964   6.306 -0.5275 -0.2600 -0.1667
59567SOL    HW189015   3.521  10.053   6.339  2.4059  0.2317 -0.3172
59567SOL    HW289016   3.501   9.968   6.215  2.9782  1.6526 -1.4249
59568SOL     OW89017   7.857  11.853   1.754  0.0271  0.6250  0.0979
59568SOL    HW189018   7.812  11.769   1.747 -0.7392  0.9765  0.5702
59568SOL    HW289019   7.838  11.882   1.843  0.7906  1.0201  0.1373
59569SOL     OW89020   0.786   0.545   2.247  0.1557 -0.3008  0.1990
59569SOL    HW189021   0.743   0.615   2.297 -1.2997 -1.6778  0.9882
59569SOL    HW289022   0.714   0.504   2.198  1.1658 -0.5623 -1.1038
59570SOL     OW89023   3.778   0.953   6.693 -0.2741  0.4453  0.0457
59570SOL    HW189024   3.706   0.891   6.702 -0.3102  0.3092 -1.0681
59570SOL    HW289025   3.792   0.960   6.599  0.8815  0.8033  0.2313
59571SOL     OW89026   1.879   3.107   4.970  0.2734 -0.0430 -0.0191
59571SOL    HW189027   1.823   3.153   4.907  1.6254  0.8384 -0.6054
59571SOL    HW289028   1.888   3.019   4.933 -1.4270 -0.5023  0.5474
59572SOL     OW89029   5.126   0.725   7.202  0.0982  0.0326  0.0127
59572SOL    HW189030   5.152   0.710   7.111  0.5736  0.6990  0.0309
59572SOL    HW289031   5.166   0.654   7.251  1.1981  0.5721 -0.0791
59573SOL     OW89032   9.343   9.074   0.650 -0.1006 -0.1784 -0.2180
59573SOL    HW189033   9.397   9.059   0.727 -1.6874  0.2597  1.0332
59573SOL    HW289034   9.369   9.162   0.620  1.6509 -0.9775 -1.1945
59574SOL     OW89035   6.060   7.217   7.836 -0.2640 -0.1020 -0.3647
59574SOL    HW189036   6.122   7.236   7.766 -0.9696  2.2169 -0.4501
59574SOL    HW289037   6.068   7.291   7.896 -1.8057 -0.5398  0.4460
59575SOL     OW89038   2.896   7.617   5.745  0.1246 -0.2384  0.4883
59575SOL    HW189039   2.938   7.688   5.696 -0.2467  1.5459  2.6017
59575SOL    HW289040   2.854   7.563   5.678 -0.3107  2.0105 -1.1751
59576SOL     OW89041  11.299  12.008  12.215  0.5178  0.2486 -0.3637
59576SOL    HW189042  11.372  12.067  12.194  0.6590  0.2762  0.1712
59576SOL    HW289043  11.334  11.953  12.286 -0.2049  0.7201  0.3794
59577SOL     OW89044   2.251   6.248   4.907 -0.2231  0.0446 -0.4368
59577SOL    HW189045   2.218   6.184   4.971 -1.0595  0.3657 -0.5247
59577SOL    HW289046   2.263   6.197   4.827 -1.3743  0.0622 -0.6511
59578SOL     OW89047   1.634   7.953   1.281  0.0026 -0.2572 -0.1508
59578SOL    HW189048   1.565   7.970   1.216  0.3191  0.7359 -0.2281
59578SOL    HW289049   1.715   7.954   1.231  0.1119 -1.1044 -0.0012
59579SOL     OW89050   0.172   3.336   1.573 -0.2101 -0.1596  0.2501
59579SOL    HW189051   0.142   3.246   1.561 -1.8135  0.2581  0.8528
59579SOL    HW289052   0.227   3.333   1.651  0.0543 -0.6730  0.0478
59580SOL     OW89053   7.631  10.165  11.463 -0.1407  0.4060 -0.0995
59580SOL    HW189054   7.569  10.135  11.529 -1.1429  1.0117 -0.7442
59580SOL    HW289055   7.717  10.154  11.504 -0.1818 -4.6779 -0.7116
59581SOL     OW89056  12.789   7.118  11.795 -0.3092 -0.5864 -0.5076
59581SOL    HW189057  12.734   7.195  11.778  0.6574  0.2077 -0.1306
59581SOL    HW289058  12.862   7.152  11.846 -0.4638 -1.9691  0.6902
59582SOL     OW89059   3.808   4.660   6.270 -1.0521  0.5066 -0.3193
59582SOL    HW189060   3.822   4.592   6.336 -0.2066 -0.5325 -1.5165
59582SOL    HW289061   3.714   4.673   6.269 -1.3459 -1.3788 -0.7361
59583SOL     OW89062   5.993   7.074   2.530 -0.2722  0.3136  0.6214
59583SOL    HW189063   5.999   7.062   2.625 -1.3381  1.0437  0.7966
59583SOL    HW289064   6.077   7.042   2.497 -0.3185 -0.9953  1.6910
59584SOL     OW89065   0.263   3.629  11.757 -0.5039 -0.3036 -0.0398
59584SOL    HW189066   0.306   3.715  11.757 -0.8685 -0.1174  0.2490
59584SOL    HW289067   0.300   3.584  11.833 -1.3848  0.1522  0.6780
59585SOL     OW89068   8.577  10.216  11.203  0.0003 -0.4289  0.1755
59585SOL    HW189069   8.645  10.281  11.185  0.1949 -0.5878  0.3358
59585SOL    HW289070   8.522  10.217  11.124  1.0612 -1.3859 -0.6149
59586SOL     OW89071   8.102   3.066   4.528 -0.7926 -0.0696 -0.7198
59586SOL    HW189072   8.169   3.053   4.461 -0.9867 -1.3974 -0.6791
59586SOL    HW289073   8.061   2.981   4.538 -1.7076  0.4468  0.1022
59587SOL     OW89074  11.551   4.208   8.166  0.2633 -0.3709  0.7039
59587SOL    HW189075  11.498   4.153   8.108  0.4023  0.3479 -0.1388
59587SOL    HW289076  11.491   4.238   8.234 -0.3067  0.0288  0.0409
59588SOL     OW89077  12.789   8.315   2.539 -0.3921  0.1737  0.5990
59588SOL    HW189078  12.825   8.399   2.567  0.7555 -0.4348  0.9711
59588SOL    HW289079  12.707   8.307   2.589 -0.7638  1.2644  0.2111
59589SOL     OW89080  11.644   7.866  11.581 -0.1094 -0.4633  0.3097
59589SOL    HW189081  11.604   7.928  11.519 -1.7145 -0.5245  1.2358
59589SOL    HW289082  11.689   7.922  11.645 -0.3224 -0.3222  0.3352
59590SOL     OW89083   6.749   1.055   3.160  0.7433  0.4016  0.3427
59590SOL    HW189084   6.698   1.135   3.174 -1.6308 -1.1879  1.4252
59590SOL    HW289085   6.752   1.045   3.065  1.2782  1.8489  0.1773
59591SOL     OW89086  11.717  11.878   4.443  0.1559  0.5894  0.1680
59591SOL    HW189087  11.741  11.965   4.413 -0.6503  0.1966 -1.7574
59591SOL    HW289088  11.628  11.865   4.412  0.9867 -1.7114 -1.5552
59592SOL     OW89089   4.598   6.723   0.178  0.1183  0.3514  0.3432
59592SOL    HW189090   4.584   6.711   0.272 -1.9007  0.4304  0.0908
59592SOL    HW289091   4.620   6.635   0.145 -0.8472 -0.0141  0.6447
59593SOL     OW89092   6.217   0.837   7.491 -0.1266 -0.2579  0.1289
59593SOL    HW189093   6.182   0.922   7.465  0.2048 -0.0640  0.3284
59593SOL    HW289094   6.308   0.854   7.515 -0.2525 -0.5463  0.8280
59594SOL     OW89095  11.310   5.732   5.228 -0.0828  0.3913  0.2300
59594SOL    HW189096  11.371   5.761   5.297  0.6326 -1.3861  0.3930
59594SOL    HW289097  11.365   5.726   5.150 -0.8581  2.2350 -0.5144
59595SOL     OW89098  12.625   1.900   5.804  0.2486  0.2725  0.7121
59595SOL    HW189099  12.635   1.982   5.756  0.5216 -0.2024 -0.0379
59595SOL    HW289100  12.602   1.928   5.893  1.4427  1.1886  0.7517
59596SOL     OW89101   3.740   7.052   2.439  0.0301 -0.3220 -0.8780
59596SOL    HW189102   3.742   7.139   2.399 -2.7913  0.2526  0.0175
59596SOL    HW289103   3.806   7.055   2.508  0.1755  0.9909 -1.0614
59597SOL     OW89104   5.771   7.442   0.101  0.3378  0.2231 -0.2447
59597SOL    HW189105   5.790   7.474   0.013 -0.1249 -0.2550 -0.5247
59597SOL    HW289106   5.680   7.467   0.117  0.1434 -0.4658 -0.2524
59598SOL     OW89107   3.587   8.790  11.596 -0.5120  0.1654 -0.2603
59598SOL    HW189108   3.540   8.734  11.534  0.7448  0.1303 -1.2249
59598SOL    HW289109   3.518   8.842  11.638 -1.4593 -0.2719 -1.2163
59599SOL     OW89110   2.827   7.960   0.195  0.2289 -0.0828 -0.0355
59599SOL    HW189111   2.871   8.043   0.175 -0.5625  0.3247 -0.1502
59599SOL    HW289112   2.802   7.925   0.109 -0.4086  0.1160  0.0607
59600SOL     OW89113   2.717   8.725   4.392  0.0399  0.1197  1.1841
59600SOL    HW189114   2.761   8.783   4.330 -0.9643  0.4889  0.8022
59600SOL    HW289115   2.720   8.772   4.475 -0.9093  0.8097  0.8434
59601SOL     OW89116  11.620   9.821   7.436  0.3482  0.5745  0.5124
59601SOL    HW189117  11.606   9.915   7.448 -0.0829  0.3928  1.5260
59601SOL    HW289118  11.545   9.793   7.383 -0.1274  0.6194  1.1403
59602SOL     OW89119   0.468   0.974   0.426  0.6510 -0.0154 -0.5069
59602SOL    HW189120   0.443   0.886   0.454 -0.6931  0.4653 -0.1684
59602SOL    HW289121   0.453   0.974   0.332 -0.0852  0.0925 -0.3901
59603SOL     OW89122  11.011  10.693   0.416  0.0736  0.3037 -0.5342
59603SOL    HW189123  11.036  10.604   0.389  1.3733  0.2739  0.6347
59603SOL    HW289124  11.076  10.749   0.373  1.0088  0.4106  0.9401
59604SOL     OW89125   5.963   6.724   8.731  0.0256  0.4260  0.1676
59604SOL    HW189126   6.022   6.785   8.687 -0.8772  0.2650 -1.3515
59604SOL    HW289127   5.914   6.683   8.660 -0.1769 -1.2673  1.2105
59605SOL     OW89128   2.854   2.838   0.740  0.2504 -0.1916  0.1823
59605SOL    HW189129   2.883   2.854   0.830  0.8095 -1.4404  0.2357
59605SOL    HW289130   2.904   2.761   0.711 -1.1854 -0.8758 -0.5915
59606SOL     OW89131   7.194   5.311   6.137  0.3010  0.4492 -0.1444
59606SOL    HW189132   7.213   5.220   6.115 -0.6192  0.2373 -0.1300
59606SOL    HW289133   7.141   5.343   6.064 -1.4866  0.2007  0.9803
59607SOL     OW89134  11.551   7.968   1.183 -0.0055 -0.6647  0.1371
59607SOL    HW189135  11.456   7.982   1.183  0.0117 -0.5428  0.1762
59607SOL    HW289136  11.581   8.006   1.100  0.0241 -0.5898  0.1819
59608SOL     OW89137   8.359   1.685   2.912  0.1823 -0.5973 -0.2295
59608SOL    HW189138   8.385   1.648   2.996  2.5481  2.1309  0.3847
59608SOL    HW289139   8.357   1.610   2.852  0.7988 -2.2649  1.7268
59609SOL     OW89140   2.651   3.278   5.292  0.2220  0.4980  0.2252
59609SOL    HW189141   2.560   3.302   5.309 -0.1679 -0.2129 -0.7419
59609SOL    HW289142   2.673   3.324   5.211  0.9723  1.2592  0.8525
59610SOL     OW89143   4.128   1.444   4.167  0.3314  0.7912  0.2308
59610SOL    HW189144   4.208   1.427   4.116 -0.1474 -2.9821  0.4615
59610SOL    HW289145   4.057   1.420   4.108 -0.3590 -0.5890  1.5615
59611SOL     OW89146   1.951   0.855   3.643  0.6376  0.1177  0.2789
59611SOL    HW189147   1.899   0.799   3.585 -0.1845  1.0628  0.0735
59611SOL    HW289148   1.968   0.801   3.720 -0.3962 -0.3307  0.2148
59612SOL     OW89149   5.469   2.077   3.848 -0.7173 -0.3908 -0.4942
59612SOL    HW189150   5.434   2.036   3.769 -0.9717  0.7769 -1.0148
59612SOL    HW289151   5.423   2.035   3.920 -1.6615 -0.3497 -1.0639
59613SOL     OW89152   0.670   0.508   9.363  0.2433 -0.0216 -0.1412
59613SOL    HW189153   0.749   0.542   9.321  1.0544  0.8011  1.9185
59613SOL    HW289154   0.607   0.499   9.292  2.0877 -0.4818 -1.8175
59614SOL     OW89155   6.767   0.538   2.582 -0.6705  0.4620  0.0488
59614SOL    HW189156   6.820   0.491   2.646 -0.2462 -0.0265 -0.6415
59614SOL    HW289157   6.747   0.621   2.624  1.0318  0.8560  0.1740
59615SOL     OW89158   1.760   0.973   5.632  0.4240  0.2704  1.0124
59615SOL    HW189159   1.743   1.066   5.620 -0.4205 -0.0762 -0.9706
59615SOL    HW289160   1.674   0.935   5.649 -0.0469 -0.6322 -2.5038
59616SOL     OW89161   0.575   8.425   9.114 -0.3090  0.0933  0.4054
59616SOL    HW189162   0.544   8.445   9.202  2.0035  1.2815  0.9975
59616SOL    HW289163   0.670   8.435   9.118  0.1746 -2.4869 -1.5533
59617SOL     OW89164   3.718   4.834   8.289 -0.1617 -0.0005  0.1820
59617SOL    HW189165   3.800   4.806   8.329  0.8243  1.1260 -0.9825
59617SOL    HW289166   3.732   4.926   8.265 -3.0607  1.5125  3.3391
59618SOL     OW89167  11.129  12.216  12.321  0.5829  0.2832 -0.2719
59618SOL    HW189168  11.196  12.277  12.351  1.0038 -0.5094  0.4432
59618SOL    HW289169  11.179  12.143  12.283  0.2303 -1.0224  1.6072
59619SOL     OW89170   2.042   0.336   0.236  0.5086 -0.7210  0.2276
59619SOL    HW189171   1.971   0.281   0.270  1.4658 -0.9102  2.0069
59619SOL    HW289172   2.118   0.278   0.233  0.2754 -1.0642 -3.4456
59620SOL     OW89173   5.647   7.642   9.255  0.2451 -0.1435 -0.0483
59620SOL    HW189174   5.726   7.618   9.305  1.6162  0.3965 -1.8677
59620SOL    HW289175   5.629   7.732   9.280  0.6869 -0.0080 -0.2099
59621SOL     OW89176   3.764   7.469  12.711  0.0417 -0.1406  0.0584
59621SOL    HW189177   3.693   7.461  12.775  1.8293  0.7872  2.3073
59621SOL    HW289178   3.838   7.502  12.762  1.7944 -0.0360 -2.3970
59622SOL     OW89179  11.017   1.711   0.279 -0.0173 -0.5563 -0.3729
59622SOL    HW189180  10.939   1.756   0.247  0.2183  2.8894  3.2119
59622SOL    HW289181  11.089   1.769   0.257  0.8624 -1.1181  0.8828
59623SOL     OW89182   2.164   8.649  11.072 -0.0401  0.3075  0.2635
59623SOL    HW189183   2.206   8.734  11.060  0.0729  0.1618 -0.4084
59623SOL    HW289184   2.166   8.609  10.985 -1.2500  0.1530  0.2849
59624SOL     OW89185   3.035  10.277   2.963  0.2457 -0.2669 -0.4503
59624SOL    HW189186   2.985  10.212   2.914  0.5321 -0.4699 -0.4767
59624SOL    HW289187   2.969  10.329   3.009  0.0316 -0.9767  0.0759
59625SOL     OW89188   2.167  10.148  11.860 -0.3186 -0.2699  0.2042
59625SOL    HW189189   2.176  10.191  11.775  0.1078  1.9481  1.3146
59625SOL    HW289190   2.255  10.145  11.896 -0.6762  0.1029  1.1538
59626SOL     OW89191   4.027   7.757  11.327 -0.1302 -0.2260  0.2099
59626SOL    HW189192   4.054   7.732  11.415 -0.8016  1.2586  0.8623
59626SOL    HW289193   4.082   7.703  11.269 -1.4731 -3.1680  1.4738
59627SOL     OW89194   1.956   0.214   5.860  0.3048  0.0258  0.5847
59627SOL    HW189195   2.030   0.159   5.836 -0.6318 -0.3412 -1.7946
59627SOL    HW289196   1.989   0.304   5.852  0.3905 -0.1220 -0.9976
59628SOL     OW89197   5.605  12.067   3.077 -0.1362  0.1689 -0.5274
59628SOL    HW189198   5.600  11.980   3.117 -0.3352  0.1649 -0.5625
59628SOL    HW289199   5.539  12.119   3.123 -0.2243  0.2210 -0.7125
59629SOL     OW89200   5.674  12.771   3.729 -0.0710  0.4094 -0.0223
59629SOL    HW189201   5.609  12.712   3.769  0.8363 -0.6295 -0.0408
59629SOL    HW289202   5.624  12.820   3.663 -0.7601 -0.6271 -0.2895
59630SOL     OW89203   5.627  12.059  11.981  0.2921 -0.2434 -0.3647
59630SOL    HW189204   5.642  12.060  12.075  1.2857  1.1645 -0.4997
59630SOL    HW289205   5.539  12.095  11.970 -0.0546 -0.9558  0.0491
59631SOL     OW89206   8.296  11.912   6.431 -0.0045  0.0467 -0.0853
59631SOL    HW189207   8.336  11.827   6.449 -1.7191 -0.8581 -0.3669
59631SOL    HW289208   8.343  11.973   6.488  1.8765 -0.8967 -0.5474
59632SOL     OW89209   0.526   1.347   6.836  0.0869 -0.3911  0.2475
59632SOL    HW189210   0.524   1.440   6.814  0.0564  0.2726  2.7548
59632SOL    HW289211   0.600   1.338   6.895 -0.1117 -1.9092  0.3066
59633SOL     OW89212   0.915   4.753   9.932  0.0402 -0.1449  0.3473
59633SOL    HW189213   0.896   4.830   9.985  2.6752  1.4915 -0.8740
59633SOL    HW289214   0.888   4.779   9.843  2.1459 -0.0124 -0.3139
59634SOL     OW89215   9.943   7.200   6.096  0.2595  0.0911  0.1937
59634SOL    HW189216   9.992   7.174   6.174  0.4440 -0.7232 -0.1800
59634SOL    HW289217  10.007   7.197   6.025 -0.2881 -0.9371 -0.2905
59635SOL     OW89218   3.297   0.302   6.304  0.2831 -0.0016  0.0659
59635SOL    HW189219   3.363   0.252   6.351  1.0080  0.9470  0.0931
59635SOL    HW289220   3.314   0.283   6.211  0.4652  0.0767  0.0831
59636SOL     OW89221  10.721  12.650   3.070  0.1634  0.3791 -0.2155
59636SOL    HW189222  10.712  12.589   2.997 -1.1175  0.1497  0.1105
59636SOL    HW289223  10.810  12.636   3.102  0.6063  0.2115 -1.4834
59637SOL     OW89224   0.835   1.241   6.684  0.4664 -0.4042 -0.4899
59637SOL    HW189225   0.917   1.244   6.734  1.6602 -4.3718 -1.7980
59637SOL    HW289226   0.846   1.307   6.616  1.9980  0.0798  0.1722
59638SOL     OW89227   5.171   3.287   7.450 -0.2448 -0.3332  0.1189
59638SOL    HW189228   5.096   3.240   7.486  1.0270 -1.1878  1.7629
59638SOL    HW289229   5.174   3.258   7.358 -1.6592 -0.6011  0.1282
59639SOL     OW89230   8.955   0.439   0.542 -0.1985  0.0457  0.1616
59639SOL    HW189231   8.947   0.455   0.448 -0.6432  0.3976  0.2496
59639SOL    HW289232   9.048   0.447   0.560 -0.1742  0.5952 -0.1547
59640SOL     OW89233   9.736   4.508   6.069  0.3729 -0.1087  0.0471
59640SOL    HW189234   9.664   4.542   6.017 -0.3182  1.5720  1.9950
59640SOL    HW289235   9.702   4.426   6.106 -0.5285  0.6283  0.8823
59641SOL     OW89236   4.046   3.601   1.986  0.3632 -0.0033  0.1798
59641SOL    HW189237   4.032   3.686   1.945  0.5533  0.1308  0.3860
59641SOL    HW289238   4.128   3.612   2.034 -0.0122 -0.0534  0.8508
59642SOL     OW89239   2.286   0.908   0.940 -0.7100 -0.1231 -0.7360
59642SOL    HW189240   2.313   0.879   0.853  1.8024  1.4674 -0.5935
59642SOL    HW289241   2.226   0.980   0.924 -0.8060 -0.2910 -1.1419
59643SOL     OW89242   8.904   0.995   4.248  0.2945  0.0912 -0.2300
59643SOL    HW189243   8.883   1.088   4.243  0.4239  0.1263 -0.1424
59643SOL    HW289244   8.820   0.951   4.259  0.2967  0.2647  0.6151
59644SOL     OW89245   1.293   0.168   6.583  0.3253  0.3237  0.6313
59644SOL    HW189246   1.257   0.247   6.623 -0.6919  0.5670 -0.6863
59644SOL    HW289247   1.257   0.096   6.636 -0.2711  0.6677  0.7049
59645SOL     OW89248  12.186   6.599   7.067  0.3181 -0.3326  0.2792
59645SOL    HW189249  12.127   6.636   7.002 -1.9787 -1.4544  1.6077
59645SOL    HW289250  12.270   6.591   7.022 -0.6361  0.9127 -1.8294
59646SOL     OW89251  12.713   0.237  12.111  0.2980 -0.4889  0.1156
59646SOL    HW189252  12.676   0.157  12.147 -0.4748 -0.0221  0.3808
59646SOL    HW289253  12.806   0.234  12.134  0.2014 -1.1413  0.4115
59647SOL     OW89254  12.231   7.358  11.091  0.4209  0.0940 -0.1730
59647SOL    HW189255  12.178   7.302  11.033  1.2525 -2.1308  1.0867
59647SOL    HW289256  12.168   7.422  11.126 -2.0375 -3.2935  2.3897
59648SOL     OW89257   9.501   1.698   5.172  0.1279  0.1709  0.2150
59648SOL    HW189258   9.427   1.638   5.157 -1.8065  2.3533  0.4489
59648SOL    HW289259   9.521   1.687   5.264 -1.2859  0.9551  0.6515
59649SOL     OW89260   5.530   7.758   5.901  0.6381  0.0946  0.2857
59649SOL    HW189261   5.472   7.690   5.936  0.7666 -1.3056 -2.0025
59649SOL    HW289262   5.615   7.741   5.941  0.0220  0.8063  1.9886
59650SOL     OW89263   0.205  11.337  12.215 -0.2962 -0.0273  0.9367
59650SOL    HW189264   0.188  11.336  12.309  0.4354 -0.2838  1.0747
59650SOL    HW289265   0.120  11.318  12.175 -0.5136 -0.4188  1.5621
59651SOL     OW89266   8.486   2.384   2.262 -0.0359  0.6675 -0.5841
59651SOL    HW189267   8.398   2.351   2.246  0.6701 -1.4055 -0.4542
59651SOL    HW289268   8.530   2.379   2.177  0.4065  0.1979 -0.3342
59652SOL     OW89269   0.721   7.838   1.365 -0.3970 -0.0604  0.2055
59652SOL    HW189270   0.732   7.849   1.459 -0.1039  0.6065  0.0942
59652SOL    HW289271   0.809   7.819   1.332 -0.3683  0.4887 -0.0392
59653SOL     OW89272   6.798   5.991   7.015 -0.1233 -0.2312  0.2239
59653SOL    HW189273   6.744   5.912   7.022 -0.2295 -0.2694 -0.9254
59653SOL    HW289274   6.737   6.063   7.032 -0.3767 -0.3126 -0.3345
59654SOL     OW89275   7.553  12.298  12.604 -0.4685  0.1534  0.3484
59654SOL    HW189276   7.595  12.261  12.682  0.5817 -2.4989 -1.3608
59654SOL    HW289277   7.474  12.246  12.592 -0.6115  0.5352 -0.3733
59655SOL     OW89278   5.617   1.655   2.456  0.1186  0.4830 -0.2329
59655SOL    HW189279   5.627   1.649   2.551  3.6062 -0.6274 -0.5271
59655SOL    HW289280   5.640   1.746   2.435  3.0329 -0.1397 -0.1890
59656SOL     OW89281   3.422   1.150   8.343  0.0765  0.0546  0.1323
59656SOL    HW189282   3.510   1.122   8.315  0.1086 -1.0391  1.2385
59656SOL    HW289283   3.377   1.171   8.261  2.0154  2.8255 -0.3763
59657SOL     OW89284   4.564  11.160   2.328  0.5802  0.4995 -0.3031
59657SOL    HW189285   4.552  11.251   2.355 -1.2829  0.1261  0.2195
59657SOL    HW289286   4.643  11.132   2.374 -1.1733  0.5963  2.9888
59658SOL     OW89287  10.228   1.339   1.034 -0.0292 -0.9360  0.2032
59658SOL    HW189288  10.165   1.266   1.040 -0.2559 -0.8319 -0.7104
59658SOL    HW289289  10.200   1.388   0.957  0.2886 -0.0264  0.6597
59659SOL     OW89290  11.242   6.762   5.437  0.1285  0.0599  0.1484
59659SOL    HW189291  11.275   6.746   5.526 -1.8542 -1.0664  0.7339
59659SOL    HW289292  11.237   6.675   5.397  0.2490  0.4750 -0.7859
59660SOL     OW89293   6.733   2.435   3.442  0.3809 -0.0793 -0.2311
59660SOL    HW189294   6.785   2.482   3.506  1.1097  0.2158 -1.0260
59660SOL    HW289295   6.644   2.434   3.479  0.4770  1.4058  0.0702
59661SOL     OW89296   4.026   4.231   2.618 -0.2852  0.1266 -0.0927
59661SOL    HW189297   4.057   4.148   2.582  1.4810  0.0233  1.5165
59661SOL    HW289298   3.975   4.206   2.695 -0.7121  0.4998 -0.2505
59662SOL     OW89299  11.600  12.369   7.295 -0.0647 -0.9518  0.5022
59662SOL    HW189300  11.594  12.273   7.297  1.9752 -1.1850 -1.0555
59662SOL    HW289301  11.682  12.388   7.341 -1.1137  0.1880  1.9804
59663SOL     OW89302   1.867   2.841   5.467 -0.1767 -0.0212  0.1900
59663SOL    HW189303   1.839   2.896   5.541 -2.5364  0.0048 -0.6503
59663SOL    HW289304   1.895   2.904   5.400 -1.2298  0.1196 -0.1364
59664SOL     OW89305  10.021  11.800   2.841  0.5060  0.1953 -0.2757
59664SOL    HW189306  10.030  11.811   2.746 -0.6526  2.8182 -0.1866
59664SOL    HW289307  10.099  11.841   2.877  0.2728  0.4777 -0.0841
59665SOL     OW89308   7.876   1.183  12.109  0.0880 -0.1026 -0.4670
59665SOL    HW189309   7.799   1.177  12.052  1.3785  1.6044 -2.5282
59665SOL    HW289310   7.948   1.206  12.050  1.9765 -0.5078  1.5589
59666SOL     OW89311   3.191  10.806   8.365 -0.0933  0.0631  0.6511
59666SOL    HW189312   3.200  10.713   8.388 -0.7545 -0.4204 -0.8916
59666SOL    HW289313   3.273  10.846   8.393 -0.0679 -0.8392  1.9711
59667SOL     OW89314   2.067   5.728   7.532  0.4208 -0.6792 -0.6363
59667SOL    HW189315   2.012   5.789   7.483  0.0450 -1.4050 -1.1480
59667SOL    HW289316   2.133   5.783   7.574 -0.2896  0.1370 -0.5622
59668SOL     OW89317   7.067   2.559   6.492 -0.0292 -0.0282 -0.0136
59668SOL    HW189318   7.104   2.523   6.412 -1.8790 -2.8190  0.2617
59668SOL    HW289319   6.991   2.610   6.462  0.8864  1.2886 -0.1803
59669SOL     OW89320   3.955  12.015   8.685  0.5804  0.1702  0.4892
59669SOL    HW189321   4.006  12.005   8.605  0.3652 -1.9823  0.5729
59669SOL    HW289322   3.912  12.101   8.676  0.8584  0.1343 -1.5113
59670SOL     OW89323   3.354   2.049  11.501  0.2540  0.4278  0.1637
59670SOL    HW189324   3.415   2.012  11.437  1.3708  1.1653  0.7767
59670SOL    HW289325   3.318   1.973  11.546 -0.4064 -0.0956 -1.1929
59671SOL     OW89326   7.766   2.995   4.754  0.0739 -0.0421  0.1015
59671SOL    HW189327   7.857   3.007   4.779  0.2169 -0.8353 -0.0380
59671SOL    HW289328   7.743   2.908   4.787 -0.7312  0.2859  0.4333
59672SOL     OW89329   4.892   2.146  12.342  0.1953 -0.2677  0.1081
59672SOL    HW189330   4.932   2.189  12.418  1.2732  0.7551 -0.9979
59672SOL    HW289331   4.810   2.109  12.376 -0.6145  2.3398  1.2146
59673SOL     OW89332   8.024   0.972   8.163  0.2094 -0.0184  0.1216
59673SOL    HW189333   8.106   1.019   8.174  0.4149 -0.6940  1.6619
59673SOL    HW289334   7.986   1.008   8.083  2.0401  0.2353 -0.6757
59674SOL     OW89335   2.283   6.306   6.162 -0.2982 -0.1752  0.4993
59674SOL    HW189336   2.254   6.376   6.104  0.3617 -0.4198 -0.1345
59674SOL    HW289337   2.211   6.296   6.225  0.1113  1.9208  1.3989
59675SOL     OW89338   5.703  11.202  11.090 -0.3015 -0.0967 -0.1426
59675SOL    HW189339   5.748  11.274  11.134 -0.7486  0.2013 -0.1715
59675SOL    HW289340   5.610  11.219  11.105 -0.3979 -1.0819  0.5096
59676SOL     OW89341   5.378   2.867   7.543  0.1378  0.1099 -0.3933
59676SOL    HW189342   5.371   2.773   7.528 -1.6029  0.0961  0.3137
59676SOL    HW289343   5.313   2.906   7.483  0.8006  0.8677 -0.6412
59677SOL     OW89344   7.636  10.443  11.366  0.1638  0.3659 -0.2843
59677SOL    HW189345   7.722  10.476  11.391  0.5841 -1.7092  1.2084
59677SOL    HW289346   7.624  10.364  11.418 -2.4147  0.2692 -0.8937
59678SOL     OW89347   1.239   8.439   1.413 -0.1004 -0.4711  0.1599
59678SOL    HW189348   1.332   8.428   1.396  0.1673  0.2031  1.0912
59678SOL    HW289349   1.199   8.356   1.386  1.0957 -1.7330  2.0223
59679SOL     OW89350   6.912   0.259   0.626  0.0279  0.3381 -0.0058
59679SOL    HW189351   6.889   0.200   0.553 -0.3390  0.4237  0.0408
59679SOL    HW289352   6.876   0.343   0.601  2.1147  1.0417 -0.9475
59680SOL     OW89353   6.272   4.353   1.950 -0.1262 -0.1322  0.3383
59680SOL    HW189354   6.267   4.421   1.883 -0.4571  0.1274  0.6283
59680SOL    HW289355   6.340   4.383   2.011  0.2248 -0.4020  0.0856
59681SOL     OW89356  11.896   1.677   4.448  0.0442 -0.3290 -0.3126
59681SOL    HW189357  11.942   1.674   4.364  1.2727 -0.2844  0.3404
59681SOL    HW289358  11.919   1.595   4.491 -0.0705 -0.0749  0.2368
59682SOL     OW89359   2.310  12.920   1.895  0.3326  0.0990 -0.3523
59682SOL    HW189360   2.380  12.863   1.866  0.9509  1.0452 -0.7429
59682SOL    HW289361   2.321  13.000   1.845  0.1575  0.9894  0.9697
59683SOL     OW89362   4.438   5.778   8.318  0.2033 -0.5404 -0.0138
59683SOL    HW189363   4.529   5.807   8.329  0.5363 -2.2674  3.0475
59683SOL    HW289364   4.445   5.684   8.300 -0.9899 -0.5063 -0.7379
59684SOL     OW89365   6.287   2.989   9.740  0.4442  0.0399 -0.2600
59684SOL    HW189366   6.382   2.988   9.752  0.4938  0.4017 -0.5819
59684SOL    HW289367   6.271   3.069   9.690 -0.2859  1.3022  1.8773
59685SOL     OW89368  12.375   3.296   5.615  0.0171  0.3320  0.1152
59685SOL    HW189369  12.336   3.368   5.664  1.7061  1.0283  0.5079
59685SOL    HW289370  12.369   3.221   5.674 -0.6281  0.4394  0.1942
59686SOL     OW89371   4.164  10.377   4.824  0.1431 -0.4659 -0.4236
59686SOL    HW189372   4.090  10.337   4.870 -0.9143  0.5975 -1.1297
59686SOL    HW289373   4.231  10.387   4.891 -0.4774 -1.1493  0.3200
59687SOL     OW89374   0.897   4.232   3.617  0.2676 -0.3148 -0.1673
59687SOL    HW189375   0.902   4.137   3.627 -0.3467 -0.4308 -0.8784
59687SOL    HW289376   0.840   4.261   3.689 -2.3202 -0.8936 -1.8272
59688SOL     OW89377   5.208   6.755   2.549 -0.0669 -0.6470  0.3915
59688SOL    HW189378   5.229   6.783   2.638 -1.3727  1.0050  0.2323
59688SOL    HW289379   5.258   6.815   2.493 -1.1879 -0.0228  0.0332
59689SOL     OW89380  10.587   2.951   1.209  0.1481  0.1581 -0.2939
59689SOL    HW189381  10.651   2.904   1.156  0.8648  0.4029  0.3286
59689SOL    HW289382  10.502   2.921   1.178  0.4525  1.8613 -3.0718
59690SOL     OW89383  10.241  12.607   6.508 -0.1548 -0.3606  0.1031
59690SOL    HW189384  10.245  12.541   6.439  0.8403 -0.6754  0.4506
59690SOL    HW289385  10.183  12.675   6.473  0.2443 -0.5750 -0.9904
59691SOL     OW89386   5.791   1.092   6.686  0.4855  0.3576  0.1853
59691SOL    HW189387   5.727   1.057   6.624  1.9482  0.1645 -1.2580
59691SOL    HW289388   5.795   1.026   6.756  1.6166 -1.3787 -1.4378
59692SOL     OW89389   9.919  11.814   7.788 -0.7160 -0.6340  0.5567
59692SOL    HW189390   9.892  11.723   7.805  2.1092 -1.5004  0.8301
59692SOL    HW289391   9.945  11.848   7.874  2.3451 -1.0897 -0.0689
59693SOL     OW89392   5.755  11.878   6.608 -0.2482  0.1989 -0.5018
59693SOL    HW189393   5.804  11.848   6.531 -0.8699 -0.9174 -0.4895
59693SOL    HW289394   5.663  11.872   6.583 -0.4248  3.1891 -0.8473
59694SOL     OW89395   4.108   8.610   8.142 -0.0782  0.1281 -0.2746
59694SOL    HW189396   4.052   8.581   8.214 -0.2422 -0.8589 -0.7791
59694SOL    HW289397   4.128   8.530   8.094  2.7016  0.2144  0.5286
59695SOL     OW89398  11.242   3.529   3.471 -0.1869 -0.1675 -0.3362
59695SOL    HW189399  11.270   3.516   3.380 -0.7232  0.3575 -0.5843
59695SOL    HW289400  11.309   3.586   3.509 -0.0980 -0.1788 -0.4744
59696SOL     OW89401  12.613  11.131   5.640  0.1718  0.1637 -0.1075
59696SOL    HW189402  12.630  11.084   5.558 -2.6997 -0.6933 -0.3250
59696SOL    HW289403  12.517  11.134   5.647  0.3021  1.1392  2.7057
59697SOL     OW89404  12.405   8.143   5.660  0.2580 -0.6179  0.2280
59697SOL    HW189405  12.498   8.159   5.644  0.4966 -0.6157  1.5468
59697SOL    HW289406  12.386   8.063   5.611  0.8204 -0.3344 -0.4747
59698SOL     OW89407   0.471   0.720   3.542 -0.4495 -0.1374  0.8499
59698SOL    HW189408   0.553   0.713   3.493  1.4121  2.2775  3.3546
59698SOL    HW289409   0.416   0.777   3.488  0.8979  1.0876  0.7055
59699SOL     OW89410   3.232   6.244  11.065 -0.3545 -0.1898  0.3576
59699SOL    HW189411   3.215   6.327  11.020 -0.1867  0.8062  2.0531
59699SOL    HW289412   3.327   6.238  11.070 -0.2931 -1.4324 -1.3624
59700SOL     OW89413   8.832  12.182  10.964  0.0757 -0.5947  0.0255
59700SOL    HW189414   8.799  12.110  11.018  0.1556 -0.2943  0.4822
59700SOL    HW289415   8.920  12.199  10.999 -0.3029  0.3471  0.5444
59701SOL     OW89416   9.161  12.904  12.551  0.1539 -0.0414 -0.1841
59701SOL    HW189417   9.176  12.815  12.519  0.7797 -0.7662  1.9928
59701SOL    HW289418   9.231  12.956  12.512  1.3864 -1.0578  0.6242
59702SOL     OW89419   1.566   5.623   6.113  0.4011 -0.3488  0.8583
59702SOL    HW189420   1.557   5.537   6.072 -0.4948 -0.7095  1.7544
59702SOL    HW289421   1.568   5.684   6.040  0.7562 -1.1019  0.2159
59703SOL     OW89422   9.781   4.365   0.404  0.3416 -0.2459 -0.5895
59703SOL    HW189423   9.813   4.282   0.370  0.9318 -0.6213  0.8431
59703SOL    HW289424   9.850   4.397   0.461 -1.1651 -0.3424  1.4042
59704SOL     OW89425  11.650   0.875   7.840 -0.0393 -0.7200  0.8028
59704SOL    HW189426  11.717   0.812   7.813 -0.1607 -1.0163  1.1910
59704SOL    HW289427  11.588   0.824   7.890 -1.1833 -0.6802 -0.5177
59705SOL     OW89428   5.683   2.637   0.356 -0.0195 -0.0594 -0.3148
59705SOL    HW189429   5.645   2.640   0.444 -1.3477  0.7387 -0.8913
59705SOL    HW289430   5.749   2.568   0.361 -1.3792 -1.3331  0.7882
59706SOL     OW89431  11.972  12.578   2.860 -0.2428  0.0417  0.3494
59706SOL    HW189432  12.053  12.626   2.844  1.0162 -2.1928 -0.4903
59706SOL    HW289433  11.991  12.523   2.936 -0.3400 -1.6530 -0.7812
59707SOL     OW89434   0.897  12.784  10.893  0.2470 -0.3720  0.1993
59707SOL    HW189435   0.975  12.839  10.899 -0.3429  0.6195 -0.6934
59707SOL    HW289436   0.880  12.756  10.983  2.1774 -1.4451  0.2897
59708SOL     OW89437  10.803   5.469  12.737  0.3795  0.0090  0.3382
59708SOL    HW189438  10.729   5.448  12.794 -1.0230 -0.4477 -1.5578
59708SOL    HW289439  10.866   5.398  12.753  0.0427 -0.0781  1.3330
59709SOL     OW89440   9.621  10.703   9.962 -0.5405  0.1866  0.2623
59709SOL    HW189441   9.578  10.659   9.889 -1.1561  0.5691  0.3827
59709SOL    HW289442   9.577  10.789   9.967  1.0942  1.1103 -0.4240
59710SOL     OW89443   6.821   8.943   4.519 -0.3476  0.0634 -0.5227
59710SOL    HW189444   6.796   9.020   4.468 -1.3955  0.4566  0.5267
59710SOL    HW289445   6.763   8.873   4.487  0.5326 -0.2777 -1.4026
59711SOL     OW89446   5.438   8.383  10.486  0.9533  0.1309 -0.1450
59711SOL    HW189447   5.402   8.423  10.565  0.0863 -2.0818  0.6535
59711SOL    HW289448   5.362   8.353  10.436  1.5500 -0.2029 -0.8907
59712SOL     OW89449   1.810   6.405  11.094 -0.2419 -0.7649  0.6056
59712SOL    HW189450   1.755   6.446  11.161  0.4594 -0.5006  1.0402
59712SOL    HW289451   1.897   6.442  11.110 -0.4021  0.8241 -1.6706
59713SOL     OW89452   0.631   4.704   5.208 -0.2638 -0.2568 -0.1192
59713SOL    HW189453   0.688   4.732   5.136  2.3363  0.7683  2.1839
59713SOL    HW289454   0.615   4.784   5.258  0.5080 -1.4232  2.0890
59714SOL     OW89455   0.839  12.526   9.202 -0.3230  0.6168 -0.0506
59714SOL    HW189456   0.757  12.481   9.184 -0.1230  0.7654 -1.5070
59714SOL    HW289457   0.814  12.611   9.237 -0.7110 -0.4094  2.3507
59715SOL     OW89458  11.290   0.193   6.971 -0.5058  0.0122 -0.1350
59715SOL    HW189459  11.378   0.230   6.979  0.1137 -1.2227 -0.9926
59715SOL    HW289460  11.288   0.121   7.034 -1.2021  0.5515  0.4778
59716SOL     OW89461   3.293   1.776   1.261  0.1668  0.7023 -0.1457
59716SOL    HW189462   3.312   1.867   1.284 -1.7639  1.0258  0.3693
59716SOL    HW289463   3.362   1.752   1.200  2.2882  1.6286  1.7511
59717SOL     OW89464  10.828   8.262  11.622 -0.2981 -1.0983 -0.3076
59717SOL    HW189465  10.738   8.278  11.596 -0.0057 -1.3018 -1.5418
59717SOL    HW289466  10.845   8.323  11.693 -1.4568 -1.1947  0.0627
59718SOL     OW89467   5.827   0.284   9.649 -0.3296  0.2880 -0.1314
59718SOL    HW189468   5.807   0.249   9.562 -0.0271  1.2588 -0.6073
59718SOL    HW289469   5.856   0.374   9.633  0.5949  0.1973  0.8933
59719SOL     OW89470   6.790   9.827   7.979  0.3605 -0.5776  0.5430
59719SOL    HW189471   6.807   9.733   7.989 -1.5110 -1.0085  0.1504
59719SOL    HW289472   6.820   9.847   7.890 -1.9934 -1.5764 -0.5798
59720SOL     OW89473   7.889   4.796  12.147 -0.4533 -0.7769  0.2291
59720SOL    HW189474   7.916   4.728  12.085  1.1111  0.6452 -0.7618
59720SOL    HW289475   7.892   4.877  12.095 -0.0956  0.3234  1.9028
59721SOL     OW89476  12.423   9.053   4.473 -0.0360 -0.1114 -0.2394
59721SOL    HW189477  12.466   8.984   4.423 -0.7814  0.3989 -1.6527
59721SOL    HW289478  12.462   9.134   4.441  0.7151  0.1558  1.2906
59722SOL     OW89479   0.312   9.309   6.778  0.0893  0.0562  0.4738
59722SOL    HW189480   0.301   9.397   6.814 -0.5776 -0.9378  2.9140
59722SOL    HW289481   0.348   9.258   6.850 -0.5699 -1.9284 -0.5217
59723SOL     OW89482   7.423   9.556  10.953  0.1056  0.2817 -0.4755
59723SOL    HW189483   7.370   9.545  11.033  0.7576 -1.4311 -0.2330
59723SOL    HW289484   7.453   9.468  10.933  3.7124  1.2601 -0.0278
59724SOL     OW89485   7.352  12.161   7.961 -0.1925 -0.3000  0.2047
59724SOL    HW189486   7.276  12.159   8.019 -1.9886 -1.9905 -2.0284
59724SOL    HW289487   7.378  12.254   7.959 -2.6866  0.4817  0.4732
59725SOL     OW89488   2.118   1.635   2.663  0.2635 -0.3990 -0.0602
59725SOL    HW189489   2.064   1.560   2.688  0.8530 -0.5931  0.6543
59725SOL    HW289490   2.201   1.597   2.636  0.0069 -0.1116 -1.3065
59726SOL     OW89491   8.661   2.432   8.750 -0.1011  0.5128 -0.1069
59726SOL    HW189492   8.574   2.462   8.775 -0.9091 -0.7341 -1.2711
59726SOL    HW289493   8.648   2.390   8.665  1.2691 -1.4325  0.5787
59727SOL     OW89494   5.376  11.587  11.766 -0.3558  0.8176 -0.3781
59727SOL    HW189495   5.389  11.534  11.844  3.0815 -0.2564 -1.5097
59727SOL    HW289496   5.385  11.677  11.797  0.8721  0.4178  0.5081
59728SOL     OW89497  12.206  12.509  10.511  0.0653 -0.4525 -0.2323
59728SOL    HW189498  12.226  12.553  10.428  3.3769 -2.2694 -0.5688
59728SOL    HW289499  12.253  12.561  10.576 -0.6251 -0.3720  0.2156
59729SOL     OW89500   2.326  10.960   5.687  0.1126 -0.2345 -0.2126
59729SOL    HW189501   2.347  10.955   5.594  2.2346  1.4193  0.1047
59729SOL    HW289502   2.405  10.927   5.731 -1.4882 -2.7173  1.0640
59730SOL     OW89503   1.664   4.662   7.946  0.0429 -0.4406  0.0860
59730SOL    HW189504   1.742   4.705   7.912  0.2042 -1.4962 -0.9427
59730SOL    HW289505   1.626   4.726   8.007  2.4023 -0.3933  1.6514
59731SOL     OW89506   8.984   1.742  12.767 -0.3932 -0.1035 -0.0662
59731SOL    HW189507   8.911   1.703  12.816 -0.7225  1.1623  0.5119
59731SOL    HW289508   8.959   1.834  12.758  0.6307  0.1076 -0.8476
59732SOL     OW89509   2.923   6.913  10.800 -0.0951  0.3655  0.3574
59732SOL    HW189510   2.982   6.847  10.764  0.9760  1.9531 -0.9154
59732SOL    HW289511   2.917   6.891  10.893  3.8103  0.9986  0.9298
59733SOL     OW89512   8.068   9.808  10.056 -0.6949 -0.1009 -0.6862
59733SOL    HW189513   8.035   9.718  10.064  0.1353 -0.5787 -2.2455
59733SOL    HW289514   8.033   9.840   9.973 -2.1302  1.5745  0.4791
59734SOL     OW89515   5.894  12.226   8.740  0.0175 -0.0318 -0.6060
59734SOL    HW189516   5.837  12.290   8.783  1.5989  0.7281  0.4422
59734SOL    HW289517   5.908  12.158   8.806 -0.6444 -0.8751 -1.2949
59735SOL     OW89518  12.595   6.784   8.478 -0.2358  0.0471  0.3510
59735SOL    HW189519  12.632   6.867   8.509 -1.5739  0.1819  1.6818
59735SOL    HW289520  12.559   6.806   8.392  1.9123  0.1112 -0.6023
59736SOL     OW89521   9.059  10.301  10.216 -0.4961 -0.4832  0.2671
59736SOL    HW189522   9.137  10.256  10.250 -1.7192 -2.4315  0.6207
59736SOL    HW289523   9.024  10.241  10.149 -2.4936 -0.3632  1.1454
59737SOL     OW89524   4.704   7.925   5.267  0.2667  0.1032 -0.0190
59737SOL    HW189525   4.727   7.836   5.294 -0.9259 -0.0834  0.4547
59737SOL    HW289526   4.682   7.918   5.174  0.4480 -0.0408 -0.0514
59738SOL     OW89527   9.977  11.821   6.518 -0.7333  0.2469 -0.0546
59738SOL    HW189528   9.918  11.771   6.462 -1.0193  1.2440 -0.6704
59738SOL    HW289529   9.960  11.912   6.495  0.7760  0.5695  0.0375
59739SOL     OW89530   3.929   3.575  12.233 -0.2748 -0.5888 -0.3731
59739SOL    HW189531   3.904   3.522  12.308 -0.5077 -2.3642 -1.6486
59739SOL    HW289532   4.005   3.529  12.196 -1.3810 -0.9126 -2.3669
59740SOL     OW89533  12.361  10.994   0.165 -0.8122 -0.4041  0.3287
59740SOL    HW189534  12.339  11.078   0.206  3.4803  0.6858  0.9860
59740SOL    HW289535  12.348  10.929   0.234 -0.0132  0.4412  1.3193
59741SOL     OW89536  10.472  12.550   4.071 -0.0165  0.4689  0.2553
59741SOL    HW189537  10.442  12.566   3.982 -0.4741 -0.0018  0.3222
59741SOL    HW289538  10.400  12.503   4.113  0.1534  0.7699  0.9027
59742SOL     OW89539   5.372   2.341   5.021  0.6474 -0.4704 -0.5012
59742SOL    HW189540   5.347   2.263   4.972  1.9543  0.3626 -2.6713
59742SOL    HW289541   5.452   2.316   5.067 -0.6715 -1.3056  1.4526
59743SOL     OW89542  10.821   2.327  10.016  0.1562 -0.1424  0.0808
59743SOL    HW189543  10.845   2.397   9.955 -2.2888  0.2530 -0.5572
59743SOL    HW289544  10.774   2.264   9.961  0.4631 -1.2307  1.0466
59744SOL     OW89545   5.057   9.770   7.641  0.3262 -0.3410  0.1678
59744SOL    HW189546   4.994   9.702   7.617 -0.7982  0.9198 -0.6086
59744SOL    HW289547   5.033   9.794   7.731  1.4894 -1.7389  0.9052
59745SOL     OW89548  10.495  10.533   2.069 -0.5063  0.0940  0.1541
59745SOL    HW189549  10.517  10.520   2.161  1.5956  2.7403  0.1537
59745SOL    HW289550  10.458  10.621   2.065 -0.9786 -0.1400 -1.4707
59746SOL     OW89551   8.170  10.690   4.196  0.3914 -0.0926  0.7555
59746SOL    HW189552   8.214  10.638   4.263  1.9828  1.0594  0.6840
59746SOL    HW289553   8.226  10.682   4.119 -1.7126 -1.8732 -0.7152
59747SOL     OW89554   1.250   3.817  10.661  0.0370  0.3185  0.5452
59747SOL    HW189555   1.164   3.809  10.620 -0.4728  0.8479  1.4501
59747SOL    HW289556   1.292   3.890  10.616 -0.2375  0.4564  0.5144
59748SOL     OW89557   3.898   7.890   4.694 -0.0017  0.4685  0.0452
59748SOL    HW189558   3.861   7.890   4.606 -0.2558 -2.2761  0.0743
59748SOL    HW289559   3.832   7.846   4.748  0.6055  1.1570  1.4036
59749SOL     OW89560   4.553   1.464   7.152  0.0829 -0.1607 -0.2345
59749SOL    HW189561   4.466   1.432   7.177 -0.4566  1.4878  0.0974
59749SOL    HW289562   4.604   1.384   7.138 -0.7731 -1.1865  1.9981
59750SOL     OW89563   2.374   7.981   4.879 -0.1725  0.3150 -0.7241
59750SOL    HW189564   2.374   7.927   4.958  1.6633  0.8218 -0.3367
59750SOL    HW289565   2.292   8.031   4.884 -0.3912 -0.1389  0.5304
59751SOL     OW89566   8.580   6.987   1.248 -0.3945 -0.4155 -0.3064
59751SOL    HW189567   8.576   6.952   1.159  1.3494 -0.8520 -0.2513
59751SOL    HW289568   8.591   6.910   1.304 -1.0059 -0.1090  0.2477
59752SOL     OW89569   3.355   1.166   0.406 -0.1332 -0.4437  0.5121
59752SOL    HW189570   3.311   1.088   0.371  0.5027 -0.5382 -0.0975
59752SOL    HW289571   3.306   1.240   0.369  1.7275 -0.4780 -2.3680
59753SOL     OW89572   4.206   1.006   2.288  0.6213 -0.0796 -0.2856
59753SOL    HW189573   4.238   0.918   2.267  1.2250 -0.0529  0.4819
59753SOL    HW289574   4.254   1.030   2.367 -0.8072  0.2397  0.5127
59754SOL     OW89575   2.702  12.662   4.122 -0.2021  0.2985 -0.2727
59754SOL    HW189576   2.644  12.730   4.086  0.6060  1.2403  0.1492
59754SOL    HW289577   2.676  12.656   4.214  1.1359  1.5905  0.2204
59755SOL     OW89578   8.038  12.462  12.371 -0.1131 -0.4279 -0.0968
59755SOL    HW189579   8.059  12.520  12.298  1.2126 -0.3680  0.2880
59755SOL    HW289580   8.035  12.520  12.447 -1.6924 -0.4576 -0.1109
59756SOL     OW89581   7.374  12.231   9.634  0.1034  0.7047 -0.4425
59756SOL    HW189582   7.468  12.213   9.628 -0.0312 -0.8779  1.4052
59756SOL    HW289583   7.338  12.198   9.551  1.0075  0.2309 -0.6587
59757SOL     OW89584   1.495   8.769   8.186 -0.0089  0.0429 -0.0081
59757SOL    HW189585   1.534   8.851   8.156 -0.2411  0.7068  1.4123
59757SOL    HW289586   1.408   8.768   8.146  0.4999 -0.2133 -1.1475
59758SOL     OW89587   2.486   8.916   9.111 -0.8699  0.1375  0.6183
59758SOL    HW189588   2.464   8.845   9.050  0.4892  0.0060  0.2430
59758SOL    HW289589   2.570   8.949   9.080 -1.5898  2.1264  0.6225
59759SOL     OW89590   2.840   3.019   7.597  0.5134 -0.0753  0.0992
59759SOL    HW189591   2.867   2.931   7.573 -3.4920 -1.9213  1.4978
59759SOL    HW289592   2.866   3.029   7.688  0.7065  0.1134  0.0263
59760SOL     OW89593   4.276   1.345   8.344  0.1381  0.0429 -0.4628
59760SOL    HW189594   4.215   1.298   8.401 -0.8303 -0.3991 -1.8083
59760SOL    HW289595   4.362   1.314   8.369 -0.3099 -0.5577  0.3811
59761SOL     OW89596   6.535  10.953   1.671  0.6017  0.4233  0.1059
59761SOL    HW189597   6.581  10.920   1.748 -1.1463  1.1203  1.5348
59761SOL    HW289598   6.538  10.881   1.608  0.2850 -0.9900  1.6382
59762SOL     OW89599   4.538   0.727   2.801 -0.0979  0.0681 -0.3133
59762SOL    HW189600   4.473   0.678   2.750  0.4091 -0.6573 -0.2882
59762SOL    HW289601   4.622   0.699   2.764  0.2292  0.3715  0.1968
59763SOL     OW89602   4.800   2.781   1.190  0.1471  0.0174 -0.5428
59763SOL    HW189603   4.712   2.773   1.227 -0.0031 -1.2378 -1.1128
59763SOL    HW289604   4.846   2.838   1.251 -0.8170  0.0119  0.2238
59764SOL     OW89605   8.706  11.176   1.244  0.5248 -0.4057  0.6047
59764SOL    HW189606   8.614  11.168   1.220  0.3747 -2.9949  1.6819
59764SOL    HW289607   8.731  11.263   1.214 -2.4980  0.7700  1.1021
59765SOL     OW89608   6.088   7.078   5.862  0.2810  0.1249  0.4361
59765SOL    HW189609   6.106   7.007   5.800  2.8052  0.7813  0.3198
59765SOL    HW289610   6.053   7.149   5.807 -1.8319 -0.8176  0.4913
59766SOL     OW89611  12.513   7.775   4.750 -0.4788 -0.3734  0.0142
59766SOL    HW189612  12.445   7.714   4.724  0.7659 -1.1288 -1.5923
59766SOL    HW289613  12.544   7.742   4.834 -0.6014 -1.2866 -0.2947
59767SOL     OW89614  12.642   4.282   8.636  0.3465 -0.1052 -0.2064
59767SOL    HW189615  12.616   4.374   8.632  1.1164  0.1254 -0.0551
59767SOL    HW289616  12.581   4.237   8.576 -1.1560  0.2138  1.0349
59768SOL     OW89617   0.964   0.487   5.771 -0.5108 -0.1895  0.0445
59768SOL    HW189618   1.044   0.492   5.824  0.2640 -0.4070 -1.0588
59768SOL    HW289619   0.918   0.410   5.805  0.6742 -1.1839 -0.5104
59769SOL     OW89620   0.579   3.429  11.114 -0.3357 -0.4310 -0.0847
59769SOL    HW189621   0.669   3.435  11.081  0.2120 -0.5755  1.3335
59769SOL    HW289622   0.525   3.454  11.039  0.9720  2.1609 -0.2999
59770SOL     OW89623   4.418   9.125   0.955 -0.5694 -0.2545  0.3197
59770SOL    HW189624   4.480   9.194   0.932  0.6052 -0.8173  1.5825
59770SOL    HW289625   4.458   9.045   0.919 -1.7990 -0.3214 -0.9422
59771SOL     OW89626  11.519  10.448   3.790  0.4077 -0.0588  0.0382
59771SOL    HW189627  11.548  10.526   3.837  0.0090 -0.3694  0.8068
59771SOL    HW289628  11.470  10.482   3.715 -0.3659  0.4353  0.7543
59772SOL     OW89629   1.171   1.980   8.704  0.1589 -0.4033 -0.3324
59772SOL    HW189630   1.229   2.055   8.698  0.7363 -0.8663 -0.7363
59772SOL    HW289631   1.195   1.925   8.629 -0.4285 -0.8642 -0.1955
59773SOL     OW89632  12.906   3.280   9.232  0.4086 -0.3108 -0.5018
59773SOL    HW189633  12.991   3.251   9.200  1.0401  1.3227 -0.4230
59773SOL    HW289634  12.891   3.363   9.186 -0.2560  0.3764  0.9023
59774SOL     OW89635   7.121   8.105   4.875 -0.3886 -0.2126 -0.6145
59774SOL    HW189636   7.186   8.116   4.806 -1.1267 -0.6461 -1.4174
59774SOL    HW289637   7.140   8.019   4.913  0.5684  0.4039  0.3513
59775SOL     OW89638   5.670   8.330   5.622 -0.6346 -0.0994  0.4688
59775SOL    HW189639   5.731   8.260   5.598  1.5052  1.1140  2.0541
59775SOL    HW289640   5.636   8.305   5.708  0.8842  1.1889  1.4933
59776SOL     OW89641   8.583   1.251   0.756 -0.1456  0.1083 -0.3884
59776SOL    HW189642   8.633   1.203   0.690  1.8273 -0.3655  1.3728
59776SOL    HW289643   8.627   1.232   0.838 -1.3540  2.2603  0.8278
59777SOL     OW89644  11.379   5.094   3.705 -0.8512  0.5296 -0.3051
59777SOL    HW189645  11.445   5.141   3.653 -0.8843  0.8466 -0.0643
59777SOL    HW289646  11.375   5.007   3.665  1.1401 -0.1778  0.8557
59778SOL     OW89647   7.217   0.414   9.920  0.1478  0.0154  0.5183
59778SOL    HW189648   7.177   0.329   9.934  0.3313 -0.4174 -1.3277
59778SOL    HW289649   7.145   0.476   9.924 -0.0410 -0.2557  1.4967
59779SOL     OW89650   1.729  10.777  10.075 -0.5348 -0.3603 -0.4176
59779SOL    HW189651   1.737  10.698  10.022 -0.0050 -0.3260 -0.3909
59779SOL    HW289652   1.698  10.844  10.014 -1.0538 -0.6003 -0.4250
59780SOL     OW89653   1.912  11.971   5.822 -0.3467 -0.0446 -0.4655
59780SOL    HW189654   1.851  11.957   5.750  0.1135 -0.1339 -0.8383
59780SOL    HW289655   1.995  11.935   5.791  0.1027  0.7955 -0.2727
59781SOL     OW89656   4.198   7.674   3.609 -0.3294  0.2241  1.2258
59781SOL    HW189657   4.165   7.754   3.569 -0.6596 -0.3345  0.3383
59781SOL    HW289658   4.203   7.693   3.702 -1.1514  1.0072  1.1176
59782SOL     OW89659   5.421  10.907  11.640 -0.2463 -0.0740 -0.4028
59782SOL    HW189660   5.389  10.993  11.663  0.4114 -0.5040  2.4210
59782SOL    HW289661   5.347  10.865  11.594 -1.2034  1.3169 -0.1814
59783SOL     OW89662  11.366   4.333   6.014 -0.2534 -0.1464  0.0970
59783SOL    HW189663  11.328   4.420   6.027 -0.0267  0.0549 -0.5495
59783SOL    HW289664  11.325   4.301   5.934  0.5665 -0.1344 -0.3312
59784SOL     OW89665  10.930   1.332   4.732 -0.2906 -0.2553 -0.2787
59784SOL    HW189666  10.840   1.361   4.748 -0.6407 -1.7259  0.5755
59784SOL    HW289667  10.928   1.299   4.642 -0.6590 -0.4833 -0.1896
59785SOL     OW89668   6.677   6.047   9.303 -0.3141 -0.2272 -0.0601
59785SOL    HW189669   6.582   6.061   9.301 -0.7417 -2.5292  1.0744
59785SOL    HW289670   6.692   5.978   9.238  0.4150 -0.6457  0.5362
59786SOL     OW89671   3.262  12.528   4.034 -0.9454  0.1203 -0.3154
59786SOL    HW189672   3.322  12.476   4.088 -1.3394  1.6536  1.7273
59786SOL    HW289673   3.182  12.476   4.031 -0.8191 -0.1322  0.3482
59787SOL     OW89674   9.040   3.601   6.337 -0.3761 -0.4472 -0.0505
59787SOL    HW189675   9.028   3.695   6.354 -0.0313 -0.3734 -0.1855
59787SOL    HW289676   8.958   3.560   6.363 -0.4455 -0.1337  0.2268
59788SOL     OW89677   1.374   5.903  12.711  0.5336  0.1036  0.2306
59788SOL    HW189678   1.305   5.943  12.658 -1.2749  2.8907  4.1962
59788SOL    HW289679   1.335   5.822  12.745  0.9406 -0.6085 -0.9361
59789SOL     OW89680   9.749  12.245   4.474 -0.1870 -0.4411 -0.0228
59789SOL    HW189681   9.674  12.287   4.516  1.9985  3.3529  0.5665
59789SOL    HW289682   9.807  12.222   4.547  0.3496 -0.9163 -0.5909
59790SOL     OW89683   8.685  11.393   7.089 -0.4755 -0.2190  0.2093
59790SOL    HW189684   8.600  11.422   7.120 -0.4116 -1.9761  2.2968
59790SOL    HW289685   8.735  11.375   7.169  0.9092 -1.7697 -0.9215
59791SOL     OW89686   5.346  12.380   4.073  0.2086  0.3929 -0.8413
59791SOL    HW189687   5.407  12.426   4.130 -1.2815  1.5919 -0.1500
59791SOL    HW289688   5.330  12.296   4.116 -0.0131  0.8204 -0.0765
59792SOL     OW89689   3.124   9.785   6.572 -0.0171  0.2874  0.3672
59792SOL    HW189690   3.204   9.835   6.588  0.9110 -1.0617  0.1614
59792SOL    HW289691   3.140   9.701   6.616 -1.7377  0.3299  1.1715
59793SOL     OW89692   3.306  12.297   2.102 -0.4247  0.1303  0.5226
59793SOL    HW189693   3.397  12.272   2.086 -0.9614 -1.1729 -0.7012
59793SOL    HW289694   3.269  12.222   2.150 -0.9336  0.5173  0.7414
59794SOL     OW89695   2.752   6.906   6.574  0.6302  0.1341 -0.2209
59794SOL    HW189696   2.768   6.815   6.600 -2.0162 -0.3902 -0.2263
59794SOL    HW289697   2.765   6.905   6.479  2.1251  0.1600 -0.0437
59795SOL     OW89698   3.209  12.151   4.336  0.7490  0.1896  0.1650
59795SOL    HW189699   3.298  12.143   4.302  0.9351 -0.7877  0.8510
59795SOL    HW289700   3.211  12.229   4.391  1.0696  0.3996 -0.1408
59796SOL     OW89701   5.598  11.644   1.344  0.3460  0.4369  0.0874
59796SOL    HW189702   5.528  11.701   1.376 -0.5344 -1.2089  1.1805
59796SOL    HW289703   5.561  11.556   1.345  1.1207 -0.0695 -3.0670
59797SOL     OW89704   6.985   2.324   4.316 -0.5214 -0.4299 -0.1082
59797SOL    HW189705   6.973   2.281   4.401 -0.0488  0.1165  0.2482
59797SOL    HW289706   7.074   2.358   4.320 -0.1814 -1.1543 -1.1792
59798SOL     OW89707   7.220   0.560  10.434 -0.1503  0.3141 -0.1852
59798SOL    HW189708   7.189   0.611  10.509  0.5452  0.3202  0.1061
59798SOL    HW289709   7.314   0.579  10.430  0.1791 -1.1912  0.1209
59799SOL     OW89710   9.400   7.072   8.930  0.1187 -0.6215 -0.0093
59799SOL    HW189711   9.432   7.067   8.840  1.3366 -1.7495  0.4594
59799SOL    HW289712   9.382   6.982   8.954  1.6871 -0.5829  1.5099
59800SOL     OW89713  10.570  12.549   9.257  0.4093  0.2997  0.2727
59800SOL    HW189714  10.578  12.466   9.302 -0.3404 -0.2124 -0.4994
59800SOL    HW289715  10.634  12.545   9.186  0.3161  0.3513  0.1849
59801SOL     OW89716   6.718  12.573   4.497  0.1117 -0.0373 -0.3158
59801SOL    HW189717   6.649  12.589   4.561 -0.3524 -0.4994 -0.6865
59801SOL    HW289718   6.673  12.572   4.412  0.5087 -0.6702 -0.5335
59802SOL     OW89719   2.723   6.923   9.753 -0.5025 -0.1874 -0.2000
59802SOL    HW189720   2.751   6.964   9.671  1.2330  1.5782  1.1764
59802SOL    HW289721   2.646   6.973   9.780  0.2609  0.7340  0.3324
59803SOL     OW89722  12.957   8.782   8.010  0.5015  0.2476 -0.3244
59803SOL    HW189723  12.879   8.815   8.055  0.6929 -0.9011  0.9192
59803SOL    HW289724  12.980   8.851   7.948 -1.6071  0.5513 -0.8614
59804SOL     OW89725   7.708   5.956   3.707  0.2970 -1.3772  0.0397
59804SOL    HW189726   7.789   5.907   3.720  2.2544  1.6759  0.4535
59804SOL    HW289727   7.655   5.937   3.785  0.9576 -2.8047  0.1566
59805SOL     OW89728   9.976  12.194  12.333 -0.2888 -0.1951 -0.2741
59805SOL    HW189729  10.051  12.171  12.388 -1.7583  1.0145  2.4225
59805SOL    HW289730  10.011  12.256  12.270  1.1631 -0.3359  0.3453
59806SOL     OW89731  11.982   1.039   3.500  0.3242 -0.4693 -0.7684
59806SOL    HW189732  11.920   1.092   3.551  1.1368  0.2341 -0.4942
59806SOL    HW289733  11.952   0.949   3.513 -0.8733 -0.1251 -0.9618
59807SOL     OW89734   9.227   2.350   6.909  0.1921  0.1087  0.6047
59807SOL    HW189735   9.237   2.445   6.903  0.6370  0.1501  1.7044
59807SOL    HW289736   9.316   2.318   6.926  0.1516 -0.5759 -0.3904
59808SOL     OW89737  12.471   5.605   4.954 -0.7097 -0.1864  0.0013
59808SOL    HW189738  12.409   5.651   5.011  0.8917  0.5329  1.2382
59808SOL    HW289739  12.547   5.587   5.010  0.5255 -0.3614 -1.6512
59809SOL     OW89740   7.334  12.893  11.954  0.1557  0.2053  0.2152
59809SOL    HW189741   7.339  12.915  11.861 -0.5196  0.7690  0.3072
59809SOL    HW289742   7.372  12.805  11.960  0.3589  0.2350 -0.5619
59810SOL     OW89743   2.896   5.729   7.859  0.1880 -0.4012 -0.6174
59810SOL    HW189744   2.943   5.646   7.872  0.7688 -0.1912 -1.2930
59810SOL    HW289745   2.863   5.752   7.946  1.0018 -0.7617 -0.2011
59811SOL     OW89746   9.935   1.325   9.105 -0.3928  0.3119 -0.5009
59811SOL    HW189747   9.905   1.237   9.128 -1.6666  1.4458  2.7249
59811SOL    HW289748   9.982   1.355   9.182  1.2811  2.0090 -2.0855
59812SOL     OW89749   0.610   1.547   0.754  0.0792 -0.1636  0.2009
59812SOL    HW189750   0.604   1.505   0.668 -2.4293 -0.8619  0.6209
59812SOL    HW289751   0.635   1.476   0.813 -3.2331 -1.0729  0.7566
59813SOL     OW89752   0.204   4.786   6.652  0.0259  0.5270 -0.0306
59813SOL    HW189753   0.263   4.859   6.673 -0.4365  0.5303  1.3612
59813SOL    HW289754   0.158   4.768   6.735 -1.5888  0.2219 -0.9511
59814SOL     OW89755   9.443   4.723   2.284 -0.5748  0.2405 -0.0765
59814SOL    HW189756   9.523   4.709   2.335  0.8270  1.6961 -1.7036
59814SOL    HW289757   9.474   4.727   2.193 -2.8473 -1.5059 -1.0081
59815SOL     OW89758   6.641   1.857   7.555  0.0952  0.0305 -0.1926
59815SOL    HW189759   6.666   1.784   7.611  1.4802  1.1630  0.7061
59815SOL    HW289760   6.664   1.828   7.466 -1.8474 -1.6523 -0.2383
59816SOL     OW89761   7.534  11.392   3.099 -0.3152 -0.0359  0.1856
59816SOL    HW189762   7.593  11.331   3.143  0.4995  0.8667  0.3980
59816SOL    HW289763   7.446  11.363   3.122  0.0778 -0.6182  0.9625
59817SOL     OW89764   4.986   9.834   2.120  0.4429  0.4897  0.1845
59817SOL    HW189765   5.040   9.764   2.155 -0.0119  0.1009  0.1194
59817SOL    HW289766   4.950   9.799   2.038 -1.3041  0.0592  1.0863
59818SOL     OW89767   4.034   2.810  10.456 -0.8965  0.3250  0.2486
59818SOL    HW189768   4.115   2.860  10.442 -0.3838 -0.9705 -1.8188
59818SOL    HW289769   4.014   2.823  10.549  1.1782  1.4239  0.6130
59819SOL     OW89770   4.503   0.187  12.036 -0.2755  0.5371  0.1803
59819SOL    HW189771   4.559   0.233  12.098 -0.1973  0.3907  0.2175
59819SOL    HW289772   4.498   0.246  11.961 -0.4685  0.7673  0.3728
59820SOL     OW89773   3.883   9.183   0.903 -0.2034 -0.1052  0.1781
59820SOL    HW189774   3.852   9.116   0.964  0.1594 -0.4665 -0.0277
59820SOL    HW289775   3.978   9.172   0.901 -0.0188  1.1244  0.9605
59821SOL     OW89776   2.003  10.275   0.907  0.0644  0.3918  0.0245
59821SOL    HW189777   1.970  10.201   0.959 -2.4324  1.9720  0.8929
59821SOL    HW289778   2.005  10.348   0.968  1.6335  1.2809 -1.0209
59822SOL     OW89779   0.577   6.055   5.839 -0.1593 -0.2660  0.3416
59822SOL    HW189780   0.519   6.075   5.765  0.3306 -0.4061 -0.0925
59822SOL    HW289781   0.607   6.140   5.870  0.5236 -0.2420 -0.3571
59823SOL     OW89782   0.181   0.423   3.075 -0.4087 -0.1442  0.6164
59823SOL    HW189783   0.243   0.480   3.029 -2.0088  0.1856 -1.2980
59823SOL    HW289784   0.158   0.473   3.154 -0.4612  1.0924 -0.1453
59824SOL     OW89785   1.552  11.386   6.455 -0.1183  0.0780 -0.5744
59824SOL    HW189786   1.477  11.445   6.450 -0.2541 -0.1441 -1.4161
59824SOL    HW289787   1.536  11.333   6.533 -0.6900  0.2259 -0.5889
59825SOL     OW89788   5.892   1.613   1.661 -0.4986  0.0771 -0.4090
59825SOL    HW189789   5.869   1.672   1.733  0.0658 -0.5292  0.2816
59825SOL    HW289790   5.869   1.526   1.692  0.9307 -0.3420 -0.4212
59826SOL     OW89791   4.544  11.944  12.009 -0.9930  0.2533  0.0972
59826SOL    HW189792   4.520  11.924  12.100  0.2297  1.8939  0.8404
59826SOL    HW289793   4.634  11.913  12.001 -1.0952  0.1211 -0.5572
59827SOL     OW89794   0.523   6.153   7.103 -0.0787 -0.2681 -0.4954
59827SOL    HW189795   0.508   6.153   7.197 -1.2462 -1.4506 -0.6594
59827SOL    HW289796   0.605   6.104   7.091 -0.3860 -0.8751 -0.1500
59828SOL     OW89797   3.600  11.428   7.026 -0.3566  0.3174  0.6294
59828SOL    HW189798   3.573  11.338   7.043  0.7141 -0.8475 -2.9365
59828SOL    HW289799   3.678  11.440   7.080 -0.2060 -1.0933  0.7515
59829SOL     OW89800  11.955   0.473   0.854  0.2582 -0.6190 -0.5287
59829SOL    HW189801  11.872   0.425   0.851 -0.1464 -0.1118  1.0988
59829SOL    HW289802  11.962   0.515   0.768 -1.6132  0.0137 -0.4200
59830SOL     OW89803   7.064   7.931   2.653  0.1245 -0.1524  0.4725
59830SOL    HW189804   7.146   7.959   2.613 -0.0242 -0.3590  0.0214
59830SOL    HW289805   7.029   7.864   2.594 -1.7698  1.8632 -0.8479
59831SOL     OW89806   3.751   8.454   8.067  0.1521  0.0816  0.4198
59831SOL    HW189807   3.695   8.382   8.039  0.0679  0.7271 -1.1587
59831SOL    HW289808   3.807   8.416   8.135 -0.9898 -1.0220  0.7914
59832SOL     OW89809   7.860   7.937  11.188 -0.5749 -0.3485 -0.1377
59832SOL    HW189810   7.908   7.979  11.260 -0.9965  0.1954 -0.1707
59832SOL    HW289811   7.797   8.003  11.159 -0.9377 -0.8440 -0.4924
59833SOL     OW89812   7.640   1.358   1.171  0.1073 -0.3413  0.4451
59833SOL    HW189813   7.712   1.418   1.192  1.1717 -0.8173 -1.6062
59833SOL    HW289814   7.589   1.354   1.252  0.8334  2.1408  1.1315
59834SOL     OW89815   4.892  11.048   1.072  0.1666 -0.0217  0.2529
59834SOL    HW189816   4.895  10.955   1.095  1.0285  0.6718  3.6189
59834SOL    HW289817   4.814  11.058   1.018 -0.3239 -2.5748  0.3893
59835SOL     OW89818   4.737   6.368   8.200 -0.5160  0.3854  0.4795
59835SOL    HW189819   4.692   6.447   8.231 -1.2539 -0.5341  1.7767
59835SOL    HW289820   4.808   6.402   8.145 -2.1617  1.8993 -0.8333
59836SOL     OW89821  11.916   8.803   2.128  0.7135  0.0210  0.2476
59836SOL    HW189822  11.984   8.857   2.088 -1.8320  1.4212 -2.5863
59836SOL    HW289823  11.867   8.863   2.185  0.7873 -0.5598  0.9513
59837SOL     OW89824   3.111   9.459   9.332 -0.1629 -0.1103 -0.3861
59837SOL    HW189825   3.089   9.513   9.257 -0.3397  2.1312  1.1890
59837SOL    HW289826   3.200   9.485   9.356  0.1503 -1.2827 -0.1759
59838SOL     OW89827   6.197  11.068   2.361  0.4786  0.2305  0.0454
59838SOL    HW189828   6.167  11.145   2.313  0.5108 -0.1709 -0.6359
59838SOL    HW289829   6.133  11.056   2.430 -0.8625 -0.4957 -1.2638
59839SOL     OW89830  10.127   1.862   8.278  0.1282  0.0872 -0.3801
59839SOL    HW189831  10.188   1.904   8.338  1.2453 -1.2085 -0.5435
59839SOL    HW289832  10.043   1.905   8.294  0.3504 -0.2568  2.1858
59840SOL     OW89833   1.010   7.373   5.920  0.4986  0.2482 -0.5878
59840SOL    HW189834   1.071   7.424   5.973  0.2370  0.8235 -0.8439
59840SOL    HW289835   1.046   7.377   5.831  0.1846  0.4353 -0.7059
59841SOL     OW89836  10.148   7.774   4.525  0.0937 -0.2336 -0.0794
59841SOL    HW189837  10.216   7.841   4.523  0.7721 -0.9132 -0.0162
59841SOL    HW289838  10.066   7.823   4.512  0.6668  0.4807 -1.1864
59842SOL     OW89839   2.351   5.966   4.976  0.2160  0.5877  0.6710
59842SOL    HW189840   2.446   5.970   4.983  0.2207 -1.1689  2.2968
59842SOL    HW289841   2.335   5.930   4.889  1.1581 -1.3442  1.2464
59843SOL     OW89842   2.831  11.903  12.904  0.2074 -0.1169 -0.2137
59843SOL    HW189843   2.919  11.880  12.871 -0.1678  0.7414 -1.9593
59843SOL    HW289844   2.818  11.845  12.979  1.6555 -1.3486 -0.8392
59844SOL     OW89845   5.390   4.117   8.533 -0.0460 -0.1599  0.4599
59844SOL    HW189846   5.317   4.069   8.495  0.5062 -0.1741 -0.5948
59844SOL    HW289847   5.349   4.172   8.601 -1.1551  0.4452 -0.6557
59845SOL     OW89848   2.652   4.583  11.732  0.2101  0.3854  0.5331
59845SOL    HW189849   2.606   4.501  11.752  1.1121 -0.1855  0.2980
59845SOL    HW289850   2.584   4.639  11.694 -0.1828 -0.6631 -0.3843
59846SOL     OW89851   3.018   3.584  10.541 -0.2079  0.3429 -0.3347
59846SOL    HW189852   2.931   3.621  10.531 -0.3533  0.1638  0.2271
59846SOL    HW289853   3.052   3.578  10.451  0.8016  4.1028 -0.3790
59847SOL     OW89854   6.187   2.005   0.592  0.7384  0.0672  0.0266
59847SOL    HW189855   6.223   1.929   0.545  2.7109 -0.0511  1.5875
59847SOL    HW289856   6.246   2.077   0.572  0.0057  0.7132  0.1211
59848SOL     OW89857   6.897   2.006   7.697  0.2646 -0.2312 -0.6060
59848SOL    HW189858   6.962   1.946   7.735 -0.5143 -0.0926  1.0204
59848SOL    HW289859   6.815   1.958   7.703 -0.2205  0.6417 -0.1128
59849SOL     OW89860  10.996   3.183  12.714  0.7688  0.0561  0.0473
59849SOL    HW189861  10.951   3.152  12.793 -0.2715  1.1006 -0.1087
59849SOL    HW289862  11.083   3.209  12.745  1.6812 -2.7850  0.2056
59850SOL     OW89863   6.849   5.915   4.177 -0.0980 -0.1209 -0.3595
59850SOL    HW189864   6.884   5.844   4.122  1.6266  0.0897  0.3923
59850SOL    HW289865   6.795   5.870   4.242 -0.7874 -0.5202 -1.1824
59851SOL     OW89866  10.289  10.283  11.378 -0.3334 -0.5973  0.1322
59851SOL    HW189867  10.345  10.292  11.455  1.0799  0.8362 -1.0015
59851SOL    HW289868  10.207  10.249  11.413 -1.3147  3.8231  3.0345
59852SOL     OW89869   0.546   3.794  11.012 -0.7122 -0.3982 -0.0709
59852SOL    HW189870   0.481   3.732  11.046 -0.3934 -1.4159 -1.2573
59852SOL    HW289871   0.623   3.779  11.066 -0.5274 -1.3021 -0.5603
59853SOL     OW89872  12.966   6.685   5.496  0.6671  0.4723  0.0376
59853SOL    HW189873  12.895   6.685   5.432  1.4242 -1.1644 -0.8646
59853SOL    HW289874  13.040   6.645   5.450  1.3974 -0.2742  1.7743
59854SOL     OW89875   8.598  12.246   9.109 -0.3137  0.2267 -0.0910
59854SOL    HW189876   8.562  12.187   9.174 -1.0367  0.6923 -0.0530
59854SOL    HW289877   8.683  12.209   9.087  0.2017  0.3559  1.5265
59855SOL     OW89878  12.294  10.030  10.565  0.2814 -0.4145 -0.2828
59855SOL    HW189879  12.302  10.106  10.507 -0.8339  0.0692  0.1763
59855SOL    HW289880  12.312  10.065  10.652  0.4700 -0.8317 -0.1520
59856SOL     OW89881   6.603  11.089   6.560  0.2707  0.4791  0.1057
59856SOL    HW189882   6.617  11.184   6.559  1.0441  0.4473  2.3634
59856SOL    HW289883   6.555  11.072   6.641 -0.0056 -1.0446 -0.3458
59857SOL     OW89884   1.171   8.244  10.742 -0.2688  0.7733  0.0090
59857SOL    HW189885   1.173   8.289  10.658 -2.0914  1.6688  0.3947
59857SOL    HW289886   1.098   8.183  10.735  1.3361 -1.2642 -0.0322
59858SOL     OW89887   6.159   9.848  12.356  0.1055 -0.0687  0.1149
59858SOL    HW189888   6.102   9.773  12.338  2.4403 -1.6406 -1.1562
59858SOL    HW289889   6.129   9.880  12.442 -0.5761 -2.8694  1.0222
59859SOL     OW89890  12.022  10.010   2.819  0.6613  0.0839  0.6924
59859SOL    HW189891  12.068  10.026   2.901  1.1427 -0.7493  0.5903
59859SOL    HW289892  12.039   9.919   2.798  2.0773  0.7369 -1.2686
59860SOL     OW89893   2.938   4.101   2.140 -0.3224  0.1401  0.4596
59860SOL    HW189894   2.857   4.113   2.091  0.3171 -0.4705 -0.7981
59860SOL    HW289895   2.937   4.009   2.166 -0.9760  0.6094  2.2433
59861SOL     OW89896   9.434   2.887   3.227  0.3844 -0.2818  0.3300
59861SOL    HW189897   9.499   2.956   3.218  0.0150  0.2080  1.3026
59861SOL    HW289898   9.476   2.810   3.190  1.4259  0.0848  0.7129
59862SOL     OW89899   3.958   0.585   5.683 -0.1089 -0.0003 -0.3126
59862SOL    HW189900   4.018   0.592   5.608  1.5929  1.0276  1.0816
59862SOL    HW289901   3.963   0.493   5.708  1.0466  0.0921 -0.1240
59863SOL     OW89902   1.246   7.973   0.667  0.2610 -0.2318 -0.6366
59863SOL    HW189903   1.306   7.954   0.596  0.1295 -1.9041 -0.3327
59863SOL    HW289904   1.197   8.050   0.637  1.5074  0.2552 -1.5042
59864SOL     OW89905  10.506   0.620   4.836  0.2167  0.0376 -0.2855
59864SOL    HW189906  10.424   0.583   4.803 -0.4345  1.0644  0.1302
59864SOL    HW289907  10.532   0.560   4.906  0.1783 -0.6602 -0.8552
59865SOL     OW89908   0.808   6.754   9.503  0.0020  0.0362 -0.8850
59865SOL    HW189909   0.841   6.754   9.592  0.6535  0.6123 -1.1240
59865SOL    HW289910   0.713   6.746   9.512  0.2120 -3.0816 -0.2132
59866SOL     OW89911   3.728   0.557   3.920  0.0859 -0.3438 -0.0835
59866SOL    HW189912   3.659   0.494   3.904  0.3861 -0.6719 -0.0921
59866SOL    HW289913   3.721   0.579   4.013  0.8704 -1.4558  0.2517
59867SOL     OW89914  12.381   5.431  12.457 -0.5504 -0.2306  0.1631
59867SOL    HW189915  12.337   5.506  12.416 -0.6078 -0.0879  0.4897
59867SOL    HW289916  12.449   5.469  12.511  0.2086 -0.4599 -0.5968
59868SOL     OW89917   0.323   8.307   5.822 -0.5358  0.3888  0.5094
59868SOL    HW189918   0.339   8.400   5.808  1.3429  0.0709  0.2864
59868SOL    HW289919   0.387   8.263   5.767 -1.4168 -1.0549  0.5848
59869SOL     OW89920   0.235  11.937  10.270  0.1275  0.4615 -0.1197
59869SOL    HW189921   0.241  11.930  10.175 -1.9205 -2.1287 -0.1745
59869SOL    HW289922   0.296  11.872  10.304 -0.0201  0.5401  0.3077
59870SOL     OW89923   3.102   5.012  12.532 -0.5040  0.0491 -0.1012
59870SOL    HW189924   3.023   4.972  12.496 -0.5009 -0.5574  0.5533
59870SOL    HW289925   3.119   5.088  12.475 -0.7027 -0.6748 -1.1465
59871SOL     OW89926   3.251   4.248   6.299  0.1464 -0.3646  0.0990
59871SOL    HW189927   3.281   4.327   6.343  0.3215 -0.3889  0.0212
59871SOL    HW289928   3.330   4.207   6.264 -0.1942  0.9187 -2.3470
59872SOL     OW89929  11.487   7.374   4.252  0.2262  0.2734 -0.3034
59872SOL    HW189930  11.400   7.338   4.271  0.6589 -1.4779 -1.3092
59872SOL    HW289931  11.503   7.348   4.161  2.6462 -1.3684  0.4875
59873SOL     OW89932   5.084   7.131   8.017 -0.3059  0.1261  0.1830
59873SOL    HW189933   5.030   7.209   8.025 -0.7045 -0.3395  3.2754
59873SOL    HW289934   5.037   7.075   7.956 -1.9167  0.8421  0.7230
59874SOL     OW89935   8.590  10.733   7.869 -0.5856 -0.0766  0.7051
59874SOL    HW189936   8.680  10.703   7.886 -0.5952 -0.0126  0.8763
59874SOL    HW289937   8.600  10.810   7.814 -0.6463 -1.8378 -1.9405
59875SOL     OW89938   2.730   7.064  11.751 -0.0104  0.4139 -0.1515
59875SOL    HW189939   2.808   7.119  11.752  1.6587 -1.8051 -1.0313
59875SOL    HW289940   2.727   7.025  11.839 -1.6227  2.3219  0.7361
59876SOL     OW89941   3.879   2.075  10.512 -0.0934  0.1354  0.0369
59876SOL    HW189942   3.905   1.983  10.512 -0.2700  0.0763  1.2116
59876SOL    HW289943   3.786   2.073  10.533  0.3456  0.6650  2.3220
59877SOL     OW89944  11.225  12.063   4.817  0.3095 -0.1983  0.4028
59877SOL    HW189945  11.202  12.129   4.753 -1.1054  1.6002  2.5865
59877SOL    HW289946  11.161  11.993   4.804 -1.3775  1.1274  1.1580
59878SOL     OW89947   6.921   9.908  12.683  0.5836  0.3811 -0.3758
59878SOL    HW189948   6.947   9.841  12.745 -0.0209  0.5874  0.1046
59878SOL    HW289949   6.855   9.866  12.628  0.2910  0.5377 -0.1495
59879SOL     OW89950  12.931   6.319   5.340  0.0890 -0.3263  0.0349
59879SOL    HW189951  12.887   6.257   5.281 -1.6797  0.0933  0.8408
59879SOL    HW289952  12.979   6.378   5.282 -1.2860 -0.1741 -1.0069
59880SOL     OW89953   6.202   1.313  11.368  0.7923 -0.4186 -0.6488
59880SOL    HW189954   6.167   1.342  11.452  1.9681 -1.7569  0.3587
59880SOL    HW289955   6.132   1.330  11.305 -1.0756 -1.5410  0.9864
59881SOL     OW89956   0.605   3.413   7.789 -0.3502  0.7464  0.0661
59881SOL    HW189957   0.686   3.413   7.840 -1.1225  1.7125  1.3657
59881SOL    HW289958   0.578   3.322   7.787  1.0153  0.3251 -0.8426
59882SOL     OW89959  12.459   9.530  10.448 -0.2641  0.3098 -0.1322
59882SOL    HW189960  12.519   9.544  10.375 -1.1130  0.9661 -0.7202
59882SOL    HW289961  12.409   9.611  10.454 -1.9692 -0.6624 -0.4982
59883SOL     OW89962   4.189   4.046   3.977 -0.1227 -0.1391  0.0110
59883SOL    HW189963   4.096   4.046   3.953  0.3700 -1.2501 -2.1112
59883SOL    HW289964   4.224   4.125   3.937 -0.1965  0.4504  1.0873
59884SOL     OW89965   3.896   4.197   9.737  0.7215 -0.2417 -0.3770
59884SOL    HW189966   3.979   4.227   9.775  0.9964  0.3277 -1.3951
59884SOL    HW289967   3.912   4.106   9.714  0.6470 -0.5063  0.5826
59885SOL     OW89968   2.568   7.261   4.333  0.6921 -0.4915  0.1330
59885SOL    HW189969   2.573   7.321   4.408 -0.1566  0.2887 -0.4124
59885SOL    HW289970   2.505   7.302   4.274  0.6161 -1.5905 -0.5704
59886SOL     OW89971   0.637  12.018  11.466 -0.1370 -0.9819  0.1236
59886SOL    HW189972   0.672  11.965  11.537  0.8064 -2.4803 -1.3813
59886SOL    HW289973   0.713  12.066  11.433 -0.2775 -1.2972 -0.6840
59887SOL     OW89974   0.745  12.351   0.649  0.0825  0.5299  0.2300
59887SOL    HW189975   0.789  12.266   0.659 -1.4944 -0.2368  1.1719
59887SOL    HW289976   0.777  12.403   0.722  1.3549  0.9155 -0.5726
59888SOL     OW89977   1.665   2.199   1.072  0.0208  0.2846  0.2897
59888SOL    HW189978   1.678   2.245   0.990 -0.4534  1.1514  0.6910
59888SOL    HW289979   1.623   2.116   1.047 -2.2627  1.5135 -0.1597
59889SOL     OW89980  10.771   9.464   2.451  0.2941 -0.3476  0.0963
59889SOL    HW189981  10.745   9.438   2.539 -0.2555 -0.1907 -0.0187
59889SOL    HW289982  10.844   9.406   2.430 -0.6560 -1.5412  0.0040
59890SOL     OW89983   5.460   9.783   8.611 -0.2185  0.1721  0.9864
59890SOL    HW189984   5.549   9.780   8.577  0.0316  2.0220  1.3590
59890SOL    HW289985   5.413   9.840   8.550 -1.0450 -0.4314  1.0410
59891SOL     OW89986   5.843   8.665   5.383 -0.6113 -0.0824  0.1413
59891SOL    HW189987   5.867   8.683   5.292 -0.9234 -1.7628 -0.3039
59891SOL    HW289988   5.750   8.686   5.387 -0.2103  1.8251  0.6152
59892SOL     OW89989   4.830  11.733   2.702 -0.2163  0.5049  0.1600
59892SOL    HW189990   4.833  11.725   2.606 -1.6786  1.8782 -0.0249
59892SOL    HW289991   4.737  11.728   2.724  0.1198 -0.1182  1.5718
59893SOL     OW89992  12.397   3.213   3.480 -0.0509  0.4653  0.4238
59893SOL    HW189993  12.456   3.188   3.408  0.2278  0.8924  0.4992
59893SOL    HW289994  12.426   3.158   3.554 -2.3373 -2.3025 -0.5633
59894SOL     OW89995   1.550   3.120   7.184 -0.5626 -0.3203  0.3290
59894SOL    HW189996   1.600   3.196   7.152  1.0303 -0.4425  2.3169
59894SOL    HW289997   1.481   3.159   7.239  0.5480 -0.2558  1.7433
59895SOL     OW89998  11.107  12.548   4.158  0.0847 -0.0760  0.0170
59895SOL    HW189999  11.063  12.509   4.083 -2.1074 -0.7403  1.5385
59895SOL    HW290000  11.159  12.477   4.196 -1.8847 -0.9419  1.2920
59896SOL     OW90001  12.397   7.070  12.180 -0.0940  0.3998 -0.0004
59896SOL    HW190002  12.373   7.061  12.273 -2.2989  0.1204 -0.5417
59896SOL    HW290003  12.320   7.108  12.139  0.8715  0.5680 -1.7385
59897SOL     OW90004   0.799   4.279   6.017 -0.1701  0.3668  0.0371
59897SOL    HW190005   0.754   4.233   6.088 -1.1850  1.3026  0.0260
59897SOL    HW290006   0.874   4.223   5.996  0.5302  0.3648  2.2625
59898SOL     OW90007   1.661   3.239  12.684 -0.2141 -0.3928 -0.7445
59898SOL    HW190008   1.670   3.217  12.776 -0.5055  0.8359 -0.3963
59898SOL    HW290009   1.745   3.278  12.660 -0.0011 -1.0688 -1.1069
59899SOL     OW90010   0.141   1.455   3.032 -0.2030  0.4722  0.0386
59899SOL    HW190011   0.222   1.480   2.988 -0.1281  0.3652  0.1150
59899SOL    HW290012   0.166   1.382   3.088  0.1315  1.8848  1.8054
59900SOL     OW90013   8.719   6.310   4.709  0.3287 -0.2735  0.4751
59900SOL    HW190014   8.790   6.254   4.677  0.7388 -1.2424  2.8087
59900SOL    HW290015   8.655   6.312   4.638  2.2298 -0.1587 -1.3356
59901SOL     OW90016  10.810  11.919  11.721 -0.5781  0.3389  0.3279
59901SOL    HW190017  10.858  11.979  11.779 -0.8154  2.1487 -1.2363
59901SOL    HW290018  10.878  11.866  11.679 -0.3747 -0.6590  1.8491
59902SOL     OW90019   3.806   7.725   2.830  0.0096 -0.3341  0.2092
59902SOL    HW190020   3.872   7.792   2.818  0.3106 -0.7468 -0.4835
59902SOL    HW290021   3.743   7.740   2.759 -0.2559 -0.3953  0.4296
59903SOL     OW90022   3.065   8.592   2.060  0.3145  0.0680  0.4262
59903SOL    HW190023   3.134   8.657   2.052  0.2275  0.0813 -0.2411
59903SOL    HW290024   3.073   8.537   1.982 -0.7642  0.4081  0.0556
59904SOL     OW90025   6.287   2.464   0.891 -0.3344  0.6063  0.1697
59904SOL    HW190026   6.314   2.528   0.825 -1.1298  1.4335  0.6228
59904SOL    HW290027   6.343   2.483   0.966 -0.6579  0.8596  0.3480
59905SOL     OW90028   5.508   9.609   6.045 -0.3498 -0.2912 -0.0672
59905SOL    HW190029   5.506   9.536   5.982  0.5846 -0.4397  0.0665
59905SOL    HW290030   5.531   9.685   5.993 -2.3012  0.1353 -0.3931
59906SOL     OW90031   0.394   6.184   4.464  0.3225 -0.3518  0.2426
59906SOL    HW190032   0.381   6.222   4.376 -0.8611 -0.2353  0.4420
59906SOL    HW290033   0.488   6.167   4.470  0.6421  1.0141 -0.4918
59907SOL     OW90034   0.742   6.831   1.717 -1.1098 -0.4751  0.3483
59907SOL    HW190035   0.832   6.824   1.749 -0.5781  0.4086 -0.8598
59907SOL    HW290036   0.725   6.747   1.674 -0.9842 -0.7655  0.8583
59908SOL     OW90037   4.432  12.231  12.500  0.0840 -0.2505 -0.4867
59908SOL    HW190038   4.359  12.179  12.467  0.1920 -0.2554 -0.7215
59908SOL    HW290039   4.408  12.252  12.591  0.9249 -2.3726  0.2903
59909SOL     OW90040   9.297   9.630   6.144 -0.2997 -0.1284 -0.0881
59909SOL    HW190041   9.359   9.596   6.208  0.3753 -0.7163 -1.0233
59909SOL    HW290042   9.340   9.615   6.059 -0.9553  1.0581 -0.6505
59910SOL     OW90043   8.205  12.257   8.884  0.2264 -0.0646 -0.9556
59910SOL    HW190044   8.143  12.198   8.841 -0.8174 -0.2189  0.7142
59910SOL    HW290045   8.179  12.345   8.855 -1.2278 -0.0700  0.2414
59911SOL     OW90046  10.634   0.860  11.881 -0.6507 -0.3611 -0.5397
59911SOL    HW190047  10.639   0.900  11.968 -2.3864  1.2661 -1.1182
59911SOL    HW290048  10.550   0.814  11.880  0.2896 -2.1710 -0.6897
59912SOL     OW90049   4.797   9.257   7.046 -0.2928 -0.0141  1.0757
59912SOL    HW190050   4.793   9.352   7.040 -0.8454 -0.1099 -2.8435
59912SOL    HW290051   4.740   9.235   7.120  0.5818  2.6640  2.6760
59913SOL     OW90052   3.355   4.946   3.110  0.1586  0.1386 -0.0418
59913SOL    HW190053   3.401   5.014   3.061 -2.1316  2.0473  0.2797
59913SOL    HW290054   3.394   4.949   3.198  1.7755 -0.7724 -0.6867
59914SOL     OW90055   4.861   6.173  12.896  0.4783 -0.2953  0.1022
59914SOL    HW190056   4.805   6.251  12.903 -2.7356 -2.2360 -1.5807
59914SOL    HW290057   4.930   6.200  12.836 -0.5847  1.2881 -0.5008
59915SOL     OW90058   6.332   1.067   1.173  0.3239  0.1657 -0.1350
59915SOL    HW190059   6.305   1.141   1.227 -0.3171  0.7072 -1.1635
59915SOL    HW290060   6.427   1.063   1.184  0.3662  1.1155 -0.0226
59916SOL     OW90061   8.116  12.727   8.714  0.1617 -0.2044  0.5862
59916SOL    HW190062   8.028  12.763   8.725  0.2906  0.9885 -1.7958
59916SOL    HW290063   8.129  12.672   8.792 -3.1389 -1.3962  0.4648
59917SOL     OW90064  11.534  11.975   4.739 -0.1642 -0.6294 -0.6670
59917SOL    HW190065  11.534  12.071   4.736  0.3446 -0.5171  1.3502
59917SOL    HW290066  11.441  11.951   4.742 -0.2826 -0.1374 -0.1981
59918SOL     OW90067   0.795   7.167  10.678  0.0918 -0.3485  0.1361
59918SOL    HW190068   0.718   7.182  10.732 -0.1151 -0.7257 -0.0569
59918SOL    HW290069   0.852   7.242  10.697 -0.8062  0.5422 -0.5946
59919SOL     OW90070  10.038  11.608   2.291 -0.4030  0.0106  0.6688
59919SOL    HW190071  10.089  11.616   2.372  1.4389 -0.9469 -0.3235
59919SOL    HW290072  10.030  11.513   2.278 -2.6928  0.1344  0.8977
59920SOL     OW90073  12.702   6.929   0.102  0.3104 -0.2535  0.1248
59920SOL    HW190074  12.779   6.955   0.051  0.1361 -0.5008 -0.2662
59920SOL    HW290075  12.701   6.833   0.096  1.3257 -0.4344  2.0966
59921SOL     OW90076   7.443   8.089  12.777 -0.1088  0.1981  0.1284
59921SOL    HW190077   7.522   8.039  12.758  0.1748 -0.8928  3.4813
59921SOL    HW290078   7.420   8.131  12.694  2.5310 -1.4410 -1.5754
59922SOL     OW90079   9.161  10.808   1.937  0.2078  0.3343 -0.3783
59922SOL    HW190080   9.143  10.863   2.014 -0.1822 -0.0686 -0.1735
59922SOL    HW290081   9.095  10.835   1.873  0.9688  1.1523 -0.8299
59923SOL     OW90082   4.880  10.518   7.951 -0.6291 -0.2052  0.2376
59923SOL    HW190083   4.849  10.533   7.862  0.7853  0.2011 -0.2041
59923SOL    HW290084   4.862  10.425   7.967 -1.5879 -0.1071 -0.1707
59924SOL     OW90085   6.919  11.984   0.307 -0.1662  0.4969  0.4033
59924SOL    HW190086   6.832  11.956   0.336 -0.6938  0.2866 -1.2853
59924SOL    HW290087   6.928  12.073   0.342 -0.7573  0.2621  1.1787
59925SOL     OW90088   6.993  12.540   9.387  0.3355  0.0912 -0.4084
59925SOL    HW190089   6.901  12.524   9.366  0.3944 -1.7122  0.5274
59925SOL    HW290090   7.003  12.505   9.476  2.5400 -2.3845 -1.4931
59926SOL     OW90091   4.680   9.604   9.047 -0.3798  0.5197 -0.1257
59926SOL    HW190092   4.634   9.655   8.980  0.7065  0.3686 -1.0245
59926SOL    HW290093   4.745   9.665   9.083 -0.7910  0.5246  0.6258
59927SOL     OW90094   6.368   8.869   8.957  0.0675  0.4403 -0.4632
59927SOL    HW190095   6.347   8.785   8.915 -2.4646  0.7177  0.0513
59927SOL    HW290096   6.297   8.882   9.020  2.4002  1.2493  2.1678
59928SOL     OW90097  11.230  12.764  11.784 -0.1204  0.0036 -0.1704
59928SOL    HW190098  11.241  12.718  11.700 -0.3504 -2.3827  0.9998
59928SOL    HW290099  11.293  12.721  11.842  0.2477  1.8211  0.8184
59929SOL     OW90100  12.162   6.044  11.634 -0.0497 -0.2152  0.3813
59929SOL    HW190101  12.095   6.112  11.630  1.1068  1.0877  1.6845
59929SOL    HW290102  12.206   6.048  11.549 -1.4479 -0.9351 -0.4029
59930SOL     OW90103   8.954   4.190   1.488 -0.7700 -0.1095  0.2782
59930SOL    HW190104   8.952   4.247   1.565 -1.5055 -0.7783  0.7730
59930SOL    HW290105   8.906   4.239   1.421  0.1707  0.6249  0.1233
59931SOL     OW90106   3.518   6.445   1.369 -0.3208 -0.4319  0.0448
59931SOL    HW190107   3.596   6.476   1.323  1.0064  0.9660  2.9651
59931SOL    HW290108   3.460   6.414   1.300  3.3168 -2.9227 -2.2458
59932SOL     OW90109   6.819   9.225   5.417 -0.1848  0.1133 -0.4122
59932SOL    HW190110   6.795   9.146   5.465  0.4954 -0.9389 -1.7142
59932SOL    HW290111   6.876   9.273   5.476  0.5495 -1.0900 -0.1110
59933SOL     OW90112   8.216   0.875   8.651  0.4330 -0.2932  0.0609
59933SOL    HW190113   8.300   0.875   8.697 -0.0252 -0.8859  0.9159
59933SOL    HW290114   8.156   0.920   8.710 -0.0260 -0.5225 -0.2251
59934SOL     OW90115   5.378  10.806   9.118  0.5821 -0.2528  0.5856
59934SOL    HW190116   5.400  10.758   9.198 -0.8598 -0.3599  0.9499
59934SOL    HW290117   5.352  10.738   9.056  1.5665 -0.1599  0.0484
59935SOL     OW90118   0.820   9.623   7.943  0.4533  0.4344  0.2986
59935SOL    HW190119   0.747   9.659   7.893 -0.0217 -0.1086  0.5859
59935SOL    HW290120   0.898   9.650   7.895  0.0406  0.6132 -0.2824
59936SOL     OW90121   8.163   1.200   3.748 -0.3379 -0.1060 -0.7509
59936SOL    HW190122   8.224   1.268   3.720 -2.1479  1.4009 -1.1694
59936SOL    HW290123   8.142   1.152   3.667  0.3104 -0.6810 -0.5923
59937SOL     OW90124   2.835   8.216   6.277 -0.4373 -0.1698  0.4729
59937SOL    HW190125   2.848   8.141   6.335 -2.8474 -0.2472  1.0153
59937SOL    HW290126   2.786   8.279   6.330  0.0383  1.0940 -0.5228
59938SOL     OW90127   2.223   7.291   6.089  0.2869 -0.1053  0.1890
59938SOL    HW190128   2.171   7.296   6.169  0.4254 -2.4153  0.4850
59938SOL    HW290129   2.229   7.198   6.069  1.4577  0.3097 -1.7447
59939SOL     OW90130   1.261   6.604  10.190  0.4407  0.2689 -0.0182
59939SOL    HW190131   1.254   6.575  10.099 -0.6804  2.5546 -0.7423
59939SOL    HW290132   1.350   6.581  10.216  0.8408 -0.2930 -1.7406
59940SOL     OW90133   8.079   9.923   0.600  0.1742  0.5419  0.0855
59940SOL    HW190134   8.043   9.957   0.682 -0.3532 -2.6229  1.3085
59940SOL    HW290135   8.003   9.889   0.552  0.7482  0.1229 -0.5565
59941SOL     OW90136   8.995   5.616   5.845  0.0600 -0.0863 -0.1096
59941SOL    HW190137   9.013   5.584   5.757  0.3246 -0.9076  0.2325
59941SOL    HW290138   8.948   5.699   5.832 -2.5079 -1.5868 -1.0401
59942SOL     OW90139   1.812   5.467   1.811  0.1045 -0.3861  0.0478
59942SOL    HW190140   1.882   5.519   1.772  1.2725 -1.3921  0.7121
59942SOL    HW290141   1.858   5.400   1.861 -1.3331 -1.8966 -0.5651
59943SOL     OW90142  11.263   0.417  12.126  0.0172 -0.3356  0.0053
59943SOL    HW190143  11.265   0.325  12.151 -1.4118  0.1298  2.0713
59943SOL    HW290144  11.355   0.441  12.113  0.3399 -2.5345 -2.8303
59944SOL     OW90145  10.353   2.103   6.576  0.1256 -0.2051  0.0409
59944SOL    HW190146  10.299   2.054   6.638 -0.3297 -0.8503 -0.8566
59944SOL    HW290147  10.341   2.059   6.492  0.8452  0.5724 -0.4920
59945SOL     OW90148   7.089   1.753   6.333  0.0402  0.2695  0.4419
59945SOL    HW190149   7.085   1.664   6.368 -1.5586 -0.2844 -0.9988
59945SOL    HW290150   7.157   1.751   6.267  1.1760  0.5978  1.5675
59946SOL     OW90151  12.010   3.721   5.802  0.2189 -0.4822  0.1327
59946SOL    HW190152  12.090   3.764   5.774 -0.5991  1.6425  0.8898
59946SOL    HW290153  11.962   3.704   5.720 -0.2163  1.7105 -0.1264
59947SOL     OW90154   7.254   3.528   3.363  0.5089 -0.4220  0.0046
59947SOL    HW190155   7.186   3.555   3.301  0.5303  1.3394  0.6778
59947SOL    HW290156   7.221   3.446   3.400 -0.0469 -0.9097 -1.4625
59948SOL     OW90157   4.770   6.125   6.362  0.2621  0.0331 -0.1044
59948SOL    HW190158   4.838   6.059   6.346  0.9520  0.6659  0.1470
59948SOL    HW290159   4.711   6.117   6.287  1.7786  0.9015 -1.4587
59949SOL     OW90160   9.430  11.506   8.629 -0.7469  0.2719 -0.3158
59949SOL    HW190161   9.456  11.461   8.709 -1.0095  1.4441  0.4562
59949SOL    HW290162   9.508  11.505   8.574 -0.9365 -1.6833 -0.6098
59950SOL     OW90163  11.206  10.366   8.599  0.2968  0.1042 -0.4292
59950SOL    HW190164  11.122  10.331   8.627 -0.6440 -0.4929 -3.6187
59950SOL    HW290165  11.261  10.289   8.585  0.5369  0.3400 -0.7999
59951SOL     OW90166   3.213   8.110   0.601 -0.0439  0.5123  0.4740
59951SOL    HW190167   3.191   8.197   0.633  0.0073  0.3533  0.9525
59951SOL    HW290168   3.290   8.123   0.547  0.2101  0.7127  0.8759
59952SOL     OW90169   1.229   3.623   6.121 -0.0311  0.5326  0.4741
59952SOL    HW190170   1.198   3.541   6.084  0.4662  0.8938 -0.7929
59952SOL    HW290171   1.297   3.598   6.183  0.6341  0.0106 -0.4463
59953SOL     OW90172  10.724   6.414   0.688 -0.0848 -0.4020  1.0693
59953SOL    HW190173  10.765   6.328   0.691 -0.3966 -0.5786  4.1773
59953SOL    HW290174  10.787   6.470   0.643  1.1516 -1.7887  1.0103
59954SOL     OW90175   7.212   9.545   5.616 -0.2700 -0.2911 -0.1193
59954SOL    HW190176   7.222   9.474   5.553  1.1811 -0.1361 -0.1066
59954SOL    HW290177   7.245   9.509   5.698  0.7093  0.4407 -0.1660
59955SOL     OW90178   3.844   6.878   4.197 -0.5414 -0.2384  0.1368
59955SOL    HW190179   3.892   6.931   4.260 -1.2174 -0.4924  0.8884
59955SOL    HW290180   3.752   6.893   4.218 -0.7550 -2.4916  1.0768
59956SOL     OW90181   0.161   3.636   1.935 -0.1582 -0.0643 -0.1868
59956SOL    HW190182   0.162   3.720   1.981 -1.6185 -0.6007  0.8961
59956SOL    HW290183   0.142   3.572   2.002  0.1458 -1.1836 -1.1379
59957SOL     OW90184   2.445   7.132   1.858  0.1191 -0.3231  0.6192
59957SOL    HW190185   2.382   7.191   1.899  0.1750 -1.2904  2.2065
59957SOL    HW290186   2.529   7.177   1.864 -0.3956  1.2174 -2.0004
59958SOL     OW90187   2.727   8.702  11.679 -0.3526  0.0305 -0.6593
59958SOL    HW190188   2.737   8.701  11.774  0.3224  0.4863 -0.7189
59958SOL    HW290189   2.693   8.615  11.657  1.0289 -0.6695 -0.1527
59959SOL     OW90190   1.296   9.839   0.684 -0.0350  0.1175 -0.8491
59959SOL    HW190191   1.210   9.875   0.659 -0.8076 -1.2486 -0.2814
59959SOL    HW290192   1.327   9.898   0.752 -0.5621  0.6025 -1.0204
59960SOL     OW90193   7.307   2.745   5.144 -0.1485  0.4132 -0.5003
59960SOL    HW190194   7.301   2.651   5.127  1.0444  0.2464 -0.0618
59960SOL    HW290195   7.316   2.784   5.057  1.2540 -0.0556 -0.5959
59961SOL     OW90196   7.299   7.075   5.238 -0.5984  0.0640  0.7875
59961SOL    HW190197   7.324   6.998   5.289 -0.0655  1.6713  3.1287
59961SOL    HW290198   7.356   7.072   5.161  0.3759 -1.1482  1.5157
59962SOL     OW90199  10.431   7.274   9.872 -0.2419  0.4042 -0.3722
59962SOL    HW190200  10.446   7.230   9.956 -1.1333  0.0280 -0.4042
59962SOL    HW290201  10.519   7.298   9.842  0.0935  0.5279  0.6554
59963SOL     OW90202   4.587  10.184   8.409  0.0712  0.2507  0.1206
59963SOL    HW190203   4.590  10.268   8.455  0.8778  0.7626 -0.8344
59963SOL    HW290204   4.574  10.208   8.317  2.8974 -0.5018 -0.5510
59964SOL     OW90205   0.674  10.039  12.964 -0.1565 -0.2609  0.6697
59964SOL    HW190206   0.614  10.109  12.939 -1.4649 -1.0726  1.4039
59964SOL    HW290207   0.681   9.985  12.885 -0.3216 -0.1145  0.5530
59965SOL     OW90208   9.920   3.333   0.517 -0.1232 -0.5213  0.6890
59965SOL    HW190209   9.865   3.255   0.503 -2.3792  0.6026  2.5712
59965SOL    HW290210   9.909   3.384   0.438 -0.2530 -1.1952  0.2584
59966SOL     OW90211   4.735   0.322   5.441 -0.1719 -0.2765 -0.1600
59966SOL    HW190212   4.729   0.270   5.522 -0.6885  0.5006  0.3125
59966SOL    HW290213   4.644   0.334   5.415 -0.0269 -0.0771 -0.5702
59967SOL     OW90214   6.044   0.231  10.136 -0.0863 -0.8756 -0.1641
59967SOL    HW190215   6.083   0.145  10.124 -1.5234 -1.3997 -1.4934
59967SOL    HW290216   5.949   0.214  10.139 -0.4188  0.6710 -0.7319
59968SOL     OW90217   4.343   2.286   5.140  0.5189  0.3471 -0.0254
59968SOL    HW190218   4.367   2.202   5.101  2.1196  0.5077  0.5459
59968SOL    HW290219   4.420   2.313   5.190 -0.5041  1.4486  1.0383
59969SOL     OW90220   7.265   1.811   1.791 -0.0824  0.0986  0.0973
59969SOL    HW190221   7.228   1.894   1.759 -0.5644  0.4706  1.5429
59969SOL    HW290222   7.347   1.837   1.835 -1.7543  0.3702  3.4056
59970SOL     OW90223  10.324  12.581   7.665 -0.2575 -0.2200 -1.0344
59970SOL    HW190224  10.261  12.573   7.737  0.5324  1.1463 -0.1499
59970SOL    HW290225  10.286  12.530   7.594 -1.7113 -0.5085 -0.0835
59971SOL     OW90226   8.982   8.700   5.332 -0.3136 -0.0991  0.2063
59971SOL    HW190227   9.008   8.616   5.369 -1.2634  0.0186  1.1652
59971SOL    HW290228   8.932   8.743   5.401 -0.7837  0.7909 -0.6591
59972SOL     OW90229   4.313   1.772   8.104  0.3740  0.3807 -0.0696
59972SOL    HW190230   4.328   1.681   8.129 -3.4418 -0.4337 -0.0609
59972SOL    HW290231   4.277   1.766   8.015  0.0159  1.8642 -0.0442
59973SOL     OW90232   8.334   3.882   5.999 -0.1556  0.3190 -0.1850
59973SOL    HW190233   8.273   3.879   5.925 -0.8018  2.1054  0.2224
59973SOL    HW290234   8.400   3.946   5.973  1.7057 -1.6771 -0.6748
59974SOL     OW90235  10.666   4.395   1.943 -0.6266 -0.6723  0.8312
59974SOL    HW190236  10.751   4.351   1.940 -1.2229 -1.8367 -1.3081
59974SOL    HW290237  10.684   4.481   1.980  1.7107 -0.4311 -0.7210
59975SOL     OW90238  10.877   8.048   3.406  0.3817 -0.1586  0.0582
59975SOL    HW190239  10.816   7.987   3.366  1.0925 -2.1018  1.7531
59975SOL    HW290240  10.932   7.994   3.463  2.1367  1.8399  0.4172
59976SOL     OW90241   6.651   0.501   0.757 -0.4519 -0.1106 -0.4168
59976SOL    HW190242   6.558   0.481   0.745 -0.0355 -1.0127 -2.6451
59976SOL    HW290243   6.682   0.524   0.670  1.6122 -0.6991  0.1004
59977SOL     OW90244   1.514  11.514   8.190 -0.2895 -0.7167 -0.4116
59977SOL    HW190245   1.537  11.507   8.097 -1.1943 -0.3500 -0.6646
59977SOL    HW290246   1.532  11.605   8.212 -0.2721 -0.7540 -0.2711
59978SOL     OW90247   0.881   1.016   0.698  0.0035  0.8101 -0.2771
59978SOL    HW190248   0.933   1.037   0.620 -1.1462 -0.7652 -1.5379
59978SOL    HW290249   0.935   0.954   0.747 -0.6602 -0.9913 -1.6907
59979SOL     OW90250   3.899   7.684   8.882  0.0866  0.3477  0.1037
59979SOL    HW190251   3.827   7.707   8.941  0.3255 -0.3867  0.7031
59979SOL    HW290252   3.963   7.641   8.939  0.0460 -0.9669 -0.8041
59980SOL     OW90253   5.834  12.885   7.283 -0.3432  0.0384 -0.0535
59980SOL    HW190254   5.891  12.952   7.322 -0.1870 -0.7255  1.0578
59980SOL    HW290255   5.885  12.850   7.210 -0.1854  0.7076 -0.2771
59981SOL     OW90256   8.824  10.056  12.649 -0.0170 -0.1100 -0.0381
59981SOL    HW190257   8.734  10.059  12.615 -0.4009 -1.5964  0.7394
59981SOL    HW290258   8.821   9.988  12.717  2.5843 -3.3784 -2.8018
59982SOL     OW90259   4.496   4.215   2.377 -0.3844  0.3567 -0.4350
59982SOL    HW190260   4.426   4.161   2.341  1.5962 -1.5134 -1.7225
59982SOL    HW290261   4.485   4.300   2.335 -3.0468  0.8198  0.9831
59983SOL     OW90262   7.899  12.949  12.756 -0.0157 -0.0047 -0.1487
59983SOL    HW190263   7.836  12.913  12.819 -0.6242 -0.6920 -1.1223
59983SOL    HW290264   7.888  13.043  12.762  0.6384  0.0085  1.4750
59984SOL     OW90265   0.563  10.875   7.889 -0.0778 -0.3787 -0.0201
59984SOL    HW190266   0.595  10.791   7.922 -0.0220 -0.2515  0.2543
59984SOL    HW290267   0.491  10.852   7.830  1.2732 -0.7481 -1.5863
59985SOL     OW90268   3.981   3.999   6.029 -0.3886 -0.0624  0.2918
59985SOL    HW190269   3.986   3.970   6.120  2.3224  2.7112  1.1933
59985SOL    HW290270   3.916   4.068   6.030  1.2929  1.5902  0.7446
59986SOL     OW90271   6.354   1.650   3.229 -0.4414 -0.1979  0.2630
59986SOL    HW190272   6.331   1.686   3.143  0.1493  0.2034  0.2675
59986SOL    HW290273   6.365   1.557   3.214 -0.3354 -0.1268 -0.0955
59987SOL     OW90274   0.429   5.996   4.904 -0.0199  0.0677  0.0606
59987SOL    HW190275   0.364   6.046   4.855 -0.1867  0.6025  0.8191
59987SOL    HW290276   0.381   5.918   4.933 -0.2336  0.3004  0.3377
59988SOL     OW90277   5.504   6.221   6.629  0.8452  0.6270  0.0252
59988SOL    HW190278   5.559   6.143   6.620  1.0547  0.7563  0.1761
59988SOL    HW290279   5.531   6.260   6.712  1.1668  1.1983 -0.3437
59989SOL     OW90280   6.038   6.114   8.567 -0.6544  0.1847  0.5727
59989SOL    HW190281   6.011   6.059   8.494 -1.2512 -1.1892  1.7708
59989SOL    HW290282   6.100   6.061   8.617 -1.6432  0.3424  2.0500
59990SOL     OW90283   0.112   0.475  12.764 -0.6628  0.3556 -0.5207
59990SOL    HW190284   0.136   0.485  12.856 -2.2319  0.6050 -0.1034
59990SOL    HW290285   0.130   0.383  12.744  0.7818  0.5746 -0.3188
59991SOL     OW90286   3.803  10.451   6.725 -0.4021 -0.0483  0.2516
59991SOL    HW190287   3.766  10.532   6.759 -1.7325 -1.4438  2.4121
59991SOL    HW290288   3.736  10.418   6.664 -0.8775 -0.5349  1.0133
59992SOL     OW90289   1.744   7.404   7.217 -0.8782 -0.3142 -0.1483
59992SOL    HW190290   1.713   7.490   7.189  0.3049  0.7398  1.6104
59992SOL    HW290291   1.793   7.371   7.142 -1.3858  0.4963 -0.8620
59993SOL     OW90292   7.254   9.144   4.080  0.4571 -0.1905 -0.2444
59993SOL    HW190293   7.338   9.148   4.125 -0.4719  1.5829  1.4984
59993SOL    HW290294   7.224   9.054   4.093  1.5216 -0.4934  0.2188
59994SOL     OW90295   1.606   0.416  11.320 -0.2591 -0.0554  0.6703
59994SOL    HW190296   1.564   0.366  11.391 -1.1398 -2.2567 -1.2640
59994SOL    HW290297   1.677   0.360  11.290 -1.5036 -0.4254 -1.8285
59995SOL     OW90298   8.937   8.413   1.222  0.7797  0.0131 -0.0036
59995SOL    HW190299   8.931   8.429   1.316  0.4492 -2.5039  0.4764
59995SOL    HW290300   9.001   8.477   1.191  1.7098  0.2167  2.1262
59996SOL     OW90301   7.517   8.677   0.203  0.2931  0.2924 -0.0575
59996SOL    HW190302   7.458   8.743   0.240 -1.1747 -1.5987  1.1753
59996SOL    HW290303   7.500   8.680   0.109  0.4405  1.8233 -0.0507
59997SOL     OW90304   0.499  10.177   4.816 -0.9782  0.3870 -0.5320
59997SOL    HW190305   0.473  10.143   4.902 -0.0381  0.3299 -0.2568
59997SOL    HW290306   0.501  10.100   4.760  2.8447 -0.4575  0.4959
59998SOL     OW90307   5.547  10.170   3.369  0.1554  0.2241  0.0126
59998SOL    HW190308   5.531  10.198   3.459  0.8217 -2.0050  0.8978
59998SOL    HW290309   5.466  10.126   3.343  0.1389  0.4397 -0.3032
59999SOL     OW90310  10.700   4.678   8.473 -0.5919  0.1170 -0.1722
59999SOL    HW190311  10.634   4.734   8.432 -0.6543  0.7542  0.7789
59999SOL    HW290312  10.651   4.622   8.533 -0.2465  0.9589  0.9411
60000SOL     OW90313   9.000   2.378   2.651 -0.6527 -0.4033 -0.0242
60000SOL    HW190314   8.954   2.459   2.673 -0.3342 -0.1055 -0.4366
60000SOL    HW290315   8.995   2.325   2.730 -2.7106 -0.8483 -0.4100
60001SOL     OW90316   1.560  11.574   0.233 -0.3367  0.1609 -0.1217
60001SOL    HW190317   1.585  11.656   0.277 -2.6954  1.1407 -0.4765
60001SOL    HW290318   1.529  11.602   0.147 -0.3741 -1.2144 -0.5708
60002SOL     OW90319   5.017   4.751   5.658 -0.2018 -0.4478  0.6238
60002SOL    HW190320   5.033   4.682   5.723  2.8383 -0.2353  0.2294
60002SOL    HW290321   5.021   4.832   5.708  1.4054 -0.3244  0.3297
60003SOL     OW90322  10.807   3.621   9.662  0.0041 -0.3982 -0.6517
60003SOL    HW190323  10.773   3.705   9.632  1.5101  0.5761  0.2305
60003SOL    HW290324  10.762   3.605   9.745 -1.0259 -0.9874 -1.3071
60004SOL     OW90325   8.986   9.523  10.916  0.1605 -0.3752  0.0117
60004SOL    HW190326   9.056   9.497  10.856  1.9302  1.4469  1.1343
60004SOL    HW290327   8.964   9.612  10.889 -2.0591 -1.0494 -0.5512
60005SOL     OW90328  10.987  12.565   2.363  0.0463 -0.1727 -0.9203
60005SOL    HW190329  10.901  12.606   2.355  0.3668  0.5742 -0.6949
60005SOL    HW290330  11.047  12.639   2.375  0.3203 -0.7792  2.4062
60006SOL     OW90331   1.338  11.962  11.648  0.7742  0.4741 -0.2862
60006SOL    HW190332   1.308  11.928  11.564  1.0746  0.9544 -0.5940
60006SOL    HW290333   1.259  11.966  11.702  0.8402 -1.3406 -0.0045
60007SOL     OW90334  10.533  11.086  11.818  0.1886  0.4887  0.8019
60007SOL    HW190335  10.627  11.067  11.828  0.4045  0.3607 -1.1595
60007SOL    HW290336  10.528  11.142  11.741 -1.3963  0.1483  0.6371
60008SOL     OW90337   7.886   1.120   7.202  0.2858 -0.5433  0.0584
60008SOL    HW190338   7.966   1.172   7.211  0.3974 -0.9113  1.3145
60008SOL    HW290339   7.900   1.043   7.256 -1.2839 -0.1372  1.1536
60009SOL     OW90340   1.926   9.083  11.935  0.0007 -0.1115 -0.4598
60009SOL    HW190341   1.978   9.023  11.989 -3.0378 -0.7123  2.0725
60009SOL    HW290342   1.880   9.026  11.874 -0.1799  0.0415 -0.4656
60010SOL     OW90343   8.101   7.029   2.017  0.1307  1.0356  0.0524
60010SOL    HW190344   8.006   7.043   2.026 -0.1041  0.0860 -0.7869
60010SOL    HW290345   8.117   7.039   1.924  0.2885 -1.9673 -0.3311
60011SOL     OW90346   4.472  12.402   1.073 -0.3754  0.2887 -0.0506
60011SOL    HW190347   4.499  12.423   0.984  1.2151  0.0084  0.3255
60011SOL    HW290348   4.407  12.332   1.063  1.0942 -1.0158 -0.9474
60012SOL     OW90349   2.997   4.920   8.457 -0.2846 -0.0609  0.0875
60012SOL    HW190350   2.921   4.970   8.487  0.1880 -0.1810  1.6268
60012SOL    HW290351   2.961   4.839   8.422 -0.9908  0.8508 -1.3769
60013SOL     OW90352   4.597   5.513   7.401  0.5081 -0.0979  0.0753
60013SOL    HW190353   4.551   5.596   7.401  0.9701  0.1585 -0.0583
60013SOL    HW290354   4.581   5.476   7.314 -1.4012 -1.1094  0.7970
60014SOL     OW90355   3.699   6.843   6.382  0.0559 -0.4236  0.2232
60014SOL    HW190356   3.634   6.870   6.317 -0.9057 -1.5618  0.6624
60014SOL    HW290357   3.740   6.766   6.344 -0.5829 -1.1544  0.9755
60015SOL     OW90358   6.781   4.352   6.003  0.0690  0.0416 -0.0727
60015SOL    HW190359   6.849   4.309   6.054 -0.9678  1.0920  2.3201
60015SOL    HW290360   6.710   4.368   6.065 -1.1596  1.6737 -1.7736
60016SOL     OW90361   5.845   2.636   7.731 -0.1626 -0.3242  0.0124
60016SOL    HW190362   5.924   2.608   7.777 -1.5523 -2.3756  1.2563
60016SOL    HW290363   5.878   2.668   7.646  1.8571 -3.5671 -0.6136
60017SOL     OW90364   3.547  11.828   2.563 -0.0336  0.1575 -0.0393
60017SOL    HW190365   3.520  11.908   2.607 -0.1894  0.1963 -0.2055
60017SOL    HW290366   3.510  11.758   2.616  0.1299  0.1935  0.1247
60018SOL     OW90367   2.432   0.736  12.910 -0.5319 -0.7908 -0.3069
60018SOL    HW190368   2.427   0.830  12.891 -0.6121 -0.6271  0.4704
60018SOL    HW290369   2.460   0.696  12.828  2.9096  0.2795  0.1726
60019SOL     OW90370   3.651   4.122   5.722  0.1815 -0.2615 -0.4100
60019SOL    HW190371   3.649   4.209   5.761 -0.6138 -0.2149 -0.5451
60019SOL    HW290372   3.578   4.121   5.661 -0.8028 -1.5417  0.7246
60020SOL     OW90373   4.975  11.423   2.623  0.1630  0.1236  0.0174
60020SOL    HW190374   4.956  11.405   2.531  0.8838  0.1918 -0.1576
60020SOL    HW290375   4.892  11.412   2.668 -0.3108  0.5816 -0.7194
60021SOL     OW90376   6.812   7.619   0.142  0.3445 -0.3051  0.1206
60021SOL    HW190377   6.802   7.704   0.185  0.2654  0.2658 -0.9845
60021SOL    HW290378   6.788   7.555   0.209 -0.4106  0.5776  0.7193
60022SOL     OW90379  10.376  10.988   0.559 -0.0050 -0.6095  0.0638
60022SOL    HW190380  10.391  11.079   0.531 -2.5550 -0.2089 -0.2606
60022SOL    HW290381  10.430  10.978   0.637  0.5045  1.1345 -0.0200
60023SOL     OW90382   1.967   5.329   2.004 -0.0334  0.5331 -0.3246
60023SOL    HW190383   1.937   5.403   2.056 -0.7203  0.2733 -0.3311
60023SOL    HW290384   2.021   5.277   2.064  1.2355  1.5049 -0.5814
60024SOL     OW90385   4.683   5.155   4.507  0.3285  0.5166 -0.2496
60024SOL    HW190386   4.696   5.065   4.535  2.1192  0.0284 -2.3152
60024SOL    HW290387   4.596   5.156   4.468 -0.5821  0.2716  1.6660
60025SOL     OW90388  11.198  11.750  11.730  0.1840 -0.0680  0.1855
60025SOL    HW190389  11.208  11.791  11.816  0.4540  1.1719 -0.4211
60025SOL    HW290390  11.110  11.774  11.702  0.5463  0.5755 -0.4144
60026SOL     OW90391   9.202   7.653   2.653  0.6029  0.0554 -0.2188
60026SOL    HW190392   9.283   7.642   2.604 -0.3546 -0.4127 -1.7736
60026SOL    HW290393   9.230   7.669   2.743  2.4329  1.3135 -0.9620
60027SOL     OW90394   7.563  10.055   2.248  0.0512 -0.2947  0.0346
60027SOL    HW190395   7.615  10.134   2.261  0.4504 -0.9558  3.3870
60027SOL    HW290396   7.625   9.990   2.214  0.3344  0.1044 -0.2226
60028SOL     OW90397   4.784   5.305   0.797 -0.1104 -0.4541 -0.5727
60028SOL    HW190398   4.701   5.350   0.814 -0.4976 -0.5689 -2.0013
60028SOL    HW290399   4.825   5.358   0.729  0.4805 -1.0107 -0.6524
60029SOL     OW90400   5.727   4.726   5.905 -0.1628 -0.2018 -0.1654
60029SOL    HW190401   5.761   4.730   5.816 -0.6936 -1.3721 -0.4364
60029SOL    HW290402   5.661   4.657   5.902  1.1455 -1.6107  1.5723
60030SOL     OW90403   5.902   1.460   0.809 -1.0285  0.1430  0.6198
60030SOL    HW190404   5.922   1.519   0.882 -1.0351  2.4609 -1.1242
60030SOL    HW290405   5.881   1.377   0.851  1.4432  0.6122  3.1297
60031SOL     OW90406   8.505   7.226   2.146 -0.1692 -0.0121  0.2763
60031SOL    HW190407   8.411   7.233   2.164 -0.2662  1.4223 -0.6136
60031SOL    HW290408   8.526   7.134   2.162 -1.5300 -0.1677  1.3576
60032SOL     OW90409  12.013  10.180   5.922  0.1828  0.1356  0.2589
60032SOL    HW190410  12.035  10.104   5.975  0.5132  0.1183  0.1007
60032SOL    HW290411  11.996  10.250   5.985  2.2491  0.5839  0.3937
60033SOL     OW90412   9.792   8.918   4.873 -0.1024 -0.5951 -0.2278
60033SOL    HW190413   9.882   8.888   4.882  0.5802  1.1235 -0.9499
60033SOL    HW290414   9.755   8.909   4.961  1.6619  1.2634  0.8041
60034SOL     OW90415   6.924   8.858   9.794 -0.2109  0.7095  0.2295
60034SOL    HW190416   6.849   8.822   9.747 -1.1219  1.0612  1.3594
60034SOL    HW290417   6.982   8.892   9.726 -1.7799  1.7942 -0.6248
60035SOL     OW90418   1.778   9.685   0.701 -0.3723  0.6799  0.3746
60035SOL    HW190419   1.716   9.724   0.763 -1.0669  1.5527 -0.8299
60035SOL    HW290420   1.804   9.758   0.644 -1.0053 -0.4025 -1.3796
60036SOL     OW90421   7.193   7.446   2.477 -0.2198  0.3953  0.0864
60036SOL    HW190422   7.117   7.470   2.530  0.1020  2.9700 -0.4843
60036SOL    HW290423   7.164   7.458   2.387  0.6319  0.7450 -0.1544
60037SOL     OW90424   9.006   0.663   1.268 -0.3780 -0.1579 -0.3820
60037SOL    HW190425   8.933   0.616   1.308 -1.0219 -0.2550 -1.6119
60037SOL    HW290426   9.053   0.597   1.218  0.9794 -0.2327  0.9356
60038SOL     OW90427   8.582   3.717   7.704  0.0433  0.3524  0.4917
60038SOL    HW190428   8.643   3.787   7.727 -0.3827  0.7563  0.3799
60038SOL    HW290429   8.629   3.666   7.638 -0.0769  1.1800 -0.2533
60039SOL     OW90430   0.771   6.158   6.815  0.1116 -0.0012  0.0903
60039SOL    HW190431   0.808   6.225   6.872 -0.8591  0.2799  0.4100
60039SOL    HW290432   0.771   6.078   6.869  0.4153 -0.0483  0.0231
60040SOL     OW90433   1.262   5.462   4.820 -0.2380  0.2052  0.1700
60040SOL    HW190434   1.261   5.370   4.793 -1.0332 -0.0134  0.8983
60040SOL    HW290435   1.345   5.496   4.788 -0.0010 -0.7349 -0.2281
60041SOL     OW90436   9.721   0.152   4.650  0.6519  0.4124  0.5578
60041SOL    HW190437   9.634   0.184   4.626  0.6457  0.2720  0.3894
60041SOL    HW290438   9.776   0.178   4.576  0.5462 -0.4168  0.1850
60042SOL     OW90439  11.388   5.122   7.392 -0.1939  0.2737 -0.4422
60042SOL    HW190440  11.471   5.164   7.369 -0.1144 -0.4902 -1.6045
60042SOL    HW290441  11.411   5.031   7.410 -0.8521 -0.1006 -1.3896
60043SOL     OW90442   1.585   2.916   9.920 -0.3917 -0.2083 -0.1758
60043SOL    HW190443   1.647   2.867   9.974 -1.2592 -1.6431 -0.4091
60043SOL    HW290444   1.585   3.004   9.957  0.7194 -0.5588  0.7179
60044SOL     OW90445   3.228   2.224   1.865 -0.3715  0.6040  0.2353
60044SOL    HW190446   3.143   2.214   1.823 -1.0520 -0.2108  1.7221
60044SOL    HW290447   3.246   2.318   1.861 -1.8694  0.9431  0.8515
60045SOL     OW90448   8.533   2.812   0.770  0.2657  0.4662  0.2740
60045SOL    HW190449   8.445   2.838   0.796  0.6367  0.4590  1.6066
60045SOL    HW290450   8.576   2.894   0.746 -0.7532  0.2700 -2.6921
60046SOL     OW90451   1.922   6.712   7.541  0.1083 -0.5241  0.5563
60046SOL    HW190452   1.837   6.678   7.567 -0.8657  0.2342 -1.4046
60046SOL    HW290453   1.907   6.804   7.522  0.6002 -0.9786 -2.6188
60047SOL     OW90454   9.263   1.944  12.055  0.0481 -0.1111 -0.4367
60047SOL    HW190455   9.270   2.025  12.105  2.1471  0.1644 -1.0916
60047SOL    HW290456   9.309   1.879  12.108  0.1091 -0.4075 -0.8490
60048SOL     OW90457   1.648   5.390   1.236  0.2485  0.0054  0.2971
60048SOL    HW190458   1.636   5.308   1.283 -1.6730 -1.2632 -2.1725
60048SOL    HW290459   1.734   5.382   1.195 -0.3148 -1.2484 -0.6933
60049SOL     OW90460   8.831  11.396  12.246 -0.0658  1.0833  0.7855
60049SOL    HW190461   8.824  11.470  12.307  0.7256  0.5672  1.5275
60049SOL    HW290462   8.925  11.377  12.243 -0.2756  0.0143  0.7175
60050SOL     OW90463   2.000   7.887   9.219 -0.1973  0.2489  0.4445
60050SOL    HW190464   2.032   7.798   9.237  0.3275  0.4614  0.5879
60050SOL    HW290465   1.906   7.883   9.236 -0.9115 -1.2194 -2.9924
60051SOL     OW90466   2.091   7.494   5.143  0.6433 -0.0507 -0.2856
60051SOL    HW190467   2.114   7.467   5.231 -1.3440  0.2257  0.3689
60051SOL    HW290468   2.051   7.417   5.103 -0.0668  0.3268 -0.3198
60052SOL     OW90469  11.178   7.798   2.529 -0.3862 -0.4529  0.2653
60052SOL    HW190470  11.130   7.858   2.585 -1.5193  0.0872 -1.2233
60052SOL    HW290471  11.138   7.808   2.443  2.1257 -0.3021 -0.9717
60053SOL     OW90472   1.179   6.618   2.186 -0.3848  0.0783  0.5222
60053SOL    HW190473   1.115   6.689   2.181 -0.2975  0.0800 -1.9989
60053SOL    HW290474   1.262   6.661   2.202 -0.4422  0.4994 -0.2774
60054SOL     OW90475  11.312   1.082   0.015 -0.4053  0.5886  0.2584
60054SOL    HW190476  11.403   1.083  -0.015 -0.4437 -0.6471  0.0549
60054SOL    HW290477  11.260   1.100  -0.064 -0.3722  0.4963  0.2156
60055SOL     OW90478   6.892  11.913  11.749  0.0203  0.0256 -0.0244
60055SOL    HW190479   6.866  11.852  11.818  0.2504 -0.0462 -0.0001
60055SOL    HW290480   6.810  11.953  11.720 -0.1125 -0.1681  0.0805
60056SOL     OW90481   3.821  12.084   3.162 -0.8377  0.1882 -0.1036
60056SOL    HW190482   3.879  12.159   3.153  0.5441 -0.7828  0.3711
60056SOL    HW290483   3.777  12.077   3.078  2.6659 -1.3465 -2.0285
60057SOL     OW90484  11.748   5.832   9.157 -0.1150  0.0075 -0.0491
60057SOL    HW190485  11.730   5.814   9.065 -0.4159  1.1133 -0.2198
60057SOL    HW290486  11.663   5.824   9.201 -0.4128  1.6643 -0.2561
60058SOL     OW90487   7.318   9.413   4.735 -0.4103  0.2045 -0.1763
60058SOL    HW190488   7.388   9.444   4.678 -0.2433  0.0622 -0.0473
60058SOL    HW290489   7.350   9.331   4.772 -0.7118  0.0513 -0.2474
60059SOL     OW90490   6.154   0.244   3.649  0.4374 -0.0438  0.1606
60059SOL    HW190491   6.149   0.171   3.587  0.0285 -0.8081  1.0725
60059SOL    HW290492   6.248   0.259   3.660  0.5134  0.6111 -1.2090
60060SOL     OW90493   1.952   0.650   4.198  0.4457 -0.2261 -0.0721
60060SOL    HW190494   1.929   0.614   4.283  0.4426  1.2111  0.5677
60060SOL    HW290495   2.045   0.670   4.204  0.3435  0.3272 -0.2151
60061SOL     OW90496  10.127   6.476   3.026  0.7735 -0.2457 -0.1376
60061SOL    HW190497  10.054   6.536   3.015  0.6895 -0.4626 -0.8373
60061SOL    HW290498  10.179   6.513   3.097 -2.1703 -2.2121  3.4072
60062SOL     OW90499   2.138  11.135   2.089 -0.1792  0.2627 -0.0693
60062SOL    HW190500   2.078  11.203   2.119 -0.6896  0.2391 -0.9883
60062SOL    HW290501   2.093  11.095   2.014 -0.6382 -2.1347  1.3481
60063SOL     OW90502   6.991   3.833  11.043 -0.4506 -0.0883  0.0170
60063SOL    HW190503   6.918   3.781  11.077  0.5146 -0.2905  1.9068
60063SOL    HW290504   7.060   3.769  11.028 -0.3474  0.2282 -0.8539
60064SOL     OW90505   1.229   1.817   7.190  0.2002  0.4084 -0.0343
60064SOL    HW190506   1.147   1.805   7.142  1.3034 -1.0218 -1.7067
60064SOL    HW290507   1.227   1.750   7.259  0.3972 -0.3579 -0.7533
60065SOL     OW90508  10.921   4.218   1.983  0.4584  0.3959 -0.0506
60065SOL    HW190509  10.942   4.146   2.043 -0.6480 -0.3625 -0.5486
60065SOL    HW290510  10.909   4.294   2.040  1.5615  0.1872  0.4886
60066SOL     OW90511   7.960   9.499   3.357 -0.2244  0.1555  0.0178
60066SOL    HW190512   7.923   9.556   3.424 -0.5007  1.3939 -1.1616
60066SOL    HW290513   8.034   9.547   3.322 -0.7401  0.0242 -1.3117
60067SOL     OW90514   0.285  12.828   1.978 -0.1893 -0.2420 -0.5220
60067SOL    HW190515   0.347  12.877   2.032 -0.3195  1.1399 -1.5912
60067SOL    HW290516   0.320  12.739   1.976  0.7301  0.0824  0.4345
60068SOL     OW90517   2.283   3.504   4.066 -0.2750 -0.2141 -0.0509
60068SOL    HW190518   2.317   3.592   4.049  0.5866 -0.3945  0.6538
60068SOL    HW290519   2.201   3.519   4.113  0.3298  0.2220  0.8957
60069SOL     OW90520   7.822  11.109  10.984  0.0947  0.1633 -0.6678
60069SOL    HW190521   7.738  11.106  10.938 -1.1256 -0.7528  1.4325
60069SOL    HW290522   7.885  11.136  10.918 -1.5453 -0.8617 -2.7815
60070SOL     OW90523   0.699   0.147   7.347 -0.1155  0.0093  0.3065
60070SOL    HW190524   0.691   0.086   7.420 -0.7465 -0.1306  0.1207
60070SOL    HW290525   0.793   0.148   7.327  0.1115  0.3486  1.3672
60071SOL     OW90526   5.950  11.082   1.079  0.5963  0.3602 -0.2744
60071SOL    HW190527   5.971  11.072   1.172  0.7700  0.6612 -0.2784
60071SOL    HW290528   5.855  11.092   1.077  0.3992 -1.2547 -0.2776
60072SOL     OW90529   1.351  10.283  10.966  0.3295  0.2389  0.2537
60072SOL    HW190530   1.395  10.366  10.950  0.9169 -0.0788  0.1840
60072SOL    HW290531   1.395  10.248  11.044  0.2019 -0.0870  0.1790
60073SOL     OW90532   7.510   0.842   5.714  0.6272  0.2899 -0.1386
60073SOL    HW190533   7.421   0.823   5.745  0.6581 -1.0643 -0.8088
60073SOL    HW290534   7.546   0.757   5.691  1.1486  1.0657 -2.4334
60074SOL     OW90535   0.123  11.606   0.920  0.1615 -0.4403  0.4923
60074SOL    HW190536   0.148  11.687   0.877 -1.7574 -0.2443 -0.3215
60074SOL    HW290537   0.152  11.537   0.860 -2.2281 -0.1783 -1.0555
60075SOL     OW90538   1.264   6.495   1.527  0.0144 -0.4521  0.3459
60075SOL    HW190539   1.350   6.532   1.548  0.5407 -2.1104  1.3147
60075SOL    HW290540   1.273   6.465   1.436  0.8165 -1.4839  0.7441
60076SOL     OW90541   1.695   6.254   0.132  0.0178 -0.2947  0.4868
60076SOL    HW190542   1.651   6.302   0.062 -1.2165 -0.5373  1.0562
60076SOL    HW290543   1.776   6.303   0.147  0.1108 -0.0105 -0.8134
60077SOL     OW90544  11.323  11.292   8.042 -0.6882 -0.6871  0.2148
60077SOL    HW190545  11.361  11.326   8.123 -0.8502  0.5612 -0.2202
60077SOL    HW290546  11.251  11.351   8.022  1.4927  1.2800 -2.7214
60078SOL     OW90547   8.129   0.511   6.409  0.7270  0.1255  0.0241
60078SOL    HW190548   8.050   0.552   6.374 -0.2528 -1.6012  0.0936
60078SOL    HW290549   8.201   0.564   6.375 -0.4168  1.1710 -0.8420
60079SOL     OW90550   2.342   7.228   3.511  0.2946  0.6097 -0.2119
60079SOL    HW190551   2.298   7.298   3.463  0.4344  0.6513 -0.2813
60079SOL    HW290552   2.409   7.196   3.451  0.0922  0.2690 -0.2611
60080SOL     OW90553  11.225   3.514  10.830  0.0454 -0.4163 -0.2026
60080SOL    HW190554  11.184   3.544  10.749 -1.0780 -0.7702  0.2203
60080SOL    HW290555  11.279   3.439  10.803  0.4274  0.0454 -0.7600
60081SOL     OW90556   3.770   1.781   0.110  0.3334  0.4709 -0.1963
60081SOL    HW190557   3.800   1.719   0.176  0.2655  0.8985  0.2438
60081SOL    HW290558   3.704   1.833   0.156 -0.9418 -0.3098 -1.0718
60082SOL     OW90559   0.360   2.590   7.207  0.0373  0.0672  0.2851
60082SOL    HW190560   0.317   2.676   7.209 -0.2843 -0.0672 -0.3759
60082SOL    HW290561   0.411   2.591   7.125  0.5343 -0.1361  0.5881
60083SOL     OW90562   1.061   2.659   5.403  0.4080  0.5266 -0.3805
60083SOL    HW190563   1.066   2.571   5.439  2.7876  0.5365 -0.5181
60083SOL    HW290564   1.050   2.715   5.480 -1.2699  0.1430 -0.3057
60084SOL     OW90565   1.476   8.291   8.115  0.3777  0.1503 -0.4229
60084SOL    HW190566   1.547   8.323   8.059 -0.3527 -0.2929 -1.6265
60084SOL    HW290567   1.511   8.301   8.204  1.8420  0.2016 -0.9649
60085SOL     OW90568  10.950   2.399   4.836 -0.0972 -0.5004 -0.0585
60085SOL    HW190569  10.946   2.493   4.850 -0.5232 -0.4792 -0.2803
60085SOL    HW290570  10.953   2.389   4.741 -0.8011 -0.7219 -0.0662
60086SOL     OW90571   8.651   4.885   7.552  0.0828 -0.3413 -0.2969
60086SOL    HW190572   8.630   4.802   7.594  0.2706 -0.9095 -1.2976
60086SOL    HW290573   8.632   4.951   7.619  0.6445 -1.2284  0.7709
60087SOL     OW90574   9.907  10.660   5.059  0.2565 -0.6093  0.1207
60087SOL    HW190575   9.868  10.709   5.132  2.9143  0.7788  0.7539
60087SOL    HW290576   9.835  10.647   4.998 -0.9942  2.9291  0.5872
60088SOL     OW90577   6.137   5.723   6.127  0.1128  0.1469 -0.1306
60088SOL    HW190578   6.098   5.648   6.172 -1.6070  0.7525 -0.5057
60088SOL    HW290579   6.229   5.702   6.118  0.0727 -0.9490  1.7110
60089SOL     OW90580   2.224   6.115   9.166 -0.0326  0.2802  0.9462
60089SOL    HW190581   2.282   6.051   9.126 -0.9537 -1.3197  2.0601
60089SOL    HW290582   2.274   6.148   9.242 -0.4626 -0.9336  1.7787
60090SOL     OW90583   7.452   4.268   4.588 -0.2144  0.1106  0.0697
60090SOL    HW190584   7.409   4.213   4.523  0.4582  0.7129 -0.9163
60090SOL    HW290585   7.385   4.330   4.615 -0.8022 -0.7998  0.7471
60091SOL     OW90586   8.931   7.041   3.905  0.6525 -0.5372 -0.2595
60091SOL    HW190587   8.922   6.996   3.989 -0.0558  1.0563  0.5449
60091SOL    HW290588   8.933   7.134   3.927 -1.4794  0.0417 -2.1298
60092SOL     OW90589   3.142  11.377   7.067 -0.0103  0.6733  0.6572
60092SOL    HW190590   3.175  11.372   7.156 -0.2866  1.7300  0.8313
60092SOL    HW290591   3.068  11.438   7.072 -1.0083 -0.4259 -0.0108
60093SOL     OW90592   9.836   2.611   0.500  0.2095  0.5345 -0.0678
60093SOL    HW190593   9.752   2.632   0.541  0.1339  0.7635 -0.3368
60093SOL    HW290594   9.901   2.645   0.562  0.0938  0.9977 -0.1938
60094SOL     OW90595   2.972   1.131  10.214 -0.5983  0.4390 -0.2006
60094SOL    HW190596   2.947   1.129  10.307  0.4035 -2.8719  0.1322
60094SOL    HW290597   3.025   1.210  10.205 -0.7866  0.8806  2.0456
60095SOL     OW90598   2.193   2.014   0.954 -0.1339 -0.0919  0.0448
60095SOL    HW190599   2.099   2.033   0.966 -0.0516 -0.6795  1.9133
60095SOL    HW290600   2.236   2.098   0.968 -0.2395 -0.2741  1.6004
60096SOL     OW90601   5.469   0.663   2.340  0.0322 -0.4531 -0.1000
60096SOL    HW190602   5.432   0.640   2.255 -1.3583 -1.1515  0.6677
60096SOL    HW290603   5.439   0.752   2.356  0.7173 -0.1289 -0.5379
60097SOL     OW90604   7.838   1.910   8.744 -0.3484  0.3895  0.3729
60097SOL    HW190605   7.826   1.853   8.668  2.1547  1.8407 -1.2665
60097SOL    HW290606   7.848   1.850   8.818 -1.4208 -1.1285 -0.6555
60098SOL     OW90607   6.799   0.008   2.155  0.4879  0.4367  0.6524
60098SOL    HW190608   6.858   0.068   2.109  0.5895  0.7759  1.2069
60098SOL    HW290609   6.740   0.065   2.203 -0.7794  0.1049 -0.4700
60099SOL     OW90610   1.248   1.756   3.489  0.5726 -0.9809  0.4700
60099SOL    HW190611   1.241   1.851   3.496  2.3612 -0.7584 -0.0597
60099SOL    HW290612   1.186   1.732   3.420 -0.2441 -0.2642  0.9457
60100SOL     OW90613  12.860   4.888   6.015 -0.6679 -0.0263  0.0959
60100SOL    HW190614  12.910   4.807   6.023  1.0189  0.6412 -2.3406
60100SOL    HW290615  12.773   4.867   6.049  0.0758 -2.4662  0.6525
60101SOL     OW90616   7.675   2.347  12.619  0.1031 -0.1813  0.3636
60101SOL    HW190617   7.700   2.402  12.545 -1.7518  2.4901  1.5802
60101SOL    HW290618   7.604   2.293  12.586 -1.2047  1.5080  0.3126
60102SOL     OW90619   1.605  10.903   4.509 -0.5641 -0.2226 -0.5163
60102SOL    HW190620   1.509  10.909   4.510 -0.6185  1.7481  3.5195
60102SOL    HW290621   1.627  10.860   4.591  1.9818  3.1113  0.7775
60103SOL     OW90622  11.609   9.908   5.808  0.3540  0.6121 -0.4155
60103SOL    HW190623  11.579   9.999   5.806 -1.1892  0.2710  2.2448
60103SOL    HW290624  11.646   9.893   5.721  1.0719  3.8800 -0.8096
60104SOL     OW90625   2.319  11.986  12.013  0.3367  0.5687  0.6825
60104SOL    HW190626   2.412  11.970  12.030  0.2915  0.5005  0.8732
60104SOL    HW290627   2.278  11.980  12.100 -0.0870 -1.0586  0.3942
60105SOL     OW90628  12.696   8.265   9.645  0.1687 -0.0909  0.5514
60105SOL    HW190629  12.625   8.204   9.665 -0.0710  0.3397  1.0524
60105SOL    HW290630  12.695   8.272   9.550  0.3333 -1.0212  0.4683
60106SOL     OW90631   4.364  11.139   8.746  0.2106 -0.0727 -0.2759
60106SOL    HW190632   4.407  11.214   8.787  1.4930  0.4049 -2.3750
60106SOL    HW290633   4.357  11.162   8.654 -3.5132 -0.6495 -0.2911
60107SOL     OW90634   1.233   1.699   5.946 -0.3583 -0.2716  0.0678
60107SOL    HW190635   1.138   1.707   5.958 -0.4814 -1.2621 -0.1727
60107SOL    HW290636   1.263   1.789   5.938 -1.1345  0.1118  1.1740
60108SOL     OW90637   8.548   6.784   6.770  0.1317  0.2415 -0.7388
60108SOL    HW190638   8.552   6.871   6.731  2.4288  0.5630  0.0187
60108SOL    HW290639   8.583   6.796   6.858 -1.6865 -1.0680  0.2279
60109SOL     OW90640   3.774   3.761   8.406 -0.1948 -0.6410 -0.5087
60109SOL    HW190641   3.738   3.751   8.318 -1.1639 -1.0503 -0.0815
60109SOL    HW290642   3.708   3.723   8.464  0.3267 -0.1865  0.4187
60110SOL     OW90643   9.711   6.470   3.552  0.0032  0.3567  0.4069
60110SOL    HW190644   9.709   6.385   3.507 -2.9665 -0.3853  1.6960
60110SOL    HW290645   9.777   6.459   3.621  1.2806 -0.0638 -0.8360
60111SOL     OW90646  12.632   2.044   7.083  0.0353 -0.4967 -0.0940
60111SOL    HW190647  12.595   2.012   7.165  1.3226  0.3181  0.8445
60111SOL    HW290648  12.687   2.118   7.108 -0.7664  0.7966 -1.8968
60112SOL     OW90649   4.787   2.575   6.828 -0.2737 -0.4358 -0.4486
60112SOL    HW190650   4.747   2.615   6.751  0.5265  0.2067 -0.5452
60112SOL    HW290651   4.789   2.645   6.894 -0.5555 -0.8545  0.0117
60113SOL     OW90652   3.717   2.065   5.749 -0.0177  0.6962  0.3482
60113SOL    HW190653   3.661   2.143   5.754 -1.5237 -0.3547  0.2371
60113SOL    HW290654   3.737   2.055   5.656 -0.6766  0.3630  0.2408
60114SOL     OW90655   4.100  11.523   2.180 -0.0628 -0.1120 -0.3246
60114SOL    HW190656   4.014  11.488   2.199 -0.8115  0.9914 -1.5048
60114SOL    HW290657   4.109  11.516   2.085  1.0530 -0.0067 -0.2436
60115SOL     OW90658   5.815   0.620   4.361 -0.1189  0.0840  0.0277
60115SOL    HW190659   5.762   0.548   4.327  0.0909  0.2827 -0.7555
60115SOL    HW290660   5.752   0.688   4.382 -0.2858 -0.1822  0.4020
60116SOL     OW90661  12.600   6.283   2.781 -0.1119 -0.2520 -0.3127
60116SOL    HW190662  12.592   6.265   2.875  1.2156 -0.4385 -0.2212
60116SOL    HW290663  12.569   6.203   2.738 -0.5100 -0.2498 -0.0366
60117SOL     OW90664   3.530   1.937  11.316  0.3077 -0.3030  0.2474
60117SOL    HW190665   3.625   1.953  11.317  0.1671  0.5353  0.7975
60117SOL    HW290666   3.523   1.842  11.309  1.1958 -0.4034  0.5214
60118SOL     OW90667   0.679  10.157   0.272 -0.0485  0.8798 -0.6339
60118SOL    HW190668   0.719  10.135   0.187  0.0622  0.4655 -0.4763
60118SOL    HW290669   0.643  10.075   0.304  0.0313  1.0063 -0.2126
60119SOL     OW90670   3.181   1.913  10.124 -0.3928 -0.3164  0.6086
60119SOL    HW190671   3.085   1.913  10.126 -0.4291 -1.9979  0.0529
60119SOL    HW290672   3.204   1.847  10.059  1.1605 -1.0232  1.8130
60120SOL     OW90673   5.970   7.377   3.462 -0.3958  0.2995 -0.0855
60120SOL    HW190674   5.875   7.369   3.463 -0.6780  2.3676  2.5937
60120SOL    HW290675   5.998   7.340   3.546  1.3107 -1.2183 -1.2679
60121SOL     OW90676  11.189   5.437   3.482  0.7795 -0.0280  0.0546
60121SOL    HW190677  11.137   5.427   3.562  0.7909  0.6552  0.1510
60121SOL    HW290678  11.279   5.444   3.512  0.6016  2.6672  0.2055
60122SOL     OW90679   2.809   8.341   7.003  0.4549  0.4096  0.4444
60122SOL    HW190680   2.873   8.376   7.065  2.3176  0.4288 -1.3720
60122SOL    HW290681   2.855   8.341   6.919 -1.1335 -1.8226 -0.5253
60123SOL     OW90682   5.513   0.770  10.396  0.1918 -0.1337 -0.4771
60123SOL    HW190683   5.522   0.803  10.306  1.2631 -1.5167 -0.9126
60123SOL    HW290684   5.592   0.800  10.440 -1.4760  2.7941  0.8536
60124SOL     OW90685   2.144   2.874   2.241 -0.0880  0.5407 -0.0579
60124SOL    HW190686   2.156   2.921   2.324 -0.8722  3.4809 -1.4871
60124SOL    HW290687   2.053   2.890   2.217 -0.2722 -1.4630 -0.8419
60125SOL     OW90688   5.563  11.540   6.272 -0.7079 -0.1303 -0.1708
60125SOL    HW190689   5.535  11.531   6.181  1.2425 -0.1204 -0.8184
60125SOL    HW290690   5.497  11.596   6.312 -1.7430 -0.3428 -1.4960
60126SOL     OW90691   1.703  10.721   8.321  0.5054 -0.0828 -0.2211
60126SOL    HW190692   1.708  10.655   8.390 -2.3991 -1.3421 -1.0524
60126SOL    HW290693   1.621  10.766   8.337  1.3095  1.7813 -1.0722
60127SOL     OW90694   2.798   2.187   6.375 -0.4683  0.1498 -0.7084
60127SOL    HW190695   2.846   2.134   6.311  2.0213  0.5201  0.7189
60127SOL    HW290696   2.727   2.227   6.325 -0.2564 -1.6652 -2.6136
60128SOL     OW90697   2.142   7.655   6.092 -0.9307  0.6785  0.1120
60128SOL    HW190698   2.227   7.657   6.135 -0.4999 -1.0213 -0.5917
60128SOL    HW290699   2.161   7.633   6.001 -2.1401 -0.1218  0.0270
60129SOL     OW90700  10.572  10.521   2.348 -0.1800 -0.0168 -0.2228
60129SOL    HW190701  10.572  10.616   2.335 -0.3562 -0.1292 -1.0953
60129SOL    HW290702  10.654  10.503   2.393  0.1983  0.4631 -0.7082
60130SOL     OW90703   1.675  11.027   5.236 -1.0912  0.1352 -0.0691
60130SOL    HW190704   1.727  10.989   5.165 -2.0102 -0.0771 -0.6297
60130SOL    HW290705   1.688  10.967   5.310 -0.7161 -0.0353 -0.2711
60131SOL     OW90706   9.048  11.213   4.503 -0.1222 -0.2124  0.2682
60131SOL    HW190707   9.114  11.156   4.543  0.9623  0.5238 -0.4139
60131SOL    HW290708   9.009  11.260   4.577  0.8176  0.0614  0.6093
60132SOL     OW90709   5.493   7.501   0.160 -0.3672 -0.3336 -0.2057
60132SOL    HW190710   5.460   7.571   0.217 -0.7501 -0.0006 -0.8281
60132SOL    HW290711   5.416   7.474   0.110 -0.2653 -1.3364  0.1677
60133SOL     OW90712  11.261   7.539   9.180 -0.0338 -0.4206  0.0199
60133SOL    HW190713  11.181   7.487   9.188 -1.4921  1.6037 -0.3974
60133SOL    HW290714  11.286   7.559   9.270 -0.4115 -0.4979  0.1435
60134SOL     OW90715   4.375   6.887   8.143  0.5755  0.6807  0.0636
60134SOL    HW190716   4.387   6.934   8.060  0.3982 -2.3427 -1.8206
60134SOL    HW290717   4.281   6.891   8.159 -0.0136 -1.8563 -2.0519
60135SOL     OW90718   0.344  10.133   5.971  0.4248 -0.2440 -0.3279
60135SOL    HW190719   0.342  10.157   5.878 -1.4772  0.0032 -0.2572
60135SOL    HW290720   0.436  10.141   5.995  0.7785  0.9211 -1.8713
60136SOL     OW90721   5.162   6.833   2.903  0.2679  0.0206  0.7538
60136SOL    HW190722   5.118   6.751   2.926 -0.7628  0.1985 -0.4536
60136SOL    HW290723   5.125   6.898   2.962  0.3194 -0.1880  1.0174
60137SOL     OW90724  11.174   6.084   6.794 -0.3618 -0.3668 -0.0351
60137SOL    HW190725  11.117   6.062   6.868  0.2140  0.2577  0.6123
60137SOL    HW290726  11.125   6.055   6.717 -1.2014 -0.5716  0.5525
60138SOL     OW90727   1.861  11.842  11.163  0.1626  0.5377 -0.0985
60138SOL    HW190728   1.792  11.797  11.212 -1.5181  1.4953 -1.4655
60138SOL    HW290729   1.934  11.849  11.225 -0.0748 -2.5776  0.6644
60139SOL     OW90730   7.356   9.929   7.437  0.0881 -0.9571 -0.3065
60139SOL    HW190731   7.261   9.929   7.451 -0.0610  0.9834 -0.9605
60139SOL    HW290732   7.370   9.994   7.369  2.1497  1.3674  2.1061
60140SOL     OW90733  12.667   1.649  12.710 -0.1076  0.2214 -0.4935
60140SOL    HW190734  12.714   1.715  12.761 -2.2637  2.3089 -1.0169
60140SOL    HW290735  12.735   1.588  12.680  1.5968  0.5884  2.3299
60141SOL     OW90736   9.144   6.184   4.209 -0.0439  0.0268 -0.1849
60141SOL    HW190737   9.174   6.093   4.208  1.7300  0.4571 -3.8814
60141SOL    HW290738   9.059   6.181   4.165  1.0469  0.2669 -2.4868
60142SOL     OW90739   2.852   0.717   4.373 -0.2983  0.2212  0.2462
60142SOL    HW190740   2.819   0.673   4.295 -1.7934  1.7773 -0.0606
60142SOL    HW290741   2.831   0.657   4.445 -0.0300 -0.6659 -0.3970
60143SOL     OW90742   0.712   2.398   1.100  0.3576 -0.1655  0.3886
60143SOL    HW190743   0.726   2.326   1.040 -0.6153 -0.6680  0.7392
60143SOL    HW290744   0.628   2.435   1.074  1.7469  2.2349 -1.1525
60144SOL     OW90745  10.657   9.661   8.003 -0.4556 -0.4402  0.1003
60144SOL    HW190746  10.682   9.751   8.022 -1.6673 -0.3089  1.2622
60144SOL    HW290747  10.656   9.617   8.088 -1.1225 -1.2100 -0.2808
60145SOL     OW90748   4.176   0.394  12.893  0.2660  0.3854  0.4825
60145SOL    HW190749   4.122   0.456  12.941 -2.5618  0.5698 -2.6057
60145SOL    HW290750   4.248   0.447  12.857  0.9358  0.7199  2.2362
60146SOL     OW90751  12.625  12.357   4.262  0.2444  0.7411  0.1436
60146SOL    HW190752  12.561  12.328   4.327  0.7082  1.4646  0.9424
60146SOL    HW290753  12.709  12.324   4.294  0.5988  1.8563  0.3883
60147SOL     OW90754   0.995   0.773   5.844  0.2478  0.1955 -0.0925
60147SOL    HW190755   0.989   0.794   5.937  1.0897 -0.7111  0.1837
60147SOL    HW290756   1.012   0.679   5.842 -2.1019 -0.2885 -1.2387
60148SOL     OW90757   9.941   4.218  12.654 -0.0521 -0.2543 -0.4229
60148SOL    HW190758   9.952   4.264  12.737  1.3729  2.4149 -1.9706
60148SOL    HW290759  10.020   4.164  12.646 -0.5917 -1.1938  0.2744
60149SOL     OW90760   4.464   6.717   6.619  0.4662  0.2220  0.0710
60149SOL    HW190761   4.517   6.656   6.567  0.7560  0.4207  0.1263
60149SOL    HW290762   4.474   6.801   6.573  0.5916  0.3626  0.3554
60150SOL     OW90763   1.902   9.188   1.139  0.6142  0.1124  0.2303
60150SOL    HW190764   1.877   9.134   1.214  0.9621  1.2511  1.2049
60150SOL    HW290765   1.968   9.136   1.093  0.2133 -0.7093  0.5591
60151SOL     OW90766   9.947   0.638  10.781 -0.0574  0.0207 -0.0687
60151SOL    HW190767   9.987   0.557  10.812  1.5008 -0.0150 -1.9547
60151SOL    HW290768   9.853   0.626  10.794  0.2992 -1.2023  1.6049
60152SOL     OW90769   4.814  11.799   0.431 -0.5710  0.5341  0.3091
60152SOL    HW190770   4.809  11.732   0.499 -2.6597 -0.6415 -0.8940
60152SOL    HW290771   4.744  11.860   0.452  0.7734  1.9264  0.9128
60153SOL     OW90772   8.024   6.207   3.376 -0.3229  0.2322  0.1416
60153SOL    HW190773   7.938   6.165   3.377 -0.0944 -0.2423  0.0902
60153SOL    HW290774   8.038   6.232   3.285  0.5231 -1.6486 -0.2920
60154SOL     OW90775   0.731   5.309   6.120 -0.6105  0.3381  0.3951
60154SOL    HW190776   0.708   5.223   6.153 -1.1599  0.3990  0.1731
60154SOL    HW290777   0.770   5.293   6.034 -2.0197  0.4022 -0.2860
60155SOL     OW90778   1.458   1.404   9.212 -0.6260  0.1805 -0.4417
60155SOL    HW190779   1.492   1.419   9.301 -1.0822 -0.2446 -0.1910
60155SOL    HW290780   1.407   1.483   9.193 -0.3462  0.3712 -0.4167
60156SOL     OW90781   1.845   6.338  10.719  0.2039  0.4987  0.7963
60156SOL    HW190782   1.848   6.271  10.787 -1.6243  0.9228  1.3463
60156SOL    HW290783   1.761   6.325  10.676  1.0532  0.6609 -0.9849
60157SOL     OW90784   1.566  11.909   5.141  0.0919  0.0033  0.2329
60157SOL    HW190785   1.591  11.865   5.060  1.2129 -0.1295  0.6289
60157SOL    HW290786   1.617  11.864   5.209 -0.9954 -0.0349  1.0447
60158SOL     OW90787   9.038  11.809   7.563 -0.4525 -0.5338 -0.8339
60158SOL    HW190788   9.126  11.790   7.531 -0.3478 -0.5746 -0.5314
60158SOL    HW290789   9.003  11.723   7.587 -0.2292 -0.4227 -0.0879
60159SOL     OW90790   1.851  12.191   4.052 -0.2620 -0.2041  0.1619
60159SOL    HW190791   1.894  12.270   4.085  2.1916 -1.0609 -0.7159
60159SOL    HW290792   1.759  12.214   4.045 -0.0205  1.7196  2.3700
60160SOL     OW90793  12.557   0.524  12.513 -0.2533 -0.1591 -0.2167
60160SOL    HW190794  12.620   0.595  12.526 -0.7308  0.3906 -0.8822
60160SOL    HW290795  12.588   0.477  12.436  0.0678 -0.7003  0.2273
60161SOL     OW90796   3.952   0.626  10.768 -0.3029  0.3576  0.2864
60161SOL    HW190797   4.045   0.605  10.769 -0.0750  1.3311  0.3385
60161SOL    HW290798   3.912   0.557  10.715  0.3283 -0.5056  0.9012
60162SOL     OW90799   3.093   3.546   7.686  0.7788 -0.3389 -0.1852
60162SOL    HW190800   3.108   3.610   7.755 -0.0482 -1.8486  1.4647
60162SOL    HW290801   2.998   3.538   7.681  0.8737 -1.7700 -0.0222
60163SOL     OW90802   7.374   3.189   5.761  0.0538  0.0916 -0.0477
60163SOL    HW190803   7.336   3.122   5.819  1.5140 -0.8412 -0.1263
60163SOL    HW290804   7.357   3.156   5.673 -0.6719  0.6672 -0.1326
60164SOL     OW90805  11.533   9.083   1.244 -0.4148  0.2024  0.1600
60164SOL    HW190806  11.505   9.168   1.278  1.0870  0.7991 -0.0051
60164SOL    HW290807  11.572   9.039   1.319  2.0122  1.1280 -0.4569
60165SOL     OW90808   9.424   0.394   1.725  0.2085  0.1573 -0.3370
60165SOL    HW190809   9.415   0.363   1.635 -0.8063  0.7251 -0.4434
60165SOL    HW290810   9.342   0.439   1.743  1.2282  1.8858  0.1781
60166SOL     OW90811   7.036  12.895  11.328  0.2434  0.1219 -0.2465
60166SOL    HW190812   7.076  12.968  11.281  1.2451 -0.0731  0.2629
60166SOL    HW290813   7.026  12.927  11.418 -0.2287 -0.0299 -0.2450
60167SOL     OW90814  11.685   0.993   3.901 -0.6392 -0.3379  0.5885
60167SOL    HW190815  11.759   0.976   3.959 -1.3976 -0.1699  1.6359
60167SOL    HW290816  11.616   0.934   3.932 -0.5942 -1.3152 -1.0955
60168SOL     OW90817  12.793   2.285   4.377 -0.3336  0.2819  0.4107
60168SOL    HW190818  12.786   2.216   4.312 -1.1224  2.5561 -2.0982
60168SOL    HW290819  12.732   2.259   4.446 -0.9284 -1.2773 -0.6485
60169SOL     OW90820   0.119   3.275   8.587 -0.0917  0.8943  0.3059
60169SOL    HW190821   0.155   3.357   8.621  0.6802  1.1769 -1.1288
60169SOL    HW290822   0.026   3.292   8.574 -0.1913  1.1104  1.2314
60170SOL     OW90823   7.443   1.312  10.313  0.2136 -0.5294 -0.4436
60170SOL    HW190824   7.368   1.255  10.293  0.1595 -0.7645  0.4046
60170SOL    HW290825   7.414   1.399  10.288 -2.1070  0.2198  3.9479
60171SOL     OW90826   8.136   7.848  10.348  0.4237  0.0726 -0.1914
60171SOL    HW190827   8.189   7.868  10.271  0.9026  0.2600  0.1811
60171SOL    HW290828   8.067   7.914  10.348  0.2152 -0.1424 -0.6524
60172SOL     OW90829   0.821   9.986  11.591 -0.0735  0.1263 -0.2392
60172SOL    HW190830   0.883   9.996  11.662  2.0097  4.5785 -2.2889
60172SOL    HW290831   0.742  10.031  11.621  0.1508  0.4234 -0.0916
60173SOL     OW90832   9.131  12.605   7.105 -0.2627  0.1652 -0.0485
60173SOL    HW190833   9.197  12.617   7.037 -0.6941 -0.3753 -0.5701
60173SOL    HW290834   9.072  12.680   7.094 -0.0285  0.3703  0.0846
60174SOL     OW90835   0.983  12.300   9.174  0.5729 -0.1941  0.2979
60174SOL    HW190836   0.939  12.383   9.190  2.4913  0.6052  1.7782
60174SOL    HW290837   0.977  12.287   9.080 -1.6913  0.4559  0.2893
60175SOL     OW90838  12.944   0.974   9.951 -0.6375  0.0185  0.0036
60175SOL    HW190839  12.979   0.898   9.904 -1.5458 -0.6065  0.3000
60175SOL    HW290840  12.950   1.046   9.888 -1.1342 -0.6365 -0.8155
60176SOL     OW90841   6.966  12.073   1.338 -0.6327 -0.1378  0.0438
60176SOL    HW190842   6.931  12.140   1.397  0.5043 -0.0820  0.6925
60176SOL    HW290843   6.937  12.100   1.251 -1.6535  0.2283  0.4887
60177SOL     OW90844   1.511  11.729   4.271 -0.0093 -0.5877 -0.3479
60177SOL    HW190845   1.421  11.760   4.286 -0.3744 -1.4077 -0.7694
60177SOL    HW290846   1.537  11.770   4.189  1.0658  1.8896  1.1113
60178SOL     OW90847  11.616  12.479  11.524  0.0006  0.1691 -0.0548
60178SOL    HW190848  11.611  12.392  11.486  1.4086 -0.1268  0.3836
60178SOL    HW290849  11.535  12.522  11.497  0.6271 -0.2331 -2.7974
60179SOL     OW90850  11.150   7.998   8.645  0.0207 -0.5009  0.1550
60179SOL    HW190851  11.135   7.905   8.660 -1.2043 -0.5432 -1.1440
60179SOL    HW290852  11.092   8.021   8.572  0.2989  1.2794  0.4348
60180SOL     OW90853   0.437  11.975   3.075 -0.6517  0.7205 -0.0906
60180SOL    HW190854   0.412  12.057   3.118 -0.1009  0.5984  0.4756
60180SOL    HW290855   0.465  11.918   3.146  1.0531  0.7950 -0.6532
60181SOL     OW90856  12.393   6.565   3.271 -0.6201  0.0588  0.3677
60181SOL    HW190857  12.407   6.656   3.298  0.7067  0.2929 -1.0385
60181SOL    HW290858  12.354   6.571   3.184 -0.3261 -0.7245  0.1743
60182SOL     OW90859  11.425   0.777   9.561 -0.5098 -0.2083  0.1109
60182SOL    HW190860  11.435   0.773   9.656  0.4329 -0.7536  0.0043
60182SOL    HW290861  11.382   0.861   9.545  1.5246  1.0804  0.8845
60183SOL     OW90862   6.725   1.094  10.731 -0.2931  0.4014  0.2140
60183SOL    HW190863   6.715   1.071  10.823 -0.2429 -0.3139  0.0468
60183SOL    HW290864   6.820   1.091  10.716 -0.4054 -2.6416 -0.6106
60184SOL     OW90865   2.448   2.086  10.060  0.0219 -0.1151 -0.3572
60184SOL    HW190866   2.458   2.179  10.037 -1.3238  0.0419 -0.3663
60184SOL    HW290867   2.370   2.083  10.115 -0.2663 -1.3043 -0.7972
60185SOL     OW90868   1.771   8.764  12.021  0.2125 -0.3434  0.1766
60185SOL    HW190869   1.855   8.791  12.056  0.0876  1.4421 -0.8065
60185SOL    HW290870   1.716   8.842  12.025 -0.7910 -0.9495 -0.9571
60186SOL     OW90871  11.772   4.439   7.567 -0.4423 -0.3139  0.4367
60186SOL    HW190872  11.683   4.443   7.602 -0.6643  0.6829 -0.2309
60186SOL    HW290873  11.807   4.527   7.578  1.7537 -1.3861  3.8847
60187SOL     OW90874   5.418   3.373   5.161 -0.1990  0.6924  0.1254
60187SOL    HW190875   5.429   3.387   5.067 -1.2742 -2.8316 -0.6887
60187SOL    HW290876   5.324   3.362   5.173  0.0871 -0.9458  1.2046
60188SOL     OW90877   5.760   7.282  10.150  0.4295  0.7385  0.0585
60188SOL    HW190878   5.846   7.240  10.157  0.8194  1.6251  0.8766
60188SOL    HW290879   5.707   7.220  10.100  1.6130  0.2844 -0.6878
60189SOL     OW90880   1.860   9.139   7.899  0.2455 -0.2358 -0.0190
60189SOL    HW190881   1.908   9.193   7.962 -0.8289 -0.7214  1.2766
60189SOL    HW290882   1.879   9.049   7.925  0.3041 -0.4587 -0.8153
60190SOL     OW90883   1.346  10.853   4.247 -0.5651  0.1775 -0.2078
60190SOL    HW190884   1.304  10.817   4.324 -1.3628 -0.2714 -0.8370
60190SOL    HW290885   1.393  10.779   4.208 -0.1859  0.3956 -0.1757
60191SOL     OW90886   4.935  11.856   2.041  0.1558  0.0619  0.4263
60191SOL    HW190887   4.946  11.766   2.074  2.3245  0.0147 -0.2623
60191SOL    HW290888   4.893  11.902   2.113 -0.0578 -1.2681  1.2000
60192SOL     OW90889   1.378   5.959   4.977 -0.0636 -0.3031  0.0920
60192SOL    HW190890   1.307   5.959   4.914 -0.4526 -0.7621  0.5233
60192SOL    HW290891   1.336   5.976   5.061  0.4963  0.7048  0.1875
60193SOL     OW90892   5.989   2.188   6.073 -0.2507  0.0391 -0.4339
60193SOL    HW190893   5.899   2.184   6.104 -0.5931  1.1775 -1.2001
60193SOL    HW290894   5.981   2.183   5.978  0.8002 -3.9802 -0.4619
60194SOL     OW90895   8.312  12.535   1.843 -0.3919 -0.5684 -0.1926
60194SOL    HW190896   8.367  12.480   1.897 -0.2034 -0.4434 -0.2538
60194SOL    HW290897   8.371  12.569   1.776 -0.0174  1.3418  1.0288
60195SOL     OW90898   0.936  12.412   7.306 -0.2925 -0.3304  0.3411
60195SOL    HW190899   0.921  12.482   7.243 -0.2199 -1.9057 -1.5365
60195SOL    HW290900   0.848  12.386   7.335 -0.4248 -0.5627 -0.2568
60196SOL     OW90901   9.021   8.667   7.434 -0.3971  0.2178  0.2468
60196SOL    HW190902   8.991   8.583   7.397  1.1289 -0.6654  0.9186
60196SOL    HW290903   9.094   8.643   7.490  0.6783  2.1252 -0.2721
60197SOL     OW90904   1.736  10.311  10.797  0.1573  0.0584  0.5677
60197SOL    HW190905   1.831  10.315  10.792  0.0613  2.3220 -0.8208
60197SOL    HW290906   1.706  10.357  10.719 -2.0440  1.1057  1.9223
60198SOL     OW90907   1.653   5.562   2.241  0.0113  0.2749  0.8560
60198SOL    HW190908   1.651   5.618   2.164 -0.6722  0.2828  0.8694
60198SOL    HW290909   1.573   5.510   2.235  0.0248  0.1686  1.4786
60199SOL     OW90910   3.280  12.418   2.907  0.2833 -0.1504  0.2389
60199SOL    HW190911   3.276  12.332   2.948  0.0879 -0.5631 -0.6219
60199SOL    HW290912   3.313  12.402   2.819 -1.3825  0.4207 -0.5291
60200SOL     OW90913  11.737   1.851   4.236  0.0033  0.4617  0.1773
60200SOL    HW190914  11.788   1.928   4.210  0.3538  0.0912 -0.2260
60200SOL    HW290915  11.799   1.778   4.231 -0.5152  0.0385 -0.1329
60201SOL     OW90916   8.255   0.434   4.330  0.5053  0.3920 -0.0086
60201SOL    HW190917   8.303   0.436   4.248  2.5877  2.7367  1.1190
60201SOL    HW290918   8.288   0.356   4.376  0.7304  0.1231 -0.6187
60202SOL     OW90919   5.126  12.369   1.229  0.0255  0.1137  0.1279
60202SOL    HW190920   5.141  12.354   1.136  0.8449  0.0598  0.2607
60202SOL    HW290921   5.061  12.303   1.254  1.0511 -0.9832 -0.0331
60203SOL     OW90922   4.312   2.099  12.942 -0.2193 -0.0500  0.2447
60203SOL    HW190923   4.402   2.080  12.969  0.0567 -1.1079 -1.2472
60203SOL    HW290924   4.322   2.158  12.867 -0.9853  3.5785  2.7796
60204SOL     OW90925  12.537  10.435   8.765 -0.5540 -0.1968  0.9120
60204SOL    HW190926  12.481  10.376   8.814  0.0287 -0.5571  1.1550
60204SOL    HW290927  12.608  10.380   8.732 -0.2834  0.2651  0.7074
60205SOL     OW90928   4.209   0.804   1.658  0.5844  0.6134 -0.2258
60205SOL    HW190929   4.152   0.731   1.682  1.3270 -0.5714 -1.8598
60205SOL    HW290930   4.262   0.821   1.736 -1.0312  0.8411  0.8664
60206SOL     OW90931  12.891   5.604   2.391  0.0560 -0.4104 -0.1644
60206SOL    HW190932  12.968   5.586   2.446  0.7943  1.6152 -0.4448
60206SOL    HW290933  12.905   5.552   2.312 -0.2288 -2.1344  0.8683
60207SOL     OW90934   4.835  10.981   7.872 -0.5076  0.2314  0.0044
60207SOL    HW190935   4.805  10.932   7.949  1.0335 -0.0382  0.4600
60207SOL    HW290936   4.921  10.943   7.851 -1.1087 -0.0686 -2.1898
60208SOL     OW90937   6.516  12.152   6.176  0.1762  0.5855 -0.1200
60208SOL    HW190938   6.589  12.189   6.226  1.0789 -1.7605  0.4478
60208SOL    HW290939   6.536  12.173   6.085  1.0866  0.7463  0.1071
60209SOL     OW90940   4.008   1.425   9.751  0.3010 -0.1868 -0.0285
60209SOL    HW190941   4.050   1.454   9.832  0.4002 -1.4029  0.3671
60209SOL    HW290942   3.924   1.470   9.751  0.4106  0.0365  0.6164
60210SOL     OW90943   2.067   0.910   8.033 -0.0251  0.6259  0.0592
60210SOL    HW190944   2.054   0.816   8.032  3.9275 -0.0973  0.3265
60210SOL    HW290945   2.066   0.936   7.941 -2.1064  0.6017  0.0221
60211SOL     OW90946   1.956   4.481   9.973  0.3041 -0.2800  0.2763
60211SOL    HW190947   1.895   4.541  10.018 -1.1387 -0.0931 -1.7830
60211SOL    HW290948   1.899   4.427   9.918  2.0030 -0.0327 -1.8266
60212SOL     OW90949   8.870   3.651   0.980  0.7247 -0.3852 -0.3765
60212SOL    HW190950   8.795   3.710   0.985 -2.3263 -3.9610  0.8561
60212SOL    HW290951   8.900   3.644   1.070  0.3639 -1.4225 -0.3251
60213SOL     OW90952   6.651   1.605   5.176 -0.5998  0.5022 -0.6934
60213SOL    HW190953   6.731   1.581   5.222 -0.4928  0.0002 -1.1301
60213SOL    HW290954   6.675   1.683   5.125 -0.1972 -0.0482 -1.3533
60214SOL     OW90955   2.247   9.836   1.679 -0.1598  0.2286  0.2834
60214SOL    HW190956   2.285   9.795   1.757 -1.6384  1.7554  1.9012
60214SOL    HW290957   2.195   9.766   1.639 -2.3113  0.2544  2.7482
60215SOL     OW90958   8.566  12.475   7.067  0.2041 -0.4964  0.0680
60215SOL    HW190959   8.553  12.564   7.098 -0.8250 -0.8116  0.5674
60215SOL    HW290960   8.559  12.420   7.145  0.2891 -1.0620 -0.3123
60216SOL     OW90961  12.156   8.603   6.527 -0.3615  0.2488  0.0392
60216SOL    HW190962  12.206   8.630   6.450 -0.0677 -0.0389  0.1281
60216SOL    HW290963  12.097   8.676   6.544  1.8778  1.8296  1.5892
60217SOL     OW90964  10.720   1.861  12.687  0.1289 -0.4228  0.8209
60217SOL    HW190965  10.783   1.859  12.615 -1.1984  1.1482 -0.4703
60217SOL    HW290966  10.636   1.878  12.645 -1.0284 -1.5075  2.5778
60218SOL     OW90967   2.927   3.282   3.771  0.5229 -0.0873 -0.2983
60218SOL    HW190968   2.966   3.221   3.834  1.3691  1.3477  0.6167
60218SOL    HW290969   2.835   3.286   3.796  0.2295 -1.6731 -0.9723
60219SOL     OW90970   4.314   5.928   8.585  0.4151 -0.2283  0.3133
60219SOL    HW190971   4.408   5.930   8.567  1.1669 -1.6260  3.4094
60219SOL    HW290972   4.287   5.840   8.559 -0.0582  0.1479 -0.5059
60220SOL     OW90973   1.426  10.910  12.459  0.1825  0.3721 -0.9041
60220SOL    HW190974   1.360  10.961  12.506  2.1687 -0.7011  3.6050
60220SOL    HW290975   1.394  10.820  12.461  0.3679  0.2826 -1.5518
60221SOL     OW90976  11.225  11.293   0.639 -0.2829 -0.3894  0.1133
60221SOL    HW190977  11.269  11.254   0.715 -0.8883  0.5913  0.9940
60221SOL    HW290978  11.132  11.275   0.653 -0.5531  1.1253  0.4176
60222SOL     OW90979   6.674   7.624   3.719 -0.1345  0.0178 -0.3113
60222SOL    HW190980   6.633   7.697   3.767 -0.7275 -0.7404  0.3688
60222SOL    HW290981   6.737   7.587   3.781 -2.2292 -2.1553  0.6840
60223SOL     OW90982   6.782  10.857   6.779  0.0461 -0.3248 -0.6238
60223SOL    HW190983   6.841  10.883   6.708  1.2866  1.9341  1.1178
60223SOL    HW290984   6.698  10.896   6.755  0.0047 -0.9706 -1.6140
60224SOL     OW90985   9.796   4.746   6.367  0.1356 -0.4684  0.1791
60224SOL    HW190986   9.704   4.744   6.340  1.0515 -3.1801 -3.5716
60224SOL    HW290987   9.801   4.684   6.440 -0.9637 -0.6178  0.1411
60225SOL     OW90988  10.488   6.647   8.654  0.3497 -0.1466 -0.2118
60225SOL    HW190989  10.403   6.660   8.612 -0.1946 -2.9938 -0.1876
60225SOL    HW290990  10.543   6.608   8.586  1.7160  1.7001 -0.2405
60226SOL     OW90991   2.356   2.484   5.472  0.0787 -0.2184  0.1936
60226SOL    HW190992   2.339   2.422   5.543  2.8489 -1.2009  0.0954
60226SOL    HW290993   2.382   2.565   5.515  0.9601 -0.5643  0.3214
60227SOL     OW90994   0.013   3.273   7.049 -0.4476  0.1431 -0.0235
60227SOL    HW190995   0.023   3.220   6.970  0.2062 -0.3076  0.3529
60227SOL    HW290996  -0.056   3.336   7.027  0.3056  0.5872 -1.2615
60228SOL     OW90997   2.296   8.551   0.709  0.0376  0.2544  0.1717
60228SOL    HW190998   2.383   8.515   0.727  0.9889  2.3460 -0.0148
60228SOL    HW290999   2.249   8.543   0.792  0.5640 -0.4385  0.4139
60229SOL     OW91000   8.761   5.678   2.194  0.3564  0.0398 -0.1581
60229SOL    HW191001   8.799   5.764   2.209  1.7236 -0.4543 -0.6308
60229SOL    HW291002   8.671   5.686   2.225  0.2139  1.8539 -0.9495
60230SOL     OW91003   4.369  10.835   5.259 -0.3480  0.2514  0.3113
60230SOL    HW191004   4.359  10.877   5.344 -1.6060 -0.8108  0.7036
60230SOL    HW291005   4.460  10.803   5.259 -0.3393  0.2401  1.2543
60231SOL     OW91006   6.632   8.453   3.615  0.1957 -0.1545  0.2437
60231SOL    HW191007   6.681   8.372   3.602  0.1899 -0.2980  1.0384
60231SOL    HW291008   6.574   8.435   3.689  0.7070  0.7964  0.9095
60232SOL     OW91009   9.693   8.553   1.519  0.1429 -0.2706 -0.3470
60232SOL    HW191010   9.641   8.473   1.528 -0.3436  0.1588  0.9736
60232SOL    HW291011   9.783   8.522   1.510  0.0101 -0.9627  0.5642
60233SOL     OW91012   3.205   1.091   1.890 -0.0841  0.4563 -0.5112
60233SOL    HW191013   3.146   1.116   1.962 -0.4105 -1.3593 -0.0967
60233SOL    HW291014   3.277   1.045   1.933 -1.0355 -2.0123 -1.3989
60234SOL     OW91015   5.217   3.607   5.801  0.0600  0.0295 -0.1595
60234SOL    HW191016   5.275   3.614   5.726  0.3708 -0.6124  0.0089
60234SOL    HW291017   5.264   3.549   5.862 -0.1816  0.5533  0.5315
60235SOL     OW91018   8.352   7.081   6.966  0.0086  0.4040  0.1596
60235SOL    HW191019   8.404   7.068   7.045 -1.2226 -1.5517  0.7233
60235SOL    HW291020   8.287   7.146   6.991  0.7333  1.1454  0.1629
60236SOL     OW91021   8.878   8.951  11.393  0.0120 -0.1273 -0.3420
60236SOL    HW191022   8.850   9.017  11.457 -0.8709 -0.3538 -0.4762
60236SOL    HW291023   8.891   9.001  11.312  1.8875  0.2867  0.1740
60237SOL     OW91024   3.255   4.086   7.410 -1.0951 -0.0847  0.0813
60237SOL    HW191025   3.194   4.013   7.394 -3.0480  1.7565 -1.4592
60237SOL    HW291026   3.204   4.164   7.389  1.7497  1.6013 -1.0000
60238SOL     OW91027   9.438  11.432   1.595 -0.0617 -0.9127 -0.0105
60238SOL    HW191028   9.431  11.483   1.514  0.8754  1.3529  1.2366
60238SOL    HW291029   9.484  11.352   1.570 -1.7298 -1.2975 -2.0915
60239SOL     OW91030   4.710  12.798   7.821  0.0019 -0.0116 -0.0378
60239SOL    HW191031   4.654  12.875   7.833  1.3729  1.0524 -0.1831
60239SOL    HW291032   4.692  12.769   7.731 -0.7173 -0.0467  0.1075
60240SOL     OW91033   9.141   7.598   0.281 -0.3498  0.0794  0.0324
60240SOL    HW191034   9.218   7.585   0.226 -0.4401 -0.5621  0.0492
60240SOL    HW291035   9.067   7.599   0.220 -0.3919 -0.0329  0.0794
60241SOL     OW91036  11.112   7.013   5.392  0.0308  0.0582  0.0411
60241SOL    HW191037  11.027   7.002   5.350 -1.6486  0.4184  3.0018
60241SOL    HW291038  11.126   6.930   5.438  1.3346 -0.0197 -0.4615
60242SOL     OW91039  11.926   2.071   8.889 -0.6431  0.0389  0.6007
60242SOL    HW191040  11.852   2.013   8.870 -0.2203 -0.3843  0.2347
60242SOL    HW291041  11.915   2.143   8.827 -0.5388 -0.2138  0.2842
60243SOL     OW91042   2.794   4.644   5.446  0.4687 -0.2515 -0.5048
60243SOL    HW191043   2.819   4.603   5.363 -0.4316  1.1854 -1.5469
60243SOL    HW291044   2.875   4.651   5.496  1.1191 -0.7112 -1.4724
60244SOL     OW91045   8.186  11.053   6.420  0.1006  0.0622  0.1622
60244SOL    HW191046   8.230  11.131   6.387 -0.6986  0.3354 -0.3013
60244SOL    HW291047   8.181  11.066   6.515 -0.8793  1.0572 -0.0007
60245SOL     OW91048   7.071   7.660  10.425  0.4353  0.2946  0.2597
60245SOL    HW191049   7.063   7.608  10.504  1.0098  0.8117  0.6726
60245SOL    HW291050   7.084   7.750  10.456  1.2713  0.4194 -0.4040
60246SOL     OW91051   6.533   7.392   7.029  0.1200 -0.6065 -0.3497
60246SOL    HW191052   6.580   7.310   7.044  0.1770 -0.3906  0.7396
60246SOL    HW291053   6.580   7.434   6.956  0.2834 -1.3826 -0.6974
60247SOL     OW91054  12.494   1.026   3.162 -0.1379 -0.0951  0.3770
60247SOL    HW191055  12.520   1.021   3.254 -0.6727  1.4957  0.6596
60247SOL    HW291056  12.405   0.990   3.160  0.1877 -0.9045  0.3241
60248SOL     OW91057  12.336   5.879   9.057 -0.4041  0.3777  0.4102
60248SOL    HW191058  12.392   5.947   9.020 -1.5038  1.6673  1.0236
60248SOL    HW291059  12.292   5.922   9.130 -1.3126 -0.9357  0.6673
60249SOL     OW91060   5.101  10.565   2.830 -0.9674 -0.3124 -0.4457
60249SOL    HW191061   5.101  10.658   2.809  2.5535  0.2189  1.0378
60249SOL    HW291062   5.108  10.562   2.926  3.2027 -1.7666 -0.5804
60250SOL     OW91063   6.208  11.878   9.296 -0.1516  0.3501  0.4589
60250SOL    HW191064   6.247  11.947   9.351  0.9085  0.5718 -0.5368
60250SOL    HW291065   6.268  11.804   9.307 -0.8425 -0.1581  0.8764
60251SOL     OW91066   1.349   8.019   2.093 -0.2416  0.1870  0.1610
60251SOL    HW191067   1.372   7.985   2.007  0.6489 -0.4233  0.6237
60251SOL    HW291068   1.279   7.962   2.124 -1.8972  1.5265 -0.8924
60252SOL     OW91069   2.943   2.801   5.026  0.1070  0.1439 -0.0022
60252SOL    HW191070   2.857   2.840   5.012  0.1842  0.4601  0.3835
60252SOL    HW291071   2.926   2.707   5.033 -0.1196  0.1383 -0.6193
60253SOL     OW91072   5.421  10.338  11.831  0.1086  0.3517 -0.1550
60253SOL    HW191073   5.343  10.305  11.876 -0.4793 -0.0938 -1.4354
60253SOL    HW291074   5.450  10.265  11.776  1.4717  0.5000  0.3364
60254SOL     OW91075  11.005   5.919   4.991  0.5086 -0.1822 -0.0572
60254SOL    HW191076  11.075   5.971   4.951  0.6982 -0.8307 -0.5998
60254SOL    HW291077  10.932   5.980   5.001  1.4692  0.7880  1.4838
60255SOL     OW91078   3.763  11.725   3.331  0.9114  0.1348  0.3394
60255SOL    HW191079   3.793  11.809   3.367 -1.5222  2.4109 -2.4046
60255SOL    HW291080   3.819  11.710   3.255  0.4232  0.0202  0.0007
60256SOL     OW91081  11.402  11.508   7.246  0.5165 -0.2803 -0.3270
60256SOL    HW191082  11.337  11.566   7.287  0.7537  0.7372 -1.3514
60256SOL    HW291083  11.459  11.482   7.319 -0.1308  0.0450  0.3109
60257SOL     OW91084   6.721  10.142  11.883  0.3862 -0.4692  0.1536
60257SOL    HW191085   6.763  10.162  11.967 -1.2760 -1.2151  1.2118
60257SOL    HW291086   6.761  10.059  11.856  0.6980 -0.3904  0.3608
60258SOL     OW91087   6.355   2.341  10.979 -0.1653  0.1770  0.0624
60258SOL    HW191088   6.330   2.400  11.050  1.0038  0.9820 -0.1626
60258SOL    HW291089   6.361   2.255  11.021 -3.9764 -0.3123 -0.0241
60259SOL     OW91090  12.397  10.840   4.642 -0.0848 -0.2755 -0.2137
60259SOL    HW191091  12.424  10.770   4.702 -0.6649 -0.2312  0.1114
60259SOL    HW291092  12.464  10.907   4.652  0.6967 -0.9468 -0.8230
60260SOL     OW91093   9.213   8.508  12.525 -0.6357  0.0774  0.9240
60260SOL    HW191094   9.240   8.416  12.524 -0.1788  0.1908  1.5129
60260SOL    HW291095   9.294   8.555  12.544 -0.3714  0.8159 -1.7144
60261SOL     OW91096   2.131   9.427  12.439 -0.1583  0.6670 -0.2623
60261SOL    HW191097   2.036   9.441  12.435 -0.4166 -0.9018 -0.2191
60261SOL    HW291098   2.151   9.375  12.362 -0.0165 -2.3924  1.6817
60262SOL     OW91099  12.433   2.814   9.427 -0.0178 -0.4035 -0.8459
60262SOL    HW191100  12.338   2.824   9.417  0.0192 -0.7535 -1.6117
60262SOL    HW291101  12.447   2.814   9.522 -0.9790 -1.9646 -0.6700
60263SOL     OW91102   0.819   6.165  10.877 -0.4148 -0.1936 -0.3132
60263SOL    HW191103   0.844   6.090  10.824 -0.3553  0.0910 -0.6939
60263SOL    HW291104   0.732   6.144  10.910 -0.0355 -0.8189  0.3245
60264SOL     OW91105   0.659   0.357   9.120  0.2167  0.0157  0.1579
60264SOL    HW191106   0.626   0.396   9.039 -0.1662  2.6252  1.4673
60264SOL    HW291107   0.754   0.361   9.111  0.1988 -0.9035 -0.6481
60265SOL     OW91108   4.546   1.211   4.872 -0.2171 -0.4868 -0.2558
60265SOL    HW191109   4.462   1.224   4.828 -0.1000 -0.8297 -0.5889
60265SOL    HW291110   4.532   1.244   4.961  0.0574  1.8458 -1.0202
60266SOL     OW91111   0.025   2.822   8.253 -0.3787 -0.2099  0.3176
60266SOL    HW191112   0.031   2.727   8.256 -1.5030 -0.2819  0.5878
60266SOL    HW291113   0.052   2.851   8.340  0.3699 -0.2452  0.1056
60267SOL     OW91114   5.969  11.763   7.315  0.0756  0.0990  0.1928
60267SOL    HW191115   6.056  11.724   7.306 -0.1915 -0.9996  1.8572
60267SOL    HW291116   5.914  11.714   7.253  0.2167 -0.7196  0.6892
60268SOL     OW91117  12.725   6.052   5.644 -0.4392  0.5568  0.3760
60268SOL    HW191118  12.661   6.116   5.613 -0.7285  0.2062  0.2340
60268SOL    HW291119  12.810   6.088   5.618 -0.5022  1.4623  1.3392
60269SOL     OW91120   0.747   1.518   8.454 -0.6731  0.4140  0.0394
60269SOL    HW191121   0.830   1.472   8.463 -1.3142 -1.2965 -1.9534
60269SOL    HW291122   0.765   1.590   8.393 -0.7216 -0.2403 -0.7667
60270SOL     OW91123   6.651   4.416   1.731  0.1555  0.6882 -0.3806
60270SOL    HW191124   6.631   4.439   1.641 -0.7146 -0.2899 -0.4578
60270SOL    HW291125   6.613   4.329   1.743  1.7689  0.0490  0.4143
60271SOL     OW91126   0.812   1.152   1.245 -0.4950 -0.0469 -0.5222
60271SOL    HW191127   0.788   1.244   1.231  3.1196  1.0906 -0.3058
60271SOL    HW291128   0.819   1.116   1.156 -0.6212  0.2673 -0.6624
60272SOL     OW91129   7.213   9.547  12.392 -0.2897  0.2572 -0.1310
60272SOL    HW191130   7.194   9.636  12.360  0.4302  0.4334 -0.0988
60272SOL    HW291131   7.156   9.490  12.340  1.6914  0.4173 -2.6648
60273SOL     OW91132   7.448   1.527   3.229 -0.0254 -0.9218 -0.8172
60273SOL    HW191133   7.407   1.597   3.178  0.2237 -0.1567  0.0028
60273SOL    HW291134   7.377   1.467   3.249 -0.2705 -0.8378 -1.4180
60274SOL     OW91135   4.595   9.594  10.718  0.4790 -1.1121 -0.9158
60274SOL    HW191136   4.673   9.614  10.665  0.8588 -0.1225 -0.0264
60274SOL    HW291137   4.545   9.676  10.720 -0.6110 -1.7433 -1.4921
60275SOL     OW91138   1.621  12.984   7.332 -0.1052  0.4484  0.4691
60275SOL    HW191139   1.560  12.926   7.377 -1.0438 -0.0414 -1.3409
60275SOL    HW291140   1.701  12.932   7.321  0.1249  0.5635  1.4882
60276SOL     OW91141  10.295   1.374   3.531  0.1459  0.1818  0.2016
60276SOL    HW191142  10.274   1.458   3.571 -0.3370 -0.2293  0.8357
60276SOL    HW291143  10.391   1.370   3.534  0.1975  0.8680 -0.1907
60277SOL     OW91144   6.899   2.748  12.870 -0.2655  0.0328 -0.1094
60277SOL    HW191145   6.836   2.788  12.930 -0.3190  1.1861 -0.9029
60277SOL    HW291146   6.860   2.664  12.846 -1.3277  0.5735 -0.3109
60278SOL     OW91147   9.889   2.865   5.550 -0.0575  0.7179  0.4076
60278SOL    HW191148   9.856   2.827   5.469  1.3813  0.8207 -0.2504
60278SOL    HW291149   9.883   2.793   5.614 -1.1410  0.6236  0.2117
60279SOL     OW91150  12.598   1.791   4.985  0.0956  0.3333 -0.7580
60279SOL    HW191151  12.544   1.855   4.939  0.7604  1.4828  0.0362
60279SOL    HW291152  12.605   1.824   5.074  2.8479  0.7406 -1.0270
60280SOL     OW91153   5.945   5.784   6.701  0.6315  0.6228 -0.0011
60280SOL    HW191154   5.866   5.784   6.646  0.5219  1.6852  0.1481
60280SOL    HW291155   5.913   5.801   6.789  1.0968  1.9107 -0.0618
60281SOL     OW91156  10.556   0.901  12.153  0.4206 -0.0515 -0.2814
60281SOL    HW191157  10.572   0.830  12.215  1.1621  1.3465  1.2144
60281SOL    HW291158  10.461   0.907  12.147  0.3298  0.1530  1.1873
60282SOL     OW91159   8.900   9.831  12.243  0.6244 -0.3026  0.0015
60282SOL    HW191160   8.924   9.747  12.281  0.8901 -0.5450 -0.6792
60282SOL    HW291161   8.950   9.836  12.161  1.0782  0.7864  0.3182
60283SOL     OW91162   9.311   6.327   4.678  0.0393 -0.2699 -0.1658
60283SOL    HW191163   9.299   6.232   4.667  1.5820 -0.3181 -1.7667
60283SOL    HW291164   9.374   6.334   4.750 -0.8831 -0.4014  0.6721
60284SOL     OW91165   3.675   6.087   1.130 -0.2859 -0.8127 -0.1202
60284SOL    HW191166   3.766   6.063   1.148  0.1735  0.9640  0.1743
60284SOL    HW291167   3.636   6.101   1.216 -0.1451  0.6895 -0.2689
60285SOL     OW91168   1.108  12.889   8.873  0.5018  0.3144  0.1713
60285SOL    HW191169   1.155  12.881   8.790 -0.4738 -0.4951 -0.3243
60285SOL    HW291170   1.166  12.849   8.937  0.4356 -0.8300 -0.4593
60286SOL     OW91171   0.008   0.899   9.560 -0.1810  0.7609  0.1418
60286SOL    HW191172   0.021   0.876   9.652  0.6459  1.2191  0.1559
60286SOL    HW291173  -0.027   0.988   9.563  1.5662  1.4967  0.0038
60287SOL     OW91174  10.004   5.716   8.148 -0.6142  0.5709 -0.3173
60287SOL    HW191175  10.017   5.675   8.233 -0.3794  0.4412 -0.4147
60287SOL    HW291176   9.951   5.794   8.166  0.7698  1.4316  0.1718
60288SOL     OW91177  10.334   5.749   8.167  0.1181 -0.2001  0.1336
60288SOL    HW191178  10.261   5.772   8.109 -1.0502 -0.6558  1.3546
60288SOL    HW291179  10.409   5.796   8.132  0.0155 -2.0677 -3.0289
60289SOL     OW91180   2.134   1.561   1.451 -0.4556 -0.0997  0.0710
60289SOL    HW191181   2.195   1.516   1.509 -0.1301  1.6249  1.1203
60289SOL    HW291182   2.083   1.618   1.508 -1.0530  0.6446 -1.1607
60290SOL     OW91183   3.828   4.326  11.901 -0.9078  0.2866 -0.8444
60290SOL    HW191184   3.795   4.243  11.868 -0.1911 -0.3813  0.0562
60290SOL    HW291185   3.852   4.308  11.992 -0.1089  1.2933 -0.8321
60291SOL     OW91186   0.848   1.832   5.004  0.4240  0.1896  0.5080
60291SOL    HW191187   0.784   1.898   4.982  0.0012 -0.0056  1.1039
60291SOL    HW291188   0.913   1.878   5.057 -1.6294 -0.4649  3.9020
60292SOL     OW91189  10.593   2.237   7.176 -0.5997 -0.1433  0.2441
60292SOL    HW191190  10.501   2.234   7.200 -0.9762 -0.3387 -1.1191
60292SOL    HW291191  10.593   2.266   7.085  0.6653 -0.4124  0.1368
60293SOL     OW91192  12.426   7.859   9.171 -0.4827  0.0867 -0.0787
60293SOL    HW191193  12.518   7.841   9.189 -0.2700 -0.5780 -1.6571
60293SOL    HW291194  12.423   7.952   9.151 -0.7256  0.8456  3.0905
60294SOL     OW91195  12.961   8.467   6.453 -0.8193  0.2566 -0.0461
60294SOL    HW191196  12.893   8.515   6.406 -1.5604 -2.0800 -1.5137
60294SOL    HW291197  13.031   8.456   6.388  1.4179  3.1745  1.5997
60295SOL     OW91198   4.075   1.060   8.443 -0.4419  0.2577 -0.3588
60295SOL    HW191199   4.071   1.094   8.353  0.6716  0.3413 -0.3835
60295SOL    HW291200   4.002   1.103   8.488 -0.1325  1.3186 -0.8477
60296SOL     OW91201   0.705  10.579  12.663  0.1518  0.2242  0.0849
60296SOL    HW191202   0.699  10.580  12.567 -1.5393 -0.5396  0.1525
60296SOL    HW291203   0.633  10.522  12.691  0.0893  1.1082  1.8523
60297SOL     OW91204   9.617   5.718   9.275 -0.4550 -0.2531 -0.1687
60297SOL    HW191205   9.634   5.687   9.186 -0.6444  0.8062 -0.5847
60297SOL    HW291206   9.549   5.785   9.264  2.4305  3.0267  0.2031
60298SOL     OW91207   4.936   8.643  10.477  0.1322 -0.5989 -1.0239
60298SOL    HW191208   4.870   8.575  10.489  0.3298 -0.9656 -1.9408
60298SOL    HW291209   4.894   8.708  10.421  0.3193 -0.5071 -1.0610
60299SOL     OW91210  11.335  10.409  12.951  0.2160  0.1914 -0.5626
60299SOL    HW191211  11.277  10.343  12.912  0.8146 -0.5776 -0.1719
60299SOL    HW291212  11.277  10.466  13.000  0.0200 -3.2772  3.8780
60300SOL     OW91213  10.046   0.935  11.983 -0.1449 -0.4252 -0.2990
60300SOL    HW191214   9.969   0.959  11.931 -1.3522 -1.1312  1.0910
60300SOL    HW291215  10.010   0.906  12.067  1.6390 -0.9272  0.3322
60301SOL     OW91216  12.801   3.762   1.469 -0.1120  0.0461 -0.2620
60301SOL    HW191217  12.752   3.842   1.449 -1.9494 -0.8278  0.4707
60301SOL    HW291218  12.740   3.691   1.447 -0.0805 -1.0608  2.8188
60302SOL     OW91219   0.498   8.143   6.652  0.1378 -0.1258 -0.0782
60302SOL    HW191220   0.480   8.127   6.745  1.2672  0.0180  0.1800
60302SOL    HW291221   0.504   8.238   6.644  1.0988 -0.1770 -0.0762
60303SOL     OW91222   7.298   7.939  12.533 -0.1139  0.0788 -0.6363
60303SOL    HW191223   7.346   7.859  12.555 -1.1579 -0.1757  0.8652
60303SOL    HW291224   7.257   7.919  12.448 -2.1364 -1.8945  0.6742
60304SOL     OW91225   7.712   8.162   6.434 -0.0172  0.6671 -0.2323
60304SOL    HW191226   7.728   8.131   6.523  1.1892 -2.3404 -1.3735
60304SOL    HW291227   7.797   8.154   6.390 -1.0082  0.1823 -2.1629
60305SOL     OW91228  12.615   1.249   7.695 -0.4687 -0.2892  0.0317
60305SOL    HW191229  12.581   1.230   7.782  0.2204  0.4427  0.4663
60305SOL    HW291230  12.669   1.172   7.673 -1.1827 -0.7772 -0.0417
60306SOL     OW91231  11.545   9.882   4.063 -0.0807  0.2253 -0.1520
60306SOL    HW191232  11.465   9.888   4.115 -1.2131 -0.2716 -1.7942
60306SOL    HW291233  11.527   9.932   3.984  0.7143 -1.0445 -1.1741
60307SOL     OW91234   5.403   3.392   5.957  0.4133  0.0241 -0.2759
60307SOL    HW191235   5.489   3.433   5.969  0.6185 -0.6208  0.6198
60307SOL    HW291236   5.369   3.383   6.046 -1.2137  1.5426 -0.7126
60308SOL     OW91237  12.053   7.984   4.165 -0.3532 -0.2318 -0.2578
60308SOL    HW191238  12.040   7.958   4.074 -0.3492 -0.6400 -0.1435
60308SOL    HW291239  12.130   7.935   4.194 -0.6966 -0.5498  0.1378
60309SOL     OW91240   2.835   2.088   2.028  0.4243 -0.1952 -0.4649
60309SOL    HW191241   2.894   2.020   1.995  0.4816 -1.0918  1.3627
60309SOL    HW291242   2.752   2.042   2.045 -0.2353  0.6637 -1.2250
60310SOL     OW91243   2.219   0.197   1.126  0.4820  0.2235  0.1957
60310SOL    HW191244   2.194   0.278   1.081  1.9362  0.5219 -0.1398
60310SOL    HW291245   2.141   0.142   1.123 -0.0909  1.0626 -0.8289
60311SOL     OW91246   6.249   4.108   9.649 -0.2403 -0.0147  0.3705
60311SOL    HW191247   6.319   4.044   9.638 -0.1864 -0.2634  1.9562
60311SOL    HW291248   6.295   4.191   9.666 -0.2913 -0.3163  2.1457
60312SOL     OW91249   6.183  10.780   7.931  0.2617  0.0722  0.0642
60312SOL    HW191250   6.107  10.747   7.978 -0.3857  1.1421 -0.1984
60312SOL    HW291251   6.222  10.703   7.890 -1.6122 -0.2830 -1.1370
60313SOL     OW91252   1.998  10.499   0.760 -0.4110  0.2775  0.4626
60313SOL    HW191253   1.989  10.405   0.778 -1.6629  0.5271  1.2572
60313SOL    HW291254   1.908  10.529   0.746 -0.0858  1.4803  0.8649
60314SOL     OW91255   5.130   5.722   3.587  0.0146  0.0744 -0.0090
60314SOL    HW191256   5.142   5.801   3.536 -1.1817  0.0562 -0.3564
60314SOL    HW291257   5.163   5.651   3.531  2.0455  0.3957  0.7121
60315SOL     OW91258   9.347   0.601   5.284  0.0334  0.2565 -0.0778
60315SOL    HW191259   9.362   0.677   5.340 -0.2258  0.9786 -0.9635
60315SOL    HW291260   9.417   0.606   5.219  1.5218 -1.6582  1.2549
60316SOL     OW91261   2.491  11.199   0.759  0.0414 -0.5278 -0.2054
60316SOL    HW191262   2.450  11.216   0.674 -1.1569 -0.2499  0.4084
60316SOL    HW291263   2.431  11.236   0.823  2.1724  1.6261  0.6887
60317SOL     OW91264   2.002   2.546  12.691 -0.0571  0.3220 -0.5608
60317SOL    HW191265   2.028   2.605  12.761 -1.3591 -1.3078  1.4047
60317SOL    HW291266   2.053   2.575  12.615  0.6149  2.8270  0.7409
60318SOL     OW91267  11.506   6.279  11.618  0.6687  0.4862  0.3223
60318SOL    HW191268  11.416   6.261  11.591  1.3156 -0.1709 -1.5107
60318SOL    HW291269  11.560   6.242  11.549  2.3972  0.2310  1.7384
60319SOL     OW91270   8.038   3.232   2.827  0.0392  0.0930 -0.2870
60319SOL    HW191271   7.999   3.202   2.910  2.3336 -2.1117  0.1150
60319SOL    HW291272   7.978   3.199   2.760  0.9987 -3.2668  0.3092
60320SOL     OW91273  10.099   0.754  12.458 -0.2286  0.8794  0.4924
60320SOL    HW191274  10.138   0.687  12.401  0.3617  1.1885  0.5282
60320SOL    HW291275  10.036   0.705  12.511 -1.4307  0.7246 -0.9983
60321SOL     OW91276   2.042  10.767   9.624 -0.7117 -0.2793 -0.0814
60321SOL    HW191277   2.082  10.681   9.635 -0.8135 -0.1149  1.9458
60321SOL    HW291278   1.951  10.749   9.602 -0.5899 -0.6893 -0.2510
60322SOL     OW91279   9.045   1.409  12.833 -0.1846 -0.2532 -0.2216
60322SOL    HW191280   9.042   1.386  12.926  0.7851  0.4820  0.0101
60322SOL    HW291281   9.110   1.479  12.828  0.3620 -0.8238 -1.5616
60323SOL     OW91282  11.400   9.780   9.310 -0.0994  0.3443  0.5172
60323SOL    HW191283  11.373   9.869   9.334  1.6003  0.4354  2.3633
60323SOL    HW291284  11.364   9.725   9.379 -1.8129 -0.5829 -1.0275
60324SOL     OW91285  10.852  11.896   3.134 -0.5172  0.0669 -0.2202
60324SOL    HW191286  10.906  11.948   3.075 -0.9388  1.2463  0.3946
60324SOL    HW291287  10.910  11.877   3.208 -0.1797 -0.8757 -0.7121
60325SOL     OW91288   0.585   6.925  11.044 -0.0964  0.3958 -0.1121
60325SOL    HW191289   0.543   6.890  11.123 -1.1568 -0.4966 -1.0348
60325SOL    HW291290   0.565   7.019  11.047  0.4478  0.4920  1.0052
60326SOL     OW91291   0.578   0.753   8.043  0.3824  0.1995 -0.6323
60326SOL    HW191292   0.522   0.696   8.094  2.0997 -0.6632  0.3907
60326SOL    HW291293   0.522   0.827   8.018 -0.5974  0.5937  2.3641
60327SOL     OW91294   3.455  11.315   7.900 -0.0356 -0.0541 -0.3575
60327SOL    HW191295   3.375  11.338   7.948  0.2180 -0.4597  0.2845
60327SOL    HW291296   3.455  11.219   7.899 -0.0636 -0.0470 -1.2332
60328SOL     OW91297   6.548   2.040   5.298  1.2286 -0.6890  0.0509
60328SOL    HW191298   6.580   1.963   5.346  0.2981 -1.5151 -0.6085
60328SOL    HW291299   6.543   2.011   5.207 -1.1004 -0.5475  0.0761
60329SOL     OW91300   3.240   7.098   2.206  0.1684 -0.0961 -0.3644
60329SOL    HW191301   3.161   7.138   2.169 -0.0893  1.0029  1.2698
60329SOL    HW291302   3.307   7.110   2.139 -0.4586  1.1726 -0.7889
60330SOL     OW91303   7.390   8.851  12.599  0.3481  0.2123 -0.3646
60330SOL    HW191304   7.296   8.867  12.607 -0.2341 -1.2146 -3.1297
60330SOL    HW291305   7.426   8.933  12.567 -0.4501 -0.0070 -1.9103
60331SOL     OW91306  10.164  12.985   0.474 -0.7330  0.1698 -0.1589
60331SOL    HW191307  10.218  13.007   0.398  1.4269  3.1097  1.9786
60331SOL    HW291308  10.216  12.920   0.522 -1.2001 -0.2745 -0.2514
60332SOL     OW91309   8.201   2.378  10.665 -0.0592  0.4728  0.0273
60332SOL    HW191310   8.207   2.474  10.664  0.6507  0.4321 -0.8273
60332SOL    HW291311   8.201   2.355  10.758  0.4223  1.2725  0.2389
60333SOL     OW91312   6.077  12.545   5.892  0.2463 -0.5936 -0.3973
60333SOL    HW191313   6.117  12.627   5.863  2.0323 -2.3173 -3.1694
60333SOL    HW291314   6.124  12.523   5.972 -0.0147  0.8322  0.1920
60334SOL     OW91315   5.724   9.222   4.203  0.0198 -0.3650  0.7469
60334SOL    HW191316   5.801   9.182   4.161 -0.5483 -0.1266 -0.5628
60334SOL    HW291317   5.692   9.285   4.139 -1.9982 -1.3161  0.7334
60335SOL     OW91318  10.886   4.808   9.734  0.4832 -0.5900 -0.3050
60335SOL    HW191319  10.964   4.753   9.744  1.9443  0.7907 -2.9866
60335SOL    HW291320  10.912   4.876   9.673 -2.5637  0.5625 -0.5105
60336SOL     OW91321   2.853   0.810   3.529 -0.1613 -0.6333  0.0637
60336SOL    HW191322   2.880   0.844   3.444 -2.1931 -0.4414 -0.5526
60336SOL    HW291323   2.920   0.746   3.552  0.6587 -0.3621 -1.4574
60337SOL     OW91324   7.779   7.202   6.781 -0.1883  0.8495 -0.0695
60337SOL    HW191325   7.764   7.277   6.839  0.9776  1.6383 -0.7340
60337SOL    HW291326   7.872   7.209   6.757 -0.3907 -0.0464 -1.1966
60338SOL     OW91327   6.191   5.270   3.346  0.2065 -0.0811  0.2733
60338SOL    HW191328   6.255   5.339   3.326 -0.2398  0.3518  0.3140
60338SOL    HW291329   6.192   5.214   3.269 -1.8071  1.8099 -1.2533
60339SOL     OW91330   3.268  12.792   1.120  0.4964 -0.2043 -0.3662
60339SOL    HW191331   3.224  12.816   1.039  1.3720 -2.3410 -1.5628
60339SOL    HW291332   3.268  12.872   1.172 -2.9204  0.4449 -1.1142
60340SOL     OW91333  10.293   4.792   5.263  0.4972  0.1772  0.2106
60340SOL    HW191334  10.320   4.861   5.324  1.5146  1.0785 -1.1998
60340SOL    HW291335  10.211   4.824   5.226 -0.0455 -0.3034  0.9712
60341SOL     OW91336   5.604  12.153   5.831 -0.1801  0.3905 -0.0362
60341SOL    HW191337   5.603  12.195   5.917 -0.1156 -1.0474  0.6835
60341SOL    HW291338   5.671  12.086   5.838  1.7271  1.9311 -2.0650
60342SOL     OW91339   4.849   9.565   3.138 -0.1571  0.4789 -0.5995
60342SOL    HW191340   4.793   9.560   3.060  0.3722  0.0759 -0.9568
60342SOL    HW291341   4.787   9.564   3.211 -0.6165 -0.3213 -0.9764
60343SOL     OW91342   9.871  11.819   5.145 -0.5622  0.1685  0.0006
60343SOL    HW191343   9.874  11.758   5.219 -0.7473  2.4751  2.0139
60343SOL    HW291344   9.857  11.762   5.069 -1.8718 -2.2262  1.8658
60344SOL     OW91345   9.668   6.449   2.829 -0.2901  0.8756  0.0488
60344SOL    HW191346   9.634   6.516   2.888 -2.3894  0.7501 -0.9601
60344SOL    HW291347   9.690   6.496   2.748 -0.2960  0.5781 -0.1288
60345SOL     OW91348   9.426  11.852  10.062 -0.4171 -0.2216 -0.0658
60345SOL    HW191349   9.417  11.861  10.157 -0.9929 -1.0810 -0.0315
60345SOL    HW291350   9.336  11.856  10.029 -0.2303 -0.0731 -0.5688
60346SOL     OW91351   1.455   2.075   6.131 -0.2802  0.1180  0.4713
60346SOL    HW191352   1.499   2.125   6.063  1.2091  0.2786  1.5101
60346SOL    HW291353   1.457   2.131   6.208 -2.7943  0.3347  0.4667
60347SOL     OW91354   4.357  11.464  11.686 -0.1085  0.3840  0.2907
60347SOL    HW191355   4.400  11.504  11.762 -1.9368  0.4602  1.3449
60347SOL    HW291356   4.316  11.538  11.640 -1.0337  0.0890  0.6103
60348SOL     OW91357  11.098   3.278   0.360 -0.3710  0.1148 -0.0843
60348SOL    HW191358  11.086   3.197   0.310  0.8634 -0.1050 -0.0357
60348SOL    HW291359  11.077   3.347   0.297  0.1224 -0.1924 -0.5959
60349SOL     OW91360   6.241   9.291   4.462 -0.1518 -0.0322  0.1146
60349SOL    HW191361   6.304   9.219   4.461 -1.1147 -0.9130 -0.9009
60349SOL    HW291362   6.282   9.359   4.516  0.4329 -1.6517  1.8041
60350SOL     OW91363  12.948   4.595   3.332  0.8916 -0.1412  0.5989
60350SOL    HW191364  12.912   4.616   3.419 -0.0779 -1.3253  0.5037
60350SOL    HW291365  12.878   4.619   3.271  1.8587  1.4336  0.0354
60351SOL     OW91366   4.838   3.577   6.005  0.6756 -0.1650 -0.2116
60351SOL    HW191367   4.909   3.513   5.996  2.1658  1.3734  0.0929
60351SOL    HW291368   4.818   3.603   5.915 -1.2089 -2.2759 -0.5089
60352SOL     OW91369  12.962   3.259  11.224 -0.3940  0.4954 -0.0057
60352SOL    HW191370  12.903   3.302  11.163 -0.9969 -0.9564 -0.4932
60352SOL    HW291371  12.915   3.180  11.252  0.6174  0.1926  0.9275
60353SOL     OW91372   0.293   0.024   5.795  0.1452  0.7529  0.1143
60353SOL    HW191373   0.254   0.052   5.878 -0.3162  0.2792  0.0610
60353SOL    HW291374   0.350  -0.049   5.818 -0.4649  0.2150 -0.0674
60354SOL     OW91375   7.526   0.358   4.145 -0.2019  0.2977  0.2666
60354SOL    HW191376   7.565   0.278   4.109 -1.0483 -0.5609  1.1883
60354SOL    HW291377   7.543   0.353   4.239 -0.4688  1.1014  0.3675
60355SOL     OW91378   3.581   2.492  12.829 -0.3516 -0.0933 -0.3992
60355SOL    HW191379   3.558   2.436  12.903 -0.5763 -0.7658 -0.9648
60355SOL    HW291380   3.667   2.527  12.851  0.2830 -1.5115 -0.4955
60356SOL     OW91381   8.678   1.498   8.720  0.4499  0.7472  0.3924
60356SOL    HW191382   8.648   1.440   8.790  0.3338 -0.1621 -0.3994
60356SOL    HW291383   8.765   1.525   8.747  1.7188 -2.0488 -0.5064
60357SOL     OW91384   9.451   1.523  11.481 -0.0172 -0.1609  0.4204
60357SOL    HW191385   9.498   1.596  11.441  0.3694  0.1285  1.3868
60357SOL    HW291386   9.410   1.477  11.407 -0.1446  0.9387 -0.2063
60358SOL     OW91387   1.501   7.226   2.437  0.1211  0.0210 -0.2242
60358SOL    HW191388   1.535   7.314   2.452 -0.6893  0.4123 -0.6626
60358SOL    HW291389   1.506   7.214   2.343 -0.6182 -0.0530 -0.2582
60359SOL     OW91390   1.283   7.068   6.245  0.3740  0.2619  0.0182
60359SOL    HW191391   1.370   7.028   6.243  0.4834  0.5077 -0.3789
60359SOL    HW291392   1.264   7.087   6.153  0.8286  2.1991  0.2777
60360SOL     OW91393   3.006   0.303   1.315  0.1061 -0.2087  0.6786
60360SOL    HW191394   3.024   0.333   1.226 -1.5528  0.6562  0.5921
60360SOL    HW291395   2.919   0.263   1.309  0.5767 -1.4304  1.6413
60361SOL     OW91396   4.765   6.493   9.042  1.0724 -0.3234  0.3892
60361SOL    HW191397   4.851   6.494   9.084  0.8733 -1.7932  0.9049
60361SOL    HW291398   4.703   6.497   9.115  0.6440  2.1491 -0.0300
60362SOL     OW91399   2.470   7.707   2.984 -0.0708 -0.3385  0.3090
60362SOL    HW191400   2.418   7.695   2.905 -0.4448  0.2436  0.4568
60362SOL    HW291401   2.508   7.621   3.001  0.6158 -0.2954 -0.9152
60363SOL     OW91402   3.227   4.389  12.310 -0.3166 -0.1924 -0.5623
60363SOL    HW191403   3.284   4.350  12.377 -1.2350 -0.0773  0.3275
60363SOL    HW291404   3.215   4.479  12.339 -0.6289 -0.1071 -0.9514
60364SOL     OW91405   8.013  10.000   1.090 -0.6149  0.3386  0.3021
60364SOL    HW191406   8.066   9.931   1.129  1.7050  1.7532 -0.1281
60364SOL    HW291407   7.923   9.978   1.113 -0.1221 -3.3035 -0.5747
60365SOL     OW91408   0.154   3.080   2.106  0.7271  0.2801  0.2274
60365SOL    HW191409   0.242   3.081   2.144  0.3281  0.3008  1.1525
60365SOL    HW291410   0.138   3.171   2.080  0.3230  0.6086  1.5855
60366SOL     OW91411   7.976  11.150   8.774  0.2810 -0.4119 -0.2118
60366SOL    HW191412   7.883  11.139   8.797 -0.0956  0.6619 -1.1267
60366SOL    HW291413   7.987  11.098   8.694 -0.2103  1.4806 -1.5756
60367SOL     OW91414   0.492   2.836   9.624  0.0308 -0.0994  0.1360
60367SOL    HW191415   0.448   2.827   9.708  0.7944  2.4268  0.9015
60367SOL    HW291416   0.476   2.753   9.579 -2.2054 -0.7276  1.9001
60368SOL     OW91417  10.717  10.755   9.076  0.1692  0.4130 -0.3085
60368SOL    HW191418  10.724  10.660   9.069 -1.2321  0.2264  0.4529
60368SOL    HW291419  10.753  10.787   8.993  0.0151 -0.8223 -0.8884
60369SOL     OW91420   4.041  12.864   1.553  0.4332 -0.1021  0.7617
60369SOL    HW191421   4.016  12.774   1.530 -1.6621  0.7653 -0.6085
60369SOL    HW291422   4.127  12.854   1.595  1.2018 -2.5304 -1.1154
60370SOL     OW91423   4.263   8.818  11.713  0.1176  0.1492  0.8780
60370SOL    HW191424   4.280   8.880  11.642  0.4461  0.2916  1.0823
60370SOL    HW291425   4.167   8.813  11.717  0.0791  1.0159  1.1764
60371SOL     OW91426   0.890   1.377   5.678  0.7425  0.0967  0.4035
60371SOL    HW191427   0.971   1.418   5.710  0.8444 -0.2663  0.6207
60371SOL    HW291428   0.845   1.348   5.757  0.9258 -0.6759  0.2295
60372SOL     OW91429   4.083   8.011   4.846 -0.0818 -0.1214 -0.1153
60372SOL    HW191430   4.086   8.103   4.820 -1.3190  0.3024  1.0882
60372SOL    HW291431   4.013   7.973   4.794 -0.7055  0.0568  0.5681
60373SOL     OW91432   3.427   5.401  12.258  0.2313 -0.1570 -0.0904
60373SOL    HW191433   3.404   5.368  12.345 -0.3967  0.3233 -0.0627
60373SOL    HW291434   3.407   5.495  12.262  2.5861  0.4054  0.0592
60374SOL     OW91435   1.521   0.095   3.090 -0.2982 -0.6005 -0.1619
60374SOL    HW191436   1.599   0.149   3.092 -0.1322 -0.8535  0.7660
60374SOL    HW291437   1.549   0.010   3.123 -0.5340 -1.3052 -1.6954
60375SOL     OW91438   0.622   7.872   3.709  0.1254 -0.2618  0.1242
60375SOL    HW191439   0.621   7.916   3.794 -0.3436 -0.7092  0.3496
60375SOL    HW291440   0.629   7.779   3.730 -4.4054 -0.8631 -0.1099
60376SOL     OW91441   3.887   5.865  12.584 -0.3253  0.0825  0.0559
60376SOL    HW191442   3.944   5.886  12.511 -0.0868 -0.3083  0.1299
60376SOL    HW291443   3.934   5.798  12.634 -0.5220  0.2784  0.5175
60377SOL     OW91444   2.953   0.525   2.402  0.2225  0.1637 -0.4263
60377SOL    HW191445   2.979   0.452   2.458 -3.0609 -1.8516 -1.2762
60377SOL    HW291446   3.017   0.524   2.330  0.3763 -1.7887 -0.3141
60378SOL     OW91447   3.807   9.772   5.260  0.0676 -0.0563 -0.2787
60378SOL    HW191448   3.801   9.682   5.226 -1.6498 -0.4660  0.9530
60378SOL    HW291449   3.716   9.804   5.259  0.0760  0.3583  2.5553
60379SOL     OW91450   8.183   7.694   1.920 -0.3256  0.2228  0.1915
60379SOL    HW191451   8.187   7.736   1.834 -1.8885  0.9415  0.4256
60379SOL    HW291452   8.209   7.603   1.904 -0.9335  0.2548 -1.1105
60380SOL     OW91453   4.240   9.381   1.129 -0.0036 -0.1049  0.0986
60380SOL    HW191454   4.331   9.355   1.138 -0.2944 -1.3480 -0.3041
60380SOL    HW291455   4.233   9.413   1.039 -0.4669 -2.3411 -0.7219
60381SOL     OW91456   7.637   7.522   7.748 -0.7082 -0.5156 -0.7277
60381SOL    HW191457   7.569   7.579   7.713 -0.8100 -0.2154 -0.0571
60381SOL    HW291458   7.662   7.562   7.831  1.3496  0.2173 -1.6176
60382SOL     OW91459   1.150   6.368   4.229  0.2470 -0.0139  0.3584
60382SOL    HW191460   1.189   6.408   4.150 -0.4139  0.6545  0.3585
60382SOL    HW291461   1.202   6.289   4.244 -0.7555 -1.1718 -1.8049
60383SOL     OW91462   9.877   1.855   9.800 -0.3633 -0.6072 -0.2299
60383SOL    HW191463   9.898   1.904   9.721 -1.3953 -1.7064 -1.2262
60383SOL    HW291464   9.928   1.898   9.869  0.4420  0.4709 -1.4454
60384SOL     OW91465   5.343  10.340   1.492  0.5536  0.8982 -0.3087
60384SOL    HW191466   5.344  10.325   1.398  1.0855  0.6047 -0.2600
60384SOL    HW291467   5.281  10.411   1.504  1.2052  1.6060 -0.9836
60385SOL     OW91468  12.512   5.118   5.419  0.1873 -0.1578  0.1771
60385SOL    HW191469  12.588   5.119   5.359 -0.4140 -1.4407 -0.6423
60385SOL    HW291470  12.531   5.049   5.481  0.2064  0.3018  0.6907
60386SOL     OW91471   3.187   1.155   0.697  0.7080  0.1530 -0.2314
60386SOL    HW191472   3.112   1.177   0.642  1.6589 -0.4980 -1.8621
60386SOL    HW291473   3.188   1.059   0.698  1.5157  0.1543 -0.2467
60387SOL     OW91474   6.093   2.942   2.888 -0.0793 -0.0448 -0.1092
60387SOL    HW191475   6.157   2.960   2.956 -1.1064 -0.5979  1.0289
60387SOL    HW291476   6.080   3.027   2.845  1.5701  0.0256 -0.5392
60388SOL     OW91477   1.097  10.584   0.579 -0.1159  0.0935 -0.0123
60388SOL    HW191478   1.156  10.624   0.516 -1.7581  2.2380 -0.2936
60388SOL    HW291479   1.098  10.491   0.557  0.9685  0.4884 -1.8208
60389SOL     OW91480  10.102   0.407   7.356  0.4091 -0.1721 -0.0678
60389SOL    HW191481  10.139   0.454   7.431  2.1044 -1.4236 -0.0624
60389SOL    HW291482  10.171   0.346   7.329 -0.5158 -0.4304 -2.0569
60390SOL     OW91483  11.545  11.768   3.508  0.2903 -0.4003  0.0903
60390SOL    HW191484  11.461  11.812   3.516 -0.4595 -1.7603  0.0257
60390SOL    HW291485  11.564  11.737   3.596  0.6467 -0.2480  0.0695
60391SOL     OW91486   9.729  11.502  11.273  0.1305 -0.3746  0.1253
60391SOL    HW191487   9.705  11.412  11.250  1.6333 -0.6839 -0.3691
60391SOL    HW291488   9.819  11.495  11.305  1.0128  1.1703 -1.8158
60392SOL     OW91489   9.092   0.223  10.296 -0.5622  0.0885 -0.2374
60392SOL    HW191490   9.026   0.212  10.228 -0.4799  0.3331 -0.3578
60392SOL    HW291491   9.175   0.203  10.253 -0.7830 -3.1142  0.6167
60393SOL     OW91492   2.091   4.791   4.192  0.1028  0.0414 -0.0646
60393SOL    HW191493   2.110   4.815   4.102  0.3239 -0.2550 -0.1012
60393SOL    HW291494   2.115   4.868   4.244 -1.1482  0.6489 -0.3657
60394SOL     OW91495   2.287   5.815   4.744 -0.5007 -0.2620  0.0637
60394SOL    HW191496   2.363   5.779   4.699  0.9196  0.7486  1.5253
60394SOL    HW291497   2.212   5.770   4.705  0.6372  0.1250 -2.8270
60395SOL     OW91498  12.559   7.511  11.447 -0.1167 -0.0836  0.7498
60395SOL    HW191499  12.510   7.431  11.466 -0.8671  0.4862  1.2508
60395SOL    HW291500  12.495   7.581  11.456 -0.3194  0.3836 -2.7842
60396SOL     OW91501   6.465  11.302  10.484 -0.4144  0.2054 -0.5641
60396SOL    HW191502   6.437  11.282  10.394 -3.1931 -0.3901  0.3110
60396SOL    HW291503   6.393  11.269  10.538  1.6135 -0.3162  1.9798
60397SOL     OW91504  12.622   9.090   1.212  0.0236  0.2157  0.0307
60397SOL    HW191505  12.645   9.021   1.274  2.9015  1.1654  0.2021
60397SOL    HW291506  12.529   9.107   1.227 -0.2634 -2.1445  1.4150
60398SOL     OW91507   0.301   0.542   0.854  0.1555  0.2905 -0.0749
60398SOL    HW191508   0.240   0.534   0.927  0.1498 -0.4030 -0.1495
60398SOL    HW291509   0.367   0.605   0.884 -0.2897  0.6267  0.2131
60399SOL     OW91510   4.716   1.093   9.531  0.4216 -0.3227  0.0494
60399SOL    HW191511   4.687   1.088   9.621 -0.6880  0.2889 -0.2584
60399SOL    HW291512   4.705   1.185   9.507  0.1192 -0.5951 -0.9004
60400SOL     OW91513  11.894  10.442   4.633 -0.2331  0.4176 -0.6992
60400SOL    HW191514  11.957  10.504   4.671  0.9803 -1.6000  0.8262
60400SOL    HW291515  11.809  10.481   4.649  0.4739  1.5883  0.4186
60401SOL     OW91516   8.706   4.767   3.535  0.2591  0.6580 -0.2195
60401SOL    HW191517   8.785   4.788   3.484  0.7222  0.4665  0.3974
60401SOL    HW291518   8.633   4.795   3.480  0.7456  0.4311 -0.9949
60402SOL     OW91519  11.437   5.972   4.934 -0.5091  0.0602  0.0341
60402SOL    HW191520  11.385   5.900   4.970  0.6107 -0.0551  1.5179
60402SOL    HW291521  11.514   5.929   4.895 -0.8772  0.3234 -1.0362
60403SOL     OW91522   2.431   7.499  11.757 -0.4088 -0.2247  0.5940
60403SOL    HW191523   2.395   7.447  11.829 -1.2888  0.8163  0.9253
60403SOL    HW291524   2.362   7.499  11.690  1.5773 -3.9917 -1.8240
60404SOL     OW91525   9.344   0.149   3.882  0.0274 -0.1054 -0.5959
60404SOL    HW191526   9.280   0.121   3.949  1.8794 -1.1343  0.8414
60404SOL    HW291527   9.321   0.240   3.864 -0.8019  0.0827  1.1512
60405SOL     OW91528   8.931   7.382   4.546  0.0918  0.8714 -0.3069
60405SOL    HW191529   8.918   7.475   4.530 -0.0314  1.1098  1.0430
60405SOL    HW291530   9.024   7.373   4.566  0.0463  0.7512 -0.1494
60406SOL     OW91531   5.873  11.352   8.143  0.3380  0.8450 -0.0861
60406SOL    HW191532   5.827  11.433   8.165 -0.2262  0.8142 -1.0886
60406SOL    HW291533   5.854  11.338   8.050  0.0801 -0.6535  0.1615
60407SOL     OW91534   6.158  12.040   9.830 -0.6079  0.0066 -0.5157
60407SOL    HW191535   6.195  12.003   9.749 -1.3293 -0.9496 -0.4215
60407SOL    HW291536   6.230  12.037   9.892 -0.4799 -0.7203 -0.6809
60408SOL     OW91537  12.605   4.159   3.663 -0.2943  0.1334 -0.1593
60408SOL    HW191538  12.575   4.173   3.574  0.0821  1.6803 -0.0708
60408SOL    HW291539  12.684   4.214   3.671 -1.8253  2.2204  1.9008
60409SOL     OW91540   4.755   7.501   3.398  0.0137  0.4591 -0.8277
60409SOL    HW191541   4.839   7.523   3.357  0.0227  0.6021 -0.7330
60409SOL    HW291542   4.777   7.482   3.489 -0.0719  0.6087 -0.7752
60410SOL     OW91543   2.250   5.450   5.167 -0.2546  0.6905  0.0936
60410SOL    HW191544   2.259   5.452   5.071  0.6742  1.5939  0.1858
60410SOL    HW291545   2.182   5.516   5.185  1.0177  2.0373  0.1735
60411SOL     OW91546  10.055  11.539   7.856 -0.4281  0.5262 -0.1183
60411SOL    HW191547   9.988  11.492   7.808 -0.9296  0.3577  0.7243
60411SOL    HW291548  10.123  11.558   7.791 -1.2860  0.7065 -0.9744
60412SOL     OW91549   0.630  11.840   8.309 -0.0011  0.2784 -0.8264
60412SOL    HW191550   0.582  11.907   8.358  1.2565  0.6574 -0.0623
60412SOL    HW291551   0.626  11.762   8.365  1.5317  0.7431 -0.0042
60413SOL     OW91552   4.309   3.893   9.073  0.0852  0.0187 -0.3756
60413SOL    HW191553   4.273   3.903   8.985  0.4019 -1.0810 -0.6412
60413SOL    HW291554   4.402   3.877   9.060 -0.0767 -1.5073  0.0458
60414SOL     OW91555  10.193   8.454  11.641 -0.0254  0.4111 -0.2231
60414SOL    HW191556  10.173   8.536  11.687 -0.8833  0.3550 -0.4826
60414SOL    HW291557  10.233   8.482  11.559 -0.7670  0.5965 -0.5293
60415SOL     OW91558   8.248   9.773   7.071 -0.3779  0.6861  0.2375
60415SOL    HW191559   8.305   9.728   7.008  1.0223  1.1770  1.1073
60415SOL    HW291560   8.161   9.767   7.032  0.4210  0.9714 -1.7669
60416SOL     OW91561   4.461   3.569   5.288 -0.0331 -0.1715 -0.0564
60416SOL    HW191562   4.457   3.657   5.252 -0.0307 -0.3305 -0.4475
60416SOL    HW291563   4.394   3.520   5.240 -0.2441 -0.3080  0.3683
60417SOL     OW91564   5.862   4.137  12.073 -0.2155 -0.1380 -0.5003
60417SOL    HW191565   5.924   4.081  12.119 -0.6342 -0.6483 -0.5442
60417SOL    HW291566   5.834   4.201  12.138  2.1678  1.6460 -1.1100
60418SOL     OW91567   5.246  11.847   7.417 -0.0456  0.6751 -0.5178
60418SOL    HW191568   5.161  11.883   7.392 -0.1921  0.6214 -0.1032
60418SOL    HW291569   5.262  11.884   7.504 -0.4648 -0.7097  0.1750
60419SOL     OW91570   7.944   7.384   4.484 -0.0561 -0.3677 -0.2147
60419SOL    HW191571   7.905   7.308   4.528  0.6550 -0.2842  0.5946
60419SOL    HW291572   8.032   7.391   4.521 -0.4965  1.5349  0.6146
60420SOL     OW91573   6.789   2.275   7.737 -0.1276  0.9447  0.2903
60420SOL    HW191574   6.852   2.207   7.712 -0.5698  0.3516  0.7308
60420SOL    HW291575   6.726   2.228   7.792 -1.9286  1.1145 -1.5263
60421SOL     OW91576   8.557   0.687   5.072  0.2143 -0.3170 -0.3300
60421SOL    HW191577   8.489   0.703   5.007  0.6794  0.9076 -0.5502
60421SOL    HW291578   8.511   0.688   5.156 -0.5539 -2.9059 -0.6431
60422SOL     OW91579   9.944   2.125   0.248 -0.0219  0.3313  0.4960
60422SOL    HW191580   9.917   2.061   0.313 -0.0331  0.0537  0.2176
60422SOL    HW291581  10.012   2.177   0.293 -0.5882  0.6534  0.9946
60423SOL     OW91582  10.525   8.377   4.130 -0.6211 -0.0782 -0.0158
60423SOL    HW191583  10.512   8.394   4.036 -1.0114 -0.9065 -0.1222
60423SOL    HW291584  10.437   8.370   4.166 -0.4861 -0.7820  0.2082
60424SOL     OW91585   9.193   9.654  10.200 -0.0869 -0.0435  0.0893
60424SOL    HW191586   9.143   9.735  10.204 -0.6791 -0.3338 -0.9456
60424SOL    HW291587   9.172   9.617  10.114  0.8807 -0.8384  0.1697
60425SOL     OW91588   8.353   9.418   0.843 -0.0671 -0.2241 -0.4276
60425SOL    HW191589   8.257   9.419   0.841 -0.1556  1.4661  1.5074
60425SOL    HW291590   8.375   9.330   0.875 -0.7231 -1.9156 -4.0694
60426SOL     OW91591  12.354  11.585   9.348  0.3038  0.4509  0.7361
60426SOL    HW191592  12.361  11.547   9.261 -1.8102  0.4296  0.5349
60426SOL    HW291593  12.294  11.528   9.395  1.1430  0.6556  2.1309
60427SOL     OW91594  11.555  10.014   6.663  0.5287  0.1686  0.3031
60427SOL    HW191595  11.629  10.074   6.667  0.1394  0.6289  0.8021
60427SOL    HW291596  11.586   9.934   6.707  0.9977  0.0560 -0.2303
60428SOL     OW91597  10.875   2.661   7.627  0.0696  0.2690 -0.3101
60428SOL    HW191598  10.902   2.733   7.569 -0.7407  0.4658 -0.4541
60428SOL    HW291599  10.894   2.582   7.576 -1.3272  0.4558 -1.1896
60429SOL     OW91600   7.898  10.668   2.099  0.0175 -0.3621  0.4777
60429SOL    HW191601   7.866  10.683   2.187  1.6976 -1.7182  1.3891
60429SOL    HW291602   7.956  10.743   2.081  0.7500 -0.7706  1.0936
60430SOL     OW91603   0.450   7.639   6.695  0.2223 -0.1438  0.0897
60430SOL    HW191604   0.466   7.648   6.789 -0.5135 -1.9723  0.4442
60430SOL    HW291605   0.364   7.681   6.682 -0.0540 -0.6038  0.3975
60431SOL     OW91606   0.123   0.513   3.798 -0.4851  0.1136 -0.1608
60431SOL    HW191607   0.142   0.535   3.889  0.4749  0.2191 -0.3800
60431SOL    HW291608   0.209   0.510   3.755 -0.9200 -0.0019 -1.0473
60432SOL     OW91609  12.139   3.803   7.388  0.3238  0.0714  0.1808
60432SOL    HW191610  12.165   3.814   7.479 -0.7778 -1.9777  0.8215
60432SOL    HW291611  12.191   3.729   7.357 -2.3016 -2.0935  0.5622
60433SOL     OW91612   5.714   4.650   6.839  0.1144 -0.3632 -0.5337
60433SOL    HW191613   5.719   4.742   6.813  0.8931 -0.3854 -0.5035
60433SOL    HW291614   5.621   4.634   6.855  0.0359  0.5842  0.0575
60434SOL     OW91615   9.112   5.239   7.089  0.1768 -0.5534  0.7921
60434SOL    HW191616   9.039   5.254   7.029 -0.5642  1.4223  2.1115
60434SOL    HW291617   9.081   5.169   7.147  0.1697 -1.1558  0.0796
60435SOL     OW91618   0.902  11.209   9.053  0.3900 -0.7497 -0.6729
60435SOL    HW191619   0.966  11.274   9.081 -0.2523 -0.6748  0.6925
60435SOL    HW291620   0.928  11.128   9.097 -2.4153  0.0679  2.9767
60436SOL     OW91621   5.356   3.507   7.792 -0.3238 -0.6448  0.4404
60436SOL    HW191622   5.323   3.453   7.721  0.6765 -1.2728  0.4372
60436SOL    HW291623   5.394   3.445   7.854 -0.0547 -0.0160  0.9162
60437SOL     OW91624  11.709   8.451   4.495  0.0711 -0.4685  0.3713
60437SOL    HW191625  11.749   8.518   4.551  1.4334 -1.7203  0.9351
60437SOL    HW291626  11.771   8.439   4.424 -0.0878 -1.2505  0.3542
60438SOL     OW91627  11.766   4.421   4.168  0.6683  0.5513  0.6081
60438SOL    HW191628  11.861   4.437   4.165  0.5522  1.1281 -0.7833
60438SOL    HW291629  11.742   4.402   4.077 -0.7332  1.5397  0.7474
60439SOL     OW91630   1.642  10.535   3.663 -0.2893 -0.1848  0.3536
60439SOL    HW191631   1.562  10.521   3.612 -0.6897 -1.2369  1.2448
60439SOL    HW291632   1.713  10.527   3.599 -0.8791  0.5655 -0.4060
60440SOL     OW91633  12.642   2.898  12.336 -0.2629  0.5607 -0.8108
60440SOL    HW191634  12.603   2.887  12.249  1.5782 -0.2830 -1.5747
60440SOL    HW291635  12.721   2.949  12.321 -0.2528  0.9650  0.4846
60441SOL     OW91636   1.937   3.595   7.359 -0.7396  0.6493  0.6950
60441SOL    HW191637   1.931   3.628   7.269  2.6513 -1.3108 -0.3956
60441SOL    HW291638   1.901   3.507   7.355  0.9573 -0.0799  0.8143
60442SOL     OW91639  10.936   1.014   5.638  0.0422  0.9255 -0.3803
60442SOL    HW191640  10.999   0.998   5.708 -1.0264  0.5663  0.5152
60442SOL    HW291641  10.869   0.946   5.650 -0.1142  0.7969 -1.8025
60443SOL     OW91642   4.017   9.235   5.710 -0.1127  0.2342  0.5558
60443SOL    HW191643   4.107   9.247   5.677 -0.5810  0.4288 -0.7246
60443SOL    HW291644   4.022   9.258   5.803  0.6536  2.9177 -0.0408
60444SOL     OW91645   3.106   5.501  12.267  0.3628  0.2428  0.2554
60444SOL    HW191646   3.138   5.588  12.291 -1.1481  1.4195 -1.7057
60444SOL    HW291647   3.150   5.482  12.184 -1.3337  0.3643 -0.7001
60445SOL     OW91648   7.720   0.655   8.983  0.5252  0.0515  0.2661
60445SOL    HW191649   7.675   0.714   9.043  1.6619  0.9694  0.2565
60445SOL    HW291650   7.800   0.630   9.030  1.9474  1.5849 -1.1963
60446SOL     OW91651   8.018   2.422   5.819  0.2146 -0.1145 -0.1817
60446SOL    HW191652   8.062   2.409   5.904 -1.5787 -0.0103  0.8082
60446SOL    HW291653   7.933   2.380   5.830 -0.2213  0.2944 -1.8090
60447SOL     OW91654  11.850   1.344   8.890 -0.2970  0.1486  0.4202
60447SOL    HW191655  11.889   1.292   8.959 -1.2783 -1.1627  0.0279
60447SOL    HW291656  11.833   1.429   8.930  0.6724 -0.0469  1.2789
60448SOL     OW91657   6.912   8.196   5.775 -0.3535  0.1964  0.0110
60448SOL    HW191658   6.914   8.253   5.698 -0.5213  0.3598  0.1282
60448SOL    HW291659   6.844   8.233   5.831 -1.1534 -0.6872 -0.3548
60449SOL     OW91660   2.297  11.815  11.138 -1.0797  1.0204 -0.0332
60449SOL    HW191661   2.248  11.897  11.148 -1.8760  0.8792 -2.1922
60449SOL    HW291662   2.381  11.843  11.100 -0.3758  1.0159  1.4277
60450SOL     OW91663   7.598  12.041  10.293 -0.2069  0.1390 -0.1450
60450SOL    HW191664   7.514  12.001  10.319 -0.7010  0.4964 -1.1251
60450SOL    HW291665   7.585  12.135  10.306 -0.6997  0.4009 -2.1586
60451SOL     OW91666   9.720  10.673   4.828  0.4973 -0.4094 -0.2799
60451SOL    HW191667   9.645  10.732   4.822 -1.2432 -2.3532  0.8102
60451SOL    HW291668   9.741  10.651   4.738 -2.0763 -1.8712 -0.6383
60452SOL     OW91669  10.548   1.294   3.628 -0.2616  0.3509  0.1035
60452SOL    HW191670  10.639   1.325   3.629 -0.2802  0.4071  0.0163
60452SOL    HW291671  10.533   1.262   3.717  0.8573 -2.5407 -0.6410
60453SOL     OW91672  10.458   2.248   6.910 -0.0171  0.3192  0.3118
60453SOL    HW191673  10.451   2.343   6.917 -0.1031  0.4795 -1.3486
60453SOL    HW291674  10.462   2.232   6.815 -2.3836 -1.4896  0.4305
60454SOL     OW91675   3.829   4.061   5.020  0.1520  0.2065 -0.1502
60454SOL    HW191676   3.902   4.068   5.081  1.8864 -0.8876 -1.9970
60454SOL    HW291677   3.806   3.968   5.019  0.1276  0.2129 -1.1326
60455SOL     OW91678  12.869   3.279   7.729 -0.1910 -0.2706 -0.0814
60455SOL    HW191679  12.820   3.211   7.775 -1.1774  0.7366  0.3963
60455SOL    HW291680  12.803   3.344   7.704  0.9254  1.4406  1.1293
60456SOL     OW91681  12.769   1.761   0.043  0.2835 -0.2023  0.1681
60456SOL    HW191682  12.764   1.851   0.076 -2.5428  0.1497 -0.9392
60456SOL    HW291683  12.788   1.771  -0.051  1.0297 -0.8421  0.2424
60457SOL     OW91684  12.785   9.955   1.711  0.0613  0.4559  0.3396
60457SOL    HW191685  12.707   9.924   1.666 -0.4775  1.8097  0.2993
60457SOL    HW291686  12.836   9.876   1.729 -1.3349 -0.4456  0.4127
60458SOL     OW91687   7.194   0.377   0.550 -0.1154  0.3440  0.0836
60458SOL    HW191688   7.170   0.290   0.582 -1.3135  0.8719  0.6882
60458SOL    HW291689   7.219   0.426   0.629  1.4154  0.3193 -0.3439
60459SOL     OW91690   2.133   6.470   9.730 -0.0285 -0.2840 -0.4141
60459SOL    HW191691   2.105   6.480   9.821 -0.9123 -1.7485 -0.4955
60459SOL    HW291692   2.082   6.534   9.681 -1.4326 -1.1871 -0.1942
60460SOL     OW91693   5.194  12.763   0.683  0.3956 -0.4975  0.3756
60460SOL    HW191694   5.247  12.782   0.760  1.7852  1.5688 -0.9940
60460SOL    HW291695   5.241  12.693   0.638 -0.7880 -2.2133  1.6592
60461SOL     OW91696   7.249   0.591   1.689 -0.0940 -0.2479  0.3677
60461SOL    HW191697   7.195   0.512   1.687 -0.2261 -0.1723  0.8948
60461SOL    HW291698   7.333   0.563   1.652 -0.1694 -0.6120  0.4637
60462SOL     OW91699   6.003   6.262   6.068  0.7534 -0.0440  0.0211
60462SOL    HW191700   6.066   6.333   6.078  0.3218  0.1575  1.5374
60462SOL    HW291701   6.043   6.203   6.004  1.2907  1.3470 -0.9882
60463SOL     OW91702   6.230  10.996   4.291 -0.3262 -0.2251  0.0162
60463SOL    HW191703   6.181  11.016   4.370  0.9910 -0.7700  0.9981
60463SOL    HW291704   6.216  10.903   4.277 -0.1366 -0.2382 -0.0960
60464SOL     OW91705  11.772   4.136   1.223  0.6054 -0.1747  0.3954
60464SOL    HW191706  11.757   4.109   1.132  1.3888 -0.9006  0.4591
60464SOL    HW291707  11.720   4.215   1.234  0.7917  0.1321 -0.8019
60465SOL     OW91708   2.449   5.540   4.144 -0.1278 -0.4139 -0.1149
60465SOL    HW191709   2.530   5.588   4.162  0.3893 -1.0822 -0.5586
60465SOL    HW291710   2.478   5.449   4.134 -0.4392 -0.2777 -3.3948
60466SOL     OW91711  12.625   2.324   6.700  0.1792 -0.2371 -0.4002
60466SOL    HW191712  12.540   2.287   6.675 -0.0873  0.1852 -0.1123
60466SOL    HW291713  12.650   2.379   6.625 -0.0598  0.0780 -0.2487
60467SOL     OW91714   5.669   3.650   0.555 -0.2747 -0.3672 -0.3975
60467SOL    HW191715   5.665   3.691   0.641  0.2293  0.0732 -0.5743
60467SOL    HW291716   5.589   3.677   0.511 -0.2816 -0.1505 -0.2527
60468SOL     OW91717   9.598  11.769   1.217 -0.4198 -0.1288 -0.2469
60468SOL    HW191718   9.619  11.850   1.170 -1.8333  0.8538  0.7504
60468SOL    HW291719   9.642  11.700   1.166  1.8969  1.3549 -0.4184
60469SOL     OW91720   6.613   2.230   2.610  0.7359  0.2829  0.0131
60469SOL    HW191721   6.582   2.298   2.551 -0.7948 -1.5208 -1.4218
60469SOL    HW291722   6.631   2.275   2.692  0.7167  2.5280 -1.1286
60470SOL     OW91723   8.262  12.417  12.941  0.1836  0.5736  0.1744
60470SOL    HW191724   8.177  12.460  12.936  0.7437  1.5922 -1.4496
60470SOL    HW291725   8.245  12.327  12.916 -0.5766  0.5069  0.9057
60471SOL     OW91726   3.581   3.575   1.826  0.0455  0.0565 -0.1839
60471SOL    HW191727   3.654   3.517   1.845 -0.6573 -0.7921 -0.0238
60471SOL    HW291728   3.528   3.573   1.906 -1.1661 -0.8727 -0.9848
60472SOL     OW91729  12.322   0.456   9.572  0.4597 -0.0016  0.0817
60472SOL    HW191730  12.319   0.377   9.518  0.9449 -0.1192  0.2195
60472SOL    HW291731  12.329   0.424   9.662  1.6692  0.1845  0.0728
60473SOL     OW91732   6.579   9.272   4.619  0.2450  0.2964 -0.0346
60473SOL    HW191733   6.614   9.266   4.708 -0.4741 -0.7437  0.1984
60473SOL    HW291734   6.523   9.349   4.619 -0.1300  0.0247  0.5512
60474SOL     OW91735   3.693  10.771   8.073 -0.0685  0.0514  0.0368
60474SOL    HW191736   3.635  10.786   7.998  1.2989  0.6982 -0.9476
60474SOL    HW291737   3.737  10.855   8.087 -0.2069 -0.0974  1.5023
60475SOL     OW91738   1.953  11.227   1.030 -0.1162 -0.3142 -0.1513
60475SOL    HW191739   2.015  11.244   0.959 -0.1467 -1.4371 -0.4565
60475SOL    HW291740   1.868  11.217   0.987 -0.0698 -1.3932 -0.0176
60476SOL     OW91741   4.489   0.649   4.807 -0.0911 -0.1234 -0.0592
60476SOL    HW191742   4.507   0.632   4.715 -1.2027 -0.3008 -0.2651
60476SOL    HW291743   4.548   0.720   4.831  0.9622 -0.7915 -0.6072
60477SOL     OW91744   3.280   9.295   6.630 -0.1474  0.0497  0.1211
60477SOL    HW191745   3.286   9.359   6.700 -0.1571  0.1685  0.0144
60477SOL    HW291746   3.256   9.213   6.674 -0.3804  0.1726  0.2291
60478SOL     OW91747  11.878   8.506   1.299 -0.2981 -0.1213 -0.1445
60478SOL    HW191748  11.783   8.500   1.305 -0.2633  0.5450  1.9102
60478SOL    HW291749  11.895   8.524   1.206 -2.3059  1.5761 -0.2662
60479SOL     OW91750   2.624   6.366   9.526  0.0556  0.6731  0.0729
60479SOL    HW191751   2.560   6.431   9.498 -0.1906  0.3811 -0.0484
60479SOL    HW291752   2.708   6.412   9.523  0.1395  0.4926 -1.7916
60480SOL     OW91753   5.100  12.967   4.308 -0.4522 -0.2484  0.5741
60480SOL    HW191754   5.191  12.993   4.323  0.4369 -1.6515 -1.9474
60480SOL    HW291755   5.103  12.909   4.232 -3.2040 -2.0832  1.7078
60481SOL     OW91756  12.277  10.716   9.757  0.0989  0.1687 -0.1352
60481SOL    HW191757  12.208  10.780   9.778  0.6542  1.3122 -1.6194
60481SOL    HW291758  12.325  10.756   9.685  1.7458 -1.0327  0.2419
60482SOL     OW91759   9.029   5.766   3.071  0.3247 -0.2238  0.0487
60482SOL    HW191760   9.065   5.678   3.068 -1.4033 -1.0314  1.1795
60482SOL    HW291761   8.949   5.761   3.019 -0.1793  0.4712  0.7294
60483SOL     OW91762   3.599   6.866   6.104 -0.0150  0.2428 -0.6519
60483SOL    HW191763   3.674   6.926   6.103  0.1914  0.1805  1.9569
60483SOL    HW291764   3.628   6.791   6.051  0.6902  1.3577 -1.8955
60484SOL     OW91765   2.405   4.350  10.451  0.1482  0.0588  0.1299
60484SOL    HW191766   2.475   4.358  10.386 -0.5962 -1.4184 -0.9196
60484SOL    HW291767   2.383   4.257  10.451 -1.2679  0.3570  1.0188
60485SOL     OW91768   9.914  10.680   9.309 -0.5230 -0.5281  0.7496
60485SOL    HW191769   9.929  10.611   9.245  0.8844  1.1834 -0.8712
60485SOL    HW291770   9.820  10.694   9.309 -0.4961 -0.0036 -1.6193
60486SOL     OW91771   3.057   6.639   4.347 -0.0522 -0.1807  0.0177
60486SOL    HW191772   3.135   6.591   4.374 -1.2523 -1.1239  2.0575
60486SOL    HW291773   3.023   6.591   4.272  1.0431 -0.0275 -0.5952
60487SOL     OW91774   8.708  12.708  12.407 -0.2750 -0.0570  0.0075
60487SOL    HW191775   8.680  12.798  12.394 -0.4078  0.1114  1.3574
60487SOL    HW291776   8.644  12.656  12.358  1.2191  0.6405 -2.9123
60488SOL     OW91777   0.121   5.328  10.382  0.4865 -0.3231  0.5901
60488SOL    HW191778   0.216   5.328  10.370  0.2912 -0.4332 -1.1749
60488SOL    HW291779   0.092   5.244  10.347 -0.4879  0.7152 -1.2091
60489SOL     OW91780   7.964  11.890   8.014  0.4370  0.1126  0.4696
60489SOL    HW191781   8.051  11.919   7.988  0.4310  1.2160  1.5636
60489SOL    HW291782   7.956  11.917   8.106 -2.1363  2.7230 -0.3888
60490SOL     OW91783   6.959   4.201   5.682  0.0114 -0.0856 -0.3382
60490SOL    HW191784   6.874   4.177   5.720  0.0487 -2.0648 -1.3599
60490SOL    HW291785   6.997   4.262   5.744 -2.3578  1.2278 -0.0715
60491SOL     OW91786   1.732   3.281   1.104  0.5469  0.0673  0.0867
60491SOL    HW191787   1.774   3.359   1.140 -0.0623  0.1545  0.6256
60491SOL    HW291788   1.720   3.223   1.179  0.4063 -0.2785 -0.1965
60492SOL     OW91789  11.895  12.157   7.217 -0.2504  0.2201 -0.0100
60492SOL    HW191790  11.902  12.062   7.224 -0.9092 -0.1546 -3.0456
60492SOL    HW291791  11.807  12.177   7.250 -0.1434 -0.2279  0.5579
60493SOL     OW91792   9.763  12.493   1.272 -0.1258 -0.1100  0.7356
60493SOL    HW191793   9.760  12.397   1.264  1.0496 -0.1395  0.4482
60493SOL    HW291794   9.672  12.520   1.261 -0.4254 -1.1697  0.4030
60494SOL     OW91795   1.353   1.669   5.366 -0.2032  0.0068  0.1878
60494SOL    HW191796   1.318   1.604   5.306 -0.6812  1.2042 -0.8687
60494SOL    HW291797   1.437   1.695   5.327  0.8195 -1.1768  1.4965
60495SOL     OW91798  12.718   5.947   4.421  0.6225  0.0131 -0.3131
60495SOL    HW191799  12.736   5.906   4.337 -0.2357 -0.7682 -0.1321
60495SOL    HW291800  12.626   5.927   4.439  0.6003  0.7380  0.4987
60496SOL     OW91801   7.691   3.696   2.556 -0.0786  0.1248  0.2218
60496SOL    HW191802   7.656   3.608   2.538 -1.0193  0.6951 -0.8075
60496SOL    HW291803   7.630   3.756   2.514  2.1020  1.1964 -1.6494
60497SOL     OW91804  12.920   0.143   1.771 -0.0023 -0.1749  0.6735
60497SOL    HW191805  13.002   0.097   1.790  1.1092  0.8363 -1.4276
60497SOL    HW291806  12.924   0.222   1.824  0.6213  0.1074  0.2135
60498SOL     OW91807  10.346   8.383   7.504 -0.0075  0.1173  0.0043
60498SOL    HW191808  10.433   8.391   7.465  0.3840 -0.6858  0.6893
60498SOL    HW291809  10.357   8.411   7.595 -0.3570 -0.4427  0.2271
60499SOL     OW91810   5.593   0.696   5.544 -0.1268 -0.1117  0.8237
60499SOL    HW191811   5.596   0.617   5.598  1.4444  1.0479  2.5499
60499SOL    HW291812   5.612   0.665   5.455  1.7389 -1.5624  1.6585
60500SOL     OW91813   3.620  12.836   4.816  0.0864 -0.0341  0.5057
60500SOL    HW191814   3.716  12.840   4.819  0.3381 -0.9724 -2.3265
60500SOL    HW291815   3.600  12.744   4.834 -0.1653 -0.0687  0.0676
60501SOL     OW91816   9.016  10.068   7.426  0.0971 -0.1956 -0.8521
60501SOL    HW191817   9.079  10.101   7.362  0.0819  2.8097  0.5135
60501SOL    HW291818   8.934  10.112   7.404 -0.4505 -0.7899 -0.0492
60502SOL     OW91819   4.465   2.823   2.329  0.1491  0.0719  0.0579
60502SOL    HW191820   4.539   2.840   2.388  0.2134  0.4839 -0.1387
60502SOL    HW291821   4.414   2.904   2.331  0.0109 -0.0074 -0.2520
60503SOL     OW91822   2.526   3.257  12.334 -0.2037  0.0719  0.2683
60503SOL    HW191823   2.553   3.263  12.425  1.1526  0.2054 -0.1178
60503SOL    HW291824   2.506   3.347  12.309  2.8325  0.6588 -0.4999
60504SOL     OW91825   4.540   5.064   6.045 -0.0799 -0.2199  0.4084
60504SOL    HW191826   4.507   5.106   6.124 -1.5423  1.7899 -1.1514
60504SOL    HW291827   4.515   4.972   6.055 -0.4279  0.0244  2.1628
60505SOL     OW91828  10.075   3.453   1.246 -0.3705  0.3272 -0.7848
60505SOL    HW191829  10.067   3.403   1.327  0.6672 -0.1055 -0.9418
60505SOL    HW291830  10.148   3.413   1.200 -0.5101  1.0124 -1.6284
60506SOL     OW91831   2.480   9.586   2.449 -0.5576 -0.1331  0.3249
60506SOL    HW191832   2.394   9.547   2.467  0.5130 -2.2674  1.2371
60506SOL    HW291833   2.542   9.528   2.493  1.4453  0.8030 -1.0969
60507SOL     OW91834   7.564   0.162   3.831 -0.4724 -0.1570  0.3402
60507SOL    HW191835   7.603   0.221   3.767 -1.7030  0.4317  0.1081
60507SOL    HW291836   7.474   0.152   3.802 -0.8268 -0.5231  1.5326
60508SOL     OW91837   4.365  12.171   9.872  0.0119 -0.4150  0.5057
60508SOL    HW191838   4.450  12.131   9.891  0.9444  1.0995 -0.2506
60508SOL    HW291839   4.321  12.175   9.956  0.2336 -2.1681  0.7493
60509SOL     OW91840   1.805   9.765  11.835  0.0455 -0.4006 -0.4233
60509SOL    HW191841   1.710   9.773  11.836 -0.1268 -2.0829 -0.9275
60509SOL    HW291842   1.835   9.828  11.900 -1.4180  0.0480 -0.1576
60510SOL     OW91843  10.643   4.524   9.567  0.0518  0.2367  0.0677
60510SOL    HW191844  10.650   4.618   9.549 -0.9963 -0.0694 -2.3307
60510SOL    HW291845  10.685   4.482   9.492 -0.3888 -1.2401  0.6130
60511SOL     OW91846   5.281  11.193  10.429 -0.4977 -0.6022  0.0652
60511SOL    HW191847   5.289  11.279  10.470 -0.3725  0.0829 -1.3243
60511SOL    HW291848   5.357  11.187  10.371 -1.0247 -1.2277 -0.5874
60512SOL     OW91849   6.031   5.658   9.701  0.6307 -0.2439  0.5698
60512SOL    HW191850   5.937   5.646   9.689  0.4830  0.8009  0.5995
60512SOL    HW291851   6.059   5.579   9.747 -0.2281 -0.5718  0.5581
60513SOL     OW91852  12.353   2.219  10.711  0.0660  0.6946 -0.3146
60513SOL    HW191853  12.307   2.284  10.764 -1.7269  0.0497 -1.0203
60513SOL    HW291854  12.288   2.189  10.647  1.7370  0.4363 -2.0031
60514SOL     OW91855   0.831   4.784   7.069  0.1970 -0.2226  0.0473
60514SOL    HW191856   0.794   4.736   6.994  0.3094  0.5581 -0.5142
60514SOL    HW291857   0.865   4.715   7.126  0.6452 -0.8077 -0.9021
60515SOL     OW91858   1.747   0.950  10.727  0.1782  0.4825 -0.3056
60515SOL    HW191859   1.669   0.928  10.777  0.2281  0.0003 -0.4349
60515SOL    HW291860   1.714   0.986  10.645  0.0959  1.1541  0.0193
60516SOL     OW91861  10.983   7.717   9.285  0.0955 -0.0676 -0.0506
60516SOL    HW191862  11.025   7.802   9.290 -0.2340  0.3225 -2.6989
60516SOL    HW291863  10.898   7.730   9.327  0.9055  0.2733  1.5380
60517SOL     OW91864   6.210   6.058   6.372 -0.0224 -0.7099  0.1958
60517SOL    HW191865   6.156   5.993   6.417 -1.1375  0.5060  0.6618
60517SOL    HW291866   6.190   6.046   6.279 -0.0987 -1.1160  0.2604
60518SOL     OW91867   5.359   8.682   6.233 -0.3397  0.3251  0.5988
60518SOL    HW191868   5.304   8.659   6.158  2.4512 -0.9558 -1.1989
60518SOL    HW291869   5.367   8.777   6.228  0.6051  0.1824 -1.3996
60519SOL     OW91870  11.332  11.550   3.716  0.1972 -0.0961 -0.7427
60519SOL    HW191871  11.288  11.469   3.741  0.6449 -0.4577 -1.1121
60519SOL    HW291872  11.288  11.618   3.768  0.4737 -0.7005  0.3240
60520SOL     OW91873   5.780  11.684   9.771 -0.1303 -0.4206  0.4445
60520SOL    HW191874   5.723  11.744   9.723 -0.2115  0.6511  1.8130
60520SOL    HW291875   5.731  11.601   9.773 -1.0347  0.1001  0.4238
60521SOL     OW91876  12.069  10.875   9.880  0.2938 -0.0110  0.7195
60521SOL    HW191877  12.015  10.948   9.910 -0.2334 -0.1250  0.0685
60521SOL    HW291878  12.015  10.798   9.894 -0.1003 -0.0417 -0.7760
60522SOL     OW91879   4.439   9.804   8.455  0.8617  0.2868 -0.4231
60522SOL    HW191880   4.393   9.787   8.373 -0.1536 -2.1001  0.5382
60522SOL    HW291881   4.377   9.852   8.508 -0.5229 -2.4886  0.6825
60523SOL     OW91882   1.142   1.484   5.801 -0.3855 -0.0832  0.2910
60523SOL    HW191883   1.142   1.569   5.845  0.0292 -1.6720  3.7475
60523SOL    HW291884   1.216   1.488   5.740  0.5930  1.5400  1.5111
60524SOL     OW91885   1.139  11.063  10.206 -0.2904 -0.3934  0.2505
60524SOL    HW191886   1.085  11.141  10.191 -0.0589 -0.1810  0.5213
60524SOL    HW291887   1.125  11.041  10.298 -1.3741 -1.4438 -0.1322
60525SOL     OW91888   5.208  11.320   9.637 -0.0739  0.2538  0.3662
60525SOL    HW191889   5.252  11.364   9.710 -1.7740  0.6888  1.1694
60525SOL    HW291890   5.174  11.391   9.583  0.1693 -0.0821 -0.2432
60526SOL     OW91891   5.746  11.789   2.793 -0.3344 -0.6918 -0.4506
60526SOL    HW191892   5.794  11.765   2.872  0.6144 -0.2587 -0.8778
60526SOL    HW291893   5.803  11.762   2.721 -1.1276 -0.9678 -0.9981
60527SOL     OW91894   5.507   2.423  12.759  0.6549  0.1205  0.0044
60527SOL    HW191895   5.574   2.422  12.827  1.3029 -0.3065 -0.6290
60527SOL    HW291896   5.442   2.359  12.788  0.8977 -0.0120  0.2546
60528SOL     OW91897  11.760  11.902  11.665  0.3295 -0.6273  0.6024
60528SOL    HW191898  11.738  11.851  11.743  1.5199 -0.0997  1.3124
60528SOL    HW291899  11.807  11.978  11.699  1.8505 -0.9465 -0.6858
60529SOL     OW91900   2.093   1.417   4.906  0.3045 -0.1214 -0.0214
60529SOL    HW191901   2.069   1.424   4.814  1.2901 -2.4500 -0.5433
60529SOL    HW291902   2.188   1.426   4.907  0.4361 -1.2902  0.5595
60530SOL     OW91903   0.795  12.442   4.942 -0.0335 -0.0636  0.6613
60530SOL    HW191904   0.746  12.486   5.011 -1.3693 -1.2911  0.5443
60530SOL    HW291905   0.728  12.397   4.890  1.0804 -0.4173 -0.5259
60531SOL     OW91906   6.450   0.013   4.530  0.2806 -0.8299  0.1964
60531SOL    HW191907   6.515  -0.038   4.579  1.1144 -1.5541 -1.5594
60531SOL    HW291908   6.502   0.066   4.470 -0.6694  0.7766  0.7428
60532SOL     OW91909   2.670  10.300  12.893  0.0773  0.2907 -0.3480
60532SOL    HW191910   2.594  10.269  12.843  0.8683  0.5580 -1.7760
60532SOL    HW291911   2.657  10.263  12.980 -1.4510 -0.0565 -0.6788
60533SOL     OW91912   1.196  10.715  10.406  0.2551 -0.5672 -0.2899
60533SOL    HW191913   1.103  10.718  10.380 -0.2856  1.2891  1.5977
60533SOL    HW291914   1.244  10.716  10.323 -1.3962 -0.4042 -1.2855
60534SOL     OW91915   2.149   5.590  11.201 -0.2696 -0.1263  0.5473
60534SOL    HW191916   2.236   5.627  11.185 -0.3813 -0.4889 -1.0091
60534SOL    HW291917   2.166   5.511  11.251  0.0743  1.1903  2.6417
60535SOL     OW91918  11.861  11.604   2.625 -0.1143  0.0202  0.2063
60535SOL    HW191919  11.816  11.564   2.551  0.5303  1.1253 -0.8100
60535SOL    HW291920  11.863  11.535   2.692 -2.4299 -0.3559 -0.0539
60536SOL     OW91921  12.572   4.209  11.397  0.7585  0.7139  0.2211
60536SOL    HW191922  12.659   4.238  11.370  1.9428 -2.0492  0.7503
60536SOL    HW291923  12.586   4.121  11.432 -2.1212  0.5607  1.2332
60537SOL     OW91924   3.596  12.704   0.784  0.4962  0.0649  0.0108
60537SOL    HW191925   3.564  12.636   0.843  0.6020  0.3886  0.4475
60537SOL    HW291926   3.651  12.658   0.722 -0.8630 -0.5168 -0.8013
60538SOL     OW91927   2.636   2.314   4.911  0.1061  0.1891  0.2715
60538SOL    HW191928   2.597   2.285   4.993  0.6246 -0.7181  0.2032
60538SOL    HW291929   2.681   2.237   4.877 -2.1159 -0.2186 -2.0929
60539SOL     OW91930   3.816   3.055   8.661  0.1436  0.4181 -0.2750
60539SOL    HW191931   3.912   3.063   8.657  0.2193 -0.5085 -0.3349
60539SOL    HW291932   3.786   3.096   8.580  0.5269  0.1437 -0.5625
60540SOL     OW91933   8.945   6.166   6.100 -0.2664  0.6144 -0.3023
60540SOL    HW191934   8.974   6.075   6.109 -0.1827  0.6694  0.0027
60540SOL    HW291935   8.976   6.192   6.013  0.7281  0.7081  0.0655
60541SOL     OW91936   5.535  10.710  11.812  0.0638 -0.0771 -0.2349
60541SOL    HW191937   5.489  10.786  11.776  0.3442  0.4214  0.4419
60541SOL    HW291938   5.626  10.724  11.788  0.1429 -0.1084  0.0480
60542SOL     OW91939   2.045   2.045   9.919  0.8720 -0.1827  0.0073
60542SOL    HW191940   2.022   2.086  10.002  0.0222 -0.5716 -0.0250
60542SOL    HW291941   2.038   2.116   9.854 -1.0231 -0.4302 -0.1192
60543SOL     OW91942   8.486   9.596  10.683 -0.1465  0.6886  0.3820
60543SOL    HW191943   8.455   9.541  10.755 -0.7100  1.8728  1.0806
60543SOL    HW291944   8.579   9.607  10.701 -0.2025  0.6497  0.7074
60544SOL     OW91945  12.199   2.589   0.833  0.0808 -0.4744 -0.5499
60544SOL    HW191946  12.142   2.661   0.858  0.0612  0.1669 -2.2677
60544SOL    HW291947  12.265   2.585   0.902 -2.2159 -1.5391  1.7332
60545SOL     OW91948   8.539  11.640   4.065  0.4318 -0.4498 -0.0421
60545SOL    HW191949   8.620  11.622   4.018  0.4501 -0.8213  0.1291
60545SOL    HW291950   8.541  11.582   4.141  0.0822 -0.3469  0.0500
60546SOL     OW91951   8.416   9.948  10.937  0.3788  0.2807  0.3966
60546SOL    HW191952   8.379   9.910  10.857 -0.2345  0.4879  0.5707
60546SOL    HW291953   8.498   9.989  10.910 -0.4083  1.4102 -0.3687
60547SOL     OW91954  11.324  10.702  10.697 -0.4342  0.3210 -0.0214
60547SOL    HW191955  11.340  10.787  10.656  1.3348  0.4270  0.8231
60547SOL    HW291956  11.230  10.704  10.718 -0.6145  1.6919 -0.8034
60548SOL     OW91957   1.470   9.928   3.445 -0.2520  0.2988  0.3823
60548SOL    HW191958   1.406   9.964   3.507 -1.2156 -0.9437  0.1433
60548SOL    HW291959   1.437   9.955   3.359 -0.9442 -1.0175  0.2046
60549SOL     OW91960   1.744   8.341   8.765  1.0505 -0.2964 -0.4608
60549SOL    HW191961   1.829   8.317   8.800  0.9427  1.5272  1.2323
60549SOL    HW291962   1.759   8.423   8.719 -0.0246  1.0451  1.4314
60550SOL     OW91963   3.890   4.513  11.730  0.0995 -0.3673 -0.5245
60550SOL    HW191964   3.861   4.494  11.641 -1.9062  2.2209 -0.5671
60550SOL    HW291965   3.851   4.444  11.783 -2.3206  0.3535 -1.2183
60551SOL     OW91966   7.304   9.370   9.171 -0.8064 -0.7181  0.0820
60551SOL    HW191967   7.222   9.321   9.174 -1.0430 -0.2952  0.8277
60551SOL    HW291968   7.305   9.419   9.253 -1.2940  1.6479 -1.2420
60552SOL     OW91969   9.142   7.254   2.516 -0.2960 -0.4794  0.1258
60552SOL    HW191970   9.049   7.235   2.503 -0.2021 -0.3246 -0.7777
60552SOL    HW291971   9.172   7.287   2.432  1.1816 -2.9390 -0.4057
60553SOL     OW91972  11.608   1.734  10.584  0.3691 -0.4295  0.1513
60553SOL    HW191973  11.676   1.796  10.558  0.3362  0.0336  1.0963
60553SOL    HW291974  11.598   1.676  10.509  1.5338 -0.2777 -0.1445
60554SOL     OW91975   7.180   7.342   5.747 -0.3562  0.3796  0.3960
60554SOL    HW191976   7.206   7.424   5.706  0.6093 -0.2508 -0.2960
60554SOL    HW291977   7.213   7.349   5.837  2.0708 -0.2742 -0.3685
60555SOL     OW91978   0.448   5.986  10.458  0.0459  0.7510  0.4398
60555SOL    HW191979   0.506   5.914  10.434 -0.8624 -0.4806  1.7218
60555SOL    HW291980   0.405   6.012  10.377  0.0550 -0.4846  0.0301
60556SOL     OW91981   2.874   6.031   5.330 -0.0478 -0.1034  0.5407
60556SOL    HW191982   2.872   5.955   5.388  0.4248 -0.8776 -0.4314
60556SOL    HW291983   2.956   6.075   5.349 -0.7009  0.6624  1.6987
60557SOL     OW91984   0.952  10.036   6.768  0.5101  0.2758  0.0974
60557SOL    HW191985   0.897  10.007   6.840 -0.5027 -0.0534 -0.7858
60557SOL    HW291986   0.954   9.961   6.707  1.2017  0.6033 -0.3029
60558SOL     OW91987  10.937   4.457  12.898  0.3344 -0.3628  0.0096
60558SOL    HW191988  10.847   4.480  12.878  0.9066  2.2008 -0.0012
60558SOL    HW291989  10.935   4.426  12.989 -0.3361  1.5517  0.6947
60559SOL     OW91990   1.773   2.767  11.792 -0.0569  0.5004 -0.7703
60559SOL    HW191991   1.843   2.793  11.851  0.1144 -1.1559 -0.1795
60559SOL    HW291992   1.815   2.708  11.729 -1.1563 -2.0226  0.6904
60560SOL     OW91993  12.368  10.504   0.404 -0.3781  0.3966  0.6823
60560SOL    HW191994  12.275  10.484   0.395 -0.2153 -0.2046  0.3093
60560SOL    HW291995  12.406  10.480   0.320  0.5648 -1.9410  1.6879
60561SOL     OW91996   7.294  12.664  11.705  0.3942  0.0353  0.3346
60561SOL    HW191997   7.290  12.754  11.674 -0.6408 -0.2759 -0.5177
60561SOL    HW291998   7.203  12.641  11.723  0.6195 -0.9124  0.3278
60562SOL     OW91999   9.471   1.086   2.184 -0.2860 -0.1232  0.3070
60562SOL    HW192000   9.549   1.088   2.129 -0.6864  0.1454 -0.2744
60562SOL    HW292001   9.398   1.088   2.121 -0.7540  0.5143  0.8483
60563SOL     OW92002   2.968   5.494   8.840  0.6331 -0.2469  0.3990
60563SOL    HW192003   3.027   5.475   8.912 -0.3470 -2.3440  0.7129
60563SOL    HW292004   2.996   5.435   8.769  1.9043  2.1103 -1.2072
60564SOL     OW92005   7.357   8.499   9.711  0.2198  0.0274 -0.4131
60564SOL    HW192006   7.426   8.524   9.650  0.6315  0.1908  0.1125
60564SOL    HW292007   7.319   8.582   9.739 -0.5378 -0.0799 -1.0862
60565SOL     OW92008   0.206   0.598   6.085  0.0922  0.5398  0.2536
60565SOL    HW192009   0.287   0.648   6.096  0.4773 -0.1472  0.6488
60565SOL    HW292010   0.202   0.542   6.163 -0.7028  0.4733  0.1771
60566SOL     OW92011  12.862   3.650  12.619 -1.2206  0.7425  0.0893
60566SOL    HW192012  12.863   3.730  12.672  0.9834  0.7448  0.1412
60566SOL    HW292013  12.945   3.607  12.639 -0.7793  0.1972 -2.5028
60567SOL     OW92014   0.399   6.062   0.482  0.3568  0.3484  0.1544
60567SOL    HW192015   0.482   6.013   0.483  0.6357  0.7040 -1.7267
60567SOL    HW292016   0.345   6.018   0.548  1.6916 -0.4921  0.7517
60568SOL     OW92017   7.326  10.067   2.349  0.2536  0.2794 -0.1959
60568SOL    HW192018   7.336  10.052   2.443 -0.9029 -0.2969 -0.1513
60568SOL    HW292019   7.413  10.051   2.312  0.7928  0.8224  0.8092
60569SOL     OW92020  12.803  12.584   0.274 -0.4919  0.0171  0.2991
60569SOL    HW192021  12.828  12.673   0.249 -0.9786  0.1204  0.1834
60569SOL    HW292022  12.887  12.540   0.292 -0.2158  0.3455 -0.1549
60570SOL     OW92023   2.926   4.553   7.434 -0.3008 -0.1154 -0.6087
60570SOL    HW192024   2.874   4.574   7.511  2.5489 -0.7866  1.6506
60570SOL    HW292025   2.967   4.636   7.409  0.5829 -0.3209  0.0962
60571SOL     OW92026   6.259  12.644   3.343 -0.2104  0.5759  0.6218
60571SOL    HW192027   6.279  12.667   3.434  0.6031  2.6271 -0.0176
60571SOL    HW292028   6.337  12.669   3.294 -0.5102 -0.8017 -0.6250
60572SOL     OW92029   9.857  10.494   8.241 -0.2872  0.5425 -0.1368
60572SOL    HW192030   9.946  10.527   8.252  0.0427 -0.3721  0.0083
60572SOL    HW292031   9.816  10.505   8.327 -0.2614  0.7989 -0.1560
60573SOL     OW92032   3.188   2.340   2.681 -0.6271 -0.7062  0.2356
60573SOL    HW192033   3.180   2.324   2.775  0.6122  1.2812  0.7415
60573SOL    HW292034   3.124   2.281   2.640  0.1756 -3.0522  2.1557
60574SOL     OW92035  11.342   9.254   0.035  0.2368  0.5596 -0.0605
60574SOL    HW192036  11.436   9.256   0.018  0.5338  0.2713  1.3768
60574SOL    HW292037  11.336   9.248   0.130 -1.2365  0.0957 -0.1635
60575SOL     OW92038   7.412   9.101  12.421 -0.5858 -0.2041  0.1832
60575SOL    HW192039   7.457   9.180  12.391 -0.9790  0.5263  1.4409
60575SOL    HW292040   7.361   9.130  12.496 -0.4638 -1.7326  0.8922
60576SOL     OW92041   8.202   6.550   4.700  0.3012 -0.8107  0.0408
60576SOL    HW192042   8.288   6.508   4.699  0.8832  0.3155 -1.5898
60576SOL    HW292043   8.219   6.638   4.733 -0.1857 -0.5406 -0.4059
60577SOL     OW92044   5.807  12.147   0.168 -0.5672  0.2087  0.1227
60577SOL    HW192045   5.734  12.168   0.109 -1.5118 -1.6010  0.5587
60577SOL    HW292046   5.883  12.190   0.129 -0.9134 -1.7160 -3.0781
60578SOL     OW92047   4.142   5.542   4.511  0.0111 -0.2898  0.6497
60578SOL    HW192048   4.237   5.536   4.504 -0.0475 -0.4558 -0.1703
60578SOL    HW292049   4.124   5.636   4.511 -0.0468 -0.0880 -3.7472
60579SOL     OW92050   9.614  11.727   6.851 -0.1839  0.1913 -0.1089
60579SOL    HW192051   9.705  11.756   6.841 -0.3079  0.8780  0.6820
60579SOL    HW292052   9.590  11.695   6.764  0.8199 -0.0331 -0.3221
60580SOL     OW92053  10.244   4.230   0.696 -0.7525  0.2314  0.6350
60580SOL    HW192054  10.220   4.319   0.722 -0.3271  0.1803  1.2226
60580SOL    HW292055  10.338   4.234   0.678 -0.9187  0.1255 -0.3424
60581SOL     OW92056   6.091   5.206   4.768  0.1727  0.6687  0.3248
60581SOL    HW192057   6.068   5.218   4.860  0.6674 -0.4220  0.6052
60581SOL    HW292058   6.097   5.111   4.756 -0.9222  0.7414 -1.0978
60582SOL     OW92059   5.479   6.421  10.592  0.3095  0.9217 -0.0796
60582SOL    HW192060   5.510   6.511  10.587 -0.0726  1.0192 -0.8626
60582SOL    HW292061   5.516   6.378  10.515 -1.9853  1.2279 -1.4707
60583SOL     OW92062   7.372   2.845   7.314 -0.0298 -0.2343  0.2187
60583SOL    HW192063   7.390   2.839   7.220 -2.5130 -0.4309 -0.2908
60583SOL    HW292064   7.447   2.894   7.349  1.5236 -1.1474 -1.6428
60584SOL     OW92065   8.875  10.970   5.833 -0.9099 -0.4346 -0.0662
60584SOL    HW192066   8.850  10.898   5.891  1.6344 -2.0884 -0.8579
60584SOL    HW292067   8.887  10.929   5.748  0.6144  0.9107 -0.5480
60585SOL     OW92068   3.094   6.892   0.826  0.3398  0.3035  0.4583
60585SOL    HW192069   3.016   6.882   0.772  0.1772 -0.4520  0.8181
60585SOL    HW292070   3.136   6.806   0.824  1.1707  0.7071  0.2614
60586SOL     OW92071   9.258   8.664   4.226  0.3554  0.3879  0.3439
60586SOL    HW192072   9.223   8.614   4.299 -2.9827  0.3288 -1.1123
60586SOL    HW292073   9.347   8.687   4.253  0.4322 -2.3396  2.9983
60587SOL     OW92074   7.116   1.400  12.909 -0.2594 -0.0603  0.3999
60587SOL    HW192075   7.025   1.383  12.885 -0.3600 -0.1471  0.8239
60587SOL    HW292076   7.143   1.321  12.956  0.0726 -0.0828  0.1761
60588SOL     OW92077   3.661   2.831  12.566  0.6217 -0.2747 -0.0816
60588SOL    HW192078   3.588   2.794  12.617 -0.1611  0.5189 -0.6024
60588SOL    HW292079   3.707   2.755  12.532 -0.6176 -0.8039 -0.6557
60589SOL     OW92080   2.453   5.659   4.964 -0.3100  0.4076  0.5847
60589SOL    HW192081   2.402   5.615   4.896 -1.2558  2.4636 -0.1163
60589SOL    HW292082   2.388   5.694   5.024  0.3211  1.7818  0.5002
60590SOL     OW92083   9.232   9.257   8.487  0.5533  0.2341 -0.1130
60590SOL    HW192084   9.308   9.285   8.538  0.7426  1.8358 -1.1876
60590SOL    HW292085   9.183   9.337   8.471  0.8014 -0.0464 -2.8866
60591SOL     OW92086   1.089   0.274  12.025  0.4182 -0.8637  0.1264
60591SOL    HW192087   1.131   0.252  11.941  0.5456 -0.1912  0.0074
60591SOL    HW292088   1.001   0.302  12.001 -0.5962 -3.4288  0.4676
60592SOL     OW92089  11.899   3.074   8.088 -0.7184  0.5574  0.4762
60592SOL    HW192090  11.808   3.079   8.059 -1.6054 -0.2554  2.9427
60592SOL    HW292091  11.901   3.121   8.171  0.9870 -0.0489  0.8139
60593SOL     OW92092   3.159   3.312  10.842  0.1502 -0.0209  0.4282
60593SOL    HW192093   3.199   3.226  10.832  0.8633  0.3556 -0.0486
60593SOL    HW292094   3.092   3.316  10.774 -0.7866 -0.6917  1.2904
60594SOL     OW92095  10.864   6.381   8.835  0.4973 -0.1414 -0.2802
60594SOL    HW192096  10.890   6.428   8.914  1.0665  0.8285 -1.0191
60594SOL    HW292097  10.770   6.365   8.846  0.5115  0.2385  0.4526
60595SOL     OW92098   0.107   4.946   7.876  0.2367  0.2909 -0.0686
60595SOL    HW192099   0.193   4.987   7.879 -0.5088  1.8809  1.6931
60595SOL    HW292100   0.094   4.912   7.965  0.2754 -2.7701 -1.0920
60596SOL     OW92101  11.219   0.969   3.115  0.4066 -0.3313  0.0783
60596SOL    HW192102  11.229   1.062   3.135 -0.2160 -0.4962  1.2310
60596SOL    HW292103  11.291   0.950   3.056  1.6567  0.4633  1.2763
60597SOL     OW92104   4.743   6.783  10.419 -0.1233  0.0862 -0.1406
60597SOL    HW192105   4.778   6.754  10.335  2.4441 -2.8793  1.7206
60597SOL    HW292106   4.713   6.702  10.461 -1.7977  1.5455  1.6479
60598SOL     OW92107  12.908   5.024   9.137 -0.1363  0.1319 -0.8282
60598SOL    HW192108  12.939   5.114   9.145 -0.1519  0.1757 -1.2505
60598SOL    HW292109  12.838   5.017   9.202 -1.0573  0.8294 -1.7167
60599SOL     OW92110   0.143  12.796   8.718 -0.1310  0.2618 -0.0002
60599SOL    HW192111   0.224  12.746   8.710  1.4777  2.8153 -0.8939
60599SOL    HW292112   0.138  12.818   8.811  0.3443  0.2415  0.0356
60600SOL     OW92113   5.341  10.364   0.937 -0.0101 -0.3672 -0.0053
60600SOL    HW192114   5.330  10.400   0.849  0.3439 -1.8230 -0.6745
60600SOL    HW292115   5.376  10.437   0.988  0.7632  0.2313 -1.3189
60601SOL     OW92116  12.643   7.891  10.596  0.2113  0.5681  0.4339
60601SOL    HW192117  12.596   7.811  10.618  0.6397  0.2762  0.3173
60601SOL    HW292118  12.735   7.864  10.593  0.2025  0.5923 -1.6249
60602SOL     OW92119  10.127   7.660   9.914  0.2994 -0.1503 -0.1680
60602SOL    HW192120  10.103   7.573   9.944 -1.4968  0.0692 -0.8272
60602SOL    HW292121  10.130   7.652   9.818  0.8242  0.3467 -0.1991
60603SOL     OW92122   6.503   0.837   6.001  0.0889  0.4663  0.4060
60603SOL    HW192123   6.444   0.791   6.060  0.6614 -1.2631 -0.2998
60603SOL    HW292124   6.449   0.860   5.926  0.0603 -0.1841  0.2201
60604SOL     OW92125   5.457   7.461   8.578  0.2446 -0.4358 -0.3182
60604SOL    HW192126   5.432   7.407   8.653  0.2507  0.8782  0.6694
60604SOL    HW292127   5.529   7.414   8.537  1.1792 -0.5250  1.3356
60605SOL     OW92128  10.465  10.977  10.137 -0.5834  0.3574 -0.0471
60605SOL    HW192129  10.392  11.008  10.190 -0.3701  0.0517  0.4275
60605SOL    HW292130  10.533  11.044  10.148 -0.6747  0.4830 -0.2360
60606SOL     OW92131  12.977   3.287   3.793 -0.2541 -0.1825 -0.8590
60606SOL    HW192132  13.023   3.355   3.843 -2.5784  0.5248  0.4475
60606SOL    HW292133  12.977   3.319   3.703  1.9623 -0.3499 -0.9846
60607SOL     OW92134  10.940  12.306   5.833 -0.0831  0.2682  0.1764
60607SOL    HW192135  10.866  12.262   5.875 -0.7242  1.4736  0.3434
60607SOL    HW292136  10.985  12.236   5.786 -0.7617 -0.6624  0.8628
60608SOL     OW92137  11.229   0.753   4.043  0.2294  0.4214 -0.0590
60608SOL    HW192138  11.148   0.794   4.073 -0.5808  0.0713 -1.6737
60608SOL    HW292139  11.208   0.660   4.037  1.2002  0.1194  0.8376
60609SOL     OW92140   1.070   7.373   4.246  0.5404 -0.0926 -0.7174
60609SOL    HW192141   1.063   7.374   4.150 -1.0022 -1.7716 -0.6923
60609SOL    HW292142   1.163   7.384   4.264  0.8381  0.3853 -2.4071
60610SOL     OW92143   7.025   2.440   5.216  0.0516 -0.5110 -0.1662
60610SOL    HW192144   7.118   2.464   5.218 -0.1208  0.1645  0.0921
60610SOL    HW292145   6.995   2.456   5.305 -0.6337  0.6316 -0.5760
60611SOL     OW92146   6.038  12.151   8.206  0.0913 -0.1927 -0.0685
60611SOL    HW192147   6.014  12.158   8.298 -0.3613  1.6758 -0.2926
60611SOL    HW292148   6.008  12.064   8.180  0.1461 -0.7204  1.5001
60612SOL     OW92149   9.335   5.793   5.274 -0.3225  0.2947  0.6442
60612SOL    HW192150   9.321   5.862   5.339  2.1128  0.4438  1.1193
60612SOL    HW292151   9.336   5.712   5.324 -0.3022  0.2116  0.5105
60613SOL     OW92152  11.979  12.015  11.072  0.0043 -0.0236  0.2470
60613SOL    HW192153  11.959  11.948  11.137 -0.2677 -0.1317  0.0523
60613SOL    HW292154  11.899  12.068  11.066 -0.2027 -0.4075 -0.4739
60614SOL     OW92155   9.883   5.886   9.627 -0.1185  1.0254 -0.1856
60614SOL    HW192156   9.958   5.851   9.675 -1.5535  1.9439  2.9683
60614SOL    HW292157   9.916   5.965   9.585  0.8211  1.1344  0.7177
60615SOL     OW92158  11.806   9.473  12.614 -0.1835  0.1117  0.2351
60615SOL    HW192159  11.860   9.439  12.543 -0.6951  0.9088 -0.5572
60615SOL    HW292160  11.725   9.500  12.572 -0.8495 -0.2363  1.2725
60616SOL     OW92161   4.078  12.732  11.125  0.0230 -0.4603 -0.3469
60616SOL    HW192162   4.091  12.693  11.211 -2.4767  0.5866  0.5993
60616SOL    HW292163   4.156  12.785  11.110  1.0723 -1.6534  0.6559
60617SOL     OW92164   7.735  12.401  11.117  0.4705  0.2981 -0.2683
60617SOL    HW192165   7.687  12.369  11.041  2.9247  0.7928 -2.1614
60617SOL    HW292166   7.717  12.336  11.185 -3.1306  0.7013 -0.6477
60618SOL     OW92167   0.292   5.412   8.979 -0.5746 -0.1353  0.5160
60618SOL    HW192168   0.245   5.486   9.019 -0.3282 -0.3343  1.1964
60618SOL    HW292169   0.335   5.369   9.053  1.2944  0.4699 -0.1757
60619SOL     OW92170   2.394   3.214   5.868  0.2589  0.1739  0.1858
60619SOL    HW192171   2.441   3.265   5.933 -2.9198  1.8412  1.3749
60619SOL    HW292172   2.324   3.171   5.917  0.2108 -1.8540 -1.5268
60620SOL     OW92173   3.932   9.951  11.763 -0.1920  0.5755  0.4327
60620SOL    HW192174   3.969   9.864  11.781 -0.6293  0.3006  0.0465
60620SOL    HW292175   3.889   9.941  11.678 -2.8404  0.2828  1.6878
60621SOL     OW92176   5.843   7.204   6.335 -0.7255 -0.1155 -0.2682
60621SOL    HW192177   5.834   7.211   6.430 -1.1242 -0.5670 -0.2720
60621SOL    HW292178   5.755   7.182   6.304 -1.0713  2.0167 -0.9408
60622SOL     OW92179   3.196   6.456  11.544 -0.1201 -0.3252 -0.7330
60622SOL    HW192180   3.150   6.499  11.616  0.8295 -1.9306  0.9223
60622SOL    HW292181   3.223   6.372  11.581  3.7942  0.3241 -1.7012
60623SOL     OW92182   1.074   1.518   5.409 -0.4261  0.3461 -0.2570
60623SOL    HW192183   1.142   1.504   5.344  0.5464  0.3236  0.7372
60623SOL    HW292184   1.010   1.574   5.366 -0.0248 -0.0227 -1.3671
60624SOL     OW92185   5.119  11.865   9.085  0.1555 -0.1583  0.8474
60624SOL    HW192186   5.166  11.904   9.159 -0.2865 -0.9248  1.5534
60624SOL    HW292187   5.028  11.889   9.099  0.0483 -0.4526  0.6458
60625SOL     OW92188  12.747   1.228   3.835 -0.2609 -0.0509  0.5794
60625SOL    HW192189  12.682   1.165   3.868  0.4089 -0.2780  1.5224
60625SOL    HW292190  12.831   1.184   3.849  0.2589  1.2438  1.7516
60626SOL     OW92191   7.163  10.438  11.082  0.4437  0.1964 -0.0581
60626SOL    HW192192   7.149  10.478  10.996  1.4957  0.3324 -0.1771
60626SOL    HW292193   7.224  10.366  11.065  1.2539  0.6936  0.6882
60627SOL     OW92194   4.033   3.040   7.505 -0.1342  0.2171 -0.2825
60627SOL    HW192195   4.066   3.129   7.512 -0.8687  0.3958  1.5897
60627SOL    HW292196   3.977   3.041   7.427 -1.2980  1.8210  0.5215
60628SOL     OW92197   5.175   6.271   9.049 -0.2802 -0.1675  0.1446
60628SOL    HW192198   5.150   6.187   9.089 -1.0105  0.9381  2.1469
60628SOL    HW292199   5.267   6.259   9.024 -0.7297 -1.9814 -0.8886
60629SOL     OW92200   2.510  10.976   9.197  0.4058  0.1454  0.3563
60629SOL    HW192201   2.494  11.036   9.269  1.0086 -0.8754  1.3636
60629SOL    HW292202   2.524  10.891   9.238  1.7416 -0.2753 -0.8790
60630SOL     OW92203   0.956  12.894   6.287 -0.2912 -0.1748  0.7740
60630SOL    HW192204   1.037  12.845   6.303 -1.0231 -2.7184 -2.3605
60630SOL    HW292205   0.982  12.965   6.229 -0.1365 -0.3519  0.6244
60631SOL     OW92206  12.878   0.045   9.292 -0.8277  0.1563  0.0944
60631SOL    HW192207  12.884   0.021   9.384 -1.9399  0.7436  0.3391
60631SOL    HW292208  12.816   0.118   9.290  2.8110  3.5823 -0.5077
60632SOL     OW92209   6.480   2.987   2.218  0.0352 -0.3843  0.2680
60632SOL    HW192210   6.563   3.021   2.184  0.9417 -0.8972  1.8433
60632SOL    HW292211   6.427   2.971   2.141  1.4910 -0.2500 -0.8022
60633SOL     OW92212   3.455  11.929  12.755 -0.8678  0.3742 -0.0051
60633SOL    HW192213   3.422  12.003  12.704 -0.1257  0.6306 -0.1377
60633SOL    HW292214   3.507  11.970  12.824 -0.8951 -0.0105  0.2426
60634SOL     OW92215   8.479  10.524   0.208 -0.3838 -0.2643 -0.3660
60634SOL    HW192216   8.512  10.545   0.120  0.7435 -0.1329  0.0713
60634SOL    HW292217   8.477  10.428   0.210  1.2927 -0.3151  0.0483
60635SOL     OW92218   8.630   1.315   2.830 -0.3963  0.4270 -0.2802
60635SOL    HW192219   8.649   1.233   2.785 -0.0092  1.0477 -1.2810
60635SOL    HW292220   8.612   1.289   2.920 -2.9096 -1.0465 -1.0900
60636SOL     OW92221  12.495  12.430   3.092 -0.3270  0.4606 -0.0826
60636SOL    HW192222  12.589  12.414   3.090 -0.2024  0.9961 -3.4205
60636SOL    HW292223  12.461  12.361   3.149  1.7898 -1.6793 -1.2157
60637SOL     OW92224  11.680   1.214  12.164 -0.7512 -0.6876 -0.1145
60637SOL    HW192225  11.722   1.159  12.231 -0.5809  0.0604  0.3978
60637SOL    HW292226  11.728   1.296  12.167 -3.8805  1.3249  2.5035
60638SOL     OW92227   6.610  10.368   7.532  0.4870 -0.1953 -0.2813
60638SOL    HW192228   6.683  10.321   7.572  1.6556 -0.1160 -2.2145
60638SOL    HW292229   6.634  10.377   7.440 -0.4606  2.6783 -0.3603
60639SOL     OW92230  11.582   1.119   0.237  0.2082 -0.2834 -0.1113
60639SOL    HW192231  11.596   1.140   0.145  1.0360 -1.0914 -0.1861
60639SOL    HW292232  11.600   1.025   0.243  0.8153 -0.1075  0.9995
60640SOL     OW92233   1.504   2.262   3.712  0.2322  0.2487 -0.1958
60640SOL    HW192234   1.516   2.269   3.618  0.7991  0.0874 -0.1368
60640SOL    HW292235   1.482   2.169   3.726 -1.0797  0.5260 -0.2973
60641SOL     OW92236   4.254   9.463  10.914 -0.1383 -0.4339 -0.5993
60641SOL    HW192237   4.192   9.400  10.877  0.3962 -1.6136  0.4695
60641SOL    HW292238   4.339   9.422  10.902  0.2296  0.1511 -0.0150
60642SOL     OW92239   4.400   4.596   2.535  0.4040 -0.3750 -0.8910
60642SOL    HW192240   4.369   4.505   2.528  0.9864 -0.5401 -1.5765
60642SOL    HW292241   4.363   4.639   2.457  0.0518  0.0063 -0.5170
60643SOL     OW92242   0.675   5.128   3.254 -0.1054  0.3164  0.2476
60643SOL    HW192243   0.723   5.206   3.228 -1.9152  1.0036 -1.3286
60643SOL    HW292244   0.584   5.147   3.230 -0.7402 -1.9339  0.6207
60644SOL     OW92245   0.034   0.383   6.807 -0.0672  0.2302 -0.3828
60644SOL    HW192246  -0.020   0.304   6.815  1.8690 -1.2318 -0.8805
60644SOL    HW292247   0.105   0.370   6.869 -0.5322  2.3844  0.6800
60645SOL     OW92248   5.418  11.549   8.207 -0.0179  0.4717  0.1674
60645SOL    HW192249   5.437  11.472   8.153 -1.2254  0.4538 -0.2632
60645SOL    HW292250   5.482  11.545   8.278  2.0643  0.8626 -1.5829
60646SOL     OW92251   2.774   1.218   1.179 -0.3149  0.0838  0.1143
60646SOL    HW192252   2.706   1.251   1.238 -0.3398  0.8248 -0.3184
60646SOL    HW292253   2.851   1.271   1.199 -0.5286  0.8780 -1.0212
60647SOL     OW92254   7.739   2.544   0.123 -0.5835  0.2924 -0.5680
60647SOL    HW192255   7.725   2.568   0.214 -1.6733  0.7855 -0.8437
60647SOL    HW292256   7.763   2.452   0.125 -0.0631  0.4363  0.2503
60648SOL     OW92257  11.162  10.710   1.739 -0.4703  0.5509  0.0531
60648SOL    HW192258  11.135  10.635   1.686 -0.8774 -0.1615  1.2201
60648SOL    HW292259  11.244  10.739   1.699  0.3551 -1.3100  0.2794
60649SOL     OW92260   0.978  10.514   1.219  0.3356  0.0466 -0.1828
60649SOL    HW192261   0.931  10.578   1.273  1.7740 -0.2462  1.5317
60649SOL    HW292262   0.915  10.487   1.153 -1.4716  0.5819  1.2412
60650SOL     OW92263   9.185  10.929  12.857 -0.7448 -0.4492  0.4633
60650SOL    HW192264   9.199  10.958  12.948  0.0376  0.3751  0.0935
60650SOL    HW292265   9.233  10.847  12.850 -0.3504 -0.2347  0.6439
60651SOL     OW92266   5.904   9.635   5.909  0.3343 -0.1043  0.6266
60651SOL    HW192267   5.914   9.545   5.942 -1.5076 -0.3603  0.5998
60651SOL    HW292268   5.901   9.689   5.988  3.5626  0.2736  0.6216
60652SOL     OW92269   6.639   2.087   0.817  0.3193  0.8608  0.1949
60652SOL    HW192270   6.722   2.054   0.781  0.3690  2.4785 -1.3140
60652SOL    HW292271   6.572   2.036   0.772  0.4574  0.6122  0.2679
60653SOL     OW92272   9.011   9.402   6.373  0.6069 -0.1995  0.8234
60653SOL    HW192273   8.936   9.414   6.432  1.2863 -0.2153  1.7040
60653SOL    HW292274   9.052   9.321   6.402  0.0613 -1.0449 -0.6754
60654SOL     OW92275   5.364  11.299   2.542 -0.2309  0.0426  0.9012
60654SOL    HW192276   5.397  11.242   2.611  0.9669  0.5018  0.7393
60654SOL    HW292277   5.439  11.311   2.482 -0.3340  1.9674  1.0747
60655SOL     OW92278   0.377  10.563   6.048  0.3113 -0.0867 -0.3672
60655SOL    HW192279   0.424  10.516   5.978 -1.5146  1.0465 -2.4858
60655SOL    HW292280   0.286  10.565   6.019 -0.0592  2.9049  0.5959
60656SOL     OW92281  12.906   2.283   9.921  0.8067 -0.2347 -0.4607
60656SOL    HW192282  12.888   2.203   9.970  0.4993  0.9794  1.4877
60656SOL    HW292283  12.827   2.337   9.933  1.7564  1.1330 -0.1210
60657SOL     OW92284   5.134   9.158   1.257 -0.2877  0.7032  0.1158
60657SOL    HW192285   5.227   9.179   1.269  0.3174 -1.3569 -0.5567
60657SOL    HW292286   5.101   9.142   1.346  0.5947 -0.7470  0.2044
60658SOL     OW92287  12.724   1.013   8.340  0.2268 -0.2392  0.5648
60658SOL    HW192288  12.643   1.062   8.330  0.4054 -0.4568 -3.4904
60658SOL    HW292289  12.698   0.921   8.335  0.5386 -0.3905  1.5068
60659SOL     OW92290   9.299  11.068   6.619  0.5901 -0.7892  0.1439
60659SOL    HW192291   9.265  11.125   6.551  2.3283 -0.0557 -0.1718
60659SOL    HW292292   9.245  11.087   6.696  0.7972  0.9297 -0.1010
60660SOL     OW92293  11.669   3.696   7.563 -0.0523  0.1207  0.7739
60660SOL    HW192294  11.604   3.767   7.556 -0.4436 -0.3877 -2.3918
60660SOL    HW292295  11.719   3.701   7.482  1.4696 -1.8121  1.5041
60661SOL     OW92296   2.493   4.847   7.647  0.0204  0.1840  0.6836
60661SOL    HW192297   2.574   4.866   7.599  0.2298  0.6822  1.2238
60661SOL    HW292298   2.444   4.929   7.645 -0.1700  0.0796  0.9415
60662SOL     OW92299   3.655   9.350   4.631 -0.5377 -0.1910 -0.3872
60662SOL    HW192300   3.564   9.326   4.652 -0.1574  0.5612  2.5835
60662SOL    HW292301   3.707   9.277   4.663 -0.0206 -0.3980 -1.6465
60663SOL     OW92302   0.631  11.841   7.618 -0.6552  0.6351 -0.3162
60663SOL    HW192303   0.567  11.773   7.597 -1.4569  1.2699  0.0247
60663SOL    HW292304   0.716  11.799   7.605 -1.1290 -0.0210 -1.4326
60664SOL     OW92305   4.311  10.881   7.359 -0.6499 -0.5478 -0.0601
60664SOL    HW192306   4.220  10.874   7.390 -0.5532  0.9949  0.6768
60664SOL    HW292307   4.330  10.975   7.363  0.7266 -0.7642 -0.9791
60665SOL     OW92308  10.834   1.775  11.142 -0.2307 -0.2520 -0.5573
60665SOL    HW192309  10.874   1.692  11.167  0.4603 -0.0303 -0.8993
60665SOL    HW292310  10.856   1.834  11.214 -0.3311 -0.2518 -0.5278
60666SOL     OW92311   9.953   1.735   8.639 -0.2187  0.0895 -0.0302
60666SOL    HW192312   9.888   1.679   8.680 -0.2037  0.9503  1.2100
60666SOL    HW292313   9.920   1.824   8.649  1.0221  0.5274  0.4178
60667SOL     OW92314   5.716   6.206   8.532  0.4578  0.2090  0.2026
60667SOL    HW192315   5.668   6.131   8.496  0.9234  0.7946 -1.8082
60667SOL    HW292316   5.807   6.191   8.507  0.9374  0.3468  1.7822
60668SOL     OW92317   0.727   3.335   5.635 -0.6345  0.5545 -0.5091
60668SOL    HW192318   0.680   3.258   5.664  1.4701 -0.4137  0.5355
60668SOL    HW292319   0.764   3.310   5.551 -0.6649  0.7482 -0.5805
60669SOL     OW92320   1.291  10.248   5.252 -0.2759 -0.0315  0.4073
60669SOL    HW192321   1.261  10.180   5.312 -1.6187  0.7983  0.7341
60669SOL    HW292322   1.353  10.299   5.304 -0.3854 -0.1376  0.6460
60670SOL     OW92323   6.026  10.661   7.412 -0.0312  0.0120 -0.1343
60670SOL    HW192324   6.032  10.725   7.341  0.2444 -1.1848 -1.2269
60670SOL    HW292325   6.116  10.651   7.444 -0.4780  2.5122  2.2611
60671SOL     OW92326   8.557   0.423   9.276 -0.3009  0.7446 -0.0928
60671SOL    HW192327   8.627   0.364   9.247 -0.0028  0.8314  0.4473
60671SOL    HW292328   8.602   0.491   9.325 -0.3337  2.7309 -2.5961
60672SOL     OW92329   1.745   4.367   6.575 -0.2334 -0.4202  0.1583
60672SOL    HW192330   1.814   4.375   6.509  0.5187 -0.3426  0.9426
60672SOL    HW292331   1.791   4.344   6.656 -1.1466 -0.5558  0.6564
60673SOL     OW92332  11.235   0.413   5.078  0.3993 -0.0084  0.0101
60673SOL    HW192333  11.242   0.324   5.046 -1.5093  0.0964 -0.8096
60673SOL    HW292334  11.245   0.468   5.000  0.5350  0.4534  0.3465
60674SOL     OW92335   6.771   6.760   1.826  0.4331  0.8396  0.6745
60674SOL    HW192336   6.761   6.853   1.805  2.3180  0.9978  0.2924
60674SOL    HW292337   6.691   6.737   1.873 -0.8933  2.1809 -0.8466
60675SOL     OW92338  12.726  12.270   1.771  0.1156 -0.6075 -0.2291
60675SOL    HW192339  12.767  12.347   1.811 -1.4781  0.2847 -0.2514
60675SOL    HW292340  12.800  12.217   1.741  1.2534  1.0086 -0.4039
60676SOL     OW92341   9.095   1.342  12.207  0.0079 -0.3612 -0.0479
60676SOL    HW192342   9.161   1.302  12.263 -0.9175 -0.1369  1.2291
60676SOL    HW292343   9.024   1.278  12.203 -0.8547  0.5047  0.8270
60677SOL     OW92344   8.942   8.871   8.304  0.1780 -0.4291 -0.2141
60677SOL    HW192345   8.961   8.963   8.323 -0.6870 -0.2954  0.0342
60677SOL    HW292346   8.868   8.849   8.360  1.2934 -1.7096  0.8566
60678SOL     OW92347  11.774  12.053   9.172 -0.0412  0.0843 -0.5284
60678SOL    HW192348  11.798  12.134   9.218  0.1045  0.0218 -0.4925
60678SOL    HW292349  11.718  12.006   9.233  1.7878 -0.9614  0.4415
60679SOL     OW92350   9.808   8.965   1.595 -0.4751 -0.0828  0.3915
60679SOL    HW192351   9.870   8.988   1.664 -0.0259  1.5042 -0.4943
60679SOL    HW292352   9.738   8.918   1.641 -0.7421  1.8858  2.1690
60680SOL     OW92353   1.113  11.617   3.336  0.0583  0.1104 -0.3120
60680SOL    HW192354   1.123  11.548   3.271  0.1924 -0.2607  0.1021
60680SOL    HW292355   1.086  11.572   3.416  2.2355  0.2258  0.5750
60681SOL     OW92356   3.935  10.611   8.405  0.0401 -1.1408 -0.3975
60681SOL    HW192357   3.943  10.705   8.422 -2.1158 -0.7569 -1.1653
60681SOL    HW292358   4.009  10.572   8.450  1.7343  1.0368 -1.0950
60682SOL     OW92359   3.901   8.621  12.560 -0.7610  0.6990 -0.0678
60682SOL    HW192360   3.911   8.526  12.564  0.1659  0.7523 -0.7557
60682SOL    HW292361   3.981   8.651  12.516 -1.7626  1.6499 -1.2896
60683SOL     OW92362   8.801   0.264   3.921  0.0669 -0.0346  0.3330
60683SOL    HW192363   8.822   0.189   3.977 -0.5287 -1.6248 -1.4666
60683SOL    HW292364   8.858   0.254   3.845 -1.3626  0.2433 -0.8095
60684SOL     OW92365   5.867   7.579   9.387 -0.4211 -0.3066 -1.1020
60684SOL    HW192366   5.942   7.535   9.346 -1.1549 -1.9146 -0.8175
60684SOL    HW292367   5.867   7.547   9.477 -1.2481 -0.0741 -1.0107
60685SOL     OW92368   3.300   0.270   5.298 -0.2241 -0.0979 -0.6694
60685SOL    HW192369   3.364   0.207   5.332  1.4661  1.4852 -0.7531
60685SOL    HW292370   3.251   0.298   5.375  0.3094 -0.1039 -0.3239
60686SOL     OW92371  11.229   4.874   1.244  0.2628 -0.4279  0.1281
60686SOL    HW192372  11.151   4.862   1.298 -0.1099  0.5492 -0.1683
60686SOL    HW292373  11.301   4.841   1.298 -0.0813  0.6411  1.3020
60687SOL     OW92374   7.838   8.027   5.501 -0.1730 -0.2168 -0.3073
60687SOL    HW192375   7.821   8.121   5.491  0.8573 -0.1649 -1.9995
60687SOL    HW292376   7.891   8.004   5.425  2.9978 -1.3618  2.0204
60688SOL     OW92377   1.506  11.305   1.503  0.2758  0.0314 -0.3476
60688SOL    HW192378   1.549  11.305   1.417  0.3870 -0.1076 -0.2915
60688SOL    HW292379   1.530  11.221   1.542 -0.1227 -0.0855 -0.3542
60689SOL     OW92380  10.356   3.326   8.150  0.2245  0.4737 -0.7709
60689SOL    HW192381  10.450   3.309   8.149 -0.0444 -1.6704  1.3603
60689SOL    HW292382  10.348   3.416   8.181  1.5859 -0.1627  1.6582
60690SOL     OW92383   2.517   5.238  10.289  0.3202 -0.0676 -0.5827
60690SOL    HW192384   2.566   5.212  10.210 -1.0911 -0.1412 -1.4666
60690SOL    HW292385   2.578   5.293  10.337  0.6250  1.5980 -2.6947
60691SOL     OW92386  10.651   8.447  11.015  0.1242 -0.5822  0.2773
60691SOL    HW192387  10.711   8.502  10.965  0.6788 -2.3199 -1.0365
60691SOL    HW292388  10.706   8.382  11.057 -0.4522  0.1848  2.3838
60692SOL     OW92389  11.519  10.759   1.148 -0.2050  0.4409 -0.6047
60692SOL    HW192390  11.465  10.684   1.171 -0.5241  1.1028  0.9876
60692SOL    HW292391  11.544  10.745   1.057  1.0236 -2.3686  0.0485
60693SOL     OW92392  11.752   4.542  11.172  0.0394 -0.4280  0.3535
60693SOL    HW192393  11.840   4.527  11.205  0.0558 -0.7131  0.1847
60693SOL    HW292394  11.709   4.595  11.240  0.9292  1.3870 -0.4243
60694SOL     OW92395   3.555  12.428   0.685  0.0242  0.2122  0.1637
60694SOL    HW192396   3.623  12.367   0.714  1.0967  2.3666  2.5024
60694SOL    HW292397   3.509  12.453   0.765 -1.2194  1.5259 -0.9024
60695SOL     OW92398  12.610   0.486   9.356  0.3773 -0.8758  0.1439
60695SOL    HW192399  12.704   0.494   9.341  0.2840 -1.6610 -0.9528
60695SOL    HW292400  12.603   0.440   9.440  0.9521  0.0633  0.7197
60696SOL     OW92401  11.029  12.160  11.588 -0.3158 -0.2290  0.4037
60696SOL    HW192402  11.118  12.164  11.552 -0.5481 -0.8424 -0.2617
60696SOL    HW292403  11.037  12.107  11.667 -0.4380 -2.1356 -0.8117
60697SOL     OW92404   4.153   6.260   9.862 -0.1104 -0.6376 -0.0812
60697SOL    HW192405   4.094   6.232   9.792  1.9679 -1.2401 -1.6846
60697SOL    HW292406   4.204   6.331   9.823  0.9228 -0.8159  0.8963
60698SOL     OW92407   3.222   6.233   0.831 -0.2804 -1.0130 -0.2542
60698SOL    HW192408   3.237   6.246   0.738  0.3581  0.7813  0.0705
60698SOL    HW292409   3.310   6.229   0.870 -0.5425 -1.4344  0.3165
60699SOL     OW92410   8.890   2.709   4.022 -0.0626  0.2263 -0.1592
60699SOL    HW192411   8.816   2.759   4.057  0.5888  1.7360 -0.8464
60699SOL    HW292412   8.922   2.658   4.096 -1.7317 -0.4259  0.1725
60700SOL     OW92413   3.225   9.981   5.856  0.2447 -0.2839 -0.3802
60700SOL    HW192414   3.203   9.892   5.883  1.1897  0.0455  1.6323
60700SOL    HW292415   3.254   9.972   5.765  0.1328 -2.0038 -0.2750
60701SOL     OW92416   9.954   7.343   0.961 -0.0802 -0.4170 -0.4231
60701SOL    HW192417   9.994   7.410   0.906 -0.1461 -0.2021 -0.2109
60701SOL    HW292418   9.872   7.321   0.917 -0.5283  0.3406  0.0064
60702SOL     OW92419   3.034   2.309   8.678  0.3178  0.2355 -0.2456
60702SOL    HW192420   3.050   2.397   8.713 -1.6271  0.7498 -0.5245
60702SOL    HW292421   3.116   2.286   8.633  0.8847  1.8702 -0.1268
60703SOL     OW92422   0.902  11.058   2.518  0.4214 -0.0514 -0.9009
60703SOL    HW192423   0.943  11.030   2.437  1.6715 -1.5954  0.2204
60703SOL    HW292424   0.973  11.097   2.569 -0.0285 -0.4570  0.0555
60704SOL     OW92425   7.425  10.773   8.515  0.2152  0.0419  0.9283
60704SOL    HW192426   7.342  10.805   8.551 -0.0277  0.4634  0.0209
60704SOL    HW292427   7.410  10.679   8.502 -0.4678  0.2795 -0.1253
60705SOL     OW92428   1.539   4.175  12.568  0.3330  0.1711  0.0689
60705SOL    HW192429   1.554   4.124  12.647 -0.3961 -2.0559 -1.1446
60705SOL    HW292430   1.606   4.243  12.570  1.0914 -0.5737  1.9680
60706SOL     OW92431  11.861   4.149  10.022  0.2996  0.2750 -0.1981
60706SOL    HW192432  11.827   4.077  10.076 -0.0780  0.8202  0.3027
60706SOL    HW292433  11.948   4.165  10.056  0.4265 -0.0077 -0.3795
60707SOL     OW92434   6.496   8.330   4.575 -0.0907 -0.3768  0.0983
60707SOL    HW192435   6.425   8.343   4.638 -1.0722  2.4086 -1.3757
60707SOL    HW292436   6.451   8.321   4.491  1.2574 -1.1591 -0.5621
60708SOL     OW92437   8.558   3.774   5.044  0.2869 -0.0560  0.0735
60708SOL    HW192438   8.575   3.858   5.087  0.0519  0.8539 -1.5550
60708SOL    HW292439   8.470   3.751   5.072  0.9068 -0.5476  1.7390
60709SOL     OW92440  12.758   6.852   4.938  0.1652 -0.3960  0.1281
60709SOL    HW192441  12.707   6.793   4.995 -1.3072  1.6619  1.0541
60709SOL    HW292442  12.707   6.856   4.857  1.3806 -1.9897 -0.7713
60710SOL     OW92443   5.008   1.988  12.868  0.3144  0.1787  0.0291
60710SOL    HW192444   4.919   2.012  12.893 -0.3772 -1.2202 -0.9524
60710SOL    HW292445   5.048   2.070  12.839 -1.0985  0.6202 -0.7814
60711SOL     OW92446  10.855   6.126   5.697  0.4164  0.2638 -0.7756
60711SOL    HW192447  10.870   6.122   5.791 -3.0707  0.1970 -0.1123
60711SOL    HW292448  10.877   6.038   5.666 -1.0664 -0.5988  0.4934
60712SOL     OW92449   5.952   0.651   7.800  0.1902 -0.4071  0.0354
60712SOL    HW192450   5.956   0.558   7.822  0.2315 -0.5896 -0.7081
60712SOL    HW292451   5.981   0.696   7.879  0.1266 -1.0230  0.4151
60713SOL     OW92452   0.191  10.631  12.129 -0.0124 -0.2960 -0.5041
60713SOL    HW192453   0.237  10.593  12.203 -1.4080 -1.1259 -0.0284
60713SOL    HW292454   0.248  10.613  12.053  0.5217 -1.1131  0.0802
60714SOL     OW92455   8.704  12.923  10.433 -0.0847 -0.3157  0.2005
60714SOL    HW192456   8.761  12.994  10.460 -0.4811  0.1386 -0.1199
60714SOL    HW292457   8.688  12.872  10.512  0.0532  0.0627  0.4711
60715SOL     OW92458   6.900   4.617   3.239  0.2831  0.6229 -1.1165
60715SOL    HW192459   6.945   4.600   3.321  0.3857 -0.4627 -1.3734
60715SOL    HW292460   6.893   4.531   3.197 -0.2558  1.0686 -1.9909
60716SOL     OW92461   7.183   4.376   4.448 -0.0562  0.1993  0.3102
60716SOL    HW192462   7.120   4.339   4.386  0.4893  2.4357 -1.7111
60716SOL    HW292463   7.263   4.386   4.397  0.9952  0.3520  1.9482
60717SOL     OW92464   6.885   4.196   1.749 -0.2703 -0.6371  0.2073
60717SOL    HW192465   6.888   4.273   1.806 -0.2512 -1.1894  0.9673
60717SOL    HW292466   6.794   4.167   1.752 -0.5589  0.0526 -1.0519
60718SOL     OW92467   7.838   2.682  10.632  0.5059 -0.7737  0.4008
60718SOL    HW192468   7.850   2.775  10.651  1.4593 -0.9813  0.8888
60718SOL    HW292469   7.752   2.662  10.668  0.3197 -0.1019  0.3561
60719SOL     OW92470   9.071  10.694  10.042  0.2173  0.3937 -0.0779
60719SOL    HW192471   9.161  10.665  10.059  0.2614  0.2103 -0.6161
60719SOL    HW292472   9.080  10.777   9.996  0.0871  1.7927  2.2896
60720SOL     OW92473   1.020  12.531   9.456  0.0074 -0.0408  0.3454
60720SOL    HW192474   1.052  12.617   9.484 -2.0005 -0.0359  3.0925
60720SOL    HW292475   0.980  12.547   9.371 -0.4687  1.8032  0.8574
60721SOL     OW92476   6.241   0.760   8.971 -0.1562 -0.3664  0.1458
60721SOL    HW192477   6.275   0.676   8.941 -0.9730 -0.6022 -0.1309
60721SOL    HW292478   6.294   0.781   9.048 -0.4007 -1.4608  0.6265
60722SOL     OW92479   8.214   8.618   3.124  0.1583 -0.2590  0.5894
60722SOL    HW192480   8.223   8.594   3.217  0.3555  0.7244  0.8336
60722SOL    HW292481   8.156   8.693   3.125  0.9610  0.3797  0.0055
60723SOL     OW92482   2.861   9.371   5.240 -0.5173 -0.2763  0.2467
60723SOL    HW192483   2.781   9.381   5.190 -0.6017  0.4563  0.5129
60723SOL    HW292484   2.877   9.277   5.242 -2.2342 -0.6013  1.5188
60724SOL     OW92485   3.505   6.296   9.827  0.0643 -0.4807 -0.5315
60724SOL    HW192486   3.499   6.263   9.738 -0.0149  0.7521 -0.9964
60724SOL    HW292487   3.526   6.218   9.880 -0.2374 -1.2844 -1.5584
60725SOL     OW92488   2.531  12.613   2.594  0.2114  0.2451 -0.3312
60725SOL    HW192489   2.603  12.552   2.580 -0.2509 -0.3431 -0.1921
60725SOL    HW292490   2.550  12.686   2.535 -0.7666 -1.3573 -2.8204
60726SOL     OW92491  12.311   5.319   1.522 -0.2206  0.5642  0.0490
60726SOL    HW192492  12.387   5.287   1.475 -1.2425  1.0172 -2.0290
60726SOL    HW292493  12.337   5.317   1.614  1.7063 -0.7952 -0.4619
60727SOL     OW92494   1.531   7.157   2.160  0.2970 -0.0553 -0.2240
60727SOL    HW192495   1.593   7.165   2.089  2.3539 -0.1926  1.4628
60727SOL    HW292496   1.546   7.069   2.196 -1.7029 -0.5608 -0.4658
60728SOL     OW92497   0.610  10.396   3.442  0.2481 -0.0055  0.0450
60728SOL    HW192498   0.607  10.443   3.359  1.6722  2.8505  1.4513
60728SOL    HW292499   0.577  10.459   3.506  2.0131 -0.9660  2.0321
60729SOL     OW92500  12.145   0.406   4.262  0.1601  0.1206 -0.0257
60729SOL    HW192501  12.074   0.342   4.271 -0.6938  1.2522  1.8617
60729SOL    HW292502  12.186   0.409   4.348  0.1984  2.0350 -0.0651
60730SOL     OW92503  11.548   6.631   5.026  0.5172 -0.1469  0.0462
60730SOL    HW192504  11.547   6.551   4.974 -0.4255  0.1917 -0.4803
60730SOL    HW292505  11.543   6.601   5.117 -0.9558 -0.6700 -0.1799
60731SOL     OW92506   2.154   8.920   6.261  0.1579 -0.6126 -0.8415
60731SOL    HW192507   2.143   9.015   6.265  1.0910 -0.5130 -0.4022
60731SOL    HW292508   2.222   8.901   6.325 -0.6958 -1.6958 -0.2097
60732SOL     OW92509   3.622   0.335   6.093  0.2990 -0.0020 -0.0466
60732SOL    HW192510   3.539   0.292   6.073  0.8716 -1.6378  0.9012
60732SOL    HW292511   3.672   0.332   6.011 -0.4611  0.7726 -0.5511
60733SOL     OW92512  12.940   9.517   4.833 -0.1270  0.0743  0.4383
60733SOL    HW192513  12.952   9.443   4.893 -0.6300  0.1837  0.6782
60733SOL    HW292514  12.953   9.594   4.887  0.0051  0.1668  0.2748
60734SOL     OW92515   4.673   8.201   5.755 -0.2380  0.2616 -0.2127
60734SOL    HW192516   4.579   8.198   5.737 -0.4288  1.4194  0.5179
60734SOL    HW292517   4.709   8.125   5.708 -1.6791 -0.8463  0.3994
60735SOL     OW92518  12.955  10.076   7.514  0.1734 -0.0158 -0.0416
60735SOL    HW192519  13.008  10.065   7.435 -0.6841  0.0105 -0.6321
60735SOL    HW292520  12.924   9.987   7.533  3.5414 -0.8736  2.6089
60736SOL     OW92521   0.542   3.714   0.843  0.1803 -0.4578  0.2649
60736SOL    HW192522   0.501   3.755   0.919 -0.6478 -0.6709 -0.0655
60736SOL    HW292523   0.472   3.666   0.800  0.5291  0.0170 -0.8858
60737SOL     OW92524   0.877   1.814   8.562 -0.2106  0.9733  0.1279
60737SOL    HW192525   0.833   1.840   8.481  0.6349 -1.4446 -1.1985
60737SOL    HW292526   0.969   1.810   8.538 -0.1014 -1.3271  0.6729
60738SOL     OW92527   9.228   4.757   7.980  0.6981 -0.1943  0.1475
60738SOL    HW192528   9.292   4.791   8.043  1.3506 -3.3313  1.3606
60738SOL    HW292529   9.172   4.700   8.031 -1.6909  0.6271 -1.3635
60739SOL     OW92530   5.839   7.281   7.626 -0.0319 -0.8505  0.0857
60739SOL    HW192531   5.758   7.230   7.618  0.1715 -1.4568  1.6314
60739SOL    HW292532   5.908   7.216   7.637  0.1916 -0.3044  2.4308
60740SOL     OW92533   7.880  12.085  11.765  0.2393 -0.0204  0.6034
60740SOL    HW192534   7.965  12.125  11.748  0.2260  0.3963  1.5063
60740SOL    HW292535   7.867  12.024  11.691  1.5091 -0.4072  0.6890
60741SOL     OW92536   1.668   4.326   5.256 -0.0371 -0.1967 -0.2051
60741SOL    HW192537   1.669   4.348   5.349 -0.1655  0.7244 -0.4190
60741SOL    HW292538   1.737   4.260   5.247 -0.7314 -1.0924  0.7299
60742SOL     OW92539   3.196   7.333   7.123 -0.0925  0.4328 -0.3131
60742SOL    HW192540   3.285   7.344   7.158 -0.0391  0.7569 -0.5420
60742SOL    HW292541   3.171   7.244   7.148  0.1902  0.4357 -0.0061
60743SOL     OW92542   3.943   9.868  10.023  0.2931  0.1545  0.4518
60743SOL    HW192543   4.014   9.845   9.963 -0.1834  1.4349 -0.6629
60743SOL    HW292544   3.986   9.917  10.093  0.9010 -1.6112  1.3646
60744SOL     OW92545   6.034   1.889  11.930 -0.4233  0.1064 -0.2091
60744SOL    HW192546   5.980   1.812  11.949 -1.9171  1.3517  0.9038
60744SOL    HW292547   6.019   1.907  11.837 -2.1392  0.5168  0.1120
60745SOL     OW92548   7.706   2.279   7.274 -0.0375 -0.0127  0.3861
60745SOL    HW192549   7.787   2.264   7.225 -0.0754  0.2272  0.2480
60745SOL    HW292550   7.735   2.299   7.363  0.1167  1.3151  0.0456
60746SOL     OW92551   5.833   9.650   7.474  0.2882  0.4028 -0.0729
60746SOL    HW192552   5.740   9.650   7.495  0.6321  0.1608  1.5690
60746SOL    HW292553   5.844   9.577   7.412 -0.6409  0.6187 -0.5060
60747SOL     OW92554   7.873   9.370  12.886 -0.3940 -0.5755 -0.2535
60747SOL    HW192555   7.819   9.449  12.883  0.3534 -0.0017  0.8498
60747SOL    HW292556   7.884   9.352  12.979  2.0236 -0.1656 -0.3996
60748SOL     OW92557  10.604   8.638   4.245 -0.6809  0.3801 -0.1720
60748SOL    HW192558  10.695   8.619   4.265 -1.0252  0.7777  1.9638
60748SOL    HW292559  10.573   8.560   4.198  1.0420  0.7719 -2.1247
60749SOL     OW92560   9.019  11.129   0.166  0.1012  0.3115  0.0529
60749SOL    HW192561   9.096  11.074   0.182 -0.1294  0.3638  1.4662
60749SOL    HW292562   9.031  11.161   0.076  1.2212 -0.4686 -0.1006
60750SOL     OW92563  11.173   9.480   9.840  0.2883  0.0382  0.1742
60750SOL    HW192564  11.213   9.497   9.925  1.0728  1.8264 -0.5163
60750SOL    HW292565  11.246   9.463   9.781 -0.2981 -2.8471  0.1042
60751SOL     OW92566   3.144   4.447   9.457  0.0247  0.1884 -0.3572
60751SOL    HW192567   3.113   4.535   9.436 -0.9339 -0.1159 -0.2465
60751SOL    HW292568   3.077   4.388   9.422  0.4307 -0.4856 -0.0374
60752SOL     OW92569   0.110   8.485   3.558 -0.1155  0.2671 -0.2271
60752SOL    HW192570   0.025   8.528   3.549 -1.6949 -2.8979 -1.9276
60752SOL    HW292571   0.136   8.463   3.468  2.9495  1.7439  0.1592
60753SOL     OW92572   0.965  10.017   6.370  0.6141  0.0415  0.0377
60753SOL    HW192573   0.922   9.993   6.288  1.1762 -0.4900 -0.1031
60753SOL    HW292574   0.893  10.041   6.428  0.2343  1.0023 -0.7806
60754SOL     OW92575   3.662  10.620   7.260  0.8574 -0.2823  0.2002
60754SOL    HW192576   3.622  10.535   7.274 -0.7636  0.4796  0.4277
60754SOL    HW292577   3.751  10.600   7.231  0.8599 -2.0170  1.2544
60755SOL     OW92578   6.968  12.460   1.688 -0.3824 -0.6267 -0.4888
60755SOL    HW192579   6.889  12.474   1.740  0.0653 -0.2013  0.0831
60755SOL    HW292580   7.037  12.508   1.735  0.0535 -0.3408 -1.3977
60756SOL     OW92581   1.063  11.059  10.517  0.1959 -0.2429 -0.1649
60756SOL    HW192582   0.991  11.112  10.551 -2.2460 -1.5364 -2.8956
60756SOL    HW292583   1.027  10.971  10.508  2.3789 -1.1278 -0.9050
60757SOL     OW92584   2.559  10.664   9.528 -0.5353  0.4360  0.5812
60757SOL    HW192585   2.574  10.671   9.434 -0.2371 -1.4584  0.4425
60757SOL    HW292586   2.606  10.737   9.566  2.4075 -0.7624 -0.4826
60758SOL     OW92587  12.037   7.873  11.143  0.0305  0.3558 -0.1421
60758SOL    HW192588  11.997   7.960  11.150 -0.9667 -0.0730 -0.4284
60758SOL    HW292589  12.066   7.868  11.052 -0.3119  0.2216 -0.2458
60759SOL     OW92590   5.849  12.382  12.559  0.4646  0.3578  0.2883
60759SOL    HW192591   5.848  12.415  12.469  1.2934  0.6930  0.3983
60759SOL    HW292592   5.756  12.380  12.584  0.1573 -0.6114 -0.8797
60760SOL     OW92593   4.856   6.013   2.793 -0.0890 -0.0629  0.1087
60760SOL    HW192594   4.944   6.014   2.756  0.6761  0.9974  1.7994
60760SOL    HW292595   4.797   6.002   2.718  1.4449 -0.0302 -1.1325
60761SOL     OW92596  10.954   5.746   1.127 -0.1836  0.5387 -0.3112
60761SOL    HW192597  11.010   5.731   1.204  1.9291  0.7185 -1.7216
60761SOL    HW292598  10.884   5.802   1.159  0.9381  1.0700  1.3785
60762SOL     OW92599  10.706   9.959   8.531 -0.2255  0.0111  0.0938
60762SOL    HW192600  10.693   9.998   8.444 -0.8637 -1.4729 -0.5047
60762SOL    HW292601  10.799   9.936   8.533 -0.5787 -1.6909 -0.9893
60763SOL     OW92602   6.931   2.136  11.960 -0.1000 -0.1233 -0.4750
60763SOL    HW192603   7.027   2.136  11.969 -0.1232  0.9800 -0.0439
60763SOL    HW292604   6.904   2.221  11.993 -1.6233 -1.9094  3.6210
60764SOL     OW92605   5.967   9.998  10.273  0.9835  0.2493 -0.0125
60764SOL    HW192606   5.975   9.972  10.365  0.2688 -2.8928 -0.7389
60764SOL    HW292607   5.921   9.926  10.232  0.4971  1.9840 -2.7115
60765SOL     OW92608   0.993  10.062  12.426  0.4927  0.0002 -0.3764
60765SOL    HW192609   1.066  10.030  12.479 -0.4212  0.3927  1.1977
60765SOL    HW292610   1.034  10.115  12.358  1.7990 -1.6083 -0.9246
60766SOL     OW92611   0.725   0.351  10.406 -0.2006 -0.5435 -0.3240
60766SOL    HW192612   0.658   0.384  10.466 -0.0679 -0.5358 -0.1808
60766SOL    HW292613   0.690   0.267  10.377 -0.7783 -0.0517 -1.0863
60767SOL     OW92614   3.733   8.981   6.159  0.5041 -0.1464 -0.2467
60767SOL    HW192615   3.668   8.912   6.153  2.5319 -2.0380 -1.9096
60767SOL    HW292616   3.742   8.997   6.253 -0.0139 -2.1364  0.1849
60768SOL     OW92617   6.725   3.294   7.223 -0.0373 -0.5700 -0.1502
60768SOL    HW192618   6.715   3.243   7.303 -0.5212  0.2785  0.3496
60768SOL    HW292619   6.765   3.376   7.251 -3.9189  1.5052  0.0075
60769SOL     OW92620   6.797   5.441   3.730 -0.0098  0.1720 -0.4137
60769SOL    HW192621   6.746   5.517   3.702 -0.7583 -0.6374 -1.3501
60769SOL    HW292622   6.763   5.369   3.676  0.4264 -0.8956  0.7011
60770SOL     OW92623   0.689   9.539  10.326  0.2030 -0.2022 -0.2755
60770SOL    HW192624   0.666   9.579  10.242  2.0250  0.3727 -0.5480
60770SOL    HW292625   0.655   9.600  10.391  0.2204  0.2056 -0.6417
60771SOL     OW92626  12.168  12.717  10.329 -0.0043 -0.0060  0.3808
60771SOL    HW192627  12.078  12.744  10.346  0.7812  1.9812  1.8978
60771SOL    HW292628  12.185  12.743  10.239 -1.0630 -0.8855 -0.1025
60772SOL     OW92629   9.261   4.062   6.100 -0.2986  0.0405 -0.2364
60772SOL    HW192630   9.338   4.069   6.043 -0.9716 -0.8559 -1.2905
60772SOL    HW292631   9.270   3.976   6.140 -0.6342  0.0366 -0.1734
60773SOL     OW92632  12.516  11.559   1.543 -0.1718 -0.0769  0.5345
60773SOL    HW192633  12.428  11.522   1.553 -0.1675 -0.6801 -1.2528
60773SOL    HW292634  12.572  11.483   1.524  0.2541  0.5373 -0.8318
60774SOL     OW92635  12.736  12.092   4.410  0.2208 -0.3583 -0.1894
60774SOL    HW192636  12.774  12.029   4.472 -1.5865 -1.3828 -0.0561
60774SOL    HW292637  12.791  12.086   4.332  1.2490 -0.6272  0.5364
60775SOL     OW92638   0.354  12.068   9.473 -0.0126  0.4087  0.2485
60775SOL    HW192639   0.302  12.004   9.521 -1.2124  0.6873 -0.6316
60775SOL    HW292640   0.421  12.097   9.536 -0.7883 -0.1054  1.3418
60776SOL     OW92641  12.080   2.170   7.549  0.6188  0.7202  0.5121
60776SOL    HW192642  12.149   2.134   7.606  0.0330  2.5027  2.4464
60776SOL    HW292643  12.001   2.169   7.603 -0.3683  0.9489 -0.8649
60777SOL     OW92644   6.986   5.888   4.559  0.1304  0.3673 -0.6669
60777SOL    HW192645   6.915   5.885   4.623  1.1258  0.2554  0.4594
60777SOL    HW292646   6.969   5.813   4.502  0.0317 -0.4081  0.3561
60778SOL     OW92647   8.234  12.046  10.761 -0.0389 -0.0261  0.8919
60778SOL    HW192648   8.317  12.090  10.781 -0.0211  0.1648  0.4149
60778SOL    HW292649   8.225  12.055  10.666 -0.2148 -0.7445  0.8408
60779SOL     OW92650  10.944  11.870  12.876 -0.6758  0.2182 -0.1514
60779SOL    HW192651  10.883  11.800  12.856 -0.2447 -0.5940  1.2567
60779SOL    HW292652  10.925  11.895  12.967  2.3411 -1.4954  1.1269
60780SOL     OW92653   4.814   4.212   4.946 -0.0814  0.4559 -0.4638
60780SOL    HW192654   4.850   4.250   4.865 -1.2874  0.5860 -0.9637
60780SOL    HW292655   4.882   4.227   5.012  1.0350  0.1239 -1.5083
60781SOL     OW92656   3.383   2.367   4.489 -0.3307 -0.4529  0.3440
60781SOL    HW192657   3.407   2.334   4.402 -0.7794  1.2146 -0.4552
60781SOL    HW292658   3.441   2.321   4.549  0.3486 -1.2644 -0.8899
60782SOL     OW92659   8.079   8.112   9.863 -0.0993  0.5976 -0.1440
60782SOL    HW192660   8.092   8.158   9.780  1.0186 -0.8371 -0.8037
60782SOL    HW292661   7.993   8.141   9.893 -0.3455  1.4714 -1.6001
60783SOL     OW92662   3.961   5.907   8.136 -0.1354 -0.1473  0.1401
60783SOL    HW192663   4.001   5.920   8.222  0.8018 -0.1329 -0.2755
60783SOL    HW292664   3.977   5.990   8.090 -0.8504 -0.0643  0.0315
60784SOL     OW92665   5.809   4.071   6.300 -0.4401 -0.4138  0.4760
60784SOL    HW192666   5.860   3.991   6.312 -0.4093 -0.3876  0.5204
60784SOL    HW292667   5.772   4.062   6.212 -0.4241 -0.4697  0.4746
60785SOL     OW92668   0.715   5.076  12.142 -0.0106  0.0762 -0.4278
60785SOL    HW192669   0.630   5.039  12.119 -0.3246  0.8964 -0.6009
60785SOL    HW292670   0.712   5.086  12.237  0.8344 -2.1809 -0.0886
60786SOL     OW92671   5.458   5.251   6.759  0.2451  0.1246  0.3989
60786SOL    HW192672   5.485   5.326   6.705  2.2498  0.0555  1.1816
60786SOL    HW292673   5.393   5.205   6.707  0.3260  1.3989 -0.8924
60787SOL     OW92674  12.743  11.774  11.234  0.0870 -0.4726  0.3332
60787SOL    HW192675  12.750  11.679  11.225 -0.3079 -0.4256 -0.6716
60787SOL    HW292676  12.723  11.788  11.326  1.3378 -1.2808  0.7560
60788SOL     OW92677  11.119   9.633   0.590  0.1498 -0.6734 -0.2348
60788SOL    HW192678  11.140   9.726   0.583  0.1575 -0.6544  0.0453
60788SOL    HW292679  11.072   9.613   0.509  0.1474 -0.4267 -0.2954
60789SOL     OW92680   8.755  11.656   6.958 -0.7341 -0.3437 -0.8794
60789SOL    HW192681   8.683  11.679   6.899  0.1855  0.7064 -1.6155
60789SOL    HW292682   8.731  11.569   6.991 -2.2779 -0.0648 -1.1910
60790SOL     OW92683   2.630   0.134  10.544 -0.6147 -0.0744  0.0697
60790SOL    HW192684   2.556   0.090  10.587  0.3690 -0.1108  1.8256
60790SOL    HW292685   2.706   0.081  10.567 -0.0876 -0.5076 -2.4045
60791SOL     OW92686   4.827   0.694   9.225 -0.9700  0.0149  0.4325
60791SOL    HW192687   4.771   0.763   9.261 -1.4329 -0.1600  0.0578
60791SOL    HW292688   4.892   0.740   9.172 -1.3466  0.1572  0.0937
60792SOL     OW92689   2.897   1.488  11.750 -0.1048  0.3423 -0.3003
60792SOL    HW192690   2.842   1.504  11.827  0.4642  1.6031 -0.1376
60792SOL    HW292691   2.985   1.475  11.786  0.0271  0.1556 -0.6827
60793SOL     OW92692   5.906   5.381   8.358 -0.1523  1.2874  0.3160
60793SOL    HW192693   5.816   5.386   8.390 -0.9623  2.0489 -1.8937
60793SOL    HW292694   5.924   5.468   8.324  0.2668  0.3431 -2.0673
60794SOL     OW92695  10.142   7.478  11.878 -0.9110 -0.3708 -0.4108
60794SOL    HW192696  10.072   7.482  11.943 -0.5434  1.3507 -0.0678
60794SOL    HW292697  10.098   7.463  11.795 -1.5659 -0.5442 -0.0365
60795SOL     OW92698   9.492   2.309   1.552  0.0391 -0.0300  0.1020
60795SOL    HW192699   9.564   2.370   1.571 -0.3175  0.2240  0.6645
60795SOL    HW292700   9.414   2.353   1.586  0.1103 -2.0119  3.1573
60796SOL     OW92701   3.065  11.709   3.580  0.5502 -0.2086 -0.2123
60796SOL    HW192702   3.018  11.660   3.513 -0.9075 -0.3497  0.8651
60796SOL    HW292703   3.045  11.801   3.561  1.6533 -0.1176 -1.0399
60797SOL     OW92704   4.417   9.684   4.812 -0.0189 -0.7872 -0.0972
60797SOL    HW192705   4.350   9.711   4.875 -0.8882 -0.9921 -0.8973
60797SOL    HW292706   4.462   9.766   4.789 -0.1936 -0.5968  0.2267
60798SOL     OW92707   7.169  12.336  11.610  0.3550  0.0921 -0.5186
60798SOL    HW192708   7.260  12.339  11.640  0.5862 -0.4226 -1.1652
60798SOL    HW292709   7.134  12.256  11.648  0.1523  0.3186 -0.2244
60799SOL     OW92710  12.171   6.589   0.227  0.1173 -0.1362  0.8096
60799SOL    HW192711  12.214   6.514   0.185 -1.7371 -1.2712  0.8064
60799SOL    HW292712  12.194   6.664   0.172 -0.9261 -1.3104 -1.4062
60800SOL     OW92713   0.035   9.278   2.746 -0.6663 -0.4370 -0.7249
60800SOL    HW192714  -0.040   9.253   2.799  0.2059  0.6800  1.1351
60800SOL    HW292715   0.067   9.359   2.785 -0.4776  0.9889 -3.5182
60801SOL     OW92716   4.205   3.138  10.296 -0.0357 -0.4538  0.2982
60801SOL    HW192717   4.155   3.205  10.343 -0.6392 -1.2991  0.8785
60801SOL    HW292718   4.221   3.176  10.210  1.8048  1.4943  1.3885
60802SOL     OW92719   2.491   7.011   3.342  0.0657 -0.4128 -0.4752
60802SOL    HW192720   2.482   6.916   3.342  2.0297 -0.6388 -0.3916
60802SOL    HW292721   2.452   7.038   3.259 -0.4722 -1.2941 -0.5266
60803SOL     OW92722  11.684   3.597   5.359  0.0715 -0.5807  0.1675
60803SOL    HW192723  11.704   3.675   5.307 -1.4199 -0.1313  0.2213
60803SOL    HW292724  11.694   3.524   5.298 -2.3048 -0.0089 -1.0118
60804SOL     OW92725   5.018   7.508   5.746  0.0147  0.0142  0.4232
60804SOL    HW192726   5.035   7.516   5.840  0.0120  1.2436  0.3258
60804SOL    HW292727   4.937   7.456   5.742  0.0406 -0.0959  1.0932
60805SOL     OW92728   1.915   1.709   0.959 -0.3392  0.6028 -0.0712
60805SOL    HW192729   2.005   1.737   0.978 -0.2355  0.3450 -0.1741
60805SOL    HW292730   1.866   1.729   1.039  0.2462 -1.1570  0.7852
60806SOL     OW92731  10.765   5.179   6.372 -0.0385 -0.5662  0.0110
60806SOL    HW192732  10.821   5.104   6.354  0.9220  0.2193 -0.3228
60806SOL    HW292733  10.730   5.162   6.460  1.6753 -0.4908  0.7397
60807SOL     OW92734   3.478  11.889  11.280 -0.4138 -0.1927 -0.7458
60807SOL    HW192735   3.564  11.912  11.246 -0.0706  0.8183  0.6900
60807SOL    HW292736   3.417  11.934  11.221  0.0187 -1.0212 -1.8463
60808SOL     OW92737  10.380   8.036   1.917 -0.2113 -0.1536  0.2882
60808SOL    HW192738  10.468   8.072   1.923  1.2644 -3.0699 -1.9005
60808SOL    HW292739  10.364   8.026   1.824 -3.2720  1.0004  0.5691
60809SOL     OW92740  11.505   8.760   5.000 -0.0399  0.0732 -0.2980
60809SOL    HW192741  11.459   8.677   4.987 -1.1516  0.6445 -0.1575
60809SOL    HW292742  11.441   8.815   5.045  1.5065  0.2082  1.9201
60810SOL     OW92743   3.951   0.618  11.372 -0.2469  0.1268 -0.6779
60810SOL    HW192744   4.034   0.590  11.410 -0.6211  1.6738  1.3998
60810SOL    HW292745   3.962   0.602  11.278  3.5581  2.9191 -0.9523
60811SOL     OW92746   3.554   9.672   1.919  0.5815 -0.4771  0.2166
60811SOL    HW192747   3.579   9.686   2.010  2.3611  0.4718 -0.3735
60811SOL    HW292748   3.469   9.717   1.910  0.6971 -0.0435  1.2391
60812SOL     OW92749   3.254   0.939   9.227 -0.1404  0.2551 -0.3818
60812SOL    HW192750   3.267   0.918   9.135  0.7552  1.8557 -0.6564
60812SOL    HW292751   3.340   0.969   9.258 -0.9121  1.8083  0.3806
60813SOL     OW92752   0.939   8.463   8.590  0.2356 -0.1496  0.1892
60813SOL    HW192753   0.978   8.490   8.507 -2.5250  1.0071 -0.8721
60813SOL    HW292754   0.947   8.368   8.590 -0.2660 -0.2562 -1.7865
60814SOL     OW92755   4.074   5.005   9.935 -0.1370  0.2979 -0.0386
60814SOL    HW192756   4.099   5.064  10.006 -0.3607  1.1620 -0.6725
60814SOL    HW292757   4.025   4.935   9.979 -3.4250  2.6080  0.3615
60815SOL     OW92758   8.293   1.050   7.110 -0.8130  0.4837 -0.3062
60815SOL    HW192759   8.286   1.043   7.205  0.3929 -1.5236 -0.2970
60815SOL    HW292760   8.224   0.992   7.077  0.0681 -0.4152 -0.5992
60816SOL     OW92761   4.012   2.431   7.208  0.7591  0.0013 -0.0170
60816SOL    HW192762   4.085   2.442   7.147 -0.4831  1.8982 -1.2599
60816SOL    HW292763   4.042   2.471   7.289  0.8315  1.5090 -0.7657
60817SOL     OW92764   1.239  12.278   7.215  0.6506 -0.0317  0.1899
60817SOL    HW192765   1.257  12.194   7.174 -0.6574 -0.5623  0.6607
60817SOL    HW292766   1.298  12.282   7.290 -0.1092 -1.0769  0.8618
60818SOL     OW92767  11.572   0.696   8.788  0.2223 -0.5144  0.0652
60818SOL    HW192768  11.589   0.637   8.714 -1.7611 -0.8569 -0.1843
60818SOL    HW292769  11.583   0.784   8.752 -2.4182 -0.6092 -1.2147
60819SOL     OW92770  11.725   7.053   8.551 -0.5852 -0.2924 -0.0734
60819SOL    HW192771  11.647   7.067   8.497 -0.1187 -0.1888 -0.7198
60819SOL    HW292772  11.782   7.127   8.531 -0.0064 -0.7547 -0.1474
60820SOL     OW92773  10.810  12.872   7.129 -0.2765 -0.1028  0.2086
60820SOL    HW192774  10.794  12.875   7.034 -1.6037 -1.1329  0.3682
60820SOL    HW292775  10.863  12.794   7.142 -0.4950 -0.2274  0.3588
60821SOL     OW92776  12.156   6.248   2.737  0.0643  0.2794 -0.4003
60821SOL    HW192777  12.221   6.296   2.686  1.3745  0.7358  1.5658
60821SOL    HW292778  12.196   6.163   2.753  0.4524  0.7212  1.2007
60822SOL     OW92779   5.803   6.865  10.644 -0.0745 -0.1175  0.1756
60822SOL    HW192780   5.887   6.837  10.681  0.1830 -0.8926 -0.9480
60822SOL    HW292781   5.815   6.957  10.624  1.2836 -0.6789 -1.9315
60823SOL     OW92782   3.924  11.446   7.848  0.6250  0.1078 -0.4159
60823SOL    HW192783   4.014  11.414   7.847  0.2721 -0.9728  0.7615
60823SOL    HW292784   3.876  11.384   7.793  0.4779  0.3304 -0.5423
60824SOL     OW92785   1.911   9.153  10.736 -0.2545 -0.1459 -0.6191
60824SOL    HW192786   1.847   9.118  10.675 -1.6276 -0.6691  1.0275
60824SOL    HW292787   1.885   9.244  10.749 -1.7405 -0.7703  1.2573
60825SOL     OW92788   2.899   8.256   3.578  0.4508  0.3714  0.4882
60825SOL    HW192789   2.813   8.297   3.570  0.8768  1.2433  0.2132
60825SOL    HW292790   2.885   8.182   3.637 -0.7400 -0.2479 -0.5250
60826SOL     OW92791   9.669   3.097   4.134  0.1523  0.3392 -0.0459
60826SOL    HW192792   9.585   3.141   4.141 -0.1049  0.0496 -1.1919
60826SOL    HW292793   9.695   3.107   4.043  1.4729  0.6097  0.3353
60827SOL     OW92794   7.244  10.214   7.825  0.3529 -0.2087  0.0012
60827SOL    HW192795   7.193  10.270   7.766 -0.0575  0.2776  0.7930
60827SOL    HW292796   7.194  10.214   7.907  1.1763 -0.4444  0.5153
60828SOL     OW92797   7.776   2.663   7.521 -0.0489  0.6898  0.1773
60828SOL    HW192798   7.684   2.686   7.528 -0.3974 -0.0614 -1.5531
60828SOL    HW292799   7.809   2.716   7.447  0.3686 -0.5648 -0.5673
60829SOL     OW92800   2.249   6.377   1.150 -0.2492  1.1035 -0.2802
60829SOL    HW192801   2.318   6.339   1.204 -1.2796  0.7169  0.8072
60829SOL    HW292802   2.290   6.454   1.109  0.8748  0.7566  0.1572
60830SOL     OW92803   6.402  12.535   0.057 -0.0036  0.1446 -0.3404
60830SOL    HW192804   6.339  12.547  -0.014 -1.2748 -1.6943  0.4072
60830SOL    HW292805   6.360  12.473   0.116  1.6774  0.4269  1.2407
60831SOL     OW92806   1.475  12.797   0.724 -0.0952 -0.0501  0.3170
60831SOL    HW192807   1.537  12.765   0.659 -0.7590  1.1228 -0.9323
60831SOL    HW292808   1.515  12.878   0.757 -2.1597  2.4413 -2.6819
60832SOL     OW92809   9.708   8.680   9.978  0.5035  0.2004 -0.6129
60832SOL    HW192810   9.767   8.629  10.034  0.3265  1.4335  0.7624
60832SOL    HW292811   9.675   8.617   9.915 -1.1493 -1.9030  2.1251
60833SOL     OW92812   9.805   5.592   3.580 -0.1650 -0.0865  0.3633
60833SOL    HW192813   9.802   5.529   3.508  1.7865  1.3190 -1.0755
60833SOL    HW292814   9.876   5.561   3.636 -1.2062 -0.7803  1.3377
60834SOL     OW92815   8.957   2.331   4.515 -0.4289  0.5276  0.7414
60834SOL    HW192816   8.890   2.386   4.475 -0.9946  0.0487  1.0062
60834SOL    HW292817   8.958   2.251   4.462  1.6720  1.4684 -0.7570
60835SOL     OW92818   0.204   2.323  12.017  0.0743 -0.0664  0.2140
60835SOL    HW192819   0.294   2.304  11.989 -0.1579  0.7867 -1.2412
60835SOL    HW292820   0.212   2.343  12.110  1.2486 -0.8963  0.3250
60836SOL     OW92821  11.151   3.052  10.812  0.0717  0.0597 -0.3393
60836SOL    HW192822  11.077   3.037  10.872 -0.3764  0.5887 -0.7485
60836SOL    HW292823  11.177   2.964  10.785 -2.1183 -0.1319 -2.2147
60837SOL     OW92824   7.044   8.035   3.389 -0.4652  0.2409 -0.4633
60837SOL    HW192825   7.046   7.951   3.343 -1.5241 -0.0456 -0.0063
60837SOL    HW292826   7.119   8.084   3.353 -0.3903 -0.5388 -1.4007
60838SOL     OW92827   4.431   5.904   2.641 -0.0258 -0.4520  0.0692
60838SOL    HW192828   4.502   5.858   2.597  0.3929 -0.9205  1.2060
60838SOL    HW292829   4.436   5.993   2.607  1.2363 -0.4311  0.2617
60839SOL     OW92830   4.522   0.823   1.253 -0.0522 -0.1603  0.2018
60839SOL    HW192831   4.523   0.740   1.300 -2.8074 -0.3348  0.1534
60839SOL    HW292832   4.449   0.872   1.292 -1.7506  0.1507 -3.0157
60840SOL     OW92833   4.241   8.107   2.201 -0.1712  0.2323 -0.3069
60840SOL    HW192834   4.152   8.115   2.168 -0.8336 -0.9894  1.0972
60840SOL    HW292835   4.266   8.196   2.225 -0.7314  0.6891 -1.3439
60841SOL     OW92836   8.703   9.381  10.044 -0.2327  0.0925  0.2044
60841SOL    HW192837   8.769   9.387  10.113  1.1871 -2.5895 -0.8064
60841SOL    HW292838   8.650   9.305  10.067 -1.8796  1.1427  0.0373
60842SOL     OW92839   4.210   9.951  12.308  0.3990  0.3255 -0.4288
60842SOL    HW192840   4.182   9.942  12.217  1.5308  0.4920 -0.8096
60842SOL    HW292841   4.261   9.872  12.326  0.9280  0.6960 -0.2370
60843SOL     OW92842   3.540   0.674   2.164 -0.4705  0.0986 -0.1885
60843SOL    HW192843   3.602   0.679   2.091 -0.0162  0.4311  0.2099
60843SOL    HW292844   3.470   0.736   2.141 -1.0087 -0.7700 -0.9553
60844SOL     OW92845   0.318   3.382   3.586  1.2607  0.1295  1.0473
60844SOL    HW192846   0.352   3.314   3.528  1.1013 -0.2972  1.4483
60844SOL    HW292847   0.392   3.440   3.603  0.9528  1.1340 -0.7932
60845SOL     OW92848   8.793  12.601   7.635  0.2532  0.4172 -0.2979
60845SOL    HW192849   8.802  12.528   7.696  2.7154  2.1943  1.6890
60845SOL    HW292850   8.713  12.646   7.662  0.7323  0.5483  0.9591
60846SOL     OW92851   3.768   4.818   3.666  0.4040  0.1673 -0.5371
60846SOL    HW192852   3.777   4.894   3.609  0.2453  0.6613  0.0854
60846SOL    HW292853   3.748   4.854   3.752  3.9717 -0.3645  0.6645
60847SOL     OW92854   6.881  10.637  12.678  0.2142 -0.3432 -0.4253
60847SOL    HW192855   6.847  10.722  12.650  5.1312  1.8553 -0.7633
60847SOL    HW292856   6.886  10.645  12.773 -0.1407 -0.6869 -0.3742
60848SOL     OW92857  10.477   4.201  10.497 -0.0673 -0.0433  0.6535
60848SOL    HW192858  10.450   4.110  10.493 -3.1052  0.8007 -0.3903
60848SOL    HW292859  10.524   4.216  10.415  1.6157 -0.9266  1.4094
60849SOL     OW92860   7.484   6.343   8.041 -0.7373  0.4406  0.3798
60849SOL    HW192861   7.441   6.429   8.046  0.8417  1.2107  3.6496
60849SOL    HW292862   7.422   6.283   8.083 -1.1096  0.2914 -0.3603
60850SOL     OW92863   9.202   7.675   2.216  0.6049 -0.0096  0.0984
60850SOL    HW192864   9.250   7.757   2.211 -1.2775  1.0819 -1.2307
60850SOL    HW292865   9.220   7.631   2.133  1.0261 -0.6060  0.5012
60851SOL     OW92866  12.120  10.104   7.980  0.3089  0.0369 -0.4480
60851SOL    HW192867  12.201  10.155   7.973  1.3990 -1.6240 -0.6302
60851SOL    HW292868  12.100  10.077   7.891  1.3416 -2.1016 -0.1143
60852SOL     OW92869   2.640   1.371   2.151  0.0722 -0.3279  0.0831
60852SOL    HW192870   2.700   1.434   2.111 -0.1590 -0.2158 -0.0876
60852SOL    HW292871   2.681   1.350   2.235  0.0914  0.1378  0.1932
60853SOL     OW92872  11.557   8.002   8.253 -0.5333 -0.0639  0.0958
60853SOL    HW192873  11.486   7.997   8.190 -0.5504 -0.0752  0.1162
60853SOL    HW292874  11.553   7.919   8.301 -0.4386 -0.1094  0.0241
60854SOL     OW92875   4.734   3.762   4.111  0.5137  0.2521 -0.0336
60854SOL    HW192876   4.674   3.694   4.141  2.3378 -1.3024  0.2717
60854SOL    HW292877   4.681   3.842   4.109 -1.0882 -0.6841  1.9543
60855SOL     OW92878   6.783   0.474   0.979  0.0882  0.0679  0.0760
60855SOL    HW192879   6.795   0.568   0.995  2.1458 -0.1139 -0.1615
60855SOL    HW292880   6.736   0.471   0.895  2.1643  0.9290 -1.2095
60856SOL     OW92881   4.789   1.375   9.560 -0.0010  0.4424  0.4679
60856SOL    HW192882   4.748   1.398   9.477 -0.7768  1.8395  1.2191
60856SOL    HW292883   4.883   1.372   9.541 -0.1768  0.7085 -0.4562
60857SOL     OW92884   0.022   2.143   8.897 -0.0350 -0.4428 -0.5273
60857SOL    HW192885   0.011   2.081   8.826 -0.0582 -3.3199  1.7899
60857SOL    HW292886   0.116   2.145   8.913  0.0222  0.5919 -0.9486
60858SOL     OW92887   5.558   1.379   4.273  0.2726  0.5162  0.2115
60858SOL    HW192888   5.537   1.458   4.222  1.4872 -1.2579 -3.3353
60858SOL    HW292889   5.654   1.377   4.276  0.2984  0.9278  3.4633
60859SOL     OW92890   7.067   1.237  12.207 -0.2296  0.4710  0.2318
60859SOL    HW192891   7.090   1.328  12.224 -0.1120  0.3277  0.9026
60859SOL    HW292892   6.993   1.220  12.265  0.4161 -0.1454  0.9123
60860SOL     OW92893   9.425   5.470   4.264  0.1217  0.1401  0.0214
60860SOL    HW192894   9.378   5.395   4.228  0.1612 -0.6905  1.6018
60860SOL    HW292895   9.497   5.485   4.204 -0.4762 -0.4358 -0.8575
60861SOL     OW92896  11.805  10.207   9.301  0.4886 -0.1572 -0.4615
60861SOL    HW192897  11.730  10.179   9.353  0.3894 -0.3377 -0.7030
60861SOL    HW292898  11.881  10.190   9.357  0.2767  1.0506  0.2335
60862SOL     OW92899   4.723   8.646   8.927 -0.0100  0.2704  0.2777
60862SOL    HW192900   4.750   8.556   8.945 -0.4421  0.1302  0.2423
60862SOL    HW292901   4.629   8.639   8.909 -0.2149  0.8484  1.1000
60863SOL     OW92902   3.678   2.595   6.866  0.1362  0.4994 -0.2245
60863SOL    HW192903   3.693   2.567   6.956 -1.0354  1.2095  0.2112
60863SOL    HW292904   3.645   2.517   6.821 -0.9268  0.5807  0.4013
60864SOL     OW92905  11.707   5.141   0.320 -0.6427  0.2869  0.5493
60864SOL    HW192906  11.640   5.205   0.294 -0.3468  1.0756  1.6621
60864SOL    HW292907  11.722   5.089   0.241 -3.7492 -1.0112  0.6842
60865SOL     OW92908  12.986   8.696   6.845 -0.0305  0.1690 -0.3671
60865SOL    HW192909  13.061   8.701   6.905  0.9270  0.3765 -1.5310
60865SOL    HW292910  12.964   8.603   6.842  0.1987  0.1004 -0.0329
60866SOL     OW92911   7.062   3.168   2.998  0.3957 -0.0433  0.0620
60866SOL    HW192912   7.129   3.128   3.054 -0.6065 -0.5481  0.9287
60866SOL    HW292913   6.984   3.116   3.014  0.4122 -1.1415 -2.9240
60867SOL     OW92914   0.524   1.882   1.911 -0.1402 -0.4110  0.2032
60867SOL    HW192915   0.547   1.799   1.952 -0.9850 -0.8517 -0.1892
60867SOL    HW292916   0.604   1.935   1.917 -0.4925 -0.0789  3.2694
60868SOL     OW92917  11.309   2.878   0.276  0.1719 -0.0249  0.2377
60868SOL    HW192918  11.268   2.868   0.362 -1.9228 -2.7319 -0.9251
60868SOL    HW292919  11.352   2.794   0.261  0.8027  0.5404 -1.2311
60869SOL     OW92920   0.735   6.798   2.125 -0.2232  0.1936 -0.0875
60869SOL    HW192921   0.729   6.893   2.116 -1.9297  0.0388 -0.9577
60869SOL    HW292922   0.651   6.772   2.161  0.5192 -0.9261  0.8989
60870SOL     OW92923   6.153  12.517   6.140  0.1179 -0.3672  0.7059
60870SOL    HW192924   6.188  12.439   6.182 -1.2067 -1.3293  0.0910
60870SOL    HW292925   6.086  12.550   6.201 -0.3670 -0.5780  0.2914
60871SOL     OW92926  12.663   0.323   2.372  0.3053  0.1619 -0.9199
60871SOL    HW192927  12.607   0.353   2.444  1.2991 -0.6445  0.2355
60871SOL    HW292928  12.656   0.228   2.375  0.8882  0.1000 -1.4611
60872SOL     OW92929  12.614   7.134  12.852  0.0950  0.2497 -0.0811
60872SOL    HW192930  12.691   7.115  12.906  2.3758  1.1877 -2.7830
60872SOL    HW292931  12.577   7.213  12.890  1.3754  0.6411  0.4134
60873SOL     OW92932   6.358   7.972   6.116 -0.0435  0.0743 -0.0100
60873SOL    HW192933   6.393   7.987   6.204  1.7089  0.4364 -0.7220
60873SOL    HW292934   6.338   8.059   6.082  1.1630  0.1068 -0.6786
60874SOL     OW92935   9.414   6.240   7.975  0.1387  0.0583  0.0666
60874SOL    HW192936   9.442   6.292   7.900  0.3157 -0.2395 -0.0735
60874SOL    HW292937   9.429   6.149   7.949  0.4173 -0.0405  0.5446
60875SOL     OW92938   0.296  12.431   8.899 -0.0300  0.9860  0.6230
60875SOL    HW192939   0.209  12.398   8.923  0.5875  0.6852  2.6456
60875SOL    HW292940   0.340  12.446   8.983  1.9723  0.9054 -0.3448
60876SOL     OW92941  11.570   6.698   5.401 -0.2302  0.3791  0.1960
60876SOL    HW192942  11.504   6.640   5.363  1.7220 -0.1353 -2.6599
60876SOL    HW292943  11.626   6.640   5.454 -0.5814  0.3991  0.6008
60877SOL     OW92944  11.252  10.960   5.504  0.1012 -0.3618 -0.3960
60877SOL    HW192945  11.338  10.962   5.461  0.1270 -1.0062 -0.3851
60877SOL    HW292946  11.190  10.956   5.431  0.0469  0.7390 -0.4211
60878SOL     OW92947  12.966   0.248   6.497  0.3201  0.1579  0.1686
60878SOL    HW192948  12.938   0.165   6.537  0.4356 -0.1666 -0.4182
60878SOL    HW292949  12.893   0.308   6.514  0.0820 -0.1603  0.2838
60879SOL     OW92950   3.835   9.428   9.170 -0.7790 -0.1332 -0.0275
60879SOL    HW192951   3.843   9.338   9.136 -0.2586 -0.3896  0.7331
60879SOL    HW292952   3.809   9.480   9.094 -2.9764 -1.2214 -0.0947
60880SOL     OW92953   8.369   7.628   3.594  0.4194  0.3338  0.2611
60880SOL    HW192954   8.397   7.685   3.523  1.3933  0.4599  0.7277
60880SOL    HW292955   8.334   7.687   3.661  2.4259  0.5361  1.2069
60881SOL     OW92956   7.569  12.421   9.159  0.3372 -0.4004  0.1257
60881SOL    HW192957   7.535  12.434   9.247  1.3265 -2.9465  0.9782
60881SOL    HW292958   7.493  12.393   9.107  0.1380 -0.9013  0.6842
60882SOL     OW92959   2.819  10.174   9.777 -0.0467  0.2569 -0.5459
60882SOL    HW192960   2.885  10.224   9.729 -0.4497 -0.7515 -2.2236
60882SOL    HW292961   2.740  10.228   9.772 -0.3485 -0.2638 -1.9273
60883SOL     OW92962  10.602   1.833   0.023  0.3132 -0.7329  0.4039
60883SOL    HW192963  10.533   1.897   0.007 -0.1967 -1.3483  0.1092
60883SOL    HW292964  10.586   1.802   0.112  0.3730 -0.6806  0.4331
60884SOL     OW92965  11.182   3.160   1.992  0.0965  0.5551  0.6728
60884SOL    HW192966  11.213   3.156   1.901  0.4673 -0.0852  0.8245
60884SOL    HW292967  11.219   3.242   2.026 -0.3366  0.9849  0.1470
60885SOL     OW92968   7.323   0.558  12.502 -0.1915  0.0344  0.6167
60885SOL    HW192969   7.280   0.501  12.438  0.0925  0.0934  0.3732
60885SOL    HW292970   7.314   0.646  12.466  1.7372 -0.1183 -0.3891
60886SOL     OW92971  10.410  11.092   5.054 -0.2027 -0.2905 -0.1061
60886SOL    HW192972  10.485  11.149   5.069 -0.7856  0.4764 -0.0977
60886SOL    HW292973  10.414  11.071   4.960 -0.8294  0.9665 -0.4238
60887SOL     OW92974   1.093   9.810   3.564  0.5422  0.1343  1.2402
60887SOL    HW192975   1.111   9.876   3.497 -1.7525  0.4730  0.8690
60887SOL    HW292976   1.068   9.862   3.641 -0.3213 -0.2731  1.2436
60888SOL     OW92977   4.267   5.440   5.345 -0.1802  0.4008 -0.2134
60888SOL    HW192978   4.177   5.428   5.373 -1.8176  1.1477 -4.4675
60888SOL    HW292979   4.310   5.357   5.369 -1.2778  0.7256  3.5958
60889SOL     OW92980   7.197   1.756   1.034 -0.6764  0.2866 -0.8013
60889SOL    HW192981   7.267   1.693   1.052 -0.6559  0.8166  1.2814
60889SOL    HW292982   7.118   1.702   1.027 -0.2052 -0.2413 -2.3754
60890SOL     OW92983   9.396   9.190   2.873  0.0948  0.4475 -0.4883
60890SOL    HW192984   9.436   9.271   2.840  0.2048  0.4539 -0.3352
60890SOL    HW292985   9.336   9.164   2.803  1.0115 -0.0514 -1.1087
60891SOL     OW92986   6.847   9.836   7.175  0.3801 -0.0259 -0.2462
60891SOL    HW192987   6.761   9.877   7.161 -0.6033 -2.6136 -2.6431
60891SOL    HW292988   6.829   9.764   7.235  1.4591  0.9061  1.2693
60892SOL     OW92989   4.942   8.392   3.997  0.1663 -0.1211 -0.2351
60892SOL    HW192990   5.001   8.455   4.039 -0.3775  1.6028 -1.9180
60892SOL    HW292991   4.917   8.332   4.067  0.1383  1.9592  1.6494
60893SOL     OW92992   1.095   1.636   3.704 -0.3804 -0.0118  0.2307
60893SOL    HW192993   1.021   1.597   3.657 -0.5501 -2.0439  2.0164
60893SOL    HW292994   1.146   1.680   3.636 -1.8035 -0.8638 -1.4736
60894SOL     OW92995   6.542   7.623   2.015 -0.0963  0.1488  0.3314
60894SOL    HW192996   6.631   7.602   1.987 -0.9867 -0.9493 -1.8948
60894SOL    HW292997   6.525   7.709   1.977 -0.7517 -0.6507 -1.2550
60895SOL     OW92998   5.477   2.443   5.374 -0.3958 -0.0768 -0.2810
60895SOL    HW192999   5.512   2.462   5.461  0.4976  0.9154 -0.8350
60895SOL    HW293000   5.383   2.430   5.389 -0.5455  1.7099  0.6310
60896SOL     OW93001   2.175   9.077   7.648  0.5422 -0.1072 -0.4237
60896SOL    HW193002   2.088   9.065   7.610  0.3771  1.2299 -0.5205
60896SOL    HW293003   2.173   9.166   7.683  1.6951 -0.2604  0.0519
60897SOL     OW93004   0.399   3.123   3.168 -0.7340  0.1368 -0.0805
60897SOL    HW193005   0.466   3.056   3.150 -2.5242 -1.5204 -0.9279
60897SOL    HW293006   0.355   3.092   3.247 -0.2450  1.4511  0.7316
60898SOL     OW93007   5.811  10.128   9.486 -0.2085  0.2474 -0.2016
60898SOL    HW193008   5.792  10.152   9.577 -1.3374  0.5127 -0.4951
60898SOL    HW293009   5.798  10.033   9.483 -2.2546  0.4878 -0.5345
60899SOL     OW93010   9.148   1.527   8.250  0.2360  0.1061 -0.1981
60899SOL    HW193011   9.079   1.482   8.201  0.4609 -0.8835  0.3642
60899SOL    HW293012   9.136   1.497   8.341 -0.8606  2.6923  0.6180
60900SOL     OW93013   2.651  10.308   6.308 -0.0258 -0.0881  0.3177
60900SOL    HW193014   2.643  10.392   6.353  0.1261  0.4039 -0.5493
60900SOL    HW293015   2.638  10.329   6.215 -0.6141 -1.1153  0.1452
60901SOL     OW93016   8.574  12.740   4.062  0.3173  0.2167 -0.1848
60901SOL    HW193017   8.606  12.681   4.131 -0.4371  1.5885  1.4091
60901SOL    HW293018   8.495  12.697   4.029  0.2803 -0.1097  0.3053
60902SOL     OW93019   2.976   8.308   7.231 -0.0496 -0.2646 -0.1236
60902SOL    HW193020   3.021   8.322   7.314 -0.8929 -2.2984  0.7670
60902SOL    HW293021   2.984   8.214   7.216 -3.7736 -0.7761  0.0636
60903SOL     OW93022   2.516   4.507   1.464 -0.4752  0.0446 -0.0937
60903SOL    HW193023   2.494   4.599   1.454 -2.4821 -0.4088 -0.1982
60903SOL    HW293024   2.512   4.491   1.558  3.8500  0.8879  0.4698
60904SOL     OW93025   3.861   8.881   5.315 -0.0317  0.4992 -0.2285
60904SOL    HW193026   3.787   8.827   5.343 -0.4199  0.7923 -0.6696
60904SOL    HW293027   3.920   8.882   5.390 -0.4715  0.2582  0.1279
60905SOL     OW93028  12.467   2.006   4.840  0.0723 -0.0492 -0.5952
60905SOL    HW193029  12.382   1.993   4.796 -0.5751  2.1583 -0.0956
60905SOL    HW293030  12.527   2.027   4.768 -0.2701  0.3743 -0.7687
60906SOL     OW93031   3.377   2.258  11.683 -0.2374 -0.4342 -0.6191
60906SOL    HW193032   3.397   2.170  11.650  2.7271 -0.2331  0.3189
60906SOL    HW293033   3.459   2.307  11.672 -0.8723  1.3125  1.6435
60907SOL     OW93034  11.293   0.172   0.826 -0.2176  0.4841 -0.1239
60907SOL    HW193035  11.279   0.098   0.885  0.2982  0.9037  0.5533
60907SOL    HW293036  11.385   0.165   0.800 -0.7013 -0.2644 -1.7065
60908SOL     OW93037  12.449   9.145   2.540 -0.4300 -0.2212  0.4221
60908SOL    HW193038  12.449   9.184   2.452  0.2034  0.7938  0.8601
60908SOL    HW293039  12.365   9.170   2.577 -2.0497 -3.1081 -0.8953
60909SOL     OW93040   2.569   9.960   7.400  0.5178 -0.3472 -0.1619
60909SOL    HW193041   2.499   9.906   7.364 -0.0884  0.9237 -0.9868
60909SOL    HW293042   2.624   9.900   7.449 -1.7681 -1.2210  1.4564
60910SOL     OW93043   8.118   3.047   6.135 -0.3111  0.1403  0.1844
60910SOL    HW193044   8.173   3.084   6.065  1.3616 -0.8021  0.9483
60910SOL    HW293045   8.122   3.112   6.205  2.1786 -1.0918  1.3112
60911SOL     OW93046   3.203  11.047   9.495 -0.2037  0.1556  0.0319
60911SOL    HW193047   3.291  11.027   9.464 -0.3776 -0.5254 -0.0384
60911SOL    HW293048   3.202  11.143   9.506  0.3149  0.2440 -0.6583
60912SOL     OW93049   2.698   4.022   8.819 -0.3331 -0.0669  0.3110
60912SOL    HW193050   2.704   4.025   8.915 -0.8114  0.0459  0.3376
60912SOL    HW293051   2.630   3.957   8.802  0.3245 -0.7002  0.0272
60913SOL     OW93052  10.313   9.457   9.895 -0.5353 -0.1883 -0.2652
60913SOL    HW193053  10.400   9.459   9.856 -0.6683 -0.1750 -0.5633
60913SOL    HW293054  10.282   9.547   9.891 -1.0341 -0.3932 -1.2321
60914SOL     OW93055   9.769   9.340   7.072 -0.2939  0.1096 -0.0475
60914SOL    HW193056   9.774   9.410   7.138 -1.1568  1.3591 -1.2462
60914SOL    HW293057   9.735   9.384   6.994 -0.4372 -1.5818 -0.9719
60915SOL     OW93058   3.589   3.472   5.863 -0.0620 -0.1870 -0.0666
60915SOL    HW193059   3.603   3.531   5.789  1.4579 -2.4517 -1.7083
60915SOL    HW293060   3.629   3.389   5.836  0.7013 -1.0951  3.3725
60916SOL     OW93061   8.656   7.629   4.085 -0.0254  0.3189 -0.1221
60916SOL    HW193062   8.651   7.563   4.155 -0.4124 -0.4505 -0.8486
60916SOL    HW293063   8.677   7.711   4.130  1.8573 -0.5314  0.6838
60917SOL     OW93064   4.293   0.924   0.389 -0.5773 -0.5587  0.1450
60917SOL    HW193065   4.319   0.836   0.361 -0.4643 -0.4926  0.0399
60917SOL    HW293066   4.242   0.910   0.468  1.7070 -0.5439  1.7131
60918SOL     OW93067   1.891  10.950   7.251 -0.0031  0.1869 -0.3738
60918SOL    HW193068   1.968  11.007   7.256 -0.4200  0.6569  1.9141
60918SOL    HW293069   1.821  11.007   7.218  0.3849  0.0213 -1.5108
60919SOL     OW93070   9.986   7.955   9.608 -0.0724 -0.5955  0.7394
60919SOL    HW193071  10.017   7.873   9.647 -0.8002 -1.0636  0.3532
60919SOL    HW293072   9.955   7.930   9.521  1.3671  0.4030 -0.1030
60920SOL     OW93073   2.633   3.600   6.493  0.2567  0.6985 -0.2332
60920SOL    HW193074   2.662   3.691   6.504  1.0149  0.7038 -2.0026
60920SOL    HW293075   2.561   3.590   6.556  0.2637  2.4618  0.1020
60921SOL     OW93076  11.738  11.425   1.641 -0.2014  0.2596  0.3781
60921SOL    HW193077  11.808  11.486   1.663  0.8281 -1.0841  1.0470
60921SOL    HW293078  11.728  11.432   1.546 -0.2148  1.5586  0.4710
60922SOL     OW93079   8.566  12.698   7.750 -0.0404 -0.3369  0.2362
60922SOL    HW193080   8.591  12.733   7.835  1.4489 -0.0340 -0.3099
60922SOL    HW293081   8.492  12.639   7.769  0.9679 -1.1252  1.8919
60923SOL     OW93082   1.759   3.574   8.961  0.8485  0.0544  0.1566
60923SOL    HW193083   1.742   3.666   8.982 -0.2035  0.1459 -0.9902
60923SOL    HW293084   1.689   3.526   9.005 -0.3128  0.0904 -1.5673
60924SOL     OW93085   1.276   8.838   0.563  0.2330  0.0725  0.7397
60924SOL    HW193086   1.299   8.849   0.471 -0.5070 -1.1231  0.3900
60924SOL    HW293087   1.240   8.922   0.590 -0.0453  0.2591 -0.2150
60925SOL     OW93088  10.038  11.774   2.078 -0.2423 -0.0217  0.1684
60925SOL    HW193089  10.036  11.715   2.153 -0.8534 -0.8146 -0.4454
60925SOL    HW293090  10.036  11.862   2.115 -0.2258 -0.3963  1.0751
60926SOL     OW93091   8.061   7.579  10.739  0.5143 -0.3450 -0.1998
60926SOL    HW193092   8.011   7.653  10.774  0.2772 -0.6499  0.1172
60926SOL    HW293093   8.043   7.580  10.645 -0.7179 -0.9073  0.0056
60927SOL     OW93094   9.214  12.429   8.267 -0.4281  0.0075 -0.4578
60927SOL    HW193095   9.274  12.358   8.289 -0.3088  0.6802  1.5871
60927SOL    HW293096   9.128  12.386   8.261  0.1577 -0.9402 -3.2982
60928SOL     OW93097   1.376   7.859  12.021  0.4415 -0.0049 -0.4859
60928SOL    HW193098   1.310   7.816  12.076  0.7769  0.4723  0.2981
60928SOL    HW293099   1.436   7.788  11.997 -0.1014 -0.3564 -0.8484
60929SOL     OW93100   1.600   8.622  10.667  0.8435 -0.1482 -0.5220
60929SOL    HW193101   1.524   8.571  10.694  0.7329  0.7802  1.0526
60929SOL    HW293102   1.579   8.653  10.579  0.6269 -2.1910 -1.2455
60930SOL     OW93103   9.801   9.403  10.699  0.0655  0.0427  0.1853
60930SOL    HW193104   9.840   9.333  10.647  1.5864  1.7409 -1.0962
60930SOL    HW293105   9.862   9.416  10.772 -0.2777 -0.0216  0.4903
60931SOL     OW93106   3.284   6.258   1.762  0.0693  0.0854  0.1130
60931SOL    HW193107   3.221   6.231   1.828  1.9079 -0.7093  1.6179
60931SOL    HW293108   3.311   6.346   1.789  0.6546 -0.1470  0.2940
60932SOL     OW93109   9.237   9.029   4.981  0.1293  0.1005  0.1513
60932SOL    HW193110   9.180   8.961   5.018  0.3922 -0.1040  0.1772
60932SOL    HW293111   9.179   9.081   4.926  0.2915 -1.2219 -1.3243
60933SOL     OW93112   8.926  11.671   2.134  0.0093 -0.5594 -0.2528
60933SOL    HW193113   8.904  11.718   2.053 -0.0567 -1.2657 -0.6507
60933SOL    HW293114   8.973  11.736   2.187 -1.0792  0.2996 -0.3094
60934SOL     OW93115  10.074   7.039   3.193 -0.5779  0.1039  0.3568
60934SOL    HW193116   9.996   7.045   3.248 -0.0603  1.2793  1.0177
60934SOL    HW293117  10.140   7.089   3.241 -0.3010  1.8544 -1.6889
60935SOL     OW93118   1.230   1.489   1.318 -0.3985  0.0144  0.2916
60935SOL    HW193119   1.264   1.399   1.313 -0.9691 -0.2464  0.9078
60935SOL    HW293120   1.191   1.505   1.232  0.3649 -0.0579 -0.0702
60936SOL     OW93121  12.645  11.066   5.914  0.4782  0.3033  0.1591
60936SOL    HW193122  12.602  11.029   5.991  0.7833 -1.8253 -0.6199
60936SOL    HW293123  12.573  11.088   5.855  0.3047 -1.6922 -0.4615
60937SOL     OW93124   6.456   2.104   3.233 -0.1655 -0.3293 -0.7437
60937SOL    HW193125   6.479   2.068   3.319  1.4862  2.9313  0.3897
60937SOL    HW293126   6.384   2.165   3.252 -2.1089 -1.9828 -2.3512
60938SOL     OW93127   9.156  11.856   5.967 -0.4386  0.5553 -0.0750
60938SOL    HW193128   9.213  11.923   6.004  1.4041 -2.5147  3.2565
60938SOL    HW293129   9.211  11.809   5.904 -0.4663 -0.0887  0.3668
60939SOL     OW93130  11.638  12.107   7.327 -0.2078 -0.3375  0.4317
60939SOL    HW193131  11.550  12.068   7.323 -0.2064 -0.3705  0.6973
60939SOL    HW293132  11.658  12.112   7.421  0.6208 -1.5328  0.3320
60940SOL     OW93133   6.525   9.916   8.520  0.0067  0.7263 -0.6079
60940SOL    HW193134   6.512   9.881   8.432  0.2591  0.0064 -0.3699
60940SOL    HW293135   6.607   9.876   8.549 -2.0197 -2.3606  1.4902
60941SOL     OW93136   5.148   9.806   8.642 -0.5124  0.6950 -0.5578
60941SOL    HW193137   5.123   9.893   8.673  0.0402  0.9181 -0.7311
60941SOL    HW293138   5.223   9.821   8.585  0.8791 -0.0656  0.9541
60942SOL     OW93139  10.850   2.663   4.943 -0.3163  0.2928 -0.2982
60942SOL    HW193140  10.922   2.714   4.904 -0.1672  1.8874  1.9200
60942SOL    HW293141  10.864   2.671   5.037 -2.9609 -0.0366  0.1718
60943SOL     OW93142   5.367  12.193   1.116 -0.3342 -0.0266 -0.2555
60943SOL    HW193143   5.426  12.118   1.112 -1.6623 -1.0631 -0.7345
60943SOL    HW293144   5.317  12.180   1.197 -0.9979  0.0151 -0.6583
60944SOL     OW93145   1.358  10.255   1.828 -0.5067 -0.1903 -0.1162
60944SOL    HW193146   1.321  10.221   1.910 -0.3923  0.1825  0.0913
60944SOL    HW293147   1.352  10.182   1.767 -1.1436 -0.2853  0.0542
60945SOL     OW93148  11.847   6.512   7.522  0.3614 -0.3110 -0.4548
60945SOL    HW193149  11.894   6.449   7.578  0.6872 -0.4899 -0.9252
60945SOL    HW293150  11.775   6.461   7.485  0.8925 -0.5338 -1.1945
60946SOL     OW93151  12.339   9.606  10.841 -0.2369  0.1634 -0.7739
60946SOL    HW193152  12.333   9.669  10.913 -1.8659 -0.6263 -0.1836
60946SOL    HW293153  12.418   9.632  10.794 -0.6455  2.4149 -0.3388
60947SOL     OW93154   5.214  11.666  10.818 -0.5281 -0.4279 -0.5965
60947SOL    HW193155   5.135  11.612  10.806 -0.3676 -0.8722  0.2786
60947SOL    HW293156   5.275  11.635  10.751 -1.2314  0.1988 -1.5507
60948SOL     OW93157   0.078  11.789   7.107 -0.1796  0.3164  0.7599
60948SOL    HW193158   0.142  11.861   7.115  0.1386  0.2526 -0.8456
60948SOL    HW293159   0.024  11.814   7.032  0.0476 -1.1908  0.0637
60949SOL     OW93160   0.958   7.451   1.612  0.1355 -0.3591  0.2122
60949SOL    HW193161   0.895   7.517   1.639  0.5493 -0.2068  0.8261
60949SOL    HW293162   1.040   7.477   1.654  0.6474 -0.4713 -0.6915
60950SOL     OW93163   8.147   3.389   2.478 -0.1447 -0.8003  0.0775
60950SOL    HW193164   8.062   3.387   2.523 -1.2993 -0.2655 -1.9346
60950SOL    HW293165   8.173   3.297   2.471 -1.7824 -1.2177 -1.3482
60951SOL     OW93166   3.826  12.070  10.163 -0.4169 -0.5938  0.1723
60951SOL    HW193167   3.886  12.112  10.101  0.2652  0.6406  1.6129
60951SOL    HW293168   3.843  11.977  10.153 -0.4963 -0.4465 -1.6449
60952SOL     OW93169   1.070   6.303   7.147 -0.2086  0.8641  0.7279
60952SOL    HW193170   1.004   6.356   7.192 -0.6233  1.8113 -0.8931
60952SOL    HW293171   1.092   6.354   7.069  0.2115 -0.8476 -0.3261
60953SOL     OW93172  11.614   2.869   4.564  0.1338  0.2911  0.0723
60953SOL    HW193173  11.672   2.859   4.639 -1.8819 -3.0418  1.4257
60953SOL    HW293174  11.564   2.949   4.583  1.2565  0.7777  1.0841
60954SOL     OW93175  12.137  11.615   1.178  0.2710 -0.0082  0.3994
60954SOL    HW193176  12.194  11.692   1.172 -0.4063  0.4201 -0.9969
60954SOL    HW293177  12.133  11.596   1.272  1.3766  0.9413  0.6738
60955SOL     OW93178   5.857   6.090   8.851  0.1692  0.1672 -0.0147
60955SOL    HW193179   5.802   6.168   8.843 -0.4468 -0.1505  0.9422
60955SOL    HW293180   5.926   6.116   8.912  0.3328  0.1688 -0.2028
60956SOL     OW93181   9.252   8.777  10.207  0.1138  0.4430 -0.0203
60956SOL    HW193182   9.203   8.699  10.181  0.4680  0.3534 -0.4317
60956SOL    HW293183   9.239   8.783  10.301 -0.6608  0.4026 -0.1174
60957SOL     OW93184   4.471   7.192   3.557  0.3594 -0.0480  0.3203
60957SOL    HW193185   4.492   7.224   3.469  1.6202 -1.4374  0.0643
60957SOL    HW293186   4.545   7.220   3.611 -0.0079  0.0789  0.7622
60958SOL     OW93187   3.315   0.434  11.306  0.1941  0.0432  0.1449
60958SOL    HW193188   3.377   0.435  11.380  1.5123  0.4320 -0.9174
60958SOL    HW293189   3.230   0.452  11.346  0.6799 -0.9592  1.7202
60959SOL     OW93190   4.039   9.822   3.137 -0.3038  0.1734 -0.1149
60959SOL    HW193191   4.040   9.783   3.224  0.1583  2.3264  0.9228
60959SOL    HW293192   3.947   9.838   3.118 -0.3425  0.7541  0.5185
60960SOL     OW93193  12.100  11.075   7.424  0.2788 -0.3173 -0.1334
60960SOL    HW193194  12.103  11.163   7.462 -0.5721 -0.3282 -0.0338
60960SOL    HW293195  12.185  11.066   7.380  1.4620 -0.4224  2.0091
60961SOL     OW93196   2.703   8.335   8.423 -0.4918  0.1988  0.5508
60961SOL    HW193197   2.699   8.252   8.471  0.2332  0.6387  1.3826
60961SOL    HW293198   2.636   8.390   8.463 -1.2950 -0.1321 -0.3109
60962SOL     OW93199  12.109  10.395   8.829  0.4193  0.8123  0.2475
60962SOL    HW193200  12.092  10.308   8.792  0.5946  0.6982  0.4324
60962SOL    HW293201  12.026  10.442   8.819  0.4725  0.7893 -0.3108
60963SOL     OW93202   7.963   5.116   5.486  0.2741 -0.0941  0.3431
60963SOL    HW193203   7.933   5.198   5.524  2.0132 -0.0257  1.7097
60963SOL    HW293204   8.022   5.142   5.415 -2.0677 -0.2297 -1.8151
60964SOL     OW93205  11.813   3.727   6.004 -0.4585  0.0341 -0.4164
60964SOL    HW193206  11.750   3.692   5.940 -0.5041  2.4497 -1.7925
60964SOL    HW293207  11.898   3.710   5.964 -0.0428 -3.2864  1.4720
60965SOL     OW93208   7.721   1.002  11.611 -0.0980 -0.3220 -0.4992
60965SOL    HW193209   7.640   0.964  11.575 -0.6477 -1.4523  1.7372
60965SOL    HW293210   7.791   0.959  11.563 -0.7859 -0.1901 -1.6710
60966SOL     OW93211   6.633   2.330   3.770  0.4850  0.4262  0.2960
60966SOL    HW193212   6.585   2.375   3.700 -0.1631 -1.3847 -0.4662
60966SOL    HW293213   6.712   2.384   3.782  0.9511  0.4681 -2.2965
60967SOL     OW93214   4.664  11.315  10.037 -0.9126 -0.1474 -0.5681
60967SOL    HW193215   4.734  11.356   9.985 -0.1526  0.4336  0.8588
60967SOL    HW293216   4.641  11.237   9.987  0.2204  0.0530 -1.4738
60968SOL     OW93217   7.353   6.116   6.550 -0.4974 -0.1382  0.3624
60968SOL    HW193218   7.263   6.121   6.517 -0.3063 -2.7091 -0.7492
60968SOL    HW293219   7.391   6.201   6.527 -2.0986  0.3069 -0.8297
60969SOL     OW93220  10.389  11.068   3.266  0.0788  0.2033  0.3185
60969SOL    HW193221  10.338  10.999   3.222  0.9715  0.4086 -1.0676
60969SOL    HW293222  10.389  11.041   3.358 -0.8188 -0.8740  0.0319
60970SOL     OW93223   5.021   2.187   0.767 -0.1239 -0.1865 -0.2625
60970SOL    HW193224   4.926   2.184   0.772 -0.1155 -1.8402 -0.5816
60970SOL    HW293225   5.042   2.159   0.678  0.6545  0.9919 -0.4797
60971SOL     OW93226   3.726  12.651   8.252  0.2464 -0.5185  0.1535
60971SOL    HW193227   3.727  12.734   8.204  0.7972 -0.6998 -0.1546
60971SOL    HW293228   3.726  12.677   8.344  1.4552 -0.1618  0.0776
60972SOL     OW93229   7.012  12.652  12.032  0.8522  0.2374  0.3449
60972SOL    HW193230   6.931  12.606  12.009  0.7693 -0.0602  1.2217
60972SOL    HW293231   7.052  12.674  11.947 -0.7078  1.3971 -0.1457
60973SOL     OW93232  11.818   9.888   8.450  0.1212  0.0933 -0.8428
60973SOL    HW193233  11.888   9.845   8.499 -0.1990  0.2475 -0.2317
60973SOL    HW293234  11.836   9.868   8.358  0.2419 -0.9392 -0.6015
60974SOL     OW93235   1.610   2.795   1.026  0.3576  0.2684 -0.3430
60974SOL    HW193236   1.594   2.863   0.962  0.6821  0.5005 -0.1799
60974SOL    HW293237   1.645   2.841   1.103  2.2426 -0.2525 -0.8359
60975SOL     OW93238   4.123   0.271   2.819  0.6444  0.4675  0.1088
60975SOL    HW193239   4.087   0.271   2.730 -0.4839 -1.8032  0.4982
60975SOL    HW293240   4.181   0.195   2.822 -0.1562 -0.1176  1.6037
60976SOL     OW93241   0.784  10.438   4.842  0.0674  0.4420 -0.3576
60976SOL    HW193242   0.798  10.403   4.754 -3.0736  0.4977 -0.9885
60976SOL    HW293243   0.767  10.531   4.828  0.6386  0.6781  0.4620
60977SOL     OW93244   5.786   9.330   6.840 -0.5568 -0.4022 -0.0822
60977SOL    HW193245   5.708   9.297   6.886  0.0021 -2.8656 -0.7458
60977SOL    HW293246   5.829   9.387   6.903 -1.7225 -0.8072  1.1242
60978SOL     OW93247  11.074   0.142  10.426 -0.5946  0.3215  0.1572
60978SOL    HW193248  10.995   0.196  10.421 -1.5659 -0.8723  1.5441
60978SOL    HW293249  11.045   0.056  10.396  0.5137  0.1713 -0.5112
60979SOL     OW93250   4.321  12.966  10.252  0.2297  0.8489 -0.5135
60979SOL    HW193251   4.255  12.979  10.184  0.8826  0.5292 -1.2098
60979SOL    HW293252   4.391  13.027  10.230  0.0356  1.4368  0.4229
60980SOL     OW93253   3.099  12.295   3.281 -0.0107 -0.0409 -0.3156
60980SOL    HW193254   3.141  12.317   3.365  0.4102 -0.4200 -0.4208
60980SOL    HW293255   3.007  12.283   3.303 -0.7155  3.6998 -0.5520
60981SOL     OW93256   4.654   4.922   7.228  0.3062 -0.1314 -0.0950
60981SOL    HW193257   4.638   4.829   7.248  0.7501 -0.2077 -0.0669
60981SOL    HW293258   4.722   4.920   7.160 -0.9979  0.1328 -1.4583
60982SOL     OW93259  10.232  12.360   4.700 -0.9336  0.2288 -0.2626
60982SOL    HW193260  10.271  12.313   4.773 -1.1611 -0.2203 -0.4253
60982SOL    HW293261  10.162  12.412   4.740 -0.0368  1.2130  0.0610
60983SOL     OW93262   4.742   6.713   6.206  0.1848 -0.2567 -0.1836
60983SOL    HW193263   4.832   6.699   6.237  0.2511 -1.2916 -0.8114
60983SOL    HW293264   4.712   6.627   6.180 -0.5584  0.2867 -1.1791
60984SOL     OW93265   6.262   4.822   8.544 -0.2709 -0.0046  0.1057
60984SOL    HW193266   6.219   4.889   8.490 -0.3518 -1.9018 -2.3930
60984SOL    HW293267   6.324   4.780   8.484  1.6799 -0.4581  2.3288
60985SOL     OW93268  12.231   8.485   8.475  0.4170 -0.1158  0.0175
60985SOL    HW193269  12.173   8.557   8.501  2.4881  1.3798  0.7706
60985SOL    HW293270  12.206   8.413   8.532 -0.4444  0.6078  0.5901
60986SOL     OW93271   0.467   1.351   4.902 -0.2034 -1.1357 -0.2020
60986SOL    HW193272   0.417   1.426   4.870 -0.1438 -0.4763  1.1786
60986SOL    HW293273   0.402   1.281   4.910 -1.1367 -0.0879  2.2604
60987SOL     OW93274   5.726   7.424   2.435 -0.3484  0.1865 -0.4630
60987SOL    HW193275   5.703   7.389   2.349 -2.0096  0.0195  0.0087
60987SOL    HW293276   5.648   7.473   2.462 -0.4436 -0.9907  1.5653
60988SOL     OW93277   5.493  11.717  11.130  0.1619  0.2225  0.4026
60988SOL    HW193278   5.450  11.780  11.188 -1.2182 -0.6207  0.3320
60988SOL    HW293279   5.460  11.632  11.159 -0.5424 -0.2182 -1.5605
60989SOL     OW93280   4.304   1.091   8.851  0.3440 -0.1658  0.2898
60989SOL    HW193281   4.365   1.156   8.816  1.2234 -0.1463  1.7550
60989SOL    HW293282   4.252   1.139   8.915 -0.3853 -0.4651 -0.0719
60990SOL     OW93283   6.232  10.189   8.831  0.2921 -0.0849 -0.2734
60990SOL    HW193284   6.270  10.139   8.759  0.2306 -0.3987 -0.0894
60990SOL    HW293285   6.298  10.184   8.901  0.7831  1.0191 -0.6247
60991SOL     OW93286  10.803   7.928   1.405 -0.2543  0.4349  0.0431
60991SOL    HW193287  10.845   7.978   1.475 -0.1253  0.0084  0.2771
60991SOL    HW293288  10.876   7.887   1.358 -0.4296 -1.2694  1.1727
60992SOL     OW93289   6.382   7.829   7.868  0.0493  0.1341  0.1525
60992SOL    HW193290   6.405   7.767   7.937 -1.3833  0.1258  0.6483
60992SOL    HW293291   6.339   7.901   7.913  0.3071  0.7741 -0.5968
60993SOL     OW93292   3.823   2.582   6.292 -0.0560 -0.3160 -0.1541
60993SOL    HW193293   3.774   2.502   6.311  1.4995 -1.0264  1.1478
60993SOL    HW293294   3.843   2.576   6.198 -2.9045  0.3221 -0.8888
60994SOL     OW93295   2.176   8.097  10.577  0.6776 -0.2386  0.4709
60994SOL    HW193296   2.252   8.043  10.555  0.4462 -0.4636  0.2098
60994SOL    HW293297   2.126   8.045  10.639  0.5535 -0.2422  0.3693
60995SOL     OW93298  12.564   3.076  11.035  0.5070 -0.1202 -0.3641
60995SOL    HW193299  12.546   2.988  10.999  2.5598 -0.2858 -1.1195
60995SOL    HW293300  12.567   3.133  10.958  0.7644  0.3186 -0.0328
60996SOL     OW93301   9.462   2.857   2.732 -0.3193  0.1562 -0.0112
60996SOL    HW193302   9.414   2.798   2.790 -1.2362  1.1032  0.2263
60996SOL    HW293303   9.485   2.803   2.656  0.9770 -1.1347  1.2293
60997SOL     OW93304   7.838  11.835   0.682  0.2129  0.1887  0.0493
60997SOL    HW193305   7.774  11.831   0.611  0.1234 -1.0902  0.1877
60997SOL    HW293306   7.796  11.788   0.754  1.1188 -0.2352  0.3019
60998SOL     OW93307  10.453   4.708   2.431  0.1607 -0.6904  0.2100
60998SOL    HW193308  10.376   4.710   2.488  0.4275 -1.7815  0.6392
60998SOL    HW293309  10.424   4.748   2.349 -0.5054  0.0151  0.7802
60999SOL     OW93310   1.304   0.871   1.096  0.4403 -0.3072 -0.2825
60999SOL    HW193311   1.247   0.941   1.064  1.5154  2.3448  3.0226
60999SOL    HW293312   1.252   0.828   1.164  1.2980  0.2032  0.7169
61000SOL     OW93313   0.576  11.867   1.413 -0.0960  0.1870  0.0222
61000SOL    HW193314   0.564  11.878   1.319 -0.8727  1.6034  0.2470
61000SOL    HW293315   0.671  11.862   1.425  0.3141  3.6364 -0.5821
61001SOL     OW93316   5.370  12.031   0.504 -0.2510  0.1630 -0.3339
61001SOL    HW193317   5.378  11.981   0.423 -2.0511 -0.6326 -0.0591
61001SOL    HW293318   5.420  12.111   0.488  0.9698 -0.7944 -1.5299
61002SOL     OW93319   8.516   9.727   3.304  0.2316 -0.8270 -0.1935
61002SOL    HW193320   8.571   9.739   3.381 -0.4888  1.1263  0.0683
61002SOL    HW293321   8.460   9.805   3.301 -0.9467 -1.6550 -1.7308
61003SOL     OW93322   9.453   9.219   4.723 -0.4066 -0.1873 -0.4954
61003SOL    HW193323   9.431   9.168   4.644  0.2855 -0.9345 -0.2207
61003SOL    HW293324   9.543   9.194   4.743 -0.0261  1.1921 -0.3672
61004SOL     OW93325  11.864   1.616   6.705  0.3793  0.2675  0.4020
61004SOL    HW193326  11.844   1.632   6.613 -1.2439  4.3170  1.2644
61004SOL    HW293327  11.779   1.599   6.746  0.6815  1.4189  1.5743
61005SOL     OW93328   0.844  11.963   4.544  0.3673 -0.1795 -0.1708
61005SOL    HW193329   0.762  11.953   4.495  1.3038 -0.3564 -1.7451
61005SOL    HW293330   0.872  12.053   4.526  1.3904 -0.6599 -1.0752
61006SOL     OW93331   3.984   1.190   0.340  0.4822  0.4760 -0.4465
61006SOL    HW193332   3.915   1.255   0.338 -0.9535 -0.8745  1.7274
61006SOL    HW293333   4.061   1.238   0.371 -0.0897  1.4767 -0.5238
61007SOL     OW93334  10.947   1.693   9.914  0.4796  0.4044 -0.6023
61007SOL    HW193335  10.855   1.689   9.941  0.4207  0.2982 -0.8142
61007SOL    HW293336  10.952   1.633   9.840  1.0353 -0.7348  0.3219
61008SOL     OW93337   6.128   7.764   9.162  0.0405 -0.0614  0.2222
61008SOL    HW193338   6.045   7.811   9.152  0.8436  1.1614 -1.2596
61008SOL    HW293339   6.167   7.800   9.242  0.3631  1.4557 -0.5668
61009SOL     OW93340   7.826   2.189   2.359 -0.0519  0.1636  0.6254
61009SOL    HW193341   7.796   2.120   2.300  1.3883 -0.6485  0.8008
61009SOL    HW293342   7.888   2.239   2.307  0.4314  0.0862  1.1226
61010SOL     OW93343   2.831   4.337   5.555  0.1088  0.7980 -0.0375
61010SOL    HW193344   2.909   4.383   5.525  0.3185  0.4719 -0.0021
61010SOL    HW293345   2.760   4.398   5.540  0.4103  1.2100  0.2028
61011SOL     OW93346   9.177   0.266   6.255 -0.0876 -0.5106  0.1981
61011SOL    HW193347   9.239   0.208   6.299 -0.3210 -2.7837 -2.2025
61011SOL    HW293348   9.197   0.256   6.162 -2.2617  0.8229 -0.4941
61012SOL     OW93349   1.794   1.584   1.388  0.3200  0.5246 -1.0475
61012SOL    HW193350   1.780   1.670   1.349 -1.4471  1.0885  0.6620
61012SOL    HW293351   1.706   1.554   1.412  1.0430 -1.1134 -0.2988
61013SOL     OW93352   2.906   4.669   7.872 -0.5733 -0.5225 -0.8618
61013SOL    HW193353   2.966   4.623   7.930 -0.2687 -0.5329 -1.1814
61013SOL    HW293354   2.838   4.703   7.930 -0.2223 -0.4526 -0.4875
61014SOL     OW93355   7.131   1.001  12.076  0.3522 -0.6465 -0.4188
61014SOL    HW193356   7.224   0.977  12.079  0.5087 -0.1542 -1.0346
61014SOL    HW293357   7.128   1.089  12.114  0.4064  0.0463 -1.9421
61015SOL     OW93358   6.193  11.804   1.603 -0.1735  0.2298  0.1623
61015SOL    HW193359   6.114  11.814   1.550  0.4553 -0.9230 -1.0431
61015SOL    HW293360   6.195  11.712   1.627  1.1415  0.0950 -0.3805
61016SOL     OW93361   6.597   0.388   3.047 -0.0915  0.6330  0.0235
61016SOL    HW193362   6.638   0.390   3.134 -1.6880 -0.4519  0.8433
61016SOL    HW293363   6.512   0.347   3.062  0.3754 -1.4239 -2.3756
61017SOL     OW93364   6.437   1.255   6.429  0.0681  0.7058  0.2603
61017SOL    HW193365   6.384   1.311   6.373 -0.2373 -0.1859 -0.3695
61017SOL    HW293366   6.527   1.282   6.413 -0.1645  2.5973  1.7332
61018SOL     OW93367   6.401   0.177   1.995 -0.0598  0.1079 -0.1163
61018SOL    HW193368   6.340   0.220   2.056 -0.0997 -0.8076  0.4993
61018SOL    HW293369   6.362   0.191   1.909  0.3645  2.0499 -0.0497
61019SOL     OW93370   3.110  10.500  10.965 -0.7145  0.3324 -0.2568
61019SOL    HW193371   3.141  10.484  10.876  0.2924 -1.1682  0.3347
61019SOL    HW293372   3.034  10.442  10.974 -2.0761  1.9719 -0.7810
61020SOL     OW93373  11.076   6.908   8.075 -0.2147  0.3396 -0.0934
61020SOL    HW193374  11.077   6.904   8.171  0.3639  2.0129 -0.0097
61020SOL    HW293375  11.164   6.936   8.051 -0.6771  0.9879 -1.0676
61021SOL     OW93376   0.912   7.709   7.376 -0.1738 -0.5072  0.3306
61021SOL    HW193377   0.973   7.686   7.445  0.4720  0.4798  0.1167
61021SOL    HW293378   0.939   7.658   7.300  1.9589  1.6356 -0.4820
61022SOL     OW93379   9.036   9.099   2.831  0.2086  0.3444 -0.2446
61022SOL    HW193380   8.981   9.171   2.864  0.7431  0.1817  1.0534
61022SOL    HW293381   9.050   9.043   2.907 -1.4343 -1.9886 -1.5474
61023SOL     OW93382   6.878   1.997   0.731  0.2713 -0.4573  0.0755
61023SOL    HW193383   6.875   1.959   0.819 -0.2289  1.4555  0.9495
61023SOL    HW293384   6.922   2.082   0.743  2.1778 -1.0456 -1.9215
61024SOL     OW93385   4.701   9.967   5.289  0.6877  0.3137  0.2477
61024SOL    HW193386   4.611   9.969   5.322  0.5168  2.6458 -0.1411
61024SOL    HW293387   4.715   9.877   5.261 -1.1321 -0.3684  1.3400
61025SOL     OW93388  10.520   6.168   7.829  0.0501 -0.0043  0.2318
61025SOL    HW193389  10.614   6.181   7.837 -0.3368  3.1348  0.8899
61025SOL    HW293390  10.491   6.147   7.918 -0.0717  0.8372  0.3969
61026SOL     OW93391   3.472   2.845   1.731  0.0569  0.2195  0.5797
61026SOL    HW193392   3.458   2.803   1.646  3.5543  0.9920 -0.5299
61026SOL    HW293393   3.542   2.794   1.772 -0.2393  1.0150  2.1379
61027SOL     OW93394   7.745   1.410   0.080 -0.0374 -0.6886  0.0819
61027SOL    HW193395   7.654   1.423   0.104 -0.0904 -2.2964  0.8587
61027SOL    HW293396   7.769   1.325   0.118  1.3307 -1.0216 -1.4021
61028SOL     OW93397   0.298   9.287  12.188 -0.0829  0.0350 -0.4287
61028SOL    HW193398   0.249   9.256  12.111  0.1138  0.6019 -0.7909
61028SOL    HW293399   0.294   9.215  12.250 -0.1903 -0.4552 -1.0015
61029SOL     OW93400  10.423   4.292  10.043 -0.1412  0.3731 -0.1012
61029SOL    HW193401  10.413   4.387  10.049 -1.3664  0.2051  0.8985
61029SOL    HW293402  10.517   4.278  10.035  0.1531  1.6373  0.8658
61030SOL     OW93403  10.671   1.157   9.126  0.0268  0.2662 -0.1188
61030SOL    HW193404  10.621   1.078   9.147  0.8168  0.4645  2.9123
61030SOL    HW293405  10.607   1.216   9.086 -0.8241 -1.4621 -1.4420
61031SOL     OW93406   1.424   1.044   3.467  0.1491  0.1782  0.0991
61031SOL    HW193407   1.368   1.105   3.515  2.3390  1.5708  1.0434
61031SOL    HW293408   1.457   1.095   3.393  1.8324  0.1265  0.7738
61032SOL     OW93409   1.725  12.903   8.338  0.0066 -0.4787  0.5301
61032SOL    HW193410   1.647  12.900   8.282 -0.0010 -0.5990  0.5468
61032SOL    HW293411   1.784  12.839   8.300 -0.2647 -1.0506  1.0525
61033SOL     OW93412   8.943  10.591   2.945  0.0960  0.9650  0.2460
61033SOL    HW193413   8.944  10.628   2.856  0.7413  1.6031  0.5085
61033SOL    HW293414   8.880  10.645   2.992  0.1767  0.9936  0.3215
61034SOL     OW93415   9.875  12.057   6.399 -0.1317  0.6058  0.2076
61034SOL    HW193416   9.822  12.136   6.408 -2.1138 -0.8132  1.8068
61034SOL    HW293417   9.867  12.033   6.307  0.8485  2.4357 -0.4128
61035SOL     OW93418   0.425   0.994   4.690  0.7011 -0.1448 -0.1437
61035SOL    HW193419   0.511   1.034   4.684  0.2125  1.0237  0.3311
61035SOL    HW293420   0.442   0.900   4.689  1.8150  0.0302 -2.1473
61036SOL     OW93421  10.683  11.954   7.160  0.1299  0.3265 -0.8164
61036SOL    HW193422  10.778  11.948   7.171  0.0367 -1.3527 -0.7074
61036SOL    HW293423  10.650  11.975   7.247  0.4562  2.0526 -1.0792
61037SOL     OW93424  10.290   8.248   4.607  0.2665  0.7559 -0.0150
61037SOL    HW193425  10.275   8.258   4.513 -1.2412  0.4046  0.1734
61037SOL    HW293426  10.232   8.177   4.634  2.6323 -1.0309  0.7297
61038SOL     OW93427  12.024   1.541  11.427  0.0427 -0.3279 -0.3648
61038SOL    HW193428  11.952   1.604  11.430  0.2824 -0.0750  0.3773
61038SOL    HW293429  12.058   1.539  11.516  1.1238 -0.2510 -0.7593
61039SOL     OW93430   1.671   1.500   8.509 -0.0352  0.5001  0.0202
61039SOL    HW193431   1.595   1.489   8.566 -1.0362  0.6119 -1.2746
61039SOL    HW293432   1.657   1.582   8.463  0.5816  0.2423 -0.6620
61040SOL     OW93433   0.317   9.408   9.339 -0.0182  0.1943  0.1749
61040SOL    HW193434   0.231   9.445   9.360 -1.0948 -1.7511 -0.4540
61040SOL    HW293435   0.299   9.315   9.325  1.9941 -0.0442 -1.2170
61041SOL     OW93436   4.287   8.929   3.381  0.6860  0.2458 -0.3381
61041SOL    HW193437   4.237   8.880   3.315  1.7872 -0.1180 -0.9155
61041SOL    HW293438   4.354   8.976   3.331  2.6941 -1.4289  0.6208
61042SOL     OW93439   9.638   7.040   6.412 -0.0332 -1.0976 -0.0108
61042SOL    HW193440   9.697   7.105   6.449 -0.8812  0.0497 -0.6293
61042SOL    HW293441   9.692   6.961   6.403  0.9801 -0.5235  0.8379
61043SOL     OW93442   2.007   9.080   7.343 -0.8982  0.3638  0.2610
61043SOL    HW193443   2.042   9.045   7.425 -0.2760  0.2796 -0.0327
61043SOL    HW293444   1.918   9.047   7.338 -0.8058  0.0462  0.7108
61044SOL     OW93445  11.033  10.745   5.826  0.3760 -0.3559  0.0488
61044SOL    HW193446  11.043  10.838   5.847 -0.4878  0.4853 -2.7723
61044SOL    HW293447  11.119  10.717   5.796  0.1546  0.2093 -1.2077
61045SOL     OW93448   4.293   2.050   3.272  0.0973  0.5722  0.6273
61045SOL    HW193449   4.200   2.071   3.280 -0.2236 -0.2662 -0.6069
61045SOL    HW293450   4.334   2.132   3.248 -0.4135  0.8235  0.6023
61046SOL     OW93451   4.059   7.372   7.527 -0.0902 -0.1488  0.1833
61046SOL    HW193452   4.094   7.294   7.483 -0.5734 -0.2539 -0.0190
61046SOL    HW293453   4.063   7.441   7.462 -2.1159 -0.6332 -0.5239
61047SOL     OW93454   2.520  11.561   9.523 -0.5389 -0.7312 -0.4435
61047SOL    HW193455   2.560  11.541   9.438 -1.2185  0.0417 -0.9687
61047SOL    HW293456   2.592  11.558   9.585 -0.1045 -1.7828 -0.9607
61048SOL     OW93457   0.040   7.189  11.910  0.3781 -0.4159 -0.1862
61048SOL    HW193458   0.045   7.212  12.002 -1.5230 -0.3374 -0.0660
61048SOL    HW293459   0.092   7.256  11.865 -0.7858  1.0930  0.6230
61049SOL     OW93460   4.786   2.626   3.080 -0.3928  0.0949 -0.0678
61049SOL    HW193461   4.862   2.665   3.037 -0.2908 -2.3801 -2.3725
61049SOL    HW293462   4.815   2.612   3.170  1.4195  0.4611 -0.5458
61050SOL     OW93463   9.400   9.229   6.285  0.2847 -0.7907 -0.7235
61050SOL    HW193464   9.373   9.311   6.327 -0.7086 -1.0434 -0.8265
61050SOL    HW293465   9.321   9.199   6.240  0.5129 -2.0422 -0.3178
61051SOL     OW93466   9.146  12.591   9.123  0.1820 -0.1639  0.0722
61051SOL    HW193467   9.217  12.541   9.163 -0.2641  0.0634  1.1974
61051SOL    HW293468   9.098  12.527   9.070  1.2493 -0.3032 -0.7772
61052SOL     OW93469   9.693   0.011   1.077 -0.1814  0.3457 -0.0292
61052SOL    HW193470   9.772   0.064   1.089 -0.0417  0.3433 -0.8822
61052SOL    HW293471   9.716  -0.050   1.006 -1.1593  0.7791 -0.7363
61053SOL     OW93472  12.756   0.577   4.421  0.0164  0.0767  0.4406
61053SOL    HW193473  12.813   0.508   4.456  1.3633 -0.3674 -2.3314
61053SOL    HW293474  12.817   0.644   4.389 -1.2115  1.5908  1.1617
61054SOL     OW93475   9.912   9.306   1.451  0.2326  0.0506 -0.2267
61054SOL    HW193476   9.929   9.393   1.414  1.7255  0.0043  0.2704
61054SOL    HW293477   9.934   9.246   1.380  3.4838 -0.0556  0.7261
61055SOL     OW93478   1.021   7.849   7.681  0.4412  0.0447  0.3473
61055SOL    HW193479   1.019   7.945   7.676  1.7092  0.1053  0.8323
61055SOL    HW293480   1.053   7.822   7.595 -0.8133 -0.0050 -0.1247
61056SOL     OW93481  10.480   7.967   0.540 -0.8392 -0.1176  0.0739
61056SOL    HW193482  10.441   8.022   0.472 -0.6660 -1.2326 -0.9428
61056SOL    HW293483  10.462   7.878   0.512 -0.0895 -0.6091  1.1100
61057SOL     OW93484   5.353  11.365   6.916  0.1001  0.1030 -0.2152
61057SOL    HW193485   5.273  11.412   6.938 -0.2030 -0.8254  0.7251
61057SOL    HW293486   5.414  11.434   6.888 -0.3299  1.0680  1.1248
61058SOL     OW93487   5.273   0.232  12.178  0.0352  0.3323 -0.5467
61058SOL    HW193488   5.280   0.210  12.085 -0.2180  0.5285 -0.6154
61058SOL    HW293489   5.206   0.301  12.181 -0.7984 -0.4787 -0.1014
61059SOL     OW93490   2.948   8.276   0.910  0.3601 -0.5945 -0.1109
61059SOL    HW193491   2.920   8.331   0.838  0.4606 -1.3123 -0.7080
61059SOL    HW293492   2.925   8.187   0.883 -0.3124 -0.8088  1.0740
61060SOL     OW93493   9.605  12.895   4.760 -0.3980 -0.0990  0.0913
61060SOL    HW193494   9.594  12.880   4.854 -0.4802  0.8169  0.2336
61060SOL    HW293495   9.646  12.981   4.754  0.7596 -0.6817 -0.6764
61061SOL     OW93496   0.683   8.789  11.627  0.1781  0.0441 -0.4845
61061SOL    HW193497   0.716   8.770  11.715  2.0011  2.0316 -0.6471
61061SOL    HW293498   0.649   8.879  11.633  1.8214  0.8367 -2.1223
61062SOL     OW93499   4.003   6.153   9.666  0.6338  0.3490 -0.1973
61062SOL    HW193500   3.947   6.150   9.589  0.6937  1.2570 -0.2889
61062SOL    HW293501   4.072   6.090   9.647 -1.3131 -2.2350  0.7243
61063SOL     OW93502   1.348   3.190   9.746  0.1989  0.4112 -0.2910
61063SOL    HW193503   1.302   3.158   9.824  2.0164 -0.2549  0.5408
61063SOL    HW293504   1.297   3.267   9.720 -2.4229 -1.2542 -0.4775
61064SOL     OW93505   4.665   1.177  12.538 -0.4574  0.3901 -0.0460
61064SOL    HW193506   4.624   1.125  12.469 -0.2153  2.1966 -1.6223
61064SOL    HW293507   4.595   1.193  12.601 -0.6542 -1.3754  0.2402
61065SOL     OW93508   2.446   1.737  11.192 -0.1624 -0.9289 -0.2216
61065SOL    HW193509   2.457   1.694  11.276 -0.0154 -0.5280 -0.0311
61065SOL    HW293510   2.534   1.741  11.155  0.5559  2.5198  1.4239
61066SOL     OW93511   7.307  11.841  11.185 -0.1045  0.2544  0.2220
61066SOL    HW193512   7.250  11.875  11.255  1.3509  4.1344 -0.1926
61066SOL    HW293513   7.250  11.837  11.108 -0.2859  2.5861  0.1594
61067SOL     OW93514   4.310   2.216   2.802 -0.4433 -0.4478 -0.5077
61067SOL    HW193515   4.350   2.129   2.803  1.4100  0.3593 -0.6266
61067SOL    HW293516   4.384   2.277   2.796 -1.7168  1.1278 -1.1167
61068SOL     OW93517  11.751   3.999   0.351  0.3003 -0.1294  0.6932
61068SOL    HW193518  11.841   3.968   0.346 -0.0352 -1.0526  0.0285
61068SOL    HW293519  11.706   3.954   0.279 -0.3793  1.4020  0.1122
61069SOL     OW93520   4.409   3.861   0.786 -0.1370  0.6641 -0.3377
61069SOL    HW193521   4.498   3.891   0.770  0.5952 -1.3276 -0.2933
61069SOL    HW293522   4.385   3.815   0.705 -0.8230  0.4741 -0.0335
61070SOL     OW93523   8.466   2.488   7.099  0.4023 -0.4466 -0.1615
61070SOL    HW193524   8.509   2.548   7.039  0.5436 -1.4910 -1.1474
61070SOL    HW293525   8.525   2.413   7.103 -0.5495 -1.2192 -0.2719
61071SOL     OW93526   4.132   9.211  10.638  0.2876 -0.0278 -0.2047
61071SOL    HW193527   4.110   9.144  10.573  4.9040 -3.3037  1.0624
61071SOL    HW293528   4.063   9.205  10.703  0.2660 -3.4597 -0.3424
61072SOL     OW93529   3.123   1.635  10.034  0.5827  0.4425 -0.0156
61072SOL    HW193530   3.035   1.633  10.072  0.7717 -1.0343  0.4138
61072SOL    HW293531   3.135   1.547   9.998  1.8063  0.6997 -0.2644
61073SOL     OW93532   8.112   9.351  11.283  0.4299 -1.1412  0.8209
61073SOL    HW193533   8.034   9.338  11.228  1.1966 -3.8424  0.2127
61073SOL    HW293534   8.077   9.371  11.370 -0.8300  1.3961 -0.1590
61074SOL     OW93535   3.872  11.007   7.998  0.3875  0.2223  0.3408
61074SOL    HW193536   3.871  11.101   7.980 -0.7258  0.0014 -0.8386
61074SOL    HW293537   3.892  11.001   8.092 -0.0393  1.6468  0.5450
61075SOL     OW93538   3.325   3.779  11.579  0.7188  0.1918 -0.4958
61075SOL    HW193539   3.419   3.759  11.583  0.7536  0.2079 -1.0643
61075SOL    HW293540   3.283   3.693  11.572  0.5502  0.0537  1.5705
61076SOL     OW93541   9.661  11.743   3.277 -0.0906 -0.2650  0.0771
61076SOL    HW193542   9.738  11.754   3.222 -0.5904 -0.7643 -0.7438
61076SOL    HW293543   9.694  11.700   3.356  0.9066  1.8634  0.9039
61077SOL     OW93544   3.644   5.775  12.353 -0.4318 -0.2937 -0.2688
61077SOL    HW193545   3.642   5.832  12.277 -1.2765  1.7686  1.2156
61077SOL    HW293546   3.716   5.714  12.337 -1.3209 -0.7058 -3.2046
61078SOL     OW93547   0.443   3.989  10.438 -0.1694  0.3770  0.3112
61078SOL    HW193548   0.377   4.053  10.464 -1.1577 -0.8881  1.0193
61078SOL    HW293549   0.444   3.924  10.508  1.6784  0.2188  0.2071
61079SOL     OW93550   1.705   3.507   6.754  0.2928 -0.1376  0.2318
61079SOL    HW193551   1.780   3.446   6.754 -0.2764 -0.8556  0.8271
61079SOL    HW293552   1.660   3.488   6.672 -0.0362 -0.7293  0.5390
61080SOL     OW93553  11.086   3.467   7.644  0.1147  0.5188 -0.5497
61080SOL    HW193554  11.098   3.438   7.554  0.5056  2.1440 -1.0436
61080SOL    HW293555  11.112   3.559   7.644  0.3715  0.4844  1.2774
61081SOL     OW93556   6.589   6.470   7.728  0.2186  0.6796 -0.1333
61081SOL    HW193557   6.528   6.472   7.654 -0.3697  0.7477  0.3398
61081SOL    HW293558   6.537   6.433   7.800  0.6894  0.9102  0.3286
61082SOL     OW93559   4.123   6.150  10.587 -0.3833  0.1067 -0.0765
61082SOL    HW193560   4.094   6.234  10.552  0.7653  0.1479 -0.9595
61082SOL    HW293561   4.048   6.119  10.639 -1.1713  1.2181 -0.5112
61083SOL     OW93562   2.347   8.348   4.327 -0.1381 -0.1721  0.0664
61083SOL    HW193563   2.411   8.363   4.257  0.8391 -0.2092  0.9263
61083SOL    HW293564   2.262   8.354   4.284  0.4096  0.9034 -0.9173
61084SOL     OW93565   5.892   0.477   5.744  0.1798  0.4792 -0.0906
61084SOL    HW193566   5.977   0.452   5.709 -0.5031 -2.4007  0.1107
61084SOL    HW293567   5.903   0.470   5.839 -0.4037 -0.4695 -0.0823
61085SOL     OW93568   0.648   0.662   4.039  0.0484  0.4614  0.3155
61085SOL    HW193569   0.612   0.695   3.957  0.2220 -0.8186 -0.2924
61085SOL    HW293570   0.742   0.657   4.023 -0.0821 -1.4115 -0.0265
61086SOL     OW93571   3.172   3.693  11.268  0.5715 -0.1717 -0.2690
61086SOL    HW193572   3.165   3.743  11.186 -0.8834  0.3314  0.1305
61086SOL    HW293573   3.177   3.602  11.240  1.8262  0.0865 -0.9610
61087SOL     OW93574   5.031   6.747   6.289 -0.5550 -0.3369  0.1035
61087SOL    HW193575   5.104   6.797   6.252 -0.6985 -0.0152  0.2451
61087SOL    HW293576   5.057   6.655   6.279  0.4767 -0.2073  1.3893
61088SOL     OW93577  11.930   8.470   3.224 -0.3895 -0.1208 -0.7083
61088SOL    HW193578  11.859   8.533   3.229 -1.1748 -0.9573 -1.0983
61088SOL    HW293579  11.930   8.426   3.309 -1.5794 -1.4134 -1.3434
61089SOL     OW93580  10.244  11.073   2.546 -0.4541  0.1636  0.1294
61089SOL    HW193581  10.193  11.060   2.466 -0.1891 -0.7369  0.0985
61089SOL    HW293582  10.334  11.055   2.520 -0.3321  0.1160  0.5770
61090SOL     OW93583   1.897  10.703   7.340 -0.6158 -0.3972 -0.5366
61090SOL    HW193584   1.917  10.790   7.308  1.0189 -0.3204  0.6112
61090SOL    HW293585   1.865  10.716   7.429 -1.5787 -0.9030 -0.7836
61091SOL     OW93586  11.506   6.071   2.541 -0.0509  0.5490 -0.2554
61091SOL    HW193587  11.497   5.979   2.567 -1.1926  0.5424 -0.6233
61091SOL    HW293588  11.455   6.119   2.606 -1.6455  0.6637 -1.5040
61092SOL     OW93589   8.085   8.569   7.239 -0.4525  0.0268  0.2035
61092SOL    HW193590   8.117   8.631   7.174 -1.4511  0.5840  0.2270
61092SOL    HW293591   7.990   8.580   7.239 -0.7146 -1.8911 -0.1890
61093SOL     OW93592   9.187   9.403   6.645  0.2533 -0.2699 -0.3826
61093SOL    HW193593   9.186   9.419   6.739 -2.7509  3.5445 -0.8480
61093SOL    HW293594   9.144   9.318   6.635 -0.7086 -0.0721  1.6028
61094SOL     OW93595   9.760   6.622   8.621  0.6320  0.6332 -0.3714
61094SOL    HW193596   9.853   6.609   8.605  0.5167  0.0091 -0.5469
61094SOL    HW293597   9.725   6.535   8.638  0.3853  1.0251  1.3962
61095SOL     OW93598   6.864  10.484   6.068  0.1425  1.0277  0.0229
61095SOL    HW193599   6.810  10.409   6.046  0.3542  1.0943 -0.7489
61095SOL    HW293600   6.866  10.537   5.988  0.5592  1.5064  0.3415
61096SOL     OW93601   7.682   9.020   7.225  0.0249  0.2275  0.6558
61096SOL    HW193602   7.614   9.086   7.211  0.0176 -0.2167 -2.0758
61096SOL    HW293603   7.762   9.060   7.192  0.3762 -0.4677  0.6420
61097SOL     OW93604   8.000   8.171   8.726  0.6138 -0.4437 -0.0503
61097SOL    HW193605   7.972   8.202   8.640 -2.3595 -1.2393  0.5037
61097SOL    HW293606   8.058   8.097   8.707 -0.1027 -0.6965 -1.4091
61098SOL     OW93607   3.368   2.909   3.384 -0.4099 -0.7968 -0.1212
61098SOL    HW193608   3.281   2.870   3.386  0.2106 -2.2876 -0.3849
61098SOL    HW293609   3.400   2.902   3.474  0.2773 -2.3719 -0.4444
61099SOL     OW93610   6.398   7.336   3.811  0.2941 -0.0664  0.5001
61099SOL    HW193611   6.450   7.265   3.775 -0.1063  0.2042 -0.6434
61099SOL    HW293612   6.386   7.312   3.903  1.7796 -0.5006  0.6064
61100SOL     OW93613   0.138   8.148  10.933  0.3844  0.3314  0.0619
61100SOL    HW193614   0.107   8.156  10.843  1.7295 -1.1547 -0.5943
61100SOL    HW293615   0.143   8.238  10.965 -0.3484  0.8703 -1.2625
61101SOL     OW93616   5.000   4.643   3.334 -0.1581  0.3138 -0.0839
61101SOL    HW193617   4.944   4.650   3.256 -0.9411 -0.4839  0.3869
61101SOL    HW293618   5.021   4.734   3.355 -0.3116  0.5673 -0.9605
61102SOL     OW93619   5.310   0.417   5.709  0.3003 -0.0470 -0.2571
61102SOL    HW193620   5.258   0.373   5.642 -0.0652 -0.5236  0.3240
61102SOL    HW293621   5.378   0.353   5.733 -1.3711 -1.1598  1.9651
61103SOL     OW93622   2.215   4.800   2.830 -0.1119  0.3261 -0.3023
61103SOL    HW193623   2.126   4.778   2.801 -0.5353  0.7026  0.6431
61103SOL    HW293624   2.227   4.750   2.911  1.7990 -2.2816 -2.0416
61104SOL     OW93625   5.536  10.394   2.139  0.0609 -0.1023  0.0627
61104SOL    HW193626   5.580  10.447   2.073  1.5191 -2.2072 -0.7881
61104SOL    HW293627   5.574  10.422   2.222  0.7829  0.2240 -0.3635
61105SOL     OW93628   3.393   1.152  10.258 -0.1261  0.2002  0.0829
61105SOL    HW193629   3.485   1.138  10.235 -0.3717  0.0232 -0.8252
61105SOL    HW293630   3.393   1.232  10.311  0.3289  1.3630 -1.5924
61106SOL     OW93631   1.433   6.571   0.541  0.0385 -0.4879  0.1938
61106SOL    HW193632   1.477   6.588   0.625  1.3340 -2.4394 -0.0135
61106SOL    HW293633   1.376   6.496   0.559  0.0427 -0.6829 -0.5729
61107SOL     OW93634   2.355   1.534   5.929 -0.2384 -0.8100  0.1337
61107SOL    HW193635   2.358   1.508   5.837 -1.6095  0.1641 -0.2144
61107SOL    HW293636   2.345   1.452   5.977 -1.6266 -1.1806 -0.7430
61108SOL     OW93637   2.470   7.943   0.968 -0.8466 -0.3172 -0.4292
61108SOL    HW193638   2.451   7.850   0.982  3.2914 -1.2487  0.5895
61108SOL    HW293639   2.449   7.984   1.052  0.8541 -1.1767  0.4799
61109SOL     OW93640   7.439   7.300   7.977 -0.0243  0.4600  0.1057
61109SOL    HW193641   7.415   7.342   8.060  0.8156  1.4102 -0.1172
61109SOL    HW293642   7.529   7.269   7.990 -0.0749  0.1362 -0.2793
61110SOL     OW93643   9.839   1.904   3.043 -0.6028  0.5215  0.1063
61110SOL    HW193644   9.754   1.884   3.004 -0.7663 -0.3501  0.8781
61110SOL    HW293645   9.894   1.927   2.969 -1.2881  0.2649 -0.4951
61111SOL     OW93646   6.376   6.929   2.268  0.2064  0.2321  0.0570
61111SOL    HW193647   6.445   6.970   2.215  0.8846 -1.9587 -0.8504
61111SOL    HW293648   6.423   6.880   2.335 -0.5672  0.4628  0.7886
61112SOL     OW93649   9.551  10.350  12.033  0.6135  0.8012 -0.1170
61112SOL    HW193650   9.614  10.299  12.085  0.9787  0.5885 -0.7667
61112SOL    HW293651   9.513  10.286  11.972 -0.2380  0.9273  0.2673
61113SOL     OW93652   2.414   7.094   9.386 -0.5189  0.4871  0.3828
61113SOL    HW193653   2.335   7.147   9.377 -0.7488  0.0340 -0.4613
61113SOL    HW293654   2.476   7.133   9.325 -0.5713  0.0181  0.0166
61114SOL     OW93655   9.938   1.231   3.857 -0.6103  0.4217 -0.3116
61114SOL    HW193656   9.896   1.254   3.774 -0.8857 -3.4666 -1.4339
61114SOL    HW293657   9.943   1.136   3.856  0.6748  0.2751  3.5722
61115SOL     OW93658   4.327   7.193   0.866  0.0020  0.1209 -0.5401
61115SOL    HW193659   4.317   7.279   0.824 -0.4224 -0.2104 -1.1282
61115SOL    HW293660   4.334   7.132   0.793 -0.2777 -0.4174 -0.1210
61116SOL     OW93661   5.232   7.033   0.840  0.1528 -0.1479  0.3166
61116SOL    HW193662   5.238   7.121   0.803  0.3184 -1.1563 -2.2657
61116SOL    HW293663   5.147   7.000   0.809  1.3880 -1.9398 -1.4429
61117SOL     OW93664  10.651   3.317  10.311  0.2653 -0.3494  0.2098
61117SOL    HW193665  10.637   3.410  10.333 -1.1472 -0.7716  1.2216
61117SOL    HW293666  10.580   3.296  10.251  0.5401 -0.7924  0.0423
61118SOL     OW93667   1.157  12.847  10.931  0.2331 -0.1616 -0.2579
61118SOL    HW193668   1.242  12.890  10.942  0.7306 -1.2190  0.2942
61118SOL    HW293669   1.149  12.792  11.009 -1.3626  0.5661  0.1197
61119SOL     OW93670   2.070   0.603   2.752  0.3404  0.0323 -0.6389
61119SOL    HW193671   2.162   0.575   2.752 -0.0328 -1.2954 -0.0277
61119SOL    HW293672   2.062   0.656   2.831  0.4848 -0.2599 -0.4217
61120SOL     OW93673   0.055  11.146  11.220 -0.5139  0.4138  0.0346
61120SOL    HW193674   0.109  11.198  11.160 -1.1421  2.4817  1.1506
61120SOL    HW293675   0.093  11.058  11.217  0.2534  0.7688 -2.3806
61121SOL     OW93676   5.416   6.327   2.575 -0.3337 -0.1418  0.0671
61121SOL    HW193677   5.462   6.399   2.532 -0.3956 -0.3333 -0.3315
61121SOL    HW293678   5.324   6.351   2.571 -0.1840  0.9545  2.2114
61122SOL     OW93679   0.726   7.200   8.019 -0.2194 -0.6217 -0.8042
61122SOL    HW193680   0.817   7.197   7.990  1.0690  0.8828  2.4981
61122SOL    HW293681   0.706   7.293   8.026 -1.6192 -0.9269 -0.4567
61123SOL     OW93682  10.834   2.887   3.121 -0.6169 -0.0296 -0.5074
61123SOL    HW193683  10.748   2.877   3.081 -0.3206  1.5085 -1.6080
61123SOL    HW293684  10.894   2.845   3.059 -0.4225  0.1769 -0.4584
61124SOL     OW93685  10.010  12.452  12.926  0.9367 -0.0866 -0.0776
61124SOL    HW193686  10.007  12.547  12.942  0.3588  0.0330 -0.8293
61124SOL    HW293687  10.064  12.418  12.996  2.4525  0.9989 -0.6651
61125SOL     OW93688   0.680  11.053   9.241  0.1599  0.6760 -0.5607
61125SOL    HW193689   0.636  10.996   9.178  1.8273  0.4947 -1.6431
61125SOL    HW293690   0.634  11.039   9.324 -0.4726 -1.0461 -1.1685
61126SOL     OW93691   8.982  12.741   6.827 -0.0771 -0.5618  0.8073
61126SOL    HW193692   8.986  12.778   6.915  1.7235 -2.9584  1.8471
61126SOL    HW293693   9.072  12.714   6.808 -0.6747 -1.2673 -1.2485
61127SOL     OW93694   3.664   2.250   4.959 -0.3835 -0.0908  0.1982
61127SOL    HW193695   3.733   2.309   4.930  0.1501 -1.0994 -0.6364
61127SOL    HW293696   3.610   2.304   5.017 -0.9838  1.7859 -1.9341
61128SOL     OW93697   4.612  10.942   3.888  0.7365 -0.0749  0.3909
61128SOL    HW193698   4.524  10.905   3.873  0.7135  0.4489 -0.9134
61128SOL    HW293699   4.636  10.913   3.976 -1.4601  1.2210  1.4920
61129SOL     OW93700  11.815   3.791  12.899 -0.4637  0.3345 -1.0840
61129SOL    HW193701  11.899   3.834  12.917 -0.5210  0.2090 -0.4800
61129SOL    HW293702  11.749   3.854  12.929 -0.5636  0.1316 -0.8690
61130SOL     OW93703   4.011   8.837  11.802 -0.3123  0.7234 -0.0860
61130SOL    HW193704   3.921   8.806  11.807 -0.4887  0.7022 -2.3793
61130SOL    HW293705   4.005   8.919  11.753  0.8080  1.3723  0.7976
61131SOL     OW93706  12.869   0.149   0.835 -0.6061  0.3252  0.1943
61131SOL    HW193707  12.909   0.197   0.907 -1.6213 -0.8291  1.5676
61131SOL    HW293708  12.776   0.170   0.841 -0.4784  2.2764 -2.4167
61132SOL     OW93709   0.399  11.814   3.905 -0.0564  0.5373 -0.6938
61132SOL    HW193710   0.428  11.896   3.864  2.7513  0.6935  1.3143
61132SOL    HW293711   0.444  11.745   3.855  0.8333  0.5299  0.0877
61133SOL     OW93712   5.711  11.305   2.613  0.7189  0.0201  0.2584
61133SOL    HW193713   5.696  11.398   2.594 -0.0244 -0.4931 -1.8848
61133SOL    HW293714   5.790  11.304   2.666  1.1156  1.8340 -0.2435
61134SOL     OW93715   1.062   9.443   0.135 -0.3258 -0.2239 -0.2189
61134SOL    HW193716   1.048   9.511   0.069 -0.8485  1.9026  1.9602
61134SOL    HW293717   1.154   9.420   0.126  0.0006  1.1551 -0.6968
61135SOL     OW93718   0.678   3.018   2.519 -0.7600 -0.5657  0.0646
61135SOL    HW193719   0.760   3.065   2.537 -0.5290 -1.3575  1.2178
61135SOL    HW293720   0.639   3.065   2.445  1.3981 -1.0150 -1.4530
61136SOL     OW93721   8.084   5.369   4.419 -0.1175 -0.3954 -0.1651
61136SOL    HW193722   8.049   5.427   4.352 -0.6266  0.3445  0.7216
61136SOL    HW293723   8.144   5.423   4.469 -0.5821 -0.6192  0.6604
61137SOL     OW93724   6.773   2.982   0.364 -0.4300  0.9911  0.1275
61137SOL    HW193725   6.839   3.049   0.348  1.5843 -0.5101  1.7211
61137SOL    HW293726   6.746   2.953   0.277 -0.0946  2.6509 -0.5632
61138SOL     OW93727   6.524  12.561   4.940  0.5360 -0.3803  0.2618
61138SOL    HW193728   6.494  12.470   4.940  1.1016 -0.5827 -0.8812
61138SOL    HW293729   6.456  12.609   4.988  0.1709 -1.3763  0.7709
61139SOL     OW93730   2.938   1.986   0.844  0.2799 -0.2186 -0.6234
61139SOL    HW193731   2.978   2.070   0.868  1.2224 -0.4455 -1.3468
61139SOL    HW293732   3.003   1.921   0.870 -0.6420 -0.7821  0.3570
61140SOL     OW93733   9.877   7.646   3.938  0.5760 -0.3098 -0.5105
61140SOL    HW193734   9.919   7.587   3.876 -1.5130 -0.7440 -1.6256
61140SOL    HW293735   9.925   7.633   4.020  1.7759 -1.6594 -1.3712
61141SOL     OW93736   8.807  11.655  12.425  0.4003  0.2977  0.2638
61141SOL    HW193737   8.847  11.740  12.406 -2.0915  1.5154  0.0879
61141SOL    HW293738   8.862  11.619  12.495  1.8129  1.8250  0.0218
61142SOL     OW93739   6.499   1.453   4.807 -0.5109  0.2793 -0.5416
61142SOL    HW193740   6.562   1.432   4.876  0.9759  0.3156 -1.8344
61142SOL    HW293741   6.428   1.390   4.820 -1.0730  1.3068  1.9646
61143SOL     OW93742   9.086   0.512   0.998 -0.0784 -0.2846 -0.3767
61143SOL    HW193743   9.115   0.601   0.974 -0.1686 -0.1175  0.1387
61143SOL    HW293744   9.014   0.494   0.938  0.1315 -0.1270 -0.6825
61144SOL     OW93745   0.813  12.712   3.703 -0.4834  0.2979 -0.3557
61144SOL    HW193746   0.766  12.728   3.785  0.4478  1.7792 -0.0695
61144SOL    HW293747   0.904  12.698   3.730 -0.3474 -0.2372 -1.0709
61145SOL     OW93748   3.316   2.093   9.168 -0.0915 -0.0912 -0.9992
61145SOL    HW193749   3.323   2.173   9.220  3.3867 -1.0669  0.3469
61145SOL    HW293750   3.282   2.027   9.229  0.2790 -0.3669 -1.0850
61146SOL     OW93751   3.428   4.025   3.102 -0.0781 -0.3411  0.5241
61146SOL    HW193752   3.393   4.073   3.177  0.3479  0.3044  0.3105
61146SOL    HW293753   3.350   3.999   3.052 -0.3473 -0.5444  1.0472
61147SOL     OW93754  10.423   8.826   9.047 -0.0699 -0.5907 -0.3705
61147SOL    HW193755  10.505   8.778   9.057 -0.6946 -1.5766  0.1261
61147SOL    HW293756  10.424   8.890   9.119  1.2728  0.9427 -1.6924
61148SOL     OW93757   4.666   2.026   4.303  0.0971  0.1660  0.9624
61148SOL    HW193758   4.726   1.999   4.234  0.2167  2.0629  0.2591
61148SOL    HW293759   4.711   2.099   4.346 -1.7544  1.7875  0.2735
61149SOL     OW93760   7.404  10.181   9.759  0.3528  0.2450  0.1628
61149SOL    HW193761   7.485  10.142   9.726  0.4229  0.1766  0.4048
61149SOL    HW293762   7.391  10.139   9.845 -0.1059  0.0266 -0.0110
61150SOL     OW93763   1.544   0.778   1.851  0.6025 -0.0976  0.2755
61150SOL    HW193764   1.557   0.686   1.873 -0.4205 -0.8243 -1.8634
61150SOL    HW293765   1.590   0.790   1.768  1.4865  1.5964  0.9601
61151SOL     OW93766   8.093   1.390   5.997  0.1010  0.0527  0.0637
61151SOL    HW193767   8.098   1.430   6.084 -0.0994 -0.0771  0.1347
61151SOL    HW293768   8.012   1.424   5.960 -0.4522 -0.8572  0.4088
61152SOL     OW93769  12.279  11.985   2.863  0.0485  0.1680 -0.4616
61152SOL    HW193770  12.215  11.956   2.928 -0.2390  1.1001 -0.3200
61152SOL    HW293771  12.273  11.919   2.794 -0.2413 -0.3778  0.0671
61153SOL     OW93772   9.308   8.907   6.409  0.0868 -0.3209 -0.1670
61153SOL    HW193773   9.387   8.854   6.421  1.2371  1.4875  0.7720
61153SOL    HW293774   9.297   8.913   6.314  0.9780 -0.7582 -0.3074
61154SOL     OW93775   3.904   6.613   7.740  0.4730  0.0472  0.2890
61154SOL    HW193776   3.853   6.633   7.662  0.2092 -0.5688  0.2949
61154SOL    HW293777   3.980   6.671   7.735 -0.1745  0.9047  0.2340
61155SOL     OW93778   6.250   3.915   5.302 -0.0694  0.5657 -0.0447
61155SOL    HW193779   6.239   3.941   5.210 -0.3870 -0.6382 -0.3635
61155SOL    HW293780   6.164   3.928   5.341  0.1942  1.5644  0.2197
61156SOL     OW93781   8.824  10.370   3.380  0.3875 -0.3020 -0.5907
61156SOL    HW193782   8.896  10.431   3.393  2.3397 -2.1412 -1.9594
61156SOL    HW293783   8.844  10.327   3.297 -1.1317 -2.4293  0.0471
61157SOL     OW93784   6.883   8.893   6.000  0.3439 -0.2646 -0.2396
61157SOL    HW193785   6.872   8.986   5.980 -0.3707 -0.1628  0.5467
61157SOL    HW293786   6.830   8.848   5.934  1.4123 -0.1704 -1.1755
61158SOL     OW93787  12.745   4.008   6.159 -0.1474 -0.0180  0.1119
61158SOL    HW193788  12.777   4.099   6.155  1.9399 -0.6752  0.4179
61158SOL    HW293789  12.785   3.966   6.083 -0.1358 -0.9558  0.6305
61159SOL     OW93790   0.571   3.036   9.416  0.0976  0.0504  0.1492
61159SOL    HW193791   0.543   2.987   9.494 -0.1668 -0.7608 -0.4364
61159SOL    HW293792   0.660   3.004   9.400 -0.4955 -1.1770 -0.9270
61160SOL     OW93793   0.269  12.321  12.611  0.5990  0.1351  0.1990
61160SOL    HW193794   0.210  12.277  12.550  1.9079 -1.3021 -0.0798
61160SOL    HW293795   0.332  12.366  12.555  2.0821 -1.5615  0.4185
61161SOL     OW93796  12.922   6.877   5.685 -0.2172 -0.5675 -0.0717
61161SOL    HW193797  12.949   6.796   5.640 -1.4381 -0.5436 -0.9013
61161SOL    HW293798  12.908   6.939   5.614  0.4219  0.3051  0.5467
61162SOL     OW93799   9.142   8.707   2.114 -0.1353 -0.0823 -0.2424
61162SOL    HW193800   9.100   8.789   2.140  1.1248 -0.2046  2.4414
61162SOL    HW293801   9.223   8.704   2.165  1.3026 -1.6518 -2.4417
61163SOL     OW93802   6.957   4.002   1.964  0.2194 -0.0763  0.0413
61163SOL    HW193803   6.912   4.024   2.045  0.5952 -0.3797  0.3422
61163SOL    HW293804   6.946   4.078   1.908 -0.9216 -0.2674 -0.0121
61164SOL     OW93805   3.323   4.034   3.768  0.2165 -0.3559 -0.7259
61164SOL    HW193806   3.410   3.996   3.756  1.7178  1.8310  2.0794
61164SOL    HW293807   3.264   3.959   3.768  2.3361 -2.1164 -0.7353
61165SOL     OW93808   4.600  10.418   4.186  0.4444  0.2742  0.0501
61165SOL    HW193809   4.617  10.496   4.132  2.1824 -0.0974 -0.0003
61165SOL    HW293810   4.637  10.440   4.271 -0.2225 -0.0182  0.4177
61166SOL     OW93811   9.065   7.946  10.158 -0.0904 -0.0592  0.3445
61166SOL    HW193812   9.003   7.877  10.137 -0.4002  0.4381 -0.4134
61166SOL    HW293813   9.150   7.902  10.163 -0.2940 -0.5048 -0.0686
61167SOL     OW93814   9.874   2.349   1.953  0.1181  0.1413 -0.4333
61167SOL    HW193815   9.943   2.369   2.017 -2.1488  1.4997  1.7311
61167SOL    HW293816   9.877   2.422   1.891 -0.7139  1.3939  0.9256
61168SOL     OW93817   6.003   5.534   5.249  0.0913  0.1503  0.6199
61168SOL    HW193818   6.053   5.454   5.264  1.2889  1.0824  1.8830
61168SOL    HW293819   5.964   5.554   5.335 -0.6004  0.6653  0.1959
61169SOL     OW93820   4.578   1.178   6.299 -0.2888  0.3465  0.0659
61169SOL    HW193821   4.503   1.161   6.356  0.6004 -1.0293  0.8840
61169SOL    HW293822   4.586   1.273   6.298 -1.4035  0.4683  0.8261
61170SOL     OW93823   0.022  11.117   3.498 -0.3144  0.1976 -0.3716
61170SOL    HW193824   0.008  11.028   3.465  0.2411 -0.0445  0.0188
61170SOL    HW293825   0.048  11.167   3.420  2.4407 -0.6999 -0.1498
61171SOL     OW93826   1.861   1.970   3.325  0.4923 -0.3411 -0.3148
61171SOL    HW193827   1.790   2.022   3.288  0.5311  1.1732  1.6097
61171SOL    HW293828   1.939   1.998   3.277  0.3559  0.7112  0.0653
61172SOL     OW93829   8.736   8.142   9.984 -0.5104 -0.0546 -0.2170
61172SOL    HW193830   8.695   8.165  10.067  0.6753  0.0367  0.3589
61172SOL    HW293831   8.756   8.048   9.992 -1.4273 -0.3244 -0.8662
61173SOL     OW93832   0.050   5.532   4.688 -0.2524 -0.1085 -0.0512
61173SOL    HW193833  -0.043   5.552   4.681 -0.4525 -0.5222  1.0695
61173SOL    HW293834   0.053   5.453   4.742  0.7609  0.0200  0.1099
61174SOL     OW93835   2.146   8.651   3.219 -0.2839  0.1356  0.1225
61174SOL    HW193836   2.061   8.609   3.205  0.4454 -0.6403 -2.3788
61174SOL    HW293837   2.176   8.676   3.132  2.0112  0.5523  0.9509
61175SOL     OW93838   6.616  10.359   3.885 -0.7591  0.2151  0.7804
61175SOL    HW193839   6.706  10.327   3.879 -1.2912 -1.9246  2.4775
61175SOL    HW293840   6.596  10.394   3.798  1.2243 -0.6340 -0.0717
61176SOL     OW93841   9.860   5.817   8.709 -0.6488 -0.5701 -0.1268
61176SOL    HW193842   9.915   5.756   8.759  2.2852 -0.1211 -2.5331
61176SOL    HW293843   9.816   5.761   8.644 -1.5436 -0.6585  0.5352
61177SOL     OW93844   6.607  11.479   7.318 -0.0415 -0.2187 -0.5640
61177SOL    HW193845   6.567  11.423   7.251 -1.7376  2.1605 -1.6780
61177SOL    HW293846   6.679  11.523   7.272  0.5660 -0.6086 -0.0082
61178SOL     OW93847   0.701   2.771   2.627 -0.6056 -0.3404  0.0762
61178SOL    HW193848   0.753   2.735   2.555  0.1307  0.9165 -0.0329
61178SOL    HW293849   0.671   2.856   2.596 -0.8295 -0.0659  1.0007
61179SOL     OW93850   5.412   0.554  10.584 -0.0046 -0.6365  0.4153
61179SOL    HW193851   5.418   0.620  10.515 -1.0192 -0.2640  0.6651
61179SOL    HW293852   5.485   0.574  10.643  1.0849 -1.1773 -0.7069
61180SOL     OW93853   1.997   2.701   3.343  0.2326  0.4946  0.4639
61180SOL    HW193854   1.936   2.725   3.412  0.9512  2.1230  0.5710
61180SOL    HW293855   2.058   2.640   3.384  0.4625  1.2018  1.1901
61181SOL     OW93856   6.137  11.911   6.490  0.6217 -0.5611 -0.2390
61181SOL    HW193857   6.224  11.950   6.481  0.0948  0.4760 -1.0647
61181SOL    HW293858   6.112  11.887   6.401 -0.7304  0.9800 -0.3223
61182SOL     OW93859   2.398   2.126  12.189 -0.4197 -0.1437 -0.1143
61182SOL    HW193860   2.484   2.157  12.161 -0.1700 -0.4777  0.2780
61182SOL    HW293861   2.366   2.195  12.248 -0.6689  0.2514 -0.7082
61183SOL     OW93862   3.549  12.469   9.371  0.0358 -0.1564 -0.4730
61183SOL    HW193863   3.594  12.553   9.373  0.9606 -0.6305 -0.9259
61183SOL    HW293864   3.482  12.479   9.302  0.4404  0.0619 -0.8370
61184SOL     OW93865   5.803   9.186   2.842 -0.2232  0.0618  0.2521
61184SOL    HW193866   5.890   9.179   2.882 -0.2489 -0.1958  0.2663
61184SOL    HW293867   5.814   9.149   2.755 -0.7326 -1.7318  0.8846
61185SOL     OW93868   7.785   6.745   6.057 -0.3190 -0.3766 -0.5927
61185SOL    HW193869   7.787   6.835   6.091  1.3701 -0.8582  0.6824
61185SOL    HW293870   7.778   6.756   5.962  1.5831  1.1694 -0.6178
61186SOL     OW93871   9.867   7.233   6.437 -0.2523  0.1025  0.2553
61186SOL    HW193872   9.819   7.300   6.388  0.4412 -0.5436 -1.3867
61186SOL    HW293873   9.918   7.281   6.501  0.0289  1.1430 -0.7143
61187SOL     OW93874  12.353   2.009   9.139  0.0798  0.3959 -0.3514
61187SOL    HW193875  12.310   1.966   9.065  1.7177 -0.2702 -0.9695
61187SOL    HW293876  12.414   2.071   9.099 -0.4873  1.5528  0.5061
61188SOL     OW93877   9.110   9.617   9.630 -0.2385 -0.3892 -0.1738
61188SOL    HW193878   9.124   9.542   9.572 -0.0233 -0.6282  0.1882
61188SOL    HW293879   9.016   9.633   9.625 -0.3911 -1.1261  0.2972
61189SOL     OW93880   5.144   1.731   4.164  0.4556 -0.3833 -0.5832
61189SOL    HW193881   5.136   1.823   4.187 -0.0367 -0.8770  1.4037
61189SOL    HW293882   5.170   1.731   4.072 -0.3730  1.7122 -0.8583
61190SOL     OW93883   4.795  11.523  12.721  0.1377  0.8006  0.9429
61190SOL    HW193884   4.760  11.608  12.748 -0.0931  1.0185  0.0169
61190SOL    HW293885   4.718  11.469  12.705  0.2789  0.5048  1.2560
61191SOL     OW93886  10.769  12.320  10.479 -0.3133 -0.5480 -0.4093
61191SOL    HW193887  10.830  12.251  10.506 -0.3604  0.3426  2.2770
61191SOL    HW293888  10.699  12.316  10.544 -0.6207  1.6054 -0.5577
61192SOL     OW93889   8.494   5.766   3.997 -0.2226  0.1333 -0.0535
61192SOL    HW193890   8.447   5.714   4.063  0.3478 -0.2118  0.0837
61192SOL    HW293891   8.456   5.853   4.004  0.7031  0.4363  1.6361
61193SOL     OW93892  12.650   1.783   6.296  0.6176 -0.0436 -0.2476
61193SOL    HW193893  12.741   1.760   6.313  0.8290  1.0186  0.1008
61193SOL    HW293894  12.625   1.840   6.369  0.1961  1.0344 -1.2025
61194SOL     OW93895   1.157   6.692   0.645 -0.2706  0.5777 -0.2497
61194SOL    HW193896   1.217   6.658   0.711 -0.1097 -0.2596 -0.8098
61194SOL    HW293897   1.214   6.722   0.574 -0.4508  1.2750 -0.1087
61195SOL     OW93898  10.334  11.398   2.198 -0.0689  0.2482  0.2754
61195SOL    HW193899  10.424  11.415   2.228 -0.6035  1.6173  1.1603
61195SOL    HW293900  10.346  11.347   2.117  1.5105  0.9215  0.0382
61196SOL     OW93901  12.060   6.622   4.538 -0.3674  0.5959 -0.4162
61196SOL    HW193902  12.010   6.670   4.605 -1.3620 -1.5099  0.4544
61196SOL    HW293903  11.993   6.592   4.476  0.1767  0.0656 -0.7517
61197SOL     OW93904   6.598  10.311   2.712 -0.7529 -0.1260 -0.5988
61197SOL    HW193905   6.504  10.326   2.708 -0.7134  0.1224 -0.5778
61197SOL    HW293906   6.606  10.217   2.731 -1.0264  0.2486  1.5650
61198SOL     OW93907   7.297   3.277   6.793 -0.1438  0.1149 -0.7271
61198SOL    HW193908   7.266   3.354   6.746  0.1837  0.3163 -0.6145
61198SOL    HW293909   7.313   3.308   6.882 -0.5872 -0.2236 -0.5225
61199SOL     OW93910   2.091   4.351  10.174  0.1785  0.1922  0.7861
61199SOL    HW193911   2.161   4.409  10.205  0.9453 -0.3975  0.2076
61199SOL    HW293912   2.048   4.400  10.105  0.3907  0.3465  0.7615
61200SOL     OW93913   4.121   5.072   3.218 -0.3437 -0.2962 -0.3890
61200SOL    HW193914   4.208   5.034   3.228 -0.2894 -0.1412 -0.2700
61200SOL    HW293915   4.136   5.166   3.214 -0.4739 -0.2915 -0.7395
61201SOL     OW93916   5.087   3.865   8.902  0.7999  0.3446  0.3827
61201SOL    HW193917   5.171   3.825   8.877  0.0222 -0.4801 -1.0501
61201SOL    HW293918   5.072   3.933   8.837  0.4541  0.6470  0.7705
61202SOL     OW93919   3.988   4.245   9.026  0.0460 -0.3156 -0.6270
61202SOL    HW193920   3.991   4.206   9.113 -1.6559  2.1763  0.6694
61202SOL    HW293921   3.958   4.174   8.969  1.9473 -2.2349  0.5735
61203SOL     OW93922   7.332   9.590   7.800  0.1933 -0.1300  0.3685
61203SOL    HW193923   7.428   9.592   7.807  0.1696 -1.0223  1.1759
61203SOL    HW293924   7.315   9.585   7.706  0.9339  0.2606  0.2060
61204SOL     OW93925   9.685   7.517   2.232 -0.4727  0.0231  0.6475
61204SOL    HW193926   9.755   7.479   2.178  1.0071 -0.0526  2.5281
61204SOL    HW293927   9.662   7.598   2.188  1.0786  0.2361  0.1815
61205SOL     OW93928   9.735  12.445  10.558  0.2308  0.3358  0.2779
61205SOL    HW193929   9.721  12.487  10.473  0.7354  1.2317  0.6160
61205SOL    HW293930   9.830  12.448  10.571  0.5153 -2.6516 -0.5187
61206SOL     OW93931  10.883  11.597   6.421  0.2406 -0.1106  0.4781
61206SOL    HW193932  10.806  11.634   6.465  0.9376  1.4045  0.4794
61206SOL    HW293933  10.934  11.557   6.492  0.7181  1.1811  0.8937
61207SOL     OW93934   0.686   0.542   1.674  0.1800 -0.5114 -0.4263
61207SOL    HW193935   0.755   0.608   1.682 -0.1682 -0.2460  0.5743
61207SOL    HW293936   0.605   0.593   1.668 -0.0042 -0.8362 -0.7036
61208SOL     OW93937  11.851   7.032   9.596 -0.4736 -0.3611  0.6546
61208SOL    HW193938  11.828   6.998   9.509 -0.9800  0.3897  0.4825
61208SOL    HW293939  11.915   6.970   9.630 -1.3329 -1.4488  0.3381
61209SOL     OW93940  12.366  10.300  11.895 -0.4299 -0.3124 -0.0707
61209SOL    HW193941  12.414  10.377  11.867 -0.8031  1.0029  2.6035
61209SOL    HW293942  12.324  10.267  11.816  2.2576  0.3353 -1.8704
61210SOL     OW93943   6.195   2.566   4.129 -0.2418  0.7116 -0.2254
61210SOL    HW193944   6.274   2.619   4.135 -0.1998  0.8812 -1.8757
61210SOL    HW293945   6.216   2.498   4.066 -0.5430 -0.8854  1.3270
61211SOL     OW93946   1.352  12.880   3.983 -0.0613  0.0078 -0.7113
61211SOL    HW193947   1.293  12.910   3.914 -2.1677 -2.3787 -0.1263
61211SOL    HW293948   1.356  12.785   3.972  0.9478 -0.2606  1.3743
61212SOL     OW93949   2.263   6.997   3.703 -0.8282  0.3588  0.1837
61212SOL    HW193950   2.232   7.059   3.769 -1.4759 -0.2988  0.5032
61212SOL    HW293951   2.332   7.045   3.656  0.4420  0.4795  2.0403
61213SOL     OW93952   3.216   8.226   8.141 -0.0494  0.4896  0.0996
61213SOL    HW193953   3.196   8.138   8.108  0.1320  0.2573  0.5956
61213SOL    HW293954   3.307   8.220   8.171  0.5186  1.2956 -1.3476
61214SOL     OW93955   6.913   4.603   7.484 -0.3322  0.6177  0.1381
61214SOL    HW193956   6.958   4.649   7.555 -0.9305  1.4258  0.0026
61214SOL    HW293957   6.942   4.648   7.405  0.0623 -0.0599 -0.1086
61215SOL     OW93958   2.839   7.184   6.950 -0.1444 -0.7850 -0.2954
61215SOL    HW193959   2.789   7.214   7.026  0.9175 -1.1013  0.5438
61215SOL    HW293960   2.828   7.253   6.886 -1.0210 -0.4906  0.1504
61216SOL     OW93961   3.668   3.586   4.130  0.2205  0.3452  0.3685
61216SOL    HW193962   3.620   3.566   4.210 -1.0649 -1.8541 -0.8682
61216SOL    HW293963   3.622   3.663   4.094 -1.9880 -1.2116 -0.3668
61217SOL     OW93964   3.529   5.447  10.045  0.2238 -0.1344 -0.0731
61217SOL    HW193965   3.607   5.393  10.028 -0.2416 -0.5659 -0.9288
61217SOL    HW293966   3.520   5.448  10.140  1.3476  0.0217  0.0400
61218SOL     OW93967  10.816   1.180   6.785 -0.2327 -0.2716  0.6432
61218SOL    HW193968  10.749   1.112   6.795 -0.3889  0.1529  3.2159
61218SOL    HW293969  10.881   1.160   6.853  1.5972  0.0987 -0.9231
61219SOL     OW93970  12.580   0.362   1.263 -0.2275 -0.6768  0.2082
61219SOL    HW193971  12.613   0.374   1.352 -0.5416  0.8803  0.1438
61219SOL    HW293972  12.659   0.360   1.209 -0.0257 -1.7792  0.5137
61220SOL     OW93973   9.466   9.395  11.442 -0.1011 -0.0761 -0.5155
61220SOL    HW193974   9.516   9.391  11.523  0.6310 -1.1444 -1.0114
61220SOL    HW293975   9.528   9.428  11.377 -0.8590  1.4121 -0.5367
61221SOL     OW93976   4.925   1.530   6.902 -0.0401 -0.2753  0.8631
61221SOL    HW193977   4.962   1.457   6.952 -3.3753 -3.0518 -0.3373
61221SOL    HW293978   4.960   1.520   6.814 -0.8414 -0.7110  0.5902
61222SOL     OW93979   2.540   6.347   0.369  0.0911 -0.3304 -0.0774
61222SOL    HW193980   2.524   6.274   0.429 -1.3138 -0.1419 -0.1793
61222SOL    HW293981   2.541   6.307   0.282 -1.2219 -0.1851 -0.1788
61223SOL     OW93982   1.381   7.763   4.696 -0.2261 -0.0347  0.0195
61223SOL    HW193983   1.344   7.686   4.651 -3.8880  1.4712  0.0700
61223SOL    HW293984   1.432   7.808   4.629 -1.6732 -0.3038 -1.3334
61224SOL     OW93985   9.717   0.083  10.520 -0.5002 -0.1219  0.2759
61224SOL    HW193986   9.688   0.105  10.431 -0.1726  1.7861  0.6097
61224SOL    HW293987   9.812   0.071  10.512 -0.5567 -0.6076  0.2686
61225SOL     OW93988   2.798   3.132   0.382  0.1219 -0.9802  0.0565
61225SOL    HW193989   2.735   3.062   0.362 -0.7343 -0.3380  0.4206
61225SOL    HW293990   2.793   3.141   0.478 -0.2472  0.0030 -0.0493
61226SOL     OW93991   1.401   9.949  10.944  0.3329  0.2843 -0.1456
61226SOL    HW193992   1.456   9.877  10.978 -0.6399 -0.3581  0.1058
61226SOL    HW293993   1.330   9.905  10.897 -1.2149  0.9916  1.4209
61227SOL     OW93994   0.146  10.064   8.119 -0.0704 -0.1769  0.3439
61227SOL    HW193995   0.060  10.049   8.157 -0.2113  1.6896  0.8571
61227SOL    HW293996   0.129  10.084   8.027 -0.1595 -0.1150  0.3734
61228SOL     OW93997   1.434  10.609   4.146  0.2279  0.0331 -0.1706
61228SOL    HW193998   1.405  10.563   4.068 -1.8846 -0.7714  0.9883
61228SOL    HW293999   1.451  10.541   4.211  1.4342  0.7022  0.2607
61229SOL     OW94000   7.434  11.690   9.758 -0.1183 -0.0334 -0.5949
61229SOL    HW194001   7.402  11.673   9.846  0.9251  1.0821  0.0186
61229SOL    HW294002   7.470  11.779   9.762 -0.2264  0.1145 -2.1931
61230SOL     OW94003   3.348   6.151   1.480 -0.0075 -0.7282  0.5248
61230SOL    HW194004   3.353   6.239   1.517  0.6134 -0.9454  0.9830
61230SOL    HW294005   3.292   6.103   1.541 -3.1455  0.1491 -1.4355
61231SOL     OW94006   0.045   3.036   7.491  0.5554 -0.1095 -0.1826
61231SOL    HW194007   0.036   3.104   7.423 -1.7112 -0.2438 -0.0993
61231SOL    HW294008  -0.026   2.974   7.472  2.2527 -2.2166  0.0685
61232SOL     OW94009  12.594   0.762   8.283 -0.1610  0.3706  0.6672
61232SOL    HW194010  12.622   0.710   8.358  1.4085  1.9643  1.2292
61232SOL    HW294011  12.547   0.699   8.228  3.4222 -2.2606  0.2439
61233SOL     OW94012   6.167   7.585   3.633  0.3004  0.2790  0.1033
61233SOL    HW194013   6.099   7.564   3.569  0.2007  0.3140  0.1978
61233SOL    HW294014   6.169   7.508   3.691  0.2759  0.3176  0.1558
61234SOL     OW94015   6.961  10.605  10.321  0.0249  0.2530 -0.3266
61234SOL    HW194016   7.051  10.576  10.339  0.1856 -1.0759 -2.8129
61234SOL    HW294017   6.908  10.527  10.334 -0.8551  1.0770  1.2966
61235SOL     OW94018  10.112  12.973  11.173 -0.4227  0.7802  0.1975
61235SOL    HW194019  10.148  12.895  11.214 -1.7598  1.2870  2.5294
61235SOL    HW294020  10.187  13.030  11.159  0.3206 -0.1938  0.1086
61236SOL     OW94021   1.038   6.743   3.699 -0.1891  0.1034 -0.0667
61236SOL    HW194022   1.108   6.732   3.763 -0.9633 -0.8408  0.6284
61236SOL    HW294023   1.033   6.838   3.686 -0.3037  0.3500  1.5869
61237SOL     OW94024   5.715   1.172   5.734  0.4062 -0.6153  0.1997
61237SOL    HW194025   5.620   1.168   5.750  0.1980 -1.2505 -1.0582
61237SOL    HW294026   5.754   1.132   5.812 -0.2528  1.1573  1.5068
61238SOL     OW94027   2.473  10.652  12.206  0.1087 -0.0826  0.2259
61238SOL    HW194028   2.533  10.713  12.163 -0.1832 -0.1056 -0.2242
61238SOL    HW294029   2.476  10.573  12.152 -0.6780  0.0798 -0.0829
61239SOL     OW94030   7.220   2.587   0.167 -0.0373  0.1633  0.0415
61239SOL    HW194031   7.208   2.587   0.262  0.8035 -0.0004  0.1510
61239SOL    HW294032   7.315   2.588   0.154 -0.0181 -3.0197 -0.7644
61240SOL     OW94033  11.148   8.437   3.661  0.7466 -0.5585  0.8862
61240SOL    HW194034  11.143   8.346   3.632 -0.6177  0.3698 -2.2810
61240SOL    HW294035  11.101   8.439   3.744 -1.7561 -2.2840 -0.3756
61241SOL     OW94036   7.605   8.870   7.736  0.0739  0.0008 -0.1128
61241SOL    HW194037   7.510   8.858   7.741  0.1352 -0.2758  0.5581
61241SOL    HW294038   7.620   8.908   7.650 -0.8978  2.2725  0.6291
61242SOL     OW94039   6.868  11.502  10.924  0.0407  0.7121  0.4133
61242SOL    HW194040   6.884  11.454  11.006  0.0250 -0.3845 -0.2020
61242SOL    HW294041   6.779  11.475  10.898  0.6614 -0.2569 -0.8076
61243SOL     OW94042   2.742   3.935   1.068 -0.2210 -0.0697 -0.0606
61243SOL    HW194043   2.765   3.860   1.123 -0.4960 -0.2777 -0.2281
61243SOL    HW294044   2.662   3.908   1.023 -2.3441  1.5291  2.4046
61244SOL     OW94045   7.334   9.006   1.605 -0.0249 -0.3426  0.4288
61244SOL    HW194046   7.265   8.939   1.602 -1.1707  0.8368 -1.5246
61244SOL    HW294047   7.364   9.015   1.515  1.6409  0.2621  1.0024
61245SOL     OW94048   1.000   9.495  10.965  0.1487 -0.2407 -0.0456
61245SOL    HW194049   0.913   9.494  11.005  0.6688 -0.1355  1.1344
61245SOL    HW294050   0.984   9.513  10.872 -1.0944 -0.4347  0.1204
61246SOL     OW94051  10.159  12.927   5.793 -0.2362 -0.2556 -0.2105
61246SOL    HW194052  10.143  13.011   5.835  2.2096  0.9112 -1.3836
61246SOL    HW294053  10.170  12.865   5.865 -2.8678  0.1630  0.6591
61247SOL     OW94054   2.678   3.905  11.373 -0.0704  0.4324 -0.0454
61247SOL    HW194055   2.664   3.855  11.454  0.1664  0.3904 -0.0304
61247SOL    HW294056   2.607   3.970  11.372 -0.5038 -0.0314 -0.1642
61248SOL     OW94057   8.312   9.155   4.492  0.2207 -0.1259  0.0029
61248SOL    HW194058   8.222   9.167   4.521 -0.2586 -1.7479 -0.7048
61248SOL    HW294059   8.305   9.130   4.400  1.2889 -1.7426  0.3218
61249SOL     OW94060   6.267   2.488   3.868  0.3991  0.2828 -0.0949
61249SOL    HW194061   6.288   2.400   3.837  2.9327  0.5680  0.5553
61249SOL    HW294062   6.251   2.539   3.789  3.1754  0.1582 -0.8582
61250SOL     OW94063   8.063  12.825  12.444 -0.0799 -0.4180 -0.4245
61250SOL    HW194064   8.136  12.763  12.452  0.0399 -0.4155 -1.3572
61250SOL    HW294065   8.104  12.910  12.436 -0.2638  0.0555  2.4881
61251SOL     OW94066  12.169  11.460   7.283  0.0686  0.7713  0.0287
61251SOL    HW194067  12.243  11.415   7.325  1.0290  0.8625 -1.4838
61251SOL    HW294068  12.204  11.546   7.260 -1.0351  1.4345  0.7871
61252SOL     OW94069  11.459   8.882   0.695  0.2809 -0.5315  0.3379
61252SOL    HW194070  11.508   8.805   0.667 -0.1058 -0.5392 -0.3219
61252SOL    HW294071  11.367   8.860   0.680  0.1959  0.2523 -0.3700
61253SOL     OW94072   3.175   9.457   1.161 -0.1006 -0.4102 -0.0590
61253SOL    HW194073   3.211   9.506   1.086 -3.5813 -0.5619 -2.0431
61253SOL    HW294074   3.212   9.500   1.238  3.6398 -0.2184 -1.7467
61254SOL     OW94075   5.257  12.399   1.921 -0.4800  0.8329 -0.1075
61254SOL    HW194076   5.307  12.479   1.903  0.1559  0.4497 -0.0829
61254SOL    HW294077   5.273  12.343   1.846  3.2199 -1.2865  1.9749
61255SOL     OW94078   5.914   3.789   8.515 -0.8371  0.5848 -0.7717
61255SOL    HW194079   5.887   3.865   8.566 -0.2395  0.4533 -0.2525
61255SOL    HW294080   6.007   3.804   8.496 -0.2802 -0.7447  0.7039
61256SOL     OW94081   0.826   5.935   1.813 -0.2590  0.6912  0.5069
61256SOL    HW194082   0.825   5.926   1.908 -0.9956  0.6945  0.5028
61256SOL    HW294083   0.751   5.991   1.793  0.6109  1.7233  0.0186
61257SOL     OW94084   0.512  10.277   9.760  0.2026  0.5834 -0.1829
61257SOL    HW194085   0.476  10.258   9.673  1.5155  0.0997 -0.6503
61257SOL    HW294086   0.435  10.294   9.814 -0.6073  1.9282 -1.6590
61258SOL     OW94087   2.117   8.453  12.135 -0.3380 -0.1889  0.2885
61258SOL    HW194088   2.198   8.407  12.158 -0.0479 -0.2803 -0.8304
61258SOL    HW294089   2.050   8.385  12.134  0.0042 -0.5331 -0.9267
61259SOL     OW94090   6.900   4.674   8.141 -0.0610  0.2686 -0.4087
61259SOL    HW194091   6.944   4.758   8.145  1.5569 -0.5183 -0.7508
61259SOL    HW294092   6.845   4.679   8.062 -0.7234  1.3150  0.0993
61260SOL     OW94093  11.317   6.944   7.944 -0.5884 -0.2934  0.0085
61260SOL    HW194094  11.310   7.027   7.897 -0.0494 -1.0940 -1.5617
61260SOL    HW294095  11.271   6.881   7.889 -0.6353 -1.1288  0.9734
61261SOL     OW94096   2.621   6.204   5.973 -0.1285 -0.4589  0.1941
61261SOL    HW194097   2.618   6.181   5.880 -0.1868 -3.5873  0.8482
61261SOL    HW294098   2.704   6.251   5.983  0.4012 -1.0033 -1.2860
61262SOL     OW94099   9.176   9.738   5.545  0.2432 -0.0211 -0.4760
61262SOL    HW194100   9.255   9.725   5.492  0.0893 -1.0674 -0.4695
61262SOL    HW294101   9.209   9.754   5.634  0.4499 -0.3926 -0.4852
61263SOL     OW94102   2.738  12.643  10.117 -0.3954 -0.0993  0.2298
61263SOL    HW194103   2.816  12.657  10.064 -0.9566  1.3163 -0.2959
61263SOL    HW294104   2.737  12.717  10.178 -0.9626 -0.4782  0.6945
61264SOL     OW94105   0.520   0.039   3.152  0.4884  0.1758 -0.0668
61264SOL    HW194106   0.501   0.007   3.241 -0.7287 -0.4963 -0.5492
61264SOL    HW294107   0.463   0.115   3.141  1.9189  1.3610  0.3375
61265SOL     OW94108   6.505   8.031   3.392  0.2461  0.1663 -0.2792
61265SOL    HW194109   6.522   8.045   3.485 -0.7791  0.6400 -0.1513
61265SOL    HW294110   6.449   8.104   3.366  0.1270 -0.2189 -1.1525
61266SOL     OW94111   5.284   9.383   0.988 -0.0586 -0.2560  0.4349
61266SOL    HW194112   5.358   9.443   0.982 -0.3276  0.2255  1.6360
61266SOL    HW294113   5.320   9.303   1.026 -0.1766  0.0286  1.1524
61267SOL     OW94114   3.997  12.213   5.785  0.0709 -0.3434 -0.2326
61267SOL    HW194115   3.922  12.238   5.731 -0.4228 -0.9721  0.1436
61267SOL    HW294116   3.974  12.127   5.819  1.5502 -1.1262 -1.1430
61268SOL     OW94117   7.146  11.455   5.780  0.6191 -0.1121  0.5162
61268SOL    HW194118   7.231  11.438   5.739  0.3653 -1.7047  0.6039
61268SOL    HW294119   7.123  11.374   5.825  0.1753  1.0865  2.5982
61269SOL     OW94120   8.696  10.478   8.181  0.2851 -0.1648 -0.3524
61269SOL    HW194121   8.667  10.408   8.240 -0.2940 -0.0764 -0.5276
61269SOL    HW294122   8.783  10.500   8.212  0.8162 -1.5234 -0.8057
61270SOL     OW94123   6.381   1.628   1.327 -0.4399 -0.3010 -0.6430
61270SOL    HW194124   6.348   1.665   1.245  0.9577  1.2138 -0.5789
61270SOL    HW294125   6.409   1.704   1.378 -1.1907 -1.2234  1.2238
61271SOL     OW94126   9.259   3.062   5.769  0.1507 -0.4113  0.2690
61271SOL    HW194127   9.318   3.121   5.816 -3.1621  1.4290  2.4645
61271SOL    HW294128   9.208   3.119   5.711  0.2024 -1.8861 -1.3096
61272SOL     OW94129  12.565  12.001   1.638  0.5070  0.5709 -0.0873
61272SOL    HW194130  12.583  11.908   1.630  1.5187  0.8104 -0.7375
61272SOL    HW294131  12.613  12.029   1.716  1.0671  0.7519 -0.4936
61273SOL     OW94132   2.571   6.932   2.656  0.1555  0.3417 -0.0310
61273SOL    HW194133   2.652   6.928   2.708 -0.8284 -1.2596  1.4824
61273SOL    HW294134   2.515   6.993   2.703  0.6258  1.9110 -1.3983
61274SOL     OW94135   7.257   0.122   8.543  0.2712  0.0863 -0.1352
61274SOL    HW194136   7.220   0.186   8.604  0.7086 -2.4825  3.1468
61274SOL    HW294137   7.349   0.148   8.535 -0.1837  1.4508 -1.1720
61275SOL     OW94138   4.307   0.254  11.386 -0.1636  0.0897  0.3586
61275SOL    HW194139   4.255   0.185  11.346 -0.6850  0.2518  0.7394
61275SOL    HW294140   4.274   0.335  11.347  0.8086  0.0921 -0.4792
61276SOL     OW94141   9.415  11.194   0.363 -0.1873  0.0178  0.0589
61276SOL    HW194142   9.422  11.164   0.453  1.0077 -0.7881 -0.2709
61276SOL    HW294143   9.488  11.151   0.318 -0.3384  0.9539 -1.1363
61277SOL     OW94144   2.582  12.283   4.235 -0.6566  0.6317 -0.2081
61277SOL    HW194145   2.540  12.241   4.159 -0.1643  2.0914 -1.3219
61277SOL    HW294146   2.662  12.321   4.200  0.7456 -0.5893  1.5393
61278SOL     OW94147   3.047   5.182   7.563 -0.0953  0.3048 -0.5560
61278SOL    HW194148   2.968   5.127   7.568  0.2122 -0.3529 -2.1714
61278SOL    HW294149   3.090   5.154   7.482  1.9990  0.3978  0.4655
61279SOL     OW94150   1.067   6.327   3.039  0.2677 -0.5098  0.1993
61279SOL    HW194151   1.106   6.275   2.969 -0.1147 -0.8446  0.2315
61279SOL    HW294152   1.124   6.311   3.115 -0.0000 -1.1124  0.2859
61280SOL     OW94153  11.682   9.367   3.112  0.3297  0.1846 -0.0258
61280SOL    HW194154  11.672   9.442   3.170 -1.6485 -0.1586  0.1678
61280SOL    HW294155  11.725   9.300   3.165 -0.1606  0.3653  0.6098
61281SOL     OW94156  12.921   6.779   8.318  0.4273 -0.4802  0.0150
61281SOL    HW194157  12.831   6.756   8.338  0.5135 -0.9501 -0.1173
61281SOL    HW294158  12.964   6.785   8.404  0.2865 -0.3184  0.0748
61282SOL     OW94159  10.377   9.813   3.875 -0.4273  0.8350 -0.2446
61282SOL    HW194160  10.471   9.831   3.868 -0.1105 -0.5822  0.0815
61282SOL    HW294161  10.364   9.737   3.819 -1.2923  0.7192  0.1104
61283SOL     OW94162   2.505   8.200   6.775 -0.0351 -0.2991  0.5230
61283SOL    HW194163   2.438   8.178   6.838 -0.2446 -0.2260  0.3267
61283SOL    HW294164   2.588   8.180   6.819 -0.1141  1.1537  1.3776
61284SOL     OW94165   0.993   5.635   9.266 -0.4573 -0.6810 -0.0240
61284SOL    HW194166   1.087   5.639   9.284 -0.8111  0.8510  1.7164
61284SOL    HW294167   0.966   5.726   9.257 -1.8174 -1.0948 -0.4144
61285SOL     OW94168  12.951   1.969   8.702  0.4090  0.0499  0.0753
61285SOL    HW194169  12.954   1.948   8.609  0.0570 -1.9426  0.4605
61285SOL    HW294170  12.956   1.884   8.746  0.9541  0.9684  1.8939
61286SOL     OW94171  12.916   0.635   0.309  0.2593 -0.0746  0.2190
61286SOL    HW194172  12.950   0.704   0.252  0.0644  0.1448  0.3642
61286SOL    HW294173  12.933   0.554   0.262  0.9845  0.0322  0.2903
61287SOL     OW94174   9.427   7.533   9.770 -0.9774  0.0324 -0.0720
61287SOL    HW194175   9.415   7.438   9.773 -1.0148 -0.0357 -1.6610
61287SOL    HW294176   9.356   7.564   9.714  1.0786  0.5681 -2.5524
61288SOL     OW94177   5.702   7.492   8.168  0.1013  0.1547  0.0530
61288SOL    HW194178   5.681   7.491   8.075 -2.7525  0.8303  0.5804
61288SOL    HW294179   5.790   7.529   8.173  0.4366 -0.1732 -2.3604
61289SOL     OW94180   0.150   3.587  10.164  0.0967  0.3547 -0.0649
61289SOL    HW194181   0.179   3.670  10.202 -0.6020  0.6406 -0.1513
61289SOL    HW294182   0.189   3.520  10.221 -0.7214  0.7682  1.0219
61290SOL     OW94183   1.934   1.530   5.732  0.0095  0.5545  0.0746
61290SOL    HW194184   2.023   1.498   5.748  0.5447  2.2568  0.8052
61290SOL    HW294185   1.883   1.495   5.804  0.4201  0.7381  0.4631
61291SOL     OW94186   5.568   1.663  12.639  0.2877 -0.1576  0.2069
61291SOL    HW194187   5.604   1.619  12.716  0.5307 -0.4289 -0.0577
61291SOL    HW294188   5.641   1.713  12.603  0.1717 -0.0194  0.1608
61292SOL     OW94189   7.082  12.027   8.941  0.0719 -0.0520  0.2670
61292SOL    HW194190   7.077  11.952   8.881 -1.8777  0.9476 -0.9193
61292SOL    HW294191   7.073  11.988   9.028 -1.1176 -1.2122 -0.3339
61293SOL     OW94192   8.629  12.779   8.004 -0.0231  0.2422 -0.2844
61293SOL    HW194193   8.566  12.809   8.069  0.6022 -0.6746  0.7773
61293SOL    HW294194   8.674  12.858   7.975 -1.1375  0.8048 -0.4990
61294SOL     OW94195   5.111  12.729   2.970  0.2497 -0.4018 -0.4974
61294SOL    HW194196   5.170  12.704   2.899  1.2049  1.2670 -0.3330
61294SOL    HW294197   5.168  12.769   3.036 -0.7318 -1.0864  0.8426
61295SOL     OW94198   9.542   5.910   1.972 -0.3045  0.4285 -0.2084
61295SOL    HW194199   9.561   5.979   2.036 -1.4629  1.4817 -0.9541
61295SOL    HW294200   9.485   5.849   2.019  0.4447  0.1565  0.3528
61296SOL     OW94201   8.176  12.976   9.162 -0.3161 -0.1980  0.0042
61296SOL    HW194202   8.198  12.944   9.075  0.3660 -0.4049  0.2459
61296SOL    HW294203   8.259  12.975   9.210  0.2668  3.8468 -0.5370
61297SOL     OW94204   3.639   2.681   8.321  0.5048  0.2603 -0.7156
61297SOL    HW194205   3.699   2.714   8.388  1.1764  0.0516 -1.2087
61297SOL    HW294206   3.674   2.714   8.238 -1.0935  1.6889 -0.8714
61298SOL     OW94207   0.549   8.516   8.154 -0.3010  0.2146  0.4667
61298SOL    HW194208   0.523   8.424   8.144  1.8016 -0.6474  2.1535
61298SOL    HW294209   0.542   8.533   8.248 -0.9455  1.8977  0.1429
61299SOL     OW94210  11.842  12.860  12.628  0.3599  1.3019  0.5265
61299SOL    HW194211  11.793  12.836  12.707  0.1321  3.2249  1.0115
61299SOL    HW294212  11.933  12.864  12.657  0.6396 -0.5580  0.0336
61300SOL     OW94213   2.884  12.788   9.316  0.1055 -0.3158 -0.6200
61300SOL    HW194214   2.897  12.717   9.253  0.7157  0.1122 -0.9951
61300SOL    HW294215   2.844  12.746   9.392 -0.4138 -0.8923 -1.1919
61301SOL     OW94216   2.755   6.747   5.722 -0.2260  0.4335  0.0006
61301SOL    HW194217   2.774   6.681   5.655 -1.1408  0.2456 -0.0804
61301SOL    HW294218   2.815   6.819   5.702 -0.0326  0.1069 -0.6141
61302SOL     OW94219   7.220  12.479   7.201  0.5916 -0.6376  0.9029
61302SOL    HW194220   7.314  12.486   7.187  0.2022  0.9058 -1.4178
61302SOL    HW294221   7.181  12.539   7.138 -2.1295 -3.6898 -0.6501
61303SOL     OW94222   8.846   1.225   5.287 -0.2347  0.5098 -0.3733
61303SOL    HW194223   8.768   1.174   5.307 -0.0148  0.2613 -0.1287
61303SOL    HW294224   8.910   1.197   5.352  0.1276  0.5470 -0.7072
61304SOL     OW94225  11.602   5.386   9.358  0.1479 -0.2605  0.1921
61304SOL    HW194226  11.657   5.319   9.398 -0.1242  0.2604  1.4744
61304SOL    HW294227  11.635   5.393   9.268  0.7764 -1.4461  0.3115
61305SOL     OW94228   7.388   7.265   9.177  0.0716  0.9399 -0.1140
61305SOL    HW194229   7.383   7.179   9.135 -0.4429  0.1054  1.5344
61305SOL    HW294230   7.301   7.302   9.166  0.3857  1.4071 -1.1033
61306SOL     OW94231   1.720   3.240  10.594  0.0891  0.3515 -0.3768
61306SOL    HW194232   1.798   3.279  10.556 -0.5771  3.7130  1.3729
61306SOL    HW294233   1.747   3.212  10.682 -0.7709  2.2459  0.5351
61307SOL     OW94234  12.956   8.512   3.136  0.1842  0.7117  0.3960
61307SOL    HW194235  13.031   8.497   3.078  2.2306  2.5444  2.3768
61307SOL    HW294236  12.923   8.599   3.111  1.1862  1.5885  1.9766
61308SOL     OW94237   5.089   6.750   3.587 -0.3543  0.2404  0.2219
61308SOL    HW194238   5.024   6.765   3.518  0.3727  1.9105 -0.1311
61308SOL    HW294239   5.172   6.737   3.539  0.4243  2.8081  0.7612
61309SOL     OW94240   2.440   5.437   0.735 -0.0198 -0.0707  0.1259
61309SOL    HW194241   2.389   5.458   0.813  1.8803  0.0041  1.4093
61309SOL    HW294242   2.421   5.345   0.718  0.5795 -0.4795  1.5365
61310SOL     OW94243   8.643   3.807   8.134  0.0927  0.2557  0.6219
61310SOL    HW194244   8.623   3.899   8.154  0.3247  0.2177  1.0339
61310SOL    HW294245   8.646   3.804   8.038 -0.9969  0.4410  0.5713
61311SOL     OW94246   9.157   6.810   1.859  0.7259 -0.0804 -0.0201
61311SOL    HW194247   9.250   6.803   1.879  1.1341  2.0938 -0.9342
61311SOL    HW294248   9.150   6.785   1.767  0.2928 -0.8086  0.2005
61312SOL     OW94249  10.456  12.458   0.333  0.1300 -1.0848 -0.5691
61312SOL    HW194250  10.539  12.489   0.297 -0.8933  1.4729 -0.9200
61312SOL    HW294251  10.465  12.471   0.428 -0.9864  2.6405 -0.7937
61313SOL     OW94252   2.648   7.067   5.905 -0.4105 -0.6004 -0.4188
61313SOL    HW194253   2.664   7.062   6.000  0.1078 -0.0437 -0.4653
61313SOL    HW294254   2.727   7.110   5.871 -1.4326  0.9969 -0.8562
61314SOL     OW94255   1.644  11.140  11.794 -0.2145 -0.1794 -0.0684
61314SOL    HW194256   1.625  11.216  11.848  3.0972 -0.1925  1.3478
61314SOL    HW294257   1.600  11.067  11.838  1.1769  0.0727  1.8554
61315SOL     OW94258   7.952   4.726   8.408 -0.2038  0.1209  0.0740
61315SOL    HW194259   7.947   4.679   8.325 -0.3462  1.3685 -0.6479
61315SOL    HW294260   7.922   4.814   8.388 -1.0288  0.2449  1.6330
61316SOL     OW94261   2.325  12.961   7.066  0.1711 -0.3667  0.5020
61316SOL    HW194262   2.401  12.902   7.060  0.3580 -0.0607 -0.2901
61316SOL    HW294263   2.356  13.044   7.030 -1.1978 -0.9229 -2.2054
61317SOL     OW94264  11.398  10.163   8.132  0.1411  0.1755 -0.3020
61317SOL    HW194265  11.390  10.256   8.113  1.1146  0.3008 -0.1618
61317SOL    HW294266  11.471  10.134   8.077  0.4791 -0.2872  0.3841
61318SOL     OW94267   9.205   8.738  12.839 -0.2713  0.3113 -0.4163
61318SOL    HW194268   9.185   8.663  12.783  1.3800 -0.9157  0.5543
61318SOL    HW294269   9.242   8.804  12.780  0.1552 -0.4214 -0.9693
61319SOL     OW94270  10.741   9.407   3.707  0.2374  0.0816 -0.4529
61319SOL    HW194271  10.780   9.495   3.708  0.8857 -0.2030  0.6210
61319SOL    HW294272  10.781   9.365   3.631  3.1997 -0.6599  1.3543
61320SOL     OW94273   2.800   4.022   4.904 -0.1517 -0.0621  0.4303
61320SOL    HW194274   2.875   4.007   4.961  0.1491  0.1865  0.1045
61320SOL    HW294275   2.789   4.117   4.903 -0.0494 -0.0547 -0.0625
61321SOL     OW94276  11.187   6.210  10.819 -0.8265  0.3459 -0.0488
61321SOL    HW194277  11.124   6.138  10.824 -1.3706  0.8754  0.9376
61321SOL    HW294278  11.269   6.167  10.793 -1.5286 -0.3766 -1.1766
61322SOL     OW94279   9.192   0.499  12.679 -0.0457 -0.2118 -0.4686
61322SOL    HW194280   9.105   0.540  12.670  0.6575  1.2075 -1.2386
61322SOL    HW294281   9.174   0.405  12.680 -1.6536  0.0582  0.2157
61323SOL     OW94282  11.199   6.337   2.571 -0.6776 -0.1093  0.0543
61323SOL    HW194283  11.224   6.357   2.481  1.7868  3.6901  1.3239
61323SOL    HW294284  11.130   6.271   2.563 -1.9326  1.3918 -4.6546
61324SOL     OW94285  10.010  10.693   9.867 -0.3939 -0.1942 -0.2088
61324SOL    HW194286   9.965  10.652   9.793 -2.2515 -0.9910  1.2940
61324SOL    HW294287  10.067  10.624   9.901  0.1671  0.0505 -0.6340
61325SOL     OW94288   7.670  12.441   6.863  0.0714 -0.0771 -0.4286
61325SOL    HW194289   7.725  12.379   6.911 -1.6781 -1.9248 -0.6705
61325SOL    HW294290   7.708  12.526   6.882  2.4597 -1.1737  0.1105
61326SOL     OW94291  12.821  12.311   6.396  0.4496 -0.4084  0.2924
61326SOL    HW194292  12.874  12.339   6.322  0.4773  1.1450  0.8580
61326SOL    HW294293  12.845  12.220   6.409 -0.7604 -1.2449 -2.6137
61327SOL     OW94294   3.206   8.346   6.748  0.1665  0.1546 -0.8823
61327SOL    HW194295   3.194   8.305   6.833 -2.5982  0.8672 -0.8419
61327SOL    HW294296   3.190   8.439   6.764  2.4591  0.7516 -1.6934
61328SOL     OW94297   5.911   9.896   1.500  0.2221  0.3147 -0.7154
61328SOL    HW194298   5.857   9.845   1.561 -0.0989  1.6813  0.1760
61328SOL    HW294299   5.848   9.935   1.439  0.2775  1.1934 -0.2170
61329SOL     OW94300  11.766   3.540   8.526 -0.5565  0.6351 -0.1427
61329SOL    HW194301  11.846   3.557   8.575  0.6405  0.3694 -1.9073
61329SOL    HW294302  11.783   3.574   8.439 -2.1110 -0.0621 -0.7684
61330SOL     OW94303   1.859   7.852   9.580  0.2241  0.0065  0.1298
61330SOL    HW194304   1.812   7.907   9.643 -0.7826  0.1106 -0.6998
61330SOL    HW294305   1.949   7.886   9.582  0.0721  0.3967  1.0615
61331SOL     OW94306   2.769   6.362   1.012  0.1142 -0.6964 -0.5418
61331SOL    HW194307   2.730   6.315   0.938  1.7702 -2.1294 -0.5470
61331SOL    HW294308   2.828   6.299   1.053  1.4753  0.9875  0.2184
61332SOL     OW94309   6.780   3.061   5.549  0.5291  0.5937  0.6217
61332SOL    HW194310   6.863   3.082   5.505  0.4298 -1.2920 -0.5836
61332SOL    HW294311   6.783   2.966   5.561 -2.2816  0.1421 -1.2880
61333SOL     OW94312   2.102   2.335   8.024 -0.0354 -0.1139  0.1719
61333SOL    HW194313   2.080   2.261   7.967 -1.4444  1.1989 -1.0886
61333SOL    HW294314   2.104   2.410   7.965 -1.1086  1.2524  1.7996
61334SOL     OW94315   5.764   4.291   4.858  0.2768  0.3717 -0.3630
61334SOL    HW194316   5.806   4.376   4.845  0.7298  0.4254  1.2178
61334SOL    HW294317   5.672   4.312   4.874 -0.2865  0.3075 -3.0168
61335SOL     OW94318  11.669   6.164  10.546 -0.5060  0.5354  0.1278
61335SOL    HW194319  11.650   6.122  10.462 -0.5120 -2.2180  1.3982
61335SOL    HW294320  11.764   6.177  10.545  0.1488 -3.0753  1.0740
61336SOL     OW94321  12.151   2.329  12.064  0.4092 -0.3769 -0.2148
61336SOL    HW194322  12.178   2.419  12.046  2.1833 -0.6178  0.9288
61336SOL    HW294323  12.233   2.284  12.086 -0.7849 -1.4357  2.5175
61337SOL     OW94324   6.039  11.968   9.073 -0.2689  0.0978 -0.5734
61337SOL    HW194325   6.089  12.007   9.145 -1.2106  0.4901 -0.1106
61337SOL    HW294326   6.094  11.981   8.996  1.0129 -0.8202  0.1396
61338SOL     OW94327   6.797   5.038   8.289  0.0897 -0.0807  0.5389
61338SOL    HW194328   6.712   4.993   8.283  0.1410 -0.1309  0.1510
61338SOL    HW294329   6.777   5.119   8.335 -0.4977  0.6794 -0.9906
61339SOL     OW94330   4.956   7.898   6.983 -0.3315  0.1572 -0.1682
61339SOL    HW194331   5.020   7.848   7.034  1.4551  1.8660 -0.5849
61339SOL    HW294332   4.902   7.943   7.049 -1.5607 -1.7448  0.1957
61340SOL     OW94333  11.380  12.651   7.997 -0.3975  0.1739  0.3089
61340SOL    HW194334  11.467  12.636   7.961 -1.2657 -2.6168 -0.8937
61340SOL    HW294335  11.325  12.671   7.922 -1.3719 -1.3657  0.5450
61341SOL     OW94336   0.557   3.491   5.811 -0.0136 -0.4339 -0.7020
61341SOL    HW194337   0.583   3.583   5.819  0.5657 -0.6553  0.1232
61341SOL    HW294338   0.605   3.459   5.735  1.1921 -0.4998  0.0547
61342SOL     OW94339   2.441   6.013   2.259  0.0805  0.5779 -0.1389
61342SOL    HW194340   2.456   5.951   2.330 -1.1977  1.2358  0.7299
61342SOL    HW294341   2.487   5.975   2.184  1.2906 -0.2214  0.9748
61343SOL     OW94342   4.514   6.083   4.414  0.4201  0.0289 -0.3757
61343SOL    HW194343   4.528   6.053   4.325  0.3797  0.2436 -0.4555
61343SOL    HW294344   4.473   6.169   4.404 -0.1790 -0.2209 -0.1504
61344SOL     OW94345   0.530  12.662   6.673 -0.2584  0.3909  0.3489
61344SOL    HW194346   0.499  12.700   6.755 -1.7831 -1.1596  0.5396
61344SOL    HW294347   0.542  12.737   6.615 -3.4237  1.2138  0.6221
61345SOL     OW94348   2.934   5.753   0.189 -0.0443  0.2723  0.0749
61345SOL    HW194349   2.973   5.840   0.197 -1.3805  0.8994 -0.0874
61345SOL    HW294350   2.840   5.768   0.185 -0.2968 -1.1730 -0.1367
61346SOL     OW94351   6.408   2.677   0.770  0.0358 -0.2287  0.6647
61346SOL    HW194352   6.328   2.727   0.787  1.0293  0.5285  4.0006
61346SOL    HW294353   6.423   2.686   0.676 -3.3138  0.2707  0.0634
61347SOL     OW94354   7.325   8.536   4.356 -0.4309  0.0076 -0.7528
61347SOL    HW194355   7.240   8.542   4.312 -1.6570  0.5129  1.5472
61347SOL    HW294356   7.348   8.443   4.351 -1.1454 -0.1453 -1.3220
61348SOL     OW94357   0.305   1.523  11.502  0.1359  0.0151 -0.3269
61348SOL    HW194358   0.277   1.567  11.422  0.2633 -1.0849 -0.9939
61348SOL    HW294359   0.398   1.507  11.490 -0.1874 -1.7864 -0.7962
61349SOL     OW94360   8.022   0.898   1.506  0.4654  0.1096 -0.1177
61349SOL    HW194361   7.936   0.863   1.528  0.5075 -0.4985 -0.8791
61349SOL    HW294362   8.079   0.868   1.577  0.2150 -0.1996 -0.0463
61350SOL     OW94363   1.913   2.064   0.943 -0.1141  0.2311 -0.1459
61350SOL    HW194364   1.863   1.985   0.922 -1.3421  0.7176  0.8317
61350SOL    HW294365   1.879   2.131   0.884 -2.1713  1.0952  1.8970
61351SOL     OW94366   7.384   4.519   6.307  0.1973 -0.4467 -0.3088
61351SOL    HW194367   7.417   4.605   6.281  0.1115 -0.4755 -0.5148
61351SOL    HW294368   7.308   4.538   6.363  0.4626 -0.3830  0.0352
61352SOL     OW94369   9.000   8.550   0.705  0.6873 -0.0680  0.4958
61352SOL    HW194370   8.987   8.618   0.638  0.4980 -0.8017 -0.2266
61352SOL    HW294371   8.936   8.570   0.773 -1.4483 -1.2033 -1.0676
61353SOL     OW94372  11.208   6.363  10.604  0.1462  0.0285 -0.0825
61353SOL    HW194373  11.208   6.319  10.689  0.9532 -0.3736 -0.2744
61353SOL    HW294374  11.182   6.295  10.542  2.0316 -0.4150 -0.4669
61354SOL     OW94375   4.905   1.485   0.378  0.3185 -0.0585  0.1561
61354SOL    HW194376   4.852   1.559   0.411  1.6968  0.9441  0.1976
61354SOL    HW294377   4.852   1.408   0.399 -1.2542  0.9045 -0.0450
61355SOL     OW94378  12.217   6.562   8.973  0.0310 -0.3017  0.0960
61355SOL    HW194379  12.275   6.556   8.898 -0.2992  0.5330 -0.2426
61355SOL    HW294380  12.129   6.566   8.935 -0.0299  2.4647  0.3664
61356SOL     OW94381   4.867  12.959   1.469  0.2671  0.6511 -0.0254
61356SOL    HW194382   4.886  12.866   1.478  0.7063  0.8303  1.1972
61356SOL    HW294383   4.934  12.992   1.408  0.9296  0.3933  0.5453
61357SOL     OW94384   4.972  10.316   0.368  0.3607 -0.0993  0.0751
61357SOL    HW194385   4.895  10.371   0.359 -0.3816 -1.2452 -0.8328
61357SOL    HW294386   4.938  10.227   0.381  1.5166 -0.5360  0.3010
61358SOL     OW94387   3.944   5.720   8.791 -0.6220  0.6422 -0.4043
61358SOL    HW194388   3.978   5.631   8.779  0.6815  1.2409 -1.3838
61358SOL    HW294389   4.016   5.777   8.765 -0.7938  2.0365  1.8873
61359SOL     OW94390   5.664   0.117   5.768 -0.1655  0.1875  0.6232
61359SOL    HW194391   5.739   0.058   5.769 -0.1403  0.1282 -1.2051
61359SOL    HW294392   5.665   0.159   5.854  2.1646  0.4435  0.5408
61360SOL     OW94393   3.308   1.286   5.137 -0.4415 -0.0445 -0.5121
61360SOL    HW194394   3.316   1.367   5.088 -0.4614  1.8422  2.3702
61360SOL    HW294395   3.226   1.296   5.186  0.8074 -0.5888  1.8412
61361SOL     OW94396   8.040   7.694  11.202  0.2881 -0.2217 -0.0860
61361SOL    HW194397   7.962   7.744  11.227  0.4771 -0.6122  1.3360
61361SOL    HW294398   8.039   7.616  11.258  2.2293  0.2590  0.7288
61362SOL     OW94399   5.572   5.991   8.411 -0.6702  0.1792  0.0781
61362SOL    HW194400   5.497   5.932   8.401 -0.5667  0.0008  0.3203
61362SOL    HW294401   5.646   5.941   8.377 -0.5022 -0.0170  0.7066
61363SOL     OW94402   5.006   8.375   6.901  0.3379  0.2297 -0.0186
61363SOL    HW194403   4.941   8.307   6.918  0.3873  0.5688  1.6779
61363SOL    HW294404   5.055   8.343   6.826  1.1338 -2.1760  1.4367
61364SOL     OW94405   8.257   6.412   7.978  0.3939  0.3660  0.3193
61364SOL    HW194406   8.189   6.447   8.036 -0.4501 -1.4417  0.4778
61364SOL    HW294407   8.333   6.402   8.035 -0.2178 -0.7265  0.9706
61365SOL     OW94408   9.498   6.833   3.468 -0.0193 -0.1943  0.5643
61365SOL    HW194409   9.504   6.900   3.400  1.3696  0.2896  1.1302
61365SOL    HW294410   9.504   6.750   3.422 -0.6075  0.0867 -0.0319
61366SOL     OW94411   3.864  11.347   2.257 -0.2014 -0.3434 -0.1919
61366SOL    HW194412   3.819  11.386   2.332 -0.3420 -0.6194 -0.1301
61366SOL    HW294413   3.864  11.253   2.275  0.0661 -0.3799 -0.3748
61367SOL     OW94414  10.325   1.880  12.397  0.0639 -0.2065  0.2859
61367SOL    HW194415  10.241   1.864  12.440  0.3711 -0.0721  0.9371
61367SOL    HW294416  10.306   1.866  12.304 -0.3235 -1.7083  0.5513
61368SOL     OW94417   7.306   2.548   4.690  0.3375  0.1593 -0.3156
61368SOL    HW194418   7.397   2.544   4.660  0.5967 -0.0720  0.4808
61368SOL    HW294419   7.278   2.638   4.669  0.5013  0.0045 -1.2438
61369SOL     OW94420   7.605  12.843   2.472  0.2113 -0.4287  0.6398
61369SOL    HW194421   7.559  12.843   2.388  0.8825 -2.6619  0.2017
61369SOL    HW294422   7.548  12.794   2.531  0.5748 -0.4528  0.9779
61370SOL     OW94423   2.866   7.404   4.648  0.5177 -0.6447 -0.1130
61370SOL    HW194424   2.933   7.382   4.713  2.0580  0.7724 -1.1429
61370SOL    HW294425   2.811   7.326   4.643  0.5083 -0.9112  2.6440
61371SOL     OW94426   2.154   9.621  11.572 -0.2432  0.8176  0.6020
61371SOL    HW194427   2.243   9.651  11.553 -0.7797  1.5705 -0.8690
61371SOL    HW294428   2.157   9.526  11.559  0.6087  0.6558  1.7703
61372SOL     OW94429   1.501   4.773  11.995 -0.2338  0.3496 -0.3435
61372SOL    HW194430   1.571   4.764  12.059 -0.3806 -0.4334 -0.2806
61372SOL    HW294431   1.421   4.756  12.045 -0.3678 -0.0045 -0.6728
61373SOL     OW94432   6.572   7.871   6.743 -0.8565  0.0525  0.6493
61373SOL    HW194433   6.495   7.815   6.730 -0.9764  0.3649 -0.0004
61373SOL    HW294434   6.550   7.925   6.818 -1.2675  0.1264  0.4788
61374SOL     OW94435   7.656   2.519   1.665  0.1436 -0.0295  0.2415
61374SOL    HW194436   7.748   2.521   1.641 -0.2000  0.6515 -1.1653
61374SOL    HW294437   7.615   2.462   1.600 -0.4538 -0.1580  0.7172
61375SOL     OW94438   1.772   1.103  11.266 -0.1556 -0.0410  0.6167
61375SOL    HW194439   1.728   1.187  11.263 -1.2872 -0.5882  1.3792
61375SOL    HW294440   1.792   1.089  11.358  1.1073 -0.0816  0.3594
61376SOL     OW94441   6.901  12.237   1.558 -0.0714  0.7712  0.0529
61376SOL    HW194442   6.900  12.320   1.606  0.5194  0.7222  0.1624
61376SOL    HW294443   6.871  12.172   1.622  0.0406  0.8098  0.1446
61377SOL     OW94444  12.448  12.199   5.071 -0.3156 -0.0153  0.0158
61377SOL    HW194445  12.366  12.171   5.111 -0.0959 -0.1439  0.3755
61377SOL    HW294446  12.508  12.125   5.084 -0.1252  0.0979 -0.2002
61378SOL     OW94447   0.105   4.396   0.140  0.4457  0.4339  1.0992
61378SOL    HW194448   0.015   4.419   0.160 -0.8058 -2.4040 -0.5518
61378SOL    HW294449   0.103   4.374   0.046  3.1434  1.3726  0.7414
61379SOL     OW94450   6.262  12.832   3.942 -0.0821  0.1586 -0.5259
61379SOL    HW194451   6.218  12.768   3.887 -2.6164  1.3991 -0.0708
61379SOL    HW294452   6.199  12.904   3.952  2.6303  2.8499 -1.1421
61380SOL     OW94453   6.645   7.824   3.905 -0.1397 -0.3081  0.5489
61380SOL    HW194454   6.732   7.864   3.914 -0.2981  1.2359 -3.0032
61380SOL    HW294455   6.625   7.791   3.992  3.1644  1.0069  1.9929
61381SOL     OW94456   1.800   3.930   9.705  0.0909  0.2054 -0.0377
61381SOL    HW194457   1.807   3.861   9.771 -0.8735  0.6984  0.6021
61381SOL    HW294458   1.706   3.942   9.692  0.2482  0.0821 -1.5710
61382SOL     OW94459   9.565  11.720   1.927  0.3313  0.3177 -0.1859
61382SOL    HW194460   9.564  11.650   1.992 -0.5892  0.2744 -0.2429
61382SOL    HW294461   9.647  11.707   1.879  1.2495  0.6101  1.2450
61383SOL     OW94462   3.700   8.059   5.987 -0.0050  0.3455  0.8279
61383SOL    HW194463   3.609   8.038   6.008 -0.4963 -1.1142 -2.1882
61383SOL    HW294464   3.694   8.131   5.925  0.8106 -0.1731  0.1181
61384SOL     OW94465   4.816   2.298  10.852  0.3168  0.2670  0.3863
61384SOL    HW194466   4.765   2.368  10.893 -1.6110 -1.7827  1.7107
61384SOL    HW294467   4.755   2.225  10.842  2.3547 -1.4776 -0.3902
61385SOL     OW94468   4.080   9.228   5.428 -0.0148  0.4047 -0.2427
61385SOL    HW194469   4.009   9.240   5.492  0.8641  0.0056  0.8270
61385SOL    HW294470   4.160   9.225   5.480  0.9932  2.3806 -1.5297
61386SOL     OW94471   0.922   2.976  12.113  0.3760  0.8639 -0.5616
61386SOL    HW194472   0.932   2.964  12.018  0.3229 -0.1132 -0.4541
61386SOL    HW294473   1.011   2.991  12.145  0.3795  1.3234 -0.7789
61387SOL     OW94474   9.350   3.768   3.560 -0.2124  0.0821 -0.1812
61387SOL    HW194475   9.436   3.760   3.519 -0.2079  2.2356 -0.7547
61387SOL    HW294476   9.304   3.687   3.537  0.7345  0.0549 -2.1834
61388SOL     OW94477  11.533   8.918   5.350  0.3420 -0.1763 -0.2007
61388SOL    HW194478  11.588   8.945   5.424  1.7337 -0.2358 -1.1738
61388SOL    HW294479  11.468   8.987   5.343 -0.2304 -0.4863  1.4706
61389SOL     OW94480   8.407   8.584   9.431 -0.0458  0.3998 -0.1177
61389SOL    HW194481   8.424   8.666   9.478 -0.5271  1.4840 -1.7370
61389SOL    HW294482   8.349   8.610   9.359 -0.3258 -1.4098 -0.5768
61390SOL     OW94483   5.168   9.292   8.966 -0.6978  0.5232  0.0904
61390SOL    HW194484   5.082   9.251   8.959 -0.7876  0.5445  0.9113
61390SOL    HW294485   5.187   9.325   8.879 -1.6721  0.8222 -0.0111
61391SOL     OW94486  12.682   2.581  10.508 -0.1707  0.2775  0.5060
61391SOL    HW194487  12.740   2.655  10.524 -1.0760  1.3402 -0.8864
61391SOL    HW294488  12.661   2.548  10.595  0.7966  1.2231  1.1271
61392SOL     OW94489   9.781   1.313   2.971  0.0362  0.0647 -0.0124
61392SOL    HW194490   9.689   1.337   2.956 -0.1397 -0.5289  0.1035
61392SOL    HW294491   9.799   1.343   3.060  0.4930  1.7963 -0.6454
61393SOL     OW94492   3.351   8.224  10.012  0.0701 -0.6392 -0.0553
61393SOL    HW194493   3.367   8.248  10.103  1.0962 -0.8015 -0.1803
61393SOL    HW294494   3.286   8.154  10.017 -1.4129  0.6862  0.4203
61394SOL     OW94495   9.817  12.149   0.878  0.5321 -0.1998  0.4386
61394SOL    HW194496   9.848  12.086   0.814 -0.8385  0.7228 -1.2483
61394SOL    HW294497   9.721  12.144   0.873  0.3897  0.8559  1.4389
61395SOL     OW94498   0.783   2.440   3.572 -0.5607 -0.5173 -0.5032
61395SOL    HW194499   0.876   2.463   3.567 -0.6407  0.2736  1.0915
61395SOL    HW294500   0.753   2.443   3.481  0.8743 -0.3915 -1.0029
61396SOL     OW94501   5.526   7.915   1.583 -0.0326  0.2289 -0.4535
61396SOL    HW194502   5.477   7.969   1.522 -0.5128  0.8955  0.4870
61396SOL    HW294503   5.478   7.832   1.585 -1.0925  0.8184  0.3383
61397SOL     OW94504   1.090   1.451  11.319 -1.0353  0.6507  0.1288
61397SOL    HW194505   1.148   1.380  11.290 -2.1773  0.2136 -1.2034
61397SOL    HW294506   1.069   1.429  11.410 -0.1785  0.1119  0.2104
61398SOL     OW94507  11.473   0.857   7.318  0.1705  0.6756  0.3328
61398SOL    HW194508  11.567   0.874   7.326  0.4239  0.4625 -1.6157
61398SOL    HW294509  11.447   0.905   7.239 -1.4003  0.8127  0.8957
61399SOL     OW94510   9.528   2.706   2.509 -0.1866 -0.5583 -0.0751
61399SOL    HW194511   9.616   2.727   2.478 -0.7400  1.2334 -0.5146
61399SOL    HW294512   9.473   2.711   2.430 -0.8980 -0.3619  0.4298
61400SOL     OW94513   1.809   3.081   6.035  0.5951 -0.2125 -0.0051
61400SOL    HW194514   1.867   3.048   6.103  2.1522 -1.5983 -1.8831
61400SOL    HW294515   1.845   3.166   6.011  2.1994 -1.2141 -1.4038
61401SOL     OW94516   8.219   6.057   8.596 -0.2711 -0.1502  0.0555
61401SOL    HW194517   8.249   6.147   8.587  0.8933 -0.6964 -2.3041
61401SOL    HW294518   8.298   6.004   8.595 -1.0144 -1.3123 -0.9230
61402SOL     OW94519   3.091   7.312  11.193  0.2036  0.4585  0.3580
61402SOL    HW194520   3.119   7.389  11.243  0.0999 -0.4263  1.8117
61402SOL    HW294521   3.030   7.267  11.250 -1.6594  0.5549 -1.4383
61403SOL     OW94522   3.717   0.612   9.900  0.8445  0.2211  0.3879
61403SOL    HW194523   3.779   0.541   9.915 -0.4383 -0.7029  1.4814
61403SOL    HW294524   3.639   0.588   9.950 -0.1849  1.6577 -0.4427
61404SOL     OW94525  10.719   8.468   1.308 -0.1107  0.3073 -0.6317
61404SOL    HW194526  10.771   8.443   1.232  1.9315 -1.6125  1.2393
61404SOL    HW294527  10.767   8.542   1.346  0.8362 -0.8752  0.5790
61405SOL     OW94528  10.619  12.837   2.003 -0.2573  1.0852  0.2169
61405SOL    HW194529  10.633  12.794   2.088 -0.6427  1.9069  0.7099
61405SOL    HW294530  10.526  12.825   1.986  0.1527 -0.8299 -1.0951
61406SOL     OW94531  10.802   6.355   7.647 -0.3114  0.3092 -0.5181
61406SOL    HW194532  10.852   6.315   7.576  0.1350 -1.1821  0.5919
61406SOL    HW294533  10.723   6.389   7.605  0.4632  0.4706 -1.8925
61407SOL     OW94534   1.976  10.506   2.274  0.4676  0.5287  0.0906
61407SOL    HW194535   1.944  10.419   2.296  0.9942  0.2895 -0.0773
61407SOL    HW294536   1.986  10.505   2.179 -3.0250  1.9661 -0.4644
61408SOL     OW94537   0.845   2.177   0.842  0.1758 -0.4071 -0.1820
61408SOL    HW194538   0.932   2.161   0.878  0.5993 -0.8595 -1.3536
61408SOL    HW294539   0.850   2.264   0.802 -0.7225  0.7412  2.0273
61409SOL     OW94540   7.654   0.685   0.426  0.3016 -0.1933 -0.1371
61409SOL    HW194541   7.654   0.780   0.418  1.6884 -0.1337  0.3256
61409SOL    HW294542   7.605   0.668   0.506 -1.1169  0.0290 -0.9242
61410SOL     OW94543   5.928   5.246   8.125 -0.1644 -0.0979 -0.3147
61410SOL    HW194544   5.923   5.279   8.215 -0.2986 -3.4866  1.0586
61410SOL    HW294545   5.851   5.283   8.081 -1.2468  0.0147  1.5881
61411SOL     OW94546   3.116   0.312   5.121  0.6812  0.4539  0.0192
61411SOL    HW194547   3.193   0.289   5.173  0.9616  0.7005 -0.2778
61411SOL    HW294548   3.152   0.344   5.039  0.2484  0.3234 -0.2224
61412SOL     OW94549   7.609   0.153   6.305  0.5452  0.1116 -0.4606
61412SOL    HW194550   7.559   0.148   6.386 -2.0421  0.1097 -1.9740
61412SOL    HW294551   7.630   0.062   6.283 -1.5406 -0.1882 -1.3839
61413SOL     OW94552   9.117   0.709   4.239 -0.0693  0.4382  0.0533
61413SOL    HW194553   9.199   0.670   4.211  0.3104 -0.0692  1.7400
61413SOL    HW294554   9.142   0.776   4.302 -0.9283  0.4036  0.4462
61414SOL     OW94555   9.446   0.693   6.406  0.1723 -0.3655  0.2399
61414SOL    HW194556   9.429   0.773   6.355  0.3815 -0.5429 -0.1141
61414SOL    HW294557   9.448   0.722   6.497 -0.7149 -0.1245  0.1906
61415SOL     OW94558   5.837   2.214  11.312 -0.3300 -0.1107 -0.7715
61415SOL    HW194559   5.745   2.210  11.336 -0.2583 -2.9860 -0.6451
61415SOL    HW294560   5.836   2.224  11.216 -0.8721 -2.3514 -1.0481
61416SOL     OW94561  11.505   2.580   6.900  0.7025  0.4191 -0.1672
61416SOL    HW194562  11.427   2.570   6.955  0.3137  1.9722 -0.3725
61416SOL    HW294563  11.489   2.660   6.850  2.2711  0.5692 -0.4936
61417SOL     OW94564   0.309   1.307   6.540 -0.1727 -0.2015  0.0635
61417SOL    HW194565   0.289   1.229   6.593  2.1691 -1.1879 -0.3643
61417SOL    HW294566   0.404   1.308   6.535 -0.1899  2.1695 -0.8001
61418SOL     OW94567   1.134   9.057   3.690 -0.8554  0.4646  0.1884
61418SOL    HW194568   1.164   9.078   3.602  0.9058  0.1796  0.6799
61418SOL    HW294569   1.126   9.142   3.734  1.8363  0.4914  0.8064
61419SOL     OW94570   4.586   3.657   1.305 -0.2433  0.3353 -0.1659
61419SOL    HW194571   4.595   3.674   1.211 -1.1571 -1.1855 -0.5647
61419SOL    HW294572   4.525   3.724   1.336 -1.6741 -0.4598 -1.1351
61420SOL     OW94573  10.754   4.608  10.466  0.3300 -0.2369 -0.1109
61420SOL    HW194574  10.818   4.540  10.486 -0.8165 -0.7052  2.3056
61420SOL    HW294575  10.697   4.569  10.400 -0.2880 -1.6691  1.2056
61421SOL     OW94576   4.716  12.379   7.905 -0.0054 -0.0811 -0.1634
61421SOL    HW194577   4.768  12.428   7.841 -0.2046  1.3799  0.7476
61421SOL    HW294578   4.781  12.332   7.958  0.5145  2.1624  1.3279
61422SOL     OW94579   6.670   3.901   6.993 -0.0519 -0.3969  0.7016
61422SOL    HW194580   6.713   3.871   6.913  1.4144  1.0574  0.8803
61422SOL    HW294581   6.722   3.865   7.064 -0.8005 -0.9102  1.0096
61423SOL     OW94582   8.248   7.958   9.228  0.1392 -0.0628  0.2053
61423SOL    HW194583   8.295   7.926   9.151 -0.1525  1.2707 -0.5683
61423SOL    HW294584   8.287   7.911   9.302  0.9965 -0.7638 -0.6702
61424SOL     OW94585  11.550   9.496  12.518  0.2630  0.5751 -0.0769
61424SOL    HW194586  11.516   9.468  12.433 -3.3626 -0.6392  1.5443
61424SOL    HW294587  11.553   9.416  12.570  0.2949  1.5876  1.5557
61425SOL     OW94588   6.754   9.699   4.614  0.3843  0.3930 -0.5854
61425SOL    HW194589   6.668   9.738   4.601 -0.8295 -2.3227 -1.1792
61425SOL    HW294590   6.804   9.767   4.661 -1.9880  2.0819 -0.3444
61426SOL     OW94591  11.098   0.015  11.685  0.0374  0.0854 -0.6216
61426SOL    HW194592  11.131  -0.050  11.747  0.6788  0.9555 -0.0168
61426SOL    HW294593  11.029  -0.030  11.637 -0.2547 -0.7165  0.5057
61427SOL     OW94594   6.547   7.809   9.582 -0.0967  0.4311 -0.1457
61427SOL    HW194595   6.618   7.784   9.640 -0.6249 -0.6802  0.0583
61427SOL    HW294596   6.555   7.749   9.508 -0.5351  0.6182 -0.3491
61428SOL     OW94597   2.631  10.176  10.189 -0.3737 -0.2271 -0.3073
61428SOL    HW194598   2.689  10.252  10.189 -1.3252  0.5241 -1.1359
61428SOL    HW294599   2.561  10.199  10.249 -0.9751 -0.1862 -1.0079
61429SOL     OW94600  10.823  12.950   5.554  0.0879  0.0264  0.0833
61429SOL    HW194601  10.904  12.999   5.566 -0.1221  0.5495 -0.5454
61429SOL    HW294602  10.753  13.015   5.560 -0.4378 -0.6648  2.3146
61430SOL     OW94603   2.876  10.418   1.763  0.3436 -0.0025 -0.3306
61430SOL    HW194604   2.870  10.443   1.855  1.7741  1.8387 -0.6679
61430SOL    HW294605   2.913  10.330   1.764 -1.8335 -1.0038  0.8515
61431SOL     OW94606  10.115   6.098  10.159 -0.8147  0.4963  0.2124
61431SOL    HW194607  10.108   6.193  10.160 -1.4949  0.4821 -0.9649
61431SOL    HW294608  10.102   6.071  10.250 -0.8315  1.5043  0.5153
61432SOL     OW94609   0.219   5.003   0.375  0.5124  0.0210 -0.3667
61432SOL    HW194610   0.209   4.930   0.314  0.7017  0.6881 -1.2195
61432SOL    HW294611   0.294   4.979   0.429  1.4440  0.1686 -1.5421
61433SOL     OW94612  11.988   6.361   8.284 -0.2913 -0.1960 -0.3680
61433SOL    HW194613  12.026   6.298   8.347 -1.1504  1.8321  2.3674
61433SOL    HW294614  12.063   6.412   8.254 -0.1249  0.4190  1.0026
61434SOL     OW94615   4.249  12.193  10.756 -0.3235  0.5393 -0.4698
61434SOL    HW194616   4.317  12.133  10.787  0.1758  1.8946  1.1553
61434SOL    HW294617   4.179  12.135  10.725  0.5540 -0.8813  0.0909
61435SOL     OW94618   9.996   3.527  10.750  0.5578 -0.2325 -0.1473
61435SOL    HW194619  10.022   3.601  10.695  1.5726  2.1915  3.2864
61435SOL    HW294620   9.930   3.563  10.809 -0.4160 -2.6605  0.3363
61436SOL     OW94621   2.677   8.875   5.277 -0.1026 -0.1826  0.1517
61436SOL    HW194622   2.765   8.854   5.309  0.3361 -0.9685 -1.4385
61436SOL    HW294623   2.625   8.887   5.356  0.8690 -2.1108  1.1592
61437SOL     OW94624   0.301  11.845  11.320 -0.0444  0.4805  0.1303
61437SOL    HW194625   0.335  11.859  11.409 -1.6553 -2.2385  1.3042
61437SOL    HW294626   0.376  11.811  11.271  0.4324  0.2364  1.0016
61438SOL     OW94627   6.988   1.512  10.706 -0.5481 -0.3267  0.1599
61438SOL    HW194628   6.949   1.595  10.678 -0.5594  0.2455  1.7546
61438SOL    HW294629   7.000   1.523  10.800  0.4418 -1.7489  0.2138
61439SOL     OW94630  12.751   0.566   2.594  0.2116 -0.4832  0.0128
61439SOL    HW194631  12.824   0.619   2.565 -0.7201  0.6009 -0.4239
61439SOL    HW294632  12.789   0.504   2.656  1.5612 -0.2506 -0.5636
61440SOL     OW94633  11.983   4.981   2.029 -0.0767  0.2714 -0.6428
61440SOL    HW194634  12.033   5.048   1.982  0.0832  0.2702 -0.4737
61440SOL    HW294635  12.047   4.914   2.050 -0.1173  0.3395 -0.2901
61441SOL     OW94636  10.741  12.380   6.201 -0.5149 -0.0108  0.4090
61441SOL    HW194637  10.768  12.290   6.220 -0.6854 -0.2255 -0.3156
61441SOL    HW294638  10.823  12.429   6.198 -0.5112  0.1521  2.1718
61442SOL     OW94639   1.592   9.211   6.641 -0.1415  0.2433 -0.3451
61442SOL    HW194640   1.639   9.165   6.710  0.3066  1.1928 -0.0053
61442SOL    HW294641   1.641   9.292   6.628 -0.4378  0.2601 -1.5165
61443SOL     OW94642   5.761   2.175   5.415  0.4507 -0.6538 -0.4887
61443SOL    HW194643   5.685   2.133   5.376  0.0137 -0.9197  0.5929
61443SOL    HW294644   5.817   2.198   5.341 -0.0591 -1.6654 -1.2134
61444SOL     OW94645   1.670   5.033  11.306  0.7188 -0.1957  0.3004
61444SOL    HW194646   1.699   4.966  11.368 -0.5539  0.0804  1.2227
61444SOL    HW294647   1.621   4.986  11.239  1.3902 -0.3915 -0.0643
61445SOL     OW94648   4.192   1.342  12.680  0.4020 -0.1560  0.0076
61445SOL    HW194649   4.253   1.403  12.638  1.5557 -1.4050 -0.2185
61445SOL    HW294650   4.121   1.331  12.617 -0.4041  1.7554  0.5059
61446SOL     OW94651   3.066   0.883  10.107 -0.0853  0.3320 -0.8920
61446SOL    HW194652   3.028   0.959  10.152 -0.0531  0.4284 -1.0239
61446SOL    HW294653   3.071   0.911  10.015 -0.4185  0.0326 -1.0034
61447SOL     OW94654  12.608   7.412   8.453  0.3890 -0.1407  0.3927
61447SOL    HW194655  12.586   7.471   8.525 -2.4676 -0.5816  0.0145
61447SOL    HW294656  12.702   7.422   8.441  0.3814  2.5555  1.8665
61448SOL     OW94657   9.904  10.462   1.019 -0.9256 -0.1062 -0.2425
61448SOL    HW194658   9.862  10.442   1.104  0.1931 -2.1862 -0.1166
61448SOL    HW294659   9.953  10.542   1.035 -0.9148 -0.3390  1.0426
61449SOL     OW94660   9.956   1.631   1.722  0.1635  0.2551  0.1576
61449SOL    HW194661  10.010   1.552   1.719 -1.7844 -1.1650 -3.4960
61449SOL    HW294662   9.871   1.601   1.756 -0.1547  1.1142  0.1495
61450SOL     OW94663   4.747   8.731   1.914  0.6247  0.5518 -0.3997
61450SOL    HW194664   4.827   8.692   1.878  0.5649  1.8880 -2.1584
61450SOL    HW294665   4.778   8.801   1.971  0.6994 -0.5220  0.9259
61451SOL     OW94666   8.260   1.634   9.711 -0.2276 -0.5520  0.3954
61451SOL    HW194667   8.261   1.622   9.805 -1.7726 -1.5518  0.3256
61451SOL    HW294668   8.192   1.574   9.680 -0.9977  1.0073 -1.1530
61452SOL     OW94669  12.621   2.757   0.853 -0.1241 -0.0738 -0.5877
61452SOL    HW194670  12.699   2.745   0.908 -0.2506 -2.1265 -0.7696
61452SOL    HW294671  12.654   2.799   0.774  0.7372 -0.5403 -0.4913
61453SOL     OW94672   3.750   2.773   5.875  0.7154 -0.0606  1.1809
61453SOL    HW194673   3.782   2.684   5.888 -1.0887 -0.8771  0.2746
61453SOL    HW294674   3.794   2.803   5.795 -0.3988 -1.0412  0.1525
61454SOL     OW94675   2.175   4.909  10.910 -0.0805 -0.3622  0.0224
61454SOL    HW194676   2.186   5.004  10.911  1.2585 -0.5016  0.9041
61454SOL    HW294677   2.162   4.887  10.818  3.2608  0.3160 -0.7088
61455SOL     OW94678   4.425   2.453   1.423  0.3081 -0.0420  0.1465
61455SOL    HW194679   4.500   2.395   1.432  0.1360 -0.5044 -1.1674
61455SOL    HW294680   4.453   2.519   1.360  0.5218  1.3645  1.6517
61456SOL     OW94681  10.346   3.387   3.505 -0.0574 -0.0869 -0.2466
61456SOL    HW194682  10.424   3.336   3.485  0.6120  0.8052  0.0316
61456SOL    HW294683  10.274   3.325   3.495  0.6488 -0.8367 -0.8404
61457SOL     OW94684   3.036   1.611   2.554  0.4763  0.3987  0.1862
61457SOL    HW194685   2.953   1.579   2.521 -0.6494  2.3302  0.9798
61457SOL    HW294686   3.040   1.580   2.645  0.4460  0.5949  0.2557
61458SOL     OW94687   2.323  10.776   8.398  0.9115  0.0594 -0.6411
61458SOL    HW194688   2.293  10.799   8.310 -0.8038  0.3849 -0.0153
61458SOL    HW294689   2.271  10.833   8.456  0.0346 -2.0001  0.7111
61459SOL     OW94690   6.429   7.717   7.201 -0.3975  0.8537 -0.3549
61459SOL    HW194691   6.489   7.665   7.255  0.0063 -0.4311 -1.9583
61459SOL    HW294692   6.446   7.807   7.227  1.9446  0.5082 -0.4220
61460SOL     OW94693   2.040   3.629  11.120  0.3814  1.4595  0.4292
61460SOL    HW194694   1.974   3.594  11.181 -0.8308  2.6731 -0.1324
61460SOL    HW294695   2.117   3.643  11.174 -0.5204  2.0537  1.6122
61461SOL     OW94696   5.250  12.606   3.888  0.1620  0.0582  0.2003
61461SOL    HW194697   5.198  12.681   3.917 -0.4177 -0.8574  1.6592
61461SOL    HW294698   5.233  12.539   3.954  0.7140 -1.3379 -1.0283
61462SOL     OW94699   8.604   7.335   7.640 -0.4883  0.2357  0.0878
61462SOL    HW194700   8.518   7.317   7.679 -0.5908  1.1929  0.3232
61462SOL    HW294701   8.604   7.429   7.626  0.9196  0.3908  1.0102
61463SOL     OW94702  11.735   5.099  10.978 -0.0464  0.2195  0.4115
61463SOL    HW194703  11.720   5.063  11.064  0.5001  0.2678  0.5325
61463SOL    HW294704  11.758   5.024  10.923  0.5629  0.3105  0.5380
61464SOL     OW94705   2.997   8.881   8.401  0.0302 -0.3798 -0.1388
61464SOL    HW194706   2.974   8.939   8.473 -0.4013  0.0171 -0.5885
61464SOL    HW294707   3.082   8.844   8.425 -0.4213 -0.7761  0.8927
61465SOL     OW94708   5.939   1.055   8.486 -0.8013 -0.1263  0.0015
61465SOL    HW194709   5.934   1.023   8.576  1.0199  1.1586  0.6113
61465SOL    HW294710   6.023   1.022   8.454 -2.2046 -2.1182 -1.9202
61466SOL     OW94711   8.926   0.134   2.012  0.3196  0.4749 -0.6486
61466SOL    HW194712   9.007   0.128   2.063  0.2654 -1.1530 -0.7039
61466SOL    HW294713   8.882   0.211   2.047  0.0009 -0.8743  2.2605
61467SOL     OW94714   9.140  12.737   3.553 -0.1971  0.6268 -0.3066
61467SOL    HW194715   9.164  12.827   3.577  1.1337  0.0011  0.9057
61467SOL    HW294716   9.220  12.701   3.514  0.0077 -0.6887  1.2441
61468SOL     OW94717  11.475   8.987   7.198 -0.7961  0.5548  0.0220
61468SOL    HW194718  11.538   9.008   7.267  0.4390  0.1371 -0.9309
61468SOL    HW294719  11.451   9.071   7.160 -1.8623  0.8313  1.2522
61469SOL     OW94720  10.502   6.249   4.521 -0.1102  0.1826  0.4944
61469SOL    HW194721  10.433   6.191   4.487 -0.9263  0.2136  2.0257
61469SOL    HW294722  10.581   6.194   4.521 -0.0130  0.2294 -1.5280
61470SOL     OW94723   2.689   5.353   0.502 -0.2194  0.9229 -0.0064
61470SOL    HW194724   2.593   5.346   0.500 -0.1998  0.7876 -0.7007
61470SOL    HW294725   2.718   5.274   0.548 -0.3729  0.1367 -1.2117
61471SOL     OW94726   3.107   1.950  11.967  0.0563 -0.5444  0.1950
61471SOL    HW194727   3.202   1.953  11.965  0.0610 -0.9929 -0.9980
61471SOL    HW294728   3.082   1.902  11.888 -1.1887  0.4098 -0.0395
61472SOL     OW94729   6.079  10.530   2.799 -0.2302  0.5562 -0.4296
61472SOL    HW194730   6.109  10.612   2.760  0.6495  0.7576  0.6323
61472SOL    HW294731   6.047  10.555   2.886  0.2157 -0.2413 -0.0255
61473SOL     OW94732   9.578   3.784   2.902 -0.0497  0.4322 -0.0640
61473SOL    HW194733   9.516   3.711   2.903  1.5644 -1.0306 -0.7881
61473SOL    HW294734   9.659   3.747   2.935  1.5478  1.1428 -2.8050
61474SOL     OW94735   6.677  12.780  12.631 -0.6669  0.3616 -0.3330
61474SOL    HW194736   6.728  12.808  12.555  0.3548  0.9310  0.5326
61474SOL    HW294737   6.587  12.773  12.599 -0.1928  0.2169 -1.6763
61475SOL     OW94738   5.068  12.875  12.717  0.0015  0.0511 -0.5356
61475SOL    HW194739   5.020  12.913  12.643  0.0133 -0.5002 -0.8335
61475SOL    HW294740   5.026  12.913  12.795 -2.3905 -2.0027 -0.6842
61476SOL     OW94741   3.059   8.826   5.942 -0.7239  0.1977  0.0968
61476SOL    HW194742   2.995   8.895   5.963 -1.5038 -0.4921  0.0341
61476SOL    HW294743   3.076   8.783   6.026  0.9700  1.4390  0.4445
61477SOL     OW94744   7.353   1.551   2.846 -0.5837  0.1964 -0.2583
61477SOL    HW194745   7.269   1.550   2.802  0.3778  0.8921 -2.2430
61477SOL    HW294746   7.392   1.466   2.827 -0.3554  0.3243 -0.3726
61478SOL     OW94747   6.480   0.808   6.730  0.0938  1.0465  0.2000
61478SOL    HW194748   6.500   0.715   6.745  1.2951  1.2997  0.2604
61478SOL    HW294749   6.565   0.849   6.716 -0.5601  1.7847 -1.9581
61479SOL     OW94750   4.840  10.262   8.090  0.1627 -0.6293 -0.1954
61479SOL    HW194751   4.891  10.276   8.170  1.3927 -2.8812 -0.5022
61479SOL    HW294752   4.750  10.281   8.115  0.7046  0.0869  1.3278
61480SOL     OW94753   7.968   8.558  12.923  0.5619  0.2510  1.1660
61480SOL    HW194754   7.957   8.605  13.005 -0.1183  0.7231  0.8149
61480SOL    HW294755   7.914   8.480  12.932 -1.2142  1.3401  0.3892
61481SOL     OW94756   4.552   1.211   8.741  0.5359  0.0037  0.2964
61481SOL    HW194757   4.638   1.171   8.756 -0.0873 -2.0275 -1.0944
61481SOL    HW294758   4.550   1.228   8.646 -0.2960  0.8003  0.4464
61482SOL     OW94759   6.126   5.795   4.810  0.7044  0.1834 -0.3061
61482SOL    HW194760   6.130   5.700   4.804  0.2976  0.1626 -0.2584
61482SOL    HW294761   6.044   5.813   4.856 -0.3266  0.6409 -2.2211
61483SOL     OW94762   8.001   6.898   3.691 -0.6428 -0.0910 -0.5195
61483SOL    HW194763   8.088   6.891   3.651 -1.0736  0.5630 -1.6085
61483SOL    HW294764   7.949   6.946   3.627 -1.2792  1.3012  0.9828
61484SOL     OW94765   3.859   7.635   7.417 -0.5067  0.6996  0.1042
61484SOL    HW194766   3.781   7.685   7.441 -0.9334  1.1929 -2.0250
61484SOL    HW294767   3.890   7.677   7.336  1.5219  0.0274  0.4720
61485SOL     OW94768   4.356   0.864  12.833 -0.3916 -0.6460 -0.7479
61485SOL    HW194769   4.343   0.921  12.757 -0.2431 -0.6223 -0.7555
61485SOL    HW294770   4.425   0.907  12.883  0.2547 -1.2101 -1.1352
61486SOL     OW94771   2.025  11.522   3.645 -0.5998  0.1930 -0.5214
61486SOL    HW194772   2.043  11.597   3.589  0.2436  0.9617  0.7330
61486SOL    HW294773   1.939  11.490   3.617 -0.3417  0.7530 -2.0059
61487SOL     OW94774   5.543   8.921   9.974  0.7600  0.9726 -0.8832
61487SOL    HW194775   5.542   8.825   9.974  0.3496  0.9430 -2.6400
61487SOL    HW294776   5.453   8.945   9.949  0.2846  1.8907  1.4481
61488SOL     OW94777  10.210   1.638   8.666 -0.5351 -0.4780 -0.4425
61488SOL    HW194778  10.258   1.715   8.637 -0.3515 -0.8416 -1.1444
61488SOL    HW294779  10.133   1.673   8.711  0.3836  0.1073  0.7069
61489SOL     OW94780   9.655  10.811   0.669 -0.5249 -0.2406  0.2375
61489SOL    HW194781   9.704  10.774   0.743 -1.9423  0.7280  1.7115
61489SOL    HW294782   9.722  10.854   0.616  0.5584 -1.1077  0.8425
61490SOL     OW94783   5.525   9.584  12.069 -0.1029  0.2789  0.4554
61490SOL    HW194784   5.534   9.674  12.036  0.5247 -0.5222 -1.7461
61490SOL    HW294785   5.436   9.559  12.044  0.4217 -0.3789 -0.8833
61491SOL     OW94786  12.734   3.489   3.333  0.6774  0.3179  0.1777
61491SOL    HW194787  12.724   3.400   3.299  1.1752 -0.0348  0.9242
61491SOL    HW294788  12.744   3.544   3.255  1.5215 -0.4339 -0.2499
61492SOL     OW94789   5.193   4.349   1.059 -0.4228  0.4032  0.8283
61492SOL    HW194790   5.265   4.386   1.008 -1.4998  1.1344 -0.2031
61492SOL    HW294791   5.118   4.351   1.000 -1.9144  2.0009  2.6647
61493SOL     OW94792   6.178   8.367   1.835 -0.2266  0.4385 -0.7001
61493SOL    HW194793   6.214   8.378   1.923  0.0111 -2.0524 -0.4141
61493SOL    HW294794   6.148   8.276   1.833 -2.8030  1.2058 -2.2844
61494SOL     OW94795   9.758   1.503   8.691 -0.2716  1.0281 -0.1380
61494SOL    HW194796   9.775   1.509   8.785 -2.7611  3.1595  0.2896
61494SOL    HW294797   9.723   1.416   8.678 -1.5401  1.2962  1.2618
61495SOL     OW94798  10.300   9.237   2.492 -0.3542 -0.8746 -0.1427
61495SOL    HW194799  10.215   9.224   2.451  0.5117 -2.2500 -1.6616
61495SOL    HW294800  10.314   9.158   2.545  0.6871 -1.5336 -1.3348
61496SOL     OW94801   0.260   7.046  11.835  0.1603  0.1257  0.4745
61496SOL    HW194802   0.238   7.053  11.743 -0.4371  2.3873  0.7393
61496SOL    HW294803   0.179   7.068  11.881  0.0718 -2.2043  1.6151
61497SOL     OW94804   1.419   5.834   4.682  0.0743  0.3904 -0.1981
61497SOL    HW194805   1.342   5.873   4.723  0.3741  1.0662 -0.2666
61497SOL    HW294806   1.443   5.894   4.612 -0.5129 -0.8176 -1.4991
61498SOL     OW94807   7.941   0.515   1.468 -0.2642 -0.1458 -0.1399
61498SOL    HW194808   7.910   0.429   1.496 -1.1958  0.1075 -0.3728
61498SOL    HW294809   7.900   0.576   1.529  0.8500  0.0991  0.3872
61499SOL     OW94810  10.391  10.547  10.809  0.0836 -0.1546  1.0123
61499SOL    HW194811  10.468  10.491  10.798 -0.7780 -1.3910  1.0563
61499SOL    HW294812  10.355  10.521  10.893 -1.3793 -0.8736  0.1915
61500SOL     OW94813   7.557  12.299  10.423 -0.6909  0.6106  0.3796
61500SOL    HW194814   7.582  12.385  10.389 -0.3640  0.2495 -0.3247
61500SOL    HW294815   7.482  12.317  10.480 -1.2420  1.2555 -0.5026
61501SOL     OW94816   5.790   4.580   2.317  0.3312 -0.5807 -0.1040
61501SOL    HW194817   5.819   4.554   2.404 -0.3272  1.6129  0.8532
61501SOL    HW294818   5.695   4.581   2.322  0.2796  2.0445  0.0565
61502SOL     OW94819   3.132   2.381   1.429  0.4213 -0.5344 -0.3577
61502SOL    HW194820   3.210   2.429   1.458  0.9647 -1.2922 -0.5185
61502SOL    HW294821   3.167   2.310   1.375 -0.3837 -0.9121 -0.3949
61503SOL     OW94822   0.452   3.818   4.005  0.9241  0.2249 -0.2468
61503SOL    HW194823   0.389   3.889   4.020  1.0665  0.3260 -0.1324
61503SOL    HW294824   0.526   3.859   3.963  0.9009  0.0973 -0.4155
61504SOL     OW94825   8.143   3.897  11.436 -0.7506 -0.5374  0.3425
61504SOL    HW194826   8.117   3.987  11.419  0.6550 -0.3867 -1.2788
61504SOL    HW294827   8.212   3.904  11.502  0.0249 -0.3180 -0.4734
61505SOL     OW94828   8.445   6.838  11.005 -0.0021  0.1314  0.0407
61505SOL    HW194829   8.515   6.901  11.022 -0.2709  0.0485  1.6470
61505SOL    HW294830   8.369   6.892  10.985 -0.1397  0.3245  1.0386
61506SOL     OW94831   6.181   1.698   7.768  0.1891  0.1669  0.3422
61506SOL    HW194832   6.157   1.609   7.740 -2.1047  1.2028 -1.3096
61506SOL    HW294833   6.251   1.724   7.709  0.1440 -0.1548  0.1425
61507SOL     OW94834   0.847  10.369   0.347 -0.6750  0.1682  0.8780
61507SOL    HW194835   0.777  10.336   0.404 -0.7550  0.8616  1.1822
61507SOL    HW294836   0.924  10.318   0.372 -0.7348  0.3979  1.5404
61508SOL     OW94837   8.317   0.553  10.224 -0.3342  0.1009  0.0589
61508SOL    HW194838   8.302   0.642  10.191 -0.6025 -0.2280 -0.7254
61508SOL    HW294839   8.230   0.512  10.221 -0.2527 -0.1199  0.6306
61509SOL     OW94840  10.857   7.165  11.560 -0.4766  0.1136  0.3450
61509SOL    HW194841  10.804   7.131  11.632  0.4121  0.6977  1.2958
61509SOL    HW294842  10.928   7.213  11.603  0.2862  0.1495 -0.9133
61510SOL     OW94843   8.536  11.093   9.255  0.0641 -0.2667 -0.6225
61510SOL    HW194844   8.526  11.187   9.269  0.8545 -0.2619  0.0253
61510SOL    HW294845   8.562  11.059   9.341 -1.1930 -1.2333 -0.6080
61511SOL     OW94846   9.291   1.444   7.093 -0.1642  0.4602  0.3293
61511SOL    HW194847   9.233   1.520   7.088 -1.1422 -0.1710  1.6212
61511SOL    HW294848   9.238   1.375   7.132  0.8746 -0.7388 -0.3196
61512SOL     OW94849   0.074  11.628   9.366 -0.1640 -0.3149 -0.0464
61512SOL    HW194850  -0.010  11.673   9.372 -0.8442 -1.2822 -1.4936
61512SOL    HW294851   0.051  11.535   9.362  1.0487 -0.6627  0.6020
61513SOL     OW94852  11.949   8.456   8.152 -0.1665 -0.0313 -0.1800
61513SOL    HW194853  11.905   8.372   8.155  1.7218 -1.0257  1.1034
61513SOL    HW294854  11.953   8.485   8.243 -0.7793  1.4842 -0.5990
61514SOL     OW94855   8.270  11.495   4.718  0.3221  0.5975  0.3041
61514SOL    HW194856   8.348  11.447   4.747 -0.2478  0.1932  1.1913
61514SOL    HW294857   8.225  11.434   4.659 -0.7491 -0.2648  1.9458
61515SOL     OW94858  10.812   4.040  11.565  0.0148  0.8548  0.3228
61515SOL    HW194859  10.820   4.105  11.634 -0.9283  4.3579 -2.5226
61515SOL    HW294860  10.718   4.033  11.549  0.2575  1.6266 -1.7630
61516SOL     OW94861   2.137  12.119   8.589 -0.3314  0.4425 -0.4854
61516SOL    HW194862   2.092  12.203   8.600 -1.2897  0.0308 -1.1486
61516SOL    HW294863   2.137  12.081   8.676 -2.1732  0.0162 -0.6453
61517SOL     OW94864   9.349  12.838   7.472 -0.4045  0.1041 -0.1345
61517SOL    HW194865   9.433  12.875   7.447 -0.7476  1.0905  0.1397
61517SOL    HW294866   9.337  12.865   7.563 -0.2526 -1.4510  0.3684
61518SOL     OW94867   6.570   6.731   3.196  0.0950  0.2226 -0.2273
61518SOL    HW194868   6.607   6.684   3.270  1.0334  0.6791 -0.3968
61518SOL    HW294869   6.503   6.788   3.234 -2.4393 -2.5153 -0.1969
61519SOL     OW94870   2.314   8.161   3.378  0.3983 -0.0605 -0.0172
61519SOL    HW194871   2.264   8.239   3.402 -0.3755 -0.5795  0.0659
61519SOL    HW294872   2.388   8.196   3.328 -0.5927  0.6602 -1.0506
61520SOL     OW94873   1.005  10.476   3.921 -0.3304  0.4079 -0.6398
61520SOL    HW194874   0.932  10.526   3.884 -0.5335  0.7050  0.1503
61520SOL    HW294875   1.007  10.501   4.013  0.0014 -0.5308 -0.3855
61521SOL     OW94876   6.849   2.733   1.420 -0.0578 -0.7394 -0.0069
61521SOL    HW194877   6.760   2.710   1.445  0.4292 -1.0382  1.5468
61521SOL    HW294878   6.879   2.659   1.367 -1.5004  0.4235 -2.6833
61522SOL     OW94879   6.234  12.063  12.443  0.0788 -0.2412 -0.1009
61522SOL    HW194880   6.263  12.154  12.440 -0.9136  0.0759 -1.6474
61522SOL    HW294881   6.147  12.067  12.482 -0.3951 -0.3608 -1.1000
61523SOL     OW94882  11.509   8.929   0.330  0.0652  0.1047  0.5762
61523SOL    HW194883  11.421   8.952   0.362 -0.2677  0.9959 -0.8754
61523SOL    HW294884  11.561   9.008   0.343  0.1562  0.1856 -0.2371
61524SOL     OW94885   7.468   3.875   2.527  0.1197 -0.0143 -0.2330
61524SOL    HW194886   7.449   3.968   2.531  0.5683  0.0840 -0.2876
61524SOL    HW294887   7.390   3.832   2.562 -0.4088  0.3433 -0.9522
61525SOL     OW94888   6.875   9.622   6.553  0.2469  0.3714 -1.2505
61525SOL    HW194889   6.869   9.565   6.630  0.6049 -0.4322 -1.8031
61525SOL    HW294890   6.968   9.642   6.545  0.2921 -0.0339 -1.8112
61526SOL     OW94891  12.699   2.140   2.089 -0.8740 -0.0824  0.0675
61526SOL    HW194892  12.781   2.177   2.055  0.7163 -2.9216  0.4367
61526SOL    HW294893  12.632   2.170   2.028  0.6844  1.1647 -1.1162
61527SOL     OW94894   9.070   5.480   5.314 -0.4370  0.5401 -0.2357
61527SOL    HW194895   8.986   5.447   5.280 -0.7778  0.8751  0.2827
61527SOL    HW294896   9.077   5.569   5.279 -0.2438  0.4741 -0.3669
61528SOL     OW94897   8.874   8.797   4.072  0.1170  0.2547 -1.0132
61528SOL    HW194898   8.851   8.716   4.027 -1.3146  0.6701 -1.0609
61528SOL    HW294899   8.813   8.862   4.038  1.0031  1.2747 -0.6994
61529SOL     OW94900   5.313  12.246   6.637 -0.8068  0.1977  0.1598
61529SOL    HW194901   5.326  12.167   6.689 -0.7160  0.5179  0.6326
61529SOL    HW294902   5.271  12.215   6.556  0.9934 -0.5793 -0.5174
61530SOL     OW94903   3.825   9.080   3.155 -0.7173 -0.6947 -0.5146
61530SOL    HW194904   3.815   9.013   3.223 -1.2689  1.8064  2.0148
61530SOL    HW294905   3.744   9.130   3.157  0.2828  1.0380 -1.2218
61531SOL     OW94906  12.210   4.426   0.664 -0.6621  0.1754  0.4824
61531SOL    HW194907  12.189   4.518   0.677  0.7858  0.2699  2.5740
61531SOL    HW294908  12.234   4.419   0.571 -0.9374  1.8478  0.2681
61532SOL     OW94909   7.878   2.951   6.103  0.8279  0.2524  0.0757
61532SOL    HW194910   7.973   2.956   6.089  0.8488  0.4471  0.2887
61532SOL    HW294911   7.869   2.918   6.192  0.6930  0.1905  0.0395
61533SOL     OW94912   4.617  11.601   2.171  0.4829 -0.4760 -0.9226
61533SOL    HW194913   4.543  11.558   2.212  0.4212  0.2499 -0.2500
61533SOL    HW294914   4.580  11.677   2.126  0.7026 -0.6320 -1.3851
61534SOL     OW94915   0.310   0.508   1.231  0.2385 -0.3619  0.0030
61534SOL    HW194916   0.311   0.470   1.319 -2.2169  2.0152  1.2087
61534SOL    HW294917   0.367   0.585   1.238 -0.6519  0.3275 -0.2066
61535SOL     OW94918  11.608   9.748  12.584 -0.0557  0.1954  0.6363
61535SOL    HW194919  11.628   9.717  12.673 -0.6922  1.0026  1.0715
61535SOL    HW294920  11.586   9.668  12.536  0.6912 -0.2985  1.0874
61536SOL     OW94921   6.368  12.823   7.498 -0.6141  0.0534  0.5236
61536SOL    HW194922   6.323  12.741   7.476 -0.4197  0.6077 -2.3475
61536SOL    HW294923   6.391  12.814   7.590 -3.2101 -1.8504  1.0963
61537SOL     OW94924   1.146   6.676   5.451 -0.2066  0.2283  0.4355
61537SOL    HW194925   1.129   6.582   5.443  1.0913  0.0306 -0.3783
61537SOL    HW294926   1.226   6.682   5.503  0.1556  0.8315 -0.1691
61538SOL     OW94927   5.697   6.693   4.898  0.3914  0.1953  0.2699
61538SOL    HW194928   5.664   6.705   4.809  1.7932 -1.5676 -0.5704
61538SOL    HW294929   5.700   6.781   4.934 -1.0515  0.8626 -1.1001
61539SOL     OW94930   6.167   4.492   4.976  0.1426  0.3250 -0.2313
61539SOL    HW194931   6.153   4.425   4.909 -0.8346  0.2589  0.0249
61539SOL    HW294932   6.229   4.452   5.037 -0.2752 -0.2600 -0.1882
61540SOL     OW94933   0.790   5.555   7.575  0.0751  0.1898 -0.7059
61540SOL    HW194934   0.845   5.546   7.498  0.4142 -0.0848 -0.4368
61540SOL    HW294935   0.829   5.495   7.640  0.6310  1.4344  0.1463
61541SOL     OW94936   5.308   0.923  11.683 -0.6408 -0.4203 -0.1624
61541SOL    HW194937   5.245   0.874  11.734 -2.6698  1.2212 -0.9541
61541SOL    HW294938   5.349   0.983  11.746 -0.8616 -0.5489  0.1026
61542SOL     OW94939  10.667   5.766  10.018 -0.5160  0.0317 -0.1040
61542SOL    HW194940  10.665   5.849   9.971  0.2216  0.8606  1.2726
61542SOL    HW294941  10.760   5.746  10.028 -0.6775 -0.5685  0.2576
61543SOL     OW94942   0.447   9.316  12.534 -0.3393 -0.0960  0.2987
61543SOL    HW194943   0.361   9.319  12.574 -0.9082  1.2282 -0.9301
61543SOL    HW294944   0.440   9.247  12.467 -0.0997 -0.7187  0.9047
61544SOL     OW94945   3.185   0.131   2.221  0.4486  0.0226 -0.5589
61544SOL    HW194946   3.168   0.044   2.185 -0.0159  1.0298 -2.9823
61544SOL    HW294947   3.228   0.178   2.149 -2.4934  2.8646 -0.6976
61545SOL     OW94948   3.607   9.746   7.056 -0.4254  0.6407  0.2477
61545SOL    HW194949   3.563   9.713   6.978 -0.5290 -3.1067  1.6840
61545SOL    HW294950   3.701   9.739   7.035 -0.4429  1.3554 -0.1144
61546SOL     OW94951  11.981   4.844   3.862  0.3811  0.3160 -0.1771
61546SOL    HW194952  11.966   4.899   3.785 -1.3540 -1.5256 -1.2715
61546SOL    HW294953  11.897   4.843   3.908  0.5923 -0.7673  0.2275
61547SOL     OW94954  12.809  11.871  12.106 -0.2931  0.4500 -0.3705
61547SOL    HW194955  12.874  11.838  12.044 -1.9696 -1.8743 -0.9867
61547SOL    HW294956  12.778  11.953  12.067  0.5047  0.3431 -1.2726
61548SOL     OW94957  12.704   7.028   8.879  0.0763 -0.0012  0.4343
61548SOL    HW194958  12.733   7.119   8.883  0.8207 -0.2485  0.7138
61548SOL    HW294959  12.648   7.017   8.956 -0.2881  0.3011  0.2227
61549SOL     OW94960   1.033   0.433  12.252 -0.5950  0.0805 -0.0561
61549SOL    HW194961   1.104   0.418  12.314 -0.0739 -0.5860 -0.8004
61549SOL    HW294962   1.055   0.379  12.176 -0.7789  1.5131 -1.1727
61550SOL     OW94963   0.287   4.012   6.252 -0.3233 -0.1638  0.2787
61550SOL    HW194964   0.282   3.952   6.177 -0.2924 -0.7454  0.7389
61550SOL    HW294965   0.263   3.958   6.327 -1.6582  0.7407  0.5281
61551SOL     OW94966   6.657   4.378   1.445 -0.2426 -0.0639 -0.3270
61551SOL    HW194967   6.635   4.455   1.393 -0.0974 -0.7528 -1.4374
61551SOL    HW294968   6.576   4.329   1.452 -0.1288 -0.2619 -0.3887
61552SOL     OW94969   3.963  11.253  11.735 -0.1153 -0.1828 -0.5408
61552SOL    HW194970   3.886  11.306  11.760 -1.3391 -1.9055 -0.5157
61552SOL    HW294971   4.021  11.259  11.811  0.1702  1.7449 -0.8460
61553SOL     OW94972   0.644   1.631   2.049  0.5003  0.1126 -0.6407
61553SOL    HW194973   0.614   1.541   2.062  0.6942  0.2875  1.2596
61553SOL    HW294974   0.720   1.623   1.992  1.1482 -1.0602  0.3359
61554SOL     OW94975   6.828   6.991   6.016  0.4262 -0.5495 -0.2434
61554SOL    HW194976   6.883   6.932   5.964  0.6630 -1.0407  0.5633
61554SOL    HW294977   6.873   7.076   6.010  2.1788 -1.2688  1.6844
61555SOL     OW94978   6.800   5.599   4.854  0.3007  0.4877  0.4871
61555SOL    HW194979   6.776   5.633   4.940 -1.5601 -1.4458  0.8115
61555SOL    HW294980   6.794   5.504   4.864  1.8102  0.1455 -1.3145
61556SOL     OW94981   0.033  10.511   9.724  0.0295 -0.6064 -0.2380
61556SOL    HW194982   0.011  10.420   9.744  1.6701 -1.4463 -1.9424
61556SOL    HW294983   0.073  10.544   9.805 -1.2824 -1.1162  0.6489
61557SOL     OW94984  12.861   0.064   3.889 -0.6654  0.1654  0.0864
61557SOL    HW194985  12.908   0.144   3.865  0.4897 -0.0103  1.6164
61557SOL    HW294986  12.848   0.017   3.807  0.6236  0.8862 -0.5474
61558SOL     OW94987   9.640   2.712   3.468 -0.1147  0.6652 -0.0568
61558SOL    HW194988   9.545   2.709   3.470 -0.0810 -0.3401  0.9741
61558SOL    HW294989   9.667   2.624   3.494  1.1184  1.7649  2.8024
61559SOL     OW94990  10.415   1.805  12.650 -0.1656  0.3402  0.4089
61559SOL    HW194991  10.322   1.782  12.641 -0.0508  0.4441 -1.4236
61559SOL    HW294992  10.462   1.724  12.631  0.1377  0.3725  1.0012
61560SOL     OW94993  11.902  10.971   6.488  0.4177  0.2329 -0.0683
61560SOL    HW194994  11.845  10.897   6.511  0.6169  0.3860  0.9612
61560SOL    HW294995  11.841  11.041   6.462 -0.1724  1.4660  4.0126
61561SOL     OW94996   2.047  11.664  11.904 -0.2566  0.4800  0.3529
61561SOL    HW194997   2.076  11.713  11.826  0.3537  1.2514  1.0400
61561SOL    HW294998   2.127  11.625  11.938 -0.2694  1.2764  1.3491
61562SOL     OW94999   5.174   9.148   0.423  0.0323 -0.0159 -0.3656
61562SOL    HW195000   5.117   9.218   0.392 -0.4448 -0.6789 -1.0406
61562SOL    HW295001   5.191   9.095   0.344 -1.2529 -1.7984  0.4862
61563SOL     OW95002   8.575   8.700   9.174  0.4896  0.0753 -0.1699
61563SOL    HW195003   8.574   8.657   9.260  0.3706  0.5698  0.0832
61563SOL    HW295004   8.482   8.709   9.152  0.5305 -0.4898 -0.5759
61564SOL     OW95005   2.299   1.866   3.318  0.3185  0.1315 -0.2430
61564SOL    HW195006   2.350   1.946   3.329 -1.1232  0.9803  0.4495
61564SOL    HW295007   2.300   1.824   3.404  1.4383 -0.8709 -0.7049
61565SOL     OW95008   8.672  12.684   0.833 -0.1039  0.0483 -0.0418
61565SOL    HW195009   8.766  12.688   0.852  0.1785  2.8989 -1.5747
61565SOL    HW295010   8.652  12.590   0.832  2.9574 -0.6984 -0.7876
61566SOL     OW95011  11.098   1.840  12.365 -0.3510 -0.2352  0.3245
61566SOL    HW195012  11.094   1.930  12.333  0.9843  0.3939  1.7906
61566SOL    HW295013  11.182   1.807  12.334 -0.8788 -1.0293 -0.2949
61567SOL     OW95014   4.226  11.228  10.294  0.1079 -0.5319  0.4791
61567SOL    HW195015   4.266  11.198  10.213  0.0963  0.4434  0.1087
61567SOL    HW295016   4.246  11.321  10.299 -0.9965 -0.2992  0.9483
61568SOL     OW95017   4.963   2.398   7.263 -0.0586  0.1212  0.3276
61568SOL    HW195018   4.985   2.313   7.224 -3.0893 -0.6533  0.0219
61568SOL    HW295019   5.047   2.442   7.273  1.5142 -2.3835 -0.7192
61569SOL     OW95020  10.414  11.019   5.754 -0.1306  0.1247 -0.8370
61569SOL    HW195021  10.465  11.073   5.815 -1.5399  1.4094 -0.7208
61569SOL    HW295022  10.475  10.952   5.724  1.1530  0.6431  0.4907
61570SOL     OW95023   8.104  10.477   1.179  0.3423 -0.0331  0.2894
61570SOL    HW195024   8.169  10.545   1.199 -0.0505  0.4826 -0.1593
61570SOL    HW295025   8.156  10.397   1.170  0.7218  0.0117  1.7238
61571SOL     OW95026   5.862  12.442   3.210 -0.3869 -0.7880  0.0144
61571SOL    HW195027   5.820  12.499   3.145 -0.4280 -1.5054 -0.5991
61571SOL    HW295028   5.847  12.487   3.294  1.2980  1.1217 -0.6379
61572SOL     OW95029  12.866   8.239   1.552 -0.1088  0.5547  0.2468
61572SOL    HW195030  12.946   8.203   1.512 -1.2375 -0.4815 -1.1666
61572SOL    HW295031  12.899   8.297   1.621  1.8422 -0.9384  0.6741
61573SOL     OW95032  11.895   8.608  10.327  0.3597  0.1702 -0.3900
61573SOL    HW195033  11.872   8.700  10.343  0.5369  0.1013  0.2816
61573SOL    HW295034  11.941   8.580  10.406  0.3640 -0.4843 -0.6140
61574SOL     OW95035   8.757   6.739   5.184  0.2307  0.4670 -0.2479
61574SOL    HW195036   8.666   6.711   5.196  0.3622  0.6185  1.4207
61574SOL    HW295037   8.752   6.833   5.168  0.1217  0.6998  1.0253
61575SOL     OW95038   4.934   4.163   0.751  0.2712 -0.2585  0.5932
61575SOL    HW195039   4.874   4.158   0.826  1.6152 -2.5750  1.6225
61575SOL    HW295040   4.918   4.082   0.703  1.4796 -0.1566  0.0050
61576SOL     OW95041   0.433   4.685   6.201  0.3326 -0.1235  0.0392
61576SOL    HW195042   0.344   4.712   6.180  1.1139  1.6881 -1.1883
61576SOL    HW295043   0.438   4.691   6.297 -0.5881  0.7251  0.0465
61577SOL     OW95044   4.033   3.137   2.125  0.1322 -0.2038  0.2755
61577SOL    HW195045   4.070   3.218   2.159 -2.3669  1.2167 -0.1600
61577SOL    HW295046   4.091   3.112   2.053  0.5677  1.6100 -0.0490
61578SOL     OW95047   5.612   0.133   5.367  0.4584  0.4860  0.5107
61578SOL    HW195048   5.574   0.116   5.280  2.5742 -0.9788 -0.2103
61578SOL    HW295049   5.645   0.223   5.361  1.6674 -0.0037 -0.6767
61579SOL     OW95050   3.608   7.550   1.064 -0.3199  0.5768  0.3439
61579SOL    HW195051   3.654   7.632   1.048 -0.0383  0.8318  2.1766
61579SOL    HW295052   3.662   7.505   1.130 -1.3467 -0.2963  0.6151
61580SOL     OW95053   1.493   0.496   1.147 -0.2495 -0.0145  0.4099
61580SOL    HW195054   1.398   0.507   1.149 -0.1412  0.7779  1.8178
61580SOL    HW295055   1.506   0.410   1.107 -1.6277 -0.9041  1.7805
61581SOL     OW95056   6.605   2.481  10.317 -0.6095 -0.3820 -0.1536
61581SOL    HW195057   6.669   2.540  10.279 -1.1257  0.6851  0.5725
61581SOL    HW295058   6.645   2.394  10.309  0.5551  0.1556 -0.4505
61582SOL     OW95059  12.517   5.912   5.158 -0.0264 -0.3483 -0.3167
61582SOL    HW195060  12.524   5.828   5.203 -2.0471 -0.7087 -0.5579
61582SOL    HW295061  12.464   5.893   5.080  0.1451  0.9996 -0.7908
61583SOL     OW95062   9.400  11.446   9.517  0.4516 -0.6106 -1.1738
61583SOL    HW195063   9.366  11.433   9.606 -0.4661  2.0684 -1.0336
61583SOL    HW295064   9.486  11.486   9.530  0.0006  0.4900 -1.4339
61584SOL     OW95065   9.656  11.141  10.298  0.2439  0.1087 -0.1468
61584SOL    HW195066   9.584  11.081  10.280 -0.0322  0.7100 -1.1269
61584SOL    HW295067   9.694  11.109  10.380  0.9094 -2.1962 -1.2481
61585SOL     OW95068  11.457   8.894  11.872 -0.2148 -0.0361  0.8466
61585SOL    HW195069  11.417   8.908  11.786 -0.0476  0.5213  0.8524
61585SOL    HW295070  11.475   8.800  11.876 -0.3186 -0.0799  0.3157
61586SOL     OW95071   8.385   1.436  11.526 -0.0903 -0.3371  0.0149
61586SOL    HW195072   8.308   1.445  11.582  0.0809  1.2226  0.0531
61586SOL    HW295073   8.454   1.483  11.573  0.0581  1.0284 -1.4623
61587SOL     OW95074   8.645   4.555   2.148  0.1822 -0.3959  0.5106
61587SOL    HW195075   8.740   4.544   2.144  0.2507  0.3989 -0.2674
61587SOL    HW295076   8.627   4.569   2.241  0.9538  0.4506  0.5558
61588SOL     OW95077  10.323   7.571   4.947 -0.1542 -0.4021 -0.0797
61588SOL    HW195078  10.366   7.657   4.944  0.8896 -0.9237 -0.3918
61588SOL    HW295079  10.394   7.508   4.937 -0.9859 -1.2973 -0.4866
61589SOL     OW95080   7.077   4.656   4.357 -0.1606 -0.0117 -0.5244
61589SOL    HW195081   7.134   4.667   4.433 -1.4444  0.0227  0.4571
61589SOL    HW295082   7.125   4.596   4.300  0.0732 -1.4869  1.1226
61590SOL     OW95083   8.561  11.640   3.532  0.5444 -0.3159 -0.5046
61590SOL    HW195084   8.492  11.662   3.594  1.9666 -0.3549  1.1836
61590SOL    HW295085   8.516  11.593   3.462 -0.9737 -1.5117  1.1696
61591SOL     OW95086  12.154  10.223  10.888 -0.3794  0.7018 -0.1942
61591SOL    HW195087  12.233  10.172  10.871 -1.9937 -1.7189 -0.9913
61591SOL    HW295088  12.145  10.223  10.983  1.1554  2.0515 -0.0022
61592SOL     OW95089   5.833   6.867   5.945  0.2766  0.2032  0.6180
61592SOL    HW195090   5.800   6.783   5.912 -0.8971  1.1528 -0.7228
61592SOL    HW295091   5.916   6.880   5.899  0.6244 -0.3542  1.0717
61593SOL     OW95092   6.499   8.620   0.170  0.2050 -0.1880 -0.0369
61593SOL    HW195093   6.542   8.617   0.256  0.5423  0.5537 -0.1658
61593SOL    HW295094   6.520   8.536   0.129 -1.1716 -1.1617  1.1614
61594SOL     OW95095   0.679   8.322   7.180 -0.7806  0.1046  0.4997
61594SOL    HW195096   0.705   8.279   7.098 -2.2304  2.6309 -1.4345
61594SOL    HW295097   0.653   8.250   7.237 -0.6522 -1.7297 -1.6061
61595SOL     OW95098   9.891   1.203   0.611  0.5327  0.3847 -0.0153
61595SOL    HW195099   9.940   1.165   0.539 -1.0485 -0.2442 -0.8026
61595SOL    HW295100   9.895   1.297   0.597 -0.1855  0.2484 -1.2369
61596SOL     OW95101  10.206   2.063   5.077 -0.2288 -0.3682 -0.5722
61596SOL    HW195102  10.130   2.037   5.025 -1.4482 -1.2430  1.4956
61596SOL    HW295103  10.212   2.158   5.065 -0.9911 -0.4314 -1.5907
61597SOL     OW95104   2.590   1.093   7.283 -0.3897 -0.3733  0.0847
61597SOL    HW195105   2.522   1.159   7.277  0.6322  0.6664 -0.3223
61597SOL    HW295106   2.588   1.048   7.199 -0.9055 -0.6964  0.2646
61598SOL     OW95107   6.992  12.750   8.870  0.9191  0.2983  0.2909
61598SOL    HW195108   7.020  12.706   8.790  1.3469  0.7231  0.2078
61598SOL    HW295109   7.012  12.687   8.940  4.3404  1.4670  0.5253
61599SOL     OW95110   0.559   0.123   9.220  0.0481  0.0526  0.4937
61599SOL    HW195111   0.598   0.119   9.308  1.3414 -1.5097 -0.0964
61599SOL    HW295112   0.585   0.208   9.186  1.5427 -0.2656  0.7774
61600SOL     OW95113   6.260   9.956  10.092  0.6722 -0.0733  0.3603
61600SOL    HW195114   6.344   9.978  10.051  0.8762  0.5886  1.1095
61600SOL    HW295115   6.245  10.026  10.156 -0.5918 -0.0356  0.0414
61601SOL     OW95116   3.636   8.654   1.942 -0.3804 -0.4684  0.1166
61601SOL    HW195117   3.594   8.736   1.967  0.6983  0.0946  0.1179
61601SOL    HW295118   3.669   8.669   1.853  1.2717 -0.3118  0.7258
61602SOL     OW95119  11.469   1.216   2.131  0.5492  0.3914  0.5930
61602SOL    HW195120  11.457   1.193   2.223 -1.9060  1.9662  0.7443
61602SOL    HW295121  11.472   1.311   2.130 -2.3603  0.5768 -1.1558
61603SOL     OW95122  10.594   4.412   0.465 -0.1291  0.2918  0.3605
61603SOL    HW195123  10.570   4.320   0.474 -0.2047 -0.1708 -3.1242
61603SOL    HW295124  10.523   4.460   0.507 -0.7597 -1.2240  1.0786
61604SOL     OW95125   6.294   8.056   7.150 -0.0416  0.2243 -0.2556
61604SOL    HW195126   6.360   8.017   7.207  0.0144  2.4443  1.2954
61604SOL    HW295127   6.318   8.148   7.145 -2.6191  0.9608 -0.2256
61605SOL     OW95128  12.149   8.484  12.005  0.1299  0.1694 -0.3880
61605SOL    HW195129  12.123   8.392  12.011  1.2747 -0.1436  0.0891
61605SOL    HW295130  12.227   8.491  12.061  0.6804  1.2019 -1.2345
61606SOL     OW95131   1.084  11.169   2.791  0.3808 -0.1093  0.2446
61606SOL    HW195132   1.056  11.226   2.719  0.4074  1.5248  1.4856
61606SOL    HW295133   1.111  11.229   2.860 -0.6225 -1.6119  2.0260
61607SOL     OW95134   6.495   2.888   8.117 -0.1728 -0.2555  0.4777
61607SOL    HW195135   6.474   2.918   8.205 -0.0158  1.0922  0.0861
61607SOL    HW295136   6.565   2.823   8.129 -1.0269 -1.0259  1.4173
61608SOL     OW95137  10.637   5.757   3.782  0.3098 -0.1968  0.0422
61608SOL    HW195138  10.702   5.821   3.812 -0.6379  0.7655  0.1097
61608SOL    HW295139  10.616   5.784   3.693 -1.8657  1.1047  0.8741
61609SOL     OW95140   4.423   1.377  11.453  0.5199 -0.1850  0.3592
61609SOL    HW195141   4.422   1.417  11.366  1.2868  1.6160  1.1140
61609SOL    HW295142   4.475   1.298  11.443 -0.3244 -0.5912 -1.0352
61610SOL     OW95143   3.251   2.825  12.057 -0.0178 -0.3470  0.1712
61610SOL    HW195144   3.229   2.742  12.015 -3.0204 -1.4581  3.4564
61610SOL    HW295145   3.243   2.890  11.986 -2.4456 -2.3147 -1.5588
61611SOL     OW95146   5.434  12.867   4.329  0.3038  0.5860  0.3288
61611SOL    HW195147   5.412  12.896   4.240 -2.2608  0.6907  0.9252
61611SOL    HW295148   5.528  12.881   4.336  0.3755  1.7139 -1.9523
61612SOL     OW95149   9.929   6.769   1.375 -1.2637 -0.0915 -0.3106
61612SOL    HW195150   9.846   6.742   1.335 -0.8895  0.2672 -1.3893
61612SOL    HW295151   9.985   6.692   1.368 -0.4973  0.5825 -2.5356
61613SOL     OW95152   7.308  11.917   9.532  0.5865  0.7287 -0.0589
61613SOL    HW195153   7.214  11.935   9.524  0.8601  2.5730  0.2603
61613SOL    HW295154   7.326  11.928   9.625  1.0247 -0.2388 -0.0177
61614SOL     OW95155   5.158   3.225   1.386 -0.3215 -0.2602 -0.3978
61614SOL    HW195156   5.163   3.317   1.412  1.2160 -0.7519  1.3081
61614SOL    HW295157   5.219   3.217   1.313  1.0703 -0.2305  0.6981
61615SOL     OW95158   4.519   5.646   1.879 -0.4359 -0.2720  0.4021
61615SOL    HW195159   4.542   5.592   1.804 -0.4364 -0.9441  0.8755
61615SOL    HW295160   4.458   5.592   1.930 -0.5082  0.2097  0.8400
61616SOL     OW95161   3.275  11.402   6.828 -0.0599 -0.4845  0.1819
61616SOL    HW195162   3.258  11.322   6.778 -0.5940 -0.5618  0.4701
61616SOL    HW295163   3.236  11.384   6.914  0.4361 -0.1803  0.4717
61617SOL     OW95164   6.054   5.113   8.657  0.3020  0.5832  0.0089
61617SOL    HW195165   6.095   5.098   8.572  0.5372 -0.5906  0.3200
61617SOL    HW295166   5.963   5.134   8.637  0.6861  1.8018 -0.6041
61618SOL     OW95167   3.352   6.768  12.327  0.6138  0.1108 -0.3277
61618SOL    HW195168   3.399   6.721  12.395  0.6937  1.3519  0.5059
61618SOL    HW295169   3.265   6.728  12.325 -0.3943  1.8445  2.5459
61619SOL     OW95170   8.656   5.331   4.618  0.3645  0.9504  0.2222
61619SOL    HW195171   8.662   5.348   4.524 -0.7573 -0.0558 -0.0538
61619SOL    HW295172   8.706   5.250   4.631  1.2802  1.5666  0.6601
61620SOL     OW95173   9.968   4.977   0.725 -0.1502  0.5514 -0.0813
61620SOL    HW195174   9.911   5.053   0.735 -1.9894 -0.7668  0.0930
61620SOL    HW295175   9.955   4.927   0.806  1.5826  0.3857  0.1265
61621SOL     OW95176  12.535   2.847  11.836  0.1515 -0.5614 -0.2046
61621SOL    HW195177  12.510   2.926  11.788  1.3202 -0.8693 -1.3625
61621SOL    HW295178  12.452   2.803  11.856 -0.5279  0.9801  0.5500
61622SOL     OW95179   5.191   6.790  10.352  0.3581 -0.4915 -0.3135
61622SOL    HW195180   5.121   6.839  10.395 -0.1745 -0.5889 -1.0395
61622SOL    HW295181   5.272   6.832  10.380 -0.1124  1.4353 -1.6479
61623SOL     OW95182   1.581   6.444   7.270 -0.2473  0.1308  0.0007
61623SOL    HW195183   1.605   6.439   7.177 -0.3886 -0.8847  0.0067
61623SOL    HW295184   1.596   6.535   7.294  0.6607  0.1976 -0.7820
61624SOL     OW95185   8.170  11.244   0.449  0.7395  0.4978  0.1802
61624SOL    HW195186   8.178  11.156   0.487  1.0504  0.9955  1.3311
61624SOL    HW295187   8.257  11.263   0.416  0.9713  0.7927  0.9328
61625SOL     OW95188   2.492  12.564   9.150 -0.2006  0.0367 -0.1711
61625SOL    HW195189   2.464  12.564   9.059 -1.1074 -0.9189  0.0747
61625SOL    HW295190   2.586  12.546   9.147 -0.1449  0.4475 -0.9264
61626SOL     OW95191   5.210   5.236   9.904 -0.9088 -0.0256 -0.1930
61626SOL    HW195192   5.252   5.186   9.834  0.2845  1.1554 -0.3682
61626SOL    HW295193   5.124   5.260   9.868 -0.8305 -0.5351 -0.7361
61627SOL     OW95194   4.452  10.987   9.702 -0.0619  0.1036  0.6221
61627SOL    HW195195   4.377  10.930   9.723  0.0480  0.1589  1.1712
61627SOL    HW295196   4.415  11.055   9.646  0.3796 -2.2647 -2.8891
61628SOL     OW95197   0.563   8.915   8.135  0.5541  0.0816 -0.0956
61628SOL    HW195198   0.611   8.994   8.162  0.2241  0.0148  0.7153
61628SOL    HW295199   0.630   8.847   8.132  0.9152  0.4544 -1.1739
61629SOL     OW95200   1.874   5.451  12.087 -0.1225 -0.0006 -0.0011
61629SOL    HW195201   1.784   5.458  12.121 -0.7107  0.6485 -1.6080
61629SOL    HW295202   1.868   5.385  12.018  1.1248 -1.5371  1.2620
61630SOL     OW95203   2.660   6.364   2.192  0.3325 -0.3818 -0.2905
61630SOL    HW195204   2.669   6.425   2.119  1.5163  0.0936  0.2157
61630SOL    HW295205   2.719   6.399   2.260 -1.3560 -0.3317  1.2195
61631SOL     OW95206   9.942  10.297  10.950  0.1544  0.2364 -0.0095
61631SOL    HW195207   9.853  10.327  10.935 -0.1029 -0.0473  0.8594
61631SOL    HW295208   9.992  10.330  10.875 -0.5846  0.7809 -0.2734
61632SOL     OW95209   5.169   3.022   0.203 -0.1256  0.0938  0.2681
61632SOL    HW195210   5.227   2.985   0.269 -0.0414  0.4970  0.4199
61632SOL    HW295211   5.085   2.980   0.219  0.2070 -0.7648 -0.1830
61633SOL     OW95212   1.863   1.789   0.701 -0.3699 -0.4607 -0.1647
61633SOL    HW195213   1.779   1.834   0.712 -0.3024  0.4334 -2.7489
61633SOL    HW295214   1.886   1.761   0.790 -3.4817 -0.9762  0.6044
61634SOL     OW95215   4.284   6.685  11.251 -0.0576  0.1154 -0.4156
61634SOL    HW195216   4.296   6.702  11.157  3.0037  0.7395 -0.0014
61634SOL    HW295217   4.280   6.590  11.258  1.9491 -0.0705 -1.0546
61635SOL     OW95218   7.467   9.262  10.951  0.1049 -0.0113 -0.1367
61635SOL    HW195219   7.441   9.187  10.898 -0.6133  0.3479 -0.3050
61635SOL    HW295220   7.451   9.236  11.041  2.2485 -0.9981  0.0340
61636SOL     OW95221  11.538   6.440   9.824  0.4469  0.2311 -0.1495
61636SOL    HW195222  11.462   6.430   9.767  0.4298  0.9367 -0.2552
61636SOL    HW295223  11.574   6.351   9.832 -3.2682 -1.3057  4.0019
61637SOL     OW95224   1.392   3.468   8.114 -0.3084  0.1328  0.3775
61637SOL    HW195225   1.332   3.492   8.043  1.8004  0.7162 -1.3017
61637SOL    HW295226   1.360   3.517   8.190 -2.8680 -0.8255  0.0235
61638SOL     OW95227  11.903   6.288  12.836 -0.1323  0.2035  0.5221
61638SOL    HW195228  11.966   6.216  12.837  1.6077  1.6315 -0.3497
61638SOL    HW295229  11.868   6.289  12.747 -2.4966 -1.3900  1.3184
61639SOL     OW95230   0.878   5.484   2.157 -0.1656 -0.1137  0.4026
61639SOL    HW195231   0.873   5.434   2.075 -2.0291 -1.0165  1.0159
61639SOL    HW295232   0.888   5.417   2.225  0.1213  0.5471  1.0232
61640SOL     OW95233   6.478   8.524  11.790 -0.0657  0.0653  0.3921
61640SOL    HW195234   6.518   8.584  11.853 -1.2367  0.4892  0.7793
61640SOL    HW295235   6.545   8.458  11.773  1.5547  1.9097 -0.6714
61641SOL     OW95236   5.863  12.113   3.476 -0.0675 -0.5294  0.8407
61641SOL    HW195237   5.869  12.164   3.557 -0.7259  1.0918 -0.0841
61641SOL    HW295238   5.796  12.158   3.424  1.1059 -0.8727 -1.0594
61642SOL     OW95239   3.446   5.314  10.343  0.4887 -0.3138 -0.2964
61642SOL    HW195240   3.364   5.340  10.301  0.2047  0.2129  0.5662
61642SOL    HW295241   3.507   5.384  10.323  0.4870 -0.2903 -0.2190
61643SOL     OW95242   4.821   4.491   5.984  0.3777 -0.4406 -0.1963
61643SOL    HW195243   4.798   4.439   5.907  0.6090  1.3960 -1.5811
61643SOL    HW295244   4.900   4.539   5.958  1.0278 -0.4798  1.5416
61644SOL     OW95245   7.258   0.378  12.298 -0.5048  0.3301 -0.0946
61644SOL    HW195246   7.165   0.390  12.282 -0.9349 -1.1923  0.9953
61644SOL    HW295247   7.278   0.294  12.256  0.3846  0.6362 -0.3079
61645SOL     OW95248   4.206   1.536   7.449 -0.4581  0.1776  0.0657
61645SOL    HW195249   4.277   1.583   7.495  0.6135 -4.0483  3.4380
61645SOL    HW295250   4.245   1.508   7.367  0.3365  1.3574  0.0141
61646SOL     OW95251   9.280   5.496   7.602 -0.1657  0.2289  0.1494
61646SOL    HW195252   9.359   5.453   7.569  1.7044  2.9415  0.7484
61646SOL    HW295253   9.237   5.531   7.524 -0.7769 -1.1526 -0.1667
61647SOL     OW95254   7.213   8.464   0.053  0.3369  0.3379 -0.1623
61647SOL    HW195255   7.280   8.411   0.009  0.9808  1.6774 -0.8340
61647SOL    HW295256   7.202   8.540  -0.003 -1.5863  0.2746  0.0696
61648SOL     OW95257   3.356  12.237   8.513 -0.1921 -0.4002 -0.2464
61648SOL    HW195258   3.362  12.332   8.504 -0.4566 -0.4526 -1.1581
61648SOL    HW295259   3.429  12.213   8.570 -1.6757  0.5975  2.2326
61649SOL     OW95260   3.393   8.412   4.451  0.5052  0.3109  0.4120
61649SOL    HW195261   3.391   8.316   4.442  2.1085  0.2362  0.4437
61649SOL    HW295262   3.387   8.445   4.362 -1.2595  0.2510  0.4779
61650SOL     OW95263   8.848  11.035  12.369 -0.5515 -0.0877  0.3245
61650SOL    HW195264   8.795  11.028  12.449 -2.3865  1.7696 -0.6591
61650SOL    HW295265   8.877  11.126  12.368  1.5365 -0.6966  0.0615
61651SOL     OW95266   4.948   1.312   0.128  0.6572  0.0179  0.0810
61651SOL    HW195267   4.970   1.262   0.206  0.0083 -0.5610 -0.0986
61651SOL    HW295268   5.029   1.358   0.106  0.8065  0.2984  1.1625
61652SOL     OW95269   2.074   9.784   8.889  0.5570 -0.0471 -0.0738
61652SOL    HW195270   2.064   9.880   8.887 -0.4097 -0.1286  0.1077
61652SOL    HW295271   2.069   9.761   8.981  1.9405 -0.1826 -0.0151
61653SOL     OW95272   4.179  12.133   2.794  0.1719  0.1145  0.2268
61653SOL    HW195273   4.173  12.084   2.876 -0.6299  1.8599  1.2595
61653SOL    HW295274   4.232  12.077   2.737  0.9600 -1.0403  1.9989
61654SOL     OW95275   5.468   4.981   9.192 -0.1430 -0.1586  0.0248
61654SOL    HW195276   5.482   5.007   9.101 -0.2181 -0.1649  0.0112
61654SOL    HW295277   5.397   5.037   9.222 -1.2232 -1.2603 -0.4051
61655SOL     OW95278   1.664   6.992   2.782 -0.0463 -0.0384 -0.2443
61655SOL    HW195279   1.628   7.081   2.786 -0.1329 -0.1193  2.1436
61655SOL    HW295280   1.719   6.992   2.704 -0.6612  1.8707 -0.7312
61656SOL     OW95281  10.280  11.604   1.513 -0.0342  0.5625 -0.1611
61656SOL    HW195282  10.355  11.661   1.495 -0.4343  0.8949 -0.8062
61656SOL    HW295283  10.292  11.529   1.455  0.2200  0.2281  0.3178
61657SOL     OW95284   8.137   9.460   2.002 -0.0395  0.0484 -0.0901
61657SOL    HW195285   8.076   9.412   2.059 -0.8632  0.7061 -0.3953
61657SOL    HW295286   8.110   9.551   2.010 -0.3500  0.1225 -1.7477
61658SOL     OW95287   1.636   7.271   5.684  0.5013 -0.4703 -0.8204
61658SOL    HW195288   1.728   7.247   5.698  0.0070 -2.6774 -0.9715
61658SOL    HW295289   1.588   7.223   5.752 -0.4897  1.5311 -0.0248
61659SOL     OW95290   1.148   9.897  12.810 -0.3356 -0.3269  0.4227
61659SOL    HW195291   1.243   9.894  12.799 -0.5357 -1.4411 -1.3269
61659SOL    HW295292   1.123   9.984  12.778  0.0853 -0.0236  0.9017
61660SOL     OW95293   0.584   5.169  11.168  0.0512 -0.0546 -0.0370
61660SOL    HW195294   0.524   5.239  11.142  0.4720  0.0210 -0.8512
61660SOL    HW295295   0.530   5.091  11.171 -0.5727  0.4131  1.5798
61661SOL     OW95296   4.590   4.800   8.005 -0.1016  0.2409  0.1521
61661SOL    HW195297   4.568   4.779   7.914 -2.7266 -0.6569  0.8816
61661SOL    HW295298   4.550   4.729   8.056  1.2652  0.7385  2.0342
61662SOL     OW95299   6.737   7.223   5.103 -0.5390 -0.3741 -0.2951
61662SOL    HW195300   6.750   7.147   5.161 -0.3887 -0.3416 -0.2858
61662SOL    HW295301   6.758   7.191   5.016  0.8576  0.0050 -0.1265
61663SOL     OW95302   0.945   7.738  10.472 -0.2711  0.0203 -0.2821
61663SOL    HW195303   0.883   7.685  10.522 -0.4056  0.6824  0.2704
61663SOL    HW295304   1.011   7.765  10.536 -0.7882  1.4093 -0.2946
61664SOL     OW95305   6.857   4.342   6.626  0.3891  0.5624 -0.2392
61664SOL    HW195306   6.789   4.348   6.693 -0.0158 -1.8011 -0.3566
61664SOL    HW295307   6.935   4.315   6.674  0.8104  1.4706 -0.3816
61665SOL     OW95308   3.988   3.757   3.839  0.1107 -0.0015 -0.0594
61665SOL    HW195309   4.009   3.663   3.841 -2.3496 -0.6502 -1.2257
61665SOL    HW295310   4.021   3.790   3.923  0.6362 -1.9941  0.5800
61666SOL     OW95311   9.760   1.608   1.930  0.2603 -0.1263  0.1054
61666SOL    HW195312   9.838   1.658   1.954 -0.7595  1.6356 -0.0449
61666SOL    HW295313   9.708   1.606   2.010 -0.5493  0.7196 -0.3854
61667SOL     OW95314   9.429   6.967   5.600  0.1928  0.0816  0.3376
61667SOL    HW195315   9.485   6.961   5.678  0.1495  0.2537  0.3820
61667SOL    HW295316   9.367   7.037   5.621 -0.5609 -0.6521  0.6268
61668SOL     OW95317  11.104  11.653   3.802 -0.1551 -0.0465  0.2225
61668SOL    HW195318  11.065  11.736   3.829 -1.3671 -0.4332 -0.2768
61668SOL    HW295319  11.058  11.629   3.722 -1.2104 -2.1172  1.3368
61669SOL     OW95320   0.806   8.280   2.531  0.1600 -0.3347 -0.1161
61669SOL    HW195321   0.740   8.292   2.598 -0.2103 -1.5510 -0.2413
61669SOL    HW295322   0.871   8.223   2.571  0.7556  0.2285 -0.2588
61670SOL     OW95323  11.822  11.312   6.042 -0.2160  0.1040  0.1674
61670SOL    HW195324  11.844  11.228   6.001 -0.0394  0.0688  0.3307
61670SOL    HW295325  11.729  11.324   6.023  0.1405  0.7294 -1.4016
61671SOL     OW95326   4.795   9.187   6.603 -0.2044  0.0404  0.7379
61671SOL    HW195327   4.723   9.170   6.664  0.9881 -0.3549  2.0866
61671SOL    HW295328   4.793   9.281   6.589 -1.7865 -0.1036 -0.3119
61672SOL     OW95329   6.857   0.374   4.057  0.5199 -0.3077 -0.0602
61672SOL    HW195330   6.899   0.317   4.121  0.3535 -0.7389 -0.3297
61672SOL    HW295331   6.923   0.441   4.036  1.2266 -1.2060 -0.7850
61673SOL     OW95332   4.690   9.486   2.917  0.7708  0.1534 -0.4423
61673SOL    HW195333   4.639   9.408   2.941  0.2073  1.0573  1.5290
61673SOL    HW295334   4.625   9.549   2.886  0.4951  1.4503  2.4493
61674SOL     OW95335  11.366   9.167   5.435 -0.4692  0.1888  0.1608
61674SOL    HW195336  11.442   9.213   5.471  0.4767 -0.3188 -1.1064
61674SOL    HW295337  11.307   9.237   5.406  0.1871  0.6121 -0.1829
61675SOL     OW95338   3.555   7.681   4.003 -0.1419  0.1554 -0.4870
61675SOL    HW195339   3.640   7.637   4.014  0.7184  1.7501 -0.5573
61675SOL    HW295340   3.508   7.660   4.084  0.5252 -0.3072 -0.2046
61676SOL     OW95341   6.678   8.499   2.701 -0.2701 -0.1080 -0.0591
61676SOL    HW195342   6.626   8.422   2.681  1.4989 -1.4693  0.3772
61676SOL    HW295343   6.692   8.494   2.796  0.8662  0.0745 -0.2078
61677SOL     OW95344   2.972   0.292   3.239  0.3148 -0.6389  0.0364
61677SOL    HW195345   2.892   0.256   3.278 -0.6032  0.2134 -0.9954
61677SOL    HW295346   2.998   0.227   3.174 -0.3728 -0.2711 -0.6270
61678SOL     OW95347   1.200   0.570  11.001 -0.4089  0.3013 -0.3798
61678SOL    HW195348   1.278   0.561  11.055 -0.8229 -1.2161  0.0105
61678SOL    HW295349   1.227   0.538  10.915 -0.1003  1.5552 -0.7768
61679SOL     OW95350   2.316  11.775   3.648 -0.4387 -0.1064  0.0460
61679SOL    HW195351   2.358  11.689   3.651 -0.5808 -0.3447 -2.4768
61679SOL    HW295352   2.293  11.794   3.739  1.7018 -1.6502  1.0056
61680SOL     OW95353   5.185  11.018   5.449 -0.0884 -0.7388 -0.8441
61680SOL    HW195354   5.159  11.109   5.432 -0.4354 -0.8902 -1.1264
61680SOL    HW295355   5.119  10.986   5.510  1.2412 -0.1448  1.0156
61681SOL     OW95356   1.903   8.460   9.811 -0.0506 -0.1290 -0.1155
61681SOL    HW195357   1.909   8.509   9.729 -0.8045  1.3637  0.6698
61681SOL    HW295358   1.953   8.380   9.795  1.1517  0.8383 -1.5094
61682SOL     OW95359   8.313   8.913   6.603  0.4100  0.6681 -0.2108
61682SOL    HW195360   8.268   8.838   6.563 -0.8534  0.4649  1.4614
61682SOL    HW295361   8.405   8.899   6.583 -0.0945  0.5072 -2.8251
61683SOL     OW95362   4.414   6.586  10.775  0.1014 -0.1788 -0.2855
61683SOL    HW195363   4.493   6.539  10.748 -0.2572  0.0459 -1.8432
61683SOL    HW295364   4.412   6.663  10.718 -1.7487 -0.6967 -0.9881
61684SOL     OW95365  10.506   6.747   7.636  0.0105  0.1355  0.4296
61684SOL    HW195366  10.446   6.785   7.700  1.2467  2.4037  0.3180
61684SOL    HW295367  10.574   6.706   7.689 -0.1687 -0.0218  0.5428
61685SOL     OW95368   3.989   3.473   6.558  0.0893  0.0915  0.1472
61685SOL    HW195369   3.924   3.486   6.488 -0.9634 -2.2124  0.6108
61685SOL    HW295370   3.942   3.493   6.639  0.4697  0.0094  0.3899
61686SOL     OW95371   0.595   0.399   2.144  0.3252 -0.2518  0.0528
61686SOL    HW195372   0.639   0.324   2.183  1.0800  0.2543  0.2045
61686SOL    HW295373   0.607   0.388   2.050 -2.9978 -2.4025 -0.2741
61687SOL     OW95374   3.322   1.809   3.993 -0.3716 -0.2778  0.3425
61687SOL    HW195375   3.248   1.868   3.982  0.0646  0.3996  0.9085
61687SOL    HW295376   3.396   1.867   4.013 -0.0417 -1.0318  1.4252
61688SOL     OW95377   4.950   8.487   0.554 -0.1229  0.4009 -0.1725
61688SOL    HW195378   5.004   8.478   0.475 -0.6082 -2.1987 -0.2888
61688SOL    HW295379   4.861   8.469   0.525 -0.6756  1.8117  0.5569
61689SOL     OW95380   6.187  10.554  10.539 -0.3079 -0.3046  0.1332
61689SOL    HW195381   6.125  10.488  10.507 -1.1558 -0.1742  1.4510
61689SOL    HW295382   6.175  10.628  10.479 -1.5002 -0.2532  0.3970
61690SOL     OW95383   1.077   6.349   4.908 -0.0284 -0.2446  0.1234
61690SOL    HW195384   1.050   6.418   4.848 -0.9393 -0.9424 -0.2917
61690SOL    HW295385   1.039   6.269   4.872  0.2313 -0.8276  1.0980
61691SOL     OW95386  11.736   3.560   4.518  0.2261  0.0170  0.3724
61691SOL    HW195387  11.666   3.505   4.552 -0.3856  0.9738  0.6809
61691SOL    HW295388  11.697   3.647   4.509  0.3235 -0.1687 -2.8532
61692SOL     OW95389   3.608   5.947   3.782  0.0659  0.2171  0.0455
61692SOL    HW195390   3.564   5.982   3.860  2.1085  0.9545  0.9246
61692SOL    HW295391   3.694   5.918   3.813  1.7599  2.3569 -2.2414
61693SOL     OW95392   0.184   3.946   4.043  0.4183 -0.1069 -0.1530
61693SOL    HW195393   0.100   3.909   4.071 -0.2615  2.5123  1.7166
61693SOL    HW295394   0.160   4.027   3.997  1.8609  0.7695  0.5482
61694SOL     OW95395   3.894   0.580   6.459 -0.6251 -0.6020 -0.6064
61694SOL    HW195396   3.977   0.620   6.433  0.0062 -1.6236 -0.2130
61694SOL    HW295397   3.841   0.583   6.379 -0.8085  1.4434 -0.4656
61695SOL     OW95398   2.591   2.805   7.466  0.3656 -0.2603 -0.0796
61695SOL    HW195399   2.625   2.721   7.435  2.9044  0.0247  1.5741
61695SOL    HW295400   2.655   2.869   7.436  1.0462  0.4319  2.5545
61696SOL     OW95401  12.446   0.661  11.690 -0.4888 -0.2242  0.0478
61696SOL    HW195402  12.495   0.662  11.772 -0.5625  0.3107  0.0892
61696SOL    HW295403  12.483   0.734  11.640 -2.0266  0.9414  0.5467
61697SOL     OW95404   5.195   7.911   8.953  0.9216  0.3551 -0.1403
61697SOL    HW195405   5.190   7.862   9.035 -2.4399  1.8111  0.6873
61697SOL    HW295406   5.238   7.851   8.892  1.5137 -1.6357  2.0764
61698SOL     OW95407   4.447   9.662  11.310 -0.5512 -0.3915 -0.0641
61698SOL    HW195408   4.374   9.666  11.248 -0.2516 -1.5558 -0.5315
61698SOL    HW295409   4.480   9.572  11.301  0.6372 -0.0244  0.4716
61699SOL     OW95410  11.198  12.548   0.455  0.0427 -0.4632 -0.4794
61699SOL    HW195411  11.129  12.491   0.488 -0.1885 -1.0799 -1.9541
61699SOL    HW295412  11.266  12.545   0.523 -1.2455 -0.0392  0.8827
61700SOL     OW95413   9.098  11.003   7.589 -0.6491  0.2555 -0.2262
61700SOL    HW195414   9.168  11.032   7.647 -0.6281 -0.5786  0.1752
61700SOL    HW295415   9.072  11.082   7.542  1.5486  0.3253 -1.4488
61701SOL     OW95416   3.703  11.589   3.788 -0.3127 -0.2785  0.1213
61701SOL    HW195417   3.752  11.510   3.809  0.4340  0.3047  0.6263
61701SOL    HW295418   3.754  11.632   3.719 -1.8353 -1.2952 -1.7240
61702SOL     OW95419   2.868   0.281   6.875  0.0752 -0.0638  0.3313
61702SOL    HW195420   2.960   0.308   6.887  0.2147 -0.7903  0.9156
61702SOL    HW295421   2.857   0.278   6.780  0.5023  0.5339  0.2546
61703SOL     OW95422   2.296   6.012  11.236  0.3529  0.0795 -0.5233
61703SOL    HW195423   2.273   6.036  11.146  0.9654 -0.2646 -0.7754
61703SOL    HW295424   2.379   6.056  11.252  2.3075 -2.9730 -1.5178
61704SOL     OW95425   3.117  12.840   7.057  0.0639  0.1431  0.0336
61704SOL    HW195426   3.178  12.836   7.130  0.5596 -0.9606 -0.4090
61704SOL    HW295427   3.039  12.795   7.088  0.7383 -1.4840 -0.4962
61705SOL     OW95428  10.341   0.757  12.615  0.0805  0.2384 -0.3163
61705SOL    HW195429  10.274   0.773  12.548 -0.3020  0.1147  0.0275
61705SOL    HW295430  10.382   0.674  12.589 -0.5409 -0.1691 -0.0239
61706SOL     OW95431  11.221   1.753   6.746 -0.5000 -0.3334 -0.7122
61706SOL    HW195432  11.243   1.828   6.690  1.2929 -0.8217 -0.7089
61706SOL    HW295433  11.256   1.776   6.832 -0.5569 -0.8836 -0.5409
61707SOL     OW95434   5.206   5.057   6.807 -0.4497  0.1473  0.2374
61707SOL    HW195435   5.199   5.070   6.901  0.7230  1.5108  0.1676
61707SOL    HW295436   5.275   4.990   6.798 -1.4873 -0.9740  0.3620
61708SOL     OW95437   1.995   7.980   3.974 -0.5490  0.5886  0.1273
61708SOL    HW195438   1.979   8.011   3.885 -0.5248  2.1854  0.6467
61708SOL    HW295439   2.028   8.057   4.021 -1.0169 -0.0855  1.6384
61709SOL     OW95440   0.989   4.088  10.821 -0.0862  0.5378  1.0113
61709SOL    HW195441   0.980   4.034  10.899 -0.0184  0.4536  0.9607
61709SOL    HW295442   1.064   4.145  10.840 -0.3724  0.8507  1.2035
61710SOL     OW95443   5.167   7.050   1.140  0.0535 -0.1087 -0.2170
61710SOL    HW195444   5.175   7.054   1.044  1.8169 -1.0096 -0.1594
61710SOL    HW295445   5.124   7.132   1.164 -1.3052 -0.2966 -1.8464
61711SOL     OW95446   6.683   4.232   8.080  0.5460  0.4466 -0.6067
61711SOL    HW195447   6.705   4.257   7.990  0.1916 -0.1510 -0.8705
61711SOL    HW295448   6.767   4.228   8.125  1.1628 -2.4219 -1.7498
61712SOL     OW95449  11.406   8.527   1.544  0.5892  0.5634  0.1539
61712SOL    HW195450  11.397   8.572   1.628  1.5145  1.5997 -0.2784
61712SOL    HW295451  11.335   8.562   1.490 -0.0997 -0.2145  0.5273
61713SOL     OW95452  10.320   6.172   6.075 -0.2906  0.1915 -0.1302
61713SOL    HW195453  10.408   6.159   6.040 -0.6306 -2.0226 -0.2757
61713SOL    HW295454  10.328   6.152   6.168 -0.6735 -0.2781 -0.1940
61714SOL     OW95455  11.206   9.216   6.963 -0.7901  0.3124  0.0231
61714SOL    HW195456  11.283   9.233   7.017 -1.1541  0.7167  0.4246
61714SOL    HW295457  11.163   9.142   7.005 -0.7122  0.1998 -0.0978
61715SOL     OW95458  10.243   8.260   7.809 -0.0151  0.1009  0.4933
61715SOL    HW195459  10.222   8.217   7.892  1.6864  0.9513  1.4113
61715SOL    HW295460  10.338   8.250   7.800  0.0353  1.2965 -0.6119
61716SOL     OW95461   3.410  12.341   4.134  0.2244 -0.3955 -0.6768
61716SOL    HW195462   3.502  12.363   4.123 -0.3888  2.1317 -1.4475
61716SOL    HW295463   3.411  12.257   4.180  2.9076  0.2758  0.7296
61717SOL     OW95464   3.468  12.398   2.691  0.2405 -0.2450  0.1649
61717SOL    HW195465   3.460  12.493   2.694  0.3033 -0.2616  1.0942
61717SOL    HW295466   3.545  12.382   2.636  0.4774  0.2505  0.3479
61718SOL     OW95467   2.216  10.067   5.846  0.0855  0.3075  0.4777
61718SOL    HW195468   2.226  10.159   5.872  2.0771 -0.1625  1.6279
61718SOL    HW295469   2.303  10.029   5.860  0.1307 -1.1204 -2.7549
61719SOL     OW95470  10.515   0.029  12.172  0.1107 -0.5484 -0.0291
61719SOL    HW195471  10.574  -0.046  12.167 -0.0068 -0.5793 -1.3307
61719SOL    HW295472  10.434  -0.002  12.131  0.2634  0.4516 -1.1445
61720SOL     OW95473   2.091  12.680   2.141  0.3116  0.1730 -0.2851
61720SOL    HW195474   2.032  12.641   2.206 -0.3504  0.5144 -0.6686
61720SOL    HW295475   2.043  12.756   2.108  0.4221 -0.2871 -1.5465
61721SOL     OW95476   9.974   2.912  12.263 -0.2528  0.9762  0.4188
61721SOL    HW195477   9.906   2.951  12.318 -1.0414  0.3401 -0.0827
61721SOL    HW295478   9.944   2.927  12.173 -1.7717 -2.6228  0.1544
61722SOL     OW95479   6.131   6.512   2.356 -0.4697  0.1920 -0.1310
61722SOL    HW195480   6.190   6.527   2.429 -2.1422  0.2232  1.2849
61722SOL    HW295481   6.157   6.576   2.290  0.8806  0.3677  0.5331
61723SOL     OW95482   0.129  11.948  10.917  0.3385 -0.5218 -0.0772
61723SOL    HW195483   0.070  12.020  10.894  0.5503  0.1091  1.2620
61723SOL    HW295484   0.171  11.977  10.998 -0.0557 -2.4365  0.8619
61724SOL     OW95485   5.204   0.488   7.327 -0.1199  0.2493  0.0837
61724SOL    HW195486   5.286   0.492   7.375  0.1465  0.2503 -0.3642
61724SOL    HW295487   5.194   0.395   7.304 -0.2499  0.2468  0.1508
61725SOL     OW95488  12.901  12.800   8.090 -0.3115 -0.1098  0.6246
61725SOL    HW195489  12.863  12.817   8.176 -2.6980 -0.6864 -0.2370
61725SOL    HW295490  12.833  12.827   8.028  0.5187 -1.6227 -1.0369
61726SOL     OW95491   2.156  10.643   3.875 -0.3299 -0.1071  0.2935
61726SOL    HW195492   2.226  10.705   3.854 -0.6746 -0.0381 -0.6836
61726SOL    HW295493   2.077  10.685   3.843 -0.4547 -1.5078 -1.3404
61727SOL     OW95494  12.407   0.165   2.723  0.5875 -0.0713  0.2303
61727SOL    HW195495  12.454   0.087   2.692 -1.4463 -0.2765 -2.8193
61727SOL    HW295496  12.429   0.233   2.659 -1.6646  0.3204 -0.2355
61728SOL     OW95497   6.224  10.848   5.537  0.0873 -0.2627  0.6094
61728SOL    HW195498   6.309  10.820   5.503 -0.1067  0.4539 -0.5375
61728SOL    HW295499   6.215  10.803   5.621  1.9756  0.3244  1.1636
61729SOL     OW95500   8.765   6.147   6.334 -0.0829 -0.5742 -0.4917
61729SOL    HW195501   8.689   6.204   6.322 -0.7912 -1.4316 -0.1458
61729SOL    HW295502   8.798   6.132   6.245  0.9865  1.4880 -0.5208
61730SOL     OW95503  12.004   5.192  10.901  0.0592 -0.2014 -0.0544
61730SOL    HW195504  12.036   5.102  10.893 -1.1773 -0.6185 -0.5538
61730SOL    HW295505  11.917   5.183  10.940 -0.0228  0.7952  0.0236
61731SOL     OW95506   3.308   2.241   0.682 -0.6659  0.1017 -0.2370
61731SOL    HW195507   3.338   2.186   0.755 -0.8690 -0.0364 -0.2555
61731SOL    HW295508   3.216   2.260   0.703 -0.6464  0.2882 -0.3208
61732SOL     OW95509   2.707   6.027  10.466 -0.1894  0.2143 -0.1353
61732SOL    HW195510   2.676   6.055  10.379  0.6314  1.2469 -0.1147
61732SOL    HW295511   2.801   6.016  10.456 -0.5233 -3.8521 -0.4546
61733SOL     OW95512   9.421  10.295   4.021  0.6481 -0.3217  0.1260
61733SOL    HW195513   9.333  10.259   4.034  1.2830 -1.6574  0.9295
61733SOL    HW295514   9.461  10.292   4.108  1.5203  0.2247 -0.2438
61734SOL     OW95515  12.525   0.026   9.111  0.0805 -0.0391 -0.4288
61734SOL    HW195516  12.553   0.052   9.199 -0.3628  0.4865 -0.4353
61734SOL    HW295517  12.598   0.052   9.054 -0.1796  0.8181 -0.3785
61735SOL     OW95518   1.859  12.401  10.715 -0.2162 -0.1023 -0.3651
61735SOL    HW195519   1.855  12.309  10.741  0.5074 -0.4746 -1.4806
61735SOL    HW295520   1.948  12.428  10.736  0.5802 -0.5761 -2.8025
61736SOL     OW95521   7.423   4.377   1.427  0.1166 -0.2073 -0.3479
61736SOL    HW195522   7.518   4.386   1.424  0.1439 -0.7438 -1.4981
61736SOL    HW295523   7.390   4.445   1.369 -0.1038 -1.1890 -1.4115
61737SOL     OW95524   5.322  12.925  12.255 -0.1706 -0.2283 -0.0671
61737SOL    HW195525   5.321  13.020  12.251 -0.1821 -0.1828  0.8606
61737SOL    HW295526   5.414  12.901  12.241 -0.0164 -0.0299  0.5761
61738SOL     OW95527   6.700  12.366   1.880  0.4403  0.3923  0.3634
61738SOL    HW195528   6.653  12.353   1.798 -0.2913 -0.0808  0.8548
61738SOL    HW295529   6.661  12.445   1.918  2.6108  2.2855 -1.0072
61739SOL     OW95530   5.747   1.918   6.167  0.1820 -0.0725 -0.0012
61739SOL    HW195531   5.723   1.860   6.239  0.5712 -0.0739  0.1340
61739SOL    HW295532   5.767   2.001   6.209 -0.0664  0.0708 -0.1619
61740SOL     OW95533  12.809  10.158   4.593 -0.5248 -0.2883  0.7847
61740SOL    HW195534  12.895  10.129   4.625  0.2901  2.2649  1.1987
61740SOL    HW295535  12.762  10.078   4.574  2.0259 -1.7939  0.3530
61741SOL     OW95536   8.597   0.358   7.748  0.7717  0.0026 -0.3104
61741SOL    HW195537   8.560   0.374   7.835 -1.3707 -1.8200 -0.7941
61741SOL    HW295538   8.668   0.295   7.763  0.7796  0.1192  0.1568
61742SOL     OW95539   5.408   0.733   4.617  0.0821  0.0056  0.0486
61742SOL    HW195540   5.441   0.735   4.706 -0.2500 -2.2618  0.2994
61742SOL    HW295541   5.346   0.805   4.611 -0.1304 -0.0155  1.7564
61743SOL     OW95542   2.923   8.912   1.556 -0.2668  0.0646  0.3549
61743SOL    HW195543   2.911   8.817   1.565 -0.5749 -0.0321 -0.8364
61743SOL    HW295544   2.844   8.950   1.594  0.0506 -0.1244  1.2317
61744SOL     OW95545   3.895   6.400  10.584  0.2560 -0.3729  0.0979
61744SOL    HW195546   3.883   6.323  10.639  0.7343  0.2787  1.1465
61744SOL    HW295547   3.873   6.474  10.641  1.8567  0.3960 -0.2280
61745SOL     OW95548   1.314  11.413   4.931  0.1665  0.2696 -0.2879
61745SOL    HW195549   1.282  11.480   4.991 -1.6683 -1.3491  0.6297
61745SOL    HW295550   1.407  11.407   4.950  0.0500  1.3727  0.7931
61746SOL     OW95551  11.495   8.468  10.165  0.2628  0.2377  0.0353
61746SOL    HW195552  11.523   8.520  10.240  1.0847 -0.6934  0.3901
61746SOL    HW295553  11.511   8.524  10.089 -0.9271  1.3367  0.5606
61747SOL     OW95554   0.568   6.595  10.793  0.2425  0.3864 -0.1527
61747SOL    HW195555   0.640   6.587  10.729  0.0197  0.4672 -0.4145
61747SOL    HW295556   0.611   6.587  10.878  0.1439 -4.1334 -0.2432
61748SOL     OW95557  11.341   5.693   7.403  0.5405 -0.1107  0.5031
61748SOL    HW195558  11.352   5.639   7.325  0.7818 -0.2841  0.6569
61748SOL    HW295559  11.254   5.733   7.393  0.5953 -0.0843  0.1164
61749SOL     OW95560   4.963  11.358   7.423  0.1919  0.3146  0.1082
61749SOL    HW195561   4.903  11.418   7.468  0.1855  0.9151 -0.6883
61749SOL    HW295562   5.050  11.382   7.456  0.0183 -0.6110  1.3278
61750SOL     OW95563   0.537  11.117   9.818  0.1435  0.2509 -0.0493
61750SOL    HW195564   0.535  11.192   9.758  1.2861  0.5347  0.2463
61750SOL    HW295565   0.582  11.150   9.896 -0.1025 -0.5076  0.4218
61751SOL     OW95566   8.365   3.570   4.502  0.4069 -0.4510 -0.8524
61751SOL    HW195567   8.301   3.609   4.442  0.1044 -1.3157 -1.1033
61751SOL    HW295568   8.328   3.485   4.525 -1.6717  1.4598  4.0639
61752SOL     OW95569   9.378  11.793   5.810 -0.4380 -0.6714 -0.3900
61752SOL    HW195570   9.403  11.721   5.753  0.4514  0.2061 -1.1496
61752SOL    HW295571   9.424  11.775   5.893 -0.4318 -1.1057 -0.4869
61753SOL     OW95572   5.007  11.273   8.423 -0.1271 -0.1406  0.6031
61753SOL    HW195573   4.952  11.346   8.396 -0.2991 -0.1808  0.8394
61753SOL    HW295574   5.083  11.313   8.466  1.0508  0.0120 -1.4916
61754SOL     OW95575  10.381   4.767   2.014  0.2533  0.3505 -0.2395
61754SOL    HW195576  10.408   4.787   2.104  2.0771 -2.1313 -0.1224
61754SOL    HW295577  10.289   4.794   2.010 -0.4992 -1.1444  3.0121
61755SOL     OW95578   3.306   1.260   1.147 -0.8495  0.2988 -0.1028
61755SOL    HW195579   3.320   1.349   1.178  0.9739  0.8185 -2.1410
61755SOL    HW295580   3.342   1.204   1.215  1.7063  1.3262 -0.5098
61756SOL     OW95581  11.341   2.783   6.224 -0.3843 -0.2722  0.1210
61756SOL    HW195582  11.256   2.821   6.246 -0.3568 -0.1929  0.0951
61756SOL    HW295583  11.372   2.744   6.306  0.0713  0.7027  0.4337
61757SOL     OW95584   0.868   7.093  10.974 -0.0572 -0.0838 -0.1240
61757SOL    HW195585   0.877   7.050  11.059  0.9717 -0.0621 -0.2093
61757SOL    HW295586   0.944   7.063  10.923  1.2548  2.5069  0.1371
61758SOL     OW95587   4.107  11.789   9.560  0.2813  0.4952  0.5684
61758SOL    HW195588   4.031  11.734   9.539  0.0233  0.9143  0.3878
61758SOL    HW295589   4.170  11.728   9.599 -0.1030  0.1205  0.6211
61759SOL     OW95590   4.947   1.136  11.886 -0.3233 -0.2465 -0.1208
61759SOL    HW195591   4.875   1.198  11.887 -0.5250 -0.4774 -0.2928
61759SOL    HW295592   5.011   1.175  11.827 -0.5065 -0.2660 -0.3324
61760SOL     OW95593   5.523   7.008   2.882 -0.2800  0.0256  0.0770
61760SOL    HW195594   5.603   6.991   2.931 -0.4383  0.4600  0.5003
61760SOL    HW295595   5.528   7.101   2.858 -1.2915  0.4431  1.3443
61761SOL     OW95596   1.433   6.003   0.700  0.0913  0.5067  0.0866
61761SOL    HW195597   1.375   6.019   0.625  0.5908 -1.9655 -0.9162
61761SOL    HW295598   1.489   6.081   0.702  0.4859  0.4096 -2.5550
61762SOL     OW95599   0.133  12.651   1.343  0.1857  0.1423  0.3148
61762SOL    HW195600   0.048  12.618   1.372 -0.7161  0.1629 -2.0541
61762SOL    HW295601   0.112  12.718   1.278  2.0272  0.9774  0.5267
61763SOL     OW95602   2.772  12.674   8.243  0.0613 -0.1580 -0.2222
61763SOL    HW195603   2.801  12.679   8.152 -0.5268  0.7273 -0.3838
61763SOL    HW295604   2.678  12.695   8.239  0.1898  0.6774  0.6628
61764SOL     OW95605   1.623   2.973  11.727 -0.3094 -0.5072  0.5261
61764SOL    HW195606   1.702   3.020  11.701  0.0791  0.2590  2.8073
61764SOL    HW295607   1.655   2.892  11.767 -0.7556 -0.7542  0.3984
61765SOL     OW95608   8.865   0.826   0.126  0.3854  1.0409  0.5412
61765SOL    HW195609   8.863   0.822   0.221  0.6617  0.5332  0.5326
61765SOL    HW295610   8.956   0.809   0.103 -0.1466 -1.8770  0.1060
61766SOL     OW95611  10.758   6.202   8.178  0.6023  0.4611  0.2338
61766SOL    HW195612  10.837   6.157   8.207  0.0037 -0.6690  0.1746
61766SOL    HW295613  10.756   6.190   8.083  0.3041  0.3869  0.2469
61767SOL     OW95614  12.767   1.188  10.276 -0.0119  0.0312  0.1381
61767SOL    HW195615  12.786   1.101  10.313  0.4622  0.4234  0.8398
61767SOL    HW295616  12.767   1.246  10.352  0.2789  0.7415 -0.4027
61768SOL     OW95617  10.560   5.452   7.153  0.5070  0.0407  0.1087
61768SOL    HW195618  10.513   5.498   7.083 -1.0929 -0.9247  0.4916
61768SOL    HW295619  10.638   5.416   7.110 -1.1049 -1.6899 -1.5584
61769SOL     OW95620  11.874   5.718  10.397  0.3059 -0.1941  0.3966
61769SOL    HW195621  11.966   5.697  10.411 -0.3567 -3.4720  0.4680
61769SOL    HW295622  11.828   5.674  10.468 -1.5681 -1.6655 -1.5865
61770SOL     OW95623   3.993   5.557   9.606  0.1368 -0.1032 -0.0016
61770SOL    HW195624   3.904   5.552   9.640 -0.4683  1.5878 -1.2055
61770SOL    HW295625   4.001   5.646   9.572  2.4575 -0.0473  0.4935
61771SOL     OW95626   2.556   9.142   3.487 -0.4139  0.2606  0.2268
61771SOL    HW195627   2.481   9.092   3.518 -0.5928 -0.5314 -1.3448
61771SOL    HW295628   2.520   9.202   3.423  0.1483  0.6341  0.2544
61772SOL     OW95629   1.731   5.782   0.684  0.0748 -0.1519 -0.1676
61772SOL    HW195630   1.649   5.768   0.638  0.0688 -1.0255  0.0825
61772SOL    HW295631   1.780   5.843   0.629 -1.5794  2.1234  0.7282
61773SOL     OW95632   9.428   3.126   6.127  0.0849  0.0376 -0.6258
61773SOL    HW195633   9.439   3.040   6.166  2.1991  0.2460 -0.6716
61773SOL    HW295634   9.369   3.172   6.187 -0.4126 -1.1439 -0.1760
61774SOL     OW95635   0.456   9.158   5.601 -0.5883 -0.0531 -0.1077
61774SOL    HW195636   0.501   9.211   5.667  0.0114  1.5853 -1.7171
61774SOL    HW295637   0.526   9.111   5.556 -0.8996 -0.4823 -0.1501
61775SOL     OW95638   6.388  11.959   1.730  0.9368 -0.2917  0.0252
61775SOL    HW195639   6.334  11.889   1.695  0.0615  0.5980 -0.4534
61775SOL    HW295640   6.445  11.985   1.657 -0.4536  1.1368 -0.6162
61776SOL     OW95641   9.023   9.691   2.102  0.1071 -0.3628  0.2476
61776SOL    HW195642   9.078   9.754   2.147  1.0034 -1.5640  0.9048
61776SOL    HW295643   8.958   9.665   2.166 -0.4094  0.0743 -0.0985
61777SOL     OW95644   8.888   3.940   3.100 -0.1712  0.0257 -0.3318
61777SOL    HW195645   8.912   3.931   3.008 -2.3675 -1.4797 -0.8229
61777SOL    HW295646   8.915   4.030   3.122  0.9790  0.2145 -2.2225
61778SOL     OW95647   0.948   5.036   3.724  0.2081 -0.0812 -0.1425
61778SOL    HW195648   0.993   5.112   3.687  0.4847  0.1362  0.6084
61778SOL    HW295649   0.856   5.050   3.703  0.3656 -0.0284 -0.8382
61779SOL     OW95650   8.729   7.039   8.095 -0.5396  0.2419  0.5475
61779SOL    HW195651   8.795   6.969   8.097  0.4325  1.1424  0.9333
61779SOL    HW295652   8.777   7.116   8.064 -1.8812  0.4721 -1.0504
61780SOL     OW95653   0.401   5.832  12.541  0.0231  0.7089  0.3100
61780SOL    HW195654   0.353   5.750  12.537  1.7484 -0.3287 -0.3290
61780SOL    HW295655   0.404   5.862  12.450  0.0312  1.1047  0.4383
61781SOL     OW95656   2.118   0.486   3.833  0.6800 -0.2104 -0.0151
61781SOL    HW195657   2.044   0.496   3.773  0.7725  0.0385 -0.0875
61781SOL    HW295658   2.196   0.502   3.780  1.1647 -4.7574 -1.0902
61782SOL     OW95659  12.886   5.685  11.347  0.3524 -0.2959  0.0249
61782SOL    HW195660  12.900   5.627  11.272  1.2984 -0.0552  0.0045
61782SOL    HW295661  12.791   5.683  11.361  0.2176 -0.7412 -0.8562
61783SOL     OW95662  12.091  10.315   2.319  0.0483  0.5756  0.5604
61783SOL    HW195663  12.095  10.299   2.413 -1.7525 -1.5570  0.3562
61783SOL    HW295664  12.001  10.294   2.295  0.5008  0.9515 -1.6637
61784SOL     OW95665   8.846  12.498   4.966 -0.2701 -0.6611  0.3763
61784SOL    HW195666   8.795  12.429   4.923 -0.3442  0.5915 -1.7034
61784SOL    HW295667   8.927  12.454   4.993  0.8459 -1.1647 -3.2080
61785SOL     OW95668  10.964   9.944   0.446 -0.1859 -0.3755  0.1240
61785SOL    HW195669  10.913   9.919   0.524 -1.5091 -1.0315 -0.9076
61785SOL    HW295670  10.912   9.911   0.373  1.5933 -0.7649 -1.0055
61786SOL     OW95671   8.416   5.379   2.510 -0.0711  0.6060  0.0926
61786SOL    HW195672   8.344   5.396   2.570 -0.7190  0.4868 -0.6382
61786SOL    HW295673   8.380   5.396   2.423  0.8590  0.8057 -0.2690
61787SOL     OW95674   9.592  11.732  10.497 -0.1171 -0.0257 -0.5094
61787SOL    HW195675   9.616  11.817  10.460  0.1986  0.2435  0.3083
61787SOL    HW295676   9.564  11.751  10.586  0.0334 -0.7830 -0.2925
61788SOL     OW95677   6.833   9.845   0.383 -0.0739  0.1132  0.3867
61788SOL    HW195678   6.766   9.891   0.433  0.2601 -0.2250  1.1765
61788SOL    HW295679   6.798   9.839   0.294 -1.7163 -1.2984  1.0832
61789SOL     OW95680   2.833   1.584   5.424  0.0017  0.5713 -0.1547
61789SOL    HW195681   2.905   1.645   5.440 -0.3641  1.1435 -0.6608
61789SOL    HW295682   2.754   1.634   5.441 -0.2979 -0.4852  1.8865
61790SOL     OW95683   9.861  11.356   5.538 -0.0162  0.0755 -0.1880
61790SOL    HW195684   9.781  11.404   5.558 -1.0659 -1.5238 -0.3906
61790SOL    HW295685   9.914  11.363   5.618 -0.6411  0.6007  0.1889
61791SOL     OW95686   5.678  10.052   6.127  0.0090  0.2292  0.2747
61791SOL    HW195687   5.650   9.982   6.067 -3.5395 -0.3758  2.3431
61791SOL    HW295688   5.596  10.090   6.158  1.7830  3.9606  0.9038
61792SOL     OW95689  10.737   9.069  12.027  0.0700 -0.1268  0.1939
61792SOL    HW195690  10.786   8.991  12.052  0.2960 -0.5748 -1.4841
61792SOL    HW295691  10.803   9.134  12.006 -0.0619 -0.1903 -0.4578
61793SOL     OW95692   3.765   9.104   4.738 -0.4662  1.2753 -0.1583
61793SOL    HW195693   3.824   9.075   4.668  1.8445 -0.3783  2.2708
61793SOL    HW295694   3.698   9.036   4.742 -0.1979  0.9975 -0.3087
61794SOL     OW95695   5.362   9.024   9.798  0.1704  0.2483 -0.0504
61794SOL    HW195696   5.298   8.965   9.757 -0.1171 -0.9836  2.0326
61794SOL    HW295697   5.308   9.095   9.835  0.2241  0.2649 -0.0030
61795SOL     OW95698  11.338   9.413   4.943  0.0393  0.1790  0.7239
61795SOL    HW195699  11.334   9.339   5.003  2.0063 -1.4452 -0.9745
61795SOL    HW295700  11.411   9.467   4.976  0.6129 -0.3026  0.2684
61796SOL     OW95701   6.105   0.819   8.060  0.0390  0.1611 -0.4648
61796SOL    HW195702   6.159   0.745   8.087  0.4643  0.8764  0.7200
61796SOL    HW295703   6.134   0.840   7.972  1.5295  0.3674  0.0554
61797SOL     OW95704   0.711   4.141   2.170  0.2900  0.0356 -0.2755
61797SOL    HW195705   0.767   4.169   2.098  0.8856 -1.3454 -0.3932
61797SOL    HW295706   0.758   4.167   2.249  0.8609 -0.6638 -0.3786
61798SOL     OW95707  10.399   0.499  12.555 -0.0975  0.4169 -0.1678
61798SOL    HW195708  10.314   0.455  12.543  0.6452 -0.5788 -2.2562
61798SOL    HW295709  10.461   0.428  12.571  0.8555  0.7773 -1.9664
61799SOL     OW95710   0.142   3.315   7.594 -0.7827  0.8310 -0.2693
61799SOL    HW195711   0.066   3.308   7.652  1.5008 -0.6200  2.8663
61799SOL    HW295712   0.160   3.225   7.567  1.6983  0.5221  1.9469
61800SOL     OW95713   5.841   0.096   0.832 -0.7767 -0.2647 -0.1707
61800SOL    HW195714   5.892   0.101   0.751 -1.6787 -1.7394 -0.8790
61800SOL    HW295715   5.883   0.025   0.882 -1.2616 -0.5179 -0.1178
61801SOL     OW95716   5.439   2.820   8.051 -0.3760 -0.1575  0.3357
61801SOL    HW195717   5.483   2.735   8.059 -2.3274 -1.2766 -0.0375
61801SOL    HW295718   5.445   2.841   7.958 -0.7825 -0.4111  0.2495
61802SOL     OW95719   1.748   9.264   0.236 -0.1244 -0.3431  0.1161
61802SOL    HW195720   1.789   9.191   0.282 -2.6891 -1.9310  0.0655
61802SOL    HW295721   1.819   9.305   0.188  1.3801 -3.0074 -0.1080
61803SOL     OW95722   1.267   0.392   0.820 -0.8091 -0.1205  0.1793
61803SOL    HW195723   1.238   0.345   0.742 -0.0000 -1.9561  0.9153
61803SOL    HW295724   1.342   0.342   0.851  0.6173  2.1675  0.6035
61804SOL     OW95725   1.897   6.708   0.327 -0.0353  0.0206 -0.0824
61804SOL    HW195726   1.854   6.790   0.306 -0.7188 -0.4004 -0.3773
61804SOL    HW295727   1.969   6.701   0.263  0.4461  0.6960  0.3717
61805SOL     OW95728  12.975   0.877  10.220 -0.1013 -0.0450  0.2785
61805SOL    HW195729  12.999   0.785  10.209  0.8022  0.2620 -0.5119
61805SOL    HW295730  12.949   0.905  10.132 -1.1263  0.2637  0.6623
61806SOL     OW95731  12.844   8.413   9.817  0.1724 -0.2137 -0.2429
61806SOL    HW195732  12.786   8.359   9.764  0.3660  0.0105 -0.6949
61806SOL    HW295733  12.928   8.368   9.814 -0.1137 -0.8711  0.9259
61807SOL     OW95734   9.340   9.762   1.579 -0.2553 -0.2238  0.7151
61807SOL    HW195735   9.393   9.757   1.659  2.2856 -0.8424 -0.9231
61807SOL    HW295736   9.343   9.674   1.543 -0.8408  0.2050 -0.4150
61808SOL     OW95737   1.694  11.547   8.710 -0.2490  0.3921  0.4568
61808SOL    HW195738   1.685  11.583   8.622 -0.6062  1.6470  0.9809
61808SOL    HW295739   1.692  11.452   8.698  0.5180  0.5373 -0.9583
61809SOL     OW95740  10.053   3.696  10.512  0.4161 -0.0894  0.2643
61809SOL    HW195741  10.141   3.669  10.535 -0.3722 -1.7198  1.5555
61809SOL    HW295742  10.060   3.726  10.421  2.0757 -1.2706 -0.0473
61810SOL     OW95743  10.724  12.373   4.067 -0.2478  0.3147 -0.5250
61810SOL    HW195744  10.700  12.311   3.998 -2.2099 -0.6836  0.9856
61810SOL    HW295745  10.650  12.434   4.071  0.5100  1.2445 -0.2392
61811SOL     OW95746   0.221  11.713   8.331  0.0319  0.0359 -0.0957
61811SOL    HW195747   0.279  11.748   8.399 -0.5348 -1.3048  1.1338
61811SOL    HW295748   0.208  11.786   8.271 -0.4909  1.7099  1.9087
61812SOL     OW95749   2.415  11.821   4.765  0.0841 -0.6811 -0.1305
61812SOL    HW195750   2.340  11.855   4.715 -0.3105  0.1838  1.0019
61812SOL    HW295751   2.486  11.817   4.701 -0.7843 -1.0066 -1.1064
61813SOL     OW95752  12.168   7.756   9.270  0.2781 -0.5499  0.1689
61813SOL    HW195753  12.233   7.804   9.219  1.5941 -0.9171  1.4330
61813SOL    HW295754  12.128   7.822   9.326 -1.5087 -0.0547 -1.5828
61814SOL     OW95755  10.011  12.559   8.556 -0.0318 -0.3692 -0.2363
61814SOL    HW195756   9.992  12.534   8.647 -0.8965  2.8463  0.6005
61814SOL    HW295757   9.980  12.485   8.504  0.5628 -2.3561  2.0517
61815SOL     OW95758   4.350   8.190   5.402  0.5081 -0.1480  0.3751
61815SOL    HW195759   4.351   8.251   5.476  2.1644  0.6719 -0.2767
61815SOL    HW295760   4.442   8.169   5.387 -0.0010 -2.6406  0.3900
61816SOL     OW95761   3.513   1.171  11.092  0.2767 -0.4685  0.2711
61816SOL    HW195762   3.589   1.229  11.096  0.7502 -1.0517 -0.0587
61816SOL    HW295763   3.522   1.114  11.167  0.9646 -1.4885 -0.5576
61817SOL     OW95764   3.642   1.347   1.702  0.4642  0.0112  0.0550
61817SOL    HW195765   3.617   1.340   1.610 -0.1942  0.6446  0.1787
61817SOL    HW295766   3.587   1.282   1.747  1.0393 -0.5492 -0.0384
61818SOL     OW95767   7.871  10.990   5.116  1.3442  0.1746 -0.0355
61818SOL    HW195768   7.962  11.017   5.100  0.8662  0.6150 -2.3090
61818SOL    HW295769   7.847  10.938   5.040 -0.1859 -0.3599  0.7631
61819SOL     OW95770   2.347   6.614   6.205  0.4484  0.1463  0.5209
61819SOL    HW195771   2.280   6.585   6.142  1.6625 -2.2285  0.2006
61819SOL    HW295772   2.301   6.620   6.288 -0.4286 -0.2542  0.0786
61820SOL     OW95773   1.007   9.562   0.380 -0.4236 -0.2097 -0.3700
61820SOL    HW195774   1.076   9.627   0.387  0.8726 -1.5668 -0.0730
61820SOL    HW295775   1.019   9.523   0.293 -1.6635  0.4331 -0.8554
61821SOL     OW95776   1.137   7.890   1.913  0.1742  0.6680 -0.0115
61821SOL    HW195777   1.139   7.888   1.817 -0.7209  0.3193 -0.0300
61821SOL    HW295778   1.060   7.943   1.934 -1.0582 -1.2592  0.5056
61822SOL     OW95779   7.172  11.170  12.381  0.1755 -0.3890  0.1101
61822SOL    HW195780   7.155  11.258  12.348  0.1877 -0.5038 -0.2160
61822SOL    HW295781   7.086  11.129  12.385  0.2995 -0.8553 -1.2049
61823SOL     OW95782  12.956   2.133   9.380 -0.1490  0.4888  0.0171
61823SOL    HW195783  12.978   2.058   9.324 -1.9308 -0.3248  0.3196
61823SOL    HW295784  12.939   2.204   9.318 -0.4913  0.0455 -0.4136
61824SOL     OW95785   0.250   6.556   1.474  0.2345 -0.0089  0.4375
61824SOL    HW195786   0.212   6.468   1.480  0.9064 -0.4994 -1.7784
61824SOL    HW295787   0.323   6.555   1.535  0.8596 -1.3559 -0.2968
61825SOL     OW95788   4.190   2.608   9.132 -0.2467 -0.8215 -0.0227
61825SOL    HW195789   4.221   2.591   9.043 -0.3720 -0.5092 -0.1267
61825SOL    HW295790   4.117   2.668   9.122  1.4419  1.4801  0.4256
61826SOL     OW95791   6.256   1.406   6.281 -0.4178 -0.4869  0.2511
61826SOL    HW195792   6.278   1.491   6.243  2.2320 -1.4810 -0.7219
61826SOL    HW295793   6.272   1.343   6.210  1.0459 -2.0841  1.8758
61827SOL     OW95794   9.568  11.044   4.698 -0.3440 -0.3487 -0.0416
61827SOL    HW195795   9.660  11.068   4.687 -0.3288 -0.1270  0.5353
61827SOL    HW295796   9.565  10.950   4.679 -0.4082  0.0645 -2.3571
61828SOL     OW95797   4.769   2.271   5.507 -0.3107 -0.4323 -0.1867
61828SOL    HW195798   4.833   2.202   5.526 -0.6594 -0.4858  0.8680
61828SOL    HW295799   4.822   2.351   5.498 -0.1305 -0.3401  1.4098
61829SOL     OW95800   0.604   6.489   9.363  0.3149  0.2201 -0.1652
61829SOL    HW195801   0.638   6.425   9.426  1.9214  0.0234 -1.1868
61829SOL    HW295802   0.586   6.567   9.416  2.3258  0.3059  0.4621
61830SOL     OW95803   6.910  12.780   0.233  0.1240 -0.4852 -0.9444
61830SOL    HW195804   6.945  12.738   0.153  1.8717 -0.3474 -0.3003
61830SOL    HW295805   6.850  12.715   0.269  1.4664 -1.7636 -0.8911
61831SOL     OW95806  11.990   4.173  11.944  0.1953  0.2563  0.0943
61831SOL    HW195807  11.992   4.231  12.020  1.8547 -2.2136  2.1093
61831SOL    HW295808  11.940   4.097  11.974  0.7185 -0.6849 -1.3412
61832SOL     OW95809   5.569   3.840   4.538  0.0376 -0.2274  0.2933
61832SOL    HW195810   5.588   3.905   4.606 -0.1911  0.2896 -0.1288
61832SOL    HW295811   5.541   3.762   4.586  1.1010 -0.2842  0.8360
61833SOL     OW95812  11.181   2.995   4.886  0.1189  0.5288 -0.0023
61833SOL    HW195813  11.154   2.925   4.827 -0.2909  2.0373 -1.6959
61833SOL    HW295814  11.271   2.972   4.911 -0.2162 -0.8867 -0.0164
61834SOL     OW95815   4.710  12.050   7.391 -0.0787  0.1204  0.1927
61834SOL    HW195816   4.701  12.144   7.377 -0.5319 -0.0907 -1.0833
61834SOL    HW295817   4.666  12.034   7.475 -0.4732  0.9660  0.1600
61835SOL     OW95818   7.872   9.983   4.091  0.3558  0.2630  0.4366
61835SOL    HW195819   7.831  10.039   4.157 -2.8215  0.0001 -1.1209
61835SOL    HW295820   7.827   9.900   4.099 -0.2638  0.2716 -2.1134
61836SOL     OW95821   4.266   9.800  10.472 -0.1482 -0.6778 -0.1562
61836SOL    HW195822   4.234   9.869  10.530 -2.0007 -0.2374 -1.6277
61836SOL    HW295823   4.360   9.796  10.490 -0.6553 -0.8328  3.1219
61837SOL     OW95824  12.970   6.614   8.937 -0.0831 -0.4977  0.2793
61837SOL    HW195825  12.999   6.543   8.994  0.8334 -0.4007 -0.0472
61837SOL    HW295826  12.874   6.611   8.942 -0.2155 -3.3070 -1.5650
61838SOL     OW95827   9.820  12.871   7.592  0.0904 -0.0749 -0.5046
61838SOL    HW195828   9.766  12.809   7.640 -0.5810 -0.6001 -1.8851
61838SOL    HW295829   9.869  12.817   7.530  1.0477  0.5705 -0.3357
61839SOL     OW95830   6.755   6.366   6.090 -0.3792 -0.3772  0.0055
61839SOL    HW195831   6.731   6.320   6.171 -2.2726  1.9114  0.8804
61839SOL    HW295832   6.850   6.379   6.097 -0.0772 -2.4849  0.5461
61840SOL     OW95833   7.547  11.079   8.680  0.0277 -0.0891 -0.0815
61840SOL    HW195834   7.459  11.068   8.645  0.0528  0.4290 -0.3155
61840SOL    HW295835   7.595  11.127   8.612  0.1954  0.5400  0.4647
61841SOL     OW95836   8.210   3.701   3.551 -0.2822  0.4451  0.0213
61841SOL    HW195837   8.196   3.647   3.472  3.2772  0.0573 -0.5301
61841SOL    HW295838   8.207   3.638   3.623  1.4544 -0.1614 -0.3845
61842SOL     OW95839  11.443   3.396   4.938  0.1898 -0.4506  0.2227
61842SOL    HW195840  11.492   3.315   4.947 -0.0094 -0.6353 -0.3281
61842SOL    HW295841  11.466   3.429   4.852 -0.6053 -0.5179 -0.0286
61843SOL     OW95842   0.313   6.883   6.024 -0.2147 -0.0483  0.0165
61843SOL    HW195843   0.379   6.815   6.011  0.9193  0.7650  1.2430
61843SOL    HW295844   0.358   6.950   6.075 -1.1191  1.9207 -1.6328
61844SOL     OW95845   8.260   9.280   2.594 -0.6409  0.2292 -0.6673
61844SOL    HW195846   8.253   9.213   2.662 -2.5626  0.5077 -0.5213
61844SOL    HW295847   8.341   9.260   2.547  1.0082  0.2930  1.9536
61845SOL     OW95848   0.978   5.175  10.418  0.2901  0.1720  0.2434
61845SOL    HW195849   0.887   5.167  10.446  0.3587 -0.4794  0.2857
61845SOL    HW295850   0.973   5.220  10.333 -0.1126 -0.3375 -0.0076
61846SOL     OW95851   1.181  11.044   3.089 -0.2796 -0.1868 -0.7693
61846SOL    HW195852   1.133  10.979   3.140 -1.2380 -0.2672 -1.7597
61846SOL    HW295853   1.128  11.059   3.012  0.7970  0.4797 -1.4095
61847SOL     OW95854   1.322   5.953  12.002  0.0822  0.2113 -0.2908
61847SOL    HW195855   1.273   5.989  11.927 -0.1061 -0.7082 -0.6271
61847SOL    HW295856   1.380   6.024  12.029 -0.6523  0.9537 -0.5861
61848SOL     OW95857   7.613   1.339   8.280 -0.4746 -0.3791 -0.4691
61848SOL    HW195858   7.575   1.420   8.246  0.3405  1.4568  2.5963
61848SOL    HW295859   7.573   1.269   8.228 -1.3856  1.9425 -3.0875
61849SOL     OW95860  11.378   0.475  10.095 -0.5707  0.7638 -0.0439
61849SOL    HW195861  11.347   0.558  10.059  0.2833  0.6358 -1.1067
61849SOL    HW295862  11.468   0.493  10.124 -0.0493 -0.0150 -1.1342
61850SOL     OW95863   6.167  12.591   9.502 -0.4900  0.1249 -0.2403
61850SOL    HW195864   6.074  12.578   9.488 -0.8095  1.0787  0.8321
61850SOL    HW295865   6.176  12.684   9.522  0.2700 -0.4148  2.4379
61851SOL     OW95866   0.930   4.694  10.506  0.2105  0.1360 -0.5193
61851SOL    HW195867   0.972   4.758  10.448 -0.2310  1.0478  0.1368
61851SOL    HW295868   0.881   4.747  10.568 -0.3954 -0.8649 -0.1226
61852SOL     OW95869   9.890   3.790   3.254 -0.5406 -0.1167 -0.3764
61852SOL    HW195870   9.955   3.857   3.234 -0.4672  0.0011  0.2335
61852SOL    HW295871   9.868   3.805   3.346  0.5539 -1.8203  0.2222
61853SOL     OW95872  12.035   0.489   3.140 -0.3098 -0.2944 -0.0821
61853SOL    HW195873  12.082   0.548   3.199 -0.4556  0.3821 -0.6452
61853SOL    HW295874  11.975   0.545   3.092 -1.1885 -1.0436  0.1032
61854SOL     OW95875   6.642   5.839   6.143  0.2941  0.2721 -0.4780
61854SOL    HW195876   6.699   5.915   6.154 -0.8930  1.1118 -0.0327
61854SOL    HW295877   6.578   5.846   6.213 -0.1045 -0.9066 -0.6993
61855SOL     OW95878  12.898  10.264   9.756 -0.1808 -0.0554 -1.3027
61855SOL    HW195879  12.960  10.237   9.688  2.0786 -0.2504  0.7166
61855SOL    HW295880  12.909  10.198   9.825 -1.5718  0.7731 -0.2505
61856SOL     OW95881   2.659   5.318   1.944  0.2512 -0.6305  0.4387
61856SOL    HW195882   2.579   5.349   1.988 -0.5004 -1.4756 -0.2968
61856SOL    HW295883   2.642   5.226   1.926  0.6627 -0.4055 -1.2996
61857SOL     OW95884  12.263  12.904   3.807 -0.3139  0.5494 -0.4313
61857SOL    HW195885  12.253  13.000   3.808  1.3479  0.7394  0.3902
61857SOL    HW295886  12.208  12.874   3.879 -2.3415  0.6643 -1.8345
61858SOL     OW95887   3.645   0.170   3.329  0.5266 -0.0281  0.3808
61858SOL    HW195888   3.741   0.172   3.320  0.5008 -1.8138 -0.8172
61858SOL    HW295889   3.629   0.189   3.421  2.0210  0.4425  0.5770
61859SOL     OW95890  12.637   9.579   3.414 -0.6283  0.5721 -0.5816
61859SOL    HW195891  12.586   9.640   3.468  0.2116  1.2218 -0.4773
61859SOL    HW295892  12.579   9.555   3.342 -2.2663 -1.3566  1.2513
61860SOL     OW95893   8.809   9.842  12.817 -0.0059 -0.0925  0.1410
61860SOL    HW195894   8.795   9.829  12.911  0.5905 -1.3735  0.0787
61860SOL    HW295895   8.768   9.766  12.776  1.0832 -0.3652 -0.5058
61861SOL     OW95896   4.547   3.118   7.169 -0.1455  0.0312 -0.1728
61861SOL    HW195897   4.612   3.102   7.101 -0.5597  1.6784 -1.0113
61861SOL    HW295898   4.554   3.212   7.187  2.1170 -0.7181  4.3367
61862SOL     OW95899   7.104   7.305   8.049 -0.3441 -0.4243  0.2609
61862SOL    HW195900   7.111   7.380   7.990 -0.3393 -0.3861  0.3105
61862SOL    HW295901   7.158   7.329   8.124  1.8024 -1.5615 -0.8451
61863SOL     OW95902   1.659   9.454   2.423 -0.2112 -0.7575 -0.0500
61863SOL    HW195903   1.573   9.464   2.380  1.3441  1.9973 -2.9454
61863SOL    HW295904   1.664   9.526   2.485 -0.0593 -1.0369  0.2660
61864SOL     OW95905  11.694   0.171   1.780  0.0994 -0.2671  0.5063
61864SOL    HW195906  11.720   0.096   1.833 -0.7386 -1.6490 -0.9511
61864SOL    HW295907  11.604   0.152   1.753  0.5551  0.2272 -1.5744
61865SOL     OW95908   5.432  12.613   6.570  0.0199  0.1820  0.2900
61865SOL    HW195909   5.498  12.553   6.535 -0.1520  1.2069 -1.9063
61865SOL    HW295910   5.421  12.585   6.661  2.3049 -1.0250  0.2659
61866SOL     OW95911  10.430   6.338  12.666  0.8184  0.0026  0.5031
61866SOL    HW195912  10.480   6.420  12.665 -0.2084  0.6439  0.5032
61866SOL    HW295913  10.347   6.361  12.708  0.1318 -0.8157 -0.3686
61867SOL     OW95914   9.933   5.429  10.959 -0.2318  0.1509  0.2292
61867SOL    HW195915   9.949   5.495  10.891 -1.5094  0.3135  0.0651
61867SOL    HW295916   9.876   5.473  11.022  0.8794 -0.0282  1.3925
61868SOL     OW95917   6.918   8.355  10.232  0.1718 -0.5978  0.2875
61868SOL    HW195918   6.980   8.427  10.219  0.0779 -0.7540 -1.3266
61868SOL    HW295919   6.838   8.385  10.188 -0.7837 -0.5774  1.9800
61869SOL     OW95920   2.282   8.029   8.932  0.6243 -0.3985  0.3117
61869SOL    HW195921   2.320   8.067   8.853 -1.0756  2.3836  0.7178
61869SOL    HW295922   2.304   8.091   9.002 -1.9383 -0.2589  1.0950
61870SOL     OW95923   1.507  12.046   9.536 -0.0095 -0.2907  0.6001
61870SOL    HW195924   1.416  12.024   9.515  0.0358  0.6928 -0.7833
61870SOL    HW295925   1.506  12.073   9.628 -1.3359  0.7948  0.2874
61871SOL     OW95926   9.531  10.775   6.340 -0.1775  0.1313  0.3562
61871SOL    HW195927   9.532  10.844   6.407 -3.0129 -0.4380  1.1347
61871SOL    HW295928   9.580  10.703   6.379  2.2363  1.3842 -0.1877
61872SOL     OW95929   0.343   6.306   3.058 -0.5088 -1.0235  0.1032
61872SOL    HW195930   0.255   6.276   3.081 -1.0236  0.0893 -0.3165
61872SOL    HW295931   0.365   6.370   3.126 -0.7762  0.0109 -0.7557
61873SOL     OW95932   2.747   4.775   7.244  0.1425  0.4526 -0.4873
61873SOL    HW195933   2.715   4.789   7.154 -1.9924  0.3370  0.1811
61873SOL    HW295934   2.718   4.686   7.266 -0.6455  0.9907  0.7765
61874SOL     OW95935   2.149   8.489   2.663  0.2883 -0.0669 -0.1849
61874SOL    HW195936   2.136   8.411   2.610 -1.0176 -0.2227  0.3188
61874SOL    HW295937   2.188   8.553   2.603  0.3221 -0.7379 -0.8942
61875SOL     OW95938   3.729   7.507   5.351  0.2505  0.5055  0.1992
61875SOL    HW195939   3.719   7.525   5.445 -1.8584  0.8173 -0.0478
61875SOL    HW295940   3.753   7.414   5.347 -1.4185 -0.0015  1.0048
61876SOL     OW95941  10.940   9.907   2.803 -0.1754  0.0892  0.6723
61876SOL    HW195942  10.978   9.824   2.774  1.6418  0.6495  1.2758
61876SOL    HW295943  10.858   9.882   2.845 -0.1098 -1.2996  0.0485
61877SOL     OW95944   2.432   7.003   1.592  0.2613 -0.2692  0.6645
61877SOL    HW195945   2.452   7.027   1.683 -0.8694 -1.0913  1.1648
61877SOL    HW295946   2.412   7.086   1.550  2.4073  0.3220  0.6949
61878SOL     OW95947   1.206   2.553   2.441 -0.0921  0.0643  0.7549
61878SOL    HW195948   1.225   2.572   2.349 -0.8549  0.5479  0.6853
61878SOL    HW295949   1.237   2.464   2.454  1.1243  0.4032  0.3606
61879SOL     OW95950   6.431   4.058   8.572  0.0352  0.5690  0.0638
61879SOL    HW195951   6.452   3.964   8.573  1.4604  0.8398 -0.7270
61879SOL    HW295952   6.346   4.063   8.528 -0.2229 -0.3683  0.4296
61880SOL     OW95953   6.233   7.996   7.989  0.3483 -0.3218 -0.2919
61880SOL    HW195954   6.249   7.980   8.082  2.0103 -1.5015 -0.7254
61880SOL    HW295955   6.138   8.000   7.981  0.1870  0.3383  1.5317
61881SOL     OW95956   4.014  12.160   9.989 -0.3724  0.2289 -0.3119
61881SOL    HW195957   4.099  12.203   9.999  0.6676 -1.9587  1.0836
61881SOL    HW295958   4.026  12.098   9.917 -0.1091 -1.4150  1.0739
61882SOL     OW95959   4.861   7.751  12.213 -0.1031 -0.5499 -0.3806
61882SOL    HW195960   4.892   7.719  12.298 -0.2018 -0.3311 -0.2611
61882SOL    HW295961   4.937   7.743  12.156 -0.1991 -1.2371 -0.4216
61883SOL     OW95962   1.513   7.001   1.599  0.1906 -0.7632  1.0090
61883SOL    HW195963   1.487   7.084   1.639  0.8329 -0.2437  0.3712
61883SOL    HW295964   1.606   6.992   1.620  1.0444  0.4247 -1.7962
61884SOL     OW95965   4.459   0.640  12.058 -0.4907  0.0488  0.4686
61884SOL    HW195966   4.509   0.680  12.129 -1.5331  0.5850  0.9297
61884SOL    HW295967   4.483   0.690  11.980  2.5609 -2.0886 -0.1417
61885SOL     OW95968   2.424   6.514   0.969  0.7842 -0.3660 -0.6109
61885SOL    HW195969   2.485   6.470   1.029  1.6647  1.3971 -0.1393
61885SOL    HW295970   2.461   6.601   0.958  0.4133 -0.4961 -3.4336
61886SOL     OW95971   4.726   0.929   6.331 -0.1263 -0.2392 -0.8394
61886SOL    HW195972   4.679   1.002   6.292  0.0896 -0.2933 -1.2072
61886SOL    HW295973   4.741   0.869   6.258  1.6334  0.3627 -1.0278
61887SOL     OW95974   1.297   6.222   7.274  0.4563 -0.2645 -0.3340
61887SOL    HW195975   1.350   6.177   7.207  1.2812  1.1900 -0.7050
61887SOL    HW295976   1.216   6.245   7.228  0.8773  0.4215 -0.7547
61888SOL     OW95977   4.634   2.971   8.111 -0.0838  0.5341  0.1262
61888SOL    HW195978   4.561   3.033   8.117 -1.3335 -0.8635  0.1706
61888SOL    HW295979   4.612   2.903   8.175  0.9634 -0.2331 -0.3009
61889SOL     OW95980   6.800   2.787   5.576  0.6697  0.1807 -0.0580
61889SOL    HW195981   6.828   2.766   5.487  0.9448  0.0828  0.0492
61889SOL    HW295982   6.861   2.738   5.632 -0.4729 -1.0196  0.1718
61890SOL     OW95983   3.306   6.845   6.446  0.0706 -0.0235  0.0187
61890SOL    HW195984   3.273   6.843   6.356 -1.4205 -0.4530  0.5529
61890SOL    HW295985   3.329   6.937   6.461  0.5075  0.0224 -0.8429
61891SOL     OW95986   3.152  11.669   7.295 -0.0155  0.1054 -0.1837
61891SOL    HW195987   3.080  11.663   7.231  0.9183 -0.5327 -1.2242
61891SOL    HW295988   3.231  11.653   7.243  0.7715 -0.5621  1.1656
61892SOL     OW95989   8.196   0.350   0.168 -0.0182  0.0231  0.2291
61892SOL    HW195990   8.155   0.298   0.100 -1.3942 -1.0956  1.8110
61892SOL    HW295991   8.290   0.333   0.160 -0.1686 -0.2127 -1.2217
61893SOL     OW95992  11.839   7.449   6.940  0.4780 -0.0065 -0.7539
61893SOL    HW195993  11.767   7.447   6.877  0.0688 -2.9427 -0.3441
61893SOL    HW295994  11.821   7.524   6.996 -1.5455  0.0820 -1.4699
61894SOL     OW95995   8.940   4.679   4.268 -0.2150  0.5447  0.2613
61894SOL    HW195996   8.899   4.731   4.198  0.5929  0.0669 -0.6053
61894SOL    HW295997   9.031   4.709   4.269  0.2608 -0.7917 -0.2327
61895SOL     OW95998   8.843  11.859  10.456 -0.2548 -0.1976  0.4489
61895SOL    HW195999   8.780  11.788  10.471  0.3653 -0.4998  1.7868
61895SOL    HW296000   8.793  11.938  10.475  0.1169 -0.5080  3.0041
61896SOL     OW96001   3.528   4.274   8.607  0.5733 -0.5971 -0.0227
61896SOL    HW196002   3.476   4.281   8.687 -0.3135  0.6622 -0.6780
61896SOL    HW296003   3.590   4.346   8.612 -0.8103  0.7615 -1.3645
61897SOL     OW96004   5.030   3.958   2.543 -0.1654  0.2860 -0.5543
61897SOL    HW196005   5.090   3.982   2.473  0.6070 -0.3094 -0.1058
61897SOL    HW296006   5.086   3.940   2.618 -0.9959  1.2223  0.3247
61898SOL     OW96007   6.864  10.366   3.375  0.5861  0.3405  0.5623
61898SOL    HW196008   6.780  10.351   3.332  0.1874  0.5263  1.2751
61898SOL    HW296009   6.895  10.278   3.398 -0.0261  0.3417  1.4460
61899SOL     OW96010   2.967   5.796   4.986  0.0391  0.6728 -0.0665
61899SOL    HW196011   2.891   5.761   4.941  0.1129  0.0670  0.2696
61899SOL    HW296012   3.035   5.802   4.919  0.0302  0.1436 -0.1305
61900SOL     OW96013  10.983  10.209   5.733 -0.1864 -0.2518  0.6778
61900SOL    HW196014  10.917  10.276   5.717 -0.0446  0.1780  1.7774
61900SOL    HW296015  11.062  10.242   5.689 -0.3875 -0.1839  0.3699
61901SOL     OW96016   3.047   3.583   8.177 -0.2842  0.0721 -0.0552
61901SOL    HW196017   3.089   3.649   8.232 -0.2970  0.3385 -0.3693
61901SOL    HW296018   3.104   3.506   8.186 -0.4262  0.0273  0.5389
61902SOL     OW96019   0.461   3.287  11.527 -0.2763  0.0725  0.0901
61902SOL    HW196020   0.532   3.269  11.466  1.3152 -1.1952  2.1903
61902SOL    HW296021   0.480   3.374  11.561  0.7881 -0.5959  1.2597
61903SOL     OW96022  11.535   6.542   0.434  0.0484  0.0095  0.2357
61903SOL    HW196023  11.496   6.629   0.420  1.0276  0.8024  2.1490
61903SOL    HW296024  11.462   6.487   0.463 -0.5355  0.2094 -0.7857
61904SOL     OW96025   2.150   3.720   8.425 -0.0271 -0.0504  0.1754
61904SOL    HW196026   2.142   3.790   8.490  0.9348  1.0813 -0.8546
61904SOL    HW296027   2.192   3.648   8.471  0.9847  0.8725  0.7348
61905SOL     OW96028   7.067   2.012   2.035  0.3655  0.6177  0.2240
61905SOL    HW196029   7.017   1.979   1.960  0.2405  0.1566  0.5064
61905SOL    HW296030   7.153   2.033   1.999  0.8715 -1.2190  0.2605
61906SOL     OW96031   9.297   2.742  11.226  0.8999  0.1334  0.1997
61906SOL    HW196032   9.391   2.726  11.216  0.9578  0.1395  0.7164
61906SOL    HW296033   9.257   2.693  11.154  1.4196  1.6338 -1.1698
61907SOL     OW96034   3.870   8.286   7.801 -0.6319  0.8764 -0.0599
61907SOL    HW196035   3.910   8.199   7.795 -0.3756  0.9988 -0.1477
61907SOL    HW296036   3.917   8.329   7.872 -1.1476  0.7430  0.3692
61908SOL     OW96037   4.367   4.468   9.564  0.6161 -0.5945 -0.5982
61908SOL    HW196038   4.321   4.506   9.638  0.4631 -0.9340 -0.5157
61908SOL    HW296039   4.458   4.496   9.574  0.9041 -1.8321  0.5358
61909SOL     OW96040  10.282   9.968   4.147  0.4487 -0.0871 -0.4166
61909SOL    HW196041  10.244   9.902   4.089  0.8221 -2.5998  1.9938
61909SOL    HW296042  10.231  10.047   4.129 -1.6844 -1.6411 -1.7511
61910SOL     OW96043   2.055  11.938   8.360  0.4863  1.0560 -0.3232
61910SOL    HW196044   2.123  11.994   8.323  0.1387  1.4866 -0.3309
61910SOL    HW296045   2.085  11.920   8.449  1.8103 -0.8083 -1.0990
61911SOL     OW96046   6.665  10.191  12.348  0.4435  0.0872 -0.3240
61911SOL    HW196047   6.593  10.145  12.304  1.1865  0.3916 -1.9316
61911SOL    HW296048   6.692  10.131  12.417 -1.1513 -0.1536  0.1341
61912SOL     OW96049   8.239  11.921   2.046  0.6763 -0.3573 -0.3280
61912SOL    HW196050   8.188  11.839   2.050 -1.0892  0.7232  0.9895
61912SOL    HW296051   8.330  11.892   2.040  0.0825 -2.4131 -0.4017
61913SOL     OW96052   5.349  10.738   1.525 -0.4590  0.3094 -0.2263
61913SOL    HW196053   5.356  10.779   1.439 -0.0920 -0.3798 -0.5405
61913SOL    HW296054   5.265  10.692   1.523  0.7408 -2.0566 -1.3267
61914SOL     OW96055  10.374   9.065   4.701 -0.0459 -0.3711 -0.0633
61914SOL    HW196056  10.396   9.158   4.690  0.6744 -0.3053  1.6491
61914SOL    HW296057  10.282   9.059   4.676 -0.4759  1.0908  1.0297
61915SOL     OW96058   7.938  11.610   0.410  0.2683 -0.0670  0.4266
61915SOL    HW196059   8.020  11.575   0.375  0.2277  0.6033 -0.3690
61915SOL    HW296060   7.878  11.608   0.336  0.2479  1.6084  0.3579
61916SOL     OW96061  10.132   6.965   6.963 -0.1056 -0.3032 -0.1314
61916SOL    HW196062  10.186   7.043   6.977  0.1843 -0.3482 -0.9198
61916SOL    HW296063  10.187   6.892   6.993  0.2607 -0.3437 -0.8833
61917SOL     OW96064   4.394  11.457   9.406  0.4014  0.4117  0.3673
61917SOL    HW196065   4.454  11.473   9.333  0.1858 -0.4974 -0.0213
61917SOL    HW296066   4.307  11.462   9.368  0.2052  1.6355  0.9159
61918SOL     OW96067   0.573   1.543   9.752  0.9445  0.1872 -0.0514
61918SOL    HW196068   0.539   1.471   9.698  1.2532  0.2446 -0.3255
61918SOL    HW296069   0.628   1.594   9.692  0.2561  0.9926 -0.0190
61919SOL     OW96070   5.599  11.590   8.650  0.1489 -0.3928  0.4468
61919SOL    HW196071   5.645  11.674   8.658  1.2514 -0.9397 -0.0059
61919SOL    HW296072   5.668  11.525   8.640 -0.7066 -0.9881 -2.7290
61920SOL     OW96073  10.724  12.851  10.942 -0.4843 -0.3325  0.2449
61920SOL    HW196074  10.728  12.864  11.037  1.6050  1.3482  0.0020
61920SOL    HW296075  10.632  12.862  10.920 -0.6669  1.7279  1.8121
61921SOL     OW96076   0.737  11.812   2.863  0.9265  0.5803  0.4009
61921SOL    HW196077   0.807  11.860   2.907  1.6178  0.5217 -0.6005
61921SOL    HW296078   0.699  11.875   2.802 -0.3048  0.7873  1.3516
61922SOL     OW96079   0.867   3.526   4.132 -0.1878  0.0050 -0.0387
61922SOL    HW196080   0.823   3.555   4.052 -2.6849  0.8122  1.5187
61922SOL    HW296081   0.865   3.603   4.190 -1.7506 -1.5190  2.0909
61923SOL     OW96082   1.224  11.305   9.627  0.1894  0.3014  0.8151
61923SOL    HW196083   1.312  11.270   9.624  0.0637  0.0761 -0.8587
61923SOL    HW296084   1.167  11.230   9.613 -0.1353  0.8578 -1.1414
61924SOL     OW96085   8.976   9.421  11.442 -0.3878  0.2830  0.0035
61924SOL    HW196086   8.964   9.412  11.348 -1.1730 -0.7662  0.1904
61924SOL    HW296087   9.054   9.475  11.451  0.2982 -0.4587 -1.2500
61925SOL     OW96088   0.286   7.599   9.990  0.0074 -0.4994 -0.8265
61925SOL    HW196089   0.264   7.648   9.911 -1.8685 -0.3544 -0.2627
61925SOL    HW296090   0.202   7.564  10.021  0.1594  1.5659  2.4549
61926SOL     OW96091  10.433   6.934   8.718 -0.5920 -0.0263 -0.4032
61926SOL    HW196092  10.437   6.854   8.666 -0.1710  1.5707 -2.9816
61926SOL    HW296093  10.501   6.991   8.681 -2.1245  2.2303  0.0471
61927SOL     OW96094   1.641  12.275   4.921  0.4764  0.0611 -0.0405
61927SOL    HW196095   1.668  12.205   4.981 -0.1048 -0.1290  0.0072
61927SOL    HW296096   1.720  12.297   4.872  1.0577  0.4591  1.0367
61928SOL     OW96097   3.280   9.499   7.271 -0.1476  0.0123  0.5881
61928SOL    HW196098   3.326   9.583   7.263  0.4857 -0.3749  0.0094
61928SOL    HW296099   3.202   9.520   7.321 -0.7826  1.2742 -0.8320
61929SOL     OW96100   6.976  10.756   0.683 -0.3151  0.4053  0.0996
61929SOL    HW196101   6.893  10.722   0.716 -0.2337  1.0099  0.9432
61929SOL    HW296102   7.009  10.686   0.626 -1.4564  0.2078 -0.3546
61930SOL     OW96103   7.615   2.941   2.380 -0.0821  0.1193 -0.2081
61930SOL    HW196104   7.665   2.896   2.447 -0.4440 -0.3019 -0.2206
61930SOL    HW296105   7.646   2.904   2.298  0.8278  1.0870 -0.3354
61931SOL     OW96106  12.063   3.047   8.531 -0.5285 -0.3367 -0.0321
61931SOL    HW196107  12.109   2.983   8.477  0.3407  0.9760 -0.9202
61931SOL    HW296108  12.115   3.127   8.522 -2.2425  0.8340  0.0333
61932SOL     OW96109   7.995  10.056   9.505  0.0462  0.0348  0.0339
61932SOL    HW196110   7.984  10.123   9.572  2.2735  0.5672 -0.0323
61932SOL    HW296111   8.039   9.984   9.550 -1.4746 -1.0412 -0.1197
61933SOL     OW96112   5.193   8.588   6.035  0.8488 -0.2953  0.2333
61933SOL    HW196113   5.257   8.520   6.014 -0.4939 -1.1853 -1.2603
61933SOL    HW296114   5.209   8.657   5.971 -0.0047 -0.7699 -0.5172
61934SOL     OW96115   9.456  10.442   7.668 -0.2963 -0.0834  0.6291
61934SOL    HW196116   9.524  10.483   7.722  0.0725 -1.2333  1.0822
61934SOL    HW296117   9.479  10.467   7.578 -0.6694  1.4935  0.9481
61935SOL     OW96118   1.528   6.698   9.976 -0.4523  0.1707  0.4104
61935SOL    HW196119   1.449   6.687   9.924  1.5482 -1.3170 -2.6270
61935SOL    HW296120   1.541   6.612  10.017  1.7897 -1.2372 -2.8016
61936SOL     OW96121   9.048   5.831   2.771 -0.5487 -0.0232  0.1869
61936SOL    HW196122   9.132   5.874   2.788 -0.4247  0.0034 -0.4627
61936SOL    HW296123   9.024   5.791   2.855  0.5303 -0.7583  0.1623
61937SOL     OW96124   2.908   3.206   1.639  0.2202  0.1742 -0.1046
61937SOL    HW196125   2.991   3.217   1.685 -0.2265  2.2270  0.2979
61937SOL    HW296126   2.870   3.127   1.677  0.6680  0.8336  1.8362
61938SOL     OW96127   3.789  10.886   9.377  0.1258 -0.4208  0.2607
61938SOL    HW196128   3.773  10.911   9.287 -0.5636  1.3097  0.8272
61938SOL    HW296129   3.702  10.867   9.413  0.1960  0.6381  1.0316
61939SOL     OW96130   3.185   6.930  12.934 -0.0345  0.6532 -0.0398
61939SOL    HW196131   3.132   6.876  12.993 -0.7860  0.4254 -0.9091
61939SOL    HW296132   3.273   6.927  12.972 -0.3981  0.1019  0.7899
61940SOL     OW96133   5.773  10.685   6.687 -0.0388  0.1680  0.4388
61940SOL    HW196134   5.745  10.776   6.677 -0.9338 -0.0648  0.8253
61940SOL    HW296135   5.799  10.677   6.779  0.9307  0.2693  0.1898
61941SOL     OW96136   6.732   2.039   3.794  0.0059 -0.3317 -0.2875
61941SOL    HW196137   6.811   2.083   3.762  0.0798 -0.5412 -0.3952
61941SOL    HW296138   6.667   2.109   3.803  0.1515 -0.1869 -0.3658
61942SOL     OW96139   7.591  10.869   7.889 -0.8466 -0.3581 -0.1866
61942SOL    HW196140   7.574  10.824   7.806 -0.8887 -0.4868 -0.1080
61942SOL    HW296141   7.604  10.799   7.953  2.1797 -0.3165 -0.6363
61943SOL     OW96142  12.387   0.370   6.608 -0.3174 -0.6748  0.1416
61943SOL    HW196143  12.340   0.420   6.675  0.9062 -0.2703  0.7462
61943SOL    HW296144  12.340   0.288   6.601 -1.2385 -0.1985  0.5495
61944SOL     OW96145   9.116   2.286  10.848 -0.0704 -0.1092  0.7700
61944SOL    HW196146   9.206   2.292  10.880  0.5531 -1.7262 -0.5782
61944SOL    HW296147   9.065   2.263  10.926  0.7838  0.0911  1.4074
61945SOL     OW96148  10.366   1.821   1.643  1.1069  0.4029  0.3564
61945SOL    HW196149  10.282   1.825   1.689  1.4006 -0.9831  1.0779
61945SOL    HW296150  10.343   1.797   1.553  0.5315  3.0900 -0.2982
61946SOL     OW96151   8.438   5.027   3.161 -0.1178 -0.4137 -0.6852
61946SOL    HW196152   8.382   5.023   3.083  0.6043  1.7162 -1.3913
61946SOL    HW296153   8.524   5.051   3.127  0.4163 -0.3148  0.7018
61947SOL     OW96154   1.359   9.722   3.589 -0.1099  0.3451 -0.4507
61947SOL    HW196155   1.412   9.769   3.525  0.9806  0.7926  0.7275
61947SOL    HW296156   1.285   9.780   3.607 -0.3179  0.3013 -1.1338
61948SOL     OW96157   3.647   5.977   8.050  0.2602 -0.8301 -0.8319
61948SOL    HW196158   3.602   5.970   8.135  1.1625 -0.9831 -0.3538
61948SOL    HW296159   3.731   5.933   8.064  1.1422  0.6558 -1.2875
61949SOL     OW96160   5.128   8.256   3.776  0.5692  0.5851  0.4340
61949SOL    HW196161   5.060   8.190   3.773  0.3278  0.8675 -0.4833
61949SOL    HW296162   5.094   8.324   3.834  1.6093 -0.9231  2.9715
61950SOL     OW96163   3.108  11.093   7.057  0.2432 -0.2338 -0.4546
61950SOL    HW196164   3.080  11.179   7.027  0.2203  0.0888  0.4840
61950SOL    HW296165   3.034  11.036   7.036 -0.1000  0.1437 -0.2859
61951SOL     OW96166   8.924   6.344   3.027 -0.1107  0.5544 -0.0569
61951SOL    HW196167   8.907   6.403   3.101  0.2615 -0.8303  1.1686
61951SOL    HW296168   9.018   6.348   3.014 -0.0994  0.2949 -0.0472
61952SOL     OW96169   1.855   2.453  10.716  0.2249  0.1158  0.6073
61952SOL    HW196170   1.769   2.430  10.679  0.7019  1.5408 -1.6057
61952SOL    HW296171   1.841   2.538  10.758  0.7845  1.0538 -1.0060
61953SOL     OW96172   4.263  11.267   2.805  0.3503  0.0187 -0.4399
61953SOL    HW196173   4.330  11.318   2.851 -0.9932  1.9293 -0.4797
61953SOL    HW296174   4.306  11.185   2.783  2.0631  0.4001  1.2551
61954SOL     OW96175   0.063   0.694   1.949  0.4464  0.3473  0.2232
61954SOL    HW196176   0.097   0.620   1.899  1.4096  0.4748  0.6698
61954SOL    HW296177   0.009   0.653   2.017 -0.4913  0.1547 -0.6047
61955SOL     OW96178   1.623   9.822   4.435 -0.1937  0.0780 -0.5501
61955SOL    HW196179   1.534   9.832   4.402 -0.5045  1.5303  0.6242
61955SOL    HW296180   1.621   9.859   4.523  1.5564  0.0605 -0.4528
61956SOL     OW96181   5.969   4.997   5.930 -0.1821 -0.0115  0.3270
61956SOL    HW196182   5.946   5.023   5.840  1.5018  0.6866  0.0540
61956SOL    HW296183   5.924   5.062   5.985 -2.2636 -1.1818  0.1255
61957SOL     OW96184  10.464   5.024   5.720  0.3240  0.5043 -0.1482
61957SOL    HW196185  10.410   5.041   5.642 -0.7297  0.2782  0.5023
61957SOL    HW296186  10.403   4.982   5.781  1.4099 -0.3053  0.3987
61958SOL     OW96187   1.219  12.032   5.516  0.6256 -0.0269 -0.1663
61958SOL    HW196188   1.313  12.040   5.500  0.9807 -1.6690  0.8463
61958SOL    HW296189   1.201  12.094   5.586  1.3279 -0.9412  0.8499
61959SOL     OW96190   4.653   3.785   4.774 -0.0376  0.0551  0.1400
61959SOL    HW196191   4.735   3.736   4.770  0.4003  0.8073 -0.5602
61959SOL    HW296192   4.592   3.728   4.819  0.8810 -0.5194  0.6722
61960SOL     OW96193   4.535   8.069   8.884  0.2206 -0.1104  0.4480
61960SOL    HW196194   4.600   8.027   8.940  3.2037  1.5369 -1.5422
61960SOL    HW296195   4.574   8.070   8.797 -3.3480 -0.7282 -1.3790
61961SOL     OW96196   7.004   6.417   7.794 -0.1997  0.4123  0.0968
61961SOL    HW196197   6.977   6.378   7.877 -1.1252  0.5909 -0.1074
61961SOL    HW296198   6.941   6.488   7.780  0.3965  0.8499 -0.3962
61962SOL     OW96199   2.511  11.282   5.629 -0.7323  0.0900 -0.1275
61962SOL    HW196200   2.574  11.282   5.557  0.0821  3.7446  0.4080
61962SOL    HW296201   2.562  11.253   5.705 -0.6854 -0.4843 -0.3752
61963SOL     OW96202   5.332   7.042   8.080 -0.1629 -0.0668  0.4043
61963SOL    HW196203   5.332   7.049   8.175 -2.0033 -0.1009  0.4510
61963SOL    HW296204   5.253   7.088   8.053  1.3760  1.7627 -1.2949
61964SOL     OW96205  11.416   0.484   5.933 -0.0661 -0.0617  0.0897
61964SOL    HW196206  11.339   0.496   5.988 -0.1897 -1.0884  0.1605
61964SOL    HW296207  11.401   0.543   5.858 -1.6825 -1.3406 -0.6647
61965SOL     OW96208   5.598   3.164   1.367  1.0376 -0.0338 -0.1335
61965SOL    HW196209   5.658   3.107   1.414 -0.8837 -2.3886 -0.3104
61965SOL    HW296210   5.530   3.185   1.431  0.3526 -0.1714 -0.7988
61966SOL     OW96211   6.130   4.116   3.620  0.2981  0.0148  0.8190
61966SOL    HW196212   6.096   4.036   3.659  1.5747 -1.1194 -0.2699
61966SOL    HW296213   6.054   4.156   3.576 -0.0627 -1.4221  0.0787
61967SOL     OW96214   4.699  11.275   2.121  0.2702  0.2145  0.0554
61967SOL    HW196215   4.625  11.327   2.089  0.9224  1.5427  0.6271
61967SOL    HW296216   4.658  11.203   2.170 -0.6542  0.7238  0.0522
61968SOL     OW96217   4.862   6.065   1.072 -0.3473  0.1533 -0.2741
61968SOL    HW196218   4.952   6.078   1.042  0.0512 -0.1306  0.7669
61968SOL    HW296219   4.862   5.979   1.114 -0.9875  0.3463  0.1389
61969SOL     OW96220   0.757   2.063   3.959  0.0187  0.0307  0.0841
61969SOL    HW196221   0.747   2.119   4.036  1.2915  1.3317 -0.6577
61969SOL    HW296222   0.836   2.012   3.977 -0.8333 -1.1889  0.5165
61970SOL     OW96223  10.297   4.951  10.714  0.1029  0.1948 -0.2647
61970SOL    HW196224  10.269   4.860  10.724  0.4321 -0.0983 -1.8526
61970SOL    HW296225  10.281   4.990  10.800  2.8472 -2.1432  1.5224
61971SOL     OW96226   6.611  10.592  12.177  0.5413 -0.1037 -0.0771
61971SOL    HW196227   6.676  10.571  12.244 -0.8711 -0.5125  1.2426
61971SOL    HW296228   6.611  10.688  12.172  0.2620 -0.0298  0.9779
61972SOL     OW96229   7.129   7.071   9.743  0.8005  0.7296 -0.0649
61972SOL    HW196230   7.082   7.154   9.750 -1.9028 -0.7972  1.2721
61972SOL    HW296231   7.122   7.047   9.650 -0.4522  0.8889 -0.0203
61973SOL     OW96232   4.922   8.498   3.744  0.0463  0.0551  0.4027
61973SOL    HW196233   4.897   8.479   3.834  0.0515  2.1480  0.9104
61973SOL    HW296234   4.986   8.569   3.752  1.7625 -1.2331 -1.1612
61974SOL     OW96235  10.053  11.321   3.691 -0.4074  0.6986 -0.1703
61974SOL    HW196236  10.110  11.250   3.720  1.0109  0.4887 -3.1623
61974SOL    HW296237   9.969  11.279   3.673 -0.4228  0.3313  0.7060
61975SOL     OW96238   4.779   8.586   7.616  1.1091 -0.2802  0.0947
61975SOL    HW196239   4.709   8.652   7.617  1.4597  0.1464 -1.0543
61975SOL    HW296240   4.741   8.512   7.569  0.4165 -1.2928  2.1466
61976SOL     OW96241  10.469   7.675  11.385  0.0479  0.1954 -0.0240
61976SOL    HW196242  10.477   7.595  11.436 -0.7766  0.9070  1.2906
61976SOL    HW296243  10.559   7.698  11.362  0.5618  0.3325  1.9344
61977SOL     OW96244   4.309   7.754   8.233 -0.0173 -0.1946  0.3579
61977SOL    HW196245   4.233   7.756   8.175 -0.1477 -0.9515  0.4830
61977SOL    HW296246   4.276   7.783   8.317  0.2396  1.2040 -0.0023
61978SOL     OW96247   3.682   5.831   9.394 -0.4293 -0.1288 -0.4077
61978SOL    HW196248   3.752   5.837   9.459  0.7822  0.5117 -1.6999
61978SOL    HW296249   3.629   5.757   9.422 -0.4321  0.6313  1.7443
61979SOL     OW96250   3.330   7.301   8.412 -0.0531  0.4488  0.1331
61979SOL    HW196251   3.303   7.383   8.452 -0.2050 -0.4042  1.8724
61979SOL    HW296252   3.394   7.264   8.473  2.4027  0.6883 -2.0846
61980SOL     OW96253  10.438   1.221   7.045 -0.1590  0.0723  0.4667
61980SOL    HW196254  10.381   1.290   7.012  0.2257  0.3777  0.4371
61980SOL    HW296255  10.419   1.216   7.139 -2.0679 -1.5598  0.0491
61981SOL     OW96256   8.470  11.076   0.063  0.6948  0.2679  0.1369
61981SOL    HW196257   8.389  11.057   0.014  1.1674 -0.4604 -0.3782
61981SOL    HW296258   8.489  11.167   0.041  0.2078  0.3365 -0.0284
61982SOL     OW96259  10.745  10.085   1.481  0.6999 -0.3904  0.2698
61982SOL    HW196260  10.672  10.048   1.530  0.0779  1.1197  0.5236
61982SOL    HW296261  10.821  10.032   1.508 -0.2059 -1.7333  0.2820
61983SOL     OW96262   2.281   8.197   9.490  0.4629  0.3787  0.0220
61983SOL    HW196263   2.204   8.141   9.490  0.2929  0.5911  1.1739
61983SOL    HW296264   2.345   8.150   9.437  1.0725 -2.0011  2.6297
61984SOL     OW96265  12.539   0.884   8.540  0.3753 -0.2402  0.6561
61984SOL    HW196266  12.471   0.863   8.604  0.6485 -0.9631  0.7241
61984SOL    HW296267  12.610   0.922   8.592  0.3112 -0.1574  0.6830
61985SOL     OW96268   6.703  11.194  12.254 -0.2763 -0.0440 -0.2667
61985SOL    HW196269   6.659  11.275  12.280 -1.2051 -0.1746 -1.3640
61985SOL    HW296270   6.641  11.125  12.276  0.3009 -0.4238  0.1921
61986SOL     OW96271  10.219   0.846   7.698  0.0101  0.1477  0.3561
61986SOL    HW196272  10.282   0.830   7.768  0.9844  1.3351 -0.2251
61986SOL    HW296273  10.135   0.854   7.743  0.7169  1.5861  1.4777
61987SOL     OW96274   1.863  11.874  10.365  0.0464 -0.2976 -0.0710
61987SOL    HW196275   1.846  11.797  10.311  0.6709 -0.6211  0.1833
61987SOL    HW296276   1.920  11.929  10.312  0.3275 -0.4279  0.0905
61988SOL     OW96277  11.929   1.569   3.375 -0.0501 -0.4677 -0.9391
61988SOL    HW196278  11.949   1.661   3.357  1.1434 -0.3500  0.7590
61988SOL    HW296279  11.992   1.543   3.442 -0.2610 -2.5878 -1.4850
61989SOL     OW96280   2.431   5.805   4.353 -0.3273  0.0279  0.1530
61989SOL    HW196281   2.505   5.763   4.308  0.7882  2.8993 -0.9378
61989SOL    HW296282   2.360   5.742   4.346  1.3741 -1.9033 -0.8132
61990SOL     OW96283  11.097   6.352   7.975 -0.4949  0.2091  0.3731
61990SOL    HW196284  11.112   6.358   7.881 -0.8233 -0.4220  0.2717
61990SOL    HW296285  11.105   6.258   7.995  1.0044  0.4857  1.2321
61991SOL     OW96286   0.346  10.670   3.780 -0.2003  0.1300 -0.0569
61991SOL    HW196287   0.289  10.604   3.819 -0.4208  0.9654  1.0811
61991SOL    HW296288   0.286  10.741   3.756  0.1469  0.2776 -0.4954
61992SOL     OW96289   8.014   6.811   5.008 -0.3417  0.1090  0.5361
61992SOL    HW196290   8.060   6.750   5.066 -1.9185  1.0896  2.9621
61992SOL    HW296291   7.968   6.754   4.945  1.1763 -0.9995  0.3887
61993SOL     OW96292  10.417   9.863   4.370  0.8936 -0.1607  0.0447
61993SOL    HW196293  10.368   9.943   4.388 -0.1653 -0.7707 -0.0990
61993SOL    HW296294  10.460   9.879   4.286  0.3685  0.0981 -0.1738
61994SOL     OW96295   9.560   9.182  10.362 -0.0279  0.1947 -0.1142
61994SOL    HW196296   9.538   9.267  10.324 -0.0767  0.3055  0.1608
61994SOL    HW296297   9.488   9.164  10.424  0.8267  0.7256  1.0663
61995SOL     OW96298  12.484   1.447   3.435 -0.5452 -0.1391  0.3073
61995SOL    HW196299  12.568   1.460   3.391 -0.5932  0.1877  0.3101
61995SOL    HW296300  12.508   1.420   3.524 -0.4133 -3.7705 -0.6751
61996SOL     OW96301   4.480  12.635   9.349 -0.9325  0.1357  0.3998
61996SOL    HW196302   4.471  12.567   9.416 -0.7374  0.8084  1.1324
61996SOL    HW296303   4.424  12.706   9.380 -1.6718  0.0654 -0.7010
61997SOL     OW96304   1.625  12.821   3.385  0.3873  0.2036 -0.0275
61997SOL    HW196305   1.655  12.783   3.302  0.9110 -0.0967  0.2982
61997SOL    HW296306   1.643  12.754   3.450  0.1841  0.5288  0.3664
61998SOL     OW96307   0.536   1.192   4.006  0.4442  0.3206  0.1684
61998SOL    HW196308   0.485   1.271   4.024 -1.5763 -0.8965  0.0692
61998SOL    HW296309   0.572   1.167   4.091 -1.8125 -0.5269  0.9557
61999SOL     OW96310   7.546   3.469   2.552  0.0175 -0.0085 -0.1899
61999SOL    HW196311   7.568   3.445   2.642  0.3265 -1.4854 -0.6325
61999SOL    HW296312   7.519   3.387   2.511 -0.5766  0.7222 -1.3291
62000SOL     OW96313  11.183   8.185   2.263  0.1523  0.0979 -0.2947
62000SOL    HW196314  11.092   8.185   2.234  0.4050  0.1320 -1.0933
62000SOL    HW296315  11.211   8.094   2.256  0.0512  0.0101  0.3751
62001SOL     OW96316  11.478  11.266   6.585  0.1542  0.2544  0.2280
62001SOL    HW196317  11.384  11.283   6.578  0.3631  1.5798  0.5185
62001SOL    HW296318  11.484  11.181   6.630 -0.9005 -0.2512 -0.5340
62002SOL     OW96319  12.857   0.993   6.347  0.1037  0.0636  0.1626
62002SOL    HW196320  12.896   0.976   6.261  0.0281 -0.2399  0.1870
62002SOL    HW296321  12.870   0.912   6.396 -0.2291  0.0862  0.2934
62003SOL     OW96322  11.450   6.886   7.428  0.4153 -0.1080  0.1826
62003SOL    HW196323  11.486   6.854   7.345 -1.2274 -0.5164 -0.4134
62003SOL    HW296324  11.360   6.855   7.428  0.3496 -0.0246  2.1006
62004SOL     OW96325   6.955  12.308   4.706  0.2625  0.5562 -0.6354
62004SOL    HW196326   6.867  12.334   4.679  0.2925  0.3510 -0.9357
62004SOL    HW296327   6.952  12.309   4.802 -0.4543 -0.7362 -0.6239
62005SOL     OW96328  12.917   4.570   5.210  0.2388  0.1574  0.1032
62005SOL    HW196329  12.973   4.502   5.247  0.9868  0.7907  0.1513
62005SOL    HW296330  12.938   4.570   5.117 -2.1896 -1.9656 -0.5677
62006SOL     OW96331  12.173  11.476   8.903  0.3444  0.3293  0.3427
62006SOL    HW196332  12.162  11.568   8.878  0.3582  0.2137 -0.0957
62006SOL    HW296333  12.107  11.461   8.970 -0.0361  0.5102  0.0154
62007SOL     OW96334   9.625   3.417  10.273  0.1482  0.1424 -0.1306
62007SOL    HW196335   9.713   3.406  10.308  0.8774 -0.2345 -1.9965
62007SOL    HW296336   9.609   3.336  10.224 -0.0984  1.3692 -2.1643
62008SOL     OW96337   3.180   3.708  12.366  0.1176 -0.0968  0.0334
62008SOL    HW196338   3.088   3.681  12.357  0.8348 -2.6075 -0.7758
62008SOL    HW296339   3.181   3.800  12.341 -2.1447 -0.0442 -0.0905
62009SOL     OW96340   0.549   7.327   7.582 -0.4703  0.1347  0.6672
62009SOL    HW196341   0.501   7.365   7.655  0.6445  0.3813  1.3044
62009SOL    HW296342   0.608   7.397   7.553 -1.1970  0.1893 -0.7700
62010SOL     OW96343   7.541   9.797   1.771 -0.0361  0.0606 -0.3828
62010SOL    HW196344   7.595   9.718   1.765 -0.0567  0.1205 -1.7144
62010SOL    HW296345   7.601   9.866   1.801  0.7214  0.1856 -2.0834
62011SOL     OW96346  12.511   8.656  10.366  0.4788 -0.4597 -0.3976
62011SOL    HW196347  12.579   8.708  10.323  1.0907 -1.6588 -0.9340
62011SOL    HW296348  12.523   8.567  10.332 -2.0816 -0.5171 -1.3897
62012SOL     OW96349   1.589   2.412   4.876  0.2007  0.0713  0.6294
62012SOL    HW196350   1.660   2.420   4.813  0.5609 -0.3762  0.9720
62012SOL    HW296351   1.510   2.408   4.822  0.5762 -1.4782  0.1125
62013SOL     OW96352   0.227   1.644  12.001 -0.6290  0.1873 -0.5521
62013SOL    HW196353   0.214   1.589  11.924  0.0349 -0.4871 -0.1982
62013SOL    HW296354   0.182   1.726  11.980 -1.7612 -0.5386 -1.0308
62014SOL     OW96355   3.649   3.075   8.199 -0.0483  0.4953 -0.6715
62014SOL    HW196356   3.615   2.991   8.168 -4.2658  1.2146  1.2034
62014SOL    HW296357   3.677   3.121   8.120  2.1375 -2.4570 -1.7766
62015SOL     OW96358   0.734   0.062   4.365 -0.2107  0.0540  0.0419
62015SOL    HW196359   0.698   0.023   4.445 -1.4094  0.4407 -0.2842
62015SOL    HW296360   0.798   0.125   4.396 -0.2484 -0.2080  0.6778
62016SOL     OW96361  10.026   8.531   0.410 -0.3172  0.0220 -0.3714
62016SOL    HW196362   9.965   8.573   0.349 -2.2206 -0.4450  1.1253
62016SOL    HW296363  10.090   8.487   0.354 -0.4172  1.8376 -1.9865
62017SOL     OW96364   0.163   3.861   8.751  0.2039  0.0941  0.0481
62017SOL    HW196365   0.235   3.822   8.800 -0.2485  0.0632  0.7074
62017SOL    HW296366   0.184   3.845   8.659  1.3865  0.6926  0.1871
62018SOL     OW96367   8.541  10.447  11.880 -0.0369  0.1838  0.2314
62018SOL    HW196368   8.586  10.487  11.953 -1.8081  1.5533  0.6442
62018SOL    HW296369   8.567  10.355  11.883  1.4944  0.6193  1.3259
62019SOL     OW96370  11.842   5.237   2.448  0.3272 -0.1910 -0.1742
62019SOL    HW196371  11.843   5.170   2.516 -0.9875 -0.7589 -0.6784
62019SOL    HW296372  11.842   5.187   2.366 -2.0965  0.3102 -0.5669
62020SOL     OW96373   0.593   4.189   2.835  0.3645 -0.2097 -0.0340
62020SOL    HW196374   0.657   4.162   2.901 -0.4282  1.7933  1.6580
62020SOL    HW296375   0.628   4.157   2.752  3.3072  0.4079  0.8796
62021SOL     OW96376   1.328   2.041   4.755  0.1435  0.2685 -0.1706
62021SOL    HW196377   1.330   1.946   4.764  1.3603  0.1661 -1.2375
62021SOL    HW296378   1.240   2.065   4.783  0.3503 -0.9730  1.7055
62022SOL     OW96379   2.874   8.467   5.676 -0.0062 -0.0204 -0.0743
62022SOL    HW196380   2.948   8.423   5.719  1.8033  1.1218 -1.8563
62022SOL    HW296381   2.824   8.396   5.637  1.7308 -0.7131 -1.1778
62023SOL     OW96382   1.872   0.353   4.598 -0.4807 -0.1370  0.0487
62023SOL    HW196383   1.860   0.259   4.609 -0.3502 -0.1996 -0.3092
62023SOL    HW296384   1.813   0.393   4.661 -0.6605 -0.4596  0.0845
62024SOL     OW96385   2.186   0.664   7.709  0.5169 -0.0271  0.1126
62024SOL    HW196386   2.182   0.576   7.746 -1.0562  0.0571  0.2022
62024SOL    HW296387   2.095   0.694   7.706  1.0186  1.6649  0.2387
62025SOL     OW96388  11.598   4.800  11.010  0.2840 -0.6179  0.3169
62025SOL    HW196389  11.623   4.837  10.925 -0.5505  1.1612  0.7943
62025SOL    HW296390  11.666   4.830  11.070 -1.1344  1.5390  0.9927
62026SOL     OW96391   1.871   9.472  10.035  0.4893  0.7301 -0.5136
62026SOL    HW196392   1.928   9.549  10.035  1.4998  0.0333  0.6085
62026SOL    HW296393   1.932   9.398  10.027 -0.3639  0.0073 -0.4300
62027SOL     OW96394  10.976   6.293   9.621 -0.3896 -0.7953  0.2176
62027SOL    HW196395  10.940   6.246   9.696 -1.3828  0.1911  0.3831
62027SOL    HW296396  10.945   6.383   9.632 -0.0165 -0.4956 -1.0297
62028SOL     OW96397   1.784   0.096   3.128  0.9176  0.2723 -1.2959
62028SOL    HW196398   1.857   0.092   3.066  2.2158 -1.1027  0.2585
62028SOL    HW296399   1.749   0.007   3.129  1.0445  0.2255  0.0778
62029SOL     OW96400  12.666   7.437   0.576  0.0859  0.2686 -0.8859
62029SOL    HW196401  12.688   7.467   0.488  0.2562 -0.0846 -0.9619
62029SOL    HW296402  12.621   7.512   0.615 -0.4447  0.2522 -1.4463
62030SOL     OW96403   3.832  11.180   4.583 -0.5266  0.2454  0.9156
62030SOL    HW196404   3.844  11.087   4.605  1.4249  0.0864 -0.5524
62030SOL    HW296405   3.788  11.178   4.498  0.6466  0.6093  0.2832
62031SOL     OW96406   7.630   1.186   6.046 -0.1375 -0.0884 -0.2373
62031SOL    HW196407   7.715   1.227   6.066 -0.3308 -0.5455  1.7174
62031SOL    HW296408   7.585   1.182   6.130 -2.8359  1.6832 -1.4623
62032SOL     OW96409   2.294  11.709   9.490  0.5839 -0.7302 -0.2849
62032SOL    HW196410   2.304  11.717   9.395  1.9904  0.3828 -0.0633
62032SOL    HW296411   2.361  11.646   9.516  0.6865 -0.4794  0.0617
62033SOL     OW96412   3.809  10.187  11.826 -0.3173  0.1253  0.3468
62033SOL    HW196413   3.732  10.169  11.881 -1.7316  0.8104 -1.3054
62033SOL    HW296414   3.854  10.102  11.819 -2.3070 -0.9260 -0.6230
62034SOL     OW96415   4.727  11.525   7.706 -0.2058 -0.5410 -0.0969
62034SOL    HW196416   4.682  11.607   7.688 -1.1104 -0.7416  1.0848
62034SOL    HW296417   4.811  11.552   7.745  0.4726 -0.1785 -1.7164
62035SOL     OW96418   1.194   4.333   1.224 -0.0815 -0.0061  0.2827
62035SOL    HW196419   1.226   4.330   1.134  0.1693  0.1083  0.3667
62035SOL    HW296420   1.103   4.360   1.216 -0.3903 -1.0942 -0.0158
62036SOL     OW96421   5.573  12.209   1.718  0.1364  0.4167 -0.1116
62036SOL    HW196422   5.491  12.214   1.670  0.1133 -1.1809 -0.2902
62036SOL    HW296423   5.559  12.139   1.782  1.8057 -0.8392 -1.0611
62037SOL     OW96424   4.510   7.418   5.427 -0.2822 -0.4230  0.0026
62037SOL    HW196425   4.547   7.386   5.509  0.8745 -0.4119 -0.4959
62037SOL    HW296426   4.564   7.494   5.404  1.1547 -1.9805 -2.1096
62038SOL     OW96427  11.103   4.055  11.867 -0.4913  0.3340 -0.1464
62038SOL    HW196428  11.129   3.986  11.928 -0.2302  0.3208 -0.2702
62038SOL    HW296429  11.155   4.131  11.894 -0.7132  0.4577 -0.0657
62039SOL     OW96430   4.308  12.044  12.882 -0.3574 -0.1617  0.4236
62039SOL    HW196431   4.274  12.015  12.966  1.5004 -2.2610  0.5214
62039SOL    HW296432   4.266  11.986  12.818  1.6789 -1.7116  0.4029
62040SOL     OW96433  11.270   5.664   6.127 -0.3228  0.0055 -0.0287
62040SOL    HW196434  11.206   5.630   6.189 -1.0111 -1.9918 -1.7226
62040SOL    HW296435  11.323   5.588   6.102  0.2558  0.8387 -1.4931
62041SOL     OW96436   1.950   9.841   6.223 -0.1634  0.0844 -0.0302
62041SOL    HW196437   2.004   9.841   6.145  1.3413 -1.6154  0.9200
62041SOL    HW296438   1.866   9.805   6.195  1.0934 -2.7421 -0.5087
62042SOL     OW96439   9.391  11.047   0.608 -0.1690 -0.1254 -0.4719
62042SOL    HW196440   9.427  10.959   0.612 -1.1848 -0.5111  2.0133
62042SOL    HW296441   9.300  11.035   0.582 -0.1204  0.2751 -0.8453
62043SOL     OW96442   3.012  11.203  10.233  0.0058 -0.0087  0.7340
62043SOL    HW196443   2.934  11.255  10.217  0.1578  0.1657  0.5448
62043SOL    HW296444   3.026  11.154  10.151  0.7247  0.8048  0.3507
62044SOL     OW96445   1.286   7.661   4.040 -0.0715 -0.4955 -0.3882
62044SOL    HW196446   1.277   7.687   4.132 -0.7886  0.0495 -0.5977
62044SOL    HW296447   1.374   7.625   4.034  0.6728  1.1356  0.1285
62045SOL     OW96448  11.744  11.374   3.557  0.2732 -0.2331 -0.0383
62045SOL    HW196449  11.733  11.418   3.641 -1.8589  0.3255 -0.5332
62045SOL    HW296450  11.680  11.302   3.559 -0.2339  0.1376 -1.3620
62046SOL     OW96451   0.062   9.103  11.560  0.0823 -0.4873 -0.1268
62046SOL    HW196452   0.030   9.044  11.628 -1.5414 -0.7539 -1.0777
62046SOL    HW296453   0.156   9.088  11.558 -0.2730 -3.1996 -0.4397
62047SOL     OW96454   6.441   3.153   0.817  0.2649  0.2476  0.3421
62047SOL    HW196455   6.450   3.126   0.726 -1.5567  0.1098  0.1665
62047SOL    HW296456   6.449   3.248   0.815  2.9508  0.0908  0.4534
62048SOL     OW96457   7.086   8.127   2.931 -0.4105 -0.4706  0.0014
62048SOL    HW196458   7.176   8.109   2.901  0.1968  0.3412  1.2404
62048SOL    HW296459   7.097   8.188   3.003 -1.9119 -1.1355  0.8427
62049SOL     OW96460   5.265   4.022   4.712 -0.4339  0.4718 -0.6549
62049SOL    HW196461   5.326   4.037   4.784 -1.2935 -0.8137  0.3729
62049SOL    HW296462   5.305   4.067   4.637  0.9272  1.0603  0.3927
62050SOL     OW96463  11.095   5.311   8.564  0.7013 -0.2566 -0.4266
62050SOL    HW196464  11.139   5.343   8.642 -0.6324  0.2896  0.1279
62050SOL    HW296465  11.138   5.227   8.545  2.4641  0.5988 -0.3727
62051SOL     OW96466   7.757  10.567   8.338 -0.3925 -0.2053  0.5652
62051SOL    HW196467   7.800  10.625   8.275  1.3234 -1.4298  0.5176
62051SOL    HW296468   7.762  10.614   8.421 -1.0343  0.6554  0.1175
62052SOL     OW96469  11.246   9.246   6.691  0.0913  0.0891 -0.0700
62052SOL    HW196470  11.254   9.250   6.786 -0.4841  0.3181 -0.0250
62052SOL    HW296471  11.180   9.179   6.675  1.8537 -1.6524 -0.4207
62053SOL     OW96472   1.425   8.006   8.089  0.0552 -0.2005  0.3325
62053SOL    HW196473   1.330   8.019   8.095  0.1277 -0.0250  1.4749
62053SOL    HW296474   1.461   8.095   8.081  0.1529 -0.2064  0.6654
62054SOL     OW96475  11.372  10.323   7.582  0.1368  0.4142  0.1019
62054SOL    HW196476  11.405  10.359   7.664  1.3067 -2.2389  0.9174
62054SOL    HW296477  11.289  10.282   7.605 -0.9669  2.0561 -0.7182
62055SOL     OW96478   0.077   3.783   7.801 -0.8180 -0.4456  0.8573
62055SOL    HW196479   0.103   3.843   7.730  1.1267 -1.6495  0.4744
62055SOL    HW296480   0.052   3.841   7.872 -0.1927  0.8395  0.0771
62056SOL     OW96481   9.733   8.745  10.667  0.0858  0.5577  0.3866
62056SOL    HW196482   9.702   8.785  10.586 -1.6002  0.3685  0.8991
62056SOL    HW296483   9.656   8.701  10.703  0.9496  0.1230  1.7885
62057SOL     OW96484   2.504   5.919   6.436  0.3752 -0.3285  0.6918
62057SOL    HW196485   2.460   6.003   6.427 -0.0788 -0.6050  0.2973
62057SOL    HW296486   2.570   5.918   6.367  0.7690 -0.0635  1.0580
62058SOL     OW96487   1.540   3.829  11.528  0.0569 -0.5555  0.5270
62058SOL    HW196488   1.505   3.751  11.571 -0.5942 -0.9494 -0.6562
62058SOL    HW296489   1.599   3.868  11.592 -0.7305 -1.2141  1.6921
62059SOL     OW96490   7.493   6.385   5.335 -0.0619 -0.9894 -0.3520
62059SOL    HW196491   7.410   6.376   5.289 -1.7824  1.4874  1.9353
62059SOL    HW296492   7.483   6.332   5.414  0.6349 -0.9089 -0.2018
62060SOL     OW96493   4.408   7.241   1.163 -0.7109  0.3966  0.2651
62060SOL    HW196494   4.450   7.177   1.221 -1.7715  0.1536  0.8032
62060SOL    HW296495   4.397   7.195   1.080 -0.9181  0.0778  0.4659
62061SOL     OW96496   9.962   7.849  11.423  0.0092  0.2125 -0.4621
62061SOL    HW196497   9.885   7.804  11.459  0.8746 -0.0425  1.1477
62061SOL    HW296498   9.925   7.920  11.370 -1.3416 -0.3780 -0.3606
62062SOL     OW96499   2.835   9.194   9.439 -0.3489 -0.0236  0.2094
62062SOL    HW196500   2.802   9.280   9.467  0.3891  0.9000 -1.6161
62062SOL    HW296501   2.757   9.140   9.429 -1.0439  1.1394 -0.8354
62063SOL     OW96502   2.203  12.133   9.922 -0.7867 -0.5748  0.2218
62063SOL    HW196503   2.204  12.120   9.827  2.7986 -1.4782  0.2141
62063SOL    HW296504   2.228  12.225   9.933  0.1944 -0.8298  0.2394
62064SOL     OW96505   0.563   0.226   5.798  0.2066  0.2489  0.5042
62064SOL    HW196506   0.522   0.296   5.848 -0.2714  0.3192  0.0118
62064SOL    HW296507   0.499   0.202   5.731 -0.2745 -1.6947  1.5873
62065SOL     OW96508   8.196  11.215  10.242  0.4722  0.0015  0.8624
62065SOL    HW196509   8.179  11.308  10.257 -1.0136  0.1062 -1.0223
62065SOL    HW296510   8.223  11.210  10.150  0.3616 -1.4245  0.8781
62066SOL     OW96511   5.349   6.205   3.787  0.3593 -0.0390 -0.1566
62066SOL    HW196512   5.441   6.226   3.770 -0.2633  2.1056 -1.3636
62066SOL    HW296513   5.301   6.267   3.731 -1.8124 -1.4190  0.0909
62067SOL     OW96514   8.979   3.680   8.438  0.4305 -0.6166 -0.2144
62067SOL    HW196515   9.036   3.649   8.368  1.0029 -0.8332  0.3330
62067SOL    HW296516   8.957   3.600   8.487 -0.1828 -0.5046 -0.3126
62068SOL     OW96517   5.419   8.583   4.404  0.0711 -0.2373 -0.0302
62068SOL    HW196518   5.431   8.639   4.327  1.2556  0.2095  0.4662
62068SOL    HW296519   5.421   8.643   4.478 -0.2829 -0.7581  0.4110
62069SOL     OW96520   8.855   2.678   1.494  0.3074 -0.5019 -0.1565
62069SOL    HW196521   8.789   2.746   1.485  1.4052  0.9393  1.7248
62069SOL    HW296522   8.931   2.711   1.446  1.0263 -0.0744  1.2103
62070SOL     OW96523  10.545   5.520  10.869  0.1303  0.0767  0.2800
62070SOL    HW196524  10.502   5.453  10.816 -0.3107  0.8755 -0.3966
62070SOL    HW296525  10.634   5.488  10.880  0.3806  0.1047 -1.3737
62071SOL     OW96526   5.298   1.529   5.759 -0.0722 -0.2616 -0.3257
62071SOL    HW196527   5.362   1.517   5.830  0.7887 -0.9661 -1.1916
62071SOL    HW296528   5.222   1.478   5.788  0.3546 -0.7311  0.0022
62072SOL     OW96529   9.108  11.843  10.498  0.0820 -0.0552  0.1543
62072SOL    HW196530   9.107  11.925  10.547 -0.2264  0.4451 -0.6713
62072SOL    HW296531   9.021  11.836  10.459  0.2577 -0.5334 -0.1754
62073SOL     OW96532   9.211   3.721   5.219 -0.4901 -0.6051 -0.1179
62073SOL    HW196533   9.285   3.684   5.170  0.7958  2.6169 -0.8286
62073SOL    HW296534   9.135   3.703   5.163 -0.2133 -3.1502  0.1826
62074SOL     OW96535   9.655   6.015   2.829  0.2272  0.6578 -0.0443
62074SOL    HW196536   9.697   5.947   2.775  0.1443  1.3333 -0.9850
62074SOL    HW296537   9.721   6.038   2.894  0.5959  0.3372 -0.3001
62075SOL     OW96538   4.112   8.335   7.961 -0.2939  0.0470  0.0692
62075SOL    HW196539   4.164   8.327   7.881  0.0181  1.9459  0.0384
62075SOL    HW296540   4.164   8.291   8.028 -0.3866 -1.2411 -0.6775
62076SOL     OW96541   3.076   1.472   3.614 -0.9036 -0.0069 -0.2309
62076SOL    HW196542   3.112   1.396   3.660 -1.1013 -1.1562 -1.8826
62076SOL    HW296543   3.154   1.521   3.585 -0.7467 -0.1775 -0.1006
62077SOL     OW96544  12.336   4.011   4.093  0.0477  0.5434 -0.7569
62077SOL    HW196545  12.245   4.011   4.122 -0.5132  2.4985 -2.3737
62077SOL    HW296546  12.369   4.098   4.116  1.0614  0.3758 -1.5013
62078SOL     OW96547   9.964   8.756   2.975 -0.1132 -0.1271  0.5152
62078SOL    HW196548  10.006   8.722   2.896  0.2420 -0.1719  0.7209
62078SOL    HW296549   9.898   8.690   2.996  1.1768 -1.1774  1.4267
62079SOL     OW96550   7.799  10.110   8.927  0.6860  0.2414 -0.2428
62079SOL    HW196551   7.875  10.052   8.915 -1.3333 -2.2399 -2.2632
62079SOL    HW296552   7.810  10.178   8.861  1.2915  0.0792 -0.3119
62080SOL     OW96553   2.452   8.233  10.670 -0.4211 -0.1191  0.1693
62080SOL    HW196554   2.420   8.289  10.600 -2.5710 -0.6286  0.6377
62080SOL    HW296555   2.523   8.183  10.631  0.3110  1.5911 -0.7823
62081SOL     OW96556   5.367   2.839   1.068  0.5137  0.0324 -0.4392
62081SOL    HW196557   5.386   2.773   1.002 -1.1476 -0.8418 -0.0895
62081SOL    HW296558   5.280   2.872   1.045  0.3738  0.4965  0.6865
62082SOL     OW96559   3.392  10.637  12.220  0.2877 -1.0488 -0.5531
62082SOL    HW196560   3.479  10.599  12.234 -0.4702 -2.5027  0.4766
62082SOL    HW296561   3.407  10.732  12.221  1.9853 -1.2707 -1.3788
62083SOL     OW96562   0.063   2.847  11.060 -0.1481 -0.4606  0.5856
62083SOL    HW196563   0.154   2.836  11.086 -0.1488  0.6669  1.1050
62083SOL    HW296564   0.057   2.938  11.031 -0.6202 -1.0869 -1.4904
62084SOL     OW96565   7.721  10.931   2.078 -0.4386 -0.4158 -0.2019
62084SOL    HW196566   7.812  10.936   2.104 -0.4688 -0.0310 -0.1705
62084SOL    HW296567   7.672  10.938   2.160 -0.4837 -1.3184 -0.1405
62085SOL     OW96568  12.967   8.542   7.438 -0.1992 -0.3221 -0.2830
62085SOL    HW196569  12.882   8.583   7.423 -0.1166 -0.3008 -0.7176
62085SOL    HW296570  12.957   8.453   7.406  0.7601  0.4701 -3.1028
62086SOL     OW96571   9.916  10.522  10.291 -0.2460  0.2199  0.1135
62086SOL    HW196572   9.909  10.594  10.353 -2.1555 -1.2195  1.7274
62086SOL    HW296573   9.827  10.511  10.258  0.0044 -1.3905 -0.0895
62087SOL     OW96574   9.787   7.451   1.149  0.4266 -0.9218 -0.4915
62087SOL    HW196575   9.699   7.422   1.125  0.2842 -1.0181  0.1398
62087SOL    HW296576   9.835   7.450   1.066 -0.3375 -0.2198 -0.9630
62088SOL     OW96577  12.399   0.763  12.481  0.5940 -0.4617 -0.8742
62088SOL    HW196578  12.470   0.700  12.466 -0.8518 -2.6956  0.9766
62088SOL    HW296579  12.338   0.717  12.538 -1.5407  1.9894 -1.0045
62089SOL     OW96580  11.853   1.017   2.414  0.5978 -0.4322  0.1539
62089SOL    HW196581  11.798   0.952   2.460  1.1992 -1.9402 -1.1664
62089SOL    HW296582  11.937   1.014   2.460 -0.0665  1.2173  1.5996
62090SOL     OW96583   9.020   5.705   5.123 -0.5592 -0.2852 -0.1253
62090SOL    HW196584   8.954   5.775   5.122 -2.9909 -2.4444  0.1373
62090SOL    HW296585   9.027   5.678   5.031 -1.2463 -1.1020  0.0545
62091SOL     OW96586   3.289   0.901  10.268  0.6858  0.0749  0.1606
62091SOL    HW196587   3.319   0.991  10.266  1.0960 -0.0641 -0.0298
62091SOL    HW296588   3.204   0.903  10.224 -0.7305  0.8698  2.7019
62092SOL     OW96589  12.546   4.783   8.877  0.1665  0.3744 -0.1491
62092SOL    HW196590  12.637   4.785   8.905  0.5308 -2.1325 -0.8989
62092SOL    HW296591  12.522   4.875   8.865  2.8228  1.0709 -0.6392
62093SOL     OW96592   7.471   4.807   1.542  0.3883 -0.2385 -0.0272
62093SOL    HW196593   7.503   4.767   1.622  0.5051  0.8707  0.5034
62093SOL    HW296594   7.542   4.794   1.478  2.1430  2.4133  1.2024
62094SOL     OW96595   8.836   0.483   0.868 -0.2578  0.0226  0.4846
62094SOL    HW196596   8.760   0.508   0.921 -1.0963  0.5474 -0.9019
62094SOL    HW296597   8.803   0.416   0.809  0.7035 -0.6935  0.7423
62095SOL     OW96598   9.950   0.481   2.450 -0.2113 -0.1355  0.1286
62095SOL    HW196599  10.019   0.491   2.516  1.3491  1.1662 -1.5898
62095SOL    HW296600   9.936   0.386   2.445  0.5398 -0.3434  1.3962
62096SOL     OW96601  11.255   3.487  10.246 -0.3694  0.1594  0.4514
62096SOL    HW196602  11.341   3.473  10.286 -0.7636 -1.0180  0.9433
62096SOL    HW296603  11.275   3.506  10.154  0.3919 -1.3975  0.2539
62097SOL     OW96604  12.631  11.421   1.342  0.0479 -0.2238 -0.0501
62097SOL    HW196605  12.566  11.492   1.340 -1.0902 -1.2262  0.0257
62097SOL    HW296606  12.655  11.409   1.250 -1.2762 -1.0582 -0.3156
62098SOL     OW96607   8.000   0.931   8.444  0.1974  0.5878 -0.3617
62098SOL    HW196608   8.090   0.934   8.476  0.5102  2.0181 -1.2892
62098SOL    HW296609   8.006   0.959   8.353 -1.3543  2.1325 -0.0371
62099SOL     OW96610   1.596   9.368  12.724  0.9227  0.3213 -0.3090
62099SOL    HW196611   1.538   9.367  12.647  0.1214  2.1434  0.2321
62099SOL    HW296612   1.563   9.296  12.779  1.0505 -0.5327 -1.3099
62100SOL     OW96613   8.031   0.188   6.858 -0.5152 -0.7465 -0.1416
62100SOL    HW196614   7.965   0.250   6.889 -1.2866 -0.7772 -1.6393
62100SOL    HW296615   8.087   0.240   6.801  0.7336 -0.7484  1.0262
62101SOL     OW96616   2.244   1.017   9.064 -0.5331 -0.0447  0.0196
62101SOL    HW196617   2.239   1.107   9.096 -2.0207  0.1477 -0.6796
62101SOL    HW296618   2.216   0.963   9.139  1.8567 -0.1045  0.9607
62102SOL     OW96619  11.871   4.715   0.911  0.0131  0.5817  0.1654
62102SOL    HW196620  11.939   4.780   0.891  0.3029  0.4021  0.5610
62102SOL    HW296621  11.892   4.685   0.999 -0.4094  0.3076  0.1719
62103SOL     OW96622   5.895   5.801   4.189 -0.1740 -0.0056 -0.6522
62103SOL    HW196623   5.805   5.835   4.187 -0.5565 -0.7063  1.5487
62103SOL    HW296624   5.886   5.709   4.165 -0.2786 -0.4121  0.8424
62104SOL     OW96625   5.718   2.566  12.519  0.4828  0.3246  0.4920
62104SOL    HW196626   5.699   2.644  12.572  2.5231  0.5571  0.9329
62104SOL    HW296627   5.730   2.600  12.430 -0.7170  0.2042  0.2552
62105SOL     OW96628   0.275   5.669  11.883  0.1705 -0.0912 -0.2467
62105SOL    HW196629   0.255   5.603  11.816 -0.4959 -0.9077  0.7350
62105SOL    HW296630   0.282   5.751  11.833 -0.1590 -0.7004 -1.3384
62106SOL     OW96631  12.049   5.169   8.654  0.5406 -0.4447 -0.2200
62106SOL    HW196632  12.052   5.079   8.622 -0.4658 -0.5699  0.0014
62106SOL    HW296633  11.984   5.212   8.598 -0.5672 -0.4314  1.0262
62107SOL     OW96634   6.997  10.221   1.788  0.1543 -0.1950  0.7591
62107SOL    HW196635   6.976  10.296   1.843 -0.3093 -0.6670  1.2432
62107SOL    HW296636   7.092  10.225   1.777  0.1112  0.5753  0.6014
62108SOL     OW96637  10.732   0.004   9.180  0.4085 -0.0070 -0.1210
62108SOL    HW196638  10.661  -0.060   9.187 -0.3220  0.6191 -1.3752
62108SOL    HW296639  10.777   0.000   9.264 -0.2399 -1.4376  0.1876
62109SOL     OW96640   6.743   2.051  11.215 -0.1402  0.0513 -0.4201
62109SOL    HW196641   6.836   2.047  11.237  0.6016 -0.0016 -3.2715
62109SOL    HW296642   6.740   2.099  11.132 -2.3980 -2.0962 -1.6934
62110SOL     OW96643   1.621   9.672   5.986 -0.0988 -0.1226 -0.0803
62110SOL    HW196644   1.649   9.600   6.042  1.6749  1.0088  0.5885
62110SOL    HW296645   1.684   9.672   5.914 -0.5467  0.2768 -0.4768
62111SOL     OW96646   3.952   4.513   7.495  0.0316 -0.0043  0.2003
62111SOL    HW196647   3.955   4.486   7.587 -1.0407 -0.3004  0.1575
62111SOL    HW296648   4.003   4.595   7.493  1.8445 -1.0710  0.6401
62112SOL     OW96649   0.462   4.306   8.376 -0.5039  0.3966 -0.4157
62112SOL    HW196650   0.422   4.368   8.315 -0.0718  0.8659 -0.2295
62112SOL    HW296651   0.436   4.338   8.463  1.6770  1.7631 -0.1860
62113SOL     OW96652   0.270  11.720   5.136  0.5682  0.1654  0.2246
62113SOL    HW196653   0.242  11.800   5.091 -0.4010 -1.0119 -1.3783
62113SOL    HW296654   0.202  11.705   5.202  2.2179  2.1379  2.5534
62114SOL     OW96655  12.426  10.612   8.559  0.0559  0.2294 -0.4027
62114SOL    HW196656  12.365  10.539   8.559  1.9353 -1.4362 -2.4931
62114SOL    HW296657  12.500  10.582   8.612  0.8371  0.5893 -1.2598
62115SOL     OW96658   1.135   9.061  10.740  0.4196 -0.0666 -0.1879
62115SOL    HW196659   1.103   9.071  10.829 -2.6540 -2.0088 -0.9097
62115SOL    HW296660   1.203   8.994  10.746  1.7611  1.3338  0.9034
62116SOL     OW96661   2.329   7.563   0.081 -0.4151 -0.2804 -0.2406
62116SOL    HW196662   2.299   7.472   0.078  0.9595 -0.9210  2.5101
62116SOL    HW296663   2.402   7.563   0.144  0.7801  2.4324 -1.4315
62117SOL     OW96664   5.801   9.975   0.318  0.0798 -0.0658 -0.5121
62117SOL    HW196665   5.879  10.027   0.339  0.1188  0.6885 -2.2823
62117SOL    HW296666   5.758  10.024   0.247 -1.9441 -0.5423  0.3228
62118SOL     OW96667   7.095   7.381   1.797  0.6136  0.0974  0.0217
62118SOL    HW196668   7.154   7.456   1.788  1.1830 -0.2406  0.7812
62118SOL    HW296669   7.151   7.311   1.831 -0.0281 -0.5075 -0.1522
62119SOL     OW96670   8.437   1.855   3.305  0.0199  0.3235 -0.1042
62119SOL    HW196671   8.352   1.892   3.329  0.1217  0.6181 -0.1885
62119SOL    HW296672   8.416   1.781   3.249 -0.2057 -0.2095  0.6785
62120SOL     OW96673   4.929  10.059   0.656 -0.3656  0.4634  0.0403
62120SOL    HW196674   4.847  10.102   0.634  0.2549  0.6534 -2.0515
62120SOL    HW296675   4.963  10.027   0.573  1.4122 -0.1251  0.9428
62121SOL     OW96676  10.708   9.671   1.541  0.0908 -0.4944 -0.2313
62121SOL    HW196677  10.725   9.655   1.634  2.2444 -1.9535 -0.7942
62121SOL    HW296678  10.760   9.748   1.520 -0.0603 -0.4200 -0.3365
62122SOL     OW96679   2.859   3.338   8.463 -0.4277  0.0049 -0.2439
62122SOL    HW196680   2.928   3.277   8.435 -1.0384  0.3152 -2.6221
62122SOL    HW296681   2.778   3.298   8.432 -0.9485  1.4272 -0.7993
62123SOL     OW96682   5.559  11.113   6.282 -0.2482  0.4540  0.3155
62123SOL    HW196683   5.587  11.029   6.318 -3.8487 -1.0815 -0.0779
62123SOL    HW296684   5.523  11.160   6.358  0.9581  1.3653  0.3661
62124SOL     OW96685   6.062   6.573   4.749  0.0224 -0.2242 -0.0142
62124SOL    HW196686   6.121   6.647   4.758  1.4293 -1.4201  1.3260
62124SOL    HW296687   6.119   6.497   4.745 -1.3984 -1.4516  1.3983
62125SOL     OW96688   2.726   0.207   3.316 -0.1438 -0.1769 -0.4540
62125SOL    HW196689   2.682   0.290   3.332  0.8073  0.1124  0.7944
62125SOL    HW296690   2.696   0.180   3.229 -2.1940  0.3486  0.0518
62126SOL     OW96691  12.018   5.378  12.624 -0.2684 -0.1602 -0.0248
62126SOL    HW196692  12.022   5.421  12.538  1.1244  0.8944  0.5359
62126SOL    HW296693  11.969   5.438  12.679  0.0700 -0.1727  0.2900
62127SOL     OW96694   3.083  11.100   9.998 -0.1876  0.3006 -0.2043
62127SOL    HW196695   3.089  11.075   9.905  1.7472 -2.9241  0.6042
62127SOL    HW296696   3.169  11.138  10.017 -0.8752  1.7382  0.1178
62128SOL     OW96697  12.535   4.016   6.343 -0.2369  0.0984 -0.3261
62128SOL    HW196698  12.589   3.968   6.280  0.5544 -0.9882  1.1431
62128SOL    HW296699  12.571   4.105   6.343  1.4969 -0.5706  0.5188
62129SOL     OW96700   5.745   5.952   9.785  0.5375 -0.2860 -0.4983
62129SOL    HW196701   5.658   5.965   9.821  1.5559  3.8277  0.9790
62129SOL    HW296702   5.790   5.896   9.849 -0.0861  0.2351  0.4054
62130SOL     OW96703  10.253   0.585  12.288  0.1218 -0.2373  0.1583
62130SOL    HW196704  10.286   0.506  12.332 -0.9148 -0.4422  0.5758
62130SOL    HW296705  10.185   0.553  12.229  1.1109  0.0983 -1.2383
62131SOL     OW96706   1.352   4.153   3.554 -0.1849 -0.2869 -0.0839
62131SOL    HW196707   1.275   4.164   3.498  0.2893 -0.0043 -0.6902
62131SOL    HW296708   1.318   4.159   3.643 -1.1612 -2.0335 -0.2953
62132SOL     OW96709   1.196   2.168   8.045 -0.6988 -0.2322  0.2826
62132SOL    HW196710   1.122   2.156   8.105 -1.1495 -0.6823 -0.3521
62132SOL    HW296711   1.206   2.263   8.039 -4.0816  0.1446 -2.9554
62133SOL     OW96712   1.335   6.574   0.870  0.2094 -0.1804  0.1641
62133SOL    HW196713   1.402   6.630   0.909  0.5752 -0.7211  0.3233
62133SOL    HW296714   1.255   6.594   0.920  0.3999  0.0034  0.3953
62134SOL     OW96715   0.822  10.596   2.351 -0.1166  0.1679 -0.0972
62134SOL    HW196716   0.746  10.638   2.310 -0.3359 -0.0152  0.1126
62134SOL    HW296717   0.845  10.655   2.423  0.5082  0.6878 -0.7116
62135SOL     OW96718  12.051   8.355   5.381  0.8279  0.2829 -0.2256
62135SOL    HW196719  12.039   8.264   5.353 -0.5182  0.0927  0.8670
62135SOL    HW296720  12.132   8.354   5.431  0.3333 -0.5418  0.6020
62136SOL     OW96721   9.069  10.395   6.849 -0.0645 -0.2886 -0.4069
62136SOL    HW196722   8.979  10.389   6.817 -0.3253 -1.2152  0.4685
62136SOL    HW296723   9.082  10.489   6.865 -1.2573 -0.2546  0.5192
62137SOL     OW96724   8.748   8.001   6.886 -0.0882  0.2844 -0.0140
62137SOL    HW196725   8.804   8.033   6.815  1.0511  0.7496  1.0648
62137SOL    HW296726   8.808   7.979   6.956 -1.1493 -0.8322  0.5757
62138SOL     OW96727   3.840   3.289   5.488  0.3003  0.3750  0.4223
62138SOL    HW196728   3.754   3.285   5.446 -0.5568 -2.0832  2.1579
62138SOL    HW296729   3.893   3.228   5.437  1.0893  1.8730 -0.6322
62139SOL     OW96730   1.882  10.987  11.024 -0.5236  0.0961 -0.1907
62139SOL    HW196731   1.853  10.907  11.068  2.0171 -1.8281 -1.7225
62139SOL    HW296732   1.876  10.967  10.931  1.2771  1.2082 -0.6018
62140SOL     OW96733   7.791  11.266   6.969  0.5094  0.3636  0.4128
62140SOL    HW196734   7.701  11.235   6.980  0.5073 -0.5726 -1.7361
62140SOL    HW296735   7.782  11.355   6.936  0.3915  0.6026  1.0899
62141SOL     OW96736   5.536   7.497   6.261  0.0480 -0.4293 -0.1121
62141SOL    HW196737   5.450   7.471   6.291 -0.0891  0.1623  0.0263
62141SOL    HW296738   5.576   7.541   6.336 -0.4497  1.4223 -0.8659
62142SOL     OW96739   6.633  12.878   3.183  0.4835 -0.3404 -0.3568
62142SOL    HW196740   6.692  12.953   3.194  0.7217 -0.3488 -1.4126
62142SOL    HW296741   6.595  12.864   3.269  0.2762  1.1389 -0.1752
62143SOL     OW96742   4.967   7.990   2.675 -0.2032 -0.7439 -0.2500
62143SOL    HW196743   4.915   7.963   2.599 -2.7966 -0.1296  1.1673
62143SOL    HW296744   4.972   8.085   2.668 -1.5877 -0.5533  0.9580
62144SOL     OW96745   0.575   9.660   2.816  0.6172 -0.1451  0.4999
62144SOL    HW196746   0.632   9.652   2.892 -0.8350  0.3763  1.6953
62144SOL    HW296747   0.490   9.682   2.853 -0.2149 -0.2693 -1.2684
62145SOL     OW96748   1.435  11.085   5.070 -0.2623  0.5326  0.9798
62145SOL    HW196749   1.522  11.077   5.111  1.1608  0.6276 -1.7979
62145SOL    HW296750   1.431  11.176   5.041 -1.0961  0.4050  0.6893
62146SOL     OW96751   4.461  12.071   5.837  0.4252  0.4772  0.3404
62146SOL    HW196752   4.380  12.047   5.793  0.2234 -0.4171  1.1701
62146SOL    HW296753   4.468  12.166   5.826  0.4005  0.2941 -1.6202
62147SOL     OW96754   0.195   2.580   8.914 -0.3432 -0.4255 -0.2563
62147SOL    HW196755   0.160   2.605   8.828 -0.0366  4.0988  0.6864
62147SOL    HW296756   0.138   2.509   8.943 -2.0453 -0.4080 -3.1244
62148SOL     OW96757   2.722   7.985   3.025 -0.4455 -0.2180  0.0771
62148SOL    HW196758   2.742   7.892   3.020 -1.4531 -0.6729  2.8056
62148SOL    HW296759   2.795   8.022   3.076 -0.3887  0.3761 -0.4262
62149SOL     OW96760   8.563   3.609   2.862 -0.3715  0.0447  0.0091
62149SOL    HW196761   8.546   3.535   2.920 -0.9920 -0.1563 -0.4271
62149SOL    HW296762   8.477   3.637   2.831 -0.1092  0.6691 -0.1777
62150SOL     OW96763   9.293   5.220   6.526 -0.1489 -0.1838 -0.5674
62150SOL    HW196764   9.318   5.133   6.555 -0.4282  0.2034  0.9554
62150SOL    HW296765   9.330   5.279   6.592 -1.8968  0.6538 -0.2640
62151SOL     OW96766   4.645   2.587   3.392  0.1910 -0.1435  0.4567
62151SOL    HW196767   4.694   2.572   3.472  1.1121  0.3549  0.0036
62151SOL    HW296768   4.608   2.501   3.369 -1.5007  0.0269  2.2887
62152SOL     OW96769  12.484   6.562  11.223  0.1858  0.1381  0.0158
62152SOL    HW196770  12.547   6.538  11.155  0.6039  0.0549  0.4334
62152SOL    HW296771  12.491   6.658  11.228  0.2581  0.1320  0.0402
62153SOL     OW96772   3.635   8.935   7.372 -0.2866  0.1787  0.1543
62153SOL    HW196773   3.693   8.872   7.415 -0.4646  0.6806  1.1580
62153SOL    HW296774   3.640   9.013   7.427 -0.3742  0.9167 -0.8576
62154SOL     OW96775   9.510   7.218   4.705  0.9466  0.1974  0.3389
62154SOL    HW196776   9.480   7.308   4.722 -1.5892 -0.5084  0.0126
62154SOL    HW296777   9.550   7.222   4.618  2.0644  1.2241  0.8608
62155SOL     OW96778   5.797  12.134   6.355 -0.1412  0.1942 -0.3568
62155SOL    HW196779   5.855  12.121   6.430 -1.9317  0.6357  1.1814
62155SOL    HW296780   5.757  12.048   6.340 -0.1230  0.2157 -0.5403
62156SOL     OW96781   9.101   7.616   3.546 -0.5316 -0.6372  0.3754
62156SOL    HW196782   9.155   7.653   3.476 -0.0470 -0.4509  0.8395
62156SOL    HW296783   9.023   7.584   3.502 -0.8594  0.7238 -0.0675
62157SOL     OW96784   5.940   9.436  11.830  0.1374  0.6821 -0.2481
62157SOL    HW196785   5.987   9.401  11.755 -1.6295 -0.6635 -0.8043
62157SOL    HW296786   6.005   9.485  11.879  1.5962  0.6457 -2.0588
62158SOL     OW96787   1.879   8.170  10.889  0.9257 -0.0180  0.1353
62158SOL    HW196788   1.822   8.207  10.822  1.6612 -0.0399 -0.5196
62158SOL    HW296789   1.915   8.246  10.935 -2.1066  0.0259  2.7887
62159SOL     OW96790  12.794   9.999   2.974  0.4401  0.6423  0.2016
62159SOL    HW196791  12.888  10.000   2.958  0.4732  1.9606  0.3829
62159SOL    HW296792  12.773  10.087   3.004 -1.2335  1.1223 -2.0715
62160SOL     OW96793   3.996   9.226  10.053  0.5656  0.4023  0.4230
62160SOL    HW196794   3.937   9.155  10.026  2.7518 -0.8750 -1.3530
62160SOL    HW296795   3.953   9.306  10.022 -1.2104 -0.2542  1.0815
62161SOL     OW96796   8.389   3.975   0.668  0.2593  0.2253 -0.1382
62161SOL    HW196797   8.323   4.019   0.615  0.2218 -0.3606 -0.5870
62161SOL    HW296798   8.348   3.964   0.754 -1.3142 -2.5206 -1.1139
62162SOL     OW96799   3.352   7.264   5.826 -0.6377 -0.2070 -0.0512
62162SOL    HW196800   3.330   7.344   5.779 -1.4571  0.4011  1.3362
62162SOL    HW296801   3.268   7.226   5.852 -0.2139  0.0301  1.8182
62163SOL     OW96802  12.267   5.289   5.650 -0.6139 -0.0175  0.3627
62163SOL    HW196803  12.249   5.235   5.573 -0.3690  1.9473 -1.1852
62163SOL    HW296804  12.326   5.237   5.704  0.3819 -0.9148 -1.5129
62164SOL     OW96805   3.169   3.022   8.884 -0.6102 -0.4656  0.7245
62164SOL    HW196806   3.223   3.064   8.951  0.3720 -1.1757  0.3894
62164SOL    HW296807   3.182   3.075   8.806 -0.2560 -0.7331  0.5994
62165SOL     OW96808  10.353   0.039   4.204  0.0577 -0.1384  0.2950
62165SOL    HW196809  10.424   0.067   4.261 -0.0572  1.3303 -0.2505
62165SOL    HW296810  10.397  -0.011   4.135  0.4000 -0.3544  0.6626
62166SOL     OW96811   0.504  10.730  12.224  0.2557 -0.2974 -0.3716
62166SOL    HW196812   0.464  10.645  12.206  0.5876 -0.4038 -0.6256
62166SOL    HW296813   0.573  10.712  12.288 -1.6995  0.2575  2.0349
62167SOL     OW96814   4.600   9.486   5.664  0.1003 -0.1730  0.3263
62167SOL    HW196815   4.539   9.482   5.591  0.4116 -1.4661  0.1086
62167SOL    HW296816   4.654   9.563   5.647  0.6213 -0.8400 -1.1771
62168SOL     OW96817   4.331   5.970   5.417  0.0774  0.5011 -0.2711
62168SOL    HW196818   4.243   6.004   5.431 -0.5860 -1.4612  0.8076
62168SOL    HW296819   4.317   5.879   5.391  1.7784  0.3789 -0.8696
62169SOL     OW96820   9.395   3.230   0.953  0.1231 -0.1045  0.0917
62169SOL    HW196821   9.303   3.236   0.978 -0.2957  0.1622 -1.3966
62169SOL    HW296822   9.440   3.202   1.032 -1.0344  1.1409  1.2478
62170SOL     OW96823   1.155   7.981   8.796  0.3067 -0.7451  0.0066
62170SOL    HW196824   1.178   8.021   8.712  0.0156  1.8068  1.0464
62170SOL    HW296825   1.060   7.989   8.801  0.5095  1.7469  1.6870
62171SOL     OW96826   4.355  11.659   7.853 -0.6403  0.3392  0.2725
62171SOL    HW196827   4.315  11.632   7.770  0.0849 -1.1358  0.3702
62171SOL    HW296828   4.356  11.754   7.849  0.9977  0.3252 -2.2476
62172SOL     OW96829   5.417  10.619   7.386  0.7636  0.0298  0.2232
62172SOL    HW196830   5.449  10.702   7.350 -0.6243  0.5728  0.2029
62172SOL    HW296831   5.477  10.600   7.459  0.8439  1.2748  0.4978
62173SOL     OW96832   2.063   7.873  11.307 -0.2701 -0.5387  0.2708
62173SOL    HW196833   2.116   7.815  11.362  2.1862  0.1612 -1.1825
62173SOL    HW296834   2.063   7.956  11.354 -3.6899 -1.4642  2.2925
62174SOL     OW96835   8.522   5.340   8.448 -0.6577 -0.7592  0.1530
62174SOL    HW196836   8.562   5.340   8.534  1.2172 -1.0358 -0.6800
62174SOL    HW296837   8.568   5.409   8.400 -2.2467 -0.0269 -0.3954
62175SOL     OW96838   9.141   8.432   2.880 -0.1780 -0.3524  0.5369
62175SOL    HW196839   9.198   8.433   2.803  0.7356  2.0993  1.1311
62175SOL    HW296840   9.080   8.360   2.865  1.3850 -1.3570 -1.3963
62176SOL     OW96841   8.873   0.514  12.861  0.0956  0.2658 -0.2401
62176SOL    HW196842   8.898   0.541  12.772  0.4667 -0.2464 -0.2928
62176SOL    HW296843   8.931   0.441  12.881  0.0541  0.4198  0.4533
62177SOL     OW96844   5.953   8.857   3.975 -0.7629 -0.7907  0.0818
62177SOL    HW196845   5.941   8.777   3.925 -0.0573 -0.5110 -0.5645
62177SOL    HW296846   5.895   8.921   3.932 -1.5925 -1.0398  0.8170
62178SOL     OW96847  10.720   0.012   8.420 -0.0340  0.0741  0.4122
62178SOL    HW196848  10.647   0.010   8.359  1.0404 -2.0371 -0.9622
62178SOL    HW296849  10.795   0.039   8.366  0.5419  0.3441  1.3337
62179SOL     OW96850  10.236   3.053   3.406  0.1501 -0.0395  0.1400
62179SOL    HW196851  10.298   3.031   3.337  0.2778 -0.6491  0.4391
62179SOL    HW296852  10.276   3.019   3.486 -0.2489  0.1729  0.4345
62180SOL     OW96853  12.958   7.086   9.756  0.4292  0.2032  0.6684
62180SOL    HW196854  12.918   7.158   9.707 -0.8640 -1.1785 -0.3640
62180SOL    HW296855  12.886   7.047   9.805  0.6185 -1.8080 -0.5736
62181SOL     OW96856   2.236   8.056   2.851  0.0555  0.3351  0.0006
62181SOL    HW196857   2.204   8.008   2.774 -0.8039 -2.7051  2.0647
62181SOL    HW296858   2.332   8.051   2.843 -0.0034  0.8171 -1.2557
62182SOL     OW96859  11.681  12.478   6.169 -0.3869  0.1224  0.2239
62182SOL    HW196860  11.759  12.471   6.225 -0.1215  0.0021 -0.1548
62182SOL    HW296861  11.708  12.438   6.086 -1.1670 -0.8603  0.4204
62183SOL     OW96862  10.052   0.482   6.835 -0.3473 -0.5457 -0.1830
62183SOL    HW196863  10.051   0.578   6.841  1.5556 -0.3304 -2.1445
62183SOL    HW296864  10.129   0.456   6.885  0.3865 -0.8489 -1.4423
62184SOL     OW96865   6.098  12.977   9.206  0.0619 -0.2367  0.3643
62184SOL    HW196866   6.112  13.051   9.264  1.0050 -0.2003  0.1255
62184SOL    HW296867   6.014  12.940   9.232 -0.2143  0.6524  0.7718
62185SOL     OW96868   8.846   9.151   5.372 -0.0135  0.0939 -0.5365
62185SOL    HW196869   8.936   9.119   5.385  0.2974  1.6139  1.5577
62185SOL    HW296870   8.791   9.074   5.386  0.9196 -0.7308 -1.2582
62186SOL     OW96871  11.892   3.636   6.606  0.0866  0.3756  0.3439
62186SOL    HW196872  11.911   3.726   6.581 -3.0603  1.4521  1.4673
62186SOL    HW296873  11.807   3.617   6.566  0.1667 -1.7311  1.0532
62187SOL     OW96874   2.045   8.168   6.610 -0.2710  0.5073  0.4203
62187SOL    HW196875   2.037   8.263   6.619  1.3672  0.8503 -1.1376
62187SOL    HW296876   2.137   8.149   6.628  0.2432 -0.2692 -2.4271
62188SOL     OW96877   1.295   5.135   9.183 -0.1521  0.3046 -0.4144
62188SOL    HW196878   1.350   5.074   9.134 -1.0195 -0.3353 -0.6204
62188SOL    HW296879   1.331   5.135   9.271  0.8380  0.7307 -0.8012
62189SOL     OW96880  12.300   8.983   6.965  0.1766  0.8678  0.5076
62189SOL    HW196881  12.369   8.997   7.029  0.9598  0.9225 -0.3234
62189SOL    HW296882  12.253   9.066   6.961 -2.1233 -0.1286  3.5162
62190SOL     OW96883  12.084   5.975  11.064  0.0007  0.8328  0.2545
62190SOL    HW196884  12.125   5.954  11.148 -2.4398 -0.4768  1.2115
62190SOL    HW296885  12.002   6.018  11.087 -0.4258  1.0422 -1.4887
62191SOL     OW96886   1.548  11.638  12.130  0.2479  0.3878  0.1617
62191SOL    HW196887   1.623  11.693  12.106 -0.8644  1.0329 -2.0831
62191SOL    HW296888   1.537  11.653  12.224  0.5553  3.3382 -0.1650
62192SOL     OW96889  11.932   9.957   9.556 -0.0207  0.2531 -0.4567
62192SOL    HW196890  11.993   9.955   9.630  1.8448 -0.3905 -1.9312
62192SOL    HW296891  11.899   9.868   9.549  1.2379 -0.1621 -1.4810
62193SOL     OW96892   3.003   8.501  12.584 -0.4227 -0.1532  0.3484
62193SOL    HW196893   3.041   8.439  12.647 -0.6692  0.3093  0.9582
62193SOL    HW296894   2.909   8.500  12.603 -0.3047  1.2453  1.1369
62194SOL     OW96895  10.871   6.924   9.768 -0.1284  0.0309  0.0686
62194SOL    HW196896  10.881   7.019   9.775  0.9753  0.0086 -0.9183
62194SOL    HW296897  10.892   6.905   9.677 -0.1704 -1.1849  0.3063
62195SOL     OW96898   2.388   2.522   7.499 -0.0885  0.0664 -0.0601
62195SOL    HW196899   2.316   2.575   7.534  0.3771  1.0340 -0.5233
62195SOL    HW296900   2.399   2.451   7.563 -1.5197 -0.1767 -0.0422
62196SOL     OW96901   8.854  11.932   5.244  0.1583 -0.9955 -0.2012
62196SOL    HW196902   8.777  11.979   5.274  0.3625 -1.0017  0.3351
62196SOL    HW296903   8.856  11.852   5.296  0.9899 -0.6017  0.3953
62197SOL     OW96904   7.659  10.536   3.425 -0.2285  0.3759  0.5967
62197SOL    HW196905   7.603  10.613   3.433 -1.7935 -0.5622 -0.7233
62197SOL    HW296906   7.614  10.468   3.476  0.2648 -0.1165  0.3862
62198SOL     OW96907   1.712   8.223  12.297 -0.1915 -0.2407 -0.0801
62198SOL    HW196908   1.761   8.193  12.374  0.4775 -0.7649 -0.6938
62198SOL    HW296909   1.672   8.305  12.325  0.8931  0.1083  0.5072
62199SOL     OW96910   2.744   0.909   6.773 -0.1487  0.0020 -0.6148
62199SOL    HW196911   2.691   0.829   6.778 -0.7803  0.3242 -1.6454
62199SOL    HW296912   2.834   0.878   6.763  0.0689 -0.5636  2.3029
62200SOL     OW96913   2.698   4.749   2.976  0.0438  0.5229 -0.0114
62200SOL    HW196914   2.749   4.700   2.911  0.1437  1.3176 -0.5493
62200SOL    HW296915   2.759   4.765   3.048  1.1565  2.9454 -1.3666
62201SOL     OW96916   8.829   5.386   5.158 -0.2667  0.6916 -0.1284
62201SOL    HW196917   8.871   5.342   5.084 -2.6406 -0.3074 -1.0005
62201SOL    HW296918   8.798   5.469   5.123  0.2709  1.0778  0.2919
62202SOL     OW96919   2.038  12.721   4.134  0.1158  0.1181  0.2816
62202SOL    HW196920   1.943  12.731   4.137  0.1707  0.5587  0.4858
62202SOL    HW296921   2.051  12.630   4.105 -0.3623 -0.1963  1.0178
62203SOL     OW96922   0.100   0.686   3.152  0.3067 -0.2978  0.2173
62203SOL    HW196923   0.103   0.710   3.245 -0.5738 -0.2394  0.2403
62203SOL    HW296924   0.006   0.683   3.131  0.3270 -3.3399  0.1117
62204SOL     OW96925   2.862   3.846   9.931  0.1241 -0.8639  0.6355
62204SOL    HW196926   2.841   3.772   9.875 -0.7547  0.4889 -0.9178
62204SOL    HW296927   2.779   3.894   9.940  0.2536 -0.9499  3.0229
62205SOL     OW96928   7.490   9.310   8.780  0.6507 -0.4085 -0.0729
62205SOL    HW196929   7.493   9.393   8.829  0.5930  0.1160 -0.9311
62205SOL    HW296930   7.542   9.250   8.832  0.8018  0.2041  0.5050
62206SOL     OW96931   2.968   3.907   0.130  0.2069 -0.1795  0.3026
62206SOL    HW196932   2.930   3.820   0.117 -0.7340  0.4484 -1.4637
62206SOL    HW296933   2.905   3.967   0.092  1.0856  1.2553  1.0254
62207SOL     OW96934  12.846   1.694   2.525 -0.1431 -0.3426 -0.9393
62207SOL    HW196935  12.936   1.663   2.514  0.7557  1.9543 -0.7125
62207SOL    HW296936  12.829   1.685   2.619  0.4237  0.5455 -0.7348
62208SOL     OW96937  10.999   6.403  11.861 -0.5112  0.2441 -0.4964
62208SOL    HW196938  10.922   6.433  11.910  1.3333  0.2534  2.6785
62208SOL    HW296939  11.049   6.483  11.843  0.1385 -0.0081  0.1104
62209SOL     OW96940   7.044  12.167  10.007  0.3522 -0.3598 -0.1056
62209SOL    HW196941   7.113  12.154  10.072  0.8711 -3.6911 -1.1291
62209SOL    HW296942   7.089  12.198   9.929 -0.2120  3.1729  0.7912
62210SOL     OW96943   5.924   1.544   1.369 -0.4899  0.1439 -0.2070
62210SOL    HW196944   5.871   1.547   1.449 -1.1125  4.4687 -0.5097
62210SOL    HW296945   6.013   1.527   1.399 -0.7132  1.6596  1.4576
62211SOL     OW96946  11.609   2.708   0.204  0.2073 -0.3765  0.4466
62211SOL    HW196947  11.608   2.731   0.111 -0.9641  0.2628  0.5988
62211SOL    HW296948  11.692   2.661   0.216  0.4851 -0.2665 -0.8632
62212SOL     OW96949   7.796   0.679  11.492  0.0939 -0.0153 -0.2618
62212SOL    HW196950   7.732   0.710  11.428  0.8517 -0.1744 -1.1215
62212SOL    HW296951   7.867   0.743  11.489  1.2937 -1.3231 -1.4610
62213SOL     OW96952   6.991   7.924  10.283  0.5141 -0.0615  0.0302
62213SOL    HW196953   7.057   7.909  10.216 -1.1462 -1.2884 -1.4264
62213SOL    HW296954   6.910   7.892  10.244 -1.2835  2.7936  1.1052
62214SOL     OW96955  11.029   3.285  11.970 -0.2467  0.4867  0.8960
62214SOL    HW196956  10.997   3.368  11.935 -0.7873 -0.2437 -0.4250
62214SOL    HW296957  10.963   3.220  11.944  1.8129 -0.9388 -1.1988
62215SOL     OW96958   7.513   8.279  12.545 -0.0796 -0.1458  0.2280
62215SOL    HW196959   7.520   8.320  12.459 -1.4088  0.4032  0.3482
62215SOL    HW296960   7.459   8.340  12.596  0.2825 -0.6962  1.2996
62216SOL     OW96961   3.187   8.260   7.006 -0.0875 -0.2055 -0.0729
62216SOL    HW196962   3.249   8.296   7.069  0.1215  0.5002 -0.6706
62216SOL    HW296963   3.103   8.261   7.053 -0.0671  0.9609 -0.0188
62217SOL     OW96964  11.941  12.750   7.548 -0.4447  0.1156 -0.0211
62217SOL    HW196965  12.015  12.751   7.487 -0.7229 -0.1681 -0.3714
62217SOL    HW296966  11.952  12.668   7.597 -0.5438  0.0566 -0.0967
62218SOL     OW96967   6.660  10.668   5.236 -0.7213 -0.2346  0.5165
62218SOL    HW196968   6.660  10.650   5.142 -0.5009 -1.6248  0.7662
62218SOL    HW296969   6.730  10.732   5.248 -2.0654  1.5125 -0.5124
62219SOL     OW96970  11.359  11.995   2.668 -0.0853  0.2318  0.0653
62219SOL    HW196971  11.362  11.924   2.733  1.0013 -0.2325 -0.4609
62219SOL    HW296972  11.415  11.964   2.596 -1.6887  0.4771 -1.3622
62220SOL     OW96973   7.126   9.468   5.005  0.0182  0.2681 -0.1166
62220SOL    HW196974   7.051   9.436   4.955  0.1068  0.9431 -0.7093
62220SOL    HW296975   7.202   9.450   4.949  0.0137  1.9681 -0.7307
62221SOL     OW96976   5.309   9.790   0.275 -0.3607 -0.7393  0.1549
62221SOL    HW196977   5.402   9.782   0.294 -0.4144 -0.1450  0.7212
62221SOL    HW296978   5.267   9.728   0.334 -0.4067 -0.0873  0.8249
62222SOL     OW96979  11.214   6.267   0.649 -0.3103 -0.4104  0.0982
62222SOL    HW196980  11.123   6.272   0.620 -0.0669  0.9908 -0.4920
62222SOL    HW296981  11.254   6.201   0.591 -0.0957  1.5748 -2.1596
62223SOL     OW96982   2.156   7.912  11.042  0.2320 -0.3749 -0.0493
62223SOL    HW196983   2.202   7.992  11.070 -1.3155  0.0841  1.3903
62223SOL    HW296984   2.094   7.895  11.113 -0.2404 -2.2525 -0.8594
62224SOL     OW96985   3.126   7.732   4.288  0.0082 -0.1261 -0.2993
62224SOL    HW196986   3.040   7.733   4.331 -0.1663 -0.4596 -0.6327
62224SOL    HW296987   3.173   7.806   4.326 -0.5704  0.3015 -0.4022
62225SOL     OW96988   0.192   0.939   0.855  0.3911 -0.4828  0.4327
62225SOL    HW196989   0.104   0.965   0.884 -0.6977 -0.3546 -2.6570
62225SOL    HW296990   0.176   0.886   0.777  3.1188  1.7676 -1.8410
62226SOL     OW96991  10.605  10.148   3.148 -0.4778 -0.7009 -0.3729
62226SOL    HW196992  10.690  10.107   3.161 -1.0756 -2.4785 -1.7631
62226SOL    HW296993  10.624  10.242   3.150  1.5488 -1.0454 -0.8960
62227SOL     OW96994  11.689   5.963   4.277  0.1548 -0.0377 -0.0020
62227SOL    HW196995  11.695   6.034   4.341 -0.9468  1.7712 -1.7993
62227SOL    HW296996  11.658   5.888   4.329  0.8801  0.8777  1.8627
62228SOL     OW96997   5.074   4.620   3.795  0.4182  0.4518  0.1386
62228SOL    HW196998   5.020   4.699   3.788 -0.1160  0.1003  0.2016
62228SOL    HW296999   5.142   4.643   3.858  0.5442  1.0125 -0.1946
62229SOL     OW97000  11.842   7.856   4.375 -0.2061  0.2090  0.3251
62229SOL    HW197001  11.889   7.882   4.296 -0.8317  0.1769 -0.0701
62229SOL    HW297002  11.854   7.929   4.436 -0.8683  0.8712 -0.3062
62230SOL     OW97003   3.052   0.086  12.947 -0.0555  0.3946  0.5794
62230SOL    HW197004   3.143   0.090  12.916 -0.0271 -0.0138  0.6101
62230SOL    HW297005   3.041   0.165  13.000  0.1706  0.6341  0.2783
62231SOL     OW97006   7.533   7.407   4.633  0.3143  0.4900 -0.0003
62231SOL    HW197007   7.588   7.412   4.711 -0.4211  2.1464  0.4601
62231SOL    HW297008   7.569   7.335   4.582  2.0373  0.6519  0.9337
62232SOL     OW97009  12.580   5.311   5.642 -0.3032  0.3357  0.4388
62232SOL    HW197010  12.529   5.377   5.594  0.4068 -0.4037 -1.4387
62232SOL    HW297011  12.587   5.237   5.581 -0.2108 -1.0813  2.1098
62233SOL     OW97012  10.794   6.566  11.989 -0.0255 -0.0457  0.0602
62233SOL    HW197013  10.707   6.608  11.988  0.1488  0.3137 -0.3702
62233SOL    HW297014  10.811   6.551  12.082 -0.3145  0.3890  0.1915
62234SOL     OW97015   7.147   2.987   8.672 -0.6143  0.0297 -0.1039
62234SOL    HW197016   7.116   3.069   8.711 -0.0959  0.9253 -1.5062
62234SOL    HW297017   7.174   2.934   8.747  1.8983  2.3116  0.7751
62235SOL     OW97018  10.416   5.133   6.338  0.3034  0.0249  0.4980
62235SOL    HW197019  10.326   5.115   6.365  0.5301  1.0015  1.9690
62235SOL    HW297020  10.468   5.124   6.418  1.5167 -0.3909 -0.3031
62236SOL     OW97021   7.133  12.432   2.463 -0.3550  0.5574 -0.2134
62236SOL    HW197022   7.209  12.418   2.520 -1.0171 -0.2900  0.4979
62236SOL    HW297023   7.154  12.511   2.414  0.4765  0.9990  0.8163
62237SOL     OW97024  12.743   4.441   4.572 -0.0248  0.0005 -0.0394
62237SOL    HW197025  12.735   4.359   4.621 -2.5884 -0.4772 -1.1011
62237SOL    HW297026  12.729   4.509   4.638  1.0338 -0.4193  0.6510
62238SOL     OW97027   6.081   3.374   9.268 -0.1307  0.2999 -0.2788
62238SOL    HW197028   6.023   3.335   9.333  0.9628  0.9837  1.1738
62238SOL    HW297029   6.027   3.440   9.224 -0.3454  1.2930  1.4023
62239SOL     OW97030   9.863   1.897   5.773 -0.0604 -0.6951  0.0286
62239SOL    HW197031   9.824   1.848   5.701  1.3358 -0.6900 -0.7487
62239SOL    HW297032   9.955   1.904   5.751  0.2395  0.0545  1.4042
62240SOL     OW97033   8.363   0.064  10.485  0.0835 -0.4226 -0.4735
62240SOL    HW197034   8.274   0.030  10.492  0.7749 -2.5741 -1.3313
62240SOL    HW297035   8.406   0.005  10.423  1.5615  1.7812 -1.6757
62241SOL     OW97036   1.515   3.582   6.976 -0.4842  0.4041  0.4097
62241SOL    HW197037   1.558   3.569   6.891 -1.4344  0.5245 -0.1061
62241SOL    HW297038   1.454   3.655   6.960 -1.0553  0.0720  1.0531
62242SOL     OW97039   2.494   1.039   1.808  0.3353 -0.1023 -0.3724
62242SOL    HW197040   2.486   1.084   1.724  0.2499  2.5437  0.9782
62242SOL    HW297041   2.571   1.078   1.849 -0.5586 -0.1770  1.4677
62243SOL     OW97042   8.459  10.742   4.582  0.6445  0.1058 -0.0838
62243SOL    HW197043   8.470  10.798   4.659  0.9860  0.2097 -0.2058
62243SOL    HW297044   8.509  10.663   4.602  0.1707 -0.1560  0.0839
62244SOL     OW97045   7.306   6.805   4.343  0.6759 -0.2805 -0.2346
62244SOL    HW197046   7.224   6.850   4.324  1.7236  2.2444  0.7690
62244SOL    HW297047   7.374   6.861   4.304  2.0018 -1.7460 -0.1441
62245SOL     OW97048  11.335   8.617   8.929  0.3141  0.3072 -0.0734
62245SOL    HW197049  11.259   8.560   8.930  0.4779  0.0625 -0.8367
62245SOL    HW297050  11.300   8.705   8.915  0.1494  0.2281 -0.1547
62246SOL     OW97051  11.184   7.225   9.273 -0.0255 -0.6157  0.3122
62246SOL    HW197052  11.226   7.217   9.359  0.4716 -0.3382  0.0971
62246SOL    HW297053  11.220   7.153   9.222  2.1239  1.0209 -0.6552
62247SOL     OW97054   9.594   0.565   1.901 -0.4249 -0.2480  0.0418
62247SOL    HW197055   9.585   0.511   1.980  0.7436  0.7626  0.8983
62247SOL    HW297056   9.529   0.529   1.840 -0.8957 -1.4733  1.2157
62248SOL     OW97057   2.338  12.409   0.210 -0.3706 -0.3453  0.7097
62248SOL    HW197058   2.283  12.428   0.134 -0.3001  1.0875  0.9975
62248SOL    HW297059   2.377  12.493   0.234  1.4103 -1.1699  0.9450
62249SOL     OW97060   0.395  11.779   3.614 -0.5945  0.0905  0.1557
62249SOL    HW197061   0.392  11.714   3.544 -0.2088  2.2773 -2.0451
62249SOL    HW297062   0.304  11.790   3.641 -1.1681  1.1701 -2.0121
62250SOL     OW97063   4.824   6.246   9.255  0.3698  0.0504  0.2183
62250SOL    HW197064   4.869   6.322   9.218  1.1186 -1.3757 -1.9657
62250SOL    HW297065   4.819   6.265   9.348  2.3177  1.8651  0.0311
62251SOL     OW97066   3.576   8.255   6.206  0.3350  0.2493 -0.1065
62251SOL    HW197067   3.576   8.167   6.243  0.4388 -0.1657 -1.0605
62251SOL    HW297068   3.499   8.258   6.150  0.9182  0.3806 -0.9276
62252SOL     OW97069   5.200   4.384   9.128 -0.1725  0.2820  0.3520
62252SOL    HW197070   5.223   4.437   9.203  0.0215  1.5321 -0.5579
62252SOL    HW297071   5.277   4.386   9.072 -0.1929 -0.9063  0.2544
62253SOL     OW97072   7.083   3.288   8.429  0.3701 -0.0855 -0.0398
62253SOL    HW197073   7.115   3.235   8.356  0.5062 -0.3770  0.2294
62253SOL    HW297074   7.146   3.359   8.436  0.5612 -0.2623  0.0314
62254SOL     OW97075  12.438  12.320   8.177  0.1343  0.2787 -0.3641
62254SOL    HW197076  12.489  12.337   8.256 -0.2328 -0.5923  0.0736
62254SOL    HW297077  12.443  12.402   8.128  0.3341  0.8516  0.5780
62255SOL     OW97078   9.144  12.195   4.916  0.4592 -0.2337 -0.0330
62255SOL    HW197079   9.084  12.129   4.949 -0.3610  0.2229 -0.5568
62255SOL    HW297080   9.106  12.223   4.833 -0.3515  2.3187  1.0839
62256SOL     OW97081   9.250   5.885  10.454 -0.2138  0.0898 -0.1900
62256SOL    HW197082   9.253   5.831  10.532  2.5060  0.6093  0.1767
62256SOL    HW297083   9.225   5.972  10.486 -1.2943 -0.1863 -0.2647
62257SOL     OW97084   7.065  10.044   8.603 -0.0030  0.0075  0.3437
62257SOL    HW197085   7.071  10.048   8.699 -0.9684 -0.0386  0.4181
62257SOL    HW297086   7.139  10.096   8.572  0.9565 -0.8466  1.0944
62258SOL     OW97087   0.353   3.297   4.119  0.7345 -0.6918 -0.1897
62258SOL    HW197088   0.398   3.381   4.115  1.8382 -1.2273  0.3196
62258SOL    HW297089   0.410   3.242   4.174  0.1710 -1.8475 -0.7194
62259SOL     OW97090  11.219   9.815   7.386 -0.4407 -0.1776 -0.6789
62259SOL    HW197091  11.189   9.872   7.315 -0.5761  0.3435 -0.2147
62259SOL    HW297092  11.138   9.786   7.429 -0.3173  1.5817  0.8505
62260SOL     OW97093   1.444  10.539   0.057 -0.3950  0.2934  0.1201
62260SOL    HW197094   1.474  10.467   0.114 -1.1081  0.0318  0.1755
62260SOL    HW297095   1.502  10.612   0.078 -0.6077  0.1787  1.1439
62261SOL     OW97096   2.494   3.788  12.956  0.8217  0.0704 -0.0455
62261SOL    HW197097   2.475   3.754  13.043 -0.0800  2.5278  0.8105
62261SOL    HW297098   2.420   3.761  12.902  0.3782  0.2603  0.4677
62262SOL     OW97099   2.595   3.212  10.836  0.2616 -0.3318 -0.1973
62262SOL    HW197100   2.533   3.181  10.902 -0.2930  0.4446 -0.3325
62262SOL    HW297101   2.680   3.210  10.880  0.0777 -0.9893  0.1383
62263SOL     OW97102   1.327   3.937   1.599  0.1259 -0.2030  0.0302
62263SOL    HW197103   1.337   3.979   1.513  0.7644 -0.5203 -0.0546
62263SOL    HW297104   1.359   3.848   1.586  0.8520 -0.0608  0.7552
62264SOL     OW97105   8.586   2.312  10.952  0.2569 -0.5639 -0.5621
62264SOL    HW197106   8.523   2.273  10.891  2.5180 -0.9839 -2.7821
62264SOL    HW297107   8.671   2.303  10.908  1.5194  2.6791  0.8892
62265SOL     OW97108   3.997   1.409   2.739 -0.1939  0.3861 -0.0067
62265SOL    HW197109   3.960   1.496   2.724  0.5046  0.5332 -1.0226
62265SOL    HW297110   4.048   1.391   2.660  0.2717 -0.6385  0.5053
62266SOL     OW97111   9.963   7.608   6.190  0.1383 -0.3139  0.5202
62266SOL    HW197112   9.910   7.589   6.268 -1.5194 -0.2968 -0.5694
62266SOL    HW297113   9.912   7.573   6.117  1.1297  0.6734 -0.6859
62267SOL     OW97114   3.804  11.898   4.061  0.2602  0.3983 -0.2570
62267SOL    HW197115   3.887  11.858   4.088  0.7358  2.0997  0.9702
62267SOL    HW297116   3.740  11.827   4.068  1.1182 -0.2612  1.4881
62268SOL     OW97117  10.940  12.424  11.564 -0.1399 -0.2356 -0.1649
62268SOL    HW197118  10.975  12.336  11.578 -0.3125 -0.1126  1.1043
62268SOL    HW297119  10.848  12.410  11.543 -0.3437 -0.3356  0.7466
62269SOL     OW97120  11.809   2.982   1.400 -0.2853  0.4582  0.2501
62269SOL    HW197121  11.865   3.059   1.386  0.2969  0.1895  1.0443
62269SOL    HW297122  11.720   3.014   1.382 -0.0074  1.2222  0.1961
62270SOL     OW97123  10.859  10.883   0.986  0.1439  0.7519  0.4898
62270SOL    HW197124  10.814  10.865   0.903 -0.0664  1.7689  0.3599
62270SOL    HW297125  10.822  10.821   1.048 -0.6991  0.8927  0.1363
62271SOL     OW97126  12.735   1.056   7.089  0.1171  0.2396  0.1689
62271SOL    HW197127  12.663   1.000   7.118 -0.6590  0.9565 -0.3249
62271SOL    HW297128  12.764   1.017   7.006 -1.1741  1.1585 -0.7642
62272SOL     OW97129  11.205  10.059   7.504  0.3599 -0.1328  0.1409
62272SOL    HW197130  11.246   9.976   7.477 -0.1536 -0.2060 -0.4317
62272SOL    HW297131  11.117  10.056   7.465  0.1287  0.4173  0.6152
62273SOL     OW97132   1.580   6.935  12.140  0.4612 -0.3726  0.0911
62273SOL    HW197133   1.616   6.888  12.064 -0.1132 -2.2098  0.9048
62273SOL    HW297134   1.609   6.884  12.216 -2.8995 -1.4052  0.8409
62274SOL     OW97135   5.669   1.744   1.512 -1.0219 -0.2194 -0.0027
62274SOL    HW197136   5.735   1.698   1.564 -1.1902 -0.1599  0.2635
62274SOL    HW297137   5.594   1.754   1.571 -0.5673  1.4373  0.3425
62275SOL     OW97138   0.232  12.700   4.816 -0.9548  0.2822 -0.3752
62275SOL    HW197139   0.150  12.711   4.767 -1.3784 -0.5720  0.1102
62275SOL    HW297140   0.204  12.678   4.904 -0.2060  2.4871  0.4858
62276SOL     OW97141   8.938  12.656   3.001 -0.1375  0.3257 -0.6046
62276SOL    HW197142   9.000  12.721   2.967  1.4072 -0.6997  0.1612
62276SOL    HW297143   8.972  12.572   2.969 -0.7809 -0.3041  0.3423
62277SOL     OW97144   5.742   4.861   7.138 -0.4321 -0.8179 -0.4671
62277SOL    HW197145   5.728   4.770   7.164  0.7891 -0.9447 -0.1866
62277SOL    HW297146   5.834   4.866   7.114 -0.3599  0.4524 -0.0348
62278SOL     OW97147  11.294  10.409  10.992  0.1827 -0.4418  0.7701
62278SOL    HW197148  11.208  10.420  10.952  0.4838  1.8186  0.6310
62278SOL    HW297149  11.349  10.474  10.948  1.4632 -0.4786  2.2345
62279SOL     OW97150   5.335   0.173   2.088  0.3537 -0.0098  0.2261
62279SOL    HW197151   5.241   0.154   2.093 -0.0325  1.9995  2.4755
62279SOL    HW297152   5.344   0.225   2.009 -0.8714  1.6330  1.1061
62280SOL     OW97153   8.765   6.336   6.009 -0.4105 -0.3008 -0.3342
62280SOL    HW197154   8.826   6.312   6.078 -0.7424  0.1244  0.1221
62280SOL    HW297155   8.698   6.389   6.054 -0.8870 -0.4180 -0.8941
62281SOL     OW97156  10.508   3.764   4.839 -0.2330 -0.1128  0.0073
62281SOL    HW197157  10.447   3.741   4.768  0.8747 -0.4366 -0.8662
62281SOL    HW297158  10.532   3.681   4.878 -0.6823  0.0518  0.6528
62282SOL     OW97159   1.369   6.936   4.318 -0.5995 -0.1221 -0.0048
62282SOL    HW197160   1.297   6.874   4.307  0.7791 -1.5852 -1.0398
62282SOL    HW297161   1.364   6.993   4.241 -0.5675 -0.2927 -0.1318
62283SOL     OW97162   6.195   6.526   6.545 -0.1452 -0.1412  0.3107
62283SOL    HW197163   6.242   6.559   6.621  0.4654 -0.5392  0.1102
62283SOL    HW297164   6.136   6.597   6.521  1.5295  1.0703 -0.4526
62284SOL     OW97165  10.090   4.828   3.303 -0.7128 -0.3445  0.7482
62284SOL    HW197166  10.140   4.751   3.329 -0.4215 -0.4904 -0.2094
62284SOL    HW297167  10.043   4.802   3.224  1.4480  1.1752 -1.1856
62285SOL     OW97168   7.035   8.642   8.666 -0.3708  0.2760  0.2990
62285SOL    HW197169   7.015   8.716   8.608  0.2975 -0.6013 -1.1049
62285SOL    HW297170   7.130   8.639   8.669 -0.3902  0.3841  1.5869
62286SOL     OW97171   4.115   0.502   2.168 -0.9679 -0.1490 -0.6282
62286SOL    HW197172   4.023   0.521   2.184 -1.1593 -2.4332  1.6638
62286SOL    HW297173   4.114   0.416   2.125  0.0475 -1.5837  1.9743
62287SOL     OW97174   5.984  11.531   6.896  0.6560 -0.1290  0.0775
62287SOL    HW197175   5.926  11.459   6.872 -1.7995  1.5320  0.5839
62287SOL    HW297176   6.006  11.573   6.813 -0.4126  0.3014 -0.0028
62288SOL     OW97177   1.311   2.306   2.505  0.6224  0.4482 -0.1251
62288SOL    HW197178   1.241   2.247   2.479 -0.3880  1.6986 -0.3665
62288SOL    HW297179   1.392   2.261   2.479 -0.1136 -0.6933 -0.5210
62289SOL     OW97180  12.295   3.824   2.982  0.4546 -0.2250  0.0120
62289SOL    HW197181  12.258   3.784   2.903  1.6827 -1.8160  0.1798
62289SOL    HW297182  12.258   3.773   3.054  2.4602 -1.5274  0.2075
62290SOL     OW97183   7.061  10.800  12.251  0.1426  0.0830  0.5616
62290SOL    HW197184   7.072  10.885  12.210 -0.9043 -1.0536 -2.3421
62290SOL    HW297185   6.970  10.799  12.281 -0.1477 -0.3319 -0.3031
62291SOL     OW97186  11.121   0.166   6.033 -0.0189  0.0513 -0.5701
62291SOL    HW197187  11.195   0.156   6.093 -1.2180 -1.8306  0.6909
62291SOL    HW297188  11.141   0.247   5.985  2.2666  0.2303  0.5123
62292SOL     OW97189   4.058  11.306   0.612  0.7074  0.2626  0.5838
62292SOL    HW197190   3.991  11.296   0.680  1.6253  0.6403  1.5723
62292SOL    HW297191   4.035  11.388   0.568 -1.1282 -1.0062 -1.0399
62293SOL     OW97192   1.274   4.568   5.287 -0.2311 -0.0644 -0.3208
62293SOL    HW197193   1.358   4.614   5.289 -0.2858  0.0000  0.8685
62293SOL    HW297194   1.231   4.601   5.208  0.9709 -0.3211 -1.1308
62294SOL     OW97195   3.942   6.760   8.810 -0.4180 -0.2405  0.0709
62294SOL    HW197196   4.030   6.797   8.801 -0.5877  0.4693  1.0841
62294SOL    HW297197   3.943   6.682   8.754  0.4387  0.4569 -0.9365
62295SOL     OW97198   6.824   9.906  11.810  0.3253 -0.3503 -0.4941
62295SOL    HW197199   6.782   9.825  11.783  0.2325 -0.1141 -1.0674
62295SOL    HW297200   6.900   9.914  11.752  1.1777 -0.7724  0.5241
62296SOL     OW97201   6.498   1.588  11.212  0.1427 -0.4053 -0.0611
62296SOL    HW197202   6.453   1.640  11.278  1.4476  0.5176  0.1359
62296SOL    HW297203   6.503   1.500  11.249  0.2999 -0.0422  0.7963
62297SOL     OW97204   4.189  10.468   1.813 -0.6097  0.2756 -0.5587
62297SOL    HW197205   4.181  10.376   1.840 -0.6067  0.4884  0.1754
62297SOL    HW297206   4.156  10.518   1.887 -0.3468  0.8814 -0.8447
62298SOL     OW97207   6.493  10.183   4.973 -0.5065 -0.2393  0.0026
62298SOL    HW197208   6.582  10.184   5.008 -0.6585  0.6558  0.3732
62298SOL    HW297209   6.465  10.274   4.973 -1.2926 -0.4646 -0.4654
62299SOL     OW97210   6.388   8.872   1.052 -0.1285 -0.1839  0.2288
62299SOL    HW197211   6.301   8.901   1.080 -0.0975 -1.3574  1.6475
62299SOL    HW297212   6.380   8.777   1.042  1.2030 -0.4486  1.3331
62300SOL     OW97213   1.733  11.996   4.501 -0.3387  0.1538 -0.1535
62300SOL    HW197214   1.734  11.910   4.543  1.7980  0.7596  1.1580
62300SOL    HW297215   1.780  11.983   4.419 -0.4470 -0.0202 -0.1902
62301SOL     OW97216  12.698  10.696  10.116  0.1964 -0.2206 -0.1614
62301SOL    HW197217  12.649  10.726  10.040 -0.8531 -1.3995  0.0348
62301SOL    HW297218  12.764  10.636  10.080  0.5872  0.2561 -0.2637
62302SOL     OW97219   1.271   8.008   9.496  0.0538 -0.0024  0.4764
62302SOL    HW197220   1.220   7.947   9.442 -1.0707  0.1894  1.2843
62302SOL    HW297221   1.328   7.951   9.548  2.4666 -0.1267 -2.1066
62303SOL     OW97222  10.433   8.695   8.356  0.0180  0.2765  0.4593
62303SOL    HW197223  10.432   8.599   8.354  0.4977  0.1970  2.1062
62303SOL    HW297224  10.348   8.719   8.393  0.0278  0.4703  0.3523
62304SOL     OW97225   7.234  11.004   5.554  0.6210 -0.1670  0.7302
62304SOL    HW197226   7.158  10.955   5.586  0.4721  0.2902  1.0884
62304SOL    HW297227   7.199  11.088   5.526  0.5343 -1.0125 -1.9433
62305SOL     OW97228  11.027   4.675  10.661  0.2123  0.4945 -0.1605
62305SOL    HW197229  10.957   4.629  10.707 -0.5029  1.3206 -0.4077
62305SOL    HW297230  10.996   4.681  10.571  0.7890  0.5218 -0.3664
62306SOL     OW97231   9.707   6.300   9.226 -0.2609 -0.4894  0.3905
62306SOL    HW197232   9.728   6.285   9.133  2.6204  0.6952  0.7356
62306SOL    HW297233   9.704   6.396   9.234 -0.3364 -0.5789  1.5359
62307SOL     OW97234   8.384  11.869   8.862  0.0596 -0.1270  0.1917
62307SOL    HW197235   8.335  11.912   8.933 -1.8549  0.7637 -1.5433
62307SOL    HW297236   8.469  11.912   8.863 -0.6224  1.2868  0.7098
62308SOL     OW97237  10.187  12.264   5.095 -0.3943  0.3945 -0.8799
62308SOL    HW197238  10.153  12.181   5.063  1.4082 -0.6714 -0.2092
62308SOL    HW297239  10.177  12.259   5.190  1.2674  0.1614 -0.6863
62309SOL     OW97240   2.943  12.826   4.063 -0.3486 -0.2613 -0.5809
62309SOL    HW197241   2.904  12.912   4.047 -0.1233 -0.0819 -0.1508
62309SOL    HW297242   2.868  12.768   4.078 -0.4970 -0.1364 -0.8271
62310SOL     OW97243   7.080  10.100   1.392  1.3713  0.1669  0.3561
62310SOL    HW197244   7.104  10.178   1.343  0.8607  0.1997  0.1539
62310SOL    HW297245   7.042  10.041   1.328 -2.2136  1.4111  1.1200
62311SOL     OW97246  11.720   1.825   2.050 -0.3238 -0.0784  0.1793
62311SOL    HW197247  11.649   1.762   2.034 -1.8892  1.6039  0.2204
62311SOL    HW297248  11.735   1.820   2.144 -1.1691  0.3210  0.3460
62312SOL     OW97249   9.236  10.490  11.942 -0.0637  0.2567 -0.4262
62312SOL    HW197250   9.239  10.444  11.858  1.7755 -0.0575 -0.2444
62312SOL    HW297251   9.147  10.476  11.974 -0.4078 -0.7319 -1.7141
62313SOL     OW97252   9.698   6.516   1.623  0.2314 -0.2125 -0.4075
62313SOL    HW197253   9.785   6.488   1.651 -0.3074 -1.6306 -0.0460
62313SOL    HW297254   9.638   6.464   1.677 -0.8842  1.9874  0.6137
62314SOL     OW97255   6.417   8.965   4.077  0.2146 -0.2309 -0.6953
62314SOL    HW197256   6.322   8.963   4.089  0.3988 -0.2321  1.1442
62314SOL    HW297257   6.443   9.050   4.112  0.9243 -0.3647 -0.8839
62315SOL     OW97258   4.151   0.657   5.503  0.3858  0.5473 -0.1427
62315SOL    HW197259   4.224   0.717   5.485  0.6353 -0.1396 -1.6032
62315SOL    HW297260   4.159   0.589   5.436  0.1002 -1.1351  1.4341
62316SOL     OW97261   0.994   2.827   5.617  0.1991 -0.1512  0.2600
62316SOL    HW197262   0.930   2.799   5.683 -1.1546  1.3422 -0.3692
62316SOL    HW297263   0.962   2.912   5.587 -0.7049 -1.7558 -4.1072
62317SOL     OW97264  11.432   7.127  12.790 -0.6391  0.4837 -0.2784
62317SOL    HW197265  11.428   7.218  12.763 -0.4602  0.6497  0.2310
62317SOL    HW297266  11.489   7.128  12.867  1.1791 -0.3611 -1.5294
62318SOL     OW97267   5.478   9.962   5.131  0.5501  0.3092  0.0267
62318SOL    HW197268   5.561   9.951   5.177  1.3364  1.4651 -1.0432
62318SOL    HW297269   5.490   9.915   5.049  0.1879  0.5690 -0.1783
62319SOL     OW97270   4.395   8.162   2.752  0.5623  0.9431  0.5595
62319SOL    HW197271   4.414   8.088   2.809 -1.8836  0.4466  0.8531
62319SOL    HW297272   4.459   8.155   2.681  2.6969  0.7113  2.4164
62320SOL     OW97273   7.946  10.866   1.622 -0.1065 -0.1465  0.2411
62320SOL    HW197274   7.864  10.873   1.672  0.2074  0.5800  0.6692
62320SOL    HW297275   8.004  10.817   1.680 -0.4697 -1.3899 -0.3921
62321SOL     OW97276   3.286   3.348   2.423  0.2441 -0.1583  0.1456
62321SOL    HW197277   3.350   3.323   2.490  2.3822  0.6231 -1.5078
62321SOL    HW297278   3.207   3.297   2.445  1.1432 -0.6070  2.6875
62322SOL     OW97279   7.670   5.039   3.126 -0.1821  0.5072 -0.0550
62322SOL    HW197280   7.677   4.945   3.141 -2.8918  0.3610  0.8454
62322SOL    HW297281   7.676   5.078   3.214  1.0770  1.2187 -0.4321
62323SOL     OW97282  10.101   8.695  10.373 -0.1424 -0.2346  0.1418
62323SOL    HW197283  10.120   8.787  10.354  0.3465 -0.1282  1.0796
62323SOL    HW297284  10.164   8.646  10.320 -0.8086 -0.0647 -0.8320
62324SOL     OW97285   3.343   6.868   9.437  0.4306  0.2758 -0.0759
62324SOL    HW197286   3.416   6.922   9.407 -0.4462  0.1446 -2.6746
62324SOL    HW297287   3.357   6.783   9.396 -0.5262 -0.1311  0.3978
62325SOL     OW97288  11.567   7.667   3.940  0.6555 -0.2165  0.2931
62325SOL    HW197289  11.599   7.679   4.029 -0.6636  0.5803  0.6952
62325SOL    HW297290  11.493   7.727   3.933 -0.0488 -1.1750 -0.9399
62326SOL     OW97291   4.693  12.183   3.903 -0.3078  0.5715 -0.3453
62326SOL    HW197292   4.616  12.129   3.923  0.6940 -0.5577  0.5582
62326SOL    HW297293   4.670  12.226   3.820 -1.8106  0.0730 -0.2304
62327SOL     OW97294  12.619   0.042   2.384  0.0323 -0.3394  0.0773
62327SOL    HW197295  12.628   0.030   2.289  0.8547 -1.0921  0.2440
62327SOL    HW297296  12.601  -0.046   2.418  1.9640 -0.4853  0.8495
62328SOL     OW97297  12.579   7.543   2.069 -0.1054 -0.2562 -0.1667
62328SOL    HW197298  12.487   7.528   2.092  0.4240 -2.9200  0.5008
62328SOL    HW297299  12.621   7.563   2.153 -0.0915  1.4430 -0.5342
62329SOL     OW97300  12.426   9.644   5.618  0.7124  0.3419 -0.3750
62329SOL    HW197301  12.364   9.572   5.626 -0.0176  0.9707 -0.3091
62329SOL    HW297302  12.483   9.636   5.694 -0.1167  0.5294  0.2831
62330SOL     OW97303   9.565   7.288   1.578 -0.1167 -0.2711 -0.3520
62330SOL    HW197304   9.607   7.225   1.636  1.6241 -0.3338 -1.6123
62330SOL    HW297305   9.617   7.286   1.498 -0.4242  2.2394 -0.7089
62331SOL     OW97306   4.595   7.338   9.021  0.4369  0.1745 -0.2245
62331SOL    HW197307   4.653   7.316   9.094 -1.0705 -1.1227  0.6276
62331SOL    HW297308   4.630   7.287   8.947  0.7362 -0.1390  0.1280
62332SOL     OW97309   6.999   5.523   4.655 -0.2659  0.4325  0.1519
62332SOL    HW197310   6.978   5.570   4.575  0.7216  0.7223  0.0483
62332SOL    HW297311   6.937   5.557   4.720 -0.0820  1.3079 -0.1165
62333SOL     OW97312   5.040   4.695   4.731  0.7310 -0.5902 -0.5824
62333SOL    HW197313   5.045   4.788   4.754  1.4501 -0.9182  0.7157
62333SOL    HW297314   5.088   4.688   4.649 -1.9035  0.6386 -2.3860
62334SOL     OW97315   5.313   3.925   2.954 -0.3134 -0.2540  0.2480
62334SOL    HW197316   5.367   3.855   2.991  0.2832 -0.9069 -1.7297
62334SOL    HW297317   5.344   4.005   2.996  0.4640 -0.9239  0.9772
62335SOL     OW97318  10.831   8.417   4.624 -0.3806  0.6324 -0.0903
62335SOL    HW197319  10.753   8.470   4.608  0.1170  1.2080 -0.6526
62335SOL    HW297320  10.878   8.463   4.694 -0.3919  0.4485  0.0402
62336SOL     OW97321   2.717   0.846  11.803 -0.3162  0.4259 -0.2358
62336SOL    HW197322   2.766   0.766  11.821  0.8968  1.0612 -0.5994
62336SOL    HW297323   2.664   0.825  11.727 -2.1454 -0.8906  1.3244
62337SOL     OW97324  11.452   6.163   5.126 -0.1477  0.0029 -0.6704
62337SOL    HW197325  11.457   6.131   5.035 -1.0419 -1.1280 -0.3536
62337SOL    HW297326  11.358   6.165   5.144  0.0042  0.7192  0.0716
62338SOL     OW97327   5.638   6.304   9.884 -0.8978 -0.0004  0.0345
62338SOL    HW197328   5.619   6.240   9.815 -0.1347 -1.0204  0.7461
62338SOL    HW297329   5.681   6.376   9.838  0.2801 -0.9921 -0.4726
62339SOL     OW97330   1.690  11.483   3.969  0.2829  0.4742 -0.0864
62339SOL    HW197331   1.665  11.555   3.911 -0.1260 -0.2719 -0.8793
62339SOL    HW297332   1.608  11.457   4.011 -0.4301 -1.9899 -2.6999
62340SOL     OW97333  11.570   7.907  10.635  0.0325 -0.0805  0.0589
62340SOL    HW197334  11.583   7.818  10.601  0.0867 -0.0764  0.0682
62340SOL    HW297335  11.492   7.900  10.690 -0.5535  0.0994 -0.7286
62341SOL     OW97336  12.163   6.095   7.503  0.2895  0.1282  0.1754
62341SOL    HW197337  12.117   6.175   7.527  0.3531  0.4063 -0.6159
62341SOL    HW297338  12.154   6.039   7.580 -0.7520  0.4512  0.3077
62342SOL     OW97339   2.794   5.874   3.885  0.2674  0.2483  0.1680
62342SOL    HW197340   2.762   5.965   3.888 -1.1621 -0.2492  2.0442
62342SOL    HW297341   2.881   5.877   3.925  0.6919  0.9258 -0.7665
62343SOL     OW97342   8.102   0.374   5.212 -0.0305  0.3952 -0.3280
62343SOL    HW197343   8.148   0.454   5.188  0.4589  0.1487 -0.2363
62343SOL    HW297344   8.058   0.395   5.294 -1.4017  1.1247 -1.2227
62344SOL     OW97345   2.393   1.308   7.266  0.5096  0.4690 -0.8717
62344SOL    HW197346   2.339   1.375   7.224  0.4158 -0.1083 -1.7061
62344SOL    HW297347   2.372   1.315   7.359  1.0184  2.0451 -0.8465
62345SOL     OW97348   6.528   3.012   2.495  0.3084 -0.0948 -0.0322
62345SOL    HW197349   6.559   2.926   2.525  0.3421 -0.0204  0.1503
62345SOL    HW297350   6.546   3.012   2.401 -1.1707 -0.9193 -0.3512
62346SOL     OW97351   5.733   7.514   6.003  0.1615 -0.3348 -0.4989
62346SOL    HW197352   5.675   7.562   6.062  1.3471  1.8449 -1.0047
62346SOL    HW297353   5.809   7.492   6.057 -0.5004 -1.9775 -0.1927
62347SOL     OW97354   8.669   8.372   0.784 -0.0656  0.5424 -0.2370
62347SOL    HW197355   8.606   8.444   0.781  1.4367  1.8901 -0.8193
62347SOL    HW297356   8.679   8.345   0.693 -0.8856 -0.6847  0.0149
62348SOL     OW97357   0.339   2.441   8.647  0.3902 -0.2107 -0.8609
62348SOL    HW197358   0.287   2.383   8.592  0.2214  1.0525 -2.0824
62348SOL    HW297359   0.315   2.529   8.619  0.5311  0.4916  1.0334
62349SOL     OW97360   5.633   6.832   2.460  0.0959  0.0704 -0.0170
62349SOL    HW197361   5.678   6.879   2.530  1.9004 -0.3269 -0.8285
62349SOL    HW297362   5.687   6.848   2.382 -1.4260 -0.1179 -1.1616
62350SOL     OW97363   1.888  10.080   2.096  0.2860 -0.3707  0.3529
62350SOL    HW197364   1.865  10.017   2.164  1.1650 -0.0988  0.9221
62350SOL    HW297365   1.960  10.038   2.048  2.0224  0.8310  1.7777
62351SOL     OW97366   2.118   9.773   2.629  0.1058 -0.2729 -0.1743
62351SOL    HW197367   2.167   9.691   2.628 -0.2096 -0.4674 -1.5875
62351SOL    HW297368   2.072   9.773   2.713  1.7456 -0.5350  0.7546
62352SOL     OW97369   5.676  12.786   3.334  0.1511  0.4337  0.4168
62352SOL    HW197370   5.692  12.839   3.256  1.2074  0.5638  0.6993
62352SOL    HW297371   5.585  12.758   3.327 -0.2824  1.8982  0.0245
62353SOL     OW97372   9.168   7.144   0.208 -0.2296  0.1054 -0.7613
62353SOL    HW197373   9.102   7.203   0.171  0.3257  0.0620 -1.8783
62353SOL    HW297374   9.139   7.056   0.181  0.0010  0.0444 -0.8088
62354SOL     OW97375   1.973  12.880   5.755  0.0894  0.3130  0.8039
62354SOL    HW197376   2.027  12.802   5.767 -1.0052 -0.5256  0.4914
62354SOL    HW297377   2.036  12.951   5.743  1.1210 -0.2559  2.5805
62355SOL     OW97378   4.143   9.072   7.297 -0.0425  0.2439  0.1536
62355SOL    HW197379   4.220   9.082   7.352 -1.0206 -2.1483  2.1454
62355SOL    HW297380   4.174   9.027   7.219  1.1692  2.7230 -0.9219
62356SOL     OW97381   0.806  12.106   1.304  0.0257 -0.1368  0.0242
62356SOL    HW197382   0.859  12.185   1.290  0.1905 -0.5895 -2.2783
62356SOL    HW297383   0.744  12.131   1.372  0.1360  1.9586 -0.5731
62357SOL     OW97384   4.069   5.907  10.105  0.0748  0.5226 -0.3163
62357SOL    HW197385   4.032   5.895  10.192  1.5848 -0.6651  0.2070
62357SOL    HW297386   4.120   5.987  10.112  0.1150  0.4820 -0.1399
62358SOL     OW97387   3.629   5.302   5.551 -0.3960  0.9454  0.1159
62358SOL    HW197388   3.718   5.304   5.517 -0.5597 -1.6573 -0.6938
62358SOL    HW297389   3.612   5.209   5.569 -2.9212  1.3582  0.2835
62359SOL     OW97390   5.178   6.827   1.294 -0.4940 -0.3968  0.3363
62359SOL    HW197391   5.139   6.831   1.381 -0.5605 -1.4193  0.3594
62359SOL    HW297392   5.155   6.911   1.254 -1.1270 -0.2337  1.0203
62360SOL     OW97393   1.792   1.985  12.221  0.3702  0.3019  0.2568
62360SOL    HW197394   1.861   1.966  12.284  0.7274  0.9752  0.0805
62360SOL    HW297395   1.838   2.015  12.143 -0.0523 -0.8509 -0.4644
62361SOL     OW97396   2.168  12.136   4.367  0.2204 -0.4553  0.3271
62361SOL    HW197397   2.160  12.042   4.351  0.3323 -0.4452  0.2111
62361SOL    HW297398   2.254  12.145   4.408 -0.0672 -0.4820  0.9514
62362SOL     OW97399   8.927   8.043   8.400 -0.0797 -0.2476 -0.1192
62362SOL    HW197400   8.961   7.959   8.430  0.7529 -0.4588 -1.5758
62362SOL    HW297401   8.833   8.040   8.420  0.0051 -1.3945  0.1230
62363SOL     OW97402  12.667  11.998   2.356 -0.0611 -0.2498 -0.3854
62363SOL    HW197403  12.742  12.035   2.404  1.1837 -2.6509 -0.3132
62363SOL    HW297404  12.632  11.931   2.415  1.0543 -2.7705 -2.3979
62364SOL     OW97405   7.686   0.832   4.088  0.5200  0.1234  0.3602
62364SOL    HW197406   7.743   0.841   4.164  0.6302 -0.5356  0.3638
62364SOL    HW297407   7.743   0.800   4.019  0.2074 -0.3133  0.2991
62365SOL     OW97408  11.779   8.253   1.932 -0.0465 -0.0140 -0.1034
62365SOL    HW197409  11.755   8.160   1.930  0.8991 -0.3500  1.5728
62365SOL    HW297410  11.752   8.287   1.847 -1.9597 -1.4281 -0.1319
62366SOL     OW97411   9.164   7.368   2.275  0.6579  0.1987  0.4004
62366SOL    HW197412   9.232   7.355   2.209 -0.0447  0.5594 -0.3982
62366SOL    HW297413   9.095   7.416   2.231  0.3628  0.8459  1.5242
62367SOL     OW97414   2.079   2.514   2.818 -0.0813 -0.3022 -0.3345
62367SOL    HW197415   2.000   2.524   2.765 -0.0847  1.6922 -0.0166
62367SOL    HW297416   2.129   2.594   2.803  1.1467 -0.8305  0.7037
62368SOL     OW97417   6.078   4.022   1.654  0.2918 -0.2330  0.0427
62368SOL    HW197418   6.007   4.086   1.658  0.1630 -0.3089 -0.8443
62368SOL    HW297419   6.061   3.972   1.574  0.9557 -0.7161  0.1937
62369SOL     OW97420   6.448  12.247   3.443  0.1702 -0.1171 -0.7949
62369SOL    HW197421   6.517  12.182   3.428  2.2470  1.3611  1.5217
62369SOL    HW297422   6.490  12.331   3.424 -0.1051  1.0278  2.8783
62370SOL     OW97423  11.804   9.262  10.976 -1.0334  0.3630 -0.0446
62370SOL    HW197424  11.750   9.240  11.052 -2.3756  2.5221 -0.2605
62370SOL    HW297425  11.789   9.356  10.963  1.5241  0.6881 -1.1745
62371SOL     OW97426   3.577   4.468   5.081  0.2563  0.7710 -0.1528
62371SOL    HW197427   3.601   4.401   5.017 -0.2101  1.6883 -1.3354
62371SOL    HW297428   3.655   4.478   5.136  0.0626 -1.2598  0.5501
62372SOL     OW97429   4.070  12.348   0.432 -0.6217 -0.4352 -0.6753
62372SOL    HW197430   4.073  12.406   0.355  1.0903 -0.5987 -0.7837
62372SOL    HW297431   3.999  12.383   0.486  0.0029  1.4520 -1.0012
62373SOL     OW97432  11.515   4.965   6.485 -0.3958 -0.1374  0.3500
62373SOL    HW197433  11.462   5.034   6.526 -0.2180  0.0605  0.2519
62373SOL    HW297434  11.488   4.967   6.393  0.6183  0.7732  0.0508
62374SOL     OW97435   7.433   1.790   5.128  0.2693 -0.2715 -0.0723
62374SOL    HW197436   7.452   1.767   5.036  2.1661 -1.7081  0.6066
62374SOL    HW297437   7.379   1.718   5.160 -1.2196  0.7116 -0.2793
62375SOL     OW97438   3.775   4.904  12.197 -0.2642 -0.2901  0.4089
62375SOL    HW197439   3.728   4.830  12.159 -1.6655  0.3573  0.8008
62375SOL    HW297440   3.727   4.981  12.166 -0.0483  0.3501  1.6104
62376SOL     OW97441  10.019   7.963   3.250  0.1355  0.0861 -0.5833
62376SOL    HW197442  10.109   7.965   3.283 -0.1473  0.5932  0.1674
62376SOL    HW297443   9.982   8.047   3.276  0.0020  0.6905 -2.5091
62377SOL     OW97444   4.728   6.582   9.504 -0.2024  0.0750 -0.3482
62377SOL    HW197445   4.693   6.544   9.423 -0.7960 -0.7362  0.2676
62377SOL    HW297446   4.749   6.672   9.481 -1.4640  0.2046 -1.1087
62378SOL     OW97447   0.062  11.250   1.232  0.0540 -0.4029 -0.6673
62378SOL    HW197448   0.110  11.315   1.181  0.0761 -0.7952 -1.1502
62378SOL    HW297449   0.101  11.166   1.208  2.6188 -0.4025  2.7038
62379SOL     OW97450  10.568   1.374  10.019  0.3390  0.5887 -0.8429
62379SOL    HW197451  10.614   1.293  10.042 -1.0755 -0.2692 -0.9500
62379SOL    HW297452  10.486   1.369  10.067 -0.1844  1.5036 -1.6234
62380SOL     OW97453  10.888   4.141  10.647  0.3735  0.4085  0.3723
62380SOL    HW197454  10.924   4.160  10.734  1.0433 -3.0142  0.9861
62380SOL    HW297455  10.828   4.068  10.661  1.0401 -0.7263 -2.1083
62381SOL     OW97456   6.826  12.047   6.406 -0.0142  0.0445  0.0943
62381SOL    HW197457   6.735  12.017   6.407  0.3076 -0.9677  0.5770
62381SOL    HW297458   6.854  12.041   6.498  0.7490 -0.3468 -0.1546
62382SOL     OW97459  11.138   9.264   2.029 -0.0735 -0.4487  0.0746
62382SOL    HW197460  11.228   9.234   2.013 -0.0305 -0.2960  0.0342
62382SOL    HW297461  11.084   9.187   2.011  0.1268 -0.8311  1.0282
62383SOL     OW97462   1.663   0.466   2.548  0.3826  0.2124  0.5920
62383SOL    HW197463   1.718   0.516   2.487 -0.4236  0.9878  0.4912
62383SOL    HW297464   1.700   0.485   2.634  0.3489  0.6515  0.5143
62384SOL     OW97465   3.786   0.248   5.890 -0.2121 -0.0862 -0.0342
62384SOL    HW197466   3.872   0.221   5.922 -0.6118 -0.3418  0.8384
62384SOL    HW297467   3.802   0.276   5.800  0.6589 -0.7947 -0.1106
62385SOL     OW97468  11.850   8.960   3.656  0.7916  0.0393  0.1160
62385SOL    HW197469  11.809   8.912   3.727 -1.2415  1.3027 -0.1187
62385SOL    HW297470  11.817   9.050   3.666  2.7021  0.8943 -0.7565
62386SOL     OW97471   0.815   7.961  12.889 -0.3530 -0.3307 -0.0448
62386SOL    HW197472   0.855   8.047  12.900 -1.4392  0.2767 -0.6857
62386SOL    HW297473   0.887   7.899  12.901  0.2421  0.6079  1.4709
62387SOL     OW97474   9.540   9.024   6.901  0.0506 -0.0771  0.2938
62387SOL    HW197475   9.566   9.039   6.810 -0.8239 -0.8801 -0.1011
62387SOL    HW297476   9.461   9.077   6.913  0.4624  0.4571  0.7698
62388SOL     OW97477   4.760   4.163   1.913 -0.7392 -0.3686 -0.5505
62388SOL    HW197478   4.733   4.073   1.934 -0.7760 -0.8130 -2.3459
62388SOL    HW297479   4.835   4.152   1.855 -0.2456  0.7954 -0.1556
62389SOL     OW97480  11.496   5.968  12.445 -0.1130 -0.2834  0.2983
62389SOL    HW197481  11.583   5.988  12.409 -0.4092 -1.6783 -1.3003
62389SOL    HW297482  11.448   6.050  12.438  0.4293 -0.0402 -0.8265
62390SOL     OW97483   1.669  11.353  12.766 -0.1494  0.3128  0.3798
62390SOL    HW197484   1.658  11.423  12.832 -0.3807 -1.3696  2.2218
62390SOL    HW297485   1.589  11.302  12.772  1.1836 -1.8015  1.2307
62391SOL     OW97486  12.044  11.088   2.208  0.5506  0.2099 -0.1225
62391SOL    HW197487  12.069  11.033   2.135 -1.3524  1.3615 -1.7456
62391SOL    HW297488  12.127  11.113   2.249  1.5165 -2.7076 -0.1094
62392SOL     OW97489   4.756   6.395   1.943  0.1530 -0.9678  0.0933
62392SOL    HW197490   4.790   6.426   2.027  0.7456 -0.9535 -0.1478
62392SOL    HW297491   4.805   6.315   1.925  3.0842  1.1475 -2.2101
62393SOL     OW97492   1.523  11.972   2.490 -0.0095 -0.0273 -0.2878
62393SOL    HW197493   1.532  12.039   2.422 -0.7960 -0.7148 -1.0982
62393SOL    HW297494   1.598  11.914   2.475  0.8450  0.8120  0.6082
62394SOL     OW97495   7.566   0.790   9.171 -0.3038  0.6544 -0.4002
62394SOL    HW197496   7.621   0.846   9.226  0.3147 -0.0238 -0.3245
62394SOL    HW297497   7.538   0.847   9.099 -1.5334  1.7098  0.8398
62395SOL     OW97498   1.923   4.700   6.270  0.0875  0.0606 -0.4484
62395SOL    HW197499   2.005   4.677   6.313 -0.3885 -2.3358 -0.6767
62395SOL    HW297500   1.862   4.715   6.342 -0.1364 -1.7083 -0.2264
62396SOL     OW97501   8.574  11.472   7.817 -0.6530 -0.0764  0.3131
62396SOL    HW197502   8.533  11.386   7.817  0.8363 -0.8128  0.4986
62396SOL    HW297503   8.657  11.460   7.771 -0.4499  1.2724  0.2769
62397SOL     OW97504   7.313   7.537   5.608  0.0609  0.0446 -0.6440
62397SOL    HW197505   7.371   7.596   5.656 -1.0941 -0.0474  0.9462
62397SOL    HW297506   7.293   7.584   5.527  1.2976  0.6343 -0.6371
62398SOL     OW97507   2.380   6.209   0.959  0.3469  0.0813  0.3953
62398SOL    HW197508   2.314   6.251   1.014  1.0388  1.7157  0.0672
62398SOL    HW297509   2.434   6.158   1.020 -0.3470 -0.0882  0.8715
62399SOL     OW97510   3.993  10.220   6.396  0.0371 -0.2777 -0.5659
62399SOL    HW197511   3.956  10.300   6.435  1.1089  0.2947 -0.6693
62399SOL    HW297512   4.084  10.244   6.376  0.6594 -1.8420  0.2927
62400SOL     OW97513  12.157  10.428   2.069 -0.2678  0.3263  0.3167
62400SOL    HW197514  12.066  10.433   2.041 -0.5145 -0.3113  0.9557
62400SOL    HW297515  12.152  10.409   2.163  0.5181  0.2225  0.3451
62401SOL     OW97516   7.955   9.003   4.170  0.3532  0.3419  0.3257
62401SOL    HW197517   7.950   8.945   4.246 -1.7909 -1.0984 -0.8081
62401SOL    HW297518   8.046   8.995   4.140  0.5498 -1.1266  1.2160
62402SOL     OW97519   9.212   8.613   0.395 -0.5630 -0.5011 -0.1132
62402SOL    HW197520   9.278   8.575   0.338 -1.1691 -2.5005  0.4364
62402SOL    HW297521   9.241   8.703   0.410 -0.0288 -0.1275 -2.9465
62403SOL     OW97522   0.867   8.833   4.065  0.3510 -0.1613 -0.1623
62403SOL    HW197523   0.879   8.869   3.978 -1.4168 -0.3318 -0.5122
62403SOL    HW297524   0.949   8.850   4.110  1.1255  0.3242 -1.7127
62404SOL     OW97525   7.164   5.179   7.524  0.0513 -0.3133  0.2081
62404SOL    HW197526   7.187   5.115   7.591 -0.5275  0.4878  1.2149
62404SOL    HW297527   7.222   5.253   7.542 -0.2665 -0.0050 -0.0329
62405SOL     OW97528   7.628   6.214   0.608 -0.1932  0.1465  0.2653
62405SOL    HW197529   7.615   6.301   0.571 -0.8428 -0.3518 -0.7025
62405SOL    HW297530   7.604   6.153   0.538 -0.7595 -0.8204  1.2546
62406SOL     OW97531   9.141   3.550   8.821 -0.0064  0.1279  0.0851
62406SOL    HW197532   9.137   3.485   8.751 -1.1525  0.0404  0.2189
62406SOL    HW297533   9.136   3.498   8.902 -0.0214  0.3179  0.2062
62407SOL     OW97534   0.883  10.567   9.967 -0.2778  0.4615  0.3471
62407SOL    HW197535   0.950  10.587   9.902 -0.9869 -0.4462 -0.6895
62407SOL    HW297536   0.926  10.505  10.027 -0.5389 -1.2065 -1.0935
62408SOL     OW97537  11.468  12.152  11.177  0.1350 -0.5135  0.5442
62408SOL    HW197538  11.391  12.162  11.120  0.7386  0.6753 -0.1084
62408SOL    HW297539  11.515  12.077  11.140  0.4257  0.1311 -0.4681
62409SOL     OW97540   0.727   3.306   0.135  0.0654 -0.2391  0.0143
62409SOL    HW197541   0.739   3.213   0.153 -0.4384 -0.3204 -0.0764
62409SOL    HW297542   0.812   3.335   0.101  0.1469 -0.7161 -0.1918
62410SOL     OW97543  12.247  10.224  10.363  0.2426  0.0107 -0.1343
62410SOL    HW197544  12.288  10.169  10.297 -0.9233 -1.1079  0.0238
62410SOL    HW297545  12.154  10.199  10.361 -0.0371  0.8538  1.0422
62411SOL     OW97546   1.674  12.808   2.484  0.2050 -0.7396 -0.1388
62411SOL    HW197547   1.667  12.712   2.486  1.6968 -0.8808  0.1589
62411SOL    HW297548   1.749  12.826   2.541 -1.5007  0.7845  1.7455
62412SOL     OW97549  11.576   5.576   2.427  1.1903 -0.0790  0.2716
62412SOL    HW197550  11.533   5.618   2.352  0.7460 -1.8123 -0.4839
62412SOL    HW297551  11.507   5.529   2.472  0.8888  2.9605  3.4005
62413SOL     OW97552   7.542  12.892   7.105 -0.4710  0.0239 -0.4408
62413SOL    HW197553   7.613  12.954   7.121 -0.0493 -0.7545  0.8081
62413SOL    HW297554   7.560  12.857   7.017 -0.0926  0.8347 -0.6915
62414SOL     OW97555   2.589   6.935   7.593  0.3024 -0.6865  0.1249
62414SOL    HW197556   2.648   6.970   7.526  2.1574 -0.5147  1.7670
62414SOL    HW297557   2.553   7.012   7.637 -0.6495 -0.8062 -0.4046
62415SOL     OW97558   7.760   9.291   0.461  0.0045  0.0964  0.4629
62415SOL    HW197559   7.729   9.364   0.514  0.4559  0.5547  0.1052
62415SOL    HW297560   7.689   9.273   0.401 -0.1910  0.1042  0.6904
62416SOL     OW97561  10.251   4.506  10.181  0.1531 -0.0887  0.3503
62416SOL    HW197562  10.342   4.536  10.184  0.0507  0.6585 -1.8027
62416SOL    HW297563  10.201   4.585  10.159 -0.8921 -0.6826  0.5610
62417SOL     OW97564   9.640   7.906  11.480  0.4172  0.3264  0.0006
62417SOL    HW197565   9.614   7.861  11.400  1.4217 -0.2158 -0.0309
62417SOL    HW297566   9.562   7.954  11.507 -0.0604  0.1588 -1.0590
62418SOL     OW97567  11.363   2.934   6.005 -0.8278 -0.2593  0.4807
62418SOL    HW197568  11.392   2.881   5.931 -2.6797 -0.0579 -0.4426
62418SOL    HW297569  11.367   2.874   6.080 -0.3026 -0.8824 -0.0321
62419SOL     OW97570  10.115   3.888  12.254 -0.3767 -0.0010  0.5472
62419SOL    HW197571  10.154   3.973  12.236  1.6725 -0.5344  2.0524
62419SOL    HW297572  10.030   3.908  12.294 -0.9655  1.2460 -1.2436
62420SOL     OW97573   9.082  10.307   1.692 -0.0987  0.2374 -0.2664
62420SOL    HW197574   9.134  10.353   1.626  0.4932  0.3303  0.2560
62420SOL    HW297575   9.122  10.332   1.776 -0.3696 -0.4713  0.0805
62421SOL     OW97576   1.626   4.404   0.224  0.1530  0.1257  0.2825
62421SOL    HW197577   1.620   4.311   0.247  0.1926  0.0559  0.0162
62421SOL    HW297578   1.540   4.427   0.191  0.0586  0.2589  0.6171
62422SOL     OW97579   8.444   6.631  11.906 -0.4354  0.7538 -0.2068
62422SOL    HW197580   8.486   6.621  11.991  0.9674 -1.4700 -1.0644
62422SOL    HW297581   8.368   6.573  11.910  0.3145 -0.3078 -0.8274
62423SOL     OW97582   5.367  12.007  11.632 -0.3146  0.2861 -0.1730
62423SOL    HW197583   5.359  11.934  11.694  0.8231  0.9310  0.7778
62423SOL    HW297584   5.280  12.016  11.594 -0.5707 -1.3157 -0.0343
62424SOL     OW97585   4.292   1.914   6.797 -0.4842 -0.6055  0.3747
62424SOL    HW197586   4.301   1.976   6.725  2.5488 -0.0225  1.1510
62424SOL    HW297587   4.280   1.829   6.754 -0.6608 -0.0199 -0.7670
62425SOL     OW97588   9.575   9.470   6.929 -0.6674 -0.9054 -0.4115
62425SOL    HW197589   9.613   9.557   6.922 -0.5930 -0.9747 -0.8922
62425SOL    HW297590   9.545   9.449   6.841  0.2955 -1.8010 -0.5531
62426SOL     OW97591  10.865  11.113  12.531 -0.9246 -0.3058  0.6726
62426SOL    HW197592  10.959  11.098  12.541 -0.9892 -1.2829 -0.0338
62426SOL    HW297593  10.830  11.028  12.503 -1.7827  0.4358 -0.6134
62427SOL     OW97594   4.683   8.454   5.893  0.8605  0.0816 -0.5091
62427SOL    HW197595   4.678   8.359   5.888  1.0098  0.0822 -0.6769
62427SOL    HW297596   4.630   8.484   5.819  1.4630  0.1211 -0.9301
62428SOL     OW97597   8.594   0.212  10.596  0.2148 -0.0460 -0.7429
62428SOL    HW197598   8.643   0.174  10.523  0.1557 -0.7555 -0.4263
62428SOL    HW297599   8.503   0.191  10.578  0.1371  0.3136 -0.7759
62429SOL     OW97600   3.481   4.152   7.268 -0.2228 -0.3141  0.6651
62429SOL    HW197601   3.397   4.119   7.299 -0.7882 -0.0355 -0.5165
62429SOL    HW297602   3.479   4.245   7.290  0.5121 -0.6307  2.1637
62430SOL     OW97603   5.748  12.447  10.559  0.3247  0.4534  0.2162
62430SOL    HW197604   5.679  12.443  10.626 -0.5429  2.1597 -0.5029
62430SOL    HW297605   5.830  12.446  10.609 -0.1756 -1.4063  1.0983
62431SOL     OW97606   1.651   8.677   6.678  0.1329  0.6957  0.5706
62431SOL    HW197607   1.720   8.649   6.618 -0.2719  2.4539 -0.8030
62431SOL    HW297608   1.604   8.745   6.630 -1.9261  0.2613  1.8703
62432SOL     OW97609   3.357   8.331  10.322  0.2621 -0.4390  0.0847
62432SOL    HW197610   3.418   8.392  10.281  0.4943 -1.3543 -0.9969
62432SOL    HW297611   3.274   8.345  10.277 -0.5031  1.0956  1.8330
62433SOL     OW97612   4.109   2.537   6.054  0.0359 -0.2237 -0.3589
62433SOL    HW197613   4.144   2.463   6.104 -3.5169 -0.1217  2.6797
62433SOL    HW297614   4.163   2.611   6.079 -0.8536 -0.4457  2.5343
62434SOL     OW97615  11.082   8.275   7.662 -0.2601 -0.2967 -0.3115
62434SOL    HW197616  10.990   8.288   7.639  0.0309  1.1685 -0.7505
62434SOL    HW297617  11.127   8.265   7.578  0.3569  1.8980 -0.3028
62435SOL     OW97618   7.334   3.417   4.052  0.7003 -0.0755  0.1532
62435SOL    HW197619   7.320   3.322   4.059 -1.2218  0.0006 -1.7715
62435SOL    HW297620   7.327   3.448   4.142  0.6806 -1.6763  0.7405
62436SOL     OW97621   9.647   3.871  12.505  0.6309  0.2984 -0.6256
62436SOL    HW197622   9.595   3.809  12.555  2.5761 -1.8031 -1.0203
62436SOL    HW297623   9.588   3.903  12.438 -0.2270 -1.9949 -1.0721
62437SOL     OW97624  10.554   3.112   0.875 -0.7573 -0.1635  0.1289
62437SOL    HW197625  10.483   3.052   0.850 -0.3818 -0.5365 -0.0603
62437SOL    HW297626  10.629   3.082   0.824 -0.8985  1.3245 -1.0211
62438SOL     OW97627  12.819   2.359   1.868 -0.3581 -0.2848  0.2400
62438SOL    HW197628  12.736   2.383   1.826 -0.8509 -1.3542  0.5673
62438SOL    HW297629  12.867   2.310   1.802  0.0799  0.4336  0.0109
62439SOL     OW97630   9.312  10.952   6.920 -1.1602 -0.1957 -0.4258
62439SOL    HW197631   9.233  11.000   6.942 -2.2744 -2.0833 -0.0812
62439SOL    HW297632   9.290  10.904   6.840 -0.4171 -0.8193 -0.2761
62440SOL     OW97633  10.189   4.461   2.947 -0.0266  0.7381 -0.4702
62440SOL    HW197634  10.099   4.433   2.960  0.3122  0.3027  1.3197
62440SOL    HW297635  10.183   4.542   2.898 -1.4020  0.7639 -0.2854
62441SOL     OW97636   7.347  10.887   4.179 -0.1683  0.3719  0.0615
62441SOL    HW197637   7.410  10.829   4.222  0.6018  0.3075 -1.1068
62441SOL    HW297638   7.334  10.959   4.240  0.4612 -0.0001  0.6408
62442SOL     OW97639  11.768  12.373   5.933  0.1025  0.3036  0.1523
62442SOL    HW197640  11.818  12.294   5.951  0.1869  0.6852  1.7140
62442SOL    HW297641  11.827  12.429   5.883  0.7220  0.1568  0.7169
62443SOL     OW97642   0.492   2.989   8.159 -0.0445 -0.5222 -0.2495
62443SOL    HW197643   0.549   3.022   8.090 -1.0349  1.2794 -0.2602
62443SOL    HW297644   0.496   3.056   8.227 -0.5883 -1.3511  0.6259
62444SOL     OW97645   5.462   5.116   3.125  0.2365  0.5106 -0.2193
62444SOL    HW197646   5.382   5.127   3.074 -1.5218 -0.4781  2.1578
62444SOL    HW297647   5.525   5.175   3.084 -1.1599  0.0855 -3.1908
62445SOL     OW97648   2.965  10.449   5.637  0.3796 -0.1068 -0.4591
62445SOL    HW197649   3.054  10.445   5.603 -0.3106 -0.1788 -2.3839
62445SOL    HW297650   2.936  10.358   5.639  0.1177 -0.0262 -0.5037
62446SOL     OW97651   5.040   1.611  12.248  0.4694 -0.6629  0.4381
62446SOL    HW197652   5.092   1.686  12.278  0.1199 -0.8474  1.5360
62446SOL    HW297653   4.951   1.645  12.239  0.7772 -0.2486 -1.8089
62447SOL     OW97654   5.710   4.043   5.219  0.0191  0.2997  0.6176
62447SOL    HW197655   5.643   3.981   5.247  1.6490 -0.9206  1.9805
62447SOL    HW297656   5.683   4.126   5.258 -3.3620  1.2071 -2.9666
62448SOL     OW97657  11.050  11.564   4.806 -0.7525  0.1167  0.2023
62448SOL    HW197658  10.986  11.633   4.823 -1.1177 -0.0741 -0.3702
62448SOL    HW297659  11.039  11.544   4.713  0.7935  0.7491 -0.1484
62449SOL     OW97660   3.108   1.272   8.435  0.3574 -1.0125  0.5761
62449SOL    HW197661   3.152   1.284   8.351  0.9146 -1.1676  0.8395
62449SOL    HW297662   3.117   1.357   8.478  1.8803 -1.5040  1.3097
62450SOL     OW97663   4.471   5.577   9.835  0.2244  0.7328  0.2996
62450SOL    HW197664   4.532   5.650   9.818  0.5671  0.3840  0.0089
62450SOL    HW297665   4.526   5.509   9.873  0.3358 -0.1511 -1.3566
62451SOL     OW97666   5.585  10.092   4.606  0.0330  0.2947 -0.0050
62451SOL    HW197667   5.675  10.117   4.589  0.4915 -0.6145  0.9330
62451SOL    HW297668   5.532  10.159   4.564  1.1319  0.5270 -1.0582
62452SOL     OW97669  12.366   0.170  11.239 -0.1021 -0.0356  0.3166
62452SOL    HW197670  12.320   0.133  11.164 -0.0463 -1.0885  0.7852
62452SOL    HW297671  12.318   0.251  11.258  0.0907  0.4241 -1.0456
62453SOL     OW97672   7.159  12.823   4.990 -0.2698 -0.3698 -0.3525
62453SOL    HW197673   7.076  12.864   5.015 -0.9150 -0.9901 -1.3833
62453SOL    HW297674   7.225  12.871   5.040 -1.1129  1.0305 -0.5071
62454SOL     OW97675   5.926   0.948  11.845 -0.7154 -0.0698  0.0819
62454SOL    HW197676   5.841   0.989  11.831 -1.2090 -0.8534  0.6668
62454SOL    HW297677   5.911   0.855  11.826  0.2184 -0.0915 -0.6226
62455SOL     OW97678   9.881   9.072   2.176  0.0403  0.1060  0.1007
62455SOL    HW197679   9.912   9.122   2.101  1.1685 -0.3271  0.2566
62455SOL    HW297680   9.897   8.980   2.151 -1.4786 -0.1727  0.0411
62456SOL     OW97681  11.005   2.230   0.317 -0.0080  0.2900  0.3963
62456SOL    HW197682  11.085   2.186   0.287 -0.4457 -0.9038  0.9345
62456SOL    HW297683  11.036   2.296   0.379  0.4300 -1.8671  2.5812
62457SOL     OW97684   3.495   8.112   2.486 -0.5705 -0.1856 -0.3178
62457SOL    HW197685   3.451   8.194   2.464 -0.2039 -0.0757 -0.6405
62457SOL    HW297686   3.544   8.088   2.407 -0.6102 -0.6735 -0.2016
62458SOL     OW97687   0.572   3.247   6.424  0.0267  0.2845  0.0842
62458SOL    HW197688   0.612   3.301   6.492  0.7943  0.5466 -0.5660
62458SOL    HW297689   0.638   3.182   6.403 -1.1415 -1.4013  1.3548
62459SOL     OW97690   7.008   3.745   5.570  0.0294  0.5915  0.3589
62459SOL    HW197691   6.982   3.659   5.601  0.8254  0.5238  0.8760
62459SOL    HW297692   6.942   3.804   5.605 -2.3751 -0.0934 -2.5930
62460SOL     OW97693   3.725   1.319   5.479 -0.2005 -0.2376  0.2794
62460SOL    HW197694   3.743   1.247   5.418 -0.5850  1.1217 -1.5372
62460SOL    HW297695   3.634   1.343   5.462 -1.4305 -1.8240  3.6938
62461SOL     OW97696   5.780   1.412   8.160  0.4071  0.3769  0.6153
62461SOL    HW197697   5.812   1.383   8.246 -0.9082  2.8217  2.0196
62461SOL    HW297698   5.693   1.373   8.153 -0.6578  2.3868  1.7455
62462SOL     OW97699   9.153  11.303   1.976  0.1909 -0.1042  0.2951
62462SOL    HW197700   9.064  11.330   1.952 -0.0160 -1.1329 -0.1687
62462SOL    HW297701   9.187  11.261   1.897 -0.4102 -3.3832  1.6251
62463SOL     OW97702   3.731   3.427   1.565  0.0131 -0.1356 -0.1717
62463SOL    HW197703   3.810   3.447   1.615  0.0676  1.6474 -0.9218
62463SOL    HW297704   3.659   3.453   1.623 -0.1126 -2.3977  0.7932
62464SOL     OW97705  12.514  11.923  11.474 -0.5869 -0.5206 -0.3446
62464SOL    HW197706  12.565  11.853  11.516 -0.9928 -1.6051 -1.6011
62464SOL    HW297707  12.435  11.930  11.528  0.6718  0.9802  1.4513
62465SOL     OW97708   4.808   0.862   2.477  0.2981 -0.5330  0.1155
62465SOL    HW197709   4.735   0.802   2.464  1.5473 -1.7231 -1.9382
62465SOL    HW297710   4.844   0.875   2.389  0.1557  3.1944  0.4674
62466SOL     OW97711   0.172   5.611   1.095  0.4093  0.1047 -0.5181
62466SOL    HW197712   0.221   5.558   1.032 -0.3352  1.4516 -2.3250
62466SOL    HW297713   0.099   5.555   1.121  0.8128 -0.5319 -0.7346
62467SOL     OW97714   2.290   7.286   2.052  0.3366  0.7691 -0.4880
62467SOL    HW197715   2.208   7.287   2.003 -2.3077  0.7054  3.5091
62467SOL    HW297716   2.301   7.376   2.083  1.0709  0.4978  0.0830
62468SOL     OW97717   8.540  12.505  12.273  1.1171 -0.7309 -0.6872
62468SOL    HW197718   8.456  12.463  12.254  0.3086 -0.7183  2.2756
62468SOL    HW297719   8.550  12.570  12.204 -1.3746 -0.6808 -1.1149
62469SOL     OW97720  12.629   5.279   1.410 -0.1197  0.0480  0.4316
62469SOL    HW197721  12.632   5.299   1.503  1.1575 -0.3512  0.4981
62469SOL    HW297722  12.669   5.193   1.403  1.0606  0.6565 -0.6259
62470SOL     OW97723   3.385   1.705  12.927  0.1449  0.5904  0.5306
62470SOL    HW197724   3.340   1.766  12.985 -0.5753  0.3390  0.2504
62470SOL    HW297725   3.326   1.696  12.852  1.4659  1.6371 -0.7065
62471SOL     OW97726   5.879   5.261   1.675  0.3439 -0.6636  0.2837
62471SOL    HW197727   5.827   5.282   1.598  2.6440  1.4817 -0.8298
62471SOL    HW297728   5.847   5.176   1.704 -0.4830 -1.6594 -3.1631
62472SOL     OW97729   5.480  10.972   6.063 -0.3590 -0.1921  0.6861
62472SOL    HW197730   5.408  10.993   6.003 -1.3023  0.0999  1.8685
62472SOL    HW297731   5.486  11.048   6.120 -1.2871 -1.4900  2.6208
62473SOL     OW97732  10.215   5.296   3.272  0.0996  0.0236  0.0181
62473SOL    HW197733  10.227   5.210   3.233  0.9387 -0.8088  2.0057
62473SOL    HW297734  10.231   5.283   3.365  0.0484  2.2892  0.3987
62474SOL     OW97735   8.457  12.950   3.557 -0.1286 -0.0737  0.4260
62474SOL    HW197736   8.383  12.893   3.535 -0.7379  0.4843  0.9687
62474SOL    HW297737   8.449  12.963   3.651  0.9612 -0.3965  0.5734
62475SOL     OW97738   0.114   6.863   1.183  0.0929 -0.1278 -0.5472
62475SOL    HW197739   0.140   6.814   1.105  1.0057  3.4551 -2.7429
62475SOL    HW297740   0.189   6.854   1.243  1.1701  0.2266 -1.7886
62476SOL     OW97741   1.270  11.704   4.770  0.0476 -0.5479 -0.3841
62476SOL    HW197742   1.187  11.749   4.754  0.9595  0.8874 -1.3416
62476SOL    HW297743   1.248  11.611   4.766 -1.3582 -0.2054 -1.5299
62477SOL     OW97744   9.965   8.469   1.394 -0.0284 -0.1302  0.0967
62477SOL    HW197745  10.011   8.466   1.478  1.2428 -1.8601 -0.6097
62477SOL    HW297746  10.007   8.541   1.346 -0.3749  0.4850  0.6876
62478SOL     OW97747   2.086   6.440  10.695  0.4358 -0.2828  0.1471
62478SOL    HW197748   1.998   6.404  10.706  1.0308 -1.5209  1.1184
62478SOL    HW297749   2.117   6.403  10.612 -0.5210  1.4586 -1.0551
62479SOL     OW97750   6.441  10.422   4.120  0.3231 -0.5345  0.4882
62479SOL    HW197751   6.511  10.378   4.168  2.3379  1.6305 -0.2810
62479SOL    HW297752   6.458  10.402   4.028  0.9631  1.2491  0.1624
62480SOL     OW97753   9.956  12.660   1.179 -0.0474 -0.6672 -0.1584
62480SOL    HW197754   9.891  12.596   1.206 -2.2400  0.3807 -2.5778
62480SOL    HW297755  10.014  12.612   1.120  0.8796 -1.3439  1.2257
62481SOL     OW97756   3.226  12.796   4.139 -0.2494 -0.1995  0.0055
62481SOL    HW197757   3.141  12.827   4.106 -0.3040 -0.0798  0.2571
62481SOL    HW297758   3.257  12.736   4.071 -0.5485 -0.2664 -0.0750
62482SOL     OW97759   7.715   3.448   6.489 -0.6934  0.4071 -0.4076
62482SOL    HW197760   7.760   3.386   6.431 -0.9405  0.3573 -0.5507
62482SOL    HW297761   7.729   3.533   6.449  1.5992  0.7597  1.0126
62483SOL     OW97762   7.677   3.761   5.144  0.0694  0.2486  0.5136
62483SOL    HW197763   7.721   3.839   5.176 -0.4823 -0.1570  2.4046
62483SOL    HW297764   7.687   3.764   5.049  1.4502  1.7576  0.6776
62484SOL     OW97765   6.320   4.614   3.466 -0.6303  0.5057  0.8463
62484SOL    HW197766   6.367   4.690   3.431 -0.3112  0.1894  0.5755
62484SOL    HW297767   6.386   4.568   3.518  0.7025 -2.1811 -2.7548
62485SOL     OW97768   2.834   9.586   5.446  0.1203  0.2448  0.3957
62485SOL    HW197769   2.848   9.504   5.399  1.0795  1.7846 -2.2143
62485SOL    HW297770   2.912   9.596   5.501 -0.2844 -0.8200  1.2123
62486SOL     OW97771  10.664  11.839   6.394 -0.3663 -0.0127 -0.2105
62486SOL    HW197772  10.665  11.760   6.450  0.7122 -2.3058 -3.1909
62486SOL    HW297773  10.572  11.865   6.391 -0.9778 -1.9992 -0.1535
62487SOL     OW97774   4.775   2.119  12.942  0.3446  0.1544  0.4486
62487SOL    HW197775   4.839   2.176  12.985  0.7835 -2.0976  3.1350
62487SOL    HW297776   4.702   2.176  12.920  1.7363  2.1431  0.7500
62488SOL     OW97777   7.263   4.454   8.344 -0.0468 -0.0351  0.0627
62488SOL    HW197778   7.259   4.363   8.315  0.8950  0.4086 -1.6310
62488SOL    HW297779   7.325   4.495   8.284 -2.5086  2.3653 -1.0265
62489SOL     OW97780   6.634   9.948   9.655 -0.6779 -0.0384 -0.0167
62489SOL    HW197781   6.561   9.899   9.692 -1.2053  0.1337 -0.8123
62489SOL    HW297782   6.630   9.931   9.561  1.3484 -1.4148  0.0834
62490SOL     OW97783   1.400   5.250   3.823 -0.1128  0.2126  0.5024
62490SOL    HW197784   1.462   5.313   3.861 -1.3634  1.2263  0.9239
62490SOL    HW297785   1.443   5.221   3.742  1.1585  0.4635  1.0643
62491SOL     OW97786   3.068   1.992  12.818 -0.8909  0.0167 -0.0587
62491SOL    HW197787   3.026   2.058  12.763 -0.2817  0.5772  0.1342
62491SOL    HW297788   3.012   1.988  12.896 -1.6555 -0.6543 -0.6341
62492SOL     OW97789   2.478  12.150   3.701  0.6405  0.3389 -0.3372
62492SOL    HW197790   2.406  12.126   3.760  0.3409 -1.7409 -1.4577
62492SOL    HW297791   2.443  12.222   3.648 -0.2037  0.1299 -0.0723
62493SOL     OW97792   2.236   2.739   2.706  0.0824 -0.1625 -0.5716
62493SOL    HW197793   2.325   2.706   2.703 -0.1004 -0.6500 -0.6615
62493SOL    HW297794   2.240   2.813   2.767  0.4255 -0.5617 -0.1016
62494SOL     OW97795   5.866  10.767   2.900  0.3284  0.3165  0.0401
62494SOL    HW197796   5.843  10.832   2.833 -0.0940 -1.8627 -2.0718
62494SOL    HW297797   5.796  10.703   2.896  2.2440 -1.9072 -0.2790
62495SOL     OW97798   4.837   6.144   1.608 -0.2489 -0.5109  0.5097
62495SOL    HW197799   4.845   6.061   1.655 -0.5508 -1.1128 -0.4773
62495SOL    HW297800   4.861   6.123   1.518  1.1647  0.7985  0.5337
62496SOL     OW97801   6.974   0.663   0.114 -0.1192 -0.6774 -0.8110
62496SOL    HW197802   7.043   0.603   0.141  2.0586  2.6276  1.7557
62496SOL    HW297803   6.997   0.687   0.024  0.2020 -1.9464 -1.0980
62497SOL     OW97804   2.962   2.015   7.558  0.0975 -0.2239 -0.1555
62497SOL    HW197805   3.017   1.959   7.613  1.1435  1.2468  0.3758
62497SOL    HW297806   2.912   2.068   7.621 -1.2997 -0.9386 -0.6402
62498SOL     OW97807   0.838   5.502   4.568 -0.4672  0.7974  0.6675
62498SOL    HW197808   0.912   5.470   4.620  0.3595 -0.3848 -1.1243
62498SOL    HW297809   0.829   5.594   4.593  0.5715  0.5483  2.0875
62499SOL     OW97810   4.966  11.527   8.026  0.0289 -0.3843 -0.0062
62499SOL    HW197811   4.920  11.608   8.045 -0.1734 -0.5330  0.1416
62499SOL    HW297812   5.027  11.515   8.099 -0.2813 -0.6137  0.2156
62500SOL     OW97813   3.274   7.278   1.459  0.3253 -0.4078  0.8993
62500SOL    HW197814   3.264   7.373   1.453  1.4587 -0.2985  0.4171
62500SOL    HW297815   3.227   7.253   1.539 -0.6318  0.4469  0.6126
62501SOL     OW97816   7.516  12.628   5.524 -0.2744  0.4583  0.1605
62501SOL    HW197817   7.427  12.633   5.488 -0.2608  0.8580  0.1787
62501SOL    HW297818   7.547  12.718   5.524  0.1107  0.3271  0.2149
62502SOL     OW97819   2.507   2.672  12.299 -0.3324  0.0165 -0.2464
62502SOL    HW197820   2.599   2.684  12.323 -0.0961  0.3883 -1.3008
62502SOL    HW297821   2.507   2.662  12.204 -1.4670  0.9002 -0.3727
62503SOL     OW97822   0.603   8.406   1.656  0.4393  0.4488 -0.2230
62503SOL    HW197823   0.547   8.481   1.637 -1.0140 -0.6199 -0.3336
62503SOL    HW297824   0.554   8.355   1.721  0.5849 -1.2680 -1.3993
62504SOL     OW97825   1.476   0.795   0.612  0.5581 -0.1000  0.5024
62504SOL    HW197826   1.555   0.817   0.562 -0.2646  2.7530  0.2903
62504SOL    HW297827   1.480   0.851   0.689 -0.9137 -0.4510  0.8542
62505SOL     OW97828  11.741   3.906   3.407  0.1655  0.2627 -0.1730
62505SOL    HW197829  11.707   3.859   3.331 -0.8770 -0.2396  0.5846
62505SOL    HW297830  11.767   3.838   3.469 -0.2055  0.6508  0.4322
62506SOL     OW97831   7.335   8.360  10.355 -0.2284  0.3005 -0.2350
62506SOL    HW197832   7.332   8.331  10.446 -0.4614  1.4638  0.1476
62506SOL    HW297833   7.270   8.305  10.310  0.9947 -1.3681 -0.0613
62507SOL     OW97834  11.888   9.604  10.704 -0.4029  0.4214 -0.3383
62507SOL    HW197835  11.978   9.575  10.694  0.2269  1.8539  0.7543
62507SOL    HW297836  11.858   9.624  10.616  0.1184 -0.6695 -0.7750
62508SOL     OW97837  12.286   8.352   5.519  0.5150  0.1197  0.3074
62508SOL    HW197838  12.332   8.292   5.578  0.4802 -1.4102 -1.1383
62508SOL    HW297839  12.326   8.336   5.433 -1.5039  0.0092 -0.6735
62509SOL     OW97840   5.513  12.763   2.478  0.2540 -0.1982  0.0776
62509SOL    HW197841   5.604  12.735   2.462  0.4546  0.0897  0.6913
62509SOL    HW297842   5.518  12.858   2.486 -0.3142 -0.0332 -1.2112
62510SOL     OW97843   3.383  12.790   1.891  0.0202 -0.1307  0.4238
62510SOL    HW197844   3.391  12.732   1.815  1.4041 -0.3017  0.6802
62510SOL    HW297845   3.390  12.878   1.855  1.0131 -0.2205  0.3772
62511SOL     OW97846   3.010  10.590   4.733  0.3262 -0.0381  0.6412
62511SOL    HW197847   2.944  10.614   4.798  0.7429 -0.0662  1.0828
62511SOL    HW297848   2.987  10.501   4.708 -0.9673  0.6181 -0.6801
62512SOL     OW97849  10.970   0.508   3.476  0.2333  0.4894  0.4735
62512SOL    HW197850  11.043   0.473   3.528  2.3190  2.1364 -1.1440
62512SOL    HW297851  10.961   0.599   3.504  0.4364  0.9918 -0.9762
62513SOL     OW97852   9.843   3.021  12.890  0.0576 -0.2771 -0.1116
62513SOL    HW197853   9.849   2.928  12.912  2.9655  0.2312  1.7222
62513SOL    HW297854   9.848   3.066  12.974 -0.7623  1.6023 -1.0026
62514SOL     OW97855  10.928   6.210  11.684  0.3751  0.0995 -0.1905
62514SOL    HW197856  10.935   6.297  11.723  0.3621  1.3580 -2.8322
62514SOL    HW297857  10.836   6.186  11.695  0.6710 -0.3329  1.8860
62515SOL     OW97858  10.378   2.453   1.182  0.0868  0.4953 -0.2590
62515SOL    HW197859  10.307   2.400   1.219  0.1300  0.3302 -0.4076
62515SOL    HW297860  10.334   2.509   1.117  0.3711 -1.1915 -2.0124
62516SOL     OW97861   8.012   2.140   8.784  0.4612  0.2098 -0.0721
62516SOL    HW197862   7.952   2.206   8.751  0.4079 -0.5606 -1.6368
62516SOL    HW297863   7.961   2.059   8.784 -0.4498  0.5253  4.7043
62517SOL     OW97864   4.702   3.584   6.506 -0.2939  0.4452 -0.2825
62517SOL    HW197865   4.706   3.490   6.525 -0.3346 -0.0040 -2.2466
62517SOL    HW297866   4.780   3.620   6.548 -0.6738 -0.3148  1.1414
62518SOL     OW97867   8.121   2.514   4.583  0.2881  0.2038 -0.5954
62518SOL    HW197868   8.082   2.477   4.661 -1.0534  0.8969 -0.9154
62518SOL    HW297869   8.211   2.480   4.582  0.9880  1.7057  2.2783
62519SOL     OW97870   5.114   4.430   1.330  0.0894 -0.1892 -0.6864
62519SOL    HW197871   5.055   4.502   1.309  0.7174  0.8159  0.8236
62519SOL    HW297872   5.151   4.405   1.245 -0.4021  1.0419 -1.2949
62520SOL     OW97873  12.633  10.809  12.577  0.1695  0.8068  0.6680
62520SOL    HW197874  12.701  10.869  12.548  0.9919  0.2148  1.3235
62520SOL    HW297875  12.636  10.813  12.672 -1.4494  1.5702  0.7208
62521SOL     OW97876   6.726   7.686   2.609  0.0970 -0.7533 -0.3489
62521SOL    HW197877   6.754   7.635   2.685 -1.9777 -1.9004 -0.2565
62521SOL    HW297878   6.666   7.752   2.644 -0.0364 -0.5886 -0.8660
62522SOL     OW97879   4.613   8.542   6.917  0.2338 -0.2834  0.0156
62522SOL    HW197880   4.592   8.604   6.847  0.5799 -0.9772 -0.7294
62522SOL    HW297881   4.654   8.595   6.985  0.0671  0.3773 -0.3901
62523SOL     OW97882   2.868   3.919  11.166 -0.6040 -0.5387 -0.2693
62523SOL    HW197883   2.797   3.925  11.230  0.2416  0.1762  0.6227
62523SOL    HW297884   2.944   3.892  11.216  0.2612  0.8098 -0.8003
62524SOL     OW97885   6.739   5.653   8.459 -0.2413  0.0508  0.2420
62524SOL    HW197886   6.790   5.715   8.407 -0.9358 -0.7329 -1.4524
62524SOL    HW297887   6.796   5.577   8.469 -0.1604  0.1470  0.5252
62525SOL     OW97888   3.733   7.619   0.593 -0.2566  0.1984 -0.4532
62525SOL    HW197889   3.666   7.656   0.536 -0.5804  0.8709  0.3334
62525SOL    HW297890   3.758   7.692   0.650  0.1805 -0.3998  0.1359
62526SOL     OW97891  12.925  11.048   5.905  0.2066  0.4760  0.2407
62526SOL    HW197892  12.941  11.111   5.835 -0.2956 -1.3102 -1.5555
62526SOL    HW297893  12.829  11.041   5.909  0.2310  0.5276  1.1020
62527SOL     OW97894  10.818   7.374   3.014 -0.3257  0.9867 -0.1168
62527SOL    HW197895  10.761   7.298   3.027  0.0355  0.8027  0.4084
62527SOL    HW297896  10.868   7.355   2.935 -1.6794  1.5774 -1.1646
62528SOL     OW97897  10.133   0.794   1.495  0.0397 -0.4711  0.7053
62528SOL    HW197898  10.214   0.817   1.450 -0.1994  0.3022  0.6505
62528SOL    HW297899  10.160   0.733   1.563  0.3921 -1.7790 -0.5574
62529SOL     OW97900   8.209  12.516   2.792 -0.5184  0.0466 -0.4085
62529SOL    HW197901   8.217  12.542   2.884  0.6183 -0.3112 -0.3976
62529SOL    HW297902   8.119  12.484   2.784 -0.7914  0.5615  0.4460
62530SOL     OW97903   9.658   3.507   6.841 -0.2210 -0.6526  0.2632
62530SOL    HW197904   9.650   3.412   6.852 -0.6815 -0.3711  3.1590
62530SOL    HW297905   9.712   3.518   6.763 -0.6276 -3.2727 -0.4687
62531SOL     OW97906   0.375   2.584   6.583  0.0695 -0.6102  0.3093
62531SOL    HW197907   0.422   2.501   6.583  1.4056  0.0940 -1.1105
62531SOL    HW297908   0.282   2.560   6.580  0.4179 -2.0362  0.5175
62532SOL     OW97909   1.214  11.099   5.249  0.1468 -0.1896  0.0835
62532SOL    HW197910   1.293  11.099   5.195 -0.6699  1.3247 -1.2082
62532SOL    HW297911   1.211  11.186   5.288 -0.5404 -0.4584  0.6563
62533SOL     OW97912   4.051   5.591   1.165  0.0104 -0.2658  0.1675
62533SOL    HW197913   4.134   5.594   1.117  0.3717  0.1706  0.8038
62533SOL    HW297914   4.054   5.667   1.223 -1.4312  0.5406 -0.7595
62534SOL     OW97915  11.485   2.685   9.159  0.5256  0.3014  0.0868
62534SOL    HW197916  11.549   2.620   9.131 -1.7363 -1.3468 -1.6477
62534SOL    HW297917  11.491   2.755   9.094  0.9309  0.4159  0.2479
62535SOL     OW97918   5.651   3.397  11.220 -0.0811 -0.0616 -0.1232
62535SOL    HW197919   5.624   3.475  11.173 -0.8740 -0.7483 -0.8461
62535SOL    HW297920   5.724   3.362  11.169 -0.8574 -0.7354 -0.8041
62536SOL     OW97921   7.787   4.346   4.448  0.3796  0.1186  0.2758
62536SOL    HW197922   7.724   4.354   4.376 -0.1133 -1.0577  0.5617
62536SOL    HW297923   7.839   4.426   4.443 -1.9806  1.8080  0.8442
62537SOL     OW97924   5.364   2.345   3.879 -0.6416  0.7722  0.4154
62537SOL    HW197925   5.424   2.363   3.952  2.8253 -1.2702 -1.6366
62537SOL    HW297926   5.353   2.250   3.881 -2.4534  0.9256 -0.3953
62538SOL     OW97927  12.985  10.707   7.435  0.5602  0.4268 -0.3771
62538SOL    HW197928  12.975  10.796   7.470  1.0243 -0.7838  3.1899
62538SOL    HW297929  12.898  10.669   7.442  0.7213  0.0726 -0.3104
62539SOL     OW97930   6.179  12.354   4.325  0.1105 -0.4078  0.0353
62539SOL    HW197931   6.214  12.351   4.414  1.4676 -0.9538 -0.4925
62539SOL    HW297932   6.119  12.279   4.321 -1.6539  0.8721  1.1243
62540SOL     OW97933   3.524   9.551   7.496  0.1064  0.2170  0.1803
62540SOL    HW197934   3.606   9.598   7.483 -0.9511  1.7249 -1.4687
62540SOL    HW297935   3.539   9.465   7.458  0.6734  0.7874 -0.9434
62541SOL     OW97936   3.455  12.206  10.727  0.0660 -0.0909 -0.4211
62541SOL    HW197937   3.409  12.217  10.810 -2.0261 -1.0221 -1.3937
62541SOL    HW297938   3.529  12.149  10.748 -0.3647 -0.2208  0.8010
62542SOL     OW97939   0.196  10.857   1.451 -0.3369  0.2930 -0.2365
62542SOL    HW197940   0.291  10.864   1.460 -0.1921  0.9874 -1.8873
62542SOL    HW297941   0.183  10.789   1.385 -1.0804 -0.9960  1.1892
62543SOL     OW97942  12.051   0.426   0.246 -0.4611  0.1697 -0.2615
62543SOL    HW197943  11.974   0.478   0.268 -1.4825 -1.1684 -0.4950
62543SOL    HW297944  12.066   0.442   0.153 -0.3002  0.6142 -0.1613
62544SOL     OW97945   0.738   3.043  10.788  0.4452  0.2352  0.1406
62544SOL    HW197946   0.667   3.068  10.729 -0.6154 -1.4328  0.6409
62544SOL    HW297947   0.750   3.119  10.844 -2.9917 -0.3506  1.9514
62545SOL     OW97948   5.019   0.896   0.995  0.2832 -0.0156  0.1442
62545SOL    HW197949   5.043   0.983   1.028  0.2230 -0.7547  2.3392
62545SOL    HW297950   4.946   0.912   0.935  1.6404  1.6039 -1.1678
62546SOL     OW97951  12.827   1.729   5.757  0.2678 -0.3851 -0.0619
62546SOL    HW197952  12.900   1.773   5.800  0.1793 -0.5649  0.2778
62546SOL    HW297953  12.753   1.789   5.768  0.0159 -0.8462  0.8739
62547SOL     OW97954   6.972   8.753   0.927  0.4069  0.2980  0.3672
62547SOL    HW197955   6.897   8.724   0.876 -0.1509  1.9682  0.1798
62547SOL    HW297956   7.041   8.689   0.907 -0.5496 -0.4844 -0.5071
62548SOL     OW97957   3.694   0.092   6.823 -0.0067  0.0154  0.0215
62548SOL    HW197958   3.619   0.125   6.772  1.3738 -0.1163 -2.2293
62548SOL    HW297959   3.767   0.093   6.761  1.3688 -1.9880  1.4998
62549SOL     OW97960   8.953   5.421   3.307  0.6098 -0.6120 -0.4082
62549SOL    HW197961   8.881   5.404   3.367  0.9042  0.0443  0.1355
62549SOL    HW297962   8.995   5.499   3.341  1.5222 -0.9276 -0.7809
62550SOL     OW97963   2.953   9.017   0.423  0.0692 -0.1174  0.1377
62550SOL    HW197964   2.920   9.010   0.513  1.3752 -1.4416  0.5504
62550SOL    HW297965   2.877   9.044   0.372 -0.9769 -0.4251  1.4698
62551SOL     OW97966  10.943   4.407   0.178  0.2224 -0.6433 -0.3208
62551SOL    HW197967  10.901   4.323   0.200  0.5763 -0.5435  0.7664
62551SOL    HW297968  11.032   4.400   0.213 -0.2585  0.8213  1.3279
62552SOL     OW97969  10.504   7.772   9.993 -0.4244  0.2560 -0.3745
62552SOL    HW197970  10.543   7.795  10.077 -0.6765  2.0137 -0.7018
62552SOL    HW297971  10.570   7.794   9.928 -0.0203 -1.5928 -0.6577
62553SOL     OW97972   0.827   3.934  12.405  0.1224 -0.6896  0.3613
62553SOL    HW197973   0.867   4.008  12.359  0.6526 -0.4831  1.1337
62553SOL    HW297974   0.810   3.968  12.493 -1.0889 -1.0020  0.2653
62554SOL     OW97975  12.916   5.854  12.660 -0.1656  0.0616  0.0511
62554SOL    HW197976  12.930   5.948  12.677 -1.0604  0.0304  1.0797
62554SOL    HW297977  12.985   5.811  12.710  0.3319  0.1791 -0.5340
62555SOL     OW97978   8.647   4.148   7.118  0.3443 -0.6415  0.1297
62555SOL    HW197979   8.635   4.082   7.186 -0.2210 -1.8392 -1.0785
62555SOL    HW297980   8.558   4.173   7.093  0.5460 -0.0043  0.0359
62556SOL     OW97981  10.939   0.621  10.692 -0.7235 -0.4612  0.4655
62556SOL    HW197982  10.902   0.614  10.780  0.2693 -1.9396  0.7963
62556SOL    HW297983  10.954   0.531  10.665  1.5476  0.0387 -0.1065
62557SOL     OW97984  10.170   2.918  12.430  0.4721  0.4013  0.1653
62557SOL    HW197985  10.098   2.930  12.368  0.7483  0.4882 -0.1382
62557SOL    HW297986  10.178   3.003  12.474  0.8110  0.5881 -0.2535
62558SOL     OW97987  12.806   3.387   8.663 -0.6336 -0.3166 -0.9034
62558SOL    HW197988  12.834   3.390   8.571  1.1534 -0.4724 -0.3839
62558SOL    HW297989  12.851   3.460   8.704 -0.0322 -1.2924  0.2195
62559SOL     OW97990   6.671  12.825  12.195 -0.2405  0.1993 -0.4645
62559SOL    HW197991   6.576  12.824  12.188 -0.2158 -0.5982 -0.8352
62559SOL    HW297992   6.702  12.837  12.105  0.0111 -0.2598 -0.4446
62560SOL     OW97993   3.127   5.611   2.239  0.1260  0.0760  0.1819
62560SOL    HW197994   3.114   5.649   2.326  1.1124 -0.4406  0.5786
62560SOL    HW297995   3.219   5.629   2.218 -0.1108  0.2409 -0.7838
62561SOL     OW97996  10.896  12.122  12.472 -0.2082 -0.2050 -0.1954
62561SOL    HW197997  10.832  12.082  12.411 -2.0865  2.9148 -0.4831
62561SOL    HW297998  10.967  12.151  12.415 -0.8726  0.6291 -0.6334
62562SOL     OW97999   7.268  12.756   6.593 -0.0493  0.0417 -0.7546
62562SOL    HW198000   7.350  12.774   6.548  0.0723 -0.4863 -0.7557
62562SOL    HW298001   7.208  12.728   6.523 -1.5555  4.2804 -1.4859
62563SOL     OW98002  10.389   2.425  10.285 -0.2779  0.5341 -0.4716
62563SOL    HW198003  10.371   2.343  10.239 -0.1944 -0.1624  0.6819
62563SOL    HW298004  10.323   2.486  10.252 -0.1689  0.0855 -1.5457
62564SOL     OW98005   5.803   5.658   7.575 -0.4481  0.1931  0.5157
62564SOL    HW198006   5.716   5.698   7.580 -1.1334 -1.3869  2.5904
62564SOL    HW298007   5.796   5.593   7.505  0.6414  3.3554 -2.7971
62565SOL     OW98008   7.558  10.405   1.093  0.6576  1.2322  0.4488
62565SOL    HW198009   7.568  10.477   1.032  0.1944  1.0631  0.1692
62565SOL    HW298010   7.546  10.447   1.178  0.4060  1.4838  0.2893
62566SOL     OW98011   8.868   2.494   8.909 -0.1575 -0.2883 -0.3947
62566SOL    HW198012   8.911   2.564   8.861 -1.6148  0.1455 -1.1167
62566SOL    HW298013   8.797   2.465   8.851 -0.7151 -1.1162  0.6669
62567SOL     OW98014   9.226   8.445  10.499  0.1201  0.1048  0.3698
62567SOL    HW198015   9.151   8.480  10.450  0.5236  0.3712 -0.0705
62567SOL    HW298016   9.278   8.522  10.521  1.8727 -0.2766 -2.0360
62568SOL     OW98017  12.766   8.369   7.154  0.0919 -0.3552  0.4420
62568SOL    HW198018  12.755   8.366   7.058 -1.2069  1.5339  0.4797
62568SOL    HW298019  12.677   8.378   7.187  0.7096  1.6062  1.6752
62569SOL     OW98020  12.896   2.759   8.812 -0.2493  0.6127 -1.1290
62569SOL    HW198021  12.893   2.769   8.907  0.8751  0.8443 -1.1074
62569SOL    HW298022  12.806   2.774   8.784 -0.1510  3.2887 -0.3473
62570SOL     OW98023   8.047   0.421   8.080  0.3075 -0.4687  0.3094
62570SOL    HW198024   7.984   0.378   8.021 -0.0840 -1.3697  1.3585
62570SOL    HW298025   8.008   0.507   8.097  0.9236  0.2354 -1.5268
62571SOL     OW98026   4.236  10.973   5.867  0.0641  0.0783  0.2392
62571SOL    HW198027   4.258  10.912   5.938  0.7905 -1.2676 -1.0715
62571SOL    HW298028   4.279  10.935   5.790 -2.0256  0.5885 -1.2579
62572SOL     OW98029  12.883   3.232  11.527  0.4425  0.1155 -0.4410
62572SOL    HW198030  12.957   3.283  11.559 -0.3446  0.2194  1.2936
62572SOL    HW298031  12.815   3.297  11.507  0.1056 -0.1195 -0.0692
62573SOL     OW98032   1.816  11.535   3.137 -0.1906  0.3303  0.0968
62573SOL    HW198033   1.905  11.566   3.151  0.1175 -0.6259  0.3425
62573SOL    HW298034   1.775  11.602   3.082  1.3706 -0.2872 -1.9442
62574SOL     OW98035   3.518  12.265   3.188  0.1309  0.3320 -0.4480
62574SOL    HW198036   3.429  12.265   3.153 -0.0800 -2.0296 -0.0680
62574SOL    HW298037   3.512  12.220   3.272  1.5411  1.0392  0.0730
62575SOL     OW98038   9.308   0.856   3.384 -0.0267  0.0788  0.1820
62575SOL    HW198039   9.340   0.936   3.425 -0.4329  0.2698  0.1227
62575SOL    HW298040   9.341   0.860   3.294  0.1438  0.0686  0.2441
62576SOL     OW98041  10.731   5.283   4.828  0.6852  0.2761  0.0887
62576SOL    HW198042  10.760   5.302   4.738 -0.9525  0.0911 -0.5087
62576SOL    HW298043  10.760   5.193   4.844 -0.2409 -0.1982 -0.7956
62577SOL     OW98044  11.195  11.928   6.489  0.1988  0.2349  0.8247
62577SOL    HW198045  11.137  11.906   6.562 -0.0480 -0.0042  0.5583
62577SOL    HW298046  11.135  11.952   6.418  0.2354 -3.3412 -0.5970
62578SOL     OW98047   3.267   4.580   0.694 -0.3046 -0.0837  0.4724
62578SOL    HW198048   3.362   4.580   0.706 -0.2957 -0.4349  0.3942
62578SOL    HW298049   3.241   4.488   0.700 -0.7097  0.0586  1.0012
62579SOL     OW98050   7.307   9.634  10.504  0.0029 -0.1086  0.1959
62579SOL    HW198051   7.278   9.724  10.486 -0.3523 -0.4422 -0.9731
62579SOL    HW298052   7.401   9.637  10.491 -0.0929 -0.0515 -0.5278
62580SOL     OW98053   7.122   3.375   9.383  0.3874 -0.5340  0.4029
62580SOL    HW198054   7.152   3.424   9.459 -0.7065  1.2146 -0.2492
62580SOL    HW298055   7.158   3.421   9.308 -0.8829 -0.5442 -0.2444
62581SOL     OW98056  11.423   4.233   3.935  0.3661  0.0099  0.3857
62581SOL    HW198057  11.354   4.209   3.874 -0.1757  0.8381  0.6611
62581SOL    HW298058  11.414   4.328   3.946  0.3674 -0.1294  1.8294
62582SOL     OW98059  11.670   2.444   4.277 -0.0825  0.4780 -0.8295
62582SOL    HW198060  11.638   2.486   4.198 -0.7685  0.3683 -0.6163
62582SOL    HW298061  11.700   2.358   4.248 -0.6308  0.3130 -0.9259
62583SOL     OW98062   6.334   3.100   3.807 -0.0738 -0.4740 -0.1505
62583SOL    HW198063   6.292   3.176   3.848 -1.7329 -0.4728 -1.6994
62583SOL    HW298064   6.422   3.130   3.786 -0.3429  0.6657  0.2403
62584SOL     OW98065  10.421   9.537   5.867 -0.1265  0.3072 -0.2095
62584SOL    HW198066  10.495   9.597   5.858  0.6530 -0.7804 -1.2947
62584SOL    HW298067  10.448   9.474   5.934 -0.2811  0.2147 -0.2323
62585SOL     OW98068  11.797   2.655   8.261 -0.0885  0.5263  0.7714
62585SOL    HW198069  11.742   2.690   8.191  1.4986  0.7865 -0.4148
62585SOL    HW298070  11.789   2.560   8.253  0.7108  0.5217 -0.3664
62586SOL     OW98071  12.666   4.169   5.828  0.2142  0.0344  0.2505
62586SOL    HW198072  12.671   4.076   5.846 -0.4107 -0.2622 -1.0146
62586SOL    HW298073  12.629   4.207   5.908  0.3008 -0.8159  0.7044
62587SOL     OW98074   1.382   9.168   7.507  0.7383 -0.2918  0.0915
62587SOL    HW198075   1.392   9.129   7.420 -0.5596 -1.5874  0.4767
62587SOL    HW298076   1.310   9.230   7.497  0.4793 -0.5596  0.2514
62588SOL     OW98077   7.859  11.946   9.465  0.4665  0.1296  0.3975
62588SOL    HW198078   7.938  11.965   9.415 -0.8303  0.2656 -1.6972
62588SOL    HW298079   7.791  12.000   9.425 -1.7000 -3.2423 -0.9069
62589SOL     OW98080   2.514   3.072  12.804 -0.2332  0.2659 -0.2023
62589SOL    HW198081   2.429   3.034  12.784 -0.9975  2.3881 -1.2368
62589SOL    HW298082   2.495   3.151  12.853  1.1036  1.0526 -0.8905
62590SOL     OW98083   7.283   6.278   2.613 -0.2793  0.1906  0.3823
62590SOL    HW198084   7.206   6.292   2.558 -1.2952 -0.8728  1.4877
62590SOL    HW298085   7.297   6.363   2.656 -0.8923  0.3661  0.2475
62591SOL     OW98086   0.054   0.017   4.901  0.2564 -0.2869  0.2923
62591SOL    HW198087   0.001   0.035   4.979 -0.0278 -1.1960  0.3299
62591SOL    HW298088   0.145   0.022   4.932  0.1804  0.5527  0.3971
62592SOL     OW98089   7.263   4.785   6.110 -0.5589  0.4856 -0.0123
62592SOL    HW198090   7.295   4.804   6.198 -0.7505  2.7551 -0.3704
62592SOL    HW298091   7.339   4.750   6.063 -0.0485  0.7207  0.6335
62593SOL     OW98092  10.752   2.919   6.803  0.4371 -0.1425 -0.3160
62593SOL    HW198093  10.715   2.952   6.885  1.9032  1.6941 -0.3338
62593SOL    HW298094  10.748   2.823   6.812 -0.9632  0.0163  1.1603
62594SOL     OW98095   6.535   9.700   6.310 -0.0067 -1.0182 -0.2250
62594SOL    HW198096   6.568   9.745   6.232 -1.2917 -0.7233 -0.6134
62594SOL    HW298097   6.593   9.730   6.381  0.3289 -0.2331 -0.8151
62595SOL     OW98098   1.505  11.988   3.272  0.3888 -0.4714  0.1511
62595SOL    HW198099   1.445  11.914   3.288 -1.0272  0.8132  1.0755
62595SOL    HW298100   1.454  12.049   3.220  0.5635  1.0250  1.6438
62596SOL     OW98101   1.609   1.239   8.695 -0.5957 -0.5973 -0.2754
62596SOL    HW198102   1.673   1.175   8.724  0.3712  0.5767  0.3115
62596SOL    HW298103   1.616   1.310   8.760 -1.9941 -0.1287 -0.5980
62597SOL     OW98104   2.972   3.203   1.242 -0.4144  0.6829 -0.3866
62597SOL    HW198105   2.957   3.135   1.308 -1.2294  1.8413  0.6588
62597SOL    HW298106   3.052   3.247   1.271 -0.3550  0.7238 -0.6071
62598SOL     OW98107   6.535   9.525   1.131  0.1882 -0.2944  0.1856
62598SOL    HW198108   6.610   9.464   1.132 -0.1113 -0.6644  0.8590
62598SOL    HW298109   6.484   9.498   1.055  0.7460 -0.0257 -0.2947
62599SOL     OW98110   1.887  12.817   0.444 -0.3285 -0.2694 -0.1072
62599SOL    HW198111   1.921  12.841   0.358 -0.3413  1.2485  0.2741
62599SOL    HW298112   1.945  12.862   0.506 -0.4137 -1.2106  0.6724
62600SOL     OW98113   7.683   9.002   8.327 -0.0072  0.3301 -0.4132
62600SOL    HW198114   7.631   9.053   8.265 -0.1718 -0.1197 -0.6488
62600SOL    HW298115   7.626   8.929   8.352 -0.1932  0.8574  0.7752
62601SOL     OW98116  11.449   8.952  11.502 -0.3530  0.1203  0.0676
62601SOL    HW198117  11.530   8.906  11.523  0.7044  1.4661 -0.9132
62601SOL    HW298118  11.470   9.004  11.425 -2.1950  0.4218 -0.2747
62602SOL     OW98119  12.300  10.186   5.117  0.4432  0.2700  0.2669
62602SOL    HW198120  12.267  10.235   5.041 -1.0780 -0.3132  0.5058
62602SOL    HW298121  12.366  10.127   5.081  0.9130  1.1455 -0.3331
62603SOL     OW98122  10.309   3.032   0.630  0.7102  0.3229  0.2180
62603SOL    HW198123  10.375   3.001   0.568  0.6188 -0.3227  0.4282
62603SOL    HW298124  10.311   2.967   0.701 -0.9610 -0.3877 -0.3182
62604SOL     OW98125   1.819   9.986  11.978 -0.2675 -0.0035  0.3687
62604SOL    HW198126   1.829  10.042  11.901 -0.7381  0.5943  0.7350
62604SOL    HW298127   1.802  10.046  12.050 -2.4739 -0.6789  0.4845
62605SOL     OW98128   5.641  12.202   7.672  0.0656 -0.5430 -0.5971
62605SOL    HW198129   5.710  12.141   7.646  0.8074  0.2901 -0.6410
62605SOL    HW298130   5.562  12.169   7.629  0.8626 -0.2960 -2.3231
62606SOL     OW98131   8.808   1.604  12.930 -0.2193 -0.5407  0.0541
62606SOL    HW198132   8.720   1.599  12.968 -0.8738  0.6361 -1.2027
62606SOL    HW298133   8.855   1.529  12.968 -1.5442 -0.8062  1.2666
62607SOL     OW98134   2.408   6.338   2.717  0.0247  0.1175 -0.3136
62607SOL    HW198135   2.451   6.335   2.632 -0.5586 -0.6783 -0.5963
62607SOL    HW298136   2.459   6.401   2.768  1.4163 -0.6748 -0.6870
62608SOL     OW98137   6.502   5.556   3.138 -0.2605  0.0504 -0.1909
62608SOL    HW198138   6.577   5.557   3.197  0.5586  0.1408 -1.2130
62608SOL    HW298139   6.532   5.602   3.059 -1.3815  0.0757 -0.6256
62609SOL     OW98140   8.265   2.003   4.954  0.1786  0.5862 -0.4602
62609SOL    HW198141   8.344   1.952   4.971 -0.0436  0.0069 -1.1480
62609SOL    HW298142   8.258   2.061   5.030  0.4234 -0.4081  0.3477
62610SOL     OW98143   0.910   5.310   1.953  0.0233 -0.1692 -0.1626
62610SOL    HW198144   0.829   5.307   1.900 -0.9721  1.1765  1.1881
62610SOL    HW298145   0.907   5.230   2.006 -0.1463 -0.3843 -0.4885
62611SOL     OW98146  10.242  11.996   7.627  0.4414  0.1428  0.6303
62611SOL    HW198147  10.195  11.920   7.661  0.1251  0.2546  0.4483
62611SOL    HW298148  10.216  12.068   7.684 -1.0946  0.6055 -0.5742
62612SOL     OW98149   9.541   2.020   2.472  0.2172  0.2460 -0.3531
62612SOL    HW198150   9.460   2.027   2.522 -0.4045 -0.1482 -1.2700
62612SOL    HW298151   9.527   1.944   2.415  1.0600  0.4379 -0.8304
62613SOL     OW98152   1.127   4.192   6.900  0.0020  0.0627 -0.2368
62613SOL    HW198153   1.172   4.198   6.984 -2.1934  2.0539  0.9300
62613SOL    HW298154   1.074   4.113   6.906 -0.3689  0.3540  0.4002
62614SOL     OW98155   0.698   8.991   5.276 -0.5943 -0.2105 -0.4806
62614SOL    HW198156   0.720   8.955   5.190 -0.1127 -2.2673  0.4462
62614SOL    HW298157   0.627   9.052   5.258 -0.7460 -0.8559 -2.3139
62615SOL     OW98158   0.810   7.645   7.723  0.2609 -0.0026 -0.0174
62615SOL    HW198159   0.730   7.696   7.713  0.9795  1.1998  0.1634
62615SOL    HW298160   0.881   7.708   7.712  1.1967 -1.0463 -0.2062
62616SOL     OW98161   9.438  12.270  11.829 -0.3919  0.4792  0.6428
62616SOL    HW198162   9.513  12.322  11.800 -0.3609 -0.6962 -1.5630
62616SOL    HW298163   9.363  12.307  11.781 -0.7148 -0.1741  0.6262
62617SOL     OW98164   8.210   2.569   5.545  0.4348  0.3829  0.4405
62617SOL    HW198165   8.298   2.577   5.507  0.4550  1.4148  0.6618
62617SOL    HW298166   8.226   2.557   5.638  0.3533 -0.5330  0.3448
62618SOL     OW98167   1.891   1.272   9.571 -0.0178 -0.5194 -0.0028
62618SOL    HW198168   1.970   1.262   9.624 -0.4863  0.0281  0.8358
62618SOL    HW298169   1.919   1.324   9.496 -0.0331  1.8775  1.5265
62619SOL     OW98170  12.121   8.537   4.132  0.5191  0.0005  0.2683
62619SOL    HW198171  12.195   8.476   4.125 -0.6052 -1.6500  1.7557
62619SOL    HW298172  12.157   8.613   4.177  1.5473 -0.3575  0.0723
62620SOL     OW98173  12.551   8.758   9.358  0.0328 -0.0450 -0.2744
62620SOL    HW198174  12.622   8.807   9.317 -0.2107  1.3618  0.9269
62620SOL    HW298175  12.525   8.811   9.433 -1.3591 -1.2248  0.1203
62621SOL     OW98176   4.523   1.543   2.464  0.5798 -0.3381  0.2385
62621SOL    HW198177   4.522   1.470   2.525 -1.4808 -0.9711 -0.4676
62621SOL    HW298178   4.575   1.511   2.390  0.3195 -0.8070  0.2555
62622SOL     OW98179   8.744   5.133   1.151  0.1245 -0.0971 -0.5975
62622SOL    HW198180   8.649   5.147   1.144  0.0105 -0.3308  0.3076
62622SOL    HW298181   8.757   5.043   1.121 -0.0692 -0.3679  0.1038
62623SOL     OW98182   5.356  10.602  10.104 -0.5700  0.0459 -0.0507
62623SOL    HW198183   5.298  10.578  10.176 -0.7531  0.1266 -0.1678
62623SOL    HW298184   5.422  10.660  10.143 -0.8932  0.4000 -0.0191
62624SOL     OW98185   4.052   1.785   2.048 -0.0401 -0.0318 -0.1964
62624SOL    HW198186   4.086   1.842   1.979  0.6463  1.6569  1.4634
62624SOL    HW298187   4.070   1.832   2.129 -4.8657  0.2271  0.9797
62625SOL     OW98188   7.939   9.753   8.175 -0.1176 -0.3364  0.3519
62625SOL    HW198189   7.848   9.782   8.173  0.1796  1.1452  3.1559
62625SOL    HW298190   7.934   9.662   8.205 -0.6708  0.1138  1.7149
62626SOL     OW98191   2.578   1.884   4.417  0.2403 -0.2645  0.3961
62626SOL    HW198192   2.650   1.823   4.428  0.5744 -0.0501 -0.5760
62626SOL    HW298193   2.617   1.962   4.378 -0.7039 -0.5756 -1.2470
62627SOL     OW98194   7.439   8.855   8.886 -0.0586  0.3510 -0.5424
62627SOL    HW198195   7.525   8.878   8.924  0.7668 -1.1432 -1.4124
62627SOL    HW298196   7.376   8.896   8.945  1.2451  2.3266 -0.4068
62628SOL     OW98197   7.107   2.839   7.449  0.5602  0.7918  0.3374
62628SOL    HW198198   7.152   2.763   7.484  3.5432  1.7278 -1.0879
62628SOL    HW298199   7.161   2.866   7.374 -2.6200  1.8933 -1.7549
62629SOL     OW98200  12.123  10.911   8.455 -0.0691 -0.1703 -0.3114
62629SOL    HW198201  12.184  10.884   8.386  1.8037  1.0255  0.7917
62629SOL    HW298202  12.152  10.862   8.532 -0.8825  0.0047  0.1143
62630SOL     OW98203   6.828   2.993   2.975  0.5469 -0.2214  0.7228
62630SOL    HW198204   6.764   2.965   2.910 -0.1553 -0.0555  1.3396
62630SOL    HW298205   6.895   2.924   2.975  0.3897 -0.3774  0.0598
62631SOL     OW98206   5.821   1.749   6.853  0.1183 -0.0611 -0.2922
62631SOL    HW198207   5.850   1.703   6.774  1.1093 -1.2464  0.7280
62631SOL    HW298208   5.775   1.683   6.904  0.3465  0.4279  0.5779
62632SOL     OW98209  11.073   1.817   4.850  0.0088  0.3927 -0.2619
62632SOL    HW198210  10.986   1.815   4.810 -0.0626 -0.3376 -0.0752
62632SOL    HW298211  11.132   1.782   4.783  0.1523  0.8145 -0.3602
62633SOL     OW98212   8.273   1.288   1.346  0.1618  0.5191  0.1297
62633SOL    HW198213   8.308   1.322   1.429  2.1148 -1.5271  0.2637
62633SOL    HW298214   8.254   1.196   1.365 -1.0492  0.4732 -1.2431
62634SOL     OW98215   3.761   4.177   7.002  0.0627  0.0569 -0.1639
62634SOL    HW198216   3.719   4.091   6.993  0.1092  0.2161 -2.6894
62634SOL    HW298217   3.832   4.176   6.938  0.6420  1.6621  0.4067
62635SOL     OW98218   7.684  11.726   4.622 -0.2294  0.9514  0.0752
62635SOL    HW198219   7.673  11.643   4.667 -1.5711  0.7456 -0.5898
62635SOL    HW298220   7.753  11.771   4.671  1.6074 -1.1540 -0.4589
62636SOL     OW98221   1.681   0.170   7.539 -0.2892  0.3803  0.2792
62636SOL    HW198222   1.655   0.118   7.463  0.6158 -0.7124  0.6823
62636SOL    HW298223   1.770   0.200   7.518 -0.1082  0.2381  0.8082
62637SOL     OW98224   0.553   0.398   1.157 -0.4982 -0.5313 -0.0073
62637SOL    HW198225   0.618   0.382   1.226  1.2058  2.7388 -0.6546
62637SOL    HW298226   0.478   0.435   1.203  0.9177  2.3616  0.1952
62638SOL     OW98227  11.620   4.136   2.422  0.5131 -0.6065 -0.0187
62638SOL    HW198228  11.637   4.197   2.494  2.7976 -1.3333  0.1515
62638SOL    HW298229  11.531   4.104   2.438  0.7476 -0.3402  2.1863
62639SOL     OW98230   5.253   6.659   4.888  0.3796  0.0042  0.4054
62639SOL    HW198231   5.330   6.636   4.941  0.2943 -1.7606 -0.1819
62639SOL    HW298232   5.282   6.646   4.798 -0.4167 -0.0105  0.1500
62640SOL     OW98233  11.194  12.581   5.954 -0.1385  0.0450 -0.0643
62640SOL    HW198234  11.150  12.577   5.869  0.4751  0.8175 -0.4347
62640SOL    HW298235  11.267  12.519   5.945  0.6386  1.0105 -0.5411
62641SOL     OW98236   4.693   2.684  12.213 -0.0117 -0.1195  0.2900
62641SOL    HW198237   4.760   2.616  12.201 -0.2335 -0.4839  1.0893
62641SOL    HW298238   4.610   2.638  12.200 -0.1192  0.6023 -2.0905
62642SOL     OW98239   8.247   8.494   5.359  0.1565 -0.3794  0.7814
62642SOL    HW198240   8.167   8.442   5.364  0.6494 -1.0871  1.5858
62642SOL    HW298241   8.295   8.458   5.284 -0.7596  0.7888 -0.4161
62643SOL     OW98242   5.099   4.370   1.757  0.4774 -0.1483 -0.1894
62643SOL    HW198243   5.192   4.361   1.736  0.2215 -0.2254 -1.3621
62643SOL    HW298244   5.059   4.291   1.719 -0.5382  1.4850 -2.7540
62644SOL     OW98245   9.522   2.983   4.435 -0.7706  0.0354  0.1365
62644SOL    HW198246   9.459   3.019   4.372  0.6173 -0.1538 -1.4328
62644SOL    HW298247   9.576   2.923   4.383  0.3474 -0.2406  1.5508
62645SOL     OW98248   8.539   7.988   0.645 -0.4342  0.0825 -0.4797
62645SOL    HW198249   8.523   8.070   0.600 -1.4682  0.6796  0.9020
62645SOL    HW298250   8.549   8.013   0.737 -0.1018 -1.2668 -0.1269
62646SOL     OW98251  10.225   5.394   7.239  0.4455 -0.3022  0.4218
62646SOL    HW198252  10.255   5.423   7.325  0.7292  0.1851  0.1624
62646SOL    HW298253  10.130   5.384   7.249  0.5576 -0.8543  0.9595
62647SOL     OW98254  11.631   6.948   3.017 -0.3892 -0.0937 -0.1360
62647SOL    HW198255  11.540   6.973   3.029 -0.3219 -0.2144  0.6501
62647SOL    HW298256  11.680   7.007   3.075  0.1593  0.8287 -1.4800
62648SOL     OW98257   2.268  10.512   2.588  0.2313 -0.0343 -0.4705
62648SOL    HW198258   2.264  10.452   2.514 -0.6706  0.0210 -0.4760
62648SOL    HW298259   2.211  10.585   2.563 -0.0189  0.0249  0.2446
62649SOL     OW98260   8.705   1.524  11.213  0.0343  0.4896 -0.1244
62649SOL    HW198261   8.624   1.507  11.165 -0.3161  0.4300  0.4788
62649SOL    HW298262   8.704   1.619  11.229  0.3760  0.5821 -0.6264
62650SOL     OW98263   7.102   9.049   3.432  0.2174 -0.2137  0.0327
62650SOL    HW198264   7.029   9.000   3.394  0.7295  0.1806 -1.5538
62650SOL    HW298265   7.064   9.133   3.457 -0.3370 -0.8329  1.3545
62651SOL     OW98266   4.404   9.704   2.017  0.1755 -0.3669  0.5020
62651SOL    HW198267   4.320   9.746   2.034  0.4249  0.3929 -0.0551
62651SOL    HW298268   4.401   9.683   1.923  0.9443  0.4741  0.2764
62652SOL     OW98269   0.383   5.026   2.111 -1.0249 -0.3537 -0.0385
62652SOL    HW198270   0.301   4.980   2.130 -0.4329 -0.9498  1.1071
62652SOL    HW298271   0.433   5.022   2.192  0.2674 -0.2340 -0.8033
62653SOL     OW98272   6.306   3.410   2.652 -0.5795 -0.4109  0.1798
62653SOL    HW198273   6.318   3.476   2.584  0.1904  0.5377  1.1941
62653SOL    HW298274   6.281   3.461   2.730 -1.9981 -1.5162  0.4797
62654SOL     OW98275   2.927   6.754   7.796  0.5929 -0.0307  0.5405
62654SOL    HW198276   2.963   6.720   7.878  0.4615  1.0357  1.0589
62654SOL    HW298277   2.840   6.786   7.819  0.5905  0.3680  0.0095
62655SOL     OW98278   0.579  10.230  12.647  0.2165 -0.1221  0.7167
62655SOL    HW198279   0.506  10.172  12.671 -0.6881  0.7114  0.0344
62655SOL    HW298280   0.552  10.317  12.677  0.0799  0.5295 -1.1770
62656SOL     OW98281  12.404   0.873   2.803  0.7311  0.0819  0.8843
62656SOL    HW198282  12.389   0.780   2.818  1.2133 -0.4592 -1.6032
62656SOL    HW298283  12.480   0.876   2.745 -0.7017  1.8491 -1.0627
62657SOL     OW98284   9.245  12.964   6.048  0.5198 -0.1046 -0.1833
62657SOL    HW198285   9.156  12.946   6.019 -0.3730 -0.0236  2.2859
62657SOL    HW298286   9.271  12.885   6.097  1.2572  0.4170  0.2949
62658SOL     OW98287   1.125  11.047  12.970  0.0618 -0.2323 -0.3543
62658SOL    HW198288   1.094  11.006  13.051  2.6074 -0.4485  0.6388
62658SOL    HW298289   1.168  10.976  12.923  0.7106  0.3751 -0.7018
62659SOL     OW98290   2.554   5.421   9.308 -0.3042 -0.0066 -0.2073
62659SOL    HW198291   2.632   5.404   9.361  0.1150  0.0677 -0.7907
62659SOL    HW298292   2.524   5.508   9.334  2.2893  1.9162 -2.9226
62660SOL     OW98293  10.333   9.735   0.739  0.0260 -0.6324  0.6887
62660SOL    HW198294  10.338   9.706   0.648  1.1981  0.9361  0.2133
62660SOL    HW298295  10.382   9.669   0.788 -2.1881 -2.5290  0.5235
62661SOL     OW98296   2.965  12.917  11.023 -0.1547 -0.9061 -0.4030
62661SOL    HW198297   2.991  12.888  11.110  0.5442  1.0678  0.0965
62661SOL    HW298298   3.042  12.961  10.989 -0.6707 -0.9962 -1.7355
62662SOL     OW98299   2.928   5.485   5.600 -0.2223 -0.7404  0.2223
62662SOL    HW198300   2.838   5.513   5.583 -0.2257 -1.2403 -0.6772
62662SOL    HW298301   2.969   5.559   5.644 -0.8822 -0.2422  0.0086
62663SOL     OW98302   2.790   8.047   3.753 -0.1354  0.0507 -0.3287
62663SOL    HW198303   2.839   7.999   3.820  0.4760  0.9171 -0.1495
62663SOL    HW298304   2.719   7.987   3.729  0.0183 -0.5368  0.6181
62664SOL     OW98305   8.559   9.146  12.179 -0.7818  0.0428 -0.6903
62664SOL    HW198306   8.652   9.169  12.183 -0.5136 -0.5032 -2.7228
62664SOL    HW298307   8.515   9.225  12.149 -1.0889  0.4526  0.7358
62665SOL     OW98308   9.568   2.176  12.329  0.1512  0.2886  0.7167
62665SOL    HW198309   9.609   2.090  12.337 -0.7316  0.0084  3.2650
62665SOL    HW298310   9.482   2.159  12.291  0.6723  0.3277 -0.5302
62666SOL     OW98311   3.605   7.998   4.852  0.6837 -0.0703  0.2725
62666SOL    HW198312   3.640   8.013   4.940 -0.1816  0.7877  0.4773
62666SOL    HW298313   3.640   8.070   4.800 -1.6084  1.4694  0.7329
62667SOL     OW98314   1.981   6.949  12.196 -0.0387 -0.6558  0.1305
62667SOL    HW198315   1.987   7.003  12.117  3.8662  0.0403  0.7309
62667SOL    HW298316   1.907   6.986  12.245  0.4135  1.9770 -1.0421
62668SOL     OW98317   9.670  12.805   4.507  0.1542 -0.1273  0.4838
62668SOL    HW198318   9.603  12.864   4.470  2.0936  1.0403 -1.4021
62668SOL    HW298319   9.674  12.829   4.599 -1.3004  0.4719  0.4257
62669SOL     OW98320  10.199  11.160   2.816 -0.1492  0.2353 -0.4027
62669SOL    HW198321  10.256  11.101   2.865 -2.0573 -2.6340 -1.3674
62669SOL    HW298322  10.201  11.127   2.726 -0.0198  2.7625 -1.4062
62670SOL     OW98323  10.898   3.023   4.575 -0.2137 -0.8021  0.0732
62670SOL    HW198324  10.843   3.056   4.504 -0.1817  0.4456  0.6094
62670SOL    HW298325  10.874   2.930   4.582 -1.2205 -0.6168 -0.6334
62671SOL     OW98326   5.586   0.968   7.866  0.0048 -0.0555 -0.1833
62671SOL    HW198327   5.670   0.921   7.860  0.1766  0.3260 -0.8910
62671SOL    HW298328   5.578   1.013   7.782 -0.5738  0.4859  0.1538
62672SOL     OW98329   7.432   7.539   2.578  0.0507  0.0679  0.3621
62672SOL    HW198330   7.341   7.514   2.567 -0.2064 -0.9088  3.5297
62672SOL    HW298331   7.429   7.631   2.606  0.0425  0.0937  0.2748
62673SOL     OW98332   8.534   0.180  11.301  0.1715 -0.4970 -0.3730
62673SOL    HW198333   8.614   0.230  11.291  0.4046 -0.9152 -0.6429
62673SOL    HW298334   8.558   0.107  11.357  0.1388 -0.9633 -0.9567
62674SOL     OW98335   4.132   3.915  10.638  0.6374  0.0327 -0.2350
62674SOL    HW198336   4.208   3.897  10.583  0.1041  0.7311 -1.2324
62674SOL    HW298337   4.133   4.010  10.650  1.1719 -0.1637  1.6263
62675SOL     OW98338  10.172   0.858  11.752  0.1701 -0.0696  0.2450
62675SOL    HW198339  10.151   0.942  11.711  0.1768 -0.1750  0.0239
62675SOL    HW298340  10.145   0.868  11.843 -0.8209 -0.1960 -0.0255
62676SOL     OW98341   4.103   7.032  11.568 -0.2201 -0.2116  0.4712
62676SOL    HW198342   4.059   7.052  11.486 -0.9247  0.2054  0.9404
62676SOL    HW298343   4.185   7.082  11.564 -0.1030 -0.4508 -0.1160
62677SOL     OW98344   8.362  10.300  10.517 -0.1084  0.1095 -0.1202
62677SOL    HW198345   8.388  10.390  10.539  0.8006 -0.4203  1.1057
62677SOL    HW298346   8.352  10.257  10.602 -1.0851 -0.8113 -0.6778
62678SOL     OW98347   3.370   6.205   9.303 -0.0301 -0.1737 -0.1973
62678SOL    HW198348   3.279   6.228   9.288 -0.1327  0.9016  1.7479
62678SOL    HW298349   3.367   6.115   9.335 -0.4247 -0.1339 -0.1153
62679SOL     OW98350  11.237   3.433   2.073  0.3673  0.6077  0.3727
62679SOL    HW198351  11.256   3.504   2.011  0.0876  1.3105  1.0704
62679SOL    HW298352  11.307   3.438   2.137  1.4316 -1.0045 -0.6001
62680SOL     OW98353  11.133   7.164   2.106 -0.0716 -0.0309  0.2205
62680SOL    HW198354  11.156   7.124   2.190  4.7171 -0.3963 -0.9562
62680SOL    HW298355  11.217   7.171   2.060 -1.8772  3.7632 -3.0075
62681SOL     OW98356  11.353   7.430   2.722  0.4366  0.4115  0.5118
62681SOL    HW198357  11.279   7.467   2.674  0.1362 -0.9495 -0.1385
62681SOL    HW298358  11.316   7.355   2.769  1.4113 -0.3740  0.0630
62682SOL     OW98359   7.409   6.946   3.425  0.0339 -0.1858  0.2682
62682SOL    HW198360   7.366   6.894   3.493  1.3694  0.0985  1.3896
62682SOL    HW298361   7.399   6.895   3.345 -2.1154 -0.2481  0.5076
62683SOL     OW98362   6.436   7.916   0.425 -0.2493 -0.8319  0.2566
62683SOL    HW198363   6.356   7.963   0.450 -0.9405 -0.9172 -1.6661
62683SOL    HW298364   6.431   7.833   0.473  0.2186  0.3170  2.4760
62684SOL     OW98365   1.007   1.934   9.397 -0.3529 -0.4221  0.1807
62684SOL    HW198366   0.973   1.994   9.464 -0.4051 -0.6758  0.3825
62684SOL    HW298367   1.049   1.864   9.447  1.1674  0.2714 -0.0613
62685SOL     OW98368   0.607   5.685   9.368 -0.3230  0.1054 -0.7133
62685SOL    HW198369   0.580   5.670   9.459  0.1340  2.8515 -0.0381
62685SOL    HW298370   0.658   5.608   9.345 -2.2955 -1.6970  0.5511
62686SOL     OW98371   4.318  11.712   2.237 -0.5732  0.3721  0.0342
62686SOL    HW198372   4.242  11.659   2.212 -0.6100  1.1966 -1.7622
62686SOL    HW298373   4.302  11.797   2.197  1.0139  0.7553  0.1473
62687SOL     OW98374  11.476   3.683   2.734  0.4754  0.2311 -0.3352
62687SOL    HW198375  11.451   3.775   2.724  0.5375  0.5736  2.1167
62687SOL    HW298376  11.569   3.686   2.756  0.5393 -0.4407 -0.5000
62688SOL     OW98377  12.607  10.173  12.326  0.3283 -0.3621  0.3087
62688SOL    HW198378  12.641  10.182  12.237 -0.2401  1.6593  0.2552
62688SOL    HW298379  12.680  10.137  12.376  0.7407 -1.2750 -0.9056
62689SOL     OW98380   5.228   2.945   1.384 -0.0505 -0.2729  0.4556
62689SOL    HW198381   5.171   3.020   1.402 -0.0116  0.3746 -1.7514
62689SOL    HW298382   5.266   2.964   1.298 -0.9434 -3.3466 -0.7562
62690SOL     OW98383   5.973   2.059   9.939  0.7355 -0.5985  0.5467
62690SOL    HW198384   6.060   2.020   9.940  0.6932 -0.6876  1.3180
62690SOL    HW298385   5.988   2.153   9.942  0.8040 -0.6338  2.0707
62691SOL     OW98386   3.398   8.084   5.705  0.0448 -0.0123 -1.3947
62691SOL    HW198387   3.310   8.121   5.695  0.0931  0.1969 -1.0336
62691SOL    HW298388   3.383   7.991   5.724 -0.0620 -0.4122 -3.2442
62692SOL     OW98389   4.858   1.990   6.314  0.4961 -0.0980 -0.0025
62692SOL    HW198390   4.817   1.984   6.401  1.4775  0.4122  0.5096
62692SOL    HW298391   4.910   1.911   6.307 -1.5039 -1.4011 -1.1900
62693SOL     OW98392   0.948   6.534   9.935  0.2895  0.0490 -0.0397
62693SOL    HW198393   0.942   6.625   9.904 -2.2893 -0.5284 -1.5737
62693SOL    HW298394   1.038   6.508   9.916  0.4133  1.5812 -1.8207
62694SOL     OW98395  11.168  12.132   8.483 -0.1042 -0.2003  0.8588
62694SOL    HW198396  11.230  12.098   8.418 -1.3059 -1.7758  0.4724
62694SOL    HW298397  11.202  12.100   8.567  0.0647 -0.3411  0.7391
62695SOL     OW98398  11.481   6.376   5.639 -0.3381  0.0818  0.1784
62695SOL    HW198399  11.431   6.456   5.621 -0.1545  0.2530  0.4336
62695SOL    HW298400  11.563   6.407   5.677 -0.6424 -0.2641  1.1427
62696SOL     OW98401   2.935  12.287   6.407 -0.0744  0.1955  0.3664
62696SOL    HW198402   2.850  12.246   6.426  0.2983 -0.2789  1.0535
62696SOL    HW298403   2.985  12.277   6.488 -0.2543  2.7842  0.8918
62697SOL     OW98404   1.546   0.658   4.344 -0.3712 -0.2322  0.6729
62697SOL    HW198405   1.512   0.727   4.401  0.3207  0.4514  0.2704
62697SOL    HW298406   1.547   0.580   4.399  1.8916  0.7521  2.1760
62698SOL     OW98407   4.166   6.661   8.053 -0.2891 -0.6902  0.0278
62698SOL    HW198408   4.171   6.704   8.138 -2.0292  1.3520 -0.8116
62698SOL    HW298409   4.109   6.586   8.067  0.4596 -1.1025  0.9166
62699SOL     OW98410   1.809   1.389  10.431  0.0548  0.5074  0.0622
62699SOL    HW198411   1.801   1.447  10.356 -1.6105  1.3168  0.8094
62699SOL    HW298412   1.794   1.302  10.396  1.9261  0.5464 -0.9631
62700SOL     OW98413   4.043   3.449   7.481 -0.2820 -0.1718  0.9753
62700SOL    HW198414   4.027   3.395   7.403 -0.4559  0.6906  0.3935
62700SOL    HW298415   4.120   3.409   7.522  1.3074  0.6808 -0.9431
62701SOL     OW98416  10.108   3.304   9.059 -0.3897  0.0883 -0.4548
62701SOL    HW198417  10.163   3.362   9.113 -0.4660 -1.8206  1.8394
62701SOL    HW298418  10.019   3.336   9.073 -0.2071  1.1640 -1.5623
62702SOL     OW98419   9.923  10.984   5.177  0.3398 -0.0463  0.1148
62702SOL    HW198420   9.875  10.912   5.216 -0.4468 -0.9397 -2.3020
62702SOL    HW298421  10.015  10.959   5.186  0.1861 -0.2857  1.1705
62703SOL     OW98422   9.538   5.253   6.109  0.4398  0.9870  0.1742
62703SOL    HW198423   9.603   5.193   6.144  0.4367  0.4643 -0.6910
62703SOL    HW298424   9.473   5.262   6.179  0.2193 -0.3543  0.1588
62704SOL     OW98425  11.483  11.839   6.214  0.1164  0.2939  0.1320
62704SOL    HW198426  11.550  11.885   6.264  1.0002  0.2370 -0.9595
62704SOL    HW298427  11.408  11.899   6.213  0.4684  0.7431  0.6092
62705SOL     OW98428   1.930   3.231  12.786 -0.0158  0.1873  0.3063
62705SOL    HW198429   1.964   3.166  12.724  0.8216 -0.6612  1.6054
62705SOL    HW298430   1.867   3.183  12.839 -0.6934  0.8936  0.1592
62706SOL     OW98431   3.278   4.615   8.213  0.0166  0.3158 -0.2024
62706SOL    HW198432   3.337   4.674   8.165  0.8661  0.7967  1.3442
62706SOL    HW298433   3.248   4.667   8.287 -3.6944  0.6461 -1.7176
62707SOL     OW98434  11.130   0.893  12.214  0.4005  0.0013  0.5527
62707SOL    HW198435  11.068   0.834  12.171  0.1143 -0.6613  1.8223
62707SOL    HW298436  11.076   0.966  12.243  0.3155 -0.2699  1.0918
62708SOL     OW98437   3.121  12.187   1.316 -0.5071  0.2808 -0.5528
62708SOL    HW198438   3.047  12.246   1.326 -0.1247  0.9392 -1.5110
62708SOL    HW298439   3.173  12.225   1.246 -0.4327 -1.3913 -1.4569
62709SOL     OW98440  10.098  12.285   9.257 -0.2324  0.2132  0.5068
62709SOL    HW198441  10.126  12.194   9.249 -0.7164 -0.3112  3.4280
62709SOL    HW298442  10.179  12.333   9.275  0.1183  0.5379 -1.6974
62710SOL     OW98443  10.301   5.081   4.282 -0.2189 -0.3049 -0.6490
62710SOL    HW198444  10.299   5.047   4.192 -1.0183 -1.5549 -0.1797
62710SOL    HW298445  10.357   5.159   4.277  1.7378 -1.7008 -1.7750
62711SOL     OW98446   6.483   9.127   9.456 -0.4322  0.6493  0.1404
62711SOL    HW198447   6.512   9.077   9.533  0.4446  1.6972  0.5191
62711SOL    HW298448   6.427   9.196   9.492 -1.7194 -0.0788 -0.3878
62712SOL     OW98449  12.860  10.215  12.876 -0.0783 -0.0769 -0.1394
62712SOL    HW198450  12.884  10.236  12.785 -0.5522  1.8891  0.1316
62712SOL    HW298451  12.808  10.291  12.904 -0.4183 -0.9177  1.6012
62713SOL     OW98452   5.047   4.657   1.673 -0.1078  0.3238  0.1458
62713SOL    HW198453   4.967   4.694   1.638  0.0237  1.2442  0.7868
62713SOL    HW298454   5.026   4.564   1.687 -0.8607  0.4290 -0.2383
62714SOL     OW98455   1.389   9.553   7.375 -0.0356 -0.2602  0.2939
62714SOL    HW198456   1.474   9.567   7.417  0.4947 -1.3584 -0.3826
62714SOL    HW298457   1.364   9.640   7.344  0.8623  0.0679  0.4603
62715SOL     OW98458  12.199  10.595   4.938  0.7491  1.0400 -0.5766
62715SOL    HW198459  12.125  10.572   4.995  2.4615 -1.6549  0.7892
62715SOL    HW298460  12.265  10.632   4.997  3.0624 -2.9838 -0.2527
62716SOL     OW98461  10.944   5.186  11.331  0.6470  0.2927  0.4931
62716SOL    HW198462  10.965   5.103  11.287 -0.3514  0.6643 -0.7489
62716SOL    HW298463  10.857   5.172  11.368  1.2947  0.1387  2.0361
62717SOL     OW98464   1.579   8.237   7.602 -0.2675 -0.1107  0.0640
62717SOL    HW198465   1.667   8.272   7.590  0.4432 -1.8791 -0.1049
62717SOL    HW298466   1.527   8.281   7.534  0.0864  2.1156  1.1461
62718SOL     OW98467   9.686   1.600   4.789 -0.0810 -0.0342 -0.5564
62718SOL    HW198468   9.719   1.573   4.703  0.7721 -1.3910  0.1473
62718SOL    HW298469   9.655   1.519   4.829  1.0761  0.2521  1.0380
62719SOL     OW98470   5.571  12.011   7.382 -0.1246  0.0194 -0.0508
62719SOL    HW198471   5.563  11.925   7.424 -1.6037  0.7394  1.2656
62719SOL    HW298472   5.494  12.059   7.412  0.3958  1.6364 -1.1826
62720SOL     OW98473   0.519   8.917   7.741  0.0087 -0.1156 -0.3002
62720SOL    HW198474   0.551   8.865   7.814  0.3008 -0.3766 -0.6124
62720SOL    HW298475   0.534   8.862   7.664 -0.6860 -0.0173 -0.5099
62721SOL     OW98476  11.797   0.583   1.092 -0.4032  0.3116  0.4064
62721SOL    HW198477  11.758   0.496   1.099 -0.5943  0.2636 -0.9211
62721SOL    HW298478  11.806   0.598   0.998  1.3667  0.9775  0.6400
62722SOL     OW98479  10.948   0.088   0.071 -0.1460  0.3292  0.6235
62722SOL    HW198480  10.965   0.129   0.156  0.6806  0.8342  0.2275
62722SOL    HW298481  10.906   0.157   0.019 -2.0441 -0.4255  1.0768
62723SOL     OW98482   8.562   2.313  12.692  0.2323  0.3272 -0.0929
62723SOL    HW198483   8.480   2.344  12.653  0.5389  0.2751 -0.7993
62723SOL    HW298484   8.572   2.224  12.660  0.2243  0.0981  0.5400
62724SOL     OW98485   9.823   0.764   3.463  0.2850  0.0635  0.1679
62724SOL    HW198486   9.809   0.833   3.398 -1.1226 -1.5459 -1.3464
62724SOL    HW298487   9.917   0.765   3.480  0.3723  1.9065 -0.3071
62725SOL     OW98488   0.309   8.411   9.393  0.1794 -0.2961  0.4407
62725SOL    HW198489   0.361   8.487   9.365  1.3280  0.0065  3.1500
62725SOL    HW298490   0.369   8.337   9.386 -0.1901 -0.5772  0.1616
62726SOL     OW98491   4.866   5.336   1.204 -0.3486 -0.4715  0.1585
62726SOL    HW198492   4.771   5.324   1.205 -0.3985 -0.2858 -0.7335
62726SOL    HW298493   4.899   5.263   1.153 -0.1058 -0.0513 -0.3010
62727SOL     OW98494   6.897   3.670   8.345  0.5019 -0.3640 -0.3626
62727SOL    HW198495   6.816   3.696   8.388  0.8781 -1.2880  0.9859
62727SOL    HW298496   6.967   3.698   8.405  1.1802  0.1683 -1.3671
62728SOL     OW98497   7.866   9.033   5.555  0.0400 -0.3787 -0.3144
62728SOL    HW198498   7.893   9.052   5.464  1.6136 -3.9381 -0.7517
62728SOL    HW298499   7.833   8.943   5.552  1.9015 -1.3227  2.9086
62729SOL     OW98500  11.848   0.870   0.009 -0.6883 -0.0695 -0.5603
62729SOL    HW198501  11.871   0.823  -0.071 -1.6756 -1.5677 -0.0164
62729SOL    HW298502  11.787   0.938  -0.020  0.7807  0.9717 -1.3638
62730SOL     OW98503   5.777   5.510   6.044  0.3206 -0.1516 -0.6458
62730SOL    HW198504   5.740   5.462   5.970  2.6368 -0.5303 -1.6573
62730SOL    HW298505   5.858   5.548   6.009  1.4944 -0.3331  1.6918
62731SOL     OW98506   4.040  10.894   7.511  0.0129  0.1424  0.0557
62731SOL    HW198507   3.963  10.949   7.493 -0.3025 -0.3109  0.0168
62731SOL    HW298508   4.060  10.912   7.603 -0.6104 -0.3089  0.2882
62732SOL     OW98509  12.265   7.447   1.424 -0.5346 -0.0817  0.2666
62732SOL    HW198510  12.303   7.516   1.370 -1.8077 -0.0521 -0.6283
62732SOL    HW298511  12.308   7.367   1.394 -0.2817  0.0985  0.1428
62733SOL     OW98512   6.893   6.611   7.399 -0.1923 -0.5614 -0.0432
62733SOL    HW198513   6.799   6.599   7.405 -0.0764 -0.8816  1.5809
62733SOL    HW298514   6.923   6.537   7.346 -0.9801  0.3808 -1.8759
62734SOL     OW98515   3.457   4.483   5.942 -0.0881  0.2132 -0.2975
62734SOL    HW198516   3.429   4.403   5.897  2.2988 -0.6173 -0.4336
62734SOL    HW298517   3.494   4.538   5.873  1.7152 -0.1997  0.2857
62735SOL     OW98518  12.816  10.349   5.341  0.2173  0.4332 -0.1809
62735SOL    HW198519  12.793  10.431   5.385 -1.5060  0.3124 -0.7710
62735SOL    HW298520  12.852  10.376   5.257 -1.2106  0.6345 -0.7730
62736SOL     OW98521   2.717   7.432   8.482 -0.3610 -0.0144 -0.7082
62736SOL    HW198522   2.662   7.467   8.412  0.2719 -0.2035 -1.3206
62736SOL    HW298523   2.673   7.351   8.509 -0.8431  0.2876 -0.5811
62737SOL     OW98524   0.942   0.471  11.741 -0.3119  0.2686 -0.1533
62737SOL    HW198525   0.925   0.443  11.651 -1.4678  2.3562 -0.6434
62737SOL    HW298526   0.874   0.427  11.792 -0.4289  0.0445 -0.4944
62738SOL     OW98527  12.174   6.028   1.436 -0.3244 -0.1651  0.2969
62738SOL    HW198528  12.103   5.975   1.472  1.5656 -2.8888  0.3403
62738SOL    HW298529  12.175   6.007   1.342  0.6545 -0.4890  0.3687
62739SOL     OW98530   3.946  10.559   0.049  0.0343 -0.6289  0.1818
62739SOL    HW198531   3.943  10.504   0.127 -1.3619 -1.4339 -0.3981
62739SOL    HW298532   3.999  10.510  -0.013 -1.1547 -1.3293 -0.3117
62740SOL     OW98533   2.042   0.811   0.319  0.1569  0.5299 -0.5653
62740SOL    HW198534   2.105   0.881   0.305  1.3352 -0.6341 -1.2675
62740SOL    HW298535   2.066   0.744   0.255 -2.4700  0.4908 -1.6301
62741SOL     OW98536   8.208  12.680   4.748  0.4486 -0.5082 -0.3215
62741SOL    HW198537   8.185  12.703   4.658  1.1154 -2.8725 -1.1624
62741SOL    HW298538   8.162  12.745   4.801 -2.3339 -0.7349 -2.2078
62742SOL     OW98539  12.769   4.660   6.791  0.2819 -0.1308 -0.0112
62742SOL    HW198540  12.674   4.655   6.787  0.3298 -0.5257 -0.7244
62742SOL    HW298541  12.799   4.607   6.718  1.0342  1.0126 -0.5548
62743SOL     OW98542   1.336  10.672   2.569 -0.4389 -0.4627  0.1425
62743SOL    HW198543   1.272  10.621   2.519  0.2598 -1.0779 -0.1541
62743SOL    HW298544   1.398  10.606   2.602 -0.4361  0.0213  1.1460
62744SOL     OW98545   3.348  10.462   5.214 -0.4487 -0.1018  0.3428
62744SOL    HW198546   3.404  10.389   5.186 -0.7435  0.9179 -3.3234
62744SOL    HW298547   3.259  10.429   5.204 -0.5856  0.6944 -1.4271
62745SOL     OW98548   8.901   8.223   8.182  0.3736 -0.6391 -0.1806
62745SOL    HW198549   8.933   8.149   8.233  0.2638 -1.5954 -1.4668
62745SOL    HW298550   8.831   8.188   8.128  0.0551  0.4915 -0.5438
62746SOL     OW98551   1.300   7.591   0.911 -0.6097 -0.3213 -0.2987
62746SOL    HW198552   1.278   7.526   0.844 -0.9971 -0.0352 -0.4539
62746SOL    HW298553   1.231   7.657   0.904  0.3025  0.6180 -0.8250
62747SOL     OW98554   8.291   1.649   3.814 -0.0731 -0.0557 -0.0131
62747SOL    HW198555   8.270   1.570   3.865 -0.9720 -0.0015 -0.2775
62747SOL    HW298556   8.305   1.717   3.880  0.4953 -0.3827  0.2107
62748SOL     OW98557   9.692   1.926   7.396 -0.3416  0.5333 -0.5337
62748SOL    HW198558   9.741   1.983   7.336  2.0928  2.3720  2.8719
62748SOL    HW298559   9.760   1.877   7.443 -2.1161 -0.8283  0.7514
62749SOL     OW98560   9.571   8.020   6.159  0.2661 -0.2817  0.1546
62749SOL    HW198561   9.587   7.960   6.232  2.1629  1.4775  1.3065
62749SOL    HW298562   9.655   8.023   6.113 -0.4332 -0.1009 -1.1215
62750SOL     OW98563  11.844  12.120   5.333 -0.2111 -0.2557  0.1321
62750SOL    HW198564  11.768  12.113   5.274 -0.1462 -0.7084  0.1017
62750SOL    HW298565  11.854  12.032   5.369 -0.0598 -0.0504  0.5852
62751SOL     OW98566  11.584   4.033   4.017 -0.5058  1.0952 -0.0959
62751SOL    HW198567  11.550   3.981   4.089 -2.3000 -2.3345 -3.0492
62751SOL    HW298568  11.510   4.089   3.991 -0.5540  0.8741 -0.4442
62752SOL     OW98569  10.819  11.337   1.246  0.1041 -0.0111  0.1528
62752SOL    HW198570  10.784  11.255   1.214  2.1580 -0.5633 -0.8994
62752SOL    HW298571  10.775  11.352   1.330  0.3139 -2.6370  0.8098
62753SOL     OW98572   0.819   4.695   2.058 -0.1779 -0.9927 -0.2539
62753SOL    HW198573   0.755   4.702   1.987  0.6091  0.0842 -0.8821
62753SOL    HW298574   0.775   4.643   2.125 -1.1924 -1.4398 -1.2437
62754SOL     OW98575   1.433   3.787   3.351 -0.0070  0.2260  0.1577
62754SOL    HW198576   1.443   3.882   3.344 -0.9935  0.4438  1.4232
62754SOL    HW298577   1.522   3.752   3.342  0.3561  1.2523 -0.3373
62755SOL     OW98578   1.547   7.575   3.966  0.1475  0.0292 -0.1202
62755SOL    HW198579   1.572   7.607   3.879 -2.5737  0.6079 -0.7703
62755SOL    HW298580   1.537   7.480   3.954 -0.3026  0.1179 -0.4613
62756SOL     OW98581   4.700   3.003  11.182  0.5831  0.2746  0.1638
62756SOL    HW198582   4.766   2.935  11.163  1.2058  0.6711  0.8392
62756SOL    HW298583   4.734   3.048  11.260 -0.9319 -0.0889  1.0867
62757SOL     OW98584   0.852  11.191  10.604  0.7287  0.4921 -0.4164
62757SOL    HW198585   0.849  11.283  10.631 -0.2653  0.3072  0.1366
62757SOL    HW298586   0.804  11.189  10.521 -0.5949  0.2394  0.3270
62758SOL     OW98587   3.539   4.700  12.177 -0.5110  0.0499  0.2234
62758SOL    HW198588   3.492   4.766  12.126  0.3067  2.1801  2.0436
62758SOL    HW298589   3.487   4.690  12.257 -0.4743 -1.3542  0.0907
62759SOL     OW98590   0.176  11.932   3.018 -0.0533 -0.1657 -0.3681
62759SOL    HW198591   0.269  11.953   3.028 -0.6599  2.1223  1.3767
62759SOL    HW298592   0.171  11.837   3.032  1.8686 -0.1307  0.9521
62760SOL     OW98593   9.577   1.161   3.276  0.1178 -0.6756  0.4566
62760SOL    HW198594   9.660   1.114   3.269  0.0202 -0.9385  1.0314
62760SOL    HW298595   9.530   1.117   3.347 -0.7492 -0.8884 -0.2274
62761SOL     OW98596   4.208   5.078   9.058 -0.6895 -0.1041  0.4200
62761SOL    HW198597   4.229   4.987   9.081  0.6542  0.1854  0.3710
62761SOL    HW298598   4.258   5.095   8.979 -1.0002  0.6696  0.3819
62762SOL     OW98599   4.968   0.286   7.599  0.4262  0.2839 -0.3624
62762SOL    HW198600   4.944   0.326   7.516 -0.9905  0.2172 -0.0185
62762SOL    HW298601   5.050   0.240   7.581  0.5741  0.9595 -1.4972
62763SOL     OW98602   0.794   5.183  11.329 -0.1337 -0.3117  0.2609
62763SOL    HW198603   0.704   5.178  11.297 -0.4026 -0.9045  1.0797
62763SOL    HW298604   0.810   5.097  11.368  0.7060 -0.1243  0.3516
62764SOL     OW98605   5.574   9.952  12.942 -0.1252  0.1661 -0.0777
62764SOL    HW198606   5.611  10.018  13.000  0.1634 -1.4820  1.7047
62764SOL    HW298607   5.625   9.873  12.958  0.4673 -0.2390 -3.1760
62765SOL     OW98608  12.431   8.473   1.379  0.0377 -0.1762  0.5581
62765SOL    HW198609  12.424   8.476   1.284 -0.3772 -0.0519  0.5908
62765SOL    HW298610  12.525   8.474   1.397  0.1081  1.6841  0.2193
62766SOL     OW98611   6.974  12.904   4.548 -0.1864  0.3980 -0.2778
62766SOL    HW198612   6.955  12.811   4.553  1.8399 -0.2509 -2.5325
62766SOL    HW298613   6.907  12.940   4.491 -1.2411  0.4624  0.9589
62767SOL     OW98614   3.658   4.220  10.053  0.2171  0.3823  0.3314
62767SOL    HW198615   3.666   4.126  10.035 -1.6038  0.0383  1.1407
62767SOL    HW298616   3.585   4.227  10.114 -0.0774  2.3919 -0.1771
62768SOL     OW98617   6.410  10.115   9.100 -0.0217  0.1540 -0.2751
62768SOL    HW198618   6.421  10.088   9.191 -1.6561 -0.6051 -0.2684
62768SOL    HW298619   6.449  10.203   9.097  1.0217 -0.2305  0.8754
62769SOL     OW98620   7.918   9.117   7.116 -0.0159  0.1232  0.5735
62769SOL    HW198621   7.965   9.200   7.109 -0.0454  0.0569 -0.6196
62769SOL    HW298622   7.877   9.105   7.030  0.7579 -1.5802  0.3965
62770SOL     OW98623  11.681  11.019  11.126 -0.1344 -0.0269 -0.5677
62770SOL    HW198624  11.605  11.076  11.134 -1.6140 -2.0562  0.8488
62770SOL    HW298625  11.702  10.993  11.216  0.8859 -1.1988 -1.0993
62771SOL     OW98626   1.354   0.981  12.551  0.1333 -0.1866  0.7098
62771SOL    HW198627   1.292   1.000  12.621  0.5558  1.4626  0.6769
62771SOL    HW298628   1.340   0.889  12.531 -1.7113 -0.0724  1.2807
62772SOL     OW98629   7.378   4.144   4.023  0.4531 -0.3596 -0.0298
62772SOL    HW198630   7.340   4.120   4.108  2.9290 -1.5551  0.8299
62772SOL    HW298631   7.385   4.239   4.026  2.6036 -0.4913  2.1761
62773SOL     OW98632   6.516   0.088   1.136 -0.1765  0.1608 -0.2343
62773SOL    HW198633   6.506   0.136   1.054 -1.4979  0.0318 -0.1581
62773SOL    HW298634   6.610   0.069   1.140  0.0377  0.8656 -1.3133
62774SOL     OW98635   1.736  10.582   6.525 -0.3492 -0.0593  0.1143
62774SOL    HW198636   1.672  10.523   6.487  0.1139 -0.2682 -0.3635
62774SOL    HW298637   1.791  10.526   6.580  0.5297 -0.2250 -0.8957
62775SOL     OW98638   7.467   6.817   5.980  0.0194 -0.7643 -0.0576
62775SOL    HW198639   7.521   6.751   5.937  0.0548 -0.4330 -0.5318
62775SOL    HW298640   7.396   6.767   6.020 -0.9557 -0.9740 -1.9237
62776SOL     OW98641   0.247   9.557   6.960 -0.1322 -0.4083  0.6332
62776SOL    HW198642   0.319   9.607   6.998 -0.1332 -0.3715  0.5858
62776SOL    HW298643   0.215   9.502   7.033 -0.6145  0.2028  0.8923
62777SOL     OW98644  10.386  12.848   7.585 -0.1137 -0.6005 -0.0837
62777SOL    HW198645  10.349  12.760   7.594 -1.3871 -0.0012  0.8373
62777SOL    HW298646  10.389  12.882   7.675 -1.4055  0.9705 -0.5784
62778SOL     OW98647   1.976   8.277   8.177  0.6598  0.5249 -0.5052
62778SOL    HW198648   2.020   8.266   8.092 -0.7145  0.9367 -1.2980
62778SOL    HW298649   1.982   8.371   8.195 -1.1876  0.8587 -1.3912
62779SOL     OW98650   4.166   0.283  11.116  0.0280  0.1646  0.2029
62779SOL    HW198651   4.218   0.272  11.036  1.3609  1.0273  0.9210
62779SOL    HW298652   4.152   0.378  11.123 -0.6768  0.0388  0.6365
62780SOL     OW98653  10.328   1.652   9.374 -0.2307 -0.2771  0.3216
62780SOL    HW198654  10.333   1.564   9.337  0.3765  0.0856 -0.4804
62780SOL    HW298655  10.342   1.711   9.300  1.3364  0.4686  1.1667
62781SOL     OW98656   6.115  11.019   3.276 -0.7995  0.1363 -0.5409
62781SOL    HW198657   6.024  11.011   3.246 -0.4962  1.5596 -1.9298
62781SOL    HW298658   6.161  10.947   3.233 -1.0848 -0.0111 -0.6000
62782SOL     OW98659  12.013   1.415   1.562 -0.3220 -0.1398  0.2666
62782SOL    HW198660  12.097   1.371   1.554  0.6629  1.3563  1.9059
62782SOL    HW298661  11.964   1.387   1.484  0.2959 -3.8682  1.0204
62783SOL     OW98662   9.434   3.357   6.614  0.8066  0.3328  0.6761
62783SOL    HW198663   9.452   3.449   6.595  0.2199  0.2530 -0.3369
62783SOL    HW298664   9.498   3.309   6.561 -0.6557  0.1131 -0.9777
62784SOL     OW98665  11.265   1.801   8.668  0.0640  0.5000  0.5778
62784SOL    HW198666  11.255   1.896   8.678  0.2519  0.5833 -0.0012
62784SOL    HW298667  11.219   1.764   8.743 -0.6005  1.0288  0.4327
62785SOL     OW98668   8.424   0.170   0.154 -0.1212 -0.3454  0.1974
62785SOL    HW198669   8.441   0.144   0.064  0.0334  1.6479 -0.4019
62785SOL    HW298670   8.425   0.088   0.203 -1.5226 -1.6540 -1.7823
62786SOL     OW98671   2.262   1.315  11.723  0.3165  0.2283  0.0630
62786SOL    HW198672   2.185   1.309  11.780 -0.3398 -0.4131 -0.8734
62786SOL    HW298673   2.336   1.326  11.784 -0.5060  0.8618  0.9714
62787SOL     OW98674  12.899   4.588  12.219 -0.0979  0.2077  0.4492
62787SOL    HW198675  12.936   4.505  12.248 -0.8464  0.0202  0.9000
62787SOL    HW298676  12.806   4.582  12.242  0.2278  2.0514  2.5127
62788SOL     OW98677   1.003   6.551   9.483 -0.2062  0.3972 -0.2498
62788SOL    HW198678   1.080   6.603   9.506 -0.6243  0.6853  0.5182
62788SOL    HW298679   0.930   6.612   9.489 -0.5949 -0.0635 -0.2191
62789SOL     OW98680   0.353   5.745   6.627 -0.3821 -0.1687  0.1138
62789SOL    HW198681   0.282   5.793   6.670 -0.7461 -0.3504 -0.2743
62789SOL    HW298682   0.318   5.657   6.613 -0.0514 -0.2832 -0.0132
62790SOL     OW98683   3.381  10.498   4.300  0.6164 -0.1199 -0.1388
62790SOL    HW198684   3.334  10.516   4.219  0.0686 -0.3622  0.1169
62790SOL    HW298685   3.370  10.404   4.313 -0.5661  0.1475  0.9745
62791SOL     OW98686   6.799   1.823   3.963 -0.2197 -0.3040 -0.3236
62791SOL    HW198687   6.855   1.857   4.033  1.5062 -1.0554 -1.3002
62791SOL    HW298688   6.770   1.901   3.916  1.4211  0.0241 -0.8398
62792SOL     OW98689   9.943   1.186   4.449  0.5496  0.8306 -0.3280
62792SOL    HW198690   9.892   1.120   4.402 -0.3777  1.4355 -0.1893
62792SOL    HW298691   9.908   1.270   4.420  0.4026  1.2314  0.9135
62793SOL     OW98692   6.860   5.388   3.039 -0.5291  0.4465  0.4329
62793SOL    HW198693   6.881   5.295   3.029  0.5823  0.8821 -1.8736
62793SOL    HW298694   6.777   5.400   2.993  0.6338  1.0028 -1.6719
62794SOL     OW98695   3.675   8.664   9.277  0.3889  0.4185 -0.2642
62794SOL    HW198696   3.670   8.689   9.185 -1.5732 -1.1635 -0.6460
62794SOL    HW298697   3.588   8.683   9.312 -0.0292 -2.2204  0.3323
62795SOL     OW98698   6.150   1.470   9.690 -0.1217 -0.6682 -0.2761
62795SOL    HW198699   6.152   1.491   9.597 -1.1054  1.2688  0.0667
62795SOL    HW298700   6.241   1.475   9.718  0.2164 -1.5571 -1.1777
62796SOL     OW98701   5.550   7.225  11.362 -0.3609 -0.1023 -0.0328
62796SOL    HW198702   5.562   7.188  11.449 -1.0204 -0.3963 -0.0615
62796SOL    HW298703   5.504   7.308  11.377  0.4919  0.3770 -0.0233
62797SOL     OW98704   9.415  12.093  12.972  0.2995 -0.2817 -0.3881
62797SOL    HW198705   9.389  12.002  12.988 -3.0306  0.4892 -0.6409
62797SOL    HW298706   9.397  12.138  13.054  1.3675  0.2972 -0.4493
62798SOL     OW98707   1.750   9.220   3.962 -0.0467 -0.4275  0.3850
62798SOL    HW198708   1.743   9.314   3.979  0.5223 -0.3949  0.4542
62798SOL    HW298709   1.688   9.181   4.024  0.0386 -0.1306  0.6625
62799SOL     OW98710   6.846  12.094   2.194  0.2878  0.3041 -0.2093
62799SOL    HW198711   6.879  12.062   2.278  1.7971 -0.4621 -1.0530
62799SOL    HW298712   6.796  12.020   2.158  0.1661  0.4140 -0.2712
62800SOL     OW98713   7.928  12.816   1.175 -0.1809 -0.1169 -0.3116
62800SOL    HW198714   7.862  12.877   1.209 -0.3875 -0.1382 -0.6604
62800SOL    HW298715   7.998  12.872   1.142 -1.0464  0.0370 -2.0541
62801SOL     OW98716  12.000  11.256   1.673  0.1463 -0.0206  0.5367
62801SOL    HW198717  11.907  11.276   1.688 -0.2239 -3.0791  3.5170
62801SOL    HW298718  11.999  11.187   1.607  0.4684  1.0455 -0.6057
62802SOL     OW98719   6.554   8.370   9.010  0.6865  0.2313  0.2124
62802SOL    HW198720   6.501   8.370   9.090  0.8930 -0.1468  0.3506
62802SOL    HW298721   6.623   8.306   9.027 -0.1479 -1.0052 -0.8492
62803SOL     OW98722   6.363   9.757   8.744  0.3452 -0.2214 -0.5863
62803SOL    HW198723   6.437   9.798   8.790 -0.7858 -0.8113  1.9832
62803SOL    HW298724   6.291   9.819   8.756  0.1144 -0.1940 -2.0254
62804SOL     OW98725   1.314   3.637   8.297 -0.1481  0.2126 -0.0319
62804SOL    HW198726   1.386   3.656   8.357 -0.6863 -0.5939  0.8845
62804SOL    HW298727   1.248   3.594   8.351 -0.3327 -1.2384 -1.3543
62805SOL     OW98728   1.170   6.001  11.754  0.0365 -0.7732  0.1773
62805SOL    HW198729   1.130   6.036  11.674  1.5030  0.9028  0.1232
62805SOL    HW298730   1.204   5.915  11.729  1.3590  0.1391 -1.3228
62806SOL     OW98731   0.703  12.369  12.713  0.4167 -0.2809 -0.4811
62806SOL    HW198732   0.693  12.317  12.793  0.2270  0.3317 -0.0980
62806SOL    HW298733   0.716  12.459  12.744 -2.8425  0.5581 -1.1492
62807SOL     OW98734  11.695  11.949   8.697  0.2813  0.4272 -0.2733
62807SOL    HW198735  11.787  11.969   8.710 -0.1117  2.0349  0.2190
62807SOL    HW298736  11.659  11.942   8.785  0.1238 -1.3530 -0.4331
62808SOL     OW98737   8.848   8.426   5.047 -0.5604 -0.8285  0.6747
62808SOL    HW198738   8.886   8.502   5.003 -2.3320 -1.6012 -2.4707
62808SOL    HW298739   8.762   8.455   5.077 -1.0245 -1.4125 -0.0582
62809SOL     OW98740   7.738   1.182   5.225 -0.2206 -0.2022 -0.7426
62809SOL    HW198741   7.712   1.262   5.271 -1.0195 -0.7453 -0.2299
62809SOL    HW298742   7.787   1.214   5.149  0.5086  0.7346  0.0825
62810SOL     OW98743   2.391   9.404  11.837  0.6177 -0.0243 -0.0529
62810SOL    HW198744   2.335   9.427  11.911  1.4791 -0.3417  0.7074
62810SOL    HW298745   2.353   9.323  11.803 -0.0092  0.3280 -0.2080
62811SOL     OW98746  10.606   1.958   5.783 -0.6644  0.8884  0.2266
62811SOL    HW198747  10.566   1.909   5.855 -0.8667 -0.3771 -0.7017
62811SOL    HW298748  10.686   1.994   5.820 -0.8839  0.4517  1.1547
62812SOL     OW98749   6.511   0.231  11.240  0.0716 -0.1436  0.8493
62812SOL    HW198750   6.490   0.285  11.164  0.9221 -0.8689  0.0774
62812SOL    HW298751   6.433   0.177  11.253 -0.1759  0.1656  0.6608
62813SOL     OW98752   8.488  10.370  12.539  0.2119  0.1989  0.3807
62813SOL    HW198753   8.434  10.391  12.462  0.8558 -1.1079 -0.4622
62813SOL    HW298754   8.468  10.439  12.602 -1.6375  0.3537 -0.3089
62814SOL     OW98755  11.337   3.056   9.499  0.1364  0.2156 -0.1897
62814SOL    HW198756  11.347   3.005   9.419 -0.7867 -2.1269  1.1131
62814SOL    HW298757  11.244   3.074   9.505  0.0948 -0.2586  0.7158
62815SOL     OW98758   7.270   0.979   7.575  0.5644  0.4794  0.0826
62815SOL    HW198759   7.275   0.963   7.481 -1.2400  0.9471 -0.1149
62815SOL    HW298760   7.291   1.072   7.585  2.6236  0.0442  0.3827
62816SOL     OW98761   2.756   0.367   9.608 -0.1634  0.1176 -0.5448
62816SOL    HW198762   2.833   0.418   9.631  0.0909 -0.3190 -0.4052
62816SOL    HW298763   2.691   0.431   9.581  0.5136  0.4335 -1.4408
62817SOL     OW98764   5.205   9.301  10.357  0.0776  0.0693 -0.2107
62817SOL    HW198765   5.274   9.239  10.336  1.6771  1.1208  1.6585
62817SOL    HW298766   5.172   9.274  10.442  0.1113  1.1850  0.1767
62818SOL     OW98767   6.243   8.886   1.822  0.0151  0.0488 -0.4206
62818SOL    HW198768   6.166   8.899   1.878  0.9745  1.3016  0.6658
62818SOL    HW298769   6.276   8.975   1.807  1.6210 -0.5082 -0.3093
62819SOL     OW98770   4.935   0.667   3.339 -0.1625 -0.1173 -0.7944
62819SOL    HW198771   4.946   0.719   3.418  0.3455 -1.0630 -0.2184
62819SOL    HW298772   4.913   0.730   3.271 -1.1652  0.6614  0.2059
62820SOL     OW98773   8.480   3.288   6.138 -0.1398  0.5744 -0.0517
62820SOL    HW198774   8.475   3.200   6.098 -0.1949  0.3993  0.3389
62820SOL    HW298775   8.511   3.344   6.067  2.0022 -0.1381  0.2455
62821SOL     OW98776   9.311   9.485  11.257 -1.0757  0.6043  0.2563
62821SOL    HW198777   9.374   9.476  11.329 -0.6802  2.1178  0.1291
62821SOL    HW298778   9.295   9.395  11.228  2.3172  0.2114 -0.8201
62822SOL     OW98779   3.366   7.049   4.942 -0.0053  0.0930 -0.5890
62822SOL    HW198780   3.332   7.073   4.856 -0.0705  2.3681  0.0075
62822SOL    HW298781   3.310   7.096   5.004  1.0497 -0.1960  0.6246
62823SOL     OW98782   3.940   7.272   0.334 -0.1716  0.4642  0.5969
62823SOL    HW198783   3.947   7.346   0.395  0.8160  0.4753  0.4878
62823SOL    HW298784   4.016   7.218   0.353 -0.1719  0.1593 -0.2206
62824SOL     OW98785   8.732   4.592   5.825 -0.0372  0.4116 -0.3024
62824SOL    HW198786   8.765   4.550   5.746  0.0575  0.5123 -0.3177
62824SOL    HW298787   8.722   4.684   5.800 -0.5119  0.3479 -0.3529
62825SOL     OW98788  11.620   7.164  11.490  0.2129  0.0484  0.0092
62825SOL    HW198789  11.585   7.078  11.467 -1.0648  0.4862  0.2203
62825SOL    HW298790  11.661   7.152  11.575  0.0118 -0.3437  0.0525
62826SOL     OW98791   9.438   5.801   1.257 -0.0181 -0.1987  0.0473
62826SOL    HW198792   9.444   5.872   1.321 -1.1717 -1.4841  1.6697
62826SOL    HW298793   9.482   5.727   1.298 -1.7256 -1.3707 -0.0947
62827SOL     OW98794   1.966   2.279  12.735 -0.0379 -0.6251 -0.4561
62827SOL    HW198795   1.945   2.241  12.821 -2.7019  1.3404 -0.1094
62827SOL    HW298796   1.964   2.373  12.749  2.5699 -0.2381 -2.0995
62828SOL     OW98797   5.543   0.217   4.072 -0.5475  0.2594 -0.2875
62828SOL    HW198798   5.577   0.132   4.044 -0.5354  0.5265 -1.1168
62828SOL    HW298799   5.461   0.197   4.117  0.1475 -0.3011  0.7576
62829SOL     OW98800  11.612  11.820   1.140 -0.4136 -0.1156 -0.4370
62829SOL    HW198801  11.667  11.772   1.079  0.4581 -0.2470  0.4174
62829SOL    HW298802  11.525  11.818   1.101 -0.4180 -2.3848 -0.4363
62830SOL     OW98803  10.233  12.632   3.169 -0.1936  0.2445  0.4636
62830SOL    HW198804  10.235  12.546   3.212  0.0960 -0.3701 -0.7330
62830SOL    HW298805  10.228  12.612   3.076 -0.3314  1.5400  0.1768
62831SOL     OW98806   3.670   0.832   0.246 -0.2544  0.2950  0.8358
62831SOL    HW198807   3.656   0.917   0.286  1.6670  0.5674  1.0416
62831SOL    HW298808   3.585   0.807   0.210 -0.7316  2.5259  0.3063
62832SOL     OW98809   5.770   2.124   4.925  0.0253 -0.0377 -0.3000
62832SOL    HW198810   5.829   2.084   4.989 -1.3006 -0.8737  0.4647
62832SOL    HW298811   5.767   2.062   4.852  0.4936  0.2641 -0.5797
62833SOL     OW98812   8.740   3.830   2.777  0.1663 -0.5384 -0.3700
62833SOL    HW198813   8.830   3.813   2.803  0.1929 -1.5658 -1.0514
62833SOL    HW298814   8.690   3.759   2.817 -0.3107 -0.1146 -0.2029
62834SOL     OW98815   8.080  12.092   0.064 -0.2430  0.0754  0.2363
62834SOL    HW198816   8.067  12.001   0.040  0.6149  0.1281 -0.4819
62834SOL    HW298817   8.095  12.138  -0.019  2.0577  0.3771  0.7552
62835SOL     OW98818   0.248   0.840  11.694 -0.3682 -0.0902  0.1054
62835SOL    HW198819   0.267   0.753  11.660  1.3942  0.3900 -0.2059
62835SOL    HW298820   0.282   0.839  11.783  2.4183  1.1648 -0.8580
62836SOL     OW98821   3.822   9.937   2.908 -0.2804 -0.0273  0.4080
62836SOL    HW198822   3.829  10.026   2.942 -1.3619  0.5280 -0.7188
62836SOL    HW298823   3.895   9.929   2.846  0.3334 -0.2416  1.1475
62837SOL     OW98824   7.127   9.353  10.184  0.1362  0.1533 -0.3681
62837SOL    HW198825   7.077   9.397  10.116  1.3424  0.3981 -1.1094
62837SOL    HW298826   7.140   9.420  10.252  0.2392  0.3489 -0.5808
62838SOL     OW98827   4.576   0.856   2.205 -0.2190  0.1686 -0.7927
62838SOL    HW198828   4.518   0.822   2.137 -0.8353 -1.8504  0.6773
62838SOL    HW298829   4.518   0.897   2.269  0.2415  0.7555 -0.7345
62839SOL     OW98830   2.423  10.353   2.366  0.2182  0.5539  0.2197
62839SOL    HW198831   2.341  10.309   2.346  0.4026 -0.0182  0.6971
62839SOL    HW298832   2.488  10.306   2.313  0.5351 -0.2591  1.2808
62840SOL     OW98833  10.229   9.323   1.599  0.7996  0.1008 -0.3720
62840SOL    HW198834  10.138   9.347   1.588  0.1296 -2.0101  0.1187
62840SOL    HW298835  10.253   9.356   1.686  0.2539 -0.0106 -0.1774
62841SOL     OW98836  12.574   6.335  10.264  0.5839 -0.3509 -0.1247
62841SOL    HW198837  12.496   6.282  10.249 -1.3268  1.5004  2.2479
62841SOL    HW298838  12.602   6.313  10.353 -0.7475  2.9309  1.2670
62842SOL     OW98839  12.234   0.548   6.728  0.3850 -0.2133 -0.0973
62842SOL    HW198840  12.161   0.550   6.666  0.5576 -2.6044 -0.4833
62842SOL    HW298841  12.273   0.635   6.722 -1.4007  0.5861 -1.1166
62843SOL     OW98842   0.152   9.720   3.801  0.1844  0.4363 -0.0443
62843SOL    HW198843   0.130   9.716   3.895  2.3758 -1.3155  0.4760
62843SOL    HW298844   0.200   9.803   3.792  0.7174  0.2119  0.5914
62844SOL     OW98845  12.420   3.333   7.959  0.1582 -0.2843 -0.0263
62844SOL    HW198846  12.431   3.288   7.875 -0.5629 -1.3464  0.4276
62844SOL    HW298847  12.508   3.363   7.982  0.5692 -1.0254 -0.5933
62845SOL     OW98848  11.504   1.859  10.079 -0.2470 -0.2698 -0.2820
62845SOL    HW198849  11.486   1.933  10.137 -3.4157 -1.5500  0.5378
62845SOL    HW298850  11.431   1.798  10.092 -0.9844 -0.9149 -5.2183
62846SOL     OW98851   4.464   3.273   8.861  0.5627 -0.8271 -0.1362
62846SOL    HW198852   4.414   3.283   8.941 -1.5381  0.8404 -1.5381
62846SOL    HW298853   4.537   3.334   8.869 -0.9576  1.1465 -0.3563
62847SOL     OW98854   6.014   9.258   9.960  0.2442  0.0096  0.5164
62847SOL    HW198855   5.923   9.286   9.956 -0.1836 -1.4625 -1.4881
62847SOL    HW298856   6.011   9.170   9.998  1.0246  0.4822  1.7671
62848SOL     OW98857   6.409   5.845   6.341 -0.2585  0.3510 -0.2445
62848SOL    HW198858   6.407   5.931   6.382 -0.8665  0.3935 -0.3634
62848SOL    HW298859   6.332   5.843   6.284 -0.8824 -0.6726  0.5912
62849SOL     OW98860   3.007  12.360   0.801 -0.1973  0.2930  0.0080
62849SOL    HW198861   2.977  12.416   0.730  2.4073 -0.4524 -1.8056
62849SOL    HW298862   3.036  12.279   0.759  0.2380 -0.7147  2.0756
62850SOL     OW98863   1.485   9.445   9.235  0.2207 -0.1879  0.1516
62850SOL    HW198864   1.420   9.499   9.190 -0.2676 -1.0251 -0.1798
62850SOL    HW298865   1.492   9.367   9.180  1.0590 -0.3758  0.5166
62851SOL     OW98866   3.127   8.044   2.563 -0.0248 -0.7016  0.2336
62851SOL    HW198867   3.062   8.012   2.625 -1.1110 -1.8287 -1.4078
62851SOL    HW298868   3.150   7.967   2.511  1.4400  0.0362 -0.2613
62852SOL     OW98869   1.329  11.191  10.597  0.3605 -0.0399 -0.6075
62852SOL    HW198870   1.380  11.265  10.562  0.3201 -0.7139 -2.1782
62852SOL    HW298871   1.245  11.196  10.551  0.1186 -0.6874 -0.2482
62853SOL     OW98872   2.989   7.909   5.878 -0.0379 -0.3934 -0.3829
62853SOL    HW198873   2.901   7.926   5.911  0.3103  0.3616  0.1715
62853SOL    HW298874   2.975   7.872   5.791 -0.9121 -0.7169 -0.1123
62854SOL     OW98875  11.985  12.418   9.748 -0.2945 -1.2296 -0.1491
62854SOL    HW198876  12.029  12.355   9.806  1.7504 -1.2662 -1.6459
62854SOL    HW298877  12.002  12.503   9.789 -0.0778 -1.3704  0.0581
62855SOL     OW98878   1.465   1.245   0.212  0.3086  0.1600  0.0661
62855SOL    HW198879   1.459   1.334   0.177  0.3509  0.5063  0.9131
62855SOL    HW298880   1.511   1.196   0.145 -1.2960  0.3291 -1.2428
62856SOL     OW98881   8.755  11.567   3.342  0.2081  0.0805  0.6429
62856SOL    HW198882   8.815  11.582   3.415 -1.1376  2.0795  1.4173
62856SOL    HW298883   8.669  11.584   3.378 -0.5187  0.9397 -1.3570
62857SOL     OW98884   4.545  11.783   5.624 -0.4306  0.4674 -0.8038
62857SOL    HW198885   4.497  11.861   5.595  2.0088  1.7688 -1.7207
62857SOL    HW298886   4.637  11.806   5.609  0.5966 -1.3455  2.0475
62858SOL     OW98887   7.323   6.633   4.537  0.3544  0.1734  0.1905
62858SOL    HW198888   7.228   6.627   4.543  0.2989  1.5603  1.6573
62858SOL    HW298889   7.339   6.696   4.467  0.1433  0.7649  0.6691
62859SOL     OW98890   9.933   1.158   6.919  0.1155  0.4073  0.2022
62859SOL    HW198891   9.903   1.077   6.877  0.5111  0.1924  0.3311
62859SOL    HW298892  10.019   1.136   6.954  0.0714  0.7833  0.5465
62860SOL     OW98893   2.867   4.514   5.935 -0.2133  0.3346 -0.2384
62860SOL    HW198894   2.782   4.530   5.974 -0.0423  0.1227  0.2271
62860SOL    HW298895   2.904   4.601   5.921 -0.9113  0.4738 -1.3833
62861SOL     OW98896   0.737   0.843   3.185  0.2129 -0.4188  0.0577
62861SOL    HW198897   0.779   0.866   3.102  0.5186 -1.3960 -0.0657
62861SOL    HW298898   0.677   0.916   3.202 -0.1033 -0.3614 -1.2009
62862SOL     OW98899  10.630   5.363   0.248  0.4452  0.7523  0.6835
62862SOL    HW198900  10.562   5.402   0.193 -0.3491 -0.9038  0.4363
62862SOL    HW298901  10.631   5.418   0.326 -1.1357  0.8777  0.6565
62863SOL     OW98902   6.456   5.850  11.307 -0.2735  0.1803 -0.1713
62863SOL    HW198903   6.526   5.858  11.241  1.3536  2.2826  1.6565
62863SOL    HW298904   6.488   5.901  11.382 -2.2900 -1.6246  2.0659
62864SOL     OW98905   1.249   0.371  11.386  0.0388 -0.4941  0.5387
62864SOL    HW198906   1.296   0.449  11.415 -0.1574 -0.3025  0.3472
62864SOL    HW298907   1.314   0.301  11.386  0.4792 -0.1020 -0.3105
62865SOL     OW98908   9.749   5.850   5.910 -0.0578  0.5206 -0.4319
62865SOL    HW198909   9.760   5.774   5.967 -1.9992 -0.4874 -1.3262
62865SOL    HW298910   9.786   5.824   5.826 -0.3418  0.7188 -0.6224
62866SOL     OW98911   5.456   9.850   2.911  0.0234  0.2909 -0.4344
62866SOL    HW198912   5.372   9.882   2.943  0.2323  1.7550 -1.2489
62866SOL    HW298913   5.434   9.784   2.846 -0.4595 -0.0838  0.0991
62867SOL     OW98914  11.862   8.386   7.273 -0.0484 -0.1628  0.2851
62867SOL    HW198915  11.843   8.357   7.184 -0.6707 -0.6782  0.5818
62867SOL    HW298916  11.944   8.342   7.295 -0.5563 -1.0528  0.4278
62868SOL     OW98917  10.837  12.225  12.183  1.1458  0.0795 -0.0249
62868SOL    HW198918  10.928  12.242  12.205  0.8108  1.9856  0.0241
62868SOL    HW298919  10.788  12.297  12.223 -0.1305  0.3467 -1.9373
62869SOL     OW98920  10.757   1.685   1.344 -0.7405 -0.0754 -0.0267
62869SOL    HW198921  10.796   1.631   1.412 -0.9527 -0.8229 -0.4818
62869SOL    HW298922  10.669   1.705   1.376 -0.4130  0.6181  0.4662
62870SOL     OW98923  12.701  12.628   8.612  0.7682 -0.2188  0.4529
62870SOL    HW198924  12.779  12.577   8.593  0.5799 -0.9063  1.4628
62870SOL    HW298925  12.733  12.715   8.635  1.1403 -0.1068 -0.4436
62871SOL     OW98926   4.687   0.731  10.078 -0.1993 -0.4122 -0.0302
62871SOL    HW198927   4.780   0.733  10.058 -0.3812 -1.5473 -1.0533
62871SOL    HW298928   4.653   0.813  10.040  0.3728  0.0454  0.4189
62872SOL     OW98929   1.927   8.270  12.102  0.0132  0.5365  0.1537
62872SOL    HW198930   1.845   8.278  12.150  0.4517  0.9758  0.8423
62872SOL    HW298931   1.958   8.181  12.122 -0.7324  0.0301 -0.8400
62873SOL     OW98932   0.407   7.107   0.240 -0.3593  0.0054  0.7648
62873SOL    HW198933   0.404   7.019   0.202  0.2648 -0.6665  2.2090
62873SOL    HW298934   0.487   7.107   0.293 -1.2435  0.8561  2.1478
62874SOL     OW98935  10.627   0.388   5.304 -0.2747  0.4202 -0.3410
62874SOL    HW198936  10.532   0.388   5.302 -0.3295  0.5450  1.0711
62874SOL    HW298937  10.650   0.459   5.365  0.6491 -0.7622  0.7473
62875SOL     OW98938   7.137   5.885   3.054  0.3295 -0.5365 -0.0934
62875SOL    HW198939   7.091   5.902   3.136  2.0275  2.3983  0.3777
62875SOL    HW298940   7.068   5.855   2.994 -1.1093 -1.8479  2.0825
62876SOL     OW98941   1.781   1.022   3.894  0.6074  0.6155 -0.0945
62876SOL    HW198942   1.792   0.930   3.915 -0.2110  0.3489 -0.8003
62876SOL    HW298943   1.867   1.061   3.913  1.4167 -0.5613 -1.1904
62877SOL     OW98944   4.190   3.661   1.113  0.2133 -0.0910 -0.1344
62877SOL    HW198945   4.149   3.589   1.162 -0.7292  0.2437 -0.4164
62877SOL    HW298946   4.221   3.721   1.181  0.3133 -0.3919  0.0877
62878SOL     OW98947   2.185   9.491   0.031  0.3278 -0.2558 -0.7411
62878SOL    HW198948   2.275   9.481   0.061  0.3317  2.0100  0.1693
62878SOL    HW298949   2.136   9.424   0.079  1.2669 -0.4074  0.0328
62879SOL     OW98950   2.269   6.969   0.816  0.1930  0.0647 -0.2033
62879SOL    HW198951   2.251   6.876   0.798 -1.4408  0.6131 -1.7609
62879SOL    HW298952   2.200   7.016   0.768  1.7536  2.1468 -0.5397
62880SOL     OW98953   0.369   5.301   6.520  0.1179 -0.3304 -0.2266
62880SOL    HW198954   0.329   5.388   6.525  1.0922  0.1123  0.2350
62880SOL    HW298955   0.306   5.248   6.472  0.2578  1.0603 -2.0348
62881SOL     OW98956   5.885   7.863   7.227  0.0726 -0.1050  0.0171
62881SOL    HW198957   5.834   7.800   7.279  0.9518 -0.4088  0.5235
62881SOL    HW298958   5.975   7.849   7.254  0.3999  0.6391 -0.6597
62882SOL     OW98959   7.138   8.345  11.021  0.2668 -0.3645 -0.1458
62882SOL    HW198960   7.141   8.438  11.042  0.8709  0.1512 -2.2885
62882SOL    HW298961   7.192   8.336  10.943 -1.1248 -2.2480 -0.9648
62883SOL     OW98962   8.865   0.029  12.941  0.2657 -0.0488  0.0945
62883SOL    HW198963   8.902  -0.046  12.894  0.1487 -0.3405  0.4567
62883SOL    HW298964   8.779  -0.003  12.971  0.9779 -0.4254  1.8635
62884SOL     OW98965   0.249   1.591  10.878 -0.0531 -0.5664 -0.5290
62884SOL    HW198966   0.242   1.590  10.973  1.0646 -1.8280 -0.4255
62884SOL    HW298967   0.300   1.669  10.858  0.1860 -0.5994 -0.0480
62885SOL     OW98968   8.514   3.069   8.799 -0.8362  0.4716 -0.4426
62885SOL    HW198969   8.497   3.146   8.745 -0.2625  0.5411 -0.5281
62885SOL    HW298970   8.536   3.104   8.885  0.6659  0.4766 -0.7974
62886SOL     OW98971   5.662   7.027   1.798 -0.2703  0.0872 -0.1439
62886SOL    HW198972   5.718   6.949   1.803  0.1712  0.3786 -0.4674
62886SOL    HW298973   5.595   7.012   1.864  0.1558 -0.2932  0.2119
62887SOL     OW98974   4.556  12.441   6.640 -0.4321  0.3209  0.2673
62887SOL    HW198975   4.490  12.508   6.623  0.4513  0.6846 -1.9829
62887SOL    HW298976   4.610  12.439   6.561  1.9097 -0.3802  1.7899
62888SOL     OW98977   0.737  11.051   5.042 -0.3714 -0.2489 -0.3765
62888SOL    HW198978   0.693  11.051   4.957  0.2995 -0.2395 -0.7309
62888SOL    HW298979   0.827  11.025   5.022 -0.3825 -0.9172  0.4265
62889SOL     OW98980   2.761   4.914   2.064  0.2949  0.4578  0.3110
62889SOL    HW198981   2.686   4.855   2.076  1.4203 -0.8579  1.1728
62889SOL    HW298982   2.739   4.965   1.986 -1.1725 -0.4006  0.1239
62890SOL     OW98983  12.243   1.208  12.821  0.3258 -0.5212  0.1497
62890SOL    HW198984  12.240   1.138  12.756 -0.6398  0.4670 -0.9043
62890SOL    HW298985  12.201   1.169  12.899 -1.4223 -0.7269 -0.8392
62891SOL     OW98986   7.763   6.548   7.925 -0.0399 -0.3193  0.0251
62891SOL    HW198987   7.699   6.589   7.984 -0.7315  0.3628 -1.1565
62891SOL    HW298988   7.832   6.517   7.983  1.0869  3.4318  0.9803
62892SOL     OW98989   8.375   1.847   3.994  0.4991  0.4692 -0.0184
62892SOL    HW198990   8.436   1.863   3.922 -0.1748  0.0794 -0.6902
62892SOL    HW298991   8.416   1.777   4.045 -1.0741 -2.6149 -2.6349
62893SOL     OW98992  10.369   5.392  11.094  0.4722 -0.9050  0.2247
62893SOL    HW198993  10.369   5.465  11.157 -0.1846  1.1374 -1.9870
62893SOL    HW298994  10.455   5.397  11.052  0.4590 -1.4959  0.1180
62894SOL     OW98995   7.710   1.920  12.937  0.1550  0.2184  0.2500
62894SOL    HW198996   7.779   1.866  12.899  0.5094  1.4843 -0.9987
62894SOL    HW298997   7.721   1.912  13.031  0.0934 -1.9765  0.1283
62895SOL     OW98998  11.439   1.604   1.865  0.4031  0.1394  0.3165
62895SOL    HW198999  11.450   1.591   1.959  1.0016  0.7884  0.3487
62895SOL    HW299000  11.524   1.637   1.835  0.4100 -0.6237 -0.5550
62896SOL     OW99001   5.770   0.966  12.119 -0.1018 -0.3288 -0.5818
62896SOL    HW199002   5.700   0.902  12.110  1.1206 -2.1682  1.8489
62896SOL    HW299003   5.816   0.963  12.035 -1.8212 -0.3846 -1.5725
62897SOL     OW99004   0.347   4.244  10.566  0.1570  0.1474  0.0635
62897SOL    HW199005   0.409   4.285  10.627  0.7773  0.0017 -0.4493
62897SOL    HW299006   0.283   4.312  10.547  0.9954  0.7977 -0.5268
62898SOL     OW99007   8.226  11.548   4.186 -0.3093 -0.1028 -0.2541
62898SOL    HW199008   8.139  11.566   4.223 -0.5965 -0.6180 -0.6543
62898SOL    HW299009   8.255  11.469   4.231 -0.8246 -0.9516 -1.3703
62899SOL     OW99010   0.970   5.783  10.486  0.0833  0.3367  0.0858
62899SOL    HW199011   1.042   5.776  10.423  0.7769  1.2233  0.7499
62899SOL    HW299012   0.906   5.719  10.456  0.9941 -0.2261 -0.7236
62900SOL     OW99013   2.026   9.791   7.536 -0.0755  0.6732  0.0145
62900SOL    HW199014   1.947   9.789   7.589 -0.4944 -1.6572 -0.5935
62900SOL    HW299015   2.026   9.707   7.489  1.4737  1.6512 -1.8921
62901SOL     OW99016   7.191   1.972   8.700  0.3372 -0.2363 -0.2606
62901SOL    HW199017   7.149   1.930   8.624 -3.8995  1.2610  0.9394
62901SOL    HW299018   7.183   1.908   8.770 -0.7124  0.3151  0.1462
62902SOL     OW99019  11.629   1.869   6.739  0.0570 -0.2733  0.5559
62902SOL    HW199020  11.553   1.926   6.729  0.1678 -0.1874  0.2118
62902SOL    HW299021  11.680   1.881   6.659 -0.5113 -1.7424 -0.0554
62903SOL     OW99022   0.822   2.706   6.153 -0.2753 -0.5724 -0.2851
62903SOL    HW199023   0.881   2.729   6.082 -1.2433  1.0351 -0.5976
62903SOL    HW299024   0.872   2.643   6.206  0.0278 -2.8081 -2.9914
62904SOL     OW99025   3.750   2.202   7.404  0.8233  0.3488  0.3020
62904SOL    HW199026   3.670   2.197   7.352  1.5015  1.2646 -0.8697
62904SOL    HW299027   3.740   2.134   7.471  0.0679 -1.0976 -1.2215
62905SOL     OW99028  10.516   6.763   5.054  0.7847 -0.0855 -0.5623
62905SOL    HW199029  10.528   6.697   5.122  2.2498 -0.4199 -1.0972
62905SOL    HW299030  10.423   6.784   5.056  0.5150 -1.2891  0.4272
62906SOL     OW99031  11.788   7.893   7.895 -0.2161  0.5870  0.2327
62906SOL    HW199032  11.855   7.884   7.827 -0.6641 -3.7580  0.0421
62906SOL    HW299033  11.708   7.913   7.848  0.1460  1.4928 -0.0199
62907SOL     OW99034   5.085   2.323   1.759 -0.3494  0.3929 -0.1763
62907SOL    HW199035   5.176   2.305   1.783  0.0373  1.2198 -0.9834
62907SOL    HW299036   5.090   2.377   1.681 -1.5132  1.3784  0.3895
62908SOL     OW99037  12.465   6.763   6.452  0.0891  0.0673 -0.2724
62908SOL    HW199038  12.438   6.845   6.493 -0.5917  0.5224 -1.5742
62908SOL    HW299039  12.383   6.716   6.437  0.4000 -0.4527 -0.3480
62909SOL     OW99040   1.552   8.912  11.030 -0.3750  0.0602 -0.4399
62909SOL    HW199041   1.540   8.878  10.941  1.3387 -1.2663 -0.2162
62909SOL    HW299042   1.548   9.007  11.019 -1.5484 -0.0992 -1.7003
62910SOL     OW99043   2.088   6.126  11.460  0.3673 -0.8702 -0.0232
62910SOL    HW199044   2.042   6.088  11.535  3.0887 -0.4299  1.9854
62910SOL    HW299045   2.142   6.055  11.426 -1.2968 -1.2564 -2.0905
62911SOL     OW99046   7.808   0.812   1.038 -0.2131  0.1793 -0.7108
62911SOL    HW199047   7.809   0.775   1.126  0.8387  0.7116 -0.4872
62911SOL    HW299048   7.883   0.872   1.036 -0.9025  1.0513 -1.5868
62912SOL     OW99049   7.916   8.422   7.465 -0.6505  0.0771  0.4119
62912SOL    HW199050   7.846   8.377   7.418  0.0935  0.3695 -1.0298
62912SOL    HW299051   7.898   8.515   7.452  1.6014  0.2099 -2.6024
62913SOL     OW99052   5.881   3.447   9.085 -0.3474 -0.4102 -0.2029
62913SOL    HW199053   5.799   3.443   9.037 -0.1702 -1.9437 -0.3997
62913SOL    HW299054   5.947   3.412   9.025 -0.0446 -1.9297  0.9545
62914SOL     OW99055   3.599   8.246   1.088  0.1739 -0.0641  0.3699
62914SOL    HW199056   3.548   8.271   1.165 -0.6123 -0.5354  0.0110
62914SOL    HW299057   3.548   8.277   1.014  0.5249 -0.3266  0.0130
62915SOL     OW99058   3.614  10.707   0.259 -0.0912  0.1596 -0.1711
62915SOL    HW199059   3.617  10.800   0.284 -0.3888 -0.3415  1.9120
62915SOL    HW299060   3.583  10.662   0.338 -2.3326 -1.4683 -1.8434
62916SOL     OW99061   3.877   6.817   0.492  0.1993 -0.6355  0.5040
62916SOL    HW199062   3.887   6.727   0.461  0.7058 -0.0224 -1.2190
62916SOL    HW299063   3.965   6.844   0.518  0.1118 -0.5197  0.6875
62917SOL     OW99064   0.922   3.166  12.449 -0.0174 -0.4450  0.3477
62917SOL    HW199065   0.862   3.106  12.404 -1.3926  0.0465  1.4625
62917SOL    HW299066   0.875   3.193  12.527  2.3481 -1.4199  2.2364
62918SOL     OW99067   5.449   8.816  11.940 -0.1970 -0.0117  0.4069
62918SOL    HW199068   5.525   8.764  11.964  0.1668 -0.0897 -0.8701
62918SOL    HW299069   5.480   8.875  11.872 -1.1944  0.2056  0.1217
62919SOL     OW99070  10.849   2.481  11.820 -0.3043  0.1040 -0.0464
62919SOL    HW199071  10.758   2.494  11.847 -0.4952  0.1761 -0.7030
62919SOL    HW299072  10.850   2.506  11.727  0.1310 -0.9449 -0.3427
62920SOL     OW99073   1.309   5.935   7.832 -0.4322 -0.0098  0.3354
62920SOL    HW199074   1.347   5.931   7.920  0.4504  1.5252  0.0556
62920SOL    HW299075   1.270   6.023   7.827  0.1197  0.1788 -1.0398
62921SOL     OW99076   1.281  10.438   3.901 -0.1560 -0.1403 -0.1676
62921SOL    HW199077   1.187  10.442   3.888 -0.1258  0.3707 -0.2657
62921SOL    HW299078   1.316  10.511   3.850  0.2533 -0.0622  0.2078
62922SOL     OW99079   3.923   5.221   9.831  0.2541  0.1560  0.0303
62922SOL    HW199080   3.994   5.160   9.849  0.1706  0.4083  1.2912
62922SOL    HW299081   3.851   5.166   9.801  0.8592 -0.1332 -0.9343
62923SOL     OW99082   4.886   0.719   2.892 -0.1107 -0.0281 -0.9235
62923SOL    HW199083   4.841   0.639   2.867  1.4262 -1.6477  1.1445
62923SOL    HW299084   4.847   0.744   2.975  1.0946 -0.0796 -0.3140
62924SOL     OW99085   9.034   8.331   4.767  0.3828 -0.2349 -0.1196
62924SOL    HW199086   8.960   8.305   4.822  0.3159  0.1751 -0.0163
62924SOL    HW299087   9.086   8.251   4.758  0.4266 -0.2922  0.5845
62925SOL     OW99088  12.960  11.640   9.668 -0.2130  0.1038  0.3359
62925SOL    HW199089  13.044  11.628   9.624 -0.5576 -0.5179 -0.1786
62925SOL    HW299090  12.903  11.681   9.603 -0.0092  1.5210  1.0321
62926SOL     OW99091   5.749   7.977   6.984  0.5198  0.1115 -0.9311
62926SOL    HW199092   5.805   7.952   7.058 -2.4240 -0.2302  1.3671
62926SOL    HW299093   5.759   7.906   6.921  0.7842 -1.2133  0.5315
62927SOL     OW99094  12.029   2.844  10.754 -0.1528  0.1197 -0.1545
62927SOL    HW199095  11.939   2.856  10.724 -0.1186 -0.7758 -0.6444
62927SOL    HW299096  12.026   2.766  10.809  0.0204  1.0497  1.2171
62928SOL     OW99097   8.972   0.405   4.568  0.3064 -0.0693  0.0408
62928SOL    HW199098   8.883   0.390   4.599  0.7486 -2.4842  0.3662
62928SOL    HW299099   8.962   0.429   4.476 -0.6882 -0.0113  0.1584
62929SOL     OW99100   0.455   9.801  12.092 -0.0722  0.5162  0.1428
62929SOL    HW199101   0.372   9.841  12.064 -0.4381 -0.5341 -0.3282
62929SOL    HW299102   0.498   9.777  12.010  0.2084  0.0895  0.4147
62930SOL     OW99103   9.514   8.549  10.735 -0.3375  0.0844  0.5131
62930SOL    HW199104   9.519   8.463  10.695 -0.8291  0.1003  0.4100
62930SOL    HW299105   9.464   8.602  10.673 -0.2382  0.3833  0.6837
62931SOL     OW99106   0.983   3.756   2.916  0.6816  0.2502 -0.7200
62931SOL    HW199107   0.900   3.729   2.877  1.5663 -1.9310 -1.2700
62931SOL    HW299108   0.979   3.852   2.917 -1.7723  0.2152 -0.7955
62932SOL     OW99109   1.837   0.308   6.727 -0.0290  0.1330  0.5801
62932SOL    HW199110   1.929   0.305   6.755  0.2511 -2.4494 -0.3870
62932SOL    HW299111   1.793   0.357   6.797  1.7735 -0.1185  1.9840
62933SOL     OW99112  11.928   7.768  11.575 -0.0368  0.4516  0.6040
62933SOL    HW199113  11.889   7.687  11.609  1.3473 -0.8406 -0.7219
62933SOL    HW299114  11.889   7.837  11.629  0.8496 -1.2724  3.7244
62934SOL     OW99115   7.768   8.553   2.589 -0.1339 -0.2972 -0.3148
62934SOL    HW199116   7.790   8.635   2.545 -0.5853  0.6251  1.1138
62934SOL    HW299117   7.764   8.576   2.682 -0.0912 -1.9844  0.1313
62935SOL     OW99118  11.825   9.326   9.020 -0.3941 -0.3876 -0.2764
62935SOL    HW199119  11.751   9.355   9.073 -0.4391 -0.9656 -0.0087
62935SOL    HW299120  11.893   9.304   9.084 -1.2166 -3.3037 -0.2509
62936SOL     OW99121   3.258   9.845   2.630  0.5945 -0.5375 -0.1727
62936SOL    HW199122   3.261   9.934   2.596  0.0312 -0.0515  1.0193
62936SOL    HW299123   3.227   9.854   2.720 -0.8441 -2.0634 -0.4655
62937SOL     OW99124   5.550   6.868   3.554  0.0737 -0.4825 -0.1408
62937SOL    HW199125   5.594   6.883   3.638  0.9782 -0.6350 -0.5708
62937SOL    HW299126   5.621   6.868   3.490 -0.2956 -2.6229 -0.6378
62938SOL     OW99127   2.318   0.792   2.335 -0.8242 -0.2346 -0.4336
62938SOL    HW199128   2.308   0.885   2.315 -0.1785 -0.0721 -0.0188
62938SOL    HW299129   2.267   0.780   2.415  2.3247  0.6846  1.9184
62939SOL     OW99130   5.575   0.787  12.106  0.0270  0.1986  0.5087
62939SOL    HW199131   5.542   0.714  12.053 -0.7379  0.0724  1.1427
62939SOL    HW299132   5.496   0.832  12.136  0.4245 -0.0412  1.9872
62940SOL     OW99133  10.354   8.220  11.795 -0.6753  0.6253  0.1988
62940SOL    HW199134  10.384   8.311  11.790 -0.7895  0.7028  0.8849
62940SOL    HW299135  10.358   8.199  11.888 -0.2250 -0.2201 -0.0076
62941SOL     OW99136   1.205   0.642   9.466  0.3029 -0.2013  0.1253
62941SOL    HW199137   1.221   0.573   9.401 -0.9293 -0.2885 -0.1129
62941SOL    HW299138   1.211   0.598   9.550  1.4757 -0.1785  0.0661
62942SOL     OW99139   1.728   4.949   3.101 -0.0359 -0.0850  0.2727
62942SOL    HW199140   1.633   4.946   3.109 -0.1232  0.7934 -0.2123
62942SOL    HW299141   1.743   5.001   3.021  0.8539  0.2588  0.6525
62943SOL     OW99142   4.109  11.513  11.846 -0.3233  0.1174  0.2496
62943SOL    HW199143   4.177  11.578  11.829 -0.5874  0.4264  0.3525
62943SOL    HW299144   4.086  11.478  11.760 -2.1361  2.1579 -0.1845
62944SOL     OW99145   8.494  11.580   5.284  0.2895 -0.0262 -0.0296
62944SOL    HW199146   8.414  11.609   5.329  0.5219 -1.3094  1.2781
62944SOL    HW299147   8.463  11.532   5.207 -0.1872 -0.2675  0.3129
62945SOL     OW99148   0.649   6.461  12.240 -0.6820  0.1415 -0.3709
62945SOL    HW199149   0.630   6.397  12.309 -2.1243 -2.0863 -2.6555
62945SOL    HW299150   0.741   6.445  12.218 -0.4414  0.3115  0.4725
62946SOL     OW99151  12.335   5.899   2.416 -0.0860  0.0883 -0.1449
62946SOL    HW199152  12.298   5.849   2.488  0.9710  0.5278  0.7223
62946SOL    HW299153  12.315   5.847   2.338 -0.9368 -0.5631  0.4849
62947SOL     OW99154  10.902   7.622   8.303 -0.1047 -0.1445  0.0756
62947SOL    HW199155  10.956   7.700   8.303 -0.2347 -0.0541  0.3771
62947SOL    HW299156  10.922   7.579   8.220  1.6037 -0.9292  0.8496
62948SOL     OW99157   3.456   2.593  12.379 -0.6471 -0.1975  0.1834
62948SOL    HW199158   3.369   2.626  12.401 -0.4907  0.7310 -0.5143
62948SOL    HW299159   3.442   2.545  12.297 -0.4706  0.1338 -0.0420
62949SOL     OW99160  12.357   9.243   0.294 -0.4868  0.5950 -0.2325
62949SOL    HW199161  12.281   9.301   0.287 -0.3428  0.7345 -0.6748
62949SOL    HW299162  12.400   9.269   0.375  0.3262  2.0350 -1.0855
62950SOL     OW99163   3.139   2.744   8.929 -0.0386 -0.1108  0.1021
62950SOL    HW199164   3.189   2.743   9.010  1.2370 -1.2064 -0.6653
62950SOL    HW299165   3.119   2.837   8.914  2.1848  0.4413  0.2174
62951SOL     OW99166   2.401   2.582   3.925 -0.0498 -0.1674  0.9303
62951SOL    HW199167   2.377   2.667   3.887 -0.3288 -0.0476  1.3652
62951SOL    HW299168   2.318   2.542   3.950  0.0415 -0.8353  0.1786
62952SOL     OW99169   8.793   1.060   8.702 -0.2958 -0.3383 -0.7054
62952SOL    HW199170   8.831   1.113   8.772 -0.1110 -1.8274  0.3771
62952SOL    HW299171   8.868   1.025   8.654 -0.3730 -0.6170 -0.6268
62953SOL     OW99172   5.092   6.294   1.244  0.2223  0.5741  0.5278
62953SOL    HW199173   5.183   6.266   1.249  0.0219  0.1063  1.8841
62953SOL    HW299174   5.067   6.278   1.153  1.3122  0.1431  0.2894
62954SOL     OW99175   9.905   4.197   2.346 -0.3063 -0.0631  0.1116
62954SOL    HW199176   9.892   4.152   2.263 -0.3751 -0.2134  0.2023
62954SOL    HW299177   9.865   4.283   2.334 -0.6797 -0.2334  0.1259
62955SOL     OW99178   3.137  10.905   1.182  0.2373  0.6603 -0.0478
62955SOL    HW199179   3.084  10.863   1.250  0.4320 -1.0603 -0.9013
62955SOL    HW299180   3.158  10.834   1.121 -0.8556  2.3257 -2.5147
62956SOL     OW99181   7.225   9.885   2.900 -0.1594  0.5508  0.0599
62956SOL    HW199182   7.309   9.918   2.931 -1.4930  3.0846  1.2953
62956SOL    HW299183   7.173   9.964   2.883 -2.3161 -0.9218 -0.6023
62957SOL     OW99184   3.791  10.320   4.652  0.1783 -0.1125  0.0106
62957SOL    HW199185   3.714  10.303   4.597 -1.5413  0.7430  2.0371
62957SOL    HW299186   3.772  10.402   4.696  2.1236 -0.0636  0.8653
62958SOL     OW99187  12.660   7.532   8.923 -0.0586 -0.1283  0.0062
62958SOL    HW199188  12.726   7.600   8.912  0.4684 -0.8006 -1.3234
62958SOL    HW299189  12.588   7.575   8.969  0.4043  1.2271 -0.4776
62959SOL     OW99190   4.506   8.806  10.223 -0.0144 -0.4717  0.1426
62959SOL    HW199191   4.587   8.826  10.177 -0.1201 -1.1551 -0.3562
62959SOL    HW299192   4.442   8.792  10.154 -0.2128 -1.3453  0.4825
62960SOL     OW99193   2.944   0.220   9.500  0.3488 -0.1613 -0.0179
62960SOL    HW199194   2.921   0.128   9.487  0.7427 -0.6006  2.0629
62960SOL    HW299195   2.861   0.262   9.521  0.4326 -0.4418  0.9254
62961SOL     OW99196   7.044   8.831  12.328  0.3949  0.5123 -0.0475
62961SOL    HW199197   7.098   8.875  12.263  0.4785  0.0392 -0.3036
62961SOL    HW299198   6.955   8.865  12.312  0.4720  0.6542 -0.1808
62962SOL     OW99199   8.071  11.110   9.265  0.3116  0.1371  0.4533
62962SOL    HW199200   7.986  11.081   9.233  0.5040 -3.3079  2.6170
62962SOL    HW299201   8.053  11.194   9.308 -1.6358  0.2926 -0.5653
62963SOL     OW99202   5.538   8.871   0.694 -0.2618  0.5026 -0.0378
62963SOL    HW199203   5.570   8.945   0.745 -0.5140  0.6233 -0.0498
62963SOL    HW299204   5.488   8.912   0.622  0.3658  0.3469 -0.5715
62964SOL     OW99205   8.042   7.522   4.917 -0.4699  0.4953 -0.1693
62964SOL    HW199206   8.116   7.466   4.942 -0.5606 -0.4096 -1.7384
62964SOL    HW299207   7.971   7.496   4.976 -0.6596 -1.5008 -1.1578
62965SOL     OW99208   9.701  10.592   4.162  0.1501 -0.2520 -0.0096
62965SOL    HW199209   9.753  10.516   4.136 -0.6698 -1.2823  1.2309
62965SOL    HW299210   9.677  10.634   4.079  0.2886 -1.5803 -0.7566
62966SOL     OW99211   0.053   6.563   5.942  0.2800  0.3095 -0.4436
62966SOL    HW199212   0.081   6.531   5.856  1.3172  1.3027 -0.4964
62966SOL    HW299213  -0.035   6.597   5.928  0.0744 -0.3934 -0.8934
62967SOL     OW99214   0.482   4.929  12.644  0.2978  0.2275  0.1141
62967SOL    HW199215   0.422   4.916  12.570 -0.2932  1.0518  0.4320
62967SOL    HW299216   0.567   4.946  12.603 -0.0695  0.8979 -0.3855
62968SOL     OW99217   2.467   0.606   4.234 -0.4073  0.4248 -0.1113
62968SOL    HW199218   2.505   0.680   4.186 -0.6139 -1.3658 -3.3178
62968SOL    HW299219   2.537   0.541   4.237 -0.6169  0.2505  1.5505
62969SOL     OW99220   6.356   6.281   2.656  0.1720 -0.2137 -0.3317
62969SOL    HW199221   6.417   6.226   2.705 -0.6584  1.5244  2.8998
62969SOL    HW299222   6.273   6.233   2.659 -0.1918  0.4580  1.1957
62970SOL     OW99223   0.561   1.126   2.022 -0.0664  0.1289 -0.3133
62970SOL    HW199224   0.478   1.174   2.027 -0.7563 -0.9916 -0.5747
62970SOL    HW299225   0.610   1.170   1.952 -1.0363 -0.0549 -1.1422
62971SOL     OW99226  12.525  10.514   0.154  0.4284  0.1753  0.0046
62971SOL    HW199227  12.478  10.516   0.070  0.3217  0.5688  0.0691
62971SOL    HW299228  12.555  10.604   0.167 -1.8085  0.7838  1.6270
62972SOL     OW99229  10.147  12.316   7.236  0.3232  0.2030 -0.0292
62972SOL    HW199230  10.158  12.280   7.148  0.3116 -0.2468  0.1550
62972SOL    HW299231  10.113  12.244   7.288  0.1644  0.5172  0.3068
62973SOL     OW99232   4.308   1.622   9.360  0.3155 -0.6477  0.3513
62973SOL    HW199233   4.294   1.707   9.401  0.4158  0.1357 -1.1725
62973SOL    HW299234   4.221   1.584   9.350 -0.4195  1.4569 -3.3516
62974SOL     OW99235  11.620   6.987   5.762 -0.6970  0.1730  0.0391
62974SOL    HW199236  11.628   7.041   5.841  0.0206 -0.1499  0.1929
62974SOL    HW299237  11.525   6.979   5.748 -0.8158  1.3081  0.1173
62975SOL     OW99238   9.837  12.730  10.656  0.3977 -0.2674  0.0287
62975SOL    HW199239   9.882  12.649  10.633 -0.9218 -1.3479  1.0902
62975SOL    HW299240   9.758  12.730  10.601 -0.6628 -0.7766  1.5010
62976SOL     OW99241   7.238   1.570   8.274  0.2621  0.8581  0.1523
62976SOL    HW199242   7.247   1.487   8.320 -2.9393  0.9935  1.2743
62976SOL    HW299243   7.192   1.548   8.193 -0.5387  1.4845  0.4222
62977SOL     OW99244   8.056  12.629   1.365  0.6763 -0.1013  0.2635
62977SOL    HW199245   7.988  12.592   1.420  0.2394  0.3215  0.0092
62977SOL    HW299246   8.012  12.695   1.312  1.1279 -0.3451 -0.4342
62978SOL     OW99247   6.348   7.284   6.463 -0.1333  0.3704  0.0604
62978SOL    HW199248   6.432   7.325   6.482  0.1312  0.7710 -1.7575
62978SOL    HW299249   6.353   7.264   6.369 -0.4907 -3.2322  0.6666
62979SOL     OW99250   6.106  12.344   2.312  0.4836  0.2314 -0.0460
62979SOL    HW199251   6.064  12.326   2.228  1.3841 -1.6665 -0.1413
62979SOL    HW299252   6.167  12.416   2.294  1.1292 -0.5641 -1.2052
62980SOL     OW99253   7.147   8.320   3.830 -0.2473  0.2453 -0.3881
62980SOL    HW199254   7.238   8.308   3.804 -0.0230  2.5866 -0.8954
62980SOL    HW299255   7.152   8.362   3.915 -0.8922 -0.4266 -0.0066
62981SOL     OW99256   2.852   2.061   8.231  0.2316 -0.5223 -0.1512
62981SOL    HW199257   2.817   2.149   8.245  1.4008 -0.0786  0.1311
62981SOL    HW299258   2.874   2.031   8.319  1.0943 -0.5427 -0.3670
62982SOL     OW99259  12.713   5.319  10.775 -0.6582  0.4042 -0.5225
62982SOL    HW199260  12.773   5.261  10.728 -0.9589  0.3931 -0.8947
62982SOL    HW299261  12.764   5.397  10.795 -0.0486 -0.2359  0.5483
62983SOL     OW99262   6.374  12.906   1.468  0.1854  0.3385  0.1657
62983SOL    HW199263   6.318  12.838   1.504 -1.2586  1.4143  0.0349
62983SOL    HW299264   6.335  12.927   1.383 -0.7858  2.8751  1.1527
62984SOL     OW99265  11.401  11.014   7.167 -0.3027  0.5756 -0.3082
62984SOL    HW199266  11.344  11.043   7.239  0.2183  1.5961 -0.2838
62984SOL    HW299267  11.343  10.964   7.109 -1.2730  1.7296 -0.3681
62985SOL     OW99268  12.259   8.261   0.555 -0.0065  0.9875 -0.3536
62985SOL    HW199269  12.258   8.179   0.505 -1.0598  0.8361 -0.1164
62985SOL    HW299270  12.315   8.242   0.631 -0.6762  0.2996 -0.0181
62986SOL     OW99271   8.921   3.273   2.711 -0.4992 -0.1139  0.4121
62986SOL    HW199272   9.001   3.285   2.660 -0.9199 -2.7850 -1.1109
62986SOL    HW299273   8.932   3.330   2.787  2.8949 -0.4247  0.3353
62987SOL     OW99274  11.664   3.189   0.025  0.3197 -0.1803  0.2486
62987SOL    HW199275  11.718   3.111   0.010  0.0421 -0.2944 -0.1680
62987SOL    HW299276  11.585   3.156   0.068 -0.2870 -0.2867 -0.9195
62988SOL     OW99277   6.942   9.878   2.778 -0.5650  0.8369 -0.4056
62988SOL    HW199278   6.957   9.886   2.872 -0.5054  1.8745 -0.4876
62988SOL    HW299279   6.987   9.954   2.740 -0.2496  0.2128 -1.3155
62989SOL     OW99280   7.848   8.976   0.611  0.2189 -0.7686  0.6686
62989SOL    HW199281   7.871   9.068   0.624 -0.1434 -0.5305 -0.2618
62989SOL    HW299282   7.769   8.978   0.557 -0.5577 -1.6124  1.7211
62990SOL     OW99283   5.739  12.476   0.552  0.2374 -0.2709  0.0843
62990SOL    HW199284   5.734  12.496   0.645 -1.0319 -0.1097  0.0068
62990SOL    HW299285   5.831  12.459   0.535  0.4093 -0.8469  1.4804
62991SOL     OW99286  10.571   9.243   6.971  0.3673  0.2208  0.2192
62991SOL    HW199287  10.607   9.164   6.929 -1.0273 -1.0385  1.3058
62991SOL    HW299288  10.582   9.227   7.065  0.5602  1.5858  0.4386
62992SOL     OW99289   9.126  11.327   1.432  0.5207  0.0292  0.0379
62992SOL    HW199290   9.155  11.236   1.440 -0.9065 -0.4842 -0.3609
62992SOL    HW299291   9.081  11.346   1.514  1.2213  0.5542  0.3166
62993SOL     OW99292  11.613   3.498   7.921  0.0110 -0.0284 -0.1282
62993SOL    HW199293  11.564   3.416   7.916 -0.0442  0.0477 -0.9082
62993SOL    HW299294  11.657   3.505   7.837  0.0646  0.7094 -0.0436
62994SOL     OW99295   7.119   3.326   1.312 -0.2784 -0.1076 -0.1671
62994SOL    HW199296   7.193   3.365   1.266  0.7406  0.0450  1.5302
62994SOL    HW299297   7.053   3.313   1.244  0.6121  1.4452 -1.4009
62995SOL     OW99298   8.067  12.256   7.339 -0.1917 -0.1122  0.1944
62995SOL    HW199299   8.084  12.240   7.246  0.3744  1.2131  0.0523
62995SOL    HW299300   7.984  12.211   7.356 -1.1863  1.0074 -1.3933
62996SOL     OW99301   2.546   4.745   2.105 -0.3615 -0.2289  0.0451
62996SOL    HW199302   2.551   4.711   2.195 -0.3530  1.3627  0.6761
62996SOL    HW299303   2.537   4.667   2.051  0.7800 -1.3068  1.3315
62997SOL     OW99304   1.880   1.436   1.175 -0.4591  0.1036  0.1414
62997SOL    HW199305   1.812   1.464   1.115 -0.3581  0.2295  0.0865
62997SOL    HW299306   1.853   1.472   1.260  0.1218  1.1136 -0.0904
62998SOL     OW99307   0.829  12.486  11.166 -0.4614 -0.0253 -0.0165
62998SOL    HW199308   0.917  12.476  11.204 -1.7223 -0.2076  3.2426
62998SOL    HW299309   0.818  12.581  11.155  0.0950  0.0032 -0.3631
62999SOL     OW99310   2.294   6.044   5.257  0.0671 -0.1234 -0.0596
62999SOL    HW199311   2.352   6.059   5.182 -0.1370  0.6567 -0.0688
62999SOL    HW299312   2.210   6.079   5.229  0.4996  2.1810  1.2916
63000SOL     OW99313  12.951   7.581   1.840  0.1591  0.7489  0.1256
63000SOL    HW199314  12.939   7.506   1.899  0.6446  1.0492  0.6088
63000SOL    HW299315  12.970   7.541   1.755 -1.6474  0.2897 -0.1054
63001SOL     OW99316  10.755   0.248   2.038  0.0126 -0.1364  0.5541
63001SOL    HW199317  10.781   0.286   1.954 -1.1816 -0.7946 -0.1413
63001SOL    HW299318  10.837   0.234   2.084  1.0236 -2.6268 -1.7347
63002SOL     OW99319   6.455  11.101  12.084 -0.2140 -0.4525 -0.0658
63002SOL    HW199320   6.441  11.060  11.999 -0.3730 -0.4661 -0.0316
63002SOL    HW299321   6.411  11.186  12.078  0.5207 -0.0754 -0.3012
63003SOL     OW99322   9.978   9.044   7.711  0.6803 -0.2964 -0.2537
63003SOL    HW199323  10.037   9.083   7.646  0.6437  0.1209 -0.0382
63003SOL    HW299324   9.891   9.052   7.672  0.5834  0.5143  0.1043
63004SOL     OW99325  11.617   3.778   0.815 -0.7120 -0.0473  0.8310
63004SOL    HW199326  11.608   3.833   0.736  2.0507  1.6097  1.5376
63004SOL    HW299327  11.532   3.735   0.823 -1.9330  1.6105 -1.6599
63005SOL     OW99328   8.433   1.171   6.830 -0.5454  0.1733 -0.5052
63005SOL    HW199329   8.404   1.252   6.871 -2.5898 -1.1325  0.7990
63005SOL    HW299330   8.528   1.170   6.843 -0.5067  2.2054 -0.3445
63006SOL     OW99331   3.360   2.919  10.025  0.0452  0.1418 -0.4172
63006SOL    HW199332   3.447   2.887  10.051  0.1526  1.6281  1.2524
63006SOL    HW299333   3.300   2.876  10.086 -0.1112  0.9440 -0.0002
63007SOL     OW99334  11.312   7.659   1.972 -0.3607  0.5323  0.4528
63007SOL    HW199335  11.257   7.582   1.957  0.2813 -0.5385  3.0819
63007SOL    HW299336  11.396   7.624   2.001  0.4018  2.2033  0.3733
63008SOL     OW99337   7.860   5.174   8.446  0.4439 -0.3634 -0.3021
63008SOL    HW199338   7.843   5.155   8.538  3.4907 -1.6009  0.1277
63008SOL    HW299339   7.894   5.264   8.446 -0.4359 -0.0192 -0.3855
63009SOL     OW99340   4.588   8.699   3.450  0.3231  0.3679  0.6741
63009SOL    HW199341   4.511   8.754   3.463  0.5133  1.2565 -1.5080
63009SOL    HW299342   4.649   8.726   3.519 -1.6938 -1.2624  3.2581
63010SOL     OW99343   3.749   1.867   2.774 -0.2419  0.0110  0.4731
63010SOL    HW199344   3.672   1.911   2.809  0.9790  1.3536  1.6051
63010SOL    HW299345   3.730   1.855   2.681 -1.3935  1.2599  0.5226
63011SOL     OW99346   2.714   3.044   4.086 -0.0113  0.4866 -0.2242
63011SOL    HW199347   2.637   3.092   4.056 -0.8321 -1.2078 -0.9679
63011SOL    HW299348   2.709   2.960   4.041  0.9169 -0.6348  1.6290
63012SOL     OW99349   7.512   3.011   4.764  0.0321 -0.0054  0.3988
63012SOL    HW199350   7.602   3.010   4.730 -0.1417  1.1088 -0.1540
63012SOL    HW299351   7.510   3.086   4.823 -0.8943  0.8815 -0.7015
63013SOL     OW99352   6.020   2.409   0.317  0.5237  0.2511  0.3839
63013SOL    HW199353   5.927   2.403   0.296  0.6593  0.8615 -0.4402
63013SOL    HW299354   6.049   2.318   0.321 -0.1717  0.0427  0.9858
63014SOL     OW99355  11.112   6.616   7.372  0.4321  0.5038 -0.3234
63014SOL    HW199356  11.027   6.609   7.328  0.8931  1.9617 -1.5387
63014SOL    HW299357  11.091   6.615   7.465 -0.6756 -1.6354 -0.5196
63015SOL     OW99358  10.388  10.740  10.018 -0.1106 -0.0403  0.4496
63015SOL    HW199359  10.371  10.714  10.108  0.4888 -1.9481  0.0641
63015SOL    HW299360  10.426  10.828  10.024  1.9828 -0.9796  2.2617
63016SOL     OW99361   4.855   2.874   7.827  0.0398  0.1431 -0.1767
63016SOL    HW199362   4.811   2.794   7.799  1.1794 -0.4538 -0.3184
63016SOL    HW299363   4.948   2.856   7.815  0.3354  1.3674  0.1230
63017SOL     OW99364   0.244  11.066   2.736  0.6388 -0.2938  0.1392
63017SOL    HW199365   0.223  11.091   2.646  1.7202 -0.6627 -0.2236
63017SOL    HW299366   0.323  11.115   2.757  0.1036  0.1964  1.0903
63018SOL     OW99367   4.030   1.213   6.354  0.4192  0.1161 -0.1502
63018SOL    HW199368   4.036   1.277   6.425  2.2352 -0.1722  0.0220
63018SOL    HW299369   3.999   1.133   6.397 -0.0272  0.3723  0.0083
63019SOL     OW99370   6.160  12.580   8.671 -0.1137 -0.0407  0.1702
63019SOL    HW199371   6.077  12.562   8.716 -1.6122  0.1852 -2.2823
63019SOL    HW299372   6.203  12.647   8.723  0.3033 -2.6279  3.4576
63020SOL     OW99373   8.727   0.644   5.781  0.3590 -0.0650 -0.1244
63020SOL    HW199374   8.676   0.674   5.856  0.4519 -1.0402  0.3343
63020SOL    HW299375   8.811   0.617   5.818 -0.3054 -2.4881 -0.2636
63021SOL     OW99376   6.877   0.316  11.003 -0.4326  0.1011 -0.2442
63021SOL    HW199377   6.958   0.303  10.954 -1.2332 -0.3105 -1.4729
63021SOL    HW299378   6.867   0.411  11.006  0.3159  0.1747  0.3078
63022SOL     OW99379   2.666   0.372   6.403 -0.0101  0.2690 -0.5006
63022SOL    HW199380   2.600   0.366   6.472 -0.2185  1.0655 -0.6242
63022SOL    HW299381   2.632   0.438   6.342  1.5580  1.8458  0.2205
63023SOL     OW99382   6.317   3.040   1.017 -0.4024  0.0682  0.3198
63023SOL    HW199383   6.394   3.032   1.073  0.9349 -0.1641 -1.4859
63023SOL    HW299384   6.344   3.098   0.946 -1.9680  0.1484 -0.2597
63024SOL     OW99385  11.731   4.060   7.307  0.1401  0.0349  0.4369
63024SOL    HW199386  11.653   4.012   7.335 -0.1057  1.5980  2.7648
63024SOL    HW299387  11.714   4.083   7.216 -1.5487 -0.7321  0.5198
63025SOL     OW99388   6.728   5.527   6.927  0.0808 -0.0074 -0.0959
63025SOL    HW199389   6.813   5.500   6.960 -1.2130 -1.6154  2.2983
63025SOL    HW299390   6.701   5.598   6.987 -1.5318 -1.6949  1.3004
63026SOL     OW99391   3.505   3.965   1.713 -0.1339 -1.1916 -0.1079
63026SOL    HW199392   3.540   3.886   1.671 -1.6191 -1.4155 -0.9823
63026SOL    HW299393   3.429   3.989   1.660  0.8882  1.4752 -0.5188
63027SOL     OW99394   6.775  10.040  10.193  0.6278  0.0933 -0.9262
63027SOL    HW199395   6.744  10.098  10.123 -0.7018  0.1045 -0.3486
63027SOL    HW299396   6.753   9.952  10.162  1.6806 -0.0590 -1.3137
63028SOL     OW99397   9.311   6.113  12.177  0.3478 -0.0321 -0.0462
63028SOL    HW199398   9.231   6.090  12.129 -1.9203  0.8102  3.0592
63028SOL    HW299399   9.333   6.034  12.226  0.4087  0.2652  0.4124
63029SOL     OW99400   3.911   4.003   8.916 -0.1361 -0.2869 -0.5250
63029SOL    HW199401   3.876   3.970   8.999  0.3820  0.2672 -0.0813
63029SOL    HW299402   3.868   3.949   8.849 -1.2510 -0.1368  0.0462
63030SOL     OW99403  11.183  11.853   1.725  0.4761 -0.4710  0.4380
63030SOL    HW199404  11.143  11.937   1.702 -1.3280 -1.0289  1.3411
63030SOL    HW299405  11.225  11.823   1.644  0.1770  0.7636 -0.1961
63031SOL     OW99406  12.692   5.924   8.174 -0.2393 -0.3279  0.0716
63031SOL    HW199407  12.736   5.957   8.252 -0.0076 -0.5201  0.0230
63031SOL    HW299408  12.626   5.991   8.154  1.0989  0.7830 -0.8026
63032SOL     OW99409  12.937  11.058  10.411  0.0095 -0.0243 -0.7886
63032SOL    HW199410  12.939  11.022  10.323 -0.6610 -2.6638  0.1928
63032SOL    HW299411  13.003  11.009  10.459 -1.1259 -0.2037  0.6840
63033SOL     OW99412   2.070   4.046   5.881  0.2667 -0.3044  0.2688
63033SOL    HW199413   2.114   3.996   5.949 -0.1295  0.0234  0.7720
63033SOL    HW299414   2.034   4.123   5.926  1.1403  0.6159 -0.5441
63034SOL     OW99415   6.263  12.169   2.437  0.3424 -0.3171  0.1345
63034SOL    HW199416   6.319  12.150   2.362  0.0660  0.7008 -0.3465
63034SOL    HW299417   6.217  12.250   2.414 -1.5968 -1.2761  0.3705
63035SOL     OW99418   8.118   3.440   7.166  0.4517 -0.0861 -0.1524
63035SOL    HW199419   8.165   3.422   7.085 -0.4592 -1.6217 -0.3937
63035SOL    HW299420   8.052   3.505   7.142  0.6543  0.0003 -0.4682
63036SOL     OW99421  12.501  11.938   7.006 -0.5113  0.3159  0.1660
63036SOL    HW199422  12.526  11.879   7.077  0.5028 -0.5175 -0.8565
63036SOL    HW299423  12.408  11.920   6.991 -1.0956  1.3811  2.0640
63037SOL     OW99424  11.892   6.081   0.876 -0.7173  0.3375 -0.2907
63037SOL    HW199425  11.952   6.154   0.866 -0.9204  0.7302  1.0387
63037SOL    HW299426  11.807   6.115   0.848 -0.7922  0.5964  0.2340
63038SOL     OW99427  12.560   7.678   0.670  0.1683 -0.6574 -0.3009
63038SOL    HW199428  12.466   7.671   0.683 -0.1373 -3.5226 -2.9149
63038SOL    HW299429  12.597   7.669   0.758 -1.9290  0.1981  0.7411
63039SOL     OW99430   4.142   0.135   1.570 -0.0806 -0.2926  0.3191
63039SOL    HW199431   4.095   0.059   1.538  0.1916 -0.2192 -0.2639
63039SOL    HW299432   4.181   0.107   1.652 -0.7898 -0.4814  0.5949
63040SOL     OW99433   8.112   8.784  12.505 -0.7353  0.1697  0.1370
63040SOL    HW199434   8.111   8.871  12.546 -0.2321 -0.2112  0.9903
63040SOL    HW299435   8.022   8.771  12.474 -0.6019  1.3648 -0.8409
63041SOL     OW99436   5.505  10.806  10.184 -0.3225  0.0931  0.1997
63041SOL    HW199437   5.600  10.815  10.171 -0.0174 -2.4906  0.2038
63041SOL    HW299438   5.493  10.819  10.278 -0.0269  0.6134  0.1750
63042SOL     OW99439   6.892   6.284   4.508  0.2692 -0.5416 -0.0466
63042SOL    HW199440   6.970   6.228   4.515 -1.1315 -2.6087  0.0438
63042SOL    HW299441   6.847   6.252   4.430  0.7600  2.4159 -1.7039
63043SOL     OW99442   0.997   0.054   0.669 -0.1423  0.0158  0.1740
63043SOL    HW199443   0.939  -0.016   0.699 -0.9590 -0.3359 -2.0240
63043SOL    HW299444   1.074   0.008   0.634 -0.7389  0.1373 -1.4017
63044SOL     OW99445   0.006   1.476   2.740 -0.1753 -0.2901  0.6944
63044SOL    HW199446   0.075   1.431   2.690 -0.1854  1.9696 -1.5349
63044SOL    HW299447   0.054   1.532   2.801 -0.0750 -0.0491  0.3956
63045SOL     OW99448   4.980   7.159   9.655 -0.3530 -0.2599  0.2335
63045SOL    HW199449   4.975   7.174   9.560  1.9016  0.3573  0.1534
63045SOL    HW299450   5.072   7.137   9.670 -0.9503 -1.6034  2.1270
63046SOL     OW99451   2.052   7.084   1.593  0.0969  0.0278  0.2197
63046SOL    HW199452   2.058   7.064   1.500 -1.7322 -2.2600  0.4955
63046SOL    HW299453   2.103   7.015   1.636 -1.8952 -1.0255  1.0115
63047SOL     OW99454   0.379   4.057   5.577  0.2219 -0.0327  0.0466
63047SOL    HW199455   0.359   4.098   5.661  1.5542 -0.1384  0.4389
63047SOL    HW299456   0.475   4.050   5.576  0.1281 -1.8053 -0.6208
63048SOL     OW99457   8.767   9.340   8.409 -0.6640  0.1956  0.2834
63048SOL    HW199458   8.716   9.386   8.477 -1.2087 -0.8727  0.6187
63048SOL    HW299459   8.721   9.257   8.397  1.1140 -0.9103  0.7548
63049SOL     OW99460   4.472   3.648   8.375  0.2156 -0.3721  0.0468
63049SOL    HW199461   4.553   3.609   8.409 -0.3603 -0.0418  1.8754
63049SOL    HW299462   4.496   3.738   8.353  0.0480  0.1640  1.9321
63050SOL     OW99463   4.609   7.166  12.438  0.6983 -0.0867  0.1724
63050SOL    HW199464   4.702   7.149  12.422  1.0810 -0.1455  2.2252
63050SOL    HW299465   4.586   7.110  12.513  0.2270  3.1685  2.6718
63051SOL     OW99466   8.416   9.122  11.384 -0.1534  0.1884  0.1341
63051SOL    HW199467   8.321   9.138  11.382 -1.1486 -3.3662  4.2422
63051SOL    HW299468   8.442   9.144  11.473  2.2287 -1.7868  0.0157
63052SOL     OW99469  11.221  11.806   4.162 -0.5837  0.0786 -0.4713
63052SOL    HW199470  11.243  11.867   4.092 -1.9762 -0.2278 -1.2141
63052SOL    HW299471  11.146  11.845   4.206  0.0391  0.0755  0.6091
63053SOL     OW99472   6.979   5.954   3.790  0.5544  0.4138 -0.6443
63053SOL    HW199473   6.968   5.878   3.847 -1.1647  0.9810 -0.1460
63053SOL    HW299474   7.070   5.980   3.803  0.6689 -0.4566  0.5808
63054SOL     OW99475   1.782   5.009   2.360  0.4519  0.0782  0.1002
63054SOL    HW199476   1.776   5.089   2.307  1.4054  0.8504  1.1192
63054SOL    HW299477   1.704   5.012   2.415  1.8456  1.8336  2.1368
63055SOL     OW99478   9.673  12.445   2.481 -0.3039  0.1693  0.4452
63055SOL    HW199479   9.719  12.401   2.553 -1.6924  0.4375  1.5475
63055SOL    HW299480   9.663  12.535   2.510  2.6184  1.3687 -1.8538
63056SOL     OW99481  10.666   4.469   0.002  0.4930 -0.1236 -0.2537
63056SOL    HW199482  10.659   4.544  -0.056  0.0259  0.2942  0.3261
63056SOL    HW299483  10.629   4.500   0.085 -1.3579 -1.5104 -0.4911
63057SOL     OW99484   4.837   3.707   8.857  0.7925 -0.3498 -0.1099
63057SOL    HW199485   4.919   3.729   8.903  1.6100  2.2348 -2.5506
63057SOL    HW299486   4.865   3.684   8.769 -0.9949 -1.6646 -0.3791
63058SOL     OW99487   1.487   2.104   0.338  0.1813  0.3014 -0.2704
63058SOL    HW199488   1.409   2.138   0.382  0.9605  1.6252  0.1359
63058SOL    HW299489   1.477   2.009   0.340 -0.6801  0.4059  1.1316
63059SOL     OW99490  11.668   5.233  12.139 -0.2105 -0.5492 -0.0174
63059SOL    HW199491  11.707   5.149  12.115  3.1465  1.0150 -0.5617
63059SOL    HW299492  11.685   5.290  12.064 -0.9478  1.0822  0.9889
63060SOL     OW99493  11.414   3.795   8.561 -0.3419  0.7144  0.3634
63060SOL    HW199494  11.438   3.810   8.469 -0.3815  1.0903  0.4149
63060SOL    HW299495  11.469   3.722   8.588  0.3852  1.2485  0.3359
63061SOL     OW99496   4.188   3.384   1.506  0.1809  0.0281 -0.0344
63061SOL    HW199497   4.274   3.418   1.481 -0.0863 -1.2003 -2.9023
63061SOL    HW299498   4.206   3.299   1.546  0.2937 -0.4086 -1.0022
63062SOL     OW99499  10.322   1.826   7.819 -0.3792  0.1598 -0.6893
63062SOL    HW199500  10.267   1.752   7.792 -0.3324  0.0528 -0.4983
63062SOL    HW299501  10.327   1.818   7.914  0.3818 -0.1358 -0.7469
63063SOL     OW99502   9.829   7.116   1.551 -0.1924 -0.0449  0.1505
63063SOL    HW199503   9.844   7.026   1.581 -1.9129 -0.3204  0.2737
63063SOL    HW299504   9.893   7.128   1.480 -1.1245 -2.0431 -1.1414
63064SOL     OW99505   7.108   9.112  10.439  0.2635  0.0810 -0.0864
63064SOL    HW199506   7.147   9.119  10.352 -0.3872 -0.2223 -0.4062
63064SOL    HW299507   7.018   9.141  10.428  0.1258 -0.1311  0.4514
63065SOL     OW99508   5.161  10.510   9.376 -0.5444 -0.4146  0.1844
63065SOL    HW199509   5.155  10.419   9.405  1.6878 -0.0664  1.9696
63065SOL    HW299510   5.120  10.561   9.446 -2.0208 -0.0119 -0.9276
63066SOL     OW99511   9.536   4.801   4.886 -0.8174  0.0924  0.3919
63066SOL    HW199512   9.608   4.790   4.949 -0.5627 -2.9325 -0.2532
63066SOL    HW299513   9.466   4.746   4.920 -1.1306 -0.6079 -1.2931
63067SOL     OW99514  12.776  10.839   4.399 -0.4166  0.3492 -0.3939
63067SOL    HW199515  12.751  10.756   4.361 -1.4574  0.5660 -0.2015
63067SOL    HW299516  12.702  10.898   4.382 -0.5820  0.6718  1.2243
63068SOL     OW99517   7.829  10.576   0.383 -0.1778 -0.0296  0.0924
63068SOL    HW199518   7.827  10.611   0.472 -1.7087  0.2425 -0.0128
63068SOL    HW299519   7.777  10.496   0.388  1.2014 -0.9852 -0.2063
63069SOL     OW99520   3.028   2.715  12.314  0.2135 -0.0999 -0.1684
63069SOL    HW199521   3.008   2.756  12.230  1.7433  1.3212  0.1181
63069SOL    HW299522   2.944   2.678  12.342 -0.5714  0.3220 -1.8003
63070SOL     OW99523   3.219   1.310  12.900  0.2495 -0.7459  0.0838
63070SOL    HW199524   3.292   1.332  12.841 -0.8408  2.0182 -0.3997
63070SOL    HW299525   3.143   1.305  12.843 -0.8943  2.3028  1.1220
63071SOL     OW99526   1.982   4.231  10.641  0.0107  0.6842  0.0161
63071SOL    HW199527   2.028   4.292  10.583 -0.8736  1.2845 -0.0757
63071SOL    HW299528   1.935   4.172  10.581  0.9728 -0.1854  0.1029
63072SOL     OW99529   4.460   1.487  11.710  0.3529  0.2199  0.1549
63072SOL    HW199530   4.450   1.444  11.626  0.9889 -1.7844  1.0345
63072SOL    HW299531   4.543   1.535  11.703 -0.2894  1.2270 -0.7935
63073SOL     OW99532   9.041   2.421   9.915 -0.0676 -0.3375 -0.0042
63073SOL    HW199533   9.053   2.405   9.821 -0.5441  0.0819 -0.1400
63073SOL    HW299534   9.109   2.485   9.937 -0.7025  0.4486 -0.3179
63074SOL     OW99535   3.558   3.155   4.448 -0.3082 -0.1043 -0.3315
63074SOL    HW199536   3.518   3.070   4.428 -2.1992  0.5546  0.4654
63074SOL    HW299537   3.565   3.157   4.543  1.4281 -0.0708 -0.4310
63075SOL     OW99538   1.363   9.319   2.368 -0.6073 -0.6462 -0.0408
63075SOL    HW199539   1.361   9.228   2.397 -2.8016 -0.4747  0.5304
63075SOL    HW299540   1.293   9.325   2.303 -0.5211  0.6481 -0.0443
63076SOL     OW99541   1.984   2.551   1.226  0.1535  0.3219 -0.5210
63076SOL    HW199542   2.039   2.624   1.198  1.7234 -0.5985  0.0209
63076SOL    HW299543   1.970   2.499   1.147  2.6481 -1.0423 -0.1512
63077SOL     OW99544   0.094  11.418   1.737 -0.7538 -0.6764 -0.0005
63077SOL    HW199545   0.183  11.384   1.746  0.4006  2.0342 -0.2192
63077SOL    HW299546   0.064  11.430   1.827 -0.4846 -0.6641  0.0907
63078SOL     OW99547   3.618   9.340  11.689 -0.3051 -0.1582  0.4728
63078SOL    HW199548   3.542   9.303  11.733  1.6623 -1.5352  2.9638
63078SOL    HW299549   3.584   9.418  11.645 -3.9165 -2.7265 -1.9281
63079SOL     OW99550   6.959  10.444   8.066 -0.3077 -0.4375 -0.4008
63079SOL    HW199551   6.962  10.487   8.151  1.4620 -1.5834  0.1952
63079SOL    HW299552   6.948  10.514   8.003 -0.6182  0.5364  0.7064
63080SOL     OW99553   7.143   5.002   7.767 -0.1990  0.3366 -0.1119
63080SOL    HW199554   7.163   5.025   7.858 -0.4538  0.6037 -0.1224
63080SOL    HW299555   7.222   4.958   7.735 -0.8350 -1.6597  0.8823
63081SOL     OW99556   4.356  12.310  12.747  0.0471 -0.0428  0.0715
63081SOL    HW199557   4.324  12.222  12.767 -0.8514 -0.0002 -1.0427
63081SOL    HW299558   4.380  12.347  12.831 -0.8911 -0.8531  0.7157
63082SOL     OW99559   1.557  12.027   8.702 -0.0480 -0.6820  0.0634
63082SOL    HW199560   1.513  12.033   8.787  0.3256 -1.1767  0.2874
63082SOL    HW299561   1.535  11.940   8.670 -0.7101 -0.2667 -0.6369
63083SOL     OW99562   9.527  12.581  10.014 -0.0479  0.0551  0.1376
63083SOL    HW199563   9.439  12.544  10.006 -0.0316  0.2593 -1.1558
63083SOL    HW299564   9.514  12.663  10.063 -0.7040  0.4949 -0.7425
63084SOL     OW99565   3.152   7.793   2.043  0.1637  0.2941  0.3794
63084SOL    HW199566   3.078   7.793   1.982  0.7455 -0.6936 -0.3571
63084SOL    HW299567   3.220   7.744   1.997  0.6159 -0.4935  1.8360
63085SOL     OW99568   5.160   5.417   7.854  0.2095 -0.1319  0.7452
63085SOL    HW199569   5.076   5.372   7.852  0.2528 -0.2982 -2.1016
63085SOL    HW299570   5.141   5.505   7.822  1.0407 -0.0803  0.3615
63086SOL     OW99571   7.284   1.071   0.692  0.3759  0.0279  0.8100
63086SOL    HW199572   7.364   1.087   0.741  1.4331  0.4214 -0.9751
63086SOL    HW299573   7.271   0.977   0.697  2.1707 -0.3310 -0.6676
63087SOL     OW99574  10.768   6.560  10.429 -0.4659  0.3914 -0.0237
63087SOL    HW199575  10.796   6.640  10.473  3.0983 -0.2176 -0.8784
63087SOL    HW299576  10.681   6.542  10.465 -0.3775  3.2869  1.9797
63088SOL     OW99577  12.217   2.173   3.589 -0.8290 -0.3359  0.2090
63088SOL    HW199578  12.267   2.217   3.520 -1.8831  1.9710  0.8273
63088SOL    HW299579  12.138   2.141   3.544  0.5931 -3.0880 -0.5527
63089SOL     OW99580   3.704   7.014  12.954 -0.7466  0.3460  0.8217
63089SOL    HW199581   3.730   7.106  12.949 -3.2745  1.1177  0.1804
63089SOL    HW299582   3.660   7.006  13.038  0.4911 -0.6089  1.3991
63090SOL     OW99583   1.701   4.731   9.455 -0.2624 -0.7925  0.1145
63090SOL    HW199584   1.662   4.722   9.368 -2.3485 -1.4432  1.0710
63090SOL    HW299585   1.795   4.728   9.439 -0.5535  0.4322 -2.2488
63091SOL     OW99586   0.908   2.814   2.097 -0.6214 -0.3795 -0.4447
63091SOL    HW199587   0.977   2.754   2.069  1.6027  1.5303  0.6104
63091SOL    HW299588   0.874   2.852   2.016  1.6061  0.7368 -0.9228
63092SOL     OW99589   9.900   0.020   2.911  0.4669  0.4643 -0.4940
63092SOL    HW199590   9.860   0.096   2.869 -3.6569  0.0809  2.1201
63092SOL    HW299591   9.974   0.055   2.959  1.1699  2.0194 -2.5675
63093SOL     OW99592   2.527  12.664   5.658  0.5028  0.0161  0.3552
63093SOL    HW199593   2.592  12.607   5.617  0.6816  1.4048 -1.4380
63093SOL    HW299594   2.463  12.604   5.697 -1.3638 -1.6749 -4.5393
63094SOL     OW99595  12.183  11.199   8.802  0.0763 -0.7037 -0.4261
63094SOL    HW199596  12.273  11.224   8.778 -0.2663 -1.2684 -2.5842
63094SOL    HW299597  12.139  11.282   8.820  0.8604 -0.3696  0.0171
63095SOL     OW99598  11.702   0.530   3.432 -0.1319  0.7836  0.1159
63095SOL    HW199599  11.705   0.583   3.511 -0.6427 -1.1824  1.5427
63095SOL    HW299600  11.608   0.521   3.412 -0.2401 -1.3427  1.2442
63096SOL     OW99601   0.307   6.818   0.764 -0.0621 -0.0243 -0.0629
63096SOL    HW199602   0.246   6.787   0.696 -1.3787  1.6580  0.2682
63096SOL    HW299603   0.386   6.841   0.716  0.1209 -1.6549 -0.5968
63097SOL     OW99604   7.951  11.832   8.454  0.0268 -0.3208 -0.1026
63097SOL    HW199605   7.957  11.814   8.548 -0.6676  0.9698  0.2075
63097SOL    HW299606   7.857  11.828   8.436  0.1724 -0.7191 -0.7795
63098SOL     OW99607   5.556   7.334   7.826  0.0883 -0.3624  0.3013
63098SOL    HW199608   5.611   7.408   7.853 -0.6860  0.6274 -0.7440
63098SOL    HW299609   5.577   7.322   7.733  0.0577 -1.3513  0.4127
63099SOL     OW99610   3.700  11.062   0.732 -0.1339 -0.4156  0.6894
63099SOL    HW199611   3.747  11.051   0.815  0.9868  1.3982  0.3337
63099SOL    HW299612   3.656  11.147   0.741 -1.2734 -0.9162  0.0105
63100SOL     OW99613   7.124  11.271   7.329  0.2137  0.8060  0.2381
63100SOL    HW199614   7.071  11.285   7.408  0.2759 -0.9764  0.6315
63100SOL    HW299615   7.061  11.274   7.257  0.0238  1.5823  0.4318
63101SOL     OW99616   4.182   0.739  11.737  0.8726 -0.3295 -0.7604
63101SOL    HW199617   4.203   0.662  11.789  0.4250  0.0450  0.0031
63101SOL    HW299618   4.210   0.813  11.792 -0.3760  0.1029 -0.6627
63102SOL     OW99619  11.374   7.370   1.715 -0.3132 -0.5285 -0.1400
63102SOL    HW199620  11.381   7.318   1.796 -1.1083 -1.1885 -0.4831
63102SOL    HW299621  11.462   7.407   1.703 -0.3999  0.2921  1.4845
63103SOL     OW99622   6.008   1.063   7.026  0.4314 -0.1617 -0.1422
63103SOL    HW199623   6.014   1.056   7.121 -0.1164  0.7304 -0.0299
63103SOL    HW299624   6.099   1.054   6.996  0.7098  0.3121  0.5289
63104SOL     OW99625   7.987   2.964   0.127  0.3552 -0.2824  0.2488
63104SOL    HW199626   7.988   3.059   0.120  1.1980 -0.3629 -0.9738
63104SOL    HW299627   7.907   2.945   0.175 -1.1529  0.9239 -1.6370
63105SOL     OW99628  12.834   9.777  10.129 -0.1295 -0.3077  0.2980
63105SOL    HW199629  12.839   9.871  10.113 -0.8955 -0.5124 -1.3731
63105SOL    HW299630  12.868   9.737  10.049  0.6943 -1.4750  1.1922
63106SOL     OW99631   2.714   6.719  12.215 -0.5224  0.0291  0.4460
63106SOL    HW199632   2.641   6.683  12.264  0.2326 -1.3982  0.5769
63106SOL    HW299633   2.751   6.645  12.167  1.0480  0.6220  0.6578
63107SOL     OW99634   8.589   6.294   2.987 -0.2892 -0.3837  0.8791
63107SOL    HW199635   8.528   6.354   3.029 -1.1523 -0.8446  0.3129
63107SOL    HW299636   8.551   6.277   2.901 -0.1224 -1.8219  1.0657
63108SOL     OW99637  12.051   8.281   7.879 -0.0668 -0.1169  0.2414
63108SOL    HW199638  11.992   8.218   7.920 -0.1066 -0.0721  0.2536
63108SOL    HW299639  12.100   8.320   7.952 -0.1696 -0.0044  0.2503
63109SOL     OW99640   9.738   6.506   2.567 -0.3695  0.2875 -0.1002
63109SOL    HW199641   9.828   6.524   2.595 -0.4408  1.3487 -0.5024
63109SOL    HW299642   9.705   6.591   2.537 -1.2865 -0.2273 -0.5825
63110SOL     OW99643   0.223  11.845   1.913 -0.0943  0.0961  0.0271
63110SOL    HW199644   0.131  11.865   1.894 -0.2890  0.0750  0.9139
63110SOL    HW299645   0.219  11.769   1.971  0.5549 -1.0943 -1.4198
63111SOL     OW99646   2.082  10.957  10.713 -0.3629 -0.3752  0.5753
63111SOL    HW199647   2.114  11.048  10.720 -0.3140 -0.1677 -1.5848
63111SOL    HW299648   1.987  10.965  10.713 -0.5580  0.3580 -4.3756
63112SOL     OW99649   1.306   4.169   2.228  0.0397 -0.3266 -0.1397
63112SOL    HW199650   1.250   4.150   2.154  2.0573 -0.8019 -1.6432
63112SOL    HW299651   1.330   4.261   2.217  0.0731 -0.3042  0.1191
63113SOL     OW99652   1.623  10.766   0.093  0.3262  0.1344 -0.1400
63113SOL    HW199653   1.679  10.714   0.151 -0.1060 -1.3981 -1.0174
63113SOL    HW299654   1.682  10.799   0.026  0.2004 -1.9129 -1.3649
63114SOL     OW99655   7.074   0.842   2.615 -0.1525  0.0967  0.1036
63114SOL    HW199656   7.167   0.862   2.628 -0.1872  0.3435 -0.0192
63114SOL    HW299657   7.073   0.782   2.540  0.0465 -1.3476  1.2232
63115SOL     OW99658   8.688  12.759   6.476  0.1177 -0.2254 -0.4711
63115SOL    HW199659   8.615  12.794   6.425 -0.4695 -1.0920 -0.2501
63115SOL    HW299660   8.660  12.767   6.567  0.7835  0.4768 -0.3178
63116SOL     OW99661   6.360   7.937   2.620 -0.2682 -0.5129 -0.8645
63116SOL    HW199662   6.341   8.031   2.621  0.4848 -0.2794  2.0500
63116SOL    HW299663   6.274   7.895   2.622 -0.6029  0.1144 -1.6144
63117SOL     OW99664   1.386   2.792   7.168 -0.2533 -0.0958  0.4422
63117SOL    HW199665   1.408   2.823   7.255 -1.1516  0.7593  0.3735
63117SOL    HW299666   1.334   2.862   7.129 -0.6261 -0.8453 -0.4521
63118SOL     OW99667  11.004   7.362   0.778 -0.2041  0.3118  0.4931
63118SOL    HW199668  10.931   7.313   0.815 -1.4499  0.7875 -1.2291
63118SOL    HW299669  10.988   7.453   0.804 -1.6026  0.8126 -1.7745
63119SOL     OW99670  11.731   2.915  12.017  0.1083  0.3343  0.4617
63119SOL    HW199671  11.693   2.847  12.073 -0.0300 -0.1647 -0.2285
63119SOL    HW299672  11.815   2.880  11.989  0.2473  0.6470  0.4753
63120SOL     OW99673   1.568   6.717   0.105  0.1838 -0.0522  0.2328
63120SOL    HW199674   1.552   6.687   0.016  0.7915  0.7172 -0.1414
63120SOL    HW299675   1.587   6.637   0.154  2.1375 -0.3075 -0.8282
63121SOL     OW99676   7.054   0.739  10.242 -0.7957  0.0419 -0.1489
63121SOL    HW199677   7.011   0.654  10.255 -1.4369  0.3296 -0.3630
63121SOL    HW299678   6.990   0.792  10.194 -0.3496  0.6057 -0.1377
63122SOL     OW99679   5.253   6.285   6.906  0.3397  0.3222 -0.1939
63122SOL    HW199680   5.256   6.199   6.949  3.0494 -0.2180 -1.2553
63122SOL    HW299681   5.254   6.265   6.812 -1.5101  1.5266 -0.5184
63123SOL     OW99682   6.444   0.965   7.674 -0.3182 -0.7995 -0.4916
63123SOL    HW199683   6.491   0.891   7.714 -0.9894 -1.7664 -1.4402
63123SOL    HW299684   6.474   0.966   7.583  0.3702  0.6983 -0.2791
63124SOL     OW99685  10.800   7.052   0.383  0.4962  0.3919  0.0920
63124SOL    HW199686  10.881   7.009   0.355  0.2172 -0.7000  0.8898
63124SOL    HW299687  10.826   7.101   0.462  0.4615  0.3547  0.1264
63125SOL     OW99688  12.734   2.166   3.351 -0.4222  0.2829  0.4372
63125SOL    HW199689  12.679   2.230   3.306  0.3955  0.2466 -0.6605
63125SOL    HW299690  12.699   2.081   3.324 -0.4306  0.2616  0.5152
63126SOL     OW99691   5.302   9.732   1.460  0.0930 -0.0567 -0.0007
63126SOL    HW199692   5.237   9.775   1.406 -1.0180  0.0433  1.3475
63126SOL    HW299693   5.352   9.804   1.500 -1.1985  0.0088  1.5769
63127SOL     OW99694   9.283   9.021  10.089 -0.3855  0.6174  0.3318
63127SOL    HW199695   9.296   8.937  10.131 -3.4103  0.1941  0.6534
63127SOL    HW299696   9.240   9.075  10.155 -0.1676  1.8013 -0.4496
63128SOL     OW99697   2.543   3.309   1.334  0.1072  0.4298  0.1028
63128SOL    HW199698   2.557   3.374   1.265  2.0722 -0.0043  0.0519
63128SOL    HW299699   2.589   3.344   1.410  2.3985 -1.4668 -0.3098
63129SOL     OW99700   6.511   5.962   8.141  0.2906  0.0884  0.1470
63129SOL    HW199701   6.569   6.038   8.132 -0.3521  0.4445 -1.2897
63129SOL    HW299702   6.502   5.928   8.052  0.8088 -1.8871  0.8072
63130SOL     OW99703   4.148   1.310   9.110  0.1717  0.5026 -0.1399
63130SOL    HW199704   4.166   1.333   9.018 -0.1398  0.8093 -0.1270
63130SOL    HW299705   4.231   1.328   9.155  0.3927  0.1389 -0.3982
63131SOL     OW99706   8.180   7.922   4.529  0.6392 -0.1007  0.6322
63131SOL    HW199707   8.124   7.996   4.549  0.6651 -0.2825  1.4138
63131SOL    HW299708   8.268   7.958   4.525  0.5775  0.0217  0.3334
63132SOL     OW99709   2.011   5.885  12.937 -0.2453  0.3824 -0.0596
63132SOL    HW199710   2.038   5.839  12.857  1.3969 -0.6021  0.9795
63132SOL    HW299711   2.081   5.949  12.952 -0.1397  0.0488  0.9560
63133SOL     OW99712   3.316   6.319  10.613 -0.0296 -0.3533 -0.0591
63133SOL    HW199713   3.356   6.370  10.684 -0.9863 -0.1620  0.3679
63133SOL    HW299714   3.330   6.228  10.638  1.9417 -0.3454 -0.9699
63134SOL     OW99715   4.240   8.525   6.059 -0.7492  0.1983  0.5564
63134SOL    HW199716   4.301   8.583   6.014 -0.1272 -1.3844 -0.7303
63134SOL    HW299717   4.290   8.445   6.075 -2.0418 -0.5882  0.7939
63135SOL     OW99718   2.855  12.918   4.332 -0.2132 -0.2376 -0.1441
63135SOL    HW199719   2.811  12.874   4.405 -0.5020  0.6849  0.2530
63135SOL    HW299720   2.924  12.970   4.373  0.2220 -0.4285 -0.6195
63136SOL     OW99721  11.540   3.828   3.035  0.0362 -0.0426 -0.0754
63136SOL    HW199722  11.584   3.766   3.093 -0.1823  0.3395  0.5071
63136SOL    HW299723  11.540   3.785   2.949  2.1194  0.1978 -0.2546
63137SOL     OW99724  12.847  11.707   0.394 -0.1316  0.8363  0.0355
63137SOL    HW199725  12.789  11.780   0.374 -0.7827  0.1252 -0.7628
63137SOL    HW299726  12.935  11.740   0.376 -0.2646  1.9143  1.2134
63138SOL     OW99727   1.233   7.922   1.367  0.3173 -0.0641 -0.1211
63138SOL    HW199728   1.265   7.890   1.283  1.2942  1.5043 -0.3942
63138SOL    HW299729   1.305   7.907   1.428 -0.8038 -2.2325  0.7402
63139SOL     OW99730   9.393  11.758   1.505  0.2504  0.1318  0.9187
63139SOL    HW199731   9.301  11.758   1.531  0.3307 -0.2402  1.2081
63139SOL    HW299732   9.405  11.673   1.461  0.3362  0.3821  0.4464
63140SOL     OW99733   1.133  12.126   4.321 -0.0142  0.3805  0.7065
63140SOL    HW199734   1.192  12.073   4.375  1.6074  0.9631 -0.3902
63140SOL    HW299735   1.154  12.216   4.343  1.1661  0.6589 -1.2486
63141SOL     OW99736   6.395   2.582   4.744  0.2887 -0.0737 -0.2361
63141SOL    HW199737   6.432   2.602   4.829  0.6604  0.8286 -0.6012
63141SOL    HW299738   6.449   2.631   4.682 -1.4221  1.1987 -0.8093
63142SOL     OW99739  11.798   6.242   5.477  0.1900 -0.3162  0.1442
63142SOL    HW199740  11.818   6.191   5.556  2.0308 -1.2615 -0.8530
63142SOL    HW299741  11.731   6.191   5.432 -0.2968 -0.1789  0.6990
63143SOL     OW99742   3.920   6.971   1.087  0.3531 -0.3012 -0.1897
63143SOL    HW199743   3.881   6.884   1.094  0.0396 -0.0920  0.9888
63143SOL    HW299744   4.014   6.956   1.098  0.2174 -0.4216  1.0297
63144SOL     OW99745   1.648   9.422   7.545 -0.2205  0.8329 -0.3783
63144SOL    HW199746   1.604   9.405   7.628 -1.3141  0.0820 -1.0857
63144SOL    HW299747   1.651   9.517   7.537  1.7726  1.0022  1.4741
63145SOL     OW99748  10.316   1.634  10.633  0.5155 -0.1476  0.0738
63145SOL    HW199749  10.243   1.679  10.591  0.1191 -0.4554  0.4327
63145SOL    HW299750  10.371   1.604  10.560 -1.3590 -2.7413 -0.3934
63146SOL     OW99751   9.421   8.650   6.038 -0.3070  0.0775  0.4159
63146SOL    HW199752   9.481   8.588   6.079  0.3018 -0.2516 -0.9333
63146SOL    HW299753   9.345   8.598   6.014  0.2915 -0.2190 -0.9071
63147SOL     OW99754   9.269   3.357  10.569 -0.1907  0.1174  1.0410
63147SOL    HW199755   9.289   3.361  10.475  0.8487  0.0681  1.2549
63147SOL    HW299756   9.273   3.448  10.598  2.4747 -0.1095  1.6189
63148SOL     OW99757   6.592   6.713   3.596 -0.0967  0.5342  0.2993
63148SOL    HW199758   6.641   6.670   3.666 -1.2127  0.7995  1.2701
63148SOL    HW299759   6.516   6.657   3.582 -0.4187  1.0381  0.0218
63149SOL     OW99760   0.789   9.191   3.654 -0.1724  0.0729  0.3963
63149SOL    HW199761   0.785   9.258   3.586  0.3902 -0.3514 -0.0698
63149SOL    HW299762   0.866   9.139   3.631 -1.0418 -1.2131  0.2964
63150SOL     OW99763   5.092  10.895   3.837 -0.2142  0.2386 -0.3830
63150SOL    HW199764   5.043  10.925   3.913  0.7318  0.9212 -0.0332
63150SOL    HW299765   5.036  10.827   3.798 -0.2618 -0.8647  1.4900
63151SOL     OW99766   1.667   5.511  10.594 -0.6409  0.4999  0.0711
63151SOL    HW199767   1.634   5.497  10.683 -0.3768 -0.3140  0.0485
63151SOL    HW299768   1.602   5.569  10.553 -2.1470 -1.1798 -0.0311
63152SOL     OW99769  10.269   8.535   1.620  0.2048  0.4426  0.3285
63152SOL    HW199770  10.280   8.511   1.528  0.3512 -1.2927  0.7578
63152SOL    HW299771  10.302   8.625   1.626 -1.9577  1.4808 -1.7500
63153SOL     OW99772   8.418   3.492   7.393  0.0964 -0.4397  0.5963
63153SOL    HW199773   8.465   3.466   7.472  2.2701 -1.8643 -1.0589
63153SOL    HW299774   8.404   3.410   7.346 -0.4196  0.4675 -0.8702
63154SOL     OW99775   2.728  12.366   4.512  0.0931  0.0837 -0.0076
63154SOL    HW199776   2.643  12.368   4.469 -0.3095 -1.9033  0.6030
63154SOL    HW299777   2.716  12.417   4.593  0.1356  1.6372 -0.9386
63155SOL     OW99778   4.499   5.029  11.534  0.0277 -0.1680  0.4597
63155SOL    HW199779   4.540   5.108  11.569 -1.1653  0.2588  0.9469
63155SOL    HW299780   4.505   4.965  11.604 -1.7676  0.4807  1.2610
63156SOL     OW99781   3.078  12.158   0.645  0.1685 -0.2599  0.1929
63156SOL    HW199782   3.118  12.205   0.571  1.1619 -0.2135  0.7387
63156SOL    HW299783   3.123  12.073   0.646 -0.5119 -0.6222  0.1711
63157SOL     OW99784   0.067   7.638   7.047  0.4017  0.2031  0.5052
63157SOL    HW199785   0.028   7.597   6.970 -2.2339 -0.3487  2.0267
63157SOL    HW299786   0.085   7.565   7.106  1.6448  0.6911  0.7647
63158SOL     OW99787   8.940   2.411  10.511  0.1326  0.2764  0.0701
63158SOL    HW199788   8.882   2.339  10.485 -1.0175  0.9008  0.8012
63158SOL    HW299789   8.913   2.484  10.456 -0.0798  0.6963  0.7243
63159SOL     OW99790   4.644   6.952   7.917 -0.7177  0.0328 -0.0863
63159SOL    HW199791   4.703   6.917   7.851  0.2654 -0.1413  0.8517
63159SOL    HW299792   4.671   7.044   7.928 -1.6813  0.4138 -0.7882
63160SOL     OW99793   3.814   4.502   5.233 -0.1652 -0.4473 -0.2700
63160SOL    HW199794   3.887   4.563   5.242 -0.6749  0.0787  0.3546
63160SOL    HW299795   3.854   4.415   5.239  0.6767 -0.2297 -1.9046
63161SOL     OW99796  11.824  10.020   4.521 -0.2872 -0.1937  0.1297
63161SOL    HW199797  11.851  10.110   4.538  0.4618 -0.2431 -0.7133
63161SOL    HW299798  11.786  10.022   4.433  1.7609 -1.0650 -0.8463
63162SOL     OW99799  12.469   9.705   9.796  0.3226 -0.6008  0.1025
63162SOL    HW199800  12.458   9.800   9.797 -0.1562 -0.6440  1.5583
63162SOL    HW299801  12.437   9.678   9.710 -2.6167  0.2329  0.8453
63163SOL     OW99802   5.075   0.423  12.091 -0.0490  0.2357 -0.4104
63163SOL    HW199803   5.002   0.381  12.045  0.0800  0.3240 -0.7037
63163SOL    HW299804   5.034   0.479  12.156 -0.2355  0.0603 -0.3758
63164SOL     OW99805   9.332  11.002   9.719  0.0439  0.4338  0.1548
63164SOL    HW199806   9.349  11.059   9.644 -0.0880 -0.6951 -0.7692
63164SOL    HW299807   9.316  11.062   9.791  0.9048  1.5568 -0.5416
63165SOL     OW99808  10.154   8.247   0.349  0.1540 -0.5633 -0.1699
63165SOL    HW199809  10.249   8.241   0.362  0.1625  0.3951  0.3013
63165SOL    HW299810  10.143   8.315   0.283 -0.1911 -0.9559 -0.5181
63166SOL     OW99811   6.392   8.851   8.645 -0.2287 -0.3936 -0.5407
63166SOL    HW199812   6.429   8.888   8.725  2.0278 -0.6073 -1.4177
63166SOL    HW299813   6.370   8.927   8.592  2.5266 -0.1508 -1.5118
63167SOL     OW99814   8.524   7.938   3.574  0.0963 -0.1648  0.2945
63167SOL    HW199815   8.616   7.915   3.579 -0.2610 -1.7491 -0.0231
63167SOL    HW299816   8.491   7.892   3.497 -1.0010  0.2179  0.5105
63168SOL     OW99817   6.614  11.212   3.023 -0.2327 -0.2037  0.0178
63168SOL    HW199818   6.632  11.220   3.117 -0.2444  0.4807 -0.0364
63168SOL    HW299819   6.687  11.159   2.989  0.7154  0.9812  0.1220
63169SOL     OW99820   1.180   4.785  11.945 -0.3974 -0.1018  0.0691
63169SOL    HW199821   1.118   4.854  11.968  0.2402  0.2076  0.9224
63169SOL    HW299822   1.226   4.766  12.027  1.7602  0.8062 -0.8407
63170SOL     OW99823   1.051   2.225   5.390  0.4668  0.1443  0.0174
63170SOL    HW199824   1.082   2.231   5.299 -0.7175  1.2222 -0.3324
63170SOL    HW299825   1.012   2.137   5.395 -0.7104  0.5820 -0.9434
63171SOL     OW99826   8.156  10.481   7.012 -0.3401 -0.1490 -0.1430
63171SOL    HW199827   8.202  10.564   6.998  0.4322 -0.7876 -1.6193
63171SOL    HW299828   8.138  10.479   7.106  3.2836 -0.1269  0.7045
63172SOL     OW99829   2.013   8.861  12.088  0.0149 -0.4502 -0.2899
63172SOL    HW199830   2.078   8.807  12.042 -0.1356 -0.2258 -0.7610
63172SOL    HW299831   2.060   8.893  12.165  0.4436 -0.3412 -0.5952
63173SOL     OW99832   4.819   4.677   3.122 -0.6049 -0.0325 -0.4284
63173SOL    HW199833   4.851   4.651   3.035 -1.2306  2.8017 -1.6323
63173SOL    HW299834   4.739   4.728   3.104 -0.1695  1.5561  1.7080
63174SOL     OW99835   6.171  12.618   7.434  0.0452 -0.2709 -0.0392
63174SOL    HW199836   6.160  12.533   7.476  0.0277  0.4019  1.3737
63174SOL    HW299837   6.091  12.666   7.455  0.5332  0.4795  0.1199
63175SOL     OW99838   9.849   3.187  12.661 -0.4559 -0.5223 -0.6807
63175SOL    HW199839   9.834   3.148  12.747  1.3928 -1.6625 -0.8058
63175SOL    HW299840   9.846   3.281  12.676  0.7212 -0.6888  0.8600
63176SOL     OW99841  12.684   0.308   3.180 -0.1334 -0.0687  0.1464
63176SOL    HW199842  12.653   0.321   3.090 -1.4927  0.9270  0.7282
63176SOL    HW299843  12.749   0.239   3.173 -1.2306 -1.0062 -1.4141
63177SOL     OW99844   2.727  11.612  11.424 -0.2144 -0.1420 -0.2112
63177SOL    HW199845   2.756  11.570  11.343  1.4479 -0.6808  0.6306
63177SOL    HW299846   2.725  11.706  11.403  1.4484 -0.1567 -0.5180
63178SOL     OW99847  10.202   3.296   5.040  0.2897  0.1601  0.5111
63178SOL    HW199848  10.223   3.257   5.125 -0.0074  2.1442  1.5684
63178SOL    HW299849  10.264   3.368   5.032  0.5898 -0.2548 -1.1927
63179SOL     OW99850   3.313   8.564   7.514  0.3900  0.3915  0.7225
63179SOL    HW199851   3.393   8.563   7.461 -0.8707 -2.8560 -1.4763
63179SOL    HW299852   3.278   8.652   7.505  3.2299  1.6701  1.1130
63180SOL     OW99853   7.215   0.793   6.546  0.5304  0.1327  0.3122
63180SOL    HW199854   7.265   0.790   6.464 -0.1706 -0.7207 -0.0998
63180SOL    HW299855   7.260   0.731   6.604  1.4027  1.2041  0.8103
63181SOL     OW99856   0.215   1.787   8.505 -0.2739  0.5589 -0.4504
63181SOL    HW199857   0.286   1.735   8.467 -0.3276 -0.8652  1.2790
63181SOL    HW299858   0.255   1.871   8.525  0.9704 -0.2393  0.5366
63182SOL     OW99859   9.503   2.412  12.178  0.3199  0.2730 -0.1512
63182SOL    HW199860   9.508   2.337  12.238  0.2246  0.1273 -0.3241
63182SOL    HW299861   9.497   2.488  12.235 -0.7186  0.0683  0.0205
63183SOL     OW99862   6.022  10.672   6.599  0.1539  0.4185  0.6328
63183SOL    HW199863   6.071  10.626   6.667  0.3219  1.1627  1.0242
63183SOL    HW299864   5.930  10.661   6.625  0.2495  1.4835  1.5169
63184SOL     OW99865   1.244   8.449  10.947 -0.3317 -0.4113  0.2356
63184SOL    HW199866   1.337   8.466  10.957 -0.4560  1.4376 -1.2094
63184SOL    HW299867   1.239   8.368  10.897  0.6305  0.9420 -2.2236
63185SOL     OW99868   7.357   0.769   3.715 -0.3105 -0.5603  0.3956
63185SOL    HW199869   7.307   0.848   3.697 -0.9128 -0.9014  0.5335
63185SOL    HW299870   7.369   0.769   3.810 -0.4552 -0.7209  0.4136
63186SOL     OW99871   8.443  12.454  12.766  0.1892 -0.7179 -0.0802
63186SOL    HW199872   8.379  12.430  12.699  0.7531 -1.8569 -0.2303
63186SOL    HW299873   8.394  12.449  12.849 -0.8198  1.7687 -0.4088
63187SOL     OW99874   9.889   7.225  12.719 -0.3634 -0.2884  0.0286
63187SOL    HW199875   9.954   7.276  12.768 -1.1264 -0.9722  1.8263
63187SOL    HW299876   9.934   7.202  12.638  1.0413  0.7053  0.4741
63188SOL     OW99877   3.003   0.815  11.906 -0.9473 -0.2357  0.2871
63188SOL    HW199878   2.976   0.747  11.845 -0.7466  0.1535 -0.2455
63188SOL    HW299879   3.026   0.889  11.850  1.8303 -0.7408  0.6462
63189SOL     OW99880  10.708  11.079   9.577  0.5895 -0.3830  0.0411
63189SOL    HW199881  10.743  11.008   9.630  1.3647 -0.2775 -0.3170
63189SOL    HW299882  10.728  11.158   9.627  0.0983 -0.3759  0.2382
63190SOL     OW99883  12.062   1.450   6.533  0.2730 -0.0709  0.0396
63190SOL    HW199884  12.119   1.501   6.475 -0.7446  2.7103  1.3316
63190SOL    HW299885  12.033   1.513   6.600 -1.7702 -2.1694  1.2653
63191SOL     OW99886   6.765  10.303   6.516  0.0394  0.1296  0.4788
63191SOL    HW199887   6.702  10.359   6.469  1.4803  0.7371 -0.7995
63191SOL    HW299888   6.760  10.333   6.607  1.3787  3.0315 -0.2892
63192SOL     OW99889   5.954   9.669  12.405 -0.1782  0.2302 -0.0143
63192SOL    HW199890   5.874   9.629  12.371 -0.8039  0.8069  0.7401
63192SOL    HW299891   5.970   9.626  12.488  1.1203 -0.8836 -0.7961
63193SOL     OW99892   4.842  11.092   4.013 -0.2067 -0.0839 -0.1019
63193SOL    HW199893   4.864  11.111   3.922  1.4187  0.9445  0.4626
63193SOL    HW299894   4.814  11.001   4.012 -2.5843  0.5531 -1.9857
63194SOL     OW99895   3.919   1.389  11.046 -0.7156 -0.2377 -0.1711
63194SOL    HW199896   3.886   1.322  11.105 -2.5094 -1.3715 -2.3198
63194SOL    HW299897   3.846   1.450  11.035  0.6270  1.7262  1.1261
63195SOL     OW99898   3.122   7.067   9.471 -0.1396  0.8440 -0.5502
63195SOL    HW199899   3.090   7.085   9.383 -0.3717  1.5930 -0.3223
63195SOL    HW299900   3.177   6.990   9.461 -1.3735  0.0084 -1.0879
63196SOL     OW99901  11.215   0.396   6.595 -0.9994 -0.6335 -0.3158
63196SOL    HW199902  11.206   0.466   6.660  0.1362  0.5534 -1.3923
63196SOL    HW299903  11.281   0.337   6.631  1.0448  1.0192 -1.1658
63197SOL     OW99904   8.951   3.386   6.621  0.1085  0.1111 -0.1494
63197SOL    HW199905   8.905   3.456   6.575 -0.6732  0.1744  0.7053
63197SOL    HW299906   9.021   3.431   6.668  0.2950  0.1677 -0.4716
63198SOL     OW99907  11.518   4.448   5.516  0.1691  0.4585 -0.2554
63198SOL    HW199908  11.481   4.535   5.528  0.1644  0.3472  0.6217
63198SOL    HW299909  11.570   4.433   5.595 -0.1305 -0.4825 -0.2222
63199SOL     OW99910   8.777   6.080   6.623  0.2660 -0.1652 -0.0266
63199SOL    HW199911   8.712   6.103   6.557  1.0147  2.3762  0.0117
63199SOL    HW299912   8.857   6.123   6.593  1.5224 -1.8237  0.7911
63200SOL     OW99913  10.141   7.807   6.172 -0.1112 -0.0469 -0.4569
63200SOL    HW199914  10.221   7.756   6.185 -1.5412 -2.4698 -0.4271
63200SOL    HW299915  10.071   7.745   6.190 -2.0348  2.3094  0.7230
63201SOL     OW99916   8.439   4.616   5.084  0.0375 -0.2661 -0.2975
63201SOL    HW199917   8.352   4.588   5.056 -0.9831  1.2369  1.1488
63201SOL    HW299918   8.490   4.623   5.003 -0.5937 -2.9328 -1.0093
63202SOL     OW99919   2.528   6.976   4.996  0.2797 -0.1817 -0.2841
63202SOL    HW199920   2.545   6.889   5.031 -1.2232 -0.2788  0.2615
63202SOL    HW299921   2.526   6.964   4.901 -2.0897 -1.2059 -0.1530
63203SOL     OW99922   1.559  12.426   9.814 -0.7378  0.0157 -0.3901
63203SOL    HW199923   1.494  12.359   9.790 -3.0749  1.7619  0.6963
63203SOL    HW299924   1.565  12.421   9.909  1.0069 -0.2966 -0.4830
63204SOL     OW99925   5.529   1.600   7.384  0.1437  0.3631 -1.0868
63204SOL    HW199926   5.617   1.562   7.385  0.1138  0.1006  2.6656
63204SOL    HW299927   5.516   1.635   7.472 -4.1156 -1.1111 -0.8820
63205SOL     OW99928   8.410  11.904   7.737 -0.3939  0.1719  0.1839
63205SOL    HW199929   8.414  11.937   7.827 -0.2079 -0.4679  0.4121
63205SOL    HW299930   8.337  11.843   7.737  0.3290 -0.7163  0.2038
63206SOL     OW99931   0.418   0.431   6.585 -0.1838  0.3947  0.2665
63206SOL    HW199932   0.411   0.390   6.499  2.6607 -0.7310  0.4534
63206SOL    HW299933   0.430   0.358   6.645  0.5142  1.2775  1.2301
63207SOL     OW99934  11.527  12.174   2.092  0.3176  0.2569 -0.0913
63207SOL    HW199935  11.595  12.137   2.147 -0.9197  0.5886  1.7617
63207SOL    HW299936  11.468  12.101   2.074 -0.5409  0.6466  1.0577
63208SOL     OW99937  12.252  12.427   6.377  0.4652  0.1125  0.5200
63208SOL    HW199938  12.249  12.523   6.369 -1.0922  0.2809  2.3792
63208SOL    HW299939  12.195  12.396   6.307  1.0832  0.5316 -0.1800
63209SOL     OW99940   2.507  12.887  11.161  0.0743 -0.1668  0.6143
63209SOL    HW199941   2.465  12.973  11.166 -1.2361 -0.7843  0.4685
63209SOL    HW299942   2.528  12.876  11.068  1.3135  0.4679  0.7922
63210SOL     OW99943   2.534  10.691  10.467 -0.0300  0.0377 -0.3582
63210SOL    HW199944   2.469  10.697  10.397 -0.3705  0.6467 -0.0044
63210SOL    HW299945   2.563  10.600  10.466  2.2553  0.6722 -3.3209
63211SOL     OW99946   6.667   8.179   8.746  0.9043 -0.6801 -0.2369
63211SOL    HW199947   6.695   8.139   8.828 -0.3933 -2.4679 -0.5887
63211SOL    HW299948   6.671   8.107   8.682 -1.1162 -0.1836 -1.0132
63212SOL     OW99949   4.192   2.893   7.205  0.2068 -0.0643 -0.7461
63212SOL    HW199950   4.268   2.836   7.203  1.3231  1.0481  2.9863
63212SOL    HW299951   4.211   2.957   7.273 -2.3988  2.7811 -2.4062
63213SOL     OW99952   4.469   5.778   4.383 -0.3068  0.0588 -0.4691
63213SOL    HW199953   4.507   5.839   4.320  0.0008  1.7026  1.2332
63213SOL    HW299954   4.493   5.813   4.469 -1.2477 -1.7466  0.6037
63214SOL     OW99955   2.743  11.220  12.113  0.2024 -0.2855 -0.0043
63214SOL    HW199956   2.751  11.171  12.031 -2.3956 -1.8967  0.6000
63214SOL    HW299957   2.744  11.312  12.087  4.6971 -0.4530 -1.2295
63215SOL     OW99958   0.974   9.746   2.870 -0.2672 -0.3124 -0.4143
63215SOL    HW199959   1.035   9.687   2.827  1.8811 -0.0970  2.1372
63215SOL    HW299960   0.934   9.694   2.940  2.8411  1.3921  2.9320
63216SOL     OW99961   6.589   0.278   7.145 -0.0124  0.2237  0.9127
63216SOL    HW199962   6.671   0.326   7.134  0.2833 -0.4488 -0.0242
63216SOL    HW299963   6.616   0.194   7.181 -0.3819  0.2997  1.3602
63217SOL     OW99964   6.294  12.343  12.430 -0.7132 -0.1689  0.6226
63217SOL    HW199965   6.362  12.403  12.461  1.1178 -0.8213 -1.8065
63217SOL    HW299966   6.215  12.398  12.424  0.5342  1.6504 -0.0968
63218SOL     OW99967   9.412   1.224   2.853 -0.2314 -0.1222 -0.3233
63218SOL    HW199968   9.429   1.130   2.863 -0.4640  0.0834  2.9743
63218SOL    HW299969   9.397   1.255   2.942 -1.4714  2.8376 -1.4595
63219SOL     OW99970   5.287   5.972   2.066  0.4384 -0.2097 -0.0313
63219SOL    HW199971   5.352   6.039   2.086  0.8721 -0.5558 -0.2643
63219SOL    HW299972   5.259   5.940   2.152  0.5865 -0.0694  0.0695
63220SOL     OW99973   6.297   5.904   3.275 -0.0108  0.6216  0.1014
63220SOL    HW199974   6.261   5.835   3.332  1.5424  0.6624  1.1866
63220SOL    HW299975   6.220   5.942   3.233 -1.3646  1.1808  2.8245
63221SOL     OW99976   3.746  12.036   3.695 -0.2568 -0.0032 -0.2510
63221SOL    HW199977   3.663  12.005   3.658 -0.5712 -1.2712  1.4135
63221SOL    HW299978   3.810  11.971   3.669 -0.0545  0.2182 -0.3136
63222SOL     OW99979   1.123  12.677   4.906 -0.0137 -0.2294 -0.2617
63222SOL    HW199980   1.192  12.730   4.947 -1.1814  1.5618 -0.5113
63222SOL    HW299981   1.045  12.693   4.959 -0.3450 -2.0172 -0.1476
63223SOL     OW99982   3.845   6.207   7.125  0.4564 -0.0862  0.1000
63223SOL    HW199983   3.763   6.180   7.166 -0.4999 -1.3827 -2.4141
63223SOL    HW299984   3.912   6.189   7.191 -1.1486  0.0432  1.8483
63224SOL     OW99985   0.539   7.995   9.064  0.2414 -0.3530  0.0438
63224SOL    HW199986   0.555   7.912   9.109  1.4860  0.7429  1.7611
63224SOL    HW299987   0.626   8.033   9.052 -0.3565  1.1218  0.1818
63225SOL     OW99988   8.944   9.491   8.237  0.3431 -0.3453 -0.1087
63225SOL    HW199989   8.886   9.430   8.282  0.8850 -1.7984 -1.2859
63225SOL    HW299990   8.888   9.536   8.175 -0.3094  1.3226  1.6020
63226SOL     OW99991  11.563  11.916   0.532  0.3457  0.2536  0.5302
63226SOL    HW199992  11.515  11.833   0.529  0.9476 -0.0833 -0.0681
63226SOL    HW299993  11.595  11.923   0.622 -1.8848  1.1133  1.3174
63227SOL     OW99994   1.243   4.651   7.928  0.3820 -0.1994  0.6235
63227SOL    HW199995   1.180   4.579   7.935  0.8741 -0.7225 -0.1295
63227SOL    HW299996   1.226   4.690   7.842  2.6853 -1.9498 -0.7514
63228SOL     OW99997  11.059   8.654   2.411 -0.2340 -0.1392 -0.1708
63228SOL    HW199998  11.150   8.682   2.395 -0.0066  0.9494  2.4886
63228SOL    HW299999  11.011   8.736   2.424 -2.1444 -0.5546 -3.4262
63229SOL     OW    0   4.355   8.450   4.475 -0.1126 -0.1640 -0.2900
63229SOL    HW1    1   4.443   8.485   4.487  0.3597 -1.2235 -0.5595
63229SOL    HW2    2   4.297   8.518   4.510  0.7424  1.0000 -1.0311
63230SOL     OW    3   6.487   6.762   2.460  0.1432  0.1161  0.5732
63230SOL    HW1    4   6.582   6.764   2.472  0.0779  0.2035  1.1198
63230SOL    HW2    5   6.460   6.677   2.496 -0.2039  0.8925  2.2538
63231SOL     OW    6   8.275  10.546   2.207 -0.1297  0.2177 -0.0439
63231SOL    HW1    7   8.317  10.464   2.230  0.0370  0.2746 -0.1393
63231SOL    HW2    8   8.343  10.595   2.160 -0.2273  0.4089  0.0130
63232SOL     OW    9  12.477   2.604   6.144  0.4912  0.2594 -0.1345
63232SOL    HW1   10  12.539   2.675   6.159  0.0250  0.3415  1.7121
63232SOL    HW2   11  12.452   2.575   6.232  0.4676 -2.0340 -0.8223
63233SOL     OW   12  12.910   8.905   8.559 -0.3543  0.3172  0.2818
63233SOL    HW1   13  12.884   8.955   8.637  0.7421  0.3533  0.6426
63233SOL    HW2   14  12.999   8.936   8.540 -0.4839  0.0510 -0.7744
63234SOL     OW   15   1.266   6.350  12.688 -0.0789 -0.7212 -0.2587
63234SOL    HW1   16   1.218   6.433  12.691 -1.2136 -1.3405 -0.6812
63234SOL    HW2   17   1.200   6.286  12.662  0.7886 -1.7567  0.0560
63235SOL     OW   18   8.467   1.392   9.233  0.3094  0.4423 -0.2388
63235SOL    HW1   19   8.556   1.358   9.237 -0.0161 -0.5681 -1.1173
63235SOL    HW2   20   8.472   1.464   9.170  0.3472 -0.1787 -0.9622
63236SOL     OW   21  12.645   9.606   5.790  0.4245 -0.4014  0.0287
63236SOL    HW1   22  12.732   9.629   5.823  0.1480 -1.0971  1.2939
63236SOL    HW2   23  12.658   9.521   5.747  0.4254 -0.3678 -0.0373
63237SOL     OW   24   2.066  12.834   2.884  0.1620  0.3469  0.2681
63237SOL    HW1   25   2.023  12.805   2.965 -0.1947 -0.4906 -0.2065
63237SOL    HW2   26   2.160  12.827   2.902  0.0828  0.0020  0.5507
63238SOL     OW   27   8.501   8.145   3.776  0.1587  0.0952 -0.1080
63238SOL    HW1   28   8.573   8.141   3.838  0.6363 -0.4018 -0.6826
63238SOL    HW2   29   8.520   8.077   3.712 -0.2387  0.7003 -0.8960
63239SOL     OW   30   0.117   4.538   1.822 -0.4000  0.2249 -0.4110
63239SOL    HW1   31   0.097   4.542   1.915  2.3446  2.2715  0.2115
63239SOL    HW2   32   0.088   4.622   1.787  0.6460  0.4169 -0.8725
63240SOL     OW   33   5.843   6.204   4.347 -0.6271 -0.7454 -0.3575
63240SOL    HW1   34   5.801   6.262   4.284 -0.9686  0.6324  1.0802
63240SOL    HW2   35   5.917   6.166   4.299  1.3138  2.9892 -0.6233
63241SOL     OW   36  11.023   3.728  12.658  0.2132 -0.1387 -0.2809
63241SOL    HW1   37  11.061   3.719  12.745  1.8426  1.1297 -0.8040
63241SOL    HW2   38  10.964   3.654  12.650 -0.7378  0.2376  2.2595
63242SOL     OW   39   9.360  12.777  11.174 -0.1894  0.8114 -0.0864
63242SOL    HW1   40   9.359  12.737  11.088 -1.2635  0.3239  0.1328
63242SOL    HW2   41   9.291  12.843  11.171  1.8726  3.0856 -0.6036
63243SOL     OW   42  10.770  12.063  10.896 -0.3092 -0.1806  0.3243
63243SOL    HW1   43  10.791  12.156  10.885  0.0929 -0.1591  1.1621
63243SOL    HW2   44  10.712  12.060  10.972  0.1221 -0.6619  0.6401
63244SOL     OW   45   4.252   9.474   8.269 -0.3570  0.0764  0.1734
63244SOL    HW1   46   4.181   9.413   8.287 -1.0646  1.1111  0.9614
63244SOL    HW2   47   4.328   9.417   8.251 -0.6036 -1.0738  2.3889
63245SOL     OW   48   5.888  12.638   9.506 -0.4421 -0.4005  0.7288
63245SOL    HW1   49   5.793  12.639   9.517 -0.6225  3.3771  0.1009
63245SOL    HW2   50   5.919  12.717   9.550  1.5068  2.0519 -4.1758
63246SOL     OW   51   9.402  10.736  10.218 -0.0177 -0.4151  0.2940
63246SOL    HW1   52   9.372  10.654  10.257  3.1487 -1.1989  1.3975
63246SOL    HW2   53   9.434  10.711  10.131 -0.9613  0.0778 -0.2046
63247SOL     OW   54   4.311   6.276   2.047 -0.2925 -0.6370 -0.2934
63247SOL    HW1   55   4.369   6.321   2.108 -1.1482  2.1238 -1.3565
63247SOL    HW2   56   4.271   6.206   2.099  2.6522 -1.5876  0.8984
63248SOL     OW   57   0.176   3.495  12.670 -0.1479  0.2514  0.1240
63248SOL    HW1   58   0.256   3.544  12.690 -1.2258  1.4358  1.8709
63248SOL    HW2   59   0.189   3.461  12.582  1.2446  2.5249 -0.6112
63249SOL     OW   60   6.261   9.096   9.724 -0.4763  0.2030  0.2335
63249SOL    HW1   61   6.292   9.019   9.675  0.7133  0.6900  0.1871
63249SOL    HW2   62   6.192   9.062   9.780 -0.3875 -0.7897 -0.2352
63250SOL     OW   63   6.851   1.392   0.404 -0.2632  0.4284 -0.1553
63250SOL    HW1   64   6.893   1.387   0.319 -1.7003 -0.0925 -0.8655
63250SOL    HW2   65   6.782   1.458   0.393 -0.7368  0.0525  0.4603
63251SOL     OW   66   7.719   6.267   1.756 -0.0067 -0.0618 -0.0028
63251SOL    HW1   67   7.723   6.354   1.715  1.2970 -0.9183 -1.8178
63251SOL    HW2   68   7.796   6.263   1.812 -0.8876  0.4686  1.3190
63252SOL     OW   69   9.251   4.699   1.949  0.3019  0.2041  0.7155
63252SOL    HW1   70   9.295   4.641   2.011 -2.5625 -1.5859  1.2553
63252SOL    HW2   71   9.260   4.655   1.864  3.2675  2.1147 -0.1424
63253SOL     OW   72   3.392   9.311   0.199  0.6142  0.0991  0.1402
63253SOL    HW1   73   3.344   9.228   0.194 -0.1541  0.5977 -1.2355
63253SOL    HW2   74   3.483   9.285   0.208  0.3272 -0.8963  0.3278
63254SOL     OW   75   8.627   4.720   2.964  0.1792  0.0485  0.2357
63254SOL    HW1   76   8.542   4.750   2.998  0.2154  1.9279 -1.1536
63254SOL    HW2   77   8.682   4.712   3.041 -1.3025 -1.5052  1.2061
63255SOL     OW   78   9.806  11.108   4.497  0.0179  0.1004 -0.7482
63255SOL    HW1   79   9.751  11.062   4.433  1.2741 -0.5671 -1.3838
63255SOL    HW2   80   9.866  11.161   4.444 -1.1371  2.2559 -0.0472
63256SOL     OW   81  12.663   1.257   8.650  0.1397  0.6345  0.2729
63256SOL    HW1   82  12.716   1.319   8.699 -3.2041  4.0757  0.0561
63256SOL    HW2   83  12.640   1.303   8.569 -1.4919 -1.4034 -0.5380
63257SOL     OW   84   9.215   8.131   1.260 -0.1749  0.0538 -0.4785
63257SOL    HW1   85   9.297   8.081   1.258 -0.7034 -0.8699  0.0898
63257SOL    HW2   86   9.182   8.119   1.349  0.3010  2.4989  0.0861
63258SOL     OW   87   9.773   3.103   3.853  0.0783  0.7123  0.3444
63258SOL    HW1   88   9.808   3.187   3.821  0.6893 -0.0537 -1.0448
63258SOL    HW2   89   9.838   3.038   3.826 -1.2220 -0.4381 -0.0907
63259SOL     OW   90   5.297   7.450  12.977 -0.2628 -0.1675 -0.2221
63259SOL    HW1   91   5.297   7.360  12.944 -1.1853  0.0335 -0.7938
63259SOL    HW2   92   5.211   7.460  13.020 -0.0731  0.3655  0.0460
63260SOL     OW   93   1.626   0.475   3.242 -0.1373  0.0511 -0.1410
63260SOL    HW1   94   1.673   0.531   3.304 -0.2894 -0.4490  0.4322
63260SOL    HW2   95   1.583   0.537   3.182 -0.3118  0.5522  0.4911
63261SOL     OW   96  12.039   8.007   8.102  0.5953 -0.3221  0.2435
63261SOL    HW1   97  12.050   7.932   8.043 -0.0535 -0.7355  0.6352
63261SOL    HW2   98  12.127   8.044   8.111  0.3609  1.4960 -3.2113
63262SOL     OW   99  11.118   8.443   8.904  0.4211 -0.1096 -0.4821
63262SOL    HW1  100  11.084   8.480   8.823 -1.6390  0.8911  0.7556
63262SOL    HW2  101  11.109   8.348   8.893  0.2154  0.0146 -1.4406
63263SOL     OW  102   2.160   3.361   0.290  0.4173  0.8213  0.3891
63263SOL    HW1  103   2.169   3.267   0.277  2.3752  0.9983  0.1173
63263SOL    HW2  104   2.205   3.400   0.215 -0.3024  1.9751  0.5302
63264SOL     OW  105   4.097   1.464   3.814  0.4565 -0.1829 -0.6242
63264SOL    HW1  106   4.034   1.392   3.821 -2.0110  1.9345  0.5955
63264SOL    HW2  107   4.164   1.443   3.879 -0.2921 -1.2912 -0.1805
63265SOL     OW  108   4.528  11.305  12.277 -0.0825 -0.1076 -0.1685
63265SOL    HW1  109   4.447  11.306  12.329  0.7852  2.1856  1.2935
63265SOL    HW2  110   4.588  11.251  12.327 -0.3414 -0.9108 -0.7014
63266SOL     OW  111   9.180  10.368   5.511 -0.5005 -0.4818 -0.0919
63266SOL    HW1  112   9.208  10.295   5.566  0.5617  0.9407  1.3814
63266SOL    HW2  113   9.086  10.356   5.499 -0.6262 -1.2477  1.4584
63267SOL     OW  114   4.766   8.905   9.657 -0.2733  0.0031  0.4680
63267SOL    HW1  115   4.695   8.852   9.692  0.1684 -0.6858  0.3377
63267SOL    HW2  116   4.751   8.992   9.693 -0.3402 -0.4747  1.6514
63268SOL     OW  117  10.479   1.237   1.024 -0.0338 -0.2571  0.2425
63268SOL    HW1  118  10.518   1.281   0.948  0.1548  1.2042  1.1377
63268SOL    HW2  119  10.387   1.261   1.021 -0.4520 -1.8237 -0.5860
63269SOL     OW  120  12.278   5.517   0.342 -0.1859  0.0055  0.0861
63269SOL    HW1  121  12.223   5.440   0.359  1.0750 -0.7734  0.8005
63269SOL    HW2  122  12.235   5.562   0.269 -1.3351 -0.9843  0.1226
63270SOL     OW  123   3.738  11.189   3.596  0.7782 -0.0689 -0.4316
63270SOL    HW1  124   3.759  11.229   3.512 -0.2095  0.1890 -0.5761
63270SOL    HW2  125   3.786  11.241   3.660  0.5115  0.5612 -0.7316
63271SOL     OW  126  10.168   3.803   6.387  0.4134  0.2931  0.2989
63271SOL    HW1  127  10.150   3.799   6.481  2.4159  0.9752  0.7563
63271SOL    HW2  128  10.227   3.877   6.377  1.3375 -0.5992 -1.2853
63272SOL     OW  129  11.123   0.814   1.421 -0.3538  0.1918  0.0730
63272SOL    HW1  130  11.145   0.721   1.410 -1.7540 -0.2650  0.8608
63272SOL    HW2  131  11.109   0.846   1.332 -0.3688 -0.4908 -0.1772
63273SOL     OW  132  11.397   1.740  10.957  0.6251 -0.2262  0.1588
63273SOL    HW1  133  11.305   1.716  10.971  0.1252  0.1886 -2.1371
63273SOL    HW2  134  11.441   1.657  10.942  0.3376 -0.3077 -0.2453
63274SOL     OW  135   1.327   2.293  10.645 -0.3816 -0.4830 -0.7628
63274SOL    HW1  136   1.335   2.282  10.740  1.8870  0.0226 -0.8320
63274SOL    HW2  137   1.367   2.214  10.608  0.6051  0.2247 -1.2622
63275SOL     OW  138   5.711  11.936   7.620  0.2490 -0.3376 -0.1157
63275SOL    HW1  139   5.683  11.929   7.711  2.2228  0.6072  0.6140
63275SOL    HW2  140   5.664  11.865   7.575 -1.1344 -0.5156  1.5049
63276SOL     OW  141   3.821   4.902   8.791  0.0103  0.5625 -0.2032
63276SOL    HW1  142   3.731   4.931   8.802 -0.0136  1.4858 -2.3871
63276SOL    HW2  143   3.863   4.971   8.739  2.2750  0.6462  1.5800
63277SOL     OW  144   4.345   5.236   3.407 -0.8919  0.1014  1.1147
63277SOL    HW1  145   4.357   5.186   3.488  0.2566  0.9099  1.4828
63277SOL    HW2  146   4.393   5.186   3.341 -0.2170  0.3949  1.3641
63278SOL     OW  147  11.506   3.219  10.426  0.4083 -0.5925  0.0750
63278SOL    HW1  148  11.588   3.171  10.433  0.5126 -0.2253  1.9268
63278SOL    HW2  149  11.443   3.155  10.393  0.9441 -1.5255  0.8143
63279SOL     OW  150   3.053   2.981   0.195 -0.3882  0.2418 -0.0570
63279SOL    HW1  151   2.971   2.972   0.148 -0.4102  0.2725 -0.0244
63279SOL    HW2  152   3.120   2.950   0.134 -0.4940 -0.4484  0.1685
63280SOL     OW  153   2.295  12.738   8.910 -0.0137  0.3588 -0.9681
63280SOL    HW1  154   2.258  12.748   8.823 -1.3496 -0.4830 -0.5249
63280SOL    HW2  155   2.296  12.644   8.925  0.6859  0.4671 -0.2703
63281SOL     OW  156   2.183   5.714  11.896  0.2018 -0.1688 -0.3000
63281SOL    HW1  157   2.271   5.747  11.917 -0.6988  1.2876  1.4079
63281SOL    HW2  158   2.193   5.619  11.895  2.0228 -0.0217 -1.3113
63282SOL     OW  159   3.564   6.187  12.600  0.0230 -0.4597  0.4939
63282SOL    HW1  160   3.487   6.177  12.657  0.1477 -1.1684  0.5452
63282SOL    HW2  161   3.611   6.105  12.609  0.4768 -0.2578 -0.0052
63283SOL     OW  162  10.898   2.381   5.869  0.1434 -0.4996 -0.0339
63283SOL    HW1  163  10.884   2.469   5.834  2.9279 -0.0145 -0.1250
63283SOL    HW2  164  10.985   2.356   5.839  0.1934 -2.5430  1.5625
63284SOL     OW  165  12.673   9.192  11.291  0.3760 -0.3708 -0.1773
63284SOL    HW1  166  12.687   9.200  11.385  1.9857 -1.0190 -0.3303
63284SOL    HW2  167  12.632   9.275  11.265 -1.8125 -0.9043  1.3464
63285SOL     OW  168   4.480   0.809   5.727  0.5777 -0.1077  0.3421
63285SOL    HW1  169   4.475   0.904   5.740 -0.8635 -0.1212 -0.0276
63285SOL    HW2  170   4.565   0.785   5.765  0.7312  1.2378  0.9241
63286SOL     OW  171   1.264  10.375   2.808 -0.0362  0.1156  0.2918
63286SOL    HW1  172   1.342  10.349   2.757 -1.2812 -1.3509 -0.9738
63286SOL    HW2  173   1.299  10.403   2.892  1.9551  0.6602 -0.6471
63287SOL     OW  174   4.247   8.362   2.624 -0.0033  0.0760  0.0143
63287SOL    HW1  175   4.154   8.369   2.647 -0.1878  0.0439 -0.6980
63287SOL    HW2  176   4.278   8.286   2.672 -0.5201 -0.3301 -0.2838
63288SOL     OW  177   9.896   9.718   0.135 -0.0430 -0.2178 -0.6063
63288SOL    HW1  178   9.936   9.631   0.144 -0.9241 -0.6664 -0.8739
63288SOL    HW2  179   9.833   9.707   0.064  0.9984  1.0926 -1.7845
63289SOL     OW  180   3.727   8.640   1.656 -0.7017 -0.3325 -0.5365
63289SOL    HW1  181   3.802   8.581   1.654 -1.0588 -0.7804 -1.1533
63289SOL    HW2  182   3.728   8.684   1.571 -1.5893 -0.9330 -0.8718
63290SOL     OW  183  10.754   7.537   4.227 -0.2226 -0.4639  0.3366
63290SOL    HW1  184  10.845   7.526   4.254 -0.7170 -1.3064  1.8016
63290SOL    HW2  185  10.749   7.626   4.194  1.0680 -0.3077  0.5029
63291SOL     OW  186   4.050   1.775   5.219  0.4370 -0.1207 -0.0065
63291SOL    HW1  187   3.966   1.816   5.195  1.0635 -0.4819 -3.2597
63291SOL    HW2  188   4.029   1.683   5.233 -0.0760  0.2368  1.7599
63292SOL     OW  189   6.057   8.843   2.780 -0.2420 -0.2555 -0.6180
63292SOL    HW1  190   5.975   8.793   2.774 -2.0874  2.5007 -0.3127
63292SOL    HW2  191   6.125   8.779   2.761 -2.1298 -3.5151  2.3953
63293SOL     OW  192   6.199   3.560   2.880  0.4962 -0.3617 -0.1997
63293SOL    HW1  193   6.120   3.521   2.918 -0.1739  0.4391 -0.7433
63293SOL    HW2  194   6.269   3.537   2.942 -0.1058 -1.3228  0.1408
63294SOL     OW  195   2.910   8.730   9.885  0.3878  0.3245  0.2436
63294SOL    HW1  196   3.002   8.724   9.912  0.5933 -0.6414 -0.6401
63294SOL    HW2  197   2.871   8.647   9.913 -0.2676  0.7823  0.7347
63295SOL     OW  198   3.537  11.676  11.458 -0.1686  0.0032  0.4174
63295SOL    HW1  199   3.603  11.717  11.514 -0.7544  0.2117  0.9735
63295SOL    HW2  200   3.515  11.744  11.394 -0.1479  0.0873  0.4975
63296SOL     OW  201   5.190   5.163   7.101  0.1253  0.3120  0.3194
63296SOL    HW1  202   5.124   5.151   7.169 -0.3617 -0.7142 -0.3251
63296SOL    HW2  203   5.273   5.164   7.149 -0.1317 -1.3968  0.8592
63297SOL     OW  204  10.470   6.434  10.962  0.4298  0.5689  0.0971
63297SOL    HW1  205  10.495   6.379  11.036 -0.7082 -0.7257 -0.4430
63297SOL    HW2  206  10.440   6.515  11.002 -1.8802 -0.7516  1.2230
63298SOL     OW  207   4.422   2.320  11.268 -0.2151  0.0490 -0.1768
63298SOL    HW1  208   4.510   2.321  11.230 -0.6920 -0.9773 -1.3740
63298SOL    HW2  209   4.435   2.340  11.361  1.4008 -1.2219 -0.0967
63299SOL     OW  210   3.550   3.510   4.618  0.8468  0.5151 -0.3380
63299SOL    HW1  211   3.480   3.447   4.633  1.3458  0.1573  0.5623
63299SOL    HW2  212   3.511   3.595   4.639  0.4479  0.4003 -0.6206
63300SOL     OW  213   9.607   0.027   7.934 -0.0868 -0.1659  0.2573
63300SOL    HW1  214   9.639   0.048   7.846  2.4942  0.0421  1.1594
63300SOL    HW2  215   9.563   0.107   7.962 -0.9643 -0.2410 -0.8417
63301SOL     OW  216   8.753   2.720   5.138 -0.1665  0.1472 -0.2614
63301SOL    HW1  217   8.763   2.645   5.196 -0.3872 -0.6151 -1.1960
63301SOL    HW2  218   8.811   2.786   5.174 -2.4151  0.7770  2.5686
63302SOL     OW  219   1.113   2.773   2.936 -0.0926 -0.3928 -0.3836
63302SOL    HW1  220   1.105   2.728   2.852 -1.4140 -0.2048 -0.3802
63302SOL    HW2  221   1.114   2.702   3.001 -3.4389 -0.5097 -0.2811
63303SOL     OW  222  10.288  10.627   7.251 -0.6316 -0.3701 -0.1733
63303SOL    HW1  223  10.327  10.662   7.171 -2.1794  0.1564 -0.7223
63303SOL    HW2  224  10.320  10.536   7.256  1.2111  0.2281 -0.1899
63304SOL     OW  225   6.705   4.896   6.018 -0.1047 -0.5066 -0.0152
63304SOL    HW1  226   6.730   4.814   5.974 -0.5708 -0.1442 -0.9803
63304SOL    HW2  227   6.644   4.868   6.087 -1.9790 -0.8294 -1.6954
63305SOL     OW  228   0.741  12.859  11.679 -0.0653 -0.3851  0.4653
63305SOL    HW1  229   0.664  12.883  11.730 -0.9787  0.5276 -1.2344
63305SOL    HW2  230   0.800  12.819  11.742 -0.9331  1.0582  2.3061
63306SOL     OW  231   6.247   8.645   5.158  0.1902  0.2362 -0.0304
63306SOL    HW1  232   6.187   8.574   5.183 -1.1273  0.6536 -1.8792
63306SOL    HW2  233   6.192   8.711   5.118  1.6748  1.4411 -0.1801
63307SOL     OW  234   7.805  11.052   1.168 -0.1400  0.2490  0.1344
63307SOL    HW1  235   7.784  11.115   1.099 -0.2643 -0.4550 -0.4780
63307SOL    HW2  236   7.721  11.031   1.208 -0.1755 -0.0130 -0.0808
63308SOL     OW  237   1.131   8.468   7.460 -0.5156  0.5196 -0.0221
63308SOL    HW1  238   1.115   8.451   7.553  0.4915  1.2366  0.2949
63308SOL    HW2  239   1.109   8.385   7.417 -2.6002  0.6738  0.6367
63309SOL     OW  240   3.392   3.044  12.865  0.6459 -0.3063 -0.2069
63309SOL    HW1  241   3.322   3.104  12.892  1.2115  0.5494 -0.5963
63309SOL    HW2  242   3.420   3.076  12.780  3.9233  1.6350  1.3896
63310SOL     OW  243   2.471   3.073   6.730  0.1669 -0.1273  0.2402
63310SOL    HW1  244   2.495   3.080   6.638  1.4858 -1.9199  0.3867
63310SOL    HW2  245   2.551   3.042   6.773 -0.6927 -0.2492  1.8329
63311SOL     OW  246   1.163   4.891   7.392 -0.3731  0.0339 -0.4660
63311SOL    HW1  247   1.229   4.913   7.458 -1.6977  0.5912  0.7511
63311SOL    HW2  248   1.141   4.800   7.409  0.0228 -0.1322 -0.8283
63312SOL     OW  249  11.429   1.293   1.396 -0.2703 -0.0778 -0.4555
63312SOL    HW1  250  11.401   1.205   1.423  1.4778 -0.7014 -0.5584
63312SOL    HW2  251  11.435   1.343   1.478 -1.8507  0.1516 -0.4547
63313SOL     OW  252   5.334   0.005  12.523  0.2581  0.6194 -0.3178
63313SOL    HW1  253   5.246   0.023  12.556 -0.6197 -1.7681 -1.1753
63313SOL    HW2  254   5.320  -0.030  12.435  2.0323 -0.3062 -0.2673
63314SOL     OW  255  10.433  12.210  12.189  0.0848 -0.8645  0.7466
63314SOL    HW1  256  10.363  12.169  12.239 -0.0679  0.5596  1.7575
63314SOL    HW2  257  10.493  12.244  12.255  0.4030  0.1688 -0.0448
63315SOL     OW  258  11.176   2.264   6.422  0.6725 -0.3807 -0.0122
63315SOL    HW1  259  11.190   2.181   6.468 -0.6651 -0.9353 -0.5719
63315SOL    HW2  260  11.176   2.241   6.329 -1.0609 -0.0064 -0.1436
63316SOL     OW  261   0.449   6.391  11.768  0.3145  0.4820 -0.2568
63316SOL    HW1  262   0.480   6.301  11.756  0.4240  0.4784  0.0436
63316SOL    HW2  263   0.468   6.411  11.859 -0.3458  0.5670 -0.1326
63317SOL     OW  264   3.893   7.978   3.431 -0.2733 -0.0743  0.3576
63317SOL    HW1  265   3.969   7.922   3.417 -0.6892 -0.2550 -1.3745
63317SOL    HW2  266   3.830   7.921   3.476 -0.7345 -1.0941 -1.4793
63318SOL     OW  267   1.988   5.392   2.441  0.1714 -0.0638  0.5681
63318SOL    HW1  268   2.033   5.413   2.358 -0.6600  0.5487  0.2659
63318SOL    HW2  269   1.914   5.337   2.415  0.1345 -0.1968  0.9501
63319SOL     OW  270  11.090   7.264  12.699 -0.6286  0.4857 -0.3806
63319SOL    HW1  271  11.149   7.340  12.692 -0.0163 -0.0706 -1.3634
63319SOL    HW2  272  11.140   7.199  12.748 -0.6582  0.2302 -0.6901
63320SOL     OW  273   3.455  10.825   1.783  0.0500  0.3269  0.5203
63320SOL    HW1  274   3.374  10.813   1.832  0.6716  0.4200  1.6191
63320SOL    HW2  275   3.469  10.920   1.784  0.1741  0.3106  0.3460
63321SOL     OW  276   0.884  12.699  12.448 -0.0973  0.3059  0.1713
63321SOL    HW1  277   0.828  12.721  12.374  1.2203 -2.3872 -1.8273
63321SOL    HW2  278   0.968  12.741  12.429  0.3632 -0.7027 -0.1303
63322SOL     OW  279  10.663  11.152  10.182 -0.0502 -0.0850 -0.3055
63322SOL    HW1  280  10.640  11.233  10.227 -2.2176 -0.7133 -0.1605
63322SOL    HW2  281  10.715  11.103  10.245  0.6520  0.8774 -0.1256
63323SOL     OW  282  10.305   5.597   9.976  0.2251 -0.4696  0.3810
63323SOL    HW1  283  10.284   5.687  10.003  0.1003 -0.3412 -0.1408
63323SOL    HW2  284  10.221   5.552   9.974  0.2511 -0.5161  0.3474
63324SOL     OW  285   6.329   6.819   2.799 -0.3418 -0.2475  0.1320
63324SOL    HW1  286   6.382   6.872   2.858  0.3793 -1.4705  0.6177
63324SOL    HW2  287   6.246   6.867   2.792  1.4425  2.9466 -2.4294
63325SOL     OW  288   0.042   1.230  10.461 -0.6421 -0.2868 -0.1419
63325SOL    HW1  289   0.117   1.245  10.404  0.0202 -0.5521  0.6441
63325SOL    HW2  290   0.016   1.317  10.491  1.0835 -0.3361  1.7368
63326SOL     OW  291  10.079  10.188   9.144 -0.6625  0.2623 -0.0833
63326SOL    HW1  292  10.149  10.209   9.082  0.5474  2.0497  1.7440
63326SOL    HW2  293  10.075  10.093   9.145  1.6222  0.1035 -0.4314
63327SOL     OW  294   0.596   9.132  10.245  0.0708  0.3081 -0.0312
63327SOL    HW1  295   0.512   9.163  10.280  1.0039  2.6242  0.3646
63327SOL    HW2  296   0.659   9.152  10.313  1.0741 -0.7575 -0.6132
63328SOL     OW  297  10.086  11.424   0.891  0.1188 -0.1067  1.0193
63328SOL    HW1  298  10.141  11.463   0.823 -0.3519  0.9849  1.2293
63328SOL    HW2  299  10.124  11.455   0.973 -0.9317  0.8781  1.1621
63329SOL     OW  300   1.789   1.519  10.195 -0.1915 -0.5225 -0.0056
63329SOL    HW1  301   1.847   1.577  10.146  0.6227 -1.1307  0.2107
63329SOL    HW2  302   1.756   1.457  10.129  1.3197 -1.6727  0.2504
63330SOL     OW  303   1.850  10.646   4.486 -0.0168 -0.0428 -0.4069
63330SOL    HW1  304   1.766  10.650   4.532  1.0677 -1.1766  1.7958
63330SOL    HW2  305   1.866  10.553   4.472  0.7331  0.1766 -1.1141
63331SOL     OW  306  12.574  12.356   3.497  0.1079  0.2722  0.5704
63331SOL    HW1  307  12.501  12.418   3.497  1.3167  1.7874  0.2702
63331SOL    HW2  308  12.567  12.309   3.415 -1.4514 -0.7968  1.2758
63332SOL     OW  309   2.948  11.975  10.058 -0.1047 -0.0455  0.1412
63332SOL    HW1  310   2.960  11.936  10.145  0.2352  1.0766  0.6159
63332SOL    HW2  311   3.032  11.959  10.014  1.7978  3.8162  1.8645
63333SOL     OW  312   5.346   8.305   9.786  0.1094  0.1301  0.4565
63333SOL    HW1  313   5.328   8.265   9.871 -0.4351 -0.1107  0.2341
63333SOL    HW2  314   5.297   8.386   9.786  2.5259  1.7224  1.5718
63334SOL     OW  315   6.789   0.145   4.833  0.0979  0.3458 -0.0037
63334SOL    HW1  316   6.866   0.195   4.860  1.4066 -0.3966 -2.1325
63334SOL    HW2  317   6.719   0.176   4.890  1.8820  1.2935  1.7773
63335SOL     OW  318   8.539  12.177   2.040 -0.0919 -0.0263 -0.1307
63335SOL    HW1  319   8.613  12.131   2.080 -0.1401 -0.1160 -0.1445
63335SOL    HW2  320   8.468  12.113   2.042 -0.4071  0.3316  0.6501
63336SOL     OW  321  12.225   1.629   0.865 -0.5381 -0.6530  0.0650
63336SOL    HW1  322  12.227   1.544   0.909  0.3022 -1.2313 -1.0477
63336SOL    HW2  323  12.152   1.675   0.905  1.3521 -0.3446  3.5289
63337SOL     OW  324   3.603   1.813  12.316  0.5705 -0.1842  0.4141
63337SOL    HW1  325   3.564   1.880  12.260  0.1508  0.2976  1.2471
63337SOL    HW2  326   3.545   1.738  12.309 -0.0085  0.2073  0.9279
63338SOL     OW  327   8.634   2.859   4.927 -0.2770  0.2391  0.0716
63338SOL    HW1  328   8.693   2.925   4.890  1.1162 -0.6202  0.6735
63338SOL    HW2  329   8.686   2.816   4.995 -0.5645 -2.5724 -1.3641
63339SOL     OW  330   1.737   8.494  12.013 -0.3913 -0.5235  0.2541
63339SOL    HW1  331   1.775   8.582  12.008 -0.4149 -0.5737 -1.3118
63339SOL    HW2  332   1.790   8.442  11.953 -2.0782 -0.8998 -0.9924
63340SOL     OW  333   1.657   2.545   4.522 -0.2485  0.1870  0.3079
63340SOL    HW1  334   1.703   2.491   4.585 -3.2305 -1.5837  1.1665
63340SOL    HW2  335   1.661   2.496   4.440 -0.8716 -0.1202  0.4617
63341SOL     OW  336   1.948   6.372   5.821 -0.2907 -0.8218 -0.2317
63341SOL    HW1  337   1.983   6.351   5.734  0.0177 -2.1914  0.1818
63341SOL    HW2  338   1.998   6.449   5.849  1.4247 -1.8508 -0.2693
63342SOL     OW  339   7.281   4.245   7.975 -0.2263  0.2514  0.0134
63342SOL    HW1  340   7.374   4.235   7.956 -0.0964  1.3505  0.0196
63342SOL    HW2  341   7.238   4.177   7.922  0.7320 -1.8832  1.7832
63343SOL     OW  342  11.191   8.934   2.238 -0.6127 -0.1176  0.2376
63343SOL    HW1  343  11.136   8.962   2.165  2.1864 -0.9082 -2.4113
63343SOL    HW2  344  11.241   9.013   2.262 -2.0314  0.3385  1.9518
63344SOL     OW  345  11.081   1.573  11.213 -0.0753 -0.3478 -0.1186
63344SOL    HW1  346  11.139   1.535  11.279 -0.1018 -1.8943 -0.9613
63344SOL    HW2  347  11.119   1.660  11.197  1.0338 -0.6802  0.5551
63345SOL     OW  348   7.959   1.089   4.402 -0.0917 -0.5327 -0.1163
63345SOL    HW1  349   7.971   1.162   4.342  0.4843 -1.2216 -0.8701
63345SOL    HW2  350   7.904   1.123   4.472 -2.9633 -0.4031 -2.2827
63346SOL     OW  351   7.176  11.270   9.092  0.5592  0.5243 -0.1278
63346SOL    HW1  352   7.262  11.231   9.110  0.6941  1.1125  0.5043
63346SOL    HW2  353   7.194  11.341   9.031  0.5302  0.6788  0.0426
63347SOL     OW  354   9.107   1.974   8.594  0.0017  0.2924  0.0784
63347SOL    HW1  355   9.057   1.903   8.635  1.5304 -0.1734  1.2551
63347SOL    HW2  356   9.187   1.931   8.562  0.4954  1.3089 -0.0750
63348SOL     OW  357   8.169   6.343   6.538  0.1561 -0.3950 -0.0368
63348SOL    HW1  358   8.214   6.381   6.463 -2.2634  0.0801 -1.3455
63348SOL    HW2  359   8.204   6.391   6.614  1.1690  0.5473 -1.0662
63349SOL     OW  360  11.687   3.796   5.132  0.8225  0.1486  0.1633
63349SOL    HW1  361  11.650   3.883   5.145 -0.5549 -0.1637 -1.3935
63349SOL    HW2  362  11.751   3.807   5.062  0.0279 -0.2387 -0.6305
63350SOL     OW  363  12.842   3.739   7.515  0.1934  0.2734  0.2755
63350SOL    HW1  364  12.866   3.831   7.505  1.3308  0.0345  0.6580
63350SOL    HW2  365  12.760   3.741   7.564 -0.3610  1.1087 -0.6510
63351SOL     OW  366   5.775  10.822   9.249  0.2226 -0.4923  0.2776
63351SOL    HW1  367   5.700  10.772   9.282  0.2547 -0.6750  0.0738
63351SOL    HW2  368   5.845  10.806   9.313 -0.4171  1.0834  1.4402
63352SOL     OW  369  12.597   7.861  12.093  0.3116 -0.2821 -0.4383
63352SOL    HW1  370  12.667   7.873  12.029  0.9777 -0.5527  0.2215
63352SOL    HW2  371  12.602   7.768  12.116  0.1426 -0.1667  0.0688
63353SOL     OW  372   5.882   5.011   5.664  0.6206 -0.0888  0.2381
63353SOL    HW1  373   5.795   5.039   5.634  0.8193  0.2503 -0.0326
63353SOL    HW2  374   5.942   5.067   5.616  1.0286 -0.9591 -0.2828
63354SOL     OW  375   0.264   3.749  10.595 -0.3950 -0.0369  0.5651
63354SOL    HW1  376   0.245   3.789  10.510  0.4754 -0.1560  0.3138
63354SOL    HW2  377   0.186   3.697  10.615 -1.0775  0.8775  0.3731
63355SOL     OW  378   7.680   0.045  12.519 -0.6144 -0.0367  0.0418
63355SOL    HW1  379   7.664   0.041  12.614 -0.0946  0.1211  0.1435
63355SOL    HW2  380   7.607   0.096  12.484 -0.0947  1.1046  0.5525
63356SOL     OW  381   3.947   6.579   4.423 -0.7387 -0.2410  0.2113
63356SOL    HW1  382   4.030   6.555   4.464 -1.5008 -2.1383  0.7380
63356SOL    HW2  383   3.895   6.617   4.494 -0.4624  0.6548 -0.0489
63357SOL     OW  384   7.904  11.736   4.026 -0.5055  0.4076  0.0403
63357SOL    HW1  385   7.945  11.810   4.071  0.4779 -0.0750 -0.0354
63357SOL    HW2  386   7.833  11.775   3.976 -0.3446  1.2270  0.4250
63358SOL     OW  387   1.989   9.295   4.691  0.0782 -0.5064 -0.9638
63358SOL    HW1  388   2.018   9.381   4.722 -0.1767 -1.5555  2.6290
63358SOL    HW2  389   2.070   9.246   4.677  0.2008 -0.1186 -1.6232
63359SOL     OW  390   1.025   6.657   4.473 -0.3885 -0.0689 -0.7565
63359SOL    HW1  391   0.953   6.654   4.535  1.5329 -0.9829  1.5699
63359SOL    HW2  392   1.068   6.741   4.489 -0.0129 -0.2108 -0.9900
63360SOL     OW  393   1.363   7.334   8.577  0.2184  0.5898 -0.4827
63360SOL    HW1  394   1.328   7.245   8.581  0.5706  0.4709  0.0143
63360SOL    HW2  395   1.370   7.353   8.483 -0.4021  0.3132 -0.5863
63361SOL     OW  396   5.591  12.756  10.930  0.1630 -0.3458 -0.1970
63361SOL    HW1  397   5.603  12.661  10.926  0.1843 -0.3344 -0.4287
63361SOL    HW2  398   5.618  12.780  11.019 -1.1024 -0.7235  0.3124
63362SOL     OW  399  10.602   9.865  12.953 -0.4888  0.1463 -0.1713
63362SOL    HW1  400  10.577   9.897  13.039  0.9054 -0.7458  0.5988
63362SOL    HW2  401  10.676   9.919  12.928 -0.0587 -0.4550 -0.2179
63363SOL     OW  402   5.314   6.909  10.769 -0.1795  0.0121  0.2073
63363SOL    HW1  403   5.235   6.859  10.745  0.0001  0.6287 -1.8123
63363SOL    HW2  404   5.281   6.981  10.822 -0.9736  0.1610 -0.4628
63364SOL     OW  405   9.760  11.134   6.809  0.4758 -0.4754 -0.7097
63364SOL    HW1  406   9.797  11.210   6.766 -1.1224  0.1020 -1.1542
63364SOL    HW2  407   9.820  11.062   6.788  2.0466  0.6568 -0.1994
63365SOL     OW  408  11.705  11.763  12.870 -0.0591  0.6620 -0.5235
63365SOL    HW1  409  11.617  11.800  12.865 -1.1047 -1.5943 -0.2704
63365SOL    HW2  410  11.704  11.710  12.950  1.1549 -0.2774 -1.0940
63366SOL     OW  411   9.449  10.626   6.695  0.3016 -0.5629  0.1739
63366SOL    HW1  412   9.492  10.541   6.680 -0.9817 -1.7771  2.6496
63366SOL    HW2  413   9.466  10.645   6.788 -0.4605  1.3122 -0.0280
63367SOL     OW  414   0.891   5.668   2.537 -0.5858  0.1208  0.4889
63367SOL    HW1  415   0.887   5.715   2.620 -0.4587  1.2234 -0.1097
63367SOL    HW2  416   0.974   5.696   2.497 -0.0767 -1.3017  0.5046
63368SOL     OW  417   6.198   9.644   8.954  0.3014 -0.0413 -0.3660
63368SOL    HW1  418   6.244   9.694   9.022  0.2776 -0.9132  0.3040
63368SOL    HW2  419   6.266   9.590   8.914  0.3771  0.7010 -1.2710
63369SOL     OW  420   0.485   8.955   3.729 -0.5492  0.2875  0.3535
63369SOL    HW1  421   0.409   8.937   3.675 -1.8302 -0.3920  2.2670
63369SOL    HW2  422   0.474   9.045   3.759 -1.8735 -0.5089  2.4494
63370SOL     OW  423   6.381   0.831   9.943 -0.0306  0.0592 -0.4917
63370SOL    HW1  424   6.290   0.818   9.915 -0.1241 -0.0745 -0.1195
63370SOL    HW2  425   6.377   0.834  10.038  0.5477 -1.3876 -0.3999
63371SOL     OW  426   0.024   0.219   1.518  0.1329 -0.0134 -0.2810
63371SOL    HW1  427  -0.062   0.191   1.550  0.3335 -1.0839 -0.6204
63371SOL    HW2  428   0.086   0.160   1.561  0.6013  0.0874 -0.8060
63372SOL     OW  429   7.671   0.575   7.837 -0.5563 -0.1560 -0.0786
63372SOL    HW1  430   7.649   0.560   7.745 -1.7707  2.3430 -0.2844
63372SOL    HW2  431   7.763   0.602   7.835 -0.0801 -1.7252 -0.3289
63373SOL     OW  432  10.027   2.300   1.698  0.2198 -0.6150 -0.0469
63373SOL    HW1  433  10.094   2.251   1.745 -0.4139  0.0279  1.5942
63373SOL    HW2  434   9.952   2.241   1.693  0.4014 -0.8106 -0.6081
63374SOL     OW  435   0.112  11.337  11.840  0.2443 -0.3106  0.5109
63374SOL    HW1  436   0.199  11.330  11.879  0.0728  2.4763  1.6367
63374SOL    HW2  437   0.127  11.372  11.752  0.2636  0.2003  0.7172
63375SOL     OW  438   4.739   9.028   8.164  0.6740 -0.6971  0.2872
63375SOL    HW1  439   4.690   8.971   8.105 -0.5405  0.8771 -0.3022
63375SOL    HW2  440   4.800   9.075   8.108 -0.0628  0.3629  0.3521
63376SOL     OW  441   4.274   7.453   0.224 -0.3934  0.1692 -0.4631
63376SOL    HW1  442   4.361   7.486   0.202 -0.3111 -0.3901 -0.9924
63376SOL    HW2  443   4.289   7.365   0.256 -0.5005  0.9693  1.9980
63377SOL     OW  444   8.499   7.247   1.180  0.1482 -0.3618 -0.3006
63377SOL    HW1  445   8.406   7.230   1.166 -0.0499 -0.4122  0.9083
63377SOL    HW2  446   8.534   7.164   1.210  0.5489 -0.2966 -0.5885
63378SOL     OW  447   3.354   3.106   1.719  0.1043 -0.4674 -0.3211
63378SOL    HW1  448   3.318   3.032   1.768  0.3550  0.9286  2.1545
63378SOL    HW2  449   3.426   3.069   1.668  0.2910 -1.9298  0.9282
63379SOL     OW  450  11.260   9.159  11.039 -0.8341 -0.6037  0.6076
63379SOL    HW1  451  11.165   9.156  11.044 -0.8060 -1.8765  0.5426
63379SOL    HW2  452  11.284   9.090  10.978  0.1049  0.1117  0.1347
63380SOL     OW  453   9.713   1.989  11.877  0.2944 -0.0537 -0.2636
63380SOL    HW1  454   9.685   2.046  11.948  1.1317  0.3768 -0.2604
63380SOL    HW2  455   9.798   2.025  11.849  0.0581 -0.3092 -1.3752
63381SOL     OW  456   2.591   0.631  11.266  0.5808  0.1463  0.1294
63381SOL    HW1  457   2.670   0.638  11.212 -0.3128 -1.2596 -1.4583
63381SOL    HW2  458   2.548   0.551  11.235 -0.2243 -0.5008  2.6539
63382SOL     OW  459   7.548   7.404   4.970 -0.1012  0.3922 -0.0021
63382SOL    HW1  460   7.531   7.446   5.054 -1.5373  0.3154 -0.2368
63382SOL    HW2  461   7.602   7.468   4.922 -0.5403  1.0863  0.4134
63383SOL     OW  462  12.233   4.201   6.562 -0.3620  0.7221 -0.1718
63383SOL    HW1  463  12.213   4.256   6.638 -1.4967 -1.1946  0.9977
63383SOL    HW2  464  12.318   4.161   6.584  0.2901  1.7010 -0.8591
63384SOL     OW  465   7.636   8.699   5.121  0.1269 -0.2457  0.0072
63384SOL    HW1  466   7.569   8.715   5.055  0.0885  1.1539  0.3492
63384SOL    HW2  467   7.698   8.771   5.111  0.7150 -0.6226  0.7692
63385SOL     OW  468  10.981   1.298   2.538 -0.4559  0.5618  0.5491
63385SOL    HW1  469  10.986   1.212   2.496 -0.9414  0.1181  1.3864
63385SOL    HW2  470  10.946   1.281   2.625 -0.1208  1.5556  0.8963
63386SOL     OW  471  12.698   6.145   7.247 -0.6644  0.1014  0.1795
63386SOL    HW1  472  12.636   6.211   7.216  1.0084  1.5482 -0.2905
63386SOL    HW2  473  12.662   6.062   7.218 -2.1567  0.9121 -0.4137
63387SOL     OW  474   9.087  12.409   5.106 -0.0317  0.7323  0.0387
63387SOL    HW1  475   9.147  12.477   5.076 -0.0140  1.0872  0.8273
63387SOL    HW2  476   9.128  12.327   5.080  0.5660  0.9894  0.1511
63388SOL     OW  477   9.028  10.775   1.503  0.5408 -0.2872 -0.5167
63388SOL    HW1  478   9.106  10.749   1.453  0.3078 -1.1706 -0.4365
63388SOL    HW2  479   8.961  10.791   1.436  0.7370  0.3185 -0.5769
63389SOL     OW  480   0.459   0.793  10.255 -0.0625  0.5032 -0.5610
63389SOL    HW1  481   0.475   0.750  10.171 -1.4582  0.3529 -0.7716
63389SOL    HW2  482   0.476   0.725  10.320 -4.6254 -1.3570 -0.9487
63390SOL     OW  483   6.100   1.216  10.833  0.3343 -0.1746  0.1642
63390SOL    HW1  484   6.127   1.255  10.750  1.2800  1.3731  1.1418
63390SOL    HW2  485   6.173   1.158  10.857 -1.1053 -2.8109 -1.3290
63391SOL     OW  486   1.308  11.193  11.513  0.2386  0.1153  0.2161
63391SOL    HW1  487   1.236  11.138  11.483 -0.4130  0.2478  1.4802
63391SOL    HW2  488   1.386  11.155  11.473 -0.2776 -1.2866  0.4949
63392SOL     OW  489   8.992  12.899  12.209 -0.0600 -0.1135 -0.1683
63392SOL    HW1  490   9.022  12.814  12.242 -1.2541 -0.5760 -0.2217
63392SOL    HW2  491   9.037  12.910  12.125  1.3771  0.0990  0.5867
63393SOL     OW  492   4.559  10.898   0.689  0.1383 -0.1642  0.3450
63393SOL    HW1  493   4.540  10.965   0.755  1.8054  0.7337 -0.0287
63393SOL    HW2  494   4.500  10.918   0.617 -0.9977 -0.5449  1.1365
63394SOL     OW  495   0.219   3.206   0.103 -0.1589  0.2384 -0.1983
63394SOL    HW1  496   0.145   3.149   0.082  0.3849 -0.1224 -1.2047
63394SOL    HW2  497   0.236   3.190   0.196  0.2100 -1.5286 -0.5322
63395SOL     OW  498  12.758   9.160   3.344  0.2353  0.1805 -0.9124
63395SOL    HW1  499  12.834   9.207   3.310 -0.1255  1.3406 -0.1773
63395SOL    HW2  500  12.684   9.193   3.293  0.1265 -0.4320 -1.1572
63396SOL     OW  501  12.468   4.576   7.508 -0.5083  0.1889 -0.3592
63396SOL    HW1  502  12.409   4.552   7.580  1.4130 -1.2167  0.8660
63396SOL    HW2  503  12.530   4.637   7.548 -0.9274  1.4550 -1.5612
63397SOL     OW  504   4.406   4.223   1.712  0.2286  0.1438 -0.1044
63397SOL    HW1  505   4.418   4.305   1.664 -0.5837 -0.4008 -1.2929
63397SOL    HW2  506   4.487   4.212   1.761  1.3687  0.4578 -1.8177
63398SOL     OW  507   1.447   9.817   1.412 -0.5449  0.3794  0.3341
63398SOL    HW1  508   1.499   9.814   1.492  0.3020 -1.1614 -0.2412
63398SOL    HW2  509   1.462   9.905   1.378  0.9583  0.2882  0.6699
63399SOL     OW  510   3.820   4.996   0.264 -0.6283 -0.0420 -0.0308
63399SOL    HW1  511   3.890   4.942   0.301 -1.3527  0.0751  1.5603
63399SOL    HW2  512   3.795   5.055   0.335 -1.2583  1.0129 -1.0952
63400SOL     OW  513  10.507   6.223  10.305  0.2845 -0.0714 -0.3463
63400SOL    HW1  514  10.452   6.295  10.272  0.3768  0.9675  1.5653
63400SOL    HW2  515  10.504   6.156  10.237 -0.9543  1.1812 -1.5835
63401SOL     OW  516  10.855   5.860   6.859 -0.3002  0.3474 -0.6827
63401SOL    HW1  517  10.899   5.886   6.778 -0.4712 -0.1126 -0.9302
63401SOL    HW2  518  10.825   5.770   6.842 -1.5625  0.7398 -0.6215
63402SOL     OW  519   2.242  12.392   7.567 -0.6965  0.7969 -0.2185
63402SOL    HW1  520   2.280  12.397   7.655  0.0704  0.5540 -0.5281
63402SOL    HW2  521   2.282  12.465   7.520 -0.3036  0.3008 -0.6640
63403SOL     OW  522   6.864   0.740   1.017 -0.0123 -0.0406  0.4390
63403SOL    HW1  523   6.828   0.746   1.105 -0.5497  2.5794  0.1012
63403SOL    HW2  524   6.799   0.781   0.961  0.2127 -1.8666 -1.2684
63404SOL     OW  525   0.644  11.103   2.477 -0.0613 -0.2962 -0.0471
63404SOL    HW1  526   0.601  11.021   2.452 -1.4012 -0.0077  1.2146
63404SOL    HW2  527   0.733  11.076   2.502 -1.1249 -1.7629  2.5508
63405SOL     OW  528   2.477   9.617   7.425 -0.0209  0.5494 -0.0359
63405SOL    HW1  529   2.415   9.686   7.402 -1.2187  0.2161  1.9642
63405SOL    HW2  530   2.521   9.596   7.343 -1.8421  1.5089 -1.3256
63406SOL     OW  531   4.896  12.028   9.194 -0.5276  0.1863 -0.6910
63406SOL    HW1  532   4.806  12.042   9.165 -1.0759  0.3743  1.0421
63406SOL    HW2  533   4.939  12.112   9.177 -0.6369  0.0724 -1.5951
63407SOL     OW  534  11.953   2.261   4.399  0.2932  0.2910 -0.1262
63407SOL    HW1  535  12.024   2.277   4.337 -0.9349  0.0890 -1.6530
63407SOL    HW2  536  11.929   2.348   4.432  1.7933  0.2792  1.0926
63408SOL     OW  537   3.101  12.590   1.292  0.1474 -0.2069 -0.5433
63408SOL    HW1  538   3.076  12.519   1.233 -2.6688 -1.1631  1.5800
63408SOL    HW2  539   3.163  12.643   1.241  0.8641 -3.0590 -2.8960
63409SOL     OW  540   9.259   4.105   3.172  0.1452  0.5709 -0.3133
63409SOL    HW1  541   9.255   4.075   3.081  1.7847  0.8875 -0.5212
63409SOL    HW2  542   9.314   4.039   3.216 -0.2090  0.6957  0.3273
63410SOL     OW  543   4.596   8.237   9.150 -0.0491 -0.4922  0.5539
63410SOL    HW1  544   4.659   8.281   9.092 -1.7379  2.6858  0.9344
63410SOL    HW2  545   4.543   8.184   9.091  2.1598 -2.4085  0.1035
63411SOL     OW  546   6.591  11.493   3.735 -0.7455  0.1588  0.2184
63411SOL    HW1  547   6.501  11.514   3.710 -0.7493 -0.0494  0.0543
63411SOL    HW2  548   6.586  11.403   3.768 -0.7230  0.3990  0.8734
63412SOL     OW  549   4.586   9.358   8.047  0.3008  0.4240 -0.3325
63412SOL    HW1  550   4.513   9.309   8.084  0.9548 -1.0703 -0.9300
63412SOL    HW2  551   4.654   9.352   8.114  0.3700  0.5548 -0.3912
63413SOL     OW  552   2.403   8.201   8.736  0.1874 -0.6666 -0.2378
63413SOL    HW1  553   2.491   8.208   8.697 -0.8977 -0.2762 -2.8469
63413SOL    HW2  554   2.348   8.170   8.664 -1.9463 -0.2105  1.1270
63414SOL     OW  555   8.212   5.207   4.047  0.0886  0.5377 -0.3784
63414SOL    HW1  556   8.281   5.266   4.076  1.0261 -1.2357  1.2303
63414SOL    HW2  557   8.215   5.210   3.952  2.3039  0.6001 -0.3439
63415SOL     OW  558   4.529   4.275   3.220  0.0040 -0.4573  0.3970
63415SOL    HW1  559   4.615   4.272   3.179  0.3514  1.9980  0.7909
63415SOL    HW2  560   4.467   4.262   3.148  0.6735 -0.3277 -0.2093
63416SOL     OW  561  12.764   5.706   6.367  0.3725 -0.2524  0.2335
63416SOL    HW1  562  12.753   5.641   6.297 -0.9966 -1.3761  1.4245
63416SOL    HW2  563  12.676   5.742   6.379  1.1373  1.9913 -0.5021
63417SOL     OW  564   1.356   8.608   8.382 -0.0830  0.4077  0.2969
63417SOL    HW1  565   1.418   8.654   8.326  0.0095  0.7897  0.7083
63417SOL    HW2  566   1.409   8.543   8.428  0.1351  1.1212  1.0849
63418SOL     OW  567   9.814   5.817   1.769  0.2758 -0.2983  0.2984
63418SOL    HW1  568   9.832   5.893   1.713  1.0604 -1.3595 -0.9355
63418SOL    HW2  569   9.726   5.788   1.742 -0.5063  0.7905  1.5459
63419SOL     OW  570   7.015   0.612  12.563 -0.1676  0.5820 -0.2494
63419SOL    HW1  571   6.983   0.532  12.522  1.4565 -0.4762  0.4708
63419SOL    HW2  572   7.090   0.638  12.511  0.5627  0.4628  0.7107
63420SOL     OW  573  10.834   1.403   3.980 -0.2203 -0.8501 -0.6527
63420SOL    HW1  574  10.912   1.357   4.009  1.1767 -0.1585 -3.0311
63420SOL    HW2  575  10.844   1.492   4.014  0.3822 -0.5922 -1.4719
63421SOL     OW  576   2.856   5.723  12.101 -0.1869  0.4134 -0.0582
63421SOL    HW1  577   2.825   5.769  12.179 -1.1614  0.5986 -0.5460
63421SOL    HW2  578   2.886   5.793  12.043  0.9495  0.2553  0.2956
63422SOL     OW  579  11.881   3.841   8.635  0.2718  0.0972  0.0510
63422SOL    HW1  580  11.797   3.861   8.594  0.5350  0.0273 -0.5283
63422SOL    HW2  581  11.941   3.907   8.602  1.0612 -1.3478 -1.6095
63423SOL     OW  582   7.569   4.638  11.339  0.2451 -0.4350 -0.1051
63423SOL    HW1  583   7.608   4.666  11.255  0.8551 -0.6990  0.0877
63423SOL    HW2  584   7.592   4.708  11.400 -0.1476 -0.2728 -0.1388
63424SOL     OW  585   2.565   3.874   7.105 -0.6299 -0.1312  0.7923
63424SOL    HW1  586   2.519   3.956   7.121  0.2808  0.7845 -0.9261
63424SOL    HW2  587   2.514   3.830   7.037  1.1306  1.1212 -1.4881
63425SOL     OW  588   4.319   6.011   0.019  0.6147 -0.4699 -0.2490
63425SOL    HW1  589   4.309   5.922   0.054  1.0224 -0.6011 -0.4624
63425SOL    HW2  590   4.273   6.008  -0.065  1.9605 -0.9307 -0.9940
63426SOL     OW  591  11.617   9.778   9.601 -0.2077 -0.4211 -0.2910
63426SOL    HW1  592  11.713   9.781   9.598 -0.0195 -1.5325  2.1260
63426SOL    HW2  593  11.597   9.685   9.615 -1.6838 -0.2794 -1.2581
63427SOL     OW  594  12.871   0.162  10.908 -0.1127  0.6517 -0.1285
63427SOL    HW1  595  12.922   0.099  10.856 -2.5354  0.1524 -2.0706
63427SOL    HW2  596  12.908   0.247  10.884  0.6363  0.2355 -0.5019
63428SOL     OW  597  10.730  12.387   9.016 -0.2308  0.6114  0.7960
63428SOL    HW1  598  10.817  12.347   9.012 -1.1765 -1.5050 -1.7882
63428SOL    HW2  599  10.744  12.477   8.986  1.2183  0.7095  1.6658
63429SOL     OW  600   0.543   3.180   0.645  0.0583 -0.0997  0.0502
63429SOL    HW1  601   0.455   3.148   0.667 -0.1913  0.6528  0.2007
63429SOL    HW2  602   0.528   3.247   0.578  0.3739  0.9365  0.9644
63430SOL     OW  603   6.869   6.006   4.888  0.4634  0.0641  0.3198
63430SOL    HW1  604   6.841   5.972   4.802  0.4325 -1.5361  0.9197
63430SOL    HW2  605   6.953   5.964   4.904  0.3614  0.1673  1.1750
63431SOL     OW  606   8.360   7.514   2.504 -0.1796 -0.0091 -0.1437
63431SOL    HW1  607   8.350   7.486   2.414  0.4038  0.3347 -0.3232
63431SOL    HW2  608   8.454   7.526   2.516 -0.2482 -0.0238  0.5019
63432SOL     OW  609  10.220   0.697   9.303  0.3495 -0.1267 -0.0596
63432SOL    HW1  610  10.151   0.631   9.305 -1.1623  1.3573 -0.6966
63432SOL    HW2  611  10.301   0.647   9.288 -0.7516 -1.7930 -0.7108
63433SOL     OW  612  11.432  10.961  11.821 -0.4312  0.2160  0.3624
63433SOL    HW1  613  11.514  10.952  11.772 -0.5763  0.9053 -0.0235
63433SOL    HW2  614  11.450  11.030  11.884 -1.4276  2.1339 -1.3281
63434SOL     OW  615   5.156   6.699   7.313  0.0185 -0.2915 -0.0067
63434SOL    HW1  616   5.195   6.616   7.285 -0.0094  0.4811 -2.6220
63434SOL    HW2  617   5.230   6.751   7.345  0.2368 -0.8089  0.3452
63435SOL     OW  618   8.046   9.167   2.037 -0.0208 -0.5141 -0.2822
63435SOL    HW1  619   7.965   9.136   1.997 -0.1822 -1.3903  0.6695
63435SOL    HW2  620   8.079   9.091   2.085  1.6620 -0.3459 -1.0905
63436SOL     OW  621   7.455   7.623   7.578 -0.8255  0.2459  0.3127
63436SOL    HW1  622   7.367   7.658   7.562 -1.3208 -0.9127  0.4039
63436SOL    HW2  623   7.447   7.529   7.562  0.2892  0.0542  0.7772
63437SOL     OW  624   1.323   7.178   9.868 -0.1410  0.4466  0.0075
63437SOL    HW1  625   1.398   7.174   9.927  0.0739  1.2188 -0.2048
63437SOL    HW2  626   1.280   7.092   9.878  0.2761  0.3158  0.7671
63438SOL     OW  627   3.606   3.653   5.655 -0.1530  0.1050  0.2230
63438SOL    HW1  628   3.612   3.624   5.564 -0.9315 -0.3757  0.3180
63438SOL    HW2  629   3.661   3.731   5.659 -1.6717  1.3045 -1.1538
63439SOL     OW  630   6.935  12.185   9.299  0.4060  0.2745  0.4038
63439SOL    HW1  631   6.869  12.195   9.369  0.2431 -0.7134  0.4040
63439SOL    HW2  632   6.884  12.157   9.223  0.8190 -0.4166  0.3811
63440SOL     OW  633   3.934   7.454   9.716 -0.2349  0.2803  0.0986
63440SOL    HW1  634   4.002   7.412   9.663 -1.1034 -0.5673 -0.3598
63440SOL    HW2  635   3.912   7.534   9.668  1.1245  1.0937  0.7605
63441SOL     OW  636   2.068   5.585  10.913 -0.3197 -0.2001 -0.0236
63441SOL    HW1  637   2.023   5.502  10.929 -1.0185  0.0975 -0.4020
63441SOL    HW2  638   2.081   5.622  11.000 -1.4353  0.0228  0.0686
63442SOL     OW  639   7.927   9.470   6.978 -0.6545  0.6002 -0.4080
63442SOL    HW1  640   7.852   9.513   7.018 -0.2000  2.2175 -1.2098
63442SOL    HW2  641   7.889   9.397   6.929 -1.4979  0.3122  0.6482
63443SOL     OW  642   9.998   5.226  12.782 -0.0739 -0.5059  0.1291
63443SOL    HW1  643   9.963   5.312  12.756  0.7731 -0.2795 -0.2956
63443SOL    HW2  644   9.954   5.206  12.865  0.9798  1.1441  1.1438
63444SOL     OW  645  12.752   1.500   8.491  0.1066  0.4726 -0.6046
63444SOL    HW1  646  12.771   1.594   8.495  1.4115  0.1967  0.8932
63444SOL    HW2  647  12.744   1.481   8.398  1.8110  1.7218 -1.0678
63445SOL     OW  648  12.245  10.537   6.627 -0.1344  0.0647 -0.2082
63445SOL    HW1  649  12.273  10.619   6.586 -0.4956  1.7812  2.7086
63445SOL    HW2  650  12.306  10.471   6.592  2.1932  2.1403 -0.3768
63446SOL     OW  651  10.745   3.211   9.767  0.3439 -0.3732 -0.0173
63446SOL    HW1  652  10.797   3.132   9.753 -0.0020 -0.5878 -0.0998
63446SOL    HW2  653  10.802   3.268   9.820  0.2435 -1.0515  0.8410
63447SOL     OW  654   3.534  11.045   4.261 -0.2593  0.8741  0.0230
63447SOL    HW1  655   3.583  11.121   4.294  1.8952 -0.3143 -0.2789
63447SOL    HW2  656   3.496  11.005   4.339  1.7944  0.1336  0.6855
63448SOL     OW  657  11.102  12.854   2.424 -0.2184  0.2856 -0.3784
63448SOL    HW1  658  11.048  12.891   2.354 -0.2613 -0.8106 -0.9543
63448SOL    HW2  659  11.043  12.849   2.500 -0.2771  1.1375 -0.3646
63449SOL     OW  660   2.810   1.329   8.293  0.1048 -0.1676  0.1499
63449SOL    HW1  661   2.874   1.382   8.341 -0.0308  1.2797 -1.1673
63449SOL    HW2  662   2.738   1.390   8.274  0.1749 -0.6511 -1.8971
63450SOL     OW  663   2.226   1.635  11.086  0.1059 -0.2935  0.0696
63450SOL    HW1  664   2.257   1.604  11.000  2.1862 -0.3193  0.7713
63450SOL    HW2  665   2.304   1.673  11.127 -1.3010  1.5459  1.1669
63451SOL     OW  666   4.730   3.746   7.296  0.0153 -0.0786 -0.3781
63451SOL    HW1  667   4.751   3.669   7.349 -0.3901  0.7877  1.0810
63451SOL    HW2  668   4.637   3.762   7.313  0.0097  0.5206 -0.9511
63452SOL     OW  669  10.259   8.662   6.945  0.0130 -0.2007  0.0733
63452SOL    HW1  670  10.239   8.752   6.971 -1.3808 -0.8571  1.3915
63452SOL    HW2  671  10.179   8.631   6.903  1.0336 -0.3388 -1.8928
63453SOL     OW  672   3.482   6.142  10.442  0.2081 -0.0674 -0.4728
63453SOL    HW1  673   3.486   6.141  10.346  2.5212 -0.2076 -0.4418
63453SOL    HW2  674   3.524   6.224  10.466  0.3115 -0.3797  0.4271
63454SOL     OW  675   1.446   6.828  11.578 -0.2611  0.3441 -0.1644
63454SOL    HW1  676   1.537   6.798  11.581 -0.5992 -0.7142  0.2350
63454SOL    HW2  677   1.396   6.751  11.603 -1.3762  0.4382 -1.9141
63455SOL     OW  678   0.929   7.967   4.878 -0.6308 -0.0659 -0.0104
63455SOL    HW1  679   1.008   7.976   4.931 -0.4584 -0.7109 -0.1513
63455SOL    HW2  680   0.872   7.909   4.929 -0.4852 -0.6478 -0.4972
63456SOL     OW  681   4.448   1.460  11.199  0.3416  0.6329 -0.8674
63456SOL    HW1  682   4.515   1.404  11.160  0.2487 -0.4284  0.4502
63456SOL    HW2  683   4.368   1.438  11.151  0.0197 -1.3831  0.4867
63457SOL     OW  684   9.399   0.436  10.010  0.7662  0.2919  0.1712
63457SOL    HW1  685   9.397   0.530  10.027  1.6732  0.5298 -0.9427
63457SOL    HW2  686   9.340   0.423   9.936  0.6394 -0.0201  0.3237
63458SOL     OW  687  11.066  10.600   5.387  0.6446 -0.6087 -0.3728
63458SOL    HW1  688  11.052  10.681   5.339  0.7394 -0.6532 -0.4784
63458SOL    HW2  689  11.057  10.531   5.321 -0.0697 -0.7273 -0.1581
63459SOL     OW  690  10.242   0.370   0.854 -0.5665  0.5856  0.1113
63459SOL    HW1  691  10.323   0.329   0.886  0.0872 -0.0990 -2.1775
63459SOL    HW2  692  10.181   0.297   0.844 -0.2868  0.5356 -1.4382
63460SOL     OW  693   0.242   8.603  11.230  0.1104  0.0427  0.4993
63460SOL    HW1  694   0.322   8.586  11.279  0.2640 -2.1915 -0.4428
63460SOL    HW2  695   0.171   8.585  11.293  0.3171 -0.0407  0.7090
63461SOL     OW  696   6.896  10.011   9.130  0.6060  0.4785  0.6391
63461SOL    HW1  697   6.984  10.034   9.101 -0.4984  0.9562 -2.6967
63461SOL    HW2  698   6.847  10.093   9.126 -0.3929 -0.0956  0.7790
63462SOL     OW  699   8.236   2.784   9.441  0.3614  0.1174 -0.1029
63462SOL    HW1  700   8.160   2.752   9.393  0.6606 -1.0998  0.2117
63462SOL    HW2  701   8.305   2.720   9.423  1.4861  1.4830 -0.8150
63463SOL     OW  702  11.177   6.007   6.162  0.2452  0.3694  0.0974
63463SOL    HW1  703  11.105   5.950   6.134 -0.6724  1.1899  0.7265
63463SOL    HW2  704  11.134   6.086   6.193  1.5409  2.3737 -2.7630
63464SOL     OW  705   8.587   8.947   2.170 -0.1615 -0.4837  0.2224
63464SOL    HW1  706   8.554   8.857   2.167 -0.2833 -0.4346  0.0630
63464SOL    HW2  707   8.559   8.980   2.256 -0.1400 -0.5888  0.2693
63465SOL     OW  708  12.268   9.356   8.476  0.5493 -0.0344  0.3533
63465SOL    HW1  709  12.200   9.407   8.520  0.9987  1.8560 -1.0157
63465SOL    HW2  710  12.229   9.330   8.393  0.6019 -1.2704  0.7029
63466SOL     OW  711   8.176   2.589   8.902  0.2959  0.3491  0.2707
63466SOL    HW1  712   8.142   2.625   8.983 -0.1520  0.6778 -0.0595
63466SOL    HW2  713   8.198   2.498   8.923  1.7298  0.8734  1.1943
63467SOL     OW  714  12.738   5.627  12.969  0.3215  0.7915 -0.2055
63467SOL    HW1  715  12.651   5.622  12.931 -0.5876 -1.9058  1.8713
63467SOL    HW2  716  12.724   5.664  13.057  1.1990  0.0328  0.2713
63468SOL     OW  717   3.426   7.311  10.252  0.4084  0.1185  0.1101
63468SOL    HW1  718   3.408   7.217  10.255  1.2659 -0.0231  2.4648
63468SOL    HW2  719   3.342   7.352  10.274  0.8188 -0.2801  2.7630
63469SOL     OW  720   4.902  11.489   3.032  0.1228  0.6094 -0.9376
63469SOL    HW1  721   4.928  11.575   2.999  0.4128  0.7214 -0.4323
63469SOL    HW2  722   4.960  11.474   3.107  0.5229 -0.3095 -1.4164
63470SOL     OW  723   7.826   8.614   3.165 -0.4920  0.2658 -0.4367
63470SOL    HW1  724   7.887   8.558   3.117  0.3673  2.3587 -1.9251
63470SOL    HW2  725   7.739   8.588   3.132 -0.1072 -0.1724 -1.1337
63471SOL     OW  726   9.661   1.537   0.390 -0.6580  0.4551 -0.2803
63471SOL    HW1  727   9.622   1.473   0.330 -0.0200 -1.2708  1.0636
63471SOL    HW2  728   9.677   1.487   0.470  1.8181  1.7779  0.1275
63472SOL     OW  729   0.370   5.239   7.792 -0.2207  0.0127  0.3845
63472SOL    HW1  730   0.354   5.170   7.857 -1.4537 -0.2569 -0.1781
63472SOL    HW2  731   0.335   5.203   7.711  1.1068  0.4395 -0.3975
63473SOL     OW  732  12.540   5.154   8.910  0.5207 -0.0092 -0.3159
63473SOL    HW1  733  12.612   5.166   8.849 -1.1550 -0.2520 -2.4358
63473SOL    HW2  734  12.461   5.174   8.859 -0.9183  0.7991  2.0484
63474SOL     OW  735  12.093   5.588   2.871  0.1158  0.2067 -0.2337
63474SOL    HW1  736  12.099   5.613   2.778  0.0692  0.9646 -0.0395
63474SOL    HW2  737  12.109   5.493   2.871 -0.1329  0.1543 -1.0423
63475SOL     OW  738  12.721  12.507   4.032 -0.3024  0.3992 -0.6503
63475SOL    HW1  739  12.681  12.461   4.105  0.1500  1.3096  0.1994
63475SOL    HW2  740  12.720  12.445   3.960 -0.1781 -0.7462  0.3151
63476SOL     OW  741   3.294   5.583  12.036 -0.0418  0.5102  0.2767
63476SOL    HW1  742   3.386   5.592  12.060 -0.3923 -0.7442  2.3762
63476SOL    HW2  743   3.292   5.509  11.975  0.2303 -0.2258  1.1484
63477SOL     OW  744  11.250   0.453   7.298  0.3586 -0.0295 -0.1933
63477SOL    HW1  745  11.178   0.510   7.271  1.0598  1.5824  1.2181
63477SOL    HW2  746  11.329   0.497   7.266  1.0677  0.9308  2.6365
63478SOL     OW  747   1.019   2.838   0.771 -0.6650  0.3610 -0.4746
63478SOL    HW1  748   1.094   2.798   0.814 -1.3668  0.4932  0.9329
63478SOL    HW2  749   1.007   2.787   0.691  0.1469 -0.4642 -0.0890
63479SOL     OW  750   6.185   0.260   6.587 -0.0706 -0.4679  0.4798
63479SOL    HW1  751   6.196   0.170   6.619  1.7887  0.1629  1.8100
63479SOL    HW2  752   6.140   0.305   6.658 -1.3335 -0.4016 -0.3395
63480SOL     OW  753   5.067   2.761   4.412 -0.4889  0.3297  0.0863
63480SOL    HW1  754   5.002   2.813   4.365 -0.4402  0.8668  0.5944
63480SOL    HW2  755   5.150   2.784   4.371 -0.6093 -0.3465 -0.5542
63481SOL     OW  756   9.794   3.207   9.920  0.1895  0.1859  0.4149
63481SOL    HW1  757   9.703   3.203   9.951  0.6038  0.2806  1.6846
63481SOL    HW2  758   9.846   3.175   9.993  1.3636  2.3616  0.6131
63482SOL     OW  759   0.782   3.194   6.890  0.1336  0.0073  0.0340
63482SOL    HW1  760   0.823   3.272   6.854  0.9384 -0.6943 -0.6309
63482SOL    HW2  761   0.830   3.121   6.850 -0.8401 -0.8294  0.3429
63483SOL     OW  762   9.088  10.525   6.171 -0.0854 -0.7116  0.5520
63483SOL    HW1  763   9.165  10.523   6.228  0.7868 -0.3728 -0.6004
63483SOL    HW2  764   9.104  10.458   6.105 -1.1439 -1.1835  0.7437
63484SOL     OW  765   9.215  12.961   0.056 -0.5752  0.1425 -1.0040
63484SOL    HW1  766   9.137  12.931   0.103 -0.9810  0.1042 -1.6860
63484SOL    HW2  767   9.213  13.056   0.066 -1.3190  0.2427 -1.9204
63485SOL     OW  768   8.996   5.293   4.991  0.1607 -0.0382 -0.0427
63485SOL    HW1  769   8.961   5.256   4.910  0.5785  0.6825 -0.5666
63485SOL    HW2  770   9.091   5.284   4.983  0.1685 -1.0662  0.9198
63486SOL     OW  771   3.764   8.217  11.741 -0.4044  0.7474  0.2505
63486SOL    HW1  772   3.796   8.131  11.712  0.4680  1.1652 -0.0753
63486SOL    HW2  773   3.697   8.197  11.806 -0.9616 -0.1936 -0.5873
63487SOL     OW  774   7.076   1.286  11.340 -0.5321  0.3673 -0.2689
63487SOL    HW1  775   7.114   1.325  11.419 -0.6654 -0.3574  0.1591
63487SOL    HW2  776   7.152   1.255  11.290 -0.3250  2.1598 -1.1859
63488SOL     OW  777   4.336  11.872  11.058 -0.3026  0.0366 -0.4613
63488SOL    HW1  778   4.394  11.802  11.029 -1.4640 -1.8792  1.5514
63488SOL    HW2  779   4.278  11.887  10.984  0.5815 -0.4146 -1.2734
63489SOL     OW  780   6.303   2.085   6.437 -0.0543 -0.2455  0.3716
63489SOL    HW1  781   6.395   2.111   6.430  0.3003 -1.2548  1.1164
63489SOL    HW2  782   6.304   1.990   6.429 -1.2873 -0.1310 -1.7921
63490SOL     OW  783   0.748   9.601   0.718  0.4118 -0.5069  0.2390
63490SOL    HW1  784   0.670   9.606   0.774  0.7197 -0.7537  0.6900
63490SOL    HW2  785   0.789   9.687   0.727 -0.2638 -0.0642 -0.6784
63491SOL     OW  786   5.393  12.700  11.840 -0.1115 -0.3143  0.2756
63491SOL    HW1  787   5.394  12.759  11.915 -1.4023 -0.7944  0.6896
63491SOL    HW2  788   5.446  12.744  11.774 -0.6677  1.0884  0.7412
63492SOL     OW  789   3.112  11.891   7.792 -0.0555 -0.8280 -0.1583
63492SOL    HW1  790   3.024  11.856   7.774 -0.8918 -0.3080  2.4756
63492SOL    HW2  791   3.169  11.814   7.789 -0.3267 -1.0479 -2.8655
63493SOL     OW  792   3.620   1.116   5.284 -0.0516  0.0875 -0.1989
63493SOL    HW1  793   3.707   1.079   5.301 -0.2237  0.2940  1.3000
63493SOL    HW2  794   3.561   1.041   5.293 -0.2000  0.3065  0.7445
63494SOL     OW  795   5.071  12.178   6.170 -0.3883 -0.0152 -0.3101
63494SOL    HW1  796   5.071  12.259   6.120 -0.3835  0.4412  0.4161
63494SOL    HW2  797   5.018  12.118   6.118 -1.4986  0.8528 -0.2183
63495SOL     OW  798   3.200   3.917   2.972 -0.0293 -0.0318 -0.2059
63495SOL    HW1  799   3.158   3.847   3.022 -0.5493 -0.2613 -0.9536
63495SOL    HW2  800   3.214   3.880   2.885  1.5977  0.0872 -0.0375
63496SOL     OW  801  12.328   6.983   6.553 -0.4477  0.2334  0.7872
63496SOL    HW1  802  12.310   7.040   6.478  1.0563 -0.6964 -0.3402
63496SOL    HW2  803  12.258   6.917   6.550 -0.4516  0.2550  0.2449
63497SOL     OW  804  12.773   1.770  11.069 -0.0879  0.2834 -0.0430
63497SOL    HW1  805  12.770   1.797  11.160 -0.2709 -0.5511  0.2139
63497SOL    HW2  806  12.833   1.831  11.027  0.8117  0.0352  0.8612
63498SOL     OW  807   5.811   9.370   9.721 -0.4755 -0.3178 -0.5040
63498SOL    HW1  808   5.777   9.400   9.805 -3.2948  2.9961 -2.5484
63498SOL    HW2  809   5.893   9.418   9.710 -1.0857  0.7956 -0.4052
63499SOL     OW  810   4.838   1.721  10.296  0.5971 -0.6204 -0.3504
63499SOL    HW1  811   4.892   1.800  10.288  0.5831 -0.4263  1.1492
63499SOL    HW2  812   4.773   1.730  10.227  0.3746  0.8735  0.0121
63500SOL     OW  813   6.672  10.534   4.958  0.1914  0.0081  0.2998
63500SOL    HW1  814   6.631  10.514   4.874  0.2749 -2.2004  0.7396
63500SOL    HW2  815   6.693  10.449   4.996 -1.2441  0.8399  3.2589
63501SOL     OW  816   0.490   4.713   0.477  0.2619  0.2523  0.2748
63501SOL    HW1  817   0.400   4.743   0.459  1.4805  3.7293 -0.9020
63501SOL    HW2  818   0.493   4.703   0.572 -1.5015 -0.5491  0.2905
63502SOL     OW  819   0.452   1.095   8.326 -0.1328 -0.6148  0.2254
63502SOL    HW1  820   0.472   1.080   8.418  0.2839 -1.3732  0.0201
63502SOL    HW2  821   0.480   1.015   8.281  2.3436  0.7800 -0.9542
63503SOL     OW  822   4.305   8.976   9.054 -0.5462  0.6426 -0.3519
63503SOL    HW1  823   4.257   8.971   9.137 -0.3644  0.7570 -0.2413
63503SOL    HW2  824   4.279   8.896   9.007 -0.6077  0.5514 -0.1634
63504SOL     OW  825   7.881   4.696   1.201  0.4591 -0.5188  0.0096
63504SOL    HW1  826   7.871   4.670   1.109 -0.3567 -1.5435  0.3672
63504SOL    HW2  827   7.915   4.618   1.244  0.8888 -0.0228  0.5715
63505SOL     OW  828   6.222   2.744   1.821  0.7436 -0.3824  0.7089
63505SOL    HW1  829   6.224   2.680   1.893  0.3417 -0.2308  0.8572
63505SOL    HW2  830   6.188   2.824   1.861 -0.5228 -0.6070  0.1042
63506SOL     OW  831   4.099   7.129   9.901 -0.1646 -0.2991 -0.0068
63506SOL    HW1  832   4.008   7.158   9.910  0.0425  0.2578  0.3911
63506SOL    HW2  833   4.143   7.169   9.975  0.9142  1.5044 -1.5379
63507SOL     OW  834   3.073   2.027   5.384 -0.0139 -0.5622 -0.2977
63507SOL    HW1  835   3.135   2.083   5.338 -0.1747 -0.7636 -0.7655
63507SOL    HW2  836   3.041   1.966   5.318 -1.7473  0.4090 -0.4257
63508SOL     OW  837   2.976   0.657  10.242 -0.4506 -0.2203  0.5292
63508SOL    HW1  838   2.992   0.671  10.335 -0.9299  1.4572  0.3857
63508SOL    HW2  839   3.006   0.737  10.199 -2.2464 -0.0357 -0.5120
63509SOL     OW  840  10.942   2.113   2.130 -0.2350  0.0270 -0.0772
63509SOL    HW1  841  11.014   2.161   2.090  2.6290 -1.3963  2.8986
63509SOL    HW2  842  10.920   2.163   2.208 -0.1069 -1.2632  0.8250
63510SOL     OW  843   8.071   9.925  11.169  0.1468 -0.4138 -0.4264
63510SOL    HW1  844   8.141   9.988  11.156  0.7573 -1.1543 -0.7932
63510SOL    HW2  845   8.006   9.948  11.102 -1.2260  1.9221  1.5475
63511SOL     OW  846   4.436   6.762  12.410 -0.1112  0.1772  0.1530
63511SOL    HW1  847   4.378   6.689  12.388 -0.3227  0.2555  0.4382
63511SOL    HW2  848   4.377   6.837  12.418  0.1174  0.4055 -0.2476
63512SOL     OW  849   2.220   6.510   5.983 -0.1799  0.2235  0.1166
63512SOL    HW1  850   2.165   6.583   5.956 -0.1288  0.8383  1.5930
63512SOL    HW2  851   2.283   6.500   5.912 -0.8236  0.9342 -0.5786
63513SOL     OW  852   3.470   7.381   6.045  0.0212 -0.4131 -0.2406
63513SOL    HW1  853   3.424   7.312   6.093  2.5062 -1.2440  1.1162
63513SOL    HW2  854   3.420   7.390   5.964 -1.6654 -2.2477  0.5001
63514SOL     OW  855   5.395  11.807  12.526 -0.2672 -0.3186  0.0081
63514SOL    HW1  856   5.315  11.778  12.481 -0.0179  0.1615 -0.7662
63514SOL    HW2  857   5.363  11.863  12.597 -0.6490 -0.6731  0.1169
63515SOL     OW  858   0.894   6.950   8.827 -0.1074  0.2214  0.1173
63515SOL    HW1  859   0.888   6.859   8.857  0.1530  0.0160 -0.4557
63515SOL    HW2  860   0.978   6.956   8.783  0.5958  1.1518  1.4906
63516SOL     OW  861   5.137   6.911  12.479  1.1150  0.4595  0.0244
63516SOL    HW1  862   5.137   6.911  12.383 -1.5733  0.5332 -0.0393
63516SOL    HW2  863   5.229   6.896  12.503  1.5484 -1.6777 -2.5446
63517SOL     OW  864   2.811   7.561   5.347  0.7953 -0.1074  0.2226
63517SOL    HW1  865   2.822   7.655   5.330 -2.5858  0.4816  0.5006
63517SOL    HW2  866   2.787   7.524   5.262  1.0820 -0.5142  0.3182
63518SOL     OW  867   4.274   9.244   1.417 -0.3447  0.1347 -0.7509
63518SOL    HW1  868   4.297   9.182   1.347 -2.0815  0.4175 -1.6358
63518SOL    HW2  869   4.355   9.291   1.434  0.2773 -0.3345 -2.1981
63519SOL     OW  870   8.060  11.824   6.732  0.1250  0.4892  0.5330
63519SOL    HW1  871   7.969  11.809   6.705 -0.1895  0.7763  1.3850
63519SOL    HW2  872   8.099  11.870   6.658 -0.2132 -0.2863 -0.1432
63520SOL     OW  873   5.906   1.647   4.859 -0.2142 -0.8171  0.3989
63520SOL    HW1  874   5.908   1.627   4.765 -0.0564 -0.9879  0.4394
63520SOL    HW2  875   5.880   1.565   4.900  0.8220 -1.0519  0.5964
63521SOL     OW  876  12.519   6.050   2.648  0.6827  0.2379 -0.7503
63521SOL    HW1  877  12.434   6.011   2.668 -0.3007  2.9643  0.9878
63521SOL    HW2  878  12.579   5.976   2.646 -1.0148 -1.4471  2.2380
63522SOL     OW  879   0.111   5.924   9.829 -0.1037  0.4456 -0.0757
63522SOL    HW1  880   0.161   5.863   9.776 -1.2571 -1.8397  1.3373
63522SOL    HW2  881   0.165   5.938   9.907 -0.1139  0.7915 -0.1262
63523SOL     OW  882   4.863  12.410   2.017 -0.6072  0.3321  0.4823
63523SOL    HW1  883   4.769  12.421   2.008 -0.5503  0.9432  0.5694
63523SOL    HW2  884   4.901  12.487   1.973 -0.0555 -1.2532 -1.9992
63524SOL     OW  885   4.715   0.666  11.011 -0.8127  0.4214 -0.2497
63524SOL    HW1  886   4.780   0.665  10.940 -0.3354 -0.1045  0.1798
63524SOL    HW2  887   4.767   0.663  11.091 -1.3554  0.7818  0.1196
63525SOL     OW  888   4.774   7.802  11.399 -0.0861  0.9859 -0.5377
63525SOL    HW1  889   4.798   7.796  11.491  0.8187  2.4137 -0.6534
63525SOL    HW2  890   4.688   7.759  11.394 -1.0234  2.4893  1.3173
63526SOL     OW  891   5.519   8.165  11.941 -0.1421 -0.2828  0.1887
63526SOL    HW1  892   5.566   8.121  12.012  1.9857 -0.5866 -1.3038
63526SOL    HW2  893   5.459   8.098  11.907 -0.2313 -0.5540  0.8727
63527SOL     OW  894   5.204   7.878   4.752  0.0698  0.3566  0.3094
63527SOL    HW1  895   5.166   7.859   4.838  1.5589  0.5740  1.0350
63527SOL    HW2  896   5.196   7.973   4.743  0.7006  0.4373  0.5910
63528SOL     OW  897   1.307   5.272   6.023  0.1206 -0.0163  0.7988
63528SOL    HW1  898   1.361   5.256   6.100  0.7499  0.2418  0.4159
63528SOL    HW2  899   1.250   5.195   6.018  0.5863 -0.3851  1.0925
63529SOL     OW  900  11.674   9.872   6.142  0.0354  0.2730  0.0406
63529SOL    HW1  901  11.618   9.947   6.161  0.4948  0.0708  2.6674
63529SOL    HW2  902  11.760   9.910   6.124  0.5996  0.4690  2.6657
63530SOL     OW  903   9.844  12.941  11.200  0.6154  0.2477 -0.3442
63530SOL    HW1  904   9.938  12.957  11.199  1.2430 -2.4470  2.2804
63530SOL    HW2  905   9.822  12.918  11.110  2.0469  2.5039 -1.3580
63531SOL     OW  906   3.471   3.835   1.271 -0.4691 -0.5281  0.5617
63531SOL    HW1  907   3.418   3.783   1.332 -1.4397  0.8382  0.9243
63531SOL    HW2  908   3.408   3.863   1.204 -0.1759  0.9379  0.8801
63532SOL     OW  909   8.230  10.727   5.488 -0.0883  0.1150 -0.3172
63532SOL    HW1  910   8.192  10.714   5.575 -0.3846 -0.3740 -0.5117
63532SOL    HW2  911   8.322  10.704   5.499  0.4794  2.4955  0.4476
63533SOL     OW  912  11.761   1.897   3.887 -0.1141  0.0283 -0.0223
63533SOL    HW1  913  11.830   1.832   3.901 -0.1792 -0.0786 -0.1932
63533SOL    HW2  914  11.802   1.965   3.834  0.0058  0.2148  0.3061
63534SOL     OW  915   2.017   0.071   6.122  0.1488  0.2368  0.3568
63534SOL    HW1  916   2.006   0.118   6.040  0.1404 -0.7541 -0.2265
63534SOL    HW2  917   1.932   0.028   6.137  0.3564 -0.1208  0.5272
63535SOL     OW  918  11.176   8.007   0.521 -0.2452  0.2896  0.3421
63535SOL    HW1  919  11.246   8.071   0.511 -0.3352  0.2397 -0.7033
63535SOL    HW2  920  11.099   8.051   0.484 -0.7276  0.2750  1.3087
63536SOL     OW  921   8.437   5.583   8.077  0.8526  0.1593 -0.1043
63536SOL    HW1  922   8.420   5.667   8.120  0.3899 -0.1459  0.3204
63536SOL    HW2  923   8.395   5.591   7.992  1.2196  0.5310 -0.2540
63537SOL     OW  924   1.075   0.623   7.820 -0.2092  0.3110  0.7263
63537SOL    HW1  925   1.086   0.536   7.783  0.9679  0.8663 -0.2916
63537SOL    HW2  926   1.163   0.661   7.819 -1.0263  2.3678 -1.0412
63538SOL     OW  927   2.239   0.486   6.679 -0.1039 -0.2092 -0.5278
63538SOL    HW1  928   2.171   0.538   6.637 -0.6887  0.1955  0.8456
63538SOL    HW2  929   2.190   0.423   6.734  0.6145 -0.9112 -0.6726
63539SOL     OW  930  10.088  12.409   1.955  0.2888 -0.5950 -0.1964
63539SOL    HW1  931  10.140  12.361   1.891 -0.0307  0.3395 -1.1849
63539SOL    HW2  932  10.017  12.448   1.904 -0.5008 -0.5735  0.8793
63540SOL     OW  933   3.116   5.222   2.809 -0.0610  0.3958 -0.3923
63540SOL    HW1  934   3.048   5.271   2.855 -0.0089 -0.1925  0.3282
63540SOL    HW2  935   3.118   5.136   2.853 -0.4225 -0.3966 -1.8744
63541SOL     OW  936  12.319   4.600   1.036 -0.2506 -0.3397  0.9604
63541SOL    HW1  937  12.346   4.689   1.059  0.7036 -0.4375  0.2962
63541SOL    HW2  938  12.276   4.566   1.115  1.9677 -0.2949  2.2690
63542SOL     OW  939   1.556   1.252   7.575 -0.0883 -0.1700 -0.3822
63542SOL    HW1  940   1.572   1.214   7.662 -0.7960  0.0344 -0.1621
63542SOL    HW2  941   1.577   1.345   7.585  0.9044 -0.3443 -0.7258
63543SOL     OW  942   6.672   2.402   0.782 -0.3075 -0.6060  0.7895
63543SOL    HW1  943   6.635   2.347   0.851 -2.5272 -0.7976 -0.4378
63543SOL    HW2  944   6.658   2.492   0.811  0.1211 -0.6856  1.2413
63544SOL     OW  945   4.297   9.351   1.803  0.0671  0.1742 -0.7354
63544SOL    HW1  946   4.254   9.319   1.882  1.4274 -0.5838 -0.2616
63544SOL    HW2  947   4.374   9.296   1.794  0.4680  0.9032 -2.0438
63545SOL     OW  948  12.355   0.374   0.015  0.3305 -0.0962 -0.0625
63545SOL    HW1  949  12.439   0.409   0.045  1.4662 -1.7169 -1.1926
63545SOL    HW2  950  12.364   0.368  -0.080 -1.1488 -0.1186 -0.2215
63546SOL     OW  951   5.353   6.661   8.443  0.7212  0.1198  0.6349
63546SOL    HW1  952   5.382   6.601   8.375  1.7892  0.6804  0.5611
63546SOL    HW2  953   5.258   6.664   8.435  0.8354  0.2886 -0.9253
63547SOL     OW  954   7.036   1.355   3.131  0.7100 -0.3462 -1.0895
63547SOL    HW1  955   6.942   1.372   3.123  0.6736 -0.7228 -1.5318
63547SOL    HW2  956   7.048   1.270   3.090  1.4519  0.3106 -2.3261
63548SOL     OW  957  12.600  12.531   6.727 -0.0908 -0.1166 -0.2613
63548SOL    HW1  958  12.574  12.474   6.799  0.0930  0.9571  0.6733
63548SOL    HW2  959  12.688  12.501   6.704 -0.1962 -0.5367 -0.1304
63549SOL     OW  960   3.879   4.314   4.509 -0.1199  0.0302 -0.2194
63549SOL    HW1  961   3.792   4.283   4.486 -0.3320  0.8795 -0.5780
63549SOL    HW2  962   3.931   4.234   4.517 -0.9884 -0.5068  0.2867
63550SOL     OW  963  12.380   7.431   5.809  0.2411 -0.4041 -0.4248
63550SOL    HW1  964  12.467   7.458   5.782  0.2907 -0.4519 -0.3125
63550SOL    HW2  965  12.395   7.365   5.877  0.1265 -0.8390 -0.8171
63551SOL     OW  966   0.376   7.645   6.177 -0.2442  0.6866 -0.1505
63551SOL    HW1  967   0.438   7.599   6.234 -1.4706 -0.1886  0.5188
63551SOL    HW2  968   0.432   7.694   6.116  1.1210  1.5007  1.6466
63552SOL     OW  969   4.852   6.862  12.450 -0.6122 -0.2682  0.0468
63552SOL    HW1  970   4.946   6.873  12.461 -0.6298 -0.4964  0.4334
63552SOL    HW2  971   4.837   6.871  12.356 -0.4890  1.9818  0.1861
63553SOL     OW  972   5.002   4.529  11.825 -1.0498  0.2679  0.3641
63553SOL    HW1  973   4.970   4.486  11.904 -0.9114 -1.2974 -0.3887
63553SOL    HW2  974   5.091   4.495  11.814 -1.0473  0.5085 -0.4266
63554SOL     OW  975  12.686   2.249   0.939  0.0865  0.0736  0.4315
63554SOL    HW1  976  12.659   2.161   0.965  1.5148 -0.5065  0.0444
63554SOL    HW2  977  12.759   2.270   0.997  0.6079  0.4632 -0.3506
63555SOL     OW  978  10.552  10.522   1.077  0.2209 -0.1349  0.0924
63555SOL    HW1  979  10.502  10.458   1.128 -0.0433  0.9419  1.2278
63555SOL    HW2  980  10.638  10.525   1.118  0.7129 -0.8053 -0.8612
63556SOL     OW  981  10.239   7.109   8.856 -0.4841  0.2614  0.1479
63556SOL    HW1  982  10.303   7.061   8.803 -3.0319 -0.9713 -2.0642
63556SOL    HW2  983  10.254   7.201   8.835  1.6667  0.2031  1.1204
63557SOL     OW  984   5.939   6.140   8.021  0.1305  0.1715  0.4624
63557SOL    HW1  985   5.862   6.196   8.012  0.2588  0.0882 -1.7358
63557SOL    HW2  986   5.904   6.051   8.027 -0.0191  0.3358  2.5482
63558SOL     OW  987   7.223   5.558   3.536  0.4039  0.4317  0.3370
63558SOL    HW1  988   7.275   5.609   3.474 -0.4212  2.9369  1.5420
63558SOL    HW2  989   7.279   5.484   3.560  1.7452  0.8145 -1.4232
63559SOL     OW  990   3.704   1.161  10.131  0.1696 -0.1834  0.0854
63559SOL    HW1  991   3.741   1.082  10.092 -0.2220  0.8176 -2.5283
63559SOL    HW2  992   3.769   1.229  10.113 -0.9349  0.7080 -0.6692
63560SOL     OW  993   1.179   5.589   2.810  0.1025  0.1623 -0.2805
63560SOL    HW1  994   1.117   5.516   2.802 -0.0762  0.2729  0.1020
63560SOL    HW2  995   1.232   5.584   2.730 -1.7257  1.3088 -1.6544
63561SOL     OW  996  11.687   6.556   4.344  0.1584  0.2971  0.2469
63561SOL    HW1  997  11.648   6.537   4.259  0.3877 -2.5778  0.6753
63561SOL    HW2  998  11.628   6.620   4.385  0.0004  1.6774 -1.9657
63562SOL     OW  999   7.120   9.559   5.290 -0.1309  0.4331 -0.1252
63562SOL    HW1 1000   7.116   9.513   5.207  0.3145 -0.9315  0.5861
63562SOL    HW2 1001   7.041   9.533   5.337  0.7691 -0.7158  0.8175
63563SOL     OW 1002  12.891  11.256   2.138 -0.1451 -0.6253  0.1882
63563SOL    HW1 1003  12.806  11.299   2.131 -0.2154 -0.9715 -1.2544
63563SOL    HW2 1004  12.872  11.172   2.180 -0.8930 -1.6767 -2.1324
63564SOL     OW 1005   0.131  10.468   4.094  0.1101  0.0586  0.1311
63564SOL    HW1 1006   0.154  10.548   4.141 -2.1427  0.3072  0.9521
63564SOL    HW2 1007   0.039  10.454   4.115  0.0289 -1.9038 -1.2656
63565SOL     OW 1008   4.947  10.392   2.112 -0.1222 -0.4164  0.5274
63565SOL    HW1 1009   4.870  10.338   2.098 -0.2294  0.3304 -2.5301
63565SOL    HW2 1010   4.912  10.479   2.132 -0.0770 -0.2674 -0.0233
63566SOL     OW 1011  12.741  11.059   8.915 -0.1469 -0.0528 -0.0219
63566SOL    HW1 1012  12.660  11.011   8.895 -0.0167 -1.0998  1.7258
63566SOL    HW2 1013  12.772  11.019   8.996  2.8410 -0.6071 -1.3027
63567SOL     OW 1014   3.966   5.503   2.793  0.1009 -0.3047 -0.4478
63567SOL    HW1 1015   3.932   5.560   2.862 -0.1853 -1.4633  0.4167
63567SOL    HW2 1016   4.058   5.525   2.787  0.0642  0.0302  0.1055
63568SOL     OW 1017   5.628   3.498   7.631 -0.3432  0.4356  0.3082
63568SOL    HW1 1018   5.646   3.488   7.724 -1.7365 -0.1177  0.5448
63568SOL    HW2 1019   5.542   3.540   7.627 -1.1908 -1.2779 -0.6908
63569SOL     OW 1020   4.022   0.866   4.713  0.4358  0.4262 -0.2635
63569SOL    HW1 1021   3.956   0.819   4.661 -1.5911  1.5590  1.1360
63569SOL    HW2 1022   4.074   0.796   4.754 -0.2266 -0.5237 -0.9816
63570SOL     OW 1023  12.799   6.382   2.629 -0.0998 -0.3394 -0.0046
63570SOL    HW1 1024  12.725   6.358   2.685 -0.6686  0.8228 -0.2254
63570SOL    HW2 1025  12.808   6.308   2.569 -0.3355 -1.0062  0.7713
63571SOL     OW 1026   5.980  10.929   2.494  0.4374  0.0761 -0.1480
63571SOL    HW1 1027   5.933  10.911   2.413 -1.4074  0.3604  0.8246
63571SOL    HW2 1028   6.063  10.882   2.484 -0.2771 -0.9379 -1.6591
63572SOL     OW 1029  11.302   3.528   4.433 -0.7031  0.1480  0.4995
63572SOL    HW1 1030  11.211   3.531   4.402 -0.5670 -0.1327  0.0568
63572SOL    HW2 1031  11.342   3.458   4.382  0.1698  1.2816 -0.4389
63573SOL     OW 1032   8.742   0.631   9.326  0.0712 -0.4126 -0.1300
63573SOL    HW1 1033   8.785   0.693   9.384 -1.3641  0.6679 -0.1366
63573SOL    HW2 1034   8.803   0.558   9.318  0.3798 -0.5711  2.6386
63574SOL     OW 1035   2.604   7.579   9.042 -0.2569 -0.0909  0.4451
63574SOL    HW1 1036   2.560   7.664   9.049 -3.0247 -1.5704  3.6319
63574SOL    HW2 1037   2.660   7.575   9.120  0.3404 -0.9962 -0.0103
63575SOL     OW 1038   8.219   9.253   3.775 -0.1986 -0.2037  0.2528
63575SOL    HW1 1039   8.143   9.274   3.830 -0.9701 -0.9613 -0.5023
63575SOL    HW2 1040   8.204   9.302   3.694 -0.0628 -0.6191 -0.0275
63576SOL     OW 1041   9.025   1.016  11.736 -0.3619  0.8823  0.5654
63576SOL    HW1 1042   8.966   0.946  11.710 -1.8538  1.8540  1.1617
63576SOL    HW2 1043   9.092   1.018  11.668  0.1918 -1.5949  0.9382
63577SOL     OW 1044   1.375   5.980   0.017 -0.6373  0.4557 -0.2023
63577SOL    HW1 1045   1.382   6.036  -0.061 -0.9400  1.4777  0.4723
63577SOL    HW2 1046   1.426   5.902  -0.005 -0.4178  0.8750 -1.2877
63578SOL     OW 1047  11.904   4.674   7.583 -0.6305 -0.6803  0.6294
63578SOL    HW1 1048  11.987   4.722   7.582 -1.0815  0.1129  0.2612
63578SOL    HW2 1049  11.849   4.723   7.643 -0.8891 -1.1134  0.7497
63579SOL     OW 1050   1.814   2.233  11.590  0.2090  0.5396 -0.4952
63579SOL    HW1 1051   1.884   2.287  11.552 -0.8080  2.6161  0.4761
63579SOL    HW2 1052   1.736   2.256  11.540 -0.2776 -0.0057  0.0021
63580SOL     OW 1053  11.291   0.486  11.175  0.8203  0.1006  0.1324
63580SOL    HW1 1054  11.368   0.473  11.120  1.1343 -1.0544  0.7962
63580SOL    HW2 1055  11.251   0.566  11.142  2.4203  0.8485 -0.0916
63581SOL     OW 1056   7.088   9.714   9.053  0.0270 -0.0082  0.0664
63581SOL    HW1 1057   7.155   9.741   8.990  0.6750  0.2302  0.8407
63581SOL    HW2 1058   7.040   9.644   9.008  0.0701  0.5797 -0.9210
63582SOL     OW 1059   0.306  12.244   7.687  0.1493  0.0807 -0.3139
63582SOL    HW1 1060   0.279  12.327   7.648 -0.1334  0.3484  0.4416
63582SOL    HW2 1061   0.224  12.200   7.710  0.2705  0.8449  1.8750
63583SOL     OW 1062  11.603   5.440   1.322  0.2153 -0.0679 -0.6431
63583SOL    HW1 1063  11.651   5.522   1.332  0.1095  0.2392 -2.3772
63583SOL    HW2 1064  11.580   5.415   1.411  1.9367  0.7652  0.0859
63584SOL     OW 1065   3.510   1.498   0.190  0.3027 -0.6467  0.0737
63584SOL    HW1 1066   3.431   1.445   0.195  0.0540 -0.1287  3.0252
63584SOL    HW2 1067   3.486   1.573   0.136 -0.2658 -1.8863 -1.4991
63585SOL     OW 1068   9.014   6.502   8.532 -0.7082 -0.0290 -0.2358
63585SOL    HW1 1069   9.096   6.492   8.484 -0.1418  0.4899  0.6089
63585SOL    HW2 1070   9.035   6.478   8.622 -1.0029  1.8758  0.3939
63586SOL     OW 1071   2.464   0.605   0.764  0.3367  0.1713 -0.1516
63586SOL    HW1 1072   2.401   0.669   0.731 -0.3977 -1.1313 -1.4520
63586SOL    HW2 1073   2.421   0.567   0.841  0.3377  0.5527  0.0374
63587SOL     OW 1074   0.165  11.565   2.807  0.4509  0.6402 -0.5834
63587SOL    HW1 1075   0.145  11.474   2.784  1.8010  0.2448 -0.2918
63587SOL    HW2 1076   0.114  11.618   2.746 -0.7351 -0.3073 -0.4280
63588SOL     OW 1077   4.409   5.801  11.112  0.2148  0.0955 -0.0553
63588SOL    HW1 1078   4.412   5.895  11.131 -0.9983 -0.2559  2.1980
63588SOL    HW2 1079   4.465   5.761  11.178  0.2102 -0.8210 -0.5845
63589SOL     OW 1080   9.191   0.655   9.584  0.0420 -0.0559 -0.2123
63589SOL    HW1 1081   9.198   0.738   9.538 -1.0797 -1.1127 -2.4794
63589SOL    HW2 1082   9.259   0.600   9.546  0.3455 -0.4134  0.7962
63590SOL     OW 1083   3.175   7.829   0.671 -0.1863 -0.8128 -0.0356
63590SOL    HW1 1084   3.177   7.913   0.625 -0.6502 -0.4906  0.5184
63590SOL    HW2 1085   3.266   7.803   0.678 -0.0186 -0.2481 -0.0296
63591SOL     OW 1086   4.824  11.722   3.221  1.2064 -0.3074  0.1709
63591SOL    HW1 1087   4.873  11.721   3.303  3.4645 -0.4717 -1.0982
63591SOL    HW2 1088   4.891  11.726   3.153 -0.4786 -2.3502 -1.7716
63592SOL     OW 1089  12.238   6.434  10.771 -0.3930  0.4793  0.0978
63592SOL    HW1 1090  12.285   6.477  10.699 -1.9577  1.8984 -0.1426
63592SOL    HW2 1091  12.294   6.448  10.848  1.4222 -1.2848 -0.8167
63593SOL     OW 1092   0.126   4.834  11.694 -0.0290  0.3077  0.0886
63593SOL    HW1 1093   0.132   4.758  11.636  0.4516  0.1781  0.3033
63593SOL    HW2 1094   0.094   4.799  11.777  1.3156  0.1158  0.5643
63594SOL     OW 1095   7.780   2.877   0.281 -0.1833  0.2876 -0.4165
63594SOL    HW1 1096   7.706   2.911   0.333 -1.1094 -0.8835 -0.9294
63594SOL    HW2 1097   7.785   2.785   0.304  0.8454  0.2521 -0.7506
63595SOL     OW 1098   0.695   9.786  12.220 -0.3592  0.2200 -0.1509
63595SOL    HW1 1099   0.611   9.786  12.173 -0.7560 -0.6648  0.5254
63595SOL    HW2 1100   0.754   9.735  12.164 -1.6182 -3.4343  1.5381
63596SOL     OW 1101   9.707   7.371   2.460  0.2342  0.2274 -0.4983
63596SOL    HW1 1102   9.701   7.412   2.374 -0.3163 -1.6116 -1.3866
63596SOL    HW2 1103   9.643   7.299   2.457 -0.9855  1.0625  2.0181
63597SOL     OW 1104  11.656   3.762   9.503  0.5588 -0.5998 -0.3250
63597SOL    HW1 1105  11.690   3.673   9.490  0.1587 -0.5192 -2.0921
63597SOL    HW2 1106  11.561   3.751   9.505  0.5034 -0.1899 -0.7032
63598SOL     OW 1107   8.276   9.669   1.618 -0.5722 -0.3496  0.2772
63598SOL    HW1 1108   8.201   9.727   1.632  0.0413  0.8141 -1.0258
63598SOL    HW2 1109   8.351   9.719   1.650 -0.4727 -2.2802  3.4651
63599SOL     OW 1110  11.549   9.134   3.652  0.2495 -0.5281 -0.3426
63599SOL    HW1 1111  11.620   9.148   3.714  1.0191  0.2081 -1.3614
63599SOL    HW2 1112  11.493   9.211   3.661  0.5289 -0.2718 -0.7712
63600SOL     OW 1113   9.912   1.945   9.504 -0.3643  0.3016 -0.0073
63600SOL    HW1 1114   9.899   2.039   9.520  1.2696  0.2490  2.0690
63600SOL    HW2 1115  10.000   1.938   9.468  0.7192 -0.5799  2.5841
63601SOL     OW 1116  11.853   7.736   6.837  0.3081  0.4277  0.5779
63601SOL    HW1 1117  11.885   7.825   6.820  1.2966  0.1007  0.6819
63601SOL    HW2 1118  11.787   7.721   6.768  2.1086  0.2411 -1.2017
63602SOL     OW 1119   4.418   5.525   4.304  0.1695 -0.1643 -0.1979
63602SOL    HW1 1120   4.438   5.616   4.327  1.7930  0.0417 -2.1262
63602SOL    HW2 1121   4.354   5.532   4.234  1.1472 -0.4204 -1.1430
63603SOL     OW 1122   2.337   9.969   4.878 -0.1626 -0.4540  0.8047
63603SOL    HW1 1123   2.253   9.940   4.842 -0.0801 -0.1607  0.3672
63603SOL    HW2 1124   2.369  10.034   4.815 -0.3880  0.6561  1.7938
63604SOL     OW 1125   4.172   4.760   0.769 -0.0406 -0.4008  0.1786
63604SOL    HW1 1126   4.164   4.720   0.856  1.3923 -0.9197  0.1001
63604SOL    HW2 1127   4.196   4.851   0.786 -0.8105 -0.2134  0.3221
63605SOL     OW 1128   0.124   7.663   4.706 -0.2736  0.1621  0.0952
63605SOL    HW1 1129   0.164   7.665   4.620 -2.2356 -1.3945 -0.9348
63605SOL    HW2 1130   0.145   7.577   4.741  0.9760  0.9732  1.4774
63606SOL     OW 1131   6.410   3.972   8.008 -0.1259 -0.3240 -0.5412
63606SOL    HW1 1132   6.383   4.023   7.932  0.0862 -0.7678 -0.9156
63606SOL    HW2 1133   6.351   3.896   8.008 -0.7802  0.1593  0.3056
63607SOL     OW 1134   8.387  10.281   9.334  0.1088 -0.4347  0.7657
63607SOL    HW1 1135   8.458  10.251   9.278 -0.2205  0.0819  0.0643
63607SOL    HW2 1136   8.322  10.210   9.330  0.3827 -0.7025  1.0447
63608SOL     OW 1137   3.413   8.353   2.392  0.3354  0.4205  0.2889
63608SOL    HW1 1138   3.391   8.304   2.313 -1.2966  1.0838  0.2898
63608SOL    HW2 1139   3.403   8.445   2.367  1.0843  0.6810  0.9093
63609SOL     OW 1140   8.575   7.596   6.227 -0.1769  0.2029  0.5152
63609SOL    HW1 1141   8.625   7.656   6.172 -0.2814 -0.8810 -0.8134
63609SOL    HW2 1142   8.574   7.637   6.313  0.1931  1.8400 -0.2318
63610SOL     OW 1143  10.074   1.834   0.243 -0.2113  0.2668 -0.1849
63610SOL    HW1 1144  10.039   1.815   0.156 -1.0322  2.2943 -0.3432
63610SOL    HW2 1145  10.004   1.882   0.288  0.6086  0.2194  1.1945
63611SOL     OW 1146   0.729   3.018   0.179  0.5191 -0.2651  0.0892
63611SOL    HW1 1147   0.734   2.926   0.153  3.9544 -0.8228  2.0814
63611SOL    HW2 1148   0.732   3.015   0.275  0.4877  1.9273  0.2018
63612SOL     OW 1149   1.820   8.325   4.916 -0.1425 -0.3213 -0.1254
63612SOL    HW1 1150   1.803   8.247   4.969 -0.5221 -0.3278 -0.2573
63612SOL    HW2 1151   1.799   8.298   4.827  2.8597 -1.1098 -0.7214
63613SOL     OW 1152   3.518   8.288   8.168 -0.6947 -0.0301 -0.0093
63613SOL    HW1 1153   3.539   8.273   8.076 -2.2924 -1.3547 -0.2088
63613SOL    HW2 1154   3.481   8.376   8.170 -2.8694 -0.8360 -1.1215
63614SOL     OW 1155  10.696  10.375   5.601  0.3400 -0.5202  0.9873
63614SOL    HW1 1156  10.645  10.320   5.660 -2.2997  1.4849  0.7966
63614SOL    HW2 1157  10.757  10.422   5.658  0.8902 -1.7846  1.4677
63615SOL     OW 1158  11.292   0.158   4.633  0.1689  0.7826 -0.5128
63615SOL    HW1 1159  11.351   0.147   4.559  0.9563  0.6003  0.1265
63615SOL    HW2 1160  11.206   0.130   4.600  1.0143 -2.0551 -0.5935
63616SOL     OW 1161   2.590   6.747   1.561 -0.5376  0.2973 -0.0473
63616SOL    HW1 1162   2.554   6.832   1.584 -1.6123  0.6032 -2.5693
63616SOL    HW2 1163   2.640   6.720   1.638 -0.8978  2.7858  1.1306
63617SOL     OW 1164   6.878   9.999   6.716 -0.4023 -0.4150 -0.4623
63617SOL    HW1 1165   6.928   9.957   6.786 -0.8221  1.0981  0.8169
63617SOL    HW2 1166   6.943  10.020   6.649  0.3258 -0.2984  0.2679
63618SOL     OW 1167   5.924   0.766  10.718 -0.0236 -0.7399  0.1614
63618SOL    HW1 1168   5.992   0.782  10.783  0.3612  2.0741 -0.7683
63618SOL    HW2 1169   5.950   0.820  10.643 -0.8090 -3.3026 -2.1137
63619SOL     OW 1170   2.790   2.479  12.844 -0.2757  0.0534 -0.0706
63619SOL    HW1 1171   2.846   2.484  12.767 -0.8228  0.1670 -0.4664
63619SOL    HW2 1172   2.850   2.462  12.916  0.0594 -2.1774 -0.7947
63620SOL     OW 1173   6.662   3.545   7.982  0.1638  0.5532 -0.3205
63620SOL    HW1 1174   6.731   3.498   7.935  0.8539  1.5084 -0.2930
63620SOL    HW2 1175   6.597   3.478   8.002  1.1945 -0.4269 -0.1379
63621SOL     OW 1176   1.081   9.921   2.042 -0.6640 -0.4784  0.2827
63621SOL    HW1 1177   1.082   9.969   1.959 -0.9907 -0.7179  0.1319
63621SOL    HW2 1178   1.083   9.989   2.110  0.6079 -0.3063  0.0947
63622SOL     OW 1179   8.731   3.951   1.721  0.0447 -0.1871  0.2847
63622SOL    HW1 1180   8.702   3.904   1.800 -0.2442 -0.8414 -0.2018
63622SOL    HW2 1181   8.812   3.995   1.748  0.7747 -1.6208  0.5477
63623SOL     OW 1182   4.104  10.539   1.220  0.3842  0.5646  0.2452
63623SOL    HW1 1183   4.091  10.572   1.309  0.4452  0.4394  0.3009
63623SOL    HW2 1184   4.070  10.449   1.223  1.1756  0.2556  0.3750
63624SOL     OW 1185   2.845  10.122   2.878 -0.0782 -0.0954 -0.5479
63624SOL    HW1 1186   2.876  10.032   2.868 -0.1159 -0.2454  0.5913
63624SOL    HW2 1187   2.819  10.148   2.789  1.7051 -0.5390 -1.2418
63625SOL     OW 1188  10.826   0.505   4.619  0.1292  0.5234  0.4259
63625SOL    HW1 1189  10.737   0.533   4.596  0.1778 -0.0267 -0.4614
63625SOL    HW2 1190  10.817   0.471   4.708 -0.0710  2.6289  1.2720
63626SOL     OW 1191   1.216   9.450   4.671  0.5553  0.2578 -0.2410
63626SOL    HW1 1192   1.139   9.436   4.726 -0.2880 -0.9235 -1.6466
63626SOL    HW2 1193   1.211   9.543   4.646 -0.3906  0.2011 -0.2854
63627SOL     OW 1194   2.042   8.489   4.869  0.2265  0.5053 -0.0015
63627SOL    HW1 1195   2.082   8.429   4.805  0.4038  0.0472  0.5309
63627SOL    HW2 1196   1.955   8.451   4.886 -0.1802  1.1234 -0.6395
63628SOL     OW 1197   1.124   1.794   8.474  0.1918  0.1133  0.3722
63628SOL    HW1 1198   1.193   1.861   8.471 -0.1283  0.5587  1.9026
63628SOL    HW2 1199   1.169   1.713   8.449  2.1681 -0.2391  4.3318
63629SOL     OW 1200   5.063  12.205   1.933  0.3228  0.0144 -0.6981
63629SOL    HW1 1201   5.147  12.246   1.952  1.3467 -1.1274 -2.4911
63629SOL    HW2 1202   4.998  12.273   1.951  1.5960  0.8688  0.8510
63630SOL     OW 1203   1.213   0.476   3.748  0.1710 -1.1323  0.1451
63630SOL    HW1 1204   1.261   0.541   3.801  0.2376 -0.8115 -0.2990
63630SOL    HW2 1205   1.167   0.529   3.683  0.6986 -1.5659 -0.5973
63631SOL     OW 1206   7.066   4.279   6.819 -0.2639  0.2149 -0.1047
63631SOL    HW1 1207   7.147   4.306   6.775 -0.5166  0.6436 -0.3202
63631SOL    HW2 1208   7.077   4.185   6.834  0.1243  0.1979 -0.4568
63632SOL     OW 1209   4.044  11.581   0.846 -0.1602 -0.1365 -0.8545
63632SOL    HW1 1210   3.979  11.514   0.867  0.2253 -0.3901 -0.4557
63632SOL    HW2 1211   4.034  11.595   0.752 -0.8362 -0.1224 -0.7828
63633SOL     OW 1212   9.184   3.022   1.345 -0.2831 -0.0651  0.4359
63633SOL    HW1 1213   9.120   2.967   1.391  0.0518 -0.5289  0.3526
63633SOL    HW2 1214   9.185   2.989   1.256  1.1546 -1.0444  0.7916
63634SOL     OW 1215   3.821  10.370   2.766  0.0551 -0.0801 -0.2279
63634SOL    HW1 1216   3.742  10.412   2.733 -0.4906 -0.3045  0.7693
63634SOL    HW2 1217   3.823  10.391   2.859  1.0460 -0.2802 -0.1888
63635SOL     OW 1218   8.303  12.209   6.639  0.1887  0.8958 -0.6492
63635SOL    HW1 1219   8.375  12.262   6.604 -0.9089  2.6380 -0.3362
63635SOL    HW2 1220   8.256  12.267   6.698 -1.5362 -0.1920 -0.8941
63636SOL     OW 1221   3.797   8.869  10.585 -0.0815 -0.1492 -0.3817
63636SOL    HW1 1222   3.772   8.949  10.631  2.3294 -1.0813  2.9957
63636SOL    HW2 1223   3.878   8.892  10.539  0.4348 -0.4900  0.3270
63637SOL     OW 1224   2.420   2.737   9.796 -0.2141 -0.0501 -0.2189
63637SOL    HW1 1225   2.477   2.762   9.869 -1.0391 -2.3093  1.3275
63637SOL    HW2 1226   2.332   2.760   9.825 -0.5742 -1.1880 -0.3617
63638SOL     OW 1227   9.551   0.403   2.145 -0.6566 -0.1462 -0.3634
63638SOL    HW1 1228   9.507   0.341   2.088 -1.7867  0.6342 -0.3674
63638SOL    HW2 1229   9.480   0.447   2.193  0.0772  1.3970 -0.6303
63639SOL     OW 1230  10.131  12.721  10.293  0.2119 -0.4595 -0.2756
63639SOL    HW1 1231  10.107  12.805  10.331 -0.1490 -1.2128  1.2253
63639SOL    HW2 1232  10.200  12.742  10.230 -0.6786  1.0912 -0.7870
63640SOL     OW 1233   1.188   5.583   7.407 -0.0775 -0.3513  0.1807
63640SOL    HW1 1234   1.245   5.525   7.458  2.1969  1.2434 -0.4053
63640SOL    HW2 1235   1.243   5.612   7.334 -2.2293 -0.0626 -1.4062
63641SOL     OW 1236  12.173  10.709   2.904 -0.6900 -0.0921  0.7569
63641SOL    HW1 1237  12.236  10.692   2.974  0.9389 -1.6688 -0.9856
63641SOL    HW2 1238  12.155  10.623   2.866 -0.1476  0.8526 -1.8525
63642SOL     OW 1239  11.010   1.554   3.568 -0.5357  0.1065  0.2463
63642SOL    HW1 1240  10.937   1.557   3.629 -0.8010 -1.4530  0.0376
63642SOL    HW2 1241  11.019   1.462   3.545  2.8987 -0.1808  1.9489
63643SOL     OW 1242   7.785  10.370   4.029 -0.1628  0.3083  0.0006
63643SOL    HW1 1243   7.702  10.387   4.072  0.4371 -0.9646  1.7554
63643SOL    HW2 1244   7.851  10.395   4.094  0.7971 -0.4712 -0.6500
63644SOL     OW 1245   8.847   8.108   6.636 -0.1063 -0.3541  0.2942
63644SOL    HW1 1246   8.806   8.141   6.556 -0.4169 -1.4233 -0.0056
63644SOL    HW2 1247   8.938   8.137   6.630 -0.0821 -0.5663 -0.5404
63645SOL     OW 1248   9.777  10.921   6.218 -0.0150 -0.0795  0.3498
63645SOL    HW1 1249   9.704  10.955   6.270 -0.6374  0.2786 -0.7251
63645SOL    HW2 1250   9.833  10.996   6.202 -0.7823  0.2181 -1.0340
63646SOL     OW 1251   1.284  10.708   8.734 -0.0495  0.1230 -0.1859
63646SOL    HW1 1252   1.202  10.659   8.724 -2.0418  3.3601 -1.4297
63646SOL    HW2 1253   1.322  10.708   8.646  0.6192 -0.2402  0.0975
63647SOL     OW 1254  12.976  10.024   7.093  0.1681  0.3554  0.0943
63647SOL    HW1 1255  13.031  10.095   7.060  0.0577 -0.4877 -2.1194
63647SOL    HW2 1256  12.887  10.060   7.093  0.3504  0.8123  0.8689
63648SOL     OW 1257  10.033   2.143   1.186 -0.4348  0.3089  0.6156
63648SOL    HW1 1258  10.058   2.203   1.256 -0.5807  0.5252  0.4822
63648SOL    HW2 1259  10.006   2.063   1.232 -0.6201  0.4829  0.8122
63649SOL     OW 1260   1.894   2.114   2.757 -0.3928 -0.4827 -0.4646
63649SOL    HW1 1261   1.910   2.134   2.665 -2.0609  1.1133 -0.4629
63649SOL    HW2 1262   1.876   2.019   2.758 -0.8682 -0.4235 -1.8660
63650SOL     OW 1263  12.404   3.601   9.152 -0.0490 -0.1711  0.0500
63650SOL    HW1 1264  12.447   3.583   9.235  1.0743 -1.4806 -0.7725
63650SOL    HW2 1265  12.363   3.518   9.127 -1.4083  0.5345 -0.1350
63651SOL     OW 1266   9.053   6.422   4.674 -0.5897 -0.0687 -0.3819
63651SOL    HW1 1267   9.043   6.461   4.761 -0.7288 -0.6480 -0.1337
63651SOL    HW2 1268   9.142   6.389   4.672 -0.6240 -0.1597 -0.4175
63652SOL     OW 1269   5.148   8.349   9.414 -0.1361 -0.0397 -0.4844
63652SOL    HW1 1270   5.083   8.409   9.380 -0.4786 -1.0594 -1.7017
63652SOL    HW2 1271   5.124   8.264   9.377  0.8351 -0.7704  0.4898
63653SOL     OW 1272   8.594   4.002   8.338  0.5187  0.5923  0.0472
63653SOL    HW1 1273   8.630   4.082   8.302  1.0457  0.5780  0.5291
63653SOL    HW2 1274   8.553   4.028   8.421  1.3369  0.2573  0.5722
63654SOL     OW 1275   6.985   2.110   6.720 -0.3935  0.3408  0.5014
63654SOL    HW1 1276   6.958   2.023   6.748 -1.1507  0.2780 -0.3731
63654SOL    HW2 1277   6.943   2.122   6.634  1.6374  0.5960 -0.5251
63655SOL     OW 1278   8.473   3.497   3.438 -0.3203 -0.3457  0.2992
63655SOL    HW1 1279   8.403   3.453   3.486 -0.2480 -1.2309 -0.3846
63655SOL    HW2 1280   8.430   3.572   3.396 -2.0827 -3.4847 -4.1276
63656SOL     OW 1281   9.527   6.080   6.768  0.2888 -0.1101 -0.4013
63656SOL    HW1 1282   9.622   6.092   6.769  0.3230  0.1614 -2.3926
63656SOL    HW2 1283   9.497   6.140   6.700 -1.4662  0.6838  1.0089
63657SOL     OW 1284   1.426   2.036   2.768 -0.5962 -0.0087 -0.2581
63657SOL    HW1 1285   1.393   1.949   2.788  0.9039 -0.4586  0.3325
63657SOL    HW2 1286   1.349   2.093   2.776 -1.0184 -0.8327  2.3007
63658SOL     OW 1287   5.840  10.014   4.272  0.0384 -0.7447  0.6062
63658SOL    HW1 1288   5.930   9.992   4.296  0.8375  1.3669 -0.2223
63658SOL    HW2 1289   5.803  10.054   4.351  0.1315 -0.7845  0.6696
63659SOL     OW 1290   2.810   9.165  11.207 -0.9031  0.4784  0.1984
63659SOL    HW1 1291   2.790   9.225  11.135  2.7449  0.9287 -0.6789
63659SOL    HW2 1292   2.789   9.215  11.286  0.9118  2.5732 -0.5303
63660SOL     OW 1293   1.208  12.815   3.128  0.0431  0.5582  0.4726
63660SOL    HW1 1294   1.236  12.869   3.203  0.4564  2.0684 -0.7127
63660SOL    HW2 1295   1.148  12.751   3.166  0.1175  1.3779  2.0808
63661SOL     OW 1296  10.623   1.040   2.198 -0.2191 -0.0994  0.5301
63661SOL    HW1 1297  10.580   1.067   2.117  0.4369  0.2384  0.2810
63661SOL    HW2 1298  10.570   0.969   2.232 -1.3577  0.7501  0.5967
63662SOL     OW 1299   0.067   9.627  12.695 -0.6286 -0.0512  0.1181
63662SOL    HW1 1300   0.138   9.664  12.748  0.6398  0.6415 -1.9609
63662SOL    HW2 1301   0.017   9.573  12.756  0.4853  1.0590  2.1073
63663SOL     OW 1302   5.248  10.774   2.235  0.2464  0.3315 -0.2653
63663SOL    HW1 1303   5.271  10.838   2.168  0.3423  0.2361 -0.3256
63663SOL    HW2 1304   5.288  10.807   2.316 -1.2108  1.2780  0.0952
63664SOL     OW 1305   8.743   7.978   9.076  0.5344 -0.4587 -0.4261
63664SOL    HW1 1306   8.766   7.890   9.103  1.1138 -0.3074 -0.4195
63664SOL    HW2 1307   8.822   8.030   9.092  0.2465  0.0302 -0.5637
63665SOL     OW 1308   7.225   9.958   2.028  0.1795 -0.1465 -0.6138
63665SOL    HW1 1309   7.180   9.998   2.102  0.5568  0.9426 -0.9572
63665SOL    HW2 1310   7.299  10.016   2.011  1.1199 -1.3327 -0.7214
63666SOL     OW 1311   7.855   4.517   6.686  0.2543 -0.2942  0.1529
63666SOL    HW1 1312   7.821   4.604   6.706  0.4987  0.0625 -0.9009
63666SOL    HW2 1313   7.949   4.523   6.703  0.5069  0.0886 -1.2588
63667SOL     OW 1314   2.159   8.642   6.749  0.6490  0.3648 -0.4254
63667SOL    HW1 1315   2.249   8.611   6.739  1.1817  1.4816  0.6800
63667SOL    HW2 1316   2.146   8.652   6.843 -0.2672  1.2150 -0.6138
63668SOL     OW 1317   7.665   9.515   9.897  0.8145  0.1007  0.4421
63668SOL    HW1 1318   7.655   9.500   9.991  0.3013 -0.9129  0.2425
63668SOL    HW2 1319   7.579   9.493   9.860  0.8759  0.9123 -0.2239
63669SOL     OW 1320   3.856   3.869   4.132  0.1444 -0.1587 -0.5405
63669SOL    HW1 1321   3.888   3.925   4.061  0.2696  0.2790 -0.1433
63669SOL    HW2 1322   3.779   3.826   4.095 -0.3599  0.7985 -0.6331
63670SOL     OW 1323   9.730   1.247  10.620 -0.7954 -0.2083  0.3735
63670SOL    HW1 1324   9.660   1.251  10.685 -1.2735  2.6509 -0.1833
63670SOL    HW2 1325   9.688   1.271  10.537  0.3796 -0.8269 -0.4335
63671SOL     OW 1326   2.559   2.291   2.511 -0.2907 -0.3736 -0.1514
63671SOL    HW1 1327   2.527   2.367   2.463 -1.5128  0.8502  2.4232
63671SOL    HW2 1328   2.640   2.267   2.466 -0.3394  1.8474 -1.5883
63672SOL     OW 1329   3.210   2.219   1.220 -0.3531 -0.4376  0.2632
63672SOL    HW1 1330   3.249   2.133   1.237 -1.3775 -0.6780  1.5804
63672SOL    HW2 1331   3.126   2.200   1.179 -0.9506 -0.1260  1.2989
63673SOL     OW 1332   2.258   5.005   7.523 -0.2222 -0.4392  0.1112
63673SOL    HW1 1333   2.273   5.078   7.464 -0.5952  0.0819  0.6447
63673SOL    HW2 1334   2.183   4.959   7.487  0.9517 -1.4927 -1.0881
63674SOL     OW 1335  12.627   6.543   6.493 -0.1563 -0.2789  0.0044
63674SOL    HW1 1336  12.579   6.490   6.557  1.1009  0.6017  1.7663
63674SOL    HW2 1337  12.571   6.619   6.479  0.3260  0.3664  1.4433
63675SOL     OW 1338  10.148   1.729  12.645 -0.6499  0.0869  0.5807
63675SOL    HW1 1339  10.124   1.731  12.737 -0.4308 -0.7511  0.6639
63675SOL    HW2 1340  10.067   1.706  12.599 -0.9982  1.4572  0.4563
63676SOL     OW 1341  11.393   9.446   7.981 -0.0378  0.1386 -0.6312
63676SOL    HW1 1342  11.430   9.361   8.007  0.3221  1.3113  3.3638
63676SOL    HW2 1343  11.465   9.508   7.992 -0.9968  1.3342 -0.8668
63677SOL     OW 1344   1.948   9.497   1.989 -0.1509 -0.4555 -0.0765
63677SOL    HW1 1345   2.042   9.517   1.989  0.2135 -1.9151 -1.2459
63677SOL    HW2 1346   1.922   9.505   1.897 -1.1100 -0.3466  0.1938
63678SOL     OW 1347  12.036  11.564  10.026 -0.1772  0.4427  0.6978
63678SOL    HW1 1348  12.096  11.619   9.976  0.4746 -0.1833  0.7663
63678SOL    HW2 1349  12.087  11.536  10.102 -0.9494  0.8600  1.3802
63679SOL     OW 1350   0.267   0.716   2.938  0.6803 -0.8665 -0.5259
63679SOL    HW1 1351   0.332   0.777   2.975  0.9566  0.2787 -2.7355
63679SOL    HW2 1352   0.203   0.704   3.008  1.1246  1.2312  0.3253
63680SOL     OW 1353   7.355  11.897   3.899 -0.5052  0.1380 -0.0444
63680SOL    HW1 1354   7.411  11.963   3.939 -0.0015  0.2535 -0.9188
63680SOL    HW2 1355   7.269  11.912   3.937 -0.3048  1.0273  0.0702
63681SOL     OW 1356   0.634   7.834   2.535  0.6506  0.8232 -0.5196
63681SOL    HW1 1357   0.670   7.779   2.465  0.1982  0.0879 -0.1845
63681SOL    HW2 1358   0.548   7.861   2.502 -0.8272 -1.8477  0.8603
63682SOL     OW 1359   4.854  12.867   4.441 -0.4382  0.1716 -0.5109
63682SOL    HW1 1360   4.932  12.897   4.395  1.2738 -0.8717  1.5565
63682SOL    HW2 1361   4.882  12.854   4.531 -3.5015  1.5815  0.7975
63683SOL     OW 1362   3.851  12.830  11.207  0.4329  0.2773 -0.0648
63683SOL    HW1 1363   3.915  12.775  11.162  0.7766  1.1630 -0.6838
63683SOL    HW2 1364   3.782  12.770  11.233  1.4204 -0.6709  0.4469
63684SOL     OW 1365   2.203  12.017  12.360  0.3111 -0.5114  0.3446
63684SOL    HW1 1366   2.168  11.942  12.313  0.2852 -1.0227  1.1644
63684SOL    HW2 1367   2.288  12.034  12.318 -1.1834  1.2898 -2.2536
63685SOL     OW 1368   9.576   1.725   6.424 -0.0045  0.2423 -0.1261
63685SOL    HW1 1369   9.551   1.658   6.360 -0.8900 -0.5251  0.9949
63685SOL    HW2 1370   9.630   1.786   6.374 -0.2898 -0.5827 -1.4988
63686SOL     OW 1371   0.419  12.698   0.073 -0.6872 -0.1921  0.1736
63686SOL    HW1 1372   0.365  12.674   0.148  0.8836  0.1954  1.4984
63686SOL    HW2 1373   0.449  12.614   0.038  0.6758 -0.3659  1.6439
63687SOL     OW 1374   8.454   1.112   6.555  0.6453 -0.0097 -0.2903
63687SOL    HW1 1375   8.430   1.140   6.644  2.6349 -1.9936  0.9615
63687SOL    HW2 1376   8.545   1.139   6.545 -0.0625  1.8120 -2.5071
63688SOL     OW 1377   6.101  11.427   7.309 -0.0363  0.0601  0.2343
63688SOL    HW1 1378   6.096  11.459   7.399  1.5029 -0.0232  0.3841
63688SOL    HW2 1379   6.147  11.496   7.262 -2.6017  1.0321 -0.9999
63689SOL     OW 1380  10.684   5.291   2.228  0.3706 -0.3458  0.3323
63689SOL    HW1 1381  10.683   5.225   2.159 -0.6654  1.1701 -1.1876
63689SOL    HW2 1382  10.668   5.242   2.309  2.3058 -2.2617 -0.3635
63690SOL     OW 1383   4.424  11.365   7.875  0.0614  0.9670  0.4235
63690SOL    HW1 1384   4.460  11.359   7.786  1.0144  1.7313  0.7420
63690SOL    HW2 1385   4.362  11.438   7.870 -0.6246  0.3819  0.1592
63691SOL     OW 1386   6.882  11.170   2.061 -0.1563  0.7022  0.4504
63691SOL    HW1 1387   6.851  11.101   2.002 -0.1454  1.5398 -0.5587
63691SOL    HW2 1388   6.977  11.165   2.055 -0.1393  0.1773  1.1259
63692SOL     OW 1389   2.940  10.589  10.254  0.0265 -0.1408 -0.1044
63692SOL    HW1 1390   2.897  10.611  10.337 -3.1349 -0.0117 -1.6462
63692SOL    HW2 1391   2.976  10.672  10.223  1.1833 -0.1771  1.0369
63693SOL     OW 1392  11.774   9.752   0.932  0.0484 -0.4299 -0.1383
63693SOL    HW1 1393  11.779   9.726   1.024 -2.0482  0.3120  0.2490
63693SOL    HW2 1394  11.681   9.747   0.911  0.3911  0.2258 -1.9840
63694SOL     OW 1395   5.293   1.474   3.993  0.1518  0.8152 -0.4461
63694SOL    HW1 1396   5.235   1.530   3.942  0.5490 -1.2425 -3.4037
63694SOL    HW2 1397   5.381   1.503   3.969  0.3387  0.0286 -0.7482
63695SOL     OW 1398   1.109   1.722   6.903 -0.2135 -0.0176 -0.1915
63695SOL    HW1 1399   1.163   1.800   6.919 -1.0898  0.4701  0.5117
63695SOL    HW2 1400   1.129   1.698   6.812 -0.3314  1.3647 -0.6175
63696SOL     OW 1401   2.190  12.009  12.925 -0.2186 -0.3271 -0.1741
63696SOL    HW1 1402   2.198  11.964  12.841 -1.3579  2.7843 -2.1708
63696SOL    HW2 1403   2.137  12.087  12.904 -1.2308  0.1894  3.6385
63697SOL     OW 1404   5.805   4.224   5.776 -0.4637  0.2136  0.3900
63697SOL    HW1 1405   5.717   4.211   5.741  0.6190 -0.4562 -2.3745
63697SOL    HW2 1406   5.847   4.283   5.713  1.3421 -0.1986  1.1518
63698SOL     OW 1407   6.409   2.110   1.521  0.1943  0.5891  0.3871
63698SOL    HW1 1408   6.337   2.099   1.459 -0.3646  2.4913  0.6342
63698SOL    HW2 1409   6.418   2.025   1.562 -1.5185  0.1293 -0.0970
63699SOL     OW 1410  12.235   4.194   1.671  0.1588 -0.3013  0.0524
63699SOL    HW1 1411  12.146   4.217   1.644 -0.3179 -1.3968  0.6414
63699SOL    HW2 1412  12.285   4.275   1.660 -0.9012  0.3209 -0.3118
63700SOL     OW 1413   8.277   7.621   6.864 -0.4231  0.0074  0.6210
63700SOL    HW1 1414   8.282   7.703   6.914 -1.1807  1.0839 -1.0084
63700SOL    HW2 1415   8.186   7.593   6.872 -0.2658 -0.4661  0.8190
63701SOL     OW 1416   3.735   7.329   7.970 -0.0549 -0.1557  0.1724
63701SOL    HW1 1417   3.741   7.349   7.876 -0.6935  4.0420  0.8339
63701SOL    HW2 1418   3.642   7.312   7.985 -0.0040 -0.4741  0.1503
63702SOL     OW 1419   4.894   3.157  10.959  0.2959  0.0665 -0.1054
63702SOL    HW1 1420   4.958   3.116  10.901 -0.1535 -0.2396 -0.3925
63702SOL    HW2 1421   4.817   3.099  10.955  0.0096  0.4165  0.2477
63703SOL     OW 1422   2.650   5.689   8.831  0.2390 -0.0383 -0.3777
63703SOL    HW1 1423   2.679   5.745   8.904 -0.4078 -0.5621  0.2888
63703SOL    HW2 1424   2.690   5.604   8.849  0.3694 -0.0800 -0.8420
63704SOL     OW 1425   8.871   2.280   3.301 -0.0043  0.0257  0.3129
63704SOL    HW1 1426   8.784   2.265   3.339  0.1987 -0.6666  0.5214
63704SOL    HW2 1427   8.856   2.344   3.231 -0.4014  1.2157  1.4582
63705SOL     OW 1428   9.224   4.401   2.599 -0.1732  0.0693 -0.4398
63705SOL    HW1 1429   9.144   4.349   2.605  0.4654 -0.8727  0.1826
63705SOL    HW2 1430   9.280   4.367   2.669  0.7726  0.6995 -0.8721
63706SOL     OW 1431  12.820   5.804  12.424  0.3044  0.1011  0.3622
63706SOL    HW1 1432  12.841   5.795  12.517  1.3468  0.3562  0.1682
63706SOL    HW2 1433  12.779   5.720  12.401  0.1177  0.0011  1.0240
63707SOL     OW 1434  10.238   9.219   5.822 -0.1369  0.1022 -0.0753
63707SOL    HW1 1435  10.218   9.288   5.885 -3.1142 -0.7427  0.0740
63707SOL    HW2 1436  10.188   9.244   5.743  0.6013 -0.7187 -0.8202
63708SOL     OW 1437   3.454   7.080   1.400  0.2733  0.1816 -0.0076
63708SOL    HW1 1438   3.511   7.100   1.326  0.0704  0.7027 -0.0300
63708SOL    HW2 1439   3.392   7.153   1.403 -1.4604 -1.1685 -1.0228
63709SOL     OW 1440   1.229   1.163   2.085  0.3138  0.2046 -0.4119
63709SOL    HW1 1441   1.143   1.122   2.095  0.6929 -0.7028 -0.6935
63709SOL    HW2 1442   1.285   1.115   2.146  0.1245  2.3985  1.5906
63710SOL     OW 1443   2.137   7.252  11.810  0.0449  0.5695  0.5574
63710SOL    HW1 1444   2.105   7.246  11.900 -1.0762 -0.2058  0.1333
63710SOL    HW2 1445   2.229   7.226  11.816  0.1773  1.2185  1.5729
63711SOL     OW 1446   8.683  12.241   4.895 -0.2318 -0.5325 -0.3875
63711SOL    HW1 1447   8.610  12.216   4.839  1.3765  0.1135 -2.9633
63711SOL    HW2 1448   8.755  12.184   4.868  1.0088  0.8154 -0.0800
63712SOL     OW 1449   2.809  10.466   3.436  0.2920 -0.2046  0.5957
63712SOL    HW1 1450   2.764  10.392   3.396 -0.0469 -0.0688  0.7184
63712SOL    HW2 1451   2.753  10.541   3.417 -0.4131 -0.2949  2.1905
63713SOL     OW 1452   5.071   8.800   2.882 -1.1665 -0.1848 -0.1438
63713SOL    HW1 1453   4.996   8.844   2.922 -1.3278 -0.6101  0.0228
63713SOL    HW2 1454   5.034   8.750   2.809 -1.3289 -1.8590  1.0424
63714SOL     OW 1455   1.079   4.077   1.746 -0.0891 -0.4142 -0.0548
63714SOL    HW1 1456   1.048   4.006   1.690 -2.2651 -0.0400  0.5605
63714SOL    HW2 1457   1.094   4.151   1.687 -1.1606 -0.3953 -0.3225
63715SOL     OW 1458   1.054   0.818   9.305  0.9909  0.2014 -0.3806
63715SOL    HW1 1459   1.114   0.853   9.239  0.3647  1.4432 -0.3155
63715SOL    HW2 1460   1.112   0.778   9.371  1.6772  0.1858 -0.9863
63716SOL     OW 1461   5.641  10.679   2.465  0.3065 -0.2947  0.1628
63716SOL    HW1 1462   5.555  10.663   2.427  0.4763 -0.2266 -0.2689
63716SOL    HW2 1463   5.683  10.593   2.465  0.8669 -0.0641 -1.2610
63717SOL     OW 1464  10.032  12.021   4.807 -0.6948  0.4775  0.4235
63717SOL    HW1 1465  10.000  11.937   4.775  0.3470  0.7411 -1.4531
63717SOL    HW2 1466  10.066  12.001   4.895 -1.5330 -0.7942  0.4884
63718SOL     OW 1467  10.804   0.854  10.593  0.6871  0.2147 -0.1381
63718SOL    HW1 1468  10.717   0.815  10.600 -0.0265  1.8678  0.7042
63718SOL    HW2 1469  10.856   0.808  10.659 -0.0764  0.4957  0.6837
63719SOL     OW 1470  11.112   3.678   3.167  0.3027  0.0882  0.0932
63719SOL    HW1 1471  11.061   3.617   3.114  1.6293 -0.0146 -1.1105
63719SOL    HW2 1472  11.187   3.700   3.113  0.1912  2.3206  0.7479
63720SOL     OW 1473  11.655   6.169   1.889  0.5763 -0.2417 -0.2675
63720SOL    HW1 1474  11.588   6.186   1.823 -1.4234 -0.3688  1.5940
63720SOL    HW2 1475  11.688   6.082   1.869  0.1456 -0.1924 -1.2085
63721SOL     OW 1476   1.045  10.913   2.341 -0.0827  0.5329 -0.1706
63721SOL    HW1 1477   1.006  10.872   2.264  0.7627  0.5222 -0.6080
63721SOL    HW2 1478   1.016  10.859   2.414 -3.4517  2.2740 -0.0321
63722SOL     OW 1479   0.466   7.798   9.598 -0.1112  0.1523 -0.2907
63722SOL    HW1 1480   0.377   7.834   9.605  0.2428  0.9761  0.1645
63722SOL    HW2 1481   0.465   7.747   9.517 -1.5494 -1.4841  0.6844
63723SOL     OW 1482  12.799  11.779   5.993  0.0111  0.3098 -0.0658
63723SOL    HW1 1483  12.830  11.850   6.049 -0.6040 -0.6856  1.5961
63723SOL    HW2 1484  12.748  11.823   5.924 -1.0112  1.4519  1.3601
63724SOL     OW 1485   1.760  10.502   2.008  0.0915  0.1317 -0.3394
63724SOL    HW1 1486   1.681  10.448   2.005  0.3660 -0.2382 -2.5493
63724SOL    HW2 1487   1.729  10.591   1.990 -0.0354  0.3216  0.7446
63725SOL     OW 1488   4.924   3.245  12.564  0.2244 -0.3646  0.3765
63725SOL    HW1 1489   4.900   3.160  12.529 -1.5343 -0.0648  0.7632
63725SOL    HW2 1490   4.914   3.236  12.659  0.6020  0.1115  0.4710
63726SOL     OW 1491  10.731  11.220  11.322 -0.0125  0.1046 -0.5793
63726SOL    HW1 1492  10.766  11.209  11.410 -1.8215 -1.6099  0.0101
63726SOL    HW2 1493  10.706  11.312  11.317  1.0444  0.4653  0.3079
63727SOL     OW 1494   8.424   0.535  11.053  0.7219 -0.3201 -0.3554
63727SOL    HW1 1495   8.386   0.544  10.965  0.0550  1.0718  0.0442
63727SOL    HW2 1496   8.488   0.606  11.059 -0.1956  0.4673  0.7234
63728SOL     OW 1497  12.132   3.510  12.011 -0.5641  0.3957 -0.3917
63728SOL    HW1 1498  12.176   3.474  12.087 -1.4605  0.1319  0.0213
63728SOL    HW2 1499  12.091   3.434  11.969 -1.1770  0.7198 -0.3891
63729SOL     OW 1500   5.615   8.835   3.472  0.3196 -0.1316  0.4539
63729SOL    HW1 1501   5.623   8.810   3.564 -1.9328 -0.7035  0.5538
63729SOL    HW2 1502   5.601   8.753   3.426  0.6330  0.2289 -0.3029
63730SOL     OW 1503  10.567   4.647   7.350 -0.0495 -0.0085 -0.4703
63730SOL    HW1 1504  10.615   4.647   7.267  1.8389 -2.5429  0.4943
63730SOL    HW2 1505  10.528   4.560   7.355  0.2755 -0.0831  1.4884
63731SOL     OW 1506  10.704  12.541   4.826  0.3018 -0.1802 -0.3713
63731SOL    HW1 1507  10.768  12.605   4.858  1.7737 -1.8163  0.0982
63731SOL    HW2 1508  10.753  12.459   4.821 -1.2847 -1.0874 -1.8536
63732SOL     OW 1509   9.134   9.924   8.955 -0.1901 -0.1669 -0.3404
63732SOL    HW1 1510   9.113   9.981   8.880 -0.3548  2.0580  1.2793
63732SOL    HW2 1511   9.194   9.858   8.919 -0.2545  0.8222 -2.4205
63733SOL     OW 1512  11.826   8.151   7.685  0.4001 -0.1281 -0.7259
63733SOL    HW1 1513  11.857   8.241   7.685  0.4395 -0.1416 -1.1305
63733SOL    HW2 1514  11.807   8.131   7.594 -0.7186 -0.1504 -0.5020
63734SOL     OW 1515  10.663   2.083   6.721 -0.4365 -0.0733  0.3600
63734SOL    HW1 1516  10.658   1.989   6.703  0.9806 -0.4329  1.5861
63734SOL    HW2 1517  10.671   2.123   6.635 -0.6074 -1.1148 -0.1635
63735SOL     OW 1518  12.737  10.639   5.726 -0.3907 -0.4690 -0.2818
63735SOL    HW1 1519  12.784  10.721   5.738 -0.1381 -0.2714 -2.3860
63735SOL    HW2 1520  12.667  10.642   5.792  0.2546  0.9349  0.3822
63736SOL     OW 1521   9.341   1.755   6.953  0.6379  0.2064  0.1027
63736SOL    HW1 1522   9.293   1.746   6.870  0.8860  0.0211 -0.0218
63736SOL    HW2 1523   9.372   1.846   6.953 -0.5383  0.6312  0.6371
63737SOL     OW 1524   1.739   6.560   6.339  0.0427  0.1269 -0.3276
63737SOL    HW1 1525   1.688   6.639   6.361  0.5010  0.2773  0.2156
63737SOL    HW2 1526   1.704   6.493   6.398  0.3532  0.1898 -0.0672
63738SOL     OW 1527   1.864  11.702   0.380 -0.2232  0.0535 -0.1514
63738SOL    HW1 1528   1.801  11.680   0.449 -0.8860 -0.8018 -1.0141
63738SOL    HW2 1529   1.816  11.759   0.321  0.7539  1.9427  0.7641
63739SOL     OW 1530   6.690  12.932   4.653  0.1784  0.0623  0.3983
63739SOL    HW1 1531   6.636  12.888   4.719 -1.5762  0.9368 -0.3943
63739SOL    HW2 1532   6.730  13.005   4.700 -2.7096  1.9507  0.1239
63740SOL     OW 1533   4.828   9.540   8.216  0.2388  0.2559 -0.4121
63740SOL    HW1 1534   4.853   9.549   8.308  0.4641 -1.7849 -0.2371
63740SOL    HW2 1535   4.887   9.474   8.181 -1.7303 -1.1562 -1.2609
63741SOL     OW 1536  11.225   5.801   0.860 -0.1831 -0.3240 -0.0390
63741SOL    HW1 1537  11.144   5.779   0.813  1.0331 -1.9284 -1.5116
63741SOL    HW2 1538  11.229   5.738   0.932 -0.4627  0.0640  0.3207
63742SOL     OW 1539   9.520   7.081   0.005  0.2147 -0.9231 -0.3202
63742SOL    HW1 1540   9.454   7.136   0.048 -0.4821 -0.3458 -2.0548
63742SOL    HW2 1541   9.525   7.003   0.060  0.1015  0.2006  1.3485
63743SOL     OW 1542   0.362   9.858  10.964  0.5282 -0.2328  0.6426
63743SOL    HW1 1543   0.452   9.839  10.938 -0.3247 -1.8617 -1.4582
63743SOL    HW2 1544   0.316   9.871  10.882 -1.2413  0.1412  1.6525
63744SOL     OW 1545   3.444   4.835   3.779  0.1157  0.1972  0.8173
63744SOL    HW1 1546   3.459   4.929   3.774 -0.3921  0.2357 -0.2664
63744SOL    HW2 1547   3.470   4.802   3.693 -0.7583 -0.4863  0.8025
63745SOL     OW 1548   0.672   9.829  12.687 -0.4450 -0.3650  0.3717
63745SOL    HW1 1549   0.680   9.758  12.624  1.8482 -2.0075  2.3263
63745SOL    HW2 1550   0.729   9.898  12.652  0.1783 -0.9427  0.2147
63746SOL     OW 1551   1.948   6.207   6.093 -0.1268 -0.2627  0.4003
63746SOL    HW1 1552   1.856   6.228   6.076  0.7717  2.9561 -1.2346
63746SOL    HW2 1553   1.986   6.193   6.007  1.1681 -0.3988  0.9769
63747SOL     OW 1554   8.278   5.444   6.278  0.5934 -0.1779  0.3331
63747SOL    HW1 1555   8.247   5.507   6.343 -0.6353 -0.2981 -0.0996
63747SOL    HW2 1556   8.370   5.466   6.265  0.6141  0.4518  1.4074
63748SOL     OW 1557   5.932  12.644  11.425 -0.2176  0.5447 -0.4569
63748SOL    HW1 1558   5.910  12.696  11.348  0.4187  1.8216  0.1899
63748SOL    HW2 1559   5.865  12.666  11.489  0.2512  0.8636 -0.0619
63749SOL     OW 1560   0.880   8.261   1.166  1.0124  0.5582 -0.1655
63749SOL    HW1 1561   0.812   8.213   1.213 -0.0406  0.1710 -1.9806
63749SOL    HW2 1562   0.962   8.224   1.197  0.3324 -0.1609  0.8127
63750SOL     OW 1563   3.689   1.101   2.155  0.9792 -0.3812  0.5906
63750SOL    HW1 1564   3.700   1.174   2.215  1.5588 -0.0487  0.0955
63750SOL    HW2 1565   3.737   1.127   2.076 -0.1255 -0.6129 -0.1881
63751SOL     OW 1566   6.361   0.556  11.221  0.3143  0.1746 -0.4360
63751SOL    HW1 1567   6.300   0.483  11.235  1.9396 -1.2175 -0.3204
63751SOL    HW2 1568   6.306   0.627  11.188 -1.4366 -0.8704  0.1007
63752SOL     OW 1569   0.542  12.962   7.568 -0.5301  0.5105 -0.1868
63752SOL    HW1 1570   0.521  12.909   7.644  1.8604  0.1076  0.2818
63752SOL    HW2 1571   0.458  12.998   7.539 -1.7191 -0.6977  1.5864
63753SOL     OW 1572   1.646   4.327   0.903 -0.3148 -0.4016 -0.0243
63753SOL    HW1 1573   1.609   4.314   0.815 -2.2169 -2.1344  0.9522
63753SOL    HW2 1574   1.582   4.383   0.947  0.2811 -0.1179  0.4898
63754SOL     OW 1575   1.218   0.350   1.565  0.0605 -1.0931  0.0247
63754SOL    HW1 1576   1.302   0.341   1.519  0.7218  0.8488  0.7475
63754SOL    HW2 1577   1.230   0.300   1.646 -0.4011 -2.8736 -0.9671
63755SOL     OW 1578  11.275  10.763   7.552 -0.1980 -0.1407 -0.2460
63755SOL    HW1 1579  11.269  10.758   7.457  0.7421  0.4852 -0.3522
63755SOL    HW2 1580  11.219  10.693   7.584  0.5599 -1.2416 -1.2795
63756SOL     OW 1581   1.442   6.906   5.305 -0.2782 -0.2613 -0.0114
63756SOL    HW1 1582   1.515   6.957   5.271  0.2751 -0.5037  0.7782
63756SOL    HW2 1583   1.399   6.870   5.227  1.5618 -1.6409 -0.4484
63757SOL     OW 1584   5.825   5.247   2.004  0.3604 -0.1762 -0.1727
63757SOL    HW1 1585   5.818   5.297   2.086  0.7960 -0.7154  0.2020
63757SOL    HW2 1586   5.898   5.289   1.957  0.7101 -0.4406  0.1306
63758SOL     OW 1587   5.219   9.230   0.709  0.9495 -0.0387  0.2068
63758SOL    HW1 1588   5.169   9.303   0.745  0.7228  0.6951 -1.5282
63758SOL    HW2 1589   5.163   9.193   0.641  1.7261 -0.8325 -0.0205
63759SOL     OW 1590  12.850   1.115   5.505  0.2754  0.5532  0.5184
63759SOL    HW1 1591  12.820   1.185   5.447 -0.8153 -0.0933  0.2601
63759SOL    HW2 1592  12.779   1.105   5.568  0.2498 -0.5578  0.3295
63760SOL     OW 1593   9.422  11.865  12.674 -0.1352 -0.4337 -0.0992
63760SOL    HW1 1594   9.381  11.948  12.652 -0.5537 -0.9042 -1.1625
63760SOL    HW2 1595   9.350  11.801  12.672  0.5646 -1.2192 -1.7042
63761SOL     OW 1596  11.257  10.899   6.367  0.0820  0.4966 -0.6552
63761SOL    HW1 1597  11.343  10.857   6.366  0.2021  0.7514 -2.2051
63761SOL    HW2 1598  11.255  10.946   6.451  0.8748 -0.6498  0.0324
63762SOL     OW 1599   0.613   7.057   8.221  0.6060  0.5133 -0.1559
63762SOL    HW1 1600   0.649   7.095   8.141  3.8038 -1.9463 -0.0609
63762SOL    HW2 1601   0.592   6.967   8.198 -0.5708  0.4024  1.2324
63763SOL     OW 1602   0.058   3.438   3.545  0.2105  0.2178 -0.5611
63763SOL    HW1 1603   0.152   3.422   3.548 -0.1023 -2.2289 -1.5124
63763SOL    HW2 1604   0.047   3.525   3.585  2.7642  0.2614  0.2229
63764SOL     OW 1605   8.774   8.173   1.095  0.0087 -0.3915  0.6858
63764SOL    HW1 1606   8.839   8.140   1.033 -0.8548 -1.4944  0.3417
63764SOL    HW2 1607   8.817   8.248   1.137  1.6336 -1.3087  0.7375
63765SOL     OW 1608   6.494  10.636   2.737 -0.1166  0.3108 -0.4510
63765SOL    HW1 1609   6.524  10.547   2.754  0.9104  0.9795  1.4701
63765SOL    HW2 1610   6.564  10.676   2.685  1.2085  1.0546  1.7793
63766SOL     OW 1611   0.541   6.602  12.618  0.1450 -0.0940 -0.1244
63766SOL    HW1 1612   0.583   6.517  12.634  0.3405 -0.0613 -0.4558
63766SOL    HW2 1613   0.516   6.633  12.705  2.7048  0.8747  0.3636
63767SOL     OW 1614   7.076   8.222   3.578  0.1224 -0.6176  0.0439
63767SOL    HW1 1615   7.154   8.169   3.564  0.1604 -1.5594  3.1052
63767SOL    HW2 1616   7.095   8.273   3.657 -1.5645  0.7729 -0.3692
63768SOL     OW 1617   6.504   6.214   1.825 -0.5983 -0.4459 -0.4706
63768SOL    HW1 1618   6.412   6.229   1.807 -0.7806  1.4213  1.5457
63768SOL    HW2 1619   6.505   6.142   1.888 -0.7970  0.2829  0.3832
63769SOL     OW 1620  10.254  12.202  11.339  0.2331  0.1146  0.4162
63769SOL    HW1 1621  10.199  12.241  11.407  1.4803 -0.1311  1.6116
63769SOL    HW2 1622  10.250  12.107  11.356 -0.8829 -0.1222 -0.9955
63770SOL     OW 1623  11.339   0.316   2.036 -0.9592 -0.2759 -0.1442
63770SOL    HW1 1624  11.330   0.410   2.053 -0.4260  0.1699 -2.1126
63770SOL    HW2 1625  11.357   0.310   1.942  0.5375 -2.2584  0.2195
63771SOL     OW 1626   8.973   9.168   9.987 -0.4895 -1.1853 -0.2937
63771SOL    HW1 1627   9.058   9.145  10.025  0.9082  3.1112 -0.3371
63771SOL    HW2 1628   8.989   9.174   9.893 -0.8057 -0.3984 -0.3086
63772SOL     OW 1629  12.118   0.660   6.195 -0.5278 -0.2647  0.1961
63772SOL    HW1 1630  12.111   0.685   6.287 -1.1582 -0.1899  0.1351
63772SOL    HW2 1631  12.158   0.735   6.152  1.6242 -1.0405  0.7150
63773SOL     OW 1632   6.912   2.085  10.663 -0.5910  0.6062  0.0313
63773SOL    HW1 1633   6.878   2.172  10.683 -0.8774  0.5346 -0.1479
63773SOL    HW2 1634   6.921   2.084  10.568 -0.8675  0.3358  0.0063
63774SOL     OW 1635   3.333   5.454   9.380  0.2548  0.5052  0.1400
63774SOL    HW1 1636   3.377   5.470   9.296 -0.9982  0.1585 -0.6163
63774SOL    HW2 1637   3.264   5.390   9.359 -1.5017  2.0278  0.9458
63775SOL     OW 1638   9.917   9.142   0.593 -0.7117  0.8213 -0.2775
63775SOL    HW1 1639   9.919   9.178   0.682  0.5618  0.1462 -0.0028
63775SOL    HW2 1640   9.963   9.058   0.601 -1.6419  0.1953 -1.3451
63776SOL     OW 1641   9.712   1.742  10.762 -0.5280  0.1492 -0.5400
63776SOL    HW1 1642   9.671   1.675  10.707  0.1222 -0.1962 -0.6098
63776SOL    HW2 1643   9.718   1.702  10.849 -3.3094  1.3754  0.3131
63777SOL     OW 1644   6.336  11.643   9.359  0.3553  0.0583  0.2604
63777SOL    HW1 1645   6.410  11.635   9.300  0.1353  0.8904 -0.1312
63777SOL    HW2 1646   6.308  11.552   9.375  1.1846 -0.2309  0.0836
63778SOL     OW 1647   6.580   8.224  10.761 -0.4451  0.0512 -0.4898
63778SOL    HW1 1648   6.642   8.288  10.727  0.1116  0.1449  0.6568
63778SOL    HW2 1649   6.529   8.196  10.684 -0.1802  1.2829 -1.1326
63779SOL     OW 1650   6.486  11.285   0.001 -0.3708 -0.1412 -0.5005
63779SOL    HW1 1651   6.560  11.235  -0.035 -0.5797 -1.0063  0.2306
63779SOL    HW2 1652   6.528  11.355   0.051 -0.0337 -0.5361 -0.2144
63780SOL     OW 1653   1.031   6.007   7.161  0.3839  0.3777  0.1388
63780SOL    HW1 1654   1.120   5.972   7.162  0.8771  1.3561 -1.9828
63780SOL    HW2 1655   1.043   6.102   7.162 -0.6675  0.5234  0.3260
63781SOL     OW 1656   9.222   7.081   5.222  0.3317  0.3668  0.7571
63781SOL    HW1 1657   9.247   6.994   5.254  1.1699  0.2502 -0.1603
63781SOL    HW2 1658   9.220   7.136   5.300  1.7880 -0.0326  1.1005
63782SOL     OW 1659   0.886   8.520   1.326  0.0606 -0.3097  0.3396
63782SOL    HW1 1660   0.931   8.475   1.255 -0.7109 -0.9642  0.2528
63782SOL    HW2 1661   0.824   8.455   1.360 -1.0147  0.6437  0.2744
63783SOL     OW 1662   2.310   2.607   1.952 -0.4751 -0.1979  0.4620
63783SOL    HW1 1663   2.328   2.520   1.917 -3.5018 -0.8590  0.3424
63783SOL    HW2 1664   2.385   2.626   2.009  2.6180 -0.8259 -2.9657
63784SOL     OW 1665  10.211   7.044   1.612 -0.1226 -0.0771  0.1929
63784SOL    HW1 1666  10.124   7.015   1.585 -0.7273  1.0683  0.8583
63784SOL    HW2 1667  10.264   7.039   1.532 -1.0660  0.1939 -0.4633
63785SOL     OW 1668   2.370   4.756   4.598  0.7561  0.1090 -0.1809
63785SOL    HW1 1669   2.279   4.756   4.568  0.6632 -1.0789  0.0772
63785SOL    HW2 1670   2.373   4.693   4.669  1.7941  0.1131 -0.1980
63786SOL     OW 1671   9.271   8.556   9.239  0.0098  0.3077 -0.0988
63786SOL    HW1 1672   9.340   8.604   9.194 -0.3922  0.9211 -0.0697
63786SOL    HW2 1673   9.260   8.602   9.322  0.7970 -0.8584  0.6890
63787SOL     OW 1674   6.397   9.737   3.805 -0.4884  0.8232 -0.1293
63787SOL    HW1 1675   6.401   9.832   3.815  0.9000  1.0237 -2.0315
63787SOL    HW2 1676   6.478   9.714   3.761 -1.0196 -1.1983 -0.1434
63788SOL     OW 1677   2.448   7.562   1.992  0.4245 -0.4931  0.2981
63788SOL    HW1 1678   2.492   7.646   2.005  1.3836 -1.1895  1.9042
63788SOL    HW2 1679   2.378   7.581   1.930  1.8371  1.0656 -0.9177
63789SOL     OW 1680   8.973   7.195   1.114 -0.1516  0.9083 -0.3281
63789SOL    HW1 1681   9.001   7.138   1.043  1.0871  1.1148 -0.0314
63789SOL    HW2 1682   9.054   7.214   1.163 -0.5788  2.6117 -0.2051
63790SOL     OW 1683  12.017  10.079   7.715  0.1533  0.2157  0.7498
63790SOL    HW1 1684  11.998   9.992   7.680 -0.3377 -0.0294  1.6218
63790SOL    HW2 1685  11.932  10.122   7.720  0.4710  1.0364 -0.3884
63791SOL     OW 1686  10.666   0.818   6.397 -0.4742 -0.0572 -0.6551
63791SOL    HW1 1687  10.704   0.890   6.447 -0.0597 -1.7754  1.6584
63791SOL    HW2 1688  10.684   0.841   6.305  1.1521  1.9059  0.0697
63792SOL     OW 1689   2.412   7.775   4.703 -0.0489  0.0764  0.2207
63792SOL    HW1 1690   2.421   7.852   4.758  1.3625 -1.3444  2.1374
63792SOL    HW2 1691   2.396   7.703   4.764 -0.3398 -1.3065 -1.3889
63793SOL     OW 1692   7.716   7.696   2.240  0.5813 -0.8228  0.1318
63793SOL    HW1 1693   7.771   7.653   2.175  0.9960 -1.0566  0.6343
63793SOL    HW2 1694   7.628   7.692   2.202  0.6608 -1.8477  0.0270
63794SOL     OW 1695   4.050   0.594   5.029 -0.0650 -0.3421  0.1691
63794SOL    HW1 1696   3.976   0.591   4.969 -0.8838  1.0401  1.0534
63794SOL    HW2 1697   4.017   0.639   5.107  1.9498  1.2801  0.2016
63795SOL     OW 1698   4.100  11.039  11.665 -0.3023 -0.1182 -0.0603
63795SOL    HW1 1699   4.066  11.128  11.656 -0.9073 -0.3948 -0.5218
63795SOL    HW2 1700   4.039  10.984  11.617  0.8083 -0.6167 -0.9706
63796SOL     OW 1701  11.814   2.090   3.678 -0.3402  0.3009 -0.4206
63796SOL    HW1 1702  11.722   2.097   3.654 -0.5923 -0.6311  0.2206
63796SOL    HW2 1703  11.826   2.155   3.746 -0.4470  0.6343 -0.7183
63797SOL     OW 1704   4.711   2.908   1.633 -0.2224  0.9112  0.1096
63797SOL    HW1 1705   4.726   2.888   1.725 -0.7485  0.7131  0.1564
63797SOL    HW2 1706   4.636   2.854   1.608  0.6679  0.0372 -0.7673
63798SOL     OW 1707   8.931   7.976   7.849 -0.0165  0.2163  0.3806
63798SOL    HW1 1708   8.864   7.912   7.827 -1.5625  1.2089  1.9004
63798SOL    HW2 1709   8.883   8.048   7.890  1.8978  1.3559  0.7741
63799SOL     OW 1710  10.323   9.896   7.586  0.2786  0.0705 -0.5816
63799SOL    HW1 1711  10.246   9.877   7.533  0.7959 -0.2119 -1.2607
63799SOL    HW2 1712  10.395   9.898   7.522  1.3421 -2.7722  0.3660
63800SOL     OW 1713   1.377   4.072   6.832 -0.1583 -0.2359  0.2341
63800SOL    HW1 1714   1.397   4.142   6.894 -2.2101  2.3057 -1.7761
63800SOL    HW2 1715   1.292   4.095   6.795 -0.0281 -2.7642 -1.9866
63801SOL     OW 1716   8.321  11.937  12.329  0.2045  0.6730  0.2197
63801SOL    HW1 1717   8.246  11.937  12.271  0.1584  0.3883  0.2742
63801SOL    HW2 1718   8.349  11.845  12.332  0.2618  0.6978  0.5701
63802SOL     OW 1719   5.711   3.412   4.980  0.3043  0.2068 -0.2794
63802SOL    HW1 1720   5.744   3.424   4.891 -0.1945  2.1597 -0.2402
63802SOL    HW2 1721   5.783   3.371   5.027  0.7624 -0.3692 -1.4430
63803SOL     OW 1722   1.074   1.761   9.596 -0.8772  0.1035  0.1218
63803SOL    HW1 1723   1.054   1.669   9.615 -0.9693 -0.0176 -0.5127
63803SOL    HW2 1724   1.091   1.801   9.681  0.5286 -0.8201  0.3139
63804SOL     OW 1725  12.572   9.561   6.615  0.2836  0.4270  0.5929
63804SOL    HW1 1726  12.487   9.558   6.572  0.4900  0.0079  0.2033
63804SOL    HW2 1727  12.565   9.496   6.685  0.8648 -0.9203 -0.5550
63805SOL     OW 1728   1.769  11.895  11.644  0.7808 -0.1957 -0.1235
63805SOL    HW1 1729   1.708  11.949  11.694  1.0458  0.4048 -0.4292
63805SOL    HW2 1730   1.751  11.918  11.552  2.2078  0.8285 -0.1845
63806SOL     OW 1731   6.107  12.240   7.800  0.1175  0.0775 -0.0785
63806SOL    HW1 1732   6.096  12.311   7.737 -0.6161  0.1814  0.1580
63806SOL    HW2 1733   6.095  12.160   7.750 -0.0839  0.1481 -0.1415
63807SOL     OW 1734   2.681  12.468   6.342  0.6371  0.2123  0.3471
63807SOL    HW1 1735   2.701  12.379   6.372  1.2337 -0.8398 -2.8394
63807SOL    HW2 1736   2.610  12.456   6.279 -0.3483  2.2426  0.9995
63808SOL     OW 1737   2.986   4.349   7.808 -0.2600 -0.8703  0.1143
63808SOL    HW1 1738   3.047   4.420   7.825 -0.9642  0.2472 -1.7979
63808SOL    HW2 1739   3.010   4.316   7.721 -1.8228 -0.9730 -0.3028
63809SOL     OW 1740  10.785   0.411   7.731 -0.0564  0.2256 -0.6646
63809SOL    HW1 1741  10.798   0.361   7.812  0.7747  0.3206 -0.7330
63809SOL    HW2 1742  10.793   0.346   7.661  2.9877  0.6718 -0.8835
63810SOL     OW 1743  12.495  10.477  12.857  0.6067  0.2434 -0.1900
63810SOL    HW1 1744  12.456  10.483  12.769  0.0932  1.0726  0.0861
63810SOL    HW2 1745  12.541  10.393  12.856  0.3784  0.1072 -1.1607
63811SOL     OW 1746   5.485  10.562   6.039  0.0476  0.2844 -0.7184
63811SOL    HW1 1747   5.456  10.654   6.032 -1.6598 -0.1772 -0.2298
63811SOL    HW2 1748   5.445  10.519   5.964 -2.9966 -0.9183  1.3687
63812SOL     OW 1749  12.684   4.436   6.093 -0.5306 -0.0125  0.4808
63812SOL    HW1 1750  12.729   4.469   6.015 -0.1249  0.9522  1.0980
63812SOL    HW2 1751  12.748   4.378   6.134 -0.6624 -0.3455  0.2214
63813SOL     OW 1752   9.885   0.402  10.245  0.3199 -0.0242  0.8179
63813SOL    HW1 1753   9.876   0.497  10.251 -1.1720 -0.1339  0.8055
63813SOL    HW2 1754   9.952   0.380  10.310  1.9977  1.1738 -0.4168
63814SOL     OW 1755   4.492   3.485   9.256 -0.0046  0.1794  0.0835
63814SOL    HW1 1756   4.421   3.542   9.225 -0.4161  0.3364  1.2934
63814SOL    HW2 1757   4.485   3.486   9.351  0.7708 -0.9119  0.1706
63815SOL     OW 1758  12.605   3.630   2.310 -0.0826 -0.3007 -0.0603
63815SOL    HW1 1759  12.603   3.569   2.384  0.8741 -0.4016 -0.1079
63815SOL    HW2 1760  12.545   3.593   2.246 -3.9692  1.6886  2.0716
63816SOL     OW 1761   1.802   0.408   1.777 -0.1585 -0.2327  0.4788
63816SOL    HW1 1762   1.733   0.400   1.711 -0.2057  0.3902  0.4484
63816SOL    HW2 1763   1.879   0.436   1.727  0.7482 -2.9753  0.1336
63817SOL     OW 1764   0.276  11.164   6.932 -0.5291  0.1474 -0.3005
63817SOL    HW1 1765   0.336  11.195   6.864 -0.5064  0.5648 -0.0918
63817SOL    HW2 1766   0.332  11.136   7.004 -0.5905  1.9534  0.5122
63818SOL     OW 1767   1.289   4.440   7.697  0.6110 -0.6847  0.0143
63818SOL    HW1 1768   1.202   4.457   7.732  0.6183  1.4670 -0.8508
63818SOL    HW2 1769   1.307   4.349   7.720 -0.2296 -0.0971  3.6640
63819SOL     OW 1770   9.663   9.862   0.669 -0.1993 -0.2809 -0.4595
63819SOL    HW1 1771   9.637   9.861   0.577  0.5469 -0.6754 -0.6680
63819SOL    HW2 1772   9.759   9.861   0.668 -0.1708  0.3307  0.3123
63820SOL     OW 1773   9.631   8.909   8.248 -0.0495  0.2449 -0.2433
63820SOL    HW1 1774   9.575   8.867   8.313  1.5978 -1.3164  0.2520
63820SOL    HW2 1775   9.652   8.839   8.186  2.4790  0.3209  0.3941
63821SOL     OW 1776   2.542   7.091  12.222 -0.2787  0.1583 -0.1301
63821SOL    HW1 1777   2.601   7.166  12.227 -0.3059  0.2145 -0.6352
63821SOL    HW2 1778   2.456   7.125  12.247 -0.0424  0.0042  0.9395
63822SOL     OW 1779   3.638  11.547   7.522 -0.1509  0.3356 -0.3461
63822SOL    HW1 1780   3.596  11.569   7.439 -0.1690 -1.3694 -0.8285
63822SOL    HW2 1781   3.588  11.595   7.587 -1.3880  0.1854 -1.1389
63823SOL     OW 1782  10.798   5.255   6.780 -0.9435 -0.3383 -0.1642
63823SOL    HW1 1783  10.707   5.261   6.752 -0.7020  3.9026 -0.6924
63823SOL    HW2 1784  10.797   5.277   6.873 -0.5108 -1.5884  0.1613
63824SOL     OW 1785  12.363   5.824   7.740 -0.4795  0.2004  0.9766
63824SOL    HW1 1786  12.273   5.801   7.717 -0.4595 -0.3341  1.3849
63824SOL    HW2 1787  12.387   5.758   7.805 -0.2317  1.0984  1.8148
63825SOL     OW 1788   3.725   3.530   0.975  0.2587  0.1308  0.0397
63825SOL    HW1 1789   3.742   3.621   1.000 -0.1993  0.2578 -0.0949
63825SOL    HW2 1790   3.629   3.523   0.976  0.2476 -0.0278 -1.0803
63826SOL     OW 1791   4.820   8.640   3.274 -0.0073  0.0916  0.0651
63826SOL    HW1 1792   4.741   8.676   3.315 -0.0956  0.2346 -0.2272
63826SOL    HW2 1793   4.857   8.582   3.340 -1.0797 -1.0176 -0.2739
63827SOL     OW 1794  12.221   1.086   8.107 -0.0111 -1.1367 -0.4856
63827SOL    HW1 1795  12.241   1.121   8.021  0.4303 -0.2707 -0.0479
63827SOL    HW2 1796  12.142   1.132   8.135  0.6036 -0.3981  0.1137
63828SOL     OW 1797  12.915   9.456   8.874  0.1746  0.3700 -0.0491
63828SOL    HW1 1798  12.893   9.454   8.781  0.5637  0.6217 -0.1491
63828SOL    HW2 1799  12.908   9.365   8.903 -1.3758  0.4857  0.0184
63829SOL     OW 1800   4.261   0.454   6.436  0.3720 -0.4203  0.3706
63829SOL    HW1 1801   4.299   0.430   6.520 -1.4767  0.5428  1.5528
63829SOL    HW2 1802   4.195   0.387   6.419 -0.3788  0.2646  0.5196
63830SOL     OW 1803   0.817   4.527   7.767  0.3103 -0.8568  0.3250
63830SOL    HW1 1804   0.733   4.558   7.801 -0.3740 -2.7679  0.4782
63830SOL    HW2 1805   0.826   4.571   7.682 -0.3010  0.2103  0.7931
63831SOL     OW 1806   8.387  11.291   8.527 -0.5185 -0.3646 -0.9935
63831SOL    HW1 1807   8.477  11.281   8.497 -1.1787 -0.3673 -3.1431
63831SOL    HW2 1808   8.378  11.228   8.598  1.7216  1.0544  0.6483
63832SOL     OW 1809  11.614   7.217   9.668 -0.3290 -0.1231 -0.2550
63832SOL    HW1 1810  11.668   7.140   9.653  0.3832  0.2578  0.2703
63832SOL    HW2 1811  11.639   7.247   9.756 -0.0661  1.1097 -0.7284
63833SOL     OW 1812   4.118   4.196   7.251  0.7633  0.2319  0.2515
63833SOL    HW1 1813   4.161   4.254   7.188 -0.6510 -0.5083 -1.5210
63833SOL    HW2 1814   4.082   4.125   7.197 -0.7012 -0.3479  1.8819
63834SOL     OW 1815   5.036   7.193  10.636 -0.4291 -0.4823 -0.4370
63834SOL    HW1 1816   5.121   7.174  10.676 -0.5503 -1.5832 -0.6742
63834SOL    HW2 1817   5.041   7.286  10.612  1.3477 -0.9240 -1.9687
63835SOL     OW 1818  12.690  10.761   7.738 -0.2690  0.7641  0.3154
63835SOL    HW1 1819  12.748  10.820   7.690  0.2068 -0.3810 -0.5546
63835SOL    HW2 1820  12.737  10.678   7.741 -1.7922 -0.1663 -0.2977
63836SOL     OW 1821   7.990  10.480   4.237  0.1501  0.0654 -0.1906
63836SOL    HW1 1822   8.026  10.436   4.314 -1.1659  0.3076  0.5863
63836SOL    HW2 1823   8.038  10.562   4.231 -1.3783  1.1997  1.8705
63837SOL     OW 1824  12.683   7.989   8.099 -0.2266  0.0603 -0.1324
63837SOL    HW1 1825  12.723   7.916   8.146  1.0498 -0.1332 -1.4494
63837SOL    HW2 1826  12.610   8.015   8.154  0.0232 -1.4154  0.9734
63838SOL     OW 1827   7.935   7.495  11.028  0.5037  0.0979  0.4452
63838SOL    HW1 1828   8.022   7.469  10.996 -0.1346 -2.0950  0.3269
63838SOL    HW2 1829   7.942   7.590  11.040  2.4849  0.1961 -0.8609
63839SOL     OW 1830   8.426   2.542   3.731 -0.0601 -0.6205 -0.2497
63839SOL    HW1 1831   8.428   2.447   3.716 -0.9369 -0.5586 -0.8458
63839SOL    HW2 1832   8.458   2.553   3.821 -1.7856 -1.6721  0.5478
63840SOL     OW 1833  12.076   0.023   9.098 -0.5096 -0.1399 -0.2878
63840SOL    HW1 1834  12.036   0.076   9.167 -0.3265 -0.4864  0.0867
63840SOL    HW2 1835  12.004  -0.032   9.066 -0.2942 -0.9475  0.5636
63841SOL     OW 1836  11.397   4.529   3.869 -0.6994  0.2126 -0.5318
63841SOL    HW1 1837  11.442   4.613   3.883 -0.4092  0.0835 -0.7038
63841SOL    HW2 1838  11.310   4.554   3.837 -1.3159  0.5206  1.2327
63842SOL     OW 1839   6.372   7.675   8.144  0.0928  0.1708  0.2039
63842SOL    HW1 1840   6.296   7.618   8.155 -0.1320  0.4505  0.0735
63842SOL    HW2 1841   6.364   7.740   8.214  0.8759 -0.5401  0.9856
63843SOL     OW 1842   3.748   2.563   4.368  1.0314  0.2550  0.1754
63843SOL    HW1 1843   3.772   2.546   4.277  0.2053 -0.1950  0.0310
63843SOL    HW2 1844   3.679   2.500   4.387  3.1044 -1.6312  2.0176
63844SOL     OW 1845   6.344  11.474   8.656 -0.2829  0.2026  0.0399
63844SOL    HW1 1846   6.299  11.405   8.706 -0.7793  0.4446 -0.0726
63844SOL    HW2 1847   6.412  11.427   8.608 -0.5559 -0.2023  0.0370
63845SOL     OW 1848   3.636   7.310  11.689 -0.6252 -0.1414  0.5250
63845SOL    HW1 1849   3.694   7.250  11.735  2.0694  1.4280 -0.5501
63845SOL    HW2 1850   3.643   7.285  11.597  0.0536  1.3226  0.1338
63846SOL     OW 1851   2.003   4.380   9.466  0.4643  0.0321 -0.3353
63846SOL    HW1 1852   1.970   4.291   9.454 -1.3396  0.4073  1.2735
63846SOL    HW2 1853   2.042   4.380   9.553 -0.0860  0.9285 -0.0738
63847SOL     OW 1854  11.339   8.263   5.658  0.2589 -0.2615  0.3641
63847SOL    HW1 1855  11.425   8.254   5.699  0.7838 -0.9567 -0.8161
63847SOL    HW2 1856  11.356   8.311   5.577 -0.6976  0.8098  0.7594
63848SOL     OW 1857  12.391  12.410  11.672  0.1617  0.4878 -0.3498
63848SOL    HW1 1858  12.377  12.494  11.629 -1.4910 -0.1026 -1.0670
63848SOL    HW2 1859  12.336  12.413  11.750  0.2144  0.1284 -0.2949
63849SOL     OW 1860   3.125   7.767   9.533 -0.3456 -1.1737  0.1468
63849SOL    HW1 1861   3.206   7.784   9.582 -0.3942  0.4624 -0.2798
63849SOL    HW2 1862   3.055   7.773   9.598 -0.4290  1.1802 -0.0544
63850SOL     OW 1863   1.154  11.587   8.167  0.2793  0.3647  0.0261
63850SOL    HW1 1864   1.085  11.647   8.196  2.0498  1.9167  1.2566
63850SOL    HW2 1865   1.177  11.537   8.246  1.6578  1.0109  0.0470
63851SOL     OW 1866   2.839   5.219   5.669  0.6350 -0.2594 -0.5479
63851SOL    HW1 1867   2.803   5.178   5.590 -1.0754  0.9651 -0.4664
63851SOL    HW2 1868   2.887   5.295   5.638  1.4031 -0.7241 -0.5114
63852SOL     OW 1869   3.136  11.419  11.545 -0.1118  0.5071  0.1428
63852SOL    HW1 1870   3.179  11.502  11.525  0.3003  0.2037 -0.2692
63852SOL    HW2 1871   3.063  11.442  11.602 -0.6289  1.2887 -0.7980
63853SOL     OW 1872  11.357   1.296   0.714  0.5474 -0.5764  0.2288
63853SOL    HW1 1873  11.387   1.310   0.624  0.6570  1.6161  0.5621
63853SOL    HW2 1874  11.267   1.329   0.715  1.1517  1.1408  1.3178
63854SOL     OW 1875   7.207   4.205   7.099  0.0977  0.2107 -0.3764
63854SOL    HW1 1876   7.193   4.210   7.004  1.4877  2.3979 -0.5314
63854SOL    HW2 1877   7.142   4.264   7.136  0.5331  0.5140 -0.0921
63855SOL     OW 1878  11.249   6.393   4.393 -0.3359  0.6813 -0.3875
63855SOL    HW1 1879  11.207   6.435   4.468 -0.0731  2.1719 -1.0366
63855SOL    HW2 1880  11.181   6.337   4.356 -0.4308 -0.1784  1.0100
63856SOL     OW 1881   4.906   1.532  10.474  0.3500 -0.5168 -0.0744
63856SOL    HW1 1882   4.883   1.600  10.411 -2.2817  1.8072  3.0110
63856SOL    HW2 1883   4.990   1.561  10.510  0.2108  0.0309 -0.1695
63857SOL     OW 1884   2.188   8.394   1.408  0.5771 -0.2539 -0.2315
63857SOL    HW1 1885   2.271   8.431   1.438  0.5931 -0.6893  0.2915
63857SOL    HW2 1886   2.134   8.389   1.488 -0.0229  0.2019 -0.6002
63858SOL     OW 1887   4.025   0.498   6.048 -0.7245 -0.2461 -0.4104
63858SOL    HW1 1888   3.963   0.559   6.007 -1.8589 -0.7189  0.5260
63858SOL    HW2 1889   4.104   0.550   6.063 -0.7799  0.3104 -1.8514
63859SOL     OW 1890  10.127   1.659   8.078  0.5319 -0.8236 -0.2112
63859SOL    HW1 1891  10.165   1.625   8.159  2.1823  1.0898 -0.1172
63859SOL    HW2 1892  10.095   1.746   8.100 -1.0577 -1.1495 -1.1029
63860SOL     OW 1893   9.836   0.685  10.209  0.0944  0.3130  0.5041
63860SOL    HW1 1894   9.834   0.685  10.305 -0.7344  2.9458  0.5565
63860SOL    HW2 1895   9.873   0.770  10.186 -0.6139  0.1243 -1.5274
63861SOL     OW 1896   2.639   2.243   7.405  0.1559 -0.2314  0.5504
63861SOL    HW1 1897   2.549   2.234   7.436  0.2583 -0.2157  0.8570
63861SOL    HW2 1898   2.652   2.170   7.345  0.5245 -1.3225  1.9185
63862SOL     OW 1899   1.590   9.774  10.117  0.1323 -0.5527  0.1319
63862SOL    HW1 1900   1.578   9.737  10.029  2.5560 -0.7905 -0.1701
63862SOL    HW2 1901   1.579   9.868  10.105  0.6788 -0.5571 -0.5097
63863SOL     OW 1902  12.365   5.232  12.138  0.8119 -0.1683 -0.4572
63863SOL    HW1 1903  12.427   5.276  12.196 -1.0138 -0.5447  1.9413
63863SOL    HW2 1904  12.387   5.139  12.145  2.3642 -0.0424 -2.6853
63864SOL     OW 1905   3.982   9.603  10.259  0.1114 -0.2911  0.0438
63864SOL    HW1 1906   3.994   9.643  10.345  2.6538  0.4705 -0.5685
63864SOL    HW2 1907   4.039   9.653  10.201  0.6761 -2.5426 -1.5097
63865SOL     OW 1908  11.368   0.983   9.235 -0.7303 -0.0844 -0.2720
63865SOL    HW1 1909  11.296   0.958   9.294  1.1350  0.1939  2.2879
63865SOL    HW2 1910  11.326   0.994   9.150 -4.0293  1.5313  1.3627
63866SOL     OW 1911  11.113   3.906   7.314  0.1209  0.1618 -0.0905
63866SOL    HW1 1912  11.022   3.919   7.290 -0.4189  0.2259  1.8580
63866SOL    HW2 1913  11.145   3.838   7.253 -1.1555  0.2520 -0.8837
63867SOL     OW 1914   4.882   0.066  12.975 -0.9608  0.8458 -0.0993
63867SOL    HW1 1915   4.835   0.145  12.949 -0.4072  0.1324 -3.8806
63867SOL    HW2 1916   4.854   0.000  12.911  0.0708 -1.4922  1.7348
63868SOL     OW 1917   8.241  11.846   7.446  0.4695  0.4398 -0.3836
63868SOL    HW1 1918   8.272  11.931   7.416 -0.5103  1.8093  2.2008
63868SOL    HW2 1919   8.165  11.865   7.501  1.6551 -1.8229  2.2951
63869SOL     OW 1920   2.486  12.932   8.970 -0.1344  0.3412 -0.3171
63869SOL    HW1 1921   2.551  12.950   9.038 -0.9891 -0.1860  0.6631
63869SOL    HW2 1922   2.486  12.837   8.961 -1.5485  0.2326  0.5121
63870SOL     OW 1923   7.684   2.305   7.661  0.5737 -0.3039  0.0336
63870SOL    HW1 1924   7.733   2.248   7.720  0.7555  0.3764  0.5483
63870SOL    HW2 1925   7.648   2.246   7.595  0.0615 -1.1276  1.0264
63871SOL     OW 1926   7.937  11.548  12.122 -0.6225  0.6312 -0.4259
63871SOL    HW1 1927   8.000  11.511  12.060 -1.1281  0.0706 -0.6179
63871SOL    HW2 1928   7.866  11.484  12.124 -0.6190  0.6340  0.7377
63872SOL     OW 1929   3.386   7.365   6.437 -0.1346 -0.1961  0.2029
63872SOL    HW1 1930   3.338   7.424   6.495 -0.4839 -1.1244  0.8862
63872SOL    HW2 1931   3.436   7.423   6.380 -0.6490  0.7599  0.6960
63873SOL     OW 1932   7.048   9.480   1.130  0.0928  0.4394 -0.6179
63873SOL    HW1 1933   7.043   9.550   1.065  0.0187 -0.6932 -1.8656
63873SOL    HW2 1934   7.125   9.429   1.104  0.5798  0.4745  0.7105
63874SOL     OW 1935   2.504   0.701   1.824 -0.0997 -0.2710 -0.2256
63874SOL    HW1 1936   2.486   0.779   1.876  0.5520  0.6460 -1.3230
63874SOL    HW2 1937   2.419   0.656   1.817 -0.6989  0.8644 -0.4137
63875SOL     OW 1938   7.973  11.194   5.349  0.2312  0.0783 -0.0551
63875SOL    HW1 1939   7.970  11.099   5.353 -1.3770 -0.0069 -1.8568
63875SOL    HW2 1940   7.886  11.223   5.376  0.2531  0.9485 -0.8498
63876SOL     OW 1941   4.760   3.179   6.073  0.3359 -0.2904  0.0525
63876SOL    HW1 1942   4.672   3.214   6.060  0.3828 -0.3141 -0.3435
63876SOL    HW2 1943   4.799   3.179   5.985  0.8324 -0.0050  0.2667
63877SOL     OW 1944   0.325   0.823   1.120  0.5155  1.0104  1.0868
63877SOL    HW1 1945   0.305   0.884   1.049 -0.5405 -0.4497  0.0682
63877SOL    HW2 1946   0.250   0.830   1.179  0.2500  0.4860  0.8124
63878SOL     OW 1947   6.812   0.881   0.670 -0.1450  0.4518  0.2490
63878SOL    HW1 1948   6.741   0.820   0.690  1.2748 -1.2771  0.2751
63878SOL    HW2 1949   6.892   0.827   0.675  1.1676  2.3038  0.1839
63879SOL     OW 1950  12.007  12.615   5.027 -0.2186  0.2236 -0.0779
63879SOL    HW1 1951  12.103  12.623   5.023 -0.1783  0.3526  0.9734
63879SOL    HW2 1952  11.980  12.618   4.935  0.9831 -2.4387 -0.6269
63880SOL     OW 1953  12.115   4.963  12.410 -0.3014  0.2614  0.0166
63880SOL    HW1 1954  12.042   5.019  12.437 -0.8000 -0.2699 -0.2121
63880SOL    HW2 1955  12.073   4.887  12.369  0.3045 -0.9474  1.5328
63881SOL     OW 1956   2.760   6.712   3.274 -0.2129  0.0836  0.6202
63881SOL    HW1 1957   2.686   6.652   3.288  0.2018 -0.5139  0.3031
63881SOL    HW2 1958   2.810   6.707   3.355 -0.1180 -0.0946  0.5525
63882SOL     OW 1959   8.001   0.474  10.232 -0.6752  0.1294  0.2247
63882SOL    HW1 1960   7.920   0.429  10.212 -0.9287 -0.2990  2.0612
63882SOL    HW2 1961   8.031   0.436  10.315  0.4054  1.5790  0.5538
63883SOL     OW 1962   7.642   2.932   0.805  0.0001 -0.2498  0.2887
63883SOL    HW1 1963   7.697   3.003   0.774  1.9132 -0.8378  2.1063
63883SOL    HW2 1964   7.689   2.852   0.780 -0.1217 -0.7673  1.6175
63884SOL     OW 1965   9.479   9.515   7.369 -0.0571 -0.9435  0.1040
63884SOL    HW1 1966   9.432   9.435   7.391 -1.1717 -0.2752  0.2298
63884SOL    HW2 1967   9.501   9.554   7.454  1.1717 -1.4757  0.0593
63885SOL     OW 1968   4.392  12.600   6.470  0.1035  0.3302 -0.0618
63885SOL    HW1 1969   4.347  12.680   6.441 -0.1686  0.1696 -0.0783
63885SOL    HW2 1970   4.354  12.530   6.417  1.4832  0.4105 -1.2131
63886SOL     OW 1971  10.049   1.038   9.099  0.0717 -0.1629  0.3686
63886SOL    HW1 1972  10.019   1.025   9.189  0.7597 -2.0844  0.3469
63886SOL    HW2 1973  10.145   1.038   9.105  0.1239 -0.2334 -0.3663
63887SOL     OW 1974   1.207   5.734   6.294 -0.4324 -0.7078 -0.1774
63887SOL    HW1 1975   1.298   5.764   6.301 -0.9442  1.5885 -2.1617
63887SOL    HW2 1976   1.202   5.660   6.355  1.8054  1.2797  2.6993
63888SOL     OW 1977  10.890   0.812   2.264  0.4869 -0.0299 -0.3975
63888SOL    HW1 1978  10.870   0.891   2.213 -0.2819 -0.1749 -0.3267
63888SOL    HW2 1979  10.959   0.840   2.324 -0.2121  0.7708  0.0623
63889SOL     OW 1980   4.093   3.226   8.054  0.3495 -0.2961 -0.1447
63889SOL    HW1 1981   4.030   3.285   8.096  0.5042 -0.7334  0.7189
63889SOL    HW2 1982   4.161   3.213   8.119  1.1567 -0.1286 -0.9426
63890SOL     OW 1983   0.917  12.031   9.911 -0.0433 -0.2631 -0.9054
63890SOL    HW1 1984   0.928  12.061  10.001 -1.0139  2.0798 -1.5056
63890SOL    HW2 1985   0.826  12.001   9.907 -0.4722  1.0397 -1.4386
63891SOL     OW 1986   8.662   4.490  11.058 -0.5736  0.5884 -0.0110
63891SOL    HW1 1987   8.690   4.508  11.148  0.9737  1.1961 -0.5915
63891SOL    HW2 1988   8.716   4.547  11.004 -0.2036 -1.0478 -1.4540
63892SOL     OW 1989  12.600   2.238  11.851 -1.0649  0.7917  0.1798
63892SOL    HW1 1990  12.606   2.157  11.902  0.5986 -0.7557 -2.2884
63892SOL    HW2 1991  12.508   2.263  11.856 -1.4802 -0.8339  1.6030
63893SOL     OW 1992   9.793   8.265   9.431 -0.2422  0.0611 -0.2520
63893SOL    HW1 1993   9.723   8.324   9.403 -0.7550 -0.7063 -0.6435
63893SOL    HW2 1994   9.800   8.278   9.525  1.1090  2.2766 -0.5772
63894SOL     OW 1995  11.250  12.568   5.324  0.0507  0.0274  0.1177
63894SOL    HW1 1996  11.336  12.584   5.286  0.3668 -1.6107  0.0598
63894SOL    HW2 1997  11.241  12.633   5.393  1.1663  0.4593 -0.1310
63895SOL     OW 1998   1.685  10.170   3.730  0.2679 -0.0306 -0.2930
63895SOL    HW1 1999   1.696  10.243   3.791 -0.7014 -1.3133  1.5048
63895SOL    HW2 2000   1.597  10.183   3.693 -1.2770 -1.8239  2.3792
63896SOL     OW 2001   5.138   8.623   4.061 -0.2835 -0.3206 -0.3510
63896SOL    HW1 2002   5.084   8.610   4.138  1.3855  0.1929  0.9666
63896SOL    HW2 2003   5.220   8.577   4.081  0.6268  0.8226 -1.2874
63897SOL     OW 2004   8.792   8.458  11.778 -0.1759  0.4549 -0.1996
63897SOL    HW1 2005   8.703   8.423  11.777 -0.0689  0.1510  0.5893
63897SOL    HW2 2006   8.805   8.490  11.867  0.0970  1.5709 -0.6295
63898SOL     OW 2007   4.712   8.116   2.866  0.2453  0.0867 -0.0822
63898SOL    HW1 2008   4.640   8.064   2.901 -0.0613  0.6005  0.0637
63898SOL    HW2 2009   4.790   8.082   2.910 -0.0972  0.5207  0.8793
63899SOL     OW 2010   7.036  11.975   9.472  0.2694 -0.5645  0.4515
63899SOL    HW1 2011   7.021  12.055   9.523 -0.0868 -1.3504  1.6105
63899SOL    HW2 2012   7.016  12.000   9.382 -0.9972  0.3382  0.9580
63900SOL     OW 2013   5.097   7.674   0.179  0.2454 -0.3410 -0.0815
63900SOL    HW1 2014   5.155   7.705   0.110  0.8665 -1.1809  0.0495
63900SOL    HW2 2015   5.047   7.603   0.139  1.0124 -1.2172  0.4728
63901SOL     OW 2016  10.594   9.566   6.223 -0.0041 -0.4232  0.9076
63901SOL    HW1 2017  10.624   9.603   6.139 -0.7547  2.0355  1.6213
63901SOL    HW2 2018  10.551   9.484   6.199  0.1229  0.0315 -1.0696
63902SOL     OW 2019   2.072  12.437   6.196  0.1803  0.1344 -0.2076
63902SOL    HW1 2020   2.073  12.386   6.278 -2.5518  0.4841  0.1569
63902SOL    HW2 2021   2.157  12.480   6.193  1.3149 -1.8460  1.1555
63903SOL     OW 2022   5.470   3.234  12.162 -0.2805 -0.5120 -0.1152
63903SOL    HW1 2023   5.374   3.238  12.161 -0.2774 -0.3773 -0.0238
63903SOL    HW2 2024   5.493   3.261  12.251 -0.1712 -0.8546 -0.0403
63904SOL     OW 2025  11.121   5.794   6.511  0.2053 -0.2654  0.2538
63904SOL    HW1 2026  11.191   5.806   6.446 -0.1005 -1.0494 -0.2441
63904SOL    HW2 2027  11.137   5.706   6.547 -0.3529 -0.3381  0.3397
63905SOL     OW 2028   2.309   8.487  10.106 -0.4272 -0.1939  0.3445
63905SOL    HW1 2029   2.225   8.441  10.102 -0.5587 -0.0017  0.8105
63905SOL    HW2 2030   2.331   8.507  10.015  0.5569 -2.8650 -0.0989
63906SOL     OW 2031   5.636  12.885   1.275  0.8579  0.0151 -0.2757
63906SOL    HW1 2032   5.671  12.831   1.346  0.1212 -1.5890 -1.0750
63906SOL    HW2 2033   5.706  12.947   1.255  1.5131 -0.2512  1.0724
63907SOL     OW 2034   0.009   1.566   7.293  0.3010 -0.1485 -0.0541
63907SOL    HW1 2035   0.084   1.546   7.237  1.8718  0.2578  1.7981
63907SOL    HW2 2036   0.047   1.599   7.374 -1.8655 -0.7023  1.2927
63908SOL     OW 2037   3.769   5.884   3.994  0.1107 -0.1281 -0.1480
63908SOL    HW1 2038   3.858   5.870   3.961 -0.3152  0.2004 -1.4597
63908SOL    HW2 2039   3.780   5.944   4.068  0.9487  0.0880 -0.4436
63909SOL     OW 2040   9.959   4.718   2.507 -0.0115  0.0426 -0.0417
63909SOL    HW1 2041   9.907   4.647   2.544 -1.0860  0.2020 -1.1750
63909SOL    HW2 2042   9.895   4.774   2.462  1.0814  0.4558 -1.1585
63910SOL     OW 2043   4.461   8.291   1.610 -0.5901 -0.2482 -0.2712
63910SOL    HW1 2044   4.450   8.204   1.570  2.4628  0.5104 -3.2715
63910SOL    HW2 2045   4.532   8.280   1.672 -0.1836  0.0723 -0.6722
63911SOL     OW 2046  12.796   7.809  10.978  0.1796 -0.5336  0.2336
63911SOL    HW1 2047  12.876   7.862  10.974  0.3875 -0.6662  1.8818
63911SOL    HW2 2048  12.731   7.868  11.017 -0.0309 -0.9798  0.5643
63912SOL     OW 2049   2.614   8.825   5.019  0.3705  0.3005 -0.3987
63912SOL    HW1 2050   2.573   8.742   5.043  0.9899  0.1180  0.0635
63912SOL    HW2 2051   2.654   8.856   5.100 -0.5074  1.4420 -0.3884
63913SOL     OW 2052   7.531  10.707   4.282 -0.1527  0.0774 -0.6686
63913SOL    HW1 2053   7.607  10.707   4.224  0.7604 -1.4596  0.4340
63913SOL    HW2 2054   7.566  10.733   4.367 -1.0388  0.2008 -0.3345
63914SOL     OW 2055   3.454   8.002   8.426  0.6948  0.0350  0.6754
63914SOL    HW1 2056   3.436   7.923   8.478 -0.4946  0.4694  0.9592
63914SOL    HW2 2057   3.444   7.974   8.335 -2.5846  0.3983  0.7801
63915SOL     OW 2058   5.429   4.114   8.992  0.2163  0.2179 -0.3426
63915SOL    HW1 2059   5.416   4.135   9.084 -0.3729 -0.2489 -0.3111
63915SOL    HW2 2060   5.494   4.044   8.993  0.6624  0.6271 -0.3230
63916SOL     OW 2061  11.989   5.867   6.361 -0.5988  0.0383 -0.0763
63916SOL    HW1 2062  11.939   5.789   6.336  0.7318 -0.2386 -2.0661
63916SOL    HW2 2063  12.000   5.916   6.280 -1.1755  2.2372  1.0798
63917SOL     OW 2064   7.065   8.763   3.655  0.4645  0.5350  0.5398
63917SOL    HW1 2065   7.019   8.809   3.585  0.6981 -1.2637 -0.8724
63917SOL    HW2 2066   7.153   8.748   3.620  0.5195 -0.5894  1.1176
63918SOL     OW 2067   0.167  10.917  11.354  0.3088  0.5470 -0.0062
63918SOL    HW1 2068   0.150  10.960  11.438 -0.2271 -0.0241  0.1959
63918SOL    HW2 2069   0.183  10.825  11.377 -0.9441  0.1501 -0.5986
63919SOL     OW 2070  12.183   1.435  12.064 -0.1347 -0.1772  0.2978
63919SOL    HW1 2071  12.195   1.367  12.129  0.6528  0.3095  0.6757
63919SOL    HW2 2072  12.167   1.388  11.982  0.8594 -0.8191  0.4689
63920SOL     OW 2073   2.376  12.943   8.121  0.2376  0.4232 -0.2403
63920SOL    HW1 2074   2.400  12.921   8.031  0.9787  1.1025 -0.2138
63920SOL    HW2 2075   2.288  12.906   8.132  0.5728 -0.5989 -0.8905
63921SOL     OW 2076  12.062   3.728   1.892  0.2537  0.2933  0.0910
63921SOL    HW1 2077  12.142   3.779   1.878  0.5368  0.2878  1.6040
63921SOL    HW2 2078  11.993   3.794   1.898  0.6872  0.6090  2.5550
63922SOL     OW 2079   3.144   2.406   8.969 -0.3339  0.1613  0.6348
63922SOL    HW1 2080   3.228   2.451   8.971  0.3267 -0.9964  0.0845
63922SOL    HW2 2081   3.083   2.468   8.929  0.5740  0.5311 -0.1879
63923SOL     OW 2082   7.029   5.973   6.851  0.4069 -0.1396 -0.1728
63923SOL    HW1 2083   7.083   6.002   6.924 -0.4875  1.3652 -0.0719
63923SOL    HW2 2084   6.940   5.966   6.887 -0.3054  1.8569 -1.3256
63924SOL     OW 2085   3.322  11.433   9.916 -0.0545  0.1964  0.0787
63924SOL    HW1 2086   3.235  11.446   9.879 -0.7409 -1.3477  1.0338
63924SOL    HW2 2087   3.316  11.349   9.961  2.2344 -0.4413 -0.6814
63925SOL     OW 2088  12.164   2.667   3.323 -0.1131  0.2204  0.0408
63925SOL    HW1 2089  12.126   2.753   3.341 -1.0027 -0.1895  0.1747
63925SOL    HW2 2090  12.088   2.609   3.311  0.4677 -0.6246  0.3448
63926SOL     OW 2091  11.831   2.031   8.504  0.0211 -0.1015  0.6749
63926SOL    HW1 2092  11.872   2.051   8.420  0.6133 -0.7053  0.8096
63926SOL    HW2 2093  11.879   1.955   8.537  0.6079  0.8678  2.1499
63927SOL     OW 2094   7.780   3.459   9.179 -0.8131 -0.5682  0.2630
63927SOL    HW1 2095   7.807   3.484   9.267  1.1409  1.9079 -0.9307
63927SOL    HW2 2096   7.693   3.420   9.191  0.6392 -3.2849  3.5942
63928SOL     OW 2097   4.204   4.708  11.548  0.3773 -0.2279  0.3464
63928SOL    HW1 2098   4.299   4.706  11.532  0.4008  0.2400  0.4387
63928SOL    HW2 2099   4.195   4.682  11.640  0.3889 -0.6344  0.2368
63929SOL     OW 2100   5.501  12.826  12.647  0.1182 -0.1834  0.1527
63929SOL    HW1 2101   5.471  12.820  12.738 -0.7061 -0.8674 -0.1550
63929SOL    HW2 2102   5.438  12.885  12.605  1.7075  1.8958  0.4852
63930SOL     OW 2103   6.336   2.825   1.586  0.2901 -0.2864  0.3612
63930SOL    HW1 2104   6.295   2.746   1.552  0.5467 -0.8443  1.3022
63930SOL    HW2 2105   6.324   2.819   1.681  2.7343 -0.6016  0.7183
63931SOL     OW 2106   7.038   3.764   3.264  0.3488  0.1224  0.1069
63931SOL    HW1 2107   7.054   3.730   3.353 -0.4169 -0.4589  0.0338
63931SOL    HW2 2108   6.963   3.822   3.274  0.5961  0.4703 -0.0673
63932SOL     OW 2109  11.218   7.968   0.927  0.4925 -0.2278 -0.4859
63932SOL    HW1 2110  11.148   7.916   0.968 -0.0266  0.2108 -0.8093
63932SOL    HW2 2111  11.275   7.902   0.886 -0.7000 -0.5233 -1.7574
63933SOL     OW 2112   3.148   2.485  12.214  0.2319 -0.1406 -0.3654
63933SOL    HW1 2113   3.121   2.577  12.220 -0.2816 -0.2910 -0.2838
63933SOL    HW2 2114   3.146   2.454  12.305  0.7329 -0.1423 -0.3550
63934SOL     OW 2115   5.982   8.106   4.517 -0.3637  0.5860  0.5611
63934SOL    HW1 2116   6.047   8.048   4.556 -0.0696  2.6409  3.3774
63934SOL    HW2 2117   6.030   8.185   4.494 -1.3733  1.0818  0.0807
63935SOL     OW 2118   5.499   6.885   8.471 -0.0189  0.4733  0.1279
63935SOL    HW1 2119   5.587   6.855   8.448  0.2103  0.6491  0.7510
63935SOL    HW2 2120   5.443   6.809   8.460  0.0644  0.5712 -1.0835
63936SOL     OW 2121  12.387   2.997   8.072 -0.2456  0.5708 -0.1241
63936SOL    HW1 2122  12.336   2.943   8.012 -0.1813 -0.5362  0.7787
63936SOL    HW2 2123  12.450   2.936   8.111  0.5694  1.5403  0.1067
63937SOL     OW 2124   1.905   9.059   7.622  0.3767  0.1345 -0.0131
63937SOL    HW1 2125   1.884   9.105   7.703  2.0317 -0.1230  0.5956
63937SOL    HW2 2126   1.830   9.076   7.565 -0.7273  0.4990  1.4787
63938SOL     OW 2127  12.224   5.716   7.277  0.1692 -0.0164  0.3600
63938SOL    HW1 2128  12.156   5.719   7.345 -0.5140  0.0792 -0.3113
63938SOL    HW2 2129  12.268   5.801   7.283  1.5870 -0.8149  2.1322
63939SOL     OW 2130   0.618   6.461   1.307  0.7147 -0.1878  0.2953
63939SOL    HW1 2131   0.565   6.404   1.251  2.2975 -1.1866 -0.2509
63939SOL    HW2 2132   0.652   6.403   1.376 -1.8464  1.1671  2.8945
63940SOL     OW 2133  11.942   6.661   3.377  0.0139 -0.6304  0.0849
63940SOL    HW1 2134  11.997   6.687   3.450 -1.0053 -1.7341  1.3080
63940SOL    HW2 2135  11.959   6.567   3.367 -1.9593 -1.1110  0.8295
63941SOL     OW 2136   8.300   3.975   8.440 -0.0064  0.6768 -0.0083
63941SOL    HW1 2137   8.268   3.968   8.530 -1.3222  0.2898 -0.4933
63941SOL    HW2 2138   8.243   3.918   8.389 -1.7924  3.7263 -1.7293
63942SOL     OW 2139   7.788  11.417   7.437 -0.1919  0.0834  0.0842
63942SOL    HW1 2140   7.798  11.496   7.490  1.0728  0.6745 -0.9812
63942SOL    HW2 2141   7.870  11.410   7.388 -0.0480 -2.1992  0.5411
63943SOL     OW 2142   6.142   9.136   3.091 -0.1117  0.3894  0.3351
63943SOL    HW1 2143   6.172   9.178   3.011 -0.4803  0.6982  0.3558
63943SOL    HW2 2144   6.172   9.193   3.162 -2.4824  1.8275  0.2657
63944SOL     OW 2145   6.126   7.822  12.728 -0.5844  0.4937  0.1133
63944SOL    HW1 2146   6.060   7.871  12.679 -1.2896  1.0048  1.5210
63944SOL    HW2 2147   6.086   7.736  12.742 -1.6552  1.2731  2.2571
63945SOL     OW 2148  11.660  11.550   6.049 -0.4352 -0.0756  0.0733
63945SOL    HW1 2149  11.641  11.527   5.958  4.1918 -0.9316 -0.9209
63945SOL    HW2 2150  11.695  11.639   6.045  1.5353 -0.7607  0.5942
63946SOL     OW 2151  11.221   5.007   8.726  0.2597 -0.0202  0.3748
63946SOL    HW1 2152  11.223   4.978   8.634  0.0090 -0.1942  0.4222
63946SOL    HW2 2153  11.301   5.057   8.737  0.0945  0.3474 -0.0579
63947SOL     OW 2154  10.904   6.640   4.426 -0.1560 -0.1465 -0.2003
63947SOL    HW1 2155  10.820   6.654   4.470  0.3964 -0.3666  0.9619
63947SOL    HW2 2156  10.881   6.589   4.347 -1.0730 -0.4749  0.2623
63948SOL     OW 2157   7.005   0.187   6.990  0.2718 -0.8263  0.1448
63948SOL    HW1 2158   7.068   0.196   7.061  0.1815 -0.9747  0.2424
63948SOL    HW2 2159   7.032   0.107   6.944  1.1089 -0.0600 -0.7611
63949SOL     OW 2160   1.657   1.454  10.886 -0.5847 -0.6410 -0.7715
63949SOL    HW1 2161   1.594   1.389  10.853 -0.6869 -0.8849 -0.1151
63949SOL    HW2 2162   1.630   1.469  10.977  0.1973 -0.6089 -0.5419
63950SOL     OW 2163   4.218   1.480   1.536 -0.4006 -0.1669 -0.0513
63950SOL    HW1 2164   4.156   1.530   1.484  0.3255 -1.5373 -2.3784
63950SOL    HW2 2165   4.163   1.422   1.590 -1.1639  1.3284  0.8501
63951SOL     OW 2166   0.894  12.433   8.397  0.5285 -0.3038 -0.1078
63951SOL    HW1 2167   0.926  12.427   8.487  0.4651  0.0145 -0.0626
63951SOL    HW2 2168   0.828  12.364   8.390  0.7168 -0.4973  0.0119
63952SOL     OW 2169   9.923  10.501   6.259  0.0711  0.0026 -0.2851
63952SOL    HW1 2170   9.895  10.417   6.296 -1.9240  0.7321 -0.0006
63952SOL    HW2 2171  10.017  10.492   6.248  0.4338 -1.1317  2.7553
63953SOL     OW 2172   1.444   8.118   0.830 -0.6357 -0.6972 -0.1271
63953SOL    HW1 2173   1.447   8.023   0.815 -0.5165 -0.6021 -0.7544
63953SOL    HW2 2174   1.494   8.155   0.757 -0.8077 -0.1426  0.0332
63954SOL     OW 2175   9.431  12.827   4.150  0.0931 -0.3222  0.1663
63954SOL    HW1 2176   9.509  12.772   4.158  0.2489 -0.0616  0.4655
63954SOL    HW2 2177   9.438  12.889   4.222 -1.1660 -1.2597  1.1324
63955SOL     OW 2178   1.376   8.986  11.757 -0.2223 -0.1392  0.4715
63955SOL    HW1 2179   1.301   9.012  11.704 -0.5455 -0.6773  0.6583
63955SOL    HW2 2180   1.446   9.046  11.731 -0.3663 -0.4100 -0.5824
63956SOL     OW 2181   3.222   5.206  10.663 -0.5002  0.0051  0.5942
63956SOL    HW1 2182   3.297   5.147  10.662  0.2984  0.9943  0.0057
63956SOL    HW2 2183   3.211   5.233  10.572  0.1113  1.9157  1.0463
63957SOL     OW 2184   8.297   7.873   3.719  0.1526 -0.5416 -0.2458
63957SOL    HW1 2185   8.227   7.938   3.714 -0.0044 -0.7807 -1.3624
63957SOL    HW2 2186   8.371   7.914   3.675  0.9075 -0.0845  1.3810
63958SOL     OW 2187  10.812   5.646  12.547 -0.2316 -0.0343  1.1120
63958SOL    HW1 2188  10.718   5.645  12.528 -0.2011  0.1168  0.9519
63958SOL    HW2 2189  10.818   5.614  12.637 -0.3406 -1.1217  0.7356
63959SOL     OW 2190  10.022   7.190  11.355  0.0094  0.9793  0.8029
63959SOL    HW1 2191   9.938   7.153  11.329 -0.1458  0.5326  1.8895
63959SOL    HW2 2192  10.009   7.217  11.446  0.9993  1.0266  0.9400
63960SOL     OW 2193  12.222  10.738   9.439  0.1959 -0.7659 -0.0757
63960SOL    HW1 2194  12.153  10.714   9.501  0.8947  1.9381  1.9171
63960SOL    HW2 2195  12.191  10.819   9.400  1.0672 -0.9460 -1.1775
63961SOL     OW 2196  12.323  12.120  10.016 -0.4198 -0.2611 -0.2329
63961SOL    HW1 2197  12.383  12.153  10.084  0.2658 -2.2870  0.2455
63961SOL    HW2 2198  12.377  12.059   9.965 -1.7445 -1.2133 -0.5577
63962SOL     OW 2199  11.209  10.747   8.034  0.0149 -0.3661  0.4136
63962SOL    HW1 2200  11.263  10.819   8.000  1.0864 -0.0612  2.5717
63962SOL    HW2 2201  11.119  10.778   8.023  0.4472  1.2934  1.1718
63963SOL     OW 2202   7.457   0.411   6.764 -1.0057 -0.5849  0.0615
63963SOL    HW1 2203   7.432   0.377   6.849  0.1318 -0.4403  0.4833
63963SOL    HW2 2204   7.375   0.437   6.722 -1.5525 -0.3898  1.2304
63964SOL     OW 2205  11.482   7.990   5.956  0.0716  0.0956  0.3822
63964SOL    HW1 2206  11.421   8.059   5.983  0.9181  0.5452  1.2246
63964SOL    HW2 2207  11.568   8.029   5.966  0.5187  0.2947 -3.0581
63965SOL     OW 2208   9.418  11.335  11.642 -0.2477 -0.1746 -0.1288
63965SOL    HW1 2209   9.398  11.352  11.735 -2.0080 -3.7611  0.3078
63965SOL    HW2 2210   9.505  11.295  11.643  0.1308  0.6303 -0.1640
63966SOL     OW 2211   4.806   4.394   1.601 -0.0922 -0.0320  0.2284
63966SOL    HW1 2212   4.777   4.373   1.690 -1.4248  1.5719  0.2229
63966SOL    HW2 2213   4.881   4.337   1.586 -0.4485 -1.0430  2.0102
63967SOL     OW 2214   2.445   9.059   7.925  0.3246  0.0807 -0.8945
63967SOL    HW1 2215   2.446   8.982   7.982 -0.2519 -0.7365 -1.9478
63967SOL    HW2 2216   2.504   9.121   7.968 -0.3544 -0.3591  0.7568
63968SOL     OW 2217  12.544   4.457   6.789  0.4675  0.4876 -0.2139
63968SOL    HW1 2218  12.480   4.497   6.848  1.9907  0.6943  1.3780
63968SOL    HW2 2219  12.533   4.504   6.706 -0.5886  1.3599  0.3988
63969SOL     OW 2220  12.319   6.727  10.804 -0.2579 -0.1302 -0.0389
63969SOL    HW1 2221  12.360   6.699  10.722 -1.0273  2.7041 -1.5198
63969SOL    HW2 2222  12.390   6.769  10.853 -0.1901 -0.2081 -0.0707
63970SOL     OW 2223   8.799  10.583   4.369  0.3861  0.0064 -0.1923
63970SOL    HW1 2224   8.871  10.646   4.371  0.4382 -0.0616  0.1232
63970SOL    HW2 2225   8.782  10.570   4.276  0.4152  0.4396 -0.2626
63971SOL     OW 2226   6.775  12.981   1.215  0.1131 -0.5062 -0.2862
63971SOL    HW1 2227   6.795  12.998   1.307 -0.3338 -2.3816  0.2131
63971SOL    HW2 2228   6.822  12.899   1.195 -1.7671 -1.4898 -0.9503
63972SOL     OW 2229  12.498   6.799   6.986 -0.3481  0.3971  0.1017
63972SOL    HW1 2230  12.459   6.714   6.966 -2.2195  1.6090 -1.9376
63972SOL    HW2 2231  12.571   6.807   6.924 -2.6227  1.7823 -2.6316
63973SOL     OW 2232   7.127  10.939   0.827 -0.7115  0.1766 -0.0808
63973SOL    HW1 2233   7.069  11.016   0.830 -1.4258 -0.3515 -0.0417
63973SOL    HW2 2234   7.087  10.881   0.762  0.2027  0.1292 -0.6184
63974SOL     OW 2235   3.694   8.009   7.850  0.7494 -0.4218 -0.6258
63974SOL    HW1 2236   3.789   8.002   7.863  0.2933 -0.8833  3.7067
63974SOL    HW2 2237   3.658   7.937   7.901 -2.0117 -0.0848 -1.9542
63975SOL     OW 2238   0.670  11.619  10.222 -0.0037 -0.8533 -0.3102
63975SOL    HW1 2239   0.734  11.681  10.187 -0.0975 -0.8721 -0.5145
63975SOL    HW2 2240   0.592  11.633  10.170 -0.2273 -0.6978  0.0609
63976SOL     OW 2241  12.533   8.854   4.026  0.2600 -0.6290  0.4568
63976SOL    HW1 2242  12.554   8.867   3.933  0.6920 -0.9899  0.5036
63976SOL    HW2 2243  12.537   8.941   4.064 -0.9850 -0.3040 -0.0752
63977SOL     OW 2244   1.914   4.577  10.351 -0.3205  0.1333  0.5856
63977SOL    HW1 2245   1.989   4.524  10.380  0.9432  0.3794 -1.9200
63977SOL    HW2 2246   1.940   4.667  10.370 -0.3022  0.1657  0.4110
63978SOL     OW 2247   7.218   7.284   8.910 -0.1319 -0.6309  0.4527
63978SOL    HW1 2248   7.222   7.380   8.917 -2.5047 -0.5027  1.1671
63978SOL    HW2 2249   7.307   7.257   8.890  0.7548  1.6749  0.9936
63979SOL     OW 2250   5.551  10.961   0.224 -0.5247 -0.0631 -0.4844
63979SOL    HW1 2251   5.647  10.967   0.218 -0.5102  1.4527  0.5990
63979SOL    HW2 2252   5.527  10.894   0.161  1.3270 -1.0661 -0.1956
63980SOL     OW 2253   1.038  11.080   8.138  0.6455  0.2951  0.2759
63980SOL    HW1 2254   1.095  11.094   8.214  1.4040  0.9558 -0.4003
63980SOL    HW2 2255   1.099  11.064   8.065 -0.0376  0.6630 -0.3869
63981SOL     OW 2256   2.447   8.558   7.467 -0.5849  0.0579 -0.7919
63981SOL    HW1 2257   2.467   8.518   7.382 -0.6376 -0.4816 -0.5553
63981SOL    HW2 2258   2.497   8.639   7.467 -0.3206 -0.0965 -1.2066
63982SOL     OW 2259   8.342   6.079   7.022  0.9392 -0.1499  0.1303
63982SOL    HW1 2260   8.417   6.095   6.966  2.2084  0.3202  1.8857
63982SOL    HW2 2261   8.378   6.033   7.098 -0.9170 -1.9294  0.0484
63983SOL     OW 2262   4.172   7.696  12.044  0.3445 -0.5083  0.7710
63983SOL    HW1 2263   4.234   7.741  12.101 -0.5322  1.8540 -0.0088
63983SOL    HW2 2264   4.101   7.759  12.032 -1.3934 -2.4836  0.2759
63984SOL     OW 2265  10.350   6.048  12.888  0.0770 -0.2310  0.1532
63984SOL    HW1 2266  10.392   6.080  12.808 -1.1449  1.4583  0.1317
63984SOL    HW2 2267  10.270   6.005  12.857 -0.0269 -0.2266  0.4139
63985SOL     OW 2268   2.819   0.409   8.667 -0.3068  0.0565 -0.0072
63985SOL    HW1 2269   2.882   0.463   8.619 -0.7429 -0.4293 -1.1515
63985SOL    HW2 2270   2.761   0.373   8.600 -1.0095 -0.5526  0.8956
63986SOL     OW 2271   6.214   8.974   7.664 -0.3045  0.8584 -0.5317
63986SOL    HW1 2272   6.200   8.993   7.756 -0.2756  1.3899 -0.6343
63986SOL    HW2 2273   6.307   8.956   7.657 -0.4740 -0.2237 -0.2835
63987SOL     OW 2274  11.920   8.104   9.647 -0.0449  0.5154 -0.1997
63987SOL    HW1 2275  11.864   8.182   9.641 -0.6485  0.0446 -0.8588
63987SOL    HW2 2276  11.861   8.035   9.677  0.7767  0.5866  1.7477
63988SOL     OW 2277   4.581   3.034   4.949  0.2720 -0.0339 -0.0398
63988SOL    HW1 2278   4.634   3.079   4.883 -0.1241 -1.5038 -1.4350
63988SOL    HW2 2279   4.634   2.960   4.977 -0.1507 -0.2586  0.1807
63989SOL     OW 2280   8.709   9.681  10.949 -0.4409  0.2235  0.4251
63989SOL    HW1 2281   8.743   9.762  10.985  0.4429  0.0715 -0.0253
63989SOL    HW2 2282   8.687   9.627  11.025  2.9591 -0.7604  0.8741
63990SOL     OW 2283   3.910   4.734   9.028  0.4233 -0.0655  0.4638
63990SOL    HW1 2284   3.994   4.688   9.019  0.5532  0.1031  0.8029
63990SOL    HW2 2285   3.882   4.750   8.938  1.3879  1.0245  0.3313
63991SOL     OW 2286  11.266   1.580  12.472  0.1712  0.2891  0.7882
63991SOL    HW1 2287  11.208   1.606  12.544 -0.7431 -1.7632  0.8650
63991SOL    HW2 2288  11.208   1.540  12.407  1.2875 -0.2153  0.0753
63992SOL     OW 2289   0.882   3.264  11.734 -0.1477 -0.5892  0.0980
63992SOL    HW1 2290   0.976   3.249  11.747  0.4510  1.5235 -1.1776
63992SOL    HW2 2291   0.844   3.257  11.822  1.2872 -0.8959  0.7269
63993SOL     OW 2292   1.839  10.300   6.101 -0.2072 -0.4196  0.5082
63993SOL    HW1 2293   1.799  10.250   6.031  0.1036  0.2632 -0.1745
63993SOL    HW2 2294   1.854  10.236   6.171  0.8531 -1.4376 -0.6087
63994SOL     OW 2295  11.458   7.890   3.254 -0.0563  0.0163 -0.2727
63994SOL    HW1 2296  11.481   7.874   3.162  4.3133 -1.3647  0.8116
63994SOL    HW2 2297  11.497   7.975   3.274  2.3591 -1.3013  1.0745
63995SOL     OW 2298   7.106   9.355   7.004 -0.0471  0.6736  0.2812
63995SOL    HW1 2299   7.064   9.281   7.047  1.5871 -0.1663  0.5273
63995SOL    HW2 2300   7.150   9.402   7.075  1.6384 -0.0184 -0.2440
63996SOL     OW 2301   9.147   5.755   6.201  0.0474  0.1558 -0.2178
63996SOL    HW1 2302   9.181   5.707   6.276  1.3167 -0.0909 -0.9184
63996SOL    HW2 2303   9.194   5.718   6.126  0.5257  1.9855 -0.8656
63997SOL     OW 2304  11.917   8.322  12.911 -0.4290  0.0840 -0.3619
63997SOL    HW1 2305  11.935   8.377  12.835  1.1322  0.6936  0.4058
63997SOL    HW2 2306  11.835   8.278  12.890  0.2718 -0.2514 -2.6719
63998SOL     OW 2307   3.553   1.443   8.879  0.1359 -0.2955  0.0153
63998SOL    HW1 2308   3.540   1.442   8.974 -2.3106 -0.5115 -0.2575
63998SOL    HW2 2309   3.553   1.536   8.856 -2.8543 -0.2265 -0.0958
63999SOL     OW 2310   9.975   5.438   2.520  0.5704 -0.4104 -0.1676
63999SOL    HW1 2311   9.970   5.533   2.536  0.2310 -0.6586  1.4223
63999SOL    HW2 2312   9.901   5.402   2.569 -0.3752 -1.3662 -2.2020
64000SOL     OW 2313   0.014   0.533  11.934  0.4074  0.1631  0.0378
64000SOL    HW1 2314  -0.032   0.605  11.890 -0.1236 -0.4656 -0.4457
64000SOL    HW2 2315  -0.040   0.512  12.010 -0.7208 -1.2899 -1.1095
64001SOL     OW 2316  12.823   7.019   3.358  0.1193  0.5147 -0.0503
64001SOL    HW1 2317  12.728   7.017   3.362  0.0942 -0.7543 -0.8557
64001SOL    HW2 2318  12.843   7.061   3.274  0.2785  1.0268  0.2405
64002SOL     OW 2319   2.280   3.632  11.275 -0.6139  0.1233  0.7773
64002SOL    HW1 2320   2.228   3.582  11.338 -1.5718 -0.3139 -0.3122
64002SOL    HW2 2321   2.358   3.580  11.260 -2.3967 -2.1479 -1.7280
64003SOL     OW 2322  11.416   1.079  11.018  0.0925  0.5139  0.3171
64003SOL    HW1 2323  11.467   1.159  11.007  0.3816  0.4602  1.2013
64003SOL    HW2 2324  11.436   1.049  11.107 -1.4291  0.4574  0.6711
64004SOL     OW 2325   2.759   3.741   5.841 -0.3541 -1.0668 -0.6667
64004SOL    HW1 2326   2.818   3.709   5.773  1.0307 -0.5006  0.2406
64004SOL    HW2 2327   2.793   3.705   5.923 -0.6847  0.0501 -0.0084
64005SOL     OW 2328  11.453   9.272   7.119 -0.2719  0.1849 -0.3547
64005SOL    HW1 2329  11.440   9.350   7.173  0.5994  1.3980 -1.8311
64005SOL    HW2 2330  11.544   9.247   7.134 -0.6676 -0.8391  0.4455
64006SOL     OW 2331   8.847   5.133   5.752 -0.4231 -0.4575 -0.3620
64006SOL    HW1 2332   8.882   5.139   5.841  0.7303 -1.3399 -0.7253
64006SOL    HW2 2333   8.846   5.223   5.720 -0.8071 -0.1389  0.5304
64007SOL     OW 2334   5.748   2.441   8.053  0.7308  0.7951  0.1429
64007SOL    HW1 2335   5.815   2.381   8.020 -1.2470 -0.9940 -0.8823
64007SOL    HW2 2336   5.742   2.423   8.147  0.4335 -0.3668 -0.0914
64008SOL     OW 2337   2.116   8.531   0.902  0.0641 -0.6583  0.3703
64008SOL    HW1 2338   2.074   8.446   0.910 -1.3390 -0.1370 -1.0793
64008SOL    HW2 2339   2.109   8.569   0.990 -1.5926 -1.0204  0.4251
64009SOL     OW 2340   3.130  11.898   2.031 -0.4278  0.0536 -0.8976
64009SOL    HW1 2341   3.171  11.959   2.092 -0.9741 -0.1812 -0.2918
64009SOL    HW2 2342   3.158  11.929   1.945  0.2730  0.4449 -0.5412
64010SOL     OW 2343  11.768   7.180   5.132 -0.9363  0.6306  0.8073
64010SOL    HW1 2344  11.749   7.087   5.121 -3.5501  0.8033  2.7285
64010SOL    HW2 2345  11.735   7.221   5.052  0.8887 -0.1040 -0.3718
64011SOL     OW 2346   2.425   5.284   4.718 -0.4655 -0.2749 -0.4085
64011SOL    HW1 2347   2.412   5.313   4.627 -1.1723 -1.0544 -0.5783
64011SOL    HW2 2348   2.500   5.225   4.713 -0.0213  0.2845 -0.3469
64012SOL     OW 2349   4.521   3.019   8.772 -0.6058 -0.1296  0.2126
64012SOL    HW1 2350   4.496   3.110   8.784 -0.6539 -0.1960  0.6276
64012SOL    HW2 2351   4.559   3.016   8.684 -0.3806  0.3358  0.2896
64013SOL     OW 2352   6.376   1.767  11.874  0.5654 -0.1361  0.2678
64013SOL    HW1 2353   6.300   1.756  11.818  0.3013 -0.7482  0.7386
64013SOL    HW2 2354   6.421   1.683  11.871  0.3967 -0.2755  1.1753
64014SOL     OW 2355   1.066   0.247  10.114 -0.4530  0.4231  0.1501
64014SOL    HW1 2356   1.019   0.328  10.097  0.7306  1.1757  0.2934
64014SOL    HW2 2357   1.053   0.230  10.207  0.7947  1.4949  0.5581
64015SOL     OW 2358   6.786   2.465  12.853  0.1341 -0.9660  0.3861
64015SOL    HW1 2359   6.878   2.468  12.828  1.2777 -0.4258  4.0174
64015SOL    HW2 2360   6.763   2.372  12.851 -0.6204 -0.9246 -4.2403
64016SOL     OW 2361  12.336   1.925   6.659  0.2054  0.4485 -0.0232
64016SOL    HW1 2362  12.356   1.863   6.589  0.8757  1.3630 -0.6617
64016SOL    HW2 2363  12.267   1.882   6.710 -1.2177  0.3162 -1.9813
64017SOL     OW 2364   5.767  12.302   8.999  0.0318  0.2662 -0.2807
64017SOL    HW1 2365   5.791  12.210   9.010 -0.7833  0.1085  0.1990
64017SOL    HW2 2366   5.726  12.326   9.082 -0.1599  0.9435 -0.5703
64018SOL     OW 2367   9.165  12.204   1.843 -0.2641  0.2282 -0.2900
64018SOL    HW1 2368   9.162  12.217   1.938  1.9607  1.8131 -0.3338
64018SOL    HW2 2369   9.142  12.290   1.807 -0.5918 -0.2261 -1.1832
64019SOL     OW 2370  12.298   0.738   8.959  0.4047 -0.2505  0.2562
64019SOL    HW1 2371  12.216   0.748   9.008  0.7735  1.5166  0.5950
64019SOL    HW2 2372  12.359   0.699   9.022  0.5030  0.7656  0.8067
64020SOL     OW 2373   0.465  12.372   8.645 -0.4370 -0.5449 -0.3616
64020SOL    HW1 2374   0.397  12.385   8.711 -1.3768  0.5908 -1.5068
64020SOL    HW2 2375   0.512  12.294   8.674 -0.7077  0.0120  1.7208
64021SOL     OW 2376   8.084   1.158  11.348  0.0523 -0.2176 -0.4611
64021SOL    HW1 2377   8.058   1.122  11.264  0.5655 -0.9484 -0.3136
64021SOL    HW2 2378   8.138   1.090  11.388  1.0649  0.7197 -0.1830
64022SOL     OW 2379   1.805  11.581   9.293  0.0477 -0.3586 -0.0315
64022SOL    HW1 2380   1.841  11.659   9.334 -0.2272  0.4550 -1.2663
64022SOL    HW2 2381   1.746  11.544   9.359  0.4592  0.2638  0.7051
64023SOL     OW 2382   6.329  10.968   8.208 -0.2537  0.0604  0.4473
64023SOL    HW1 2383   6.417  10.946   8.241  0.2256 -0.8306 -1.2702
64023SOL    HW2 2384   6.274  10.896   8.238  0.0177 -0.3562 -0.0327
64024SOL     OW 2385   7.011  11.358  10.234 -0.3230 -0.8265  0.4795
64024SOL    HW1 2386   6.971  11.316  10.311  1.2842 -0.2426  1.6854
64024SOL    HW2 2387   6.937  11.376  10.176 -1.7333 -0.4718  2.2797
64025SOL     OW 2388   6.004   9.198   4.652  0.0360  0.2777  0.1590
64025SOL    HW1 2389   5.966   9.150   4.726 -0.3204 -0.4547 -0.4894
64025SOL    HW2 2390   6.043   9.276   4.692  2.1502 -1.3591  1.4656
64026SOL     OW 2391  12.667  10.911   2.312 -0.1861 -0.2833  0.1571
64026SOL    HW1 2392  12.655  10.823   2.349  2.0642 -0.7924 -0.2195
64026SOL    HW2 2393  12.623  10.907   2.227 -2.0099 -0.3197  1.0489
64027SOL     OW 2394   4.168   2.384   9.303 -0.0432 -0.0760 -0.0548
64027SOL    HW1 2395   4.107   2.343   9.241 -0.4094  0.5789 -0.1374
64027SOL    HW2 2396   4.177   2.474   9.271 -0.3043  0.2904  0.8882
64028SOL     OW 2397   1.469   4.811   8.399 -0.0150  0.3355 -0.7041
64028SOL    HW1 2398   1.477   4.840   8.490  0.2777  0.2076 -0.6872
64028SOL    HW2 2399   1.383   4.770   8.394 -0.5921  1.5082 -0.8142
64029SOL     OW 2400   1.094   2.089   0.980  0.3344 -0.4716 -0.3193
64029SOL    HW1 2401   1.151   2.060   0.908  0.0924 -0.5483 -0.4804
64029SOL    HW2 2402   1.154   2.100   1.054  0.3842 -1.7635 -0.1408
64030SOL     OW 2403   0.747   4.715   1.760  0.7313  0.3298 -1.0612
64030SOL    HW1 2404   0.670   4.697   1.814  1.7921  0.3553  0.5448
64030SOL    HW2 2405   0.762   4.634   1.712  1.2250 -0.6531  0.6446
64031SOL     OW 2406   0.727   2.403   3.297 -0.1412 -0.2732 -0.2389
64031SOL    HW1 2407   0.813   2.422   3.259  0.6628 -1.2880  0.9691
64031SOL    HW2 2408   0.666   2.459   3.249  1.1348  0.1650 -1.4053
64032SOL     OW 2409   6.774   5.737   8.017 -0.2142  0.5846 -0.2434
64032SOL    HW1 2410   6.679   5.748   8.023 -0.1153  2.5571 -1.4389
64032SOL    HW2 2411   6.785   5.648   7.983 -1.5875  0.1167  0.4357
64033SOL     OW 2412   6.722   1.432  12.427  0.0134 -0.2775 -0.0446
64033SOL    HW1 2413   6.737   1.493  12.500  1.7627 -0.5892 -0.0959
64033SOL    HW2 2414   6.754   1.478  12.350  1.1838 -1.1553 -0.1138
64034SOL     OW 2415  12.977   2.007  11.535  0.7663 -0.5099  0.1907
64034SOL    HW1 2416  13.039   1.992  11.606  0.2046 -0.6192  0.6637
64034SOL    HW2 2417  12.901   2.047  11.577  0.2969 -0.8753 -0.2971
64035SOL     OW 2418   5.506   5.847  10.082  0.6016  0.4533 -0.6223
64035SOL    HW1 2419   5.551   5.781  10.029 -0.0872 -0.8447  0.3263
64035SOL    HW2 2420   5.513   5.928  10.032  0.3270 -0.6247 -2.4767
64036SOL     OW 2421   4.656   0.519   1.225 -0.0811  0.2036  0.4406
64036SOL    HW1 2422   4.612   0.456   1.167 -0.3536  0.9967 -0.2290
64036SOL    HW2 2423   4.628   0.494   1.313 -1.5019  0.3922  0.0668
64037SOL     OW 2424   6.587  10.550   8.800  1.0712 -0.3748  0.4481
64037SOL    HW1 2425   6.499  10.544   8.765  1.2822 -0.6287 -0.0528
64037SOL    HW2 2426   6.577  10.597   8.882  0.5729  0.3331 -0.0038
64038SOL     OW 2427  10.937   8.952   0.494 -0.5618  0.2447 -0.1319
64038SOL    HW1 2428  10.981   9.007   0.430  0.1732  1.0139  1.0080
64038SOL    HW2 2429  10.943   8.863   0.457 -0.4335  0.7005 -1.2576
64039SOL     OW 2430   4.442   8.120   4.900  0.3230  0.3301  0.4632
64039SOL    HW1 2431   4.405   8.162   4.823 -1.8440 -0.2273  1.1281
64039SOL    HW2 2432   4.399   8.163   4.974  0.2552 -1.0204  1.2497
64040SOL     OW 2433   6.520   9.564   0.662  0.4265 -0.1291  0.6596
64040SOL    HW1 2434   6.544   9.653   0.688 -0.5044  0.6208 -0.8910
64040SOL    HW2 2435   6.480   9.575   0.576 -1.4663 -1.8250  1.2663
64041SOL     OW 2436   1.799   8.731   5.599  0.3381  0.9155 -0.1705
64041SOL    HW1 2437   1.743   8.805   5.576  0.7969  0.7046 -2.1461
64041SOL    HW2 2438   1.795   8.727   5.694 -0.5028  2.8427 -0.0722
64042SOL     OW 2439  12.008   4.466   9.899  0.4453  0.2604  0.0236
64042SOL    HW1 2440  11.967   4.423   9.974  1.6076  1.0799  1.1746
64042SOL    HW2 2441  11.937   4.476   9.836 -0.3157 -1.4243  0.5579
64043SOL     OW 2442   5.869   4.082   7.358 -0.1129  0.2318 -0.8250
64043SOL    HW1 2443   5.961   4.067   7.380  0.1764  2.8278  0.0049
64043SOL    HW2 2444   5.823   4.007   7.396  1.3828  0.1891  1.0610
64044SOL     OW 2445   4.361   8.007  11.138  0.0283 -0.0476  0.1594
64044SOL    HW1 2446   4.341   8.088  11.184  2.2926  1.0015 -0.5629
64044SOL    HW2 2447   4.369   8.033  11.046 -1.2708 -1.5020 -0.4041
64045SOL     OW 2448   0.675   4.798   9.287  0.3927 -0.1090 -0.4189
64045SOL    HW1 2449   0.757   4.748   9.293  1.3018  1.2067 -1.1671
64045SOL    HW2 2450   0.704   4.890   9.286 -0.9526  0.3570 -2.4164
64046SOL     OW 2451  12.974  11.722   2.372  0.2625 -0.2804  0.1529
64046SOL    HW1 2452  12.969  11.756   2.461  1.0530 -1.4179  0.6531
64046SOL    HW2 2453  12.895  11.670   2.361  0.4255 -0.5795  0.3866
64047SOL     OW 2454   5.947   6.916   1.705  0.0348  0.0848 -0.1185
64047SOL    HW1 2455   6.022   6.965   1.670 -0.4294  0.8139 -0.1246
64047SOL    HW2 2456   5.912   6.870   1.629  0.2872 -0.0035 -0.1827
64048SOL     OW 2457   0.147   0.250  11.028 -0.2878  0.1399 -0.5869
64048SOL    HW1 2458   0.224   0.270  11.081  0.2459  0.9610 -1.6399
64048SOL    HW2 2459   0.073   0.282  11.081  0.0606 -0.7198  0.4601
64049SOL     OW 2460  11.416   8.424   3.791 -0.0023 -0.0165 -0.3494
64049SOL    HW1 2461  11.334   8.445   3.746 -0.3428 -0.5357  0.0203
64049SOL    HW2 2462  11.481   8.479   3.749 -0.5295  0.3457 -0.7006
64050SOL     OW 2463  10.641   8.886  12.484 -0.3146  0.1813  0.7954
64050SOL    HW1 2464  10.723   8.882  12.436 -0.7087  0.5675  0.0778
64050SOL    HW2 2465  10.592   8.958  12.444 -2.5276 -2.2864 -1.3108
64051SOL     OW 2466   4.592   8.363   0.123 -0.1932 -0.4854  0.1365
64051SOL    HW1 2467   4.618   8.437   0.178 -2.0462 -0.5347  1.1479
64051SOL    HW2 2468   4.579   8.402   0.036 -0.7402  0.3148  0.5585
64052SOL     OW 2469  11.878   0.997   1.630 -0.6264 -0.3007  0.5964
64052SOL    HW1 2470  11.849   1.068   1.573 -1.4489 -0.4375  0.8177
64052SOL    HW2 2471  11.973   1.006   1.635 -0.5878 -0.0141 -0.4268
64053SOL     OW 2472  11.056   9.212  10.727  0.2121 -0.8164 -0.4458
64053SOL    HW1 2473  11.043   9.227  10.821  0.9273  1.1324 -0.6091
64053SOL    HW2 2474  11.151   9.208  10.716  0.2088  0.6629 -1.2738
64054SOL     OW 2475  12.113  12.662   2.603 -0.3117  0.5565 -0.4711
64054SOL    HW1 2476  12.102  12.748   2.642 -0.4504 -0.2961  1.4568
64054SOL    HW2 2477  12.198  12.632   2.633 -1.1604 -0.8325  0.6611
64055SOL     OW 2478   4.511   6.826   2.956 -0.2051 -0.9364  0.1058
64055SOL    HW1 2479   4.485   6.739   2.986 -0.8242 -0.8158 -0.0614
64055SOL    HW2 2480   4.597   6.840   2.994 -0.6952 -1.0470  1.2980
64056SOL     OW 2481   2.254   9.920  12.762  0.4819 -0.1524 -0.4255
64056SOL    HW1 2482   2.247   9.957  12.674  0.9979  0.7612 -0.0930
64056SOL    HW2 2483   2.304   9.840  12.751  0.4172 -0.1149 -0.9852
64057SOL     OW 2484   3.860   3.184   6.801  0.1823 -0.1123  0.2375
64057SOL    HW1 2485   3.800   3.181   6.727 -0.7792 -0.8633  1.0231
64057SOL    HW2 2486   3.861   3.276   6.827 -1.2077 -0.1978  0.6630
64058SOL     OW 2487  12.098   2.878   0.900  0.2782 -0.4472 -0.3645
64058SOL    HW1 2488  12.188   2.906   0.887  0.8589 -1.2558  1.6136
64058SOL    HW2 2489  12.093   2.853   0.992 -1.6848 -1.4624 -0.6881
64059SOL     OW 2490   0.652  10.582   9.855  0.4776  0.2004  0.0314
64059SOL    HW1 2491   0.650  10.501   9.804  0.9229  0.2190 -0.0158
64059SOL    HW2 2492   0.731  10.574   9.909  0.1887  0.3273  0.4758
64060SOL     OW 2493   1.983   9.193  12.329  0.0180 -0.9015  0.3109
64060SOL    HW1 2494   2.048   9.123  12.325  0.8076 -0.2473  1.4605
64060SOL    HW2 2495   1.909   9.154  12.376  0.0962 -1.2245  0.1716
64061SOL     OW 2496  11.319   2.541   7.101 -0.2135  0.0544 -0.0781
64061SOL    HW1 2497  11.265   2.513   7.175 -2.6631  0.7602 -1.4894
64061SOL    HW2 2498  11.313   2.469   7.039  0.3084  0.2530 -0.3698
64062SOL     OW 2499   9.269  11.181  10.994  0.2159  0.4153 -0.2360
64062SOL    HW1 2500   9.211  11.192  10.918 -0.3464  1.6429  0.3375
64062SOL    HW2 2501   9.215  11.203  11.069  1.5667  2.2719  0.2747
64063SOL     OW 2502   5.403   5.257   2.411  0.2731 -0.4502 -0.3281
64063SOL    HW1 2503   5.458   5.334   2.402 -0.7506  0.3567  0.1984
64063SOL    HW2 2504   5.365   5.245   2.324  0.0012 -0.0246 -0.2699
64064SOL     OW 2505  11.331   1.517   5.994  0.1525  0.0075 -0.2246
64064SOL    HW1 2506  11.353   1.497   5.903  0.7767 -1.1677  0.1585
64064SOL    HW2 2507  11.403   1.480   6.045 -0.6166 -0.1250  0.8061
64065SOL     OW 2508   5.612   2.952   3.685 -0.0563 -0.0751  0.6458
64065SOL    HW1 2509   5.516   2.948   3.692 -0.2581 -2.3556 -1.6754
64065SOL    HW2 2510   5.642   2.868   3.717  1.2116  0.6193  1.3560
64066SOL     OW 2511   2.770   0.010   6.800 -0.1266 -0.0147  0.0704
64066SOL    HW1 2512   2.827   0.065   6.854 -1.4348  0.9401  0.5389
64066SOL    HW2 2513   2.820  -0.005   6.720  0.8174  0.7204  0.5022
64067SOL     OW 2514   2.926  10.510   7.092 -0.1108  0.4160 -0.0347
64067SOL    HW1 2515   2.895  10.497   7.182 -0.2968  0.6800 -0.0596
64067SOL    HW2 2516   3.014  10.471   7.091  0.1855  1.0587  0.4576
64068SOL     OW 2517   4.704   9.504  10.965 -0.4906 -0.5882 -0.1179
64068SOL    HW1 2518   4.662   9.538  10.886 -0.3033 -1.1677 -0.4699
64068SOL    HW2 2519   4.700   9.577  11.027 -1.0632 -0.2850 -0.5009
64069SOL     OW 2520   4.109   7.432  12.147  0.0935  0.3796 -0.3289
64069SOL    HW1 2521   4.093   7.392  12.062  1.2799 -0.3968 -0.2145
64069SOL    HW2 2522   4.136   7.522  12.126  0.7089  0.0934 -0.8033
64070SOL     OW 2523   5.628   8.701  11.710 -0.0911  0.4003  0.0880
64070SOL    HW1 2524   5.676   8.784  11.704 -1.1906  0.9806 -1.3598
64070SOL    HW2 2525   5.669   8.644  11.645 -0.3238  0.3492 -0.0160
64071SOL     OW 2526   3.138   5.104   6.240  0.3375  0.3183  0.4986
64071SOL    HW1 2527   3.065   5.139   6.290 -1.4179 -2.6743  0.2848
64071SOL    HW2 2528   3.174   5.035   6.295 -0.3257 -1.6547 -1.4097
64072SOL     OW 2529   2.796   2.130   4.835  0.0295  0.1995 -0.4637
64072SOL    HW1 2530   2.792   2.145   4.741 -0.9843  0.4457 -0.3879
64072SOL    HW2 2531   2.885   2.096   4.850  0.4829  0.9479 -1.3841
64073SOL     OW 2532   0.053   8.786   9.583  0.5781  0.4383  0.7814
64073SOL    HW1 2533   0.055   8.709   9.527 -0.3908  0.4897  0.6666
64073SOL    HW2 2534   0.142   8.792   9.618  1.1000  0.1925 -0.4488
64074SOL     OW 2535   0.313   8.350  10.574  0.2950  0.2001  0.2020
64074SOL    HW1 2536   0.401   8.368  10.607  1.7976 -3.9704 -0.8213
64074SOL    HW2 2537   0.323   8.341  10.480 -0.9562 -1.3207  0.1596
64075SOL     OW 2538   3.084   1.370  10.215  0.0335 -0.0813 -0.1328
64075SOL    HW1 2539   3.043   1.451  10.245  2.1053  1.6775 -1.7201
64075SOL    HW2 2540   3.171   1.370  10.256  0.6434 -0.7077 -1.3669
64076SOL     OW 2541   3.060   7.450   4.463 -0.4015  0.6992  0.4452
64076SOL    HW1 2542   2.993   7.487   4.406  0.1612 -1.6983 -1.9672
64076SOL    HW2 2543   3.010   7.403   4.531 -1.2414 -0.6112 -1.0125
64077SOL     OW 2544  12.471   4.748   2.222  0.6120 -0.2793 -0.0750
64077SOL    HW1 2545  12.522   4.803   2.162 -0.5193  1.2244  0.2878
64077SOL    HW2 2546  12.384   4.742   2.181  0.6128 -1.5338  0.0685
64078SOL     OW 2547   9.938   3.661   6.750 -0.1530  0.4137 -0.4515
64078SOL    HW1 2548  10.015   3.612   6.778 -0.6520  0.4255  1.0428
64078SOL    HW2 2549   9.898   3.607   6.682  0.9800  0.2464 -0.9933
64079SOL     OW 2550   2.880   3.691   4.940 -0.1125  0.2284  0.1534
64079SOL    HW1 2551   2.791   3.718   4.964 -0.1488  0.7818 -0.5715
64079SOL    HW2 2552   2.867   3.614   4.884  0.0188 -1.9168  2.8729
64080SOL     OW 2553   8.666   9.657   7.800  0.4561 -0.4791 -1.1199
64080SOL    HW1 2554   8.574   9.653   7.775 -0.0679 -0.1517  0.6272
64080SOL    HW2 2555   8.693   9.746   7.778 -0.3748  0.2444  0.6054
64081SOL     OW 2556   8.042   1.638   7.114 -0.1942  0.1199 -0.2895
64081SOL    HW1 2557   8.131   1.610   7.092 -1.0754 -2.5707 -0.7856
64081SOL    HW2 2558   8.027   1.605   7.202 -1.2202 -0.8799 -0.8104
64082SOL     OW 2559   4.996  10.261   7.706 -0.5889  0.0551 -0.1806
64082SOL    HW1 2560   5.069  10.212   7.668 -0.5975 -0.6756  0.7119
64082SOL    HW2 2561   4.978  10.216   7.788 -0.8341  1.3666  0.4947
64083SOL     OW 2562   5.676   1.473   8.560  0.0414 -0.4285 -0.1359
64083SOL    HW1 2563   5.584   1.493   8.543 -0.1356 -0.2948  0.9274
64083SOL    HW2 2564   5.700   1.528   8.634  2.0012  2.1360 -2.5018
64084SOL     OW 2565   1.383  10.864   1.521 -0.1308  0.0524 -1.1811
64084SOL    HW1 2566   1.367  10.802   1.592  0.5568 -1.2008 -2.0648
64084SOL    HW2 2567   1.297  10.903   1.504 -0.3888  0.0680  0.0438
64085SOL     OW 2568   9.689  12.647  12.307 -0.2051  0.2979 -0.3450
64085SOL    HW1 2569   9.646  12.565  12.332 -0.8066  0.2561 -1.4282
64085SOL    HW2 2570   9.778  12.639  12.341 -0.7015 -0.1313  0.9113
64086SOL     OW 2571   0.067   5.592   8.422  0.3085  0.4961 -0.5222
64086SOL    HW1 2572   0.087   5.647   8.347 -0.9562 -0.6168 -1.7134
64086SOL    HW2 2573  -0.024   5.610   8.443  0.4641  0.3306  0.3619
64087SOL     OW 2574   5.135   7.688  12.123 -0.4787  0.3959 -0.6345
64087SOL    HW1 2575   5.196   7.734  12.066 -0.9546  0.3807 -1.1701
64087SOL    HW2 2576   5.128   7.600  12.087 -1.6957  0.7344 -1.2957
64088SOL     OW 2577  10.073   9.691   7.998  0.2168 -0.2611 -0.3123
64088SOL    HW1 2578  10.100   9.625   8.062  1.6973  0.1836 -0.4319
64088SOL    HW2 2579  10.133   9.765   8.013 -0.4954  0.5010 -1.1058
64089SOL     OW 2580   7.359   4.202   1.877  0.4140  0.2032  0.3687
64089SOL    HW1 2581   7.314   4.185   1.794 -0.3566 -1.9241  1.1387
64089SOL    HW2 2582   7.413   4.279   1.860 -1.5363  1.3006 -1.3828
64090SOL     OW 2583   7.540  11.268  11.038 -0.7134  0.2262 -0.2904
64090SOL    HW1 2584   7.559  11.354  10.999 -2.6891  0.9944  0.3203
64090SOL    HW2 2585   7.598  11.264  11.114  0.7305  0.1817 -1.3561
64091SOL     OW 2586   3.319   0.009   8.616  0.1156  0.1385 -0.3437
64091SOL    HW1 2587   3.345   0.010   8.708 -0.0472  1.3880 -0.3025
64091SOL    HW2 2588   3.262   0.085   8.605  0.7680  0.4802 -1.6565
64092SOL     OW 2589  12.565   1.545   5.526  0.0977 -0.1284 -0.4400
64092SOL    HW1 2590  12.648   1.529   5.570  0.1956  0.3758 -0.4361
64092SOL    HW2 2591  12.561   1.640   5.516 -1.0452 -0.0419  0.6476
64093SOL     OW 2592  12.158   0.689   1.261  0.4033 -0.6303 -0.4674
64093SOL    HW1 2593  12.113   0.762   1.218 -1.5559 -1.0136  0.8102
64093SOL    HW2 2594  12.164   0.621   1.193  0.6385  0.0671 -1.1561
64094SOL     OW 2595  12.469   8.808   3.394 -0.2510  0.0330 -0.3279
64094SOL    HW1 2596  12.426   8.838   3.474  1.1209  0.4974  0.2747
64094SOL    HW2 2597  12.520   8.732   3.421  1.8601  1.3763 -0.2104
64095SOL     OW 2598   0.008  10.228   8.704 -0.2123 -0.2266 -0.4835
64095SOL    HW1 2599   0.023  10.311   8.660  0.2514  0.0442  0.1761
64095SOL    HW2 2600   0.079  10.171   8.673  0.2978  0.0595  0.1412
64096SOL     OW 2601  11.697  11.636   0.125 -0.5817  0.2085 -0.0792
64096SOL    HW1 2602  11.792  11.635   0.124 -0.5168  2.3340 -0.0555
64096SOL    HW2 2603  11.672  11.563   0.182  0.9834 -0.7210 -0.5248
64097SOL     OW 2604   2.757   6.361   9.952  0.2638 -0.0054 -0.7932
64097SOL    HW1 2605   2.758   6.457   9.963  0.4607 -0.0321 -0.5674
64097SOL    HW2 2606   2.708   6.329  10.027  1.1413 -0.1527 -0.2681
64098SOL     OW 2607  10.534   2.405   4.401  0.4066  0.2311  0.0949
64098SOL    HW1 2608  10.451   2.438   4.366 -0.2988 -1.4459  0.1137
64098SOL    HW2 2609  10.601   2.449   4.349 -0.4539  1.7397  0.1787
64099SOL     OW 2610  12.679  12.942   2.116  0.2331 -0.2529 -0.3287
64099SOL    HW1 2611  12.707  12.857   2.084  0.4549 -0.9446  1.6209
64099SOL    HW2 2612  12.602  12.963   2.063  1.6207 -0.4476 -2.5660
64100SOL     OW 2613   1.447   3.016   1.116 -0.4218  0.2471  0.3430
64100SOL    HW1 2614   1.473   2.950   1.181  0.8491 -1.3717 -1.7041
64100SOL    HW2 2615   1.460   3.100   1.161  1.6575 -0.7560  1.7861
64101SOL     OW 2616   1.624   6.778   1.444  0.0367  0.0530 -0.1409
64101SOL    HW1 2617   1.710   6.786   1.404 -0.3413 -0.1659 -1.0188
64101SOL    HW2 2618   1.617   6.853   1.504 -0.0159  1.3197 -1.6777
64102SOL     OW 2619   8.105   7.293   8.399 -0.2952 -0.4507  0.1732
64102SOL    HW1 2620   8.056   7.211   8.402 -1.7035  0.3512 -0.1199
64102SOL    HW2 2621   8.147   7.293   8.313 -0.9295 -0.5177 -0.1418
64103SOL     OW 2622  10.170   0.912  10.090 -0.5318  0.5983 -0.6906
64103SOL    HW1 2623  10.218   0.994  10.080 -0.3374  0.5357 -0.2593
64103SOL    HW2 2624  10.179   0.869  10.004  0.3020  0.5216 -0.5731
64104SOL     OW 2625   9.864  11.495   9.713 -0.7217  0.1282 -0.0179
64104SOL    HW1 2626   9.911  11.455   9.786  1.0125 -0.9624 -1.6478
64104SOL    HW2 2627   9.842  11.583   9.744  1.8971  0.4870  1.0964
64105SOL     OW 2628   5.326   0.368   8.383 -0.2351 -0.2229 -0.5679
64105SOL    HW1 2629   5.287   0.342   8.300  0.8772 -0.8233 -0.9211
64105SOL    HW2 2630   5.385   0.296   8.405  0.7751  0.7184 -0.1309
64106SOL     OW 2631   5.610  11.395   3.055 -0.3281 -0.1608 -0.1245
64106SOL    HW1 2632   5.701  11.392   3.026 -0.8110 -0.2682 -1.7177
64106SOL    HW2 2633   5.614  11.373   3.148  0.9973 -3.4826 -0.8147
64107SOL     OW 2634   1.573  12.795   6.309 -0.1181  0.7020  0.0265
64107SOL    HW1 2635   1.624  12.721   6.340  0.0851  1.4508  1.5310
64107SOL    HW2 2636   1.603  12.869   6.361 -0.3242  1.8651 -1.4365
64108SOL     OW 2637  12.660   6.240  11.563  0.0244  0.2524 -0.3439
64108SOL    HW1 2638  12.594   6.291  11.517 -1.6506 -2.4001 -1.0792
64108SOL    HW2 2639  12.724   6.217  11.496  0.3537  0.6576 -0.1789
64109SOL     OW 2640   9.104   0.226   7.453  0.0185 -0.2749  0.7807
64109SOL    HW1 2641   9.181   0.267   7.414 -0.0020  0.7662  1.7867
64109SOL    HW2 2642   9.128   0.212   7.544 -1.6002  1.8544  1.6347
64110SOL     OW 2643   3.021   7.660   3.127 -0.3388  0.3828  0.1204
64110SOL    HW1 2644   3.072   7.696   3.199 -1.5933 -1.0344  1.8077
64110SOL    HW2 2645   2.930   7.672   3.153 -0.8307 -2.5696  0.1442
64111SOL     OW 2646   5.647   5.813   5.741  0.3087 -0.1494  0.1148
64111SOL    HW1 2647   5.578   5.758   5.704  1.1319 -0.8704 -0.3763
64111SOL    HW2 2648   5.602   5.866   5.808 -0.6041 -1.0228  0.2145
64112SOL     OW 2649  12.309   3.879   7.166 -0.2115 -0.2139 -0.0230
64112SOL    HW1 2650  12.218   3.861   7.145 -0.1025 -0.8030 -0.0141
64112SOL    HW2 2651  12.312   3.888   7.261 -0.5065  1.2873 -0.1361
64113SOL     OW 2652   0.626  12.767   2.987  0.0054  0.1031  0.3246
64113SOL    HW1 2653   0.684  12.813   3.047 -1.1875 -0.0309  1.6365
64113SOL    HW2 2654   0.565  12.719   3.044 -0.7593 -0.5649 -0.9965
64114SOL     OW 2655  11.153  11.155   5.301 -0.5667 -0.2243  0.6541
64114SOL    HW1 2656  11.177  11.078   5.250 -1.0082 -1.0030  1.5788
64114SOL    HW2 2657  11.065  11.135   5.335 -0.0700  0.0158  2.1447
64115SOL     OW 2658   6.172   8.487   7.427 -0.2485 -0.2592 -0.4463
64115SOL    HW1 2659   6.134   8.405   7.395 -1.4593  0.0559  0.1150
64115SOL    HW2 2660   6.228   8.460   7.500 -0.7157 -0.5952 -0.2015
64116SOL     OW 2661  11.350   5.381   4.701  0.4772 -0.1849 -0.1464
64116SOL    HW1 2662  11.348   5.477   4.705  0.0336 -0.2261  0.8276
64116SOL    HW2 2663  11.258   5.356   4.695  0.5587 -0.5755  0.2416
64117SOL     OW 2664   8.942   7.001   9.054 -0.6690 -0.0057 -0.4830
64117SOL    HW1 2665   9.025   7.030   9.092 -0.0846 -2.4062  0.2859
64117SOL    HW2 2666   8.962   6.915   9.016 -2.9456 -1.0650  0.4858
64118SOL     OW 2667  10.170   9.777   5.470 -0.1166  0.8765 -0.4705
64118SOL    HW1 2668  10.220   9.706   5.509 -0.3602  1.1007  0.2571
64118SOL    HW2 2669  10.236   9.832   5.427  0.4098  1.6900  1.2760
64119SOL     OW 2670  10.104   8.974   3.883 -0.1291  0.0044 -0.4093
64119SOL    HW1 2671  10.076   8.885   3.905  0.4545 -0.3861 -1.1947
64119SOL    HW2 2672  10.052   9.031   3.940 -0.3858 -0.8471  0.2196
64120SOL     OW 2673   4.825   5.850   8.736 -0.3150  0.0082  0.2106
64120SOL    HW1 2674   4.844   5.916   8.669  0.4019 -0.4145 -0.0149
64120SOL    HW2 2675   4.907   5.839   8.783 -0.8548  0.4225  1.2964
64121SOL     OW 2676  12.636   4.486   6.374 -0.2324  0.7574  0.0236
64121SOL    HW1 2677  12.541   4.493   6.365 -0.8185 -3.0952  1.2007
64121SOL    HW2 2678  12.665   4.448   6.290  0.3368  1.9089 -0.3292
64122SOL     OW 2679   8.373   8.924   0.242  0.1027  0.1046 -0.2618
64122SOL    HW1 2680   8.299   8.891   0.292  0.9641  0.3267  1.2088
64122SOL    HW2 2681   8.449   8.910   0.299  1.3449 -0.9205 -2.0583
64123SOL     OW 2682  11.064   8.859  10.606 -0.2481 -0.0973 -0.3776
64123SOL    HW1 2683  11.077   8.936  10.662  0.4931 -0.0824 -0.5518
64123SOL    HW2 2684  11.031   8.894  10.524  0.6089  0.1096 -0.6477
64124SOL     OW 2685   8.532   3.651   2.200 -0.7651  0.5299  0.0106
64124SOL    HW1 2686   8.552   3.744   2.198  1.3547  0.1672  1.2521
64124SOL    HW2 2687   8.514   3.632   2.292 -2.9180 -0.0016 -0.4743
64125SOL     OW 2688   7.361   2.269   9.229  0.0171  0.3613 -0.3843
64125SOL    HW1 2689   7.277   2.256   9.185 -0.8555 -1.6044  1.6884
64125SOL    HW2 2690   7.426   2.249   9.162 -1.2583 -2.8899 -0.8200
64126SOL     OW 2691  11.041   9.700  10.068 -0.0219 -0.4914 -0.1354
64126SOL    HW1 2692  11.016   9.717  10.158 -0.6605 -0.1682 -0.3661
64126SOL    HW2 2693  11.094   9.620  10.072  0.7775  0.0606  0.6391
64127SOL     OW 2694   0.194   4.289  11.924 -0.7666 -0.5662  0.3999
64127SOL    HW1 2695   0.209   4.195  11.933 -2.2672 -1.0595 -1.5040
64127SOL    HW2 2696   0.107   4.303  11.962 -0.1634  0.2435  1.5199
64128SOL     OW 2697  11.589   0.610  10.185  0.3703  0.2659  0.0090
64128SOL    HW1 2698  11.594   0.624  10.280 -0.1892  0.1605  0.0586
64128SOL    HW2 2699  11.528   0.677  10.154  0.5733  0.3178 -0.2835
64129SOL     OW 2700   2.411   4.368   5.854 -0.1439  0.0151  0.1379
64129SOL    HW1 2701   2.337   4.376   5.914  0.6447 -1.3324  1.3358
64129SOL    HW2 2702   2.404   4.446   5.798 -1.7499  0.5461  0.9948
64130SOL     OW 2703   5.053  10.081   9.693  0.1720 -0.1849 -0.3140
64130SOL    HW1 2704   5.106  10.003   9.678  1.8560  1.2072 -2.2675
64130SOL    HW2 2705   5.091  10.121   9.772  0.8728 -0.1423 -0.6648
64131SOL     OW 2706   7.571   5.455   6.182 -0.0332 -0.2535 -0.0743
64131SOL    HW1 2707   7.540   5.383   6.237 -1.6095 -1.5057 -2.4191
64131SOL    HW2 2708   7.641   5.417   6.129  0.1305  0.3522 -0.3011
64132SOL     OW 2709  11.037   9.248   5.814  0.1916 -0.0923 -0.4870
64132SOL    HW1 2710  11.112   9.220   5.868 -1.4827  0.0328  2.0846
64132SOL    HW2 2711  10.986   9.168   5.800 -0.0065  0.0971 -0.8686
64133SOL     OW 2712  12.209   7.662  10.569  0.2810 -0.2959 -0.2552
64133SOL    HW1 2713  12.149   7.596  10.534 -0.1957 -0.9159  1.6352
64133SOL    HW2 2714  12.266   7.613  10.629  2.0522  0.4589 -1.2341
64134SOL     OW 2715   0.404   3.680  12.189 -0.0275 -0.3574  0.0218
64134SOL    HW1 2716   0.447   3.643  12.266 -0.6061 -1.2400 -0.0611
64134SOL    HW2 2717   0.426   3.620  12.118 -0.3188 -0.1025 -0.2861
64135SOL     OW 2718   9.842   0.454   1.848  0.7085  0.6126 -0.0034
64135SOL    HW1 2719   9.755   0.490   1.868  0.5760  1.4422 -1.9302
64135SOL    HW2 2720   9.878   0.430   1.934 -1.6489 -0.3422  0.7980
64136SOL     OW 2721   2.444   4.137  11.132  0.3397 -0.8603  0.2384
64136SOL    HW1 2722   2.375   4.103  11.074  0.2308  1.0098 -0.8328
64136SOL    HW2 2723   2.417   4.111  11.220 -1.8959  0.0067 -0.1236
64137SOL     OW 2724   4.343   6.664   8.517  0.2008  0.1618 -0.1389
64137SOL    HW1 2725   4.369   6.756   8.505 -0.9867  0.6657  1.0009
64137SOL    HW2 2726   4.328   6.655   8.611 -1.9736 -0.5679 -0.5109
64138SOL     OW 2727  11.475  10.524  10.573 -0.1835 -0.3148  0.0570
64138SOL    HW1 2728  11.415  10.586  10.616 -2.3333 -1.0766 -1.6657
64138SOL    HW2 2729  11.560  10.568  10.575 -1.0955  1.5393  1.1962
64139SOL     OW 2730   5.096   1.627   4.414  0.1950 -0.1786 -0.4303
64139SOL    HW1 2731   5.044   1.691   4.462 -0.0494 -1.0501  0.5217
64139SOL    HW2 2732   5.093   1.656   4.323 -2.2214 -0.3448 -0.4793
64140SOL     OW 2733  12.863  11.231  12.968 -0.5033 -0.2378 -0.0207
64140SOL    HW1 2734  12.863  11.295  12.896  0.5226 -0.1991  0.0035
64140SOL    HW2 2735  12.774  11.236  13.003 -0.2674  1.7112  0.4440
64141SOL     OW 2736   5.051   9.829  11.643  0.1299  0.5119 -0.2364
64141SOL    HW1 2737   4.962   9.862  11.655 -0.2673  0.4134 -2.5546
64141SOL    HW2 2738   5.099   9.862  11.719 -2.2328 -0.9201  2.0628
64142SOL     OW 2739  12.784   0.993  12.391  0.7628  0.6906  0.0326
64142SOL    HW1 2740  12.720   1.061  12.416  0.8658  0.2686  1.5813
64142SOL    HW2 2741  12.820   1.023  12.308  0.6800  2.4583  0.5890
64143SOL     OW 2742   1.055   4.306   3.223  0.5674 -0.3148  0.4051
64143SOL    HW1 2743   1.083   4.270   3.308 -1.5680 -2.0864  0.4727
64143SOL    HW2 2744   1.129   4.289   3.165  0.9592 -1.8083  1.2594
64144SOL     OW 2745   1.222   2.986   9.124  0.3179  0.7556 -0.0517
64144SOL    HW1 2746   1.261   3.008   9.039 -0.6907  0.0155 -0.7265
64144SOL    HW2 2747   1.231   2.891   9.131 -1.3248  0.5513 -0.2356
64145SOL     OW 2748   0.577   8.834   4.448 -0.4964  0.0824  0.3531
64145SOL    HW1 2749   0.531   8.916   4.459 -1.2618  0.3189 -3.3404
64145SOL    HW2 2750   0.670   8.858   4.447 -0.6308  0.6313  0.9313
64146SOL     OW 2751   6.773   8.856  12.008  0.5527  0.5595 -1.4692
64146SOL    HW1 2752   6.692   8.806  12.013  1.2556 -0.7815 -2.8922
64146SOL    HW2 2753   6.782   8.895  12.095 -0.1942 -1.4984 -0.4065
64147SOL     OW 2754   3.880  10.150  11.294  0.1200 -0.1412 -0.3306
64147SOL    HW1 2755   3.945  10.218  11.313  0.8552 -1.2054  1.1453
64147SOL    HW2 2756   3.815  10.194  11.239  2.1262  0.9239 -1.9484
64148SOL     OW 2757   3.076   6.545   3.832 -0.2419 -0.2754  0.0185
64148SOL    HW1 2758   3.100   6.630   3.871  0.3621 -0.4720  0.0835
64148SOL    HW2 2759   3.136   6.535   3.758 -0.2414 -0.6989  0.0754
64149SOL     OW 2760   3.906  11.235   1.623 -0.3256  0.3831  0.0098
64149SOL    HW1 2761   3.911  11.302   1.692 -0.6223  0.3712  0.0446
64149SOL    HW2 2762   3.827  11.257   1.574  0.1063  0.6354 -0.5830
64150SOL     OW 2763   4.731   0.445  10.120  0.2010  0.0003 -0.2193
64150SOL    HW1 2764   4.708   0.538  10.128  1.4076  0.2143  0.9928
64150SOL    HW2 2765   4.647   0.400  10.127 -0.4263  0.9802 -0.9637
64151SOL     OW 2766   6.202  12.630   2.973  0.1797  0.1989 -0.7439
64151SOL    HW1 2767   6.294  12.650   2.995 -0.0987  0.0184  0.6876
64151SOL    HW2 2768   6.191  12.538   2.997 -0.1666 -0.0219 -1.6995
64152SOL     OW 2769   1.670  10.831   3.468  0.0087 -0.5951 -0.0955
64152SOL    HW1 2770   1.575  10.840   3.458  0.0677 -1.2707 -1.5931
64152SOL    HW2 2771   1.687  10.740   3.444  1.1606 -0.1603 -1.0074
64153SOL     OW 2772  10.869   3.645   4.910  0.1905 -0.1030 -0.7803
64153SOL    HW1 2773  10.900   3.556   4.894  2.3954  0.0382  1.9892
64153SOL    HW2 2774  10.829   3.671   4.827  0.3961 -3.2597 -2.0265
64154SOL     OW 2775  10.839   2.798  10.702  0.2303 -0.4660  0.4636
64154SOL    HW1 2776  10.858   2.841  10.786  0.6003  0.0872  0.1049
64154SOL    HW2 2777  10.757   2.751  10.717  0.4388 -0.6016  1.2182
64155SOL     OW 2778   4.562   9.884   5.872 -0.4133  0.5955  0.1947
64155SOL    HW1 2779   4.486   9.884   5.930  0.3743  0.0798  1.2526
64155SOL    HW2 2780   4.575   9.792   5.849 -0.3302  0.7252 -0.2907
64156SOL     OW 2781  12.622   2.181  12.661  0.3303 -0.0122  0.1078
64156SOL    HW1 2782  12.633   2.087  12.646  1.2801 -0.1947  1.7720
64156SOL    HW2 2783  12.530   2.190  12.687  0.2434 -0.4784 -0.0272
64157SOL     OW 2784   9.073   1.484   4.325  0.2091 -0.1906  0.1466
64157SOL    HW1 2785   9.009   1.529   4.270  2.1674  1.3004 -1.0295
64157SOL    HW2 2786   9.055   1.515   4.414  0.8890  2.2790 -0.5141
64158SOL     OW 2787  10.355  12.512   1.485  0.2487 -0.1077 -0.2910
64158SOL    HW1 2788  10.264  12.498   1.511  0.4865  0.9035  1.2200
64158SOL    HW2 2789  10.397  12.428   1.498 -0.1025 -0.1432  0.7493
64159SOL     OW 2790   8.671  12.411   3.817  0.4476  0.1909  0.0155
64159SOL    HW1 2791   8.634  12.374   3.897  1.6338 -0.0613  0.4642
64159SOL    HW2 2792   8.699  12.335   3.766  0.0790  0.3672 -0.4584
64160SOL     OW 2793   9.453   7.475   4.745 -0.3568 -0.1338  0.6074
64160SOL    HW1 2794   9.507   7.553   4.729 -0.8889  0.1260  0.0737
64160SOL    HW2 2795   9.428   7.483   4.837  0.2016 -0.0619  0.7605
64161SOL     OW 2796  11.535   1.566  12.708  0.0556 -0.0882 -0.1821
64161SOL    HW1 2797  11.576   1.509  12.643 -1.1096 -1.5824  0.3538
64161SOL    HW2 2798  11.543   1.654  12.670  2.9701 -0.3746 -0.4598
64162SOL     OW 2799  12.049   3.484  10.074  0.3094  0.0251 -0.0618
64162SOL    HW1 2800  12.058   3.579  10.064 -0.3434  0.2653  1.3385
64162SOL    HW2 2801  11.955   3.471  10.086  0.6359 -0.4308  2.6723
64163SOL     OW 2802   8.591   6.740   7.821  0.2959  0.3062  0.3862
64163SOL    HW1 2803   8.550   6.682   7.884 -2.0948 -0.3363 -1.6384
64163SOL    HW2 2804   8.518   6.783   7.776  1.8264  0.2483 -2.3728
64164SOL     OW 2805   5.787   2.000   6.780 -0.1138  0.1772 -0.0856
64164SOL    HW1 2806   5.696   2.029   6.790 -0.4672 -1.1083  0.6690
64164SOL    HW2 2807   5.787   1.911   6.815  1.4482  0.1728 -0.0566
64165SOL     OW 2808   5.650   6.673   4.368  0.8043  0.2460 -0.0037
64165SOL    HW1 2809   5.661   6.582   4.343  1.0364  0.0302  0.8271
64165SOL    HW2 2810   5.706   6.683   4.446  2.5157  1.6552 -1.3317
64166SOL     OW 2811   0.140   8.410   8.799  0.7594  0.2871 -0.3445
64166SOL    HW1 2812   0.192   8.477   8.756 -0.5897  1.1633 -0.6772
64166SOL    HW2 2813   0.165   8.415   8.891  1.5787  0.3690 -0.5615
64167SOL     OW 2814   1.523   1.415   4.876 -0.0600  0.0814 -0.6809
64167SOL    HW1 2815   1.592   1.417   4.942 -0.1749  2.6225 -0.5298
64167SOL    HW2 2816   1.541   1.336   4.825  0.0936 -1.9471  2.2473
64168SOL     OW 2817   5.262   2.280  11.248  0.4886  0.4414  0.0840
64168SOL    HW1 2818   5.254   2.265  11.343 -3.3762 -0.7875 -0.2323
64168SOL    HW2 2819   5.254   2.193  11.210 -1.0706  1.1774 -1.3965
64169SOL     OW 2820  11.241   7.120  12.478  0.8042 -0.3197  0.0892
64169SOL    HW1 2821  11.207   7.207  12.500  1.0501 -0.3663  0.6736
64169SOL    HW2 2822  11.280   7.088  12.560  0.4295 -1.1130 -0.0294
64170SOL     OW 2823   7.579   7.671   8.014  0.1023 -0.1489  0.5124
64170SOL    HW1 2824   7.591   7.734   8.085 -1.3437 -0.3302  0.9311
64170SOL    HW2 2825   7.485   7.667   8.000  0.2702 -1.1178 -0.5266
64171SOL     OW 2826   0.177  11.137   8.785 -0.3892 -0.1370  0.6521
64171SOL    HW1 2827   0.208  11.081   8.857 -1.1440  0.5171  1.5172
64171SOL    HW2 2828   0.151  11.219   8.828  0.7528  0.9215 -0.5909
64172SOL     OW 2829  12.190  10.342   5.590 -0.2121  0.1843  0.2915
64172SOL    HW1 2830  12.119  10.281   5.611 -0.5694  0.8551  1.0985
64172SOL    HW2 2831  12.229  10.307   5.510 -1.2835 -0.3517 -0.0160
64173SOL     OW 2832   3.240  11.985   2.496  0.1159  0.4959  0.5086
64173SOL    HW1 2833   3.155  11.978   2.539 -0.4934  0.0426 -0.7171
64173SOL    HW2 2834   3.268  11.895   2.484  0.0270  0.5908 -0.4906
64174SOL     OW 2835   2.652   6.066  10.766 -0.1087 -0.2862  0.2666
64174SOL    HW1 2836   2.613   6.148  10.794 -2.3021 -0.8798 -0.8682
64174SOL    HW2 2837   2.673   6.080  10.674 -0.8641 -1.0948 -0.0406
64175SOL     OW 2838  12.592   2.422  11.446 -0.1241 -0.4519  0.3115
64175SOL    HW1 2839  12.683   2.410  11.475  0.2877  1.4580 -0.0623
64175SOL    HW2 2840  12.571   2.340  11.402  1.3959 -0.9805  0.4967
64176SOL     OW 2841   5.682   3.386   4.640  0.4404  0.6974  0.3083
64176SOL    HW1 2842   5.686   3.380   4.545  0.6450  1.0580  0.2921
64176SOL    HW2 2843   5.686   3.480   4.659  1.0249  0.6038  0.6976
64177SOL     OW 2844   7.825  10.653  11.453 -0.2797 -0.3150 -0.1935
64177SOL    HW1 2845   7.732  10.672  11.462 -0.2311 -0.9631  2.2145
64177SOL    HW2 2846   7.864  10.685  11.534  1.4052 -1.1826 -0.6167
64178SOL     OW 2847   3.253  10.247   5.418 -0.1530  0.5421  0.5246
64178SOL    HW1 2848   3.242  10.245   5.513 -1.4328 -0.6930  0.3930
64178SOL    HW2 2849   3.333  10.197   5.401 -1.2617 -1.4771  0.8625
64179SOL     OW 2850   1.636   1.763  12.341  0.3152  0.5590 -0.5493
64179SOL    HW1 2851   1.543   1.787  12.343 -0.1166 -1.0467  0.8429
64179SOL    HW2 2852   1.678   1.834  12.292 -1.4648  1.9240 -0.2032
64180SOL     OW 2853  10.692   1.712   9.208  0.3107  0.0953  0.0745
64180SOL    HW1 2854  10.690   1.795   9.255  0.3362  0.7488 -1.0290
64180SOL    HW2 2855  10.668   1.646   9.273  1.1373  0.8528  1.1830
64181SOL     OW 2856   6.977   6.311   5.813  0.0419 -0.5442 -0.0229
64181SOL    HW1 2857   6.892   6.324   5.771  0.5253  0.9755 -0.5967
64181SOL    HW2 2858   7.038   6.302   5.740  0.6605  0.5045  0.3449
64182SOL     OW 2859   5.012   6.725  11.975 -0.0977  0.2017 -0.2030
64182SOL    HW1 2860   4.996   6.671  11.897 -1.4351 -1.7214  1.2897
64182SOL    HW2 2861   4.968   6.808  11.956  2.0397  0.9109 -2.5830
64183SOL     OW 2862   2.837   0.331   3.652  0.0712  0.2216 -0.1675
64183SOL    HW1 2863   2.810   0.305   3.564 -0.3076  0.7463 -0.2125
64183SOL    HW2 2864   2.932   0.319   3.652  0.0988  0.3855 -0.7130
64184SOL     OW 2865   1.789   0.235   1.960  0.0002  0.2571  0.1086
64184SOL    HW1 2866   1.843   0.166   1.921  0.5208  0.2314  0.8543
64184SOL    HW2 2867   1.794   0.308   1.899 -1.0600 -0.5573 -1.0169
64185SOL     OW 2868   6.839  12.725   0.593 -0.1153  0.4197  0.3455
64185SOL    HW1 2869   6.901  12.656   0.571 -1.3959 -1.0795  1.2631
64185SOL    HW2 2870   6.788  12.737   0.513 -0.4566 -0.3443  0.4366
64186SOL     OW 2871   7.154   0.944   6.270 -0.3015 -0.0045 -0.0977
64186SOL    HW1 2872   7.149   1.027   6.317 -1.1721 -0.6370  0.9805
64186SOL    HW2 2873   7.118   0.962   6.184  0.6529  1.0075 -0.3088
64187SOL     OW 2874   0.952  11.470  11.369 -0.5726 -0.2856 -0.0236
64187SOL    HW1 2875   0.976  11.381  11.345 -0.6694 -0.4166  0.3491
64187SOL    HW2 2876   0.861  11.463  11.400 -0.4572 -0.1299  0.3653
64188SOL     OW 2877   8.417   5.167   1.639 -0.1029 -0.2801 -0.4043
64188SOL    HW1 2878   8.400   5.253   1.601  0.6316 -0.0627 -0.2622
64188SOL    HW2 2879   8.352   5.158   1.708  0.5124  0.6519  0.3217
64189SOL     OW 2880   3.317   8.188  12.837  0.1085 -0.5485  0.6637
64189SOL    HW1 2881   3.354   8.131  12.904  2.0659  0.5187  0.5925
64189SOL    HW2 2882   3.383   8.257  12.826 -2.4828  2.2835  1.3905
64190SOL     OW 2883   5.083   9.368   9.210 -0.3384 -0.1388  0.2509
64190SOL    HW1 2884   5.017   9.307   9.243  1.2299 -1.3960  1.2512
64190SOL    HW2 2885   5.107   9.333   9.124 -0.5449 -0.0316  0.1499
64191SOL     OW 2886   2.366   0.290  12.207  0.1277  0.3554 -0.4253
64191SOL    HW1 2887   2.424   0.239  12.264 -0.4801 -0.7709 -0.7879
64191SOL    HW2 2888   2.362   0.376  12.249  1.4235  0.2241  0.0348
64192SOL     OW 2889   7.793   3.174   5.410 -0.2116  0.0217 -0.3069
64192SOL    HW1 2890   7.780   3.185   5.316 -0.4439  2.5739 -0.0612
64192SOL    HW2 2891   7.783   3.262   5.446  0.2566 -0.8120  2.0788
64193SOL     OW 2892   9.226   8.153   6.162 -0.3787  0.0347 -0.1142
64193SOL    HW1 2893   9.241   8.181   6.072  1.3274  1.4687  0.5497
64193SOL    HW2 2894   9.281   8.075   6.172  0.8302  0.8899  0.1453
64194SOL     OW 2895  11.298   4.258  11.083 -0.2439 -0.2798  0.2307
64194SOL    HW1 2896  11.237   4.213  11.025 -0.8979 -1.8976  2.0433
64194SOL    HW2 2897  11.375   4.276  11.029 -0.5440 -2.3031 -0.9600
64195SOL     OW 2898  10.010   3.238   3.893 -0.0858  0.0870 -0.0162
64195SOL    HW1 2899  10.037   3.202   3.978 -0.6772  0.4106  0.3154
64195SOL    HW2 2900  10.080   3.213   3.833  0.9160  0.8331  0.8027
64196SOL     OW 2901   6.432  11.524   4.099  0.7646 -0.3627 -0.4295
64196SOL    HW1 2902   6.359  11.586   4.093 -0.5206 -1.7820 -0.0707
64196SOL    HW2 2903   6.498  11.569   4.152 -1.1216 -0.2024  1.9333
64197SOL     OW 2904  11.492   2.416   1.542  0.1668  0.4429  0.1971
64197SOL    HW1 2905  11.547   2.356   1.492 -0.8690 -0.1908 -0.2042
64197SOL    HW2 2906  11.403   2.399   1.511 -0.5706 -0.2090  2.4783
64198SOL     OW 2907   3.363  11.490   2.132  0.1328  0.6150  0.1667
64198SOL    HW1 2908   3.269  11.472   2.138  0.3039 -0.7054 -0.7452
64198SOL    HW2 2909   3.385  11.531   2.216 -1.0506 -0.0989  0.8525
64199SOL     OW 2910  12.088   6.982  12.750  0.2316  0.1421  0.1485
64199SOL    HW1 2911  12.078   6.970  12.655 -3.0204 -0.8772  0.4750
64199SOL    HW2 2912  12.149   6.913  12.776  2.2226  1.2498 -1.2723
64200SOL     OW 2913   0.017   5.939  10.834 -0.1289 -0.2481  0.9707
64200SOL    HW1 2914   0.024   6.008  10.768 -0.3533 -0.4081  0.7804
64200SOL    HW2 2915   0.011   5.987  10.917 -0.0647 -0.0433  0.8587
64201SOL     OW 2916   0.693  12.773   3.432  0.3675  0.7678 -0.0201
64201SOL    HW1 2917   0.754  12.764   3.505  1.8121 -0.4340 -1.3062
64201SOL    HW2 2918   0.631  12.841   3.460 -0.2413 -0.8545  3.0365
64202SOL     OW 2919   0.571   4.456   0.384  0.0170 -0.5104  0.1020
64202SOL    HW1 2920   0.567   4.476   0.290  2.3779  0.0218  0.0498
64202SOL    HW2 2921   0.572   4.541   0.427  1.6534 -0.6435  0.4020
64203SOL     OW 2922   3.137   5.931  11.316 -0.2760  0.1364 -0.2400
64203SOL    HW1 2923   3.075   5.912  11.386 -1.4108  1.2558 -0.8888
64203SOL    HW2 2924   3.163   6.022  11.331  1.7817 -0.5124  0.4153
64204SOL     OW 2925  10.113  12.418   3.892 -0.1741  0.4535 -0.0157
64204SOL    HW1 2926  10.114  12.362   3.969  0.2152  1.7958  0.9929
64204SOL    HW2 2927  10.022  12.445   3.882 -0.0789  1.0126  0.5496
64205SOL     OW 2928   3.625   6.556   2.540 -0.2256 -0.3334 -0.0227
64205SOL    HW1 2929   3.590   6.632   2.493  1.0052  0.6077  0.5006
64205SOL    HW2 2930   3.685   6.515   2.477  1.0639  0.6542  0.5123
64206SOL     OW 2931   4.312   3.075   2.303  0.6871 -0.2957  0.5298
64206SOL    HW1 2932   4.228   3.098   2.343  0.2509 -1.3654  0.2582
64206SOL    HW2 2933   4.370   3.148   2.327  0.3198 -0.6398  2.6963
64207SOL     OW 2934   0.373  10.036   2.365  0.5153  0.7831 -0.3503
64207SOL    HW1 2935   0.351  10.081   2.447 -0.9181 -1.9987  0.8925
64207SOL    HW2 2936   0.371  10.106   2.299 -2.4293  2.4657  1.2861
64208SOL     OW 2937   5.313   8.152   1.537  0.2362 -0.1566 -0.5679
64208SOL    HW1 2938   5.311   8.096   1.460 -1.2111  1.1824 -1.5549
64208SOL    HW2 2939   5.238   8.124   1.590 -0.0888  0.3775 -0.7362
64209SOL     OW 2940  12.550   7.014   0.997  0.9109 -0.0572 -0.3576
64209SOL    HW1 2941  12.543   6.924   1.029  2.8011  0.2961  1.2992
64209SOL    HW2 2942  12.593   7.006   0.912  2.0993 -0.7227  0.2684
64210SOL     OW 2943   5.380   9.899  12.518  0.1000 -0.4194 -0.2007
64210SOL    HW1 2944   5.388   9.870  12.609 -0.9805  0.1611  0.1047
64210SOL    HW2 2945   5.317   9.839  12.479 -0.5893  0.2301 -0.1281
64211SOL     OW 2946   2.402   7.373   1.003 -0.5485  0.3114 -0.5938
64211SOL    HW1 2947   2.442   7.330   0.927  0.0757 -1.1036  0.4734
64211SOL    HW2 2948   2.325   7.320   1.023 -0.0290 -0.0997  0.4586
64212SOL     OW 2949   3.851   0.065  12.506  0.5689 -0.3867  0.7122
64212SOL    HW1 2950   3.935   0.023  12.487  1.0460  0.4792  0.8611
64212SOL    HW2 2951   3.814   0.083  12.419  1.5095  1.1079  0.5773
64213SOL     OW 2952   3.086   3.164   4.851  0.0465 -0.4202 -0.1227
64213SOL    HW1 2953   3.088   3.069   4.856  0.8801 -0.6323 -2.6979
64213SOL    HW2 2954   3.023   3.183   4.782  1.9549  0.6885 -1.6658
64214SOL     OW 2955   1.064   3.167   0.160 -0.5907  0.0061 -0.2212
64214SOL    HW1 2956   1.005   3.182   0.234  0.6167  0.1807  0.7360
64214SOL    HW2 2957   1.078   3.255   0.123 -2.5493 -0.2557 -1.8019
64215SOL     OW 2958   0.642  11.484   5.694  0.2837 -0.1258  0.0455
64215SOL    HW1 2959   0.572  11.548   5.701  0.9637  0.6956 -0.4776
64215SOL    HW2 2960   0.661  11.479   5.600  1.0506 -0.1916  0.1954
64216SOL     OW 2961  11.548   3.500  11.154 -0.1266  0.2518 -0.3623
64216SOL    HW1 2962  11.461   3.485  11.191  0.1101  0.2026  0.1879
64216SOL    HW2 2963  11.585   3.569  11.210  0.1737  0.2925 -0.6115
64217SOL     OW 2964  12.295   8.378   4.382 -0.1283 -0.2734  0.2411
64217SOL    HW1 2965  12.232   8.320   4.425 -0.4729  0.7237  1.1321
64217SOL    HW2 2966  12.272   8.466   4.414  0.5391  0.3270 -0.8702
64218SOL     OW 2967   8.094  11.630  10.443 -1.1506 -0.1674 -0.6754
64218SOL    HW1 2968   8.085  11.720  10.415 -1.0923 -0.0681 -0.3808
64218SOL    HW2 2969   8.043  11.624  10.524  0.5759  0.1573  0.4940
64219SOL     OW 2970   6.028   4.365   5.546 -0.2377 -0.0061  0.0671
64219SOL    HW1 2971   6.082   4.436   5.581 -1.3900  0.6553  0.5602
64219SOL    HW2 2972   5.939   4.400   5.545 -0.4552 -0.4177 -2.4153
64220SOL     OW 2973   2.172   3.452   6.000  0.4776 -0.3108  0.2008
64220SOL    HW1 2974   2.081   3.444   5.972  0.1189  0.7026  1.0417
64220SOL    HW2 2975   2.223   3.427   5.923 -0.4932  0.4281 -0.7010
64221SOL     OW 2976   8.639   3.069   5.683 -0.8913  0.1017 -0.2475
64221SOL    HW1 2977   8.584   3.000   5.721 -1.4342  0.8412  0.3515
64221SOL    HW2 2978   8.728   3.044   5.704 -1.0721 -0.4938 -0.1733
64222SOL     OW 2979   8.915   0.101  11.215 -0.2610  0.1351 -0.2569
64222SOL    HW1 2980   8.883   0.190  11.199  1.0408  1.0068  1.7140
64222SOL    HW2 2981   8.964   0.079  11.135 -1.4048  0.7611 -1.1722
64223SOL     OW 2982   4.505   5.015   1.853 -1.0697  0.8327 -0.1760
64223SOL    HW1 2983   4.486   5.090   1.796 -2.5425  0.8778  0.3088
64223SOL    HW2 2984   4.600   5.007   1.853 -0.9423  2.1309 -0.9688
64224SOL     OW 2985   5.720   2.856   3.413 -0.5840 -0.8339  0.5909
64224SOL    HW1 2986   5.771   2.779   3.438 -0.1758  0.1463  3.0660
64224SOL    HW2 2987   5.779   2.930   3.427 -1.6230  0.0799  0.2945
64225SOL     OW 2988   6.254   8.733   6.617 -0.5875 -0.3682 -0.7440
64225SOL    HW1 2989   6.160   8.749   6.629 -0.5879 -0.4371 -0.6500
64225SOL    HW2 2990   6.276   8.670   6.686 -0.1110  0.9599  0.3779
64226SOL     OW 2991   1.278  10.647  11.165  0.3033 -0.0647 -0.1253
64226SOL    HW1 2992   1.229  10.729  11.171  0.6275  0.0291  2.8821
64226SOL    HW2 2993   1.349  10.656  11.228  0.2756 -2.6706  0.4153
64227SOL     OW 2994   3.489  11.205  12.225 -0.2607 -0.3007 -0.4740
64227SOL    HW1 2995   3.464  11.149  12.152 -2.9997 -1.9795  1.5768
64227SOL    HW2 2996   3.507  11.290  12.184  1.7505 -1.9618 -3.4182
64228SOL     OW 2997  10.668   2.168   7.669  0.4190  0.4044 -0.3999
64228SOL    HW1 2998  10.634   2.109   7.736  0.7544 -0.3785 -0.8979
64228SOL    HW2 2999  10.751   2.200   7.705  0.0425  0.8905  0.0410
64229SOL     OW 3000   1.911  11.333   9.268  0.7787 -0.1752 -0.1655
64229SOL    HW1 3001   1.890  11.422   9.296 -1.8163 -0.9939  0.8108
64229SOL    HW2 3002   1.914  11.338   9.172 -0.7012  0.7404 -0.1955
64230SOL     OW 3003   5.921   8.734   7.653  0.0437  0.0742  0.0515
64230SOL    HW1 3004   5.908   8.649   7.610 -0.6255  0.5854 -0.8009
64230SOL    HW2 3005   5.934   8.713   7.745  0.6203 -1.0041 -0.2578
64231SOL     OW 3006   3.999   0.081   1.270  0.2877  0.1337 -0.3714
64231SOL    HW1 3007   3.994  -0.013   1.254  2.9546 -0.2366  0.5100
64231SOL    HW2 3008   4.092   0.100   1.276 -0.1866  2.7474  0.1282
64232SOL     OW 3009   2.761   8.863   9.263  0.6722  0.3335  0.1658
64232SOL    HW1 3010   2.848   8.831   9.287  0.8604  0.1836 -0.7064
64232SOL    HW2 3011   2.719   8.789   9.221  0.4214  0.6570 -0.1576
64233SOL     OW 3012   5.077   0.948  10.923 -0.0031  0.1592  0.0815
64233SOL    HW1 3013   4.982   0.934  10.921 -0.3755  1.9988  1.6820
64233SOL    HW2 3014   5.110   0.877  10.978 -0.8277  0.9311  1.6517
64234SOL     OW 3015   2.546  12.743  12.161 -0.4269 -0.4601 -0.5415
64234SOL    HW1 3016   2.535  12.829  12.120  0.8350  0.0031  0.0448
64234SOL    HW2 3017   2.635  12.745  12.197 -0.9430 -1.4259  0.8565
64235SOL     OW 3018   8.682  10.371   9.353  0.0182  0.4827  1.0874
64235SOL    HW1 3019   8.778  10.365   9.346 -0.0435 -0.2513  0.8307
64235SOL    HW2 3020   8.650  10.294   9.306 -0.7093  0.9054  0.8880
64236SOL     OW 3021  10.169   4.429   3.598 -0.1474 -0.1770 -0.0663
64236SOL    HW1 3022  10.099   4.367   3.620 -0.5883  1.0450  2.3529
64236SOL    HW2 3023  10.196   4.405   3.509 -2.0505 -2.1494 -0.1896
64237SOL     OW 3024   8.025  12.667   2.430 -0.1151  0.0366  0.3075
64237SOL    HW1 3025   8.022  12.712   2.514 -1.7307 -0.6418  0.6541
64237SOL    HW2 3026   8.060  12.581   2.450  1.5289  0.5832 -0.1008
64238SOL     OW 3027   4.795   6.814   6.961  0.2700  0.1207  0.5268
64238SOL    HW1 3028   4.733   6.859   6.903  0.5404 -0.3592 -0.1486
64238SOL    HW2 3029   4.785   6.721   6.940 -0.1796 -0.1409  1.8050
64239SOL     OW 3030   0.617   3.669  11.844 -0.2049 -0.3416 -0.1147
64239SOL    HW1 3031   0.575   3.624  11.917  2.1577 -5.0058 -1.1747
64239SOL    HW2 3032   0.701   3.700  11.880  0.6267 -1.9742 -0.5308
64240SOL     OW 3033  12.757   8.718  10.245 -0.1405 -0.1802  0.0618
64240SOL    HW1 3034  12.828   8.722  10.310 -0.7741 -1.4563  0.8808
64240SOL    HW2 3035  12.773   8.637  10.197 -0.0419  0.4369 -0.9656
64241SOL     OW 3036  11.040   0.618   7.171 -0.6300 -0.2694 -0.2334
64241SOL    HW1 3037  11.041   0.546   7.107 -0.5721 -0.5348  0.0644
64241SOL    HW2 3038  11.036   0.697   7.117 -1.0751 -0.5059 -0.5550
64242SOL     OW 3039   6.211  10.382   4.274  0.0422 -0.5466  0.8462
64242SOL    HW1 3040   6.193  10.476   4.266 -3.8941 -1.1845  0.1729
64242SOL    HW2 3041   6.295  10.370   4.230  0.9389  2.6669  1.3866
64243SOL     OW 3042  10.755   4.944   9.027 -0.1511  0.6230  0.1590
64243SOL    HW1 3043  10.849   4.955   9.036  0.0572 -1.5824  1.5856
64243SOL    HW2 3044  10.719   4.971   9.112 -0.4637 -0.9695  0.5804
64244SOL     OW 3045   3.497   6.884   3.988 -0.8795 -0.3854 -0.1208
64244SOL    HW1 3046   3.531   6.887   4.078  1.2514 -0.3494 -0.8946
64244SOL    HW2 3047   3.403   6.898   3.999 -0.7251 -0.6502  2.1309
64245SOL     OW 3048   6.955   3.583   6.992 -0.3253  0.2111  0.3088
64245SOL    HW1 3049   6.965   3.493   6.962 -0.8352 -0.4037  1.8813
64245SOL    HW2 3050   6.885   3.619   6.938  0.5026 -0.0250 -0.9543
64246SOL     OW 3051   2.388   3.228   2.094 -0.1877 -0.4861  0.2056
64246SOL    HW1 3052   2.318   3.233   2.159  0.9178  2.6138  1.3198
64246SOL    HW2 3053   2.352   3.269   2.015 -0.7527 -2.1765 -0.4683
64247SOL     OW 3054   1.594  11.491  11.592  0.2185  0.3011  0.2406
64247SOL    HW1 3055   1.523  11.530  11.541  0.0439 -2.1851 -1.6041
64247SOL    HW2 3056   1.615  11.557  11.658 -0.9547  2.8631 -1.7640
64248SOL     OW 3057   7.424  10.138  11.649  0.2910  0.1677 -0.3846
64248SOL    HW1 3058   7.459  10.190  11.722  0.8917  1.7602 -1.7459
64248SOL    HW2 3059   7.330  10.136  11.664  0.3299  1.0983  0.0708
64249SOL     OW 3060   9.202  12.932   8.161  0.0883  0.0329  0.4183
64249SOL    HW1 3061   9.225  12.849   8.120  2.5826  1.3187 -0.9979
64249SOL    HW2 3062   9.196  12.912   8.254 -0.0881 -1.8470  0.0374
64250SOL     OW 3063   3.825   0.833   5.625 -0.4385 -0.5592  0.3104
64250SOL    HW1 3064   3.757   0.867   5.683 -2.0756 -0.5118 -1.5497
64250SOL    HW2 3065   3.840   0.744   5.656  0.2769  0.1358  2.0963
64251SOL     OW 3066   7.771  12.014  11.317 -0.4724  0.6900 -0.9901
64251SOL    HW1 3067   7.849  12.068  11.317 -1.1667  1.7097 -0.7371
64251SOL    HW2 3068   7.706  12.063  11.368 -1.7591  0.5869 -2.4310
64252SOL     OW 3069   5.965   5.077   1.149 -0.2039 -0.1194  0.6773
64252SOL    HW1 3070   5.948   4.998   1.201 -1.4089 -0.1021  0.3544
64252SOL    HW2 3071   5.983   5.145   1.214  2.6066 -0.9890  0.9221
64253SOL     OW 3072   6.960   3.710   6.247 -0.3423  0.3501 -0.4685
64253SOL    HW1 3073   6.879   3.661   6.254  0.4815 -0.9810  0.1612
64253SOL    HW2 3074   7.015   3.677   6.318  0.3446  2.0328 -0.1614
64254SOL     OW 3075   7.385  10.988   8.122 -0.4396 -0.3844  0.5899
64254SOL    HW1 3076   7.304  11.034   8.101  1.1588  1.9075 -1.0375
64254SOL    HW2 3077   7.413  11.025   8.206  0.2464  0.8794 -0.1590
64255SOL     OW 3078   9.245   2.002   1.277 -0.5648  0.4727  0.4521
64255SOL    HW1 3079   9.221   2.067   1.210 -0.9148  0.0226  0.1359
64255SOL    HW2 3080   9.312   1.948   1.234  1.2677  1.8671  1.4013
64256SOL     OW 3081   3.456   7.211   7.925 -0.5100 -0.0276  0.5038
64256SOL    HW1 3082   3.435   7.250   7.841  2.9444  1.2889  0.0917
64256SOL    HW2 3083   3.433   7.119   7.915  0.1848 -0.0029 -2.0700
64257SOL     OW 3084   4.550   5.711   5.234 -0.2025 -0.2610 -0.2966
64257SOL    HW1 3085   4.485   5.704   5.303  0.7536 -1.2034  0.5426
64257SOL    HW2 3086   4.513   5.774   5.172 -1.7937 -0.6012  0.2690
64258SOL     OW 3087   4.347   8.789   8.205  0.2707 -0.1545  0.0507
64258SOL    HW1 3088   4.324   8.861   8.147  0.1673  0.6717  1.0725
64258SOL    HW2 3089   4.285   8.720   8.184 -2.0640  1.3652  1.4975
64259SOL     OW 3090   4.136   6.773   1.714  0.0975 -0.2501 -0.1498
64259SOL    HW1 3091   4.053   6.820   1.706  0.7053  0.9029  0.0515
64259SOL    HW2 3092   4.159   6.780   1.806  1.6421  1.6758 -0.6262
64260SOL     OW 3093   5.954  10.273   2.257  0.3943  0.1267 -0.3006
64260SOL    HW1 3094   5.963  10.198   2.316 -1.4619  0.6130  0.6738
64260SOL    HW2 3095   5.897  10.242   2.187 -0.8326  0.7280  0.3890
64261SOL     OW 3096   8.454   2.369   9.466  0.3339 -0.5563  0.1839
64261SOL    HW1 3097   8.384   2.313   9.499  0.8246 -2.0362 -1.1793
64261SOL    HW2 3098   8.498   2.317   9.399  1.9880  0.7890  0.1460
64262SOL     OW 3099   0.323   0.363  11.211  0.1214 -0.2992  0.0910
64262SOL    HW1 3100   0.412   0.350  11.243  1.6847  2.6741 -2.4692
64262SOL    HW2 3101   0.281   0.418  11.277  1.0373  0.3220  0.1679
64263SOL     OW 3102   2.025  10.098  11.230  0.3622  0.0689 -0.3606
64263SOL    HW1 3103   1.996  10.011  11.257  0.4784  0.7458  2.1594
64263SOL    HW2 3104   2.120  10.091  11.225  0.2668 -0.4316 -2.1765
64264SOL     OW 3105   1.264  12.695   0.210 -0.3692 -0.8208  0.3355
64264SOL    HW1 3106   1.170  12.685   0.222 -0.8240  1.2490 -0.9690
64264SOL    HW2 3107   1.298  12.605   0.205 -2.4786 -1.6313 -0.6843
64265SOL     OW 3108   4.885  11.340   2.383 -0.1627  0.1345  0.0610
64265SOL    HW1 3109   4.865  11.247   2.372 -0.9124 -0.0912  2.6803
64265SOL    HW2 3110   4.811  11.385   2.342  0.1150 -0.4106 -1.0617
64266SOL     OW 3111   8.887  10.642   2.673 -0.6053 -0.4047 -0.1862
64266SOL    HW1 3112   8.891  10.560   2.625  1.6047 -0.8334  0.6411
64266SOL    HW2 3113   8.795  10.667   2.669 -1.4082 -3.0561 -0.2162
64267SOL     OW 3114  10.997   3.081   7.253  0.5692 -1.1214  0.1217
64267SOL    HW1 3115  11.065   3.018   7.276  0.8385 -0.6290  0.6982
64267SOL    HW2 3116  11.015   3.104   7.162  0.9710 -1.2439  0.1687
64268SOL     OW 3117   9.973   8.523   5.210 -0.2726  0.2517  0.2229
64268SOL    HW1 3118  10.009   8.456   5.267 -1.4380  0.2332  0.9500
64268SOL    HW2 3119   9.997   8.606   5.251 -1.0763  0.2387  0.7323
64269SOL     OW 3120   1.173  10.905   7.261 -0.2001 -0.0775 -0.2145
64269SOL    HW1 3121   1.097  10.953   7.228  0.0151  0.5787  0.2196
64269SOL    HW2 3122   1.200  10.955   7.339  0.7063 -0.2720 -0.3965
64270SOL     OW 3123   6.821   3.468   1.561 -0.3306  0.5218  0.4104
64270SOL    HW1 3124   6.829   3.422   1.477  1.2308  1.2709  0.0969
64270SOL    HW2 3125   6.797   3.558   1.536 -3.1731  0.0330  0.9980
64271SOL     OW 3126   2.998   2.585  10.761 -0.2431  0.6146  0.3536
64271SOL    HW1 3127   3.058   2.615  10.692 -1.1131  0.0955 -0.6526
64271SOL    HW2 3128   2.957   2.665  10.792 -1.7056  0.6596 -1.5226
64272SOL     OW 3129   3.210   5.576   9.590 -0.0800 -0.7235  0.0061
64272SOL    HW1 3130   3.228   5.533   9.506 -2.2380 -1.5342 -0.1100
64272SOL    HW2 3131   3.249   5.518   9.655  0.9175 -0.4982 -0.3648
64273SOL     OW 3132   0.163   8.306   7.092 -0.6477 -0.8405  0.1499
64273SOL    HW1 3133   0.171   8.279   7.183 -1.5228  0.3960  0.6150
64273SOL    HW2 3134   0.111   8.237   7.051 -0.0357 -1.5290  0.5220
64274SOL     OW 3135   5.347   5.939   9.203  0.5080 -0.2599 -0.1292
64274SOL    HW1 3136   5.263   5.969   9.170  0.4015 -0.3407  0.0645
64274SOL    HW2 3137   5.396   6.020   9.220 -0.1990 -0.1289  1.4769
64275SOL     OW 3138   2.506  12.825   0.917  0.1086  0.6150  0.2208
64275SOL    HW1 3139   2.509  12.740   0.873 -0.6135  1.1758 -0.9657
64275SOL    HW2 3140   2.414  12.838   0.938 -0.1835  2.0903 -1.6890
64276SOL     OW 3141  12.611   5.767  10.131  0.1666 -0.3766 -0.1441
64276SOL    HW1 3142  12.683   5.704  10.126  0.1995 -0.2585 -1.6876
64276SOL    HW2 3143  12.532   5.714  10.122 -0.0009 -0.5502  1.9210
64277SOL     OW 3144   1.213  12.928   8.078  0.1334  0.3341 -0.5299
64277SOL    HW1 3145   1.306  12.937   8.059  0.0809  0.2461 -0.8373
64277SOL    HW2 3146   1.206  12.943   8.172  0.3584  1.1259 -0.6296
64278SOL     OW 3147   9.589  10.773   1.856 -0.0738 -0.7602 -0.3486
64278SOL    HW1 3148   9.673  10.760   1.901 -0.5772  0.7927  1.1775
64278SOL    HW2 3149   9.539  10.694   1.875  1.3612 -2.2468 -2.2460
64279SOL     OW 3150   8.000   2.358   4.105 -0.2914  0.0995 -0.2893
64279SOL    HW1 3151   7.950   2.304   4.043 -0.3630 -2.9737  2.1973
64279SOL    HW2 3152   8.090   2.326   4.097  0.0963  1.1780 -0.2981
64280SOL     OW 3153  12.773   1.139   9.301 -0.1770  0.0658 -0.0756
64280SOL    HW1 3154  12.758   1.230   9.274  0.4388  0.3899  0.6325
64280SOL    HW2 3155  12.804   1.095   9.222 -3.3817 -0.3090 -1.2720
64281SOL     OW 3156   6.969   7.298   2.613 -0.1195  0.3827  0.1668
64281SOL    HW1 3157   6.934   7.337   2.694 -0.0679 -0.6811  0.7209
64281SOL    HW2 3158   6.982   7.206   2.635  2.5947  0.6159 -0.1607
64282SOL     OW 3159  12.686  12.313   2.230  0.1070 -0.1402  0.0006
64282SOL    HW1 3160  12.629  12.303   2.307  0.8328 -1.6960  0.3632
64282SOL    HW2 3161  12.764  12.263   2.251  1.3711  1.4126 -0.7695
64283SOL     OW 3162   5.203   3.959   0.448 -0.2633 -0.0880  0.1839
64283SOL    HW1 3163   5.173   4.019   0.515 -0.5078  0.0885 -0.0801
64283SOL    HW2 3164   5.176   4.000   0.365 -2.3166 -1.5224  0.0434
64284SOL     OW 3165   8.340   1.401  12.945 -0.2406  0.6093  0.2856
64284SOL    HW1 3166   8.402   1.336  12.912 -0.2444  1.3170 -1.1907
64284SOL    HW2 3167   8.394   1.460  12.998  0.1733  0.7015 -0.2369
64285SOL     OW 3168   3.248   5.281   4.158 -0.3290 -0.1510  0.3228
64285SOL    HW1 3169   3.319   5.239   4.111 -0.0264  1.2021 -0.4817
64285SOL    HW2 3170   3.170   5.263   4.106 -0.4872 -1.0538  0.8442
64286SOL     OW 3171   3.656   9.347   7.360 -0.2564  0.3929 -0.2839
64286SOL    HW1 3172   3.744   9.314   7.378  0.3913  1.9909 -0.2720
64286SOL    HW2 3173   3.662   9.388   7.274 -1.0677  0.2775 -0.4056
64287SOL     OW 3174   4.931   0.400   7.365 -0.3455  0.2082  0.1093
64287SOL    HW1 3175   5.005   0.455   7.339 -0.6211  0.2082 -0.7140
64287SOL    HW2 3176   4.856   0.460   7.367 -0.6527 -0.1285 -0.8132
64288SOL     OW 3177   6.578   1.423   7.152  0.4997 -0.8462 -0.3130
64288SOL    HW1 3178   6.628   1.478   7.092 -1.0278 -1.2203 -1.9787
64288SOL    HW2 3179   6.522   1.370   7.096 -1.8567 -0.3862  1.4455
64289SOL     OW 3180   1.825   8.531   9.552 -0.3086 -0.1210 -0.4136
64289SOL    HW1 3181   1.763   8.602   9.535 -1.0482 -0.8167 -0.6673
64289SOL    HW2 3182   1.891   8.539   9.484 -0.0390  0.6986 -0.0720
64290SOL     OW 3183   9.376   3.658   4.845 -0.2276  0.1698 -0.2573
64290SOL    HW1 3184   9.448   3.602   4.815  0.2943 -0.6106  2.1666
64290SOL    HW2 3185   9.318   3.665   4.770  0.6194 -2.1173 -1.2374
64291SOL     OW 3186   0.145   6.273   1.256  0.3261 -0.1189 -0.1402
64291SOL    HW1 3187   0.193   6.190   1.264  5.1607  2.3121 -0.1131
64291SOL    HW2 3188   0.142   6.307   1.345  0.6137  0.8035 -0.4802
64292SOL     OW 3189  12.755  10.313   8.631 -0.1815  0.0499  0.1523
64292SOL    HW1 3190  12.789  10.364   8.558 -0.0356 -0.5194 -0.1907
64292SOL    HW2 3191  12.825  10.249   8.649 -0.1492  0.2891  0.8914
64293SOL     OW 3192   4.632   4.112   0.687  0.2324 -0.0845 -0.3888
64293SOL    HW1 3193   4.701   4.051   0.661  1.1039  1.6496 -2.5396
64293SOL    HW2 3194   4.634   4.112   0.782  2.6180 -0.7718 -0.3702
64294SOL     OW 3195   7.647   3.590   6.035  1.1436 -0.7289 -0.7410
64294SOL    HW1 3196   7.564   3.589   5.987  0.9608  1.9142 -0.6211
64294SOL    HW2 3197   7.712   3.619   5.971  1.0784  1.8345  0.2284
64295SOL     OW 3198   8.982   2.063   6.723  0.2168  0.3136 -0.3296
64295SOL    HW1 3199   9.074   2.058   6.751 -0.0304 -1.0951  0.2923
64295SOL    HW2 3200   8.986   2.069   6.628  0.9497  0.5657 -0.2953
64296SOL     OW 3201  11.973   9.736   7.947  0.4273 -0.4381  0.1174
64296SOL    HW1 3202  12.027   9.776   8.014 -0.0875  1.0504 -0.3187
64296SOL    HW2 3203  11.930   9.663   7.991 -0.6659  1.0854  1.7327
64297SOL     OW 3204   2.588   2.922   0.821  0.4052 -0.2011 -0.6851
64297SOL    HW1 3205   2.536   2.845   0.847  3.4472 -1.6748  1.7250
64297SOL    HW2 3206   2.671   2.885   0.792  2.0332  2.1191  0.7299
64298SOL     OW 3207   8.843  12.035   2.437 -0.0368  0.0035 -0.1616
64298SOL    HW1 3208   8.917  12.069   2.488  0.5939 -1.1702 -0.2682
64298SOL    HW2 3209   8.766  12.059   2.489  0.4869  0.1869  0.5594
64299SOL     OW 3210  12.326   2.059  11.511  0.7652 -0.8673 -0.0364
64299SOL    HW1 3211  12.267   1.990  11.544  0.0930  0.3761  1.4620
64299SOL    HW2 3212  12.289   2.082  11.426 -0.8371 -0.2622  0.7839
64300SOL     OW 3213   7.774   1.174   2.617  0.2967  0.3559 -0.1969
64300SOL    HW1 3214   7.854   1.122   2.620  1.2149  1.4567 -2.6454
64300SOL    HW2 3215   7.736   1.166   2.704  1.4497 -2.6806  0.1322
64301SOL     OW 3216   0.678  11.082   6.190 -0.0343  0.2050  0.3107
64301SOL    HW1 3217   0.605  11.057   6.134 -1.1182  0.8422  1.3892
64301SOL    HW2 3218   0.637  11.114   6.271  1.2453  3.6135 -0.1959
64302SOL     OW 3219  11.956   2.785   6.053  0.7844  0.0253  0.3507
64302SOL    HW1 3220  12.041   2.741   6.050  0.4637 -0.7776  1.9342
64302SOL    HW2 3221  11.934   2.801   5.961  3.0377  1.0857 -0.0744
64303SOL     OW 3222   5.252  12.737   6.398  0.7010 -0.5556  0.0568
64303SOL    HW1 3223   5.288  12.678   6.463 -2.5201 -3.0386 -0.1033
64303SOL    HW2 3224   5.215  12.810   6.448  2.8480  0.3168  0.4492
64304SOL     OW 3225   3.256   6.088   8.157 -0.0872  0.6781  0.4515
64304SOL    HW1 3226   3.279   6.128   8.073 -0.7194  0.5614  0.2190
64304SOL    HW2 3227   3.309   6.008   8.160 -1.4284 -0.2998 -0.7028
64305SOL     OW 3228   9.532  12.061   9.824  0.0078  0.7262 -0.1641
64305SOL    HW1 3229   9.527  12.008   9.904  0.5436 -1.2782 -1.4001
64305SOL    HW2 3230   9.477  12.138   9.843 -1.2406 -0.5046  1.5260
64306SOL     OW 3231   5.889   2.202   5.816  0.1205 -0.0549 -0.0008
64306SOL    HW1 3232   5.897   2.219   5.722 -0.9748  0.6638  0.0174
64306SOL    HW2 3233   5.815   2.142   5.824 -0.6136  0.8990  0.4904
64307SOL     OW 3234  10.891   9.290  12.019 -0.0974  0.1970  0.2001
64307SOL    HW1 3235  10.854   9.358  11.962 -0.4957  0.6723  1.0155
64307SOL    HW2 3236  10.959   9.334  12.068 -0.7049  0.1472  1.1061
64308SOL     OW 3237   4.098   9.024   8.667 -0.2288 -0.2746 -0.5434
64308SOL    HW1 3238   4.150   9.088   8.715 -1.1537  1.6977 -2.0336
64308SOL    HW2 3239   4.162   8.959   8.637  0.5304 -0.9523  2.2367
64309SOL     OW 3240   9.947   5.639   8.469 -0.8328 -0.4439 -0.0355
64309SOL    HW1 3241   9.904   5.553   8.476  0.0961 -0.7569  3.0811
64309SOL    HW2 3242  10.018   5.636   8.533  1.5019  1.4395 -2.3203
64310SOL     OW 3243   2.594   1.762   0.387  0.1789  0.2522  0.5175
64310SOL    HW1 3244   2.645   1.770   0.467  0.4560  0.5469  0.3142
64310SOL    HW2 3245   2.505   1.745   0.417  0.3871 -0.2254  0.8748
64311SOL     OW 3246   6.217  11.161   0.735 -0.3515  0.1224  0.1959
64311SOL    HW1 3247   6.131  11.128   0.760  0.5967  0.0369  3.8162
64311SOL    HW2 3248   6.256  11.090   0.684 -1.9607 -0.2836 -0.5339
64312SOL     OW 3249   5.259   7.085   9.700 -0.0924  0.4048  0.1181
64312SOL    HW1 3250   5.244   7.062   9.792  1.1546  3.0216  1.0841
64312SOL    HW2 3251   5.342   7.044   9.678 -0.5683 -0.5262  0.0119
64313SOL     OW 3252   1.022   2.685  11.200 -0.3483  0.2193  0.1376
64313SOL    HW1 3253   1.097   2.667  11.143 -1.1183 -3.9323  0.1151
64313SOL    HW2 3254   1.058   2.681  11.289  0.0925  2.4810  0.1218
64314SOL     OW 3255   0.082   3.243   4.181  0.1324 -0.2051 -1.0145
64314SOL    HW1 3256   0.039   3.280   4.258  1.8221 -0.8790  0.3268
64314SOL    HW2 3257   0.170   3.282   4.181  0.7391 -1.4936 -1.6133
64315SOL     OW 3258   5.625   4.207   3.856  0.2933  0.3760  0.2952
64315SOL    HW1 3259   5.640   4.255   3.775 -0.9752  0.4216  0.0736
64315SOL    HW2 3260   5.686   4.133   3.851  0.0915  0.2688 -0.7898
64316SOL     OW 3261   9.321  10.706  10.926 -0.0052  0.0320  0.1637
64316SOL    HW1 3262   9.396  10.738  10.975  0.5946 -2.5661  1.1049
64316SOL    HW2 3263   9.357  10.645  10.862 -1.2355 -1.1286  0.5084
64317SOL     OW 3264   5.392  11.499  12.502  0.0574  0.6120 -0.8277
64317SOL    HW1 3265   5.307  11.519  12.541 -0.9573 -2.9073 -0.9064
64317SOL    HW2 3266   5.446  11.576  12.521 -2.8915  2.6881 -0.1614
64318SOL     OW 3267  12.864  12.013  11.167 -0.8709  0.5228  0.2891
64318SOL    HW1 3268  12.839  11.921  11.177  0.8119  0.1097  0.9526
64318SOL    HW2 3269  12.861  12.029  11.073 -1.2844 -0.1674  0.1809
64319SOL     OW 3270   9.119   7.210   9.511  1.0995  0.4206 -0.2975
64319SOL    HW1 3271   9.055   7.244   9.575 -0.0636  1.5036 -1.9494
64319SOL    HW2 3272   9.126   7.117   9.531  0.0014  0.5389  0.7678
64320SOL     OW 3273   2.993   2.270   2.880  0.3273  0.1342  0.0527
64320SOL    HW1 3274   2.952   2.300   2.962  0.3849 -1.3996  0.6670
64320SOL    HW2 3275   3.039   2.190   2.904  0.0298 -0.5622 -1.5770
64321SOL     OW 3276   3.784   8.233   7.090 -0.4995  0.1071 -0.0174
64321SOL    HW1 3277   3.819   8.244   7.178  1.9015 -0.4993 -0.8227
64321SOL    HW2 3278   3.692   8.210   7.104 -0.0002 -0.7513  2.3510
64322SOL     OW 3279   9.708   5.899   1.109 -0.3193 -0.0372  0.3789
64322SOL    HW1 3280   9.683   5.831   1.172 -0.1332 -1.0669 -0.6288
64322SOL    HW2 3281   9.631   5.911   1.054  0.2453 -0.7358 -0.5736
64323SOL     OW 3282   6.142   9.306   0.639 -0.5604 -0.5928  0.3495
64323SOL    HW1 3283   6.120   9.376   0.700  0.3849 -0.5550  0.6673
64323SOL    HW2 3284   6.162   9.351   0.556  1.4590 -0.3148  0.9309
64324SOL     OW 3285   2.627   2.103   7.058  0.6338 -0.2267 -0.1469
64324SOL    HW1 3286   2.712   2.061   7.047 -0.0323 -1.3594 -1.2628
64324SOL    HW2 3287   2.566   2.047   7.009 -0.6275  0.9641 -0.0049
64325SOL     OW 3288   2.342   7.381   2.926  0.3073  0.4700 -0.9883
64325SOL    HW1 3289   2.355   7.424   2.842 -0.5792  1.1945 -0.7622
64325SOL    HW2 3290   2.262   7.420   2.962  0.2970 -0.3081 -0.1125
64326SOL     OW 3291   1.334   5.546   2.618 -0.4314  0.0508  0.5470
64326SOL    HW1 3292   1.385   5.616   2.578  1.2768 -0.7693  1.1943
64326SOL    HW2 3293   1.288   5.504   2.545  2.1385 -1.0461 -0.5402
64327SOL     OW 3294   3.379  12.862   9.676 -0.2952  0.2548 -0.2311
64327SOL    HW1 3295   3.346  12.781   9.637 -0.4538  0.3173 -0.2289
64327SOL    HW2 3296   3.450  12.834   9.734  1.2228  0.3327 -1.9722
64328SOL     OW 3297  11.966   4.362   0.914 -0.0564  0.9243 -0.1050
64328SOL    HW1 3298  12.043   4.306   0.922 -0.5574  0.1191 -0.7273
64328SOL    HW2 3299  11.937   4.375   1.005 -0.0714 -0.0478  0.0443
64329SOL     OW 3300   6.006   7.095   6.804 -0.4625  0.6069  0.0720
64329SOL    HW1 3301   6.057   7.027   6.760 -1.3534 -0.2374  0.3058
64329SOL    HW2 3302   6.069   7.137   6.864  0.3949  0.8102 -0.9362
64330SOL     OW 3303   3.345   7.665  10.035 -0.7256  0.1846 -0.0517
64330SOL    HW1 3304   3.371   7.578  10.003  0.3766  0.4942 -0.0434
64330SOL    HW2 3305   3.427   7.707  10.059 -1.0787  1.7688 -1.3981
64331SOL     OW 3306   0.630  10.595  10.390 -0.0901 -0.3857  0.3866
64331SOL    HW1 3307   0.564  10.617  10.324  1.6959  0.0169 -1.3516
64331SOL    HW2 3308   0.579  10.579  10.470 -2.1409  2.0364 -0.2867
64332SOL     OW 3309   4.861  10.930   9.377 -0.1219 -0.4015  0.2000
64332SOL    HW1 3310   4.924  10.996   9.405 -0.0811 -0.3250 -0.0686
64332SOL    HW2 3311   4.807  10.913   9.454  1.2260 -1.6252  0.9311
64333SOL     OW 3312   6.485   4.570   7.987  0.6236  0.0653  0.1203
64333SOL    HW1 3313   6.458   4.479   7.994 -2.7349  0.9480  0.1099
64333SOL    HW2 3314   6.492   4.600   8.078 -0.6246  0.3652  0.1368
64334SOL     OW 3315   0.722   1.299   0.566 -0.1960 -0.1966 -0.3431
64334SOL    HW1 3316   0.719   1.382   0.518 -0.7079 -0.0110  0.0126
64334SOL    HW2 3317   0.631   1.275   0.579 -0.0867  0.0829  1.1134
64335SOL     OW 3318  11.170   8.901   1.170 -0.0987 -0.2758 -0.0993
64335SOL    HW1 3319  11.245   8.876   1.116 -0.3825 -0.3167 -0.4753
64335SOL    HW2 3320  11.199   8.885   1.260  0.6575  0.5411 -0.1867
64336SOL     OW 3321   4.695   9.248  11.723  0.0816 -1.1842 -0.2893
64336SOL    HW1 3322   4.607   9.240  11.687  1.0660 -2.8246 -2.5604
64336SOL    HW2 3323   4.704   9.341  11.744 -2.1901 -0.9982  0.0788
64337SOL     OW 3324   3.673   4.526   8.622 -0.2951 -0.1976 -0.1835
64337SOL    HW1 3325   3.718   4.486   8.696 -0.3948 -1.0640 -0.5780
64337SOL    HW2 3326   3.585   4.544   8.654 -0.0355  0.3698  0.2163
64338SOL     OW 3327   5.284   8.190   2.936 -0.3936 -0.0724  0.8149
64338SOL    HW1 3328   5.343   8.223   2.869 -2.2762 -1.4668 -1.7014
64338SOL    HW2 3329   5.214   8.254   2.941 -1.4345 -1.0628 -0.3379
64339SOL     OW 3330   5.300  12.437   8.523  0.4632 -0.3946  0.0069
64339SOL    HW1 3331   5.364  12.369   8.548  0.2135 -1.6462 -2.4297
64339SOL    HW2 3332   5.219  12.388   8.507  0.9975 -0.1618 -4.6992
64340SOL     OW 3333   3.327   8.027   4.943  0.6155 -0.0900  0.2065
64340SOL    HW1 3334   3.313   8.099   4.881 -0.8482 -0.9437 -0.5146
64340SOL    HW2 3335   3.418   8.003   4.932  0.6307  0.4333 -0.8941
64341SOL     OW 3336  12.115   3.140   5.874  0.4589  0.2943  0.2830
64341SOL    HW1 3337  12.051   3.079   5.839  2.1203 -1.4594  0.1530
64341SOL    HW2 3338  12.192   3.128   5.820  0.7793  2.7509  0.0794
64342SOL     OW 3339   7.475   9.686   6.698  0.2003  0.4610 -0.1719
64342SOL    HW1 3340   7.412   9.757   6.682 -0.3205 -0.0525 -0.4479
64342SOL    HW2 3341   7.456   9.658   6.788  1.2091  1.4505  0.3738
64343SOL     OW 3342   1.725   4.336   2.677  0.0537 -0.9058 -0.2892
64343SOL    HW1 3343   1.799   4.287   2.712 -1.7946 -3.5571  0.1860
64343SOL    HW2 3344   1.716   4.303   2.587 -0.7941 -0.9119 -0.2032
64344SOL     OW 3345   8.020   2.790   8.210 -0.0811 -0.2260  0.2112
64344SOL    HW1 3346   8.022   2.866   8.150 -1.4123 -0.6031 -0.3527
64344SOL    HW2 3347   8.086   2.811   8.277  0.1298  1.0700 -0.3573
64345SOL     OW 3348   3.206   8.309   5.068  0.1280 -0.3008 -0.6550
64345SOL    HW1 3349   3.214   8.372   4.996  0.4643  0.1910 -0.2016
64345SOL    HW2 3350   3.171   8.230   5.027  0.3240 -0.0367 -1.3606
64346SOL     OW 3351  11.367   7.298   8.255  0.7322  0.3484 -0.0069
64346SOL    HW1 3352  11.339   7.316   8.165  1.4435  0.0270 -0.3016
64346SOL    HW2 3353  11.421   7.374   8.279  3.0570 -0.9029 -0.9582
64347SOL     OW 3354   4.460   4.796   2.071 -0.4362  0.1123  0.0455
64347SOL    HW1 3355   4.544   4.753   2.052 -0.7703 -1.2441  1.4519
64347SOL    HW2 3356   4.469   4.827   2.161 -0.2547  3.0271 -0.8742
64348SOL     OW 3357   1.449   5.580   1.223  0.1163  0.7156 -0.0674
64348SOL    HW1 3358   1.371   5.547   1.267 -0.2220  0.5540 -0.7810
64348SOL    HW2 3359   1.506   5.503   1.215  1.2656  1.2239  2.3025
64349SOL     OW 3360   3.182   5.058  12.254  0.0710 -0.0194 -0.1431
64349SOL    HW1 3361   3.227   5.117  12.194 -2.5287  2.2155 -0.0698
64349SOL    HW2 3362   3.238   4.980  12.256  1.3132  0.5410 -3.8806
64350SOL     OW 3363   0.237   7.561   8.534  0.4655 -0.5196  0.8811
64350SOL    HW1 3364   0.194   7.576   8.450  0.1135 -1.6771  0.8347
64350SOL    HW2 3365   0.166   7.536   8.594  0.8308 -0.6155  1.2824
64351SOL     OW 3366   7.471   8.235   6.479 -0.0877  0.2660 -0.1634
64351SOL    HW1 3367   7.555   8.201   6.449  0.5988  0.1413  1.7267
64351SOL    HW2 3368   7.421   8.251   6.399  1.0975 -1.2583 -1.2729
64352SOL     OW 3369   2.506  11.107  10.559 -1.0673 -0.6800 -0.3410
64352SOL    HW1 3370   2.476  11.035  10.613 -1.1387 -2.5217 -2.6844
64352SOL    HW2 3371   2.596  11.085  10.536 -1.6011 -0.9258 -2.3990
64353SOL     OW 3372   6.588   3.707   3.652 -0.0316 -0.1264  0.1618
64353SOL    HW1 3373   6.680   3.697   3.627 -0.4342 -0.5529 -1.2806
64353SOL    HW2 3374   6.552   3.765   3.585 -1.0501 -0.8476  0.0682
64354SOL     OW 3375   3.974  11.869  11.856 -0.6362 -0.3250  0.3847
64354SOL    HW1 3376   3.887  11.888  11.890 -0.2174  0.8899  0.8397
64354SOL    HW2 3377   3.968  11.779  11.824 -2.0353 -0.2764  0.4424
64355SOL     OW 3378   3.518   5.174   7.665 -0.4674  0.4158 -0.3968
64355SOL    HW1 3379   3.569   5.099   7.696 -0.9712 -0.1689 -0.9449
64355SOL    HW2 3380   3.461   5.138   7.597  0.2533  1.5483 -1.6659
64356SOL     OW 3381   0.109   1.199   9.432 -0.6631 -0.4061  0.0164
64356SOL    HW1 3382   0.170   1.127   9.448 -0.1333  0.0615  0.1287
64356SOL    HW2 3383   0.048   1.164   9.367  0.2347 -0.5921 -0.7455
64357SOL     OW 3384  12.336   6.165  10.233  0.0107 -0.0328 -0.4729
64357SOL    HW1 3385  12.323   6.074  10.260  2.0580 -0.3468 -0.3829
64357SOL    HW2 3386  12.249   6.194  10.205 -1.0622 -1.4391  1.1631
64358SOL     OW 3387   9.551  10.515   9.764  0.7824 -0.4229  0.3898
64358SOL    HW1 3388   9.582  10.455   9.832  2.0698 -0.6906 -0.3903
64358SOL    HW2 3389   9.578  10.475   9.682  1.9599  1.3375 -0.1532
64359SOL     OW 3390   3.652  12.489  10.992 -0.2077 -0.1089  0.0958
64359SOL    HW1 3391   3.618  12.431  11.060 -1.6717  1.5866  0.8788
64359SOL    HW2 3392   3.746  12.492  11.008 -0.0756 -2.2122  0.0280
64360SOL     OW 3393   5.667   7.339   8.444  0.0411  0.1176 -0.0134
64360SOL    HW1 3394   5.608   7.273   8.408 -1.0592  0.4407  1.1129
64360SOL    HW2 3395   5.700   7.386   8.368 -1.1868 -0.0708 -0.6888
64361SOL     OW 3396  12.626   5.128   0.723  0.1418 -0.0631  0.4657
64361SOL    HW1 3397  12.632   5.111   0.629  1.1386  0.8304  0.3521
64361SOL    HW2 3398  12.701   5.185   0.742  0.4614 -0.9190  1.9546
64362SOL     OW 3399   5.836   6.781   1.436  0.3978  0.2427 -0.1017
64362SOL    HW1 3400   5.848   6.742   1.349  0.1395  0.6547 -0.3255
64362SOL    HW2 3401   5.883   6.864   1.431  0.0669  0.4384  0.0312
64363SOL     OW 3402   4.569   2.177  10.966 -0.2731  0.4951 -0.0799
64363SOL    HW1 3403   4.543   2.269  10.973  0.9032  0.8766 -0.5455
64363SOL    HW2 3404   4.486   2.129  10.965 -0.9021  1.5375  0.2420
64364SOL     OW 3405   4.842   1.646   3.562 -0.1965 -0.4812 -0.3004
64364SOL    HW1 3406   4.816   1.734   3.534  0.6919 -0.2987 -0.5641
64364SOL    HW2 3407   4.774   1.589   3.525 -0.2345 -0.0137 -0.9788
64365SOL     OW 3408   2.244   7.316   0.392 -0.2530  0.4818 -0.5064
64365SOL    HW1 3409   2.156   7.292   0.422 -0.1724 -1.0944 -1.4280
64365SOL    HW2 3410   2.238   7.316   0.296  0.0866  3.1306 -0.6100
64366SOL     OW 3411   7.614  12.133  11.500  0.0676  0.5321 -0.5500
64366SOL    HW1 3412   7.528  12.146  11.460 -0.6358 -0.8418  0.4286
64366SOL    HW2 3413   7.628  12.210  11.554 -1.1314  0.2206  0.2447
64367SOL     OW 3414  10.806   7.031   4.851  0.2369 -0.1168  0.7287
64367SOL    HW1 3415  10.832   6.968   4.919  0.6105 -0.5058  0.2345
64367SOL    HW2 3416  10.820   6.984   4.769  0.6801  0.6645  0.3463
64368SOL     OW 3417   2.445   6.286   3.649  0.6893  0.5814  0.2335
64368SOL    HW1 3418   2.428   6.226   3.577 -0.9336  1.3205 -0.0419
64368SOL    HW2 3419   2.428   6.234   3.728 -0.2610  0.5410  0.0089
64369SOL     OW 3420   1.326   9.745  11.555 -0.0143  0.1562 -0.0730
64369SOL    HW1 3421   1.387   9.710  11.491 -0.6611 -2.2045  0.5099
64369SOL    HW2 3422   1.240   9.716  11.525 -0.7467  2.1923 -0.0941
64370SOL     OW 3423   5.626   5.737   6.962 -0.0839  0.2358 -0.3410
64370SOL    HW1 3424   5.582   5.688   7.030  0.5790  0.9151  0.6059
64370SOL    HW2 3425   5.712   5.694   6.953  1.1541  2.1097  1.6432
64371SOL     OW 3426   1.223   7.337   6.673 -0.0918  0.0777  0.8196
64371SOL    HW1 3427   1.257   7.426   6.681 -0.6059  0.5504 -1.5387
64371SOL    HW2 3428   1.300   7.283   6.656  0.1802  0.0848  1.9257
64372SOL     OW 3429  11.685   9.060   5.530  0.0780 -0.3870  0.0228
64372SOL    HW1 3430  11.634   9.141   5.534  3.5186  1.9685  0.6252
64372SOL    HW2 3431  11.704   9.038   5.621  0.7028 -0.8085 -0.2005
64373SOL     OW 3432   8.663   5.826   6.656 -0.3204 -0.0524 -0.7753
64373SOL    HW1 3433   8.692   5.913   6.630  0.7898 -0.5299 -1.2064
64373SOL    HW2 3434   8.735   5.791   6.708 -1.2574 -0.2706  0.4402
64374SOL     OW 3435  11.223   8.583   4.127  0.2240  0.2690 -0.3487
64374SOL    HW1 3436  11.185   8.614   4.209  1.0571  0.6775 -0.1034
64374SOL    HW2 3437  11.263   8.499   4.150 -0.4387 -0.1156 -0.5841
64375SOL     OW 3438   9.482   0.017   4.410 -0.5433 -0.1971  0.4263
64375SOL    HW1 3439   9.392   0.050   4.418 -0.6524 -0.6071  0.9817
64375SOL    HW2 3440   9.537   0.095   4.419 -0.7460 -0.2555  2.9656
64376SOL     OW 3441   5.444   2.659  10.161  0.9037 -0.4776  0.2809
64376SOL    HW1 3442   5.461   2.592  10.227 -3.5367 -2.2617 -0.0150
64376SOL    HW2 3443   5.409   2.733  10.211 -0.1594 -0.8906  0.1737
64377SOL     OW 3444   8.008   2.211   2.140  0.6790  0.2068  0.1205
64377SOL    HW1 3445   8.068   2.144   2.106  0.7340  1.0104 -1.4521
64377SOL    HW2 3446   7.959   2.240   2.064  0.0215  1.3286  0.9458
64378SOL     OW 3447   5.007   6.450   9.181 -0.1743 -0.1705 -0.0572
64378SOL    HW1 3448   5.075   6.397   9.140 -0.0910  1.6066 -2.4226
64378SOL    HW2 3449   5.054   6.524   9.220 -0.5626  0.0031  0.0905
64379SOL     OW 3450   7.126  11.037   8.772 -0.2478  0.3453  0.1297
64379SOL    HW1 3451   7.161  11.010   8.857 -1.2690  1.3889  0.9131
64379SOL    HW2 3452   7.040  10.994   8.767 -1.0752  1.8674  0.5573
64380SOL     OW 3453   7.752   7.483   0.713  0.1995  0.7718 -0.0893
64380SOL    HW1 3454   7.847   7.497   0.716  0.1071  1.2721  0.9982
64380SOL    HW2 3455   7.715   7.565   0.744 -0.5974  0.6054 -0.5938
64381SOL     OW 3456   6.989   2.930   1.538 -0.7940  0.2453  0.2358
64381SOL    HW1 3457   6.936   2.867   1.487 -0.9883 -0.4375  1.2528
64381SOL    HW2 3458   7.052   2.876   1.585  0.1938  0.9790 -0.2120
64382SOL     OW 3459   1.949   1.223   3.226 -0.8599 -0.2503 -0.2744
64382SOL    HW1 3460   1.871   1.234   3.172 -1.8033  0.0924  1.0939
64382SOL    HW2 3461   1.917   1.184   3.307  0.3110  0.3060  0.4990
64383SOL     OW 3462   7.356  11.851   3.083 -0.4293 -0.1041 -0.1915
64383SOL    HW1 3463   7.400  11.912   3.142  0.5599  0.4425 -1.4537
64383SOL    HW2 3464   7.268  11.886   3.074 -0.6920 -0.3537  1.1456
64384SOL     OW 3465   5.896   1.386   7.244 -0.1396 -0.9627 -0.5519
64384SOL    HW1 3466   5.849   1.443   7.305  1.0018 -0.7037  0.1226
64384SOL    HW2 3467   5.983   1.425   7.238 -0.0253 -1.3878 -1.8205
64385SOL     OW 3468   4.727   1.165   5.260  0.3363 -0.2279 -0.0249
64385SOL    HW1 3469   4.633   1.147   5.247  0.3838 -0.3520 -0.2103
64385SOL    HW2 3470   4.748   1.228   5.191  0.5548 -0.7633 -0.4569
64386SOL     OW 3471   4.543   4.414   5.829 -0.3442 -0.1361  0.2082
64386SOL    HW1 3472   4.528   4.427   5.922 -1.3577 -0.5064  0.1082
64386SOL    HW2 3473   4.481   4.345   5.804 -1.0664  0.8962 -0.9942
64387SOL     OW 3474   2.555   0.106   4.796 -0.5008 -0.0407 -0.2482
64387SOL    HW1 3475   2.514   0.047   4.734 -0.0096 -0.6408 -0.0108
64387SOL    HW2 3476   2.644   0.120   4.762 -0.5341  0.3654 -0.1757
64388SOL     OW 3477   5.850  12.009   1.790  0.2643 -0.3236 -0.4356
64388SOL    HW1 3478   5.780  12.000   1.725 -2.4080  0.9721  2.0274
64388SOL    HW2 3479   5.883  11.920   1.803 -1.7356 -1.1807 -0.9036
64389SOL     OW 3480   7.109   1.508   9.995  0.1082  0.3994  0.2557
64389SOL    HW1 3481   7.146   1.574  10.055  1.1396 -0.1127  0.2104
64389SOL    HW2 3482   7.029   1.478  10.039  0.8799 -0.0166  1.4283
64390SOL     OW 3483   7.176   9.252  11.308  1.0148 -0.1280 -0.0705
64390SOL    HW1 3484   7.254   9.246  11.363 -0.4584  1.5273  2.4121
64390SOL    HW2 3485   7.112   9.195  11.351 -0.9918  3.1354  1.6682
64391SOL     OW 3486   6.717  10.958  11.152 -0.6827  0.2024 -0.2698
64391SOL    HW1 3487   6.718  10.946  11.247 -1.0707  1.1624 -0.1357
64391SOL    HW2 3488   6.750  11.046  11.138  0.1628 -0.2273 -1.0872
64392SOL     OW 3489  11.425  10.727   3.102  0.5692 -0.3356  0.5049
64392SOL    HW1 3490  11.495  10.732   3.167  0.8077  1.7978  0.1652
64392SOL    HW2 3491  11.467  10.752   3.019 -0.9902  4.1026  0.7459
64393SOL     OW 3492   1.718   4.945   3.800  0.0099  0.2917  0.2005
64393SOL    HW1 3493   1.657   4.872   3.787 -0.6403  0.4224  2.1876
64393SOL    HW2 3494   1.803   4.909   3.777 -0.2328 -1.2864  1.5878
64394SOL     OW 3495   5.483   7.153   1.962  0.2297 -0.0291  0.7319
64394SOL    HW1 3496   5.460   7.241   1.991 -2.0042 -0.5347  0.6943
64394SOL    HW2 3497   5.473   7.099   2.040 -1.4930 -0.6979  0.0978
64395SOL     OW 3498   4.335   0.972   0.697  0.0852  0.2193  0.4537
64395SOL    HW1 3499   4.280   0.896   0.680  0.7390  0.0954 -1.2583
64395SOL    HW2 3500   4.381   0.951   0.778 -0.5635 -0.7142  0.5915
64396SOL     OW 3501   3.235   7.852   5.635  0.4391  0.1164 -0.4664
64396SOL    HW1 3502   3.170   7.814   5.576 -1.1976  0.5510  0.9573
64396SOL    HW2 3503   3.214   7.815   5.721 -0.8961  3.5559  0.9199
64397SOL     OW 3504   3.769   8.690  10.100  1.0167 -0.1766 -0.5403
64397SOL    HW1 3505   3.714   8.622  10.139  1.5469  0.2272  0.9733
64397SOL    HW2 3506   3.849   8.688  10.152  1.5111  0.7869 -1.2524
64398SOL     OW 3507  10.720   6.727  10.192 -0.9067 -0.1943 -0.1234
64398SOL    HW1 3508  10.807   6.765  10.179 -0.9160 -0.3892 -0.7971
64398SOL    HW2 3509  10.728   6.673  10.271 -1.3424  2.5467  1.9653
64399SOL     OW 3510   6.098   0.765   9.278 -0.0357  0.2817  0.5616
64399SOL    HW1 3511   6.067   0.846   9.320  1.3911  0.8307  0.5927
64399SOL    HW2 3512   6.188   0.784   9.253  0.3123 -1.3030  0.5432
64400SOL     OW 3513  11.967  12.465   3.094  0.0895 -0.0995  0.1643
64400SOL    HW1 3514  12.043  12.426   3.138 -0.1420 -1.3638 -0.4870
64400SOL    HW2 3515  11.906  12.485   3.164  1.1076  1.1666  0.7267
64401SOL     OW 3516  12.369   6.324   2.581  0.7273 -0.0187  0.4408
64401SOL    HW1 3517  12.437   6.262   2.605  0.6930 -0.5849 -0.8688
64401SOL    HW2 3518  12.416   6.395   2.537  0.2813 -1.9171 -3.4686
64402SOL     OW 3519   6.673   0.005   6.634 -0.0085 -0.0935 -0.4018
64402SOL    HW1 3520   6.724   0.082   6.610  0.2453 -0.3790 -0.7916
64402SOL    HW2 3521   6.588   0.018   6.591 -0.0664  0.0976 -0.2363
64403SOL     OW 3522   3.126   5.662   0.029  0.3435  0.2539  0.0417
64403SOL    HW1 3523   3.087   5.626  -0.051  0.5303  0.2594 -0.0532
64403SOL    HW2 3524   3.052   5.687   0.083  0.2130  1.3948 -0.6437
64404SOL     OW 3525   8.576  10.081  10.691  0.7231 -0.2969  0.2915
64404SOL    HW1 3526   8.628  10.151  10.731  0.7575 -0.7461  1.0551
64404SOL    HW2 3527   8.486  10.099  10.719  0.3949  0.5776 -1.1664
64405SOL     OW 3528  12.481   4.878   6.355  0.5829 -0.2193  0.2797
64405SOL    HW1 3529  12.403   4.924   6.322  0.6169 -0.8136 -0.6757
64405SOL    HW2 3530  12.550   4.943   6.351 -0.0536  0.6236  2.0958
64406SOL     OW 3531   8.889   8.562  10.618  0.2899 -0.4530  0.0741
64406SOL    HW1 3532   8.848   8.578  10.703  1.2270 -0.2839  0.5018
64406SOL    HW2 3533   8.968   8.616  10.618  0.2428 -0.3545 -0.9582
64407SOL     OW 3534  12.594   4.140   5.118  0.0997 -0.4302 -0.4129
64407SOL    HW1 3535  12.574   4.226   5.080 -0.2333 -0.4910 -0.3830
64407SOL    HW2 3536  12.649   4.097   5.053  0.2523 -0.2004 -0.4368
64408SOL     OW 3537  10.698   3.318   2.989 -0.7134  0.3285  0.0706
64408SOL    HW1 3538  10.602   3.316   2.995 -0.8180  1.0829 -1.0360
64408SOL    HW2 3539  10.716   3.342   2.899  0.5383  0.0094  0.2155
64409SOL     OW 3540  12.137   7.045  11.817 -0.1800 -0.7529 -0.1936
64409SOL    HW1 3541  12.221   7.001  11.815  0.2356  0.0407 -1.1223
64409SOL    HW2 3542  12.082   6.990  11.872  1.7195  0.1462  2.8481
64410SOL     OW 3543   0.706  12.056   4.869  0.0486  0.0479 -0.2694
64410SOL    HW1 3544   0.758  12.079   4.793  0.9099  0.7529  0.5005
64410SOL    HW2 3545   0.763  12.002   4.923 -0.6854 -0.7793 -0.2978
64411SOL     OW 3546   2.815   5.031   9.419 -0.4179  0.3517 -0.1519
64411SOL    HW1 3547   2.836   4.978   9.343 -3.2041 -0.5602 -0.4065
64411SOL    HW2 3548   2.894   5.029   9.473  0.6882 -1.2443 -1.7354
64412SOL     OW 3549  11.150   5.089   2.581 -0.2181 -0.9614  0.5970
64412SOL    HW1 3550  11.184   5.067   2.667  1.0661  1.4217  0.7758
64412SOL    HW2 3551  11.217   5.059   2.520 -0.5221 -1.4733  0.5090
64413SOL     OW 3552   8.514   2.483   7.877  0.0001 -0.0182  0.3422
64413SOL    HW1 3553   8.503   2.424   7.952  1.6159 -0.5850  0.1761
64413SOL    HW2 3554   8.523   2.424   7.802 -0.4200  0.5137 -0.1246
64414SOL     OW 3555   8.943   1.997   5.250 -0.3884 -0.4131 -0.1079
64414SOL    HW1 3556   8.925   1.997   5.156 -0.8248 -2.3656 -0.0737
64414SOL    HW2 3557   9.033   2.029   5.257 -0.8063  1.0696 -1.0499
64415SOL     OW 3558   5.952   0.109   8.017  0.3435  0.8063  0.2052
64415SOL    HW1 3559   5.988   0.100   8.105  0.4195 -1.1160  0.0192
64415SOL    HW2 3560   6.026   0.135   7.963 -0.0069  3.5357  0.9044
64416SOL     OW 3561  12.650   1.608   2.160  0.3603  0.1360 -0.1781
64416SOL    HW1 3562  12.565   1.637   2.193  0.9980  2.3149 -0.2824
64416SOL    HW2 3563  12.702   1.591   2.239 -0.0564 -0.9007 -0.1151
64417SOL     OW 3564   8.951   6.636   6.955  0.4399  0.5659  0.1384
64417SOL    HW1 3565   9.024   6.611   6.898  0.3766  0.2756  0.1824
64417SOL    HW2 3566   8.953   6.732   6.956  0.3115  0.5783 -0.5160
64418SOL     OW 3567   4.558   8.527   5.659 -0.8064  0.5854 -0.2419
64418SOL    HW1 3568   4.476   8.489   5.626 -0.7984  0.4570 -0.1120
64418SOL    HW2 3569   4.531   8.603   5.711 -1.0340 -0.9602  2.0236
64419SOL     OW 3570   2.873  12.853   3.700 -0.3707 -0.1461  1.1550
64419SOL    HW1 3571   2.922  12.935   3.692  0.3247 -0.4939  1.7447
64419SOL    HW2 3572   2.903  12.799   3.626 -0.7587  0.0800  0.8229
64420SOL     OW 3573   0.107   4.925   8.152  0.1666 -0.4187  0.3586
64420SOL    HW1 3574   0.034   4.973   8.192  0.1277  0.1622 -0.3931
64420SOL    HW2 3575   0.184   4.979   8.172 -0.1549  1.3475 -2.5462
64421SOL     OW 3576   0.925   0.246   4.395  0.1998 -0.0171  0.3444
64421SOL    HW1 3577   0.876   0.319   4.358  0.0121 -0.7979 -1.0292
64421SOL    HW2 3578   0.958   0.279   4.478 -1.5076  0.9757  0.6694
64422SOL     OW 3579   2.913   4.756  12.882  0.3647  0.2896  0.2747
64422SOL    HW1 3580   2.851   4.700  12.837 -0.7476 -0.7313  2.8574
64422SOL    HW2 3581   2.999   4.723  12.857 -0.1900 -0.0582 -1.2139
64423SOL     OW 3582   3.831  10.916   3.047  0.4419  0.0988  0.1409
64423SOL    HW1 3583   3.883  10.862   2.988 -0.1685  0.3355 -0.6317
64423SOL    HW2 3584   3.799  10.987   2.991  0.5618  0.8030  0.9564
64424SOL     OW 3585   8.362   9.095   3.947  0.0667 -0.3364 -0.4048
64424SOL    HW1 3586   8.302   9.131   3.881  1.3003 -0.7399 -1.7726
64424SOL    HW2 3587   8.430   9.162   3.956  0.3328 -0.6421 -0.1341
64425SOL     OW 3588   0.139   5.862   5.638  0.3465 -0.6935  0.5894
64425SOL    HW1 3589   0.125   5.835   5.547 -1.7589  1.7887  0.0492
64425SOL    HW2 3590   0.054   5.848   5.680  0.9939 -0.8059  1.9203
64426SOL     OW 3591   4.853   5.088   2.850 -0.0659  0.2453  0.1469
64426SOL    HW1 3592   4.843   5.132   2.934  0.6949  3.0385 -1.1054
64426SOL    HW2 3593   4.923   5.025   2.864  0.6822  1.3070  1.4068
64427SOL     OW 3594   9.699   9.460  11.986  0.1479  0.1257  0.3156
64427SOL    HW1 3595   9.705   9.518  12.062  1.4561 -0.4744  0.7219
64427SOL    HW2 3596   9.606   9.439  11.978 -0.1654  1.1866  0.9806
64428SOL     OW 3597  11.606  11.048   5.812  0.3825  0.8146  0.3743
64428SOL    HW1 3598  11.586  11.095   5.893  0.9304  0.9913  0.4166
64428SOL    HW2 3599  11.568  11.102   5.743  0.0165  0.7251  0.5057
64429SOL     OW 3600  10.003  10.299   5.832 -0.5369  0.8962  0.3614
64429SOL    HW1 3601  10.035  10.279   5.743  0.6925  1.8375  0.5730
64429SOL    HW2 3602   9.959  10.383   5.823 -1.0704  0.6301  0.4984
64430SOL     OW 3603   2.424   8.292   0.032  0.0386  0.0787 -0.0805
64430SOL    HW1 3604   2.383   8.370   0.067  0.4407  0.4764 -0.4852
64430SOL    HW2 3605   2.464   8.320  -0.050  0.0600 -0.5836 -0.3051
64431SOL     OW 3606   2.519   6.067   5.590 -0.7798  0.1747  0.3491
64431SOL    HW1 3607   2.554   5.985   5.554 -1.7030 -0.0616 -0.0432
64431SOL    HW2 3608   2.424   6.061   5.575 -0.8662  1.2877  0.3620
64432SOL     OW 3609   2.075   0.969   6.959 -0.1149 -0.4635 -0.1321
64432SOL    HW1 3610   2.159   1.014   6.970  0.6807 -1.6072 -1.2348
64432SOL    HW2 3611   2.057   0.930   7.044  1.4820 -1.8271 -0.3539
64433SOL     OW 3612   3.556   6.205   6.787 -0.2792 -0.0236 -1.0534
64433SOL    HW1 3613   3.605   6.144   6.842 -0.7018 -0.0347 -0.6848
64433SOL    HW2 3614   3.487   6.152   6.748 -0.3453  0.1131 -1.1216
64434SOL     OW 3615   7.880   5.144   4.961 -0.1517 -0.6702 -0.0764
64434SOL    HW1 3616   7.962   5.101   4.984 -0.3434 -1.6208 -1.0872
64434SOL    HW2 3617   7.841   5.087   4.894 -0.6155  0.8713 -1.1656
64435SOL     OW 3618   7.582   5.895   2.446 -0.0277 -0.9289 -0.1240
64435SOL    HW1 3619   7.523   5.928   2.513  1.2626 -1.1164  1.1528
64435SOL    HW2 3620   7.613   5.974   2.400 -0.3880 -0.7402 -0.0457
64436SOL     OW 3621   9.658   1.479   1.721 -0.0317  0.0642 -0.2289
64436SOL    HW1 3622   9.689   1.519   1.802  0.2672  1.8303 -1.1696
64436SOL    HW2 3623   9.663   1.385   1.738 -1.8766  0.3143  2.5151
64437SOL     OW 3624   1.488   0.838   9.065  0.5792 -0.1481  0.0558
64437SOL    HW1 3625   1.419   0.784   9.027  0.8355 -0.2570 -0.2641
64437SOL    HW2 3626   1.530   0.781   9.130  1.4202 -0.6585 -0.8959
64438SOL     OW 3627  11.515   5.050   8.935  0.7147  0.3738  0.2460
64438SOL    HW1 3628  11.600   5.053   8.978  0.4030 -0.3470  0.9372
64438SOL    HW2 3629  11.507   4.961   8.901 -0.3580 -0.0418  1.4841
64439SOL     OW 3630   9.604   8.912   5.598 -0.2832 -0.5085 -0.1547
64439SOL    HW1 3631   9.594   8.876   5.686 -1.0340  2.1086  0.9295
64439SOL    HW2 3632   9.616   9.006   5.612 -1.9118  0.2277 -2.9162
64440SOL     OW 3633   6.366  11.808   3.689 -0.3481 -0.2105 -0.7949
64440SOL    HW1 3634   6.329  11.843   3.608 -0.5696  2.2143  0.2387
64440SOL    HW2 3635   6.415  11.882   3.726 -0.4703 -1.1373  1.3841
64441SOL     OW 3636   4.281   6.203   3.512 -0.5036 -0.1715  0.2492
64441SOL    HW1 3637   4.308   6.293   3.529 -1.7243 -0.0028  1.4629
64441SOL    HW2 3638   4.210   6.187   3.574 -0.8071 -1.7318 -0.4513
64442SOL     OW 3639  11.754  12.401   2.794  0.6642  0.4362 -0.1075
64442SOL    HW1 3640  11.795  12.323   2.757  0.3801 -0.7050  1.8699
64442SOL    HW2 3641  11.827  12.452   2.828  0.6673 -0.3557  1.1193
64443SOL     OW 3642  11.007   3.119   3.648 -0.1004  0.4115  0.4823
64443SOL    HW1 3643  10.917   3.114   3.683 -0.3101  1.2058  0.0652
64443SOL    HW2 3644  11.018   3.211   3.624  0.6314  0.1982 -0.0001
64444SOL     OW 3645   5.473  11.980   0.820  0.3311 -0.0229  0.2039
64444SOL    HW1 3646   5.560  12.005   0.787  0.1073 -0.5986 -0.8742
64444SOL    HW2 3647   5.488  11.953   0.910  1.6828 -2.2701 -0.6091
64445SOL     OW 3648  12.724   2.174   4.663 -0.1209 -0.0250 -0.2660
64445SOL    HW1 3649  12.797   2.151   4.722 -0.2577  0.1215 -0.0385
64445SOL    HW2 3650  12.669   2.232   4.715 -0.0194  0.4454 -0.6850
64446SOL     OW 3651  10.750   0.821   8.109  0.0698  0.1997 -0.4011
64446SOL    HW1 3652  10.656   0.821   8.129  0.2379 -0.2102  0.3999
64446SOL    HW2 3653  10.757   0.767   8.030 -0.2097 -0.9220  0.3300
64447SOL     OW 3654   5.407   8.464   6.395  0.3912 -0.2906 -0.1348
64447SOL    HW1 3655   5.390   8.550   6.355 -0.2875  0.2423  1.2376
64447SOL    HW2 3656   5.420   8.405   6.320  0.3427  0.9006 -1.1131
64448SOL     OW 3657   7.281   7.752   4.321 -0.1353 -0.7439  0.5486
64448SOL    HW1 3658   7.316   7.753   4.410 -1.2589 -1.3404  1.0206
64448SOL    HW2 3659   7.270   7.844   4.298  0.2103 -0.5832  1.0087
64449SOL     OW 3660   0.890   7.344   3.990  0.0374 -0.1021 -0.1943
64449SOL    HW1 3661   0.960   7.397   3.952 -0.9907  1.0359 -0.5581
64449SOL    HW2 3662   0.842   7.404   4.047 -0.1093 -1.1043  0.7697
64450SOL     OW 3663   4.193   0.371   3.103 -0.0168 -0.3396 -0.3245
64450SOL    HW1 3664   4.209   0.305   3.035 -1.8492 -0.2770 -0.8664
64450SOL    HW2 3665   4.220   0.454   3.062  0.7876 -0.5410 -0.2187
64451SOL     OW 3666   7.438  10.407   7.431  0.0747 -0.8828  0.4453
64451SOL    HW1 3667   7.469  10.416   7.341  0.9661  0.8068  0.8671
64451SOL    HW2 3668   7.344  10.397   7.423 -0.3597  2.5983 -0.6474
64452SOL     OW 3669   9.726   3.614   9.337  0.5585  0.7585 -0.5003
64452SOL    HW1 3670   9.650   3.620   9.395  0.4953  0.5960 -0.5658
64452SOL    HW2 3671   9.725   3.696   9.288  2.2239  2.2135  1.6890
64453SOL     OW 3672   7.968   8.026  11.414 -0.0141 -0.1584 -0.0034
64453SOL    HW1 3673   7.914   8.022  11.493  1.2438 -0.7175  0.8778
64453SOL    HW2 3674   8.045   7.972  11.435  1.3402  1.3546 -0.8098
64454SOL     OW 3675   8.491   9.808   5.952  0.4492 -0.0372  0.3321
64454SOL    HW1 3676   8.396   9.792   5.949  0.3157  0.8319 -1.5667
64454SOL    HW2 3677   8.529   9.721   5.962 -0.5460 -0.4466  0.6808
64455SOL     OW 3678   1.060   6.877  11.792  0.5152 -0.1743 -0.0262
64455SOL    HW1 3679   1.014   6.825  11.858 -1.5139  1.7095  0.1514
64455SOL    HW2 3680   1.153   6.862  11.810 -0.0006 -1.8304  1.5029
64456SOL     OW 3681   1.147   7.510  12.824 -0.3257  0.0330 -0.1678
64456SOL    HW1 3682   1.150   7.592  12.873  0.3213  0.4499 -0.8855
64456SOL    HW2 3683   1.150   7.537  12.733 -0.4530 -0.7790 -0.4142
64457SOL     OW 3684   6.915   4.874   4.935 -0.0282 -0.3530  0.2576
64457SOL    HW1 3685   6.922   4.900   5.027  1.6411 -1.7755  0.5927
64457SOL    HW2 3686   6.838   4.817   4.932  0.4721 -1.0982  1.0113
64458SOL     OW 3687   2.044   7.518  12.752 -0.2838 -0.1965  0.2240
64458SOL    HW1 3688   2.000   7.600  12.732 -1.6792 -1.3434 -1.8022
64458SOL    HW2 3689   2.134   7.543  12.775 -0.6236  1.8496 -0.5357
64459SOL     OW 3690   4.039   8.752   3.132 -0.7202  0.0234 -0.1629
64459SOL    HW1 3691   3.964   8.703   3.165  0.1102 -1.6591 -0.6826
64459SOL    HW2 3692   4.106   8.686   3.116  0.8776  1.4637  0.2280
64460SOL     OW 3693   7.787  10.314   3.650  0.3374  0.3849 -0.0714
64460SOL    HW1 3694   7.814  10.402   3.675 -0.6075  0.5430  0.4422
64460SOL    HW2 3695   7.774  10.268   3.733 -3.0391  0.9733 -0.1276
64461SOL     OW 3696   2.997   0.869  11.543  0.0727 -0.4656  0.6295
64461SOL    HW1 3697   3.034   0.931  11.606  2.3138 -1.4864  0.3982
64461SOL    HW2 3698   3.052   0.791  11.550 -2.6483 -2.5007  0.8915
64462SOL     OW 3699  10.305  10.962   0.274 -0.3892  0.4221 -0.5178
64462SOL    HW1 3700  10.393  10.997   0.260 -0.2059 -0.2622 -1.1022
64462SOL    HW2 3701  10.308  10.925   0.363 -0.4179  1.3470 -0.1180
64463SOL     OW 3702   4.950   1.680   9.824  0.0871  0.3203  0.3166
64463SOL    HW1 3703   4.866   1.708   9.860  0.6230  0.8549  1.1717
64463SOL    HW2 3704   4.972   1.747   9.760 -0.2218  0.0805 -0.0449
64464SOL     OW 3705   2.054   2.125   3.175 -0.1767 -0.0700 -0.6307
64464SOL    HW1 3706   2.144   2.094   3.189 -0.2852 -0.3495 -0.5372
64464SOL    HW2 3707   2.054   2.160   3.086  0.6326  2.0869  0.1451
64465SOL     OW 3708  12.183   3.249   8.259 -0.3752 -0.0136  0.5571
64465SOL    HW1 3709  12.212   3.255   8.350  0.3102 -3.1928  0.6818
64465SOL    HW2 3710  12.088   3.256   8.263 -0.2807  1.0075  1.3415
64466SOL     OW 3711  11.773  12.741  10.128 -0.3214  0.0710  0.5821
64466SOL    HW1 3712  11.726  12.658  10.132 -0.6841  0.2686  0.4453
64466SOL    HW2 3713  11.718  12.797  10.073  0.2605  0.1850  0.1165
64467SOL     OW 3714  10.036   3.245   3.497  0.2435 -0.3822  0.4582
64467SOL    HW1 3715  10.097   3.174   3.482 -0.3778 -0.9446  0.5166
64467SOL    HW2 3716  10.018   3.280   3.410 -1.6761 -2.2148  0.0170
64468SOL     OW 3717   9.922   0.142   3.868 -0.3940 -0.2785  0.1576
64468SOL    HW1 3718  10.010   0.107   3.856  0.1498  1.2550 -0.6330
64468SOL    HW2 3719   9.906   0.135   3.962  1.0124  0.3641  0.4838
64469SOL     OW 3720   1.703  12.605  11.721  0.3500  0.5641  0.5264
64469SOL    HW1 3721   1.776  12.558  11.761 -1.3814 -2.2499  0.6307
64469SOL    HW2 3722   1.629  12.544  11.727 -0.9303  1.4215 -3.5745
64470SOL     OW 3723   7.803   7.653   6.348 -0.0900  0.1242 -0.2298
64470SOL    HW1 3724   7.840   7.664   6.260 -2.5036 -1.0466 -1.4816
64470SOL    HW2 3725   7.752   7.732   6.363  1.6453  1.1120  0.9321
64471SOL     OW 3726   4.839   2.353   8.751 -0.4770  0.4867  0.3662
64471SOL    HW1 3727   4.855   2.447   8.751  2.5577  0.0715 -0.5865
64471SOL    HW2 3728   4.838   2.328   8.843 -0.1019  1.2967  0.6004
64472SOL     OW 3729   1.665  12.974   2.195  0.1329  0.2339  0.0234
64472SOL    HW1 3730   1.735  12.910   2.205  0.2912  0.5100  0.7130
64472SOL    HW2 3731   1.584  12.921   2.192  0.3830 -0.1276 -1.3278
64473SOL     OW 3732   8.419  10.586   6.732 -0.2922  0.0985  0.0978
64473SOL    HW1 3733   8.506  10.620   6.709 -0.0836  0.4642  1.3462
64473SOL    HW2 3734   8.437  10.519   6.798 -0.6656 -2.8363 -2.5938
64474SOL     OW 3735   5.578   4.299   3.562 -0.1329 -0.7025  0.1211
64474SOL    HW1 3736   5.492   4.316   3.525 -0.4064 -2.7610 -0.3233
64474SOL    HW2 3737   5.626   4.254   3.492  0.3096 -2.0823  1.2565
64475SOL     OW 3738   6.776   5.657   7.631 -0.5677 -0.1092  0.3588
64475SOL    HW1 3739   6.841   5.691   7.692  0.8809 -0.4785 -0.8851
64475SOL    HW2 3740   6.717   5.730   7.615  0.9219  1.0381 -0.2178
64476SOL     OW 3741   2.569  10.265   4.193 -0.4174 -0.0539  0.4885
64476SOL    HW1 3742   2.503  10.303   4.251  0.9064  2.5952  0.4021
64476SOL    HW2 3743   2.523  10.250   4.110 -1.1836  0.7807  0.7476
64477SOL     OW 3744   9.186  12.250   7.653  0.1223 -0.0481 -1.0682
64477SOL    HW1 3745   9.134  12.187   7.704  0.1073  0.9895  0.2337
64477SOL    HW2 3746   9.139  12.333   7.662  1.0414  0.5147 -1.3620
64478SOL     OW 3747   2.981   2.798  12.631  0.1301 -0.2560  0.2117
64478SOL    HW1 3748   2.900   2.780  12.583  1.8327 -0.8782 -2.6420
64478SOL    HW2 3749   2.986   2.893  12.636 -0.3038 -0.1986 -0.4556
64479SOL     OW 3750   3.695   7.368   7.108 -0.1571  0.2588  0.6108
64479SOL    HW1 3751   3.714   7.313   7.184 -0.7777 -0.8775 -0.0255
64479SOL    HW2 3752   3.769   7.354   7.050  0.0449  0.6826  0.7681
64480SOL     OW 3753  12.349  12.252  10.428  0.1104  0.0697 -0.2407
64480SOL    HW1 3754  12.330  12.203  10.508 -1.4161 -1.6900 -1.5990
64480SOL    HW2 3755  12.317  12.341  10.446  0.9780  0.0719  1.5161
64481SOL     OW 3756   9.364   4.286   7.780  1.0696 -0.1558 -0.0999
64481SOL    HW1 3757   9.452   4.290   7.819  1.3924  0.0361 -0.8319
64481SOL    HW2 3758   9.327   4.373   7.795  1.3232  0.0247 -0.5141
64482SOL     OW 3759   3.229   1.664   5.159  0.0599  0.2403 -0.0939
64482SOL    HW1 3760   3.241   1.643   5.252  1.6843 -1.4184 -0.6186
64482SOL    HW2 3761   3.300   1.617   5.114 -0.9448  0.6384 -2.2270
64483SOL     OW 3762   5.862   3.271   9.387 -0.5845  0.4619  0.3567
64483SOL    HW1 3763   5.848   3.209   9.458 -1.1825  1.1544  0.8612
64483SOL    HW2 3764   5.777   3.277   9.343 -1.2246  2.6806  1.7765
64484SOL     OW 3765  10.013   1.631   3.665 -0.1947 -0.4799  0.4784
64484SOL    HW1 3766   9.974   1.603   3.582 -1.2390  1.3781  0.2950
64484SOL    HW2 3767   9.938   1.642   3.724  0.4116 -0.4171  1.2502
64485SOL     OW 3768   3.734   9.965   7.142  0.0998 -0.1519  0.1749
64485SOL    HW1 3769   3.660   9.912   7.115  1.0235 -1.3334 -0.1301
64485SOL    HW2 3770   3.719   9.982   7.235 -0.8134  0.1097 -0.0061
64486SOL     OW 3771   7.005  10.903   3.890  0.4369  0.5340 -0.3414
64486SOL    HW1 3772   7.079  10.912   3.831 -0.7061  0.6472 -1.8203
64486SOL    HW2 3773   6.985  10.809   3.889 -0.7172  0.7658 -1.6278
64487SOL     OW 3774  11.556  12.718   7.392  0.1446  0.1702 -0.5179
64487SOL    HW1 3775  11.516  12.645   7.345  1.1154 -1.3636  0.9029
64487SOL    HW2 3776  11.621  12.753   7.332 -0.4446 -0.0116 -1.2794
64488SOL     OW 3777   8.672  11.310   3.143  0.7361  0.0502  0.2169
64488SOL    HW1 3778   8.656  11.355   3.226 -1.8038  1.1374 -0.7428
64488SOL    HW2 3779   8.700  11.380   3.083 -0.4446 -0.1209 -0.5720
64489SOL     OW 3780   4.079  11.863   9.081 -0.1873  0.2511  0.0256
64489SOL    HW1 3781   4.139  11.938   9.080  0.4411 -0.2363 -1.2168
64489SOL    HW2 3782   4.130  11.791   9.045 -1.4899 -0.1958 -1.0157
64490SOL     OW 3783   5.680   0.308   7.452  0.7530 -0.1791  0.5177
64490SOL    HW1 3784   5.734   0.359   7.392 -0.5550 -0.1950 -0.7265
64490SOL    HW2 3785   5.654   0.231   7.401 -1.9866  0.7466  0.3489
64491SOL     OW 3786   4.684   0.707   1.534 -0.1830 -0.0882  0.0888
64491SOL    HW1 3787   4.599   0.665   1.524  0.1462 -0.7321 -0.0992
64491SOL    HW2 3788   4.667   0.783   1.590 -0.6933 -0.8293  0.9765
64492SOL     OW 3789   0.410   2.718   9.296  0.4430 -0.3660 -0.3409
64492SOL    HW1 3790   0.375   2.801   9.262  2.3571  0.8579  0.5155
64492SOL    HW2 3791   0.357   2.701   9.374  3.0298  2.7822  2.4038
64493SOL     OW 3792   3.339   7.757   9.726  0.0107 -0.1134 -0.3813
64493SOL    HW1 3793   3.320   7.746   9.819 -0.4915  0.1100 -0.4590
64493SOL    HW2 3794   3.397   7.683   9.705  1.0237  0.4342  0.3579
64494SOL     OW 3795  12.125   9.269   8.269 -0.2975  0.2413 -0.2167
64494SOL    HW1 3796  12.081   9.185   8.260  0.1382  0.0794 -0.8291
64494SOL    HW2 3797  12.053   9.332   8.277 -0.6268 -0.1518 -0.0004
64495SOL     OW 3798   3.170   9.966   4.423  0.3209 -0.1869  0.0868
64495SOL    HW1 3799   3.199   9.924   4.342 -0.3409  0.5771 -0.5600
64495SOL    HW2 3800   3.080   9.934   4.436  1.1919 -2.2249  1.8628
64496SOL     OW 3801  10.085   8.349  12.634 -0.2028 -0.1931 -0.4843
64496SOL    HW1 3802  10.137   8.280  12.592  2.2229  1.9356 -1.1944
64496SOL    HW2 3803  10.149   8.408  12.673 -2.2592  0.7026  1.7617
64497SOL     OW 3804   1.431  10.064   3.883  0.7263 -0.1208  0.0348
64497SOL    HW1 3805   1.439  10.127   3.810  0.6010 -0.5820 -0.3820
64497SOL    HW2 3806   1.439  10.118   3.961  3.4975  0.0895 -0.2876
64498SOL     OW 3807   2.742   1.403   4.444 -0.4248  0.2600 -0.7512
64498SOL    HW1 3808   2.784   1.317   4.440  0.4268  0.6641 -0.7064
64498SOL    HW2 3809   2.694   1.402   4.527  0.9151  0.4065  0.0659
64499SOL     OW 3810  12.219   6.911   4.765 -0.4144  0.3944  0.2836
64499SOL    HW1 3811  12.126   6.909   4.743 -0.6885  1.0948  1.3121
64499SOL    HW2 3812  12.227   6.856   4.843  0.1913 -0.3699 -0.2943
64500SOL     OW 3813   2.719   5.508  10.053  0.7149 -0.2843 -0.1804
64500SOL    HW1 3814   2.707   5.603  10.059 -1.0667 -0.5601  1.5873
64500SOL    HW2 3815   2.656   5.480   9.986  1.3271 -0.2331 -0.7915
64501SOL     OW 3816   7.440   9.147  11.364  0.1515  0.3959  0.5522
64501SOL    HW1 3817   7.425   9.216  11.428 -0.2653  2.1600 -1.3582
64501SOL    HW2 3818   7.532   9.157  11.338  0.4946 -0.6995  1.2627
64502SOL     OW 3819  10.973   1.350  11.138 -0.1548  0.1585 -0.0282
64502SOL    HW1 3820  10.981   1.436  11.178 -4.0322  0.1354  1.2639
64502SOL    HW2 3821  10.996   1.288  11.207 -3.4705  0.1985  1.3069
64503SOL     OW 3822  10.488   4.991  12.150  0.2978  0.1331 -0.2446
64503SOL    HW1 3823  10.468   5.064  12.209  1.6299 -1.2272  1.9960
64503SOL    HW2 3824  10.402   4.956  12.127 -0.5180  3.2101 -2.6598
64504SOL     OW 3825   8.306   1.638   6.350  0.3353 -0.6865  0.3081
64504SOL    HW1 3826   8.247   1.636   6.275 -0.8062 -3.0256  1.1740
64504SOL    HW2 3827   8.306   1.548   6.383  0.1234  0.3934  3.6314
64505SOL     OW 3828  12.597   3.819   1.141  0.6574 -0.2249 -0.3889
64505SOL    HW1 3829  12.552   3.761   1.204 -0.1058  1.1985  0.4352
64505SOL    HW2 3830  12.530   3.883   1.117  1.5173  0.3877 -1.1890
64506SOL     OW 3831   5.521   5.033   9.602 -0.0639 -0.1721  0.1985
64506SOL    HW1 3832   5.543   4.975   9.529  1.8190  0.3335  0.3016
64506SOL    HW2 3833   5.602   5.082   9.618 -1.2816  1.7775  0.7572
64507SOL     OW 3834   4.038   9.043   3.432 -0.4570 -0.4044 -0.8624
64507SOL    HW1 3835   4.038   9.037   3.528  0.9287 -1.1160 -0.8740
64507SOL    HW2 3836   4.121   9.002   3.406 -0.5976  0.2024 -2.3430
64508SOL     OW 3837   2.624   5.063   5.144  0.0187 -0.0032  0.2529
64508SOL    HW1 3838   2.671   5.026   5.070  0.0950 -0.2536  0.4239
64508SOL    HW2 3839   2.567   5.129   5.106  1.6557  1.4510  0.2007
64509SOL     OW 3840  10.925   3.818   6.742 -0.1778  0.2055 -0.2362
64509SOL    HW1 3841  10.863   3.764   6.790 -1.0991  1.3669 -0.0861
64509SOL    HW2 3842  10.968   3.757   6.682 -0.1925 -0.9491  0.8731
64510SOL     OW 3843   1.949   5.939   2.678  0.2198 -0.7792  0.6102
64510SOL    HW1 3844   2.016   5.873   2.693  0.3392 -0.5858  0.9288
64510SOL    HW2 3845   1.868   5.899   2.708  0.1601 -1.0797  0.0624
64511SOL     OW 3846   0.177   4.651  11.969 -0.2959 -0.0835  0.0601
64511SOL    HW1 3847   0.206   4.599  12.043  0.0343 -0.3234 -0.2372
64511SOL    HW2 3848   0.180   4.742  12.001  0.9096 -0.0915 -0.0052
64512SOL     OW 3849   1.358   9.346  11.760  0.3566 -0.2522 -0.1692
64512SOL    HW1 3850   1.348   9.439  11.784  0.0738 -0.6279  1.2464
64512SOL    HW2 3851   1.431   9.346  11.697  1.7053  0.7358  1.2909
64513SOL     OW 3852   1.253   0.381   4.905 -0.4924 -0.2197 -0.3252
64513SOL    HW1 3853   1.309   0.444   4.950 -1.4296  0.3078  0.1297
64513SOL    HW2 3854   1.297   0.296   4.920  0.0803  0.1544  0.1781
64514SOL     OW 3855  11.612   0.361   9.363  0.1867 -0.3239  0.8136
64514SOL    HW1 3856  11.646   0.296   9.425 -0.2424 -0.0836  1.3064
64514SOL    HW2 3857  11.678   0.364   9.294  0.5058 -0.8461  1.0861
64515SOL     OW 3858  10.839   0.372  11.382  0.2488  0.0812  0.0943
64515SOL    HW1 3859  10.823   0.433  11.454  0.8698  0.2361  0.1081
64515SOL    HW2 3860  10.924   0.397  11.348  0.3742 -0.5865 -0.1024
64516SOL     OW 3861   8.207   5.764   7.487  0.3897  0.2689  0.1459
64516SOL    HW1 3862   8.182   5.853   7.461 -1.8419 -0.2092  0.4133
64516SOL    HW2 3863   8.179   5.709   7.413 -1.4960 -0.5483  1.3911
64517SOL     OW 3864   5.743   3.021   1.552  0.2318 -0.1521 -0.0146
64517SOL    HW1 3865   5.759   2.932   1.584  2.2623 -0.2877 -1.2478
64517SOL    HW2 3866   5.822   3.070   1.575 -1.0788  1.5181  1.1400
64518SOL     OW 3867   1.495   8.841   8.600 -1.1218 -0.3233  0.1513
64518SOL    HW1 3868   1.495   8.814   8.691  0.2748 -1.0283 -0.0375
64518SOL    HW2 3869   1.419   8.899   8.592 -0.0933  1.4389  2.2419
64519SOL     OW 3870   1.826   5.194   4.743 -0.2718  0.0412  0.8815
64519SOL    HW1 3871   1.731   5.180   4.735 -0.3718  0.1659  1.6935
64519SOL    HW2 3872   1.856   5.208   4.654 -0.7971 -1.3706  0.4452
64520SOL     OW 3873   3.803   5.739   5.937 -0.7776  0.5977  0.6395
64520SOL    HW1 3874   3.868   5.692   5.988 -2.2494 -0.0123  2.0264
64520SOL    HW2 3875   3.723   5.687   5.945 -1.3692  1.0923 -1.3592
64521SOL     OW 3876   4.392   2.541  10.043 -0.5986  0.2637 -0.3268
64521SOL    HW1 3877   4.446   2.584   9.976  0.0637 -0.0603 -0.0106
64521SOL    HW2 3878   4.342   2.475   9.995 -0.3874  0.2667 -0.5516
64522SOL     OW 3879   6.731   2.753   2.372 -0.0289 -0.4289 -0.4916
64522SOL    HW1 3880   6.751   2.846   2.376  0.1336 -0.4595 -0.5951
64522SOL    HW2 3881   6.745   2.722   2.462  2.7005 -0.9207 -1.0093
64523SOL     OW 3882   9.617   0.078   2.660 -0.6817  0.3488 -0.2758
64523SOL    HW1 3883   9.539   0.134   2.660  0.5385  2.1285  0.3126
64523SOL    HW2 3884   9.685   0.132   2.700  0.9022 -1.1143 -0.8941
64524SOL     OW 3885  12.492   2.780   1.291 -0.1997  0.4013 -0.4270
64524SOL    HW1 3886  12.455   2.864   1.261 -1.0425  0.7027  1.3721
64524SOL    HW2 3887  12.418   2.733   1.328  0.6831 -0.1867  0.6466
64525SOL     OW 3888   8.745   8.192  12.419  0.6017  0.1985 -0.3357
64525SOL    HW1 3889   8.755   8.164  12.328  1.1353 -0.1995 -0.1621
64525SOL    HW2 3890   8.670   8.251  12.418 -0.1167 -0.6895 -0.8325
64526SOL     OW 3891   1.553   5.847  11.346  0.0400 -0.0808 -0.4340
64526SOL    HW1 3892   1.543   5.756  11.318  0.3167  0.0715 -1.0552
64526SOL    HW2 3893   1.554   5.843  11.442 -0.6194 -0.6565 -0.4469
64527SOL     OW 3894   0.552   1.833   0.080 -0.1723  0.1185 -0.0782
64527SOL    HW1 3895   0.492   1.808   0.151  0.9469 -0.5801  0.6549
64527SOL    HW2 3896   0.505   1.901   0.032 -1.0648  0.4439  1.1924
64528SOL     OW 3897   1.859  12.885   3.614 -0.0033  0.3571  0.6398
64528SOL    HW1 3898   1.802  12.808   3.616  0.3455 -0.1416 -2.5912
64528SOL    HW2 3899   1.927  12.867   3.679 -1.9901 -0.2398  2.6617
64529SOL     OW 3900   3.670  11.258   4.793  0.0825 -0.0152  0.5040
64529SOL    HW1 3901   3.697  11.202   4.865  1.7512  0.6906  0.4589
64529SOL    HW2 3902   3.729  11.234   4.721 -0.9114 -0.0160 -0.3385
64530SOL     OW 3903   0.031   5.914   7.743 -0.2451  0.3975 -0.2671
64530SOL    HW1 3904   0.100   5.932   7.808 -0.3983  0.4279 -0.1135
64530SOL    HW2 3905   0.079   5.878   7.668  0.0037  0.9243 -0.3701
64531SOL     OW 3906  10.842  12.464   7.756  0.4845  0.3325 -0.0223
64531SOL    HW1 3907  10.797  12.398   7.809 -0.4722  0.0172 -1.1848
64531SOL    HW2 3908  10.773  12.526   7.732  1.0604  0.8960 -0.2398
64532SOL     OW 3909   0.330   7.588   3.012  0.3606  0.3650 -0.0922
64532SOL    HW1 3910   0.323   7.493   3.019  1.8073  0.3314  2.2379
64532SOL    HW2 3911   0.310   7.619   3.101  1.2645  2.1262 -0.4682
64533SOL     OW 3912  11.360   4.343   0.589  0.3111 -0.3023  0.5023
64533SOL    HW1 3913  11.312   4.365   0.669 -1.0223 -1.2324 -0.0075
64533SOL    HW2 3914  11.381   4.428   0.550  0.5704  0.1517  1.5937
64534SOL     OW 3915   4.946   5.518   1.395  0.3136  0.3299 -0.0513
64534SOL    HW1 3916   4.951   5.455   1.323  0.8086  1.4214 -1.0048
64534SOL    HW2 3917   4.852   5.535   1.405  0.0921 -1.2014  0.8282
64535SOL     OW 3918   0.090   8.936   2.588 -0.0068 -0.0235 -0.0071
64535SOL    HW1 3919   0.176   8.944   2.628  0.8983 -0.2438 -1.7972
64535SOL    HW2 3920   0.080   9.017   2.538 -0.9352  0.0836  0.3339
64536SOL     OW 3921  10.636   7.119   3.954 -0.4367 -0.1679 -0.1699
64536SOL    HW1 3922  10.664   7.075   3.874  0.3192 -0.4600  0.2408
64536SOL    HW2 3923  10.641   7.212   3.934  0.6854 -0.2116 -0.1785
64537SOL     OW 3924   4.804   9.753   1.025  0.1267 -0.0846  0.0739
64537SOL    HW1 3925   4.792   9.658   1.027 -1.4109 -0.1139 -3.8798
64537SOL    HW2 3926   4.866   9.768   0.954  0.3281  1.9278  0.6078
64538SOL     OW 3927   1.914   2.905   9.119  0.1426 -0.3194 -0.2468
64538SOL    HW1 3928   1.980   2.841   9.147 -0.5326 -0.4335  1.1905
64538SOL    HW2 3929   1.834   2.878   9.164 -1.4578 -1.2922 -3.3645
64539SOL     OW 3930   7.171   4.850   3.210  0.6548 -0.2872 -0.2917
64539SOL    HW1 3931   7.193   4.798   3.133 -1.5735 -0.0998 -1.1094
64539SOL    HW2 3932   7.090   4.895   3.187  1.0641  1.4558  1.3961
64540SOL     OW 3933   2.000  11.070   9.172  0.4520  0.1280  0.2417
64540SOL    HW1 3934   1.933  11.003   9.162  0.3771  0.4013 -1.3534
64540SOL    HW2 3935   1.963  11.132   9.235  0.1083 -0.7993  0.9725
64541SOL     OW 3936   2.669   0.431  10.019 -0.2150  0.5248 -0.6492
64541SOL    HW1 3937   2.717   0.453  10.099 -0.7424 -0.2305 -0.1193
64541SOL    HW2 3938   2.579   0.416  10.048 -0.3436 -0.0808 -1.3369
64542SOL     OW 3939   0.162  12.752   4.182  0.6413  0.4014  0.2761
64542SOL    HW1 3940   0.139  12.830   4.232  0.3127 -0.5462  1.6512
64542SOL    HW2 3941   0.119  12.764   4.097 -0.3511  1.1935  0.8701
64543SOL     OW 3942   1.212   3.389   0.804  0.2099 -0.3008 -0.0507
64543SOL    HW1 3943   1.294   3.396   0.755 -0.2166  0.4378 -0.6885
64543SOL    HW2 3944   1.144   3.391   0.736 -0.3522 -0.2707  0.5116
64544SOL     OW 3945   4.361  11.376   1.650  0.3554  0.0665 -0.4723
64544SOL    HW1 3946   4.273  11.369   1.615  0.7059 -0.7487 -1.2457
64544SOL    HW2 3947   4.406  11.297   1.618  1.2322  0.2364  0.2781
64545SOL     OW 3948   8.438   8.933   5.198 -0.3206  0.2190 -0.8952
64545SOL    HW1 3949   8.436   8.926   5.102  0.2304 -0.6288 -0.8496
64545SOL    HW2 3950   8.396   8.853   5.229 -2.1269  1.2949 -0.4237
64546SOL     OW 3951  11.685   5.659   7.406 -0.0668  0.3784  0.4942
64546SOL    HW1 3952  11.593   5.673   7.386 -0.5638 -0.7323  1.8328
64546SOL    HW2 3953  11.688   5.572   7.447  1.5791  0.3671  0.4271
64547SOL     OW 3954   3.907   8.211   5.234  0.2429  0.2227 -0.1946
64547SOL    HW1 3955   3.996   8.210   5.198 -0.0022  0.0441 -0.8133
64547SOL    HW2 3956   3.918   8.231   5.327  1.3293 -3.9693  0.8023
64548SOL     OW 3957   2.811   6.131  11.222 -0.2563 -0.4012  0.0482
64548SOL    HW1 3958   2.889   6.105  11.172  1.1336  1.0903  1.3114
64548SOL    HW2 3959   2.818   6.084  11.304  1.7899  2.8487  1.9741
64549SOL     OW 3960   1.394   5.790   2.496  0.0163 -0.5258 -0.3839
64549SOL    HW1 3961   1.318   5.804   2.439  0.4726 -0.5612 -1.0174
64549SOL    HW2 3962   1.369   5.828   2.580  0.9435  3.7098 -1.7807
64550SOL     OW 3963   3.401   7.388   1.691 -0.9759 -0.1419 -0.0527
64550SOL    HW1 3964   3.317   7.423   1.718 -0.4357  0.8919  0.3567
64550SOL    HW2 3965   3.424   7.439   1.613  0.3056  1.2215  1.1543
64551SOL     OW 3966  11.376  12.938   5.232  0.0903  0.3883  0.1142
64551SOL    HW1 3967  11.451  12.977   5.277  0.4150 -0.4418  0.3116
64551SOL    HW2 3968  11.407  12.851   5.205 -1.1489 -0.4206  1.1992
64552SOL     OW 3969   5.923  11.534   1.976 -0.1858 -0.2659  0.3584
64552SOL    HW1 3970   6.017  11.552   1.978 -0.0806 -0.3783 -1.6664
64552SOL    HW2 3971   5.881  11.620   1.977  0.0124 -0.1560 -0.3105
64553SOL     OW 3972   2.546   6.836  11.150 -0.1971 -0.5054  0.3082
64553SOL    HW1 3973   2.586   6.812  11.066  0.9439 -1.7282  1.1666
64553SOL    HW2 3974   2.470   6.889  11.126  0.1703 -0.7367 -1.4904
64554SOL     OW 3975   6.063   3.627   4.814 -0.1224  0.1433  0.4079
64554SOL    HW1 3976   6.136   3.634   4.875 -0.0912 -1.8109  0.6616
64554SOL    HW2 3977   6.011   3.705   4.829  1.7282  1.4235  0.4471
64555SOL     OW 3978   5.716   9.955   1.764 -0.1204  0.4149  0.4645
64555SOL    HW1 3979   5.765   9.929   1.685  0.0998 -0.4386  0.8664
64555SOL    HW2 3980   5.745   9.893   1.831  1.1305  2.2900  1.7514
64556SOL     OW 3981   4.506   3.519   6.871 -0.7587  0.3203  0.6318
64556SOL    HW1 3982   4.540   3.588   6.928  0.8538  0.0392  0.0619
64556SOL    HW2 3983   4.469   3.566   6.797  0.8024  0.6053 -0.0098
64557SOL     OW 3984   6.328  10.435   0.162  0.0217  0.2481  0.0584
64557SOL    HW1 3985   6.343  10.390   0.245  2.5295 -0.0800 -0.4800
64557SOL    HW2 3986   6.307  10.365   0.100  0.8779  0.1380 -0.1265
64558SOL     OW 3987   9.237   9.367   4.662  0.0989 -0.6672 -0.6065
64558SOL    HW1 3988   9.194   9.405   4.739  0.4211  0.0155 -0.7520
64558SOL    HW2 3989   9.324   9.342   4.692  0.8494  1.1641 -1.1270
64559SOL     OW 3990  12.825   3.907   7.981  0.1089 -0.2306  0.4931
64559SOL    HW1 3991  12.833   4.002   7.990  1.7398 -0.1168 -1.3347
64559SOL    HW2 3992  12.780   3.895   7.898 -0.3495 -1.0572  0.8577
64560SOL     OW 3993   7.691   2.185   8.789  0.0786 -0.2727  0.1289
64560SOL    HW1 3994   7.702   2.254   8.723 -2.1623  0.6134  0.6045
64560SOL    HW2 3995   7.751   2.116   8.761 -0.5751  0.1839 -2.6627
64561SOL     OW 3996   5.488   3.380   7.319 -0.4373  0.3706 -0.3910
64561SOL    HW1 3997   5.533   3.316   7.264 -1.5982 -0.0449 -0.8825
64561SOL    HW2 3998   5.539   3.460   7.307 -0.0001 -0.0015 -1.1766
64562SOL     OW 3999   2.171   6.915   0.398  0.0994 -0.1560  0.5364
64562SOL    HW1 4000   2.141   6.932   0.309  0.0012  1.0094  0.7709
64562SOL    HW2 4001   2.266   6.925   0.393  0.2078 -1.1841  0.3473
64563SOL     OW 4002   3.496  10.618  11.835  0.0738 -0.2328  0.4706
64563SOL    HW1 4003   3.471  10.671  11.759 -1.4427  0.3832  1.3507
64563SOL    HW2 4004   3.416  10.612  11.887  0.4916 -2.5155  0.9428
64564SOL     OW 4005   0.210   7.232   5.996 -0.2396 -0.0336  0.2874
64564SOL    HW1 4006   0.176   7.153   5.954 -0.0518 -0.8990  1.7154
64564SOL    HW2 4007   0.199   7.217   6.090 -0.2971  1.6900  0.6014
64565SOL     OW 4008  11.070  10.822   8.455  0.1835 -0.0023 -0.5209
64565SOL    HW1 4009  11.149  10.792   8.409 -0.3894 -1.7432 -0.4615
64565SOL    HW2 4010  11.069  10.769   8.535 -1.8066 -1.1405 -1.2288
64566SOL     OW 4011   2.566  11.366   0.138  0.3590  0.9016  0.4540
64566SOL    HW1 4012   2.631  11.311   0.094  0.6498  1.1418  0.5829
64566SOL    HW2 4013   2.487  11.358   0.084  0.5711  0.8147  0.1560
64567SOL     OW 4014  10.850  10.112   9.926  0.0652  0.0578 -0.4571
64567SOL    HW1 4015  10.942  10.112   9.955  0.2919  0.0389 -1.1559
64567SOL    HW2 4016  10.853  10.148   9.838 -0.5458 -0.3643 -0.6547
64568SOL     OW 4017   5.281  10.678   8.688 -0.0515 -0.5127 -0.9215
64568SOL    HW1 4018   5.190  10.662   8.711 -0.3861 -1.7066 -2.8593
64568SOL    HW2 4019   5.295  10.627   8.609  2.0077  0.5083 -1.2809
64569SOL     OW 4020   9.731   2.888   3.014 -0.5728  0.6271 -0.4174
64569SOL    HW1 4021   9.679   2.966   3.036 -1.1318  0.4966 -1.2404
64569SOL    HW2 4022   9.711   2.826   3.084 -0.2794  1.1439  0.1379
64570SOL     OW 4023   5.506   1.666   4.704  0.2559 -0.1317 -0.5751
64570SOL    HW1 4024   5.496   1.581   4.745  2.2897 -0.2919 -0.3177
64570SOL    HW2 4025   5.583   1.657   4.648  0.3351  1.4467 -0.7655
64571SOL     OW 4026   7.408   5.758   8.220 -0.0801 -0.2753  0.2449
64571SOL    HW1 4027   7.447   5.832   8.266 -1.9338  2.7031 -2.5213
64571SOL    HW2 4028   7.330   5.736   8.271  0.2312 -0.0498  0.8297
64572SOL     OW 4029   4.446   8.642   8.874  0.0105 -0.6472 -0.0934
64572SOL    HW1 4030   4.387   8.619   8.802 -1.7064 -0.3036  1.1201
64572SOL    HW2 4031   4.387   8.655   8.949  1.7692 -1.4220  1.4851
64573SOL     OW 4032  12.801   6.156  10.173 -0.0829  0.7128  0.3030
64573SOL    HW1 4033  12.734   6.222  10.188 -1.5683 -0.8308  0.7629
64573SOL    HW2 4034  12.871   6.180  10.233 -2.2034 -0.2378  3.4002
64574SOL     OW 4035  11.120   7.842  12.521 -0.0057  0.1508  0.5538
64574SOL    HW1 4036  11.209   7.812  12.539  0.1637  0.3011 -0.0323
64574SOL    HW2 4037  11.113   7.926  12.569 -0.1738 -0.3445  1.4251
64575SOL     OW 4038   8.767   6.717   8.690  0.3479  0.0918 -0.7673
64575SOL    HW1 4039   8.814   6.762   8.620  1.9789 -0.6845 -0.2112
64575SOL    HW2 4040   8.686   6.768   8.701  2.0024  2.8171 -0.2746
64576SOL     OW 4041   4.646  12.276   4.602 -0.1035 -0.0178  0.7664
64576SOL    HW1 4042   4.566  12.249   4.558 -2.0982  0.5583  3.7466
64576SOL    HW2 4043   4.669  12.359   4.561 -0.9470 -0.2703 -0.2376
64577SOL     OW 4044   2.471  12.268  11.186  0.1841 -0.0155 -0.1376
64577SOL    HW1 4045   2.524  12.328  11.238  0.8657 -0.8180  0.1215
64577SOL    HW2 4046   2.499  12.282  11.096  0.4971 -0.1021 -0.0537
64578SOL     OW 4047   0.179   6.671   6.413 -0.0752 -0.0058  0.1979
64578SOL    HW1 4048   0.126   6.619   6.352 -1.7162  0.1945  1.3714
64578SOL    HW2 4049   0.227   6.606   6.464 -1.4325 -0.3733  1.0546
64579SOL     OW 4050   2.427   6.908   7.938  0.3708 -1.0436 -0.0799
64579SOL    HW1 4051   2.408   6.990   7.894  0.3015 -1.6848 -1.3062
64579SOL    HW2 4052   2.495   6.930   8.002  0.1408  0.0100 -0.1834
64580SOL     OW 4053   4.917  12.509   8.169  0.1234  0.6205 -0.5448
64580SOL    HW1 4054   4.873  12.592   8.185 -0.7701  0.0816 -0.1759
64580SOL    HW2 4055   4.851  12.442   8.187  1.1625 -0.2173  0.2997
64581SOL     OW 4056   0.039   4.115   3.279 -0.1687  0.0357  0.6496
64581SOL    HW1 4057   0.075   4.074   3.357  2.9248 -1.2249 -1.2184
64581SOL    HW2 4058   0.058   4.208   3.289  0.8881 -0.2154  1.1332
64582SOL     OW 4059   4.739   8.308   9.686  0.9054 -0.1720  0.7476
64582SOL    HW1 4060   4.792   8.374   9.642  1.3451 -1.2478 -0.4140
64582SOL    HW2 4061   4.756   8.320   9.779  1.2506  1.1004  0.5270
64583SOL     OW 4062   9.738  12.818   3.045 -0.4333  0.1471  0.4019
64583SOL    HW1 4063   9.810  12.864   3.001 -1.6930  0.3041 -1.6187
64583SOL    HW2 4064   9.714  12.876   3.118  0.2317  1.0131 -0.0449
64584SOL     OW 4065   2.867  10.772   8.509 -0.1376 -0.4329 -0.2112
64584SOL    HW1 4066   2.926  10.698   8.518 -1.4741 -1.4103  1.0578
64584SOL    HW2 4067   2.780  10.733   8.497 -1.2355  0.7459  2.6987
64585SOL     OW 4068   5.506  12.278   5.324  0.6176 -0.1763  0.6356
64585SOL    HW1 4069   5.549  12.363   5.315  1.9659 -0.8013  0.8331
64585SOL    HW2 4070   5.446  12.272   5.250 -1.5332  2.0496  2.0596
64586SOL     OW 4071  10.269  12.380   8.285  1.0622 -0.0078 -0.1799
64586SOL    HW1 4072  10.264  12.284   8.291 -0.9332  0.0808  0.4973
64586SOL    HW2 4073  10.295  12.408   8.373  0.1633  0.1073  0.0628
64587SOL     OW 4074   5.341   1.679   8.572 -0.1691 -0.5380  0.1120
64587SOL    HW1 4075   5.400   1.688   8.647 -0.7396  1.5558  0.3731
64587SOL    HW2 4076   5.290   1.601   8.591  1.2258 -1.3167  0.7935
64588SOL     OW 4077  10.907  10.189   1.071  0.2590  0.0996  0.0609
64588SOL    HW1 4078  10.857  10.118   1.112  0.3192  0.2149  0.3382
64588SOL    HW2 4079  10.998  10.172   1.097  0.3403  0.0003 -0.2803
64589SOL     OW 4080   0.108  12.485   1.695 -0.0871 -0.5086 -0.2020
64589SOL    HW1 4081   0.108  12.436   1.778  0.7370 -1.4082 -0.7137
64589SOL    HW2 4082   0.055  12.562   1.713 -1.6791 -1.7247  0.5524
64590SOL     OW 4083  11.741   8.832   7.537 -0.4858  0.4566  0.5414
64590SOL    HW1 4084  11.812   8.841   7.473 -0.7219  0.2397  0.2451
64590SOL    HW2 4085  11.680   8.771   7.496  0.0431 -0.8103  1.5997
64591SOL     OW 4086   5.750   2.298  11.636 -0.1249  0.0919  0.6839
64591SOL    HW1 4087   5.671   2.271  11.683 -0.9871  0.7306 -0.3626
64591SOL    HW2 4088   5.728   2.288  11.544  1.6532 -1.4355  0.3742
64592SOL     OW 4089  10.512   0.740   5.750 -0.2036 -0.4379  0.0160
64592SOL    HW1 4090  10.438   0.712   5.696  0.6721 -2.4806 -0.2265
64592SOL    HW2 4091  10.471   0.785   5.825 -1.4808  1.7142 -1.8339
64593SOL     OW 4092   0.060   9.582   6.174  0.3518  0.1191 -0.7073
64593SOL    HW1 4093   0.086   9.502   6.128 -2.2203 -1.2776  0.0490
64593SOL    HW2 4094  -0.006   9.621   6.117 -0.6060  0.0427  0.3309
64594SOL     OW 4095   0.915   4.069  11.894 -0.7671 -0.2876  0.2869
64594SOL    HW1 4096   0.831   4.061  11.850 -1.5236  0.6030  1.5069
64594SOL    HW2 4097   0.980   4.045  11.827 -1.8730  0.6863 -1.2100
64595SOL     OW 4098   5.689   2.801   7.180 -0.4872  0.3936 -0.9492
64595SOL    HW1 4099   5.668   2.839   7.265  2.5650  0.4609 -0.0895
64595SOL    HW2 4100   5.689   2.706   7.195 -1.2161  0.3395 -1.2459
64596SOL     OW 4101   6.097  10.538   6.816 -0.0814  1.0976 -0.4066
64596SOL    HW1 4102   6.055  10.484   6.883 -0.9482  1.2423 -0.8246
64596SOL    HW2 4103   6.190  10.537   6.840  0.2081 -1.8235 -1.2638
64597SOL     OW 4104   8.606  10.171   9.191  0.3867 -0.4014  0.1904
64597SOL    HW1 4105   8.652  10.181   9.108 -2.4277  0.9784 -1.3288
64597SOL    HW2 4106   8.606  10.076   9.207  1.4855 -0.6377 -1.0714
64598SOL     OW 4107   4.643   4.020   7.496  0.4892  0.1479  0.1965
64598SOL    HW1 4108   4.568   4.056   7.449 -1.5087 -1.2344  2.1266
64598SOL    HW2 4109   4.681   3.956   7.436  0.0183  0.7185 -0.7406
64599SOL     OW 4110  12.841  12.801  10.827 -0.1031 -0.1475 -0.1032
64599SOL    HW1 4111  12.856  12.838  10.740  1.2265 -3.5534 -1.5018
64599SOL    HW2 4112  12.746  12.789  10.832 -0.2464  0.5789 -0.8637
64600SOL     OW 4113   9.944   2.919   3.756  0.8252  0.3778 -0.1304
64600SOL    HW1 4114  10.005   2.849   3.775 -0.0238 -0.5347 -0.6536
64600SOL    HW2 4115   9.906   2.896   3.671 -0.6903  0.5786  0.4568
64601SOL     OW 4116   5.446   8.277   5.199  0.0739  0.3104 -0.0913
64601SOL    HW1 4117   5.463   8.195   5.246  2.7145  0.0851 -1.2645
64601SOL    HW2 4118   5.524   8.291   5.146 -0.6577  3.1855 -0.5790
64602SOL     OW 4119   7.932  11.266   2.968  0.2269 -0.1288 -0.0685
64602SOL    HW1 4120   7.843  11.298   2.955  0.0829  0.2078  1.5218
64602SOL    HW2 4121   7.922  11.183   3.014  0.7324  0.9648  2.1507
64603SOL     OW 4122   6.709   9.774   0.664  0.0725  0.4750  0.5806
64603SOL    HW1 4123   6.695   9.844   0.601  0.5300  0.9323  0.9735
64603SOL    HW2 4124   6.804   9.760   0.665 -0.1885 -2.8890 -2.3802
64604SOL     OW 4125  12.219  11.187   9.077  0.0884 -0.0541  0.2137
64604SOL    HW1 4126  12.164  11.262   9.099  1.3603  0.8049  0.5278
64604SOL    HW2 4127  12.199  11.169   8.985 -0.5114  0.4090  0.2463
64605SOL     OW 4128   2.229  12.580   6.579 -0.4811  0.1995  0.1730
64605SOL    HW1 4129   2.203  12.640   6.509  0.3134 -1.8255 -2.0005
64605SOL    HW2 4130   2.316  12.609   6.606 -1.1705  1.5548  1.0518
64606SOL     OW 4131  12.236   8.054   3.109 -0.4928 -0.2349  0.2310
64606SOL    HW1 4132  12.155   8.095   3.081 -0.3798 -0.6451 -0.7142
64606SOL    HW2 4133  12.236   7.967   3.069  0.9290  0.1717 -0.7572
64607SOL     OW 4134   9.756  11.698   1.688 -0.0726  0.4486 -0.1212
64607SOL    HW1 4135   9.836  11.670   1.733  0.4477  0.3251 -1.0903
64607SOL    HW2 4136   9.729  11.622   1.637 -1.9476 -0.1794  1.6726
64608SOL     OW 4137  12.366  12.258   9.086 -0.2086 -0.4031  0.4513
64608SOL    HW1 4138  12.275  12.254   9.116 -0.9890 -0.8154 -1.8322
64608SOL    HW2 4139  12.406  12.179   9.123 -0.7660 -0.2594  1.4114
64609SOL     OW 4140  12.330  10.566   7.792 -0.2671  0.0017 -0.0800
64609SOL    HW1 4141  12.406  10.527   7.834  0.4439 -1.0495 -2.1845
64609SOL    HW2 4142  12.320  10.651   7.834  1.4253 -0.2678  0.9661
64610SOL     OW 4143   8.386  10.102   6.855 -0.1437 -0.0776  0.3967
64610SOL    HW1 4144   8.356  10.012   6.853 -0.7560  0.0614  2.2757
64610SOL    HW2 4145   8.308  10.154   6.875  0.1395  0.9309 -0.9039
64611SOL     OW 4146   1.582   8.123   9.843  0.5713 -0.1274 -0.1963
64611SOL    HW1 4147   1.572   8.141   9.937 -2.2077  0.4679 -0.5371
64611SOL    HW2 4148   1.496   8.141   9.805  1.9849  1.1118 -3.1357
64612SOL     OW 4149   2.873  11.394   2.247  0.4945  0.6982  0.6751
64612SOL    HW1 4150   2.816  11.471   2.255  2.0889  1.7560  2.7718
64612SOL    HW2 4151   2.852  11.358   2.161 -1.1029  2.8309  0.0818
64613SOL     OW 4152   4.097   6.815  10.810 -0.2366  0.1120 -0.2856
64613SOL    HW1 4153   4.096   6.815  10.714 -2.4187  2.1099 -0.3446
64613SOL    HW2 4154   4.173   6.868  10.834  0.7678 -1.0228 -0.8367
64614SOL     OW 4155   8.998   5.511   2.508  0.2690  0.5161 -0.2068
64614SOL    HW1 4156   8.910   5.547   2.522  0.3763  0.8037 -0.2565
64614SOL    HW2 4157   9.014   5.520   2.415  0.2237  0.1583 -0.2511
64615SOL     OW 4158   5.278   6.158  10.646  0.2775  0.1933 -0.0973
64615SOL    HW1 4159   5.292   6.153  10.741 -2.6298  0.7758  0.4752
64615SOL    HW2 4160   5.331   6.232  10.617  1.6686 -0.3502  0.9394
64616SOL     OW 4161  11.634   5.676   1.737 -0.7868  0.0884  0.0209
64616SOL    HW1 4162  11.650   5.641   1.825 -1.6814 -3.2823 -1.0136
64616SOL    HW2 4163  11.541   5.694   1.735 -0.5853  1.1838  0.0662
64617SOL     OW 4164   8.565   3.473   1.810 -0.0929  0.2793 -0.1698
64617SOL    HW1 4165   8.528   3.561   1.816  2.5230  1.4386  0.6473
64617SOL    HW2 4166   8.615   3.474   1.728  0.8684 -0.0327  0.3978
64618SOL     OW 4167   7.703   3.254   0.763 -0.2499 -0.5030 -0.1844
64618SOL    HW1 4168   7.760   3.331   0.764  1.9194 -2.0228 -0.2334
64618SOL    HW2 4169   7.634   3.275   0.700 -0.4986  1.8720  0.7727
64619SOL     OW 4170   9.440   9.023   1.133 -0.1481 -0.0984  0.1219
64619SOL    HW1 4171   9.426   8.940   1.087  1.4112 -1.2867  1.6863
64619SOL    HW2 4172   9.364   9.032   1.190  0.1158 -0.9411  0.6166
64620SOL     OW 4173   6.764   7.995   1.600 -0.3074  0.3247 -0.4764
64620SOL    HW1 4174   6.782   7.990   1.507  0.4762 -1.7187 -0.2787
64620SOL    HW2 4175   6.731   7.907   1.623 -2.3872  1.3440  0.8228
64621SOL     OW 4176   0.160   3.232   4.982 -0.1725 -0.4369 -0.0056
64621SOL    HW1 4177   0.098   3.303   4.999  0.4226  0.3678 -1.0655
64621SOL    HW2 4178   0.113   3.173   4.922 -0.1203 -0.1147 -0.3679
64622SOL     OW 4179   4.478   4.499   4.359 -0.1216 -0.3808  0.1439
64622SOL    HW1 4180   4.560   4.471   4.318 -0.9813 -0.4711 -1.6156
64622SOL    HW2 4181   4.473   4.593   4.340 -0.4021 -0.3699  0.2751
64623SOL     OW 4182   7.901   5.493  12.968 -0.4928  0.4899 -0.3304
64623SOL    HW1 4183   7.861   5.536  12.893 -1.4639 -1.0423 -0.7435
64623SOL    HW2 4184   7.827   5.464  13.022  0.1864  2.4471  1.8024
64624SOL     OW 4185   1.821   6.174  12.555  0.3328  0.6435 -0.6224
64624SOL    HW1 4186   1.725   6.167  12.548  0.5118 -1.6751 -2.0839
64624SOL    HW2 4187   1.849   6.199  12.467  1.1144  0.3962 -0.4501
64625SOL     OW 4188   2.855   2.864  11.146 -0.9180  0.6553 -0.1490
64625SOL    HW1 4189   2.921   2.896  11.084 -0.1707 -0.6297 -0.0453
64625SOL    HW2 4190   2.903   2.854  11.228 -1.0712 -0.8866 -0.2246
64626SOL     OW 4191   9.208   2.984   5.218  0.3569  0.1324  0.0936
64626SOL    HW1 4192   9.288   3.036   5.226  0.8201 -0.3239 -1.2896
64626SOL    HW2 4193   9.170   3.013   5.135  0.4861 -1.5509 -0.5733
64627SOL     OW 4194  11.429   1.943  11.668  0.0779  0.4233  0.5883
64627SOL    HW1 4195  11.392   1.985  11.746  1.5443  2.8253  0.0930
64627SOL    HW2 4196  11.510   1.903  11.698 -0.8483 -1.3624  0.8558
64628SOL     OW 4197   8.672   3.242   2.892 -0.1286  0.0678 -0.1523
64628SOL    HW1 4198   8.692   3.230   2.799  0.3863  1.9156 -0.3243
64628SOL    HW2 4199   8.724   3.318   2.918 -1.5738  0.6477  1.2070
64629SOL     OW 4200   6.904   5.715  11.969  0.4627 -0.1667 -0.0604
64629SOL    HW1 4201   6.925   5.644  11.908  0.5049 -0.9767  0.8652
64629SOL    HW2 4202   6.833   5.763  11.927 -1.0803 -2.0728  0.2476
64630SOL     OW 4203   9.522   7.626   1.980  0.3329  0.0571 -0.1029
64630SOL    HW1 4204   9.526   7.676   2.062 -3.0648 -0.3595  0.4707
64630SOL    HW2 4205   9.511   7.535   2.009 -0.9424 -0.0882 -0.9567
64631SOL     OW 4206   3.794  11.462   4.369  0.6013 -0.2084  0.3526
64631SOL    HW1 4207   3.842  11.443   4.288  0.5396 -2.9440  0.8584
64631SOL    HW2 4208   3.861  11.490   4.431  0.8885  0.3121 -0.1881
64632SOL     OW 4209   4.764   1.480   8.213  0.1259 -0.4064 -0.4397
64632SOL    HW1 4210   4.714   1.495   8.133 -0.3397 -1.4106 -0.3606
64632SOL    HW2 4211   4.738   1.550   8.272 -0.9724 -0.7314 -0.5137
64633SOL     OW 4212   3.351   1.424   9.488 -0.1281  0.3865 -0.5620
64633SOL    HW1 4213   3.280   1.393   9.432 -0.0523 -0.8963  0.0152
64633SOL    HW2 4214   3.322   1.509   9.520  0.0120  1.3776 -2.8785
64634SOL     OW 4215   6.807   3.530   1.855  0.0576 -0.0576 -0.3628
64634SOL    HW1 4216   6.788   3.490   1.941  1.3848 -1.1571 -0.5469
64634SOL    HW2 4217   6.721   3.559   1.823 -0.9581 -2.4128 -0.0118
64635SOL     OW 4218   0.825   4.711   6.524  0.1591  0.6341 -0.0167
64635SOL    HW1 4219   0.892   4.709   6.455  0.6944 -0.0690  0.5060
64635SOL    HW2 4220   0.842   4.632   6.576 -0.0991  1.2594  1.0464
64636SOL     OW 4221   6.096  12.422  11.404 -0.4619 -0.0127  0.0005
64636SOL    HW1 4222   6.169  12.476  11.374 -0.3440 -0.3192 -0.2687
64636SOL    HW2 4223   6.019  12.479  11.399 -0.1168  0.5900  1.1045
64637SOL     OW 4224   1.579   6.214   7.403  0.0423 -0.5216  0.1290
64637SOL    HW1 4225   1.583   6.302   7.365  1.6253 -1.2535 -1.6245
64637SOL    HW2 4226   1.578   6.228   7.497 -1.1207  1.3792 -0.1241
64638SOL     OW 4227   5.319  10.519   4.527  0.6869 -0.8507 -0.1891
64638SOL    HW1 4228   5.333  10.573   4.449  0.8410  0.4150  0.6874
64638SOL    HW2 4229   5.338  10.577   4.601 -0.5934 -1.6612  0.8362
64639SOL     OW 4230  12.285   5.493   9.019 -0.1023  0.1572  0.0930
64639SOL    HW1 4231  12.272   5.557   8.949 -3.1991 -0.3140  0.1009
64639SOL    HW2 4232  12.246   5.413   8.986 -1.5492 -0.1091  2.2705
64640SOL     OW 4233   9.531   1.574   2.671  0.1176  0.0198 -0.1096
64640SOL    HW1 4234   9.564   1.484   2.672  2.6047  0.8256  0.9518
64640SOL    HW2 4235   9.512   1.593   2.763  1.3965  1.0962 -0.0266
64641SOL     OW 4236   5.101   1.995   7.966  0.2837  0.3358  0.1115
64641SOL    HW1 4237   5.077   1.946   8.045  1.1074 -0.8105 -0.3247
64641SOL    HW2 4238   5.194   2.015   7.977  0.4116  0.1431 -0.5736
64642SOL     OW 4239   3.625   3.004   7.055  0.9240  0.4776  0.0796
64642SOL    HW1 4240   3.633   2.914   7.086  1.4405  1.3503  2.6947
64642SOL    HW2 4241   3.715   3.030   7.036  0.6111 -0.1023 -2.6215
64643SOL     OW 4242   1.212   1.058   6.031 -0.3742  0.0918  0.2542
64643SOL    HW1 4243   1.298   1.093   6.054 -0.3257  0.0144  0.1914
64643SOL    HW2 4244   1.166   1.132   5.992  0.2500 -0.2714 -1.2626
64644SOL     OW 4245   5.459   7.679   0.387  0.0126 -0.5278 -0.3457
64644SOL    HW1 4246   5.499   7.632   0.460 -1.7193 -0.2241  0.8653
64644SOL    HW2 4247   5.366   7.657   0.391 -0.2066 -0.1739 -2.2382
64645SOL     OW 4248  10.677  11.579   5.369  0.0696  0.6374 -0.0853
64645SOL    HW1 4249  10.593  11.536   5.386  0.2416  0.7798  1.2193
64645SOL    HW2 4250  10.743  11.513   5.393  0.3272  1.1903  0.7706
64646SOL     OW 4251   5.680   6.837  11.097  0.2418 -0.1764  1.0699
64646SOL    HW1 4252   5.685   6.768  11.162 -2.1745 -1.7696 -0.2745
64646SOL    HW2 4253   5.619   6.804  11.031  2.4065  1.3839 -1.9751
64647SOL     OW 4254   2.644   5.711  12.543 -0.4625 -0.0123  0.1442
64647SOL    HW1 4255   2.736   5.717  12.515 -0.0701 -2.3976  0.7228
64647SOL    HW2 4256   2.594   5.710  12.462  0.0327  0.9301 -0.1871
64648SOL     OW 4257   0.507   0.478  12.844  0.3099  0.0113 -0.0635
64648SOL    HW1 4258   0.534   0.564  12.811 -0.2594 -0.0587 -0.7282
64648SOL    HW2 4259   0.473   0.432  12.767 -0.8407 -0.2454  0.5879
64649SOL     OW 4260   0.569   2.357   8.773  0.1580 -0.7979 -0.4531
64649SOL    HW1 4261   0.502   2.423   8.787 -0.7178 -1.4167 -1.5762
64649SOL    HW2 4262   0.521   2.274   8.770  1.2542 -1.5741  1.2274
64650SOL     OW 4263  11.654  12.793   8.754  0.4915  0.6725 -0.3255
64650SOL    HW1 4264  11.657  12.722   8.690  0.9401  0.3988 -0.0089
64650SOL    HW2 4265  11.745  12.803   8.784  0.2285  0.4993  0.5822
64651SOL     OW 4266   1.772   3.845   4.635 -0.2226  0.4208  0.1459
64651SOL    HW1 4267   1.683   3.810   4.632  0.5173 -1.5912 -0.2026
64651SOL    HW2 4268   1.787   3.868   4.726 -0.1283 -2.1019  0.8406
64652SOL     OW 4269   7.714   1.636   6.015  0.7634  0.1330  0.6344
64652SOL    HW1 4270   7.720   1.629   6.110 -1.3823 -2.9838  0.6759
64652SOL    HW2 4271   7.784   1.579   5.982  1.5620  1.2757  0.2971
64653SOL     OW 4272   0.769  10.256   1.463  0.0128  0.3533 -0.2110
64653SOL    HW1 4273   0.679  10.223   1.466 -0.1674  0.8421 -0.1222
64653SOL    HW2 4274   0.820  10.184   1.425 -0.3922  0.0243 -0.1392
64654SOL     OW 4275   6.049   7.954  10.416  0.1305  0.2471 -0.5799
64654SOL    HW1 4276   5.984   7.885  10.428  0.3120  0.0567 -0.6928
64654SOL    HW2 4277   6.024   7.996  10.334  0.4792 -0.1901 -0.9149
64655SOL     OW 4278   7.092   3.082   0.867  0.2958  0.0732  0.3740
64655SOL    HW1 4279   7.116   3.027   0.793 -1.4916  0.7998 -0.8135
64655SOL    HW2 4280   7.152   3.056   0.937  2.6416 -0.0097 -1.5557
64656SOL     OW 4281   2.642   2.981   3.785 -0.8894  0.4280  0.3474
64656SOL    HW1 4282   2.652   3.076   3.774  0.1303  0.4539  1.3713
64656SOL    HW2 4283   2.549   2.965   3.769 -1.0016  1.5368 -0.2271
64657SOL     OW 4284   7.981   6.805   8.651  0.2552  0.7800  0.0430
64657SOL    HW1 4285   7.914   6.834   8.588  0.0338 -2.1356 -1.2771
64657SOL    HW2 4286   8.024   6.885   8.679 -0.2858  2.3571 -3.1288
64658SOL     OW 4287   6.454  12.682   0.663  1.2758 -0.8237  0.3596
64658SOL    HW1 4288   6.531  12.647   0.708  1.3011  0.4748  1.3646
64658SOL    HW2 4289   6.485  12.703   0.575  2.2611  0.3426  0.9655
64659SOL     OW 4290   2.972   8.401   1.301 -0.0744  0.1593  0.1499
64659SOL    HW1 4291   3.038   8.394   1.370 -0.1635  0.0947  0.2286
64659SOL    HW2 4292   2.997   8.334   1.237 -0.5601 -0.4602  0.5980
64660SOL     OW 4293   3.937  10.002   8.821 -0.1503 -0.0400 -0.5547
64660SOL    HW1 4294   3.988   9.966   8.894  1.7409  1.9868 -0.7737
64660SOL    HW2 4295   3.866  10.050   8.864  1.5754  2.0719  0.0972
64661SOL     OW 4296   7.964   8.980  10.571 -0.1749 -0.2547  0.7564
64661SOL    HW1 4297   7.932   8.906  10.520 -0.9607  0.0189  0.8260
64661SOL    HW2 4298   7.961   9.054  10.509 -0.4378 -0.0690  0.9864
64662SOL     OW 4299   9.924   9.373   3.909 -0.0726  0.0614  0.2376
64662SOL    HW1 4300   9.987   9.444   3.899  1.5070 -1.0593  1.7808
64662SOL    HW2 4301   9.848   9.414   3.950  1.5002  0.5897  2.8096
64663SOL     OW 4302  12.418   1.716  12.809  0.0823 -0.6055 -0.6148
64663SOL    HW1 4303  12.510   1.716  12.784  0.6067 -0.7886  1.1442
64663SOL    HW2 4304  12.400   1.625  12.836 -0.5196 -0.5038 -0.6423
64664SOL     OW 4305   3.359   3.519  10.347  0.3209  0.1469 -0.1167
64664SOL    HW1 4306   3.324   3.434  10.321  0.3007  0.2245 -0.3419
64664SOL    HW2 4307   3.285   3.579  10.336  0.4281  0.2505 -0.2697
64665SOL     OW 4308  12.648   6.346   1.777 -0.7799 -0.3354 -0.4423
64665SOL    HW1 4309  12.719   6.284   1.757 -1.4908 -0.7727 -1.7532
64665SOL    HW2 4310  12.639   6.398   1.697 -0.3899  1.2997  0.5411
64666SOL     OW 4311  11.011   1.723   5.677 -0.6711  0.3524 -0.0362
64666SOL    HW1 4312  11.027   1.655   5.612  1.8209  0.2428  0.5698
64666SOL    HW2 4313  10.927   1.700   5.717 -1.0173 -0.9961 -1.4665
64667SOL     OW 4314   8.291  11.409   0.074 -0.1908 -0.5585  0.2845
64667SOL    HW1 4315   8.352  11.422   0.002  1.5200  0.5551  1.8557
64667SOL    HW2 4316   8.343  11.369   0.143 -1.3972 -0.2011  1.4370
64668SOL     OW 4317   7.801   0.366   5.879  0.6806 -0.0687 -0.0906
64668SOL    HW1 4318   7.879   0.375   5.932  0.6444 -0.2964  0.0054
64668SOL    HW2 4319   7.730   0.398   5.934  0.5282 -1.0834  0.3172
64669SOL     OW 4320   1.260  12.911   0.608  0.0544 -0.7707  0.6334
64669SOL    HW1 4321   1.278  12.999   0.576  0.9313 -1.1395  0.0919
64669SOL    HW2 4322   1.342  12.884   0.650  0.6203 -2.2245 -1.2801
64670SOL     OW 4323   0.254  12.066  11.121  0.1493  0.0029  0.5685
64670SOL    HW1 4324   0.319  12.033  11.183 -0.5376 -2.0501  0.2499
64670SOL    HW2 4325   0.282  12.156  11.103  2.8598 -0.7540  0.5257
64671SOL     OW 4326   5.610   0.177   6.437  0.2268 -0.6860 -0.0470
64671SOL    HW1 4327   5.522   0.169   6.401 -0.0571  0.1271  0.4519
64671SOL    HW2 4328   5.599   0.229   6.516  1.3626  0.8450 -0.8400
64672SOL     OW 4329  11.431  11.882   8.340 -0.2073 -0.7919 -0.4451
64672SOL    HW1 4330  11.365  11.827   8.382 -1.8533 -0.7938 -2.8674
64672SOL    HW2 4331  11.387  11.919   8.264  2.4765 -0.4845 -1.9654
64673SOL     OW 4332  11.176   5.662   8.857 -0.0571  0.5825 -0.4009
64673SOL    HW1 4333  11.089   5.691   8.829 -0.2077  2.6976  1.9273
64673SOL    HW2 4334  11.234   5.683   8.784 -1.5101 -1.5988 -2.3382
64674SOL     OW 4335  11.067   3.432  12.616  0.1361  0.2327 -0.0804
64674SOL    HW1 4336  11.083   3.467  12.703 -0.0530 -0.2855  0.1714
64674SOL    HW2 4337  11.034   3.343  12.632 -0.6717  0.4191 -0.6494
64675SOL     OW 4338   1.716  11.725  10.923  0.1871 -0.1150 -0.3139
64675SOL    HW1 4339   1.791  11.783  10.930 -1.2825  1.8032  0.6398
64675SOL    HW2 4340   1.727  11.662  10.993  0.6417  0.4895  0.1622
64676SOL     OW 4341   2.383   3.718   2.691  0.4240  0.0348  0.0654
64676SOL    HW1 4342   2.386   3.720   2.595  0.1374  1.4306  0.0691
64676SOL    HW2 4343   2.463   3.673   2.717  0.1098 -1.0965 -0.8370
64677SOL     OW 4344   7.540  11.809   9.395 -0.1329 -0.1860 -0.1119
64677SOL    HW1 4345   7.462  11.854   9.429 -0.8266 -1.4037 -0.0249
64677SOL    HW2 4346   7.506  11.757   9.321  0.8197  0.1451 -0.8013
64678SOL     OW 4347   8.776   6.125   3.849  0.0899  1.0087  0.3519
64678SOL    HW1 4348   8.817   6.195   3.798  1.3670  1.2435  1.6066
64678SOL    HW2 4349   8.690   6.160   3.874 -0.0683  1.3453 -0.6353
64679SOL     OW 4350   0.553   5.748   7.953 -0.3130  0.0755  0.2515
64679SOL    HW1 4351   0.629   5.727   7.898 -0.8534 -2.4697  0.3191
64679SOL    HW2 4352   0.591   5.773   8.037  0.5065  3.4456 -0.9870
64680SOL     OW 4353   8.979   9.082   3.185 -0.3789  0.2212 -0.1213
64680SOL    HW1 4354   9.000   9.164   3.230 -0.6400  0.0884  0.2504
64680SOL    HW2 4355   8.940   9.027   3.253  1.1019 -0.7517 -0.0058
64681SOL     OW 4356   7.872   8.654   0.249  0.7735 -0.5719  0.0649
64681SOL    HW1 4357   7.898   8.563   0.237  1.1398 -0.3595 -0.8512
64681SOL    HW2 4358   7.897   8.675   0.339  2.1712 -0.8925 -0.2270
64682SOL     OW 4359   1.801   5.197  11.113 -0.1660  0.1435 -0.1863
64682SOL    HW1 4360   1.793   5.133  11.184 -1.2572  0.9717  0.4645
64682SOL    HW2 4361   1.720   5.188  11.063 -0.5549  1.3060  0.1888
64683SOL     OW 4362   0.862   4.309   2.345 -0.2812  0.4196  0.0933
64683SOL    HW1 4363   0.842   4.378   2.408 -3.2117  0.1930 -0.4397
64683SOL    HW2 4364   0.923   4.252   2.392  0.1673  1.9674  1.4995
64684SOL     OW 4365   2.167   1.582   5.324  0.1192 -0.1618 -0.6405
64684SOL    HW1 4366   2.145   1.557   5.414 -0.1008  0.3148 -0.5613
64684SOL    HW2 4367   2.101   1.647   5.300  0.8493  0.5585 -0.7409
64685SOL     OW 4368   6.182   2.315  10.767  0.4472 -0.3409  0.1861
64685SOL    HW1 4369   6.219   2.249  10.708 -0.2190 -1.5035  1.0278
64685SOL    HW2 4370   6.251   2.331  10.832  0.1597 -1.1758  0.7146
64686SOL     OW 4371   0.856   2.845   3.200 -0.1812  0.5105 -0.0856
64686SOL    HW1 4372   0.772   2.840   3.246 -0.9642  1.2096 -1.3758
64686SOL    HW2 4373   0.841   2.906   3.128  0.9474 -0.6129 -1.3509
64687SOL     OW 4374  12.077   7.285  10.019  0.4099  0.0117  0.0251
64687SOL    HW1 4375  12.043   7.352  10.078 -0.0520  0.1135 -0.3514
64687SOL    HW2 4376  12.064   7.321   9.931 -0.1140 -0.6852 -0.1950
64688SOL     OW 4377   1.348  11.698   8.005  0.0452 -0.9061  0.2376
64688SOL    HW1 4378   1.288  11.668   8.073  1.8209  0.4853  2.5561
64688SOL    HW2 4379   1.354  11.793   8.018 -0.9380 -0.2361 -3.1213
64689SOL     OW 4380   1.864   7.754   5.046  0.0826 -0.2021 -0.4479
64689SOL    HW1 4381   1.846   7.661   5.031 -1.8374 -0.0941  0.7307
64689SOL    HW2 4382   1.937   7.754   5.108 -0.8240 -1.0252  0.6865
64690SOL     OW 4383   1.661   8.821   6.084  0.1348 -0.5711  0.1200
64690SOL    HW1 4384   1.650   8.911   6.115  1.0780 -0.5748  0.5068
64690SOL    HW2 4385   1.571   8.788   6.073 -0.2583 -0.3060  2.1348
64691SOL     OW 4386  11.639  11.497   6.665 -0.0749  0.1256  0.3183
64691SOL    HW1 4387  11.619  11.585   6.631  1.5714  0.3869 -0.0788
64691SOL    HW2 4388  11.566  11.443   6.635 -1.4180  1.4484  1.0378
64692SOL     OW 4389   3.170   7.681   5.877 -0.6886  0.8977 -0.4284
64692SOL    HW1 4390   3.086   7.721   5.900 -0.8662  1.2906 -1.6903
64692SOL    HW2 4391   3.224   7.694   5.955 -1.7137  0.8546  0.3170
64693SOL     OW 4392  12.979   2.805   5.748 -0.1593  0.3329  0.6442
64693SOL    HW1 4393  12.988   2.873   5.815  1.1255 -0.9007  1.7873
64693SOL    HW2 4394  13.060   2.755   5.754  0.0844  0.2623 -1.9795
64694SOL     OW 4395   5.828  11.950  11.439  0.4030  0.2672 -0.2970
64694SOL    HW1 4396   5.870  12.029  11.472  0.6045  0.1498 -0.2705
64694SOL    HW2 4397   5.736  11.959  11.463  0.0392  1.3727 -1.9241
64695SOL     OW 4398   2.966   6.959   4.092  0.6719 -0.2906 -0.2403
64695SOL    HW1 4399   2.944   6.941   4.183 -1.2718 -0.3869 -0.6771
64695SOL    HW2 4400   2.898   7.020   4.063  2.9150  2.0998 -0.8462
64696SOL     OW 4401   4.117   9.570   8.669 -0.1885 -0.4732  0.2113
64696SOL    HW1 4402   4.066   9.498   8.632 -0.8259 -0.2010  0.5449
64696SOL    HW2 4403   4.070   9.649   8.642  1.1164 -0.1077 -1.0979
64697SOL     OW 4404   1.247   8.585   4.413 -0.0729 -0.1887 -0.5122
64697SOL    HW1 4405   1.210   8.520   4.472  1.3797  0.5472  1.3126
64697SOL    HW2 4406   1.313   8.537   4.363 -0.5856 -0.5926 -0.8096
64698SOL     OW 4407   1.012   5.351   7.075  0.6118  0.2884 -0.0553
64698SOL    HW1 4408   1.039   5.260   7.061 -0.0888  0.2476 -1.2891
64698SOL    HW2 4409   1.085   5.403   7.040  0.6418  0.1927 -0.1356
64699SOL     OW 4410   1.673   5.550   6.355 -0.1386 -0.7596  0.3960
64699SOL    HW1 4411   1.620   5.600   6.293  0.8564  0.6212  0.6033
64699SOL    HW2 4412   1.663   5.459   6.327 -0.4380 -0.2632 -1.2321
64700SOL     OW 4413  10.757   5.910   1.219  0.1224 -0.5451  0.2404
64700SOL    HW1 4414  10.733   5.856   1.295  0.7108 -1.1008  0.0362
64700SOL    HW2 4415  10.676   5.917   1.169  0.1551 -1.7213 -0.0178
64701SOL     OW 4416  11.042   4.179   0.764 -0.2013  0.0702 -0.3116
64701SOL    HW1 4417  11.100   4.252   0.743  0.5071 -0.2204  0.5922
64701SOL    HW2 4418  11.098   4.101   0.757 -0.5675 -0.2427  0.2277
64702SOL     OW 4419   5.399   2.019   0.528  0.5795 -0.7616  0.2911
64702SOL    HW1 4420   5.398   1.969   0.609  1.0114  0.3797  1.0248
64702SOL    HW2 4421   5.425   2.107   0.554  1.2540 -0.4927 -1.1582
64703SOL     OW 4422   4.144   6.104   0.696  0.1818 -0.4483 -0.0746
64703SOL    HW1 4423   4.060   6.113   0.650 -1.0601 -1.1512  1.9059
64703SOL    HW2 4424   4.171   6.194   0.716 -1.2546 -0.2415  1.1354
64704SOL     OW 4425   2.467  10.168  10.403  0.9533  0.0666  0.4667
64704SOL    HW1 4426   2.497  10.139  10.489 -0.6218 -2.8971  0.1638
64704SOL    HW2 4427   2.371  10.170  10.411  0.8405  3.2808 -0.2705
64705SOL     OW 4428   1.843   7.324  11.171 -0.3609  0.2883 -0.0835
64705SOL    HW1 4429   1.931   7.332  11.135  0.1021 -1.3542  0.6016
64705SOL    HW2 4430   1.804   7.250  11.123 -0.2189 -1.0354  1.7208
64706SOL     OW 4431   8.629  10.693   2.696 -0.0335  0.0777  0.1435
64706SOL    HW1 4432   8.537  10.668   2.706 -0.0960  0.8205  1.6942
64706SOL    HW2 4433   8.636  10.777   2.743  1.3241  0.2848 -0.3937
64707SOL     OW 4434   8.093   7.638   2.910 -0.1156 -0.7711  0.4045
64707SOL    HW1 4435   8.040   7.706   2.950  0.3779 -0.3023  0.2765
64707SOL    HW2 4436   8.174   7.638   2.962  0.9302  0.4955 -1.1281
64708SOL     OW 4437   8.355  12.788  12.262  0.3168 -0.5333 -0.6713
64708SOL    HW1 4438   8.311  12.872  12.260  0.0037 -0.7110 -1.5062
64708SOL    HW2 4439   8.344  12.757  12.352  0.0279  0.0933 -0.4862
64709SOL     OW 4440  12.655   2.819   7.015 -0.0982 -0.0581 -0.0104
64709SOL    HW1 4441  12.663   2.741   6.960  0.8957  0.2973 -0.3899
64709SOL    HW2 4442  12.561   2.828   7.030 -0.3829 -0.3043 -1.4705
64710SOL     OW 4443  12.369   4.197   2.711 -0.4923  0.5676  0.8313
64710SOL    HW1 4444  12.414   4.155   2.785  2.1240  1.4223 -0.1636
64710SOL    HW2 4445  12.278   4.207   2.741 -0.1219 -1.3777  2.9240
64711SOL     OW 4446   9.743   8.611   8.639 -0.3785 -0.0038 -0.1870
64711SOL    HW1 4447   9.738   8.705   8.623 -0.5630 -0.3164 -2.1983
64711SOL    HW2 4448   9.835   8.589   8.629  0.0942  0.2600  2.6072
64712SOL     OW 4449   7.841  11.381   0.098  0.1024 -0.0155  0.4593
64712SOL    HW1 4450   7.828  11.300   0.050 -1.1305 -0.8590  2.1229
64712SOL    HW2 4451   7.775  11.441   0.063  0.3257 -0.0646 -0.0504
64713SOL     OW 4452   9.332  12.953   3.048 -0.5330  0.5035 -0.3786
64713SOL    HW1 4453   9.416  12.980   3.011 -0.0166 -1.0127 -0.3741
64713SOL    HW2 4454   9.289  12.904   2.977 -0.8258  0.1325  0.0497
64714SOL     OW 4455   1.012   7.374   2.730  0.1837 -0.0138 -0.3329
64714SOL    HW1 4456   1.033   7.354   2.638  1.1300  0.5922 -0.2763
64714SOL    HW2 4457   0.951   7.448   2.724  0.8882  0.5800 -0.4919
64715SOL     OW 4458   3.721  12.535  12.964 -0.2166  0.0058 -0.2613
64715SOL    HW1 4459   3.650  12.552  13.025  0.4344  0.8245  0.3045
64715SOL    HW2 4460   3.777  12.613  12.971  0.1548 -0.1261 -1.5015
64716SOL     OW 4461   4.350   5.495   3.306 -0.6902  0.3909 -0.6445
64716SOL    HW1 4462   4.345   5.406   3.340  0.2863  0.5751  0.0287
64716SOL    HW2 4463   4.275   5.539   3.347 -0.1465  0.3277  0.4747
64717SOL     OW 4464   5.005   1.746  10.846 -0.4052  0.5776  0.4866
64717SOL    HW1 4465   5.008   1.841  10.838 -1.9770  0.5624 -1.0333
64717SOL    HW2 4466   5.065   1.714  10.779 -0.1834  0.5030  0.7225
64718SOL     OW 4467   6.347   8.617  11.598  0.1456  0.4067  0.0262
64718SOL    HW1 4468   6.269   8.562  11.605  0.5411 -0.2364 -0.5057
64718SOL    HW2 4469   6.407   8.582  11.664 -0.5136  1.7838  1.4143
64719SOL     OW 4470   3.181   6.450   1.037  0.1410 -0.4966  0.1494
64719SOL    HW1 4471   3.183   6.395   0.959  2.5012  1.9459 -1.6895
64719SOL    HW2 4472   3.215   6.394   1.107 -0.2474 -2.1860 -0.9623
64720SOL     OW 4473   0.887  11.081   6.454 -0.1330  0.2194 -0.0443
64720SOL    HW1 4474   0.812  11.025   6.433 -0.5359  0.1103  1.5563
64720SOL    HW2 4475   0.948  11.069   6.381  0.2179 -3.0214  0.6476
64721SOL     OW 4476   7.986   1.878   8.304  0.3068  0.3191  0.1745
64721SOL    HW1 4477   8.023   1.794   8.279 -0.7010 -0.4660  1.2481
64721SOL    HW2 4478   8.059   1.939   8.297  1.4016 -0.8863  0.7191
64722SOL     OW 4479   5.981   5.413  10.881  0.5027 -0.2449  0.4388
64722SOL    HW1 4480   5.920   5.434  10.811 -0.3695 -1.2681  0.8585
64722SOL    HW2 4481   6.036   5.343  10.846 -0.3506 -1.2041  0.9629
64723SOL     OW 4482   4.237   2.663   8.861 -0.4337 -0.2092 -0.6494
64723SOL    HW1 4483   4.329   2.644   8.845 -0.4518 -2.3601  1.4059
64723SOL    HW2 4484   4.190   2.596   8.811 -1.0308  1.6058 -2.6918
64724SOL     OW 4485  11.220   5.748   1.926  0.2611  0.0975 -0.1760
64724SOL    HW1 4486  11.165   5.778   1.998  0.3884 -1.2629  0.5247
64724SOL    HW2 4487  11.241   5.657   1.949 -1.3121 -1.0658 -2.9017
64725SOL     OW 4488   1.434   2.285   1.457  0.2237  0.5750  0.0817
64725SOL    HW1 4489   1.452   2.201   1.501  0.2855  1.4176  1.7413
64725SOL    HW2 4490   1.473   2.351   1.515 -0.6793  1.8314 -0.6969
64726SOL     OW 4491   9.286   0.633   4.581  0.5983 -0.2477  0.3577
64726SOL    HW1 4492   9.353   0.647   4.647 -0.3086  1.3293  1.0086
64726SOL    HW2 4493   9.204   0.657   4.624  0.0938  2.0082 -1.6216
64727SOL     OW 4494   4.330   5.220   0.281  0.4560 -0.0090 -0.0376
64727SOL    HW1 4495   4.310   5.225   0.188  1.1806 -1.7380 -0.3144
64727SOL    HW2 4496   4.416   5.262   0.289  0.2713  0.3820 -0.1048
64728SOL     OW 4497   0.482   2.483  10.346  0.2367  0.0486  0.4506
64728SOL    HW1 4498   0.410   2.450  10.291 -1.0511  0.5181  1.7970
64728SOL    HW2 4499   0.527   2.404  10.375  0.6134 -0.2337 -0.8083
64729SOL     OW 4500   4.177   0.752   7.519  0.4614 -0.2910 -0.7330
64729SOL    HW1 4501   4.235   0.827   7.500 -0.9671  1.0775  0.0979
64729SOL    HW2 4502   4.186   0.738   7.613  0.1788 -0.7101 -0.7674
64730SOL     OW 4503   6.060   4.402   8.708  0.0621  0.1589 -0.1330
64730SOL    HW1 4504   6.143   4.404   8.661  1.6146  2.0067  2.4529
64730SOL    HW2 4505   5.994   4.389   8.639  2.4317 -1.9916 -2.2314
64731SOL     OW 4506   1.089   9.500  10.404 -0.0687  0.1251  0.1620
64731SOL    HW1 4507   1.014   9.446  10.426  0.0506 -0.0243  0.1988
64731SOL    HW2 4508   1.082   9.513  10.309 -1.2706  1.7856  0.4382
64732SOL     OW 4509   7.539   2.521   7.696  0.7415 -0.4532 -0.5125
64732SOL    HW1 4510   7.449   2.488   7.696  0.3033  0.6533 -1.7284
64732SOL    HW2 4511   7.593   2.443   7.681 -0.1584 -0.8778 -1.7780
64733SOL     OW 4512   8.059   4.287   1.819 -0.3381  0.6417  0.5118
64733SOL    HW1 4513   8.106   4.217   1.773  0.4414  0.4966  1.4850
64733SOL    HW2 4514   8.051   4.256   1.909 -3.8999 -0.1111  0.0861
64734SOL     OW 4515   3.086  12.384   7.567 -0.4348 -0.4607  0.0174
64734SOL    HW1 4516   3.156  12.411   7.626 -0.1418 -2.2557  0.5392
64734SOL    HW2 4517   3.037  12.318   7.616 -2.2391  0.4013 -0.5156
64735SOL     OW 4518   2.336   5.875   9.368 -0.1954  0.0105  0.5222
64735SOL    HW1 4519   2.422   5.916   9.366  0.1273 -0.6286  0.9087
64735SOL    HW2 4520   2.344   5.799   9.310 -0.8300  0.5607 -0.3058
64736SOL     OW 4521   1.047  12.352   7.720 -0.1963  0.5505 -0.2914
64736SOL    HW1 4522   1.099  12.431   7.704 -0.2664  0.4623 -1.0114
64736SOL    HW2 4523   1.055  12.302   7.638 -1.2958  0.4735 -0.3662
64737SOL     OW 4524  12.565   3.301   8.679  0.1992  0.4066 -0.3699
64737SOL    HW1 4525  12.516   3.347   8.611  0.7125  1.4040 -0.0952
64737SOL    HW2 4526  12.653   3.338   8.673  0.8388 -1.0800 -0.6134
64738SOL     OW 4527   5.382   7.314  10.210 -0.0100  0.0053  0.0700
64738SOL    HW1 4528   5.416   7.395  10.171  1.2699 -0.4592  0.1911
64738SOL    HW2 4529   5.367   7.335  10.302  0.9906 -0.0745  0.2622
64739SOL     OW 4530   3.722   8.288  12.592 -0.1150  0.6875  0.0840
64739SOL    HW1 4531   3.816   8.293  12.575 -0.3046  0.4795 -1.1538
64739SOL    HW2 4532   3.709   8.204  12.635  0.3485  1.0251  0.8950
64740SOL     OW 4533   9.253   6.042   3.872 -0.3418 -0.1126 -0.0877
64740SOL    HW1 4534   9.159   6.051   3.886 -0.1690  0.7264  0.5786
64740SOL    HW2 4535   9.261   5.973   3.805 -1.4536  0.3164 -0.6823
64741SOL     OW 4536   2.382   3.916   5.957 -0.4048  0.0170 -0.8866
64741SOL    HW1 4537   2.298   3.877   5.932 -0.8716 -1.4632  2.3863
64741SOL    HW2 4538   2.443   3.842   5.957 -0.4854 -0.1721  2.0263
64742SOL     OW 4539  10.397   0.918   5.067  0.4358  0.6397 -0.5626
64742SOL    HW1 4540  10.376   0.962   4.985 -2.3736  0.4315 -0.0259
64742SOL    HW2 4541  10.390   0.825   5.047 -2.8566  0.5648  0.3862
64743SOL     OW 4542   6.909   8.582   5.206  0.6018 -0.1935 -0.2974
64743SOL    HW1 4543   6.980   8.595   5.143  1.9464 -0.8126  1.0282
64743SOL    HW2 4544   6.884   8.490   5.196 -0.0270  0.0222 -0.7567
64744SOL     OW 4545   6.605  10.062   6.734 -0.4654 -0.0460  0.2648
64744SOL    HW1 4546   6.696  10.034   6.739 -0.1046  0.9511 -0.4721
64744SOL    HW2 4547   6.555   9.981   6.720  0.5728 -0.3527 -2.1635
64745SOL     OW 4548   4.406   8.562  11.743  0.9025 -0.0318  0.1207
64745SOL    HW1 4549   4.380   8.635  11.688  0.3119  0.1267  0.6036
64745SOL    HW2 4550   4.329   8.541  11.795  0.6707 -1.7911 -0.8382
64746SOL     OW 4551  11.750  11.150  10.495  0.3243 -0.2974  0.2768
64746SOL    HW1 4552  11.781  11.060  10.505 -0.9281 -0.9901 -1.4157
64746SOL    HW2 4553  11.729  11.179  10.583 -0.5749 -2.1970  0.7345
64747SOL     OW 4554  12.974  10.433   5.150 -0.5590  0.5776  0.4784
64747SOL    HW1 4555  12.948  10.458   5.061 -0.5895 -1.7705 -0.2549
64747SOL    HW2 4556  13.069  10.444   5.151 -0.0167 -2.6548 -1.1438
64748SOL     OW 4557  12.042   0.167   3.510  0.5803 -0.6716  0.4829
64748SOL    HW1 4558  12.125   0.193   3.471  0.9127  1.7075  2.5325
64748SOL    HW2 4559  11.976   0.200   3.449  1.1173  0.6512  0.5887
64749SOL     OW 4560   1.799  10.561   3.422  0.1387  0.0779 -0.3616
64749SOL    HW1 4561   1.833  10.590   3.338  0.7171 -1.1467 -0.5689
64749SOL    HW2 4562   1.842  10.477   3.438  0.8482  0.7461  1.6474
64750SOL     OW 4563   5.894  12.024   7.419 -0.5376  0.0818 -0.1665
64750SOL    HW1 4564   5.921  11.950   7.364 -0.5538 -0.7032  0.8363
64750SOL    HW2 4565   5.817  11.992   7.466 -1.3661  1.2234 -0.7127
64751SOL     OW 4566   3.231   3.060  10.777  0.4603  0.7841  0.3887
64751SOL    HW1 4567   3.305   3.004  10.801  1.1996  1.3062 -0.5733
64751SOL    HW2 4568   3.200   3.025  10.693  1.0410  1.8728 -0.3147
64752SOL     OW 4569   8.680   2.180   5.489  0.1815 -0.1413  0.0446
64752SOL    HW1 4570   8.739   2.122   5.441 -0.3302 -0.2137 -0.4998
64752SOL    HW2 4571   8.592   2.152   5.464 -0.1077 -0.4453  1.3280
64753SOL     OW 4572  10.353   4.867  10.283 -0.4745 -0.5101  0.6348
64753SOL    HW1 4573  10.352   4.788  10.337 -0.9111 -0.6815  0.3846
64753SOL    HW2 4574  10.376   4.937  10.344 -1.3027 -0.6467  1.1268
64754SOL     OW 4575   1.175  11.740   2.289 -0.1203 -0.4978 -1.0132
64754SOL    HW1 4576   1.083  11.722   2.311 -0.2834  1.2422 -0.0330
64754SOL    HW2 4577   1.224  11.707   2.364 -0.1870  0.6529 -0.4399
64755SOL     OW 4578  10.585  11.285   6.364  0.3458 -0.0886  0.1072
64755SOL    HW1 4579  10.617  11.325   6.284 -0.2379 -0.2564 -0.2136
64755SOL    HW2 4580  10.502  11.329   6.382  1.2445  1.1269  1.5388
64756SOL     OW 4581   8.937   7.414   6.748 -0.1200 -0.7033  0.5253
64756SOL    HW1 4582   8.842   7.410   6.761 -0.4500  0.8080 -1.0737
64756SOL    HW2 4583   8.963   7.322   6.734 -1.4262 -1.0875  0.4977
64757SOL     OW 4584   9.340   6.406   2.732  0.4102  0.2294 -0.4420
64757SOL    HW1 4585   9.259   6.409   2.782  1.0949 -0.4414  0.7823
64757SOL    HW2 4586   9.355   6.312   2.717  1.4114  0.2727  0.1718
64758SOL     OW 4587   5.953  12.192   2.957 -0.5334  0.1650 -0.0071
64758SOL    HW1 4588   5.892  12.192   3.032 -0.0392 -2.1014  0.4663
64758SOL    HW2 4589   6.040  12.200   2.997 -0.3342  0.1707 -0.4391
64759SOL     OW 4590  10.199   9.549   8.997  0.3464  0.1674  0.2171
64759SOL    HW1 4591  10.117   9.509   9.027  0.3079  0.1452  0.0830
64759SOL    HW2 4592  10.178   9.643   8.993  0.4783  0.2181  0.6613
64760SOL     OW 4593  12.403  12.839  12.579  0.5544 -0.3279 -0.6953
64760SOL    HW1 4594  12.350  12.917  12.564  1.3270  0.0036 -1.8381
64760SOL    HW2 4595  12.389  12.784  12.502 -1.1676 -2.0699  0.7599
64761SOL     OW 4596  10.960   3.437   1.833  0.4744 -0.1638 -0.3144
64761SOL    HW1 4597  11.051   3.464   1.817  0.8209 -1.1854 -0.0997
64761SOL    HW2 4598  10.966   3.372   1.902 -0.5406  0.5763  0.4953
64762SOL     OW 4599  12.640   4.706   8.465 -0.0742 -0.1095  0.1325
64762SOL    HW1 4600  12.685   4.751   8.394 -0.8884  0.7118  0.1182
64762SOL    HW2 4601  12.684   4.738   8.544 -1.3281  1.5600  0.1892
64763SOL     OW 4602   9.868   9.371   8.136  0.4889  0.0927 -0.0179
64763SOL    HW1 4603   9.830   9.367   8.224  1.1767 -1.9396  0.2368
64763SOL    HW2 4604   9.792   9.386   8.079 -0.5164 -2.0298  0.6456
64764SOL     OW 4605   7.158   8.905   5.931 -0.1964 -0.0247 -0.0388
64764SOL    HW1 4606   7.209   8.978   5.966 -0.1777 -0.4820  0.9109
64764SOL    HW2 4607   7.067   8.930   5.947 -0.1583 -0.8516  1.6580
64765SOL     OW 4608  12.929   6.556  11.106  0.7843 -0.3486 -0.2507
64765SOL    HW1 4609  13.020   6.540  11.083  0.5461 -0.9761 -0.7944
64765SOL    HW2 4610  12.917   6.650  11.093  1.2620 -0.3225 -0.5151
64766SOL     OW 4611   7.064   0.805   7.035  0.4783 -0.1761  0.7075
64766SOL    HW1 4612   7.098   0.721   7.066 -1.8599 -1.4549  0.0292
64766SOL    HW2 4613   7.130   0.836   6.973  0.6187 -2.3616 -0.3156
64767SOL     OW 4614  11.445   7.131   9.138  0.0674 -0.4063 -0.0221
64767SOL    HW1 4615  11.499   7.166   9.209  0.1187  1.7153 -1.0394
64767SOL    HW2 4616  11.476   7.177   9.060 -1.6032 -0.9255 -1.0300
64768SOL     OW 4617   8.492   1.415   8.403  0.2471 -0.4920 -0.1323
64768SOL    HW1 4618   8.498   1.342   8.464  1.6278  0.6418  1.1884
64768SOL    HW2 4619   8.484   1.492   8.459  0.1745  0.4719 -1.4325
64769SOL     OW 4620   1.716   3.230   3.405  0.8362  1.3777 -0.1111
64769SOL    HW1 4621   1.742   3.242   3.314  2.6540 -1.5213 -0.0999
64769SOL    HW2 4622   1.636   3.178   3.401  0.8979  1.2780 -0.0553
64770SOL     OW 4623   2.310  11.255  12.982 -0.0616 -0.7250 -0.1563
64770SOL    HW1 4624   2.241  11.228  13.042 -0.5339 -3.1704 -1.6742
64770SOL    HW2 4625   2.271  11.326  12.931 -0.3616 -0.0281  1.0240
64771SOL     OW 4626   2.057   2.851   3.122 -0.2077  0.1373  0.0544
64771SOL    HW1 4627   1.992   2.856   3.052 -0.4989 -0.3673  0.2869
64771SOL    HW2 4628   2.027   2.780   3.179 -0.4728  1.1316  1.1947
64772SOL     OW 4629   1.882   2.383   9.859 -0.3268 -0.0617 -0.1791
64772SOL    HW1 4630   1.829   2.461   9.846 -2.2150 -1.4373 -1.3452
64772SOL    HW2 4631   1.951   2.389   9.794  0.3290  1.2218  0.6057
64773SOL     OW 4632   2.576  10.388   5.175  0.0538 -0.0102 -0.6455
64773SOL    HW1 4633   2.508  10.333   5.214 -0.0574 -0.0449 -0.8850
64773SOL    HW2 4634   2.622  10.426   5.249 -0.8227  0.7495 -0.4731
64774SOL     OW 4635   2.715   7.997   2.132 -0.0298  0.0113  0.5026
64774SOL    HW1 4636   2.810   7.999   2.142 -0.0215 -0.2584  0.4798
64774SOL    HW2 4637   2.685   8.081   2.168  0.3327  0.7255 -0.8187
64775SOL     OW 4638  12.046   9.566  10.340 -0.3858 -0.3321  0.1967
64775SOL    HW1 4639  12.113   9.523  10.286 -0.4629  0.8868 -0.9275
64775SOL    HW2 4640  12.093   9.636  10.384 -0.8183  0.2595 -0.2656
64776SOL     OW 4641  11.458  12.739   4.461  0.2211 -0.0677  0.2344
64776SOL    HW1 4642  11.503  12.702   4.536 -0.3349  0.7339  0.9798
64776SOL    HW2 4643  11.372  12.696   4.461  1.1162 -2.0723 -1.5538
64777SOL     OW 4644   4.961   3.906   7.251  0.2284  0.1048  0.5163
64777SOL    HW1 4645   5.036   3.851   7.229  0.9984  0.9938  0.7925
64777SOL    HW2 4646   4.885   3.848   7.246  1.1181 -1.2548  1.8887
64778SOL     OW 4647   7.775   0.900  10.427  0.0055 -0.2806  0.1864
64778SOL    HW1 4648   7.853   0.855  10.395  0.1092  0.9087 -1.3909
64778SOL    HW2 4649   7.716   0.903  10.351 -0.5416  1.0077  0.6262
64779SOL     OW 4650  11.662   4.015   0.004  0.3942  0.3879  0.1596
64779SOL    HW1 4651  11.598   4.009   0.075  0.6100  2.6295  0.6295
64779SOL    HW2 4652  11.611   4.044  -0.071  0.4011 -0.6445 -0.2582
64780SOL     OW 4653  10.925   6.467  12.316 -0.4383 -0.6330 -0.1252
64780SOL    HW1 4654  10.901   6.411  12.390 -0.9385  1.5064  1.4232
64780SOL    HW2 4655  10.880   6.550  12.334  2.1109  1.0564 -1.0901
64781SOL     OW 4656   0.326   5.315  10.035  0.3701 -0.2143  0.2227
64781SOL    HW1 4657   0.327   5.247  10.103 -2.1392 -0.5607 -0.0084
64781SOL    HW2 4658   0.367   5.274   9.959  2.2036 -0.1885  1.1258
64782SOL     OW 4659   2.897   6.299   6.751  0.1819  0.2082 -0.0400
64782SOL    HW1 4660   2.971   6.240   6.744 -0.5441 -1.4313  3.7778
64782SOL    HW2 4661   2.823   6.243   6.776 -1.4270  2.2830  0.2076
64783SOL     OW 4662   1.702  10.547  12.340  0.3448 -0.1775 -0.2551
64783SOL    HW1 4663   1.763  10.530  12.412 -3.0978 -1.3735  2.6947
64783SOL    HW2 4664   1.690  10.462  12.298 -0.7894 -0.4514  0.5703
64784SOL     OW 4665   2.520   1.031   9.189  0.0911 -0.0643  0.2629
64784SOL    HW1 4666   2.520   0.938   9.211  0.0384  0.3127  1.9718
64784SOL    HW2 4667   2.428   1.052   9.173  0.0251 -0.1567  0.5264
64785SOL     OW 4668  12.207  11.791   8.643  0.7216 -0.6217  0.0738
64785SOL    HW1 4669  12.241  11.725   8.581 -1.5173 -1.4553 -0.3472
64785SOL    HW2 4670  12.269  11.788   8.716  0.7856 -3.1200  0.0131
64786SOL     OW 4671   6.596   2.109   2.267  0.1903  0.8161  0.4386
64786SOL    HW1 4672   6.690   2.091   2.270 -0.1534 -1.6914 -0.7819
64786SOL    HW2 4673   6.590   2.195   2.227  1.9714  0.1470 -1.4798
64787SOL     OW 4674   3.803   6.392   9.651  0.0701 -0.0102 -0.7624
64787SOL    HW1 4675   3.767   6.370   9.565  0.2312 -1.2669 -0.5382
64787SOL    HW2 4676   3.845   6.311   9.680  2.2497  1.1081 -0.5901
64788SOL     OW 4677   8.784   9.742   0.755 -0.0105  0.4067 -0.7923
64788SOL    HW1 4678   8.812   9.820   0.803 -1.1728 -0.5595  1.6104
64788SOL    HW2 4679   8.757   9.775   0.670 -1.5177  2.8491  0.5062
64789SOL     OW 4680   2.591   3.213   8.400  0.9342  0.1932 -0.4347
64789SOL    HW1 4681   2.524   3.176   8.456  1.3783 -0.2441 -0.1837
64789SOL    HW2 4682   2.559   3.301   8.379  0.7436  0.3508  0.4724
64790SOL     OW 4683   7.722   4.598   3.425 -0.1728  0.3543  0.4178
64790SOL    HW1 4684   7.759   4.521   3.382 -1.5121 -0.6384  0.9706
64790SOL    HW2 4685   7.756   4.595   3.514 -0.2982  0.3522  0.4652
64791SOL     OW 4686   1.482  12.758   4.919  0.1586 -0.1109 -0.4863
64791SOL    HW1 4687   1.565  12.726   4.885 -0.1738 -3.8089  1.5644
64791SOL    HW2 4688   1.493  12.755   5.014 -2.0874 -0.1180 -0.1714
64792SOL     OW 4689   1.442   2.287   6.343  0.5464  0.5216 -0.3190
64792SOL    HW1 4690   1.474   2.363   6.294 -1.9284  1.2872 -0.8867
64792SOL    HW2 4691   1.367   2.319   6.393  0.1750 -1.2782  0.3823
64793SOL     OW 4692   6.803   6.771   5.403  0.4048 -0.7900  0.3363
64793SOL    HW1 4693   6.898   6.765   5.394  0.5199 -0.5326  1.2496
64793SOL    HW2 4694   6.774   6.680   5.411  0.5982 -0.8589  0.2687
64794SOL     OW 4695   3.203   9.904  10.324 -0.0979 -0.1913 -0.0029
64794SOL    HW1 4696   3.287   9.939  10.294 -0.3505  0.8346  0.4320
64794SOL    HW2 4697   3.201   9.814  10.291  1.3247 -0.3465  0.2927
64795SOL     OW 4698   1.772   8.606   0.940  0.1926 -0.0077 -0.5986
64795SOL    HW1 4699   1.796   8.515   0.958 -1.5384 -0.5815 -0.9897
64795SOL    HW2 4700   1.729   8.603   0.854  0.8706  1.3289 -1.0034
64796SOL     OW 4701  10.713   9.249   0.703 -0.0020  0.1840  0.4152
64796SOL    HW1 4702  10.667   9.269   0.785 -2.5783 -1.6089 -0.4444
64796SOL    HW2 4703  10.721   9.154   0.703  0.3285  0.1900 -1.2021
64797SOL     OW 4704  11.821   8.860  10.444 -0.4656 -0.5319 -0.1820
64797SOL    HW1 4705  11.811   8.889  10.535  0.2587 -1.6649  0.2674
64797SOL    HW2 4706  11.810   8.941  10.393 -1.0305  0.0971  0.8867
64798SOL     OW 4707   8.418  12.089   0.477  0.6209  0.2189  0.1115
64798SOL    HW1 4708   8.340  12.083   0.533  0.2769 -1.8177 -0.5117
64798SOL    HW2 4709   8.396  12.158   0.414 -1.1883 -1.0545 -0.7469
64799SOL     OW 4710   6.869  10.004   1.141  0.0988  0.1192 -0.2839
64799SOL    HW1 4711   6.824   9.919   1.147 -0.5398  0.5321  4.4923
64799SOL    HW2 4712   6.962   9.983   1.146  0.0568 -0.3186 -1.0993
64800SOL     OW 4713  12.754   5.077  12.257 -0.2799 -0.0469 -0.0842
64800SOL    HW1 4714  12.695   5.152  12.265 -0.8636 -0.3657 -1.1342
64800SOL    HW2 4715  12.715   5.009  12.312 -0.1357  0.1856  0.3095
64801SOL     OW 4716   9.308   8.173   8.081  0.1807 -0.2940  0.1520
64801SOL    HW1 4717   9.243   8.232   8.119  0.1009 -0.8946  0.9934
64801SOL    HW2 4718   9.333   8.214   7.999 -1.0126  0.1230 -0.0253
64802SOL     OW 4719   1.411   8.769   5.387  0.0643 -0.1153  0.0256
64802SOL    HW1 4720   1.370   8.845   5.347 -0.3661 -0.2561  0.1966
64802SOL    HW2 4721   1.452   8.803   5.467 -0.5531 -0.1454  0.3648
64803SOL     OW 4722   7.652   6.548   6.188 -0.3332 -0.2756 -0.4784
64803SOL    HW1 4723   7.690   6.556   6.276 -2.6718  0.2160  0.5637
64803SOL    HW2 4724   7.699   6.613   6.136  1.5793 -1.0544  0.1781
64804SOL     OW 4725   2.022   3.178   4.223 -0.0427 -0.5255 -0.3459
64804SOL    HW1 4726   1.961   3.146   4.289  0.7142  1.3185  1.3613
64804SOL    HW2 4727   1.973   3.244   4.174 -0.3215 -1.2391 -1.0521
64805SOL     OW 4728   5.007   9.827   3.842  0.1868 -0.2038 -0.0078
64805SOL    HW1 4729   4.957   9.907   3.822 -1.4756 -1.0225  0.7686
64805SOL    HW2 4730   4.973   9.797   3.926  1.1536 -1.4624 -0.0376
64806SOL     OW 4731   4.556   8.625   4.529 -0.4276  0.3612 -0.0430
64806SOL    HW1 4732   4.532   8.717   4.540 -0.9023  0.4002 -1.2232
64806SOL    HW2 4733   4.646   8.627   4.496 -0.1400  0.3607  0.7236
64807SOL     OW 4734   1.348  11.603   5.393  0.2098 -0.0542 -0.0205
64807SOL    HW1 4735   1.425  11.659   5.387 -0.6248  1.5709  2.6633
64807SOL    HW2 4736   1.380  11.521   5.429  1.0325 -0.3569 -1.3835
64808SOL     OW 4737   3.463   1.583   5.903  0.0584  0.1495  0.5779
64808SOL    HW1 4738   3.383   1.602   5.952 -0.0367  0.8822  0.1651
64808SOL    HW2 4739   3.444   1.613   5.814  0.5503 -0.3134  0.3113
64809SOL     OW 4740   7.813  12.474   9.078 -0.2409 -0.1081 -0.4514
64809SOL    HW1 4741   7.727  12.480   9.120  1.5618  0.4067  3.7264
64809SOL    HW2 4742   7.832  12.380   9.078 -0.2477 -0.1142  0.0122
64810SOL     OW 4743   5.628   9.597   8.779 -0.7565  0.1019 -0.6557
64810SOL    HW1 4744   5.647   9.677   8.730 -0.9072  1.0444  0.7923
64810SOL    HW2 4745   5.543   9.568   8.745 -1.4155  1.3863 -0.1651
64811SOL     OW 4746   8.319   9.544   1.202  0.1404 -0.3218  0.7120
64811SOL    HW1 4747   8.284   9.625   1.240 -0.4616  0.1487 -0.7900
64811SOL    HW2 4748   8.336   9.488   1.278 -2.1656  0.1244  1.6428
64812SOL     OW 4749   3.909  11.586   3.536 -0.4122 -0.5993  0.3338
64812SOL    HW1 4750   3.836  11.540   3.495 -0.3191 -1.8435  1.5093
64812SOL    HW2 4751   3.985  11.532   3.516 -0.0146 -0.0398  0.2961
64813SOL     OW 4752   0.892  11.137   0.945  0.0260 -0.2159  0.0644
64813SOL    HW1 4753   0.846  11.183   0.874  0.1295  1.3074  0.9314
64813SOL    HW2 4754   0.983  11.167   0.938  0.2721 -0.9143  0.1834
64814SOL     OW 4755   6.549   9.907   3.060  0.5035 -0.2166  0.0530
64814SOL    HW1 4756   6.472   9.880   3.010  0.3780 -1.9900  1.1088
64814SOL    HW2 4757   6.517   9.979   3.115  0.0315  0.1203 -0.6303
64815SOL     OW 4758  12.487  10.802   1.300  0.3827  0.0611 -0.1902
64815SOL    HW1 4759  12.511  10.711   1.282  0.1615  0.2436 -1.5111
64815SOL    HW2 4760  12.522  10.851   1.226 -1.9863  0.6299 -1.0379
64816SOL     OW 4761   3.288   3.723   8.880  0.3225 -0.4885  0.2697
64816SOL    HW1 4762   3.248   3.773   8.951 -1.8601  0.7933 -1.7287
64816SOL    HW2 4763   3.340   3.787   8.832 -0.1079 -0.7771 -0.6057
64817SOL     OW 4764   4.660   3.003  11.920  0.1460  0.4790 -0.0678
64817SOL    HW1 4765   4.638   3.056  11.843  0.4665 -1.1039 -1.3050
64817SOL    HW2 4766   4.579   2.956  11.940  0.0871  0.8311  0.5150
64818SOL     OW 4767   7.963   8.906   4.423 -0.0728  0.2999 -0.3937
64818SOL    HW1 4768   7.913   8.898   4.504 -1.3047  0.2608 -1.1317
64818SOL    HW2 4769   8.027   8.835   4.427  0.5686  0.9297  0.9914
64819SOL     OW 4770   6.560   0.758   8.350 -0.2137 -0.5636 -0.5634
64819SOL    HW1 4771   6.509   0.723   8.422  0.5697  0.9194  0.7616
64819SOL    HW2 4772   6.625   0.690   8.332 -0.0963 -0.7404  0.4697
64820SOL     OW 4773   4.918  10.172   3.001 -0.3067  0.1006  0.0445
64820SOL    HW1 4774   4.987  10.106   2.992  0.3252  0.5076  1.6309
64820SOL    HW2 4775   4.929  10.228   2.925  0.5888 -0.3264 -0.1591
64821SOL     OW 4776   9.491   0.007   1.286 -0.0509  0.0093 -0.0033
64821SOL    HW1 4777   9.438   0.026   1.209 -0.5565 -0.8853  0.1136
64821SOL    HW2 4778   9.576  -0.018   1.251  0.3253  1.4801 -0.1915
64822SOL     OW 4779   4.499   3.259   5.124 -0.0377  0.0915  0.6453
64822SOL    HW1 4780   4.509   3.173   5.085 -0.0934  0.9161 -1.2890
64822SOL    HW2 4781   4.425   3.250   5.185  2.0284 -2.0283  3.0993
64823SOL     OW 4782  11.287   8.154   1.185 -0.3227  0.8557  0.2628
64823SOL    HW1 4783  11.234   8.164   1.264  0.7942  0.8539  1.0475
64823SOL    HW2 4784  11.231   8.106   1.124 -0.2564 -1.7972  2.0847
64824SOL     OW 4785   9.514   5.624   8.855  0.4317 -0.2920 -0.0270
64824SOL    HW1 4786   9.538   5.561   8.923 -1.8678  0.5166  1.6789
64824SOL    HW2 4787   9.427   5.596   8.825  1.1351 -0.2736 -2.2892
64825SOL     OW 4788   0.360  11.610   3.394  0.2766  0.2423  0.2212
64825SOL    HW1 4789   0.355  11.528   3.443  1.5197  0.0053 -0.0354
64825SOL    HW2 4790   0.363  11.583   3.303 -0.1193  0.6114  0.0964
64826SOL     OW 4791   9.183  11.736   5.173 -0.1234 -0.2386 -0.1565
64826SOL    HW1 4792   9.132  11.746   5.253  0.6740  0.5100  0.2749
64826SOL    HW2 4793   9.129  11.777   5.105 -0.0869  0.5850  0.2978
64827SOL     OW 4794   6.800  10.404   9.448 -0.2116  0.1683 -0.1101
64827SOL    HW1 4795   6.893  10.422   9.431 -0.1286 -0.5858 -0.5030
64827SOL    HW2 4796   6.800  10.320   9.492 -0.8431 -1.5437 -3.0724
64828SOL     OW 4797   5.812   8.155  10.933  0.7038 -0.2140 -0.0126
64828SOL    HW1 4798   5.804   8.250  10.926 -1.5085 -0.3785 -0.5345
64828SOL    HW2 4799   5.831   8.125  10.844 -2.4939 -0.4608 -0.7470
64829SOL     OW 4800   7.103   9.183  10.721 -0.1546  0.3753 -0.1193
64829SOL    HW1 4801   7.188   9.228  10.713  0.0604 -0.1837 -1.0506
64829SOL    HW2 4802   7.110   9.107  10.664 -0.6582 -0.6629  1.1547
64830SOL     OW 4803   2.622   3.461   8.942 -0.0901  0.2831  0.6008
64830SOL    HW1 4804   2.609   3.556   8.948 -2.8320  0.0045  0.3827
64830SOL    HW2 4805   2.572   3.435   8.864  0.6532 -1.3412  0.6244
64831SOL     OW 4806  11.859   2.803  11.208  0.2350 -0.1592  0.5108
64831SOL    HW1 4807  11.859   2.899  11.218 -0.6943  0.0454 -1.0786
64831SOL    HW2 4808  11.952   2.781  11.196  0.5419  0.4347  1.6313
64832SOL     OW 4809   3.254  11.616   5.247 -0.6618 -0.1416  0.0886
64832SOL    HW1 4810   3.259  11.646   5.156 -1.3046  1.9768  0.7010
64832SOL    HW2 4811   3.164  11.633   5.273 -0.8773 -2.0312  0.7406
64833SOL     OW 4812   4.509   4.751   5.627  0.0223 -0.7856  0.6425
64833SOL    HW1 4813   4.594   4.708   5.643 -0.1428 -1.5752 -0.5047
64833SOL    HW2 4814   4.516   4.834   5.673  1.8273 -0.3755 -0.2599
64834SOL     OW 4815   9.701   6.866   7.590 -0.2906  0.1402  0.0783
64834SOL    HW1 4816   9.649   6.939   7.556 -0.1809  0.8200  1.2939
64834SOL    HW2 4817   9.776   6.909   7.633 -0.4622 -0.6579  1.2005
64835SOL     OW 4818   1.038   3.415   7.235 -0.3063 -0.4197 -0.2755
64835SOL    HW1 4819   0.976   3.472   7.190 -1.3101 -0.2781  1.2142
64835SOL    HW2 4820   1.103   3.393   7.169 -1.5643 -0.0086 -1.6973
64836SOL     OW 4821   4.429   1.978   2.805  0.1683 -0.3460  0.0933
64836SOL    HW1 4822   4.463   1.892   2.830  1.3199  0.0761  0.0401
64836SOL    HW2 4823   4.500   2.018   2.755 -1.4131 -0.4894 -2.4773
64837SOL     OW 4824   7.330   3.437   4.312 -0.3146  0.0543 -0.0732
64837SOL    HW1 4825   7.347   3.379   4.387  1.3108  0.8925  0.2564
64837SOL    HW2 4826   7.344   3.525   4.347  1.1978  0.4258 -1.5213
64838SOL     OW 4827  12.155  12.240   2.666 -0.4655 -0.2172  0.1850
64838SOL    HW1 4828  12.193  12.270   2.749  0.8967  0.6670 -0.7228
64838SOL    HW2 4829  12.086  12.180   2.692  1.4998 -1.8747  1.9364
64839SOL     OW 4830   5.641   3.154   6.016  0.2954 -0.6963 -0.3745
64839SOL    HW1 4831   5.651   3.067   6.053 -1.1018  0.2933  2.6172
64839SOL    HW2 4832   5.556   3.184   6.047  1.5074  2.4362  0.3192
64840SOL     OW 4833   9.820   5.901   1.398  0.1631  0.0309  0.3801
64840SOL    HW1 4834   9.875   5.836   1.355 -0.3024 -0.5805  0.6808
64840SOL    HW2 4835   9.738   5.854   1.416  0.4638  0.1231  2.2551
64841SOL     OW 4836   5.323  11.086   0.341 -0.1557  0.3590 -0.6034
64841SOL    HW1 4837   5.391  11.041   0.290 -0.9070 -0.3286 -1.0169
64841SOL    HW2 4838   5.310  11.030   0.417  0.6814  1.1843  0.1781
64842SOL     OW 4839   6.785   0.591   0.540  0.3674 -0.2689 -0.0786
64842SOL    HW1 4840   6.853   0.629   0.596  0.7712  0.0368 -0.7576
64842SOL    HW2 4841   6.834   0.546   0.471 -0.1166 -0.0903 -0.5429
64843SOL     OW 4842   8.618  12.923   4.728 -0.3244 -0.2987  0.1522
64843SOL    HW1 4843   8.542  12.873   4.698 -1.5815  0.7592  1.4636
64843SOL    HW2 4844   8.590  12.961   4.811  0.4753  2.7706 -0.8716
64844SOL     OW 4845  12.118   6.702   7.531  0.3146 -0.2800  0.2377
64844SOL    HW1 4846  12.032   6.669   7.506  1.0616 -1.1533 -1.3241
64844SOL    HW2 4847  12.171   6.623   7.543  1.2116  0.2697 -0.0113
64845SOL     OW 4848  11.900   5.133  10.003 -0.1079 -0.4770 -0.1497
64845SOL    HW1 4849  11.956   5.188  10.058 -0.6573 -0.3650  0.3021
64845SOL    HW2 4850  11.835   5.097  10.062  0.0863 -1.4275 -0.4906
64846SOL     OW 4851   1.808   8.506   1.233 -0.1064 -0.2341 -0.9569
64846SOL    HW1 4852   1.775   8.555   1.308  0.1426 -1.4069 -0.0532
64846SOL    HW2 4853   1.826   8.573   1.166 -0.0489  0.8581  0.1245
64847SOL     OW 4854   0.287   8.558  10.362 -0.3154  0.2600  0.5326
64847SOL    HW1 4855   0.354   8.529  10.300 -0.4453 -0.5384  0.7662
64847SOL    HW2 4856   0.209   8.507  10.340 -0.4108  0.0906  1.2402
64848SOL     OW 4857   2.532   8.938   8.144 -0.0967 -0.5949  0.1317
64848SOL    HW1 4858   2.586   9.016   8.157  0.7433 -0.8531 -1.5635
64848SOL    HW2 4859   2.589   8.864   8.165 -0.3889 -0.8141  0.1684
64849SOL     OW 4860   4.894   2.974   8.075 -0.3226  0.4518  0.8369
64849SOL    HW1 4861   4.920   2.949   7.987  0.5473  1.8578  0.6654
64849SOL    HW2 4862   4.800   2.956   8.079 -0.6016  1.4110 -0.7703
64850SOL     OW 4863   5.901   9.803   8.904  0.0475 -0.1331  0.2221
64850SOL    HW1 4864   5.929   9.742   8.835 -0.4532 -0.2031  0.0815
64850SOL    HW2 4865   5.806   9.796   8.905  0.0393  0.0338  0.7726
64851SOL     OW 4866  12.711  10.041   8.471 -0.8556  0.0431  0.2261
64851SOL    HW1 4867  12.654  10.117   8.456  0.9469  1.6047  0.8862
64851SOL    HW2 4868  12.717  10.034   8.566 -0.6464 -0.6598  0.1624
64852SOL     OW 4869   6.851   0.690   7.746  0.1030  0.1877 -0.9618
64852SOL    HW1 4870   6.896   0.617   7.791 -0.0351  0.1359 -0.9063
64852SOL    HW2 4871   6.919   0.757   7.736 -0.5627  1.5769  2.2707
64853SOL     OW 4872   8.105   3.402   8.030 -0.0895 -0.9874  0.0873
64853SOL    HW1 4873   8.131   3.359   7.948  1.2522 -2.9583  1.4473
64853SOL    HW2 4874   8.039   3.345   8.067 -0.5786 -0.1895  0.4680
64854SOL     OW 4875  10.132  11.857   2.601 -0.1495  0.2427 -0.4990
64854SOL    HW1 4876  10.062  11.837   2.539 -1.1133  0.3148  0.5356
64854SOL    HW2 4877  10.185  11.778   2.603 -0.7137 -0.1499 -0.6298
64855SOL     OW 4878  10.986   2.052   7.714  0.2734 -0.3696 -0.3237
64855SOL    HW1 4879  10.983   2.132   7.765  1.8057  0.0624 -0.8700
64855SOL    HW2 4880  10.896   2.017   7.718 -0.1300  0.7554  0.8571
64856SOL     OW 4881   3.330   4.463   6.850  0.3383 -0.3409  0.1917
64856SOL    HW1 4882   3.252   4.435   6.898  0.6297 -0.6687  0.4858
64856SOL    HW2 4883   3.403   4.437   6.906  0.6257  1.5744  0.7638
64857SOL     OW 4884   2.186   5.270   1.839  0.4504  0.0374 -0.3572
64857SOL    HW1 4885   2.107   5.289   1.888  1.7616  1.1488  1.4594
64857SOL    HW2 4886   2.211   5.353   1.799  0.0550 -0.5870 -1.9644
64858SOL     OW 4887   2.542   5.159  12.235 -0.7679 -0.5171  0.2599
64858SOL    HW1 4888   2.568   5.161  12.143 -1.1524 -1.5693  0.1112
64858SOL    HW2 4889   2.619   5.188  12.283  0.5184 -2.8970 -0.2175
64859SOL     OW 4890  12.362  10.239   7.410  0.1366 -0.5853  0.3366
64859SOL    HW1 4891  12.374  10.333   7.424  2.0183 -1.0363  2.2045
64859SOL    HW2 4892  12.298  10.234   7.339  0.1252  2.0929  0.0409
64860SOL     OW 4893   6.565  12.872   2.040 -0.2196  0.4052 -0.4634
64860SOL    HW1 4894   6.618  12.928   2.095 -0.5059 -0.8710  1.2006
64860SOL    HW2 4895   6.536  12.928   1.968  0.9702  1.8635  0.1600
64861SOL     OW 4896   7.598   7.993   0.282 -0.2605  0.3377 -0.2008
64861SOL    HW1 4897   7.505   7.994   0.260 -0.1945 -1.5607 -0.7144
64861SOL    HW2 4898   7.642   7.965   0.202  0.7104  0.7171  0.1872
64862SOL     OW 4899   0.789   2.200  12.787 -0.4045 -0.3399  0.2244
64862SOL    HW1 4900   0.796   2.295  12.777 -1.4368 -0.1321  1.2657
64862SOL    HW2 4901   0.757   2.187  12.876  2.8305 -1.8228  1.3248
64863SOL     OW 4902   0.362   5.774   1.205  0.7819 -0.0068  0.1891
64863SOL    HW1 4903   0.281   5.726   1.190  0.5588  0.7144 -1.0587
64863SOL    HW2 4904   0.403   5.730   1.279  0.1581 -1.5403 -0.3458
64864SOL     OW 4905  11.247   1.819   0.209  0.0655 -0.3529 -0.1204
64864SOL    HW1 4906  11.258   1.914   0.205 -0.2431 -0.3471 -0.9253
64864SOL    HW2 4907  11.260   1.790   0.119  1.4630 -1.2178  0.3303
64865SOL     OW 4908   0.910   4.314  12.790 -0.6151  0.1777  0.2087
64865SOL    HW1 4909   0.857   4.353  12.720  0.7222  1.3322 -0.2046
64865SOL    HW2 4910   0.923   4.224  12.762  0.1625  0.6945 -1.2448
64866SOL     OW 4911  12.371   8.095   1.805  0.3967 -0.2110  0.0911
64866SOL    HW1 4912  12.385   8.037   1.881  1.6846  0.6856  0.5773
64866SOL    HW2 4913  12.443   8.158   1.810  0.0537  0.3398 -1.4548
64867SOL     OW 4914  10.532  11.573   0.962 -0.1629 -0.0904  0.2891
64867SOL    HW1 4915  10.574  11.597   1.045 -0.3492 -0.4995  0.5049
64867SOL    HW2 4916  10.553  11.480   0.950 -0.8856 -0.2629  0.3265
64868SOL     OW 4917   7.046   1.626   3.036 -0.0388  0.4834 -0.7633
64868SOL    HW1 4918   7.029   1.583   2.952  0.2241 -1.0853 -0.0521
64868SOL    HW2 4919   7.044   1.555   3.100  1.3064  1.4102  0.3726
64869SOL     OW 4920   1.234  11.824   5.910  0.1965  0.3033  0.6806
64869SOL    HW1 4921   1.176  11.754   5.939 -0.1880 -0.2703 -1.3229
64869SOL    HW2 4922   1.218  11.896   5.972 -0.5078 -0.8302  1.8686
64870SOL     OW 4923  10.523  10.681   8.197 -0.1438 -0.3340 -0.1215
64870SOL    HW1 4924  10.458  10.649   8.135 -0.2649 -1.0423  0.3597
64870SOL    HW2 4925  10.590  10.613   8.200  0.5388  0.3058 -0.4743
64871SOL     OW 4926   2.856  10.424   3.706  0.2368  0.1563  0.5015
64871SOL    HW1 4927   2.853  10.445   3.613  0.5967  1.0031  0.6734
64871SOL    HW2 4928   2.765  10.407   3.730 -0.0054  1.0371  0.2335
64872SOL     OW 4929   9.948   7.446   9.023 -0.1959  0.3985 -0.0264
64872SOL    HW1 4930  10.035   7.480   9.003  0.3318 -0.3891  0.8161
64872SOL    HW2 4931   9.942   7.364   8.975  0.7027 -1.0142  2.1268
64873SOL     OW 4932   8.742   7.500   2.983 -0.6600  0.0371  0.5070
64873SOL    HW1 4933   8.672   7.537   2.928  1.1295  4.0511  0.5494
64873SOL    HW2 4934   8.817   7.492   2.923  0.0332  0.0353  1.3620
64874SOL     OW 4935   2.375   5.165   1.017 -0.0876  0.2798  0.0491
64874SOL    HW1 4936   2.295   5.161   0.965  0.8336  0.3719 -1.4265
64874SOL    HW2 4937   2.358   5.108   1.092 -0.5542 -1.9273 -1.6506
64875SOL     OW 4938   9.314   5.554   1.158  0.1027  0.0653  0.4792
64875SOL    HW1 4939   9.345   5.644   1.168  0.1778  0.2480 -1.0583
64875SOL    HW2 4940   9.219   5.561   1.159  0.0281 -0.2536  3.2843
64876SOL     OW 4941  12.325   6.535   9.594  0.1312  0.0789  0.0189
64876SOL    HW1 4942  12.244   6.583   9.608  0.0539 -0.5305  1.9946
64876SOL    HW2 4943  12.322   6.462   9.656  2.1360 -0.0235  0.0872
64877SOL     OW 4944  10.582   0.198  11.487  0.6834  0.0003  0.6457
64877SOL    HW1 4945  10.676   0.182  11.488  0.9516  1.4136  0.0757
64877SOL    HW2 4946  10.571   0.278  11.539 -0.1534  0.0632  0.3776
64878SOL     OW 4947   9.897   0.542   7.958  0.3770 -0.2174 -0.1394
64878SOL    HW1 4948   9.967   0.496   8.005  0.6656  1.2557  0.9555
64878SOL    HW2 4949   9.819   0.528   8.011  0.5820  0.9577  0.5194
64879SOL     OW 4950  10.140   7.252   6.653 -0.3203  0.1801  0.1208
64879SOL    HW1 4951  10.161   7.188   6.585 -1.3929  1.5468 -1.6027
64879SOL    HW2 4952  10.102   7.325   6.605 -1.8565  0.9009  2.2967
64880SOL     OW 4953   4.680   4.747   3.721 -0.0838 -0.0385 -0.2376
64880SOL    HW1 4954   4.654   4.775   3.809  0.8173  0.2825 -0.0635
64880SOL    HW2 4955   4.696   4.653   3.729  2.6163  0.4029  0.6407
64881SOL     OW 4956   1.126   3.808   9.635 -0.1959 -0.0035 -0.3432
64881SOL    HW1 4957   1.188   3.739   9.613  0.0356  0.1468 -0.1660
64881SOL    HW2 4958   1.043   3.762   9.649  0.5149 -0.6105  2.4310
64882SOL     OW 4959  12.083   5.663   7.842 -0.3563  0.0928 -0.0513
64882SOL    HW1 4960  12.142   5.640   7.914  0.4645 -0.1702 -0.7957
64882SOL    HW2 4961  12.003   5.614   7.860 -0.1303 -0.0296  0.6430
64883SOL     OW 4962   9.202   1.724   2.687  0.5563  0.1898  0.1629
64883SOL    HW1 4963   9.240   1.687   2.607 -0.1810  0.1275 -0.1735
64883SOL    HW2 4964   9.190   1.648   2.745 -1.3398 -0.2309 -0.6825
64884SOL     OW 4965   1.122   5.142   2.255 -0.2625 -0.8543 -0.8758
64884SOL    HW1 4966   1.049   5.203   2.241  0.9968  0.0800 -4.3617
64884SOL    HW2 4967   1.083   5.056   2.238 -1.4001 -0.8924  1.4065
64885SOL     OW 4968  10.214  11.358  10.803  0.3980 -0.6919 -0.0671
64885SOL    HW1 4969  10.125  11.388  10.823  0.1981 -1.3624  0.0804
64885SOL    HW2 4970  10.261  11.368  10.886  0.1012 -1.5841  0.2217
64886SOL     OW 4971   4.670  12.722   3.598  0.3918  0.0173 -0.5891
64886SOL    HW1 4972   4.721  12.647   3.629 -2.8386 -2.4542 -0.6592
64886SOL    HW2 4973   4.643  12.767   3.678  0.8426  0.0208 -0.4362
64887SOL     OW 4974   4.153   4.582  11.799 -0.4332  0.1333 -0.2487
64887SOL    HW1 4975   4.186   4.517  11.861 -0.1624 -0.3114 -0.8541
64887SOL    HW2 4976   4.060   4.561  11.789 -0.6139  0.5490  0.4116
64888SOL     OW 4977   9.823   6.965   3.325 -0.1196 -0.7014 -0.3257
64888SOL    HW1 4978   9.822   6.914   3.407 -1.5489 -1.8493 -1.0151
64888SOL    HW2 4979   9.758   7.033   3.339  0.0839 -0.5147 -0.2852
64889SOL     OW 4980  10.217   0.306   2.951 -0.6067 -0.8714  0.0262
64889SOL    HW1 4981  10.213   0.213   2.976  0.3684 -1.3404 -1.4641
64889SOL    HW2 4982  10.201   0.307   2.857  0.2266  0.4009 -0.1269
64890SOL     OW 4983  11.401   3.482   7.044  0.7744 -0.0835 -0.1573
64890SOL    HW1 4984  11.419   3.389   7.059 -3.0275 -1.2704 -1.5985
64890SOL    HW2 4985  11.431   3.499   6.955  0.6067 -0.2515 -0.2480
64891SOL     OW 4986   2.275  12.545   3.537 -0.0010 -0.4168  0.2364
64891SOL    HW1 4987   2.246  12.593   3.615  2.2882 -0.0610  0.9521
64891SOL    HW2 4988   2.370  12.557   3.536  0.1233 -1.1640 -2.1430
64892SOL     OW 4989   0.910   6.566   7.576 -0.4852  0.3251 -0.1618
64892SOL    HW1 4990   0.942   6.656   7.567 -0.2596  0.1688 -1.0043
64892SOL    HW2 4991   0.928   6.543   7.667  1.1749  0.4913 -0.4287
64893SOL     OW 4992   2.015  10.103   0.522 -0.5260  0.0295 -0.8067
64893SOL    HW1 4993   2.006  10.198   0.520 -0.5220  0.0144 -2.4584
64893SOL    HW2 4994   2.100  10.088   0.563 -0.5790  0.7270 -0.4233
64894SOL     OW 4995   7.018   1.419   0.189 -0.3495 -0.0916  0.1765
64894SOL    HW1 4996   7.110   1.438   0.209 -0.5400  1.2760 -0.2141
64894SOL    HW2 4997   7.003   1.456   0.102 -1.3109 -0.1713  0.2940
64895SOL     OW 4998   6.977   4.508   8.417  0.3771 -0.4901  0.5951
64895SOL    HW1 4999   6.951   4.598   8.437  1.3527  1.2401 -4.4771
64895SOL    HW2 5000   7.073   4.509   8.421  0.3896 -1.5481  1.0204
64896SOL     OW 5001   9.231   7.564   8.845  0.1153  0.2785 -0.2575
64896SOL    HW1 5002   9.277   7.499   8.791 -0.6913  0.4126 -1.1270
64896SOL    HW2 5003   9.139   7.553   8.823 -0.1378  0.9917  0.3935
64897SOL     OW 5004  11.928   1.300   4.163  0.4136  0.5814 -0.0434
64897SOL    HW1 5005  11.887   1.216   4.184  0.6365 -0.4040 -3.1572
64897SOL    HW2 5006  11.980   1.321   4.241  2.3068 -3.4063  0.0064
64898SOL     OW 5007   6.521  10.663  11.430  0.2420 -0.0435  0.2627
64898SOL    HW1 5008   6.599  10.679  11.378 -0.3380  0.9121 -0.3484
64898SOL    HW2 5009   6.456  10.633  11.367  0.4624 -2.1675  0.9665
64899SOL     OW 5010   5.252  10.212   7.075 -0.1152  0.0472  1.1364
64899SOL    HW1 5011   5.325  10.210   7.012 -0.5660  3.0632  0.3394
64899SOL    HW2 5012   5.295  10.221   7.160  0.4831  0.2564  0.8209
64900SOL     OW 5013   4.769   1.537   1.213 -0.0538  0.5987 -0.3007
64900SOL    HW1 5014   4.816   1.473   1.266 -0.4631  0.7818  0.2923
64900SOL    HW2 5015   4.679   1.504   1.210 -0.4398  1.4989  0.6182
64901SOL     OW 5016   6.354   2.714   7.450  0.1556 -0.0644 -0.0186
64901SOL    HW1 5017   6.444   2.741   7.467  0.0986 -0.6871  1.3834
64901SOL    HW2 5018   6.352   2.621   7.472 -1.1503  0.2427  1.3217
64902SOL     OW 5019   0.440  12.261   6.117 -0.1922 -0.3864  0.4916
64902SOL    HW1 5020   0.417  12.247   6.025  0.1481  0.3134  0.2872
64902SOL    HW2 5021   0.506  12.194   6.135  1.2329  0.6943 -0.3876
64903SOL     OW 5022   2.152   7.409   9.835 -0.1211  0.2511  0.6212
64903SOL    HW1 5023   2.122   7.478   9.777 -1.2291 -1.9121 -1.5756
64903SOL    HW2 5024   2.073   7.371   9.872  0.3011 -0.9439  0.3755
64904SOL     OW 5025   4.169  10.093   0.558  0.1896 -0.2784 -0.8073
64904SOL    HW1 5026   4.207  10.011   0.588  3.5165  1.4432  0.1642
64904SOL    HW2 5027   4.220  10.161   0.603 -1.6483  2.3477 -2.4229
64905SOL     OW 5028   5.735   5.792   6.532  0.6280  0.4480 -0.1474
64905SOL    HW1 5029   5.798   5.829   6.470  1.2252 -2.3157 -1.3854
64905SOL    HW2 5030   5.671   5.746   6.477 -0.9028  0.8836  1.1942
64906SOL     OW 5031  11.512   6.932   1.594 -0.0663 -0.2123 -0.1573
64906SOL    HW1 5032  11.553   7.012   1.625 -0.1747  1.1279 -3.1288
64906SOL    HW2 5033  11.428   6.929   1.640  0.7629  0.2510  1.4691
64907SOL     OW 5034   5.239   2.595  10.384  0.1645 -0.0565  0.4676
64907SOL    HW1 5035   5.260   2.502  10.375  0.9772  0.2015 -0.4367
64907SOL    HW2 5036   5.303   2.628  10.448 -0.4113 -0.2062  1.1270
64908SOL     OW 5037   3.974   9.487   2.848 -0.2227  0.0113 -0.9447
64908SOL    HW1 5038   4.059   9.511   2.811  0.0598 -0.0625 -0.3455
64908SOL    HW2 5039   3.911   9.538   2.796  0.4638  3.9104  1.6169
64909SOL     OW 5040   4.344   5.858   8.081  0.3718 -0.2961 -0.0208
64909SOL    HW1 5041   4.361   5.816   8.165 -0.7843  0.4914  0.6289
64909SOL    HW2 5042   4.292   5.795   8.032  0.6535 -0.5683  0.0279
64910SOL     OW 5043   7.387   1.873   7.541 -0.4744  0.2485 -0.2524
64910SOL    HW1 5044   7.297   1.892   7.515 -0.5373  1.4170  0.7198
64910SOL    HW2 5045   7.381   1.848   7.633  0.2597  0.9564 -0.0045
64911SOL     OW 5046   1.151   0.010   8.331  0.6093 -1.1137  0.2342
64911SOL    HW1 5047   1.074  -0.005   8.386 -2.0005  0.8908 -2.5480
64911SOL    HW2 5048   1.190   0.090   8.366 -0.4973 -0.3549 -0.1889
64912SOL     OW 5049  11.125   2.521   7.769 -0.3296 -0.1250  0.7708
64912SOL    HW1 5050  11.051   2.498   7.826 -0.2889  1.5824  1.5690
64912SOL    HW2 5051  11.103   2.607   7.734  1.1860  0.3380  0.8660
64913SOL     OW 5052  11.005   5.154   6.646  0.3576 -0.1261  0.0066
64913SOL    HW1 5053  10.925   5.192   6.682 -0.3453 -0.1879 -1.3869
64913SOL    HW2 5054  11.000   5.061   6.669  0.6034  0.0840  0.9069
64914SOL     OW 5055   0.533   5.065   1.627  0.2970  0.0265  0.7679
64914SOL    HW1 5056   0.498   5.004   1.691 -1.7984 -0.7517 -0.9945
64914SOL    HW2 5057   0.464   5.073   1.561 -1.0959  6.6601  2.2594
64915SOL     OW 5058   0.502  12.883   2.146 -0.0254 -0.6980  0.2059
64915SOL    HW1 5059   0.588  12.859   2.183 -0.2031 -1.0270  0.4085
64915SOL    HW2 5060   0.477  12.961   2.195 -0.1624 -1.0126  0.6450
64916SOL     OW 5061   3.730   5.466   9.395 -0.1166 -0.1584  0.1131
64916SOL    HW1 5062   3.667   5.539   9.396 -0.9538 -0.8727  0.4849
64916SOL    HW2 5063   3.758   5.457   9.486 -0.1423 -0.4214  0.0927
64917SOL     OW 5064   0.207   8.204   1.897  0.1469  0.3169 -0.2398
64917SOL    HW1 5065   0.140   8.135   1.894  0.7984 -0.3072 -2.1731
64917SOL    HW2 5066   0.158   8.286   1.892 -0.5496 -0.0755  0.0570
64918SOL     OW 5067   4.433   4.570   8.507 -0.2433 -0.4162  0.3008
64918SOL    HW1 5068   4.450   4.478   8.490  0.1712 -0.2905 -0.0025
64918SOL    HW2 5069   4.511   4.615   8.474  0.1077 -0.0545  1.5592
64919SOL     OW 5070  10.158   6.286   6.370 -0.0126  0.7732 -0.3876
64919SOL    HW1 5071  10.203   6.203   6.383  2.0790  1.8850 -0.1391
64919SOL    HW2 5072  10.070   6.261   6.341 -0.3686 -1.5408  2.2741
64920SOL     OW 5073  10.437   5.534   8.634 -0.0799 -0.6072  0.7817
64920SOL    HW1 5074  10.351   5.564   8.604 -0.2012 -0.1897  1.5204
64920SOL    HW2 5075  10.474   5.489   8.558 -0.2968  0.5747 -0.0494
64921SOL     OW 5076   7.534   8.451   9.501 -0.4099  0.1054 -0.3879
64921SOL    HW1 5077   7.605   8.510   9.477  1.7058 -1.5597  1.3035
64921SOL    HW2 5078   7.552   8.370   9.453 -0.8858 -0.4989  0.4192
64922SOL     OW 5079   6.607   0.936  10.518 -0.2500  0.0222 -0.1522
64922SOL    HW1 5080   6.671   0.954  10.449 -1.8270  1.4770 -1.3257
64922SOL    HW2 5081   6.646   0.975  10.596  1.2244 -0.9674 -0.3540
64923SOL     OW 5082  12.374   5.469   1.749 -0.3190  0.4833  0.2794
64923SOL    HW1 5083  12.345   5.540   1.692 -0.2291 -0.9275 -1.6246
64923SOL    HW2 5084  12.302   5.458   1.812 -0.3055  2.2526  0.6536
64924SOL     OW 5085  10.490  12.756   0.733 -0.2329  0.3446  0.0953
64924SOL    HW1 5086  10.485  12.719   0.822 -2.0644 -1.1127 -0.5317
64924SOL    HW2 5087  10.520  12.683   0.679 -0.2723  0.8736 -0.6469
64925SOL     OW 5088   6.355  12.835   4.296 -0.1749  0.1517 -1.0120
64925SOL    HW1 5089   6.269  12.826   4.337 -0.3844  0.8691 -1.2768
64925SOL    HW2 5090   6.408  12.883   4.360 -0.2979  0.6546 -1.2733
64926SOL     OW 5091   4.828   9.486   8.764 -0.7503  0.1631 -0.5750
64926SOL    HW1 5092   4.897   9.513   8.824  1.1392 -1.4402 -1.9114
64926SOL    HW2 5093   4.844   9.535   8.684 -2.0798  0.8563 -0.4466
64927SOL     OW 5094   3.537   9.547   3.586 -0.0886 -0.4753  0.6313
64927SOL    HW1 5095   3.627   9.571   3.606  0.7714 -2.4116 -0.5871
64927SOL    HW2 5096   3.541   9.453   3.566 -1.7324  0.0194 -2.7318
64928SOL     OW 5097  10.451  12.056   2.322  0.2276 -0.0539  0.0746
64928SOL    HW1 5098  10.463  12.114   2.247 -1.3272  1.8100  1.1604
64928SOL    HW2 5099  10.531  12.066   2.373  1.0138 -0.8282 -0.9544
64929SOL     OW 5100   1.336   7.559  10.714  0.4524 -0.0469  0.4786
64929SOL    HW1 5101   1.325   7.509  10.795  2.1848  0.2731  0.9454
64929SOL    HW2 5102   1.393   7.505  10.659  0.0603  0.1648 -0.1445
64930SOL     OW 5103  11.951   4.394   3.879  0.5383  0.3693 -0.9083
64930SOL    HW1 5104  11.860   4.426   3.872  0.1975 -0.3613  0.0572
64930SOL    HW2 5105  12.003   4.473   3.895 -0.0449  0.6886 -0.5522
64931SOL     OW 5106   3.050   6.926   5.262  0.0093 -0.0770 -0.7070
64931SOL    HW1 5107   3.020   6.865   5.195  1.1837  0.4781 -1.7872
64931SOL    HW2 5108   3.109   6.985   5.215 -0.3610  1.2962  0.5124
64932SOL     OW 5109  10.163   4.608   1.497  0.2768  0.0366 -0.3450
64932SOL    HW1 5110  10.250   4.646   1.482  0.4847 -0.5030 -0.5535
64932SOL    HW2 5111  10.175   4.550   1.573  0.5878 -1.5421 -1.5553
64933SOL     OW 5112   8.289   9.078   4.746 -0.3479  0.3317 -0.3211
64933SOL    HW1 5113   8.247   9.161   4.769  0.6435  0.4900  1.1042
64933SOL    HW2 5114   8.325   9.092   4.659  2.6881  2.6766  1.0977
64934SOL     OW 5115   4.392   9.743  12.370 -0.0556 -0.4165  0.3462
64934SOL    HW1 5116   4.320   9.690  12.337 -1.3505  0.9202  0.8894
64934SOL    HW2 5117   4.430   9.691  12.442  0.3069 -1.6387 -0.7017
64935SOL     OW 5118   4.441   9.165   9.978 -0.0260 -0.0713  0.2653
64935SOL    HW1 5119   4.370   9.114   9.940 -0.5752  1.1895 -0.4790
64935SOL    HW2 5120   4.512   9.161   9.914 -0.5515  1.1517 -0.4199
64936SOL     OW 5121   4.506   2.750   4.133  0.1151 -0.1811  0.9236
64936SOL    HW1 5122   4.431   2.764   4.192  0.0540 -1.5404  1.2028
64936SOL    HW2 5123   4.474   2.778   4.047 -0.3425  0.2694  1.2322
64937SOL     OW 5124   9.365   0.314   7.374  0.1493  0.3755  0.2073
64937SOL    HW1 5125   9.351   0.268   7.291 -0.9835 -0.2918  0.7403
64937SOL    HW2 5126   9.432   0.379   7.354  2.4612 -2.0078 -0.4171
64938SOL     OW 5127   2.318   8.830   2.053 -0.2309 -0.1021  0.2065
64938SOL    HW1 5128   2.350   8.892   2.119 -1.7298  1.4492 -0.4417
64938SOL    HW2 5129   2.264   8.769   2.102 -1.4916  1.1532  0.4461
64939SOL     OW 5130   9.987  10.934  10.869  0.5130 -0.2566  0.5480
64939SOL    HW1 5131   9.970  10.991  10.794  3.1417 -0.9664 -0.7010
64939SOL    HW2 5132  10.044  10.986  10.926 -0.9014  0.0160  1.7845
64940SOL     OW 5133   7.605  11.674   0.250  0.0241  0.0700  0.5186
64940SOL    HW1 5134   7.669  11.680   0.179  2.2386  1.2094  2.4596
64940SOL    HW2 5135   7.554  11.755   0.244  0.4444  0.3316  0.4565
64941SOL     OW 5136   2.856   0.135   2.799 -0.1073  0.1940  0.3944
64941SOL    HW1 5137   2.791   0.186   2.750 -1.1228 -0.4098  1.0705
64941SOL    HW2 5138   2.922   0.111   2.734 -1.0695 -0.0200 -0.5244
64942SOL     OW 5139   9.296   1.917   0.030  0.0706 -0.0768  0.1196
64942SOL    HW1 5140   9.241   1.903   0.106  0.4638 -0.8845  0.2606
64942SOL    HW2 5141   9.258   1.994  -0.013  1.5425  2.2661  2.6921
64943SOL     OW 5142   5.232  10.681   5.760 -0.4434 -0.2944  0.8772
64943SOL    HW1 5143   5.252  10.591   5.785  0.6423  0.4064  2.7809
64943SOL    HW2 5144   5.226  10.728   5.844  0.0446  1.6033 -0.0960
64944SOL     OW 5145   5.138  12.975  10.227 -0.4138 -0.3026  0.1993
64944SOL    HW1 5146   5.224  13.005  10.257 -0.3510  1.0874 -1.2157
64944SOL    HW2 5147   5.142  12.880  10.234  1.1824 -0.2567  0.2980
64945SOL     OW 5148  10.354   5.723   1.085 -0.1244 -0.2823 -0.2354
64945SOL    HW1 5149  10.375   5.805   1.130  1.8922  0.1797 -1.8698
64945SOL    HW2 5150  10.261   5.709   1.102 -1.3423  3.8856 -2.1645
64946SOL     OW 5151   9.719  12.597  11.009  0.1965 -0.2210  0.2711
64946SOL    HW1 5152   9.629  12.594  10.977  0.0017 -0.1974  0.7945
64946SOL    HW2 5153   9.758  12.514  10.982 -0.1337 -0.4404  0.4653
64947SOL     OW 5154   2.079   0.025  12.758  1.0150 -0.0313 -0.5163
64947SOL    HW1 5155   2.130   0.046  12.836 -0.8800  0.6304  0.6339
64947SOL    HW2 5156   2.095   0.097  12.698 -1.2144  2.1675  1.2559
64948SOL     OW 5157   1.418   2.799  10.608  0.5904  0.2549  0.0195
64948SOL    HW1 5158   1.332   2.763  10.631 -0.5129  1.6613 -1.6454
64948SOL    HW2 5159   1.463   2.809  10.692  0.1840 -2.9045  0.7361
64949SOL     OW 5160   0.142  11.745   0.646 -0.3359 -0.0541 -0.0456
64949SOL    HW1 5161   0.191  11.823   0.670  3.0739 -1.6060 -1.2781
64949SOL    HW2 5162   0.107  11.765   0.559 -0.8189  0.6414  0.3040
64950SOL     OW 5163  10.468   2.017  11.935  0.6339  0.1641 -0.0487
64950SOL    HW1 5164  10.477   2.078  11.862 -1.4111  0.4214 -0.1413
64950SOL    HW2 5165  10.374   2.018  11.955  0.9113 -1.2026  1.4629
64951SOL     OW 5166  11.468  10.746   6.830  0.3978  0.0870  0.6013
64951SOL    HW1 5167  11.522  10.762   6.907  0.9170  1.2505  0.0143
64951SOL    HW2 5168  11.530  10.744   6.757 -0.1174 -0.7445  0.1747
64952SOL     OW 5169  10.003  11.591   5.632 -0.2732  0.0299  0.3339
64952SOL    HW1 5170   9.975  11.536   5.705 -0.9272  0.9805  0.8182
64952SOL    HW2 5171  10.085  11.631   5.661 -1.9242  2.6060  1.7588
64953SOL     OW 5172   3.334  11.006   1.469  0.2384 -0.4669  0.4550
64953SOL    HW1 5173   3.310  11.038   1.382 -1.4030 -1.8252  0.3531
64953SOL    HW2 5174   3.314  11.079   1.528 -1.7030 -0.6215  0.0371
64954SOL     OW 5175   2.163   8.413  11.642 -0.9014  1.1786 -0.2265
64954SOL    HW1 5176   2.213   8.421  11.723 -0.3827  2.2372 -0.6244
64954SOL    HW2 5177   2.229   8.419  11.573 -1.3819  0.6921 -0.7302
64955SOL     OW 5178  10.512  10.686   6.025 -0.0532  0.3831 -0.5183
64955SOL    HW1 5179  10.441  10.628   5.997 -0.3766  0.1830  0.6611
64955SOL    HW2 5180  10.509  10.684   6.121  0.1923  2.0284 -0.4415
64956SOL     OW 5181   2.649   8.095   4.925 -0.2409 -0.0481  0.5211
64956SOL    HW1 5182   2.639   8.078   5.019  1.6408 -0.6061  0.6712
64956SOL    HW2 5183   2.560   8.092   4.890 -0.8257 -1.7718  1.9892
64957SOL     OW 5184   4.178   0.049   8.190  0.0186  0.1661  0.1326
64957SOL    HW1 5185   4.258  -0.003   8.175  0.0655  0.4216 -0.5350
64957SOL    HW2 5186   4.189   0.126   8.135 -0.2357  0.6992  0.8146
64958SOL     OW 5187   0.488   7.099   2.598  0.9710  0.0068 -0.6275
64958SOL    HW1 5188   0.488   7.004   2.585 -2.4441  0.0957 -2.5331
64958SOL    HW2 5189   0.514   7.135   2.512 -0.4705  0.7252 -0.8002
64959SOL     OW 5190   8.989   4.389   7.878  0.6928  0.0221  0.2127
64959SOL    HW1 5191   8.903   4.429   7.876  0.4749 -0.4220  0.5504
64959SOL    HW2 5192   9.050   4.462   7.861  0.2096  0.1688 -0.9496
64960SOL     OW 5193   4.972   1.662  12.708  0.1501 -0.2461  0.4135
64960SOL    HW1 5194   4.961   1.569  12.688  0.1865 -0.4453  1.2994
64960SOL    HW2 5195   5.052   1.666  12.760 -0.3372  0.1710  1.1384
64961SOL     OW 5196   9.631  12.191  11.411  0.0771  0.6897  0.1305
64961SOL    HW1 5197   9.544  12.227  11.431 -1.1315 -0.9152 -1.8174
64961SOL    HW2 5198   9.685  12.268  11.394 -1.5316  1.6957 -0.6968
64962SOL     OW 5199  12.162  10.814   0.611 -0.2034 -0.0467 -0.2211
64962SOL    HW1 5200  12.122  10.869   0.679 -0.2632  0.5846 -0.7581
64962SOL    HW2 5201  12.247  10.854   0.594 -0.1666 -0.2348 -0.4822
64963SOL     OW 5202   1.976   2.118   1.216  0.0019 -0.4129  0.0621
64963SOL    HW1 5203   1.931   2.201   1.232  0.3404 -0.1511 -0.3173
64963SOL    HW2 5204   1.963   2.102   1.123  1.6715  0.2728 -0.3381
64964SOL     OW 5205   2.813   2.553   5.023  0.0449  0.1192 -0.4341
64964SOL    HW1 5206   2.802   2.559   5.118 -0.2434 -1.8059 -0.3003
64964SOL    HW2 5207   2.777   2.467   5.000 -1.8629  1.3962 -2.5979
64965SOL     OW 5208  10.862   1.597  12.417  0.2119 -0.0132 -0.2154
64965SOL    HW1 5209  10.820   1.678  12.444  1.7828  0.9628 -0.5721
64965SOL    HW2 5210  10.903   1.617  12.333 -0.3673 -1.5273 -0.8993
64966SOL     OW 5211   3.471   5.934   5.733  0.3113 -0.2524 -0.4665
64966SOL    HW1 5212   3.525   5.892   5.666  1.6445  1.2233 -0.4068
64966SOL    HW2 5213   3.531   5.946   5.808 -0.3851  0.4915 -0.0057
64967SOL     OW 5214   0.519   0.792  12.050 -0.6230  0.2370 -0.1366
64967SOL    HW1 5215   0.573   0.730  12.001  0.0191 -0.6838  1.6444
64967SOL    HW2 5216   0.429   0.764  12.034 -0.3307 -1.4984  0.9799
64968SOL     OW 5217   1.284  12.212   9.693  0.0718  0.1060 -0.3041
64968SOL    HW1 5218   1.233  12.251   9.764  1.0862  0.0557  0.4890
64968SOL    HW2 5219   1.236  12.234   9.613 -1.6928 -0.7786  0.4618
64969SOL     OW 5220   3.796  10.189   3.291  0.1314  0.1345  0.3228
64969SOL    HW1 5221   3.788  10.111   3.345  1.0078  0.7062  1.3145
64969SOL    HW2 5222   3.717  10.189   3.237 -0.3741 -0.8879  1.0312
64970SOL     OW 5223  10.978   7.871   3.632 -0.2386 -0.4838  0.0740
64970SOL    HW1 5224  10.887   7.841   3.633  0.2314 -2.0343  1.5521
64970SOL    HW2 5225  11.030   7.791   3.647  1.2774  0.5874  0.8025
64971SOL     OW 5226   9.339   1.676   8.101  0.3808  0.4367 -0.7867
64971SOL    HW1 5227   9.283   1.609   8.141 -1.2258  0.8559 -2.2297
64971SOL    HW2 5228   9.409   1.689   8.165  0.1167 -1.7653  0.0559
64972SOL     OW 5229  10.372   7.421  12.033 -0.6867  0.4911 -0.2942
64972SOL    HW1 5230  10.300   7.401  11.973 -0.2360 -0.8599 -0.4212
64972SOL    HW2 5231  10.441   7.456  11.977  0.8020 -3.3067 -1.1857
64973SOL     OW 5232   3.682  10.705   5.848 -0.6896 -0.2546 -0.9182
64973SOL    HW1 5233   3.693  10.648   5.925 -1.7468 -0.8810 -1.2033
64973SOL    HW2 5234   3.766  10.749   5.839  1.0478 -3.4632 -2.0164
64974SOL     OW 5235   1.265   6.004  11.453  0.1281 -0.7660 -0.3269
64974SOL    HW1 5236   1.274   5.987  11.359  1.3077 -3.1583  0.1219
64974SOL    HW2 5237   1.189   5.953  11.479 -0.0889 -0.2557  0.0479
64975SOL     OW 5238   4.063   4.710  12.879  0.3192  0.1987  0.5938
64975SOL    HW1 5239   4.112   4.628  12.883 -0.1400 -0.1230 -0.0571
64975SOL    HW2 5240   3.980   4.692  12.924  0.1501  0.2451  0.3105
64976SOL     OW 5241   7.860   9.992  10.991 -0.2470 -0.2564  0.3729
64976SOL    HW1 5242   7.773   9.952  10.988  0.1858 -1.1566 -2.3728
64976SOL    HW2 5243   7.845  10.085  10.972 -0.7019 -0.0987  1.4002
64977SOL     OW 5244   7.935   6.477   5.894  0.2590 -0.1439  0.1159
64977SOL    HW1 5245   7.993   6.531   5.840 -0.7927 -0.2250 -1.1365
64977SOL    HW2 5246   7.882   6.540   5.943  0.7870 -0.0732  0.6157
64978SOL     OW 5247   4.746   9.367   7.755 -0.2034 -0.2226  0.7914
64978SOL    HW1 5248   4.840   9.365   7.738 -0.3794 -3.7822 -0.7366
64978SOL    HW2 5249   4.717   9.450   7.719  2.0456 -0.1730 -1.1351
64979SOL     OW 5250   1.619   4.757   5.022 -0.0807 -0.8136 -0.2756
64979SOL    HW1 5251   1.610   4.839   5.071 -2.2370 -1.3778  0.3710
64979SOL    HW2 5252   1.666   4.698   5.082 -1.0010 -0.8996  0.3746
64980SOL     OW 5253   9.477  10.240   4.318 -0.1593  0.0611 -0.0394
64980SOL    HW1 5254   9.496  10.170   4.256 -2.0017 -0.1243 -0.4751
64980SOL    HW2 5255   9.515  10.210   4.401 -1.5922 -1.9028 -0.0140
64981SOL     OW 5256   1.644  11.921   9.120 -0.8504  0.1253 -0.1285
64981SOL    HW1 5257   1.620  11.912   9.212  1.5806  3.2097  1.0157
64981SOL    HW2 5258   1.724  11.869   9.112  0.3076  1.7742  0.2530
64982SOL     OW 5259   5.391   0.390   1.177 -0.0243  0.0886  0.2476
64982SOL    HW1 5260   5.455   0.459   1.163  0.6601 -0.5428  0.1855
64982SOL    HW2 5261   5.361   0.367   1.089  0.9791 -0.8178  0.1213
64983SOL     OW 5262   7.501  11.789  12.468 -0.0171  0.1041 -0.2197
64983SOL    HW1 5263   7.525  11.882  12.464 -2.4993  0.9021  1.0289
64983SOL    HW2 5264   7.406  11.790  12.482  0.0406 -2.6153  0.9225
64984SOL     OW 5265   2.493  12.181   9.495 -0.6087 -0.2777  0.2479
64984SOL    HW1 5266   2.462  12.090   9.495 -1.6304  0.0214 -1.3735
64984SOL    HW2 5267   2.523  12.196   9.585 -1.9447 -1.7050  0.9913
64985SOL     OW 5268   0.493   6.641   6.981  0.1851  0.2045  0.2094
64985SOL    HW1 5269   0.417   6.621   7.036 -1.7791  1.4848 -1.8772
64985SOL    HW2 5270   0.513   6.559   6.937 -0.6510  0.0886  0.0220
64986SOL     OW 5271  10.931   7.726  10.249  0.2249  0.0095  0.5297
64986SOL    HW1 5272  10.982   7.646  10.232 -0.0943  0.0305 -0.6029
64986SOL    HW2 5273  10.911   7.722  10.343  3.1573  0.4999  1.2833
64987SOL     OW 5274  12.065   2.110  12.602  0.1376  0.1307  0.2200
64987SOL    HW1 5275  12.149   2.149  12.579 -0.1764  1.0184  0.5128
64987SOL    HW2 5276  12.087   2.040  12.664  0.7243 -0.2363 -0.3927
64988SOL     OW 5277   1.270   0.437   6.890  0.3879  0.2658  0.4539
64988SOL    HW1 5278   1.258   0.468   6.800  0.1982 -0.2922  0.2790
64988SOL    HW2 5279   1.351   0.386   6.887 -1.1592 -2.3460 -0.1447
64989SOL     OW 5280   3.580   3.826   4.025  0.3772  0.5032  0.2166
64989SOL    HW1 5281   3.582   3.883   3.948 -0.4878 -0.2910 -0.4221
64989SOL    HW2 5282   3.499   3.848   4.070  0.2336  0.0700  0.1811
64990SOL     OW 5283  12.229   8.353   5.933 -0.4303 -0.4015 -0.4221
64990SOL    HW1 5284  12.212   8.296   5.858 -0.2715  0.4019 -1.0732
64990SOL    HW2 5285  12.183   8.311   6.006 -0.1519 -1.4702 -0.8425
64991SOL     OW 5286   8.031   7.627  10.452  0.0099  0.6256 -0.3779
64991SOL    HW1 5287   8.031   7.552  10.393  0.5028 -0.2482  0.6910
64991SOL    HW2 5288   8.071   7.698  10.402 -0.4836  0.1914 -1.4087
64992SOL     OW 5289   3.993   7.722   5.961 -0.2896  0.6038 -0.4070
64992SOL    HW1 5290   3.994   7.626   5.954  1.9799  0.6329 -1.3343
64992SOL    HW2 5291   4.075   7.750   5.919 -0.6286  2.9225  0.3431
64993SOL     OW 5292  12.675   2.356  12.447 -0.7569 -0.1824  0.2654
64993SOL    HW1 5293  12.666   2.384  12.538 -0.3894 -0.8298  0.5040
64993SOL    HW2 5294  12.644   2.265  12.446  1.6843 -1.0939  0.2984
64994SOL     OW 5295   9.369  11.539   4.073  0.4498  0.2360 -0.0879
64994SOL    HW1 5296   9.402  11.518   4.161 -2.2695 -1.1870  0.7022
64994SOL    HW2 5297   9.391  11.463   4.020  2.3540  1.2171 -0.8141
64995SOL     OW 5298   2.016   4.921   8.685  0.0985  0.0236 -0.1897
64995SOL    HW1 5299   1.941   4.874   8.647 -0.1395  0.3082 -0.0732
64995SOL    HW2 5300   1.977   4.991   8.736  0.3257 -1.4401  2.1378
64996SOL     OW 5301   9.947  12.385   4.367 -0.3564 -0.7821  0.4325
64996SOL    HW1 5302   9.915  12.474   4.384 -1.5492 -1.0191 -0.4214
64996SOL    HW2 5303   9.884  12.328   4.412 -0.7342 -1.2451 -0.6498
64997SOL     OW 5304   5.424   3.298   7.579  0.3657  0.1706 -0.8690
64997SOL    HW1 5305   5.483   3.324   7.508 -0.5239  2.2867 -0.8931
64997SOL    HW2 5306   5.340   3.281   7.536  0.4157 -0.8969 -0.5849
64998SOL     OW 5307   6.357   5.268   4.833 -0.2122 -0.1648 -0.3656
64998SOL    HW1 5308   6.348   5.337   4.899  0.3794 -0.4860  0.0626
64998SOL    HW2 5309   6.267   5.251   4.804 -0.6235 -0.7893  1.1594
64999SOL     OW 5310   8.391   8.780  12.847 -0.1477  0.5118  0.0261
64999SOL    HW1 5311   8.442   8.855  12.878  0.3320 -0.0469  0.5912
64999SOL    HW2 5312   8.315   8.778  12.905  0.1254  0.2161  0.3726
65000SOL     OW 5313  11.503   0.224   8.762  0.0690  0.7298 -0.8169
65000SOL    HW1 5314  11.429   0.176   8.726  0.3997 -1.2767  0.9825
65000SOL    HW2 5315  11.565   0.230   8.690 -0.4305 -0.6456 -1.3884
65001SOL     OW 5316   4.151   9.163   2.771 -0.0204 -0.1208 -0.3222
65001SOL    HW1 5317   4.143   9.092   2.834 -1.5638  0.0089 -0.3272
65001SOL    HW2 5318   4.100   9.235   2.810 -0.4293  0.1863 -1.3899
65002SOL     OW 5319   9.290   6.115   8.887  0.3240 -0.6084  0.4954
65002SOL    HW1 5320   9.270   6.102   8.979 -0.5369  0.3314  0.4572
65002SOL    HW2 5321   9.287   6.027   8.849 -1.8627 -0.7391  0.8811
65003SOL     OW 5322   5.793   5.535   6.884  0.0861 -0.6303  0.2358
65003SOL    HW1 5323   5.759   5.471   6.946 -1.3344 -0.2696 -0.1296
65003SOL    HW2 5324   5.872   5.495   6.847 -0.6451 -2.0534  0.1772
65004SOL     OW 5325  11.824   6.625   2.477  0.0421  0.2627 -0.3831
65004SOL    HW1 5326  11.890   6.674   2.428 -0.8766  2.5766  0.5214
65004SOL    HW2 5327  11.752   6.613   2.415  0.6607 -0.8882 -0.9069
65005SOL     OW 5328   4.377   0.557   5.220  0.1822  0.2639 -0.0783
65005SOL    HW1 5329   4.287   0.536   5.194  0.0616 -1.6894  1.6736
65005SOL    HW2 5330   4.382   0.652   5.213 -2.3810  0.5420  0.8548
65006SOL     OW 5331   2.224  12.089  11.200  0.1560 -0.2638 -0.1510
65006SOL    HW1 5332   2.146  12.145  11.195  0.0245 -0.2422  1.6251
65006SOL    HW2 5333   2.298  12.149  11.195  0.2061 -0.4081 -3.7295
65007SOL     OW 5334   6.357   6.794   5.185  0.1835  0.1328 -0.0421
65007SOL    HW1 5335   6.265   6.797   5.161  0.2964 -0.7005 -0.6178
65007SOL    HW2 5336   6.365   6.714   5.238  0.2702  1.0449  1.3645
65008SOL     OW 5337   4.705   1.874   3.713 -0.3253  0.2523  0.2809
65008SOL    HW1 5338   4.699   1.969   3.727 -0.1666  0.7609 -2.4895
65008SOL    HW2 5339   4.676   1.862   3.623  1.3960 -2.1151 -0.0427
65009SOL     OW 5340   5.396  11.614   0.011  0.1611 -0.3775 -0.7244
65009SOL    HW1 5341   5.373  11.687  -0.047 -0.3203  0.9398  1.0292
65009SOL    HW2 5342   5.491  11.607   0.004  0.2473  0.6137 -0.7340
65010SOL     OW 5343   2.006   5.705   4.128  0.2359  0.3800 -0.4233
65010SOL    HW1 5344   1.998   5.728   4.035 -0.1241  0.9184 -0.2660
65010SOL    HW2 5345   1.961   5.777   4.174  1.6483  0.8640  0.2481
65011SOL     OW 5346   9.609   6.673   9.565  0.4401 -0.1866 -0.5550
65011SOL    HW1 5347   9.650   6.753   9.599  1.3186 -0.8773  0.0588
65011SOL    HW2 5348   9.613   6.611   9.638 -0.9896 -0.5441 -0.7497
65012SOL     OW 5349   4.668   5.486   6.672  0.2480  0.1445 -0.1552
65012SOL    HW1 5350   4.738   5.550   6.687  0.1406  0.2754 -0.2076
65012SOL    HW2 5351   4.591   5.527   6.711  0.5469 -0.7490  1.4895
65013SOL     OW 5352   3.767   1.039   4.496 -0.0778 -0.6634  0.3769
65013SOL    HW1 5353   3.801   1.103   4.434 -1.1861 -3.0424 -2.9556
65013SOL    HW2 5354   3.674   1.061   4.504  0.2489  0.2655  2.1721
65014SOL     OW 5355   0.208   0.046   0.595 -0.4228 -0.2724  0.0157
65014SOL    HW1 5356   0.144   0.014   0.532 -0.9300 -0.8499  0.8016
65014SOL    HW2 5357   0.167   0.124   0.632 -0.2421 -0.0864 -0.1726
65015SOL     OW 5358  11.748   5.957   6.741  0.5645 -0.0752  0.1833
65015SOL    HW1 5359  11.689   5.917   6.677  0.5556  0.6847 -0.2976
65015SOL    HW2 5360  11.711   6.044   6.756  0.9317 -0.0127  0.7451
65016SOL     OW 5361   2.206   3.069   6.077 -0.0781 -0.5872 -0.1056
65016SOL    HW1 5362   2.246   3.041   6.159  0.6665  1.8048  0.4044
65016SOL    HW2 5363   2.113   3.080   6.098 -0.3538 -2.2532 -0.2629
65017SOL     OW 5364   4.464  12.781  11.318 -0.0739  0.0863 -0.8724
65017SOL    HW1 5365   4.474  12.757  11.410 -1.4637 -0.7470 -0.9104
65017SOL    HW2 5366   4.539  12.741  11.274  0.5020  0.3429 -0.1387
65018SOL     OW 5367   9.551   2.376   9.639  0.0818  0.4005  0.1579
65018SOL    HW1 5368   9.583   2.416   9.558  0.7239 -0.4457 -0.0142
65018SOL    HW2 5369   9.460   2.352   9.619  0.4050 -0.3215 -0.5256
65019SOL     OW 5370   2.810  10.283   0.846 -0.5543  0.2264 -0.2493
65019SOL    HW1 5371   2.875  10.305   0.913  0.1912 -0.7754 -0.6312
65019SOL    HW2 5372   2.859  10.283   0.764 -1.5465  1.8729 -0.8891
65020SOL     OW 5373   1.335   7.359   5.311  0.0002  0.2365  0.1516
65020SOL    HW1 5374   1.258   7.310   5.341  0.5716  0.4506  2.1474
65020SOL    HW2 5375   1.409   7.303   5.334  0.5758  1.3089  0.9764
65021SOL     OW 5376   7.304   7.286   3.270  0.2344 -0.6022  0.2281
65021SOL    HW1 5377   7.333   7.344   3.200  1.7144  0.1967  1.4679
65021SOL    HW2 5378   7.383   7.241   3.300 -0.7769 -2.9308 -0.3360
65022SOL     OW 5379   6.318   0.734   6.181 -0.2990 -0.6297  0.1768
65022SOL    HW1 5380   6.318   0.676   6.258 -0.7400 -0.6282  0.1767
65022SOL    HW2 5381   6.255   0.695   6.121  1.4184 -1.7220 -1.0133
65023SOL     OW 5382   2.287   5.998   8.342 -0.3211  0.4700 -0.6864
65023SOL    HW1 5383   2.340   6.077   8.356  0.8787 -0.2987 -0.7840
65023SOL    HW2 5384   2.334   5.929   8.388 -1.2192 -0.2491 -0.8313
65024SOL     OW 5385   2.604   9.058   9.372  0.3663  0.4496 -0.7522
65024SOL    HW1 5386   2.540   9.099   9.313  1.7865  1.4808 -1.6537
65024SOL    HW2 5387   2.646   8.991   9.318 -0.7935 -1.1008  0.2195
65025SOL     OW 5388   7.032   7.638   2.025 -0.5056  0.2327  0.5155
65025SOL    HW1 5389   7.078   7.700   2.081  0.7371 -0.9318  0.8298
65025SOL    HW2 5390   7.091   7.625   1.950 -0.8842 -0.3492  0.3129
65026SOL     OW 5391   2.446   6.842  11.878  0.0567 -0.0580  0.0852
65026SOL    HW1 5392   2.509   6.913  11.889  0.8501 -0.5776 -0.9739
65026SOL    HW2 5393   2.499   6.763  11.872 -0.4903 -0.3111 -2.8744
65027SOL     OW 5394  10.053  11.699   6.119 -0.3317  0.0462 -0.8117
65027SOL    HW1 5395  10.118  11.670   6.054  0.8454  1.3310 -0.2588
65027SOL    HW2 5396  10.086  11.665   6.202 -0.6534  0.2717 -0.5919
65028SOL     OW 5397  11.699  11.071   9.395 -0.4063 -0.4412 -0.3467
65028SOL    HW1 5398  11.723  10.993   9.445 -0.8718 -1.0788 -1.1064
65028SOL    HW2 5399  11.639  11.039   9.328  1.3792  0.1254 -2.3019
65029SOL     OW 5400   7.508   9.157   7.510  0.0861  0.1824 -0.2394
65029SOL    HW1 5401   7.593   9.119   7.534  0.7584 -0.0187 -2.7248
65029SOL    HW2 5402   7.528   9.220   7.441 -1.7776  0.2865 -0.7379
65030SOL     OW 5403   4.796  10.128   1.629 -0.1308  0.1339 -1.2247
65030SOL    HW1 5404   4.874  10.120   1.685  0.5740 -0.2303 -2.2202
65030SOL    HW2 5405   4.805  10.057   1.566 -2.9646 -2.0284  0.5926
65031SOL     OW 5406  11.338   3.122   9.170  0.4947 -0.6425 -0.2647
65031SOL    HW1 5407  11.324   3.190   9.236  1.2818 -0.1980 -0.5327
65031SOL    HW2 5408  11.409   3.157   9.115 -0.0859 -1.0394 -1.2871
65032SOL     OW 5409   9.429  10.483   8.011 -0.9067 -0.2100 -0.2136
65032SOL    HW1 5410   9.456  10.434   8.089 -0.8341 -0.3090 -0.3010
65032SOL    HW2 5411   9.370  10.423   7.965 -0.3799 -0.4300 -0.6067
65033SOL     OW 5412   5.397   1.978   4.505 -0.1180  0.8830 -0.3353
65033SOL    HW1 5413   5.463   2.024   4.557  0.6374 -0.3976 -0.1354
65033SOL    HW2 5414   5.373   1.902   4.557  0.7201 -0.4857 -1.8289
65034SOL     OW 5415   3.308   6.162   2.750  0.2342  0.2041  0.4067
65034SOL    HW1 5416   3.271   6.250   2.741 -0.5231 -0.1100  0.3241
65034SOL    HW2 5417   3.295   6.140   2.842 -3.3456 -1.3804 -0.3125
65035SOL     OW 5418   5.462   8.844   7.680  0.2818  0.4951  0.2047
65035SOL    HW1 5419   5.489   8.905   7.748  1.6958 -1.3014  1.3434
65035SOL    HW2 5420   5.524   8.859   7.608  0.9599  0.0763  0.6880
65036SOL     OW 5421  10.624   9.561  10.482  0.3434 -0.6674 -0.6381
65036SOL    HW1 5422  10.538   9.584  10.448 -0.0426 -1.7972 -0.4535
65036SOL    HW2 5423  10.648   9.481  10.435  0.0637 -1.9228  1.2521
65037SOL     OW 5424  10.515   0.393   6.940 -0.2666  0.1015  0.2512
65037SOL    HW1 5425  10.536   0.446   6.864 -0.4622 -1.6299 -1.0660
65037SOL    HW2 5426  10.598   0.355   6.967 -0.0322  1.3999  1.5155
65038SOL     OW 5427  11.016  11.178   4.432 -0.4112 -0.4097  0.2788
65038SOL    HW1 5428  10.939  11.236   4.432  0.3143  0.5939  1.2574
65038SOL    HW2 5429  11.031  11.158   4.524  1.6672  1.0290  0.3197
65039SOL     OW 5430   0.903   9.995   5.931  0.7444 -0.5563 -0.4408
65039SOL    HW1 5431   0.872   9.956   6.013 -0.6811 -0.7014 -1.0119
65039SOL    HW2 5432   0.880  10.087   5.938  3.2673  0.0745  0.5104
65040SOL     OW 5433   0.659   3.606  10.246 -0.3865  0.1789  0.0755
65040SOL    HW1 5434   0.645   3.692  10.205  0.2221  0.6824  0.8929
65040SOL    HW2 5435   0.571   3.572  10.261 -0.6322  0.2138 -1.1466
65041SOL     OW 5436   2.634   4.882   8.646 -0.4092  0.5019 -0.6063
65041SOL    HW1 5437   2.571   4.849   8.582  0.4346 -0.3484 -1.0173
65041SOL    HW2 5438   2.664   4.804   8.693 -1.5711  1.1676  1.3974
65042SOL     OW 5439   3.832   4.548   0.016 -0.0968  0.4267  0.4791
65042SOL    HW1 5440   3.803   4.630   0.056  1.0995  0.1835  1.9638
65042SOL    HW2 5441   3.849   4.490   0.091  0.0915 -0.8244 -0.4970
65043SOL     OW 5442   8.557  11.816  12.482  0.1608  0.1705 -0.2041
65043SOL    HW1 5443   8.572  11.906  12.513 -1.0577  0.2496  0.2057
65043SOL    HW2 5444   8.645  11.784  12.460  0.5705  1.6116 -0.7957
65044SOL     OW 5445   2.340   0.585   3.635 -0.3521 -0.4082 -0.5161
65044SOL    HW1 5446   2.255   0.591   3.591  0.3987  0.0234 -1.9654
65044SOL    HW2 5447   2.400   0.634   3.579  0.3005  1.8695  1.9919
65045SOL     OW 5448  11.801   8.293   5.172  0.6423  0.1104  0.5388
65045SOL    HW1 5449  11.792   8.226   5.105 -0.3695 -0.1152  0.8730
65045SOL    HW2 5450  11.720   8.345   5.164 -0.0236 -0.5893  2.2779
65046SOL     OW 5451  12.012  10.135  10.660  0.1041  0.4566 -0.2970
65046SOL    HW1 5452  12.068  10.104  10.589  0.8380 -2.6485  1.4629
65046SOL    HW2 5453  12.073  10.161  10.729 -0.6181  2.3663 -0.3149
65047SOL     OW 5454   8.832   8.168   3.736  0.1262  0.0288 -0.4954
65047SOL    HW1 5455   8.795   8.173   3.824 -1.2848  1.3687 -1.1045
65047SOL    HW2 5456   8.888   8.090   3.737  2.5200  1.5424  2.4416
65048SOL     OW 5457  11.186   2.170   4.783 -0.0648 -0.6452 -0.2800
65048SOL    HW1 5458  11.274   2.162   4.821  0.2986 -1.0387 -1.1899
65048SOL    HW2 5459  11.128   2.177   4.859  0.8195  0.4792  0.3307
65049SOL     OW 5460   4.960   4.300   4.523 -0.4609  0.0787 -0.1869
65049SOL    HW1 5461   4.991   4.343   4.444 -1.4649  2.3696  0.5680
65049SOL    HW2 5462   4.865   4.313   4.522 -0.4854  0.2715  1.4310
65050SOL     OW 5463   4.700   9.847   6.576  0.1582 -0.0846 -0.2309
65050SOL    HW1 5464   4.764   9.891   6.632 -0.7080 -0.8740  1.4681
65050SOL    HW2 5465   4.741   9.764   6.552 -1.0930 -1.8199  3.0514
65051SOL     OW 5466   9.173   8.569   0.068 -0.4234  0.3316 -0.1032
65051SOL    HW1 5467   9.189   8.658   0.037 -0.8505  0.6166  0.4651
65051SOL    HW2 5468   9.176   8.515  -0.010  1.9899  0.5327 -0.2058
65052SOL     OW 5469  10.554   8.393  11.270 -0.4983  0.2490 -0.0851
65052SOL    HW1 5470  10.555   8.398  11.174 -0.2947  0.9000 -0.0543
65052SOL    HW2 5471  10.642   8.419  11.297 -0.6274  0.3147  0.2865
65053SOL     OW 5472  10.634  10.459  10.750  0.2307  0.2251  0.6805
65053SOL    HW1 5473  10.667  10.447  10.661 -1.1552 -0.5128  0.2470
65053SOL    HW2 5474  10.696  10.521  10.790  3.2407 -2.3986  0.5084
65054SOL     OW 5475   5.175   9.702   1.164 -0.0638  0.1947  0.1523
65054SOL    HW1 5476   5.252   9.754   1.141  0.4415 -0.0401  1.2384
65054SOL    HW2 5477   5.108   9.731   1.103  0.9212  0.3047 -0.9166
65055SOL     OW 5478   6.008  10.302   8.726 -0.8509  0.5820  0.2979
65055SOL    HW1 5479   6.087  10.276   8.772 -0.8757  0.2943  0.1835
65055SOL    HW2 5480   6.026  10.390   8.693 -0.0825  0.0296 -0.8497
65056SOL     OW 5481   8.797   5.318   1.649  0.4062 -0.1597 -0.2103
65056SOL    HW1 5482   8.740   5.276   1.584  0.7874  1.6964 -1.8343
65056SOL    HW2 5483   8.736   5.366   1.706  0.1511 -0.8003  0.0687
65057SOL     OW 5484   4.841   3.110   5.157 -0.0743 -0.0924  0.5750
65057SOL    HW1 5485   4.827   3.058   5.237 -0.8663  1.2330  1.3273
65057SOL    HW2 5486   4.847   3.200   5.187  0.2888  0.3736 -0.8136
65058SOL     OW 5487  11.936   3.477   4.913 -0.2305  0.3113 -0.0148
65058SOL    HW1 5488  12.024   3.490   4.948  0.9339 -1.1615 -2.1201
65058SOL    HW2 5489  11.920   3.556   4.861 -0.1749  0.5995  0.3996
65059SOL     OW 5490   8.685   1.585   6.081  0.1345  0.1068 -0.1912
65059SOL    HW1 5491   8.743   1.632   6.021  0.3141  0.0032 -0.1008
65059SOL    HW2 5492   8.630   1.653   6.120  0.9973  0.3707  0.6167
65060SOL     OW 5493   7.200  11.523   2.793  0.5575 -0.5236 -0.7137
65060SOL    HW1 5494   7.189  11.432   2.765  1.4006 -0.2364 -2.0733
65060SOL    HW2 5495   7.273  11.521   2.854  1.2266 -0.6482 -1.4951
65061SOL     OW 5496   2.115   4.185   3.904 -0.2175 -0.2362 -0.6879
65061SOL    HW1 5497   2.199   4.183   3.859  0.8987 -1.1832  1.3007
65061SOL    HW2 5498   2.124   4.253   3.970 -0.0024 -1.9811  1.2044
65062SOL     OW 5499   0.881  11.476  10.383 -0.1349 -0.4530  0.1409
65062SOL    HW1 5500   0.846  11.484  10.472  1.3662 -0.4048  0.7613
65062SOL    HW2 5501   0.810  11.508  10.327 -1.8636 -2.3166  1.1330
65063SOL     OW 5502  10.411  10.616   6.649 -0.3340 -0.3710  0.2247
65063SOL    HW1 5503  10.364  10.539   6.681  0.1555 -0.8795 -0.2511
65063SOL    HW2 5504  10.381  10.626   6.558  0.8795 -1.0528 -0.2808
65064SOL     OW 5505  10.891   8.684   3.827 -0.2743  0.5893 -0.1806
65064SOL    HW1 5506  10.917   8.703   3.737 -1.0198  1.4228 -0.2355
65064SOL    HW2 5507  10.888   8.769   3.870 -0.4160  0.2496  0.5004
65065SOL     OW 5508   9.329   7.123   8.168 -0.3039  0.0614  0.3548
65065SOL    HW1 5509   9.328   7.123   8.073 -1.7692 -1.7661  0.2989
65065SOL    HW2 5510   9.240   7.150   8.193 -0.8428 -2.1730  1.0794
65066SOL     OW 5511   1.541   3.853   7.955 -0.4552 -0.6088  0.0630
65066SOL    HW1 5512   1.613   3.907   7.924 -0.3761 -0.5878  0.2827
65066SOL    HW2 5513   1.580   3.768   7.973 -0.5608 -0.7131 -0.1879
65067SOL     OW 5514   9.440   0.656   0.234 -0.4636  0.0058 -0.1557
65067SOL    HW1 5515   9.440   0.673   0.328  1.0794 -0.2216 -0.0929
65067SOL    HW2 5516   9.384   0.724   0.198  1.4134  2.1066  0.6333
65068SOL     OW 5517  11.926  10.427   9.589 -0.1924  0.1210  0.4951
65068SOL    HW1 5518  12.006  10.381   9.564 -0.8484 -0.5428 -0.4606
65068SOL    HW2 5519  11.861  10.358   9.602 -1.1529  0.7498 -0.7762
65069SOL     OW 5520   3.893   7.264   5.754  0.3810  0.0368  0.6460
65069SOL    HW1 5521   3.877   7.179   5.713  0.1247  1.0261 -1.4443
65069SOL    HW2 5522   3.837   7.265   5.831  0.9028 -1.9410  1.1061
65070SOL     OW 5523   4.284   9.261   2.256 -0.0624  0.4216  0.3904
65070SOL    HW1 5524   4.268   9.351   2.283  1.3169  0.8715 -0.2187
65070SOL    HW2 5525   4.337   9.268   2.177  1.4862 -0.9164  1.2392
65071SOL     OW 5526   4.531   6.040   5.797  0.4142  0.2306 -0.7623
65071SOL    HW1 5527   4.522   6.054   5.702 -0.9137  3.0840 -0.3090
65071SOL    HW2 5528   4.524   6.127   5.835 -3.8397 -1.1068  2.2967
65072SOL     OW 5529   1.926  11.248   9.519 -0.2916  0.0599 -0.4242
65072SOL    HW1 5530   1.944  11.155   9.508 -1.0355  0.0398 -1.7035
65072SOL    HW2 5531   1.927  11.283   9.430 -0.3987  1.2031  0.0099
65073SOL     OW 5532   7.304   2.111   3.926 -0.9143  0.0603  0.1358
65073SOL    HW1 5533   7.298   2.202   3.955  0.1319  0.6228 -1.2671
65073SOL    HW2 5534   7.388   2.080   3.959 -0.5351  0.1422 -0.7036
65074SOL     OW 5535   3.935   2.230   3.588  0.0367  0.0639 -0.4804
65074SOL    HW1 5536   3.840   2.231   3.579 -0.2344  2.5464  1.4915
65074SOL    HW2 5537   3.955   2.143   3.623 -1.5270 -0.3369 -0.5066
65075SOL     OW 5538  10.452   5.508   8.922 -0.3134 -0.2179 -0.2417
65075SOL    HW1 5539  10.479   5.417   8.928 -0.3346 -0.2086 -0.0226
65075SOL    HW2 5540  10.439   5.523   8.828 -2.5895 -1.1019 -0.1325
65076SOL     OW 5541   4.080  12.979   0.829  0.6009 -0.4997 -0.4360
65076SOL    HW1 5542   3.991  13.004   0.803  0.0038 -0.2901  1.6141
65076SOL    HW2 5543   4.090  12.890   0.794 -0.9380 -1.0388  0.3571
65077SOL     OW 5544   4.042   1.787   8.938  0.0739  0.1363 -0.2628
65077SOL    HW1 5545   4.082   1.809   9.022  0.6142  0.2702 -0.5511
65077SOL    HW2 5546   3.953   1.757   8.961  0.8635 -1.7791  0.5568
65078SOL     OW 5547   4.989   9.615   6.186 -0.1414 -0.0782  0.0568
65078SOL    HW1 5548   4.926   9.682   6.212 -0.5753 -0.3614 -0.2527
65078SOL    HW2 5549   5.008   9.567   6.267  0.0060  0.2803  0.2351
65079SOL     OW 5550   3.886   5.979   3.639  0.0345  0.5181 -0.0384
65079SOL    HW1 5551   3.830   5.989   3.562  1.0625  2.9730 -0.5559
65079SOL    HW2 5552   3.872   6.059   3.689  0.4126 -0.4468  1.6771
65080SOL     OW 5553   2.595   5.241  11.449 -0.1776  0.5826 -0.0244
65080SOL    HW1 5554   2.542   5.204  11.519  0.8918  0.1844  0.6030
65080SOL    HW2 5555   2.666   5.287  11.494 -0.4076  1.7657 -0.8295
65081SOL     OW 5556   6.821   8.169   2.876  0.5372 -0.7935 -0.1674
65081SOL    HW1 5557   6.901   8.117   2.884  1.3609 -0.0676 -2.6289
65081SOL    HW2 5558   6.846   8.241   2.818 -1.4923  0.3888  0.3413
65082SOL     OW 5559   6.065  12.290   4.793  0.1775 -0.2985  0.5666
65082SOL    HW1 5560   5.987  12.235   4.801 -1.3524  1.1812 -2.3351
65082SOL    HW2 5561   6.125  12.238   4.738 -1.0145  0.5356 -1.6515
65083SOL     OW 5562  10.700  12.132   0.062  0.4514  0.2711 -0.5941
65083SOL    HW1 5563  10.764  12.176   0.007 -0.3844  0.5941 -1.3260
65083SOL    HW2 5564  10.616  12.173   0.040  0.1557  0.7785  1.3025
65084SOL     OW 5565   4.468   2.676   4.477 -0.2242  0.2553  0.1529
65084SOL    HW1 5566   4.441   2.624   4.553 -1.3040  1.9621  1.0164
65084SOL    HW2 5567   4.555   2.709   4.500 -0.6318  0.9343  0.7784
65085SOL     OW 5568   7.628   3.197   7.301  0.2611  0.2380 -0.6062
65085SOL    HW1 5569   7.542   3.229   7.274  0.3254 -1.3124 -2.9000
65085SOL    HW2 5570   7.686   3.217   7.228  0.9336 -2.2387 -0.8520
65086SOL     OW 5571   8.846   1.725  10.876  0.2857 -0.2073 -0.0432
65086SOL    HW1 5572   8.908   1.733  10.948 -0.8928  0.3084  0.9347
65086SOL    HW2 5573   8.816   1.634  10.880  0.3401 -0.2225  0.0189
65087SOL     OW 5574   4.661   8.528   8.328 -0.8277  0.2147  0.0999
65087SOL    HW1 5575   4.720   8.591   8.369 -1.5210 -0.1694  1.7913
65087SOL    HW2 5576   4.585   8.526   8.387 -2.2379  0.2035 -1.6487
65088SOL     OW 5577   9.755   8.105   4.843  0.4077 -0.2746  0.4424
65088SOL    HW1 5578   9.747   8.177   4.906 -0.2471 -0.1035  0.1682
65088SOL    HW2 5579   9.699   8.130   4.770  1.4332 -0.3100 -0.3720
65089SOL     OW 5580   6.100   0.768   9.903  0.4221  0.7539 -0.3922
65089SOL    HW1 5581   6.047   0.804   9.832 -0.7053 -1.7068 -0.9168
65089SOL    HW2 5582   6.071   0.677   9.911  3.4102 -0.2428  0.4762
65090SOL     OW 5583   8.349  11.620   6.442 -0.0230  0.0306 -0.5882
65090SOL    HW1 5584   8.418  11.578   6.494 -0.3681 -1.2910 -1.1517
65090SOL    HW2 5585   8.268  11.587   6.480 -0.2820 -1.0662 -2.0204
65091SOL     OW 5586  12.565   8.334   2.714 -0.6619  0.1478  0.7830
65091SOL    HW1 5587  12.548   8.299   2.802 -1.3401 -0.1345  0.5443
65091SOL    HW2 5588  12.481   8.327   2.669 -0.6310  1.4260  0.4973
65092SOL     OW 5589  10.959   1.924   2.559 -0.2491 -0.0229 -0.0296
65092SOL    HW1 5590  10.887   1.975   2.520 -1.5266 -1.8592 -0.2099
65092SOL    HW2 5591  11.006   1.888   2.484  1.2303  1.5956  0.0799
65093SOL     OW 5592   7.971   2.051   6.014  0.4885  0.3835  0.1364
65093SOL    HW1 5593   7.908   2.003   5.961  1.4662 -0.6676 -0.1020
65093SOL    HW2 5594   7.968   2.140   5.979 -0.4875  0.2360 -0.1963
65094SOL     OW 5595  12.285   2.078   4.626  0.4973 -0.0618  0.3455
65094SOL    HW1 5596  12.282   2.067   4.530 -2.9908  1.4758  0.1327
65094SOL    HW2 5597  12.308   2.170   4.638 -2.3038  0.6381  0.7862
65095SOL     OW 5598   0.740  10.368   9.588 -0.2514  0.3746 -0.0193
65095SOL    HW1 5599   0.702  10.456   9.601 -0.7325 -0.1146  2.3059
65095SOL    HW2 5600   0.692  10.312   9.649  2.1419 -0.9015  0.8180
65096SOL     OW 5601   4.987   9.255  10.103  0.4341  0.4065  0.5491
65096SOL    HW1 5602   5.064   9.229  10.053 -0.2388 -3.9826  1.3973
65096SOL    HW2 5603   5.019   9.264  10.193  0.1455 -0.7975  0.7935
65097SOL     OW 5604   9.524  11.900  12.054 -0.1006 -0.2073  0.7279
65097SOL    HW1 5605   9.476  11.912  11.972  2.5600  1.1962 -0.7538
65097SOL    HW2 5606   9.502  11.811  12.082 -1.4798 -0.5483 -1.2415
65098SOL     OW 5607   0.210   1.043   7.588 -0.1330 -0.4663 -0.1183
65098SOL    HW1 5608   0.226   1.050   7.683 -0.4404  1.0781 -0.1542
65098SOL    HW2 5609   0.294   1.015   7.552  0.1892 -0.3881  0.5479
65099SOL     OW 5610   9.031  11.631   4.184  0.0200  0.1742  0.5319
65099SOL    HW1 5611   9.104  11.676   4.139  0.1153 -1.4673 -1.0486
65099SOL    HW2 5612   9.068  11.547   4.211 -1.2843 -0.7242 -0.3811
65100SOL     OW 5613   4.466  12.019   3.858 -0.4422 -0.1309  0.5002
65100SOL    HW1 5614   4.478  11.951   3.792 -1.7042  0.0471  0.0556
65100SOL    HW2 5615   4.393  11.988   3.912 -0.1845  0.2738  1.0969
65101SOL     OW 5616  12.712   0.259  12.710  0.1304  0.1343 -0.4902
65101SOL    HW1 5617  12.679   0.169  12.701  1.3225 -0.4642  0.7636
65101SOL    HW2 5618  12.741   0.283  12.622 -1.8616 -0.0066 -1.2310
65102SOL     OW 5619   2.635   3.113   2.763  0.3283 -0.7664 -0.0744
65102SOL    HW1 5620   2.574   3.079   2.698 -1.0173  0.9831  0.1962
65102SOL    HW2 5621   2.620   3.059   2.840 -1.9088  0.3930  0.4096
65103SOL     OW 5622   8.810   4.430   3.947 -0.0462  0.4586 -0.1084
65103SOL    HW1 5623   8.791   4.470   4.032  0.1221 -0.2383  0.2653
65103SOL    HW2 5624   8.813   4.336   3.965 -2.1600  0.1127 -1.2761
65104SOL     OW 5625   9.043  10.825   7.223  0.5570  0.3287  0.1202
65104SOL    HW1 5626   9.130  10.793   7.197  0.0479  0.2730 -1.6729
65104SOL    HW2 5627   9.016  10.768   7.294  1.5852 -0.2807  0.0416
65105SOL     OW 5628   5.096   8.993   6.089  0.4093 -0.1414 -0.5868
65105SOL    HW1 5629   5.135   8.956   6.010  1.2839 -0.7003  0.0943
65105SOL    HW2 5630   5.050   8.920   6.130  1.4386 -0.2972  0.3289
65106SOL     OW 5631   7.548   9.430   3.116 -0.3145 -0.0399  0.2388
65106SOL    HW1 5632   7.574   9.369   3.185  0.7744 -0.3291 -0.3978
65106SOL    HW2 5633   7.630   9.465   3.083 -0.9230  2.7327  1.3701
65107SOL     OW 5634   7.873   9.848  12.624  0.0940 -0.4011  0.5083
65107SOL    HW1 5635   7.946   9.820  12.569 -0.7083 -3.2446  0.7177
65107SOL    HW2 5636   7.915   9.884  12.702  1.4170 -3.5478  1.4076
65108SOL     OW 5637   0.049   1.559   6.224  0.0906  0.1201 -0.2675
65108SOL    HW1 5638   0.009   1.473   6.241 -0.1119  0.4693  1.1978
65108SOL    HW2 5639   0.142   1.545   6.243 -0.4358  1.0805  3.9974
65109SOL     OW 5640   8.892   4.755   2.525 -0.0102 -0.0389  0.1915
65109SOL    HW1 5641   8.950   4.707   2.584 -0.1597  1.2261  1.4262
65109SOL    HW2 5642   8.951   4.800   2.464  0.1488 -1.3052 -0.6156
65110SOL     OW 5643   6.861   5.394  11.427  0.3806 -0.5703  0.1245
65110SOL    HW1 5644   6.816   5.426  11.350  1.5438 -0.2723 -0.4457
65110SOL    HW2 5645   6.954   5.399  11.405  0.7093 -1.0541  1.3137
65111SOL     OW 5646   9.156   3.671   7.545  0.2002  0.1616  0.1620
65111SOL    HW1 5647   9.158   3.670   7.641 -0.2371  3.0338  0.2998
65111SOL    HW2 5648   9.130   3.582   7.521  0.4256 -0.6795  2.6913
65112SOL     OW 5649   4.359   8.807   7.297 -0.4219 -0.0916 -0.4924
65112SOL    HW1 5650   4.429   8.850   7.248  0.0731  0.8830  0.9998
65112SOL    HW2 5651   4.310   8.879   7.338 -0.6162 -0.8711  0.6932
65113SOL     OW 5652   7.936  10.055   0.788  0.1925  0.4493  0.3515
65113SOL    HW1 5653   7.948  10.020   0.876  0.1964 -0.8871 -0.1548
65113SOL    HW2 5654   7.861  10.114   0.795  0.2373  0.4108  1.2559
65114SOL     OW 5655   0.707  11.508  12.063  0.5296 -0.5037 -0.0544
65114SOL    HW1 5656   0.684  11.514  12.156 -1.7319  0.4284 -0.6022
65114SOL    HW2 5657   0.782  11.449  12.061  0.1302 -1.2238  2.2872
65115SOL     OW 5658   9.797  10.940   8.853 -0.1972  0.5195 -0.1051
65115SOL    HW1 5659   9.849  10.898   8.921  2.4752 -0.5306 -2.5567
65115SOL    HW2 5660   9.741  10.870   8.819 -0.3000  0.5834 -0.0665
65116SOL     OW 5661   2.145   1.395   1.140 -0.1223 -0.2919 -0.3048
65116SOL    HW1 5662   2.055   1.422   1.158  0.5194  2.4393 -0.6320
65116SOL    HW2 5663   2.154   1.400   1.045  0.5057  0.0655 -0.2362
65117SOL     OW 5664   2.017   7.659  12.167  0.3123  0.2457 -0.0861
65117SOL    HW1 5665   1.970   7.652  12.084  1.3513 -3.5506 -0.5494
65117SOL    HW2 5666   1.957   7.624  12.233 -0.3280  2.7895  0.7724
65118SOL     OW 5667   3.979   2.978  10.690  0.1153  0.1090 -0.4609
65118SOL    HW1 5668   3.999   3.070  10.710 -0.6215 -0.0790  1.4454
65118SOL    HW2 5669   4.006   2.931  10.769  0.5298 -1.3402 -1.4356
65119SOL     OW 5670  12.524  10.272   0.903 -0.1020  0.2695  0.1226
65119SOL    HW1 5671  12.494  10.190   0.944 -0.1407 -0.6909 -1.7470
65119SOL    HW2 5672  12.553  10.246   0.816  0.0762  2.2432 -0.4440
65120SOL     OW 5673  12.220   8.125   5.176 -0.2773  0.7303  0.0506
65120SOL    HW1 5674  12.194   8.172   5.097 -0.4437 -0.1955 -0.4677
65120SOL    HW2 5675  12.276   8.186   5.223  1.3703  0.6560 -1.7049
65121SOL     OW 5676   6.799  12.406   8.901 -0.4868  0.0576 -0.9724
65121SOL    HW1 5677   6.747  12.328   8.918  1.2729 -0.7528  1.0769
65121SOL    HW2 5678   6.734  12.474   8.882 -2.3618 -0.8836  1.4780
65122SOL     OW 5679   6.532  11.747  12.439 -0.0855 -0.3616 -0.2036
65122SOL    HW1 5680   6.511  11.678  12.376 -0.0779 -0.6717  0.1353
65122SOL    HW2 5681   6.530  11.827  12.387 -1.8339 -0.3916 -0.2704
65123SOL     OW 5682   5.008  11.253   3.832 -0.3800 -0.3276  0.1023
65123SOL    HW1 5683   5.058  11.297   3.762  0.3247  0.3021  0.9819
65123SOL    HW2 5684   4.936  11.210   3.786 -0.7209  1.2039 -0.8675
65124SOL     OW 5685   0.187   9.451  10.714 -0.5920  0.3208  0.0885
65124SOL    HW1 5686   0.108   9.397  10.704 -0.0713 -0.3493 -0.5113
65124SOL    HW2 5687   0.182   9.513  10.642 -0.7504  0.5070  0.2602
65125SOL     OW 5688   0.600  11.250  10.796 -0.2337  0.9795 -0.1358
65125SOL    HW1 5689   0.548  11.221  10.722 -2.9175  2.0482  1.1954
65125SOL    HW2 5690   0.644  11.330  10.765  0.4788  0.2023 -1.2034
65126SOL     OW 5691   7.571   3.316   7.552 -0.0116  0.5859 -0.6028
65126SOL    HW1 5692   7.602   3.290   7.465 -2.9477 -1.7815 -1.0997
65126SOL    HW2 5693   7.532   3.402   7.538 -0.0489  0.4306 -1.5566
65127SOL     OW 5694   2.980   5.387  10.969 -0.2051 -0.0202  0.2221
65127SOL    HW1 5695   2.896   5.347  10.946 -0.3876  0.3930  0.1640
65127SOL    HW2 5696   3.008   5.433  10.890 -0.0618  0.0770  0.3285
65128SOL     OW 5697   5.121   9.850   2.470  0.7560  0.7141  0.0635
65128SOL    HW1 5698   5.028   9.837   2.491  1.2462  0.1468  2.1313
65128SOL    HW2 5699   5.163   9.769   2.496  1.9608  1.3003 -0.0065
65129SOL     OW 5700   3.849   5.694   3.000  0.1231  0.2184 -0.1147
65129SOL    HW1 5701   3.907   5.764   2.971  0.2563  0.0009 -0.3848
65129SOL    HW2 5702   3.765   5.714   2.959 -0.0526  0.6462  0.4428
65130SOL     OW 5703   9.975   3.413   9.777  0.0853 -0.1917  0.0753
65130SOL    HW1 5704   9.930   3.340   9.819  0.3418 -0.1357  0.4591
65130SOL    HW2 5705  10.063   3.380   9.758  0.1263 -0.0616  0.0329
65131SOL     OW 5706   6.830  11.852   1.966 -0.1568 -0.7178  0.4213
65131SOL    HW1 5707   6.777  11.792   1.914 -0.9198 -0.9077  1.4019
65131SOL    HW2 5708   6.801  11.840   2.056  0.1559  0.6195  0.7356
65132SOL     OW 5709  11.336   5.384  10.582 -0.0220  0.5339 -0.4398
65132SOL    HW1 5710  11.305   5.360  10.495  0.6651 -0.5938 -0.3867
65132SOL    HW2 5711  11.411   5.326  10.598 -1.6380 -1.0475  1.9156
65133SOL     OW 5712   6.260   5.051   5.522  0.0994  0.2708 -0.0579
65133SOL    HW1 5713   6.260   5.134   5.569 -0.2640  0.4611 -0.3922
65133SOL    HW2 5714   6.351   5.039   5.495  0.2019  0.4335  0.2132
65134SOL     OW 5715   2.535   5.070  10.621 -0.0562 -0.1819  0.3005
65134SOL    HW1 5716   2.597   5.092  10.551  0.6535 -1.0866  0.6311
65134SOL    HW2 5717   2.590   5.050  10.697 -0.7306 -1.2673  0.5275
65135SOL     OW 5718   2.831   2.739   8.983 -0.1749 -0.4721  0.1119
65135SOL    HW1 5719   2.902   2.743   9.046 -0.7410  0.0635  0.7377
65135SOL    HW2 5720   2.827   2.647   8.956 -0.6396 -0.9606  1.7178
65136SOL     OW 5721   6.575   4.208   5.015 -0.5332 -0.0670  0.4844
65136SOL    HW1 5722   6.670   4.209   5.003 -0.7070  0.8066 -1.1989
65136SOL    HW2 5723   6.548   4.122   4.984 -0.3716  0.0578 -0.0286
65137SOL     OW 5724  12.241   9.492   2.526 -0.1470 -0.0255 -0.1583
65137SOL    HW1 5725  12.217   9.584   2.540 -1.6416 -0.1982 -1.3350
65137SOL    HW2 5726  12.190   9.465   2.450 -1.5663 -2.4787  1.5154
65138SOL     OW 5727   9.595  10.373   2.257 -0.4753  0.1600  0.1605
65138SOL    HW1 5728   9.654  10.326   2.316 -0.3394 -0.6539 -0.6171
65138SOL    HW2 5729   9.597  10.463   2.290  1.3317  0.1975  0.0558
65139SOL     OW 5730   6.995   3.907   7.589 -0.2697  0.6562  0.4277
65139SOL    HW1 5731   6.967   3.942   7.673 -0.4261  1.9409 -0.1293
65139SOL    HW2 5732   7.045   3.979   7.549 -1.5847  0.6880 -1.2575
65140SOL     OW 5733   5.709   6.107   8.220  0.4710 -0.1999  0.0172
65140SOL    HW1 5734   5.697   6.201   8.206  0.8548 -0.0730  0.5150
65140SOL    HW2 5735   5.636   6.083   8.278 -1.0380 -0.6986 -1.9702
65141SOL     OW 5736  10.967   2.171   1.674 -0.3792  0.4641  0.1777
65141SOL    HW1 5737  10.966   2.249   1.618 -0.7103 -0.9058 -1.8132
65141SOL    HW2 5738  11.031   2.113   1.633 -2.9307 -1.9114 -0.7662
65142SOL     OW 5739  12.199   5.285   8.868  0.0283  0.5458 -0.1236
65142SOL    HW1 5740  12.181   5.192   8.887  3.3560  0.0162  0.9971
65142SOL    HW2 5741  12.149   5.302   8.788  0.5078 -2.6994 -1.2769
65143SOL     OW 5742  12.308   0.236   0.884  0.2059  0.4672 -0.0703
65143SOL    HW1 5743  12.252   0.161   0.865  1.3761  0.0352 -2.0117
65143SOL    HW2 5744  12.324   0.231   0.978 -2.7912  0.5024  0.5657
65144SOL     OW 5745   3.366   0.020   8.914  0.9875  0.2528  0.2503
65144SOL    HW1 5746   3.308   0.095   8.906  1.8088  0.9020  0.1376
65144SOL    HW2 5747   3.389   0.017   9.007 -0.5158 -1.0267  0.6126
65145SOL     OW 5748   8.206   1.239   2.321 -0.9749  0.6509  0.5472
65145SOL    HW1 5749   8.169   1.201   2.401 -2.6468  3.0584  1.0205
65145SOL    HW2 5750   8.222   1.164   2.264  0.2162 -1.1628  3.0473
65146SOL     OW 5751   9.639   9.610  10.454  0.1961  0.3577 -0.6929
65146SOL    HW1 5752   9.652   9.516  10.469 -1.3951  0.1932 -0.1455
65146SOL    HW2 5753   9.563   9.614  10.396  1.0050  1.2966 -1.7252
65147SOL     OW 5754   8.397   4.734   6.353 -0.1861 -0.0390  0.3560
65147SOL    HW1 5755   8.361   4.797   6.415  1.7293  1.1991  0.2894
65147SOL    HW2 5756   8.376   4.770   6.267 -2.0040 -1.2667  0.2311
65148SOL     OW 5757   8.005  11.579   4.760 -0.2368 -0.2872 -0.1603
65148SOL    HW1 5758   8.090  11.541   4.779  1.0082  1.4265 -1.8832
65148SOL    HW2 5759   7.994  11.567   4.665 -1.0696  1.1006 -0.2708
65149SOL     OW 5760   4.974   4.405   6.773 -0.2406  0.2795  0.4965
65149SOL    HW1 5761   4.918   4.342   6.727  0.7727  0.1958 -0.6746
65149SOL    HW2 5762   5.056   4.406   6.723 -0.2548  2.6077  0.3816
65150SOL     OW 5763   0.643   0.017   6.082 -0.8229  0.1330  0.1736
65150SOL    HW1 5764   0.556  -0.010   6.053 -0.5490  1.4823 -2.1629
65150SOL    HW2 5765   0.680  -0.061   6.123 -2.1624 -1.2671 -1.1593
65151SOL     OW 5766  10.464   6.334   8.518  0.0816  0.5696  0.6228
65151SOL    HW1 5767  10.529   6.402   8.499 -0.5152  1.0358  0.2147
65151SOL    HW2 5768  10.470   6.275   8.443  1.4121 -0.4959  1.5142
65152SOL     OW 5769   1.642   6.949   9.955  0.0527  0.4167 -0.2635
65152SOL    HW1 5770   1.610   6.862   9.979 -0.7763  0.6774 -0.3735
65152SOL    HW2 5771   1.602   7.007  10.020 -0.8505  0.9277 -1.2356
65153SOL     OW 5772  11.240   3.133   5.287 -0.4331  0.1417  0.0694
65153SOL    HW1 5773  11.317   3.111   5.235 -0.3335  0.0152  0.2686
65153SOL    HW2 5774  11.250   3.083   5.368 -1.0836 -0.4478 -0.1972
65154SOL     OW 5775   4.989   7.982  10.820  0.3028 -0.0382  0.3224
65154SOL    HW1 5776   4.976   8.067  10.862 -0.4401  0.4432 -0.8210
65154SOL    HW2 5777   5.027   8.003  10.734 -0.5606 -0.7880 -0.2653
65155SOL     OW 5778   0.345   0.392   5.890  0.9940 -0.4109 -0.4247
65155SOL    HW1 5779   0.285   0.444   5.836  0.9777 -0.6057 -0.5951
65155SOL    HW2 5780   0.287   0.339   5.945  1.0107 -0.3154 -0.3140
65156SOL     OW 5781  10.241   7.133   7.759 -0.6102 -0.0001  0.1055
65156SOL    HW1 5782  10.215   7.100   7.673 -1.9481  0.8555  0.1640
65156SOL    HW2 5783  10.335   7.147   7.751 -0.7554  0.3281 -1.3088
65157SOL     OW 5784   7.172  10.155   7.063  0.1025  0.0754  0.0055
65157SOL    HW1 5785   7.223  10.233   7.040 -0.8625  0.5455 -0.6330
65157SOL    HW2 5786   7.092  10.163   7.011 -0.2083 -1.1242  0.2716
65158SOL     OW 5787   2.642   3.921   1.690 -0.1774 -0.1380 -0.0569
65158SOL    HW1 5788   2.660   3.927   1.596 -0.7583 -1.7914 -0.3176
65158SOL    HW2 5789   2.728   3.923   1.732  0.0708  0.8942 -0.5835
65159SOL     OW 5790   6.824   8.730   2.013  0.4827 -0.1031  0.6546
65159SOL    HW1 5791   6.733   8.722   2.041  0.7934  0.1973  1.8260
65159SOL    HW2 5792   6.838   8.658   1.953 -0.6278  0.0586  0.1932
65160SOL     OW 5793   8.610   4.831   4.673  0.0893  0.1901 -0.3540
65160SOL    HW1 5794   8.679   4.897   4.681 -0.3098  0.4458  1.2034
65160SOL    HW2 5795   8.530   4.877   4.696 -0.2875 -0.6671  0.0877
65161SOL     OW 5796   6.162   0.376  11.331 -0.2733 -0.1096 -0.3033
65161SOL    HW1 5797   6.121   0.291  11.316 -1.4223  0.3430  0.1491
65161SOL    HW2 5798   6.093   0.440  11.315  0.1016  0.6614  0.9891
65162SOL     OW 5799  12.929   0.781  11.829  0.4541  0.6058 -0.4354
65162SOL    HW1 5800  12.880   0.854  11.867 -1.5838 -0.4099 -0.9713
65162SOL    HW2 5801  12.963   0.815  11.746 -0.7146  0.8790 -0.8138
65163SOL     OW 5802  10.972   2.455  11.146  0.0596 -0.2287 -0.0271
65163SOL    HW1 5803  10.890   2.405  11.144 -0.9016  1.2929 -0.8117
65163SOL    HW2 5804  10.964   2.512  11.223 -0.3155  0.9634 -0.9074
65164SOL     OW 5805   2.255   7.443   3.370  0.1279 -0.0220  0.1661
65164SOL    HW1 5806   2.308   7.497   3.428 -0.7638  0.0978  0.9050
65164SOL    HW2 5807   2.219   7.504   3.306  1.4913 -0.2260 -0.8377
65165SOL     OW 5808   2.719  12.924   2.992 -0.6404  0.0486  0.6918
65165SOL    HW1 5809   2.657  12.901   2.923 -0.2082  1.9745 -0.4169
65165SOL    HW2 5810   2.805  12.916   2.951 -0.4126  2.0942  0.6798
65166SOL     OW 5811   0.939   1.710  11.529  0.3304 -0.2502  0.0757
65166SOL    HW1 5812   0.975   1.744  11.611 -0.8219 -0.2874  0.6087
65166SOL    HW2 5813   0.860   1.662  11.554 -0.0208 -0.3026 -1.0451
65167SOL     OW 5814   5.993   9.453   3.314  0.0379  0.1100 -0.0985
65167SOL    HW1 5815   5.909   9.417   3.285 -0.9602  1.3873  1.1332
65167SOL    HW2 5816   6.044   9.376   3.338 -0.5944 -0.7133 -1.2613
65168SOL     OW 5817   8.856  11.156  11.340  0.8444  0.0163 -0.6263
65168SOL    HW1 5818   8.825  11.090  11.278 -2.3693 -0.4223  1.1763
65168SOL    HW2 5819   8.899  11.106  11.409 -0.5891 -0.1795  0.1775
65169SOL     OW 5820   5.672  11.551   0.783  0.2694 -0.3744 -0.6308
65169SOL    HW1 5821   5.681  11.546   0.688 -0.0881  0.2970 -0.7117
65169SOL    HW2 5822   5.733  11.620   0.809 -2.7280  2.6636 -0.9384
65170SOL     OW 5823  11.331  12.296   0.804 -0.6382  0.7394  0.3255
65170SOL    HW1 5824  11.265  12.253   0.750 -1.4350  2.6614 -0.3245
65170SOL    HW2 5825  11.410  12.296   0.750  0.0103 -1.6260  1.1314
65171SOL     OW 5826   1.350   9.715   3.240 -0.0718  0.6122  0.2364
65171SOL    HW1 5827   1.393   9.673   3.166 -1.5798  1.3523 -1.0966
65171SOL    HW2 5828   1.356   9.809   3.222  0.3927  0.8669  1.5605
65172SOL     OW 5829   9.174  11.613   7.857  0.1771  0.3254 -0.8370
65172SOL    HW1 5830   9.092  11.565   7.868  0.1608  0.7032  0.8793
65172SOL    HW2 5831   9.167  11.651   7.769 -0.1638 -2.0822 -1.9491
65173SOL     OW 5832  11.439   5.222   4.906  0.1808  0.5624 -0.8603
65173SOL    HW1 5833  11.475   5.151   4.853 -0.7270  0.4503 -1.3583
65173SOL    HW2 5834  11.414   5.289   4.842 -0.8274  0.4692 -0.5786
65174SOL     OW 5835   3.903   0.721   0.317 -0.1856 -0.1563  0.2315
65174SOL    HW1 5836   3.822   0.740   0.271 -0.7219 -0.0585  1.1783
65174SOL    HW2 5837   3.951   0.804   0.315 -0.3656 -0.0527  0.1635
65175SOL     OW 5838   9.314   0.759   5.928  0.5628  0.4463 -0.3532
65175SOL    HW1 5839   9.383   0.726   5.871  0.9958 -1.1431  1.0101
65175SOL    HW2 5840   9.234   0.753   5.876  1.0727 -0.1612 -1.0811
65176SOL     OW 5841   4.113  10.372  11.249  0.1358 -0.5523 -0.6918
65176SOL    HW1 5842   4.187  10.344  11.304 -0.6128  0.0134  0.6553
65176SOL    HW2 5843   4.104  10.302  11.184  1.3442 -1.0247 -0.3743
65177SOL     OW 5844   1.187   9.983   7.951  0.2219  0.5236 -0.6037
65177SOL    HW1 5845   1.123  10.054   7.940 -1.0252 -0.6330 -1.1057
65177SOL    HW2 5846   1.227   9.974   7.864 -0.9314 -0.5635 -1.0514
65178SOL     OW 5847   1.744   4.880   6.031 -0.5510 -0.0283  0.2020
65178SOL    HW1 5848   1.681   4.876   6.103 -1.1933  0.0388 -0.3420
65178SOL    HW2 5849   1.826   4.848   6.069 -1.2663 -1.5677  0.5393
65179SOL     OW 5850  12.019   3.233   1.936  0.3842  0.2847 -0.3010
65179SOL    HW1 5851  12.018   3.286   1.857  2.4633 -0.4539 -0.8850
65179SOL    HW2 5852  12.081   3.162   1.917  0.4505 -0.2792  1.7616
65180SOL     OW 5853   8.555   9.515   3.157 -0.3554 -0.0532 -0.1381
65180SOL    HW1 5854   8.485   9.523   3.093 -1.1217 -0.9149  0.5601
65180SOL    HW2 5855   8.556   9.600   3.203  0.9856  1.0158 -2.0022
65181SOL     OW 5856   7.054  12.550   3.915 -0.3524  0.0595  0.0362
65181SOL    HW1 5857   7.020  12.570   4.002 -0.5384  0.9919 -0.2354
65181SOL    HW2 5858   7.000  12.603   3.856  0.1597 -0.1118 -0.5920
65182SOL     OW 5859  12.219   3.411   1.019 -0.1885 -0.5139  0.0258
65182SOL    HW1 5860  12.174   3.490   0.989 -0.0062 -0.6810 -0.7187
65182SOL    HW2 5861  12.148   3.352   1.044 -0.3605 -0.4465 -0.2903
65183SOL     OW 5862   2.472   2.814  10.264 -0.3243 -0.0287 -0.2989
65183SOL    HW1 5863   2.417   2.746  10.225 -0.8620  1.0671 -1.5235
65183SOL    HW2 5864   2.412   2.866  10.317 -0.8036  1.8175 -2.4737
65184SOL     OW 5865   1.245  12.155   0.125  0.1192  0.2332  0.3486
65184SOL    HW1 5866   1.273  12.113   0.207  2.5610  0.3595 -0.3320
65184SOL    HW2 5867   1.157  12.121   0.109  0.2277 -1.0533  2.1726
65185SOL     OW 5868   5.881   2.994   4.904 -0.2551  0.0180 -0.5205
65185SOL    HW1 5869   5.947   2.925   4.895 -1.4014 -1.2050 -0.0028
65185SOL    HW2 5870   5.865   3.025   4.815 -0.1477 -0.8258 -0.8430
65186SOL     OW 5871   8.103   7.904   0.285  0.2696 -0.0047 -0.0544
65186SOL    HW1 5872   8.077   7.818   0.319 -0.9438  0.5736  0.5445
65186SOL    HW2 5873   8.172   7.933   0.344 -0.0613 -0.1030  0.3802
65187SOL     OW 5874   7.891   8.193   8.297  0.0325  0.0762 -0.7780
65187SOL    HW1 5875   7.796   8.198   8.283 -0.2453 -1.2064  0.4058
65187SOL    HW2 5876   7.906   8.103   8.327  1.2520  0.9892  1.5995
65188SOL     OW 5877   0.326  11.246   2.363 -0.3221  0.1549  0.1953
65188SOL    HW1 5878   0.371  11.247   2.279 -0.3614 -0.4881  0.1591
65188SOL    HW2 5879   0.377  11.304   2.419 -0.3756  0.6983 -0.3052
65189SOL     OW 5880   2.708   1.724   7.721  0.6958 -0.1216 -0.0485
65189SOL    HW1 5881   2.681   1.800   7.670 -0.2022 -0.8658 -0.7235
65189SOL    HW2 5882   2.768   1.677   7.664  0.6920 -0.2869  0.0833
65190SOL     OW 5883   0.333   3.122   6.401  0.4062  0.3379 -0.3012
65190SOL    HW1 5884   0.325   3.146   6.494  0.4090 -2.1849  0.4329
65190SOL    HW2 5885   0.426   3.136   6.381  0.6457 -0.1171  0.4247
65191SOL     OW 5886   1.734   3.416   0.186 -0.4253 -0.5907 -0.1748
65191SOL    HW1 5887   1.774   3.466   0.257  1.2614 -1.3453 -0.5368
65191SOL    HW2 5888   1.783   3.334   0.184 -1.1394 -1.0124 -1.5268
65192SOL     OW 5889   5.639   8.245  10.077  0.7011  0.2347  0.3594
65192SOL    HW1 5890   5.627   8.274   9.986  0.4271 -1.1148 -0.0572
65192SOL    HW2 5891   5.713   8.296  10.109  0.0084  1.6543 -0.2003
65193SOL     OW 5892  10.456   7.728   6.293 -0.0086 -0.1763  0.1513
65193SOL    HW1 5893  10.430   7.701   6.205  1.3215  1.9439 -0.9718
65193SOL    HW2 5894  10.465   7.823   6.287 -0.0933  0.0528  2.6661
65194SOL     OW 5895   1.719   9.198  11.083 -0.3826 -0.0389 -0.0648
65194SOL    HW1 5896   1.751   9.286  11.066 -0.2522  0.0929  0.8026
65194SOL    HW2 5897   1.652   9.183  11.017  1.4588 -0.3267 -1.9556
65195SOL     OW 5898  11.025  11.955   5.888  0.0405 -0.0426 -0.3900
65195SOL    HW1 5899  11.106  11.974   5.935  0.2744 -0.6073 -0.5580
65195SOL    HW2 5900  11.027  12.013   5.812  0.2373  0.0178 -0.3372
65196SOL     OW 5901   9.808   2.752   0.272  0.0886  0.2145 -0.1881
65196SOL    HW1 5902   9.900   2.732   0.256 -0.0511 -1.4590  0.9624
65196SOL    HW2 5903   9.787   2.709   0.354 -2.1176 -0.7331 -1.1582
65197SOL     OW 5904   3.455  12.780   3.508 -0.5650 -0.0379 -0.3265
65197SOL    HW1 5905   3.385  12.839   3.481  0.1958  0.6992 -0.7458
65197SOL    HW2 5906   3.528  12.838   3.531 -0.5957 -0.7302  1.6331
65198SOL     OW 5907  11.409  12.360   2.749 -0.2766  0.4245 -0.0641
65198SOL    HW1 5908  11.471  12.333   2.816 -1.1055 -0.5114  0.3598
65198SOL    HW2 5909  11.452  12.433   2.704  1.3406 -0.5353 -0.1494
65199SOL     OW 5910  11.671   2.159   5.189  0.0039  0.3287 -0.2583
65199SOL    HW1 5911  11.718   2.179   5.108 -1.1404  0.8478 -0.8283
65199SOL    HW2 5912  11.594   2.110   5.160 -1.6978  2.5618  0.1921
65200SOL     OW 5913  11.957   4.976   0.093  0.1753 -0.9075 -0.5339
65200SOL    HW1 5914  11.953   4.946   0.002 -0.0527 -2.6705  0.0265
65200SOL    HW2 5915  12.002   4.906   0.140 -1.3562 -0.9120  1.0458
65201SOL     OW 5916   9.260   9.642   3.963  0.0116  0.1758  0.0044
65201SOL    HW1 5917   9.258   9.546   3.959 -1.1203  0.1437  0.8762
65201SOL    HW2 5918   9.310   9.660   4.043 -0.1145  0.3095  0.0518
65202SOL     OW 5919   0.033   2.058   8.019  0.1074 -0.1130 -0.1635
65202SOL    HW1 5920   0.110   2.012   8.051  2.0589  1.7465 -1.8902
65202SOL    HW2 5921   0.010   2.118   8.090  0.5245 -0.3622  0.1868
65203SOL     OW 5922   2.700   3.495  12.288 -0.1357 -0.1302  0.0975
65203SOL    HW1 5923   2.782   3.447  12.287  0.6252  1.1284  0.1674
65203SOL    HW2 5924   2.702   3.544  12.370 -0.6278  0.4602 -0.2328
65204SOL     OW 5925   6.870  10.659   5.843 -0.1780 -0.2055  0.5434
65204SOL    HW1 5926   6.880  10.742   5.795 -2.2658 -0.0350  0.2974
65204SOL    HW2 5927   6.780  10.633   5.825  0.6764 -3.0133 -0.1128
65205SOL     OW 5928   5.157   0.607   6.913  0.5434  0.6544 -0.3922
65205SOL    HW1 5929   5.172   0.683   6.856 -0.4172  1.2201  0.0950
65205SOL    HW2 5930   5.063   0.607   6.929  0.9149  1.1802  2.1205
65206SOL     OW 5931  11.462   7.605   6.538 -0.3244  0.0756  0.0561
65206SOL    HW1 5932  11.469   7.590   6.444 -0.6725  0.6238 -0.0655
65206SOL    HW2 5933  11.385   7.554   6.565  1.2958 -2.2511  0.5533
65207SOL     OW 5934  12.949   6.863   1.403 -0.7246  0.0429 -0.1063
65207SOL    HW1 5935  12.867   6.910   1.388 -0.3928  1.1318  1.3068
65207SOL    HW2 5936  12.996   6.871   1.320 -1.4760  0.5904 -0.4931
65208SOL     OW 5937  10.691  12.226   5.948 -0.0663 -0.5653  0.3917
65208SOL    HW1 5938  10.639  12.151   5.978 -1.4897  0.0154 -0.5045
65208SOL    HW2 5939  10.672  12.295   6.011 -0.8239 -0.1974 -0.2210
65209SOL     OW 5940  10.668   9.626   6.707 -0.2226 -0.1024 -0.7267
65209SOL    HW1 5941  10.712   9.599   6.626  0.7790  1.3171 -0.6889
65209SOL    HW2 5942  10.714   9.580   6.777  0.7301  0.7771 -0.7547
65210SOL     OW 5943   4.265   4.230   3.115 -0.0764  0.1989 -0.5026
65210SOL    HW1 5944   4.208   4.271   3.049 -0.1509  0.8127 -0.0672
65210SOL    HW2 5945   4.232   4.262   3.198 -0.9385 -1.7403 -0.0356
65211SOL     OW 5946   5.728   5.676   9.396  0.2425 -0.1358 -0.2789
65211SOL    HW1 5947   5.803   5.653   9.340  1.3110  1.7589  0.2732
65211SOL    HW2 5948   5.765   5.679   9.485 -0.6809  0.0183  0.1076
65212SOL     OW 5949   0.691   1.265   3.690 -0.5091  0.6208  0.1475
65212SOL    HW1 5950   0.695   1.319   3.769 -2.3651  0.7530  0.1934
65212SOL    HW2 5951   0.640   1.316   3.628 -0.1465 -0.0233 -0.6916
65213SOL     OW 5952  12.714  12.349   1.144  0.2883 -0.4442 -0.0021
65213SOL    HW1 5953  12.712  12.444   1.157 -0.3318 -0.5545  0.7624
65213SOL    HW2 5954  12.794  12.321   1.187  0.0472 -0.3675  0.5016
65214SOL     OW 5955   1.646  11.852   7.752 -0.0537  0.8495 -0.7143
65214SOL    HW1 5956   1.707  11.860   7.679 -0.0701  1.8187 -0.6394
65214SOL    HW2 5957   1.643  11.758   7.771  0.8223  0.7086 -1.2125
65215SOL     OW 5958   6.704  11.667  11.633 -0.4817 -0.0819 -0.6416
65215SOL    HW1 5959   6.709  11.613  11.712 -0.3301 -0.4159 -0.8770
65215SOL    HW2 5960   6.626  11.636  11.587 -0.2766 -0.2429 -0.8808
65216SOL     OW 5961   3.093   5.696   9.878  0.4069 -0.0435 -0.8538
65216SOL    HW1 5962   3.186   5.680   9.864  0.6563  1.0599 -0.5630
65216SOL    HW2 5963   3.089   5.754   9.954 -0.6008 -1.0805 -0.0649
65217SOL     OW 5964   9.995   3.847   9.429  0.4720  0.7569  0.3378
65217SOL    HW1 5965  10.069   3.907   9.439 -0.2891  1.4776  1.8495
65217SOL    HW2 5966   9.920   3.893   9.467 -0.9493  0.3242 -1.7120
65218SOL     OW 5967  12.614   2.513   0.672 -0.4081  0.1758  0.3020
65218SOL    HW1 5968  12.526   2.477   0.676 -0.6779  0.8227  0.2601
65218SOL    HW2 5969  12.611   2.591   0.728 -0.4888  1.4963 -1.4424
65219SOL     OW 5970   5.848   0.975   9.102  0.1141 -0.0911  0.5011
65219SOL    HW1 5971   5.802   0.895   9.128  2.0259 -1.2090  0.6069
65219SOL    HW2 5972   5.908   0.992   9.174  2.3977 -0.7593 -1.1537
65220SOL     OW 5973   9.398   5.072   9.664 -0.3649 -0.2994  0.3994
65220SOL    HW1 5974   9.477   5.102   9.709  1.3710 -3.3096 -0.3093
65220SOL    HW2 5975   9.414   5.092   9.572 -0.5448 -0.6191  0.2946
65221SOL     OW 5976   7.038   7.563   6.292 -0.1867 -0.2937  0.0978
65221SOL    HW1 5977   7.026   7.658   6.293  1.8907  0.0113  0.5467
65221SOL    HW2 5978   6.993   7.533   6.213  0.7728  1.3218 -1.1080
65222SOL     OW 5979  11.487  11.019   8.663  0.6271 -0.8306  0.3581
65222SOL    HW1 5980  11.516  10.950   8.723  1.5507 -0.7668  0.0074
65222SOL    HW2 5981  11.522  10.993   8.578 -0.1466 -0.6038 -0.0347
65223SOL     OW 5982   9.592   1.276   6.845 -0.4188  0.0294  0.1022
65223SOL    HW1 5983   9.622   1.216   6.913  1.2806 -1.4973 -1.8889
65223SOL    HW2 5984   9.573   1.358   6.892 -0.6019 -1.3419  2.5509
65224SOL     OW 5985   4.574   6.540   9.272 -0.7823  0.1186 -0.1606
65224SOL    HW1 5986   4.560   6.632   9.249 -0.7599  0.5516  1.4408
65224SOL    HW2 5987   4.486   6.504   9.282 -0.8160 -0.3079 -1.6452
65225SOL     OW 5988   7.889   8.052  10.687 -0.2124  0.5700  0.2993
65225SOL    HW1 5989   7.870   8.051  10.593 -1.2123 -0.8723  0.4838
65225SOL    HW2 5990   7.861   8.139  10.716 -2.3708  0.1387 -0.3123
65226SOL     OW 5991   6.980   1.906  10.267 -0.2015  0.3923 -0.2252
65226SOL    HW1 5992   6.978   2.002  10.263 -1.4494  0.5105  1.8913
65226SOL    HW2 5993   6.902   1.883  10.317  1.1564 -1.6078  1.0880
65227SOL     OW 5994   5.001  10.346  12.982 -0.1313 -0.4288  0.1533
65227SOL    HW1 5995   4.982  10.434  13.015 -0.7817 -0.8057  0.8240
65227SOL    HW2 5996   5.096  10.338  12.990 -0.2649 -0.6040  2.3047
65228SOL     OW 5997   2.413   5.635  12.701 -0.4691  0.1179 -0.3168
65228SOL    HW1 5998   2.495   5.652  12.654 -0.2655 -0.0503 -0.0252
65228SOL    HW2 5999   2.422   5.546  12.734  1.0354  1.4015  3.2860
65229SOL     OW 6000  10.179   8.613   8.756  0.1387  0.5089  0.4256
65229SOL    HW1 6001  10.135   8.538   8.795  0.8939 -0.2511 -0.1488
65229SOL    HW2 6002  10.203   8.669   8.830 -1.3680  0.7291  0.7867
65230SOL     OW 6003   2.420  11.159   8.800 -0.2319 -0.3297 -0.0846
65230SOL    HW1 6004   2.481  11.116   8.859  0.0761  0.2854  0.0467
65230SOL    HW2 6005   2.460  11.152   8.713  1.4179  2.4708  0.3466
65231SOL     OW 6006  11.611   9.298   2.643 -0.0472 -0.2136  0.2671
65231SOL    HW1 6007  11.558   9.336   2.573  1.8635 -3.4673 -3.3546
65231SOL    HW2 6008  11.599   9.357   2.717 -4.0238  2.3308 -2.0332
65232SOL     OW 6009   7.616   8.816   2.630 -0.1519 -0.0126 -0.1971
65232SOL    HW1 6010   7.535   8.769   2.651 -1.1338  1.4902 -0.4371
65232SOL    HW2 6011   7.626   8.805   2.535  0.2921 -0.7209 -0.0774
65233SOL     OW 6012   3.277   6.978  11.007  0.1269 -0.5711 -0.7610
65233SOL    HW1 6013   3.270   6.968  10.912 -1.8376 -2.1657 -0.4941
65233SOL    HW2 6014   3.227   6.906  11.043  0.5567  0.1885  1.5217
65234SOL     OW 6015   7.771   4.058   2.754  0.7263  0.5626  0.2225
65234SOL    HW1 6016   7.770   3.963   2.768 -0.4109  0.6394  0.7429
65234SOL    HW2 6017   7.859   4.085   2.783  0.5138 -0.1168  1.5907
65235SOL     OW 6018   4.938   5.957   7.268  0.1748  0.0603  0.7109
65235SOL    HW1 6019   4.936   6.035   7.325  0.2249  0.8410 -0.3218
65235SOL    HW2 6020   5.028   5.954   7.235 -0.0393  0.0241  0.1268
65236SOL     OW 6021   9.562   8.807   3.908  0.4620 -0.3623  0.6718
65236SOL    HW1 6022   9.649   8.782   3.877 -0.5054 -1.0538 -1.7523
65236SOL    HW2 6023   9.553   8.762   3.992  2.5211 -0.0364  1.1157
65237SOL     OW 6024   4.611   3.647   3.240  0.5025 -0.2005  0.0574
65237SOL    HW1 6025   4.598   3.709   3.312 -0.5141 -1.0151  0.6006
65237SOL    HW2 6026   4.565   3.568   3.268 -0.5558 -0.3059 -1.7888
65238SOL     OW 6027  10.909   4.633   2.837  0.3650  0.0109  0.0408
65238SOL    HW1 6028  10.817   4.628   2.813  0.3312 -0.7936  0.3291
65238SOL    HW2 6029  10.923   4.561   2.898  1.6684 -1.2632 -1.6507
65239SOL     OW 6030   7.887   4.578   8.202  0.3623  0.3211  0.3101
65239SOL    HW1 6031   7.792   4.588   8.197  0.5368  1.9310 -0.1083
65239SOL    HW2 6032   7.911   4.535   8.119 -0.1360 -1.6030  1.1016
65240SOL     OW 6033   2.350   6.891   1.949 -0.5801  0.1119 -0.2195
65240SOL    HW1 6034   2.292   6.914   2.022 -0.0711 -0.8087  0.4905
65240SOL    HW2 6035   2.391   6.974   1.925 -2.0114  0.7443 -0.5944
65241SOL     OW 6036  11.403   1.267   0.406 -0.2310  0.2751  0.5179
65241SOL    HW1 6037  11.329   1.208   0.389  0.7842 -0.6247 -1.0284
65241SOL    HW2 6038  11.474   1.232   0.352  1.1236  1.5343  1.4199
65242SOL     OW 6039   3.695   6.958  12.123 -0.0864  0.1064  0.2608
65242SOL    HW1 6040   3.696   6.951  12.219  0.3133 -0.3365  0.2240
65242SOL    HW2 6041   3.610   6.923  12.098 -0.2891  0.4366  0.4649
65243SOL     OW 6042   7.859   4.956   5.760  0.0927  0.2479  0.0478
65243SOL    HW1 6043   7.909   4.875   5.770  1.9543  1.5117  1.9258
65243SOL    HW2 6044   7.921   5.018   5.723 -0.6272  1.3677  0.6622
65244SOL     OW 6045  10.081  10.570  12.960  0.0864 -0.3085  0.3316
65244SOL    HW1 6046  10.037  10.486  12.967 -0.5396 -0.2721 -2.2852
65244SOL    HW2 6047  10.073  10.595  12.868  3.9128  0.6400  0.0646
65245SOL     OW 6048   1.243   7.170   0.905 -0.1388  0.1123 -0.3239
65245SOL    HW1 6049   1.292   7.107   0.852  0.3384 -0.3703  0.6703
65245SOL    HW2 6050   1.183   7.116   0.957  1.1569  0.3212  1.4885
65246SOL     OW 6051   8.536  11.055   1.436 -0.3290  0.2315 -0.1258
65246SOL    HW1 6052   8.477  11.042   1.511 -1.1668 -0.7301 -0.9136
65246SOL    HW2 6053   8.482  11.101   1.372  0.6467  1.8312  0.1616
65247SOL     OW 6054   0.268  10.969  10.141 -0.1488 -0.6016 -0.5044
65247SOL    HW1 6055   0.225  10.985  10.056 -0.3861 -0.9436 -0.4510
65247SOL    HW2 6056   0.199  10.929  10.195  0.3385 -1.5237 -0.5432
65248SOL     OW 6057  10.437   6.278   9.198  0.3687  0.5280 -0.2423
65248SOL    HW1 6058  10.436   6.194   9.152 -3.0242  0.1725  0.2815
65248SOL    HW2 6059  10.348   6.312   9.189  0.8857  2.7433  1.9657
65249SOL     OW 6060   2.555   8.570   5.049 -0.3625  0.2725 -0.1586
65249SOL    HW1 6061   2.497   8.502   5.016 -0.6887  0.4052  0.1350
65249SOL    HW2 6062   2.643   8.540   5.026 -0.1994 -1.8480  2.6947
65250SOL     OW 6063  12.292   3.348  12.175  0.2401  0.1921 -0.0910
65250SOL    HW1 6064  12.221   3.314  12.229  0.0392  1.1200  0.2569
65250SOL    HW2 6065  12.311   3.279  12.112 -2.4229  0.7012 -1.5931
65251SOL     OW 6066  12.728  10.043   1.969 -0.2388  0.4004  0.2036
65251SOL    HW1 6067  12.754  10.027   1.878 -1.3190 -2.0174  0.2527
65251SOL    HW2 6068  12.685   9.963   1.996 -1.8414  1.8460  2.2136
65252SOL     OW 6069   9.349  11.741   9.446  0.3406  0.2927  0.5410
65252SOL    HW1 6070   9.358  11.651   9.474  0.9742  0.0444 -0.4231
65252SOL    HW2 6071   9.407  11.791   9.503  0.2300  0.0478  0.8642
65253SOL     OW 6072  11.804   8.404   5.819 -0.1366  0.3050 -0.0067
65253SOL    HW1 6073  11.844   8.398   5.733  2.4782  1.5917  1.0037
65253SOL    HW2 6074  11.855   8.345   5.874 -2.2977 -1.1557  0.5608
65254SOL     OW 6075   5.861   0.216   5.174  0.1038 -0.2529  0.2683
65254SOL    HW1 6076   5.881   0.260   5.092  0.2325  1.4439  1.1680
65254SOL    HW2 6077   5.770   0.188   5.165  0.1391 -0.1347 -0.4687
65255SOL     OW 6078   1.339   8.060  11.810  0.2282 -0.5283 -0.0296
65255SOL    HW1 6079   1.404   8.016  11.865  0.3472 -0.9201 -0.4751
65255SOL    HW2 6080   1.386   8.134  11.772 -0.0071  0.0609  0.8197
65256SOL     OW 6081   9.605  11.006   1.342 -0.6635  0.0229  0.2664
65256SOL    HW1 6082   9.614  10.938   1.408  0.7067  0.2910  0.3907
65256SOL    HW2 6083   9.584  10.958   1.261  0.0273 -0.5283  0.4061
65257SOL     OW 6084   2.665  10.897   9.666  0.3009 -0.6379 -0.5059
65257SOL    HW1 6085   2.617  10.978   9.683  1.6935  0.7745 -2.7409
65257SOL    HW2 6086   2.722  10.886   9.742  1.7976  1.8497 -1.1698
65258SOL     OW 6087   0.131   1.716   2.456  0.0077 -0.2963 -0.7034
65258SOL    HW1 6088   0.065   1.741   2.390 -0.4626 -1.8579 -0.8602
65258SOL    HW2 6089   0.206   1.688   2.405  0.0690 -0.4125 -0.5484
65259SOL     OW 6090   5.076   9.152  11.943  0.6348 -0.1328  0.6902
65259SOL    HW1 6091   5.102   9.237  11.907 -1.6814  1.2913  2.1375
65259SOL    HW2 6092   5.002   9.125  11.889  1.4286 -1.3406  0.1676
65260SOL     OW 6093   2.656   4.439  12.641  0.2472 -0.1366  0.2693
65260SOL    HW1 6094   2.721   4.460  12.707 -1.4217  3.9092  0.8825
65260SOL    HW2 6095   2.585   4.396  12.690 -0.3249  1.4586  0.8869
65261SOL     OW 6096   3.720   8.468  10.329  0.0842 -0.1566 -0.0858
65261SOL    HW1 6097   3.656   8.519  10.378 -0.7705 -0.2121 -1.0986
65261SOL    HW2 6098   3.796   8.463  10.386 -0.7144  0.1522  1.0302
65262SOL     OW 6099   5.962   8.433   6.377  0.1016 -0.1355 -0.1716
65262SOL    HW1 6100   5.982   8.406   6.467  0.8420 -1.4291 -0.7001
65262SOL    HW2 6101   6.044   8.421   6.329 -0.2781  0.5624 -1.0263
65263SOL     OW 6102   7.543   8.792   9.916  0.1373  0.4719  0.2229
65263SOL    HW1 6103   7.472   8.810   9.855 -0.5463  0.9058  1.1209
65263SOL    HW2 6104   7.502   8.796  10.002  1.0016 -0.4964  0.6997
65264SOL     OW 6105  12.540   9.787   6.808 -0.4004  0.3121  0.2813
65264SOL    HW1 6106  12.445   9.795   6.811 -0.3763  0.5956  0.4186
65264SOL    HW2 6107  12.558   9.734   6.731 -0.6302  0.9542 -0.2202
65265SOL     OW 6108  12.134   0.652   9.658  0.5314 -0.1116 -0.5382
65265SOL    HW1 6109  12.201   0.601   9.613 -0.6312 -1.0136 -1.3165
65265SOL    HW2 6110  12.052   0.627   9.615 -0.3586  0.6550  0.6442
65266SOL     OW 6111   8.811  12.088   8.043 -0.3646  0.2759 -0.2041
65266SOL    HW1 6112   8.768  12.093   7.958  0.3647  0.0991 -0.5860
65266SOL    HW2 6113   8.858  12.005   8.042  0.5714  0.7840 -0.0801
65267SOL     OW 6114   4.888   2.223   3.421  0.1166  0.0263 -0.0143
65267SOL    HW1 6115   4.879   2.318   3.410  1.3884  0.1296 -0.3292
65267SOL    HW2 6116   4.952   2.213   3.491  1.8019 -0.5462 -1.5575
65268SOL     OW 6117   9.889  10.067   1.821  0.0163  0.3293 -0.1343
65268SOL    HW1 6118   9.857  10.133   1.882 -1.0396  0.1331 -0.4542
65268SOL    HW2 6119   9.844  10.087   1.738 -2.4777 -2.3109  0.3960
65269SOL     OW 6120   4.363   3.478   7.326 -0.6473  0.0143  0.2657
65269SOL    HW1 6121   4.298   3.481   7.256  1.2438  0.0868 -1.5937
65269SOL    HW2 6122   4.332   3.408   7.384 -1.5147 -1.1262 -1.4729
65270SOL     OW 6123   9.703   0.724   6.695 -0.1549  0.1940  0.3296
65270SOL    HW1 6124   9.686   0.632   6.675 -1.2683  0.0343  1.7748
65270SOL    HW2 6125   9.784   0.745   6.649 -0.7733 -1.0246 -1.3939
65271SOL     OW 6126   7.861  11.975   9.000  0.3999  0.7114  0.2460
65271SOL    HW1 6127   7.768  11.997   8.996  0.4528  1.1928  1.3857
65271SOL    HW2 6128   7.864  11.882   9.018  0.1715  0.1419 -2.2196
65272SOL     OW 6129   8.768   6.989   7.358  0.1881  0.2947 -0.3517
65272SOL    HW1 6130   8.683   6.970   7.319 -0.2914 -0.7714  1.1506
65272SOL    HW2 6131   8.750   7.006   7.450  1.7019 -0.9862  0.2263
65273SOL     OW 6132   9.293   4.504   4.547  0.3785  0.2240 -0.3393
65273SOL    HW1 6133   9.212   4.508   4.496  0.9894 -3.8832 -2.0020
65273SOL    HW2 6134   9.266   4.468   4.632  0.3436 -0.3571 -0.5948
65274SOL     OW 6135  11.878   2.187   3.933 -0.1794 -0.5073  0.2168
65274SOL    HW1 6136  11.863   2.276   3.966 -0.1039 -0.3890 -0.0600
65274SOL    HW2 6137  11.956   2.196   3.877 -1.2893 -0.3410 -1.3832
65275SOL     OW 6138   6.596   4.621   4.726 -0.0414  0.8228  0.3040
65275SOL    HW1 6139   6.596   4.714   4.747 -0.4002  0.8805  0.0618
65275SOL    HW2 6140   6.597   4.577   4.812  0.6275  1.0451  0.4112
65276SOL     OW 6141   3.027   5.985   4.564  0.9141 -0.4910 -0.5472
65276SOL    HW1 6142   3.110   6.016   4.599 -0.3541 -0.0406  2.3762
65276SOL    HW2 6143   3.001   6.053   4.501  0.7922  1.7061  1.7029
65277SOL     OW 6144   5.941   5.890   7.284 -1.0341 -0.6709  0.4461
65277SOL    HW1 6145   5.967   5.800   7.298 -0.6282 -0.6442 -0.1200
65277SOL    HW2 6146   5.947   5.903   7.189 -0.2947  0.1852  0.5989
65278SOL     OW 6147  12.508   1.815   8.259  0.7495 -0.1093 -0.3880
65278SOL    HW1 6148  12.604   1.818   8.250  1.0139 -1.9272  1.3470
65278SOL    HW2 6149  12.492   1.744   8.320 -1.6515  1.3047  0.7426
65279SOL     OW 6150   3.338  12.962  10.093 -0.7744 -0.0790 -0.5201
65279SOL    HW1 6151   3.365  12.872  10.107  0.9579  0.2698 -1.4179
65279SOL    HW2 6152   3.389  13.012  10.156  0.2386  0.5289 -1.7857
65280SOL     OW 6153  11.454   8.213   5.285 -0.2594  0.2951  0.1248
65280SOL    HW1 6154  11.501   8.292   5.312  0.0160  0.1021  0.2152
65280SOL    HW2 6155  11.417   8.235   5.199 -0.6038  0.6905  0.3726
65281SOL     OW 6156   6.082   8.351   7.983  0.2863 -0.2852  0.0574
65281SOL    HW1 6157   6.062   8.257   7.980 -1.0502 -0.0001 -0.8010
65281SOL    HW2 6158   5.997   8.394   7.988  0.8475  0.9148 -0.2579
65282SOL     OW 6159   2.235   1.308   9.099 -0.1494 -0.4190  0.2036
65282SOL    HW1 6160   2.293   1.329   9.172 -0.6795  0.1553  0.4712
65282SOL    HW2 6161   2.161   1.368   9.109 -1.6193 -2.2220  0.8363
65283SOL     OW 6162   7.752   1.917   8.130 -0.7758  0.2076 -0.3175
65283SOL    HW1 6163   7.795   1.880   8.207  1.3141 -0.3914 -1.7098
65283SOL    HW2 6164   7.659   1.917   8.153 -0.2621 -0.3913  2.0087
65284SOL     OW 6165   4.442  10.570   3.871  0.2729  0.0914  0.0013
65284SOL    HW1 6166   4.387  10.585   3.948  0.6943 -0.7288  0.4808
65284SOL    HW2 6167   4.430  10.478   3.850  0.4914  0.2069 -0.6682
65285SOL     OW 6168   2.179   3.299   1.810  0.0122 -0.2331 -0.1075
65285SOL    HW1 6169   2.092   3.321   1.843 -0.1464 -0.6767 -0.2203
65285SOL    HW2 6170   2.230   3.379   1.820 -0.2674 -0.1166  0.4378
65286SOL     OW 6171   4.609   4.963   4.731 -0.7553 -0.4618  0.1680
65286SOL    HW1 6172   4.636   4.875   4.704 -0.1379 -0.1086 -0.4116
65286SOL    HW2 6173   4.681   4.996   4.784 -1.1820 -0.4669  0.7632
65287SOL     OW 6174   4.430   8.905  10.960  0.3214 -0.2126 -0.3900
65287SOL    HW1 6175   4.513   8.952  10.974  0.8278 -1.6474  2.0663
65287SOL    HW2 6176   4.384   8.957  10.894  2.1168  2.0015 -0.0426
65288SOL     OW 6177   5.340   1.956   4.053 -0.2741 -0.3340 -0.0080
65288SOL    HW1 6178   5.271   1.970   4.118  1.5803  0.8476  1.8487
65288SOL    HW2 6179   5.349   1.861   4.047 -2.1073 -0.5092 -0.4033
65289SOL     OW 6180  11.196   1.648   2.144  0.6482  0.4414  0.4504
65289SOL    HW1 6181  11.216   1.725   2.091  0.5643  0.1570 -0.0009
65289SOL    HW2 6182  11.281   1.617   2.175  0.6396  1.0351  1.0962
65290SOL     OW 6183   9.324  10.707   3.310  0.1482  0.2604  0.0497
65290SOL    HW1 6184   9.297  10.793   3.276  0.2843 -0.2931 -1.5552
65290SOL    HW2 6185   9.253  10.681   3.368  0.1998  1.5414  0.7193
65291SOL     OW 6186   4.269   8.158   3.095  0.1008  0.2833  0.6747
65291SOL    HW1 6187   4.363   8.141   3.090 -0.1006 -1.0280  0.8970
65291SOL    HW2 6188   4.242   8.177   3.006  0.2709 -1.2337  0.2685
65292SOL     OW 6189  11.786   3.601   1.849 -0.2730 -0.5255  0.3981
65292SOL    HW1 6190  11.854   3.668   1.841  0.7836 -1.6077  0.0290
65292SOL    HW2 6191  11.716   3.643   1.899  0.5222  0.7232  0.4862
65293SOL     OW 6192   1.883   6.619  11.467  0.5274  0.4981  0.4284
65293SOL    HW1 6193   1.962   6.653  11.424  0.2630  1.8376  0.9514
65293SOL    HW2 6194   1.833   6.577  11.397  1.8959 -0.7911  0.1710
65294SOL     OW 6195   1.461   7.972   5.620  0.1893  0.0789  0.2234
65294SOL    HW1 6196   1.500   7.996   5.704 -0.0425  2.3211 -0.2505
65294SOL    HW2 6197   1.400   7.901   5.641 -0.7896  1.4127  2.1707
65295SOL     OW 6198   1.249   2.043   4.487  0.3977  0.3969  0.3217
65295SOL    HW1 6199   1.321   2.106   4.482 -1.4584  2.5842 -1.7398
65295SOL    HW2 6200   1.216   2.052   4.576 -0.1476  2.9363 -0.0328
65296SOL     OW 6201   0.273  10.719   5.418 -0.3733 -0.6263 -0.0284
65296SOL    HW1 6202   0.293  10.700   5.509 -1.5087  0.2527  0.4226
65296SOL    HW2 6203   0.298  10.811   5.407 -1.9818 -0.1560 -0.0524
65297SOL     OW 6204   7.106   2.982  11.482  0.2157 -0.4696  0.1840
65297SOL    HW1 6205   7.146   3.029  11.555 -0.6503  1.3042 -0.4263
65297SOL    HW2 6206   7.037   2.928  11.523  0.7016 -0.6237  0.8170
65298SOL     OW 6207   0.221   1.911   1.665 -0.1609  0.4225 -0.5819
65298SOL    HW1 6208   0.305   1.874   1.693  0.3750  1.5533 -0.6263
65298SOL    HW2 6209   0.181   1.944   1.745  0.2713  1.4858 -0.7810
65299SOL     OW 6210   4.331   6.355   3.894  0.2954  0.6503 -0.6662
65299SOL    HW1 6211   4.364   6.287   3.835 -1.7223 -0.1736 -0.8928
65299SOL    HW2 6212   4.397   6.360   3.963 -0.7212 -3.5817  0.9131
65300SOL     OW 6213   3.262  11.413   6.341 -0.1302  0.2302  0.3720
65300SOL    HW1 6214   3.210  11.431   6.419  0.5291 -0.2199  0.9234
65300SOL    HW2 6215   3.237  11.324   6.315  2.1455 -1.0225  2.1216
65301SOL     OW 6216  11.276   5.644   4.647  0.1734 -0.1968  0.5548
65301SOL    HW1 6217  11.299   5.641   4.554  1.6435 -0.5382  0.9105
65301SOL    HW2 6218  11.180   5.644   4.648  0.1400 -0.1995 -0.9559
65302SOL     OW 6219   2.201   5.012   9.766  0.1712  0.8562 -0.5249
65302SOL    HW1 6220   2.125   4.958   9.788 -0.6939  1.0765 -2.7480
65302SOL    HW2 6221   2.265   4.951   9.732  0.8659  0.7388  0.8965
65303SOL     OW 6222   0.369   6.031   4.099 -0.0612 -0.9537 -0.1004
65303SOL    HW1 6223   0.309   6.032   4.025  1.3547 -0.7265 -1.2941
65303SOL    HW2 6224   0.413   6.116   4.096 -0.3331 -0.7481  1.3108
65304SOL     OW 6225  10.814   7.956   5.238  0.5117  0.6298  0.3667
65304SOL    HW1 6226  10.767   7.926   5.316 -0.1304  1.6590  0.3996
65304SOL    HW2 6227  10.905   7.931   5.254 -0.0705 -2.0456 -0.0202
65305SOL     OW 6228   6.817   0.139   1.497  0.5600 -0.4658  0.0009
65305SOL    HW1 6229   6.894   0.151   1.553  1.0722  0.4339 -0.8491
65305SOL    HW2 6230   6.767   0.069   1.538  1.6021 -0.7413  0.8339
65306SOL     OW 6231  12.888   5.375  11.507 -0.3763  0.3665  0.4089
65306SOL    HW1 6232  12.822   5.312  11.479  0.6801 -2.4034  3.4307
65306SOL    HW2 6233  12.841   5.435  11.565 -0.9538  0.8955 -0.5956
65307SOL     OW 6234   1.287  11.630   2.559  0.7330 -0.3304  0.2358
65307SOL    HW1 6235   1.268  11.638   2.652  0.8750  0.3202  0.2146
65307SOL    HW2 6236   1.375  11.667   2.549  0.8869 -0.7695 -0.0961
65308SOL     OW 6237  10.745   9.470   7.781  0.3308 -0.3366  0.5059
65308SOL    HW1 6238  10.734   9.545   7.724 -0.1551  2.0018  3.4618
65308SOL    HW2 6239  10.788   9.504   7.859 -0.4012 -3.0014  2.2386
65309SOL     OW 6240   6.376  10.196   7.467 -0.5465 -0.0988 -0.3006
65309SOL    HW1 6241   6.413  10.276   7.504  0.6279 -1.2054  1.0735
65309SOL    HW2 6242   6.349  10.220   7.379 -1.1445  2.0407  0.4175
65310SOL     OW 6243   9.297   9.461   9.948 -0.0655  0.1381  0.2376
65310SOL    HW1 6244   9.213   9.488   9.986  0.5746  1.0185  1.0909
65310SOL    HW2 6245   9.346   9.542   9.938 -0.3591  0.0339 -3.0621
65311SOL     OW 6246   0.386   5.910  11.984 -0.5110 -0.3416 -0.4107
65311SOL    HW1 6247   0.433   5.831  12.010  0.6778  0.4652 -0.0105
65311SOL    HW2 6248   0.454   5.971  11.957 -1.5084 -0.1645 -2.8555
65312SOL     OW 6249  11.882  12.663   3.946 -0.7218 -0.4698  0.0065
65312SOL    HW1 6250  11.948  12.721   3.983 -0.7794 -0.8691  0.7578
65312SOL    HW2 6251  11.836  12.716   3.881  0.5550 -0.2851 -0.7932
65313SOL     OW 6252   2.812   3.414   6.525 -0.6045  0.1383 -0.2680
65313SOL    HW1 6253   2.831   3.401   6.432  0.4384 -1.7076  0.1657
65313SOL    HW2 6254   2.760   3.495   6.527 -0.6704  0.2194 -2.4389
65314SOL     OW 6255  11.223   7.290   4.264 -0.0306  0.0419  0.2329
65314SOL    HW1 6256  11.146   7.254   4.306  0.8174 -0.2881  1.5635
65314SOL    HW2 6257  11.224   7.383   4.288  0.2286 -0.0541  0.5978
65315SOL     OW 6258  12.426   0.619   6.171  0.1326 -0.3598  0.4059
65315SOL    HW1 6259  12.404   0.627   6.264  2.1776  0.2107  0.8817
65315SOL    HW2 6260  12.482   0.542   6.166  0.4769 -0.0703 -0.2712
65316SOL     OW 6261   4.223   1.210   0.006  0.3240 -0.1976 -0.2683
65316SOL    HW1 6262   4.238   1.224  -0.088  4.5788  0.3319  0.2861
65316SOL    HW2 6263   4.209   1.297   0.042  3.9211  0.3532  0.1329
65317SOL     OW 6264   1.401   8.261   7.804  0.6816 -0.2925 -0.4113
65317SOL    HW1 6265   1.490   8.296   7.799  0.8408 -0.6934 -0.3910
65317SOL    HW2 6266   1.379   8.237   7.714  1.3062 -1.9418 -0.1597
65318SOL     OW 6267   3.061  11.921   9.590 -0.7207 -0.7053 -0.2243
65318SOL    HW1 6268   3.042  12.007   9.628  0.4539  0.6900 -2.5327
65318SOL    HW2 6269   3.141  11.893   9.634 -1.2610 -0.7800  0.7390
65319SOL     OW 6270   1.165   4.310   6.327  0.6050 -0.4555 -0.2001
65319SOL    HW1 6271   1.252   4.306   6.368  0.2481 -1.7234  0.4865
65319SOL    HW2 6272   1.112   4.359   6.390  0.4819 -0.9123  0.0567
65320SOL     OW 6273  12.141   4.567   9.509 -0.0320  0.6957  0.3646
65320SOL    HW1 6274  12.237   4.574   9.513  0.1148  0.2906 -1.5373
65320SOL    HW2 6275  12.123   4.542   9.418 -1.9270  0.3153  0.8172
65321SOL     OW 6276   5.744  12.721   6.922  0.0865  0.1275 -0.2450
65321SOL    HW1 6277   5.654  12.703   6.947  0.6393 -0.2798  1.6120
65321SOL    HW2 6278   5.755  12.815   6.935 -0.3193  0.3534 -1.4190
65322SOL     OW 6279  12.276   4.520   2.735 -0.4462  0.1903 -0.1084
65322SOL    HW1 6280  12.209   4.499   2.800  1.8355 -3.6464  1.3157
65322SOL    HW2 6281  12.325   4.593   2.774  0.5089 -1.6360  2.4341
65323SOL     OW 6282   1.520   2.890   1.662  0.4222 -0.4594 -0.1656
65323SOL    HW1 6283   1.531   2.922   1.572  2.5018 -0.6367 -0.0057
65323SOL    HW2 6284   1.562   2.956   1.717  0.7364 -1.2357  0.5392
65324SOL     OW 6285   8.700  11.725   1.630 -0.0668  0.6496  0.1480
65324SOL    HW1 6286   8.685  11.719   1.536 -1.6073  1.3282  0.3213
65324SOL    HW2 6287   8.688  11.817   1.651  0.8016  0.6028  0.9364
65325SOL     OW 6288   5.519   9.644  12.767 -0.1043 -0.0888 -0.9421
65325SOL    HW1 6289   5.603   9.678  12.798  0.5211 -0.8102 -1.7940
65325SOL    HW2 6290   5.467   9.633  12.847  0.5030  0.6402 -0.4321
65326SOL     OW 6291   5.094  10.590  12.613 -0.3053 -0.4571 -0.7161
65326SOL    HW1 6292   5.138  10.509  12.638  0.9533 -0.3380 -2.3724
65326SOL    HW2 6293   5.007  10.563  12.583 -0.6587 -0.9322  0.6577
65327SOL     OW 6294  12.605   7.620  12.206 -1.1787  0.2706  0.1336
65327SOL    HW1 6295  12.566   7.538  12.234  0.7514 -0.8902 -0.3853
65327SOL    HW2 6296  12.673   7.638  12.270  1.6751 -1.1628 -2.2333
65328SOL     OW 6297   3.560   0.030   2.171  0.1458 -0.2332  0.2370
65328SOL    HW1 6298   3.632  -0.025   2.140 -0.7028 -1.9426  1.0960
65328SOL    HW2 6299   3.481  -0.014   2.139 -0.5430  1.2816 -0.2071
65329SOL     OW 6300  11.073   1.887   0.495 -0.4231 -0.0836  0.0284
65329SOL    HW1 6301  11.085   1.831   0.418  1.4891 -0.0303  0.2442
65329SOL    HW2 6302  10.984   1.920   0.486 -1.1759 -2.1588 -0.7580
65330SOL     OW 6303   4.005   7.410   2.097  0.2457  0.0642  0.0524
65330SOL    HW1 6304   3.928   7.441   2.144  0.8862 -0.1752  1.3219
65330SOL    HW2 6305   4.060   7.488   2.086  0.0269  0.1479 -0.4228
65331SOL     OW 6306   8.115  10.934   5.986  0.1493  0.6782  0.0046
65331SOL    HW1 6307   8.171  10.917   6.062 -0.1209 -0.1573  0.0301
65331SOL    HW2 6308   8.175  10.965   5.918  1.4375 -3.9245 -1.3166
65332SOL     OW 6309   5.076  10.541   9.912  0.2879 -0.0257  0.2780
65332SOL    HW1 6310   5.163  10.529   9.873  0.7376 -0.4253  1.3405
65332SOL    HW2 6311   5.071  10.474   9.980 -1.6642 -1.3210 -1.0336
65333SOL     OW 6312   4.180   9.784   7.347  0.0453  0.1109 -0.5646
65333SOL    HW1 6313   4.202   9.866   7.303  0.5834 -0.5663 -1.6094
65333SOL    HW2 6314   4.170   9.808   7.439  3.3390  0.8790 -0.2542
65334SOL     OW 6315   6.601  10.658  11.119  0.1208  0.3518 -0.2263
65334SOL    HW1 6316   6.659  10.648  11.195 -0.7551 -1.5842  0.2593
65334SOL    HW2 6317   6.566  10.570  11.104 -1.2654  1.0931 -1.6525
65335SOL     OW 6318   5.312  10.119  12.246  0.1602  0.7283  0.2896
65335SOL    HW1 6319   5.260  10.044  12.219  3.7693 -1.9413  0.0462
65335SOL    HW2 6320   5.286  10.136  12.337 -1.0130 -0.5261  0.2032
65336SOL     OW 6321   0.040   6.509   6.245 -0.3730  0.4604  0.4479
65336SOL    HW1 6322   0.012   6.512   6.154  0.1261  1.5939  0.3205
65336SOL    HW2 6323  -0.041   6.490   6.294 -0.3458 -2.0237 -0.3241
65337SOL     OW 6324   1.861   7.267   1.747  0.0739 -0.0540  0.1390
65337SOL    HW1 6325   1.846   7.210   1.672 -3.9298  0.3240  0.4011
65337SOL    HW2 6326   1.864   7.355   1.710 -4.3525  0.4158  0.2570
65338SOL     OW 6327   3.738   7.202   6.340  0.3133  0.0059 -0.5096
65338SOL    HW1 6328   3.668   7.189   6.404 -0.0232  0.7816 -0.7055
65338SOL    HW2 6329   3.730   7.293   6.314 -0.0362 -0.4687 -2.2062
65339SOL     OW 6330   6.902   8.736   0.248  0.1233  0.5375  0.1438
65339SOL    HW1 6331   6.919   8.660   0.193 -0.5198  0.3848  0.1563
65339SOL    HW2 6332   6.945   8.716   0.331 -1.1506 -0.3946  0.6013
65340SOL     OW 6333   7.637  12.017   0.854 -0.6925  0.5928  0.2726
65340SOL    HW1 6334   7.644  11.934   0.900  0.1448  1.4630  1.8176
65340SOL    HW2 6335   7.721  12.027   0.809 -0.8285  0.5585  0.0093
65341SOL     OW 6336   4.772   1.327  11.863 -0.3403 -0.0482 -0.3012
65341SOL    HW1 6337   4.739   1.314  11.774 -1.1659  1.0291 -0.1763
65341SOL    HW2 6338   4.780   1.422  11.871 -0.7781 -0.0978  0.9398
65342SOL     OW 6339   4.904   8.394  10.187 -0.2199 -0.2513  0.1656
65342SOL    HW1 6340   4.982   8.447  10.206  1.0919 -2.3901  1.0195
65342SOL    HW2 6341   4.834   8.437  10.235  0.5989  1.1804  0.1473
65343SOL     OW 6342   8.474  10.201   2.824  0.2157 -0.3093  0.0617
65343SOL    HW1 6343   8.385  10.188   2.857 -0.5968  0.3976 -1.7246
65343SOL    HW2 6344   8.506  10.278   2.871 -0.1946 -0.4284  0.5470
65344SOL     OW 6345   7.350   0.200   3.612 -0.1018 -0.4083 -0.9936
65344SOL    HW1 6346   7.305   0.248   3.542 -0.7420 -0.2342 -0.4752
65344SOL    HW2 6347   7.292   0.209   3.688  0.0741 -1.4802 -0.7202
65345SOL     OW 6348  12.247   6.737   2.147  0.1750 -0.2983  0.1345
65345SOL    HW1 6349  12.265   6.819   2.102  0.8677  0.1819  1.2487
65345SOL    HW2 6350  12.333   6.698   2.161  0.1344  0.2625  2.2833
65346SOL     OW 6351   8.917  11.881  12.338  0.2533 -0.5024 -0.1783
65346SOL    HW1 6352   8.889  11.968  12.367  0.2880 -1.3541  2.6074
65346SOL    HW2 6353   8.881  11.873  12.249 -0.4297  2.0149 -0.1926
65347SOL     OW 6354  10.790   3.119   8.855  0.1159  0.1137 -0.2145
65347SOL    HW1 6355  10.740   3.037   8.860 -0.1482  0.3368  2.2047
65347SOL    HW2 6356  10.862   3.106   8.917  1.4438  0.8569 -1.5695
65348SOL     OW 6357   6.743   0.839   3.884 -0.0139  0.2510  0.3810
65348SOL    HW1 6358   6.734   0.934   3.869  1.0973  0.2708 -0.2791
65348SOL    HW2 6359   6.837   0.826   3.897 -0.3277 -0.5682  1.9913
65349SOL     OW 6360   5.246  10.381   0.331 -0.1581 -0.3292  0.1651
65349SOL    HW1 6361   5.243  10.477   0.328 -1.0292 -0.3688 -2.4459
65349SOL    HW2 6362   5.155  10.356   0.347  0.0227 -0.7572  0.5407
65350SOL     OW 6363  10.065   6.079   9.863  0.0177 -0.1800  0.4477
65350SOL    HW1 6364  10.121   6.090   9.940  0.5178  0.6735 -0.0241
65350SOL    HW2 6365  10.067   6.164   9.820 -0.6513 -0.5108 -0.2538
65351SOL     OW 6366  12.303   4.782   9.007 -0.2076  0.7718  0.0146
65351SOL    HW1 6367  12.255   4.702   8.983  0.2017  0.3372  0.5892
65351SOL    HW2 6368  12.392   4.766   8.977 -0.3971  1.5521 -0.9964
65352SOL     OW 6369   0.462  11.338   4.717 -0.0067 -0.0903 -0.1598
65352SOL    HW1 6370   0.471  11.251   4.677 -2.4584  0.0479 -1.1943
65352SOL    HW2 6371   0.404  11.386   4.657  2.5009  2.8668 -0.4902
65353SOL     OW 6372  12.142   3.247   9.336  0.2152 -0.1157  0.7676
65353SOL    HW1 6373  12.140   3.253   9.432  1.5360  0.3920  0.7811
65353SOL    HW2 6374  12.147   3.153   9.318 -3.2202 -0.4888  1.0594
65354SOL     OW 6375  12.080   1.955   9.899  0.5061 -0.3068 -0.5538
65354SOL    HW1 6376  12.087   1.960   9.995 -0.1614 -0.8821 -0.4670
65354SOL    HW2 6377  12.028   1.877   9.883  1.5317 -0.8431 -1.4388
65355SOL     OW 6378   8.851   7.090   4.226  0.3121 -0.3730 -0.1923
65355SOL    HW1 6379   8.789   7.141   4.173  0.5297  0.4827  0.3504
65355SOL    HW2 6380   8.826   7.109   4.316  1.7718  0.5435  0.0498
65356SOL     OW 6381   6.635   9.312   4.926 -0.1633  0.1304 -0.1985
65356SOL    HW1 6382   6.608   9.388   4.978  0.0815  1.0014 -1.2982
65356SOL    HW2 6383   6.596   9.237   4.970 -1.4008  1.0115  0.2521
65357SOL     OW 6384  10.455   2.511   5.721  0.0823 -0.3441 -0.2580
65357SOL    HW1 6385  10.530   2.553   5.763 -0.3727  1.5728 -1.2495
65357SOL    HW2 6386  10.381   2.533   5.779 -0.6537  2.8112 -2.1269
65358SOL     OW 6387   3.354  11.404  12.796  0.2420  0.2877 -0.4281
65358SOL    HW1 6388   3.363  11.499  12.785  1.8540  0.3237  0.7956
65358SOL    HW2 6389   3.323  11.373  12.711  1.8280  1.6753 -1.5781
65359SOL     OW 6390   7.641  11.307   8.132  0.5491  0.2645  0.4805
65359SOL    HW1 6391   7.682  11.308   8.045 -0.6694 -0.6816 -0.1392
65359SOL    HW2 6392   7.604  11.219   8.140  0.0466  0.5639  1.6792
65360SOL     OW 6393   0.641   5.479   7.335  0.8188  0.0559  0.1178
65360SOL    HW1 6394   0.629   5.549   7.400  1.8397  1.0208 -0.6797
65360SOL    HW2 6395   0.736   5.478   7.318  0.6457 -0.5542 -0.9284
65361SOL     OW 6396   2.094  11.404   9.676  0.0622 -0.3987  0.1332
65361SOL    HW1 6397   2.017  11.373   9.627  1.2718 -0.1533 -2.0898
65361SOL    HW2 6398   2.088  11.500   9.671  0.8112 -0.3765 -0.6354
65362SOL     OW 6399   6.251   2.550  12.219 -0.2647 -0.5862 -0.5860
65362SOL    HW1 6400   6.250   2.595  12.303 -1.2907 -0.0462 -0.8670
65362SOL    HW2 6401   6.261   2.458  12.241 -0.7757 -0.4757  0.1389
65363SOL     OW 6402   9.600   5.883   8.823 -0.1383 -0.8067  0.7809
65363SOL    HW1 6403   9.552   5.801   8.836 -2.2663  0.0127 -1.0707
65363SOL    HW2 6404   9.655   5.866   8.747  1.1330 -1.1652  1.7594
65364SOL     OW 6405   7.324  10.639  11.727  0.2052  0.4099  0.1274
65364SOL    HW1 6406   7.408  10.680  11.748  1.0823 -1.1024 -0.2785
65364SOL    HW2 6407   7.339  10.597  11.643 -0.0836 -2.1917  1.2927
65365SOL     OW 6408   1.851   8.625   8.895  0.1783 -0.3819 -0.1837
65365SOL    HW1 6409   1.921   8.577   8.939  0.3627  0.5313  0.5495
65365SOL    HW2 6410   1.861   8.604   8.802  0.0819 -1.9582  0.1391
65366SOL     OW 6411   4.736  12.452   6.421  0.2267 -0.5385 -0.0100
65366SOL    HW1 6412   4.710  12.380   6.364  0.4729 -1.5738  1.1609
65366SOL    HW2 6413   4.823  12.427   6.453  0.0727 -0.0048  0.8594
65367SOL     OW 6414   0.337  12.974  10.753  0.1543  0.0029 -0.5490
65367SOL    HW1 6415   0.313  12.897  10.702 -0.8711 -0.7067  0.9303
65367SOL    HW2 6416   0.432  12.979  10.745  0.2218 -1.3117 -0.8476
65368SOL     OW 6417   5.533   3.546   2.354 -0.0385 -0.2219  0.4554
65368SOL    HW1 6418   5.611   3.553   2.409  0.1164 -0.4031  0.2570
65368SOL    HW2 6419   5.473   3.612   2.390  0.6007  0.6524 -0.0340
65369SOL     OW 6420  11.557  12.557   6.391  0.4863  1.0603 -0.4058
65369SOL    HW1 6421  11.577  12.536   6.300  0.6202 -1.3536  0.1124
65369SOL    HW2 6422  11.472  12.600   6.388 -1.0338 -1.7876 -1.5006
65370SOL     OW 6423   5.614   1.052   8.649 -0.0482  0.5942  0.0896
65370SOL    HW1 6424   5.701   1.016   8.665  0.0797  1.1123  0.5830
65370SOL    HW2 6425   5.610   1.132   8.702 -1.2960 -0.0997  1.1036
65371SOL     OW 6426  12.060   7.916   9.509  0.2156  0.4043  0.1042
65371SOL    HW1 6427  12.032   7.986   9.567 -0.8705 -0.1078  0.2289
65371SOL    HW2 6428  12.155   7.929   9.498  0.0124  1.9583  0.0036
65372SOL     OW 6429   8.369  12.545   3.954  0.4287  0.1666 -0.2127
65372SOL    HW1 6430   8.279  12.578   3.955  0.4006  0.1541 -1.2404
65372SOL    HW2 6431   8.365  12.460   3.996 -0.1142 -0.0078 -0.6209
65373SOL     OW 6432   6.367   7.692   1.592 -0.4684  0.1777  0.3383
65373SOL    HW1 6433   6.312   7.688   1.671 -0.3567  0.7634  0.4513
65373SOL    HW2 6434   6.424   7.768   1.607  0.1347 -0.2137  0.0662
65374SOL     OW 6435   1.258  12.019   0.762  0.1495 -0.0698 -0.0427
65374SOL    HW1 6436   1.185  11.969   0.799  1.1224 -0.8220  0.8819
65374SOL    HW2 6437   1.328  11.955   0.749  0.2646  0.4031 -2.0897
65375SOL     OW 6438   1.525   3.703   4.706 -0.5341  0.0187 -0.8528
65375SOL    HW1 6439   1.493   3.626   4.752  1.0550 -0.8020 -1.0656
65375SOL    HW2 6440   1.513   3.775   4.769  0.2327 -0.8282  0.2901
65376SOL     OW 6441   9.446   5.230   5.854 -0.0168  0.0722 -0.4542
65376SOL    HW1 6442   9.461   5.267   5.941 -0.4734  1.8148 -1.0716
65376SOL    HW2 6443   9.531   5.195   5.827 -0.0958 -1.4319  1.0667
65377SOL     OW 6444   1.688   6.724  12.006  0.0115 -0.9228  0.1877
65377SOL    HW1 6445   1.610   6.723  11.950  0.2343 -0.6665 -0.1312
65377SOL    HW2 6446   1.758   6.756  11.949  0.5617 -2.0565  0.2017
65378SOL     OW 6447   1.513   9.331   0.334  0.4354  0.5150 -0.0277
65378SOL    HW1 6448   1.514   9.375   0.419  1.1387 -0.5641  0.5443
65378SOL    HW2 6449   1.605   9.313   0.315  0.3303  1.1117 -1.2367
65379SOL     OW 6450  10.029  11.486   0.137 -0.7056  0.1310  0.1265
65379SOL    HW1 6451   9.990  11.409   0.179 -0.1522  0.0161  0.4371
65379SOL    HW2 6452   9.958  11.550   0.133 -1.0642 -0.2551  0.2224
65380SOL     OW 6453  12.865   1.077  10.844  0.2774 -0.3810  0.1471
65380SOL    HW1 6454  12.903   0.990  10.858  3.3269  0.6834 -0.5199
65380SOL    HW2 6455  12.830   1.074  10.755  1.0916 -0.7197 -0.1742
65381SOL     OW 6456  11.717   3.467   8.180 -0.3589  0.0978 -0.0476
65381SOL    HW1 6457  11.679   3.453   8.093 -1.6398  0.8689  0.3661
65381SOL    HW2 6458  11.801   3.508   8.162 -1.1603  1.4567 -0.9185
65382SOL     OW 6459  11.880  11.242   5.598  0.6144  0.5003 -0.3335
65382SOL    HW1 6460  11.948  11.246   5.665  0.1260  0.9741  0.1367
65382SOL    HW2 6461  11.881  11.151   5.569 -0.8285 -0.3491  2.0381
65383SOL     OW 6462   7.722   8.650   7.175 -0.4279 -0.4029 -0.3321
65383SOL    HW1 6463   7.746   8.707   7.247  3.0609 -1.6309 -0.3313
65383SOL    HW2 6464   7.733   8.561   7.210  1.2506 -1.0275 -2.2200
65384SOL     OW 6465   1.044   3.787   6.284 -0.3908 -0.0499  0.4277
65384SOL    HW1 6466   1.066   3.880   6.289 -2.6509  0.6429 -0.9993
65384SOL    HW2 6467   1.104   3.752   6.219 -1.8166  1.2828 -1.7347
65385SOL     OW 6468  11.683  11.378   1.123 -0.3072 -0.1250  0.1094
65385SOL    HW1 6469  11.653  11.357   1.034  0.2930  0.4716 -0.2415
65385SOL    HW2 6470  11.738  11.304   1.148  2.9122  1.4735 -1.6482
65386SOL     OW 6471   7.740   3.453   8.338 -0.0544  0.2906  0.1574
65386SOL    HW1 6472   7.728   3.364   8.371  1.8712  0.1168  0.5101
65386SOL    HW2 6473   7.827   3.453   8.299 -0.0471  2.0103  0.0744
65387SOL     OW 6474   8.510  10.307   0.840 -0.4586 -0.0352  0.0621
65387SOL    HW1 6475   8.455  10.365   0.894 -1.9754 -0.2613 -1.1721
65387SOL    HW2 6476   8.492  10.219   0.872 -1.4217 -0.1775 -0.8139
65388SOL     OW 6477   8.023  11.950   4.118 -0.6642  0.2686  0.1334
65388SOL    HW1 6478   8.068  12.028   4.085  0.6668  0.4339  2.1789
65388SOL    HW2 6479   8.003  11.971   4.209 -1.4480 -1.3142  0.3615
65389SOL     OW 6480   2.325   5.178   8.494 -0.1668 -0.7246 -0.3412
65389SOL    HW1 6481   2.342   5.175   8.588 -3.1703  0.5121  0.3551
65389SOL    HW2 6482   2.297   5.089   8.471 -0.5382 -0.7468  0.1902
65390SOL     OW 6483   4.206   4.055   2.798  0.5942 -0.0326  0.3805
65390SOL    HW1 6484   4.211   4.151   2.790  1.0211 -0.0360  0.5979
65390SOL    HW2 6485   4.289   4.030   2.839  0.6986 -0.5445 -0.1304
65391SOL     OW 6486  12.174   8.871  12.136  0.1040 -0.3444 -0.4518
65391SOL    HW1 6487  12.243   8.878  12.071 -0.8218 -0.8774 -1.5372
65391SOL    HW2 6488  12.212   8.819  12.207  1.5303  1.2888  0.0410
65392SOL     OW 6489   4.141   0.201   6.477  0.1072  0.3663  0.4378
65392SOL    HW1 6490   4.168   0.128   6.421 -1.4676 -0.4062  0.6397
65392SOL    HW2 6491   4.199   0.196   6.553  1.2868  0.5333 -0.4152
65393SOL     OW 6492   4.583  12.924   3.417  0.2302 -0.0895 -0.5859
65393SOL    HW1 6493   4.619  12.883   3.496 -2.3770 -3.7621 -1.0472
65393SOL    HW2 6494   4.658  12.934   3.358  1.5097 -1.4096  0.7471
65394SOL     OW 6495  11.085   1.735  10.165  0.0228 -0.4753 -0.4382
65394SOL    HW1 6496  11.042   1.721  10.081  1.1132 -3.4222 -0.6147
65394SOL    HW2 6497  11.015   1.722  10.230 -0.9887  2.5227 -0.7966
65395SOL     OW 6498  11.733  10.311  10.870 -0.1930 -0.4453 -0.0738
65395SOL    HW1 6499  11.749  10.238  10.810  1.8166 -0.6288  0.5985
65395SOL    HW2 6500  11.664  10.279  10.928  0.7843 -1.9462  0.3329
65396SOL     OW 6501   2.140   6.960   6.268 -0.5502 -0.0063  0.0437
65396SOL    HW1 6502   2.202   6.981   6.198 -3.2047 -0.0602 -2.5121
65396SOL    HW2 6503   2.104   6.875   6.244 -2.8563  0.7846  0.4117
65397SOL     OW 6504   4.520   5.071   4.102  0.2216  0.9096  0.2610
65397SOL    HW1 6505   4.559   5.158   4.109 -0.7216  1.3444  0.2468
65397SOL    HW2 6506   4.469   5.061   4.182 -0.1349  0.6004 -0.0023
65398SOL     OW 6507   7.327   2.710   1.357  0.5722  0.5483 -0.3103
65398SOL    HW1 6508   7.367   2.791   1.388  0.6961  0.8443 -1.2202
65398SOL    HW2 6509   7.354   2.703   1.265  0.8664 -0.7114 -0.1455
65399SOL     OW 6510   5.649  11.675   4.069  0.3967  0.2301 -0.3921
65399SOL    HW1 6511   5.722  11.730   4.099 -0.0990  0.6533  0.0572
65399SOL    HW2 6512   5.587  11.736   4.031 -0.5417  0.1018  0.8654
65400SOL     OW 6513   4.832   5.283   2.634 -0.7408 -0.4450 -0.5467
65400SOL    HW1 6514   4.916   5.278   2.587 -1.4307 -1.6358 -1.7275
65400SOL    HW2 6515   4.831   5.206   2.690 -0.5775  0.1848  0.3579
65401SOL     OW 6516   4.092   3.810  12.907  0.1511 -0.2413  0.0528
65401SOL    HW1 6517   4.098   3.850  12.820  1.0103 -0.8933 -0.1986
65401SOL    HW2 6518   4.025   3.742  12.897  2.9057 -2.9909 -1.2320
65402SOL     OW 6519   5.126   0.388   9.639  0.3125 -0.0452 -0.4716
65402SOL    HW1 6520   5.034   0.363   9.650  0.3497  0.2360  0.6178
65402SOL    HW2 6521   5.127   0.436   9.556 -0.8253  1.2144  0.1923
65403SOL     OW 6522   3.781   3.726   7.504  0.4131  0.4696 -0.6030
65403SOL    HW1 6523   3.721   3.741   7.577  1.2647 -0.0283  0.2166
65403SOL    HW2 6524   3.726   3.687   7.436 -0.1910 -0.0546  0.1655
65404SOL     OW 6525   1.370   5.418   9.120  0.0428  0.1740  0.7026
65404SOL    HW1 6526   1.343   5.328   9.101  0.6880 -0.0108  0.5984
65404SOL    HW2 6527   1.291   5.461   9.152 -0.6616  0.0112 -0.7473
65405SOL     OW 6528   2.208   4.235   5.696 -0.0109  0.1210  0.1636
65405SOL    HW1 6529   2.286   4.246   5.749 -0.8271 -1.1435  1.6931
65405SOL    HW2 6530   2.164   4.159   5.733 -0.7749 -0.6435 -2.1715
65406SOL     OW 6531   7.611  12.380   2.733  0.0987  0.3226 -0.8082
65406SOL    HW1 6532   7.687  12.358   2.680  0.2838  1.2167 -0.9358
65406SOL    HW2 6533   7.625  12.333   2.815  0.4717 -0.0213 -1.0675
65407SOL     OW 6534   1.335  11.324  10.850  0.5408  0.1316  0.3056
65407SOL    HW1 6535   1.324  11.272  10.770 -0.6667  0.0716  0.5006
65407SOL    HW2 6536   1.287  11.405  10.833  1.1239  0.5500  0.5953
65408SOL     OW 6537   7.119   6.913   3.519 -0.8086  0.4982 -1.0263
65408SOL    HW1 6538   7.023   6.913   3.515 -0.7907 -1.0839 -3.7025
65408SOL    HW2 6539   7.146   6.853   3.449  2.1508  0.8473 -0.3040
65409SOL     OW 6540   7.688   2.737   3.917  0.1897 -0.4565 -0.0702
65409SOL    HW1 6541   7.765   2.681   3.931 -0.8346 -1.9776 -0.3307
65409SOL    HW2 6542   7.683   2.745   3.821  0.1718 -0.1188 -0.0426
65410SOL     OW 6543   6.116   3.613   3.595 -0.1906 -0.7120 -0.2476
65410SOL    HW1 6544   6.200   3.621   3.641 -0.1348 -0.0907 -0.4427
65410SOL    HW2 6545   6.055   3.583   3.662 -0.0742  0.0258  0.2069
65411SOL     OW 6546  12.406   3.528  11.256  0.7173  0.0898  0.1461
65411SOL    HW1 6547  12.430   3.569  11.340  0.4398  0.5703 -0.0043
65411SOL    HW2 6548  12.377   3.601  11.201 -0.4656 -0.3808  0.1022
65412SOL     OW 6549   8.892   6.369   1.562  0.0762 -0.3873 -0.4187
65412SOL    HW1 6550   8.798   6.355   1.575  0.1549 -0.4709  0.1017
65412SOL    HW2 6551   8.911   6.329   1.477 -0.1810 -1.2312 -0.0957
65413SOL     OW 6552   9.044  10.032   7.055  0.0941  0.5571 -0.1522
65413SOL    HW1 6553   9.090   9.950   7.073  1.3689  1.2645 -0.0214
65413SOL    HW2 6554   8.996  10.015   6.974  0.5054 -0.2545 -0.2403
65414SOL     OW 6555  10.009   9.339   6.493 -0.5244 -0.6969 -0.2349
65414SOL    HW1 6556   9.967   9.420   6.464 -0.4054 -0.2510  0.8131
65414SOL    HW2 6557   9.952   9.269   6.461 -0.5991 -0.2214 -1.2012
65415SOL     OW 6558  11.305  12.702   3.894  0.1131 -0.2810 -0.0481
65415SOL    HW1 6559  11.328  12.682   3.803  0.8473  1.7185 -0.3636
65415SOL    HW2 6560  11.212  12.721   3.892  0.2557  0.3954 -0.5219
65416SOL     OW 6561   5.483   4.066   2.035 -0.2693  0.4316  0.4057
65416SOL    HW1 6562   5.522   4.114   1.963 -1.4055  1.0723  0.1940
65416SOL    HW2 6563   5.523   3.979   2.031  0.5030  0.8056 -0.2846
65417SOL     OW 6564   7.370   5.792   6.016  0.1566  0.0172  0.0158
65417SOL    HW1 6565   7.318   5.869   5.990 -2.2935 -1.6233 -0.2517
65417SOL    HW2 6566   7.409   5.761   5.934  0.2788  0.3314 -0.0494
65418SOL     OW 6567   4.538   3.147   0.787  0.3521  0.0309 -0.5581
65418SOL    HW1 6568   4.586   3.220   0.748 -1.1498  1.2233 -0.2718
65418SOL    HW2 6569   4.598   3.110   0.851  1.2192  0.8879 -0.8477
65419SOL     OW 6570  10.544   7.353   2.661 -0.8549 -0.2653  0.5973
65419SOL    HW1 6571  10.559   7.271   2.613 -0.6917 -0.0009  0.1975
65419SOL    HW2 6572  10.570   7.422   2.600 -1.5176  0.1111  0.7301
65420SOL     OW 6573   6.523   6.940   8.316  0.0421 -0.0460  0.6504
65420SOL    HW1 6574   6.528   7.023   8.269 -0.1865 -0.5735 -0.3368
65420SOL    HW2 6575   6.613   6.912   8.327  0.1187  0.3145  0.9696
65421SOL     OW 6576  10.516  12.485  10.341 -0.2321  0.0578  0.3331
65421SOL    HW1 6577  10.578  12.426  10.384  0.7850  0.4576 -0.5304
65421SOL    HW2 6578  10.528  12.467  10.248  1.0922  2.5360 -0.0543
65422SOL     OW 6579   4.073  10.933   3.538 -0.1994 -0.2779  0.4534
65422SOL    HW1 6580   3.996  10.914   3.593 -0.1423 -0.5311  0.4462
65422SOL    HW2 6581   4.043  10.916   3.449  0.1213 -1.2431  0.5165
65423SOL     OW 6582  12.168   7.275   1.860  0.4947  0.2569  0.6459
65423SOL    HW1 6583  12.125   7.355   1.890  0.2182  0.1594  0.5095
65423SOL    HW2 6584  12.106   7.205   1.879  0.7264  0.0778  0.7414
65424SOL     OW 6585   6.363   7.943   6.394 -0.4409  0.7333  0.2284
65424SOL    HW1 6586   6.339   7.997   6.469  1.2381 -0.6555  1.8549
65424SOL    HW2 6587   6.348   7.853   6.424  0.3602  0.1464 -1.0673
65425SOL     OW 6588   5.632  12.319   0.035  0.0963 -0.6805 -0.1304
65425SOL    HW1 6589   5.549  12.323   0.083 -0.1904  0.8045 -0.6879
65425SOL    HW2 6590   5.664  12.409   0.036  1.6555 -1.2069 -0.0415
65426SOL     OW 6591   3.810   1.253  11.990  0.4946  0.0373  0.4544
65426SOL    HW1 6592   3.731   1.293  11.953  1.4012  1.3837 -0.0971
65426SOL    HW2 6593   3.804   1.161  11.964 -1.4564 -0.1686  1.4216
65427SOL     OW 6594   5.801   0.081   1.151 -0.3933 -0.8499  0.1658
65427SOL    HW1 6595   5.794   0.172   1.122 -1.2564 -1.1530 -0.6487
65427SOL    HW2 6596   5.894   0.060   1.147 -0.3934 -0.6314 -1.6989
65428SOL     OW 6597  11.255   7.460   9.836 -0.0063 -0.1075  0.0959
65428SOL    HW1 6598  11.252   7.512   9.756 -0.0691 -1.4167 -0.7764
65428SOL    HW2 6599  11.164   7.459   9.867  0.3221  2.1222  1.3825
65429SOL     OW 6600   5.326  10.590  11.689  0.3545  0.3068  0.1600
65429SOL    HW1 6601   5.376  10.509  11.676  1.0033  0.6518  0.4160
65429SOL    HW2 6602   5.393  10.657  11.700 -0.1783  0.7796  0.5622
65430SOL     OW 6603   4.985   4.804   6.132 -0.4180  0.1622 -0.4615
65430SOL    HW1 6604   5.053   4.798   6.064 -0.1277  0.0470 -0.1650
65430SOL    HW2 6605   5.007   4.883   6.181  0.6446 -0.8555  0.8266
65431SOL     OW 6606   1.171   4.960  10.807 -0.2060 -0.0995 -0.0634
65431SOL    HW1 6607   1.182   4.971  10.712 -0.5699 -0.5049 -0.1552
65431SOL    HW2 6608   1.100   5.021  10.830  0.8908  1.1170  0.2115
65432SOL     OW 6609  12.209   0.197   5.053  0.3708  0.1091 -0.3247
65432SOL    HW1 6610  12.128   0.222   5.098  1.3692 -0.4714  1.9247
65432SOL    HW2 6611  12.213   0.256   4.977 -1.5116  1.0016  0.2033
65433SOL     OW 6612  12.466   0.397  12.756  0.2351 -0.4949 -0.0507
65433SOL    HW1 6613  12.551   0.355  12.746  0.2435 -0.1927 -1.4564
65433SOL    HW2 6614  12.455   0.449  12.676 -1.2842 -0.5574  0.0822
65434SOL     OW 6615   4.026   6.965  11.832  0.1401 -0.0365  0.3978
65434SOL    HW1 6616   4.095   7.000  11.888  0.0932  3.1784 -1.2925
65434SOL    HW2 6617   4.060   6.975  11.743 -1.7713  0.0021 -0.3816
65435SOL     OW 6618  12.587   7.141   6.027  0.5373 -0.4129  0.4232
65435SOL    HW1 6619  12.603   7.234   6.010 -0.2673 -0.5854 -1.6416
65435SOL    HW2 6620  12.667   7.111   6.070  0.7096  1.2626  1.3811
65436SOL     OW 6621   3.676   6.115   5.506 -0.1666  0.1769 -0.3191
65436SOL    HW1 6622   3.720   6.049   5.560 -0.9450 -0.8473 -0.9085
65436SOL    HW2 6623   3.744   6.146   5.446 -0.1642 -1.2612 -1.0984
65437SOL     OW 6624   0.962  12.097   3.859 -0.2988  0.1871 -0.0139
65437SOL    HW1 6625   0.957  12.099   3.764  1.4326 -1.9049 -0.2220
65437SOL    HW2 6626   1.021  12.170   3.881 -0.8313  0.7784 -0.4940
65438SOL     OW 6627   0.846  11.381   0.262  0.0439  0.2796 -0.6638
65438SOL    HW1 6628   0.829  11.399   0.170 -0.2482 -0.3801 -0.7455
65438SOL    HW2 6629   0.874  11.290   0.264 -0.0682  0.2536 -0.0872
65439SOL     OW 6630   2.886   0.126  10.793 -0.9484  0.0229  0.1940
65439SOL    HW1 6631   2.865   0.033  10.796 -1.6826  0.1781 -0.2151
65439SOL    HW2 6632   2.964   0.134  10.848  0.1629 -1.1061 -1.1415
65440SOL     OW 6633   9.349   5.503   5.709 -0.5544  0.3715  0.3670
65440SOL    HW1 6634   9.373   5.441   5.778 -0.5258  1.4242  1.3335
65440SOL    HW2 6635   9.257   5.485   5.691 -0.2651 -0.6719 -0.1543
65441SOL     OW 6636   8.938  12.694  11.799 -0.1308 -0.1441  0.2442
65441SOL    HW1 6637   8.856  12.653  11.826 -1.3096  0.7747 -1.6754
65441SOL    HW2 6638   8.985  12.626  11.751  1.2389 -1.2906  3.0263
65442SOL     OW 6639   4.321  10.301  10.501 -0.3457  0.4379  0.1980
65442SOL    HW1 6640   4.237  10.345  10.508 -1.5768 -1.7504  0.0243
65442SOL    HW2 6641   4.382  10.358  10.548 -1.5279  2.9294 -1.1565
65443SOL     OW 6642   6.857   3.076  12.865 -0.4349  0.1864  0.8445
65443SOL    HW1 6643   6.903   3.040  12.789 -3.3238 -2.2629  0.0395
65443SOL    HW2 6644   6.926   3.111  12.921  1.9638  0.4490 -2.0475
65444SOL     OW 6645   7.021   4.671   8.793 -0.0570 -0.5026  0.3848
65444SOL    HW1 6646   6.962   4.703   8.861 -0.4891  0.5161 -0.4459
65444SOL    HW2 6647   6.970   4.678   8.712  0.4729 -1.6216 -0.0701
65445SOL     OW 6648   4.963   9.812   3.221 -0.2681  0.4488  0.2683
65445SOL    HW1 6649   5.020   9.835   3.148  1.6056  0.4847  1.6485
65445SOL    HW2 6650   4.926   9.727   3.197  0.0296  0.6234 -0.8550
65446SOL     OW 6651  10.568  12.370   1.812  0.1204 -0.1524 -0.4678
65446SOL    HW1 6652  10.632  12.387   1.880  0.1957 -1.6522 -0.1495
65446SOL    HW2 6653  10.619  12.365   1.731  0.4823 -1.7713 -0.1589
65447SOL     OW 6654   4.322   1.487   8.104 -0.0688 -0.8090 -0.2293
65447SOL    HW1 6655   4.270   1.439   8.168  1.3103 -1.1586  0.6874
65447SOL    HW2 6656   4.395   1.428   8.084  0.5566  0.0835 -0.6461
65448SOL     OW 6657   5.910   8.869  12.502 -0.3932 -0.1995  0.2087
65448SOL    HW1 6658   5.906   8.901  12.592  1.4940  0.7550  0.0029
65448SOL    HW2 6659   5.830   8.818  12.491 -0.6385 -0.3874  2.4354
65449SOL     OW 6660   2.478   0.379  10.649 -0.2646  0.0565 -0.2927
65449SOL    HW1 6661   2.548   0.314  10.653  0.6401  0.9886 -0.3327
65449SOL    HW2 6662   2.496   0.437  10.723 -0.4109  0.8698 -0.8816
65450SOL     OW 6663   0.450  10.986   1.113 -0.0497 -0.0208 -0.0133
65450SOL    HW1 6664   0.423  11.039   1.188  1.4092 -0.4330  0.8397
65450SOL    HW2 6665   0.496  11.047   1.056  2.6547 -0.4952  1.5124
65451SOL     OW 6666   1.820   3.751   6.863  0.0469 -0.1678  0.2461
65451SOL    HW1 6667   1.800   3.664   6.829 -0.7859 -0.7653  2.1339
65451SOL    HW2 6668   1.903   3.740   6.910  0.2809  0.2225 -0.0699
65452SOL     OW 6669   8.852   2.499   5.309  0.2010  0.3532 -0.2988
65452SOL    HW1 6670   8.786   2.446   5.263  0.1822  1.4806 -1.6287
65452SOL    HW2 6671   8.831   2.487   5.402  0.0327 -1.7280 -0.5563
65453SOL     OW 6672  11.150  12.199   3.558 -0.1007 -0.2695  0.3275
65453SOL    HW1 6673  11.124  12.287   3.531 -1.3512 -0.5201  0.6668
65453SOL    HW2 6674  11.191  12.161   3.480  2.6500  1.4031  0.8216
65454SOL     OW 6675   9.877   2.306   2.264  0.4005 -0.0933  1.1326
65454SOL    HW1 6676   9.872   2.220   2.223 -0.0819  0.2974  0.3417
65454SOL    HW2 6677   9.806   2.307   2.327 -0.3520  0.1468  0.2957
65455SOL     OW 6678   5.118   0.462   8.577 -0.2253  0.4511 -0.0595
65455SOL    HW1 6679   5.105   0.434   8.486 -2.4147 -1.5271  0.7693
65455SOL    HW2 6680   5.178   0.537   8.570 -1.0990  1.0191 -3.1938
65456SOL     OW 6681  11.740   4.810   3.187  0.3911  0.1781 -0.2437
65456SOL    HW1 6682  11.654   4.770   3.197  0.3236  0.4464  0.2878
65456SOL    HW2 6683  11.753   4.817   3.092  1.0034 -2.4364 -0.4494
65457SOL     OW 6684   0.364   9.467   7.428 -0.0260 -0.7239 -0.1827
65457SOL    HW1 6685   0.295   9.438   7.369 -0.8957  1.5640 -0.3543
65457SOL    HW2 6686   0.441   9.476   7.372 -0.3636 -0.3946 -0.6040
65458SOL     OW 6687   0.202  11.420   3.952 -0.5470 -0.3728  0.2447
65458SOL    HW1 6688   0.290  11.441   3.920 -0.4503  0.0016  0.7333
65458SOL    HW2 6689   0.148  11.416   3.873 -0.0777 -0.6843 -0.0689
65459SOL     OW 6690   3.964  12.477   9.708 -0.5331  0.0325 -0.0822
65459SOL    HW1 6691   4.018  12.401   9.688  1.0742  0.6613  1.5491
65459SOL    HW2 6692   3.893  12.443   9.762  0.0099 -0.3595  0.3887
65460SOL     OW 6693   6.033  10.419   5.944  0.1213  0.2095 -0.2658
65460SOL    HW1 6694   6.024  10.366   5.865 -0.0619 -0.5042  0.2278
65460SOL    HW2 6695   5.995  10.366   6.014  0.5036  0.7265  0.3522
65461SOL     OW 6696   2.190  10.209   4.069 -0.3836  0.5272  0.3806
65461SOL    HW1 6697   2.221  10.155   4.142 -1.2779 -0.1861  0.2524
65461SOL    HW2 6698   2.150  10.146   4.008 -1.1894  1.3055  0.0879
65462SOL     OW 6699   8.689   7.034   7.615 -0.1901  0.0609 -0.2652
65462SOL    HW1 6700   8.740   6.965   7.658  1.8521  0.4886 -1.8220
65462SOL    HW2 6701   8.699   7.110   7.672  0.2731 -0.0711 -0.1636
65463SOL     OW 6702  11.131   7.042   5.689  0.2279  0.3856  0.0801
65463SOL    HW1 6703  11.117   7.055   5.595  2.0465 -1.6495 -0.5415
65463SOL    HW2 6704  11.078   6.965   5.710  0.7522  0.1162  0.4386
65464SOL     OW 6705   2.177   7.805  11.967 -0.1986 -0.2013  0.4251
65464SOL    HW1 6706   2.133   7.740  12.022  0.5323  0.0713  1.3547
65464SOL    HW2 6707   2.137   7.889  11.992  0.6158  0.0107  1.0629
65465SOL     OW 6708   9.304   3.445   8.067  0.7757 -0.2903  0.2075
65465SOL    HW1 6709   9.270   3.359   8.044  0.9082  0.0441 -1.3861
65465SOL    HW2 6710   9.247   3.476   8.137  1.4225 -2.1105  1.5860
65466SOL     OW 6711   8.120   2.726   6.675 -0.1144 -0.3551 -0.5422
65466SOL    HW1 6712   8.056   2.656   6.684  0.9521 -1.5361 -1.6461
65466SOL    HW2 6713   8.158   2.735   6.762 -1.4915  0.1064  0.0320
65467SOL     OW 6714   0.006   1.995   1.528  0.0345 -0.1584  0.5987
65467SOL    HW1 6715   0.089   1.946   1.521 -0.6510 -1.6965  2.2734
65467SOL    HW2 6716  -0.056   1.944   1.477  0.2058  1.3586 -1.2175
65468SOL     OW 6717   5.258   7.576   9.617 -0.1273 -0.4838  0.3256
65468SOL    HW1 6718   5.167   7.581   9.587  0.4556 -1.6560 -1.8707
65468SOL    HW2 6719   5.309   7.574   9.536  1.7187 -1.9788  1.4537
65469SOL     OW 6720   2.983   5.710   5.744 -0.2575 -0.0747 -0.1087
65469SOL    HW1 6721   2.927   5.787   5.736 -1.0324 -0.5442  0.5624
65469SOL    HW2 6722   3.068   5.745   5.772 -1.5066  0.3716  3.8064
65470SOL     OW 6723   4.152   5.701  12.688 -0.2330  0.2854  0.9108
65470SOL    HW1 6724   4.196   5.665  12.765  0.6757 -1.4716 -0.3385
65470SOL    HW2 6725   4.220   5.752  12.643 -0.9091  1.7667  1.5264
65471SOL     OW 6726  12.460   6.426  11.456 -0.0946 -0.2835 -0.2717
65471SOL    HW1 6727  12.459   6.472  11.373 -1.7979  1.3823  0.6148
65471SOL    HW2 6728  12.372   6.438  11.492  0.4018 -1.4989  1.4857
65472SOL     OW 6729   4.295   7.832   4.775  0.2245  0.2331 -0.5177
65472SOL    HW1 6730   4.346   7.874   4.845  1.0632 -0.2701 -0.8079
65472SOL    HW2 6731   4.213   7.881   4.773  0.8023  1.2621 -0.2295
65473SOL     OW 6732  10.328  12.854  11.641  0.0918 -0.1926 -0.2682
65473SOL    HW1 6733  10.375  12.882  11.720 -0.5874  1.5799 -0.4544
65473SOL    HW2 6734  10.379  12.779  11.609  2.0319  0.8079  0.2856
65474SOL     OW 6735   0.020  12.025  12.246 -0.2856 -0.2308  0.0809
65474SOL    HW1 6736   0.003  11.946  12.196 -1.7243  0.6668 -0.9280
65474SOL    HW2 6737  -0.061  12.040  12.296 -0.4250  1.1191 -0.5034
65475SOL     OW 6738   1.848   7.547   3.997 -0.4586  0.0627 -0.0988
65475SOL    HW1 6739   1.875   7.626   4.043  1.1502 -0.0276 -0.8339
65475SOL    HW2 6740   1.753   7.558   3.985 -0.7525  0.5433  2.2682
65476SOL     OW 6741   4.900  12.775   8.499  0.5578  0.3033  0.5488
65476SOL    HW1 6742   4.924  12.866   8.480 -1.2197  0.5591 -0.7157
65476SOL    HW2 6743   4.964  12.722   8.451 -0.1012  0.9365 -1.1076
65477SOL     OW 6744  11.376   7.275   4.892  0.5120  0.3932  0.2748
65477SOL    HW1 6745  11.352   7.346   4.951  1.3515  1.0319 -0.1225
65477SOL    HW2 6746  11.374   7.196   4.947  0.3833  0.8443  0.9261
65478SOL     OW 6747   8.285  11.104   8.137 -0.1967  0.2288 -0.1073
65478SOL    HW1 6748   8.366  11.151   8.154 -0.0366 -0.9146  2.8375
65478SOL    HW2 6749   8.310  11.012   8.133 -1.3959 -0.2449  1.8838
65479SOL     OW 6750  10.658   5.833   0.678  1.1453  0.2295  0.3357
65479SOL    HW1 6751  10.675   5.740   0.667 -0.7518 -0.1228 -0.0470
65479SOL    HW2 6752  10.626   5.841   0.768  1.8334  0.6086  0.5514
65480SOL     OW 6753   8.042   0.491   2.034  0.2985  0.3367  0.3892
65480SOL    HW1 6754   8.129   0.450   2.040  1.0035  1.7500  0.2186
65480SOL    HW2 6755   8.021   0.516   2.124 -0.3129 -0.7220  0.5553
65481SOL     OW 6756   8.381   2.453   4.535 -0.0365 -0.1881 -0.0954
65481SOL    HW1 6757   8.409   2.516   4.469  0.0415 -0.1899 -0.0639
65481SOL    HW2 6758   8.461   2.406   4.558 -0.0472 -0.1275  0.0644
65482SOL     OW 6759   0.538   7.489   6.337 -0.1259  0.2618 -0.3499
65482SOL    HW1 6760   0.558   7.425   6.405 -0.7259 -0.5816 -0.9469
65482SOL    HW2 6761   0.606   7.555   6.345  0.3305 -0.2941  0.4762
65483SOL     OW 6762   4.668   8.425   1.341 -0.1618 -0.1964 -0.1724
65483SOL    HW1 6763   4.722   8.493   1.302  0.5130 -0.0666  0.9251
65483SOL    HW2 6764   4.730   8.372   1.392 -0.9512 -0.5262  0.4588
65484SOL     OW 6765   7.669  12.396  11.587 -0.4087  0.4972  0.3272
65484SOL    HW1 6766   7.752  12.349  11.577 -0.9665 -0.2781 -0.8530
65484SOL    HW2 6767   7.684  12.480  11.543 -0.3122  0.2823 -0.0561
65485SOL     OW 6768   7.138  12.642   6.959 -0.0234  1.0819  0.3960
65485SOL    HW1 6769   7.223  12.641   6.915  0.9289  0.0850  2.1478
65485SOL    HW2 6770   7.074  12.640   6.888  1.4287 -1.7553 -1.0147
65486SOL     OW 6771   0.144   4.700   4.068  0.4540 -0.7811 -0.1944
65486SOL    HW1 6772   0.208   4.635   4.099  1.7799  0.6711  0.1967
65486SOL    HW2 6773   0.101   4.731   4.148  0.7214 -0.2475 -0.2618
65487SOL     OW 6774   0.557   1.586   9.432 -0.2664  0.0859 -0.2661
65487SOL    HW1 6775   0.486   1.610   9.492 -0.2740  1.9228 -0.9617
65487SOL    HW2 6776   0.528   1.617   9.347  1.5177  1.2077 -0.4994
65488SOL     OW 6777   6.583   2.442   2.424 -0.1711  0.0696 -0.4338
65488SOL    HW1 6778   6.495   2.466   2.452  0.2560  1.4801 -0.1988
65488SOL    HW2 6779   6.574   2.419   2.332 -0.6096  1.4548 -0.7626
65489SOL     OW 6780  12.479   3.925   5.941 -0.0201  0.0523  0.1842
65489SOL    HW1 6781  12.530   3.990   5.990 -0.8950  0.3212  0.7640
65489SOL    HW2 6782  12.508   3.841   5.976  2.0594 -0.0111 -1.4579
65490SOL     OW 6783  12.644   9.474   1.302 -0.2559  0.0254  0.0992
65490SOL    HW1 6784  12.662   9.563   1.273  0.2094 -0.4455 -1.1113
65490SOL    HW2 6785  12.622   9.483   1.394 -1.7725  1.5833 -0.3685
65491SOL     OW 6786   3.845   6.295   1.982 -0.3709  0.0445  0.2176
65491SOL    HW1 6787   3.902   6.290   2.059 -1.3527 -1.2813  0.8854
65491SOL    HW2 6788   3.854   6.385   1.952  3.2342 -0.4022 -0.5985
65492SOL     OW 6789   0.099  12.059   7.785 -0.2676 -0.0938 -0.4256
65492SOL    HW1 6790   0.007  12.061   7.808 -0.1926 -2.2757  0.2860
65492SOL    HW2 6791   0.100  12.052   7.690 -0.8569 -0.5317 -0.4047
65493SOL     OW 6792  11.351   9.428   4.569 -0.1810 -0.6126  0.3307
65493SOL    HW1 6793  11.425   9.420   4.510  0.3263  0.4682  0.7927
65493SOL    HW2 6794  11.287   9.364   4.537  0.0047  0.0734 -1.4999
65494SOL     OW 6795   9.789   8.261   2.340 -0.4307  0.0672  0.1776
65494SOL    HW1 6796   9.752   8.176   2.363  1.3752 -0.0885  3.0027
65494SOL    HW2 6797   9.862   8.240   2.282  0.0254 -0.3139  0.8868
65495SOL     OW 6798  10.778  10.489   9.029 -0.3440 -0.6328 -0.4494
65495SOL    HW1 6799  10.806  10.469   8.940  2.4053  1.6986 -0.2521
65495SOL    HW2 6800  10.751  10.405   9.065  0.7877 -2.0630 -2.7156
65496SOL     OW 6801  12.968  12.231   2.224 -0.0188 -0.0857 -0.1477
65496SOL    HW1 6802  13.053  12.259   2.258 -0.1921  0.9193 -0.4886
65496SOL    HW2 6803  12.971  12.136   2.226  0.2932 -0.0736  1.8722
65497SOL     OW 6804   6.880   7.742   9.620 -0.1486 -0.4547 -0.2909
65497SOL    HW1 6805   6.947   7.764   9.684 -1.8834  1.3625  1.0428
65497SOL    HW2 6806   6.895   7.650   9.600  1.5109 -0.6182  1.4260
65498SOL     OW 6807   7.583   7.386   0.944  0.4154  0.4026 -0.2145
65498SOL    HW1 6808   7.647   7.321   0.913  0.5863  0.3113  0.3220
65498SOL    HW2 6809   7.619   7.417   1.027 -0.1910  0.4217  0.0440
65499SOL     OW 6810   3.912   8.292   8.262  0.2853  0.1086 -0.3559
65499SOL    HW1 6811   3.837   8.292   8.322  1.2834  2.0661  1.0038
65499SOL    HW2 6812   3.960   8.212   8.285 -0.3061 -0.1115  0.1660
65500SOL     OW 6813   3.608  12.804   9.854  0.1202 -0.4276  0.6593
65500SOL    HW1 6814   3.614  12.714   9.887 -0.5349 -0.2984  1.1552
65500SOL    HW2 6815   3.637  12.858   9.927 -1.9680 -0.1019  1.3179
65501SOL     OW 6816   7.145   1.954   7.463  0.3539 -0.0023 -0.0109
65501SOL    HW1 6817   7.089   1.880   7.438 -0.4481  0.4903  0.2940
65501SOL    HW2 6818   7.091   2.031   7.446  0.1459  0.4072  2.2522
65502SOL     OW 6819   5.388   5.496   9.133  0.1970 -0.2757  0.2885
65502SOL    HW1 6820   5.450   5.437   9.176 -0.5606 -1.0268  0.3794
65502SOL    HW2 6821   5.439   5.538   9.064  0.0198 -3.6144 -2.1163
65503SOL     OW 6822   3.782  12.892   8.000  0.8213 -0.5872  0.4521
65503SOL    HW1 6823   3.867  12.884   8.043  1.7737  0.7793 -1.0635
65503SOL    HW2 6824   3.760  12.985   8.006 -0.3747 -0.8583  0.4793
65504SOL     OW 6825   1.738  10.335   4.750  0.0268  0.7448 -0.2851
65504SOL    HW1 6826   1.797  10.260   4.739 -1.0187 -0.3039  0.9336
65504SOL    HW2 6827   1.678  10.329   4.676  1.2368  1.6725 -1.3902
65505SOL     OW 6828   5.307   2.401   9.123 -0.1557  0.4703 -0.8338
65505SOL    HW1 6829   5.239   2.334   9.115  1.3017 -1.5125  1.7208
65505SOL    HW2 6830   5.297   2.435   9.212  1.3529  1.0739 -0.8708
65506SOL     OW 6831  10.534   5.266   8.540  0.4949 -0.2617  0.4297
65506SOL    HW1 6832  10.514   5.175   8.563  1.1322 -0.4785  0.1434
65506SOL    HW2 6833  10.621   5.262   8.501  0.9778  0.6285  1.3810
65507SOL     OW 6834   1.163   9.481  11.385  0.1687  0.5884  0.0919
65507SOL    HW1 6835   1.128   9.568  11.402  0.7315  1.2006 -1.6754
65507SOL    HW2 6836   1.090   9.433  11.345  0.1013  0.4937  0.3242
65508SOL     OW 6837   5.144  10.049   8.213 -0.5014 -0.3273  0.1055
65508SOL    HW1 6838   5.187  10.133   8.233  4.2373 -1.8715 -2.0034
65508SOL    HW2 6839   5.080  10.038   8.283  1.3112  3.2614  2.7023
65509SOL     OW 6840   3.568  11.838   9.813  0.5869 -0.1295  0.0594
65509SOL    HW1 6841   3.542  11.925   9.844  0.6675 -0.0054 -0.2239
65509SOL    HW2 6842   3.620  11.854   9.735  1.6912 -0.3658  0.7223
65510SOL     OW 6843  11.894   1.950   0.832 -0.0331 -0.4106  0.2055
65510SOL    HW1 6844  11.821   1.994   0.876  0.5118  1.3619 -0.5701
65510SOL    HW2 6845  11.946   1.912   0.903 -0.5897  0.1106  0.9026
65511SOL     OW 6846   5.090   6.746  10.715 -0.1750 -0.3876 -0.1212
65511SOL    HW1 6847   5.032   6.776  10.646 -0.2323 -1.2011 -0.4342
65511SOL    HW2 6848   5.150   6.686  10.671 -0.1684 -0.8575  0.5241
65512SOL     OW 6849   7.310   8.300   7.993  0.4864  0.4156  0.4026
65512SOL    HW1 6850   7.286   8.264   7.908 -3.8101 -0.8230  1.8723
65512SOL    HW2 6851   7.299   8.394   7.983 -1.0211  0.2106 -0.2515
65513SOL     OW 6852  10.472   0.113   8.983 -0.3968 -0.6409 -0.2206
65513SOL    HW1 6853  10.553   0.126   8.935 -1.1327 -0.7269 -1.5273
65513SOL    HW2 6854  10.423   0.049   8.932 -2.4481  1.3804 -0.9741
65514SOL     OW 6855   0.672   7.122   0.414 -0.0154 -0.6364  0.0972
65514SOL    HW1 6856   0.602   7.094   0.474 -1.1503  0.0615 -0.8508
65514SOL    HW2 6857   0.708   7.041   0.379 -2.2024 -1.0426 -1.4379
65515SOL     OW 6858   9.022   5.765   4.653 -0.3071  0.0873  0.2346
65515SOL    HW1 6859   8.932   5.779   4.622 -0.3932 -0.2691  0.3228
65515SOL    HW2 6860   9.077   5.798   4.582 -0.5079  0.2982  0.1758
65516SOL     OW 6861  12.148   4.873   3.302  0.2193 -0.2456 -0.0378
65516SOL    HW1 6862  12.066   4.905   3.339 -0.3884 -0.5835 -1.0485
65516SOL    HW2 6863  12.134   4.779   3.289  1.0347 -0.4465  0.4615
65517SOL     OW 6864   8.233   8.888  10.653  0.3911  0.3691 -0.1834
65517SOL    HW1 6865   8.260   8.832  10.580  0.3758 -1.3173  1.0605
65517SOL    HW2 6866   8.160   8.939  10.618 -1.0120 -1.9166 -0.7584
65518SOL     OW 6867   6.276   4.439   8.920  0.3371  0.0182 -0.6649
65518SOL    HW1 6868   6.208   4.446   8.854  0.2292  0.3680 -0.5150
65518SOL    HW2 6869   6.356   4.465   8.875 -0.2039  3.6653  0.1816
65519SOL     OW 6870   6.191   5.360   9.046 -0.3403  0.1555 -0.1605
65519SOL    HW1 6871   6.116   5.303   9.027 -1.1653  1.1062  0.1650
65519SOL    HW2 6872   6.186   5.428   8.978  1.6191 -1.0375 -1.5941
65520SOL     OW 6873  11.414   6.334  11.924  0.3093  0.0610  0.0601
65520SOL    HW1 6874  11.472   6.274  11.876 -0.5416 -1.0130  0.3547
65520SOL    HW2 6875  11.335   6.339  11.871  0.2375  0.6570  0.2167
65521SOL     OW 6876   4.999   8.617   2.125  0.1230  0.2509  0.0241
65521SOL    HW1 6877   5.039   8.649   2.206 -1.4955  1.6103  0.3263
65521SOL    HW2 6878   5.011   8.689   2.063 -1.9796  0.8067  0.1951
65522SOL     OW 6879   5.402  10.276   4.501  0.1442  0.0377  0.3491
65522SOL    HW1 6880   5.367  10.364   4.518  0.3915  0.5145 -1.4615
65522SOL    HW2 6881   5.433  10.280   4.411  1.0602 -1.6354  0.5714
65523SOL     OW 6882   9.500   5.348   7.622  0.0982  0.1263 -0.1616
65523SOL    HW1 6883   9.495   5.403   7.700  1.5572  0.4953 -0.3022
65523SOL    HW2 6884   9.457   5.266   7.647 -0.1367  0.5238  0.7681
65524SOL     OW 6885   7.828   1.810  12.165  0.3141  0.1597  0.4460
65524SOL    HW1 6886   7.885   1.816  12.241  2.4983 -2.0401 -0.8556
65524SOL    HW2 6887   7.888   1.797  12.091 -1.8211 -1.3245 -1.1578
65525SOL     OW 6888   9.268  12.939   5.699  0.0869 -0.4671 -0.4009
65525SOL    HW1 6889   9.344  12.906   5.746  0.1742  2.1178  1.5428
65525SOL    HW2 6890   9.297  13.023   5.662 -1.2257 -0.4618 -1.5164
65526SOL     OW 6891   1.494   2.599   5.628  0.2171 -0.3794  0.2134
65526SOL    HW1 6892   1.570   2.586   5.684  0.7419  3.3679  0.6174
65526SOL    HW2 6893   1.420   2.602   5.689  0.2872 -0.1172  0.2885
65527SOL     OW 6894  10.588  11.354   3.856  0.6374 -0.2759  0.5112
65527SOL    HW1 6895  10.580  11.275   3.910 -0.5077 -1.5299 -1.4068
65527SOL    HW2 6896  10.501  11.369   3.821  1.2384  0.7821 -0.6228
65528SOL     OW 6897   0.265   1.318  10.823  0.9190  0.0988  0.1654
65528SOL    HW1 6898   0.223   1.396  10.860  1.1711  1.3009 -1.9461
65528SOL    HW2 6899   0.354   1.346  10.805  1.0854 -0.7746 -0.3985
65529SOL     OW 6900  12.849   0.151  11.592  0.1289  0.0251  0.7569
65529SOL    HW1 6901  12.791   0.096  11.644  0.8958 -0.9095  0.6572
65529SOL    HW2 6902  12.931   0.102  11.587  0.7461  1.0474  0.4084
65530SOL     OW 6903   3.442  10.610   8.213  0.1980  0.0144 -0.0243
65530SOL    HW1 6904   3.448  10.628   8.119  1.1362  0.4084  0.1058
65530SOL    HW2 6905   3.525  10.568   8.235 -0.6310 -1.5258  0.3308
65531SOL     OW 6906   7.739   1.103   1.079 -0.2886 -0.2215  0.4959
65531SOL    HW1 6907   7.803   1.050   1.126 -0.2977 -1.1016 -0.4576
65531SOL    HW2 6908   7.720   1.176   1.138  0.6718 -0.6038  1.2957
65532SOL     OW 6909   7.555   7.295   5.908 -0.0318 -0.0316 -0.1134
65532SOL    HW1 6910   7.574   7.216   5.960  0.1750  0.0469 -0.0684
65532SOL    HW2 6911   7.467   7.321   5.935 -0.5621 -0.8942 -0.9494
65533SOL     OW 6912  11.216  10.377   6.295  0.1624 -0.4570  0.1441
65533SOL    HW1 6913  11.232  10.402   6.204  1.0098 -1.6918 -0.0689
65533SOL    HW2 6914  11.161  10.299   6.289 -2.0679  0.9828  0.7868
65534SOL     OW 6915   7.047   7.592  10.703 -0.2891  0.4166  0.2710
65534SOL    HW1 6916   7.128   7.544  10.715 -2.3035 -3.1719  0.9343
65534SOL    HW2 6917   7.044   7.653  10.776  0.4842 -1.5354  2.0292
65535SOL     OW 6918  12.773  12.316   4.678  0.2268  0.3540 -0.4950
65535SOL    HW1 6919  12.713  12.391   4.677 -0.2611  0.0687  1.9407
65535SOL    HW2 6920  12.827  12.329   4.600 -0.9929  2.2758 -1.1127
65536SOL     OW 6921   3.473   2.158   7.364  0.0474  0.1275 -0.0433
65536SOL    HW1 6922   3.464   2.163   7.269  0.5575 -0.3007 -0.1232
65536SOL    HW2 6923   3.412   2.089   7.390 -0.3565  0.4917 -0.0130
65537SOL     OW 6924   9.096   5.897   4.905  0.1201 -0.2568  0.0326
65537SOL    HW1 6925   9.017   5.889   4.851 -0.8391  1.1192  1.1473
65537SOL    HW2 6926   9.142   5.814   4.893 -0.7591 -0.5347 -1.7758
65538SOL     OW 6927   1.508   5.450   8.249 -0.5286  0.2014 -0.4204
65538SOL    HW1 6928   1.600   5.472   8.234 -0.6368  0.5098 -0.6474
65538SOL    HW2 6929   1.480   5.509   8.319  0.0069 -1.3223  1.1366
65539SOL     OW 6930   0.331  12.961   7.812 -0.4539  0.3620 -0.1340
65539SOL    HW1 6931   0.334  13.042   7.863  1.0258  1.2198 -1.4672
65539SOL    HW2 6932   0.285  12.985   7.731  2.0047  0.6093 -1.5800
65540SOL     OW 6933   4.428   2.073   9.942  0.4777 -1.0854  0.6192
65540SOL    HW1 6934   4.456   2.151   9.894 -0.0181 -0.2751  1.6130
65540SOL    HW2 6935   4.465   2.000   9.892 -0.8284 -0.3517 -1.5186
65541SOL     OW 6936  12.781   4.623   0.030 -0.3626  0.5481 -0.1317
65541SOL    HW1 6937  12.756   4.709   0.064  1.7631  0.7951  0.9600
65541SOL    HW2 6938  12.804   4.572   0.107  0.6812 -0.2119 -0.9172
65542SOL     OW 6939   1.234   9.729   4.539  0.5487  0.3448  0.1020
65542SOL    HW1 6940   1.290   9.797   4.502 -0.1402  0.7926 -0.1173
65542SOL    HW2 6941   1.147   9.767   4.541 -0.2356 -1.1977 -1.8530
65543SOL     OW 6942   0.468   0.324   0.908  0.0239 -0.9896 -0.3648
65543SOL    HW1 6943   0.499   0.361   0.991 -1.5470 -1.0976  0.3074
65543SOL    HW2 6944   0.387   0.371   0.889 -0.5095 -2.1073 -0.9681
65544SOL     OW 6945  11.700   7.136   3.450 -0.5503  0.2247  0.2334
65544SOL    HW1 6946  11.704   7.154   3.356 -0.8837 -1.7034 -0.1833
65544SOL    HW2 6947  11.715   7.221   3.491 -0.7460  1.1730 -1.5604
65545SOL     OW 6948   1.891   2.249   8.412  0.0748 -0.2917  0.5319
65545SOL    HW1 6949   1.857   2.192   8.342 -1.7986 -2.7230  3.1868
65545SOL    HW2 6950   1.983   2.263   8.389 -0.2406 -1.6803 -1.9540
65546SOL     OW 6951  11.384  12.387   7.548  0.3704 -0.0841 -0.3147
65546SOL    HW1 6952  11.452  12.361   7.486  1.0648 -0.7924  0.7262
65546SOL    HW2 6953  11.420  12.368   7.634 -0.9876 -0.0910  0.2839
65547SOL     OW 6954   8.980  11.260  12.795  0.0568 -0.2244  0.4877
65547SOL    HW1 6955   9.000  11.330  12.857  0.4774 -0.4423  0.5991
65547SOL    HW2 6956   8.898  11.223  12.827 -0.0380  0.0508  0.5696
65548SOL     OW 6957  12.711  11.902   3.322  0.4596  0.2943  0.0776
65548SOL    HW1 6958  12.637  11.844   3.339  0.8115  0.2420  1.5406
65548SOL    HW2 6959  12.695  11.935   3.233 -0.4268 -1.0017 -0.2792
65549SOL     OW 6960   1.278   8.013   4.790 -0.5800 -0.4935 -0.5496
65549SOL    HW1 6961   1.344   7.950   4.763 -0.9279 -1.1012 -0.0216
65549SOL    HW2 6962   1.212   8.010   4.721 -2.6811 -3.8191  1.2769
65550SOL     OW 6963   2.095  11.563  10.145  0.1227 -0.0638  0.0197
65550SOL    HW1 6964   2.019  11.602  10.103 -0.6288 -0.5760  0.8745
65550SOL    HW2 6965   2.158  11.550  10.073 -0.1190  1.4508 -0.4929
65551SOL     OW 6966  11.933   3.502  12.470  0.3553 -0.1470  0.7631
65551SOL    HW1 6967  11.864   3.438  12.490  1.9850 -1.7685  1.5157
65551SOL    HW2 6968  12.014   3.458  12.497  1.8637  1.0296 -1.5915
65552SOL     OW 6969   4.988   1.340   7.672 -0.3930 -0.0400  0.8201
65552SOL    HW1 6970   4.913   1.291   7.705 -0.4801 -1.5965 -1.4950
65552SOL    HW2 6971   5.048   1.274   7.638  0.3008  1.3550 -0.8356
65553SOL     OW 6972  10.558   4.771   5.522  0.3046 -0.1360 -0.8144
65553SOL    HW1 6973  10.563   4.679   5.494  0.2757 -0.0371 -1.1422
65553SOL    HW2 6974  10.464   4.788   5.530  0.3013 -0.0537 -1.0231
65554SOL     OW 6975   0.438   8.232   6.290  0.4123 -0.1801  0.5811
65554SOL    HW1 6976   0.426   8.320   6.325 -0.7861 -0.4376  0.8573
65554SOL    HW2 6977   0.510   8.240   6.228 -0.3886  1.2296 -0.2106
65555SOL     OW 6978   1.981   1.556   6.188  0.2522 -0.6640 -0.1325
65555SOL    HW1 6979   1.952   1.480   6.137  0.4790 -0.6514 -0.2822
65555SOL    HW2 6980   2.037   1.605   6.128 -0.9040  0.3016 -0.4644
65556SOL     OW 6981   6.639  11.956   4.682 -0.0110 -1.1423 -0.0214
65556SOL    HW1 6982   6.590  11.915   4.753 -0.7333  0.5657  0.5045
65556SOL    HW2 6983   6.646  12.048   4.706  5.0442 -1.4511  0.8304
65557SOL     OW 6984   0.136   7.611   9.329  0.0799  0.4475 -0.1434
65557SOL    HW1 6985   0.179   7.539   9.281 -1.3944 -0.9411  0.5423
65557SOL    HW2 6986   0.074   7.647   9.266  0.8717  1.1911 -0.5117
65558SOL     OW 6987  11.240   9.578   8.175  0.0775 -0.2197  0.4020
65558SOL    HW1 6988  11.278   9.524   8.106  0.0618 -1.1915  1.1383
65558SOL    HW2 6989  11.194   9.516   8.232 -1.6415  0.7667  0.1850
65559SOL     OW 6990   4.021   0.227  12.326  0.4495  0.7732 -0.6628
65559SOL    HW1 6991   3.933   0.209  12.293  1.3552 -0.6175 -2.5085
65559SOL    HW2 6992   4.074   0.156  12.291  2.2170  1.2765  0.8803
65560SOL     OW 6993   6.311  12.926   1.194  0.2584  0.1696  0.4975
65560SOL    HW1 6994   6.384  12.983   1.171 -0.5365  0.6857 -0.8614
65560SOL    HW2 6995   6.308  12.861   1.123 -1.0236  0.5885  0.1453
65561SOL     OW 6996   1.594   4.545  12.333 -0.8321 -0.3762  0.2725
65561SOL    HW1 6997   1.646   4.486  12.388 -1.7034  0.6074  2.2668
65561SOL    HW2 6998   1.621   4.526  12.243  2.0427 -0.7614  1.1375
65562SOL     OW 6999  10.049  10.649   2.199 -0.7929  0.4212 -0.0515
65562SOL    HW1 7000  10.134  10.682   2.230 -0.3702 -0.5187 -0.1664
65562SOL    HW2 7001  10.011  10.606   2.276  0.3946 -2.1941 -0.7860
65563SOL     OW 7002   9.339   2.820   8.305 -0.0921 -0.1691  0.1134
65563SOL    HW1 7003   9.273   2.840   8.238  0.6004  0.4702 -0.3933
65563SOL    HW2 7004   9.406   2.887   8.293 -0.1216  0.1669  1.6923
65564SOL     OW 7005  10.924   2.537  12.087  0.1099 -0.2620 -0.0824
65564SOL    HW1 7006  10.949   2.626  12.114  1.0801 -1.1773  2.3381
65564SOL    HW2 7007  10.911   2.544  11.993 -2.8630  3.1386  0.3479
65565SOL     OW 7008  10.375   8.860  11.119 -0.4442 -0.2091 -0.2588
65565SOL    HW1 7009  10.318   8.819  11.054 -0.0323 -0.5872 -0.3866
65565SOL    HW2 7010  10.430   8.920  11.068  0.3491 -1.0121 -0.3661
65566SOL     OW 7011   0.144  11.972   4.137  0.2477  0.5070 -0.0645
65566SOL    HW1 7012   0.082  11.962   4.064 -0.0068 -0.0375  0.2241
65566SOL    HW2 7013   0.221  12.012   4.098 -0.0988  0.7305 -0.5282
65567SOL     OW 7014   1.753   7.050   3.687  0.1548  0.4509  0.3242
65567SOL    HW1 7015   1.668   7.058   3.730  0.4263  1.1957  0.7231
65567SOL    HW2 7016   1.800   7.129   3.711  0.0908  1.2323 -1.8595
65568SOL     OW 7017  12.197   0.728  11.083 -0.0599  0.1556 -0.5575
65568SOL    HW1 7018  12.281   0.739  11.127 -0.6349  1.7125  0.2018
65568SOL    HW2 7019  12.215   0.663  11.014  2.4816  2.4388 -2.2668
65569SOL     OW 7020   1.438   4.353   3.934 -0.0676  0.5797  0.9106
65569SOL    HW1 7021   1.423   4.259   3.940 -0.9672  0.7038  0.7732
65569SOL    HW2 7022   1.445   4.371   3.840 -1.3636  0.8527  0.8529
65570SOL     OW 7023   9.981  10.529   1.490  0.0303 -0.0635 -0.6443
65570SOL    HW1 7024   9.956  10.610   1.445  0.3705  0.4258  0.0462
65570SOL    HW2 7025   9.970  10.548   1.583 -0.7645 -1.1041 -0.5035
65571SOL     OW 7026   3.067   8.054   3.428 -0.2586  0.0167 -0.0830
65571SOL    HW1 7027   3.141   8.026   3.482  0.7020 -2.0042 -2.2414
65571SOL    HW2 7028   3.054   8.146   3.452  1.8352 -0.0370  1.6173
65572SOL     OW 7029   3.814   5.580   0.002 -0.2851  0.0083  0.0095
65572SOL    HW1 7030   3.739   5.529  -0.028  0.5711 -1.1573 -0.2197
65572SOL    HW2 7031   3.820   5.653  -0.058 -1.6874  0.5422  0.4859
65573SOL     OW 7032  11.309   2.358   0.020  0.0049 -0.0959 -0.5464
65573SOL    HW1 7033  11.327   2.326   0.108 -0.7970 -0.6841 -0.5862
65573SOL    HW2 7034  11.278   2.282  -0.029  1.0586  0.0749 -1.5418
65574SOL     OW 7035  10.650  12.171   8.818 -0.0935 -0.1715  0.0326
65574SOL    HW1 7036  10.585  12.182   8.888 -1.1502 -0.4706 -0.8797
65574SOL    HW2 7037  10.643  12.251   8.766  1.3742  0.4854  0.7967
65575SOL     OW 7038   6.705  12.271   8.312 -0.3926 -0.1513 -0.5409
65575SOL    HW1 7039   6.773  12.267   8.245  0.2299 -0.9318  0.1105
65575SOL    HW2 7040   6.640  12.206   8.284  1.9580 -3.8315  1.7501
65576SOL     OW 7041   5.697   9.223   0.575  0.3983  0.4914  0.4624
65576SOL    HW1 7042   5.754   9.290   0.613  0.5452 -0.0226  1.1736
65576SOL    HW2 7043   5.612   9.238   0.615  0.3443  0.4590  0.3614
65577SOL     OW 7044   0.789   5.187   9.848 -0.3980  0.3427  0.0951
65577SOL    HW1 7045   0.810   5.216   9.759 -1.6647 -0.1639 -0.3917
65577SOL    HW2 7046   0.838   5.106   9.859 -1.6224 -0.5650 -0.8398
65578SOL     OW 7047  10.609   0.256   7.244 -0.1047 -0.3656  0.0907
65578SOL    HW1 7048  10.549   0.330   7.243 -1.1993 -1.1309  2.5964
65578SOL    HW2 7049  10.694   0.293   7.220 -0.7473  1.5520  0.6516
65579SOL     OW 7050   5.222   5.682   5.248  0.2193  0.1792 -0.3722
65579SOL    HW1 7051   5.132   5.714   5.251 -0.1075 -0.7506  2.0341
65579SOL    HW2 7052   5.222   5.604   5.304  3.0290  1.6184  1.9612
65580SOL     OW 7053   3.549   3.125   5.993 -0.2804 -0.5718  1.2106
65580SOL    HW1 7054   3.483   3.183   6.030  1.0057  1.6401  0.2257
65580SOL    HW2 7055   3.510   3.093   5.911  0.3482  1.9314 -0.1475
65581SOL     OW 7056   2.160   5.485   7.754 -0.0073  0.0597 -0.5076
65581SOL    HW1 7057   2.104   5.546   7.803 -0.9988 -1.6058  0.5256
65581SOL    HW2 7058   2.119   5.478   7.668 -1.3837 -1.0806  0.2137
65582SOL     OW 7059   2.546   4.268  10.200 -0.3125  0.3096  0.3770
65582SOL    HW1 7060   2.462   4.223  10.196 -0.5183  0.6357  0.8779
65582SOL    HW2 7061   2.541   4.336  10.132 -0.9235  1.0959  1.1818
65583SOL     OW 7062  10.765   6.695  12.300  0.4993  0.2475 -0.1108
65583SOL    HW1 7063  10.762   6.763  12.233 -0.0480  2.4408  1.9795
65583SOL    HW2 7064  10.674   6.683  12.327  0.6204 -1.1597 -0.2596
65584SOL     OW 7065   8.357  11.122   6.643  0.1399  0.0367 -0.4782
65584SOL    HW1 7066   8.303  11.044   6.657 -3.0190  1.7126 -2.1918
65584SOL    HW2 7067   8.370  11.159   6.731 -2.1644 -0.1104 -0.0181
65585SOL     OW 7068  10.722   1.158  12.501  0.3278 -0.3165 -0.6374
65585SOL    HW1 7069  10.678   1.198  12.426 -1.0632  0.7931  0.7100
65585SOL    HW2 7070  10.683   1.071  12.508 -0.3270 -0.0215 -0.5712
65586SOL     OW 7071   5.788   1.937   8.064 -0.5622  0.0457  0.3277
65586SOL    HW1 7072   5.871   1.966   8.026 -1.0421 -0.8506 -1.5074
65586SOL    HW2 7073   5.813   1.868   8.125 -0.0418 -1.5189 -1.5700
65587SOL     OW 7074   5.026  12.143   4.997 -0.2629  0.0239  0.3738
65587SOL    HW1 7075   5.081  12.142   4.919  0.6966 -0.4124  1.0390
65587SOL    HW2 7076   5.009  12.050   5.016  0.6046  0.0668  1.4282
65588SOL     OW 7077   1.747  12.691   7.834 -0.2389  0.8014 -0.4761
65588SOL    HW1 7078   1.787  12.605   7.847 -1.2733  0.3393 -0.2300
65588SOL    HW2 7079   1.660  12.672   7.800 -0.3976  1.7650 -0.6395
65589SOL     OW 7080   4.375   5.650   2.271 -0.4713 -0.4729 -0.7029
65589SOL    HW1 7081   4.364   5.569   2.322 -1.0534 -0.2508 -0.4747
65589SOL    HW2 7082   4.295   5.656   2.219  0.0412 -0.6017 -1.5135
65590SOL     OW 7083  10.913   2.234   6.241 -0.1671 -0.3089 -0.3985
65590SOL    HW1 7084  10.970   2.174   6.289  0.5812 -0.8220 -1.8677
65590SOL    HW2 7085  10.906   2.196   6.153 -2.7884 -0.2559 -0.2899
65591SOL     OW 7086  11.556   6.143   6.612  0.2486  0.3823  0.2774
65591SOL    HW1 7087  11.609   6.081   6.561 -0.3673  0.0433  0.0390
65591SOL    HW2 7088  11.484   6.167   6.553 -1.7492 -1.7100  1.6758
65592SOL     OW 7089   3.125  12.468   8.287 -0.2522  0.3988  0.2945
65592SOL    HW1 7090   3.137  12.451   8.193  0.3437  1.7497  0.1118
65592SOL    HW2 7091   3.082  12.389   8.320 -0.3611 -0.1449 -1.0905
65593SOL     OW 7092   5.807   8.457   0.529  0.1268 -0.0030  0.0803
65593SOL    HW1 7093   5.727   8.509   0.537 -0.1569 -0.2601 -0.9220
65593SOL    HW2 7094   5.872   8.517   0.494  0.3313  0.1574  0.7191
65594SOL     OW 7095   1.315   4.019   4.109 -0.1769 -0.4119  0.4839
65594SOL    HW1 7096   1.269   4.094   4.148  0.7958  0.0078  0.8724
65594SOL    HW2 7097   1.399   4.017   4.156 -0.1759 -1.7234  0.4402
65595SOL     OW 7098   1.580   5.053   9.023 -0.0514  0.1311  0.6313
65595SOL    HW1 7099   1.517   5.007   8.968  2.2546 -1.4007 -0.9242
65595SOL    HW2 7100   1.580   5.004   9.105 -0.1171 -0.4995  0.2593
65596SOL     OW 7101   8.163   3.571   5.638 -0.1194 -0.1518 -0.3163
65596SOL    HW1 7102   8.148   3.576   5.544 -0.2043  0.5427 -0.2687
65596SOL    HW2 7103   8.202   3.485   5.651 -0.2541 -0.3184 -0.9651
65597SOL     OW 7104   4.368   3.233   5.611  0.3146 -0.3108  0.0215
65597SOL    HW1 7105   4.350   3.166   5.676  3.3085  0.0660  1.4104
65597SOL    HW2 7106   4.377   3.314   5.662 -0.9512  0.7385 -1.3441
65598SOL     OW 7107  10.152  12.225   5.372  0.5584 -0.0565 -0.1132
65598SOL    HW1 7108  10.144  12.132   5.395  2.8600 -0.0537  1.0445
65598SOL    HW2 7109  10.233  12.253   5.415 -0.8631  2.9020  0.8687
65599SOL     OW 7110   4.191  10.134   1.387  0.7003  0.4727  0.3744
65599SOL    HW1 7111   4.202  10.039   1.378  0.6700  0.6544 -2.8797
65599SOL    HW2 7112   4.279  10.168   1.402  1.1100  0.0727 -0.9831
65600SOL     OW 7113  10.912  11.230   8.822 -0.4016  0.2817 -0.1859
65600SOL    HW1 7114  10.883  11.241   8.732  1.0323 -2.8545 -1.1859
65600SOL    HW2 7115  10.832  11.210   8.871 -1.1570  1.7700 -0.7433
65601SOL     OW 7116   1.362   6.497   8.549 -0.6162 -0.4907  0.6310
65601SOL    HW1 7117   1.398   6.540   8.472 -1.5217  0.5325  0.7594
65601SOL    HW2 7118   1.346   6.407   8.520 -0.6475 -0.2053 -0.2804
65602SOL     OW 7119   5.864   7.608   2.582 -0.7142  0.7710  0.4145
65602SOL    HW1 7120   5.819   7.543   2.528 -0.5935  0.7971  0.2798
65602SOL    HW2 7121   5.816   7.610   2.665 -0.7988  0.6087  0.3673
65603SOL     OW 7122   4.933   8.433   1.009  0.1534 -0.0292 -0.2448
65603SOL    HW1 7123   5.015   8.384   1.022 -0.1738 -0.1422  1.5751
65603SOL    HW2 7124   4.951   8.490   0.934  1.2292 -1.4566 -1.1242
65604SOL     OW 7125   3.055   9.865   1.200 -0.1276  0.0461  0.0506
65604SOL    HW1 7126   3.068   9.841   1.292 -1.9401 -1.3314  0.0033
65604SOL    HW2 7127   2.971   9.910   1.199 -0.2850 -0.2590 -0.9809
65605SOL     OW 7128   0.084  10.808   3.763  1.0256  0.0798 -0.1399
65605SOL    HW1 7129   0.110  10.831   3.674  0.5597 -0.3414 -0.3913
65605SOL    HW2 7130  -0.007  10.836   3.770  0.5292 -1.4086 -0.3681
65606SOL     OW 7131   4.298  12.423  10.897  0.2410  1.2472 -0.0549
65606SOL    HW1 7132   4.287  12.341  10.850 -1.7748  0.6041  1.3842
65606SOL    HW2 7133   4.391  12.444  10.888  1.0152 -1.6281  0.2531
65607SOL     OW 7134   4.578   4.527   3.362  0.0476  0.3178 -0.2784
65607SOL    HW1 7135   4.669   4.538   3.387  0.0108 -1.2434  0.6629
65607SOL    HW2 7136   4.564   4.433   3.362 -2.0479  0.5304  1.5521
65608SOL     OW 7137  10.114   5.832   0.923  0.1551 -0.2375 -0.1388
65608SOL    HW1 7138  10.114   5.760   0.859 -1.0555  0.2100 -0.6772
65608SOL    HW2 7139  10.203   5.866   0.920  0.7512 -1.6972  0.1158
65609SOL     OW 7140   5.893   2.776   7.500  0.3498  0.5684  0.0783
65609SOL    HW1 7141   5.810   2.803   7.459  0.1296 -1.7206 -1.1578
65609SOL    HW2 7142   5.937   2.725   7.433  0.1856 -3.0096  2.4046
65610SOL     OW 7143   8.194   0.910  12.318 -0.4494 -0.2382  0.5591
65610SOL    HW1 7144   8.196   0.819  12.345  0.6929  0.4200  2.9685
65610SOL    HW2 7145   8.101   0.931  12.311 -0.7218 -1.5109  0.1468
65611SOL     OW 7146   3.448   5.932   4.782  0.2390  0.1081 -0.2539
65611SOL    HW1 7147   3.528   5.918   4.831  1.5080  0.6483 -2.0643
65611SOL    HW2 7148   3.453   5.869   4.710 -1.2874 -0.2865 -0.0446
65612SOL     OW 7149   3.372   2.332   3.308 -0.4191  0.2607 -0.1420
65612SOL    HW1 7150   3.354   2.409   3.361 -1.5875 -0.1867  0.1417
65612SOL    HW2 7151   3.310   2.337   3.236  0.6672  0.4811 -1.1010
65613SOL     OW 7152   9.858   5.128   6.167  0.1435  0.7276 -0.0653
65613SOL    HW1 7153   9.940   5.178   6.166  1.3350 -1.1087 -1.5528
65613SOL    HW2 7154   9.882   5.043   6.204 -1.4802  0.6695  0.9510
65614SOL     OW 7155   6.213   9.744   7.959 -0.0063  0.1335 -0.0050
65614SOL    HW1 7156   6.306   9.730   7.977 -0.0198 -0.2462 -0.2088
65614SOL    HW2 7157   6.202   9.839   7.959 -0.0377  0.1631  2.1218
65615SOL     OW 7158   7.568  10.477  10.585 -0.1667  1.2268 -0.0452
65615SOL    HW1 7159   7.572  10.395  10.535 -0.1293  1.5522 -0.5748
65615SOL    HW2 7160   7.586  10.450  10.676  0.0975  0.6843 -0.2544
65616SOL     OW 7161   7.241   6.776   2.665  0.5452 -0.7908 -0.2833
65616SOL    HW1 7162   7.320   6.804   2.620 -0.8246  0.8006 -1.8244
65616SOL    HW2 7163   7.235   6.833   2.742  1.2665 -1.4275  0.2556
65617SOL     OW 7164  10.799   3.834   0.915  0.0910  0.3303  0.1625
65617SOL    HW1 7165  10.882   3.794   0.889  0.0513  0.2795  0.1120
65617SOL    HW2 7166  10.752   3.847   0.832 -0.8577 -1.6431  0.3211
65618SOL     OW 7167   7.269   7.133   1.535 -0.4915 -0.3812  0.1386
65618SOL    HW1 7168   7.325   7.077   1.481 -0.9616 -0.7647  0.0371
65618SOL    HW2 7169   7.264   7.216   1.487 -0.9718 -0.7448 -0.4594
65619SOL     OW 7170   5.763   9.075   3.156  0.5124 -0.4909 -0.9351
65619SOL    HW1 7171   5.832   9.030   3.108  0.2347  0.2724 -2.0900
65619SOL    HW2 7172   5.692   9.086   3.093 -0.5949 -1.0685  0.1778
65620SOL     OW 7173   6.298   0.612   3.408  0.1511  0.3213  0.2798
65620SOL    HW1 7174   6.220   0.567   3.377  0.3358 -0.0228  0.3109
65620SOL    HW2 7175   6.266   0.695   3.443 -0.3748 -0.3958  1.5579
65621SOL     OW 7176   3.313   3.755   1.481 -0.3536 -0.0699  0.2977
65621SOL    HW1 7177   3.263   3.815   1.536  0.6092 -0.1831  1.3392
65621SOL    HW2 7178   3.348   3.689   1.542  0.8728 -0.1128 -0.4068
65622SOL     OW 7179  11.930   4.221   1.661  0.1597  0.3497 -0.0003
65622SOL    HW1 7180  11.882   4.297   1.628 -0.0984  0.5212  0.7514
65622SOL    HW2 7181  11.866   4.150   1.663  0.0468  0.4627  0.5733
65623SOL     OW 7182   0.480   1.150   0.884 -0.2568  0.3085 -1.1137
65623SOL    HW1 7183   0.406   1.164   0.824 -1.2265 -0.1980 -0.0716
65623SOL    HW2 7184   0.441   1.156   0.971  0.5373 -1.9075 -0.5393
65624SOL     OW 7185   3.992   3.574   7.902  0.1418  0.0159 -0.0069
65624SOL    HW1 7186   3.990   3.661   7.861 -0.4895  0.2383  0.4668
65624SOL    HW2 7187   4.084   3.559   7.922  0.3106  0.3971 -0.4743
65625SOL     OW 7188   1.257   2.001  10.765 -0.0643  0.5240 -0.2549
65625SOL    HW1 7189   1.201   2.079  10.767 -2.4005 -1.0741  0.5751
65625SOL    HW2 7190   1.262   1.978  10.672 -0.7315  0.7212 -0.3433
65626SOL     OW 7191   5.245   6.577   9.302 -0.0880 -0.0026 -0.1442
65626SOL    HW1 7192   5.234   6.663   9.263  0.5430  0.1335 -0.0298
65626SOL    HW2 7193   5.313   6.589   9.369  1.0194 -0.8777 -1.0661
65627SOL     OW 7194  11.007  12.657   3.219  0.6532  0.2229  0.2605
65627SOL    HW1 7195  10.929  12.632   3.269  0.5731 -0.4083 -0.1639
65627SOL    HW2 7196  11.019  12.750   3.237 -0.2565  0.3469  0.2474
65628SOL     OW 7197   9.812   3.092   8.355  0.1264  0.1953  0.0915
65628SOL    HW1 7198   9.744   3.156   8.376  0.3759  0.2771  0.6729
65628SOL    HW2 7199   9.863   3.134   8.286 -0.5439  0.0382 -0.5081
65629SOL     OW 7200   4.368   1.042   9.447  0.3755 -0.1032 -0.0216
65629SOL    HW1 7201   4.337   1.132   9.446 -0.3303 -0.3283 -1.7585
65629SOL    HW2 7202   4.369   1.016   9.355  1.5281 -1.5531  0.3591
65630SOL     OW 7203  11.803   1.074  10.676  0.5501 -0.0767  0.2004
65630SOL    HW1 7204  11.738   1.003  10.677 -0.3076  0.6827  1.4748
65630SOL    HW2 7205  11.831   1.082  10.767  0.9089  0.9766  0.0105
65631SOL     OW 7206   6.996  11.311   8.681 -0.5589  0.8614  0.2046
65631SOL    HW1 7207   7.076  11.265   8.708 -0.2352  1.3846  0.1561
65631SOL    HW2 7208   6.987  11.382   8.745 -3.0927 -1.3644  2.5885
65632SOL     OW 7209   7.047   3.365   3.693 -0.5174 -0.1537  0.5483
65632SOL    HW1 7210   7.080   3.354   3.604 -0.3831 -2.8761  0.8298
65632SOL    HW2 7211   6.955   3.387   3.683  0.0747  2.2823 -0.2120
65633SOL     OW 7212   3.779  10.554   6.073  0.0746  0.3974 -0.6679
65633SOL    HW1 7213   3.695  10.563   6.118  1.1811  2.1050  1.2866
65633SOL    HW2 7214   3.844  10.570   6.142  1.9598  0.4082 -2.3663
65634SOL     OW 7215   2.813  10.435   8.598  0.2445  0.6607  0.0468
65634SOL    HW1 7216   2.866  10.477   8.531 -2.5391  0.2373 -2.6655
65634SOL    HW2 7217   2.843  10.344   8.598  1.9019  1.1761  1.2150
65635SOL     OW 7218   6.991   4.166   5.234 -0.1462 -0.5253  0.9532
65635SOL    HW1 7219   6.962   4.226   5.164 -0.8817 -1.1876  0.6717
65635SOL    HW2 7220   6.948   4.199   5.313  1.0514  0.5009  1.2080
65636SOL     OW 7221  11.973   0.441   7.702 -0.2933  0.3645 -0.3183
65636SOL    HW1 7222  11.951   0.532   7.682 -0.6591  0.2273 -0.5411
65636SOL    HW2 7223  11.889   0.399   7.719 -0.2995 -0.3493 -1.9433
65637SOL     OW 7224   0.040   9.611   9.123  0.4335 -0.2670 -0.6604
65637SOL    HW1 7225   0.135   9.597   9.118  0.3782 -2.4190  1.8894
65637SOL    HW2 7226   0.004   9.559   9.052  1.0496 -2.5066  0.5772
65638SOL     OW 7227   2.815  10.819   9.041  0.1338 -0.1997 -0.4257
65638SOL    HW1 7228   2.904  10.851   9.055  0.2747 -1.0972  0.9887
65638SOL    HW2 7229   2.798  10.833   8.948  2.4129 -1.6164 -1.1284
65639SOL     OW 7230   3.247  12.050   1.525 -0.2629  0.2828  0.0419
65639SOL    HW1 7231   3.219  12.140   1.510  1.4780  1.0168  0.7959
65639SOL    HW2 7232   3.293  12.026   1.444  1.9947  1.2755  0.9236
65640SOL     OW 7233  10.815   3.372   0.797 -0.1655  0.2377  0.1504
65640SOL    HW1 7234  10.770   3.341   0.718  0.8317 -0.6773 -0.0893
65640SOL    HW2 7235  10.749   3.424   0.843 -1.0752 -0.0332 -0.7906
65641SOL     OW 7236   3.830   9.671   7.736  0.2761  0.0187  0.2922
65641SOL    HW1 7237   3.789   9.740   7.789 -0.4319 -1.7560  2.1853
65641SOL    HW2 7238   3.770   9.660   7.662 -0.8862 -0.1851  1.2304
65642SOL     OW 7239   3.654  10.431   9.177  0.0721  0.1828  0.5324
65642SOL    HW1 7240   3.603  10.402   9.253  1.5180 -0.0494  1.4556
65642SOL    HW2 7241   3.732  10.472   9.215  1.6190 -1.3810 -0.8273
65643SOL     OW 7242   2.638   4.490  12.169  0.7448 -0.0153  0.5933
65643SOL    HW1 7243   2.605   4.402  12.188 -0.1886  0.1650 -0.1083
65643SOL    HW2 7244   2.732   4.478  12.157  0.4745 -1.1389 -0.7054
65644SOL     OW 7245  11.548   9.383   3.403  0.0714 -0.1363 -0.7650
65644SOL    HW1 7246  11.526   9.331   3.326 -0.0109 -0.1526 -0.7306
65644SOL    HW2 7247  11.515   9.332   3.477  0.5901 -0.3618 -0.6788
65645SOL     OW 7248   1.826   9.226   7.072 -0.1576 -0.4298 -0.8014
65645SOL    HW1 7249   1.792   9.254   7.157 -1.5048 -1.0554 -1.1122
65645SOL    HW2 7250   1.885   9.297   7.046  0.2138 -0.1921  0.6034
65646SOL     OW 7251   9.322   8.358   8.466  0.3081  0.0746 -0.1893
65646SOL    HW1 7252   9.304   8.450   8.446 -0.9507  0.0322  0.6308
65646SOL    HW2 7253   9.241   8.313   8.443  1.4574 -1.1333 -2.1782
65647SOL     OW 7254   1.911   2.978   5.251 -0.0221 -0.8166 -0.8115
65647SOL    HW1 7255   1.967   2.912   5.211  0.3281 -0.0275 -1.6843
65647SOL    HW2 7256   1.865   3.018   5.176 -1.2342 -0.9832 -0.1763
65648SOL     OW 7257   0.784   1.619  12.359 -0.1906  0.1063  0.0823
65648SOL    HW1 7258   0.856   1.682  12.357  0.6697 -0.7138  2.1298
65648SOL    HW2 7259   0.798   1.564  12.282  0.8446  0.5013 -0.0293
65649SOL     OW 7260  10.172   2.882  12.723  0.4163  0.0686  0.1780
65649SOL    HW1 7261  10.179   2.815  12.791  0.0619 -0.8349 -0.6312
65649SOL    HW2 7262  10.216   2.842  12.647 -1.0373  0.1450 -0.7453
65650SOL     OW 7263  11.631   8.376   6.141 -0.5941  0.3228 -0.0990
65650SOL    HW1 7264  11.536   8.364   6.131 -0.4964 -1.1392  0.5073
65650SOL    HW2 7265  11.669   8.294   6.109  0.3253 -0.0611  1.8848
65651SOL     OW 7266   0.411   7.644   7.387  0.3776 -0.2419 -0.1677
65651SOL    HW1 7267   0.385   7.654   7.479 -1.8103  0.0825 -0.7661
65651SOL    HW2 7268   0.405   7.550   7.370 -0.3169 -0.1885 -0.2539
65652SOL     OW 7269   1.965   4.268   5.209  0.4312  0.0288 -0.2601
65652SOL    HW1 7270   1.942   4.252   5.301 -1.9610 -1.1192 -0.9936
65652SOL    HW2 7271   2.031   4.337   5.213  1.4273 -0.9453  2.3846
65653SOL     OW 7272   9.475   3.661   7.994 -0.3562  0.0447 -0.3904
65653SOL    HW1 7273   9.418   3.585   8.004 -0.0741 -0.1334 -0.0916
65653SOL    HW2 7274   9.418   3.730   7.962 -0.7355 -0.1377 -0.1194
65654SOL     OW 7275   2.890   2.956   9.415 -0.6183 -0.0273  0.0081
65654SOL    HW1 7276   2.966   2.956   9.472 -0.3126 -1.8131 -0.3454
65654SOL    HW2 7277   2.848   2.872   9.430 -0.6513 -0.4835 -2.1988
65655SOL     OW 7278  10.305   2.331   4.801 -0.3792 -0.1651 -0.1741
65655SOL    HW1 7279  10.303   2.421   4.834 -0.6972 -1.0075  2.3343
65655SOL    HW2 7280  10.213   2.303   4.806 -0.2114 -0.7710 -0.5052
65656SOL     OW 7281   2.179   5.183   2.574  0.0231  0.8086 -0.5155
65656SOL    HW1 7282   2.119   5.110   2.558 -0.8324  1.6015 -1.0613
65656SOL    HW2 7283   2.259   5.142   2.606 -1.4617 -0.1820  2.2831
65657SOL     OW 7284   6.117  12.638   4.346  0.2759  0.1959  0.5113
65657SOL    HW1 7285   6.140  12.545   4.338 -0.5117 -0.1053  1.5707
65657SOL    HW2 7286   6.061  12.655   4.270 -1.2261 -0.7310  1.3662
65658SOL     OW 7287   1.404   1.659   3.165  1.3125 -0.5888 -0.1132
65658SOL    HW1 7288   1.460   1.613   3.228  2.2972  1.3801  0.5433
65658SOL    HW2 7289   1.318   1.660   3.206  1.3669 -1.4496  0.0486
65659SOL     OW 7290   6.125   0.507  11.815 -0.3241  0.9345  0.0067
65659SOL    HW1 7291   6.173   0.559  11.751  0.3194  0.4394  0.0815
65659SOL    HW2 7292   6.177   0.428  11.826 -0.4263  1.0088  1.1407
65660SOL     OW 7293  10.177   5.780   8.847 -0.0547 -0.0609 -0.7257
65660SOL    HW1 7294  10.206   5.748   8.932  2.7578 -2.8663 -2.5301
65660SOL    HW2 7295  10.224   5.862   8.835  0.1001 -0.0238  0.0667
65661SOL     OW 7296   1.871   7.160   5.695 -0.2267  0.0258  0.0534
65661SOL    HW1 7297   1.964   7.141   5.700 -0.0398  0.9404  0.3186
65661SOL    HW2 7298   1.829   7.090   5.744  0.3862  0.0346  0.6017
65662SOL     OW 7299  12.567   2.788   3.475 -0.1296  0.8539  0.2850
65662SOL    HW1 7300  12.536   2.764   3.388 -0.6812  1.5835  0.2686
65662SOL    HW2 7301  12.648   2.837   3.459 -0.9846  2.2781  0.0490
65663SOL     OW 7302   6.546   5.253   5.917  0.4888  0.4982 -0.1915
65663SOL    HW1 7303   6.580   5.171   5.884 -3.7324 -1.3312 -0.6129
65663SOL    HW2 7304   6.560   5.249   6.012  0.0564 -0.9075 -0.1720
65664SOL     OW 7305   8.094  11.357   5.140 -0.0883 -0.8479  0.0944
65664SOL    HW1 7306   8.037  11.314   5.204 -0.7656 -1.9010 -1.1691
65664SOL    HW2 7307   8.069  11.318   5.056 -0.4967  1.7659 -1.0950
65665SOL     OW 7308   9.281  11.786   1.019  0.1328  0.3463  0.1098
65665SOL    HW1 7309   9.242  11.765   1.104  0.6189 -0.8419  0.0586
65665SOL    HW2 7310   9.344  11.716   1.003  0.8996  1.1880 -0.6985
65666SOL     OW 7311   2.177   3.085  10.301 -0.1679  0.1289 -0.0032
65666SOL    HW1 7312   2.138   3.008  10.340 -2.6915  1.7536  0.8916
65666SOL    HW2 7313   2.239   3.117  10.367  0.7190 -0.9404 -0.2856
65667SOL     OW 7314   3.210   9.212   0.998  0.0758  0.7221 -0.0458
65667SOL    HW1 7315   3.249   9.154   1.063  1.3117  0.5318 -0.9373
65667SOL    HW2 7316   3.182   9.289   1.049  1.8510  0.9794  0.6100
65668SOL     OW 7317   7.272   9.510   3.191 -0.3479  0.2550  0.3656
65668SOL    HW1 7318   7.352   9.513   3.245  0.2004  2.6620 -0.4714
65668SOL    HW2 7319   7.266   9.418   3.163  2.3141  0.0600  0.1903
65669SOL     OW 7320  10.664   2.837   6.140 -0.0486 -0.4709 -0.4266
65669SOL    HW1 7321  10.592   2.805   6.193 -1.1383  0.6905 -1.1508
65669SOL    HW2 7322  10.632   2.834   6.050  0.2231  1.4265 -0.6392
65670SOL     OW 7323   9.620   8.806   0.750  0.0184  0.1702 -0.1039
65670SOL    HW1 7324   9.599   8.890   0.791 -2.1009 -0.5196  0.3517
65670SOL    HW2 7325   9.551   8.793   0.685  0.5722 -1.0178 -0.4749
65671SOL     OW 7326   2.211   6.419  10.939  0.5276 -0.0970 -0.4348
65671SOL    HW1 7327   2.161   6.439  10.859  1.4081 -0.1349 -1.0019
65671SOL    HW2 7328   2.147   6.430  11.010  0.0651  1.1984 -1.0182
65672SOL     OW 7329   2.939   9.329   0.717 -0.1931  0.1004  0.1073
65672SOL    HW1 7330   2.902   9.293   0.797 -2.9439 -0.8482 -1.4405
65672SOL    HW2 7331   2.863   9.362   0.668  1.1475 -0.7066 -2.7473
65673SOL     OW 7332   4.786   5.973   3.948 -0.0041  0.1455  0.2290
65673SOL    HW1 7333   4.721   6.039   3.970 -0.0866  0.2807 -0.3913
65673SOL    HW2 7334   4.823   5.946   4.032 -0.4856  0.4501  0.5420
65674SOL     OW 7335   3.588   0.709   5.852 -0.1181 -0.2059 -0.1786
65674SOL    HW1 7336   3.523   0.669   5.909 -0.8281 -1.3881 -1.7389
65674SOL    HW2 7337   3.538   0.772   5.799  0.7914  2.0495  1.4599
65675SOL     OW 7338   9.789  10.684   2.044  0.2117 -0.1367 -0.2014
65675SOL    HW1 7339   9.746  10.736   2.113 -0.1682 -1.6115  0.7133
65675SOL    HW2 7340   9.882  10.688   2.067  0.3859  1.3436 -1.0059
65676SOL     OW 7341   3.880   1.348  10.579 -0.1794  0.0453  0.6165
65676SOL    HW1 7342   3.957   1.307  10.540  0.7518  0.1752  2.2268
65676SOL    HW2 7343   3.806   1.307  10.534  0.7884  0.6538 -1.6857
65677SOL     OW 7344   9.110   7.473   9.841  0.4564 -0.1523 -0.8001
65677SOL    HW1 7345   9.086   7.508   9.755  0.8095  0.6524 -0.5790
65677SOL    HW2 7346   9.026   7.447   9.880  0.0511  1.4003 -0.5631
65678SOL     OW 7347   4.613   5.137   6.820 -0.3339 -0.3555  0.0714
65678SOL    HW1 7348   4.610   5.209   6.757  0.3720  1.2231  1.7664
65678SOL    HW2 7349   4.702   5.140   6.856 -0.3507 -1.9764  0.3165
65679SOL     OW 7350   0.328   1.163   1.776  0.3303  0.2839 -0.0145
65679SOL    HW1 7351   0.297   1.220   1.847  2.4969 -0.6890  1.8374
65679SOL    HW2 7352   0.292   1.077   1.797  0.5783  0.0921 -0.3683
65680SOL     OW 7353   4.619  10.213   9.753  0.1574  0.1102 -0.1711
65680SOL    HW1 7354   4.527  10.193   9.739 -0.1996  1.2916  0.3491
65680SOL    HW2 7355   4.643  10.269   9.679  0.5983 -0.5477 -0.5446
65681SOL     OW 7356   5.995   3.999   5.332 -0.2926 -0.0516 -0.1359
65681SOL    HW1 7357   5.906   4.011   5.300 -1.0669 -0.1609  1.8647
65681SOL    HW2 7358   6.030   4.087   5.341 -0.8747  0.0907  0.8336
65682SOL     OW 7359   7.488  12.468  10.760 -0.2015 -0.6220 -0.8603
65682SOL    HW1 7360   7.414  12.472  10.822 -1.1271  1.6180 -1.9799
65682SOL    HW2 7361   7.447  12.448  10.676  0.6176 -0.3909 -1.3170
65683SOL     OW 7362   7.942   7.455   2.408  0.1085  0.7006 -1.0204
65683SOL    HW1 7363   7.944   7.360   2.401 -0.6303  0.7046 -1.4180
65683SOL    HW2 7364   7.977   7.486   2.324  1.6197  0.8030 -0.3908
65684SOL     OW 7365   5.722   0.398   1.404 -0.2486 -0.4838  0.3620
65684SOL    HW1 7366   5.799   0.418   1.457 -0.7459  0.9009  0.6034
65684SOL    HW2 7367   5.671   0.479   1.405 -1.5269 -1.2575 -0.0994
65685SOL     OW 7368   1.656   1.538  12.654 -0.3937 -0.5020  0.0251
65685SOL    HW1 7369   1.582   1.537  12.714  0.2458  0.2633  0.8595
65685SOL    HW2 7370   1.621   1.505  12.572 -1.1380 -2.2811  0.9962
65686SOL     OW 7371   3.096  11.518   9.805  0.2487 -0.6591 -0.8211
65686SOL    HW1 7372   3.014  11.498   9.851  0.2585 -1.4600 -1.1405
65686SOL    HW2 7373   3.068  11.572   9.730  0.2671  0.9211  0.2559
65687SOL     OW 7374   0.326   4.716   5.483 -0.0014  0.0279  0.0306
65687SOL    HW1 7375   0.360   4.626   5.475 -1.8156 -0.6115 -1.1762
65687SOL    HW2 7376   0.396   4.771   5.449  0.2068 -1.1672 -1.6219
65688SOL     OW 7377  12.443   0.715   1.341 -0.0850  0.4822 -0.2084
65688SOL    HW1 7378  12.464   0.788   1.282  1.4260 -0.7056 -1.2260
65688SOL    HW2 7379  12.351   0.729   1.364 -0.8901  0.7802 -3.2050
65689SOL     OW 7380  12.293   8.160   1.111 -0.2660  0.2653  0.3390
65689SOL    HW1 7381  12.236   8.091   1.078 -0.6277  0.7725 -0.1106
65689SOL    HW2 7382  12.234   8.231   1.135  0.2378  1.8504 -2.5565
65690SOL     OW 7383   8.439   0.756   1.628 -0.5504 -0.1007 -0.0986
65690SOL    HW1 7384   8.505   0.698   1.665 -0.2326 -0.4943 -1.2598
65690SOL    HW2 7385   8.357   0.707   1.635 -0.7634  0.3994  1.3693
65691SOL     OW 7386   7.814   4.912   1.951  0.3502 -0.6127  0.2465
65691SOL    HW1 7387   7.855   4.974   2.011  0.6399  0.9686 -1.5050
65691SOL    HW2 7388   7.855   4.930   1.867 -0.4510 -2.3841 -0.5523
65692SOL     OW 7389   4.157   2.723   8.330  0.6041  0.3504 -0.3158
65692SOL    HW1 7390   4.184   2.803   8.375  2.4162 -0.8106  0.8098
65692SOL    HW2 7391   4.073   2.745   8.290  0.5800  2.5060  0.7601
65693SOL     OW 7392   5.826   2.801   1.694 -0.3612  0.3242  0.6720
65693SOL    HW1 7393   5.918   2.824   1.707 -0.0828  0.2572 -0.9267
65693SOL    HW2 7394   5.827   2.724   1.638 -1.3761  1.5187 -1.0954
65694SOL     OW 7395   2.487   5.007  11.282  0.4825  0.6670 -0.3873
65694SOL    HW1 7396   2.525   4.922  11.305  0.8212  1.0979  0.7343
65694SOL    HW2 7397   2.536   5.070  11.335 -0.1516  1.5007 -0.7719
65695SOL     OW 7398   0.399   6.338   8.457  0.1867  0.6151  0.2932
65695SOL    HW1 7399   0.456   6.328   8.534  1.9381  1.8189 -0.7765
65695SOL    HW2 7400   0.425   6.422   8.419 -1.6221  0.7090 -0.8455
65696SOL     OW 7401  12.514  12.581   1.593  0.3146  0.2161  0.0105
65696SOL    HW1 7402  12.491  12.657   1.647  1.4183  0.7806 -0.2957
65696SOL    HW2 7403  12.605  12.562   1.615  0.3501 -0.4142 -0.6392
65697SOL     OW 7404   8.515   2.900   7.057  0.2085  0.0453  0.5336
65697SOL    HW1 7405   8.593   2.919   7.005 -0.1157 -1.0110 -0.3862
65697SOL    HW2 7406   8.543   2.834   7.121  0.1501 -0.1026  0.4081
65698SOL     OW 7407   3.364   9.053  12.718 -0.0213 -0.6266 -0.2891
65698SOL    HW1 7408   3.443   9.106  12.725  0.3246 -0.9123 -1.7552
65698SOL    HW2 7409   3.356   9.010  12.803 -0.0677  1.3887  0.7945
65699SOL     OW 7410   3.871  11.717  12.258 -0.2059  0.1089 -0.0072
65699SOL    HW1 7411   3.904  11.641  12.211  1.5007 -0.0643  1.3711
65699SOL    HW2 7412   3.778  11.720  12.236 -0.0346 -1.5656 -1.1608
65700SOL     OW 7413   4.318  10.642   8.755 -0.0196  0.2845 -0.2922
65700SOL    HW1 7414   4.346  10.733   8.759  0.2237  0.1756  1.1137
65700SOL    HW2 7415   4.295  10.627   8.663  2.0047  1.1313 -0.9730
65701SOL     OW 7416   3.307   0.398  10.549  0.0697 -0.2883 -0.0516
65701SOL    HW1 7417   3.215   0.372  10.546  0.4356 -1.5744 -1.3736
65701SOL    HW2 7418   3.325   0.410  10.642 -1.5369  0.4290  0.2035
65702SOL     OW 7419   0.351  11.631   9.368  0.6578  0.2795 -0.3325
65702SOL    HW1 7420   0.258  11.632   9.347  0.2765  2.3130  1.1292
65702SOL    HW2 7421   0.394  11.606   9.287 -1.2275 -3.6996 -0.3420
65703SOL     OW 7422   8.731  10.345  12.819  0.1497 -0.1129 -0.0073
65703SOL    HW1 7423   8.783  10.359  12.898 -0.2244  0.2184  0.1910
65703SOL    HW2 7424   8.792  10.309  12.755  0.4601 -0.3666  0.4295
65704SOL     OW 7425   4.017   0.615   1.739 -0.3658 -0.4153  0.1121
65704SOL    HW1 7426   3.934   0.633   1.697 -0.2777 -0.4100 -0.0586
65704SOL    HW2 7427   4.013   0.665   1.821 -0.6683 -0.6892  0.2654
65705SOL     OW 7428   1.004   6.631   4.820  0.2045 -0.1807  0.0228
65705SOL    HW1 7429   0.953   6.610   4.742 -1.2437 -0.1221  0.9164
65705SOL    HW2 7430   0.939   6.641   4.889  1.5341 -1.4470  1.5269
65706SOL     OW 7431   1.243   7.217   7.927 -0.4061 -0.1003 -0.3309
65706SOL    HW1 7432   1.236   7.122   7.916 -0.2984 -0.1539  0.0543
65706SOL    HW2 7433   1.337   7.235   7.921 -0.4278 -0.0160 -0.4211
65707SOL     OW 7434   2.185   3.200   0.573 -0.2878 -0.6659  0.0561
65707SOL    HW1 7435   2.262   3.252   0.550 -0.5931  0.1090  0.7180
65707SOL    HW2 7436   2.113   3.264   0.576 -0.2790 -0.6683  3.0018
65708SOL     OW 7437   9.815   6.722   3.984 -0.1610  0.4909  0.1233
65708SOL    HW1 7438   9.878   6.701   4.053 -1.4438 -1.6753  0.7528
65708SOL    HW2 7439   9.869   6.742   3.907  1.2844  0.0282  0.9795
65709SOL     OW 7440   3.637  10.726   2.208 -0.3105  0.8285  0.7729
65709SOL    HW1 7441   3.688  10.758   2.282  0.4331  1.7157 -0.0978
65709SOL    HW2 7442   3.614  10.804   2.158  0.8247  0.1298 -0.9483
65710SOL     OW 7443   9.163  10.184   6.138 -0.5625  0.0895 -0.0476
65710SOL    HW1 7444   9.081  10.140   6.159 -0.6641  0.4801  0.3934
65710SOL    HW2 7445   9.192  10.222   6.221  0.3951 -0.5842 -0.0602
65711SOL     OW 7446   3.898   2.958   9.494 -0.3403 -0.5237 -0.2949
65711SOL    HW1 7447   3.928   2.932   9.407 -2.3955 -1.0768 -0.9036
65711SOL    HW2 7448   3.934   2.892   9.553  1.3703  0.0537 -0.6365
65712SOL     OW 7449   7.111  12.361   1.261  0.8169  0.2239 -0.2872
65712SOL    HW1 7450   7.153  12.359   1.175  1.8342  0.2235  0.1980
65712SOL    HW2 7451   7.174  12.320   1.320  0.0547  0.0577  0.4311
65713SOL     OW 7452   9.024  10.582   7.628  0.6349  0.2885  0.0129
65713SOL    HW1 7453   9.087  10.654   7.624  2.1978 -1.0799 -1.6898
65713SOL    HW2 7454   8.987  10.577   7.539  3.5387 -3.4039 -1.2572
65714SOL     OW 7455   4.375   5.187   8.866  0.1788  0.2008 -0.1628
65714SOL    HW1 7456   4.389   5.174   8.772 -0.2917  0.2181 -0.2388
65714SOL    HW2 7457   4.435   5.258   8.890 -0.9474  1.4029 -0.8118
65715SOL     OW 7458  12.919   6.061  11.667  0.0914 -0.2138 -0.0905
65715SOL    HW1 7459  12.863   6.137  11.682  1.1771  0.3015  1.5968
65715SOL    HW2 7460  12.976   6.088  11.595 -0.2514  0.1482 -0.2330
65716SOL     OW 7461   0.018   6.832   4.536 -0.0872  0.5937  0.1543
65716SOL    HW1 7462  -0.001   6.739   4.533 -0.7679  0.7177  0.3639
65716SOL    HW2 7463   0.113   6.838   4.532  0.0092 -0.1508  1.0677
65717SOL     OW 7464   0.867   1.608   3.397 -0.1603 -0.4131  0.3174
65717SOL    HW1 7465   0.800   1.661   3.354  0.8100  0.7184  0.1335
65717SOL    HW2 7466   0.835   1.597   3.487  0.5572  2.3400  0.9960
65718SOL     OW 7467  12.967   9.986  12.269 -0.5226 -0.1097  0.2984
65718SOL    HW1 7468  12.954   9.979  12.175  0.3108  2.5042 -0.0912
65718SOL    HW2 7469  12.895   9.936  12.307 -1.1972 -0.7606 -1.7080
65719SOL     OW 7470   0.869  12.102   8.979  0.2541 -0.4362  0.5994
65719SOL    HW1 7471   0.844  12.055   8.899  1.3228 -1.6498  0.9421
65719SOL    HW2 7472   0.795  12.090   9.038  0.5829 -1.9032  0.7462
65720SOL     OW 7473   2.325   9.152  11.763 -0.1434 -0.4863  0.2466
65720SOL    HW1 7474   2.303   9.107  11.845 -0.6663  0.3699  0.5944
65720SOL    HW2 7475   2.420   9.164  11.766 -0.1839 -0.2806  0.8339
65721SOL     OW 7476   1.200  12.589   7.052  0.1712  0.3374  0.0656
65721SOL    HW1 7477   1.199  12.498   7.023 -0.0335 -0.1898  1.6112
65721SOL    HW2 7478   1.127  12.630   7.006  0.2460 -0.2796 -0.6172
65722SOL     OW 7479   6.552  12.525   7.517 -0.3870  0.2756  0.6184
65722SOL    HW1 7480   6.648  12.527   7.510 -0.4829  1.8775 -1.0119
65722SOL    HW2 7481   6.522  12.518   7.427 -1.8326 -1.0011  1.1605
65723SOL     OW 7482  12.832   5.587  10.074  0.4132 -0.1346 -0.6186
65723SOL    HW1 7483  12.875   5.576  10.159 -0.2684  0.3024 -0.2022
65723SOL    HW2 7484  12.896   5.556  10.010  1.5218  0.8944 -0.0516
65724SOL     OW 7485   2.739   7.499   3.732  0.3807 -1.0486 -0.0913
65724SOL    HW1 7486   2.650   7.510   3.765  1.2661  1.1238  1.7961
65724SOL    HW2 7487   2.727   7.462   3.644 -2.3842 -0.4948 -0.0406
65725SOL     OW 7488   1.771   2.611  11.033  0.3023  0.1377 -0.1301
65725SOL    HW1 7489   1.828   2.536  11.021 -0.5455 -0.6273  0.5140
65725SOL    HW2 7490   1.806   2.677  10.973  1.6157 -0.4362 -0.0269
65726SOL     OW 7491   3.428   5.178   7.044  0.2957 -0.0868  0.3671
65726SOL    HW1 7492   3.420   5.151   6.953 -2.1421 -1.2037  0.8267
65726SOL    HW2 7493   3.339   5.172   7.079  0.9381  1.4277  2.5367
65727SOL     OW 7494   0.117   7.083  10.109  0.0397  0.5573  0.3212
65727SOL    HW1 7495   0.071   7.080  10.193 -0.3210  0.8782  0.1397
65727SOL    HW2 7496   0.105   7.173  10.079 -1.6549 -0.0716 -1.0786
65728SOL     OW 7497   3.161   5.982   1.593  0.4114 -0.0195  0.6609
65728SOL    HW1 7498   3.184   5.889   1.594  0.1017 -0.0968  0.8684
65728SOL    HW2 7499   3.139   6.002   1.684 -2.2585 -0.4453  0.2021
65729SOL     OW 7500  11.546   0.055  12.089  0.5293  0.2062  0.1740
65729SOL    HW1 7501  11.528   0.021  12.001  2.6348 -1.1812  0.2054
65729SOL    HW2 7502  11.636   0.089  12.084  1.1448 -1.0061  2.0498
65730SOL     OW 7503   8.895  11.198   2.912  0.4116 -0.0950  0.2741
65730SOL    HW1 7504   8.831  11.168   2.978 -0.2483  0.3368 -0.1544
65730SOL    HW2 7505   8.862  11.284   2.885  2.0927  0.9157  1.2511
65731SOL     OW 7506   5.737   7.792   2.119  0.1179 -0.6958 -0.5843
65731SOL    HW1 7507   5.666   7.730   2.134  1.1138 -1.9201 -0.7708
65731SOL    HW2 7508   5.779   7.762   2.038  1.7281 -0.8937  0.2763
65732SOL     OW 7509   9.274   2.826   9.192 -0.3890  0.5497 -0.1425
65732SOL    HW1 7510   9.228   2.826   9.108  0.9191  1.4948 -0.9027
65732SOL    HW2 7511   9.321   2.910   9.194  0.0727  0.2988  1.2813
65733SOL     OW 7512   7.608   5.004   4.240 -0.1261  0.6298 -0.2418
65733SOL    HW1 7513   7.567   5.086   4.265  0.9749  0.8133  1.0731
65733SOL    HW2 7514   7.690   5.002   4.289 -0.4619 -1.5995  0.3524
65734SOL     OW 7515   5.328   7.994   1.333 -0.1914 -0.1340  0.4580
65734SOL    HW1 7516   5.243   7.952   1.316 -0.4071  0.9066 -1.3689
65734SOL    HW2 7517   5.392   7.933   1.296 -0.5298  1.1221 -2.5514
65735SOL     OW 7518   3.853   2.797   8.430  0.1574  0.1600  0.5393
65735SOL    HW1 7519   3.867   2.797   8.524  0.4423 -1.0924  0.5209
65735SOL    HW2 7520   3.879   2.884   8.401  2.7969 -0.3144  1.2497
65736SOL     OW 7521  10.964   4.411  10.496  0.3788  0.0206  0.0321
65736SOL    HW1 7522  11.048   4.398  10.542  1.9213  0.7156 -2.3868
65736SOL    HW2 7523  10.958   4.336  10.437 -0.4627  0.2352 -0.1563
65737SOL     OW 7524   3.997  11.959   5.842  0.5197 -0.0856  0.0244
65737SOL    HW1 7525   4.032  11.933   5.757 -1.5208 -0.2309 -0.8416
65737SOL    HW2 7526   4.028  11.892   5.903  0.0557 -1.3615 -1.0890
65738SOL     OW 7527   0.494  12.850   8.160 -0.0122 -0.0385  0.2401
65738SOL    HW1 7528   0.526  12.765   8.190  0.1439  0.2202  0.8246
65738SOL    HW2 7529   0.558  12.877   8.094 -0.0149 -0.3375  0.1135
65739SOL     OW 7530   9.677  12.520   1.555 -0.2599  0.2401 -0.0032
65739SOL    HW1 7531   9.736  12.557   1.489 -0.8693  2.5268  0.6411
65739SOL    HW2 7532   9.591  12.552   1.531 -0.7290 -0.2196  1.0161
65740SOL     OW 7533  10.960  11.984  11.235 -0.0046 -0.0713  0.2323
65740SOL    HW1 7534  10.980  11.995  11.142 -1.0630  1.6792  0.1800
65740SOL    HW2 7535  11.020  11.914  11.263  2.8172  1.6760 -0.9570
65741SOL     OW 7536   9.013   1.842   4.031 -0.5454 -0.0139  0.3349
65741SOL    HW1 7537   9.108   1.834   4.038 -0.5984 -0.2263  0.9062
65741SOL    HW2 7538   8.999   1.901   3.958 -0.0305 -2.3182 -1.7771
65742SOL     OW 7539   4.863  11.116   3.135  0.1189 -0.5809  0.1303
65742SOL    HW1 7540   4.809  11.185   3.175 -0.1924 -0.5686 -0.3042
65742SOL    HW2 7541   4.946  11.119   3.183 -0.4694 -1.0011  1.2359
65743SOL     OW 7542   3.434  12.119   8.250  0.4216 -0.0960  0.3641
65743SOL    HW1 7543   3.480  12.202   8.263  0.5255 -0.1805  0.5349
65743SOL    HW2 7544   3.374  12.113   8.324  1.2921 -0.7621  1.0344
65744SOL     OW 7545   5.296   3.724   6.609  0.7893 -0.4530  0.5311
65744SOL    HW1 7546   5.259   3.684   6.531  0.7219  1.6611 -0.5676
65744SOL    HW2 7547   5.389   3.737   6.588  0.7216  0.3479  0.7127
65745SOL     OW 7548   0.188   4.821   0.093  0.0596  0.5879  0.7334
65745SOL    HW1 7549   0.095   4.815   0.116  0.2013  0.4234  1.2610
65745SOL    HW2 7550   0.187   4.850   0.001 -0.5457 -1.5052  0.0135
65746SOL     OW 7551   8.860   9.355   2.580 -0.0847 -0.8720  0.1248
65746SOL    HW1 7552   8.852   9.267   2.542  2.1904 -1.4020  0.7598
65746SOL    HW2 7553   8.917   9.402   2.521  1.0202 -0.7464  1.2616
65747SOL     OW 7554   4.527   1.589   9.534 -0.3108  1.1208  0.0999
65747SOL    HW1 7555   4.448   1.590   9.481  0.0208 -1.6286 -0.5846
65747SOL    HW2 7556   4.528   1.502   9.574  2.3645  1.0497  0.0609
65748SOL     OW 7557   8.356   2.385   6.666  0.0289 -0.2252 -0.2104
65748SOL    HW1 7558   8.318   2.467   6.636  1.6018  0.0703 -1.5226
65748SOL    HW2 7559   8.320   2.372   6.754  0.3659  2.2492  0.3450
65749SOL     OW 7560   4.216   0.960   4.065  0.4795  0.4117  0.5448
65749SOL    HW1 7561   4.175   1.025   4.121  0.6092  2.3398 -1.4342
65749SOL    HW2 7562   4.144   0.904   4.036 -0.1377  1.3768  0.1563
65750SOL     OW 7563  10.837   1.682   7.155 -0.1517  0.0527  0.1120
65750SOL    HW1 7564  10.833   1.635   7.238 -0.2593  1.9388  1.2171
65750SOL    HW2 7565  10.768   1.747   7.160 -0.4370 -0.0523 -1.6506
65751SOL     OW 7566  10.369   7.176  12.191 -0.3256  0.5203  0.2463
65751SOL    HW1 7567  10.287   7.134  12.166 -0.0783  0.7907 -1.1214
65751SOL    HW2 7568  10.373   7.255  12.137  1.5241 -0.2566 -0.8820
65752SOL     OW 7569   9.548   6.072   1.706 -0.0936  0.3881  0.5431
65752SOL    HW1 7570   9.638   6.104   1.708  0.4041 -0.7034 -1.6284
65752SOL    HW2 7571   9.536   6.031   1.792  1.4879  0.5207  0.8668
65753SOL     OW 7572   5.225   9.034   4.371  0.2881  0.6451  0.1512
65753SOL    HW1 7573   5.152   9.024   4.309 -0.1303 -2.5064  0.9469
65753SOL    HW2 7574   5.303   9.036   4.315 -0.1956 -0.1435 -0.5889
65754SOL     OW 7575   3.879   0.065   8.232 -0.0706 -0.6041 -0.6474
65754SOL    HW1 7576   3.918   0.142   8.273 -1.4407 -0.9304  1.4526
65754SOL    HW2 7577   3.945   0.035   8.169  0.9165  1.6472 -0.7834
65755SOL     OW 7578   8.919   8.531   1.811  0.3666 -0.7658 -1.2544
65755SOL    HW1 7579   8.836   8.491   1.786 -0.3592  1.1979 -2.2261
65755SOL    HW2 7580   8.947   8.580   1.734  0.6937  1.2897  0.0703
65756SOL     OW 7581  12.942   7.037   2.704 -0.3133  0.0744  0.7561
65756SOL    HW1 7582  13.006   6.968   2.688  0.9035  1.0483  1.2877
65756SOL    HW2 7583  12.868   7.014   2.648  0.3479 -1.2579  0.3844
65757SOL     OW 7584  10.282  10.676   2.403 -0.8990  0.0977 -0.0836
65757SOL    HW1 7585  10.287  10.717   2.489  0.2633 -0.3226  0.0580
65757SOL    HW2 7586  10.313  10.587   2.417  1.7915  0.7277 -1.3671
65758SOL     OW 7587   1.921   7.534  10.658 -0.5805  0.3266 -0.0013
65758SOL    HW1 7588   1.963   7.458  10.618 -1.6119 -0.4912  0.4266
65758SOL    HW2 7589   1.859   7.497  10.720 -0.5470  1.5425  0.7930
65759SOL     OW 7590   7.591   8.115  10.424 -0.0391  0.4286  0.6266
65759SOL    HW1 7591   7.541   8.050  10.375 -0.2099  0.7187  0.4128
65759SOL    HW2 7592   7.682   8.099  10.397  0.0622 -0.4768  1.4560
65760SOL     OW 7593   8.999  12.833   7.071 -0.4507 -0.1279 -0.2750
65760SOL    HW1 7594   9.067  12.862   7.132  1.2216 -1.8438 -1.2071
65760SOL    HW2 7595   8.917  12.843   7.119  0.4143  2.0254  0.8978
65761SOL     OW 7596  12.864   7.690   4.814 -0.5876  0.2003 -0.0087
65761SOL    HW1 7597  12.957   7.671   4.803 -0.1712  2.8889 -2.5151
65761SOL    HW2 7598  12.829   7.615   4.862  2.4795 -1.8305 -0.6843
65762SOL     OW 7599   8.125  12.800   4.517  0.0906 -0.1048 -0.3373
65762SOL    HW1 7600   8.186  12.874   4.511  0.2245 -0.2207 -0.4224
65762SOL    HW2 7601   8.040  12.840   4.530  0.3865  0.0244  1.4084
65763SOL     OW 7602   7.656  10.419   9.362  0.0536 -0.2839 -0.2453
65763SOL    HW1 7603   7.642  10.403   9.268  0.1180 -2.0965  0.0228
65763SOL    HW2 7604   7.748  10.395   9.376  0.4465  1.2598  0.0666
65764SOL     OW 7605   3.547   7.052  10.867  1.0239 -0.2025 -0.5277
65764SOL    HW1 7606   3.463   7.025  10.829  1.0850 -0.8719 -0.2128
65764SOL    HW2 7607   3.569   6.980  10.927  1.3682  0.3995  0.0807
65765SOL     OW 7608   2.746   6.142   3.907 -0.2755 -0.0892  0.0293
65765SOL    HW1 7609   2.716   6.185   3.827  0.1999  0.9458  0.3971
65765SOL    HW2 7610   2.772   6.213   3.965 -0.0676 -0.8490  0.8958
65766SOL     OW 7611  10.158   2.854   9.137 -0.1662 -0.2999  0.3085
65766SOL    HW1 7612  10.107   2.912   9.080  0.2959  1.4175  1.5448
65766SOL    HW2 7613  10.248   2.863   9.106 -0.1759 -0.8548  0.1155
65767SOL     OW 7614   6.519   9.937   8.896  0.0840 -0.6793 -0.0607
65767SOL    HW1 7615   6.472   9.975   8.970  0.5301  0.8424 -0.5131
65767SOL    HW2 7616   6.538  10.012   8.839  1.0805 -1.5884 -0.9687
65768SOL     OW 7617   4.284  12.231  10.149  0.2100 -0.7039  0.1317
65768SOL    HW1 7618   4.213  12.176  10.182 -2.7447  1.5859 -1.8649
65768SOL    HW2 7619   4.290  12.303  10.210  1.4023 -1.2259  0.6702
65769SOL     OW 7620   8.884  10.691  10.816  0.0641  0.1212 -0.7990
65769SOL    HW1 7621   8.827  10.700  10.740 -2.8284  2.9069  1.4263
65769SOL    HW2 7622   8.955  10.753  10.800  0.6233 -0.7883 -2.0301
65770SOL     OW 7623   7.112  10.125   2.658 -0.9033  0.1333 -0.1685
65770SOL    HW1 7624   7.200  10.096   2.633 -0.6404  1.4036 -0.8481
65770SOL    HW2 7625   7.123  10.160   2.746 -1.1337 -1.3543  0.4791
65771SOL     OW 7626   7.394  12.910  11.000 -0.1607  0.3727 -0.0854
65771SOL    HW1 7627   7.303  12.881  11.001 -0.3691  0.5801 -2.9462
65771SOL    HW2 7628   7.389  13.005  10.986  0.5063  0.4779  0.3273
65772SOL     OW 7629  12.770   5.560  12.584 -0.1902 -0.2113 -0.1237
65772SOL    HW1 7630  12.725   5.579  12.502 -1.6869 -1.5501  0.3322
65772SOL    HW2 7631  12.825   5.484  12.565  0.8500  0.5616 -0.3129
65773SOL     OW 7632  12.414   8.727  12.813  0.2777  0.3439  0.0597
65773SOL    HW1 7633  12.381   8.672  12.883 -0.4827  1.2393  0.4205
65773SOL    HW2 7634  12.412   8.671  12.735  1.4980 -0.7832  0.7848
65774SOL     OW 7635   0.083   9.390   1.805 -0.5994  0.1126 -0.3700
65774SOL    HW1 7636   0.151   9.334   1.769 -0.4721  1.1990 -1.9409
65774SOL    HW2 7637   0.005   9.334   1.810  0.0121 -0.7243  0.0122
65775SOL     OW 7638   2.282   0.379  11.851  0.5846 -0.4314  0.0024
65775SOL    HW1 7639   2.208   0.394  11.910 -0.3159 -1.4109 -0.8292
65775SOL    HW2 7640   2.322   0.465  11.841 -0.3987  0.1138  0.5508
65776SOL     OW 7641   7.982   4.847  11.764 -0.3186 -0.2498 -0.1206
65776SOL    HW1 7642   7.955   4.890  11.846  0.2829 -0.1911  0.0526
65776SOL    HW2 7643   7.939   4.898  11.695  0.4501  0.6852  0.0812
65777SOL     OW 7644   9.837  11.368  10.624 -0.6972 -0.2634  0.6784
65777SOL    HW1 7645   9.759  11.322  10.654 -0.3398 -0.8239  0.7728
65777SOL    HW2 7646   9.881  11.396  10.705 -0.4192 -0.6042  0.6478
65778SOL     OW 7647   6.741  10.032   7.598  0.0511  0.4036  0.1926
65778SOL    HW1 7648   6.732  10.072   7.512  3.1219 -1.2147 -1.0284
65778SOL    HW2 7649   6.726   9.938   7.582 -0.3659  0.1862  1.6670
65779SOL     OW 7650   6.556   6.729   6.295 -0.3632  0.6516 -0.1487
65779SOL    HW1 7651   6.485   6.784   6.263  0.1983  0.5629 -1.5827
65779SOL    HW2 7652   6.625   6.790   6.320 -0.3966  0.6728 -0.1083
65780SOL     OW 7653   3.805  12.064   1.583  0.7199 -0.5833 -0.0725
65780SOL    HW1 7654   3.718  12.100   1.563  1.7585  2.5862  0.5099
65780SOL    HW2 7655   3.794  12.024   1.669 -0.3336 -0.8779 -0.3259
65781SOL     OW 7656   9.395   4.826   2.905 -0.6776 -0.2489  0.2900
65781SOL    HW1 7657   9.314   4.809   2.857  0.1599 -0.6176 -1.0249
65781SOL    HW2 7658   9.464   4.811   2.841  0.3929  1.1232  1.0978
65782SOL     OW 7659  12.539   0.285   4.805  0.3565 -0.1936 -0.4166
65782SOL    HW1 7660  12.554   0.262   4.897 -1.1318 -1.8980 -0.5545
65782SOL    HW2 7661  12.444   0.286   4.795  0.4936 -0.1584 -1.9656
65783SOL     OW 7662  10.877   2.605   5.210  0.6444 -0.1524 -0.3757
65783SOL    HW1 7663  10.878   2.673   5.277 -0.8589 -2.0299  1.6625
65783SOL    HW2 7664  10.934   2.536   5.245 -0.9557 -1.5907 -0.4692
65784SOL     OW 7665  12.406   2.134   7.642  0.0790  0.6697  0.0339
65784SOL    HW1 7666  12.495   2.149   7.674  0.0501  0.7427  0.0810
65784SOL    HW2 7667  12.356   2.112   7.720  0.2404 -0.2292 -0.1101
65785SOL     OW 7668  11.971   6.914  11.446  0.5333 -0.0378 -0.2530
65785SOL    HW1 7669  12.018   6.900  11.365  1.1724 -1.7965  0.3817
65785SOL    HW2 7670  12.008   6.994  11.482  1.5991 -0.2997 -0.7530
65786SOL     OW 7671   0.720   4.180   7.237 -0.1548 -0.2844 -0.1475
65786SOL    HW1 7672   0.743   4.121   7.308  2.7145 -0.5236 -1.1159
65786SOL    HW2 7673   0.748   4.267   7.267 -0.3900 -0.1358 -0.3544
65787SOL     OW 7674  10.680   9.059  12.780  0.5341  0.2513  0.2182
65787SOL    HW1 7675  10.724   9.029  12.701  1.5808  1.0827  0.4648
65787SOL    HW2 7676  10.645   9.145  12.757  1.2590  0.7096  0.7855
65788SOL     OW 7677   9.939   4.627   8.799  1.3643  0.6308 -0.2505
65788SOL    HW1 7678   9.846   4.604   8.807  1.6279 -1.2263 -1.8054
65788SOL    HW2 7679   9.985   4.559   8.848  1.9673  0.9474 -0.3701
65789SOL     OW 7680   9.960   2.236   3.507 -0.2889  0.0917  0.0343
65789SOL    HW1 7681   9.962   2.186   3.425  3.3854  0.5851 -0.3032
65789SOL    HW2 7682   9.975   2.170   3.575  1.9759  0.2869 -0.2055
65790SOL     OW 7683   0.281  12.436   4.291 -0.2740  0.0893  0.5258
65790SOL    HW1 7684   0.352  12.469   4.346 -0.4688  0.3895  0.6007
65790SOL    HW2 7685   0.256  12.510   4.236 -0.0126 -0.2389 -0.0436
65791SOL     OW 7686  11.542   4.544  12.023  0.0805  0.0974 -0.1933
65791SOL    HW1 7687  11.607   4.569  11.957  0.3056 -0.5812 -0.2364
65791SOL    HW2 7688  11.521   4.625  12.068  1.0266  0.3056 -0.1163
65792SOL     OW 7689   8.526   7.620   8.882 -0.5416 -0.3206  0.6252
65792SOL    HW1 7690   8.536   7.532   8.848 -1.0371  0.1108 -0.7031
65792SOL    HW2 7691   8.495   7.608   8.972  1.2723 -1.4921  1.1274
65793SOL     OW 7692   8.566   2.946   2.236 -0.1344 -0.5093 -0.3591
65793SOL    HW1 7693   8.473   2.932   2.217 -0.8202  1.1110  1.4690
65793SOL    HW2 7694   8.582   2.896   2.315 -0.2240  1.3614  0.9040
65794SOL     OW 7695   3.595   3.012  12.362  0.0434 -0.0208  0.2489
65794SOL    HW1 7696   3.634   2.969  12.438 -0.8059 -0.4747  0.4393
65794SOL    HW2 7697   3.501   3.008  12.378 -0.0914  1.0350 -0.2146
65795SOL     OW 7698   2.316   1.068   7.735  0.4031  0.0545 -0.5293
65795SOL    HW1 7699   2.371   1.049   7.810 -1.3496 -2.1162  0.3233
65795SOL    HW2 7700   2.367   1.129   7.682  2.8297 -0.4755  1.0496
65796SOL     OW 7701  11.535   9.541  11.183  0.2269  0.3484 -0.5218
65796SOL    HW1 7702  11.610   9.545  11.123  1.8403 -1.7536  1.1910
65796SOL    HW2 7703  11.489   9.624  11.169  1.3566  0.6025 -3.5253
65797SOL     OW 7704   3.668   8.162   4.615 -0.0286  0.0833 -0.0079
65797SOL    HW1 7705   3.679   8.256   4.626  0.3484  0.1314 -0.7243
65797SOL    HW2 7706   3.603   8.154   4.545  0.9421 -0.1698 -0.9084
65798SOL     OW 7707   1.078   4.740  11.518 -0.2306 -0.6848 -0.3352
65798SOL    HW1 7708   1.161   4.739  11.470  0.5274 -0.7461  0.9333
65798SOL    HW2 7709   1.078   4.824  11.564 -1.1033 -0.4826 -0.6863
65799SOL     OW 7710   6.652  11.805   5.097  0.0459  0.7741 -0.0953
65799SOL    HW1 7711   6.610  11.734   5.049 -0.6702  0.7986  0.4685
65799SOL    HW2 7712   6.599  11.814   5.177 -0.0760  2.1487 -0.3026
65800SOL     OW 7713   2.131   6.456   8.891  0.0980 -0.8808  0.0413
65800SOL    HW1 7714   2.041   6.486   8.878  0.7583  0.5594 -1.5103
65800SOL    HW2 7715   2.168   6.519   8.954  0.1732 -1.1671  0.2849
65801SOL     OW 7716   7.398   3.329   5.411  0.0109 -0.3429  0.2097
65801SOL    HW1 7717   7.353   3.404   5.449 -0.5874 -1.6684  2.2882
65801SOL    HW2 7718   7.337   3.256   5.421  0.2919 -1.0363 -2.3824
65802SOL     OW 7719   4.869   6.909   7.770 -0.4667 -0.0045  0.7392
65802SOL    HW1 7720   4.811   6.951   7.706 -0.0174 -0.4225  0.0467
65802SOL    HW2 7721   4.894   6.826   7.730  1.4118  0.6084  0.5589
65803SOL     OW 7722   9.329   5.108   3.019  0.2767 -0.2447  0.3977
65803SOL    HW1 7723   9.416   5.090   3.055  0.2300 -0.9637  0.1680
65803SOL    HW2 7724   9.282   5.025   3.028 -0.1308 -0.0804 -0.1952
65804SOL     OW 7725   8.972  12.393   5.809  0.1355 -0.1037 -0.3122
65804SOL    HW1 7726   8.912  12.460   5.776 -0.2304  0.8101  2.0047
65804SOL    HW2 7727   8.919  12.339   5.867  1.2020 -0.2246  0.5861
65805SOL     OW 7728  11.035   1.390   8.058  0.0492  0.0437  0.5685
65805SOL    HW1 7729  11.032   1.297   8.078 -0.8846 -0.2044 -0.6355
65805SOL    HW2 7730  11.112   1.422   8.105 -0.0520 -1.1729  1.6113
65806SOL     OW 7731   1.576   6.222   1.305  0.1782 -0.1928  0.2509
65806SOL    HW1 7732   1.608   6.138   1.271  0.1429 -0.3072  0.5012
65806SOL    HW2 7733   1.567   6.277   1.227  2.2160  0.2848  0.2941
65807SOL     OW 7734   9.849   0.957   0.484 -0.1736  0.1139 -0.2761
65807SOL    HW1 7735   9.865   0.998   0.569  1.5819 -1.7896  0.3920
65807SOL    HW2 7736   9.847   0.863   0.502 -0.1074 -0.3312 -2.2951
65808SOL     OW 7737   5.051  11.115   2.825  0.4848 -0.7792  0.1492
65808SOL    HW1 7738   4.966  11.088   2.861  0.4872  1.5586  2.1122
65808SOL    HW2 7739   5.033  11.198   2.781  1.5879 -0.8015 -0.3803
65809SOL     OW 7740   1.111   2.652   1.929 -0.3235  0.2621 -0.1937
65809SOL    HW1 7741   1.134   2.741   1.901  0.1442 -0.0758 -0.8832
65809SOL    HW2 7742   1.169   2.595   1.879 -0.4675 -0.4256  0.4149
65810SOL     OW 7743  10.585   0.387  11.208  0.6256 -0.6053 -0.5337
65810SOL    HW1 7744  10.609   0.329  11.281 -1.1954 -1.2078 -0.3685
65810SOL    HW2 7745  10.628   0.347  11.132  0.7460 -1.2395 -0.1454
65811SOL     OW 7746   7.087   9.654   7.458 -0.7706  1.0490  0.7072
65811SOL    HW1 7747   7.181   9.647   7.441 -1.2110 -3.5033 -1.3943
65811SOL    HW2 7748   7.076   9.621   7.547 -0.4119 -0.0046  0.3852
65812SOL     OW 7749   7.733   4.835   7.589  0.0707 -0.0423  0.4079
65812SOL    HW1 7750   7.657   4.880   7.626  0.9951  0.9475  1.1787
65812SOL    HW2 7751   7.800   4.843   7.656  1.4148  0.6629 -0.9598
65813SOL     OW 7752   3.817   0.002   3.485 -0.1267  0.1513  0.5922
65813SOL    HW1 7753   3.756  -0.042   3.544  2.6157 -0.3546  3.3088
65813SOL    HW2 7754   3.898   0.011   3.536  1.3282  3.0557 -1.8739
65814SOL     OW 7755  11.468   3.131   1.079  0.3817 -0.3668 -0.6333
65814SOL    HW1 7756  11.396   3.081   1.041  0.6145 -0.6660 -0.6869
65814SOL    HW2 7757  11.504   3.074   1.147  1.1160 -0.5836 -1.1905
65815SOL     OW 7758   8.996  12.117   0.904 -0.0961 -0.9576 -0.0157
65815SOL    HW1 7759   9.044  12.158   0.976 -3.4073  0.3760  1.6708
65815SOL    HW2 7760   8.974  12.190   0.845 -1.8666 -1.0830  0.4333
65816SOL     OW 7761   8.121  12.574  11.438 -0.6453 -0.1205  0.3820
65816SOL    HW1 7762   8.029  12.580  11.464 -0.6328  1.0697  0.1865
65816SOL    HW2 7763   8.152  12.493  11.479 -1.7550 -0.5027  0.5086
65817SOL     OW 7764  10.552   2.694   4.005  0.4926 -0.0356 -0.2854
65817SOL    HW1 7765  10.459   2.704   3.985  0.4152  0.1132  0.1256
65817SOL    HW2 7766  10.562   2.736   4.091  1.3112  1.7164 -1.1912
65818SOL     OW 7767   2.162  10.700  11.069  0.1134  0.3597  0.1244
65818SOL    HW1 7768   2.133  10.776  11.120 -0.3740  0.5660 -0.4476
65818SOL    HW2 7769   2.218  10.738  11.001  1.3801  0.0143  0.9356
65819SOL     OW 7770   9.109   9.467   3.741 -0.2372  0.0811 -0.4152
65819SOL    HW1 7771   9.106   9.536   3.674  1.3829  0.0953 -0.5043
65819SOL    HW2 7772   9.053   9.398   3.705  0.5990  0.0830 -1.8226
65820SOL     OW 7773   5.610   1.392  10.652 -0.0138 -0.1253  0.4758
65820SOL    HW1 7774   5.639   1.455  10.586 -0.9321  0.1387  0.3061
65820SOL    HW2 7775   5.651   1.309  10.626  0.2305  0.1415  0.0032
65821SOL     OW 7776   0.728   3.390   2.790  0.2134  0.2104  0.3686
65821SOL    HW1 7777   0.646   3.403   2.742  1.5007  0.4812 -1.8582
65821SOL    HW2 7778   0.759   3.479   2.808 -1.3452  0.2356  3.9341
65822SOL     OW 7779   8.234   7.698   1.603 -0.7385  0.1034 -0.3954
65822SOL    HW1 7780   8.152   7.657   1.577 -0.5874 -0.4681  0.0182
65822SOL    HW2 7781   8.302   7.636   1.577 -0.5311 -0.0985  0.5650
65823SOL     OW 7782   6.405   4.612   8.712  0.6009 -0.0022 -0.0706
65823SOL    HW1 7783   6.361   4.696   8.698 -0.4840 -0.2688  1.4807
65823SOL    HW2 7784   6.498   4.631   8.700  0.2641  1.0874 -1.1476
65824SOL     OW 7785   2.709   5.452   1.684 -0.1928  0.2184 -0.7288
65824SOL    HW1 7786   2.690   5.406   1.766 -0.3131 -0.6412 -1.2269
65824SOL    HW2 7787   2.654   5.530   1.687  0.0504  0.3708  0.1599
65825SOL     OW 7788   1.570   2.474   1.660  0.0698 -0.3768 -0.0146
65825SOL    HW1 7789   1.651   2.510   1.622  0.4767 -0.3554  0.8422
65825SOL    HW2 7790   1.598   2.435   1.743 -0.8716  0.0366  0.5137
65826SOL     OW 7791   8.533   1.110   5.029  0.1079  0.2999 -0.3847
65826SOL    HW1 7792   8.559   1.080   4.942 -0.2161 -0.0252 -0.3727
65826SOL    HW2 7793   8.499   1.198   5.015 -0.5855 -0.0117 -0.6984
65827SOL     OW 7794   7.101   2.868   8.002 -0.2005 -0.4160  0.2923
65827SOL    HW1 7795   7.141   2.955   7.998 -4.6713  1.9267 -0.5459
65827SOL    HW2 7796   7.116   2.838   8.091  0.9097  1.5119  0.8062
65828SOL     OW 7797   7.082  12.316   3.467 -0.4591 -0.2666 -0.0215
65828SOL    HW1 7798   7.167  12.272   3.465 -0.7597 -1.0316  2.0788
65828SOL    HW2 7799   7.095  12.395   3.415  1.1561 -1.0028 -0.8142
65829SOL     OW 7800  12.958   0.246   8.591  0.0514  0.1268  0.1797
65829SOL    HW1 7801  12.945   0.273   8.501 -0.2830 -0.4085  0.0640
65829SOL    HW2 7802  12.982   0.153   8.586 -0.5700 -0.0709  0.6703
65830SOL     OW 7803   3.306   9.202  10.430 -0.4154  0.2110 -0.5043
65830SOL    HW1 7804   3.345   9.210  10.343 -0.6131 -0.4785 -0.6611
65830SOL    HW2 7805   3.262   9.117  10.429 -1.2941  0.6429 -0.0854
65831SOL     OW 7806   0.797   9.418   2.259 -0.5727 -0.0403 -0.2355
65831SOL    HW1 7807   0.733   9.381   2.320  0.6230 -1.9970 -0.0808
65831SOL    HW2 7808   0.878   9.369   2.276  0.7411  1.7300 -1.0376
65832SOL     OW 7809   0.815   3.958   8.102  0.0092  0.3865  0.2026
65832SOL    HW1 7810   0.750   3.952   8.173 -0.0430 -0.3041  0.1048
65832SOL    HW2 7811   0.870   3.881   8.114  1.2105  1.2948  0.6558
65833SOL     OW 7812   4.683  10.992  11.217 -0.1145 -0.3751 -0.3193
65833SOL    HW1 7813   4.626  11.049  11.165 -0.1737  0.1902  0.3546
65833SOL    HW2 7814   4.659  10.904  11.190 -0.1334 -0.0949 -1.2623
65834SOL     OW 7815   3.893   3.046   0.117 -0.2943 -0.2112 -0.2346
65834SOL    HW1 7816   3.956   3.101   0.162 -3.0896  2.2376  1.0382
65834SOL    HW2 7817   3.823   3.031   0.182 -3.4232  1.5701 -2.8603
65835SOL     OW 7818   7.599   8.009   9.897 -0.4389  0.2135  0.4083
65835SOL    HW1 7819   7.681   8.029   9.942  0.1503 -0.9567 -0.1241
65835SOL    HW2 7820   7.577   8.090   9.852  0.2986  0.6142  0.7405
65836SOL     OW 7821   6.484  11.237  12.609  0.0045  0.1476 -0.0072
65836SOL    HW1 7822   6.516  11.166  12.665  0.2169  0.2112 -0.0439
65836SOL    HW2 7823   6.451  11.193  12.531  2.5865  0.2000 -1.2456
65837SOL     OW 7824   2.415   1.217   8.626  0.0407  0.1196 -0.0810
65837SOL    HW1 7825   2.356   1.242   8.697  0.3143 -2.8759  1.3653
65837SOL    HW2 7826   2.366   1.151   8.577  0.9605  0.0194 -0.8993
65838SOL     OW 7827  12.798  11.846   4.136 -0.6659  0.2870  0.1790
65838SOL    HW1 7828  12.854  11.894   4.196 -0.6713 -0.6762  0.9726
65838SOL    HW2 7829  12.837  11.861   4.050  1.6850 -1.4406  0.8122
65839SOL     OW 7830  12.213   7.452   3.905 -0.2664  0.0600 -0.4258
65839SOL    HW1 7831  12.153   7.468   3.977 -2.2643 -1.7666 -1.5605
65839SOL    HW2 7832  12.211   7.533   3.854  0.3646  0.9821  0.9595
65840SOL     OW 7833  10.738   7.006  10.611  0.3536  0.3409  0.1725
65840SOL    HW1 7834  10.676   7.060  10.562  0.2051  0.3499  0.3665
65840SOL    HW2 7835  10.820   7.054  10.607  0.2502  0.5235  0.2424
65841SOL     OW 7836  11.526  12.343   8.915 -0.2525  0.4840  0.2140
65841SOL    HW1 7837  11.499  12.425   8.874 -0.7492  0.1784 -0.0836
65841SOL    HW2 7838  11.621  12.352   8.928 -0.1800  0.8049 -0.5017
65842SOL     OW 7839  12.043   1.243  11.391 -0.1289 -0.7960 -0.1821
65842SOL    HW1 7840  12.126   1.210  11.425  0.2267 -0.9425 -1.1509
65842SOL    HW2 7841  11.989   1.166  11.377 -0.5958 -0.6699  0.8348
65843SOL     OW 7842   4.344   7.434   7.305  0.3354 -0.2237 -0.4173
65843SOL    HW1 7843   4.316   7.350   7.269 -0.4913 -1.0096  1.8483
65843SOL    HW2 7844   4.273   7.495   7.282  0.4487 -0.3874 -1.2049
65844SOL     OW 7845   4.040   9.980   4.678  0.6756 -0.2874 -0.0444
65844SOL    HW1 7846   4.096  10.053   4.702  1.0795 -0.3487 -0.7557
65844SOL    HW2 7847   4.101   9.906   4.667  0.1677 -1.0169  1.7178
65845SOL     OW 7848   7.764   2.288   5.043  0.2163  0.7028  0.1560
65845SOL    HW1 7849   7.771   2.193   5.035  0.1137  0.6204  0.9353
65845SOL    HW2 7850   7.797   2.307   5.131  0.0839  1.3703  0.0696
65846SOL     OW 7851   2.283   0.253  10.091  0.1079 -0.2030  0.2011
65846SOL    HW1 7852   2.353   0.221  10.147  0.0490  0.9537  0.9762
65846SOL    HW2 7853   2.254   0.334  10.133 -1.2170 -0.2885 -0.4855
65847SOL     OW 7854   3.063   2.684   7.082 -0.2481 -0.0225 -0.6384
65847SOL    HW1 7855   3.157   2.689   7.065  0.3877 -2.8595  1.4009
65847SOL    HW2 7856   3.043   2.590   7.080 -2.4269  0.2807  1.7723
65848SOL     OW 7857  10.093   3.959  10.327 -1.0600  0.2569 -0.0632
65848SOL    HW1 7858  10.055   4.047  10.319  1.5188  1.3268 -1.8552
65848SOL    HW2 7859  10.073   3.917  10.244 -0.3655 -0.0274 -0.0868
65849SOL     OW 7860   4.461   6.002  10.734 -0.1718  0.8241 -0.1703
65849SOL    HW1 7861   4.458   5.914  10.773 -0.2738  1.0764  0.4131
65849SOL    HW2 7862   4.419   6.058  10.800  0.5650  1.4265 -0.1977
65850SOL     OW 7863   7.138  11.159   7.750 -0.4709  0.3035 -0.1236
65850SOL    HW1 7864   7.158  11.176   7.842 -1.4040 -0.1237  0.1754
65850SOL    HW2 7865   7.200  11.092   7.723  0.2040  0.8685  0.0175
65851SOL     OW 7866  10.274   4.525   8.014 -0.2563 -0.8324 -0.1932
65851SOL    HW1 7867  10.356   4.542   8.061 -0.0081  0.2603 -0.9718
65851SOL    HW2 7868  10.250   4.436   8.038 -0.6887 -0.0191  2.8385
65852SOL     OW 7869   9.463  11.527   0.989  0.2362  0.3112  0.1087
65852SOL    HW1 7870   9.458  11.539   0.894  0.6851 -2.0949 -0.2714
65852SOL    HW2 7871   9.393  11.465   1.010  1.9498 -1.5107  0.8411
65853SOL     OW 7872  11.951   3.138   0.785  0.2198  0.0153  0.2313
65853SOL    HW1 7873  11.873   3.116   0.735 -2.0966  1.6519  2.8314
65853SOL    HW2 7874  11.942   3.087   0.866  1.3094  1.0158  1.0137
65854SOL     OW 7875   4.553   7.517   3.222  0.2432  1.0194  0.8678
65854SOL    HW1 7876   4.604   7.536   3.143 -0.4488  0.3677  0.2415
65854SOL    HW2 7877   4.618   7.508   3.292  1.0187 -0.0616  0.0385
65855SOL     OW 7878   1.800   3.569  11.258 -0.2216 -0.0823 -0.2190
65855SOL    HW1 7879   1.726   3.525  11.217 -0.6967  0.6477 -0.1634
65855SOL    HW2 7880   1.798   3.540  11.349 -0.2158 -0.3518 -0.3053
65856SOL     OW 7881   1.087   2.447  11.824 -0.6115  0.0516 -0.1760
65856SOL    HW1 7882   1.176   2.442  11.788 -0.8902  0.7000 -0.9781
65856SOL    HW2 7883   1.045   2.366  11.795 -0.2847 -0.2670  0.2233
65857SOL     OW 7884  12.100   9.515  12.671 -0.0978 -0.2698  0.2652
65857SOL    HW1 7885  12.004   9.514  12.660 -0.1066  1.3657 -0.1236
65857SOL    HW2 7886  12.131   9.571  12.599  1.2285 -1.3268 -0.0288
65858SOL     OW 7887   0.450   3.864  11.851 -0.3224  0.2262 -0.3456
65858SOL    HW1 7888   0.503   3.788  11.826 -1.4291 -0.2824 -1.2145
65858SOL    HW2 7889   0.497   3.939  11.814  0.2450 -0.1283 -0.3552
65859SOL     OW 7890  10.534   2.934   5.346 -0.1243  0.4162  0.8600
65859SOL    HW1 7891  10.502   2.975   5.266  0.0257 -1.9860 -0.5311
65859SOL    HW2 7892  10.626   2.959   5.350  0.0966 -0.1408 -0.2426
65860SOL     OW 7893  10.139   8.517   7.878  0.6280  0.0075  0.1957
65860SOL    HW1 7894  10.161   8.550   7.965 -3.1737  0.0034  1.3603
65860SOL    HW2 7895  10.153   8.422   7.884 -1.3466 -0.2593  1.5457
65861SOL     OW 7896   8.761   3.171   9.839 -0.5093 -0.1992  0.8232
65861SOL    HW1 7897   8.688   3.136   9.787  0.0513  0.0268 -0.1317
65861SOL    HW2 7898   8.720   3.197   9.921 -2.0219  2.1283 -0.5329
65862SOL     OW 7899   8.215   2.455   7.241  0.1173 -1.0199  0.1735
65862SOL    HW1 7900   8.305   2.451   7.209  0.3274 -2.1110  0.8477
65862SOL    HW2 7901   8.177   2.530   7.196  0.9404 -1.3947 -1.2186
65863SOL     OW 7902   5.258  10.713   3.263  0.1729  0.0516 -0.3821
65863SOL    HW1 7903   5.266  10.717   3.358  0.5047  0.9717 -0.4396
65863SOL    HW2 7904   5.305  10.634   3.239 -1.0079 -0.8995  0.3195
65864SOL     OW 7905  10.070   6.309   7.961 -0.1312 -0.8165 -0.0925
65864SOL    HW1 7906  10.119   6.390   7.948  0.2678 -1.2836 -1.8584
65864SOL    HW2 7907  10.085   6.286   8.053 -0.1382  1.0129  0.4038
65865SOL     OW 7908   6.045   5.008   8.153  0.1059  0.1929  0.5859
65865SOL    HW1 7909   6.037   4.976   8.063 -0.6724  0.3662  0.5920
65865SOL    HW2 7910   6.027   5.101   8.147  3.6788  1.0123  0.3460
65866SOL     OW 7911   1.771  12.633   6.426 -0.1513 -0.1468 -0.2090
65866SOL    HW1 7912   1.846  12.678   6.465  0.3054 -0.1668 -1.0452
65866SOL    HW2 7913   1.769  12.548   6.468  0.3735 -0.1895 -0.2640
65867SOL     OW 7914   1.466   7.409   2.852  0.1904  0.2263  0.2460
65867SOL    HW1 7915   1.374   7.400   2.879  0.0082 -0.4660 -0.5807
65867SOL    HW2 7916   1.479   7.341   2.786  1.1164  0.7456 -0.1277
65868SOL     OW 7917   2.840  10.511   2.017 -0.4626  0.4639  0.6797
65868SOL    HW1 7918   2.746  10.530   2.022 -0.5770 -0.0979  0.6870
65868SOL    HW2 7919   2.867  10.501   2.108 -0.4504  0.3671  0.6657
65869SOL     OW 7920   1.967   1.731  11.237 -0.4894 -0.6240  0.4010
65869SOL    HW1 7921   2.013   1.799  11.286  0.1005  0.2853 -1.3167
65869SOL    HW2 7922   2.028   1.707  11.167 -1.2776 -1.9026  0.1153
65870SOL     OW 7923   7.825   3.415   7.554  0.4604 -0.3781  0.1612
65870SOL    HW1 7924   7.812   3.452   7.467 -0.4530 -1.7569 -0.3170
65870SOL    HW2 7925   7.737   3.398   7.586  0.8319 -1.3442  0.7039
65871SOL     OW 7926   2.770   6.068   6.854  0.4249  0.4979 -0.2260
65871SOL    HW1 7927   2.740   5.983   6.822  0.4251  0.5062 -0.2478
65871SOL    HW2 7928   2.861   6.053   6.879  0.3688  0.4451 -0.0526
65872SOL     OW 7929   5.665   9.336   3.954 -0.5540  0.1068 -0.3866
65872SOL    HW1 7930   5.607   9.411   3.962  0.2516  0.7290 -0.2085
65872SOL    HW2 7931   5.688   9.333   3.861  0.9788  1.3323 -0.1041
65873SOL     OW 7932   0.532   5.773   4.741  0.1397 -0.0470  0.0481
65873SOL    HW1 7933   0.492   5.686   4.738  0.7850 -0.3159 -0.9239
65873SOL    HW2 7934   0.498   5.817   4.663 -0.3242  0.6405  0.6313
65874SOL     OW 7935   1.937   3.361  10.133 -0.3831  0.4376 -0.2337
65874SOL    HW1 7936   1.869   3.361  10.200 -0.8014  1.2264 -0.6539
65874SOL    HW2 7937   1.956   3.268  10.118 -1.1723  0.2229  0.0831
65875SOL     OW 7938   7.818   6.208   2.497 -0.1978 -0.2886 -0.3778
65875SOL    HW1 7939   7.852   6.220   2.409  0.6263 -4.4576 -0.8735
65875SOL    HW2 7940   7.877   6.258   2.553 -0.3310  1.8867 -2.0683
65876SOL     OW 7941   1.788   9.584  11.353 -0.5951 -0.6172  0.2756
65876SOL    HW1 7942   1.829   9.602  11.437  2.4796  1.8429 -1.5323
65876SOL    HW2 7943   1.790   9.489  11.344 -0.8863 -0.9294  2.8389
65877SOL     OW 7944   4.853   3.124  11.671  0.1775  0.2424  0.3150
65877SOL    HW1 7945   4.774   3.178  11.658  0.7726  1.5534  1.7230
65877SOL    HW2 7946   4.838   3.046  11.619 -0.7362  1.7709 -1.8618
65878SOL     OW 7947   0.487   0.718   6.299 -0.6578 -0.3428 -0.3792
65878SOL    HW1 7948   0.505   0.635   6.254 -0.9393 -0.1741 -0.8094
65878SOL    HW2 7949   0.443   0.772   6.233 -0.4482  0.1606 -0.1105
65879SOL     OW 7950   4.552   2.414   6.503  0.2653  0.1126 -0.1022
65879SOL    HW1 7951   4.486   2.362   6.458  0.8583 -1.2302  0.5413
65879SOL    HW2 7952   4.632   2.363   6.498  0.7942  0.8112  0.8047
65880SOL     OW 7953   6.580  11.553   6.644 -0.3220 -0.1558  0.2012
65880SOL    HW1 7954   6.616  11.629   6.598 -1.1428  0.3324  0.3573
65880SOL    HW2 7955   6.631  11.479   6.611 -0.0547  0.3543 -0.5523
65881SOL     OW 7956   2.655   5.721   3.632 -0.1834  0.1938 -0.1962
65881SOL    HW1 7957   2.670   5.629   3.655 -0.1106 -0.0486 -1.1877
65881SOL    HW2 7958   2.739   5.764   3.645 -0.8891  0.8452  3.3634
65882SOL     OW 7959   2.210   5.308  10.038 -0.5756 -0.0081  0.2742
65882SOL    HW1 7960   2.188   5.358   9.960  2.1142  0.4841 -0.2377
65882SOL    HW2 7961   2.154   5.230  10.033  0.1345 -0.4367 -2.6265
65883SOL     OW 7962   9.400   4.866   8.157 -0.2197  1.0534 -0.1474
65883SOL    HW1 7963   9.492   4.866   8.129 -0.5394  1.6825 -1.2786
65883SOL    HW2 7964   9.404   4.887   8.250  0.8884 -0.9931  0.3315
65884SOL     OW 7965   7.095   8.309  11.301  0.4190 -0.4847 -0.0644
65884SOL    HW1 7966   7.069   8.353  11.220  0.1027  0.0639  0.3333
65884SOL    HW2 7967   7.041   8.348  11.369  1.1450 -0.4769  0.5216
65885SOL     OW 7968   8.091   5.684   5.443  0.2478 -0.3666 -0.2474
65885SOL    HW1 7969   8.169   5.672   5.497  0.3942 -1.4503 -0.6860
65885SOL    HW2 7970   8.019   5.655   5.498  0.0200  1.4095  0.4672
65886SOL     OW 7971   3.498   6.258   0.931 -0.4338  0.0795 -0.0767
65886SOL    HW1 7972   3.572   6.217   0.886  2.5170  3.6116  0.9884
65886SOL    HW2 7973   3.509   6.234   1.022 -0.2266  1.0329  0.1633
65887SOL     OW 7974   7.877   7.505   5.386  0.0341 -0.0176  0.5273
65887SOL    HW1 7975   7.807   7.441   5.401 -0.8007  1.2241  2.3006
65887SOL    HW2 7976   7.853   7.548   5.304 -1.2266  0.2536  1.0057
65888SOL     OW 7977   9.551  10.411   8.278  0.0335  0.3328  0.0226
65888SOL    HW1 7978   9.521  10.328   8.316 -0.3846 -0.1345 -1.2563
65888SOL    HW2 7979   9.645  10.399   8.265  0.1758  0.4880  0.8562
65889SOL     OW 7980   0.347   8.943   4.095 -0.5011  0.6198 -0.4957
65889SOL    HW1 7981   0.318   8.879   4.030 -0.3793  0.6285 -0.5594
65889SOL    HW2 7982   0.442   8.949   4.082  0.1707 -2.0546  2.0543
65890SOL     OW 7983   0.399   9.834   0.399 -0.0574  0.1901  0.4312
65890SOL    HW1 7984   0.477   9.863   0.351 -0.3400  0.5825  0.1939
65890SOL    HW2 7985   0.363   9.915   0.436 -2.6393  0.7816 -2.8668
65891SOL     OW 7986   9.392   4.377   1.441 -0.4906  0.3443 -0.3268
65891SOL    HW1 7987   9.315   4.379   1.384 -0.5845 -2.2606 -0.4442
65891SOL    HW2 7988   9.464   4.408   1.386 -1.0974  0.6955 -0.9275
65892SOL     OW 7989   3.720  12.061   6.386 -0.0444 -0.0734  0.2061
65892SOL    HW1 7990   3.653  12.114   6.430 -0.4582 -0.2350 -0.2147
65892SOL    HW2 7991   3.782  12.038   6.455 -1.1857 -1.1308  0.9298
65893SOL     OW 7992   6.694   9.668  10.568 -0.4306 -0.3120 -0.0586
65893SOL    HW1 7993   6.609   9.705  10.543 -0.8016 -0.2496  1.2370
65893SOL    HW2 7994   6.754   9.742  10.570 -1.0516  0.1824  2.0079
65894SOL     OW 7995  11.223   6.317  11.517  0.6917 -0.3888  0.0801
65894SOL    HW1 7996  11.207   6.370  11.596 -0.3465 -2.4281  1.3155
65894SOL    HW2 7997  11.212   6.379  11.445  0.1644  1.2306  1.4777
65895SOL     OW 7998  10.319  10.168   3.618  0.2328 -0.0015 -0.2994
65895SOL    HW1 7999  10.390  10.104   3.623 -0.1440 -0.5733 -1.6884
65895SOL    HW2 8000  10.284  10.158   3.529  0.8071  2.8141 -0.9526
65896SOL     OW 8001   2.937  10.098   7.172  0.4985 -0.1408  0.5612
65896SOL    HW1 8002   2.958  10.187   7.144 -0.7996 -0.0331 -0.1219
65896SOL    HW2 8003   2.843  10.089   7.157  0.9376 -2.3642 -1.4704
65897SOL     OW 8004   8.205   5.541   2.890 -0.3409 -0.2180 -0.1064
65897SOL    HW1 8005   8.194   5.636   2.897 -1.2591 -0.4107  1.7909
65897SOL    HW2 8006   8.237   5.515   2.976  1.1363 -1.5112 -0.9995
65898SOL     OW 8007   6.486   1.500   7.685 -0.2276 -0.4475  0.0752
65898SOL    HW1 8008   6.436   1.552   7.622  0.4915 -1.0653 -1.0385
65898SOL    HW2 8009   6.565   1.552   7.701 -0.6849  0.0019  0.9796
65899SOL     OW 8010   2.697   2.642   4.357  0.1286  0.1800  0.0688
65899SOL    HW1 8011   2.678   2.588   4.280  0.4117  0.0063  0.1195
65899SOL    HW2 8012   2.728   2.725   4.321 -1.0982  0.6141 -0.0221
65900SOL     OW 8013   6.715  10.258   5.945 -0.6563 -0.0968  0.3263
65900SOL    HW1 8014   6.781  10.189   5.940 -1.6625 -1.0516 -0.3295
65900SOL    HW2 8015   6.670  10.242   6.028 -1.3989 -0.7472 -0.1796
65901SOL     OW 8016   0.862   5.916  12.662  0.2014  0.1465  0.1435
65901SOL    HW1 8017   0.943   5.918  12.713  0.7437  2.4928 -0.6837
65901SOL    HW2 8018   0.799   5.966  12.715 -0.7761 -1.7038  0.8074
65902SOL     OW 8019   2.732   2.879   8.756 -0.3463  0.0663  0.3256
65902SOL    HW1 8020   2.771   2.815   8.817  1.9182 -0.5933 -1.6456
65902SOL    HW2 8021   2.707   2.953   8.812  0.5795 -0.9415  2.1948
65903SOL     OW 8022   2.823   3.358   1.078 -0.1456 -0.1234  0.5817
65903SOL    HW1 8023   2.777   3.294   1.022  1.0759 -0.0213 -0.5930
65903SOL    HW2 8024   2.860   3.305   1.149 -1.1722 -0.3502  0.9751
65904SOL     OW 8025   6.158  10.115   9.315 -0.0324  0.5231  0.0585
65904SOL    HW1 8026   6.252  10.126   9.328 -0.2140  2.0890  0.2389
65904SOL    HW2 8027   6.134  10.041   9.371  1.1090 -0.0419 -0.1666
65905SOL     OW 8028   9.956  11.969  12.158 -0.1673 -0.7398 -0.5929
65905SOL    HW1 8029   9.988  12.050  12.197 -0.3307 -0.5139 -0.9202
65905SOL    HW2 8030   9.901  11.929  12.226 -1.5163  0.2920 -1.0316
65906SOL     OW 8031   3.197   0.702  11.569  0.5785 -0.6019  0.3930
65906SOL    HW1 8032   3.231   0.612  11.570  0.1797 -0.7761 -0.6180
65906SOL    HW2 8033   3.260   0.752  11.620  1.0631 -1.3667  0.5664
65907SOL     OW 8034  10.249   6.856   9.742 -0.2118  0.1031  0.2764
65907SOL    HW1 8035  10.193   6.921   9.784  0.4142  0.0137  1.2825
65907SOL    HW2 8036  10.335   6.898   9.737 -0.2976  0.1605 -1.0598
65908SOL     OW 8037   2.095   6.984   0.132  0.0675  0.5079 -0.0713
65908SOL    HW1 8038   2.001   7.003   0.132 -0.0875 -0.2159 -0.1111
65908SOL    HW2 8039   2.109   6.933   0.052  0.0958 -1.2147  0.9741
65909SOL     OW 8040   5.064   3.968   1.541 -0.1631  0.0680  0.5576
65909SOL    HW1 8041   5.038   3.935   1.455  1.5678 -1.1499  0.4623
65909SOL    HW2 8042   5.043   3.896   1.601 -1.3245  0.8955  1.1806
65910SOL     OW 8043   1.776   2.352   7.707 -0.2029  0.0335  0.4967
65910SOL    HW1 8044   1.818   2.335   7.791  1.8203  1.4372 -0.1470
65910SOL    HW2 8045   1.821   2.296   7.645  0.4482  1.1984 -0.1276
65911SOL     OW 8046   6.649   7.838   0.624 -0.4867  0.4107 -0.0422
65911SOL    HW1 8047   6.689   7.787   0.695 -2.5998 -0.1019  0.8578
65911SOL    HW2 8048   6.582   7.780   0.588 -0.6504  1.3425 -1.2799
65912SOL     OW 8049   5.713  12.107  10.780  0.6304 -0.8769 -0.2807
65912SOL    HW1 8050   5.639  12.164  10.760 -0.2717 -2.3650 -1.4149
65912SOL    HW2 8051   5.710  12.096  10.875  0.5815  0.5972 -0.0909
65913SOL     OW 8052  12.612   2.455  12.205 -0.8687  0.0093  0.3320
65913SOL    HW1 8053  12.685   2.506  12.171 -2.2718  1.4883 -0.5646
65913SOL    HW2 8054  12.641   2.427  12.292  0.8251  0.3824 -0.0790
65914SOL     OW 8055   3.308   5.480  12.781  0.2899 -0.0128 -0.0780
65914SOL    HW1 8056   3.215   5.457  12.780  0.4228 -0.5491 -0.2391
65914SOL    HW2 8057   3.341   5.441  12.861  0.1590  1.0797  0.5279
65915SOL     OW 8058  12.893  11.867   4.530 -0.0304  0.7869  0.1308
65915SOL    HW1 8059  12.911  11.842   4.439  1.0264 -0.0684  0.5622
65915SOL    HW2 8060  12.817  11.813   4.554  0.0020  0.6411 -0.0832
65916SOL     OW 8061   9.488  12.555   4.832  0.2460 -0.7726  0.3632
65916SOL    HW1 8062   9.410  12.512   4.797 -0.3729 -0.9636  1.9094
65916SOL    HW2 8063   9.487  12.642   4.790 -0.6395 -0.8691  0.1521
65917SOL     OW 8064   1.717   6.158   7.884 -1.0231 -0.2144 -0.1552
65917SOL    HW1 8065   1.809   6.136   7.871 -1.1283 -0.3030 -0.7603
65917SOL    HW2 8066   1.682   6.084   7.934 -0.6118  0.1481  0.6993
65918SOL     OW 8067   0.840   2.463  11.533  0.7476 -0.5796  0.0372
65918SOL    HW1 8068   0.914   2.404  11.521  1.6419  0.4549  0.3994
65918SOL    HW2 8069   0.805   2.477  11.445  0.2131 -2.0101 -0.0076
65919SOL     OW 8070   1.905   2.579  11.294 -0.3062  0.2403 -0.0028
65919SOL    HW1 8071   1.841   2.590  11.224 -0.1820 -2.7594 -0.7217
65919SOL    HW2 8072   1.988   2.608  11.255 -0.7053  1.3927 -0.0405
65920SOL     OW 8073   7.237   2.128   7.832 -0.4146  0.3323 -0.1589
65920SOL    HW1 8074   7.154   2.081   7.829  0.3834 -1.1271 -2.8247
65920SOL    HW2 8075   7.301   2.061   7.858  0.3329  0.6643 -1.1016
65921SOL     OW 8076  11.726  12.629   0.658 -0.3053 -0.0377  0.3030
65921SOL    HW1 8077  11.786  12.565   0.620 -0.7112  0.6923 -1.6814
65921SOL    HW2 8078  11.777  12.671   0.727  0.7359 -0.9108  0.0925
65922SOL     OW 8079   8.140   5.472   1.084  0.5957 -0.2660  0.2767
65922SOL    HW1 8080   8.234   5.486   1.075  0.7156 -1.6345 -0.9258
65922SOL    HW2 8081   8.131   5.379   1.109 -0.4307 -0.1475  0.4246
65923SOL     OW 8082   1.976   6.820   7.875 -0.0875 -0.1226  0.3274
65923SOL    HW1 8083   2.018   6.802   7.791 -2.2383  0.2485 -0.9117
65923SOL    HW2 8084   1.999   6.745   7.929  2.6812  0.3882  0.0267
65924SOL     OW 8085   3.398   5.641   2.406 -0.1929  0.2803  0.0285
65924SOL    HW1 8086   3.487   5.631   2.438 -0.1033 -1.3906 -0.6276
65924SOL    HW2 8087   3.398   5.597   2.321 -2.1308 -1.6119  0.9236
65925SOL     OW 8088   9.297   7.461   5.673  0.2284 -0.2504 -0.0016
65925SOL    HW1 8089   9.368   7.397   5.682  0.5018  0.1678  0.8600
65925SOL    HW2 8090   9.285   7.497   5.761 -0.6864  0.0794 -0.2449
65926SOL     OW 8091  12.795  11.553   3.893  0.0769  0.9299 -0.0246
65926SOL    HW1 8092  12.702  11.534   3.903  0.1886  0.9765  1.3278
65926SOL    HW2 8093  12.826  11.571   3.982  1.1487  2.0084 -0.5799
65927SOL     OW 8094   4.813   1.800   1.940 -0.1209  0.6626 -0.3280
65927SOL    HW1 8095   4.748   1.867   1.922  0.5921  1.1509 -1.1370
65927SOL    HW2 8096   4.867   1.796   1.861 -1.0776 -1.9565 -0.9628
65928SOL     OW 8097   2.792   0.992  12.951 -0.7434 -0.4935  0.5373
65928SOL    HW1 8098   2.789   0.896  12.943  0.3336 -0.6063  1.3534
65928SOL    HW2 8099   2.818   1.023  12.865 -1.0700 -0.9302  0.2770
65929SOL     OW 8100   5.314   1.838  12.957 -0.3068 -0.0147 -0.2467
65929SOL    HW1 8101   5.295   1.904  12.890 -0.6559 -0.4779 -0.6102
65929SOL    HW2 8102   5.410   1.831  12.957 -0.1055  2.0176  1.2890
65930SOL     OW 8103   6.160   8.245   4.074 -0.2011 -0.1201 -0.1756
65930SOL    HW1 8104   6.195   8.334   4.086 -1.0874  0.4277 -1.4019
65930SOL    HW2 8105   6.072   8.249   4.110 -0.0935 -0.6204  0.1379
65931SOL     OW 8106   2.661  12.143   4.769 -0.3090  0.6186  0.2758
65931SOL    HW1 8107   2.652  12.076   4.837  0.0624 -1.0011 -1.1763
65931SOL    HW2 8108   2.577  12.140   4.722  1.1708 -2.2218 -2.6142
65932SOL     OW 8109  10.720   6.089   4.441 -1.0600  0.0122 -0.4081
65932SOL    HW1 8110  10.690   6.142   4.368  1.5537  1.6216 -0.4305
65932SOL    HW2 8111  10.814   6.082   4.429 -0.4999  0.4411  2.8550
65933SOL     OW 8112   6.004   9.739   7.094  0.3004  0.1962 -0.5341
65933SOL    HW1 8113   6.089   9.735   7.050  0.8586 -0.5162  0.5486
65933SOL    HW2 8114   6.025   9.774   7.181 -0.7572  1.5042 -0.7639
65934SOL     OW 8115   8.148   3.440   1.587  0.2133 -0.7440  0.2540
65934SOL    HW1 8116   8.219   3.389   1.548 -1.2428 -1.3460 -1.7738
65934SOL    HW2 8117   8.139   3.516   1.530 -0.1051 -0.1398  1.0947
65935SOL     OW 8118  10.447  11.980   9.783 -0.2565 -0.0207  0.5659
65935SOL    HW1 8119  10.421  12.066   9.815 -0.8957 -0.4909  1.3402
65935SOL    HW2 8120  10.536  11.993   9.748 -1.0137  1.3190 -0.9741
65936SOL     OW 8121   3.871  10.413   7.904 -0.0172 -0.2978  0.4735
65936SOL    HW1 8122   3.896  10.496   7.863  0.3616 -0.6210  0.0522
65936SOL    HW2 8123   3.811  10.439   7.974  1.4041  0.4767  1.4503
65937SOL     OW 8124   4.217   2.222   5.806 -0.4819  0.8785 -0.0773
65937SOL    HW1 8125   4.281   2.287   5.833 -0.4894  0.9033 -0.1201
65937SOL    HW2 8126   4.182   2.187   5.888  1.0785 -0.6288  0.0043
65938SOL     OW 8127   4.124   7.741  12.518  0.2573  0.0168  0.0022
65938SOL    HW1 8128   4.060   7.812  12.512  0.3140  0.1018  0.4303
65938SOL    HW2 8129   4.072   7.664  12.541  0.5196  0.4265  2.1258
65939SOL     OW 8130   3.117  12.570   3.258 -0.0617 -0.7323  0.5360
65939SOL    HW1 8131   3.128  12.476   3.243 -1.5934 -0.6628 -1.3404
65939SOL    HW2 8132   3.182  12.611   3.201 -1.3011 -0.6233 -0.8455
65940SOL     OW 8133  11.359  11.167   1.471 -0.1837 -0.1700  0.8368
65940SOL    HW1 8134  11.266  11.185   1.481  0.0824  0.7315  1.8745
65940SOL    HW2 8135  11.390  11.149   1.560  0.7123 -0.0439  0.5626
65941SOL     OW 8136   4.233   9.795   4.522 -0.0986 -0.4427 -0.2173
65941SOL    HW1 8137   4.325   9.794   4.547  0.2039 -3.3308 -1.0998
65941SOL    HW2 8138   4.226   9.864   4.456  1.0917  0.7234  0.8215
65942SOL     OW 8139   9.694   5.005   7.263 -0.2897  0.4751  0.3870
65942SOL    HW1 8140   9.755   4.931   7.271 -0.1175  0.3982 -1.2593
65942SOL    HW2 8141   9.713   5.042   7.177 -3.3821 -0.3308 -0.7831
65943SOL     OW 8142   7.197   9.256   1.498  0.6098  0.2502  0.3317
65943SOL    HW1 8143   7.268   9.320   1.509  2.2004 -1.1041 -1.3914
65943SOL    HW2 8144   7.233   9.175   1.535 -0.2732 -0.3328 -0.0772
65944SOL     OW 8145   4.812   1.208   8.176  0.3030  0.5131  0.4502
65944SOL    HW1 8146   4.789   1.300   8.191 -0.5646  0.8034 -2.1575
65944SOL    HW2 8147   4.822   1.172   8.264  0.6405  3.0679  1.5680
65945SOL     OW 8148   5.076  12.461   2.230  0.0426 -0.5009  0.3181
65945SOL    HW1 8149   5.158  12.489   2.269 -1.0742 -0.7400  3.0326
65945SOL    HW2 8150   5.044  12.539   2.184 -0.1604  0.9935  2.7838
65946SOL     OW 8151   9.884  12.114   3.262  0.0380  0.1670  0.2090
65946SOL    HW1 8152   9.904  12.204   3.283 -0.6632  0.4289 -0.1940
65946SOL    HW2 8153   9.947  12.090   3.194  0.8223  0.0451  0.9656
65947SOL     OW 8154   0.164   7.168   8.901 -0.2929  0.4778 -0.3624
65947SOL    HW1 8155   0.091   7.177   8.962 -0.2565  3.0530 -0.5660
65947SOL    HW2 8156   0.128   7.196   8.816  0.6727  0.9067 -0.6443
65948SOL     OW 8157  12.819   5.157  10.415  0.2244  0.1764 -0.0525
65948SOL    HW1 8158  12.744   5.121  10.368 -1.0884 -0.4551  2.3401
65948SOL    HW2 8159  12.895   5.119  10.371 -0.8414  0.2922 -2.1170
65949SOL     OW 8160  10.346  10.211   1.038 -0.2822 -0.2431  0.0009
65949SOL    HW1 8161  10.428  10.191   1.082 -0.7282  0.1225  1.0352
65949SOL    HW2 8162  10.334  10.140   0.974  0.6108 -0.5288  0.1458
65950SOL     OW 8163   0.592   5.823  10.129  0.5353 -0.1725 -0.0402
65950SOL    HW1 8164   0.594   5.748  10.189  2.2255 -0.0693  0.0845
65950SOL    HW2 8165   0.684   5.848  10.120  0.1835  0.6091 -1.6937
65951SOL     OW 8166  12.263   4.734   4.796 -0.6066  0.2602  0.3762
65951SOL    HW1 8167  12.346   4.689   4.782 -1.3373 -0.3913 -2.3848
65951SOL    HW2 8168  12.217   4.679   4.859  1.1850  0.9257  2.4162
65952SOL     OW 8169   7.568   6.436   2.404  0.1393 -0.2906  0.2843
65952SOL    HW1 8170   7.651   6.445   2.451  0.4385 -2.6925  0.3376
65952SOL    HW2 8171   7.509   6.397   2.468 -1.2169  1.7803  0.3770
65953SOL     OW 8172  12.697   1.405   5.114  0.8013 -0.1751 -0.2551
65953SOL    HW1 8173  12.674   1.314   5.099  0.8751 -0.1802 -0.3387
65953SOL    HW2 8174  12.781   1.402   5.159  0.6448 -0.1558  0.0391
65954SOL     OW 8175  10.758   1.587   0.398  0.1248 -0.3699  0.2902
65954SOL    HW1 8176  10.760   1.519   0.331  0.5511 -0.7309  0.6543
65954SOL    HW2 8177  10.691   1.649   0.369 -0.4837 -1.1044  0.1101
65955SOL     OW 8178   9.269   8.634   7.552 -0.5509 -0.2335 -0.1328
65955SOL    HW1 8179   9.314   8.674   7.626 -0.9020  0.0839 -0.0869
65955SOL    HW2 8180   9.298   8.542   7.552  0.1014 -0.0295 -0.1188
65956SOL     OW 8181   9.023   9.754  12.576  0.2031  0.8645 -0.5629
65956SOL    HW1 8182   8.964   9.827  12.596 -0.1721  0.3051  0.4811
65956SOL    HW2 8183   9.110   9.791  12.588  0.0214  1.1818 -0.1747
65957SOL     OW 8184   8.860   0.667   7.988 -0.5049  0.1254  0.0540
65957SOL    HW1 8185   8.910   0.598   7.944 -0.4173  1.5613 -2.2871
65957SOL    HW2 8186   8.923   0.705   8.050  0.1481 -0.4635 -0.2244
65958SOL     OW 8187   3.123   0.860   4.285 -0.2236 -0.5470  0.4154
65958SOL    HW1 8188   3.101   0.853   4.378 -1.0581 -0.1433  0.2608
65958SOL    HW2 8189   3.099   0.950   4.261  1.8546  0.0140  0.2684
65959SOL     OW 8190   6.181  12.629   3.769  0.1658 -0.0622 -0.6299
65959SOL    HW1 8191   6.210  12.539   3.783 -0.1619 -0.2242 -0.9810
65959SOL    HW2 8192   6.090  12.621   3.741  0.4065  0.3199 -1.5648
65960SOL     OW 8193   1.443   0.150   9.768  0.0063  0.6608 -0.1707
65960SOL    HW1 8194   1.425   0.218   9.833 -0.6549  0.7573 -0.4489
65960SOL    HW2 8195   1.539   0.148   9.762  0.1001  0.3741  1.0885
65961SOL     OW 8196   2.697   0.812   7.601  0.4093  0.0577 -0.1410
65961SOL    HW1 8197   2.693   0.866   7.680  0.8620 -0.3985  0.1971
65961SOL    HW2 8198   2.752   0.861   7.541  0.3762  0.2263 -0.0345
65962SOL     OW 8199   5.292   4.375   6.929 -0.1352  0.2967  0.0042
65962SOL    HW1 8200   5.319   4.335   7.012  1.7799  1.2151 -0.1162
65962SOL    HW2 8201   5.197   4.384   6.937 -0.2543 -1.3880  1.2875
65963SOL     OW 8202   0.294   1.327   2.029 -0.3608 -0.5061 -0.1614
65963SOL    HW1 8203   0.238   1.341   2.105 -0.2198 -1.7264  0.1852
65963SOL    HW2 8204   0.379   1.362   2.054 -0.9383  1.4219 -0.7155
65964SOL     OW 8205   0.896   4.015   2.848 -0.2203 -0.4842  0.0479
65964SOL    HW1 8206   0.877   4.086   2.909 -0.0181  0.2346 -0.7032
65964SOL    HW2 8207   0.811   3.995   2.809 -0.8315 -2.5800  2.2180
65965SOL     OW 8208   9.034   5.390   7.376 -0.0297  0.1165 -0.1233
65965SOL    HW1 8209   9.091   5.316   7.354 -0.6821 -0.3828 -0.1578
65965SOL    HW2 8210   8.967   5.352   7.434  0.1450  0.8652  0.5912
65966SOL     OW 8211  12.432  10.358   2.547 -0.4777 -0.4838  0.5938
65966SOL    HW1 8212  12.354  10.316   2.584  0.3114 -1.2293  1.4577
65966SOL    HW2 8213  12.450  10.308   2.468 -0.0102 -1.2842  1.1945
65967SOL     OW 8214   0.872   7.655   9.711  0.3484 -0.5497  0.4801
65967SOL    HW1 8215   0.956   7.697   9.730  1.7774 -2.4001 -1.3283
65967SOL    HW2 8216   0.834   7.709   9.642  1.6592 -1.4749 -1.0465
65968SOL     OW 8217  10.373   5.455   3.686  0.1824 -0.2064  0.2780
65968SOL    HW1 8218  10.459   5.469   3.726 -0.2250  1.6233  0.5970
65968SOL    HW2 8219  10.314   5.443   3.761  0.0161 -0.6225  0.0848
65969SOL     OW 8220  12.971   0.465  10.771  0.1942  0.5677 -0.2135
65969SOL    HW1 8221  12.996   0.544  10.724 -1.2000  0.8400 -0.5452
65969SOL    HW2 8222  12.895   0.491  10.824 -0.9215 -0.7525 -1.0866
65970SOL     OW 8223   1.143   9.316   7.481  0.2555 -0.2102  0.1450
65970SOL    HW1 8224   1.119   9.402   7.448  1.4172 -0.3783 -1.2340
65970SOL    HW2 8225   1.060   9.274   7.503 -0.4180  0.7089 -0.5869
65971SOL     OW 8226   7.097   3.833   7.298 -0.2827  0.0089  0.0922
65971SOL    HW1 8227   7.085   3.894   7.225  2.8584  0.3084 -0.3197
65971SOL    HW2 8228   7.160   3.877   7.356 -0.8764 -1.2513  1.7917
65972SOL     OW 8229   4.522   5.035   5.626  0.5917  0.9679 -0.5203
65972SOL    HW1 8230   4.462   5.092   5.673  2.4348  1.9562  0.7570
65972SOL    HW2 8231   4.489   5.034   5.536 -1.8083  0.7273  0.3004
65973SOL     OW 8232   3.913   2.509  11.453 -0.0404 -0.0476 -0.3364
65973SOL    HW1 8233   3.967   2.505  11.375 -0.8515  1.3536 -1.0191
65973SOL    HW2 8234   3.864   2.427  11.453 -0.0293 -0.0651 -1.3088
65974SOL     OW 8235   1.919   3.039   2.181 -0.0098  0.0288  0.2252
65974SOL    HW1 8236   1.866   3.008   2.107  1.5158 -0.9336 -0.5271
65974SOL    HW2 8237   1.939   3.130   2.160  0.9180 -0.4054 -0.8953
65975SOL     OW 8238   1.211   7.004   6.524  0.2117  0.3290 -0.4203
65975SOL    HW1 8239   1.205   6.914   6.556 -3.4116  0.9742  1.2648
65975SOL    HW2 8240   1.178   7.000   6.434  1.8078 -0.2062 -1.0194
65976SOL     OW 8241   3.497  11.191   9.279  0.0620 -0.1571  0.2399
65976SOL    HW1 8242   3.540  11.253   9.220 -0.2216  1.3938  1.5650
65976SOL    HW2 8243   3.522  11.222   9.367 -2.0845 -0.4454  0.9996
65977SOL     OW 8244   6.853   7.237   9.731 -0.0183 -0.5254 -0.2604
65977SOL    HW1 8245   6.820   7.148   9.720  1.2835 -0.9803 -0.6111
65977SOL    HW2 8246   6.774   7.290   9.744 -0.8228 -1.6939 -0.2047
65978SOL     OW 8247  10.011   9.374  10.305 -0.0003  0.4669  0.4816
65978SOL    HW1 8248   9.985   9.463  10.327 -0.1167 -0.0155  2.4759
65978SOL    HW2 8249  10.088   9.357  10.360  0.9141 -0.1712 -0.9497
65979SOL     OW 8250  12.386   5.041  12.531  0.0634  0.5893 -0.0576
65979SOL    HW1 8251  12.359   5.116  12.584 -1.8778  0.1942 -0.4023
65979SOL    HW2 8252  12.320   5.035  12.462 -0.0323 -1.6092  0.1510
65980SOL     OW 8253  10.064  10.506   2.768 -0.4939 -0.0430  0.1956
65980SOL    HW1 8254  10.067  10.448   2.692  1.3887 -1.4067  1.2173
65980SOL    HW2 8255  10.135  10.475   2.824  0.6359  3.2877  0.8326
65981SOL     OW 8256   5.335   3.187   3.525 -0.5182  0.4113 -0.5424
65981SOL    HW1 8257   5.326   3.280   3.504  0.2062  1.4708  3.1148
65981SOL    HW2 8258   5.429   3.175   3.539 -0.8179 -0.3518  0.9325
65982SOL     OW 8259   6.088   1.845   1.562  0.7183 -0.6690 -0.0237
65982SOL    HW1 8260   6.068   1.890   1.644  0.5291  0.5351 -0.6926
65982SOL    HW2 8261   6.057   1.756   1.574 -0.5544 -0.1455  0.7220
65983SOL     OW 8262   2.140   9.063   4.615 -0.2452  0.1278  0.0882
65983SOL    HW1 8263   2.087   8.985   4.597  0.1379  0.3496 -2.3371
65983SOL    HW2 8264   2.224   9.045   4.571  0.9633  0.6890  2.0231
65984SOL     OW 8265  11.965   9.779   7.668  0.6522 -0.2583  0.1163
65984SOL    HW1 8266  11.954   9.761   7.761 -2.1469 -0.8228 -0.2603
65984SOL    HW2 8267  11.903   9.721   7.624  1.5695  0.3189 -2.0965
65985SOL     OW 8268   0.858  10.082   3.336  0.0154  0.1338 -0.4248
65985SOL    HW1 8269   0.816  10.105   3.419 -0.2858 -1.6012 -0.0569
65985SOL    HW2 8270   0.951  10.085   3.355 -0.0689 -1.4633  0.3558
65986SOL     OW 8271   5.709   2.691   3.786  0.2682 -0.1981  0.1804
65986SOL    HW1 8272   5.661   2.611   3.808 -0.5547 -0.2770 -1.6944
65986SOL    HW2 8273   5.801   2.666   3.789  0.0863 -0.8154  0.9949
65987SOL     OW 8274   6.949   5.517  11.725 -0.2180 -0.7916  0.1043
65987SOL    HW1 8275   6.953   5.593  11.668  2.4738 -2.1651 -1.7403
65987SOL    HW2 8276   6.865   5.476  11.703 -1.1371  0.9123  0.2458
65988SOL     OW 8277   0.607   4.366  11.875  0.5554  0.3232 -0.1823
65988SOL    HW1 8278   0.525   4.396  11.835 -0.4568  0.6546  1.9857
65988SOL    HW2 8279   0.656   4.446  11.893  1.9340  0.0666 -2.5103
65989SOL     OW 8280   6.634   9.958   2.233 -0.2234 -0.2810 -0.4330
65989SOL    HW1 8281   6.630  10.004   2.149 -2.8549  0.1235 -0.1602
65989SOL    HW2 8282   6.629   9.865   2.210  1.5575 -0.3283 -0.7941
65990SOL     OW 8283   8.569   4.270   6.720 -0.6504 -0.3190 -0.3383
65990SOL    HW1 8284   8.625   4.212   6.667 -0.4212  0.1123 -0.5702
65990SOL    HW2 8285   8.491   4.218   6.737 -0.4625 -0.6876 -0.5799
65991SOL     OW 8286   8.060   0.464  11.568 -0.3659 -0.1516  0.2515
65991SOL    HW1 8287   8.014   0.391  11.527 -2.0279  1.6122 -1.2419
65991SOL    HW2 8288   8.004   0.540  11.551  0.4089  1.2365  3.2147
65992SOL     OW 8289   6.159   8.362   4.447  0.5643 -0.3557  0.2113
65992SOL    HW1 8290   6.081   8.364   4.391 -0.7855  0.7305  2.0359
65992SOL    HW2 8291   6.215   8.431   4.411 -1.1783  1.7737  1.3067
65993SOL     OW 8292   4.615   2.073   5.739  0.3932  0.0892 -0.1909
65993SOL    HW1 8293   4.594   2.041   5.652  1.4890 -0.7062 -0.1899
65993SOL    HW2 8294   4.618   2.168   5.730  0.4867  0.0135 -1.0236
65994SOL     OW 8295   4.991   9.074   7.458  0.1344  0.2286  0.0235
65994SOL    HW1 8296   4.956   8.995   7.417 -0.4457  0.6485 -0.2990
65994SOL    HW2 8297   5.039   9.118   7.388 -0.3316  0.6347 -0.0381
65995SOL     OW 8298  10.932  10.264   7.149  0.0872 -0.2374 -0.6206
65995SOL    HW1 8299  10.872  10.338   7.156  0.3148  0.0341 -1.4217
65995SOL    HW2 8300  10.989  10.286   7.075  2.6496  0.5729  1.4630
65996SOL     OW 8301  11.891   2.003  11.439 -0.2617  0.3665 -0.5613
65996SOL    HW1 8302  11.962   2.038  11.386  2.1070 -0.4823  1.8158
65996SOL    HW2 8303  11.828   2.075  11.445  1.3107  1.8791 -1.2302
65997SOL     OW 8304   9.834   2.413   5.759 -0.0279  0.5340 -0.0944
65997SOL    HW1 8305   9.898   2.347   5.730 -0.3742  0.3439 -0.4474
65997SOL    HW2 8306   9.804   2.381   5.844  0.0183  0.3856 -0.1324
65998SOL     OW 8307   3.089   3.940  12.232 -0.5592  0.3812  0.7041
65998SOL    HW1 8308   3.032   3.886  12.177 -0.4377  1.6091 -0.7042
65998SOL    HW2 8309   3.041   4.022  12.243 -0.6707  0.1122  2.6577
65999SOL     OW 8310   7.348   7.331   5.330  0.2159  0.1206 -0.0820
65999SOL    HW1 8311   7.375   7.300   5.416  1.8658 -0.4317 -0.7619
65999SOL    HW2 8312   7.337   7.251   5.278 -0.3802  0.4639 -0.4960
66000SOL     OW 8313   6.870  10.058   8.135  0.7994  0.1771 -0.6729
66000SOL    HW1 8314   6.840   9.980   8.087  3.3189  0.0331 -2.2017
66000SOL    HW2 8315   6.945  10.028   8.186  0.5745  1.2142  0.3183
66001SOL     OW 8316  11.250  11.071   0.171  0.1389 -0.6971  0.4744
66001SOL    HW1 8317  11.234  10.999   0.109  3.1723 -0.1161 -1.1846
66001SOL    HW2 8318  11.169  11.077   0.221 -1.4195 -3.1566 -1.4553
66002SOL     OW 8319   0.546   1.930   8.411 -0.0472 -0.3893 -0.1022
66002SOL    HW1 8320   0.485   1.960   8.478  0.2233  1.4836 -0.6424
66002SOL    HW2 8321   0.595   2.008   8.386  1.3785 -1.4947 -0.9282
66003SOL     OW 8322  11.206   7.959  11.144 -0.5253  0.3461 -0.1213
66003SOL    HW1 8323  11.188   7.873  11.181 -0.3471  0.3853  0.0555
66003SOL    HW2 8324  11.126   8.009  11.159 -0.6311  0.2105 -0.2296
66004SOL     OW 8325   7.096  10.183   8.048  0.8704 -0.4507  0.1669
66004SOL    HW1 8326   7.003  10.191   8.068  0.8600  0.4678 -0.1923
66004SOL    HW2 8327   7.109  10.090   8.031  0.2691 -0.7747  1.3959
66005SOL     OW 8328   8.388   7.800   3.369  0.0316  0.0860  0.3738
66005SOL    HW1 8329   8.305   7.815   3.324 -0.3219 -0.7350  0.7232
66005SOL    HW2 8330   8.437   7.741   3.312 -0.2982 -0.7226  0.9078
66006SOL     OW 8331   5.273  10.843   4.609 -0.3555 -0.1390  0.9310
66006SOL    HW1 8332   5.257  10.857   4.703 -0.1198 -1.3585  1.1650
66006SOL    HW2 8333   5.185  10.837   4.571 -0.4571  0.8655  0.9794
66007SOL     OW 8334   0.882   5.902   1.420 -0.5154 -0.0315 -0.2795
66007SOL    HW1 8335   0.913   5.835   1.360 -1.0311  0.1076 -0.7082
66007SOL    HW2 8336   0.961   5.938   1.459 -0.2714 -1.6778  0.8291
66008SOL     OW 8337   7.630   6.396   6.866  0.3538 -0.7678 -0.1427
66008SOL    HW1 8338   7.588   6.364   6.946 -2.6861  0.0533 -1.2807
66008SOL    HW2 8339   7.710   6.440   6.897 -2.1845  2.2678  2.9307
66009SOL     OW 8340   6.642   0.844   7.793 -0.2579  0.2020 -0.8046
66009SOL    HW1 8341   6.711   0.779   7.781  1.0105  1.7131 -2.1255
66009SOL    HW2 8342   6.644   0.864   7.886  2.1346  1.2542 -1.0153
66010SOL     OW 8343  10.242  12.779   8.124 -0.1031  0.0438 -0.3728
66010SOL    HW1 8344  10.257  12.845   8.056  0.5139  0.3179  0.0216
66010SOL    HW2 8345  10.209  12.829   8.199 -1.2843 -0.3220 -0.6214
66011SOL     OW 8346   4.761  11.385   0.519  0.3377 -0.1714 -0.3200
66011SOL    HW1 8347   4.820  11.320   0.480 -0.0251 -0.3382 -0.5882
66011SOL    HW2 8348   4.716  11.426   0.445 -0.9401 -1.0468 -0.0590
66012SOL     OW 8349  11.228  12.109   2.292  0.4231  0.6637  0.6010
66012SOL    HW1 8350  11.281  12.173   2.339  0.8835  0.3327  0.5431
66012SOL    HW2 8351  11.140  12.147   2.290  0.8216  1.5754  0.0308
66013SOL     OW 8352   0.233   1.266  10.225  0.0464  0.1813 -0.0015
66013SOL    HW1 8353   0.161   1.287  10.166 -0.1059  0.7337  0.3705
66013SOL    HW2 8354   0.270   1.185  10.190 -0.0855  0.4586 -0.8081
66014SOL     OW 8355  11.648   2.089   3.361 -0.1182  0.3146 -0.8399
66014SOL    HW1 8356  11.693   2.054   3.284 -1.5514  0.8216 -1.9448
66014SOL    HW2 8357  11.560   2.053   3.357 -0.3227  0.6221  0.3967
66015SOL     OW 8358  10.942   1.292   5.867  0.1888  0.2428 -0.5199
66015SOL    HW1 8359  11.023   1.273   5.818  0.3211 -1.4996  0.2875
66015SOL    HW2 8360  10.973   1.328   5.950  0.1367 -0.1687 -0.3187
66016SOL     OW 8361   8.856  10.365   6.675 -0.1294 -0.7920  0.6022
66016SOL    HW1 8362   8.851  10.432   6.607 -0.2374  0.5000  1.8207
66016SOL    HW2 8363   8.770  10.323   6.674  0.0130 -1.0691 -0.3271
66017SOL     OW 8364   2.537   3.694   6.161  0.0151  0.6421  0.2717
66017SOL    HW1 8365   2.611   3.744   6.196 -1.4975  2.1722  1.4609
66017SOL    HW2 8366   2.577   3.624   6.109  2.3198  0.3128  2.3315
66018SOL     OW 8367   3.795   9.667   4.097 -0.2996  0.4706 -0.1345
66018SOL    HW1 8368   3.844   9.598   4.052 -0.3858  1.7865 -2.4493
66018SOL    HW2 8369   3.853   9.743   4.095 -0.9885  1.0291  0.5017
66019SOL     OW 8370  11.716   9.612   1.184  0.5631  0.1313 -0.2623
66019SOL    HW1 8371  11.754   9.548   1.123 -1.3661  0.0334 -1.4517
66019SOL    HW2 8372  11.674   9.559   1.251  1.1467  0.2128  0.1737
66020SOL     OW 8373   0.109   0.194  12.720  0.9699  0.3435 -0.1840
66020SOL    HW1 8374   0.173   0.143  12.770  0.3907 -1.0051 -0.7754
66020SOL    HW2 8375   0.070   0.132  12.659  2.1060  2.0331 -2.8365
66021SOL     OW 8376   2.588   6.482   5.146  0.0356  0.4562  0.1831
66021SOL    HW1 8377   2.552   6.400   5.180  0.1762 -0.2080 -1.2152
66021SOL    HW2 8378   2.511   6.539   5.136 -0.0049  0.7184  1.6310
66022SOL     OW 8379   0.454   6.910   4.302  0.0324 -0.3239  0.0099
66022SOL    HW1 8380   0.438   7.002   4.324  2.7722 -0.2922  2.5775
66022SOL    HW2 8381   0.512   6.914   4.225  0.2892  0.1319  0.2219
66023SOL     OW 8382   5.340   8.398   1.438 -0.0580  0.5230 -0.4282
66023SOL    HW1 8383   5.329   8.312   1.477 -0.6129  0.8299  0.0990
66023SOL    HW2 8384   5.303   8.390   1.350  0.3438  0.0939 -0.5643
66024SOL     OW 8385   3.471   7.954   9.571  0.1837 -0.3035 -0.3543
66024SOL    HW1 8386   3.404   8.022   9.573  1.7500  1.2899  1.2991
66024SOL    HW2 8387   3.449   7.895   9.644 -0.0805 -0.4635 -0.5632
66025SOL     OW 8388   0.819   4.306   6.897  0.0555  0.0421  0.3495
66025SOL    HW1 8389   0.749   4.368   6.875  0.4174  0.3400  0.0197
66025SOL    HW2 8390   0.781   4.249   6.964 -0.8506 -0.4378 -0.5384
66026SOL     OW 8391  12.242   1.188   8.844  0.3684  0.2051 -0.1227
66026SOL    HW1 8392  12.234   1.165   8.937  1.0906 -2.7377 -0.7051
66026SOL    HW2 8393  12.271   1.279   8.845  1.0833  0.0384  2.5563
66027SOL     OW 8394  10.089   3.253   4.576 -0.4046  0.0166 -0.4728
66027SOL    HW1 8395  10.094   3.348   4.586 -1.7203  0.0996 -0.3372
66027SOL    HW2 8396  10.047   3.240   4.491 -2.1954 -0.3648  0.4115
66028SOL     OW 8397  12.393   5.084   5.794  0.1562 -0.0072  0.0227
66028SOL    HW1 8398  12.351   5.011   5.839  1.0628 -0.3033  0.4014
66028SOL    HW2 8399  12.434   5.045   5.717 -0.3890  0.3057 -0.4313
66029SOL     OW 8400   7.565   7.068   7.019 -0.4818  0.2288 -0.3253
66029SOL    HW1 8401   7.622   6.992   7.033 -1.4593 -0.1537  1.8864
66029SOL    HW2 8402   7.588   7.129   7.088 -2.4114  0.2583  0.3434
66030SOL     OW 8403   2.175  12.978  10.537  0.3001 -0.2975 -0.1081
66030SOL    HW1 8404   2.179  13.060  10.586 -3.1103 -0.6889  1.1295
66030SOL    HW2 8405   2.195  12.910  10.602 -2.1570 -0.6747  0.3803
66031SOL     OW 8406   1.585   8.386   2.659 -0.2116 -0.0694  0.0866
66031SOL    HW1 8407   1.549   8.318   2.602 -1.8787 -0.1721  1.1943
66031SOL    HW2 8408   1.568   8.468   2.612 -0.8446 -0.2172  0.0385
66032SOL     OW 8409  12.710   6.856   4.653  0.1636  0.2766 -0.2376
66032SOL    HW1 8410  12.658   6.830   4.578  0.6465 -1.3148 -0.0449
66032SOL    HW2 8411  12.790   6.893   4.616  0.6480 -1.0240 -0.5354
66033SOL     OW 8412  10.074   5.586   2.973 -0.2736  0.3693  0.1074
66033SOL    HW1 8413   9.986   5.576   2.938  0.0902  0.7503 -0.9581
66033SOL    HW2 8414  10.121   5.509   2.941 -0.3276 -0.0758  1.0611
66034SOL     OW 8415   5.191   6.726   0.488  0.8364  0.3930  0.3652
66034SOL    HW1 8416   5.115   6.769   0.528  1.4420 -1.1557  3.4868
66034SOL    HW2 8417   5.266   6.777   0.518  1.3171 -0.8598  1.3880
66035SOL     OW 8418   3.803   9.286   2.105 -0.0638  0.2640  0.0984
66035SOL    HW1 8419   3.806   9.192   2.123 -1.0242  0.3912  1.0257
66035SOL    HW2 8420   3.890   9.318   2.126  0.3436 -0.4503 -0.4636
66036SOL     OW 8421  10.244   1.433  11.270  0.0769  0.4451 -0.0726
66036SOL    HW1 8422  10.210   1.396  11.188 -0.4264  1.8390 -0.5087
66036SOL    HW2 8423  10.323   1.481  11.245 -0.4693  1.4737  0.1254
66037SOL     OW 8424   5.663  12.148   9.620 -0.3877  0.2305  0.1866
66037SOL    HW1 8425   5.668  12.120   9.712 -0.7703 -0.2744  0.0584
66037SOL    HW2 8426   5.731  12.214   9.612  1.5487 -1.6821  0.1454
66038SOL     OW 8427   1.248   3.125   3.134 -0.3793 -0.6841  0.0373
66038SOL    HW1 8428   1.204   3.103   3.051 -0.3253 -2.5523  0.4530
66038SOL    HW2 8429   1.284   3.041   3.164  0.8101  0.2312  1.2621
66039SOL     OW 8430  12.540   6.733   1.053 -0.1579 -0.5048 -0.4602
66039SOL    HW1 8431  12.625   6.692   1.037  0.2354  0.4508 -0.8897
66039SOL    HW2 8432  12.499   6.678   1.120  1.0460 -0.6443  0.1901
66040SOL     OW 8433   7.658   8.140  11.744 -0.2156 -0.2882  0.4615
66040SOL    HW1 8434   7.629   8.174  11.829 -0.0327 -2.0057  1.2516
66040SOL    HW2 8435   7.647   8.213  11.684 -1.1836  0.7064  1.7940
66041SOL     OW 8436   6.959   2.579   8.519  0.1306 -0.5817  0.6380
66041SOL    HW1 8437   6.921   2.492   8.529 -0.9814  0.0103  1.6569
66041SOL    HW2 8438   6.901   2.637   8.567  1.2176  0.6455  0.5189
66042SOL     OW 8439  11.329   0.805  11.050 -0.3472  0.3906 -0.6954
66042SOL    HW1 8440  11.318   0.763  10.965  2.1631 -0.8565 -0.4949
66042SOL    HW2 8441  11.367   0.891  11.029 -0.8017  0.5601 -0.8526
66043SOL     OW 8442   5.454   4.005   4.156  0.5156 -0.0623 -0.5211
66043SOL    HW1 8443   5.458   4.101   4.158  0.1072 -0.0495  0.3352
66043SOL    HW2 8444   5.395   3.985   4.083  0.9947  0.3145 -1.0211
66044SOL     OW 8445   4.548   9.951   2.098  0.1193 -0.3768  0.4107
66044SOL    HW1 8446   4.560   9.979   2.007  0.2326  0.7262  0.7561
66044SOL    HW2 8447   4.511   9.863   2.090  1.8301 -1.0432 -0.6828
66045SOL     OW 8448   2.425  10.628   8.024 -0.4868 -0.5745  0.1902
66045SOL    HW1 8449   2.336  10.653   8.050 -0.5040 -1.1912  0.7421
66045SOL    HW2 8450   2.476  10.634   8.105  0.1857  0.6322 -0.2888
66046SOL     OW 8451  10.122   6.048   3.213  0.0031  0.4744  0.2126
66046SOL    HW1 8452  10.117   6.095   3.130 -0.1477  1.4092  0.7410
66046SOL    HW2 8453  10.089   5.960   3.193  0.7680  0.4181 -0.8999
66047SOL     OW 8454   4.651   8.294   3.149  0.7174 -0.4320  0.0693
66047SOL    HW1 8455   4.707   8.339   3.086 -1.5715 -0.2561 -1.9756
66047SOL    HW2 8456   4.600   8.364   3.190  1.3455 -0.6673  1.3186
66048SOL     OW 8457   7.973   3.958   5.026  0.3941  0.0945  0.1159
66048SOL    HW1 8458   7.909   3.976   5.094  0.2040  0.3995 -0.1392
66048SOL    HW2 8459   8.032   3.893   5.064  0.3123  0.2930  0.5833
66049SOL     OW 8460  11.850   4.467  11.977 -0.7358  0.1218 -0.1186
66049SOL    HW1 8461  11.916   4.430  12.036  1.0229  1.2594 -1.2978
66049SOL    HW2 8462  11.798   4.392  11.948 -1.6385 -0.4970  2.7557
66050SOL     OW 8463  12.056   5.988   3.595 -0.3586 -0.1064  0.6399
66050SOL    HW1 8464  12.005   6.039   3.532  1.0686 -0.4416 -0.8714
66050SOL    HW2 8465  11.991   5.954   3.657 -1.9397 -0.3577 -1.0599
66051SOL     OW 8466   9.954   5.728   5.785 -0.0186 -0.0382 -0.1771
66051SOL    HW1 8467   9.964   5.633   5.783 -0.4825 -0.0775 -0.6624
66051SOL    HW2 8468   9.977   5.757   5.697  1.1952  0.4149  0.2722
66052SOL     OW 8469   9.481  12.177   8.108 -0.1670  0.0288 -0.4705
66052SOL    HW1 8470   9.391  12.209   8.105 -0.6604 -1.0120  1.4908
66052SOL    HW2 8471   9.534  12.250   8.074 -1.1026  3.4355  4.3833
66053SOL     OW 8472   2.815   1.767   8.681  0.1480  0.3395  0.5198
66053SOL    HW1 8473   2.841   1.692   8.626  1.2699  0.4202  0.9362
66053SOL    HW2 8474   2.770   1.727   8.756  0.4430  0.1063  0.5719
66054SOL     OW 8475   5.240   3.713   7.431 -0.0523 -0.6227 -0.2649
66054SOL    HW1 8476   5.226   3.799   7.472 -0.8678 -1.3156  0.9976
66054SOL    HW2 8477   5.185   3.654   7.482  1.0954 -2.0324 -0.6090
66055SOL     OW 8478  12.975   1.624   0.147 -0.0465 -0.5593  0.3453
66055SOL    HW1 8479  13.026   1.703   0.165  1.1504 -1.4782  1.1074
66055SOL    HW2 8480  12.897   1.656   0.101  0.1698  1.1131  1.0783
66056SOL     OW 8481   8.487  12.859   5.079  0.3530  0.5750  0.6006
66056SOL    HW1 8482   8.443  12.877   5.162 -0.4635 -1.8669  0.7495
66056SOL    HW2 8483   8.524  12.772   5.089  0.4602  0.3274 -1.5018
66057SOL     OW 8484  11.713  10.466   7.374  0.2348 -0.3694 -0.0196
66057SOL    HW1 8485  11.794  10.516   7.359  0.3027  0.3041  2.2594
66057SOL    HW2 8486  11.646  10.533   7.387 -0.0946 -0.8875  0.9955
66058SOL     OW 8487   7.157   1.361   6.150  0.1612 -0.1195  0.0741
66058SOL    HW1 8488   7.183   1.451   6.169 -1.2359  0.8128 -2.0889
66058SOL    HW2 8489   7.228   1.327   6.095 -0.6573  0.7355 -1.6084
66059SOL     OW 8490   4.504   7.722   6.424  0.3538 -0.1907  0.8071
66059SOL    HW1 8491   4.411   7.741   6.429  0.5366  0.9925  0.1739
66059SOL    HW2 8492   4.535   7.729   6.515 -0.6043 -3.3054  1.4942
66060SOL     OW 8493   0.400   4.564   3.875 -0.4789  0.5297  0.0279
66060SOL    HW1 8494   0.369   4.539   3.961 -1.6223  1.8169  0.0272
66060SOL    HW2 8495   0.419   4.658   3.883 -0.4377  0.6273 -1.0649
66061SOL     OW 8496   4.390   6.424   6.331  0.5153  0.3360  0.6438
66061SOL    HW1 8497   4.477   6.452   6.359  1.0735 -1.4167  0.8389
66061SOL    HW2 8498   4.406   6.369   6.254 -0.6528  1.8246 -0.7135
66062SOL     OW 8499   9.502   7.706   3.497 -0.0827 -0.5895 -0.1260
66062SOL    HW1 8500   9.449   7.686   3.420 -2.2467  0.0156  1.1243
66062SOL    HW2 8501   9.567   7.636   3.500 -1.1221 -1.6638 -1.4441
66063SOL     OW 8502  12.513  12.028  12.880  0.7038 -0.0291 -0.3861
66063SOL    HW1 8503  12.464  11.984  12.811 -1.1717  2.1687 -0.5809
66063SOL    HW2 8504  12.455  12.025  12.956  2.0827 -1.0353  0.6776
66064SOL     OW 8505  11.329   6.970   8.529  0.2491 -0.6144 -0.2724
66064SOL    HW1 8506  11.421   6.999   8.527 -0.6444  2.7201 -2.3235
66064SOL    HW2 8507  11.292   7.016   8.605 -0.8038  2.8210 -2.6105
66065SOL     OW 8508   0.507   4.495   1.561  0.1693  0.0941 -0.3540
66065SOL    HW1 8509   0.439   4.454   1.614 -0.5460  0.2091 -1.1515
66065SOL    HW2 8510   0.509   4.586   1.589  0.0535  0.0683 -0.2619
66066SOL     OW 8511   9.886   2.604   1.320 -0.2223  0.2041 -0.0326
66066SOL    HW1 8512   9.889   2.625   1.226 -1.6038 -1.8763 -0.5986
66066SOL    HW2 8513   9.838   2.677   1.359 -0.7201  0.4934 -1.1545
66067SOL     OW 8514  11.106   7.362   1.408  0.0078  0.3997 -0.5355
66067SOL    HW1 8515  11.024   7.315   1.424  1.0632 -1.2261  0.4435
66067SOL    HW2 8516  11.127   7.403   1.491  1.9256 -2.1763  0.3838
66068SOL     OW 8517   9.779   9.664   8.170  0.1143  0.0941  0.0631
66068SOL    HW1 8518   9.736   9.638   8.251  1.0319  1.2617  0.9662
66068SOL    HW2 8519   9.823   9.585   8.139 -1.8170 -0.8665 -0.3724
66069SOL     OW 8520   0.965  11.377  11.955  0.0390  0.2462  0.4086
66069SOL    HW1 8521   0.987  11.443  11.890 -3.3089  1.3215  0.2095
66069SOL    HW2 8522   0.989  11.294  11.914  0.3706  1.0586 -1.1204
66070SOL     OW 8523   2.626  12.140  11.970 -0.2073 -1.0556 -0.0666
66070SOL    HW1 8524   2.587  12.165  12.054  0.2768 -1.5106  0.3013
66070SOL    HW2 8525   2.621  12.220  11.917  0.9665 -0.2535  0.9511
66071SOL     OW 8526  11.244  10.923   2.674  0.0375 -0.4906  0.1639
66071SOL    HW1 8527  11.187  10.852   2.704  1.1225 -1.2213  0.5345
66071SOL    HW2 8528  11.201  11.003   2.705 -0.4820 -1.0620  0.9468
66072SOL     OW 8529   6.531   0.088   5.812  0.1752  0.0895 -0.1269
66072SOL    HW1 8530   6.573   0.133   5.884  1.8794 -1.2967 -0.1790
66072SOL    HW2 8531   6.543  -0.005   5.831 -0.4551 -0.3206 -1.5554
66073SOL     OW 8532   2.915  11.236  11.256 -0.3979  0.0073 -0.4340
66073SOL    HW1 8533   2.877  11.148  11.250  0.8395 -0.6551  0.7111
66073SOL    HW2 8534   2.841  11.295  11.248 -1.7755 -1.2212  1.9828
66074SOL     OW 8535   6.683   8.635   0.391  0.5578 -0.2153  0.0100
66074SOL    HW1 8536   6.722   8.569   0.448  1.1127 -0.1577 -0.3033
66074SOL    HW2 8537   6.756   8.672   0.342  0.1281 -0.0441 -0.5161
66075SOL     OW 8538   4.932  10.597   0.085 -0.2963 -0.4385 -0.5549
66075SOL    HW1 8539   4.841  10.569   0.075 -0.7939  1.3967 -1.5237
66075SOL    HW2 8540   4.941  10.670   0.025  0.7669  1.8133  2.1336
66076SOL     OW 8541  10.939   9.369   9.732 -0.6207  0.2127  0.5360
66076SOL    HW1 8542  11.012   9.393   9.788 -0.0828  0.2901 -0.1833
66076SOL    HW2 8543  10.918   9.449   9.684  1.3835 -0.6960 -2.0992
66077SOL     OW 8544   9.745   0.000   8.687 -0.3004  0.1261  0.1030
66077SOL    HW1 8545   9.773   0.022   8.598  1.7668 -0.1812  0.6225
66077SOL    HW2 8546   9.794   0.061   8.743 -0.8291 -0.3310  1.0777
66078SOL     OW 8547   4.548   8.996   0.590 -0.1017  0.0844  0.8060
66078SOL    HW1 8548   4.512   8.938   0.523 -0.8238  2.3020 -0.8248
66078SOL    HW2 8549   4.639   9.010   0.563 -0.2809  0.6598  0.4727
66079SOL     OW 8550  12.404   0.782   3.441 -0.0330  0.0889 -0.1728
66079SOL    HW1 8551  12.376   0.709   3.495 -0.9779  0.1274 -0.5841
66079SOL    HW2 8552  12.343   0.853   3.464 -0.2378  0.2026 -1.0314
66080SOL     OW 8553   6.338   4.174   5.387  0.1520  0.0920 -0.7415
66080SOL    HW1 8554   6.280   4.100   5.368  1.1900 -0.8087 -0.4843
66080SOL    HW2 8555   6.426   4.141   5.369  0.7103  0.9558  0.2803
66081SOL     OW 8556   8.738   3.112   1.664  0.6271 -0.1034 -0.0313
66081SOL    HW1 8557   8.719   3.031   1.711  0.9446  0.8554  1.8177
66081SOL    HW2 8558   8.826   3.135   1.691  0.6142  0.7748 -0.7013
66082SOL     OW 8559  11.561  10.540   8.230  0.0408 -0.3798 -0.6273
66082SOL    HW1 8560  11.621  10.590   8.286  0.4533 -0.4185 -1.0258
66082SOL    HW2 8561  11.543  10.460   8.280 -0.3318 -0.0057 -0.1498
66083SOL     OW 8562  10.517  12.075   9.310  0.1790 -0.4899  0.6776
66083SOL    HW1 8563  10.446  12.051   9.371 -2.3339  2.1597 -0.9107
66083SOL    HW2 8564  10.482  12.054   9.224  1.9180 -0.3195 -0.0945
66084SOL     OW 8565  11.394   7.085   9.473  0.3781  0.4030  0.5178
66084SOL    HW1 8566  11.451   7.020   9.513  0.2584  0.8818  1.4836
66084SOL    HW2 8567  11.446   7.166   9.473 -0.1521  0.7541  1.0788
66085SOL     OW 8568   7.341  10.351   7.041  0.6887  0.4064  0.0255
66085SOL    HW1 8569   7.318  10.444   7.037  2.3337  0.8388  0.0125
66085SOL    HW2 8570   7.433  10.350   7.068  0.7102 -1.2183 -0.0261
66086SOL     OW 8571   8.156   0.552  11.192 -0.0315 -0.3200  0.3473
66086SOL    HW1 8572   8.106   0.474  11.216  2.1953 -1.9901 -0.0008
66086SOL    HW2 8573   8.245   0.519  11.178  0.5846  1.9557 -1.8243
66087SOL     OW 8574   1.464   7.075   1.355 -0.6204 -0.1102 -0.4099
66087SOL    HW1 8575   1.487   7.055   1.446  0.1831 -0.5267 -0.6904
66087SOL    HW2 8576   1.440   6.991   1.317  1.2087 -0.3299 -1.1672
66088SOL     OW 8577   8.258  11.722  11.689  0.2648 -0.1345 -0.1788
66088SOL    HW1 8578   8.281  11.810  11.719 -0.0471 -0.0226 -0.2635
66088SOL    HW2 8579   8.334  11.669  11.711  0.7062  0.2796 -0.6812
66089SOL     OW 8580   5.941   6.506   4.184  0.0590  0.2219 -0.1941
66089SOL    HW1 8581   5.921   6.592   4.147 -1.9346 -0.4731 -0.8554
66089SOL    HW2 8582   5.858   6.475   4.220 -0.1118 -2.7016 -2.6629
66090SOL     OW 8583   8.818   0.508   8.354  0.0930  0.3293 -1.0927
66090SOL    HW1 8584   8.837   0.448   8.427 -0.9099  0.3770 -0.7703
66090SOL    HW2 8585   8.780   0.585   8.396 -1.0919  0.0985 -1.7019
66091SOL     OW 8586   6.797   1.081   2.202 -0.0569  0.4384  0.1689
66091SOL    HW1 8587   6.702   1.067   2.205  0.1783 -1.1143  1.5850
66091SOL    HW2 8588   6.828   1.056   2.288  1.6474  1.1252 -0.2005
66092SOL     OW 8589   1.999  12.904  11.193 -0.0168 -0.7770 -0.4433
66092SOL    HW1 8590   1.961  12.957  11.264  0.9686 -0.6078 -0.0315
66092SOL    HW2 8591   2.036  12.969  11.133 -0.5743 -0.9346 -0.9669
66093SOL     OW 8592   6.054   2.713   4.566  0.5809 -0.6203 -0.1040
66093SOL    HW1 8593   6.082   2.771   4.637  0.9135 -0.2393 -0.5386
66093SOL    HW2 8594   6.053   2.769   4.489 -1.8788 -0.4998 -0.0499
66094SOL     OW 8595   2.114   0.505  11.425 -0.3660 -0.2791 -0.3296
66094SOL    HW1 8596   2.190   0.477  11.475  0.8675 -1.5944 -2.7329
66094SOL    HW2 8597   2.080   0.580  11.472  1.3254 -0.7658  1.8181
66095SOL     OW 8598  12.692  12.639   6.259  0.2799  0.2819 -0.3511
66095SOL    HW1 8599  12.653  12.569   6.312  1.0746 -0.5332 -0.8202
66095SOL    HW2 8600  12.783  12.643   6.287  0.6713 -0.0574 -1.5503
66096SOL     OW 8601   2.222   9.074   9.755 -0.0101 -0.0217  0.3368
66096SOL    HW1 8602   2.296   9.112   9.802 -0.4743 -0.8875  1.8365
66096SOL    HW2 8603   2.154   9.142   9.758 -0.4113 -0.4494  1.9291
66097SOL     OW 8604   5.952   2.873  12.766  0.1189  0.1293  0.1911
66097SOL    HW1 8605   5.948   2.931  12.842  0.4413  0.1529  0.1903
66097SOL    HW2 8606   6.044   2.873  12.740 -0.1242  0.7895 -0.7102
66098SOL     OW 8607   3.006  10.912   9.319  0.1186 -0.3412 -0.0732
66098SOL    HW1 8608   2.931  10.938   9.373 -0.2072  2.0038 -1.4809
66098SOL    HW2 8609   3.081  10.918   9.378 -0.4040  0.7011  0.5152
66099SOL     OW 8610   5.477   9.246  10.916 -0.1807  0.2989  0.5838
66099SOL    HW1 8611   5.415   9.300  10.966  0.8460  0.5284  1.6694
66099SOL    HW2 8612   5.452   9.156  10.937 -2.0811  0.2733 -1.4578
66100SOL     OW 8613   2.705   8.063  11.942  0.3034  0.3955 -0.6003
66100SOL    HW1 8614   2.663   7.994  11.994  1.7693 -1.0603 -1.2506
66100SOL    HW2 8615   2.643   8.082  11.872  0.1841 -0.8932 -0.8796
66101SOL     OW 8616  11.941   6.853   0.026 -0.6387  0.0918  0.2262
66101SOL    HW1 8617  11.925   6.923  -0.037  1.7827 -0.5088 -1.1646
66101SOL    HW2 8618  11.974   6.897   0.104  1.9348  0.5170 -1.0214
66102SOL     OW 8619  10.902   3.799   6.075 -0.9107 -0.2300  0.2303
66102SOL    HW1 8620  10.893   3.891   6.051  0.3724 -0.0879  0.2306
66102SOL    HW2 8621  10.991   3.791   6.108 -1.4578 -1.1808  1.5954
66103SOL     OW 8622  10.455   4.782  12.486 -0.2936  0.3118 -0.0086
66103SOL    HW1 8623  10.457   4.687  12.499  1.7286  0.3951  0.5238
66103SOL    HW2 8624  10.471   4.819  12.573  0.0847  1.1259 -0.4143
66104SOL     OW 8625   6.182  12.018   8.470 -0.2787 -0.5635  0.0813
66104SOL    HW1 8626   6.203  12.083   8.402 -0.1277 -0.1987  0.4716
66104SOL    HW2 8627   6.227  12.050   8.548  0.5590 -1.6296  0.0565
66105SOL     OW 8628   5.404   9.570   6.858 -0.3633  0.1904  0.3709
66105SOL    HW1 8629   5.446   9.624   6.925  0.0159  0.7560 -0.3066
66105SOL    HW2 8630   5.380   9.632   6.789  0.1696 -0.5156 -0.4706
66106SOL     OW 8631   6.126   5.444   3.009 -0.0062 -0.4399  0.7276
66106SOL    HW1 8632   6.044   5.438   3.059  0.9134  1.3045  2.5901
66106SOL    HW2 8633   6.159   5.531   3.028  1.3365 -0.3700 -1.5991
66107SOL     OW 8634  11.626   9.954  12.109  0.6359 -0.6100  0.1457
66107SOL    HW1 8635  11.536   9.923  12.095  0.2368 -0.5051  2.1876
66107SOL    HW2 8636  11.619  10.049  12.111  0.8283 -0.5946  0.0939
66108SOL     OW 8637   6.103   4.809   6.417  0.0369  0.7642 -0.1201
66108SOL    HW1 8638   6.057   4.866   6.356 -0.4104  0.9704  0.4019
66108SOL    HW2 8639   6.049   4.730   6.422 -0.0626  0.8522  0.2074
66109SOL     OW 8640   4.112   9.531   5.536 -0.5601 -0.4278  0.1626
66109SOL    HW1 8641   4.154   9.550   5.452 -1.1129  0.7347  0.1333
66109SOL    HW2 8642   4.179   9.552   5.601 -0.8865  0.8979  0.0922
66110SOL     OW 8643   4.312   7.714   9.552 -0.3583  0.0246  0.3530
66110SOL    HW1 8644   4.267   7.656   9.491  0.8290 -0.1984 -0.3558
66110SOL    HW2 8645   4.350   7.656   9.617  0.4102  0.0340 -0.0752
66111SOL     OW 8646  12.441  12.000   0.559  0.7518  0.7474 -0.3169
66111SOL    HW1 8647  12.420  11.999   0.653  2.3067  1.4273  0.0845
66111SOL    HW2 8648  12.537  11.994   0.557  0.7786  1.3319 -1.8397
66112SOL     OW 8649  10.258   7.643   6.458  0.1562  0.4327  0.1149
66112SOL    HW1 8650  10.319   7.679   6.393 -0.6701  1.4174 -0.1411
66112SOL    HW2 8651  10.212   7.720   6.492  0.0825 -0.1484  1.3649
66113SOL     OW 8652   3.751   6.674   7.528 -0.2505  0.0088  0.1441
66113SOL    HW1 8653   3.655   6.667   7.528 -0.3006  0.5722 -0.9493
66113SOL    HW2 8654   3.776   6.668   7.436  0.7663 -0.0237  0.4103
66114SOL     OW 8655   9.296  11.344   7.943 -0.0786 -0.5067 -0.6251
66114SOL    HW1 8656   9.225  11.322   8.002 -0.2227  0.8584 -0.2406
66114SOL    HW2 8657   9.321  11.434   7.967 -0.3697  0.2430 -2.8285
66115SOL     OW 8658   8.382   7.341   3.260  0.0780 -0.5644  0.2249
66115SOL    HW1 8659   8.431   7.322   3.340 -0.3397 -0.8009  0.4340
66115SOL    HW2 8660   8.422   7.420   3.224 -0.4415  0.1958  1.2722
66116SOL     OW 8661   9.657   9.423  11.646 -0.7609 -0.5469  0.0297
66116SOL    HW1 8662   9.649   9.337  11.685  1.8092 -0.5032  0.8570
66116SOL    HW2 8663   9.628   9.484  11.714 -3.1726 -0.6842 -0.7660
66117SOL     OW 8664  12.063   5.459   3.841  0.7158 -0.1209  0.4311
66117SOL    HW1 8665  11.989   5.453   3.781  0.5399  1.5799  0.4488
66117SOL    HW2 8666  12.098   5.547   3.828  0.8928  0.1705  2.5449
66118SOL     OW 8667   6.163  10.745   8.276 -0.3273  0.0338 -0.0669
66118SOL    HW1 8668   6.108  10.711   8.205 -0.3229 -0.0988 -0.0077
66118SOL    HW2 8669   6.106  10.742   8.353 -0.1294 -0.4357  0.0661
66119SOL     OW 8670  11.895   6.827   7.856  0.1691  0.1174  0.1200
66119SOL    HW1 8671  11.926   6.902   7.805 -0.8266 -0.5459 -1.5623
66119SOL    HW2 8672  11.843   6.776   7.793  1.4699 -2.4197  0.9770
66120SOL     OW 8673  10.280   7.955   6.980  0.3827  0.1493  0.5173
66120SOL    HW1 8674  10.223   7.898   7.032 -0.7304  0.3997 -0.3906
66120SOL    HW2 8675  10.368   7.940   7.016 -0.3896  0.7930  2.9162
66121SOL     OW 8676   3.627   1.186  12.923 -0.0988  0.4463 -0.0775
66121SOL    HW1 8677   3.668   1.254  12.978 -1.3301  1.0535  0.1322
66121SOL    HW2 8678   3.560   1.233  12.873  1.3643  0.0255 -2.5988
66122SOL     OW 8679   7.724  10.140   4.267 -0.3775 -0.1419  0.1152
66122SOL    HW1 8680   7.636  10.106   4.256 -0.9352  1.1113  0.4959
66122SOL    HW2 8681   7.712  10.222   4.315  0.9060  0.5070 -0.6181
66123SOL     OW 8682  12.161   4.459   6.095 -0.1689  0.0987 -0.2179
66123SOL    HW1 8683  12.093   4.468   6.028 -0.3331  1.3083  0.1064
66123SOL    HW2 8684  12.148   4.371   6.130 -0.8271 -0.1109 -0.9593
66124SOL     OW 8685   8.580   9.481   1.392  0.0530 -0.0894  0.2138
66124SOL    HW1 8686   8.584   9.573   1.365  1.0668  0.4612  2.0783
66124SOL    HW2 8687   8.490   9.468   1.422 -0.5597 -0.1984 -1.5666
66125SOL     OW 8688  12.561   4.746   0.416 -0.0368  0.2452 -0.0992
66125SOL    HW1 8689  12.560   4.650   0.413 -0.7214  0.2767 -1.6133
66125SOL    HW2 8690  12.471   4.771   0.434 -0.9649  0.6215 -4.2814
66126SOL     OW 8691   1.540   4.307   7.521 -0.0859  0.6301 -0.6986
66126SOL    HW1 8692   1.454   4.349   7.522 -0.1291  0.6824  2.3472
66126SOL    HW2 8693   1.526   4.224   7.567  1.3447  0.2934 -0.8306
66127SOL     OW 8694  11.928  10.656  12.713 -0.2966 -0.0696  0.1056
66127SOL    HW1 8695  11.956  10.736  12.668 -1.2629  0.4518  0.3955
66127SOL    HW2 8696  11.844  10.634  12.673 -0.1433 -0.8208  0.1825
66128SOL     OW 8697   0.173   1.264   5.131 -0.5356 -0.0366 -0.1866
66128SOL    HW1 8698   0.163   1.194   5.195 -0.3063 -1.2646 -1.4421
66128SOL    HW2 8699   0.228   1.226   5.062  1.6912  2.1808  0.2223
66129SOL     OW 8700   2.737   4.251   8.672 -0.1283  0.1243  0.4507
66129SOL    HW1 8701   2.764   4.302   8.748  1.3026 -1.9068  1.4084
66129SOL    HW2 8702   2.707   4.168   8.709 -0.9550 -0.3084 -1.1287
66130SOL     OW 8703   3.178   6.382   4.414  0.2685  0.0895 -0.2871
66130SOL    HW1 8704   3.205   6.296   4.381  2.1966  0.6574 -0.3275
66130SOL    HW2 8705   3.085   6.372   4.434  0.6241 -2.2357  0.4761
66131SOL     OW 8706  10.219   4.890   6.662 -0.1955 -0.0179  0.4994
66131SOL    HW1 8707  10.231   4.799   6.638  0.4499  0.5417 -1.5175
66131SOL    HW2 8708  10.290   4.936   6.618 -1.0174  1.5614  0.7344
66132SOL     OW 8709   4.119   8.810   1.658 -0.4098  0.4337  0.2037
66132SOL    HW1 8710   4.141   8.902   1.644 -0.0887  0.3488  0.1470
66132SOL    HW2 8711   4.051   8.811   1.726  0.8931  0.6200  1.5604
66133SOL     OW 8712   0.566   1.229  12.197 -0.1070  0.5844  0.2030
66133SOL    HW1 8713   0.547   1.140  12.224  3.0407 -0.2892 -0.0724
66133SOL    HW2 8714   0.522   1.239  12.113 -0.4746 -0.7024  0.2198
66134SOL     OW 8715   3.272   6.231   2.451 -0.2848  0.2025 -0.2280
66134SOL    HW1 8716   3.190   6.217   2.499  0.6264 -0.3097  1.2524
66134SOL    HW2 8717   3.338   6.185   2.503  0.8764  0.1960 -1.6419
66135SOL     OW 8718   2.850   1.610   7.515  0.6334 -0.0004 -0.7783
66135SOL    HW1 8719   2.937   1.570   7.515 -0.1144 -1.7353 -1.1105
66135SOL    HW2 8720   2.842   1.649   7.428  0.3281 -1.6751 -1.5464
66136SOL     OW 8721   0.059   7.374   3.085  0.2266  0.0651 -0.4046
66136SOL    HW1 8722  -0.022   7.425   3.092  0.3511  0.3010 -0.6640
66136SOL    HW2 8723   0.053   7.330   3.000  0.2045 -0.2102 -0.2630
66137SOL     OW 8724   3.084   8.491   6.384 -0.2736 -0.2329  0.0506
66137SOL    HW1 8725   3.156   8.553   6.392 -0.7878  0.2292  1.1991
66137SOL    HW2 8726   3.005   8.545   6.378 -0.8974 -0.7098  2.6721
66138SOL     OW 8727   1.943   4.429   3.528 -0.1628 -0.2364 -0.0713
66138SOL    HW1 8728   2.029   4.469   3.519  0.3474 -1.5384 -1.2799
66138SOL    HW2 8729   1.884   4.490   3.483  0.4042 -0.1891 -0.7721
66139SOL     OW 8730  10.703  10.638  12.729  0.0759 -0.0708 -0.0104
66139SOL    HW1 8731  10.784  10.664  12.685 -0.4006  0.8022 -0.4114
66139SOL    HW2 8732  10.725  10.637  12.822  1.1410 -2.1220 -0.2397
66140SOL     OW 8733   5.801  11.492   0.194 -0.4736 -0.0014  0.3210
66140SOL    HW1 8734   5.884  11.537   0.178 -1.1651  1.7113  1.2578
66140SOL    HW2 8735   5.801  11.472   0.287 -0.8463 -0.5636  0.2074
66141SOL     OW 8736  12.038  11.833  11.515  0.2350 -0.1219  0.0831
66141SOL    HW1 8737  12.042  11.837  11.420  0.4066 -1.5365  0.0157
66141SOL    HW2 8738  11.948  11.807  11.534  0.3280 -0.2924  0.2903
66142SOL     OW 8739   3.683  12.776  10.345  0.0743  0.7186  0.4276
66142SOL    HW1 8740   3.669  12.779  10.440  0.0500 -0.3602  0.4703
66142SOL    HW2 8741   3.765  12.824  10.332  0.9722 -0.5445  1.2030
66143SOL     OW 8742   0.615  12.271  11.807 -0.5281  0.4315  0.2477
66143SOL    HW1 8743   0.573  12.249  11.725 -1.0574 -0.7182  0.8138
66143SOL    HW2 8744   0.552  12.328  11.852 -1.1889 -0.6966  0.7797
66144SOL     OW 8745   4.513  12.924   6.562  0.5023 -1.0683 -0.6030
66144SOL    HW1 8746   4.456  12.963   6.496  1.2487  1.0029 -0.0733
66144SOL    HW2 8747   4.551  12.847   6.518  0.5352 -0.0877 -2.3784
66145SOL     OW 8748   7.844   2.164   3.629 -0.7417 -0.2654  0.1977
66145SOL    HW1 8749   7.770   2.217   3.600 -0.7960 -0.6392 -0.3490
66145SOL    HW2 8750   7.816   2.074   3.618 -0.7022 -0.4275  1.2687
66146SOL     OW 8751   8.878   4.381   7.277  0.3840  0.0336 -0.3076
66146SOL    HW1 8752   8.968   4.349   7.290  0.1536 -0.8623 -0.8074
66146SOL    HW2 8753   8.863   4.372   7.183 -0.3950 -0.2771 -0.1601
66147SOL     OW 8754  11.214  11.562   2.765 -0.0730 -0.4019  0.4987
66147SOL    HW1 8755  11.217  11.468   2.779  0.0927 -0.1514  2.3636
66147SOL    HW2 8756  11.144  11.593   2.823  0.1139  0.6578  0.1746
66148SOL     OW 8757   1.281   4.105   0.567 -0.1344 -0.0087 -0.3666
66148SOL    HW1 8758   1.258   4.052   0.491  0.0810  1.3496 -1.4094
66148SOL    HW2 8759   1.216   4.175   0.569  0.7564  0.8408 -0.2217
66149SOL     OW 8760   4.957   9.157  12.711  0.5547 -0.0797  0.0178
66149SOL    HW1 8761   4.885   9.095  12.725  0.0245  0.3571 -0.7213
66149SOL    HW2 8762   4.931   9.208  12.635  1.2284  0.7138  0.3019
66150SOL     OW 8763  10.323   0.110  11.475 -0.1073 -0.4329 -0.2615
66150SOL    HW1 8764  10.415   0.132  11.489 -0.8356  1.8926  1.3886
66150SOL    HW2 8765  10.309   0.033  11.530  0.8888 -0.9753 -0.7298
66151SOL     OW 8766   8.870   1.949   7.268  0.2914 -0.0971  0.4538
66151SOL    HW1 8767   8.809   1.974   7.198  0.1387 -0.2325  0.5367
66151SOL    HW2 8768   8.884   2.029   7.318 -1.9848 -0.6303  2.1019
66152SOL     OW 8769   4.077   7.109   1.636  0.7406  0.4375  0.0102
66152SOL    HW1 8770   4.048   7.182   1.690  0.1355  0.3399 -0.1805
66152SOL    HW2 8771   4.015   7.039   1.655  0.4970  0.4121 -0.8369
66153SOL     OW 8772  12.330   2.436   0.428  0.2635  0.0499 -0.5220
66153SOL    HW1 8773  12.425   2.444   0.433  0.1288  0.7506  1.8302
66153SOL    HW2 8774  12.315   2.372   0.358  2.4626 -0.4741 -0.5784
66154SOL     OW 8775  10.411   6.191   6.774 -0.6522 -0.2719  0.4062
66154SOL    HW1 8776  10.484   6.129   6.777  0.4645  1.0217  1.7030
66154SOL    HW2 8777  10.335   6.139   6.748  0.7042 -1.6766 -0.9507
66155SOL     OW 8778  11.780   6.518  10.784 -0.0448  0.3861 -0.2995
66155SOL    HW1 8779  11.859   6.468  10.804 -0.3000 -0.5077 -1.4159
66155SOL    HW2 8780  11.811   6.596  10.739  0.1477 -0.6159 -1.9569
66156SOL     OW 8781   8.927  11.776   1.847 -0.1354  0.2434  0.5362
66156SOL    HW1 8782   8.839  11.780   1.810 -0.4418  0.2231  1.2576
66156SOL    HW2 8783   8.973  11.849   1.806 -0.1925 -0.3086 -0.5741
66157SOL     OW 8784   6.342  11.747  10.565  0.0156 -0.7631 -0.1411
66157SOL    HW1 8785   6.282  11.705  10.503 -1.0537  1.0897 -0.4517
66157SOL    HW2 8786   6.337  11.841  10.543  0.4920 -0.1798  2.0059
66158SOL     OW 8787   8.777  11.654   4.650  0.5442 -0.0535 -0.3924
66158SOL    HW1 8788   8.777  11.733   4.596 -2.4542  0.1406 -0.2582
66158SOL    HW2 8789   8.809  11.586   4.592  2.1212  1.0271 -0.8469
66159SOL     OW 8790   2.330   0.502   2.787 -0.1259 -0.1903 -0.2861
66159SOL    HW1 8791   2.390   0.448   2.839  0.5456 -0.0413 -0.9012
66159SOL    HW2 8792   2.386   0.568   2.746 -0.8781  0.7288  0.1216
66160SOL     OW 8793   0.737   5.300   0.918  0.0529 -0.2368  0.5765
66160SOL    HW1 8794   0.686   5.224   0.947 -1.6137  0.3923 -0.5696
66160SOL    HW2 8795   0.688   5.376   0.950  1.6489  0.4206  1.6301
66161SOL     OW 8796  10.546   4.405   6.704 -0.4117  0.2147  0.2743
66161SOL    HW1 8797  10.537   4.325   6.756  0.0689  1.1884  1.9209
66161SOL    HW2 8798  10.620   4.387   6.646 -1.0396 -0.9424 -0.2176
66162SOL     OW 8799   5.403   9.343   0.402 -0.0975 -0.1006  0.4423
66162SOL    HW1 8800   5.369   9.259   0.435  1.6600 -0.5923  1.1486
66162SOL    HW2 8801   5.498   9.334   0.410  0.4010  0.4948 -3.0482
66163SOL     OW 8802  11.500   6.110   5.621  0.5569 -0.5955 -0.2355
66163SOL    HW1 8803  11.501   6.206   5.624  1.6741 -0.6257  1.0021
66163SOL    HW2 8804  11.520   6.089   5.529 -1.1077  0.3337 -0.8502
66164SOL     OW 8805  12.326   1.926   1.514 -0.3707  0.6461 -0.3917
66164SOL    HW1 8806  12.328   1.984   1.438  0.5092 -0.2736 -1.0930
66164SOL    HW2 8807  12.239   1.940   1.552 -1.0319  0.7493 -1.8718
66165SOL     OW 8808   2.651   9.751  10.546 -0.2094  0.1081  0.5502
66165SOL    HW1 8809   2.566   9.712  10.523  1.0487 -0.8603 -3.1467
66165SOL    HW2 8810   2.669   9.718  10.635 -3.2950 -0.2489  1.1575
66166SOL     OW 8811   1.576  10.850   2.052 -0.1322 -0.0691 -0.1885
66166SOL    HW1 8812   1.549  10.942   2.060 -0.0537  0.0521 -1.2382
66166SOL    HW2 8813   1.577  10.833   1.958 -0.0035 -1.1097 -0.0096
66167SOL     OW 8814   8.276   7.854   4.208 -0.7022 -0.5126 -0.0958
66167SOL    HW1 8815   8.275   7.817   4.119 -1.0715  2.0476 -1.2594
66167SOL    HW2 8816   8.189   7.835   4.243 -0.2842 -2.2426  0.0746
66168SOL     OW 8817   9.809   8.381   5.501  0.2162 -0.3498  0.0802
66168SOL    HW1 8818   9.865   8.312   5.464  0.4279 -2.3572  3.7359
66168SOL    HW2 8819   9.752   8.335   5.562 -1.0870  2.4883  1.1448
66169SOL     OW 8820   9.857  12.362   7.892  0.2985  0.0577  0.0495
66169SOL    HW1 8821   9.933  12.308   7.912  1.1834  0.5756 -1.7689
66169SOL    HW2 8822   9.828  12.332   7.806  0.4151  2.0024 -0.7046
66170SOL     OW 8823  11.765   2.172   1.857 -0.0614 -0.3228 -0.1416
66170SOL    HW1 8824  11.858   2.178   1.879  0.5684  1.3256 -2.7888
66170SOL    HW2 8825  11.737   2.263   1.846 -1.5024 -0.8590 -1.1809
66171SOL     OW 8826  12.474   1.485   0.391 -0.7235 -0.4469  0.3812
66171SOL    HW1 8827  12.553   1.502   0.340 -1.2399  1.0348  0.0210
66171SOL    HW2 8828  12.402   1.505   0.331 -1.3469  0.1725  1.3065
66172SOL     OW 8829   2.577   9.396   6.139  0.1767  0.1628 -0.0332
66172SOL    HW1 8830   2.581   9.304   6.114 -0.7988 -0.2320  1.1772
66172SOL    HW2 8831   2.669   9.422   6.152  0.5119 -0.3820 -1.1953
66173SOL     OW 8832  10.635  11.415   0.497 -0.0980  0.3679 -0.1569
66173SOL    HW1 8833  10.688  11.447   0.570  0.3264  0.0160 -0.3091
66173SOL    HW2 8834  10.607  11.495   0.452 -1.7411  0.6924  1.3246
66174SOL     OW 8835   3.117   0.705   0.414 -0.4559 -0.0007  0.0814
66174SOL    HW1 8836   3.187   0.641   0.402 -0.4366  0.0450 -0.0569
66174SOL    HW2 8837   3.091   0.728   0.325 -0.0411  0.6396  0.1179
66175SOL     OW 8838  11.517  12.950   7.048 -0.0577  0.0087  0.1510
66175SOL    HW1 8839  11.544  12.874   6.997 -0.1608 -1.3528  1.9930
66175SOL    HW2 8840  11.531  13.025   6.990 -0.0397 -1.4075 -1.7617
66176SOL     OW 8841   0.157  10.357   4.543 -0.5081 -0.2587  0.1330
66176SOL    HW1 8842   0.138  10.323   4.630  0.3048  0.2171  0.5087
66176SOL    HW2 8843   0.247  10.389   4.548 -1.4599  2.8086  0.1214
66177SOL     OW 8844  11.818   3.259   4.787 -0.1559 -0.3832 -0.2490
66177SOL    HW1 8845  11.834   3.322   4.857 -2.5232 -0.2477  0.2321
66177SOL    HW2 8846  11.862   3.297   4.710  0.3595  0.6982  0.5554
66178SOL     OW 8847   6.271  10.454   5.714  0.5607  0.5448 -0.3991
66178SOL    HW1 8848   6.204  10.389   5.696 -0.8915  1.0933  2.3501
66178SOL    HW2 8849   6.340  10.406   5.761 -0.5251  0.8511  1.6578
66179SOL     OW 8850   2.485   5.756   3.931 -0.4726 -0.4199 -0.0359
66179SOL    HW1 8851   2.510   5.753   4.024 -1.0084  1.9128  0.2555
66179SOL    HW2 8852   2.545   5.820   3.892 -2.4476  1.3106 -0.4606
66180SOL     OW 8853   1.579   1.821  11.849  0.0930 -0.2418  0.4595
66180SOL    HW1 8854   1.605   1.753  11.787  3.5670  1.0283  0.3008
66180SOL    HW2 8855   1.560   1.773  11.930 -1.0962 -1.6180 -0.5707
66181SOL     OW 8856   9.293   5.514   5.117 -0.1680  0.2934  0.0939
66181SOL    HW1 8857   9.379   5.551   5.098 -0.2847  0.4113 -0.2082
66181SOL    HW2 8858   9.241   5.587   5.151 -0.3613  0.3813 -0.3864
66182SOL     OW 8859   0.558   9.135   2.035  0.3760  0.2674 -0.6220
66182SOL    HW1 8860   0.579   9.072   2.104 -0.0037  1.4045  0.5523
66182SOL    HW2 8861   0.464   9.125   2.022  0.5973 -0.6937 -1.7794
66183SOL     OW 8862  12.734  12.493   9.329 -0.4396 -0.1859  0.3503
66183SOL    HW1 8863  12.640  12.507   9.314 -0.0424  1.0458 -1.2769
66183SOL    HW2 8864  12.775  12.574   9.299  1.2729 -1.3028 -0.4574
66184SOL     OW 8865   4.086  10.459   2.768  0.0187 -0.2646 -0.5271
66184SOL    HW1 8866   3.998  10.422   2.781 -0.1939  0.0601 -0.9852
66184SOL    HW2 8867   4.072  10.532   2.707  0.7757 -0.9292 -1.5290
66185SOL     OW 8868  11.601   1.746   5.696  0.1084 -0.4450 -0.3787
66185SOL    HW1 8869  11.676   1.798   5.668 -0.9983  1.9762  0.8157
66185SOL    HW2 8870  11.638   1.680   5.754  1.3359  0.8574  0.3830
66186SOL     OW 8871   7.842   7.720  12.795  0.5170 -0.2939  0.1971
66186SOL    HW1 8872   7.904   7.674  12.738  2.1146  2.3478 -0.3687
66186SOL    HW2 8873   7.875   7.810  12.799 -2.0696  0.7023  1.7215
66187SOL     OW 8874   2.004   1.679   1.659  0.7914  0.6649 -0.0778
66187SOL    HW1 8875   2.024   1.728   1.739  1.0710  0.3685  0.0353
66187SOL    HW2 8876   1.913   1.652   1.670  0.9627  0.2427  0.3458
66188SOL     OW 8877   1.519   1.394  10.313  0.2907 -0.1406 -0.1364
66188SOL    HW1 8878   1.474   1.355  10.239  0.9054 -0.2733 -0.4523
66188SOL    HW2 8879   1.598   1.340  10.324  0.5909  0.3439  0.1231
66189SOL     OW 8880   7.911   8.433  12.206  0.0358 -0.6447 -0.0656
66189SOL    HW1 8881   7.856   8.504  12.239  0.0525 -0.0813 -1.1835
66189SOL    HW2 8882   7.987   8.477  12.169 -0.4290 -1.1442 -1.7017
66190SOL     OW 8883   4.257   7.818  12.279 -0.1637  0.4656 -0.1072
66190SOL    HW1 8884   4.210   7.798  12.360  0.0322  0.4739  0.0093
66190SOL    HW2 8885   4.332   7.759  12.280 -0.5761 -0.0750 -0.6634
66191SOL     OW 8886   3.402   7.614   8.180 -0.2515 -0.0050 -0.0494
66191SOL    HW1 8887   3.362   7.530   8.155 -0.8706  0.8057 -2.0160
66191SOL    HW2 8888   3.328   7.672   8.195  0.1747  0.2168  1.2791
66192SOL     OW 8889   6.890   6.002   2.650 -0.2374  0.2172 -0.2277
66192SOL    HW1 8890   6.805   5.965   2.626  0.0281 -0.8367  0.3625
66192SOL    HW2 8891   6.921   5.945   2.721  1.8539 -0.6836 -1.7787
66193SOL     OW 8892   4.322   9.340   9.219  0.1529 -0.0168  0.7153
66193SOL    HW1 8893   4.322   9.346   9.124  0.9165 -0.0848  0.7049
66193SOL    HW2 8894   4.231   9.356   9.244  0.5911  4.6579  0.2420
66194SOL     OW 8895   9.338   1.780   8.834 -0.0819 -0.1781  0.3902
66194SOL    HW1 8896   9.246   1.800   8.850  0.3271  0.7398  1.8035
66194SOL    HW2 8897   9.380   1.866   8.828  0.7178 -0.5890 -0.0950
66195SOL     OW 8898  11.436   4.370   2.375 -0.3341 -0.3370 -0.3413
66195SOL    HW1 8899  11.498   4.360   2.447  1.9720 -0.0207 -2.1697
66195SOL    HW2 8900  11.380   4.443   2.401 -0.6650 -1.2984  1.8148
66196SOL     OW 8901   3.371   2.660   7.027 -0.1921  0.0586  0.5530
66196SOL    HW1 8902   3.457   2.697   7.011 -0.9195  1.2469 -0.8674
66196SOL    HW2 8903   3.388   2.581   7.079  1.7597  0.0477 -0.0239
66197SOL     OW 8904  12.293   2.919   3.443 -0.7928  0.2638 -0.1053
66197SOL    HW1 8905  12.364   2.858   3.465 -2.3906 -1.6744 -0.0399
66197SOL    HW2 8906  12.286   2.977   3.519 -0.2941 -0.5331  0.5651
66198SOL     OW 8907   7.789  12.708   6.979  0.0923  0.3583  0.1446
66198SOL    HW1 8908   7.844  12.742   6.909  0.4051  0.0335  0.2320
66198SOL    HW2 8909   7.850  12.675   7.044 -0.1500 -2.1931 -0.7956
66199SOL     OW 8910   4.594   4.950   1.078 -0.2356 -0.0305 -0.3307
66199SOL    HW1 8911   4.649   4.890   1.027 -3.0593 -1.8163 -1.5196
66199SOL    HW2 8912   4.570   5.019   1.016  2.2179  1.9959  0.7747
66200SOL     OW 8913   9.066   9.828  12.008 -0.0174 -0.0437 -0.5085
66200SOL    HW1 8914   9.146   9.775  12.013 -0.2997 -0.4398 -0.1400
66200SOL    HW2 8915   9.064   9.860  11.917 -0.4076 -1.5477 -1.0575
66201SOL     OW 8916  11.994   5.978   6.106  0.3526 -0.2383 -0.3494
66201SOL    HW1 8917  11.924   5.928   6.063 -0.3812  0.6148 -0.1747
66201SOL    HW2 8918  11.952   6.059   6.135  0.9180 -0.6153  1.6728
66202SOL     OW 8919  10.296   6.065   8.519 -0.1107  0.0199  0.0774
66202SOL    HW1 8920  10.339   6.103   8.442  1.6070 -1.4000  0.2564
66202SOL    HW2 8921  10.235   6.001   8.483 -1.2530  1.1701 -0.1360
66203SOL     OW 8922   3.156   7.920  12.557  0.2577 -0.2677  0.1180
66203SOL    HW1 8923   3.180   7.854  12.622 -1.5255 -0.3566  0.7184
66203SOL    HW2 8924   3.152   7.872  12.474 -0.4712 -0.8010  0.4593
66204SOL     OW 8925   3.333   5.901   7.769  0.4276  0.0759  0.0980
66204SOL    HW1 8926   3.264   5.943   7.718  0.3355  0.3098  0.4103
66204SOL    HW2 8927   3.390   5.973   7.795 -0.4524  0.2218  1.7625
66205SOL     OW 8928   0.199   1.816   2.907  0.4943 -0.5384  0.5584
66205SOL    HW1 8929   0.117   1.842   2.864  0.3994 -0.0803  1.0045
66205SOL    HW2 8930   0.247   1.768   2.840 -0.7833 -2.1372  0.7291
66206SOL     OW 8931  10.313   8.956   5.577  0.2852  0.0859 -0.3770
66206SOL    HW1 8932  10.308   8.920   5.489  0.9039 -1.0351  0.0162
66206SOL    HW2 8933  10.262   8.895   5.631  2.3452 -0.9710  0.5116
66207SOL     OW 8934   1.698   7.130  11.018  0.0039 -0.0753  0.0002
66207SOL    HW1 8935   1.621   7.073  11.013 -0.2052  0.2714 -0.8075
66207SOL    HW2 8936   1.765   7.084  10.967  0.2045 -0.1576  0.3301
66208SOL     OW 8937  10.670   6.741   1.189  0.2840 -0.4456 -0.1193
66208SOL    HW1 8938  10.655   6.749   1.095  2.0929  1.6777 -0.3320
66208SOL    HW2 8939  10.765   6.728   1.197  0.6279  2.0988  1.3918
66209SOL     OW 8940   0.388   4.286   7.028  0.1345  0.3040  0.3311
66209SOL    HW1 8941   0.447   4.342   7.078  1.4683 -2.4952  2.1392
66209SOL    HW2 8942   0.347   4.230   7.094 -1.3740 -0.6658 -1.3391
66210SOL     OW 8943   2.219   3.623   9.785 -0.3787 -0.2177  0.2778
66210SOL    HW1 8944   2.206   3.537   9.825 -3.2870 -0.3411 -0.7248
66210SOL    HW2 8945   2.169   3.683   9.840  0.6076  0.6656  0.2509
66211SOL     OW 8946  10.784  11.797   7.571 -0.3484  0.1718  0.1284
66211SOL    HW1 8947  10.738  11.876   7.544 -2.0135 -0.7320  0.1751
66211SOL    HW2 8948  10.786  11.803   7.667  2.4715  1.6925  0.0741
66212SOL     OW 8949  10.689   8.511   0.421 -0.1100  0.4961  0.4430
66212SOL    HW1 8950  10.642   8.588   0.455 -0.0828  1.0793 -0.7762
66212SOL    HW2 8951  10.771   8.510   0.470 -0.5742  0.5885  1.2488
66213SOL     OW 8952   8.439   3.270   5.308 -0.0633 -0.3538 -0.0130
66213SOL    HW1 8953   8.401   3.217   5.377  0.8728 -2.6431 -1.1339
66213SOL    HW2 8954   8.524   3.298   5.343 -0.9790  1.3261  0.9594
66214SOL     OW 8955  12.548   3.776   9.633 -0.1188 -0.0939 -0.0749
66214SOL    HW1 8956  12.515   3.705   9.577 -0.8866 -1.2979  1.8090
66214SOL    HW2 8957  12.606   3.732   9.696  2.9070  1.5927 -1.4757
66215SOL     OW 8958  10.539   3.901   9.884  0.5266 -0.8134  0.5662
66215SOL    HW1 8959  10.450   3.909   9.918  0.9579 -0.2298  1.6048
66215SOL    HW2 8960  10.592   3.958   9.940  1.6512 -1.5529  0.3009
66216SOL     OW 8961   1.912   2.196   7.227 -0.5103  0.3981 -0.3837
66216SOL    HW1 8962   1.923   2.240   7.142 -2.8888  0.4106 -0.7593
66216SOL    HW2 8963   1.817   2.197   7.242 -0.2818 -1.0543  1.5142
66217SOL     OW 8964   3.496   4.527   9.748 -0.0792 -0.2825  0.7153
66217SOL    HW1 8965   3.586   4.509   9.775  0.3487 -1.2572 -1.2031
66217SOL    HW2 8966   3.442   4.469   9.803  0.7137 -1.8225 -0.0652
66218SOL     OW 8967   5.353  10.899  11.026  0.4897  0.3560 -0.6507
66218SOL    HW1 8968   5.293  10.964  10.990 -0.3268 -1.1793 -2.2431
66218SOL    HW2 8969   5.382  10.936  11.109 -1.2013  1.9881 -0.7228
66219SOL     OW 8970   8.732   7.422   4.312  0.3329  0.7004 -0.3379
66219SOL    HW1 8971   8.752   7.342   4.360 -1.1223 -0.6447 -1.8244
66219SOL    HW2 8972   8.807   7.433   4.252 -0.0396 -0.3149 -1.0196
66220SOL     OW 8973  11.239   8.071   9.035  0.5851  0.4505 -0.1494
66220SOL    HW1 8974  11.277   8.103   9.117  1.1285  0.4994 -0.4199
66220SOL    HW2 8975  11.296   7.998   9.009  0.0760  0.0569 -0.1833
66221SOL     OW 8976  11.536   3.747   8.025 -0.4689 -0.1428  0.2182
66221SOL    HW1 8977  11.455   3.766   7.979 -0.4397  1.0078  0.6190
66221SOL    HW2 8978  11.540   3.651   8.028  0.0379 -0.3242 -3.0346
66222SOL     OW 8979   4.170   1.009   2.642 -0.2100 -0.1329  0.1319
66222SOL    HW1 8980   4.239   1.048   2.697  1.5020 -0.9418 -1.3678
66222SOL    HW2 8981   4.118   1.084   2.613  0.7924  0.6336  0.2657
66223SOL     OW 8982   6.487   2.633   8.879  0.1750  0.8490  0.4380
66223SOL    HW1 8983   6.522   2.715   8.843  1.5024 -0.3269 -1.1149
66223SOL    HW2 8984   6.415   2.610   8.820  0.7589  0.1771 -0.0341
66224SOL     OW 8985   9.110   0.622   6.361 -0.4240 -0.1194  0.0081
66224SOL    HW1 8986   9.082   0.641   6.450 -1.5994  0.0704 -0.3841
66224SOL    HW2 8987   9.063   0.686   6.307  0.8494  0.2780 -0.6879
66225SOL     OW 8988   5.675   3.406   5.260 -0.6493 -0.2082  0.2399
66225SOL    HW1 8989   5.581   3.407   5.240 -0.3258  0.7301 -1.4296
66225SOL    HW2 8990   5.717   3.431   5.178  1.1006 -0.9794  0.8544
66226SOL     OW 8991  11.703   7.285   4.905  0.1304 -0.1476 -0.1677
66226SOL    HW1 8992  11.641   7.353   4.932  1.0412  0.7356 -0.2055
66226SOL    HW2 8993  11.717   7.302   4.811  2.1874  1.1971  0.3054
66227SOL     OW 8994   5.838   8.880  11.009 -0.0775 -0.1787 -0.1485
66227SOL    HW1 8995   5.792   8.962  10.992 -2.1018 -0.9223  1.2981
66227SOL    HW2 8996   5.898   8.869  10.935  1.1940  3.1801  0.2256
66228SOL     OW 8997   7.434   4.119   2.435 -0.2813 -0.1631 -0.3872
66228SOL    HW1 8998   7.394   4.182   2.495  0.9928  0.0181  0.2964
66228SOL    HW2 8999   7.468   4.172   2.363  0.1435 -0.1434 -0.1737
66229SOL     OW 9000   8.614  11.772  10.997 -0.4898 -0.4329 -0.1738
66229SOL    HW1 9001   8.598  11.680  11.018 -1.1002 -0.6703 -1.5525
66229SOL    HW2 9002   8.535  11.817  11.027  0.6891  0.0343  2.5063
66230SOL     OW 9003   4.815  11.318   4.533 -0.5812  0.2146 -0.5938
66230SOL    HW1 9004   4.743  11.337   4.594 -1.2116 -2.2333 -0.4685
66230SOL    HW2 9005   4.773  11.312   4.447 -0.3060 -0.0083 -0.7144
66231SOL     OW 9006  10.666  12.572  11.705  0.0293  0.0204  0.1892
66231SOL    HW1 9007  10.697  12.488  11.737 -0.4064 -0.3057 -0.2273
66231SOL    HW2 9008  10.745  12.626  11.697  0.2766 -0.2660  0.6920
66232SOL     OW 9009   9.930  11.813   2.434 -0.1829  0.2136  0.0612
66232SOL    HW1 9010   9.982  11.761   2.373  0.7574 -0.4916  1.4319
66232SOL    HW2 9011   9.912  11.894   2.386  0.8701 -0.1514 -1.0045
66233SOL     OW 9012  10.838   4.830   5.477 -0.4357  0.9077  0.7773
66233SOL    HW1 9013  10.854   4.921   5.452 -1.9283  0.9217 -0.2844
66233SOL    HW2 9014  10.745   4.828   5.501 -0.3721 -0.3014  0.9797
66234SOL     OW 9015  11.170   8.856   4.009 -0.6615  0.3387 -0.1000
66234SOL    HW1 9016  11.243   8.864   3.948  0.1684  0.6247  0.9000
66234SOL    HW2 9017  11.207   8.810   4.085 -1.0601  1.9700  1.1302
66235SOL     OW 9018   2.513   2.324   8.668 -0.3466 -0.5610 -0.0378
66235SOL    HW1 9019   2.598   2.364   8.687 -1.0826  0.4420  1.3214
66235SOL    HW2 9020   2.474   2.380   8.602 -0.2661 -0.5917 -0.1119
66236SOL     OW 9021  10.837   8.777   6.257 -0.2157 -0.1244  0.6876
66236SOL    HW1 9022  10.919   8.740   6.289 -0.9466 -1.2362  1.3300
66236SOL    HW2 9023  10.850   8.783   6.162 -0.0741 -2.1249  0.5400
66237SOL     OW 9024   4.995   0.411   9.924 -0.4120 -0.2486 -0.7393
66237SOL    HW1 9025   4.942   0.436   9.999  3.7130  0.5522  2.2771
66237SOL    HW2 9026   5.007   0.316   9.934  0.8243 -0.0196  0.2547
66238SOL     OW 9027   1.513   5.633   0.907  0.7206  1.0376 -0.0036
66238SOL    HW1 9028   1.532   5.545   0.875  0.0288  1.0583 -0.4976
66238SOL    HW2 9029   1.579   5.689   0.864  0.1836  0.9772 -0.9349
66239SOL     OW 9030   8.716   8.938  12.514  0.4060  0.0947 -0.0367
66239SOL    HW1 9031   8.690   8.862  12.567  0.7009  0.1379  0.1742
66239SOL    HW2 9032   8.714   8.906  12.424 -0.7438  0.2006 -0.0605
66240SOL     OW 9033  10.117   1.770  10.975  0.6377 -0.2893 -0.1037
66240SOL    HW1 9034  10.087   1.822  11.049  0.5003  1.1478 -1.1347
66240SOL    HW2 9035  10.081   1.814  10.898  0.3778 -2.0092 -1.0247
66241SOL     OW 9036  12.176  11.479  10.506 -0.2167 -0.3823  0.3108
66241SOL    HW1 9037  12.224  11.562  10.505 -1.9347  0.6620 -0.4913
66241SOL    HW2 9038  12.118  11.486  10.582 -1.8978  0.1484 -0.9447
66242SOL     OW 9039  11.580   1.451  11.953  0.0702  0.7075 -0.1560
66242SOL    HW1 9040  11.524   1.484  11.884 -0.1220 -0.1130 -0.4023
66242SOL    HW2 9041  11.625   1.376  11.914 -1.1750 -0.7295  1.0323
66243SOL     OW 9042   0.564   2.772   2.302 -0.5648 -0.6631  0.2443
66243SOL    HW1 9043   0.568   2.678   2.280  0.6477 -0.5177 -0.2444
66243SOL    HW2 9044   0.656   2.797   2.313 -0.9380  0.2147  1.5333
66244SOL     OW 9045   1.877  10.863  12.954  0.1434  0.7123 -0.7796
66244SOL    HW1 9046   1.969  10.879  12.931  0.5587  3.7917  2.2250
66244SOL    HW2 9047   1.829  10.930  12.904 -0.3486 -0.1128 -1.4287
66245SOL     OW 9048   1.771  11.928   2.830 -0.4681  0.6782  0.5107
66245SOL    HW1 9049   1.842  11.873   2.861 -1.9629 -2.0900 -0.5898
66245SOL    HW2 9050   1.811  11.987   2.766  0.9599 -0.2871  0.4888
66246SOL     OW 9051   2.677   1.586  10.265 -0.2946  0.3762  0.6601
66246SOL    HW1 9052   2.631   1.650  10.211 -0.1542  0.8337  1.0755
66246SOL    HW2 9053   2.607   1.538  10.310 -0.5568 -1.8386 -1.9127
66247SOL     OW 9054  12.568   4.994   0.996 -0.1815  0.3704 -0.3637
66247SOL    HW1 9055  12.613   4.965   0.917  1.5141  1.3852  0.1748
66247SOL    HW2 9056  12.613   5.075   1.021 -0.6385  0.0585  1.6662
66248SOL     OW 9057  12.888  12.502  10.213 -0.4717  0.1178  0.6058
66248SOL    HW1 9058  12.863  12.552  10.135  3.3084 -0.3037 -1.1014
66248SOL    HW2 9059  12.930  12.565  10.270  2.1744 -0.5095 -0.5042
66249SOL     OW 9060  12.338   2.586   4.751  0.3937 -0.3419  0.0344
66249SOL    HW1 9061  12.303   2.534   4.678  1.6416 -0.2112 -0.6949
66249SOL    HW2 9062  12.312   2.538   4.829 -0.1906 -0.9809 -0.5355
66250SOL     OW 9063   6.521  10.023   6.405  0.1502 -0.1556 -0.1520
66250SOL    HW1 9064   6.581   9.950   6.418 -1.2578 -1.3794 -0.2429
66250SOL    HW2 9065   6.444   9.983   6.364  0.2884  1.7796 -2.5350
66251SOL     OW 9066   7.361  10.368   2.314 -0.2968  0.2849  0.1292
66251SOL    HW1 9067   7.336  10.278   2.338  0.8094 -0.0311  0.1676
66251SOL    HW2 9068   7.278  10.412   2.297 -0.9250 -0.4489  1.1495
66252SOL     OW 9069   4.194   1.930   1.851  0.4814 -0.2578 -0.2509
66252SOL    HW1 9070   4.227   1.880   1.777  0.1600  0.8532 -1.1771
66252SOL    HW2 9071   4.137   1.996   1.811 -0.7353 -0.4474  1.0815
66253SOL     OW 9072   8.416   5.812   6.797 -0.0856  0.4107  0.5066
66253SOL    HW1 9073   8.346   5.860   6.751 -0.7285 -1.2538 -0.3361
66253SOL    HW2 9074   8.497   5.853   6.766 -0.6006  0.8064 -0.3612
66254SOL     OW 9075   2.639   3.763   8.092  0.3466 -0.8796  0.4308
66254SOL    HW1 9076   2.710   3.732   8.036  1.0004 -1.5186  1.5789
66254SOL    HW2 9077   2.649   3.714   8.173 -2.1257 -1.8521  0.2335
66255SOL     OW 9078   3.160  12.906   9.876  0.5005 -0.0740 -0.1609
66255SOL    HW1 9079   3.189  12.944   9.959  0.0547 -2.8881  1.4174
66255SOL    HW2 9080   3.240  12.892   9.827  1.0959 -0.9377  1.0079
66256SOL     OW 9081   6.269  12.537   7.011 -0.6623 -0.4591  0.0185
66256SOL    HW1 9082   6.262  12.442   6.997 -1.0556 -0.1555 -2.3032
66256SOL    HW2 9083   6.216  12.575   6.940  0.7223  1.5090 -0.0254
66257SOL     OW 9084   0.902   9.624   5.306  0.4946 -0.0669  0.2284
66257SOL    HW1 9085   0.913   9.530   5.323 -2.4205 -0.5073  0.3168
66257SOL    HW2 9086   0.948   9.639   5.223 -1.6904 -2.3923 -1.5863
66258SOL     OW 9087   0.928  12.846   6.747  0.0137 -0.3466  0.1500
66258SOL    HW1 9088   0.885  12.849   6.662 -0.6204 -0.7778  0.4519
66258SOL    HW2 9089   0.977  12.928   6.751 -1.0686  0.3325 -0.0537
66259SOL     OW 9090   0.206  11.031   0.474 -0.0976 -0.0220  0.4800
66259SOL    HW1 9091   0.218  10.990   0.388  0.3943  1.7830 -0.3458
66259SOL    HW2 9092   0.274  11.098   0.479 -2.1862  2.1829  0.8667
66260SOL     OW 9093   2.828  11.631   7.901 -0.1296  0.3960  0.3916
66260SOL    HW1 9094   2.842  11.704   7.841  0.7790  0.6367  0.8718
66260SOL    HW2 9095   2.901  11.572   7.885 -0.2074  0.1741  0.8297
66261SOL     OW 9096   1.412  12.321   6.500 -0.2209  0.1281  0.4213
66261SOL    HW1 9097   1.470  12.312   6.424 -1.0066  0.9177 -0.2885
66261SOL    HW2 9098   1.441  12.402   6.542 -0.5749  0.3372  0.2656
66262SOL     OW 9099  10.366   2.976   7.465  0.6712 -0.1833  0.3488
66262SOL    HW1 9100  10.307   2.965   7.539 -2.1348 -0.6699 -1.7556
66262SOL    HW2 9101  10.390   2.887   7.440  1.2010 -0.0485  0.3643
66263SOL     OW 9102   3.437  12.934   2.872 -0.4535 -0.3505  0.4008
66263SOL    HW1 9103   3.428  13.027   2.896 -1.6262  0.7252 -3.4744
66263SOL    HW2 9104   3.530  12.923   2.851 -0.4683  0.2123  0.0193
66264SOL     OW 9105  10.240   7.227   9.643 -0.2560 -0.4957 -0.3716
66264SOL    HW1 9106  10.327   7.232   9.683 -0.0553  0.9590 -0.9256
66264SOL    HW2 9107  10.203   7.145   9.676  1.0579 -0.8108  0.4003
66265SOL     OW 9108   9.362   9.105   5.220  0.0083  0.3586 -0.0538
66265SOL    HW1 9109   9.365   9.084   5.127 -0.8509  3.3977 -0.8835
66265SOL    HW2 9110   9.271   9.090   5.245  0.5582 -1.9240  0.7580
66266SOL     OW 9111   2.539   1.889   3.833 -0.1827 -0.4621 -0.6189
66266SOL    HW1 9112   2.603   1.848   3.776 -0.5892  0.2478 -1.6299
66266SOL    HW2 9113   2.498   1.817   3.880  1.8904 -0.8815  0.6906
66267SOL     OW 9114  10.924  12.117   1.451 -0.3392 -0.4085 -0.4932
66267SOL    HW1 9115  10.991  12.096   1.516  1.0854  0.0334 -1.7507
66267SOL    HW2 9116  10.881  12.195   1.485 -1.4009 -1.6498  1.1445
66268SOL     OW 9117  11.846  10.694   7.691 -0.2235  0.8378  0.0982
66268SOL    HW1 9118  11.856  10.787   7.712 -0.4985  0.9586 -0.2897
66268SOL    HW2 9119  11.753  10.684   7.671 -0.1382  0.5430 -0.1592
66269SOL     OW 9120   9.765   1.126  11.229  0.0385 -0.1030 -0.8458
66269SOL    HW1 9121   9.734   1.036  11.223 -0.5135  0.0740 -0.6710
66269SOL    HW2 9122   9.861   1.118  11.232 -0.0194 -0.8569  2.1381
66270SOL     OW 9123  12.173   3.926  11.220  0.2225  0.6017  0.6557
66270SOL    HW1 9124  12.133   3.905  11.304  1.0084 -0.2953  0.8090
66270SOL    HW2 9125  12.114   3.889  11.155  1.3189 -1.7137  0.9064
66271SOL     OW 9126   7.772   7.749   4.380 -0.3575 -0.6032 -0.4904
66271SOL    HW1 9127   7.746   7.838   4.356  1.4636 -0.1014 -0.7561
66271SOL    HW2 9128   7.707   7.722   4.445 -0.9761  0.8989 -0.4381
66272SOL     OW 9129   4.819   1.584  11.796 -0.2617  0.4904  0.1009
66272SOL    HW1 9130   4.786   1.646  11.861 -1.0334  1.2000 -0.9420
66272SOL    HW2 9131   4.772   1.605  11.716  1.5711  0.4931 -1.0494
66273SOL     OW 9132   6.916   0.612   2.357  0.0704  0.6364 -0.5157
66273SOL    HW1 9133   6.849   0.608   2.426  0.3568 -0.1237 -0.2644
66273SOL    HW2 9134   6.871   0.650   2.282 -0.4873  0.6660 -0.1764
66274SOL     OW 9135   8.369   6.851   4.474 -0.4217  0.6328 -0.2847
66274SOL    HW1 9136   8.406   6.929   4.432  1.4731  0.9661  1.8205
66274SOL    HW2 9137   8.422   6.839   4.553 -1.9466 -1.6513  0.4823
66275SOL     OW 9138   2.119   3.505   5.434  0.1062 -0.3101  0.0507
66275SOL    HW1 9139   2.037   3.532   5.391  0.7462 -0.4786 -1.3417
66275SOL    HW2 9140   2.138   3.575   5.496 -0.5410  0.2479 -0.3646
66276SOL     OW 9141   5.183  11.320   7.935 -0.3250 -0.2084 -0.6603
66276SOL    HW1 9142   5.208  11.240   7.980  0.3675  0.0717 -0.5350
66276SOL    HW2 9143   5.091  11.333   7.958  0.1840  0.2926  1.2623
66277SOL     OW 9144   1.811   7.122  11.842  0.0089 -0.5372  0.1183
66277SOL    HW1 9145   1.727   7.110  11.797  0.4955 -0.6599 -0.7853
66277SOL    HW2 9146   1.872   7.149  11.773  0.3733  1.0796  1.0217
66278SOL     OW 9147  12.031  12.346   9.142  0.0656  0.0300  0.2701
66278SOL    HW1 9148  11.951  12.347   9.194  0.5421 -1.4993  1.0703
66278SOL    HW2 9149  12.054  12.438   9.132 -1.5119  0.4736  0.4417
66279SOL     OW 9150   8.658  12.207   2.318 -0.2761 -0.1865 -0.1615
66279SOL    HW1 9151   8.721  12.136   2.330 -0.5115 -0.3935 -0.1216
66279SOL    HW2 9152   8.698  12.265   2.253 -0.2925 -0.6094 -0.5555
66280SOL     OW 9153   6.140   1.357   8.541 -0.0449  0.1058  0.0453
66280SOL    HW1 9154   6.118   1.286   8.480 -2.2932  0.2825  0.5370
66280SOL    HW2 9155   6.139   1.315   8.628 -0.2415  0.4894  0.2332
66281SOL     OW 9156  10.866   6.826  11.870 -0.7051 -0.4923 -0.0823
66281SOL    HW1 9157  10.861   6.774  11.951  0.0580  1.5725  1.3935
66281SOL    HW2 9158  10.951   6.869  11.875  0.7028 -2.4680 -3.4892
66282SOL     OW 9159  11.812   9.869   0.496  0.7180  0.3929 -0.3377
66282SOL    HW1 9160  11.747   9.803   0.521 -0.4415  1.8201  0.5839
66282SOL    HW2 9161  11.801   9.879   0.401 -0.2992  0.4797 -0.2225
66283SOL     OW 9162  12.390   3.291   1.986  0.3381 -0.5738  0.0574
66283SOL    HW1 9163  12.327   3.360   2.007 -1.0443 -0.6406 -3.1618
66283SOL    HW2 9164  12.361   3.215   2.035 -0.3465  0.1634  0.8179
66284SOL     OW 9165  10.014   5.680   7.353 -0.0710  0.2349  0.2202
66284SOL    HW1 9166  10.016   5.756   7.411  1.0199 -0.2293  0.8243
66284SOL    HW2 9167  10.040   5.714   7.267  1.0794  0.4346  0.6340
66285SOL     OW 9168  10.817  11.992  12.062  0.0572  0.0243 -0.9717
66285SOL    HW1 9169  10.733  11.972  12.023 -0.5289 -0.1721  0.3339
66285SOL    HW2 9170  10.811  12.084  12.088 -1.0311 -0.7616  2.0087
66286SOL     OW 9171   0.170  11.270   9.961  0.4520  0.3729  0.7172
66286SOL    HW1 9172   0.208  11.215  10.029 -2.1122 -2.9036 -0.2628
66286SOL    HW2 9173   0.081  11.287   9.990  0.1664  1.2709 -0.5603
66287SOL     OW 9174   8.357   1.901   7.967  0.0024 -0.2425  1.0982
66287SOL    HW1 9175   8.431   1.956   7.942  0.2028 -1.0976 -0.2538
66287SOL    HW2 9176   8.280   1.955   7.947  0.2140 -0.0944  0.6708
66288SOL     OW 9177   9.720  11.643   9.319  0.3594 -0.0636  0.0003
66288SOL    HW1 9178   9.795  11.613   9.268  0.9229  2.8773 -1.1401
66288SOL    HW2 9179   9.645  11.632   9.260  0.2175 -1.0497  0.3510
66289SOL     OW 9180   5.967   8.754   0.770  0.4807 -0.1204 -0.3928
66289SOL    HW1 9181   6.002   8.801   0.845  0.1225 -1.6187  0.7640
66289SOL    HW2 9182   6.031   8.767   0.701  1.2605  0.5579  0.4389
66290SOL     OW 9183   9.192   9.473   6.893  0.5782 -0.0478 -0.4614
66290SOL    HW1 9184   9.199   9.567   6.876 -1.6862  0.3602  0.3821
66290SOL    HW2 9185   9.112   9.465   6.945  1.0455 -2.3969 -0.0034
66291SOL     OW 9186   8.914   1.783   1.915 -0.3013  0.2441  0.5276
66291SOL    HW1 9187   8.962   1.846   1.969  2.3875 -2.1202  1.1598
66291SOL    HW2 9188   8.835   1.763   1.965  0.2775  0.9153  1.7546
66292SOL     OW 9189   8.030  10.032   2.696 -0.3472 -0.0814 -0.4801
66292SOL    HW1 9190   8.090   9.969   2.737  1.0791  0.5584 -1.5110
66292SOL    HW2 9191   7.946   9.986   2.693  0.3035 -1.3748  0.1359
66293SOL     OW 9192  10.817   3.427   5.370  0.5123 -0.5834 -0.2009
66293SOL    HW1 9193  10.907   3.404   5.346  0.5727  0.2763 -0.8629
66293SOL    HW2 9194  10.788   3.487   5.301  0.4860  1.5892  1.5797
66294SOL     OW 9195   6.419   0.178   2.407 -0.1180 -0.8453  0.1621
66294SOL    HW1 9196   6.458   0.092   2.421  0.2691 -0.6200  0.5092
66294SOL    HW2 9197   6.477   0.238   2.455  0.2178 -0.2695 -0.9337
66295SOL     OW 9198   4.927   8.340  11.265  0.0901  0.1550 -0.1142
66295SOL    HW1 9199   4.932   8.248  11.239  2.4017  0.0763  0.4410
66295SOL    HW2 9200   4.847   8.346  11.318 -0.2755 -1.4364 -0.4376
66296SOL     OW 9201  12.387   1.372   9.431 -0.1130  0.0137 -0.0802
66296SOL    HW1 9202  12.427   1.291   9.463  0.7913  0.8153  0.9325
66296SOL    HW2 9203  12.451   1.408   9.371 -0.3416  0.1676 -0.2319
66297SOL     OW 9204   4.321  10.819  12.408  0.0297 -0.1157  0.3721
66297SOL    HW1 9205   4.309  10.750  12.473 -2.6558 -1.3933 -1.2786
66297SOL    HW2 9206   4.360  10.775  12.333  0.4337  0.6770  0.1051
66298SOL     OW 9207   9.962  10.869   8.182  1.4608 -0.0460 -0.1714
66298SOL    HW1 9208   9.937  10.798   8.242 -0.7071  1.7097  1.1724
66298SOL    HW2 9209   9.919  10.846   8.099  0.6311 -0.2624  0.3027
66299SOL     OW 9210  10.442   4.438   2.756 -0.2067 -0.1940  0.3259
66299SOL    HW1 9211  10.370   4.421   2.817  0.1735 -0.8450  0.5975
66299SOL    HW2 9212  10.417   4.392   2.676  0.2323 -1.0418  0.6558
66300SOL     OW 9213   4.386   9.073   7.426  0.3817 -0.0721  0.0304
66300SOL    HW1 9214   4.399   9.156   7.471 -0.7421  0.0712  0.1132
66300SOL    HW2 9215   4.403   9.006   7.493 -0.3651  0.1229  0.4248
66301SOL     OW 9216   0.312   3.686   6.996  0.5345  0.0459  0.1646
66301SOL    HW1 9217   0.264   3.610   6.963 -0.3637  1.3449 -1.7040
66301SOL    HW2 9218   0.246   3.738   7.043  1.1645 -0.3447  1.5298
66302SOL     OW 9219   0.555   0.038  12.497  0.0060  0.1939 -0.0677
66302SOL    HW1 9220   0.579  -0.053  12.514 -3.3494 -0.9265 -0.5798
66302SOL    HW2 9221   0.561   0.081  12.583  0.6857 -0.7123  0.3540
66303SOL     OW 9222  10.838  12.672   8.032  0.1526  0.1972 -0.1009
66303SOL    HW1 9223  10.866  12.698   7.944 -0.9178  0.8952 -0.2460
66303SOL    HW2 9224  10.918  12.640   8.073  0.5143 -0.9202 -1.5935
66304SOL     OW 9225  12.835   5.859   5.357 -0.5647  0.7968  0.5784
66304SOL    HW1 9226  12.848   5.881   5.264 -0.5867 -0.9020  0.1265
66304SOL    HW2 9227  12.838   5.942   5.402  1.7820  1.4943 -0.6933
66305SOL     OW 9228  10.942  11.385  12.046  0.4218  0.1767  0.0969
66305SOL    HW1 9229  10.960  11.469  12.088  0.3399 -0.8217  2.2674
66305SOL    HW2 9230  10.940  11.322  12.118  0.7578 -1.7464 -1.4856
66306SOL     OW 9231   1.643  12.953   7.805 -0.4471 -0.4606 -0.7386
66306SOL    HW1 9232   1.691  12.870   7.798 -1.1627 -0.7648 -2.7790
66306SOL    HW2 9233   1.552  12.926   7.817 -0.4335  0.0926  0.8891
66307SOL     OW 9234   8.227   8.508   4.074 -0.3154 -0.5614 -0.2724
66307SOL    HW1 9235   8.147   8.550   4.105 -0.9829 -2.5467  0.9065
66307SOL    HW2 9236   8.198   8.425   4.036  0.9611 -0.1739 -2.2089
66308SOL     OW 9237   9.765   4.370   3.341  0.3992  0.7896 -0.0684
66308SOL    HW1 9238   9.738   4.374   3.433 -2.7387 -3.2513 -0.4873
66308SOL    HW2 9239   9.842   4.314   3.341  0.6684  1.1588  0.1240
66309SOL     OW 9240   6.550   9.599   9.876 -0.2580 -0.2065 -0.7745
66309SOL    HW1 9241   6.477   9.553   9.917  0.6685  0.6704  2.0616
66309SOL    HW2 9242   6.605   9.531   9.839 -1.5570 -0.9857 -1.3307
66310SOL     OW 9243   0.200   3.262   9.493 -0.1912 -0.0620  0.3138
66310SOL    HW1 9244   0.169   3.203   9.424  0.6284  0.7889 -0.8247
66310SOL    HW2 9245   0.295   3.250   9.493 -0.1389  0.3498  0.9300
66311SOL     OW 9246  12.462   1.933   8.034  0.8155  0.1914  0.2020
66311SOL    HW1 9247  12.542   1.899   7.995  1.3966 -0.3059  1.7526
66311SOL    HW2 9248  12.456   1.889   8.118 -0.0503  1.6723  0.9598
66312SOL     OW 9249  11.150   7.538   2.572 -0.6210  0.3282 -0.0927
66312SOL    HW1 9250  11.162   7.626   2.539  0.5449  0.3891  0.4372
66312SOL    HW2 9251  11.056   7.531   2.591 -0.7152  1.4464 -0.1340
66313SOL     OW 9252  11.607   1.050   5.123 -0.8140  1.1634 -0.0630
66313SOL    HW1 9253  11.565   0.966   5.142 -1.6953  1.9751  1.7965
66313SOL    HW2 9254  11.555   1.114   5.171  1.8980  2.3708  1.5176
66314SOL     OW 9255  10.910   5.859  12.371 -0.3640  0.5644  0.5811
66314SOL    HW1 9256  10.865   5.776  12.390  0.5034 -0.1516 -0.4025
66314SOL    HW2 9257  10.964   5.840  12.295 -0.2714  2.0929  0.2394
66315SOL     OW 9258  11.324  11.731   2.230 -0.8101 -0.1012  0.1761
66315SOL    HW1 9259  11.318  11.707   2.323  0.5094 -1.0663  0.0489
66315SOL    HW2 9260  11.263  11.673   2.186  0.1190 -1.1529  0.2262
66316SOL     OW 9261   4.170   7.611  10.274  0.1676 -0.0413  0.1242
66316SOL    HW1 9262   4.139   7.566  10.196 -0.1783  0.2381  0.0940
66316SOL    HW2 9263   4.180   7.702  10.246 -0.4608  0.1604  0.5356
66317SOL     OW 9264   8.119   6.057   7.491  0.3699 -0.2210  0.1671
66317SOL    HW1 9265   8.093   6.139   7.450 -0.1003  0.2115  1.2921
66317SOL    HW2 9266   8.038   6.019   7.523  0.7561 -0.4136  0.9356
66318SOL     OW 9267  11.133   5.483   4.172  0.3730  0.4376  0.4454
66318SOL    HW1 9268  11.205   5.453   4.116 -0.6982 -0.0305 -0.7463
66318SOL    HW2 9269  11.133   5.579   4.161 -0.5406  0.2769 -1.3432
66319SOL     OW 9270   1.417   0.566  11.484  0.4063 -0.5426  1.0525
66319SOL    HW1 9271   1.496   0.578  11.430 -0.4021  0.3662  0.0025
66319SOL    HW2 9272   1.419   0.640  11.545  0.5499 -0.7124  1.2513
66320SOL     OW 9273   5.345   7.715   9.830  0.0446  0.0820  0.6227
66320SOL    HW1 9274   5.437   7.725   9.806 -0.0538  0.7883  0.4994
66320SOL    HW2 9275   5.309   7.656   9.763  1.0297 -2.6437  2.3277
66321SOL     OW 9276   4.755  12.222  12.201 -0.0350 -0.4091 -0.0404
66321SOL    HW1 9277   4.753  12.249  12.293  1.1341  2.7667 -0.7947
66321SOL    HW2 9278   4.664  12.230  12.172  0.0192  1.5611  0.1753
66322SOL     OW 9279   5.156   0.715   0.669 -0.2743  0.2181 -0.7284
66322SOL    HW1 9280   5.240   0.700   0.625 -0.4036 -2.1638 -0.3225
66322SOL    HW2 9281   5.145   0.810   0.668  1.4626  0.4763 -2.5469
66323SOL     OW 9282   4.568   5.491   3.917 -0.9091  0.2222 -0.3130
66323SOL    HW1 9283   4.593   5.571   3.963 -1.7854  1.3797 -1.7357
66323SOL    HW2 9284   4.620   5.493   3.836  1.0340 -2.0579  0.7566
66324SOL     OW 9285   3.042   5.004   2.081  0.0411 -0.0616  0.6334
66324SOL    HW1 9286   3.037   5.079   2.022  1.2475 -1.6308 -1.6172
66324SOL    HW2 9287   2.952   4.973   2.090 -0.1209 -0.0940 -0.8682
66325SOL     OW 9288   4.621   2.325  12.907 -0.7173 -0.5523 -0.4315
66325SOL    HW1 9289   4.591   2.398  12.961 -0.0217 -1.3532  1.0930
66325SOL    HW2 9290   4.635   2.364  12.820 -0.7990  1.0216  0.2241
66326SOL     OW 9291   4.596  10.097   6.441 -0.1200  0.3352 -0.2259
66326SOL    HW1 9292   4.657  10.083   6.369  0.3875  0.1450  0.2359
66326SOL    HW2 9293   4.622  10.181   6.478 -0.5419  0.5523 -0.4179
66327SOL     OW 9294   8.945   2.612   7.844 -0.1561  0.3885  0.0739
66327SOL    HW1 9295   8.977   2.536   7.892  2.2523  1.3636  0.1802
66327SOL    HW2 9296   9.019   2.673   7.843 -0.9389  1.4658 -2.6752
66328SOL     OW 9297   0.752   7.491  10.516 -0.1327 -0.1787 -0.5263
66328SOL    HW1 9298   0.719   7.510  10.428  0.0136  0.6119 -0.4206
66328SOL    HW2 9299   0.687   7.432  10.554 -1.0819  0.7942 -0.5696
66329SOL     OW 9300  12.562  10.542   2.664  0.4409 -0.2551 -0.3114
66329SOL    HW1 9301  12.509  10.469   2.631  0.1666 -0.2515  0.1090
66329SOL    HW2 9302  12.613  10.504   2.736  0.4671 -0.0847 -0.2394
66330SOL     OW 9303   4.936   6.792   2.566  0.1810  0.1924 -0.2677
66330SOL    HW1 9304   5.029   6.771   2.557  0.1100 -0.5459  0.5070
66330SOL    HW2 9305   4.932   6.887   2.569  1.2711  0.2458  2.7466
66331SOL     OW 9306   5.898   5.439   8.684 -0.4689 -0.4362  0.6122
66331SOL    HW1 9307   5.875   5.531   8.690 -0.4255 -0.3753 -0.1011
66331SOL    HW2 9308   5.989   5.439   8.653  0.2647 -0.6864  2.5906
66332SOL     OW 9309  12.138   9.036  11.506 -0.4510  0.4359 -0.3247
66332SOL    HW1 9310  12.047   9.048  11.534 -0.6925 -0.9306 -0.4932
66332SOL    HW2 9311  12.135   8.963  11.444  0.9959 -0.8862  1.0836
66333SOL     OW 9312  10.979   6.532  10.077 -0.3912 -0.5619 -0.4787
66333SOL    HW1 9313  10.965   6.585   9.998 -0.1473  0.8133  0.3868
66333SOL    HW2 9314  11.061   6.565  10.114 -2.4418  1.5895  2.4913
66334SOL     OW 9315   0.945   3.428   1.346 -0.1144 -0.5412  0.1318
66334SOL    HW1 9316   0.991   3.435   1.262  0.1216 -2.2206  0.0821
66334SOL    HW2 9317   0.866   3.378   1.327 -1.2035  0.9621  0.5240
66335SOL     OW 9318   9.365   9.790   4.233  0.0566 -0.4558 -0.2752
66335SOL    HW1 9319   9.414   9.843   4.170  2.3630 -0.7319  1.1663
66335SOL    HW2 9320   9.327   9.854   4.293 -0.3110 -0.2796 -0.6955
66336SOL     OW 9321   5.643   9.107   8.140 -0.1497 -0.0866 -0.0303
66336SOL    HW1 9322   5.681   9.133   8.224  1.0160  0.0654 -0.5865
66336SOL    HW2 9323   5.649   9.011   8.139 -2.5335 -0.3359  1.1223
66337SOL     OW 9324   0.100   9.459  12.446  0.3627 -0.3132  0.6195
66337SOL    HW1 9325   0.145   9.515  12.383 -0.4918  1.0497  1.1793
66337SOL    HW2 9326   0.156   9.460  12.523  1.5287 -2.1723 -0.1363
66338SOL     OW 9327   0.516   8.534  11.930 -0.1935  0.5787 -0.7937
66338SOL    HW1 9328   0.576   8.520  12.004 -0.9859  0.5948 -0.1293
66338SOL    HW2 9329   0.552   8.480  11.860  1.4037  1.6988 -0.8893
66339SOL     OW 9330  11.525   5.779  10.555 -0.1724  0.3590 -0.4202
66339SOL    HW1 9331  11.572   5.774  10.638  0.0184  1.1072 -0.4790
66339SOL    HW2 9332  11.440   5.739  10.573 -0.1700  0.6119  0.1648
66340SOL     OW 9333   0.723   3.949   2.651  0.1330 -0.4377  0.8167
66340SOL    HW1 9334   0.794   3.928   2.589  1.7615 -0.0286  2.4513
66340SOL    HW2 9335   0.671   4.016   2.606  1.2659 -0.1629 -0.1297
66341SOL     OW 9336   4.733  10.441   0.366 -0.0375 -0.7799 -0.4289
66341SOL    HW1 9337   4.648  10.417   0.330  0.3273 -0.4657 -1.5512
66341SOL    HW2 9338   4.722  10.531   0.396 -0.4873 -1.2162  0.7328
66342SOL     OW 9339   4.305   7.183   1.808 -0.3656 -0.8302  0.2482
66342SOL    HW1 9340   4.220   7.147   1.783 -0.6874  0.9556 -1.4877
66342SOL    HW2 9341   4.340   7.120   1.871 -3.6035 -0.8903  2.2060
66343SOL     OW 9342   5.913   7.882   5.632 -0.0288 -0.3548  0.3577
66343SOL    HW1 9343   5.912   7.872   5.727 -0.2407  0.5415  0.4611
66343SOL    HW2 9344   5.883   7.798   5.598  0.1863 -0.7304  1.0761
66344SOL     OW 9345   1.530   0.206   7.152  0.1410  0.5674 -0.0104
66344SOL    HW1 9346   1.615   0.248   7.135  0.1108  1.5081  1.8860
66344SOL    HW2 9347   1.544   0.157   7.233 -0.8706 -0.0652 -0.2018
66345SOL     OW 9348   1.831   9.671   0.170  0.1929 -0.6299  0.3013
66345SOL    HW1 9349   1.920   9.694   0.194  0.5442 -0.0925 -1.4001
66345SOL    HW2 9350   1.840   9.606   0.100 -0.6974  0.5478 -0.9523
66346SOL     OW 9351   7.804   3.641   3.799  0.0143  0.3702 -0.1323
66346SOL    HW1 9352   7.712   3.664   3.787  0.0107  0.3770 -0.0943
66346SOL    HW2 9353   7.848   3.679   3.723 -0.0220  0.3211 -0.1779
66347SOL     OW 9354   4.278   0.943   4.888  0.1224 -0.0006 -0.0065
66347SOL    HW1 9355   4.187   0.932   4.918  0.5649  1.8961  2.3829
66347SOL    HW2 9356   4.294   1.037   4.894  1.5964  0.0007 -2.6323
66348SOL     OW 9357   6.101   1.564   7.128  0.1841  0.1641 -0.2091
66348SOL    HW1 9358   6.060   1.646   7.102  1.7178  1.6654  1.7489
66348SOL    HW2 9359   6.190   1.569   7.091  0.9807  0.4089  1.6119
66349SOL     OW 9360   1.796  11.537   6.698  0.0077 -0.2654 -0.5972
66349SOL    HW1 9361   1.876  11.580   6.669  0.1092 -0.4159 -0.5426
66349SOL    HW2 9362   1.807  11.446   6.672 -0.5048 -0.1302 -1.3239
66350SOL     OW 9363   0.524   2.060   6.192 -0.2837 -0.0967 -0.3449
66350SOL    HW1 9364   0.609   2.065   6.149  0.9264  2.5969  1.9824
66350SOL    HW2 9365   0.534   1.990   6.256 -0.4344 -0.9065 -1.1924
66351SOL     OW 9366  12.112   4.904   8.488  0.4574 -0.0316  0.5213
66351SOL    HW1 9367  12.205   4.897   8.467  0.2190  1.1367 -1.0851
66351SOL    HW2 9368  12.072   4.828   8.446  0.6846 -0.6117  1.3323
66352SOL     OW 9369   2.018  12.617   5.958 -0.3497 -0.0257  0.2697
66352SOL    HW1 9370   1.975  12.649   6.038 -3.9409 -1.2733 -0.9981
66352SOL    HW2 9371   2.040  12.526   5.978  0.7016  0.2547  0.4758
66353SOL     OW 9372   9.136   0.335   3.239  1.0386 -0.3713 -0.2288
66353SOL    HW1 9373   9.063   0.340   3.176 -1.2602 -1.3530  2.1490
66353SOL    HW2 9374   9.127   0.249   3.279  1.5661  0.6716  2.3235
66354SOL     OW 9375   0.957   1.693   5.983  0.4336  0.2811  0.1178
66354SOL    HW1 9376   0.906   1.715   5.905  0.1882 -1.6340 -0.3171
66354SOL    HW2 9377   0.930   1.757   6.049 -2.4572 -0.5222 -0.1366
66355SOL     OW 9378   4.380  10.956   2.271  0.4969  0.3036 -0.4619
66355SOL    HW1 9379   4.338  10.980   2.188 -1.5765  2.2148  1.0140
66355SOL    HW2 9380   4.449  11.021   2.284  1.9184 -0.9456 -1.3617
66356SOL     OW 9381   4.623   8.602  11.591 -0.4260 -0.3648  0.1462
66356SOL    HW1 9382   4.587   8.571  11.674 -1.0679  2.8805  1.2205
66356SOL    HW2 9383   4.547   8.621  11.537 -0.0482 -0.6637 -0.5099
66357SOL     OW 9384   9.000  12.485   9.891 -0.0806  0.2599  0.0007
66357SOL    HW1 9385   9.050  12.438   9.957 -0.0712  0.5593  0.2056
66357SOL    HW2 9386   8.975  12.567   9.933 -1.5665 -0.2880  0.2247
66358SOL     OW 9387  11.384   8.544   6.239 -0.1330 -0.1327  0.2073
66358SOL    HW1 9388  11.312   8.559   6.178 -1.6047 -1.3366  1.5456
66358SOL    HW2 9389  11.388   8.624   6.292  1.1836  0.9348 -1.4167
66359SOL     OW 9390   4.904   7.603   1.772  0.4596 -0.1737  0.3358
66359SOL    HW1 9391   4.907   7.656   1.852 -0.7261 -1.1100  1.0410
66359SOL    HW2 9392   4.811   7.589   1.756  0.7040 -0.6456 -0.7823
66360SOL     OW 9393   7.620   8.851   6.142  0.3967 -0.1152  0.3006
66360SOL    HW1 9394   7.714   8.852   6.160  0.4018 -0.5128  0.2984
66360SOL    HW2 9395   7.587   8.773   6.187  0.0263  0.1549  0.5050
66361SOL     OW 9396  10.467   1.582  10.423 -0.2626  0.2552 -0.4286
66361SOL    HW1 9397  10.481   1.651  10.358 -2.1455  0.9232 -0.1895
66361SOL    HW2 9398  10.460   1.501  10.372  2.5076  0.0809 -0.6711
66362SOL     OW 9399   7.392   1.504   2.191  0.0625  0.0373 -0.0803
66362SOL    HW1 9400   7.388   1.543   2.279  1.8175 -0.8900  0.4504
66362SOL    HW2 9401   7.485   1.508   2.168 -0.1727 -1.0659 -1.2847
66363SOL     OW 9402   7.342   9.563   8.636 -0.0979 -0.3564 -0.1914
66363SOL    HW1 9403   7.433   9.592   8.638 -0.1233 -0.1671 -1.1050
66363SOL    HW2 9404   7.293   9.634   8.676  0.1617 -0.5334  0.4662
66364SOL     OW 9405   6.089  11.023   4.563 -0.0201  0.3028  0.1403
66364SOL    HW1 9406   6.081  10.928   4.556 -2.0229  0.5423 -1.7880
66364SOL    HW2 9407   6.124  11.038   4.651  2.1126 -2.2595 -0.1421
66365SOL     OW 9408   5.936   0.618   1.269  0.8022  0.5117  0.5771
66365SOL    HW1 9409   5.994   0.579   1.334  2.8047  0.6194 -1.0592
66365SOL    HW2 9410   5.906   0.700   1.310 -2.4756 -1.8401  3.5507
66366SOL     OW 9411   5.443  11.866   5.678 -0.2126 -0.0202  0.0169
66366SOL    HW1 9412   5.517  11.906   5.634 -1.0861  1.3787 -0.2528
66366SOL    HW2 9413   5.403  11.937   5.728 -0.1555 -1.2068  1.8754
66367SOL     OW 9414   8.759   7.634   8.229  0.3318 -0.2911  0.3678
66367SOL    HW1 9415   8.745   7.596   8.143  0.2571 -0.0403  0.2692
66367SOL    HW2 9416   8.673   7.663   8.258  0.5386  0.6985  0.0187
66368SOL     OW 9417  11.914  12.066   3.465  0.0138  0.4203  0.3870
66368SOL    HW1 9418  11.958  12.110   3.538 -0.0416  0.4620  0.3954
66368SOL    HW2 9419  11.979  12.066   3.395  0.0319  0.4696  0.4039
66369SOL     OW 9420   0.230   1.884   0.540 -0.0923 -0.1286 -0.5557
66369SOL    HW1 9421   0.177   1.824   0.488 -1.8913 -0.1151  1.1274
66369SOL    HW2 9422   0.203   1.971   0.510 -1.7105 -0.1018  0.8364
66370SOL     OW 9423   0.177  11.680   7.378 -0.5957 -0.4411 -0.0929
66370SOL    HW1 9424   0.100  11.735   7.395  0.5792  1.2411  0.0024
66370SOL    HW2 9425   0.163  11.647   7.289 -1.3128  0.0452 -0.1738
66371SOL     OW 9426   0.294   7.465   4.815  0.2581 -0.3277 -0.4965
66371SOL    HW1 9427   0.317   7.398   4.751  0.6836 -1.6486  0.9586
66371SOL    HW2 9428   0.230   7.423   4.872  0.4812  0.5298  0.4165
66372SOL     OW 9429  11.507   2.012   3.919  0.0229 -0.1481  0.1377
66372SOL    HW1 9430  11.584   1.956   3.912  0.2310  0.1023  0.3933
66372SOL    HW2 9431  11.436   1.961   3.879  0.7697  0.4884 -2.1643
66373SOL     OW 9432   9.057   3.641   7.040  0.0296 -0.2885 -0.1720
66373SOL    HW1 9433   9.096   3.586   7.108 -0.7093  0.7762  1.1778
66373SOL    HW2 9434   8.975   3.597   7.018  0.1465 -0.5029 -0.1806
66374SOL     OW 9435   5.253   9.027   8.822  0.2901  0.3868 -0.1217
66374SOL    HW1 9436   5.201   9.090   8.871 -1.3656  1.2322 -2.7363
66374SOL    HW2 9437   5.235   8.943   8.863 -1.3048  1.0014  0.5059
66375SOL     OW 9438  12.865   0.174  10.247 -0.0706 -0.4423  0.1147
66375SOL    HW1 9439  12.925   0.107  10.278  1.4751  0.2203 -1.3091
66375SOL    HW2 9440  12.799   0.127  10.196  1.2326 -0.8805 -1.2242
66376SOL     OW 9441   1.688  12.932   9.310  0.5055  0.0291 -0.2256
66376SOL    HW1 9442   1.763  12.909   9.254  1.5823  0.0864  1.1251
66376SOL    HW2 9443   1.612  12.922   9.254  1.2480 -2.9497 -0.8542
66377SOL     OW 9444  11.557  12.460   2.987 -0.0937  0.2728 -0.0971
66377SOL    HW1 9445  11.563  12.374   3.029 -3.7008 -1.3558 -2.4290
66377SOL    HW2 9446  11.607  12.451   2.906 -3.6449 -1.3336 -2.3945
66378SOL     OW 9447   6.445   7.018   2.954  0.3205 -0.3810 -0.1858
66378SOL    HW1 9448   6.539   7.029   2.942  0.5470 -0.3894  1.4181
66378SOL    HW2 9449   6.407   7.103   2.929  0.5251 -0.8828 -2.4981
66379SOL     OW 9450   9.089   5.877   5.511 -0.2420 -0.7298  0.4582
66379SOL    HW1 9451   9.068   5.961   5.472 -0.3315 -0.7974  0.3625
66379SOL    HW2 9452   9.008   5.826   5.505 -0.2326 -0.7688  0.6550
66380SOL     OW 9453   8.003  12.304   9.645  0.0568 -0.1613 -0.1373
66380SOL    HW1 9454   7.994  12.399   9.639  1.0086  0.0626  1.3199
66380SOL    HW2 9455   8.037  12.277   9.560 -0.1821  0.8095 -0.5511
66381SOL     OW 9456   6.266  12.075  10.243  0.1776  0.4144  0.1491
66381SOL    HW1 9457   6.268  11.987  10.205 -0.2272  0.2852  0.4169
66381SOL    HW2 9458   6.357  12.097  10.258  0.2232 -0.5165  1.3390
66382SOL     OW 9459   0.621  10.105   2.751  0.1143  0.1498 -0.4099
66382SOL    HW1 9460   0.646  10.084   2.661  2.6761  0.4531  0.1430
66382SOL    HW2 9461   0.602  10.199   2.749  0.5983  0.2484 -0.5653
66383SOL     OW 9462   4.748  12.131  10.492 -0.0714 -0.0338  0.5805
66383SOL    HW1 9463   4.723  12.115  10.401  1.5710 -1.3133  0.3164
66383SOL    HW2 9464   4.679  12.188  10.526 -1.4070 -0.5919 -1.0811
66384SOL     OW 9465  11.822   4.148   6.767  0.2216  0.1085  0.4833
66384SOL    HW1 9466  11.817   4.230   6.717 -0.5962 -0.1024  0.2036
66384SOL    HW2 9467  11.742   4.101   6.744  1.7523 -1.8140 -1.1548
66385SOL     OW 9468   8.976   6.824   4.960 -0.4058 -0.1768 -0.2539
66385SOL    HW1 9469   9.054   6.823   5.015 -2.0907 -0.5467  2.3159
66385SOL    HW2 9470   9.003   6.783   4.878  2.2227  0.3003  0.3092
66386SOL     OW 9471   4.580  10.645   9.260 -0.1524 -0.2080 -1.0753
66386SOL    HW1 9472   4.597  10.720   9.203  0.3932  2.0600  1.8409
66386SOL    HW2 9473   4.666  10.618   9.291 -0.5521  0.3466  0.6518
66387SOL     OW 9474   5.965   4.751   2.531 -0.2678 -0.2875 -0.4395
66387SOL    HW1 9475   5.983   4.844   2.517  0.5966 -0.0664  1.7414
66387SOL    HW2 9476   6.049   4.708   2.517 -0.8247 -0.8691 -2.1652
66388SOL     OW 9477  10.138  11.127   7.397  0.5499  0.2466  0.0388
66388SOL    HW1 9478  10.228  11.156   7.415  1.0261 -0.9336 -0.3455
66388SOL    HW2 9479  10.148  11.040   7.358 -0.8011 -0.2399  0.7047
66389SOL     OW 9480   5.850   9.128   1.802  0.2971 -0.4440  0.2895
66389SOL    HW1 9481   5.877   9.133   1.710  1.4032  0.0697  0.6161
66389SOL    HW2 9482   5.890   9.205   1.842  0.6670 -1.1904  1.4032
66390SOL     OW 9483   4.768   0.759   6.137 -0.3276 -0.2469 -0.7242
66390SOL    HW1 9484   4.830   0.687   6.126 -0.5711 -0.3668 -1.3737
66390SOL    HW2 9485   4.729   0.771   6.050 -0.7599  0.2415 -0.4726
66391SOL     OW 9486   8.391   9.511   8.564  0.3938  0.1942 -0.1545
66391SOL    HW1 9487   8.347   9.540   8.644  0.5773  1.6415 -0.5610
66391SOL    HW2 9488   8.411   9.591   8.517  0.4735 -0.6285 -1.5747
66392SOL     OW 9489   5.810  11.737   5.670 -0.0430  0.4532 -0.4568
66392SOL    HW1 9490   5.779  11.763   5.584 -1.0983 -2.2598 -0.9739
66392SOL    HW2 9491   5.870  11.664   5.654  1.6383  1.4076  1.0040
66393SOL     OW 9492  11.650   8.252  12.874  0.0701 -0.0030  0.1972
66393SOL    HW1 9493  11.578   8.278  12.817  0.3392  1.2190  0.3895
66393SOL    HW2 9494  11.608   8.217  12.952 -0.3454  1.4147  0.6339
66394SOL     OW 9495   0.698   7.298  12.717  0.7139 -0.2403 -0.2675
66394SOL    HW1 9496   0.732   7.240  12.649 -0.9110 -1.2778 -0.2382
66394SOL    HW2 9497   0.608   7.316  12.692 -0.2059 -1.3131  1.9955
66395SOL     OW 9498   4.296  12.901   1.000 -0.3174 -0.2542  0.3701
66395SOL    HW1 9499   4.361  12.854   0.947 -0.7858  0.3681 -0.8104
66395SOL    HW2 9500   4.222  12.913   0.941 -1.6382 -1.1904  1.7871
66396SOL     OW 9501   1.923   9.632  12.575  0.0999 -0.5156  0.6213
66396SOL    HW1 9502   1.956   9.615  12.663 -2.1325  0.3410  1.6963
66396SOL    HW2 9503   1.974   9.706  12.544 -0.0360  0.0938  1.7899
66397SOL     OW 9504  12.804  10.979   1.218 -0.4532  0.3431  0.4075
66397SOL    HW1 9505  12.875  11.039   1.193  1.1582 -1.2320  0.9852
66397SOL    HW2 9506  12.786  10.929   1.139 -2.1508  1.8368 -0.2209
66398SOL     OW 9507   6.154  12.738   6.402 -0.0658  0.3311  0.2710
66398SOL    HW1 9508   6.100  12.694   6.468  1.9257 -0.3656  1.5401
66398SOL    HW2 9509   6.217  12.671   6.375 -0.4974  0.7789 -2.0012
66399SOL     OW 9510   2.363   8.234   4.582  0.5619 -0.0883 -0.3360
66399SOL    HW1 9511   2.414   8.288   4.522  0.2965 -1.0916 -1.5017
66399SOL    HW2 9512   2.417   8.157   4.597 -0.2354 -0.7860 -0.9444
66400SOL     OW 9513   7.345   0.607  11.847 -0.3459 -0.1573  0.0099
66400SOL    HW1 9514   7.408   0.609  11.776 -0.2762  1.4867  0.0807
66400SOL    HW2 9515   7.296   0.526  11.833  0.8824 -0.8003 -0.8084
66401SOL     OW 9516   3.397   6.711   3.388 -0.2010  0.3746 -0.0226
66401SOL    HW1 9517   3.322   6.761   3.421 -0.1796 -0.0174  0.6550
66401SOL    HW2 9518   3.378   6.621   3.414  0.7426  0.3448  0.6298
66402SOL     OW 9519   4.799   6.311   2.626  0.4273  0.2904  0.3273
66402SOL    HW1 9520   4.723   6.285   2.679 -0.4776  0.1471 -0.9992
66402SOL    HW2 9521   4.816   6.402   2.652  0.4028  0.0278  1.3062
66403SOL     OW 9522  11.199   0.469  11.875 -0.2515 -0.1569 -0.0167
66403SOL    HW1 9523  11.105   0.488  11.882  0.0872  1.1499  1.3766
66403SOL    HW2 9524  11.225   0.441  11.963  0.6151 -0.8848 -0.4810
66404SOL     OW 9525   6.471  10.642   3.190 -0.3281 -0.2656  0.0672
66404SOL    HW1 9526   6.504  10.581   3.124 -1.6093 -0.3602 -0.4956
66404SOL    HW2 9527   6.394  10.599   3.227  0.1175 -0.0282  1.3414
66405SOL     OW 9528  12.771   5.309   9.230 -0.2360  0.0502 -0.0479
66405SOL    HW1 9529  12.740   5.353   9.151  0.3489 -0.4721 -0.5808
66405SOL    HW2 9530  12.741   5.365   9.302  1.6419  2.1226 -0.7318
66406SOL     OW 9531   0.322   3.194   2.683 -0.2230 -0.2534 -0.9029
66406SOL    HW1 9532   0.227   3.200   2.685 -0.2913 -0.1364 -2.6885
66406SOL    HW2 9533   0.352   3.269   2.735 -1.0746 -0.9946  0.7090
66407SOL     OW 9534   4.675   9.785  10.380  0.1103  0.1273 -0.4007
66407SOL    HW1 9535   4.716   9.723  10.320  1.1627  0.6092 -0.2023
66407SOL    HW2 9536   4.737   9.858  10.386 -0.8804  0.9930 -0.2639
66408SOL     OW 9537   7.174  10.370   9.447 -0.0380  0.3238  0.3340
66408SOL    HW1 9538   7.252  10.414   9.414  0.2650 -0.6096 -0.2372
66408SOL    HW2 9539   7.186  10.368   9.542  1.8470 -1.9034  0.1475
66409SOL     OW 9540  11.195   5.042   8.418 -0.0968  0.0836  0.1775
66409SOL    HW1 9541  11.287   5.030   8.395 -0.2350 -1.2604  0.2467
66409SOL    HW2 9542  11.165   5.112   8.360  1.6362  2.5757  2.0776
66410SOL     OW 9543   6.108   7.928  10.922 -0.4113 -0.3576 -0.0486
66410SOL    HW1 9544   6.039   7.904  10.983  0.0715  0.1990  0.7325
66410SOL    HW2 9545   6.121   7.850  10.868 -1.5708 -0.4967 -0.1450
66411SOL     OW 9546   6.818   4.767   8.940  0.2281  0.0447  0.2023
66411SOL    HW1 9547   6.831   4.858   8.967  2.1288 -0.5173  1.3419
66411SOL    HW2 9548   6.752   4.734   9.001 -0.2629  0.5556 -0.0368
66412SOL     OW 9549   0.182   4.380  10.922  0.3070 -0.3738 -0.2320
66412SOL    HW1 9550   0.145   4.467  10.935  0.0928 -0.5441  0.2919
66412SOL    HW2 9551   0.236   4.389  10.843  1.0774  0.4892  0.3631
66413SOL     OW 9552  12.397   8.019   6.625 -0.4980 -0.5608 -0.1510
66413SOL    HW1 9553  12.339   7.952   6.589 -1.9833  1.1055 -1.0153
66413SOL    HW2 9554  12.456   8.041   6.554 -0.0535 -0.8738  0.1123
66414SOL     OW 9555   7.984   7.814   9.971 -0.2633 -0.2078 -0.0762
66414SOL    HW1 9556   7.996   7.772   9.886  0.4159  1.4334 -0.8325
66414SOL    HW2 9557   8.067   7.800  10.016  0.4394  1.3111 -0.8187
66415SOL     OW 9558   4.958   9.757   2.829 -0.4474  0.3878 -0.3757
66415SOL    HW1 9559   4.972   9.685   2.890 -1.4621  0.0705 -0.4976
66415SOL    HW2 9560   5.015   9.827   2.861  1.3220 -0.7759 -0.8418
66416SOL     OW 9561   0.867  10.192   0.582 -0.3657  0.3156  0.4293
66416SOL    HW1 9562   0.855  10.127   0.513  1.3124 -1.2084  1.4710
66416SOL    HW2 9563   0.840  10.147   0.663 -0.0825  1.2446  1.0570
66417SOL     OW 9564  10.449   6.485   3.541 -0.2767  0.3297  0.3126
66417SOL    HW1 9565  10.463   6.513   3.450 -2.7570 -0.5363 -0.4358
66417SOL    HW2 9566  10.481   6.395   3.543 -0.4017  0.2812  0.2135
66418SOL     OW 9567   1.122   9.214   4.134 -0.4038  0.0160 -0.2976
66418SOL    HW1 9568   1.160   9.184   4.051  2.2942  1.6117  0.2584
66418SOL    HW2 9569   1.093   9.303   4.115  1.2251  0.7983  0.6719
66419SOL     OW 9570   6.548   8.858   6.858  0.0648 -0.1217 -0.6757
66419SOL    HW1 9571   6.629   8.903   6.834 -0.2124  0.0671 -1.2708
66419SOL    HW2 9572   6.481   8.896   6.801 -0.3991 -0.4393 -0.3499
66420SOL     OW 9573  10.074   3.034   5.026 -0.5458 -0.0041 -0.3539
66420SOL    HW1 9574  10.093   3.128   5.025  0.8807 -0.2739 -0.4689
66420SOL    HW2 9575  10.137   2.996   4.965  0.9427 -1.3791  1.8972
66421SOL     OW 9576   6.793   2.727   5.922 -0.3096 -0.3107  1.1035
66421SOL    HW1 9577   6.828   2.658   5.978  1.3677 -0.3512  0.0734
66421SOL    HW2 9578   6.822   2.703   5.834 -0.4774  1.2286  0.5989
66422SOL     OW 9579   6.315   1.705   7.543 -0.0080  0.4827  0.0110
66422SOL    HW1 9580   6.397   1.705   7.494  1.2309  1.8872  1.9354
66422SOL    HW2 9581   6.256   1.761   7.492  0.1917 -0.5588 -1.4041
66423SOL     OW 9582   7.576   2.177   5.648  0.1783  0.4596  0.0198
66423SOL    HW1 9583   7.542   2.115   5.711  0.5501  0.3792  0.1419
66423SOL    HW2 9584   7.529   2.258   5.666 -0.8046  0.0360 -0.5893
66424SOL     OW 9585  12.405   9.644  12.002 -0.0677  0.3142 -0.1191
66424SOL    HW1 9586  12.356   9.697  11.939 -2.1631 -0.0342  1.1231
66424SOL    HW2 9587  12.376   9.675  12.087  2.6812  0.7557  0.7546
66425SOL     OW 9588   0.853   4.551   1.560  0.1848  0.2696  0.2321
66425SOL    HW1 9589   0.777   4.574   1.506 -0.3800  0.8273  1.2248
66425SOL    HW2 9590   0.892   4.476   1.516  0.6774  1.6313 -1.8129
66426SOL     OW 9591  11.603  10.416   0.460  0.6921 -0.0949  0.0035
66426SOL    HW1 9592  11.643  10.496   0.492 -0.3602  0.4435  0.0145
66426SOL    HW2 9593  11.625  10.413   0.367 -0.5272  1.0171 -0.3459
66427SOL     OW 9594   4.258   0.783   9.477 -0.1429  0.1608 -0.1586
66427SOL    HW1 9595   4.268   0.800   9.383  1.1668  0.5315  0.0297
66427SOL    HW2 9596   4.275   0.867   9.518  2.7523 -0.6601  0.5759
66428SOL     OW 9597   5.641   9.766  12.556 -0.0828 -0.2872  0.4251
66428SOL    HW1 9598   5.638   9.719  12.473  1.2047 -1.0767  0.7971
66428SOL    HW2 9599   5.573   9.724  12.609 -0.3911 -0.2910  0.0323
66429SOL     OW 9600  11.024  10.045  11.436 -0.1544 -0.2920 -0.1835
66429SOL    HW1 9601  11.068   9.963  11.459  1.4264  0.6204  0.1929
66429SOL    HW2 9602  11.054  10.064  11.347 -0.4713 -0.0854 -0.2475
66430SOL     OW 9603   4.502  12.088   6.815  0.0517 -0.5779 -0.4822
66430SOL    HW1 9604   4.441  12.022   6.780  0.0953 -1.2793  0.7141
66430SOL    HW2 9605   4.546  12.122   6.737 -0.5407 -1.3942 -1.2081
66431SOL     OW 9606   1.499   2.766   4.487 -0.2934 -0.5421 -0.4251
66431SOL    HW1 9607   1.570   2.706   4.506 -1.3320 -1.4955  0.6653
66431SOL    HW2 9608   1.464   2.737   4.403  0.6901  0.0475 -1.0565
66432SOL     OW 9609   4.207   2.356   4.677 -0.2414 -0.0891  0.7970
66432SOL    HW1 9610   4.115   2.351   4.654 -0.0091  1.7119 -0.6806
66432SOL    HW2 9611   4.224   2.273   4.724 -2.3329 -0.8832  0.2706
66433SOL     OW 9612   6.330   7.747   8.538  0.2910 -0.5180 -0.8355
66433SOL    HW1 9613   6.420   7.727   8.561  0.2622 -1.9615 -1.8254
66433SOL    HW2 9614   6.293   7.787   8.617  1.4364 -1.0800  0.0138
66434SOL     OW 9615   4.545   7.070   6.989  0.3779  0.5982 -0.2570
66434SOL    HW1 9616   4.594   7.151   6.997  2.0466 -0.2012 -1.6709
66434SOL    HW2 9617   4.575   7.032   6.906 -2.6394  0.0414 -1.2378
66435SOL     OW 9618   4.476  12.248  10.531  0.0900 -0.2284 -0.1087
66435SOL    HW1 9619   4.436  12.286  10.610  2.5571  0.3878  0.9671
66435SOL    HW2 9620   4.445  12.304  10.460  0.6281  1.5217  0.9495
66436SOL     OW 9621  11.601   8.433   1.361 -0.1346  0.6169 -0.0410
66436SOL    HW1 9622  11.545   8.465   1.432  0.3680 -0.6537  0.9701
66436SOL    HW2 9623  11.634   8.349   1.393  0.9853  0.5345 -1.3373
66437SOL     OW 9624  12.080   2.738   4.959 -0.1093  0.3487  0.0324
66437SOL    HW1 9625  12.170   2.705   4.967 -0.6933 -1.3714 -0.0994
66437SOL    HW2 9626  12.091   2.827   4.925  1.5272 -0.2402 -1.1554
66438SOL     OW 9627   1.614   3.833   5.846 -0.0607  0.0798 -0.3061
66438SOL    HW1 9628   1.592   3.925   5.860 -0.1461  0.4733 -2.5340
66438SOL    HW2 9629   1.588   3.788   5.926  2.0330  2.2977  1.7378
66439SOL     OW 9630   4.645  12.284   0.016 -0.6852 -0.4388 -0.0074
66439SOL    HW1 9631   4.577  12.349   0.005 -0.8828 -0.8749 -1.7110
66439SOL    HW2 9632   4.692  12.310   0.095 -2.0246  0.5789  0.4776
66440SOL     OW 9633   6.839   1.604   9.621  0.0415  0.0725 -0.2319
66440SOL    HW1 9634   6.815   1.552   9.545 -0.6001  1.5062 -1.0598
66440SOL    HW2 9635   6.773   1.673   9.625  1.4443  1.4562  0.1722
66441SOL     OW 9636   2.944   5.799   6.647 -0.7355 -0.5121 -0.4014
66441SOL    HW1 9637   2.946   5.768   6.738  0.4793  1.3814  0.2753
66441SOL    HW2 9638   2.853   5.823   6.631 -1.0840 -1.4690  0.0676
66442SOL     OW 9639   7.988   1.486   9.199  0.3439 -0.7017  0.1566
66442SOL    HW1 9640   8.045   1.467   9.125 -0.3640 -1.3671 -0.2385
66442SOL    HW2 9641   7.942   1.566   9.175 -0.3142 -1.2360 -0.3903
66443SOL     OW 9642   3.972   0.217   6.737  0.3465 -0.0688 -0.3692
66443SOL    HW1 9643   4.020   0.184   6.661  0.9797  0.0312 -0.0115
66443SOL    HW2 9644   4.002   0.163   6.810  0.5448  0.5445  0.0103
66444SOL     OW 9645   9.050   7.846   7.100 -0.3683  0.1064  0.1526
66444SOL    HW1 9646   9.005   7.931   7.112 -1.4585 -0.4064 -0.1596
66444SOL    HW2 9647   9.016   7.813   7.017  1.1308 -0.0033 -0.4403
66445SOL     OW 9648   7.216  11.749  12.284 -1.0985 -0.3000 -0.0079
66445SOL    HW1 9649   7.182  11.823  12.335 -1.0817  1.3593 -2.2345
66445SOL    HW2 9650   7.261  11.790  12.210 -0.1730 -2.5648 -0.7807
66446SOL     OW 9651   8.005   3.609   4.461  0.6382  0.2906 -0.6244
66446SOL    HW1 9652   7.918   3.599   4.421  0.6229  0.9107 -0.7599
66446SOL    HW2 9653   8.043   3.521   4.458  0.0473  0.0293 -0.6391
66447SOL     OW 9654   0.069   4.013   8.955  0.5118 -0.1006  0.1703
66447SOL    HW1 9655   0.034   4.095   8.922  1.6737  0.0823 -0.6503
66447SOL    HW2 9656   0.106   3.969   8.878  1.0937 -0.7821  0.8140
66448SOL     OW 9657  12.080   8.221  12.353 -0.2083  0.3210 -0.2868
66448SOL    HW1 9658  12.037   8.303  12.378 -2.1394 -0.4387 -0.9246
66448SOL    HW2 9659  12.102   8.233  12.261  1.3394  0.8108  0.0975
66449SOL     OW 9660   2.285   3.413   4.718 -0.1671 -0.4375 -0.2752
66449SOL    HW1 9661   2.361   3.457   4.757 -0.0862 -1.5719  0.9188
66449SOL    HW2 9662   2.309   3.320   4.717 -1.1589 -0.7050 -0.8025
66450SOL     OW 9663  12.747   4.940  11.496 -0.0651 -0.5174 -0.8500
66450SOL    HW1 9664  12.780   4.856  11.462 -1.2794 -1.1974 -0.4003
66450SOL    HW2 9665  12.822   4.976  11.545  0.0330 -2.0950  0.2771
66451SOL     OW 9666   7.123  12.684   5.574  0.3284  0.3502  0.4330
66451SOL    HW1 9667   7.161  12.628   5.507  0.6074  1.2449 -0.1816
66451SOL    HW2 9668   7.061  12.628   5.620  0.8957 -0.5641  0.1067
66452SOL     OW 9669   3.474   4.905   4.847  0.2520  0.0530 -0.1834
66452SOL    HW1 9670   3.487   4.833   4.784 -0.6009 -0.9879  0.7988
66452SOL    HW2 9671   3.394   4.882   4.893 -0.1437  1.7697  0.0128
66453SOL     OW 9672  11.574  11.918  11.085 -0.1870 -0.4152 -0.0734
66453SOL    HW1 9673  11.493  11.872  11.105  0.4869 -1.7814 -0.3854
66453SOL    HW2 9674  11.631  11.900  11.160 -1.0999  3.0442  1.6773
66454SOL     OW 9675   3.630  12.041   4.704  0.4764 -0.4700 -0.0372
66454SOL    HW1 9676   3.642  11.946   4.700 -2.6693 -0.9268 -1.6793
66454SOL    HW2 9677   3.662  12.073   4.619 -0.7538 -0.4370 -0.5044
66455SOL     OW 9678   9.386   1.738  12.515 -0.0029  0.0014 -0.1291
66455SOL    HW1 9679   9.384   1.833  12.530  1.5398 -0.0474  0.6031
66455SOL    HW2 9680   9.346   1.700  12.594 -1.0509  0.0283 -0.6240
66456SOL     OW 9681   3.737   8.029   2.761 -0.0489 -0.0008 -0.1110
66456SOL    HW1 9682   3.717   8.114   2.722  0.1749 -0.8087 -2.1278
66456SOL    HW2 9683   3.780   8.050   2.844 -2.7693  1.8058  0.9988
66457SOL     OW 9684   9.124   6.316   1.367 -0.3031 -0.2364  0.4394
66457SOL    HW1 9685   9.187   6.340   1.299 -0.2249  0.6054  0.7978
66457SOL    HW2 9686   9.153   6.229   1.396  2.6299  1.3112  2.7207
66458SOL     OW 9687  10.078   2.333   4.389  0.1299  0.3568 -0.3162
66458SOL    HW1 9688  10.112   2.244   4.388 -0.9441 -0.0787 -1.3219
66458SOL    HW2 9689  10.092   2.365   4.299 -2.1669  0.0808 -0.8536
66459SOL     OW 9690   1.526   3.706   6.420 -0.3814  0.4422 -0.5493
66459SOL    HW1 9691   1.475   3.626   6.403 -0.3429  0.2535  0.2086
66459SOL    HW2 9692   1.491   3.740   6.502  1.2836 -0.1759  0.4666
66460SOL     OW 9693   6.755  12.311   6.279 -0.1607  0.1522 -0.3745
66460SOL    HW1 9694   6.815  12.238   6.289 -0.3686  0.0542  0.2073
66460SOL    HW2 9695   6.729  12.333   6.369  0.2546  1.2419 -0.5128
66461SOL     OW 9696   9.443  12.462   8.541 -0.3140 -0.0324  0.0084
66461SOL    HW1 9697   9.386  12.485   8.468 -0.6969 -2.1202 -0.4233
66461SOL    HW2 9698   9.532  12.476   8.508 -0.5052 -0.2146 -0.5888
66462SOL     OW 9699   2.701  11.587   8.783  0.5935  0.2163 -0.1868
66462SOL    HW1 9700   2.665  11.637   8.709  2.2503  2.2640  0.2864
66462SOL    HW2 9701   2.782  11.632   8.804  0.5132 -0.7415  2.4618
66463SOL     OW 9702   3.202   2.284   7.392  0.2581  0.1320  0.0988
66463SOL    HW1 9703   3.281   2.305   7.442 -0.1454 -0.0045  0.8022
66463SOL    HW2 9704   3.181   2.194   7.417 -0.8135  0.5794  0.8610
66464SOL     OW 9705   7.490   7.857   2.787 -0.3106 -0.2651 -0.2958
66464SOL    HW1 9706   7.577   7.823   2.809  0.6497  1.6501 -0.8362
66464SOL    HW2 9707   7.453   7.884   2.871  1.0783  1.9936 -0.3149
66465SOL     OW 9708   7.384  10.240   3.318 -0.1541 -0.2787 -0.0777
66465SOL    HW1 9709   7.437  10.160   3.313 -0.7557 -0.6944 -0.0431
66465SOL    HW2 9710   7.336  10.242   3.235  0.7220  0.6809 -0.5723
66466SOL     OW 9711   3.251   2.237   3.843  0.1503 -0.0498 -0.0342
66466SOL    HW1 9712   3.344   2.256   3.827  0.2671 -0.4802  0.0955
66466SOL    HW2 9713   3.204   2.309   3.802  0.4980 -0.3776 -1.0352
66467SOL     OW 9714  12.924   4.465   8.502 -0.3658  0.1665 -0.2063
66467SOL    HW1 9715  12.878   4.382   8.517  0.0390 -0.1250 -0.5158
66467SOL    HW2 9716  13.016   4.445   8.523 -0.0377  0.1551 -1.5229
66468SOL     OW 9717   2.850   0.589  11.814  0.0110 -0.0431 -0.4320
66468SOL    HW1 9718   2.798   0.540  11.878 -0.2335  1.9024  0.9221
66468SOL    HW2 9719   2.813   0.565  11.730 -1.5007 -0.5356  0.3363
66469SOL     OW 9720   6.681   6.243   8.522  0.2072  0.2776  0.1080
66469SOL    HW1 9721   6.760   6.192   8.509 -0.7844 -1.0807 -0.8111
66469SOL    HW2 9722   6.698   6.293   8.602  0.8968 -2.1338  1.5513
66470SOL     OW 9723  12.127   4.241   6.317  0.0741  0.2959 -0.0634
66470SOL    HW1 9724  12.159   4.220   6.405  0.4949 -0.7615 -0.4426
66470SOL    HW2 9725  12.153   4.165   6.264  0.4980  1.2560 -1.2663
66471SOL     OW 9726   6.618   8.744   2.639 -0.0200  0.5838  0.1465
66471SOL    HW1 9727   6.625   8.742   2.544  0.4737 -2.8800  0.1423
66471SOL    HW2 9728   6.655   8.661   2.668 -0.4557  1.3750  3.3757
66472SOL     OW 9729   8.497   9.191   6.018 -0.2069 -0.3120  0.1859
66472SOL    HW1 9730   8.482   9.258   5.951 -0.5745  0.6247  1.1741
66472SOL    HW2 9731   8.421   9.198   6.076  0.5859 -0.4040  1.2686
66473SOL     OW 9732   0.310   5.825   1.621 -0.1883 -0.2431  0.1004
66473SOL    HW1 9733   0.247   5.796   1.556  0.1614 -2.3812  0.6497
66473SOL    HW2 9734   0.257   5.857   1.694 -0.5763  1.3082 -0.7992
66474SOL     OW 9735   9.998   3.925   8.266 -0.2403 -0.1038 -0.1463
66474SOL    HW1 9736   9.936   3.876   8.320 -0.1082  0.1855  0.2766
66474SOL    HW2 9737  10.038   3.987   8.327  2.1579 -1.8266  0.1867
66475SOL     OW 9738   5.333  10.968   2.054 -0.0083 -0.3641  0.0683
66475SOL    HW1 9739   5.275  11.044   2.058  0.1692  0.0427 -2.6873
66475SOL    HW2 9740   5.414  10.998   2.095  0.5415  1.5535 -2.1290
66476SOL     OW 9741   6.695   8.844  10.636 -0.5976  0.2250  0.0527
66476SOL    HW1 9742   6.721   8.931  10.607 -0.4087  0.6077  1.3092
66476SOL    HW2 9743   6.713   8.787  10.561  1.6960  0.8413  0.0707
66477SOL     OW 9744  12.445   3.693   1.628 -0.0033  0.4539  0.2208
66477SOL    HW1 9745  12.526   3.658   1.666 -0.1497  1.3451  1.4162
66477SOL    HW2 9746  12.408   3.748   1.698 -0.3325  2.0826 -1.1812
66478SOL     OW 9747   0.332   5.011  11.047  0.3646 -0.5538  0.2347
66478SOL    HW1 9748   0.286   5.081  11.001  0.0766 -0.0643  1.2517
66478SOL    HW2 9749   0.264   4.967  11.099  0.5019 -1.7225 -0.5308
66479SOL     OW 9750   8.024   8.499   3.774 -0.1961 -0.8564  0.4109
66479SOL    HW1 9751   8.029   8.581   3.824  0.5754 -1.2674  1.0304
66479SOL    HW2 9752   8.077   8.516   3.696 -1.4090 -0.2128 -0.3102
66480SOL     OW 9753   7.471   7.438   3.047  0.2710 -0.0575  0.9698
66480SOL    HW1 9754   7.500   7.445   2.956 -1.6503 -3.0078 -0.0050
66480SOL    HW2 9755   7.402   7.505   3.055  0.2405  0.0188  0.1625
66481SOL     OW 9756   5.414   7.622   6.900  0.1030  0.2630 -0.3343
66481SOL    HW1 9757   5.454   7.685   6.960 -0.7152  0.8074 -0.3422
66481SOL    HW2 9758   5.379   7.553   6.957 -0.4731  0.6664 -0.1799
66482SOL     OW 9759   0.010   8.524   0.466  0.0351 -0.4535 -0.1526
66482SOL    HW1 9760   0.041   8.553   0.380  1.9440 -1.9094 -0.0040
66482SOL    HW2 9761   0.050   8.585   0.527  1.6103 -1.5467 -0.0603
66483SOL     OW 9762  12.767   1.110   9.576  0.8937  0.0492  0.3257
66483SOL    HW1 9763  12.767   1.205   9.576  0.5953  0.0504  0.7178
66483SOL    HW2 9764  12.792   1.086   9.487 -0.0972  0.4966 -0.0913
66484SOL     OW 9765   1.616   9.940  11.296  0.5964 -0.3740  0.2798
66484SOL    HW1 9766   1.621   9.964  11.203 -1.7036 -1.0102 -0.0803
66484SOL    HW2 9767   1.702   9.904  11.316  0.6520 -1.8476 -2.1426
66485SOL     OW 9768   5.018  11.143   4.438 -0.4011 -0.2008  0.0978
66485SOL    HW1 9769   5.069  11.206   4.386 -0.1818 -0.7020 -0.3065
66485SOL    HW2 9770   4.958  11.197   4.489  1.8648  0.5951  2.1345
66486SOL     OW 9771   5.207   2.299  10.930  0.6581 -0.1954 -0.1754
66486SOL    HW1 9772   5.256   2.237  10.983  0.2829 -2.0950 -1.9329
66486SOL    HW2 9773   5.141   2.335  10.989  1.6133 -0.5785  1.1664
66487SOL     OW 9774   5.883   8.490   3.862  0.5756 -0.6895 -0.3483
66487SOL    HW1 9775   5.881   8.470   3.768  0.9130 -1.3594 -0.2138
66487SOL    HW2 9776   5.791   8.491   3.888  0.5437 -1.8808 -0.3949
66488SOL     OW 9777   9.721   1.208   8.018  0.1555  0.1802 -0.4053
66488SOL    HW1 9778   9.732   1.176   7.929  1.5795 -0.2429 -0.1015
66488SOL    HW2 9779   9.798   1.264   8.033 -0.4808  0.9028  0.2859
66489SOL     OW 9780   6.394  12.125   0.720 -0.3993 -0.6125 -0.1989
66489SOL    HW1 9781   6.426  12.037   0.701 -1.9939 -1.2527 -0.0520
66489SOL    HW2 9782   6.325  12.140   0.656  0.3109  0.8336 -0.6724
66490SOL     OW 9783   5.703   1.282   4.721  0.3575  0.5832 -0.2972
66490SOL    HW1 9784   5.669   1.231   4.648  1.4911 -0.7918  0.1100
66490SOL    HW2 9785   5.766   1.342   4.681 -1.9762  2.7703 -0.9779
66491SOL     OW 9786   2.095   8.986   8.068 -0.7092  0.2822 -0.6460
66491SOL    HW1 9787   2.011   8.941   8.072 -0.7800  0.5267  1.6816
66491SOL    HW2 9788   2.160   8.916   8.071 -0.7332  0.0305 -3.3002
66492SOL     OW 9789   1.056   1.275   5.959  0.3702  0.0351  0.2061
66492SOL    HW1 9790   0.962   1.266   5.941  0.1685  0.1863  1.1581
66492SOL    HW2 9791   1.092   1.314   5.879  0.5420 -4.7209 -2.4577
66493SOL     OW 9792   2.834  10.513   6.435  0.1549  0.3212  0.1020
66493SOL    HW1 9793   2.928  10.502   6.422 -0.0823 -1.9476 -0.1344
66493SOL    HW2 9794   2.818  10.484   6.525 -0.1738  1.9030  0.5782
66494SOL     OW 9795   1.120   8.444   2.452  0.1875 -0.2803 -0.1135
66494SOL    HW1 9796   1.027   8.446   2.432  0.3414  0.4625 -0.7648
66494SOL    HW2 9797   1.164   8.465   2.370  0.9419 -0.8030  0.1392
66495SOL     OW 9798   0.175   1.882   4.131  0.1463  0.1941 -0.2227
66495SOL    HW1 9799   0.208   1.939   4.061  0.3377 -0.1411 -0.4115
66495SOL    HW2 9800   0.085   1.909   4.145  0.5383  1.2342  0.4038
66496SOL     OW 9801   3.037   0.590   8.574  0.2649  0.2129 -0.1591
66496SOL    HW1 9802   3.093   0.514   8.592 -2.2931 -1.3409  1.8915
66496SOL    HW2 9803   3.092   0.665   8.595  1.0687 -1.2715  3.9779
66497SOL     OW 9804   5.333  10.915   8.316 -0.0479  0.0352 -0.2657
66497SOL    HW1 9805   5.243  10.948   8.319  0.0282  0.1703  0.7022
66497SOL    HW2 9806   5.371  10.958   8.239 -0.4745  0.8501 -0.0343
66498SOL     OW 9807   7.291  12.195   1.843  0.0048  0.3345  0.4978
66498SOL    HW1 9808   7.253  12.144   1.771 -2.0036 -0.1331  1.8142
66498SOL    HW2 9809   7.238  12.172   1.919  2.0161  0.8704  2.1511
66499SOL     OW 9810   9.453  10.991  10.301 -0.2798  0.2554 -0.0368
66499SOL    HW1 9811   9.367  11.031  10.287 -0.6814  0.2070  2.0525
66499SOL    HW2 9812   9.441  10.899  10.276 -1.3292 -0.1340  1.7186
66500SOL     OW 9813   1.679  12.115   3.786 -0.2065 -0.1746  0.0625
66500SOL    HW1 9814   1.728  12.196   3.771  0.2102 -0.2618  0.8817
66500SOL    HW2 9815   1.590  12.134   3.757  0.0597  0.3406 -0.4289
66501SOL     OW 9816  10.626   8.361  10.645  0.2219  0.4284  0.2569
66501SOL    HW1 9817  10.626   8.285  10.702  1.0343  0.3923  0.2185
66501SOL    HW2 9818  10.550   8.412  10.673 -0.5945 -0.6189 -0.0309
66502SOL     OW 9819  12.144   7.341   7.925 -0.0658  0.1205 -0.1225
66502SOL    HW1 9820  12.102   7.312   8.006  1.6015 -2.7482 -0.1622
66502SOL    HW2 9821  12.203   7.270   7.901  2.2294  2.4333 -1.9330
66503SOL     OW 9822   9.762   8.777   6.144  0.0476 -0.5842 -0.0347
66503SOL    HW1 9823   9.837   8.810   6.095 -1.1780  0.4017 -1.3512
66503SOL    HW2 9824   9.750   8.688   6.112 -0.7454  0.0546 -1.6283
66504SOL     OW 9825   6.043   6.103  10.472 -0.4399 -0.2347  0.4765
66504SOL    HW1 9826   5.961   6.152  10.474 -1.0607 -1.1895 -0.4724
66504SOL    HW2 9827   6.017   6.012  10.485  0.4059 -0.5969 -0.2525
66505SOL     OW 9828   9.458   0.514   3.668  0.4363 -0.5390  0.9454
66505SOL    HW1 9829   9.379   0.527   3.615  0.9043 -0.0851  0.3578
66505SOL    HW2 9830   9.508   0.447   3.621  1.5470  0.9039  0.0067
66506SOL     OW 9831   1.711   4.335   2.365  0.0428  0.2907  0.1250
66506SOL    HW1 9832   1.709   4.277   2.289  0.4781 -0.4028  0.6287
66506SOL    HW2 9833   1.772   4.404   2.341  0.5486 -0.1871  0.0250
66507SOL     OW 9834  12.282   4.715   5.159 -0.9816  0.1285 -0.2234
66507SOL    HW1 9835  12.222   4.644   5.140  0.5426 -1.4105  0.4455
66507SOL    HW2 9836  12.368   4.673   5.165 -0.2959  1.6645  2.2351
66508SOL     OW 9837  11.014   7.771  10.911  0.2493 -0.0436  0.5210
66508SOL    HW1 9838  11.103   7.779  10.876  0.1829  0.3204  0.4341
66508SOL    HW2 9839  10.991   7.860  10.937  0.0783 -0.2142  0.9523
66509SOL     OW 9840   0.483   3.775   2.710  0.4189  0.0316 -0.5253
66509SOL    HW1 9841   0.470   3.802   2.801  0.8441  0.5315 -0.6085
66509SOL    HW2 9842   0.461   3.851   2.658 -0.1069 -0.3488 -0.8622
66510SOL     OW 9843  10.914   1.518   1.521  0.0559 -0.2675 -0.1167
66510SOL    HW1 9844  10.954   1.467   1.451  0.6531 -0.4651  0.3620
66510SOL    HW2 9845  10.977   1.514   1.593 -1.0430 -1.0162  0.8384
66511SOL     OW 9846   2.082   4.515   6.597 -0.6932  0.2343 -0.2483
66511SOL    HW1 9847   2.166   4.491   6.636 -0.3819 -1.8875 -1.9849
66511SOL    HW2 9848   2.037   4.565   6.665  1.7093  0.9529  0.9535
66512SOL     OW 9849   1.429   7.161   2.713  0.1507  0.2184  0.0467
66512SOL    HW1 9850   1.379   7.079   2.720  1.1098 -0.5871 -1.7404
66512SOL    HW2 9851   1.445   7.170   2.619  1.7231  1.4531  0.3976
66513SOL     OW 9852   9.473  11.042  10.568 -0.1232 -0.2215  0.2795
66513SOL    HW1 9853   9.378  11.055  10.571 -0.1356 -0.2551  0.0909
66513SOL    HW2 9854   9.492  11.030  10.475  0.0783 -0.1286  0.3080
66514SOL     OW 9855   0.694   4.736  11.535  0.1993 -0.1779  0.2219
66514SOL    HW1 9856   0.751   4.686  11.478 -1.8215  0.7831 -2.9145
66514SOL    HW2 9857   0.627   4.674  11.564 -0.2337 -0.1266 -0.6444
66515SOL     OW 9858   3.589   8.772  12.925  0.2543  0.3352 -0.1277
66515SOL    HW1 9859   3.494   8.769  12.915  0.3391  1.4109 -1.5417
66515SOL    HW2 9860   3.623   8.767  12.835  1.5727 -0.8142  0.3899
66516SOL     OW 9861   2.587   8.528   5.560  0.3670  0.2028  0.2507
66516SOL    HW1 9862   2.612   8.615   5.590 -0.8617  1.1634 -1.3992
66516SOL    HW2 9863   2.493   8.533   5.545  0.4286 -1.1252 -0.8112
66517SOL     OW 9864  12.629   7.612   0.940 -0.1467  0.0751  0.0436
66517SOL    HW1 9865  12.682   7.681   0.979 -1.3959 -0.2774  2.5893
66517SOL    HW2 9866  12.680   7.532   0.954 -0.2873  0.0389  0.3648
66518SOL     OW 9867   7.210  12.914   0.724  0.2410 -0.0952 -0.1661
66518SOL    HW1 9868   7.216  12.953   0.637  0.7521  1.7378  0.6398
66518SOL    HW2 9869   7.238  12.824   0.711 -0.9598 -0.2510 -2.1191
66519SOL     OW 9870   8.924   8.122   5.704 -0.2990 -0.6009 -0.0354
66519SOL    HW1 9871   8.837   8.081   5.704 -0.5914 -0.1194 -2.1144
66519SOL    HW2 9872   8.977   8.067   5.761 -1.9023 -1.0489  1.0902
66520SOL     OW 9873   1.715   3.156  12.940 -0.3711 -0.4808  0.2524
66520SOL    HW1 9874   1.668   3.079  12.974 -0.7213 -0.0063  0.8617
66520SOL    HW2 9875   1.774   3.182  13.010 -0.6132  0.1058  0.2457
66521SOL     OW 9876   2.013  10.465   9.024 -0.4504  0.0088  0.0021
66521SOL    HW1 9877   2.017  10.374   9.053  1.7306  0.5573  1.7237
66521SOL    HW2 9878   1.922  10.491   9.038 -0.9000 -1.6397  0.3325
66522SOL     OW 9879   8.985   0.030   8.474 -0.2117  0.0983 -0.4413
66522SOL    HW1 9880   9.056  -0.034   8.465  0.2484  0.3593  0.9776
66522SOL    HW2 9881   9.025   0.103   8.521 -0.8267  1.2894 -1.7235
66523SOL     OW 9882   8.883   4.384   0.421 -0.8771 -0.3185 -0.1011
66523SOL    HW1 9883   8.870   4.396   0.327 -1.3981 -3.1957 -0.4774
66523SOL    HW2 9884   8.956   4.443   0.442 -0.8966  0.5813 -2.2294
66524SOL     OW 9885   2.668   1.595   3.222 -0.0617  0.4158  0.4791
66524SOL    HW1 9886   2.712   1.669   3.263 -1.6688  1.5928  0.1625
66524SOL    HW2 9887   2.575   1.612   3.235 -0.5758 -0.1301 -1.9762
66525SOL     OW 9888   0.600   3.289   9.151 -0.1426  0.3477 -0.1228
66525SOL    HW1 9889   0.649   3.238   9.087 -0.5909  2.2498 -2.0956
66525SOL    HW2 9890   0.667   3.341   9.196  0.1081 -0.5600  0.5893
66526SOL     OW 9891   1.346   8.055   3.392 -0.0326 -0.2254 -0.1953
66526SOL    HW1 9892   1.398   8.035   3.314  1.0997  0.1749  0.4412
66526SOL    HW2 9893   1.327   7.969   3.431  0.3969 -0.3626 -0.2820
66527SOL     OW 9894   1.882   8.765   5.950 -0.1857 -0.5561  0.3747
66527SOL    HW1 9895   1.807   8.768   6.009 -0.8228  1.3780 -0.4620
66527SOL    HW2 9896   1.890   8.854   5.916  2.2087 -0.8114  0.0554
66528SOL     OW 9897   7.730  10.762  10.972 -0.0556  0.2748  0.2769
66528SOL    HW1 9898   7.748  10.672  10.945 -1.6455  0.5928 -2.0852
66528SOL    HW2 9899   7.801  10.813  10.932 -0.0809  0.2674  0.2226
66529SOL     OW 9900   8.914   1.831   9.433 -0.4056 -1.0236 -0.2337
66529SOL    HW1 9901   9.001   1.866   9.413 -0.5713 -0.9009 -0.7473
66529SOL    HW2 9902   8.930   1.739   9.457 -0.4009 -1.8780 -3.1361
66530SOL     OW 9903   8.107   3.999   7.048  0.1149 -0.7308  0.2882
66530SOL    HW1 9904   8.043   4.044   7.104 -0.0604  0.1580 -0.5998
66530SOL    HW2 9905   8.161   3.949   7.109 -0.2098  0.0414  1.2349
66531SOL     OW 9906  12.687   5.270  11.677 -0.0796 -0.7328  0.2417
66531SOL    HW1 9907  12.617   5.334  11.665 -0.2525 -1.1807 -1.2285
66531SOL    HW2 9908  12.739   5.306  11.750 -0.3720  0.9074 -0.3120
66532SOL     OW 9909   4.557   4.830   2.316 -0.0249 -0.1467 -0.5808
66532SOL    HW1 9910   4.605   4.760   2.359  2.2705  1.1240 -0.8904
66532SOL    HW2 9911   4.568   4.906   2.373 -0.2204  0.6053 -1.5036
66533SOL     OW 9912  11.247   7.910   1.901  0.3546 -0.1698 -0.3733
66533SOL    HW1 9913  11.284   7.829   1.938 -1.0811 -0.4044  0.6410
66533SOL    HW2 9914  11.220   7.886   1.813  0.2729 -0.7003 -0.2059
66534SOL     OW 9915   7.152   1.382   4.270 -0.2674 -0.2117 -0.4166
66534SOL    HW1 9916   7.228   1.441   4.271  0.1849 -0.7806  1.2439
66534SOL    HW2 9917   7.108   1.403   4.188  0.0555  2.2177 -0.0661
66535SOL     OW 9918  11.750   0.749   2.264 -0.0445  0.3961  0.2521
66535SOL    HW1 9919  11.814   0.815   2.294  0.2811 -0.4843  1.6065
66535SOL    HW2 9920  11.800   0.668   2.259 -0.3690  0.2900 -1.7353
66536SOL     OW 9921   2.782   0.119  12.787 -0.2929 -0.2245  0.8217
66536SOL    HW1 9922   2.787   0.072  12.870 -0.4807  0.3058  1.1369
66536SOL    HW2 9923   2.872   0.119  12.754 -0.3328 -1.0314  0.6811
66537SOL     OW 9924   9.528   9.052   9.574  0.5828 -0.3674 -0.5235
66537SOL    HW1 9925   9.479   9.126   9.537 -0.2015  0.2534  1.6210
66537SOL    HW2 9926   9.618   9.083   9.579  0.5735 -0.2089 -1.2445
66538SOL     OW 9927  11.764   1.572   8.997  0.2689 -0.0802  0.2314
66538SOL    HW1 9928  11.833   1.639   9.007  1.0211 -0.8439  0.2354
66538SOL    HW2 9929  11.684   1.623   8.986  1.1204  0.9058 -2.2208
66539SOL     OW 9930  12.940  12.777   7.215  0.1372 -0.3555  0.0532
66539SOL    HW1 9931  12.920  12.868   7.236 -0.6902 -0.2504 -1.1411
66539SOL    HW2 9932  12.908  12.728   7.290 -0.4288  0.2386  0.2096
66540SOL     OW 9933   9.398  10.019   3.040  0.5280  0.0046  0.0400
66540SOL    HW1 9934   9.322  10.067   3.007  0.1620 -0.7079 -0.1773
66540SOL    HW2 9935   9.464  10.029   2.971  0.9050  1.2325  0.5465
66541SOL     OW 9936   6.817   8.311   3.863  0.0889 -0.1354  0.4754
66541SOL    HW1 9937   6.866   8.387   3.832 -0.5485  0.5165  1.0296
66541SOL    HW2 9938   6.793   8.333   3.953 -0.7327 -0.6808  0.4047
66542SOL     OW 9939  10.734   6.247   2.593  0.6414  0.1448 -0.0061
66542SOL    HW1 9940  10.718   6.221   2.684  1.1664 -1.0528 -0.2430
66542SOL    HW2 9941  10.650   6.283   2.564 -0.5055 -2.3641  0.0028
66543SOL     OW 9942   6.833   1.791   4.416  0.8094  0.0902 -0.3142
66543SOL    HW1 9943   6.809   1.699   4.412  1.5342 -0.0682 -1.5658
66543SOL    HW2 9944   6.803   1.820   4.502 -1.5438 -0.7142 -0.7820
66544SOL     OW 9945  12.064   7.132   9.309 -0.1471  0.5752 -0.1139
66544SOL    HW1 9946  11.973   7.122   9.281  0.1663  0.5533 -1.1499
66544SOL    HW2 9947  12.093   7.042   9.325 -0.4143  0.6079  0.6079
66545SOL     OW 9948   8.754  11.721  11.821 -0.3027 -0.0542 -0.0496
66545SOL    HW1 9949   8.845  11.717  11.852 -0.0411 -0.0762 -0.7919
66545SOL    HW2 9950   8.716  11.795  11.867  0.1788  0.1335  0.0561
66546SOL     OW 9951  12.027   4.642   7.950  0.1541 -0.3977 -0.5756
66546SOL    HW1 9952  12.061   4.552   7.943  0.0448 -0.2883 -3.5619
66546SOL    HW2 9953  11.933   4.631   7.966  0.2853 -0.7913 -0.0524
66547SOL     OW 9954   3.412   7.119  12.766 -0.0121  0.0619 -0.0542
66547SOL    HW1 9955   3.419   7.029  12.736 -0.9004  0.4120 -1.4203
66547SOL    HW2 9956   3.500   7.155  12.753  0.6065 -0.8418  1.4259
66548SOL     OW 9957   1.387   1.874  11.418 -0.4755  0.1715  0.2039
66548SOL    HW1 9958   1.324   1.803  11.408  0.0653 -0.5781  1.7970
66548SOL    HW2 9959   1.404   1.904  11.329 -0.0819 -2.2787 -0.6122
66549SOL     OW 9960   5.479   6.586   5.038 -0.9169  0.0584 -0.5671
66549SOL    HW1 9961   5.552   6.610   4.981 -1.6187 -0.7277 -1.8488
66549SOL    HW2 9962   5.510   6.606   5.126  0.5678  0.4133 -1.1363
66550SOL     OW 9963   2.005   2.067  10.324 -0.1442  0.2728 -0.2777
66550SOL    HW1 9964   1.942   2.088  10.392 -0.7504 -0.6795 -0.5259
66550SOL    HW2 9965   1.967   2.105  10.244 -1.2753 -1.7016 -0.7390
66551SOL     OW 9966  12.085   2.487   2.132  0.1612 -0.2184 -0.0793
66551SOL    HW1 9967  12.090   2.470   2.226  1.5413 -1.1646 -0.2965
66551SOL    HW2 9968  12.157   2.548   2.114 -1.1278  1.3163 -0.2836
66552SOL     OW 9969  12.439   1.440  10.865 -0.5578  0.4084  0.8269
66552SOL    HW1 9970  12.461   1.456  10.956 -0.0479  2.2327  0.4381
66552SOL    HW2 9971  12.344   1.448  10.861 -0.4576  2.2220  0.9425
66553SOL     OW 9972   0.552  10.645   2.892  0.2598 -0.2186  0.5432
66553SOL    HW1 9973   0.497  10.599   2.828  1.4533  1.8241 -2.1685
66553SOL    HW2 9974   0.593  10.576   2.943 -0.9155 -1.9883 -0.7976
66554SOL     OW 9975   9.841   5.013   3.268 -0.0035  0.2888  0.8368
66554SOL    HW1 9976   9.924   5.012   3.315  0.0032 -0.5185  0.8317
66554SOL    HW2 9977   9.808   5.102   3.278  0.6787  0.5092  1.1598
66555SOL     OW 9978   8.995  12.725  10.641 -0.2573 -0.0581 -0.0993
66555SOL    HW1 9979   9.072  12.670  10.626  0.4726  0.6460  0.9426
66555SOL    HW2 9980   9.017  12.808  10.597 -0.3422  0.1960  0.3336
66556SOL     OW 9981   9.171   9.064   1.671 -0.6707  0.6496 -0.1183
66556SOL    HW1 9982   9.101   9.098   1.616 -1.9606 -0.3432  0.8560
66556SOL    HW2 9983   9.227   9.014   1.610 -1.5874  0.2872 -0.6788
66557SOL     OW 9984   2.798  11.286   8.112 -0.3669 -0.1200  0.2663
66557SOL    HW1 9985   2.835  11.277   8.200 -0.1059 -1.0553  0.0776
66557SOL    HW2 9986   2.841  11.217   8.061 -1.7941 -0.7552 -0.1569
66558SOL     OW 9987   3.158   6.731   8.822 -0.3112 -0.1142  0.1836
66558SOL    HW1 9988   3.066   6.745   8.799 -0.0306  0.0932 -0.9071
66558SOL    HW2 9989   3.202   6.724   8.737  1.0301  2.1448  0.6125
66559SOL     OW 9990   9.946  11.371   6.364 -0.6546 -0.2685 -0.2895
66559SOL    HW1 9991   9.888  11.357   6.290 -2.3810  1.4397  0.6496
66559SOL    HW2 9992   9.901  11.330   6.438 -0.1361  0.1135  0.2506
66560SOL     OW 9993   6.264   4.299   2.777 -0.0751  0.0933 -0.0472
66560SOL    HW1 9994   6.275   4.341   2.862 -1.4231  0.5052 -0.0408
66560SOL    HW2 9995   6.252   4.206   2.797  1.3309 -0.0796  0.0612
66561SOL     OW 9996   8.055   0.097   0.267 -0.2583 -0.2513 -0.6682
66561SOL    HW1 9997   8.137   0.094   0.316  0.4413 -0.1711 -1.7985
66561SOL    HW2 9998   8.082   0.113   0.177 -1.5246 -0.2428 -1.0598
66562SOL     OW 9999   7.441   6.363   6.456  0.4337  0.0705  0.4158
66562SOL    HW110000   7.428   6.452   6.422 -1.7641 -0.0958  0.7127
66562SOL    HW210001   7.514   6.372   6.518  0.5969  1.5531  0.0538
66563SOL     OW10002   8.046   9.684   6.877 -0.2692  0.2793  0.7209
66563SOL    HW110003   8.023   9.597   6.909 -1.3680  0.7924  1.4105
66563SOL    HW210004   7.962   9.726   6.861  0.2482  1.1432  0.1895
66564SOL     OW10005   4.414   7.082  12.189 -0.0684 -0.1126  0.2985
66564SOL    HW110006   4.326   7.107  12.218 -0.0253 -1.1630  1.4336
66564SOL    HW210007   4.468   7.093  12.267  0.9895  1.2905 -0.6032
66565SOL     OW10008   9.287   5.711   9.114  0.6399 -0.2765  0.0075
66565SOL    HW110009   9.367   5.764   9.113  0.6613 -0.2847  0.8585
66565SOL    HW210010   9.287   5.667   9.029  1.7398 -0.5748  0.1469
66566SOL     OW10011   2.770   7.420  11.936 -0.0900 -0.1672 -1.0353
66566SOL    HW110012   2.735   7.504  11.906 -0.4294  0.5056  1.0777
66566SOL    HW210013   2.858   7.415  11.898 -0.5782  0.4851 -2.2922
66567SOL     OW10014   9.549   0.723   5.789  0.1136  0.2254 -0.0826
66567SOL    HW110015   9.612   0.657   5.819 -0.6692  0.4363  2.2997
66567SOL    HW210016   9.580   0.749   5.703  1.0481 -2.4564 -0.6402
66568SOL     OW10017   0.564  11.030   7.618  0.0536  0.1225 -0.3371
66568SOL    HW110018   0.485  10.978   7.634  0.7304 -0.0860  2.7944
66568SOL    HW210019   0.633  10.966   7.606  0.1865  0.3119 -0.5970
66569SOL     OW10020   5.463   7.969   1.853  0.4783 -0.4350  0.3524
66569SOL    HW110021   5.449   7.912   1.777  0.4524 -0.8266  0.6457
66569SOL    HW210022   5.539   8.022   1.829 -0.0514  0.0559 -0.2942
66570SOL     OW10023  10.295  11.561   9.254 -0.3052  0.3521  0.5725
66570SOL    HW110024  10.260  11.472   9.243  0.1996 -0.0202  1.7970
66570SOL    HW210025  10.267  11.607   9.176 -2.1075 -0.3917  0.7250
66571SOL     OW10026   6.373   5.117   4.583 -0.2812 -0.1996 -0.1323
66571SOL    HW110027   6.402   5.119   4.674  0.5689  2.7628 -0.3452
66571SOL    HW210028   6.293   5.065   4.584  0.2035 -1.0083  2.1241
66572SOL     OW10029  12.335   4.892   0.008 -0.0624  0.2480  0.1751
66572SOL    HW110030  12.336   4.984   0.036 -1.5463 -0.6930  4.0561
66572SOL    HW210031  12.292   4.893  -0.078  3.5069  3.4030 -1.8415
66573SOL     OW10032   9.968   1.748   6.558  0.2081 -0.3769  0.0480
66573SOL    HW110033   9.917   1.692   6.499 -0.5834 -1.2881  1.5103
66573SOL    HW210034   9.930   1.835   6.547  0.7928 -0.3047 -1.5473
66574SOL     OW10035   1.540   4.564   4.863  0.5349 -0.4305 -0.3353
66574SOL    HW110036   1.607   4.496   4.870  1.0567  0.1066  0.0884
66574SOL    HW210037   1.568   4.631   4.926 -1.3019 -0.9426  1.1294
66575SOL     OW10038   6.876   2.803   6.939  0.3144  0.0911 -0.7378
66575SOL    HW110039   6.881   2.711   6.963  0.6481  0.6432  1.4616
66575SOL    HW210040   6.784   2.826   6.951  0.3273  0.1800 -0.8089
66576SOL     OW10041   2.405   4.606   6.358  0.0129 -0.3951  0.3199
66576SOL    HW110042   2.423   4.512   6.365  1.1205 -0.2813 -0.6076
66576SOL    HW210043   2.492   4.647   6.355 -0.3236  0.3493 -2.6432
66577SOL     OW10044   5.651   3.235   4.025 -0.4225 -0.0606 -0.0340
66577SOL    HW110045   5.660   3.330   4.021  0.7851 -0.1427  0.2967
66577SOL    HW210046   5.563   3.220   4.059 -0.9721  0.9187 -1.0026
66578SOL     OW10047   7.285   8.542   0.313  0.9544 -0.2593 -0.3891
66578SOL    HW110048   7.371   8.581   0.322  1.3763 -1.2107 -0.1188
66578SOL    HW210049   7.278   8.519   0.221  0.8654  0.0943 -0.4703
66579SOL     OW10050   3.845   5.089   6.476 -0.4167 -0.1821 -0.1278
66579SOL    HW110051   3.756   5.082   6.510 -0.1269 -1.7304  0.3731
66579SOL    HW210052   3.870   4.999   6.456  0.9790  0.2526 -0.4095
66580SOL     OW10053   4.770   6.677   9.940 -0.5309  0.3024  0.1776
66580SOL    HW110054   4.722   6.656   9.859 -2.5374  0.8846  1.1507
66580SOL    HW210055   4.802   6.766   9.926  0.8436 -0.3117 -0.7232
66581SOL     OW10056   2.498   2.983   7.229 -0.2111 -0.7460  0.8084
66581SOL    HW110057   2.524   2.895   7.203 -2.5056 -1.4657  0.6933
66581SOL    HW210058   2.579   3.025   7.257  0.8693 -3.1165  1.5006
66582SOL     OW10059  12.134   0.863  10.781 -0.3803 -0.1656  0.1686
66582SOL    HW110060  12.157   0.923  10.851 -0.7597  0.5764 -0.3249
66582SOL    HW210061  12.045   0.833  10.802  0.0074 -0.9858  0.6939
66583SOL     OW10062   9.766   5.377  11.221  0.3620  0.0595 -0.6338
66583SOL    HW110063   9.745   5.448  11.159  1.2846 -0.0176 -1.0444
66583SOL    HW210064   9.711   5.395  11.297  0.1740  0.9040 -0.9579
66584SOL     OW10065   3.772  11.210   9.059  0.0021 -0.4530  0.2178
66584SOL    HW110066   3.785  11.248   9.146 -0.8169 -0.9418  0.5676
66584SOL    HW210067   3.844  11.149   9.048 -0.0574 -0.6098  0.6825
66585SOL     OW10068  11.119  11.479   1.610 -0.4337 -0.1557  0.0576
66585SOL    HW110069  11.097  11.544   1.543  0.2025  0.6643  0.6132
66585SOL    HW210070  11.044  11.480   1.670 -0.1268  0.5812  0.4379
66586SOL     OW10071   5.441  12.163   4.873  0.0643 -0.2999  0.6942
66586SOL    HW110072   5.412  12.129   4.957  0.2628 -0.9876  0.4926
66586SOL    HW210073   5.529  12.197   4.890 -0.3963  0.7651  1.0508
66587SOL     OW10074   9.539   0.808   1.123 -0.3948  0.2372 -0.3474
66587SOL    HW110075   9.621   0.832   1.166  0.0395  0.3518 -1.2138
66587SOL    HW210076   9.565   0.789   1.033 -1.0728 -1.2581 -0.2521
66588SOL     OW10077   2.050   8.441   6.596 -0.0966 -0.2870 -0.6873
66588SOL    HW110078   2.085   8.509   6.654 -0.4159 -2.1423  1.8091
66588SOL    HW210079   2.110   8.441   6.521  0.9756  1.4665  0.0976
66589SOL     OW10080   5.099   3.778   3.705  0.3074 -0.1821 -0.0343
66589SOL    HW110081   5.053   3.854   3.669 -0.8788 -0.8238  0.0948
66589SOL    HW210082   5.055   3.703   3.667  0.6858 -0.8344  0.7895
66590SOL     OW10083   4.193   2.422  12.071  0.2382 -0.3753 -0.7547
66590SOL    HW110084   4.155   2.501  12.111  0.8314 -0.4374 -0.0558
66590SOL    HW210085   4.199   2.359  12.142  1.6361 -0.3755 -0.8450
66591SOL     OW10086   0.545   9.468   7.827 -0.5388  0.2084  0.2918
66591SOL    HW110087   0.558   9.471   7.922 -0.3808  1.3579  0.2570
66591SOL    HW210088   0.558   9.559   7.799 -1.4917  0.0527 -0.7127
66592SOL     OW10089   3.725  11.710   8.569  0.6308 -0.0144 -0.2818
66592SOL    HW110090   3.717  11.734   8.661 -1.4817 -0.6509 -0.2655
66592SOL    HW210091   3.662  11.766   8.523  1.9155  0.5671 -1.4249
66593SOL     OW10092   7.589   6.699   6.851 -0.6061  0.1183 -0.2117
66593SOL    HW110093   7.642   6.621   6.867 -0.3018  0.4955  0.6866
66593SOL    HW210094   7.652   6.765   6.823 -0.4725  0.7559  1.4873
66594SOL     OW10095   6.780   1.149   7.748 -0.2609  0.6026 -0.1756
66594SOL    HW110096   6.697   1.102   7.754  0.2233 -0.2851 -0.3622
66594SOL    HW210097   6.800   1.174   7.838 -1.4972  2.2225 -0.2884
66595SOL     OW10098  12.496   4.552   8.122  0.0386  0.2701  0.0797
66595SOL    HW110099  12.435   4.479   8.137 -0.6314  0.1760 -2.5979
66595SOL    HW210100  12.460   4.625   8.172 -0.8728 -0.4829  0.5439
66596SOL     OW10101   8.597   0.889   2.143 -0.1637 -0.5154  0.3566
66596SOL    HW110102   8.598   0.941   2.063  1.3875 -0.1061  0.6064
66596SOL    HW210103   8.600   0.953   2.214 -0.0774 -0.9088  0.7126
66597SOL     OW10104   9.262   0.295  11.209 -0.6361  0.1124 -0.3601
66597SOL    HW110105   9.211   0.354  11.154 -0.3793  1.3091  0.6331
66597SOL    HW210106   9.353   0.313  11.186 -0.5962 -1.1032 -1.2222
66598SOL     OW10107   7.538  12.554   2.162  0.3449  0.5237 -0.1347
66598SOL    HW110108   7.505  12.644   2.170 -0.4213  0.4560 -2.0821
66598SOL    HW210109   7.617  12.562   2.108  0.3543  0.0297 -0.1992
66599SOL     OW10110  11.725   4.485  11.537 -0.7146  0.2062 -0.0858
66599SOL    HW110111  11.671   4.531  11.601 -1.3654 -0.0795 -0.4194
66599SOL    HW210112  11.735   4.397  11.573  0.6571  0.6301  0.6293
66600SOL     OW10113   8.624   9.125   1.292  0.3753 -0.5817 -0.1470
66600SOL    HW110114   8.643   9.176   1.214  1.0094  0.7056  0.8211
66600SOL    HW210115   8.613   9.190   1.361 -2.3499 -1.5194  0.4555
66601SOL     OW10116   6.747  10.293   8.163  0.2196 -0.0754  0.1001
66601SOL    HW110117   6.822  10.351   8.148  1.1440 -1.5303 -1.1528
66601SOL    HW210118   6.784  10.205   8.165 -1.5661 -0.9571 -1.7585
66602SOL     OW10119   1.393   2.320   4.485  0.4508  0.2574  0.1273
66602SOL    HW110120   1.468   2.349   4.433  0.6134  0.0487  0.2416
66602SOL    HW210121   1.361   2.400   4.528  0.4693  0.3858 -0.0965
66603SOL     OW10122  10.590   0.612   9.746 -0.0313 -0.1324 -0.6095
66603SOL    HW110123  10.680   0.613   9.714 -0.6833  0.2474 -2.5226
66603SOL    HW210124  10.566   0.704   9.754 -0.6415 -0.2266 -1.2925
66604SOL     OW10125   2.299  11.873  10.046  0.1633 -0.1309 -0.1170
66604SOL    HW110126   2.252  11.939   9.996  2.9057  1.4040 -0.8403
66604SOL    HW210127   2.276  11.790  10.003 -0.5489  0.7344 -1.4819
66605SOL     OW10128   0.338   9.752   8.704  0.3808 -0.1141  0.2916
66605SOL    HW110129   0.433   9.763   8.695  0.4425  0.0336  1.0162
66605SOL    HW210130   0.316   9.803   8.782 -0.1449 -0.9083  0.6780
66606SOL     OW10131   4.466   7.469   3.895  0.3776  0.1959 -0.4656
66606SOL    HW110132   4.388   7.425   3.860 -0.4989  2.2314 -1.2419
66606SOL    HW210133   4.438   7.560   3.909  1.6607  0.2369  2.4861
66607SOL     OW10134   6.237  10.711   2.632  0.0898  0.5455  0.0850
66607SOL    HW110135   6.254  10.805   2.632 -0.7041  0.7180  1.5111
66607SOL    HW210136   6.316  10.673   2.670 -0.0311  0.7461  0.5465
66608SOL     OW10137   5.392   5.775   8.373  0.2496 -0.5049  0.0202
66608SOL    HW110138   5.299   5.798   8.373  0.3072 -0.1194 -1.8653
66608SOL    HW210139   5.393   5.683   8.345  0.4859 -0.0687 -1.4812
66609SOL     OW10140   0.771   9.229  10.821  0.4540  0.3533 -0.0247
66609SOL    HW110141   0.731   9.310  10.790 -0.8509 -0.7064 -1.2494
66609SOL    HW210142   0.860   9.231  10.787  0.2447  0.9880 -0.5476
66610SOL     OW10143   6.730   2.412  11.599 -0.2056 -0.2038  0.1789
66610SOL    HW110144   6.658   2.417  11.537  1.1857  0.7155 -1.4559
66610SOL    HW210145   6.696   2.453  11.679 -1.1028  1.3765 -0.9566
66611SOL     OW10146   1.721   6.207  10.143 -0.2009 -0.3252 -0.3857
66611SOL    HW110147   1.811   6.235  10.164  0.1288 -0.8373 -1.0946
66611SOL    HW210148   1.730   6.115  10.119 -0.8018 -0.1650 -1.2463
66612SOL     OW10149   6.192   9.228  10.276  0.1087 -0.4659  0.0755
66612SOL    HW110150   6.208   9.314  10.236  2.4942 -1.8636 -2.2948
66612SOL    HW210151   6.139   9.247  10.353  0.1378  3.0647 -0.6136
66613SOL     OW10152   9.892   5.384   3.171 -0.3881 -0.0017 -0.1423
66613SOL    HW110153   9.843   5.368   3.252  0.2539  1.0049  0.4603
66613SOL    HW210154   9.975   5.338   3.184 -0.9909 -1.4049 -1.0156
66614SOL     OW10155   0.397  12.699   5.854 -0.2626  0.0045 -0.2203
66614SOL    HW110156   0.390  12.620   5.907  0.4470 -0.5105 -0.8732
66614SOL    HW210157   0.345  12.679   5.776  0.1386  0.0798 -0.5072
66615SOL     OW10158   5.905  12.477  12.242  0.3529  0.3613  0.0998
66615SOL    HW110159   5.828  12.534  12.248  1.3488  1.7740 -0.1645
66615SOL    HW210160   5.975  12.526  12.285  1.2612 -0.6175 -0.2330
66616SOL     OW10161   7.296   6.616   8.084  0.1797  0.3732 -0.5353
66616SOL    HW110162   7.230   6.683   8.106 -0.6435 -0.1352 -1.4086
66616SOL    HW210163   7.246   6.535   8.074  1.3678 -0.9286  2.5592
66617SOL     OW10164   0.288   2.364   4.887  0.0452  0.1378 -0.9160
66617SOL    HW110165   0.374   2.405   4.892 -0.1847  0.5750 -0.3982
66617SOL    HW210166   0.306   2.272   4.869  0.6864 -0.0727  0.6443
66618SOL     OW10167   9.979   4.184  10.235 -0.0091  0.1714 -0.7881
66618SOL    HW110168   9.971   4.280  10.243  1.5161  0.1763  1.9567
66618SOL    HW210169  10.047   4.171  10.169 -0.6969  0.9328 -1.6793
66619SOL     OW10170   3.208   9.265   0.720  0.1146 -0.0473 -0.0892
66619SOL    HW110171   3.237   9.202   0.786 -0.3771 -2.9619 -2.4437
66619SOL    HW210172   3.122   9.295   0.750  1.1375  1.0211  1.9765
66620SOL     OW10173  11.247   8.858   4.684 -0.4893 -0.6742  0.2804
66620SOL    HW110174  11.213   8.776   4.718 -0.4369 -0.4448  0.8906
66620SOL    HW210175  11.336   8.836   4.654  0.6825 -0.2460  3.1123
66621SOL     OW10176  10.586  12.199   2.874 -0.1460 -0.1916  0.0757
66621SOL    HW110177  10.526  12.139   2.919  1.1819 -0.7418  1.1613
66621SOL    HW210178  10.640  12.142   2.819  0.2232  0.1602  0.0662
66622SOL     OW10179   6.298  12.736   4.718 -0.1035 -0.3281 -0.1687
66622SOL    HW110180   6.236  12.689   4.773  1.4291 -0.9824  1.0693
66622SOL    HW210181   6.301  12.824   4.755 -1.0788  0.0457 -0.9216
66623SOL     OW10182   9.816   6.727   8.332 -0.0888 -0.2765  1.0686
66623SOL    HW110183   9.903   6.714   8.370  0.5756 -1.4372 -0.7256
66623SOL    HW210184   9.820   6.681   8.248 -1.4246  2.2666 -0.4874
66624SOL     OW10185  11.256   9.297  11.707 -0.4933  0.6013  0.0753
66624SOL    HW110186  11.335   9.334  11.668 -0.5124  0.0451 -0.4958
66624SOL    HW210187  11.258   9.329  11.798  1.6091 -1.2270  0.7648
66625SOL     OW10188   7.073   1.065   4.021  0.0500  0.0020  0.3289
66625SOL    HW110189   7.033   0.997   4.075  0.7992 -1.2469 -0.6282
66625SOL    HW210190   7.167   1.054   4.035  0.2044  0.4678 -0.2876
66626SOL     OW10191  12.413   5.087   9.680  0.2574 -0.0103 -0.5032
66626SOL    HW110192  12.392   5.042   9.761  0.4544 -1.7937 -1.3796
66626SOL    HW210193  12.423   5.178   9.704 -2.3456 -0.0369  1.0102
66627SOL     OW10194   3.986   8.582   2.698 -0.3604 -0.3135 -0.3786
66627SOL    HW110195   3.925   8.537   2.756  0.8639  0.3128  1.4496
66627SOL    HW210196   3.968   8.675   2.710  0.7859 -0.1253  0.0257
66628SOL     OW10197   9.453   8.936  11.455  0.0338  0.1478  0.4743
66628SOL    HW110198   9.423   8.902  11.370  0.0771 -0.9113  0.8663
66628SOL    HW210199   9.538   8.895  11.468  0.2217  0.6517  0.8343
66629SOL     OW10200   7.096  12.306   8.942 -0.3333  0.5046 -0.1074
66629SOL    HW110201   7.086  12.214   8.918  0.4180 -0.0634  1.6549
66629SOL    HW210202   7.006  12.338   8.952 -0.5951 -0.1223 -0.4061
66630SOL     OW10203   1.489   9.995   5.349  0.5608  0.1727  0.1742
66630SOL    HW110204   1.468   9.902   5.339 -1.0921  0.6116 -0.8491
66630SOL    HW210205   1.412  10.033   5.392 -0.2533  1.5926 -2.3218
66631SOL     OW10206   4.101   3.416  12.096  0.0519  0.2467 -0.2265
66631SOL    HW110207   4.042   3.362  12.043 -1.4834 -0.0184  1.6274
66631SOL    HW210208   4.150   3.353  12.149  1.0583  0.5394 -0.7799
66632SOL     OW10209   5.971   8.356   1.371  0.1165 -0.6182  0.0129
66632SOL    HW110210   5.899   8.299   1.343  1.8389 -1.8368 -2.2840
66632SOL    HW210211   5.928   8.428   1.417 -2.3689 -2.3476  0.6234
66633SOL     OW10212  12.621   7.257   8.187 -0.2593  0.5918 -0.0269
66633SOL    HW110213  12.613   7.299   8.273  1.3706  1.8099 -0.4294
66633SOL    HW210214  12.608   7.328   8.124 -1.8129 -0.3582 -0.8297
66634SOL     OW10215  11.822   8.665   0.838  0.0814  0.2994  0.1489
66634SOL    HW110216  11.781   8.609   0.773 -0.5306  0.5404  0.3231
66634SOL    HW210217  11.900   8.700   0.795  0.9800 -1.3803  0.3232
66635SOL     OW10218   0.626   3.152   7.824  0.5265  0.2361  0.3407
66635SOL    HW110219   0.616   3.088   7.754 -0.0498 -0.0800  0.7019
66635SOL    HW210220   0.691   3.113   7.883 -2.6782 -2.0806  2.7424
66636SOL     OW10221   9.397   1.064   0.191 -0.1178 -0.5399 -0.0658
66636SOL    HW110222   9.390   1.146   0.142  0.3911 -0.2600  0.3181
66636SOL    HW210223   9.394   0.995   0.124  1.2511 -0.1417 -0.5682
66637SOL     OW10224   4.705   9.802   9.458 -0.3029 -0.0019 -0.4629
66637SOL    HW110225   4.639   9.863   9.491 -0.5258  0.4949 -1.7733
66637SOL    HW210226   4.735   9.755   9.536 -1.6627  0.2810  0.2677
66638SOL     OW10227  10.857   7.636   0.494 -0.0560  0.1957  0.2622
66638SOL    HW110228  10.913   7.652   0.570 -0.5198 -2.7241  1.3395
66638SOL    HW210229  10.887   7.699   0.429  2.5361  0.6650  1.7631
66639SOL     OW10230   6.031   2.187   4.058 -0.3654 -0.0808 -0.3611
66639SOL    HW110231   6.051   2.227   3.973  3.0555 -1.3633 -0.2883
66639SOL    HW210232   6.107   2.205   4.112 -1.7015 -0.8529  1.9106
66640SOL     OW10233   5.827   8.951  12.738  0.3203  0.0286 -0.1490
66640SOL    HW110234   5.750   9.008  12.742 -0.4115 -0.8924 -0.7130
66640SOL    HW210235   5.859   8.947  12.828 -0.9748 -0.4718  0.3101
66641SOL     OW10236   5.819  10.209   4.532  0.2541 -0.1803 -0.1034
66641SOL    HW110237   5.843  10.222   4.623  1.7245 -2.3767 -0.1056
66641SOL    HW210238   5.900  10.220   4.483 -0.0940 -1.0596 -0.9122
66642SOL     OW10239  11.378  11.496   9.573  0.2676  0.1047 -0.0677
66642SOL    HW110240  11.304  11.436   9.585 -0.9574  1.6772  0.6985
66642SOL    HW210241  11.426  11.461   9.498 -1.0151 -1.2069 -0.3128
66643SOL     OW10242   7.535   1.878   4.440  0.0526 -0.0395 -0.4678
66643SOL    HW110243   7.534   1.786   4.465 -1.8977  0.0289 -0.1199
66643SOL    HW210244   7.443   1.905   4.444  0.7397  2.3736  1.1264
66644SOL     OW10245   8.461   3.983   1.242 -0.3795  0.7059  0.0148
66644SOL    HW110246   8.442   3.897   1.281  2.4983 -0.5489 -1.0435
66644SOL    HW210247   8.551   4.001   1.267 -0.4319  2.7274 -1.0684
66645SOL     OW10248  11.436   6.140   7.351  0.0422  0.0859  0.8337
66645SOL    HW110249  11.504   6.121   7.287 -1.2734 -0.0181 -0.5817
66645SOL    HW210250  11.372   6.192   7.303 -0.5029  0.8686  2.3478
66646SOL     OW10251  11.708   2.411   6.913  0.1471 -0.0147 -0.1540
66646SOL    HW110252  11.636   2.473   6.903  1.2567  1.2780 -0.4472
66646SOL    HW210253  11.672   2.327   6.885 -1.0772  0.7072 -0.8150
66647SOL     OW10254   4.094   0.537   4.171 -0.5770 -0.1212  0.3380
66647SOL    HW110255   4.044   0.472   4.220 -2.2635  1.7510  1.2576
66647SOL    HW210256   4.071   0.520   4.079 -0.3269 -1.3118  0.4754
66648SOL     OW10257  12.191   9.392   3.207  0.2795  0.5370 -0.1104
66648SOL    HW110258  12.253   9.322   3.187  0.8409  0.7567  0.7809
66648SOL    HW210259  12.134   9.355   3.274 -0.1359  0.5627 -0.4442
66649SOL     OW10260   0.939  11.660   1.434  0.6891 -0.1163  0.5712
66649SOL    HW110261   0.904  11.654   1.345 -1.9995  1.4931  1.3880
66649SOL    HW210262   0.916  11.576   1.474 -1.3352  0.4384  0.7081
66650SOL     OW10263   6.853   9.049  10.284 -0.0889  0.1228 -0.8139
66650SOL    HW110264   6.908   9.075  10.210  1.2232 -1.3684 -0.4245
66650SOL    HW210265   6.765   9.044  10.247 -0.2621  3.6489 -1.2022
66651SOL     OW10266   3.665   4.521   4.357  0.1571  0.3815 -0.8088
66651SOL    HW110267   3.723   4.584   4.399  0.0355  0.4615 -0.7606
66651SOL    HW210268   3.656   4.450   4.420  0.4809  0.2044 -0.9567
66652SOL     OW10269  11.354   5.601  12.753 -0.3186  0.3993  0.1195
66652SOL    HW110270  11.280   5.651  12.789  1.4854  2.8607  0.6507
66652SOL    HW210271  11.344   5.609  12.658  0.3144  2.5024  0.1792
66653SOL     OW10272   3.815   4.226   9.379  0.0102  0.5430  0.1882
66653SOL    HW110273   3.841   4.221   9.471  0.0448  0.9672  0.2011
66653SOL    HW210274   3.888   4.186   9.332  0.6223  1.5647  0.2381
66654SOL     OW10275  11.787   7.983   0.045 -0.0637  0.1629 -0.0645
66654SOL    HW110276  11.775   7.908   0.104  0.4000  0.9554  1.0568
66654SOL    HW210277  11.713   8.041   0.064  0.0234  0.3729 -0.3531
66655SOL     OW10278  11.217   3.174  11.109 -0.0903 -0.5278  0.0488
66655SOL    HW110279  11.260   3.236  11.168 -2.7169  2.3292 -0.7990
66655SOL    HW210280  11.270   3.176  11.029 -0.3648  0.9951 -0.1118
66656SOL     OW10281   3.498   4.129   1.947  0.2804  0.0709  0.1830
66656SOL    HW110282   3.507   4.078   1.867 -0.0894 -0.2495  0.3402
66656SOL    HW210283   3.436   4.198   1.926  0.0287 -0.1325  0.2438
66657SOL     OW10284   2.826   6.073   8.247 -0.2877 -0.7961 -0.2274
66657SOL    HW110285   2.921   6.078   8.261 -0.5588  1.3924  1.2394
66657SOL    HW210286   2.793   6.032   8.327 -0.9365  2.8476  1.5669
66658SOL     OW10287   2.932  12.120  11.841 -0.5973  0.1780 -0.5488
66658SOL    HW110288   2.872  12.194  11.833 -1.7043 -0.7294 -0.9811
66658SOL    HW210289   2.936  12.082  11.753  1.3772  0.7489 -0.7623
66659SOL     OW10290   4.081  11.243  10.577  0.1595  1.1255 -0.0046
66659SOL    HW110291   4.055  11.244  10.485 -2.6086  2.3944  0.6999
66659SOL    HW210292   4.084  11.150  10.600  0.2829  0.8210 -1.1880
66660SOL     OW10293   0.396   9.868  12.682  0.3569  0.4524 -0.4886
66660SOL    HW110294   0.487   9.859  12.709  0.0355 -0.0448  0.4650
66660SOL    HW210295   0.350   9.797  12.726 -0.4345  0.4492 -1.2758
66661SOL     OW10296   9.280   9.048   9.835  0.2649 -0.1305  0.3884
66661SOL    HW110297   9.286   9.027   9.928  0.4589  1.1816  0.6857
66661SOL    HW210298   9.317   8.971   9.791  2.0502  0.0475  1.4698
66662SOL     OW10299  10.374   9.905   4.834 -0.1496  0.0748  0.2308
66662SOL    HW110300  10.380  10.000   4.832 -1.1568  0.1452 -1.1157
66662SOL    HW210301  10.465   9.875   4.836  0.2020  1.0578 -0.2648
66663SOL     OW10302   5.587   0.481   8.764  0.1167 -0.2090 -0.0165
66663SOL    HW110303   5.629   0.395   8.766  2.9263  1.0550  2.2574
66663SOL    HW210304   5.646   0.536   8.712 -1.4037  0.5254 -1.0616
66664SOL     OW10305   2.890   5.628   3.911 -0.2942  0.3778 -0.3358
66664SOL    HW110306   2.848   5.575   3.979  1.4808  1.1108  1.4406
66664SOL    HW210307   2.831   5.702   3.899 -0.0143  0.9619  1.5014
66665SOL     OW10308   9.498  12.450   6.800 -0.0645  0.0988  0.1933
66665SOL    HW110309   9.476  12.468   6.892 -0.6376 -1.3042  0.3555
66665SOL    HW210310   9.583  12.493   6.787  0.6225 -0.7142  1.7273
66666SOL     OW10311   0.117  12.128  12.000 -0.0482  0.7298 -0.2831
66666SOL    HW110312   0.062  12.071  11.947  1.1493 -0.5290 -0.2138
66666SOL    HW210313   0.087  12.112  12.090  0.1641  0.3433 -0.2793
66667SOL     OW10314   4.195   3.644   6.328  0.3330  0.4243  0.7206
66667SOL    HW110315   4.269   3.701   6.313  0.3001  0.1706 -0.4432
66667SOL    HW210316   4.228   3.555   6.313  0.1644  0.1825  1.6594
66668SOL     OW10317  10.494   0.224   6.064 -0.4588 -0.6805  0.0153
66668SOL    HW110318  10.447   0.307   6.065 -0.2135 -0.5153  1.6510
66668SOL    HW210319  10.571   0.240   6.120  2.0989 -0.6513 -3.1998
66669SOL     OW10320  11.819   9.624   7.505 -0.2108 -0.4655 -0.0639
66669SOL    HW110321  11.865   9.609   7.422 -1.6701 -0.1480 -0.9782
66669SOL    HW210322  11.765   9.702   7.489 -1.2860 -0.9827  0.8365
66670SOL     OW10323  11.249   3.369   9.341  0.3190 -0.2608  0.3507
66670SOL    HW110324  11.214   3.458   9.348 -0.9731 -0.7177 -0.0149
66670SOL    HW210325  11.298   3.357   9.423  0.1651  0.6344  0.5912
66671SOL     OW10326   5.678   0.377   4.636  0.2287 -0.9225  0.0823
66671SOL    HW110327   5.763   0.396   4.595  0.5407  0.2642  1.2195
66671SOL    HW210328   5.622   0.349   4.563  1.0899  0.0504 -0.9933
66672SOL     OW10329   5.522   6.529   7.499 -0.2257 -0.8072 -0.4408
66672SOL    HW110330   5.568   6.610   7.479 -1.4577 -0.2372 -1.0707
66672SOL    HW210331   5.584   6.460   7.475  0.6971 -0.0668 -0.2424
66673SOL     OW10332  10.011   8.682   8.211 -0.3763 -0.4087  0.5085
66673SOL    HW110333   9.982   8.618   8.276  0.1922 -2.7785 -1.4658
66673SOL    HW210334  10.095   8.650   8.180 -1.4807 -0.4729 -2.7709
66674SOL     OW10335   8.167  12.685   4.239 -0.2744  0.1844 -0.1311
66674SOL    HW110336   8.230  12.614   4.249  0.4786  0.9339  0.7369
66674SOL    HW210337   8.147  12.711   4.329  1.5137  2.8008 -0.3759
66675SOL     OW10338   1.373   6.338   9.269 -0.1721  0.1329 -0.8743
66675SOL    HW110339   1.306   6.314   9.205 -0.6712  2.2587 -1.2235
66675SOL    HW210340   1.452   6.291   9.240 -1.7106 -3.4972  0.3127
66676SOL     OW10341   6.208   0.013   6.675  0.1645 -0.2081 -0.0331
66676SOL    HW110342   6.116  -0.001   6.697 -0.0273 -1.4422 -1.4497
66676SOL    HW210343   6.256  -0.007   6.755 -0.7422 -0.1727  0.5350
66677SOL     OW10344   7.409   8.706   1.973  0.0453 -0.7029  0.2310
66677SOL    HW110345   7.456   8.684   1.893 -0.5070 -1.8302  0.2019
66677SOL    HW210346   7.433   8.638   2.036 -2.2780 -1.9386 -0.0955
66678SOL     OW10347   7.236   1.305   9.175  0.2696 -0.0214 -0.5125
66678SOL    HW110348   7.289   1.384   9.165 -0.0262  0.0897 -1.2279
66678SOL    HW210349   7.295   1.233   9.154  0.0649  0.1202 -1.6106
66679SOL     OW10350   4.171   2.576   1.109  0.3989  0.2108 -0.2503
66679SOL    HW110351   4.136   2.609   1.027 -0.6768 -0.6600 -0.1617
66679SOL    HW210352   4.210   2.492   1.086  0.3493  0.0968  0.0780
66680SOL     OW10353  12.122   6.565   8.088 -0.2304 -0.3441 -0.2697
66680SOL    HW110354  12.095   6.528   8.003  0.0918 -1.2216  0.0063
66680SOL    HW210355  12.063   6.640   8.100  2.3979  2.5449 -3.2701
66681SOL     OW10356   4.283   9.215   9.589  0.3946 -0.0081  0.1609
66681SOL    HW110357   4.229   9.286   9.555  0.3385 -1.1310 -2.3609
66681SOL    HW210358   4.370   9.253   9.600 -0.3912  1.3058  2.3522
66682SOL     OW10359   0.550  11.050   7.017 -0.5931  0.3754 -0.3247
66682SOL    HW110360   0.532  10.999   6.938  0.6562  0.9803 -1.0531
66682SOL    HW210361   0.644  11.038   7.032 -0.7184  0.6787  0.7876
66683SOL     OW10362   0.356   2.275   8.404 -0.0437 -0.0927  0.4617
66683SOL    HW110363   0.447   2.283   8.375  0.6061 -1.6922  1.9636
66683SOL    HW210364   0.321   2.364   8.394  2.0024  0.8314  0.9532
66684SOL     OW10365   6.456  11.615   7.490  0.2066 -0.0643  0.3358
66684SOL    HW110366   6.490  11.556   7.422 -0.7115  0.1627 -0.3445
66684SOL    HW210367   6.457  11.702   7.449  1.5170  0.4062  1.3191
66685SOL     OW10368   1.477   6.947   1.882  0.1662 -0.3097 -0.3339
66685SOL    HW110369   1.526   6.986   1.810 -0.0088  0.1552 -0.2046
66685SOL    HW210370   1.395   6.997   1.886 -0.5831 -1.4364 -0.9178
66686SOL     OW10371   1.511  10.217  11.169  0.1301 -0.1767  0.4892
66686SOL    HW110372   1.581  10.152  11.170 -0.3375 -0.6930  0.3303
66686SOL    HW210373   1.546  10.292  11.217  1.1222 -0.0778 -0.3664
66687SOL     OW10374   3.485   0.366   8.713  0.1887  0.1161  0.3700
66687SOL    HW110375   3.557   0.309   8.741 -1.5298 -2.0805  0.6335
66687SOL    HW210376   3.473   0.426   8.786  1.0127 -0.2421  0.8156
66688SOL     OW10377   6.839   2.484  12.233 -0.2794  0.5255 -0.0469
66688SOL    HW110378   6.838   2.422  12.306  2.4268 -0.2718 -0.5848
66688SOL    HW210379   6.838   2.570  12.276  1.9711  0.0865  1.0507
66689SOL     OW10380   6.460   2.050   7.596  0.6740 -0.3854 -0.2959
66689SOL    HW110381   6.510   1.971   7.575  0.4626 -0.3086 -1.1124
66689SOL    HW210382   6.445   2.093   7.512  0.4517  0.3306  0.0964
66690SOL     OW10383   6.606   6.172   9.760 -0.3264 -0.0130  0.1476
66690SOL    HW110384   6.694   6.203   9.736 -0.2902  0.3791  0.7694
66690SOL    HW210385   6.587   6.103   9.696  0.5567 -0.3068  0.1860
66691SOL     OW10386   2.231  10.075   8.971 -0.3879  0.1109 -0.5862
66691SOL    HW110387   2.268  10.051   8.887 -0.1545  0.4185 -0.5708
66691SOL    HW210388   2.303  10.068   9.033 -0.4902  0.1574 -0.4590
66692SOL     OW10389   4.813  12.446  10.621 -0.4362  0.2549  0.0694
66692SOL    HW110390   4.880  12.428  10.556  0.2825  0.3522  0.7686
66692SOL    HW210391   4.799  12.540  10.616 -0.1418  0.3105  0.2825
66693SOL     OW10392  11.064   7.478  10.310  0.1334 -0.9802  0.1510
66693SOL    HW110393  11.083   7.468  10.403 -1.0153  1.7403  0.7774
66693SOL    HW210394  10.992   7.417  10.293 -1.3574  0.2444  1.7153
66694SOL     OW10395   5.883  10.479   8.373 -0.4188 -0.3001  0.2379
66694SOL    HW110396   5.807  10.521   8.415  0.5692  0.0111  1.8060
66694SOL    HW210397   5.955  10.496   8.433  0.4050 -2.7129  0.0221
66695SOL     OW10398   9.816   7.620  11.649 -0.5172 -0.0453  0.1323
66695SOL    HW110399   9.895   7.570  11.626  0.6844  1.4565  0.8129
66695SOL    HW210400   9.840   7.667  11.728 -1.6719  1.4230 -0.3521
66696SOL     OW10401  11.817  10.908   8.578 -0.3130  0.2779  0.6306
66696SOL    HW110402  11.753  10.923   8.509 -3.2342 -1.7483  2.6211
66696SOL    HW210403  11.902  10.916   8.535 -1.8976  0.7101 -2.7499
66697SOL     OW10404   9.253  12.644  10.094 -1.1472  0.7565  0.0207
66697SOL    HW110405   9.203  12.688  10.164 -0.1161  1.7199  0.1939
66697SOL    HW210406   9.339  12.630  10.133 -1.2826 -0.9979 -0.2273
66698SOL     OW10407   0.097   1.987   4.714 -0.3655  0.1721  0.1212
66698SOL    HW110408   0.064   2.074   4.737 -1.6687 -0.4371  0.6438
66698SOL    HW210409   0.181   1.980   4.759 -0.8778  0.6444  1.1690
66699SOL     OW10410   5.492   6.217   4.657 -0.2597  0.0575  0.2306
66699SOL    HW110411   5.507   6.154   4.587 -0.0621 -0.6316  0.8871
66699SOL    HW210412   5.579   6.248   4.682 -0.4246  2.3544 -1.6291
66700SOL     OW10413   0.965  11.994  11.193 -0.2900  0.4199 -0.4468
66700SOL    HW110414   0.943  11.997  11.100  1.2788  1.3146 -0.8101
66700SOL    HW210415   1.029  11.923  11.201 -0.6018  0.1800  0.0090
66701SOL     OW10416   0.380  11.002   3.327  0.1689 -0.2093  0.6150
66701SOL    HW110417   0.406  11.058   3.400 -0.0501  0.6046  0.0847
66701SOL    HW210418   0.453  11.008   3.265 -0.2490  0.2284  0.1528
66702SOL     OW10419  11.767   5.737   9.491 -0.1350 -0.3049  0.3968
66702SOL    HW110420  11.840   5.691   9.451  1.7221  0.9303  2.1755
66702SOL    HW210421  11.736   5.679   9.560 -0.1126 -0.3427  0.3748
66703SOL     OW10422   0.319   0.196   6.111 -0.0373 -0.0562  0.0705
66703SOL    HW110423   0.389   0.149   6.065  0.1291  1.6154 -1.4821
66703SOL    HW210424   0.355   0.214   6.198  0.6600 -0.9988 -0.0102
66704SOL     OW10425  11.239   2.460   1.408 -0.3847 -0.0241  0.0551
66704SOL    HW110426  11.175   2.453   1.337  0.9120  0.3713 -1.1988
66704SOL    HW210427  11.192   2.430   1.485 -3.0050  2.8143 -0.2307
66705SOL     OW10428  11.273   8.909   8.199 -0.2360  0.5308 -0.2443
66705SOL    HW110429  11.254   8.826   8.242  0.6731  0.6800  0.4832
66705SOL    HW210430  11.188   8.952   8.191 -0.5048  0.2228  0.8547
66706SOL     OW10431   7.679   2.778   1.765 -0.3044  0.2984 -0.4872
66706SOL    HW110432   7.674   2.698   1.711  2.1534 -0.4457  0.2228
66706SOL    HW210433   7.671   2.747   1.855  1.6090  0.6609 -0.1457
66707SOL     OW10434  11.067   1.861   1.787  0.5562  0.0206  0.1714
66707SOL    HW110435  10.995   1.907   1.830  1.1240  1.0607  0.0514
66707SOL    HW210436  11.104   1.925   1.727  0.7243 -0.9429 -0.7856
66708SOL     OW10437   1.320   6.885  11.846 -0.0809  0.5160  0.4293
66708SOL    HW110438   1.342   6.954  11.908  1.4781  0.7294 -0.2958
66708SOL    HW210439   1.369   6.908  11.767 -0.3166 -0.8925 -0.1519
66709SOL     OW10440   4.404   9.992   9.834  0.7610 -0.0055  0.2501
66709SOL    HW110441   4.354  10.043   9.898  2.2721  0.4524  1.1115
66709SOL    HW210442   4.479   9.960   9.883  1.6614 -0.1289 -1.1610
66710SOL     OW10443   9.972   9.240   9.154 -0.6755 -0.0874  0.0228
66710SOL    HW110444   9.900   9.223   9.215 -0.4991  1.8296  0.8346
66710SOL    HW210445   9.944   9.317   9.105  1.9090  2.5336  2.3188
66711SOL     OW10446   5.595   7.750   4.522  0.8208  0.4941 -0.5781
66711SOL    HW110447   5.549   7.667   4.537 -0.4134  0.4723 -3.6548
66711SOL    HW210448   5.554   7.812   4.583 -0.1393 -0.5688 -0.1066
66712SOL     OW10449  12.756  12.537   2.387 -0.0887 -0.4026  0.3382
66712SOL    HW110450  12.697  12.497   2.323 -2.2396  2.3767  0.3592
66712SOL    HW210451  12.730  12.499   2.471 -0.7499 -0.4011  0.1404
66713SOL     OW10452   3.540   8.559   0.843 -0.4240  0.1835  0.7463
66713SOL    HW110453   3.586   8.543   0.926  0.9226  0.4246  0.0766
66713SOL    HW210454   3.589   8.630   0.802 -1.9378  1.0444  0.3652
66714SOL     OW10455  12.144   3.254   7.585 -0.7553  0.1848 -0.1073
66714SOL    HW110456  12.089   3.188   7.627  2.3196 -1.9103  1.0077
66714SOL    HW210457  12.134   3.332   7.640 -0.9638 -0.8250  1.3627
66715SOL     OW10458   4.869   0.307   9.625  0.6531  1.0665 -0.0774
66715SOL    HW110459   4.829   0.232   9.668  0.5254  1.5150  0.5924
66715SOL    HW210460   4.873   0.282   9.533 -2.0487  1.3918 -0.3444
66716SOL     OW10461   6.454   1.281   6.991  0.3558 -0.0336 -0.1607
66716SOL    HW110462   6.457   1.196   6.947  1.8885 -0.1816  0.1741
66716SOL    HW210463   6.407   1.338   6.930 -0.3935 -1.0217 -0.5390
66717SOL     OW10464  11.119   6.200  10.403  0.7966 -0.3251 -0.9898
66717SOL    HW110465  11.062   6.125  10.385  1.8669 -1.5529  0.4519
66717SOL    HW210466  11.061   6.276  10.399 -1.5346 -1.6524  2.4504
66718SOL     OW10467  10.495   9.303   6.463 -0.4292 -0.2140 -0.0102
66718SOL    HW110468  10.589   9.302   6.446 -0.3910  0.0599  0.1801
66718SOL    HW210469  10.488   9.327   6.556 -0.7124  0.5209 -0.2142
66719SOL     OW10470   6.770   6.361   3.147  0.4657  0.4138 -0.3316
66719SOL    HW110471   6.705   6.321   3.205  0.1183  2.6488  0.9329
66719SOL    HW210472   6.728   6.361   3.061  0.6972 -2.2930 -0.5449
66720SOL     OW10473  12.296  11.594  12.038  0.1043 -0.0381 -0.5863
66720SOL    HW110474  12.354  11.653  11.988 -0.9255 -0.2803 -2.1243
66720SOL    HW210475  12.305  11.624  12.128  1.2269  1.1211 -1.0417
66721SOL     OW10476  11.972  10.844  11.448  0.3632 -0.5057  0.7000
66721SOL    HW110477  11.907  10.826  11.380  1.4771  0.6441 -0.7364
66721SOL    HW210478  12.046  10.786  11.426  1.1699  0.6607  0.2280
66722SOL     OW10479  12.688   2.696   9.825  0.3890 -0.3465 -0.5681
66722SOL    HW110480  12.755   2.696   9.892  0.5262 -0.5126 -0.7049
66722SOL    HW210481  12.692   2.609   9.786  0.4474 -0.1877 -0.9269
66723SOL     OW10482   8.185   2.338   5.038  0.6532  0.1549 -0.2963
66723SOL    HW110483   8.142   2.281   5.102  0.1500 -0.9037 -1.5574
66723SOL    HW210484   8.275   2.305   5.032 -0.1429 -1.8158 -2.4520
66724SOL     OW10485   7.657   0.436   4.445 -0.1801 -0.0873  0.0554
66724SOL    HW110486   7.631   0.516   4.489  0.0997 -0.2848  0.5920
66724SOL    HW210487   7.676   0.375   4.516  0.1254 -0.4605 -0.3423
66725SOL     OW10488   3.406   0.681   5.510 -0.6021  0.1593 -0.3294
66725SOL    HW110489   3.449   0.751   5.461 -0.2030 -0.1719 -0.4672
66725SOL    HW210490   3.356   0.725   5.578  0.6809  0.5377  0.4139
66726SOL     OW10491   5.552   0.458   0.323 -0.0002 -0.1184 -0.6379
66726SOL    HW110492   5.531   0.508   0.244 -2.0685  0.8461  0.4456
66726SOL    HW210493   5.536   0.367   0.298 -1.7372  0.2635 -1.0614
66727SOL     OW10494   0.054   6.142   5.808 -0.5130  1.0285 -0.9224
66727SOL    HW110495   0.098   6.188   5.737 -0.4791  4.3425  1.0441
66727SOL    HW210496   0.037   6.055   5.773  2.5270  1.3633 -3.7385
66728SOL     OW10497   5.480   5.608   5.618 -0.2689  0.2616  0.7161
66728SOL    HW110498   5.442   5.666   5.552 -1.8077 -1.2282  0.2055
66728SOL    HW210499   5.555   5.567   5.574 -2.4063 -2.2073 -0.9805
66729SOL     OW10500   0.179   7.340   2.081  0.0785 -0.1169  0.0578
66729SOL    HW110501   0.214   7.425   2.054 -2.9838  1.1848 -0.2500
66729SOL    HW210502   0.103   7.326   2.023  1.8325 -4.3376 -1.6303
66730SOL     OW10503   0.856   4.265  11.206  0.2491  0.2576 -0.2466
66730SOL    HW110504   0.761   4.259  11.191  0.3099  0.6182 -0.7985
66730SOL    HW210505   0.889   4.316  11.132  0.9241 -0.1542 -0.2392
66731SOL     OW10506   3.963   9.877   5.763 -0.0579  0.2508  0.1887
66731SOL    HW110507   3.870   9.870   5.783 -0.1080  0.6914  0.1149
66731SOL    HW210508   3.973   9.833   5.679 -0.0599 -0.4986  0.5697
66732SOL     OW10509   4.213   1.597   5.967 -0.1058 -0.1326 -0.4420
66732SOL    HW110510   4.153   1.553   6.028  3.5667 -3.8865  0.9204
66732SOL    HW210511   4.163   1.603   5.885 -2.5892 -2.2599  0.7631
66733SOL     OW10512   4.700   1.656   6.783 -0.1077  0.6652 -1.2075
66733SOL    HW110513   4.696   1.602   6.704 -0.1196  1.4050 -1.7269
66733SOL    HW210514   4.771   1.617   6.835 -0.2306  0.0537 -1.4884
66734SOL     OW10515   4.542   2.736   7.357 -0.1927 -0.0252  0.8721
66734SOL    HW110516   4.503   2.730   7.270 -0.5169  1.7651  0.8417
66734SOL    HW210517   4.612   2.671   7.357  0.9186  1.0667 -1.3357
66735SOL     OW10518   4.699   2.989   0.923 -0.3224  0.1353 -0.4400
66735SOL    HW110519   4.681   3.003   1.016 -0.3329  1.3978 -0.6197
66735SOL    HW210520   4.786   3.027   0.909 -0.8118  1.0072 -1.1804
66736SOL     OW10521   0.800  11.222   8.432 -0.1977 -0.5630 -0.3519
66736SOL    HW110522   0.851  11.142   8.414 -0.9094 -1.0350 -0.2916
66736SOL    HW210523   0.725  11.192   8.482 -1.4381 -0.1334 -1.8804
66737SOL     OW10524   3.447   8.396   7.690  0.3643  0.1126 -0.5180
66737SOL    HW110525   3.390   8.388   7.767  2.4947  4.8060  2.0054
66737SOL    HW210526   3.397   8.450   7.629  0.8296  1.5524  0.3277
66738SOL     OW10527  11.748   6.968   3.661  0.1956 -0.7422  0.1189
66738SOL    HW110528  11.662   6.925   3.668  0.1124 -0.3224  2.8458
66738SOL    HW210529  11.736   7.034   3.593 -1.6572 -0.7253  0.3978
66739SOL     OW10530   4.065   3.497   4.869  0.0253 -0.0063 -0.2085
66739SOL    HW110531   4.080   3.424   4.809 -0.7889  0.0892 -0.5387
66739SOL    HW210532   4.019   3.459   4.943  1.4590 -0.2173  0.6047
66740SOL     OW10533   5.750   8.196   2.215 -0.1421 -0.4520 -0.2583
66740SOL    HW110534   5.668   8.245   2.214 -0.9989 -1.8235  0.2871
66740SOL    HW210535   5.779   8.197   2.124 -0.5477  0.3813 -0.3898
66741SOL     OW10536   2.396  12.558   5.370  0.0508 -0.4033  0.0775
66741SOL    HW110537   2.342  12.520   5.438  1.1047 -0.5135  0.8865
66741SOL    HW210538   2.485  12.555   5.405  0.2653  2.3678  0.0193
66742SOL     OW10539   3.747   4.931   0.993  0.0863  0.0264  0.3671
66742SOL    HW110540   3.829   4.978   0.982 -0.0376 -0.0434 -1.1025
66742SOL    HW210541   3.764   4.868   1.063  0.8307  0.9758  1.0639
66743SOL     OW10542  10.052   7.656   2.012 -0.5816  0.3815 -0.4153
66743SOL    HW110543  10.095   7.571   2.003  1.2594  1.0107  1.4124
66743SOL    HW210544  10.001   7.666   1.932 -1.0324 -2.5043 -0.5992
66744SOL     OW10545   9.118  11.636   0.109 -0.0134  0.2515 -0.5768
66744SOL    HW110546   9.112  11.578   0.034 -2.8382  0.2384 -0.4650
66744SOL    HW210547   9.170  11.588   0.174 -0.3147 -1.1341 -1.3423
66745SOL     OW10548   1.489   8.867   2.020  0.3067  0.0558  0.0506
66745SOL    HW110549   1.508   8.952   2.060 -0.9889  0.5088 -0.2303
66745SOL    HW210550   1.445   8.889   1.938  2.6158 -0.8528 -1.5307
66746SOL     OW10551  12.491   3.300  12.633  0.9860  0.1352 -0.3091
66746SOL    HW110552  12.571   3.288  12.684  1.9834  1.4827 -1.4662
66746SOL    HW210553  12.509   3.256  12.550  0.3406  0.0579 -0.4108
66747SOL     OW10554  11.480   5.989   0.646  0.0564  0.3996  0.7229
66747SOL    HW110555  11.543   6.049   0.686  2.0096 -0.0728 -1.4476
66747SOL    HW210556  11.413   6.047   0.608  1.7154  1.2802 -1.0189
66748SOL     OW10557   9.426   6.398   3.434 -0.3703  0.4274 -0.7046
66748SOL    HW110558   9.353   6.338   3.446 -1.2211  1.3129 -1.2402
66748SOL    HW210559   9.501   6.342   3.416 -0.9075 -0.5034 -0.1195
66749SOL     OW10560   5.025   8.112   5.758  0.2250  0.3422 -0.2422
66749SOL    HW110561   4.976   8.058   5.820 -0.3901 -0.2852 -1.2646
66749SOL    HW210562   5.018   8.201   5.794 -1.0106  0.1504  0.0401
66750SOL     OW10563  11.325   6.942   0.766  0.0716 -0.4763 -0.5027
66750SOL    HW110564  11.316   6.870   0.829  0.2041  0.8778  1.1373
66750SOL    HW210565  11.407   6.923   0.719  0.7613 -0.7635  0.7746
66751SOL     OW10566   2.808   6.365   8.849  0.2137  0.6814 -0.9420
66751SOL    HW110567   2.855   6.324   8.921 -1.4801 -0.5528 -0.4699
66751SOL    HW210568   2.739   6.302   8.826  0.3950  1.2691 -3.3161
66752SOL     OW10569   7.961   4.015   3.783  0.2450  0.3775  0.3664
66752SOL    HW110570   8.026   4.012   3.854  0.6538  1.6099  0.0679
66752SOL    HW210571   7.974   3.932   3.736  0.0884 -0.3852  1.6036
66753SOL     OW10572  10.821  12.909   3.750 -0.3732  0.8496 -0.1374
66753SOL    HW110573  10.900  12.856   3.766  0.6807  2.7398  1.2541
66753SOL    HW210574  10.786  12.875   3.668  1.2439 -0.8118 -0.2009
66754SOL     OW10575  10.025   2.800  10.728 -0.1025  0.0549  0.2465
66754SOL    HW110576  10.057   2.805  10.638 -0.7248 -1.3222 -0.0804
66754SOL    HW210577  10.086   2.854  10.778  1.1798 -0.4006 -0.7580
66755SOL     OW10578   8.958  10.214   0.287 -0.3480  0.4993 -0.0328
66755SOL    HW110579   9.023  10.144   0.276 -0.4895  0.5712 -1.5681
66755SOL    HW210580   9.009  10.291   0.312 -0.0700  0.1248  0.5918
66756SOL     OW10581   1.836   0.930   3.297  0.4400  0.3512  0.0383
66756SOL    HW110582   1.845   0.840   3.329 -0.7536  0.2568  0.1692
66756SOL    HW210583   1.798   0.978   3.370 -5.1772 -0.4883 -1.7487
66757SOL     OW10584   6.756  12.293  12.534  0.3760  0.2365 -0.5815
66757SOL    HW110585   6.841  12.331  12.554  1.1367 -0.9518 -1.3785
66757SOL    HW210586   6.721  12.347  12.463 -0.0793  1.4165  0.5088
66758SOL     OW10587   7.850   7.129   7.555 -0.1695 -0.3087 -0.3644
66758SOL    HW110588   7.785   7.082   7.608  0.4962  1.5051  2.2940
66758SOL    HW210589   7.907   7.170   7.619  2.0785  0.2818 -2.6025
66759SOL     OW10590   7.310  11.685   3.711 -0.6970 -0.1477 -0.0172
66759SOL    HW110591   7.293  11.632   3.789  1.6932 -0.8681  0.0950
66759SOL    HW210592   7.306  11.776   3.743  3.6653 -0.3873  1.9641
66760SOL     OW10593   0.139   7.171   9.435  0.6872  0.4964 -0.1852
66760SOL    HW110594   0.196   7.105   9.475 -0.1161 -0.0563  0.0545
66760SOL    HW210595   0.125   7.236   9.504 -0.5409 -0.3574  0.3926
66761SOL     OW10596  10.914   2.103   8.010  0.2023 -0.3744 -0.1601
66761SOL    HW110597  10.962   2.087   8.092  0.6585 -2.8556 -0.8482
66761SOL    HW210598  10.873   2.188   8.024  1.5153 -0.0036  2.0440
66762SOL     OW10599   4.371   3.524   9.799 -0.3240 -0.2485 -0.1981
66762SOL    HW110600   4.391   3.615   9.817 -1.2616  0.5365 -2.7301
66762SOL    HW210601   4.275   3.518   9.808 -0.1265 -1.4919  1.7963
66763SOL     OW10602   9.369   0.182   8.433 -0.2290  0.2250  0.2398
66763SOL    HW110603   9.288   0.233   8.429  0.2354  1.0611  1.0506
66763SOL    HW210604   9.419   0.222   8.504 -0.7986 -2.7968  2.5505
66764SOL     OW10605  12.253  12.337   6.972 -0.0754  0.1248  0.0449
66764SOL    HW110606  12.174  12.364   6.924 -0.0974  2.8187  1.4106
66764SOL    HW210607  12.221  12.313   7.059  0.4017 -0.9096 -0.0497
66765SOL     OW10608  10.663  11.465   9.447 -0.1471  0.0302  0.4475
66765SOL    HW110609  10.731  11.419   9.497  0.3508 -0.2600 -0.4873
66765SOL    HW210610  10.710  11.533   9.398 -0.2929 -1.1077 -1.3527
66766SOL     OW10611   5.334   7.238   9.061  0.4505 -0.5294  0.1615
66766SOL    HW110612   5.259   7.180   9.075  0.1626  0.0260  1.0081
66766SOL    HW210613   5.333   7.257   8.967 -1.5919  0.9400  0.3947
66767SOL     OW10614   5.741  10.045   2.380 -0.5887 -0.0293 -0.2080
66767SOL    HW110615   5.674  10.026   2.314 -1.8163 -0.7029  1.1798
66767SOL    HW210616   5.824  10.034   2.333 -1.3965  1.8973 -2.2694
66768SOL     OW10617  12.750   7.885  11.859  0.0270  0.2228  0.3180
66768SOL    HW110618  12.720   7.874  11.769 -0.4421 -0.6830  0.5765
66768SOL    HW210619  12.844   7.866  11.854  0.0886  0.5892 -0.0443
66769SOL     OW10620  12.054   9.373   8.644 -0.6690 -0.1749 -0.5404
66769SOL    HW110621  12.043   9.430   8.720  0.1749 -1.8661  0.9260
66769SOL    HW210622  12.011   9.291   8.670  0.3961 -1.0761 -1.5361
66770SOL     OW10623   4.796   8.826   0.727  0.2995  0.0360  0.6740
66770SOL    HW110624   4.777   8.777   0.807  0.0484 -2.4131 -0.7909
66770SOL    HW210625   4.879   8.871   0.745  0.0122 -0.0931  2.4422
66771SOL     OW10626   3.415   6.904   5.528  0.5398 -0.8342  0.2132
66771SOL    HW110627   3.398   6.837   5.593  0.1928 -1.3534 -0.3941
66771SOL    HW210628   3.351   6.973   5.547  0.4419 -0.9822  0.4166
66772SOL     OW10629   2.736   7.929  11.046  0.0807  0.4131  0.1708
66772SOL    HW110630   2.825   7.900  11.026  0.3738  1.6065 -0.3434
66772SOL    HW210631   2.717   7.996  10.980 -1.2887  0.0186  0.1269
66773SOL     OW10632   4.104   7.343   0.625  0.2755  0.5389  0.0764
66773SOL    HW110633   4.061   7.300   0.699  0.1581  0.3866 -0.0763
66773SOL    HW210634   4.186   7.375   0.660  1.4420 -1.7878 -0.3137
66774SOL     OW10635   5.411   7.431   1.990 -0.4408  0.0439 -0.6490
66774SOL    HW110636   5.321   7.453   1.969 -0.2999  0.0707 -1.2326
66774SOL    HW210637   5.432   7.485   2.066 -1.1989 -0.6152  0.0408
66775SOL     OW10638  10.786   5.329   5.340 -0.0556 -0.0537  0.3180
66775SOL    HW110639  10.801   5.323   5.246  0.4694  0.7207  0.3370
66775SOL    HW210640  10.810   5.420   5.362 -1.7514  0.2727  0.9154
66776SOL     OW10641  11.419   1.663   8.305 -0.7253 -0.2385 -0.1584
66776SOL    HW110642  11.495   1.657   8.247 -0.8670  0.0415 -0.3798
66776SOL    HW210643  11.455   1.694   8.388 -0.4175 -1.3250  0.1269
66777SOL     OW10644   0.249   9.749  11.573 -0.0129  0.0535 -0.1779
66777SOL    HW110645   0.169   9.787  11.536 -0.1839  0.0829  0.2133
66777SOL    HW210646   0.264   9.670  11.521  0.2691  0.5698 -0.9080
66778SOL     OW10647   7.102   7.119   7.843  0.2842 -0.9723  0.2699
66778SOL    HW110648   7.125   7.183   7.911 -0.5908 -1.0864  0.6834
66778SOL    HW210649   7.177   7.059   7.840  1.3143  0.2943 -0.4225
66779SOL     OW10650  11.894   1.032   4.636  0.3848 -0.2894 -0.3763
66779SOL    HW110651  11.814   1.056   4.682 -0.7892  1.5316 -3.0919
66779SOL    HW210652  11.893   0.937   4.633 -0.8570 -0.3377  0.9547
66780SOL     OW10653   2.663   9.216  10.838 -0.2327 -0.1435 -0.3438
66780SOL    HW110654   2.655   9.125  10.866  0.5992  0.2464  1.3382
66780SOL    HW210655   2.576   9.241  10.809 -0.8184 -1.0643  0.5606
66781SOL     OW10656   4.477   3.289  10.150  0.3977  0.1071 -0.0072
66781SOL    HW110657   4.517   3.342  10.082 -2.3311  0.6423 -1.3332
66781SOL    HW210658   4.438   3.215  10.104 -0.1487 -0.3862  1.1933
66782SOL     OW10659  10.650   7.781   0.656 -0.2738  0.3211 -0.0776
66782SOL    HW110660  10.690   7.705   0.615  0.9046  0.1575  1.2801
66782SOL    HW210661  10.622   7.836   0.583  1.6412  0.0205 -1.1205
66783SOL     OW10662  10.440   1.178  12.424 -0.5928 -0.1547  0.3510
66783SOL    HW110663  10.457   1.198  12.332 -1.8671  0.1865  0.1783
66783SOL    HW210664  10.412   1.261  12.462 -1.2235 -0.5501  0.7648
66784SOL     OW10665   3.144   1.517   8.573 -0.6217 -0.0930 -0.2555
66784SOL    HW110666   3.055   1.534   8.543 -0.8368  0.4546  0.6418
66784SOL    HW210667   3.153   1.571   8.651 -1.1077 -3.4672  2.4013
66785SOL     OW10668   1.068  11.617   7.375 -1.2563  0.1569 -0.7697
66785SOL    HW110669   1.116  11.535   7.388  0.6630  1.4471  0.9327
66785SOL    HW210670   1.010  11.599   7.302 -1.7357 -3.0671  0.2387
66786SOL     OW10671  12.088   8.677   2.504 -0.4717 -0.0337  0.1119
66786SOL    HW110672  12.080   8.619   2.580 -0.8393 -0.3143 -0.1387
66786SOL    HW210673  12.063   8.763   2.538 -0.9570 -0.2175  0.2342
66787SOL     OW10674  11.916   0.232   6.209 -0.0864  0.2756  0.3124
66787SOL    HW110675  11.885   0.322   6.200 -0.6107  0.0565 -0.1738
66787SOL    HW210676  12.011   0.239   6.216 -0.0356  0.8051 -0.7757
66788SOL     OW10677   3.793  10.760   9.737  0.2889 -0.3862 -0.0898
66788SOL    HW110678   3.848  10.693   9.778 -0.5583  0.2419  2.2241
66788SOL    HW210679   3.723  10.710   9.695  0.9466 -1.0314 -0.4528
66789SOL     OW10680  10.154   5.088   4.535 -0.4534 -0.0436 -0.8352
66789SOL    HW110681  10.203   5.086   4.453  1.6311  0.6423  0.3103
66789SOL    HW210682  10.196   5.021   4.590  1.0805  2.3084  1.0940
66790SOL     OW10683   1.331   9.581  10.498 -0.1268 -0.0518  0.4963
66790SOL    HW110684   1.236   9.580  10.486 -0.3922  1.4536  2.0499
66790SOL    HW210685   1.356   9.672  10.483  1.6634 -0.9787 -3.3270
66791SOL     OW10686   0.619   4.709  10.081 -0.6237  0.7129 -0.3019
66791SOL    HW110687   0.658   4.640  10.135 -1.0609 -0.3256 -1.2675
66791SOL    HW210688   0.690   4.735  10.021 -1.1384 -0.7022 -1.6080
66792SOL     OW10689   8.347   9.523   2.747  0.6016  0.5098 -0.3496
66792SOL    HW110690   8.314   9.451   2.693 -0.1200 -0.4988  1.3672
66792SOL    HW210691   8.436   9.537   2.716  0.7750 -1.1676 -0.6963
66793SOL     OW10692  12.521   9.109   1.986  0.2883 -0.5401  0.0882
66793SOL    HW110693  12.501   9.026   1.943  0.1485 -0.6075  0.2802
66793SOL    HW210694  12.573   9.084   2.063  0.8742 -0.3920 -0.2513
66794SOL     OW10695   4.818   1.235   6.525 -0.0816  0.8547  0.5033
66794SOL    HW110696   4.740   1.184   6.550 -0.7601  2.4960  1.9318
66794SOL    HW210697   4.892   1.179   6.550 -0.7457 -0.8599 -1.1564
66795SOL     OW10698  10.207   3.345   8.803 -0.1427  0.0175 -0.5472
66795SOL    HW110699  10.179   3.333   8.894 -1.0086  0.2121 -0.7776
66795SOL    HW210700  10.197   3.438   8.787 -0.1487 -0.0430 -0.8971
66796SOL     OW10701   9.519   9.327   4.348  0.7175  0.4721  0.6038
66796SOL    HW110702   9.511   9.355   4.256 -1.9844  0.3158  0.7045
66796SOL    HW210703   9.467   9.391   4.396  0.2380 -0.7407  1.7322
66797SOL     OW10704  10.390   2.232   9.000  0.2583 -0.1712  0.4876
66797SOL    HW110705  10.460   2.197   9.054  0.1779  0.7985  1.2422
66797SOL    HW210706  10.322   2.260   9.062  0.4219  1.5189 -0.0355
66798SOL     OW10707   0.983   1.312   0.641 -0.4091  0.1982 -0.0133
66798SOL    HW110708   0.888   1.313   0.633 -0.3587  0.8319 -0.6660
66798SOL    HW210709   1.014   1.348   0.558  0.4232 -0.6503 -0.0868
66799SOL     OW10710   3.839   3.170   9.188  0.2909 -0.1175 -0.5573
66799SOL    HW110711   3.864   3.213   9.269  0.6400 -1.3066 -0.0075
66799SOL    HW210712   3.922   3.145   9.147  0.2018  1.8885 -2.1212
66800SOL     OW10713  10.285   2.387   9.683  0.0068  0.2937 -0.1233
66800SOL    HW110714  10.317   2.396   9.773  0.9521  2.1738 -0.5920
66800SOL    HW210715  10.190   2.391   9.690  0.0932  0.9464  0.7598
66801SOL     OW10716  10.344  11.115   7.979 -0.1080 -0.4587 -0.0790
66801SOL    HW110717  10.265  11.068   8.004  0.2394 -0.1746  1.7189
66801SOL    HW210718  10.415  11.054   7.998  0.1766 -0.3354 -0.7090
66802SOL     OW10719   0.665   6.618  11.034  0.3075  0.0716  0.2138
66802SOL    HW110720   0.729   6.555  11.067 -1.4524 -1.1752  1.4036
66802SOL    HW210721   0.608   6.636  11.108 -0.8620  0.9892 -0.8693
66803SOL     OW10722   8.391   0.817  11.747  0.5104 -0.6003  0.0338
66803SOL    HW110723   8.400   0.722  11.739  0.5375 -0.6654  0.7347
66803SOL    HW210724   8.312   0.829  11.801  0.5750 -0.2305  0.0524
66804SOL     OW10725   1.435  10.693   4.690  0.2438  0.2306  0.1077
66804SOL    HW110726   1.362  10.744   4.655 -0.6650 -0.5239  0.8537
66804SOL    HW210727   1.485  10.757   4.741 -0.3478  0.5965  0.2479
66805SOL     OW10728   2.759   5.590   4.603  0.0144  0.2377  0.5456
66805SOL    HW110729   2.776   5.500   4.631 -1.7766 -0.6550 -0.9899
66805SOL    HW210730   2.838   5.617   4.557  0.9808 -0.1286  1.9403
66806SOL     OW10731   9.032   1.037   8.589 -0.4384  0.0575 -0.4961
66806SOL    HW110732   9.055   1.128   8.574 -1.2941  0.0945 -1.6852
66806SOL    HW210733   9.086   1.011   8.663 -1.4855  2.0580  1.0923
66807SOL     OW10734  12.102   0.037   8.049  0.1648  0.1936  0.1098
66807SOL    HW110735  12.012   0.061   8.069 -0.0557  0.9594 -1.5762
66807SOL    HW210736  12.099  -0.055   8.026  0.0888 -0.1673  1.5230
66808SOL     OW10737   7.973   2.878   8.831  0.1559 -0.5351 -0.2556
66808SOL    HW110738   8.055   2.865   8.878 -0.8950 -2.7465  1.1479
66808SOL    HW210739   7.991   2.848   8.742  0.8027 -1.3386  0.1342
66809SOL     OW10740   3.501   2.393  10.849 -0.0188 -0.5332  0.5956
66809SOL    HW110741   3.476   2.342  10.926  0.5112 -0.4868  0.8015
66809SOL    HW210742   3.446   2.471  10.853 -1.0688 -1.2285  0.1011
66810SOL     OW10743   4.821   0.341   3.513 -0.5717  1.0720  0.6772
66810SOL    HW110744   4.749   0.399   3.487 -0.3288  0.8944 -0.4588
66810SOL    HW210745   4.878   0.339   3.436  0.2165  0.5546  1.2711
66811SOL     OW10746   2.764   0.512   5.005  0.0601 -0.4060  0.0947
66811SOL    HW110747   2.683   0.556   4.981  0.7409 -0.1872 -1.9427
66811SOL    HW210748   2.750   0.421   4.982 -0.1188 -0.6611  1.1489
66812SOL     OW10749   5.190   9.247  12.309  0.2226 -0.3702  0.1599
66812SOL    HW110750   5.199   9.303  12.386  2.3856 -1.6120  0.9084
66812SOL    HW210751   5.102   9.265  12.276 -0.5660  0.6506  2.5835
66813SOL     OW10752   0.654   6.478   8.152  0.1302 -0.0967 -0.2388
66813SOL    HW110753   0.589   6.463   8.084 -0.9744 -2.1330  1.1526
66813SOL    HW210754   0.736   6.446   8.115 -0.4792 -1.3046 -0.6003
66814SOL     OW10755   0.769   4.304   5.111  0.0227 -0.4799  0.2104
66814SOL    HW110756   0.842   4.355   5.145 -0.7921  0.0702  1.1853
66814SOL    HW210757   0.747   4.345   5.028  1.4947 -1.3188 -0.6445
66815SOL     OW10758   6.208   0.727   0.762 -0.2725 -0.7271 -0.7096
66815SOL    HW110759   6.247   0.651   0.805 -2.1495 -0.5323  1.5066
66815SOL    HW210760   6.272   0.797   0.774  0.5885 -1.4401 -1.0143
66816SOL     OW10761  11.922   4.551  10.436  0.1930  0.8466  0.3931
66816SOL    HW110762  11.856   4.515  10.495  0.2451 -1.2332 -0.7362
66816SOL    HW210763  11.994   4.488  10.438  0.0491  0.4727 -2.1138
66817SOL     OW10764   7.720  10.205   0.844 -0.4707  0.3528  0.3807
66817SOL    HW110765   7.675  10.287   0.865 -1.0659 -0.1834  1.2610
66817SOL    HW210766   7.726  10.159   0.928 -1.5320 -1.1875 -0.3483
66818SOL     OW10767   1.956  11.639  11.520  0.2674 -0.5741 -0.2511
66818SOL    HW110768   2.005  11.700  11.465  0.2703 -0.5390 -0.2094
66818SOL    HW210769   1.865  11.665  11.509  0.2610 -0.6151 -0.3000
66819SOL     OW10770   7.738  12.548   1.997  0.1116  0.1138  0.5370
66819SOL    HW110771   7.761  12.614   1.931  0.9699  0.6147  1.3170
66819SOL    HW210772   7.789  12.573   2.074  3.0758 -3.2857 -0.0539
66820SOL     OW10773   4.239   1.356   6.531  0.2277 -0.2295  0.5795
66820SOL    HW110774   4.293   1.376   6.608 -1.1236 -1.1295  1.8215
66820SOL    HW210775   4.153   1.394   6.551 -0.2399 -0.7475 -0.3447
66821SOL     OW10776   9.534   3.248   5.450  0.0533  0.0934  0.1111
66821SOL    HW110777   9.601   3.210   5.507  0.1255 -1.3356 -0.8853
66821SOL    HW210778   9.576   3.256   5.365 -0.3263  1.4074  0.0299
66822SOL     OW10779   1.691   5.452   5.775 -0.2820 -0.1131  0.3168
66822SOL    HW110780   1.599   5.468   5.794 -0.1312 -0.6269  1.5879
66822SOL    HW210781   1.694   5.439   5.680 -1.2631  1.4364  0.0338
66823SOL     OW10782   6.807   3.147   1.546 -0.3791 -0.4708  0.2510
66823SOL    HW110783   6.821   3.181   1.634  0.8420 -0.2343 -0.0154
66823SOL    HW210784   6.879   3.087   1.531 -0.7378 -0.7346 -0.4801
66824SOL     OW10785   7.228   0.502   3.762  0.3023 -0.4831 -0.7229
66824SOL    HW110786   7.274   0.531   3.683  1.7518 -2.8955 -0.8625
66824SOL    HW210787   7.282   0.535   3.834  0.8901 -1.1543 -0.8418
66825SOL     OW10788  12.536   0.258  11.434  0.3784  0.2714  0.1443
66825SOL    HW110789  12.512   0.256  11.527  0.6828  0.2360  0.2236
66825SOL    HW210790  12.454   0.243  11.388  0.0001  1.4920  0.3827
66826SOL     OW10791   1.945  12.442  12.782 -0.2230  1.0076  0.0772
66826SOL    HW110792   1.866  12.397  12.813  1.5705 -1.8488  0.8592
66826SOL    HW210793   1.918  12.483  12.700 -1.7861 -2.8660 -1.5978
66827SOL     OW10794   3.070   0.685   4.097 -1.4326 -0.1965 -0.0200
66827SOL    HW110795   3.092   0.739   4.173 -3.0648 -0.9962  1.0897
66827SOL    HW210796   2.975   0.693   4.088 -1.4713 -1.4093 -0.9798
66828SOL     OW10797  11.823  12.983   4.103 -0.1486  0.0225  0.2024
66828SOL    HW110798  11.796  13.074   4.087  0.1542  0.3407  1.4160
66828SOL    HW210799  11.745  12.941   4.140  0.6117  0.6603  2.6896
66829SOL     OW10800   4.438   4.939   6.857  0.1543 -0.0408 -0.0636
66829SOL    HW110801   4.507   5.006   6.861 -0.1443  0.1991  1.8600
66829SOL    HW210802   4.400   4.949   6.770  1.0133  1.3896 -0.3087
66830SOL     OW10803   6.613   2.691  10.589  0.5038 -0.0360  0.0754
66830SOL    HW110804   6.587   2.782  10.604  1.1947  0.1067  0.4482
66830SOL    HW210805   6.637   2.658  10.676  1.7997 -0.0761 -0.2781
66831SOL     OW10806   8.772  11.886   7.124  0.3471  0.1360  0.2812
66831SOL    HW110807   8.734  11.857   7.206 -0.9059 -0.0924 -0.3685
66831SOL    HW210808   8.772  11.808   7.068  1.5812  0.1834  0.1877
66832SOL     OW10809   0.583  10.617   7.547  0.1172  0.0075 -0.2341
66832SOL    HW110810   0.638  10.694   7.559 -0.9589  0.8481 -0.5187
66832SOL    HW210811   0.517  10.644   7.483  0.1988 -1.4126 -0.9587
66833SOL     OW10812   7.041  11.128   8.035 -0.5586 -0.3439 -0.5925
66833SOL    HW110813   6.964  11.072   8.040 -1.0491  0.3115 -0.5788
66833SOL    HW210814   7.005  11.217   8.024  0.1124  0.2547  1.5757
66834SOL     OW10815   8.393   6.341   1.263 -0.2531 -0.4120  0.3699
66834SOL    HW110816   8.404   6.277   1.193 -0.7935 -0.5334  0.3901
66834SOL    HW210817   8.472   6.395   1.259 -0.8623  0.4191 -1.1874
66835SOL     OW10818   6.829   2.736   3.704  0.4218  0.0569 -0.9239
66835SOL    HW110819   6.887   2.806   3.673  0.7788  0.5500  0.7375
66835SOL    HW210820   6.741   2.770   3.690  0.5645  0.2302 -1.4310
66836SOL     OW10821   3.884   6.366   7.611  0.0057  0.0760 -0.2585
66836SOL    HW110822   3.832   6.376   7.691  0.6051 -0.3816  0.1970
66836SOL    HW210823   3.968   6.409   7.631  0.8751 -1.6862  0.0645
66837SOL     OW10824   4.685   5.772   7.551  0.2927 -0.7358  0.2747
66837SOL    HW110825   4.632   5.746   7.626  2.3010 -1.5865  1.4422
66837SOL    HW210826   4.621   5.808   7.489 -1.2808  1.5220  2.9780
66838SOL     OW10827  11.232   8.683   8.352  0.2616 -0.4916 -0.4967
66838SOL    HW110828  11.170   8.692   8.424 -0.0697 -2.4910 -0.4538
66838SOL    HW210829  11.308   8.641   8.391  0.9488  0.3358 -0.9090
66839SOL     OW10830   5.069   0.753  11.820  0.8067  0.3183  0.0711
66839SOL    HW110831   5.046   0.688  11.754  2.5230  1.0915 -1.3628
66839SOL    HW210832   5.006   0.739  11.891 -2.4855  0.8300 -2.5416
66840SOL     OW10833   1.409   7.508   3.160  0.0638 -0.3577  0.0417
66840SOL    HW110834   1.470   7.573   3.125  0.4190 -0.3224  0.7111
66840SOL    HW210835   1.418   7.432   3.103 -1.1197  0.5247 -1.4023
66841SOL     OW10836   2.457   0.408   2.543  0.3097 -0.3404 -0.0789
66841SOL    HW110837   2.365   0.387   2.561  0.6173 -0.8278  0.9898
66841SOL    HW210838   2.454   0.466   2.467 -0.8109 -1.3588 -0.8476
66842SOL     OW10839  10.491   6.332  11.704  0.1233 -0.1334  0.5201
66842SOL    HW110840  10.530   6.415  11.676  0.6713 -0.7241 -0.5691
66842SOL    HW210841  10.403   6.355  11.733  0.0873  0.7603 -0.2470
66843SOL     OW10842   6.032   0.700   4.714 -0.5922 -0.6458  0.0936
66843SOL    HW110843   6.067   0.789   4.703 -1.5602 -0.2519  0.1032
66843SOL    HW210844   6.041   0.660   4.628 -0.4277 -0.4403  0.0120
66844SOL     OW10845   7.499  11.474   4.394 -1.0743 -0.1485  0.4553
66844SOL    HW110846   7.496  11.565   4.423 -1.0610 -0.5705  1.8913
66844SOL    HW210847   7.538  11.477   4.307  0.5892  1.0854  1.1889
66845SOL     OW10848  11.693   0.029  12.952 -0.0326 -0.1499  0.3394
66845SOL    HW110849  11.701  -0.065  12.938 -1.3161 -0.1712 -0.3578
66845SOL    HW210850  11.693   0.039  13.047 -0.7937 -0.9544  0.4405
66846SOL     OW10851  11.148   9.139  11.499  0.2951 -0.2494  0.6135
66846SOL    HW110852  11.155   9.200  11.426 -0.1402 -0.9648 -0.0477
66846SOL    HW210853  11.169   9.191  11.576  1.1699  0.4193 -0.0615
66847SOL     OW10854   8.789  10.599   5.364 -0.1692 -0.7372  0.4548
66847SOL    HW110855   8.818  10.562   5.448  1.8704 -1.9661 -0.6916
66847SOL    HW210856   8.815  10.533   5.300 -3.7625 -0.9160 -1.0038
66848SOL     OW10857   0.674  11.910   7.881  0.8233  0.3064  0.4082
66848SOL    HW110858   0.673  11.880   7.790 -0.0197 -0.5938  0.7050
66848SOL    HW210859   0.642  12.000   7.878 -1.2702 -0.4084  0.0332
66849SOL     OW10860  10.622   0.946   7.574  0.7628 -0.0144  0.5824
66849SOL    HW110861  10.659   0.896   7.647  1.1858 -0.8040 -0.1500
66849SOL    HW210862  10.658   0.904   7.495 -1.8125 -0.9519 -0.2085
66850SOL     OW10863  11.123   4.038  12.930  0.1913  0.0550 -0.1540
66850SOL    HW110864  11.137   3.965  12.990  0.1103 -0.1578 -0.3959
66850SOL    HW210865  11.178   4.108  12.965 -0.5695  0.2331  0.7104
66851SOL     OW10866   6.103   2.713   2.637  0.3038 -0.9335 -0.0675
66851SOL    HW110867   6.115   2.710   2.542  1.2663 -2.7985  0.0616
66851SOL    HW210868   6.037   2.780   2.651  1.1107  0.3392 -1.9510
66852SOL     OW10869   4.871   8.776   9.302  0.1430  0.2409  0.0016
66852SOL    HW110870   4.801   8.747   9.361  0.6072  0.1640  0.5148
66852SOL    HW210871   4.922   8.697   9.284  0.2178  0.3374 -0.2203
66853SOL     OW10872  11.743   6.774   7.632  0.6926  0.1832 -0.2470
66853SOL    HW110873  11.761   6.689   7.590 -0.5986  0.6651 -1.9152
66853SOL    HW210874  11.719   6.831   7.559 -0.9789  1.2849  1.0921
66854SOL     OW10875   9.226   7.050   7.340  0.2924  0.5520  0.2815
66854SOL    HW110876   9.265   7.094   7.264 -0.2549  1.0317  0.2734
66854SOL    HW210877   9.136   7.082   7.342 -0.4197 -1.2909 -0.2991
66855SOL     OW10878   4.093   5.158   5.306  0.2691  0.1125 -0.0673
66855SOL    HW110879   4.137   5.157   5.391 -0.0113  1.7081  0.1161
66855SOL    HW210880   4.075   5.065   5.288  3.0168 -0.5664  0.1601
66856SOL     OW10881  10.629   6.630  10.769  0.0707 -0.2423  0.1728
66856SOL    HW110882  10.653   6.668  10.854 -0.5971 -0.2295  0.3610
66856SOL    HW210883  10.662   6.692  10.704 -2.1580  1.4009  0.4833
66857SOL     OW10884  10.277   6.195   8.263 -0.3202  0.0934 -0.1933
66857SOL    HW110885  10.324   6.211   8.181  0.3322  1.2938  0.3819
66857SOL    HW210886  10.287   6.276   8.313  0.2441 -0.9638  1.5328
66858SOL     OW10887   9.907   8.153   5.343 -0.1629  0.7867  0.4345
66858SOL    HW110888   9.878   8.074   5.387 -0.7844 -0.0898 -1.4403
66858SOL    HW210889   9.999   8.137   5.321 -0.1203  0.8331  0.5793
66859SOL     OW10890   2.263  11.842   6.745 -0.1015 -0.2467  0.0909
66859SOL    HW110891   2.326  11.903   6.707 -0.2388  0.6716  1.2679
66859SOL    HW210892   2.178  11.875   6.717 -0.1263 -0.5223 -0.1542
66860SOL     OW10893   2.167   7.709   2.547  0.3075 -0.3420 -0.0599
66860SOL    HW110894   2.175   7.624   2.504 -2.3747 -0.7671  0.1364
66860SOL    HW210895   2.073   7.722   2.559  0.6693  2.3209  0.6231
66861SOL     OW10896   1.031  11.816   7.168  0.5331  0.4368  0.5196
66861SOL    HW110897   1.080  11.738   7.145 -0.8239 -0.4375  0.5020
66861SOL    HW210898   0.963  11.824   7.101  1.2340  2.2127 -0.0526
66862SOL     OW10899   6.995   2.559   9.602  0.6890 -0.1999  0.6268
66862SOL    HW110900   7.077   2.537   9.558 -0.3367 -2.7212 -0.2105
66862SOL    HW210901   6.989   2.654   9.597  1.9134 -0.1769 -2.3851
66863SOL     OW10902   4.652   2.060  12.455  0.1383 -0.2972  0.1073
66863SOL    HW110903   4.700   2.020  12.527  0.4336  0.3790  0.2945
66863SOL    HW210904   4.571   2.009  12.449  0.9572 -1.5797 -0.3491
66864SOL     OW10905   5.953   2.314   7.936 -0.3980 -0.2937  0.0091
66864SOL    HW110906   5.988   2.297   8.023 -0.8485 -0.0752  0.2391
66864SOL    HW210907   5.990   2.399   7.911 -3.7338  1.9570  1.9086
66865SOL     OW10908   9.812   7.598  12.825  0.2406  0.1966 -0.7313
66865SOL    HW110909   9.769   7.589  12.910  1.1567  1.3119 -0.1176
66865SOL    HW210910   9.902   7.571  12.840  0.5405  0.8891 -1.2163
66866SOL     OW10911   6.972   5.614   7.046 -0.7429  0.5349 -0.7209
66866SOL    HW110912   7.034   5.652   6.984 -0.8227  1.8575 -0.0299
66866SOL    HW210913   6.927   5.689   7.085 -1.2611 -0.2917  0.3514
66867SOL     OW10914   7.390  10.084   6.428 -0.0816  0.0040 -0.0623
66867SOL    HW110915   7.390  10.028   6.506  0.0987 -0.0782 -0.1215
66867SOL    HW210916   7.297  10.098   6.409 -0.1637 -1.4808 -0.8940
66868SOL     OW10917   4.596  11.949   2.731 -0.6001 -0.5207  0.3936
66868SOL    HW110918   4.535  11.920   2.799  1.4373 -2.2449  1.6470
66868SOL    HW210919   4.663  11.999   2.779 -0.7750  0.9992 -0.8721
66869SOL     OW10920   4.011   8.857   5.003 -0.2454 -0.3499  0.1814
66869SOL    HW110921   3.985   8.938   5.046  0.1396 -0.3389  0.4007
66869SOL    HW210922   4.022   8.881   4.911 -0.2124 -0.1728  0.2307
66870SOL     OW10923   8.820  11.744  11.547  0.1012 -0.5303 -0.0996
66870SOL    HW110924   8.828  11.724  11.640 -0.2462 -0.5948 -0.0846
66870SOL    HW210925   8.903  11.713  11.509  0.7845  0.6330  0.3878
66871SOL     OW10926   8.173   6.562   5.081 -0.9084 -0.0156 -0.5814
66871SOL    HW110927   8.180   6.538   4.988 -1.5635  1.9276 -1.1711
66871SOL    HW210928   8.256   6.605   5.100 -1.0849  0.2845 -0.4904
66872SOL     OW10929   5.104   9.674   7.073  0.6485  0.3960  0.0155
66872SOL    HW110930   5.155   9.596   7.095  1.5592  0.7919 -0.6271
66872SOL    HW210931   5.139   9.702   6.988  0.4075  1.5667  0.2969
66873SOL     OW10932  10.790  12.757  11.215 -0.0832 -0.8226  0.1963
66873SOL    HW110933  10.858  12.796  11.270  0.8099  0.2886 -1.5805
66873SOL    HW210934  10.710  12.761  11.268  0.4441  1.4480  0.9122
66874SOL     OW10935   5.840   8.951  11.625  0.6964  0.3711 -0.0275
66874SOL    HW110936   5.828   9.045  11.634  0.0253  0.1566  1.6387
66874SOL    HW210937   5.921   8.942  11.574  1.0980  1.8438  0.3071
66875SOL     OW10938  10.218   4.708   0.385  0.0406  0.1506 -0.0483
66875SOL    HW110939  10.158   4.779   0.409  0.1090 -0.3050  1.6181
66875SOL    HW210940  10.272   4.745   0.315  0.7912  2.1616  1.4569
66876SOL     OW10941   8.657   0.373  10.808 -0.0488  0.0437 -0.6814
66876SOL    HW110942   8.629   0.338  10.724  0.6372 -0.1721 -0.8276
66876SOL    HW210943   8.579   0.415  10.844 -0.0960  1.0532 -1.8987
66877SOL     OW10944   4.098   5.455   9.915 -0.0222  0.0770  0.0924
66877SOL    HW110945   4.047   5.400   9.855  0.2138 -0.0815  0.0385
66877SOL    HW210946   4.057   5.542   9.907  0.0793  0.0855 -0.3827
66878SOL     OW10947  11.780   5.498   6.620 -0.0007 -0.1158 -0.6822
66878SOL    HW110948  11.810   5.442   6.690  1.7801  0.2035 -1.1507
66878SOL    HW210949  11.692   5.466   6.599 -0.4399 -0.4089  1.4451
66879SOL     OW10950   6.062   9.506   9.144  0.0941  0.1310 -0.1325
66879SOL    HW110951   6.034   9.591   9.178  3.2681  0.7026  1.4575
66879SOL    HW210952   6.060   9.516   9.048 -1.2292  1.3643 -0.0015
66880SOL     OW10953   6.203  11.865   2.786  0.4760  0.0235 -0.9987
66880SOL    HW110954   6.206  11.771   2.768  1.6004  0.1384 -1.4764
66880SOL    HW210955   6.127  11.896   2.737  0.2194 -0.5980 -1.0060
66881SOL     OW10956   2.870  12.064   9.071 -0.1063  0.1085 -0.4161
66881SOL    HW110957   2.859  12.157   9.050  0.6292  0.6108  1.2811
66881SOL    HW210958   2.957  12.058   9.109 -1.8015 -0.3420  3.9583
66882SOL     OW10959  12.651   3.661   7.312  0.1314 -0.3153 -0.6023
66882SOL    HW110960  12.705   3.687   7.386 -0.1575 -0.3882 -0.3671
66882SOL    HW210961  12.566   3.702   7.328  0.6747  1.5270 -1.9881
66883SOL     OW10962   2.479   2.400   9.838  0.4275  0.4307  0.8977
66883SOL    HW110963   2.555   2.349   9.810  0.9278  1.6342  0.0292
66883SOL    HW210964   2.483   2.398   9.934  0.9319 -0.4048  0.8703
66884SOL     OW10965   0.796  12.067   7.182 -0.3090  0.1237  0.2669
66884SOL    HW110966   0.822  12.035   7.269 -1.9182 -1.0947  0.3555
66884SOL    HW210967   0.854  12.021   7.122 -0.3999 -0.4488  0.6040
66885SOL     OW10968   4.177   2.056   3.859 -0.5777  0.1153 -0.1456
66885SOL    HW110969   4.205   1.965   3.872 -0.5374  0.1061 -0.3030
66885SOL    HW210970   4.084   2.055   3.881 -0.5549  0.0576 -0.0469
66886SOL     OW10971  10.800  11.645   9.313  0.0894  0.3025  0.9716
66886SOL    HW110972  10.791  11.704   9.238 -0.2550 -0.2370  0.5819
66886SOL    HW210973  10.861  11.690   9.371  1.3065  0.1896 -0.1636
66887SOL     OW10974   5.747  12.688   1.464  0.3205  0.1208  0.5339
66887SOL    HW110975   5.823  12.630   1.458  0.4241  0.3616 -0.6910
66887SOL    HW210976   5.767  12.747   1.537  1.2924  0.1665  0.2421
66888SOL     OW10977   3.060   6.988   0.488 -0.0720  0.2923 -0.1285
66888SOL    HW110978   3.009   6.907   0.498  0.5851 -0.0133  0.8603
66888SOL    HW210979   3.035   7.021   0.401 -2.0659  0.2408  0.3702
66889SOL     OW10980   9.564   2.154  10.941  0.0067  0.1607  0.4641
66889SOL    HW110981   9.611   2.079  10.977 -1.7673 -0.7250  1.0573
66889SOL    HW210982   9.600   2.165  10.853 -0.9011 -2.5802 -0.3588
66890SOL     OW10983   1.814   6.909   1.926 -0.3302 -0.0164 -0.4166
66890SOL    HW110984   1.900   6.867   1.925 -1.2171 -1.9651  0.4572
66890SOL    HW210985   1.756   6.846   1.968 -1.7920  2.1041  0.9579
66891SOL     OW10986   6.347   9.074   2.489  0.3116  0.3425 -0.6665
66891SOL    HW110987   6.395   9.091   2.408  0.4036  3.0623 -0.1159
66891SOL    HW210988   6.413   9.084   2.558 -0.3915  1.0749 -0.0918
66892SOL     OW10989   8.664   2.976   4.433 -0.0371 -0.4280 -0.0661
66892SOL    HW110990   8.586   3.015   4.394  0.0671  2.0545  1.9128
66892SOL    HW210991   8.731   2.985   4.365 -1.0467 -1.2277 -1.2342
66893SOL     OW10992   7.257   3.527   6.275 -0.0208  0.2990  0.2342
66893SOL    HW110993   7.298   3.440   6.276 -0.0486  0.2822 -0.0648
66893SOL    HW210994   7.227   3.540   6.365  4.9024  2.3658  1.8957
66894SOL     OW10995   6.337  11.532   3.664  0.3494 -0.4682 -0.3844
66894SOL    HW110996   6.249  11.518   3.700 -0.3686 -1.3014 -2.3443
66894SOL    HW210997   6.350  11.626   3.670 -0.5804 -0.3574  0.1567
66895SOL     OW10998  11.182   0.180   9.192 -0.2191 -0.1501  0.6433
66895SOL    HW110999  11.185   0.239   9.117  0.5876  0.9142  1.4767
66895SOL    HW211000  11.273   0.176   9.223 -0.3407 -1.5090  0.8526
66896SOL     OW11001   9.043   2.014   2.047  0.3323 -0.1070 -0.5859
66896SOL    HW111002   9.069   1.989   2.136 -0.5417 -0.2338 -0.3620
66896SOL    HW211003   9.126   2.026   2.001  1.0131  3.7780  1.2281
66897SOL     OW11004   0.268  12.305   5.178  0.0705  0.0792 -0.3826
66897SOL    HW111005   0.276  12.382   5.234 -1.0713  0.3289 -0.5325
66897SOL    HW211006   0.352  12.299   5.133  0.8736  0.0891  1.0622
66898SOL     OW11007   2.200   0.469  12.595  0.6045 -0.6787  0.2703
66898SOL    HW111008   2.292   0.456  12.570  0.5465 -0.0473 -0.3090
66898SOL    HW211009   2.204   0.498  12.686  0.8918 -1.9277  0.6755
66899SOL     OW11010  11.234   1.777  11.623 -0.1061  0.0630  0.2608
66899SOL    HW111011  11.301   1.831  11.665 -0.8589  0.1445  1.4237
66899SOL    HW211012  11.160   1.837  11.612 -0.4746 -0.3844  0.2987
66900SOL     OW11013   1.720   0.237   4.053  0.3438  0.4407 -0.1024
66900SOL    HW111014   1.671   0.302   4.104  0.6851  0.6162  0.0062
66900SOL    HW211015   1.731   0.278   3.967 -0.7970 -0.1192 -0.5451
66901SOL     OW11016  11.240   2.260   2.414  0.7814 -0.3875 -0.1290
66901SOL    HW111017  11.145   2.258   2.428  0.7368  1.5384  0.0695
66901SOL    HW211018  11.249   2.277   2.320  0.9165 -0.0795 -0.0607
66902SOL     OW11019   1.344  12.385   5.270 -0.7523  0.3424 -0.4365
66902SOL    HW111020   1.259  12.426   5.251 -1.2208 -0.3151  0.1690
66902SOL    HW211021   1.340  12.301   5.224 -1.4409 -0.7633  1.5189
66903SOL     OW11022   0.391  10.245   3.454  1.0260  0.2583 -0.3796
66903SOL    HW111023   0.335  10.303   3.505  1.2290  0.5404 -0.4748
66903SOL    HW211024   0.479  10.282   3.463  1.0037  0.5329 -1.2478
66904SOL     OW11025  12.848  11.458   6.470 -0.1645  0.1872 -0.2042
66904SOL    HW111026  12.883  11.399   6.403 -0.5580  0.6498 -0.8275
66904SOL    HW211027  12.920  11.468   6.533  0.1672 -0.3504 -0.4852
66905SOL     OW11028  12.521  12.667   1.094 -0.1365  0.0044 -0.1082
66905SOL    HW111029  12.609  12.654   1.129 -0.3276 -1.6722 -0.1967
66905SOL    HW211030  12.462  12.646   1.167 -0.4941 -1.4832 -0.7908
66906SOL     OW11031   3.271   4.890   2.138 -0.6962 -0.0243  0.5964
66906SOL    HW111032   3.196   4.948   2.125  0.3150  1.6516  1.8930
66906SOL    HW211033   3.250   4.812   2.086 -2.0438  1.5248 -1.3043
66907SOL     OW11034  12.218   1.635   7.387  0.1573  0.2160  0.0844
66907SOL    HW111035  12.265   1.704   7.342 -1.2533  0.5894 -0.8730
66907SOL    HW211036  12.278   1.560   7.385  0.4633  0.4660 -1.6961
66908SOL     OW11037  11.926  11.470   2.885 -0.3630  0.6326  0.0420
66908SOL    HW111038  11.882  11.530   2.946 -1.4506  0.1197 -0.2022
66908SOL    HW211039  12.018  11.474   2.909 -0.5978  1.4264  0.8683
66909SOL     OW11040   0.536  10.247   0.897  0.1790 -0.0042 -0.3225
66909SOL    HW111041   0.609  10.193   0.868  0.3541 -0.1223  0.3083
66909SOL    HW211042   0.492  10.273   0.817  0.7097 -0.2199 -0.6920
66910SOL     OW11043  10.044   9.923  11.028 -0.9289  0.4919 -0.3135
66910SOL    HW111044  10.136   9.910  11.006 -1.0577  1.2024 -1.3641
66910SOL    HW211045  10.043  10.005  11.078 -0.9877  0.5049 -0.3353
66911SOL     OW11046  11.488  12.646  12.296 -0.0279  0.1978  0.1859
66911SOL    HW111047  11.471  12.575  12.358 -1.8808  0.3976 -0.0338
66911SOL    HW211048  11.562  12.694  12.335 -1.4980  0.6791  2.6380
66912SOL     OW11049   6.713   2.274   9.065  0.1639 -0.3974 -0.1447
66912SOL    HW111050   6.754   2.196   9.026  0.8191 -0.2567  0.2538
66912SOL    HW211051   6.784   2.338   9.070 -0.4798  0.4081 -0.9330
66913SOL     OW11052   0.833   5.000   4.458 -0.2489 -0.4875 -0.0908
66913SOL    HW111053   0.874   5.074   4.502  0.2634 -1.4583  1.1280
66913SOL    HW211054   0.870   5.000   4.370 -2.4102  2.3998 -1.1541
66914SOL     OW11055  11.262   1.635   3.622 -0.3306 -0.3038 -0.0710
66914SOL    HW111056  11.297   1.550   3.647 -0.6377  0.1817  2.2029
66914SOL    HW211057  11.174   1.617   3.591 -0.3623 -0.8316  0.3145
66915SOL     OW11058  12.334  10.484  12.639  0.5858 -0.6820 -0.3288
66915SOL    HW111059  12.335  10.482  12.544  0.9460  1.7959 -0.4382
66915SOL    HW211060  12.253  10.439  12.663 -0.2385 -0.1036 -1.8793
66916SOL     OW11061  10.646   9.449   1.167  0.0724 -0.3324 -0.5531
66916SOL    HW111062  10.661   9.397   1.247 -0.7512 -0.1840 -0.2908
66916SOL    HW211063  10.629   9.538   1.200  1.1820  0.0524 -0.9832
66917SOL     OW11064  10.010   4.219   4.852 -0.1723 -0.1875  0.2361
66917SOL    HW111065  10.076   4.259   4.795 -0.1704 -0.5712 -0.0385
66917SOL    HW211066   9.946   4.181   4.792 -1.1529  0.9880  0.5045
66918SOL     OW11067   2.234  10.381   7.919  0.4849 -0.1123  0.0753
66918SOL    HW111068   2.216  10.459   7.970  0.4955  0.7373 -1.1905
66918SOL    HW211069   2.311  10.404   7.867 -0.8794 -0.1078 -2.0368
66919SOL     OW11070   3.762  11.834   9.620 -0.3378 -0.0602 -0.1591
66919SOL    HW111071   3.816  11.763   9.584  0.2240 -0.4366  1.3594
66919SOL    HW211072   3.794  11.912   9.575  2.8206  0.0325  1.9240
66920SOL     OW11073   9.027   0.489   8.164 -0.7580  0.5123 -0.0381
66920SOL    HW111074   9.053   0.581   8.157 -0.0132  0.3797  0.7914
66920SOL    HW211075   8.958   0.489   8.230 -0.7725  0.4903 -0.0529
66921SOL     OW11076  11.131   8.894   9.719 -0.0357 -0.2380  0.0100
66921SOL    HW111077  11.097   8.885   9.629  0.3613 -1.6871 -0.0154
66921SOL    HW211078  11.052   8.896   9.774 -0.4891  3.6170 -0.4807
66922SOL     OW11079   1.593   6.532   3.581 -0.1973 -0.3117 -0.3320
66922SOL    HW111080   1.510   6.546   3.535  0.2551 -0.6262 -1.2489
66922SOL    HW211081   1.593   6.439   3.603 -0.3204 -0.2034  0.1428
66923SOL     OW11082   7.669   7.200   7.237 -0.5713  0.2136 -0.3727
66923SOL    HW111083   7.638   7.291   7.238  2.1881  1.3045 -2.1767
66923SOL    HW211084   7.749   7.201   7.289 -0.5061 -1.1882 -0.4130
66924SOL     OW11085   9.173   5.148   7.419  0.3128 -0.1120 -0.0124
66924SOL    HW111086   9.113   5.097   7.364  0.8353  1.0971 -1.8301
66924SOL    HW211087   9.261   5.122   7.389  0.7041 -0.9055  1.7035
66925SOL     OW11088   4.892  11.489   0.169  0.0657  0.5780 -0.1307
66925SOL    HW111089   4.935  11.430   0.232 -0.0203 -0.4183 -0.9697
66925SOL    HW211090   4.872  11.568   0.220 -0.1065 -0.2362  1.1262
66926SOL     OW11091  11.903   8.201   4.039 -0.6305  0.0615  0.6475
66926SOL    HW111092  11.963   8.157   4.099  0.1501  1.1657  0.7234
66926SOL    HW211093  11.958   8.229   3.966 -1.4167 -0.5335 -0.1972
66927SOL     OW11094   7.654  12.061   2.159 -0.5641  0.8404 -0.1352
66927SOL    HW111095   7.608  12.142   2.140  2.6184  2.8064 -0.1653
66927SOL    HW211096   7.671  12.064   2.253 -0.5767  0.0596 -0.0952
66928SOL     OW11097   5.706  12.102   2.568  0.1145 -0.0373 -0.1676
66928SOL    HW111098   5.758  12.165   2.518 -0.0514 -0.0500 -0.3594
66928SOL    HW211099   5.767  12.066   2.632  0.2546  0.1929 -0.1695
66929SOL     OW11100   1.679  11.010   8.065  0.0765  0.1925  0.4756
66929SOL    HW111101   1.745  10.944   8.087 -1.1067 -0.7908  1.2503
66929SOL    HW211102   1.630  11.024   8.146 -1.6210 -0.2665 -0.4047
66930SOL     OW11103   3.400   8.764  10.817 -0.3036 -0.1002 -0.5569
66930SOL    HW111104   3.396   8.777  10.911 -1.4438  1.9099 -0.8256
66930SOL    HW211105   3.440   8.677  10.806 -1.7316 -1.1488  1.7817
66931SOL     OW11106   2.796  10.238  10.866 -0.1859  0.1619  0.0312
66931SOL    HW111107   2.747  10.162  10.898  0.4474  0.2446  1.2346
66931SOL    HW211108   2.836  10.275  10.944  0.5719  0.9794 -0.7318
66932SOL     OW11109   6.988   6.860   5.719 -0.0363 -0.1529 -0.4148
66932SOL    HW111110   6.897   6.852   5.745 -0.5686 -0.3614 -2.1780
66932SOL    HW211111   7.011   6.951   5.739 -1.1624  0.3878 -1.4067
66933SOL     OW11112   0.095   0.085   2.046 -0.1626 -0.7973  0.0336
66933SOL    HW111113   0.144   0.005   2.024  0.7690 -0.6257  1.3722
66933SOL    HW211114   0.143   0.155   2.002 -1.1027 -0.9557 -1.3192
66934SOL     OW11115   8.768   2.293   5.717  0.3714  0.0016  0.1652
66934SOL    HW111116   8.835   2.341   5.669  2.1448 -0.5842  1.9072
66934SOL    HW211117   8.709   2.259   5.650  0.7843  2.0254 -1.2905
66935SOL     OW11118   8.060   3.329   1.103 -0.4999 -0.4420  0.3173
66935SOL    HW111119   8.083   3.422   1.100 -2.3781  0.0333 -1.0107
66935SOL    HW211120   8.134   3.288   1.148  0.7997  1.5537  0.1478
66936SOL     OW11121   4.755   5.892   2.182  0.4009  0.2885 -0.2613
66936SOL    HW111122   4.813   5.922   2.252 -0.3974  0.6517  0.2641
66936SOL    HW211123   4.768   5.955   2.111 -2.1180  2.7690  1.2429
66937SOL     OW11124  12.054   6.638   4.982 -0.2082  0.0436  0.6392
66937SOL    HW111125  11.970   6.682   4.971  0.3897  1.2676  0.8467
66937SOL    HW211126  12.044   6.555   4.935 -1.0605  0.7925 -0.5530
66938SOL     OW11127   5.175   7.037   6.140 -0.5354  0.1935  0.9936
66938SOL    HW111128   5.217   7.118   6.110 -1.3277  0.9173  1.7997
66938SOL    HW211129   5.097   7.028   6.084 -0.1183 -0.3661  0.4828
66939SOL     OW11130   3.584   8.285   7.913 -0.7021 -0.0139 -0.1463
66939SOL    HW111131   3.532   8.308   7.836 -1.1187 -1.0818 -0.1994
66939SOL    HW211132   3.639   8.212   7.884 -1.1169 -0.6692  0.6524
66940SOL     OW11133   9.989   4.080   2.769 -0.2479 -0.4918 -0.4454
66940SOL    HW111134   9.964   4.095   2.860  0.9829 -1.2288  0.0434
66940SOL    HW211135   9.984   3.985   2.758 -1.5110 -0.3376 -1.5163
66941SOL     OW11136   0.272   1.647  12.710 -1.2374  0.5985 -0.4699
66941SOL    HW111137   0.365   1.657  12.727 -1.3279  1.6080 -0.5547
66941SOL    HW211138   0.267   1.610  12.622 -0.9326  1.1372 -0.7137
66942SOL     OW11139   1.354   2.319   7.039 -0.0368  0.2515  0.0779
66942SOL    HW111140   1.370   2.364   7.121  0.6837  0.1660 -0.0122
66942SOL    HW211141   1.259   2.309   7.035  0.0405 -1.9551  2.0711
66943SOL     OW11142  11.003   9.072   4.352  0.2559  0.1859  0.0001
66943SOL    HW111143  11.027   8.980   4.358  1.9299  0.5593 -0.2953
66943SOL    HW211144  11.029   9.097   4.263 -1.1573  0.6978 -0.2906
66944SOL     OW11145   6.417   5.903   8.386  0.0968 -0.3867 -0.8679
66944SOL    HW111146   6.438   5.937   8.299 -0.8804  0.5966 -0.7392
66944SOL    HW211147   6.405   5.809   8.373  1.1887 -0.4568 -1.5472
66945SOL     OW11148   6.725   3.074   6.276 -0.4638  0.6940  0.5913
66945SOL    HW111149   6.639   3.070   6.232  0.4967 -0.7643 -1.3226
66945SOL    HW211150   6.761   3.158   6.248 -0.1922  0.1266 -0.8859
66946SOL     OW11151   1.883  11.695   3.836  0.2836 -0.2655 -0.2120
66946SOL    HW111152   1.821  11.754   3.792  0.4143  0.7768  0.9640
66946SOL    HW211153   1.911  11.635   3.767 -2.3104 -1.0356 -0.7344
66947SOL     OW11154  10.946   4.641   2.356 -0.1199  0.2033  0.1551
66947SOL    HW111155  10.860   4.618   2.391 -0.2673  1.2757  0.5428
66947SOL    HW211156  10.957   4.733   2.380  0.4730  0.5132 -1.2553
66948SOL     OW11157   9.143  10.208   3.843 -0.2835  0.1822 -0.6196
66948SOL    HW111158   9.081  10.218   3.771 -0.4765  0.9371 -0.3503
66948SOL    HW211159   9.113  10.270   3.910 -1.6093 -2.2047  1.1706
66949SOL     OW11160   4.108   4.499   8.999 -0.4981  0.8167  0.4476
66949SOL    HW111161   4.080   4.409   9.012  0.5589  0.3900 -0.1181
66949SOL    HW211162   4.154   4.522   9.081  0.5247  0.3234  0.0285
66950SOL     OW11163   2.262   4.663   9.286 -0.6045  0.1258  0.0148
66950SOL    HW111164   2.322   4.591   9.266 -0.2652  0.5054 -0.3573
66950SOL    HW211165   2.175   4.628   9.266 -0.4466 -0.2059 -0.0995
66951SOL     OW11166   8.802   6.772   4.709 -0.6012 -0.0112 -0.2050
66951SOL    HW111167   8.841   6.860   4.707  0.0880 -0.2885  0.6242
66951SOL    HW211168   8.844   6.726   4.636  0.6093 -0.2866  0.6378
66952SOL     OW11169  12.393   6.909  11.853  0.1632 -0.0604  0.3879
66952SOL    HW111170  12.455   6.914  11.926  1.2931 -0.5396 -0.5154
66952SOL    HW211171  12.381   6.815  11.838  0.9998  0.0232 -0.9069
66953SOL     OW11172   1.389   4.856  10.965 -0.2900 -1.0468  0.6027
66953SOL    HW111173   1.424   4.790  10.905  0.4337 -1.1351  1.1266
66953SOL    HW211174   1.317   4.897  10.915  0.3685 -1.0393 -0.3759
66954SOL     OW11175   3.612   3.515   7.051  0.0210  0.3616  0.3815
66954SOL    HW111176   3.576   3.505   7.139 -0.5886 -0.9427  0.0028
66954SOL    HW211177   3.542   3.485   6.993  1.6018 -2.1193 -0.3760
66955SOL     OW11178   2.692   7.712   9.963  0.1086  0.1407  0.2292
66955SOL    HW111179   2.676   7.795   9.918  1.9761  0.8909  0.8499
66955SOL    HW211180   2.742   7.660   9.901  0.4180  0.1601  0.4574
66956SOL     OW11181   3.028   3.245   2.510 -0.0171  0.0910 -0.3481
66956SOL    HW111182   3.082   3.168   2.492 -2.6119 -2.1499  0.7008
66956SOL    HW211183   2.988   3.227   2.596 -0.5582  2.7410  0.0451
66957SOL     OW11184  10.908   6.176   2.948 -0.4365  0.5446  0.2063
66957SOL    HW111185  10.886   6.098   2.897 -0.0969  0.1076  0.7255
66957SOL    HW211186  10.833   6.234   2.936 -0.1669  0.6626 -1.1928
66958SOL     OW11187   4.282   1.575   3.656  0.5207 -0.5939 -0.2895
66958SOL    HW111188   4.287   1.663   3.694 -0.8738  0.1795 -1.7413
66958SOL    HW211189   4.239   1.522   3.723  2.3981 -0.4978  1.0553
66959SOL     OW11190   9.890  10.340   6.977 -0.2152 -0.1075  0.3815
66959SOL    HW111191   9.802  10.347   7.014 -0.1507  0.3506  0.4427
66959SOL    HW211192   9.893  10.407   6.909 -0.2141 -0.7060 -0.2223
66960SOL     OW11193   5.792   9.057   6.704  0.0311 -0.6103 -0.0462
66960SOL    HW111194   5.849   9.133   6.718 -0.4527 -0.2025 -0.2469
66960SOL    HW211195   5.850   8.991   6.667  0.3584 -0.1692 -0.3397
66961SOL     OW11196   3.949   7.634  10.466 -0.0869  0.1911 -0.0224
66961SOL    HW111197   3.885   7.677  10.409 -0.5839  0.1184  0.4676
66961SOL    HW211198   4.033   7.649  10.423 -0.4020  0.5166 -0.5431
66962SOL     OW11199   8.426   0.822   8.334  0.0028 -0.2429  0.4203
66962SOL    HW111200   8.371   0.751   8.368 -0.3111 -1.2727 -2.0401
66962SOL    HW211201   8.407   0.824   8.240  2.2004  1.1532 -0.0604
66963SOL     OW11202   9.778  11.201   7.427  0.3999 -0.0544  0.3180
66963SOL    HW111203   9.850  11.261   7.412  0.7081 -0.4343  0.2556
66963SOL    HW211204   9.700  11.256   7.431  0.2837  0.1177 -2.4703
66964SOL     OW11205   6.940   8.133   4.682 -0.1696 -0.1224 -0.1033
66964SOL    HW111206   7.021   8.110   4.728 -1.0101 -0.2583  1.3587
66964SOL    HW211207   6.928   8.227   4.700  0.2662  0.1969 -1.3313
66965SOL     OW11208   4.877   0.781   0.122  0.2674 -0.6467  0.3122
66965SOL    HW111209   4.860   0.865   0.079  0.6122 -0.9734 -0.4780
66965SOL    HW211210   4.795   0.760   0.168 -0.0146 -0.1657  0.0353
66966SOL     OW11211   7.254   7.909   3.751  0.5786  0.2801  1.0117
66966SOL    HW111212   7.268   7.986   3.696  0.0312 -0.4029 -0.1258
66966SOL    HW211213   7.278   7.835   3.695  0.8611 -0.3941  1.9976
66967SOL     OW11214   6.529   5.346   5.148 -0.0629  0.2976  0.5490
66967SOL    HW111215   6.547   5.253   5.163 -0.8214 -0.0246 -0.4648
66967SOL    HW211216   6.568   5.390   5.224  1.0010 -0.7659  0.6437
66968SOL     OW11217   1.751   7.737  11.065  0.6744 -0.4009  0.1179
66968SOL    HW111218   1.670   7.732  11.015  0.4064 -1.2292  0.6066
66968SOL    HW211219   1.766   7.831  11.078 -0.4027 -0.2436  0.3372
66969SOL     OW11220   8.352   3.123   0.563  0.0636  0.6266  0.0964
66969SOL    HW111221   8.367   3.106   0.470  0.1812  4.3881 -0.7087
66969SOL    HW211222   8.434   3.100   0.606 -0.5212 -2.8248 -0.2868
66970SOL     OW11223   3.114   8.457   1.830  0.3054 -0.6843 -0.3155
66970SOL    HW111224   3.091   8.373   1.869  0.5013 -0.2325  0.8226
66970SOL    HW211225   3.200   8.442   1.791  0.1705 -1.1122 -0.4521
66971SOL     OW11226   9.767   2.280   6.776 -0.1596 -0.3117  0.2480
66971SOL    HW111227   9.843   2.322   6.736  0.0711 -0.0841  0.9196
66971SOL    HW211228   9.694   2.307   6.721  0.2746 -0.7603 -0.5666
66972SOL     OW11229   3.303   7.870   6.556 -0.2275  0.1879  0.6229
66972SOL    HW111230   3.256   7.923   6.492  0.9689 -1.8015 -2.1224
66972SOL    HW211231   3.236   7.815   6.596 -0.7241 -0.2498 -0.7667
66973SOL     OW11232   4.954   8.712   5.440 -0.2305 -0.0826  0.3688
66973SOL    HW111233   5.013   8.680   5.372  0.9463  1.2130  0.7284
66973SOL    HW211234   5.002   8.696   5.522  0.3196  2.2462  0.5851
66974SOL     OW11235   6.071  11.223   0.106 -0.3965 -0.4168 -0.5487
66974SOL    HW111236   6.106  11.288   0.045 -0.6430 -0.1470 -0.4119
66974SOL    HW211237   6.146  11.171   0.133  0.2139  1.1705  0.9941
66975SOL     OW11238   3.400   6.627  11.215 -0.9708 -0.1266  0.2894
66975SOL    HW111239   3.409   6.615  11.309 -0.7604 -0.1294  0.2696
66975SOL    HW211240   3.488   6.611  11.180 -1.2857 -1.2069 -0.0205
66976SOL     OW11241   0.155   2.700   3.983 -0.7042 -0.2995  0.3285
66976SOL    HW111242   0.161   2.790   3.951 -0.1870 -0.3435  0.2936
66976SOL    HW211243   0.087   2.660   3.929 -1.6804  0.3611  1.0490
66977SOL     OW11244   8.899   4.954   0.799 -0.0290  0.1210 -0.3618
66977SOL    HW111245   8.914   5.045   0.825 -0.1962  0.2710 -0.7749
66977SOL    HW211246   8.846   4.916   0.869 -1.0631  0.7126 -0.7934
66978SOL     OW11247  11.589   5.618   2.710 -0.1675  0.3835 -0.0495
66978SOL    HW111248  11.541   5.545   2.670  1.9945 -0.5566 -1.0722
66978SOL    HW211249  11.653   5.576   2.768  1.3640  1.4087 -0.9373
66979SOL     OW11250   1.129   2.268   3.301 -0.4277  0.2913 -0.3301
66979SOL    HW111251   1.087   2.352   3.319 -0.2000  0.3287  0.0316
66979SOL    HW211252   1.223   2.287   3.306 -0.3443  0.3037 -1.5369
66980SOL     OW11253  12.815  10.952   4.805  0.6299  0.2690  0.3881
66980SOL    HW111254  12.870  10.974   4.880 -0.4782 -1.6492  1.8543
66980SOL    HW211255  12.827  10.858   4.793 -1.8424 -0.1283  0.4182
66981SOL     OW11256  11.819   4.646   2.867 -0.2065 -0.0144  0.1552
66981SOL    HW111257  11.840   4.675   2.779 -0.5466 -2.5677 -0.8347
66981SOL    HW211258  11.898   4.666   2.918  0.9153 -0.6126 -1.2731
66982SOL     OW11259  11.436  11.679   0.559  0.3827 -0.3014  0.0182
66982SOL    HW111260  11.393  11.620   0.621  0.0873 -1.3732 -1.1594
66982SOL    HW211261  11.369  11.698   0.493  0.7999  0.5088 -0.1930
66983SOL     OW11262   8.646   7.480   2.549  0.0760 -0.1357 -0.4135
66983SOL    HW111263   8.662   7.406   2.491 -0.5364  0.1372 -0.9417
66983SOL    HW211264   8.668   7.557   2.496 -1.3456  0.1593 -0.6046
66984SOL     OW11265   2.649   6.479   4.865 -0.1902 -0.3579 -0.0604
66984SOL    HW111266   2.578   6.497   4.927  1.2148 -0.7331  1.7350
66984SOL    HW211267   2.650   6.384   4.857  0.0549 -0.3484 -0.1590
66985SOL     OW11268   6.055   8.882   7.481  0.3616 -0.3479 -0.2795
66985SOL    HW111269   6.128   8.926   7.524 -0.4567  0.9063 -0.1214
66985SOL    HW211270   6.020   8.823   7.548  2.4138 -2.5074 -0.9641
66986SOL     OW11271   7.655   2.778   6.691  0.4098  0.1988  0.4394
66986SOL    HW111272   7.585   2.766   6.755 -0.5605  2.2730 -0.1432
66986SOL    HW211273   7.624   2.734   6.612 -0.9124  2.1633 -0.2161
66987SOL     OW11274   2.453  10.276   3.155 -0.0709 -0.8307  0.0429
66987SOL    HW111275   2.520  10.322   3.105 -1.3663 -0.3051 -1.3070
66987SOL    HW211276   2.379  10.337   3.156 -0.9961 -1.9363  0.2854
66988SOL     OW11277   2.564   4.311   1.036 -0.2322 -0.1583  0.1927
66988SOL    HW111278   2.523   4.240   1.085 -0.5756 -0.9391 -1.1657
66988SOL    HW211279   2.649   4.276   1.009  1.0683  1.1666  2.3137
66989SOL     OW11280   0.607  10.802   4.560  0.1011 -0.2204 -0.9976
66989SOL    HW111281   0.649  10.754   4.489  1.1378  0.5937 -0.9635
66989SOL    HW211282   0.516  10.771   4.560  0.7775 -2.3957 -0.7696
66990SOL     OW11283   6.084  10.951   5.026 -0.3352  0.2272  0.3202
66990SOL    HW111284   5.997  10.961   4.988 -0.2199  0.1626  0.0354
66990SOL    HW211285   6.111  11.040   5.048 -0.6222  0.2096  0.7480
66991SOL     OW11286   2.234   8.336  10.438  0.3509 -0.2850 -0.3358
66991SOL    HW111287   2.211   8.270  10.504  0.9098 -0.3863 -0.2429
66991SOL    HW211288   2.165   8.328  10.372  2.0943 -3.2113 -2.0044
66992SOL     OW11289   2.114   6.320   9.346 -0.3057  0.0664 -0.2652
66992SOL    HW111290   2.176   6.392   9.362  0.1066 -0.3284 -0.0573
66992SOL    HW211291   2.154   6.270   9.275  1.8501 -2.6498  2.5956
66993SOL     OW11292   3.251   8.164   4.424  0.4496  0.2454  0.4506
66993SOL    HW111293   3.264   8.100   4.354 -0.0199  1.8389 -1.1692
66993SOL    HW211294   3.199   8.117   4.490  1.0701 -1.3537 -0.1504
66994SOL     OW11295   2.430  11.098  10.960  0.0528 -0.6182  0.1889
66994SOL    HW111296   2.493  11.048  10.907  1.1483  1.2133 -0.3455
66994SOL    HW211297   2.350  11.098  10.908  0.8738  0.4704 -1.1499
66995SOL     OW11298   8.206  10.193   1.114 -0.0763 -0.2438  0.3464
66995SOL    HW111299   8.143  10.121   1.110 -0.0924 -0.3648  2.0891
66995SOL    HW211300   8.227  10.212   1.022 -1.2457 -1.4247 -0.1920
66996SOL     OW11301   8.982   5.628   3.542 -0.2462  0.2686 -0.5092
66996SOL    HW111302   8.913   5.687   3.511  1.2690  1.7349 -1.2164
66996SOL    HW211303   9.063   5.677   3.531  0.9128 -1.2966  0.5840
66997SOL     OW11304   9.322   1.325   5.062 -0.1959  0.0054 -0.4719
66997SOL    HW111305   9.334   1.279   4.979 -2.7473  0.6174 -1.2658
66997SOL    HW211306   9.300   1.256   5.124  1.1147 -0.3835 -0.4129
66998SOL     OW11307   0.440   2.951   2.629 -0.0077  0.0408  0.4325
66998SOL    HW111308   0.531   2.979   2.623 -0.0794  0.0069 -1.9465
66998SOL    HW211309   0.391   3.033   2.636  0.2139  0.0100  3.8949
66999SOL     OW11310   8.510   4.558   5.384  0.1192 -0.2882 -0.1030
66999SOL    HW111311   8.510   4.578   5.290 -1.0304  0.3506  0.0171
66999SOL    HW211312   8.598   4.523   5.400 -0.1170 -1.7679 -1.6797
67000SOL     OW11313   7.613  10.753   0.019 -0.5636 -0.1709  0.3128
67000SOL    HW111314   7.536  10.745   0.075 -1.0743 -0.0438 -0.3516
67000SOL    HW211315   7.677  10.800   0.072 -0.2347 -1.9651  1.5690
67001SOL     OW11316   0.254   4.452   3.088 -0.1880 -0.1384 -0.3536
67001SOL    HW111317   0.213   4.419   3.168  0.6956 -0.6152 -0.0807
67001SOL    HW211318   0.278   4.373   3.040 -0.1635  0.1434 -0.8048
67002SOL     OW11319  11.801   3.972   9.404 -0.2460  0.0652  0.2001
67002SOL    HW111320  11.765   3.898   9.452 -0.0174 -1.0983 -1.3391
67002SOL    HW211321  11.733   3.997   9.342  0.2669  0.0968 -0.3682
67003SOL     OW11322  11.218   2.091   0.207  0.5264 -0.3871 -0.0752
67003SOL    HW111323  11.191   2.095   0.115  0.9956 -2.4078 -0.3570
67003SOL    HW211324  11.302   2.137   0.208  0.1713  0.2915 -0.4995
67004SOL     OW11325   8.250   8.533   4.811  0.2555  0.3949 -0.5813
67004SOL    HW111326   8.289   8.603   4.759 -0.9815  1.3844 -0.2218
67004SOL    HW211327   8.166   8.568   4.840 -0.2772 -1.1422 -0.1545
67005SOL     OW11328  12.271   5.076   4.569  0.7245 -0.2944  0.5068
67005SOL    HW111329  12.319   5.038   4.643  1.6335 -1.0269 -0.4404
67005SOL    HW211330  12.326   5.149   4.539  1.0476 -0.8659 -0.3108
67006SOL     OW11331   1.442  11.991   1.189 -0.1055  0.3430  0.8814
67006SOL    HW111332   1.513  11.936   1.222  1.1639  2.1240  1.2495
67006SOL    HW211333   1.472  12.018   1.102 -1.4436 -0.7510  0.0213
67007SOL     OW11334   5.336   2.276  10.085 -0.2950 -0.3440 -0.1321
67007SOL    HW111335   5.322   2.363  10.048  1.7561 -0.6547 -1.8290
67007SOL    HW211336   5.300   2.216  10.020  2.8901 -0.8751 -1.6029
67008SOL     OW11337   0.836   5.058   6.844 -0.8279  0.4192  0.0103
67008SOL    HW111338   0.823   5.039   6.751 -0.5100  1.2488 -0.2163
67008SOL    HW211339   0.748   5.074   6.878 -0.9641 -0.0953 -0.1022
67009SOL     OW11340   8.070  10.774   7.941 -0.1735 -0.1235  0.4855
67009SOL    HW111341   8.123  10.844   7.904  0.7016 -1.7177 -1.5012
67009SOL    HW211342   7.982  10.792   7.910  0.2444 -0.4582 -1.0039
67010SOL     OW11343  12.450   4.146   5.662 -0.2172  0.0739  0.3225
67010SOL    HW111344  12.482   4.116   5.747  0.8451  2.0374  0.6683
67010SOL    HW211345  12.493   4.230   5.649 -2.0017  0.8057 -1.1962
67011SOL     OW11346   7.896   8.567   8.469  0.1586  0.0082  0.0113
67011SOL    HW111347   7.988   8.541   8.460 -0.0874 -1.3622  1.1556
67011SOL    HW211348   7.866   8.524   8.549 -1.4304  0.5986 -0.2247
67012SOL     OW11349   2.160   0.461  10.240  0.2210  0.3163  0.2281
67012SOL    HW111350   2.168   0.556  10.248  1.7667  0.2824 -0.5819
67012SOL    HW211351   2.192   0.428  10.324  0.1731  0.4907  0.3178
67013SOL     OW11352  10.479   4.343  11.065  0.4058 -0.1501 -0.5494
67013SOL    HW111353  10.550   4.392  11.024 -1.1611  0.3293 -2.9014
67013SOL    HW211354  10.428   4.409  11.112  0.3289 -0.1150 -0.6796
67014SOL     OW11355  12.185   6.563   1.869  0.3252 -0.1636  0.0068
67014SOL    HW111356  12.262   6.541   1.923  1.0546  0.5530 -0.7194
67014SOL    HW211357  12.132   6.619   1.925  0.7702  0.0622  0.2116
67015SOL     OW11358  10.103   5.556   1.616 -0.2583 -0.2222 -0.0938
67015SOL    HW111359  10.042   5.563   1.689 -2.1104  1.1533 -1.6647
67015SOL    HW211360  10.054   5.508   1.549  1.0104 -0.5375 -0.8332
67016SOL     OW11361  12.037   5.234  12.863 -0.0590  0.1154  0.8336
67016SOL    HW111362  11.973   5.303  12.846  0.7227  1.3238  2.4593
67016SOL    HW211363  12.097   5.237  12.789 -0.2515  0.9650  0.7054
67017SOL     OW11364   1.742   5.188  11.540 -0.0178 -0.6095 -0.7174
67017SOL    HW111365   1.728   5.138  11.460 -3.1698 -0.4348 -0.4260
67017SOL    HW211366   1.662   5.241  11.549  1.6284  1.8218  0.8514
67018SOL     OW11367   6.425   1.964   6.097  0.0720  0.1180  0.0399
67018SOL    HW111368   6.449   2.053   6.123 -1.5705  0.4283  0.6080
67018SOL    HW211369   6.454   1.909   6.170  1.9783  0.0036 -0.7335
67019SOL     OW11370   3.642   8.764   7.019  0.4123  0.3198  0.5821
67019SOL    HW111371   3.607   8.852   7.006  1.7773  0.9124  0.7892
67019SOL    HW211372   3.725   8.777   7.064  1.2772 -0.9970 -0.5513
67020SOL     OW11373  10.892   4.170   0.281 -0.0832 -0.0997 -0.4772
67020SOL    HW111374  10.891   4.082   0.242  0.4976 -0.1977 -0.2820
67020SOL    HW211375  10.862   4.156   0.371 -0.1683 -0.0737 -0.5020
67021SOL     OW11376  10.417   1.038   6.331 -0.3230  0.0341  0.4968
67021SOL    HW111377  10.505   1.052   6.364 -0.0821  0.3761 -0.2761
67021SOL    HW211378  10.385   1.126   6.310  0.0392 -0.2572 -1.4465
67022SOL     OW11379   3.179  11.897   9.952  0.4757 -0.2281 -0.0697
67022SOL    HW111380   3.226  11.873   9.872 -0.5020 -1.1993 -0.3759
67022SOL    HW211381   3.179  11.817  10.004 -2.9599 -1.1179 -1.1530
67023SOL     OW11382   2.393   3.102   8.545 -0.0184 -0.2249 -0.6513
67023SOL    HW111383   2.379   3.035   8.613  1.3966  0.4171  0.3399
67023SOL    HW211384   2.328   3.083   8.478  0.0961 -2.3774 -0.2286
67024SOL     OW11385   6.637  10.840   4.546  0.1570 -0.2541  0.0855
67024SOL    HW111386   6.630  10.831   4.451  0.1909 -0.6910  0.1217
67024SOL    HW211387   6.570  10.904   4.569  0.3414  0.0679 -0.2660
67025SOL     OW11388   7.224   1.820  12.035 -0.4362 -0.0303 -0.2923
67025SOL    HW111389   7.169   1.751  12.000  0.8120 -1.3855  0.3256
67025SOL    HW211390   7.194   1.831  12.125 -1.0507  0.7130 -0.5714
67026SOL     OW11391   5.789   9.412  11.033  0.3416  0.0450 -0.0764
67026SOL    HW111392   5.713   9.357  11.052  1.0545 -1.0457 -0.2887
67026SOL    HW211393   5.756   9.501  11.040 -0.0257 -0.2592  3.8315
67027SOL     OW11394  11.091   8.772  11.752  0.1146  0.1368  0.4242
67027SOL    HW111395  11.148   8.841  11.719 -1.4083  0.4586 -1.7419
67027SOL    HW211396  11.081   8.712  11.678 -0.8542 -0.8876  1.3573
67028SOL     OW11397   4.259  11.013   2.028 -0.7758 -0.3631 -0.0170
67028SOL    HW111398   4.320  11.042   1.960 -0.7525  0.0147  0.1607
67028SOL    HW211399   4.205  10.946   1.985 -1.3566  0.5081 -0.6796
67029SOL     OW11400  10.018   3.666   9.874  0.0939 -0.2971 -0.2061
67029SOL    HW111401  10.095   3.676   9.819 -0.3433 -1.3977 -1.0657
67029SOL    HW211402   9.974   3.588   9.839 -0.5483 -0.6324  1.2798
67030SOL     OW11403  10.502   6.375  10.678  0.3124  0.2380  0.3859
67030SOL    HW111404  10.474   6.453  10.631  0.2055  0.1040  0.2239
67030SOL    HW211405  10.448   6.305  10.640  2.1805 -0.3779 -1.3181
67031SOL     OW11406   2.343   1.597   2.972  0.7845 -0.3557 -0.1926
67031SOL    HW111407   2.413   1.553   2.923 -1.0070 -3.1930 -0.4562
67031SOL    HW211408   2.265   1.544   2.954 -1.1018  1.7139  1.3938
67032SOL     OW11409   0.080   2.568  11.294  0.4017  0.4767 -0.2210
67032SOL    HW111410   0.110   2.656  11.271  0.7163  0.3749 -0.2075
67032SOL    HW211411   0.030   2.580  11.375 -0.0410  0.7212 -0.5294
67033SOL     OW11412   5.629   9.703   0.068 -0.0025  0.0723  0.5108
67033SOL    HW111413   5.562   9.667   0.125  0.6532  0.2902  1.4427
67033SOL    HW211414   5.710   9.661   0.096  0.5084  1.0336  0.5033
67034SOL     OW11415   9.805   8.679   0.940 -0.7148  0.4694  0.2892
67034SOL    HW111416   9.859   8.750   0.975  0.4125  0.4680 -1.3633
67034SOL    HW211417   9.747   8.722   0.877 -0.5476  0.0294 -0.1691
67035SOL     OW11418  11.435   0.013   7.853 -0.5066 -0.9080 -0.2771
67035SOL    HW111419  11.434  -0.079   7.880  0.6854 -1.4977 -2.0114
67035SOL    HW211420  11.406   0.011   7.762  0.7339  0.2554 -0.7259
67036SOL     OW11421   7.750  10.611   2.670 -0.3244 -0.3367  0.0013
67036SOL    HW111422   7.798  10.605   2.753  0.5503 -1.6109 -0.5577
67036SOL    HW211423   7.787  10.688   2.626 -0.9033  0.4400  0.8456
67037SOL     OW11424   6.997   4.794   7.669  0.2481 -0.3667  0.0361
67037SOL    HW111425   6.932   4.841   7.616  2.2807  0.2561 -2.0671
67037SOL    HW211426   7.051   4.863   7.708  0.9634 -0.8912 -0.0048
67038SOL     OW11427   8.596   5.160   7.697 -0.5671  0.1288 -0.5009
67038SOL    HW111428   8.582   5.194   7.786 -0.2494 -1.2528  0.1049
67038SOL    HW211429   8.523   5.195   7.646 -0.7125  0.9996  0.2822
67039SOL     OW11430   6.189   4.518   4.359  0.1982  1.0004  0.0397
67039SOL    HW111431   6.266   4.550   4.407  1.4483  0.4524 -1.4844
67039SOL    HW211432   6.226   4.483   4.278 -1.5960 -0.1413 -0.3174
67040SOL     OW11433   8.887  11.554   3.580  0.4310  0.0193 -0.3192
67040SOL    HW111434   8.949  11.607   3.630  1.6406 -2.9664  1.5893
67040SOL    HW211435   8.935  11.475   3.556 -1.8160 -1.1796 -1.2237
67041SOL     OW11436   2.988   4.513  10.277  0.4362  0.2261  0.2490
67041SOL    HW111437   2.928   4.587  10.280 -0.7229 -0.5985 -1.2715
67041SOL    HW211438   2.985   4.483  10.186  2.4927 -0.3992  0.3329
67042SOL     OW11439  11.339   7.512   6.118  0.1495 -0.2814 -0.1920
67042SOL    HW111440  11.335   7.598   6.076 -1.4575 -0.6339 -0.8329
67042SOL    HW211441  11.344   7.451   6.045  0.8672 -0.7667  0.2533
67043SOL     OW11442   5.868   9.813  11.022  0.1730 -0.4524 -0.2632
67043SOL    HW111443   5.864   9.903  10.989 -0.6571  0.0050  0.9819
67043SOL    HW211444   5.783   9.775  10.998  0.0530 -0.5104  0.2383
67044SOL     OW11445   0.355  10.554   0.107 -0.3733 -0.4991 -0.3788
67044SOL    HW111446   0.451  10.560   0.115 -0.3718  0.5877 -1.0489
67044SOL    HW211447   0.332  10.623   0.045 -1.9104  1.4208  2.1146
67045SOL     OW11448  12.848   9.038  11.898  0.6392  0.1831  0.1224
67045SOL    HW111449  12.802   8.955  11.885 -2.7548  1.4081  2.6734
67045SOL    HW211450  12.780   9.105  11.887  2.0739  2.2682  2.6939
67046SOL     OW11451   0.051   0.970   8.029  0.2210  0.0239  0.1839
67046SOL    HW111452   0.126   1.002   7.979  0.2234  0.7146  0.6244
67046SOL    HW211453  -0.025   0.995   7.976  0.2022  1.1084  0.7039
67047SOL     OW11454  12.922   9.889  12.018  0.2867  0.3033  0.5147
67047SOL    HW111455  12.941   9.972  11.975  1.5439 -0.9357 -1.5341
67047SOL    HW211456  12.835   9.864  11.985  0.5978  0.0834 -0.1719
67048SOL     OW11457   9.364   8.255   1.929 -0.2471 -0.0753  0.6081
67048SOL    HW111458   9.294   8.190   1.935  1.5612 -2.4334 -1.3283
67048SOL    HW211459   9.324   8.330   1.886 -1.5364 -1.5343 -0.8803
67049SOL     OW11460   6.138   0.485   1.775  0.6016  0.0928  0.0520
67049SOL    HW111461   6.233   0.478   1.775  0.6546  0.7049  0.7801
67049SOL    HW211462   6.115   0.512   1.864 -0.2885 -0.4620  0.0038
67050SOL     OW11463   2.488   7.582   6.832  0.1412 -0.0574  0.2250
67050SOL    HW111464   2.398   7.594   6.801 -0.6176 -0.3894  2.1807
67050SOL    HW211465   2.513   7.496   6.798 -0.4114 -0.1337 -0.0011
67051SOL     OW11466  11.222   0.290   3.644  0.6190 -0.0966 -0.0670
67051SOL    HW111467  11.232   0.238   3.724  2.2321 -0.6432 -0.5735
67051SOL    HW211468  11.256   0.376   3.667  0.4683 -0.0600  0.0189
67052SOL     OW11469  12.849   1.385   3.367 -0.2585  0.2122  0.6198
67052SOL    HW111470  12.820   1.464   3.321 -0.9831 -0.5437 -0.2565
67052SOL    HW211471  12.941   1.403   3.390 -0.3899  1.2663  0.3612
67053SOL     OW11472   0.705   6.663   1.464 -0.5399  0.7883 -0.4506
67053SOL    HW111473   0.775   6.600   1.447 -0.3458  1.0421 -0.6032
67053SOL    HW211474   0.636   6.639   1.403  1.0057  3.0887 -3.3930
67054SOL     OW11475  11.014   7.725   1.800  0.8521  0.5232  0.3959
67054SOL    HW111476  10.951   7.793   1.823 -0.4038 -0.4006 -0.2427
67054SOL    HW211477  11.074   7.767   1.739 -0.3484  0.8770 -0.5694
67055SOL     OW11478   9.630  12.760   8.737  0.3234 -0.1193 -0.3603
67055SOL    HW111479   9.674  12.840   8.709  2.1224 -0.9857 -0.1409
67055SOL    HW211480   9.695  12.715   8.791 -0.6022 -1.7967 -0.5931
67056SOL     OW11481  10.650   2.001   4.551 -0.1064 -0.2484  0.6328
67056SOL    HW111482  10.611   2.039   4.630 -1.1903  1.1973 -0.5365
67056SOL    HW211483  10.593   1.928   4.529  0.8123 -1.3520  1.7366
67057SOL     OW11484   4.447  11.854  11.373 -0.5704  0.4185  0.1070
67057SOL    HW111485   4.414  11.809  11.450  0.5780 -1.2256 -0.2972
67057SOL    HW211486   4.369  11.876  11.322 -1.2003 -0.7328  0.5536
67058SOL     OW11487  12.064   8.676   8.606  0.5030 -0.1930 -0.5086
67058SOL    HW111488  12.010   8.639   8.676  0.8856 -0.2313 -0.2340
67058SOL    HW211489  12.099   8.757   8.642  0.7184 -0.2240 -0.6436
67059SOL     OW11490  10.516   5.852   4.998  1.1278 -0.4517  0.0292
67059SOL    HW111491  10.571   5.779   5.026  1.2512 -0.9250 -1.3691
67059SOL    HW211492  10.559   5.930   5.033  1.2405 -0.9982  1.1580
67060SOL     OW11493   2.644   4.110   9.391 -0.1523  0.1969 -0.2754
67060SOL    HW111494   2.583   4.050   9.434  0.9288 -1.5107 -1.0365
67060SOL    HW211495   2.686   4.057   9.323  1.2322  1.6882 -0.6356
67061SOL     OW11496   8.197   0.020   6.628 -0.4500  0.4235  0.2585
67061SOL    HW111497   8.116   0.070   6.617 -0.4749  0.1213 -1.2531
67061SOL    HW211498   8.261   0.083   6.661 -0.9966  0.9541  0.3099
67062SOL     OW11499   6.312  12.808   9.121 -0.2262  0.0976 -0.0052
67062SOL    HW111500   6.229  12.855   9.125  0.3517  1.1539  0.1350
67062SOL    HW211501   6.375  12.869   9.160  0.6809 -0.5064 -0.4974
67063SOL     OW11502   0.288   0.513  10.096 -0.1418  0.7371  0.1222
67063SOL    HW111503   0.359   0.567  10.060  0.8408  0.1226  1.0776
67063SOL    HW211504   0.282   0.439  10.036  0.9173  0.1434  0.7122
67064SOL     OW11505   9.309  11.146   8.986  0.2861 -0.1525 -0.1190
67064SOL    HW111506   9.287  11.096   9.064  1.9857 -0.0470  0.4736
67064SOL    HW211507   9.365  11.217   9.018  0.5142  0.2431 -1.3440
67065SOL     OW11508   5.863  10.394   7.980  0.4443 -0.4247  0.1928
67065SOL    HW111509   5.808  10.464   8.015 -0.4951 -0.2594 -1.4743
67065SOL    HW211510   5.816  10.313   8.002  0.4308 -0.3837  0.3091
67066SOL     OW11511  11.059   3.350   3.245  0.4117 -0.4766 -0.2920
67066SOL    HW111512  11.033   3.418   3.307 -1.2265 -0.7921 -0.5997
67066SOL    HW211513  11.096   3.281   3.301 -1.7261 -1.0760  0.4670
67067SOL     OW11514   0.734   0.957   6.179 -0.0854 -0.3078 -0.2901
67067SOL    HW111515   0.796   0.887   6.156  0.1888 -0.4795  0.9272
67067SOL    HW211516   0.786   1.037   6.177  0.2391 -0.4771  0.9347
67068SOL     OW11517   4.135  12.434   2.040  0.1540  0.5725  0.0294
67068SOL    HW111518   4.067  12.480   2.090 -0.5503  0.0565 -0.4353
67068SOL    HW211519   4.214  12.443   2.093 -0.1762  1.5429  0.3822
67069SOL     OW11520   2.542   3.225   8.093  0.1500  0.0951  0.4890
67069SOL    HW111521   2.507   3.307   8.128  0.8577  0.5850  0.0841
67069SOL    HW211522   2.637   3.233   8.105  0.1917 -0.8794  0.8893
67070SOL     OW11523   8.606  12.880   5.852  0.3643  0.4869  0.1660
67070SOL    HW111524   8.511  12.873   5.845  0.4275 -0.1883 -0.1424
67070SOL    HW211525   8.629  12.950   5.790  0.1304  0.1723 -0.2866
67071SOL     OW11526   4.038   1.942   2.252 -0.6518 -0.5423 -0.1936
67071SOL    HW111527   4.107   1.907   2.308 -0.8925 -2.3519 -0.9758
67071SOL    HW211528   3.964   1.954   2.311 -0.6871 -1.7600  0.0370
67072SOL     OW11529   8.405  11.719   1.758  0.1058  0.4273  0.3997
67072SOL    HW111530   8.364  11.778   1.696  0.0261 -1.0368 -1.0109
67072SOL    HW211531   8.493  11.704   1.723 -0.0175 -0.5930  0.4904
67073SOL     OW11532  12.341   5.942   4.324  0.4895 -0.1551  0.4225
67073SOL    HW111533  12.403   5.999   4.279  0.2081  0.1874  0.4693
67073SOL    HW211534  12.392   5.905   4.396  0.4023  0.8124  0.9965
67074SOL     OW11535   1.885   7.853   0.261 -0.0187 -0.1141  0.0805
67074SOL    HW111536   1.938   7.773   0.256 -0.1915 -0.2808  0.7229
67074SOL    HW211537   1.946   7.924   0.241 -0.2162 -0.5110 -2.0981
67075SOL     OW11538   2.527  10.721   1.606 -0.2480  0.0881  0.2510
67075SOL    HW111539   2.492  10.758   1.525  0.6104  3.1423  1.1405
67075SOL    HW211540   2.617  10.696   1.584 -0.3260 -0.0134  0.0414
67076SOL     OW11541   2.499  10.785   7.788  0.3427  0.1357 -0.0743
67076SOL    HW111542   2.491  10.715   7.853  0.7935 -0.4404 -0.6326
67076SOL    HW211543   2.412  10.792   7.749  0.1936  0.1581  0.2550
67077SOL     OW11544   6.778   9.938   5.408  0.2348 -0.1084  0.0204
67077SOL    HW111545   6.791   9.999   5.481 -0.1444 -0.3843  0.3274
67077SOL    HW211546   6.684   9.943   5.389 -0.3898 -2.6153  1.9090
67078SOL     OW11547   2.344   9.528   0.347 -0.0622 -0.3343  0.1720
67078SOL    HW111548   2.298   9.609   0.326  1.0316  0.4477  0.6670
67078SOL    HW211549   2.334   9.518   0.441 -1.7928 -1.8280 -0.1192
67079SOL     OW11550   1.459   8.891   9.357 -0.2276 -0.4292  0.4992
67079SOL    HW111551   1.377   8.881   9.407 -0.5292  0.7208  0.2640
67079SOL    HW211552   1.471   8.985   9.350  1.5851 -0.5660  1.2653
67080SOL     OW11553   3.316   8.895   6.002  0.3367 -0.3980  0.0631
67080SOL    HW111554   3.384   8.955   5.971  1.3884 -1.2089  0.7453
67080SOL    HW211555   3.244   8.907   5.940  1.4204 -0.1432 -1.1906
67081SOL     OW11556   5.790   7.335   8.687 -0.3237 -0.5140  0.2834
67081SOL    HW111557   5.744   7.332   8.603 -0.5506 -1.2237  0.4298
67081SOL    HW211558   5.873   7.380   8.667 -1.3697  1.5109  0.1758
67082SOL     OW11559   4.714   0.168   6.454  0.3227 -0.4096  0.2244
67082SOL    HW111560   4.671   0.178   6.539  1.2185 -0.1177  0.6566
67082SOL    HW211561   4.643   0.147   6.393 -0.5876  1.2040  0.6879
67083SOL     OW11562  11.917   8.560   3.929  0.1434  0.3948 -0.5592
67083SOL    HW111563  11.949   8.518   4.009  1.1708 -1.8648 -2.0710
67083SOL    HW211564  11.996   8.585   3.881 -0.4413  0.3124 -1.5882
67084SOL     OW11565   6.857   0.427   3.733  0.5782 -0.7843 -0.4643
67084SOL    HW111566   6.794   0.461   3.796 -0.8390 -0.4622 -1.9755
67084SOL    HW211567   6.942   0.458   3.765 -0.1720  0.0022  0.8532
67085SOL     OW11568   1.698   4.676   6.767 -0.0949  1.1078  0.1441
67085SOL    HW111569   1.613   4.633   6.769 -0.5242  1.4628 -3.3102
67085SOL    HW211570   1.755   4.621   6.821 -1.5077 -1.6220 -0.9523
67086SOL     OW11571   3.252  12.325   7.342 -0.0385 -0.4487 -0.1186
67086SOL    HW111572   3.212  12.241   7.321  0.1116 -0.4726 -0.3060
67086SOL    HW211573   3.203  12.357   7.418 -0.9659 -0.0955 -0.8496
67087SOL     OW11574   8.371   1.745  11.178 -0.9785 -0.4016  0.0004
67087SOL    HW111575   8.301   1.766  11.115 -1.4800 -1.4382  0.1933
67087SOL    HW211576   8.332   1.762  11.264  0.2404  2.6563  0.0672
67088SOL     OW11577   9.440   1.365   8.039 -0.5219  0.3826  0.7324
67088SOL    HW111578   9.532   1.340   8.036 -0.6427 -0.0027 -0.1339
67088SOL    HW211579   9.408   1.351   7.950 -1.4453  0.4051  1.0440
67089SOL     OW11580   6.748  11.800   0.865 -0.4538  0.0311  0.6136
67089SOL    HW111581   6.697  11.733   0.820  1.2438 -0.7534 -0.2516
67089SOL    HW211582   6.775  11.760   0.947 -0.3595  0.0514  0.5933
67090SOL     OW11583   4.690  11.914  10.957 -0.0024  0.2593 -0.1670
67090SOL    HW111584   4.732  11.837  10.996  0.6152  0.3686 -0.5955
67090SOL    HW211585   4.762  11.976  10.946 -0.6095  1.1547  0.7828
67091SOL     OW11586   0.726   4.405  10.113  0.0953 -0.5328 -1.1045
67091SOL    HW111587   0.791   4.390  10.182  1.0192  2.3513 -1.2064
67091SOL    HW211588   0.652   4.349  10.137  0.5698 -0.0445  1.9838
67092SOL     OW11589   1.005   0.245   0.392  0.4410 -0.4050  0.6098
67092SOL    HW111590   1.017   0.339   0.404 -0.9894 -0.2115  0.7613
67092SOL    HW211591   0.913   0.236   0.365  1.2083 -1.5472 -1.8797
67093SOL     OW11592  12.295  12.381   0.587 -0.3067 -0.0458  0.3103
67093SOL    HW111593  12.216  12.403   0.636 -0.9029  1.7921 -1.3255
67093SOL    HW211594  12.266  12.314   0.524 -0.0960 -0.7332  0.9369
67094SOL     OW11595   9.020  11.245   9.713  0.0286 -0.3973  0.6171
67094SOL    HW111596   9.058  11.327   9.744  1.1797 -0.1479 -1.3238
67094SOL    HW211597   8.926  11.262   9.709  0.3619  1.3208 -1.0663
67095SOL     OW11598  11.112  12.723   2.108 -0.6406  0.3645 -0.3183
67095SOL    HW111599  11.199  12.684   2.112 -0.2632  1.0505 -1.3847
67095SOL    HW211600  11.117  12.798   2.168 -1.0306 -0.5584  0.8967
67096SOL     OW11601   5.732   9.825   8.565  0.0566 -0.1395 -0.3603
67096SOL    HW111602   5.788   9.867   8.631 -1.4565  0.4225  0.6236
67096SOL    HW211603   5.700   9.898   8.511  0.4392 -0.4825 -1.0629
67097SOL     OW11604  10.254  12.524  10.538 -0.4466  0.5695  0.2210
67097SOL    HW111605  10.311  12.601  10.535  0.1521  0.1979  1.4111
67097SOL    HW211606  10.303  12.460  10.589 -0.9146 -0.6366 -0.7772
67098SOL     OW11607   1.392   8.216  12.584  0.1643 -0.2902 -0.7601
67098SOL    HW111608   1.396   8.216  12.488 -0.2987  1.6114 -0.8220
67098SOL    HW211609   1.389   8.308  12.608 -0.0264 -0.7336  1.0867
67099SOL     OW11610   3.937   6.638   2.798  0.4143  0.1487  0.1229
67099SOL    HW111611   3.846   6.640   2.829  1.1774 -0.2447  2.6863
67099SOL    HW211612   3.976   6.718   2.833  1.8097 -1.2290  1.9208
67100SOL     OW11613   3.509   9.011   1.017  0.5217 -0.8364 -0.6753
67100SOL    HW111614   3.479   9.069   0.947 -0.0079 -0.6908 -0.3393
67100SOL    HW211615   3.603   9.027   1.022  0.3281  0.3234 -0.3130
67101SOL     OW11616   4.636   1.789  10.142  0.5960  0.3090 -0.2032
67101SOL    HW111617   4.543   1.803  10.159  0.4261 -0.5058 -0.3994
67101SOL    HW211618   4.638   1.753  10.053  1.1541  0.9734 -0.4601
67102SOL     OW11619   8.938   9.335   2.029  0.2658 -0.0957 -0.3293
67102SOL    HW111620   8.870   9.288   2.076  1.5600 -1.7421 -0.0073
67102SOL    HW211621   8.980   9.389   2.096 -0.5580  0.7479 -0.4828
67103SOL     OW11622  12.518   9.117   5.389 -0.4430  0.5457 -0.2698
67103SOL    HW111623  12.604   9.106   5.429 -0.0860 -2.0497 -1.4899
67103SOL    HW211624  12.532   9.184   5.322 -0.0431  1.9226  1.1170
67104SOL     OW11625   9.944  11.343  11.185 -0.0858  0.2611  0.6220
67104SOL    HW111626  10.034  11.367  11.207  0.6719  1.2812 -2.9895
67104SOL    HW211627   9.947  11.248  11.174  0.3553  0.2030  1.1668
67105SOL     OW11628   8.028  12.180  10.904 -0.5224 -0.2053  0.1491
67105SOL    HW111629   8.101  12.147  10.851 -3.1458 -2.7092 -2.2582
67105SOL    HW211630   7.986  12.246  10.849 -1.2870 -0.3516  0.5425
67106SOL     OW11631  11.352   3.759   2.136 -0.0719  0.3150  0.0489
67106SOL    HW111632  11.337   3.853   2.150  0.8820  0.5197 -0.1733
67106SOL    HW211633  11.356   3.722   2.225  0.2736  0.6211  0.1664
67107SOL     OW11634   6.532   5.164   2.680 -0.0643 -0.2664 -0.0695
67107SOL    HW111635   6.552   5.081   2.724 -0.0676 -0.5780 -0.6436
67107SOL    HW211636   6.437   5.171   2.686 -0.2551 -1.1950 -1.5556
67108SOL     OW11637   6.333  11.723   8.793 -0.1424 -0.0075 -0.3713
67108SOL    HW111638   6.259  11.757   8.742 -0.5660 -0.3403  0.0085
67108SOL    HW211639   6.353  11.638   8.752 -0.1180 -0.0216 -0.3294
67109SOL     OW11640   4.217   8.682   2.234 -0.3787  0.2558 -0.3971
67109SOL    HW111641   4.305   8.656   2.208  0.0445  1.7250 -0.5562
67109SOL    HW211642   4.211   8.658   2.327  0.0740 -0.1619 -0.4745
67110SOL     OW11643   3.199   7.215   9.706 -0.0748  0.1711 -0.1571
67110SOL    HW111644   3.148   7.194   9.628 -0.3573 -0.2911  0.1521
67110SOL    HW211645   3.290   7.217   9.676 -0.2954  1.4196 -0.8031
67111SOL     OW11646   2.191   1.707   9.521 -0.2717 -0.1792  0.1915
67111SOL    HW111647   2.170   1.784   9.574 -5.0039  1.0521 -2.8187
67111SOL    HW211648   2.119   1.646   9.538 -0.5817 -0.7732 -2.7183
67112SOL     OW11649  11.020   4.991   9.008  0.2300 -0.4680  0.6005
67112SOL    HW111650  11.051   4.975   8.918  0.7583 -0.6263  0.8086
67112SOL    HW211651  11.050   5.080   9.028 -1.6818  0.3990 -0.1221
67113SOL     OW11652   0.405   8.277   7.823  0.5408 -0.4607 -0.2813
67113SOL    HW111653   0.316   8.242   7.830  0.5502 -0.6525 -1.0688
67113SOL    HW211654   0.393   8.364   7.786  0.7358 -0.8060 -1.1731
67114SOL     OW11655  11.591   2.901   2.929  0.4811 -0.1002 -0.0691
67114SOL    HW111656  11.683   2.919   2.911  0.7253 -1.2102  0.0386
67114SOL    HW211657  11.588   2.884   3.023 -0.0586  1.1924  0.1775
67115SOL     OW11658   9.436  10.343  10.805 -0.1204  0.2855  0.2841
67115SOL    HW111659   9.341  10.339  10.818 -0.2698  0.4601 -0.6737
67115SOL    HW211660   9.450  10.425  10.757  0.6258  0.7553  1.2716
67116SOL     OW11661   1.899   9.850  11.047 -0.2468  0.0875  0.5139
67116SOL    HW111662   1.912   9.833  11.140  0.6243 -0.7545  0.2648
67116SOL    HW211663   1.982   9.823  11.007 -1.0593 -0.8012 -0.6444
67117SOL     OW11664  11.454   3.535   9.760 -0.1426  0.2268 -0.1478
67117SOL    HW111665  11.452   3.443   9.733  1.2773  0.6315 -1.8241
67117SOL    HW211666  11.498   3.534   9.845 -0.2138 -0.6369 -0.1119
67118SOL     OW11667   8.921   9.821   0.118  0.2316 -0.2688  0.0025
67118SOL    HW111668   8.843   9.848   0.167  0.5593 -1.5739  1.2979
67118SOL    HW211669   8.918   9.725   0.120  0.4708 -0.3806 -2.2374
67119SOL     OW11670   0.814   5.081   9.319  0.2414 -0.0354 -0.1610
67119SOL    HW111671   0.838   5.128   9.399 -0.3746  1.6353 -0.9033
67119SOL    HW211672   0.864   5.124   9.250  0.0653 -0.8490 -0.8092
67120SOL     OW11673  11.445   6.414   7.055 -0.4442  0.0649 -0.2665
67120SOL    HW111674  11.406   6.469   6.987 -2.1426  0.4029  0.9326
67120SOL    HW211675  11.386   6.339   7.063 -1.4100  0.9710  2.1360
67121SOL     OW11676  11.652   9.897   9.857 -0.0326 -0.5223  0.0434
67121SOL    HW111677  11.621   9.982   9.888  1.3116 -0.1733  0.4973
67121SOL    HW211678  11.586   9.869   9.793 -0.8245  0.5541  0.3649
67122SOL     OW11679   9.143   8.766   1.832 -0.0010 -0.1553 -0.1800
67122SOL    HW111680   9.141   8.749   1.927  2.0166 -2.5436 -0.4491
67122SOL    HW211681   9.236   8.761   1.809 -0.4709  0.1003 -2.3335
67123SOL     OW11682   9.839   6.791   5.626 -0.1064  0.6948 -0.1465
67123SOL    HW111683   9.781   6.758   5.557 -0.5815  0.0526  0.5463
67123SOL    HW211684   9.849   6.717   5.686 -1.5349  1.9098  1.6874
67124SOL     OW11685   9.525   1.592   7.745  0.4487  0.1857 -0.3480
67124SOL    HW111686   9.592   1.525   7.757  1.6717  1.6775  2.0043
67124SOL    HW211687   9.442   1.544   7.749  1.2961 -1.2762  0.5993
67125SOL     OW11688   7.457   8.464   0.638  0.7153 -0.6361 -0.2632
67125SOL    HW111689   7.492   8.528   0.577  1.3664 -0.8400 -0.1180
67125SOL    HW211690   7.534   8.414   0.666  0.5602 -0.0105  1.3608
67126SOL     OW11691  12.604  12.289   3.813 -0.5178  0.0276 -0.2511
67126SOL    HW111692  12.509  12.293   3.801 -0.8448  0.0985  1.9317
67126SOL    HW211693  12.631  12.214   3.761 -2.0869 -1.2356  0.6593
67127SOL     OW11694   8.646   7.451   6.643 -0.1034  0.2503  0.2052
67127SOL    HW111695   8.573   7.423   6.588 -0.8062  2.4589 -0.0795
67127SOL    HW211696   8.691   7.518   6.592  0.1501  1.2518  1.6687
67128SOL     OW11697   3.063   4.775  10.815 -0.1520  0.3200 -0.1214
67128SOL    HW111698   3.032   4.684  10.812  0.0613  0.2070  0.6981
67128SOL    HW211699   2.995   4.825  10.769 -0.3440 -0.2333 -0.4532
67129SOL     OW11700  11.521   1.353   8.527 -0.1288 -0.3071 -0.1548
67129SOL    HW111701  11.564   1.267   8.529 -0.9418 -0.7266 -0.1073
67129SOL    HW211702  11.560   1.402   8.599  0.3886 -0.6162 -0.2213
67130SOL     OW11703   9.950   5.441   5.510 -0.3495  0.1579 -0.0193
67130SOL    HW111704   9.886   5.501   5.470  0.9581  1.6325  0.0204
67130SOL    HW211705   9.986   5.392   5.436 -0.4121  0.4313 -0.2346
67131SOL     OW11706   7.897  12.045  12.384  0.3293  0.4290 -0.3705
67131SOL    HW111707   7.915  12.128  12.341 -1.3473  0.3193 -1.3416
67131SOL    HW211708   7.935  11.979  12.326  1.1772  0.4687  0.1259
67132SOL     OW11709   8.649   0.704   1.068  0.0893 -0.1280  0.1196
67132SOL    HW111710   8.687   0.632   1.118 -0.9848 -1.1280 -0.4626
67132SOL    HW211711   8.683   0.783   1.111  0.8032 -0.9629  1.1539
67133SOL     OW11712   1.585   5.331   6.744  0.4253 -0.4037  0.2506
67133SOL    HW111713   1.644   5.347   6.818  0.4856  1.5912 -0.1856
67133SOL    HW211714   1.604   5.241   6.718 -1.4158 -2.1836  4.2510
67134SOL     OW11715   1.893   1.309   2.112 -0.3177  0.7696 -0.3021
67134SOL    HW111716   1.814   1.279   2.067 -0.0616  0.0698 -0.2887
67134SOL    HW211717   1.860   1.344   2.195 -0.6764  1.0930 -0.5718
67135SOL     OW11718   8.322   0.517   2.595  0.1738  0.1060  0.1050
67135SOL    HW111719   8.230   0.513   2.568 -0.3543 -0.1403  1.8221
67135SOL    HW211720   8.343   0.429   2.624  1.3222 -0.1176 -1.3097
67136SOL     OW11721   4.533   2.361   4.358  0.0613 -0.4132 -0.0407
67136SOL    HW111722   4.612   2.344   4.409 -0.1296  1.2561  0.8738
67136SOL    HW211723   4.465   2.309   4.401 -0.0550  0.8226  1.3230
67137SOL     OW11724  12.733  12.764   9.245  0.0147 -0.6726  0.1295
67137SOL    HW111725  12.782  12.845   9.252 -0.5119  0.0237 -2.6863
67137SOL    HW211726  12.650  12.781   9.290  0.2361  0.0491  0.2680
67138SOL     OW11727   0.337   8.440   3.707  0.0401 -0.5290 -0.3982
67138SOL    HW111728   0.370   8.527   3.686 -1.5543  0.7002  1.7902
67138SOL    HW211729   0.252   8.435   3.663 -0.1778 -0.7084  0.0359
67139SOL     OW11730   4.982  10.812   0.955  0.1032 -0.7751  0.5029
67139SOL    HW111731   5.065  10.859   0.966 -0.4569  0.3391  0.1524
67139SOL    HW211732   4.946  10.845   0.873 -1.3752 -0.0982  1.3618
67140SOL     OW11733   9.233   6.422   0.623 -0.4480  0.5808 -0.2668
67140SOL    HW111734   9.156   6.404   0.569 -0.7261  0.0689  0.2849
67140SOL    HW211735   9.222   6.364   0.699  2.3716 -2.4574 -1.9142
67141SOL     OW11736   8.139   8.322   6.148 -0.4321 -0.2508  0.2146
67141SOL    HW111737   8.169   8.285   6.231 -1.0745  0.0797  0.6051
67141SOL    HW211738   8.218   8.326   6.093  0.2194  0.5015  1.1732
67142SOL     OW11739  10.124  10.292   7.524 -0.3113  0.3361  0.2579
67142SOL    HW111740  10.146  10.211   7.478 -0.0019  0.2103  0.6238
67142SOL    HW211741  10.092  10.350   7.455 -1.5893 -0.4605  0.1545
67143SOL     OW11742  11.251   6.375  11.000  0.0041 -0.1974 -0.2579
67143SOL    HW111743  11.193   6.447  10.975 -0.6338 -0.4098  0.5562
67143SOL    HW211744  11.239   6.309  10.931  0.6389  0.4767 -1.0405
67144SOL     OW11745   1.403  11.263   7.980 -0.2624  0.3627  0.1873
67144SOL    HW111746   1.385  11.216   8.061  0.4167 -0.2084  0.0091
67144SOL    HW211747   1.486  11.228   7.949  0.6921  2.2430  0.4772
67145SOL     OW11748  11.924   7.997   3.681 -0.4292 -0.4447 -0.3482
67145SOL    HW111749  11.830   8.009   3.694 -0.1470 -0.8378  2.7407
67145SOL    HW211750  11.964   8.068   3.731  0.9574 -0.3641 -1.5082
67146SOL     OW11751  12.227   3.061   9.834  0.4124 -0.0297  0.4135
67146SOL    HW111752  12.177   3.123   9.888  0.1660  1.7706 -1.7340
67146SOL    HW211753  12.169   2.985   9.826 -1.0035  1.0588 -0.0914
67147SOL     OW11754   3.586   7.472   1.897  0.0296 -0.0231  0.2320
67147SOL    HW111755   3.498   7.489   1.863  0.5017  1.1761 -0.4115
67147SOL    HW211756   3.634   7.437   1.823  0.5952  1.0259  0.0956
67148SOL     OW11757   6.107   8.352   0.766 -0.1579  0.4498 -0.3370
67148SOL    HW111758   6.022   8.379   0.803  0.0254  0.0452  0.4074
67148SOL    HW211759   6.095   8.260   0.743  0.7468 -0.3377  1.9876
67149SOL     OW11760   3.376   3.771   5.705 -0.0824 -0.1909  0.3835
67149SOL    HW111761   3.429   3.703   5.665 -2.0467 -1.2480 -0.5875
67149SOL    HW211762   3.399   3.851   5.657  0.2589 -0.7252 -0.3641
67150SOL     OW11763   0.603  10.423   8.540  0.0427  0.0893 -0.2280
67150SOL    HW111764   0.560  10.505   8.515  0.3819  0.6086  0.8394
67150SOL    HW211765   0.596  10.368   8.462 -1.0606  0.7712 -0.6410
67151SOL     OW11766  10.709   4.853  10.595  0.0917  0.0683 -0.4973
67151SOL    HW111767  10.718   4.770  10.548 -1.5915 -1.6346  1.9251
67151SOL    HW211768  10.758   4.840  10.676  0.6691  1.8972 -0.4984
67152SOL     OW11769  11.258  12.488   3.368  0.4090 -0.6361 -0.2496
67152SOL    HW111770  11.250  12.510   3.275 -0.7637 -2.4307 -0.6186
67152SOL    HW211771  11.336  12.432   3.372 -0.7869 -2.4160 -0.5864
67153SOL     OW11772  11.834   4.581   8.150  0.0525  0.1346  0.3900
67153SOL    HW111773  11.748   4.623   8.154  0.5377  1.1233  0.7711
67153SOL    HW211774  11.817   4.494   8.113 -1.1585  0.1548  0.8701
67154SOL     OW11775   5.952   1.623  10.460 -0.1600 -0.0363  0.1589
67154SOL    HW111776   6.046   1.643  10.457 -0.0954 -0.0587  1.4405
67154SOL    HW211777   5.910   1.705  10.433  0.2166 -0.6255 -2.5048
67155SOL     OW11778  10.788   2.617   6.766 -0.3289  0.2058  0.2624
67155SOL    HW111779  10.760   2.574   6.685 -1.0328 -0.6334  0.9296
67155SOL    HW211780  10.802   2.545   6.828 -1.3426  0.9102  1.3514
67156SOL     OW11781   0.886   6.146   9.635  0.0184 -0.3699  0.5159
67156SOL    HW111782   0.903   6.053   9.653  1.7061 -0.2146 -0.1015
67156SOL    HW211783   0.972   6.181   9.610 -0.9009  0.9801 -0.8691
67157SOL     OW11784   5.855   3.365   6.117  0.0587 -0.5948 -0.0171
67157SOL    HW111785   5.822   3.307   6.186  0.1314 -0.5110  0.0893
67157SOL    HW211786   5.778   3.412   6.087 -0.4495 -2.3694 -1.6974
67158SOL     OW11787  10.892   9.784   5.798 -0.3742  0.2115 -0.9219
67158SOL    HW111788  10.886   9.738   5.714  0.9240  2.9186 -2.6268
67158SOL    HW211789  10.969   9.746   5.840  0.4896  0.5473 -2.1444
67159SOL     OW11790   6.794   0.709   3.210  0.3940 -0.1611  0.2480
67159SOL    HW111791   6.780   0.621   3.174  0.6887 -0.2096  0.2472
67159SOL    HW211792   6.874   0.739   3.167  2.3417 -1.2865  2.8305
67160SOL     OW11793  11.361   8.032  10.934 -0.0994 -0.1780 -0.6659
67160SOL    HW111794  11.314   8.010  11.014  1.4232 -1.4654 -0.0700
67160SOL    HW211795  11.441   8.076  10.965  1.0579 -1.7057 -1.3622
67161SOL     OW11796   6.556   8.588  10.329  0.0366 -0.3007 -0.3839
67161SOL    HW111797   6.588   8.671  10.293 -0.2921  0.6764  1.4584
67161SOL    HW211798   6.605   8.521  10.281  2.7199  1.0289  0.2629
67162SOL     OW11799   6.813  10.197   2.160 -0.0793 -0.3348  0.1199
67162SOL    HW111800   6.886  10.136   2.167 -0.4122 -0.9275 -1.1844
67162SOL    HW211801   6.770  10.174   2.077 -0.7532  1.0898  0.0350
67163SOL     OW11802  10.271   4.259   8.122 -0.3786  0.6072 -0.7204
67163SOL    HW111803  10.353   4.263   8.073  0.0774  1.6184  0.0659
67163SOL    HW211804  10.227   4.180   8.090  1.3486 -0.5223 -0.4697
67164SOL     OW11805   2.162   4.402   4.080 -0.0639 -0.4536  0.3976
67164SOL    HW111806   2.172   4.471   4.014  1.5389 -0.8802  0.1598
67164SOL    HW211807   2.183   4.445   4.163 -0.9787 -0.1898  0.4970
67165SOL     OW11808   1.072   1.898   2.586  0.4667  0.1963  0.7010
67165SOL    HW111809   1.095   1.810   2.617  0.7336  0.1420  0.3502
67165SOL    HW211810   1.156   1.938   2.563  0.3713  0.6406  1.1087
67166SOL     OW11811   1.539   0.982   5.046  0.0786 -0.4099 -0.2176
67166SOL    HW111812   1.591   1.028   4.979  1.1575 -0.5909  0.4718
67166SOL    HW211813   1.596   0.980   5.123 -2.2312  2.5449  1.7882
67167SOL     OW11814   4.426   3.151   7.940 -0.1287 -0.3749 -0.7407
67167SOL    HW111815   4.367   3.105   7.880 -1.1708  0.3534 -0.2978
67167SOL    HW211816   4.390   3.133   8.027 -1.2251  2.1147 -0.6037
67168SOL     OW11817   6.877  12.025   5.183 -0.5306  0.1879  0.4334
67168SOL    HW111818   6.846  11.997   5.269 -1.7300 -0.9170 -0.3251
67168SOL    HW211819   6.905  11.944   5.140 -0.1566  0.6996 -0.3102
67169SOL     OW11820   2.983   8.085   4.143 -0.2051 -0.0517  0.0817
67169SOL    HW111821   2.951   8.066   4.231 -1.7882  3.0139  0.3098
67169SOL    HW211822   3.064   8.134   4.157  0.7210 -1.4176 -0.2956
67170SOL     OW11823   0.185   7.330   5.268 -0.4797  0.9071 -0.1243
67170SOL    HW111824   0.199   7.304   5.360 -0.5770  0.4151 -0.2417
67170SOL    HW211825   0.092   7.313   5.253 -0.6750  1.8775 -0.0448
67171SOL     OW11826   2.668   6.485   8.421  0.4631  0.1880 -0.1475
67171SOL    HW111827   2.632   6.416   8.365  2.2038 -0.3011 -0.7448
67171SOL    HW211828   2.646   6.457   8.510  0.5363 -0.7901 -0.4173
67172SOL     OW11829   7.390   0.347   0.125 -0.4801 -0.2893  0.6087
67172SOL    HW111830   7.444   0.331   0.047 -0.7155 -1.7881  0.7342
67172SOL    HW211831   7.397   0.267   0.176 -1.5728  0.1015  1.4022
67173SOL     OW11832   8.081  12.103   6.484 -0.4203  0.0927 -0.3362
67173SOL    HW111833   8.109  12.072   6.397 -1.6405 -0.4514 -0.5502
67173SOL    HW211834   8.163  12.124   6.529  0.2065  2.0659 -2.2126
67174SOL     OW11835   8.441  11.924   5.437 -0.4102 -0.3035  0.0015
67174SOL    HW111836   8.501  11.979   5.488 -0.3566 -1.0238  0.7475
67174SOL    HW211837   8.436  11.843   5.487 -1.0839 -0.6921 -0.6836
67175SOL     OW11838   4.178   6.256   9.096 -0.1300 -0.2211 -0.6236
67175SOL    HW111839   4.131   6.233   9.016 -0.5544 -1.4093 -0.0589
67175SOL    HW211840   4.156   6.348   9.111 -1.7073 -0.5375 -0.7742
67176SOL     OW11841   8.935  11.028   4.335  0.0688  0.1546  0.3342
67176SOL    HW111842   8.954  10.944   4.378 -0.4960  0.1549  0.5826
67176SOL    HW211843   8.973  11.094   4.393  3.2471 -0.0261 -1.2991
67177SOL     OW11844  11.794  12.480  10.429 -0.4114  0.3189 -0.0446
67177SOL    HW111845  11.832  12.432  10.502 -1.4894 -0.7008 -0.1133
67177SOL    HW211846  11.850  12.459  10.355 -0.2682 -0.0007  0.1527
67178SOL     OW11847   0.199   8.151   6.388  0.0192  0.1762  0.3627
67178SOL    HW111848   0.289   8.170   6.363  0.3072 -1.5297  0.0226
67178SOL    HW211849   0.146   8.209   6.332  0.8216 -0.4658 -1.1227
67179SOL     OW11850   9.373   0.586  12.486  0.1602 -0.0547  0.2258
67179SOL    HW111851   9.406   0.635  12.561  0.0108  0.6234 -0.1376
67179SOL    HW211852   9.310   0.525  12.523 -1.4522  1.6552  0.4806
67180SOL     OW11853   3.837  10.686  11.074  0.5636  0.3604 -0.2520
67180SOL    HW111854   3.846  10.770  11.120  1.3569  0.9103 -1.3734
67180SOL    HW211855   3.859  10.621  11.140  0.2824  1.0423  0.5426
67181SOL     OW11856   9.447   0.560   0.509  0.9448 -0.5569  0.1838
67181SOL    HW111857   9.512   0.508   0.556 -0.5813 -1.5682  1.2747
67181SOL    HW211858   9.380   0.498   0.484 -0.3872  0.6934  0.5125
67182SOL     OW11859   3.762   0.713  11.867 -0.2311 -0.0876 -0.1611
67182SOL    HW111860   3.819   0.711  11.790 -0.0985  0.2381 -0.0755
67182SOL    HW211861   3.799   0.647  11.926  0.5592  0.6754  0.2321
67183SOL     OW11862   0.993   2.028  10.231  0.2634 -0.4943 -0.6500
67183SOL    HW111863   1.076   1.993  10.200  0.7817 -0.4022  0.6046
67183SOL    HW211864   0.959   2.077  10.156  0.9718 -1.1486 -1.4210
67184SOL     OW11865   1.500   8.929  11.470 -0.5520 -0.3397 -0.1785
67184SOL    HW111866   1.507   8.988  11.395 -0.2549  1.6843  1.3502
67184SOL    HW211867   1.551   8.971  11.539 -1.0723 -1.9504  1.2771
67185SOL     OW11868   0.410  11.163   0.283  0.0362 -0.4410 -0.5583
67185SOL    HW111869   0.413  11.148   0.189  0.6576 -2.0921 -0.3041
67185SOL    HW211870   0.474  11.233   0.298  0.6227 -0.8149 -1.2623
67186SOL     OW11871   8.445   9.853   1.720 -0.0706 -0.2494  0.1583
67186SOL    HW111872   8.516   9.838   1.782  1.0734 -0.3676 -1.1358
67186SOL    HW211873   8.456   9.944   1.692  0.7867 -0.8080 -1.4689
67187SOL     OW11874   9.131   5.862   1.878  0.1046  0.6869 -0.7426
67187SOL    HW111875   9.046   5.906   1.885  0.6065  2.2353 -3.1190
67187SOL    HW211876   9.177   5.910   1.810  1.5182 -2.3670 -2.1335
67188SOL     OW11877   0.306   8.944   0.629  0.0651 -0.5516  0.5303
67188SOL    HW111878   0.291   9.019   0.571  1.5337 -0.2365  0.5167
67188SOL    HW211879   0.256   8.964   0.708  0.6357  0.5952  0.6310
67189SOL     OW11880   7.094  10.370  12.890  0.0115 -0.2609  0.0297
67189SOL    HW111881   7.052  10.351  12.806 -0.2600 -1.3482  0.4000
67189SOL    HW211882   7.129  10.459  12.879 -1.3240  0.1997 -0.7039
67190SOL     OW11883   9.538   4.224   4.904  0.2040  0.0640 -0.2857
67190SOL    HW111884   9.612   4.211   4.964 -0.2139 -0.3780  0.1442
67190SOL    HW211885   9.559   4.168   4.829  0.3744  0.0422 -0.2223
67191SOL     OW11886   5.375   9.162  12.126 -0.3244 -0.1392 -0.2793
67191SOL    HW111887   5.325   9.083  12.106  2.5599 -1.8075 -1.5110
67191SOL    HW211888   5.323   9.206  12.194 -2.2479 -2.8599  0.1967
67192SOL     OW11889   5.038   8.145   8.535 -0.1416  0.3410 -0.1773
67192SOL    HW111890   4.958   8.196   8.549  0.0129  0.3172  0.8962
67192SOL    HW211891   5.109   8.207   8.552  0.0598  0.0955 -0.1176
67193SOL     OW11892   8.385   1.854   6.455  0.0635  0.6102  0.2571
67193SOL    HW111893   8.363   1.765   6.427  1.5299  0.7673 -1.6118
67193SOL    HW211894   8.439   1.842   6.534  1.2214 -0.2662 -0.6255
67194SOL     OW11895   5.201   5.971   3.509  0.1327 -0.1874 -0.2645
67194SOL    HW111896   5.164   6.048   3.552 -1.2482 -0.8503 -0.2326
67194SOL    HW211897   5.282   6.003   3.468  0.3404  0.9436  0.9682
67195SOL     OW11898   2.637   4.829   1.054 -0.0298 -0.2748 -0.7593
67195SOL    HW111899   2.704   4.872   1.001  1.9938 -2.0908  0.1780
67195SOL    HW211900   2.638   4.878   1.137  0.6197 -0.6760 -0.5207
67196SOL     OW11901   1.005   2.275  12.336  0.7437 -0.6883 -0.0670
67196SOL    HW111902   1.084   2.230  12.306  0.8978  1.0961 -2.5579
67196SOL    HW211903   1.006   2.263  12.431  3.5769 -1.3965 -0.1028
67197SOL     OW11904   7.094   9.063  12.082  0.6483 -0.3106  0.1700
67197SOL    HW111905   7.169   9.015  12.116 -0.1932 -0.6630  1.6074
67197SOL    HW211906   7.105   9.152  12.115  1.7124  0.3206 -1.7154
67198SOL     OW11907   4.166  12.333   5.955  0.3548  0.5584 -0.6433
67198SOL    HW111908   4.255  12.303   5.938  1.2289  1.9367  1.1522
67198SOL    HW211909   4.110  12.276   5.901  2.0623 -2.3239  0.4198
67199SOL     OW11910  10.710   4.990   5.958  0.4656  0.2026  0.6751
67199SOL    HW111911  10.638   4.944   5.916 -0.0610  1.4591  0.1595
67199SOL    HW211912  10.671   5.031   6.035  0.0744  2.6462 -0.7271
67200SOL     OW11913   7.117   9.776   4.035 -0.8705 -0.1191 -0.4086
67200SOL    HW111914   7.109   9.724   4.115 -1.0178 -0.7437 -0.8258
67200SOL    HW211915   7.212   9.789   4.025 -0.9085  1.4400  0.7922
67201SOL     OW11916   6.870   2.361  12.508  0.0927  0.3270 -0.1297
67201SOL    HW111917   6.945   2.400  12.554 -2.0823  2.7309  1.6792
67201SOL    HW211918   6.809   2.337  12.577 -1.9925  1.1260 -1.5873
67202SOL     OW11919   7.241   1.278   8.276  0.0850 -0.0297  0.3653
67202SOL    HW111920   7.173   1.233   8.327 -0.9064  0.2154 -0.6876
67202SOL    HW211921   7.223   1.253   8.186  0.6957  0.9599 -0.0428
67203SOL     OW11922  10.985   6.060   3.880 -0.9270 -0.7434  0.7005
67203SOL    HW111923  11.026   6.133   3.928 -0.9294  1.9928 -3.0439
67203SOL    HW211924  11.059   6.009   3.847 -0.6302  0.8014 -1.1647
67204SOL     OW11925   4.560  10.371   9.996  0.1796  0.0086 -0.0152
67204SOL    HW111926   4.598  10.354   9.910 -1.0344  0.0881 -0.5987
67204SOL    HW211927   4.575  10.290  10.045 -0.0978 -0.4705 -0.6944
67205SOL     OW11928   4.650   3.172  12.173 -0.3002 -0.3339 -0.2194
67205SOL    HW111929   4.671   3.147  12.083  0.9854 -1.0395  0.2547
67205SOL    HW211930   4.655   3.091  12.223  1.2337  0.3579  0.8670
67206SOL     OW11931   9.475  12.251   5.048 -0.5663  0.0919 -0.4933
67206SOL    HW111932   9.403  12.268   4.987 -1.8375  0.6701  1.1039
67206SOL    HW211933   9.435  12.206   5.122  0.9514 -0.6597 -0.0786
67207SOL     OW11934   0.950   6.985   3.587  0.0301 -0.1014  0.6223
67207SOL    HW111935   0.954   7.043   3.663 -0.9513  0.9662 -0.0968
67207SOL    HW211936   0.857   6.983   3.564 -0.3561 -3.7315  1.9071
67208SOL     OW11937   9.102   6.735   2.589 -0.2792  0.3173  0.3460
67208SOL    HW111938   9.099   6.808   2.527 -0.0726  1.1654  1.3197
67208SOL    HW211939   9.192   6.702   2.583 -0.4878 -0.1472 -0.4003
67209SOL     OW11940   5.425  12.837   8.852  0.0911  0.0308  0.0385
67209SOL    HW111941   5.348  12.887   8.880 -0.6613 -0.7766 -0.4965
67209SOL    HW211942   5.416  12.832   8.757  1.6921  1.3041 -0.1983
67210SOL     OW11943   9.860   5.978   8.175  0.2158  0.6679 -0.4292
67210SOL    HW111944   9.878   6.033   8.252  1.7896 -0.1127 -0.2000
67210SOL    HW211945   9.764   5.970   8.173  0.0818  1.6927  0.7355
67211SOL     OW11946   0.539   4.691  12.214  0.4330  0.1210  0.6971
67211SOL    HW111947   0.508   4.781  12.217  1.1345  0.3547  1.3793
67211SOL    HW211948   0.478   4.642  12.268 -0.7796 -0.0996 -0.8084
67212SOL     OW11949   0.498  11.013   2.213  0.2623  0.3670  0.0927
67212SOL    HW111950   0.464  11.064   2.140 -1.9536  0.0085  0.7852
67212SOL    HW211951   0.521  11.078   2.280 -0.6367  0.5771  0.2127
67213SOL     OW11952   9.482   3.582   3.996  0.8429  0.2300 -0.1847
67213SOL    HW111953   9.520   3.566   3.910  1.7269 -0.1945  0.2731
67213SOL    HW211954   9.482   3.496   4.038 -0.1580  0.3231  0.0161
67214SOL     OW11955  10.386   5.616  12.672  0.2432  0.0719  0.1398
67214SOL    HW111956  10.412   5.626  12.763  0.5367  0.8423 -0.0214
67214SOL    HW211957  10.361   5.524  12.664 -1.3534  0.3366  1.4067
67215SOL     OW11958  11.168  11.772   9.978  0.0647 -0.4767  0.1775
67215SOL    HW111959  11.192  11.723   9.899  2.3527 -1.3833  1.3598
67215SOL    HW211960  11.111  11.712  10.027 -0.5282 -0.3063 -0.2911
67216SOL     OW11961   3.788  11.281   9.426 -0.1800 -0.0195 -0.4217
67216SOL    HW111962   3.709  11.261   9.476  0.0759 -0.7079 -0.2725
67216SOL    HW211963   3.767  11.361   9.378  0.0938  1.5531  1.9296
67217SOL     OW11964   5.282   3.659  11.187 -0.0537  0.4392  0.3246
67217SOL    HW111965   5.285   3.649  11.282  2.2245 -0.0944  0.2651
67217SOL    HW211966   5.216   3.596  11.158 -1.3416  1.1586  1.5648
67218SOL     OW11967   1.140   3.829   4.115 -0.3355  0.1511  0.2456
67218SOL    HW111968   1.193   3.754   4.143 -1.1023  0.0331  1.4488
67218SOL    HW211969   1.200   3.903   4.120  0.4928 -0.3713 -1.1511
67219SOL     OW11970  10.230   1.152   5.352  0.1819 -0.1107 -0.0234
67219SOL    HW111971  10.323   1.169   5.335 -0.0373  0.3274 -0.8370
67219SOL    HW211972  10.212   1.198   5.434  0.4795  0.5425 -0.3182
67220SOL     OW11973   5.174  10.245   6.699 -0.5750 -0.5319 -0.0092
67220SOL    HW111974   5.229  10.323   6.695 -0.6812 -0.3309  1.8382
67220SOL    HW211975   5.226  10.177   6.654  0.1412  0.2245 -0.3567
67221SOL     OW11976   0.152   9.568   0.556 -0.3818  0.4695  0.2334
67221SOL    HW111977   0.171   9.657   0.587 -0.0847  0.9145 -1.1516
67221SOL    HW211978   0.195   9.563   0.470 -0.1784 -1.1004  0.3980
67222SOL     OW11979  11.459  12.971  12.734 -0.5085 -0.4302  0.2788
67222SOL    HW111980  11.388  12.917  12.701 -0.1557 -0.8674  0.2331
67222SOL    HW211981  11.422  13.013  12.812 -0.7725 -0.7683  0.3407
67223SOL     OW11982   7.971   0.824   4.603  0.1056  0.2505 -0.0499
67223SOL    HW111983   8.032   0.765   4.560 -0.6083 -1.0580  0.6724
67223SOL    HW211984   7.971   0.903   4.548  1.4777 -0.2011 -0.7332
67224SOL     OW11985   0.518   4.125   3.568  0.0641 -0.2990  0.8704
67224SOL    HW111986   0.470   4.178   3.631  1.1462 -0.2799  1.7049
67224SOL    HW211987   0.493   4.035   3.587  0.0417 -0.2588  1.0321
67225SOL     OW11988  11.859   5.912  11.545  0.6857  0.3161 -0.4379
67225SOL    HW111989  11.931   5.885  11.602  0.4483  3.1502  1.3980
67225SOL    HW211990  11.788   5.851  11.565  1.0637  0.4254  1.3707
67226SOL     OW11991   8.667   3.486   2.643 -0.3316 -0.5821 -0.1841
67226SOL    HW111992   8.660   3.525   2.730 -2.0734  1.8911 -1.2935
67226SOL    HW211993   8.577   3.464   2.619  0.1035 -1.1166 -1.3968
67227SOL     OW11994   9.252   5.445   6.822 -0.0766 -0.1286  0.6401
67227SOL    HW111995   9.305   5.453   6.742  0.9028  0.2475  1.3163
67227SOL    HW211996   9.295   5.376   6.872  0.3226  0.8069  1.6077
67228SOL     OW11997  12.591   3.945   7.803 -0.2242  0.6520  0.6382
67228SOL    HW111998  12.501   3.968   7.829 -0.6023 -0.9676  0.8634
67228SOL    HW211999  12.585   3.854   7.776  1.9056 -0.5681  3.7161
67229SOL     OW12000   0.861   1.480   3.139 -0.1247  0.0431 -0.4598
67229SOL    HW112001   0.831   1.500   3.228 -2.0133 -0.6961 -0.8723
67229SOL    HW212002   0.878   1.385   3.140  1.1812  0.2587 -0.5486
67230SOL     OW12003   8.622   9.682   8.800 -0.1490  0.1429  0.1314
67230SOL    HW112004   8.682   9.749   8.833  0.4682 -1.1924  1.9152
67230SOL    HW212005   8.535   9.719   8.815  0.1789  1.4182 -0.9444
67231SOL     OW12006   0.268  11.391   0.494  0.6347  0.1999  0.4978
67231SOL    HW112007   0.247  11.349   0.411  1.1200 -1.5070  1.1970
67231SOL    HW212008   0.362  11.404   0.491  0.3401  2.5545 -0.2588
67232SOL     OW12009   6.515   3.142   3.240 -0.4106 -0.1802  0.1305
67232SOL    HW112010   6.442   3.147   3.179  1.2535  0.7326 -1.9242
67232SOL    HW212011   6.525   3.231   3.274 -0.2645 -0.3028  0.4143
67233SOL     OW12012   4.196   2.669  12.964 -0.6829 -0.1161  0.5452
67233SOL    HW112013   4.165   2.614  13.036 -2.0454 -0.9858 -0.6350
67233SOL    HW212014   4.246   2.610  12.908  2.1027  0.9727  1.6978
67234SOL     OW12015   7.908   9.236   6.006 -0.5585  0.1563  0.0267
67234SOL    HW112016   7.928   9.156   5.958 -0.6976 -0.2600  0.6559
67234SOL    HW212017   7.993   9.267   6.037 -0.5512 -0.0120  0.1828
67235SOL     OW12018   4.558   0.489   2.102  1.0392  0.4295 -0.4266
67235SOL    HW112019   4.536   0.403   2.137  1.7953 -0.4208 -1.9158
67235SOL    HW212020   4.511   0.494   2.019  0.8721  1.5257 -0.2743
67236SOL     OW12021  11.434   4.593   3.585  0.5253  0.4471  0.3150
67236SOL    HW112022  11.424   4.508   3.542  1.7331  1.2950 -1.8005
67236SOL    HW212023  11.464   4.572   3.673  0.8984 -1.3304 -0.1906
67237SOL     OW12024  11.723  12.588   8.566 -0.1765  0.7338  0.6296
67237SOL    HW112025  11.766  12.626   8.489 -0.4492  0.2983  0.2520
67237SOL    HW212026  11.784  12.522   8.598  0.7387  2.1194  1.8752
67238SOL     OW12027  11.160   4.716   8.789  0.5693  0.2591  0.3284
67238SOL    HW112028  11.114   4.730   8.871 -0.4116  1.5685 -0.4102
67238SOL    HW212029  11.180   4.804   8.756  2.0104 -0.2544 -0.2627
67239SOL     OW12030   7.545  10.357   9.139  0.0138  0.0269 -0.2739
67239SOL    HW112031   7.451  10.363   9.123  0.0118 -0.0785 -0.3061
67239SOL    HW212032   7.573  10.283   9.084 -0.0113 -0.4023  0.2855
67240SOL     OW12033   1.409   3.379  11.383 -0.1103  0.0084  0.1239
67240SOL    HW112034   1.345   3.323  11.427 -1.1997  0.2527 -1.1214
67240SOL    HW212035   1.360   3.456  11.357  0.7639  0.3458 -0.5723
67241SOL     OW12036   4.321  12.639   0.458  0.1316 -0.1642 -0.1161
67241SOL    HW112037   4.399  12.612   0.410  0.8231  0.5965  0.5386
67241SOL    HW212038   4.352  12.709   0.516 -0.7910 -0.6441  0.9918
67242SOL     OW12039   3.845   8.317   6.649  0.3780  0.7510 -0.3230
67242SOL    HW112040   3.806   8.331   6.735  1.9238  1.5770  0.2844
67242SOL    HW212041   3.791   8.369   6.589  0.4506  1.7734  0.4728
67243SOL     OW12042   2.493   1.701   3.522 -0.1182  0.3849  0.4024
67243SOL    HW112043   2.426   1.752   3.567 -0.6034 -2.3171  3.0975
67243SOL    HW212044   2.575   1.727   3.562 -0.2955 -0.3748  1.3126
67244SOL     OW12045   3.674   2.380   1.862 -0.0685  0.2798 -0.3665
67244SOL    HW112046   3.689   2.294   1.822  0.0527 -0.1995  0.6906
67244SOL    HW212047   3.744   2.389   1.927 -0.9145  0.5542  0.5285
67245SOL     OW12048  11.252   0.077  12.147 -0.6219  0.2872  0.4294
67245SOL    HW112049  11.197   0.001  12.125 -0.4931  0.1148  0.6982
67245SOL    HW212050  11.341   0.046  12.135 -0.5735  0.4585  0.3450
67246SOL     OW12051  12.143   2.994   3.214 -0.7059 -0.0239  1.0033
67246SOL    HW112052  12.214   2.985   3.150 -0.5292  0.2492  1.1583
67246SOL    HW212053  12.179   2.959   3.295 -0.7918 -0.0060  1.0498
67247SOL     OW12054  11.775   4.622   4.801 -0.4127 -0.1467 -0.1178
67247SOL    HW112055  11.823   4.562   4.858 -0.7453 -1.3499 -1.0664
67247SOL    HW212056  11.683   4.609   4.824 -0.4413  0.6189  0.2408
67248SOL     OW12057   0.925  11.257   7.701 -0.3756  0.2198 -0.5407
67248SOL    HW112058   0.929  11.329   7.763  0.8307  0.9353 -1.4100
67248SOL    HW212059   0.897  11.182   7.754 -0.5595  1.0635  0.6021
67249SOL     OW12060   2.389   8.101   1.189 -0.0078  0.4004 -0.0936
67249SOL    HW112061   2.474   8.139   1.168 -0.6858  2.7593  1.0388
67249SOL    HW212062   2.398   8.070   1.279 -0.4404  1.0128  0.1668
67250SOL     OW12063  12.270   7.030   0.020  0.2075  0.1022 -0.1848
67250SOL    HW112064  12.254   7.097  -0.047  0.5962  0.2636 -0.1223
67250SOL    HW212065  12.327   7.073   0.084  0.3721 -0.2544 -0.0875
67251SOL     OW12066   9.609   3.037   9.389  0.4629  0.4408 -0.4278
67251SOL    HW112067   9.558   3.045   9.308  1.2187  0.9261 -0.8703
67251SOL    HW212068   9.622   3.128   9.418  0.5059  0.2851  0.0421
67252SOL     OW12069   8.071   7.584   0.473 -0.3211 -0.0632 -0.4764
67252SOL    HW112070   8.076   7.619   0.561  0.3051 -0.5584 -0.3141
67252SOL    HW212071   8.124   7.505   0.474 -3.0844 -2.0822 -0.3483
67253SOL     OW12072   8.396   8.240   9.278  0.2857 -0.4125 -0.0134
67253SOL    HW112073   8.460   8.288   9.226 -0.7300  0.0462 -0.8618
67253SOL    HW212074   8.338   8.199   9.214 -1.6183  0.9922  0.7116
67254SOL     OW12075   4.742   9.982  11.446  0.1069 -0.5685  0.0949
67254SOL    HW112076   4.773   9.924  11.376 -0.4635  0.1008 -0.7368
67254SOL    HW212077   4.651  10.001  11.423 -0.5422 -1.4724  1.8015
67255SOL     OW12078   9.794   4.376   9.775  0.2041  0.1671 -1.0624
67255SOL    HW112079   9.729   4.422   9.828  0.5874 -1.3231  0.8116
67255SOL    HW212080   9.770   4.396   9.684 -3.6764 -1.3576 -0.5263
67256SOL     OW12081   5.110   1.829   8.468 -0.6487 -0.1879  0.3210
67256SOL    HW112082   5.174   1.894   8.496 -0.0262 -0.0624 -1.2534
67256SOL    HW212083   5.095   1.774   8.545 -0.2399  1.0467  1.3165
67257SOL     OW12084   5.694   5.948   9.349 -0.4128 -0.4036  0.1406
67257SOL    HW112085   5.724   5.858   9.365 -1.4109 -0.8756 -0.5666
67257SOL    HW212086   5.775   5.996   9.329  0.1091 -1.1892  0.2931
67258SOL     OW12087  10.194   5.793   2.025 -0.1642  0.2140 -0.1978
67258SOL    HW112088  10.203   5.810   1.931  0.8642 -1.2592 -0.3962
67258SOL    HW212089  10.284   5.785   2.057 -0.4640  1.5254  1.1136
67259SOL     OW12090   4.915  10.613  10.452  0.7668 -1.1618 -0.6312
67259SOL    HW112091   4.975  10.686  10.442  1.8567 -1.7991  0.7535
67259SOL    HW212092   4.971  10.535  10.448  0.7077 -1.7083  3.8570
67260SOL     OW12093   7.835   8.724  12.738  0.3116  0.3018  0.1418
67260SOL    HW112094   7.906   8.786  12.758 -0.2138  0.6366  1.0249
67260SOL    HW212095   7.843   8.657  12.806 -0.3791  0.4822  0.4046
67261SOL     OW12096   5.527  10.899  11.274 -0.5149 -0.0319  0.2722
67261SOL    HW112097   5.615  10.890  11.237 -1.1514 -0.7800 -1.1463
67261SOL    HW212098   5.528  10.985  11.316  0.6553  0.3145 -0.3903
67262SOL     OW12099   5.101   6.583  12.684  0.5662 -0.2474  0.6152
67262SOL    HW112100   5.048   6.560  12.760  1.0600  1.1263  1.4180
67262SOL    HW212101   5.037   6.614  12.619  0.3081  0.6523  1.2821
67263SOL     OW12102   9.700   9.191  12.409  0.2439  0.0057  0.7206
67263SOL    HW112103   9.739   9.138  12.339 -1.8519 -1.4723  0.5784
67263SOL    HW212104   9.752   9.172  12.486  0.7837 -0.6368  0.2057
67264SOL     OW12105  11.653   2.238  10.441  0.2200  0.3930  0.7661
67264SOL    HW112106  11.615   2.181  10.509 -4.0359  0.1426 -1.4784
67264SOL    HW212107  11.698   2.178  10.381  1.0076  0.2181  1.5058
67265SOL     OW12108   1.094  12.079   2.789  0.7391  0.2916 -0.3487
67265SOL    HW112109   1.175  12.074   2.738  0.6137  1.5357 -0.6854
67265SOL    HW212110   1.079  12.172   2.801 -1.1120  0.1112 -1.0396
67266SOL     OW12111   7.113   4.983   6.609 -0.0268 -0.6948  0.2521
67266SOL    HW112112   7.125   5.044   6.682  1.0652 -0.0226 -0.4594
67266SOL    HW212113   7.117   5.038   6.530  1.3796 -1.7129 -0.4302
67267SOL     OW12114  12.399   6.384   1.945  0.5168  0.2744 -0.6933
67267SOL    HW112115  12.378   6.317   2.010 -0.5680  0.1439 -1.1550
67267SOL    HW212116  12.475   6.350   1.898  0.8484  0.0322  0.0177
67268SOL     OW12117   6.115   4.936   5.310  0.0074 -0.2666  0.4938
67268SOL    HW112118   6.142   5.008   5.367 -1.0430 -0.0350  0.7311
67268SOL    HW212119   6.160   4.952   5.228 -1.6204  1.7766 -0.0937
67269SOL     OW12120   6.112  10.833  11.755  0.2006  0.0278 -0.2694
67269SOL    HW112121   6.178  10.852  11.689  0.7444  0.2733  0.3367
67269SOL    HW212122   6.154  10.771  11.814  0.4804  1.4144  1.0416
67270SOL     OW12123  11.725   0.425   9.812 -0.3383  0.0739 -0.1738
67270SOL    HW112124  11.647   0.374   9.834  0.8266 -1.2476  1.0970
67270SOL    HW212125  11.773   0.432   9.894  1.0829  0.4833 -1.0082
67271SOL     OW12126   0.798  10.840  12.719  0.0680 -0.3943 -0.0427
67271SOL    HW112127   0.811  10.857  12.813  0.4803  0.9904 -0.3293
67271SOL    HW212128   0.760  10.752  12.716 -1.7779  0.2574  1.5601
67272SOL     OW12129   6.752   2.099   3.480 -0.2685  0.3342 -0.2032
67272SOL    HW112130   6.817   2.158   3.518  0.0264 -0.5141  0.6639
67272SOL    HW212131   6.804   2.036   3.430 -0.6834  1.7468 -2.5401
67273SOL     OW12132  12.604   1.400   3.683 -0.5889 -0.1062  0.5700
67273SOL    HW112133  12.663   1.330   3.711 -1.9447 -1.1160  1.0051
67273SOL    HW212134  12.658   1.478   3.683  1.5338 -1.4316 -1.8513
67274SOL     OW12135   2.181   9.677  11.265 -0.1476  0.1754 -0.3599
67274SOL    HW112136   2.200   9.721  11.348 -1.2609 -0.2192  0.1281
67274SOL    HW212137   2.218   9.589  11.275 -1.9654 -0.5506  0.5408
67275SOL     OW12138   4.744  11.934  12.597 -0.3338  0.4386  0.3094
67275SOL    HW112139   4.675  11.966  12.655 -1.8070 -0.8927 -0.6352
67275SOL    HW212140   4.701  11.870  12.541  1.0277  1.5436 -2.2068
67276SOL     OW12141   2.263   6.331   4.386  0.0212  0.2570  0.3212
67276SOL    HW112142   2.277   6.346   4.292 -0.5870 -0.4933  0.0989
67276SOL    HW212143   2.324   6.261   4.408 -0.5511 -0.2760  0.2450
67277SOL     OW12144  10.587   4.950   6.919  0.3775 -0.3531 -0.2346
67277SOL    HW112145  10.671   4.938   6.963  0.5930 -0.8038 -0.7649
67277SOL    HW212146  10.553   4.861   6.907  0.8950 -0.3290 -2.0834
67278SOL     OW12147  11.256   2.555   4.400 -0.0895  0.0347 -0.1178
67278SOL    HW112148  11.210   2.496   4.341 -0.8557 -2.9853  3.1157
67278SOL    HW212149  11.335   2.506   4.426  0.1288  1.1117  1.4305
67279SOL     OW12150  10.829   4.570   3.689  0.1179  0.1226 -0.0091
67279SOL    HW112151  10.747   4.599   3.729 -0.1282  0.4066 -0.7007
67279SOL    HW212152  10.869   4.651   3.655  2.0743  0.4559  2.7473
67280SOL     OW12153  11.609   0.827   9.258 -0.3225 -0.3945 -0.5947
67280SOL    HW112154  11.622   0.748   9.312 -1.5497 -0.9302 -1.0492
67280SOL    HW212155  11.517   0.850   9.271  0.5486  2.4485  1.4686
67281SOL     OW12156   3.175   4.452   8.477  0.0150  0.1538 -0.9516
67281SOL    HW112157   3.178   4.543   8.448  1.2938  0.8814  1.1822
67281SOL    HW212158   3.229   4.404   8.414  0.0283  1.0412 -1.6254
67282SOL     OW12159   2.947   8.980   3.152 -0.0721  0.2786 -0.4946
67282SOL    HW112160   2.930   8.977   3.058 -0.1296 -1.2598 -0.4568
67282SOL    HW212161   2.868   8.943   3.192  0.4062 -0.1130  0.1013
67283SOL     OW12162   8.943  11.487  12.634 -0.0178 -0.3864 -0.5718
67283SOL    HW112163   8.952  11.412  12.692 -1.6351 -1.0501 -1.1122
67283SOL    HW212164   9.025  11.535  12.642  0.1190 -0.9093  1.6041
67284SOL     OW12165   2.916   8.177   6.546  0.0596 -0.3716  0.0866
67284SOL    HW112166   3.007   8.174   6.516 -0.1077 -0.6903 -0.4151
67284SOL    HW212167   2.899   8.269   6.565 -0.0653 -0.0110 -1.5886
67285SOL     OW12168   6.119  10.916   0.113  0.1297 -0.2004 -0.0934
67285SOL    HW112169   6.093  10.865   0.190  0.7218 -0.4254 -0.0328
67285SOL    HW212170   6.048  10.904   0.051 -0.2553 -0.1922  0.3380
67286SOL     OW12171  11.335  10.115   8.481  0.5882 -0.4424  0.2873
67286SOL    HW112172  11.430  10.105   8.478  0.7417  0.9717 -1.8515
67286SOL    HW212173  11.300  10.030   8.456  1.2457 -1.1390  1.6540
67287SOL     OW12174   8.348  12.018   9.485 -0.1103  0.5922  0.1463
67287SOL    HW112175   8.368  12.095   9.538 -0.9558  0.6762  0.3567
67287SOL    HW212176   8.297  11.962   9.543  1.6793 -0.7836  0.4603
67288SOL     OW12177   9.212   1.050   3.163  0.1596  0.0026 -0.0365
67288SOL    HW112178   9.228   1.135   3.123 -0.5125 -0.3441 -1.0783
67288SOL    HW212179   9.155   1.069   3.238  0.7563  0.5654  0.2833
67289SOL     OW12180  11.800   2.378   8.289  0.1096  0.1723  0.3704
67289SOL    HW112181  11.739   2.313   8.323 -1.5106  0.9046 -0.9701
67289SOL    HW212182  11.879   2.329   8.267 -1.3155 -1.5286 -1.2765
67290SOL     OW12183  11.074   3.241   1.238  0.1037  0.5364  0.1007
67290SOL    HW112184  10.993   3.292   1.234 -0.0472  0.2791 -0.1386
67290SOL    HW212185  11.143   3.308   1.242 -0.0525  0.7871 -1.0337
67291SOL     OW12186   5.965   9.709   3.546  0.5059 -0.3706 -0.2588
67291SOL    HW112187   6.050   9.665   3.541  0.2378 -0.9719  0.2851
67291SOL    HW212188   5.962   9.763   3.468  0.0254 -2.8332 -2.0702
67292SOL     OW12189   2.241   0.985   0.215  0.2804  0.0142 -0.2545
67292SOL    HW112190   2.281   1.049   0.275 -0.7739 -0.6092  1.1801
67292SOL    HW212191   2.214   1.037   0.139  1.0388  0.9531  0.1007
67293SOL     OW12192   4.647   8.191   1.161 -0.8294  0.1240  0.3035
67293SOL    HW112193   4.727   8.224   1.119 -0.4592  0.6842  1.4058
67293SOL    HW212194   4.616   8.265   1.214 -1.0453 -0.6731  1.3279
67294SOL     OW12195  10.253   9.459  10.430  0.2191 -0.6184 -0.1875
67294SOL    HW112196  10.296   9.508  10.361  2.3711 -0.9619  0.8390
67294SOL    HW212197  10.248   9.520  10.504  1.7941 -1.4843  0.6932
67295SOL     OW12198   3.632   1.263   3.179 -0.0737  0.2606  0.8548
67295SOL    HW112199   3.677   1.220   3.107  1.2242 -1.3790  2.5355
67295SOL    HW212200   3.551   1.212   3.191  0.2565 -0.1808  1.2500
67296SOL     OW12201  10.813   8.402   1.973 -0.2417 -0.4445 -0.4608
67296SOL    HW112202  10.832   8.489   2.009  1.7847  0.1196 -2.6197
67296SOL    HW212203  10.732   8.414   1.923 -1.7868 -0.6768  1.8789
67297SOL     OW12204   9.278   3.964   2.416 -0.3243 -0.7005  0.2452
67297SOL    HW112205   9.351   4.021   2.391 -0.9446 -0.0315 -0.0924
67297SOL    HW212206   9.307   3.876   2.392  0.5115 -0.4903  0.4490
67298SOL     OW12207   6.714   6.974   5.533 -0.6366 -0.5586  0.0934
67298SOL    HW112208   6.744   6.898   5.483 -3.7490 -0.8180 -1.6493
67298SOL    HW212209   6.632   6.945   5.573 -2.1960  1.9457 -1.0505
67299SOL     OW12210   3.556   0.519   9.244  0.2744 -0.2574 -0.6130
67299SOL    HW112211   3.651   0.527   9.258  0.0797 -1.2186  1.5616
67299SOL    HW212212   3.517   0.572   9.314 -0.7880 -2.1010  0.2587
67300SOL     OW12213   6.761  11.384   0.496  0.0451 -0.2596  0.1530
67300SOL    HW112214   6.829  11.317   0.499  1.6325  1.2875  2.7492
67300SOL    HW212215   6.680  11.339   0.519  0.7918 -1.5305  0.3333
67301SOL     OW12216   1.812   5.683   3.288 -0.5534 -0.2197  0.8271
67301SOL    HW112217   1.720   5.691   3.266 -1.2517 -1.0565  3.1623
67301SOL    HW212218   1.855   5.751   3.236 -2.4053 -0.0688 -0.6018
67302SOL     OW12219   3.607  12.139   5.621 -0.1107 -0.2871 -0.3748
67302SOL    HW112220   3.655  12.103   5.696 -0.1699  0.8473  0.2240
67302SOL    HW212221   3.628  12.079   5.549  0.8305 -0.7800  0.2805
67303SOL     OW12222   2.218   0.227  10.657 -0.2533  0.8566 -0.4515
67303SOL    HW112223   2.208   0.305  10.602  0.3935  0.5616 -0.9950
67303SOL    HW212224   2.284   0.252  10.722 -2.7542  2.0808  1.8321
67304SOL     OW12225   3.827   1.003   0.523 -0.1615  0.7672 -0.1540
67304SOL    HW112226   3.881   1.031   0.450 -0.7742  2.1645 -0.1056
67304SOL    HW212227   3.737   1.019   0.494 -0.7064 -2.4207 -0.6206
67305SOL     OW12228   8.206   8.727   0.078 -0.1688 -0.5884 -0.2118
67305SOL    HW112229   8.243   8.802   0.125 -0.5884  0.7753 -1.9499
67305SOL    HW212230   8.130   8.702   0.129 -0.3656  0.5629  0.0923
67306SOL     OW12231   8.987   9.802   7.365  0.4652  0.5153  0.1891
67306SOL    HW112232   8.996   9.893   7.394  3.1527  0.1973  0.5621
67306SOL    HW212233   9.045   9.795   7.290 -0.7337 -0.6019 -0.6789
67307SOL     OW12234   5.950  12.015   9.556 -0.8068  0.8727  0.3398
67307SOL    HW112235   5.892  11.994   9.630  1.1166 -0.6962  1.4755
67307SOL    HW212236   5.959  11.933   9.508  2.9816  0.0360  2.0939
67308SOL     OW12237   0.899  12.194   0.297  0.0305 -0.3832  0.1156
67308SOL    HW112238   0.943  12.275   0.326 -1.2119  0.1443  0.5949
67308SOL    HW212239   0.917  12.189   0.204 -1.6956  1.6654 -0.3985
67309SOL     OW12240   6.135   9.703  10.201 -0.1056 -0.0010  0.5019
67309SOL    HW112241   6.174   9.615  10.201 -0.5979 -0.2830  2.8152
67309SOL    HW212242   6.192   9.755  10.145  2.2279 -0.9672  1.8504
67310SOL     OW12243   5.749   0.041   3.573  0.3164  0.0329  0.3752
67310SOL    HW112244   5.803   0.046   3.652  1.1085  0.6453 -0.1934
67310SOL    HW212245   5.790  -0.026   3.519  0.2052  0.1320  0.1660
67311SOL     OW12246   3.664  10.310  11.206  0.2822 -0.0307  0.3547
67311SOL    HW112247   3.603  10.241  11.232  1.1118 -1.3310 -0.9909
67311SOL    HW212248   3.622  10.391  11.235 -0.7578 -1.0606  1.9168
67312SOL     OW12249  12.404   9.763   9.205 -0.1663 -0.3650 -0.1081
67312SOL    HW112250  12.330   9.813   9.173  1.5655  0.6777 -2.8852
67312SOL    HW212251  12.425   9.702   9.134  1.8030 -0.4056  0.4341
67313SOL     OW12252   1.242   2.098   5.584  0.5319 -0.0041 -0.0473
67313SOL    HW112253   1.260   2.177   5.533  3.0318 -0.6688 -0.3682
67313SOL    HW212254   1.203   2.037   5.521  1.4454 -0.0236 -0.6236
67314SOL     OW12255   1.454  10.936  11.135  0.2866  0.7272 -0.4900
67314SOL    HW112256   1.519  10.986  11.086  0.6451 -0.1339 -0.9289
67314SOL    HW212257   1.464  10.964  11.225 -1.6511  3.7446 -1.0549
67315SOL     OW12258  11.787  11.870   3.787  0.0878 -0.7439 -0.0863
67315SOL    HW112259  11.876  11.893   3.811 -0.5218  0.3903  1.2754
67315SOL    HW212260  11.772  11.914   3.703  0.1672  0.8771  0.6949
67316SOL     OW12261   3.836  10.166   5.493 -0.0472  0.2617 -0.4288
67316SOL    HW112262   3.915  10.161   5.439 -1.2787  0.9274 -2.4145
67316SOL    HW212263   3.794  10.248   5.467 -0.5838  0.7639  1.8132
67317SOL     OW12264   0.930   0.864   9.946  0.6831  0.1526 -0.5996
67317SOL    HW112265   0.976   0.943   9.918  0.2033  0.1816 -1.3206
67317SOL    HW212266   0.837   0.883   9.931  0.6586 -1.1937 -2.5299
67318SOL     OW12267   7.064   7.841   2.936 -0.4651 -0.4233  0.1783
67318SOL    HW112268   6.974   7.833   2.905 -0.3894  0.6164 -0.3437
67318SOL    HW212269   7.098   7.918   2.890 -0.0132  0.5311  2.0404
67319SOL     OW12270  10.567   7.383   0.705 -0.0191 -0.3698 -0.2149
67319SOL    HW112271  10.637   7.371   0.641  1.3531 -0.0374  1.1652
67319SOL    HW212272  10.602   7.348   0.786 -1.9907 -1.4541  0.2387
67320SOL     OW12273   4.462   4.800   6.073 -0.3043 -0.6601  0.0433
67320SOL    HW112274   4.444   4.791   5.980  0.4146  0.5061 -0.2241
67320SOL    HW212275   4.380   4.777   6.116 -0.5293 -1.6082 -0.8413
67321SOL     OW12276   4.341  10.107  11.592  0.2742 -0.1085  0.2210
67321SOL    HW112277   4.310  10.097  11.682 -1.5809 -0.0354 -0.3701
67321SOL    HW212278   4.279  10.169  11.552  1.8362  0.8867 -0.7586
67322SOL     OW12279   7.195   8.845   3.098  0.0785  0.2980  0.2834
67322SOL    HW112280   7.118   8.897   3.119 -0.0304 -0.8665  3.4098
67322SOL    HW212281   7.232   8.885   3.020 -2.5728  2.0951 -0.1489
67323SOL     OW12282  11.980  12.114   4.967  0.4462  0.5444  0.5588
67323SOL    HW112283  11.946  12.180   5.027  0.0377 -0.7979  1.8723
67323SOL    HW212284  11.945  12.031   4.999 -0.6599 -0.1665 -2.1801
67324SOL     OW12285   6.020   4.872   7.098 -0.1046  0.2159 -0.2443
67324SOL    HW112286   6.054   4.784   7.113 -0.1673  0.1446 -0.5294
67324SOL    HW212287   6.045   4.894   7.008 -2.6551 -0.6975 -1.2549
67325SOL     OW12288   8.486  10.246   0.228  0.2350 -0.0384 -0.2305
67325SOL    HW112289   8.499  10.161   0.270 -0.3725 -0.1248 -0.2099
67325SOL    HW212290   8.535  10.240   0.146  0.0067 -0.4958 -0.3381
67326SOL     OW12291   5.539   0.180   8.438  0.3765  0.1611 -0.4377
67326SOL    HW112292   5.632   0.205   8.446  0.7699 -0.7673 -1.8258
67326SOL    HW212293   5.532   0.142   8.351 -1.1107 -0.6997  0.0326
67327SOL     OW12294   7.375   0.199  10.980 -0.4943  0.3397 -0.6802
67327SOL    HW112295   7.341   0.287  10.967 -0.4587  0.3435 -0.7489
67327SOL    HW212296   7.449   0.193  10.919 -0.0545  0.5098 -0.1739
67328SOL     OW12297   1.575   7.041   1.074  0.4696 -0.5611  0.2030
67328SOL    HW112298   1.587   7.128   1.038  0.4755 -1.4037 -1.9890
67328SOL    HW212299   1.579   7.053   1.169  0.7307  1.7537 -0.0532
67329SOL     OW12300  12.531   0.554  10.770 -0.1404  0.8144 -0.2405
67329SOL    HW112301  12.540   0.491  10.698  2.4766  1.1766 -0.3212
67329SOL    HW212302  12.524   0.639  10.726  0.9220  0.9823 -0.1169
67330SOL     OW12303   2.760   6.230  12.139 -0.8901 -0.2530 -0.3287
67330SOL    HW112304   2.720   6.314  12.116 -0.3096 -0.5065 -2.5461
67330SOL    HW212305   2.837   6.225  12.082  0.8795 -0.9154  1.9828
67331SOL     OW12306   3.194   0.342  12.146 -0.5532 -0.1701 -0.0013
67331SOL    HW112307   3.167   0.412  12.087 -2.3482 -1.6273 -1.0122
67331SOL    HW212308   3.288   0.357  12.159 -0.4630  1.2132 -1.8354
67332SOL     OW12309   9.254   9.681   4.548 -0.4696  0.1060  0.1554
67332SOL    HW112310   9.330   9.715   4.596 -0.8552  2.1637 -0.5867
67332SOL    HW212311   9.179   9.700   4.605 -0.6674  0.2797 -0.1605
67333SOL     OW12312   9.144   1.522   7.444 -0.4131 -0.4459 -0.0825
67333SOL    HW112313   9.093   1.569   7.378 -0.7832 -0.3749  0.2481
67333SOL    HW212314   9.078   1.485   7.503 -0.0828 -0.2296  0.4348
67334SOL     OW12315   2.773   4.657   8.757 -0.1584 -0.0057  0.0892
67334SOL    HW112316   2.820   4.603   8.820  0.6334  0.6624  0.0953
67334SOL    HW212317   2.788   4.614   8.672  1.1449  0.6138 -0.0203
67335SOL     OW12318   2.335   7.943   2.413 -0.5522  0.5822 -0.1410
67335SOL    HW112319   2.287   7.884   2.471 -0.9027  0.0322 -0.9697
67335SOL    HW212320   2.288   7.937   2.329 -0.7071  2.1680 -0.2024
67336SOL     OW12321   4.737   7.519   1.528 -0.0035  0.1505 -0.5540
67336SOL    HW112322   4.717   7.484   1.614  0.6005  0.7950 -0.1400
67336SOL    HW212323   4.696   7.459   1.467 -2.3173  0.8643  0.2186
67337SOL     OW12324   1.561   2.415   2.513 -0.2705 -0.0182 -0.4541
67337SOL    HW112325   1.601   2.430   2.599 -0.3875  0.5921 -0.5029
67337SOL    HW212326   1.500   2.487   2.502  0.0440  0.1346 -1.2294
67338SOL     OW12327   7.598  10.485   0.808 -0.4508  0.2728 -0.3022
67338SOL    HW112328   7.628  10.561   0.858  1.1803 -0.1913 -0.5065
67338SOL    HW212329   7.556  10.523   0.731 -2.4618  0.9848  1.0646
67339SOL     OW12330   4.897   5.999   0.509  0.2622 -0.2343  0.0614
67339SOL    HW112331   4.805   5.978   0.498  0.4230 -1.5415  0.9501
67339SOL    HW212332   4.931   6.007   0.420 -0.6414 -0.0500 -0.2726
67340SOL     OW12333   4.932   2.592   4.886  0.3218  0.2224  0.4989
67340SOL    HW112334   4.842   2.626   4.881  0.3055 -0.0341 -2.7762
67340SOL    HW212335   4.978   2.637   4.816  2.8040  0.2441  2.0200
67341SOL     OW12336   3.956   1.727   4.175 -0.0768  0.3099  0.4694
67341SOL    HW112337   3.925   1.647   4.134  0.6587  1.9460 -3.7518
67341SOL    HW212338   4.046   1.706   4.202  0.4238 -0.1037 -1.3964
67342SOL     OW12339   3.327  11.483   5.638 -0.1340 -0.2459  0.3507
67342SOL    HW112340   3.422  11.491   5.643  0.1700 -1.5769 -1.8815
67342SOL    HW212341   3.298  11.564   5.594  0.5163 -1.5558 -2.7431
67343SOL     OW12342   6.209   3.153   8.228  0.1282 -0.4667  0.0950
67343SOL    HW112343   6.116   3.146   8.249  0.4755  2.2112  3.1590
67343SOL    HW212344   6.245   3.069   8.255 -0.9559 -0.4155  1.8514
67344SOL     OW12345  10.257   8.134   3.813 -0.2603 -0.0678  0.2685
67344SOL    HW112346  10.225   8.086   3.737 -2.2611  1.1669  0.2542
67344SOL    HW212347  10.339   8.090   3.837 -0.8009 -1.9586 -1.1386
67345SOL     OW12348   6.002   2.638   4.307  0.5515 -0.3973  0.2049
67345SOL    HW112349   6.066   2.603   4.245  2.0947 -1.1481  2.1348
67345SOL    HW212350   6.022   2.595   4.390 -1.6210  0.3601  1.2086
67346SOL     OW12351  12.582  11.002  10.865 -0.1094 -0.0360 -0.1765
67346SOL    HW112352  12.675  11.003  10.891  0.3224  0.9692 -1.6027
67346SOL    HW212353  12.580  10.944  10.789 -0.7409 -0.3824  0.1037
67347SOL     OW12354   2.874   0.010   7.097  0.0446  0.0841 -0.3783
67347SOL    HW112355   2.908  -0.058   7.039 -0.6234 -1.8593  1.3721
67347SOL    HW212356   2.939   0.080   7.094  1.1094 -0.9186 -1.7290
67348SOL     OW12357   5.454  10.219   6.904  0.7830 -0.8494 -0.3578
67348SOL    HW112358   5.482  10.305   6.937 -1.8423 -0.4007  0.9302
67348SOL    HW212359   5.530  10.162   6.918  2.1541  0.9488 -0.0622
67349SOL     OW12360   1.180   0.521  12.720 -0.5086  0.7072  0.4897
67349SOL    HW112361   1.239   0.447  12.706  1.0194  1.6298  1.8263
67349SOL    HW212362   1.092   0.482  12.717  0.0566 -0.6075 -2.1231
67350SOL     OW12363  12.505  10.705  12.202 -0.1871 -0.1727 -0.2332
67350SOL    HW112364  12.569  10.741  12.141 -2.7211  0.7651 -2.5257
67350SOL    HW212365  12.482  10.778  12.260 -0.2710 -0.0582 -0.4091
67351SOL     OW12366   8.610   0.162   2.098 -0.4205  0.3686 -0.3142
67351SOL    HW112367   8.637   0.223   2.029 -1.6026  1.3224  0.0385
67351SOL    HW212368   8.638   0.076   2.066  1.4046  1.0851 -0.7595
67352SOL     OW12369   6.089   7.047   3.775 -0.1003 -0.4348  0.6926
67352SOL    HW112370   6.168   7.012   3.817 -0.3810 -0.8121  0.9208
67352SOL    HW212371   6.068   6.983   3.707  0.6884  0.4704 -0.4488
67353SOL     OW12372  12.164  12.305   2.376  0.4511  0.6510 -0.1361
67353SOL    HW112373  12.187  12.394   2.404 -0.8011  1.0093 -0.1956
67353SOL    HW212374  12.131  12.263   2.456  0.6601  0.3728 -0.1978
67354SOL     OW12375   9.969   6.567   7.175  0.0488 -0.4379  0.1722
67354SOL    HW112376   9.952   6.573   7.269 -1.1522  0.7595 -0.0945
67354SOL    HW212377   9.898   6.617   7.134  0.6325 -0.8080 -1.3712
67355SOL     OW12378   3.474  11.637   2.349  0.7644 -0.0885  0.2805
67355SOL    HW112379   3.547  11.658   2.407  2.0565 -0.0753 -1.2818
67355SOL    HW212380   3.396  11.668   2.396  1.9845  2.4289  0.8350
67356SOL     OW12381  12.312  10.196   1.956 -0.4685  0.4213 -0.5239
67356SOL    HW112382  12.344  10.239   1.876 -0.2803  1.1101 -0.0865
67356SOL    HW212383  12.273  10.267   2.008  0.7643  0.2676  0.6686
67357SOL     OW12384   1.621   5.132   2.008  0.3523  0.2322  0.4431
67357SOL    HW112385   1.679   5.114   1.934 -0.7143 -3.6098  0.2924
67357SOL    HW212386   1.541   5.165   1.967  0.0164 -1.1962 -0.1202
67358SOL     OW12387   8.461   7.031   8.031  0.5877 -0.3449 -0.1865
67358SOL    HW112388   8.448   7.125   8.018 -1.2981 -0.7551 -1.8204
67358SOL    HW212389   8.554   7.022   8.052  0.6147  1.9492  1.0020
67359SOL     OW12390   5.670   8.645   6.176  0.5601 -0.1228 -0.4592
67359SOL    HW112391   5.649   8.719   6.119 -1.2993  0.8711  1.3902
67359SOL    HW212392   5.589   8.594   6.181  1.1913 -1.1327 -0.0163
67360SOL     OW12393   4.665   3.445   5.063 -0.3341  0.0276 -0.0063
67360SOL    HW112394   4.608   3.378   5.100 -1.0338 -0.4066 -1.7988
67360SOL    HW212395   4.697   3.408   4.981  1.5104  0.7929  0.3022
67361SOL     OW12396  10.754   7.851   3.270  0.5724  0.1269 -0.4395
67361SOL    HW112397  10.691   7.864   3.199  0.0545  2.1166  0.3263
67361SOL    HW212398  10.727   7.768   3.311  0.4344 -0.6784 -2.0655
67362SOL     OW12399  10.513   6.219   3.517  0.1051 -0.1652 -0.1409
67362SOL    HW112400  10.461   6.202   3.439 -0.4015 -0.2996  0.2259
67362SOL    HW212401  10.497   6.144   3.574 -1.2667  0.9507  1.0150
67363SOL     OW12402  10.308   8.128   7.332  0.3182 -0.1463  1.5125
67363SOL    HW112403  10.258   8.139   7.413 -0.2325  2.2681  0.9243
67363SOL    HW212404  10.384   8.186   7.344  1.2500 -1.2273  1.0341
67364SOL     OW12405   2.643   3.764   2.059  0.3708  0.3652 -0.0169
67364SOL    HW112406   2.626   3.785   1.967 -3.5019 -1.2010  0.1112
67364SOL    HW212407   2.569   3.709   2.085  1.6087  0.1918  3.9021
67365SOL     OW12408   3.315   2.499   8.583 -0.9766 -0.8109 -0.0697
67365SOL    HW112409   3.365   2.572   8.548 -0.7990  0.6777  2.9369
67365SOL    HW212410   3.344   2.423   8.533  0.9780  0.6934 -1.3640
67366SOL     OW12411   4.106   5.861   4.511 -0.2084  0.1286  0.4713
67366SOL    HW112412   4.168   5.861   4.583  0.3980 -0.9459 -0.0242
67366SOL    HW212413   4.103   5.952   4.481  0.4679  0.3467  1.0503
67367SOL     OW12414   7.455  11.004   9.742  0.6587  0.4170 -0.1246
67367SOL    HW112415   7.449  11.056   9.662 -1.0812 -0.2112 -0.4450
67367SOL    HW212416   7.444  11.067   9.813  1.0491  0.8154 -0.4101
67368SOL     OW12417  10.572   7.637   6.517 -0.0945 -0.0206  0.2696
67368SOL    HW112418  10.528   7.612   6.437  0.0054 -0.0856  0.2343
67368SOL    HW212419  10.617   7.718   6.496 -1.3120  0.7914  0.7009
67369SOL     OW12420   3.501   0.232   2.946 -0.1056  0.6748 -0.4301
67369SOL    HW112421   3.588   0.197   2.925 -0.1355 -0.1252  0.7207
67369SOL    HW212422   3.517   0.323   2.970  0.0908  1.2565 -2.5439
67370SOL     OW12423   3.738   9.269   1.491 -0.0412 -0.3590  0.1618
67370SOL    HW112424   3.819   9.254   1.540  0.5682  1.1896 -0.3296
67370SOL    HW212425   3.745   9.209   1.416  2.9128  2.8146 -2.4334
67371SOL     OW12426   7.028  11.651  11.267  0.2631 -0.0494 -0.0128
67371SOL    HW112427   7.073  11.610  11.194 -1.7500  0.9009 -1.8954
67371SOL    HW212428   6.966  11.584  11.298  0.9053 -0.3460  0.6664
67372SOL     OW12429   0.030   2.469   9.281  0.0995 -0.5137 -0.5673
67372SOL    HW112430   0.117   2.438   9.307  0.2036 -0.4246 -0.8002
67372SOL    HW212431   0.028   2.455   9.186  0.9918  2.1999 -1.0603
67373SOL     OW12432  12.480   0.492   8.280  0.2028  0.0535 -0.2040
67373SOL    HW112433  12.387   0.492   8.303  0.1956 -0.3748 -0.2280
67373SOL    HW212434  12.523   0.449   8.354  0.3902  0.2763 -0.1797
67374SOL     OW12435   8.976   1.190   8.269  0.3484 -0.2762  0.0193
67374SOL    HW112436   9.021   1.162   8.189  2.1131 -0.6352  1.0833
67374SOL    HW212437   8.950   1.108   8.311 -0.5514 -0.0874 -0.1540
67375SOL     OW12438  11.836   5.390   3.671 -0.0728 -0.0994  0.0239
67375SOL    HW112439  11.872   5.452   3.608 -0.6377 -0.3703 -0.5688
67375SOL    HW212440  11.741   5.391   3.656 -0.2124 -0.2197  0.8163
67376SOL     OW12441  11.786   6.571   8.279  0.7455 -0.4833 -0.4915
67376SOL    HW112442  11.847   6.498   8.268  1.2823 -0.9956  4.0603
67376SOL    HW212443  11.830   6.646   8.239  1.3516 -2.0504 -2.9602
67377SOL     OW12444   1.983   8.305   0.944 -0.3847  0.2520 -0.6936
67377SOL    HW112445   1.990   8.313   1.039  1.4277 -0.5306 -0.7237
67377SOL    HW212446   2.017   8.218   0.925 -0.5962  0.4534 -2.0878
67378SOL     OW12447   3.817   8.660   0.143 -0.0248  0.0403  0.1266
67378SOL    HW112448   3.838   8.685   0.053  3.4483 -0.9261  0.5313
67378SOL    HW212449   3.841   8.567   0.149  0.7902  0.3241  2.2806
67379SOL     OW12450   2.890   6.449  12.572  0.0491  0.5937 -0.2903
67379SOL    HW112451   2.797   6.429  12.562 -0.2911  1.8653  0.0441
67379SOL    HW212452   2.935   6.378  12.527 -1.1098  0.5232 -1.4066
67380SOL     OW12453   1.469   5.605   4.407  0.1887  0.0413  0.4783
67380SOL    HW112454   1.467   5.575   4.498 -0.0335  0.4793  0.6196
67380SOL    HW212455   1.562   5.609   4.386  0.2506  0.2099  0.7751
67381SOL     OW12456   8.972   1.283   1.319 -0.5863  0.0289 -0.7695
67381SOL    HW112457   9.043   1.239   1.273  0.2853 -0.5498  1.0108
67381SOL    HW212458   8.991   1.269   1.412 -3.4055 -0.7638 -0.1956
67382SOL     OW12459   5.424   8.712  10.943 -0.4732  0.0012  0.3239
67382SOL    HW112460   5.339   8.693  10.983  0.0795  0.7194  1.9272
67382SOL    HW212461   5.481   8.735  11.017  1.5802 -1.9994 -0.4994
67383SOL     OW12462   6.778   7.095   4.870 -0.2334 -0.6359 -0.8483
67383SOL    HW112463   6.837   7.107   4.796  0.7412 -1.0006 -0.1424
67383SOL    HW212464   6.723   7.021   4.845 -1.0659  0.2875 -1.9066
67384SOL     OW12465   1.518   3.639   2.239  0.1053 -0.2329  0.0199
67384SOL    HW112466   1.501   3.728   2.210  1.6886 -0.5171 -1.9704
67384SOL    HW212467   1.611   3.638   2.262  0.2419 -1.4643 -0.4754
67385SOL     OW12468   9.275   7.209   7.130 -0.0149  0.2930 -0.2380
67385SOL    HW112469   9.249   7.297   7.102  2.3461  0.9228 -0.7180
67385SOL    HW212470   9.355   7.191   7.081  0.3288 -1.5505  0.9012
67386SOL     OW12471   4.908   3.117   1.274 -0.0850 -0.1608  0.2493
67386SOL    HW112472   4.957   3.199   1.266 -0.5795  0.1407  0.2747
67386SOL    HW212473   4.886   3.094   1.184 -0.3746  0.0022  0.2755
67387SOL     OW12474   5.645   1.776  11.145  0.4986  0.4915  0.0974
67387SOL    HW112475   5.639   1.871  11.156 -0.2894  0.7444 -2.1646
67387SOL    HW212476   5.715   1.764  11.081  1.8984 -0.6123  1.7491
67388SOL     OW12477  11.149   2.109  12.315 -0.2343 -0.7920 -0.4377
67388SOL    HW112478  11.160   2.118  12.410  0.6780  0.4211 -0.6401
67388SOL    HW212479  11.078   2.169  12.293  1.7199  1.5089 -0.9259
67389SOL     OW12480  11.542   1.341   3.981 -0.1103 -0.5712  0.0198
67389SOL    HW112481  11.592   1.394   4.044 -0.9305  0.7897 -0.4291
67389SOL    HW212482  11.514   1.264   4.031 -0.0655  0.0897  1.0956
67390SOL     OW12483   6.883   1.121   1.313 -0.1391  0.0820 -0.6051
67390SOL    HW112484   6.833   1.072   1.378  0.0634 -1.5202 -1.6002
67390SOL    HW212485   6.968   1.136   1.354 -0.5323  0.4913  0.0803
67391SOL     OW12486  11.750   5.540   6.129 -0.1778  0.5440 -0.3977
67391SOL    HW112487  11.743   5.613   6.191 -0.1884  0.0477  0.1943
67391SOL    HW212488  11.724   5.578   6.045 -0.1435  1.2318 -0.1063
67392SOL     OW12489   0.524   5.307  10.515  0.5616 -0.2531  0.0062
67392SOL    HW112490   0.489   5.394  10.496  1.2820  0.2558  0.9088
67392SOL    HW212491   0.460   5.246  10.479  0.5681  0.6388 -1.6173
67393SOL     OW12492   5.018   3.145  11.246  0.1963  0.6040  0.5145
67393SOL    HW112493   5.094   3.201  11.262 -1.1241  2.3015  1.1405
67393SOL    HW212494   5.015   3.136  11.150  1.9930 -0.7576  0.5133
67394SOL     OW12495   2.997   1.933   4.888 -0.0935  0.2864 -0.2623
67394SOL    HW112496   2.939   1.861   4.914 -0.4896  0.4630 -0.6401
67394SOL    HW212497   3.053   1.896   4.820 -0.9466  0.5821 -1.1566
67395SOL     OW12498   3.555   0.245   4.866 -0.4420  0.3854 -0.2584
67395SOL    HW112499   3.603   0.197   4.933 -1.2574 -0.4126 -0.2287
67395SOL    HW212500   3.607   0.232   4.786  1.9907  3.5321  0.6335
67396SOL     OW12501   2.746   3.511  10.731 -0.4243 -0.2328 -0.1579
67396SOL    HW112502   2.783   3.559  10.657 -0.8640  0.0891 -0.1725
67396SOL    HW212503   2.694   3.441  10.692 -1.1073  0.2693 -0.1769
67397SOL     OW12504   0.182   5.481   3.350  0.6394 -0.2126 -0.5155
67397SOL    HW112505   0.193   5.464   3.444 -0.4830 -0.0755 -0.3504
67397SOL    HW212506   0.194   5.395   3.309  1.4573 -0.2202 -0.2965
67398SOL     OW12507   5.200   8.176   8.188  0.3092 -0.2188  0.1617
67398SOL    HW112508   5.252   8.221   8.254  0.7755  0.8794 -0.9236
67398SOL    HW212509   5.171   8.095   8.231 -0.6171  1.1290  2.2065
67399SOL     OW12510   4.770   7.899   1.722  0.0594  0.0443 -0.0929
67399SOL    HW112511   4.757   7.820   1.669  0.2921 -0.8426  1.1326
67399SOL    HW212512   4.693   7.953   1.705 -0.2369 -0.5692 -0.7311
67400SOL     OW12513   5.619   2.045  11.099  0.2817 -0.1091  0.2592
67400SOL    HW112514   5.670   2.027  11.020 -1.6476 -1.8684 -0.6940
67400SOL    HW212515   5.588   2.135  11.088  2.4652  0.7319  0.5206
67401SOL     OW12516   4.940  11.442  11.031 -0.0196 -0.6394 -0.3581
67401SOL    HW112517   4.992  11.396  11.098  0.0036  0.7365  0.6038
67401SOL    HW212518   4.849  11.426  11.056 -0.0283  1.5841  1.2925
67402SOL     OW12519  10.765   3.680  11.436 -0.4757  0.3877 -0.4193
67402SOL    HW112520  10.688   3.727  11.404 -0.6237 -0.6404 -1.6882
67402SOL    HW212521  10.750   3.589  11.410  0.7013 -0.0134  0.2194
67403SOL     OW12522   5.267   9.101   7.508  0.3477  0.1755 -0.1566
67403SOL    HW112523   5.177   9.076   7.527  0.1427 -0.1099 -1.4232
67403SOL    HW212524   5.307   9.020   7.476  1.0770  0.2895  0.4319
67404SOL     OW12525   3.680   7.326   8.457 -0.4973 -0.1539 -0.0272
67404SOL    HW112526   3.660   7.405   8.408 -1.7965 -0.2878  0.2699
67404SOL    HW212527   3.614   7.322   8.526  1.1076 -0.1093  1.5968
67405SOL     OW12528   5.435   1.979  11.418  0.4088 -0.0685  0.0609
67405SOL    HW112529   5.469   1.891  11.437 -2.6491 -2.0459 -2.4488
67405SOL    HW212530   5.355   1.985  11.471 -1.5999 -0.6492 -2.6926
67406SOL     OW12531   7.329  12.061   4.613  0.3308 -0.0502  0.6064
67406SOL    HW112532   7.238  12.031   4.608  0.9699 -2.0220 -3.7309
67406SOL    HW212533   7.375  11.989   4.655  0.1030  0.4337  1.7132
67407SOL     OW12534  10.946   2.745  11.378  0.1146 -0.1428  0.5783
67407SOL    HW112535  10.860   2.783  11.397 -0.1261 -0.6302  0.4912
67407SOL    HW212536  11.000   2.819  11.350 -0.6152 -0.0074 -0.5391
67408SOL     OW12537   8.523   2.835   6.292  0.3042 -0.1126  0.1619
67408SOL    HW112538   8.554   2.913   6.245  0.4649  0.9967  1.9784
67408SOL    HW212539   8.432   2.824   6.263 -0.1939  1.6487  0.8809
67409SOL     OW12540  11.166   4.058   1.784  0.0366  0.0789  0.2471
67409SOL    HW112541  11.150   4.151   1.796 -0.6514 -0.3046  3.0370
67409SOL    HW212542  11.260   4.050   1.772 -0.0416  1.2005 -1.3685
67410SOL     OW12543   6.999   9.226   1.960 -0.4989  0.6230 -0.0140
67410SOL    HW112544   7.007   9.273   2.044 -0.0144  1.9759 -0.7892
67410SOL    HW212545   7.089   9.216   1.929 -0.7282  0.8876 -0.7817
67411SOL     OW12546   2.517   1.965  10.708 -0.0236 -0.3137 -0.2314
67411SOL    HW112547   2.423   1.981  10.716 -0.0284 -1.0364  2.0746
67411SOL    HW212548   2.549   2.036  10.653 -1.7914  0.4571 -0.3376
67412SOL     OW12549   0.288   9.099  12.416  0.2155 -0.1590  0.4319
67412SOL    HW112550   0.212   9.092  12.473  0.2645 -0.8188  0.4277
67412SOL    HW212551   0.324   9.010  12.413  1.2278  0.2336  0.7609
67413SOL     OW12552   6.342   1.344   1.631 -0.0062  0.9978  0.2331
67413SOL    HW112553   6.409   1.282   1.661 -0.9774  0.9270  2.4374
67413SOL    HW212554   6.363   1.425   1.677 -3.4352  0.0230  4.1609
67414SOL     OW12555   5.962   8.640  11.415  0.3468  0.1400  0.5131
67414SOL    HW112556   5.982   8.616  11.325 -0.6836  1.2167 -0.0426
67414SOL    HW212557   6.027   8.594  11.468 -0.3459 -2.2675 -0.5885
67415SOL     OW12558   8.560  12.740   7.166 -0.0887  0.5430 -0.1761
67415SOL    HW112559   8.512  12.823   7.165 -1.9520 -0.4755 -0.2286
67415SOL    HW212560   8.532  12.698   7.248 -3.5555 -2.3724 -2.5684
67416SOL     OW12561   6.540   6.864   7.956 -0.0442 -0.4702 -0.0529
67416SOL    HW112562   6.612   6.813   7.919  0.5148 -0.4160  0.9429
67416SOL    HW212563   6.575   6.901   8.037 -1.1035 -0.2023  0.3029
67417SOL     OW12564   0.470   8.290   3.439 -0.0086  0.3770 -0.4398
67417SOL    HW112565   0.424   8.324   3.516  1.2107 -0.0870  0.5435
67417SOL    HW212566   0.446   8.197   3.436 -0.1668  0.4270 -0.7034
67418SOL     OW12567   7.920   0.487   3.993 -0.0994  0.4959  0.0589
67418SOL    HW112568   7.864   0.411   4.011  0.2764  0.0016 -0.7790
67418SOL    HW212569   7.910   0.543   4.069 -2.1786  0.6902 -0.3068
67419SOL     OW12570   1.540   2.740   0.340 -0.0865 -0.2232 -0.2074
67419SOL    HW112571   1.534   2.835   0.352  1.4999 -0.2452  1.0020
67419SOL    HW212572   1.472   2.704   0.396  1.0776  0.1186  1.4970
67420SOL     OW12573  12.193   5.826  10.859 -0.4948 -0.1683 -0.1170
67420SOL    HW112574  12.154   5.871  10.934 -0.4123 -0.1867 -0.0628
67420SOL    HW212575  12.130   5.757  10.837 -0.6950  0.0676 -0.2968
67421SOL     OW12576  12.617   1.749   2.402  0.4181  0.2201 -0.3095
67421SOL    HW112577  12.633   1.819   2.338  2.6955  2.2257  2.1942
67421SOL    HW212578  12.699   1.742   2.450  0.0212 -3.7660  0.1032
67422SOL     OW12579   6.368   2.710   2.264 -0.7607  0.1214 -0.5708
67422SOL    HW112580   6.418   2.688   2.185 -1.3461 -0.8236 -0.7043
67422SOL    HW212581   6.416   2.781   2.304  0.6357 -0.6800 -0.7567
67423SOL     OW12582  11.879  11.788   9.998  0.5891 -0.1512 -0.1100
67423SOL    HW112583  11.918  11.701   9.989 -0.4737 -0.6325 -0.2591
67423SOL    HW212584  11.954  11.848  10.004  1.3396 -1.0064 -0.6389
67424SOL     OW12585   4.650   7.401   0.693  0.3765 -0.1565 -0.0382
67424SOL    HW112586   4.560   7.414   0.725  0.8092  0.6745  0.8810
67424SOL    HW212587   4.700   7.471   0.734  1.3223 -0.1928 -1.1069
67425SOL     OW12588   9.172   7.336   7.756  0.1170 -0.1393  0.2909
67425SOL    HW112589   9.200   7.308   7.669 -1.4911 -2.6307  0.4696
67425SOL    HW212590   9.080   7.359   7.745 -0.0560 -0.3299  1.2808
67426SOL     OW12591   1.644  11.667   0.578  0.4171  0.4916 -0.1783
67426SOL    HW112592   1.570  11.648   0.521  0.8408  0.6000 -0.7658
67426SOL    HW212593   1.616  11.744   0.628  0.3780  0.9118 -0.8446
67427SOL     OW12594  12.475   7.597   9.103  0.4331  0.0428 -0.6525
67427SOL    HW112595  12.403   7.557   9.152  2.0257 -0.7481  1.1736
67427SOL    HW212596  12.450   7.689   9.093 -0.5253 -0.0693  0.5459
67428SOL     OW12597   9.233  12.762   2.305 -0.6057  0.6386  0.2313
67428SOL    HW112598   9.178  12.788   2.231  1.0718  1.4060 -0.8198
67428SOL    HW212599   9.209  12.671   2.321 -1.6693  0.7301 -0.6407
67429SOL     OW12600   6.197   9.150   2.812 -0.4219  0.0434  0.2796
67429SOL    HW112601   6.164   9.236   2.784 -1.1212 -0.6583 -1.1591
67429SOL    HW212602   6.147   9.087   2.760  0.6337 -1.2122  0.7334
67430SOL     OW12603   3.065  11.929   3.983  0.4077 -0.2140 -0.5785
67430SOL    HW112604   3.117  12.009   3.971  0.8531 -0.4975 -0.5674
67430SOL    HW212605   3.116  11.861   3.939 -0.2448 -0.3929 -1.0698
67431SOL     OW12606  12.966   9.716   8.853  0.6315 -1.3266 -0.7564
67431SOL    HW112607  12.963   9.751   8.764  2.7035 -0.7868 -0.6480
67431SOL    HW212608  12.968   9.621   8.841 -0.9815 -1.3448 -1.1801
67432SOL     OW12609  11.692   9.616   0.189  0.8987 -0.4252  1.0141
67432SOL    HW112610  11.722   9.600   0.100 -1.4520 -0.5618  0.1773
67432SOL    HW212611  11.704   9.710   0.202 -0.2643 -0.0983 -0.0922
67433SOL     OW12612  12.094   4.424   2.912  0.4806  0.1657 -0.2566
67433SOL    HW112613  12.123   4.354   2.853 -1.3294  0.3948 -1.5282
67433SOL    HW212614  12.001   4.403   2.928  0.4194  1.2375  0.8830
67434SOL     OW12615   9.369   4.663   0.350 -0.2302 -0.4714 -0.2602
67434SOL    HW112616   9.310   4.694   0.280 -0.2977 -1.3055 -0.5900
67434SOL    HW212617   9.390   4.741   0.400 -1.5191 -0.1260 -0.2179
67435SOL     OW12618  12.711   2.493  11.810  0.4431  0.2206  0.3195
67435SOL    HW112619  12.805   2.492  11.829  1.1235 -0.4763 -2.5852
67435SOL    HW212620  12.685   2.401  11.814  0.2241  0.2520 -0.2776
67436SOL     OW12621   7.961  11.256  12.449  0.1396  0.0368 -0.8271
67436SOL    HW112622   7.972  11.226  12.359  1.6777  1.5769 -1.2006
67436SOL    HW212623   8.007  11.340  12.453 -3.5764  2.2324  0.2544
67437SOL     OW12624  12.378  11.471   9.109  0.2970 -0.0933 -0.1012
67437SOL    HW112625  12.322  11.469   9.031  0.0786 -0.8077  0.0729
67437SOL    HW212626  12.465  11.449   9.076  0.5241  1.1304 -0.3902
67438SOL     OW12627   9.983   0.935   4.141 -0.1987  0.3623  0.4803
67438SOL    HW112628  10.003   0.902   4.053  1.3337 -0.5606  1.1412
67438SOL    HW212629  10.042   1.009   4.154 -1.0924  1.1180  0.4012
67439SOL     OW12630   1.128   2.474   0.945  0.4464 -0.0347 -0.9053
67439SOL    HW112631   1.118   2.479   1.040 -1.7024  0.3362 -1.1113
67439SOL    HW212632   1.203   2.416   0.932  0.6092 -0.3156  0.9997
67440SOL     OW12633   1.561   1.134   7.802 -0.2258 -0.0319 -0.0525
67440SOL    HW112634   1.650   1.113   7.831 -0.1807 -3.2604 -2.0413
67440SOL    HW212635   1.505   1.074   7.852 -1.0967  0.7020 -0.1299
67441SOL     OW12636   3.789   4.296   8.143  0.8299 -0.5169  0.1171
67441SOL    HW112637   3.771   4.390   8.140 -2.3100 -1.0347 -0.6138
67441SOL    HW212638   3.740   4.264   8.218 -0.1723 -1.8787 -1.0628
67442SOL     OW12639   1.120   9.427   1.416  0.2859  0.0246  0.7337
67442SOL    HW112640   1.063   9.469   1.351 -0.3852  0.3703  1.5115
67442SOL    HW212641   1.206   9.422   1.375  0.2259  1.6014  0.3733
67443SOL     OW12642  10.747   8.996   8.041  0.7122  0.2875  0.3401
67443SOL    HW112643  10.735   9.086   8.012 -0.3975 -0.1250 -0.5638
67443SOL    HW212644  10.660   8.967   8.069  1.2210 -0.2397  1.4291
67444SOL     OW12645  12.807   4.096   0.661 -0.2321 -0.1862 -0.6811
67444SOL    HW112646  12.827   4.009   0.695 -0.7013 -0.2199 -0.4755
67444SOL    HW212647  12.714   4.108   0.682 -0.6319 -0.3380 -2.2483
67445SOL     OW12648   6.920   8.624   8.901 -0.7155 -0.0906  0.4149
67445SOL    HW112649   6.879   8.542   8.874  1.7952 -1.2793 -0.0323
67445SOL    HW212650   6.965   8.656   8.823 -0.1930  0.7845  1.0460
67446SOL     OW12651   1.488  12.662   2.758  0.0896  0.4681  0.2421
67446SOL    HW112652   1.576  12.626   2.747  0.2274  0.6539  0.7088
67446SOL    HW212653   1.495  12.753   2.728  0.9917  1.6513  3.5553
67447SOL     OW12654  11.965   2.229   7.827  0.5919  0.3924 -0.6254
67447SOL    HW112655  11.957   2.319   7.795  0.3517  0.2765 -0.8985
67447SOL    HW212656  12.042   2.230   7.884  0.8769  0.6575 -1.0122
67448SOL     OW12657   0.973   0.950  11.610 -0.2517  0.3532  0.0635
67448SOL    HW112658   0.899   1.006  11.632 -0.9550 -0.9133  1.0193
67448SOL    HW212659   0.956   0.868  11.655  1.9993  0.1913  0.7358
67449SOL     OW12660  10.607   3.226   7.964  0.2047 -0.1186  0.3011
67449SOL    HW112661  10.616   3.295   8.029  0.1424 -0.9886  1.2529
67449SOL    HW212662  10.687   3.176   7.971 -0.7607 -1.5998  1.3793
67450SOL     OW12663   7.102  11.542  10.546  0.3757 -0.1755  1.1238
67450SOL    HW112664   7.063  11.591  10.618  0.0311  0.3401  0.5905
67450SOL    HW212665   7.053  11.460  10.544  2.0475 -1.3159  3.0934
67451SOL     OW12666   0.121   2.029   7.390 -0.3021  0.3589 -0.1749
67451SOL    HW112667   0.030   2.042   7.361 -0.4249  0.0407  0.0595
67451SOL    HW212668   0.113   2.001   7.482 -0.0283 -0.8200 -0.4886
67452SOL     OW12669   1.461   4.779   2.532 -0.2318  0.1299 -0.2669
67452SOL    HW112670   1.506   4.705   2.490 -0.7963  0.4487 -1.4661
67452SOL    HW212671   1.518   4.854   2.515  1.1625 -0.2483  2.3304
67453SOL     OW12672   7.024   1.108   9.776  0.2316  0.3568 -0.1196
67453SOL    HW112673   6.969   1.149   9.709  1.7193  0.8696 -1.0663
67453SOL    HW212674   7.055   1.027   9.735  0.0786 -0.0044  0.4638
67454SOL     OW12675   6.936   8.036   2.014  0.8738 -0.4792  0.0432
67454SOL    HW112676   6.854   7.986   2.017  1.8573 -2.3884 -1.9622
67454SOL    HW212677   6.968   8.037   2.104 -0.4674 -1.2432  0.5487
67455SOL     OW12678   5.421  12.972   7.823  0.2074  0.0025  0.1820
67455SOL    HW112679   5.497  13.002   7.772  0.6597 -1.7882 -0.2724
67455SOL    HW212680   5.438  12.879   7.839 -0.2498  0.3303  3.0763
67456SOL     OW12681   5.793   5.505  10.697  0.1406 -0.4515 -0.3380
67456SOL    HW112682   5.775   5.597  10.676 -1.3521 -0.1624  1.9537
67456SOL    HW212683   5.761   5.456  10.621 -5.0580  0.5279  0.8768
67457SOL     OW12684   7.066   1.811   7.050  0.0866  0.1060 -0.3134
67457SOL    HW112685   7.161   1.817   7.049  0.3457 -2.2357  1.2552
67457SOL    HW212686   7.048   1.717   7.043 -2.0286  0.3633  0.7499
67458SOL     OW12687  11.691   4.400   0.615 -0.4106 -0.0371  0.3850
67458SOL    HW112688  11.622   4.451   0.572 -1.6306 -2.3760 -0.6489
67458SOL    HW212689  11.772   4.443   0.590 -1.3684  1.4832 -0.2551
67459SOL     OW12690   1.709   9.300   3.649  0.4358  0.1406  0.2387
67459SOL    HW112691   1.627   9.276   3.693 -0.0228 -0.1982 -0.7538
67459SOL    HW212692   1.725   9.228   3.589 -0.0053  1.4383 -1.5193
67460SOL     OW12693   6.986  11.144   9.429 -0.2897 -0.1325 -0.4930
67460SOL    HW112694   6.996  11.228   9.473  0.3315 -0.0386 -0.7964
67460SOL    HW212695   7.038  11.083   9.481  1.0519  0.1285 -1.4707
67461SOL     OW12696   7.165   0.683   7.383 -0.2136  0.0582 -0.3285
67461SOL    HW112697   7.075   0.716   7.386 -0.0259  0.5832 -0.3520
67461SOL    HW212698   7.213   0.751   7.336  0.3350  0.1006  0.2886
67462SOL     OW12699   4.429   5.119   2.995 -0.2783  0.6245 -0.0930
67462SOL    HW112700   4.469   5.158   2.918  2.0441  2.1101  1.7253
67462SOL    HW212701   4.366   5.056   2.960 -0.6460  2.4901 -3.1596
67463SOL     OW12702   3.722   3.792   4.969  0.6304  0.2138 -0.2671
67463SOL    HW112703   3.644   3.832   4.930 -1.6959 -2.4741  1.2260
67463SOL    HW212704   3.724   3.703   4.933  3.0160  0.1474 -0.1466
67464SOL     OW12705   6.378   9.692   2.495 -0.4752  0.4337 -0.2464
67464SOL    HW112706   6.377   9.603   2.529  1.3268 -0.1060 -1.4633
67464SOL    HW212707   6.287   9.710   2.472 -1.0348 -0.6942  0.9750
67465SOL     OW12708   0.814   5.024   6.579 -0.0158 -0.0312 -0.1153
67465SOL    HW112709   0.815   4.933   6.550 -1.7703 -0.0731 -0.1792
67465SOL    HW212710   0.758   5.068   6.515  0.3903  0.9849  0.2137
67466SOL     OW12711   8.320   9.573  11.266 -0.1056  0.1996  0.2930
67466SOL    HW112712   8.242   9.520  11.278  0.4799 -0.5997  0.6589
67466SOL    HW212713   8.305   9.620  11.183 -0.1372 -1.4229 -0.6539
67467SOL     OW12714   5.259   9.317  11.084 -0.4664 -0.2491 -0.5425
67467SOL    HW112715   5.317   9.284  11.152 -1.4006 -0.1917  0.3072
67467SOL    HW212716   5.228   9.401  11.118 -0.6550 -0.0398 -1.2139
67468SOL     OW12717   9.683   7.985  10.225  0.4502  0.3192 -0.4878
67468SOL    HW112718   9.672   8.009  10.317  0.6871 -1.5439  0.0664
67468SOL    HW212719   9.594   7.969  10.194  0.2767  1.8768 -0.8973
67469SOL     OW12720   7.490  10.308   8.234 -0.0660  0.5223 -0.2183
67469SOL    HW112721   7.422  10.364   8.197 -0.9612 -0.5930 -0.3079
67469SOL    HW212722   7.474  10.222   8.196  0.3090 -0.1606  1.0960
67470SOL     OW12723   0.365  11.365   1.787 -0.6170 -0.3609  0.1766
67470SOL    HW112724   0.411  11.371   1.703 -0.9841  0.0357  0.0011
67470SOL    HW212725   0.392  11.443   1.836 -1.2226 -0.0324  0.0054
67471SOL     OW12726   5.595   5.082   6.915  0.0804  0.5371  0.2824
67471SOL    HW112727   5.553   5.082   7.001  0.4663  2.8531  0.5444
67471SOL    HW212728   5.533   5.128   6.858  0.6886  0.8075 -0.1714
67472SOL     OW12729   8.120   0.270   0.748 -0.0228  0.1647  0.2777
67472SOL    HW112730   8.072   0.326   0.687 -0.8753  1.0131  1.6806
67472SOL    HW212731   8.075   0.186   0.744 -1.7950  0.9843  1.6659
67473SOL     OW12732  10.828   5.870  11.614  0.1686 -0.1458 -0.1371
67473SOL    HW112733  10.920   5.864  11.641  0.6111  0.0626 -1.5202
67473SOL    HW212734  10.785   5.916  11.686  1.2109  0.0476  0.3880
67474SOL     OW12735  10.742   9.794   5.269 -0.2370 -0.0388 -1.2558
67474SOL    HW112736  10.747   9.754   5.183 -0.6067 -0.5359 -1.0535
67474SOL    HW212737  10.823   9.768   5.313  0.8757  1.8126 -2.1047
67475SOL     OW12738   3.635   6.699   8.856  0.3067 -0.1766  0.0946
67475SOL    HW112739   3.656   6.684   8.764 -0.0218 -1.3120  0.1886
67475SOL    HW212740   3.565   6.636   8.875 -0.0641  0.4786  0.9565
67476SOL     OW12741   3.242   9.617   0.950 -0.2912 -0.6626  0.1858
67476SOL    HW112742   3.159   9.664   0.943 -0.3517 -0.5637  1.3382
67476SOL    HW212743   3.279   9.620   0.861 -1.3669 -0.4491 -0.2716
67477SOL     OW12744   7.505   4.067   8.393 -0.3163 -0.2464  0.0913
67477SOL    HW112745   7.465   4.084   8.479  0.3907 -1.5635  0.7165
67477SOL    HW212746   7.446   4.108   8.330 -1.8682 -0.8807  1.0695
67478SOL     OW12747   2.844   3.364   3.108 -0.6262 -0.3455 -0.0490
67478SOL    HW112748   2.772   3.316   3.149 -0.6281  0.4775  0.9683
67478SOL    HW212749   2.915   3.301   3.100 -0.4272 -0.4071  1.7951
67479SOL     OW12750   9.812   2.780  12.956 -0.3214 -0.2546  0.0333
67479SOL    HW112751   9.807   2.755  13.048 -1.6263 -0.6753 -0.1262
67479SOL    HW212752   9.789   2.700  12.908 -0.8216  0.2598 -0.6108
67480SOL     OW12753   7.131   3.793   8.527  0.1658  0.4875 -0.1060
67480SOL    HW112754   7.187   3.750   8.462 -1.8500 -2.5556 -0.0004
67480SOL    HW212755   7.171   3.771   8.611 -0.4377 -0.5722 -0.0868
67481SOL     OW12756   7.442   4.426   4.237  0.0818  0.0366 -0.2369
67481SOL    HW112757   7.446   4.518   4.209  1.8302 -0.2350 -1.0201
67481SOL    HW212758   7.516   4.385   4.193 -0.0402 -1.5278  0.9547
67482SOL     OW12759   2.849   5.008  11.078  0.2684  0.0636  0.4036
67482SOL    HW112760   2.869   5.101  11.090 -2.4014  0.6802  0.6813
67482SOL    HW212761   2.795   5.005  11.000 -1.3404 -0.9489  1.5025
67483SOL     OW12762   1.288   6.088   0.483  0.0886  0.1148  0.3248
67483SOL    HW112763   1.280   6.085   0.387 -0.0647  1.6798  0.2716
67483SOL    HW212764   1.197   6.081   0.514  0.2015 -1.2883  0.4162
67484SOL     OW12765   8.589   0.919   0.486  0.1223 -0.0756 -0.6894
67484SOL    HW112766   8.497   0.900   0.505 -0.0268  0.7925 -0.5040
67484SOL    HW212767   8.614   0.983   0.553  1.0351 -0.7523 -0.3657
67485SOL     OW12768   0.427  10.646   8.454  0.3778 -0.4067 -0.4771
67485SOL    HW112769   0.433  10.657   8.359  2.0287  0.8603 -0.2799
67485SOL    HW212770   0.498  10.701   8.489 -0.4469 -0.5210  1.5127
67486SOL     OW12771   2.738   6.765   1.824 -0.4800  0.0981  0.2251
67486SOL    HW112772   2.819   6.721   1.800  0.3177  1.0626  1.0430
67486SOL    HW212773   2.766   6.850   1.857 -1.6845 -0.2902  2.3920
67487SOL     OW12774   0.551  10.071   7.968  0.3417  0.6069 -0.3852
67487SOL    HW112775   0.625  10.031   8.014 -0.3026 -0.4680 -0.2597
67487SOL    HW212776   0.502  10.115   8.037  0.6035  0.9309 -0.4008
67488SOL     OW12777  10.682   7.791   5.711 -0.0233 -0.1592 -0.1480
67488SOL    HW112778  10.648   7.704   5.688 -0.2232  0.6739 -3.7061
67488SOL    HW212779  10.610   7.834   5.756  0.6762 -2.2791  3.3512
67489SOL     OW12780   3.377   1.718   9.188  0.3716 -0.1028  0.0338
67489SOL    HW112781   3.304   1.669   9.152  1.1892 -1.5977  0.3136
67489SOL    HW212782   3.338   1.796   9.227 -1.2503 -1.4477  1.2548
67490SOL     OW12783   2.913   2.180  10.198 -0.0527  0.4196 -0.0803
67490SOL    HW112784   2.997   2.160  10.239 -0.1005  0.6626  0.1346
67490SOL    HW212785   2.852   2.117  10.237 -0.0287  0.4290 -0.0274
67491SOL     OW12786  10.250   6.098   5.063  0.3835  0.2485  0.1584
67491SOL    HW112787  10.252   6.039   5.137 -1.8840 -0.9926 -0.6960
67491SOL    HW212788  10.195   6.055   4.998  1.1207  1.9249 -1.7131
67492SOL     OW12789   9.989  12.607   7.647  0.4016 -0.1805  0.2777
67492SOL    HW112790   9.894  12.596   7.643  0.6555 -3.5967  0.3629
67492SOL    HW212791  10.021  12.563   7.568  1.9539  0.7234  0.3653
67493SOL     OW12792   9.658   7.132   3.618 -0.6008 -0.1847  0.2987
67493SOL    HW112793   9.701   7.082   3.687 -0.3652  0.6657  0.7754
67493SOL    HW212794   9.588   7.180   3.663  0.4317  1.4728  0.2213
67494SOL     OW12795   4.613  11.406   2.478  0.0243 -0.9462 -0.0299
67494SOL    HW112796   4.644  11.477   2.534 -0.9311 -0.9972  0.5896
67494SOL    HW212797   4.518  11.406   2.491 -0.3439 -0.3969 -2.2927
67495SOL     OW12798  10.465   0.235   9.259  0.0328 -0.5401 -0.5315
67495SOL    HW112799  10.471   0.175   9.184  0.9872 -1.4006  0.2108
67495SOL    HW212800  10.483   0.180   9.335  0.5238  0.6195  0.2102
67496SOL     OW12801   0.948   3.612  11.808  0.1761  0.1134  0.5959
67496SOL    HW112802   0.942   3.541  11.871  0.7712 -1.2641 -0.8345
67496SOL    HW212803   1.024   3.589  11.753  1.1157  2.4574  0.8055
67497SOL     OW12804   7.794  12.460   7.322 -0.2504 -0.8818  0.3842
67497SOL    HW112805   7.734  12.523   7.281 -0.5887 -1.3348  0.1728
67497SOL    HW212806   7.831  12.507   7.396 -1.7147 -0.9393  1.1947
67498SOL     OW12807   1.512  12.587  11.218  0.6228 -0.5448 -0.0193
67498SOL    HW112808   1.449  12.640  11.267  2.4790 -0.6650  2.7522
67498SOL    HW212809   1.595  12.602  11.262  2.3368 -1.3724 -2.7234
67499SOL     OW12810   0.592   1.945   4.877 -0.1816  0.7096 -0.2742
67499SOL    HW112811   0.535   1.883   4.831  0.6785  0.1790 -0.6418
67499SOL    HW212812   0.662   1.964   4.816  0.1893  1.1534  0.2744
67500SOL     OW12813   0.594   8.111   7.379 -0.3001 -0.3545  0.2450
67500SOL    HW112814   0.679   8.067   7.375  0.7528  1.5619  0.1587
67500SOL    HW212815   0.570   8.108   7.472 -0.7007 -1.8772  0.1061
67501SOL     OW12816  10.829   7.904   3.884  0.1225  0.2553 -0.1403
67501SOL    HW112817  10.873   7.947   3.810  1.4178 -0.9648 -0.1298
67501SOL    HW212818  10.779   7.833   3.845  2.3667 -1.6387  0.2408
67502SOL     OW12819   9.202   7.829   8.249 -0.6032  0.3035  0.2560
67502SOL    HW112820   9.285   7.816   8.296 -0.3212  1.8816  0.2631
67502SOL    HW212821   9.135   7.808   8.313 -0.2135 -0.0919  0.5444
67503SOL     OW12822   6.640   7.224   6.749 -0.0722  0.2584  0.4423
67503SOL    HW112823   6.681   7.137   6.753 -2.0464 -0.7151  0.6325
67503SOL    HW212824   6.557   7.213   6.796 -0.8677  1.9577 -0.5156
67504SOL     OW12825  11.406   6.575  11.102  0.0103  0.3198  0.1607
67504SOL    HW112826  11.482   6.603  11.051 -0.7634  0.6999 -0.8343
67504SOL    HW212827  11.385   6.488  11.067 -0.0115  0.2173  0.4291
67505SOL     OW12828  11.577  12.758   6.844  0.1551  0.1281 -0.3513
67505SOL    HW112829  11.612  12.818   6.778 -1.1494  1.0410 -0.2619
67505SOL    HW212830  11.509  12.709   6.797  0.7037 -0.7760 -0.2265
67506SOL     OW12831  11.262   0.906   1.924  0.2430 -0.1001  0.2727
67506SOL    HW112832  11.193   0.934   1.983  0.7019 -0.5783  1.0467
67506SOL    HW212833  11.308   0.987   1.900 -2.3392  0.7144 -2.6300
67507SOL     OW12834  12.327   1.960  10.067  0.3298  0.2564 -0.2781
67507SOL    HW112835  12.250   1.983  10.119 -0.5554 -2.2637 -0.3007
67507SOL    HW212836  12.341   2.034  10.009 -0.9973  1.5119  0.9355
67508SOL     OW12837  10.774   2.425   5.551  0.2550 -0.0666 -0.0824
67508SOL    HW112838  10.686   2.453   5.529 -0.3575 -1.3570  0.5995
67508SOL    HW212839  10.771   2.329   5.545  0.6334 -0.4154  3.1487
67509SOL     OW12840  10.802  11.688   1.937  0.2096  0.1713 -0.1871
67509SOL    HW112841  10.892  11.717   1.921  1.2000 -2.9884 -1.1310
67509SOL    HW212842  10.795  11.679   2.032  0.6678  1.0174 -0.0679
67510SOL     OW12843  12.552   4.966   6.704 -0.8949 -0.1820  0.0007
67510SOL    HW112844  12.636   4.957   6.750 -0.6663 -0.2231 -0.4220
67510SOL    HW212845  12.576   4.995   6.616 -1.1188 -2.4757 -0.8897
67511SOL     OW12846  11.126  11.743  12.611  0.4399  0.8449 -0.6941
67511SOL    HW112847  11.111  11.746  12.705 -1.3762  0.8272 -0.9461
67511SOL    HW212848  11.060  11.681  12.578  2.3324 -0.7037 -1.7677
67512SOL     OW12849   3.446  10.777   7.941  0.4587 -0.3481  0.1879
67512SOL    HW112850   3.422  10.803   7.852  2.3111 -1.9671 -0.8696
67512SOL    HW212851   3.393  10.833   7.998 -1.2110  0.3285 -1.9163
67513SOL     OW12852   8.744   9.107   3.000 -0.2484  0.5125 -0.0094
67513SOL    HW112853   8.692   9.036   3.037  0.0745  0.7173  0.8415
67513SOL    HW212854   8.817   9.118   3.061 -0.6801  2.0563  0.2546
67514SOL     OW12855  10.284   0.726   9.595 -0.4828  0.0359 -0.0251
67514SOL    HW112856  10.203   0.714   9.545 -0.2180 -0.1368 -0.4160
67514SOL    HW212857  10.349   0.750   9.530 -0.4486  1.2368  0.4335
67515SOL     OW12858   4.756   6.331   3.981  0.4586 -0.5683 -0.6010
67515SOL    HW112859   4.779   6.382   3.904 -0.2324  0.5944 -0.0513
67515SOL    HW212860   4.838   6.322   4.030  0.0944  2.7472  0.8798
67516SOL     OW12861   6.761  11.808   7.627  0.7136 -0.0611  0.1246
67516SOL    HW112862   6.744  11.773   7.540  0.6829  0.3528 -0.0386
67516SOL    HW212863   6.687  11.868   7.643  0.2124 -0.8440  0.8186
67517SOL     OW12864   8.261   8.657   7.692 -0.1950 -0.2956  0.3563
67517SOL    HW112865   8.187   8.611   7.654 -1.3904  1.5182  0.3543
67517SOL    HW212866   8.245   8.655   7.787 -0.1043 -0.1352  0.3757
67518SOL     OW12867   1.287   0.193   1.805  0.0686  0.6731 -0.3561
67518SOL    HW112868   1.233   0.224   1.877  0.6484 -0.0482  0.4049
67518SOL    HW212869   1.298   0.099   1.821  0.7303  0.6178 -1.0328
67519SOL     OW12870  10.816   6.928   3.444  0.1174  0.0969  0.4075
67519SOL    HW112871  10.801   6.900   3.354  0.3656  1.7058 -0.1659
67519SOL    HW212872  10.748   6.992   3.461  0.4909  0.3150  1.1254
67520SOL     OW12873   2.529   5.917  11.439 -0.0237 -0.1651  0.2766
67520SOL    HW112874   2.610   5.893  11.393 -0.0681  1.9033 -1.0050
67520SOL    HW212875   2.558   5.970  11.513 -0.1049 -1.5387  1.3409
67521SOL     OW12876   8.828  12.098   2.824  0.1696  0.2167 -0.1983
67521SOL    HW112877   8.812  12.006   2.846 -0.0168  0.5868  1.3577
67521SOL    HW212878   8.750  12.125   2.775 -0.4072 -0.1013  0.5321
67522SOL     OW12879   6.316   4.313   4.185  0.1126  0.0020  0.3059
67522SOL    HW112880   6.260   4.363   4.124 -0.6220  0.4239  1.2919
67522SOL    HW212881   6.397   4.299   4.137 -0.5942 -0.0504 -0.9331
67523SOL     OW12882   0.920  10.634   0.229  0.0390  0.4691 -0.0657
67523SOL    HW112883   0.872  10.558   0.259 -1.0487  0.1910 -2.3010
67523SOL    HW212884   1.009  10.602   0.215 -0.1700 -0.1300 -0.0411
67524SOL     OW12885   1.151   1.629   3.963  0.1243  0.6106  0.2201
67524SOL    HW112886   1.236   1.586   3.972 -1.3169 -2.4174  0.4372
67524SOL    HW212887   1.127   1.616   3.871 -1.7443 -2.1539  0.9689
67525SOL     OW12888  11.772   0.723   4.904  0.4741 -0.7030 -0.4927
67525SOL    HW112889  11.847   0.763   4.948 -0.4070  2.0398 -1.3047
67525SOL    HW212890  11.717   0.691   4.975  0.8049  0.3615  0.2636
67526SOL     OW12891   8.728   2.619   8.080  0.7030 -0.5786 -0.4269
67526SOL    HW112892   8.773   2.540   8.050 -0.5716 -1.0679 -1.0964
67526SOL    HW212893   8.647   2.587   8.119 -0.5095  0.4729 -1.9932
67527SOL     OW12894   3.587  12.821   5.525 -0.2911 -0.8123  0.8358
67527SOL    HW112895   3.677  12.847   5.546 -0.8243  0.1584  2.0592
67527SOL    HW212896   3.566  12.753   5.588 -0.2954 -1.3188  0.2961
67528SOL     OW12897   3.915  10.099   9.846 -0.5111 -0.3220 -0.4877
67528SOL    HW112898   3.943  10.030   9.906 -0.3333 -1.9092 -2.3111
67528SOL    HW212899   3.988  10.161   9.845 -0.7788  0.0923  1.3731
67529SOL     OW12900   6.618   4.998  11.989  0.6576 -0.5099 -0.4738
67529SOL    HW112901   6.702   4.975  12.031  0.2030  1.3209  1.6446
67529SOL    HW212902   6.555   4.938  12.029  0.8894 -1.8217 -1.9968
67530SOL     OW12903  10.516   0.838   8.254 -0.4547  0.1450  0.4448
67530SOL    HW112904  10.440   0.841   8.313  0.1871 -1.4242  1.4210
67530SOL    HW212905  10.591   0.852   8.311  0.0830  0.1965 -0.2736
67531SOL     OW12906   0.652   9.509   6.168 -0.2452  0.3362  0.2177
67531SOL    HW112907   0.681   9.542   6.083 -0.3067 -1.6740 -0.6403
67531SOL    HW212908   0.556   9.517   6.166 -0.3787 -1.0846 -0.5685
67532SOL     OW12909  12.525   5.351   2.244  0.0064 -0.1783  0.4469
67532SOL    HW112910  12.435   5.383   2.232  0.0730 -0.6791 -1.8268
67532SOL    HW212911  12.519   5.257   2.234  0.7425 -0.2624  0.7328
67533SOL     OW12912   9.630   9.927   1.201 -0.7761  0.2045  0.1681
67533SOL    HW112913   9.543   9.917   1.160 -0.5224 -1.7268  0.0109
67533SOL    HW212914   9.611   9.939   1.294 -1.2306  1.2699 -0.0356
67534SOL     OW12915   6.249  12.667   1.554  0.2631  0.2145 -0.6605
67534SOL    HW112916   6.211  12.637   1.471  0.3126  0.6460 -0.8400
67534SOL    HW212917   6.226  12.598   1.617  2.3365 -1.3623 -1.5330
67535SOL     OW12918   0.704  10.721   4.799 -0.2637  0.2105  0.0265
67535SOL    HW112919   0.614  10.735   4.827 -0.3705 -0.2657 -0.0716
67535SOL    HW212920   0.713  10.772   4.719 -1.0862 -1.3794 -1.1422
67536SOL     OW12921   7.867   8.696   7.754 -0.7790  0.5207 -0.1308
67536SOL    HW112922   7.925   8.631   7.794 -0.2577  3.0324  3.6693
67536SOL    HW212923   7.901   8.705   7.664  0.6788 -2.5409 -0.0203
67537SOL     OW12924   3.194   2.488   4.816 -0.2131 -0.5917 -0.1307
67537SOL    HW112925   3.230   2.505   4.729 -0.5972  2.5614  0.2258
67537SOL    HW212926   3.100   2.504   4.807 -0.1234  0.8057  1.0356
67538SOL     OW12927  10.977   0.910   1.936 -0.0150  0.2147  0.0327
67538SOL    HW112928  10.976   0.902   1.841  0.7970  1.4553 -0.1042
67538SOL    HW212929  10.969   0.820   1.968 -0.1812 -0.2222 -1.2002
67539SOL     OW12930   3.675  11.083   2.378  0.4627 -0.0762  0.0337
67539SOL    HW112931   3.623  11.084   2.459  1.1250 -0.1641  0.4754
67539SOL    HW212932   3.658  11.168   2.338 -0.7610 -0.4776 -0.3241
67540SOL     OW12933   7.470   5.420  12.282 -0.1288 -0.3154  0.1273
67540SOL    HW112934   7.391   5.419  12.227  2.2361  0.7745 -3.6880
67540SOL    HW212935   7.483   5.512  12.303  1.1394 -0.1974 -1.0428
67541SOL     OW12936   4.072   0.123  10.668  0.0691  0.1060 -0.4803
67541SOL    HW112937   4.053   0.193  10.730  0.5298 -0.1765 -0.0088
67541SOL    HW212938   4.015   0.141  10.593 -0.3793  0.5423 -0.0444
67542SOL     OW12939   4.133   1.114   8.160  0.0018 -0.1859 -0.5952
67542SOL    HW112940   4.222   1.083   8.179  0.2828  0.3949 -0.9482
67542SOL    HW212941   4.138   1.149   8.071  0.0196  2.0802  0.2410
67543SOL     OW12942   5.859   1.612  10.713  0.0152  0.3510  0.1617
67543SOL    HW112943   5.764   1.616  10.723 -0.1465 -2.3990  0.5588
67543SOL    HW212944   5.873   1.609  10.619 -0.3970 -0.5823  0.1240
67544SOL     OW12945  10.730   1.954   5.329 -0.1401 -0.2106 -0.4466
67544SOL    HW112946  10.728   1.956   5.234 -0.7484  1.0664 -0.4247
67544SOL    HW212947  10.654   1.902   5.354 -2.2469  2.5403 -0.6389
67545SOL     OW12948  10.001  11.859  11.294 -0.4314  0.0965  1.0332
67545SOL    HW112949   9.990  11.950  11.268 -0.6263 -0.0325  0.6419
67545SOL    HW212950  10.025  11.814  11.213 -1.3688 -0.3716  0.9996
67546SOL     OW12951   5.495   0.658  12.560 -0.1403  0.6259 -0.4101
67546SOL    HW112952   5.437   0.614  12.497 -1.0384  0.1863  0.6878
67546SOL    HW212953   5.462   0.747  12.564 -1.3888  0.1422  0.9080
67547SOL     OW12954   2.745   8.078   3.357 -0.4127  0.2033 -0.2339
67547SOL    HW112955   2.794   8.002   3.326 -1.4356 -0.7685  0.4669
67547SOL    HW212956   2.809   8.132   3.402 -0.1095 -1.4640  1.4363
67548SOL     OW12957   4.309   1.699  12.629 -0.4808  0.0708 -0.4033
67548SOL    HW112958   4.242   1.661  12.686 -0.7047 -0.2118 -0.8431
67548SOL    HW212959   4.328   1.785  12.667 -0.7155 -0.0604  0.0199
67549SOL     OW12960   6.733   7.704   1.280 -0.3677  0.1115  0.0743
67549SOL    HW112961   6.699   7.656   1.204  0.0076  1.4657 -0.9749
67549SOL    HW212962   6.701   7.654   1.355 -1.4240 -0.8164 -0.9475
67550SOL     OW12963   7.290  12.937   3.975 -0.1656 -0.1540  0.0983
67550SOL    HW112964   7.310  13.019   3.930  2.1668 -0.4175  0.5511
67550SOL    HW212965   7.291  12.870   3.907  3.0386 -0.5062  0.3714
67551SOL     OW12966   4.207   7.766   5.803 -0.4145 -0.8302 -0.2319
67551SOL    HW112967   4.262   7.746   5.879  2.0191  2.6489 -0.8110
67551SOL    HW212968   4.243   7.711   5.732 -0.3201 -1.4709  0.3030
67552SOL     OW12969   9.920  12.918   6.899 -0.1682 -0.4444  0.0364
67552SOL    HW112970   9.914  13.002   6.853  0.4758  0.3064  1.2883
67552SOL    HW212971  10.003  12.882   6.870 -0.9807 -1.2392 -1.4201
67553SOL     OW12972   1.296   0.727   6.751 -0.0238 -0.1120  0.0041
67553SOL    HW112973   1.318   0.819   6.763  0.0892  0.0012 -1.0096
67553SOL    HW212974   1.339   0.683   6.824  1.6785  0.4017 -0.6405
67554SOL     OW12975   1.382   5.203  10.392 -0.5144  0.1620  0.2150
67554SOL    HW112976   1.403   5.167  10.306 -1.0136 -0.8445  0.5056
67554SOL    HW212977   1.416   5.293  10.389 -1.6896  0.6083 -1.5083
67555SOL     OW12978   1.380   8.587   2.769  0.0389 -0.7926 -0.3743
67555SOL    HW112979   1.289   8.610   2.749  0.4974  0.4925 -1.0637
67555SOL    HW212980   1.424   8.586   2.684  0.8615 -0.5115  0.0371
67556SOL     OW12981  10.401   7.940   8.099 -0.6889 -0.1674 -0.3416
67556SOL    HW112982  10.344   8.016   8.111  0.6793  0.8644 -0.1308
67556SOL    HW212983  10.461   7.966   8.030 -0.6090 -1.3228 -0.7193
67557SOL     OW12984   4.670   6.408   3.546  0.3781  0.1243  0.1384
67557SOL    HW112985   4.718   6.411   3.463  1.3665  0.6271  0.7115
67557SOL    HW212986   4.595   6.351   3.528  1.1004 -0.5585 -0.8223
67558SOL     OW12987   2.586   2.831   6.468 -0.5325 -0.3264  0.1287
67558SOL    HW112988   2.625   2.747   6.493  0.3102  0.1437  0.4482
67558SOL    HW212989   2.492   2.816   6.473 -0.4025 -1.3889 -0.2768
67559SOL     OW12990   9.686  11.945   4.543 -0.1861  0.1844  0.0806
67559SOL    HW112991   9.743  11.890   4.597 -2.3663 -1.2677  1.0565
67559SOL    HW212992   9.734  11.956   4.461  0.7822 -2.3503  0.2190
67560SOL     OW12993   7.533   0.006  10.370  0.2347 -0.0361 -0.6771
67560SOL    HW112994   7.568   0.014  10.459 -0.5448  0.6616 -0.4252
67560SOL    HW212995   7.572  -0.075  10.337 -0.7239 -1.1928  0.8905
67561SOL     OW12996   0.023   2.469   7.773 -0.1369 -0.0165  0.3982
67561SOL    HW112997   0.052   2.550   7.816  0.1020 -0.7566  1.7027
67561SOL    HW212998   0.024   2.404   7.843 -1.0307 -0.9893 -0.4607
67562SOL     OW12999   6.700   8.421   1.307  0.1607 -0.0362  0.2011
67562SOL    HW113000   6.700   8.415   1.403  1.8382 -0.6767  0.2047
67562SOL    HW213001   6.658   8.339   1.278 -0.1649  0.0637  0.3866
67563SOL     OW13002  10.581  12.523   0.921  0.6359  0.0663  0.7560
67563SOL    HW113003  10.601  12.469   0.845 -2.8059  2.1698 -1.9671
67563SOL    HW213004  10.666  12.545   0.958  2.3024 -4.9436  0.5904
67564SOL     OW13005   8.083   4.346   1.513 -0.0637  0.2794 -0.1406
67564SOL    HW113006   8.133   4.277   1.557  1.1141  1.0534 -0.1915
67564SOL    HW213007   8.055   4.404   1.584 -1.2962 -0.3834 -0.0686
67565SOL     OW13008  12.128   4.597   9.222 -0.4367  0.5620 -0.1956
67565SOL    HW113009  12.129   4.590   9.126  0.2528  1.4204 -0.2608
67565SOL    HW213010  12.180   4.674   9.241  0.2110 -0.1261  0.9290
67566SOL     OW13011   3.357   4.063  12.981  0.3278 -0.1852 -0.4587
67566SOL    HW113012   3.398   3.988  12.938  1.0943  0.2230 -0.4480
67566SOL    HW213013   3.402   4.072  13.064 -1.4432 -1.2397  0.6834
67567SOL     OW13014   0.030   3.372   0.305 -0.8819 -0.5426 -0.3947
67567SOL    HW113015   0.065   3.286   0.328 -1.5695 -0.4653  1.0505
67567SOL    HW213016   0.056   3.429   0.377  0.0741  0.6276 -1.6164
67568SOL     OW13017  11.050  10.160   9.744 -0.6585  0.3083  0.0734
67568SOL    HW113018  11.012  10.141   9.658  0.6744  1.0660 -0.7199
67568SOL    HW213019  11.016  10.246   9.766  0.6853  1.0822 -0.7366
67569SOL     OW13020   9.434   8.445  12.231  0.4061 -0.1520  0.0071
67569SOL    HW113021   9.511   8.458  12.286  0.9003 -1.2226 -0.4096
67569SOL    HW213022   9.392   8.366  12.265  0.4047 -0.5044 -0.7755
67570SOL     OW13023   3.451   5.950   7.074  0.1464  0.1818  0.1326
67570SOL    HW113024   3.535   5.962   7.119  1.2924  0.7005 -1.9876
67570SOL    HW213025   3.428   6.038   7.043 -0.4038 -0.2025 -0.5889
67571SOL     OW13026  10.300  12.457   8.600  0.3138  0.0031 -0.6074
67571SOL    HW113027  10.360  12.524   8.632  0.7363 -0.9919  0.8193
67571SOL    HW213028  10.213  12.494   8.613  0.5647  0.8468 -1.2476
67572SOL     OW13029   9.113   2.365   6.312  0.7571  0.2982 -0.3107
67572SOL    HW113030   9.155   2.370   6.397  0.4444  0.6885 -0.1771
67572SOL    HW213031   9.178   2.400   6.251  0.0054  2.6662  0.1209
67573SOL     OW13032   8.305   9.435  10.917 -0.1242 -0.0007  0.4200
67573SOL    HW113033   8.374   9.396  10.971  1.3138  2.5718  0.6200
67573SOL    HW213034   8.266   9.502  10.972 -1.3264  0.0554 -0.4496
67574SOL     OW13035   3.994   2.258   9.138  0.0014  0.0283 -0.1377
67574SOL    HW113036   3.998   2.250   9.042  0.9641 -0.4026 -0.0715
67574SOL    HW213037   3.905   2.232   9.160  0.0445 -0.7560 -0.8446
67575SOL     OW13038   6.265   9.354   9.250 -0.0668  0.3062  0.1652
67575SOL    HW113039   6.193   9.410   9.221 -0.5611 -0.6133 -0.4023
67575SOL    HW213040   6.277   9.291   9.180  0.1045 -0.6696  1.0451
67576SOL     OW13041   3.813   7.896   5.774  0.3995  0.4571 -0.4104
67576SOL    HW113042   3.800   7.954   5.850  2.2398  1.0191 -0.4726
67576SOL    HW213043   3.857   7.819   5.811 -1.0943 -0.4707 -0.5043
67577SOL     OW13044   5.972   7.447   0.326 -0.2720 -0.3982 -0.0797
67577SOL    HW113045   6.003   7.538   0.318 -0.7016 -0.1919  0.5517
67577SOL    HW213046   5.904   7.439   0.259 -0.6292 -0.0780  0.2383
67578SOL     OW13047  11.766   4.117   2.795 -0.2783 -0.3005 -0.2222
67578SOL    HW113048  11.764   4.179   2.722  0.6286 -0.3140 -0.2770
67578SOL    HW213049  11.721   4.163   2.866 -2.1624 -0.7296 -1.0899
67579SOL     OW13050  11.522   6.449   9.198 -0.3318 -0.4722  0.4670
67579SOL    HW113051  11.576   6.382   9.240 -0.8735 -0.9473  0.4228
67579SOL    HW213052  11.578   6.488   9.132 -0.0838 -1.0487  0.3330
67580SOL     OW13053   4.650   5.522  10.623 -0.0149  0.1682  0.6823
67580SOL    HW113054   4.704   5.548  10.549 -1.3182 -1.3198 -0.8940
67580SOL    HW213055   4.563   5.556  10.603 -0.9537 -2.2264  0.2295
67581SOL     OW13056   2.078   0.405  12.086  0.1619 -0.4624  0.0079
67581SOL    HW113057   2.044   0.390  12.174 -0.7736 -3.5935 -0.7434
67581SOL    HW213058   2.011   0.458  12.043 -1.7265 -2.7028 -0.0633
67582SOL     OW13059  11.874   3.767   0.955 -0.2532  0.3003  0.0256
67582SOL    HW113060  11.885   3.709   1.031  0.9514 -0.8655 -0.9817
67582SOL    HW213061  11.786   3.748   0.923  0.4492 -1.7852 -0.8542
67583SOL     OW13062  11.684   4.692  11.829  0.5630  0.0000 -0.4746
67583SOL    HW113063  11.778   4.709  11.823  0.1814  2.5182 -0.3834
67583SOL    HW213064  11.647   4.773  11.865 -1.6166 -1.0406 -0.2040
67584SOL     OW13065   9.065   6.673   5.603  0.5258  0.0021  0.5119
67584SOL    HW113066   8.986   6.670   5.658  0.5247 -1.3681  0.4590
67584SOL    HW213067   9.119   6.741   5.643 -1.0934  1.7143 -0.0381
67585SOL     OW13068  10.187  11.472  11.211 -0.1140 -0.1435  0.2872
67585SOL    HW113069  10.259  11.409  11.220 -0.2207 -0.4499 -0.9063
67585SOL    HW213070  10.229  11.552  11.181 -0.1582 -0.0470  0.4806
67586SOL     OW13071   4.271   8.367   2.324 -0.4071  0.7939 -0.7803
67586SOL    HW113072   4.365   8.348   2.326 -0.8179 -1.7794 -1.7422
67586SOL    HW213073   4.248   8.381   2.416  0.9467  1.8041 -0.5585
67587SOL     OW13074   2.668   6.789   7.880 -0.7267 -0.2282 -0.6752
67587SOL    HW113075   2.577   6.817   7.878 -1.4440 -2.0851  1.5839
67587SOL    HW213076   2.704   6.830   7.959 -0.8148 -2.6073  0.6955
67588SOL     OW13077  10.658   3.915   0.684 -0.4249 -0.2502 -0.2385
67588SOL    HW113078  10.594   3.943   0.749  0.3531 -2.4520  1.6155
67588SOL    HW213079  10.616   3.842   0.639  0.7769 -1.9561  1.2398
67589SOL     OW13080   1.066   3.705   4.792 -0.5052  0.4924  0.1216
67589SOL    HW113081   0.974   3.718   4.814 -0.6293  0.6482 -0.4707
67589SOL    HW213082   1.066   3.688   4.697  0.1437  1.2799 -0.0316
67590SOL     OW13083  12.536   1.770   1.640 -0.3585 -0.0289 -0.1353
67590SOL    HW113084  12.457   1.814   1.608 -1.2526 -1.5327 -0.0794
67590SOL    HW213085  12.534   1.684   1.599  1.6009  0.1160 -0.6247
67591SOL     OW13086   6.718   3.589   4.619 -0.4678  0.2222  0.6071
67591SOL    HW113087   6.704   3.549   4.705  0.4470 -0.1013  0.6149
67591SOL    HW213088   6.662   3.667   4.619 -0.7088  0.0527  1.3769
67592SOL     OW13089   3.701   9.745  10.023  0.1946 -0.9327 -0.5801
67592SOL    HW113090   3.693   9.674  10.087  0.7843  0.2334  0.8222
67592SOL    HW213091   3.790   9.777  10.033 -0.7645  1.6180  0.6000
67593SOL     OW13092   6.428   9.218  12.745 -0.3993 -0.8678  0.2736
67593SOL    HW113093   6.505   9.194  12.797  0.3449 -0.2070 -0.4883
67593SOL    HW213094   6.354   9.199  12.802  0.3937 -0.0661  1.6447
67594SOL     OW13095   9.204   6.142   7.443 -0.4858  0.7512 -0.3201
67594SOL    HW113096   9.223   6.050   7.459  1.0694  1.0163 -0.4451
67594SOL    HW213097   9.190   6.180   7.530 -3.4806 -0.0032 -0.3679
67595SOL     OW13098   3.589   1.777   6.616 -0.8664  0.1371  0.0930
67595SOL    HW113099   3.545   1.699   6.583 -1.0719  0.4113 -0.2997
67595SOL    HW213100   3.591   1.765   6.711 -2.7042  0.5552  0.2306
67596SOL     OW13101   4.127   3.091   2.541 -0.1278  0.0093 -0.0819
67596SOL    HW113102   4.037   3.059   2.534 -0.4135  1.0082 -1.1900
67596SOL    HW213103   4.171   3.024   2.594 -1.4685 -0.5833  0.3450
67597SOL     OW13104   4.510   0.590   9.678 -0.7868  0.2988 -0.2921
67597SOL    HW113105   4.540   0.679   9.656 -0.1498  0.3764  0.8236
67597SOL    HW213106   4.516   0.585   9.773 -3.1304 -0.1485 -0.1103
67598SOL     OW13107   7.832  12.584  10.515 -0.2583 -0.5272  0.1442
67598SOL    HW113108   7.801  12.622  10.597  0.1226 -3.1934  1.6540
67598SOL    HW213109   7.752  12.554  10.471 -0.3211 -1.3436  0.7881
67599SOL     OW13110   3.626   7.767   7.969  0.0359  0.3264  0.0851
67599SOL    HW113111   3.703   7.710   7.978 -0.9797 -1.1716 -0.2839
67599SOL    HW213112   3.585   7.765   8.055 -0.9462 -0.9747 -0.3716
67600SOL     OW13113   1.361   3.904  10.303  0.1534  0.1554 -0.1796
67600SOL    HW113114   1.417   3.838  10.344  1.1642  0.6358 -0.7369
67600SOL    HW213115   1.367   3.885  10.209 -0.0737  0.6339 -0.2923
67601SOL     OW13116   2.297   3.117   3.006  1.0103 -0.2904  0.1612
67601SOL    HW113117   2.363   3.049   3.016 -0.2023 -1.2975  1.8760
67601SOL    HW213118   2.279   3.147   3.096 -2.3873 -1.6146  0.0808
67602SOL     OW13119  11.867   2.803   0.806 -0.1032  0.4270  0.2623
67602SOL    HW113120  11.810   2.868   0.848  1.2726  1.1894  1.0179
67602SOL    HW213121  11.954   2.823   0.838  1.0743  1.0330 -2.9118
67603SOL     OW13122  12.652   9.218  11.842  0.4836 -0.3913  0.2644
67603SOL    HW113123  12.573   9.255  11.802  0.5184 -1.4078 -0.7927
67603SOL    HW213124  12.640   9.231  11.936 -0.1213  1.0538  0.0122
67604SOL     OW13125  10.897   0.453  11.919 -0.1581  0.1498 -0.0657
67604SOL    HW113126  10.924   0.363  11.936  1.7984  0.9536  1.4265
67604SOL    HW213127  10.838   0.475  11.991 -2.1847 -0.4745 -1.4451
67605SOL     OW13128  11.990  11.568  11.091 -0.0721 -0.0219 -0.2781
67605SOL    HW113129  11.947  11.584  11.007 -0.8172 -0.6583 -0.0264
67605SOL    HW213130  11.967  11.478  11.114  1.6300 -0.4795 -0.2574
67606SOL     OW13131   4.682   0.632   7.920 -0.4869  0.1570  0.0587
67606SOL    HW113132   4.651   0.632   7.829  1.9300 -0.1306 -0.8695
67606SOL    HW213133   4.728   0.716   7.929 -1.3137  0.4872  1.2637
67607SOL     OW13134   1.682   5.330   0.735 -0.1942  0.6229 -0.5619
67607SOL    HW113135   1.762   5.378   0.756 -1.4389  1.8833  1.7280
67607SOL    HW213136   1.637   5.387   0.672  0.5530  0.0127 -1.6888
67608SOL     OW13137  11.773   7.721   0.179  0.2804 -0.3093 -0.0699
67608SOL    HW113138  11.848   7.710   0.121  0.4067 -0.4423  0.1142
67608SOL    HW213139  11.781   7.649   0.242  0.2150 -0.0966  0.1852
67609SOL     OW13140   4.929  11.572   6.342 -0.4068  0.2696  0.6469
67609SOL    HW113141   4.897  11.580   6.252 -1.9799 -0.0888  1.1360
67609SOL    HW213142   4.867  11.513   6.384 -0.8836  1.9710  2.4980
67610SOL     OW13143  11.507   7.146   0.878  0.3340  0.0381  0.2471
67610SOL    HW113144  11.427   7.108   0.841  0.9229 -2.7420  1.5454
67610SOL    HW213145  11.484   7.166   0.969  0.4241  1.6615 -0.0663
67611SOL     OW13146   9.566  10.644   9.082 -0.1167 -0.1125 -0.4816
67611SOL    HW113147   9.574  10.554   9.113 -0.3007 -0.1470 -0.5296
67611SOL    HW213148   9.599  10.698   9.154  2.1156 -0.3069 -1.2985
67612SOL     OW13149   1.250   6.704   4.862 -0.4320  0.2727  0.2674
67612SOL    HW113150   1.303   6.660   4.795 -0.4801 -1.7791  1.4946
67612SOL    HW213151   1.161   6.669   4.849 -1.0042  1.8420 -0.2224
67613SOL     OW13152  12.198   1.499   8.442  0.3086  0.4597  0.3408
67613SOL    HW113153  12.202   1.405   8.461 -0.1565  0.2450 -0.5887
67613SOL    HW213154  12.175   1.504   8.349 -0.6734  1.5042  0.6241
67614SOL     OW13155  12.501   0.086   1.419 -0.1060  0.4868 -0.3660
67614SOL    HW113156  12.520   0.017   1.482 -2.8454 -0.5645 -0.5283
67614SOL    HW213157  12.422   0.129   1.453  0.8017  2.7520 -0.9367
67615SOL     OW13158   3.722  12.522   6.362  0.8011  0.0006  0.0032
67615SOL    HW113159   3.806  12.567   6.357  1.4492 -0.8568  2.0913
67615SOL    HW213160   3.743  12.435   6.393 -0.6801 -1.0190 -1.6448
67616SOL     OW13161   8.844   9.951   2.014  0.6415 -0.3538  0.5633
67616SOL    HW113162   8.894   9.869   2.016 -0.0863 -0.8161  0.5372
67616SOL    HW213163   8.757   9.924   1.984  0.2603  0.3565  1.0027
67617SOL     OW13164   1.437   7.322  11.657 -0.4773 -0.2519  0.3372
67617SOL    HW113165   1.514   7.377  11.674 -0.8829  0.6483 -0.6365
67617SOL    HW213166   1.363   7.381  11.671 -0.9318 -0.6234 -0.4646
67618SOL     OW13167   0.999   1.873   4.019 -0.5019 -0.2735  0.0851
67618SOL    HW113168   1.035   1.785   4.029 -2.3395 -1.1943 -0.8782
67618SOL    HW213169   1.028   1.901   3.932  1.4388  0.8198  0.9991
67619SOL     OW13170   3.615   5.720   2.887  0.1406 -0.1178  0.0542
67619SOL    HW113171   3.522   5.718   2.865 -0.2260 -0.0738  1.4491
67619SOL    HW213172   3.657   5.663   2.823 -0.7805  0.2043 -0.8625
67620SOL     OW13173   2.763  11.061   3.307  0.1460  0.9398  0.0834
67620SOL    HW113174   2.769  11.001   3.233 -2.8331 -1.0079  1.2533
67620SOL    HW213175   2.760  11.148   3.268  0.4392  0.0940 -1.9194
67621SOL     OW13176   1.783  11.304   5.437 -0.3181 -0.3266 -0.0307
67621SOL    HW113177   1.829  11.221   5.453 -1.9655 -1.0652  1.0828
67621SOL    HW213178   1.806  11.358   5.512 -2.2202 -1.1704  1.2312
67622SOL     OW13179   7.059   2.554   4.787  0.2638  0.5338  0.3367
67622SOL    HW113180   7.031   2.619   4.723 -0.3981 -1.6086 -1.6828
67622SOL    HW213181   7.149   2.533   4.763  0.4071  0.5558  0.8402
67623SOL     OW13182   6.202  11.244   9.348 -0.5709  0.2375 -0.1109
67623SOL    HW113183   6.203  11.255   9.443 -0.5595  0.8415 -0.1821
67623SOL    HW213184   6.167  11.326   9.314  1.6020  0.9535 -0.7597
67624SOL     OW13185  12.181   2.380   5.286 -0.3361  0.0028  0.1714
67624SOL    HW113186  12.189   2.285   5.273 -0.0919 -0.0607  0.7580
67624SOL    HW213187  12.088   2.397   5.277 -0.5101 -0.4431  0.9827
67625SOL     OW13188   5.171   8.468   5.651  0.4491  0.2196 -0.3347
67625SOL    HW113189   5.079   8.445   5.634  0.6086 -0.7798  0.0569
67625SOL    HW213190   5.215   8.383   5.660  1.1562  0.6886  0.7909
67626SOL     OW13191   7.378   5.391   4.871 -0.2865 -0.2752  0.4370
67626SOL    HW113192   7.334   5.441   4.802 -0.8245 -0.0818  0.9211
67626SOL    HW213193   7.406   5.311   4.827 -0.1032  0.1026 -0.1539
67627SOL     OW13194  10.271   1.691   4.526  0.3872 -0.4589  0.3741
67627SOL    HW113195  10.255   1.779   4.561  1.8418 -0.2822  0.6706
67627SOL    HW213196  10.192   1.642   4.547 -0.9034  1.0306 -0.6920
67628SOL     OW13197  11.207   1.531  10.967  0.9076 -0.4308 -0.0022
67628SOL    HW113198  11.149   1.527  10.891 -0.2671  0.8830  0.7803
67628SOL    HW213199  11.150   1.553  11.040  2.1442 -0.8249  1.1248
67629SOL     OW13200   5.101   6.907  11.159 -0.6666  0.5897 -0.3677
67629SOL    HW113201   5.024   6.853  11.175  0.8602 -1.2066  1.5455
67629SOL    HW213202   5.175   6.847  11.169  1.0419  2.1049 -2.6265
67630SOL     OW13203   5.812  11.267   9.968 -0.6928 -0.0713  0.2169
67630SOL    HW113204   5.750  11.293  10.036 -2.5983 -1.0215 -1.0696
67630SOL    HW213205   5.783  11.313   9.889 -0.1431 -0.9856 -0.5489
67631SOL     OW13206  10.836   6.088   5.968  0.3857 -0.1378  0.7771
67631SOL    HW113207  10.877   6.013   6.011 -2.8663 -1.3340  2.0827
67631SOL    HW213208  10.806   6.143   6.041  0.3412  1.0502 -0.1200
67632SOL     OW13209   3.759  12.925   9.059 -0.6021  0.3202 -1.2785
67632SOL    HW113210   3.838  12.944   9.009  0.3705 -1.8673 -0.6827
67632SOL    HW213211   3.741  13.006   9.107  3.2178 -0.0112  1.1394
67633SOL     OW13212   8.185  11.063   1.218 -0.2662  0.3330  0.0711
67633SOL    HW113213   8.134  11.068   1.299 -0.3092 -0.8037  0.1326
67633SOL    HW213214   8.179  10.971   1.192 -1.0951  0.8846 -1.7824
67634SOL     OW13215   7.278   2.471   5.088  0.0145  0.0534 -0.0782
67634SOL    HW113216   7.246   2.456   4.999  0.6685  0.8842 -0.4727
67634SOL    HW213217   7.363   2.426   5.091  0.1481  0.3120  0.0182
67635SOL     OW13218   8.003   5.444   3.605 -0.3710  0.3967 -0.3637
67635SOL    HW113219   8.091   5.467   3.636  0.2921 -1.5698 -0.6332
67635SOL    HW213220   7.978   5.516   3.549  0.9891  1.1117 -0.1018
67636SOL     OW13221   1.923   6.288   9.701  0.0905  0.4745 -0.2524
67636SOL    HW113222   1.990   6.356   9.699 -0.3895  0.9413 -0.8864
67636SOL    HW213223   1.972   6.206   9.690  0.7080  0.6720  0.8620
67637SOL     OW13224   0.719   1.420   7.555  0.2997 -0.3198 -0.1996
67637SOL    HW113225   0.772   1.479   7.501  0.8366 -0.0705  0.5723
67637SOL    HW213226   0.633   1.422   7.515 -0.0548  2.0006  0.4998
67638SOL     OW13227   8.938   0.970   9.177 -0.7953 -0.1974 -0.0353
67638SOL    HW113228   9.015   0.915   9.189 -0.7354 -0.2717 -0.7139
67638SOL    HW213229   8.945   1.035   9.247  1.2330  1.3226 -1.5035
67639SOL     OW13230   3.201   2.470   5.192 -0.3516 -0.1150  0.5200
67639SOL    HW113231   3.210   2.396   5.132 -3.2308 -0.0052 -0.2138
67639SOL    HW213232   3.109   2.468   5.219 -0.1561  2.3102  1.6675
67640SOL     OW13233   5.556   9.814   3.876 -0.0249  0.0846 -0.1474
67640SOL    HW113234   5.565   9.865   3.796  1.2918 -0.1050 -0.1404
67640SOL    HW213235   5.639   9.826   3.923 -0.2527 -0.8761  0.5484
67641SOL     OW13236   3.399   1.963   6.471 -0.5967 -0.6409 -0.0413
67641SOL    HW113237   3.426   1.905   6.542 -1.0750 -1.2912 -0.3786
67641SOL    HW213238   3.304   1.959   6.471 -0.6670  0.5066  0.2110
67642SOL     OW13239   1.763   5.312   1.505  0.0282  0.0770 -0.2615
67642SOL    HW113240   1.692   5.315   1.568 -0.6045  2.2565 -0.9888
67642SOL    HW213241   1.837   5.353   1.550 -0.2979  1.2331 -0.7415
67643SOL     OW13242  12.131   7.073   3.225 -0.6725 -0.6835 -0.9833
67643SOL    HW113243  12.090   7.149   3.185 -1.2631 -0.8475 -0.6947
67643SOL    HW213244  12.070   7.001   3.209 -2.0193 -0.3589  2.0038
67644SOL     OW13245   6.825  10.371  12.253 -0.0884 -0.2982 -0.0161
67644SOL    HW113246   6.777  10.295  12.284  0.9972 -0.7194  0.6900
67644SOL    HW213247   6.792  10.386  12.165 -0.7551 -1.2005  0.0656
67645SOL     OW13248   6.872   6.473  10.727 -0.0665 -0.2694  1.0510
67645SOL    HW113249   6.867   6.399  10.666  0.1115 -0.4082  1.2067
67645SOL    HW213250   6.827   6.442  10.806 -2.0491  0.5777  0.3200
67646SOL     OW13251   3.221   1.546   5.425  0.0724 -0.9011 -0.4928
67646SOL    HW113252   3.227   1.487   5.500 -0.0981 -0.3806 -0.0642
67646SOL    HW213253   3.161   1.502   5.365 -1.1295 -0.5471  0.4096
67647SOL     OW13254   8.198  11.886  12.073 -0.0322 -0.1856  0.1201
67647SOL    HW113255   8.148  11.874  11.992  1.5129  0.8475 -1.0333
67647SOL    HW213256   8.274  11.829  12.064  0.1759 -0.0333  0.8305
67648SOL     OW13257   3.825  10.517   4.268 -0.2452 -0.4364 -0.4754
67648SOL    HW113258   3.768  10.440   4.273 -1.6621  0.4617 -1.9569
67648SOL    HW213259   3.865  10.523   4.355  0.3444 -3.1372 -0.4481
67649SOL     OW13260   5.991   3.986   9.053 -0.6289 -0.1542  0.9111
67649SOL    HW113261   6.016   3.977   9.144  1.1171  0.6740  0.5552
67649SOL    HW213262   6.035   4.066   9.024 -1.2194 -0.3546 -0.6325
67650SOL     OW13263  11.892   2.483   4.856 -0.4192  0.3681  0.1406
67650SOL    HW113264  11.962   2.442   4.805 -0.0300  1.1965 -0.0146
67650SOL    HW213265  11.910   2.458   4.946 -0.0098  0.4342  0.0825
67651SOL     OW13266   1.783   2.248   1.561 -0.1752  0.1396 -0.3028
67651SOL    HW113267   1.860   2.304   1.549 -0.4073  0.4230 -0.5041
67651SOL    HW213268   1.741   2.246   1.474 -0.0164 -0.5776 -0.3665
67652SOL     OW13269  12.437   2.613   4.223  0.2900 -0.1661 -0.0039
67652SOL    HW113270  12.354   2.567   4.208 -0.0647  0.0888  1.0811
67652SOL    HW213271  12.414   2.706   4.221  0.6655 -0.0772 -0.3081
67653SOL     OW13272   4.423   1.722  11.283 -0.0946 -0.3937  0.1555
67653SOL    HW113273   4.463   1.794  11.235  0.4747 -0.7482  0.0816
67653SOL    HW213274   4.452   1.643  11.237  0.2966 -0.7301  0.9558
67654SOL     OW13275   3.704  11.159   2.921  0.5297 -0.0541 -0.2856
67654SOL    HW113276   3.634  11.223   2.929  0.4688 -0.2960  1.3853
67654SOL    HW213277   3.785  11.211   2.923  0.4715  0.0071  0.7883
67655SOL     OW13278  11.096   5.948   4.628 -0.5282 -0.2432  0.0786
67655SOL    HW113279  11.042   5.876   4.595  1.6000 -1.8731 -0.1167
67655SOL    HW213280  11.186   5.914   4.622  0.4923  2.1603  0.7543
67656SOL     OW13281   3.427   7.943   1.856 -0.6629 -0.1614 -0.5585
67656SOL    HW113282   3.472   8.023   1.880  0.2726 -0.9129  0.2637
67656SOL    HW213283   3.473   7.912   1.778 -0.9756  0.0526 -0.8313
67657SOL     OW13284   0.698   9.670   5.032  0.1442  0.0567  0.3097
67657SOL    HW113285   0.646   9.656   4.952 -0.4362  2.0571  0.2728
67657SOL    HW213286   0.774   9.721   5.002  1.2917 -1.3907  0.6478
67658SOL     OW13287   0.532   2.831   5.419 -0.1749 -0.1546  0.2827
67658SOL    HW113288   0.578   2.755   5.383  1.1837  1.0129 -0.5638
67658SOL    HW213289   0.473   2.859   5.349  0.9172  0.8351 -0.2883
67659SOL     OW13290  11.336   9.026   0.510  0.1717  0.6461 -0.2834
67659SOL    HW113291  11.404   9.000   0.572 -1.3619 -2.6367  0.2539
67659SOL    HW213292  11.255   8.990   0.547 -1.3238  1.4431 -2.5658
67660SOL     OW13293   5.436   2.884   0.782  0.1967  0.3654  0.5080
67660SOL    HW113294   5.436   2.979   0.795  0.5376  0.7413 -1.8966
67660SOL    HW213295   5.347   2.864   0.756  0.9221  0.6512 -2.5286
67661SOL     OW13296   5.598   9.810   7.296 -0.3168 -0.0518 -0.5121
67661SOL    HW113297   5.611   9.833   7.388 -1.8709 -0.3169 -0.1943
67661SOL    HW213298   5.507   9.834   7.278 -0.8312 -2.3121 -1.2659
67662SOL     OW13299  12.461   3.785   7.423 -0.2838 -0.2922  0.0468
67662SOL    HW113300  12.426   3.869   7.453  1.6150  0.3428  0.6224
67662SOL    HW213301  12.444   3.725   7.495 -0.1287  0.0237  0.3506
67663SOL     OW13302   5.254   2.180   5.550 -0.4980 -0.2293 -0.1026
67663SOL    HW113303   5.312   2.256   5.554 -1.5573  0.6072 -0.1105
67663SOL    HW213304   5.279   2.134   5.470 -1.0625  1.1554 -1.1166
67664SOL     OW13305   5.068   0.022   1.253 -0.2274  0.8705 -0.1715
67664SOL    HW113306   5.152  -0.021   1.272  0.3994  1.8938 -0.5245
67664SOL    HW213307   5.064   0.025   1.158  0.6830  3.2652 -0.2030
67665SOL     OW13308   0.400   1.985   9.492  0.1039 -0.0207 -0.2227
67665SOL    HW113309   0.400   1.945   9.578  0.2183  2.3892  0.9760
67665SOL    HW213310   0.477   1.947   9.448  1.3978  0.3668  1.5944
67666SOL     OW13311   7.592  12.036   6.493 -0.1046  0.0765  0.4916
67666SOL    HW113312   7.668  12.071   6.446 -1.0046  1.0180 -0.3104
67666SOL    HW213313   7.523  12.031   6.426 -0.9083 -0.2436  1.3256
67667SOL     OW13314   3.809   4.157  12.544 -0.3388 -0.3683  0.5419
67667SOL    HW113315   3.875   4.215  12.583 -0.0070 -0.6023  0.3319
67667SOL    HW213316   3.730   4.211  12.540 -0.3872 -0.3409  1.5605
67668SOL     OW13317   3.468   9.395   8.527  0.1307  0.0404  0.3755
67668SOL    HW113318   3.533   9.358   8.468  0.6594  0.4765  0.6800
67668SOL    HW213319   3.486   9.489   8.527 -0.2348  0.1155  0.7818
67669SOL     OW13320  12.365  11.994   3.369  0.0695  0.4038 -0.1094
67669SOL    HW113321  12.405  11.927   3.313 -1.0776  0.8681 -1.5389
67669SOL    HW213322  12.334  11.946   3.446 -3.4161 -1.4054 -2.3683
67670SOL     OW13323   5.340  10.089   5.453 -0.3448 -0.4853 -0.2302
67670SOL    HW113324   5.331  10.031   5.530 -0.0976 -0.3087 -0.0659
67670SOL    HW213325   5.426  10.067   5.417 -0.0923  0.0385  0.0483
67671SOL     OW13326   2.474   5.486   5.375 -0.0349 -0.1160  0.2026
67671SOL    HW113327   2.389   5.530   5.384 -0.3262 -0.7810  0.8497
67671SOL    HW213328   2.489   5.482   5.281 -0.2832  0.8189  0.1110
67672SOL     OW13329   7.015   1.026   3.205  0.1278  0.5258  0.1652
67672SOL    HW113330   7.069   1.038   3.127 -0.4546 -0.6378 -0.4456
67672SOL    HW213331   6.925   1.035   3.174 -0.1760 -1.3094  0.3731
67673SOL     OW13332   5.771   8.649   9.920  0.4865 -0.2498  0.5186
67673SOL    HW113333   5.804   8.697   9.844  0.7873 -1.2257  0.0183
67673SOL    HW213334   5.843   8.651   9.983  0.1387  0.7945  0.8961
67674SOL     OW13335   7.480   8.359   8.249  0.4568 -0.1335  0.5035
67674SOL    HW113336   7.526   8.443   8.247 -0.5156  0.4097  0.1172
67674SOL    HW213337   7.444   8.349   8.161  1.7616 -1.6713  0.0934
67675SOL     OW13338   8.825   0.829   0.775  0.4325 -0.3240 -0.0469
67675SOL    HW113339   8.827   0.842   0.870  0.4306  1.2698 -0.2399
67675SOL    HW213340   8.758   0.762   0.762 -1.1711  0.9924  0.9420
67676SOL     OW13341   7.974  10.275   2.216  0.8546  0.1760 -0.7476
67676SOL    HW113342   8.055  10.276   2.165  2.5813  0.4912  1.8427
67676SOL    HW213343   7.996  10.226   2.295 -1.2676  0.9241  0.3800
67677SOL     OW13344   6.875  12.012  12.503  0.3118 -0.0621 -0.2011
67677SOL    HW113345   6.824  12.092  12.517  0.6684  0.1276  0.0660
67677SOL    HW213346   6.925  12.002  12.585 -0.7592 -1.3277  0.3385
67678SOL     OW13347   7.339   6.555   5.701 -0.6031  0.1579  0.2733
67678SOL    HW113348   7.324   6.523   5.612 -1.6936  1.3641 -0.0067
67678SOL    HW213349   7.251   6.563   5.739 -0.1294 -1.2789  1.8410
67679SOL     OW13350  12.662   1.578   1.326 -0.4766 -0.1825  0.0437
67679SOL    HW113351  12.658   1.491   1.365 -1.4167  0.6796  2.0207
67679SOL    HW213352  12.585   1.583   1.269 -0.6595 -0.5194  0.2577
67680SOL     OW13353  12.460   6.485  12.199 -0.1082  0.2790  0.1659
67680SOL    HW113354  12.536   6.493  12.142 -0.5748 -0.6388 -0.6269
67680SOL    HW213355  12.495   6.451  12.281  0.5927  1.7541  0.5030
67681SOL     OW13356  11.407  11.494   3.457  0.9605  0.0328 -0.4602
67681SOL    HW113357  11.407  11.522   3.549 -1.2712 -0.2848 -0.3037
67681SOL    HW213358  11.330  11.537   3.420 -0.0573 -2.3891 -1.3289
67682SOL     OW13359  12.459  12.813   6.361 -0.2069  0.4301 -0.5064
67682SOL    HW113360  12.494  12.726   6.378 -2.0864 -0.3373 -0.2269
67682SOL    HW213361  12.429  12.844   6.447  1.7591  2.0143 -0.3386
67683SOL     OW13362  10.595  11.451   2.674 -0.3581  0.3680  0.0490
67683SOL    HW113363  10.528  11.463   2.742  1.3234  0.2928  1.8006
67683SOL    HW213364  10.589  11.359   2.651 -2.8043  0.9414 -2.0293
67684SOL     OW13365  12.157   0.878   8.474  0.5585 -0.0559 -0.1806
67684SOL    HW113366  12.206   0.837   8.546  1.9800  0.6321 -0.7030
67684SOL    HW213367  12.218   0.874   8.400 -0.3008  0.6102 -0.9363
67685SOL     OW13368   0.034   6.889   9.233  0.2196  0.1067 -0.5357
67685SOL    HW113369  -0.042   6.847   9.193 -0.2761 -0.1682  0.6467
67685SOL    HW213370   0.005   6.912   9.322  1.3709  0.4205 -0.2188
67686SOL     OW13371  11.006  11.743  10.988 -0.1601 -0.0933 -0.2589
67686SOL    HW113372  11.072  11.694  11.036  2.2790  1.2046 -2.0005
67686SOL    HW213373  10.934  11.682  10.975  1.1692 -1.9728  0.7972
67687SOL     OW13374   5.179  11.632   8.818 -0.0652  0.8097 -0.1898
67687SOL    HW113375   5.126  11.567   8.864  0.2268 -1.7321 -3.0924
67687SOL    HW213376   5.265  11.627   8.860 -0.9477  1.9797  1.8866
67688SOL     OW13377   6.769   8.915   3.403  0.0330 -0.1750  0.2156
67688SOL    HW113378   6.675   8.904   3.386 -0.2449 -0.3947  1.7003
67688SOL    HW213379   6.800   8.826   3.419  0.3104 -0.0195  0.5563
67689SOL     OW13380   5.069  11.723   1.732 -0.4754 -0.3518  0.0079
67689SOL    HW113381   5.046  11.764   1.649 -0.1391 -0.0162  0.0741
67689SOL    HW213382   4.989  11.680   1.761 -0.1901 -1.7490 -1.2100
67690SOL     OW13383   9.329  10.060   1.949 -0.3976 -0.3313  0.8445
67690SOL    HW113384   9.369  10.075   2.035 -0.7468  0.1021  0.9338
67690SOL    HW213385   9.402  10.065   1.888 -0.4601  1.8315  0.8591
67691SOL     OW13386  10.846  10.124   3.762  0.1986 -0.0651 -0.0094
67691SOL    HW113387  10.768  10.069   3.763  0.0200  0.1951  0.6329
67691SOL    HW213388  10.869  10.131   3.670 -1.3293  1.0022 -0.3357
67692SOL     OW13389   5.873   9.486   7.063 -0.2025 -0.4776 -0.6358
67692SOL    HW113390   5.923   9.568   7.058 -1.1728  0.1003 -0.9830
67692SOL    HW213391   5.837   9.486   7.152  1.0502 -1.2973 -0.0921
67693SOL     OW13392   9.426   8.374   7.459 -0.8980  0.0496 -0.0605
67693SOL    HW113393   9.462   8.460   7.438 -0.5889  0.0916  0.6095
67693SOL    HW213394   9.486   8.312   7.418  0.3654  0.0990  1.6049
67694SOL     OW13395   8.792   9.757   2.888  0.0202  0.4550  0.2997
67694SOL    HW113396   8.860   9.762   2.821 -0.7946  0.7827 -0.5240
67694SOL    HW213397   8.819   9.684   2.944  0.9354  0.4537 -0.1217
67695SOL     OW13398  10.310   6.027   8.825  0.4353 -0.1957 -0.2974
67695SOL    HW113399  10.315   6.012   8.731 -3.6051 -1.0224 -0.5324
67695SOL    HW213400  10.322   6.122   8.835 -0.7061  0.1369 -1.8419
67696SOL     OW13401   8.901  10.761   0.502 -0.3842  0.7579 -0.3427
67696SOL    HW113402   8.847  10.808   0.565 -1.8059 -2.1800  0.8447
67696SOL    HW213403   8.885  10.804   0.418 -3.4361  0.9357  0.2335
67697SOL     OW13404   6.650  11.288   6.801 -0.3003  0.2100 -0.4164
67697SOL    HW113405   6.631  11.199   6.831  1.2443 -0.0252 -0.0035
67697SOL    HW213406   6.566  11.323   6.773 -1.1326 -0.9882  0.4684
67698SOL     OW13407  11.201   8.122   0.234  0.3268 -0.4840 -0.3038
67698SOL    HW113408  11.209   8.026   0.236  0.4253 -0.4917 -0.9472
67698SOL    HW213409  11.286   8.152   0.202 -0.2376 -0.2688 -1.6690
67699SOL     OW13410   2.978   7.111  12.213 -0.3149 -0.3977 -0.1204
67699SOL    HW113411   2.951   7.139  12.300 -2.3188  0.3591 -0.9123
67699SOL    HW213412   2.995   7.018  12.222  0.0831 -0.2174  1.1929
67700SOL     OW13413   7.968   9.557   8.571  0.3114 -0.7232  0.2020
67700SOL    HW113414   7.945   9.543   8.479  1.1460 -1.4996  0.0986
67700SOL    HW213415   7.923   9.638   8.595  0.2078 -0.4320 -0.9338
67701SOL     OW13416   3.555  10.217   3.119 -0.3718 -0.1275 -0.3808
67701SOL    HW113417   3.526  10.301   3.155 -1.2847 -0.1514 -1.0307
67701SOL    HW213418   3.566  10.233   3.026 -1.0276 -0.8496 -0.5953
67702SOL     OW13419   1.620   6.287   3.300  0.1735 -0.0066  0.4491
67702SOL    HW113420   1.592   6.258   3.214 -0.5877 -0.0869  0.7131
67702SOL    HW213421   1.545   6.269   3.357 -0.2493  2.1761  0.6863
67703SOL     OW13422  12.147  10.113   2.563  0.1043 -0.1799 -0.6424
67703SOL    HW113423  12.181  10.024   2.551 -3.0163 -1.3788 -1.9890
67703SOL    HW213424  12.115  10.115   2.653  1.0982 -0.0513 -0.2897
67704SOL     OW13425   8.199   9.142   0.541 -0.1224  0.6805  0.0170
67704SOL    HW113426   8.278   9.153   0.593 -1.2959  0.9154  1.8475
67704SOL    HW213427   8.170   9.053   0.561 -0.6316  0.8039 -0.1616
67705SOL     OW13428  12.323   6.224   3.562 -0.3076  0.3822 -0.1408
67705SOL    HW113429  12.415   6.204   3.548 -0.5019 -1.7411  1.2373
67705SOL    HW213430  12.306   6.200   3.653 -1.9394  1.9864  0.0486
67706SOL     OW13431   1.604  10.322   4.987  0.2692 -0.4067  0.2562
67706SOL    HW113432   1.655  10.368   4.920  0.9680  1.9770  2.2735
67706SOL    HW213433   1.666  10.263   5.029 -0.0992 -1.6864 -0.9266
67707SOL     OW13434   5.240   7.768   3.095 -0.4732 -0.1491 -0.9505
67707SOL    HW113435   5.159   7.816   3.108 -0.6932 -0.9483  0.8414
67707SOL    HW213436   5.303   7.834   3.068 -1.1783  0.8492 -0.1859
67708SOL     OW13437   8.756   5.432   2.784  0.1266 -0.5238  0.3589
67708SOL    HW113438   8.808   5.440   2.865  0.4231  1.1476  0.0498
67708SOL    HW213439   8.682   5.492   2.797  0.2214 -0.1685 -0.6311
67709SOL     OW13440   3.729   5.207   0.091 -0.0192 -0.3350  0.6076
67709SOL    HW113441   3.734   5.141   0.161 -0.0201 -0.2543  0.6846
67709SOL    HW213442   3.743   5.290   0.136  3.6952 -0.4743  0.0246
67710SOL     OW13443   2.142   3.580   6.499  0.0449 -0.3046 -0.6625
67710SOL    HW113444   2.152   3.528   6.578 -0.5685 -1.8308 -1.5544
67710SOL    HW213445   2.232   3.598   6.470  0.2704  0.2482  0.3426
67711SOL     OW13446  12.890   9.230   9.352  0.2982 -0.1499 -0.1384
67711SOL    HW113447  12.958   9.164   9.364  1.2802  0.9727  0.6787
67711SOL    HW213448  12.821   9.207   9.414  0.2066 -0.9154 -0.5133
67712SOL     OW13449   5.192   4.090   9.426 -0.0292  0.7708  0.2827
67712SOL    HW113450   5.171   4.184   9.433 -0.2638  1.0061 -2.5286
67712SOL    HW213451   5.133   4.057   9.359  0.7757 -1.1724  0.4652
67713SOL     OW13452   5.100  10.392  12.351  0.2787  0.4561 -0.1601
67713SOL    HW113453   5.125  10.305  12.382  2.2328  1.3385  0.9383
67713SOL    HW213454   5.101  10.447  12.429 -0.4901  1.5638 -0.9020
67714SOL     OW13455   1.976   0.768   9.987 -0.2863  0.1050  0.0995
67714SOL    HW113456   2.040   0.713  10.031 -0.9688 -1.5238 -0.8404
67714SOL    HW213457   2.013   0.785   9.901 -0.5293  0.2427  0.0200
67715SOL     OW13458   4.939   2.862   5.961  0.4290  0.1434 -0.2123
67715SOL    HW113459   4.851   2.825   5.976 -0.4401  2.0367 -0.3691
67715SOL    HW213460   4.992   2.827   6.032 -1.0513  0.8011  1.2881
67716SOL     OW13461   5.856   7.918   4.204  0.1392 -0.0887  0.1503
67716SOL    HW113462   5.849   7.988   4.139 -0.5719  0.2224  0.5529
67716SOL    HW213463   5.898   7.846   4.157  0.4260  0.4331 -0.4067
67717SOL     OW13464   3.840   6.308   5.759  0.2281  0.1349  0.0020
67717SOL    HW113465   3.746   6.323   5.753 -0.3602 -2.9962 -0.2639
67717SOL    HW213466   3.864   6.336   5.847 -1.2425 -0.2015  0.5363
67718SOL     OW13467   4.784  12.563   9.571  0.4663 -0.4797 -0.0214
67718SOL    HW113468   4.755  12.473   9.590  1.2261 -0.1466  3.3984
67718SOL    HW213469   4.876  12.564   9.597  0.9070  0.9451 -1.4875
67719SOL     OW13470  10.044  10.450  11.295  0.2489 -0.1676 -0.1522
67719SOL    HW113471   9.956  10.429  11.327 -0.1336  2.5600  0.8398
67719SOL    HW213472  10.099  10.449  11.373  1.0260 -1.3163 -0.6891
67720SOL     OW13473   4.520   4.623   9.922  0.0290  0.1745  0.1074
67720SOL    HW113474   4.585   4.561   9.888 -1.3798 -1.6917  0.6868
67720SOL    HW213475   4.441   4.605   9.872 -0.6537  0.9014  0.8919
67721SOL     OW13476   9.539   0.888  11.558 -0.5130  0.0581  0.3482
67721SOL    HW113477   9.577   0.965  11.600 -0.5281  0.1358  0.2174
67721SOL    HW213478   9.611   0.849  11.508 -1.0478  1.2437 -1.4231
67722SOL     OW13479   6.494   7.142   9.410  0.1599  0.7292 -0.2627
67722SOL    HW113480   6.427   7.111   9.348  1.0356  0.8538 -1.3171
67722SOL    HW213481   6.521   7.063   9.457  0.1124  0.4608 -0.6753
67723SOL     OW13482   2.051   6.336   3.247  0.1168 -0.0787 -0.1368
67723SOL    HW113483   2.000   6.260   3.220  0.8142 -0.8852  0.7521
67723SOL    HW213484   1.992   6.410   3.235 -0.8629 -0.8572 -0.2066
67724SOL     OW13485   4.768   9.106  12.445 -0.3201  0.2395  0.3743
67724SOL    HW113486   4.687   9.086  12.399 -0.6126  2.3539 -0.1467
67724SOL    HW213487   4.756   9.196  12.475  1.9213  0.6758  0.0857
67725SOL     OW13488   1.758   9.352  11.654 -0.0926 -0.6998  0.0530
67725SOL    HW113489   1.836   9.322  11.700  0.1897 -0.7290 -0.4373
67725SOL    HW213490   1.785   9.434  11.613 -0.5904 -0.2327  0.6344
67726SOL     OW13491   8.532   4.168   3.317 -0.5312 -0.2292 -0.1619
67726SOL    HW113492   8.555   4.257   3.288  1.1644  0.0138  1.6912
67726SOL    HW213493   8.566   4.112   3.248  2.1301  0.4035  0.5029
67727SOL     OW13494   2.406   1.048  10.002  0.2958  0.2424 -0.6554
67727SOL    HW113495   2.467   1.024   9.932 -0.5838  0.4292 -1.5115
67727SOL    HW213496   2.414   0.977  10.066  0.8754 -0.1031 -1.0973
67728SOL     OW13497   1.654   7.478   6.854  0.0684 -0.2756  0.7730
67728SOL    HW113498   1.591   7.531   6.904  0.5233  1.2116 -0.1680
67728SOL    HW213499   1.604   7.449   6.777 -0.4957 -2.1793  1.7876
67729SOL     OW13500   1.923   0.472   5.582 -0.1157  0.5492  0.4677
67729SOL    HW113501   1.864   0.399   5.603  1.2380 -0.8254 -0.3017
67729SOL    HW213502   1.889   0.507   5.500  0.1743 -0.3156 -0.0397
67730SOL     OW13503   4.968   3.517   1.792  0.1189 -0.0411  0.4215
67730SOL    HW113504   4.901   3.548   1.852 -0.1174  0.6080 -0.1608
67730SOL    HW213505   5.011   3.445   1.838 -1.5504 -1.0623  0.4623
67731SOL     OW13506   8.565   4.884   7.285 -0.1986  0.1577 -0.0686
67731SOL    HW113507   8.572   4.791   7.308 -0.7311 -0.1605 -1.1266
67731SOL    HW213508   8.601   4.930   7.361  0.5578 -0.9254  0.2528
67732SOL     OW13509  10.544   0.774  10.647  0.0544  0.1431  0.0672
67732SOL    HW113510  10.454   0.745  10.630 -0.3068  1.2261  0.0431
67732SOL    HW213511  10.534   0.864  10.679  1.3037  1.6421 -3.3085
67733SOL     OW13512  10.363  11.261   7.442  0.4207 -0.0631  0.1455
67733SOL    HW113513  10.415  11.337   7.414 -0.4132  0.7735  0.7698
67733SOL    HW213514  10.343  11.280   7.534  1.3502 -1.7280  0.7300
67734SOL     OW13515   6.152   9.763   8.393 -0.5206 -0.2439  0.1930
67734SOL    HW113516   6.238   9.721   8.396  0.3321  1.3663 -0.5394
67734SOL    HW213517   6.168   9.848   8.354 -2.0644  1.0793  2.1989
67735SOL     OW13518   2.691   4.986  12.936  0.2405 -0.2902  0.0490
67735SOL    HW113519   2.605   4.960  12.968  0.0128 -0.6966 -0.8728
67735SOL    HW213520   2.751   4.964  13.007 -0.0856 -2.3348 -0.2697
67736SOL     OW13521   9.394  11.705   4.488 -0.8548  0.3545  0.0615
67736SOL    HW113522   9.356  11.620   4.466  1.1553 -0.1644 -1.7687
67736SOL    HW213523   9.469  11.684   4.543  0.2207  0.7855 -1.1688
67737SOL     OW13524   8.353   1.735   2.490 -0.3237 -0.4111 -0.1706
67737SOL    HW113525   8.275   1.753   2.543  1.1428 -0.0775  2.0305
67737SOL    HW213526   8.392   1.821   2.474 -0.4224 -0.5650 -1.3432
67738SOL     OW13527  11.192   7.828   3.319  0.1078 -0.3109 -0.1447
67738SOL    HW113528  11.278   7.834   3.278  0.0220  0.1147 -0.2711
67738SOL    HW213529  11.190   7.900   3.382 -0.9852  1.1571 -1.7481
67739SOL     OW13530   9.687   9.388   0.786  0.8221 -0.7717  0.2514
67739SOL    HW113531   9.612   9.428   0.830 -0.2936  0.6998 -2.6925
67739SOL    HW213532   9.728   9.333   0.852 -1.2947  0.4441  2.7323
67740SOL     OW13533   0.189   3.385  10.323 -0.4556 -0.0601 -0.4407
67740SOL    HW113534   0.154   3.376  10.411  1.2681 -1.2026  0.1860
67740SOL    HW213535   0.196   3.295  10.290  0.4304  0.2247 -1.0877
67741SOL     OW13536   6.534   8.018   7.645 -0.8394  0.0643  0.2053
67741SOL    HW113537   6.545   8.020   7.740  0.8059  0.2920  0.0400
67741SOL    HW213538   6.575   8.099   7.615 -0.2295 -0.5994 -0.7910
67742SOL     OW13539   3.392   5.771   1.949 -0.2927 -0.5441  0.5116
67742SOL    HW113540   3.421   5.725   1.870 -1.5584 -0.0685 -0.2664
67742SOL    HW213541   3.471   5.809   1.986  0.2566 -0.3617 -0.8193
67743SOL     OW13542  10.177   5.346   9.371 -0.3656 -0.3365  0.0493
67743SOL    HW113543  10.107   5.283   9.355 -0.3781 -0.1138 -0.8162
67743SOL    HW213544  10.147   5.427   9.329  0.2122 -0.1140  0.0511
67744SOL     OW13545   4.691   9.663   8.447  0.4276  0.0410  0.0994
67744SOL    HW113546   4.669   9.571   8.435  1.0731 -0.0997 -0.0393
67744SOL    HW213547   4.608   9.709   8.436  0.4560 -0.3272 -2.1109
67745SOL     OW13548   0.701  12.541   0.472  0.2279  0.0263 -0.2968
67745SOL    HW113549   0.701  12.467   0.532  1.7894  0.9772  0.9553
67745SOL    HW213550   0.637  12.517   0.404 -0.4648 -1.7421  0.9058
67746SOL     OW13551   4.522   6.170   6.782 -0.2733  0.4234 -0.2859
67746SOL    HW113552   4.462   6.103   6.749 -0.0240 -0.6657  1.3625
67746SOL    HW213553   4.579   6.190   6.707 -1.1457 -0.2782 -1.1691
67747SOL     OW13554  10.982  10.927   9.311 -0.3962  0.1971  0.4179
67747SOL    HW113555  10.899  10.976   9.312  0.6388  2.0304  0.9718
67747SOL    HW213556  11.048  10.993   9.289  0.7561 -1.5678 -1.8439
67748SOL     OW13557   2.064   8.733   4.706 -0.1535 -0.3818  0.0693
67748SOL    HW113558   2.048   8.690   4.622  3.3466 -0.6940 -0.5932
67748SOL    HW213559   2.051   8.664   4.771  0.2093 -1.0119 -0.5111
67749SOL     OW13560  10.247   3.636   3.358  0.1213 -0.2635 -0.0282
67749SOL    HW113561  10.223   3.682   3.439  0.8474 -1.1311  0.7017
67749SOL    HW213562  10.268   3.547   3.386  1.2519 -0.3433 -1.0414
67750SOL     OW13563   3.360   4.278   5.531 -0.0215 -0.0216 -0.0419
67750SOL    HW113564   3.270   4.282   5.499  0.2002  2.4142 -0.5246
67750SOL    HW213565   3.407   4.345   5.482  1.2991  1.0345  2.4519
67751SOL     OW13566   9.803   7.443   7.412  0.3614 -0.1101  0.8425
67751SOL    HW113567   9.721   7.412   7.374 -0.1133  1.2662  0.6860
67751SOL    HW213568   9.871   7.408   7.355 -0.2243  0.0834  0.0109
67752SOL     OW13569  11.561   2.259   4.012  0.4012  0.2381  0.1349
67752SOL    HW113570  11.497   2.191   3.990  0.7757 -0.4497  1.0825
67752SOL    HW213571  11.646   2.216   4.000  0.6452  0.5791  0.6014
67753SOL     OW13572   0.815  12.833   3.168  0.3448 -0.3844  0.2059
67753SOL    HW113573   0.772  12.795   3.244 -1.0204  1.1088  0.2288
67753SOL    HW213574   0.843  12.920   3.197  0.8671 -0.2485 -0.6577
67754SOL     OW13575   9.156   7.809   8.993  0.4021 -0.1054 -0.1379
67754SOL    HW113576   9.106   7.871   8.940  0.6691 -0.1194 -0.4086
67754SOL    HW213577   9.168   7.733   8.936 -0.8600 -0.8560  0.5631
67755SOL     OW13578   7.065   4.048   2.276 -0.2330 -0.2225 -0.1938
67755SOL    HW113579   7.065   3.955   2.298 -1.0204 -0.0390  0.6404
67755SOL    HW213580   7.150   4.062   2.234 -0.4107 -1.4657 -1.0334
67756SOL     OW13581   1.502   6.930   3.335 -0.4061  0.0721 -0.1043
67756SOL    HW113582   1.472   6.892   3.417  1.5796  1.9983  1.6865
67756SOL    HW213583   1.504   6.858   3.273  0.3058 -2.0376  2.2229
67757SOL     OW13584  10.759  12.668   9.006 -0.6861 -0.1647 -0.6472
67757SOL    HW113585  10.673  12.706   9.019 -1.5991 -2.4410  0.5650
67757SOL    HW213586  10.805  12.683   9.089 -1.0015 -1.4408 -0.2137
67758SOL     OW13587   3.103   2.515   3.892  0.0309  0.5004  0.0336
67758SOL    HW113588   3.081   2.520   3.799 -0.2464  0.8779  0.1191
67758SOL    HW213589   3.019   2.519   3.937  0.1916  0.6951  0.3153
67759SOL     OW13590   8.567   7.879   7.230 -0.2135 -0.4275 -0.9617
67759SOL    HW113591   8.608   7.923   7.304 -0.7307 -0.2216 -0.7996
67759SOL    HW213592   8.474   7.898   7.239 -0.1176  1.2612 -2.7248
67760SOL     OW13593   2.538   5.805   7.073  0.4187 -0.8121 -0.1018
67760SOL    HW113594   2.448   5.808   7.038  0.8492 -0.2864 -1.2447
67760SOL    HW213595   2.528   5.816   7.167 -0.6001  1.8287 -0.4366
67761SOL     OW13596   7.650   2.050   2.544  0.5448  0.3212  0.4390
67761SOL    HW113597   7.728   2.089   2.504 -0.5001  0.3705 -1.6817
67761SOL    HW213598   7.586   2.121   2.545  0.0353 -0.1367  0.7196
67762SOL     OW13599   8.445   6.183   2.797  0.4567 -0.6474 -0.0598
67762SOL    HW113600   8.427   6.105   2.744 -2.5608 -0.5584  0.6237
67762SOL    HW213601   8.401   6.165   2.881  1.3266  1.0262  0.8034
67763SOL     OW13602  12.537   7.278   6.506 -0.0566  0.0976  0.3974
67763SOL    HW113603  12.450   7.298   6.541 -0.0267 -0.5968  0.8740
67763SOL    HW213604  12.560   7.194   6.545  0.8699  0.3205  0.3437
67764SOL     OW13605   8.136   9.692   3.251 -0.1872  0.2566  0.1873
67764SOL    HW113606   8.137   9.779   3.212  1.4304  0.8898  1.5378
67764SOL    HW213607   8.227   9.675   3.276 -0.3276 -2.1101 -0.6357
67765SOL     OW13608   3.335   0.039   1.242  0.5210 -0.0667 -0.5603
67765SOL    HW113609   3.335   0.018   1.336 -0.3453 -0.3202 -0.6035
67765SOL    HW213610   3.323   0.134   1.240 -0.4915 -0.1805 -0.4157
67766SOL     OW13611   8.015   6.927   7.428 -0.0655 -0.0928  0.2904
67766SOL    HW113612   7.964   6.848   7.444  0.7200 -0.2765  2.0714
67766SOL    HW213613   7.963   6.997   7.467  0.1030  0.0129  0.3269
67767SOL     OW13614   4.424  12.942   1.961 -0.6101  0.0330 -0.5225
67767SOL    HW113615   4.507  12.929   2.008 -1.6478  3.0513  2.4912
67767SOL    HW213616   4.375  12.862   1.978  1.1957 -1.3963 -1.5475
67768SOL     OW13617   9.179  10.170   4.816 -0.0628 -0.4206 -0.1140
67768SOL    HW113618   9.196  10.080   4.845 -1.5508 -0.5680  0.3708
67768SOL    HW213619   9.259  10.218   4.841 -0.6902 -0.8129  3.1395
67769SOL     OW13620   1.480   6.202   5.978  0.3689 -0.4108 -0.3053
67769SOL    HW113621   1.451   6.203   5.887  0.7186 -1.3133 -0.4366
67769SOL    HW213622   1.559   6.255   5.979 -1.1480  2.0128  0.0389
67770SOL     OW13623   3.390   8.626   4.260 -0.2149  0.5693  0.2210
67770SOL    HW113624   3.308   8.673   4.275 -0.3689  0.3593  0.0520
67770SOL    HW213625   3.381   8.591   4.171 -0.0620  0.3037  0.3092
67771SOL     OW13626   9.840   1.824   9.163  0.1903 -0.2145  0.3599
67771SOL    HW113627   9.830   1.889   9.231  2.1332 -0.1730  0.6705
67771SOL    HW213628   9.907   1.764   9.196  2.2534  0.5959 -2.0311
67772SOL     OW13629  10.726   7.591   4.994 -0.0219 -0.0865  1.0121
67772SOL    HW113630  10.778   7.554   5.065  2.5463  0.2776 -0.5899
67772SOL    HW213631  10.787   7.604   4.923 -2.1937  1.0554 -0.7734
67773SOL     OW13632  10.161   6.426   8.581  0.1040 -0.4599 -0.0632
67773SOL    HW113633  10.249   6.390   8.573  0.7819  1.3974 -1.7057
67773SOL    HW213634  10.163   6.475   8.663  1.0953  0.7716 -0.7964
67774SOL     OW13635   4.096  10.368   5.544 -0.2022  0.2253 -0.1915
67774SOL    HW113636   4.015  10.418   5.535 -0.0490  0.5309  0.0781
67774SOL    HW213637   4.144  10.412   5.614  0.2543  0.1189 -0.4298
67775SOL     OW13638   5.764  12.927   6.601 -0.2213 -0.3366  0.0439
67775SOL    HW113639   5.699  12.960   6.663 -0.9844  0.3955 -1.1115
67775SOL    HW213640   5.818  13.003   6.581 -1.1194 -0.0704 -1.5615
67776SOL     OW13641  12.194   6.007   2.111  0.4919  0.6300 -0.2100
67776SOL    HW113642  12.150   6.045   2.034 -0.5858 -0.2441 -0.0452
67776SOL    HW213643  12.249   6.078   2.143 -2.2525  2.5254  0.7094
67777SOL     OW13644   7.903   1.597   5.272 -0.2149  0.0973 -0.2183
67777SOL    HW113645   7.996   1.576   5.261 -0.4972 -0.3404 -2.1118
67777SOL    HW213646   7.902   1.669   5.335  1.1723 -1.7664  2.1340
67778SOL     OW13647   8.851   2.409   9.524 -0.1946  0.2144  0.3107
67778SOL    HW113648   8.813   2.326   9.495  0.1990 -0.7741  2.4219
67778SOL    HW213649   8.944   2.402   9.500 -0.2991  0.3372 -0.1276
67779SOL     OW13650   7.707  11.978   7.976  0.4010  0.6549  0.2477
67779SOL    HW113651   7.735  12.061   8.014 -0.5626  0.3390  1.7458
67779SOL    HW213652   7.778  11.917   7.995  1.1613  1.1518 -0.9588
67780SOL     OW13653   1.110   5.497   4.316  0.0438  0.2702  0.3195
67780SOL    HW113654   1.016   5.511   4.327 -0.1608  0.6189 -1.5976
67780SOL    HW213655   1.131   5.430   4.381 -2.1863 -2.1983 -1.2886
67781SOL     OW13656   4.784   6.490   3.770  0.0179  0.0024  0.7475
67781SOL    HW113657   4.743   6.477   3.685  0.5297  0.4811  0.4179
67781SOL    HW213658   4.878   6.486   3.752  0.2213  2.6926  0.8274
67782SOL     OW13659   6.570   7.282   9.713  0.2065  0.3116 -0.4548
67782SOL    HW113660   6.542   7.192   9.692  1.5613  0.0115 -1.1257
67782SOL    HW213661   6.542   7.333   9.637 -2.8647  1.0263  1.0240
67783SOL     OW13662   8.837   6.824   2.620  0.4200 -0.6618  0.2077
67783SOL    HW113663   8.926   6.789   2.607  0.5528 -0.8339  1.4164
67783SOL    HW213664   8.851   6.913   2.651  0.1146 -0.0907 -1.2434
67784SOL     OW13665   5.211   1.897   1.783 -0.4646  0.5761 -0.0087
67784SOL    HW113666   5.220   1.950   1.862 -0.2463 -0.8242  0.9370
67784SOL    HW213667   5.117   1.878   1.777 -0.3180 -0.4860  0.7373
67785SOL     OW13668   9.313  10.039   3.431 -0.1072 -0.1802 -0.0383
67785SOL    HW113669   9.303  10.083   3.347 -0.8837  0.4217  0.3645
67785SOL    HW213670   9.266  10.093   3.493 -0.1263 -0.9850  0.6725
67786SOL     OW13671  12.350   3.866   7.990  0.0486  0.0013 -0.0697
67786SOL    HW113672  12.265   3.823   8.004  0.1036  0.4218  1.8460
67786SOL    HW213673  12.414   3.798   8.010  0.1449  0.2444  0.4643
67787SOL     OW13674   5.999   1.394   5.930  1.2361  0.2146  0.1341
67787SOL    HW113675   6.055   1.458   5.886 -0.3295  1.0886 -0.6510
67787SOL    HW213676   5.926   1.445   5.964  1.3575 -0.7596  1.9943
67788SOL     OW13677   9.908  12.348   0.281  0.4707  0.3083  0.3553
67788SOL    HW113678   9.908  12.281   0.349  1.8253  0.2232  0.3084
67788SOL    HW213679   9.819  12.348   0.247  0.6185 -2.0457 -0.1901
67789SOL     OW13680   3.541   9.022   6.840 -0.3225 -0.1306  0.3465
67789SOL    HW113681   3.446   9.021   6.832 -0.5350  0.5643  2.2073
67789SOL    HW213682   3.573   8.972   6.765 -2.1350 -0.1221 -0.4560
67790SOL     OW13683  12.102   6.274   1.855 -0.0354 -0.5239 -0.2050
67790SOL    HW113684  12.179   6.308   1.810 -1.1117  0.9034 -1.0875
67790SOL    HW213685  12.072   6.347   1.909 -0.5055 -1.2122  0.4787
67791SOL     OW13686   3.007   2.198   1.656  0.4909 -0.5501 -0.7542
67791SOL    HW113687   2.932   2.254   1.675  1.8295  1.1602 -0.2919
67791SOL    HW213688   3.035   2.224   1.569  1.4123 -0.1215 -0.3458
67792SOL     OW13689  12.057   6.999  11.158 -0.0239 -0.6861  0.1977
67792SOL    HW113690  11.997   6.996  11.084  0.5194  0.9787 -0.3520
67792SOL    HW213691  12.042   7.085  11.197 -0.3459 -1.5513  2.0854
67793SOL     OW13692   3.599  12.780   8.861 -0.2634  0.5557 -0.5093
67793SOL    HW113693   3.647  12.853   8.823  0.2293  3.1508  4.3159
67793SOL    HW213694   3.509  12.812   8.870 -1.0826 -1.1429 -2.0457
67794SOL     OW13695   9.397   6.946   0.409  0.4104  0.6759 -0.0659
67794SOL    HW113696   9.378   7.040   0.415 -0.6451  0.4259  0.8390
67794SOL    HW213697   9.473   6.941   0.352  1.2180  2.1695  0.8044
67795SOL     OW13698   9.286   7.731   6.954  0.0785 -0.2857 -0.4926
67795SOL    HW113699   9.221   7.800   6.944  2.0555  1.5427 -1.3697
67795SOL    HW213700   9.346   7.743   6.881  1.7102 -1.5438  0.5625
67796SOL     OW13701   8.434  11.390   7.531 -0.0250  0.6068  0.1158
67796SOL    HW113702   8.429  11.335   7.609 -0.6133 -1.1320 -1.0701
67796SOL    HW213703   8.499  11.346   7.475  0.7230  2.0697 -0.2029
67797SOL     OW13704  10.320   1.209  12.052  0.1033  0.4976  0.2075
67797SOL    HW113705  10.309   1.118  12.081  0.8381  0.0597 -0.8208
67797SOL    HW213706  10.405   1.235  12.087 -0.3264  0.9821  0.9322
67798SOL     OW13707   3.436   5.120   0.254 -0.3700 -0.0249  0.4600
67798SOL    HW113708   3.446   5.026   0.268 -0.3475  0.0718  1.1374
67798SOL    HW213709   3.503   5.142   0.189 -0.2008 -0.4341  0.4934
67799SOL     OW13710  11.495   8.762   6.896  0.2410  0.0543 -0.0687
67799SOL    HW113711  11.553   8.754   6.972 -0.2300 -0.4592  0.2477
67799SOL    HW213712  11.417   8.712   6.921 -0.6432  1.3363 -0.1800
67800SOL     OW13713   5.087   0.173   5.250  0.0841 -0.3588 -0.1424
67800SOL    HW113714   5.094   0.129   5.335  1.4400  0.9453  0.4567
67800SOL    HW213715   5.178   0.193   5.226 -0.4019  0.8342 -1.0697
67801SOL     OW13716   8.141   0.665   3.943 -0.0589 -0.3090 -0.0041
67801SOL    HW113717   8.076   0.595   3.941  0.3556 -0.7322  0.9234
67801SOL    HW213718   8.092   0.743   3.968 -0.6053 -0.1454 -1.4634
67802SOL     OW13719  10.032   0.230   6.155  0.7410 -0.2646  0.3225
67802SOL    HW113720  10.055   0.224   6.062  0.4951  0.5943  0.2011
67802SOL    HW213721  10.009   0.322   6.169 -0.4800 -0.6436  0.9418
67803SOL     OW13722  10.166   3.321  10.293  0.4819 -0.4555  0.2528
67803SOL    HW113723  10.189   3.407  10.258  2.0163 -0.7841  0.3879
67803SOL    HW213724  10.248   3.272  10.293 -0.0589 -1.4332  1.5680
67804SOL     OW13725  10.070   3.941   5.396 -0.5749  0.2833 -0.2025
67804SOL    HW113726  10.142   3.898   5.442 -1.3519 -0.4161  0.3783
67804SOL    HW213727  10.036   3.873   5.336 -1.7621  0.0733  0.6690
67805SOL     OW13728   7.838   8.432   9.766 -0.2493 -0.3419 -0.2480
67805SOL    HW113729   7.885   8.436   9.849 -0.0447  3.1275 -0.3729
67805SOL    HW213730   7.906   8.445   9.699 -0.7647 -0.2640 -0.7689
67806SOL     OW13731   3.301  12.056   5.602  0.0865  0.2224 -0.1423
67806SOL    HW113732   3.347  12.061   5.685  0.5182 -2.1131 -0.1698
67806SOL    HW213733   3.370  12.038   5.538 -0.7022 -3.1751 -0.2047
67807SOL     OW13734  10.467   9.262   9.231  0.4477  0.0127 -0.7158
67807SOL    HW113735  10.401   9.216   9.178  1.0827 -2.0100  0.1431
67807SOL    HW213736  10.548   9.255   9.181  1.0155 -1.7702  0.3257
67808SOL     OW13737   9.999   2.748   2.899 -0.5204  0.4960 -0.0442
67808SOL    HW113738   9.907   2.727   2.912 -0.5116  0.2824 -0.3347
67808SOL    HW213739  10.005   2.842   2.916 -0.9463  0.6768 -0.8576
67809SOL     OW13740   9.047  10.039  11.485 -0.4047  0.3072  0.3066
67809SOL    HW113741   8.974  10.097  11.462 -0.1414  0.2183 -0.8146
67809SOL    HW213742   9.055   9.980  11.410  0.8649  0.3759  0.3645
67810SOL     OW13743  12.652   5.818   8.831  0.4591  0.3344  0.1523
67810SOL    HW113744  12.705   5.897   8.825  0.6129  0.1698 -1.0322
67810SOL    HW213745  12.564   5.850   8.854  0.0254  1.1210 -2.2598
67811SOL     OW13746   1.582   4.904   9.252  0.2230 -0.2618 -0.1580
67811SOL    HW113747   1.631   4.830   9.216 -0.6219 -0.8362 -0.1609
67811SOL    HW213748   1.649   4.963   9.285  0.9118 -1.7923  1.3701
67812SOL     OW13749   2.415   2.595   8.895 -0.2069  0.5977  0.1236
67812SOL    HW113750   2.442   2.637   8.813  0.0493 -0.1677 -0.1931
67812SOL    HW213751   2.400   2.668   8.955  1.0612  1.1084 -0.1545
67813SOL     OW13752   7.508   5.647   7.083  0.2002  0.2302  0.2676
67813SOL    HW113753   7.468   5.669   7.167 -2.5270  0.3414 -0.9573
67813SOL    HW213754   7.434   5.623   7.026  2.1266 -1.9545 -1.4997
67814SOL     OW13755   4.869  11.398  12.360 -0.7575  0.2752 -0.4674
67814SOL    HW113756   4.840  11.481  12.321 -0.2146  0.3350 -0.7524
67814SOL    HW213757   4.917  11.423  12.439  0.6422  0.3241 -1.3111
67815SOL     OW13758   5.464   7.906   4.684 -0.1361  0.5109  0.5595
67815SOL    HW113759   5.372   7.906   4.711  0.1044 -1.6136  1.6154
67815SOL    HW213760   5.510   7.870   4.760  1.4974  0.9552 -0.1891
67816SOL     OW13761   1.198   3.539   7.880  0.8091  0.3381 -0.8051
67816SOL    HW113762   1.177   3.583   7.962 -0.5221 -2.3144  0.4136
67816SOL    HW213763   1.257   3.599   7.835  1.7954  1.8036  2.1835
67817SOL     OW13764  11.373  11.647   8.118  0.1280 -0.0386 -0.5098
67817SOL    HW113765  11.333  11.678   8.199 -0.2992 -1.3667 -0.1831
67817SOL    HW213766  11.457  11.610   8.145  0.0867 -0.2746 -0.6947
67818SOL     OW13767   3.988  11.589   0.584 -0.4081 -0.5002  0.3151
67818SOL    HW113768   4.058  11.585   0.519 -1.9864 -1.9224 -1.4136
67818SOL    HW213769   3.946  11.674   0.569 -0.4247 -0.5917 -0.1660
67819SOL     OW13770   7.674  11.109   0.778  0.5040  0.0871 -0.0652
67819SOL    HW113771   7.624  11.048   0.725 -0.2196 -0.1583  0.8598
67819SOL    HW213772   7.766  11.085   0.764  0.2233 -1.4917  0.5802
67820SOL     OW13773   8.661   9.014   7.288 -0.0642 -0.0620 -0.0376
67820SOL    HW113774   8.674   9.056   7.203  0.5490 -2.0185 -0.9671
67820SOL    HW213775   8.582   8.961   7.277 -0.6224  0.5268  0.9873
67821SOL     OW13776   1.832  12.808   4.567  0.0075 -0.3998  0.1374
67821SOL    HW113777   1.922  12.826   4.539 -0.0712  0.6192  0.4871
67821SOL    HW213778   1.793  12.895   4.577 -1.9216 -0.7910 -2.7959
67822SOL     OW13779   5.180   1.168   7.577  0.5268  0.4166  0.3227
67822SOL    HW113780   5.224   1.110   7.640 -1.0040 -0.7907  0.3678
67822SOL    HW213781   5.175   1.116   7.497  2.2344  1.8538 -0.7653
67823SOL     OW13782   1.999   8.382   4.425 -0.4136  0.5867 -0.2832
67823SOL    HW113783   1.969   8.389   4.334 -0.8796  2.9743 -0.0233
67823SOL    HW213784   1.990   8.471   4.459 -0.7770 -0.3585  2.2733
67824SOL     OW13785  10.622   0.951   4.515  0.2734 -0.0510 -0.8486
67824SOL    HW113786  10.588   1.031   4.556  0.5250 -0.1961 -0.3483
67824SOL    HW213787  10.576   0.945   4.432  0.9927  1.1771 -1.3613
67825SOL     OW13788   3.296   2.575  10.313 -0.6413  0.1963 -0.4721
67825SOL    HW113789   3.358   2.579  10.386 -0.4773  0.0789 -0.6063
67825SOL    HW213790   3.251   2.492  10.325  0.3840 -0.4939 -1.3223
67826SOL     OW13791   7.455   4.086   1.509  0.2805 -0.4156 -1.0104
67826SOL    HW113792   7.429   4.167   1.465 -0.1519 -0.2833 -0.5251
67826SOL    HW213793   7.387   4.073   1.576  2.4443  0.9847  1.6501
67827SOL     OW13794   3.298  12.631   9.239  0.0901  0.5037  0.4632
67827SOL    HW113795   3.244  12.663   9.167 -1.1790  0.1633  1.2250
67827SOL    HW213796   3.369  12.696   9.247  0.0942  0.6949 -0.8777
67828SOL     OW13797   8.747   5.783   4.580  0.2693 -0.2811  0.4047
67828SOL    HW113798   8.690   5.786   4.502 -1.0482  0.6277  1.3624
67828SOL    HW213799   8.744   5.691   4.607 -1.2564 -0.1531  0.7726
67829SOL     OW13800   0.855   5.873   6.275  0.1095 -0.5036  0.2237
67829SOL    HW113801   0.862   5.947   6.214 -0.4793 -0.5555  0.0855
67829SOL    HW213802   0.918   5.892   6.343 -0.3658  0.3699  0.4327
67830SOL     OW13803  10.976   9.936   2.197 -0.0451  0.2741  0.1487
67830SOL    HW113804  10.975   9.943   2.293 -0.3387  1.0561  0.0909
67830SOL    HW213805  10.988   9.842   2.181  1.5373  0.3051  0.9493
67831SOL     OW13806   7.608   3.254   5.900  0.1444  0.0493  0.3550
67831SOL    HW113807   7.605   3.345   5.869  1.0995 -0.6498 -2.0373
67831SOL    HW213808   7.553   3.206   5.838 -0.3809 -1.0364  1.6052
67832SOL     OW13809   5.481   0.999   7.300  0.4832  0.6655 -0.6596
67832SOL    HW113810   5.559   1.039   7.261  1.4374  0.0464  0.5585
67832SOL    HW213811   5.514   0.949   7.375 -1.0388  0.0411 -0.3700
67833SOL     OW13812   4.708   8.602   6.171 -0.3348  0.2590 -0.2687
67833SOL    HW113813   4.695   8.573   6.081 -1.9056  0.3519 -0.0992
67833SOL    HW213814   4.753   8.686   6.163  0.8843 -0.4183 -0.8881
67834SOL     OW13815   0.787   3.283   4.193 -0.2422 -0.6518 -0.6466
67834SOL    HW113816   0.715   3.296   4.132  0.1118 -1.5678 -1.2704
67834SOL    HW213817   0.839   3.363   4.187 -1.7549  0.5026  0.6131
67835SOL     OW13818   0.833   2.200  11.978  0.0511 -0.0476  0.1245
67835SOL    HW113819   0.908   2.147  12.005 -0.4898 -0.1217  1.5289
67835SOL    HW213820   0.794   2.231  12.059 -1.3458  0.1362 -0.5822
67836SOL     OW13821   1.104   0.758  12.891  0.3652  0.1334 -0.1181
67836SOL    HW113822   1.054   0.688  12.933  0.1012  0.6553  0.4675
67836SOL    HW213823   1.123   0.726  12.803 -0.2690 -0.4222 -0.0572
67837SOL     OW13824   5.102  11.480   4.545 -0.0608  0.3269  0.4516
67837SOL    HW113825   5.160  11.555   4.529 -0.0852  0.0674 -0.9661
67837SOL    HW213826   5.036  11.486   4.476 -1.0420 -0.0669  1.3306
67838SOL     OW13827   4.982   4.236   5.605 -0.0702 -0.5267 -0.1790
67838SOL    HW113828   4.985   4.316   5.554  0.3241  0.4797  1.3618
67838SOL    HW213829   5.003   4.167   5.542 -0.6914  0.5277 -1.5918
67839SOL     OW13830   5.323   9.385   4.766  0.0226 -0.1297 -0.0483
67839SOL    HW113831   5.409   9.412   4.797  0.1320 -0.3402 -0.1722
67839SOL    HW213832   5.340   9.311   4.708 -0.2381 -0.1500 -0.0995
67840SOL     OW13833   1.168  12.930   3.762  0.2471 -0.2055  0.0149
67840SOL    HW113834   1.139  12.990   3.694 -2.2816 -0.0008  1.1489
67840SOL    HW213835   1.113  12.853   3.752  2.8254 -2.0675 -0.8359
67841SOL     OW13836  10.453   9.434  11.249 -0.0560  0.2841  0.3982
67841SOL    HW113837  10.450   9.520  11.291  1.9402  1.9075 -2.4479
67841SOL    HW213838  10.545   9.408  11.256 -0.2071 -0.5834 -0.6966
67842SOL     OW13839  11.816   5.852   5.948  0.0963  0.0060 -0.1530
67842SOL    HW113840  11.863   5.802   5.882  1.2157 -0.9388  1.3085
67842SOL    HW213841  11.746   5.896   5.899  2.0385  0.9139 -2.2930
67843SOL     OW13842   0.522   0.654  10.032  0.1169 -0.3268 -0.0438
67843SOL    HW113843   0.576   0.706   9.973 -0.3832 -0.2347 -0.4285
67843SOL    HW213844   0.584   0.597  10.078  0.9560  1.8646  1.7422
67844SOL     OW13845   5.364   6.316   4.252  0.1790 -0.0587  0.3916
67844SOL    HW113846   5.319   6.267   4.183 -0.0113  0.2343  0.3019
67844SOL    HW213847   5.363   6.407   4.221  1.1265 -0.0958  0.2346
67845SOL     OW13848  12.826   7.224   5.001  0.8601 -0.2811  0.2758
67845SOL    HW113849  12.747   7.172   5.017  1.2652 -1.1110 -0.3279
67845SOL    HW213850  12.807   7.272   4.920  0.3443  0.8084  1.0351
67846SOL     OW13851  11.472   3.448   3.772 -0.3943  0.0007  0.3057
67846SOL    HW113852  11.419   3.370   3.757 -0.5753 -0.2719  2.1794
67846SOL    HW213853  11.554   3.431   3.725 -0.0638 -1.7690  1.4452
67847SOL     OW13854   9.197   7.740   5.289 -0.3633  0.4890 -0.6272
67847SOL    HW113855   9.292   7.745   5.278 -0.1414  0.4076  1.0349
67847SOL    HW213856   9.164   7.819   5.246  0.4112  0.3196 -1.5604
67848SOL     OW13857   0.239  11.863   0.140 -0.0455  0.2558  0.0285
67848SOL    HW113858   0.322  11.850   0.185  0.2209  2.0393  0.1132
67848SOL    HW213859   0.253  11.829   0.052  0.0576 -1.4124  0.6434
67849SOL     OW13860   4.315   4.750   1.836  0.3041  0.6803 -0.2385
67849SOL    HW113861   4.398   4.712   1.808 -0.1136  0.2350 -0.9022
67849SOL    HW213862   4.260   4.675   1.858 -0.1328  0.9407 -0.4248
67850SOL     OW13863   3.428  11.237  11.351 -0.2851 -0.1392 -0.0100
67850SOL    HW113864   3.336  11.232  11.377  0.1058 -1.0235  1.3058
67850SOL    HW213865   3.442  11.329  11.329 -1.1466  0.2726  1.0867
67851SOL     OW13866  11.225   0.622   1.857  0.0334 -0.6270  0.2053
67851SOL    HW113867  11.307   0.583   1.886 -0.2183 -0.5610  1.0380
67851SOL    HW213868  11.233   0.715   1.880 -0.4064 -0.6830  0.6118
67852SOL     OW13869   2.388   7.047   1.083  0.0821 -0.5214  0.3362
67852SOL    HW113870   2.393   7.021   0.991  1.7988  0.1385  0.2114
67852SOL    HW213871   2.312   7.106   1.087  1.3144  1.3107 -1.1908
67853SOL     OW13872  12.527   0.309   7.978  0.0608 -0.2239  0.1578
67853SOL    HW113873  12.594   0.273   8.036  0.1325  0.7708  0.7120
67853SOL    HW213874  12.564   0.299   7.890  0.9852  0.3743  0.4597
67854SOL     OW13875   1.114   5.936   2.077 -0.0215 -0.1319 -0.6547
67854SOL    HW113876   1.098   5.861   2.020  0.9029 -0.4995 -0.4447
67854SOL    HW213877   1.091   6.012   2.023  0.5600 -0.4878 -1.4298
67855SOL     OW13878   8.930   0.273   6.391 -0.4267  0.8639 -0.5678
67855SOL    HW113879   9.016   0.254   6.353 -0.6311  0.7332 -0.9677
67855SOL    HW213880   8.950   0.321   6.472  0.0537  0.2195 -0.2851
67856SOL     OW13881   7.410   5.955   8.434 -0.3216 -0.1985 -0.4556
67856SOL    HW113882   7.325   5.996   8.452 -0.5573 -0.2437 -1.4016
67856SOL    HW213883   7.433   5.910   8.515  0.2983  2.3813  0.8991
67857SOL     OW13884   4.582  11.875   8.161  0.1293 -0.0380 -0.7849
67857SOL    HW113885   4.587  11.819   8.239 -0.1019  1.3089  0.2270
67857SOL    HW213886   4.493  11.909   8.162  0.6875  1.4705 -0.5731
67858SOL     OW13887   4.119   3.795  11.745  0.2011 -0.3027 -0.1167
67858SOL    HW113888   4.147   3.707  11.770 -0.6790 -0.5285  0.0933
67858SOL    HW213889   4.177   3.818  11.672 -0.0969 -1.3966 -0.7316
67859SOL     OW13890  10.028   7.922   2.787  0.0940  0.1689 -0.0392
67859SOL    HW113891   9.960   7.857   2.765 -1.8472  1.7913  0.8394
67859SOL    HW213892  10.003   7.953   2.873  3.4772 -0.9574  1.5024
67860SOL     OW13893   2.125  11.405   3.045 -0.3040 -0.1084 -0.2896
67860SOL    HW113894   2.201  11.365   3.003 -1.3173 -2.0327 -0.4134
67860SOL    HW213895   2.094  11.338   3.107 -2.7596 -0.0068 -1.3054
67861SOL     OW13896   1.003   9.956   5.153  0.2883 -0.6598  0.4389
67861SOL    HW113897   0.941  10.021   5.187  1.0594  0.5070 -0.3316
67861SOL    HW213898   1.062  10.006   5.097  0.7086 -2.0938 -0.4401
67862SOL     OW13899   1.997   0.230   9.596 -0.1717 -0.0262 -0.4048
67862SOL    HW113900   1.913   0.202   9.559 -0.1985  0.4459 -0.7221
67862SOL    HW213901   2.005   0.182   9.678 -1.1086  0.4647 -0.0044
67863SOL     OW13902   3.159   7.306   2.827  0.1853 -0.2358  0.3281
67863SOL    HW113903   3.230   7.248   2.857 -1.4184 -2.0832  0.7985
67863SOL    HW213904   3.156   7.375   2.893  2.4349  0.7129 -0.4685
67864SOL     OW13905   2.926   1.675   6.950 -0.1122 -0.1076 -0.2873
67864SOL    HW113906   2.895   1.663   6.860  0.6979 -0.1184 -0.5687
67864SOL    HW213907   2.944   1.586   6.981  0.3930 -0.0485 -0.4013
67865SOL     OW13908   0.647   0.830   9.863 -0.1049  0.5211  0.1134
67865SOL    HW113909   0.595   0.899   9.822  0.7542  0.5109 -1.0492
67865SOL    HW213910   0.699   0.793   9.792  1.2857  0.3380  1.1613
67866SOL     OW13911  12.184   1.805   3.520 -0.0832 -0.4052  0.3130
67866SOL    HW113912  12.173   1.779   3.612  0.8203  0.4998  0.7022
67866SOL    HW213913  12.277   1.788   3.502  0.0735  0.6962  0.0021
67867SOL     OW13914  11.880  10.992   7.665 -0.5632 -0.0182 -0.3006
67867SOL    HW113915  11.792  11.014   7.694 -0.6614 -0.4102 -0.2970
67867SOL    HW213916  11.876  10.997   7.569 -0.7844 -0.7524 -0.3337
67868SOL     OW13917  12.650   1.268   0.760 -0.2212 -0.2614 -0.4770
67868SOL    HW113918  12.555   1.259   0.753 -0.0541 -3.0626 -0.0835
67868SOL    HW213919  12.685   1.183   0.733  2.2046  0.6789 -0.5897
67869SOL     OW13920   8.793   1.477   6.326  0.3466  0.1041  0.2257
67869SOL    HW113921   8.767   1.542   6.261 -1.1938 -1.3912 -0.7308
67869SOL    HW213922   8.712   1.453   6.370  0.6777 -1.9033 -0.1599
67870SOL     OW13923  12.826   9.384   0.411  0.1163  0.0314  0.3523
67870SOL    HW113924  12.827   9.479   0.399  2.2688 -0.1950 -2.5262
67870SOL    HW213925  12.737   9.364   0.438 -1.1939  2.6459 -1.5555
67871SOL     OW13926   8.959   5.350   1.169 -0.1751 -0.3740 -0.9287
67871SOL    HW113927   8.962   5.393   1.255 -0.8834  1.5974 -1.8367
67871SOL    HW213928   8.883   5.293   1.174 -1.1251  0.8669 -0.7122
67872SOL     OW13929   9.104   0.652  10.721 -0.7722  0.0487  0.2279
67872SOL    HW113930   9.148   0.572  10.693 -1.9241 -0.3915 -0.3722
67872SOL    HW213931   9.102   0.707  10.643 -2.2329 -0.3813 -0.0640
67873SOL     OW13932   5.875   3.781   3.521 -0.1815  0.3331  0.4149
67873SOL    HW113933   5.812   3.772   3.592  0.4037  0.8565  1.0225
67873SOL    HW213934   5.955   3.740   3.555  0.5013  1.7485  0.6142
67874SOL     OW13935   7.189   6.516   8.708  0.1070  0.1612  0.2542
67874SOL    HW113936   7.193   6.610   8.694  3.2273 -0.1633 -2.1088
67874SOL    HW213937   7.127   6.485   8.642 -1.5665  0.5545  1.5794
67875SOL     OW13938   0.985  11.123  12.748 -0.2120  0.3556 -0.2422
67875SOL    HW113939   0.896  11.099  12.723 -0.2687  0.1266  0.1579
67875SOL    HW213940   1.004  11.066  12.823  0.7748 -0.5510 -1.1675
67876SOL     OW13941   4.158   4.533   1.926 -0.3822  0.0595 -0.2794
67876SOL    HW113942   4.158   4.540   2.022  1.1366  0.0183 -0.2419
67876SOL    HW213943   4.071   4.500   1.904 -0.9155  0.5203  1.0470
67877SOL     OW13944   5.430   8.042  11.509 -0.6652 -0.3057 -0.8476
67877SOL    HW113945   5.443   7.948  11.494  0.8097 -0.2223 -0.2840
67877SOL    HW213946   5.428   8.080  11.421  2.0961 -0.5068 -1.0891
67878SOL     OW13947   4.049   1.045  12.406  0.0159 -0.1241  0.5787
67878SOL    HW113948   4.011   0.978  12.349 -1.5024  1.1933 -0.0504
67878SOL    HW213949   4.078   1.114  12.345 -2.2163  1.6023  1.3131
67879SOL     OW13950   9.504  11.773   8.902 -0.0232  0.0009 -0.4686
67879SOL    HW113951   9.411  11.781   8.922 -0.1665 -0.6951 -0.8419
67879SOL    HW213952   9.508  11.773   8.806  0.2702 -0.8813 -0.4665
67880SOL     OW13953   2.201   1.731   1.006  0.0225 -0.3920 -0.5068
67880SOL    HW113954   2.209   1.821   0.975 -1.3601 -0.8679 -2.4159
67880SOL    HW213955   2.292   1.702   1.017  0.5212  0.7815 -1.2263
67881SOL     OW13956   1.029   6.764   3.406 -0.2668 -0.1296 -0.4735
67881SOL    HW113957   1.062   6.778   3.495 -0.2731 -2.3458 -0.0763
67881SOL    HW213958   1.049   6.845   3.360  0.5733  0.7153  1.2947
67882SOL     OW13959   2.657   5.813   6.634 -0.5442 -0.1654 -0.0540
67882SOL    HW113960   2.625   5.724   6.619  1.1432 -0.6069 -1.2760
67882SOL    HW213961   2.606   5.868   6.574 -1.4100 -0.3107  0.5251
67883SOL     OW13962   6.598  12.021   6.917  0.3865  0.7507 -0.0322
67883SOL    HW113963   6.528  12.022   6.852 -0.0250 -2.1856  0.2347
67883SOL    HW213964   6.676  12.049   6.869 -0.0808 -0.4941 -1.5995
67884SOL     OW13965   0.108   5.251   5.598  0.6057  0.1926 -0.9402
67884SOL    HW113966   0.134   5.190   5.668 -0.2029  1.3101  0.3847
67884SOL    HW213967   0.108   5.197   5.519 -2.3179 -2.1871  0.4907
67885SOL     OW13968   3.199   2.592   0.954 -0.1306  0.5508 -0.4399
67885SOL    HW113969   3.226   2.529   1.021 -0.2152  1.9795  1.0187
67885SOL    HW213970   3.248   2.672   0.975 -0.8369  1.3046 -1.5517
67886SOL     OW13971   1.563   7.248   9.718 -0.0923 -0.5626 -0.1804
67886SOL    HW113972   1.543   7.341   9.727  1.1400 -0.2909 -0.0293
67886SOL    HW213973   1.481   7.203   9.737 -0.9521  0.5217 -1.2164
67887SOL     OW13974   4.368  12.150   7.288  0.2631 -0.4264 -0.2153
67887SOL    HW113975   4.330  12.164   7.201  0.2328 -3.0196 -0.6963
67887SOL    HW213976   4.461  12.135   7.272  0.4308  0.0126  0.3157
67888SOL     OW13977   5.857   7.685   4.530  0.4868 -0.1880  0.1311
67888SOL    HW113978   5.774   7.731   4.519  0.9466  0.5399 -0.3278
67888SOL    HW213979   5.889   7.715   4.615  0.8188  0.3878 -0.1988
67889SOL     OW13980   7.920   8.384  10.390  0.6671 -0.0120 -0.1170
67889SOL    HW113981   7.928   8.292  10.366  0.3637 -0.4192  1.2729
67889SOL    HW213982   7.828   8.396  10.412  1.0134  0.1834  1.3356
67890SOL     OW13983   0.321   2.033   8.575 -0.4186  0.0154 -0.2426
67890SOL    HW113984   0.352   2.059   8.661 -2.4161  1.4690  0.0977
67890SOL    HW213985   0.335   2.109   8.519  0.0238 -0.6001 -1.0029
67891SOL     OW13986  12.084   2.354   3.746  0.2092  0.3266  0.0265
67891SOL    HW113987  12.134   2.285   3.703 -1.6634 -1.3335  0.3671
67891SOL    HW213988  12.106   2.434   3.698  1.0668 -0.8100 -1.5498
67892SOL     OW13989   9.062   0.896  10.249  0.1343  0.3672 -0.9713
67892SOL    HW113990   9.057   0.942  10.165  0.8674 -1.4491 -2.0675
67892SOL    HW213991   9.088   0.807  10.226  0.6123 -0.1159  1.2213
67893SOL     OW13992   4.344   4.300  10.624  0.0041 -0.5178  0.2107
67893SOL    HW113993   4.262   4.259  10.597 -0.1053 -1.0528  1.3069
67893SOL    HW213994   4.317   4.386  10.656 -0.0214 -0.3786 -0.1770
67894SOL     OW13995   3.941   6.304   3.529  0.4645 -0.0189 -0.3382
67894SOL    HW113996   3.980   6.308   3.442 -0.5633 -3.4251 -1.0936
67894SOL    HW213997   3.990   6.235   3.575  1.2140  1.9131  1.9793
67895SOL     OW13998   1.578  11.381   4.985  0.1257 -1.1313 -0.0643
67895SOL    HW113999   1.649  11.432   4.946 -0.4017  0.5666  1.0965
67895SOL    HW214000   1.597  11.381   5.079 -1.6896 -0.1258  0.3467
67896SOL     OW14001   6.576   4.002   3.507  0.5602  0.1524 -0.6120
67896SOL    HW114002   6.607   4.043   3.426  0.0899  0.9715 -0.3895
67896SOL    HW214003   6.482   3.990   3.493  0.9020 -2.2118 -1.2426
67897SOL     OW14004  11.823   9.457   1.017  0.6908  0.2272 -0.1143
67897SOL    HW114005  11.783   9.371   1.024  0.0543  0.3929 -1.3481
67897SOL    HW214006  11.840   9.468   0.923  2.4446  0.7167  0.2177
67898SOL     OW14007   5.775   2.077   0.858  0.3246 -0.6509 -0.0578
67898SOL    HW114008   5.786   2.062   0.952  0.8153  1.3727  0.2638
67898SOL    HW214009   5.724   2.158   0.853  0.2051 -0.7916 -1.5470
67899SOL     OW14010   4.744   7.149   6.394  0.3529 -0.1246  0.0118
67899SOL    HW114011   4.839   7.137   6.405  0.2905 -0.2699  0.4313
67899SOL    HW214012   4.705   7.084   6.452 -0.0033  0.0216 -0.0600
67900SOL     OW14013   9.508   4.242   0.926 -0.1217 -0.1020 -0.5134
67900SOL    HW114014   9.434   4.233   0.866 -1.2993 -0.1322  0.8872
67900SOL    HW214015   9.536   4.152   0.943 -0.7789 -0.1896  0.1498
67901SOL     OW14016  12.870   2.600   7.076  1.1697 -0.2938 -0.1050
67901SOL    HW114017  12.852   2.617   6.984  0.8278  0.1198  0.0382
67901SOL    HW214018  12.865   2.685   7.118  2.0907 -0.3681  0.1769
67902SOL     OW14019   9.110   1.299   9.463 -0.4525  0.6016 -0.1363
67902SOL    HW114020   9.170   1.312   9.536 -1.3536  0.6306  0.6281
67902SOL    HW214021   9.058   1.380   9.461 -0.6590  0.4587 -0.5951
67903SOL     OW14022   0.528   2.223   5.357 -0.4995 -0.4367  0.1428
67903SOL    HW114023   0.564   2.188   5.276  2.9327  3.1075 -0.1947
67903SOL    HW214024   0.466   2.291   5.328 -1.0590 -0.7664  0.5553
67904SOL     OW14025   7.460   8.394   5.074  0.1214 -0.1654 -0.3213
67904SOL    HW114026   7.406   8.327   5.032  0.9058 -1.0654  0.0825
67904SOL    HW214027   7.477   8.458   5.005 -2.1467  0.6170 -0.2673
67905SOL     OW14028   9.983   2.560   1.791 -0.1652 -0.1020  1.0507
67905SOL    HW114029   9.969   2.632   1.730 -2.0965  0.1516  1.7195
67905SOL    HW214030  10.020   2.490   1.737  1.8421  1.3716  0.4068
67906SOL     OW14031  12.423   5.356   9.758  0.7773  0.0850  0.2307
67906SOL    HW114032  12.431   5.393   9.670 -1.3780  3.0718  1.1282
67906SOL    HW214033  12.503   5.383   9.803  0.3182  1.7361  0.1389
67907SOL     OW14034   8.078   8.568   0.696  0.5312  0.3481 -0.4156
67907SOL    HW114035   8.036   8.502   0.752  1.4307  0.5942  0.5747
67907SOL    HW214036   8.132   8.619   0.755 -0.9750  2.7111 -0.9586
67908SOL     OW14037   9.189   1.686   3.326  0.1091 -0.3314  0.5222
67908SOL    HW114038   9.218   1.608   3.373  0.7278  0.0490  0.7873
67908SOL    HW214039   9.119   1.722   3.380  0.7042  0.0129  1.0831
67909SOL     OW14040   0.975   3.448  10.930 -0.0691 -0.0951 -0.1579
67909SOL    HW114041   1.057   3.405  10.903 -0.5495  0.5047 -2.8541
67909SOL    HW214042   0.987   3.540  10.905 -0.9035  0.3861  1.1086
67910SOL     OW14043  12.023  11.865   4.331 -0.3714 -0.5951 -0.1265
67910SOL    HW114044  12.090  11.801   4.308  1.2624  0.8255  0.4113
67910SOL    HW214045  12.048  11.944   4.282 -1.1038  0.2328  0.7889
67911SOL     OW14046   8.804  11.695   9.924 -0.2716  0.4153 -0.0997
67911SOL    HW114047   8.795  11.664  10.015 -0.3713 -1.9176 -0.8338
67911SOL    HW214048   8.897  11.682   9.904  0.1717  2.6596  0.1740
67912SOL     OW14049   8.781  11.621   3.922 -0.7192 -0.0085 -0.0826
67912SOL    HW114050   8.873  11.628   3.945 -1.2747 -0.4570  2.5643
67912SOL    HW214051   8.766  11.694   3.862  0.9803  1.1071  0.7757
67913SOL     OW14052  12.471   9.264  10.858  0.0945  0.6798 -0.4282
67913SOL    HW114053  12.516   9.345  10.834 -0.4355  0.9954 -0.3809
67913SOL    HW214054  12.390   9.266  10.807 -0.1560  0.4241 -0.0417
67914SOL     OW14055   2.318   3.047   5.236 -0.1904  0.2495  0.1263
67914SOL    HW114056   2.276   3.055   5.322 -0.7532  0.4280 -0.1601
67914SOL    HW214057   2.255   3.086   5.175  0.5711  0.8980 -0.2571
67915SOL     OW14058   0.162  12.726  10.134  0.0853 -0.4911 -0.2701
67915SOL    HW114059   0.220  12.770  10.072  1.3055 -0.6766  0.6944
67915SOL    HW214060   0.211  12.648  10.160 -0.3153 -0.3113  1.0717
67916SOL     OW14061   8.178   6.202   4.101  0.1165  0.0009 -0.6240
67916SOL    HW114062   8.147   6.135   4.040  0.1628  0.4093 -1.0956
67916SOL    HW214063   8.099   6.233   4.145  0.1021 -0.4068 -0.3548
67917SOL     OW14064  10.740   3.313   8.638 -0.2656  0.1353  0.1325
67917SOL    HW114065  10.659   3.288   8.595 -0.2558  0.0297  0.1752
67917SOL    HW214066  10.752   3.248   8.707  1.3174 -1.5556 -1.6051
67918SOL     OW14067   2.444   2.318   6.857 -0.7529 -0.0208  0.6759
67918SOL    HW114068   2.452   2.238   6.804 -1.1365  1.2232 -1.4014
67918SOL    HW214069   2.498   2.301   6.934 -1.0555 -2.3789  0.4470
67919SOL     OW14070   0.562   5.115   6.830  0.4276  0.0442 -0.3047
67919SOL    HW114071   0.547   5.137   6.922 -1.0914  0.1355 -0.5595
67919SOL    HW214072   0.565   5.199   6.785  1.2031  0.0019 -0.3490
67920SOL     OW14073  10.865   0.242   8.201 -0.2552  0.1026 -0.0786
67920SOL    HW114074  10.860   0.176   8.132 -1.5016 -0.6257  0.6759
67920SOL    HW214075  10.926   0.204   8.264  0.5981  0.6032 -0.5841
67921SOL     OW14076   4.056  11.770  11.418 -0.1719 -0.2525 -0.0626
67921SOL    HW114077   4.052  11.830  11.344 -0.7555 -1.5463 -1.1220
67921SOL    HW214078   3.967  11.768  11.452 -0.6476 -2.0147 -1.3055
67922SOL     OW14079  12.101   1.152   0.048 -0.1117  0.3814  0.9810
67922SOL    HW114080  12.007   1.157   0.065 -0.6403 -0.5941 -1.3200
67922SOL    HW214081  12.133   1.090   0.114 -1.0881  0.5526  1.6487
67923SOL     OW14082   9.874   6.102   1.048 -0.1991  0.4884 -0.1972
67923SOL    HW114083   9.819   6.041   1.095  0.5228  0.8941  1.2237
67923SOL    HW214084   9.930   6.047   0.993  1.4882 -0.3185  2.1651
67924SOL     OW14085   3.368   4.896  12.089  0.1406  0.1019 -0.6906
67924SOL    HW114086   3.333   4.835  12.024  0.0740  0.9303 -1.4537
67924SOL    HW214087   3.335   4.981  12.061 -1.3106  0.2778  1.4049
67925SOL     OW14088   6.245   2.296   6.736  0.4215  0.0133 -0.3019
67925SOL    HW114089   6.289   2.211   6.721  0.7763  0.4016 -1.6329
67925SOL    HW214090   6.154   2.279   6.714  0.5571  0.0491 -0.9240
67926SOL     OW14091   2.919   4.234   4.571 -0.8821 -0.1234  0.3537
67926SOL    HW114092   2.933   4.202   4.660 -1.4597  0.9790  0.8626
67926SOL    HW214093   2.838   4.190   4.542 -1.7255  0.9049  1.0842
67927SOL     OW14094   6.982   0.284   4.280  0.3232 -0.4124 -0.2565
67927SOL    HW114095   6.970   0.253   4.370  0.0969 -2.5244 -0.9599
67927SOL    HW214096   7.065   0.244   4.252 -0.1575 -0.6891 -1.3388
67928SOL     OW14097   1.962   8.815  11.773 -0.1651  0.1098 -0.0244
67928SOL    HW114098   2.004   8.759  11.708 -0.5821 -0.1547 -0.0686
67928SOL    HW214099   2.006   8.793  11.856 -1.4842 -1.5582  0.2914
67929SOL     OW14100   5.678   4.146   1.858  0.3465  0.7131  0.2619
67929SOL    HW114101   5.697   4.230   1.900  2.3419  0.0486  0.7846
67929SOL    HW214102   5.720   4.152   1.772 -0.9744  0.8546 -0.4004
67930SOL     OW14103  11.115   2.892   5.185  0.1350 -0.4833  0.4945
67930SOL    HW114104  11.189   2.833   5.198  2.6230  2.7638  2.7698
67930SOL    HW214105  11.152   2.967   5.139 -1.9365  0.8784  0.9043
67931SOL     OW14106   9.211   2.494   3.690  0.3284 -0.2336 -0.4067
67931SOL    HW114107   9.186   2.403   3.703 -0.4785 -0.0076 -0.3134
67931SOL    HW214108   9.132   2.536   3.655  0.2357  0.7299  0.8939
67932SOL     OW14109   5.290   0.047   2.823  0.2313  0.7848 -0.1937
67932SOL    HW114110   5.281   0.059   2.918  0.5661  2.9369 -0.3869
67932SOL    HW214111   5.378   0.080   2.803  1.0232 -1.6148 -1.0043
67933SOL     OW14112   7.106  12.753   2.538 -0.0862 -0.5545 -0.9456
67933SOL    HW114113   7.062  12.837   2.549  0.1010 -0.5940  0.2869
67933SOL    HW214114   7.046  12.689   2.578  0.0501 -0.9216 -1.3196
67934SOL     OW14115   4.379   5.390   2.421  0.2474  0.0259  0.9391
67934SOL    HW114116   4.400   5.297   2.420 -2.2782 -0.6421  2.7131
67934SOL    HW214117   4.436   5.427   2.488  0.4891 -0.4462  0.9941
67935SOL     OW14118   9.145   5.234   7.946 -0.5721  0.4896  0.1015
67935SOL    HW114119   9.150   5.235   7.850 -0.2260 -2.8500 -0.0370
67935SOL    HW214120   9.227   5.193   7.973 -0.3906  1.9323  1.9307
67936SOL     OW14121   9.921   7.365   0.169 -0.2730  0.4140 -0.2689
67936SOL    HW114122   9.895   7.428   0.237 -0.6749  1.2329 -1.1506
67936SOL    HW214123   9.922   7.417   0.088  0.7871 -0.4042 -0.7961
67937SOL     OW14124   8.963   3.433  11.598 -0.0825  0.7459  0.0838
67937SOL    HW114125   9.017   3.364  11.560  0.8396  1.9503 -0.8917
67937SOL    HW214126   8.873   3.403  11.586  0.3021 -1.5449  2.1957
67938SOL     OW14127   9.764   7.472   8.117  0.3007  0.7739 -0.1074
67938SOL    HW114128   9.821   7.547   8.133 -0.5441  1.1030  1.6459
67938SOL    HW214129   9.710   7.466   8.196  0.0899 -1.4564 -0.3621
67939SOL     OW14130  11.986   5.105   0.339 -0.0218  0.1425 -0.4797
67939SOL    HW114131  12.002   5.056   0.258 -0.4312 -3.9220  1.6269
67939SOL    HW214132  11.891   5.117   0.342 -0.6689 -3.6888  1.1473
67940SOL     OW14133   4.908   2.969   0.644 -0.1368 -0.2797  0.1213
67940SOL    HW114134   4.821   2.929   0.643 -0.2313 -0.2245  2.0624
67940SOL    HW214135   4.896   3.053   0.600 -1.1309 -0.1699  0.5669
67941SOL     OW14136   5.564   4.947   5.815  0.4330  0.6792  0.4254
67941SOL    HW114137   5.622   4.982   5.749  0.6050 -1.5932 -0.7269
67941SOL    HW214138   5.619   4.889   5.867 -0.6494 -1.2924 -0.5097
67942SOL     OW14139   9.430   8.057  10.134 -0.3928 -0.7274 -0.0639
67942SOL    HW114140   9.382   7.993  10.186 -1.9212  1.0987  0.8994
67942SOL    HW214141   9.449   8.128  10.196 -1.7797  1.2721 -1.7931
67943SOL     OW14142   2.983   3.680   1.543  0.0321 -0.1644  0.4665
67943SOL    HW114143   2.938   3.656   1.624 -0.5744  0.0352  0.1955
67943SOL    HW214144   3.028   3.762   1.563 -1.7895  0.9950  0.0358
67944SOL     OW14145  10.250   7.884   3.656  0.1534  0.2198 -0.3577
67944SOL    HW114146  10.206   7.808   3.618  3.2315 -1.0486 -1.6410
67944SOL    HW214147  10.257   7.864   3.749 -0.4268 -0.3426 -0.4280
67945SOL     OW14148  10.797   9.199   6.343  0.3702 -0.9973  0.2709
67945SOL    HW114149  10.867   9.263   6.361  0.3481 -0.9226  0.0943
67945SOL    HW214150  10.758   9.182   6.429 -1.5797  1.4706  0.0142
67946SOL     OW14151   6.463   0.884  12.079  0.0210 -0.0203 -0.2975
67946SOL    HW114152   6.424   0.912  12.162  0.7115 -3.3443  1.3400
67946SOL    HW214153   6.390   0.884  12.017 -1.1261  0.1258  0.9965
67947SOL     OW14154   8.377   1.244   0.475  0.4896 -0.0444 -0.4663
67947SOL    HW114155   8.295   1.279   0.439 -0.3210 -0.3658  1.0168
67947SOL    HW214156   8.445   1.278   0.416 -0.6365  0.8070 -1.3185
67948SOL     OW14157  10.347  12.382   5.680 -0.0844  0.3321  0.1164
67948SOL    HW114158  10.297  12.301   5.674  0.8246 -0.2877  0.7793
67948SOL    HW214159  10.380  12.396   5.591 -0.0014 -0.1731  0.0680
67949SOL     OW14160  12.896   3.839   2.518  0.1090  0.4875  0.4240
67949SOL    HW114161  12.926   3.794   2.596  0.4862  0.3488  0.2000
67949SOL    HW214162  12.974   3.883   2.484  0.4954 -1.2902 -1.1361
67950SOL     OW14163  11.413   1.372  10.955  0.5245 -0.5969  0.4318
67950SOL    HW114164  11.437   1.385  10.863 -1.0608 -0.9793 -0.0652
67950SOL    HW214165  11.327   1.413  10.964  0.2730 -1.3135  1.5325
67951SOL     OW14166   5.106  11.461   3.212  0.1333 -0.8357 -0.1392
67951SOL    HW114167   5.163  11.387   3.191 -2.4125 -3.1810  0.7247
67951SOL    HW214168   5.074  11.442   3.301 -0.6390  1.3023  0.0999
67952SOL     OW14169  10.213   4.466   8.829  0.3250 -0.3968  0.0778
67952SOL    HW114170  10.302   4.461   8.863  0.6220 -0.1348 -0.6572
67952SOL    HW214171  10.158   4.465   8.908  0.9748 -0.4432  0.5399
67953SOL     OW14172   3.513  12.053   8.762  0.1373 -0.1641  0.2815
67953SOL    HW114173   3.547  12.131   8.717  0.8432 -0.6566 -0.0560
67953SOL    HW214174   3.560  12.052   8.846 -0.2513  0.0566  0.5033
67954SOL     OW14175  12.664   8.231  10.117  0.0726  0.7445 -0.2684
67954SOL    HW114176  12.669   8.175  10.194 -0.7849  1.3499  0.2449
67954SOL    HW214177  12.704   8.180  10.047 -1.8902 -1.0802 -0.1500
67955SOL     OW14178  10.153  10.019   2.945  0.2791  0.0767  0.6975
67955SOL    HW114179  10.063  10.020   2.979 -0.2082  3.2211 -0.3593
67955SOL    HW214180  10.205  10.062   3.012  0.7344 -0.4119  0.6614
67956SOL     OW14181  10.489   1.647   3.967  0.5596 -0.1833 -0.2092
67956SOL    HW114182  10.397   1.671   3.982  0.5663 -1.4585  2.3340
67956SOL    HW214183  10.492   1.553   3.981  2.0246 -0.4238 -1.7922
67957SOL     OW14184   7.980   8.028   5.737  0.4078  0.0555  0.2390
67957SOL    HW114185   8.061   8.044   5.688  0.7760 -1.6481  0.2483
67957SOL    HW214186   7.912   8.024   5.670 -0.2777  4.3404  0.3867
67958SOL     OW14187  11.190   2.782  10.126  0.4024  0.7228 -0.3315
67958SOL    HW114188  11.113   2.766  10.072  0.7718  0.1045 -0.6820
67958SOL    HW214189  11.246   2.705  10.113  1.5892  1.6447 -0.9476
67959SOL     OW14190   9.251   5.879  12.297  0.0199 -0.2629  0.2160
67959SOL    HW114191   9.194   5.830  12.357  0.1379 -0.8584 -0.1422
67959SOL    HW214192   9.269   5.817  12.226 -0.1102  0.4312 -0.4272
67960SOL     OW14193   1.940   2.810  12.397  0.5407 -0.2214 -0.2777
67960SOL    HW114194   1.857   2.804  12.445  1.4530 -2.4829  1.1996
67960SOL    HW214195   1.973   2.720  12.394  2.2164  0.3733 -2.2024
67961SOL     OW14196   7.847   5.624   7.376  0.1490  0.6270  0.3067
67961SOL    HW114197   7.898   5.697   7.341  0.8288 -0.0819 -0.2268
67961SOL    HW214198   7.785   5.665   7.436 -0.1323  1.7450 -0.7010
67962SOL     OW14199  11.385   8.111  11.581  0.0943 -0.4023  0.1352
67962SOL    HW114200  11.322   8.058  11.629  0.8375 -0.9762  0.4895
67962SOL    HW214201  11.406   8.060  11.503 -0.7717  0.3277 -0.5989
67963SOL     OW14202   8.695  12.658   6.839  0.7360  0.2542  0.5907
67963SOL    HW114203   8.671  12.588   6.900  0.5217 -0.8583 -0.7300
67963SOL    HW214204   8.790  12.665   6.846  1.0712 -1.8955 -1.0236
67964SOL     OW14205   2.502   0.525   3.929  0.2723  0.3284 -0.1846
67964SOL    HW114206   2.593   0.504   3.907 -0.1027 -0.3703 -1.1591
67964SOL    HW214207   2.455   0.444   3.911 -0.6046  0.8117 -0.0879
67965SOL     OW14208  10.493  10.195   9.591 -0.3591  0.0555 -0.4769
67965SOL    HW114209  10.464  10.269   9.537  1.1480  0.6346 -0.5412
67965SOL    HW214210  10.482  10.119   9.535 -1.4880  0.2732 -0.5772
67966SOL     OW14211   1.270  10.676  12.453  0.2116  0.5365  0.4106
67966SOL    HW114212   1.266  10.589  12.416 -1.6132  0.9317 -0.4262
67966SOL    HW214213   1.229  10.667  12.539  1.3702  0.3016  0.9589
67967SOL     OW14214   4.667   5.164   3.157  0.5164  0.3927 -0.5224
67967SOL    HW114215   4.582   5.160   3.113  0.3318 -0.2710 -0.1161
67967SOL    HW214216   4.683   5.258   3.168 -1.0670  0.5368  1.1114
67968SOL     OW14217  10.776   1.184  10.063 -0.0988  0.4084  0.3702
67968SOL    HW114218  10.715   1.116  10.092 -2.5893  1.7563 -1.3998
67968SOL    HW214219  10.854   1.135  10.037 -1.0791 -1.5890  0.9308
67969SOL     OW14220   7.075  10.628   0.976  0.3220 -0.2483 -0.4029
67969SOL    HW114221   7.142  10.645   0.910 -0.2880 -0.1124 -0.9954
67969SOL    HW214222   7.032  10.712   0.990  1.2117 -0.0170  1.0352
67970SOL     OW14223  11.429   5.018  12.827  0.0606  0.3518  0.5418
67970SOL    HW114224  11.340   4.984  12.828 -0.6160  1.8476 -1.4924
67970SOL    HW214225  11.468   4.986  12.908 -2.5470  0.2792  1.8642
67971SOL     OW14226   1.190   5.597   8.004  0.1323  0.5511  0.0060
67971SOL    HW114227   1.159   5.654   7.934 -2.5540  0.2155  0.7780
67971SOL    HW214228   1.281   5.622   8.018 -0.3133  3.1480 -1.1278
67972SOL     OW14229   6.141   5.554   1.897 -0.3797  0.0561  0.4946
67972SOL    HW114230   6.141   5.616   1.970  0.5691  0.0422  0.5234
67972SOL    HW214231   6.123   5.607   1.820 -1.9951 -0.0173  0.7782
67973SOL     OW14232   1.042   7.318  12.385  0.5925  0.4366  0.6884
67973SOL    HW114233   0.997   7.265  12.319  2.6562  0.2755 -0.6890
67973SOL    HW214234   0.979   7.385  12.410 -0.0180  0.9854 -2.0668
67974SOL     OW14235   0.757   8.495   9.787 -0.5290 -0.5941  0.5182
67974SOL    HW114236   0.687   8.448   9.832 -1.6456 -1.4016 -1.8872
67974SOL    HW214237   0.815   8.427   9.754  0.7304  0.0210  1.3497
67975SOL     OW14238   3.364   9.922   1.328  0.3695 -0.2128  0.4431
67975SOL    HW114239   3.287   9.869   1.306  1.5825 -2.2488  0.8248
67975SOL    HW214240   3.333   9.985   1.392 -0.9034 -1.2826  0.9168
67976SOL     OW14241  12.723   8.647   5.599 -0.1900 -0.3214  0.0772
67976SOL    HW114242  12.736   8.611   5.511 -0.5886 -0.2461 -0.0155
67976SOL    HW214243  12.711   8.570   5.655  1.3910 -0.4471  0.3126
67977SOL     OW14244   2.289   9.365   4.152  0.2959  0.1259  0.5575
67977SOL    HW114245   2.229   9.363   4.227  1.1060  0.1227  1.2171
67977SOL    HW214246   2.339   9.283   4.159  0.7135  0.3533  0.2928
67978SOL     OW14247   8.270   8.679   6.435 -0.2872 -0.0721 -0.1615
67978SOL    HW114248   8.290   8.748   6.371  0.1552 -0.0563 -0.0106
67978SOL    HW214249   8.355   8.638   6.453 -0.2133  0.6507  1.2654
67979SOL     OW14250   9.345   1.309   0.891  0.0549 -0.5261  1.1479
67979SOL    HW114251   9.313   1.224   0.861 -0.1193  0.1149 -0.5787
67979SOL    HW214252   9.308   1.372   0.829  1.1176  0.6944  1.7049
67980SOL     OW14253  10.080   3.973   3.173  0.1680 -0.1304 -0.8346
67980SOL    HW114254  10.131   4.046   3.138  2.0849 -1.4572 -0.9404
67980SOL    HW214255  10.118   3.895   3.132 -2.2632 -1.1987 -1.2792
67981SOL     OW14256   4.683   8.228   8.384 -0.1588  0.0472  0.2660
67981SOL    HW114257   4.765   8.275   8.395 -0.1769  0.4004 -0.9975
67981SOL    HW214258   4.637   8.275   8.315 -1.3425 -0.2680  0.8179
67982SOL     OW14259   8.904   1.585   9.852 -0.3863  0.0253 -0.1495
67982SOL    HW114260   8.911   1.680   9.850 -2.4946  0.2677  1.4574
67982SOL    HW214261   8.812   1.567   9.833 -0.4427 -1.5772  1.4198
67983SOL     OW14262   7.967  10.774   6.178 -0.0166  0.0914 -0.2256
67983SOL    HW114263   7.967  10.682   6.153  0.1853 -0.1312  0.5577
67983SOL    HW214264   7.954  10.822   6.096 -0.1807 -0.6346 -0.6256
67984SOL     OW14265  11.787  12.327   5.084 -0.0601 -0.2325  0.4046
67984SOL    HW114266  11.838  12.392   5.133 -0.1365  0.5985 -0.5814
67984SOL    HW214267  11.696  12.348   5.104 -0.0756 -0.2690  0.3716
67985SOL     OW14268   5.340   7.023   4.668  0.5734  0.1995  0.0178
67985SOL    HW114269   5.340   6.975   4.585  1.9446  0.5465 -0.2181
67985SOL    HW214270   5.394   7.101   4.651 -2.6320  2.6221 -0.0135
67986SOL     OW14271   1.128   7.141   1.530 -0.2539  0.6349  0.1967
67986SOL    HW114272   1.143   7.236   1.535 -0.1238  0.5435  2.1706
67986SOL    HW214273   1.041   7.128   1.568 -0.3594 -0.0419 -0.2502
67987SOL     OW14274  12.297   5.481   2.249  0.3435 -0.1138 -0.2064
67987SOL    HW114275  12.298   5.577   2.239  1.9663 -0.0774  0.0167
67987SOL    HW214276  12.226   5.465   2.312  0.4872  1.0015  0.2749
67988SOL     OW14277  10.729   0.784   4.833 -0.0452  0.2864  0.4874
67988SOL    HW114278  10.713   0.762   4.925  0.5523 -1.6457  0.1614
67988SOL    HW214279  10.650   0.756   4.787  0.3264 -0.3010  0.1974
67989SOL     OW14280   1.004  10.511  12.138  0.2079 -0.5432 -0.0965
67989SOL    HW114281   0.946  10.539  12.067  1.1181 -0.2709 -0.7434
67989SOL    HW214282   0.964  10.430  12.171 -0.8137 -0.0925 -0.1843
67990SOL     OW14283   4.902   5.759   0.630  0.0804  0.2855 -0.0358
67990SOL    HW114284   4.922   5.788   0.719  0.9863 -0.4583  0.0201
67990SOL    HW214285   4.922   5.835   0.574  1.7204  0.0584  0.1779
67991SOL     OW14286   2.706   4.673   6.789  0.1405  0.9798 -0.4117
67991SOL    HW114287   2.712   4.587   6.747 -0.4180  0.3927  0.6737
67991SOL    HW214288   2.685   4.733   6.717  0.5270  0.2078 -1.1795
67992SOL     OW14289   5.438  12.140   7.927  0.1309  0.4671 -0.7331
67992SOL    HW114290   5.461  12.190   8.005 -1.7589 -0.0857  0.2475
67992SOL    HW214291   5.487  12.181   7.857  1.8698  1.0132  0.7235
67993SOL     OW14292   1.192   2.250   5.825 -0.3480  0.3380  0.1913
67993SOL    HW114293   1.234   2.225   5.743  1.2056 -0.0830  1.0779
67993SOL    HW214294   1.112   2.198   5.829  0.9465 -1.7367  0.2307
67994SOL     OW14295   7.500   4.981   4.555  0.0054 -0.0828  0.1582
67994SOL    HW114296   7.565   5.043   4.522  0.2761 -0.9660 -1.0071
67994SOL    HW214297   7.420   5.003   4.507 -0.0570 -0.2582  0.1829
67995SOL     OW14298   1.281   7.281  12.612 -0.3357 -0.9005  0.0726
67995SOL    HW114299   1.232   7.313  12.688 -0.3222  1.1484 -0.7454
67995SOL    HW214300   1.214   7.259  12.547 -0.2550  0.0611 -0.3445
67996SOL     OW14301   0.696  10.537   8.191 -0.5445  0.2443  0.3399
67996SOL    HW114302   0.778  10.571   8.227 -0.3995  0.7881 -0.4633
67996SOL    HW214303   0.688  10.449   8.226  0.7217 -0.0583 -0.0905
67997SOL     OW14304   0.600   1.607  10.739  0.4308  0.3205  0.0455
67997SOL    HW114305   0.687   1.628  10.706 -0.1527  0.0141 -1.7649
67997SOL    HW214306   0.549   1.687  10.722 -0.0502 -0.0872 -0.4475
67998SOL     OW14307   3.873   3.782   9.352  0.0106 -0.9909 -0.0758
67998SOL    HW114308   3.778   3.774   9.354 -0.0418 -0.5966 -0.7099
67998SOL    HW214309   3.905   3.692   9.358 -0.4219 -1.1937 -0.7240
67999SOL     OW14310  12.913   1.641   3.050  0.2651 -0.2181  0.0738
67999SOL    HW114311  13.001   1.658   3.083  0.3551 -0.7140  0.0993
67999SOL    HW214312  12.924   1.570   2.987 -0.3820 -1.6939  1.5324
68000SOL     OW14313  10.876  12.207   2.538  0.2603 -0.0501 -0.2038
68000SOL    HW114314  10.911  12.235   2.622  1.6571  0.6996 -0.9997
68000SOL    HW214315  10.881  12.111   2.540  0.0009 -0.0518  0.6570
68001SOL     OW14316   9.903  10.012   2.314  0.5023 -0.0616  0.2081
68001SOL    HW114317   9.966  10.024   2.385  0.3738  1.6636  0.0621
68001SOL    HW214318   9.957   9.993   2.237  0.7828  0.2883  0.3173
68002SOL     OW14319   2.182   7.614  10.719  0.7068 -0.7166 -0.1239
68002SOL    HW114320   2.211   7.676  10.652  0.2733  0.1769  0.4907
68002SOL    HW214321   2.100   7.580  10.685 -0.0269  0.4807  0.3717
68003SOL     OW14322   3.750   5.929  11.597 -0.7716 -0.1916  0.5501
68003SOL    HW114323   3.792   5.880  11.527 -0.5634  1.5091 -0.5836
68003SOL    HW214324   3.666   5.884  11.611 -1.0240 -0.3250 -1.1238
68004SOL     OW14325   3.028   4.359   9.069 -0.0848  0.1175 -0.4605
68004SOL    HW114326   3.093   4.429   9.061  0.6483 -0.5459 -0.4173
68004SOL    HW214327   3.057   4.293   9.006 -0.1259 -0.6316  0.2957
68005SOL     OW14328   2.755   3.718   0.133  0.5136 -0.0441 -0.3707
68005SOL    HW114329   2.691   3.653   0.160  0.4048 -0.5744 -1.8543
68005SOL    HW214330   2.839   3.673   0.138  0.3703 -0.5712 -2.0933
68006SOL     OW14331   9.651  12.755   0.141 -0.4304  0.3469 -0.4313
68006SOL    HW114332   9.656  12.846   0.169 -2.3514  0.5373 -0.5740
68006SOL    HW214333   9.702  12.707   0.207  0.7657  1.5215 -0.4708
68007SOL     OW14334   3.697  11.928   2.359  0.1244  0.4493 -0.7656
68007SOL    HW114335   3.684  11.854   2.299 -2.6000  0.6522 -0.5562
68007SOL    HW214336   3.664  11.897   2.443 -1.8522  2.0665 -0.8514
68008SOL     OW14337   0.038  12.713   9.815 -0.4557  0.0533 -0.0897
68008SOL    HW114338   0.014  12.656   9.889  0.8779 -0.7312 -0.2278
68008SOL    HW214339  -0.013  12.792   9.828 -1.1834 -0.5685  0.9850
68009SOL     OW14340   9.849  10.713   6.062  0.3610 -0.5390 -0.4769
68009SOL    HW114341   9.821  10.781   6.123  1.7739 -0.8733  0.5940
68009SOL    HW214342   9.847  10.632   6.113 -1.0043 -1.2834 -1.6475
68010SOL     OW14343   5.091  10.297   4.781  0.3376  0.3625 -0.0577
68010SOL    HW114344   5.021  10.326   4.839  0.0259 -0.6578  0.0954
68010SOL    HW214345   5.161  10.270   4.840  1.4616  2.7009 -0.2128
68011SOL     OW14346  10.306   6.308   2.328  0.1942 -0.2691 -0.3034
68011SOL    HW114347  10.367   6.350   2.267 -1.9878 -1.5711 -3.6631
68011SOL    HW214348  10.328   6.215   2.324 -0.4623 -0.4568  0.3109
68012SOL     OW14349   0.094   9.735   6.835 -0.3104 -0.2053  0.4622
68012SOL    HW114350   0.016   9.736   6.890 -0.7803 -2.0847 -0.1017
68012SOL    HW214351   0.154   9.675   6.879  0.8128  1.1589  0.8403
68013SOL     OW14352   0.195   1.933   4.996  0.3861 -0.8739 -0.0383
68013SOL    HW114353   0.101   1.929   4.981 -0.2563  2.3627  2.2097
68013SOL    HW214354   0.212   1.862   5.059 -0.6422 -1.1416 -0.0526
68014SOL     OW14355   0.240   4.691   1.454  0.6861  0.0960  0.0637
68014SOL    HW114356   0.303   4.697   1.526 -1.4521  2.8212  1.9108
68014SOL    HW214357   0.158   4.726   1.491 -1.0424 -0.2080 -3.1643
68015SOL     OW14358   8.471   3.315   8.692 -0.3418 -0.4514  0.0735
68015SOL    HW114359   8.566   3.326   8.685 -0.0344 -2.5295  0.2698
68015SOL    HW214360   8.437   3.346   8.608  0.7450 -1.6291 -0.8394
68016SOL     OW14361   6.580   9.782   5.108  0.0706 -0.2848  0.2037
68016SOL    HW114362   6.520   9.776   5.183  0.3970 -0.3624  0.4605
68016SOL    HW214363   6.590   9.692   5.078  0.7740 -0.3954  0.7345
68017SOL     OW14364   9.629   2.316   6.288  0.0001 -0.2947 -0.1321
68017SOL    HW114365   9.621   2.256   6.214  1.6017  0.5093 -1.0181
68017SOL    HW214366   9.657   2.260   6.361  3.5910 -0.4630 -1.4561
68018SOL     OW14367  10.118   3.073   6.106 -0.9790 -0.3404  0.3241
68018SOL    HW114368  10.153   3.139   6.047 -0.5008 -1.3286 -0.5231
68018SOL    HW214369  10.028   3.101   6.122 -0.3110  1.3714  1.2819
68019SOL     OW14370   3.625  10.083   1.331 -0.1810 -0.7827  0.0492
68019SOL    HW114371   3.592  10.115   1.415 -0.3612 -2.0415  0.4841
68019SOL    HW214372   3.590   9.994   1.324 -0.7440 -0.4614 -1.7002
68020SOL     OW14373   8.539   9.486   4.570 -0.3156 -0.3558 -0.5705
68020SOL    HW114374   8.601   9.559   4.568 -2.0444  1.1985 -2.8444
68020SOL    HW214375   8.564   9.432   4.495 -1.5831  0.2349 -1.4510
68021SOL     OW14376   1.452   5.161   6.243 -0.1674  0.3121  0.3613
68021SOL    HW114377   1.451   5.077   6.289  1.9243  0.3258  0.5299
68021SOL    HW214378   1.429   5.226   6.310  0.6650  0.1052  0.8637
68022SOL     OW14379   5.178   1.652  10.657  0.3142  0.0549  0.0369
68022SOL    HW114380   5.257   1.606  10.628  1.2674  0.7616  1.3613
68022SOL    HW214381   5.184   1.738  10.616 -0.6136 -0.4109 -1.1210
68023SOL     OW14382   1.936   5.539   9.766 -0.3584  0.2599 -0.3046
68023SOL    HW114383   1.870   5.517   9.700  0.5947  0.3205 -1.3079
68023SOL    HW214384   1.965   5.454   9.800 -1.4244  0.2525  0.6525
68024SOL     OW14385   1.607   3.802   1.877  0.0798  0.3681 -0.1071
68024SOL    HW114386   1.587   3.848   1.959 -1.0832  1.5582 -1.0268
68024SOL    HW214387   1.654   3.723   1.905  1.5895  1.7750  1.5666
68025SOL     OW14388   2.866   2.954   6.250 -0.4958 -0.4417 -0.3687
68025SOL    HW114389   2.958   2.973   6.234  0.0761 -1.9852  0.8272
68025SOL    HW214390   2.843   2.887   6.185  0.0370 -2.0470  1.0257
68026SOL     OW14391   4.538  10.888   5.805  0.1725 -0.3489  0.2839
68026SOL    HW114392   4.621  10.912   5.764 -0.2787  0.6033 -0.1122
68026SOL    HW214393   4.501  10.971   5.835 -2.1070 -0.2437 -2.3944
68027SOL     OW14394   6.972   6.125   6.012  0.0993 -1.1434 -0.0035
68027SOL    HW114395   7.051   6.165   6.048 -0.5656 -1.4378  1.9070
68027SOL    HW214396   6.951   6.177   5.935  0.6914  0.5987  0.9579
68028SOL     OW14397   7.601  10.439  11.648 -0.0061  0.1393  0.4338
68028SOL    HW114398   7.552  10.462  11.569 -0.7028 -1.4281  0.3754
68028SOL    HW214399   7.535  10.406  11.709  0.9533 -2.7497  0.0727
68029SOL     OW14400   6.273   7.189   9.150 -0.4966  0.1535 -0.0514
68029SOL    HW114401   6.306   7.165   9.063  0.3442 -2.5534  0.9141
68029SOL    HW214402   6.200   7.130   9.165 -1.8751  1.8866  0.3759
68030SOL     OW14403   0.368   5.653   2.265 -0.1997  0.4551 -0.1996
68030SOL    HW114404   0.451   5.682   2.302  0.4761 -2.4064  0.7890
68030SOL    HW214405   0.303   5.674   2.332  0.1763  0.2397  0.2370
68031SOL     OW14406   6.607   9.498   9.177 -0.1040 -0.6675 -0.1654
68031SOL    HW114407   6.537   9.563   9.170  0.2454 -0.1367  1.0243
68031SOL    HW214408   6.563   9.420   9.211 -0.1454 -0.3605  0.5013
68032SOL     OW14409  12.931  10.859   3.386 -0.0793  1.4236 -0.0838
68032SOL    HW114410  12.843  10.868   3.422  0.4102 -0.8736  1.9162
68032SOL    HW214411  12.950  10.765   3.392  2.3486  1.8018 -0.8744
68033SOL     OW14412   3.019  10.017  12.652 -0.1987  0.7378 -0.4179
68033SOL    HW114413   2.970  10.052  12.727  0.7183  1.9654 -0.3758
68033SOL    HW214414   3.040   9.927  12.678  1.7792  1.7093  1.6809
68034SOL     OW14415   7.179  10.999   1.990  0.1565 -0.0071 -0.2060
68034SOL    HW114416   7.245  10.940   1.954  1.9695  0.8681  1.4722
68034SOL    HW214417   7.168  11.067   1.924  0.6478 -0.3737 -0.6719
68035SOL     OW14418   0.431   7.083  11.349  0.5332 -0.1389 -0.3189
68035SOL    HW114419   0.487   7.016  11.388  1.0584  0.9761  0.9325
68035SOL    HW214420   0.343   7.061  11.379  0.4287 -1.2819 -1.4045
68036SOL     OW14421   9.526   5.894   0.500 -0.2824  0.3938  0.2453
68036SOL    HW114422   9.614   5.922   0.526  0.0982 -1.3952  1.0258
68036SOL    HW214423   9.468   5.959   0.539  0.6792  1.9891 -0.8254
68037SOL     OW14424   3.814   5.658  10.734  0.4694 -0.1836 -0.3793
68037SOL    HW114425   3.898   5.624  10.702 -0.3928 -0.1622 -2.7925
68037SOL    HW214426   3.802   5.614  10.818  3.1584  0.2701  0.3701
68038SOL     OW14427   2.058   0.818   0.004  0.4606  0.4648 -0.0894
68038SOL    HW114428   2.096   0.906  -0.003  1.1577  0.4199  2.1796
68038SOL    HW214429   1.984   0.829   0.065 -1.5938  0.0458 -2.3630
68039SOL     OW14430  12.468   6.915   8.807 -0.2827  0.1626  0.3293
68039SOL    HW114431  12.404   6.985   8.792 -0.0483  0.3624  0.2478
68039SOL    HW214432  12.547   6.961   8.836  0.4045  0.0769 -1.2889
68040SOL     OW14433   8.954   8.732  12.232 -0.0190  0.4016  0.2466
68040SOL    HW114434   8.922   8.822  12.222 -0.8971 -0.0336 -1.1310
68040SOL    HW214435   9.044   8.735  12.201 -0.2093  0.7088 -0.2938
68041SOL     OW14436   4.362   7.475   0.657  0.6570 -0.5252  0.2882
68041SOL    HW114437   4.344   7.506   0.746  1.2613  2.8739 -0.6440
68041SOL    HW214438   4.328   7.544   0.600  1.8766 -1.7502 -2.0671
68042SOL     OW14439   3.586  12.310   0.091  0.2531  0.0001 -0.1995
68042SOL    HW114440   3.540  12.379   0.044  0.1188 -0.6819 -1.0960
68042SOL    HW214441   3.517  12.258   0.132  0.2797 -0.4073 -0.6706
68043SOL     OW14442   7.908   6.658   6.653 -0.4088  0.0519 -0.1843
68043SOL    HW114443   7.919   6.564   6.640  0.6719  0.0816  0.3926
68043SOL    HW214444   7.889   6.666   6.747  0.3598  0.4624 -0.0572
68044SOL     OW14445   5.451   1.344  11.620 -0.0035 -0.0269  0.3900
68044SOL    HW114446   5.503   1.424  11.614 -2.7683  1.9434  0.4107
68044SOL    HW214447   5.474   1.305  11.704  1.1088  0.9691  0.5635
68045SOL     OW14448   4.487   3.616   3.753 -0.5471  0.0229  0.6271
68045SOL    HW114449   4.572   3.629   3.797 -1.8570  1.2955  2.9603
68045SOL    HW214450   4.429   3.585   3.822 -2.1826 -0.1088 -0.7509
68046SOL     OW14451   2.634   6.556  10.372 -0.0915 -0.2899  0.2415
68046SOL    HW114452   2.708   6.616  10.380 -0.4555  0.5021 -1.7677
68046SOL    HW214453   2.672   6.468  10.380  0.9431  0.1261 -0.0825
68047SOL     OW14454  10.675   0.955   5.869  0.4710  0.3427 -0.7127
68047SOL    HW114455  10.651   0.912   5.787 -0.3099 -0.4405 -0.0858
68047SOL    HW214456  10.769   0.937   5.878  0.4823  0.1012 -1.2409
68048SOL     OW14457   1.925  11.530  12.793  0.0259 -0.2532 -0.2183
68048SOL    HW114458   1.851  11.539  12.854 -1.6470 -0.2185 -2.1537
68048SOL    HW214459   1.914  11.443  12.755  0.0095  0.3712 -1.7003
68049SOL     OW14460   2.703   1.853  10.522 -0.4702 -0.1435 -0.3566
68049SOL    HW114461   2.690   1.759  10.534  0.7046 -0.3349 -0.5390
68049SOL    HW214462   2.669   1.892  10.603 -0.1490 -0.7918  0.0993
68050SOL     OW14463   1.036  11.389   2.954  0.3000  0.1109 -0.1634
68050SOL    HW114464   1.017  11.468   3.005  0.8018  1.1984 -1.5742
68050SOL    HW214465   0.954  11.368   2.910  0.4589  0.5192 -0.6587
68051SOL     OW14466   9.666   6.425   8.215 -0.4806 -0.1143 -0.2191
68051SOL    HW114467   9.603   6.358   8.242  0.4927 -1.0031 -0.1072
68051SOL    HW214468   9.748   6.399   8.256 -0.4182  2.0899  1.2782
68052SOL     OW14469   3.510  10.315   8.992 -0.2777  0.4180  0.3150
68052SOL    HW114470   3.433  10.372   8.986 -0.7256 -0.0286  1.5337
68052SOL    HW214471   3.572  10.366   9.045 -0.3807  0.1046  0.7414
68053SOL     OW14472   6.164  10.872   1.093 -0.4846  0.3268  0.4423
68053SOL    HW114473   6.097  10.932   1.061 -2.6706 -1.3111  1.6767
68053SOL    HW214474   6.167  10.886   1.188 -1.1885 -1.5399  0.7989
68054SOL     OW14475  10.956  11.213   0.114 -0.6640 -0.2237  0.6347
68054SOL    HW114476  10.958  11.255   0.200 -0.7278 -1.7692  1.4111
68054SOL    HW214477  11.022  11.261   0.063  0.0253  0.1322  1.8205
68055SOL     OW14478   2.366   5.897  10.957 -0.4694 -0.0197  0.7076
68055SOL    HW114479   2.357   5.992  10.952  0.2240 -0.0014 -1.1719
68055SOL    HW214480   2.402   5.872  10.871 -0.9183 -2.0028  1.0450
68056SOL     OW14481   2.799   0.385  10.725 -0.0451  0.3625  0.6621
68056SOL    HW114482   2.778   0.426  10.808  0.1753 -0.4551  1.1272
68056SOL    HW214483   2.844   0.304  10.748 -0.8000 -0.3378 -0.2277
68057SOL     OW14484   8.825   0.141  11.591 -0.1786 -0.2688  0.1111
68057SOL    HW114485   8.876   0.218  11.568 -0.2793  0.0447  0.8821
68057SOL    HW214486   8.799   0.157  11.682 -0.9814 -0.7804 -0.0196
68058SOL     OW14487   7.828   0.532   9.320 -0.4507  0.8117 -0.2109
68058SOL    HW114488   7.882   0.554   9.244 -1.7904  2.6152 -0.7126
68058SOL    HW214489   7.807   0.439   9.309  0.4992  0.7031 -1.2972
68059SOL     OW14490   4.493   9.679   2.852 -0.5388 -0.0225 -0.0689
68059SOL    HW114491   4.397   9.682   2.851 -0.6579 -2.0452 -2.0727
68059SOL    HW214492   4.518   9.745   2.916 -3.3050 -0.5910  1.7727
68060SOL     OW14493   0.365   4.233   2.969  0.3766  0.0111 -0.1194
68060SOL    HW114494   0.452   4.220   2.931  0.1823  1.0107 -0.9157
68060SOL    HW214495   0.306   4.237   2.894 -0.2124  0.4537  0.3593
68061SOL     OW14496   8.209   7.526  10.946  0.2144 -0.1568 -0.4631
68061SOL    HW114497   8.185   7.607  10.991  0.8780 -0.0736 -0.2469
68061SOL    HW214498   8.151   7.523  10.870  1.6820  1.6848 -1.7324
68062SOL     OW14499   2.253  11.142  11.708 -0.6243  0.1472  0.3754
68062SOL    HW114500   2.253  11.224  11.757 -0.6474 -0.6238  1.7245
68062SOL    HW214501   2.162  11.130  11.680 -0.5613  0.7193 -0.0958
68063SOL     OW14502   4.002   6.147   8.525  0.0728 -0.5566 -0.0536
68063SOL    HW114503   4.024   6.188   8.609 -0.7040  1.4341 -0.7673
68063SOL    HW214504   3.914   6.112   8.539 -0.4779  0.6819 -0.3201
68064SOL     OW14505   9.375   2.236   0.755  0.6695 -0.3161  0.2669
68064SOL    HW114506   9.290   2.279   0.748  1.0592  0.3199 -1.0026
68064SOL    HW214507   9.360   2.159   0.809 -0.4300  0.4782  1.1155
68065SOL     OW14508   0.360   5.957   0.211 -0.1932 -0.9413  0.3415
68065SOL    HW114509   0.386   6.029   0.269 -0.2858 -0.8359  0.2522
68065SOL    HW214510   0.330   5.888   0.271 -0.1010 -0.9072  0.4273
68066SOL     OW14511   1.191   8.793   9.918  0.3492  0.2928 -0.2295
68066SOL    HW114512   1.138   8.818   9.994 -0.7520 -0.4624 -0.7236
68066SOL    HW214513   1.216   8.877   9.878 -0.3559  0.6789  0.1093
68067SOL     OW14514   5.107  10.566  11.856 -0.2552  0.2764  0.1634
68067SOL    HW114515   5.171  10.560  11.785 -0.4706  1.7334 -0.1834
68067SOL    HW214516   5.101  10.477  11.890  0.0398 -0.4072 -1.4821
68068SOL     OW14517   5.484   2.444   1.480 -0.7026  0.6426  0.2659
68068SOL    HW114518   5.540   2.446   1.403 -0.2133  2.5788  0.6119
68068SOL    HW214519   5.485   2.534   1.513 -3.8059  0.7047  0.4645
68069SOL     OW14520   0.931   1.891   1.734  0.3249  0.1820 -0.7351
68069SOL    HW114521   0.953   1.937   1.653 -1.2879  0.6136 -0.9771
68069SOL    HW214522   0.927   1.799   1.709 -0.2046  0.3155 -1.1674
68070SOL     OW14523   0.255   8.338   2.441  0.6956 -0.2549 -0.1430
68070SOL    HW114524   0.206   8.284   2.502  1.2699  0.7152  1.2129
68070SOL    HW214525   0.195   8.351   2.367 -1.3560  1.3870  1.6975
68071SOL     OW14526   7.730   7.018   6.526 -0.2830 -0.2017  0.2670
68071SOL    HW114527   7.765   7.031   6.614 -1.6683  0.7788  0.7131
68071SOL    HW214528   7.756   7.097   6.478  0.4078 -0.7006 -0.1952
68072SOL     OW14529  10.306   7.352   8.740 -0.4084  0.3455 -0.4448
68072SOL    HW114530  10.311   7.364   8.834  1.5009 -1.8812 -0.1793
68072SOL    HW214531  10.390   7.385   8.707 -1.1992  1.4577 -1.4546
68073SOL     OW14532   5.003   0.459   5.641 -0.3357  0.6656  0.4621
68073SOL    HW114533   5.041   0.394   5.582  0.9233  0.1136  1.8393
68073SOL    HW214534   5.053   0.451   5.722 -2.2910  1.0909  1.7917
68074SOL     OW14535   0.877   0.940   6.904 -0.1191 -0.4700 -0.0836
68074SOL    HW114536   0.938   0.875   6.871  1.7912  1.2635 -0.1399
68074SOL    HW214537   0.820   0.960   6.829  2.7590  1.7990 -1.9075
68075SOL     OW14538   8.364   2.594   5.095  0.2324  0.1570  0.0896
68075SOL    HW114539   8.436   2.581   5.034  0.3118 -0.1032  0.2375
68075SOL    HW214540   8.289   2.553   5.052  0.6264 -1.4540  0.8535
68076SOL     OW14541   5.773  11.267   1.809  0.2060 -0.8306  0.0243
68076SOL    HW114542   5.855  11.296   1.770 -0.3574 -0.5764 -1.0098
68076SOL    HW214543   5.779  11.295   1.901  1.0395 -0.3444 -0.1665
68077SOL     OW14544   0.287  11.247  11.115  0.4579  0.4850 -0.0729
68077SOL    HW114545   0.358  11.190  11.086  0.8645  0.3248  1.1619
68077SOL    HW214546   0.315  11.278  11.201 -0.1202  1.9260 -0.3796
68078SOL     OW14547  10.312  10.148  12.467  0.1393 -0.2738  0.6540
68078SOL    HW114548  10.317  10.058  12.434  1.7171  0.2060 -0.5074
68078SOL    HW214549  10.255  10.193  12.406 -0.7219 -0.4845  1.2854
68079SOL     OW14550   0.386   0.098   8.102 -0.0076 -0.3631  0.0968
68079SOL    HW114551   0.404   0.017   8.148 -1.4702 -1.6833 -1.4970
68079SOL    HW214552   0.468   0.148   8.107  1.3318 -2.4565  0.0943
68080SOL     OW14553   8.577   9.912   2.943 -1.0874 -0.1242 -0.1210
68080SOL    HW114554   8.656   9.859   2.931 -0.4252  0.1605  2.3152
68080SOL    HW214555   8.522   9.891   2.868 -0.0652 -2.8275 -0.2274
68081SOL     OW14556  11.383   6.488  12.503  0.3579 -0.4190 -0.1214
68081SOL    HW114557  11.385   6.458  12.594  1.2439  0.9973  0.3557
68081SOL    HW214558  11.446   6.560  12.500 -3.4894  3.3524 -0.4704
68082SOL     OW14559   4.733  11.369   4.275  0.2829 -0.7875  0.4248
68082SOL    HW114560   4.697  11.457   4.285 -3.2450 -1.8286 -1.1929
68082SOL    HW214561   4.788  11.374   4.197  0.2372  0.0178  0.4392
68083SOL     OW14562   8.635   9.870  12.246  0.2031 -0.0568 -0.0643
68083SOL    HW114563   8.726   9.841  12.246 -0.0465 -0.8739 -0.1581
68083SOL    HW214564   8.594   9.820  12.176 -0.3586  0.1815  0.0870
68084SOL     OW14565   0.281   7.683   4.489  0.1224  0.2283 -0.1469
68084SOL    HW114566   0.238   7.717   4.410 -0.9644 -0.3155  0.1940
68084SOL    HW214567   0.374   7.702   4.475 -0.2753  2.1706 -0.5410
68085SOL     OW14568   4.086   9.428   1.494 -0.2320 -0.0379  0.0322
68085SOL    HW114569   4.050   9.455   1.410 -1.5929 -1.0588  0.2572
68085SOL    HW214570   4.162   9.374   1.472 -1.0190 -0.9187 -0.5805
68086SOL     OW14571  11.145   6.290   5.554  0.2019  0.0444 -0.0973
68086SOL    HW114572  11.238   6.307   5.542  0.5007 -3.1473 -4.3628
68086SOL    HW214573  11.141   6.208   5.602 -0.4692  0.1863  0.1068
68087SOL     OW14574   2.465   3.052   5.690 -0.0017  0.3026 -0.4392
68087SOL    HW114575   2.428   2.970   5.723  1.0766  0.1861  0.5135
68087SOL    HW214576   2.444   3.117   5.757 -0.8212  0.8286 -1.1725
68088SOL     OW14577   1.073   4.527   9.177  0.0166 -0.2827  0.2225
68088SOL    HW114578   1.151   4.523   9.232 -0.2552 -1.4934  0.5430
68088SOL    HW214579   1.051   4.436   9.159 -0.0585  0.0619 -1.6800
68089SOL     OW14580   9.562   2.246  12.683  0.5833 -0.1267  0.3915
68089SOL    HW114581   9.492   2.289  12.635  0.6550 -0.4412 -0.0031
68089SOL    HW214582   9.520   2.214  12.763  0.6577  1.1892  0.9880
68090SOL     OW14583   2.880   3.351   8.923  0.2358 -0.0185 -0.0225
68090SOL    HW114584   2.800   3.402   8.915  0.6667  0.7659  0.4982
68090SOL    HW214585   2.927   3.391   8.997  0.3738 -1.4686  0.7175
68091SOL     OW14586   8.917   3.038   6.409  0.7040 -0.3227  0.9304
68091SOL    HW114587   9.001   3.008   6.442  0.9156  1.0720  1.7670
68091SOL    HW214588   8.852   2.983   6.452  1.1680 -1.1894  0.5290
68092SOL     OW14589   9.484   1.866  10.663  0.0771 -0.3077  0.2466
68092SOL    HW114590   9.534   1.843  10.741 -1.3874 -1.0756  0.9915
68092SOL    HW214591   9.457   1.782  10.626 -1.1084  0.0950  0.1694
68093SOL     OW14592   7.610   4.489   5.286 -0.4819 -0.8584 -0.6538
68093SOL    HW114593   7.616   4.583   5.268  1.0864 -0.8520 -0.2433
68093SOL    HW214594   7.543   4.482   5.355  0.8114  0.2130  0.7874
68094SOL     OW14595   6.396   9.051   6.984 -0.1406  0.4349  0.4941
68094SOL    HW114596   6.363   9.072   6.897  1.5457  0.6264 -0.1291
68094SOL    HW214597   6.463   8.985   6.969 -0.3521 -0.0977  1.7371
68095SOL     OW14598   3.840   1.411  10.192 -0.0018  0.2264 -0.2452
68095SOL    HW114599   3.843   1.489  10.137  0.8153 -0.9622 -1.9588
68095SOL    HW214600   3.918   1.416  10.247 -0.3699  0.9782  0.2319
68096SOL     OW14601   9.181   7.247   5.453  0.2612  0.4246  0.3245
68096SOL    HW114602   9.276   7.237   5.452  0.0858 -1.6416  0.9145
68096SOL    HW214603   9.168   7.341   5.465  2.2237  0.7055  0.6621
68097SOL     OW14604   5.940  11.900   9.955 -0.3572  0.0562 -0.0147
68097SOL    HW114605   6.015  11.950   9.921 -0.4908  0.3852  0.1678
68097SOL    HW214606   5.944  11.816   9.909 -1.9190  1.3217 -2.6736
68098SOL     OW14607   4.901  10.214  12.738 -0.4545 -0.3818 -0.5861
68098SOL    HW114608   4.924  10.246  12.825 -0.4380 -0.3502 -0.6021
68098SOL    HW214609   4.825  10.266  12.712 -0.4056 -0.3292 -0.6269
68099SOL     OW14610   5.189   5.456   5.426  0.0593  0.1791  0.7113
68099SOL    HW114611   5.186   5.378   5.371 -2.4524  0.3189  0.5502
68099SOL    HW214612   5.139   5.433   5.504  2.0692  0.5867  2.2050
68100SOL     OW14613   6.265   8.114  11.088  0.1759 -0.3493 -0.0296
68100SOL    HW114614   6.203   8.109  11.160  0.5386  0.5297  0.3668
68100SOL    HW214615   6.222   8.069  11.015 -0.6555 -0.2914  0.4197
68101SOL     OW14616   4.615   8.421   7.318 -0.1904 -0.4774 -0.0008
68101SOL    HW114617   4.553   8.390   7.251  1.1865 -1.3321 -0.9177
68101SOL    HW214618   4.684   8.465   7.268  0.2278  0.0020  0.9740
68102SOL     OW14619   1.102   5.863   4.270  0.3194 -0.2495 -1.0641
68102SOL    HW114620   1.150   5.813   4.205  1.6101 -0.6843  0.1602
68102SOL    HW214621   1.167   5.925   4.305  0.8816 -2.5443  2.4483
68103SOL     OW14622   6.350   4.658   7.523  0.5861  0.1249 -0.5007
68103SOL    HW114623   6.401   4.706   7.588  1.1324  0.3415 -1.0834
68103SOL    HW214624   6.394   4.675   7.440 -0.2921  0.1164 -0.9805
68104SOL     OW14625   1.463  10.588   0.550 -0.0205 -0.5222  0.2194
68104SOL    HW114626   1.465  10.653   0.480 -0.2273 -1.0746 -0.3118
68104SOL    HW214627   1.552  10.554   0.555  0.4945  0.8935  1.5727
68105SOL     OW14628   5.062   1.520  11.723  0.1678  0.3973  0.1343
68105SOL    HW114629   5.089   1.518  11.815 -1.3816  2.3118  0.7050
68105SOL    HW214630   4.969   1.542  11.726  0.4076  1.9376 -1.9059
68106SOL     OW14631   2.977   3.684   8.853  0.1192  0.2726 -0.4181
68106SOL    HW114632   2.934   3.613   8.900  0.1326 -0.0081 -0.8196
68106SOL    HW214633   3.031   3.728   8.919 -0.3688  0.2976 -0.0303
68107SOL     OW14634  10.538  11.228   8.273  0.2465 -0.2360 -0.3194
68107SOL    HW114635  10.546  11.308   8.324  0.9541 -0.9599  0.7426
68107SOL    HW214636  10.467  11.180   8.314 -1.0499  0.3833 -1.7464
68108SOL     OW14637   2.002  12.900  12.226 -0.5183  0.2394 -0.0979
68108SOL    HW114638   2.022  12.936  12.312  0.4400  1.3826 -0.7713
68108SOL    HW214639   2.007  12.974  12.167  0.9041 -0.8521 -1.4458
68109SOL     OW14640  12.853   8.150  11.882  0.7211  0.5227  0.1444
68109SOL    HW114641  12.942   8.177  11.859  0.7837 -1.1921 -1.8476
68109SOL    HW214642  12.855   8.055  11.881 -0.9290  0.4374  1.0586
68110SOL     OW14643   9.903   2.663   8.447  0.0624 -0.6223  0.0501
68110SOL    HW114644   9.998   2.665   8.438  0.4142 -3.1172  2.0188
68110SOL    HW214645   9.874   2.595   8.386 -0.7896  1.4172 -1.9720
68111SOL     OW14646   3.531   7.413   2.723  0.9747 -0.4013 -0.1062
68111SOL    HW114647   3.541   7.453   2.810 -1.0391  0.4734 -0.2080
68111SOL    HW214648   3.501   7.324   2.741 -0.6824  0.1683  0.1491
68112SOL     OW14649   0.212   3.745  11.261 -0.1945  0.4213 -0.8946
68112SOL    HW114650   0.285   3.717  11.315  0.8877  2.4762 -1.1815
68112SOL    HW214651   0.134   3.713  11.307  0.6650  1.9578  1.8370
68113SOL     OW14652  11.604   9.824   8.927 -0.0166  0.1902 -0.4521
68113SOL    HW114653  11.659   9.788   8.858 -0.2430  0.0368 -0.5542
68113SOL    HW214654  11.600   9.755   8.994  1.5994  0.9678  0.5121
68114SOL     OW14655   0.165   4.578   8.812  0.1764  0.2620 -0.1668
68114SOL    HW114656   0.171   4.526   8.731 -0.5400 -1.8535  1.0426
68114SOL    HW214657   0.231   4.539   8.870  0.2882  1.3660  0.4682
68115SOL     OW14658   0.838  10.480   3.259  0.3149  0.6482  0.3498
68115SOL    HW114659   0.852  10.387   3.276  0.0866  0.4115 -0.6850
68115SOL    HW214660   0.834  10.487   3.164 -0.5025  1.5918  0.4337
68116SOL     OW14661  12.329   3.351   5.938  0.0241 -0.4230  0.7324
68116SOL    HW114662  12.286   3.273   5.973 -0.4289 -1.2274 -1.4271
68116SOL    HW214663  12.264   3.390   5.880  1.3176 -0.2441 -0.6604
68117SOL     OW14664   2.058   0.613   8.012 -0.1439  0.3306  0.1217
68117SOL    HW114665   1.969   0.647   7.999  0.4596  1.6037 -0.8854
68117SOL    HW214666   2.045   0.523   8.041 -1.7632  0.3725 -0.3699
68118SOL     OW14667  10.493   1.349   8.047 -0.1079 -0.1804  0.1144
68118SOL    HW114668  10.572   1.315   8.089 -1.3740 -2.9626  0.4783
68118SOL    HW214669  10.512   1.441   8.031  3.7441 -0.9804 -1.0546
68119SOL     OW14670   1.175   9.584   5.575 -0.2590 -0.0445 -0.3476
68119SOL    HW114671   1.256   9.601   5.624  0.4088 -0.9937 -1.0762
68119SOL    HW214672   1.139   9.505   5.616 -2.6074  2.1128  2.1211
68120SOL     OW14673   1.430   3.839   2.743 -0.1245 -0.2553 -0.0098
68120SOL    HW114674   1.366   3.797   2.685  0.6954 -0.0630 -1.0888
68120SOL    HW214675   1.389   3.923   2.765  0.9948  1.3647 -3.3412
68121SOL     OW14676   4.816   8.785   5.853  0.5143 -0.0692  0.7557
68121SOL    HW114677   4.885   8.752   5.795 -0.6321 -0.9755 -0.1352
68121SOL    HW214678   4.858   8.855   5.902  2.1568 -0.7716  0.4373
68122SOL     OW14679   4.369   0.317   3.648 -0.2033 -0.2722 -0.4395
68122SOL    HW114680   4.388   0.303   3.555  2.1902  2.1705 -0.4464
68122SOL    HW214681   4.453   0.306   3.692 -1.2622 -1.2439  1.4822
68123SOL     OW14682   7.025   9.539   3.466 -0.5975 -0.2929 -0.3341
68123SOL    HW114683   7.059   9.593   3.395 -2.0491  1.4810  0.2506
68123SOL    HW214684   7.091   9.545   3.535  0.7824 -1.9691 -1.4314
68124SOL     OW14685  10.287   0.403   2.171 -0.2917  0.4704 -0.0015
68124SOL    HW114686  10.287   0.328   2.230  0.8531  1.2528  1.0435
68124SOL    HW214687  10.378   0.408   2.140 -1.1036 -0.7155 -2.9437
68125SOL     OW14688   1.095   3.268  12.249  0.0995 -0.4467  0.1964
68125SOL    HW114689   1.129   3.186  12.212  1.2796 -0.0568  0.3608
68125SOL    HW214690   1.043   3.240  12.324 -1.1855 -1.1548 -0.9233
68126SOL     OW14691   8.223   2.180   4.141 -0.2451  0.5426 -0.0117
68126SOL    HW114692   8.195   2.090   4.157  0.1220  0.3839 -0.2519
68126SOL    HW214693   8.237   2.216   4.229 -1.0540  0.5826  0.1103
68127SOL     OW14694   6.228   8.357   3.751 -0.1677  0.2808  0.0930
68127SOL    HW114695   6.269   8.271   3.750  0.6735  0.6471 -1.4381
68127SOL    HW214696   6.213   8.377   3.658 -1.4174  1.2943  0.4800
68128SOL     OW14697  10.293   3.487   3.015  0.0111  0.0151 -0.2334
68128SOL    HW114698  10.371   3.541   2.997 -1.7582  2.3450 -1.5114
68128SOL    HW214699  10.286   3.430   2.938 -0.3879  0.9156 -0.8817
68129SOL     OW14700   7.051   3.205   6.246 -0.4988  0.1248 -0.2799
68129SOL    HW114701   7.125   3.144   6.251 -1.0238 -0.4807  0.3710
68129SOL    HW214702   7.035   3.231   6.336 -1.1950  0.1113 -0.3949
68130SOL     OW14703   3.979  10.525   5.816 -0.2486 -0.1212  0.0184
68130SOL    HW114704   3.950  10.546   5.904  0.9783 -1.0548  0.6807
68130SOL    HW214705   4.075  10.521   5.823 -0.1500 -0.5498 -1.2699
68131SOL     OW14706   7.836  11.859   2.484 -0.4313 -0.3026  0.1522
68131SOL    HW114707   7.748  11.836   2.513 -0.2808 -0.3063  0.6102
68131SOL    HW214708   7.840  11.830   2.393 -1.2090  0.5166 -0.1627
68132SOL     OW14709   9.961   0.733   6.210 -0.1472 -0.0866  0.2245
68132SOL    HW114710   9.875   0.691   6.206  0.4130 -1.2119 -3.1231
68132SOL    HW214711  10.023   0.664   6.189  1.2458  1.3757 -0.7592
68133SOL     OW14712   2.109   2.499   3.468 -0.1235  0.8368 -0.2865
68133SOL    HW114713   2.201   2.495   3.441 -0.4994 -0.3559 -1.5090
68133SOL    HW214714   2.105   2.442   3.545  0.0918  0.6005 -0.4468
68134SOL     OW14715   4.115   5.676   1.798 -0.0621  0.2587  0.7572
68134SOL    HW114716   4.153   5.598   1.759 -0.0045  0.0505  1.2167
68134SOL    HW214717   4.187   5.738   1.806 -0.2736  0.6621 -0.3485
68135SOL     OW14718  12.806   6.259  12.461 -0.0045 -0.1063  0.5736
68135SOL    HW114719  12.880   6.310  12.428 -1.3262  0.6083 -1.4862
68135SOL    HW214720  12.784   6.199  12.390 -2.7164  1.1769  0.2162
68136SOL     OW14721   2.104   3.462  12.481 -0.3963 -0.3095 -0.4421
68136SOL    HW114722   2.150   3.378  12.476 -0.4889 -0.4853  1.0695
68136SOL    HW214723   2.012   3.437  12.492 -0.3947 -0.0228  0.2497
68137SOL     OW14724   5.460   8.425   5.405  0.0911 -0.1571 -0.8133
68137SOL    HW114725   5.433   8.355   5.345  0.6751 -0.8135 -0.3331
68137SOL    HW214726   5.532   8.387   5.455 -1.1189 -0.0557  1.1323
68138SOL     OW14727  10.163  11.524   6.282 -0.3997  0.0846 -0.4262
68138SOL    HW114728  10.126  11.473   6.354  0.5360  0.1696  0.1409
68138SOL    HW214729  10.176  11.462   6.211 -1.2840 -0.0122 -0.5100
68139SOL     OW14730   1.939   7.336  12.302 -0.5710  0.1892  0.1846
68139SOL    HW114731   1.890   7.414  12.327 -0.6736 -0.1553  1.0727
68139SOL    HW214732   1.944   7.283  12.382  0.4091 -0.2273 -0.1307
68140SOL     OW14733   7.516   3.349   3.762 -0.6175  0.0987 -0.6074
68140SOL    HW114734   7.499   3.437   3.797  0.6647  0.4438 -0.7701
68140SOL    HW214735   7.449   3.294   3.802 -0.7436  0.9477  0.4068
68141SOL     OW14736   0.813   9.869   3.164  0.1035 -0.2550  0.1508
68141SOL    HW114737   0.781   9.942   3.217  0.4538 -0.7707  1.0856
68141SOL    HW214738   0.865   9.911   3.095 -0.7248  0.4484 -0.0683
68142SOL     OW14739  11.289   6.881   4.296  0.0185  0.3293 -0.0325
68142SOL    HW114740  11.312   6.959   4.245  0.0168 -0.1747 -0.8134
68142SOL    HW214741  11.208   6.906   4.341  1.5672  1.8366  2.1092
68143SOL     OW14742   3.557   5.589   6.726  0.4499 -0.7445 -0.7036
68143SOL    HW114743   3.473   5.549   6.704  0.1968 -0.6523  0.0737
68143SOL    HW214744   3.556   5.674   6.683 -0.0123 -0.5912 -0.3904
68144SOL     OW14745  11.575   2.797  12.944 -0.6197  0.0001 -0.3517
68144SOL    HW114746  11.528   2.879  12.930 -0.7328  0.2389  1.2388
68144SOL    HW214747  11.583   2.759  12.857 -0.2028  1.8809 -1.1833
68145SOL     OW14748  11.247   3.397   7.894  0.6338 -0.0024  0.0565
68145SOL    HW114749  11.265   3.307   7.922  1.8039 -0.3626 -1.6612
68145SOL    HW214750  11.191   3.387   7.817  0.0437  0.7855  0.3792
68146SOL     OW14751   5.723   7.309   8.963  0.4904  0.4217 -0.0229
68146SOL    HW114752   5.767   7.311   8.878  1.5751 -2.3527  0.3462
68146SOL    HW214753   5.791   7.278   9.024 -1.6780 -3.8088  0.6306
68147SOL     OW14754   5.603   4.718   8.646  0.6229  0.2180  0.0732
68147SOL    HW114755   5.563   4.632   8.636  1.5585 -0.1882 -0.2879
68147SOL    HW214756   5.591   4.739   8.739 -0.8482  0.3408 -0.1257
68148SOL     OW14757  10.595   7.927  12.360 -0.2963  0.0611 -0.0282
68148SOL    HW114758  10.531   7.978  12.410 -1.7466 -0.2036 -1.5014
68148SOL    HW214759  10.551   7.844  12.343  1.5561 -1.2768  1.2907
68149SOL     OW14760   8.172  12.932   0.965 -0.2300 -0.6542  0.7678
68149SOL    HW114761   8.181  12.841   0.936  1.8700 -0.0613 -0.7015
68149SOL    HW214762   8.109  12.970   0.904 -0.3301 -0.8760  0.7305
68150SOL     OW14763   0.867   1.581   1.888 -0.1082 -0.3727  0.9903
68150SOL    HW114764   0.893   1.582   1.796 -0.7089  0.1888  0.8217
68150SOL    HW214765   0.944   1.616   1.934 -0.2923  0.6456  0.5568
68151SOL     OW14766   4.967  12.166  12.567  0.1607  0.0255 -0.0174
68151SOL    HW114767   4.978  12.229  12.639  2.6833 -2.7363  2.3088
68151SOL    HW214768   4.884  12.124  12.585  1.1715 -1.2806  2.0130
68152SOL     OW14769   0.172   2.263   1.148  0.0700  0.8633 -0.1017
68152SOL    HW114770   0.177   2.298   1.236 -0.5473 -0.1053  0.3357
68152SOL    HW214771   0.229   2.186   1.149 -2.7851 -1.4218  0.6182
68153SOL     OW14772   4.776   0.431   9.276  0.0296 -0.7154  0.8483
68153SOL    HW114773   4.692   0.431   9.323 -0.3000 -0.7474  0.2672
68153SOL    HW214774   4.788   0.522   9.249  2.0448  0.1846  4.1556
68154SOL     OW14775   8.096   9.198  12.967 -0.0573 -0.3927 -0.8922
68154SOL    HW114776   8.149   9.274  12.988  0.6876 -0.8921 -0.9258
68154SOL    HW214777   8.042   9.183  13.045 -1.6551  1.3324 -1.6016
68155SOL     OW14778   5.224   0.858   6.738 -0.2833  0.7026 -0.4353
68155SOL    HW114779   5.304   0.891   6.699  0.4660 -1.3701 -0.7830
68155SOL    HW214780   5.158   0.865   6.668  0.2150  0.1559 -0.9707
68156SOL     OW14781   5.914  12.485   1.742 -1.0611  0.1133  0.0517
68156SOL    HW114782   5.925  12.391   1.753  1.9753  0.2142 -0.9435
68156SOL    HW214783   5.924  12.499   1.648 -1.4897  1.4135  0.1832
68157SOL     OW14784   8.893   0.438   8.622 -0.0394 -0.1201 -0.0719
68157SOL    HW114785   8.936   0.388   8.691 -0.4642 -0.5869 -0.1418
68157SOL    HW214786   8.946   0.517   8.613 -1.0780  0.9272  2.1826
68158SOL     OW14787  12.746   4.447   0.885 -0.7311 -0.5634 -0.4002
68158SOL    HW114788  12.727   4.537   0.858  0.6605  0.0380  0.5095
68158SOL    HW214789  12.662   4.414   0.918 -0.9587  0.8837  0.5641
68159SOL     OW14790  12.103  11.485  11.515  0.5401 -0.4418 -0.2072
68159SOL    HW114791  12.114  11.559  11.455 -0.6464 -0.5990 -0.6559
68159SOL    HW214792  12.066  11.524  11.594  0.9501 -0.4057 -0.0312
68160SOL     OW14793  12.977   1.430  11.558  0.2531  0.0690  0.6898
68160SOL    HW114794  12.921   1.379  11.500  3.0338  0.2998 -2.4737
68160SOL    HW214795  12.931   1.513  11.569 -0.9751 -0.4961 -0.0061
68161SOL     OW14796   6.755   2.569   0.120  0.3590  0.0937  0.4875
68161SOL    HW114797   6.785   2.523   0.042  0.4661  0.1163  0.5160
68161SOL    HW214798   6.659   2.565   0.115  0.3596 -1.0023  1.0051
68162SOL     OW14799  12.209   0.609  12.091 -0.3994  0.7056 -0.4862
68162SOL    HW114800  12.183   0.696  12.062  0.4673  0.5095 -1.9560
68162SOL    HW214801  12.150   0.590  12.164 -2.8331  1.2003 -2.1609
68163SOL     OW14802   4.284   0.637   6.103 -0.1005 -0.3967 -0.1325
68163SOL    HW114803   4.253   0.725   6.080 -1.0419 -0.6357  0.1518
68163SOL    HW214804   4.367   0.627   6.056  0.7955  1.2047  1.0321
68164SOL     OW14805   3.160  12.146   6.000  0.4500  0.0728  0.1110
68164SOL    HW114806   3.124  12.057   5.997 -1.6951  0.7078  2.5744
68164SOL    HW214807   3.235  12.139   6.059 -0.2063 -0.0180  0.9653
68165SOL     OW14808  10.684  11.495  11.363 -0.1388  0.2886  0.3329
68165SOL    HW114809  10.602  11.512  11.409 -1.5539  0.0271 -1.9677
68165SOL    HW214810  10.705  11.578  11.319 -0.3645 -0.2909 -0.8761
68166SOL     OW14811   4.273   7.753  11.108  0.0259  0.4322 -0.3490
68166SOL    HW114812   4.246   7.743  11.017  1.0499 -2.2470 -0.4325
68166SOL    HW214813   4.314   7.840  11.111  1.9465 -0.2614 -3.0058
68167SOL     OW14814  11.152  10.322   3.419 -0.6801 -0.2845  0.0938
68167SOL    HW114815  11.071  10.291   3.460  0.6379 -1.2523  2.1065
68167SOL    HW214816  11.211  10.247   3.421  1.0309  1.0086  0.7761
68168SOL     OW14817  10.080   4.863   0.081 -0.6007  0.5913 -0.0392
68168SOL    HW114818  10.099   4.955   0.063 -1.7333  1.3032  2.1413
68168SOL    HW214819  10.155   4.832   0.131  0.2701 -0.0262 -1.6435
68169SOL     OW14820   3.350   0.464   6.664 -0.4038 -0.4546 -0.2507
68169SOL    HW114821   3.396   0.381   6.674  1.8572  0.9101  1.7089
68169SOL    HW214822   3.298   0.472   6.744  1.0063  0.8692  0.5958
68170SOL     OW14823   3.617   7.659   3.740 -0.4514 -0.0183  0.3776
68170SOL    HW114824   3.574   7.600   3.678 -0.3123 -1.3680  1.4937
68170SOL    HW214825   3.572   7.642   3.823 -1.5718  2.7277  0.4506
68171SOL     OW14826   6.605   9.135  10.781  0.6106 -0.5472 -0.0221
68171SOL    HW114827   6.583   9.228  10.772  2.6533  0.1511  1.4547
68171SOL    HW214828   6.653   9.114  10.701  0.3705 -0.2580 -0.2424
68172SOL     OW14829   1.006   9.309   9.565 -0.3365  0.3970 -0.0335
68172SOL    HW114830   0.915   9.281   9.559 -0.5067  0.9809 -0.1955
68172SOL    HW214831   1.004   9.389   9.617  0.3302 -0.7394  1.8498
68173SOL     OW14832  11.422   0.683   8.989 -0.1857 -0.2686 -0.0519
68173SOL    HW114833  11.336   0.685   8.948 -0.3285 -0.9547  0.2085
68173SOL    HW214834  11.484   0.687   8.916 -0.4351  0.0543 -0.2477
68174SOL     OW14835  12.395   6.603   5.095 -0.1985  0.0872 -0.5014
68174SOL    HW114836  12.335   6.530   5.079  0.8827 -0.7687 -0.7780
68174SOL    HW214837  12.442   6.578   5.174  0.1202  0.5174 -0.5521
68175SOL     OW14838  11.132   8.178   3.944  0.6253 -0.4851  0.4648
68175SOL    HW114839  11.164   8.139   4.026  1.5741  1.4021  1.0517
68175SOL    HW214840  11.102   8.265   3.970  0.9744  0.1634 -1.2008
68176SOL     OW14841   0.508  10.862  10.200  0.0794  0.1169 -0.0660
68176SOL    HW114842   0.484  10.769  10.203  0.4388  0.0228 -0.0557
68176SOL    HW214843   0.429  10.906  10.170 -0.6403 -0.0020  1.5661
68177SOL     OW14844   4.174  11.938   3.623 -0.3845  0.3728 -0.2918
68177SOL    HW114845   4.258  11.902   3.650 -0.4269  0.5696  0.1156
68177SOL    HW214846   4.174  12.028   3.656 -0.3015  0.7322 -1.2524
68178SOL     OW14847   7.891   8.692   0.524 -0.1009 -0.0769  0.2686
68178SOL    HW114848   7.940   8.651   0.594  1.6360 -1.2849 -1.5413
68178SOL    HW214849   7.857   8.773   0.562  1.4917 -0.2593  2.2287
68179SOL     OW14850   3.465   8.653  12.117 -0.4268 -0.3160  0.2306
68179SOL    HW114851   3.403   8.691  12.180 -2.1260 -0.5926 -1.1841
68179SOL    HW214852   3.540   8.713  12.118 -1.9154  1.6620 -0.0049
68180SOL     OW14853  11.839  11.210   4.019 -0.1606 -0.1339 -0.2481
68180SOL    HW114854  11.752  11.245   4.000 -0.2493 -0.7521 -1.0500
68180SOL    HW214855  11.823  11.138   4.080 -0.2332 -0.3259 -0.4895
68181SOL     OW14856   5.763   7.145  11.767  0.0679  0.1839 -0.1068
68181SOL    HW114857   5.829   7.165  11.834  0.2796 -0.0648 -0.2411
68181SOL    HW214858   5.754   7.226  11.717  0.9304 -0.0543 -0.6556
68182SOL     OW14859   0.748   9.785   5.602  0.2722 -0.3390  0.0633
68182SOL    HW114860   0.834   9.780   5.560  0.8373 -1.3701  1.2774
68182SOL    HW214861   0.747   9.868   5.648  1.0760 -0.8262  0.9758
68183SOL     OW14862   9.681   4.688   2.391  0.2292 -0.1359 -0.0404
68183SOL    HW114863   9.715   4.633   2.462  0.0919  0.0314  0.1558
68183SOL    HW214864   9.722   4.652   2.312 -0.3193 -0.9027  0.0099
68184SOL     OW14865  12.300  10.462   5.820  0.3086 -0.1074  0.3842
68184SOL    HW114866  12.294  10.402   5.894 -0.7105  0.3015  0.6645
68184SOL    HW214867  12.257  10.416   5.748  0.2838 -0.0514  0.3634
68185SOL     OW14868   2.638   1.892   4.831  0.3423 -0.4399 -0.6950
68185SOL    HW114869   2.646   1.987   4.841  1.6240 -0.7514  1.8295
68185SOL    HW214870   2.714   1.867   4.779  0.6187 -0.2367 -0.3831
68186SOL     OW14871   7.563   5.743   3.529 -0.3950 -0.2632 -0.1351
68186SOL    HW114872   7.637   5.775   3.477 -0.0299  0.8734  1.0243
68186SOL    HW214873   7.514   5.686   3.469  1.9437 -1.8781 -0.6613
68187SOL     OW14874   1.903   4.285   5.996  0.1133  0.0205  0.3001
68187SOL    HW114875   1.851   4.214   6.034 -1.4567 -0.2682 -2.1213
68187SOL    HW214876   1.890   4.359   6.055 -2.1246 -0.4022  0.4208
68188SOL     OW14877   3.762   6.206   5.259 -0.0717 -0.1175 -0.2358
68188SOL    HW114878   3.679   6.158   5.254 -0.6701  0.8110  0.5046
68188SOL    HW214879   3.828   6.137   5.265 -1.0250 -0.9312  2.5080
68189SOL     OW14880   9.987   4.272   1.866 -0.0760  1.1142  0.4139
68189SOL    HW114881   9.937   4.240   1.941  1.9751 -1.1730  0.9220
68189SOL    HW214882  10.065   4.311   1.904  0.9363  0.0245 -0.4612
68190SOL     OW14883  12.370   8.462   3.846 -0.0697  0.6237  0.2294
68190SOL    HW114884  12.372   8.431   3.936  1.0673  0.7509  0.2661
68190SOL    HW214885  12.442   8.415   3.803 -0.5088  0.6693 -0.5710
68191SOL     OW14886   7.997   8.611   4.186 -0.2810 -0.0593  0.0030
68191SOL    HW114887   7.994   8.656   4.102  0.0042  0.2772  0.1691
68191SOL    HW214888   7.921   8.644   4.234  0.6727  1.2785  0.6329
68192SOL     OW14889   3.204   0.551   3.718  0.3255 -0.3551 -0.2500
68192SOL    HW114890   3.176   0.460   3.702  0.8327 -0.3554 -1.2383
68192SOL    HW214891   3.174   0.598   3.640 -0.4110  0.4445  0.5059
68193SOL     OW14892  10.130   6.506   2.632  0.4145  0.1071 -1.2044
68193SOL    HW114893  10.225   6.504   2.631  0.4579  1.2402 -1.0964
68193SOL    HW214894  10.108   6.594   2.663 -0.6729 -0.9666  1.4463
68194SOL     OW14895  11.371   4.484  12.324  0.1146 -0.9187 -0.0902
68194SOL    HW114896  11.337   4.574  12.328 -0.1394 -0.8373 -2.6373
68194SOL    HW214897  11.452   4.491  12.273  0.5948 -2.0256  0.4870
68195SOL     OW14898  11.651   5.558   5.516 -0.5484  0.0130 -0.2404
68195SOL    HW114899  11.680   5.646   5.540  0.9409 -0.7141  0.8090
68195SOL    HW214900  11.686   5.544   5.428  0.7498 -0.1390  0.2702
68196SOL     OW14901   7.252   0.282   4.654  0.4718 -0.4396 -0.3018
68196SOL    HW114902   7.292   0.346   4.595 -2.3857  2.8564  0.9879
68196SOL    HW214903   7.206   0.335   4.719 -4.3423 -3.6912 -0.5807
68197SOL     OW14904   9.986   2.050  11.533  0.4165  0.4825  0.1808
68197SOL    HW114905   9.973   2.002  11.614  1.9914  1.5454  1.1277
68197SOL    HW214906  10.032   2.130  11.559  1.6530  0.5172 -1.8227
68198SOL     OW14907   0.576   9.459  10.875 -0.2430  0.0371 -0.3335
68198SOL    HW114908   0.535   9.545  10.881  0.3835  0.3256 -0.1085
68198SOL    HW214909   0.644   9.461  10.942  1.4942  0.3009 -2.0404
68199SOL     OW14910  12.580   6.423   0.992 -0.6053  0.3391 -0.6529
68199SOL    HW114911  12.628   6.502   1.014 -0.4224  0.1068 -0.2049
68199SOL    HW214912  12.628   6.385   0.917 -0.7391  0.6859 -0.9151
68200SOL     OW14913   8.076   8.287   8.475  0.0107 -0.1604 -0.0041
68200SOL    HW114914   8.000   8.263   8.421 -1.1559  0.6414  1.2176
68200SOL    HW214915   8.110   8.366   8.434 -1.3514  0.8988  0.8295
68201SOL     OW14916   4.013   6.413   2.997  0.3108  0.1616  0.5069
68201SOL    HW114917   3.998   6.470   2.921 -0.4534  0.2315  0.7020
68201SOL    HW214918   3.946   6.439   3.060  0.5285 -0.3429  0.9560
68202SOL     OW14919  11.392   7.351  10.746  0.0616  0.0696 -0.5278
68202SOL    HW114920  11.487   7.361  10.741 -0.1422  2.6324 -0.5546
68202SOL    HW214921  11.365   7.408  10.818 -1.6423  1.0655 -1.8795
68203SOL     OW14922   3.352  10.590   9.439  0.2438 -0.2000  0.2836
68203SOL    HW114923   3.333  10.497   9.451 -0.6011 -0.2195 -0.9623
68203SOL    HW214924   3.346  10.604   9.345  1.3543  0.9277  0.3423
68204SOL     OW14925  10.311   3.652   2.711  0.0811  0.4564  0.5074
68204SOL    HW114926  10.273   3.693   2.790  2.0849  0.9971  1.2525
68204SOL    HW214927  10.310   3.722   2.646  0.9039  0.8607  0.9119
68205SOL     OW14928   3.326   7.629  12.299 -0.0349  0.2708 -0.4948
68205SOL    HW114929   3.377   7.638  12.380 -0.9022  1.0807 -0.0256
68205SOL    HW214930   3.311   7.718  12.270 -0.7246  0.0155 -0.9287
68206SOL     OW14931   1.173   6.473   3.407  0.5028  0.3050 -0.5971
68206SOL    HW114932   1.111   6.400   3.413  0.0923  0.5546 -1.5233
68206SOL    HW214933   1.119   6.549   3.386  1.2078  0.2541 -2.9944
68207SOL     OW14934   0.449   7.864   8.252  0.3352  0.3780 -0.5933
68207SOL    HW114935   0.381   7.801   8.277  1.8356 -0.5011  1.6162
68207SOL    HW214936   0.473   7.838   8.163 -1.0617 -0.3148 -0.8026
68208SOL     OW14937  11.609   9.424   3.977  0.3766  0.2222  0.2439
68208SOL    HW114938  11.641   9.514   3.971 -0.2608  0.4653  0.4197
68208SOL    HW214939  11.688   9.370   3.972  0.5793  0.5967 -3.4774
68209SOL     OW14940   9.025   0.041   3.817 -0.4381  0.4395  1.0537
68209SOL    HW114941   8.968  -0.030   3.789  0.8534  0.2646 -1.3790
68209SOL    HW214942   9.085   0.001   3.881 -1.3502  0.0257  1.6711
68210SOL     OW14943   2.371   2.044   7.602 -0.0470 -0.1468 -0.2954
68210SOL    HW114944   2.343   1.954   7.617  0.2938 -0.4864 -1.6100
68210SOL    HW214945   2.336   2.067   7.516  0.5732  0.6874 -0.3434
68211SOL     OW14946   5.962   6.200  10.825  0.2483 -0.3248  0.3897
68211SOL    HW114947   5.967   6.216  10.920  0.1470  1.6412  0.0939
68211SOL    HW214948   6.050   6.222  10.793  0.3074 -1.0695  0.0137
68212SOL     OW14949   4.968   7.948   8.806 -0.2054 -0.2290 -0.3351
68212SOL    HW114950   5.036   7.946   8.873  0.0248  0.2191 -0.5502
68212SOL    HW214951   5.004   8.005   8.738 -1.0368  0.4818 -0.1919
68213SOL     OW14952   7.605   2.072   7.499 -0.3321  0.1368 -0.3957
68213SOL    HW114953   7.646   2.037   7.420  0.5774 -0.9591  0.5128
68213SOL    HW214954   7.524   2.022   7.509 -1.6556  1.8550 -1.8359
68214SOL     OW14955  10.174  10.049   6.915  0.6718  0.1745 -0.3577
68214SOL    HW114956  10.227  10.080   6.988  0.0725  1.8718 -0.5956
68214SOL    HW214957  10.133   9.968   6.948  1.1611  0.3853  0.8299
68215SOL     OW14958  12.339   9.304  10.428  0.1014  0.0946  0.1581
68215SOL    HW114959  12.288   9.337  10.354  0.6866  3.7199  1.1662
68215SOL    HW214960  12.399   9.375  10.449  1.7146 -1.7976  2.5655
68216SOL     OW14961   0.177   2.409   6.609 -0.2228 -0.2705 -0.3037
68216SOL    HW114962   0.138   2.332   6.567 -1.9457  0.3184  0.1156
68216SOL    HW214963   0.190   2.383   6.700 -4.2702  0.9155  0.8428
68217SOL     OW14964  10.764   6.648   1.526 -0.0313 -0.2548  0.2816
68217SOL    HW114965  10.761   6.554   1.539 -0.0166 -0.2893  0.0376
68217SOL    HW214966  10.673   6.675   1.520 -0.0271 -0.5070 -1.4391
68218SOL     OW14967   7.031   2.282   6.249  0.2284  0.5376 -0.5671
68218SOL    HW114968   7.106   2.336   6.273  1.6668 -1.5685  0.0221
68218SOL    HW214969   6.982   2.335   6.186  1.7448  2.3202 -0.3351
68219SOL     OW14970  11.445  11.960   6.551 -0.0624 -0.7387 -0.6825
68219SOL    HW114971  11.350  11.951   6.545 -0.1460 -0.0710 -0.4291
68219SOL    HW214972  11.462  11.975   6.644  0.0190  1.8704 -1.0262
68220SOL     OW14973   0.551   7.607  12.256  0.1172 -0.6326 -0.5612
68220SOL    HW114974   0.559   7.692  12.213  1.1386 -0.8459 -0.7957
68220SOL    HW214975   0.514   7.628  12.342  1.3389  0.1720 -0.2106
68221SOL     OW14976  11.757  10.395   1.462 -0.1225 -0.6808  0.3108
68221SOL    HW114977  11.768  10.480   1.420 -0.1605  0.0986  1.8000
68221SOL    HW214978  11.662  10.388   1.477 -0.2484 -1.4705 -0.7223
68222SOL     OW14979   2.447  11.878   8.205 -0.0611  0.3625 -0.3471
68222SOL    HW114980   2.485  11.942   8.144  1.1156  2.6098  2.4726
68222SOL    HW214981   2.380  11.928   8.253 -0.2514 -0.9830  0.8571
68223SOL     OW14982  11.787   5.336   4.812 -0.0704  0.2277  0.3803
68223SOL    HW114983  11.705   5.298   4.781 -0.0963 -0.2889  1.0588
68223SOL    HW214984  11.855   5.281   4.773 -0.1286 -1.2254  2.2012
68224SOL     OW14985  11.108   4.344   7.584  0.1232 -0.1903 -0.3198
68224SOL    HW114986  11.019   4.309   7.586 -0.1271  0.4301 -0.3114
68224SOL    HW214987  11.156   4.284   7.527  0.3760 -2.0159  1.7014
68225SOL     OW14988   7.880   5.675   2.261 -0.3417  0.1613  0.6171
68225SOL    HW114989   7.799   5.647   2.305 -0.3631  0.2156  0.6127
68225SOL    HW214990   7.885   5.621   2.182 -0.8983  0.8571  0.0976
68226SOL     OW14991   9.565   6.242   1.333 -0.0343  0.0643  0.4955
68226SOL    HW114992   9.592   6.239   1.242 -0.9975 -1.3431  0.2280
68226SOL    HW214993   9.647   6.242   1.383  0.5119 -1.9950 -0.3177
68227SOL     OW14994   3.396   8.556  11.512 -0.0325  0.4640  0.3243
68227SOL    HW114995   3.305   8.536  11.493 -0.2730  0.9993  0.8652
68227SOL    HW214996   3.434   8.582  11.428 -0.3180  0.0240  0.0573
68228SOL     OW14997  11.733   7.314   4.646  0.0588 -0.0043  0.1636
68228SOL    HW114998  11.822   7.331   4.676  0.2979 -1.5214  0.3832
68228SOL    HW214999  11.738   7.321   4.551  0.1219  1.1200  0.2334
68229SOL     OW15000   5.760  11.938   5.852  0.1764 -0.2011  0.4919
68229SOL    HW115001   5.801  11.862   5.811  1.1240  0.4687  0.1851
68229SOL    HW215002   5.710  11.901   5.925 -2.3960 -1.5544 -1.7804
68230SOL     OW15003   5.429   3.638   7.091 -0.2884  0.0228 -0.0068
68230SOL    HW115004   5.451   3.700   7.022 -1.1783 -0.2443 -0.5521
68230SOL    HW215005   5.511   3.625   7.139  0.0423  1.1764 -0.2253
68231SOL     OW15006   3.935   5.482   1.408  0.2803 -0.1193  0.0217
68231SOL    HW115007   3.875   5.527   1.349 -0.7541 -1.5079 -0.0385
68231SOL    HW215008   4.006   5.452   1.351  0.6308  0.8206 -0.0473
68232SOL     OW15009   5.870   0.570  10.256  0.1707  0.0176 -0.1222
68232SOL    HW115010   5.840   0.499  10.313 -0.7807 -0.8085 -1.5898
68232SOL    HW215011   5.956   0.541  10.225  0.0813 -0.1859 -0.1825
68233SOL     OW15012   5.437   7.051   1.122 -0.5096 -0.1279 -0.6918
68233SOL    HW115013   5.455   7.051   1.216  0.4887 -1.6339 -0.8438
68233SOL    HW215014   5.342   7.039   1.116 -0.5551 -0.2776  0.1268
68234SOL     OW15015   1.107  11.375  12.186  0.8149  0.2920  0.4802
68234SOL    HW115016   1.064  11.414  12.111  0.4269 -0.6878  0.1898
68234SOL    HW215017   1.200  11.395  12.173  0.5818  1.4891  0.5677
68235SOL     OW15018  12.022   0.905   8.115 -0.0055  0.2763 -0.3192
68235SOL    HW115019  12.049   0.815   8.095 -1.6383 -0.2206 -0.4824
68235SOL    HW215020  12.102   0.957   8.108  0.6781 -0.9110 -1.7894
68236SOL     OW15021   3.924   4.302  12.741  0.0782 -0.1499 -0.2399
68236SOL    HW115022   3.894   4.229  12.796  1.2377  1.5400  2.8235
68236SOL    HW215023   3.859   4.371  12.754  0.8785  0.6179 -0.2317
68237SOL     OW15024   2.759   4.761   4.068  0.0434 -0.0772  0.0394
68237SOL    HW115025   2.828   4.716   4.117 -0.0257  0.5622  0.7473
68237SOL    HW215026   2.741   4.840   4.120 -0.8650  0.0171 -0.4075
68238SOL     OW15027   7.900  11.290   0.391  0.2268 -0.1545 -0.5825
68238SOL    HW115028   7.987  11.327   0.404 -0.1755  0.6148  0.0313
68238SOL    HW215029   7.874  11.318   0.303 -0.6759  2.4136  0.3884
68239SOL     OW15030   3.868   3.643   9.074  0.4173 -0.0408  0.0088
68239SOL    HW115031   3.893   3.623   8.983  1.4476  0.1992  0.2190
68239SOL    HW215032   3.941   3.696   9.107 -0.4054  0.6896  0.6878
68240SOL     OW15033   6.592   6.513   9.632 -0.2292 -0.5118  0.1878
68240SOL    HW115034   6.670   6.517   9.577  0.0300 -1.6896  0.4567
68240SOL    HW215035   6.625   6.494   9.720 -0.7532 -0.1117  0.4758
68241SOL     OW15036   3.255   6.341   5.875 -0.2174 -0.2656  0.7061
68241SOL    HW115037   3.184   6.317   5.934 -0.0763 -0.1424  0.9295
68241SOL    HW215038   3.238   6.291   5.795 -0.2585 -0.6483  0.9492
68242SOL     OW15039   2.893   0.024   3.423  0.2458 -0.1094  0.3468
68242SOL    HW115040   2.837   0.088   3.379  0.6622 -1.0642 -1.6863
68242SOL    HW215041   2.915  -0.040   3.355 -0.1478 -2.4415  2.2645
68243SOL     OW15042   9.977   1.722   2.608  0.1073  0.3391 -0.1277
68243SOL    HW115043  10.031   1.752   2.536  0.6869 -1.8508 -0.6851
68243SOL    HW215044  10.038   1.704   2.679 -0.1083 -0.2248 -0.0750
68244SOL     OW15045   0.478   5.201   4.064 -0.2543  0.0545  0.4476
68244SOL    HW115046   0.392   5.230   4.094 -0.1158  1.3396 -0.2935
68244SOL    HW215047   0.533   5.201   4.142 -1.1902 -1.9846  1.1661
68245SOL     OW15048  11.981   7.762   7.316  0.0255 -0.2553  0.6106
68245SOL    HW115049  11.988   7.839   7.260 -0.7651 -0.5692  0.0687
68245SOL    HW215050  11.948   7.693   7.259  1.7193 -1.3144  0.8198
68246SOL     OW15051   8.392   2.609   8.748 -0.1392  0.5207  0.2173
68246SOL    HW115052   8.314   2.632   8.799  0.1623  1.0561  0.4501
68246SOL    HW215053   8.419   2.691   8.707  0.0394  0.2407 -0.2311
68247SOL     OW15054  10.542   5.631  12.454 -0.0250 -0.5220  0.0206
68247SOL    HW115055  10.480   5.627  12.527 -2.1390  2.7069 -1.3919
68247SOL    HW215056  10.513   5.562  12.395 -1.6986  0.2466 -0.1249
68248SOL     OW15057  10.363   1.573  11.523  0.4631 -0.0134 -0.0592
68248SOL    HW115058  10.449   1.531  11.526  0.5197  0.1555  1.0101
68248SOL    HW215059  10.347   1.589  11.430  0.4020 -2.4407 -0.5065
68249SOL     OW15060   4.472   1.431   6.718 -0.2138 -0.1036  0.7925
68249SOL    HW115061   4.467   1.496   6.789 -2.6290  1.7016 -0.9120
68249SOL    HW215062   4.554   1.451   6.673  1.5118 -1.4552  3.0811
68250SOL     OW15063   1.366   6.293  10.284  0.1374  0.1793 -0.4874
68250SOL    HW115064   1.278   6.328  10.300 -0.0540 -0.5778  0.1851
68250SOL    HW215065   1.392   6.255  10.368  1.5748  1.3905 -0.3458
68251SOL     OW15066  10.781   9.524  11.609 -0.1543  0.1667  0.1619
68251SOL    HW115067  10.688   9.521  11.585 -0.3886 -0.8358  1.1444
68251SOL    HW215068  10.820   9.450  11.563  0.1282  0.4684 -0.0906
68252SOL     OW15069   1.785  10.192   4.193  0.2866  0.5279  0.3005
68252SOL    HW115070   1.789  10.133   4.118 -0.8859 -1.0932  1.4580
68252SOL    HW215071   1.779  10.279   4.153 -0.8420 -0.3067 -1.5147
68253SOL     OW15072   0.739  11.199   0.041  0.2888  0.0486 -0.0321
68253SOL    HW115073   0.812  11.137   0.048  0.3495  0.2890  2.1513
68253SOL    HW215074   0.662  11.146   0.061  0.0778  0.2307 -0.3494
68254SOL     OW15075   6.904   9.008   0.309  0.3160 -0.0509 -0.0659
68254SOL    HW115076   6.895   8.920   0.274  1.6384  0.1174 -0.9210
68254SOL    HW215077   6.971   8.999   0.377  0.9017  0.3726 -0.5700
68255SOL     OW15078   7.452   6.712   5.434 -0.0796 -0.2236 -0.0941
68255SOL    HW115079   7.391   6.785   5.445  0.5244  0.9873 -3.4338
68255SOL    HW215080   7.397   6.635   5.424 -1.1273  0.6789 -1.9485
68256SOL     OW15081   8.344  12.888   5.786  0.5029  0.2156 -0.3983
68256SOL    HW115082   8.288  12.965   5.801  1.6553  0.8993  0.6625
68256SOL    HW215083   8.290  12.814   5.813 -0.0516  0.8165  0.1956
68257SOL     OW15084   1.452   1.291  12.763  0.2191  0.0921  0.0784
68257SOL    HW115085   1.401   1.224  12.808  0.8863 -0.6330 -0.2279
68257SOL    HW215086   1.460   1.259  12.673  0.9197  0.3558  0.0401
68258SOL     OW15087   1.298   2.508   9.205 -0.2004  0.4647 -0.4875
68258SOL    HW115088   1.373   2.567   9.210 -0.6011  1.2190 -2.5382
68258SOL    HW215089   1.336   2.423   9.185  0.2075  0.5268  0.0027
68259SOL     OW15090   2.904   1.810  10.159 -0.4706  0.2219 -0.2196
68259SOL    HW115091   2.863   1.748  10.099  0.7180  0.0105 -0.8514
68259SOL    HW215092   2.841   1.882  10.166 -0.5743  0.3180 -1.8427
68260SOL     OW15093   7.969   4.697   5.820 -0.0852  0.3405 -0.2551
68260SOL    HW115094   8.051   4.739   5.794  0.8089 -0.4264  1.2382
68260SOL    HW215095   7.995   4.611   5.853 -1.7633 -1.0459 -2.2621
68261SOL     OW15096   6.745   0.058  11.624  0.2158 -0.0370 -0.2748
68261SOL    HW115097   6.819  -0.002  11.615  0.5681  0.3209  0.1699
68261SOL    HW215098   6.785   0.144  11.637 -0.2541  0.0533  0.7175
68262SOL     OW15099   7.169   7.989  10.891 -0.6503  0.3155  0.5292
68262SOL    HW115100   7.260   8.004  10.918 -0.3147 -0.3314 -0.1918
68262SOL    HW215101   7.153   8.053  10.822  0.0014 -0.9810 -0.8815
68263SOL     OW15102   2.076   9.488   3.452 -0.0776  0.6142 -0.1942
68263SOL    HW115103   2.038   9.492   3.540  1.6814  1.0452  0.5788
68263SOL    HW215104   2.151   9.548   3.455  0.4619  0.0751 -1.7715
68264SOL     OW15105  12.158   0.183   0.089 -0.2613 -0.3662 -0.9942
68264SOL    HW115106  12.093   0.184   0.019 -0.0288  1.0483 -1.2234
68264SOL    HW215107  12.203   0.267   0.081 -1.6668  0.8302  2.2288
68265SOL     OW15108  12.110  12.889  12.731  0.0438 -0.4453  0.5682
68265SOL    HW115109  12.176  12.845  12.785  2.0526 -1.6611 -2.6292
68265SOL    HW215110  12.147  12.976  12.715  0.4377 -0.7970 -0.4616
68266SOL     OW15111  10.080  12.584   5.720  0.5322  0.2362  0.1845
68266SOL    HW115112  10.104  12.652   5.656  0.4280  0.6983  0.6249
68266SOL    HW215113  10.163  12.558   5.759  0.5264  0.4345  0.3307
68267SOL     OW15114  12.471   5.661   6.033  0.1123  0.8159  0.3475
68267SOL    HW115115  12.428   5.654   6.118 -0.5084  1.1019  0.0615
68267SOL    HW215116  12.415   5.612   5.973  1.7209 -1.3878  0.4955
68268SOL     OW15117  11.677   6.442  12.941  0.7531 -0.0084 -0.0060
68268SOL    HW115118  11.753   6.400  12.902  1.1085  1.2185 -0.6816
68268SOL    HW215119  11.679   6.532  12.907  0.5795  0.8633  2.1292
68269SOL     OW15120   4.805  12.002   0.007 -0.1031 -0.6450 -0.0474
68269SOL    HW115121   4.759  12.057  -0.057  2.5226  1.7232 -0.1114
68269SOL    HW215122   4.864  11.948  -0.047  0.2449 -0.5396  0.2248
68270SOL     OW15123  10.198   0.686  10.232 -0.2102 -0.1463  0.4050
68270SOL    HW115124  10.125   0.669  10.292 -1.5001  2.1061 -0.3838
68270SOL    HW215125  10.174   0.768  10.188  2.1020 -0.1386 -1.0156
68271SOL     OW15126  11.248   5.911   7.195 -0.6750 -0.5229 -0.4204
68271SOL    HW115127  11.183   5.918   7.265 -0.2883 -1.3259  0.0233
68271SOL    HW215128  11.322   5.964   7.226 -0.7085 -0.4555 -0.4558
68272SOL     OW15129   1.032  11.251   9.352 -0.3434  0.3597 -0.4932
68272SOL    HW115130   0.996  11.325   9.401 -0.9373  0.8111 -1.5825
68272SOL    HW215131   1.120  11.280   9.325  0.1760 -0.0676  0.6576
68273SOL     OW15132   0.655   6.411   4.774  0.0160 -0.5429 -0.4960
68273SOL    HW115133   0.719   6.353   4.734 -0.7757 -1.7998 -0.0275
68273SOL    HW215134   0.572   6.387   4.733  0.0627  2.5519 -2.6990
68274SOL     OW15135   1.174   2.743  10.714  0.5773  0.4089  0.2305
68274SOL    HW115136   1.096   2.790  10.745  0.5477 -0.3655  1.3912
68274SOL    HW215137   1.139   2.674  10.657  0.4699  0.5481  0.1275
68275SOL     OW15138   8.466  11.811   5.860 -0.0340 -0.2736 -0.2051
68275SOL    HW115139   8.414  11.782   5.785 -1.1250 -0.8661  0.7598
68275SOL    HW215140   8.430  11.897   5.882 -1.7124 -1.3148  1.4037
68276SOL     OW15141  12.315  10.116  10.082  0.5723  0.1100 -0.0064
68276SOL    HW115142  12.275  10.183  10.025 -0.0500  1.5626  2.0203
68276SOL    HW215143  12.409  10.132  10.075  0.4228  1.4284  0.6491
68277SOL     OW15144   6.125   8.113   9.106 -0.6630  0.1814 -0.0468
68277SOL    HW115145   6.094   8.024   9.092 -2.9356  0.6600  1.4890
68277SOL    HW215146   6.184   8.107   9.181  0.8196 -0.2849 -1.1986
68278SOL     OW15147  11.138   4.592   3.796  0.5266  0.1453 -0.2130
68278SOL    HW115148  11.070   4.547   3.745  0.3285 -0.1191  0.2776
68278SOL    HW215149  11.113   4.685   3.793 -0.6993 -0.0950  1.1736
68279SOL     OW15150   6.060   4.081   6.979 -0.1871 -0.4439 -0.1615
68279SOL    HW115151   6.067   3.996   6.936  0.7393 -0.2726 -0.3657
68279SOL    HW215152   6.122   4.077   7.051 -1.5192 -0.6220  1.0230
68280SOL     OW15153  11.693  12.497   6.629  0.1285  0.1847  0.2384
68280SOL    HW115154  11.641  12.542   6.563 -0.7364  0.2318  0.9344
68280SOL    HW215155  11.629  12.456   6.687  0.8847 -2.2403 -0.5337
68281SOL     OW15156   5.485   3.294  12.447 -0.1516  0.1950 -0.7855
68281SOL    HW115157   5.423   3.314  12.517 -0.8480 -0.1091 -1.3068
68281SOL    HW215158   5.570   3.291  12.491 -0.4897  0.6809 -0.0720
68282SOL     OW15159   7.769  12.219  11.973  1.0170 -0.0928  0.6672
68282SOL    HW115160   7.826  12.184  11.904  1.5979 -0.8527  1.5087
68282SOL    HW215161   7.829  12.248  12.041  0.4798  1.5053  0.4826
68283SOL     OW15162   9.034   5.222   4.376 -0.7681  0.4656  0.2059
68283SOL    HW115163   8.944   5.189   4.374 -0.4033 -0.5835  0.4949
68283SOL    HW215164   9.088   5.143   4.372  0.1429  1.0825  0.1765
68284SOL     OW15165   7.601   3.734   4.495 -0.0130  0.2653 -0.4747
68284SOL    HW115166   7.668   3.727   4.428  0.2710  0.1491 -0.1838
68284SOL    HW215167   7.608   3.823   4.528 -2.5799  1.6076 -3.0943
68285SOL     OW15168  10.248   4.622   6.007 -0.4403  0.2367 -0.8223
68285SOL    HW115169  10.167   4.616   5.955 -0.9256 -0.6695  0.0030
68285SOL    HW215170  10.299   4.547   5.979  1.0620  1.8616 -2.7942
68286SOL     OW15171   5.231   1.097   8.212  0.2743  0.4300  0.2444
68286SOL    HW115172   5.275   1.031   8.159  0.8186  0.4579  0.6494
68286SOL    HW215173   5.244   1.179   8.164 -1.3908  0.1020 -0.8563
68287SOL     OW15174  12.175   3.780   9.257  0.2537  0.5003  0.2951
68287SOL    HW115175  12.236   3.768   9.330  0.2684  0.0898  0.2204
68287SOL    HW215176  12.109   3.841   9.290  0.8674  1.1785  0.2731
68288SOL     OW15177   5.858   0.828   5.272  0.0359  0.6000  0.5232
68288SOL    HW115178   5.801   0.860   5.342  0.1261 -0.2455  1.0014
68288SOL    HW215179   5.939   0.877   5.283 -0.2734  1.1418  0.4228
68289SOL     OW15180   5.416   1.558   3.305 -0.1754  0.0080 -0.0051
68289SOL    HW115181   5.375   1.472   3.318  0.8737 -0.6444 -0.8242
68289SOL    HW215182   5.375   1.614   3.370 -2.3094 -0.6103 -0.7403
68290SOL     OW15183  12.330   9.318   5.148 -0.0948 -0.1484  0.0679
68290SOL    HW115184  12.425   9.332   5.154  0.1690 -1.2786 -0.9597
68290SOL    HW215185  12.292   9.395   5.191  1.2666  0.8313 -0.3869
68291SOL     OW15186   7.854   8.720   5.728  0.0620 -0.4539  0.0862
68291SOL    HW115187   7.792   8.783   5.764  0.5839 -0.6784  1.4460
68291SOL    HW215188   7.848   8.645   5.788  0.5917 -1.0560 -0.6051
68292SOL     OW15189   1.958  11.103   1.267 -0.3410 -0.0405  0.6797
68292SOL    HW115190   2.037  11.129   1.314 -0.1206 -0.0799  0.3313
68292SOL    HW215191   1.976  11.123   1.176 -0.7922  0.0878  0.6155
68293SOL     OW15192   2.323   9.410   9.626  0.0013  0.3881 -0.6115
68293SOL    HW115193   2.335   9.505   9.635 -1.4911  0.6914 -1.5282
68293SOL    HW215194   2.375   9.386   9.549  1.3433  0.2215  0.3047
68294SOL     OW15195   7.006   9.746  10.746 -0.2093 -0.2112  0.2229
68294SOL    HW115196   7.035   9.692  10.820  1.4411 -0.6836 -0.7224
68294SOL    HW215197   7.001   9.686  10.672 -2.0015  0.2277 -0.0504
68295SOL     OW15198  12.075   4.529   1.965 -0.1844  0.1883  0.0106
68295SOL    HW115199  12.078   4.607   2.020 -0.2173  1.1899 -1.3720
68295SOL    HW215200  12.166   4.517   1.936 -0.3414  0.2313 -0.4939
68296SOL     OW15201   0.097   8.380   2.224  0.4598  0.1571  0.0402
68296SOL    HW115202   0.032   8.317   2.255 -2.0604  2.8792  0.7597
68296SOL    HW215203   0.065   8.408   2.139  1.5737  0.4288 -0.3122
68297SOL     OW15204   1.493   8.606   4.084  0.1064 -0.0351  0.7038
68297SOL    HW115205   1.508   8.561   4.001 -0.6005 -0.1891  0.6504
68297SOL    HW215206   1.459   8.692   4.059 -1.3923 -0.5569  0.8268
68298SOL     OW15207   5.330   9.049  10.227 -0.2175 -0.5034  0.2696
68298SOL    HW115208   5.363   9.044  10.138  0.4767 -0.5581  0.5249
68298SOL    HW215209   5.408   9.059  10.281 -0.7473  2.5528  0.6703
68299SOL     OW15210  10.831  10.888   3.864  0.0223  0.6038 -0.3113
68299SOL    HW115211  10.763  10.830   3.900  1.1136 -0.7555 -0.3812
68299SOL    HW215212  10.829  10.964   3.922 -0.9313  0.1814  0.2431
68300SOL     OW15213   6.422  11.043   4.583 -0.6154  0.4083 -0.2285
68300SOL    HW115214   6.371  11.052   4.503 -1.5197  0.2731  0.3279
68300SOL    HW215215   6.362  11.068   4.653  0.0494  0.1517  0.4432
68301SOL     OW15216   3.058   8.829   9.376  0.2065 -0.2686  0.4740
68301SOL    HW115217   3.081   8.746   9.418 -1.4485 -1.0254 -0.0370
68301SOL    HW215218   3.090   8.819   9.286  1.9172  0.5397  0.9488
68302SOL     OW15219   2.981  10.956   4.354  0.1225 -0.1391 -0.7156
68302SOL    HW115220   2.919  10.908   4.409  0.7695  0.2470  0.3632
68302SOL    HW215221   3.009  10.892   4.288  2.2401 -1.8368  1.6605
68303SOL     OW15222   9.835  12.662   3.358 -0.4783 -0.2951 -0.3476
68303SOL    HW115223   9.833  12.624   3.270  0.6015 -0.4573 -0.3213
68303SOL    HW215224   9.782  12.741   3.352 -0.2426 -0.1955 -1.2022
68304SOL     OW15225  12.860  10.815  10.656 -0.4607 -0.0702 -0.2854
68304SOL    HW115226  12.934  10.842  10.602 -0.3011 -1.1225 -0.6191
68304SOL    HW215227  12.886  10.837  10.746 -1.3472  3.0952 -0.6928
68305SOL     OW15228   9.663   8.305   0.352  0.0393 -0.8850 -0.9893
68305SOL    HW115229   9.585   8.250   0.365 -0.8394  0.0076 -2.2196
68305SOL    HW215230   9.720   8.283   0.426 -2.2008 -0.1378  1.1094
68306SOL     OW15231  11.766   5.815   5.034  0.1799 -0.1980  0.1709
68306SOL    HW115232  11.760   5.861   4.950 -0.2233  0.0047  0.3067
68306SOL    HW215233  11.860   5.814   5.054  0.1954  0.6458  0.2029
68307SOL     OW15234   2.411   4.078   7.432  0.3631  0.5602  0.3058
68307SOL    HW115235   2.377   4.023   7.504  1.9104 -0.7599  0.0864
68307SOL    HW215236   2.500   4.099   7.459  0.4633  1.2869 -0.5732
68308SOL     OW15237   5.820   9.808   6.635  0.3379  0.3304 -0.0155
68308SOL    HW115238   5.844   9.817   6.728  3.7105  1.7380 -0.8892
68308SOL    HW215239   5.778   9.723   6.630 -0.8116  0.5867  2.9254
68309SOL     OW15240   1.119   4.543   3.460 -0.0105 -0.0810  0.4753
68309SOL    HW115241   1.144   4.619   3.408  0.0865 -1.2675 -1.2918
68309SOL    HW215242   1.040   4.572   3.507 -2.2626  0.0867 -3.0030
68310SOL     OW15243   4.475   3.325   3.661  0.2152  0.5059  0.6515
68310SOL    HW115244   4.407   3.351   3.598  1.5498  0.8336 -0.6962
68310SOL    HW215245   4.459   3.380   3.737 -1.2317  0.3408  0.4953
68311SOL     OW15246   5.354   5.886   5.114  0.2247  0.2450  0.2007
68311SOL    HW115247   5.336   5.800   5.152 -0.2679 -0.0273 -0.6250
68311SOL    HW215248   5.363   5.944   5.190  0.2532 -0.4667  0.7572
68312SOL     OW15249   4.105   4.303   3.326  0.1490  0.7327 -0.2842
68312SOL    HW115250   4.099   4.347   3.410  2.1032  0.0870  0.2396
68312SOL    HW215251   4.021   4.323   3.283  0.0608  3.0606  0.7987
68313SOL     OW15252   0.228  12.313   2.301 -0.2270  0.0981 -0.4203
68313SOL    HW115253   0.269  12.346   2.221 -0.5869  0.2804 -0.5313
68313SOL    HW215254   0.197  12.392   2.346  0.9841  0.1003  0.4676
68314SOL     OW15255   8.843   1.592   9.129  0.0759 -0.7424  0.4699
68314SOL    HW115256   8.805   1.679   9.141  0.9154  0.0443 -2.0178
68314SOL    HW215257   8.932   1.599   9.161  0.8302  0.0050 -1.6298
68315SOL     OW15258   8.130   8.355   2.801  0.0622 -0.8832  0.2294
68315SOL    HW115259   8.220   8.341   2.772 -0.2139 -1.4046 -0.4126
68315SOL    HW215260   8.099   8.267   2.823  0.6356 -0.4100  3.3177
68316SOL     OW15261   5.019   2.216   8.550 -0.0992 -0.1384  0.3257
68316SOL    HW115262   5.003   2.123   8.530 -0.2543  0.3235 -1.8953
68316SOL    HW215263   4.945   2.241   8.605 -0.8711 -0.9471 -0.3122
68317SOL     OW15264   8.647  10.880  12.287  0.2039 -0.0577 -0.0665
68317SOL    HW115265   8.715  10.945  12.302  0.7786 -0.5280 -0.5801
68317SOL    HW215266   8.637  10.878  12.192 -0.0552 -0.4740 -0.0318
68318SOL     OW15267   8.747  11.698   2.365 -0.2281  0.6647  0.2941
68318SOL    HW115268   8.828  11.749   2.353  0.5106 -0.0104  2.0779
68318SOL    HW215269   8.680  11.764   2.386  0.9122  0.9742  3.5374
68319SOL     OW15270   4.537  11.091   1.242 -0.5551  0.2898 -0.2602
68319SOL    HW115271   4.483  11.019   1.211  0.7434 -0.6913 -0.3236
68319SOL    HW215272   4.565  11.137   1.163  0.2083 -0.3339 -0.3654
68320SOL     OW15273   1.557  12.111   9.841 -0.2282 -0.2012 -0.0224
68320SOL    HW115274   1.474  12.124   9.888  0.6918  1.7775  1.1758
68320SOL    HW215275   1.578  12.018   9.855  0.1217  0.2820  3.8409
68321SOL     OW15276   6.543  10.601   6.066  0.1826  0.7610 -0.6962
68321SOL    HW115277   6.453  10.569   6.074  0.6922 -0.4305  0.8137
68321SOL    HW215278   6.554  10.620   5.973 -1.5295  0.6414 -0.9544
68322SOL     OW15279   2.427   0.184   9.676 -0.2664  0.2420  0.0632
68322SOL    HW115280   2.378   0.265   9.662 -0.8594  0.2430  1.8955
68322SOL    HW215281   2.456   0.158   9.588  0.0879  2.5011 -0.5387
68323SOL     OW15282  10.162   6.807   2.425 -0.2485 -0.1380 -0.0166
68323SOL    HW115283  10.103   6.838   2.356  1.2279  0.7841 -0.9388
68323SOL    HW215284  10.215   6.739   2.383 -0.5750 -0.9065  0.7756
68324SOL     OW15285  10.688   3.213   5.641  0.1611  0.4641 -0.1529
68324SOL    HW115286  10.784   3.209   5.641  0.1436  0.0215 -0.5442
68324SOL    HW215287  10.668   3.280   5.576  0.2088  0.8978  0.2650
68325SOL     OW15288   0.829   0.444   3.235 -0.2267 -0.0674 -1.0219
68325SOL    HW115289   0.856   0.358   3.267  1.0408  0.8046  0.3742
68325SOL    HW215290   0.909   0.482   3.198 -0.8432  0.4135 -1.9078
68326SOL     OW15291   2.821   3.598   2.970  0.4209  0.2176 -0.5847
68326SOL    HW115292   2.888   3.591   2.902  3.5294 -0.8749  2.3397
68326SOL    HW215293   2.825   3.515   3.017 -1.8996  0.7572  0.7421
68327SOL     OW15294   1.950   5.526   2.197  0.2803  0.2044  0.2148
68327SOL    HW115295   1.861   5.515   2.229  0.3859 -0.7649  0.2002
68327SOL    HW215296   1.949   5.610   2.150 -0.9514 -0.3937 -0.8839
68328SOL     OW15297   1.033   0.745   6.788  0.1693  0.4323 -0.2762
68328SOL    HW115298   0.983   0.688   6.729  0.1940  0.3613 -0.2287
68328SOL    HW215299   1.122   0.740   6.755  0.0077  1.1905 -0.8572
68329SOL     OW15300   1.319   5.172  11.180  0.2056  0.5178 -0.2858
68329SOL    HW115301   1.225   5.193  11.186 -0.5716 -2.4902 -0.4962
68329SOL    HW215302   1.338   5.180  11.086 -0.6094 -1.5430 -0.6706
68330SOL     OW15303   6.449   2.778  11.224  0.2463  0.0115 -0.0039
68330SOL    HW115304   6.400   2.700  11.202 -2.7165  2.4868 -3.3341
68330SOL    HW215305   6.528   2.773  11.170 -0.3072 -0.3235 -0.7919
68331SOL     OW15306  12.096  12.353   6.143  0.1463  0.0984  0.2017
68331SOL    HW115307  12.133  12.421   6.086 -0.1578  0.6544  0.6530
68331SOL    HW215308  12.090  12.275   6.088  1.6359  0.0973  0.0102
68332SOL     OW15309  12.309   4.058  10.122 -0.1772  0.0121 -0.3364
68332SOL    HW115310  12.338   4.039  10.211  1.7291  2.4864 -0.3067
68332SOL    HW215311  12.386   4.094  10.079 -1.9363  2.2649 -1.8491
68333SOL     OW15312   0.010   4.669   7.111  0.0296 -0.6631  0.0713
68333SOL    HW115313  -0.076   4.629   7.121 -1.3099  1.7420 -0.8746
68333SOL    HW215314   0.000   4.757   7.147  1.9333 -0.1351 -0.5381
68334SOL     OW15315  11.255   1.732   4.536 -0.2404  0.0285 -0.4394
68334SOL    HW115316  11.170   1.690   4.552 -0.1636  0.1056  0.2394
68334SOL    HW215317  11.268   1.725   4.442 -1.0290  0.0672 -0.5640
68335SOL     OW15318   9.611   4.689   4.240 -0.2802  0.1541  0.2291
68335SOL    HW115319   9.656   4.736   4.170  1.2450 -1.6005 -0.0613
68335SOL    HW215320   9.613   4.749   4.314  0.1797  1.1570 -0.5672
68336SOL     OW15321   8.145   4.007   4.782  0.2977  0.3241  0.0377
68336SOL    HW115322   8.095   4.009   4.863 -1.6624  3.4016 -1.0810
68336SOL    HW215323   8.097   3.946   4.726 -1.3982  1.9974 -0.4450
68337SOL     OW15324  11.037  11.885   4.960 -0.0897 -0.7401  0.1031
68337SOL    HW115325  11.102  11.819   4.983  0.7114  0.3465  1.0773
68337SOL    HW215326  10.965  11.836   4.921  0.6732 -2.1250  0.4013
68338SOL     OW15327   3.392  11.638   9.479 -0.4375 -0.6001 -0.1866
68338SOL    HW115328   3.413  11.701   9.410  0.4645 -1.0028 -0.2962
68338SOL    HW215329   3.311  11.596   9.449 -0.6108 -0.0581 -0.4951
68339SOL     OW15330   5.763   4.998   4.500  0.5787 -0.3879 -0.9093
68339SOL    HW115331   5.830   5.043   4.448  0.7306  0.7251  0.2090
68339SOL    HW215332   5.698   4.970   4.436  1.8540 -1.0520 -1.9600
68340SOL     OW15333   9.468   3.086   7.985 -0.2088 -0.0491 -0.1885
68340SOL    HW115334   9.500   3.095   7.895  0.2406  0.9657  0.0629
68340SOL    HW215335   9.426   3.000   7.987  1.7791 -1.0956 -0.7521
68341SOL     OW15336  10.356   7.347   8.425  0.6500 -0.3702  0.1528
68341SOL    HW115337  10.296   7.277   8.454 -0.0904 -0.3588 -1.2755
68341SOL    HW215338  10.299   7.411   8.383  1.4655  0.5577  0.4277
68342SOL     OW15339   8.745  11.653   5.271  0.0270  0.1063 -0.5770
68342SOL    HW115340   8.730  11.664   5.178 -0.1679  1.0382 -0.4454
68342SOL    HW215341   8.659  11.631   5.307 -0.4206  2.0748 -0.3075
68343SOL     OW15342  11.510  10.751   0.362  0.3399  0.2396  0.0188
68343SOL    HW115343  11.510  10.845   0.379  0.7962  0.1922  0.3074
68343SOL    HW215344  11.563  10.714   0.433  0.3064 -0.2187 -0.1902
68344SOL     OW15345   6.309  10.403  10.255 -0.2652 -0.7951 -0.2744
68344SOL    HW115346   6.303  10.404  10.160  2.2360 -0.8855 -0.4916
68344SOL    HW215347   6.342  10.489  10.279  0.4177 -1.2185  0.3736
68345SOL     OW15348   7.242   4.460  10.912  0.8982  0.1392  0.2219
68345SOL    HW115349   7.147   4.470  10.922  0.8645  0.2984 -0.2630
68345SOL    HW215350   7.266   4.398  10.981  0.1367 -1.4520 -0.8719
68346SOL     OW15351   2.887   4.915  11.919 -0.5487  0.8275 -0.1791
68346SOL    HW115352   2.967   4.960  11.891 -0.0964 -0.0577 -0.3207
68346SOL    HW215353   2.880   4.936  12.012  1.2785 -1.1413  0.4874
68347SOL     OW15354  12.197   7.199  12.049  0.4897 -0.6357 -0.5802
68347SOL    HW115355  12.261   7.266  12.022  1.8347 -1.5112  0.3612
68347SOL    HW215356  12.158   7.170  11.966 -0.0363  1.1909 -1.0296
68348SOL     OW15357   0.530   7.550   6.938  0.1152  0.5652 -0.2545
68348SOL    HW115358   0.591   7.487   6.899 -0.9853  0.4210 -1.8499
68348SOL    HW215359   0.475   7.498   6.996  2.0340  0.8456  1.9355
68349SOL     OW15360  10.724  12.777   1.722 -0.3889 -0.2776  0.0351
68349SOL    HW115361  10.638  12.736   1.722 -0.0780 -0.9884 -1.1744
68349SOL    HW215362  10.707  12.869   1.740 -1.3806 -0.4347 -0.0454
68350SOL     OW15363   2.141  11.183   7.707 -0.1976 -0.0336  0.2622
68350SOL    HW115364   2.123  11.246   7.777  1.6054 -0.1751  0.8994
68350SOL    HW215365   2.199  11.118   7.747 -1.4865 -1.7746 -0.5650
68351SOL     OW15366   8.688   1.721   1.653 -0.2715  0.2528 -0.2528
68351SOL    HW115367   8.655   1.651   1.710  2.9868 -0.5655  0.8424
68351SOL    HW215368   8.650   1.801   1.690  1.9939 -0.1731  3.6142
68352SOL     OW15369  12.003   2.912   9.900 -0.2255 -0.2162  0.1064
68352SOL    HW115370  11.935   2.846   9.887 -1.6221  0.8396  1.6619
68352SOL    HW215371  11.967   2.992   9.860  1.0006 -0.1130 -0.8550
68353SOL     OW15372   7.289   0.132  12.184  0.4538  0.3247 -0.7647
68353SOL    HW115373   7.212   0.174  12.147  0.6241 -0.3067 -1.8868
68353SOL    HW215374   7.307   0.058  12.126  0.4759 -1.0021  0.8524
68354SOL     OW15375   2.420   4.921   0.851 -0.2186 -0.2888 -0.3679
68354SOL    HW115376   2.430   5.011   0.820 -0.6778 -0.2821 -0.4977
68354SOL    HW215377   2.479   4.915   0.926 -0.2659  0.1490 -0.2955
68355SOL     OW15378  11.175   6.495   1.160 -0.8468 -0.7892 -0.1875
68355SOL    HW115379  11.213   6.527   1.242 -2.2009  1.9329 -0.5102
68355SOL    HW215380  11.211   6.406   1.150  0.3127 -0.7543  2.6849
68356SOL     OW15381   7.798   3.142   0.433 -0.2243 -0.2184  0.1920
68356SOL    HW115382   7.872   3.082   0.437 -0.0379  0.0115  0.2103
68356SOL    HW215383   7.837   3.228   0.421 -0.4081  0.0992  1.6966
68357SOL     OW15384  10.443  11.621   0.681 -0.0233  0.1071  0.1805
68357SOL    HW115385  10.499  11.698   0.666 -0.7334  0.5122 -0.5053
68357SOL    HW215386  10.486  11.573   0.752  0.9955  0.5905 -0.0880
68358SOL     OW15387   6.068  10.310  11.441  0.1756 -0.3674  0.5409
68358SOL    HW115388   6.057  10.298  11.346  2.1951  1.7937 -0.0787
68358SOL    HW215389   6.071  10.405  11.452  0.4975 -0.5912  2.7089
68359SOL     OW15390   8.722   9.171   6.173  0.4112 -0.1432 -0.0704
68359SOL    HW115391   8.769   9.253   6.157 -0.6472  0.5145  0.0914
68359SOL    HW215392   8.634   9.187   6.140 -0.3161 -0.5810  1.5766
68360SOL     OW15393   2.903   3.418   7.544 -0.2494  0.1446  0.0829
68360SOL    HW115394   2.919   3.478   7.471  0.4414 -1.1201 -0.8283
68360SOL    HW215395   2.817   3.381   7.527 -0.7599  0.9893  0.7480
68361SOL     OW15396   7.217   8.874   4.114  0.3912  0.0509  0.0928
68361SOL    HW115397   7.291   8.838   4.163 -0.0412  1.5647  2.0077
68361SOL    HW215398   7.143   8.868   4.175  0.0684  3.0495  0.1284
68362SOL     OW15399   7.010   3.117   3.780 -0.0176  0.9465 -0.7348
68362SOL    HW115400   7.031   3.208   3.758 -1.4538  1.6451  0.6092
68362SOL    HW215401   6.918   3.107   3.755 -0.3216  0.3545  0.5798
68363SOL     OW15402   4.004   8.965   5.690  0.9268 -0.0295  0.1675
68363SOL    HW115403   3.993   9.059   5.678  1.5444  0.0498  0.1813
68363SOL    HW215404   3.955   8.945   5.770  1.7186  0.4818  0.7946
68364SOL     OW15405   6.358   7.700   1.204  0.0412 -0.0397 -0.4171
68364SOL    HW115406   6.393   7.785   1.230 -0.0362 -0.5796  1.6417
68364SOL    HW215407   6.436   7.646   1.191  0.0745  0.1671 -1.1020
68365SOL     OW15408   0.437   4.490   4.424 -0.3393 -0.9079 -0.1405
68365SOL    HW115409   0.397   4.405   4.441 -0.1349 -0.7297  1.3993
68365SOL    HW215410   0.526   4.482   4.458  0.8269 -1.1066 -2.9835
68366SOL     OW15411   9.310   4.268   8.871  0.1892  0.4472 -1.0401
68366SOL    HW115412   9.269   4.343   8.827  0.3639  1.4065  0.3700
68366SOL    HW215413   9.309   4.291   8.964  0.1481 -1.3717 -0.5516
68367SOL     OW15414  12.689  10.637   2.096 -0.4857 -0.5843 -0.4386
68367SOL    HW115415  12.704  10.589   2.014 -2.1691 -1.0404 -0.5227
68367SOL    HW215416  12.726  10.724   2.079  0.3398 -1.0576 -1.2059
68368SOL     OW15417   2.424   5.031   1.834  0.7821  0.3978 -0.1135
68368SOL    HW115418   2.366   4.956   1.822  0.3821  0.5321  0.8605
68368SOL    HW215419   2.374   5.105   1.800  1.2394  0.2184 -1.2206
68369SOL     OW15420   1.100  11.942   7.407  0.0294  0.0222 -0.1850
68369SOL    HW115421   1.138  11.898   7.483 -0.6547  2.0897  1.4612
68369SOL    HW215422   1.081  11.872   7.345  1.1269 -1.6828  1.3210
68370SOL     OW15423   0.959   3.823   0.328 -0.8447 -0.0606  0.5140
68370SOL    HW115424   1.000   3.738   0.344 -0.9609 -0.1131  0.5340
68370SOL    HW215425   0.919   3.814   0.241 -1.2364 -0.1749  0.7033
68371SOL     OW15426   3.761  10.052  10.202 -0.5906 -0.2077  0.0735
68371SOL    HW115427   3.695  10.001  10.155 -0.4512 -0.6544  0.3568
68371SOL    HW215428   3.710  10.116  10.252 -0.8726 -1.0816  0.9358
68372SOL     OW15429  10.137   1.146   4.163  0.0840  0.0588 -0.8412
68372SOL    HW115430  10.066   1.209   4.151 -0.8815 -0.6074  0.9604
68372SOL    HW215431  10.216   1.193   4.135 -0.5992  2.1080  0.4131
68373SOL     OW15432   2.324  10.163   4.609  0.5966  0.6672 -0.1377
68373SOL    HW115433   2.340  10.201   4.523 -0.0036  2.2096  0.4084
68373SOL    HW215434   2.246  10.207   4.642 -0.1485 -1.0638  0.5405
68374SOL     OW15435   5.509   1.413   2.357 -0.0313 -0.0784  0.0025
68374SOL    HW115436   5.554   1.481   2.407 -1.3017  1.4880 -0.9256
68374SOL    HW215437   5.484   1.348   2.423  1.5577  0.1093  0.8473
68375SOL     OW15438   7.381   8.535   2.437 -0.2544  0.0731 -0.2878
68375SOL    HW115439   7.430   8.456   2.460 -0.2752  0.0704 -0.2540
68375SOL    HW215440   7.382   8.537   2.341 -0.7239 -0.2663 -0.3070
68376SOL     OW15441  12.948   3.354   5.681 -0.0554 -0.2763 -0.3802
68376SOL    HW115442  12.946   3.342   5.775 -0.5606 -0.1587 -0.3736
68376SOL    HW215443  12.881   3.420   5.664  1.1899  0.9775 -0.6320
68377SOL     OW15444   8.293   5.752   8.752 -0.0646 -0.0125  0.1292
68377SOL    HW115445   8.347   5.828   8.728  1.7203 -1.3072 -0.2221
68377SOL    HW215446   8.248   5.729   8.671  0.1575  0.1062 -0.0310
68378SOL     OW15447  12.882   5.706   9.512 -0.0246 -0.2738 -0.0362
68378SOL    HW115448  12.919   5.697   9.600  0.0467  0.6982  0.0463
68378SOL    HW215449  12.841   5.793   9.512 -1.1053 -0.7579 -0.5716
68379SOL     OW15450   1.242   6.816  12.834  0.0074  0.3862  0.3275
68379SOL    HW115451   1.330   6.806  12.797 -0.2223  0.6228 -0.2860
68379SOL    HW215452   1.187   6.758  12.781 -0.3976  1.0295  0.0368
68380SOL     OW15453   3.261  12.658  10.892  0.2760 -0.0669 -0.3231
68380SOL    HW115454   3.349  12.634  10.863  1.0519  0.4308  1.4381
68380SOL    HW215455   3.256  12.625  10.982 -0.7460  1.2728  0.1438
68381SOL     OW15456   0.662  11.262   3.566  0.1681  0.2619  0.4787
68381SOL    HW115457   0.723  11.287   3.635 -1.1746  1.3498  1.3353
68381SOL    HW215458   0.717  11.236   3.493  1.6543  1.1164  1.2524
68382SOL     OW15459   1.831  11.050   5.608 -0.0251  0.0063  0.6284
68382SOL    HW115460   1.871  11.116   5.665  0.9882  1.0510 -1.1934
68382SOL    HW215461   1.901  10.987   5.592 -0.4726 -0.5804  0.9513
68383SOL     OW15462   6.295   9.131   8.859  0.8276  0.0341  0.2501
68383SOL    HW115463   6.319   9.052   8.908  0.8764  0.2487  0.5687
68383SOL    HW215464   6.221   9.167   8.908  0.9009  0.2679  0.1849
68384SOL     OW15465   2.857   0.334   0.615 -0.0048  0.3568 -0.3637
68384SOL    HW115466   2.834   0.380   0.695 -0.7752  3.3613 -2.1599
68384SOL    HW215467   2.781   0.278   0.597 -0.2660  0.4384  0.4630
68385SOL     OW15468  11.296   8.907   5.122  0.0914 -0.0175  0.4770
68385SOL    HW115469  11.277   9.000   5.105 -0.6091  0.0171  1.3625
68385SOL    HW215470  11.216   8.873   5.160  0.0564 -1.2122 -0.6057
68386SOL     OW15471  12.207   8.502   0.807  0.3559 -0.6408  0.3147
68386SOL    HW115472  12.158   8.551   0.741 -0.0652  0.6769  1.5603
68386SOL    HW215473  12.150   8.429   0.830  0.5391 -1.1638 -0.7935
68387SOL     OW15474  11.237   1.073   0.282 -0.1285 -0.0476  0.5814
68387SOL    HW115475  11.290   1.084   0.203 -0.4850 -0.5655  0.2664
68387SOL    HW215476  11.146   1.075   0.251 -0.2930  0.5864  1.0850
68388SOL     OW15477   6.135   5.225   6.242  0.0390 -0.5616 -0.1783
68388SOL    HW115478   6.226   5.252   6.255 -0.2645  0.5421 -0.2628
68388SOL    HW215479   6.084   5.284   6.298 -0.5632 -1.7950  0.6277
68389SOL     OW15480  10.921   9.234   6.742 -0.0648  0.0760  0.1974
68389SOL    HW115481  10.962   9.245   6.828  0.3258  1.3431 -0.1235
68389SOL    HW215482  10.953   9.149   6.711  0.4251 -0.0287  0.9660
68390SOL     OW15483   8.033  12.300   9.344 -0.1812 -0.3585  0.0889
68390SOL    HW115484   7.955  12.325   9.393  2.2524  3.6330  2.6139
68390SOL    HW215485   8.008  12.306   9.252 -2.5723  2.1085  0.7860
68391SOL     OW15486  11.861   9.190  12.490 -0.2581 -0.1987 -0.1109
68391SOL    HW115487  11.864   9.100  12.459 -1.1390 -0.3054  0.0916
68391SOL    HW215488  11.837   9.241  12.412  0.1766 -0.1352 -0.2100
68392SOL     OW15489  11.678   8.089  10.196  0.7511  0.2086  0.4793
68392SOL    HW115490  11.680   8.091  10.292 -2.4956  0.8538  0.6676
68392SOL    HW215491  11.688   7.997  10.174  0.5702 -0.0804  1.5340
68393SOL     OW15492   6.310   9.551   2.864  0.3726 -0.1328 -0.3190
68393SOL    HW115493   6.386   9.513   2.820  0.5601  1.2648 -1.2697
68393SOL    HW215494   6.322   9.646   2.855 -1.0668  0.1253  0.2279
68394SOL     OW15495  10.306  12.551  11.314  0.1098  0.2647 -0.5913
68394SOL    HW115496  10.234  12.608  11.286 -1.2348  0.1729  2.3505
68394SOL    HW215497  10.270  12.462  11.308  0.6408  0.0669 -0.8845
68395SOL     OW15498   4.574   9.880  10.754 -0.1901 -0.3891  0.2922
68395SOL    HW115499   4.590   9.973  10.738 -1.5455  0.0462  1.3449
68395SOL    HW215500   4.483   9.875  10.782 -0.0397 -1.9995  0.6095
68396SOL     OW15501   2.606  11.966   9.028 -0.2924  0.5604 -0.2378
68396SOL    HW115502   2.562  12.014   9.098 -0.4609 -0.5033  0.4095
68396SOL    HW215503   2.698  11.991   9.035 -0.4127  0.9648 -0.0691
68397SOL     OW15504  12.826   8.609  12.051 -0.2372 -0.3157 -0.0826
68397SOL    HW115505  12.895   8.592  12.114 -0.5771 -2.2250 -0.1389
68397SOL    HW215506  12.745   8.603  12.102 -0.4205  1.0674 -0.1751
68398SOL     OW15507   0.989   7.364   0.009 -0.6459  0.1918 -0.2476
68398SOL    HW115508   0.978   7.420   0.085  0.4348  0.4180 -0.2423
68398SOL    HW215509   1.032   7.419  -0.056  0.7978 -0.7094 -0.1050
68399SOL     OW15510   0.678   2.652   9.304 -0.3685 -0.8747 -0.4204
68399SOL    HW115511   0.589   2.687   9.308 -0.3127 -0.8056  0.6791
68399SOL    HW215512   0.696   2.642   9.211 -1.2849 -0.2789 -0.6757
68400SOL     OW15513   3.669   2.803   8.675  0.0452  0.1504 -0.1726
68400SOL    HW115514   3.589   2.848   8.703  0.2862 -0.5519  1.7792
68400SOL    HW215515   3.735   2.872   8.671 -0.0501  0.3002  0.8096
68401SOL     OW15516   9.461   0.729   1.625 -0.2064  0.2033  0.1452
68401SOL    HW115517   9.465   0.718   1.530  1.6842  0.0324  0.1974
68401SOL    HW215518   9.379   0.687   1.651  0.1320 -1.4095 -1.2215
68402SOL     OW15519   8.872   6.294   3.565 -0.1537 -0.3685  0.6764
68402SOL    HW115520   8.862   6.367   3.625 -0.0606  0.0282  0.2135
68402SOL    HW215521   8.864   6.333   3.477  1.4089 -0.6524  0.3762
68403SOL     OW15522   4.845  12.460   7.078  0.7998  0.8233 -0.0789
68403SOL    HW115523   4.921  12.509   7.048  0.8066  0.5081 -0.5813
68403SOL    HW215524   4.881  12.382   7.120  0.7537  0.5321 -0.5694
68404SOL     OW15525  10.501   1.011  10.751 -0.2232  0.3054 -0.0796
68404SOL    HW115526  10.462   0.991  10.836 -0.2622 -0.5383 -0.2851
68404SOL    HW215527  10.561   1.084  10.769 -1.3911  1.2006  0.3632
68405SOL     OW15528   6.003  12.229   1.502 -0.3730 -0.0154 -0.1478
68405SOL    HW115529   5.925  12.177   1.482 -1.1111  0.4742  1.3025
68405SOL    HW215530   6.011  12.225   1.597 -0.1661  2.0795 -0.0148
68406SOL     OW15531   7.420   9.310   3.507  0.6306 -0.3332  0.0930
68406SOL    HW115532   7.459   9.381   3.456 -0.9499  0.5506  0.0405
68406SOL    HW215533   7.352   9.353   3.558 -0.2079 -1.7944  0.2510
68407SOL     OW15534   2.408   1.131   4.983 -0.0253  0.1492  0.3724
68407SOL    HW115535   2.351   1.098   5.053  0.3331 -1.5820 -0.0952
68407SOL    HW215536   2.497   1.113   5.014  0.1916  0.7857  0.1326
68408SOL     OW15537  11.854   5.689   7.190 -0.4273 -0.2238  0.2019
68408SOL    HW115538  11.794   5.661   7.259  0.4279  0.5565  1.2865
68408SOL    HW215539  11.799   5.697   7.112 -1.6510  0.0894  1.0765
68409SOL     OW15540   2.929  10.079   8.260 -0.0045  0.5794  0.4119
68409SOL    HW115541   2.870  10.108   8.191 -2.1024  2.4144  2.7790
68409SOL    HW215542   2.920   9.983   8.261  0.2003  0.4788 -1.8410
68410SOL     OW15543  11.729   6.093   8.920 -0.2175 -0.3036 -0.2831
68410SOL    HW115544  11.684   6.019   8.960 -1.9548  1.1032  0.5313
68410SOL    HW215545  11.660   6.142   8.876  0.7930  1.0731 -0.4069
68411SOL     OW15546  11.026   1.701   2.361 -0.4466 -0.2826  0.7865
68411SOL    HW115547  11.073   1.709   2.278 -0.0573  0.5775  1.0773
68411SOL    HW215548  10.936   1.727   2.340 -0.6526 -1.2669  0.3787
68412SOL     OW15549   6.463   8.135   8.390  0.0593  0.6634 -0.3679
68412SOL    HW115550   6.440   8.147   8.298  0.1726 -0.5226 -0.5712
68412SOL    HW215551   6.398   8.187   8.438  0.3018  1.6912 -1.1188
68413SOL     OW15552   7.846  12.675   5.149 -0.0268  0.0535  0.5111
68413SOL    HW115553   7.897  12.737   5.202 -1.1560  0.2162  1.4499
68413SOL    HW215554   7.841  12.596   5.204  0.1830 -0.3736 -0.0712
68414SOL     OW15555   6.117   4.599   3.272  0.9136 -0.1950  0.0172
68414SOL    HW115556   6.161   4.549   3.204  2.2296  0.4353  0.3675
68414SOL    HW215557   6.186   4.616   3.337  0.2026  0.9922  0.4852
68415SOL     OW15558  12.504   1.285  10.242 -0.1508  0.2072  0.0935
68415SOL    HW115559  12.580   1.238  10.279  0.7813  1.1572 -0.5726
68415SOL    HW215560  12.483   1.237  10.162  0.2705  0.4388 -0.1545
68416SOL     OW15561   9.693   5.853   9.801 -0.5149  0.0682  0.0582
68416SOL    HW115562   9.739   5.856   9.717  1.2981 -1.1333  0.9486
68416SOL    HW215563   9.753   5.897   9.862 -0.6569 -1.2786  1.2064
68417SOL     OW15564   2.430   1.116   2.913 -0.4341  0.0699  0.5026
68417SOL    HW115565   2.377   1.195   2.909  2.6109  2.2120 -1.0467
68417SOL    HW215566   2.442   1.100   3.007 -2.0934  0.6884  0.8455
68418SOL     OW15567   0.215   7.769   6.646 -0.4080 -0.1061  0.3269
68418SOL    HW115568   0.157   7.827   6.597 -2.1247 -2.0797 -0.1488
68418SOL    HW215569   0.238   7.700   6.584  1.3343 -0.1424  0.9473
68419SOL     OW15570   7.898  12.130   2.703  0.4526  0.5160 -0.8534
68419SOL    HW115571   7.923  12.052   2.753  0.3808  2.2468  2.1119
68419SOL    HW215572   7.976  12.150   2.651  1.1571 -0.4886 -0.2311
68420SOL     OW15573   9.308   2.388   1.329 -0.6991 -0.6502 -0.0617
68420SOL    HW115574   9.387   2.433   1.299 -0.4787 -0.2926  1.0122
68420SOL    HW215575   9.335   2.296   1.337  0.0937 -0.3210  1.7247
68421SOL     OW15576   5.026   7.640   0.948 -0.5426  0.7731 -0.4409
68421SOL    HW115577   5.002   7.639   1.041 -1.9765  0.2808 -0.7945
68421SOL    HW215578   5.067   7.726   0.936 -2.6841  1.9663  0.1247
68422SOL     OW15579   5.831   9.406   6.102  0.7751 -0.3174 -0.1262
68422SOL    HW115580   5.757   9.463   6.123 -0.0825 -0.7613 -1.6950
68422SOL    HW215581   5.794   9.317   6.107  1.0375 -0.5202 -1.4291
68423SOL     OW15582   8.261   6.667   7.633  0.5096  0.3527  0.3897
68423SOL    HW115583   8.316   6.693   7.559  0.6802 -0.1013  0.3567
68423SOL    HW215584   8.191   6.614   7.595  1.0296 -0.5320  0.6389
68424SOL     OW15585   3.978   2.406   0.490  0.5032  0.1274 -0.0227
68424SOL    HW115586   3.934   2.326   0.519  1.0152 -0.6089 -1.2443
68424SOL    HW215587   3.913   2.451   0.436  0.7819 -0.2798 -0.6958
68425SOL     OW15588  10.408   1.529   6.538  0.5311  0.1724  0.0712
68425SOL    HW115589  10.493   1.488   6.522  0.8857  0.5779  0.8631
68425SOL    HW215590  10.429   1.618   6.566 -0.2148  0.7334 -1.0808
68426SOL     OW15591  12.972  12.562   3.107  0.1408  0.0390  0.8130
68426SOL    HW115592  12.997  12.470   3.113  0.7665  0.2078  0.8670
68426SOL    HW215593  12.929  12.571   3.023 -0.8023 -0.5117  1.2290
68427SOL     OW15594   6.291   4.415   5.982  0.4829  0.2542  0.0692
68427SOL    HW115595   6.232   4.342   5.961  0.3113  0.5456 -0.4709
68427SOL    HW215596   6.235   4.478   6.027  0.8432 -0.3566  1.4327
68428SOL     OW15597   4.261   4.956   2.848  0.0705 -0.3564  0.1062
68428SOL    HW115598   4.269   4.861   2.855  0.9312 -0.2687  0.4081
68428SOL    HW215599   4.315   4.980   2.773 -1.3053 -0.2416 -0.8945
68429SOL     OW15600   0.598   5.126  10.778 -0.5493  0.1610 -0.0095
68429SOL    HW115601   0.573   5.112  10.686 -1.1828  0.8498  0.0433
68429SOL    HW215602   0.539   5.196  10.808  0.1774  0.4875  0.6932
68430SOL     OW15603   6.292  12.750   2.080 -0.3741 -0.4086  0.3646
68430SOL    HW115604   6.375  12.797   2.075 -1.2295  1.3512  1.5630
68430SOL    HW215605   6.236  12.792   2.014 -0.4283 -1.3788 -0.2285
68431SOL     OW15606   2.855   2.686   3.208 -0.1439 -0.4751 -0.0013
68431SOL    HW115607   2.760   2.698   3.210  0.1185  2.0888  1.6813
68431SOL    HW215608   2.876   2.650   3.294  0.5084  0.0527  0.0616
68432SOL     OW15609   4.161   3.947   0.869  0.1148 -0.0986 -0.4675
68432SOL    HW115610   4.231   3.924   0.807 -0.9682 -1.0065 -1.4196
68432SOL    HW215611   4.196   3.924   0.955  0.1223 -2.9506 -1.1348
68433SOL     OW15612   2.922  10.896   0.673 -0.6712 -0.0213 -0.3838
68433SOL    HW115613   2.831  10.926   0.663 -0.5161  0.7988  0.5184
68433SOL    HW215614   2.923  10.808   0.635 -1.6037  0.3596 -1.3450
68434SOL     OW15615   7.166   2.733  11.318 -0.6651  0.1430 -0.2586
68434SOL    HW115616   7.153   2.820  11.356  0.7503 -0.6034  2.2374
68434SOL    HW215617   7.260   2.730  11.298 -0.4658 -1.1084  0.6985
68435SOL     OW15618  11.245  11.857  11.990  0.1009 -0.5002  0.1554
68435SOL    HW115619  11.334  11.823  11.974  0.6352 -0.0391  1.9239
68435SOL    HW215620  11.243  11.876  12.084 -2.2069 -1.3941  0.3490
68436SOL     OW15621  12.337  11.141   3.177  0.3148  0.0353  0.1660
68436SOL    HW115622  12.251  11.112   3.147  0.1066  0.1258  0.6698
68436SOL    HW215623  12.385  11.161   3.096 -0.4125  0.7814 -0.1025
68437SOL     OW15624   2.575  12.562   8.605 -0.3074 -0.6562  0.5701
68437SOL    HW115625   2.658  12.519   8.627  0.8721 -0.3597 -2.6553
68437SOL    HW215626   2.575  12.643   8.655  1.6979 -0.3957  0.2323
68438SOL     OW15627   2.736   9.006   9.030 -0.1164 -0.3156 -0.3808
68438SOL    HW115628   2.765   9.020   9.120  0.3871  1.0475 -0.7249
68438SOL    HW215629   2.792   8.936   8.997  1.4247  0.8681 -0.3827
68439SOL     OW15630  11.158   5.940   1.524  0.2959  0.0690  0.2341
68439SOL    HW115631  11.238   5.970   1.567 -0.8004  1.2426  1.5386
68439SOL    HW215632  11.093   5.935   1.594 -0.5389 -1.9095 -0.5953
68440SOL     OW15633  10.747   1.897   9.824 -0.1167  0.1214  1.2502
68440SOL    HW115634  10.723   1.808   9.851  1.5703 -0.5195  0.7317
68440SOL    HW215635  10.802   1.929   9.895  0.9817 -0.0407  0.4860
68441SOL     OW15636   1.376   6.198   9.533  0.0863  0.1534 -0.0655
68441SOL    HW115637   1.433   6.272   9.551 -0.9850  1.2477 -0.9674
68441SOL    HW215638   1.411   6.158   9.454  0.9506 -0.6444  0.6885
68442SOL     OW15639   6.879   9.341   0.271  0.3836 -0.0768  0.1101
68442SOL    HW115640   6.948   9.352   0.206 -1.2062  0.4231 -1.5912
68442SOL    HW215641   6.840   9.256   0.250  0.1487 -0.1149  0.7016
68443SOL     OW15642   3.001   7.068  10.262  0.1502  0.0443  0.0545
68443SOL    HW115643   2.951   7.148  10.276 -1.0466 -0.9864  2.2241
68443SOL    HW215644   2.944   7.014  10.207 -0.9227 -0.8691  1.9799
68444SOL     OW15645  12.935   7.513   7.793  0.2858 -0.3066  0.3469
68444SOL    HW115646  13.014   7.477   7.753  0.1435 -0.7684  0.4797
68444SOL    HW215647  12.966   7.557   7.872  0.7121  1.5247 -0.7917
68445SOL     OW15648  10.118   1.060  10.448 -0.2317  0.2500 -0.2446
68445SOL    HW115649  10.089   1.089  10.535  0.7616  0.6014 -0.0083
68445SOL    HW215650  10.214   1.059  10.455 -0.0870  1.4267 -1.6876
68446SOL     OW15651   4.151   3.873   9.356  0.2674  0.3315  0.5483
68446SOL    HW115652   4.196   3.823   9.423 -0.1670 -0.9298 -0.0708
68446SOL    HW215653   4.060   3.841   9.358  0.7065 -1.4247 -2.1070
68447SOL     OW15654   4.240   3.864   7.911 -0.3431  0.5831 -0.0590
68447SOL    HW115655   4.185   3.897   7.983 -0.6872  1.5466 -0.7542
68447SOL    HW215656   4.297   3.799   7.953 -1.7323 -0.1681  0.7674
68448SOL     OW15657  12.241   6.754   1.214  0.1491  0.0871  1.2589
68448SOL    HW115658  12.221   6.829   1.158  1.4439  1.0526  2.0467
68448SOL    HW215659  12.167   6.749   1.274 -0.8253 -0.4172  0.0667
68449SOL     OW15660   2.796  10.673   5.395 -0.4590  0.1409  0.0074
68449SOL    HW115661   2.843  10.685   5.478 -0.9350 -1.0199  0.4736
68449SOL    HW215662   2.863  10.681   5.328 -0.0334  0.9467  0.5153
68450SOL     OW15663   1.534   6.558   5.694  0.0606 -0.0833  0.2229
68450SOL    HW115664   1.515   6.470   5.660 -0.9558 -0.2335  1.1011
68450SOL    HW215665   1.451   6.605   5.684  0.2714  0.4172  0.7988
68451SOL     OW15666   5.507   9.336   8.007  0.0661 -0.7292  0.0781
68451SOL    HW115667   5.594   9.377   8.003  0.6112 -1.8851 -0.1002
68451SOL    HW215668   5.524   9.243   8.021 -1.1962 -0.6969  2.2664
68452SOL     OW15669  12.773   6.820   2.830 -0.6133  0.4315 -0.4458
68452SOL    HW115670  12.725   6.783   2.905 -1.8084  2.5481 -0.0828
68452SOL    HW215671  12.724   6.790   2.753 -0.3825 -0.3677 -0.2879
68453SOL     OW15672  11.350   1.882   2.453  0.3349  0.3395  0.7499
68453SOL    HW115673  11.300   1.901   2.375  1.0215 -1.0944 -0.0883
68453SOL    HW215674  11.332   1.955   2.513 -0.9989  0.9315 -0.3417
68454SOL     OW15675   0.821   6.298   5.691 -0.1558  0.2586  0.4538
68454SOL    HW115676   0.737   6.265   5.722 -1.7349  0.1308 -3.4197
68454SOL    HW215677   0.820   6.391   5.712 -2.0220  0.5792 -0.8852
68455SOL     OW15678   8.037   0.393  10.932 -0.0360  0.1182  0.3812
68455SOL    HW115679   7.952   0.436  10.921 -0.4835 -0.6533  0.7365
68455SOL    HW215680   8.033   0.354  11.019  1.6085  2.0620  1.3825
68456SOL     OW15681   3.119   1.226   3.733  0.1394 -0.3988  0.0176
68456SOL    HW115682   3.204   1.182   3.735 -0.1395 -0.9297  0.3036
68456SOL    HW215683   3.055   1.155   3.728 -0.2757  0.0081 -0.6778
68457SOL     OW15684  10.039   2.560   7.306  0.0784 -0.1591 -0.3602
68457SOL    HW115685  10.133   2.547   7.300  0.6909  0.8113  3.8635
68457SOL    HW215686  10.008   2.483   7.355 -0.5040  1.4247  1.9383
68458SOL     OW15687   4.633   1.696   4.821 -0.4242  0.3324 -0.3345
68458SOL    HW115688   4.715   1.649   4.806 -1.2441 -1.8167  1.4088
68458SOL    HW215689   4.648   1.783   4.785  2.1274 -0.4207 -1.2792
68459SOL     OW15690   6.652   2.230   5.825  0.4097 -0.2329  0.0074
68459SOL    HW115691   6.582   2.166   5.833  1.5660 -1.6384 -0.6300
68459SOL    HW215692   6.721   2.184   5.778  1.1394  1.6176 -0.8454
68460SOL     OW15693   1.128   7.889  11.780  0.0604 -0.3058 -0.1099
68460SOL    HW115694   1.097   7.968  11.737 -0.0448  0.7973  1.8580
68460SOL    HW215695   1.221   7.905  11.795  0.2528 -0.9793 -0.5450
68461SOL     OW15696   9.553  11.362   7.731  0.7005 -0.4294  0.0041
68461SOL    HW115697   9.476  11.381   7.786  1.3964 -1.3636  1.3535
68461SOL    HW215698   9.540  11.416   7.653 -0.2999  1.0106  1.1084
68462SOL     OW15699   5.943   7.319   9.497 -0.0600  0.0259  0.2423
68462SOL    HW115700   5.986   7.235   9.481 -0.3958  0.1012 -1.1614
68462SOL    HW215701   5.878   7.326   9.427 -0.7241  0.9962  0.9406
68463SOL     OW15702   1.973   8.154  11.241  0.6135  0.1235  0.1449
68463SOL    HW115703   1.940   8.232  11.196 -0.2316 -0.2529  0.0951
68463SOL    HW215704   2.063   8.146  11.211  0.0532 -0.1737 -1.5997
68464SOL     OW15705  11.979  10.661   0.957  0.3366  0.1788  0.3843
68464SOL    HW115706  11.918  10.588   0.968 -2.0156  0.9733 -4.5837
68464SOL    HW215707  11.940  10.732   1.007 -1.3656 -0.1442 -0.3846
68465SOL     OW15708   9.627   5.855   5.176  0.0761 -0.3020 -0.2200
68465SOL    HW115709   9.684   5.797   5.126  0.0461  0.4819 -1.1989
68465SOL    HW215710   9.541   5.813   5.172  0.0933 -0.2919 -0.7621
68466SOL     OW15711   9.786   3.552  12.078 -0.0838 -0.2459  0.1520
68466SOL    HW115712   9.876   3.542  12.046 -0.1598  0.1902 -0.1916
68466SOL    HW215713   9.739   3.476  12.042  0.0015 -0.1479 -0.1666
68467SOL     OW15714   6.344  11.960   3.465  0.3487 -0.4104 -0.6850
68467SOL    HW115715   6.413  11.985   3.527 -0.0406 -2.1960  0.5264
68467SOL    HW215716   6.306  12.044   3.437  0.5816  0.4575  1.4382
68468SOL     OW15717  11.006   2.616   9.931  0.3250 -0.1109 -0.0486
68468SOL    HW115718  10.991   2.688   9.870  3.3177  0.6690 -0.0473
68468SOL    HW215719  11.046   2.548   9.878 -0.7277 -1.0339  0.3184
68469SOL     OW15720  10.079   3.719   5.589  0.2791  0.0855  0.2638
68469SOL    HW115721  10.120   3.677   5.664 -1.2742 -1.0443  0.5303
68469SOL    HW215722   9.988   3.734   5.616 -0.6786 -1.5183 -1.7524
68470SOL     OW15723  11.568   9.456   2.043 -0.0640  0.2681  0.3023
68470SOL    HW115724  11.618   9.515   1.987 -0.2656  0.3383  0.1987
68470SOL    HW215725  11.633   9.420   2.103  0.2650 -0.2802 -0.3683
68471SOL     OW15726   5.855  10.925   4.881 -0.0123 -0.0470 -0.3064
68471SOL    HW115727   5.795  10.873   4.826 -0.6212 -1.8664  1.9498
68471SOL    HW215728   5.814  11.011   4.884  0.0377  0.1377 -2.6349
68472SOL     OW15729   8.206  11.508  10.835  0.0930 -0.2428 -0.0737
68472SOL    HW115730   8.267  11.498  10.762 -0.8346 -2.3311 -0.6270
68472SOL    HW215731   8.196  11.602  10.845  1.6127  0.1078 -1.4717
68473SOL     OW15732   3.673   7.010  12.684  0.4794  0.2220 -0.2944
68473SOL    HW115733   3.673   6.929  12.634 -0.8504 -1.1845  1.8112
68473SOL    HW215734   3.684   6.982  12.775  0.9977  2.4964  0.4093
68474SOL     OW15735  10.245   2.817   0.426  0.3144 -0.0132  0.0694
68474SOL    HW115736  10.256   2.722   0.433 -0.8248 -0.1635  0.0970
68474SOL    HW215737  10.334   2.851   0.416  0.6624 -1.1559 -0.9548
68475SOL     OW15738   6.361   1.888  10.767 -0.2339  0.0955 -0.0818
68475SOL    HW115739   6.329   1.889  10.857 -0.6048  0.0690 -0.2112
68475SOL    HW215740   6.445   1.842  10.772  0.2956  1.0908  0.4205
68476SOL     OW15741   2.648   2.782   4.040  0.1324  0.2028 -0.0502
68476SOL    HW115742   2.675   2.727   4.114  1.4373  0.6499 -0.1718
68476SOL    HW215743   2.683   2.738   3.963  1.2164  1.1841 -0.1485
68477SOL     OW15744   8.513  12.879   6.896 -0.0012  0.0079 -0.1523
68477SOL    HW115745   8.583  12.816   6.915  0.7468  0.8350 -0.1017
68477SOL    HW215746   8.460  12.880   6.976  0.5258  0.1307  0.2043
68478SOL     OW15747   8.524   5.788   3.333  0.3571  0.2487 -0.4050
68478SOL    HW115748   8.577   5.868   3.324  0.8566  0.3715  2.6339
68478SOL    HW215749   8.577   5.720   3.292  2.9575  0.4153  2.3127
68479SOL     OW15750   6.178   8.477   2.750  0.6988  0.1221  0.0150
68479SOL    HW115751   6.227   8.558   2.735 -1.3522  1.3165 -0.5829
68479SOL    HW215752   6.116   8.473   2.678 -2.1903  0.3340  2.2965
68480SOL     OW15753  10.817   7.551   5.276 -0.7591  0.3008 -0.4283
68480SOL    HW115754  10.784   7.619   5.334  1.5765  0.1492  1.2424
68480SOL    HW215755  10.811   7.471   5.328  0.6327  0.0140 -0.6676
68481SOL     OW15756   6.417   1.029   8.666 -0.1144  0.5063  0.1569
68481SOL    HW115757   6.458   0.992   8.744 -0.5729  1.0682  0.6795
68481SOL    HW215758   6.436   1.122   8.671 -0.2452  0.5626 -0.3482
68482SOL     OW15759   4.306   6.809   3.280 -0.1697 -0.2485  0.3176
68482SOL    HW115760   4.338   6.894   3.248 -0.0726  0.2550  1.7068
68482SOL    HW215761   4.282   6.761   3.200 -1.1792  1.4576 -0.4603
68483SOL     OW15762   1.863   4.248   1.070  0.4682 -0.2097 -0.1874
68483SOL    HW115763   1.933   4.312   1.078 -0.5853  0.8759  0.7043
68483SOL    HW215764   1.794   4.294   1.023  0.2624 -1.2004 -0.8809
68484SOL     OW15765   9.705   4.886   9.989  0.0107  0.3802 -0.4351
68484SOL    HW115766   9.760   4.946   9.939 -1.6378  1.6384 -0.8307
68484SOL    HW215767   9.651   4.943  10.045 -1.0657 -0.7593 -0.2556
68485SOL     OW15768   2.772   7.275   4.151  0.2306  0.4901  0.1152
68485SOL    HW115769   2.787   7.370   4.157  0.1436  0.4572  0.9405
68485SOL    HW215770   2.707   7.256   4.218  1.3340 -0.3747  0.9737
68486SOL     OW15771   8.755   9.047   9.894 -0.0070  0.1380 -0.4182
68486SOL    HW115772   8.809   8.971   9.869  0.1888  0.3698 -0.7054
68486SOL    HW215773   8.812   9.098   9.951 -0.7855 -0.8866  1.3382
68487SOL     OW15774   1.293   0.117   6.325  0.4911 -0.3845 -0.2116
68487SOL    HW115775   1.381   0.120   6.286  0.2983  3.4629 -0.7563
68487SOL    HW215776   1.306   0.145   6.415 -0.2452  1.7609 -0.7130
68488SOL     OW15777  10.136   4.669   4.871 -0.6088  0.5574 -0.0005
68488SOL    HW115778  10.068   4.729   4.902 -0.0354  1.9455 -1.3075
68488SOL    HW215779  10.205   4.674   4.937 -2.0180 -1.4691  1.7563
68489SOL     OW15780  12.159   5.085   9.292 -0.2668 -0.1447  0.2629
68489SOL    HW115781  12.197   5.150   9.351  0.3781 -3.3156  3.7182
68489SOL    HW215782  12.067   5.081   9.318 -0.4823 -0.0743 -0.4747
68490SOL     OW15783   5.190  12.124  10.157 -0.2148 -0.1832 -0.0703
68490SOL    HW115784   5.213  12.057  10.222  0.1257  0.0156  0.0106
68490SOL    HW215785   5.109  12.090  10.117 -0.5355 -0.2180  0.5836
68491SOL     OW15786  11.630   3.066   7.683  0.4840 -0.6555 -0.1984
68491SOL    HW115787  11.576   3.093   7.609  1.0960  1.3193  0.0143
68491SOL    HW215788  11.646   2.973   7.668 -2.1689 -1.0830 -0.7328
68492SOL     OW15789   0.477   3.426  12.481  0.6526 -0.5158  0.2779
68492SOL    HW115790   0.455   3.518  12.497  0.5446 -0.8469  2.2361
68492SOL    HW215791   0.503   3.392  12.567 -1.2286 -2.8519  0.0235
68493SOL     OW15792   2.906   4.731   3.158  0.1046 -0.3055 -0.6377
68493SOL    HW115793   2.964   4.791   3.204  1.0039 -1.0347 -0.7919
68493SOL    HW215794   2.964   4.678   3.103 -0.5696 -1.7192 -0.0488
68494SOL     OW15795   5.057   5.757   2.169 -0.8250 -0.2258  0.6634
68494SOL    HW115796   5.019   5.780   2.084  0.1272 -0.0596  0.2743
68494SOL    HW215797   5.015   5.816   2.231  0.6023  1.7076 -0.1213
68495SOL     OW15798   0.451  10.689   8.181  0.0027  0.0931  0.6019
68495SOL    HW115799   0.376  10.639   8.149 -0.2389 -0.6967  2.2734
68495SOL    HW215800   0.527  10.634   8.160 -0.2196 -0.8009  1.9764
68496SOL     OW15801   3.908   2.137   4.340 -0.1602 -0.3764 -0.4409
68496SOL    HW115802   3.975   2.159   4.276  0.7102  0.8865  0.8517
68496SOL    HW215803   3.942   2.169   4.423 -1.1430 -2.1844  0.7350
68497SOL     OW15804   6.412   8.136   5.262  0.2252 -0.4824 -0.3412
68497SOL    HW115805   6.407   8.148   5.357 -0.5968  1.2705 -0.5693
68497SOL    HW215806   6.506   8.130   5.244  0.5430  1.5284  0.3738
68498SOL     OW15807   0.436   8.202  12.137 -0.0278 -0.8082 -0.2329
68498SOL    HW115808   0.389   8.147  12.199 -1.1080  0.7564  0.3931
68498SOL    HW215809   0.388   8.285  12.137  0.9474 -0.1959 -1.8962
68499SOL     OW15810   3.351   8.857  12.291 -0.2162 -0.0672 -0.0037
68499SOL    HW115811   3.370   8.947  12.315  0.3094  0.1121 -1.0506
68499SOL    HW215812   3.358   8.808  12.373  0.4840  0.6911  0.3955
68500SOL     OW15813   2.405   1.996  11.791  0.1889  0.1382 -0.9470
68500SOL    HW115814   2.499   1.978  11.792  0.5339  1.3811  1.9576
68500SOL    HW215815   2.398   2.086  11.821 -1.9571 -0.0953 -0.5679
68501SOL     OW15816   7.617   8.566   4.095  0.6538  0.3206 -0.4111
68501SOL    HW115817   7.668   8.645   4.109  0.5746  0.0795  1.5609
68501SOL    HW215818   7.527   8.596   4.084  0.8852  0.6028 -1.6672
68502SOL     OW15819   7.702   1.161  10.949 -0.8252  0.0708 -0.9179
68502SOL    HW115820   7.788   1.159  10.908 -0.3659  0.4768  0.0107
68502SOL    HW215821   7.674   1.252  10.943  0.3120  0.6811  1.7849
68503SOL     OW15822   0.566   4.938  10.510 -0.0783 -0.5273 -0.0045
68503SOL    HW115823   0.476   4.905  10.513 -0.4142  0.1658 -1.4405
68503SOL    HW215824   0.621   4.859  10.509 -0.6601 -0.9541  0.8166
68504SOL     OW15825   1.018  11.094  12.095 -0.5392 -0.0422 -0.2997
68504SOL    HW115826   1.020  11.184  12.129 -1.0751  0.1196 -0.6858
68504SOL    HW215827   0.926  11.067  12.104 -0.7865  0.1391 -1.9326
68505SOL     OW15828   6.387   7.958   1.248 -0.0766  0.5850  0.0815
68505SOL    HW115829   6.437   8.024   1.199  1.7838 -0.9291 -0.2079
68505SOL    HW215830   6.297   7.970   1.220  0.3043  2.5879 -0.4217
68506SOL     OW15831   1.499   0.921   5.662 -0.7101 -0.3122  0.3764
68506SOL    HW115832   1.488   0.990   5.727 -1.2918 -2.2682  2.4616
68506SOL    HW215833   1.449   0.847   5.696 -1.1960 -1.4008 -2.4109
68507SOL     OW15834   3.438   3.982  11.354 -0.2414  0.2639 -0.9569
68507SOL    HW115835   3.371   3.939  11.406  0.0468  1.7919  0.7932
68507SOL    HW215836   3.486   3.911  11.313 -0.8731 -0.9897  0.3819
68508SOL     OW15837   2.449  12.048  12.300  0.0805 -0.8028  0.0059
68508SOL    HW115838   2.482  12.131  12.266  0.9435 -0.2813  1.9486
68508SOL    HW215839   2.517  11.984  12.277  0.0900 -0.6995 -0.2572
68509SOL     OW15840   2.092   6.906   9.834  0.0427  0.3392  0.3490
68509SOL    HW115841   2.154   6.972   9.866  1.3668 -0.2903 -0.7962
68509SOL    HW215842   2.076   6.930   9.743 -0.2095 -0.3613  0.2015
68510SOL     OW15843   7.161  12.253   0.993 -0.0065  0.5903  0.0801
68510SOL    HW115844   7.235  12.192   0.996 -0.4126  0.1006  0.4107
68510SOL    HW215845   7.164  12.291   0.905  0.7549  0.7251  0.1634
68511SOL     OW15846   4.618   3.092   1.171 -0.0262 -0.0660 -0.1920
68511SOL    HW115847   4.582   3.181   1.172 -0.5804 -0.2792 -0.6182
68511SOL    HW215848   4.678   3.090   1.246 -0.2051  0.5843 -0.0214
68512SOL     OW15849  12.478   9.270  12.696  0.2739 -0.1807 -0.1324
68512SOL    HW115850  12.515   9.342  12.645 -1.0679  0.1986 -0.6019
68512SOL    HW215851  12.386   9.266  12.670 -0.0377 -1.0887  1.0096
68513SOL     OW15852   5.286   6.484  10.299 -0.3931  0.0350 -0.0308
68513SOL    HW115853   5.254   6.549  10.236  1.6138  0.4888 -0.6698
68513SOL    HW215854   5.345   6.428  10.248 -1.3162 -1.7034  0.7310
68514SOL     OW15855   6.540   8.092   6.956 -0.9392  0.3993 -1.2459
68514SOL    HW115856   6.625   8.110   6.996 -2.2622  0.0232  2.1167
68514SOL    HW215857   6.488   8.170   6.975 -2.0497 -0.3945 -0.9106
68515SOL     OW15858   5.924  12.295   7.045 -0.0358 -0.0229 -0.4338
68515SOL    HW115859   5.952  12.387   7.046 -0.1590  0.0092  0.0500
68515SOL    HW215860   5.895  12.278   7.134 -0.9048 -0.2558 -0.7485
68516SOL     OW15861   3.016  10.766   9.727  0.1696 -0.5176 -1.2215
68516SOL    HW115862   3.101  10.748   9.769  1.2170  0.4839 -2.8086
68516SOL    HW215863   3.014  10.709   9.651 -0.6047 -0.5582 -1.1761
68517SOL     OW15864   4.594   7.561   3.677  0.3263 -0.0302 -0.3612
68517SOL    HW115865   4.551   7.523   3.753  0.1678  2.0183  0.6398
68517SOL    HW215866   4.679   7.518   3.673 -0.3074 -1.3316 -0.0334
68518SOL     OW15867   8.398   1.260   5.435  0.1627  0.1762  0.5998
68518SOL    HW115868   8.406   1.344   5.389 -1.8192 -0.5619 -1.2759
68518SOL    HW215869   8.340   1.278   5.508 -3.5751 -0.1716 -2.0153
68519SOL     OW15870   4.510   2.869   9.939 -0.2268 -0.6417 -0.3613
68519SOL    HW115871   4.457   2.946   9.921  0.6930 -0.0173 -0.4989
68519SOL    HW215872   4.480   2.803   9.876  0.5669  0.3800 -1.8719
68520SOL     OW15873   1.305   0.443   8.456  0.4063 -0.2097  0.0259
68520SOL    HW115874   1.252   0.514   8.492 -0.1452 -0.2364 -0.6994
68520SOL    HW215875   1.396   0.473   8.467  0.3677 -0.8254  2.6351
68521SOL     OW15876  11.548   5.384   6.457  0.5162  0.0063 -0.4187
68521SOL    HW115877  11.512   5.455   6.403  0.7366 -1.4460 -2.5820
68521SOL    HW215878  11.470   5.339   6.490  0.3144 -0.6608 -1.7267
68522SOL     OW15879   4.864   3.757   9.790 -0.1263  0.4001  0.3994
68522SOL    HW115880   4.874   3.703   9.712  0.2835 -0.0222  0.7345
68522SOL    HW215881   4.952   3.758   9.830 -0.1220  1.3213  0.3968
68523SOL     OW15882   5.529   2.559   5.711 -0.5107 -0.0413  0.1505
68523SOL    HW115883   5.576   2.509   5.777  0.0782 -1.1269 -1.0391
68523SOL    HW215884   5.570   2.645   5.712  0.3307 -0.4358  0.3374
68524SOL     OW15885  12.082  11.983   9.496  0.1124 -0.0590  0.5704
68524SOL    HW115886  12.160  11.926   9.496 -0.3022 -0.6313  0.0217
68524SOL    HW215887  12.055  11.985   9.588  0.5496 -0.1648  0.7059
68525SOL     OW15888  11.979   0.141  12.890 -0.0676 -0.8288 -0.3931
68525SOL    HW115889  11.895   0.119  12.929 -0.0677  0.3268  0.2946
68525SOL    HW215890  11.997   0.069  12.829 -1.3737 -1.2605 -0.2873
68526SOL     OW15891   6.051   0.598  12.450 -0.2550 -0.7460  0.0799
68526SOL    HW115892   5.978   0.565  12.396 -0.9840 -0.9055  1.1252
68526SOL    HW215893   6.057   0.535  12.523  1.4554 -1.1664 -0.3887
68527SOL     OW15894   7.289  12.880   9.839  0.7700 -0.2991 -0.6159
68527SOL    HW115895   7.333  12.929   9.908  0.1911  1.0039 -1.1205
68527SOL    HW215896   7.243  12.809   9.885  2.6967 -1.2190 -0.0111
68528SOL     OW15897  11.647   5.981   9.446  0.8325  0.2625  0.7428
68528SOL    HW115898  11.591   5.969   9.369  0.8475  0.6690  0.6651
68528SOL    HW215899  11.692   5.898   9.456  1.2275  0.3688 -0.0113
68529SOL     OW15900   0.117  12.233   3.804 -0.0515  0.0213  0.0618
68529SOL    HW115901   0.083  12.197   3.722 -0.1043  0.9235 -0.3273
68529SOL    HW215902   0.201  12.272   3.780  1.0765 -1.7300  0.9089
68530SOL     OW15903   8.116   2.019   7.989  0.1217  0.0887  0.8910
68530SOL    HW115904   8.086   2.055   8.072  0.3053 -0.2666  1.1188
68530SOL    HW215905   8.037   2.008   7.937  0.1127  1.2558  0.6290
68531SOL     OW15906  12.275   8.662   7.478  0.1317 -0.0720  0.1169
68531SOL    HW115907  12.189   8.641   7.514  0.0192  0.6895  0.3179
68531SOL    HW215908  12.337   8.610   7.528 -0.0757  0.5491  1.0386
68532SOL     OW15909   7.179   9.549   8.369  0.1822  0.3461  0.2133
68532SOL    HW115910   7.261   9.577   8.408 -0.0720  0.7373  0.4647
68532SOL    HW215911   7.125   9.521   8.443  0.3706 -0.6681 -0.0127
68533SOL     OW15912   0.271   1.167   8.136 -0.0759  0.5773  0.2748
68533SOL    HW115913   0.316   1.138   8.216 -1.5653 -1.7616  0.3609
68533SOL    HW215914   0.214   1.237   8.165  0.5536  0.8288  0.9399
68534SOL     OW15915  11.767  10.562  10.538 -0.0305  0.1497  0.6197
68534SOL    HW115916  11.791  10.645  10.497  0.3309 -0.3372 -0.1762
68534SOL    HW215917  11.756  10.501  10.465 -1.7451 -0.1484  1.0963
68535SOL     OW15918   1.548   6.356   4.653 -0.5270 -0.2690 -0.4710
68535SOL    HW115919   1.609   6.350   4.726  1.1571 -1.0593 -1.8882
68535SOL    HW215920   1.603   6.373   4.577 -2.1877  0.0472 -1.6489
68536SOL     OW15921   9.229  10.909   3.158 -0.0824 -0.1307 -0.6084
68536SOL    HW115922   9.208  10.994   3.119 -2.2413 -0.2103  0.2805
68536SOL    HW215923   9.216  10.847   3.086 -1.2875  0.0153 -0.5336
68537SOL     OW15924   6.371   6.560   5.299 -0.0977 -0.0774  0.2095
68537SOL    HW115925   6.375   6.499   5.374 -0.2126 -1.5531 -0.9398
68537SOL    HW215926   6.379   6.503   5.222 -1.6039  1.2386 -0.9643
68538SOL     OW15927   2.992  12.455   1.073 -0.0622 -0.0249  0.4549
68538SOL    HW115928   2.995  12.404   0.992  1.9381  0.0854  0.4043
68538SOL    HW215929   2.911  12.505   1.066  0.8021  1.2355 -2.2969
68539SOL     OW15930  12.882   0.351   3.836  0.1047 -0.7918  0.3868
68539SOL    HW115931  12.857   0.395   3.918 -0.5513 -0.7773  0.1878
68539SOL    HW215932  12.965   0.392   3.812  0.0710 -0.4611  0.8016
68540SOL     OW15933   1.394   1.543  12.800  0.1586 -0.1565  0.1119
68540SOL    HW115934   1.403   1.448  12.797 -0.9529 -0.3774  2.3260
68540SOL    HW215935   1.410   1.566  12.891 -1.5446  1.5557  0.0284
68541SOL     OW15936   1.227   9.072   3.436 -0.2002 -0.0302  0.4106
68541SOL    HW115937   1.270   9.075   3.350 -1.6099 -1.2539 -0.3892
68541SOL    HW215938   1.134   9.066   3.415 -0.4975 -2.0142  1.9949
68542SOL     OW15939   3.572   1.575   6.156 -1.1931 -0.4685 -0.2703
68542SOL    HW115940   3.579   1.666   6.185  1.7346 -1.1811  1.6565
68542SOL    HW215941   3.548   1.582   6.063 -1.4831  2.2444 -0.0822
68543SOL     OW15942  11.647   5.607   1.980 -0.3140 -0.1361 -0.2323
68543SOL    HW115943  11.705   5.567   2.044  1.1940  2.5960  0.3001
68543SOL    HW215944  11.602   5.676   2.029 -1.1833  0.2331 -1.5061
68544SOL     OW15945   1.106   3.852   5.784 -0.6913  0.1936 -0.4801
68544SOL    HW115946   1.035   3.907   5.817 -0.8502  1.2387 -2.4563
68544SOL    HW215947   1.078   3.825   5.697 -0.1263 -2.1950  0.0204
68545SOL     OW15948   2.114   5.356   8.423  0.6601 -0.4201 -0.4209
68545SOL    HW115949   2.090   5.300   8.349 -1.1782 -1.7727  1.0793
68545SOL    HW215950   2.194   5.317   8.457  1.9422  0.6549 -2.0731
68546SOL     OW15951   2.963  10.185   6.775  0.6657 -0.2855  0.0139
68546SOL    HW115952   2.883  10.236   6.781  0.1120 -1.2833  1.7790
68546SOL    HW215953   2.938  10.107   6.725  1.0027  0.2013 -0.9410
68547SOL     OW15954  11.342  12.717   9.119 -0.5127 -0.2671  0.0516
68547SOL    HW115955  11.373  12.802   9.148 -1.7995 -0.1519  1.1974
68547SOL    HW215956  11.381  12.705   9.032  1.0144  0.7255  0.5781
68548SOL     OW15957  11.941   1.718   5.369 -0.0293  0.5211 -0.5638
68548SOL    HW115958  11.898   1.637   5.343 -0.0466  0.1733  0.4800
68548SOL    HW215959  12.021   1.689   5.414  0.2594  1.1007 -0.6922
68549SOL     OW15960   9.334   8.410   6.590  0.0958  0.4358  0.1311
68549SOL    HW115961   9.262   8.473   6.597 -0.0594  0.1183  2.0326
68549SOL    HW215962   9.372   8.426   6.504 -0.9759  1.9961 -0.0949
68550SOL     OW15963  11.320   6.095   7.588  0.3871  0.5819  0.9965
68550SOL    HW115964  11.360   6.118   7.504  0.6031  2.7799  1.6406
68550SOL    HW215965  11.371   6.021   7.620 -0.0479 -0.6758 -1.0359
68551SOL     OW15966   9.651   3.012   8.970 -0.0456 -0.3812  0.4524
68551SOL    HW115967   9.678   2.921   8.984 -1.1951 -0.6279  1.3046
68551SOL    HW215968   9.660   3.026   8.876  1.4026 -0.9387  0.4820
68552SOL     OW15969   3.066   5.432   2.061 -0.3246  0.1603  0.2918
68552SOL    HW115970   3.102   5.490   2.128  0.0622 -0.5815  0.7548
68552SOL    HW215971   3.140   5.410   2.006  0.0946 -1.7047  1.4944
68553SOL     OW15972   1.558  12.430   4.707  0.0224 -0.5954 -0.3626
68553SOL    HW115973   1.564  12.412   4.801  0.1082  0.4994 -0.1424
68553SOL    HW215974   1.594  12.352   4.665  0.1283 -1.0304  0.5138
68554SOL     OW15975  10.189   3.920   7.798 -0.0085 -0.5374  0.6853
68554SOL    HW115976  10.206   3.833   7.761  0.7681  0.4092 -1.3397
68554SOL    HW215977  10.118   3.955   7.745 -0.5750 -0.0716  1.7337
68555SOL     OW15978  12.660   4.670  11.119 -0.6047 -0.6924  0.4715
68555SOL    HW115979  12.609   4.662  11.039 -0.8559  1.2589  0.3798
68555SOL    HW215980  12.628   4.600  11.176 -3.1872  0.2432  0.2938
68556SOL     OW15981   6.199   8.008   4.305  0.4539  0.0385  0.3808
68556SOL    HW115982   6.240   8.092   4.323 -0.5068  0.4325  0.8208
68556SOL    HW215983   6.116   8.031   4.263  1.4761 -0.7781 -2.3002
68557SOL     OW15984   5.826   0.989   4.438  0.0084  0.4029 -0.2475
68557SOL    HW115985   5.789   0.989   4.349 -0.6646  0.8756  0.0230
68557SOL    HW215986   5.795   0.907   4.476  2.5953 -1.2021 -1.3449
68558SOL     OW15987  10.768   9.519  12.344  0.1465  0.0823 -0.3699
68558SOL    HW115988  10.759   9.429  12.313 -1.7403  0.2197 -0.3385
68558SOL    HW215989  10.831   9.514  12.416 -0.4025 -1.3317  0.0478
68559SOL     OW15990   6.828   8.492   7.065 -0.0281  0.2003  0.0182
68559SOL    HW115991   6.865   8.520   6.981 -0.6287 -1.1663 -0.7436
68559SOL    HW215992   6.754   8.551   7.079  0.4159  0.8040 -0.1158
68560SOL     OW15993  10.862   3.991   7.316 -0.0546 -0.2744  0.7254
68560SOL    HW115994  10.871   4.086   7.331 -1.1275  0.1566 -1.0687
68560SOL    HW215995  10.768   3.974   7.327 -0.1807 -0.7364 -0.8280
68561SOL     OW15996   4.293  11.071  12.049 -0.9698 -0.4658 -0.3295
68561SOL    HW115997   4.242  11.005  12.003 -2.9491  1.4363 -1.0655
68561SOL    HW215998   4.273  11.153  12.004  1.1972  0.7011  0.6623
68562SOL     OW15999   8.267   0.826  12.039  0.3340 -0.3571  0.3880
68562SOL    HW116000   8.204   0.760  12.012  0.6239 -1.1149  1.4951
68562SOL    HW216001   8.240   0.852  12.126  0.3039  0.9134  0.0268
68563SOL     OW16002   3.479   9.225   3.168 -0.2287 -0.0990 -0.6730
68563SOL    HW116003   3.527   9.288   3.114  1.5337  0.1488  1.0421
68563SOL    HW216004   3.469   9.148   3.112  2.0061 -0.0562 -1.2566
68564SOL     OW16005   4.507  12.701   1.434  0.2243 -0.1703  0.2772
68564SOL    HW116006   4.472  12.717   1.347 -0.7347 -0.5188  0.5831
68564SOL    HW216007   4.498  12.606   1.446 -0.5382 -0.0018  1.1134
68565SOL     OW16008   2.890   4.040   8.385 -0.3709  0.1332 -0.3198
68565SOL    HW116009   2.977   4.007   8.361  0.9104  1.3075  2.2487
68565SOL    HW216010   2.874   4.003   8.472 -2.0604  0.6723 -0.3699
68566SOL     OW16011   9.246   3.294   7.495 -0.0186 -0.2300  0.2339
68566SOL    HW116012   9.299   3.275   7.417 -1.0054  0.7977 -0.7165
68566SOL    HW216013   9.275   3.229   7.559 -0.7069 -2.5976 -1.6870
68567SOL     OW16014   0.048  12.003   8.752 -0.5780 -0.3763  0.6194
68567SOL    HW116015  -0.012  11.962   8.813 -0.3862 -1.9072 -0.1690
68567SOL    HW216016   0.022  12.095   8.750 -1.6675 -0.6435  1.7002
68568SOL     OW16017   3.723   7.281   1.394  0.0598 -0.2520 -0.0179
68568SOL    HW116018   3.661   7.244   1.330  1.0818  0.5325 -1.5402
68568SOL    HW216019   3.782   7.209   1.414 -2.2343 -1.5337  2.7759
68569SOL     OW16020   8.890   6.178   5.328  0.1116 -0.4859  0.1378
68569SOL    HW116021   8.812   6.204   5.280  0.9165 -1.2811 -1.7059
68569SOL    HW216022   8.872   6.088   5.357 -0.8980  0.4372  2.5865
68570SOL     OW16023   4.227   8.508   8.458  0.2272  0.3631  0.0194
68570SOL    HW116024   4.295   8.563   8.498  1.5554 -1.4690  0.4298
68570SOL    HW216025   4.262   8.485   8.372 -1.5335  2.2890 -1.3093
68571SOL     OW16026  10.203  10.326  11.647 -0.0875 -0.0676 -0.1286
68571SOL    HW116027  10.109  10.306  11.653 -0.6640  2.5819  1.5581
68571SOL    HW216028  10.242  10.273  11.716 -0.8147  0.7474  0.9632
68572SOL     OW16029   0.569   7.121   6.636 -0.1779  0.7519  0.0676
68572SOL    HW116030   0.543   7.045   6.583  1.0950  0.5845 -0.3547
68572SOL    HW216031   0.567   7.088   6.726  4.1554 -1.1567 -0.2572
68573SOL     OW16032   4.437   6.583   4.786  0.0521  0.2933 -0.1304
68573SOL    HW116033   4.348   6.617   4.774  0.0643  0.0868 -0.8263
68573SOL    HW216034   4.481   6.650   4.838 -0.1099  1.0414 -0.9363
68574SOL     OW16035   0.079   1.132   0.214  0.4746  0.5674  0.2625
68574SOL    HW116036   0.062   1.078   0.291  1.6955 -1.5734 -0.8884
68574SOL    HW216037   0.171   1.159   0.222  0.9367 -0.5660 -0.9259
68575SOL     OW16038   3.625   6.302   6.518  0.4020  0.0699 -0.0857
68575SOL    HW116039   3.670   6.385   6.505 -1.3527  0.9582 -0.7751
68575SOL    HW216040   3.623   6.290   6.613  2.3376 -0.1880 -0.0339
68576SOL     OW16041   5.774   0.838   3.818 -0.4329 -0.4228  0.0267
68576SOL    HW116042   5.817   0.885   3.889 -0.1943  0.8245 -0.9065
68576SOL    HW216043   5.714   0.778   3.861  0.4427 -0.4114  1.2941
68577SOL     OW16044   2.194  12.026   8.878 -0.0324  0.1452 -0.4865
68577SOL    HW116045   2.272  11.972   8.866 -0.8968 -1.0730 -0.6988
68577SOL    HW216046   2.229  12.113   8.898  1.3902 -0.1883 -1.3562
68578SOL     OW16047   1.445   3.210   7.416 -0.3811  0.3181  0.2234
68578SOL    HW116048   1.420   3.117   7.416 -1.8042  0.6819 -0.3501
68578SOL    HW216049   1.521   3.213   7.474 -0.4852 -1.1626  0.4957
68579SOL     OW16050   5.893   9.021   1.278 -0.3498 -0.2375 -0.4625
68579SOL    HW116051   5.901   9.057   1.366  1.0292  1.5096 -1.2377
68579SOL    HW216052   5.806   9.050   1.249  0.5782  2.3703 -0.9322
68580SOL     OW16053  10.566   2.745   3.707  0.3620 -0.4843  0.0058
68580SOL    HW116054  10.658   2.762   3.687  0.3611  0.2829  0.6390
68580SOL    HW216055  10.559   2.757   3.801 -0.8254  1.6866 -0.2900
68581SOL     OW16056  12.760   7.509   6.262 -0.7849 -0.5706  0.0241
68581SOL    HW116057  12.824   7.556   6.208 -0.8332 -1.1409 -0.5392
68581SOL    HW216058  12.688   7.490   6.202 -0.8385 -1.2102  0.2900
68582SOL     OW16059   1.284   3.310   6.760 -0.5829 -0.5456 -0.4637
68582SOL    HW116060   1.368   3.267   6.747  0.7125  1.0506  2.0121
68582SOL    HW216061   1.297   3.400   6.729 -1.3390 -0.2361  0.0769
68583SOL     OW16062   5.746   8.095   2.987  0.4169 -0.0228  0.2783
68583SOL    HW116063   5.827   8.048   2.971  1.0945  1.1262  0.2275
68583SOL    HW216064   5.773   8.175   3.032 -0.4703  1.1878 -1.2143
68584SOL     OW16065  11.642  10.885  10.508 -0.4707  0.3561  0.0320
68584SOL    HW116066  11.700  10.839  10.447  0.8940  2.2610 -0.2154
68584SOL    HW216067  11.693  10.894  10.588 -0.3142  2.1438 -0.2126
68585SOL     OW16068  10.825   2.047   5.032  0.3722 -0.3569 -0.3612
68585SOL    HW116069  10.883   2.119   5.058  0.7736 -1.4048  1.8873
68585SOL    HW216070  10.806   2.064   4.939  1.0465  2.2041 -0.1214
68586SOL     OW16071   6.583   2.410   0.536  0.4340 -0.0070 -0.4259
68586SOL    HW116072   6.620   2.409   0.624  1.3036 -0.7508 -0.7835
68586SOL    HW216073   6.551   2.499   0.524 -0.1327 -0.0208  0.8091
68587SOL     OW16074   8.180  10.482   3.595 -0.2517 -0.3557 -0.4803
68587SOL    HW116075   8.164  10.563   3.645 -1.3127 -1.3327  0.8487
68587SOL    HW216076   8.264  10.449   3.629  0.2138  0.1867 -1.0684
68588SOL     OW16077   0.976   1.099   5.341  0.6221  0.3103 -0.8782
68588SOL    HW116078   1.065   1.097   5.308  0.2792  2.4358 -2.0917
68588SOL    HW216079   0.922   1.068   5.268  0.1373  2.0326 -1.3084
68589SOL     OW16080   7.350  10.001  12.755 -0.6707  0.2482  0.0977
68589SOL    HW116081   7.321  10.063  12.822 -0.1034  0.3515  0.2562
68589SOL    HW216082   7.392  10.057  12.689 -0.1048  0.0280  0.2693
68590SOL     OW16083   0.714   8.972   6.218  0.0294 -0.3247 -0.4783
68590SOL    HW116084   0.734   8.908   6.287  3.2933 -0.0225 -0.9992
68590SOL    HW216085   0.687   8.918   6.144 -1.0524 -0.8069  0.2372
68591SOL     OW16086  12.539   3.039   5.262 -0.2612 -0.2918 -0.5579
68591SOL    HW116087  12.514   2.963   5.313  0.6836 -1.1416 -1.3378
68591SOL    HW216088  12.630   3.055   5.284 -0.8464  1.5997  0.7770
68592SOL     OW16089   1.921   2.336   3.624  0.3776  0.8969  0.0447
68592SOL    HW116090   1.936   2.249   3.659  0.5642  0.7764 -0.3255
68592SOL    HW216091   1.850   2.372   3.677  0.8534  0.8380  0.7289
68593SOL     OW16092   8.288  11.090  12.844  0.7696 -0.5220 -0.1713
68593SOL    HW116093   8.216  11.152  12.834 -0.2441 -1.4182  1.1103
68593SOL    HW216094   8.362  11.130  12.798  0.2251  1.7380  0.7758
68594SOL     OW16095   0.580   5.231   0.390  0.4867  0.1767  0.1075
68594SOL    HW116096   0.530   5.275   0.321 -0.0797 -0.7745 -0.1149
68594SOL    HW216097   0.596   5.143   0.354  0.6503 -0.1486  0.9701
68595SOL     OW16098   5.402  12.527   6.222  0.2851  0.0643  0.1580
68595SOL    HW116099   5.410  12.432   6.229  0.2514  0.1470  1.7310
68595SOL    HW216100   5.314  12.547   6.254  0.1007  0.6007 -0.6345
68596SOL     OW16101  11.983   5.797   1.822  0.7667 -0.5052 -0.1110
68596SOL    HW116102  12.066   5.807   1.777  1.0959 -0.8013  0.4190
68596SOL    HW216103  12.007   5.764   1.909 -0.0341 -2.4898 -0.6050
68597SOL     OW16104   9.522   5.198   2.296 -0.1500 -0.2182  0.5243
68597SOL    HW116105   9.607   5.154   2.286 -0.0055 -0.3976  2.2195
68597SOL    HW216106   9.477   5.147   2.363 -1.7415 -0.2926 -0.5703
68598SOL     OW16107   7.985  12.182   1.540 -0.2485  0.1908  0.3130
68598SOL    HW116108   7.926  12.241   1.587  1.6962  1.1168  1.7162
68598SOL    HW216109   8.035  12.238   1.482 -2.0321 -0.8461 -2.4189
68599SOL     OW16110  12.460   5.596  12.936 -0.1561  0.1897  0.8061
68599SOL    HW116111  12.371   5.615  12.906  0.2820  2.2548  0.6252
68599SOL    HW216112  12.448   5.551  13.019 -1.3588 -0.6337  0.2182
68600SOL     OW16113   7.371   8.531   5.974  1.0923 -0.0973 -0.0829
68600SOL    HW116114   7.294   8.489   5.934  0.4290  0.3167  0.7136
68600SOL    HW216115   7.366   8.505   6.066  0.8716  1.4014  0.3543
68601SOL     OW16116   2.875   7.009  10.549  0.0172 -0.0334 -0.5037
68601SOL    HW116117   2.891   6.972  10.635  0.1233 -0.9972 -0.9231
68601SOL    HW216118   2.958   7.050  10.524  0.7369 -1.7400 -1.0879
68602SOL     OW16119   6.619   0.637   9.090  0.2131  0.2470 -0.6067
68602SOL    HW116120   6.668   0.701   9.038  0.3902  0.6726  0.0678
68602SOL    HW216121   6.658   0.643   9.177 -1.4150  0.9952  0.1043
68603SOL     OW16122   1.230   8.771  10.508 -0.2991 -0.3861  0.4072
68603SOL    HW116123   1.254   8.688  10.467 -2.0110 -0.5552 -0.3457
68603SOL    HW216124   1.214   8.830  10.434  0.4303  0.4922  0.9321
68604SOL     OW16125   2.412   8.660   8.353  0.2627 -0.5200  0.3981
68604SOL    HW116126   2.386   8.611   8.275 -1.2125 -0.3005  0.7373
68604SOL    HW216127   2.432   8.593   8.418  0.3870 -0.6864  0.1895
68605SOL     OW16128  12.448   9.723   2.279 -0.1137 -0.0602  0.8235
68605SOL    HW116129  12.472   9.810   2.312 -2.2364 -0.2083  2.9737
68605SOL    HW216130  12.478   9.662   2.346  0.2354 -0.9297 -0.0874
68606SOL     OW16131  10.832   7.378   4.677  0.5435 -1.2486 -0.2990
68606SOL    HW116132  10.844   7.303   4.735  2.5233 -0.0518  0.9756
68606SOL    HW216133  10.877   7.450   4.722  0.4928  0.1990 -2.4254
68607SOL     OW16134   3.221   5.406   6.745 -0.0096  0.5283  0.2496
68607SOL    HW116135   3.179   5.415   6.830  1.2810  1.8530  0.7954
68607SOL    HW216136   3.244   5.496   6.721 -2.3283  0.5218 -2.5812
68608SOL     OW16137   5.807   8.956  10.450  0.6831 -0.6258 -0.4489
68608SOL    HW116138   5.889   8.931  10.492  0.9328  0.6004 -0.1655
68608SOL    HW216139   5.834   8.995  10.367  0.3745 -0.4945 -0.4891
68609SOL     OW16140   9.344   1.498  10.378  0.4235 -0.6247 -0.5946
68609SOL    HW116141   9.345   1.593  10.383  0.6224 -0.6726  0.6364
68609SOL    HW216142   9.317   1.479  10.288 -1.5834  0.5806 -0.3204
68610SOL     OW16143   5.046  11.907   6.911 -0.0205  0.3610  0.0058
68610SOL    HW116144   5.116  11.895   6.975  0.0842 -0.4255 -0.2414
68610SOL    HW216145   4.999  11.984   6.941  0.3504  0.3134  0.7342
68611SOL     OW16146   6.686   9.775  11.500  0.3671 -0.3773 -0.2811
68611SOL    HW116147   6.736   9.716  11.557  0.3318 -0.7592 -0.6454
68611SOL    HW216148   6.732   9.773  11.416 -0.7531 -1.4486 -0.9071
68612SOL     OW16149   1.498  11.069  10.134 -0.3321  0.1152 -0.5152
68612SOL    HW116150   1.420  11.078  10.079 -0.5898  0.5234 -0.0929
68612SOL    HW216151   1.570  11.055  10.073 -0.8686 -1.2584 -0.8665
68613SOL     OW16152   3.355   3.929   7.041  0.2410 -0.0720  0.1495
68613SOL    HW116153   3.319   4.015   7.063  0.3313 -0.3036  1.2676
68613SOL    HW216154   3.320   3.909   6.954  2.4396  2.3495 -1.4682
68614SOL     OW16155   8.173   8.914  11.628 -0.4884 -0.2212 -0.7277
68614SOL    HW116156   8.201   9.004  11.645  0.5889  0.1206 -3.8062
68614SOL    HW216157   8.206   8.864  11.703  1.3546  1.4935 -0.3112
68615SOL     OW16158   9.030  11.989   8.757  0.4983  0.0137  0.2728
68615SOL    HW116159   9.110  11.994   8.703 -0.2580  0.5093 -0.8394
68615SOL    HW216160   8.992  11.904   8.735  0.4796 -0.0291  0.4694
68616SOL     OW16161   2.741   9.692   9.648 -0.0919 -0.3355  0.2469
68616SOL    HW116162   2.716   9.626   9.713 -1.0176 -0.9092 -0.6519
68616SOL    HW216163   2.836   9.687   9.644 -0.0862 -0.9429  0.8778
68617SOL     OW16164   7.549   9.103   6.122 -0.1439  0.4292  0.2538
68617SOL    HW116165   7.588   9.015   6.125  1.2039  0.8522 -2.1485
68617SOL    HW216166   7.547   9.131   6.213  0.2883 -1.7006  0.9946
68618SOL     OW16167   6.136  11.903   4.565 -0.0616  0.6870 -0.4044
68618SOL    HW116168   6.209  11.863   4.518 -0.2893  1.6205 -1.5913
68618SOL    HW216169   6.087  11.829   4.601  0.2635 -0.0456 -1.4345
68619SOL     OW16170   7.245  12.743   5.829 -0.0340  0.3886  0.8168
68619SOL    HW116171   7.205  12.734   5.743  0.0606 -0.8597  0.8852
68619SOL    HW216172   7.330  12.783   5.811  0.1417 -0.2082  0.2837
68620SOL     OW16173   5.178  10.168   9.927 -0.1448 -0.1258  0.6112
68620SOL    HW116174   5.188  10.102   9.995 -1.1985  0.9410  1.8519
68620SOL    HW216175   5.108  10.225   9.959 -2.1401 -0.7319 -2.2608
68621SOL     OW16176   1.653   4.287   7.826  0.0845 -0.3873  0.0697
68621SOL    HW116177   1.665   4.318   7.736 -0.4586  0.6110  0.3271
68621SOL    HW216178   1.591   4.214   7.817  0.2304 -0.4605 -0.3922
68622SOL     OW16179  12.946   4.778   4.264  0.5154  0.3949  0.0195
68622SOL    HW116180  13.010   4.794   4.333  0.1749  0.3230  0.3523
68622SOL    HW216181  12.861   4.777   4.308  0.1339  1.8564 -0.6042
68623SOL     OW16182   4.709  12.666  10.041  0.5994  0.1129  0.0391
68623SOL    HW116183   4.784  12.631   9.993  2.9809 -0.1981  3.6499
68623SOL    HW216184   4.730  12.759  10.055 -0.1964  0.2640  0.3120
68624SOL     OW16185   2.652   2.010   0.614  0.0525 -0.3764 -0.8480
68624SOL    HW116186   2.579   2.042   0.667  1.8941  0.1073  1.5935
68624SOL    HW216187   2.675   1.926   0.653  0.9075 -0.4304 -1.4384
68625SOL     OW16188   0.444   2.244   3.877 -0.0014 -0.6127  0.7198
68625SOL    HW116189   0.416   2.242   3.786 -0.9882  1.4703  0.9283
68625SOL    HW216190   0.529   2.288   3.877 -0.7565  0.9082  0.9266
68626SOL     OW16191   2.187  10.107   7.999 -0.2411  0.0715 -0.1175
68626SOL    HW116192   2.256  10.068   7.946  0.9897 -0.3338  1.6872
68626SOL    HW216193   2.207  10.201   8.000 -0.9537  0.2571 -1.2791
68627SOL     OW16194  10.164   0.913  11.118 -0.2696 -0.1210 -0.3715
68627SOL    HW116195  10.118   0.844  11.071 -1.9425  1.1369 -0.6761
68627SOL    HW216196  10.122   0.917  11.204  1.3645 -0.9864  0.5167
68628SOL     OW16197   1.218   4.788   7.708  0.5982  0.1653  0.0629
68628SOL    HW116198   1.270   4.847   7.653 -0.9148  1.8329  0.3515
68628SOL    HW216199   1.131   4.828   7.711 -0.3941 -1.9230  0.5669
68629SOL     OW16200   8.809   7.179   6.413  0.0664 -0.0961  0.1349
68629SOL    HW116201   8.726   7.225   6.409  0.7802  1.2273 -0.2398
68629SOL    HW216202   8.815   7.132   6.329 -0.5916 -0.7502  0.4492
68630SOL     OW16203   5.553  10.883   6.846  0.3887 -0.1112  0.4101
68630SOL    HW116204   5.626  10.929   6.806  0.8757 -1.8122 -0.8038
68630SOL    HW216205   5.497  10.858   6.773  0.3277 -1.6884  0.9456
68631SOL     OW16206   1.270  12.221   2.574  0.3304 -0.0469  0.3945
68631SOL    HW116207   1.223  12.146   2.539 -0.0328 -0.1315  1.0319
68631SOL    HW216208   1.209  12.295   2.562  0.8600  0.2377 -0.6289
68632SOL     OW16209  10.664  11.119   4.038 -0.1817 -0.1304  0.1474
68632SOL    HW116210  10.660  11.052   4.107 -2.5690  0.7371  0.9536
68632SOL    HW216211  10.714  11.191   4.078 -1.1885  0.1987  0.8526
68633SOL     OW16212   7.894  10.177   0.514 -0.1522  0.4905 -0.2795
68633SOL    HW116213   7.975  10.206   0.556 -0.0420 -1.5516  1.0423
68633SOL    HW216214   7.886  10.085   0.539 -1.0365 -0.3565 -3.3330
68634SOL     OW16215   2.748   7.224   9.704  0.0455  0.1635  0.1135
68634SOL    HW116216   2.654   7.224   9.685  0.1391 -0.9716 -0.4359
68634SOL    HW216217   2.776   7.312   9.678 -1.0382  0.8997  1.3122
68635SOL     OW16218  10.821   5.198   4.544 -0.4725 -0.1052  0.0250
68635SOL    HW116219  10.823   5.206   4.448 -1.3151  0.6776  0.0597
68635SOL    HW216220  10.806   5.105   4.560  1.3994 -0.5491 -0.5634
68636SOL     OW16221  10.484   8.387   4.727  0.1690  0.3300  0.3571
68636SOL    HW116222  10.416   8.356   4.667  1.3652 -0.2369 -0.7628
68636SOL    HW216223  10.517   8.308   4.770 -0.2088  0.6576  1.2718
68637SOL     OW16224   0.530   4.938  11.968  0.5777  0.1050  0.0292
68637SOL    HW116225   0.440   4.962  11.992  0.8226 -0.2655  1.4155
68637SOL    HW216226   0.528   4.842  11.962  0.5792  0.1754 -1.2804
68638SOL     OW16227   6.537   9.330   0.315 -0.4937 -0.1248  0.2170
68638SOL    HW116228   6.566   9.241   0.335 -1.4791 -0.6479 -0.6328
68638SOL    HW216229   6.479   9.353   0.387  1.3035  0.6241  1.5043
68639SOL     OW16230   7.749   4.334  11.909  0.6240  0.5744  0.8844
68639SOL    HW116231   7.724   4.410  11.856 -0.4128 -0.0091  0.5177
68639SOL    HW216232   7.702   4.346  11.991 -2.0459 -1.1669 -0.2573
68640SOL     OW16233   3.293   9.552   5.406  0.3497 -0.5586 -0.8147
68640SOL    HW116234   3.311   9.646   5.415  0.0867 -0.6325  0.8933
68640SOL    HW216235   3.200   9.543   5.425  0.2125 -1.1007 -1.6894
68641SOL     OW16236   9.789   8.493  10.164 -0.1396 -0.6726 -0.0090
68641SOL    HW116237   9.796   8.398  10.157  0.6361 -0.6062 -0.3402
68641SOL    HW216238   9.805   8.512  10.256 -1.6757 -0.9473  0.3452
68642SOL     OW16239   5.388   1.904  12.462 -0.3732 -0.1551  0.7327
68642SOL    HW116240   5.294   1.909  12.480 -0.0686 -0.5899  2.5854
68642SOL    HW216241   5.428   1.886  12.547  1.2677 -1.5514 -0.2877
68643SOL     OW16242  10.402  10.696   5.483 -0.1485  0.2341 -0.1694
68643SOL    HW116243  10.405  10.607   5.517 -0.7523  0.3814  0.2858
68643SOL    HW216244  10.445  10.749   5.550 -0.4102  0.3782 -0.1109
68644SOL     OW16245   1.518   8.320   0.360 -0.2165 -0.2111  0.1120
68644SOL    HW116246   1.563   8.369   0.429  0.1896  1.3773 -1.2343
68644SOL    HW216247   1.581   8.252   0.335  0.7239  0.8618 -0.5024
68645SOL     OW16248   5.843   1.534   6.348 -0.1617 -0.3717  0.5414
68645SOL    HW116249   5.869   1.448   6.383  0.0625 -0.8284 -0.7081
68645SOL    HW216250   5.920   1.588   6.358  1.3090 -1.5961 -2.7330
68646SOL     OW16251   1.533   0.800   4.093  0.0714  0.0946  0.1553
68646SOL    HW116252   1.626   0.809   4.071 -0.1039  0.0213 -0.6232
68646SOL    HW216253   1.533   0.754   4.177  0.7394  0.0799  0.1517
68647SOL     OW16254   2.190   0.069   5.775 -0.5756  0.4369  0.2884
68647SOL    HW116255   2.210   0.084   5.682 -0.9479  0.0930  0.1482
68647SOL    HW216256   2.273   0.042   5.813 -0.4633  0.3824  0.0121
68648SOL     OW16257   5.065   6.966   8.634 -0.6327  0.0523 -0.2263
68648SOL    HW116258   5.038   6.949   8.724  1.3829 -1.2322  0.1935
68648SOL    HW216259   5.097   7.056   8.635  1.4448 -0.6281  0.9558
68649SOL     OW16260   2.836  11.961   2.123 -0.4929 -0.2837  0.1843
68649SOL    HW116261   2.785  12.021   2.069 -0.5564 -1.0642 -0.6367
68649SOL    HW216262   2.918  11.948   2.075  0.0674  0.1486  0.9934
68650SOL     OW16263   3.369   7.155   1.949 -0.1435 -0.1970  0.2574
68650SOL    HW116264   3.463   7.158   1.963 -0.0369 -0.5319 -0.3782
68650SOL    HW216265   3.353   7.210   1.873 -0.5682  0.5229  0.8473
68651SOL     OW16266   1.230   7.316  10.198  0.4955 -0.1309  0.0445
68651SOL    HW116267   1.267   7.398  10.229 -0.8805 -0.5323  3.2109
68651SOL    HW216268   1.142   7.339  10.168  0.7235 -0.1994 -0.6758
68652SOL     OW16269   6.585  10.292   0.907 -0.0339  0.0307  0.0905
68652SOL    HW116270   6.523  10.219   0.908 -1.1544  0.9614 -0.0293
68652SOL    HW216271   6.619  10.297   0.997 -1.2610  0.4481  0.5435
68653SOL     OW16272   5.148   2.388  11.769 -0.2738  0.0085 -0.4199
68653SOL    HW116273   5.107   2.302  11.763 -2.1327  0.7577  0.5555
68653SOL    HW216274   5.139   2.413  11.861  1.1445  0.8319 -0.4833
68654SOL     OW16275  11.250  11.842   3.232 -0.0201 -0.0033  0.6313
68654SOL    HW116276  11.260  11.937   3.240  2.3157 -0.1757  0.6330
68654SOL    HW216277  11.326  11.815   3.180  0.6284 -2.1005  2.5136
68655SOL     OW16278   9.567   2.700  11.196 -0.3482  0.2374  0.1178
68655SOL    HW116279   9.605   2.644  11.264 -0.0512 -0.1386 -0.3469
68655SOL    HW216280   9.594   2.659  11.114  1.4434  2.0659 -0.2947
68656SOL     OW16281   9.062  12.322  10.711 -0.4398  0.2719  0.0217
68656SOL    HW116282   9.118  12.387  10.667 -0.3391  1.6066  1.9816
68656SOL    HW216283   8.985  12.371  10.737 -0.9332 -0.7165  0.4657
68657SOL     OW16284   0.125   8.868  12.310 -0.1076 -0.0151 -0.0275
68657SOL    HW116285   0.139   8.954  12.270  0.3294  0.1590  0.4944
68657SOL    HW216286   0.205   8.852  12.360  1.6850 -2.4740 -3.2485
68658SOL     OW16287  12.180  11.540   0.308 -0.4381  0.2554  0.0208
68658SOL    HW116288  12.102  11.498   0.345  0.0167 -1.4154 -0.8202
68658SOL    HW216289  12.208  11.602   0.376 -1.0712 -0.8981  1.3883
68659SOL     OW16290   2.417   8.050   9.311  0.3769  0.5669  0.0492
68659SOL    HW116291   2.417   8.105   9.232 -0.0118 -1.3280 -1.3489
68659SOL    HW216292   2.500   8.003   9.307  0.2685  0.3148  0.6913
68660SOL     OW16293   5.559   9.317   6.968  0.4711 -0.0256 -0.2353
68660SOL    HW116294   5.526   9.398   6.929 -0.9990 -0.0825  0.7857
68660SOL    HW216295   5.481   9.262   6.976  0.7001 -0.0526  2.6640
68661SOL     OW16296   5.650  12.233   3.354 -0.0476  0.0855  0.1586
68661SOL    HW116297   5.594  12.234   3.276  0.5926  1.2013 -0.3109
68661SOL    HW216298   5.677  12.324   3.365 -0.2628 -0.0237  1.7971
68662SOL     OW16299   9.728   5.481   9.010  0.5858  0.1905 -0.5730
68662SOL    HW116300   9.663   5.410   9.021  1.6700 -0.9733 -1.4065
68662SOL    HW216301   9.811   5.441   9.035  1.1082  1.4290 -0.2855
68663SOL     OW16302   5.825   0.589  11.516 -0.4163  0.7331 -0.0790
68663SOL    HW116303   5.863   0.565  11.431 -0.4837  0.7143 -0.1046
68663SOL    HW216304   5.854   0.520  11.575  0.2117  1.1229  0.0735
68664SOL     OW16305   1.584  11.241   8.987 -0.1207  0.6410  0.1627
68664SOL    HW116306   1.596  11.167   9.046 -2.1195  0.2365  0.1364
68664SOL    HW216307   1.632  11.216   8.908 -1.7637 -1.2563 -0.3191
68665SOL     OW16308   9.513   5.885   0.891 -0.5894 -0.1415  0.0550
68665SOL    HW116309   9.512   5.958   0.829 -1.9704 -1.5080 -1.6274
68665SOL    HW216310   9.587   5.831   0.863 -0.8173 -0.4287 -0.0024
68666SOL     OW16311   8.225   9.964   1.506  0.3151  0.3738 -0.4007
68666SOL    HW116312   8.296  10.027   1.516 -0.9930  2.0258 -1.0822
68666SOL    HW216313   8.154   9.998   1.561 -0.2564 -0.7707 -0.3970
68667SOL     OW16314   2.444   0.463   7.818 -0.0270  0.3617 -0.5426
68667SOL    HW116315   2.451   0.558   7.818  0.7811  0.3179 -1.3100
68667SOL    HW216316   2.409   0.441   7.732 -0.9945 -0.0017 -0.0752
68668SOL     OW16317   5.710   5.838  10.287  0.0315 -0.3096 -0.2346
68668SOL    HW116318   5.678   5.769  10.345 -0.7766 -0.1875 -0.5220
68668SOL    HW216319   5.631   5.873  10.245  0.6943 -1.3738 -2.5139
68669SOL     OW16320   3.461   4.651   6.240 -0.3879 -0.2139 -0.3431
68669SOL    HW116321   3.460   4.664   6.145 -0.0798 -1.8826 -0.6046
68669SOL    HW216322   3.484   4.737   6.275 -0.9494  0.5501 -1.7466
68670SOL     OW16323   9.731   3.590   7.366  0.4430  0.0675  0.5264
68670SOL    HW116324   9.775   3.672   7.388 -1.9666  0.9815  2.2918
68670SOL    HW216325   9.737   3.538   7.447 -0.8178 -0.1596  0.4891
68671SOL     OW16326   1.879   1.913   1.985 -0.2840 -0.1317 -0.1532
68671SOL    HW116327   1.958   1.896   1.933  1.4051  0.6562  1.9817
68671SOL    HW216328   1.814   1.941   1.922  1.2785 -0.3901 -1.9622
68672SOL     OW16329   2.747   3.555  11.686  0.0264  0.3931 -0.0970
68672SOL    HW116330   2.702   3.625  11.639 -0.1140 -0.3848 -1.1805
68672SOL    HW216331   2.807   3.599  11.745  0.3391  1.4196 -1.1520
68673SOL     OW16332   7.497   8.833   6.491 -0.1240 -0.9921 -0.1663
68673SOL    HW116333   7.523   8.771   6.423 -0.9456 -1.9430  0.3615
68673SOL    HW216334   7.537   8.799   6.571  0.2374 -0.2805 -0.0382
68674SOL     OW16335   3.759   1.327  12.274  0.3705 -0.2374 -0.0055
68674SOL    HW116336   3.834   1.364  12.321 -1.0237 -0.3392  2.4416
68674SOL    HW216337   3.752   1.237  12.306 -0.0759 -0.6275 -1.1479
68675SOL     OW16338   7.954   8.652   6.335 -0.0496  0.1043 -0.0256
68675SOL    HW116339   7.933   8.564   6.366 -0.7108  0.1977 -0.1786
68675SOL    HW216340   8.047   8.663   6.353  0.0955 -0.7179 -0.2273
68676SOL     OW16341   3.070   9.796  11.997  0.1666 -0.2506  0.2775
68676SOL    HW116342   3.016   9.772  11.922 -1.3126  0.4983  1.0646
68676SOL    HW216343   3.029   9.875  12.032  1.2283 -0.1970  1.4805
68677SOL     OW16344   9.726   2.926   0.704 -0.3196 -0.1618  0.0780
68677SOL    HW116345   9.638   2.900   0.677 -0.0032 -0.3455 -0.8205
68677SOL    HW216346   9.783   2.858   0.667  0.0736 -0.9476  2.0337
68678SOL     OW16347   0.559   7.030   6.882 -0.3105  0.1596 -0.6328
68678SOL    HW116348   0.468   7.013   6.908 -0.5037 -0.1923 -1.5027
68678SOL    HW216349   0.608   6.957   6.920 -0.2428  0.7988  0.5638
68679SOL     OW16350   8.725   9.399   4.934  0.2130 -0.5446  0.0776
68679SOL    HW116351   8.722   9.360   4.847  2.5650 -1.4535  0.3251
68679SOL    HW216352   8.658   9.467   4.932 -1.3792 -2.0497 -1.6443
68680SOL     OW16353   2.393   2.131   3.351  0.4212  0.0903 -0.0582
68680SOL    HW116354   2.474   2.099   3.391  0.4045  1.8441  1.5539
68680SOL    HW216355   2.352   2.184   3.420  0.3355  3.2978 -2.3626
68681SOL     OW16356   2.423  12.550  10.112 -0.0407  0.8676 -0.6468
68681SOL    HW116357   2.404  12.643  10.115  0.0326  0.8532  1.4967
68681SOL    HW216358   2.459  12.529  10.198  1.1534 -0.8953 -1.5103
68682SOL     OW16359   6.773   7.722   1.667 -0.1245  0.0893  0.6422
68682SOL    HW116360   6.784   7.666   1.744 -0.4438 -0.7938  0.0642
68682SOL    HW216361   6.743   7.663   1.598 -1.7044  1.1781  0.3294
68683SOL     OW16362  11.025   9.150   3.226 -0.3079 -0.0082  0.0233
68683SOL    HW116363  10.977   9.154   3.308  0.2501  1.3880  0.2994
68683SOL    HW216364  11.042   9.056   3.213 -1.3145 -0.3314  0.9440
68684SOL     OW16365   8.215   2.303  10.401  0.6906 -0.0004 -0.2476
68684SOL    HW116366   8.135   2.318  10.350 -0.0819 -3.3516 -0.2982
68684SOL    HW216367   8.190   2.325  10.491  0.3096  0.6710 -0.5073
68685SOL     OW16368   6.679   7.572   4.564  0.4949  0.0888 -0.4389
68685SOL    HW116369   6.669   7.513   4.638  2.3073 -3.0869 -2.4825
68685SOL    HW216370   6.630   7.531   4.493  1.2483  1.4097 -1.8021
68686SOL     OW16371   2.336   6.444   9.503  0.2882  0.3632 -0.1804
68686SOL    HW116372   2.351   6.536   9.480 -1.0465  0.7580  0.4671
68686SOL    HW216373   2.286   6.447   9.584  0.2045 -0.9477 -0.1626
68687SOL     OW16374   3.287   9.660   9.695  0.1221  0.1047  0.6825
68687SOL    HW116375   3.226   9.703   9.755  0.3588 -2.9649  3.3516
68687SOL    HW216376   3.241   9.581   9.666  1.7950 -0.8758  0.5706
68688SOL     OW16377   1.416   2.453  11.949  0.0591  0.0075  0.1036
68688SOL    HW116378   1.337   2.444  12.002 -1.4905  0.0878 -2.0736
68688SOL    HW216379   1.448   2.541  11.969 -3.3522  2.1414 -2.5426
68689SOL     OW16380   6.934   4.275   0.858  0.1077 -0.4039  0.0967
68689SOL    HW116381   6.995   4.232   0.799  1.7690  1.6310  0.2309
68689SOL    HW216382   6.852   4.280   0.807 -0.0834 -3.2113 -0.0567
68690SOL     OW16383   8.801  10.275   4.266 -0.1600 -0.0132 -0.1659
68690SOL    HW116384   8.708  10.252   4.264  0.2258 -2.1031  1.7411
68690SOL    HW216385   8.805  10.352   4.323 -0.5695 -1.1938  1.5421
68691SOL     OW16386   7.799  11.566  12.631  0.7609 -0.4122 -0.4407
68691SOL    HW116387   7.770  11.570  12.539  2.7009 -1.5880 -1.1764
68691SOL    HW216388   7.718  11.563  12.682 -0.3743 -0.4756 -2.1538
68692SOL     OW16389  10.349  12.372   6.405  0.2711  0.3133 -0.2979
68692SOL    HW116390  10.408  12.328   6.466 -0.6669  0.5654  0.8383
68692SOL    HW216391  10.402  12.389   6.327  2.0379  1.5905  1.1070
68693SOL     OW16392   7.510   1.121   8.159  0.2001 -0.0462  0.2377
68693SOL    HW116393   7.417   1.121   8.184 -0.1875  1.0174 -1.0848
68693SOL    HW216394   7.511   1.078   8.073  0.4739  2.4676 -1.1029
68694SOL     OW16395   5.674  11.928   1.587  0.4637  0.0242  0.3520
68694SOL    HW116396   5.599  11.895   1.538  2.7024 -2.1764 -1.8795
68694SOL    HW216397   5.695  12.012   1.547 -0.1719  0.1480  0.2803
68695SOL     OW16398   8.835   6.986   9.324 -0.8304  0.3140 -0.0338
68695SOL    HW116399   8.923   6.954   9.343 -0.4728  0.6685 -1.0121
68695SOL    HW216400   8.846   7.043   9.248 -1.6699  1.5685  0.7448
68696SOL     OW16401   8.423  10.790   3.519 -0.3086  0.4973  0.6714
68696SOL    HW116402   8.493  10.807   3.456  2.0758 -1.9203  2.3770
68696SOL    HW216403   8.439  10.852   3.590 -1.0189  1.1095  0.3043
68697SOL     OW16404   6.733   1.682  12.076  0.0573 -0.0936  0.3622
68697SOL    HW116405   6.693   1.769  12.077 -1.2420 -0.5452 -2.2038
68697SOL    HW216406   6.745   1.664  11.982  1.5044 -2.1532  0.8947
68698SOL     OW16407   9.443   6.086   4.058  0.3211 -0.1475 -0.0147
68698SOL    HW116408   9.365   6.065   4.007 -0.0555  0.6915  0.1965
68698SOL    HW216409   9.513   6.034   4.018 -0.4073 -1.1833  0.0158
68699SOL     OW16410   6.756  11.459   5.536  0.0759 -0.3343 -0.1847
68699SOL    HW116411   6.731  11.524   5.470  0.4212 -0.4674 -0.4541
68699SOL    HW216412   6.744  11.375   5.492  0.2994 -0.4242 -0.0761
68700SOL     OW16413   4.221   3.197   0.037 -0.0455  0.6381  0.0413
68700SOL    HW116414   4.153   3.185   0.103 -0.6925  2.8203 -0.1551
68700SOL    HW216415   4.244   3.289   0.042  2.8579  0.0167 -0.0028
68701SOL     OW16416   3.607  10.636   1.609  0.0376 -0.2712  0.5700
68701SOL    HW116417   3.621  10.599   1.522 -2.8635 -0.6707  0.1870
68701SOL    HW216418   3.636  10.727   1.601  2.3139 -0.9890  0.0090
68702SOL     OW16419   9.330   1.872   2.903 -0.1941  0.4400  0.0473
68702SOL    HW116420   9.303   1.811   2.834  3.0425 -1.5027  0.2901
68702SOL    HW216421   9.256   1.875   2.963 -2.6666  1.2789 -2.7727
68703SOL     OW16422   6.327  10.774   6.446 -0.1226 -0.3753  0.0442
68703SOL    HW116423   6.260  10.802   6.384  0.6214 -1.2734 -1.2209
68703SOL    HW216424   6.313  10.680   6.457  0.1218 -0.3354  0.7925
68704SOL     OW16425  11.483   1.053  10.714  0.5472  0.1299 -0.3354
68704SOL    HW116426  11.388   1.046  10.704  0.4846  0.8736 -0.3010
68704SOL    HW216427  11.504   0.996  10.787 -0.0963  1.2482  0.7524
68705SOL     OW16428   5.597   5.297   9.348  0.7916 -0.0428 -0.0343
68705SOL    HW116429   5.688   5.303   9.319  1.1372 -0.7147  0.8372
68705SOL    HW216430   5.565   5.216   9.309  0.5846  0.1673 -0.2997
68706SOL     OW16431   7.001   3.273   5.623 -0.0813  0.3078  0.8059
68706SOL    HW116432   6.919   3.312   5.593 -0.8308 -1.3526  0.5745
68706SOL    HW216433   6.981   3.240   5.710  0.3674 -0.0197  0.7845
68707SOL     OW16434   5.461   0.115   8.690  0.1533 -0.7341  0.1394
68707SOL    HW116435   5.522   0.154   8.752  0.1691 -1.7051  0.7504
68707SOL    HW216436   5.502   0.128   8.604  0.7605 -0.5362  0.4574
68708SOL     OW16437   7.531   2.919  10.064 -0.3419  0.4367 -0.0627
68708SOL    HW116438   7.615   2.929  10.109  0.1214 -1.9871 -0.2503
68708SOL    HW216439   7.554   2.899   9.973 -1.2094  2.0651 -0.6849
68709SOL     OW16440   7.852   1.370   5.074  0.1449 -0.8868 -0.0973
68709SOL    HW116441   7.912   1.413   5.013  1.4653  0.5264  2.0268
68709SOL    HW216442   7.771   1.421   5.068  0.4475 -0.4253 -0.3023
68710SOL     OW16443   3.734   3.438   3.009 -0.5327 -0.4714 -1.0329
68710SOL    HW116444   3.672   3.367   2.994  0.2776 -1.7256  1.0564
68710SOL    HW216445   3.818   3.394   3.024 -0.2084  0.8048  1.3827
68711SOL     OW16446   9.954  12.968   0.060 -1.3586 -0.1681  0.1815
68711SOL    HW116447   9.863  12.974   0.090 -1.5262 -0.7312 -0.1838
68711SOL    HW216448   9.994  13.051   0.086 -1.5768 -0.4888  1.6557
68712SOL     OW16449  12.433  11.261   5.382  0.0575 -0.0044 -0.3554
68712SOL    HW116450  12.427  11.170   5.352 -0.3724 -0.1736  0.2270
68712SOL    HW216451  12.488  11.304   5.317  0.9323 -0.8707 -0.2204
68713SOL     OW16452   9.734  12.221   9.056 -0.0042 -0.3280  0.4792
68713SOL    HW116453   9.692  12.222   8.970  1.6381 -0.0087 -0.3662
68713SOL    HW216454   9.699  12.299   9.100  0.8037  0.8275 -0.8020
68714SOL     OW16455   2.006  12.217   0.513  0.4936  0.1599  0.6134
68714SOL    HW116456   2.006  12.139   0.458  0.4175  0.5750  0.0072
68714SOL    HW216457   1.991  12.185   0.602 -3.5268 -0.2489 -0.0338
68715SOL     OW16458   6.795   1.350  11.671  0.0009  0.3081  0.1198
68715SOL    HW116459   6.825   1.268  11.711  0.7265  0.5789  0.1481
68715SOL    HW216460   6.735   1.322  11.602 -0.9143 -0.1807  1.0863
68716SOL     OW16461  10.844   2.746   4.551 -0.2360 -0.3241 -0.6310
68716SOL    HW116462  10.849   2.758   4.456 -1.1405 -0.8435 -0.7563
68716SOL    HW216463  10.853   2.652   4.564 -3.4076 -0.7174 -0.5102
68717SOL     OW16464   5.281   6.257   7.928 -0.2137 -0.0185 -0.0500
68717SOL    HW116465   5.316   6.318   7.863  0.8778 -0.3148  0.2398
68717SOL    HW216466   5.234   6.191   7.877  0.8786 -0.4104 -0.5721
68718SOL     OW16467   5.582   0.028   7.423  0.3512  0.3025 -0.2081
68718SOL    HW116468   5.493   0.002   7.399  0.1380  0.0105  0.8272
68718SOL    HW216469   5.638  -0.021   7.363 -0.1874  0.7539 -1.0957
68719SOL     OW16470   1.371   1.072   4.195 -0.5029 -0.2019 -0.2425
68719SOL    HW116471   1.304   1.137   4.174 -0.5619 -0.4480 -0.8391
68719SOL    HW216472   1.454   1.117   4.177 -0.5494 -0.3653 -0.8951
68720SOL     OW16473   0.960   6.652   4.068  0.9469 -0.2495  0.4942
68720SOL    HW116474   0.975   6.649   3.974  0.3684 -0.2889  0.4014
68720SOL    HW216475   1.001   6.572   4.102  0.7067 -0.4924  0.2124
68721SOL     OW16476   9.663  10.714  12.679  0.1183  0.1396  0.7685
68721SOL    HW116477   9.669  10.779  12.609  0.1887 -0.1901  0.4685
68721SOL    HW216478   9.720  10.748  12.748  0.9600 -0.1112  0.2096
68722SOL     OW16479   9.891   7.770   3.533  0.4956  0.2072 -0.1813
68722SOL    HW116480   9.949   7.762   3.457  1.0652  0.4577  0.2282
68722SOL    HW216481   9.893   7.863   3.555 -2.1181  0.7621 -1.7720
68723SOL     OW16482  10.943   0.835  12.468 -0.3369  0.0220 -0.0624
68723SOL    HW116483  10.997   0.798  12.398  0.9744 -3.2693  2.4555
68723SOL    HW216484  11.005   0.879  12.525 -0.7047 -1.0123  1.1822
68724SOL     OW16485  10.250   2.352   5.170 -0.2336  0.2757  0.3900
68724SOL    HW116486  10.346   2.345   5.174 -0.1603  0.2975 -1.0668
68724SOL    HW216487  10.221   2.328   5.258  1.1396  0.7515  1.0012
68725SOL     OW16488   1.448  12.525   8.992  0.0763 -0.0385  0.4850
68725SOL    HW116489   1.449  12.446   9.046 -0.2285 -0.7472 -0.4975
68725SOL    HW216490   1.509  12.505   8.920  0.6973  0.9926  0.7043
68726SOL     OW16491  10.752  11.973   0.678 -0.3775 -0.3292 -0.2000
68726SOL    HW116492  10.723  12.002   0.591 -2.0104 -0.5998  0.2194
68726SOL    HW216493  10.802  11.894   0.661 -3.1375 -2.1127 -0.7709
68727SOL     OW16494   2.852   3.731   1.218  0.1178 -0.2925 -0.3746
68727SOL    HW116495   2.863   3.636   1.218  0.4749 -0.2546 -0.1047
68727SOL    HW216496   2.939   3.765   1.239  0.3870  0.1499 -2.1034
68728SOL     OW16497  12.940  10.680   5.500  0.1058 -0.0620 -0.2679
68728SOL    HW116498  13.033  10.662   5.514  0.1923  0.9902  0.7373
68728SOL    HW216499  12.907  10.704   5.587 -0.7810  0.9540 -0.8550
68729SOL     OW16500   5.258   6.468   6.426  0.1908  0.1112 -0.1352
68729SOL    HW116501   5.350   6.442   6.414  0.0850  0.3640 -1.5765
68729SOL    HW216502   5.254   6.496   6.518  1.6064  0.3157 -0.1058
68730SOL     OW16503   4.442   2.937  12.212 -0.0282 -0.2772 -0.5253
68730SOL    HW116504   4.374   2.873  12.189 -0.4027 -0.3409  0.7121
68730SOL    HW216505   4.405   3.021  12.187 -0.6676 -0.2912  0.3286
68731SOL     OW16506   7.936   0.150   6.170  0.1601  0.5657  0.0025
68731SOL    HW116507   7.950   0.058   6.194 -0.1343  1.3136  3.7986
68731SOL    HW216508   8.024   0.184   6.151  0.9025  0.2801  2.4650
68732SOL     OW16509   5.918   8.286   8.936 -0.2005 -0.1141  0.2223
68732SOL    HW116510   5.872   8.234   8.870  1.8494 -0.8238 -0.7327
68732SOL    HW216511   5.901   8.241   9.018 -0.4451 -0.9088 -0.2495
68733SOL     OW16512   0.739  11.205   7.459  0.2254  0.5138  0.4935
68733SOL    HW116513   0.791  11.226   7.536  1.9247 -1.2029 -0.1071
68733SOL    HW216514   0.681  11.134   7.487  1.6881 -0.9572 -0.0391
68734SOL     OW16515  11.835   0.799   5.550 -0.0980 -0.0476  0.0323
68734SOL    HW116516  11.908   0.857   5.527 -0.9820  0.2954 -2.1781
68734SOL    HW216517  11.798   0.836   5.630  0.8520  0.9891  0.0037
68735SOL     OW16518  11.706  11.739   1.380  0.1166 -0.0385 -0.4513
68735SOL    HW116519  11.664  11.774   1.302 -1.8063 -1.0675  0.0453
68735SOL    HW216520  11.762  11.669   1.348 -0.2758 -0.1267 -0.9549
68736SOL     OW16521   1.805   0.263  12.617  0.3799  0.0526  0.3684
68736SOL    HW116522   1.897   0.268  12.594 -0.0496  1.0151 -1.3086
68736SOL    HW216523   1.767   0.205  12.550 -0.4786  0.8814  0.1146
68737SOL     OW16524   0.387   5.804   9.043 -0.7209 -0.1864  0.3732
68737SOL    HW116525   0.296   5.833   9.054 -0.7801 -0.6191  1.0705
68737SOL    HW216526   0.393   5.779   8.951 -1.4211 -0.5225  0.4095
68738SOL     OW16527  12.436   4.546   7.062 -0.2618 -0.3762 -0.1272
68738SOL    HW116528  12.423   4.603   7.138  0.9704 -1.6416  1.0856
68738SOL    HW216529  12.368   4.480   7.069  0.1149 -0.7425  0.1338
68739SOL     OW16530  12.110   0.784   2.362 -0.9546 -0.7054 -0.0369
68739SOL    HW116531  12.204   0.775   2.380 -0.9722  0.3156  0.6150
68739SOL    HW216532  12.068   0.775   2.447 -1.3691 -0.1058 -0.1703
68740SOL     OW16533   8.345   1.363   6.402  0.0780  0.6226  0.2690
68740SOL    HW116534   8.374   1.292   6.344  1.7144  1.4249  0.0259
68740SOL    HW216535   8.282   1.322   6.461  1.6954 -1.2887  0.7692
68741SOL     OW16536   4.024   8.253  10.855 -0.3784  0.1060 -0.2209
68741SOL    HW116537   3.955   8.315  10.829 -0.4832 -0.2549 -0.8232
68741SOL    HW216538   4.081   8.247  10.779 -0.3483 -0.5064 -0.1541
68742SOL     OW16539   4.677   2.490   5.809 -0.2087  0.1788  0.1791
68742SOL    HW116540   4.703   2.569   5.761  0.6742 -0.1630  0.0631
68742SOL    HW216541   4.759   2.441   5.819 -0.7000 -0.5938  0.4838
68743SOL     OW16542   2.311   7.761   8.292 -0.0704 -0.8108 -0.0581
68743SOL    HW116543   2.392   7.808   8.271 -0.2020 -0.9142 -0.8141
68743SOL    HW216544   2.247   7.792   8.229 -0.3107 -1.5789 -0.2079
68744SOL     OW16545   7.658   9.810   2.477  0.1852  0.5816 -0.3857
68744SOL    HW116546   7.668   9.720   2.448  0.8819  0.5644 -0.1058
68744SOL    HW216547   7.574   9.837   2.442 -1.9898 -1.4170  2.7736
68745SOL     OW16548   5.619   5.095   3.784 -0.6251  0.1290  0.2475
68745SOL    HW116549   5.671   5.093   3.704  1.4135  2.2221  1.3876
68745SOL    HW216550   5.676   5.056   3.851 -1.5611  0.1138  1.0664
68746SOL     OW16551   6.533   8.620   1.218  0.0337  0.2269 -0.4312
68746SOL    HW116552   6.503   8.622   1.308  0.8325 -0.1186 -0.1488
68746SOL    HW216553   6.619   8.578   1.222 -1.4866 -3.4750 -1.8022
68747SOL     OW16554   3.990   3.505   9.383  0.1986  0.1105  0.3135
68747SOL    HW116555   3.950   3.428   9.424 -0.4371  1.0798  1.5989
68747SOL    HW216556   4.023   3.474   9.299 -3.5725 -0.6709 -1.0227
68748SOL     OW16557  12.285   0.381   4.521  0.1432 -0.1409 -0.4598
68748SOL    HW116558  12.373   0.405   4.493  0.1840  0.2187 -0.0358
68748SOL    HW216559  12.260   0.450   4.582 -0.8902  0.3995 -1.4616
68749SOL     OW16560   8.151   5.529   7.326  0.2613  0.3825  0.9276
68749SOL    HW116561   8.132   5.517   7.233  1.9625 -0.6590  0.6676
68749SOL    HW216562   8.070   5.506   7.371 -0.2646 -0.1229 -0.2434
68750SOL     OW16563   2.873   9.724   5.197  0.1070  0.5347  0.3683
68750SOL    HW116564   2.944   9.669   5.163  1.4664  2.8674 -0.7522
68750SOL    HW216565   2.849   9.682   5.280  3.5610  0.2333  1.3703
68751SOL     OW16566   0.470  10.872   8.702 -0.1313 -0.3553  0.1216
68751SOL    HW116567   0.493  10.845   8.613  0.9254 -1.9599  0.8471
68751SOL    HW216568   0.374  10.879   8.700 -0.0367  1.3659 -1.5643
68752SOL     OW16569  11.662  12.673   5.919 -0.1073 -0.2333  0.3603
68752SOL    HW116570  11.750  12.644   5.895  0.1759  0.2257  0.8109
68752SOL    HW216571  11.634  12.728   5.846  0.6808  1.0179  0.9555
68753SOL     OW16572   8.168   9.523   4.027 -0.3241  0.1568  0.0409
68753SOL    HW116573   8.231   9.451   4.022 -0.2335  0.2700 -0.6574
68753SOL    HW216574   8.150   9.544   3.935 -2.6662 -0.9694  0.1803
68754SOL     OW16575  12.388  11.036   4.975 -0.1297  0.6051 -0.3330
68754SOL    HW116576  12.340  11.112   5.009 -0.1498  0.0016  1.0772
68754SOL    HW216577  12.323  10.989   4.922 -0.5664  0.7785  0.0359
68755SOL     OW16578   6.144   6.369   8.597 -1.2536  0.2539 -0.0794
68755SOL    HW116579   6.107   6.281   8.591  0.2081 -0.4229  0.2913
68755SOL    HW216580   6.227   6.357   8.644 -0.2505  1.5788 -1.3976
68756SOL     OW16581  10.524   2.282  11.206 -0.1636 -0.3587  0.3200
68756SOL    HW116582  10.606   2.237  11.186 -0.1224 -0.9221  1.6540
68756SOL    HW216583  10.547   2.375  11.208  0.2275 -0.4389 -0.2588
68757SOL     OW16584  12.254   7.747   1.845  0.4503 -0.2726 -0.3128
68757SOL    HW116585  12.248   7.761   1.751  1.7964  2.5320 -0.1064
68757SOL    HW216586  12.340   7.708   1.858  0.2287 -0.7408 -0.2499
68758SOL     OW16587   2.426  10.495  11.532 -0.0556 -0.0885 -0.0082
68758SOL    HW116588   2.410  10.580  11.492 -2.4158 -0.7493 -0.6591
68758SOL    HW216589   2.521  10.489  11.540  0.1604  3.0485  1.1176
68759SOL     OW16590   0.096   5.883   6.694  0.0752  0.0701  0.4876
68759SOL    HW116591   0.060   5.970   6.712  1.7381  0.8073  0.4745
68759SOL    HW216592   0.033   5.843   6.635 -0.3080  1.6342 -0.2382
68760SOL     OW16593   8.680   3.428   5.372 -0.4111 -0.7723  0.2312
68760SOL    HW116594   8.699   3.390   5.286  0.3787 -0.5065  0.2791
68760SOL    HW216595   8.753   3.400   5.427  1.3835  2.4782 -0.2373
68761SOL     OW16596   7.218   1.048   6.632  0.0094  0.0386  0.5798
68761SOL    HW116597   7.200   1.096   6.552 -0.2625  0.0852  0.6659
68761SOL    HW216598   7.228   0.957   6.604 -0.3750  0.0117  0.5281
68762SOL     OW16599   0.878  10.873   1.285 -0.3169 -0.0997 -0.1199
68762SOL    HW116600   0.864  10.785   1.319  0.6717  0.1586  1.0458
68762SOL    HW216601   0.866  10.865   1.191 -1.8089 -1.1407  0.1356
68763SOL     OW16602   0.207   8.508   8.378  0.1228 -0.0590 -0.0118
68763SOL    HW116603   0.284   8.462   8.344 -1.2315 -3.5333  1.1035
68763SOL    HW216604   0.135   8.447   8.362 -1.9979  1.9526  1.2440
68764SOL     OW16605   4.342   0.374   8.761 -0.2460  0.1877  0.1125
68764SOL    HW116606   4.332   0.466   8.786  1.9948  0.2910  0.8477
68764SOL    HW216607   4.323   0.325   8.841 -1.7841 -0.0610 -0.3667
68765SOL     OW16608   0.130   6.993   0.234  0.3668  0.0692  0.3388
68765SOL    HW116609   0.173   7.010   0.150  1.6376  0.1384  0.9843
68765SOL    HW216610   0.155   7.067   0.289 -1.2704  0.5321  0.4939
68766SOL     OW16611   4.338  10.915   4.404  0.7404  0.3348 -0.1983
68766SOL    HW116612   4.365  10.878   4.488  1.6983 -0.9350 -1.0296
68766SOL    HW216613   4.247  10.885   4.394  1.6678 -2.5216 -1.1389
68767SOL     OW16614   0.174   1.544   0.954 -0.2061 -0.8152  0.0553
68767SOL    HW116615   0.208   1.590   1.031 -2.4597 -0.1277  0.7190
68767SOL    HW216616   0.230   1.575   0.882  1.5863 -1.0396  1.2781
68768SOL     OW16617   3.324   6.299   8.669  0.2331  0.7859 -0.1850
68768SOL    HW116618   3.405   6.294   8.719  0.6409  1.9054 -0.6806
68768SOL    HW216619   3.351   6.288   8.578 -0.4559 -0.9316 -0.2168
68769SOL     OW16620  12.803  11.249   7.632 -0.0701  0.4985  0.2689
68769SOL    HW116621  12.793  11.250   7.727 -0.5913  0.4508  0.2159
68769SOL    HW216622  12.897  11.262   7.618 -0.2360  2.4307  0.7354
68770SOL     OW16623   1.102  11.485   7.900 -0.1716  0.2290  0.4573
68770SOL    HW116624   1.120  11.506   7.992 -0.0450  1.7520  0.1198
68770SOL    HW216625   1.055  11.562   7.868 -3.2426 -1.6284  0.0979
68771SOL     OW16626   8.980   0.855   5.273 -0.3299  0.2603 -0.2161
68771SOL    HW116627   8.900   0.841   5.323 -0.4799 -2.2723 -1.0474
68771SOL    HW216628   9.047   0.874   5.339 -1.3213  1.0910  0.5799
68772SOL     OW16629   9.739   8.123   3.256  0.0269  0.9991  0.2750
68772SOL    HW116630   9.812   8.178   3.286 -0.3331  0.9811  1.2144
68772SOL    HW216631   9.716   8.071   3.332 -0.3159  0.2727 -0.3152
68773SOL     OW16632   0.540   8.952   1.829 -0.9716 -0.1732 -0.6514
68773SOL    HW116633   0.597   8.880   1.858 -1.4209 -0.7987 -1.2725
68773SOL    HW216634   0.560   9.024   1.889  0.9127 -0.1642 -1.2020
68774SOL     OW16635   0.631  12.646   5.699  0.5056  0.1979  0.4378
68774SOL    HW116636   0.618  12.695   5.618 -1.7751 -3.0232 -1.4298
68774SOL    HW216637   0.559  12.674   5.756  0.6370  0.7009  0.3608
68775SOL     OW16638   4.944   0.573   0.719  0.3538 -0.0694  0.3225
68775SOL    HW116639   4.970   0.486   0.750  0.3776  0.5384  2.0633
68775SOL    HW216640   5.027   0.619   0.705  0.3571 -0.4306 -1.0112
68776SOL     OW16641  10.868   7.354   9.404 -0.3864  0.2750 -0.1253
68776SOL    HW116642  10.924   7.430   9.420  0.3292 -0.2243 -0.2279
68776SOL    HW216643  10.801   7.386   9.343  1.5320  0.1339 -2.4273
68777SOL     OW16644   9.504   2.718  10.580  0.3863 -0.2939 -0.1445
68777SOL    HW116645   9.466   2.790  10.530 -0.2562  0.1689  0.9747
68777SOL    HW216646   9.485   2.640  10.528 -2.3800 -0.1223  0.4824
68778SOL     OW16647  12.970   7.570   1.081 -0.5901 -0.3272  0.5193
68778SOL    HW116648  12.995   7.587   1.172 -0.1980  0.9913  0.1807
68778SOL    HW216649  12.926   7.650   1.052  1.2006  0.1514 -1.1115
68779SOL     OW16650  10.123   8.586  10.610  0.1540 -0.2888  0.1446
68779SOL    HW116651  10.082   8.648  10.670 -0.4891 -0.9906  0.4450
68779SOL    HW216652  10.125   8.631  10.526  0.7804  0.5843  0.6153
68780SOL     OW16653   8.619   3.711   5.942 -0.1910 -0.0998 -0.4518
68780SOL    HW116654   8.694   3.674   5.896  0.5248  1.4928 -0.6034
68780SOL    HW216655   8.545   3.657   5.913  0.6079 -0.5921 -1.6546
68781SOL     OW16656   7.165   6.677   9.559 -0.1883  0.5221  0.0113
68781SOL    HW116657   7.119   6.599   9.591 -1.9648  1.0924 -1.0373
68781SOL    HW216658   7.187   6.725   9.639 -1.1122  0.0668  0.5603
68782SOL     OW16659   1.280   5.019  10.567  0.1473  0.2483 -0.5795
68782SOL    HW116660   1.354   4.966  10.597 -1.3782 -2.1314 -0.7487
68782SOL    HW216661   1.318   5.081  10.506  2.2571  0.3704  0.7634
68783SOL     OW16662   9.550   9.894   5.831 -0.1800 -0.7346  0.1261
68783SOL    HW116663   9.633   9.882   5.785 -0.3950 -0.1571 -0.4263
68783SOL    HW216664   9.563   9.851   5.915  0.3592 -1.4644 -0.3157
68784SOL     OW16665  10.740   5.505   4.457 -0.3766  0.0183  0.3761
68784SOL    HW116666  10.713   5.545   4.374 -1.4528 -0.5256  0.4519
68784SOL    HW216667  10.816   5.452   4.434 -0.3585  0.2738 -0.1676
68785SOL     OW16668   7.660   7.461  11.101  0.2043  0.4211 -0.2165
68785SOL    HW116669   7.750   7.457  11.070  0.3301  0.3039  0.1643
68785SOL    HW216670   7.623   7.376  11.079  0.5469  0.0175  0.7203
68786SOL     OW16671   4.242   6.728   1.985 -0.1691 -0.5642  0.1627
68786SOL    HW116672   4.335   6.717   2.002  0.5674  1.0621 -2.2451
68786SOL    HW216673   4.216   6.800   2.043  0.2364 -0.6014  0.3955
68787SOL     OW16674   3.619   8.437  11.185  0.3302 -0.1397 -0.4290
68787SOL    HW116675   3.679   8.367  11.161  0.4755 -0.1155 -0.1404
68787SOL    HW216676   3.569   8.402  11.259  0.1867 -0.0553 -0.4841
68788SOL     OW16677  11.317   6.390   0.408  0.1251 -0.2309 -0.5089
68788SOL    HW116678  11.248   6.451   0.434 -1.2617 -1.6053 -0.7808
68788SOL    HW216679  11.315   6.391   0.312 -0.2856 -1.0866 -0.5152
68789SOL     OW16680  10.201   8.652   9.385 -0.1199  0.1743  0.2416
68789SOL    HW116681  10.142   8.596   9.434  0.4339  1.0151  1.9393
68789SOL    HW216682  10.148   8.684   9.311 -0.1320 -3.3592 -1.4819
68790SOL     OW16683   7.096   6.126   4.537  0.0729  0.1586 -0.3562
68790SOL    HW116684   7.064   6.038   4.556 -0.0279  0.0674 -0.9327
68790SOL    HW216685   7.188   6.113   4.513 -0.0362  0.1701 -0.7806
68791SOL     OW16686   2.777   9.503  11.288  0.8126  0.4860  0.6494
68791SOL    HW116687   2.739   9.519  11.374 -0.7371 -0.3649  0.1649
68791SOL    HW216688   2.705   9.468  11.235  1.3566  2.2524 -1.4087
68792SOL     OW16689   5.426   1.633  11.105  0.0238 -0.5264 -0.5510
68792SOL    HW116690   5.494   1.697  11.128  0.9672 -1.2280 -1.3379
68792SOL    HW216691   5.471   1.549  11.104 -0.1106 -0.6973 -4.0413
68793SOL     OW16692   2.097   6.147   7.212  0.3263 -0.0970  0.4091
68793SOL    HW116693   2.046   6.227   7.222  0.9823  0.1747  1.8129
68793SOL    HW216694   2.183   6.176   7.184  0.2957 -0.3982 -0.0112
68794SOL     OW16695  11.313   0.392  10.511 -0.0674  0.1458 -0.0641
68794SOL    HW116696  11.313   0.486  10.526  0.9747 -0.0037  0.9663
68794SOL    HW216697  11.284   0.383  10.420 -0.0717  1.4628 -0.2170
68795SOL     OW16698   0.160  12.634   6.108 -0.1629 -0.1311  0.2241
68795SOL    HW116699   0.114  12.634   6.024 -0.0665  0.0648  0.1696
68795SOL    HW216700   0.242  12.589   6.091  0.8277  1.7704 -0.3405
68796SOL     OW16701   0.175   5.450   2.230  0.0697 -0.2057  0.1227
68796SOL    HW116702   0.128   5.449   2.314  1.0647 -1.1615  0.6900
68796SOL    HW216703   0.234   5.525   2.236 -1.1962  0.8772 -0.5108
68797SOL     OW16704   1.972  10.597   6.091  0.0881  0.1684 -0.1322
68797SOL    HW116705   1.960  10.541   6.168  0.2849  0.4685  0.1218
68797SOL    HW216706   1.904  10.569   6.030  0.7924 -1.0167 -0.4071
68798SOL     OW16707   4.297   6.425   9.338 -0.3566  0.6074  0.3173
68798SOL    HW116708   4.343   6.343   9.356  0.1444  0.8402  0.0941
68798SOL    HW216709   4.207   6.409   9.369  0.0889  0.4663  1.5937
68799SOL     OW16710   0.028   5.744   0.710 -0.1655  0.4038  0.0548
68799SOL    HW116711   0.081   5.719   0.786 -0.8806 -0.4297  0.2928
68799SOL    HW216712   0.062   5.690   0.639  0.0374  0.6744 -0.0545
68800SOL     OW16713   0.683   9.984   5.752  0.3068  0.1606  0.2778
68800SOL    HW116714   0.612  10.045   5.771  0.1728 -0.3267  1.4405
68800SOL    HW216715   0.729   9.975   5.836  0.7726 -0.7661 -0.0674
68801SOL     OW16716   7.779   7.029   6.099 -0.0287  0.0408 -0.4092
68801SOL    HW116717   7.807   7.076   6.021  0.9238  0.8318  0.3696
68801SOL    HW216718   7.684   7.027   6.094  0.0446 -1.6500 -2.5442
68802SOL     OW16719   6.610   1.755   9.502 -0.0790 -0.4703 -0.3830
68802SOL    HW116720   6.547   1.683   9.507  0.3245 -0.7443  1.0386
68802SOL    HW216721   6.613   1.791   9.590  3.1404 -1.6823  0.1073
68803SOL     OW16722   2.362   4.377   3.881 -0.1355  0.0834  0.9137
68803SOL    HW116723   2.322   4.462   3.863  1.5195  0.6187 -0.5417
68803SOL    HW216724   2.449   4.398   3.914  0.7694 -0.9942 -0.6443
68804SOL     OW16725  11.375   3.671   8.938  0.0081 -0.0689 -0.2260
68804SOL    HW116726  11.431   3.634   8.869 -0.9704 -0.3270 -0.9130
68804SOL    HW216727  11.286   3.652   8.908 -0.4612  0.9040  0.5186
68805SOL     OW16728  12.635   2.227   0.672 -0.3806  0.1851 -0.2471
68805SOL    HW116729  12.662   2.246   0.761 -1.1618  0.2357 -0.0124
68805SOL    HW216730  12.628   2.312   0.630 -0.3496  0.1818 -0.2593
68806SOL     OW16731   4.785   8.317  12.187  0.6270 -0.2881  0.1620
68806SOL    HW116732   4.705   8.325  12.239  1.6994  2.7342  1.5897
68806SOL    HW216733   4.758   8.339  12.098 -0.5163 -1.6246  0.1535
68807SOL     OW16734  12.696   6.897   9.743 -0.1844  0.2217  0.2976
68807SOL    HW116735  12.666   6.923   9.829  1.7205 -0.7063  1.3191
68807SOL    HW216736  12.664   6.807   9.732 -0.9320  0.5452 -0.2403
68808SOL     OW16737   0.909   9.353   5.498  0.1494 -0.7980 -0.3928
68808SOL    HW116738   0.928   9.260   5.506  0.8481 -0.7586 -1.3522
68808SOL    HW216739   0.905   9.385   5.589  1.6984 -1.4221 -0.0763
68809SOL     OW16740   1.612   3.291   8.309  0.2740 -0.2293  0.1101
68809SOL    HW116741   1.641   3.289   8.217 -0.7175 -0.6832 -0.2090
68809SOL    HW216742   1.520   3.316   8.304  0.4998  0.8677  1.0714
68810SOL     OW16743  11.782   0.941   8.224 -0.2450 -0.3036 -0.1555
68810SOL    HW116744  11.799   0.932   8.318  1.2571  0.3926 -0.3298
68810SOL    HW216745  11.869   0.941   8.184 -0.7053  1.9595 -1.3025
68811SOL     OW16746   1.093   5.593   8.987 -0.2653 -0.5610 -0.2483
68811SOL    HW116747   1.014   5.635   8.953  0.1656  1.1205  0.6913
68811SOL    HW216748   1.096   5.619   9.079  1.3007 -0.7097 -0.2279
68812SOL     OW16749   5.903   0.192   5.594  0.1947 -0.0374  0.1519
68812SOL    HW116750   5.833   0.251   5.625 -0.7225 -1.7423  1.4889
68812SOL    HW216751   5.965   0.250   5.550 -0.1813  2.0744  2.2078
68813SOL     OW16752  11.225  12.718   8.855  0.2635 -0.0333  0.4219
68813SOL    HW116753  11.134  12.709   8.826  0.8477 -1.4683 -1.1340
68813SOL    HW216754  11.235  12.811   8.873 -1.2592  0.3008 -0.2478
68814SOL     OW16755   8.729   6.108   5.859 -0.0081  0.2639  0.1974
68814SOL    HW116756   8.635   6.121   5.845 -0.2542 -0.9297  0.6807
68814SOL    HW216757   8.753   6.175   5.924 -0.7490 -0.0955  0.8565
68815SOL     OW16758   9.447   8.275  10.299  0.4300  0.1886 -0.2216
68815SOL    HW116759   9.459   8.347  10.361 -2.4815  0.2642  0.4164
68815SOL    HW216760   9.449   8.317  10.213  3.4743  0.2374 -0.2028
68816SOL     OW16761   3.214   0.922  11.201  0.0124 -0.3843 -0.1845
68816SOL    HW116762   3.246   0.950  11.286 -0.2371 -0.0943 -0.1861
68816SOL    HW216763   3.198   0.828  11.211 -0.2679 -0.2996  0.1651
68817SOL     OW16764   1.368   0.247   0.327 -0.2446  0.5662  0.6835
68817SOL    HW116765   1.380   0.196   0.247 -1.4957  1.1822  0.0740
68817SOL    HW216766   1.346   0.335   0.296 -0.8312  0.7957  1.7069
68818SOL     OW16767  10.926  10.794   1.361  0.2308  0.0185  0.4276
68818SOL    HW116768  10.936  10.889   1.351 -1.1540  0.1946  0.5816
68818SOL    HW216769  10.928  10.780   1.456  1.0737 -0.2056  0.3916
68819SOL     OW16770  10.150  10.024   1.720 -0.0415 -0.3922  0.3199
68819SOL    HW116771  10.193  10.075   1.789  2.3062  0.2067 -1.4593
68819SOL    HW216772  10.056  10.039   1.735  0.4071  0.4532  2.7872
68820SOL     OW16773   6.520   2.271   8.208 -0.1204 -0.3370 -0.6585
68820SOL    HW116774   6.472   2.214   8.148  0.1239 -0.4280 -0.7697
68820SOL    HW216775   6.567   2.211   8.265 -1.3966 -0.2826  0.5109
68821SOL     OW16776  11.597   1.895  10.840 -0.1951  0.3326 -0.1795
68821SOL    HW116777  11.523   1.838  10.862 -0.5471  1.2239  1.0231
68821SOL    HW216778  11.614   1.944  10.920  1.6351  0.2400 -0.4622
68822SOL     OW16779   5.835  12.911   9.201  0.3264 -0.1286  0.3275
68822SOL    HW116780   5.780  12.881   9.128  1.6235 -0.5235 -0.5357
68822SOL    HW216781   5.793  12.874   9.279 -0.0033 -1.3983 -0.4068
68823SOL     OW16782   1.492  11.682   5.688  0.3725  0.3614  0.6787
68823SOL    HW116783   1.532  11.694   5.602 -0.5650  0.6457  0.2651
68823SOL    HW216784   1.470  11.771   5.717 -1.5734  0.1154  0.0815
68824SOL     OW16785   9.979   9.210   7.189 -0.2275  0.4709  0.4127
68824SOL    HW116786   9.899   9.249   7.155  0.8099  1.9761 -0.3767
68824SOL    HW216787   9.958   9.117   7.199 -1.6907  0.6288 -0.9034
68825SOL     OW16788   9.062   1.385   0.133  0.0956 -0.1608 -0.2705
68825SOL    HW116789   9.132   1.449   0.139  0.8057 -0.8348 -0.9957
68825SOL    HW216790   9.007   1.401   0.209 -0.2627  1.8955 -0.9135
68826SOL     OW16791  11.131  10.827   0.980  0.1312  0.1341  0.7860
68826SOL    HW116792  11.135  10.785   1.066 -0.8998 -3.9395 -0.9098
68826SOL    HW216793  11.038  10.822   0.956  0.6019 -0.1284 -1.1016
68827SOL     OW16794   9.585   5.410   5.580 -0.1703 -0.2098 -0.1843
68827SOL    HW116795   9.584   5.375   5.491  0.4873 -1.3746  0.2455
68827SOL    HW216796   9.499   5.387   5.616 -2.0940  3.5964 -1.6666
68828SOL     OW16797   2.662  11.742   8.320  0.1054  0.1688  0.2386
68828SOL    HW116798   2.610  11.795   8.260  1.5475 -0.0128 -1.2552
68828SOL    HW216799   2.749  11.783   8.319  0.9821 -1.5708 -0.1907
68829SOL     OW16800   0.907   4.448  11.695  0.4567  0.0377 -0.4106
68829SOL    HW116801   0.896   4.356  11.719 -2.6571  0.2926 -0.4678
68829SOL    HW216802   0.892   4.496  11.777  2.1842  0.5688 -0.3544
68830SOL     OW16803  10.573   3.048   8.339 -0.2961 -0.3431 -0.0396
68830SOL    HW116804  10.561   3.106   8.414 -0.9141 -0.4224 -0.0690
68830SOL    HW216805  10.657   3.074   8.301 -0.3445  0.2153  0.2247
68831SOL     OW16806  10.649   2.867   7.706  0.0927  0.7566  0.0315
68831SOL    HW116807  10.563   2.825   7.704  0.0866  0.7663  0.0940
68831SOL    HW216808  10.645   2.926   7.781  0.4693  0.0757  0.6090
68832SOL     OW16809   6.928   0.716   1.752 -0.1797 -0.4990  0.1443
68832SOL    HW116810   6.980   0.789   1.786 -0.6292  0.3858 -1.0108
68832SOL    HW216811   6.991   0.645   1.740  0.5616  0.2023 -0.1862
68833SOL     OW16812   9.679   0.697   5.505 -0.9106 -0.1489  0.0197
68833SOL    HW116813   9.683   0.606   5.534 -0.1209 -0.0686  0.2001
68833SOL    HW216814   9.766   0.714   5.468 -1.4761  0.1427 -1.2269
68834SOL     OW16815   9.150   1.276   8.951 -0.0948 -0.4403  0.4120
68834SOL    HW116816   9.166   1.219   8.875 -1.1046  1.8688 -1.6571
68834SOL    HW216817   9.216   1.345   8.943 -1.2891  0.7616  0.6175
68835SOL     OW16818   1.854   0.334  10.655  0.5935  0.4215 -0.7449
68835SOL    HW116819   1.892   0.246  10.662  0.3485  0.2833 -1.0651
68835SOL    HW216820   1.928   0.394  10.664  0.4573  0.3053  2.1984
68836SOL     OW16821   5.395   1.336  12.664 -0.0753  0.5272 -0.2761
68836SOL    HW116822   5.325   1.400  12.647 -1.1672 -0.4667  0.3006
68836SOL    HW216823   5.439   1.326  12.580 -1.9688 -0.3317 -1.2415
68837SOL     OW16824   4.994   9.499   0.544  0.0762  0.2366  0.2353
68837SOL    HW116825   4.916   9.555   0.545 -1.3672 -1.6375 -1.2578
68837SOL    HW216826   5.032   9.511   0.631 -0.6946  2.7399  0.3255
68838SOL     OW16827  10.004   7.101  10.689  0.1436  0.1605 -0.3188
68838SOL    HW116828   9.924   7.142  10.657  0.1751  0.7703  0.3481
68838SOL    HW216829  10.030   7.041  10.620 -0.7746  0.1146 -0.6370
68839SOL     OW16830   5.515  11.907   1.072  0.9192  0.0038 -0.0182
68839SOL    HW116831   5.450  11.850   1.113  0.3827  0.5493 -0.0864
68839SOL    HW216832   5.599  11.870   1.098  0.6007  0.3417  1.6209
68840SOL     OW16833  11.377   7.305   7.454  0.6490 -0.2961  0.2045
68840SOL    HW116834  11.335   7.260   7.380 -0.2137  0.2961  0.3218
68840SOL    HW216835  11.324   7.280   7.530  1.8501 -1.3401  0.7300
68841SOL     OW16836   0.555   2.287  11.933 -0.2699  0.3047 -0.5437
68841SOL    HW116837   0.564   2.381  11.949 -0.4970 -0.2415  3.9921
68841SOL    HW216838   0.643   2.251  11.948 -0.3311 -0.3412 -1.5841
68842SOL     OW16839   8.589   3.379   4.746  0.5047 -0.2102  0.2958
68842SOL    HW116840   8.681   3.364   4.726  0.0485 -3.7971  0.1277
68842SOL    HW216841   8.589   3.419   4.833  2.2069  0.8696 -0.1682
68843SOL     OW16842   7.939   4.338   2.677 -0.2982 -0.2268 -0.0761
68843SOL    HW116843   7.873   4.399   2.708  0.0684  0.4252 -0.5550
68843SOL    HW216844   7.972   4.296   2.757  0.0620  0.8437  0.3652
68844SOL     OW16845   8.173  12.498  10.923 -0.0920  0.1624 -0.3757
68844SOL    HW116846   8.259  12.514  10.885  0.5145  0.4953  1.0512
68844SOL    HW216847   8.167  12.561  10.995 -1.7748  0.5291 -0.7979
68845SOL     OW16848   5.358  12.523   2.522 -0.0628  0.0018  0.8717
68845SOL    HW116849   5.397  12.610   2.519  3.5356 -1.4856 -1.4622
68845SOL    HW216850   5.432  12.463   2.528 -2.0482 -3.0510 -1.6703
68846SOL     OW16851   4.238   7.379  11.493 -0.0114 -0.2168  0.2831
68846SOL    HW116852   4.213   7.398  11.403  0.3337 -0.6195  0.0958
68846SOL    HW216853   4.295   7.302  11.486 -1.2894 -1.2597  0.9904
68847SOL     OW16854   7.925   1.112   7.954 -0.0439 -0.0001 -0.0039
68847SOL    HW116855   7.938   1.207   7.959 -0.8281  0.1212 -0.1458
68847SOL    HW216856   7.960   1.087   7.868  0.3347  0.1275  0.1102
68848SOL     OW16857   4.030   7.089  10.680  0.2840  0.1322 -0.7525
68848SOL    HW116858   3.998   7.153  10.617 -1.0881 -0.0208 -0.2309
68848SOL    HW216859   3.954   7.065  10.732  1.2531 -0.2346  0.5532
68849SOL     OW16860   3.615   4.384  12.162  0.0316 -0.5007  0.3114
68849SOL    HW116861   3.562   4.305  12.157  0.1998 -0.7442  1.8200
68849SOL    HW216862   3.705   4.351  12.166  0.1251 -0.2183  0.5197
68850SOL     OW16863   7.413   5.119   1.872 -0.3485  0.3816 -0.1638
68850SOL    HW116864   7.338   5.131   1.931  1.3741  1.0731  2.0490
68850SOL    HW216865   7.389   5.045   1.817 -2.0683 -0.3802  1.5024
68851SOL     OW16866  11.448   9.775   7.257  0.0502  0.2688  0.0770
68851SOL    HW116867  11.357   9.784   7.286 -0.5248 -2.2277 -0.6793
68851SOL    HW216868  11.451   9.826   7.176 -1.2164 -0.9013 -0.7794
68852SOL     OW16869   2.864   4.891   4.530  0.1046 -0.2129 -0.0528
68852SOL    HW116870   2.792   4.939   4.571  2.3826  1.2397  2.6004
68852SOL    HW216871   2.895   4.949   4.461 -2.0269 -1.4913 -2.2646
68853SOL     OW16872  10.795   9.342   4.135 -0.5617  0.7329 -0.4673
68853SOL    HW116873  10.887   9.357   4.116 -0.4365  1.5192  0.6916
68853SOL    HW216874  10.762   9.427   4.162 -1.3316  0.1987  0.3192
68854SOL     OW16875   3.306   3.541  12.555 -0.4493 -0.0123  0.3706
68854SOL    HW116876   3.319   3.458  12.509  0.1273 -0.6074  1.5756
68854SOL    HW216877   3.283   3.603  12.485 -1.3022 -1.2556 -0.4913
68855SOL     OW16878  12.112   8.063   0.915  0.1775 -0.3635  0.6395
68855SOL    HW116879  12.066   7.988   0.954  3.1605 -1.5011  2.2620
68855SOL    HW216880  12.171   8.024   0.851  0.0597  0.8988 -0.2719
68856SOL     OW16881   2.274  12.693   1.468  0.0046 -0.5735 -0.1172
68856SOL    HW116882   2.308  12.772   1.509 -0.4017 -0.4212 -0.0724
68856SOL    HW216883   2.210  12.724   1.405 -0.0835 -0.8611 -0.1715
68857SOL     OW16884   0.491   8.003   6.415  0.0316 -0.7972  0.0709
68857SOL    HW116885   0.468   8.067   6.347  0.4057 -0.9102 -0.1641
68857SOL    HW216886   0.486   8.052   6.497  0.1869 -0.4989 -0.0974
68858SOL     OW16887   7.129   8.859  10.647  0.6127  0.3088 -0.2139
68858SOL    HW116888   7.087   8.800  10.585  0.4056 -0.1599  0.3621
68858SOL    HW216889   7.223   8.847  10.632  0.5632  0.1712 -0.4142
68859SOL     OW16890   2.214   4.635   9.710 -0.4654 -0.1466 -0.5275
68859SOL    HW116891   2.305   4.641   9.682  1.2698 -2.6492  3.6929
68859SOL    HW216892   2.193   4.542   9.710 -1.6979  0.0196  1.9282
68860SOL     OW16893   3.041  10.988   0.122  0.5646  0.8687 -0.0617
68860SOL    HW116894   3.011  10.902   0.091 -0.4664  0.5663  1.6437
68860SOL    HW216895   3.136  10.981   0.121  0.5384  0.2557 -1.3609
68861SOL     OW16896  10.984   7.503   3.663 -0.4651 -0.2411 -0.3252
68861SOL    HW116897  11.032   7.469   3.587 -0.1806 -0.9618  0.1760
68861SOL    HW216898  10.892   7.500   3.636 -0.2919  0.5380 -1.0477
68862SOL     OW16899   7.422   6.929   2.268  0.0922 -0.2428 -0.0746
68862SOL    HW116900   7.440   6.835   2.272  0.1578 -0.1884  1.2801
68862SOL    HW216901   7.344   6.941   2.321  0.8127  0.6260  0.8216
68863SOL     OW16902   2.383   9.882   6.146 -0.3052 -0.1841  0.0046
68863SOL    HW116903   2.336   9.800   6.128  0.0412 -0.5995  0.8940
68863SOL    HW216904   2.417   9.910   6.061  1.4346 -2.1250 -0.0379
68864SOL     OW16905   1.520   4.762   3.767  0.1118 -0.5036 -0.0993
68864SOL    HW116906   1.535   4.728   3.679  0.2041 -0.2037 -0.2027
68864SOL    HW216907   1.430   4.739   3.787  0.3731 -1.3925  0.1037
68865SOL     OW16908   7.857   2.392   5.289  0.5442  0.1897  0.3047
68865SOL    HW116909   7.932   2.448   5.272  1.0498 -0.3450  0.7344
68865SOL    HW216910   7.881   2.341   5.366 -0.0889 -0.2873  0.2039
68866SOL     OW16911   4.003   8.853   0.841 -0.3221 -0.1775  0.1854
68866SOL    HW116912   4.095   8.849   0.867 -0.9059 -1.3928  2.3647
68866SOL    HW216913   4.006   8.865   0.746  2.1023 -1.6062 -0.0230
68867SOL     OW16914   7.612  10.714   5.740  0.2792 -0.0073  0.1157
68867SOL    HW116915   7.567  10.775   5.681 -2.3275 -0.9541  0.9482
68867SOL    HW216916   7.695  10.696   5.697 -1.2278 -0.2277 -3.0245
68868SOL     OW16917   2.585   8.855   4.096  0.2864  0.7466 -0.0467
68868SOL    HW116918   2.627   8.836   4.012  0.6308  1.3749 -0.0231
68868SOL    HW216919   2.654   8.896   4.148  0.9517 -2.1800  1.6040
68869SOL     OW16920   2.173  11.455   5.073  0.5064 -0.2063 -0.1183
68869SOL    HW116921   2.235  11.507   5.123 -0.0652 -0.1856  0.5957
68869SOL    HW216922   2.153  11.380   5.130  1.4749 -1.3401 -1.2082
68870SOL     OW16923  11.443   7.526   2.964 -0.2146 -0.2312 -0.3173
68870SOL    HW116924  11.429   7.513   2.871 -0.4904  0.3549 -0.3605
68870SOL    HW216925  11.427   7.619   2.979  1.1461 -0.0346  0.0789
68871SOL     OW16926   9.787  12.974  10.764 -0.0667 -0.5063  0.3003
68871SOL    HW116927   9.768  13.009  10.677 -1.2403 -1.5674  0.0952
68871SOL    HW216928   9.788  12.879  10.752 -1.8958 -0.7559  1.7209
68872SOL     OW16929  10.279   7.620  12.770 -0.1927  0.2760 -0.4878
68872SOL    HW116930  10.351   7.614  12.832 -0.8122 -0.6595  0.1841
68872SOL    HW216931  10.311   7.576  12.691  0.7943  1.9542 -1.0692
68873SOL     OW16932  10.741   5.344  11.180 -0.1131 -0.0324 -0.8497
68873SOL    HW116933  10.693   5.270  11.217  0.4789  0.5682  1.2294
68873SOL    HW216934  10.740   5.327  11.086 -2.0128 -1.4469 -0.6498
68874SOL     OW16935   9.361  10.656   8.681  0.6165  0.0749 -0.4323
68874SOL    HW116936   9.424  10.633   8.613 -1.1343 -0.4415 -1.9775
68874SOL    HW216937   9.277  10.625   8.647 -0.4841  0.6904  1.5481
68875SOL     OW16938  12.485   4.330  11.643 -0.1299 -0.0016 -0.3510
68875SOL    HW116939  12.523   4.290  11.565 -1.4221 -1.6396 -0.2035
68875SOL    HW216940  12.549   4.317  11.712 -0.3946 -1.6296 -0.3799
68876SOL     OW16941  10.380   2.877   0.846  0.0319  0.1757  0.0942
68876SOL    HW116942  10.407   2.786   0.835 -0.3193  0.2044 -1.1386
68876SOL    HW216943  10.355   2.884   0.939 -0.3013 -1.0784  0.1122
68877SOL     OW16944   7.984   2.388   0.366  0.2326  0.1955  0.6973
68877SOL    HW116945   7.963   2.385   0.460 -1.8424  2.3803  0.3864
68877SOL    HW216946   7.908   2.349   0.323 -0.4285  2.3114 -0.1743
68878SOL     OW16947   2.223   5.876  11.519  0.0434 -0.3220 -0.0197
68878SOL    HW116948   2.292   5.895  11.455  0.4783 -2.1780 -0.1589
68878SOL    HW216949   2.265   5.819  11.582 -0.9322 -0.1005  0.8480
68879SOL     OW16950   1.021  12.632   6.005  0.4960  0.1396 -0.1066
68879SOL    HW116951   1.028  12.550   6.055  0.1249  0.6143  0.7563
68879SOL    HW216952   0.939  12.623   5.957  0.7572 -0.2384 -0.4990
68880SOL     OW16953   7.574  12.438  11.950  0.2289 -0.1670 -0.4151
68880SOL    HW116954   7.536  12.420  11.864 -1.1198 -0.3203  0.1744
68880SOL    HW216955   7.620  12.357  11.973  0.8648 -0.0144 -1.1079
68881SOL     OW16956  12.717   3.998   9.461  0.2724  0.1276 -0.3614
68881SOL    HW116957  12.741   4.083   9.498  0.4952 -0.1975  0.2452
68881SOL    HW216958  12.669   3.953   9.530 -1.9330  0.6562 -1.4593
68882SOL     OW16959   5.247   7.181   3.176 -0.0379  0.3852 -0.4328
68882SOL    HW116960   5.247   7.111   3.241  0.7680  2.1684  1.6293
68882SOL    HW216961   5.334   7.220   3.182  0.2661  0.3014 -3.0350
68883SOL     OW16962   9.800   3.056  11.548  0.1715 -0.5999  0.3774
68883SOL    HW116963   9.721   3.108  11.530 -0.8158 -1.2864  2.4640
68883SOL    HW216964   9.769   2.984  11.603  1.7544 -2.6230 -1.2385
68884SOL     OW16965   8.845   3.626   1.759 -0.0839  0.0561 -0.2688
68884SOL    HW116966   8.787   3.580   1.698  0.1589  1.1721 -1.3621
68884SOL    HW216967   8.786   3.676   1.815 -0.3609 -1.5927  1.0025
68885SOL     OW16968   9.994   4.530   6.811  0.1943  0.3648  0.4155
68885SOL    HW116969  10.023   4.608   6.858  0.3978  0.3725  0.2816
68885SOL    HW216970   9.979   4.465   6.880  1.2301  0.1380  0.4502
68886SOL     OW16971   6.154   1.724  11.679 -0.2653  0.0235  0.3804
68886SOL    HW116972   6.101   1.802  11.662  0.0367  0.2321  0.3972
68886SOL    HW216973   6.149   1.673  11.598  1.6309  1.2830 -0.5947
68887SOL     OW16974  10.950   9.603   0.392  0.1526 -0.4652  0.0289
68887SOL    HW116975  10.907   9.630   0.473  0.2795  1.6222 -0.5418
68887SOL    HW216976  10.884   9.553   0.345  0.5029 -2.9143  1.9644
68888SOL     OW16977   0.227   3.153  12.524 -0.3421 -0.1802 -0.3940
68888SOL    HW116978   0.198   3.239  12.493 -0.2310 -0.6832 -2.0004
68888SOL    HW216979   0.300   3.171  12.583 -0.2774  0.8307 -0.7727
68889SOL     OW16980   5.210   8.043   5.222  0.2270  0.0049 -0.2902
68889SOL    HW116981   5.178   8.118   5.273 -0.6242 -0.4668 -0.1077
68889SOL    HW216982   5.299   8.029   5.254  0.2048  0.6147  0.0514
68890SOL     OW16983   9.343   4.391   3.145 -0.6133 -0.2220  0.1130
68890SOL    HW116984   9.416   4.361   3.200 -0.4805  0.8937  0.5672
68890SOL    HW216985   9.270   4.333   3.167  0.2140 -1.6033 -0.6188
68891SOL     OW16986   6.318   2.254   5.620 -1.0801  0.1717 -0.1436
68891SOL    HW116987   6.371   2.253   5.700 -2.9627  0.9744  1.2002
68891SOL    HW216988   6.293   2.163   5.606 -2.6549  0.2615  1.6284
68892SOL     OW16989  11.932  12.081  10.768 -0.3824  0.1214 -0.1314
68892SOL    HW116990  11.971  12.116  10.849  0.5534 -1.3917  0.1287
68892SOL    HW216991  11.856  12.031  10.798  0.1320 -0.6813 -0.1305
68893SOL     OW16992   6.926  11.343   0.205 -0.5057 -0.0171  0.1557
68893SOL    HW116993   6.893  11.433   0.202  2.2947  1.1118 -0.3561
68893SOL    HW216994   6.976  11.339   0.286  0.2682 -0.7664 -0.3502
68894SOL     OW16995   3.222   5.667   2.986  0.4225  0.7158  0.6915
68894SOL    HW116996   3.230   5.652   2.891 -0.3666 -0.8739  0.8477
68894SOL    HW216997   3.296   5.724   3.007  1.1715  0.3171 -0.7115
68895SOL     OW16998  11.924  11.074   5.909 -0.0874 -0.1913  0.1377
68895SOL    HW116999  11.861  11.003   5.924 -0.2454 -0.8318 -2.9166
68895SOL    HW217000  11.976  11.045   5.834  1.9519  1.6124  0.7443
68896SOL     OW17001   2.035   6.027  12.035  0.0075  0.4534 -0.4582
68896SOL    HW117002   2.024   5.936  12.061  0.5229  1.1323  2.4770
68896SOL    HW217003   1.957   6.047  11.983 -1.1650 -1.0942  0.6065
68897SOL     OW17004   1.546   1.752   6.491  0.7811 -0.4117  0.2959
68897SOL    HW117005   1.519   1.843   6.502  0.6635 -0.6681  2.7419
68897SOL    HW217006   1.531   1.733   6.398 -0.4696  1.6457  0.0170
68898SOL     OW17007   5.784   0.612  12.297  0.0244  0.0136 -0.2045
68898SOL    HW117008   5.768   0.685  12.237 -0.4185  0.3888  0.3553
68898SOL    HW217009   5.698   0.571  12.307  0.6034 -1.7644 -1.9898
68899SOL     OW17010   1.220  12.266   5.678 -0.3031 -0.0998  0.5941
68899SOL    HW117011   1.128  12.278   5.701 -0.2229 -0.0440  0.8905
68899SOL    HW217012   1.267  12.327   5.734 -0.0579 -0.3526  0.6667
68900SOL     OW17013   8.570  11.360   0.005 -0.8046 -0.0086 -0.2876
68900SOL    HW117014   8.576  11.370  -0.090  0.5110  0.8484 -0.1387
68900SOL    HW217015   8.631  11.425   0.040 -1.4489 -0.1398  1.1579
68901SOL     OW17016  10.502   2.500   6.478 -0.0069 -0.4071 -0.4212
68901SOL    HW117017  10.442   2.494   6.552  1.1912 -0.5020  0.5821
68901SOL    HW217018  10.467   2.440   6.413 -1.1262 -0.2604  0.0379
68902SOL     OW17019   4.366   1.818   5.161  0.2991  0.4522 -0.1551
68902SOL    HW117020   4.367   1.764   5.082  0.2079 -0.8191  0.6813
68902SOL    HW217021   4.280   1.801   5.201  1.1957 -0.7223  1.3918
68903SOL     OW17022  10.641   4.004   4.908 -0.0164 -0.1502  0.1132
68903SOL    HW117023  10.567   4.039   4.958 -0.6741 -0.7581 -0.4058
68903SOL    HW217024  10.614   3.915   4.884 -1.0574  1.0052 -3.7968
68904SOL     OW17025  12.629   2.983   1.439  0.0225  0.0419  0.2567
68904SOL    HW117026  12.550   2.963   1.388 -0.3381  0.1334  0.7769
68904SOL    HW217027  12.616   3.072   1.470 -0.1605 -0.3133  1.2315
68905SOL     OW17028   4.174   5.723   6.824  0.1841  0.2522 -0.0622
68905SOL    HW117029   4.140   5.696   6.909 -0.9199 -3.5860 -1.5368
68905SOL    HW217030   4.098   5.759   6.778  0.7714  2.2884  0.4409
68906SOL     OW17031  12.368   2.388   0.691 -0.4573 -0.5191  0.3099
68906SOL    HW117032  12.323   2.453   0.745  0.4961 -0.9208  1.6477
68906SOL    HW217033  12.325   2.394   0.605  0.2938  2.6399  0.0177
68907SOL     OW17034   2.564  10.961   5.869 -0.2493  0.1849 -0.1919
68907SOL    HW117035   2.601  11.040   5.830  1.7484 -0.5561  0.0462
68907SOL    HW217036   2.571  10.894   5.801 -2.3140  0.2695 -0.5390
68908SOL     OW17037   9.647  11.483   8.443 -0.4794 -0.2897 -0.1549
68908SOL    HW117038   9.725  11.430   8.458  0.2393  1.0914  1.2660
68908SOL    HW217039   9.630  11.474   8.349  0.6438 -1.5930 -0.2689
68909SOL     OW17040   7.242   6.335   6.726  0.3359 -0.5895 -0.7188
68909SOL    HW117041   7.313   6.386   6.687  0.6975 -1.4232 -1.1787
68909SOL    HW217042   7.255   6.342   6.820  0.5246 -0.0454 -0.7820
68910SOL     OW17043   4.703  10.869  10.055 -0.2679  0.1604 -0.6918
68910SOL    HW117044   4.725  10.902  10.142 -1.4868 -0.5792 -0.0788
68910SOL    HW217045   4.644  10.936  10.019 -1.0675 -0.2996 -0.2775
68911SOL     OW17046   5.419   6.866   0.935 -0.6546 -0.1053 -0.1773
68911SOL    HW117047   5.344   6.919   0.908 -1.3411 -0.9089  0.0924
68911SOL    HW217048   5.442   6.900   1.022 -1.2395 -0.3861  0.0946
68912SOL     OW17049   0.844   3.754   3.722 -0.3497  0.1546 -0.5237
68912SOL    HW117050   0.912   3.686   3.718 -0.3767  0.1583 -1.1408
68912SOL    HW217051   0.883   3.823   3.776 -0.2907 -0.3146  0.0370
68913SOL     OW17052  10.384   9.385   1.318  0.6602  0.0590  0.2184
68913SOL    HW117053  10.462   9.328   1.322  0.7727  0.0776 -1.2706
68913SOL    HW217054  10.319   9.339   1.371  0.9178 -1.2176 -0.5261
68914SOL     OW17055  10.794   5.369   6.192  0.1043 -0.8415  0.6394
68914SOL    HW117056  10.717   5.350   6.138 -0.8274 -0.7297  1.8710
68914SOL    HW217057  10.808   5.289   6.242  1.7468 -1.4015 -0.6417
68915SOL     OW17058  11.593  12.616   9.216 -0.2177  0.1587 -0.1516
68915SOL    HW117059  11.609  12.538   9.270  1.4485 -0.3044 -1.2361
68915SOL    HW217060  11.504  12.603   9.181 -0.9166 -0.0357  1.5918
68916SOL     OW17061  11.445   9.980   3.040  0.2498  0.2596 -0.0743
68916SOL    HW117062  11.361   9.951   3.004  0.4559  0.9419 -1.1601
68916SOL    HW217063  11.456  10.069   3.007  2.0003 -0.2762 -1.0746
68917SOL     OW17064  11.791  10.672   5.047  0.2122 -0.1739 -0.3280
68917SOL    HW117065  11.757  10.748   5.095  0.8265  0.5562 -1.0096
68917SOL    HW217066  11.832  10.710   4.969 -0.3455 -1.2950 -1.1956
68918SOL     OW17067   4.785   9.219   8.739 -0.7177  0.2949  0.1487
68918SOL    HW117068   4.866   9.178   8.770 -0.9891 -0.1622  0.2518
68918SOL    HW217069   4.814   9.303   8.703 -0.3815  0.8233  1.5700
68919SOL     OW17070  11.197   6.065   4.864  0.0927 -0.1075 -0.4759
68919SOL    HW117071  11.286   6.031   4.861  0.8476  1.8041 -1.1824
68919SOL    HW217072  11.159   6.042   4.780 -0.7694 -2.5519  0.5154
68920SOL     OW17073  10.871   8.929   2.310  0.2790  0.0772 -0.0039
68920SOL    HW117074  10.827   8.885   2.238  0.2937  1.3394 -0.8076
68920SOL    HW217075  10.822   8.903   2.388  0.3435 -1.4106 -0.4224
68921SOL     OW17076   9.959   4.126   9.354 -0.2641  0.8920 -0.4515
68921SOL    HW117077   9.870   4.138   9.388 -0.4606  2.1547 -1.3435
68921SOL    HW217078  10.011   4.189   9.403  0.3454 -0.4782  0.7222
68922SOL     OW17079   2.455   1.665  12.727 -0.1559 -0.5104 -0.2168
68922SOL    HW117080   2.371   1.626  12.750 -0.0236  0.7278  2.8075
68922SOL    HW217081   2.433   1.751  12.690 -0.2521 -0.1455  0.6645
68923SOL     OW17082  10.015   3.269   2.063 -0.0937 -0.0470  0.1086
68923SOL    HW117083   9.931   3.267   2.109 -0.7109  0.4150 -0.9566
68923SOL    HW217084  10.028   3.361   2.039  1.1087  0.0221  0.9309
68924SOL     OW17085   3.216   0.782   1.293  0.6471 -0.2700 -0.3294
68924SOL    HW117086   3.160   0.704   1.293 -0.7975  0.7013 -1.6380
68924SOL    HW217087   3.164   0.850   1.336  1.7251  0.0924  0.4374
68925SOL     OW17088  10.847  11.225   8.558  0.9699 -0.3780  0.2286
68925SOL    HW117089  10.838  11.158   8.490 -0.6193  2.3238 -2.4632
68925SOL    HW217090  10.913  11.286   8.523 -0.7016  1.6815  0.4400
68926SOL     OW17091  10.723   7.677   9.110 -0.3821 -0.2083  0.0447
68926SOL    HW117092  10.699   7.605   9.168 -0.5197 -0.9651 -0.9329
68926SOL    HW217093  10.791   7.641   9.053 -0.2452  0.5206 -0.2699
68927SOL     OW17094   3.736   4.570   8.103 -0.3664  0.2078 -0.4981
68927SOL    HW117095   3.749   4.651   8.153 -1.3525 -0.0100  0.1384
68927SOL    HW217096   3.776   4.588   8.018 -2.5066  2.2100 -1.1866
68928SOL     OW17097   8.460  12.917   9.768 -0.3132 -0.2166  0.1050
68928SOL    HW117098   8.418  12.887   9.687 -0.4946  0.6335 -0.1255
68928SOL    HW217099   8.403  12.986   9.800  1.3138  1.5582 -0.6527
68929SOL     OW17100   7.547   9.311   7.000  0.1648 -0.3187  0.2277
68929SOL    HW117101   7.493   9.388   6.986 -0.7943 -0.9375  0.4303
68929SOL    HW217102   7.594   9.299   6.918  0.3586  0.5005  0.2140
68930SOL     OW17103   7.647  11.165   8.450  0.2998  0.1436 -0.0141
68930SOL    HW117104   7.736  11.166   8.416  0.5334  0.1647  0.5879
68930SOL    HW217105   7.603  11.098   8.397  0.9851 -0.6981  0.4478
68931SOL     OW17106   0.284  11.932   8.892 -0.1457 -0.4182 -0.1638
68931SOL    HW117107   0.215  11.986   8.854  1.1922 -0.1954 -2.4720
68931SOL    HW217108   0.244  11.894   8.971 -3.0169 -0.5792 -1.5525
68932SOL     OW17109   6.186   4.905   3.524  0.3038 -0.3455 -0.1426
68932SOL    HW117110   6.236   4.890   3.444  1.1986 -1.4156  0.5830
68932SOL    HW217111   6.204   4.828   3.578 -0.3743  0.2970  1.0392
68933SOL     OW17112   7.173   5.158   2.147 -0.4857 -0.6201 -0.5672
68933SOL    HW117113   7.143   5.215   2.076 -0.9841 -1.3301 -0.9335
68933SOL    HW217114   7.166   5.069   2.113 -2.2438 -1.1029  0.8724
68934SOL     OW17115  12.066   4.373  10.836 -0.4617 -0.3570  0.6578
68934SOL    HW117116  11.990   4.427  10.854  0.1402  0.3029  1.2692
68934SOL    HW217117  12.048   4.290  10.880 -0.5482  0.0208  1.3367
68935SOL     OW17118   9.897   8.231  12.270  0.3338  0.0359 -0.0036
68935SOL    HW117119   9.936   8.217  12.184  0.4600  1.0572 -0.1225
68935SOL    HW217120   9.967   8.209  12.332  0.1600 -0.9590 -0.1384
68936SOL     OW17121  10.681   1.643   9.971 -0.3349  0.0807  0.0665
68936SOL    HW117122  10.627   1.564   9.966  0.1263 -0.3115  0.9336
68936SOL    HW217123  10.661   1.681  10.056  0.5173  0.0983  0.2716
68937SOL     OW17124   5.124   3.664   4.398 -0.1776  0.1444  0.4670
68937SOL    HW117125   5.060   3.684   4.331  0.8066  1.5008 -0.1211
68937SOL    HW217126   5.204   3.643   4.350 -0.2712 -2.0751  1.1649
68938SOL     OW17127   7.048   4.917   2.309  0.7164  0.3047 -0.2077
68938SOL    HW117128   6.955   4.940   2.302  0.9506  1.0930 -0.8229
68938SOL    HW217129   7.082   4.924   2.220  1.4894  0.5732  0.0949
68939SOL     OW17130   3.830  12.366   8.900  0.0919  0.0710 -0.0628
68939SOL    HW117131   3.738  12.358   8.927  0.4634 -2.9416  0.7431
68939SOL    HW217132   3.880  12.358   8.981  1.1036  0.9889 -0.5749
68940SOL     OW17133   4.199  12.419  12.249  0.0403 -0.1730  0.3133
68940SOL    HW117134   4.124  12.429  12.308  0.3189 -1.1333  0.8687
68940SOL    HW217135   4.253  12.496  12.266  0.3102 -0.6144  1.6487
68941SOL     OW17136   2.393   6.634  10.937 -0.0215  0.2755  0.5097
68941SOL    HW117137   2.366   6.551  10.975 -0.0276  1.1440  2.5405
68941SOL    HW217138   2.489   6.632  10.939  0.1619 -1.0701 -2.7909
68942SOL     OW17139  10.970   3.819   2.364 -0.3029 -0.2011 -0.2419
68942SOL    HW117140  10.995   3.796   2.275 -1.3454 -0.1471 -0.5576
68942SOL    HW217141  10.905   3.889   2.355  1.5663  1.7761  0.6575
68943SOL     OW17142   2.626   2.934   0.436  0.7400  0.1185  0.5358
68943SOL    HW117143   2.549   2.958   0.488 -1.1898 -1.3357 -1.4462
68943SOL    HW217144   2.685   2.891   0.498 -0.5611  0.2636  1.9177
68944SOL     OW17145   8.129   2.042   1.787  0.2525 -0.4319  0.6315
68944SOL    HW117146   8.044   2.073   1.756  0.3173 -0.7167  0.1538
68944SOL    HW217147   8.182   2.034   1.707  0.8149 -0.0020  0.9492
68945SOL     OW17148   1.680   2.108   3.160  0.1586 -0.1437  0.4517
68945SOL    HW117149   1.711   2.106   3.070  2.7770 -1.8349  1.2700
68945SOL    HW217150   1.594   2.065   3.157 -0.4654  1.0976 -1.3595
68946SOL     OW17151  10.397   8.747   2.071  0.1860  0.2186 -0.1243
68946SOL    HW117152  10.389   8.819   2.134  1.0381  0.2223 -0.0163
68946SOL    HW217153  10.308   8.736   2.036  0.2891  2.1385 -1.0592
68947SOL     OW17154  11.653  11.576   9.395  0.1697 -0.4292 -0.4288
68947SOL    HW117155  11.726  11.633   9.415  0.0977 -0.6159  0.4122
68947SOL    HW217156  11.579  11.635   9.380  0.1099 -0.2915  0.3759
68948SOL     OW17157   7.851   0.793  12.953  0.1987  0.0622 -0.8024
68948SOL    HW117158   7.776   0.850  12.974 -0.2443 -0.8950  0.3597
68948SOL    HW217159   7.915   0.813  13.021  0.3573 -0.2492 -0.8611
68949SOL     OW17160   3.908  11.846   3.588 -0.2575  0.4556  0.5177
68949SOL    HW117161   3.996  11.873   3.614  0.0029  0.1494 -0.0275
68949SOL    HW217162   3.917  11.753   3.565 -0.9988  0.0717  1.7169
68950SOL     OW17163   8.272   9.283   6.141 -0.2984  0.2162  0.0088
68950SOL    HW117164   8.232   9.265   6.226 -0.0872  0.7559  0.2302
68950SOL    HW217165   8.328   9.359   6.157  1.3258 -0.8789 -0.1235
68951SOL     OW17166  10.667   4.202   5.424 -0.1264  0.5834  0.4739
68951SOL    HW117167  10.707   4.117   5.446 -0.9514 -0.2115 -0.9426
68951SOL    HW217168  10.574   4.181   5.413 -0.0261  1.2302 -2.0091
68952SOL     OW17169   5.732   2.972  10.474 -0.8758 -1.2510 -0.4513
68952SOL    HW117170   5.719   3.053  10.425 -1.4928 -2.0610 -1.6535
68952SOL    HW217171   5.813   2.936  10.439 -0.7250 -1.2801 -0.0783
68953SOL     OW17172   4.753   8.955   2.078  0.2794  0.5963  0.3219
68953SOL    HW117173   4.709   9.032   2.042 -1.3722  0.5213  2.0385
68953SOL    HW217174   4.696   8.924   2.148  0.1113 -3.0943 -1.1831
68954SOL     OW17175  11.075   9.780   8.067 -0.7567 -0.1238 -0.4312
68954SOL    HW117176  11.138   9.849   8.092 -2.2905  0.5711  1.8972
68954SOL    HW217177  11.124   9.699   8.078  0.1527  0.4531 -0.0190
68955SOL     OW17178  10.143   3.159   8.243  0.0002  0.1176  0.0962
68955SOL    HW117179  10.223   3.202   8.215 -0.1240  1.6217  1.8225
68955SOL    HW217180  10.089   3.230   8.278 -0.6982 -1.2858  2.0246
68956SOL     OW17181   3.202  12.727   7.437  0.3479  0.3590  0.2627
68956SOL    HW117182   3.233  12.775   7.360  0.5099 -0.6857 -0.3423
68956SOL    HW217183   3.280  12.682   7.470  0.2934  0.8383  1.0873
68957SOL     OW17184  11.498   9.185   7.986  0.2089  0.5743 -1.1052
68957SOL    HW117185  11.412   9.147   8.007  1.1796 -0.9511  0.3681
68957SOL    HW217186  11.506   9.177   7.891 -1.3608  0.9721 -1.2973
68958SOL     OW17187   6.702   8.969   5.536 -0.0173  0.4386 -0.5272
68958SOL    HW117188   6.773   8.929   5.587 -0.3961  1.3781  0.7910
68958SOL    HW217189   6.687   8.908   5.465  2.7633  0.6399 -1.4356
68959SOL     OW17190   3.831  12.110   9.148  0.6338  0.0600  0.1610
68959SOL    HW117191   3.923  12.128   9.127  0.2962  2.0933  0.2870
68959SOL    HW217192   3.815  12.157   9.229 -0.4767 -0.4473  0.2504
68960SOL     OW17193  11.527   0.059   3.815  0.1066  0.3740  0.7090
68960SOL    HW117194  11.555   0.139   3.771  0.1106 -0.9311 -1.8529
68960SOL    HW217195  11.432   0.063   3.814  0.0861 -0.0440 -0.2807
68961SOL     OW17196   0.980   9.197   0.258  0.1421 -0.1207 -0.3280
68961SOL    HW117197   0.903   9.167   0.209 -0.9858  1.0524  0.6675
68961SOL    HW217198   1.013   9.272   0.208 -0.4143  0.4579  0.1626
68962SOL     OW17199  10.917  10.400   3.005 -0.3008  0.3500 -0.2312
68962SOL    HW117200  11.005  10.426   3.033 -0.3058 -0.7933  0.9355
68962SOL    HW217201  10.926  10.308   2.980 -0.6102  0.9316 -2.7660
68963SOL     OW17202   9.166  11.508  11.075  0.1983 -0.0378  0.4353
68963SOL    HW117203   9.104  11.491  11.004  1.3300 -2.3857 -0.1187
68963SOL    HW217204   9.135  11.454  11.148 -0.9350  2.3230  1.8251
68964SOL     OW17205   4.548   6.769   1.194  0.2286 -0.3883 -0.4968
68964SOL    HW117206   4.605   6.693   1.185  0.1182 -0.5909  0.4235
68964SOL    HW217207   4.459   6.732   1.195  0.0698 -0.0945 -1.7089
68965SOL     OW17208  12.523   2.807  11.006  0.1915  0.4319 -0.0778
68965SOL    HW117209  12.558   2.736  11.059 -0.7702 -0.3326 -0.4250
68965SOL    HW217210  12.441   2.831  11.049  0.2423  0.9643 -0.2669
68966SOL     OW17211   9.309   1.514   6.497 -0.2567  0.4732 -0.1252
68966SOL    HW117212   9.361   1.564   6.433  3.5786 -2.4881  0.3328
68966SOL    HW217213   9.263   1.449   6.445  1.9419 -1.1797 -0.1361
68967SOL     OW17214   5.274   6.771   3.947  0.2460  0.4390  0.2257
68967SOL    HW117215   5.341   6.729   3.893  0.6703  1.4689 -0.0736
68967SOL    HW217216   5.192   6.756   3.899 -0.1025 -2.5383  1.5726
68968SOL     OW17217   2.802  11.494  12.636 -0.1098 -0.0212 -0.1760
68968SOL    HW117218   2.732  11.431  12.615 -0.7463  0.7965 -0.5409
68968SOL    HW217219   2.784  11.519  12.727  0.4693 -0.7574  0.1595
68969SOL     OW17220   9.412   4.855   7.150 -0.4898 -0.2449  0.1745
68969SOL    HW117221   9.354   4.780   7.136  0.5329 -0.9598 -0.3584
68969SOL    HW217222   9.492   4.832   7.102  0.2852  0.6567  1.0127
68970SOL     OW17223   5.526   8.002  12.377  0.1052 -0.3462  1.1421
68970SOL    HW117224   5.440   7.960  12.379  0.4630 -1.1629  0.1362
68970SOL    HW217225   5.513   8.081  12.324 -0.6064  0.9711  3.1712
68971SOL     OW17226   0.813   4.860  10.698  0.1391 -0.0742  0.0303
68971SOL    HW117227   0.860   4.801  10.756 -0.6390 -0.5552  0.1964
68971SOL    HW217228   0.732   4.880  10.744 -1.4376 -2.0490 -1.6545
68972SOL     OW17229   3.967   3.699   8.796 -0.2989 -0.0716  0.2217
68972SOL    HW117230   3.989   3.616   8.754 -2.0364 -0.7876  0.6112
68972SOL    HW217231   3.932   3.754   8.725 -2.3271 -0.9380  0.4682
68973SOL     OW17232   1.053   7.060   0.176 -0.5070 -0.2582 -0.0767
68973SOL    HW117233   1.006   7.115   0.238 -0.0897 -0.2975  0.2763
68973SOL    HW217234   1.018   6.972   0.191  1.0879 -0.6673  1.6184
68974SOL     OW17235   9.699   7.349   0.856  0.4931 -0.2027  0.1599
68974SOL    HW117236   9.617   7.327   0.900 -0.2007 -3.6615 -2.4138
68974SOL    HW217237   9.674   7.409   0.787  0.3873 -0.1914  0.2083
68975SOL     OW17238   1.684  11.659   1.573 -0.0651  0.2520  0.0776
68975SOL    HW117239   1.628  11.585   1.548 -0.3534  0.8564 -1.1812
68975SOL    HW217240   1.769  11.620   1.593  0.1151 -0.3267 -1.6853
68976SOL     OW17241  10.861   1.396  12.609  0.1561 -0.7925 -0.8612
68976SOL    HW117242  10.792   1.341  12.572 -0.4486 -0.1819 -0.6622
68976SOL    HW217243  10.873   1.466  12.544 -1.1495  0.4795  0.2216
68977SOL     OW17244   9.346   0.456   3.106 -0.3321  0.0351  0.1076
68977SOL    HW117245   9.367   0.528   3.166 -0.4032  0.8835 -0.8425
68977SOL    HW217246   9.267   0.417   3.142 -1.3073  1.5749 -0.2979
68978SOL     OW17247   4.503   7.568   0.291 -0.1823 -0.9493  0.1583
68978SOL    HW117248   4.445   7.616   0.349  0.9441  1.8011 -0.8404
68978SOL    HW217249   4.576   7.541   0.347 -0.2901 -0.4754  0.5300
68979SOL     OW17250  12.701   8.278   7.948 -0.1759 -0.1017  0.0195
68979SOL    HW117251  12.667   8.264   7.860 -0.8061 -2.6034  0.5824
68979SOL    HW217252  12.654   8.215   8.002 -0.0327  1.5862  2.2274
68980SOL     OW17253   5.225  10.893   7.252 -0.5231 -0.3057 -0.0707
68980SOL    HW117254   5.164  10.871   7.322  0.2378 -0.3863  0.5899
68980SOL    HW217255   5.311  10.874   7.289 -0.1216 -0.6852 -1.1590
68981SOL     OW17256   7.945  12.345  11.566 -0.5428 -0.2907 -0.0502
68981SOL    HW117257   7.994  12.270  11.601 -2.4073 -1.3158  0.5256
68981SOL    HW217258   7.990  12.422  11.601  1.9605 -1.0642 -1.3680
68982SOL     OW17259   7.439   8.865  10.151 -0.1508 -0.1001  0.0945
68982SOL    HW117260   7.498   8.926  10.195  0.3052 -0.0198 -0.6026
68982SOL    HW217261   7.431   8.791  10.211  0.8948 -0.2395  0.0863
68983SOL     OW17262  11.065  11.497   4.538  0.0533 -0.0644 -0.5310
68983SOL    HW117263  11.017  11.544   4.470  0.0979 -2.5269 -2.4081
68983SOL    HW217264  11.157  11.504   4.513  0.1528 -0.2860 -0.2445
68984SOL     OW17265   4.276   0.229   8.501 -0.2518 -0.3548  0.2409
68984SOL    HW117266   4.252   0.322   8.499  2.7087  0.5439  1.1281
68984SOL    HW217267   4.300   0.213   8.592  1.7583 -1.2290 -0.3865
68985SOL     OW17268   5.109   2.077   0.543  0.1991 -0.1871 -0.5390
68985SOL    HW117269   5.066   2.049   0.463 -0.7682 -0.3235  0.0087
68985SOL    HW217270   5.201   2.053   0.531 -0.6620 -4.9019  0.3786
68986SOL     OW17271  12.975   3.354   5.950 -0.4897 -0.1948  0.5387
68986SOL    HW117272  13.027   3.286   5.992  0.8217 -0.2397 -1.0360
68986SOL    HW217273  12.983   3.430   6.008  1.5423 -0.1535  0.2823
68987SOL     OW17274   6.089   7.321   6.534  0.4280  0.4721  0.6848
68987SOL    HW117275   6.085   7.416   6.529  0.1929  0.6464  3.0460
68987SOL    HW217276   6.175   7.299   6.497  0.9338  1.7182  1.0611
68988SOL     OW17277   5.762  11.585   1.685 -1.0056  0.9816 -0.3421
68988SOL    HW117278   5.686  11.527   1.696 -1.1989  1.0848 -1.0592
68988SOL    HW217279   5.740  11.664   1.735 -0.1811 -0.0367  1.7425
68989SOL     OW17280  11.778  11.656   5.747  0.3137 -0.2088  0.1577
68989SOL    HW117281  11.782  11.748   5.773  1.4273 -0.1782 -0.0660
68989SOL    HW217282  11.861  11.641   5.701  0.7215 -1.6455  1.2962
68990NA      NA17283   1.448   7.431   8.752 -0.4257  0.3620  0.6150
68991NA      NA17284   0.383   9.839   2.416 -0.2927 -0.2112  0.0830
68992NA      NA17285   7.729   8.876   9.927  0.2330 -0.3500  0.4218
68993NA      NA17286   2.748   3.081   9.267 -0.3017 -0.1395  0.0630
68994NA      NA17287   4.509   9.948   6.549  0.0090 -0.2148 -0.4939
68995NA      NA17288   4.048   3.716   3.017  0.5287  0.2678 -0.3250
68996NA      NA17289   2.525  12.880   5.659  0.1150  0.2577 -0.7462
68997NA      NA17290   2.582   3.122   2.154 -0.4167  0.4512 -0.5262
68998NA      NA17291  10.328   3.899  11.804  0.0237 -0.1141  0.1606
68999NA      NA17292   1.751  11.446   2.772  0.3093  0.2856  0.2149
69000NA      NA17293   5.706  10.551   6.069  0.2440 -0.5294  0.5939
69001NA      NA17294  11.808   1.126  10.464 -0.3379 -0.2757 -0.0716
69002NA      NA17295   4.856   1.799   0.928  0.1453  0.2683  0.3626
69003NA      NA17296   0.923   0.453   5.556 -0.2027  0.6776  0.2606
69004NA      NA17297   7.192   1.424   2.126 -0.0374  0.5498 -0.2074
69005NA      NA17298   3.313   7.204  12.108 -0.0280 -0.2414 -0.3729
69006NA      NA17299   0.509  12.263   8.029  0.1098 -0.0764 -0.1307
69007NA      NA17300   0.252   0.111  10.901 -0.4632 -0.0769  0.4316
69008NA      NA17301   1.023   4.387   6.820  0.0289 -0.0823 -0.4167
69009NA      NA17302   4.031   6.264   8.122  0.0438 -0.2008 -0.0843
69010NA      NA17303   0.364   7.827   7.269  0.7748  0.1119  0.3935
69011NA      NA17304   3.388  12.621   2.316 -0.4530  0.3085  0.0259
69012NA      NA17305   3.380   9.641   3.506  0.1687  0.1804  0.0818
69013NA      NA17306  10.057   3.654   6.295 -0.1401  0.2170 -0.2140
69014NA      NA17307   0.338   4.814   3.297  0.1005 -0.0183  0.3088
69015NA      NA17308   7.788   8.861   7.870  0.0714  0.0958  0.5136
69016NA      NA17309   2.204   6.293   2.696  0.0597 -0.0044 -0.3896
69017NA      NA17310  11.837   8.378   2.084  0.2098  0.8280  0.1632
69018NA      NA17311   2.190   7.678  10.928  0.2752 -0.4887 -0.3892
69019NA      NA17312   4.200   5.135   4.821 -0.0614  0.0349  0.2875
69020NA      NA17313   9.671   7.339   7.970 -0.2208  0.1348 -0.0584
69021NA      NA17314  12.571   9.026   4.895 -0.6180 -0.2464 -0.3988
69022NA      NA17315   8.710   0.642   3.510 -0.2143 -0.1169 -0.5555
69023NA      NA17316   3.469   8.485  11.989  0.3504 -0.0416 -0.3503
69024NA      NA17317  12.835   6.147   6.864 -0.2447  0.6070  0.0989
69025NA      NA17318   1.253   2.780   5.318  0.0429  0.0118  0.2895
69026NA      NA17319   0.406  10.901   8.239 -0.1283  0.3863  0.2789
69027NA      NA17320  12.239   4.230   2.270  0.1778  0.1699 -0.4371
69028NA      NA17321   5.054   9.474   3.120  0.2398 -0.3481  0.2663
69029NA      NA17322   9.500  12.099   1.591  0.2353 -0.1323  0.1227
69030NA      NA17323   9.203  10.381  12.619 -0.0626 -0.0761  0.2380
69031NA      NA17324   9.278   0.497   6.331  0.0171  0.1230 -0.0926
69032NA      NA17325   1.060   8.465   4.002  0.0410  0.1145  0.5380
69033NA      NA17326   1.821   9.098   4.304  0.1060 -0.2803 -0.0723
69034NA      NA17327  10.948   1.612   6.969  0.1648  0.6313  0.7704
69035NA      NA17328   1.311   7.322  12.044 -0.1161  0.4017  0.4229
69036NA      NA17329   9.806   9.935   1.057  0.2833  0.2860 -0.1941
69037NA      NA17330   6.923   3.498   4.543 -0.3088  0.0532 -0.0106
69038NA      NA17331   7.382   8.523   6.887 -0.0981 -0.1485 -0.2875
69039NA      NA17332   9.857   2.878   8.437 -0.3833 -0.1776  0.0669
69040NA      NA17333   5.034   5.297   8.921  0.2212 -0.0734  0.2625
69041NA      NA17334   7.115   8.086  11.303 -0.4789 -0.2080  0.0030
69042NA      NA17335  10.696  11.737   3.175 -0.5281  0.6682 -0.0473
69043NA      NA17336   0.070   6.774   8.161 -0.6199  0.6534  0.1107
69044NA      NA17337   8.661   4.453   5.984 -0.2216 -0.0321  0.5831
69045NA      NA17338   9.079   2.349  10.654 -0.0806  0.0186  0.2707
69046NA      NA17339   9.533   7.056   4.839  0.0377 -0.3534  0.3188
69047NA      NA17340   7.395   7.822  10.188 -0.2282 -0.0515  0.0573
69048NA      NA17341  12.540   2.365   6.081  0.4881  0.0853 -0.0393
69049NA      NA17342   5.093  10.238   2.172 -0.0721 -0.1961 -0.0575
69050NA      NA17343   3.868   8.409   9.579 -0.5027  0.4872  0.1098
69051NA      NA17344   0.213   2.435   4.430  0.0799 -0.0572 -0.0510
69052NA      NA17345   4.063   3.537   0.779  0.1109  0.0648 -0.1193
69053NA      NA17346  11.958  10.441   4.179  0.0965  0.4784  0.1055
69054NA      NA17347   6.162   0.107   6.181  0.3472  0.4106 -0.2561
69055NA      NA17348   7.817   8.061   5.879  0.2514 -0.2414  0.3644
69056NA      NA17349  12.059   1.404  11.256  0.0647 -0.0949 -0.0664
69057NA      NA17350   8.823   3.335   2.189 -0.0625  0.2713 -0.2776
69058NA      NA17351   3.626   2.370   2.289 -0.4950 -0.0876 -0.5097
69059NA      NA17352   8.577  12.473   5.250  0.5313 -0.2327  0.0913
69060NA      NA17353   7.546  11.842   7.937  0.0890 -0.1007 -0.3334
69061NA      NA17354  11.034   5.378  11.378  0.2076 -0.0268  0.5354
69062NA      NA17355   5.750   5.784   4.863 -0.0029 -0.4271  0.1711
69063NA      NA17356   7.786   1.085  10.539  0.2852  0.8638 -0.6756
69064NA      NA17357   7.660   1.802   3.680 -0.3934  0.7122 -0.4974
69065NA      NA17358  11.222   0.338  10.147 -0.2068  0.0030  0.1600
69066NA      NA17359   6.605  10.842  11.003  0.4464 -0.0733  0.0434
69067NA      NA17360  10.910   1.324   2.074  0.5698 -0.1821  0.2940
69068NA      NA17361   5.297   9.176   6.644 -0.0130  0.4743 -0.0650
69069NA      NA17362  11.622   6.884  12.296  0.4770 -0.2036 -0.0467
69070NA      NA17363  10.754   1.323  10.674  0.4033  0.3116 -0.2110
69071NA      NA17364   8.509  12.699  10.724 -0.1945 -0.1064 -0.2434
69072NA      NA17365  12.905   1.134   2.942 -0.4126 -0.7939  0.1268
69073NA      NA17366   7.603   1.747   1.504 -0.0466  0.5563 -0.0792
69074NA      NA17367   5.756   8.539  10.692  0.2723 -0.1301  0.1905
69075NA      NA17368   5.403   3.023   5.448 -0.2208  0.2783 -0.0975
69076NA      NA17369  12.470   1.873   0.516 -0.1033  0.0154  0.2196
69077NA      NA17370  10.380  10.949   9.315  0.2611  0.1004  0.3271
69078NA      NA17371   2.838   9.285   4.097 -0.3650 -0.0201  0.6667
69079NA      NA17372  10.688   7.941   9.502  0.0075 -0.1740 -0.1695
69080NA      NA17373   0.037  10.970   1.544  0.4629 -0.1815  0.0869
69081NA      NA17374   1.698   3.889   1.425  0.2518  0.2226  0.6384
69082NA      NA17375   9.154  12.513   7.295 -0.3252 -0.0848 -0.0944
69083NA      NA17376  11.119  11.133   8.848  0.0820 -0.3820 -0.2886
69084NA      NA17377   2.701   9.528   8.545 -0.2771 -0.1572  0.3180
69085NA      NA17378   9.252   4.001   0.470  0.0730  0.2288 -0.5625
69086NA      NA17379   5.449   8.329  11.836 -0.3986  0.3075  0.2739
69087NA      NA17380   6.972   3.469   1.712 -0.2295 -0.3298 -0.3480
69088NA      NA17381   7.214   8.808   1.975  0.4002  0.2005  0.0973
69089NA      NA17382   4.830   5.335   4.545 -0.1958  0.1255 -0.0138
69090NA      NA17383   8.694  12.621   3.356 -0.0586 -0.0254 -0.2257
69091NA      NA17384   2.862  11.173   0.953 -0.1470  0.4580  0.5572
69092NA      NA17385   2.489   0.730   3.875  0.0439 -0.2957  0.1792
69093NA      NA17386   0.948   6.647   0.667  0.4918  0.3771 -0.0157
69094NA      NA17387   1.945   5.499   3.296  0.2049  0.3360 -0.2504
69095NA      NA17388   6.378   3.221   5.403 -0.2782 -0.2900  0.2347
69096NA      NA17389  12.830   9.882   6.434  0.0647 -0.0512 -0.6565
69097NA      NA17390  12.339   2.915  10.471  0.0945 -0.1030  0.0455
69098NA      NA17391   1.297   7.969   8.958 -0.2214 -0.2213  0.9094
69099NA      NA17392   7.473  11.657   2.470 -0.1733 -0.1948 -0.5431
69100NA      NA17393   4.133  10.939   0.199  0.1875  0.3336  0.0048
69101NA      NA17394   3.416   5.628   0.368 -0.1038  0.2900  0.0039
69102NA      NA17395   1.668   0.189   2.139 -0.0146 -0.2165 -0.0687
69103NA      NA17396   2.079   5.367   6.202 -0.0219  0.1308 -0.1994
69104NA      NA17397   2.432  12.318   7.917 -0.3911 -0.1675 -0.4187
69105NA      NA17398  12.339   3.795   9.101  0.1943  0.1841  0.1767
69106NA      NA17399   1.562  10.998  12.299 -0.0982  0.0662 -0.1967
69107NA      NA17400  10.371   8.967   0.162  0.0933  0.2966  0.5733
69108NA      NA17401   4.574   9.217   8.810  0.2124 -0.0940 -0.0701
69109NA      NA17402   0.345   9.058   7.761 -0.1790  0.0842  0.2912
69110NA      NA17403   3.104   5.426   5.418  0.3669  0.3172  0.3297
69111NA      NA17404  10.074   7.843   9.991  0.2577  0.0668 -0.1761
69112NA      NA17405   6.028   9.263   4.451 -0.0012  0.6371  0.0600
69113NA      NA17406  12.318   3.204   8.101 -0.0953 -0.1774  0.6998
69114NA      NA17407  10.939   0.879  11.604  0.2888  0.3262 -0.3639
69115NA      NA17408   5.026   1.126  10.514  0.2727 -0.1398 -0.0657
69116NA      NA17409   6.523  10.969   3.380 -0.2743 -0.6344 -0.2050
69117NA      NA17410  12.066   4.160   0.051 -0.5095  0.2861  0.4035
69118NA      NA17411   4.331   4.922   1.966 -0.1846  0.1637 -0.4563
69119NA      NA17412  10.834   6.741   4.019  0.3660  0.2910  0.0973
69120NA      NA17413   6.882  12.916   8.765  0.6231  0.3264 -0.0633
69121NA      NA17414  12.379  10.451   0.877  0.6649  0.2076  0.0330
69122NA      NA17415  12.463   1.752  10.071  0.0288  0.0804 -0.3713
69123NA      NA17416   3.131   7.034   6.696  0.0986 -0.0121  0.0662
69124NA      NA17417   1.663   4.451   7.968 -0.0288  0.1946 -0.0695
69125NA      NA17418   6.819   1.023   6.584  0.4949  0.4192 -0.0311
69126NA      NA17419  10.934   6.646   2.581 -0.4695  0.2007 -0.6816
69127NA      NA17420  11.708   5.016   6.574  0.3968  0.0552  0.1865
69128NA      NA17421   7.171   6.519   2.973 -0.1596 -0.5563 -0.2091
69129NA      NA17422   0.335   8.751   0.570 -0.3130 -0.1732  0.3915
69130NA      NA17423   2.143   5.595  10.683  0.1077  0.6349 -0.0422
69131NA      NA17424   1.854   6.933   3.544  0.0619 -0.1953  0.1549
69132NA      NA17425  12.267   8.840   7.363  0.2058  0.1781  0.2821
69133NA      NA17426   0.219   2.467   7.363  0.3164 -0.4255 -0.2140
69134NA      NA17427   1.787  11.588   6.096 -0.3975  0.5837 -0.3518
69135NA      NA17428   9.630   5.408   7.459  0.0039  0.0144  0.2944
69136NA      NA17429   5.607   4.936   6.282 -0.2685  0.2675 -0.3116
69137NA      NA17430   7.084  10.442   1.047  0.2541  0.6286 -0.1695
69138NA      NA17431   2.763   4.749  11.809 -0.2048 -0.6646 -0.1269
69139NA      NA17432   4.314   4.761   8.469  0.0977 -0.1287  0.2543
69140NA      NA17433   5.735   9.472  11.951  0.6935 -0.3125  0.1759
69141NA      NA17434   2.498   1.885   8.116  0.3107  0.2112 -0.0152
69142NA      NA17435  12.844   0.367   2.288  0.4355  0.3021 -0.2143
69143NA      NA17436   6.788   2.489   9.638  0.0699 -0.0931 -0.0643
69144NA      NA17437  11.045   0.540   3.064  0.0932 -0.3773  0.0433
69145NA      NA17438   9.750   6.374   4.417  0.3241  0.4134  0.6922
69146NA      NA17439   0.949   0.628  12.265 -0.3864 -0.5855  0.0179
69147NA      NA17440   2.788   9.727  10.339  0.6616 -0.3875 -0.2132
69148NA      NA17441  12.021   6.084   0.401 -0.2321 -0.6251  0.5067
69149NA      NA17442  10.465  10.386   0.500  0.1469  0.0048  0.6788
69150NA      NA17443   8.172   3.633   5.063  0.1955  0.1124  0.0281
69151NA      NA17444  10.961   0.958   0.530 -0.2286 -0.3238  0.2175
69152NA      NA17445  10.736   5.207   5.502  0.5430  0.0219 -0.6241
69153NA      NA17446   2.837   5.078   5.850  0.0804  0.3871  0.1839
69154NA      NA17447   5.706   2.985   4.407  0.2031 -0.2131 -0.4565
69155NA      NA17448   1.428   5.730   1.082  0.3787  0.0367  0.3674
69156NA      NA17449   4.894   0.455   1.204  0.2520  0.4454 -0.2625
69157NA      NA17450   1.526   8.493  11.240 -0.9351  0.1159 -0.0383
69158NA      NA17451   7.879   1.023   0.661 -0.5718  0.3170  0.4729
69159NA      NA17452   5.684   5.111   1.955 -0.2043  0.1256 -0.2193
69160NA      NA17453   0.101  12.975   5.435 -0.5629 -0.0042  0.1490
69161NA      NA17454  10.378   4.004  12.732 -0.7506 -0.1379 -0.2423
69162NA      NA17455   1.469   3.725   2.931 -0.5151  0.4429 -0.0776
69163NA      NA17456  10.651   6.411  10.827 -0.3805 -0.0137  0.3542
69164NA      NA17457  11.978   1.035   2.867 -0.4242 -0.1873 -0.2686
69165NA      NA17458  11.697   8.217   4.051  0.6251 -0.2053  0.2083
69166NA      NA17459   0.450   6.900   7.464 -0.0924  0.2799 -0.1902
69167NA      NA17460  11.321   8.578   7.943 -0.3181  0.0802  0.4269
69168NA      NA17461   2.445   2.302   3.222  0.3486  0.4949  0.6538
69169NA      NA17462   6.557   7.778   4.955  0.4079  0.1849  0.3264
69170NA      NA17463   5.075   0.351   8.764  0.2142 -0.1366 -0.4753
69171NA      NA17464   6.890   8.100   3.521  0.0079  0.2028 -0.1720
69172NA      NA17465   4.996   2.046   7.792  0.0815  0.2072  0.0168
69173NA      NA17466   9.505   1.973   7.459  0.2320 -0.5501 -0.1092
69174NA      NA17467   5.631  11.448   4.077  0.2722 -0.2524 -0.1120
69175NA      NA17468   0.513  11.492  11.936  0.7486  0.3071 -0.0070
69176NA      NA17469  12.097   0.616   1.445  0.7690 -0.1043 -0.5662
69177NA      NA17470   0.051   5.465   5.608  0.0577 -0.6249 -0.0112
69178NA      NA17471   8.549   4.708   3.898 -0.5828 -0.2429  0.6986
69179NA      NA17472   6.864  10.746   1.821  0.2803 -0.1504 -0.0332
69180NA      NA17473   7.117   4.004   5.207  0.1863  0.3546 -0.2868
69181NA      NA17474   2.503   0.692   9.000  0.0660 -0.6284  0.2466
69182NA      NA17475  11.036   3.129  11.677 -0.1612 -0.3495 -0.1377
69183NA      NA17476   1.067   7.528  11.529  0.0160  0.1286  0.5488
69184NA      NA17477   3.901   2.695   6.457 -0.7783 -0.0296 -0.4401
69185NA      NA17478   9.378   7.023   6.880 -0.1867  0.1351 -0.3876
69186NA      NA17479   9.690  11.496   2.242 -0.3183 -0.3749 -0.1091
69187NA      NA17480   1.374   5.015   0.742 -0.2446  0.4707  0.1945
69188NA      NA17481   7.780  11.830  11.205 -0.7943 -0.4378  0.6912
69189NA      NA17482   7.497   2.184   8.883 -0.7507  0.1103  0.5530
69190NA      NA17483   6.112   1.155   0.441 -0.1899  0.3208  0.0974
69191NA      NA17484   0.098   5.352   8.871  0.0410  0.0955 -0.5626
69192NA      NA17485  10.405   5.541  10.351  1.1104 -0.1100  0.4468
69193NA      NA17486  10.431  11.383  12.699 -0.2502  0.4274  0.0184
69194NA      NA17487   0.491   3.585   7.708  0.3443  0.0600  0.1455
69195NA      NA17488  10.041   7.839   8.908  0.0201 -0.2076  0.1504
69196NA      NA17489  11.159   1.857   5.639  0.2036 -0.4039 -0.0430
69197CL      CL17490  10.885   2.940  10.975 -0.1480  0.5326 -0.0207
69198CL      CL17491   7.442   9.594   6.981 -0.4895 -0.0072 -0.0762
69199CL      CL17492  11.130   3.556  12.929 -0.0440 -0.2301 -0.2381
69200CL      CL17493   9.388   4.563   6.361 -0.1715  0.5744  0.0045
69201CL      CL17494   9.662   3.072   7.690  0.1990 -0.2251 -0.0723
69202CL      CL17495   7.879   4.618   4.344  0.7105 -0.2403 -0.0755
69203CL      CL17496   8.476   7.004   7.244 -0.4009 -0.0773  0.0074
69204CL      CL17497   3.729  12.233   0.847  0.0017 -0.2652  0.0894
69205CL      CL17498  11.152  12.771  10.266 -0.2112  0.1560 -0.1501
69206CL      CL17499  11.006   1.945   6.412 -0.1514 -0.2503 -0.0705
69207CL      CL17500   8.639   3.545   1.480 -0.0467 -0.1111  0.1556
69208CL      CL17501   9.184  11.693  12.634  0.2363  0.2347 -0.2343
69209CL      CL17502   6.371   1.776   6.349 -0.0415 -0.0877  0.3562
69210CL      CL17503   1.605   9.116   4.227  0.2834  0.1570  0.2497
69211CL      CL17504   1.741   6.369   4.384  0.0445 -0.0870 -0.4321
69212CL      CL17505  11.590   4.105   5.181  0.2395 -0.0248 -0.0017
69213CL      CL17506  11.475   0.736   5.737 -0.2479 -0.5693 -0.0261
69214CL      CL17507   1.424   0.129  11.456 -0.0333  0.4541 -0.0396
69215CL      CL17508   0.743   5.976  11.400  0.1180  0.0102 -0.4349
69216CL      CL17509   0.098   4.318   3.748 -0.0666 -0.3563 -0.1632
69217CL      CL17510   0.903   4.369   1.139  0.0983  0.0888  0.0974
69218CL      CL17511   3.495   0.388  12.177 -0.1080  0.3321  0.4490
69219CL      CL17512   1.359   1.528   0.141  0.4101  0.4141 -0.1968
69220CL      CL17513   0.258   6.401   7.452 -0.0582 -0.3290 -0.1970
69221CL      CL17514   4.909   5.314   8.233 -0.3604  0.2887 -0.1561
69222CL      CL17515   2.962  10.296   0.578  0.4650  0.0713 -0.2874
69223CL      CL17516   3.110   8.714  10.181  0.0593  0.2000 -0.2243
69224CL      CL17517   8.589   7.631   7.592  0.0860 -0.3121 -0.3872
69225CL      CL17518   4.841   7.961   2.387 -0.1019 -0.0317  0.0089
69226CL      CL17519   7.491   1.148   6.313 -0.2789 -0.0908 -0.1968
69227CL      CL17520   9.166   2.731   2.034 -0.2935  0.1045  0.4611
69228CL      CL17521   2.370   2.853   9.102  0.4457  0.1898 -0.1077
69229CL      CL17522   6.593   8.254   4.113 -0.2288 -0.3162  0.1128
69230CL      CL17523   0.735   0.340  11.914 -0.3034 -0.0877 -0.0911
69231CL      CL17524  11.176  10.604   4.584  0.0706  0.5407  0.0581
69232CL      CL17525   0.468   3.523   8.601 -0.5016  0.1811 -0.0364
69233CL      CL17526   8.295  10.674   1.284 -0.0291 -0.2928  0.0069
69234CL      CL17527  11.405   7.164   1.944 -0.2018 -0.2476 -0.0856
69235CL      CL17528  12.214   9.789   2.594  0.0365  0.4181 -0.0327
69236CL      CL17529  12.062   7.304   8.239 -0.0376 -0.2668  0.0781
69237CL      CL17530   8.292   2.299   8.369 -0.2248  0.0981 -0.4951
69238CL      CL17531   5.083  11.554   9.474 -0.1307 -0.3019  0.1839
69239CL      CL17532   4.607  10.481   8.505 -0.0177  0.2091  0.1570
69240CL      CL17533   8.687  11.084  10.523  0.3143 -0.0465 -0.1027
69241CL      CL17534  12.272   3.167   1.515 -0.1323 -0.1482 -0.2010
69242CL      CL17535   2.942  11.780   5.333 -0.4591  0.1992  0.0243
69243CL      CL17536   1.661   6.542   2.522  0.0899  0.1013 -0.1767
69244CL      CL17537   6.311  11.145   5.872 -0.3897 -0.1365 -0.1426
69245CL      CL17538   7.095  11.068  11.125  0.3596  0.0965 -0.0528
69246CL      CL17539   0.274   2.892   7.201  0.2741 -0.2215  0.1355
69247CL      CL17540   5.198   5.052   2.002  0.0201 -0.1297 -0.2194
69248CL      CL17541   6.200   5.055   3.104 -0.3272 -0.3887 -0.4513
69249CL      CL17542   2.482   7.935   1.730  0.0102 -0.1692  0.1428
69250CL      CL17543   7.603   2.063   4.046  0.3430  0.1093 -0.4213
69251CL      CL17544   7.207   1.215   2.736  0.1301  0.1348  0.3849
69252CL      CL17545  12.983   3.688   2.791  0.2111 -0.0365 -0.1156
69253CL      CL17546  11.822   5.328   6.884 -0.3225  0.1598  0.2723
69254CL      CL17547   1.664  11.712   5.363 -0.2186 -0.7169  0.2633
69255CL      CL17548   5.844   7.817   7.822  0.4698 -0.1326  0.2761
69256CL      CL17549   9.405  12.577  10.908 -0.1424  0.4130 -0.1019
69257CL      CL17550  11.164   1.259   4.181 -0.1805  0.0140 -0.4975
69258CL      CL17551   7.459   1.945   5.806  0.2030 -0.2937 -0.0241
69259CL      CL17552   2.013   2.734   9.854 -0.2434  0.2560 -0.2395
69260CL      CL17553  11.567   8.881  11.164  0.2393 -0.1222 -0.0875
69261CL      CL17554  11.916   1.084  11.001  0.2016 -0.0996  0.0008
69262CL      CL17555   3.640   4.983   5.590  0.1344 -0.2714  0.3086
69263CL      CL17556   4.316  11.452   5.742 -0.1658  0.1393 -0.1037
69264CL      CL17557   0.534   9.945  10.282 -0.0040  0.0222  0.4339
69265CL      CL17558   0.375   5.239   3.212  0.2510  0.6252 -0.0412
69266CL      CL17559   8.498   3.092   3.940  0.2301  0.4944  0.1893
69267CL      CL17560   0.770  10.037   0.815  0.1991 -0.0645 -0.4600
69268CL      CL17561   1.215   4.825   4.613  0.3631  0.0181  0.0415
69269CL      CL17562  11.510   1.562   2.148 -0.0249  0.0618  0.2920
69270CL      CL17563   4.704   2.273   0.718 -0.2470 -0.2612 -0.0669
69271CL      CL17564   2.562   3.491   0.218 -0.4835 -0.0415  0.1560
69272CL      CL17565   6.904   5.592   5.493  0.4337  0.3725  0.3869
69273CL      CL17566   5.923   3.461   3.831  0.0231  0.1364 -0.1956
69274CL      CL17567   2.391   2.495   3.344  0.4770  0.1329 -0.2404
69275CL      CL17568   0.685   5.074  12.444  0.1481 -0.1574 -0.2606
69276CL      CL17569   1.929  10.818   8.054 -0.1550  0.1836 -0.1836
69277CL      CL17570  10.368   8.386   8.354 -0.0417  0.1456 -0.1371
69278CL      CL17571  10.647  10.227   0.418  0.0160 -0.0809  0.1301
69279CL      CL17572  10.640   5.519   2.602  0.1692  0.0255  0.0942
69280CL      CL17573   0.413  12.603   5.229  0.3891  0.3494  0.4045
69281CL      CL17574   7.121  10.471   1.272 -0.0396  0.2275 -0.2452
69282CL      CL17575   9.486  12.718   6.184  0.1207  0.4040  0.2109
69283CL      CL17576   5.616  12.438   4.283 -0.1646  0.2263 -0.4394
69284CL      CL17577   3.412   1.559   7.372 -0.0513 -0.1143 -0.0517
69285CL      CL17578   5.864   8.405  10.242  0.1042 -0.3383 -0.5282
69286CL      CL17579  11.815   5.059   2.712 -0.0432 -0.6738  0.4081
69287CL      CL17580   7.315  12.133   0.303 -0.3166  0.2061  0.1014
69288CL      CL17581   1.990   6.343   8.192  0.1183 -0.2276 -0.3261
69289CL      CL17582   5.139   0.456  12.573  0.3183  0.2080  0.2319
69290CL      CL17583  10.771   8.053   6.068  0.0607  0.0883 -0.3237
69291CL      CL17584  11.101  11.507  10.292 -0.4549 -0.0263 -0.8027
69292CL      CL17585  11.592   1.128  12.907  0.2218  0.1519 -0.1125
69293CL      CL17586  10.860   5.831   5.558 -0.1211  0.3096 -0.3593
69294CL      CL17587   3.451   3.928   4.858  0.0835  0.3372 -0.1627
69295CL      CL17588   0.942   5.357  10.141  0.1561  0.1113  0.0690
69296CL      CL17589   3.988   3.358   8.323 -0.4643  0.0331  0.2802
69297CL      CL17590   2.734   9.556  11.592 -0.1166 -0.3006  0.3741
69298CL      CL17591  12.819  10.895   9.181 -0.4631 -0.5282 -0.0892
69299CL      CL17592   2.133   6.630   0.123 -0.1918  0.4130 -0.0567
69300CL      CL17593   6.139   9.234   5.838 -0.2544  0.4368 -0.1231
69301CL      CL17594   3.024   1.086   5.669 -0.1550 -0.2550 -0.0994
69302CL      CL17595   7.784   8.980  10.145 -0.1584 -0.0676  0.4397
69303CL      CL17596   5.916  11.292  11.450  0.2730  0.0241 -0.0231
69304CL      CL17597   7.468   9.690   4.277  0.3030 -0.0128 -0.0380
69305CL      CL17598   9.669   1.561   0.975  0.1858 -0.2154 -0.1881
69306CL      CL17599   2.637   5.086   4.634  0.1190 -0.0049 -0.0070
69307CL      CL17600  12.728   7.463  10.400 -0.1068 -0.0789 -0.1430
69308CL      CL17601   4.163   9.551   2.223  0.1752 -0.2395 -0.4299
69309CL      CL17602   9.277   1.610   3.786 -0.1869  0.1069 -0.1905
69310CL      CL17603   7.893   8.056  10.332  0.1849 -0.0532 -0.0802
69311CL      CL17604   2.180   8.793  12.945  0.1163 -0.1117  0.0502
69312CL      CL17605   8.013   8.509   7.984 -0.1078  0.8101  0.4754
69313CL      CL17606   6.080   6.139   2.617  0.3770 -0.0428  0.1709
69314CL      CL17607  11.480   7.209   0.437 -0.3197 -0.2009 -0.0727
69315CL      CL17608  10.287   9.375   3.461  0.0490  0.2142  0.3748
69316CL      CL17609  12.173   2.097  11.267  0.3056 -0.2856  0.0982
69317CL      CL17610   3.181   5.544   7.027  0.3065 -0.3023  0.1668
69318CL      CL17611   9.819   6.067   6.808  0.2260  0.3406 -0.1130
69319CL      CL17612  10.431   0.368  10.356 -0.0513  0.2073 -0.0808
69320CL      CL17613   2.667   2.223   3.215  0.2219 -0.8467 -0.0695
69321CL      CL17614  11.513   8.075   0.153 -0.2068  0.2931  0.0286
69322CL      CL17615   4.319   1.017   7.467 -0.6159 -0.1306  0.2125
69323CL      CL17616   3.034   6.676  11.744 -0.1468  0.2696  0.4782
69324CL      CL17617   7.534   8.252   3.337 -0.1223  0.1934  0.0727
69325CL      CL17618   4.848   8.889   7.229 -0.0228 -0.1945  0.2127
69326CL      CL17619   2.014   9.440   7.015  0.1685  0.5443 -0.2341
69327CL      CL17620  11.722  10.737   6.641  0.1680  0.0025  0.2158
69328CL      CL17621  10.854   5.534   1.521  0.0908  0.1149  0.0943
69329CL      CL17622   4.404   0.462   1.782  0.2921  0.2555 -0.0249
69330CL      CL17623   1.126   8.030   8.192 -0.5116 -0.1875  0.2042
69331CL      CL17624  10.990   0.191   4.051 -0.5910  0.0695  0.4657
69332CL      CL17625  12.895  12.483  12.395  0.7434  0.2492 -0.0039
69333CL      CL17626   1.849   1.235   2.622  0.0255  0.2119 -0.4042
69334CL      CL17627   4.179   8.216  10.592  0.4904 -0.0489  0.1407
69335CL      CL17628   5.692   5.408   5.498 -0.8187 -0.2602 -0.0006
69336CL      CL17629   5.157   9.950   2.989  0.0829  0.2150 -0.0831
69337CL      CL17630  12.785   9.030   2.164  0.6471  0.2493 -0.1364
69338CL      CL17631   4.079   3.521   9.866  0.0629  0.4439 -0.3373
69339CL      CL17632   3.906   2.751   2.715  0.3548 -0.3243  0.0943
69340CL      CL17633   3.769   9.208   8.940  0.6614  0.2484 -0.4872
69341CL      CL17634   3.294  12.158  11.205 -0.1526 -0.3634  0.1088
69342CL      CL17635  12.581   2.504   5.072  0.3202 -0.3609  0.1250
69343CL      CL17636  12.175   4.069   0.246  0.2006  0.1558 -0.0741
69344CL      CL17637  10.549  11.080   2.427 -0.2309 -0.2324 -0.2796
69345CL      CL17638   7.088  11.833   8.653 -0.6244 -0.0001  0.1650
69346CL      CL17639   5.322   3.662   0.825  0.0242  0.0444 -0.1332
69347CL      CL17640   0.137   6.432  12.605  0.2624  0.2641  0.0335
69348CL      CL17641   8.499  11.477  10.291  0.2088 -0.3454 -0.1384
69349CL      CL17642   1.880   2.786  10.801 -0.3593 -0.2147  0.2825
69350CL      CL17643  12.692  10.037   6.278 -0.3628 -0.1625 -0.2156
69351CL      CL17644  10.206   0.642   5.667  0.2199  0.1734 -0.2290
69352CL      CL17645   3.129   3.954   1.640 -0.4506 -0.1218  0.3481
69353CL      CL17646   8.620   1.199   3.114 -0.5482 -0.0530  0.0629
69354CL      CL17647   9.842   4.723   5.013  0.2095 -0.5539 -0.2055
69355CL      CL17648   3.902   6.654   1.018  0.5450 -0.1429 -0.1597
69356CL      CL17649  12.094   1.985  10.267 -0.1193  0.0686 -0.0381
69357CL      CL17650  11.134   3.666   9.397 -0.1994  0.1879 -0.4705
69358CL      CL17651  12.669  12.952  10.063 -0.3443 -0.0452  0.0677
69359CL      CL17652   0.355   8.580   5.666 -0.2046 -0.3757 -0.1627
69360CL      CL17653   8.191   0.812  10.103 -0.1081 -0.1968 -0.0642
69361CL      CL17654   1.734   2.455   5.791 -0.0780 -0.3629  0.0675
69362CL      CL17655   6.122  10.578   8.568  0.1584  0.0074  0.1441
69363CL      CL17656   6.240   4.395   3.092 -0.0572  0.3050 -0.1681
69364CL      CL17657   9.067  11.010   2.212  0.1462  0.0941 -0.0243
69365CL      CL17658  12.654  10.770   3.550 -0.1483 -0.1163 -0.2699
69366CL      CL17659   6.660   2.152  10.309 -0.1176  0.1119 -0.2681
69367CL      CL17660   5.815  11.984   4.092 -0.2215 -0.2023  0.0175
69368CL      CL17661   5.106  11.354   3.553  0.1946  0.4575  0.0408
69369CL      CL17662   4.853   8.376   9.007  0.0557  0.0175  0.3569
69370CL      CL17663  10.811  12.892   2.542 -0.1873 -0.1833  0.1113
69371CL      CL17664  12.871   0.572   2.161  0.1498 -0.0236 -0.0754
69372CL      CL17665   7.416   0.059   9.463 -0.3659  0.3673 -0.0957
69373CL      CL17666  10.962   5.865   4.288  0.3046 -0.0603 -0.5072
69374CL      CL17667   2.685  12.029   6.717 -0.3839  0.1154  0.4944
69375CL      CL17668   0.344   4.207   7.645  0.5528 -0.5307  0.5798
69376CL      CL17669   6.890   2.542   9.115 -0.1750 -0.2850 -0.3478
69377CL      CL17670   3.027   8.287   9.636 -0.1828  0.2284  0.2182
69378CL      CL17671   3.137   5.829   9.185 -0.0654  0.1283  0.1165
69379CL      CL17672  10.078   5.311   9.772  0.5759  0.2652 -0.0195
69380CL      CL17673   7.423  12.865   2.202 -0.2478  0.0985 -0.3503
69381CL      CL17674   9.505   8.319   2.862 -0.3263 -0.2481 -0.0254
69382CL      CL17675   6.767   7.988   8.992  0.2332  0.0022 -0.2806
69383CL      CL17676   1.599   8.344   1.650 -0.0122  0.5246  0.3462
69384CL      CL17677  11.498   5.380   3.520 -0.1399 -0.1310 -0.1212
69385CL      CL17678  11.768   8.115   5.997  0.0534  0.3136 -0.9610
69386CL      CL17679   4.258   8.357  12.296  0.0426  0.0114  0.1363
69387CL      CL17680   9.446   2.775   8.732 -0.0710  0.0853 -0.1123
69388CL      CL17681  10.489   8.507   0.055  0.1091  0.0863 -0.1694
69389CL      CL17682   6.766   7.049   2.945  0.0456 -0.2654  0.2233
69390CL      CL17683   7.347   3.736   4.847 -0.0016 -0.2042 -0.0327
69391CL      CL17684   7.699   8.358   7.261 -0.1479 -0.2725 -0.2175
69392CL      CL17685   0.185  11.270  12.533 -0.0189 -0.0971 -0.0375
69393CL      CL17686   6.320   3.483   5.045 -0.2250 -0.2331 -0.1758
69394CL      CL17687  12.923   0.090   3.196  0.2123  0.1367  0.1981
69395CL      CL17688  12.198   4.737   2.148  0.2378 -0.5745  0.2427
69396CL      CL17689   1.058   0.394   8.722  0.0145 -0.3273  0.4132
69397CL      CL17690   3.676  11.921   0.276 -0.2225 -0.4976 -0.0096
69398CL      CL17691   2.460   3.227  11.467  0.0533  0.3974 -0.2248
69399CL      CL17692   4.558   5.345   1.213 -0.1636  0.0383  0.2922
69400CL      CL17693  10.746   7.233   9.770 -0.1149  0.4772  0.6233
69401CL      CL17694  11.803   6.229   6.170 -0.5006  0.0797 -0.2095
69402CL      CL17695   1.812   0.649   3.453  0.2095 -0.1656 -0.1801
69403CL      CL17696   1.902   6.778   4.055  0.0122 -0.1736 -0.0637
  12.98714  12.98714  12.98714
